<?xml version="1.0"?>
<VTKFile type="PolyData">
	<PolyData>
		<Piece NumberOfPoints="1206" NumberOfPolys="1000">
			<Points>
				<DataArray type="Float32" NumberOfComponents="3" format="ascii">
 0 0 0 0.005 0 0 0.01 0 0 0.015 0 0 0.02 0 0 0.025 0 0 0.03 0 0 0.035 0 0 0.04 0 0 0.045 0 0 0.05 0 0 0.055 0 0 0.06 0 0 0.065 0 0 0.07 0 0 0.075 0 0 0.08 0 0 0.085 0 0 0.09 0 0 0.095 0 0 0.1 0 0 0.105 0 0 0.11 0 0 0.115 0 0 0.12 0 0 0.125 0 0 0.13 0 0 0.135 0 0 0.14 0 0 0.145 0 0 0.15 0 0 0.155 0 0 0.16 0 0 0.165 0 0 0.17 0 0 0.175 0 0 0.18 0 0 0.185 0 0 0.19 0 0 0.195 0 0 0.2 0 0 0.205 0 0 0.21 0 0 0.215 0 0 0.22 0 0 0.225 0 0 0.23 0 0 0.235 0 0 0.24 0 0 0.245 0 0 0.25 0 0 0.255 0 0 0.26 0 0 0.265 0 0 0.27 0 0 0.275 0 0 0.28 0 0 0.285 0 0 0.29 0 0 0.295 0 0 0.3 0 0 0.305 0 0 0.31 0 0 0.315 0 0 0.32 0 0 0.325 0 0 0.33 0 0 0.335 0 0 0.34 0 0 0.345 0 0 0.35 0 0 0.355 0 0 0.36 0 0 0.365 0 0 0.37 0 0 0.375 0 0 0.38 0 0 0.385 0 0 0.39 0 0 0.395 0 0 0.4 0 0 0.405 0 0 0.41 0 0 0.415 0 0 0.42 0 0 0.425 0 0 0.43 0 0 0.435 0 0 0.44 0 0 0.445 0 0 0.45 0 0 0.455 0 0 0.46 0 0 0.465 0 0 0.47 0 0 0.475 0 0 0.48 0 0 0.485 0 0 0.49 0 0 0.495 0 0 0.5 0 0 0.505 0 0 0.51 0 0 0.515 0 0 0.52 0 0 0.525 0 0 0.53 0 0 0.535 0 0 0.54 0 0 0.545 0 0 0.55 0 0 0.555 0 0 0.56 0 0 0.565 0 0 0.57 0 0 0.575 0 0 0.58 0 0 0.585 0 0 0.59 0 0 0.595 0 0 0.6 0 0 0.605 0 0 0.61 0 0 0.615 0 0 0.62 0 0 0.625 0 0 0.63 0 0 0.635 0 0 0.64 0 0 0.645 0 0 0.65 0 0 0.655 0 0 0.66 0 0 0.665 0 0 0.67 0 0 0.675 0 0 0.68 0 0 0.685 0 0 0.69 0 0 0.695 0 0 0.7 0 0 0.705 0 0 0.71 0 0 0.715 0 0 0.72 0 0 0.725 0 0 0.73 0 0 0.735 0 0 0.74 0 0 0.745 0 0 0.75 0 0 0.755 0 0 0.76 0 0 0.765 0 0 0.77 0 0 0.775 0 0 0.78 0 0 0.785 0 0 0.79 0 0 0.795 0 0 0.8 0 0 0.805 0 0 0.81 0 0 0.815 0 0 0.82 0 0 0.825 0 0 0.83 0 0 0.835 0 0 0.84 0 0 0.845 0 0 0.85 0 0 0.855 0 0 0.86 0 0 0.865 0 0 0.87 0 0 0.875 0 0 0.88 0 0 0.885 0 0 0.89 0 0 0.895 0 0 0.9 0 0 0.905 0 0 0.91 0 0 0.915 0 0 0.92 0 0 0.925 0 0 0.93 0 0 0.935 0 0 0.94 0 0 0.945 0 0 0.95 0 0 0.955 0 0 0.96 0 0 0.965 0 0 0.97 0 0 0.975 0 0 0.98 0 0 0.985 0 0 0.99 0 0 0.995 0 0 1 0 0 0 0.02 0 0.005 0.02 0 0.01 0.02 0 0.015 0.02 0 0.02 0.02 0 0.025 0.02 0 0.03 0.02 0 0.035 0.02 0 0.04 0.02 0 0.045 0.02 0 0.05 0.02 0 0.055 0.02 0 0.06 0.02 0 0.065 0.02 0 0.07 0.02 0 0.075 0.02 0 0.08 0.02 0 0.085 0.02 0 0.09 0.02 0 0.095 0.02 0 0.1 0.02 0 0.105 0.02 0 0.11 0.02 0 0.115 0.02 0 0.12 0.02 0 0.125 0.02 0 0.13 0.02 0 0.135 0.02 0 0.14 0.02 0 0.145 0.02 0 0.15 0.02 0 0.155 0.02 0 0.16 0.02 0 0.165 0.02 0 0.17 0.02 0 0.175 0.02 0 0.18 0.02 0 0.185 0.02 0 0.19 0.02 0 0.195 0.02 0 0.2 0.02 0 0.205 0.02 0 0.21 0.02 0 0.215 0.02 0 0.22 0.02 0 0.225 0.02 0 0.23 0.02 0 0.235 0.02 0 0.24 0.02 0 0.245 0.02 0 0.25 0.02 0 0.255 0.02 0 0.26 0.02 0 0.265 0.02 0 0.27 0.02 0 0.275 0.02 0 0.28 0.02 0 0.285 0.02 0 0.29 0.02 0 0.295 0.02 0 0.3 0.02 0 0.305 0.02 0 0.31 0.02 0 0.315 0.02 0 0.32 0.02 0 0.325 0.02 0 0.33 0.02 0 0.335 0.02 0 0.34 0.02 0 0.345 0.02 0 0.35 0.02 0 0.355 0.02 0 0.36 0.02 0 0.365 0.02 0 0.37 0.02 0 0.375 0.02 0 0.38 0.02 0 0.385 0.02 0 0.39 0.02 0 0.395 0.02 0 0.4 0.02 0 0.405 0.02 0 0.41 0.02 0 0.415 0.02 0 0.42 0.02 0 0.425 0.02 0 0.43 0.02 0 0.435 0.02 0 0.44 0.02 0 0.445 0.02 0 0.45 0.02 0 0.455 0.02 0 0.46 0.02 0 0.465 0.02 0 0.47 0.02 0 0.475 0.02 0 0.48 0.02 0 0.485 0.02 0 0.49 0.02 0 0.495 0.02 0 0.5 0.02 0 0.505 0.02 0 0.51 0.02 0 0.515 0.02 0 0.52 0.02 0 0.525 0.02 0 0.53 0.02 0 0.535 0.02 0 0.54 0.02 0 0.545 0.02 0 0.55 0.02 0 0.555 0.02 0 0.56 0.02 0 0.565 0.02 0 0.57 0.02 0 0.575 0.02 0 0.58 0.02 0 0.585 0.02 0 0.59 0.02 0 0.595 0.02 0 0.6 0.02 0 0.605 0.02 0 0.61 0.02 0 0.615 0.02 0 0.62 0.02 0 0.625 0.02 0 0.63 0.02 0 0.635 0.02 0 0.64 0.02 0 0.645 0.02 0 0.65 0.02 0 0.655 0.02 0 0.66 0.02 0 0.665 0.02 0 0.67 0.02 0 0.675 0.02 0 0.68 0.02 0 0.685 0.02 0 0.69 0.02 0 0.695 0.02 0 0.7 0.02 0 0.705 0.02 0 0.71 0.02 0 0.715 0.02 0 0.72 0.02 0 0.725 0.02 0 0.73 0.02 0 0.735 0.02 0 0.74 0.02 0 0.745 0.02 0 0.75 0.02 0 0.755 0.02 0 0.76 0.02 0 0.765 0.02 0 0.77 0.02 0 0.775 0.02 0 0.78 0.02 0 0.785 0.02 0 0.79 0.02 0 0.795 0.02 0 0.8 0.02 0 0.805 0.02 0 0.81 0.02 0 0.815 0.02 0 0.82 0.02 0 0.825 0.02 0 0.83 0.02 0 0.835 0.02 0 0.84 0.02 0 0.845 0.02 0 0.85 0.02 0 0.855 0.02 0 0.86 0.02 0 0.865 0.02 0 0.87 0.02 0 0.875 0.02 0 0.88 0.02 0 0.885 0.02 0 0.89 0.02 0 0.895 0.02 0 0.9 0.02 0 0.905 0.02 0 0.91 0.02 0 0.915 0.02 0 0.92 0.02 0 0.925 0.02 0 0.93 0.02 0 0.935 0.02 0 0.94 0.02 0 0.945 0.02 0 0.95 0.02 0 0.955 0.02 0 0.96 0.02 0 0.965 0.02 0 0.97 0.02 0 0.975 0.02 0 0.98 0.02 0 0.985 0.02 0 0.99 0.02 0 0.995 0.02 0 1 0.02 0 0 0.04 0 0.005 0.04 0 0.01 0.04 0 0.015 0.04 0 0.02 0.04 0 0.025 0.04 0 0.03 0.04 0 0.035 0.04 0 0.04 0.04 0 0.045 0.04 0 0.05 0.04 0 0.055 0.04 0 0.06 0.04 0 0.065 0.04 0 0.07 0.04 0 0.075 0.04 0 0.08 0.04 0 0.085 0.04 0 0.09 0.04 0 0.095 0.04 0 0.1 0.04 0 0.105 0.04 0 0.11 0.04 0 0.115 0.04 0 0.12 0.04 0 0.125 0.04 0 0.13 0.04 0 0.135 0.04 0 0.14 0.04 0 0.145 0.04 0 0.15 0.04 0 0.155 0.04 0 0.16 0.04 0 0.165 0.04 0 0.17 0.04 0 0.175 0.04 0 0.18 0.04 0 0.185 0.04 0 0.19 0.04 0 0.195 0.04 0 0.2 0.04 0 0.205 0.04 0 0.21 0.04 0 0.215 0.04 0 0.22 0.04 0 0.225 0.04 0 0.23 0.04 0 0.235 0.04 0 0.24 0.04 0 0.245 0.04 0 0.25 0.04 0 0.255 0.04 0 0.26 0.04 0 0.265 0.04 0 0.27 0.04 0 0.275 0.04 0 0.28 0.04 0 0.285 0.04 0 0.29 0.04 0 0.295 0.04 0 0.3 0.04 0 0.305 0.04 0 0.31 0.04 0 0.315 0.04 0 0.32 0.04 0 0.325 0.04 0 0.33 0.04 0 0.335 0.04 0 0.34 0.04 0 0.345 0.04 0 0.35 0.04 0 0.355 0.04 0 0.36 0.04 0 0.365 0.04 0 0.37 0.04 0 0.375 0.04 0 0.38 0.04 0 0.385 0.04 0 0.39 0.04 0 0.395 0.04 0 0.4 0.04 0 0.405 0.04 0 0.41 0.04 0 0.415 0.04 0 0.42 0.04 0 0.425 0.04 0 0.43 0.04 0 0.435 0.04 0 0.44 0.04 0 0.445 0.04 0 0.45 0.04 0 0.455 0.04 0 0.46 0.04 0 0.465 0.04 0 0.47 0.04 0 0.475 0.04 0 0.48 0.04 0 0.485 0.04 0 0.49 0.04 0 0.495 0.04 0 0.5 0.04 0 0.505 0.04 0 0.51 0.04 0 0.515 0.04 0 0.52 0.04 0 0.525 0.04 0 0.53 0.04 0 0.535 0.04 0 0.54 0.04 0 0.545 0.04 0 0.55 0.04 0 0.555 0.04 0 0.56 0.04 0 0.565 0.04 0 0.57 0.04 0 0.575 0.04 0 0.58 0.04 0 0.585 0.04 0 0.59 0.04 0 0.595 0.04 0 0.6 0.04 0 0.605 0.04 0 0.61 0.04 0 0.615 0.04 0 0.62 0.04 0 0.625 0.04 0 0.63 0.04 0 0.635 0.04 0 0.64 0.04 0 0.645 0.04 0 0.65 0.04 0 0.655 0.04 0 0.66 0.04 0 0.665 0.04 0 0.67 0.04 0 0.675 0.04 0 0.68 0.04 0 0.685 0.04 0 0.69 0.04 0 0.695 0.04 0 0.7 0.04 0 0.705 0.04 0 0.71 0.04 0 0.715 0.04 0 0.72 0.04 0 0.725 0.04 0 0.73 0.04 0 0.735 0.04 0 0.74 0.04 0 0.745 0.04 0 0.75 0.04 0 0.755 0.04 0 0.76 0.04 0 0.765 0.04 0 0.77 0.04 0 0.775 0.04 0 0.78 0.04 0 0.785 0.04 0 0.79 0.04 0 0.795 0.04 0 0.8 0.04 0 0.805 0.04 0 0.81 0.04 0 0.815 0.04 0 0.82 0.04 0 0.825 0.04 0 0.83 0.04 0 0.835 0.04 0 0.84 0.04 0 0.845 0.04 0 0.85 0.04 0 0.855 0.04 0 0.86 0.04 0 0.865 0.04 0 0.87 0.04 0 0.875 0.04 0 0.88 0.04 0 0.885 0.04 0 0.89 0.04 0 0.895 0.04 0 0.9 0.04 0 0.905 0.04 0 0.91 0.04 0 0.915 0.04 0 0.92 0.04 0 0.925 0.04 0 0.93 0.04 0 0.935 0.04 0 0.94 0.04 0 0.945 0.04 0 0.95 0.04 0 0.955 0.04 0 0.96 0.04 0 0.965 0.04 0 0.97 0.04 0 0.975 0.04 0 0.98 0.04 0 0.985 0.04 0 0.99 0.04 0 0.995 0.04 0 1 0.04 0 0 0.06 0 0.005 0.06 0 0.01 0.06 0 0.015 0.06 0 0.02 0.06 0 0.025 0.06 0 0.03 0.06 0 0.035 0.06 0 0.04 0.06 0 0.045 0.06 0 0.05 0.06 0 0.055 0.06 0 0.06 0.06 0 0.065 0.06 0 0.07 0.06 0 0.075 0.06 0 0.08 0.06 0 0.085 0.06 0 0.09 0.06 0 0.095 0.06 0 0.1 0.06 0 0.105 0.06 0 0.11 0.06 0 0.115 0.06 0 0.12 0.06 0 0.125 0.06 0 0.13 0.06 0 0.135 0.06 0 0.14 0.06 0 0.145 0.06 0 0.15 0.06 0 0.155 0.06 0 0.16 0.06 0 0.165 0.06 0 0.17 0.06 0 0.175 0.06 0 0.18 0.06 0 0.185 0.06 0 0.19 0.06 0 0.195 0.06 0 0.2 0.06 0 0.205 0.06 0 0.21 0.06 0 0.215 0.06 0 0.22 0.06 0 0.225 0.06 0 0.23 0.06 0 0.235 0.06 0 0.24 0.06 0 0.245 0.06 0 0.25 0.06 0 0.255 0.06 0 0.26 0.06 0 0.265 0.06 0 0.27 0.06 0 0.275 0.06 0 0.28 0.06 0 0.285 0.06 0 0.29 0.06 0 0.295 0.06 0 0.3 0.06 0 0.305 0.06 0 0.31 0.06 0 0.315 0.06 0 0.32 0.06 0 0.325 0.06 0 0.33 0.06 0 0.335 0.06 0 0.34 0.06 0 0.345 0.06 0 0.35 0.06 0 0.355 0.06 0 0.36 0.06 0 0.365 0.06 0 0.37 0.06 0 0.375 0.06 0 0.38 0.06 0 0.385 0.06 0 0.39 0.06 0 0.395 0.06 0 0.4 0.06 0 0.405 0.06 0 0.41 0.06 0 0.415 0.06 0 0.42 0.06 0 0.425 0.06 0 0.43 0.06 0 0.435 0.06 0 0.44 0.06 0 0.445 0.06 0 0.45 0.06 0 0.455 0.06 0 0.46 0.06 0 0.465 0.06 0 0.47 0.06 0 0.475 0.06 0 0.48 0.06 0 0.485 0.06 0 0.49 0.06 0 0.495 0.06 0 0.5 0.06 0 0.505 0.06 0 0.51 0.06 0 0.515 0.06 0 0.52 0.06 0 0.525 0.06 0 0.53 0.06 0 0.535 0.06 0 0.54 0.06 0 0.545 0.06 0 0.55 0.06 0 0.555 0.06 0 0.56 0.06 0 0.565 0.06 0 0.57 0.06 0 0.575 0.06 0 0.58 0.06 0 0.585 0.06 0 0.59 0.06 0 0.595 0.06 0 0.6 0.06 0 0.605 0.06 0 0.61 0.06 0 0.615 0.06 0 0.62 0.06 0 0.625 0.06 0 0.63 0.06 0 0.635 0.06 0 0.64 0.06 0 0.645 0.06 0 0.65 0.06 0 0.655 0.06 0 0.66 0.06 0 0.665 0.06 0 0.67 0.06 0 0.675 0.06 0 0.68 0.06 0 0.685 0.06 0 0.69 0.06 0 0.695 0.06 0 0.7 0.06 0 0.705 0.06 0 0.71 0.06 0 0.715 0.06 0 0.72 0.06 0 0.725 0.06 0 0.73 0.06 0 0.735 0.06 0 0.74 0.06 0 0.745 0.06 0 0.75 0.06 0 0.755 0.06 0 0.76 0.06 0 0.765 0.06 0 0.77 0.06 0 0.775 0.06 0 0.78 0.06 0 0.785 0.06 0 0.79 0.06 0 0.795 0.06 0 0.8 0.06 0 0.805 0.06 0 0.81 0.06 0 0.815 0.06 0 0.82 0.06 0 0.825 0.06 0 0.83 0.06 0 0.835 0.06 0 0.84 0.06 0 0.845 0.06 0 0.85 0.06 0 0.855 0.06 0 0.86 0.06 0 0.865 0.06 0 0.87 0.06 0 0.875 0.06 0 0.88 0.06 0 0.885 0.06 0 0.89 0.06 0 0.895 0.06 0 0.9 0.06 0 0.905 0.06 0 0.91 0.06 0 0.915 0.06 0 0.92 0.06 0 0.925 0.06 0 0.93 0.06 0 0.935 0.06 0 0.94 0.06 0 0.945 0.06 0 0.95 0.06 0 0.955 0.06 0 0.96 0.06 0 0.965 0.06 0 0.97 0.06 0 0.975 0.06 0 0.98 0.06 0 0.985 0.06 0 0.99 0.06 0 0.995 0.06 0 1 0.06 0 0 0.08 0 0.005 0.08 0 0.01 0.08 0 0.015 0.08 0 0.02 0.08 0 0.025 0.08 0 0.03 0.08 0 0.035 0.08 0 0.04 0.08 0 0.045 0.08 0 0.05 0.08 0 0.055 0.08 0 0.06 0.08 0 0.065 0.08 0 0.07 0.08 0 0.075 0.08 0 0.08 0.08 0 0.085 0.08 0 0.09 0.08 0 0.095 0.08 0 0.1 0.08 0 0.105 0.08 0 0.11 0.08 0 0.115 0.08 0 0.12 0.08 0 0.125 0.08 0 0.13 0.08 0 0.135 0.08 0 0.14 0.08 0 0.145 0.08 0 0.15 0.08 0 0.155 0.08 0 0.16 0.08 0 0.165 0.08 0
[...]
			<PointData Scalars="VitesseX">
				<DataArray Name="VitesseX" type="Float32" format="ascii">
 0 -2.67079e-14 2.32027e-15 -4.53605e-14 5.04284e-14 9.56508e-15 2.45727e-14 -4.68994e-14 -8.00686e-15 -9.65595e-15 5.14714e-15 5.45533e-14 -6.57157e-14 1.41403e-13 -9.60842e-14 -7.16229e-14 -1.05743e-13 -5.67642e-14 2.44923e-14 -9.93238e-14 -2.1133e-14 -1.5155e-14 -6.87954e-14 -1.38753e-13 3.0194e-14 -1.41849e-13 -1.49225e-13 -1.37087e-13 -5.64387e-14 -1.40107e-13 -4.89641e-14 -2.23244e-14 -1.28068e-13 -2.06159e-13 -2.23956e-13 3.42055e-14 -2.25181e-13 -3.55538e-14 -2.79693e-13 3.04994e-13 -1.49442e-13 2.80872e-13 8.50941e-14 -3.88986e-14 -6.72052e-14 3.64114e-14 -2.98447e-13 -5.87183e-14 -1.37052e-13 6.72888e-14 -7.69532e-14 -3.56716e-13 -8.79392e-14 -2.60648e-13 4.17863e-13 -1.07e-13 -3.051e-13 -5.16282e-14 -1.21867e-13 -1.09563e-13 -1.29931e-13 -1.74443e-13 -5.16516e-14 3.44393e-13 3.66907e-12 3.4319e-11 2.97689e-10 2.38554e-09 1.76861e-08 1.20637e-07 7.53203e-07 4.27933e-06 2.19704e-05 0.000101073 0.000412362 0.00147337 0.00454405 0.0119264 0.0264136 0.0495907 0.0806323 0.117257 0.157383 0.199712 0.243471 0.288113 0.333415 0.379318 0.425871 0.472594 0.517048 0.561859 0.604558 0.647331 0.688463 0.728331 0.768095 0.804449 0.840345 0.871069 0.894369 0.914719 0.925295 0.930033 0.933756 0.934147 0.933798 0.933245 0.932686 0.932176 0.931547 0.930864 0.930261 0.929799 0.929483 0.929271 0.929113 0.92898 0.928876 0.9288 0.928751 0.928801 0.928828 0.928601 0.927557 0.925387 0.921395 0.913196 0.896737 0.865948 0.81297 0.730446 0.616138 0.478768 0.336419 0.210164 0.114505 0.0541395 0.0227235 0.00882574 0.00328638 0.00119606 0.000428868 0.0001519 5.31683e-05 1.83855e-05 6.27747e-06 2.11507e-06 7.02843e-07 2.30234e-07 7.43158e-08 2.3628e-08 7.39723e-09 2.27941e-09 6.91469e-10 2.06318e-10 6.0466e-11 1.71489e-11 4.35505e-12 9.12455e-13 9.58986e-14 7.7528e-13 1.10597e-13 -6.28191e-13 -2.61168e-13 4.43587e-14 -3.34949e-13 1.92695e-13 -2.84023e-13 -4.2412e-13 -1.98531e-13 -5.40928e-13 -2.32051e-13 -1.52878e-13 -9.88304e-14 -1.88153e-13 1.03852e-14 -1.99922e-13 2.78329e-13 3.14164e-13 -4.77641e-13 -3.50821e-13 6.01122e-14 3.95839e-13 -6.15437e-13 -5.473e-13 1.75574e-13 4.29622e-13 -7.00689e-13 3.07003e-13 -7.29417e-13 -2.63077e-13 1.18852e-12 -7.5411e-13 1.1844e-14 -2.51121e-13 1.07998e-12 4.70183e-13 -8.15955e-13 -7.74738e-13 0 0 1.63731e-14 -1.27044e-14 3.66343e-14 -2.40707e-14 -2.31045e-14 -2.11513e-14 1.15029e-14 -1.42649e-14 2.47914e-14 -1.4609e-14 -1.81896e-14 1.04606e-13 -1.3832e-13 4.12517e-14 9.87232e-15 -6.21214e-14 -5.16303e-14 -9.95417e-14 -4.74141e-14 -6.90287e-14 -1.53537e-14 -1.17768e-14 -4.7315e-14 -1.49159e-13 -8.18358e-14 -6.29258e-14 -8.58501e-14 -1.80735e-13 -8.72255e-15 -1.30048e-13 -1.06867e-13 -1.0603e-13 -1.33222e-13 -1.36972e-13 -2.83611e-13 3.64599e-14 -1.98662e-13 9.56506e-14 -1.37321e-13 2.64294e-13 -1.36804e-13 -4.47469e-14 5.5133e-14 3.24957e-15 -9.10168e-14 1.58512e-14 -3.64478e-13 -2.0427e-13 -2.62936e-13 3.95961e-14 -6.22401e-14 -2.2723e-13 1.70409e-13 -3.5892e-13 -1.0919e-13 1.95641e-13 -1.25742e-13 -1.1967e-13 -1.25648e-13 -3.91918e-15 -3.17678e-14 -7.38653e-14 2.6184e-13 3.7076e-12 3.46929e-11 2.97386e-10 2.38546e-09 1.76862e-08 1.20637e-07 7.53203e-07 4.27933e-06 2.19704e-05 0.000101073 0.000412362 0.00147337 0.00454405 0.0119264 0.0264136 0.0495907 0.0806323 0.117257 0.157383 0.199712 0.243471 0.288113 0.333415 0.379318 0.425871 0.472594 0.517048 0.561859 0.604558 0.647331 0.688463 0.728331 0.768095 0.804449 0.840345 0.871069 0.894369 0.914719 0.925295 0.930033 0.933756 0.934147 0.933798 0.933245 0.932686 0.932176 0.931547 0.930864 0.930261 0.929799 0.929483 0.929271 0.929113 0.92898 0.928876 0.9288 0.928751 0.928801 0.928828 0.928601 0.927557 0.925387 0.921395 0.913196 0.896737 0.865948 0.81297 0.730446 0.616138 0.478768 0.336419 0.210164 0.114505 0.0541395 0.0227235 0.00882574 0.00328638 0.00119606 0.000428868 0.0001519 5.31683e-05 1.83855e-05 6.27747e-06 2.11507e-06 7.02843e-07 2.30235e-07 7.43151e-08 2.36278e-08 7.39734e-09 2.28009e-09 6.91386e-10 2.06085e-10 6.03341e-11 1.72087e-11 4.90474e-12 1.26838e-12 3.50926e-13 -4.92407e-13 -9.78787e-14 2.4759e-13 -4.46502e-13 -2.68474e-13 2.2258e-13 -5.51911e-13 -2.46593e-14 -2.56298e-13 -6.81687e-13 -2.37758e-13 -2.15113e-13 -5.32045e-13 -1.82359e-13 1.5846e-13 1.99548e-14 6.21311e-13 -1.42368e-13 -3.70691e-13 4.99027e-14 3.45774e-13 -3.08197e-13 -2.00912e-13 -1.8132e-13 2.39371e-13 3.92603e-14 -7.00808e-13 1.43055e-13 -7.03171e-13 3.24516e-13 -7.48382e-14 -8.17376e-13 5.09658e-13 4.04874e-13 4.13973e-13 -6.51244e-13 -2.44429e-13 8.98731e-13 6.64783e-13 0 0 9.58506e-15 1.30661e-14 -2.19421e-14 -1.48069e-14 -2.1061e-14 -7.505e-15 -2.46384e-14 1.18307e-14 -4.01787e-14 2.64769e-15 1.9042e-14 -1.12249e-14 3.3393e-14 -4.23036e-14 2.99116e-14 -3.7239e-14 -3.2903e-14 3.96454e-15 -8.69842e-15 -3.37522e-14 -8.49631e-14 -1.49777e-13 -9.39462e-14 1.03217e-14 -2.5521e-14 -1.26611e-13 -6.75756e-14 -7.15759e-14 -1.25563e-13 -1.27099e-13 -1.23723e-13 -2.53535e-14 -1.6073e-13 -1.79e-13 -1.78273e-13 -1.12584e-13 -5.01677e-14 -6.15018e-14 6.40263e-14 -3.59029e-14 1.73262e-14 -6.31677e-14 -2.86484e-14 -3.30605e-14 -2.03772e-13 -1.61192e-13 -8.37876e-14 -1.27938e-13 -1.19918e-13 -1.49229e-13 -3.50434e-14 3.9853e-14 -3.26553e-13 -8.94675e-14 -1.53045e-13 -9.31646e-14 -8.00593e-14 9.79776e-14 -2.36226e-14 -2.49331e-13 1.33956e-13 1.43852e-13 3.39877e-13 3.94284e-12 3.44522e-11 2.97344e-10 2.38582e-09 1.76861e-08 1.20636e-07 7.53203e-07 4.27933e-06 2.19704e-05 0.000101073 0.000412362 0.00147337 0.00454405 0.0119264 0.0264136 0.0495907 0.0806323 0.117257 0.157383 0.199712 0.243471 0.288113 0.333415 0.379318 0.425871 0.472594 0.517048 0.561859 0.604558 0.647331 0.688463 0.728331 0.768095 0.804449 0.840345 0.871069 0.894369 0.914719 0.925295 0.930033 0.933756 0.934147 0.933798 0.933245 0.932686 0.932176 0.931547 0.930864 0.930261 0.929799 0.929483 0.929271 0.929113 0.92898 0.928876 0.9288 0.928751 0.928801 0.928828 0.928601 0.927557 0.925387 0.921395 0.913196 0.896737 0.865948 0.81297 0.730446 0.616138 0.478768 0.336419 0.210164 0.114505 0.0541395 0.0227235 0.00882574 0.00328638 0.00119606 0.000428868 0.0001519 5.31683e-05 1.83855e-05 6.27747e-06 2.11507e-06 7.02843e-07 2.30234e-07 7.43153e-08 2.36278e-08 7.39763e-09 2.27981e-09 6.91469e-10 2.062e-10 6.05621e-11 1.74506e-11 4.65557e-12 1.45176e-12 2.97017e-13 -1.96209e-13 -2.4992e-13 -1.07417e-13 2.72789e-13 -3.0161e-13 -3.94761e-13 -3.52277e-13 -2.10767e-13 -2.55068e-13 -4.11972e-13 -2.53611e-13 -4.43736e-13 -4.31124e-13 6.02088e-14 -7.29971e-14 3.48367e-13 -9.57266e-14 -7.17294e-14 3.93021e-14 2.19412e-13 -1.59805e-13 3.06732e-13 -6.90182e-13 6.72434e-13 -5.61422e-13 -2.48979e-13 2.09195e-13 -2.3679e-13 -1.88865e-13 -6.67998e-13 -5.21731e-13 2.84462e-13 7.23834e-13 1.97322e-13 -2.74692e-13 4.55504e-13 -2.35805e-13 -2.21985e-13 1.25738e-14 0 0 -3.23361e-14 -2.79263e-14 -5.40314e-14 -2.07161e-14 -2.55989e-14 -8.59783e-15 -1.56833e-14 7.22687e-15 -1.00473e-15 1.77636e-14 1.69592e-14 -1.69282e-14 3.41686e-14 -2.91538e-14 -3.62867e-14 1.23307e-14 -3.22473e-14 7.83501e-14 -9.39767e-14 -3.11283e-14 -5.81309e-14 -1.44815e-14 -3.04122e-14 -2.32341e-14 -8.02776e-14 -1.6128e-13 -1.4576e-13 -8.81948e-14 -1.25959e-13 -1.39529e-13 6.19593e-14 -5.48744e-14 -1.36173e-13 -1.10386e-13 -5.90339e-14 -1.51643e-13 -5.8175e-14 -1.19435e-13 9.00516e-14 -3.44835e-14 3.83576e-14 -5.12228e-14 -5.5328e-14 -6.16268e-14 -9.63387e-14 -2.73375e-13 -1.15138e-13 1.43832e-13 -1.71586e-13 -1.38242e-13 -1.8981e-14 3.7702e-14 -2.69971e-13 1.22835e-13 5.99911e-15 -4.0248e-13 1.42881e-13 -2.89149e-13 -1.7112e-14 -4.1336e-14 1.2486e-15 6.35639e-14 4.82144e-13 3.76239e-12 3.44835e-11 2.97408e-10 2.38571e-09 1.76863e-08 1.20637e-07 7.53203e-07 4.27933e-06 2.19704e-05 0.000101073 0.000412362 0.00147337 0.00454405 0.0119264 0.0264136 0.0495907 0.0806323 0.117257 0.157383 0.199712 0.243471 0.288113 0.333415 0.379318 0.425871 0.472594 0.517048 0.561859 0.604558 0.647331 0.688463 0.728331 0.768095 0.804449 0.840345 0.871069 0.894369 0.914719 0.925295 0.930033 0.933756 0.934147 0.933798 0.933245 0.932686 0.932176 0.931547 0.930864 0.930261 0.929799 0.929483 0.929271 0.929113 0.92898 0.928876 0.9288 0.928751 0.928801 0.928828 0.928601 0.927557 0.925387 0.921395 0.913196 0.896737 0.865948 0.81297 0.730446 0.616138 0.478768 0.336419 0.210164 0.114505 0.0541395 0.0227235 0.00882574 0.00328638 0.00119606 0.000428868 0.0001519 5.31683e-05 1.83855e-05 6.27747e-06 2.11507e-06 7.02843e-07 2.30234e-07 7.43156e-08 2.3628e-08 7.39749e-09 2.27972e-09 6.91764e-10 2.06412e-10 6.05308e-11 1.75495e-11 4.48205e-12 1.11518e-12 5.47297e-13 1.22499e-13 8.38752e-14 2.40061e-13 -3.18922e-13 6.64014e-14 -3.24986e-13 -2.05405e-13 -2.85986e-13 -4.42813e-13 -2.47153e-13 -1.49851e-13 -4.32679e-13 -5.75478e-14 5.21758e-14 -2.69625e-13 -5.71564e-13 4.75487e-14 -1.78961e-13 4.43623e-13 -9.38611e-14 -2.44451e-13 2.78113e-13 -4.44066e-13 -1.95837e-13 3.51143e-15 -6.13843e-15 -3.77698e-13 -4.79042e-13 -2.60131e-13 -7.65596e-13 7.02722e-13 8.79962e-13 -7.56557e-13 -6.78682e-13 7.31586e-13 7.39359e-13 3.82198e-13 -9.46662e-13 -5.62337e-13 0 0 -1.71586e-14 -5.21221e-14 -5.8867e-15 -7.19703e-14 -3.82804e-14 -3.47821e-14 1.36629e-14 -1.08228e-14 7.49468e-14 2.19542e-14 -4.85627e-14 1.10079e-13 -1.23387e-13 7.34342e-14 -4.21779e-15 2.80947e-14 -1.02951e-14 -6.39882e-14 -1.7718e-14 -5.22207e-14 3.72698e-15 2.51983e-14 -2.56895e-15 -1.97639e-13 -1.26739e-13 -6.94534e-14 -1.25957e-13 -1.91776e-13 -5.30368e-14 -7.63738e-14 -7.42871e-14 -7.53274e-14 -1.35679e-14 2.69034e-14 -1.79274e-13 -6.88035e-15 -6.85999e-14 2.13917e-14 -2.69253e-13 1.85239e-13 -1.39836e-13 -2.157e-14 -5.23047e-14 -2.29632e-14 -5.75885e-14 -4.21718e-14 -2.8454e-13 4.82895e-14 -3.1751e-13 -4.41973e-15 8.70602e-14 -1.16873e-13 2.52944e-13 -2.1305e-13 1.81026e-14 4.6295e-15 -5.10831e-14 -2.15568e-13 -1.11905e-13 4.70287e-14 -6.81386e-14 -1.04109e-13 5.58469e-13 3.82041e-12 3.4597e-11 2.97456e-10 2.38552e-09 1.76862e-08 1.20637e-07 7.53203e-07 4.27933e-06 2.19704e-05 0.000101073 0.000412362 0.00147337 0.00454405 0.0119264 0.0264136 0.0495907 0.0806323 0.117257 0.157383 0.199712 0.243471 0.288113 0.333415 0.379318 0.425871 0.472594 0.517048 0.561859 0.604558 0.647331 0.688463 0.728331 0.768095 0.804449 0.840345 0.871069 0.894369 0.914719 0.925295 0.930033 0.933756 0.934147 0.933798 0.933245 0.932686 0.932176 0.931547 0.930864 0.930261 0.929799 0.929483 0.929271 0.929113 0.92898 0.928876 0.9288 0.928751 0.928801 0.928828 0.928601 0.927557 0.925387 0.921395 0.913196 0.896737 0.865948 0.81297 0.730446 0.616138 0.478768 0.336419 0.210164 0.114505 0.0541395 0.0227235 0.00882574 0.00328638 0.00119606 0.000428868 0.0001519 5.31683e-05 1.83855e-05 6.27747e-06 2.11507e-06 7.02843e-07 2.30235e-07 7.43152e-08 2.36276e-08 7.39722e-09 2.28043e-09 6.91754e-10 2.06456e-10 6.03792e-11 1.73787e-11 5.17547e-12 1.12226e-12 3.36688e-13 1.719e-13 -1.04323e-13 3.35048e-13 -2.01176e-13 -5.6721e-14 2.32689e-14 -5.06294e-13 -7.73164e-14 2.25817e-14 -5.35563e-13 -2.65968e-13 -2.17771e-13 -3.51146e-13 -2.53262e-13 -2.69424e-13 -4.30473e-13 7.47915e-13 -2.42633e-13 -2.53837e-13 -4.43483e-14 7.06602e-14 -2.84651e-13 -2.56748e-13 -9.54169e-13 5.71206e-13 6.62747e-14 -1.46299e-12 1.40584e-13 -4.33995e-13 4.54403e-13 5.77751e-13 -2.03986e-13 -4.54128e-13 -4.78776e-13 1.22204e-12 -2.39854e-13 1.72606e-13 7.602e-13 3.12482e-13 0 0 -9.92906e-15 5.46959e-15 -6.62241e-14 -3.35524e-14 -1.17109e-14 -5.03318e-16 -6.04895e-14 8.08494e-15 1.23069e-14 4.80415e-14 -2.02734e-15 -4.33637e-14 1.69716e-13 -5.80189e-14 3.25934e-14 -2.44502e-14 2.45948e-14 -5.31719e-14 1.30625e-13 7.23512e-15 -3.06582e-14 -2.65435e-13 -1.76329e-13 3.46464e-16 -1.22143e-13 -9.29409e-14 -6.0931e-14 -4.52829e-14 -2.27946e-13 8.32439e-14 -3.28529e-13 -7.62165e-15 -1.59637e-14 -3.34321e-14 4.40085e-15 -2.33742e-13 2.40585e-13 -3.12344e-13 -1.09204e-14 -3.10392e-13 2.32745e-13 1.07558e-13 -2.00415e-13 -6.24981e-14 -1.11599e-13 -1.90126e-13 1.63858e-13 -1.75473e-13 6.14756e-14 -1.86958e-13 -9.02406e-14 1.37077e-13 -2.08742e-13 2.84998e-13 -1.70502e-13 -6.84917e-14 -3.48191e-13 4.6059e-13 -9.51001e-14 -4.44027e-13 1.82296e-14 4.8437e-14 6.53118e-13 4.25559e-12 3.40647e-11 2.97701e-10 2.38588e-09 1.76858e-08 1.20636e-07 7.53203e-07 4.27933e-06 2.19704e-05 0.000101073 0.000412362 0.00147337 0.00454405 0.0119264 0.0264136 0.0495907 0.0806323 0.117257 0.157383 0.199712 0.243471 0.288113 0.333415 0.379318 0.425871 0.472594 0.517048 0.561859 0.604558 0.647331 0.688463 0.728331 0.768095 0.804449 0.840345 0.871069 0.894369 0.914719 0.925295 0.930033 0.933756 0.934147 0.933798 0.933245 0.932686 0.932176 0.931547 0.930864 0.930261 0.929799 0.929483 0.929271 0.929113 0.92898 0.928876 0.9288 0.928751 0.928801 0.928828 0.928601 0.927557 0.925387 0.921395 0.913196 0.896737 0.865948 0.81297 0.730446 0.616138 0.478768 0.336419 0.210164 0.114505 0.0541395 0.0227235 0.00882574 0.00328638 0.00119606 0.000428868 0.0001519 5.31683e-05 1.83855e-05 6.27747e-06 2.11507e-06 7.02843e-07 2.30234e-07 7.43156e-08 2.36273e-08 7.39729e-09 2.28028e-09 6.91613e-10 2.06637e-10 6.06187e-11 1.72909e-11 5.24354e-12 1.29337e-12 -4.33136e-13 1.46648e-12 -5.69881e-13 -1.14823e-12 1.41291e-12 -2.68159e-13 -8.73122e-13 -9.81417e-15 -2.38899e-13 5.0913e-13 -2.35921e-13 -8.04869e-13 -2.59479e-13 -5.3823e-13 -2.24571e-13 -6.50665e-13 9.49394e-13 -2.33264e-13 2.92263e-13 -2.60769e-13 -3.95956e-14 -7.31758e-13 1.64443e-13 -2.08064e-13 -4.24594e-13 -1.0135e-12 -2.56078e-13 7.90411e-14 -2.21126e-13 9.87887e-13 -2.74448e-13 -1.40681e-12 1.2243e-12 2.79099e-13 -3.45031e-15 -6.47551e-13 1.33505e-12 6.82479e-14 3.56335e-13 -3.29519e-13 0
				</DataArray>
				<DataArray Name="VitesseY" type="Float32" format="ascii">