<?xml version="1.0"?>
<VTKFile type="PolyData">
	<PolyData>
		<Piece NumberOfPoints="1206" NumberOfPolys="1000">
			<Points>
				<DataArray type="Float32" NumberOfComponents="3" format="ascii">
 0 0 0 0.005 0 0 0.01 0 0 0.015 0 0 0.02 0 0 0.025 0 0 0.03 0 0 0.035 0 0 0.04 0 0 0.045 0 0 0.05 0 0 0.055 0 0 0.06 0 0 0.065 0 0 0.07 0 0 0.075 0 0 0.08 0 0 0.085 0 0 0.09 0 0 0.095 0 0 0.1 0 0 0.105 0 0 0.11 0 0 0.115 0 0 0.12 0 0 0.125 0 0 0.13 0 0 0.135 0 0 0.14 0 0 0.145 0 0 0.15 0 0 0.155 0 0 0.16 0 0 0.165 0 0 0.17 0 0 0.175 0 0 0.18 0 0 0.185 0 0 0.19 0 0 0.195 0 0 0.2 0 0 0.205 0 0 0.21 0 0 0.215 0 0 0.22 0 0 0.225 0 0 0.23 0 0 0.235 0 0 0.24 0 0 0.245 0 0 0.25 0 0 0.255 0 0 0.26 0 0 0.265 0 0 0.27 0 0 0.275 0 0 0.28 0 0 0.285 0 0 0.29 0 0 0.295 0 0 0.3 0 0 0.305 0 0 0.31 0 0 0.315 0 0 0.32 0 0 0.325 0 0 0.33 0 0 0.335 0 0 0.34 0 0 0.345 0 0 0.35 0 0 0.355 0 0 0.36 0 0 0.365 0 0 0.37 0 0 0.375 0 0 0.38 0 0 0.385 0 0 0.39 0 0 0.395 0 0 0.4 0 0 0.405 0 0 0.41 0 0 0.415 0 0 0.42 0 0 0.425 0 0 0.43 0 0 0.435 0 0 0.44 0 0 0.445 0 0 0.45 0 0 0.455 0 0 0.46 0 0 0.465 0 0 0.47 0 0 0.475 0 0 0.48 0 0 0.485 0 0 0.49 0 0 0.495 0 0 0.5 0 0 0.505 0 0 0.51 0 0 0.515 0 0 0.52 0 0 0.525 0 0 0.53 0 0 0.535 0 0 0.54 0 0 0.545 0 0 0.55 0 0 0.555 0 0 0.56 0 0 0.565 0 0 0.57 0 0 0.575 0 0 0.58 0 0 0.585 0 0 0.59 0 0 0.595 0 0 0.6 0 0 0.605 0 0 0.61 0 0 0.615 0 0 0.62 0 0 0.625 0 0 0.63 0 0 0.635 0 0 0.64 0 0 0.645 0 0 0.65 0 0 0.655 0 0 0.66 0 0 0.665 0 0 0.67 0 0 0.675 0 0 0.68 0 0 0.685 0 0 0.69 0 0 0.695 0 0 0.7 0 0 0.705 0 0 0.71 0 0 0.715 0 0 0.72 0 0 0.725 0 0 0.73 0 0 0.735 0 0 0.74 0 0 0.745 0 0 0.75 0 0 0.755 0 0 0.76 0 0 0.765 0 0 0.77 0 0 0.775 0 0 0.78 0 0 0.785 0 0 0.79 0 0 0.795 0 0 0.8 0 0 0.805 0 0 0.81 0 0 0.815 0 0 0.82 0 0 0.825 0 0 0.83 0 0 0.835 0 0 0.84 0 0 0.845 0 0 0.85 0 0 0.855 0 0 0.86 0 0 0.865 0 0 0.87 0 0 0.875 0 0 0.88 0 0 0.885 0 0 0.89 0 0 0.895 0 0 0.9 0 0 0.905 0 0 0.91 0 0 0.915 0 0 0.92 0 0 0.925 0 0 0.93 0 0 0.935 0 0 0.94 0 0 0.945 0 0 0.95 0 0 0.955 0 0 0.96 0 0 0.965 0 0 0.97 0 0 0.975 0 0 0.98 0 0 0.985 0 0 0.99 0 0 0.995 0 0 1 0 0 0 0.02 0 0.005 0.02 0 0.01 0.02 0 0.015 0.02 0 0.02 0.02 0 0.025 0.02 0 0.03 0.02 0 0.035 0.02 0 0.04 0.02 0 0.045 0.02 0 0.05 0.02 0 0.055 0.02 0 0.06 0.02 0 0.065 0.02 0 0.07 0.02 0 0.075 0.02 0 0.08 0.02 0 0.085 0.02 0 0.09 0.02 0 0.095 0.02 0 0.1 0.02 0 0.105 0.02 0 0.11 0.02 0 0.115 0.02 0 0.12 0.02 0 0.125 0.02 0 0.13 0.02 0 0.135 0.02 0 0.14 0.02 0 0.145 0.02 0 0.15 0.02 0 0.155 0.02 0 0.16 0.02 0 0.165 0.02 0 0.17 0.02 0 0.175 0.02 0 0.18 0.02 0 0.185 0.02 0 0.19 0.02 0 0.195 0.02 0 0.2 0.02 0 0.205 0.02 0 0.21 0.02 0 0.215 0.02 0 0.22 0.02 0 0.225 0.02 0 0.23 0.02 0 0.235 0.02 0 0.24 0.02 0 0.245 0.02 0 0.25 0.02 0 0.255 0.02 0 0.26 0.02 0 0.265 0.02 0 0.27 0.02 0 0.275 0.02 0 0.28 0.02 0 0.285 0.02 0 0.29 0.02 0 0.295 0.02 0 0.3 0.02 0 0.305 0.02 0 0.31 0.02 0 0.315 0.02 0 0.32 0.02 0 0.325 0.02 0 0.33 0.02 0 0.335 0.02 0 0.34 0.02 0 0.345 0.02 0 0.35 0.02 0 0.355 0.02 0 0.36 0.02 0 0.365 0.02 0 0.37 0.02 0 0.375 0.02 0 0.38 0.02 0 0.385 0.02 0 0.39 0.02 0 0.395 0.02 0 0.4 0.02 0 0.405 0.02 0 0.41 0.02 0 0.415 0.02 0 0.42 0.02 0 0.425 0.02 0 0.43 0.02 0 0.435 0.02 0 0.44 0.02 0 0.445 0.02 0 0.45 0.02 0 0.455 0.02 0 0.46 0.02 0 0.465 0.02 0 0.47 0.02 0 0.475 0.02 0 0.48 0.02 0 0.485 0.02 0 0.49 0.02 0 0.495 0.02 0 0.5 0.02 0 0.505 0.02 0 0.51 0.02 0 0.515 0.02 0 0.52 0.02 0 0.525 0.02 0 0.53 0.02 0 0.535 0.02 0 0.54 0.02 0 0.545 0.02 0 0.55 0.02 0 0.555 0.02 0 0.56 0.02 0 0.565 0.02 0 0.57 0.02 0 0.575 0.02 0 0.58 0.02 0 0.585 0.02 0 0.59 0.02 0 0.595 0.02 0 0.6 0.02 0 0.605 0.02 0 0.61 0.02 0 0.615 0.02 0 0.62 0.02 0 0.625 0.02 0 0.63 0.02 0 0.635 0.02 0 0.64 0.02 0 0.645 0.02 0 0.65 0.02 0 0.655 0.02 0 0.66 0.02 0 0.665 0.02 0 0.67 0.02 0 0.675 0.02 0 0.68 0.02 0 0.685 0.02 0 0.69 0.02 0 0.695 0.02 0 0.7 0.02 0 0.705 0.02 0 0.71 0.02 0 0.715 0.02 0 0.72 0.02 0 0.725 0.02 0 0.73 0.02 0 0.735 0.02 0 0.74 0.02 0 0.745 0.02 0 0.75 0.02 0 0.755 0.02 0 0.76 0.02 0 0.765 0.02 0 0.77 0.02 0 0.775 0.02 0 0.78 0.02 0 0.785 0.02 0 0.79 0.02 0 0.795 0.02 0 0.8 0.02 0 0.805 0.02 0 0.81 0.02 0 0.815 0.02 0 0.82 0.02 0 0.825 0.02 0 0.83 0.02 0 0.835 0.02 0 0.84 0.02 0 0.845 0.02 0 0.85 0.02 0 0.855 0.02 0 0.86 0.02 0 0.865 0.02 0 0.87 0.02 0 0.875 0.02 0 0.88 0.02 0 0.885 0.02 0 0.89 0.02 0 0.895 0.02 0 0.9 0.02 0 0.905 0.02 0 0.91 0.02 0 0.915 0.02 0 0.92 0.02 0 0.925 0.02 0 0.93 0.02 0 0.935 0.02 0 0.94 0.02 0 0.945 0.02 0 0.95 0.02 0 0.955 0.02 0 0.96 0.02 0 0.965 0.02 0 0.97 0.02 0 0.975 0.02 0 0.98 0.02 0 0.985 0.02 0 0.99 0.02 0 0.995 0.02 0 1 0.02 0 0 0.04 0 0.005 0.04 0 0.01 0.04 0 0.015 0.04 0 0.02 0.04 0 0.025 0.04 0 0.03 0.04 0 0.035 0.04 0 0.04 0.04 0 0.045 0.04 0 0.05 0.04 0 0.055 0.04 0 0.06 0.04 0 0.065 0.04 0 0.07 0.04 0 0.075 0.04 0 0.08 0.04 0 0.085 0.04 0 0.09 0.04 0 0.095 0.04 0 0.1 0.04 0 0.105 0.04 0 0.11 0.04 0 0.115 0.04 0 0.12 0.04 0 0.125 0.04 0 0.13 0.04 0 0.135 0.04 0 0.14 0.04 0 0.145 0.04 0 0.15 0.04 0 0.155 0.04 0 0.16 0.04 0 0.165 0.04 0 0.17 0.04 0 0.175 0.04 0 0.18 0.04 0 0.185 0.04 0 0.19 0.04 0 0.195 0.04 0 0.2 0.04 0 0.205 0.04 0 0.21 0.04 0 0.215 0.04 0 0.22 0.04 0 0.225 0.04 0 0.23 0.04 0 0.235 0.04 0 0.24 0.04 0 0.245 0.04 0 0.25 0.04 0 0.255 0.04 0 0.26 0.04 0 0.265 0.04 0 0.27 0.04 0 0.275 0.04 0 0.28 0.04 0 0.285 0.04 0 0.29 0.04 0 0.295 0.04 0 0.3 0.04 0 0.305 0.04 0 0.31 0.04 0 0.315 0.04 0 0.32 0.04 0 0.325 0.04 0 0.33 0.04 0 0.335 0.04 0 0.34 0.04 0 0.345 0.04 0 0.35 0.04 0 0.355 0.04 0 0.36 0.04 0 0.365 0.04 0 0.37 0.04 0 0.375 0.04 0 0.38 0.04 0 0.385 0.04 0 0.39 0.04 0 0.395 0.04 0 0.4 0.04 0 0.405 0.04 0 0.41 0.04 0 0.415 0.04 0 0.42 0.04 0 0.425 0.04 0 0.43 0.04 0 0.435 0.04 0 0.44 0.04 0 0.445 0.04 0 0.45 0.04 0 0.455 0.04 0 0.46 0.04 0 0.465 0.04 0 0.47 0.04 0 0.475 0.04 0 0.48 0.04 0 0.485 0.04 0 0.49 0.04 0 0.495 0.04 0 0.5 0.04 0 0.505 0.04 0 0.51 0.04 0 0.515 0.04 0 0.52 0.04 0 0.525 0.04 0 0.53 0.04 0 0.535 0.04 0 0.54 0.04 0 0.545 0.04 0 0.55 0.04 0 0.555 0.04 0 0.56 0.04 0 0.565 0.04 0 0.57 0.04 0 0.575 0.04 0 0.58 0.04 0 0.585 0.04 0 0.59 0.04 0 0.595 0.04 0 0.6 0.04 0 0.605 0.04 0 0.61 0.04 0 0.615 0.04 0 0.62 0.04 0 0.625 0.04 0 0.63 0.04 0 0.635 0.04 0 0.64 0.04 0 0.645 0.04 0 0.65 0.04 0 0.655 0.04 0 0.66 0.04 0 0.665 0.04 0 0.67 0.04 0 0.675 0.04 0 0.68 0.04 0 0.685 0.04 0 0.69 0.04 0 0.695 0.04 0 0.7 0.04 0 0.705 0.04 0 0.71 0.04 0 0.715 0.04 0 0.72 0.04 0 0.725 0.04 0 0.73 0.04 0 0.735 0.04 0 0.74 0.04 0 0.745 0.04 0 0.75 0.04 0 0.755 0.04 0 0.76 0.04 0 0.765 0.04 0 0.77 0.04 0 0.775 0.04 0 0.78 0.04 0 0.785 0.04 0 0.79 0.04 0 0.795 0.04 0 0.8 0.04 0 0.805 0.04 0 0.81 0.04 0 0.815 0.04 0 0.82 0.04 0 0.825 0.04 0 0.83 0.04 0 0.835 0.04 0 0.84 0.04 0 0.845 0.04 0 0.85 0.04 0 0.855 0.04 0 0.86 0.04 0 0.865 0.04 0 0.87 0.04 0 0.875 0.04 0 0.88 0.04 0 0.885 0.04 0 0.89 0.04 0 0.895 0.04 0 0.9 0.04 0 0.905 0.04 0 0.91 0.04 0 0.915 0.04 0 0.92 0.04 0 0.925 0.04 0 0.93 0.04 0 0.935 0.04 0 0.94 0.04 0 0.945 0.04 0 0.95 0.04 0 0.955 0.04 0 0.96 0.04 0 0.965 0.04 0 0.97 0.04 0 0.975 0.04 0 0.98 0.04 0 0.985 0.04 0 0.99 0.04 0 0.995 0.04 0 1 0.04 0 0 0.06 0 0.005 0.06 0 0.01 0.06 0 0.015 0.06 0 0.02 0.06 0 0.025 0.06 0 0.03 0.06 0 0.035 0.06 0 0.04 0.06 0 0.045 0.06 0 0.05 0.06 0 0.055 0.06 0 0.06 0.06 0 0.065 0.06 0 0.07 0.06 0 0.075 0.06 0 0.08 0.06 0 0.085 0.06 0 0.09 0.06 0 0.095 0.06 0 0.1 0.06 0 0.105 0.06 0 0.11 0.06 0 0.115 0.06 0 0.12 0.06 0 0.125 0.06 0 0.13 0.06 0 0.135 0.06 0 0.14 0.06 0 0.145 0.06 0 0.15 0.06 0 0.155 0.06 0 0.16 0.06 0 0.165 0.06 0 0.17 0.06 0 0.175 0.06 0 0.18 0.06 0 0.185 0.06 0 0.19 0.06 0 0.195 0.06 0 0.2 0.06 0 0.205 0.06 0 0.21 0.06 0 0.215 0.06 0 0.22 0.06 0 0.225 0.06 0 0.23 0.06 0 0.235 0.06 0 0.24 0.06 0 0.245 0.06 0 0.25 0.06 0 0.255 0.06 0 0.26 0.06 0 0.265 0.06 0 0.27 0.06 0 0.275 0.06 0 0.28 0.06 0 0.285 0.06 0 0.29 0.06 0 0.295 0.06 0 0.3 0.06 0 0.305 0.06 0 0.31 0.06 0 0.315 0.06 0 0.32 0.06 0 0.325 0.06 0 0.33 0.06 0 0.335 0.06 0 0.34 0.06 0 0.345 0.06 0 0.35 0.06 0 0.355 0.06 0 0.36 0.06 0 0.365 0.06 0 0.37 0.06 0 0.375 0.06 0 0.38 0.06 0 0.385 0.06 0 0.39 0.06 0 0.395 0.06 0 0.4 0.06 0 0.405 0.06 0 0.41 0.06 0 0.415 0.06 0 0.42 0.06 0 0.425 0.06 0 0.43 0.06 0 0.435 0.06 0 0.44 0.06 0 0.445 0.06 0 0.45 0.06 0 0.455 0.06 0 0.46 0.06 0 0.465 0.06 0 0.47 0.06 0 0.475 0.06 0 0.48 0.06 0 0.485 0.06 0 0.49 0.06 0 0.495 0.06 0 0.5 0.06 0 0.505 0.06 0 0.51 0.06 0 0.515 0.06 0 0.52 0.06 0 0.525 0.06 0 0.53 0.06 0 0.535 0.06 0 0.54 0.06 0 0.545 0.06 0 0.55 0.06 0 0.555 0.06 0 0.56 0.06 0 0.565 0.06 0 0.57 0.06 0 0.575 0.06 0 0.58 0.06 0 0.585 0.06 0 0.59 0.06 0 0.595 0.06 0 0.6 0.06 0 0.605 0.06 0 0.61 0.06 0 0.615 0.06 0 0.62 0.06 0 0.625 0.06 0 0.63 0.06 0 0.635 0.06 0 0.64 0.06 0 0.645 0.06 0 0.65 0.06 0 0.655 0.06 0 0.66 0.06 0 0.665 0.06 0 0.67 0.06 0 0.675 0.06 0 0.68 0.06 0 0.685 0.06 0 0.69 0.06 0 0.695 0.06 0 0.7 0.06 0 0.705 0.06 0 0.71 0.06 0 0.715 0.06 0 0.72 0.06 0 0.725 0.06 0 0.73 0.06 0 0.735 0.06 0 0.74 0.06 0 0.745 0.06 0 0.75 0.06 0 0.755 0.06 0 0.76 0.06 0 0.765 0.06 0 0.77 0.06 0 0.775 0.06 0 0.78 0.06 0 0.785 0.06 0 0.79 0.06 0 0.795 0.06 0 0.8 0.06 0 0.805 0.06 0 0.81 0.06 0 0.815 0.06 0 0.82 0.06 0 0.825 0.06 0 0.83 0.06 0 0.835 0.06 0 0.84 0.06 0 0.845 0.06 0 0.85 0.06 0 0.855 0.06 0 0.86 0.06 0 0.865 0.06 0 0.87 0.06 0 0.875 0.06 0 0.88 0.06 0 0.885 0.06 0 0.89 0.06 0 0.895 0.06 0 0.9 0.06 0 0.905 0.06 0 0.91 0.06 0 0.915 0.06 0 0.92 0.06 0 0.925 0.06 0 0.93 0.06 0 0.935 0.06 0 0.94 0.06 0 0.945 0.06 0 0.95 0.06 0 0.955 0.06 0 0.96 0.06 0 0.965 0.06 0 0.97 0.06 0 0.975 0.06 0 0.98 0.06 0 0.985 0.06 0 0.99 0.06 0 0.995 0.06 0 1 0.06 0 0 0.08 0 0.005 0.08 0 0.01 0.08 0 0.015 0.08 0 0.02 0.08 0 0.025 0.08 0 0.03 0.08 0 0.035 0.08 0 0.04 0.08 0 0.045 0.08 0 0.05 0.08 0 0.055 0.08 0 0.06 0.08 0 0.065 0.08 0 0.07 0.08 0 0.075 0.08 0 0.08 0.08 0 0.085 0.08 0 0.09 0.08 0 0.095 0.08 0 0.1 0.08 0 0.105 0.08 0 0.11 0.08 0 0.115 0.08 0 0.12 0.08 0 0.125 0.08 0 0.13 0.08 0 0.135 0.08 0 0.14 0.08 0 0.145 0.08 0 0.15 0.08 0 0.155 0.08 0 0.16 0.08 0 0.165 0.08 0
[...]
			<PointData Scalars="VitesseX">
				<DataArray Name="VitesseX" type="Float32" format="ascii">
 0 4.83328e-16 5.69585e-15 -1.76191e-15 8.35248e-15 -3.70413e-14 3.11809e-14 -5.28176e-14 -2.23569e-14 -2.81e-14 8.02385e-15 2.54391e-14 -1.67367e-14 6.40962e-15 -4.95635e-14 -1.05133e-14 3.61789e-14 4.94504e-15 -1.52135e-13 1.14283e-13 -1.67343e-13 6.78491e-15 2.46049e-14 -9.79874e-14 -2.16364e-15 -1.54433e-13 -1.79883e-13 -9.97097e-14 -1.37159e-14 -6.65876e-14 4.3481e-15 -2.08578e-14 6.71781e-14 -5.8085e-14 -1.30618e-14 -7.29396e-14 -4.67259e-14 -1.79869e-13 -1.85921e-13 -1.01226e-13 -1.22992e-13 -2.46372e-13 -7.24792e-14 -1.46496e-13 -1.54109e-13 4.61454e-14 4.26102e-15 -1.00713e-13 -3.47397e-14 -1.7577e-13 5.92217e-14 -2.83243e-14 9.6112e-13 6.34071e-12 4.66764e-11 3.14535e-10 1.99892e-09 1.19118e-08 6.64163e-08 3.45274e-07 1.66703e-06 7.44131e-06 3.05475e-05 0.000114598 0.00038991 0.00119249 0.00324569 0.00778588 0.0163552 0.0301101 0.049115 0.0723894 0.0986216 0.126745 0.156076 0.186215 0.216869 0.247874 0.279142 0.310626 0.342307 0.374186 0.406278 0.438583 0.470595 0.502031 0.533351 0.564219 0.594785 0.625173 0.654922 0.684604 0.713528 0.742321 0.770905 0.798269 0.825605 0.850526 0.873375 0.893879 0.908682 0.920235 0.927774 0.930637 0.932428 0.932884 0.932775 0.932518 0.932164 0.931755 0.931305 0.930828 0.930348 0.929942 0.929648 0.929358 0.929089 0.928879 0.928722 0.928602 0.928507 0.928428 0.928359 0.928296 0.928239 0.92819 0.928146 0.928106 0.928072 0.928042 0.928015 0.927995 0.927987 0.927984 0.927959 0.927848 0.92761 0.927145 0.926146 0.924018 0.919651 0.910973 0.89437 0.864173 0.812935 0.733485 0.623164 0.489313 0.348852 0.222184 0.124179 0.0605424 0.026261 0.0105452 0.00406564 0.00153737 0.000575623 0.000214177 7.92765e-05 2.91936e-05 1.06921e-05 3.89295e-06 1.40834e-06 5.05977e-07 1.80438e-07 6.38398e-08 2.23987e-08 7.78979e-09 2.68446e-09 9.16488e-10 3.09585e-10 1.03486e-10 3.405e-11 1.07759e-11 3.05766e-12 1.26791e-12 -6.80084e-14 2.64674e-13 -8.08693e-13 -2.44935e-13 -2.37741e-13 6.06215e-13 -5.34183e-13 -1.14282e-13 4.28674e-13 -5.01068e-13 1.69114e-13 4.31352e-13 -3.60671e-13 -2.92189e-13 3.81198e-13 2.11624e-13 2.91893e-13 -2.75233e-13 2.48602e-13 4.44682e-13 3.56777e-13 2.28489e-13 -3.4821e-13 7.22049e-13 0 0 1.77288e-14 2.2405e-15 2.04456e-14 -2.45031e-15 9.42955e-15 -4.64532e-14 -2.99715e-15 -1.97929e-14 -3.20219e-15 -8.66382e-15 -1.72635e-14 1.73757e-14 -2.63131e-14 -1.06772e-14 1.61338e-14 -8.09352e-14 -3.26183e-14 5.43699e-14 -1.02897e-13 2.05258e-14 -7.34673e-14 -5.03218e-14 -5.6562e-14 -1.52091e-13 -6.31637e-14 -5.85705e-14 -1.28202e-13 -1.69059e-13 6.57285e-14 5.56918e-14 5.99488e-15 -3.48179e-14 5.54033e-14 -1.19522e-13 -6.01722e-14 -1.58928e-13 -7.42686e-14 -1.35381e-13 -2.40119e-13 -1.79937e-13 -2.10649e-14 -4.43611e-14 -1.00172e-13 3.60547e-14 -2.4384e-13 -3.03459e-14 6.25674e-14 -2.74414e-15 3.06127e-14 -1.64934e-13 1.6854e-13 8.02233e-13 6.6657e-12 4.62855e-11 3.14856e-10 1.9988e-09 1.19118e-08 6.64165e-08 3.45274e-07 1.66703e-06 7.44131e-06 3.05475e-05 0.000114598 0.00038991 0.00119249 0.00324569 0.00778588 0.0163552 0.0301101 0.049115 0.0723894 0.0986216 0.126745 0.156076 0.186215 0.216869 0.247874 0.279142 0.310626 0.342307 0.374186 0.406278 0.438583 0.470595 0.502031 0.533351 0.564219 0.594785 0.625173 0.654922 0.684604 0.713528 0.742321 0.770905 0.798269 0.825605 0.850526 0.873375 0.893879 0.908682 0.920235 0.927774 0.930637 0.932428 0.932884 0.932775 0.932518 0.932164 0.931755 0.931305 0.930828 0.930348 0.929942 0.929648 0.929358 0.929089 0.928879 0.928722 0.928602 0.928507 0.928428 0.928359 0.928296 0.928239 0.92819 0.928146 0.928106 0.928072 0.928042 0.928015 0.927995 0.927987 0.927984 0.927959 0.927848 0.92761 0.927145 0.926146 0.924018 0.919651 0.910973 0.89437 0.864173 0.812935 0.733485 0.623164 0.489313 0.348852 0.222184 0.124179 0.0605424 0.026261 0.0105452 0.00406564 0.00153737 0.000575623 0.000214177 7.92765e-05 2.91936e-05 1.06921e-05 3.89295e-06 1.40834e-06 5.05977e-07 1.80438e-07 6.38397e-08 2.23984e-08 7.79012e-09 2.68449e-09 9.16331e-10 3.09715e-10 1.03501e-10 3.40857e-11 1.0826e-11 3.46219e-12 4.25387e-13 1.32822e-13 -2.87752e-13 -6.58217e-14 -1.13829e-13 -1.75085e-13 -2.28124e-13 -1.49096e-14 2.07335e-14 -6.31407e-13 3.24473e-13 8.44749e-14 -3.6801e-13 3.76685e-13 -6.3968e-14 -1.63667e-13 3.65027e-13 1.56836e-13 5.13384e-13 2.08674e-13 1.79965e-13 -2.84761e-13 2.99352e-13 8.03605e-14 -3.26631e-13 0 0 8.44506e-15 2.68929e-14 6.41804e-15 1.20039e-14 1.13719e-14 -3.51129e-15 -2.30294e-14 1.4233e-14 9.5968e-15 -1.46387e-14 -9.46976e-15 -4.20718e-14 7.48165e-16 -3.15123e-14 -8.14494e-14 -6.97463e-15 -3.60364e-14 -5.92381e-14 -2.28656e-14 -1.26928e-14 -7.99621e-14 -7.91348e-14 -3.02173e-15 -8.94428e-14 -9.83314e-14 -5.15184e-14 -6.8152e-14 -8.52649e-14 -1.73636e-14 -6.05379e-14 6.67348e-14 -7.72936e-14 -6.65548e-14 4.6862e-14 -1.4892e-13 -1.5257e-13 -7.76484e-14 -1.26126e-13 -1.14703e-13 -1.36039e-13 -9.63439e-14 5.53919e-14 2.12619e-14 -1.66949e-13 -4.4259e-14 2.60778e-14 -5.64105e-14 -1.56077e-13 1.34258e-13 -9.18786e-15 7.55478e-14 1.09733e-12 6.40259e-12 4.69004e-11 3.14691e-10 1.99858e-09 1.19119e-08 6.64164e-08 3.45274e-07 1.66703e-06 7.44131e-06 3.05475e-05 0.000114598 0.00038991 0.00119249 0.00324569 0.00778588 0.0163552 0.0301101 0.049115 0.0723894 0.0986216 0.126745 0.156076 0.186215 0.216869 0.247874 0.279142 0.310626 0.342307 0.374186 0.406278 0.438583 0.470595 0.502031 0.533351 0.564219 0.594785 0.625173 0.654922 0.684604 0.713528 0.742321 0.770905 0.798269 0.825605 0.850526 0.873375 0.893879 0.908682 0.920235 0.927774 0.930637 0.932428 0.932884 0.932775 0.932518 0.932164 0.931755 0.931305 0.930828 0.930348 0.929942 0.929648 0.929358 0.929089 0.928879 0.928722 0.928602 0.928507 0.928428 0.928359 0.928296 0.928239 0.92819 0.928146 0.928106 0.928072 0.928042 0.928015 0.927995 0.927987 0.927984 0.927959 0.927848 0.92761 0.927145 0.926146 0.924018 0.919651 0.910973 0.89437 0.864173 0.812935 0.733485 0.623164 0.489313 0.348852 0.222184 0.124179 0.0605424 0.026261 0.0105452 0.00406564 0.00153737 0.000575623 0.000214177 7.92765e-05 2.91936e-05 1.06921e-05 3.89295e-06 1.40834e-06 5.05977e-07 1.80438e-07 6.38398e-08 2.23987e-08 7.78991e-09 2.68444e-09 9.16434e-10 3.09738e-10 1.03518e-10 3.43407e-11 1.102e-11 3.13068e-12 6.78664e-13 -2.25262e-13 -2.42692e-13 1.23645e-13 -5.54574e-14 -3.36307e-13 -5.51842e-13 -1.45513e-13 -2.18294e-13 -7.00341e-15 4.57084e-14 -2.38945e-13 -6.77191e-14 -2.3936e-13 5.38819e-13 1.42634e-13 -5.28747e-15 1.55403e-13 -1.8515e-13 7.36666e-13 3.89569e-13 -2.69841e-13 2.3723e-13 9.13471e-13 1.05523e-13 0 0 -2.37554e-15 2.21652e-14 9.66763e-15 1.26142e-14 -7.03076e-15 3.12263e-14 1.09452e-14 -1.59487e-14 2.16991e-14 -4.1485e-14 5.36545e-15 -1.45718e-14 -3.03563e-14 -1.08083e-13 -7.61785e-14 8.73301e-15 -4.10276e-14 -7.94234e-14 -2.0743e-14 -1.42669e-13 5.42303e-16 -5.19337e-14 -7.10256e-14 2.8994e-15 -2.22066e-14 -6.98778e-14 -6.36098e-14 -4.89435e-14 -3.84358e-14 -1.82014e-14 -6.42784e-14 2.93505e-14 -2.40255e-14 -1.24581e-13 -1.33049e-13 -6.14819e-14 -1.22674e-13 -1.09407e-13 -4.7089e-14 -1.21246e-13 -4.95773e-14 -1.81833e-13 5.56902e-15 3.42986e-14 2.38481e-14 -2.15172e-13 -4.46187e-14 3.07566e-14 -2.83087e-13 1.27009e-13 2.76783e-13 9.68244e-13 6.50224e-12 4.68097e-11 3.14768e-10 1.9988e-09 1.19116e-08 6.64165e-08 3.45274e-07 1.66703e-06 7.44131e-06 3.05475e-05 0.000114598 0.00038991 0.00119249 0.00324569 0.00778588 0.0163552 0.0301101 0.049115 0.0723894 0.0986216 0.126745 0.156076 0.186215 0.216869 0.247874 0.279142 0.310626 0.342307 0.374186 0.406278 0.438583 0.470595 0.502031 0.533351 0.564219 0.594785 0.625173 0.654922 0.684604 0.713528 0.742321 0.770905 0.798269 0.825605 0.850526 0.873375 0.893879 0.908682 0.920235 0.927774 0.930637 0.932428 0.932884 0.932775 0.932518 0.932164 0.931755 0.931305 0.930828 0.930348 0.929942 0.929648 0.929358 0.929089 0.928879 0.928722 0.928602 0.928507 0.928428 0.928359 0.928296 0.928239 0.92819 0.928146 0.928106 0.928072 0.928042 0.928015 0.927995 0.927987 0.927984 0.927959 0.927848 0.92761 0.927145 0.926146 0.924018 0.919651 0.910973 0.89437 0.864173 0.812935 0.733485 0.623164 0.489313 0.348852 0.222184 0.124179 0.0605424 0.026261 0.0105452 0.00406564 0.00153737 0.000575623 0.000214177 7.92765e-05 2.91936e-05 1.06921e-05 3.89295e-06 1.40834e-06 5.05977e-07 1.80438e-07 6.38401e-08 2.23988e-08 7.79015e-09 2.68444e-09 9.16244e-10 3.09788e-10 1.03597e-10 3.38939e-11 1.12734e-11 3.15028e-12 1.19514e-12 -3.14524e-13 -1.90677e-13 -2.9465e-13 3.79218e-14 -2.69304e-13 1.46299e-13 5.5971e-15 -4.98982e-13 1.78419e-13 -6.83154e-13 3.66074e-13 -1.67084e-13 -4.38608e-13 3.13112e-13 1.19405e-13 -2.47384e-13 7.39147e-13 -3.50262e-13 -3.85277e-13 2.0595e-14 7.11099e-13 5.67496e-13 2.23176e-13 2.57663e-13 0 0 1.06641e-14 9.34199e-16 1.74523e-14 1.10526e-15 2.50488e-14 -1.25807e-14 1.83849e-14 -2.52009e-14 3.9958e-14 -4.87968e-14 -4.50461e-14 1.75707e-14 -9.39181e-14 -7.8264e-14 -7.81884e-14 -7.82649e-14 -3.7548e-14 1.44743e-13 -1.83688e-13 -6.8504e-14 -3.19697e-14 -5.90307e-14 -6.25423e-14 -4.98012e-14 4.17875e-14 -6.13829e-14 -9.19254e-14 -1.33391e-13 1.14174e-13 5.58088e-14 -5.10142e-14 6.15598e-14 1.22744e-13 -1.89942e-13 -5.12662e-15 -1.57082e-13 -1.22166e-13 -1.18125e-13 -2.48361e-13 -1.78053e-13 -3.26141e-14 -2.564e-13 -1.36683e-14 2.23206e-13 -1.47908e-13 -1.86622e-13 6.56646e-14 2.19964e-14 -2.63725e-13 -1.48634e-13 3.16794e-13 9.15603e-13 6.71595e-12 4.63574e-11 3.15069e-10 1.99906e-09 1.19116e-08 6.64166e-08 3.45274e-07 1.66703e-06 7.44131e-06 3.05475e-05 0.000114598 0.00038991 0.00119249 0.00324569 0.00778588 0.0163552 0.0301101 0.049115 0.0723894 0.0986216 0.126745 0.156076 0.186215 0.216869 0.247874 0.279142 0.310626 0.342307 0.374186 0.406278 0.438583 0.470595 0.502031 0.533351 0.564219 0.594785 0.625173 0.654922 0.684604 0.713528 0.742321 0.770905 0.798269 0.825605 0.850526 0.873375 0.893879 0.908682 0.920235 0.927774 0.930637 0.932428 0.932884 0.932775 0.932518 0.932164 0.931755 0.931305 0.930828 0.930348 0.929942 0.929648 0.929358 0.929089 0.928879 0.928722 0.928602 0.928507 0.928428 0.928359 0.928296 0.928239 0.92819 0.928146 0.928106 0.928072 0.928042 0.928015 0.927995 0.927987 0.927984 0.927959 0.927848 0.92761 0.927145 0.926146 0.924018 0.919651 0.910973 0.89437 0.864173 0.812935 0.733485 0.623164 0.489313 0.348852 0.222184 0.124179 0.0605424 0.026261 0.0105452 0.00406564 0.00153737 0.000575623 0.000214177 7.92765e-05 2.91936e-05 1.06921e-05 3.89295e-06 1.40834e-06 5.05977e-07 1.80438e-07 6.384e-08 2.23986e-08 7.79036e-09 2.68474e-09 9.15877e-10 3.0981e-10 1.03453e-10 3.39319e-11 1.11286e-11 3.49808e-12 5.6068e-13 1.65628e-13 -2.50926e-13 -1.30936e-13 -2.64829e-13 9.55646e-14 1.38164e-13 1.92119e-13 -1.24005e-13 -5.44644e-13 1.44397e-13 2.761e-13 -4.48469e-13 2.45975e-13 -2.35815e-13 -3.05855e-13 -1.0538e-13 2.63021e-13 2.42425e-13 -1.37493e-13 -3.01324e-13 2.98659e-13 1.56674e-13 -2.48721e-13 -6.12888e-13 0 0 7.99508e-15 1.25386e-14 -1.42476e-14 1.4243e-14 3.10025e-14 2.94508e-14 -7.80026e-14 2.71902e-14 3.40158e-14 -1.85497e-14 -5.97966e-14 -7.13467e-14 -6.65914e-14 -3.15953e-14 -2.09699e-13 1.01044e-14 5.06777e-15 6.89813e-14 -5.15451e-14 -8.54497e-14 -7.12288e-14 -4.72152e-14 2.60595e-14 1.7732e-14 -9.67804e-14 -1.48789e-13 -3.62413e-14 -1.50218e-14 7.24483e-14 -8.00909e-14 1.2715e-13 4.66451e-14 -8.46318e-15 1.88984e-13 5.4089e-15 -2.2521e-13 -1.85613e-13 -1.84847e-13 -2.52937e-13 -1.48811e-13 -3.63003e-13 -2.2109e-14 5.78971e-14 -1.82301e-13 1.01795e-13 1.74208e-13 -1.18102e-13 -3.58926e-13 7.02466e-14 -1.80571e-13 -1.34287e-13 1.44604e-12 6.24192e-12 4.70016e-11 3.14805e-10 1.999e-09 1.19119e-08 6.64163e-08 3.45274e-07 1.66703e-06 7.44131e-06 3.05475e-05 0.000114598 0.00038991 0.00119249 0.00324569 0.00778588 0.0163552 0.0301101 0.049115 0.0723894 0.0986216 0.126745 0.156076 0.186215 0.216869 0.247874 0.279142 0.310626 0.342307 0.374186 0.406278 0.438583 0.470595 0.502031 0.533351 0.564219 0.594785 0.625173 0.654922 0.684604 0.713528 0.742321 0.770905 0.798269 0.825605 0.850526 0.873375 0.893879 0.908682 0.920235 0.927774 0.930637 0.932428 0.932884 0.932775 0.932518 0.932164 0.931755 0.931305 0.930828 0.930348 0.929942 0.929648 0.929358 0.929089 0.928879 0.928722 0.928602 0.928507 0.928428 0.928359 0.928296 0.928239 0.92819 0.928146 0.928106 0.928072 0.928042 0.928015 0.927995 0.927987 0.927984 0.927959 0.927848 0.92761 0.927145 0.926146 0.924018 0.919651 0.910973 0.89437 0.864173 0.812935 0.733485 0.623164 0.489313 0.348852 0.222184 0.124179 0.0605424 0.026261 0.0105452 0.00406564 0.00153737 0.000575623 0.000214177 7.92765e-05 2.91936e-05 1.06921e-05 3.89295e-06 1.40834e-06 5.05977e-07 1.80438e-07 6.38398e-08 2.23989e-08 7.78978e-09 2.68495e-09 9.1596e-10 3.09677e-10 1.03232e-10 3.46361e-11 1.08741e-11 3.09023e-12 5.05547e-13 1.76128e-13 2.34295e-13 -1.02331e-13 -7.33694e-13 1.69551e-13 -5.749e-14 -4.22345e-13 1.57616e-13 2.31355e-13 5.96507e-13 -6.57674e-13 4.69164e-13 -2.23595e-13 -1.84468e-13 1.4328e-13 -2.44995e-13 -6.63225e-13 -4.86929e-13 1.80015e-12 2.20051e-13 -4.38261e-13 -7.17398e-13 3.74218e-13 -1.54744e-13 0
				</DataArray>
				<DataArray Name="VitesseY" type="Float32" format="ascii">