<?xml version="1.0"?>
<VTKFile type="PolyData">
	<PolyData>
		<Piece NumberOfPoints="1206" NumberOfPolys="1000">
			<Points>
				<DataArray type="Float32" NumberOfComponents="3" format="ascii">
 0 0 0 0.005 0 0 0.01 0 0 0.015 0 0 0.02 0 0 0.025 0 0 0.03 0 0 0.035 0 0 0.04 0 0 0.045 0 0 0.05 0 0 0.055 0 0 0.06 0 0 0.065 0 0 0.07 0 0 0.075 0 0 0.08 0 0 0.085 0 0 0.09 0 0 0.095 0 0 0.1 0 0 0.105 0 0 0.11 0 0 0.115 0 0 0.12 0 0 0.125 0 0 0.13 0 0 0.135 0 0 0.14 0 0 0.145 0 0 0.15 0 0 0.155 0 0 0.16 0 0 0.165 0 0 0.17 0 0 0.175 0 0 0.18 0 0 0.185 0 0 0.19 0 0 0.195 0 0 0.2 0 0 0.205 0 0 0.21 0 0 0.215 0 0 0.22 0 0 0.225 0 0 0.23 0 0 0.235 0 0 0.24 0 0 0.245 0 0 0.25 0 0 0.255 0 0 0.26 0 0 0.265 0 0 0.27 0 0 0.275 0 0 0.28 0 0 0.285 0 0 0.29 0 0 0.295 0 0 0.3 0 0 0.305 0 0 0.31 0 0 0.315 0 0 0.32 0 0 0.325 0 0 0.33 0 0 0.335 0 0 0.34 0 0 0.345 0 0 0.35 0 0 0.355 0 0 0.36 0 0 0.365 0 0 0.37 0 0 0.375 0 0 0.38 0 0 0.385 0 0 0.39 0 0 0.395 0 0 0.4 0 0 0.405 0 0 0.41 0 0 0.415 0 0 0.42 0 0 0.425 0 0 0.43 0 0 0.435 0 0 0.44 0 0 0.445 0 0 0.45 0 0 0.455 0 0 0.46 0 0 0.465 0 0 0.47 0 0 0.475 0 0 0.48 0 0 0.485 0 0 0.49 0 0 0.495 0 0 0.5 0 0 0.505 0 0 0.51 0 0 0.515 0 0 0.52 0 0 0.525 0 0 0.53 0 0 0.535 0 0 0.54 0 0 0.545 0 0 0.55 0 0 0.555 0 0 0.56 0 0 0.565 0 0 0.57 0 0 0.575 0 0 0.58 0 0 0.585 0 0 0.59 0 0 0.595 0 0 0.6 0 0 0.605 0 0 0.61 0 0 0.615 0 0 0.62 0 0 0.625 0 0 0.63 0 0 0.635 0 0 0.64 0 0 0.645 0 0 0.65 0 0 0.655 0 0 0.66 0 0 0.665 0 0 0.67 0 0 0.675 0 0 0.68 0 0 0.685 0 0 0.69 0 0 0.695 0 0 0.7 0 0 0.705 0 0 0.71 0 0 0.715 0 0 0.72 0 0 0.725 0 0 0.73 0 0 0.735 0 0 0.74 0 0 0.745 0 0 0.75 0 0 0.755 0 0 0.76 0 0 0.765 0 0 0.77 0 0 0.775 0 0 0.78 0 0 0.785 0 0 0.79 0 0 0.795 0 0 0.8 0 0 0.805 0 0 0.81 0 0 0.815 0 0 0.82 0 0 0.825 0 0 0.83 0 0 0.835 0 0 0.84 0 0 0.845 0 0 0.85 0 0 0.855 0 0 0.86 0 0 0.865 0 0 0.87 0 0 0.875 0 0 0.88 0 0 0.885 0 0 0.89 0 0 0.895 0 0 0.9 0 0 0.905 0 0 0.91 0 0 0.915 0 0 0.92 0 0 0.925 0 0 0.93 0 0 0.935 0 0 0.94 0 0 0.945 0 0 0.95 0 0 0.955 0 0 0.96 0 0 0.965 0 0 0.97 0 0 0.975 0 0 0.98 0 0 0.985 0 0 0.99 0 0 0.995 0 0 1 0 0 0 0.02 0 0.005 0.02 0 0.01 0.02 0 0.015 0.02 0 0.02 0.02 0 0.025 0.02 0 0.03 0.02 0 0.035 0.02 0 0.04 0.02 0 0.045 0.02 0 0.05 0.02 0 0.055 0.02 0 0.06 0.02 0 0.065 0.02 0 0.07 0.02 0 0.075 0.02 0 0.08 0.02 0 0.085 0.02 0 0.09 0.02 0 0.095 0.02 0 0.1 0.02 0 0.105 0.02 0 0.11 0.02 0 0.115 0.02 0 0.12 0.02 0 0.125 0.02 0 0.13 0.02 0 0.135 0.02 0 0.14 0.02 0 0.145 0.02 0 0.15 0.02 0 0.155 0.02 0 0.16 0.02 0 0.165 0.02 0 0.17 0.02 0 0.175 0.02 0 0.18 0.02 0 0.185 0.02 0 0.19 0.02 0 0.195 0.02 0 0.2 0.02 0 0.205 0.02 0 0.21 0.02 0 0.215 0.02 0 0.22 0.02 0 0.225 0.02 0 0.23 0.02 0 0.235 0.02 0 0.24 0.02 0 0.245 0.02 0 0.25 0.02 0 0.255 0.02 0 0.26 0.02 0 0.265 0.02 0 0.27 0.02 0 0.275 0.02 0 0.28 0.02 0 0.285 0.02 0 0.29 0.02 0 0.295 0.02 0 0.3 0.02 0 0.305 0.02 0 0.31 0.02 0 0.315 0.02 0 0.32 0.02 0 0.325 0.02 0 0.33 0.02 0 0.335 0.02 0 0.34 0.02 0 0.345 0.02 0 0.35 0.02 0 0.355 0.02 0 0.36 0.02 0 0.365 0.02 0 0.37 0.02 0 0.375 0.02 0 0.38 0.02 0 0.385 0.02 0 0.39 0.02 0 0.395 0.02 0 0.4 0.02 0 0.405 0.02 0 0.41 0.02 0 0.415 0.02 0 0.42 0.02 0 0.425 0.02 0 0.43 0.02 0 0.435 0.02 0 0.44 0.02 0 0.445 0.02 0 0.45 0.02 0 0.455 0.02 0 0.46 0.02 0 0.465 0.02 0 0.47 0.02 0 0.475 0.02 0 0.48 0.02 0 0.485 0.02 0 0.49 0.02 0 0.495 0.02 0 0.5 0.02 0 0.505 0.02 0 0.51 0.02 0 0.515 0.02 0 0.52 0.02 0 0.525 0.02 0 0.53 0.02 0 0.535 0.02 0 0.54 0.02 0 0.545 0.02 0 0.55 0.02 0 0.555 0.02 0 0.56 0.02 0 0.565 0.02 0 0.57 0.02 0 0.575 0.02 0 0.58 0.02 0 0.585 0.02 0 0.59 0.02 0 0.595 0.02 0 0.6 0.02 0 0.605 0.02 0 0.61 0.02 0 0.615 0.02 0 0.62 0.02 0 0.625 0.02 0 0.63 0.02 0 0.635 0.02 0 0.64 0.02 0 0.645 0.02 0 0.65 0.02 0 0.655 0.02 0 0.66 0.02 0 0.665 0.02 0 0.67 0.02 0 0.675 0.02 0 0.68 0.02 0 0.685 0.02 0 0.69 0.02 0 0.695 0.02 0 0.7 0.02 0 0.705 0.02 0 0.71 0.02 0 0.715 0.02 0 0.72 0.02 0 0.725 0.02 0 0.73 0.02 0 0.735 0.02 0 0.74 0.02 0 0.745 0.02 0 0.75 0.02 0 0.755 0.02 0 0.76 0.02 0 0.765 0.02 0 0.77 0.02 0 0.775 0.02 0 0.78 0.02 0 0.785 0.02 0 0.79 0.02 0 0.795 0.02 0 0.8 0.02 0 0.805 0.02 0 0.81 0.02 0 0.815 0.02 0 0.82 0.02 0 0.825 0.02 0 0.83 0.02 0 0.835 0.02 0 0.84 0.02 0 0.845 0.02 0 0.85 0.02 0 0.855 0.02 0 0.86 0.02 0 0.865 0.02 0 0.87 0.02 0 0.875 0.02 0 0.88 0.02 0 0.885 0.02 0 0.89 0.02 0 0.895 0.02 0 0.9 0.02 0 0.905 0.02 0 0.91 0.02 0 0.915 0.02 0 0.92 0.02 0 0.925 0.02 0 0.93 0.02 0 0.935 0.02 0 0.94 0.02 0 0.945 0.02 0 0.95 0.02 0 0.955 0.02 0 0.96 0.02 0 0.965 0.02 0 0.97 0.02 0 0.975 0.02 0 0.98 0.02 0 0.985 0.02 0 0.99 0.02 0 0.995 0.02 0 1 0.02 0 0 0.04 0 0.005 0.04 0 0.01 0.04 0 0.015 0.04 0 0.02 0.04 0 0.025 0.04 0 0.03 0.04 0 0.035 0.04 0 0.04 0.04 0 0.045 0.04 0 0.05 0.04 0 0.055 0.04 0 0.06 0.04 0 0.065 0.04 0 0.07 0.04 0 0.075 0.04 0 0.08 0.04 0 0.085 0.04 0 0.09 0.04 0 0.095 0.04 0 0.1 0.04 0 0.105 0.04 0 0.11 0.04 0 0.115 0.04 0 0.12 0.04 0 0.125 0.04 0 0.13 0.04 0 0.135 0.04 0 0.14 0.04 0 0.145 0.04 0 0.15 0.04 0 0.155 0.04 0 0.16 0.04 0 0.165 0.04 0 0.17 0.04 0 0.175 0.04 0 0.18 0.04 0 0.185 0.04 0 0.19 0.04 0 0.195 0.04 0 0.2 0.04 0 0.205 0.04 0 0.21 0.04 0 0.215 0.04 0 0.22 0.04 0 0.225 0.04 0 0.23 0.04 0 0.235 0.04 0 0.24 0.04 0 0.245 0.04 0 0.25 0.04 0 0.255 0.04 0 0.26 0.04 0 0.265 0.04 0 0.27 0.04 0 0.275 0.04 0 0.28 0.04 0 0.285 0.04 0 0.29 0.04 0 0.295 0.04 0 0.3 0.04 0 0.305 0.04 0 0.31 0.04 0 0.315 0.04 0 0.32 0.04 0 0.325 0.04 0 0.33 0.04 0 0.335 0.04 0 0.34 0.04 0 0.345 0.04 0 0.35 0.04 0 0.355 0.04 0 0.36 0.04 0 0.365 0.04 0 0.37 0.04 0 0.375 0.04 0 0.38 0.04 0 0.385 0.04 0 0.39 0.04 0 0.395 0.04 0 0.4 0.04 0 0.405 0.04 0 0.41 0.04 0 0.415 0.04 0 0.42 0.04 0 0.425 0.04 0 0.43 0.04 0 0.435 0.04 0 0.44 0.04 0 0.445 0.04 0 0.45 0.04 0 0.455 0.04 0 0.46 0.04 0 0.465 0.04 0 0.47 0.04 0 0.475 0.04 0 0.48 0.04 0 0.485 0.04 0 0.49 0.04 0 0.495 0.04 0 0.5 0.04 0 0.505 0.04 0 0.51 0.04 0 0.515 0.04 0 0.52 0.04 0 0.525 0.04 0 0.53 0.04 0 0.535 0.04 0 0.54 0.04 0 0.545 0.04 0 0.55 0.04 0 0.555 0.04 0 0.56 0.04 0 0.565 0.04 0 0.57 0.04 0 0.575 0.04 0 0.58 0.04 0 0.585 0.04 0 0.59 0.04 0 0.595 0.04 0 0.6 0.04 0 0.605 0.04 0 0.61 0.04 0 0.615 0.04 0 0.62 0.04 0 0.625 0.04 0 0.63 0.04 0 0.635 0.04 0 0.64 0.04 0 0.645 0.04 0 0.65 0.04 0 0.655 0.04 0 0.66 0.04 0 0.665 0.04 0 0.67 0.04 0 0.675 0.04 0 0.68 0.04 0 0.685 0.04 0 0.69 0.04 0 0.695 0.04 0 0.7 0.04 0 0.705 0.04 0 0.71 0.04 0 0.715 0.04 0 0.72 0.04 0 0.725 0.04 0 0.73 0.04 0 0.735 0.04 0 0.74 0.04 0 0.745 0.04 0 0.75 0.04 0 0.755 0.04 0 0.76 0.04 0 0.765 0.04 0 0.77 0.04 0 0.775 0.04 0 0.78 0.04 0 0.785 0.04 0 0.79 0.04 0 0.795 0.04 0 0.8 0.04 0 0.805 0.04 0 0.81 0.04 0 0.815 0.04 0 0.82 0.04 0 0.825 0.04 0 0.83 0.04 0 0.835 0.04 0 0.84 0.04 0 0.845 0.04 0 0.85 0.04 0 0.855 0.04 0 0.86 0.04 0 0.865 0.04 0 0.87 0.04 0 0.875 0.04 0 0.88 0.04 0 0.885 0.04 0 0.89 0.04 0 0.895 0.04 0 0.9 0.04 0 0.905 0.04 0 0.91 0.04 0 0.915 0.04 0 0.92 0.04 0 0.925 0.04 0 0.93 0.04 0 0.935 0.04 0 0.94 0.04 0 0.945 0.04 0 0.95 0.04 0 0.955 0.04 0 0.96 0.04 0 0.965 0.04 0 0.97 0.04 0 0.975 0.04 0 0.98 0.04 0 0.985 0.04 0 0.99 0.04 0 0.995 0.04 0 1 0.04 0 0 0.06 0 0.005 0.06 0 0.01 0.06 0 0.015 0.06 0 0.02 0.06 0 0.025 0.06 0 0.03 0.06 0 0.035 0.06 0 0.04 0.06 0 0.045 0.06 0 0.05 0.06 0 0.055 0.06 0 0.06 0.06 0 0.065 0.06 0 0.07 0.06 0 0.075 0.06 0 0.08 0.06 0 0.085 0.06 0 0.09 0.06 0 0.095 0.06 0 0.1 0.06 0 0.105 0.06 0 0.11 0.06 0 0.115 0.06 0 0.12 0.06 0 0.125 0.06 0 0.13 0.06 0 0.135 0.06 0 0.14 0.06 0 0.145 0.06 0 0.15 0.06 0 0.155 0.06 0 0.16 0.06 0 0.165 0.06 0 0.17 0.06 0 0.175 0.06 0 0.18 0.06 0 0.185 0.06 0 0.19 0.06 0 0.195 0.06 0 0.2 0.06 0 0.205 0.06 0 0.21 0.06 0 0.215 0.06 0 0.22 0.06 0 0.225 0.06 0 0.23 0.06 0 0.235 0.06 0 0.24 0.06 0 0.245 0.06 0 0.25 0.06 0 0.255 0.06 0 0.26 0.06 0 0.265 0.06 0 0.27 0.06 0 0.275 0.06 0 0.28 0.06 0 0.285 0.06 0 0.29 0.06 0 0.295 0.06 0 0.3 0.06 0 0.305 0.06 0 0.31 0.06 0 0.315 0.06 0 0.32 0.06 0 0.325 0.06 0 0.33 0.06 0 0.335 0.06 0 0.34 0.06 0 0.345 0.06 0 0.35 0.06 0 0.355 0.06 0 0.36 0.06 0 0.365 0.06 0 0.37 0.06 0 0.375 0.06 0 0.38 0.06 0 0.385 0.06 0 0.39 0.06 0 0.395 0.06 0 0.4 0.06 0 0.405 0.06 0 0.41 0.06 0 0.415 0.06 0 0.42 0.06 0 0.425 0.06 0 0.43 0.06 0 0.435 0.06 0 0.44 0.06 0 0.445 0.06 0 0.45 0.06 0 0.455 0.06 0 0.46 0.06 0 0.465 0.06 0 0.47 0.06 0 0.475 0.06 0 0.48 0.06 0 0.485 0.06 0 0.49 0.06 0 0.495 0.06 0 0.5 0.06 0 0.505 0.06 0 0.51 0.06 0 0.515 0.06 0 0.52 0.06 0 0.525 0.06 0 0.53 0.06 0 0.535 0.06 0 0.54 0.06 0 0.545 0.06 0 0.55 0.06 0 0.555 0.06 0 0.56 0.06 0 0.565 0.06 0 0.57 0.06 0 0.575 0.06 0 0.58 0.06 0 0.585 0.06 0 0.59 0.06 0 0.595 0.06 0 0.6 0.06 0 0.605 0.06 0 0.61 0.06 0 0.615 0.06 0 0.62 0.06 0 0.625 0.06 0 0.63 0.06 0 0.635 0.06 0 0.64 0.06 0 0.645 0.06 0 0.65 0.06 0 0.655 0.06 0 0.66 0.06 0 0.665 0.06 0 0.67 0.06 0 0.675 0.06 0 0.68 0.06 0 0.685 0.06 0 0.69 0.06 0 0.695 0.06 0 0.7 0.06 0 0.705 0.06 0 0.71 0.06 0 0.715 0.06 0 0.72 0.06 0 0.725 0.06 0 0.73 0.06 0 0.735 0.06 0 0.74 0.06 0 0.745 0.06 0 0.75 0.06 0 0.755 0.06 0 0.76 0.06 0 0.765 0.06 0 0.77 0.06 0 0.775 0.06 0 0.78 0.06 0 0.785 0.06 0 0.79 0.06 0 0.795 0.06 0 0.8 0.06 0 0.805 0.06 0 0.81 0.06 0 0.815 0.06 0 0.82 0.06 0 0.825 0.06 0 0.83 0.06 0 0.835 0.06 0 0.84 0.06 0 0.845 0.06 0 0.85 0.06 0 0.855 0.06 0 0.86 0.06 0 0.865 0.06 0 0.87 0.06 0 0.875 0.06 0 0.88 0.06 0 0.885 0.06 0 0.89 0.06 0 0.895 0.06 0 0.9 0.06 0 0.905 0.06 0 0.91 0.06 0 0.915 0.06 0 0.92 0.06 0 0.925 0.06 0 0.93 0.06 0 0.935 0.06 0 0.94 0.06 0 0.945 0.06 0 0.95 0.06 0 0.955 0.06 0 0.96 0.06 0 0.965 0.06 0 0.97 0.06 0 0.975 0.06 0 0.98 0.06 0 0.985 0.06 0 0.99 0.06 0 0.995 0.06 0 1 0.06 0 0 0.08 0 0.005 0.08 0 0.01 0.08 0 0.015 0.08 0 0.02 0.08 0 0.025 0.08 0 0.03 0.08 0 0.035 0.08 0 0.04 0.08 0 0.045 0.08 0 0.05 0.08 0 0.055 0.08 0 0.06 0.08 0 0.065 0.08 0 0.07 0.08 0 0.075 0.08 0 0.08 0.08 0 0.085 0.08 0 0.09 0.08 0 0.095 0.08 0 0.1 0.08 0 0.105 0.08 0 0.11 0.08 0 0.115 0.08 0 0.12 0.08 0 0.125 0.08 0 0.13 0.08 0 0.135 0.08 0 0.14 0.08 0 0.145 0.08 0 0.15 0.08 0 0.155 0.08 0 0.16 0.08 0 0.165 0.08 0
[...]
			<PointData Scalars="VitesseX">
				<DataArray Name="VitesseX" type="Float32" format="ascii">
 0 -1.82932e-14 -3.01016e-14 -3.78348e-14 -3.18788e-14 -4.53862e-14 -6.2163e-14 -1.41255e-14 -8.77362e-14 -4.9566e-14 -1.04554e-13 -7.05311e-14 -1.899e-14 -3.98707e-14 -1.66249e-14 -1.78268e-14 -3.02146e-14 8.42333e-14 1.42878e-14 9.28162e-15 -4.81637e-15 2.93237e-14 -3.76424e-14 -4.50717e-14 -8.42374e-14 -1.0819e-13 -9.76209e-15 -3.65261e-14 -1.62775e-13 1.2403e-13 -1.31628e-13 -8.83952e-15 7.65605e-14 -1.02065e-14 5.49761e-14 4.74705e-13 1.96049e-12 1.1151e-11 6.14991e-11 3.30452e-10 1.68999e-09 8.2164e-09 3.79026e-08 1.65506e-07 6.82331e-07 2.64818e-06 9.64312e-06 3.28188e-05 0.000103919 0.000304528 0.000820841 0.00202143 0.00451778 0.00911629 0.0165826 0.0272988 0.0410801 0.0573201 0.0753101 0.0944638 0.114377 0.134801 0.155581 0.1766 0.197791 0.219111 0.240536 0.262047 0.283632 0.305284 0.326999 0.348776 0.370617 0.392525 0.414503 0.436542 0.458444 0.480221 0.501885 0.523434 0.544858 0.566226 0.587426 0.60862 0.629578 0.650493 0.67118 0.691796 0.71232 0.732643 0.752983 0.773051 0.792931 0.812665 0.831683 0.850365 0.867953 0.883921 0.898416 0.910043 0.91893 0.92543 0.929005 0.930917 0.931789 0.931864 0.931813 0.9317 0.931519 0.931269 0.93096 0.930612 0.930254 0.929919 0.929621 0.929357 0.929128 0.928933 0.928769 0.928632 0.928517 0.928422 0.92835 0.928279 0.928209 0.928151 0.928104 0.928064 0.928029 0.927997 0.927968 0.927942 0.927918 0.927897 0.927877 0.927859 0.927842 0.927827 0.927813 0.927799 0.927786 0.927774 0.927762 0.927751 0.927739 0.927729 0.927718 0.927708 0.927698 0.92769 0.927682 0.927673 0.927661 0.927643 0.927613 0.927551 0.927423 0.927157 0.92661 0.9255 0.923275 0.91888 0.910363 0.894317 0.865366 0.81632 0.739973 0.633124 0.501817 0.362117 0.234093 0.133244 0.066276 0.0292995 0.0119614 0.00468188 0.00179804 0.0006849 0.000259915 9.84302e-05 3.72177e-05 1.40518e-05 5.29701e-06 1.9933e-06 7.48615e-07 2.80532e-07 1.04865e-07 3.9091e-08 1.45277e-08 5.38054e-09 1.98566e-09 7.2969e-10 2.66815e-10 9.73076e-11 3.52343e-11 1.24331e-11 4.34131e-12 1.31915e-12 8.64156e-13 3.57601e-13 0 0 -9.96157e-15 -2.02541e-14 -2.44586e-14 -3.91481e-14 -5.09593e-14 -3.52897e-14 -8.61413e-14 -1.42699e-14 -7.1463e-14 -5.42715e-14 -7.62514e-14 -4.96025e-14 -6.07671e-14 -2.68214e-14 1.54325e-14 7.09199e-14 -3.01739e-14 2.65666e-14 4.90924e-14 -1.02969e-14 -1.93647e-14 9.40209e-16 -1.26206e-13 -3.00369e-14 -4.07759e-14 -6.5027e-14 -1.06313e-13 3.36298e-14 -1.17026e-13 5.77684e-14 -4.04059e-14 -3.80991e-14 7.02715e-14 1.48588e-13 2.90295e-13 2.02577e-12 1.10263e-11 6.16241e-11 3.30557e-10 1.68984e-09 8.21625e-09 3.79026e-08 1.65506e-07 6.82331e-07 2.64818e-06 9.64312e-06 3.28188e-05 0.000103919 0.000304528 0.000820841 0.00202143 0.00451778 0.00911629 0.0165826 0.0272988 0.0410801 0.0573201 0.0753101 0.0944638 0.114377 0.134801 0.155581 0.1766 0.197791 0.219111 0.240536 0.262047 0.283632 0.305284 0.326999 0.348776 0.370617 0.392525 0.414503 0.436542 0.458444 0.480221 0.501885 0.523434 0.544858 0.566226 0.587426 0.60862 0.629578 0.650493 0.67118 0.691796 0.71232 0.732643 0.752983 0.773051 0.792931 0.812665 0.831683 0.850365 0.867953 0.883921 0.898416 0.910043 0.91893 0.92543 0.929005 0.930917 0.931789 0.931864 0.931813 0.9317 0.931519 0.931269 0.93096 0.930612 0.930254 0.929919 0.929621 0.929357 0.929128 0.928933 0.928769 0.928632 0.928517 0.928422 0.92835 0.928279 0.928209 0.928151 0.928104 0.928064 0.928029 0.927997 0.927968 0.927942 0.927918 0.927897 0.927877 0.927859 0.927842 0.927827 0.927813 0.927799 0.927786 0.927774 0.927762 0.927751 0.927739 0.927729 0.927718 0.927708 0.927698 0.92769 0.927682 0.927673 0.927661 0.927643 0.927613 0.927551 0.927423 0.927157 0.92661 0.9255 0.923275 0.91888 0.910363 0.894317 0.865366 0.81632 0.739973 0.633124 0.501817 0.362117 0.234093 0.133244 0.066276 0.0292995 0.0119614 0.00468188 0.00179804 0.0006849 0.000259915 9.84302e-05 3.72177e-05 1.40518e-05 5.29701e-06 1.9933e-06 7.48614e-07 2.80532e-07 1.04865e-07 3.90908e-08 1.45274e-08 5.38089e-09 1.98544e-09 7.29732e-10 2.66939e-10 9.70726e-11 3.49091e-11 1.26835e-11 4.51363e-12 1.56535e-12 3.83595e-13 -2.17118e-13 0 0 -6.04783e-15 -1.66619e-14 -2.96338e-14 -2.76675e-14 -1.90634e-14 -5.55297e-14 -1.72662e-14 -7.65586e-14 -2.85083e-14 -3.33157e-14 -7.00001e-14 -7.00333e-14 -1.47912e-14 -5.51538e-14 1.14652e-14 -2.26174e-14 5.74172e-14 4.51749e-14 -2.59081e-14 -4.24876e-14 9.67768e-16 -9.39178e-14 -1.74335e-14 -2.88374e-14 -7.49116e-14 -7.17595e-14 9.10765e-15 -1.32403e-13 -1.42684e-14 5.26619e-14 -7.17184e-14 4.83958e-14 4.78199e-15 1.29038e-13 4.24626e-13 1.89304e-12 1.10081e-11 6.17047e-11 3.3053e-10 1.68988e-09 8.21621e-09 3.79026e-08 1.65506e-07 6.82331e-07 2.64818e-06 9.64312e-06 3.28188e-05 0.000103919 0.000304528 0.000820841 0.00202143 0.00451778 0.00911629 0.0165826 0.0272988 0.0410801 0.0573201 0.0753101 0.0944638 0.114377 0.134801 0.155581 0.1766 0.197791 0.219111 0.240536 0.262047 0.283632 0.305284 0.326999 0.348776 0.370617 0.392525 0.414503 0.436542 0.458444 0.480221 0.501885 0.523434 0.544858 0.566226 0.587426 0.60862 0.629578 0.650493 0.67118 0.691796 0.71232 0.732643 0.752983 0.773051 0.792931 0.812665 0.831683 0.850365 0.867953 0.883921 0.898416 0.910043 0.91893 0.92543 0.929005 0.930917 0.931789 0.931864 0.931813 0.9317 0.931519 0.931269 0.93096 0.930612 0.930254 0.929919 0.929621 0.929357 0.929128 0.928933 0.928769 0.928632 0.928517 0.928422 0.92835 0.928279 0.928209 0.928151 0.928104 0.928064 0.928029 0.927997 0.927968 0.927942 0.927918 0.927897 0.927877 0.927859 0.927842 0.927827 0.927813 0.927799 0.927786 0.927774 0.927762 0.927751 0.927739 0.927729 0.927718 0.927708 0.927698 0.92769 0.927682 0.927673 0.927661 0.927643 0.927613 0.927551 0.927423 0.927157 0.92661 0.9255 0.923275 0.91888 0.910363 0.894317 0.865366 0.81632 0.739973 0.633124 0.501817 0.362117 0.234093 0.133244 0.066276 0.0292995 0.0119614 0.00468188 0.00179804 0.0006849 0.000259915 9.84302e-05 3.72177e-05 1.40518e-05 5.29701e-06 1.9933e-06 7.48614e-07 2.80532e-07 1.04865e-07 3.90912e-08 1.45277e-08 5.38072e-09 1.98542e-09 7.29596e-10 2.66908e-10 9.69074e-11 3.50951e-11 1.28287e-11 4.20182e-12 1.40611e-12 6.60224e-13 1.76047e-13 0 0 -9.55787e-15 -1.41491e-14 -1.99793e-14 -1.61642e-14 -2.9489e-14 -2.43606e-14 -2.98443e-14 -5.54731e-14 -4.40487e-14 -4.20611e-14 7.99493e-16 1.93635e-14 -4.98491e-14 -4.07348e-14 -3.10323e-14 -7.15744e-14 3.1697e-14 3.72279e-15 -2.86735e-14 4.19291e-14 -7.2036e-14 -4.23709e-14 4.40941e-15 -1.04118e-13 -9.85574e-14 2.22236e-14 -4.06901e-15 -1.8014e-13 4.85911e-14 -4.60035e-14 4.46083e-14 -1.53104e-15 -8.54653e-15 1.75013e-13 4.24161e-13 1.8984e-12 1.09723e-11 6.15725e-11 3.30591e-10 1.68987e-09 8.21649e-09 3.79024e-08 1.65506e-07 6.82331e-07 2.64818e-06 9.64312e-06 3.28188e-05 0.000103919 0.000304528 0.000820841 0.00202143 0.00451778 0.00911629 0.0165826 0.0272988 0.0410801 0.0573201 0.0753101 0.0944638 0.114377 0.134801 0.155581 0.1766 0.197791 0.219111 0.240536 0.262047 0.283632 0.305284 0.326999 0.348776 0.370617 0.392525 0.414503 0.436542 0.458444 0.480221 0.501885 0.523434 0.544858 0.566226 0.587426 0.60862 0.629578 0.650493 0.67118 0.691796 0.71232 0.732643 0.752983 0.773051 0.792931 0.812665 0.831683 0.850365 0.867953 0.883921 0.898416 0.910043 0.91893 0.92543 0.929005 0.930917 0.931789 0.931864 0.931813 0.9317 0.931519 0.931269 0.93096 0.930612 0.930254 0.929919 0.929621 0.929357 0.929128 0.928933 0.928769 0.928632 0.928517 0.928422 0.92835 0.928279 0.928209 0.928151 0.928104 0.928064 0.928029 0.927997 0.927968 0.927942 0.927918 0.927897 0.927877 0.927859 0.927842 0.927827 0.927813 0.927799 0.927786 0.927774 0.927762 0.927751 0.927739 0.927729 0.927718 0.927708 0.927698 0.92769 0.927682 0.927673 0.927661 0.927643 0.927613 0.927551 0.927423 0.927157 0.92661 0.9255 0.923275 0.91888 0.910363 0.894317 0.865366 0.81632 0.739973 0.633124 0.501817 0.362117 0.234093 0.133244 0.066276 0.0292995 0.0119614 0.00468188 0.00179804 0.0006849 0.000259915 9.84302e-05 3.72177e-05 1.40518e-05 5.29701e-06 1.9933e-06 7.48614e-07 2.80532e-07 1.04865e-07 3.90909e-08 1.45283e-08 5.38085e-09 1.98543e-09 7.29619e-10 2.66427e-10 9.75293e-11 3.56688e-11 1.25483e-11 4.54373e-12 1.66863e-12 -1.16351e-13 3.93196e-13 0 0 -9.69617e-15 -1.20319e-14 -2.32779e-15 -3.01009e-14 -3.59209e-14 1.52242e-14 -7.67716e-14 1.2594e-14 -3.77387e-14 -4.44948e-14 -3.90671e-14 1.81714e-14 -6.21769e-14 8.14114e-15 1.68515e-14 3.5071e-14 -8.11475e-14 -5.71398e-15 -3.33162e-17 1.27941e-14 -1.05498e-13 2.92684e-14 -1.37508e-13 -8.76297e-14 -5.69514e-14 -3.73571e-14 -1.28221e-13 4.54195e-14 -6.23708e-14 5.21116e-14 7.49895e-14 -3.33536e-14 1.07711e-13 2.06114e-13 3.29969e-13 1.92637e-12 1.0975e-11 6.14524e-11 3.30672e-10 1.68973e-09 8.21654e-09 3.79023e-08 1.65506e-07 6.82331e-07 2.64818e-06 9.64312e-06 3.28188e-05 0.000103919 0.000304528 0.000820841 0.00202143 0.00451778 0.00911629 0.0165826 0.0272988 0.0410801 0.0573201 0.0753101 0.0944638 0.114377 0.134801 0.155581 0.1766 0.197791 0.219111 0.240536 0.262047 0.283632 0.305284 0.326999 0.348776 0.370617 0.392525 0.414503 0.436542 0.458444 0.480221 0.501885 0.523434 0.544858 0.566226 0.587426 0.60862 0.629578 0.650493 0.67118 0.691796 0.71232 0.732643 0.752983 0.773051 0.792931 0.812665 0.831683 0.850365 0.867953 0.883921 0.898416 0.910043 0.91893 0.92543 0.929005 0.930917 0.931789 0.931864 0.931813 0.9317 0.931519 0.931269 0.93096 0.930612 0.930254 0.929919 0.929621 0.929357 0.929128 0.928933 0.928769 0.928632 0.928517 0.928422 0.92835 0.928279 0.928209 0.928151 0.928104 0.928064 0.928029 0.927997 0.927968 0.927942 0.927918 0.927897 0.927877 0.927859 0.927842 0.927827 0.927813 0.927799 0.927786 0.927774 0.927762 0.927751 0.927739 0.927729 0.927718 0.927708 0.927698 0.92769 0.927682 0.927673 0.927661 0.927643 0.927613 0.927551 0.927423 0.927157 0.92661 0.9255 0.923275 0.91888 0.910363 0.894317 0.865366 0.81632 0.739973 0.633124 0.501817 0.362117 0.234093 0.133244 0.066276 0.0292995 0.0119614 0.00468188 0.00179804 0.0006849 0.000259915 9.84302e-05 3.72177e-05 1.40518e-05 5.29701e-06 1.9933e-06 7.48614e-07 2.80532e-07 1.04865e-07 3.9091e-08 1.45279e-08 5.38074e-09 1.98581e-09 7.29496e-10 2.66723e-10 9.769e-11 3.50115e-11 1.2522e-11 4.65307e-12 1.63566e-12 -2.88669e-14 -2.93815e-13 0 0 -1.07423e-14 -1.86829e-14 -1.28822e-14 -3.67913e-14 5.54198e-15 -2.34733e-14 2.97701e-14 -7.61794e-14 4.89635e-14 -6.75098e-14 -1.37762e-13 -6.2236e-14 2.74253e-14 2.44623e-14 7.00063e-14 -3.99854e-15 3.37264e-14 3.26309e-14 -8.34391e-14 -1.27468e-13 3.06536e-15 -8.40798e-14 -1.11362e-13 -4.88618e-14 -9.32489e-14 -1.42389e-13 -5.39901e-14 -4.372e-14 1.07621e-13 5.43892e-14 -1.07021e-14 1.85905e-13 9.13294e-14 7.80774e-14 5.5498e-13 1.75097e-12 1.11198e-11 6.14202e-11 3.30558e-10 1.68979e-09 8.21643e-09 3.79024e-08 1.65506e-07 6.82331e-07 2.64818e-06 9.64312e-06 3.28188e-05 0.000103919 0.000304528 0.000820841 0.00202143 0.00451778 0.00911629 0.0165826 0.0272988 0.0410801 0.0573201 0.0753101 0.0944638 0.114377 0.134801 0.155581 0.1766 0.197791 0.219111 0.240536 0.262047 0.283632 0.305284 0.326999 0.348776 0.370617 0.392525 0.414503 0.436542 0.458444 0.480221 0.501885 0.523434 0.544858 0.566226 0.587426 0.60862 0.629578 0.650493 0.67118 0.691796 0.71232 0.732643 0.752983 0.773051 0.792931 0.812665 0.831683 0.850365 0.867953 0.883921 0.898416 0.910043 0.91893 0.92543 0.929005 0.930917 0.931789 0.931864 0.931813 0.9317 0.931519 0.931269 0.93096 0.930612 0.930254 0.929919 0.929621 0.929357 0.929128 0.928933 0.928769 0.928632 0.928517 0.928422 0.92835 0.928279 0.928209 0.928151 0.928104 0.928064 0.928029 0.927997 0.927968 0.927942 0.927918 0.927897 0.927877 0.927859 0.927842 0.927827 0.927813 0.927799 0.927786 0.927774 0.927762 0.927751 0.927739 0.927729 0.927718 0.927708 0.927698 0.92769 0.927682 0.927673 0.927661 0.927643 0.927613 0.927551 0.927423 0.927157 0.92661 0.9255 0.923275 0.91888 0.910363 0.894317 0.865366 0.81632 0.739973 0.633124 0.501817 0.362117 0.234093 0.133244 0.066276 0.0292995 0.0119614 0.00468188 0.00179804 0.0006849 0.000259915 9.84302e-05 3.72177e-05 1.40518e-05 5.29701e-06 1.9933e-06 7.48615e-07 2.80533e-07 1.04865e-07 3.90919e-08 1.45275e-08 5.37997e-09 1.98638e-09 7.29173e-10 2.67347e-10 9.72987e-11 3.42919e-11 1.26708e-11 3.93637e-12 9.34755e-13 1.59238e-12 -2.30091e-13 0
				</DataArray>
				<DataArray Name="VitesseY" type="Float32" format="ascii">