<?xml version="1.0"?>
<VTKFile type="PolyData">
	<PolyData>
		<Piece NumberOfPoints="1206" NumberOfPolys="1000">
			<Points>
				<DataArray type="Float32" NumberOfComponents="3" format="ascii">
 0 0 0 0.005 0 0 0.01 0 0 0.015 0 0 0.02 0 0 0.025 0 0 0.03 0 0 0.035 0 0 0.04 0 0 0.045 0 0 0.05 0 0 0.055 0 0 0.06 0 0 0.065 0 0 0.07 0 0 0.075 0 0 0.08 0 0 0.085 0 0 0.09 0 0 0.095 0 0 0.1 0 0 0.105 0 0 0.11 0 0 0.115 0 0 0.12 0 0 0.125 0 0 0.13 0 0 0.135 0 0 0.14 0 0 0.145 0 0 0.15 0 0 0.155 0 0 0.16 0 0 0.165 0 0 0.17 0 0 0.175 0 0 0.18 0 0 0.185 0 0 0.19 0 0 0.195 0 0 0.2 0 0 0.205 0 0 0.21 0 0 0.215 0 0 0.22 0 0 0.225 0 0 0.23 0 0 0.235 0 0 0.24 0 0 0.245 0 0 0.25 0 0 0.255 0 0 0.26 0 0 0.265 0 0 0.27 0 0 0.275 0 0 0.28 0 0 0.285 0 0 0.29 0 0 0.295 0 0 0.3 0 0 0.305 0 0 0.31 0 0 0.315 0 0 0.32 0 0 0.325 0 0 0.33 0 0 0.335 0 0 0.34 0 0 0.345 0 0 0.35 0 0 0.355 0 0 0.36 0 0 0.365 0 0 0.37 0 0 0.375 0 0 0.38 0 0 0.385 0 0 0.39 0 0 0.395 0 0 0.4 0 0 0.405 0 0 0.41 0 0 0.415 0 0 0.42 0 0 0.425 0 0 0.43 0 0 0.435 0 0 0.44 0 0 0.445 0 0 0.45 0 0 0.455 0 0 0.46 0 0 0.465 0 0 0.47 0 0 0.475 0 0 0.48 0 0 0.485 0 0 0.49 0 0 0.495 0 0 0.5 0 0 0.505 0 0 0.51 0 0 0.515 0 0 0.52 0 0 0.525 0 0 0.53 0 0 0.535 0 0 0.54 0 0 0.545 0 0 0.55 0 0 0.555 0 0 0.56 0 0 0.565 0 0 0.57 0 0 0.575 0 0 0.58 0 0 0.585 0 0 0.59 0 0 0.595 0 0 0.6 0 0 0.605 0 0 0.61 0 0 0.615 0 0 0.62 0 0 0.625 0 0 0.63 0 0 0.635 0 0 0.64 0 0 0.645 0 0 0.65 0 0 0.655 0 0 0.66 0 0 0.665 0 0 0.67 0 0 0.675 0 0 0.68 0 0 0.685 0 0 0.69 0 0 0.695 0 0 0.7 0 0 0.705 0 0 0.71 0 0 0.715 0 0 0.72 0 0 0.725 0 0 0.73 0 0 0.735 0 0 0.74 0 0 0.745 0 0 0.75 0 0 0.755 0 0 0.76 0 0 0.765 0 0 0.77 0 0 0.775 0 0 0.78 0 0 0.785 0 0 0.79 0 0 0.795 0 0 0.8 0 0 0.805 0 0 0.81 0 0 0.815 0 0 0.82 0 0 0.825 0 0 0.83 0 0 0.835 0 0 0.84 0 0 0.845 0 0 0.85 0 0 0.855 0 0 0.86 0 0 0.865 0 0 0.87 0 0 0.875 0 0 0.88 0 0 0.885 0 0 0.89 0 0 0.895 0 0 0.9 0 0 0.905 0 0 0.91 0 0 0.915 0 0 0.92 0 0 0.925 0 0 0.93 0 0 0.935 0 0 0.94 0 0 0.945 0 0 0.95 0 0 0.955 0 0 0.96 0 0 0.965 0 0 0.97 0 0 0.975 0 0 0.98 0 0 0.985 0 0 0.99 0 0 0.995 0 0 1 0 0 0 0.02 0 0.005 0.02 0 0.01 0.02 0 0.015 0.02 0 0.02 0.02 0 0.025 0.02 0 0.03 0.02 0 0.035 0.02 0 0.04 0.02 0 0.045 0.02 0 0.05 0.02 0 0.055 0.02 0 0.06 0.02 0 0.065 0.02 0 0.07 0.02 0 0.075 0.02 0 0.08 0.02 0 0.085 0.02 0 0.09 0.02 0 0.095 0.02 0 0.1 0.02 0 0.105 0.02 0 0.11 0.02 0 0.115 0.02 0 0.12 0.02 0 0.125 0.02 0 0.13 0.02 0 0.135 0.02 0 0.14 0.02 0 0.145 0.02 0 0.15 0.02 0 0.155 0.02 0 0.16 0.02 0 0.165 0.02 0 0.17 0.02 0 0.175 0.02 0 0.18 0.02 0 0.185 0.02 0 0.19 0.02 0 0.195 0.02 0 0.2 0.02 0 0.205 0.02 0 0.21 0.02 0 0.215 0.02 0 0.22 0.02 0 0.225 0.02 0 0.23 0.02 0 0.235 0.02 0 0.24 0.02 0 0.245 0.02 0 0.25 0.02 0 0.255 0.02 0 0.26 0.02 0 0.265 0.02 0 0.27 0.02 0 0.275 0.02 0 0.28 0.02 0 0.285 0.02 0 0.29 0.02 0 0.295 0.02 0 0.3 0.02 0 0.305 0.02 0 0.31 0.02 0 0.315 0.02 0 0.32 0.02 0 0.325 0.02 0 0.33 0.02 0 0.335 0.02 0 0.34 0.02 0 0.345 0.02 0 0.35 0.02 0 0.355 0.02 0 0.36 0.02 0 0.365 0.02 0 0.37 0.02 0 0.375 0.02 0 0.38 0.02 0 0.385 0.02 0 0.39 0.02 0 0.395 0.02 0 0.4 0.02 0 0.405 0.02 0 0.41 0.02 0 0.415 0.02 0 0.42 0.02 0 0.425 0.02 0 0.43 0.02 0 0.435 0.02 0 0.44 0.02 0 0.445 0.02 0 0.45 0.02 0 0.455 0.02 0 0.46 0.02 0 0.465 0.02 0 0.47 0.02 0 0.475 0.02 0 0.48 0.02 0 0.485 0.02 0 0.49 0.02 0 0.495 0.02 0 0.5 0.02 0 0.505 0.02 0 0.51 0.02 0 0.515 0.02 0 0.52 0.02 0 0.525 0.02 0 0.53 0.02 0 0.535 0.02 0 0.54 0.02 0 0.545 0.02 0 0.55 0.02 0 0.555 0.02 0 0.56 0.02 0 0.565 0.02 0 0.57 0.02 0 0.575 0.02 0 0.58 0.02 0 0.585 0.02 0 0.59 0.02 0 0.595 0.02 0 0.6 0.02 0 0.605 0.02 0 0.61 0.02 0 0.615 0.02 0 0.62 0.02 0 0.625 0.02 0 0.63 0.02 0 0.635 0.02 0 0.64 0.02 0 0.645 0.02 0 0.65 0.02 0 0.655 0.02 0 0.66 0.02 0 0.665 0.02 0 0.67 0.02 0 0.675 0.02 0 0.68 0.02 0 0.685 0.02 0 0.69 0.02 0 0.695 0.02 0 0.7 0.02 0 0.705 0.02 0 0.71 0.02 0 0.715 0.02 0 0.72 0.02 0 0.725 0.02 0 0.73 0.02 0 0.735 0.02 0 0.74 0.02 0 0.745 0.02 0 0.75 0.02 0 0.755 0.02 0 0.76 0.02 0 0.765 0.02 0 0.77 0.02 0 0.775 0.02 0 0.78 0.02 0 0.785 0.02 0 0.79 0.02 0 0.795 0.02 0 0.8 0.02 0 0.805 0.02 0 0.81 0.02 0 0.815 0.02 0 0.82 0.02 0 0.825 0.02 0 0.83 0.02 0 0.835 0.02 0 0.84 0.02 0 0.845 0.02 0 0.85 0.02 0 0.855 0.02 0 0.86 0.02 0 0.865 0.02 0 0.87 0.02 0 0.875 0.02 0 0.88 0.02 0 0.885 0.02 0 0.89 0.02 0 0.895 0.02 0 0.9 0.02 0 0.905 0.02 0 0.91 0.02 0 0.915 0.02 0 0.92 0.02 0 0.925 0.02 0 0.93 0.02 0 0.935 0.02 0 0.94 0.02 0 0.945 0.02 0 0.95 0.02 0 0.955 0.02 0 0.96 0.02 0 0.965 0.02 0 0.97 0.02 0 0.975 0.02 0 0.98 0.02 0 0.985 0.02 0 0.99 0.02 0 0.995 0.02 0 1 0.02 0 0 0.04 0 0.005 0.04 0 0.01 0.04 0 0.015 0.04 0 0.02 0.04 0 0.025 0.04 0 0.03 0.04 0 0.035 0.04 0 0.04 0.04 0 0.045 0.04 0 0.05 0.04 0 0.055 0.04 0 0.06 0.04 0 0.065 0.04 0 0.07 0.04 0 0.075 0.04 0 0.08 0.04 0 0.085 0.04 0 0.09 0.04 0 0.095 0.04 0 0.1 0.04 0 0.105 0.04 0 0.11 0.04 0 0.115 0.04 0 0.12 0.04 0 0.125 0.04 0 0.13 0.04 0 0.135 0.04 0 0.14 0.04 0 0.145 0.04 0 0.15 0.04 0 0.155 0.04 0 0.16 0.04 0 0.165 0.04 0 0.17 0.04 0 0.175 0.04 0 0.18 0.04 0 0.185 0.04 0 0.19 0.04 0 0.195 0.04 0 0.2 0.04 0 0.205 0.04 0 0.21 0.04 0 0.215 0.04 0 0.22 0.04 0 0.225 0.04 0 0.23 0.04 0 0.235 0.04 0 0.24 0.04 0 0.245 0.04 0 0.25 0.04 0 0.255 0.04 0 0.26 0.04 0 0.265 0.04 0 0.27 0.04 0 0.275 0.04 0 0.28 0.04 0 0.285 0.04 0 0.29 0.04 0 0.295 0.04 0 0.3 0.04 0 0.305 0.04 0 0.31 0.04 0 0.315 0.04 0 0.32 0.04 0 0.325 0.04 0 0.33 0.04 0 0.335 0.04 0 0.34 0.04 0 0.345 0.04 0 0.35 0.04 0 0.355 0.04 0 0.36 0.04 0 0.365 0.04 0 0.37 0.04 0 0.375 0.04 0 0.38 0.04 0 0.385 0.04 0 0.39 0.04 0 0.395 0.04 0 0.4 0.04 0 0.405 0.04 0 0.41 0.04 0 0.415 0.04 0 0.42 0.04 0 0.425 0.04 0 0.43 0.04 0 0.435 0.04 0 0.44 0.04 0 0.445 0.04 0 0.45 0.04 0 0.455 0.04 0 0.46 0.04 0 0.465 0.04 0 0.47 0.04 0 0.475 0.04 0 0.48 0.04 0 0.485 0.04 0 0.49 0.04 0 0.495 0.04 0 0.5 0.04 0 0.505 0.04 0 0.51 0.04 0 0.515 0.04 0 0.52 0.04 0 0.525 0.04 0 0.53 0.04 0 0.535 0.04 0 0.54 0.04 0 0.545 0.04 0 0.55 0.04 0 0.555 0.04 0 0.56 0.04 0 0.565 0.04 0 0.57 0.04 0 0.575 0.04 0 0.58 0.04 0 0.585 0.04 0 0.59 0.04 0 0.595 0.04 0 0.6 0.04 0 0.605 0.04 0 0.61 0.04 0 0.615 0.04 0 0.62 0.04 0 0.625 0.04 0 0.63 0.04 0 0.635 0.04 0 0.64 0.04 0 0.645 0.04 0 0.65 0.04 0 0.655 0.04 0 0.66 0.04 0 0.665 0.04 0 0.67 0.04 0 0.675 0.04 0 0.68 0.04 0 0.685 0.04 0 0.69 0.04 0 0.695 0.04 0 0.7 0.04 0 0.705 0.04 0 0.71 0.04 0 0.715 0.04 0 0.72 0.04 0 0.725 0.04 0 0.73 0.04 0 0.735 0.04 0 0.74 0.04 0 0.745 0.04 0 0.75 0.04 0 0.755 0.04 0 0.76 0.04 0 0.765 0.04 0 0.77 0.04 0 0.775 0.04 0 0.78 0.04 0 0.785 0.04 0 0.79 0.04 0 0.795 0.04 0 0.8 0.04 0 0.805 0.04 0 0.81 0.04 0 0.815 0.04 0 0.82 0.04 0 0.825 0.04 0 0.83 0.04 0 0.835 0.04 0 0.84 0.04 0 0.845 0.04 0 0.85 0.04 0 0.855 0.04 0 0.86 0.04 0 0.865 0.04 0 0.87 0.04 0 0.875 0.04 0 0.88 0.04 0 0.885 0.04 0 0.89 0.04 0 0.895 0.04 0 0.9 0.04 0 0.905 0.04 0 0.91 0.04 0 0.915 0.04 0 0.92 0.04 0 0.925 0.04 0 0.93 0.04 0 0.935 0.04 0 0.94 0.04 0 0.945 0.04 0 0.95 0.04 0 0.955 0.04 0 0.96 0.04 0 0.965 0.04 0 0.97 0.04 0 0.975 0.04 0 0.98 0.04 0 0.985 0.04 0 0.99 0.04 0 0.995 0.04 0 1 0.04 0 0 0.06 0 0.005 0.06 0 0.01 0.06 0 0.015 0.06 0 0.02 0.06 0 0.025 0.06 0 0.03 0.06 0 0.035 0.06 0 0.04 0.06 0 0.045 0.06 0 0.05 0.06 0 0.055 0.06 0 0.06 0.06 0 0.065 0.06 0 0.07 0.06 0 0.075 0.06 0 0.08 0.06 0 0.085 0.06 0 0.09 0.06 0 0.095 0.06 0 0.1 0.06 0 0.105 0.06 0 0.11 0.06 0 0.115 0.06 0 0.12 0.06 0 0.125 0.06 0 0.13 0.06 0 0.135 0.06 0 0.14 0.06 0 0.145 0.06 0 0.15 0.06 0 0.155 0.06 0 0.16 0.06 0 0.165 0.06 0 0.17 0.06 0 0.175 0.06 0 0.18 0.06 0 0.185 0.06 0 0.19 0.06 0 0.195 0.06 0 0.2 0.06 0 0.205 0.06 0 0.21 0.06 0 0.215 0.06 0 0.22 0.06 0 0.225 0.06 0 0.23 0.06 0 0.235 0.06 0 0.24 0.06 0 0.245 0.06 0 0.25 0.06 0 0.255 0.06 0 0.26 0.06 0 0.265 0.06 0 0.27 0.06 0 0.275 0.06 0 0.28 0.06 0 0.285 0.06 0 0.29 0.06 0 0.295 0.06 0 0.3 0.06 0 0.305 0.06 0 0.31 0.06 0 0.315 0.06 0 0.32 0.06 0 0.325 0.06 0 0.33 0.06 0 0.335 0.06 0 0.34 0.06 0 0.345 0.06 0 0.35 0.06 0 0.355 0.06 0 0.36 0.06 0 0.365 0.06 0 0.37 0.06 0 0.375 0.06 0 0.38 0.06 0 0.385 0.06 0 0.39 0.06 0 0.395 0.06 0 0.4 0.06 0 0.405 0.06 0 0.41 0.06 0 0.415 0.06 0 0.42 0.06 0 0.425 0.06 0 0.43 0.06 0 0.435 0.06 0 0.44 0.06 0 0.445 0.06 0 0.45 0.06 0 0.455 0.06 0 0.46 0.06 0 0.465 0.06 0 0.47 0.06 0 0.475 0.06 0 0.48 0.06 0 0.485 0.06 0 0.49 0.06 0 0.495 0.06 0 0.5 0.06 0 0.505 0.06 0 0.51 0.06 0 0.515 0.06 0 0.52 0.06 0 0.525 0.06 0 0.53 0.06 0 0.535 0.06 0 0.54 0.06 0 0.545 0.06 0 0.55 0.06 0 0.555 0.06 0 0.56 0.06 0 0.565 0.06 0 0.57 0.06 0 0.575 0.06 0 0.58 0.06 0 0.585 0.06 0 0.59 0.06 0 0.595 0.06 0 0.6 0.06 0 0.605 0.06 0 0.61 0.06 0 0.615 0.06 0 0.62 0.06 0 0.625 0.06 0 0.63 0.06 0 0.635 0.06 0 0.64 0.06 0 0.645 0.06 0 0.65 0.06 0 0.655 0.06 0 0.66 0.06 0 0.665 0.06 0 0.67 0.06 0 0.675 0.06 0 0.68 0.06 0 0.685 0.06 0 0.69 0.06 0 0.695 0.06 0 0.7 0.06 0 0.705 0.06 0 0.71 0.06 0 0.715 0.06 0 0.72 0.06 0 0.725 0.06 0 0.73 0.06 0 0.735 0.06 0 0.74 0.06 0 0.745 0.06 0 0.75 0.06 0 0.755 0.06 0 0.76 0.06 0 0.765 0.06 0 0.77 0.06 0 0.775 0.06 0 0.78 0.06 0 0.785 0.06 0 0.79 0.06 0 0.795 0.06 0 0.8 0.06 0 0.805 0.06 0 0.81 0.06 0 0.815 0.06 0 0.82 0.06 0 0.825 0.06 0 0.83 0.06 0 0.835 0.06 0 0.84 0.06 0 0.845 0.06 0 0.85 0.06 0 0.855 0.06 0 0.86 0.06 0 0.865 0.06 0 0.87 0.06 0 0.875 0.06 0 0.88 0.06 0 0.885 0.06 0 0.89 0.06 0 0.895 0.06 0 0.9 0.06 0 0.905 0.06 0 0.91 0.06 0 0.915 0.06 0 0.92 0.06 0 0.925 0.06 0 0.93 0.06 0 0.935 0.06 0 0.94 0.06 0 0.945 0.06 0 0.95 0.06 0 0.955 0.06 0 0.96 0.06 0 0.965 0.06 0 0.97 0.06 0 0.975 0.06 0 0.98 0.06 0 0.985 0.06 0 0.99 0.06 0 0.995 0.06 0 1 0.06 0 0 0.08 0 0.005 0.08 0 0.01 0.08 0 0.015 0.08 0 0.02 0.08 0 0.025 0.08 0 0.03 0.08 0 0.035 0.08 0 0.04 0.08 0 0.045 0.08 0 0.05 0.08 0 0.055 0.08 0 0.06 0.08 0 0.065 0.08 0 0.07 0.08 0 0.075 0.08 0 0.08 0.08 0 0.085 0.08 0 0.09 0.08 0 0.095 0.08 0 0.1 0.08 0 0.105 0.08 0 0.11 0.08 0 0.115 0.08 0 0.12 0.08 0 0.125 0.08 0 0.13 0.08 0 0.135 0.08 0 0.14 0.08 0 0.145 0.08 0 0.15 0.08 0 0.155 0.08 0 0.16 0.08 0 0.165 0.08 0
[...]
			<PointData Scalars="VitesseX">
				<DataArray Name="VitesseX" type="Float32" format="ascii">
 0 -5.56962e-15 7.30365e-15 1.23244e-14 -8.60385e-15 2.54712e-16 -1.38028e-14 -3.61319e-15 -1.76505e-14 -8.92375e-15 -3.61558e-14 -2.98503e-14 -4.1778e-14 -3.09024e-14 -7.72437e-14 -6.84188e-14 -2.03055e-14 -1.8163e-13 -3.35411e-14 -2.61316e-14 -9.20042e-14 -6.57632e-14 6.52116e-14 2.57232e-16 -4.26131e-14 1.5405e-13 4.44552e-14 -3.55873e-14 7.90545e-14 -6.0729e-14 -4.03595e-14 -9.04298e-14 -5.22504e-14 -4.98968e-14 -1.90937e-13 -4.50894e-14 -5.07556e-14 -1.14185e-13 -8.12117e-14 -1.25311e-14 -9.66622e-14 -1.94509e-14 6.27366e-14 2.1201e-13 1.58768e-12 9.57416e-12 6.01684e-11 3.57041e-10 2.00072e-09 1.06034e-08 5.29997e-08 2.49111e-07 1.09762e-06 4.5175e-06 1.72952e-05 6.12947e-05 0.000199934 0.000596168 0.00161252 0.00392418 0.00853129 0.0165106 0.0285248 0.0444605 0.0635607 0.0848874 0.107669 0.131387 0.155736 0.180508 0.205562 0.230821 0.256238 0.281785 0.307445 0.333211 0.359081 0.385061 0.411158 0.437364 0.463376 0.489121 0.514748 0.540149 0.565375 0.5905 0.615338 0.640127 0.664492 0.688807 0.712841 0.736641 0.760476 0.783672 0.806779 0.829174 0.850289 0.870625 0.888183 0.903107 0.91531 0.923084 0.928272 0.931207 0.931939 0.932215 0.932209 0.932096 0.931856 0.931515 0.931121 0.93071 0.930313 0.929947 0.929621 0.929343 0.929109 0.928921 0.928782 0.928644 0.928515 0.928413 0.928334 0.92827 0.928216 0.928168 0.928125 0.928085 0.92805 0.928018 0.927988 0.927962 0.927936 0.927912 0.927889 0.927867 0.927846 0.927827 0.927809 0.927794 0.927781 0.927773 0.927763 0.927744 0.927701 0.927623 0.927458 0.927102 0.92635 0.924799 0.921665 0.915462 0.903514 0.881359 0.84249 0.779287 0.686125 0.564092 0.425523 0.289492 0.174705 0.0921615 0.0427048 0.0179235 0.00709774 0.00273275 0.00103895 0.000392613 0.000147834 5.55082e-05 2.0785e-05 7.7602e-06 2.88797e-06 1.07092e-06 3.95554e-07 1.45466e-07 5.32429e-08 1.93877e-08 7.02075e-09 2.52755e-09 9.03721e-10 3.21365e-10 1.13147e-10 3.94548e-11 1.33686e-11 4.78873e-12 1.33612e-12 9.87363e-14 2.98821e-13 4.1755e-13 -2.35915e-13 -3.84819e-13 -4.22365e-16 2.39143e-13 2.2821e-13 -2.71226e-13 1.45685e-13 -5.35464e-13 2.85031e-13 4.32572e-14 0 0 -5.60075e-15 -7.20699e-15 -3.68996e-15 -5.82084e-15 -8.53392e-15 5.67772e-15 -2.23987e-14 -6.29141e-15 -3.90585e-14 -4.48008e-14 -3.37272e-14 -3.84881e-14 -3.13129e-14 -6.13448e-14 -4.47771e-14 -1.16334e-13 -3.93363e-14 -1.14939e-13 -6.09875e-14 -2.73222e-14 3.35675e-14 -6.60387e-14 7.55267e-15 1.42781e-13 5.16107e-14 -3.19041e-14 5.54191e-14 -1.5908e-13 5.52452e-14 -3.29513e-14 6.64174e-14 -1.72476e-13 -1.07869e-13 -5.91849e-14 -1.16989e-13 -7.43596e-14 -6.46265e-15 -5.71556e-14 -1.11212e-13 1.54076e-14 -1.32859e-13 7.02122e-14 2.08259e-13 1.35125e-12 9.82861e-12 6.0383e-11 3.5671e-10 2.00048e-09 1.06039e-08 5.29997e-08 2.4911e-07 1.09762e-06 4.5175e-06 1.72952e-05 6.12947e-05 0.000199934 0.000596168 0.00161252 0.00392418 0.00853129 0.0165106 0.0285248 0.0444605 0.0635607 0.0848874 0.107669 0.131387 0.155736 0.180508 0.205562 0.230821 0.256238 0.281785 0.307445 0.333211 0.359081 0.385061 0.411158 0.437364 0.463376 0.489121 0.514748 0.540149 0.565375 0.5905 0.615338 0.640127 0.664492 0.688807 0.712841 0.736641 0.760476 0.783672 0.806779 0.829174 0.850289 0.870625 0.888183 0.903107 0.91531 0.923084 0.928272 0.931207 0.931939 0.932215 0.932209 0.932096 0.931856 0.931515 0.931121 0.93071 0.930313 0.929947 0.929621 0.929343 0.929109 0.928921 0.928782 0.928644 0.928515 0.928413 0.928334 0.92827 0.928216 0.928168 0.928125 0.928085 0.92805 0.928018 0.927988 0.927962 0.927936 0.927912 0.927889 0.927867 0.927846 0.927827 0.927809 0.927794 0.927781 0.927773 0.927763 0.927744 0.927701 0.927623 0.927458 0.927102 0.92635 0.924799 0.921665 0.915462 0.903514 0.881359 0.84249 0.779287 0.686125 0.564092 0.425523 0.289492 0.174705 0.0921615 0.0427048 0.0179235 0.00709774 0.00273275 0.00103895 0.000392613 0.000147834 5.55082e-05 2.0785e-05 7.7602e-06 2.88797e-06 1.07092e-06 3.95554e-07 1.45467e-07 5.32427e-08 1.93878e-08 7.02099e-09 2.52725e-09 9.04232e-10 3.20933e-10 1.13326e-10 3.93112e-11 1.38263e-11 4.42446e-12 1.33043e-12 3.9907e-13 2.65087e-13 1.6649e-13 -2.0652e-13 9.37174e-14 1.32243e-13 -2.05728e-13 -3.10699e-13 2.40415e-13 4.36019e-14 1.67675e-14 -3.5524e-14 3.33803e-13 0 0 2.65555e-15 -5.20333e-15 -1.16733e-14 -2.23404e-14 -1.60474e-14 -4.18606e-14 -3.67132e-14 5.92931e-15 -4.76753e-14 -1.8678e-14 -6.34314e-14 -7.30419e-14 -2.86415e-14 -4.93995e-14 -2.891e-14 -7.12625e-14 -7.99248e-14 1.41485e-14 -8.3236e-14 -4.95288e-14 4.82933e-14 -3.93699e-14 2.37291e-14 -2.31581e-14 5.28877e-14 1.30675e-14 -4.42296e-14 1.30293e-14 -7.49677e-14 -1.80378e-14 -7.6886e-14 -8.92293e-15 -4.20617e-14 -8.57865e-14 -1.60849e-13 -2.32888e-14 4.06857e-14 -5.53669e-14 -5.40157e-14 -1.74476e-13 -4.28831e-14 6.61007e-14 1.66655e-13 1.59709e-12 9.63731e-12 6.03915e-11 3.56676e-10 2.0005e-09 1.06039e-08 5.29996e-08 2.4911e-07 1.09762e-06 4.5175e-06 1.72952e-05 6.12947e-05 0.000199934 0.000596168 0.00161252 0.00392418 0.00853129 0.0165106 0.0285248 0.0444605 0.0635607 0.0848874 0.107669 0.131387 0.155736 0.180508 0.205562 0.230821 0.256238 0.281785 0.307445 0.333211 0.359081 0.385061 0.411158 0.437364 0.463376 0.489121 0.514748 0.540149 0.565375 0.5905 0.615338 0.640127 0.664492 0.688807 0.712841 0.736641 0.760476 0.783672 0.806779 0.829174 0.850289 0.870625 0.888183 0.903107 0.91531 0.923084 0.928272 0.931207 0.931939 0.932215 0.932209 0.932096 0.931856 0.931515 0.931121 0.93071 0.930313 0.929947 0.929621 0.929343 0.929109 0.928921 0.928782 0.928644 0.928515 0.928413 0.928334 0.92827 0.928216 0.928168 0.928125 0.928085 0.92805 0.928018 0.927988 0.927962 0.927936 0.927912 0.927889 0.927867 0.927846 0.927827 0.927809 0.927794 0.927781 0.927773 0.927763 0.927744 0.927701 0.927623 0.927458 0.927102 0.92635 0.924799 0.921665 0.915462 0.903514 0.881359 0.84249 0.779287 0.686125 0.564092 0.425523 0.289492 0.174705 0.0921615 0.0427048 0.0179235 0.00709774 0.00273275 0.00103895 0.000392613 0.000147834 5.55082e-05 2.0785e-05 7.7602e-06 2.88797e-06 1.07092e-06 3.95554e-07 1.45467e-07 5.32431e-08 1.93878e-08 7.02088e-09 2.5276e-09 9.0403e-10 3.21318e-10 1.13288e-10 3.98166e-11 1.36445e-11 4.21919e-12 1.72379e-12 2.22593e-13 -6.12968e-13 4.96789e-13 -2.11232e-13 2.52197e-13 9.19975e-14 -5.37417e-14 2.49925e-13 -1.79479e-13 -3.61931e-13 -1.67741e-13 2.17541e-13 -2.69572e-13 0 0 -5.68358e-15 -9.61978e-15 -7.6597e-15 -3.86108e-14 -2.39658e-14 -5.03948e-14 -1.4936e-14 -4.37894e-14 -5.45364e-14 -3.03156e-14 -4.58212e-14 -3.22716e-14 -6.28493e-14 -8.81997e-14 3.83388e-15 -3.7766e-14 1.39625e-14 -2.10803e-15 -1.87235e-14 -8.62372e-14 -1.29584e-13 1.36337e-14 1.93858e-14 2.82065e-14 6.10627e-14 -5.54195e-14 -9.10854e-14 3.0632e-14 -6.01635e-14 -4.63415e-14 -1.7086e-13 -1.38256e-14 -4.95978e-14 -9.34364e-14 -1.45853e-14 6.62314e-14 -8.32379e-14 -5.61986e-14 1.36569e-14 -2.11846e-15 -1.48057e-14 -1.75361e-13 1.99541e-13 1.66576e-12 9.79509e-12 6.03578e-11 3.56824e-10 2.00049e-09 1.06037e-08 5.29997e-08 2.4911e-07 1.09762e-06 4.5175e-06 1.72952e-05 6.12947e-05 0.000199934 0.000596168 0.00161252 0.00392418 0.00853129 0.0165106 0.0285248 0.0444605 0.0635607 0.0848874 0.107669 0.131387 0.155736 0.180508 0.205562 0.230821 0.256238 0.281785 0.307445 0.333211 0.359081 0.385061 0.411158 0.437364 0.463376 0.489121 0.514748 0.540149 0.565375 0.5905 0.615338 0.640127 0.664492 0.688807 0.712841 0.736641 0.760476 0.783672 0.806779 0.829174 0.850289 0.870625 0.888183 0.903107 0.91531 0.923084 0.928272 0.931207 0.931939 0.932215 0.932209 0.932096 0.931856 0.931515 0.931121 0.93071 0.930313 0.929947 0.929621 0.929343 0.929109 0.928921 0.928782 0.928644 0.928515 0.928413 0.928334 0.92827 0.928216 0.928168 0.928125 0.928085 0.92805 0.928018 0.927988 0.927962 0.927936 0.927912 0.927889 0.927867 0.927846 0.927827 0.927809 0.927794 0.927781 0.927773 0.927763 0.927744 0.927701 0.927623 0.927458 0.927102 0.92635 0.924799 0.921665 0.915462 0.903514 0.881359 0.84249 0.779287 0.686125 0.564092 0.425523 0.289492 0.174705 0.0921615 0.0427048 0.0179235 0.00709774 0.00273275 0.00103895 0.000392613 0.000147834 5.55082e-05 2.0785e-05 7.7602e-06 2.88797e-06 1.07092e-06 3.95554e-07 1.45467e-07 5.32432e-08 1.93875e-08 7.02113e-09 2.52759e-09 9.03913e-10 3.21419e-10 1.13097e-10 3.97997e-11 1.35434e-11 4.54483e-12 1.56762e-12 1.00794e-12 -3.2132e-13 4.67837e-14 -1.82089e-13 3.43423e-14 -5.62061e-13 4.36615e-13 5.03463e-13 -7.28826e-13 1.17529e-13 -1.57023e-13 -3.60711e-13 -7.22622e-13 0 0 -7.6253e-15 -1.13647e-14 -2.29432e-14 -1.9688e-14 -3.90153e-14 -3.31498e-14 -3.58731e-14 -8.87196e-14 -1.33914e-14 -4.81117e-14 -2.49826e-14 -3.60031e-15 -3.55584e-14 -7.33419e-14 -3.36514e-14 -5.52558e-14 9.11247e-14 -6.44313e-14 -3.30586e-14 -6.22134e-14 -1.11262e-13 -9.41984e-14 2.85953e-15 1.09431e-13 -2.35484e-14 -5.86546e-14 6.54554e-14 -1.76579e-13 -4.52566e-14 -7.76496e-14 -1.13979e-14 -1.90475e-13 -1.04298e-13 -4.67169e-14 9.42695e-15 -7.94237e-14 -4.05896e-14 1.64239e-14 8.03053e-14 1.53553e-13 7.30322e-15 -1.73447e-13 2.5487e-13 1.35882e-12 9.82363e-12 6.04491e-11 3.56829e-10 2.00047e-09 1.06037e-08 5.29998e-08 2.4911e-07 1.09762e-06 4.5175e-06 1.72952e-05 6.12947e-05 0.000199934 0.000596168 0.00161252 0.00392418 0.00853129 0.0165106 0.0285248 0.0444605 0.0635607 0.0848874 0.107669 0.131387 0.155736 0.180508 0.205562 0.230821 0.256238 0.281785 0.307445 0.333211 0.359081 0.385061 0.411158 0.437364 0.463376 0.489121 0.514748 0.540149 0.565375 0.5905 0.615338 0.640127 0.664492 0.688807 0.712841 0.736641 0.760476 0.783672 0.806779 0.829174 0.850289 0.870625 0.888183 0.903107 0.91531 0.923084 0.928272 0.931207 0.931939 0.932215 0.932209 0.932096 0.931856 0.931515 0.931121 0.93071 0.930313 0.929947 0.929621 0.929343 0.929109 0.928921 0.928782 0.928644 0.928515 0.928413 0.928334 0.92827 0.928216 0.928168 0.928125 0.928085 0.92805 0.928018 0.927988 0.927962 0.927936 0.927912 0.927889 0.927867 0.927846 0.927827 0.927809 0.927794 0.927781 0.927773 0.927763 0.927744 0.927701 0.927623 0.927458 0.927102 0.92635 0.924799 0.921665 0.915462 0.903514 0.881359 0.84249 0.779287 0.686125 0.564092 0.425523 0.289492 0.174705 0.0921615 0.0427048 0.0179235 0.00709774 0.00273275 0.00103895 0.000392613 0.000147834 5.55082e-05 2.0785e-05 7.7602e-06 2.88797e-06 1.07092e-06 3.95554e-07 1.45467e-07 5.32427e-08 1.93879e-08 7.02091e-09 2.52755e-09 9.04498e-10 3.2095e-10 1.13462e-10 3.94994e-11 1.36689e-11 4.84354e-12 5.41814e-13 8.09984e-13 2.12269e-13 3.16189e-13 3.51209e-14 -2.3523e-13 -2.76167e-13 7.78106e-14 -3.97565e-13 2.21791e-13 2.63194e-13 2.11193e-13 -4.5623e-13 -1.28632e-14 0 0 7.05955e-15 7.82104e-15 -3.42094e-14 -3.79757e-15 -4.48713e-14 -7.43893e-14 -7.41164e-14 -8.30693e-14 5.61325e-14 -1.95025e-14 -4.75814e-14 -5.35432e-14 2.90222e-14 -2.36377e-14 -1.11655e-13 3.48572e-14 -1.08482e-13 9.99866e-14 -9.92989e-14 -8.83696e-14 3.33315e-16 -9.7115e-14 -4.42461e-16 -2.12042e-13 -1.26181e-14 1.27928e-13 7.81971e-14 8.85143e-15 -2.91341e-13 -7.31486e-14 -5.81127e-14 -7.8443e-14 -2.76832e-14 -1.50701e-13 -8.47861e-14 -2.39924e-13 6.54083e-14 6.76108e-14 2.35158e-13 -1.65086e-13 2.04718e-13 5.83412e-14 2.39458e-13 1.46547e-12 9.24865e-12 6.03681e-11 3.56984e-10 2.00074e-09 1.06036e-08 5.29998e-08 2.49111e-07 1.09762e-06 4.5175e-06 1.72952e-05 6.12947e-05 0.000199934 0.000596168 0.00161252 0.00392418 0.00853129 0.0165106 0.0285248 0.0444605 0.0635607 0.0848874 0.107669 0.131387 0.155736 0.180508 0.205562 0.230821 0.256238 0.281785 0.307445 0.333211 0.359081 0.385061 0.411158 0.437364 0.463376 0.489121 0.514748 0.540149 0.565375 0.5905 0.615338 0.640127 0.664492 0.688807 0.712841 0.736641 0.760476 0.783672 0.806779 0.829174 0.850289 0.870625 0.888183 0.903107 0.91531 0.923084 0.928272 0.931207 0.931939 0.932215 0.932209 0.932096 0.931856 0.931515 0.931121 0.93071 0.930313 0.929947 0.929621 0.929343 0.929109 0.928921 0.928782 0.928644 0.928515 0.928413 0.928334 0.92827 0.928216 0.928168 0.928125 0.928085 0.92805 0.928018 0.927988 0.927962 0.927936 0.927912 0.927889 0.927867 0.927846 0.927827 0.927809 0.927794 0.927781 0.927773 0.927763 0.927744 0.927701 0.927623 0.927458 0.927102 0.92635 0.924799 0.921665 0.915462 0.903514 0.881359 0.84249 0.779287 0.686125 0.564092 0.425523 0.289492 0.174705 0.0921615 0.0427048 0.0179235 0.00709774 0.00273275 0.00103895 0.000392613 0.000147834 5.55082e-05 2.0785e-05 7.7602e-06 2.88797e-06 1.07092e-06 3.95554e-07 1.45466e-07 5.32426e-08 1.93883e-08 7.02009e-09 2.52817e-09 9.04484e-10 3.21197e-10 1.13799e-10 3.98651e-11 1.3256e-11 4.97564e-12 7.12342e-14 -6.5013e-13 -3.90111e-13 1.61696e-12 1.89082e-13 -6.07005e-13 4.90874e-13 -1.74493e-13 -4.52597e-13 7.9022e-13 -3.74053e-13 -1.6805e-13 6.00124e-13 2.56026e-13 0
				</DataArray>
				<DataArray Name="VitesseY" type="Float32" format="ascii">