<?xml version="1.0"?>
<VTKFile type="PolyData">
	<PolyData>
		<Piece NumberOfPoints="1206" NumberOfPolys="1000">
			<Points>
				<DataArray type="Float32" NumberOfComponents="3" format="ascii">
 0 0 0 0.005 0 0 0.01 0 0 0.015 0 0 0.02 0 0 0.025 0 0 0.03 0 0 0.035 0 0 0.04 0 0 0.045 0 0 0.05 0 0 0.055 0 0 0.06 0 0 0.065 0 0 0.07 0 0 0.075 0 0 0.08 0 0 0.085 0 0 0.09 0 0 0.095 0 0 0.1 0 0 0.105 0 0 0.11 0 0 0.115 0 0 0.12 0 0 0.125 0 0 0.13 0 0 0.135 0 0 0.14 0 0 0.145 0 0 0.15 0 0 0.155 0 0 0.16 0 0 0.165 0 0 0.17 0 0 0.175 0 0 0.18 0 0 0.185 0 0 0.19 0 0 0.195 0 0 0.2 0 0 0.205 0 0 0.21 0 0 0.215 0 0 0.22 0 0 0.225 0 0 0.23 0 0 0.235 0 0 0.24 0 0 0.245 0 0 0.25 0 0 0.255 0 0 0.26 0 0 0.265 0 0 0.27 0 0 0.275 0 0 0.28 0 0 0.285 0 0 0.29 0 0 0.295 0 0 0.3 0 0 0.305 0 0 0.31 0 0 0.315 0 0 0.32 0 0 0.325 0 0 0.33 0 0 0.335 0 0 0.34 0 0 0.345 0 0 0.35 0 0 0.355 0 0 0.36 0 0 0.365 0 0 0.37 0 0 0.375 0 0 0.38 0 0 0.385 0 0 0.39 0 0 0.395 0 0 0.4 0 0 0.405 0 0 0.41 0 0 0.415 0 0 0.42 0 0 0.425 0 0 0.43 0 0 0.435 0 0 0.44 0 0 0.445 0 0 0.45 0 0 0.455 0 0 0.46 0 0 0.465 0 0 0.47 0 0 0.475 0 0 0.48 0 0 0.485 0 0 0.49 0 0 0.495 0 0 0.5 0 0 0.505 0 0 0.51 0 0 0.515 0 0 0.52 0 0 0.525 0 0 0.53 0 0 0.535 0 0 0.54 0 0 0.545 0 0 0.55 0 0 0.555 0 0 0.56 0 0 0.565 0 0 0.57 0 0 0.575 0 0 0.58 0 0 0.585 0 0 0.59 0 0 0.595 0 0 0.6 0 0 0.605 0 0 0.61 0 0 0.615 0 0 0.62 0 0 0.625 0 0 0.63 0 0 0.635 0 0 0.64 0 0 0.645 0 0 0.65 0 0 0.655 0 0 0.66 0 0 0.665 0 0 0.67 0 0 0.675 0 0 0.68 0 0 0.685 0 0 0.69 0 0 0.695 0 0 0.7 0 0 0.705 0 0 0.71 0 0 0.715 0 0 0.72 0 0 0.725 0 0 0.73 0 0 0.735 0 0 0.74 0 0 0.745 0 0 0.75 0 0 0.755 0 0 0.76 0 0 0.765 0 0 0.77 0 0 0.775 0 0 0.78 0 0 0.785 0 0 0.79 0 0 0.795 0 0 0.8 0 0 0.805 0 0 0.81 0 0 0.815 0 0 0.82 0 0 0.825 0 0 0.83 0 0 0.835 0 0 0.84 0 0 0.845 0 0 0.85 0 0 0.855 0 0 0.86 0 0 0.865 0 0 0.87 0 0 0.875 0 0 0.88 0 0 0.885 0 0 0.89 0 0 0.895 0 0 0.9 0 0 0.905 0 0 0.91 0 0 0.915 0 0 0.92 0 0 0.925 0 0 0.93 0 0 0.935 0 0 0.94 0 0 0.945 0 0 0.95 0 0 0.955 0 0 0.96 0 0 0.965 0 0 0.97 0 0 0.975 0 0 0.98 0 0 0.985 0 0 0.99 0 0 0.995 0 0 1 0 0 0 0.02 0 0.005 0.02 0 0.01 0.02 0 0.015 0.02 0 0.02 0.02 0 0.025 0.02 0 0.03 0.02 0 0.035 0.02 0 0.04 0.02 0 0.045 0.02 0 0.05 0.02 0 0.055 0.02 0 0.06 0.02 0 0.065 0.02 0 0.07 0.02 0 0.075 0.02 0 0.08 0.02 0 0.085 0.02 0 0.09 0.02 0 0.095 0.02 0 0.1 0.02 0 0.105 0.02 0 0.11 0.02 0 0.115 0.02 0 0.12 0.02 0 0.125 0.02 0 0.13 0.02 0 0.135 0.02 0 0.14 0.02 0 0.145 0.02 0 0.15 0.02 0 0.155 0.02 0 0.16 0.02 0 0.165 0.02 0 0.17 0.02 0 0.175 0.02 0 0.18 0.02 0 0.185 0.02 0 0.19 0.02 0 0.195 0.02 0 0.2 0.02 0 0.205 0.02 0 0.21 0.02 0 0.215 0.02 0 0.22 0.02 0 0.225 0.02 0 0.23 0.02 0 0.235 0.02 0 0.24 0.02 0 0.245 0.02 0 0.25 0.02 0 0.255 0.02 0 0.26 0.02 0 0.265 0.02 0 0.27 0.02 0 0.275 0.02 0 0.28 0.02 0 0.285 0.02 0 0.29 0.02 0 0.295 0.02 0 0.3 0.02 0 0.305 0.02 0 0.31 0.02 0 0.315 0.02 0 0.32 0.02 0 0.325 0.02 0 0.33 0.02 0 0.335 0.02 0 0.34 0.02 0 0.345 0.02 0 0.35 0.02 0 0.355 0.02 0 0.36 0.02 0 0.365 0.02 0 0.37 0.02 0 0.375 0.02 0 0.38 0.02 0 0.385 0.02 0 0.39 0.02 0 0.395 0.02 0 0.4 0.02 0 0.405 0.02 0 0.41 0.02 0 0.415 0.02 0 0.42 0.02 0 0.425 0.02 0 0.43 0.02 0 0.435 0.02 0 0.44 0.02 0 0.445 0.02 0 0.45 0.02 0 0.455 0.02 0 0.46 0.02 0 0.465 0.02 0 0.47 0.02 0 0.475 0.02 0 0.48 0.02 0 0.485 0.02 0 0.49 0.02 0 0.495 0.02 0 0.5 0.02 0 0.505 0.02 0 0.51 0.02 0 0.515 0.02 0 0.52 0.02 0 0.525 0.02 0 0.53 0.02 0 0.535 0.02 0 0.54 0.02 0 0.545 0.02 0 0.55 0.02 0 0.555 0.02 0 0.56 0.02 0 0.565 0.02 0 0.57 0.02 0 0.575 0.02 0 0.58 0.02 0 0.585 0.02 0 0.59 0.02 0 0.595 0.02 0 0.6 0.02 0 0.605 0.02 0 0.61 0.02 0 0.615 0.02 0 0.62 0.02 0 0.625 0.02 0 0.63 0.02 0 0.635 0.02 0 0.64 0.02 0 0.645 0.02 0 0.65 0.02 0 0.655 0.02 0 0.66 0.02 0 0.665 0.02 0 0.67 0.02 0 0.675 0.02 0 0.68 0.02 0 0.685 0.02 0 0.69 0.02 0 0.695 0.02 0 0.7 0.02 0 0.705 0.02 0 0.71 0.02 0 0.715 0.02 0 0.72 0.02 0 0.725 0.02 0 0.73 0.02 0 0.735 0.02 0 0.74 0.02 0 0.745 0.02 0 0.75 0.02 0 0.755 0.02 0 0.76 0.02 0 0.765 0.02 0 0.77 0.02 0 0.775 0.02 0 0.78 0.02 0 0.785 0.02 0 0.79 0.02 0 0.795 0.02 0 0.8 0.02 0 0.805 0.02 0 0.81 0.02 0 0.815 0.02 0 0.82 0.02 0 0.825 0.02 0 0.83 0.02 0 0.835 0.02 0 0.84 0.02 0 0.845 0.02 0 0.85 0.02 0 0.855 0.02 0 0.86 0.02 0 0.865 0.02 0 0.87 0.02 0 0.875 0.02 0 0.88 0.02 0 0.885 0.02 0 0.89 0.02 0 0.895 0.02 0 0.9 0.02 0 0.905 0.02 0 0.91 0.02 0 0.915 0.02 0 0.92 0.02 0 0.925 0.02 0 0.93 0.02 0 0.935 0.02 0 0.94 0.02 0 0.945 0.02 0 0.95 0.02 0 0.955 0.02 0 0.96 0.02 0 0.965 0.02 0 0.97 0.02 0 0.975 0.02 0 0.98 0.02 0 0.985 0.02 0 0.99 0.02 0 0.995 0.02 0 1 0.02 0 0 0.04 0 0.005 0.04 0 0.01 0.04 0 0.015 0.04 0 0.02 0.04 0 0.025 0.04 0 0.03 0.04 0 0.035 0.04 0 0.04 0.04 0 0.045 0.04 0 0.05 0.04 0 0.055 0.04 0 0.06 0.04 0 0.065 0.04 0 0.07 0.04 0 0.075 0.04 0 0.08 0.04 0 0.085 0.04 0 0.09 0.04 0 0.095 0.04 0 0.1 0.04 0 0.105 0.04 0 0.11 0.04 0 0.115 0.04 0 0.12 0.04 0 0.125 0.04 0 0.13 0.04 0 0.135 0.04 0 0.14 0.04 0 0.145 0.04 0 0.15 0.04 0 0.155 0.04 0 0.16 0.04 0 0.165 0.04 0 0.17 0.04 0 0.175 0.04 0 0.18 0.04 0 0.185 0.04 0 0.19 0.04 0 0.195 0.04 0 0.2 0.04 0 0.205 0.04 0 0.21 0.04 0 0.215 0.04 0 0.22 0.04 0 0.225 0.04 0 0.23 0.04 0 0.235 0.04 0 0.24 0.04 0 0.245 0.04 0 0.25 0.04 0 0.255 0.04 0 0.26 0.04 0 0.265 0.04 0 0.27 0.04 0 0.275 0.04 0 0.28 0.04 0 0.285 0.04 0 0.29 0.04 0 0.295 0.04 0 0.3 0.04 0 0.305 0.04 0 0.31 0.04 0 0.315 0.04 0 0.32 0.04 0 0.325 0.04 0 0.33 0.04 0 0.335 0.04 0 0.34 0.04 0 0.345 0.04 0 0.35 0.04 0 0.355 0.04 0 0.36 0.04 0 0.365 0.04 0 0.37 0.04 0 0.375 0.04 0 0.38 0.04 0 0.385 0.04 0 0.39 0.04 0 0.395 0.04 0 0.4 0.04 0 0.405 0.04 0 0.41 0.04 0 0.415 0.04 0 0.42 0.04 0 0.425 0.04 0 0.43 0.04 0 0.435 0.04 0 0.44 0.04 0 0.445 0.04 0 0.45 0.04 0 0.455 0.04 0 0.46 0.04 0 0.465 0.04 0 0.47 0.04 0 0.475 0.04 0 0.48 0.04 0 0.485 0.04 0 0.49 0.04 0 0.495 0.04 0 0.5 0.04 0 0.505 0.04 0 0.51 0.04 0 0.515 0.04 0 0.52 0.04 0 0.525 0.04 0 0.53 0.04 0 0.535 0.04 0 0.54 0.04 0 0.545 0.04 0 0.55 0.04 0 0.555 0.04 0 0.56 0.04 0 0.565 0.04 0 0.57 0.04 0 0.575 0.04 0 0.58 0.04 0 0.585 0.04 0 0.59 0.04 0 0.595 0.04 0 0.6 0.04 0 0.605 0.04 0 0.61 0.04 0 0.615 0.04 0 0.62 0.04 0 0.625 0.04 0 0.63 0.04 0 0.635 0.04 0 0.64 0.04 0 0.645 0.04 0 0.65 0.04 0 0.655 0.04 0 0.66 0.04 0 0.665 0.04 0 0.67 0.04 0 0.675 0.04 0 0.68 0.04 0 0.685 0.04 0 0.69 0.04 0 0.695 0.04 0 0.7 0.04 0 0.705 0.04 0 0.71 0.04 0 0.715 0.04 0 0.72 0.04 0 0.725 0.04 0 0.73 0.04 0 0.735 0.04 0 0.74 0.04 0 0.745 0.04 0 0.75 0.04 0 0.755 0.04 0 0.76 0.04 0 0.765 0.04 0 0.77 0.04 0 0.775 0.04 0 0.78 0.04 0 0.785 0.04 0 0.79 0.04 0 0.795 0.04 0 0.8 0.04 0 0.805 0.04 0 0.81 0.04 0 0.815 0.04 0 0.82 0.04 0 0.825 0.04 0 0.83 0.04 0 0.835 0.04 0 0.84 0.04 0 0.845 0.04 0 0.85 0.04 0 0.855 0.04 0 0.86 0.04 0 0.865 0.04 0 0.87 0.04 0 0.875 0.04 0 0.88 0.04 0 0.885 0.04 0 0.89 0.04 0 0.895 0.04 0 0.9 0.04 0 0.905 0.04 0 0.91 0.04 0 0.915 0.04 0 0.92 0.04 0 0.925 0.04 0 0.93 0.04 0 0.935 0.04 0 0.94 0.04 0 0.945 0.04 0 0.95 0.04 0 0.955 0.04 0 0.96 0.04 0 0.965 0.04 0 0.97 0.04 0 0.975 0.04 0 0.98 0.04 0 0.985 0.04 0 0.99 0.04 0 0.995 0.04 0 1 0.04 0 0 0.06 0 0.005 0.06 0 0.01 0.06 0 0.015 0.06 0 0.02 0.06 0 0.025 0.06 0 0.03 0.06 0 0.035 0.06 0 0.04 0.06 0 0.045 0.06 0 0.05 0.06 0 0.055 0.06 0 0.06 0.06 0 0.065 0.06 0 0.07 0.06 0 0.075 0.06 0 0.08 0.06 0 0.085 0.06 0 0.09 0.06 0 0.095 0.06 0 0.1 0.06 0 0.105 0.06 0 0.11 0.06 0 0.115 0.06 0 0.12 0.06 0 0.125 0.06 0 0.13 0.06 0 0.135 0.06 0 0.14 0.06 0 0.145 0.06 0 0.15 0.06 0 0.155 0.06 0 0.16 0.06 0 0.165 0.06 0 0.17 0.06 0 0.175 0.06 0 0.18 0.06 0 0.185 0.06 0 0.19 0.06 0 0.195 0.06 0 0.2 0.06 0 0.205 0.06 0 0.21 0.06 0 0.215 0.06 0 0.22 0.06 0 0.225 0.06 0 0.23 0.06 0 0.235 0.06 0 0.24 0.06 0 0.245 0.06 0 0.25 0.06 0 0.255 0.06 0 0.26 0.06 0 0.265 0.06 0 0.27 0.06 0 0.275 0.06 0 0.28 0.06 0 0.285 0.06 0 0.29 0.06 0 0.295 0.06 0 0.3 0.06 0 0.305 0.06 0 0.31 0.06 0 0.315 0.06 0 0.32 0.06 0 0.325 0.06 0 0.33 0.06 0 0.335 0.06 0 0.34 0.06 0 0.345 0.06 0 0.35 0.06 0 0.355 0.06 0 0.36 0.06 0 0.365 0.06 0 0.37 0.06 0 0.375 0.06 0 0.38 0.06 0 0.385 0.06 0 0.39 0.06 0 0.395 0.06 0 0.4 0.06 0 0.405 0.06 0 0.41 0.06 0 0.415 0.06 0 0.42 0.06 0 0.425 0.06 0 0.43 0.06 0 0.435 0.06 0 0.44 0.06 0 0.445 0.06 0 0.45 0.06 0 0.455 0.06 0 0.46 0.06 0 0.465 0.06 0 0.47 0.06 0 0.475 0.06 0 0.48 0.06 0 0.485 0.06 0 0.49 0.06 0 0.495 0.06 0 0.5 0.06 0 0.505 0.06 0 0.51 0.06 0 0.515 0.06 0 0.52 0.06 0 0.525 0.06 0 0.53 0.06 0 0.535 0.06 0 0.54 0.06 0 0.545 0.06 0 0.55 0.06 0 0.555 0.06 0 0.56 0.06 0 0.565 0.06 0 0.57 0.06 0 0.575 0.06 0 0.58 0.06 0 0.585 0.06 0 0.59 0.06 0 0.595 0.06 0 0.6 0.06 0 0.605 0.06 0 0.61 0.06 0 0.615 0.06 0 0.62 0.06 0 0.625 0.06 0 0.63 0.06 0 0.635 0.06 0 0.64 0.06 0 0.645 0.06 0 0.65 0.06 0 0.655 0.06 0 0.66 0.06 0 0.665 0.06 0 0.67 0.06 0 0.675 0.06 0 0.68 0.06 0 0.685 0.06 0 0.69 0.06 0 0.695 0.06 0 0.7 0.06 0 0.705 0.06 0 0.71 0.06 0 0.715 0.06 0 0.72 0.06 0 0.725 0.06 0 0.73 0.06 0 0.735 0.06 0 0.74 0.06 0 0.745 0.06 0 0.75 0.06 0 0.755 0.06 0 0.76 0.06 0 0.765 0.06 0 0.77 0.06 0 0.775 0.06 0 0.78 0.06 0 0.785 0.06 0 0.79 0.06 0 0.795 0.06 0 0.8 0.06 0 0.805 0.06 0 0.81 0.06 0 0.815 0.06 0 0.82 0.06 0 0.825 0.06 0 0.83 0.06 0 0.835 0.06 0 0.84 0.06 0 0.845 0.06 0 0.85 0.06 0 0.855 0.06 0 0.86 0.06 0 0.865 0.06 0 0.87 0.06 0 0.875 0.06 0 0.88 0.06 0 0.885 0.06 0 0.89 0.06 0 0.895 0.06 0 0.9 0.06 0 0.905 0.06 0 0.91 0.06 0 0.915 0.06 0 0.92 0.06 0 0.925 0.06 0 0.93 0.06 0 0.935 0.06 0 0.94 0.06 0 0.945 0.06 0 0.95 0.06 0 0.955 0.06 0 0.96 0.06 0 0.965 0.06 0 0.97 0.06 0 0.975 0.06 0 0.98 0.06 0 0.985 0.06 0 0.99 0.06 0 0.995 0.06 0 1 0.06 0 0 0.08 0 0.005 0.08 0 0.01 0.08 0 0.015 0.08 0 0.02 0.08 0 0.025 0.08 0 0.03 0.08 0 0.035 0.08 0 0.04 0.08 0 0.045 0.08 0 0.05 0.08 0 0.055 0.08 0 0.06 0.08 0 0.065 0.08 0 0.07 0.08 0 0.075 0.08 0 0.08 0.08 0 0.085 0.08 0 0.09 0.08 0 0.095 0.08 0 0.1 0.08 0 0.105 0.08 0 0.11 0.08 0 0.115 0.08 0 0.12 0.08 0 0.125 0.08 0 0.13 0.08 0 0.135 0.08 0 0.14 0.08 0 0.145 0.08 0 0.15 0.08 0 0.155 0.08 0 0.16 0.08 0 0.165 0.08 0
[...]
			<PointData Scalars="VitesseX">
				<DataArray Name="VitesseX" type="Float32" format="ascii">
 0 3.34467e-15 -1.75207e-14 -3.78984e-14 1.4691e-14 -7.5454e-15 -3.62858e-14 1.50738e-14 1.55521e-14 2.66116e-14 -1.6523e-14 3.37643e-14 -8.99579e-14 1.11793e-13 -1.51872e-13 -1.99288e-14 1.84006e-14 -4.55563e-14 1.9026e-14 -8.85061e-14 3.66247e-14 -4.19324e-14 -8.79889e-14 -4.90533e-14 -1.52281e-13 -2.80608e-14 1.37414e-14 -1.77868e-13 -1.8152e-13 -1.31827e-13 -1.91081e-14 -2.56334e-13 -1.19188e-13 -1.94735e-13 -9.50303e-14 -9.63799e-14 -1.69554e-13 1.28893e-13 -2.43539e-15 1.5257e-13 -1.46948e-13 2.76677e-13 4.22059e-14 -1.73952e-13 5.30532e-14 -1.9565e-13 -4.07979e-13 5.33759e-14 -6.36962e-14 -1.71585e-13 -2.52785e-13 1.82283e-13 1.10088e-13 -5.21043e-13 -1.69177e-13 8.02863e-14 -2.27241e-13 -2.22487e-13 2.15993e-13 -2.51705e-14 5.2429e-14 2.75774e-12 2.41713e-11 1.949e-10 1.48217e-09 1.04645e-08 6.84076e-08 4.12098e-07 2.27615e-06 1.14585e-05 5.22046e-05 0.000213407 0.000774629 0.00246602 0.00679452 0.0160256 0.0322613 0.0560249 0.0859781 0.120126 0.156891 0.195331 0.234854 0.275055 0.315761 0.356903 0.398495 0.440559 0.482129 0.522366 0.562495 0.601627 0.640009 0.678177 0.714503 0.751057 0.786029 0.819329 0.851457 0.877173 0.899851 0.916612 0.924856 0.931128 0.933543 0.933459 0.933244 0.933008 0.932667 0.932155 0.931566 0.930906 0.930297 0.929835 0.929495 0.929236 0.92903 0.928871 0.928756 0.928674 0.928616 0.928558 0.928505 0.928465 0.928503 0.928506 0.928301 0.927543 0.926098 0.923285 0.917388 0.905451 0.882668 0.842083 0.775734 0.678208 0.551751 0.410266 0.273955 0.161341 0.0826052 0.0370453 0.0150558 0.00577741 0.00215234 0.000788889 0.000285929 0.000102631 3.64852e-05 1.28406e-05 4.47128e-06 1.53957e-06 5.23894e-07 1.76093e-07 5.8438e-08 1.91397e-08 6.18438e-09 1.9707e-09 6.18758e-10 1.91928e-10 5.82445e-11 1.78114e-11 5.2061e-12 5.61832e-13 2.22555e-13 -3.85122e-13 -6.9877e-13 4.89946e-13 -1.00282e-13 -1.13378e-12 2.6519e-14 -3.65583e-13 -2.68892e-13 2.24881e-13 -1.8212e-13 -8.75448e-14 7.22064e-14 -4.74315e-13 3.23516e-13 1.72859e-14 5.62144e-13 -1.0805e-12 -2.45444e-13 -1.0085e-13 3.44525e-13 -2.91661e-13 -3.92936e-13 3.51815e-14 3.24918e-13 -1.35801e-13 -2.49747e-13 4.55679e-13 3.32172e-13 4.64777e-13 -2.16535e-13 -3.7751e-13 8.62561e-13 2.24951e-13 -5.0452e-13 -5.37485e-13 0 0 -1.72845e-14 -1.82863e-14 1.02971e-14 -5.16601e-14 -2.69774e-14 1.13434e-14 -1.9627e-14 1.6411e-14 1.46246e-14 3.64894e-14 -4.53392e-14 8.96868e-14 -1.31422e-13 3.63616e-14 -2.58748e-14 -2.89044e-14 -1.95817e-14 -3.13372e-14 -9.95556e-17 -9.63531e-14 -2.63447e-14 1.32986e-14 -9.38937e-14 3.47067e-15 -1.0365e-13 -2.00255e-13 -6.20103e-14 -1.15095e-13 -8.60156e-14 -2.02396e-13 -1.14744e-13 -2.39916e-13 -1.40428e-13 -1.06871e-13 -1.28639e-13 3.41934e-14 -7.35621e-14 1.61205e-13 -1.15795e-13 1.54024e-13 -1.84434e-13 2.41251e-14 8.27659e-14 -1.34122e-13 -1.69161e-13 -6.63106e-14 -2.87757e-13 -1.54022e-13 -1.2844e-13 9.21102e-14 -1.8291e-13 -2.81225e-13 6.69358e-14 1.19595e-14 -2.57429e-13 -1.44925e-13 9.32456e-14 -3.41019e-13 1.21923e-13 3.53683e-13 2.73914e-12 2.38597e-11 1.95238e-10 1.48169e-09 1.04648e-08 6.84081e-08 4.12097e-07 2.27615e-06 1.14585e-05 5.22046e-05 0.000213407 0.000774629 0.00246602 0.00679452 0.0160256 0.0322613 0.0560249 0.0859781 0.120126 0.156891 0.195331 0.234854 0.275055 0.315761 0.356903 0.398495 0.440559 0.482129 0.522366 0.562495 0.601627 0.640009 0.678177 0.714503 0.751057 0.786029 0.819329 0.851457 0.877173 0.899851 0.916612 0.924856 0.931128 0.933543 0.933459 0.933244 0.933008 0.932667 0.932155 0.931566 0.930906 0.930297 0.929835 0.929495 0.929236 0.92903 0.928871 0.928756 0.928674 0.928616 0.928558 0.928505 0.928465 0.928503 0.928506 0.928301 0.927543 0.926098 0.923285 0.917388 0.905451 0.882668 0.842083 0.775734 0.678208 0.551751 0.410266 0.273955 0.161341 0.0826052 0.0370453 0.0150558 0.00577741 0.00215234 0.000788889 0.000285929 0.000102631 3.64852e-05 1.28406e-05 4.47128e-06 1.53957e-06 5.23894e-07 1.76093e-07 5.84385e-08 1.91395e-08 6.18439e-09 1.97097e-09 6.19426e-10 1.91381e-10 5.85629e-11 1.70944e-11 4.83756e-12 1.8137e-12 -8.8669e-14 -2.1318e-13 -2.16371e-13 -5.92489e-13 -4.63265e-13 1.79933e-13 -6.24705e-13 -2.38881e-13 -3.25096e-13 -3.7574e-13 2.3219e-13 2.26292e-13 -1.33695e-14 4.04561e-13 -3.68885e-13 6.76709e-14 -5.64446e-13 3.06809e-13 -2.38643e-13 -3.00577e-13 -2.5019e-14 1.12388e-13 -2.14645e-14 -5.61038e-13 -2.97717e-13 -7.70835e-14 5.52596e-13 1.18533e-13 -1.0616e-13 -2.81728e-13 2.42244e-13 7.0009e-13 -2.03661e-13 -2.17707e-13 4.85576e-13 4.31345e-13 0 0 -1.05322e-14 -1.17658e-14 -3.31172e-14 -1.17116e-14 -2.18346e-14 -2.97324e-14 -1.50205e-14 -1.73135e-14 8.31396e-15 -1.29109e-15 2.04099e-14 -2.07886e-15 7.31269e-14 -6.35923e-14 3.51505e-15 -3.06551e-14 -2.08951e-14 6.36607e-14 -9.5024e-14 -1.25113e-14 -2.66251e-14 -7.45807e-14 5.92633e-15 -1.69746e-13 -1.20063e-13 -4.80346e-14 -1.74016e-13 -8.07513e-14 -1.35659e-13 -3.63008e-14 -1.56399e-13 -1.79935e-13 -8.65457e-14 -1.54697e-13 -6.67946e-14 -4.25219e-14 8.97091e-14 -5.99084e-14 -6.98822e-15 -1.84318e-13 -1.90475e-14 -5.18035e-14 -9.33465e-14 2.23102e-14 -1.51247e-13 -2.24407e-13 -9.66178e-14 -1.19636e-13 -4.36535e-14 -9.74379e-14 -1.20774e-13 -2.23843e-13 1.61732e-13 -1.2083e-13 -7.11496e-14 -2.56071e-13 -1.8837e-13 7.98314e-14 2.93452e-14 3.45243e-13 2.82136e-12 2.40114e-11 1.94956e-10 1.48179e-09 1.04648e-08 6.84084e-08 4.12097e-07 2.27615e-06 1.14585e-05 5.22046e-05 0.000213407 0.000774629 0.00246602 0.00679452 0.0160256 0.0322613 0.0560249 0.0859781 0.120126 0.156891 0.195331 0.234854 0.275055 0.315761 0.356903 0.398495 0.440559 0.482129 0.522366 0.562495 0.601627 0.640009 0.678177 0.714503 0.751057 0.786029 0.819329 0.851457 0.877173 0.899851 0.916612 0.924856 0.931128 0.933543 0.933459 0.933244 0.933008 0.932667 0.932155 0.931566 0.930906 0.930297 0.929835 0.929495 0.929236 0.92903 0.928871 0.928756 0.928674 0.928616 0.928558 0.928505 0.928465 0.928503 0.928506 0.928301 0.927543 0.926098 0.923285 0.917388 0.905451 0.882668 0.842083 0.775734 0.678208 0.551751 0.410266 0.273955 0.161341 0.0826052 0.0370453 0.0150558 0.00577741 0.00215234 0.000788889 0.000285929 0.000102631 3.64852e-05 1.28406e-05 4.47128e-06 1.53957e-06 5.23894e-07 1.76093e-07 5.84383e-08 1.91399e-08 6.18465e-09 1.97109e-09 6.19303e-10 1.9163e-10 5.84621e-11 1.75383e-11 5.05044e-12 8.99085e-13 6.68184e-13 3.24003e-14 -4.66777e-13 -5.12363e-13 -5.07826e-13 -3.82454e-14 -3.59332e-13 -2.03533e-13 -5.73544e-13 -3.23774e-13 3.37775e-13 2.15773e-13 -5.33085e-15 1.34301e-13 -1.92261e-13 -1.89501e-13 -1.5429e-13 -2.58211e-13 2.14183e-13 2.90732e-13 -1.10123e-12 -7.40866e-14 -1.74723e-13 -1.78784e-16 -1.8889e-14 -3.18712e-13 6.32989e-14 -1.68494e-13 2.70144e-13 5.79034e-13 -6.15232e-13 7.50512e-14 1.09086e-13 2.89231e-13 1.22369e-13 -3.03763e-13 0 0 -1.29123e-14 -2.68037e-14 -2.26526e-14 -1.37182e-14 -2.41853e-14 -1.88218e-14 -2.59606e-14 -8.11597e-15 3.70824e-15 1.46893e-14 4.34461e-14 -5.43556e-14 3.15315e-14 -6.71177e-16 -2.58009e-14 7.30351e-15 -3.11187e-14 -2.48505e-14 2.73754e-15 3.0033e-14 -1.38217e-14 -8.1414e-14 -2.14818e-13 -7.99708e-14 -2.94725e-14 -5.67002e-14 -7.8179e-14 -1.71999e-13 -5.13291e-14 -7.83221e-14 -1.86414e-13 4.27057e-15 -4.20626e-15 -1.38876e-13 2.01619e-14 -1.0813e-13 6.09387e-14 -8.97904e-14 3.78635e-14 -1.85175e-13 -1.10846e-13 4.09878e-14 -1.72678e-13 -5.02648e-14 -1.92165e-13 -1.41933e-13 7.3488e-15 -1.20935e-13 -1.15983e-13 5.78122e-14 2.58295e-14 4.48961e-15 -2.31558e-14 -1.62943e-13 -9.70011e-14 -1.3935e-13 -3.07235e-13 1.37699e-13 1.81231e-14 3.4707e-13 2.84106e-12 2.40533e-11 1.95042e-10 1.48198e-09 1.04646e-08 6.84082e-08 4.12097e-07 2.27615e-06 1.14585e-05 5.22046e-05 0.000213407 0.000774629 0.00246602 0.00679452 0.0160256 0.0322613 0.0560249 0.0859781 0.120126 0.156891 0.195331 0.234854 0.275055 0.315761 0.356903 0.398495 0.440559 0.482129 0.522366 0.562495 0.601627 0.640009 0.678177 0.714503 0.751057 0.786029 0.819329 0.851457 0.877173 0.899851 0.916612 0.924856 0.931128 0.933543 0.933459 0.933244 0.933008 0.932667 0.932155 0.931566 0.930906 0.930297 0.929835 0.929495 0.929236 0.92903 0.928871 0.928756 0.928674 0.928616 0.928558 0.928505 0.928465 0.928503 0.928506 0.928301 0.927543 0.926098 0.923285 0.917388 0.905451 0.882668 0.842083 0.775734 0.678208 0.551751 0.410266 0.273955 0.161341 0.0826052 0.0370453 0.0150558 0.00577741 0.00215234 0.000788889 0.000285929 0.000102631 3.64852e-05 1.28406e-05 4.47128e-06 1.53957e-06 5.23894e-07 1.76093e-07 5.84381e-08 1.91399e-08 6.18475e-09 1.97095e-09 6.19288e-10 1.91886e-10 5.83613e-11 1.78813e-11 5.20536e-12 1.29588e-12 4.3395e-13 -3.49791e-13 -3.21839e-13 7.38949e-14 -7.90221e-13 -4.69656e-13 -2.71593e-14 -2.45357e-13 9.6362e-14 2.20929e-14 -4.50719e-13 1.82986e-13 -4.00198e-13 -4.28105e-13 2.47025e-13 -1.1637e-13 8.70637e-14 -4.58813e-13 -6.90789e-13 3.5859e-13 -2.44971e-13 -5.43743e-13 -2.53577e-13 -1.47552e-13 -2.50922e-13 8.20964e-14 3.32965e-13 -1.70938e-13 6.82968e-13 4.16984e-13 1.73279e-13 -3.58808e-13 7.06557e-13 -1.23189e-13 -7.20673e-13 3.01594e-13 0 0 -1.90334e-14 -1.77115e-14 8.1785e-15 -4.98121e-14 -3.04972e-14 1.32565e-14 -3.31722e-14 2.67198e-14 1.46126e-14 2.29807e-14 5.09115e-15 5.39049e-14 -1.53051e-13 9.61796e-14 -2.5281e-14 -2.3899e-15 1.46648e-14 -3.25432e-14 4.86234e-14 -1.07618e-13 -1.2981e-13 3.32982e-14 -2.56305e-13 9.41188e-14 -1.0661e-14 -1.898e-13 -1.59277e-14 -1.34915e-13 -2.83398e-14 -2.49337e-13 -6.05125e-14 -2.50619e-14 -5.99166e-14 -5.46636e-14 2.48333e-14 1.17473e-13 -1.84096e-13 1.434e-13 -1.58644e-13 1.10848e-13 -3.58418e-13 -5.5044e-14 -7.03478e-15 -2.73804e-13 -1.07545e-13 8.56511e-14 -1.90098e-13 -1.54393e-13 -8.95884e-14 2.85693e-13 -7.79371e-14 2.43263e-14 8.04563e-14 -5.35921e-14 -3.32336e-13 2.91566e-14 -1.09608e-13 -2.23505e-13 1.20425e-13 5.24379e-13 2.93993e-12 2.40769e-11 1.95253e-10 1.48177e-09 1.04647e-08 6.8408e-08 4.12097e-07 2.27615e-06 1.14585e-05 5.22046e-05 0.000213407 0.000774629 0.00246602 0.00679452 0.0160256 0.0322613 0.0560249 0.0859781 0.120126 0.156891 0.195331 0.234854 0.275055 0.315761 0.356903 0.398495 0.440559 0.482129 0.522366 0.562495 0.601627 0.640009 0.678177 0.714503 0.751057 0.786029 0.819329 0.851457 0.877173 0.899851 0.916612 0.924856 0.931128 0.933543 0.933459 0.933244 0.933008 0.932667 0.932155 0.931566 0.930906 0.930297 0.929835 0.929495 0.929236 0.92903 0.928871 0.928756 0.928674 0.928616 0.928558 0.928505 0.928465 0.928503 0.928506 0.928301 0.927543 0.926098 0.923285 0.917388 0.905451 0.882668 0.842083 0.775734 0.678208 0.551751 0.410266 0.273955 0.161341 0.0826052 0.0370453 0.0150558 0.00577741 0.00215234 0.000788889 0.000285929 0.000102631 3.64852e-05 1.28406e-05 4.47128e-06 1.53957e-06 5.23895e-07 1.76093e-07 5.84388e-08 1.91395e-08 6.18451e-09 1.97114e-09 6.19523e-10 1.91697e-10 5.86169e-11 1.72962e-11 4.91356e-12 2.19127e-12 -4.03943e-13 1.87975e-13 -2.38186e-13 -2.0638e-13 -5.55728e-13 -1.39129e-13 -3.75523e-13 -1.49336e-13 -1.15022e-13 -2.56225e-13 -9.97046e-14 1.72165e-13 2.19989e-13 -6.68914e-14 -2.35206e-13 -7.25063e-14 -7.58677e-13 2.35323e-13 -6.40093e-13 -2.94642e-13 3.78439e-14 -6.05167e-13 -2.78782e-14 -4.8654e-14 -5.56807e-13 -9.88752e-14 7.64099e-13 8.14218e-14 -1.01026e-13 -3.28577e-13 9.7526e-13 1.75897e-13 6.95302e-14 -3.10704e-13 2.29515e-13 9.35109e-13 0 0 4.60698e-15 1.37044e-14 -6.30648e-14 2.24003e-14 -9.88351e-15 -5.42808e-14 9.86383e-15 1.77746e-14 3.5799e-14 -7.55013e-14 8.85524e-14 -5.69682e-14 1.51725e-13 -1.58078e-13 3.98908e-14 -4.4875e-15 4.33839e-14 1.93637e-13 -1.86583e-13 -7.09941e-14 -2.7447e-13 -3.43232e-14 6.76135e-14 -1.50536e-13 -2.32625e-14 5.19827e-14 -2.77376e-13 -3.86651e-14 -1.85135e-13 -2.8948e-14 -8.78416e-14 -5.7892e-14 -1.98391e-13 -2.22573e-14 3.66512e-14 1.28221e-13 -3.46353e-14 2.17195e-14 -2.28324e-14 -2.31586e-13 1.12306e-13 -3.01715e-13 -1.9489e-13 -8.11612e-14 9.41798e-15 -2.69003e-13 4.07601e-14 -6.18402e-14 5.07773e-14 -1.7612e-13 9.90221e-14 2.64525e-13 -1.24226e-13 -2.16055e-13 -1.78246e-14 -1.1252e-13 -3.90463e-13 3.35287e-13 -5.72331e-15 3.90167e-13 3.11994e-12 2.45218e-11 1.94757e-10 1.48194e-09 1.04647e-08 6.84077e-08 4.12097e-07 2.27615e-06 1.14585e-05 5.22046e-05 0.000213407 0.000774629 0.00246602 0.00679452 0.0160256 0.0322613 0.0560249 0.0859781 0.120126 0.156891 0.195331 0.234854 0.275055 0.315761 0.356903 0.398495 0.440559 0.482129 0.522366 0.562495 0.601627 0.640009 0.678177 0.714503 0.751057 0.786029 0.819329 0.851457 0.877173 0.899851 0.916612 0.924856 0.931128 0.933543 0.933459 0.933244 0.933008 0.932667 0.932155 0.931566 0.930906 0.930297 0.929835 0.929495 0.929236 0.92903 0.928871 0.928756 0.928674 0.928616 0.928558 0.928505 0.928465 0.928503 0.928506 0.928301 0.927543 0.926098 0.923285 0.917388 0.905451 0.882668 0.842083 0.775734 0.678208 0.551751 0.410266 0.273955 0.161341 0.0826052 0.0370453 0.0150558 0.00577741 0.00215234 0.000788889 0.000285929 0.000102631 3.64852e-05 1.28406e-05 4.47128e-06 1.53957e-06 5.23894e-07 1.76093e-07 5.84389e-08 1.91397e-08 6.18441e-09 1.97132e-09 6.18983e-10 1.92048e-10 5.85541e-11 1.75291e-11 5.04826e-12 5.23384e-13 6.04739e-14 1.18157e-12 -1.03228e-12 8.96487e-14 2.79581e-13 -9.09085e-13 -1.39462e-13 -1.02846e-13 -1.18856e-12 -2.27825e-13 7.31079e-13 -1.30226e-13 1.32866e-12 -2.9241e-13 -2.877e-13 -4.09331e-13 -3.09025e-13 -8.22267e-13 7.61603e-13 -2.24697e-13 -1.24226e-12 -7.8746e-13 -2.48055e-13 1.3547e-12 2.70804e-13 -9.81002e-13 -3.66072e-13 3.86344e-13 -4.83207e-13 6.95182e-13 -3.27526e-13 -5.58177e-13 2.14002e-13 8.63797e-13 6.69442e-13 -7.40672e-13 0
				</DataArray>
				<DataArray Name="VitesseY" type="Float32" format="ascii">