<?xml version="1.0"?>
<VTKFile type="PolyData">
	<PolyData>
		<Piece NumberOfPoints="1206" NumberOfPolys="1000">
			<Points>
				<DataArray type="Float32" NumberOfComponents="3" format="ascii">
 0 0 0 0.005 0 0 0.01 0 0 0.015 0 0 0.02 0 0 0.025 0 0 0.03 0 0 0.035 0 0 0.04 0 0 0.045 0 0 0.05 0 0 0.055 0 0 0.06 0 0 0.065 0 0 0.07 0 0 0.075 0 0 0.08 0 0 0.085 0 0 0.09 0 0 0.095 0 0 0.1 0 0 0.105 0 0 0.11 0 0 0.115 0 0 0.12 0 0 0.125 0 0 0.13 0 0 0.135 0 0 0.14 0 0 0.145 0 0 0.15 0 0 0.155 0 0 0.16 0 0 0.165 0 0 0.17 0 0 0.175 0 0 0.18 0 0 0.185 0 0 0.19 0 0 0.195 0 0 0.2 0 0 0.205 0 0 0.21 0 0 0.215 0 0 0.22 0 0 0.225 0 0 0.23 0 0 0.235 0 0 0.24 0 0 0.245 0 0 0.25 0 0 0.255 0 0 0.26 0 0 0.265 0 0 0.27 0 0 0.275 0 0 0.28 0 0 0.285 0 0 0.29 0 0 0.295 0 0 0.3 0 0 0.305 0 0 0.31 0 0 0.315 0 0 0.32 0 0 0.325 0 0 0.33 0 0 0.335 0 0 0.34 0 0 0.345 0 0 0.35 0 0 0.355 0 0 0.36 0 0 0.365 0 0 0.37 0 0 0.375 0 0 0.38 0 0 0.385 0 0 0.39 0 0 0.395 0 0 0.4 0 0 0.405 0 0 0.41 0 0 0.415 0 0 0.42 0 0 0.425 0 0 0.43 0 0 0.435 0 0 0.44 0 0 0.445 0 0 0.45 0 0 0.455 0 0 0.46 0 0 0.465 0 0 0.47 0 0 0.475 0 0 0.48 0 0 0.485 0 0 0.49 0 0 0.495 0 0 0.5 0 0 0.505 0 0 0.51 0 0 0.515 0 0 0.52 0 0 0.525 0 0 0.53 0 0 0.535 0 0 0.54 0 0 0.545 0 0 0.55 0 0 0.555 0 0 0.56 0 0 0.565 0 0 0.57 0 0 0.575 0 0 0.58 0 0 0.585 0 0 0.59 0 0 0.595 0 0 0.6 0 0 0.605 0 0 0.61 0 0 0.615 0 0 0.62 0 0 0.625 0 0 0.63 0 0 0.635 0 0 0.64 0 0 0.645 0 0 0.65 0 0 0.655 0 0 0.66 0 0 0.665 0 0 0.67 0 0 0.675 0 0 0.68 0 0 0.685 0 0 0.69 0 0 0.695 0 0 0.7 0 0 0.705 0 0 0.71 0 0 0.715 0 0 0.72 0 0 0.725 0 0 0.73 0 0 0.735 0 0 0.74 0 0 0.745 0 0 0.75 0 0 0.755 0 0 0.76 0 0 0.765 0 0 0.77 0 0 0.775 0 0 0.78 0 0 0.785 0 0 0.79 0 0 0.795 0 0 0.8 0 0 0.805 0 0 0.81 0 0 0.815 0 0 0.82 0 0 0.825 0 0 0.83 0 0 0.835 0 0 0.84 0 0 0.845 0 0 0.85 0 0 0.855 0 0 0.86 0 0 0.865 0 0 0.87 0 0 0.875 0 0 0.88 0 0 0.885 0 0 0.89 0 0 0.895 0 0 0.9 0 0 0.905 0 0 0.91 0 0 0.915 0 0 0.92 0 0 0.925 0 0 0.93 0 0 0.935 0 0 0.94 0 0 0.945 0 0 0.95 0 0 0.955 0 0 0.96 0 0 0.965 0 0 0.97 0 0 0.975 0 0 0.98 0 0 0.985 0 0 0.99 0 0 0.995 0 0 1 0 0 0 0.02 0 0.005 0.02 0 0.01 0.02 0 0.015 0.02 0 0.02 0.02 0 0.025 0.02 0 0.03 0.02 0 0.035 0.02 0 0.04 0.02 0 0.045 0.02 0 0.05 0.02 0 0.055 0.02 0 0.06 0.02 0 0.065 0.02 0 0.07 0.02 0 0.075 0.02 0 0.08 0.02 0 0.085 0.02 0 0.09 0.02 0 0.095 0.02 0 0.1 0.02 0 0.105 0.02 0 0.11 0.02 0 0.115 0.02 0 0.12 0.02 0 0.125 0.02 0 0.13 0.02 0 0.135 0.02 0 0.14 0.02 0 0.145 0.02 0 0.15 0.02 0 0.155 0.02 0 0.16 0.02 0 0.165 0.02 0 0.17 0.02 0 0.175 0.02 0 0.18 0.02 0 0.185 0.02 0 0.19 0.02 0 0.195 0.02 0 0.2 0.02 0 0.205 0.02 0 0.21 0.02 0 0.215 0.02 0 0.22 0.02 0 0.225 0.02 0 0.23 0.02 0 0.235 0.02 0 0.24 0.02 0 0.245 0.02 0 0.25 0.02 0 0.255 0.02 0 0.26 0.02 0 0.265 0.02 0 0.27 0.02 0 0.275 0.02 0 0.28 0.02 0 0.285 0.02 0 0.29 0.02 0 0.295 0.02 0 0.3 0.02 0 0.305 0.02 0 0.31 0.02 0 0.315 0.02 0 0.32 0.02 0 0.325 0.02 0 0.33 0.02 0 0.335 0.02 0 0.34 0.02 0 0.345 0.02 0 0.35 0.02 0 0.355 0.02 0 0.36 0.02 0 0.365 0.02 0 0.37 0.02 0 0.375 0.02 0 0.38 0.02 0 0.385 0.02 0 0.39 0.02 0 0.395 0.02 0 0.4 0.02 0 0.405 0.02 0 0.41 0.02 0 0.415 0.02 0 0.42 0.02 0 0.425 0.02 0 0.43 0.02 0 0.435 0.02 0 0.44 0.02 0 0.445 0.02 0 0.45 0.02 0 0.455 0.02 0 0.46 0.02 0 0.465 0.02 0 0.47 0.02 0 0.475 0.02 0 0.48 0.02 0 0.485 0.02 0 0.49 0.02 0 0.495 0.02 0 0.5 0.02 0 0.505 0.02 0 0.51 0.02 0 0.515 0.02 0 0.52 0.02 0 0.525 0.02 0 0.53 0.02 0 0.535 0.02 0 0.54 0.02 0 0.545 0.02 0 0.55 0.02 0 0.555 0.02 0 0.56 0.02 0 0.565 0.02 0 0.57 0.02 0 0.575 0.02 0 0.58 0.02 0 0.585 0.02 0 0.59 0.02 0 0.595 0.02 0 0.6 0.02 0 0.605 0.02 0 0.61 0.02 0 0.615 0.02 0 0.62 0.02 0 0.625 0.02 0 0.63 0.02 0 0.635 0.02 0 0.64 0.02 0 0.645 0.02 0 0.65 0.02 0 0.655 0.02 0 0.66 0.02 0 0.665 0.02 0 0.67 0.02 0 0.675 0.02 0 0.68 0.02 0 0.685 0.02 0 0.69 0.02 0 0.695 0.02 0 0.7 0.02 0 0.705 0.02 0 0.71 0.02 0 0.715 0.02 0 0.72 0.02 0 0.725 0.02 0 0.73 0.02 0 0.735 0.02 0 0.74 0.02 0 0.745 0.02 0 0.75 0.02 0 0.755 0.02 0 0.76 0.02 0 0.765 0.02 0 0.77 0.02 0 0.775 0.02 0 0.78 0.02 0 0.785 0.02 0 0.79 0.02 0 0.795 0.02 0 0.8 0.02 0 0.805 0.02 0 0.81 0.02 0 0.815 0.02 0 0.82 0.02 0 0.825 0.02 0 0.83 0.02 0 0.835 0.02 0 0.84 0.02 0 0.845 0.02 0 0.85 0.02 0 0.855 0.02 0 0.86 0.02 0 0.865 0.02 0 0.87 0.02 0 0.875 0.02 0 0.88 0.02 0 0.885 0.02 0 0.89 0.02 0 0.895 0.02 0 0.9 0.02 0 0.905 0.02 0 0.91 0.02 0 0.915 0.02 0 0.92 0.02 0 0.925 0.02 0 0.93 0.02 0 0.935 0.02 0 0.94 0.02 0 0.945 0.02 0 0.95 0.02 0 0.955 0.02 0 0.96 0.02 0 0.965 0.02 0 0.97 0.02 0 0.975 0.02 0 0.98 0.02 0 0.985 0.02 0 0.99 0.02 0 0.995 0.02 0 1 0.02 0 0 0.04 0 0.005 0.04 0 0.01 0.04 0 0.015 0.04 0 0.02 0.04 0 0.025 0.04 0 0.03 0.04 0 0.035 0.04 0 0.04 0.04 0 0.045 0.04 0 0.05 0.04 0 0.055 0.04 0 0.06 0.04 0 0.065 0.04 0 0.07 0.04 0 0.075 0.04 0 0.08 0.04 0 0.085 0.04 0 0.09 0.04 0 0.095 0.04 0 0.1 0.04 0 0.105 0.04 0 0.11 0.04 0 0.115 0.04 0 0.12 0.04 0 0.125 0.04 0 0.13 0.04 0 0.135 0.04 0 0.14 0.04 0 0.145 0.04 0 0.15 0.04 0 0.155 0.04 0 0.16 0.04 0 0.165 0.04 0 0.17 0.04 0 0.175 0.04 0 0.18 0.04 0 0.185 0.04 0 0.19 0.04 0 0.195 0.04 0 0.2 0.04 0 0.205 0.04 0 0.21 0.04 0 0.215 0.04 0 0.22 0.04 0 0.225 0.04 0 0.23 0.04 0 0.235 0.04 0 0.24 0.04 0 0.245 0.04 0 0.25 0.04 0 0.255 0.04 0 0.26 0.04 0 0.265 0.04 0 0.27 0.04 0 0.275 0.04 0 0.28 0.04 0 0.285 0.04 0 0.29 0.04 0 0.295 0.04 0 0.3 0.04 0 0.305 0.04 0 0.31 0.04 0 0.315 0.04 0 0.32 0.04 0 0.325 0.04 0 0.33 0.04 0 0.335 0.04 0 0.34 0.04 0 0.345 0.04 0 0.35 0.04 0 0.355 0.04 0 0.36 0.04 0 0.365 0.04 0 0.37 0.04 0 0.375 0.04 0 0.38 0.04 0 0.385 0.04 0 0.39 0.04 0 0.395 0.04 0 0.4 0.04 0 0.405 0.04 0 0.41 0.04 0 0.415 0.04 0 0.42 0.04 0 0.425 0.04 0 0.43 0.04 0 0.435 0.04 0 0.44 0.04 0 0.445 0.04 0 0.45 0.04 0 0.455 0.04 0 0.46 0.04 0 0.465 0.04 0 0.47 0.04 0 0.475 0.04 0 0.48 0.04 0 0.485 0.04 0 0.49 0.04 0 0.495 0.04 0 0.5 0.04 0 0.505 0.04 0 0.51 0.04 0 0.515 0.04 0 0.52 0.04 0 0.525 0.04 0 0.53 0.04 0 0.535 0.04 0 0.54 0.04 0 0.545 0.04 0 0.55 0.04 0 0.555 0.04 0 0.56 0.04 0 0.565 0.04 0 0.57 0.04 0 0.575 0.04 0 0.58 0.04 0 0.585 0.04 0 0.59 0.04 0 0.595 0.04 0 0.6 0.04 0 0.605 0.04 0 0.61 0.04 0 0.615 0.04 0 0.62 0.04 0 0.625 0.04 0 0.63 0.04 0 0.635 0.04 0 0.64 0.04 0 0.645 0.04 0 0.65 0.04 0 0.655 0.04 0 0.66 0.04 0 0.665 0.04 0 0.67 0.04 0 0.675 0.04 0 0.68 0.04 0 0.685 0.04 0 0.69 0.04 0 0.695 0.04 0 0.7 0.04 0 0.705 0.04 0 0.71 0.04 0 0.715 0.04 0 0.72 0.04 0 0.725 0.04 0 0.73 0.04 0 0.735 0.04 0 0.74 0.04 0 0.745 0.04 0 0.75 0.04 0 0.755 0.04 0 0.76 0.04 0 0.765 0.04 0 0.77 0.04 0 0.775 0.04 0 0.78 0.04 0 0.785 0.04 0 0.79 0.04 0 0.795 0.04 0 0.8 0.04 0 0.805 0.04 0 0.81 0.04 0 0.815 0.04 0 0.82 0.04 0 0.825 0.04 0 0.83 0.04 0 0.835 0.04 0 0.84 0.04 0 0.845 0.04 0 0.85 0.04 0 0.855 0.04 0 0.86 0.04 0 0.865 0.04 0 0.87 0.04 0 0.875 0.04 0 0.88 0.04 0 0.885 0.04 0 0.89 0.04 0 0.895 0.04 0 0.9 0.04 0 0.905 0.04 0 0.91 0.04 0 0.915 0.04 0 0.92 0.04 0 0.925 0.04 0 0.93 0.04 0 0.935 0.04 0 0.94 0.04 0 0.945 0.04 0 0.95 0.04 0 0.955 0.04 0 0.96 0.04 0 0.965 0.04 0 0.97 0.04 0 0.975 0.04 0 0.98 0.04 0 0.985 0.04 0 0.99 0.04 0 0.995 0.04 0 1 0.04 0 0 0.06 0 0.005 0.06 0 0.01 0.06 0 0.015 0.06 0 0.02 0.06 0 0.025 0.06 0 0.03 0.06 0 0.035 0.06 0 0.04 0.06 0 0.045 0.06 0 0.05 0.06 0 0.055 0.06 0 0.06 0.06 0 0.065 0.06 0 0.07 0.06 0 0.075 0.06 0 0.08 0.06 0 0.085 0.06 0 0.09 0.06 0 0.095 0.06 0 0.1 0.06 0 0.105 0.06 0 0.11 0.06 0 0.115 0.06 0 0.12 0.06 0 0.125 0.06 0 0.13 0.06 0 0.135 0.06 0 0.14 0.06 0 0.145 0.06 0 0.15 0.06 0 0.155 0.06 0 0.16 0.06 0 0.165 0.06 0 0.17 0.06 0 0.175 0.06 0 0.18 0.06 0 0.185 0.06 0 0.19 0.06 0 0.195 0.06 0 0.2 0.06 0 0.205 0.06 0 0.21 0.06 0 0.215 0.06 0 0.22 0.06 0 0.225 0.06 0 0.23 0.06 0 0.235 0.06 0 0.24 0.06 0 0.245 0.06 0 0.25 0.06 0 0.255 0.06 0 0.26 0.06 0 0.265 0.06 0 0.27 0.06 0 0.275 0.06 0 0.28 0.06 0 0.285 0.06 0 0.29 0.06 0 0.295 0.06 0 0.3 0.06 0 0.305 0.06 0 0.31 0.06 0 0.315 0.06 0 0.32 0.06 0 0.325 0.06 0 0.33 0.06 0 0.335 0.06 0 0.34 0.06 0 0.345 0.06 0 0.35 0.06 0 0.355 0.06 0 0.36 0.06 0 0.365 0.06 0 0.37 0.06 0 0.375 0.06 0 0.38 0.06 0 0.385 0.06 0 0.39 0.06 0 0.395 0.06 0 0.4 0.06 0 0.405 0.06 0 0.41 0.06 0 0.415 0.06 0 0.42 0.06 0 0.425 0.06 0 0.43 0.06 0 0.435 0.06 0 0.44 0.06 0 0.445 0.06 0 0.45 0.06 0 0.455 0.06 0 0.46 0.06 0 0.465 0.06 0 0.47 0.06 0 0.475 0.06 0 0.48 0.06 0 0.485 0.06 0 0.49 0.06 0 0.495 0.06 0 0.5 0.06 0 0.505 0.06 0 0.51 0.06 0 0.515 0.06 0 0.52 0.06 0 0.525 0.06 0 0.53 0.06 0 0.535 0.06 0 0.54 0.06 0 0.545 0.06 0 0.55 0.06 0 0.555 0.06 0 0.56 0.06 0 0.565 0.06 0 0.57 0.06 0 0.575 0.06 0 0.58 0.06 0 0.585 0.06 0 0.59 0.06 0 0.595 0.06 0 0.6 0.06 0 0.605 0.06 0 0.61 0.06 0 0.615 0.06 0 0.62 0.06 0 0.625 0.06 0 0.63 0.06 0 0.635 0.06 0 0.64 0.06 0 0.645 0.06 0 0.65 0.06 0 0.655 0.06 0 0.66 0.06 0 0.665 0.06 0 0.67 0.06 0 0.675 0.06 0 0.68 0.06 0 0.685 0.06 0 0.69 0.06 0 0.695 0.06 0 0.7 0.06 0 0.705 0.06 0 0.71 0.06 0 0.715 0.06 0 0.72 0.06 0 0.725 0.06 0 0.73 0.06 0 0.735 0.06 0 0.74 0.06 0 0.745 0.06 0 0.75 0.06 0 0.755 0.06 0 0.76 0.06 0 0.765 0.06 0 0.77 0.06 0 0.775 0.06 0 0.78 0.06 0 0.785 0.06 0 0.79 0.06 0 0.795 0.06 0 0.8 0.06 0 0.805 0.06 0 0.81 0.06 0 0.815 0.06 0 0.82 0.06 0 0.825 0.06 0 0.83 0.06 0 0.835 0.06 0 0.84 0.06 0 0.845 0.06 0 0.85 0.06 0 0.855 0.06 0 0.86 0.06 0 0.865 0.06 0 0.87 0.06 0 0.875 0.06 0 0.88 0.06 0 0.885 0.06 0 0.89 0.06 0 0.895 0.06 0 0.9 0.06 0 0.905 0.06 0 0.91 0.06 0 0.915 0.06 0 0.92 0.06 0 0.925 0.06 0 0.93 0.06 0 0.935 0.06 0 0.94 0.06 0 0.945 0.06 0 0.95 0.06 0 0.955 0.06 0 0.96 0.06 0 0.965 0.06 0 0.97 0.06 0 0.975 0.06 0 0.98 0.06 0 0.985 0.06 0 0.99 0.06 0 0.995 0.06 0 1 0.06 0 0 0.08 0 0.005 0.08 0 0.01 0.08 0 0.015 0.08 0 0.02 0.08 0 0.025 0.08 0 0.03 0.08 0 0.035 0.08 0 0.04 0.08 0 0.045 0.08 0 0.05 0.08 0 0.055 0.08 0 0.06 0.08 0 0.065 0.08 0 0.07 0.08 0 0.075 0.08 0 0.08 0.08 0 0.085 0.08 0 0.09 0.08 0 0.095 0.08 0 0.1 0.08 0 0.105 0.08 0 0.11 0.08 0 0.115 0.08 0 0.12 0.08 0 0.125 0.08 0 0.13 0.08 0 0.135 0.08 0 0.14 0.08 0 0.145 0.08 0 0.15 0.08 0 0.155 0.08 0 0.16 0.08 0 0.165 0.08 0
[...]
			<PointData Scalars="VitesseX">
				<DataArray Name="VitesseX" type="Float32" format="ascii">
 0 -2.72406e-14 9.16201e-15 -3.6294e-14 4.65452e-14 -2.74507e-16 -9.39233e-16 -3.37976e-14 -2.65503e-14 1.22771e-14 -3.04514e-14 8.00529e-14 -7.14605e-14 4.5293e-14 -9.46514e-14 -9.04542e-15 -8.47948e-14 -1.1129e-13 -3.73954e-14 -1.29109e-13 -7.26239e-14 -1.49389e-14 -1.297e-13 -6.34996e-14 2.17066e-14 -7.21745e-14 -1.82165e-13 -7.76681e-14 -1.83454e-13 -4.61213e-14 -8.74951e-15 -1.89716e-13 -1.3067e-13 -1.79338e-13 -1.90103e-14 -3.04892e-13 -1.74661e-13 -1.51235e-13 -1.47606e-13 1.54886e-13 -7.77263e-14 1.31027e-13 1.34975e-13 -1.07862e-13 -7.00751e-14 -9.37914e-14 -2.84699e-13 1.53519e-13 -1.53527e-13 4.24823e-14 -1.96088e-13 -2.64767e-13 -9.03357e-14 -6.04538e-14 1.98068e-13 -4.01433e-13 -2.46963e-13 7.20905e-14 -2.61715e-13 1.11723e-13 -2.07426e-13 -1.19128e-13 -1.02689e-14 2.15266e-13 3.49927e-12 3.33464e-11 2.85732e-10 2.299e-09 1.70728e-08 1.16687e-07 7.30045e-07 4.15659e-06 2.13876e-05 9.86206e-05 0.000403352 0.00144499 0.00446906 0.0117642 0.0261304 0.0491879 0.0801465 0.11673 0.156845 0.199178 0.242954 0.287619 0.332946 0.378875 0.425455 0.47222 0.516719 0.56157 0.604303 0.647125 0.688275 0.728214 0.768011 0.80441 0.840381 0.871063 0.894406 0.914761 0.925248 0.930023 0.93374 0.934112 0.93376 0.93321 0.93266 0.932152 0.931525 0.930844 0.930244 0.929787 0.929474 0.929265 0.929107 0.928975 0.928872 0.928798 0.92875 0.928801 0.928828 0.928593 0.927532 0.925341 0.921302 0.912999 0.896345 0.865213 0.811686 0.728389 0.613163 0.475025 0.332396 0.20657 0.111878 0.0526037 0.0219902 0.00852118 0.00316905 0.00115249 0.000413002 0.0001462 5.11444e-05 1.76752e-05 6.03119e-06 2.03076e-06 6.74364e-07 2.20749e-07 7.12017e-08 2.26207e-08 7.07658e-09 2.17905e-09 6.60217e-10 1.96979e-10 5.772e-11 1.59565e-11 4.44234e-12 5.41694e-13 5.10141e-13 8.56422e-13 -4.82828e-13 -4.08164e-13 -8.01888e-14 -4.94186e-13 -2.92219e-13 2.10891e-13 -3.99199e-13 -2.36885e-13 -2.86759e-13 -2.40507e-13 -1.01573e-13 -7.06753e-13 3.8964e-13 -4.42038e-13 -2.17847e-13 5.14652e-13 -1.34548e-13 3.17281e-13 -2.37421e-13 -4.44787e-13 1.29056e-13 7.16363e-14 1.51545e-13 -8.45834e-13 2.80012e-13 -2.34511e-13 -2.68102e-13 8.61143e-13 -1.04208e-12 -1.18927e-13 7.65356e-13 1.26109e-13 -5.84007e-13 -3.87773e-13 8.61333e-13 9.92383e-13 -8.46974e-13 -5.83402e-13 0 0 1.95527e-14 -1.0439e-14 3.81152e-14 -2.65116e-14 -2.33471e-14 -3.20802e-14 3.48416e-15 -1.59511e-14 -1.77208e-14 3.13945e-14 -5.07869e-14 7.1235e-14 -1.01821e-13 -3.80754e-16 -6.27974e-14 -7.90589e-15 -8.99486e-14 -1.10986e-13 -3.95849e-14 -3.10977e-14 -1.29157e-13 -8.88315e-15 -8.72293e-14 -1.19585e-13 -8.63666e-14 -2.8864e-14 -1.482e-13 -1.04532e-13 -8.46576e-14 -7.27648e-14 -6.65813e-14 -1.86706e-13 -1.20442e-13 -2.88735e-13 -1.13769e-13 -1.31466e-13 -3.01296e-14 -3.76739e-14 -1.91342e-13 1.29062e-13 -1.27118e-13 -7.0683e-14 4.16463e-14 5.82335e-14 -1.02939e-13 4.57464e-14 -4.38787e-13 -1.76139e-13 -3.05714e-13 9.30156e-14 -3.62655e-14 -6.47353e-14 -6.87236e-14 -2.59433e-13 1.52818e-13 -2.64441e-14 -3.01888e-13 -8.21194e-14 -1.69576e-13 -9.87142e-14 8.13363e-16 -1.10506e-13 5.47266e-13 3.47883e-12 3.30153e-11 2.86429e-10 2.29809e-09 1.70732e-08 1.16687e-07 7.30045e-07 4.15659e-06 2.13876e-05 9.86206e-05 0.000403352 0.00144499 0.00446906 0.0117642 0.0261304 0.0491879 0.0801465 0.11673 0.156845 0.199178 0.242954 0.287619 0.332946 0.378875 0.425455 0.47222 0.516719 0.56157 0.604303 0.647125 0.688275 0.728214 0.768011 0.80441 0.840381 0.871063 0.894406 0.914761 0.925248 0.930023 0.93374 0.934112 0.93376 0.93321 0.93266 0.932152 0.931525 0.930844 0.930244 0.929787 0.929474 0.929265 0.929107 0.928975 0.928872 0.928798 0.92875 0.928801 0.928828 0.928593 0.927532 0.925341 0.921302 0.912999 0.896345 0.865213 0.811686 0.728389 0.613163 0.475025 0.332396 0.20657 0.111878 0.0526037 0.0219902 0.00852118 0.00316905 0.00115249 0.000413002 0.0001462 5.11444e-05 1.76752e-05 6.03119e-06 2.03076e-06 6.74364e-07 2.20749e-07 7.1201e-08 2.26208e-08 7.07656e-09 2.17926e-09 6.60504e-10 1.96634e-10 5.71661e-11 1.66878e-11 4.2144e-12 1.53287e-12 1.61636e-13 -6.5846e-13 3.25846e-13 1.40496e-13 -3.43531e-13 -2.58634e-13 -1.05161e-13 -7.02639e-13 1.60125e-13 -4.44591e-13 -3.07069e-13 -2.5532e-13 -4.48273e-13 -1.52132e-13 -4.74658e-13 5.11692e-13 -1.03556e-13 -3.30739e-14 3.19945e-14 -2.12664e-13 1.14568e-13 2.83328e-13 -2.29119e-13 -2.38459e-13 -4.42476e-13 6.46353e-13 -2.99661e-13 -4.34572e-13 -1.08812e-13 -6.73388e-13 6.94406e-13 1.24244e-13 -5.69905e-13 1.69922e-13 1.84957e-13 7.57121e-13 -3.34311e-13 -7.28136e-13 1.2058e-12 3.84353e-13 0 0 9.06524e-15 1.0727e-14 -1.50919e-14 -1.19046e-14 -3.52523e-14 -1.50655e-14 -6.99861e-14 5.94064e-15 5.23473e-15 -1.62089e-14 -9.94697e-15 -3.06721e-14 3.11006e-14 -2.79739e-14 -4.82743e-14 -1.0889e-13 1.40299e-14 2.67821e-14 -5.4426e-14 -7.1997e-14 -7.69465e-15 -1.41339e-13 -1.09767e-13 -6.00459e-14 -3.19306e-14 -1.11619e-13 -1.92532e-13 -7.12814e-14 7.63275e-15 -8.72643e-14 -1.42885e-13 -1.40944e-13 -1.89095e-13 -7.94452e-14 -1.09471e-13 -8.35741e-14 -1.69875e-13 -5.29781e-14 4.73471e-14 -1.33321e-13 -5.89738e-14 1.20336e-14 -1.86214e-14 -1.53458e-13 -1.82566e-13 -2.61853e-13 -1.77607e-13 -4.88552e-14 -8.34876e-14 -7.95144e-14 -8.4391e-14 -1.14374e-13 3.04105e-14 -1.70646e-14 -6.32686e-14 -1.94127e-13 -1.27717e-13 -6.97542e-14 -1.46572e-13 -1.11329e-13 -1.10454e-13 2.28323e-13 4.7585e-13 3.72211e-12 3.28747e-11 2.86128e-10 2.29854e-09 1.70731e-08 1.16687e-07 7.30045e-07 4.15659e-06 2.13876e-05 9.86206e-05 0.000403352 0.00144499 0.00446906 0.0117642 0.0261304 0.0491879 0.0801465 0.11673 0.156845 0.199178 0.242954 0.287619 0.332946 0.378875 0.425455 0.47222 0.516719 0.56157 0.604303 0.647125 0.688275 0.728214 0.768011 0.80441 0.840381 0.871063 0.894406 0.914761 0.925248 0.930023 0.93374 0.934112 0.93376 0.93321 0.93266 0.932152 0.931525 0.930844 0.930244 0.929787 0.929474 0.929265 0.929107 0.928975 0.928872 0.928798 0.92875 0.928801 0.928828 0.928593 0.927532 0.925341 0.921302 0.912999 0.896345 0.865213 0.811686 0.728389 0.613163 0.475025 0.332396 0.20657 0.111878 0.0526037 0.0219902 0.00852118 0.00316905 0.00115249 0.000413002 0.0001462 5.11444e-05 1.76752e-05 6.03119e-06 2.03076e-06 6.74364e-07 2.20749e-07 7.12013e-08 2.26209e-08 7.07671e-09 2.17943e-09 6.60399e-10 1.96691e-10 5.77006e-11 1.62486e-11 4.46641e-12 1.04179e-12 3.33889e-13 -2.28906e-13 -1.61223e-13 -1.66134e-13 8.85257e-14 -1.16541e-13 -4.91716e-13 -4.31832e-13 -3.79372e-13 -2.49886e-13 -2.61572e-13 -4.13302e-13 -4.91165e-13 8.6775e-14 -4.13318e-13 2.48511e-13 3.44552e-14 7.09369e-14 2.22552e-13 -6.03746e-13 2.37623e-13 1.7785e-13 1.04582e-13 -2.76088e-13 -5.15476e-14 3.5124e-14 -2.3866e-13 -2.28816e-13 -2.4911e-13 -1.95456e-13 -2.46659e-13 -4.48833e-14 3.89171e-13 -1.27427e-13 5.22145e-13 -2.4806e-13 2.75618e-13 2.42268e-13 -4.62789e-13 -2.76383e-13 0 0 -3.24374e-14 -3.10033e-14 -5.22651e-14 -2.5508e-14 -4.06803e-14 -1.61698e-14 -5.07463e-14 -1.1267e-14 4.94778e-14 -6.63994e-15 2.40116e-15 -1.88409e-14 3.42105e-14 -7.44675e-14 -1.56909e-14 -4.98311e-14 -2.48097e-15 8.8861e-15 -4.52109e-14 -3.39592e-14 -3.05242e-16 -5.65322e-14 -6.00196e-14 -6.95099e-14 -1.20937e-13 -1.84364e-13 -1.06118e-13 -6.46171e-14 -1.77669e-13 -8.74651e-14 -6.75021e-14 -5.9318e-14 -8.11635e-14 -5.98644e-14 -1.28966e-13 -1.3385e-13 -5.03615e-14 -7.87056e-14 2.37738e-14 -1.39939e-13 3.09658e-14 7.25656e-14 -8.55478e-14 -2.01513e-13 -1.15761e-13 -2.66175e-13 9.88907e-14 -7.56227e-14 -1.61432e-13 -1.84701e-13 3.79776e-14 -2.33145e-13 3.56952e-14 1.50934e-13 -1.51458e-13 -3.61248e-13 -5.47774e-14 -1.20418e-13 1.27264e-13 -1.2078e-13 -6.4402e-14 -5.08341e-14 5.21495e-13 3.68714e-12 3.34046e-11 2.85899e-10 2.29868e-09 1.70731e-08 1.16688e-07 7.30045e-07 4.15659e-06 2.13876e-05 9.86206e-05 0.000403352 0.00144499 0.00446906 0.0117642 0.0261304 0.0491879 0.0801465 0.11673 0.156845 0.199178 0.242954 0.287619 0.332946 0.378875 0.425455 0.47222 0.516719 0.56157 0.604303 0.647125 0.688275 0.728214 0.768011 0.80441 0.840381 0.871063 0.894406 0.914761 0.925248 0.930023 0.93374 0.934112 0.93376 0.93321 0.93266 0.932152 0.931525 0.930844 0.930244 0.929787 0.929474 0.929265 0.929107 0.928975 0.928872 0.928798 0.92875 0.928801 0.928828 0.928593 0.927532 0.925341 0.921302 0.912999 0.896345 0.865213 0.811686 0.728389 0.613163 0.475025 0.332396 0.20657 0.111878 0.0526037 0.0219902 0.00852118 0.00316905 0.00115249 0.000413002 0.0001462 5.11444e-05 1.76752e-05 6.03119e-06 2.03076e-06 6.74364e-07 2.20749e-07 7.12014e-08 2.26209e-08 7.07659e-09 2.17923e-09 6.60502e-10 1.97187e-10 5.77987e-11 1.61255e-11 4.7376e-12 2.7023e-13 4.71615e-13 4.61611e-14 2.2062e-13 -1.00993e-13 -2.04166e-13 -6.17118e-13 -2.32147e-13 6.45619e-14 -4.81093e-13 -5.81282e-13 5.13126e-14 -5.40564e-13 1.92816e-14 -6.70192e-13 1.84397e-13 -6.66762e-13 1.14383e-13 1.59672e-13 4.63708e-13 1.68927e-13 -8.4883e-13 1.86753e-13 -2.38897e-13 4.10785e-13 2.7027e-13 -6.88471e-13 -1.98888e-13 -2.51659e-13 8.63272e-14 -1.7919e-14 -7.73486e-13 -2.66897e-15 2.16885e-13 -2.6318e-14 7.87093e-13 -4.70961e-13 4.57621e-13 -2.03945e-13 -4.30308e-13 -5.71649e-13 0 0 -1.5053e-14 -5.64757e-14 -1.60103e-14 -7.65795e-14 -5.08835e-14 -4.13869e-14 1.44174e-14 -1.27411e-14 1.9663e-14 4.35343e-14 -6.35231e-14 9.3251e-14 -1.06554e-13 8.1534e-15 -1.0532e-14 8.51373e-14 -3.02446e-14 -7.40328e-14 1.57224e-16 -8.51954e-16 -1.53379e-13 2.72019e-14 -5.73967e-14 -1.66108e-13 -1.85095e-13 -6.69478e-14 -1.00414e-13 -1.48828e-13 -2.26403e-13 -6.41368e-14 -1.13826e-14 -5.79494e-14 -4.05901e-15 -1.92398e-13 -1.40481e-15 -5.75378e-14 8.91769e-14 -6.09515e-14 -1.83566e-13 1.03455e-13 -9.88957e-14 -1.13274e-13 -4.4628e-14 1.61384e-14 -1.41849e-13 7.21768e-14 -2.43536e-13 -2.18872e-13 -3.27426e-13 6.58314e-15 1.20284e-13 -4.09979e-14 -1.21263e-14 -1.2654e-13 1.31313e-13 -8.54757e-14 -2.63471e-13 2.61525e-14 -1.36479e-13 -1.44679e-13 -5.14457e-14 -1.5645e-13 6.72344e-13 3.70038e-12 3.34559e-11 2.86487e-10 2.2983e-09 1.70732e-08 1.16687e-07 7.30045e-07 4.15659e-06 2.13876e-05 9.86206e-05 0.000403352 0.00144499 0.00446906 0.0117642 0.0261304 0.0491879 0.0801465 0.11673 0.156845 0.199178 0.242954 0.287619 0.332946 0.378875 0.425455 0.47222 0.516719 0.56157 0.604303 0.647125 0.688275 0.728214 0.768011 0.80441 0.840381 0.871063 0.894406 0.914761 0.925248 0.930023 0.93374 0.934112 0.93376 0.93321 0.93266 0.932152 0.931525 0.930844 0.930244 0.929787 0.929474 0.929265 0.929107 0.928975 0.928872 0.928798 0.92875 0.928801 0.928828 0.928593 0.927532 0.925341 0.921302 0.912999 0.896345 0.865213 0.811686 0.728389 0.613163 0.475025 0.332396 0.20657 0.111878 0.0526037 0.0219902 0.00852118 0.00316905 0.00115249 0.000413002 0.0001462 5.11444e-05 1.76752e-05 6.03119e-06 2.03076e-06 6.74364e-07 2.20749e-07 7.12012e-08 2.26205e-08 7.07669e-09 2.17943e-09 6.60744e-10 1.96756e-10 5.73843e-11 1.7068e-11 4.29155e-12 1.35869e-12 -9.70575e-14 -2.28019e-13 2.23147e-13 2.38252e-13 -7.71469e-13 -8.53363e-14 -3.60824e-13 -6.43886e-13 1.52898e-13 -6.97944e-13 3.8261e-14 -1.7436e-13 -9.36133e-14 -2.58528e-13 -1.96723e-13 3.59542e-15 1.44223e-13 -2.80286e-13 1.80127e-13 -8.49985e-14 -6.92826e-13 3.8046e-13 -4.71241e-13 1.68125e-13 -1.97053e-13 1.32013e-13 -2.63529e-13 -4.70796e-13 2.23915e-13 -8.36816e-13 3.72985e-13 2.57632e-13 -7.36275e-13 1.11497e-13 6.19054e-13 1.04454e-12 -4.83578e-13 -1.20137e-12 1.01169e-12 2.38423e-13 0 0 -1.34466e-14 5.49218e-16 -7.01985e-14 -2.63839e-14 -4.44913e-14 -1.73439e-14 -5.04106e-14 1.42849e-14 -1.44135e-15 -2.53097e-14 2.98843e-14 -5.10908e-14 2.96076e-14 1.54041e-14 3.03185e-14 -1.6827e-14 4.11399e-14 7.23023e-14 -6.80551e-14 -8.82081e-14 -7.81619e-14 -2.27143e-13 -1.0333e-13 -5.24117e-14 -9.16183e-14 -1.12842e-13 -1.54924e-13 -2.85376e-13 4.09911e-14 8.90816e-15 -2.30085e-13 -3.64089e-14 -1.62434e-13 1.34502e-13 -4.11733e-14 7.37478e-14 -1.51649e-13 -1.42706e-13 2.17584e-13 -1.15703e-13 7.59312e-15 -7.12705e-14 -1.46558e-13 -5.81558e-14 -3.05221e-13 -2.23194e-13 -8.97283e-15 -1.85459e-13 1.54948e-13 -1.58579e-13 -1.96404e-13 1.94682e-13 4.21712e-14 1.27858e-13 -2.68065e-13 -3.07846e-14 3.04605e-15 5.61566e-14 -3.69756e-13 -2.80453e-13 -3.15751e-13 4.56157e-13 3.74131e-13 4.01229e-12 3.3168e-11 2.86304e-10 2.29915e-09 1.7073e-08 1.16687e-07 7.30045e-07 4.15659e-06 2.13876e-05 9.86206e-05 0.000403352 0.00144499 0.00446906 0.0117642 0.0261304 0.0491879 0.0801465 0.11673 0.156845 0.199178 0.242954 0.287619 0.332946 0.378875 0.425455 0.47222 0.516719 0.56157 0.604303 0.647125 0.688275 0.728214 0.768011 0.80441 0.840381 0.871063 0.894406 0.914761 0.925248 0.930023 0.93374 0.934112 0.93376 0.93321 0.93266 0.932152 0.931525 0.930844 0.930244 0.929787 0.929474 0.929265 0.929107 0.928975 0.928872 0.928798 0.92875 0.928801 0.928828 0.928593 0.927532 0.925341 0.921302 0.912999 0.896345 0.865213 0.811686 0.728389 0.613163 0.475025 0.332396 0.20657 0.111878 0.0526037 0.0219902 0.00852118 0.00316905 0.00115249 0.000413002 0.0001462 5.11444e-05 1.76752e-05 6.03119e-06 2.03076e-06 6.74364e-07 2.20749e-07 7.12017e-08 2.262e-08 7.0771e-09 2.17979e-09 6.60491e-10 1.96229e-10 5.79604e-11 1.6963e-11 4.05426e-12 1.73645e-12 -2.82698e-13 1.16717e-12 -1.45191e-12 -3.42934e-13 -3.50681e-13 8.53564e-13 -1.32268e-12 -6.64391e-13 -2.10211e-13 -8.07984e-14 -2.21869e-13 1.75937e-13 -4.13146e-13 5.94387e-13 -2.49922e-13 3.72314e-13 1.17856e-13 -1.57243e-13 -3.20594e-13 -9.72736e-13 3.20697e-13 -2.68331e-13 3.3177e-13 -4.88941e-13 -1.245e-15 -4.27325e-13 2.72731e-13 -2.61272e-13 -2.73524e-13 1.79212e-13 -6.31262e-13 6.34203e-14 7.7719e-13 -1.9296e-13 -2.4571e-13 6.32874e-13 1.98793e-13 9.3835e-13 -1.30015e-12 -2.84727e-13 0
				</DataArray>
				<DataArray Name="VitesseY" type="Float32" format="ascii">