<?xml version="1.0"?>
<VTKFile type="PolyData">
	<PolyData>
		<Piece NumberOfPoints="1206" NumberOfPolys="1000">
			<Points>
				<DataArray type="Float32" NumberOfComponents="3" format="ascii">
 0 0 0 0.005 0 0 0.01 0 0 0.015 0 0 0.02 0 0 0.025 0 0 0.03 0 0 0.035 0 0 0.04 0 0 0.045 0 0 0.05 0 0 0.055 0 0 0.06 0 0 0.065 0 0 0.07 0 0 0.075 0 0 0.08 0 0 0.085 0 0 0.09 0 0 0.095 0 0 0.1 0 0 0.105 0 0 0.11 0 0 0.115 0 0 0.12 0 0 0.125 0 0 0.13 0 0 0.135 0 0 0.14 0 0 0.145 0 0 0.15 0 0 0.155 0 0 0.16 0 0 0.165 0 0 0.17 0 0 0.175 0 0 0.18 0 0 0.185 0 0 0.19 0 0 0.195 0 0 0.2 0 0 0.205 0 0 0.21 0 0 0.215 0 0 0.22 0 0 0.225 0 0 0.23 0 0 0.235 0 0 0.24 0 0 0.245 0 0 0.25 0 0 0.255 0 0 0.26 0 0 0.265 0 0 0.27 0 0 0.275 0 0 0.28 0 0 0.285 0 0 0.29 0 0 0.295 0 0 0.3 0 0 0.305 0 0 0.31 0 0 0.315 0 0 0.32 0 0 0.325 0 0 0.33 0 0 0.335 0 0 0.34 0 0 0.345 0 0 0.35 0 0 0.355 0 0 0.36 0 0 0.365 0 0 0.37 0 0 0.375 0 0 0.38 0 0 0.385 0 0 0.39 0 0 0.395 0 0 0.4 0 0 0.405 0 0 0.41 0 0 0.415 0 0 0.42 0 0 0.425 0 0 0.43 0 0 0.435 0 0 0.44 0 0 0.445 0 0 0.45 0 0 0.455 0 0 0.46 0 0 0.465 0 0 0.47 0 0 0.475 0 0 0.48 0 0 0.485 0 0 0.49 0 0 0.495 0 0 0.5 0 0 0.505 0 0 0.51 0 0 0.515 0 0 0.52 0 0 0.525 0 0 0.53 0 0 0.535 0 0 0.54 0 0 0.545 0 0 0.55 0 0 0.555 0 0 0.56 0 0 0.565 0 0 0.57 0 0 0.575 0 0 0.58 0 0 0.585 0 0 0.59 0 0 0.595 0 0 0.6 0 0 0.605 0 0 0.61 0 0 0.615 0 0 0.62 0 0 0.625 0 0 0.63 0 0 0.635 0 0 0.64 0 0 0.645 0 0 0.65 0 0 0.655 0 0 0.66 0 0 0.665 0 0 0.67 0 0 0.675 0 0 0.68 0 0 0.685 0 0 0.69 0 0 0.695 0 0 0.7 0 0 0.705 0 0 0.71 0 0 0.715 0 0 0.72 0 0 0.725 0 0 0.73 0 0 0.735 0 0 0.74 0 0 0.745 0 0 0.75 0 0 0.755 0 0 0.76 0 0 0.765 0 0 0.77 0 0 0.775 0 0 0.78 0 0 0.785 0 0 0.79 0 0 0.795 0 0 0.8 0 0 0.805 0 0 0.81 0 0 0.815 0 0 0.82 0 0 0.825 0 0 0.83 0 0 0.835 0 0 0.84 0 0 0.845 0 0 0.85 0 0 0.855 0 0 0.86 0 0 0.865 0 0 0.87 0 0 0.875 0 0 0.88 0 0 0.885 0 0 0.89 0 0 0.895 0 0 0.9 0 0 0.905 0 0 0.91 0 0 0.915 0 0 0.92 0 0 0.925 0 0 0.93 0 0 0.935 0 0 0.94 0 0 0.945 0 0 0.95 0 0 0.955 0 0 0.96 0 0 0.965 0 0 0.97 0 0 0.975 0 0 0.98 0 0 0.985 0 0 0.99 0 0 0.995 0 0 1 0 0 0 0.02 0 0.005 0.02 0 0.01 0.02 0 0.015 0.02 0 0.02 0.02 0 0.025 0.02 0 0.03 0.02 0 0.035 0.02 0 0.04 0.02 0 0.045 0.02 0 0.05 0.02 0 0.055 0.02 0 0.06 0.02 0 0.065 0.02 0 0.07 0.02 0 0.075 0.02 0 0.08 0.02 0 0.085 0.02 0 0.09 0.02 0 0.095 0.02 0 0.1 0.02 0 0.105 0.02 0 0.11 0.02 0 0.115 0.02 0 0.12 0.02 0 0.125 0.02 0 0.13 0.02 0 0.135 0.02 0 0.14 0.02 0 0.145 0.02 0 0.15 0.02 0 0.155 0.02 0 0.16 0.02 0 0.165 0.02 0 0.17 0.02 0 0.175 0.02 0 0.18 0.02 0 0.185 0.02 0 0.19 0.02 0 0.195 0.02 0 0.2 0.02 0 0.205 0.02 0 0.21 0.02 0 0.215 0.02 0 0.22 0.02 0 0.225 0.02 0 0.23 0.02 0 0.235 0.02 0 0.24 0.02 0 0.245 0.02 0 0.25 0.02 0 0.255 0.02 0 0.26 0.02 0 0.265 0.02 0 0.27 0.02 0 0.275 0.02 0 0.28 0.02 0 0.285 0.02 0 0.29 0.02 0 0.295 0.02 0 0.3 0.02 0 0.305 0.02 0 0.31 0.02 0 0.315 0.02 0 0.32 0.02 0 0.325 0.02 0 0.33 0.02 0 0.335 0.02 0 0.34 0.02 0 0.345 0.02 0 0.35 0.02 0 0.355 0.02 0 0.36 0.02 0 0.365 0.02 0 0.37 0.02 0 0.375 0.02 0 0.38 0.02 0 0.385 0.02 0 0.39 0.02 0 0.395 0.02 0 0.4 0.02 0 0.405 0.02 0 0.41 0.02 0 0.415 0.02 0 0.42 0.02 0 0.425 0.02 0 0.43 0.02 0 0.435 0.02 0 0.44 0.02 0 0.445 0.02 0 0.45 0.02 0 0.455 0.02 0 0.46 0.02 0 0.465 0.02 0 0.47 0.02 0 0.475 0.02 0 0.48 0.02 0 0.485 0.02 0 0.49 0.02 0 0.495 0.02 0 0.5 0.02 0 0.505 0.02 0 0.51 0.02 0 0.515 0.02 0 0.52 0.02 0 0.525 0.02 0 0.53 0.02 0 0.535 0.02 0 0.54 0.02 0 0.545 0.02 0 0.55 0.02 0 0.555 0.02 0 0.56 0.02 0 0.565 0.02 0 0.57 0.02 0 0.575 0.02 0 0.58 0.02 0 0.585 0.02 0 0.59 0.02 0 0.595 0.02 0 0.6 0.02 0 0.605 0.02 0 0.61 0.02 0 0.615 0.02 0 0.62 0.02 0 0.625 0.02 0 0.63 0.02 0 0.635 0.02 0 0.64 0.02 0 0.645 0.02 0 0.65 0.02 0 0.655 0.02 0 0.66 0.02 0 0.665 0.02 0 0.67 0.02 0 0.675 0.02 0 0.68 0.02 0 0.685 0.02 0 0.69 0.02 0 0.695 0.02 0 0.7 0.02 0 0.705 0.02 0 0.71 0.02 0 0.715 0.02 0 0.72 0.02 0 0.725 0.02 0 0.73 0.02 0 0.735 0.02 0 0.74 0.02 0 0.745 0.02 0 0.75 0.02 0 0.755 0.02 0 0.76 0.02 0 0.765 0.02 0 0.77 0.02 0 0.775 0.02 0 0.78 0.02 0 0.785 0.02 0 0.79 0.02 0 0.795 0.02 0 0.8 0.02 0 0.805 0.02 0 0.81 0.02 0 0.815 0.02 0 0.82 0.02 0 0.825 0.02 0 0.83 0.02 0 0.835 0.02 0 0.84 0.02 0 0.845 0.02 0 0.85 0.02 0 0.855 0.02 0 0.86 0.02 0 0.865 0.02 0 0.87 0.02 0 0.875 0.02 0 0.88 0.02 0 0.885 0.02 0 0.89 0.02 0 0.895 0.02 0 0.9 0.02 0 0.905 0.02 0 0.91 0.02 0 0.915 0.02 0 0.92 0.02 0 0.925 0.02 0 0.93 0.02 0 0.935 0.02 0 0.94 0.02 0 0.945 0.02 0 0.95 0.02 0 0.955 0.02 0 0.96 0.02 0 0.965 0.02 0 0.97 0.02 0 0.975 0.02 0 0.98 0.02 0 0.985 0.02 0 0.99 0.02 0 0.995 0.02 0 1 0.02 0 0 0.04 0 0.005 0.04 0 0.01 0.04 0 0.015 0.04 0 0.02 0.04 0 0.025 0.04 0 0.03 0.04 0 0.035 0.04 0 0.04 0.04 0 0.045 0.04 0 0.05 0.04 0 0.055 0.04 0 0.06 0.04 0 0.065 0.04 0 0.07 0.04 0 0.075 0.04 0 0.08 0.04 0 0.085 0.04 0 0.09 0.04 0 0.095 0.04 0 0.1 0.04 0 0.105 0.04 0 0.11 0.04 0 0.115 0.04 0 0.12 0.04 0 0.125 0.04 0 0.13 0.04 0 0.135 0.04 0 0.14 0.04 0 0.145 0.04 0 0.15 0.04 0 0.155 0.04 0 0.16 0.04 0 0.165 0.04 0 0.17 0.04 0 0.175 0.04 0 0.18 0.04 0 0.185 0.04 0 0.19 0.04 0 0.195 0.04 0 0.2 0.04 0 0.205 0.04 0 0.21 0.04 0 0.215 0.04 0 0.22 0.04 0 0.225 0.04 0 0.23 0.04 0 0.235 0.04 0 0.24 0.04 0 0.245 0.04 0 0.25 0.04 0 0.255 0.04 0 0.26 0.04 0 0.265 0.04 0 0.27 0.04 0 0.275 0.04 0 0.28 0.04 0 0.285 0.04 0 0.29 0.04 0 0.295 0.04 0 0.3 0.04 0 0.305 0.04 0 0.31 0.04 0 0.315 0.04 0 0.32 0.04 0 0.325 0.04 0 0.33 0.04 0 0.335 0.04 0 0.34 0.04 0 0.345 0.04 0 0.35 0.04 0 0.355 0.04 0 0.36 0.04 0 0.365 0.04 0 0.37 0.04 0 0.375 0.04 0 0.38 0.04 0 0.385 0.04 0 0.39 0.04 0 0.395 0.04 0 0.4 0.04 0 0.405 0.04 0 0.41 0.04 0 0.415 0.04 0 0.42 0.04 0 0.425 0.04 0 0.43 0.04 0 0.435 0.04 0 0.44 0.04 0 0.445 0.04 0 0.45 0.04 0 0.455 0.04 0 0.46 0.04 0 0.465 0.04 0 0.47 0.04 0 0.475 0.04 0 0.48 0.04 0 0.485 0.04 0 0.49 0.04 0 0.495 0.04 0 0.5 0.04 0 0.505 0.04 0 0.51 0.04 0 0.515 0.04 0 0.52 0.04 0 0.525 0.04 0 0.53 0.04 0 0.535 0.04 0 0.54 0.04 0 0.545 0.04 0 0.55 0.04 0 0.555 0.04 0 0.56 0.04 0 0.565 0.04 0 0.57 0.04 0 0.575 0.04 0 0.58 0.04 0 0.585 0.04 0 0.59 0.04 0 0.595 0.04 0 0.6 0.04 0 0.605 0.04 0 0.61 0.04 0 0.615 0.04 0 0.62 0.04 0 0.625 0.04 0 0.63 0.04 0 0.635 0.04 0 0.64 0.04 0 0.645 0.04 0 0.65 0.04 0 0.655 0.04 0 0.66 0.04 0 0.665 0.04 0 0.67 0.04 0 0.675 0.04 0 0.68 0.04 0 0.685 0.04 0 0.69 0.04 0 0.695 0.04 0 0.7 0.04 0 0.705 0.04 0 0.71 0.04 0 0.715 0.04 0 0.72 0.04 0 0.725 0.04 0 0.73 0.04 0 0.735 0.04 0 0.74 0.04 0 0.745 0.04 0 0.75 0.04 0 0.755 0.04 0 0.76 0.04 0 0.765 0.04 0 0.77 0.04 0 0.775 0.04 0 0.78 0.04 0 0.785 0.04 0 0.79 0.04 0 0.795 0.04 0 0.8 0.04 0 0.805 0.04 0 0.81 0.04 0 0.815 0.04 0 0.82 0.04 0 0.825 0.04 0 0.83 0.04 0 0.835 0.04 0 0.84 0.04 0 0.845 0.04 0 0.85 0.04 0 0.855 0.04 0 0.86 0.04 0 0.865 0.04 0 0.87 0.04 0 0.875 0.04 0 0.88 0.04 0 0.885 0.04 0 0.89 0.04 0 0.895 0.04 0 0.9 0.04 0 0.905 0.04 0 0.91 0.04 0 0.915 0.04 0 0.92 0.04 0 0.925 0.04 0 0.93 0.04 0 0.935 0.04 0 0.94 0.04 0 0.945 0.04 0 0.95 0.04 0 0.955 0.04 0 0.96 0.04 0 0.965 0.04 0 0.97 0.04 0 0.975 0.04 0 0.98 0.04 0 0.985 0.04 0 0.99 0.04 0 0.995 0.04 0 1 0.04 0 0 0.06 0 0.005 0.06 0 0.01 0.06 0 0.015 0.06 0 0.02 0.06 0 0.025 0.06 0 0.03 0.06 0 0.035 0.06 0 0.04 0.06 0 0.045 0.06 0 0.05 0.06 0 0.055 0.06 0 0.06 0.06 0 0.065 0.06 0 0.07 0.06 0 0.075 0.06 0 0.08 0.06 0 0.085 0.06 0 0.09 0.06 0 0.095 0.06 0 0.1 0.06 0 0.105 0.06 0 0.11 0.06 0 0.115 0.06 0 0.12 0.06 0 0.125 0.06 0 0.13 0.06 0 0.135 0.06 0 0.14 0.06 0 0.145 0.06 0 0.15 0.06 0 0.155 0.06 0 0.16 0.06 0 0.165 0.06 0 0.17 0.06 0 0.175 0.06 0 0.18 0.06 0 0.185 0.06 0 0.19 0.06 0 0.195 0.06 0 0.2 0.06 0 0.205 0.06 0 0.21 0.06 0 0.215 0.06 0 0.22 0.06 0 0.225 0.06 0 0.23 0.06 0 0.235 0.06 0 0.24 0.06 0 0.245 0.06 0 0.25 0.06 0 0.255 0.06 0 0.26 0.06 0 0.265 0.06 0 0.27 0.06 0 0.275 0.06 0 0.28 0.06 0 0.285 0.06 0 0.29 0.06 0 0.295 0.06 0 0.3 0.06 0 0.305 0.06 0 0.31 0.06 0 0.315 0.06 0 0.32 0.06 0 0.325 0.06 0 0.33 0.06 0 0.335 0.06 0 0.34 0.06 0 0.345 0.06 0 0.35 0.06 0 0.355 0.06 0 0.36 0.06 0 0.365 0.06 0 0.37 0.06 0 0.375 0.06 0 0.38 0.06 0 0.385 0.06 0 0.39 0.06 0 0.395 0.06 0 0.4 0.06 0 0.405 0.06 0 0.41 0.06 0 0.415 0.06 0 0.42 0.06 0 0.425 0.06 0 0.43 0.06 0 0.435 0.06 0 0.44 0.06 0 0.445 0.06 0 0.45 0.06 0 0.455 0.06 0 0.46 0.06 0 0.465 0.06 0 0.47 0.06 0 0.475 0.06 0 0.48 0.06 0 0.485 0.06 0 0.49 0.06 0 0.495 0.06 0 0.5 0.06 0 0.505 0.06 0 0.51 0.06 0 0.515 0.06 0 0.52 0.06 0 0.525 0.06 0 0.53 0.06 0 0.535 0.06 0 0.54 0.06 0 0.545 0.06 0 0.55 0.06 0 0.555 0.06 0 0.56 0.06 0 0.565 0.06 0 0.57 0.06 0 0.575 0.06 0 0.58 0.06 0 0.585 0.06 0 0.59 0.06 0 0.595 0.06 0 0.6 0.06 0 0.605 0.06 0 0.61 0.06 0 0.615 0.06 0 0.62 0.06 0 0.625 0.06 0 0.63 0.06 0 0.635 0.06 0 0.64 0.06 0 0.645 0.06 0 0.65 0.06 0 0.655 0.06 0 0.66 0.06 0 0.665 0.06 0 0.67 0.06 0 0.675 0.06 0 0.68 0.06 0 0.685 0.06 0 0.69 0.06 0 0.695 0.06 0 0.7 0.06 0 0.705 0.06 0 0.71 0.06 0 0.715 0.06 0 0.72 0.06 0 0.725 0.06 0 0.73 0.06 0 0.735 0.06 0 0.74 0.06 0 0.745 0.06 0 0.75 0.06 0 0.755 0.06 0 0.76 0.06 0 0.765 0.06 0 0.77 0.06 0 0.775 0.06 0 0.78 0.06 0 0.785 0.06 0 0.79 0.06 0 0.795 0.06 0 0.8 0.06 0 0.805 0.06 0 0.81 0.06 0 0.815 0.06 0 0.82 0.06 0 0.825 0.06 0 0.83 0.06 0 0.835 0.06 0 0.84 0.06 0 0.845 0.06 0 0.85 0.06 0 0.855 0.06 0 0.86 0.06 0 0.865 0.06 0 0.87 0.06 0 0.875 0.06 0 0.88 0.06 0 0.885 0.06 0 0.89 0.06 0 0.895 0.06 0 0.9 0.06 0 0.905 0.06 0 0.91 0.06 0 0.915 0.06 0 0.92 0.06 0 0.925 0.06 0 0.93 0.06 0 0.935 0.06 0 0.94 0.06 0 0.945 0.06 0 0.95 0.06 0 0.955 0.06 0 0.96 0.06 0 0.965 0.06 0 0.97 0.06 0 0.975 0.06 0 0.98 0.06 0 0.985 0.06 0 0.99 0.06 0 0.995 0.06 0 1 0.06 0 0 0.08 0 0.005 0.08 0 0.01 0.08 0 0.015 0.08 0 0.02 0.08 0 0.025 0.08 0 0.03 0.08 0 0.035 0.08 0 0.04 0.08 0 0.045 0.08 0 0.05 0.08 0 0.055 0.08 0 0.06 0.08 0 0.065 0.08 0 0.07 0.08 0 0.075 0.08 0 0.08 0.08 0 0.085 0.08 0 0.09 0.08 0 0.095 0.08 0 0.1 0.08 0 0.105 0.08 0 0.11 0.08 0 0.115 0.08 0 0.12 0.08 0 0.125 0.08 0 0.13 0.08 0 0.135 0.08 0 0.14 0.08 0 0.145 0.08 0 0.15 0.08 0 0.155 0.08 0 0.16 0.08 0 0.165 0.08 0
[...]
			<PointData Scalars="VitesseX">
				<DataArray Name="VitesseX" type="Float32" format="ascii">
 0 3.5294e-15 -1.62304e-14 -4.19083e-14 -2.27836e-16 -1.85366e-14 1.82291e-15 -3.9939e-14 -2.95034e-15 6.34144e-14 -4.63194e-14 1.35359e-14 -1.34764e-13 1.09284e-13 -9.00485e-14 -8.68888e-15 -9.91315e-14 -4.36673e-14 -3.13339e-14 -6.55444e-14 -1.36579e-13 6.62217e-14 -3.93605e-14 -9.29808e-14 -1.70897e-13 -1.79149e-14 -4.85986e-14 -1.83641e-13 -2.49345e-14 -1.47764e-13 -1.50394e-13 -2.34577e-13 -1.36226e-13 -1.43503e-13 -1.58888e-13 -1.84599e-13 -2.72625e-14 -1.74618e-13 -3.85573e-14 1.65295e-13 -7.79135e-14 9.42882e-14 9.29428e-14 -2.19096e-13 -7.54716e-14 -1.57145e-13 -1.88724e-13 -1.14994e-13 -5.95871e-14 1.35319e-14 -2.19342e-13 9.41282e-15 7.90907e-14 -3.69865e-13 -1.24961e-13 -2.61473e-13 -1.09425e-13 -2.30583e-13 1.38865e-13 -1.19588e-13 3.52177e-13 2.51757e-12 2.32328e-11 1.87669e-10 1.42996e-09 1.01123e-08 6.62274e-08 3.99707e-07 2.21198e-06 1.11579e-05 5.09417e-05 0.000208706 0.000759357 0.00242351 0.00669524 0.0158347 0.0319606 0.0556288 0.0855217 0.119642 0.1564 0.194845 0.234382 0.274603 0.315329 0.356493 0.398107 0.440194 0.481807 0.522067 0.562239 0.601389 0.639816 0.678003 0.71437 0.750975 0.785963 0.819335 0.851469 0.877181 0.899908 0.916599 0.924834 0.931131 0.933507 0.93342 0.933212 0.932981 0.932642 0.932131 0.931542 0.930884 0.930281 0.929823 0.929486 0.929229 0.929024 0.928866 0.928752 0.928672 0.928614 0.928556 0.928504 0.928465 0.928504 0.928505 0.928295 0.927527 0.926066 0.923219 0.917248 0.905168 0.882127 0.841111 0.77411 0.67573 0.548393 0.406333 0.270082 0.158173 0.0805123 0.0359322 0.0145584 0.00557741 0.00207603 0.000760498 0.000275513 9.88493e-05 3.51246e-05 1.23557e-05 4.30019e-06 1.47984e-06 5.03278e-07 1.69061e-07 5.60689e-08 1.83519e-08 5.92585e-09 1.88675e-09 5.9237e-10 1.83262e-10 5.58045e-11 1.66386e-11 4.85662e-12 9.67075e-13 -2.12798e-13 -1.91953e-13 -4.79193e-13 1.69539e-13 -7.93454e-14 -1.26677e-12 2.14582e-13 -6.63469e-13 -3.39431e-13 7.45062e-13 -6.72756e-13 2.18696e-13 -4.58238e-13 6.02309e-15 7.25714e-13 -7.45672e-13 3.7121e-13 -5.32938e-13 -1.73897e-13 1.8356e-13 -5.70918e-14 -4.0712e-13 -4.76942e-13 7.85977e-14 5.96069e-13 1.78703e-13 -2.53824e-13 -3.49044e-13 6.77382e-13 6.04025e-13 -1.77058e-13 -1.56557e-13 6.38764e-13 2.63713e-13 -6.99224e-13 -2.86439e-13 0 0 -1.74776e-14 -1.90147e-14 2.80854e-15 -5.3039e-14 -2.71684e-14 1.13097e-16 -1.65235e-14 1.4033e-14 -3.0226e-14 3.28168e-14 -3.04226e-14 7.82589e-14 -1.44966e-13 -9.53703e-15 -2.91051e-14 -3.66641e-14 -3.88745e-14 -5.62339e-14 -6.77762e-14 8.19476e-15 -1.35737e-13 -2.90358e-14 -1.36706e-13 2.53412e-14 -9.25993e-14 -1.81832e-13 3.80138e-15 -1.84757e-13 -1.62571e-13 -1.42403e-13 -5.89188e-14 -1.78732e-13 -1.82783e-13 -2.19363e-13 -4.44399e-14 -1.64757e-13 1.9644e-14 4.52261e-14 -1.27057e-13 2.29627e-14 -1.18381e-13 -5.84003e-14 7.06421e-14 -1.39617e-13 -8.33172e-14 -1.82438e-13 -1.8758e-13 -1.50434e-13 -1.12721e-13 6.57871e-14 -1.24952e-13 -1.86351e-13 9.20388e-14 -2.24475e-13 -1.51353e-13 -1.85274e-13 -1.1837e-13 -1.33058e-13 1.15509e-13 2.24289e-13 2.68484e-12 2.30074e-11 1.87888e-10 1.42929e-09 1.0113e-08 6.62273e-08 3.99707e-07 2.21198e-06 1.11579e-05 5.09417e-05 0.000208706 0.000759357 0.00242351 0.00669524 0.0158347 0.0319606 0.0556288 0.0855217 0.119642 0.1564 0.194845 0.234382 0.274603 0.315329 0.356493 0.398107 0.440194 0.481807 0.522067 0.562239 0.601389 0.639816 0.678003 0.71437 0.750975 0.785963 0.819335 0.851469 0.877181 0.899908 0.916599 0.924834 0.931131 0.933507 0.93342 0.933212 0.932981 0.932642 0.932131 0.931542 0.930884 0.930281 0.929823 0.929486 0.929229 0.929024 0.928866 0.928752 0.928672 0.928614 0.928556 0.928504 0.928465 0.928504 0.928505 0.928295 0.927527 0.926066 0.923219 0.917248 0.905168 0.882127 0.841111 0.77411 0.67573 0.548393 0.406333 0.270082 0.158173 0.0805123 0.0359322 0.0145584 0.00557741 0.00207603 0.000760498 0.000275513 9.88493e-05 3.51246e-05 1.23557e-05 4.30019e-06 1.47984e-06 5.03278e-07 1.69061e-07 5.60695e-08 1.83517e-08 5.92578e-09 1.88737e-09 5.9246e-10 1.83166e-10 5.56777e-11 1.65463e-11 4.83808e-12 1.11593e-12 1.11513e-13 -2.86119e-13 -3.17924e-13 -2.35582e-13 -7.74004e-13 1.37314e-13 -9.47513e-13 -1.54761e-13 7.89649e-14 -7.0343e-13 2.43001e-13 -3.66526e-13 5.86312e-13 -4.33454e-14 -5.71269e-13 5.86088e-13 -5.87834e-13 1.87061e-13 -2.79237e-14 -2.91761e-13 -3.55225e-14 -1.76053e-13 -3.85073e-14 -1.00238e-14 -7.15276e-13 1.49213e-13 2.4353e-13 2.15392e-13 2.11029e-13 -2.31624e-13 4.28007e-13 4.13016e-13 -2.39672e-13 -2.45714e-13 6.70794e-13 4.58466e-13 0 0 -1.23005e-14 -9.60507e-15 -4.10164e-14 -8.06374e-15 -3.90927e-14 -4.90645e-14 1.51159e-14 -3.84932e-14 -1.61279e-14 -8.29222e-15 2.84436e-14 -2.06988e-14 4.38645e-14 -9.31922e-14 -6.81918e-15 -1.21667e-14 -2.77185e-14 -2.90561e-14 2.83946e-14 -8.82093e-14 -3.44617e-14 -1.37373e-13 -5.3744e-14 -1.35769e-13 -3.86419e-14 -9.95437e-14 -1.62561e-13 -1.37115e-13 -7.86688e-14 7.62243e-15 -2.16785e-13 -1.81416e-13 -1.21049e-13 -5.09565e-14 -1.33282e-13 -6.06294e-14 -3.9418e-14 -5.96211e-14 -6.23923e-14 -6.01162e-14 -1.16305e-13 -7.90734e-14 -4.63477e-14 -6.68304e-14 -2.18649e-13 -1.93728e-13 -1.44001e-13 -9.93966e-14 3.65977e-14 -1.26873e-13 -8.0446e-15 8.68177e-15 -1.84254e-13 -1.3514e-13 -9.54075e-14 -2.00942e-13 -1.02394e-13 -4.56066e-14 -1.1114e-13 3.12752e-13 2.93078e-12 2.30514e-11 1.87827e-10 1.42934e-09 1.01129e-08 6.62274e-08 3.99707e-07 2.21198e-06 1.11579e-05 5.09417e-05 0.000208706 0.000759357 0.00242351 0.00669524 0.0158347 0.0319606 0.0556288 0.0855217 0.119642 0.1564 0.194845 0.234382 0.274603 0.315329 0.356493 0.398107 0.440194 0.481807 0.522067 0.562239 0.601389 0.639816 0.678003 0.71437 0.750975 0.785963 0.819335 0.851469 0.877181 0.899908 0.916599 0.924834 0.931131 0.933507 0.93342 0.933212 0.932981 0.932642 0.932131 0.931542 0.930884 0.930281 0.929823 0.929486 0.929229 0.929024 0.928866 0.928752 0.928672 0.928614 0.928556 0.928504 0.928465 0.928504 0.928505 0.928295 0.927527 0.926066 0.923219 0.917248 0.905168 0.882127 0.841111 0.77411 0.67573 0.548393 0.406333 0.270082 0.158173 0.0805123 0.0359322 0.0145584 0.00557741 0.00207603 0.000760498 0.000275513 9.88493e-05 3.51246e-05 1.23557e-05 4.30019e-06 1.47984e-06 5.03278e-07 1.69061e-07 5.60692e-08 1.83519e-08 5.92628e-09 1.8871e-09 5.92451e-10 1.83361e-10 5.56383e-11 1.68221e-11 4.37196e-12 1.02785e-12 1.97852e-13 2.09011e-13 -4.99094e-13 -5.63676e-13 -5.76603e-13 -3.06786e-13 -3.86915e-13 -2.63429e-13 -2.21996e-13 1.38901e-13 -2.06672e-13 4.60802e-14 -3.08954e-13 3.02579e-13 -1.93577e-13 -2.55766e-14 3.08767e-14 -3.94445e-13 3.58763e-14 2.15539e-13 -5.30775e-13 -1.76427e-13 8.37721e-14 -2.37358e-13 -2.4598e-13 -1.55803e-13 -2.31062e-13 4.29219e-13 2.11319e-13 2.10314e-13 -5.55954e-13 1.28676e-13 -2.14175e-13 6.96595e-13 1.26443e-13 -2.98472e-13 0 0 -1.11308e-14 -2.1949e-14 -2.74532e-14 -2.52436e-14 -4.39013e-14 -1.74861e-14 -2.49102e-14 -2.65934e-15 1.06559e-14 -2.18611e-14 -3.70937e-14 -4.12077e-14 2.943e-14 3.02287e-14 -3.2481e-14 -2.14868e-14 -5.29133e-16 -2.94784e-14 1.81886e-14 -3.20662e-14 -3.51106e-14 -5.88787e-14 -5.52081e-14 -1.44941e-13 -1.53307e-13 -6.27905e-14 -1.8295e-13 -4.8666e-14 -9.3411e-14 -1.63326e-13 -6.72159e-14 -1.14028e-13 -1.24039e-14 -1.20892e-13 -1.00765e-13 -4.57767e-14 -8.62378e-14 -8.63118e-14 5.62956e-14 -5.80209e-14 -4.75129e-14 -6.68923e-14 -1.46772e-13 -9.85913e-14 -2.82869e-13 -3.34813e-14 -1.46784e-13 -1.19447e-13 1.27863e-13 -1.79025e-14 -2.28361e-13 4.9016e-14 -1.6933e-13 -5.65567e-14 -8.79914e-14 -8.77046e-14 -2.23347e-13 1.42022e-13 -1.70753e-13 4.75017e-13 2.60086e-12 2.33239e-11 1.8796e-10 1.42974e-09 1.01126e-08 6.62274e-08 3.99707e-07 2.21198e-06 1.11579e-05 5.09417e-05 0.000208706 0.000759357 0.00242351 0.00669524 0.0158347 0.0319606 0.0556288 0.0855217 0.119642 0.1564 0.194845 0.234382 0.274603 0.315329 0.356493 0.398107 0.440194 0.481807 0.522067 0.562239 0.601389 0.639816 0.678003 0.71437 0.750975 0.785963 0.819335 0.851469 0.877181 0.899908 0.916599 0.924834 0.931131 0.933507 0.93342 0.933212 0.932981 0.932642 0.932131 0.931542 0.930884 0.930281 0.929823 0.929486 0.929229 0.929024 0.928866 0.928752 0.928672 0.928614 0.928556 0.928504 0.928465 0.928504 0.928505 0.928295 0.927527 0.926066 0.923219 0.917248 0.905168 0.882127 0.841111 0.77411 0.67573 0.548393 0.406333 0.270082 0.158173 0.0805123 0.0359322 0.0145584 0.00557741 0.00207603 0.000760498 0.000275513 9.88493e-05 3.51246e-05 1.23557e-05 4.30019e-06 1.47984e-06 5.03278e-07 1.69061e-07 5.60693e-08 1.83519e-08 5.9259e-09 1.88694e-09 5.92474e-10 1.83709e-10 5.5633e-11 1.65513e-11 4.48326e-12 1.35701e-12 -1.19096e-13 -2.26628e-13 -2.50218e-13 -7.14137e-13 -9.91563e-14 -1.81752e-13 -2.4384e-13 -4.34881e-13 -3.07759e-13 6.10173e-13 -2.86159e-13 -2.87236e-13 -1.53195e-13 -4.68507e-13 7.28994e-13 -5.73756e-13 4.35094e-13 -2.5436e-13 -8.37538e-13 3.39489e-13 -3.70253e-13 4.36828e-14 -2.22058e-13 -2.83167e-13 2.37203e-13 -2.17512e-14 1.53918e-13 -1.00731e-12 6.68556e-13 9.44078e-13 -2.08883e-13 -1.86763e-13 2.7737e-13 1.13151e-13 -6.60694e-13 2.51108e-13 0 0 -1.34572e-14 -1.72925e-14 5.74822e-15 -5.17487e-14 -3.2179e-14 5.57291e-15 -4.10491e-14 3.22434e-14 -1.45216e-14 1.42802e-14 -6.43085e-14 6.91634e-14 -1.27425e-13 9.2738e-14 -3.30449e-14 -5.36976e-15 9.67105e-16 -2.47968e-14 -9.14435e-14 3.55228e-14 -1.56441e-13 -2.4649e-14 -1.43029e-13 3.49949e-14 -1.75321e-13 -1.11718e-13 -5.53536e-14 -1.87624e-13 -7.43394e-14 -2.08892e-13 9.17943e-14 -6.68212e-14 -6.2211e-14 -1.80992e-13 4.98567e-14 -6.22676e-14 -1.38183e-14 1.87064e-14 -3.70865e-14 2.93139e-14 -1.67332e-13 -1.29443e-13 -4.10601e-14 -2.30004e-13 -5.92028e-14 -2.8913e-14 -2.38018e-13 -1.67886e-13 -5.17778e-14 1.9063e-13 -2.74142e-13 -1.29621e-13 1.44095e-13 -5.69031e-14 -6.67802e-14 -6.43087e-14 -1.22866e-13 -1.84854e-13 1.29465e-13 4.39575e-13 2.77649e-12 2.33051e-11 1.88243e-10 1.42949e-09 1.0113e-08 6.62273e-08 3.99707e-07 2.21198e-06 1.11579e-05 5.09417e-05 0.000208706 0.000759357 0.00242351 0.00669524 0.0158347 0.0319606 0.0556288 0.0855217 0.119642 0.1564 0.194845 0.234382 0.274603 0.315329 0.356493 0.398107 0.440194 0.481807 0.522067 0.562239 0.601389 0.639816 0.678003 0.71437 0.750975 0.785963 0.819335 0.851469 0.877181 0.899908 0.916599 0.924834 0.931131 0.933507 0.93342 0.933212 0.932981 0.932642 0.932131 0.931542 0.930884 0.930281 0.929823 0.929486 0.929229 0.929024 0.928866 0.928752 0.928672 0.928614 0.928556 0.928504 0.928465 0.928504 0.928505 0.928295 0.927527 0.926066 0.923219 0.917248 0.905168 0.882127 0.841111 0.77411 0.67573 0.548393 0.406333 0.270082 0.158173 0.0805123 0.0359322 0.0145584 0.00557741 0.00207603 0.000760498 0.000275513 9.88493e-05 3.51246e-05 1.23557e-05 4.30019e-06 1.47984e-06 5.03278e-07 1.69061e-07 5.60697e-08 1.83518e-08 5.92586e-09 1.88748e-09 5.92429e-10 1.83282e-10 5.57834e-11 1.60983e-11 4.83584e-12 1.51003e-12 -1.20427e-13 -6.36532e-13 -1.50593e-13 -6.44417e-13 -3.74819e-13 3.07383e-13 -7.67964e-13 -2.40406e-13 2.65497e-13 -4.48277e-13 3.80042e-13 -2.82861e-13 6.37621e-13 -1.54448e-13 -6.54922e-13 5.77165e-13 -5.81787e-13 2.20934e-13 -6.58614e-13 -3.82789e-13 -2.5231e-13 -1.411e-13 -1.73449e-13 1.37831e-13 -6.7349e-13 2.37868e-14 6.20627e-13 -6.05458e-14 1.38528e-13 6.62368e-14 7.23063e-13 -1.32476e-13 -1.99377e-13 -4.5527e-13 3.18214e-13 8.31749e-13 0 0 9.23079e-15 1.19018e-14 -6.31553e-14 3.67124e-14 -1.89407e-14 -5.04143e-14 -8.93792e-15 -3.81972e-14 4.12555e-14 -5.62547e-14 7.68387e-14 -1.11937e-13 1.73235e-13 -1.3234e-13 3.47551e-14 -1.79027e-14 -1.83629e-14 3.23849e-14 -9.24672e-14 -1.94209e-13 2.61127e-14 -1.87575e-13 -1.027e-13 -1.33245e-13 4.59712e-14 1.81223e-14 -2.61173e-13 -2.07566e-13 5.81833e-14 5.85255e-14 -2.32289e-13 -4.71809e-14 -1.19649e-13 5.77254e-14 -6.10405e-14 1.4801e-13 -1.47903e-13 -3.82153e-14 1.0786e-13 -6.94017e-14 -1.41199e-13 -7.35057e-14 -2.41653e-13 -1.92723e-13 1.95241e-14 -2.02167e-13 -2.10303e-13 -5.43905e-14 -4.71131e-14 -1.87597e-13 1.51665e-13 1.11882e-13 -2.956e-13 5.30164e-14 -1.0716e-13 -9.39681e-14 2.33109e-15 -3.39984e-13 2.75488e-14 4.5822e-13 3.3607e-12 2.32831e-11 1.88113e-10 1.42955e-09 1.01129e-08 6.62273e-08 3.99707e-07 2.21198e-06 1.11579e-05 5.09417e-05 0.000208706 0.000759357 0.00242351 0.00669524 0.0158347 0.0319606 0.0556288 0.0855217 0.119642 0.1564 0.194845 0.234382 0.274603 0.315329 0.356493 0.398107 0.440194 0.481807 0.522067 0.562239 0.601389 0.639816 0.678003 0.71437 0.750975 0.785963 0.819335 0.851469 0.877181 0.899908 0.916599 0.924834 0.931131 0.933507 0.93342 0.933212 0.932981 0.932642 0.932131 0.931542 0.930884 0.930281 0.929823 0.929486 0.929229 0.929024 0.928866 0.928752 0.928672 0.928614 0.928556 0.928504 0.928465 0.928504 0.928505 0.928295 0.927527 0.926066 0.923219 0.917248 0.905168 0.882127 0.841111 0.77411 0.67573 0.548393 0.406333 0.270082 0.158173 0.0805123 0.0359322 0.0145584 0.00557741 0.00207603 0.000760498 0.000275513 9.88493e-05 3.51246e-05 1.23557e-05 4.30019e-06 1.47984e-06 5.03278e-07 1.69061e-07 5.60692e-08 1.8352e-08 5.92678e-09 1.88727e-09 5.92262e-10 1.82799e-10 5.60266e-11 1.62842e-11 4.62953e-12 1.09695e-12 -4.27844e-14 -2.14982e-14 -6.42283e-13 -3.47209e-13 -2.35868e-13 -1.1767e-12 2.87528e-13 -4.91855e-13 2.0516e-13 3.12823e-13 -2.39702e-13 1.05266e-12 -6.67138e-13 1.32599e-12 -1.28673e-12 3.3284e-13 -4.25132e-13 -7.45362e-13 3.1155e-13 -2.46397e-13 -8.11711e-13 -7.77434e-13 -1.35164e-13 4.65924e-13 -2.86725e-13 -3.40252e-13 -2.69592e-13 1.97213e-12 -3.82094e-13 -2.67783e-13 -2.81087e-13 -6.16664e-13 -2.63736e-13 1.01149e-12 1.6989e-13 -6.39033e-13 0
				</DataArray>
				<DataArray Name="VitesseY" type="Float32" format="ascii">