<?xml version="1.0"?>
<VTKFile type="PolyData">
	<PolyData>
		<Piece NumberOfPoints="1206" NumberOfPolys="1000">
			<Points>
				<DataArray type="Float32" NumberOfComponents="3" format="ascii">
 0 0 0 0.005 0 0 0.01 0 0 0.015 0 0 0.02 0 0 0.025 0 0 0.03 0 0 0.035 0 0 0.04 0 0 0.045 0 0 0.05 0 0 0.055 0 0 0.06 0 0 0.065 0 0 0.07 0 0 0.075 0 0 0.08 0 0 0.085 0 0 0.09 0 0 0.095 0 0 0.1 0 0 0.105 0 0 0.11 0 0 0.115 0 0 0.12 0 0 0.125 0 0 0.13 0 0 0.135 0 0 0.14 0 0 0.145 0 0 0.15 0 0 0.155 0 0 0.16 0 0 0.165 0 0 0.17 0 0 0.175 0 0 0.18 0 0 0.185 0 0 0.19 0 0 0.195 0 0 0.2 0 0 0.205 0 0 0.21 0 0 0.215 0 0 0.22 0 0 0.225 0 0 0.23 0 0 0.235 0 0 0.24 0 0 0.245 0 0 0.25 0 0 0.255 0 0 0.26 0 0 0.265 0 0 0.27 0 0 0.275 0 0 0.28 0 0 0.285 0 0 0.29 0 0 0.295 0 0 0.3 0 0 0.305 0 0 0.31 0 0 0.315 0 0 0.32 0 0 0.325 0 0 0.33 0 0 0.335 0 0 0.34 0 0 0.345 0 0 0.35 0 0 0.355 0 0 0.36 0 0 0.365 0 0 0.37 0 0 0.375 0 0 0.38 0 0 0.385 0 0 0.39 0 0 0.395 0 0 0.4 0 0 0.405 0 0 0.41 0 0 0.415 0 0 0.42 0 0 0.425 0 0 0.43 0 0 0.435 0 0 0.44 0 0 0.445 0 0 0.45 0 0 0.455 0 0 0.46 0 0 0.465 0 0 0.47 0 0 0.475 0 0 0.48 0 0 0.485 0 0 0.49 0 0 0.495 0 0 0.5 0 0 0.505 0 0 0.51 0 0 0.515 0 0 0.52 0 0 0.525 0 0 0.53 0 0 0.535 0 0 0.54 0 0 0.545 0 0 0.55 0 0 0.555 0 0 0.56 0 0 0.565 0 0 0.57 0 0 0.575 0 0 0.58 0 0 0.585 0 0 0.59 0 0 0.595 0 0 0.6 0 0 0.605 0 0 0.61 0 0 0.615 0 0 0.62 0 0 0.625 0 0 0.63 0 0 0.635 0 0 0.64 0 0 0.645 0 0 0.65 0 0 0.655 0 0 0.66 0 0 0.665 0 0 0.67 0 0 0.675 0 0 0.68 0 0 0.685 0 0 0.69 0 0 0.695 0 0 0.7 0 0 0.705 0 0 0.71 0 0 0.715 0 0 0.72 0 0 0.725 0 0 0.73 0 0 0.735 0 0 0.74 0 0 0.745 0 0 0.75 0 0 0.755 0 0 0.76 0 0 0.765 0 0 0.77 0 0 0.775 0 0 0.78 0 0 0.785 0 0 0.79 0 0 0.795 0 0 0.8 0 0 0.805 0 0 0.81 0 0 0.815 0 0 0.82 0 0 0.825 0 0 0.83 0 0 0.835 0 0 0.84 0 0 0.845 0 0 0.85 0 0 0.855 0 0 0.86 0 0 0.865 0 0 0.87 0 0 0.875 0 0 0.88 0 0 0.885 0 0 0.89 0 0 0.895 0 0 0.9 0 0 0.905 0 0 0.91 0 0 0.915 0 0 0.92 0 0 0.925 0 0 0.93 0 0 0.935 0 0 0.94 0 0 0.945 0 0 0.95 0 0 0.955 0 0 0.96 0 0 0.965 0 0 0.97 0 0 0.975 0 0 0.98 0 0 0.985 0 0 0.99 0 0 0.995 0 0 1 0 0 0 0.02 0 0.005 0.02 0 0.01 0.02 0 0.015 0.02 0 0.02 0.02 0 0.025 0.02 0 0.03 0.02 0 0.035 0.02 0 0.04 0.02 0 0.045 0.02 0 0.05 0.02 0 0.055 0.02 0 0.06 0.02 0 0.065 0.02 0 0.07 0.02 0 0.075 0.02 0 0.08 0.02 0 0.085 0.02 0 0.09 0.02 0 0.095 0.02 0 0.1 0.02 0 0.105 0.02 0 0.11 0.02 0 0.115 0.02 0 0.12 0.02 0 0.125 0.02 0 0.13 0.02 0 0.135 0.02 0 0.14 0.02 0 0.145 0.02 0 0.15 0.02 0 0.155 0.02 0 0.16 0.02 0 0.165 0.02 0 0.17 0.02 0 0.175 0.02 0 0.18 0.02 0 0.185 0.02 0 0.19 0.02 0 0.195 0.02 0 0.2 0.02 0 0.205 0.02 0 0.21 0.02 0 0.215 0.02 0 0.22 0.02 0 0.225 0.02 0 0.23 0.02 0 0.235 0.02 0 0.24 0.02 0 0.245 0.02 0 0.25 0.02 0 0.255 0.02 0 0.26 0.02 0 0.265 0.02 0 0.27 0.02 0 0.275 0.02 0 0.28 0.02 0 0.285 0.02 0 0.29 0.02 0 0.295 0.02 0 0.3 0.02 0 0.305 0.02 0 0.31 0.02 0 0.315 0.02 0 0.32 0.02 0 0.325 0.02 0 0.33 0.02 0 0.335 0.02 0 0.34 0.02 0 0.345 0.02 0 0.35 0.02 0 0.355 0.02 0 0.36 0.02 0 0.365 0.02 0 0.37 0.02 0 0.375 0.02 0 0.38 0.02 0 0.385 0.02 0 0.39 0.02 0 0.395 0.02 0 0.4 0.02 0 0.405 0.02 0 0.41 0.02 0 0.415 0.02 0 0.42 0.02 0 0.425 0.02 0 0.43 0.02 0 0.435 0.02 0 0.44 0.02 0 0.445 0.02 0 0.45 0.02 0 0.455 0.02 0 0.46 0.02 0 0.465 0.02 0 0.47 0.02 0 0.475 0.02 0 0.48 0.02 0 0.485 0.02 0 0.49 0.02 0 0.495 0.02 0 0.5 0.02 0 0.505 0.02 0 0.51 0.02 0 0.515 0.02 0 0.52 0.02 0 0.525 0.02 0 0.53 0.02 0 0.535 0.02 0 0.54 0.02 0 0.545 0.02 0 0.55 0.02 0 0.555 0.02 0 0.56 0.02 0 0.565 0.02 0 0.57 0.02 0 0.575 0.02 0 0.58 0.02 0 0.585 0.02 0 0.59 0.02 0 0.595 0.02 0 0.6 0.02 0 0.605 0.02 0 0.61 0.02 0 0.615 0.02 0 0.62 0.02 0 0.625 0.02 0 0.63 0.02 0 0.635 0.02 0 0.64 0.02 0 0.645 0.02 0 0.65 0.02 0 0.655 0.02 0 0.66 0.02 0 0.665 0.02 0 0.67 0.02 0 0.675 0.02 0 0.68 0.02 0 0.685 0.02 0 0.69 0.02 0 0.695 0.02 0 0.7 0.02 0 0.705 0.02 0 0.71 0.02 0 0.715 0.02 0 0.72 0.02 0 0.725 0.02 0 0.73 0.02 0 0.735 0.02 0 0.74 0.02 0 0.745 0.02 0 0.75 0.02 0 0.755 0.02 0 0.76 0.02 0 0.765 0.02 0 0.77 0.02 0 0.775 0.02 0 0.78 0.02 0 0.785 0.02 0 0.79 0.02 0 0.795 0.02 0 0.8 0.02 0 0.805 0.02 0 0.81 0.02 0 0.815 0.02 0 0.82 0.02 0 0.825 0.02 0 0.83 0.02 0 0.835 0.02 0 0.84 0.02 0 0.845 0.02 0 0.85 0.02 0 0.855 0.02 0 0.86 0.02 0 0.865 0.02 0 0.87 0.02 0 0.875 0.02 0 0.88 0.02 0 0.885 0.02 0 0.89 0.02 0 0.895 0.02 0 0.9 0.02 0 0.905 0.02 0 0.91 0.02 0 0.915 0.02 0 0.92 0.02 0 0.925 0.02 0 0.93 0.02 0 0.935 0.02 0 0.94 0.02 0 0.945 0.02 0 0.95 0.02 0 0.955 0.02 0 0.96 0.02 0 0.965 0.02 0 0.97 0.02 0 0.975 0.02 0 0.98 0.02 0 0.985 0.02 0 0.99 0.02 0 0.995 0.02 0 1 0.02 0 0 0.04 0 0.005 0.04 0 0.01 0.04 0 0.015 0.04 0 0.02 0.04 0 0.025 0.04 0 0.03 0.04 0 0.035 0.04 0 0.04 0.04 0 0.045 0.04 0 0.05 0.04 0 0.055 0.04 0 0.06 0.04 0 0.065 0.04 0 0.07 0.04 0 0.075 0.04 0 0.08 0.04 0 0.085 0.04 0 0.09 0.04 0 0.095 0.04 0 0.1 0.04 0 0.105 0.04 0 0.11 0.04 0 0.115 0.04 0 0.12 0.04 0 0.125 0.04 0 0.13 0.04 0 0.135 0.04 0 0.14 0.04 0 0.145 0.04 0 0.15 0.04 0 0.155 0.04 0 0.16 0.04 0 0.165 0.04 0 0.17 0.04 0 0.175 0.04 0 0.18 0.04 0 0.185 0.04 0 0.19 0.04 0 0.195 0.04 0 0.2 0.04 0 0.205 0.04 0 0.21 0.04 0 0.215 0.04 0 0.22 0.04 0 0.225 0.04 0 0.23 0.04 0 0.235 0.04 0 0.24 0.04 0 0.245 0.04 0 0.25 0.04 0 0.255 0.04 0 0.26 0.04 0 0.265 0.04 0 0.27 0.04 0 0.275 0.04 0 0.28 0.04 0 0.285 0.04 0 0.29 0.04 0 0.295 0.04 0 0.3 0.04 0 0.305 0.04 0 0.31 0.04 0 0.315 0.04 0 0.32 0.04 0 0.325 0.04 0 0.33 0.04 0 0.335 0.04 0 0.34 0.04 0 0.345 0.04 0 0.35 0.04 0 0.355 0.04 0 0.36 0.04 0 0.365 0.04 0 0.37 0.04 0 0.375 0.04 0 0.38 0.04 0 0.385 0.04 0 0.39 0.04 0 0.395 0.04 0 0.4 0.04 0 0.405 0.04 0 0.41 0.04 0 0.415 0.04 0 0.42 0.04 0 0.425 0.04 0 0.43 0.04 0 0.435 0.04 0 0.44 0.04 0 0.445 0.04 0 0.45 0.04 0 0.455 0.04 0 0.46 0.04 0 0.465 0.04 0 0.47 0.04 0 0.475 0.04 0 0.48 0.04 0 0.485 0.04 0 0.49 0.04 0 0.495 0.04 0 0.5 0.04 0 0.505 0.04 0 0.51 0.04 0 0.515 0.04 0 0.52 0.04 0 0.525 0.04 0 0.53 0.04 0 0.535 0.04 0 0.54 0.04 0 0.545 0.04 0 0.55 0.04 0 0.555 0.04 0 0.56 0.04 0 0.565 0.04 0 0.57 0.04 0 0.575 0.04 0 0.58 0.04 0 0.585 0.04 0 0.59 0.04 0 0.595 0.04 0 0.6 0.04 0 0.605 0.04 0 0.61 0.04 0 0.615 0.04 0 0.62 0.04 0 0.625 0.04 0 0.63 0.04 0 0.635 0.04 0 0.64 0.04 0 0.645 0.04 0 0.65 0.04 0 0.655 0.04 0 0.66 0.04 0 0.665 0.04 0 0.67 0.04 0 0.675 0.04 0 0.68 0.04 0 0.685 0.04 0 0.69 0.04 0 0.695 0.04 0 0.7 0.04 0 0.705 0.04 0 0.71 0.04 0 0.715 0.04 0 0.72 0.04 0 0.725 0.04 0 0.73 0.04 0 0.735 0.04 0 0.74 0.04 0 0.745 0.04 0 0.75 0.04 0 0.755 0.04 0 0.76 0.04 0 0.765 0.04 0 0.77 0.04 0 0.775 0.04 0 0.78 0.04 0 0.785 0.04 0 0.79 0.04 0 0.795 0.04 0 0.8 0.04 0 0.805 0.04 0 0.81 0.04 0 0.815 0.04 0 0.82 0.04 0 0.825 0.04 0 0.83 0.04 0 0.835 0.04 0 0.84 0.04 0 0.845 0.04 0 0.85 0.04 0 0.855 0.04 0 0.86 0.04 0 0.865 0.04 0 0.87 0.04 0 0.875 0.04 0 0.88 0.04 0 0.885 0.04 0 0.89 0.04 0 0.895 0.04 0 0.9 0.04 0 0.905 0.04 0 0.91 0.04 0 0.915 0.04 0 0.92 0.04 0 0.925 0.04 0 0.93 0.04 0 0.935 0.04 0 0.94 0.04 0 0.945 0.04 0 0.95 0.04 0 0.955 0.04 0 0.96 0.04 0 0.965 0.04 0 0.97 0.04 0 0.975 0.04 0 0.98 0.04 0 0.985 0.04 0 0.99 0.04 0 0.995 0.04 0 1 0.04 0 0 0.06 0 0.005 0.06 0 0.01 0.06 0 0.015 0.06 0 0.02 0.06 0 0.025 0.06 0 0.03 0.06 0 0.035 0.06 0 0.04 0.06 0 0.045 0.06 0 0.05 0.06 0 0.055 0.06 0 0.06 0.06 0 0.065 0.06 0 0.07 0.06 0 0.075 0.06 0 0.08 0.06 0 0.085 0.06 0 0.09 0.06 0 0.095 0.06 0 0.1 0.06 0 0.105 0.06 0 0.11 0.06 0 0.115 0.06 0 0.12 0.06 0 0.125 0.06 0 0.13 0.06 0 0.135 0.06 0 0.14 0.06 0 0.145 0.06 0 0.15 0.06 0 0.155 0.06 0 0.16 0.06 0 0.165 0.06 0 0.17 0.06 0 0.175 0.06 0 0.18 0.06 0 0.185 0.06 0 0.19 0.06 0 0.195 0.06 0 0.2 0.06 0 0.205 0.06 0 0.21 0.06 0 0.215 0.06 0 0.22 0.06 0 0.225 0.06 0 0.23 0.06 0 0.235 0.06 0 0.24 0.06 0 0.245 0.06 0 0.25 0.06 0 0.255 0.06 0 0.26 0.06 0 0.265 0.06 0 0.27 0.06 0 0.275 0.06 0 0.28 0.06 0 0.285 0.06 0 0.29 0.06 0 0.295 0.06 0 0.3 0.06 0 0.305 0.06 0 0.31 0.06 0 0.315 0.06 0 0.32 0.06 0 0.325 0.06 0 0.33 0.06 0 0.335 0.06 0 0.34 0.06 0 0.345 0.06 0 0.35 0.06 0 0.355 0.06 0 0.36 0.06 0 0.365 0.06 0 0.37 0.06 0 0.375 0.06 0 0.38 0.06 0 0.385 0.06 0 0.39 0.06 0 0.395 0.06 0 0.4 0.06 0 0.405 0.06 0 0.41 0.06 0 0.415 0.06 0 0.42 0.06 0 0.425 0.06 0 0.43 0.06 0 0.435 0.06 0 0.44 0.06 0 0.445 0.06 0 0.45 0.06 0 0.455 0.06 0 0.46 0.06 0 0.465 0.06 0 0.47 0.06 0 0.475 0.06 0 0.48 0.06 0 0.485 0.06 0 0.49 0.06 0 0.495 0.06 0 0.5 0.06 0 0.505 0.06 0 0.51 0.06 0 0.515 0.06 0 0.52 0.06 0 0.525 0.06 0 0.53 0.06 0 0.535 0.06 0 0.54 0.06 0 0.545 0.06 0 0.55 0.06 0 0.555 0.06 0 0.56 0.06 0 0.565 0.06 0 0.57 0.06 0 0.575 0.06 0 0.58 0.06 0 0.585 0.06 0 0.59 0.06 0 0.595 0.06 0 0.6 0.06 0 0.605 0.06 0 0.61 0.06 0 0.615 0.06 0 0.62 0.06 0 0.625 0.06 0 0.63 0.06 0 0.635 0.06 0 0.64 0.06 0 0.645 0.06 0 0.65 0.06 0 0.655 0.06 0 0.66 0.06 0 0.665 0.06 0 0.67 0.06 0 0.675 0.06 0 0.68 0.06 0 0.685 0.06 0 0.69 0.06 0 0.695 0.06 0 0.7 0.06 0 0.705 0.06 0 0.71 0.06 0 0.715 0.06 0 0.72 0.06 0 0.725 0.06 0 0.73 0.06 0 0.735 0.06 0 0.74 0.06 0 0.745 0.06 0 0.75 0.06 0 0.755 0.06 0 0.76 0.06 0 0.765 0.06 0 0.77 0.06 0 0.775 0.06 0 0.78 0.06 0 0.785 0.06 0 0.79 0.06 0 0.795 0.06 0 0.8 0.06 0 0.805 0.06 0 0.81 0.06 0 0.815 0.06 0 0.82 0.06 0 0.825 0.06 0 0.83 0.06 0 0.835 0.06 0 0.84 0.06 0 0.845 0.06 0 0.85 0.06 0 0.855 0.06 0 0.86 0.06 0 0.865 0.06 0 0.87 0.06 0 0.875 0.06 0 0.88 0.06 0 0.885 0.06 0 0.89 0.06 0 0.895 0.06 0 0.9 0.06 0 0.905 0.06 0 0.91 0.06 0 0.915 0.06 0 0.92 0.06 0 0.925 0.06 0 0.93 0.06 0 0.935 0.06 0 0.94 0.06 0 0.945 0.06 0 0.95 0.06 0 0.955 0.06 0 0.96 0.06 0 0.965 0.06 0 0.97 0.06 0 0.975 0.06 0 0.98 0.06 0 0.985 0.06 0 0.99 0.06 0 0.995 0.06 0 1 0.06 0 0 0.08 0 0.005 0.08 0 0.01 0.08 0 0.015 0.08 0 0.02 0.08 0 0.025 0.08 0 0.03 0.08 0 0.035 0.08 0 0.04 0.08 0 0.045 0.08 0 0.05 0.08 0 0.055 0.08 0 0.06 0.08 0 0.065 0.08 0 0.07 0.08 0 0.075 0.08 0 0.08 0.08 0 0.085 0.08 0 0.09 0.08 0 0.095 0.08 0 0.1 0.08 0 0.105 0.08 0 0.11 0.08 0 0.115 0.08 0 0.12 0.08 0 0.125 0.08 0 0.13 0.08 0 0.135 0.08 0 0.14 0.08 0 0.145 0.08 0 0.15 0.08 0 0.155 0.08 0 0.16 0.08 0 0.165 0.08 0
[...]
			<PointData Scalars="VitesseX">
				<DataArray Name="VitesseX" type="Float32" format="ascii">
 0 -9.75285e-15 3.91558e-15 -1.09609e-14 5.33051e-15 -2.07849e-14 1.0012e-14 -6.8748e-14 -4.5293e-14 -1.59856e-14 -1.00181e-14 -3.28857e-14 -8.1203e-15 -3.13997e-14 -2.23065e-14 -3.34651e-14 3.5015e-14 -7.34363e-14 9.16769e-15 -5.4201e-14 -8.90787e-14 1.95557e-14 -9.31128e-14 -8.57545e-14 -5.87734e-14 -1.41544e-13 -1.15316e-13 -1.07669e-13 -4.24897e-14 -1.83503e-13 -2.20218e-14 -6.66276e-14 1.22021e-13 -9.2753e-14 -1.76447e-13 -9.83136e-14 -6.3992e-14 -9.28445e-14 -1.84731e-13 -6.51916e-14 -2.27856e-13 -1.82488e-13 -6.36287e-14 -5.13967e-14 -2.97911e-13 2.37016e-13 -2.22853e-13 -1.48567e-14 -1.90738e-13 -7.93632e-15 -5.62378e-16 -6.89382e-14 9.39121e-13 6.16365e-12 4.51233e-11 3.04448e-10 1.93581e-09 1.15537e-08 6.45156e-08 3.35901e-07 1.62431e-06 7.26239e-06 2.98635e-05 0.000112232 0.000382581 0.00117243 0.00319792 0.00768849 0.016187 0.0298636 0.0488021 0.0720326 0.0982419 0.126357 0.155688 0.185833 0.216497 0.247514 0.278794 0.310291 0.341986 0.373878 0.405984 0.438303 0.470338 0.501789 0.533134 0.564014 0.594605 0.625004 0.654775 0.684476 0.713421 0.742246 0.770848 0.798245 0.825608 0.850527 0.873409 0.893895 0.908679 0.920249 0.927749 0.930605 0.932409 0.932857 0.932746 0.932489 0.932138 0.931732 0.931286 0.930811 0.930333 0.92993 0.929637 0.929349 0.929081 0.928873 0.928718 0.928599 0.928504 0.928426 0.928357 0.928295 0.928238 0.928189 0.928145 0.928106 0.928072 0.928042 0.928015 0.927996 0.927988 0.927985 0.927959 0.927846 0.927606 0.927136 0.926123 0.923969 0.919548 0.910769 0.893978 0.863455 0.8117 0.731516 0.620309 0.485694 0.344906 0.218588 0.121479 0.0589078 0.0254509 0.010197 0.00392709 0.00148418 0.000555538 0.000206654 7.64748e-05 2.81551e-05 1.03091e-05 3.75243e-06 1.35709e-06 4.87399e-07 1.7375e-07 6.14498e-08 2.15514e-08 7.49192e-09 2.58038e-09 8.80439e-10 2.97064e-10 9.94038e-11 3.2745e-11 1.01244e-11 3.32265e-12 5.15176e-13 4.31569e-13 -7.20512e-13 -2.04547e-13 -3.36974e-13 -5.92495e-13 5.89366e-13 1.15054e-13 -5.90246e-13 -3.289e-13 6.59084e-13 -4.48314e-13 6.50858e-13 -5.26978e-13 -1.50376e-13 2.25471e-13 4.83471e-13 1.44823e-13 -3.56703e-13 7.07355e-13 -1.99421e-13 -1.32588e-14 -2.5657e-13 6.15656e-13 1.03237e-12 0 0 7.82085e-15 -1.26651e-15 1.21894e-14 -9.24145e-15 -1.06774e-14 -2.53722e-14 -1.50382e-14 -3.03945e-14 -3.21772e-14 -5.52109e-14 8.71679e-15 -1.92078e-14 -3.00359e-14 -4.2569e-14 2.76248e-14 -3.75077e-14 1.41752e-14 -8.09124e-14 -2.17593e-14 -2.05403e-14 -7.84311e-14 -7.02874e-14 -1.00718e-13 -1.05202e-13 -8.75229e-14 -9.09947e-14 -1.13755e-13 -1.90922e-13 3.44669e-14 -7.7541e-14 -7.53191e-14 -1.07863e-13 5.93367e-14 -8.78961e-14 -1.0982e-13 -1.29612e-13 -1.49283e-13 -8.2972e-14 -1.69676e-13 -4.30403e-14 -1.62389e-13 -4.35692e-14 -1.63757e-13 2.25268e-14 -2.29676e-13 8.49818e-14 -9.13453e-14 5.39625e-15 -3.03982e-14 -4.61636e-14 8.10484e-14 7.4247e-13 6.34729e-12 4.48497e-11 3.04533e-10 1.93604e-09 1.15537e-08 6.45158e-08 3.359e-07 1.62431e-06 7.26239e-06 2.98635e-05 0.000112232 0.000382581 0.00117243 0.00319792 0.00768849 0.016187 0.0298636 0.0488021 0.0720326 0.0982419 0.126357 0.155688 0.185833 0.216497 0.247514 0.278794 0.310291 0.341986 0.373878 0.405984 0.438303 0.470338 0.501789 0.533134 0.564014 0.594605 0.625004 0.654775 0.684476 0.713421 0.742246 0.770848 0.798245 0.825608 0.850527 0.873409 0.893895 0.908679 0.920249 0.927749 0.930605 0.932409 0.932857 0.932746 0.932489 0.932138 0.931732 0.931286 0.930811 0.930333 0.92993 0.929637 0.929349 0.929081 0.928873 0.928718 0.928599 0.928504 0.928426 0.928357 0.928295 0.928238 0.928189 0.928145 0.928106 0.928072 0.928042 0.928015 0.927996 0.927988 0.927985 0.927959 0.927846 0.927606 0.927136 0.926123 0.923969 0.919548 0.910769 0.893978 0.863455 0.8117 0.731516 0.620309 0.485694 0.344906 0.218588 0.121479 0.0589078 0.0254509 0.010197 0.00392709 0.00148418 0.000555538 0.000206654 7.64748e-05 2.81551e-05 1.03091e-05 3.75243e-06 1.35709e-06 4.87399e-07 1.7375e-07 6.14498e-08 2.15511e-08 7.49222e-09 2.5807e-09 8.80115e-10 2.97545e-10 9.90795e-11 3.25363e-11 1.06051e-11 2.90208e-12 9.23761e-13 -5.861e-13 -6.14775e-14 -3.10257e-13 1.78982e-14 -6.49503e-14 -5.2391e-13 -9.38367e-14 -4.8661e-14 2.1642e-13 -2.96643e-13 2.9501e-13 -3.39955e-13 2.4924e-13 2.85571e-13 -2.28158e-13 -1.78199e-13 4.112e-13 7.38935e-13 -4.02541e-13 2.34333e-13 -7.99044e-14 2.35005e-13 2.09588e-13 -2.9418e-13 0 0 8.14254e-15 2.12298e-14 3.02443e-15 7.56025e-15 -1.19201e-14 -7.77835e-15 1.25616e-15 -7.28013e-15 -1.59684e-14 -5.37137e-15 -2.37212e-14 -2.36823e-14 -3.29675e-14 -3.96844e-14 -6.71894e-14 6.46523e-15 -7.61576e-14 -2.64357e-14 -5.17426e-14 -9.06331e-14 -1.2359e-15 -9.1262e-14 -7.75332e-14 -7.45493e-14 -9.30362e-14 -1.34269e-13 -1.45708e-13 -5.80116e-14 -6.62708e-14 8.27335e-15 -3.94941e-14 -4.38083e-14 -1.02896e-13 -4.98208e-14 -2.14815e-13 -7.25298e-14 -7.03342e-14 -1.34722e-13 -6.08911e-14 -1.00329e-13 -1.70896e-13 7.54812e-14 -7.92082e-14 -4.42884e-14 6.29347e-14 -2.24704e-13 1.94064e-14 -8.23492e-14 -6.81881e-14 -6.16042e-14 1.37821e-13 9.27986e-13 6.25356e-12 4.52678e-11 3.04315e-10 1.93611e-09 1.15539e-08 6.45154e-08 3.359e-07 1.62431e-06 7.26239e-06 2.98635e-05 0.000112232 0.000382581 0.00117243 0.00319792 0.00768849 0.016187 0.0298636 0.0488021 0.0720326 0.0982419 0.126357 0.155688 0.185833 0.216497 0.247514 0.278794 0.310291 0.341986 0.373878 0.405984 0.438303 0.470338 0.501789 0.533134 0.564014 0.594605 0.625004 0.654775 0.684476 0.713421 0.742246 0.770848 0.798245 0.825608 0.850527 0.873409 0.893895 0.908679 0.920249 0.927749 0.930605 0.932409 0.932857 0.932746 0.932489 0.932138 0.931732 0.931286 0.930811 0.930333 0.92993 0.929637 0.929349 0.929081 0.928873 0.928718 0.928599 0.928504 0.928426 0.928357 0.928295 0.928238 0.928189 0.928145 0.928106 0.928072 0.928042 0.928015 0.927996 0.927988 0.927985 0.927959 0.927846 0.927606 0.927136 0.926123 0.923969 0.919548 0.910769 0.893978 0.863455 0.8117 0.731516 0.620309 0.485694 0.344906 0.218588 0.121479 0.0589078 0.0254509 0.010197 0.00392709 0.00148418 0.000555538 0.000206654 7.64748e-05 2.81551e-05 1.03091e-05 3.75243e-06 1.35709e-06 4.87399e-07 1.7375e-07 6.145e-08 2.15513e-08 7.49211e-09 2.58068e-09 8.80647e-10 2.96936e-10 9.91965e-11 3.26723e-11 1.02362e-11 3.11444e-12 5.20874e-13 -8.86797e-14 1.98048e-13 -1.94044e-13 -3.31816e-13 -9.44302e-14 -4.144e-13 -5.26038e-13 -5.52784e-14 1.88463e-13 5.59533e-16 -1.96131e-13 2.33435e-13 -1.99413e-13 2.00356e-13 1.66105e-13 -1.36344e-13 2.58815e-13 -2.38112e-13 6.08952e-13 3.58851e-13 1.72199e-13 2.03561e-13 5.98434e-13 -3.54734e-14 0 0 1.11172e-16 1.86197e-14 8.20412e-15 6.5073e-15 7.18092e-15 1.9728e-14 -8.29215e-15 -8.22343e-15 -3.14984e-15 1.58349e-14 -1.52437e-14 -4.62496e-14 -2.50688e-14 -7.55128e-14 -6.6824e-14 -4.5514e-14 -7.76646e-14 -4.71291e-14 -8.48168e-14 5.65942e-15 -4.38644e-14 -8.26203e-14 -1.0747e-13 -4.21547e-14 -4.33866e-14 -1.79565e-13 -6.80768e-14 -4.33863e-14 8.10826e-15 -3.49999e-14 3.8329e-14 -9.50781e-14 -8.68025e-14 -1.38785e-13 -1.27072e-13 -6.11312e-14 -6.28699e-14 -1.80686e-13 -1.72523e-13 -5.29959e-14 -7.14608e-14 -1.79538e-13 1.07881e-13 -2.91747e-14 -1.03693e-13 -1.12033e-13 -6.15061e-14 -1.37999e-14 -7.88109e-15 -6.87341e-14 1.01124e-13 9.76784e-13 6.33933e-12 4.53294e-11 3.046e-10 1.93588e-09 1.15538e-08 6.45156e-08 3.359e-07 1.62431e-06 7.26239e-06 2.98635e-05 0.000112232 0.000382581 0.00117243 0.00319792 0.00768849 0.016187 0.0298636 0.0488021 0.0720326 0.0982419 0.126357 0.155688 0.185833 0.216497 0.247514 0.278794 0.310291 0.341986 0.373878 0.405984 0.438303 0.470338 0.501789 0.533134 0.564014 0.594605 0.625004 0.654775 0.684476 0.713421 0.742246 0.770848 0.798245 0.825608 0.850527 0.873409 0.893895 0.908679 0.920249 0.927749 0.930605 0.932409 0.932857 0.932746 0.932489 0.932138 0.931732 0.931286 0.930811 0.930333 0.92993 0.929637 0.929349 0.929081 0.928873 0.928718 0.928599 0.928504 0.928426 0.928357 0.928295 0.928238 0.928189 0.928145 0.928106 0.928072 0.928042 0.928015 0.927996 0.927988 0.927985 0.927959 0.927846 0.927606 0.927136 0.926123 0.923969 0.919548 0.910769 0.893978 0.863455 0.8117 0.731516 0.620309 0.485694 0.344906 0.218588 0.121479 0.0589078 0.0254509 0.010197 0.00392709 0.00148418 0.000555538 0.000206654 7.64748e-05 2.81551e-05 1.03091e-05 3.75243e-06 1.35709e-06 4.87399e-07 1.7375e-07 6.14503e-08 2.15514e-08 7.49205e-09 2.58058e-09 8.80293e-10 2.97136e-10 9.9097e-11 3.25193e-11 1.03903e-11 2.91062e-12 3.52577e-13 2.2784e-13 -5.65816e-14 -1.71542e-14 -8.19934e-13 -5.26569e-14 1.22887e-13 -3.81621e-14 -4.66809e-13 -4.48709e-13 7.7434e-13 -2.33817e-13 -1.47512e-14 -3.35172e-13 -4.21738e-13 1.25857e-12 -6.56923e-13 4.08618e-13 2.99992e-13 -2.94918e-13 -6.67572e-15 4.46261e-13 5.9819e-13 1.45173e-13 5.18908e-13 0 0 5.51305e-15 -7.94556e-16 1.37537e-14 -8.88373e-15 7.30583e-15 -6.91806e-15 7.48753e-15 -2.01341e-15 -3.55925e-15 -4.13639e-14 6.36696e-15 -5.59397e-14 -6.53457e-14 -8.56444e-14 -2.54178e-14 -9.29819e-14 -2.39102e-14 -5.90723e-14 -6.47614e-14 3.52313e-14 -1.15546e-13 -3.47964e-14 -1.35633e-13 -4.16528e-14 -2.33055e-15 -5.42719e-14 -5.7661e-14 -1.74025e-13 9.85094e-14 -3.12714e-14 -3.89502e-14 -1.62255e-13 7.90397e-14 -6.32985e-14 -2.4002e-14 -5.99836e-14 -1.53865e-13 -1.49729e-13 -2.82236e-13 -7.92604e-14 -1.13029e-13 -2.29971e-13 -5.1113e-14 6.68498e-14 -3.12091e-13 1.96127e-13 -1.94191e-13 6.93624e-14 -4.90668e-14 -1.69978e-14 1.95705e-13 8.13179e-13 6.50046e-12 4.50533e-11 3.04818e-10 1.93613e-09 1.15537e-08 6.45158e-08 3.359e-07 1.62431e-06 7.26239e-06 2.98635e-05 0.000112232 0.000382581 0.00117243 0.00319792 0.00768849 0.016187 0.0298636 0.0488021 0.0720326 0.0982419 0.126357 0.155688 0.185833 0.216497 0.247514 0.278794 0.310291 0.341986 0.373878 0.405984 0.438303 0.470338 0.501789 0.533134 0.564014 0.594605 0.625004 0.654775 0.684476 0.713421 0.742246 0.770848 0.798245 0.825608 0.850527 0.873409 0.893895 0.908679 0.920249 0.927749 0.930605 0.932409 0.932857 0.932746 0.932489 0.932138 0.931732 0.931286 0.930811 0.930333 0.92993 0.929637 0.929349 0.929081 0.928873 0.928718 0.928599 0.928504 0.928426 0.928357 0.928295 0.928238 0.928189 0.928145 0.928106 0.928072 0.928042 0.928015 0.927996 0.927988 0.927985 0.927959 0.927846 0.927606 0.927136 0.926123 0.923969 0.919548 0.910769 0.893978 0.863455 0.8117 0.731516 0.620309 0.485694 0.344906 0.218588 0.121479 0.0589078 0.0254509 0.010197 0.00392709 0.00148418 0.000555538 0.000206654 7.64748e-05 2.81551e-05 1.03091e-05 3.75243e-06 1.35709e-06 4.87399e-07 1.73751e-07 6.14501e-08 2.15513e-08 7.49236e-09 2.58064e-09 8.7999e-10 2.97626e-10 9.90466e-11 3.23429e-11 1.06304e-11 2.74398e-12 7.4112e-13 -3.17719e-13 1.0341e-13 2.30708e-14 -6.45955e-13 1.45516e-13 -2.61689e-13 2.32056e-13 -2.78887e-13 -2.01679e-13 -7.74538e-14 1.77775e-13 -7.82433e-13 1.90757e-13 -1.85511e-13 -4.26773e-14 -2.27187e-13 1.27423e-13 6.02768e-13 -8.25398e-13 1.21466e-13 3.50305e-13 4.52379e-13 -2.18312e-13 -3.0561e-13 0 0 1.69427e-15 1.00797e-14 -1.81917e-14 8.15184e-15 -2.30205e-14 -8.09255e-15 -4.60001e-15 1.33559e-14 1.56131e-14 -2.47365e-14 -5.45405e-14 -3.64496e-14 -1.17817e-13 -3.68006e-14 -1.40281e-13 2.80251e-14 -1.46593e-13 9.42346e-14 -7.40568e-14 -1.7012e-13 3.0583e-14 -3.94141e-14 -9.57098e-14 3.53622e-15 -7.04581e-14 4.87237e-14 -1.50745e-13 -3.79458e-14 -2.04176e-13 1.57064e-13 -1.49536e-13 1.15775e-13 -8.55332e-14 5.06771e-14 -1.02163e-13 5.24684e-14 -1.16937e-13 -2.26316e-13 -6.70465e-14 -3.94963e-13 -2.82639e-13 7.36069e-14 -2.00286e-13 -2.39493e-13 4.05441e-13 -2.25904e-13 -5.87227e-14 -1.99904e-13 -1.65888e-13 7.20292e-14 2.33768e-13 9.82942e-13 6.29846e-12 4.54072e-11 3.04448e-10 1.93645e-09 1.15541e-08 6.45154e-08 3.359e-07 1.62431e-06 7.26239e-06 2.98635e-05 0.000112232 0.000382581 0.00117243 0.00319792 0.00768849 0.016187 0.0298636 0.0488021 0.0720326 0.0982419 0.126357 0.155688 0.185833 0.216497 0.247514 0.278794 0.310291 0.341986 0.373878 0.405984 0.438303 0.470338 0.501789 0.533134 0.564014 0.594605 0.625004 0.654775 0.684476 0.713421 0.742246 0.770848 0.798245 0.825608 0.850527 0.873409 0.893895 0.908679 0.920249 0.927749 0.930605 0.932409 0.932857 0.932746 0.932489 0.932138 0.931732 0.931286 0.930811 0.930333 0.92993 0.929637 0.929349 0.929081 0.928873 0.928718 0.928599 0.928504 0.928426 0.928357 0.928295 0.928238 0.928189 0.928145 0.928106 0.928072 0.928042 0.928015 0.927996 0.927988 0.927985 0.927959 0.927846 0.927606 0.927136 0.926123 0.923969 0.919548 0.910769 0.893978 0.863455 0.8117 0.731516 0.620309 0.485694 0.344906 0.218588 0.121479 0.0589078 0.0254509 0.010197 0.00392709 0.00148418 0.000555538 0.000206654 7.64748e-05 2.81551e-05 1.03091e-05 3.75243e-06 1.35709e-06 4.87399e-07 1.7375e-07 6.14498e-08 2.15515e-08 7.49233e-09 2.58045e-09 8.80896e-10 2.96827e-10 9.95371e-11 3.26643e-11 9.86675e-12 3.41409e-12 4.8649e-13 3.35291e-13 1.18522e-13 1.08329e-13 -6.88446e-13 -2.55109e-13 3.92357e-14 -2.08912e-13 -2.27637e-13 1.09248e-13 -4.50098e-13 -6.07412e-13 2.62273e-13 -3.72426e-13 1.51648e-13 -1.58849e-12 1.42665e-12 -7.22338e-13 -1.70525e-12 1.66938e-12 3.05897e-13 2.99035e-13 -6.11077e-13 6.66378e-13 -9.92478e-14 0
				</DataArray>
				<DataArray Name="VitesseY" type="Float32" format="ascii">