<?xml version="1.0"?>
<VTKFile type="PolyData">
	<PolyData>
		<Piece NumberOfPoints="1206" NumberOfPolys="1000">
			<Points>
				<DataArray type="Float32" NumberOfComponents="3" format="ascii">
 0 0 0 0.005 0 0 0.01 0 0 0.015 0 0 0.02 0 0 0.025 0 0 0.03 0 0 0.035 0 0 0.04 0 0 0.045 0 0 0.05 0 0 0.055 0 0 0.06 0 0 0.065 0 0 0.07 0 0 0.075 0 0 0.08 0 0 0.085 0 0 0.09 0 0 0.095 0 0 0.1 0 0 0.105 0 0 0.11 0 0 0.115 0 0 0.12 0 0 0.125 0 0 0.13 0 0 0.135 0 0 0.14 0 0 0.145 0 0 0.15 0 0 0.155 0 0 0.16 0 0 0.165 0 0 0.17 0 0 0.175 0 0 0.18 0 0 0.185 0 0 0.19 0 0 0.195 0 0 0.2 0 0 0.205 0 0 0.21 0 0 0.215 0 0 0.22 0 0 0.225 0 0 0.23 0 0 0.235 0 0 0.24 0 0 0.245 0 0 0.25 0 0 0.255 0 0 0.26 0 0 0.265 0 0 0.27 0 0 0.275 0 0 0.28 0 0 0.285 0 0 0.29 0 0 0.295 0 0 0.3 0 0 0.305 0 0 0.31 0 0 0.315 0 0 0.32 0 0 0.325 0 0 0.33 0 0 0.335 0 0 0.34 0 0 0.345 0 0 0.35 0 0 0.355 0 0 0.36 0 0 0.365 0 0 0.37 0 0 0.375 0 0 0.38 0 0 0.385 0 0 0.39 0 0 0.395 0 0 0.4 0 0 0.405 0 0 0.41 0 0 0.415 0 0 0.42 0 0 0.425 0 0 0.43 0 0 0.435 0 0 0.44 0 0 0.445 0 0 0.45 0 0 0.455 0 0 0.46 0 0 0.465 0 0 0.47 0 0 0.475 0 0 0.48 0 0 0.485 0 0 0.49 0 0 0.495 0 0 0.5 0 0 0.505 0 0 0.51 0 0 0.515 0 0 0.52 0 0 0.525 0 0 0.53 0 0 0.535 0 0 0.54 0 0 0.545 0 0 0.55 0 0 0.555 0 0 0.56 0 0 0.565 0 0 0.57 0 0 0.575 0 0 0.58 0 0 0.585 0 0 0.59 0 0 0.595 0 0 0.6 0 0 0.605 0 0 0.61 0 0 0.615 0 0 0.62 0 0 0.625 0 0 0.63 0 0 0.635 0 0 0.64 0 0 0.645 0 0 0.65 0 0 0.655 0 0 0.66 0 0 0.665 0 0 0.67 0 0 0.675 0 0 0.68 0 0 0.685 0 0 0.69 0 0 0.695 0 0 0.7 0 0 0.705 0 0 0.71 0 0 0.715 0 0 0.72 0 0 0.725 0 0 0.73 0 0 0.735 0 0 0.74 0 0 0.745 0 0 0.75 0 0 0.755 0 0 0.76 0 0 0.765 0 0 0.77 0 0 0.775 0 0 0.78 0 0 0.785 0 0 0.79 0 0 0.795 0 0 0.8 0 0 0.805 0 0 0.81 0 0 0.815 0 0 0.82 0 0 0.825 0 0 0.83 0 0 0.835 0 0 0.84 0 0 0.845 0 0 0.85 0 0 0.855 0 0 0.86 0 0 0.865 0 0 0.87 0 0 0.875 0 0 0.88 0 0 0.885 0 0 0.89 0 0 0.895 0 0 0.9 0 0 0.905 0 0 0.91 0 0 0.915 0 0 0.92 0 0 0.925 0 0 0.93 0 0 0.935 0 0 0.94 0 0 0.945 0 0 0.95 0 0 0.955 0 0 0.96 0 0 0.965 0 0 0.97 0 0 0.975 0 0 0.98 0 0 0.985 0 0 0.99 0 0 0.995 0 0 1 0 0 0 0.02 0 0.005 0.02 0 0.01 0.02 0 0.015 0.02 0 0.02 0.02 0 0.025 0.02 0 0.03 0.02 0 0.035 0.02 0 0.04 0.02 0 0.045 0.02 0 0.05 0.02 0 0.055 0.02 0 0.06 0.02 0 0.065 0.02 0 0.07 0.02 0 0.075 0.02 0 0.08 0.02 0 0.085 0.02 0 0.09 0.02 0 0.095 0.02 0 0.1 0.02 0 0.105 0.02 0 0.11 0.02 0 0.115 0.02 0 0.12 0.02 0 0.125 0.02 0 0.13 0.02 0 0.135 0.02 0 0.14 0.02 0 0.145 0.02 0 0.15 0.02 0 0.155 0.02 0 0.16 0.02 0 0.165 0.02 0 0.17 0.02 0 0.175 0.02 0 0.18 0.02 0 0.185 0.02 0 0.19 0.02 0 0.195 0.02 0 0.2 0.02 0 0.205 0.02 0 0.21 0.02 0 0.215 0.02 0 0.22 0.02 0 0.225 0.02 0 0.23 0.02 0 0.235 0.02 0 0.24 0.02 0 0.245 0.02 0 0.25 0.02 0 0.255 0.02 0 0.26 0.02 0 0.265 0.02 0 0.27 0.02 0 0.275 0.02 0 0.28 0.02 0 0.285 0.02 0 0.29 0.02 0 0.295 0.02 0 0.3 0.02 0 0.305 0.02 0 0.31 0.02 0 0.315 0.02 0 0.32 0.02 0 0.325 0.02 0 0.33 0.02 0 0.335 0.02 0 0.34 0.02 0 0.345 0.02 0 0.35 0.02 0 0.355 0.02 0 0.36 0.02 0 0.365 0.02 0 0.37 0.02 0 0.375 0.02 0 0.38 0.02 0 0.385 0.02 0 0.39 0.02 0 0.395 0.02 0 0.4 0.02 0 0.405 0.02 0 0.41 0.02 0 0.415 0.02 0 0.42 0.02 0 0.425 0.02 0 0.43 0.02 0 0.435 0.02 0 0.44 0.02 0 0.445 0.02 0 0.45 0.02 0 0.455 0.02 0 0.46 0.02 0 0.465 0.02 0 0.47 0.02 0 0.475 0.02 0 0.48 0.02 0 0.485 0.02 0 0.49 0.02 0 0.495 0.02 0 0.5 0.02 0 0.505 0.02 0 0.51 0.02 0 0.515 0.02 0 0.52 0.02 0 0.525 0.02 0 0.53 0.02 0 0.535 0.02 0 0.54 0.02 0 0.545 0.02 0 0.55 0.02 0 0.555 0.02 0 0.56 0.02 0 0.565 0.02 0 0.57 0.02 0 0.575 0.02 0 0.58 0.02 0 0.585 0.02 0 0.59 0.02 0 0.595 0.02 0 0.6 0.02 0 0.605 0.02 0 0.61 0.02 0 0.615 0.02 0 0.62 0.02 0 0.625 0.02 0 0.63 0.02 0 0.635 0.02 0 0.64 0.02 0 0.645 0.02 0 0.65 0.02 0 0.655 0.02 0 0.66 0.02 0 0.665 0.02 0 0.67 0.02 0 0.675 0.02 0 0.68 0.02 0 0.685 0.02 0 0.69 0.02 0 0.695 0.02 0 0.7 0.02 0 0.705 0.02 0 0.71 0.02 0 0.715 0.02 0 0.72 0.02 0 0.725 0.02 0 0.73 0.02 0 0.735 0.02 0 0.74 0.02 0 0.745 0.02 0 0.75 0.02 0 0.755 0.02 0 0.76 0.02 0 0.765 0.02 0 0.77 0.02 0 0.775 0.02 0 0.78 0.02 0 0.785 0.02 0 0.79 0.02 0 0.795 0.02 0 0.8 0.02 0 0.805 0.02 0 0.81 0.02 0 0.815 0.02 0 0.82 0.02 0 0.825 0.02 0 0.83 0.02 0 0.835 0.02 0 0.84 0.02 0 0.845 0.02 0 0.85 0.02 0 0.855 0.02 0 0.86 0.02 0 0.865 0.02 0 0.87 0.02 0 0.875 0.02 0 0.88 0.02 0 0.885 0.02 0 0.89 0.02 0 0.895 0.02 0 0.9 0.02 0 0.905 0.02 0 0.91 0.02 0 0.915 0.02 0 0.92 0.02 0 0.925 0.02 0 0.93 0.02 0 0.935 0.02 0 0.94 0.02 0 0.945 0.02 0 0.95 0.02 0 0.955 0.02 0 0.96 0.02 0 0.965 0.02 0 0.97 0.02 0 0.975 0.02 0 0.98 0.02 0 0.985 0.02 0 0.99 0.02 0 0.995 0.02 0 1 0.02 0 0 0.04 0 0.005 0.04 0 0.01 0.04 0 0.015 0.04 0 0.02 0.04 0 0.025 0.04 0 0.03 0.04 0 0.035 0.04 0 0.04 0.04 0 0.045 0.04 0 0.05 0.04 0 0.055 0.04 0 0.06 0.04 0 0.065 0.04 0 0.07 0.04 0 0.075 0.04 0 0.08 0.04 0 0.085 0.04 0 0.09 0.04 0 0.095 0.04 0 0.1 0.04 0 0.105 0.04 0 0.11 0.04 0 0.115 0.04 0 0.12 0.04 0 0.125 0.04 0 0.13 0.04 0 0.135 0.04 0 0.14 0.04 0 0.145 0.04 0 0.15 0.04 0 0.155 0.04 0 0.16 0.04 0 0.165 0.04 0 0.17 0.04 0 0.175 0.04 0 0.18 0.04 0 0.185 0.04 0 0.19 0.04 0 0.195 0.04 0 0.2 0.04 0 0.205 0.04 0 0.21 0.04 0 0.215 0.04 0 0.22 0.04 0 0.225 0.04 0 0.23 0.04 0 0.235 0.04 0 0.24 0.04 0 0.245 0.04 0 0.25 0.04 0 0.255 0.04 0 0.26 0.04 0 0.265 0.04 0 0.27 0.04 0 0.275 0.04 0 0.28 0.04 0 0.285 0.04 0 0.29 0.04 0 0.295 0.04 0 0.3 0.04 0 0.305 0.04 0 0.31 0.04 0 0.315 0.04 0 0.32 0.04 0 0.325 0.04 0 0.33 0.04 0 0.335 0.04 0 0.34 0.04 0 0.345 0.04 0 0.35 0.04 0 0.355 0.04 0 0.36 0.04 0 0.365 0.04 0 0.37 0.04 0 0.375 0.04 0 0.38 0.04 0 0.385 0.04 0 0.39 0.04 0 0.395 0.04 0 0.4 0.04 0 0.405 0.04 0 0.41 0.04 0 0.415 0.04 0 0.42 0.04 0 0.425 0.04 0 0.43 0.04 0 0.435 0.04 0 0.44 0.04 0 0.445 0.04 0 0.45 0.04 0 0.455 0.04 0 0.46 0.04 0 0.465 0.04 0 0.47 0.04 0 0.475 0.04 0 0.48 0.04 0 0.485 0.04 0 0.49 0.04 0 0.495 0.04 0 0.5 0.04 0 0.505 0.04 0 0.51 0.04 0 0.515 0.04 0 0.52 0.04 0 0.525 0.04 0 0.53 0.04 0 0.535 0.04 0 0.54 0.04 0 0.545 0.04 0 0.55 0.04 0 0.555 0.04 0 0.56 0.04 0 0.565 0.04 0 0.57 0.04 0 0.575 0.04 0 0.58 0.04 0 0.585 0.04 0 0.59 0.04 0 0.595 0.04 0 0.6 0.04 0 0.605 0.04 0 0.61 0.04 0 0.615 0.04 0 0.62 0.04 0 0.625 0.04 0 0.63 0.04 0 0.635 0.04 0 0.64 0.04 0 0.645 0.04 0 0.65 0.04 0 0.655 0.04 0 0.66 0.04 0 0.665 0.04 0 0.67 0.04 0 0.675 0.04 0 0.68 0.04 0 0.685 0.04 0 0.69 0.04 0 0.695 0.04 0 0.7 0.04 0 0.705 0.04 0 0.71 0.04 0 0.715 0.04 0 0.72 0.04 0 0.725 0.04 0 0.73 0.04 0 0.735 0.04 0 0.74 0.04 0 0.745 0.04 0 0.75 0.04 0 0.755 0.04 0 0.76 0.04 0 0.765 0.04 0 0.77 0.04 0 0.775 0.04 0 0.78 0.04 0 0.785 0.04 0 0.79 0.04 0 0.795 0.04 0 0.8 0.04 0 0.805 0.04 0 0.81 0.04 0 0.815 0.04 0 0.82 0.04 0 0.825 0.04 0 0.83 0.04 0 0.835 0.04 0 0.84 0.04 0 0.845 0.04 0 0.85 0.04 0 0.855 0.04 0 0.86 0.04 0 0.865 0.04 0 0.87 0.04 0 0.875 0.04 0 0.88 0.04 0 0.885 0.04 0 0.89 0.04 0 0.895 0.04 0 0.9 0.04 0 0.905 0.04 0 0.91 0.04 0 0.915 0.04 0 0.92 0.04 0 0.925 0.04 0 0.93 0.04 0 0.935 0.04 0 0.94 0.04 0 0.945 0.04 0 0.95 0.04 0 0.955 0.04 0 0.96 0.04 0 0.965 0.04 0 0.97 0.04 0 0.975 0.04 0 0.98 0.04 0 0.985 0.04 0 0.99 0.04 0 0.995 0.04 0 1 0.04 0 0 0.06 0 0.005 0.06 0 0.01 0.06 0 0.015 0.06 0 0.02 0.06 0 0.025 0.06 0 0.03 0.06 0 0.035 0.06 0 0.04 0.06 0 0.045 0.06 0 0.05 0.06 0 0.055 0.06 0 0.06 0.06 0 0.065 0.06 0 0.07 0.06 0 0.075 0.06 0 0.08 0.06 0 0.085 0.06 0 0.09 0.06 0 0.095 0.06 0 0.1 0.06 0 0.105 0.06 0 0.11 0.06 0 0.115 0.06 0 0.12 0.06 0 0.125 0.06 0 0.13 0.06 0 0.135 0.06 0 0.14 0.06 0 0.145 0.06 0 0.15 0.06 0 0.155 0.06 0 0.16 0.06 0 0.165 0.06 0 0.17 0.06 0 0.175 0.06 0 0.18 0.06 0 0.185 0.06 0 0.19 0.06 0 0.195 0.06 0 0.2 0.06 0 0.205 0.06 0 0.21 0.06 0 0.215 0.06 0 0.22 0.06 0 0.225 0.06 0 0.23 0.06 0 0.235 0.06 0 0.24 0.06 0 0.245 0.06 0 0.25 0.06 0 0.255 0.06 0 0.26 0.06 0 0.265 0.06 0 0.27 0.06 0 0.275 0.06 0 0.28 0.06 0 0.285 0.06 0 0.29 0.06 0 0.295 0.06 0 0.3 0.06 0 0.305 0.06 0 0.31 0.06 0 0.315 0.06 0 0.32 0.06 0 0.325 0.06 0 0.33 0.06 0 0.335 0.06 0 0.34 0.06 0 0.345 0.06 0 0.35 0.06 0 0.355 0.06 0 0.36 0.06 0 0.365 0.06 0 0.37 0.06 0 0.375 0.06 0 0.38 0.06 0 0.385 0.06 0 0.39 0.06 0 0.395 0.06 0 0.4 0.06 0 0.405 0.06 0 0.41 0.06 0 0.415 0.06 0 0.42 0.06 0 0.425 0.06 0 0.43 0.06 0 0.435 0.06 0 0.44 0.06 0 0.445 0.06 0 0.45 0.06 0 0.455 0.06 0 0.46 0.06 0 0.465 0.06 0 0.47 0.06 0 0.475 0.06 0 0.48 0.06 0 0.485 0.06 0 0.49 0.06 0 0.495 0.06 0 0.5 0.06 0 0.505 0.06 0 0.51 0.06 0 0.515 0.06 0 0.52 0.06 0 0.525 0.06 0 0.53 0.06 0 0.535 0.06 0 0.54 0.06 0 0.545 0.06 0 0.55 0.06 0 0.555 0.06 0 0.56 0.06 0 0.565 0.06 0 0.57 0.06 0 0.575 0.06 0 0.58 0.06 0 0.585 0.06 0 0.59 0.06 0 0.595 0.06 0 0.6 0.06 0 0.605 0.06 0 0.61 0.06 0 0.615 0.06 0 0.62 0.06 0 0.625 0.06 0 0.63 0.06 0 0.635 0.06 0 0.64 0.06 0 0.645 0.06 0 0.65 0.06 0 0.655 0.06 0 0.66 0.06 0 0.665 0.06 0 0.67 0.06 0 0.675 0.06 0 0.68 0.06 0 0.685 0.06 0 0.69 0.06 0 0.695 0.06 0 0.7 0.06 0 0.705 0.06 0 0.71 0.06 0 0.715 0.06 0 0.72 0.06 0 0.725 0.06 0 0.73 0.06 0 0.735 0.06 0 0.74 0.06 0 0.745 0.06 0 0.75 0.06 0 0.755 0.06 0 0.76 0.06 0 0.765 0.06 0 0.77 0.06 0 0.775 0.06 0 0.78 0.06 0 0.785 0.06 0 0.79 0.06 0 0.795 0.06 0 0.8 0.06 0 0.805 0.06 0 0.81 0.06 0 0.815 0.06 0 0.82 0.06 0 0.825 0.06 0 0.83 0.06 0 0.835 0.06 0 0.84 0.06 0 0.845 0.06 0 0.85 0.06 0 0.855 0.06 0 0.86 0.06 0 0.865 0.06 0 0.87 0.06 0 0.875 0.06 0 0.88 0.06 0 0.885 0.06 0 0.89 0.06 0 0.895 0.06 0 0.9 0.06 0 0.905 0.06 0 0.91 0.06 0 0.915 0.06 0 0.92 0.06 0 0.925 0.06 0 0.93 0.06 0 0.935 0.06 0 0.94 0.06 0 0.945 0.06 0 0.95 0.06 0 0.955 0.06 0 0.96 0.06 0 0.965 0.06 0 0.97 0.06 0 0.975 0.06 0 0.98 0.06 0 0.985 0.06 0 0.99 0.06 0 0.995 0.06 0 1 0.06 0 0 0.08 0 0.005 0.08 0 0.01 0.08 0 0.015 0.08 0 0.02 0.08 0 0.025 0.08 0 0.03 0.08 0 0.035 0.08 0 0.04 0.08 0 0.045 0.08 0 0.05 0.08 0 0.055 0.08 0 0.06 0.08 0 0.065 0.08 0 0.07 0.08 0 0.075 0.08 0 0.08 0.08 0 0.085 0.08 0 0.09 0.08 0 0.095 0.08 0 0.1 0.08 0 0.105 0.08 0 0.11 0.08 0 0.115 0.08 0 0.12 0.08 0 0.125 0.08 0 0.13 0.08 0 0.135 0.08 0 0.14 0.08 0 0.145 0.08 0 0.15 0.08 0 0.155 0.08 0 0.16 0.08 0 0.165 0.08 0
[...]
			<PointData Scalars="VitesseX">
				<DataArray Name="VitesseX" type="Float32" format="ascii">
 0 -1.2777e-14 -4.15144e-15 -2.78328e-14 5.38909e-15 1.01543e-14 6.16798e-15 -3.59058e-14 2.532e-14 -3.38202e-14 -1.6339e-15 1.87116e-14 -5.11996e-14 6.05548e-15 -2.75463e-14 -7.05343e-14 -2.49746e-14 2.23166e-14 -5.51146e-14 -1.15549e-13 5.81327e-14 -3.76401e-14 -2.04426e-13 8.11736e-15 -7.34562e-14 -1.40854e-13 4.46038e-14 -1.04885e-13 1.3522e-13 3.40825e-14 -7.29508e-14 4.1051e-14 -5.56074e-15 -5.99499e-14 4.2618e-14 -1.82371e-13 -3.04973e-13 -2.50039e-14 -2.09477e-13 -4.70546e-14 -2.98431e-13 -2.40888e-13 1.85132e-13 -1.42783e-13 -1.6269e-13 1.0533e-13 -1.18705e-13 -4.20121e-14 5.42801e-14 7.38964e-13 4.10944e-12 2.7773e-11 1.8325e-10 1.13073e-09 6.59042e-09 3.60491e-08 1.84644e-07 8.82479e-07 3.91985e-06 1.61074e-05 6.08989e-05 0.000210475 0.000659864 0.00186001 0.00466996 0.0103605 0.0202414 0.0349854 0.0542373 0.0769384 0.101962 0.128466 0.15593 0.184042 0.212569 0.241385 0.270421 0.299637 0.329013 0.358545 0.388241 0.418115 0.448106 0.477583 0.506943 0.535853 0.564738 0.593087 0.621512 0.649312 0.677011 0.704307 0.731182 0.758168 0.784276 0.81009 0.835056 0.8578 0.879428 0.89719 0.910949 0.921832 0.927631 0.930759 0.932504 0.932607 0.932501 0.932314 0.932052 0.931703 0.931271 0.930792 0.930329 0.929938 0.929609 0.929362 0.929138 0.928913 0.928734 0.928601 0.928501 0.92842 0.928351 0.928289 0.928234 0.928184 0.928139 0.928099 0.928061 0.928026 0.927994 0.927966 0.927941 0.927919 0.927903 0.927895 0.927889 0.927864 0.927782 0.92762 0.927294 0.926585 0.925079 0.921981 0.915778 0.903735 0.881301 0.841862 0.777736 0.683391 0.560242 0.42103 0.285094 0.171033 0.089598 0.0412187 0.0171864 0.00676564 0.00258968 0.000978324 0.000367036 0.000137051 5.09629e-05 1.88707e-05 6.95576e-06 2.55115e-06 9.306e-07 3.37458e-07 1.21591e-07 4.35121e-08 1.54583e-08 5.44927e-09 1.90575e-09 6.60532e-10 2.26686e-10 7.72009e-11 2.57742e-11 8.31439e-12 2.72791e-12 2.88558e-13 5.81425e-13 -6.28645e-13 -1.39591e-13 1.83748e-13 3.93902e-13 -3.41282e-13 -2.38204e-13 2.66369e-13 -1.91365e-13 -2.06165e-14 4.20697e-14 1.44581e-13 3.10841e-13 -5.72275e-13 4.02411e-14 4.53187e-13 4.89744e-13 -6.40624e-14 3.49398e-13 -2.842e-13 0 0 3.04121e-15 -3.32317e-15 1.88723e-14 -2.20805e-14 -1.8316e-14 -3.05883e-15 1.52374e-14 -2.03218e-14 1.92796e-14 -2.94484e-16 -3.46813e-14 2.43498e-14 -9.27021e-14 -5.96982e-14 2.8698e-14 -9.9133e-15 -7.72402e-14 -2.94904e-14 -1.94326e-14 -1.6442e-13 -2.80797e-14 2.3943e-14 -1.42344e-13 -7.26399e-14 1.43789e-14 -1.3562e-13 8.54093e-14 -5.29006e-14 6.72649e-14 8.04355e-14 -6.6671e-14 -4.81281e-14 3.22632e-14 -1.27732e-13 -1.46543e-13 -5.98961e-14 -2.60983e-13 -5.60747e-14 -2.56575e-13 -6.58863e-15 -6.16237e-14 -2.66902e-13 1.63327e-14 1.24862e-13 -1.32507e-13 -7.02444e-14 -8.71351e-14 1.67579e-13 4.70879e-13 4.14792e-12 2.815e-11 1.82719e-10 1.13167e-09 6.58957e-09 3.6049e-08 1.84645e-07 8.82479e-07 3.91985e-06 1.61074e-05 6.08989e-05 0.000210475 0.000659864 0.00186001 0.00466996 0.0103605 0.0202414 0.0349854 0.0542373 0.0769384 0.101962 0.128466 0.15593 0.184042 0.212569 0.241385 0.270421 0.299637 0.329013 0.358545 0.388241 0.418115 0.448106 0.477583 0.506943 0.535853 0.564738 0.593087 0.621512 0.649312 0.677011 0.704307 0.731182 0.758168 0.784276 0.81009 0.835056 0.8578 0.879428 0.89719 0.910949 0.921832 0.927631 0.930759 0.932504 0.932607 0.932501 0.932314 0.932052 0.931703 0.931271 0.930792 0.930329 0.929938 0.929609 0.929362 0.929138 0.928913 0.928734 0.928601 0.928501 0.92842 0.928351 0.928289 0.928234 0.928184 0.928139 0.928099 0.928061 0.928026 0.927994 0.927966 0.927941 0.927919 0.927903 0.927895 0.927889 0.927864 0.927782 0.92762 0.927294 0.926585 0.925079 0.921981 0.915778 0.903735 0.881301 0.841862 0.777736 0.683391 0.560242 0.42103 0.285094 0.171033 0.089598 0.0412187 0.0171864 0.00676564 0.00258968 0.000978324 0.000367036 0.000137051 5.09629e-05 1.88707e-05 6.95576e-06 2.55115e-06 9.30601e-07 3.37457e-07 1.21591e-07 4.35121e-08 1.54581e-08 5.44969e-09 1.90544e-09 6.60636e-10 2.26885e-10 7.68393e-11 2.58419e-11 8.27956e-12 2.4228e-12 8.33095e-13 -1.93552e-13 1.58519e-13 -2.69751e-14 -1.43527e-13 -3.7999e-13 2.04905e-13 8.40074e-14 -2.53859e-13 2.32663e-13 -2.96913e-13 -3.95121e-14 -1.01528e-13 6.51373e-13 7.1246e-13 1.16718e-13 -1.76738e-13 6.92777e-14 2.00869e-13 -1.29932e-13 2.64957e-13 0 0 1.08587e-14 1.11268e-14 -2.97456e-15 2.25696e-14 6.76872e-15 4.16292e-15 -3.5883e-14 3.07286e-14 -3.16405e-14 -8.66409e-15 6.34682e-16 -4.50271e-14 -2.59865e-14 -6.67609e-14 -5.14559e-14 -5.32569e-14 -3.08017e-14 -4.66492e-14 -6.24926e-14 -9.11429e-14 -1.87904e-14 -1.03532e-13 -9.12533e-14 -4.67371e-15 -4.95959e-14 5.71954e-14 -7.4467e-14 1.10168e-13 -6.21044e-14 -6.75685e-14 7.37859e-15 7.45912e-15 -1.79312e-13 -8.95213e-14 4.13679e-15 -1.32913e-13 -4.98478e-14 -1.78699e-13 -4.85915e-14 -1.3432e-13 -1.08157e-13 5.31674e-14 -7.49255e-17 -1.75398e-13 -8.07321e-14 6.57756e-14 -8.70746e-14 1.37974e-13 6.70851e-13 4.15195e-12 2.78915e-11 1.83099e-10 1.13144e-09 6.5899e-09 3.60489e-08 1.84645e-07 8.82478e-07 3.91985e-06 1.61074e-05 6.08989e-05 0.000210475 0.000659864 0.00186001 0.00466996 0.0103605 0.0202414 0.0349854 0.0542373 0.0769384 0.101962 0.128466 0.15593 0.184042 0.212569 0.241385 0.270421 0.299637 0.329013 0.358545 0.388241 0.418115 0.448106 0.477583 0.506943 0.535853 0.564738 0.593087 0.621512 0.649312 0.677011 0.704307 0.731182 0.758168 0.784276 0.81009 0.835056 0.8578 0.879428 0.89719 0.910949 0.921832 0.927631 0.930759 0.932504 0.932607 0.932501 0.932314 0.932052 0.931703 0.931271 0.930792 0.930329 0.929938 0.929609 0.929362 0.929138 0.928913 0.928734 0.928601 0.928501 0.92842 0.928351 0.928289 0.928234 0.928184 0.928139 0.928099 0.928061 0.928026 0.927994 0.927966 0.927941 0.927919 0.927903 0.927895 0.927889 0.927864 0.927782 0.92762 0.927294 0.926585 0.925079 0.921981 0.915778 0.903735 0.881301 0.841862 0.777736 0.683391 0.560242 0.42103 0.285094 0.171033 0.089598 0.0412187 0.0171864 0.00676564 0.00258968 0.000978324 0.000367036 0.000137051 5.09629e-05 1.88707e-05 6.95576e-06 2.55115e-06 9.306e-07 3.37457e-07 1.21591e-07 4.35122e-08 1.54584e-08 5.44961e-09 1.90567e-09 6.60482e-10 2.2697e-10 7.70769e-11 2.56402e-11 8.19302e-12 2.64e-12 5.45661e-13 -4.14497e-14 1.08334e-13 -6.47475e-14 -2.07246e-13 -3.13364e-13 2.6058e-13 -9.94941e-14 -1.27312e-13 3.29602e-13 -2.54303e-13 1.73639e-13 -8.7945e-14 -1.67286e-13 6.83716e-13 7.13459e-13 2.39846e-13 -1.75206e-14 -2.58923e-13 2.294e-13 4.31753e-13 0 0 -3.134e-15 -9.49298e-15 -1.89808e-15 1.25823e-14 8.88504e-15 -5.66204e-15 8.65141e-15 -7.18407e-15 -3.6865e-14 -3.25709e-14 1.71218e-14 -1.50229e-14 -1.06481e-14 -1.71141e-14 -1.17953e-13 -9.7751e-14 -1.22486e-13 -1.0474e-13 -7.74646e-14 1.25549e-13 -7.49961e-14 -5.63151e-14 -5.04415e-14 -7.80803e-14 -8.9216e-14 4.80836e-14 -5.54276e-14 6.24843e-14 -6.30608e-14 -3.03683e-14 6.17526e-14 -4.89267e-14 -1.9814e-13 2.88594e-14 -1.25122e-13 -1.50411e-13 -2.26278e-14 -1.07353e-13 -7.49262e-14 -1.77528e-13 6.63725e-15 7.40249e-14 -4.85572e-14 -1.89875e-13 -9.13583e-15 -1.15782e-13 -1.05203e-14 8.77395e-14 8.33443e-13 4.10174e-12 2.78096e-11 1.83112e-10 1.1313e-09 6.5901e-09 3.60489e-08 1.84645e-07 8.82479e-07 3.91985e-06 1.61074e-05 6.08989e-05 0.000210475 0.000659864 0.00186001 0.00466996 0.0103605 0.0202414 0.0349854 0.0542373 0.0769384 0.101962 0.128466 0.15593 0.184042 0.212569 0.241385 0.270421 0.299637 0.329013 0.358545 0.388241 0.418115 0.448106 0.477583 0.506943 0.535853 0.564738 0.593087 0.621512 0.649312 0.677011 0.704307 0.731182 0.758168 0.784276 0.81009 0.835056 0.8578 0.879428 0.89719 0.910949 0.921832 0.927631 0.930759 0.932504 0.932607 0.932501 0.932314 0.932052 0.931703 0.931271 0.930792 0.930329 0.929938 0.929609 0.929362 0.929138 0.928913 0.928734 0.928601 0.928501 0.92842 0.928351 0.928289 0.928234 0.928184 0.928139 0.928099 0.928061 0.928026 0.927994 0.927966 0.927941 0.927919 0.927903 0.927895 0.927889 0.927864 0.927782 0.92762 0.927294 0.926585 0.925079 0.921981 0.915778 0.903735 0.881301 0.841862 0.777736 0.683391 0.560242 0.42103 0.285094 0.171033 0.089598 0.0412187 0.0171864 0.00676564 0.00258968 0.000978324 0.000367036 0.000137051 5.09629e-05 1.88707e-05 6.95576e-06 2.55116e-06 9.306e-07 3.37458e-07 1.21591e-07 4.35124e-08 1.54582e-08 5.44938e-09 1.90554e-09 6.60685e-10 2.26804e-10 7.74315e-11 2.59889e-11 8.53724e-12 2.43027e-12 1.26964e-13 3.7333e-13 -6.30961e-13 -2.1051e-13 1.66309e-13 6.68277e-13 -3.89483e-13 5.04947e-13 -1.28501e-13 1.55297e-13 1.11123e-13 -3.5989e-14 -3.51375e-14 -2.2101e-13 -9.29076e-13 -5.34822e-14 8.36999e-13 -5.10127e-14 2.10189e-13 5.15468e-14 -3.41604e-13 0 0 -1.23953e-14 -2.09166e-14 1.61207e-14 -2.36654e-14 -3.19853e-14 1.28395e-14 4.96653e-14 -4.53516e-14 -1.13161e-14 -3.45322e-14 -4.44774e-14 1.31419e-14 -8.61097e-14 -4.92986e-14 -2.15824e-14 -5.65089e-14 -1.49085e-13 -4.73844e-14 -1.83654e-14 -8.01074e-14 -5.53302e-14 4.96398e-14 -8.54593e-14 -9.30814e-14 4.86037e-16 -1.18116e-13 6.76333e-14 -7.65835e-14 7.96513e-14 1.325e-13 2.1539e-14 -1.08963e-13 1.80758e-14 -4.11114e-14 -1.65376e-13 -5.74803e-14 -3.05287e-13 -8.9828e-14 -1.91727e-13 -1.39521e-14 3.95695e-14 -1.65894e-13 -5.85362e-14 8.25088e-14 -8.62239e-14 -1.29885e-13 -2.04232e-14 8.20054e-14 5.51939e-13 4.14969e-12 2.8136e-11 1.82606e-10 1.13182e-09 6.58972e-09 3.60488e-08 1.84645e-07 8.82479e-07 3.91985e-06 1.61074e-05 6.08989e-05 0.000210475 0.000659864 0.00186001 0.00466996 0.0103605 0.0202414 0.0349854 0.0542373 0.0769384 0.101962 0.128466 0.15593 0.184042 0.212569 0.241385 0.270421 0.299637 0.329013 0.358545 0.388241 0.418115 0.448106 0.477583 0.506943 0.535853 0.564738 0.593087 0.621512 0.649312 0.677011 0.704307 0.731182 0.758168 0.784276 0.81009 0.835056 0.8578 0.879428 0.89719 0.910949 0.921832 0.927631 0.930759 0.932504 0.932607 0.932501 0.932314 0.932052 0.931703 0.931271 0.930792 0.930329 0.929938 0.929609 0.929362 0.929138 0.928913 0.928734 0.928601 0.928501 0.92842 0.928351 0.928289 0.928234 0.928184 0.928139 0.928099 0.928061 0.928026 0.927994 0.927966 0.927941 0.927919 0.927903 0.927895 0.927889 0.927864 0.927782 0.92762 0.927294 0.926585 0.925079 0.921981 0.915778 0.903735 0.881301 0.841862 0.777736 0.683391 0.560242 0.42103 0.285094 0.171033 0.089598 0.0412187 0.0171864 0.00676564 0.00258968 0.000978324 0.000367036 0.000137051 5.09629e-05 1.88707e-05 6.95576e-06 2.55116e-06 9.306e-07 3.37457e-07 1.21591e-07 4.35121e-08 1.54582e-08 5.44982e-09 1.90537e-09 6.60873e-10 2.26718e-10 7.70131e-11 2.63396e-11 8.58522e-12 2.31053e-12 3.76366e-13 -2.14037e-13 -2.70431e-13 -2.24924e-13 2.6165e-13 3.92478e-13 -1.64344e-13 7.46095e-13 9.68503e-14 6.87447e-14 -1.71542e-13 -1.77109e-13 -2.50385e-13 1.54905e-13 -2.87922e-13 -6.94685e-13 2.19768e-13 2.02089e-13 3.89769e-13 -2.65192e-13 -2.64527e-13 0 0 -1.56647e-14 1.90136e-15 -3.5489e-14 2.21938e-14 -2.14167e-14 5.76146e-14 -5.61188e-14 5.10856e-14 -8.45627e-14 -2.22957e-14 -3.38548e-14 -1.33624e-13 -1.14364e-14 -1.06041e-13 -3.81011e-14 -2.91776e-14 6.19951e-14 2.52784e-14 -8.34706e-14 -2.06626e-13 2.02701e-14 -2.47466e-13 4.02636e-14 3.24739e-14 -8.93999e-14 9.78349e-14 -1.78516e-13 1.83221e-13 6.07681e-14 -4.32227e-14 1.08723e-13 -1.44591e-14 -5.0669e-14 -2.09024e-14 3.84814e-14 -2.65145e-13 -1.68051e-13 -4.19674e-13 1.35311e-13 -2.26741e-13 -2.6809e-13 3.45434e-13 -1.95556e-13 -2.18442e-13 5.47041e-14 1.25129e-13 -6.1697e-14 -1.63979e-14 5.75902e-13 4.2134e-12 2.79089e-11 1.82998e-10 1.1313e-09 6.59033e-09 3.60489e-08 1.84644e-07 8.82478e-07 3.91985e-06 1.61074e-05 6.08989e-05 0.000210475 0.000659864 0.00186001 0.00466996 0.0103605 0.0202414 0.0349854 0.0542373 0.0769384 0.101962 0.128466 0.15593 0.184042 0.212569 0.241385 0.270421 0.299637 0.329013 0.358545 0.388241 0.418115 0.448106 0.477583 0.506943 0.535853 0.564738 0.593087 0.621512 0.649312 0.677011 0.704307 0.731182 0.758168 0.784276 0.81009 0.835056 0.8578 0.879428 0.89719 0.910949 0.921832 0.927631 0.930759 0.932504 0.932607 0.932501 0.932314 0.932052 0.931703 0.931271 0.930792 0.930329 0.929938 0.929609 0.929362 0.929138 0.928913 0.928734 0.928601 0.928501 0.92842 0.928351 0.928289 0.928234 0.928184 0.928139 0.928099 0.928061 0.928026 0.927994 0.927966 0.927941 0.927919 0.927903 0.927895 0.927889 0.927864 0.927782 0.92762 0.927294 0.926585 0.925079 0.921981 0.915778 0.903735 0.881301 0.841862 0.777736 0.683391 0.560242 0.42103 0.285094 0.171033 0.089598 0.0412187 0.0171864 0.00676564 0.00258968 0.000978324 0.000367036 0.000137051 5.09629e-05 1.88707e-05 6.95576e-06 2.55115e-06 9.30601e-07 3.37457e-07 1.21591e-07 4.35116e-08 1.54588e-08 5.45001e-09 1.90591e-09 6.606e-10 2.26685e-10 7.68392e-11 2.60719e-11 8.23727e-12 2.92282e-12 2.12494e-13 -2.89104e-13 -7.95568e-15 -2.43964e-13 2.46992e-13 -2.4445e-14 2.20346e-13 -1.2291e-13 9.70166e-13 -1.70591e-13 -5.00727e-13 1.86133e-13 -2.58748e-13 -5.74648e-13 6.52547e-13 -4.86829e-14 5.18927e-14 8.22351e-13 -6.24486e-13 4.34583e-13 2.03544e-13 0
				</DataArray>
				<DataArray Name="VitesseY" type="Float32" format="ascii">