<?xml version="1.0"?>
<VTKFile type="PolyData">
	<PolyData>
		<Piece NumberOfPoints="1206" NumberOfPolys="1000">
			<Points>
				<DataArray type="Float32" NumberOfComponents="3" format="ascii">
 0 0 0 0.005 0 0 0.01 0 0 0.015 0 0 0.02 0 0 0.025 0 0 0.03 0 0 0.035 0 0 0.04 0 0 0.045 0 0 0.05 0 0 0.055 0 0 0.06 0 0 0.065 0 0 0.07 0 0 0.075 0 0 0.08 0 0 0.085 0 0 0.09 0 0 0.095 0 0 0.1 0 0 0.105 0 0 0.11 0 0 0.115 0 0 0.12 0 0 0.125 0 0 0.13 0 0 0.135 0 0 0.14 0 0 0.145 0 0 0.15 0 0 0.155 0 0 0.16 0 0 0.165 0 0 0.17 0 0 0.175 0 0 0.18 0 0 0.185 0 0 0.19 0 0 0.195 0 0 0.2 0 0 0.205 0 0 0.21 0 0 0.215 0 0 0.22 0 0 0.225 0 0 0.23 0 0 0.235 0 0 0.24 0 0 0.245 0 0 0.25 0 0 0.255 0 0 0.26 0 0 0.265 0 0 0.27 0 0 0.275 0 0 0.28 0 0 0.285 0 0 0.29 0 0 0.295 0 0 0.3 0 0 0.305 0 0 0.31 0 0 0.315 0 0 0.32 0 0 0.325 0 0 0.33 0 0 0.335 0 0 0.34 0 0 0.345 0 0 0.35 0 0 0.355 0 0 0.36 0 0 0.365 0 0 0.37 0 0 0.375 0 0 0.38 0 0 0.385 0 0 0.39 0 0 0.395 0 0 0.4 0 0 0.405 0 0 0.41 0 0 0.415 0 0 0.42 0 0 0.425 0 0 0.43 0 0 0.435 0 0 0.44 0 0 0.445 0 0 0.45 0 0 0.455 0 0 0.46 0 0 0.465 0 0 0.47 0 0 0.475 0 0 0.48 0 0 0.485 0 0 0.49 0 0 0.495 0 0 0.5 0 0 0.505 0 0 0.51 0 0 0.515 0 0 0.52 0 0 0.525 0 0 0.53 0 0 0.535 0 0 0.54 0 0 0.545 0 0 0.55 0 0 0.555 0 0 0.56 0 0 0.565 0 0 0.57 0 0 0.575 0 0 0.58 0 0 0.585 0 0 0.59 0 0 0.595 0 0 0.6 0 0 0.605 0 0 0.61 0 0 0.615 0 0 0.62 0 0 0.625 0 0 0.63 0 0 0.635 0 0 0.64 0 0 0.645 0 0 0.65 0 0 0.655 0 0 0.66 0 0 0.665 0 0 0.67 0 0 0.675 0 0 0.68 0 0 0.685 0 0 0.69 0 0 0.695 0 0 0.7 0 0 0.705 0 0 0.71 0 0 0.715 0 0 0.72 0 0 0.725 0 0 0.73 0 0 0.735 0 0 0.74 0 0 0.745 0 0 0.75 0 0 0.755 0 0 0.76 0 0 0.765 0 0 0.77 0 0 0.775 0 0 0.78 0 0 0.785 0 0 0.79 0 0 0.795 0 0 0.8 0 0 0.805 0 0 0.81 0 0 0.815 0 0 0.82 0 0 0.825 0 0 0.83 0 0 0.835 0 0 0.84 0 0 0.845 0 0 0.85 0 0 0.855 0 0 0.86 0 0 0.865 0 0 0.87 0 0 0.875 0 0 0.88 0 0 0.885 0 0 0.89 0 0 0.895 0 0 0.9 0 0 0.905 0 0 0.91 0 0 0.915 0 0 0.92 0 0 0.925 0 0 0.93 0 0 0.935 0 0 0.94 0 0 0.945 0 0 0.95 0 0 0.955 0 0 0.96 0 0 0.965 0 0 0.97 0 0 0.975 0 0 0.98 0 0 0.985 0 0 0.99 0 0 0.995 0 0 1 0 0 0 0.02 0 0.005 0.02 0 0.01 0.02 0 0.015 0.02 0 0.02 0.02 0 0.025 0.02 0 0.03 0.02 0 0.035 0.02 0 0.04 0.02 0 0.045 0.02 0 0.05 0.02 0 0.055 0.02 0 0.06 0.02 0 0.065 0.02 0 0.07 0.02 0 0.075 0.02 0 0.08 0.02 0 0.085 0.02 0 0.09 0.02 0 0.095 0.02 0 0.1 0.02 0 0.105 0.02 0 0.11 0.02 0 0.115 0.02 0 0.12 0.02 0 0.125 0.02 0 0.13 0.02 0 0.135 0.02 0 0.14 0.02 0 0.145 0.02 0 0.15 0.02 0 0.155 0.02 0 0.16 0.02 0 0.165 0.02 0 0.17 0.02 0 0.175 0.02 0 0.18 0.02 0 0.185 0.02 0 0.19 0.02 0 0.195 0.02 0 0.2 0.02 0 0.205 0.02 0 0.21 0.02 0 0.215 0.02 0 0.22 0.02 0 0.225 0.02 0 0.23 0.02 0 0.235 0.02 0 0.24 0.02 0 0.245 0.02 0 0.25 0.02 0 0.255 0.02 0 0.26 0.02 0 0.265 0.02 0 0.27 0.02 0 0.275 0.02 0 0.28 0.02 0 0.285 0.02 0 0.29 0.02 0 0.295 0.02 0 0.3 0.02 0 0.305 0.02 0 0.31 0.02 0 0.315 0.02 0 0.32 0.02 0 0.325 0.02 0 0.33 0.02 0 0.335 0.02 0 0.34 0.02 0 0.345 0.02 0 0.35 0.02 0 0.355 0.02 0 0.36 0.02 0 0.365 0.02 0 0.37 0.02 0 0.375 0.02 0 0.38 0.02 0 0.385 0.02 0 0.39 0.02 0 0.395 0.02 0 0.4 0.02 0 0.405 0.02 0 0.41 0.02 0 0.415 0.02 0 0.42 0.02 0 0.425 0.02 0 0.43 0.02 0 0.435 0.02 0 0.44 0.02 0 0.445 0.02 0 0.45 0.02 0 0.455 0.02 0 0.46 0.02 0 0.465 0.02 0 0.47 0.02 0 0.475 0.02 0 0.48 0.02 0 0.485 0.02 0 0.49 0.02 0 0.495 0.02 0 0.5 0.02 0 0.505 0.02 0 0.51 0.02 0 0.515 0.02 0 0.52 0.02 0 0.525 0.02 0 0.53 0.02 0 0.535 0.02 0 0.54 0.02 0 0.545 0.02 0 0.55 0.02 0 0.555 0.02 0 0.56 0.02 0 0.565 0.02 0 0.57 0.02 0 0.575 0.02 0 0.58 0.02 0 0.585 0.02 0 0.59 0.02 0 0.595 0.02 0 0.6 0.02 0 0.605 0.02 0 0.61 0.02 0 0.615 0.02 0 0.62 0.02 0 0.625 0.02 0 0.63 0.02 0 0.635 0.02 0 0.64 0.02 0 0.645 0.02 0 0.65 0.02 0 0.655 0.02 0 0.66 0.02 0 0.665 0.02 0 0.67 0.02 0 0.675 0.02 0 0.68 0.02 0 0.685 0.02 0 0.69 0.02 0 0.695 0.02 0 0.7 0.02 0 0.705 0.02 0 0.71 0.02 0 0.715 0.02 0 0.72 0.02 0 0.725 0.02 0 0.73 0.02 0 0.735 0.02 0 0.74 0.02 0 0.745 0.02 0 0.75 0.02 0 0.755 0.02 0 0.76 0.02 0 0.765 0.02 0 0.77 0.02 0 0.775 0.02 0 0.78 0.02 0 0.785 0.02 0 0.79 0.02 0 0.795 0.02 0 0.8 0.02 0 0.805 0.02 0 0.81 0.02 0 0.815 0.02 0 0.82 0.02 0 0.825 0.02 0 0.83 0.02 0 0.835 0.02 0 0.84 0.02 0 0.845 0.02 0 0.85 0.02 0 0.855 0.02 0 0.86 0.02 0 0.865 0.02 0 0.87 0.02 0 0.875 0.02 0 0.88 0.02 0 0.885 0.02 0 0.89 0.02 0 0.895 0.02 0 0.9 0.02 0 0.905 0.02 0 0.91 0.02 0 0.915 0.02 0 0.92 0.02 0 0.925 0.02 0 0.93 0.02 0 0.935 0.02 0 0.94 0.02 0 0.945 0.02 0 0.95 0.02 0 0.955 0.02 0 0.96 0.02 0 0.965 0.02 0 0.97 0.02 0 0.975 0.02 0 0.98 0.02 0 0.985 0.02 0 0.99 0.02 0 0.995 0.02 0 1 0.02 0 0 0.04 0 0.005 0.04 0 0.01 0.04 0 0.015 0.04 0 0.02 0.04 0 0.025 0.04 0 0.03 0.04 0 0.035 0.04 0 0.04 0.04 0 0.045 0.04 0 0.05 0.04 0 0.055 0.04 0 0.06 0.04 0 0.065 0.04 0 0.07 0.04 0 0.075 0.04 0 0.08 0.04 0 0.085 0.04 0 0.09 0.04 0 0.095 0.04 0 0.1 0.04 0 0.105 0.04 0 0.11 0.04 0 0.115 0.04 0 0.12 0.04 0 0.125 0.04 0 0.13 0.04 0 0.135 0.04 0 0.14 0.04 0 0.145 0.04 0 0.15 0.04 0 0.155 0.04 0 0.16 0.04 0 0.165 0.04 0 0.17 0.04 0 0.175 0.04 0 0.18 0.04 0 0.185 0.04 0 0.19 0.04 0 0.195 0.04 0 0.2 0.04 0 0.205 0.04 0 0.21 0.04 0 0.215 0.04 0 0.22 0.04 0 0.225 0.04 0 0.23 0.04 0 0.235 0.04 0 0.24 0.04 0 0.245 0.04 0 0.25 0.04 0 0.255 0.04 0 0.26 0.04 0 0.265 0.04 0 0.27 0.04 0 0.275 0.04 0 0.28 0.04 0 0.285 0.04 0 0.29 0.04 0 0.295 0.04 0 0.3 0.04 0 0.305 0.04 0 0.31 0.04 0 0.315 0.04 0 0.32 0.04 0 0.325 0.04 0 0.33 0.04 0 0.335 0.04 0 0.34 0.04 0 0.345 0.04 0 0.35 0.04 0 0.355 0.04 0 0.36 0.04 0 0.365 0.04 0 0.37 0.04 0 0.375 0.04 0 0.38 0.04 0 0.385 0.04 0 0.39 0.04 0 0.395 0.04 0 0.4 0.04 0 0.405 0.04 0 0.41 0.04 0 0.415 0.04 0 0.42 0.04 0 0.425 0.04 0 0.43 0.04 0 0.435 0.04 0 0.44 0.04 0 0.445 0.04 0 0.45 0.04 0 0.455 0.04 0 0.46 0.04 0 0.465 0.04 0 0.47 0.04 0 0.475 0.04 0 0.48 0.04 0 0.485 0.04 0 0.49 0.04 0 0.495 0.04 0 0.5 0.04 0 0.505 0.04 0 0.51 0.04 0 0.515 0.04 0 0.52 0.04 0 0.525 0.04 0 0.53 0.04 0 0.535 0.04 0 0.54 0.04 0 0.545 0.04 0 0.55 0.04 0 0.555 0.04 0 0.56 0.04 0 0.565 0.04 0 0.57 0.04 0 0.575 0.04 0 0.58 0.04 0 0.585 0.04 0 0.59 0.04 0 0.595 0.04 0 0.6 0.04 0 0.605 0.04 0 0.61 0.04 0 0.615 0.04 0 0.62 0.04 0 0.625 0.04 0 0.63 0.04 0 0.635 0.04 0 0.64 0.04 0 0.645 0.04 0 0.65 0.04 0 0.655 0.04 0 0.66 0.04 0 0.665 0.04 0 0.67 0.04 0 0.675 0.04 0 0.68 0.04 0 0.685 0.04 0 0.69 0.04 0 0.695 0.04 0 0.7 0.04 0 0.705 0.04 0 0.71 0.04 0 0.715 0.04 0 0.72 0.04 0 0.725 0.04 0 0.73 0.04 0 0.735 0.04 0 0.74 0.04 0 0.745 0.04 0 0.75 0.04 0 0.755 0.04 0 0.76 0.04 0 0.765 0.04 0 0.77 0.04 0 0.775 0.04 0 0.78 0.04 0 0.785 0.04 0 0.79 0.04 0 0.795 0.04 0 0.8 0.04 0 0.805 0.04 0 0.81 0.04 0 0.815 0.04 0 0.82 0.04 0 0.825 0.04 0 0.83 0.04 0 0.835 0.04 0 0.84 0.04 0 0.845 0.04 0 0.85 0.04 0 0.855 0.04 0 0.86 0.04 0 0.865 0.04 0 0.87 0.04 0 0.875 0.04 0 0.88 0.04 0 0.885 0.04 0 0.89 0.04 0 0.895 0.04 0 0.9 0.04 0 0.905 0.04 0 0.91 0.04 0 0.915 0.04 0 0.92 0.04 0 0.925 0.04 0 0.93 0.04 0 0.935 0.04 0 0.94 0.04 0 0.945 0.04 0 0.95 0.04 0 0.955 0.04 0 0.96 0.04 0 0.965 0.04 0 0.97 0.04 0 0.975 0.04 0 0.98 0.04 0 0.985 0.04 0 0.99 0.04 0 0.995 0.04 0 1 0.04 0 0 0.06 0 0.005 0.06 0 0.01 0.06 0 0.015 0.06 0 0.02 0.06 0 0.025 0.06 0 0.03 0.06 0 0.035 0.06 0 0.04 0.06 0 0.045 0.06 0 0.05 0.06 0 0.055 0.06 0 0.06 0.06 0 0.065 0.06 0 0.07 0.06 0 0.075 0.06 0 0.08 0.06 0 0.085 0.06 0 0.09 0.06 0 0.095 0.06 0 0.1 0.06 0 0.105 0.06 0 0.11 0.06 0 0.115 0.06 0 0.12 0.06 0 0.125 0.06 0 0.13 0.06 0 0.135 0.06 0 0.14 0.06 0 0.145 0.06 0 0.15 0.06 0 0.155 0.06 0 0.16 0.06 0 0.165 0.06 0 0.17 0.06 0 0.175 0.06 0 0.18 0.06 0 0.185 0.06 0 0.19 0.06 0 0.195 0.06 0 0.2 0.06 0 0.205 0.06 0 0.21 0.06 0 0.215 0.06 0 0.22 0.06 0 0.225 0.06 0 0.23 0.06 0 0.235 0.06 0 0.24 0.06 0 0.245 0.06 0 0.25 0.06 0 0.255 0.06 0 0.26 0.06 0 0.265 0.06 0 0.27 0.06 0 0.275 0.06 0 0.28 0.06 0 0.285 0.06 0 0.29 0.06 0 0.295 0.06 0 0.3 0.06 0 0.305 0.06 0 0.31 0.06 0 0.315 0.06 0 0.32 0.06 0 0.325 0.06 0 0.33 0.06 0 0.335 0.06 0 0.34 0.06 0 0.345 0.06 0 0.35 0.06 0 0.355 0.06 0 0.36 0.06 0 0.365 0.06 0 0.37 0.06 0 0.375 0.06 0 0.38 0.06 0 0.385 0.06 0 0.39 0.06 0 0.395 0.06 0 0.4 0.06 0 0.405 0.06 0 0.41 0.06 0 0.415 0.06 0 0.42 0.06 0 0.425 0.06 0 0.43 0.06 0 0.435 0.06 0 0.44 0.06 0 0.445 0.06 0 0.45 0.06 0 0.455 0.06 0 0.46 0.06 0 0.465 0.06 0 0.47 0.06 0 0.475 0.06 0 0.48 0.06 0 0.485 0.06 0 0.49 0.06 0 0.495 0.06 0 0.5 0.06 0 0.505 0.06 0 0.51 0.06 0 0.515 0.06 0 0.52 0.06 0 0.525 0.06 0 0.53 0.06 0 0.535 0.06 0 0.54 0.06 0 0.545 0.06 0 0.55 0.06 0 0.555 0.06 0 0.56 0.06 0 0.565 0.06 0 0.57 0.06 0 0.575 0.06 0 0.58 0.06 0 0.585 0.06 0 0.59 0.06 0 0.595 0.06 0 0.6 0.06 0 0.605 0.06 0 0.61 0.06 0 0.615 0.06 0 0.62 0.06 0 0.625 0.06 0 0.63 0.06 0 0.635 0.06 0 0.64 0.06 0 0.645 0.06 0 0.65 0.06 0 0.655 0.06 0 0.66 0.06 0 0.665 0.06 0 0.67 0.06 0 0.675 0.06 0 0.68 0.06 0 0.685 0.06 0 0.69 0.06 0 0.695 0.06 0 0.7 0.06 0 0.705 0.06 0 0.71 0.06 0 0.715 0.06 0 0.72 0.06 0 0.725 0.06 0 0.73 0.06 0 0.735 0.06 0 0.74 0.06 0 0.745 0.06 0 0.75 0.06 0 0.755 0.06 0 0.76 0.06 0 0.765 0.06 0 0.77 0.06 0 0.775 0.06 0 0.78 0.06 0 0.785 0.06 0 0.79 0.06 0 0.795 0.06 0 0.8 0.06 0 0.805 0.06 0 0.81 0.06 0 0.815 0.06 0 0.82 0.06 0 0.825 0.06 0 0.83 0.06 0 0.835 0.06 0 0.84 0.06 0 0.845 0.06 0 0.85 0.06 0 0.855 0.06 0 0.86 0.06 0 0.865 0.06 0 0.87 0.06 0 0.875 0.06 0 0.88 0.06 0 0.885 0.06 0 0.89 0.06 0 0.895 0.06 0 0.9 0.06 0 0.905 0.06 0 0.91 0.06 0 0.915 0.06 0 0.92 0.06 0 0.925 0.06 0 0.93 0.06 0 0.935 0.06 0 0.94 0.06 0 0.945 0.06 0 0.95 0.06 0 0.955 0.06 0 0.96 0.06 0 0.965 0.06 0 0.97 0.06 0 0.975 0.06 0 0.98 0.06 0 0.985 0.06 0 0.99 0.06 0 0.995 0.06 0 1 0.06 0 0 0.08 0 0.005 0.08 0 0.01 0.08 0 0.015 0.08 0 0.02 0.08 0 0.025 0.08 0 0.03 0.08 0 0.035 0.08 0 0.04 0.08 0 0.045 0.08 0 0.05 0.08 0 0.055 0.08 0 0.06 0.08 0 0.065 0.08 0 0.07 0.08 0 0.075 0.08 0 0.08 0.08 0 0.085 0.08 0 0.09 0.08 0 0.095 0.08 0 0.1 0.08 0 0.105 0.08 0 0.11 0.08 0 0.115 0.08 0 0.12 0.08 0 0.125 0.08 0 0.13 0.08 0 0.135 0.08 0 0.14 0.08 0 0.145 0.08 0 0.15 0.08 0 0.155 0.08 0 0.16 0.08 0 0.165 0.08 0
[...]
			<PointData Scalars="VitesseX">
				<DataArray Name="VitesseX" type="Float32" format="ascii">
 0 -9.10314e-16 2.46372e-14 2.6647e-14 -3.65303e-14 2.84552e-14 5.56523e-14 -2.92103e-14 -1.65966e-14 -7.34693e-14 3.89468e-14 -4.48208e-14 6.20404e-14 -1.05416e-13 4.92898e-14 7.31704e-15 -1.29863e-13 -4.12604e-14 -1.27774e-13 3.42435e-14 -7.81852e-14 -1.29806e-13 -1.33436e-13 -8.92448e-14 7.9356e-14 -4.94488e-14 -3.83764e-13 2.24596e-14 -3.71927e-14 -6.22586e-14 -6.45171e-14 -4.65996e-14 -2.31777e-14 -1.81014e-13 -1.2711e-13 -1.22802e-13 -6.58905e-14 -1.47623e-13 -6.569e-14 -2.55121e-13 5.03605e-15 -2.35409e-13 5.18358e-14 2.74767e-13 -6.42679e-14 -9.01392e-14 4.29475e-14 -6.00843e-14 4.54246e-14 6.0815e-14 -2.97378e-13 -3.37605e-13 -2.69976e-13 2.8996e-13 5.93015e-14 -1.86468e-13 1.19114e-14 -3.55386e-13 1.23579e-14 -7.56456e-14 -1.33902e-13 2.75719e-14 -3.75796e-13 -2.60338e-14 -2.79557e-13 -8.93977e-15 6.29385e-13 4.78255e-12 4.7201e-11 4.33657e-10 3.7166e-09 2.92213e-08 2.09852e-07 1.36855e-06 8.04881e-06 4.23355e-05 0.000197131 0.000802435 0.00281225 0.00834508 0.0206792 0.0426768 0.0745442 0.113914 0.158059 0.205165 0.254196 0.304412 0.355532 0.407535 0.460326 0.510857 0.56066 0.608431 0.656166 0.700661 0.745424 0.787294 0.82593 0.863092 0.889639 0.910485 0.925968 0.930424 0.933066 0.934496 0.934402 0.933801 0.932916 0.932057 0.931382 0.930837 0.930348 0.929908 0.929566 0.929355 0.92927 0.929211 0.929208 0.92923 0.928993 0.927665 0.924428 0.918715 0.907381 0.884903 0.843859 0.776013 0.675975 0.546605 0.402818 0.265653 0.153773 0.0769767 0.0336216 0.0132855 0.00494994 0.00178591 0.000631556 0.000219856 7.54238e-05 2.54961e-05 8.48849e-06 2.78189e-06 8.96976e-07 2.84422e-07 8.86588e-08 2.71608e-08 8.1748e-09 2.41697e-09 7.02261e-10 1.99555e-10 5.6212e-11 1.43117e-11 4.14987e-12 7.78752e-13 4.12152e-14 1.6949e-13 -4.38153e-14 -2.34831e-13 -7.73355e-14 -2.8908e-13 -2.00506e-13 3.6539e-14 5.67119e-13 -3.13161e-14 -6.32748e-13 -2.94971e-13 -4.79797e-13 1.0634e-12 -3.02444e-13 -2.72609e-13 -5.76719e-13 -6.61334e-13 5.28035e-13 -7.44254e-13 1.61484e-13 -9.55722e-14 -1.70589e-13 1.14791e-13 -4.76845e-13 2.01094e-13 9.12832e-13 -1.02715e-12 3.09949e-13 -7.84365e-13 -2.57284e-13 7.16661e-13 -7.31281e-13 8.73943e-14 -4.28313e-13 -1.19457e-12 8.64198e-13 -4.11207e-13 -4.6751e-13 8.51862e-14 1.63185e-13 3.99183e-13 -2.66775e-13 2.86346e-13 0 0 2.03647e-14 1.38748e-14 1.36041e-14 3.82797e-14 1.19483e-14 -3.66873e-14 2.60344e-15 -2.09676e-14 6.68693e-15 -6.46469e-14 -3.49371e-15 -4.61829e-14 6.15316e-14 -6.99126e-14 -2.63864e-14 7.21331e-14 -1.04203e-13 -3.30681e-14 -1.59635e-13 -8.02137e-14 -3.18368e-14 -2.65553e-14 -9.55114e-14 -2.21359e-13 -9.35391e-14 1.58898e-13 -1.73511e-13 -1.46259e-13 -3.17853e-14 -1.3638e-14 -1.10881e-13 -6.79201e-14 -6.14325e-14 -1.23005e-13 -1.83737e-13 -1.38749e-13 -3.86777e-14 -1.53012e-13 -1.26615e-14 -1.81525e-13 8.21849e-14 -2.10137e-14 -1.1231e-13 6.75128e-14 5.35055e-14 -1.07222e-13 4.39831e-14 -8.2355e-14 -3.00324e-13 -2.55163e-13 -3.1915e-14 1.53587e-13 -3.07658e-13 -2.81408e-13 1.11105e-13 -9.29687e-14 3.3623e-14 -1.10095e-13 -6.72172e-14 -1.92179e-15 -1.79641e-13 -2.17939e-14 -2.17185e-13 -3.61378e-15 1.70974e-15 3.49413e-13 4.81338e-12 4.67109e-11 4.34446e-10 3.71669e-09 2.92206e-08 2.09851e-07 1.36855e-06 8.04881e-06 4.23355e-05 0.000197131 0.000802435 0.00281225 0.00834508 0.0206792 0.0426768 0.0745442 0.113914 0.158059 0.205165 0.254196 0.304412 0.355532 0.407535 0.460326 0.510857 0.56066 0.608431 0.656166 0.700661 0.745424 0.787294 0.82593 0.863092 0.889639 0.910485 0.925968 0.930424 0.933066 0.934496 0.934402 0.933801 0.932916 0.932057 0.931382 0.930837 0.930348 0.929908 0.929566 0.929355 0.92927 0.929211 0.929208 0.92923 0.928993 0.927665 0.924428 0.918715 0.907381 0.884903 0.843859 0.776013 0.675975 0.546605 0.402818 0.265653 0.153773 0.0769767 0.0336216 0.0132855 0.00494994 0.00178591 0.000631556 0.000219856 7.54238e-05 2.54961e-05 8.48849e-06 2.78189e-06 8.96977e-07 2.84421e-07 8.86594e-08 2.71599e-08 8.17525e-09 2.41722e-09 7.01457e-10 2.00281e-10 5.54009e-11 1.55997e-11 3.54756e-12 9.61792e-13 -1.3995e-13 -2.48681e-13 1.2846e-13 1.29422e-13 -1.72279e-13 -2.0574e-13 -2.14666e-13 -2.78251e-13 -3.71956e-13 1.00749e-14 2.86947e-13 -6.80908e-14 2.77033e-13 -8.55281e-13 2.01007e-13 -4.46481e-13 -3.13972e-13 5.42506e-14 -7.18489e-13 -6.9074e-14 -3.25055e-13 1.29377e-13 3.77113e-13 -5.20929e-13 7.2513e-13 -7.62017e-14 -4.72254e-13 5.55289e-13 -5.00142e-13 2.68229e-13 -2.42582e-13 -6.47531e-13 5.7845e-13 -7.22216e-13 -1.75641e-13 1.14229e-13 -1.07836e-12 3.72445e-13 3.1471e-14 -1.79658e-13 2.25809e-13 -3.62215e-13 6.7798e-13 3.13468e-13 0 0 -2.21578e-15 2.67057e-16 3.33818e-14 1.4894e-14 7.79211e-15 -7.05999e-15 -3.15173e-14 1.74602e-14 -7.72459e-15 -2.5123e-14 -4.54723e-14 -5.85572e-15 4.48005e-15 -2.49777e-14 -2.95082e-14 -3.77708e-14 1.73528e-14 -4.95478e-14 -4.67682e-14 -6.52642e-14 -4.00306e-14 -1.21797e-13 -1.22201e-13 -8.9824e-15 -1.90063e-14 -5.92493e-14 -1.13106e-14 -1.22084e-13 -1.07699e-13 -1.23841e-13 -1.66566e-15 -1.37937e-13 -6.57501e-14 -1.65984e-13 -1.0059e-13 -1.55643e-13 -8.05882e-14 -2.22251e-14 -7.98383e-14 -3.54613e-14 3.54838e-14 6.2918e-14 -1.39662e-13 -7.57894e-14 -1.13454e-13 1.99006e-14 -2.34946e-14 -2.059e-13 -1.7122e-13 -1.80298e-13 -5.18551e-14 -2.78278e-13 -8.04332e-14 -5.66185e-14 -7.28304e-14 -7.97049e-14 -1.58372e-13 8.79975e-14 4.91046e-14 4.0945e-14 -1.43903e-13 -1.25557e-13 2.63098e-13 -1.00569e-13 -9.73662e-14 4.54717e-13 4.50887e-12 4.71052e-11 4.34206e-10 3.71677e-09 2.92209e-08 2.09851e-07 1.36855e-06 8.04881e-06 4.23355e-05 0.000197131 0.000802435 0.00281225 0.00834508 0.0206792 0.0426768 0.0745442 0.113914 0.158059 0.205165 0.254196 0.304412 0.355532 0.407535 0.460326 0.510857 0.56066 0.608431 0.656166 0.700661 0.745424 0.787294 0.82593 0.863092 0.889639 0.910485 0.925968 0.930424 0.933066 0.934496 0.934402 0.933801 0.932916 0.932057 0.931382 0.930837 0.930348 0.929908 0.929566 0.929355 0.92927 0.929211 0.929208 0.92923 0.928993 0.927665 0.924428 0.918715 0.907381 0.884903 0.843859 0.776013 0.675975 0.546605 0.402818 0.265653 0.153773 0.0769767 0.0336216 0.0132855 0.00494994 0.00178591 0.000631556 0.000219856 7.54238e-05 2.54961e-05 8.48849e-06 2.78189e-06 8.96977e-07 2.84421e-07 8.86589e-08 2.71604e-08 8.17477e-09 2.41693e-09 7.01769e-10 1.99781e-10 5.61471e-11 1.50788e-11 4.09804e-12 5.04656e-13 -9.64594e-14 -1.03671e-13 3.97732e-14 1.08035e-13 -1.91169e-13 -1.59774e-13 -2.7067e-13 -1.12941e-13 -2.97533e-13 -3.31992e-13 -4.54512e-13 4.68359e-13 -2.04852e-13 -1.11193e-13 -2.00805e-13 -3.43735e-13 -9.07037e-15 -3.32352e-13 -3.56103e-13 -4.81381e-13 -1.0984e-13 -1.43273e-13 -1.02367e-13 7.51787e-13 1.93258e-13 3.54508e-14 -2.17583e-13 2.23422e-13 1.7407e-13 2.02533e-13 6.32912e-14 -4.8995e-13 -5.99285e-13 9.69497e-14 -2.44874e-14 -4.85506e-13 -7.56468e-14 -7.06729e-13 8.67571e-13 7.24871e-14 -2.61196e-13 1.38746e-13 -1.35052e-13 2.30953e-13 0 0 -1.18041e-14 -4.64803e-15 2.09792e-15 -3.80385e-14 -8.38255e-15 6.91314e-15 -1.51034e-14 -1.29203e-14 3.19481e-14 9.58037e-15 2.43383e-15 -1.77489e-14 6.99129e-15 -7.29514e-15 7.47662e-15 -1.09829e-13 -2.91001e-14 -6.44739e-14 1.70921e-14 -2.88834e-14 -7.00091e-14 1.74142e-14 -3.17865e-14 4.65842e-14 -1.2487e-13 -1.92321e-13 -7.80353e-14 -5.8765e-14 -3.84109e-14 -8.36304e-14 -5.96067e-14 -1.73468e-13 -1.06324e-13 -1.66585e-13 -9.78754e-14 -3.91783e-15 -6.85698e-14 -1.10026e-13 -1.26598e-13 -3.42985e-14 -8.77406e-14 3.12415e-14 8.13155e-14 6.02962e-14 -1.16755e-13 -1.59967e-13 -6.4986e-14 -2.09282e-13 2.23653e-13 -1.58295e-13 -3.36686e-13 -3.89218e-13 1.19326e-13 1.74521e-14 -1.28383e-13 8.35952e-14 -2.62754e-13 1.15814e-13 2.48706e-14 -1.13513e-13 1.37988e-13 -2.46209e-13 -9.35365e-14 -5.85965e-14 -2.55088e-14 6.76857e-13 4.7148e-12 4.71073e-11 4.34102e-10 3.71692e-09 2.92212e-08 2.09851e-07 1.36855e-06 8.04881e-06 4.23355e-05 0.000197131 0.000802435 0.00281225 0.00834508 0.0206792 0.0426768 0.0745442 0.113914 0.158059 0.205165 0.254196 0.304412 0.355532 0.407535 0.460326 0.510857 0.56066 0.608431 0.656166 0.700661 0.745424 0.787294 0.82593 0.863092 0.889639 0.910485 0.925968 0.930424 0.933066 0.934496 0.934402 0.933801 0.932916 0.932057 0.931382 0.930837 0.930348 0.929908 0.929566 0.929355 0.92927 0.929211 0.929208 0.92923 0.928993 0.927665 0.924428 0.918715 0.907381 0.884903 0.843859 0.776013 0.675975 0.546605 0.402818 0.265653 0.153773 0.0769767 0.0336216 0.0132855 0.00494994 0.00178591 0.000631556 0.000219856 7.54238e-05 2.54961e-05 8.48849e-06 2.78189e-06 8.96976e-07 2.84421e-07 8.86589e-08 2.71603e-08 8.17475e-09 2.41681e-09 7.01883e-10 1.99948e-10 5.59969e-11 1.48917e-11 4.11747e-12 1.12658e-12 3.35214e-13 -6.48122e-14 -1.66931e-13 -3.42693e-13 4.31244e-13 -4.18682e-13 2.81747e-13 -4.80454e-13 -2.03841e-13 -2.69184e-13 -1.77919e-13 -1.60461e-13 -1.17769e-13 4.38276e-13 -3.69023e-13 -3.62878e-13 -3.12213e-13 -4.87915e-13 1.72584e-13 -4.54403e-13 1.96014e-13 -4.52519e-13 8.46002e-14 -2.72437e-13 -3.0521e-13 6.98882e-13 3.26126e-13 -9.79791e-14 -3.02996e-13 3.11063e-13 -1.26603e-14 -2.76218e-13 -8.22303e-13 -2.28003e-13 -2.65004e-14 -2.64713e-13 -4.21632e-14 9.08585e-14 -4.2963e-13 -2.0827e-13 -2.58993e-13 2.72242e-13 1.5656e-13 -3.07886e-13 0 0 -2.6649e-15 -2.11397e-14 -4.80315e-14 -8.05057e-15 -3.9047e-14 -4.14055e-14 2.47983e-14 -1.92207e-14 4.10336e-14 -1.93253e-14 4.46703e-14 -6.22492e-14 8.8866e-14 -3.43451e-14 4.98051e-14 4.92888e-14 -8.52973e-14 -3.21608e-14 -6.4469e-14 -5.15415e-14 -1.65174e-14 9.86593e-14 -7.98904e-15 -2.03027e-13 -1.52677e-13 -1.12107e-14 -2.21661e-13 -9.48981e-14 -1.7964e-14 -2.90396e-14 -1.24051e-13 -6.46257e-14 -4.27945e-14 -4.25525e-14 -7.55987e-14 -1.35456e-13 -2.73737e-14 -2.27236e-13 -6.0298e-14 -2.14119e-13 7.67081e-14 -7.41592e-14 8.21304e-15 1.62517e-13 6.22156e-14 -1.66972e-13 -3.74475e-14 -8.71625e-14 -3.79262e-14 -1.40941e-13 -2.03733e-13 3.45385e-14 -2.89952e-13 -1.74022e-13 1.22084e-13 1.16647e-13 4.78507e-14 -2.93679e-14 -6.0878e-14 -1.35136e-13 -1.55642e-13 -3.68014e-14 -4.94029e-13 -2.55242e-14 3.18754e-13 6.27976e-13 5.07473e-12 4.6801e-11 4.34451e-10 3.7166e-09 2.92207e-08 2.09851e-07 1.36855e-06 8.04881e-06 4.23355e-05 0.000197131 0.000802435 0.00281225 0.00834508 0.0206792 0.0426768 0.0745442 0.113914 0.158059 0.205165 0.254196 0.304412 0.355532 0.407535 0.460326 0.510857 0.56066 0.608431 0.656166 0.700661 0.745424 0.787294 0.82593 0.863092 0.889639 0.910485 0.925968 0.930424 0.933066 0.934496 0.934402 0.933801 0.932916 0.932057 0.931382 0.930837 0.930348 0.929908 0.929566 0.929355 0.92927 0.929211 0.929208 0.92923 0.928993 0.927665 0.924428 0.918715 0.907381 0.884903 0.843859 0.776013 0.675975 0.546605 0.402818 0.265653 0.153773 0.0769767 0.0336216 0.0132855 0.00494994 0.00178591 0.000631556 0.000219856 7.54238e-05 2.54961e-05 8.48849e-06 2.78189e-06 8.96976e-07 2.84421e-07 8.86594e-08 2.71599e-08 8.17529e-09 2.41728e-09 7.01387e-10 2.00068e-10 5.49588e-11 1.55098e-11 3.76214e-12 1.33984e-12 9.01359e-13 -2.26052e-13 -6.32525e-14 3.97627e-13 5.347e-14 2.68603e-13 -1.20036e-14 2.2411e-14 -7.31406e-13 -2.44932e-13 2.97872e-13 -4.06022e-14 2.47653e-13 -7.19652e-13 -6.59877e-14 -2.17557e-13 -5.25197e-13 -1.01662e-13 -7.66996e-13 2.06452e-13 -3.15153e-13 -2.42883e-13 2.82793e-13 -7.3145e-13 2.71549e-13 9.0822e-14 -6.93751e-13 3.06283e-13 -5.35468e-13 6.14785e-13 -3.20968e-13 -7.7299e-13 4.99015e-13 -1.04314e-12 -1.51807e-13 5.89987e-13 -1.24139e-12 1.17367e-12 -2.9446e-13 -1.84823e-13 2.22037e-13 -1.73429e-13 6.77457e-13 -2.30172e-13 0 0 -2.7793e-14 -3.55618e-14 -3.40563e-14 -2.33261e-14 -4.11861e-14 1.82696e-14 -1.76484e-14 4.76581e-14 -8.41213e-14 6.01834e-14 -4.43051e-14 5.36943e-14 -5.57693e-14 8.50597e-14 8.57305e-14 -3.14355e-14 8.94574e-14 -9.61071e-14 9.68552e-14 -9.36025e-14 -3.92099e-14 -1.61429e-13 -9.50282e-14 4.88846e-15 4.40033e-14 -4.57838e-13 5.9609e-14 -6.11076e-14 -1.73193e-13 -1.75742e-13 4.29421e-14 5.44747e-14 -6.25903e-14 3.49967e-14 8.80443e-14 -3.62756e-13 -1.49052e-13 -3.8536e-14 -2.56875e-13 -6.24791e-14 8.59818e-17 8.89777e-15 7.38572e-14 -1.46432e-13 -6.61178e-14 2.83184e-13 -1.39963e-13 4.25731e-14 -2.04135e-13 -1.12939e-13 -1.1158e-13 -2.86193e-13 -7.41447e-14 1.25934e-13 -5.34045e-14 1.04543e-13 -1.18165e-13 1.18179e-13 -1.44989e-14 -9.14141e-14 -4.88212e-13 -1.64507e-13 1.33547e-13 -4.07322e-13 4.81433e-13 7.42229e-13 4.8934e-12 4.73769e-11 4.33873e-10 3.71614e-09 2.92211e-08 2.09852e-07 1.36856e-06 8.04881e-06 4.23355e-05 0.000197131 0.000802435 0.00281225 0.00834508 0.0206792 0.0426768 0.0745442 0.113914 0.158059 0.205165 0.254196 0.304412 0.355532 0.407535 0.460326 0.510857 0.56066 0.608431 0.656166 0.700661 0.745424 0.787294 0.82593 0.863092 0.889639 0.910485 0.925968 0.930424 0.933066 0.934496 0.934402 0.933801 0.932916 0.932057 0.931382 0.930837 0.930348 0.929908 0.929566 0.929355 0.92927 0.929211 0.929208 0.92923 0.928993 0.927665 0.924428 0.918715 0.907381 0.884903 0.843859 0.776013 0.675975 0.546605 0.402818 0.265653 0.153773 0.0769767 0.0336216 0.0132855 0.00494994 0.00178591 0.000631556 0.000219856 7.54238e-05 2.54961e-05 8.48849e-06 2.78189e-06 8.96977e-07 2.84422e-07 8.86588e-08 2.7161e-08 8.17492e-09 2.41733e-09 7.01894e-10 1.98795e-10 5.56282e-11 1.45061e-11 4.54015e-12 2.91008e-13 1.26049e-12 1.37031e-13 -1.38317e-14 1.20303e-12 -8.70663e-13 1.17742e-12 -9.00016e-13 1.37289e-12 -3.39166e-13 -6.66946e-13 -1.16408e-12 1.01765e-12 -7.12723e-13 2.35721e-13 -4.99997e-13 2.23525e-13 -3.92885e-13 -6.62032e-13 -6.26353e-13 -2.47159e-13 -4.30422e-13 -2.216e-13 -7.33163e-13 1.7422e-12 -3.87071e-13 -7.91721e-13 -6.1758e-13 -8.82361e-13 1.19343e-12 -3.08313e-13 -2.62155e-13 3.82793e-14 -4.44117e-13 9.54621e-14 -3.7662e-13 -6.84641e-13 4.71166e-13 -4.03931e-13 1.47503e-12 6.36371e-13 1.51235e-13 5.09762e-13 -8.51044e-13 2.76742e-13 0
				</DataArray>
				<DataArray Name="VitesseY" type="Float32" format="ascii">