<?xml version="1.0"?>
<VTKFile type="PolyData">
	<PolyData>
		<Piece NumberOfPoints="1206" NumberOfPolys="1000">
			<Points>
				<DataArray type="Float32" NumberOfComponents="3" format="ascii">
 0 0 0 0.005 0 0 0.01 0 0 0.015 0 0 0.02 0 0 0.025 0 0 0.03 0 0 0.035 0 0 0.04 0 0 0.045 0 0 0.05 0 0 0.055 0 0 0.06 0 0 0.065 0 0 0.07 0 0 0.075 0 0 0.08 0 0 0.085 0 0 0.09 0 0 0.095 0 0 0.1 0 0 0.105 0 0 0.11 0 0 0.115 0 0 0.12 0 0 0.125 0 0 0.13 0 0 0.135 0 0 0.14 0 0 0.145 0 0 0.15 0 0 0.155 0 0 0.16 0 0 0.165 0 0 0.17 0 0 0.175 0 0 0.18 0 0 0.185 0 0 0.19 0 0 0.195 0 0 0.2 0 0 0.205 0 0 0.21 0 0 0.215 0 0 0.22 0 0 0.225 0 0 0.23 0 0 0.235 0 0 0.24 0 0 0.245 0 0 0.25 0 0 0.255 0 0 0.26 0 0 0.265 0 0 0.27 0 0 0.275 0 0 0.28 0 0 0.285 0 0 0.29 0 0 0.295 0 0 0.3 0 0 0.305 0 0 0.31 0 0 0.315 0 0 0.32 0 0 0.325 0 0 0.33 0 0 0.335 0 0 0.34 0 0 0.345 0 0 0.35 0 0 0.355 0 0 0.36 0 0 0.365 0 0 0.37 0 0 0.375 0 0 0.38 0 0 0.385 0 0 0.39 0 0 0.395 0 0 0.4 0 0 0.405 0 0 0.41 0 0 0.415 0 0 0.42 0 0 0.425 0 0 0.43 0 0 0.435 0 0 0.44 0 0 0.445 0 0 0.45 0 0 0.455 0 0 0.46 0 0 0.465 0 0 0.47 0 0 0.475 0 0 0.48 0 0 0.485 0 0 0.49 0 0 0.495 0 0 0.5 0 0 0.505 0 0 0.51 0 0 0.515 0 0 0.52 0 0 0.525 0 0 0.53 0 0 0.535 0 0 0.54 0 0 0.545 0 0 0.55 0 0 0.555 0 0 0.56 0 0 0.565 0 0 0.57 0 0 0.575 0 0 0.58 0 0 0.585 0 0 0.59 0 0 0.595 0 0 0.6 0 0 0.605 0 0 0.61 0 0 0.615 0 0 0.62 0 0 0.625 0 0 0.63 0 0 0.635 0 0 0.64 0 0 0.645 0 0 0.65 0 0 0.655 0 0 0.66 0 0 0.665 0 0 0.67 0 0 0.675 0 0 0.68 0 0 0.685 0 0 0.69 0 0 0.695 0 0 0.7 0 0 0.705 0 0 0.71 0 0 0.715 0 0 0.72 0 0 0.725 0 0 0.73 0 0 0.735 0 0 0.74 0 0 0.745 0 0 0.75 0 0 0.755 0 0 0.76 0 0 0.765 0 0 0.77 0 0 0.775 0 0 0.78 0 0 0.785 0 0 0.79 0 0 0.795 0 0 0.8 0 0 0.805 0 0 0.81 0 0 0.815 0 0 0.82 0 0 0.825 0 0 0.83 0 0 0.835 0 0 0.84 0 0 0.845 0 0 0.85 0 0 0.855 0 0 0.86 0 0 0.865 0 0 0.87 0 0 0.875 0 0 0.88 0 0 0.885 0 0 0.89 0 0 0.895 0 0 0.9 0 0 0.905 0 0 0.91 0 0 0.915 0 0 0.92 0 0 0.925 0 0 0.93 0 0 0.935 0 0 0.94 0 0 0.945 0 0 0.95 0 0 0.955 0 0 0.96 0 0 0.965 0 0 0.97 0 0 0.975 0 0 0.98 0 0 0.985 0 0 0.99 0 0 0.995 0 0 1 0 0 0 0.02 0 0.005 0.02 0 0.01 0.02 0 0.015 0.02 0 0.02 0.02 0 0.025 0.02 0 0.03 0.02 0 0.035 0.02 0 0.04 0.02 0 0.045 0.02 0 0.05 0.02 0 0.055 0.02 0 0.06 0.02 0 0.065 0.02 0 0.07 0.02 0 0.075 0.02 0 0.08 0.02 0 0.085 0.02 0 0.09 0.02 0 0.095 0.02 0 0.1 0.02 0 0.105 0.02 0 0.11 0.02 0 0.115 0.02 0 0.12 0.02 0 0.125 0.02 0 0.13 0.02 0 0.135 0.02 0 0.14 0.02 0 0.145 0.02 0 0.15 0.02 0 0.155 0.02 0 0.16 0.02 0 0.165 0.02 0 0.17 0.02 0 0.175 0.02 0 0.18 0.02 0 0.185 0.02 0 0.19 0.02 0 0.195 0.02 0 0.2 0.02 0 0.205 0.02 0 0.21 0.02 0 0.215 0.02 0 0.22 0.02 0 0.225 0.02 0 0.23 0.02 0 0.235 0.02 0 0.24 0.02 0 0.245 0.02 0 0.25 0.02 0 0.255 0.02 0 0.26 0.02 0 0.265 0.02 0 0.27 0.02 0 0.275 0.02 0 0.28 0.02 0 0.285 0.02 0 0.29 0.02 0 0.295 0.02 0 0.3 0.02 0 0.305 0.02 0 0.31 0.02 0 0.315 0.02 0 0.32 0.02 0 0.325 0.02 0 0.33 0.02 0 0.335 0.02 0 0.34 0.02 0 0.345 0.02 0 0.35 0.02 0 0.355 0.02 0 0.36 0.02 0 0.365 0.02 0 0.37 0.02 0 0.375 0.02 0 0.38 0.02 0 0.385 0.02 0 0.39 0.02 0 0.395 0.02 0 0.4 0.02 0 0.405 0.02 0 0.41 0.02 0 0.415 0.02 0 0.42 0.02 0 0.425 0.02 0 0.43 0.02 0 0.435 0.02 0 0.44 0.02 0 0.445 0.02 0 0.45 0.02 0 0.455 0.02 0 0.46 0.02 0 0.465 0.02 0 0.47 0.02 0 0.475 0.02 0 0.48 0.02 0 0.485 0.02 0 0.49 0.02 0 0.495 0.02 0 0.5 0.02 0 0.505 0.02 0 0.51 0.02 0 0.515 0.02 0 0.52 0.02 0 0.525 0.02 0 0.53 0.02 0 0.535 0.02 0 0.54 0.02 0 0.545 0.02 0 0.55 0.02 0 0.555 0.02 0 0.56 0.02 0 0.565 0.02 0 0.57 0.02 0 0.575 0.02 0 0.58 0.02 0 0.585 0.02 0 0.59 0.02 0 0.595 0.02 0 0.6 0.02 0 0.605 0.02 0 0.61 0.02 0 0.615 0.02 0 0.62 0.02 0 0.625 0.02 0 0.63 0.02 0 0.635 0.02 0 0.64 0.02 0 0.645 0.02 0 0.65 0.02 0 0.655 0.02 0 0.66 0.02 0 0.665 0.02 0 0.67 0.02 0 0.675 0.02 0 0.68 0.02 0 0.685 0.02 0 0.69 0.02 0 0.695 0.02 0 0.7 0.02 0 0.705 0.02 0 0.71 0.02 0 0.715 0.02 0 0.72 0.02 0 0.725 0.02 0 0.73 0.02 0 0.735 0.02 0 0.74 0.02 0 0.745 0.02 0 0.75 0.02 0 0.755 0.02 0 0.76 0.02 0 0.765 0.02 0 0.77 0.02 0 0.775 0.02 0 0.78 0.02 0 0.785 0.02 0 0.79 0.02 0 0.795 0.02 0 0.8 0.02 0 0.805 0.02 0 0.81 0.02 0 0.815 0.02 0 0.82 0.02 0 0.825 0.02 0 0.83 0.02 0 0.835 0.02 0 0.84 0.02 0 0.845 0.02 0 0.85 0.02 0 0.855 0.02 0 0.86 0.02 0 0.865 0.02 0 0.87 0.02 0 0.875 0.02 0 0.88 0.02 0 0.885 0.02 0 0.89 0.02 0 0.895 0.02 0 0.9 0.02 0 0.905 0.02 0 0.91 0.02 0 0.915 0.02 0 0.92 0.02 0 0.925 0.02 0 0.93 0.02 0 0.935 0.02 0 0.94 0.02 0 0.945 0.02 0 0.95 0.02 0 0.955 0.02 0 0.96 0.02 0 0.965 0.02 0 0.97 0.02 0 0.975 0.02 0 0.98 0.02 0 0.985 0.02 0 0.99 0.02 0 0.995 0.02 0 1 0.02 0 0 0.04 0 0.005 0.04 0 0.01 0.04 0 0.015 0.04 0 0.02 0.04 0 0.025 0.04 0 0.03 0.04 0 0.035 0.04 0 0.04 0.04 0 0.045 0.04 0 0.05 0.04 0 0.055 0.04 0 0.06 0.04 0 0.065 0.04 0 0.07 0.04 0 0.075 0.04 0 0.08 0.04 0 0.085 0.04 0 0.09 0.04 0 0.095 0.04 0 0.1 0.04 0 0.105 0.04 0 0.11 0.04 0 0.115 0.04 0 0.12 0.04 0 0.125 0.04 0 0.13 0.04 0 0.135 0.04 0 0.14 0.04 0 0.145 0.04 0 0.15 0.04 0 0.155 0.04 0 0.16 0.04 0 0.165 0.04 0 0.17 0.04 0 0.175 0.04 0 0.18 0.04 0 0.185 0.04 0 0.19 0.04 0 0.195 0.04 0 0.2 0.04 0 0.205 0.04 0 0.21 0.04 0 0.215 0.04 0 0.22 0.04 0 0.225 0.04 0 0.23 0.04 0 0.235 0.04 0 0.24 0.04 0 0.245 0.04 0 0.25 0.04 0 0.255 0.04 0 0.26 0.04 0 0.265 0.04 0 0.27 0.04 0 0.275 0.04 0 0.28 0.04 0 0.285 0.04 0 0.29 0.04 0 0.295 0.04 0 0.3 0.04 0 0.305 0.04 0 0.31 0.04 0 0.315 0.04 0 0.32 0.04 0 0.325 0.04 0 0.33 0.04 0 0.335 0.04 0 0.34 0.04 0 0.345 0.04 0 0.35 0.04 0 0.355 0.04 0 0.36 0.04 0 0.365 0.04 0 0.37 0.04 0 0.375 0.04 0 0.38 0.04 0 0.385 0.04 0 0.39 0.04 0 0.395 0.04 0 0.4 0.04 0 0.405 0.04 0 0.41 0.04 0 0.415 0.04 0 0.42 0.04 0 0.425 0.04 0 0.43 0.04 0 0.435 0.04 0 0.44 0.04 0 0.445 0.04 0 0.45 0.04 0 0.455 0.04 0 0.46 0.04 0 0.465 0.04 0 0.47 0.04 0 0.475 0.04 0 0.48 0.04 0 0.485 0.04 0 0.49 0.04 0 0.495 0.04 0 0.5 0.04 0 0.505 0.04 0 0.51 0.04 0 0.515 0.04 0 0.52 0.04 0 0.525 0.04 0 0.53 0.04 0 0.535 0.04 0 0.54 0.04 0 0.545 0.04 0 0.55 0.04 0 0.555 0.04 0 0.56 0.04 0 0.565 0.04 0 0.57 0.04 0 0.575 0.04 0 0.58 0.04 0 0.585 0.04 0 0.59 0.04 0 0.595 0.04 0 0.6 0.04 0 0.605 0.04 0 0.61 0.04 0 0.615 0.04 0 0.62 0.04 0 0.625 0.04 0 0.63 0.04 0 0.635 0.04 0 0.64 0.04 0 0.645 0.04 0 0.65 0.04 0 0.655 0.04 0 0.66 0.04 0 0.665 0.04 0 0.67 0.04 0 0.675 0.04 0 0.68 0.04 0 0.685 0.04 0 0.69 0.04 0 0.695 0.04 0 0.7 0.04 0 0.705 0.04 0 0.71 0.04 0 0.715 0.04 0 0.72 0.04 0 0.725 0.04 0 0.73 0.04 0 0.735 0.04 0 0.74 0.04 0 0.745 0.04 0 0.75 0.04 0 0.755 0.04 0 0.76 0.04 0 0.765 0.04 0 0.77 0.04 0 0.775 0.04 0 0.78 0.04 0 0.785 0.04 0 0.79 0.04 0 0.795 0.04 0 0.8 0.04 0 0.805 0.04 0 0.81 0.04 0 0.815 0.04 0 0.82 0.04 0 0.825 0.04 0 0.83 0.04 0 0.835 0.04 0 0.84 0.04 0 0.845 0.04 0 0.85 0.04 0 0.855 0.04 0 0.86 0.04 0 0.865 0.04 0 0.87 0.04 0 0.875 0.04 0 0.88 0.04 0 0.885 0.04 0 0.89 0.04 0 0.895 0.04 0 0.9 0.04 0 0.905 0.04 0 0.91 0.04 0 0.915 0.04 0 0.92 0.04 0 0.925 0.04 0 0.93 0.04 0 0.935 0.04 0 0.94 0.04 0 0.945 0.04 0 0.95 0.04 0 0.955 0.04 0 0.96 0.04 0 0.965 0.04 0 0.97 0.04 0 0.975 0.04 0 0.98 0.04 0 0.985 0.04 0 0.99 0.04 0 0.995 0.04 0 1 0.04 0 0 0.06 0 0.005 0.06 0 0.01 0.06 0 0.015 0.06 0 0.02 0.06 0 0.025 0.06 0 0.03 0.06 0 0.035 0.06 0 0.04 0.06 0 0.045 0.06 0 0.05 0.06 0 0.055 0.06 0 0.06 0.06 0 0.065 0.06 0 0.07 0.06 0 0.075 0.06 0 0.08 0.06 0 0.085 0.06 0 0.09 0.06 0 0.095 0.06 0 0.1 0.06 0 0.105 0.06 0 0.11 0.06 0 0.115 0.06 0 0.12 0.06 0 0.125 0.06 0 0.13 0.06 0 0.135 0.06 0 0.14 0.06 0 0.145 0.06 0 0.15 0.06 0 0.155 0.06 0 0.16 0.06 0 0.165 0.06 0 0.17 0.06 0 0.175 0.06 0 0.18 0.06 0 0.185 0.06 0 0.19 0.06 0 0.195 0.06 0 0.2 0.06 0 0.205 0.06 0 0.21 0.06 0 0.215 0.06 0 0.22 0.06 0 0.225 0.06 0 0.23 0.06 0 0.235 0.06 0 0.24 0.06 0 0.245 0.06 0 0.25 0.06 0 0.255 0.06 0 0.26 0.06 0 0.265 0.06 0 0.27 0.06 0 0.275 0.06 0 0.28 0.06 0 0.285 0.06 0 0.29 0.06 0 0.295 0.06 0 0.3 0.06 0 0.305 0.06 0 0.31 0.06 0 0.315 0.06 0 0.32 0.06 0 0.325 0.06 0 0.33 0.06 0 0.335 0.06 0 0.34 0.06 0 0.345 0.06 0 0.35 0.06 0 0.355 0.06 0 0.36 0.06 0 0.365 0.06 0 0.37 0.06 0 0.375 0.06 0 0.38 0.06 0 0.385 0.06 0 0.39 0.06 0 0.395 0.06 0 0.4 0.06 0 0.405 0.06 0 0.41 0.06 0 0.415 0.06 0 0.42 0.06 0 0.425 0.06 0 0.43 0.06 0 0.435 0.06 0 0.44 0.06 0 0.445 0.06 0 0.45 0.06 0 0.455 0.06 0 0.46 0.06 0 0.465 0.06 0 0.47 0.06 0 0.475 0.06 0 0.48 0.06 0 0.485 0.06 0 0.49 0.06 0 0.495 0.06 0 0.5 0.06 0 0.505 0.06 0 0.51 0.06 0 0.515 0.06 0 0.52 0.06 0 0.525 0.06 0 0.53 0.06 0 0.535 0.06 0 0.54 0.06 0 0.545 0.06 0 0.55 0.06 0 0.555 0.06 0 0.56 0.06 0 0.565 0.06 0 0.57 0.06 0 0.575 0.06 0 0.58 0.06 0 0.585 0.06 0 0.59 0.06 0 0.595 0.06 0 0.6 0.06 0 0.605 0.06 0 0.61 0.06 0 0.615 0.06 0 0.62 0.06 0 0.625 0.06 0 0.63 0.06 0 0.635 0.06 0 0.64 0.06 0 0.645 0.06 0 0.65 0.06 0 0.655 0.06 0 0.66 0.06 0 0.665 0.06 0 0.67 0.06 0 0.675 0.06 0 0.68 0.06 0 0.685 0.06 0 0.69 0.06 0 0.695 0.06 0 0.7 0.06 0 0.705 0.06 0 0.71 0.06 0 0.715 0.06 0 0.72 0.06 0 0.725 0.06 0 0.73 0.06 0 0.735 0.06 0 0.74 0.06 0 0.745 0.06 0 0.75 0.06 0 0.755 0.06 0 0.76 0.06 0 0.765 0.06 0 0.77 0.06 0 0.775 0.06 0 0.78 0.06 0 0.785 0.06 0 0.79 0.06 0 0.795 0.06 0 0.8 0.06 0 0.805 0.06 0 0.81 0.06 0 0.815 0.06 0 0.82 0.06 0 0.825 0.06 0 0.83 0.06 0 0.835 0.06 0 0.84 0.06 0 0.845 0.06 0 0.85 0.06 0 0.855 0.06 0 0.86 0.06 0 0.865 0.06 0 0.87 0.06 0 0.875 0.06 0 0.88 0.06 0 0.885 0.06 0 0.89 0.06 0 0.895 0.06 0 0.9 0.06 0 0.905 0.06 0 0.91 0.06 0 0.915 0.06 0 0.92 0.06 0 0.925 0.06 0 0.93 0.06 0 0.935 0.06 0 0.94 0.06 0 0.945 0.06 0 0.95 0.06 0 0.955 0.06 0 0.96 0.06 0 0.965 0.06 0 0.97 0.06 0 0.975 0.06 0 0.98 0.06 0 0.985 0.06 0 0.99 0.06 0 0.995 0.06 0 1 0.06 0 0 0.08 0 0.005 0.08 0 0.01 0.08 0 0.015 0.08 0 0.02 0.08 0 0.025 0.08 0 0.03 0.08 0 0.035 0.08 0 0.04 0.08 0 0.045 0.08 0 0.05 0.08 0 0.055 0.08 0 0.06 0.08 0 0.065 0.08 0 0.07 0.08 0 0.075 0.08 0 0.08 0.08 0 0.085 0.08 0 0.09 0.08 0 0.095 0.08 0 0.1 0.08 0 0.105 0.08 0 0.11 0.08 0 0.115 0.08 0 0.12 0.08 0 0.125 0.08 0 0.13 0.08 0 0.135 0.08 0 0.14 0.08 0 0.145 0.08 0 0.15 0.08 0 0.155 0.08 0 0.16 0.08 0 0.165 0.08 0
[...]
			<PointData Scalars="VitesseX">
				<DataArray Name="VitesseX" type="Float32" format="ascii">
 0 5.77566e-15 -9.23719e-15 -6.89283e-15 5.01489e-14 -4.75169e-14 -9.85765e-14 2.94809e-14 -3.75361e-15 5.16139e-14 -6.96376e-14 -5.59225e-14 -1.305e-13 6.29116e-15 -8.71304e-14 -1.26814e-13 6.72027e-14 -5.41649e-14 -3.65904e-14 -9.63435e-14 -1.59629e-13 -1.58836e-14 8.83628e-15 -1.60819e-13 -2.01926e-13 -1.16949e-13 1.49481e-13 -1.77503e-13 -7.66783e-14 -6.27774e-14 -6.29505e-14 9.93609e-14 -6.19694e-14 -6.58269e-14 -1.74774e-13 5.93691e-14 -7.68741e-17 -6.52445e-14 -1.71226e-13 -2.64704e-13 -1.1313e-13 -7.39934e-14 -2.3413e-13 -4.60325e-13 -8.84145e-14 1.47961e-13 1.09241e-13 -2.18959e-13 -1.21726e-13 -2.2123e-13 9.64386e-14 6.6982e-13 1.02224e-13 -7.69483e-13 -2.54722e-13 -1.6831e-13 5.36931e-14 -2.25899e-13 -7.85752e-14 -3.83164e-14 1.23126e-13 1.21752e-13 -9.3115e-15 1.97858e-14 1.49836e-13 -2.42798e-13 -1.27079e-13 -5.28329e-13 -4.09446e-13 2.9991e-13 -3.80608e-13 -1.60837e-13 6.1176e-13 5.33975e-12 6.31099e-11 7.11341e-10 7.32166e-09 6.80377e-08 5.66766e-07 4.19716e-06 2.73549e-05 0.000154963 0.000751126 0.00305469 0.0101917 0.0273646 0.058937 0.104389 0.159477 0.220457 0.285257 0.352513 0.421892 0.492228 0.555651 0.620769 0.678465 0.736108 0.789691 0.834029 0.87831 0.904643 0.920008 0.932945 0.93565 0.935077 0.93433 0.933843 0.933411 0.932792 0.931937 0.931065 0.930435 0.930447 0.930427 0.92878 0.922245 0.909706 0.887693 0.846599 0.776248 0.671133 0.535663 0.386999 0.248148 0.138133 0.0657543 0.027118 0.0100973 0.00353903 0.00119623 0.000393887 0.00012676 3.98996e-05 1.22823e-05 3.69641e-06 1.08727e-06 3.125e-07 8.77492e-08 2.40691e-08 6.44962e-09 1.68809e-09 4.30464e-10 1.08398e-10 2.6886e-11 5.76353e-12 1.78512e-12 -5.22795e-13 3.18838e-13 3.144e-13 -1.21521e-12 6.7029e-13 -1.04935e-12 7.33419e-13 9.10889e-14 2.46785e-13 -1.14688e-12 -1.70567e-14 7.48242e-13 6.06595e-13 -5.04049e-13 -1.58867e-12 5.82798e-13 7.51565e-13 -5.11439e-13 -3.19032e-13 -4.1436e-13 5.84847e-13 6.00806e-13 -1.11689e-12 6.44652e-13 5.18467e-13 -4.16712e-13 1.21392e-13 -7.99721e-13 5.82803e-13 -2.13095e-13 -7.73881e-13 1.72923e-13 -1.13637e-12 5.82655e-13 4.85987e-13 -6.86666e-13 3.01867e-13 -3.36152e-13 9.91515e-13 -4.4075e-14 -1.0506e-12 -2.70965e-13 -9.08832e-13 8.45116e-13 2.53287e-13 -2.50348e-12 4.07976e-13 1.11071e-12 2.08869e-15 -4.81815e-13 -2.83568e-12 1.76316e-12 1.31363e-12 0 0 -1.72738e-14 1.34345e-15 2.90863e-15 -5.17071e-14 2.12031e-14 5.46877e-14 -3.62935e-14 2.25034e-15 -7.05047e-14 1.20792e-14 -2.99853e-14 -2.05934e-14 -1.15745e-13 -7.85968e-14 -2.94688e-15 -1.58026e-13 -1.70115e-14 -6.97788e-14 1.08366e-14 -1.35747e-14 -1.53024e-13 -1.81089e-13 -2.97106e-14 8.10248e-14 -7.01278e-14 -2.98557e-13 7.82806e-15 -6.02567e-14 4.04381e-15 -2.31049e-14 -7.00645e-14 -6.64166e-14 -1.02337e-13 1.77851e-13 -8.57779e-14 -1.74085e-13 -1.59729e-13 -6.77045e-14 -6.03795e-14 -1.7138e-13 -2.31529e-13 -1.21622e-13 -2.16892e-14 -1.38151e-13 -2.85257e-13 -8.08206e-14 1.60846e-13 1.22483e-13 2.99662e-13 9.11888e-14 -4.43081e-13 -2.4942e-13 2.11847e-13 -1.0304e-13 -3.42521e-13 -2.45523e-13 -6.68006e-14 -7.14039e-14 1.23949e-13 -8.12429e-14 -3.75451e-14 1.18676e-13 4.15982e-14 -2.69915e-13 -8.42598e-14 -2.95376e-13 1.21676e-13 -1.24286e-13 -5.34389e-13 -6.2876e-15 2.9967e-13 7.07413e-13 5.28774e-12 6.28074e-11 7.11545e-10 7.322e-09 6.8038e-08 5.66765e-07 4.19716e-06 2.73549e-05 0.000154963 0.000751126 0.00305469 0.0101917 0.0273646 0.058937 0.104389 0.159477 0.220457 0.285257 0.352513 0.421892 0.492228 0.555651 0.620769 0.678465 0.736108 0.789691 0.834029 0.87831 0.904643 0.920008 0.932945 0.93565 0.935077 0.93433 0.933843 0.933411 0.932792 0.931937 0.931065 0.930435 0.930447 0.930427 0.92878 0.922245 0.909706 0.887693 0.846599 0.776248 0.671133 0.535663 0.386999 0.248148 0.138133 0.0657543 0.027118 0.0100973 0.00353903 0.00119623 0.000393887 0.00012676 3.98996e-05 1.22823e-05 3.69641e-06 1.08727e-06 3.125e-07 8.77483e-08 2.40699e-08 6.44889e-09 1.6881e-09 4.32505e-10 1.07208e-10 2.58618e-11 6.62077e-12 1.16766e-12 8.03836e-13 -4.59547e-13 -7.23049e-13 7.55115e-13 -6.64104e-13 4.39293e-13 -7.29871e-13 1.89994e-15 -2.31934e-13 6.4848e-13 -1.90685e-13 -5.9217e-13 -7.04561e-13 1.74561e-13 8.77704e-13 -5.39233e-13 -8.49826e-13 8.66418e-14 2.45607e-16 1.96139e-13 -1.71159e-13 -2.31043e-13 1.10297e-12 -5.63637e-13 -1.16295e-13 3.00229e-13 -3.7179e-13 4.78317e-13 -7.08536e-13 -2.68412e-13 -2.39136e-15 -6.74633e-13 6.32565e-13 -8.08284e-13 -5.10094e-13 8.2616e-13 -2.16915e-13 6.15851e-13 -7.02402e-13 -1.44424e-13 4.95467e-13 -1.95299e-13 2.20281e-13 -1.03778e-12 -7.63991e-13 1.8463e-12 -9.80328e-13 -9.2869e-13 -6.22392e-13 -1.97691e-13 1.50822e-12 -1.44562e-12 -4.37935e-13 0 0 1.17334e-14 6.59769e-16 7.02339e-15 1.6317e-15 9.79779e-15 1.69632e-14 2.53156e-14 -1.12027e-14 -2.37283e-15 -1.99274e-14 -2.81735e-14 -5.31723e-14 -5.9312e-14 -8.14384e-14 -8.50734e-14 -3.15802e-14 -1.78832e-13 7.20864e-14 -9.25498e-14 -1.25477e-13 -4.32589e-14 -2.85536e-14 -3.11032e-14 -1.55564e-13 -7.07715e-14 5.7571e-14 -1.97758e-13 -7.06326e-14 -6.28879e-14 3.87246e-14 -5.01663e-14 2.03106e-14 4.92755e-14 -2.45669e-13 -8.22639e-15 -2.90688e-14 3.07755e-14 -1.76818e-13 -2.70539e-13 -1.90902e-13 -2.00622e-13 -4.22768e-15 -6.44854e-14 4.37822e-14 -7.58466e-17 -2.67379e-14 3.6893e-14 -9.4847e-15 -6.96919e-14 -1.41763e-13 1.23182e-13 -1.03133e-13 -1.10851e-13 -1.61757e-13 -3.51477e-14 -1.21409e-13 -3.16184e-13 4.25212e-15 1.72577e-14 -2.2958e-14 -8.69519e-14 -1.30085e-13 -1.12096e-13 9.76878e-14 -1.21168e-13 1.94423e-13 -4.38597e-13 -1.90643e-13 -1.84222e-13 5.81788e-14 1.62073e-13 7.05026e-13 5.46254e-12 6.3545e-11 7.11696e-10 7.32142e-09 6.80378e-08 5.66766e-07 4.19716e-06 2.73549e-05 0.000154963 0.000751126 0.00305469 0.0101917 0.0273646 0.058937 0.104389 0.159477 0.220457 0.285257 0.352513 0.421892 0.492228 0.555651 0.620769 0.678465 0.736108 0.789691 0.834029 0.87831 0.904643 0.920008 0.932945 0.93565 0.935077 0.93433 0.933843 0.933411 0.932792 0.931937 0.931065 0.930435 0.930447 0.930427 0.92878 0.922245 0.909706 0.887693 0.846599 0.776248 0.671133 0.535663 0.386999 0.248148 0.138133 0.0657543 0.027118 0.0100973 0.00353903 0.00119623 0.000393887 0.00012676 3.98996e-05 1.22823e-05 3.69641e-06 1.08727e-06 3.125e-07 8.77489e-08 2.40695e-08 6.44935e-09 1.68834e-09 4.31528e-10 1.08171e-10 2.61802e-11 5.87786e-12 1.38802e-12 -1.94399e-13 1.96834e-13 2.79916e-13 -3.80877e-13 2.28302e-13 -5.69545e-13 -3.41896e-13 -2.73226e-13 1.5528e-13 -2.84517e-13 -9.4317e-14 -3.23088e-13 -4.27288e-13 -1.13209e-13 -6.91474e-13 7.81096e-14 -2.44119e-13 -2.09625e-13 1.28192e-13 -2.49024e-13 -3.47347e-13 4.03207e-13 3.30708e-13 2.07505e-13 2.56175e-14 -2.51594e-13 -5.55186e-15 -5.0955e-14 -1.07384e-13 -3.55783e-13 -1.55661e-13 1.19543e-13 -6.35687e-13 -1.95298e-13 6.04826e-14 5.53702e-14 1.94025e-13 -2.26048e-13 2.20233e-13 -6.31192e-14 1.53904e-15 4.45083e-13 -6.5179e-13 2.03387e-13 -1.38849e-13 -2.3574e-13 -1.44245e-13 6.71162e-14 -5.65824e-13 -7.05673e-13 -2.7448e-13 9.12989e-13 2.53721e-13 0 0 9.05504e-15 4.07084e-14 4.37964e-14 6.8725e-14 1.33814e-14 -2.22107e-14 4.37067e-14 -2.13879e-14 -1.47313e-14 -5.78504e-14 -7.94941e-14 -2.3597e-14 -2.47151e-14 -8.07754e-14 -1.07989e-13 -1.01264e-15 -7.44439e-14 -6.30207e-14 -1.35968e-13 -1.21467e-13 -3.08171e-14 -1.26189e-14 -1.56387e-13 -5.79895e-14 -4.99099e-14 5.89944e-14 -1.06594e-13 -8.65261e-14 3.0165e-14 -3.38011e-14 -1.27148e-14 -7.78275e-14 -8.98393e-14 -1.05145e-13 -1.46886e-13 -8.59378e-14 -5.54502e-14 -1.04721e-13 -9.39718e-14 -1.12152e-13 -6.59281e-14 -2.22942e-13 -1.23483e-13 -2.08617e-14 -5.07273e-14 1.43957e-13 -1.1439e-13 -1.49881e-13 -1.06487e-13 -6.07847e-14 3.65062e-13 -1.3471e-13 -4.48116e-13 -3.71372e-13 7.05853e-14 3.80191e-14 -1.71279e-13 -1.1864e-13 -2.47039e-14 -2.92814e-14 1.10064e-14 1.26957e-13 -1.59613e-13 2.42971e-13 -1.69052e-13 -8.54263e-14 -5.27221e-13 -3.17706e-13 1.3848e-13 -7.02054e-15 3.63282e-14 8.83674e-13 5.57205e-12 6.34075e-11 7.11794e-10 7.32191e-09 6.80377e-08 5.66766e-07 4.19716e-06 2.73549e-05 0.000154963 0.000751126 0.00305469 0.0101917 0.0273646 0.058937 0.104389 0.159477 0.220457 0.285257 0.352513 0.421892 0.492228 0.555651 0.620769 0.678465 0.736108 0.789691 0.834029 0.87831 0.904643 0.920008 0.932945 0.93565 0.935077 0.93433 0.933843 0.933411 0.932792 0.931937 0.931065 0.930435 0.930447 0.930427 0.92878 0.922245 0.909706 0.887693 0.846599 0.776248 0.671133 0.535663 0.386999 0.248148 0.138133 0.0657543 0.027118 0.0100973 0.00353903 0.00119623 0.000393887 0.00012676 3.98996e-05 1.22823e-05 3.69641e-06 1.08727e-06 3.125e-07 8.77489e-08 2.40696e-08 6.44943e-09 1.68816e-09 4.31408e-10 1.08153e-10 2.68716e-11 5.92912e-12 1.30198e-12 -2.33409e-13 -1.51288e-13 2.62346e-13 -2.36749e-13 -2.69958e-13 -2.23076e-13 -3.91753e-13 -8.55431e-14 -1.05158e-13 -8.84757e-13 -3.18551e-13 5.46526e-13 2.53467e-13 -5.13934e-13 -1.12579e-12 -2.9745e-13 -1.97915e-14 -1.27942e-13 -1.78987e-13 -3.40388e-14 2.29917e-13 1.82319e-13 -5.35077e-13 2.6828e-13 -7.22471e-14 -1.11736e-13 -7.4704e-14 1.32966e-13 -1.62323e-14 -1.80342e-13 -5.7385e-13 -6.26535e-14 -2.10135e-13 1.45302e-13 4.22048e-13 -7.29791e-13 1.36299e-13 -1.55786e-13 7.12702e-13 -6.02982e-13 1.35109e-13 -2.38331e-13 4.78626e-13 -4.69294e-13 -2.82354e-13 -7.44228e-13 -2.40689e-13 7.70842e-13 -4.73052e-14 -7.07071e-13 -9.61786e-13 8.46572e-13 1.0842e-12 0 0 1.87271e-14 6.53177e-14 5.81114e-14 1.65735e-14 4.34107e-14 5.23417e-14 -3.97519e-14 2.74952e-15 -8.56324e-14 -4.25416e-14 -7.46313e-14 -2.74238e-16 -8.56055e-14 -4.94648e-14 -2.66957e-14 -1.1642e-13 6.97765e-14 -1.53674e-13 -2.62345e-14 -2.80671e-14 -1.23003e-13 -1.83895e-13 -5.96325e-14 1.49945e-13 2.11386e-14 -2.24748e-13 1.03894e-13 -6.69119e-14 3.80625e-14 -1.64422e-13 -1.70542e-13 -1.01593e-13 -1.88841e-13 1.9635e-13 -2.4845e-13 -1.66989e-13 -1.30559e-13 -1.08553e-13 7.14704e-14 -1.84163e-13 -8.72504e-14 -1.95548e-13 7.96588e-14 -1.95233e-13 -1.98679e-13 1.81358e-14 1.42343e-13 5.71705e-14 2.2136e-13 3.01792e-14 -4.77177e-13 -1.56393e-13 1.66038e-14 -2.05671e-13 -2.44244e-13 -3.46618e-13 -1.17193e-13 -2.34118e-13 1.63206e-13 -2.27321e-14 1.20669e-13 4.43544e-13 -1.04285e-14 -1.77244e-13 -1.09007e-13 -4.40829e-13 -1.93063e-15 -4.30263e-13 -3.29805e-13 1.23315e-13 6.00778e-13 9.2579e-13 5.59871e-12 6.30683e-11 7.11642e-10 7.32238e-09 6.8038e-08 5.66765e-07 4.19716e-06 2.73549e-05 0.000154963 0.000751126 0.00305469 0.0101917 0.0273646 0.058937 0.104389 0.159477 0.220457 0.285257 0.352513 0.421892 0.492228 0.555651 0.620769 0.678465 0.736108 0.789691 0.834029 0.87831 0.904643 0.920008 0.932945 0.93565 0.935077 0.93433 0.933843 0.933411 0.932792 0.931937 0.931065 0.930435 0.930447 0.930427 0.92878 0.922245 0.909706 0.887693 0.846599 0.776248 0.671133 0.535663 0.386999 0.248148 0.138133 0.0657543 0.027118 0.0100973 0.00353903 0.00119623 0.000393887 0.00012676 3.98996e-05 1.22823e-05 3.69641e-06 1.08727e-06 3.125e-07 8.77485e-08 2.40699e-08 6.44916e-09 1.6881e-09 4.32511e-10 1.0707e-10 2.63194e-11 6.73789e-12 8.40632e-13 6.85492e-13 -5.98125e-13 -5.63358e-13 1.0124e-12 -1.17803e-12 6.32247e-13 -8.87095e-13 -2.0806e-13 -8.47843e-13 2.81248e-13 -5.83456e-14 -2.31898e-13 -3.07927e-13 -2.26482e-13 1.00151e-12 -1.05577e-12 -8.22725e-13 6.16128e-14 1.92358e-13 3.39318e-13 -3.55927e-14 -2.44181e-13 2.84821e-13 -4.31701e-13 -5.95931e-13 4.85131e-13 -3.36858e-13 8.42116e-15 -8.32117e-13 -3.43717e-13 -2.30063e-13 -7.75718e-13 6.17194e-13 -1.83749e-13 -2.85075e-13 5.42792e-13 3.59909e-13 4.75435e-13 -5.62886e-13 -4.47541e-13 1.05681e-12 -5.2099e-13 7.52677e-13 -1.49791e-12 -1.01192e-12 1.64356e-12 -8.56033e-13 -8.5932e-13 -2.3871e-13 -1.34151e-13 1.40944e-12 -1.29508e-12 -4.09322e-13 0 0 8.3134e-14 3.8614e-14 2.99668e-14 5.25235e-14 -1.02688e-14 -2.49206e-14 -1.42181e-14 1.76151e-14 4.60754e-14 -1.03033e-13 -4.25735e-14 -1.49012e-13 -2.62288e-15 -3.01926e-14 -1.28481e-13 8.92809e-14 -8.93647e-14 6.5834e-14 -8.36486e-14 -1.96632e-13 1.92735e-14 -2.86443e-14 2.99044e-14 -2.59236e-13 2.38607e-14 2.94252e-13 -1.67697e-13 -5.82019e-14 -1.80846e-13 -2.00534e-13 -1.76497e-13 6.39534e-14 3.93949e-14 -4.18825e-13 1.13448e-14 1.27854e-13 1.65547e-13 -3.97118e-13 -3.54138e-13 -2.96196e-13 -5.48233e-14 5.54445e-14 -1.39634e-13 -7.32907e-14 4.22419e-13 -3.42352e-14 4.66009e-14 2.84421e-14 -3.04245e-13 -1.87537e-13 1.17868e-13 3.51432e-13 -4.8544e-13 -4.07538e-14 -1.83222e-13 -4.67353e-13 -6.16494e-13 -1.58218e-13 1.24121e-13 2.52794e-13 2.42264e-13 1.26341e-13 1.07649e-14 4.46118e-14 -1.96525e-13 1.41714e-13 -5.98294e-13 -7.67275e-13 6.36738e-14 8.99539e-15 6.92868e-13 6.91219e-13 5.74267e-12 6.39068e-11 7.1134e-10 7.32145e-09 6.80379e-08 5.66767e-07 4.19716e-06 2.73549e-05 0.000154963 0.000751126 0.00305469 0.0101917 0.0273646 0.058937 0.104389 0.159477 0.220457 0.285257 0.352513 0.421892 0.492228 0.555651 0.620769 0.678465 0.736108 0.789691 0.834029 0.87831 0.904643 0.920008 0.932945 0.93565 0.935077 0.93433 0.933843 0.933411 0.932792 0.931937 0.931065 0.930435 0.930447 0.930427 0.92878 0.922245 0.909706 0.887693 0.846599 0.776248 0.671133 0.535663 0.386999 0.248148 0.138133 0.0657543 0.027118 0.0100973 0.00353903 0.00119623 0.000393887 0.00012676 3.98996e-05 1.22823e-05 3.69641e-06 1.08727e-06 3.125e-07 8.77496e-08 2.4069e-08 6.45e-09 1.68844e-09 4.30716e-10 1.08159e-10 2.64184e-11 5.89525e-12 1.30315e-12 -6.81463e-13 7.37926e-13 6.68922e-13 -9.88892e-13 6.38961e-13 -1.35638e-12 5.18684e-13 -7.04197e-13 -4.64157e-13 -6.80865e-13 6.96091e-13 -2.70441e-13 3.83526e-14 -5.04684e-13 -4.72427e-13 3.00838e-13 3.57111e-13 -7.24863e-13 6.7955e-13 -5.57971e-13 -2.98548e-13 1.0163e-12 -1.02162e-12 7.86973e-13 -2.45075e-13 -3.26626e-13 3.29559e-13 -2.10736e-12 1.53338e-13 -7.14588e-13 -3.92844e-13 3.35146e-13 -2.01822e-12 1.15053e-12 2.12894e-13 3.1692e-13 1.57097e-12 -7.57508e-13 2.85609e-13 4.29417e-13 -1.95052e-13 4.44479e-13 -2.10487e-12 1.27022e-12 4.444e-14 -1.89199e-12 8.49454e-13 -1.58004e-13 -2.67584e-13 -3.5194e-13 -1.65864e-12 2.19707e-12 -2.90106e-13 0
				</DataArray>
				<DataArray Name="VitesseY" type="Float32" format="ascii">