<?xml version="1.0"?>
<VTKFile type="PolyData">
	<PolyData>
		<Piece NumberOfPoints="1206" NumberOfPolys="1000">
			<Points>
				<DataArray type="Float32" NumberOfComponents="3" format="ascii">
 0 0 0 0.005 0 0 0.01 0 0 0.015 0 0 0.02 0 0 0.025 0 0 0.03 0 0 0.035 0 0 0.04 0 0 0.045 0 0 0.05 0 0 0.055 0 0 0.06 0 0 0.065 0 0 0.07 0 0 0.075 0 0 0.08 0 0 0.085 0 0 0.09 0 0 0.095 0 0 0.1 0 0 0.105 0 0 0.11 0 0 0.115 0 0 0.12 0 0 0.125 0 0 0.13 0 0 0.135 0 0 0.14 0 0 0.145 0 0 0.15 0 0 0.155 0 0 0.16 0 0 0.165 0 0 0.17 0 0 0.175 0 0 0.18 0 0 0.185 0 0 0.19 0 0 0.195 0 0 0.2 0 0 0.205 0 0 0.21 0 0 0.215 0 0 0.22 0 0 0.225 0 0 0.23 0 0 0.235 0 0 0.24 0 0 0.245 0 0 0.25 0 0 0.255 0 0 0.26 0 0 0.265 0 0 0.27 0 0 0.275 0 0 0.28 0 0 0.285 0 0 0.29 0 0 0.295 0 0 0.3 0 0 0.305 0 0 0.31 0 0 0.315 0 0 0.32 0 0 0.325 0 0 0.33 0 0 0.335 0 0 0.34 0 0 0.345 0 0 0.35 0 0 0.355 0 0 0.36 0 0 0.365 0 0 0.37 0 0 0.375 0 0 0.38 0 0 0.385 0 0 0.39 0 0 0.395 0 0 0.4 0 0 0.405 0 0 0.41 0 0 0.415 0 0 0.42 0 0 0.425 0 0 0.43 0 0 0.435 0 0 0.44 0 0 0.445 0 0 0.45 0 0 0.455 0 0 0.46 0 0 0.465 0 0 0.47 0 0 0.475 0 0 0.48 0 0 0.485 0 0 0.49 0 0 0.495 0 0 0.5 0 0 0.505 0 0 0.51 0 0 0.515 0 0 0.52 0 0 0.525 0 0 0.53 0 0 0.535 0 0 0.54 0 0 0.545 0 0 0.55 0 0 0.555 0 0 0.56 0 0 0.565 0 0 0.57 0 0 0.575 0 0 0.58 0 0 0.585 0 0 0.59 0 0 0.595 0 0 0.6 0 0 0.605 0 0 0.61 0 0 0.615 0 0 0.62 0 0 0.625 0 0 0.63 0 0 0.635 0 0 0.64 0 0 0.645 0 0 0.65 0 0 0.655 0 0 0.66 0 0 0.665 0 0 0.67 0 0 0.675 0 0 0.68 0 0 0.685 0 0 0.69 0 0 0.695 0 0 0.7 0 0 0.705 0 0 0.71 0 0 0.715 0 0 0.72 0 0 0.725 0 0 0.73 0 0 0.735 0 0 0.74 0 0 0.745 0 0 0.75 0 0 0.755 0 0 0.76 0 0 0.765 0 0 0.77 0 0 0.775 0 0 0.78 0 0 0.785 0 0 0.79 0 0 0.795 0 0 0.8 0 0 0.805 0 0 0.81 0 0 0.815 0 0 0.82 0 0 0.825 0 0 0.83 0 0 0.835 0 0 0.84 0 0 0.845 0 0 0.85 0 0 0.855 0 0 0.86 0 0 0.865 0 0 0.87 0 0 0.875 0 0 0.88 0 0 0.885 0 0 0.89 0 0 0.895 0 0 0.9 0 0 0.905 0 0 0.91 0 0 0.915 0 0 0.92 0 0 0.925 0 0 0.93 0 0 0.935 0 0 0.94 0 0 0.945 0 0 0.95 0 0 0.955 0 0 0.96 0 0 0.965 0 0 0.97 0 0 0.975 0 0 0.98 0 0 0.985 0 0 0.99 0 0 0.995 0 0 1 0 0 0 0.02 0 0.005 0.02 0 0.01 0.02 0 0.015 0.02 0 0.02 0.02 0 0.025 0.02 0 0.03 0.02 0 0.035 0.02 0 0.04 0.02 0 0.045 0.02 0 0.05 0.02 0 0.055 0.02 0 0.06 0.02 0 0.065 0.02 0 0.07 0.02 0 0.075 0.02 0 0.08 0.02 0 0.085 0.02 0 0.09 0.02 0 0.095 0.02 0 0.1 0.02 0 0.105 0.02 0 0.11 0.02 0 0.115 0.02 0 0.12 0.02 0 0.125 0.02 0 0.13 0.02 0 0.135 0.02 0 0.14 0.02 0 0.145 0.02 0 0.15 0.02 0 0.155 0.02 0 0.16 0.02 0 0.165 0.02 0 0.17 0.02 0 0.175 0.02 0 0.18 0.02 0 0.185 0.02 0 0.19 0.02 0 0.195 0.02 0 0.2 0.02 0 0.205 0.02 0 0.21 0.02 0 0.215 0.02 0 0.22 0.02 0 0.225 0.02 0 0.23 0.02 0 0.235 0.02 0 0.24 0.02 0 0.245 0.02 0 0.25 0.02 0 0.255 0.02 0 0.26 0.02 0 0.265 0.02 0 0.27 0.02 0 0.275 0.02 0 0.28 0.02 0 0.285 0.02 0 0.29 0.02 0 0.295 0.02 0 0.3 0.02 0 0.305 0.02 0 0.31 0.02 0 0.315 0.02 0 0.32 0.02 0 0.325 0.02 0 0.33 0.02 0 0.335 0.02 0 0.34 0.02 0 0.345 0.02 0 0.35 0.02 0 0.355 0.02 0 0.36 0.02 0 0.365 0.02 0 0.37 0.02 0 0.375 0.02 0 0.38 0.02 0 0.385 0.02 0 0.39 0.02 0 0.395 0.02 0 0.4 0.02 0 0.405 0.02 0 0.41 0.02 0 0.415 0.02 0 0.42 0.02 0 0.425 0.02 0 0.43 0.02 0 0.435 0.02 0 0.44 0.02 0 0.445 0.02 0 0.45 0.02 0 0.455 0.02 0 0.46 0.02 0 0.465 0.02 0 0.47 0.02 0 0.475 0.02 0 0.48 0.02 0 0.485 0.02 0 0.49 0.02 0 0.495 0.02 0 0.5 0.02 0 0.505 0.02 0 0.51 0.02 0 0.515 0.02 0 0.52 0.02 0 0.525 0.02 0 0.53 0.02 0 0.535 0.02 0 0.54 0.02 0 0.545 0.02 0 0.55 0.02 0 0.555 0.02 0 0.56 0.02 0 0.565 0.02 0 0.57 0.02 0 0.575 0.02 0 0.58 0.02 0 0.585 0.02 0 0.59 0.02 0 0.595 0.02 0 0.6 0.02 0 0.605 0.02 0 0.61 0.02 0 0.615 0.02 0 0.62 0.02 0 0.625 0.02 0 0.63 0.02 0 0.635 0.02 0 0.64 0.02 0 0.645 0.02 0 0.65 0.02 0 0.655 0.02 0 0.66 0.02 0 0.665 0.02 0 0.67 0.02 0 0.675 0.02 0 0.68 0.02 0 0.685 0.02 0 0.69 0.02 0 0.695 0.02 0 0.7 0.02 0 0.705 0.02 0 0.71 0.02 0 0.715 0.02 0 0.72 0.02 0 0.725 0.02 0 0.73 0.02 0 0.735 0.02 0 0.74 0.02 0 0.745 0.02 0 0.75 0.02 0 0.755 0.02 0 0.76 0.02 0 0.765 0.02 0 0.77 0.02 0 0.775 0.02 0 0.78 0.02 0 0.785 0.02 0 0.79 0.02 0 0.795 0.02 0 0.8 0.02 0 0.805 0.02 0 0.81 0.02 0 0.815 0.02 0 0.82 0.02 0 0.825 0.02 0 0.83 0.02 0 0.835 0.02 0 0.84 0.02 0 0.845 0.02 0 0.85 0.02 0 0.855 0.02 0 0.86 0.02 0 0.865 0.02 0 0.87 0.02 0 0.875 0.02 0 0.88 0.02 0 0.885 0.02 0 0.89 0.02 0 0.895 0.02 0 0.9 0.02 0 0.905 0.02 0 0.91 0.02 0 0.915 0.02 0 0.92 0.02 0 0.925 0.02 0 0.93 0.02 0 0.935 0.02 0 0.94 0.02 0 0.945 0.02 0 0.95 0.02 0 0.955 0.02 0 0.96 0.02 0 0.965 0.02 0 0.97 0.02 0 0.975 0.02 0 0.98 0.02 0 0.985 0.02 0 0.99 0.02 0 0.995 0.02 0 1 0.02 0 0 0.04 0 0.005 0.04 0 0.01 0.04 0 0.015 0.04 0 0.02 0.04 0 0.025 0.04 0 0.03 0.04 0 0.035 0.04 0 0.04 0.04 0 0.045 0.04 0 0.05 0.04 0 0.055 0.04 0 0.06 0.04 0 0.065 0.04 0 0.07 0.04 0 0.075 0.04 0 0.08 0.04 0 0.085 0.04 0 0.09 0.04 0 0.095 0.04 0 0.1 0.04 0 0.105 0.04 0 0.11 0.04 0 0.115 0.04 0 0.12 0.04 0 0.125 0.04 0 0.13 0.04 0 0.135 0.04 0 0.14 0.04 0 0.145 0.04 0 0.15 0.04 0 0.155 0.04 0 0.16 0.04 0 0.165 0.04 0 0.17 0.04 0 0.175 0.04 0 0.18 0.04 0 0.185 0.04 0 0.19 0.04 0 0.195 0.04 0 0.2 0.04 0 0.205 0.04 0 0.21 0.04 0 0.215 0.04 0 0.22 0.04 0 0.225 0.04 0 0.23 0.04 0 0.235 0.04 0 0.24 0.04 0 0.245 0.04 0 0.25 0.04 0 0.255 0.04 0 0.26 0.04 0 0.265 0.04 0 0.27 0.04 0 0.275 0.04 0 0.28 0.04 0 0.285 0.04 0 0.29 0.04 0 0.295 0.04 0 0.3 0.04 0 0.305 0.04 0 0.31 0.04 0 0.315 0.04 0 0.32 0.04 0 0.325 0.04 0 0.33 0.04 0 0.335 0.04 0 0.34 0.04 0 0.345 0.04 0 0.35 0.04 0 0.355 0.04 0 0.36 0.04 0 0.365 0.04 0 0.37 0.04 0 0.375 0.04 0 0.38 0.04 0 0.385 0.04 0 0.39 0.04 0 0.395 0.04 0 0.4 0.04 0 0.405 0.04 0 0.41 0.04 0 0.415 0.04 0 0.42 0.04 0 0.425 0.04 0 0.43 0.04 0 0.435 0.04 0 0.44 0.04 0 0.445 0.04 0 0.45 0.04 0 0.455 0.04 0 0.46 0.04 0 0.465 0.04 0 0.47 0.04 0 0.475 0.04 0 0.48 0.04 0 0.485 0.04 0 0.49 0.04 0 0.495 0.04 0 0.5 0.04 0 0.505 0.04 0 0.51 0.04 0 0.515 0.04 0 0.52 0.04 0 0.525 0.04 0 0.53 0.04 0 0.535 0.04 0 0.54 0.04 0 0.545 0.04 0 0.55 0.04 0 0.555 0.04 0 0.56 0.04 0 0.565 0.04 0 0.57 0.04 0 0.575 0.04 0 0.58 0.04 0 0.585 0.04 0 0.59 0.04 0 0.595 0.04 0 0.6 0.04 0 0.605 0.04 0 0.61 0.04 0 0.615 0.04 0 0.62 0.04 0 0.625 0.04 0 0.63 0.04 0 0.635 0.04 0 0.64 0.04 0 0.645 0.04 0 0.65 0.04 0 0.655 0.04 0 0.66 0.04 0 0.665 0.04 0 0.67 0.04 0 0.675 0.04 0 0.68 0.04 0 0.685 0.04 0 0.69 0.04 0 0.695 0.04 0 0.7 0.04 0 0.705 0.04 0 0.71 0.04 0 0.715 0.04 0 0.72 0.04 0 0.725 0.04 0 0.73 0.04 0 0.735 0.04 0 0.74 0.04 0 0.745 0.04 0 0.75 0.04 0 0.755 0.04 0 0.76 0.04 0 0.765 0.04 0 0.77 0.04 0 0.775 0.04 0 0.78 0.04 0 0.785 0.04 0 0.79 0.04 0 0.795 0.04 0 0.8 0.04 0 0.805 0.04 0 0.81 0.04 0 0.815 0.04 0 0.82 0.04 0 0.825 0.04 0 0.83 0.04 0 0.835 0.04 0 0.84 0.04 0 0.845 0.04 0 0.85 0.04 0 0.855 0.04 0 0.86 0.04 0 0.865 0.04 0 0.87 0.04 0 0.875 0.04 0 0.88 0.04 0 0.885 0.04 0 0.89 0.04 0 0.895 0.04 0 0.9 0.04 0 0.905 0.04 0 0.91 0.04 0 0.915 0.04 0 0.92 0.04 0 0.925 0.04 0 0.93 0.04 0 0.935 0.04 0 0.94 0.04 0 0.945 0.04 0 0.95 0.04 0 0.955 0.04 0 0.96 0.04 0 0.965 0.04 0 0.97 0.04 0 0.975 0.04 0 0.98 0.04 0 0.985 0.04 0 0.99 0.04 0 0.995 0.04 0 1 0.04 0 0 0.06 0 0.005 0.06 0 0.01 0.06 0 0.015 0.06 0 0.02 0.06 0 0.025 0.06 0 0.03 0.06 0 0.035 0.06 0 0.04 0.06 0 0.045 0.06 0 0.05 0.06 0 0.055 0.06 0 0.06 0.06 0 0.065 0.06 0 0.07 0.06 0 0.075 0.06 0 0.08 0.06 0 0.085 0.06 0 0.09 0.06 0 0.095 0.06 0 0.1 0.06 0 0.105 0.06 0 0.11 0.06 0 0.115 0.06 0 0.12 0.06 0 0.125 0.06 0 0.13 0.06 0 0.135 0.06 0 0.14 0.06 0 0.145 0.06 0 0.15 0.06 0 0.155 0.06 0 0.16 0.06 0 0.165 0.06 0 0.17 0.06 0 0.175 0.06 0 0.18 0.06 0 0.185 0.06 0 0.19 0.06 0 0.195 0.06 0 0.2 0.06 0 0.205 0.06 0 0.21 0.06 0 0.215 0.06 0 0.22 0.06 0 0.225 0.06 0 0.23 0.06 0 0.235 0.06 0 0.24 0.06 0 0.245 0.06 0 0.25 0.06 0 0.255 0.06 0 0.26 0.06 0 0.265 0.06 0 0.27 0.06 0 0.275 0.06 0 0.28 0.06 0 0.285 0.06 0 0.29 0.06 0 0.295 0.06 0 0.3 0.06 0 0.305 0.06 0 0.31 0.06 0 0.315 0.06 0 0.32 0.06 0 0.325 0.06 0 0.33 0.06 0 0.335 0.06 0 0.34 0.06 0 0.345 0.06 0 0.35 0.06 0 0.355 0.06 0 0.36 0.06 0 0.365 0.06 0 0.37 0.06 0 0.375 0.06 0 0.38 0.06 0 0.385 0.06 0 0.39 0.06 0 0.395 0.06 0 0.4 0.06 0 0.405 0.06 0 0.41 0.06 0 0.415 0.06 0 0.42 0.06 0 0.425 0.06 0 0.43 0.06 0 0.435 0.06 0 0.44 0.06 0 0.445 0.06 0 0.45 0.06 0 0.455 0.06 0 0.46 0.06 0 0.465 0.06 0 0.47 0.06 0 0.475 0.06 0 0.48 0.06 0 0.485 0.06 0 0.49 0.06 0 0.495 0.06 0 0.5 0.06 0 0.505 0.06 0 0.51 0.06 0 0.515 0.06 0 0.52 0.06 0 0.525 0.06 0 0.53 0.06 0 0.535 0.06 0 0.54 0.06 0 0.545 0.06 0 0.55 0.06 0 0.555 0.06 0 0.56 0.06 0 0.565 0.06 0 0.57 0.06 0 0.575 0.06 0 0.58 0.06 0 0.585 0.06 0 0.59 0.06 0 0.595 0.06 0 0.6 0.06 0 0.605 0.06 0 0.61 0.06 0 0.615 0.06 0 0.62 0.06 0 0.625 0.06 0 0.63 0.06 0 0.635 0.06 0 0.64 0.06 0 0.645 0.06 0 0.65 0.06 0 0.655 0.06 0 0.66 0.06 0 0.665 0.06 0 0.67 0.06 0 0.675 0.06 0 0.68 0.06 0 0.685 0.06 0 0.69 0.06 0 0.695 0.06 0 0.7 0.06 0 0.705 0.06 0 0.71 0.06 0 0.715 0.06 0 0.72 0.06 0 0.725 0.06 0 0.73 0.06 0 0.735 0.06 0 0.74 0.06 0 0.745 0.06 0 0.75 0.06 0 0.755 0.06 0 0.76 0.06 0 0.765 0.06 0 0.77 0.06 0 0.775 0.06 0 0.78 0.06 0 0.785 0.06 0 0.79 0.06 0 0.795 0.06 0 0.8 0.06 0 0.805 0.06 0 0.81 0.06 0 0.815 0.06 0 0.82 0.06 0 0.825 0.06 0 0.83 0.06 0 0.835 0.06 0 0.84 0.06 0 0.845 0.06 0 0.85 0.06 0 0.855 0.06 0 0.86 0.06 0 0.865 0.06 0 0.87 0.06 0 0.875 0.06 0 0.88 0.06 0 0.885 0.06 0 0.89 0.06 0 0.895 0.06 0 0.9 0.06 0 0.905 0.06 0 0.91 0.06 0 0.915 0.06 0 0.92 0.06 0 0.925 0.06 0 0.93 0.06 0 0.935 0.06 0 0.94 0.06 0 0.945 0.06 0 0.95 0.06 0 0.955 0.06 0 0.96 0.06 0 0.965 0.06 0 0.97 0.06 0 0.975 0.06 0 0.98 0.06 0 0.985 0.06 0 0.99 0.06 0 0.995 0.06 0 1 0.06 0 0 0.08 0 0.005 0.08 0 0.01 0.08 0 0.015 0.08 0 0.02 0.08 0 0.025 0.08 0 0.03 0.08 0 0.035 0.08 0 0.04 0.08 0 0.045 0.08 0 0.05 0.08 0 0.055 0.08 0 0.06 0.08 0 0.065 0.08 0 0.07 0.08 0 0.075 0.08 0 0.08 0.08 0 0.085 0.08 0 0.09 0.08 0 0.095 0.08 0 0.1 0.08 0 0.105 0.08 0 0.11 0.08 0 0.115 0.08 0 0.12 0.08 0 0.125 0.08 0 0.13 0.08 0 0.135 0.08 0 0.14 0.08 0 0.145 0.08 0 0.15 0.08 0 0.155 0.08 0 0.16 0.08 0 0.165 0.08 0
[...]
			<PointData Scalars="VitesseX">
				<DataArray Name="VitesseX" type="Float32" format="ascii">
 0 -4.76466e-15 -1.496e-14 -1.30471e-14 -3.84414e-14 -2.79435e-14 -2.19254e-14 -5.70677e-14 -4.69839e-14 -3.4819e-14 -5.58174e-14 -7.52754e-14 -1.25061e-13 -1.50188e-14 -6.52748e-14 -5.69982e-14 2.07608e-14 -7.91769e-14 5.45579e-14 3.64018e-14 -8.49446e-14 7.7879e-14 -9.97372e-15 4.42979e-15 5.80968e-14 -7.22718e-14 -1.64672e-13 9.32592e-14 -2.39309e-13 -3.07222e-14 1.79522e-14 8.41407e-14 -1.22614e-13 -1.98161e-14 6.86236e-14 -8.1596e-14 3.15876e-14 3.18803e-13 6.18278e-13 3.20772e-12 1.95036e-11 1.10787e-10 6.03033e-10 3.11693e-09 1.52795e-08 7.08807e-08 3.10339e-07 1.2788e-06 4.94325e-06 1.78578e-05 6.00263e-05 0.000186771 0.000534697 0.00139879 0.00331977 0.00710192 0.0136453 0.0235826 0.0369582 0.0532458 0.0716739 0.091542 0.112346 0.133769 0.15562 0.177758 0.200096 0.222585 0.245192 0.267897 0.290687 0.313553 0.336493 0.359507 0.382597 0.405769 0.429023 0.452241 0.475192 0.498144 0.520817 0.543492 0.565946 0.588358 0.610612 0.63272 0.654693 0.676422 0.698123 0.719609 0.740968 0.7623 0.783185 0.804057 0.824344 0.843904 0.862878 0.879926 0.895256 0.908246 0.917691 0.924698 0.92899 0.930861 0.931825 0.932012 0.931956 0.931817 0.931607 0.931337 0.931015 0.930655 0.930282 0.92993 0.929621 0.929353 0.929123 0.928928 0.928765 0.928628 0.928521 0.928436 0.928348 0.928269 0.928205 0.928153 0.92811 0.928071 0.928036 0.928004 0.927974 0.927948 0.927924 0.927902 0.927882 0.927865 0.927848 0.927831 0.927815 0.9278 0.927786 0.927772 0.927759 0.927746 0.927733 0.927722 0.927712 0.927704 0.927695 0.92768 0.927657 0.927616 0.927531 0.927351 0.926976 0.926202 0.924631 0.921492 0.915328 0.903512 0.88166 0.843351 0.781003 0.688894 0.567817 0.429746 0.293539 0.178029 0.0944494 0.0440123 0.0185616 0.0073798 0.00285179 0.00108837 0.000413062 0.000156309 5.90307e-05 2.2253e-05 8.37305e-06 3.14399e-06 1.1778e-06 4.40086e-07 1.63963e-07 6.08916e-08 2.2534e-08 8.30668e-09 3.04927e-09 1.11418e-09 4.05006e-10 1.46012e-10 5.2415e-11 1.85991e-11 6.83172e-12 2.1029e-12 1.05998e-12 -2.43658e-14 -1.82125e-13 -2.55607e-13 3.08018e-13 1.98999e-13 0 0 -6.23735e-15 -5.77266e-15 -1.92559e-14 -2.38047e-14 -4.05186e-14 -5.00834e-14 -2.50968e-14 -5.63383e-14 -5.4641e-14 -6.65469e-14 -6.28257e-14 -3.60506e-14 -9.26833e-14 -6.76169e-14 1.64532e-14 -6.06467e-14 -7.90014e-15 1.39322e-14 2.90483e-14 5.63347e-14 -6.28131e-14 -2.32043e-14 2.78337e-14 -5.87089e-14 5.64981e-14 -1.80528e-14 -2.1885e-13 6.17074e-14 -1.39935e-13 -1.2937e-14 -7.92011e-14 5.77755e-14 6.29092e-14 -1.26306e-13 6.13233e-14 3.31375e-14 7.99071e-14 6.44369e-13 3.3468e-12 1.93204e-11 1.10994e-10 6.03034e-10 3.11672e-09 1.52798e-08 7.08803e-08 3.10339e-07 1.2788e-06 4.94325e-06 1.78578e-05 6.00263e-05 0.000186771 0.000534697 0.00139879 0.00331977 0.00710192 0.0136453 0.0235826 0.0369582 0.0532458 0.0716739 0.091542 0.112346 0.133769 0.15562 0.177758 0.200096 0.222585 0.245192 0.267897 0.290687 0.313553 0.336493 0.359507 0.382597 0.405769 0.429023 0.452241 0.475192 0.498144 0.520817 0.543492 0.565946 0.588358 0.610612 0.63272 0.654693 0.676422 0.698123 0.719609 0.740968 0.7623 0.783185 0.804057 0.824344 0.843904 0.862878 0.879926 0.895256 0.908246 0.917691 0.924698 0.92899 0.930861 0.931825 0.932012 0.931956 0.931817 0.931607 0.931337 0.931015 0.930655 0.930282 0.92993 0.929621 0.929353 0.929123 0.928928 0.928765 0.928628 0.928521 0.928436 0.928348 0.928269 0.928205 0.928153 0.92811 0.928071 0.928036 0.928004 0.927974 0.927948 0.927924 0.927902 0.927882 0.927865 0.927848 0.927831 0.927815 0.9278 0.927786 0.927772 0.927759 0.927746 0.927733 0.927722 0.927712 0.927704 0.927695 0.92768 0.927657 0.927616 0.927531 0.927351 0.926976 0.926202 0.924631 0.921492 0.915328 0.903512 0.88166 0.843351 0.781003 0.688894 0.567817 0.429746 0.293539 0.178029 0.0944494 0.0440123 0.0185616 0.0073798 0.00285179 0.00108837 0.000413062 0.000156309 5.90307e-05 2.2253e-05 8.37305e-06 3.14399e-06 1.1778e-06 4.40086e-07 1.63963e-07 6.0892e-08 2.25338e-08 8.30683e-09 3.04933e-09 1.11401e-09 4.04964e-10 1.46304e-10 5.23807e-11 1.85659e-11 6.48215e-12 2.1599e-12 3.4505e-13 2.07799e-13 2.38268e-13 -1.4722e-13 -1.01515e-13 -2.59776e-13 0 0 -9.7798e-15 -1.90496e-14 -1.12188e-14 -2.7877e-14 -5.2063e-14 -3.7261e-14 -4.0334e-14 -6.08083e-14 -6.31411e-14 -4.18468e-14 -4.89321e-14 -1.52779e-14 -3.00957e-14 -8.17885e-14 -7.17699e-14 -8.16841e-15 -1.89507e-15 4.30619e-14 7.33914e-15 -9.46385e-15 4.95663e-14 -1.43283e-14 -6.07716e-15 -4.30302e-14 -2.80077e-14 -1.01596e-13 -6.07993e-14 -1.68062e-13 9.84949e-14 -6.29179e-14 -3.35934e-14 2.75525e-15 -4.49723e-14 4.20527e-15 -3.2393e-14 8.4281e-14 1.11599e-13 4.59388e-13 3.33453e-12 1.96009e-11 1.11027e-10 6.02895e-10 3.11665e-09 1.52797e-08 7.08805e-08 3.10339e-07 1.2788e-06 4.94325e-06 1.78578e-05 6.00263e-05 0.000186771 0.000534697 0.00139879 0.00331977 0.00710192 0.0136453 0.0235826 0.0369582 0.0532458 0.0716739 0.091542 0.112346 0.133769 0.15562 0.177758 0.200096 0.222585 0.245192 0.267897 0.290687 0.313553 0.336493 0.359507 0.382597 0.405769 0.429023 0.452241 0.475192 0.498144 0.520817 0.543492 0.565946 0.588358 0.610612 0.63272 0.654693 0.676422 0.698123 0.719609 0.740968 0.7623 0.783185 0.804057 0.824344 0.843904 0.862878 0.879926 0.895256 0.908246 0.917691 0.924698 0.92899 0.930861 0.931825 0.932012 0.931956 0.931817 0.931607 0.931337 0.931015 0.930655 0.930282 0.92993 0.929621 0.929353 0.929123 0.928928 0.928765 0.928628 0.928521 0.928436 0.928348 0.928269 0.928205 0.928153 0.92811 0.928071 0.928036 0.928004 0.927974 0.927948 0.927924 0.927902 0.927882 0.927865 0.927848 0.927831 0.927815 0.9278 0.927786 0.927772 0.927759 0.927746 0.927733 0.927722 0.927712 0.927704 0.927695 0.92768 0.927657 0.927616 0.927531 0.927351 0.926976 0.926202 0.924631 0.921492 0.915328 0.903512 0.88166 0.843351 0.781003 0.688894 0.567817 0.429746 0.293539 0.178029 0.0944494 0.0440123 0.0185616 0.0073798 0.00285179 0.00108837 0.000413062 0.000156309 5.90307e-05 2.2253e-05 8.37305e-06 3.14399e-06 1.1778e-06 4.40086e-07 1.63963e-07 6.08918e-08 2.25341e-08 8.30661e-09 3.04942e-09 1.11435e-09 4.05023e-10 1.46418e-10 5.22381e-11 1.83011e-11 6.08545e-12 2.23212e-12 7.96308e-13 -2.5711e-13 -3.1715e-13 2.12637e-13 4.78628e-13 1.05609e-13 0 0 -7.67216e-15 -1.8826e-14 -2.03114e-14 -3.06969e-14 -2.9928e-14 -4.6397e-14 -5.36757e-14 -6.28813e-14 -1.35326e-14 -5.26958e-14 -3.52822e-14 -4.35756e-14 2.16281e-14 -6.06166e-14 -4.64868e-14 -2.18637e-14 -3.51323e-14 -1.25012e-14 7.90705e-14 2.19644e-14 5.6079e-14 1.74065e-14 -1.31615e-13 -2.57997e-14 -8.90184e-14 -6.5531e-14 -7.49028e-14 -1.23583e-13 -4.84209e-14 6.60348e-14 -4.21901e-14 -5.64073e-15 -5.57272e-14 1.0636e-14 -4.88473e-14 -1.90271e-14 2.10511e-13 6.29937e-13 3.23301e-12 1.96139e-11 1.10817e-10 6.03146e-10 3.11684e-09 1.52795e-08 7.08805e-08 3.10339e-07 1.2788e-06 4.94325e-06 1.78578e-05 6.00263e-05 0.000186771 0.000534697 0.00139879 0.00331977 0.00710192 0.0136453 0.0235826 0.0369582 0.0532458 0.0716739 0.091542 0.112346 0.133769 0.15562 0.177758 0.200096 0.222585 0.245192 0.267897 0.290687 0.313553 0.336493 0.359507 0.382597 0.405769 0.429023 0.452241 0.475192 0.498144 0.520817 0.543492 0.565946 0.588358 0.610612 0.63272 0.654693 0.676422 0.698123 0.719609 0.740968 0.7623 0.783185 0.804057 0.824344 0.843904 0.862878 0.879926 0.895256 0.908246 0.917691 0.924698 0.92899 0.930861 0.931825 0.932012 0.931956 0.931817 0.931607 0.931337 0.931015 0.930655 0.930282 0.92993 0.929621 0.929353 0.929123 0.928928 0.928765 0.928628 0.928521 0.928436 0.928348 0.928269 0.928205 0.928153 0.92811 0.928071 0.928036 0.928004 0.927974 0.927948 0.927924 0.927902 0.927882 0.927865 0.927848 0.927831 0.927815 0.9278 0.927786 0.927772 0.927759 0.927746 0.927733 0.927722 0.927712 0.927704 0.927695 0.92768 0.927657 0.927616 0.927531 0.927351 0.926976 0.926202 0.924631 0.921492 0.915328 0.903512 0.88166 0.843351 0.781003 0.688894 0.567817 0.429746 0.293539 0.178029 0.0944494 0.0440123 0.0185616 0.0073798 0.00285179 0.00108837 0.000413062 0.000156309 5.90307e-05 2.2253e-05 8.37305e-06 3.14399e-06 1.1778e-06 4.40086e-07 1.63963e-07 6.08917e-08 2.25341e-08 8.30666e-09 3.04897e-09 1.11422e-09 4.05127e-10 1.46374e-10 5.25518e-11 1.88475e-11 6.49445e-12 2.11071e-12 3.87817e-13 2.56471e-13 6.58239e-14 -2.74547e-13 1.49702e-13 2.2517e-13 0 0 -1.02062e-14 -1.27873e-14 -3.28007e-14 -2.7195e-14 -3.12722e-14 -5.18651e-14 -1.41455e-14 -2.87894e-14 -2.69107e-14 -7.61345e-14 -4.00589e-14 -1.30813e-14 -5.23444e-14 -2.68316e-14 3.53617e-14 -7.86279e-14 2.27745e-14 -8.81424e-15 1.00378e-14 7.20399e-14 -8.16928e-14 1.33361e-14 -7.89346e-14 -5.5826e-14 -1.49615e-14 -6.95779e-14 -2.66521e-13 5.21773e-14 -1.97373e-13 1.9033e-14 -1.23702e-13 7.06785e-14 9.95154e-14 -5.64105e-14 1.40243e-13 7.04978e-14 1.21833e-13 7.62505e-13 3.15312e-12 1.92581e-11 1.10782e-10 6.03206e-10 3.11689e-09 1.52798e-08 7.08804e-08 3.10339e-07 1.2788e-06 4.94325e-06 1.78578e-05 6.00263e-05 0.000186771 0.000534697 0.00139879 0.00331977 0.00710192 0.0136453 0.0235826 0.0369582 0.0532458 0.0716739 0.091542 0.112346 0.133769 0.15562 0.177758 0.200096 0.222585 0.245192 0.267897 0.290687 0.313553 0.336493 0.359507 0.382597 0.405769 0.429023 0.452241 0.475192 0.498144 0.520817 0.543492 0.565946 0.588358 0.610612 0.63272 0.654693 0.676422 0.698123 0.719609 0.740968 0.7623 0.783185 0.804057 0.824344 0.843904 0.862878 0.879926 0.895256 0.908246 0.917691 0.924698 0.92899 0.930861 0.931825 0.932012 0.931956 0.931817 0.931607 0.931337 0.931015 0.930655 0.930282 0.92993 0.929621 0.929353 0.929123 0.928928 0.928765 0.928628 0.928521 0.928436 0.928348 0.928269 0.928205 0.928153 0.92811 0.928071 0.928036 0.928004 0.927974 0.927948 0.927924 0.927902 0.927882 0.927865 0.927848 0.927831 0.927815 0.9278 0.927786 0.927772 0.927759 0.927746 0.927733 0.927722 0.927712 0.927704 0.927695 0.92768 0.927657 0.927616 0.927531 0.927351 0.926976 0.926202 0.924631 0.921492 0.915328 0.903512 0.88166 0.843351 0.781003 0.688894 0.567817 0.429746 0.293539 0.178029 0.0944494 0.0440123 0.0185616 0.0073798 0.00285179 0.00108837 0.000413062 0.000156309 5.90307e-05 2.2253e-05 8.37305e-06 3.14399e-06 1.1778e-06 4.40086e-07 1.63962e-07 6.08922e-08 2.25337e-08 8.30694e-09 3.04927e-09 1.11405e-09 4.05194e-10 1.46166e-10 5.26925e-11 1.8902e-11 6.97414e-12 1.62766e-12 2.82948e-13 4.99967e-13 3.30763e-13 -5.22746e-13 -2.64734e-13 -1.11492e-13 0 0 -1.69176e-14 -2.94366e-14 -2.19512e-14 -3.95824e-14 -5.37207e-14 -7.21685e-15 -8.48166e-15 1.22599e-14 -7.85754e-14 -5.32945e-14 -5.70416e-14 -2.25271e-14 -3.77886e-14 -2.60482e-14 -6.97476e-14 1.21889e-14 4.86468e-14 1.20191e-13 -1.45082e-13 -1.16391e-13 2.70944e-14 -3.62511e-16 4.19694e-14 2.94014e-14 -9.31697e-14 -3.39852e-13 2.61236e-14 -3.47327e-13 1.48233e-13 -1.76013e-13 1.23332e-14 -8.00159e-14 7.49063e-14 1.95554e-13 1.09153e-13 3.12924e-13 2.04832e-13 5.13453e-13 3.0234e-12 1.93529e-11 1.10783e-10 6.02874e-10 3.11689e-09 1.528e-08 7.08808e-08 3.10339e-07 1.2788e-06 4.94325e-06 1.78578e-05 6.00263e-05 0.000186771 0.000534697 0.00139879 0.00331977 0.00710192 0.0136453 0.0235826 0.0369582 0.0532458 0.0716739 0.091542 0.112346 0.133769 0.15562 0.177758 0.200096 0.222585 0.245192 0.267897 0.290687 0.313553 0.336493 0.359507 0.382597 0.405769 0.429023 0.452241 0.475192 0.498144 0.520817 0.543492 0.565946 0.588358 0.610612 0.63272 0.654693 0.676422 0.698123 0.719609 0.740968 0.7623 0.783185 0.804057 0.824344 0.843904 0.862878 0.879926 0.895256 0.908246 0.917691 0.924698 0.92899 0.930861 0.931825 0.932012 0.931956 0.931817 0.931607 0.931337 0.931015 0.930655 0.930282 0.92993 0.929621 0.929353 0.929123 0.928928 0.928765 0.928628 0.928521 0.928436 0.928348 0.928269 0.928205 0.928153 0.92811 0.928071 0.928036 0.928004 0.927974 0.927948 0.927924 0.927902 0.927882 0.927865 0.927848 0.927831 0.927815 0.9278 0.927786 0.927772 0.927759 0.927746 0.927733 0.927722 0.927712 0.927704 0.927695 0.92768 0.927657 0.927616 0.927531 0.927351 0.926976 0.926202 0.924631 0.921492 0.915328 0.903512 0.88166 0.843351 0.781003 0.688894 0.567817 0.429746 0.293539 0.178029 0.0944494 0.0440123 0.0185616 0.0073798 0.00285179 0.00108837 0.000413062 0.000156309 5.90307e-05 2.2253e-05 8.37305e-06 3.14399e-06 1.1778e-06 4.40087e-07 1.63962e-07 6.08922e-08 2.25339e-08 8.30679e-09 3.05007e-09 1.11454e-09 4.05259e-10 1.45825e-10 5.24114e-11 1.81785e-11 6.99772e-12 1.28123e-12 1.75276e-12 -4.67192e-13 -7.63084e-13 -3.22904e-14 6.39432e-13 2.56443e-13 0
				</DataArray>
				<DataArray Name="VitesseY" type="Float32" format="ascii">