<?xml version="1.0"?>
<VTKFile type="PolyData">
	<PolyData>
		<Piece NumberOfPoints="1206" NumberOfPolys="1000">
			<Points>
				<DataArray type="Float32" NumberOfComponents="3" format="ascii">
 0 0 0 0.005 0 0 0.01 0 0 0.015 0 0 0.02 0 0 0.025 0 0 0.03 0 0 0.035 0 0 0.04 0 0 0.045 0 0 0.05 0 0 0.055 0 0 0.06 0 0 0.065 0 0 0.07 0 0 0.075 0 0 0.08 0 0 0.085 0 0 0.09 0 0 0.095 0 0 0.1 0 0 0.105 0 0 0.11 0 0 0.115 0 0 0.12 0 0 0.125 0 0 0.13 0 0 0.135 0 0 0.14 0 0 0.145 0 0 0.15 0 0 0.155 0 0 0.16 0 0 0.165 0 0 0.17 0 0 0.175 0 0 0.18 0 0 0.185 0 0 0.19 0 0 0.195 0 0 0.2 0 0 0.205 0 0 0.21 0 0 0.215 0 0 0.22 0 0 0.225 0 0 0.23 0 0 0.235 0 0 0.24 0 0 0.245 0 0 0.25 0 0 0.255 0 0 0.26 0 0 0.265 0 0 0.27 0 0 0.275 0 0 0.28 0 0 0.285 0 0 0.29 0 0 0.295 0 0 0.3 0 0 0.305 0 0 0.31 0 0 0.315 0 0 0.32 0 0 0.325 0 0 0.33 0 0 0.335 0 0 0.34 0 0 0.345 0 0 0.35 0 0 0.355 0 0 0.36 0 0 0.365 0 0 0.37 0 0 0.375 0 0 0.38 0 0 0.385 0 0 0.39 0 0 0.395 0 0 0.4 0 0 0.405 0 0 0.41 0 0 0.415 0 0 0.42 0 0 0.425 0 0 0.43 0 0 0.435 0 0 0.44 0 0 0.445 0 0 0.45 0 0 0.455 0 0 0.46 0 0 0.465 0 0 0.47 0 0 0.475 0 0 0.48 0 0 0.485 0 0 0.49 0 0 0.495 0 0 0.5 0 0 0.505 0 0 0.51 0 0 0.515 0 0 0.52 0 0 0.525 0 0 0.53 0 0 0.535 0 0 0.54 0 0 0.545 0 0 0.55 0 0 0.555 0 0 0.56 0 0 0.565 0 0 0.57 0 0 0.575 0 0 0.58 0 0 0.585 0 0 0.59 0 0 0.595 0 0 0.6 0 0 0.605 0 0 0.61 0 0 0.615 0 0 0.62 0 0 0.625 0 0 0.63 0 0 0.635 0 0 0.64 0 0 0.645 0 0 0.65 0 0 0.655 0 0 0.66 0 0 0.665 0 0 0.67 0 0 0.675 0 0 0.68 0 0 0.685 0 0 0.69 0 0 0.695 0 0 0.7 0 0 0.705 0 0 0.71 0 0 0.715 0 0 0.72 0 0 0.725 0 0 0.73 0 0 0.735 0 0 0.74 0 0 0.745 0 0 0.75 0 0 0.755 0 0 0.76 0 0 0.765 0 0 0.77 0 0 0.775 0 0 0.78 0 0 0.785 0 0 0.79 0 0 0.795 0 0 0.8 0 0 0.805 0 0 0.81 0 0 0.815 0 0 0.82 0 0 0.825 0 0 0.83 0 0 0.835 0 0 0.84 0 0 0.845 0 0 0.85 0 0 0.855 0 0 0.86 0 0 0.865 0 0 0.87 0 0 0.875 0 0 0.88 0 0 0.885 0 0 0.89 0 0 0.895 0 0 0.9 0 0 0.905 0 0 0.91 0 0 0.915 0 0 0.92 0 0 0.925 0 0 0.93 0 0 0.935 0 0 0.94 0 0 0.945 0 0 0.95 0 0 0.955 0 0 0.96 0 0 0.965 0 0 0.97 0 0 0.975 0 0 0.98 0 0 0.985 0 0 0.99 0 0 0.995 0 0 1 0 0 0 0.02 0 0.005 0.02 0 0.01 0.02 0 0.015 0.02 0 0.02 0.02 0 0.025 0.02 0 0.03 0.02 0 0.035 0.02 0 0.04 0.02 0 0.045 0.02 0 0.05 0.02 0 0.055 0.02 0 0.06 0.02 0 0.065 0.02 0 0.07 0.02 0 0.075 0.02 0 0.08 0.02 0 0.085 0.02 0 0.09 0.02 0 0.095 0.02 0 0.1 0.02 0 0.105 0.02 0 0.11 0.02 0 0.115 0.02 0 0.12 0.02 0 0.125 0.02 0 0.13 0.02 0 0.135 0.02 0 0.14 0.02 0 0.145 0.02 0 0.15 0.02 0 0.155 0.02 0 0.16 0.02 0 0.165 0.02 0 0.17 0.02 0 0.175 0.02 0 0.18 0.02 0 0.185 0.02 0 0.19 0.02 0 0.195 0.02 0 0.2 0.02 0 0.205 0.02 0 0.21 0.02 0 0.215 0.02 0 0.22 0.02 0 0.225 0.02 0 0.23 0.02 0 0.235 0.02 0 0.24 0.02 0 0.245 0.02 0 0.25 0.02 0 0.255 0.02 0 0.26 0.02 0 0.265 0.02 0 0.27 0.02 0 0.275 0.02 0 0.28 0.02 0 0.285 0.02 0 0.29 0.02 0 0.295 0.02 0 0.3 0.02 0 0.305 0.02 0 0.31 0.02 0 0.315 0.02 0 0.32 0.02 0 0.325 0.02 0 0.33 0.02 0 0.335 0.02 0 0.34 0.02 0 0.345 0.02 0 0.35 0.02 0 0.355 0.02 0 0.36 0.02 0 0.365 0.02 0 0.37 0.02 0 0.375 0.02 0 0.38 0.02 0 0.385 0.02 0 0.39 0.02 0 0.395 0.02 0 0.4 0.02 0 0.405 0.02 0 0.41 0.02 0 0.415 0.02 0 0.42 0.02 0 0.425 0.02 0 0.43 0.02 0 0.435 0.02 0 0.44 0.02 0 0.445 0.02 0 0.45 0.02 0 0.455 0.02 0 0.46 0.02 0 0.465 0.02 0 0.47 0.02 0 0.475 0.02 0 0.48 0.02 0 0.485 0.02 0 0.49 0.02 0 0.495 0.02 0 0.5 0.02 0 0.505 0.02 0 0.51 0.02 0 0.515 0.02 0 0.52 0.02 0 0.525 0.02 0 0.53 0.02 0 0.535 0.02 0 0.54 0.02 0 0.545 0.02 0 0.55 0.02 0 0.555 0.02 0 0.56 0.02 0 0.565 0.02 0 0.57 0.02 0 0.575 0.02 0 0.58 0.02 0 0.585 0.02 0 0.59 0.02 0 0.595 0.02 0 0.6 0.02 0 0.605 0.02 0 0.61 0.02 0 0.615 0.02 0 0.62 0.02 0 0.625 0.02 0 0.63 0.02 0 0.635 0.02 0 0.64 0.02 0 0.645 0.02 0 0.65 0.02 0 0.655 0.02 0 0.66 0.02 0 0.665 0.02 0 0.67 0.02 0 0.675 0.02 0 0.68 0.02 0 0.685 0.02 0 0.69 0.02 0 0.695 0.02 0 0.7 0.02 0 0.705 0.02 0 0.71 0.02 0 0.715 0.02 0 0.72 0.02 0 0.725 0.02 0 0.73 0.02 0 0.735 0.02 0 0.74 0.02 0 0.745 0.02 0 0.75 0.02 0 0.755 0.02 0 0.76 0.02 0 0.765 0.02 0 0.77 0.02 0 0.775 0.02 0 0.78 0.02 0 0.785 0.02 0 0.79 0.02 0 0.795 0.02 0 0.8 0.02 0 0.805 0.02 0 0.81 0.02 0 0.815 0.02 0 0.82 0.02 0 0.825 0.02 0 0.83 0.02 0 0.835 0.02 0 0.84 0.02 0 0.845 0.02 0 0.85 0.02 0 0.855 0.02 0 0.86 0.02 0 0.865 0.02 0 0.87 0.02 0 0.875 0.02 0 0.88 0.02 0 0.885 0.02 0 0.89 0.02 0 0.895 0.02 0 0.9 0.02 0 0.905 0.02 0 0.91 0.02 0 0.915 0.02 0 0.92 0.02 0 0.925 0.02 0 0.93 0.02 0 0.935 0.02 0 0.94 0.02 0 0.945 0.02 0 0.95 0.02 0 0.955 0.02 0 0.96 0.02 0 0.965 0.02 0 0.97 0.02 0 0.975 0.02 0 0.98 0.02 0 0.985 0.02 0 0.99 0.02 0 0.995 0.02 0 1 0.02 0 0 0.04 0 0.005 0.04 0 0.01 0.04 0 0.015 0.04 0 0.02 0.04 0 0.025 0.04 0 0.03 0.04 0 0.035 0.04 0 0.04 0.04 0 0.045 0.04 0 0.05 0.04 0 0.055 0.04 0 0.06 0.04 0 0.065 0.04 0 0.07 0.04 0 0.075 0.04 0 0.08 0.04 0 0.085 0.04 0 0.09 0.04 0 0.095 0.04 0 0.1 0.04 0 0.105 0.04 0 0.11 0.04 0 0.115 0.04 0 0.12 0.04 0 0.125 0.04 0 0.13 0.04 0 0.135 0.04 0 0.14 0.04 0 0.145 0.04 0 0.15 0.04 0 0.155 0.04 0 0.16 0.04 0 0.165 0.04 0 0.17 0.04 0 0.175 0.04 0 0.18 0.04 0 0.185 0.04 0 0.19 0.04 0 0.195 0.04 0 0.2 0.04 0 0.205 0.04 0 0.21 0.04 0 0.215 0.04 0 0.22 0.04 0 0.225 0.04 0 0.23 0.04 0 0.235 0.04 0 0.24 0.04 0 0.245 0.04 0 0.25 0.04 0 0.255 0.04 0 0.26 0.04 0 0.265 0.04 0 0.27 0.04 0 0.275 0.04 0 0.28 0.04 0 0.285 0.04 0 0.29 0.04 0 0.295 0.04 0 0.3 0.04 0 0.305 0.04 0 0.31 0.04 0 0.315 0.04 0 0.32 0.04 0 0.325 0.04 0 0.33 0.04 0 0.335 0.04 0 0.34 0.04 0 0.345 0.04 0 0.35 0.04 0 0.355 0.04 0 0.36 0.04 0 0.365 0.04 0 0.37 0.04 0 0.375 0.04 0 0.38 0.04 0 0.385 0.04 0 0.39 0.04 0 0.395 0.04 0 0.4 0.04 0 0.405 0.04 0 0.41 0.04 0 0.415 0.04 0 0.42 0.04 0 0.425 0.04 0 0.43 0.04 0 0.435 0.04 0 0.44 0.04 0 0.445 0.04 0 0.45 0.04 0 0.455 0.04 0 0.46 0.04 0 0.465 0.04 0 0.47 0.04 0 0.475 0.04 0 0.48 0.04 0 0.485 0.04 0 0.49 0.04 0 0.495 0.04 0 0.5 0.04 0 0.505 0.04 0 0.51 0.04 0 0.515 0.04 0 0.52 0.04 0 0.525 0.04 0 0.53 0.04 0 0.535 0.04 0 0.54 0.04 0 0.545 0.04 0 0.55 0.04 0 0.555 0.04 0 0.56 0.04 0 0.565 0.04 0 0.57 0.04 0 0.575 0.04 0 0.58 0.04 0 0.585 0.04 0 0.59 0.04 0 0.595 0.04 0 0.6 0.04 0 0.605 0.04 0 0.61 0.04 0 0.615 0.04 0 0.62 0.04 0 0.625 0.04 0 0.63 0.04 0 0.635 0.04 0 0.64 0.04 0 0.645 0.04 0 0.65 0.04 0 0.655 0.04 0 0.66 0.04 0 0.665 0.04 0 0.67 0.04 0 0.675 0.04 0 0.68 0.04 0 0.685 0.04 0 0.69 0.04 0 0.695 0.04 0 0.7 0.04 0 0.705 0.04 0 0.71 0.04 0 0.715 0.04 0 0.72 0.04 0 0.725 0.04 0 0.73 0.04 0 0.735 0.04 0 0.74 0.04 0 0.745 0.04 0 0.75 0.04 0 0.755 0.04 0 0.76 0.04 0 0.765 0.04 0 0.77 0.04 0 0.775 0.04 0 0.78 0.04 0 0.785 0.04 0 0.79 0.04 0 0.795 0.04 0 0.8 0.04 0 0.805 0.04 0 0.81 0.04 0 0.815 0.04 0 0.82 0.04 0 0.825 0.04 0 0.83 0.04 0 0.835 0.04 0 0.84 0.04 0 0.845 0.04 0 0.85 0.04 0 0.855 0.04 0 0.86 0.04 0 0.865 0.04 0 0.87 0.04 0 0.875 0.04 0 0.88 0.04 0 0.885 0.04 0 0.89 0.04 0 0.895 0.04 0 0.9 0.04 0 0.905 0.04 0 0.91 0.04 0 0.915 0.04 0 0.92 0.04 0 0.925 0.04 0 0.93 0.04 0 0.935 0.04 0 0.94 0.04 0 0.945 0.04 0 0.95 0.04 0 0.955 0.04 0 0.96 0.04 0 0.965 0.04 0 0.97 0.04 0 0.975 0.04 0 0.98 0.04 0 0.985 0.04 0 0.99 0.04 0 0.995 0.04 0 1 0.04 0 0 0.06 0 0.005 0.06 0 0.01 0.06 0 0.015 0.06 0 0.02 0.06 0 0.025 0.06 0 0.03 0.06 0 0.035 0.06 0 0.04 0.06 0 0.045 0.06 0 0.05 0.06 0 0.055 0.06 0 0.06 0.06 0 0.065 0.06 0 0.07 0.06 0 0.075 0.06 0 0.08 0.06 0 0.085 0.06 0 0.09 0.06 0 0.095 0.06 0 0.1 0.06 0 0.105 0.06 0 0.11 0.06 0 0.115 0.06 0 0.12 0.06 0 0.125 0.06 0 0.13 0.06 0 0.135 0.06 0 0.14 0.06 0 0.145 0.06 0 0.15 0.06 0 0.155 0.06 0 0.16 0.06 0 0.165 0.06 0 0.17 0.06 0 0.175 0.06 0 0.18 0.06 0 0.185 0.06 0 0.19 0.06 0 0.195 0.06 0 0.2 0.06 0 0.205 0.06 0 0.21 0.06 0 0.215 0.06 0 0.22 0.06 0 0.225 0.06 0 0.23 0.06 0 0.235 0.06 0 0.24 0.06 0 0.245 0.06 0 0.25 0.06 0 0.255 0.06 0 0.26 0.06 0 0.265 0.06 0 0.27 0.06 0 0.275 0.06 0 0.28 0.06 0 0.285 0.06 0 0.29 0.06 0 0.295 0.06 0 0.3 0.06 0 0.305 0.06 0 0.31 0.06 0 0.315 0.06 0 0.32 0.06 0 0.325 0.06 0 0.33 0.06 0 0.335 0.06 0 0.34 0.06 0 0.345 0.06 0 0.35 0.06 0 0.355 0.06 0 0.36 0.06 0 0.365 0.06 0 0.37 0.06 0 0.375 0.06 0 0.38 0.06 0 0.385 0.06 0 0.39 0.06 0 0.395 0.06 0 0.4 0.06 0 0.405 0.06 0 0.41 0.06 0 0.415 0.06 0 0.42 0.06 0 0.425 0.06 0 0.43 0.06 0 0.435 0.06 0 0.44 0.06 0 0.445 0.06 0 0.45 0.06 0 0.455 0.06 0 0.46 0.06 0 0.465 0.06 0 0.47 0.06 0 0.475 0.06 0 0.48 0.06 0 0.485 0.06 0 0.49 0.06 0 0.495 0.06 0 0.5 0.06 0 0.505 0.06 0 0.51 0.06 0 0.515 0.06 0 0.52 0.06 0 0.525 0.06 0 0.53 0.06 0 0.535 0.06 0 0.54 0.06 0 0.545 0.06 0 0.55 0.06 0 0.555 0.06 0 0.56 0.06 0 0.565 0.06 0 0.57 0.06 0 0.575 0.06 0 0.58 0.06 0 0.585 0.06 0 0.59 0.06 0 0.595 0.06 0 0.6 0.06 0 0.605 0.06 0 0.61 0.06 0 0.615 0.06 0 0.62 0.06 0 0.625 0.06 0 0.63 0.06 0 0.635 0.06 0 0.64 0.06 0 0.645 0.06 0 0.65 0.06 0 0.655 0.06 0 0.66 0.06 0 0.665 0.06 0 0.67 0.06 0 0.675 0.06 0 0.68 0.06 0 0.685 0.06 0 0.69 0.06 0 0.695 0.06 0 0.7 0.06 0 0.705 0.06 0 0.71 0.06 0 0.715 0.06 0 0.72 0.06 0 0.725 0.06 0 0.73 0.06 0 0.735 0.06 0 0.74 0.06 0 0.745 0.06 0 0.75 0.06 0 0.755 0.06 0 0.76 0.06 0 0.765 0.06 0 0.77 0.06 0 0.775 0.06 0 0.78 0.06 0 0.785 0.06 0 0.79 0.06 0 0.795 0.06 0 0.8 0.06 0 0.805 0.06 0 0.81 0.06 0 0.815 0.06 0 0.82 0.06 0 0.825 0.06 0 0.83 0.06 0 0.835 0.06 0 0.84 0.06 0 0.845 0.06 0 0.85 0.06 0 0.855 0.06 0 0.86 0.06 0 0.865 0.06 0 0.87 0.06 0 0.875 0.06 0 0.88 0.06 0 0.885 0.06 0 0.89 0.06 0 0.895 0.06 0 0.9 0.06 0 0.905 0.06 0 0.91 0.06 0 0.915 0.06 0 0.92 0.06 0 0.925 0.06 0 0.93 0.06 0 0.935 0.06 0 0.94 0.06 0 0.945 0.06 0 0.95 0.06 0 0.955 0.06 0 0.96 0.06 0 0.965 0.06 0 0.97 0.06 0 0.975 0.06 0 0.98 0.06 0 0.985 0.06 0 0.99 0.06 0 0.995 0.06 0 1 0.06 0 0 0.08 0 0.005 0.08 0 0.01 0.08 0 0.015 0.08 0 0.02 0.08 0 0.025 0.08 0 0.03 0.08 0 0.035 0.08 0 0.04 0.08 0 0.045 0.08 0 0.05 0.08 0 0.055 0.08 0 0.06 0.08 0 0.065 0.08 0 0.07 0.08 0 0.075 0.08 0 0.08 0.08 0 0.085 0.08 0 0.09 0.08 0 0.095 0.08 0 0.1 0.08 0 0.105 0.08 0 0.11 0.08 0 0.115 0.08 0 0.12 0.08 0 0.125 0.08 0 0.13 0.08 0 0.135 0.08 0 0.14 0.08 0 0.145 0.08 0 0.15 0.08 0 0.155 0.08 0 0.16 0.08 0 0.165 0.08 0
[...]
			<PointData Scalars="VitesseX">
				<DataArray Name="VitesseX" type="Float32" format="ascii">
 0 -7.56167e-15 2.04193e-14 1.78263e-14 -2.31324e-14 4.70573e-14 2.33976e-14 -4.56619e-14 1.45612e-14 -7.28934e-14 1.40326e-14 -5.58727e-14 8.25685e-14 -1.00235e-13 -8.19551e-15 -2.15341e-15 -1.53512e-13 -3.85208e-15 -7.12391e-14 -9.11334e-14 -1.13848e-13 -5.69322e-14 -2.12543e-13 -7.55253e-14 7.92477e-14 -1.17606e-13 -2.58724e-13 -1.68669e-14 -1.5809e-13 2.34358e-14 -1.83361e-13 4.61288e-14 -6.28472e-14 -1.77254e-13 -1.39558e-14 -1.76307e-13 -1.55883e-13 -1.78265e-13 -2.48419e-14 -1.96861e-13 -2.82375e-13 -1.80463e-14 -6.52564e-14 2.47709e-13 8.45886e-15 -7.43066e-14 -2.26917e-14 -1.35624e-13 2.00647e-13 -1.70552e-13 -1.31781e-13 -3.99722e-13 -3.32645e-13 3.59981e-13 -5.33853e-14 -7.83324e-14 -2.03564e-13 -7.57531e-14 -1.26342e-13 1.65895e-14 -1.51845e-13 -1.54986e-13 -1.82195e-13 -1.35173e-13 -2.57253e-13 1.20571e-13 5.41623e-13 4.69929e-12 4.50288e-11 4.16411e-10 3.5754e-09 2.81709e-08 2.02758e-07 1.32532e-06 7.81301e-06 4.11971e-05 0.000192331 0.000785074 0.00275961 0.00821477 0.020422 0.042274 0.0740278 0.113337 0.157462 0.204572 0.253623 0.303867 0.355018 0.407054 0.459885 0.510493 0.560321 0.608166 0.655932 0.700473 0.745324 0.787205 0.825946 0.863127 0.889627 0.910553 0.925962 0.930368 0.933055 0.934473 0.934371 0.933764 0.93288 0.932029 0.931361 0.93082 0.930334 0.929896 0.929556 0.929349 0.929267 0.929209 0.929207 0.929228 0.928983 0.927628 0.924358 0.918584 0.907108 0.884364 0.84287 0.774347 0.673421 0.543153 0.398799 0.261739 0.150624 0.0749445 0.0325713 0.0128297 0.00477176 0.00171983 0.000607721 0.000211412 7.24765e-05 2.44822e-05 8.14479e-06 2.66716e-06 8.59288e-07 2.72244e-07 8.47899e-08 2.59531e-08 7.80418e-09 2.30536e-09 6.69228e-10 1.89561e-10 5.35187e-11 1.35755e-11 3.93604e-12 3.561e-13 5.64551e-13 1.94473e-13 -4.9603e-13 -3.66943e-14 -2.27538e-13 4.25823e-13 -3.4155e-13 -6.06349e-13 5.96155e-13 1.64928e-13 -6.0743e-13 -2.53573e-13 -6.63192e-13 1.12389e-12 -7.41456e-13 -2.29795e-14 -1.87364e-13 -7.16351e-13 1.03207e-13 -7.59716e-13 4.24473e-13 6.39305e-14 -8.5151e-13 8.46073e-13 -3.58483e-13 2.4039e-13 2.72596e-13 -3.05198e-13 2.57325e-13 -6.15216e-13 7.68612e-14 2.48316e-13 -8.56325e-13 -9.21137e-14 -3.70394e-13 -3.9028e-13 9.45189e-13 -8.61691e-13 -4.60948e-13 2.24442e-13 -7.86109e-14 1.11983e-12 -5.38714e-13 4.36078e-14 0 0 2.14046e-14 9.44966e-15 7.61759e-15 2.8443e-14 4.33268e-15 -8.4692e-15 -8.65784e-15 -3.40715e-14 3.16235e-15 -6.23308e-14 -6.56059e-15 -7.79255e-14 6.86974e-14 -8.78348e-14 -3.01261e-14 2.56418e-14 -1.51189e-13 -3.56001e-14 -4.78647e-14 -1.50609e-13 -5.16552e-14 2.81735e-14 -1.52194e-13 -2.20172e-13 -7.65487e-14 5.79124e-14 -1.85265e-13 -6.33801e-14 -7.91586e-14 -2.69702e-15 -1.21334e-13 -6.46031e-14 -8.16134e-14 -2.24349e-13 -1.07252e-13 -4.80594e-14 -1.30244e-13 -2.19036e-13 -1.44088e-13 9.38449e-15 -1.78471e-13 9.77528e-14 -1.56383e-13 6.33328e-14 6.69187e-14 -1.16085e-13 -2.41439e-14 -1.99827e-13 -1.11051e-13 -2.09947e-13 1.94107e-14 7.63275e-14 -5.55076e-13 5.46448e-14 -6.63949e-15 4.56282e-14 -2.32655e-13 -4.64985e-16 -2.43126e-13 6.4464e-14 -3.73316e-14 -2.12755e-13 -1.43162e-13 1.2171e-13 -6.21113e-14 4.2238e-13 4.5306e-12 4.48354e-11 4.17026e-10 3.57536e-09 2.81704e-08 2.02758e-07 1.32532e-06 7.81302e-06 4.11971e-05 0.000192331 0.000785074 0.00275961 0.00821477 0.020422 0.042274 0.0740278 0.113337 0.157462 0.204572 0.253623 0.303867 0.355018 0.407054 0.459885 0.510493 0.560321 0.608166 0.655932 0.700473 0.745324 0.787205 0.825946 0.863127 0.889627 0.910553 0.925962 0.930368 0.933055 0.934473 0.934371 0.933764 0.93288 0.932029 0.931361 0.93082 0.930334 0.929896 0.929556 0.929349 0.929267 0.929209 0.929207 0.929228 0.928983 0.927628 0.924358 0.918584 0.907108 0.884364 0.84287 0.774347 0.673421 0.543153 0.398799 0.261739 0.150624 0.0749445 0.0325713 0.0128297 0.00477176 0.00171983 0.000607721 0.000211412 7.24765e-05 2.44822e-05 8.14479e-06 2.66716e-06 8.59288e-07 2.72243e-07 8.47909e-08 2.59519e-08 7.8047e-09 2.30542e-09 6.68341e-10 1.90835e-10 5.24553e-11 1.46196e-11 3.44569e-12 9.64092e-13 -3.62476e-13 -2.19982e-13 1.10321e-13 -2.08501e-14 6.62193e-14 -3.56224e-13 2.61695e-15 2.60204e-13 -7.13765e-13 -7.42028e-14 -8.15309e-14 -7.57541e-14 2.32376e-13 -7.35095e-13 2.90734e-13 -4.94438e-13 -2.7809e-13 2.52079e-13 -6.08569e-13 3.54859e-14 -4.75425e-13 -4.25564e-13 9.11526e-13 -8.51321e-13 6.76469e-13 -1.41602e-13 -6.30299e-14 3.92736e-13 -4.66587e-13 4.96486e-14 -3.2603e-13 -2.63338e-13 7.0283e-13 -7.53539e-13 -1.08201e-13 1.51067e-13 -1.14656e-12 2.76307e-13 3.5035e-13 -2.37176e-13 7.04136e-13 -8.83634e-13 7.92394e-13 1.57669e-13 0 0 -3.14647e-15 2.50217e-15 1.39783e-14 1.72901e-14 6.5031e-15 -5.118e-15 -1.57241e-14 -1.63318e-14 -1.55827e-14 -4.89128e-14 -3.7055e-14 -1.25776e-14 -5.31846e-14 6.77334e-15 -2.84877e-14 -7.41944e-14 -1.60021e-14 -3.45463e-14 -1.06212e-13 -7.6294e-14 -2.83832e-14 -9.86612e-14 -7.58372e-14 -3.89119e-14 -2.91019e-14 -1.55325e-13 4.45281e-14 -1.86307e-13 -5.81749e-14 -1.27821e-13 -5.06475e-14 -5.88475e-14 -1.14591e-13 -1.1969e-13 -1.83562e-13 -9.09397e-14 -7.94877e-14 -1.08383e-13 -1.06111e-13 -5.65286e-14 -9.66843e-15 -6.40564e-14 -2.84686e-14 -9.707e-14 -1.09769e-13 -6.72852e-14 -1.68857e-13 -6.18985e-14 -1.12702e-13 -1.59212e-13 -1.10383e-13 -2.02676e-13 6.2575e-14 -1.32426e-13 -2.72057e-13 1.17686e-13 -1.15383e-13 -1.44328e-14 7.8442e-15 -1.1945e-13 7.58659e-16 -1.99229e-13 4.13018e-14 -7.11e-14 1.81789e-13 2.09907e-13 4.56338e-12 4.50486e-11 4.16727e-10 3.5756e-09 2.81707e-08 2.02758e-07 1.32532e-06 7.81301e-06 4.11971e-05 0.000192331 0.000785074 0.00275961 0.00821477 0.020422 0.042274 0.0740278 0.113337 0.157462 0.204572 0.253623 0.303867 0.355018 0.407054 0.459885 0.510493 0.560321 0.608166 0.655932 0.700473 0.745324 0.787205 0.825946 0.863127 0.889627 0.910553 0.925962 0.930368 0.933055 0.934473 0.934371 0.933764 0.93288 0.932029 0.931361 0.93082 0.930334 0.929896 0.929556 0.929349 0.929267 0.929209 0.929207 0.929228 0.928983 0.927628 0.924358 0.918584 0.907108 0.884364 0.84287 0.774347 0.673421 0.543153 0.398799 0.261739 0.150624 0.0749445 0.0325713 0.0128297 0.00477176 0.00171983 0.000607721 0.000211412 7.24765e-05 2.44822e-05 8.14479e-06 2.66716e-06 8.59288e-07 2.72243e-07 8.47903e-08 2.59525e-08 7.80422e-09 2.30539e-09 6.68811e-10 1.89891e-10 5.31533e-11 1.44472e-11 3.84588e-12 6.18582e-13 -8.91599e-14 -2.10248e-13 9.30412e-14 -2.39562e-13 -1.33857e-13 6.78509e-14 -3.68124e-13 -3.34251e-13 -1.18202e-13 -4.09332e-13 -2.36894e-13 2.68858e-13 -2.17803e-13 -1.77054e-13 -5.1335e-13 -5.49876e-14 1.37287e-13 -8.47748e-13 2.29688e-13 -4.19013e-13 -2.34277e-13 1.84339e-13 -3.79776e-13 5.90845e-13 1.47695e-13 1.55109e-14 9.84018e-15 -1.56859e-13 2.09058e-13 -4.46444e-13 1.41393e-13 -3.59959e-13 -4.27792e-13 7.74193e-13 -5.1377e-13 -7.21693e-13 7.95468e-14 2.67506e-13 3.43344e-13 2.25289e-13 -2.71399e-13 9.73876e-15 -3.51252e-14 2.30438e-13 0 0 -1.57066e-14 -2.138e-14 -1.99842e-14 -2.45565e-14 6.84557e-15 -1.23301e-14 -2.68502e-14 -1.21794e-14 -4.68455e-14 3.06048e-14 2.6576e-14 2.63473e-14 -8.07232e-14 -1.53415e-14 -2.66914e-14 -5.54727e-14 -8.11739e-14 -9.86127e-14 -3.10601e-14 -5.35065e-15 -9.68088e-14 -2.66623e-14 -3.52747e-14 5.17153e-14 -9.7923e-14 -1.71271e-13 -5.99903e-14 -7.28364e-14 -7.39855e-14 -1.9016e-13 -1.98863e-14 -8.01422e-14 -3.20187e-14 -9.41421e-14 -2.15643e-13 -1.84447e-13 4.61517e-15 -4.87958e-15 -1.30019e-13 -1.56756e-13 -1.35329e-14 -1.61121e-13 1.00256e-13 6.65236e-14 -1.08126e-13 -6.61979e-14 -1.21996e-13 -7.27292e-14 -1.31247e-13 -6.82572e-14 -3.30913e-13 -2.91764e-13 3.17088e-13 -2.95612e-13 -6.9974e-14 -7.06775e-14 -5.73877e-15 -1.0976e-13 6.62111e-14 5.22159e-14 -6.36378e-15 -1.49477e-13 -2.27788e-13 -1.60605e-13 -3.20222e-14 7.93382e-13 4.56303e-12 4.50376e-11 4.16795e-10 3.57569e-09 2.81706e-08 2.02758e-07 1.32532e-06 7.81301e-06 4.11971e-05 0.000192331 0.000785074 0.00275961 0.00821477 0.020422 0.042274 0.0740278 0.113337 0.157462 0.204572 0.253623 0.303867 0.355018 0.407054 0.459885 0.510493 0.560321 0.608166 0.655932 0.700473 0.745324 0.787205 0.825946 0.863127 0.889627 0.910553 0.925962 0.930368 0.933055 0.934473 0.934371 0.933764 0.93288 0.932029 0.931361 0.93082 0.930334 0.929896 0.929556 0.929349 0.929267 0.929209 0.929207 0.929228 0.928983 0.927628 0.924358 0.918584 0.907108 0.884364 0.84287 0.774347 0.673421 0.543153 0.398799 0.261739 0.150624 0.0749445 0.0325713 0.0128297 0.00477176 0.00171983 0.000607721 0.000211412 7.24765e-05 2.44822e-05 8.14479e-06 2.66716e-06 8.59288e-07 2.72243e-07 8.47901e-08 2.59525e-08 7.80448e-09 2.30509e-09 6.68845e-10 1.90167e-10 5.33579e-11 1.4235e-11 3.79271e-12 7.07895e-13 7.02599e-13 1.3876e-13 -7.27788e-13 -2.53702e-13 -3.34812e-13 7.33712e-13 -2.2332e-13 -6.46464e-13 -2.11807e-13 -1.94155e-13 -5.56861e-14 -4.19795e-13 -4.1275e-13 4.37454e-13 -2.61172e-13 -3.98025e-13 -1.90702e-14 -7.79448e-13 -2.85012e-13 -2.23977e-13 -2.59955e-13 6.5207e-13 -7.65732e-13 7.99431e-13 -2.14461e-13 -3.01082e-13 7.25922e-13 -5.24569e-13 1.99396e-13 -5.44948e-14 -1.77888e-13 -2.37894e-13 -7.35453e-13 -2.65037e-13 -7.98792e-14 -2.28009e-13 5.81409e-13 2.97804e-13 -8.05842e-13 1.20102e-13 -1.46741e-13 8.84231e-14 1.06706e-15 5.40194e-14 0 0 -9.02188e-15 -4.02668e-14 -4.96593e-14 -3.75711e-14 -3.91181e-14 -3.97614e-14 -3.89187e-15 -2.64527e-14 2.21572e-14 -1.11832e-14 4.58592e-14 -7.38986e-14 8.81807e-14 -8.48573e-14 -3.94333e-15 4.35536e-14 -1.41013e-13 -2.05012e-15 2.49859e-14 -7.74191e-14 -2.31182e-14 5.27538e-14 -6.99608e-14 -2.07022e-13 -1.31895e-13 -5.73917e-14 -2.50427e-13 2.11579e-14 -1.39635e-13 -4.04747e-14 -1.57051e-13 -8.57371e-14 5.80901e-14 -1.58923e-13 -5.60284e-14 -4.15886e-14 -5.06036e-14 -1.89267e-13 -1.22514e-13 7.42229e-15 -2.00016e-13 -6.05082e-15 -7.03574e-14 1.74177e-13 7.11601e-14 -1.74839e-13 2.56458e-14 -2.91199e-13 -2.27473e-14 -3.59761e-14 -6.23283e-14 -4.01295e-14 -3.80385e-13 -1.28212e-13 1.65861e-13 6.88414e-15 -1.36404e-13 5.10881e-14 -1.42475e-13 1.16783e-13 -2.32232e-13 -3.0422e-13 -2.90718e-13 1.11684e-13 -1.5013e-13 9.69416e-13 4.78946e-12 4.50657e-11 4.17247e-10 3.57555e-09 2.81702e-08 2.02758e-07 1.32532e-06 7.81302e-06 4.11971e-05 0.000192331 0.000785074 0.00275961 0.00821477 0.020422 0.042274 0.0740278 0.113337 0.157462 0.204572 0.253623 0.303867 0.355018 0.407054 0.459885 0.510493 0.560321 0.608166 0.655932 0.700473 0.745324 0.787205 0.825946 0.863127 0.889627 0.910553 0.925962 0.930368 0.933055 0.934473 0.934371 0.933764 0.93288 0.932029 0.931361 0.93082 0.930334 0.929896 0.929556 0.929349 0.929267 0.929209 0.929207 0.929228 0.928983 0.927628 0.924358 0.918584 0.907108 0.884364 0.84287 0.774347 0.673421 0.543153 0.398799 0.261739 0.150624 0.0749445 0.0325713 0.0128297 0.00477176 0.00171983 0.000607721 0.000211412 7.24765e-05 2.44822e-05 8.14479e-06 2.66716e-06 8.59288e-07 2.72243e-07 8.47908e-08 2.59519e-08 7.8047e-09 2.30546e-09 6.68082e-10 1.90941e-10 5.27838e-11 1.47489e-11 3.36827e-12 1.13112e-12 -1.44251e-13 -1.25432e-13 2.0454e-13 2.37708e-13 4.1529e-14 -3.87188e-13 -3.15879e-14 -4.00507e-14 -7.04874e-13 -2.43294e-13 5.81955e-14 -3.28448e-13 2.84569e-13 -6.50991e-13 4.78989e-13 -3.33432e-13 -7.01363e-13 1.50195e-13 -8.03015e-13 3.12065e-13 -6.68001e-13 -2.87799e-13 7.6616e-13 -1.00677e-12 6.68861e-13 -6.16208e-13 4.22914e-13 2.12768e-13 -1.83082e-13 6.75526e-13 -6.91971e-13 -3.77299e-13 3.27313e-13 -1.04374e-12 8.3901e-14 -2.82845e-13 -5.52889e-13 6.52636e-13 -1.81943e-13 -1.9197e-13 7.10693e-13 -5.78653e-13 7.05861e-13 -1.48469e-13 0 0 -4.32942e-14 -3.12492e-14 -2.88025e-14 -7.14673e-14 -4.05291e-14 -2.47626e-14 -1.38776e-14 2.14939e-14 2.7622e-14 -4.27072e-14 -7.82952e-14 1.27726e-14 -6.19113e-15 4.19892e-14 4.66196e-14 -1.55131e-13 1.46844e-13 1.23994e-13 -9.57354e-14 -1.09355e-13 1.36993e-13 -3.0738e-13 7.81686e-15 -7.57071e-14 -9.06551e-14 -4.5744e-13 6.18474e-14 -2.15956e-13 -6.58958e-14 -1.34238e-13 -8.68273e-14 -6.25256e-14 -6.29911e-14 6.57991e-14 -9.69739e-15 4.40747e-14 -1.87191e-13 -1.7231e-13 -1.05898e-13 -8.58451e-14 -5.34062e-14 -7.87352e-14 1.62312e-13 -9.70396e-14 -6.91097e-14 -1.42375e-13 -1.29767e-13 3.95639e-14 4.31467e-14 3.42507e-14 -1.22139e-13 -3.87384e-13 2.00336e-13 -9.27273e-14 -1.37498e-13 9.56737e-14 -1.02541e-13 1.67418e-13 1.01157e-13 -3.90538e-13 -5.30542e-13 -4.6463e-13 1.07893e-13 -9.8296e-14 3.72158e-13 4.68743e-13 5.21769e-12 4.55114e-11 4.16716e-10 3.5756e-09 2.81708e-08 2.02758e-07 1.32532e-06 7.81301e-06 4.11971e-05 0.000192331 0.000785074 0.00275961 0.00821477 0.020422 0.042274 0.0740278 0.113337 0.157462 0.204572 0.253623 0.303867 0.355018 0.407054 0.459885 0.510493 0.560321 0.608166 0.655932 0.700473 0.745324 0.787205 0.825946 0.863127 0.889627 0.910553 0.925962 0.930368 0.933055 0.934473 0.934371 0.933764 0.93288 0.932029 0.931361 0.93082 0.930334 0.929896 0.929556 0.929349 0.929267 0.929209 0.929207 0.929228 0.928983 0.927628 0.924358 0.918584 0.907108 0.884364 0.84287 0.774347 0.673421 0.543153 0.398799 0.261739 0.150624 0.0749445 0.0325713 0.0128297 0.00477176 0.00171983 0.000607721 0.000211412 7.24765e-05 2.44822e-05 8.14479e-06 2.66716e-06 8.59288e-07 2.72243e-07 8.479e-08 2.5953e-08 7.80366e-09 2.30603e-09 6.68642e-10 1.89219e-10 5.37664e-11 1.42586e-11 3.88755e-12 5.11537e-13 -5.82515e-13 -3.14444e-13 1.33407e-12 5.08701e-13 1.24992e-13 -9.67829e-13 -6.99569e-13 -5.82432e-13 8.01146e-13 -6.03608e-13 -6.90394e-13 6.18344e-13 -1.68912e-13 6.30791e-14 -8.69301e-13 9.85108e-13 -7.21195e-13 -1.05672e-12 7.43714e-13 -5.96631e-13 9.06786e-14 -5.96003e-13 -3.70329e-13 1.17994e-13 3.50612e-13 -7.56346e-14 -1.87681e-13 7.02848e-14 8.4366e-13 -1.4736e-13 -1.64606e-14 -2.23737e-13 -9.92037e-13 1.40594e-12 -8.53971e-13 -2.24547e-12 1.12881e-12 -1.6963e-13 7.72839e-13 5.25226e-13 -3.14815e-13 1.57242e-12 -7.84164e-13 -2.15832e-13 0
				</DataArray>
				<DataArray Name="VitesseY" type="Float32" format="ascii">