<?xml version="1.0"?>
<VTKFile type="PolyData">
	<PolyData>
		<Piece NumberOfPoints="1206" NumberOfPolys="1000">
			<Points>
				<DataArray type="Float32" NumberOfComponents="3" format="ascii">
 0 0 0 0.005 0 0 0.01 0 0 0.015 0 0 0.02 0 0 0.025 0 0 0.03 0 0 0.035 0 0 0.04 0 0 0.045 0 0 0.05 0 0 0.055 0 0 0.06 0 0 0.065 0 0 0.07 0 0 0.075 0 0 0.08 0 0 0.085 0 0 0.09 0 0 0.095 0 0 0.1 0 0 0.105 0 0 0.11 0 0 0.115 0 0 0.12 0 0 0.125 0 0 0.13 0 0 0.135 0 0 0.14 0 0 0.145 0 0 0.15 0 0 0.155 0 0 0.16 0 0 0.165 0 0 0.17 0 0 0.175 0 0 0.18 0 0 0.185 0 0 0.19 0 0 0.195 0 0 0.2 0 0 0.205 0 0 0.21 0 0 0.215 0 0 0.22 0 0 0.225 0 0 0.23 0 0 0.235 0 0 0.24 0 0 0.245 0 0 0.25 0 0 0.255 0 0 0.26 0 0 0.265 0 0 0.27 0 0 0.275 0 0 0.28 0 0 0.285 0 0 0.29 0 0 0.295 0 0 0.3 0 0 0.305 0 0 0.31 0 0 0.315 0 0 0.32 0 0 0.325 0 0 0.33 0 0 0.335 0 0 0.34 0 0 0.345 0 0 0.35 0 0 0.355 0 0 0.36 0 0 0.365 0 0 0.37 0 0 0.375 0 0 0.38 0 0 0.385 0 0 0.39 0 0 0.395 0 0 0.4 0 0 0.405 0 0 0.41 0 0 0.415 0 0 0.42 0 0 0.425 0 0 0.43 0 0 0.435 0 0 0.44 0 0 0.445 0 0 0.45 0 0 0.455 0 0 0.46 0 0 0.465 0 0 0.47 0 0 0.475 0 0 0.48 0 0 0.485 0 0 0.49 0 0 0.495 0 0 0.5 0 0 0.505 0 0 0.51 0 0 0.515 0 0 0.52 0 0 0.525 0 0 0.53 0 0 0.535 0 0 0.54 0 0 0.545 0 0 0.55 0 0 0.555 0 0 0.56 0 0 0.565 0 0 0.57 0 0 0.575 0 0 0.58 0 0 0.585 0 0 0.59 0 0 0.595 0 0 0.6 0 0 0.605 0 0 0.61 0 0 0.615 0 0 0.62 0 0 0.625 0 0 0.63 0 0 0.635 0 0 0.64 0 0 0.645 0 0 0.65 0 0 0.655 0 0 0.66 0 0 0.665 0 0 0.67 0 0 0.675 0 0 0.68 0 0 0.685 0 0 0.69 0 0 0.695 0 0 0.7 0 0 0.705 0 0 0.71 0 0 0.715 0 0 0.72 0 0 0.725 0 0 0.73 0 0 0.735 0 0 0.74 0 0 0.745 0 0 0.75 0 0 0.755 0 0 0.76 0 0 0.765 0 0 0.77 0 0 0.775 0 0 0.78 0 0 0.785 0 0 0.79 0 0 0.795 0 0 0.8 0 0 0.805 0 0 0.81 0 0 0.815 0 0 0.82 0 0 0.825 0 0 0.83 0 0 0.835 0 0 0.84 0 0 0.845 0 0 0.85 0 0 0.855 0 0 0.86 0 0 0.865 0 0 0.87 0 0 0.875 0 0 0.88 0 0 0.885 0 0 0.89 0 0 0.895 0 0 0.9 0 0 0.905 0 0 0.91 0 0 0.915 0 0 0.92 0 0 0.925 0 0 0.93 0 0 0.935 0 0 0.94 0 0 0.945 0 0 0.95 0 0 0.955 0 0 0.96 0 0 0.965 0 0 0.97 0 0 0.975 0 0 0.98 0 0 0.985 0 0 0.99 0 0 0.995 0 0 1 0 0 0 0.02 0 0.005 0.02 0 0.01 0.02 0 0.015 0.02 0 0.02 0.02 0 0.025 0.02 0 0.03 0.02 0 0.035 0.02 0 0.04 0.02 0 0.045 0.02 0 0.05 0.02 0 0.055 0.02 0 0.06 0.02 0 0.065 0.02 0 0.07 0.02 0 0.075 0.02 0 0.08 0.02 0 0.085 0.02 0 0.09 0.02 0 0.095 0.02 0 0.1 0.02 0 0.105 0.02 0 0.11 0.02 0 0.115 0.02 0 0.12 0.02 0 0.125 0.02 0 0.13 0.02 0 0.135 0.02 0 0.14 0.02 0 0.145 0.02 0 0.15 0.02 0 0.155 0.02 0 0.16 0.02 0 0.165 0.02 0 0.17 0.02 0 0.175 0.02 0 0.18 0.02 0 0.185 0.02 0 0.19 0.02 0 0.195 0.02 0 0.2 0.02 0 0.205 0.02 0 0.21 0.02 0 0.215 0.02 0 0.22 0.02 0 0.225 0.02 0 0.23 0.02 0 0.235 0.02 0 0.24 0.02 0 0.245 0.02 0 0.25 0.02 0 0.255 0.02 0 0.26 0.02 0 0.265 0.02 0 0.27 0.02 0 0.275 0.02 0 0.28 0.02 0 0.285 0.02 0 0.29 0.02 0 0.295 0.02 0 0.3 0.02 0 0.305 0.02 0 0.31 0.02 0 0.315 0.02 0 0.32 0.02 0 0.325 0.02 0 0.33 0.02 0 0.335 0.02 0 0.34 0.02 0 0.345 0.02 0 0.35 0.02 0 0.355 0.02 0 0.36 0.02 0 0.365 0.02 0 0.37 0.02 0 0.375 0.02 0 0.38 0.02 0 0.385 0.02 0 0.39 0.02 0 0.395 0.02 0 0.4 0.02 0 0.405 0.02 0 0.41 0.02 0 0.415 0.02 0 0.42 0.02 0 0.425 0.02 0 0.43 0.02 0 0.435 0.02 0 0.44 0.02 0 0.445 0.02 0 0.45 0.02 0 0.455 0.02 0 0.46 0.02 0 0.465 0.02 0 0.47 0.02 0 0.475 0.02 0 0.48 0.02 0 0.485 0.02 0 0.49 0.02 0 0.495 0.02 0 0.5 0.02 0 0.505 0.02 0 0.51 0.02 0 0.515 0.02 0 0.52 0.02 0 0.525 0.02 0 0.53 0.02 0 0.535 0.02 0 0.54 0.02 0 0.545 0.02 0 0.55 0.02 0 0.555 0.02 0 0.56 0.02 0 0.565 0.02 0 0.57 0.02 0 0.575 0.02 0 0.58 0.02 0 0.585 0.02 0 0.59 0.02 0 0.595 0.02 0 0.6 0.02 0 0.605 0.02 0 0.61 0.02 0 0.615 0.02 0 0.62 0.02 0 0.625 0.02 0 0.63 0.02 0 0.635 0.02 0 0.64 0.02 0 0.645 0.02 0 0.65 0.02 0 0.655 0.02 0 0.66 0.02 0 0.665 0.02 0 0.67 0.02 0 0.675 0.02 0 0.68 0.02 0 0.685 0.02 0 0.69 0.02 0 0.695 0.02 0 0.7 0.02 0 0.705 0.02 0 0.71 0.02 0 0.715 0.02 0 0.72 0.02 0 0.725 0.02 0 0.73 0.02 0 0.735 0.02 0 0.74 0.02 0 0.745 0.02 0 0.75 0.02 0 0.755 0.02 0 0.76 0.02 0 0.765 0.02 0 0.77 0.02 0 0.775 0.02 0 0.78 0.02 0 0.785 0.02 0 0.79 0.02 0 0.795 0.02 0 0.8 0.02 0 0.805 0.02 0 0.81 0.02 0 0.815 0.02 0 0.82 0.02 0 0.825 0.02 0 0.83 0.02 0 0.835 0.02 0 0.84 0.02 0 0.845 0.02 0 0.85 0.02 0 0.855 0.02 0 0.86 0.02 0 0.865 0.02 0 0.87 0.02 0 0.875 0.02 0 0.88 0.02 0 0.885 0.02 0 0.89 0.02 0 0.895 0.02 0 0.9 0.02 0 0.905 0.02 0 0.91 0.02 0 0.915 0.02 0 0.92 0.02 0 0.925 0.02 0 0.93 0.02 0 0.935 0.02 0 0.94 0.02 0 0.945 0.02 0 0.95 0.02 0 0.955 0.02 0 0.96 0.02 0 0.965 0.02 0 0.97 0.02 0 0.975 0.02 0 0.98 0.02 0 0.985 0.02 0 0.99 0.02 0 0.995 0.02 0 1 0.02 0 0 0.04 0 0.005 0.04 0 0.01 0.04 0 0.015 0.04 0 0.02 0.04 0 0.025 0.04 0 0.03 0.04 0 0.035 0.04 0 0.04 0.04 0 0.045 0.04 0 0.05 0.04 0 0.055 0.04 0 0.06 0.04 0 0.065 0.04 0 0.07 0.04 0 0.075 0.04 0 0.08 0.04 0 0.085 0.04 0 0.09 0.04 0 0.095 0.04 0 0.1 0.04 0 0.105 0.04 0 0.11 0.04 0 0.115 0.04 0 0.12 0.04 0 0.125 0.04 0 0.13 0.04 0 0.135 0.04 0 0.14 0.04 0 0.145 0.04 0 0.15 0.04 0 0.155 0.04 0 0.16 0.04 0 0.165 0.04 0 0.17 0.04 0 0.175 0.04 0 0.18 0.04 0 0.185 0.04 0 0.19 0.04 0 0.195 0.04 0 0.2 0.04 0 0.205 0.04 0 0.21 0.04 0 0.215 0.04 0 0.22 0.04 0 0.225 0.04 0 0.23 0.04 0 0.235 0.04 0 0.24 0.04 0 0.245 0.04 0 0.25 0.04 0 0.255 0.04 0 0.26 0.04 0 0.265 0.04 0 0.27 0.04 0 0.275 0.04 0 0.28 0.04 0 0.285 0.04 0 0.29 0.04 0 0.295 0.04 0 0.3 0.04 0 0.305 0.04 0 0.31 0.04 0 0.315 0.04 0 0.32 0.04 0 0.325 0.04 0 0.33 0.04 0 0.335 0.04 0 0.34 0.04 0 0.345 0.04 0 0.35 0.04 0 0.355 0.04 0 0.36 0.04 0 0.365 0.04 0 0.37 0.04 0 0.375 0.04 0 0.38 0.04 0 0.385 0.04 0 0.39 0.04 0 0.395 0.04 0 0.4 0.04 0 0.405 0.04 0 0.41 0.04 0 0.415 0.04 0 0.42 0.04 0 0.425 0.04 0 0.43 0.04 0 0.435 0.04 0 0.44 0.04 0 0.445 0.04 0 0.45 0.04 0 0.455 0.04 0 0.46 0.04 0 0.465 0.04 0 0.47 0.04 0 0.475 0.04 0 0.48 0.04 0 0.485 0.04 0 0.49 0.04 0 0.495 0.04 0 0.5 0.04 0 0.505 0.04 0 0.51 0.04 0 0.515 0.04 0 0.52 0.04 0 0.525 0.04 0 0.53 0.04 0 0.535 0.04 0 0.54 0.04 0 0.545 0.04 0 0.55 0.04 0 0.555 0.04 0 0.56 0.04 0 0.565 0.04 0 0.57 0.04 0 0.575 0.04 0 0.58 0.04 0 0.585 0.04 0 0.59 0.04 0 0.595 0.04 0 0.6 0.04 0 0.605 0.04 0 0.61 0.04 0 0.615 0.04 0 0.62 0.04 0 0.625 0.04 0 0.63 0.04 0 0.635 0.04 0 0.64 0.04 0 0.645 0.04 0 0.65 0.04 0 0.655 0.04 0 0.66 0.04 0 0.665 0.04 0 0.67 0.04 0 0.675 0.04 0 0.68 0.04 0 0.685 0.04 0 0.69 0.04 0 0.695 0.04 0 0.7 0.04 0 0.705 0.04 0 0.71 0.04 0 0.715 0.04 0 0.72 0.04 0 0.725 0.04 0 0.73 0.04 0 0.735 0.04 0 0.74 0.04 0 0.745 0.04 0 0.75 0.04 0 0.755 0.04 0 0.76 0.04 0 0.765 0.04 0 0.77 0.04 0 0.775 0.04 0 0.78 0.04 0 0.785 0.04 0 0.79 0.04 0 0.795 0.04 0 0.8 0.04 0 0.805 0.04 0 0.81 0.04 0 0.815 0.04 0 0.82 0.04 0 0.825 0.04 0 0.83 0.04 0 0.835 0.04 0 0.84 0.04 0 0.845 0.04 0 0.85 0.04 0 0.855 0.04 0 0.86 0.04 0 0.865 0.04 0 0.87 0.04 0 0.875 0.04 0 0.88 0.04 0 0.885 0.04 0 0.89 0.04 0 0.895 0.04 0 0.9 0.04 0 0.905 0.04 0 0.91 0.04 0 0.915 0.04 0 0.92 0.04 0 0.925 0.04 0 0.93 0.04 0 0.935 0.04 0 0.94 0.04 0 0.945 0.04 0 0.95 0.04 0 0.955 0.04 0 0.96 0.04 0 0.965 0.04 0 0.97 0.04 0 0.975 0.04 0 0.98 0.04 0 0.985 0.04 0 0.99 0.04 0 0.995 0.04 0 1 0.04 0 0 0.06 0 0.005 0.06 0 0.01 0.06 0 0.015 0.06 0 0.02 0.06 0 0.025 0.06 0 0.03 0.06 0 0.035 0.06 0 0.04 0.06 0 0.045 0.06 0 0.05 0.06 0 0.055 0.06 0 0.06 0.06 0 0.065 0.06 0 0.07 0.06 0 0.075 0.06 0 0.08 0.06 0 0.085 0.06 0 0.09 0.06 0 0.095 0.06 0 0.1 0.06 0 0.105 0.06 0 0.11 0.06 0 0.115 0.06 0 0.12 0.06 0 0.125 0.06 0 0.13 0.06 0 0.135 0.06 0 0.14 0.06 0 0.145 0.06 0 0.15 0.06 0 0.155 0.06 0 0.16 0.06 0 0.165 0.06 0 0.17 0.06 0 0.175 0.06 0 0.18 0.06 0 0.185 0.06 0 0.19 0.06 0 0.195 0.06 0 0.2 0.06 0 0.205 0.06 0 0.21 0.06 0 0.215 0.06 0 0.22 0.06 0 0.225 0.06 0 0.23 0.06 0 0.235 0.06 0 0.24 0.06 0 0.245 0.06 0 0.25 0.06 0 0.255 0.06 0 0.26 0.06 0 0.265 0.06 0 0.27 0.06 0 0.275 0.06 0 0.28 0.06 0 0.285 0.06 0 0.29 0.06 0 0.295 0.06 0 0.3 0.06 0 0.305 0.06 0 0.31 0.06 0 0.315 0.06 0 0.32 0.06 0 0.325 0.06 0 0.33 0.06 0 0.335 0.06 0 0.34 0.06 0 0.345 0.06 0 0.35 0.06 0 0.355 0.06 0 0.36 0.06 0 0.365 0.06 0 0.37 0.06 0 0.375 0.06 0 0.38 0.06 0 0.385 0.06 0 0.39 0.06 0 0.395 0.06 0 0.4 0.06 0 0.405 0.06 0 0.41 0.06 0 0.415 0.06 0 0.42 0.06 0 0.425 0.06 0 0.43 0.06 0 0.435 0.06 0 0.44 0.06 0 0.445 0.06 0 0.45 0.06 0 0.455 0.06 0 0.46 0.06 0 0.465 0.06 0 0.47 0.06 0 0.475 0.06 0 0.48 0.06 0 0.485 0.06 0 0.49 0.06 0 0.495 0.06 0 0.5 0.06 0 0.505 0.06 0 0.51 0.06 0 0.515 0.06 0 0.52 0.06 0 0.525 0.06 0 0.53 0.06 0 0.535 0.06 0 0.54 0.06 0 0.545 0.06 0 0.55 0.06 0 0.555 0.06 0 0.56 0.06 0 0.565 0.06 0 0.57 0.06 0 0.575 0.06 0 0.58 0.06 0 0.585 0.06 0 0.59 0.06 0 0.595 0.06 0 0.6 0.06 0 0.605 0.06 0 0.61 0.06 0 0.615 0.06 0 0.62 0.06 0 0.625 0.06 0 0.63 0.06 0 0.635 0.06 0 0.64 0.06 0 0.645 0.06 0 0.65 0.06 0 0.655 0.06 0 0.66 0.06 0 0.665 0.06 0 0.67 0.06 0 0.675 0.06 0 0.68 0.06 0 0.685 0.06 0 0.69 0.06 0 0.695 0.06 0 0.7 0.06 0 0.705 0.06 0 0.71 0.06 0 0.715 0.06 0 0.72 0.06 0 0.725 0.06 0 0.73 0.06 0 0.735 0.06 0 0.74 0.06 0 0.745 0.06 0 0.75 0.06 0 0.755 0.06 0 0.76 0.06 0 0.765 0.06 0 0.77 0.06 0 0.775 0.06 0 0.78 0.06 0 0.785 0.06 0 0.79 0.06 0 0.795 0.06 0 0.8 0.06 0 0.805 0.06 0 0.81 0.06 0 0.815 0.06 0 0.82 0.06 0 0.825 0.06 0 0.83 0.06 0 0.835 0.06 0 0.84 0.06 0 0.845 0.06 0 0.85 0.06 0 0.855 0.06 0 0.86 0.06 0 0.865 0.06 0 0.87 0.06 0 0.875 0.06 0 0.88 0.06 0 0.885 0.06 0 0.89 0.06 0 0.895 0.06 0 0.9 0.06 0 0.905 0.06 0 0.91 0.06 0 0.915 0.06 0 0.92 0.06 0 0.925 0.06 0 0.93 0.06 0 0.935 0.06 0 0.94 0.06 0 0.945 0.06 0 0.95 0.06 0 0.955 0.06 0 0.96 0.06 0 0.965 0.06 0 0.97 0.06 0 0.975 0.06 0 0.98 0.06 0 0.985 0.06 0 0.99 0.06 0 0.995 0.06 0 1 0.06 0 0 0.08 0 0.005 0.08 0 0.01 0.08 0 0.015 0.08 0 0.02 0.08 0 0.025 0.08 0 0.03 0.08 0 0.035 0.08 0 0.04 0.08 0 0.045 0.08 0 0.05 0.08 0 0.055 0.08 0 0.06 0.08 0 0.065 0.08 0 0.07 0.08 0 0.075 0.08 0 0.08 0.08 0 0.085 0.08 0 0.09 0.08 0 0.095 0.08 0 0.1 0.08 0 0.105 0.08 0 0.11 0.08 0 0.115 0.08 0 0.12 0.08 0 0.125 0.08 0 0.13 0.08 0 0.135 0.08 0 0.14 0.08 0 0.145 0.08 0 0.15 0.08 0 0.155 0.08 0 0.16 0.08 0 0.165 0.08 0
[...]
			<PointData Scalars="VitesseX">
				<DataArray Name="VitesseX" type="Float32" format="ascii">
 0 4.4557e-15 -1.18001e-14 -6.90632e-15 5.49206e-14 -4.90503e-14 -8.85771e-14 1.73176e-14 4.26274e-15 7.98939e-14 -8.33972e-14 -5.46551e-14 -1.14946e-13 8.00845e-15 -1.20817e-13 -1.09028e-13 5.04514e-14 4.47604e-14 -6.3466e-14 -1.60073e-13 -1.86969e-13 7.83033e-14 -1.34124e-14 -1.565e-13 -2.46478e-13 -4.84396e-14 1.984e-13 -6.04161e-14 -2.16076e-13 -1.12938e-13 8.73396e-14 -3.10646e-14 5.12498e-14 -5.66305e-14 -1.24889e-13 -2.88725e-14 -3.75624e-14 -1.41844e-14 -2.8566e-13 -2.22092e-13 -1.47177e-13 5.08374e-14 -3.53623e-13 -3.83686e-13 -2.23187e-13 1.94522e-13 1.02213e-13 -5.98723e-14 -1.16103e-13 -2.23553e-13 8.4792e-14 7.11857e-13 1.46588e-13 -6.404e-13 -5.87378e-13 -1.10554e-13 -2.24961e-14 -1.04607e-14 -2.23709e-13 -3.67939e-14 4.39854e-13 -2.68049e-13 1.97811e-13 -7.23697e-14 1.50076e-13 -1.2212e-13 -2.29873e-13 -4.20118e-13 -4.02173e-13 2.54796e-13 -2.13304e-13 -1.3961e-13 4.60807e-13 5.64804e-12 6.62148e-11 7.44893e-10 7.64532e-09 7.08497e-08 5.88504e-07 4.34529e-06 2.82334e-05 0.000159424 0.000770101 0.00312034 0.0103699 0.0277322 0.0595098 0.105097 0.160237 0.221219 0.28599 0.353198 0.422524 0.492763 0.556082 0.621105 0.678747 0.73624 0.789824 0.833997 0.878231 0.904686 0.91996 0.932914 0.935709 0.935135 0.934368 0.933867 0.933431 0.932816 0.931966 0.931092 0.930452 0.930448 0.930434 0.928832 0.9224 0.909978 0.888216 0.847596 0.777976 0.673812 0.539283 0.391178 0.252146 0.141258 0.0676852 0.0280626 0.0104843 0.00368201 0.00124626 0.000410826 0.000132356 4.17063e-05 1.28528e-05 3.87252e-06 1.1404e-06 3.28157e-07 9.22554e-08 2.53357e-08 6.79705e-09 1.78129e-09 4.55101e-10 1.14658e-10 2.83086e-11 6.39344e-12 1.7815e-12 -5.01781e-13 3.91652e-13 6.56829e-13 -1.50267e-12 5.82968e-13 -8.48944e-13 1.11277e-12 -1.1432e-13 7.72669e-14 -6.85673e-13 -2.72325e-13 8.88157e-13 2.95275e-13 -6.47966e-13 -8.28233e-13 3.78765e-14 7.36995e-13 -2.83385e-13 -4.70699e-13 -3.4737e-13 6.40244e-13 5.90016e-13 -1.17264e-12 6.43582e-13 3.31444e-13 -3.76974e-13 4.97141e-13 -7.60672e-13 2.73583e-13 -2.99145e-13 -4.65366e-13 4.10003e-14 -9.85556e-13 5.52394e-13 3.78746e-13 -7.87897e-13 3.46843e-13 -8.42389e-13 1.23955e-12 2.38513e-13 -1.4837e-12 -1.70364e-13 -1.20309e-12 1.29345e-12 1.96152e-13 -2.46582e-12 4.33195e-14 1.12757e-12 -1.39965e-13 -8.23886e-13 -2.32947e-12 1.62163e-12 1.0484e-12 0 0 -1.60753e-14 2.24731e-15 1.00728e-15 -5.49285e-14 1.95509e-14 5.75686e-14 -1.52142e-14 -4.26695e-15 -7.18643e-14 1.78231e-14 -1.09777e-14 -2.54026e-14 -1.23531e-13 -7.01646e-14 -2.77479e-14 -1.19684e-13 -3.52584e-14 -5.72467e-15 2.36025e-14 -2.39863e-14 -1.75848e-13 -1.73163e-13 -3.00753e-14 6.92075e-14 -1.81605e-14 -2.87785e-13 -5.1266e-14 5.49647e-14 -5.87805e-14 -4.40918e-14 -4.46095e-14 -4.69912e-14 -2.77849e-14 5.44364e-14 -1.81603e-14 -6.36756e-14 -2.45029e-13 -4.95089e-14 -1.10397e-13 -1.94786e-13 -2.99504e-13 -3.79637e-14 -1.13469e-14 -8.38753e-14 -3.01449e-13 2.96224e-14 2.269e-14 2.09466e-13 2.85023e-13 1.26262e-13 -3.68884e-13 -1.66271e-13 9.92718e-14 -8.55846e-14 -3.18829e-13 -1.83032e-13 -2.59497e-13 4.3251e-14 3.17838e-14 -1.2975e-13 1.46212e-13 -3.33276e-14 8.0709e-14 -2.81435e-13 -1.62968e-13 -4.92064e-14 -1.23222e-13 8.6477e-14 -4.58597e-13 -6.87381e-14 3.87504e-13 7.10294e-13 5.42648e-12 6.58595e-11 7.45069e-10 7.64596e-09 7.08496e-08 5.88504e-07 4.34529e-06 2.82334e-05 0.000159424 0.000770101 0.00312034 0.0103699 0.0277322 0.0595098 0.105097 0.160237 0.221219 0.28599 0.353198 0.422524 0.492763 0.556082 0.621105 0.678747 0.73624 0.789824 0.833997 0.878231 0.904686 0.91996 0.932914 0.935709 0.935135 0.934368 0.933867 0.933431 0.932816 0.931966 0.931092 0.930452 0.930448 0.930434 0.928832 0.9224 0.909978 0.888216 0.847596 0.777976 0.673812 0.539283 0.391178 0.252146 0.141258 0.0676852 0.0280626 0.0104843 0.00368201 0.00124626 0.000410826 0.000132356 4.17063e-05 1.28528e-05 3.87252e-06 1.1404e-06 3.28156e-07 9.22546e-08 2.53362e-08 6.79677e-09 1.78126e-09 4.56706e-10 1.13641e-10 2.74789e-11 7.08077e-12 1.46597e-12 9.3293e-13 -5.92965e-13 -6.04126e-13 6.59879e-13 -4.78832e-13 3.8837e-13 -8.35456e-13 1.05943e-13 -5.94521e-15 3.39234e-13 2.28846e-13 -8.27041e-13 -4.6202e-13 1.67899e-14 4.45916e-13 -1.31112e-13 -8.63711e-13 8.46924e-15 2.52508e-13 -3.36063e-14 -2.68061e-13 -1.25869e-13 7.09539e-13 -2.57436e-13 3.81853e-14 5.20539e-13 -4.35941e-13 4.50996e-13 -7.81033e-13 -2.69961e-13 -1.91482e-13 -3.6875e-13 2.42002e-13 -7.32243e-13 -1.52052e-13 7.24941e-13 -3.99577e-13 4.61021e-13 -8.03682e-13 -2.11975e-13 7.75084e-13 -6.58086e-13 3.56069e-13 -1.18553e-12 -9.29931e-13 1.71207e-12 -7.75928e-13 -8.00983e-13 -5.82825e-13 -5.6401e-14 1.23202e-12 -1.61658e-12 -6.43715e-13 0 0 8.70494e-15 2.4489e-15 1.10728e-14 2.61503e-15 -1.63235e-15 1.5492e-14 4.70937e-14 9.09886e-15 9.5854e-15 -2.94868e-14 -2.9057e-14 -6.2724e-14 -4.97655e-14 -6.22936e-14 -8.05184e-14 -3.1592e-14 -1.54058e-13 -3.39254e-14 -4.86341e-14 -4.21117e-14 7.34897e-15 -2.41137e-14 -4.37786e-14 -1.27641e-13 -1.07592e-13 5.84933e-14 -1.90656e-13 -1.0097e-13 2.3124e-14 1.06931e-14 -5.78809e-14 3.00227e-14 3.94044e-14 -1.21205e-13 -7.21648e-14 -5.76529e-14 8.71196e-16 -1.39251e-13 -1.83133e-13 -8.69173e-14 -2.58912e-13 6.28076e-14 -1.89753e-13 6.11086e-14 2.78096e-14 -3.27251e-14 3.05823e-14 -2.21187e-14 -5.2149e-14 -1.48316e-13 1.02822e-13 2.83603e-14 -9.146e-14 -1.74036e-13 -7.09569e-15 -1.8675e-13 -2.87997e-13 -8.84933e-14 -5.0639e-14 1.28948e-13 -1.1305e-13 -1.64446e-13 -8.69702e-14 -4.27023e-14 6.57653e-14 -2.17907e-13 1.10496e-14 -2.02562e-13 -4.59622e-14 7.27114e-14 -6.68419e-14 9.2582e-13 5.73704e-12 6.65227e-11 7.45003e-10 7.64547e-09 7.08496e-08 5.88504e-07 4.34529e-06 2.82334e-05 0.000159424 0.000770101 0.00312034 0.0103699 0.0277322 0.0595098 0.105097 0.160237 0.221219 0.28599 0.353198 0.422524 0.492763 0.556082 0.621105 0.678747 0.73624 0.789824 0.833997 0.878231 0.904686 0.91996 0.932914 0.935709 0.935135 0.934368 0.933867 0.933431 0.932816 0.931966 0.931092 0.930452 0.930448 0.930434 0.928832 0.9224 0.909978 0.888216 0.847596 0.777976 0.673812 0.539283 0.391178 0.252146 0.141258 0.0676852 0.0280626 0.0104843 0.00368201 0.00124626 0.000410826 0.000132356 4.17063e-05 1.28528e-05 3.87252e-06 1.1404e-06 3.28156e-07 9.22551e-08 2.53361e-08 6.79699e-09 1.78144e-09 4.55946e-10 1.14324e-10 2.78783e-11 6.49443e-12 1.5118e-12 -1.21141e-13 5.8726e-13 2.01519e-13 -9.29195e-14 1.37283e-13 -7.77875e-13 9.56605e-14 -4.57713e-13 2.25194e-13 -4.97e-13 -8.66554e-14 -2.29795e-14 -5.40225e-13 -5.10976e-13 -5.08225e-13 -2.22465e-13 4.02403e-13 -7.46502e-14 -2.26352e-13 -3.55012e-13 -3.32816e-13 1.84973e-13 3.77989e-13 3.59237e-13 -1.10316e-13 -1.74641e-13 8.65689e-14 -2.46596e-13 1.01973e-13 -2.69815e-13 -3.73974e-13 -3.22761e-13 -3.34215e-13 1.68447e-14 2.64768e-13 -6.55002e-15 2.22535e-13 -4.89283e-13 5.87127e-13 -2.34474e-13 -1.70617e-14 6.45937e-13 -6.59706e-13 -6.70978e-13 5.37758e-13 -1.1053e-12 3.95094e-13 -2.38475e-13 -5.29998e-13 -5.85494e-13 -5.08936e-13 9.45968e-13 1.0966e-13 0 0 3.98324e-15 3.67472e-14 4.87244e-14 7.35969e-14 2.1846e-14 -8.17352e-15 1.38664e-14 -1.80839e-14 2.9858e-14 -9.02794e-14 -1.77701e-14 -3.19194e-14 -2.05569e-14 -9.17837e-14 -7.53645e-14 -1.35124e-14 -2.75839e-14 -7.30793e-14 -9.56042e-14 -9.83232e-14 1.48771e-14 -1.79738e-14 -1.45569e-13 -3.98075e-14 -2.73468e-14 2.46027e-14 -5.00653e-14 -1.31192e-13 -1.32176e-14 3.87797e-14 -4.51561e-14 -1.04629e-13 -1.55486e-13 -9.35597e-14 -2.4263e-14 -1.25917e-13 -5.03746e-14 -1.75027e-13 -1.0891e-13 -8.36029e-14 2.86312e-14 -9.4084e-14 -1.76433e-13 -2.40289e-13 1.75534e-13 6.23557e-14 5.25232e-14 -1.69184e-13 -3.21077e-13 -4.52039e-14 3.5616e-13 -8.36841e-14 -4.19642e-13 -3.39144e-13 4.03636e-14 -6.61537e-14 -1.0893e-13 4.97534e-14 -1.5333e-14 1.38944e-13 -2.6509e-13 3.51154e-13 -9.11921e-14 1.38373e-13 -8.68934e-14 -2.06312e-13 -3.62268e-13 -8.63794e-14 -8.37838e-14 -3.80158e-14 -2.55342e-13 8.44738e-13 6.14718e-12 6.66089e-11 7.45011e-10 7.64572e-09 7.08496e-08 5.88504e-07 4.34529e-06 2.82334e-05 0.000159424 0.000770101 0.00312034 0.0103699 0.0277322 0.0595098 0.105097 0.160237 0.221219 0.28599 0.353198 0.422524 0.492763 0.556082 0.621105 0.678747 0.73624 0.789824 0.833997 0.878231 0.904686 0.91996 0.932914 0.935709 0.935135 0.934368 0.933867 0.933431 0.932816 0.931966 0.931092 0.930452 0.930448 0.930434 0.928832 0.9224 0.909978 0.888216 0.847596 0.777976 0.673812 0.539283 0.391178 0.252146 0.141258 0.0676852 0.0280626 0.0104843 0.00368201 0.00124626 0.000410826 0.000132356 4.17063e-05 1.28528e-05 3.87252e-06 1.1404e-06 3.28157e-07 9.22554e-08 2.53361e-08 6.79689e-09 1.7814e-09 4.55882e-10 1.14224e-10 2.82915e-11 6.62e-12 1.04365e-12 1.60411e-13 1.06148e-13 6.41584e-13 -2.94317e-13 -2.30896e-13 -7.14393e-13 3.49055e-13 2.06777e-13 -5.79335e-13 -7.51948e-13 -3.12076e-13 3.6976e-13 2.39719e-13 -5.93719e-13 -1.15484e-12 -1.75253e-13 -8.67075e-14 2.00431e-14 -2.7848e-13 -1.88959e-13 2.2479e-13 2.58473e-13 -5.61378e-13 2.06802e-14 -2.96509e-14 -2.28287e-13 1.42788e-13 -1.17594e-13 2.94008e-13 2.01374e-13 -5.66974e-13 -9.25451e-13 -7.35244e-13 8.03007e-13 4.18098e-13 -1.78757e-13 3.01889e-13 1.52794e-14 5.38871e-14 1.85777e-13 -1.79651e-13 -9.10411e-15 -2.14771e-13 2.85475e-13 -2.29886e-13 -1.08228e-12 -6.32857e-13 2.28128e-13 -2.74798e-13 -6.941e-13 -5.18411e-13 1.03162e-12 8.46059e-13 0 0 1.23315e-14 5.80872e-14 5.66605e-14 1.52757e-14 7.03268e-14 5.34896e-14 -3.57225e-14 -2.14884e-14 -7.02296e-14 -3.34759e-14 -1.62358e-14 2.19337e-14 -8.88339e-14 -5.17506e-14 -2.54977e-14 -8.4821e-14 1.90242e-14 1.61219e-14 -2.02636e-14 -5.79404e-14 -1.93866e-13 -1.52759e-13 -3.18311e-14 1.59785e-13 8.27017e-14 -1.79371e-13 4.91166e-14 6.41619e-14 -1.49956e-13 -1.15981e-13 -1.34201e-13 -1.56942e-13 -1.62299e-13 6.19033e-14 -8.68169e-15 -8.62541e-14 -1.99821e-13 -9.78131e-14 -5.26416e-14 -1.97101e-13 -1.28555e-13 -5.00742e-14 1.24197e-13 -2.79039e-13 -5.21823e-14 6.9474e-14 -7.67625e-14 1.26402e-13 1.5228e-13 1.2442e-13 -4.14276e-13 -2.39466e-13 -1.18528e-15 -1.68167e-13 -3.40769e-13 -2.31757e-13 -1.75435e-13 -7.88959e-14 1.23251e-13 -1.47741e-13 2.20572e-13 2.8029e-13 2.29385e-13 -1.29663e-13 -2.50336e-13 -1.59011e-13 -3.41819e-13 1.11593e-13 -5.07638e-13 1.05221e-13 5.99532e-13 9.52407e-13 5.72969e-12 6.60018e-11 7.45102e-10 7.64606e-09 7.08499e-08 5.88504e-07 4.34529e-06 2.82334e-05 0.000159424 0.000770101 0.00312034 0.0103699 0.0277322 0.0595098 0.105097 0.160237 0.221219 0.28599 0.353198 0.422524 0.492763 0.556082 0.621105 0.678747 0.73624 0.789824 0.833997 0.878231 0.904686 0.91996 0.932914 0.935709 0.935135 0.934368 0.933867 0.933431 0.932816 0.931966 0.931092 0.930452 0.930448 0.930434 0.928832 0.9224 0.909978 0.888216 0.847596 0.777976 0.673812 0.539283 0.391178 0.252146 0.141258 0.0676852 0.0280626 0.0104843 0.00368201 0.00124626 0.000410826 0.000132356 4.17063e-05 1.28528e-05 3.87252e-06 1.1404e-06 3.28157e-07 9.2255e-08 2.53363e-08 6.7971e-09 1.7812e-09 4.56804e-10 1.13667e-10 2.74508e-11 7.30608e-12 9.87632e-13 5.6449e-13 -8.41839e-13 -4.70197e-13 8.50378e-13 -4.95144e-13 2.62429e-13 -8.75379e-13 3.90157e-13 -4.42674e-13 -1.75151e-13 3.60184e-15 -5.52086e-13 9.10633e-14 -3.19907e-14 3.25287e-13 -9.29948e-14 -1.25792e-12 1.33936e-13 6.16456e-16 1.9489e-13 2.65594e-13 -1.37035e-13 2.70189e-13 -5.34612e-13 -2.05542e-13 2.29506e-13 -6.45063e-13 5.94359e-13 -8.21471e-13 -9.22687e-15 -5.00888e-13 -1.01728e-12 8.2652e-15 -1.80478e-13 -1.93264e-13 7.89761e-13 -2.50014e-13 8.9867e-13 -7.52118e-13 -4.20393e-13 4.31405e-13 -7.12355e-13 1.00984e-12 -7.9139e-13 -1.06251e-12 1.83947e-12 -1.42554e-12 -9.90887e-13 -3.8839e-13 1.34976e-13 1.61172e-12 -1.22075e-12 -4.01206e-13 0 0 7.07128e-14 3.1283e-14 2.9097e-14 5.33653e-14 5.54488e-15 -4.94041e-14 4.27557e-14 2.41854e-14 4.26182e-14 -6.441e-14 -8.77451e-14 -8.18823e-14 1.89844e-14 -2.50091e-14 -1.14835e-13 8.40177e-14 -9.96217e-14 5.85349e-14 -1.53865e-13 -1.42454e-13 2.72122e-14 1.51162e-14 4.35689e-14 -2.4099e-13 -7.20553e-15 4.83008e-13 -1.40832e-13 -1.37237e-13 -2.22606e-13 -1.12611e-13 -2.35697e-13 1.00652e-13 6.41204e-14 -1.65245e-13 -1.05719e-13 5.38097e-14 1.78724e-13 -3.10717e-13 -2.55025e-13 -1.58435e-13 -1.82351e-13 -6.40609e-14 -1.3924e-13 -1.07187e-14 3.97608e-13 -8.24564e-15 -3.02659e-13 1.19004e-14 4.88163e-14 -1.25116e-13 1.14397e-13 2.24287e-13 -1.8495e-13 -4.22325e-13 -2.49354e-13 -3.61138e-13 -2.00471e-13 -7.44496e-13 7.55281e-14 3.8388e-13 1.8475e-13 -2.06157e-13 2.33426e-13 9.14701e-14 8.46319e-15 -4.72673e-13 -1.10678e-13 -5.84306e-13 2.32358e-13 3.56069e-13 6.61445e-13 1.1072e-12 5.43417e-12 6.63269e-11 7.44941e-10 7.645e-09 7.08503e-08 5.88505e-07 4.34529e-06 2.82334e-05 0.000159424 0.000770101 0.00312034 0.0103699 0.0277322 0.0595098 0.105097 0.160237 0.221219 0.28599 0.353198 0.422524 0.492763 0.556082 0.621105 0.678747 0.73624 0.789824 0.833997 0.878231 0.904686 0.91996 0.932914 0.935709 0.935135 0.934368 0.933867 0.933431 0.932816 0.931966 0.931092 0.930452 0.930448 0.930434 0.928832 0.9224 0.909978 0.888216 0.847596 0.777976 0.673812 0.539283 0.391178 0.252146 0.141258 0.0676852 0.0280626 0.0104843 0.00368201 0.00124626 0.000410826 0.000132356 4.17063e-05 1.28528e-05 3.87252e-06 1.1404e-06 3.28157e-07 9.22555e-08 2.53359e-08 6.79793e-09 1.78123e-09 4.55426e-10 1.14912e-10 2.7426e-11 6.59291e-12 1.76114e-12 -1.80176e-12 8.56127e-13 4.45574e-14 -7.18873e-13 1.2867e-12 -1.22779e-12 5.2613e-13 -8.74871e-13 8.12865e-13 -1.20455e-12 -2.71973e-13 6.52588e-13 -1.58446e-13 -5.8004e-13 2.23734e-13 1.96877e-14 9.26791e-13 -2.21839e-13 -8.70225e-13 -2.22483e-13 5.92342e-13 4.20686e-13 -1.72604e-13 7.66344e-13 -3.17341e-13 -8.51748e-13 -3.35409e-14 -7.3195e-13 -1.91364e-13 -7.20057e-13 -6.98177e-13 -5.06849e-14 -6.50971e-13 8.35992e-14 -1.03371e-14 -3.13842e-13 4.87261e-13 -9.76216e-13 2.40916e-12 -1.01883e-12 -1.84588e-12 1.03118e-12 -7.85413e-13 1.68821e-13 1.46627e-12 -2.25706e-12 8.00006e-13 -1.85444e-13 -2.61494e-13 -2.23919e-13 -1.55112e-12 2.242e-12 6.06174e-14 0
				</DataArray>
				<DataArray Name="VitesseY" type="Float32" format="ascii">