<?xml version="1.0"?>
<VTKFile type="PolyData">
	<PolyData>
		<Piece NumberOfPoints="1206" NumberOfPolys="1000">
			<Points>
				<DataArray type="Float32" NumberOfComponents="3" format="ascii">
 0 0 0 0.005 0 0 0.01 0 0 0.015 0 0 0.02 0 0 0.025 0 0 0.03 0 0 0.035 0 0 0.04 0 0 0.045 0 0 0.05 0 0 0.055 0 0 0.06 0 0 0.065 0 0 0.07 0 0 0.075 0 0 0.08 0 0 0.085 0 0 0.09 0 0 0.095 0 0 0.1 0 0 0.105 0 0 0.11 0 0 0.115 0 0 0.12 0 0 0.125 0 0 0.13 0 0 0.135 0 0 0.14 0 0 0.145 0 0 0.15 0 0 0.155 0 0 0.16 0 0 0.165 0 0 0.17 0 0 0.175 0 0 0.18 0 0 0.185 0 0 0.19 0 0 0.195 0 0 0.2 0 0 0.205 0 0 0.21 0 0 0.215 0 0 0.22 0 0 0.225 0 0 0.23 0 0 0.235 0 0 0.24 0 0 0.245 0 0 0.25 0 0 0.255 0 0 0.26 0 0 0.265 0 0 0.27 0 0 0.275 0 0 0.28 0 0 0.285 0 0 0.29 0 0 0.295 0 0 0.3 0 0 0.305 0 0 0.31 0 0 0.315 0 0 0.32 0 0 0.325 0 0 0.33 0 0 0.335 0 0 0.34 0 0 0.345 0 0 0.35 0 0 0.355 0 0 0.36 0 0 0.365 0 0 0.37 0 0 0.375 0 0 0.38 0 0 0.385 0 0 0.39 0 0 0.395 0 0 0.4 0 0 0.405 0 0 0.41 0 0 0.415 0 0 0.42 0 0 0.425 0 0 0.43 0 0 0.435 0 0 0.44 0 0 0.445 0 0 0.45 0 0 0.455 0 0 0.46 0 0 0.465 0 0 0.47 0 0 0.475 0 0 0.48 0 0 0.485 0 0 0.49 0 0 0.495 0 0 0.5 0 0 0.505 0 0 0.51 0 0 0.515 0 0 0.52 0 0 0.525 0 0 0.53 0 0 0.535 0 0 0.54 0 0 0.545 0 0 0.55 0 0 0.555 0 0 0.56 0 0 0.565 0 0 0.57 0 0 0.575 0 0 0.58 0 0 0.585 0 0 0.59 0 0 0.595 0 0 0.6 0 0 0.605 0 0 0.61 0 0 0.615 0 0 0.62 0 0 0.625 0 0 0.63 0 0 0.635 0 0 0.64 0 0 0.645 0 0 0.65 0 0 0.655 0 0 0.66 0 0 0.665 0 0 0.67 0 0 0.675 0 0 0.68 0 0 0.685 0 0 0.69 0 0 0.695 0 0 0.7 0 0 0.705 0 0 0.71 0 0 0.715 0 0 0.72 0 0 0.725 0 0 0.73 0 0 0.735 0 0 0.74 0 0 0.745 0 0 0.75 0 0 0.755 0 0 0.76 0 0 0.765 0 0 0.77 0 0 0.775 0 0 0.78 0 0 0.785 0 0 0.79 0 0 0.795 0 0 0.8 0 0 0.805 0 0 0.81 0 0 0.815 0 0 0.82 0 0 0.825 0 0 0.83 0 0 0.835 0 0 0.84 0 0 0.845 0 0 0.85 0 0 0.855 0 0 0.86 0 0 0.865 0 0 0.87 0 0 0.875 0 0 0.88 0 0 0.885 0 0 0.89 0 0 0.895 0 0 0.9 0 0 0.905 0 0 0.91 0 0 0.915 0 0 0.92 0 0 0.925 0 0 0.93 0 0 0.935 0 0 0.94 0 0 0.945 0 0 0.95 0 0 0.955 0 0 0.96 0 0 0.965 0 0 0.97 0 0 0.975 0 0 0.98 0 0 0.985 0 0 0.99 0 0 0.995 0 0 1 0 0 0 0.02 0 0.005 0.02 0 0.01 0.02 0 0.015 0.02 0 0.02 0.02 0 0.025 0.02 0 0.03 0.02 0 0.035 0.02 0 0.04 0.02 0 0.045 0.02 0 0.05 0.02 0 0.055 0.02 0 0.06 0.02 0 0.065 0.02 0 0.07 0.02 0 0.075 0.02 0 0.08 0.02 0 0.085 0.02 0 0.09 0.02 0 0.095 0.02 0 0.1 0.02 0 0.105 0.02 0 0.11 0.02 0 0.115 0.02 0 0.12 0.02 0 0.125 0.02 0 0.13 0.02 0 0.135 0.02 0 0.14 0.02 0 0.145 0.02 0 0.15 0.02 0 0.155 0.02 0 0.16 0.02 0 0.165 0.02 0 0.17 0.02 0 0.175 0.02 0 0.18 0.02 0 0.185 0.02 0 0.19 0.02 0 0.195 0.02 0 0.2 0.02 0 0.205 0.02 0 0.21 0.02 0 0.215 0.02 0 0.22 0.02 0 0.225 0.02 0 0.23 0.02 0 0.235 0.02 0 0.24 0.02 0 0.245 0.02 0 0.25 0.02 0 0.255 0.02 0 0.26 0.02 0 0.265 0.02 0 0.27 0.02 0 0.275 0.02 0 0.28 0.02 0 0.285 0.02 0 0.29 0.02 0 0.295 0.02 0 0.3 0.02 0 0.305 0.02 0 0.31 0.02 0 0.315 0.02 0 0.32 0.02 0 0.325 0.02 0 0.33 0.02 0 0.335 0.02 0 0.34 0.02 0 0.345 0.02 0 0.35 0.02 0 0.355 0.02 0 0.36 0.02 0 0.365 0.02 0 0.37 0.02 0 0.375 0.02 0 0.38 0.02 0 0.385 0.02 0 0.39 0.02 0 0.395 0.02 0 0.4 0.02 0 0.405 0.02 0 0.41 0.02 0 0.415 0.02 0 0.42 0.02 0 0.425 0.02 0 0.43 0.02 0 0.435 0.02 0 0.44 0.02 0 0.445 0.02 0 0.45 0.02 0 0.455 0.02 0 0.46 0.02 0 0.465 0.02 0 0.47 0.02 0 0.475 0.02 0 0.48 0.02 0 0.485 0.02 0 0.49 0.02 0 0.495 0.02 0 0.5 0.02 0 0.505 0.02 0 0.51 0.02 0 0.515 0.02 0 0.52 0.02 0 0.525 0.02 0 0.53 0.02 0 0.535 0.02 0 0.54 0.02 0 0.545 0.02 0 0.55 0.02 0 0.555 0.02 0 0.56 0.02 0 0.565 0.02 0 0.57 0.02 0 0.575 0.02 0 0.58 0.02 0 0.585 0.02 0 0.59 0.02 0 0.595 0.02 0 0.6 0.02 0 0.605 0.02 0 0.61 0.02 0 0.615 0.02 0 0.62 0.02 0 0.625 0.02 0 0.63 0.02 0 0.635 0.02 0 0.64 0.02 0 0.645 0.02 0 0.65 0.02 0 0.655 0.02 0 0.66 0.02 0 0.665 0.02 0 0.67 0.02 0 0.675 0.02 0 0.68 0.02 0 0.685 0.02 0 0.69 0.02 0 0.695 0.02 0 0.7 0.02 0 0.705 0.02 0 0.71 0.02 0 0.715 0.02 0 0.72 0.02 0 0.725 0.02 0 0.73 0.02 0 0.735 0.02 0 0.74 0.02 0 0.745 0.02 0 0.75 0.02 0 0.755 0.02 0 0.76 0.02 0 0.765 0.02 0 0.77 0.02 0 0.775 0.02 0 0.78 0.02 0 0.785 0.02 0 0.79 0.02 0 0.795 0.02 0 0.8 0.02 0 0.805 0.02 0 0.81 0.02 0 0.815 0.02 0 0.82 0.02 0 0.825 0.02 0 0.83 0.02 0 0.835 0.02 0 0.84 0.02 0 0.845 0.02 0 0.85 0.02 0 0.855 0.02 0 0.86 0.02 0 0.865 0.02 0 0.87 0.02 0 0.875 0.02 0 0.88 0.02 0 0.885 0.02 0 0.89 0.02 0 0.895 0.02 0 0.9 0.02 0 0.905 0.02 0 0.91 0.02 0 0.915 0.02 0 0.92 0.02 0 0.925 0.02 0 0.93 0.02 0 0.935 0.02 0 0.94 0.02 0 0.945 0.02 0 0.95 0.02 0 0.955 0.02 0 0.96 0.02 0 0.965 0.02 0 0.97 0.02 0 0.975 0.02 0 0.98 0.02 0 0.985 0.02 0 0.99 0.02 0 0.995 0.02 0 1 0.02 0 0 0.04 0 0.005 0.04 0 0.01 0.04 0 0.015 0.04 0 0.02 0.04 0 0.025 0.04 0 0.03 0.04 0 0.035 0.04 0 0.04 0.04 0 0.045 0.04 0 0.05 0.04 0 0.055 0.04 0 0.06 0.04 0 0.065 0.04 0 0.07 0.04 0 0.075 0.04 0 0.08 0.04 0 0.085 0.04 0 0.09 0.04 0 0.095 0.04 0 0.1 0.04 0 0.105 0.04 0 0.11 0.04 0 0.115 0.04 0 0.12 0.04 0 0.125 0.04 0 0.13 0.04 0 0.135 0.04 0 0.14 0.04 0 0.145 0.04 0 0.15 0.04 0 0.155 0.04 0 0.16 0.04 0 0.165 0.04 0 0.17 0.04 0 0.175 0.04 0 0.18 0.04 0 0.185 0.04 0 0.19 0.04 0 0.195 0.04 0 0.2 0.04 0 0.205 0.04 0 0.21 0.04 0 0.215 0.04 0 0.22 0.04 0 0.225 0.04 0 0.23 0.04 0 0.235 0.04 0 0.24 0.04 0 0.245 0.04 0 0.25 0.04 0 0.255 0.04 0 0.26 0.04 0 0.265 0.04 0 0.27 0.04 0 0.275 0.04 0 0.28 0.04 0 0.285 0.04 0 0.29 0.04 0 0.295 0.04 0 0.3 0.04 0 0.305 0.04 0 0.31 0.04 0 0.315 0.04 0 0.32 0.04 0 0.325 0.04 0 0.33 0.04 0 0.335 0.04 0 0.34 0.04 0 0.345 0.04 0 0.35 0.04 0 0.355 0.04 0 0.36 0.04 0 0.365 0.04 0 0.37 0.04 0 0.375 0.04 0 0.38 0.04 0 0.385 0.04 0 0.39 0.04 0 0.395 0.04 0 0.4 0.04 0 0.405 0.04 0 0.41 0.04 0 0.415 0.04 0 0.42 0.04 0 0.425 0.04 0 0.43 0.04 0 0.435 0.04 0 0.44 0.04 0 0.445 0.04 0 0.45 0.04 0 0.455 0.04 0 0.46 0.04 0 0.465 0.04 0 0.47 0.04 0 0.475 0.04 0 0.48 0.04 0 0.485 0.04 0 0.49 0.04 0 0.495 0.04 0 0.5 0.04 0 0.505 0.04 0 0.51 0.04 0 0.515 0.04 0 0.52 0.04 0 0.525 0.04 0 0.53 0.04 0 0.535 0.04 0 0.54 0.04 0 0.545 0.04 0 0.55 0.04 0 0.555 0.04 0 0.56 0.04 0 0.565 0.04 0 0.57 0.04 0 0.575 0.04 0 0.58 0.04 0 0.585 0.04 0 0.59 0.04 0 0.595 0.04 0 0.6 0.04 0 0.605 0.04 0 0.61 0.04 0 0.615 0.04 0 0.62 0.04 0 0.625 0.04 0 0.63 0.04 0 0.635 0.04 0 0.64 0.04 0 0.645 0.04 0 0.65 0.04 0 0.655 0.04 0 0.66 0.04 0 0.665 0.04 0 0.67 0.04 0 0.675 0.04 0 0.68 0.04 0 0.685 0.04 0 0.69 0.04 0 0.695 0.04 0 0.7 0.04 0 0.705 0.04 0 0.71 0.04 0 0.715 0.04 0 0.72 0.04 0 0.725 0.04 0 0.73 0.04 0 0.735 0.04 0 0.74 0.04 0 0.745 0.04 0 0.75 0.04 0 0.755 0.04 0 0.76 0.04 0 0.765 0.04 0 0.77 0.04 0 0.775 0.04 0 0.78 0.04 0 0.785 0.04 0 0.79 0.04 0 0.795 0.04 0 0.8 0.04 0 0.805 0.04 0 0.81 0.04 0 0.815 0.04 0 0.82 0.04 0 0.825 0.04 0 0.83 0.04 0 0.835 0.04 0 0.84 0.04 0 0.845 0.04 0 0.85 0.04 0 0.855 0.04 0 0.86 0.04 0 0.865 0.04 0 0.87 0.04 0 0.875 0.04 0 0.88 0.04 0 0.885 0.04 0 0.89 0.04 0 0.895 0.04 0 0.9 0.04 0 0.905 0.04 0 0.91 0.04 0 0.915 0.04 0 0.92 0.04 0 0.925 0.04 0 0.93 0.04 0 0.935 0.04 0 0.94 0.04 0 0.945 0.04 0 0.95 0.04 0 0.955 0.04 0 0.96 0.04 0 0.965 0.04 0 0.97 0.04 0 0.975 0.04 0 0.98 0.04 0 0.985 0.04 0 0.99 0.04 0 0.995 0.04 0 1 0.04 0 0 0.06 0 0.005 0.06 0 0.01 0.06 0 0.015 0.06 0 0.02 0.06 0 0.025 0.06 0 0.03 0.06 0 0.035 0.06 0 0.04 0.06 0 0.045 0.06 0 0.05 0.06 0 0.055 0.06 0 0.06 0.06 0 0.065 0.06 0 0.07 0.06 0 0.075 0.06 0 0.08 0.06 0 0.085 0.06 0 0.09 0.06 0 0.095 0.06 0 0.1 0.06 0 0.105 0.06 0 0.11 0.06 0 0.115 0.06 0 0.12 0.06 0 0.125 0.06 0 0.13 0.06 0 0.135 0.06 0 0.14 0.06 0 0.145 0.06 0 0.15 0.06 0 0.155 0.06 0 0.16 0.06 0 0.165 0.06 0 0.17 0.06 0 0.175 0.06 0 0.18 0.06 0 0.185 0.06 0 0.19 0.06 0 0.195 0.06 0 0.2 0.06 0 0.205 0.06 0 0.21 0.06 0 0.215 0.06 0 0.22 0.06 0 0.225 0.06 0 0.23 0.06 0 0.235 0.06 0 0.24 0.06 0 0.245 0.06 0 0.25 0.06 0 0.255 0.06 0 0.26 0.06 0 0.265 0.06 0 0.27 0.06 0 0.275 0.06 0 0.28 0.06 0 0.285 0.06 0 0.29 0.06 0 0.295 0.06 0 0.3 0.06 0 0.305 0.06 0 0.31 0.06 0 0.315 0.06 0 0.32 0.06 0 0.325 0.06 0 0.33 0.06 0 0.335 0.06 0 0.34 0.06 0 0.345 0.06 0 0.35 0.06 0 0.355 0.06 0 0.36 0.06 0 0.365 0.06 0 0.37 0.06 0 0.375 0.06 0 0.38 0.06 0 0.385 0.06 0 0.39 0.06 0 0.395 0.06 0 0.4 0.06 0 0.405 0.06 0 0.41 0.06 0 0.415 0.06 0 0.42 0.06 0 0.425 0.06 0 0.43 0.06 0 0.435 0.06 0 0.44 0.06 0 0.445 0.06 0 0.45 0.06 0 0.455 0.06 0 0.46 0.06 0 0.465 0.06 0 0.47 0.06 0 0.475 0.06 0 0.48 0.06 0 0.485 0.06 0 0.49 0.06 0 0.495 0.06 0 0.5 0.06 0 0.505 0.06 0 0.51 0.06 0 0.515 0.06 0 0.52 0.06 0 0.525 0.06 0 0.53 0.06 0 0.535 0.06 0 0.54 0.06 0 0.545 0.06 0 0.55 0.06 0 0.555 0.06 0 0.56 0.06 0 0.565 0.06 0 0.57 0.06 0 0.575 0.06 0 0.58 0.06 0 0.585 0.06 0 0.59 0.06 0 0.595 0.06 0 0.6 0.06 0 0.605 0.06 0 0.61 0.06 0 0.615 0.06 0 0.62 0.06 0 0.625 0.06 0 0.63 0.06 0 0.635 0.06 0 0.64 0.06 0 0.645 0.06 0 0.65 0.06 0 0.655 0.06 0 0.66 0.06 0 0.665 0.06 0 0.67 0.06 0 0.675 0.06 0 0.68 0.06 0 0.685 0.06 0 0.69 0.06 0 0.695 0.06 0 0.7 0.06 0 0.705 0.06 0 0.71 0.06 0 0.715 0.06 0 0.72 0.06 0 0.725 0.06 0 0.73 0.06 0 0.735 0.06 0 0.74 0.06 0 0.745 0.06 0 0.75 0.06 0 0.755 0.06 0 0.76 0.06 0 0.765 0.06 0 0.77 0.06 0 0.775 0.06 0 0.78 0.06 0 0.785 0.06 0 0.79 0.06 0 0.795 0.06 0 0.8 0.06 0 0.805 0.06 0 0.81 0.06 0 0.815 0.06 0 0.82 0.06 0 0.825 0.06 0 0.83 0.06 0 0.835 0.06 0 0.84 0.06 0 0.845 0.06 0 0.85 0.06 0 0.855 0.06 0 0.86 0.06 0 0.865 0.06 0 0.87 0.06 0 0.875 0.06 0 0.88 0.06 0 0.885 0.06 0 0.89 0.06 0 0.895 0.06 0 0.9 0.06 0 0.905 0.06 0 0.91 0.06 0 0.915 0.06 0 0.92 0.06 0 0.925 0.06 0 0.93 0.06 0 0.935 0.06 0 0.94 0.06 0 0.945 0.06 0 0.95 0.06 0 0.955 0.06 0 0.96 0.06 0 0.965 0.06 0 0.97 0.06 0 0.975 0.06 0 0.98 0.06 0 0.985 0.06 0 0.99 0.06 0 0.995 0.06 0 1 0.06 0 0 0.08 0 0.005 0.08 0 0.01 0.08 0 0.015 0.08 0 0.02 0.08 0 0.025 0.08 0 0.03 0.08 0 0.035 0.08 0 0.04 0.08 0 0.045 0.08 0 0.05 0.08 0 0.055 0.08 0 0.06 0.08 0 0.065 0.08 0 0.07 0.08 0 0.075 0.08 0 0.08 0.08 0 0.085 0.08 0 0.09 0.08 0 0.095 0.08 0 0.1 0.08 0 0.105 0.08 0 0.11 0.08 0 0.115 0.08 0 0.12 0.08 0 0.125 0.08 0 0.13 0.08 0 0.135 0.08 0 0.14 0.08 0 0.145 0.08 0 0.15 0.08 0 0.155 0.08 0 0.16 0.08 0 0.165 0.08 0
[...]
			<PointData Scalars="VitesseX">
				<DataArray Name="VitesseX" type="Float32" format="ascii">
 0 -9.89093e-15 -1.10334e-14 -2.33578e-14 -2.18092e-14 -3.01214e-14 -4.35089e-14 -5.52508e-14 -2.27599e-14 -4.67183e-14 -7.41019e-14 -7.56712e-14 -8.37084e-14 -2.56758e-14 -2.26771e-14 -3.0452e-14 -2.98653e-14 -2.00651e-15 2.78647e-14 -2.37187e-14 -4.43577e-14 -1.54827e-14 -8.86831e-14 3.0184e-14 -4.15187e-14 -9.57268e-14 -1.66963e-13 2.01621e-14 -2.33835e-14 -8.1846e-14 1.82273e-13 -1.08242e-13 5.23325e-14 -1.4572e-14 1.58163e-13 4.39508e-13 1.82298e-12 1.06873e-11 5.97091e-11 3.21325e-10 1.64434e-09 8.00254e-09 3.69573e-08 1.61557e-07 6.66816e-07 2.59104e-06 9.44667e-06 3.21916e-05 0.000102071 0.000299539 0.000808615 0.00199451 0.00446514 0.00902555 0.0164451 0.0271145 0.040857 0.0570704 0.0750448 0.0941909 0.114102 0.134527 0.155309 0.176333 0.197529 0.218855 0.240286 0.261803 0.283394 0.305053 0.326775 0.348559 0.370406 0.39232 0.414306 0.436351 0.458263 0.480047 0.501722 0.523277 0.544712 0.566087 0.587297 0.608497 0.629464 0.650388 0.671084 0.691711 0.712246 0.732581 0.752936 0.773015 0.792913 0.812656 0.831685 0.850379 0.867965 0.883938 0.89843 0.910039 0.918926 0.925415 0.928979 0.930895 0.931765 0.93184 0.931789 0.931677 0.931498 0.931249 0.930941 0.930596 0.930239 0.929907 0.92961 0.929348 0.929121 0.928927 0.928764 0.928628 0.928514 0.928419 0.928348 0.928277 0.928207 0.92815 0.928103 0.928063 0.928028 0.927997 0.927968 0.927942 0.927918 0.927897 0.927877 0.927859 0.927842 0.927828 0.927813 0.9278 0.927787 0.927774 0.927763 0.927751 0.92774 0.927729 0.927719 0.927709 0.927699 0.927691 0.927683 0.927674 0.927662 0.927644 0.927613 0.927551 0.927421 0.927152 0.926598 0.925475 0.923224 0.918778 0.910164 0.89394 0.86468 0.815141 0.73809 0.630374 0.498289 0.358209 0.230465 0.130455 0.0645416 0.0284176 0.0115744 0.00452544 0.00173714 0.000661566 0.000251034 9.50603e-05 3.59413e-05 1.3569e-05 5.11467e-06 1.92453e-06 7.22721e-07 2.70801e-07 1.01215e-07 3.77257e-08 1.40181e-08 5.19119e-09 1.91518e-09 7.03601e-10 2.57598e-10 9.34422e-11 3.36442e-11 1.19468e-11 4.36327e-12 1.17345e-12 1.04091e-12 -7.34971e-13 0 0 -5.57119e-15 -1.69145e-14 -1.68941e-14 -2.36122e-14 -3.66431e-14 -4.08446e-14 -4.23181e-14 -7.48438e-14 -4.04172e-14 -5.1197e-14 -5.97589e-14 -2.01101e-14 -8.16557e-14 -4.06086e-14 -5.31192e-15 6.64364e-15 -3.89365e-15 -2.72953e-14 -3.62855e-14 -3.11547e-14 -3.58537e-14 2.0252e-14 -1.06039e-13 -1.94404e-14 -1.87957e-14 -4.15737e-14 -7.59725e-14 -1.17228e-13 1.04642e-13 -1.23805e-13 8.78521e-14 -5.60652e-14 8.26189e-14 1.25419e-13 3.33948e-13 1.94783e-12 1.05972e-11 5.9778e-11 3.21268e-10 1.64425e-09 8.00278e-09 3.69571e-08 1.61557e-07 6.66816e-07 2.59104e-06 9.44667e-06 3.21916e-05 0.000102071 0.000299539 0.000808615 0.00199451 0.00446514 0.00902555 0.0164451 0.0271145 0.040857 0.0570704 0.0750448 0.0941909 0.114102 0.134527 0.155309 0.176333 0.197529 0.218855 0.240286 0.261803 0.283394 0.305053 0.326775 0.348559 0.370406 0.39232 0.414306 0.436351 0.458263 0.480047 0.501722 0.523277 0.544712 0.566087 0.587297 0.608497 0.629464 0.650388 0.671084 0.691711 0.712246 0.732581 0.752936 0.773015 0.792913 0.812656 0.831685 0.850379 0.867965 0.883938 0.89843 0.910039 0.918926 0.925415 0.928979 0.930895 0.931765 0.93184 0.931789 0.931677 0.931498 0.931249 0.930941 0.930596 0.930239 0.929907 0.92961 0.929348 0.929121 0.928927 0.928764 0.928628 0.928514 0.928419 0.928348 0.928277 0.928207 0.92815 0.928103 0.928063 0.928028 0.927997 0.927968 0.927942 0.927918 0.927897 0.927877 0.927859 0.927842 0.927828 0.927813 0.9278 0.927787 0.927774 0.927763 0.927751 0.92774 0.927729 0.927719 0.927709 0.927699 0.927691 0.927683 0.927674 0.927662 0.927644 0.927613 0.927551 0.927421 0.927152 0.926598 0.925475 0.923224 0.918778 0.910164 0.89394 0.86468 0.815141 0.73809 0.630374 0.498289 0.358209 0.230465 0.130455 0.0645416 0.0284176 0.0115744 0.00452544 0.00173714 0.000661566 0.000251034 9.50603e-05 3.59413e-05 1.3569e-05 5.11467e-06 1.92453e-06 7.22721e-07 2.70801e-07 1.01215e-07 3.77255e-08 1.40182e-08 5.19109e-09 1.9151e-09 7.03482e-10 2.57205e-10 9.36651e-11 3.39415e-11 1.19332e-11 3.90553e-12 1.42492e-12 -3.03728e-13 3.56542e-13 0 0 -1.20825e-14 -1.6979e-14 -2.57523e-14 -2.22039e-14 -2.82984e-14 -3.8759e-14 -6.89479e-14 -3.01211e-14 -5.47357e-14 -4.24367e-14 -3.99643e-14 -4.17215e-14 -2.83976e-15 -3.92863e-14 3.03555e-14 -3.19494e-14 -6.85479e-14 3.06783e-14 -5.61901e-14 -2.88578e-14 -2.59545e-14 -9.04546e-14 -3.54579e-14 -1.37036e-14 -9.00575e-14 -5.65879e-14 -5.61963e-14 5.4495e-14 -6.10935e-14 6.17307e-14 -1.15344e-13 6.93039e-14 1.45563e-14 4.41626e-14 4.52754e-13 1.87392e-12 1.07166e-11 5.98524e-11 3.21163e-10 1.6442e-09 8.00292e-09 3.69571e-08 1.61557e-07 6.66816e-07 2.59104e-06 9.44667e-06 3.21916e-05 0.000102071 0.000299539 0.000808615 0.00199451 0.00446514 0.00902555 0.0164451 0.0271145 0.040857 0.0570704 0.0750448 0.0941909 0.114102 0.134527 0.155309 0.176333 0.197529 0.218855 0.240286 0.261803 0.283394 0.305053 0.326775 0.348559 0.370406 0.39232 0.414306 0.436351 0.458263 0.480047 0.501722 0.523277 0.544712 0.566087 0.587297 0.608497 0.629464 0.650388 0.671084 0.691711 0.712246 0.732581 0.752936 0.773015 0.792913 0.812656 0.831685 0.850379 0.867965 0.883938 0.89843 0.910039 0.918926 0.925415 0.928979 0.930895 0.931765 0.93184 0.931789 0.931677 0.931498 0.931249 0.930941 0.930596 0.930239 0.929907 0.92961 0.929348 0.929121 0.928927 0.928764 0.928628 0.928514 0.928419 0.928348 0.928277 0.928207 0.92815 0.928103 0.928063 0.928028 0.927997 0.927968 0.927942 0.927918 0.927897 0.927877 0.927859 0.927842 0.927828 0.927813 0.9278 0.927787 0.927774 0.927763 0.927751 0.92774 0.927729 0.927719 0.927709 0.927699 0.927691 0.927683 0.927674 0.927662 0.927644 0.927613 0.927551 0.927421 0.927152 0.926598 0.925475 0.923224 0.918778 0.910164 0.89394 0.86468 0.815141 0.73809 0.630374 0.498289 0.358209 0.230465 0.130455 0.0645416 0.0284176 0.0115744 0.00452544 0.00173714 0.000661566 0.000251034 9.50603e-05 3.59413e-05 1.3569e-05 5.11467e-06 1.92453e-06 7.22721e-07 2.70801e-07 1.01215e-07 3.77255e-08 1.40181e-08 5.19086e-09 1.91522e-09 7.03403e-10 2.57298e-10 9.33173e-11 3.38618e-11 1.21186e-11 3.78048e-12 1.17534e-12 -1.25226e-13 1.75401e-13 0 0 -1.31388e-14 -1.95858e-14 -2.16345e-14 -2.95055e-14 -3.89006e-14 -3.76289e-14 -2.70857e-14 -4.46587e-14 -1.21286e-14 -7.71976e-14 -1.47942e-14 -2.38976e-14 -1.03566e-14 -1.74088e-14 -2.92505e-14 -2.42449e-14 5.16481e-15 -3.18905e-14 3.14932e-14 -9.5651e-14 -9.00316e-14 -4.94136e-14 -1.15291e-14 -1.27996e-13 -7.59258e-14 -1.40274e-13 -4.22388e-15 6.38292e-15 6.01208e-14 6.90142e-14 1.05889e-14 -4.05564e-14 5.17302e-14 1.74068e-13 3.61948e-13 1.88607e-12 1.07667e-11 5.97852e-11 3.21126e-10 1.64436e-09 8.00279e-09 3.69572e-08 1.61557e-07 6.66816e-07 2.59104e-06 9.44667e-06 3.21916e-05 0.000102071 0.000299539 0.000808615 0.00199451 0.00446514 0.00902555 0.0164451 0.0271145 0.040857 0.0570704 0.0750448 0.0941909 0.114102 0.134527 0.155309 0.176333 0.197529 0.218855 0.240286 0.261803 0.283394 0.305053 0.326775 0.348559 0.370406 0.39232 0.414306 0.436351 0.458263 0.480047 0.501722 0.523277 0.544712 0.566087 0.587297 0.608497 0.629464 0.650388 0.671084 0.691711 0.712246 0.732581 0.752936 0.773015 0.792913 0.812656 0.831685 0.850379 0.867965 0.883938 0.89843 0.910039 0.918926 0.925415 0.928979 0.930895 0.931765 0.93184 0.931789 0.931677 0.931498 0.931249 0.930941 0.930596 0.930239 0.929907 0.92961 0.929348 0.929121 0.928927 0.928764 0.928628 0.928514 0.928419 0.928348 0.928277 0.928207 0.92815 0.928103 0.928063 0.928028 0.927997 0.927968 0.927942 0.927918 0.927897 0.927877 0.927859 0.927842 0.927828 0.927813 0.9278 0.927787 0.927774 0.927763 0.927751 0.92774 0.927729 0.927719 0.927709 0.927699 0.927691 0.927683 0.927674 0.927662 0.927644 0.927613 0.927551 0.927421 0.927152 0.926598 0.925475 0.923224 0.918778 0.910164 0.89394 0.86468 0.815141 0.73809 0.630374 0.498289 0.358209 0.230465 0.130455 0.0645416 0.0284176 0.0115744 0.00452544 0.00173714 0.000661566 0.000251034 9.50603e-05 3.59413e-05 1.3569e-05 5.11467e-06 1.92453e-06 7.22721e-07 2.70801e-07 1.01216e-07 3.77257e-08 1.40178e-08 5.19087e-09 1.91548e-09 7.03334e-10 2.57212e-10 9.34059e-11 3.32188e-11 1.17733e-11 4.60974e-12 9.16353e-13 2.26279e-13 1.28539e-13 0 0 -5.52554e-15 -2.29341e-14 -1.75515e-14 -3.89882e-14 -4.94443e-14 -2.9881e-14 -2.00715e-14 -4.62752e-14 -1.29805e-14 -4.75929e-14 -2.98382e-14 1.37594e-14 -5.78848e-14 -2.02465e-14 -3.81717e-14 2.74414e-14 2.94052e-14 -5.87294e-14 -1.61628e-14 -9.25743e-14 -8.64245e-14 3.43764e-14 -1.39154e-13 -1.05888e-13 -4.98134e-15 -6.01703e-14 -5.72236e-14 -1.73145e-13 1.81671e-13 -1.08269e-13 2.05898e-13 -1.02655e-13 1.82191e-13 2.32377e-13 3.01637e-13 1.90698e-12 1.06975e-11 5.98306e-11 3.21194e-10 1.64434e-09 8.00283e-09 3.69572e-08 1.61557e-07 6.66816e-07 2.59104e-06 9.44667e-06 3.21916e-05 0.000102071 0.000299539 0.000808615 0.00199451 0.00446514 0.00902555 0.0164451 0.0271145 0.040857 0.0570704 0.0750448 0.0941909 0.114102 0.134527 0.155309 0.176333 0.197529 0.218855 0.240286 0.261803 0.283394 0.305053 0.326775 0.348559 0.370406 0.39232 0.414306 0.436351 0.458263 0.480047 0.501722 0.523277 0.544712 0.566087 0.587297 0.608497 0.629464 0.650388 0.671084 0.691711 0.712246 0.732581 0.752936 0.773015 0.792913 0.812656 0.831685 0.850379 0.867965 0.883938 0.89843 0.910039 0.918926 0.925415 0.928979 0.930895 0.931765 0.93184 0.931789 0.931677 0.931498 0.931249 0.930941 0.930596 0.930239 0.929907 0.92961 0.929348 0.929121 0.928927 0.928764 0.928628 0.928514 0.928419 0.928348 0.928277 0.928207 0.92815 0.928103 0.928063 0.928028 0.927997 0.927968 0.927942 0.927918 0.927897 0.927877 0.927859 0.927842 0.927828 0.927813 0.9278 0.927787 0.927774 0.927763 0.927751 0.92774 0.927729 0.927719 0.927709 0.927699 0.927691 0.927683 0.927674 0.927662 0.927644 0.927613 0.927551 0.927421 0.927152 0.926598 0.925475 0.923224 0.918778 0.910164 0.89394 0.86468 0.815141 0.73809 0.630374 0.498289 0.358209 0.230465 0.130455 0.0645416 0.0284176 0.0115744 0.00452544 0.00173714 0.000661566 0.000251034 9.50603e-05 3.59413e-05 1.3569e-05 5.11467e-06 1.92453e-06 7.22721e-07 2.70801e-07 1.01215e-07 3.77259e-08 1.40183e-08 5.19128e-09 1.91532e-09 7.03294e-10 2.57005e-10 9.35675e-11 3.35642e-11 1.14583e-11 4.32857e-12 9.88888e-13 -1.3696e-13 4.99124e-13 0 0 -7.68705e-15 -1.78592e-14 -3.29082e-14 -3.79581e-14 -3.45194e-14 -2.38417e-14 -9.44821e-14 6.34528e-14 -7.7059e-14 2.62808e-15 -6.61701e-14 -5.16171e-14 3.68997e-14 -2.57079e-14 2.30404e-14 -3.67866e-15 -8.28343e-14 9.01341e-14 -1.5884e-13 -3.36108e-14 1.153e-14 -1.42516e-13 -8.39028e-14 1.41728e-14 -9.63615e-14 -3.67848e-14 -4.62849e-14 -3.89938e-14 -1.70217e-13 1.98778e-13 -1.24014e-13 1.78874e-13 1.10224e-13 1.12266e-13 5.56498e-13 1.71699e-12 1.07876e-11 5.99487e-11 3.21251e-10 1.6442e-09 8.00289e-09 3.69572e-08 1.61557e-07 6.66816e-07 2.59104e-06 9.44667e-06 3.21916e-05 0.000102071 0.000299539 0.000808615 0.00199451 0.00446514 0.00902555 0.0164451 0.0271145 0.040857 0.0570704 0.0750448 0.0941909 0.114102 0.134527 0.155309 0.176333 0.197529 0.218855 0.240286 0.261803 0.283394 0.305053 0.326775 0.348559 0.370406 0.39232 0.414306 0.436351 0.458263 0.480047 0.501722 0.523277 0.544712 0.566087 0.587297 0.608497 0.629464 0.650388 0.671084 0.691711 0.712246 0.732581 0.752936 0.773015 0.792913 0.812656 0.831685 0.850379 0.867965 0.883938 0.89843 0.910039 0.918926 0.925415 0.928979 0.930895 0.931765 0.93184 0.931789 0.931677 0.931498 0.931249 0.930941 0.930596 0.930239 0.929907 0.92961 0.929348 0.929121 0.928927 0.928764 0.928628 0.928514 0.928419 0.928348 0.928277 0.928207 0.92815 0.928103 0.928063 0.928028 0.927997 0.927968 0.927942 0.927918 0.927897 0.927877 0.927859 0.927842 0.927828 0.927813 0.9278 0.927787 0.927774 0.927763 0.927751 0.92774 0.927729 0.927719 0.927709 0.927699 0.927691 0.927683 0.927674 0.927662 0.927644 0.927613 0.927551 0.927421 0.927152 0.926598 0.925475 0.923224 0.918778 0.910164 0.89394 0.86468 0.815141 0.73809 0.630374 0.498289 0.358209 0.230465 0.130455 0.0645416 0.0284176 0.0115744 0.00452544 0.00173714 0.000661566 0.000251034 9.50603e-05 3.59413e-05 1.3569e-05 5.11467e-06 1.92453e-06 7.22721e-07 2.70802e-07 1.01215e-07 3.77261e-08 1.40187e-08 5.19153e-09 1.91509e-09 7.03364e-10 2.57371e-10 9.30696e-11 3.41754e-11 1.16876e-11 3.55084e-12 8.1938e-13 6.71432e-13 -3.56083e-13 0
				</DataArray>
				<DataArray Name="VitesseY" type="Float32" format="ascii">