<?xml version="1.0"?>
<VTKFile type="PolyData">
	<PolyData>
		<Piece NumberOfPoints="1206" NumberOfPolys="1000">
			<Points>
				<DataArray type="Float32" NumberOfComponents="3" format="ascii">
 0 0 0 0.005 0 0 0.01 0 0 0.015 0 0 0.02 0 0 0.025 0 0 0.03 0 0 0.035 0 0 0.04 0 0 0.045 0 0 0.05 0 0 0.055 0 0 0.06 0 0 0.065 0 0 0.07 0 0 0.075 0 0 0.08 0 0 0.085 0 0 0.09 0 0 0.095 0 0 0.1 0 0 0.105 0 0 0.11 0 0 0.115 0 0 0.12 0 0 0.125 0 0 0.13 0 0 0.135 0 0 0.14 0 0 0.145 0 0 0.15 0 0 0.155 0 0 0.16 0 0 0.165 0 0 0.17 0 0 0.175 0 0 0.18 0 0 0.185 0 0 0.19 0 0 0.195 0 0 0.2 0 0 0.205 0 0 0.21 0 0 0.215 0 0 0.22 0 0 0.225 0 0 0.23 0 0 0.235 0 0 0.24 0 0 0.245 0 0 0.25 0 0 0.255 0 0 0.26 0 0 0.265 0 0 0.27 0 0 0.275 0 0 0.28 0 0 0.285 0 0 0.29 0 0 0.295 0 0 0.3 0 0 0.305 0 0 0.31 0 0 0.315 0 0 0.32 0 0 0.325 0 0 0.33 0 0 0.335 0 0 0.34 0 0 0.345 0 0 0.35 0 0 0.355 0 0 0.36 0 0 0.365 0 0 0.37 0 0 0.375 0 0 0.38 0 0 0.385 0 0 0.39 0 0 0.395 0 0 0.4 0 0 0.405 0 0 0.41 0 0 0.415 0 0 0.42 0 0 0.425 0 0 0.43 0 0 0.435 0 0 0.44 0 0 0.445 0 0 0.45 0 0 0.455 0 0 0.46 0 0 0.465 0 0 0.47 0 0 0.475 0 0 0.48 0 0 0.485 0 0 0.49 0 0 0.495 0 0 0.5 0 0 0.505 0 0 0.51 0 0 0.515 0 0 0.52 0 0 0.525 0 0 0.53 0 0 0.535 0 0 0.54 0 0 0.545 0 0 0.55 0 0 0.555 0 0 0.56 0 0 0.565 0 0 0.57 0 0 0.575 0 0 0.58 0 0 0.585 0 0 0.59 0 0 0.595 0 0 0.6 0 0 0.605 0 0 0.61 0 0 0.615 0 0 0.62 0 0 0.625 0 0 0.63 0 0 0.635 0 0 0.64 0 0 0.645 0 0 0.65 0 0 0.655 0 0 0.66 0 0 0.665 0 0 0.67 0 0 0.675 0 0 0.68 0 0 0.685 0 0 0.69 0 0 0.695 0 0 0.7 0 0 0.705 0 0 0.71 0 0 0.715 0 0 0.72 0 0 0.725 0 0 0.73 0 0 0.735 0 0 0.74 0 0 0.745 0 0 0.75 0 0 0.755 0 0 0.76 0 0 0.765 0 0 0.77 0 0 0.775 0 0 0.78 0 0 0.785 0 0 0.79 0 0 0.795 0 0 0.8 0 0 0.805 0 0 0.81 0 0 0.815 0 0 0.82 0 0 0.825 0 0 0.83 0 0 0.835 0 0 0.84 0 0 0.845 0 0 0.85 0 0 0.855 0 0 0.86 0 0 0.865 0 0 0.87 0 0 0.875 0 0 0.88 0 0 0.885 0 0 0.89 0 0 0.895 0 0 0.9 0 0 0.905 0 0 0.91 0 0 0.915 0 0 0.92 0 0 0.925 0 0 0.93 0 0 0.935 0 0 0.94 0 0 0.945 0 0 0.95 0 0 0.955 0 0 0.96 0 0 0.965 0 0 0.97 0 0 0.975 0 0 0.98 0 0 0.985 0 0 0.99 0 0 0.995 0 0 1 0 0 0 0.02 0 0.005 0.02 0 0.01 0.02 0 0.015 0.02 0 0.02 0.02 0 0.025 0.02 0 0.03 0.02 0 0.035 0.02 0 0.04 0.02 0 0.045 0.02 0 0.05 0.02 0 0.055 0.02 0 0.06 0.02 0 0.065 0.02 0 0.07 0.02 0 0.075 0.02 0 0.08 0.02 0 0.085 0.02 0 0.09 0.02 0 0.095 0.02 0 0.1 0.02 0 0.105 0.02 0 0.11 0.02 0 0.115 0.02 0 0.12 0.02 0 0.125 0.02 0 0.13 0.02 0 0.135 0.02 0 0.14 0.02 0 0.145 0.02 0 0.15 0.02 0 0.155 0.02 0 0.16 0.02 0 0.165 0.02 0 0.17 0.02 0 0.175 0.02 0 0.18 0.02 0 0.185 0.02 0 0.19 0.02 0 0.195 0.02 0 0.2 0.02 0 0.205 0.02 0 0.21 0.02 0 0.215 0.02 0 0.22 0.02 0 0.225 0.02 0 0.23 0.02 0 0.235 0.02 0 0.24 0.02 0 0.245 0.02 0 0.25 0.02 0 0.255 0.02 0 0.26 0.02 0 0.265 0.02 0 0.27 0.02 0 0.275 0.02 0 0.28 0.02 0 0.285 0.02 0 0.29 0.02 0 0.295 0.02 0 0.3 0.02 0 0.305 0.02 0 0.31 0.02 0 0.315 0.02 0 0.32 0.02 0 0.325 0.02 0 0.33 0.02 0 0.335 0.02 0 0.34 0.02 0 0.345 0.02 0 0.35 0.02 0 0.355 0.02 0 0.36 0.02 0 0.365 0.02 0 0.37 0.02 0 0.375 0.02 0 0.38 0.02 0 0.385 0.02 0 0.39 0.02 0 0.395 0.02 0 0.4 0.02 0 0.405 0.02 0 0.41 0.02 0 0.415 0.02 0 0.42 0.02 0 0.425 0.02 0 0.43 0.02 0 0.435 0.02 0 0.44 0.02 0 0.445 0.02 0 0.45 0.02 0 0.455 0.02 0 0.46 0.02 0 0.465 0.02 0 0.47 0.02 0 0.475 0.02 0 0.48 0.02 0 0.485 0.02 0 0.49 0.02 0 0.495 0.02 0 0.5 0.02 0 0.505 0.02 0 0.51 0.02 0 0.515 0.02 0 0.52 0.02 0 0.525 0.02 0 0.53 0.02 0 0.535 0.02 0 0.54 0.02 0 0.545 0.02 0 0.55 0.02 0 0.555 0.02 0 0.56 0.02 0 0.565 0.02 0 0.57 0.02 0 0.575 0.02 0 0.58 0.02 0 0.585 0.02 0 0.59 0.02 0 0.595 0.02 0 0.6 0.02 0 0.605 0.02 0 0.61 0.02 0 0.615 0.02 0 0.62 0.02 0 0.625 0.02 0 0.63 0.02 0 0.635 0.02 0 0.64 0.02 0 0.645 0.02 0 0.65 0.02 0 0.655 0.02 0 0.66 0.02 0 0.665 0.02 0 0.67 0.02 0 0.675 0.02 0 0.68 0.02 0 0.685 0.02 0 0.69 0.02 0 0.695 0.02 0 0.7 0.02 0 0.705 0.02 0 0.71 0.02 0 0.715 0.02 0 0.72 0.02 0 0.725 0.02 0 0.73 0.02 0 0.735 0.02 0 0.74 0.02 0 0.745 0.02 0 0.75 0.02 0 0.755 0.02 0 0.76 0.02 0 0.765 0.02 0 0.77 0.02 0 0.775 0.02 0 0.78 0.02 0 0.785 0.02 0 0.79 0.02 0 0.795 0.02 0 0.8 0.02 0 0.805 0.02 0 0.81 0.02 0 0.815 0.02 0 0.82 0.02 0 0.825 0.02 0 0.83 0.02 0 0.835 0.02 0 0.84 0.02 0 0.845 0.02 0 0.85 0.02 0 0.855 0.02 0 0.86 0.02 0 0.865 0.02 0 0.87 0.02 0 0.875 0.02 0 0.88 0.02 0 0.885 0.02 0 0.89 0.02 0 0.895 0.02 0 0.9 0.02 0 0.905 0.02 0 0.91 0.02 0 0.915 0.02 0 0.92 0.02 0 0.925 0.02 0 0.93 0.02 0 0.935 0.02 0 0.94 0.02 0 0.945 0.02 0 0.95 0.02 0 0.955 0.02 0 0.96 0.02 0 0.965 0.02 0 0.97 0.02 0 0.975 0.02 0 0.98 0.02 0 0.985 0.02 0 0.99 0.02 0 0.995 0.02 0 1 0.02 0 0 0.04 0 0.005 0.04 0 0.01 0.04 0 0.015 0.04 0 0.02 0.04 0 0.025 0.04 0 0.03 0.04 0 0.035 0.04 0 0.04 0.04 0 0.045 0.04 0 0.05 0.04 0 0.055 0.04 0 0.06 0.04 0 0.065 0.04 0 0.07 0.04 0 0.075 0.04 0 0.08 0.04 0 0.085 0.04 0 0.09 0.04 0 0.095 0.04 0 0.1 0.04 0 0.105 0.04 0 0.11 0.04 0 0.115 0.04 0 0.12 0.04 0 0.125 0.04 0 0.13 0.04 0 0.135 0.04 0 0.14 0.04 0 0.145 0.04 0 0.15 0.04 0 0.155 0.04 0 0.16 0.04 0 0.165 0.04 0 0.17 0.04 0 0.175 0.04 0 0.18 0.04 0 0.185 0.04 0 0.19 0.04 0 0.195 0.04 0 0.2 0.04 0 0.205 0.04 0 0.21 0.04 0 0.215 0.04 0 0.22 0.04 0 0.225 0.04 0 0.23 0.04 0 0.235 0.04 0 0.24 0.04 0 0.245 0.04 0 0.25 0.04 0 0.255 0.04 0 0.26 0.04 0 0.265 0.04 0 0.27 0.04 0 0.275 0.04 0 0.28 0.04 0 0.285 0.04 0 0.29 0.04 0 0.295 0.04 0 0.3 0.04 0 0.305 0.04 0 0.31 0.04 0 0.315 0.04 0 0.32 0.04 0 0.325 0.04 0 0.33 0.04 0 0.335 0.04 0 0.34 0.04 0 0.345 0.04 0 0.35 0.04 0 0.355 0.04 0 0.36 0.04 0 0.365 0.04 0 0.37 0.04 0 0.375 0.04 0 0.38 0.04 0 0.385 0.04 0 0.39 0.04 0 0.395 0.04 0 0.4 0.04 0 0.405 0.04 0 0.41 0.04 0 0.415 0.04 0 0.42 0.04 0 0.425 0.04 0 0.43 0.04 0 0.435 0.04 0 0.44 0.04 0 0.445 0.04 0 0.45 0.04 0 0.455 0.04 0 0.46 0.04 0 0.465 0.04 0 0.47 0.04 0 0.475 0.04 0 0.48 0.04 0 0.485 0.04 0 0.49 0.04 0 0.495 0.04 0 0.5 0.04 0 0.505 0.04 0 0.51 0.04 0 0.515 0.04 0 0.52 0.04 0 0.525 0.04 0 0.53 0.04 0 0.535 0.04 0 0.54 0.04 0 0.545 0.04 0 0.55 0.04 0 0.555 0.04 0 0.56 0.04 0 0.565 0.04 0 0.57 0.04 0 0.575 0.04 0 0.58 0.04 0 0.585 0.04 0 0.59 0.04 0 0.595 0.04 0 0.6 0.04 0 0.605 0.04 0 0.61 0.04 0 0.615 0.04 0 0.62 0.04 0 0.625 0.04 0 0.63 0.04 0 0.635 0.04 0 0.64 0.04 0 0.645 0.04 0 0.65 0.04 0 0.655 0.04 0 0.66 0.04 0 0.665 0.04 0 0.67 0.04 0 0.675 0.04 0 0.68 0.04 0 0.685 0.04 0 0.69 0.04 0 0.695 0.04 0 0.7 0.04 0 0.705 0.04 0 0.71 0.04 0 0.715 0.04 0 0.72 0.04 0 0.725 0.04 0 0.73 0.04 0 0.735 0.04 0 0.74 0.04 0 0.745 0.04 0 0.75 0.04 0 0.755 0.04 0 0.76 0.04 0 0.765 0.04 0 0.77 0.04 0 0.775 0.04 0 0.78 0.04 0 0.785 0.04 0 0.79 0.04 0 0.795 0.04 0 0.8 0.04 0 0.805 0.04 0 0.81 0.04 0 0.815 0.04 0 0.82 0.04 0 0.825 0.04 0 0.83 0.04 0 0.835 0.04 0 0.84 0.04 0 0.845 0.04 0 0.85 0.04 0 0.855 0.04 0 0.86 0.04 0 0.865 0.04 0 0.87 0.04 0 0.875 0.04 0 0.88 0.04 0 0.885 0.04 0 0.89 0.04 0 0.895 0.04 0 0.9 0.04 0 0.905 0.04 0 0.91 0.04 0 0.915 0.04 0 0.92 0.04 0 0.925 0.04 0 0.93 0.04 0 0.935 0.04 0 0.94 0.04 0 0.945 0.04 0 0.95 0.04 0 0.955 0.04 0 0.96 0.04 0 0.965 0.04 0 0.97 0.04 0 0.975 0.04 0 0.98 0.04 0 0.985 0.04 0 0.99 0.04 0 0.995 0.04 0 1 0.04 0 0 0.06 0 0.005 0.06 0 0.01 0.06 0 0.015 0.06 0 0.02 0.06 0 0.025 0.06 0 0.03 0.06 0 0.035 0.06 0 0.04 0.06 0 0.045 0.06 0 0.05 0.06 0 0.055 0.06 0 0.06 0.06 0 0.065 0.06 0 0.07 0.06 0 0.075 0.06 0 0.08 0.06 0 0.085 0.06 0 0.09 0.06 0 0.095 0.06 0 0.1 0.06 0 0.105 0.06 0 0.11 0.06 0 0.115 0.06 0 0.12 0.06 0 0.125 0.06 0 0.13 0.06 0 0.135 0.06 0 0.14 0.06 0 0.145 0.06 0 0.15 0.06 0 0.155 0.06 0 0.16 0.06 0 0.165 0.06 0 0.17 0.06 0 0.175 0.06 0 0.18 0.06 0 0.185 0.06 0 0.19 0.06 0 0.195 0.06 0 0.2 0.06 0 0.205 0.06 0 0.21 0.06 0 0.215 0.06 0 0.22 0.06 0 0.225 0.06 0 0.23 0.06 0 0.235 0.06 0 0.24 0.06 0 0.245 0.06 0 0.25 0.06 0 0.255 0.06 0 0.26 0.06 0 0.265 0.06 0 0.27 0.06 0 0.275 0.06 0 0.28 0.06 0 0.285 0.06 0 0.29 0.06 0 0.295 0.06 0 0.3 0.06 0 0.305 0.06 0 0.31 0.06 0 0.315 0.06 0 0.32 0.06 0 0.325 0.06 0 0.33 0.06 0 0.335 0.06 0 0.34 0.06 0 0.345 0.06 0 0.35 0.06 0 0.355 0.06 0 0.36 0.06 0 0.365 0.06 0 0.37 0.06 0 0.375 0.06 0 0.38 0.06 0 0.385 0.06 0 0.39 0.06 0 0.395 0.06 0 0.4 0.06 0 0.405 0.06 0 0.41 0.06 0 0.415 0.06 0 0.42 0.06 0 0.425 0.06 0 0.43 0.06 0 0.435 0.06 0 0.44 0.06 0 0.445 0.06 0 0.45 0.06 0 0.455 0.06 0 0.46 0.06 0 0.465 0.06 0 0.47 0.06 0 0.475 0.06 0 0.48 0.06 0 0.485 0.06 0 0.49 0.06 0 0.495 0.06 0 0.5 0.06 0 0.505 0.06 0 0.51 0.06 0 0.515 0.06 0 0.52 0.06 0 0.525 0.06 0 0.53 0.06 0 0.535 0.06 0 0.54 0.06 0 0.545 0.06 0 0.55 0.06 0 0.555 0.06 0 0.56 0.06 0 0.565 0.06 0 0.57 0.06 0 0.575 0.06 0 0.58 0.06 0 0.585 0.06 0 0.59 0.06 0 0.595 0.06 0 0.6 0.06 0 0.605 0.06 0 0.61 0.06 0 0.615 0.06 0 0.62 0.06 0 0.625 0.06 0 0.63 0.06 0 0.635 0.06 0 0.64 0.06 0 0.645 0.06 0 0.65 0.06 0 0.655 0.06 0 0.66 0.06 0 0.665 0.06 0 0.67 0.06 0 0.675 0.06 0 0.68 0.06 0 0.685 0.06 0 0.69 0.06 0 0.695 0.06 0 0.7 0.06 0 0.705 0.06 0 0.71 0.06 0 0.715 0.06 0 0.72 0.06 0 0.725 0.06 0 0.73 0.06 0 0.735 0.06 0 0.74 0.06 0 0.745 0.06 0 0.75 0.06 0 0.755 0.06 0 0.76 0.06 0 0.765 0.06 0 0.77 0.06 0 0.775 0.06 0 0.78 0.06 0 0.785 0.06 0 0.79 0.06 0 0.795 0.06 0 0.8 0.06 0 0.805 0.06 0 0.81 0.06 0 0.815 0.06 0 0.82 0.06 0 0.825 0.06 0 0.83 0.06 0 0.835 0.06 0 0.84 0.06 0 0.845 0.06 0 0.85 0.06 0 0.855 0.06 0 0.86 0.06 0 0.865 0.06 0 0.87 0.06 0 0.875 0.06 0 0.88 0.06 0 0.885 0.06 0 0.89 0.06 0 0.895 0.06 0 0.9 0.06 0 0.905 0.06 0 0.91 0.06 0 0.915 0.06 0 0.92 0.06 0 0.925 0.06 0 0.93 0.06 0 0.935 0.06 0 0.94 0.06 0 0.945 0.06 0 0.95 0.06 0 0.955 0.06 0 0.96 0.06 0 0.965 0.06 0 0.97 0.06 0 0.975 0.06 0 0.98 0.06 0 0.985 0.06 0 0.99 0.06 0 0.995 0.06 0 1 0.06 0 0 0.08 0 0.005 0.08 0 0.01 0.08 0 0.015 0.08 0 0.02 0.08 0 0.025 0.08 0 0.03 0.08 0 0.035 0.08 0 0.04 0.08 0 0.045 0.08 0 0.05 0.08 0 0.055 0.08 0 0.06 0.08 0 0.065 0.08 0 0.07 0.08 0 0.075 0.08 0 0.08 0.08 0 0.085 0.08 0 0.09 0.08 0 0.095 0.08 0 0.1 0.08 0 0.105 0.08 0 0.11 0.08 0 0.115 0.08 0 0.12 0.08 0 0.125 0.08 0 0.13 0.08 0 0.135 0.08 0 0.14 0.08 0 0.145 0.08 0 0.15 0.08 0 0.155 0.08 0 0.16 0.08 0 0.165 0.08 0
[...]
			<PointData Scalars="VitesseX">
				<DataArray Name="VitesseX" type="Float32" format="ascii">
 0 -6.27224e-15 6.23327e-14 -1.91001e-13 9.90684e-14 2.37817e-14 -8.23821e-14 -9.56577e-14 7.63307e-14 -7.07528e-14 -1.45945e-13 3.28528e-13 -6.05466e-13 5.96531e-13 -3.99123e-13 -2.88753e-14 2.88805e-13 -4.18413e-13 3.87789e-13 -3.19039e-13 1.90968e-14 1.06654e-13 1.86709e-13 2.50147e-14 -4.22901e-13 -1.98026e-13 2.78802e-13 -3.28168e-13 9.62911e-14 -3.14622e-13 5.64647e-13 -4.05157e-13 4.09776e-13 -2.98975e-14 -5.79605e-13 4.62653e-13 -6.27403e-13 8.8954e-13 -8.98775e-13 5.83713e-13 -4.56094e-13 4.46163e-13 -8.87069e-15 -5.82896e-13 -1.80389e-13 9.26151e-13 -1.28799e-12 1.3742e-12 -7.35688e-13 1.52288e-13 3.00458e-14 -7.30778e-14 1.60993e-12 -2.46609e-12 7.46121e-13 -3.34431e-13 -1.25877e-12 2.04472e-12 -2.37341e-12 1.12003e-12 8.00838e-13 6.50494e-13 -9.36299e-14 -7.97857e-13 7.87628e-13 5.81171e-14 -1.73172e-13 -4.34256e-13 -1.89964e-12 1.11974e-12 1.16945e-12 -2.35251e-12 1.54819e-12 -8.84397e-13 2.62568e-12 -1.06425e-12 -5.49505e-13 9.62421e-13 -1.38774e-12 1.89681e-12 -2.50062e-12 4.38456e-13 1.12454e-12 -2.13251e-12 4.72832e-13 1.92217e-12 -9.39539e-13 -2.01111e-13 7.85963e-13 -1.43032e-12 2.94908e-12 5.96239e-11 3.8147e-09 1.85992e-07 6.81605e-06 0.000178749 0.00311713 0.0322743 0.172628 0.473017 0.748155 0.909494 0.877666 0.714385 0.48617 0.265627 0.106222 0.0285287 0.00549134 0.000875053 0.000123795 1.58671e-05 1.85678e-06 1.99363e-07 1.97199e-08 1.80279e-09 1.51703e-10 1.12796e-11 3.50936e-12 -1.54363e-12 2.74912e-12 -1.5735e-12 -5.40844e-13 2.22964e-12 -2.57997e-12 2.34806e-12 -1.41087e-12 -7.20186e-13 2.23214e-12 -2.53566e-12 2.35891e-12 -1.25842e-12 -6.45389e-13 2.1239e-12 -2.44008e-12 2.0579e-12 -1.48613e-12 -1.06594e-12 7.5096e-13 -2.32536e-12 1.9226e-12 7.14461e-14 -2.69919e-12 3.45518e-12 1.13369e-12 -1.94541e-12 2.69351e-12 -3.60437e-12 2.80816e-12 2.47592e-13 -1.89715e-12 2.52604e-12 -3.51535e-12 3.2831e-12 -2.44997e-12 2.23658e-12 -2.07956e-12 -2.84464e-13 1.13209e-12 -3.24418e-13 1.0708e-12 -1.57708e-12 1.40164e-13 7.14041e-13 -1.15889e-12 -5.78837e-14 -3.86745e-13 -4.37977e-14 2.14044e-12 -2.13217e-12 2.07742e-12 -1.27272e-13 -2.05063e-12 2.9922e-12 -2.8673e-12 2.11745e-12 -3.15132e-13 -1.66687e-12 2.4793e-12 -2.17059e-12 1.44312e-12 3.40536e-13 -2.35077e-12 2.92071e-12 -2.7517e-12 1.99363e-12 -9.69164e-14 -2.68459e-12 1.8679e-12 -4.1852e-12 1.28365e-12 3.6091e-12 -7.47869e-12 5.10265e-12 4.07631e-13 1.00293e-12 1.98835e-12 -4.75901e-12 4.356e-12 -1.28308e-12 0 0 -1.77685e-15 -4.58669e-14 5.23515e-14 -1.36908e-13 -6.51792e-15 3.31957e-14 2.30332e-14 -1.26543e-13 -1.34901e-13 1.47371e-13 -1.41657e-13 1.93776e-13 -4.35513e-13 3.30827e-13 -1.53028e-13 -3.07149e-13 4.1379e-13 -3.78811e-13 2.53463e-13 1.01154e-13 -7.7869e-14 -1.41174e-13 9.06109e-14 2.03508e-13 -8.64933e-14 -5.80125e-13 -6.00894e-14 2.72411e-13 5.90908e-14 -2.41026e-13 4.24349e-13 -3.65039e-13 -1.23881e-13 3.66075e-13 -1.56799e-13 2.88521e-14 -7.62058e-13 8.04803e-13 -4.12083e-13 3.48692e-13 -9.08649e-14 -4.03946e-13 2.09257e-13 2.03206e-13 -6.19365e-13 5.48855e-13 -5.58166e-13 6.39018e-13 -1.24473e-14 1.02829e-13 1.05206e-13 -8.73795e-13 8.79557e-13 -1.16909e-12 -5.34162e-13 7.83835e-13 -3.95597e-13 3.89256e-13 -7.08702e-13 4.85864e-13 6.36122e-13 1.82033e-13 2.71199e-13 -4.9784e-13 -2.83988e-14 1.04887e-13 -7.06049e-13 -4.74718e-14 -4.33157e-13 -1.51389e-13 6.29687e-13 -6.76841e-13 1.31044e-12 -7.71684e-13 8.77972e-13 9.93876e-14 -6.43131e-13 6.5733e-13 -1.43491e-12 1.08904e-12 -1.03171e-12 -8.9157e-13 1.48237e-12 -8.84894e-14 -1.18366e-12 1.0031e-12 6.19493e-13 -2.8922e-13 7.45624e-13 -6.80756e-13 6.19841e-11 3.81477e-09 1.85991e-07 6.81605e-06 0.000178749 0.00311713 0.0322743 0.172628 0.473017 0.748155 0.909494 0.877666 0.714385 0.48617 0.265627 0.106222 0.0285287 0.00549134 0.000875053 0.000123795 1.58671e-05 1.85678e-06 1.99363e-07 1.97174e-08 1.80334e-09 1.5301e-10 1.27112e-11 -3.78197e-14 1.90228e-12 -1.48234e-12 1.70229e-12 1.7578e-13 -1.47222e-12 1.23367e-12 -1.50888e-12 1.40215e-12 6.4414e-13 -1.9216e-12 1.38973e-12 -1.51502e-12 1.53432e-12 3.118e-13 -1.53704e-12 1.27145e-12 -1.45494e-12 1.16826e-12 -2.27205e-13 -2.3974e-12 3.95084e-13 1.22014e-14 -9.08197e-13 2.74925e-12 -1.07759e-12 -2.15047e-13 1.57787e-12 -1.31897e-12 2.74122e-12 -1.95831e-12 -5.7543e-13 1.28382e-12 -1.12869e-12 2.51772e-12 -2.58829e-12 1.13634e-12 -1.47131e-12 1.25136e-12 1.30397e-13 -1.2833e-12 2.36046e-14 6.22374e-14 2.20133e-12 -8.63609e-13 -1.91005e-12 -6.44898e-13 -2.15356e-14 1.91171e-12 -2.35051e-13 -1.17429e-12 2.3924e-12 -1.90655e-12 -1.96032e-13 1.89041e-12 -1.61945e-12 2.37103e-12 -2.34217e-12 7.65888e-14 1.57126e-12 -1.33009e-12 1.60965e-12 -1.49216e-12 -7.05289e-13 2.05795e-12 -1.75631e-12 1.93551e-12 -1.98682e-12 -2.87017e-13 1.36354e-12 -2.53205e-12 1.09984e-12 -2.61078e-12 4.13364e-13 3.42457e-12 -3.17734e-12 3.95767e-13 7.62091e-13 4.00565e-13 4.41511e-12 -3.91069e-12 -3.62982e-13 0 0 4.04442e-15 -1.61312e-14 -8.37203e-15 -3.17174e-14 -1.20655e-13 -1.11625e-13 9.52325e-14 -7.28959e-14 -1.03522e-14 -6.51427e-14 -1.55683e-14 -7.00797e-14 -1.29074e-13 -1.9852e-14 -1.51745e-13 2.71372e-14 1.90793e-13 -7.12656e-14 -9.98531e-14 7.95957e-14 -5.50986e-14 2.24234e-13 -9.98493e-14 -1.8419e-13 -6.88238e-14 -1.43598e-14 -1.25961e-14 4.19321e-14 -2.60551e-13 -3.55371e-14 1.8373e-13 7.6926e-14 -1.04961e-13 -2.76843e-13 -1.00299e-15 1.0562e-13 8.61463e-14 -9.21758e-14 -1.79281e-13 5.56674e-14 2.38259e-13 -3.14554e-13 -2.8406e-13 1.71911e-13 1.57317e-13 1.98601e-13 -2.66976e-13 -1.86562e-13 -2.8453e-13 -1.38815e-13 4.47343e-13 2.45818e-13 -2.89149e-13 -1.38956e-12 -3.72787e-13 8.71101e-13 1.89247e-13 -7.78526e-14 -5.48341e-13 6.20904e-13 6.16097e-13 -1.81521e-13 2.98966e-13 -2.28162e-13 2.10967e-13 5.94085e-16 -7.7727e-13 -2.4841e-13 -1.07877e-13 -2.859e-14 -2.52741e-13 -7.85302e-13 9.86476e-13 7.13174e-13 -3.00693e-13 -3.99507e-13 -2.95461e-13 7.06985e-13 -2.94881e-13 -8.19711e-13 3.64419e-13 -1.41281e-13 1.42834e-13 -1.0834e-12 1.24057e-12 6.06752e-13 -5.04156e-13 3.70183e-13 2.48193e-13 1.79059e-12 6.08499e-11 3.81314e-09 1.85992e-07 6.81605e-06 0.000178749 0.00311713 0.0322743 0.172628 0.473017 0.748155 0.909494 0.877666 0.714385 0.48617 0.265627 0.106222 0.0285287 0.00549134 0.000875053 0.000123795 1.58671e-05 1.85678e-06 1.99363e-07 1.97192e-08 1.80217e-09 1.51896e-10 1.2864e-11 1.47574e-12 -6.78994e-14 3.91677e-13 -1.01106e-12 1.46112e-12 5.29428e-14 -6.58102e-13 1.36626e-13 -1.12821e-12 1.38429e-12 -2.74426e-13 -3.19078e-13 1.50971e-13 -1.00353e-12 1.49703e-12 7.69172e-14 -5.12665e-13 2.6477e-13 -1.12867e-12 9.80706e-13 -9.41107e-13 -1.22879e-12 6.15273e-13 1.15485e-14 4.05326e-14 4.29442e-13 6.61277e-13 -8.11998e-13 4.91414e-13 5.57763e-13 -2.96593e-13 5.36357e-13 -1.30202e-12 8.0657e-13 7.09667e-13 -6.80767e-13 -2.272e-13 4.28543e-13 -1.01977e-12 1.18994e-12 1.18803e-13 5.14517e-13 -6.02895e-13 -1.86454e-12 7.7128e-13 2.56089e-13 1.68553e-13 -7.05585e-13 -1.08541e-12 6.37703e-13 3.03828e-13 2.43839e-13 6.81936e-13 1.06525e-13 8.66481e-14 -7.44128e-13 -5.35983e-14 1.03459e-12 -2.56115e-13 3.5619e-13 -8.12618e-13 -3.30063e-13 9.5101e-13 1.17498e-13 -9.82406e-14 -9.03118e-13 -1.32367e-13 9.26199e-13 -1.95116e-13 -3.03926e-13 -1.62115e-12 -1.14659e-12 1.0019e-12 3.59303e-13 -1.39499e-12 -7.1718e-13 1.94256e-12 5.78456e-13 5.43103e-14 -1.71175e-13 -9.11882e-14 8.44722e-13 0 0 -2.11971e-14 4.06837e-14 -9.26985e-14 -1.97335e-14 -5.86374e-14 -4.39376e-14 2.66166e-14 -1.56908e-13 -1.07558e-13 -1.68936e-13 1.67279e-13 -2.26714e-13 1.87586e-13 -3.38544e-13 -8.63971e-14 3.08992e-13 -2.3255e-13 1.52584e-13 -1.33031e-13 1.47807e-13 -2.05839e-13 4.59581e-14 3.49541e-14 -1.59124e-13 -1.80466e-13 -1.08061e-14 -8.82668e-14 1.12777e-13 -2.00184e-13 1.24703e-13 -6.22508e-14 1.65104e-13 -1.30408e-13 -3.28809e-13 2.58497e-14 -3.70313e-13 6.50605e-13 -6.7816e-13 3.06941e-13 2.6856e-14 2.56561e-13 -7.11101e-14 -3.03222e-13 -2.78789e-13 2.69351e-13 -8.49096e-13 8.17301e-13 -5.053e-13 2.79142e-15 -2.74544e-13 -3.37121e-13 1.2103e-12 -9.09483e-13 -9.3231e-13 -4.26238e-13 6.23702e-13 8.60004e-13 -6.54549e-13 -3.24984e-13 5.30353e-13 4.85839e-13 4.75499e-13 5.60611e-13 -5.49347e-13 -1.45298e-13 -2.31892e-13 -2.8305e-13 -5.78853e-13 -8.95421e-13 8.92466e-13 -8.21335e-13 -1.92861e-13 3.51408e-13 1.00912e-12 -1.17138e-12 5.06011e-13 -7.96546e-14 3.09448e-13 4.81133e-13 -2.62688e-12 -3.27053e-13 1.46182e-12 -4.74534e-13 -3.33618e-13 1.45726e-12 -5.15899e-13 3.36477e-14 1.17688e-12 -9.20008e-13 3.05921e-12 5.92972e-11 3.81444e-09 1.85992e-07 6.81605e-06 0.000178749 0.00311713 0.0322743 0.172628 0.473017 0.748155 0.909494 0.877666 0.714385 0.48617 0.265627 0.106222 0.0285287 0.00549134 0.000875053 0.000123795 1.58671e-05 1.85678e-06 1.99362e-07 1.97196e-08 1.80216e-09 1.51918e-10 1.26927e-11 1.3236e-12 -1.09115e-12 1.88577e-12 -1.75946e-12 1.22014e-12 3.05513e-13 -1.40362e-12 1.64019e-12 -1.88399e-12 1.07496e-12 3.06171e-13 -1.2171e-12 1.58211e-12 -1.72855e-12 1.52946e-12 4.03102e-13 -1.75654e-12 1.6084e-12 -1.8617e-12 8.53695e-13 -5.28884e-13 -1.39228e-12 1.46731e-13 2.37633e-13 -1.10082e-13 1.61969e-13 6.70739e-14 -1.44612e-12 2.57608e-12 -2.91948e-13 -5.8762e-13 -7.43758e-13 -7.4382e-13 2.74366e-12 -3.56412e-13 3.07022e-13 -1.87444e-12 2.40809e-12 -1.66509e-12 8.75921e-13 -9.26487e-13 -6.01394e-13 1.60963e-12 -1.05128e-12 8.03801e-13 -1.85888e-12 -4.9914e-13 7.4345e-13 -9.54639e-13 9.04483e-13 1.05108e-12 -5.27128e-13 8.43089e-13 -1.36105e-12 -5.70252e-13 2.18253e-12 -1.21358e-12 1.04304e-12 -1.4992e-12 -1.56439e-13 2.02387e-12 -8.72097e-13 5.9791e-14 -1.1836e-12 -6.40405e-13 2.30691e-12 -1.17685e-12 4.63006e-13 -1.17162e-12 -7.63941e-13 9.36753e-13 -2.95624e-12 -8.23408e-13 2.06191e-12 -6.45931e-13 1.60397e-13 -9.60736e-13 -1.1908e-13 2.38411e-12 5.13546e-13 -3.12016e-13 -2.37294e-12 0 0 -2.04336e-14 -1.13694e-14 2.75817e-14 -1.80062e-13 -3.41206e-14 1.8873e-14 -7.475e-14 -1.55466e-13 -1.98149e-13 6.43365e-14 -2.59654e-13 2.07692e-13 -2.90228e-13 1.28486e-13 -1.1491e-13 4.48695e-14 3.76438e-13 -2.70273e-13 3.33972e-14 7.09138e-15 -2.82954e-13 -4.32846e-13 1.53976e-13 1.34289e-13 -1.61886e-13 -4.93134e-13 9.80617e-14 1.5103e-13 1.88873e-13 -2.15043e-13 2.46285e-13 -2.73913e-13 -1.43593e-13 2.21696e-13 -3.31215e-14 2.41642e-13 -1.59559e-13 3.64503e-13 -6.09537e-13 1.42604e-13 -3.20675e-13 -2.10126e-13 1.38313e-13 -6.07844e-14 -4.69327e-13 1.20728e-13 -2.81649e-13 1.65579e-13 4.20956e-14 3.46242e-14 1.19825e-13 -2.02958e-13 4.59665e-13 -1.21592e-12 -6.10066e-13 6.57316e-13 1.18692e-14 3.82439e-13 -4.94135e-13 5.15013e-13 3.58192e-13 7.09635e-13 3.1646e-13 -5.88366e-13 -2.45973e-13 -1.45044e-13 -4.91523e-13 -3.13005e-13 -8.9488e-13 1.74641e-13 5.12167e-13 -2.59694e-13 1.86055e-12 -4.97337e-13 -4.03602e-14 -5.59037e-13 -9.13792e-13 1.84039e-13 -8.40512e-13 1.56004e-13 -2.9595e-12 2.44366e-13 1.70874e-12 2.6257e-13 -1.83938e-12 2.64075e-13 1.37568e-12 -3.99161e-13 1.19349e-12 -1.65164e-13 6.09179e-11 3.81646e-09 1.8599e-07 6.81605e-06 0.000178749 0.00311713 0.0322743 0.172628 0.473017 0.748155 0.909494 0.877666 0.714385 0.48617 0.265627 0.106222 0.0285287 0.00549134 0.000875053 0.000123795 1.58671e-05 1.85678e-06 1.99363e-07 1.97174e-08 1.80353e-09 1.5321e-10 1.20268e-11 1.27523e-13 1.9534e-12 -1.55089e-12 1.8906e-12 -9.57157e-13 -1.12472e-12 1.81239e-12 -1.54625e-12 1.45817e-12 -3.23681e-13 -1.08222e-12 1.50529e-12 -1.55505e-12 1.61701e-12 -4.87599e-13 -1.02994e-12 1.4299e-12 -1.46271e-12 1.23167e-12 -1.05018e-12 -2.1052e-12 9.55018e-13 -1.1582e-12 -1.31507e-12 3.28477e-12 -1.64114e-12 -1.19933e-12 1.95905e-12 -1.16341e-12 3.91755e-12 -2.16424e-12 -6.7645e-13 1.67465e-12 -2.36793e-12 2.04317e-12 -2.5679e-12 1.53344e-12 -9.99134e-13 2.57146e-12 -6.83645e-13 -1.80231e-12 -1.08067e-12 5.75973e-13 3.84993e-12 -3.26575e-12 -2.59091e-12 -6.64298e-13 7.15196e-13 1.96994e-12 -3.58927e-12 2.62177e-13 4.72826e-12 -2.25084e-12 -1.50261e-12 1.33872e-12 5.75718e-13 3.46275e-12 -4.23376e-12 -4.96293e-13 8.87697e-13 2.84003e-13 3.24433e-12 -3.32412e-12 -2.17185e-12 1.56931e-12 6.72418e-13 3.34649e-12 -4.21405e-12 -5.56094e-13 8.665e-13 -9.66353e-13 6.30665e-13 -6.27427e-12 1.20753e-12 6.90132e-12 -3.59784e-12 -1.78992e-12 5.19176e-13 1.7303e-12 6.69382e-12 -5.50305e-12 -2.67467e-12 0 0 6.89732e-15 1.76978e-14 -7.18882e-14 -1.12062e-14 -1.55458e-13 -2.46403e-13 -1.53992e-13 1.8651e-13 -2.83768e-15 -1.04428e-13 -2.73159e-13 -2.64367e-13 2.53781e-13 -1.66419e-13 -8.33347e-14 4.29134e-13 3.53569e-13 1.57166e-13 -6.92814e-13 -3.0545e-13 -2.03401e-15 -4.00824e-14 -1.17861e-13 -6.11471e-13 -1.25528e-13 4.45677e-13 1.39476e-13 -2.8816e-13 -1.75791e-13 2.96133e-13 -2.69323e-13 4.15671e-13 -1.84296e-14 -7.6443e-13 6.56302e-13 7.50042e-13 9.65621e-13 -6.07408e-13 -7.83638e-13 -8.10648e-13 -5.00618e-14 -1.08119e-13 -6.8646e-13 1.93031e-13 1.00216e-12 -4.88512e-14 -2.41321e-13 -1.04509e-12 -3.13269e-13 1.65094e-13 1.52509e-12 1.02264e-12 -2.0652e-12 -2.62041e-13 -3.79336e-13 -1.01701e-12 1.51814e-12 -1.23365e-12 1.10245e-12 1.04024e-12 3.5515e-13 -3.52465e-13 -1.23063e-12 1.24895e-12 3.35501e-13 -2.08063e-13 -9.93645e-13 -1.76982e-12 1.77138e-12 -2.06056e-14 -1.45036e-12 1.1976e-12 1.48596e-12 2.58249e-12 -1.15953e-12 -3.67739e-12 -1.05142e-14 -1.53925e-12 1.53358e-12 -7.52356e-13 -2.03419e-12 1.90213e-13 -4.45039e-13 -3.24611e-13 1.77357e-13 -1.72287e-13 2.35655e-13 -1.04731e-12 1.80182e-12 1.44301e-12 6.05971e-11 3.81549e-09 1.8599e-07 6.81606e-06 0.000178749 0.00311713 0.0322743 0.172628 0.473017 0.748155 0.909494 0.877666 0.714385 0.48617 0.265627 0.106222 0.0285287 0.00549134 0.000875053 0.000123795 1.58671e-05 1.85678e-06 1.99365e-07 1.97193e-08 1.80319e-09 1.5206e-10 1.02534e-11 4.14432e-12 6.05095e-13 -3.76156e-13 2.9993e-13 -2.32476e-12 2.4195e-12 6.84899e-14 -7.33803e-13 2.12717e-13 -2.03717e-12 2.74972e-12 -5.08487e-13 -5.83435e-13 3.5699e-13 -2.30905e-12 2.48573e-12 3.64556e-13 -6.44906e-13 1.06756e-13 -2.45786e-12 5.10918e-13 -8.78526e-13 5.18876e-13 -1.19446e-12 -1.32692e-12 2.86301e-12 3.53528e-13 8.51763e-14 -1.1647e-12 4.47704e-13 2.97835e-12 2.60578e-12 -2.2319e-12 -3.82661e-12 -2.33229e-12 1.34831e-12 1.6387e-12 -7.78167e-13 1.85128e-12 -1.28452e-12 2.18465e-12 -3.01148e-13 -2.32677e-12 9.35927e-14 -4.72917e-12 3.58226e-12 1.37701e-13 -1.48249e-12 -5.31834e-13 -7.2858e-12 3.51888e-12 4.08149e-12 1.06654e-12 1.94728e-13 -1.84021e-12 1.52923e-12 1.63609e-12 -1.68263e-12 1.02527e-12 -2.00874e-12 3.45097e-14 2.18285e-12 -4.38353e-13 9.61235e-15 -2.24371e-12 1.35811e-12 2.15923e-12 -1.53442e-12 1.31794e-12 -2.75864e-12 -1.1651e-13 -1.50425e-12 -2.39271e-12 1.79221e-12 -2.02332e-12 2.50651e-12 1.84286e-12 1.91218e-12 -1.17857e-14 -1.57103e-12 1.61292e-12 5.28852e-13 0
				</DataArray>
				<DataArray Name="VitesseY" type="Float32" format="ascii">