<?xml version="1.0"?>
<VTKFile type="PolyData">
	<PolyData>
		<Piece NumberOfPoints="1206" NumberOfPolys="1000">
			<Points>
				<DataArray type="Float32" NumberOfComponents="3" format="ascii">
 0 0 0 0.005 0 0 0.01 0 0 0.015 0 0 0.02 0 0 0.025 0 0 0.03 0 0 0.035 0 0 0.04 0 0 0.045 0 0 0.05 0 0 0.055 0 0 0.06 0 0 0.065 0 0 0.07 0 0 0.075 0 0 0.08 0 0 0.085 0 0 0.09 0 0 0.095 0 0 0.1 0 0 0.105 0 0 0.11 0 0 0.115 0 0 0.12 0 0 0.125 0 0 0.13 0 0 0.135 0 0 0.14 0 0 0.145 0 0 0.15 0 0 0.155 0 0 0.16 0 0 0.165 0 0 0.17 0 0 0.175 0 0 0.18 0 0 0.185 0 0 0.19 0 0 0.195 0 0 0.2 0 0 0.205 0 0 0.21 0 0 0.215 0 0 0.22 0 0 0.225 0 0 0.23 0 0 0.235 0 0 0.24 0 0 0.245 0 0 0.25 0 0 0.255 0 0 0.26 0 0 0.265 0 0 0.27 0 0 0.275 0 0 0.28 0 0 0.285 0 0 0.29 0 0 0.295 0 0 0.3 0 0 0.305 0 0 0.31 0 0 0.315 0 0 0.32 0 0 0.325 0 0 0.33 0 0 0.335 0 0 0.34 0 0 0.345 0 0 0.35 0 0 0.355 0 0 0.36 0 0 0.365 0 0 0.37 0 0 0.375 0 0 0.38 0 0 0.385 0 0 0.39 0 0 0.395 0 0 0.4 0 0 0.405 0 0 0.41 0 0 0.415 0 0 0.42 0 0 0.425 0 0 0.43 0 0 0.435 0 0 0.44 0 0 0.445 0 0 0.45 0 0 0.455 0 0 0.46 0 0 0.465 0 0 0.47 0 0 0.475 0 0 0.48 0 0 0.485 0 0 0.49 0 0 0.495 0 0 0.5 0 0 0.505 0 0 0.51 0 0 0.515 0 0 0.52 0 0 0.525 0 0 0.53 0 0 0.535 0 0 0.54 0 0 0.545 0 0 0.55 0 0 0.555 0 0 0.56 0 0 0.565 0 0 0.57 0 0 0.575 0 0 0.58 0 0 0.585 0 0 0.59 0 0 0.595 0 0 0.6 0 0 0.605 0 0 0.61 0 0 0.615 0 0 0.62 0 0 0.625 0 0 0.63 0 0 0.635 0 0 0.64 0 0 0.645 0 0 0.65 0 0 0.655 0 0 0.66 0 0 0.665 0 0 0.67 0 0 0.675 0 0 0.68 0 0 0.685 0 0 0.69 0 0 0.695 0 0 0.7 0 0 0.705 0 0 0.71 0 0 0.715 0 0 0.72 0 0 0.725 0 0 0.73 0 0 0.735 0 0 0.74 0 0 0.745 0 0 0.75 0 0 0.755 0 0 0.76 0 0 0.765 0 0 0.77 0 0 0.775 0 0 0.78 0 0 0.785 0 0 0.79 0 0 0.795 0 0 0.8 0 0 0.805 0 0 0.81 0 0 0.815 0 0 0.82 0 0 0.825 0 0 0.83 0 0 0.835 0 0 0.84 0 0 0.845 0 0 0.85 0 0 0.855 0 0 0.86 0 0 0.865 0 0 0.87 0 0 0.875 0 0 0.88 0 0 0.885 0 0 0.89 0 0 0.895 0 0 0.9 0 0 0.905 0 0 0.91 0 0 0.915 0 0 0.92 0 0 0.925 0 0 0.93 0 0 0.935 0 0 0.94 0 0 0.945 0 0 0.95 0 0 0.955 0 0 0.96 0 0 0.965 0 0 0.97 0 0 0.975 0 0 0.98 0 0 0.985 0 0 0.99 0 0 0.995 0 0 1 0 0 0 0.02 0 0.005 0.02 0 0.01 0.02 0 0.015 0.02 0 0.02 0.02 0 0.025 0.02 0 0.03 0.02 0 0.035 0.02 0 0.04 0.02 0 0.045 0.02 0 0.05 0.02 0 0.055 0.02 0 0.06 0.02 0 0.065 0.02 0 0.07 0.02 0 0.075 0.02 0 0.08 0.02 0 0.085 0.02 0 0.09 0.02 0 0.095 0.02 0 0.1 0.02 0 0.105 0.02 0 0.11 0.02 0 0.115 0.02 0 0.12 0.02 0 0.125 0.02 0 0.13 0.02 0 0.135 0.02 0 0.14 0.02 0 0.145 0.02 0 0.15 0.02 0 0.155 0.02 0 0.16 0.02 0 0.165 0.02 0 0.17 0.02 0 0.175 0.02 0 0.18 0.02 0 0.185 0.02 0 0.19 0.02 0 0.195 0.02 0 0.2 0.02 0 0.205 0.02 0 0.21 0.02 0 0.215 0.02 0 0.22 0.02 0 0.225 0.02 0 0.23 0.02 0 0.235 0.02 0 0.24 0.02 0 0.245 0.02 0 0.25 0.02 0 0.255 0.02 0 0.26 0.02 0 0.265 0.02 0 0.27 0.02 0 0.275 0.02 0 0.28 0.02 0 0.285 0.02 0 0.29 0.02 0 0.295 0.02 0 0.3 0.02 0 0.305 0.02 0 0.31 0.02 0 0.315 0.02 0 0.32 0.02 0 0.325 0.02 0 0.33 0.02 0 0.335 0.02 0 0.34 0.02 0 0.345 0.02 0 0.35 0.02 0 0.355 0.02 0 0.36 0.02 0 0.365 0.02 0 0.37 0.02 0 0.375 0.02 0 0.38 0.02 0 0.385 0.02 0 0.39 0.02 0 0.395 0.02 0 0.4 0.02 0 0.405 0.02 0 0.41 0.02 0 0.415 0.02 0 0.42 0.02 0 0.425 0.02 0 0.43 0.02 0 0.435 0.02 0 0.44 0.02 0 0.445 0.02 0 0.45 0.02 0 0.455 0.02 0 0.46 0.02 0 0.465 0.02 0 0.47 0.02 0 0.475 0.02 0 0.48 0.02 0 0.485 0.02 0 0.49 0.02 0 0.495 0.02 0 0.5 0.02 0 0.505 0.02 0 0.51 0.02 0 0.515 0.02 0 0.52 0.02 0 0.525 0.02 0 0.53 0.02 0 0.535 0.02 0 0.54 0.02 0 0.545 0.02 0 0.55 0.02 0 0.555 0.02 0 0.56 0.02 0 0.565 0.02 0 0.57 0.02 0 0.575 0.02 0 0.58 0.02 0 0.585 0.02 0 0.59 0.02 0 0.595 0.02 0 0.6 0.02 0 0.605 0.02 0 0.61 0.02 0 0.615 0.02 0 0.62 0.02 0 0.625 0.02 0 0.63 0.02 0 0.635 0.02 0 0.64 0.02 0 0.645 0.02 0 0.65 0.02 0 0.655 0.02 0 0.66 0.02 0 0.665 0.02 0 0.67 0.02 0 0.675 0.02 0 0.68 0.02 0 0.685 0.02 0 0.69 0.02 0 0.695 0.02 0 0.7 0.02 0 0.705 0.02 0 0.71 0.02 0 0.715 0.02 0 0.72 0.02 0 0.725 0.02 0 0.73 0.02 0 0.735 0.02 0 0.74 0.02 0 0.745 0.02 0 0.75 0.02 0 0.755 0.02 0 0.76 0.02 0 0.765 0.02 0 0.77 0.02 0 0.775 0.02 0 0.78 0.02 0 0.785 0.02 0 0.79 0.02 0 0.795 0.02 0 0.8 0.02 0 0.805 0.02 0 0.81 0.02 0 0.815 0.02 0 0.82 0.02 0 0.825 0.02 0 0.83 0.02 0 0.835 0.02 0 0.84 0.02 0 0.845 0.02 0 0.85 0.02 0 0.855 0.02 0 0.86 0.02 0 0.865 0.02 0 0.87 0.02 0 0.875 0.02 0 0.88 0.02 0 0.885 0.02 0 0.89 0.02 0 0.895 0.02 0 0.9 0.02 0 0.905 0.02 0 0.91 0.02 0 0.915 0.02 0 0.92 0.02 0 0.925 0.02 0 0.93 0.02 0 0.935 0.02 0 0.94 0.02 0 0.945 0.02 0 0.95 0.02 0 0.955 0.02 0 0.96 0.02 0 0.965 0.02 0 0.97 0.02 0 0.975 0.02 0 0.98 0.02 0 0.985 0.02 0 0.99 0.02 0 0.995 0.02 0 1 0.02 0 0 0.04 0 0.005 0.04 0 0.01 0.04 0 0.015 0.04 0 0.02 0.04 0 0.025 0.04 0 0.03 0.04 0 0.035 0.04 0 0.04 0.04 0 0.045 0.04 0 0.05 0.04 0 0.055 0.04 0 0.06 0.04 0 0.065 0.04 0 0.07 0.04 0 0.075 0.04 0 0.08 0.04 0 0.085 0.04 0 0.09 0.04 0 0.095 0.04 0 0.1 0.04 0 0.105 0.04 0 0.11 0.04 0 0.115 0.04 0 0.12 0.04 0 0.125 0.04 0 0.13 0.04 0 0.135 0.04 0 0.14 0.04 0 0.145 0.04 0 0.15 0.04 0 0.155 0.04 0 0.16 0.04 0 0.165 0.04 0 0.17 0.04 0 0.175 0.04 0 0.18 0.04 0 0.185 0.04 0 0.19 0.04 0 0.195 0.04 0 0.2 0.04 0 0.205 0.04 0 0.21 0.04 0 0.215 0.04 0 0.22 0.04 0 0.225 0.04 0 0.23 0.04 0 0.235 0.04 0 0.24 0.04 0 0.245 0.04 0 0.25 0.04 0 0.255 0.04 0 0.26 0.04 0 0.265 0.04 0 0.27 0.04 0 0.275 0.04 0 0.28 0.04 0 0.285 0.04 0 0.29 0.04 0 0.295 0.04 0 0.3 0.04 0 0.305 0.04 0 0.31 0.04 0 0.315 0.04 0 0.32 0.04 0 0.325 0.04 0 0.33 0.04 0 0.335 0.04 0 0.34 0.04 0 0.345 0.04 0 0.35 0.04 0 0.355 0.04 0 0.36 0.04 0 0.365 0.04 0 0.37 0.04 0 0.375 0.04 0 0.38 0.04 0 0.385 0.04 0 0.39 0.04 0 0.395 0.04 0 0.4 0.04 0 0.405 0.04 0 0.41 0.04 0 0.415 0.04 0 0.42 0.04 0 0.425 0.04 0 0.43 0.04 0 0.435 0.04 0 0.44 0.04 0 0.445 0.04 0 0.45 0.04 0 0.455 0.04 0 0.46 0.04 0 0.465 0.04 0 0.47 0.04 0 0.475 0.04 0 0.48 0.04 0 0.485 0.04 0 0.49 0.04 0 0.495 0.04 0 0.5 0.04 0 0.505 0.04 0 0.51 0.04 0 0.515 0.04 0 0.52 0.04 0 0.525 0.04 0 0.53 0.04 0 0.535 0.04 0 0.54 0.04 0 0.545 0.04 0 0.55 0.04 0 0.555 0.04 0 0.56 0.04 0 0.565 0.04 0 0.57 0.04 0 0.575 0.04 0 0.58 0.04 0 0.585 0.04 0 0.59 0.04 0 0.595 0.04 0 0.6 0.04 0 0.605 0.04 0 0.61 0.04 0 0.615 0.04 0 0.62 0.04 0 0.625 0.04 0 0.63 0.04 0 0.635 0.04 0 0.64 0.04 0 0.645 0.04 0 0.65 0.04 0 0.655 0.04 0 0.66 0.04 0 0.665 0.04 0 0.67 0.04 0 0.675 0.04 0 0.68 0.04 0 0.685 0.04 0 0.69 0.04 0 0.695 0.04 0 0.7 0.04 0 0.705 0.04 0 0.71 0.04 0 0.715 0.04 0 0.72 0.04 0 0.725 0.04 0 0.73 0.04 0 0.735 0.04 0 0.74 0.04 0 0.745 0.04 0 0.75 0.04 0 0.755 0.04 0 0.76 0.04 0 0.765 0.04 0 0.77 0.04 0 0.775 0.04 0 0.78 0.04 0 0.785 0.04 0 0.79 0.04 0 0.795 0.04 0 0.8 0.04 0 0.805 0.04 0 0.81 0.04 0 0.815 0.04 0 0.82 0.04 0 0.825 0.04 0 0.83 0.04 0 0.835 0.04 0 0.84 0.04 0 0.845 0.04 0 0.85 0.04 0 0.855 0.04 0 0.86 0.04 0 0.865 0.04 0 0.87 0.04 0 0.875 0.04 0 0.88 0.04 0 0.885 0.04 0 0.89 0.04 0 0.895 0.04 0 0.9 0.04 0 0.905 0.04 0 0.91 0.04 0 0.915 0.04 0 0.92 0.04 0 0.925 0.04 0 0.93 0.04 0 0.935 0.04 0 0.94 0.04 0 0.945 0.04 0 0.95 0.04 0 0.955 0.04 0 0.96 0.04 0 0.965 0.04 0 0.97 0.04 0 0.975 0.04 0 0.98 0.04 0 0.985 0.04 0 0.99 0.04 0 0.995 0.04 0 1 0.04 0 0 0.06 0 0.005 0.06 0 0.01 0.06 0 0.015 0.06 0 0.02 0.06 0 0.025 0.06 0 0.03 0.06 0 0.035 0.06 0 0.04 0.06 0 0.045 0.06 0 0.05 0.06 0 0.055 0.06 0 0.06 0.06 0 0.065 0.06 0 0.07 0.06 0 0.075 0.06 0 0.08 0.06 0 0.085 0.06 0 0.09 0.06 0 0.095 0.06 0 0.1 0.06 0 0.105 0.06 0 0.11 0.06 0 0.115 0.06 0 0.12 0.06 0 0.125 0.06 0 0.13 0.06 0 0.135 0.06 0 0.14 0.06 0 0.145 0.06 0 0.15 0.06 0 0.155 0.06 0 0.16 0.06 0 0.165 0.06 0 0.17 0.06 0 0.175 0.06 0 0.18 0.06 0 0.185 0.06 0 0.19 0.06 0 0.195 0.06 0 0.2 0.06 0 0.205 0.06 0 0.21 0.06 0 0.215 0.06 0 0.22 0.06 0 0.225 0.06 0 0.23 0.06 0 0.235 0.06 0 0.24 0.06 0 0.245 0.06 0 0.25 0.06 0 0.255 0.06 0 0.26 0.06 0 0.265 0.06 0 0.27 0.06 0 0.275 0.06 0 0.28 0.06 0 0.285 0.06 0 0.29 0.06 0 0.295 0.06 0 0.3 0.06 0 0.305 0.06 0 0.31 0.06 0 0.315 0.06 0 0.32 0.06 0 0.325 0.06 0 0.33 0.06 0 0.335 0.06 0 0.34 0.06 0 0.345 0.06 0 0.35 0.06 0 0.355 0.06 0 0.36 0.06 0 0.365 0.06 0 0.37 0.06 0 0.375 0.06 0 0.38 0.06 0 0.385 0.06 0 0.39 0.06 0 0.395 0.06 0 0.4 0.06 0 0.405 0.06 0 0.41 0.06 0 0.415 0.06 0 0.42 0.06 0 0.425 0.06 0 0.43 0.06 0 0.435 0.06 0 0.44 0.06 0 0.445 0.06 0 0.45 0.06 0 0.455 0.06 0 0.46 0.06 0 0.465 0.06 0 0.47 0.06 0 0.475 0.06 0 0.48 0.06 0 0.485 0.06 0 0.49 0.06 0 0.495 0.06 0 0.5 0.06 0 0.505 0.06 0 0.51 0.06 0 0.515 0.06 0 0.52 0.06 0 0.525 0.06 0 0.53 0.06 0 0.535 0.06 0 0.54 0.06 0 0.545 0.06 0 0.55 0.06 0 0.555 0.06 0 0.56 0.06 0 0.565 0.06 0 0.57 0.06 0 0.575 0.06 0 0.58 0.06 0 0.585 0.06 0 0.59 0.06 0 0.595 0.06 0 0.6 0.06 0 0.605 0.06 0 0.61 0.06 0 0.615 0.06 0 0.62 0.06 0 0.625 0.06 0 0.63 0.06 0 0.635 0.06 0 0.64 0.06 0 0.645 0.06 0 0.65 0.06 0 0.655 0.06 0 0.66 0.06 0 0.665 0.06 0 0.67 0.06 0 0.675 0.06 0 0.68 0.06 0 0.685 0.06 0 0.69 0.06 0 0.695 0.06 0 0.7 0.06 0 0.705 0.06 0 0.71 0.06 0 0.715 0.06 0 0.72 0.06 0 0.725 0.06 0 0.73 0.06 0 0.735 0.06 0 0.74 0.06 0 0.745 0.06 0 0.75 0.06 0 0.755 0.06 0 0.76 0.06 0 0.765 0.06 0 0.77 0.06 0 0.775 0.06 0 0.78 0.06 0 0.785 0.06 0 0.79 0.06 0 0.795 0.06 0 0.8 0.06 0 0.805 0.06 0 0.81 0.06 0 0.815 0.06 0 0.82 0.06 0 0.825 0.06 0 0.83 0.06 0 0.835 0.06 0 0.84 0.06 0 0.845 0.06 0 0.85 0.06 0 0.855 0.06 0 0.86 0.06 0 0.865 0.06 0 0.87 0.06 0 0.875 0.06 0 0.88 0.06 0 0.885 0.06 0 0.89 0.06 0 0.895 0.06 0 0.9 0.06 0 0.905 0.06 0 0.91 0.06 0 0.915 0.06 0 0.92 0.06 0 0.925 0.06 0 0.93 0.06 0 0.935 0.06 0 0.94 0.06 0 0.945 0.06 0 0.95 0.06 0 0.955 0.06 0 0.96 0.06 0 0.965 0.06 0 0.97 0.06 0 0.975 0.06 0 0.98 0.06 0 0.985 0.06 0 0.99 0.06 0 0.995 0.06 0 1 0.06 0 0 0.08 0 0.005 0.08 0 0.01 0.08 0 0.015 0.08 0 0.02 0.08 0 0.025 0.08 0 0.03 0.08 0 0.035 0.08 0 0.04 0.08 0 0.045 0.08 0 0.05 0.08 0 0.055 0.08 0 0.06 0.08 0 0.065 0.08 0 0.07 0.08 0 0.075 0.08 0 0.08 0.08 0 0.085 0.08 0 0.09 0.08 0 0.095 0.08 0 0.1 0.08 0 0.105 0.08 0 0.11 0.08 0 0.115 0.08 0 0.12 0.08 0 0.125 0.08 0 0.13 0.08 0 0.135 0.08 0 0.14 0.08 0 0.145 0.08 0 0.15 0.08 0 0.155 0.08 0 0.16 0.08 0 0.165 0.08 0
[...]
			<PointData Scalars="VitesseX">
				<DataArray Name="VitesseX" type="Float32" format="ascii">
 0 1.13917e-14 -1.16134e-14 -4.30017e-15 -1.78703e-14 -2.73219e-14 -3.0606e-14 3.70277e-14 -1.57937e-14 3.85583e-14 -4.18964e-14 -1.58129e-14 -1.55211e-14 -4.03704e-14 1.17252e-14 4.11329e-14 -5.59043e-15 -5.13265e-14 7.1722e-16 -4.02475e-14 -4.29621e-14 3.38643e-14 -1.34468e-13 1.03793e-13 -2.69252e-13 3.47793e-16 4.3951e-14 -1.75655e-13 -2.15371e-13 -6.30486e-14 -1.87914e-13 -2.2154e-13 -1.85995e-13 6.46694e-14 -1.88611e-13 -1.00505e-13 1.77644e-13 -3.97354e-14 1.06043e-13 -1.23787e-13 9.3076e-14 -5.69372e-14 -1.27862e-13 -1.27992e-13 -1.20718e-13 -1.18422e-13 -8.52981e-14 -6.96591e-14 -2.28987e-13 -1.73094e-13 -1.61769e-13 1.38396e-13 -2.32218e-13 1.17725e-13 -6.42096e-13 -3.11949e-14 1.28767e-13 2.39507e-13 1.9414e-12 1.57355e-11 1.24004e-10 8.99066e-10 6.09342e-09 3.8434e-08 2.24696e-07 1.21219e-06 6.00376e-06 2.71349e-05 0.000111108 0.000408579 0.00133527 0.00383243 0.00954999 0.0205123 0.0380652 0.0619614 0.0906995 0.122621 0.156533 0.191741 0.227783 0.264359 0.301332 0.338639 0.376273 0.414263 0.452533 0.489827 0.526821 0.563006 0.599125 0.634106 0.669231 0.703038 0.736438 0.769727 0.800975 0.832105 0.859685 0.88333 0.904211 0.917205 0.925934 0.931655 0.932678 0.933065 0.933103 0.932956 0.932578 0.932007 0.931361 0.930858 0.930416 0.929955 0.92956 0.929251 0.929019 0.928847 0.928719 0.928617 0.928533 0.928464 0.928409 0.928361 0.92832 0.928283 0.928261 0.92828 0.928265 0.928088 0.927564 0.92659 0.924601 0.920385 0.911799 0.895136 0.864578 0.812509 0.731704 0.619708 0.484453 0.343319 0.216956 0.120038 0.0578325 0.0247763 0.00982844 0.00374233 0.00139598 0.000514684 0.000188144 6.82443e-05 2.45586e-05 8.76397e-06 3.09963e-06 1.08587e-06 3.76585e-07 1.29225e-07 4.38551e-08 1.47131e-08 4.87798e-09 1.59712e-09 5.16317e-10 1.64718e-10 5.14106e-11 1.59764e-11 4.21442e-12 1.07726e-12 8.68087e-14 -5.093e-13 -9.65797e-14 -2.23573e-13 1.67836e-13 2.48272e-14 1.79113e-14 -1.38408e-13 -1.32579e-13 -3.31713e-13 5.06062e-14 7.12268e-14 5.13725e-14 -4.35587e-13 -1.47136e-13 7.82782e-15 -6.3378e-13 2.35846e-13 -2.49903e-13 1.03739e-13 4.11014e-13 -2.44093e-13 2.26002e-13 8.63242e-14 2.49308e-13 7.08792e-13 3.2034e-13 2.33274e-13 -5.02853e-13 2.53299e-13 3.70353e-13 -1.71645e-13 0 0 -1.69879e-14 -1.05149e-14 -2.83107e-14 -2.39459e-14 -4.19918e-15 3.72044e-14 -4.20491e-14 1.62133e-14 -3.82485e-14 2.74543e-14 2.0273e-15 -2.12423e-14 -1.5469e-14 3.13602e-15 -2.77224e-14 -2.33503e-15 3.0746e-14 -4.97962e-14 1.47587e-14 9.41071e-15 -8.27997e-14 -2.03821e-14 -2.0184e-13 1.38197e-13 -1.36248e-13 -1.77175e-13 -6.79251e-14 -6.39071e-14 -2.51242e-13 -2.0254e-13 -1.31403e-13 -9.8059e-14 -1.62292e-13 -4.17952e-14 5.42923e-14 -2.61967e-14 4.65745e-14 -9.34864e-14 5.8528e-14 -8.49535e-14 -1.06747e-13 -3.22089e-14 -9.91771e-14 -2.0307e-13 -2.39871e-14 -9.01343e-14 -1.48233e-13 -5.21977e-15 -7.61513e-14 2.40833e-14 -3.4421e-13 5.58465e-14 -3.78646e-13 2.47321e-13 -2.53315e-13 -1.33219e-13 2.59886e-13 1.82881e-12 1.59652e-11 1.23861e-10 8.98952e-10 6.09333e-09 3.84342e-08 2.24696e-07 1.21219e-06 6.00376e-06 2.71349e-05 0.000111108 0.000408579 0.00133527 0.00383243 0.00954999 0.0205123 0.0380652 0.0619614 0.0906995 0.122621 0.156533 0.191741 0.227783 0.264359 0.301332 0.338639 0.376273 0.414263 0.452533 0.489827 0.526821 0.563006 0.599125 0.634106 0.669231 0.703038 0.736438 0.769727 0.800975 0.832105 0.859685 0.88333 0.904211 0.917205 0.925934 0.931655 0.932678 0.933065 0.933103 0.932956 0.932578 0.932007 0.931361 0.930858 0.930416 0.929955 0.92956 0.929251 0.929019 0.928847 0.928719 0.928617 0.928533 0.928464 0.928409 0.928361 0.92832 0.928283 0.928261 0.92828 0.928265 0.928088 0.927564 0.92659 0.924601 0.920385 0.911799 0.895136 0.864578 0.812509 0.731704 0.619708 0.484453 0.343319 0.216956 0.120038 0.0578325 0.0247763 0.00982844 0.00374233 0.00139598 0.000514684 0.000188144 6.82443e-05 2.45586e-05 8.76397e-06 3.09963e-06 1.08587e-06 3.76585e-07 1.29225e-07 4.38548e-08 1.47131e-08 4.87776e-09 1.59741e-09 5.16498e-10 1.64781e-10 5.18589e-11 1.55134e-11 4.43532e-12 1.20844e-12 -1.22792e-13 -9.76369e-14 -3.66778e-13 -2.99646e-13 1.82359e-13 -2.0903e-13 2.13835e-13 -2.38014e-13 3.98829e-14 1.80186e-13 -2.87813e-13 -1.31402e-13 -2.39589e-13 -6.93279e-14 -2.51688e-13 -1.62809e-13 3.94645e-14 -7.22375e-13 5.67204e-14 3.26737e-13 -5.89763e-13 3.76319e-13 2.57435e-13 -4.79107e-14 3.69172e-13 -1.16858e-13 2.18618e-13 1.20697e-13 7.1865e-13 -6.83683e-14 7.53733e-15 -9.3484e-14 0 0 -5.60392e-15 -1.87986e-14 -2.2802e-14 -7.17054e-15 -2.15542e-14 -1.91359e-14 1.03041e-14 -1.28199e-14 2.55699e-14 -1.90225e-14 -1.61011e-14 -1.34526e-15 6.75714e-14 -3.5358e-14 -3.07889e-14 2.9665e-14 -3.4514e-14 1.55555e-14 -4.81912e-14 -5.88947e-14 -1.87128e-14 -2.98638e-14 -3.52773e-14 -1.60349e-13 -1.45826e-13 -6.61721e-14 -8.89676e-14 -1.91571e-13 -1.05277e-13 -1.21475e-13 -3.91444e-14 -1.3541e-13 -1.49731e-13 -1.19514e-13 1.34774e-13 -1.59497e-14 -4.25279e-14 -4.11096e-14 -1.04544e-13 -1.33658e-14 -1.74951e-13 -8.83542e-14 -1.98617e-13 -9.55885e-16 1.3102e-14 -1.2732e-13 -1.0329e-13 9.83508e-16 -1.36184e-13 -1.58523e-13 1.03323e-13 -1.60601e-13 -7.30322e-14 -1.65135e-13 2.10159e-14 1.2425e-14 2.19703e-13 1.83943e-12 1.60199e-11 1.23925e-10 8.98744e-10 6.09334e-09 3.8434e-08 2.24696e-07 1.21219e-06 6.00376e-06 2.71349e-05 0.000111108 0.000408579 0.00133527 0.00383243 0.00954999 0.0205123 0.0380652 0.0619614 0.0906995 0.122621 0.156533 0.191741 0.227783 0.264359 0.301332 0.338639 0.376273 0.414263 0.452533 0.489827 0.526821 0.563006 0.599125 0.634106 0.669231 0.703038 0.736438 0.769727 0.800975 0.832105 0.859685 0.88333 0.904211 0.917205 0.925934 0.931655 0.932678 0.933065 0.933103 0.932956 0.932578 0.932007 0.931361 0.930858 0.930416 0.929955 0.92956 0.929251 0.929019 0.928847 0.928719 0.928617 0.928533 0.928464 0.928409 0.928361 0.92832 0.928283 0.928261 0.92828 0.928265 0.928088 0.927564 0.92659 0.924601 0.920385 0.911799 0.895136 0.864578 0.812509 0.731704 0.619708 0.484453 0.343319 0.216956 0.120038 0.0578325 0.0247763 0.00982844 0.00374233 0.00139598 0.000514684 0.000188144 6.82443e-05 2.45586e-05 8.76397e-06 3.09963e-06 1.08587e-06 3.76586e-07 1.29225e-07 4.38552e-08 1.47131e-08 4.87797e-09 1.59757e-09 5.16601e-10 1.64895e-10 5.144e-11 1.57481e-11 4.56503e-12 1.40585e-12 3.1716e-13 -6.34288e-13 -2.41683e-13 -1.63401e-14 -4.22756e-13 -7.10819e-14 2.86544e-14 -9.88063e-14 2.32632e-13 -2.70158e-13 -3.30247e-14 -3.73656e-13 -9.76911e-14 -1.65011e-13 -1.10211e-13 -6.63935e-13 -1.21604e-13 -1.53809e-13 -2.23135e-13 -1.04067e-13 2.57961e-13 -4.86332e-14 -4.70343e-13 4.91775e-13 -5.45504e-15 -3.23679e-14 2.46939e-13 2.17997e-13 2.36064e-13 2.57795e-13 2.8537e-13 -2.40357e-13 0 0 1.37389e-14 2.86428e-15 9.72907e-16 -1.64886e-15 -2.32452e-15 -8.47164e-15 -1.08264e-14 -1.06591e-14 1.57324e-14 -4.80443e-14 -3.39399e-14 2.2384e-14 4.07719e-15 4.06847e-14 3.29275e-14 -3.74359e-14 -5.75523e-14 -4.07659e-15 -1.00077e-14 -8.47938e-14 -8.85258e-14 -1.25689e-13 9.39311e-15 -1.84906e-13 -2.87405e-14 -2.96889e-14 -7.02358e-14 -1.70085e-13 -5.02012e-14 3.16958e-14 -7.02327e-14 -2.22931e-13 -6.84628e-14 1.16517e-14 -5.02629e-14 1.79102e-13 -1.88702e-13 -5.81129e-14 -4.71873e-14 -1.70634e-13 -9.21692e-14 -1.31458e-13 -1.57386e-14 -1.52406e-13 -1.6272e-13 4.98099e-14 -2.14488e-13 -4.68619e-14 1.75207e-13 -1.03663e-13 -3.1039e-14 -8.93382e-14 -1.41028e-14 -1.68902e-13 -3.44816e-14 5.93902e-14 2.36746e-13 2.01796e-12 1.60002e-11 1.23845e-10 8.98898e-10 6.0934e-09 3.8434e-08 2.24696e-07 1.21219e-06 6.00376e-06 2.71349e-05 0.000111108 0.000408579 0.00133527 0.00383243 0.00954999 0.0205123 0.0380652 0.0619614 0.0906995 0.122621 0.156533 0.191741 0.227783 0.264359 0.301332 0.338639 0.376273 0.414263 0.452533 0.489827 0.526821 0.563006 0.599125 0.634106 0.669231 0.703038 0.736438 0.769727 0.800975 0.832105 0.859685 0.88333 0.904211 0.917205 0.925934 0.931655 0.932678 0.933065 0.933103 0.932956 0.932578 0.932007 0.931361 0.930858 0.930416 0.929955 0.92956 0.929251 0.929019 0.928847 0.928719 0.928617 0.928533 0.928464 0.928409 0.928361 0.92832 0.928283 0.928261 0.92828 0.928265 0.928088 0.927564 0.92659 0.924601 0.920385 0.911799 0.895136 0.864578 0.812509 0.731704 0.619708 0.484453 0.343319 0.216956 0.120038 0.0578325 0.0247763 0.00982844 0.00374233 0.00139598 0.000514684 0.000188144 6.82443e-05 2.45586e-05 8.76397e-06 3.09963e-06 1.08587e-06 3.76585e-07 1.29224e-07 4.38553e-08 1.47134e-08 4.87811e-09 1.59765e-09 5.16708e-10 1.64567e-10 5.18452e-11 1.58173e-11 4.20423e-12 1.44812e-12 -1.33141e-13 -2.97073e-13 2.33943e-13 1.29295e-14 9.675e-14 -6.57098e-14 -7.38528e-13 2.73329e-13 -6.90735e-13 2.83733e-13 -2.07844e-13 -3.54993e-13 -6.96309e-14 -2.80145e-15 -2.25699e-13 -3.96265e-13 -7.85761e-13 -1.22133e-13 1.32864e-13 -5.51028e-13 -1.41927e-13 6.7614e-13 2.17213e-13 -7.12486e-13 2.50332e-13 8.56788e-13 1.05418e-12 4.64264e-13 -3.61191e-13 -4.10752e-13 5.56293e-14 3.34541e-13 0 0 -9.98651e-16 1.46969e-14 1.0425e-14 1.93914e-15 2.46231e-14 3.78167e-14 -4.52079e-14 1.51462e-14 -5.3343e-14 -3.60116e-15 -1.7038e-14 -9.90431e-15 -4.51647e-14 2.52582e-14 3.62543e-14 -3.82773e-14 2.34889e-14 -6.02277e-14 -3.19839e-14 -6.4162e-14 -1.01608e-13 -9.11767e-14 -1.59494e-13 1.41044e-13 -6.0454e-14 -1.69503e-13 -6.18492e-14 2.59472e-14 -1.28061e-13 -4.58044e-14 -1.55573e-13 -1.00381e-13 -5.67463e-14 1.44606e-13 -4.91907e-14 9.55748e-14 2.70422e-15 -1.63732e-13 2.2416e-14 -3.07321e-13 -8.99738e-14 -9.37914e-14 7.1271e-14 -3.28327e-13 -2.37588e-13 3.41481e-15 -2.05127e-13 6.24109e-14 2.61476e-13 1.54282e-13 -3.29721e-13 1.89283e-13 -3.92084e-13 2.68214e-13 -2.28095e-13 -3.24451e-14 3.42001e-13 1.87287e-12 1.6226e-11 1.23997e-10 8.99005e-10 6.09336e-09 3.84342e-08 2.24696e-07 1.21219e-06 6.00376e-06 2.71349e-05 0.000111108 0.000408579 0.00133527 0.00383243 0.00954999 0.0205123 0.0380652 0.0619614 0.0906995 0.122621 0.156533 0.191741 0.227783 0.264359 0.301332 0.338639 0.376273 0.414263 0.452533 0.489827 0.526821 0.563006 0.599125 0.634106 0.669231 0.703038 0.736438 0.769727 0.800975 0.832105 0.859685 0.88333 0.904211 0.917205 0.925934 0.931655 0.932678 0.933065 0.933103 0.932956 0.932578 0.932007 0.931361 0.930858 0.930416 0.929955 0.92956 0.929251 0.929019 0.928847 0.928719 0.928617 0.928533 0.928464 0.928409 0.928361 0.92832 0.928283 0.928261 0.92828 0.928265 0.928088 0.927564 0.92659 0.924601 0.920385 0.911799 0.895136 0.864578 0.812509 0.731704 0.619708 0.484453 0.343319 0.216956 0.120038 0.0578325 0.0247763 0.00982844 0.00374233 0.00139598 0.000514684 0.000188144 6.82443e-05 2.45586e-05 8.76397e-06 3.09963e-06 1.08587e-06 3.76585e-07 1.29225e-07 4.38551e-08 1.47133e-08 4.87788e-09 1.59748e-09 5.16624e-10 1.65041e-10 5.18294e-11 1.55941e-11 4.43998e-12 9.01398e-13 -3.9353e-13 1.85586e-13 -4.06418e-14 6.82422e-14 3.0226e-13 -1.3427e-13 -2.91067e-13 3.67538e-14 -6.06546e-13 7.09669e-13 -3.55682e-13 -2.46587e-14 -4.40058e-13 -3.62085e-14 -3.73909e-13 -2.90123e-13 -2.66009e-13 -7.59802e-13 2.32023e-13 -7.32347e-14 -7.24738e-13 7.37046e-13 7.10766e-13 -6.46909e-13 3.47445e-13 5.0397e-13 5.8632e-13 1.38343e-13 4.09233e-13 -9.80947e-13 -3.08491e-13 4.53367e-13 0 0 4.68471e-15 -4.51556e-15 2.56213e-14 2.28566e-14 -8.13661e-15 -5.07099e-14 7.29712e-14 -2.22496e-14 2.80444e-14 -4.59638e-14 -1.82659e-14 -4.03035e-14 2.72266e-14 -9.61157e-14 4.16535e-14 5.6727e-14 -1.97641e-14 1.91184e-14 -2.101e-13 -1.38309e-13 1.35873e-13 -8.44066e-14 9.91443e-14 -2.14443e-13 -8.22344e-14 -1.36724e-14 -2.00967e-13 -7.86348e-14 7.31613e-14 -1.80786e-13 -2.07703e-13 -1.55982e-14 1.13226e-13 -7.81415e-14 6.26033e-14 3.10845e-14 1.64872e-13 -4.40698e-16 -3.10724e-13 -3.71233e-14 -1.88956e-13 -1.6482e-13 -1.52854e-13 -6.83308e-14 -1.93981e-13 -2.52459e-13 3.89481e-14 1.96536e-15 -1.20622e-13 -1.10915e-14 4.36098e-13 -1.0787e-13 -2.70095e-14 -5.92778e-13 1.30239e-13 2.36385e-13 3.69652e-13 1.67247e-12 1.62967e-11 1.24436e-10 8.98862e-10 6.09334e-09 3.8434e-08 2.24696e-07 1.21219e-06 6.00376e-06 2.71349e-05 0.000111108 0.000408579 0.00133527 0.00383243 0.00954999 0.0205123 0.0380652 0.0619614 0.0906995 0.122621 0.156533 0.191741 0.227783 0.264359 0.301332 0.338639 0.376273 0.414263 0.452533 0.489827 0.526821 0.563006 0.599125 0.634106 0.669231 0.703038 0.736438 0.769727 0.800975 0.832105 0.859685 0.88333 0.904211 0.917205 0.925934 0.931655 0.932678 0.933065 0.933103 0.932956 0.932578 0.932007 0.931361 0.930858 0.930416 0.929955 0.92956 0.929251 0.929019 0.928847 0.928719 0.928617 0.928533 0.928464 0.928409 0.928361 0.92832 0.928283 0.928261 0.92828 0.928265 0.928088 0.927564 0.92659 0.924601 0.920385 0.911799 0.895136 0.864578 0.812509 0.731704 0.619708 0.484453 0.343319 0.216956 0.120038 0.0578325 0.0247763 0.00982844 0.00374233 0.00139598 0.000514684 0.000188144 6.82443e-05 2.45586e-05 8.76397e-06 3.09963e-06 1.08587e-06 3.76585e-07 1.29225e-07 4.38554e-08 1.4713e-08 4.87794e-09 1.59709e-09 5.16355e-10 1.65895e-10 5.05413e-11 1.59994e-11 4.94537e-12 3.78625e-13 4.45935e-13 -6.17284e-13 -3.95557e-13 4.53664e-13 -6.31375e-13 1.63602e-13 5.42471e-13 -3.33143e-13 4.21296e-13 -3.80527e-13 2.64507e-13 2.47389e-13 -4.05685e-13 -6.93768e-13 -1.60603e-13 -7.82139e-13 8.35866e-14 9.76378e-14 -6.11296e-13 1.97719e-13 9.40841e-13 -9.72185e-13 -2.42449e-13 1.29685e-12 -3.05719e-13 1.72134e-13 -5.58741e-13 -2.23969e-13 7.28226e-14 -2.34766e-13 1.97779e-13 -2.27741e-13 0
				</DataArray>
				<DataArray Name="VitesseY" type="Float32" format="ascii">