<?xml version="1.0"?>
<VTKFile type="PolyData">
	<PolyData>
		<Piece NumberOfPoints="1206" NumberOfPolys="1000">
			<Points>
				<DataArray type="Float32" NumberOfComponents="3" format="ascii">
 0 0 0 0.005 0 0 0.01 0 0 0.015 0 0 0.02 0 0 0.025 0 0 0.03 0 0 0.035 0 0 0.04 0 0 0.045 0 0 0.05 0 0 0.055 0 0 0.06 0 0 0.065 0 0 0.07 0 0 0.075 0 0 0.08 0 0 0.085 0 0 0.09 0 0 0.095 0 0 0.1 0 0 0.105 0 0 0.11 0 0 0.115 0 0 0.12 0 0 0.125 0 0 0.13 0 0 0.135 0 0 0.14 0 0 0.145 0 0 0.15 0 0 0.155 0 0 0.16 0 0 0.165 0 0 0.17 0 0 0.175 0 0 0.18 0 0 0.185 0 0 0.19 0 0 0.195 0 0 0.2 0 0 0.205 0 0 0.21 0 0 0.215 0 0 0.22 0 0 0.225 0 0 0.23 0 0 0.235 0 0 0.24 0 0 0.245 0 0 0.25 0 0 0.255 0 0 0.26 0 0 0.265 0 0 0.27 0 0 0.275 0 0 0.28 0 0 0.285 0 0 0.29 0 0 0.295 0 0 0.3 0 0 0.305 0 0 0.31 0 0 0.315 0 0 0.32 0 0 0.325 0 0 0.33 0 0 0.335 0 0 0.34 0 0 0.345 0 0 0.35 0 0 0.355 0 0 0.36 0 0 0.365 0 0 0.37 0 0 0.375 0 0 0.38 0 0 0.385 0 0 0.39 0 0 0.395 0 0 0.4 0 0 0.405 0 0 0.41 0 0 0.415 0 0 0.42 0 0 0.425 0 0 0.43 0 0 0.435 0 0 0.44 0 0 0.445 0 0 0.45 0 0 0.455 0 0 0.46 0 0 0.465 0 0 0.47 0 0 0.475 0 0 0.48 0 0 0.485 0 0 0.49 0 0 0.495 0 0 0.5 0 0 0.505 0 0 0.51 0 0 0.515 0 0 0.52 0 0 0.525 0 0 0.53 0 0 0.535 0 0 0.54 0 0 0.545 0 0 0.55 0 0 0.555 0 0 0.56 0 0 0.565 0 0 0.57 0 0 0.575 0 0 0.58 0 0 0.585 0 0 0.59 0 0 0.595 0 0 0.6 0 0 0.605 0 0 0.61 0 0 0.615 0 0 0.62 0 0 0.625 0 0 0.63 0 0 0.635 0 0 0.64 0 0 0.645 0 0 0.65 0 0 0.655 0 0 0.66 0 0 0.665 0 0 0.67 0 0 0.675 0 0 0.68 0 0 0.685 0 0 0.69 0 0 0.695 0 0 0.7 0 0 0.705 0 0 0.71 0 0 0.715 0 0 0.72 0 0 0.725 0 0 0.73 0 0 0.735 0 0 0.74 0 0 0.745 0 0 0.75 0 0 0.755 0 0 0.76 0 0 0.765 0 0 0.77 0 0 0.775 0 0 0.78 0 0 0.785 0 0 0.79 0 0 0.795 0 0 0.8 0 0 0.805 0 0 0.81 0 0 0.815 0 0 0.82 0 0 0.825 0 0 0.83 0 0 0.835 0 0 0.84 0 0 0.845 0 0 0.85 0 0 0.855 0 0 0.86 0 0 0.865 0 0 0.87 0 0 0.875 0 0 0.88 0 0 0.885 0 0 0.89 0 0 0.895 0 0 0.9 0 0 0.905 0 0 0.91 0 0 0.915 0 0 0.92 0 0 0.925 0 0 0.93 0 0 0.935 0 0 0.94 0 0 0.945 0 0 0.95 0 0 0.955 0 0 0.96 0 0 0.965 0 0 0.97 0 0 0.975 0 0 0.98 0 0 0.985 0 0 0.99 0 0 0.995 0 0 1 0 0 0 0.02 0 0.005 0.02 0 0.01 0.02 0 0.015 0.02 0 0.02 0.02 0 0.025 0.02 0 0.03 0.02 0 0.035 0.02 0 0.04 0.02 0 0.045 0.02 0 0.05 0.02 0 0.055 0.02 0 0.06 0.02 0 0.065 0.02 0 0.07 0.02 0 0.075 0.02 0 0.08 0.02 0 0.085 0.02 0 0.09 0.02 0 0.095 0.02 0 0.1 0.02 0 0.105 0.02 0 0.11 0.02 0 0.115 0.02 0 0.12 0.02 0 0.125 0.02 0 0.13 0.02 0 0.135 0.02 0 0.14 0.02 0 0.145 0.02 0 0.15 0.02 0 0.155 0.02 0 0.16 0.02 0 0.165 0.02 0 0.17 0.02 0 0.175 0.02 0 0.18 0.02 0 0.185 0.02 0 0.19 0.02 0 0.195 0.02 0 0.2 0.02 0 0.205 0.02 0 0.21 0.02 0 0.215 0.02 0 0.22 0.02 0 0.225 0.02 0 0.23 0.02 0 0.235 0.02 0 0.24 0.02 0 0.245 0.02 0 0.25 0.02 0 0.255 0.02 0 0.26 0.02 0 0.265 0.02 0 0.27 0.02 0 0.275 0.02 0 0.28 0.02 0 0.285 0.02 0 0.29 0.02 0 0.295 0.02 0 0.3 0.02 0 0.305 0.02 0 0.31 0.02 0 0.315 0.02 0 0.32 0.02 0 0.325 0.02 0 0.33 0.02 0 0.335 0.02 0 0.34 0.02 0 0.345 0.02 0 0.35 0.02 0 0.355 0.02 0 0.36 0.02 0 0.365 0.02 0 0.37 0.02 0 0.375 0.02 0 0.38 0.02 0 0.385 0.02 0 0.39 0.02 0 0.395 0.02 0 0.4 0.02 0 0.405 0.02 0 0.41 0.02 0 0.415 0.02 0 0.42 0.02 0 0.425 0.02 0 0.43 0.02 0 0.435 0.02 0 0.44 0.02 0 0.445 0.02 0 0.45 0.02 0 0.455 0.02 0 0.46 0.02 0 0.465 0.02 0 0.47 0.02 0 0.475 0.02 0 0.48 0.02 0 0.485 0.02 0 0.49 0.02 0 0.495 0.02 0 0.5 0.02 0 0.505 0.02 0 0.51 0.02 0 0.515 0.02 0 0.52 0.02 0 0.525 0.02 0 0.53 0.02 0 0.535 0.02 0 0.54 0.02 0 0.545 0.02 0 0.55 0.02 0 0.555 0.02 0 0.56 0.02 0 0.565 0.02 0 0.57 0.02 0 0.575 0.02 0 0.58 0.02 0 0.585 0.02 0 0.59 0.02 0 0.595 0.02 0 0.6 0.02 0 0.605 0.02 0 0.61 0.02 0 0.615 0.02 0 0.62 0.02 0 0.625 0.02 0 0.63 0.02 0 0.635 0.02 0 0.64 0.02 0 0.645 0.02 0 0.65 0.02 0 0.655 0.02 0 0.66 0.02 0 0.665 0.02 0 0.67 0.02 0 0.675 0.02 0 0.68 0.02 0 0.685 0.02 0 0.69 0.02 0 0.695 0.02 0 0.7 0.02 0 0.705 0.02 0 0.71 0.02 0 0.715 0.02 0 0.72 0.02 0 0.725 0.02 0 0.73 0.02 0 0.735 0.02 0 0.74 0.02 0 0.745 0.02 0 0.75 0.02 0 0.755 0.02 0 0.76 0.02 0 0.765 0.02 0 0.77 0.02 0 0.775 0.02 0 0.78 0.02 0 0.785 0.02 0 0.79 0.02 0 0.795 0.02 0 0.8 0.02 0 0.805 0.02 0 0.81 0.02 0 0.815 0.02 0 0.82 0.02 0 0.825 0.02 0 0.83 0.02 0 0.835 0.02 0 0.84 0.02 0 0.845 0.02 0 0.85 0.02 0 0.855 0.02 0 0.86 0.02 0 0.865 0.02 0 0.87 0.02 0 0.875 0.02 0 0.88 0.02 0 0.885 0.02 0 0.89 0.02 0 0.895 0.02 0 0.9 0.02 0 0.905 0.02 0 0.91 0.02 0 0.915 0.02 0 0.92 0.02 0 0.925 0.02 0 0.93 0.02 0 0.935 0.02 0 0.94 0.02 0 0.945 0.02 0 0.95 0.02 0 0.955 0.02 0 0.96 0.02 0 0.965 0.02 0 0.97 0.02 0 0.975 0.02 0 0.98 0.02 0 0.985 0.02 0 0.99 0.02 0 0.995 0.02 0 1 0.02 0 0 0.04 0 0.005 0.04 0 0.01 0.04 0 0.015 0.04 0 0.02 0.04 0 0.025 0.04 0 0.03 0.04 0 0.035 0.04 0 0.04 0.04 0 0.045 0.04 0 0.05 0.04 0 0.055 0.04 0 0.06 0.04 0 0.065 0.04 0 0.07 0.04 0 0.075 0.04 0 0.08 0.04 0 0.085 0.04 0 0.09 0.04 0 0.095 0.04 0 0.1 0.04 0 0.105 0.04 0 0.11 0.04 0 0.115 0.04 0 0.12 0.04 0 0.125 0.04 0 0.13 0.04 0 0.135 0.04 0 0.14 0.04 0 0.145 0.04 0 0.15 0.04 0 0.155 0.04 0 0.16 0.04 0 0.165 0.04 0 0.17 0.04 0 0.175 0.04 0 0.18 0.04 0 0.185 0.04 0 0.19 0.04 0 0.195 0.04 0 0.2 0.04 0 0.205 0.04 0 0.21 0.04 0 0.215 0.04 0 0.22 0.04 0 0.225 0.04 0 0.23 0.04 0 0.235 0.04 0 0.24 0.04 0 0.245 0.04 0 0.25 0.04 0 0.255 0.04 0 0.26 0.04 0 0.265 0.04 0 0.27 0.04 0 0.275 0.04 0 0.28 0.04 0 0.285 0.04 0 0.29 0.04 0 0.295 0.04 0 0.3 0.04 0 0.305 0.04 0 0.31 0.04 0 0.315 0.04 0 0.32 0.04 0 0.325 0.04 0 0.33 0.04 0 0.335 0.04 0 0.34 0.04 0 0.345 0.04 0 0.35 0.04 0 0.355 0.04 0 0.36 0.04 0 0.365 0.04 0 0.37 0.04 0 0.375 0.04 0 0.38 0.04 0 0.385 0.04 0 0.39 0.04 0 0.395 0.04 0 0.4 0.04 0 0.405 0.04 0 0.41 0.04 0 0.415 0.04 0 0.42 0.04 0 0.425 0.04 0 0.43 0.04 0 0.435 0.04 0 0.44 0.04 0 0.445 0.04 0 0.45 0.04 0 0.455 0.04 0 0.46 0.04 0 0.465 0.04 0 0.47 0.04 0 0.475 0.04 0 0.48 0.04 0 0.485 0.04 0 0.49 0.04 0 0.495 0.04 0 0.5 0.04 0 0.505 0.04 0 0.51 0.04 0 0.515 0.04 0 0.52 0.04 0 0.525 0.04 0 0.53 0.04 0 0.535 0.04 0 0.54 0.04 0 0.545 0.04 0 0.55 0.04 0 0.555 0.04 0 0.56 0.04 0 0.565 0.04 0 0.57 0.04 0 0.575 0.04 0 0.58 0.04 0 0.585 0.04 0 0.59 0.04 0 0.595 0.04 0 0.6 0.04 0 0.605 0.04 0 0.61 0.04 0 0.615 0.04 0 0.62 0.04 0 0.625 0.04 0 0.63 0.04 0 0.635 0.04 0 0.64 0.04 0 0.645 0.04 0 0.65 0.04 0 0.655 0.04 0 0.66 0.04 0 0.665 0.04 0 0.67 0.04 0 0.675 0.04 0 0.68 0.04 0 0.685 0.04 0 0.69 0.04 0 0.695 0.04 0 0.7 0.04 0 0.705 0.04 0 0.71 0.04 0 0.715 0.04 0 0.72 0.04 0 0.725 0.04 0 0.73 0.04 0 0.735 0.04 0 0.74 0.04 0 0.745 0.04 0 0.75 0.04 0 0.755 0.04 0 0.76 0.04 0 0.765 0.04 0 0.77 0.04 0 0.775 0.04 0 0.78 0.04 0 0.785 0.04 0 0.79 0.04 0 0.795 0.04 0 0.8 0.04 0 0.805 0.04 0 0.81 0.04 0 0.815 0.04 0 0.82 0.04 0 0.825 0.04 0 0.83 0.04 0 0.835 0.04 0 0.84 0.04 0 0.845 0.04 0 0.85 0.04 0 0.855 0.04 0 0.86 0.04 0 0.865 0.04 0 0.87 0.04 0 0.875 0.04 0 0.88 0.04 0 0.885 0.04 0 0.89 0.04 0 0.895 0.04 0 0.9 0.04 0 0.905 0.04 0 0.91 0.04 0 0.915 0.04 0 0.92 0.04 0 0.925 0.04 0 0.93 0.04 0 0.935 0.04 0 0.94 0.04 0 0.945 0.04 0 0.95 0.04 0 0.955 0.04 0 0.96 0.04 0 0.965 0.04 0 0.97 0.04 0 0.975 0.04 0 0.98 0.04 0 0.985 0.04 0 0.99 0.04 0 0.995 0.04 0 1 0.04 0 0 0.06 0 0.005 0.06 0 0.01 0.06 0 0.015 0.06 0 0.02 0.06 0 0.025 0.06 0 0.03 0.06 0 0.035 0.06 0 0.04 0.06 0 0.045 0.06 0 0.05 0.06 0 0.055 0.06 0 0.06 0.06 0 0.065 0.06 0 0.07 0.06 0 0.075 0.06 0 0.08 0.06 0 0.085 0.06 0 0.09 0.06 0 0.095 0.06 0 0.1 0.06 0 0.105 0.06 0 0.11 0.06 0 0.115 0.06 0 0.12 0.06 0 0.125 0.06 0 0.13 0.06 0 0.135 0.06 0 0.14 0.06 0 0.145 0.06 0 0.15 0.06 0 0.155 0.06 0 0.16 0.06 0 0.165 0.06 0 0.17 0.06 0 0.175 0.06 0 0.18 0.06 0 0.185 0.06 0 0.19 0.06 0 0.195 0.06 0 0.2 0.06 0 0.205 0.06 0 0.21 0.06 0 0.215 0.06 0 0.22 0.06 0 0.225 0.06 0 0.23 0.06 0 0.235 0.06 0 0.24 0.06 0 0.245 0.06 0 0.25 0.06 0 0.255 0.06 0 0.26 0.06 0 0.265 0.06 0 0.27 0.06 0 0.275 0.06 0 0.28 0.06 0 0.285 0.06 0 0.29 0.06 0 0.295 0.06 0 0.3 0.06 0 0.305 0.06 0 0.31 0.06 0 0.315 0.06 0 0.32 0.06 0 0.325 0.06 0 0.33 0.06 0 0.335 0.06 0 0.34 0.06 0 0.345 0.06 0 0.35 0.06 0 0.355 0.06 0 0.36 0.06 0 0.365 0.06 0 0.37 0.06 0 0.375 0.06 0 0.38 0.06 0 0.385 0.06 0 0.39 0.06 0 0.395 0.06 0 0.4 0.06 0 0.405 0.06 0 0.41 0.06 0 0.415 0.06 0 0.42 0.06 0 0.425 0.06 0 0.43 0.06 0 0.435 0.06 0 0.44 0.06 0 0.445 0.06 0 0.45 0.06 0 0.455 0.06 0 0.46 0.06 0 0.465 0.06 0 0.47 0.06 0 0.475 0.06 0 0.48 0.06 0 0.485 0.06 0 0.49 0.06 0 0.495 0.06 0 0.5 0.06 0 0.505 0.06 0 0.51 0.06 0 0.515 0.06 0 0.52 0.06 0 0.525 0.06 0 0.53 0.06 0 0.535 0.06 0 0.54 0.06 0 0.545 0.06 0 0.55 0.06 0 0.555 0.06 0 0.56 0.06 0 0.565 0.06 0 0.57 0.06 0 0.575 0.06 0 0.58 0.06 0 0.585 0.06 0 0.59 0.06 0 0.595 0.06 0 0.6 0.06 0 0.605 0.06 0 0.61 0.06 0 0.615 0.06 0 0.62 0.06 0 0.625 0.06 0 0.63 0.06 0 0.635 0.06 0 0.64 0.06 0 0.645 0.06 0 0.65 0.06 0 0.655 0.06 0 0.66 0.06 0 0.665 0.06 0 0.67 0.06 0 0.675 0.06 0 0.68 0.06 0 0.685 0.06 0 0.69 0.06 0 0.695 0.06 0 0.7 0.06 0 0.705 0.06 0 0.71 0.06 0 0.715 0.06 0 0.72 0.06 0 0.725 0.06 0 0.73 0.06 0 0.735 0.06 0 0.74 0.06 0 0.745 0.06 0 0.75 0.06 0 0.755 0.06 0 0.76 0.06 0 0.765 0.06 0 0.77 0.06 0 0.775 0.06 0 0.78 0.06 0 0.785 0.06 0 0.79 0.06 0 0.795 0.06 0 0.8 0.06 0 0.805 0.06 0 0.81 0.06 0 0.815 0.06 0 0.82 0.06 0 0.825 0.06 0 0.83 0.06 0 0.835 0.06 0 0.84 0.06 0 0.845 0.06 0 0.85 0.06 0 0.855 0.06 0 0.86 0.06 0 0.865 0.06 0 0.87 0.06 0 0.875 0.06 0 0.88 0.06 0 0.885 0.06 0 0.89 0.06 0 0.895 0.06 0 0.9 0.06 0 0.905 0.06 0 0.91 0.06 0 0.915 0.06 0 0.92 0.06 0 0.925 0.06 0 0.93 0.06 0 0.935 0.06 0 0.94 0.06 0 0.945 0.06 0 0.95 0.06 0 0.955 0.06 0 0.96 0.06 0 0.965 0.06 0 0.97 0.06 0 0.975 0.06 0 0.98 0.06 0 0.985 0.06 0 0.99 0.06 0 0.995 0.06 0 1 0.06 0 0 0.08 0 0.005 0.08 0 0.01 0.08 0 0.015 0.08 0 0.02 0.08 0 0.025 0.08 0 0.03 0.08 0 0.035 0.08 0 0.04 0.08 0 0.045 0.08 0 0.05 0.08 0 0.055 0.08 0 0.06 0.08 0 0.065 0.08 0 0.07 0.08 0 0.075 0.08 0 0.08 0.08 0 0.085 0.08 0 0.09 0.08 0 0.095 0.08 0 0.1 0.08 0 0.105 0.08 0 0.11 0.08 0 0.115 0.08 0 0.12 0.08 0 0.125 0.08 0 0.13 0.08 0 0.135 0.08 0 0.14 0.08 0 0.145 0.08 0 0.15 0.08 0 0.155 0.08 0 0.16 0.08 0 0.165 0.08 0
[...]
			<PointData Scalars="VitesseX">
				<DataArray Name="VitesseX" type="Float32" format="ascii">
 0 1.46323e-14 -5.20169e-14 6.13857e-14 -2.65135e-14 -4.68088e-14 -1.02465e-13 1.67912e-14 -3.73593e-14 3.0078e-14 -4.78526e-14 -1.46482e-13 1.67751e-13 -2.58345e-13 4.0532e-14 -3.93185e-14 -1.05577e-13 1.49986e-13 -1.00559e-13 -1.87383e-14 -1.51291e-14 8.45406e-14 3.71282e-14 -2.10495e-13 -2.44507e-13 -8.87669e-16 2.86873e-13 2.55197e-13 -1.7999e-13 -5.44932e-15 -4.46412e-13 -6.83703e-14 -1.06788e-15 2.32231e-13 -2.80079e-14 -1.44733e-13 2.56229e-13 -2.68892e-13 -5.21746e-14 -3.21562e-13 2.97676e-13 -5.13499e-14 4.87056e-14 -3.93846e-13 1.1862e-13 7.1013e-14 7.91934e-13 -6.64482e-13 -2.04647e-14 -5.21724e-13 -6.36335e-14 5.94118e-13 -4.57019e-13 2.19576e-13 -9.98704e-13 3.24316e-13 8.78233e-13 -7.41533e-13 6.88228e-13 -5.5176e-13 -2.51637e-15 6.91932e-14 -1.02467e-13 3.18909e-13 -2.36346e-13 -2.36865e-15 3.87233e-14 -6.68077e-13 6.44491e-13 -1.97957e-14 -2.07446e-13 4.25635e-13 -1.3413e-12 9.04303e-13 -6.71385e-14 1.53164e-13 -3.18729e-13 -3.60004e-13 9.96732e-13 -5.60045e-13 1.60621e-13 1.7042e-13 -5.04277e-13 5.53786e-14 -7.65534e-13 1.03458e-12 2.41472e-12 6.49382e-11 1.9405e-09 4.81009e-08 9.8174e-07 1.61224e-05 0.000206609 0.0019803 0.0133805 0.0594379 0.167926 0.328733 0.526981 0.671625 0.810231 0.867544 0.920975 0.941623 0.94203 0.898581 0.79169 0.645618 0.464944 0.283041 0.140402 0.0538995 0.0161476 0.00408172 0.000931971 0.000197819 3.93882e-05 7.38002e-06 1.30346e-06 2.1733e-07 3.42556e-08 5.11138e-09 7.23557e-10 9.7144e-11 1.27997e-11 1.31628e-12 -9.5443e-13 7.80049e-13 3.23587e-14 5.98474e-13 -2.69244e-13 -1.01652e-12 5.84234e-13 1.0674e-13 1.68634e-13 -8.57486e-13 -1.51945e-12 3.8668e-13 5.05022e-13 2.59172e-13 -2.86482e-13 -2.74897e-13 -6.40069e-13 -2.05174e-13 1.40786e-12 1.30546e-13 -1.49221e-13 4.378e-13 -2.20636e-14 1.16402e-12 -6.76425e-13 -4.50455e-13 2.69425e-13 -2.99553e-13 9.83487e-13 -5.37894e-14 -1.22759e-12 2.82328e-13 5.66448e-13 6.94967e-13 -7.56606e-13 -1.8004e-12 2.78898e-13 1.11887e-12 6.5884e-13 -9.42182e-13 -1.2448e-12 7.53266e-13 6.34252e-14 -2.90615e-13 9.20495e-13 3.13493e-13 8.65937e-14 -8.73487e-13 8.52461e-14 9.16044e-13 2.03861e-13 -1.36321e-13 -1.00144e-12 1.69366e-13 7.56771e-13 1.88184e-13 -1.67412e-13 -9.51337e-13 -3.82756e-13 2.53101e-13 -7.04975e-13 -5.70099e-13 -1.37382e-12 1.32038e-13 2.08688e-12 -1.06523e-12 -9.67686e-14 -1.79951e-12 2.26842e-12 2.27547e-13 -1.20624e-12 4.03818e-13 7.04456e-13 1.90872e-12 0 0 -2.53562e-14 1.2793e-14 -5.80315e-14 -1.14444e-14 -8.9851e-15 -6.54345e-15 -8.43581e-14 -2.93607e-14 -8.5263e-14 -8.48877e-14 6.67004e-14 -1.51997e-13 8.73436e-14 -1.84117e-13 1.57651e-14 6.58994e-14 -2.46132e-13 8.50429e-14 7.12425e-14 6.21968e-14 -3.22135e-14 -9.84751e-14 -9.12258e-14 -9.99011e-14 -5.14017e-15 1.44453e-13 8.87214e-15 1.46726e-13 -1.96456e-13 -8.25565e-14 -3.83354e-13 -3.72272e-14 1.5027e-13 1.38737e-13 6.9229e-14 -3.29685e-13 4.18482e-14 -2.92045e-13 2.24203e-13 -7.78915e-15 4.01077e-14 -1.56062e-13 6.37282e-14 -1.35477e-13 2.32919e-13 -3.83246e-13 3.51371e-13 -4.13601e-13 1.11849e-13 -1.3787e-13 -4.34333e-13 2.23568e-13 -6.50747e-13 4.55774e-13 1.33445e-13 -4.16593e-13 6.58481e-13 -5.65845e-13 3.83134e-13 -1.82156e-13 -1.06813e-13 3.52711e-13 -2.48287e-14 1.13363e-13 -1.69118e-13 -3.91742e-13 2.38349e-13 -7.45935e-14 -1.7047e-13 2.25471e-13 -5.79385e-13 3.5504e-13 -5.09213e-13 1.05654e-13 -1.88755e-13 3.08332e-13 2.45707e-13 -5.70752e-13 4.80253e-13 -4.88979e-13 7.89207e-14 4.21637e-13 -6.52457e-13 1.07146e-13 3.7383e-13 1.65633e-12 6.64156e-11 1.94115e-09 4.80992e-08 9.81741e-07 1.61224e-05 0.000206609 0.0019803 0.0133805 0.0594379 0.167926 0.328733 0.526981 0.671625 0.810231 0.867544 0.920975 0.941623 0.94203 0.898581 0.79169 0.645618 0.464944 0.283041 0.140402 0.0538995 0.0161476 0.00408172 0.000931971 0.000197819 3.93882e-05 7.38002e-06 1.30346e-06 2.17329e-07 3.42564e-08 5.11149e-09 7.2293e-10 9.73379e-11 1.20079e-11 1.61508e-12 7.46293e-14 -4.09119e-14 3.84993e-13 -4.29479e-13 1.71439e-13 -7.48297e-14 1.29034e-13 -1.97672e-14 -4.86983e-13 -3.06003e-13 -5.5887e-13 -4.1196e-13 5.18588e-13 3.60135e-13 -1.98721e-13 -2.33804e-13 -3.63862e-13 -2.27012e-13 1.15451e-13 5.29762e-13 8.78421e-13 -2.51351e-13 2.65698e-13 -3.76119e-13 5.90061e-13 2.29716e-13 -6.31371e-13 4.36194e-13 -3.18693e-13 1.51107e-13 1.84065e-13 1.60822e-13 -1.41926e-13 -6.56799e-13 3.53633e-13 7.95318e-14 -1.21957e-13 -6.27707e-13 -4.93271e-13 3.99423e-13 -6.55764e-14 -1.49744e-13 3.8678e-13 -1.58225e-13 1.63185e-13 1.87568e-13 1.35259e-13 4.97684e-13 -3.23359e-13 -1.96287e-13 2.69932e-14 2.03266e-13 7.16556e-13 -3.21943e-13 -3.19998e-13 -5.57007e-14 -1.88132e-13 5.87082e-13 -7.98461e-13 -6.98519e-13 -5.85247e-13 -7.73465e-13 3.3631e-13 -7.63348e-14 -7.36464e-13 1.01152e-12 -6.51243e-13 1.76436e-13 -1.34159e-12 2.17306e-13 1.62319e-12 1.41281e-13 1.14759e-12 -1.04333e-12 0 0 -2.81798e-14 -1.69411e-14 -1.63282e-14 -8.65769e-14 -1.42359e-14 -1.89136e-15 -5.36207e-14 -1.25617e-13 -4.57621e-14 -2.82501e-14 -1.21513e-13 1.71954e-14 1.77415e-14 1.2857e-14 -7.66416e-14 -7.04096e-14 -2.38543e-14 -1.21538e-14 3.10777e-14 2.11706e-14 -4.82591e-14 -2.7635e-13 9.55402e-15 1.40918e-13 -3.46188e-14 -1.38788e-14 -1.16839e-14 5.93511e-14 -5.92944e-14 -2.79823e-13 -1.52959e-13 -2.09506e-13 7.64128e-14 1.96797e-13 5.5837e-15 -3.43741e-14 -2.16952e-13 2.11247e-14 -4.42895e-14 -8.2413e-14 -1.78802e-13 3.95886e-14 1.69749e-13 4.02017e-14 -1.12387e-13 -2.45637e-13 -1.54356e-13 -8.4194e-14 -6.20755e-14 -4.00253e-14 -2.96029e-13 -3.49996e-13 2.04255e-13 4.90034e-13 -7.55444e-14 -5.3863e-13 -3.30598e-13 6.14954e-13 1.8943e-13 -7.92645e-14 -1.80519e-13 3.02922e-13 3.2441e-13 -1.03007e-13 -2.36951e-13 -2.82735e-13 1.4035e-13 9.64625e-14 -5.56429e-13 -3.69894e-13 3.64153e-13 2.88211e-13 -2.9301e-13 -7.79975e-13 2.14046e-13 5.18394e-13 -2.99893e-13 -3.90044e-13 -6.25383e-13 7.73178e-13 -4.53529e-13 2.64959e-13 8.21337e-13 -5.53578e-14 -1.01483e-12 1.72223e-12 6.6664e-11 1.9412e-09 4.81001e-08 9.81739e-07 1.61224e-05 0.000206609 0.0019803 0.0133805 0.0594379 0.167926 0.328733 0.526981 0.671625 0.810231 0.867544 0.920975 0.941623 0.94203 0.898581 0.79169 0.645618 0.464944 0.283041 0.140402 0.0538995 0.0161476 0.00408172 0.000931971 0.000197819 3.93882e-05 7.38002e-06 1.30346e-06 2.17329e-07 3.42559e-08 5.11224e-09 7.23015e-10 9.64994e-11 1.21706e-11 9.42852e-13 1.33334e-12 -2.4777e-14 -6.96081e-13 8.60686e-15 -6.2465e-13 1.38358e-12 -3.13539e-13 -2.62294e-13 -2.32859e-13 -9.73902e-13 8.1775e-13 -4.64882e-13 -8.27738e-13 3.03325e-13 -2.14114e-13 5.06622e-13 7.53688e-13 -8.76707e-13 -8.7747e-13 1.11047e-12 5.2164e-14 1.1554e-12 -6.96462e-13 -4.04574e-13 4.98689e-13 -3.11176e-13 6.8566e-13 -1.66455e-13 -3.18821e-13 -1.09575e-12 1.48994e-12 6.77341e-13 -3.46215e-13 -8.8663e-13 -2.48736e-13 1.06025e-12 -5.62256e-13 -7.66682e-13 -5.05659e-13 5.39519e-14 9.72751e-13 -7.44345e-13 -6.58957e-13 6.5594e-13 6.88305e-14 6.6808e-13 4.67636e-13 -4.34277e-13 6.27203e-14 -9.16419e-13 8.79965e-13 7.48563e-13 -4.67841e-13 -2.01781e-13 -6.55578e-13 2.74541e-13 5.19254e-13 -4.69511e-13 -1.82792e-13 -1.12437e-12 -3.36646e-13 -1.97863e-14 -8.16494e-13 5.63896e-13 -1.19226e-12 3.73974e-14 1.586e-12 -6.92377e-13 -1.87544e-12 6.72463e-13 1.41772e-12 1.33886e-12 -1.39258e-12 -6.92331e-14 0 0 3.54808e-14 -2.08331e-14 -7.33181e-15 -1.91349e-14 -6.82257e-14 -1.30335e-13 -8.94047e-14 -6.68359e-14 -7.44747e-14 2.928e-14 -4.90402e-14 1.03551e-13 -9.47491e-14 -5.23707e-14 -3.69897e-14 -1.48978e-13 -6.81776e-16 2.23741e-14 -1.20538e-13 -1.88774e-13 3.4638e-14 1.0372e-13 -6.61705e-15 -1.58082e-13 7.04156e-14 1.53074e-13 -1.15473e-13 -2.22508e-13 5.80521e-14 -1.4285e-13 -2.09483e-13 5.58936e-14 5.52797e-14 -1.29262e-13 9.20534e-14 2.96371e-13 -8.88004e-14 -1.12871e-13 -3.35896e-13 -1.58246e-13 -1.95183e-13 1.30805e-13 -2.08566e-13 2.59442e-13 2.42261e-13 2.23204e-13 -7.14382e-13 -3.03616e-13 -5.10916e-13 1.13567e-13 5.21459e-13 -6.96249e-14 -2.71424e-13 -2.88345e-13 2.02693e-13 6.08886e-14 1.16271e-13 1.68383e-13 -3.75861e-13 -2.32218e-13 -5.0457e-15 2.63916e-13 3.10234e-13 -1.25206e-13 -1.87664e-13 -3.25918e-13 -9.40494e-14 1.07282e-13 5.37588e-13 -1.69454e-13 -2.96259e-14 -4.39259e-13 -2.91187e-14 1.23904e-13 -3.88023e-14 -6.09469e-13 -2.49049e-13 6.6813e-15 -6.30759e-13 5.23108e-14 3.11069e-13 2.72602e-13 -4.03489e-13 1.10848e-13 1.29011e-13 1.51406e-12 6.52759e-11 1.94068e-09 4.81017e-08 9.8174e-07 1.61224e-05 0.000206609 0.0019803 0.0133805 0.0594379 0.167926 0.328733 0.526981 0.671625 0.810231 0.867544 0.920975 0.941623 0.94203 0.898581 0.79169 0.645618 0.464944 0.283041 0.140402 0.0538995 0.0161476 0.00408172 0.000931971 0.000197819 3.93882e-05 7.38002e-06 1.30346e-06 2.17329e-07 3.42556e-08 5.11176e-09 7.23189e-10 9.7116e-11 1.22609e-11 1.05853e-12 2.31807e-13 2.67101e-13 9.79064e-14 -2.13646e-13 -2.22202e-13 1.43996e-13 -8.87446e-14 1.31871e-13 -1.30009e-13 -5.83128e-13 -4.72295e-13 -4.04599e-13 -3.67551e-13 -9.06301e-13 4.63733e-13 1.38572e-12 -5.66611e-13 5.99647e-14 -1.93772e-13 1.0774e-13 3.35231e-13 4.74892e-13 -1.22352e-13 -3.19605e-13 -6.17529e-13 8.83361e-13 7.66973e-13 1.56762e-14 -4.0699e-13 -9.02972e-13 -2.47778e-13 -8.20301e-14 9.25674e-13 9.52048e-13 -8.44387e-13 -1.03979e-12 -7.32697e-13 7.42476e-13 -3.10847e-13 -1.30656e-12 3.21045e-13 9.53819e-13 2.50371e-13 -1.30958e-12 2.76779e-13 1.32566e-12 2.17012e-13 -8.14536e-13 -4.45806e-13 7.40868e-13 1.12506e-12 -2.14983e-13 -1.04792e-12 -7.18179e-13 3.54812e-13 1.36737e-12 -4.48127e-13 -1.2353e-12 -3.65922e-13 -3.07983e-13 2.22156e-13 -1.44913e-12 -1.07971e-12 -1.3533e-13 2.97305e-12 3.85934e-14 -1.87161e-12 -1.72101e-12 5.57334e-13 9.98443e-13 -2.93528e-14 -2.02048e-14 2.08647e-13 8.22184e-13 0 0 1.72084e-14 2.20214e-14 -5.37365e-14 2.25643e-14 -7.93711e-14 -1.05198e-13 -1.63891e-13 -4.48165e-14 -8.63739e-14 -2.51192e-14 1.36379e-13 -1.5502e-13 6.01229e-16 -1.58355e-13 5.45477e-14 2.55381e-14 -2.70681e-13 3.78881e-14 -8.47487e-15 -1.38947e-13 -2.6161e-14 1.03476e-13 -1.27489e-13 -2.47764e-13 5.7974e-16 5.3942e-15 -1.96752e-13 -3.69423e-14 -1.20199e-13 1.64412e-13 -2.00153e-13 1.79894e-13 1.42221e-13 1.05188e-13 2.89908e-13 1.18121e-14 2.90423e-14 -2.86366e-13 -1.50803e-13 -3.60701e-13 -1.14433e-13 -2.62433e-13 -7.30087e-14 4.94567e-14 2.11205e-13 -2.06934e-13 -7.73089e-14 -5.24563e-13 -4.2502e-14 -5.98712e-14 -8.11023e-14 1.47674e-13 -7.14498e-13 2.19033e-13 2.99962e-13 -3.0463e-13 8.08445e-13 -6.89074e-13 1.69173e-13 -2.80532e-13 4.42138e-14 3.91597e-13 -5.0221e-14 1.3192e-13 -1.897e-13 -5.42122e-13 1.53926e-13 -9.83482e-14 6.22238e-13 4.56387e-13 -3.20806e-13 3.68687e-13 -5.58307e-13 4.046e-13 -5.63165e-13 -7.33575e-13 6.50603e-14 -9.14822e-13 5.50056e-14 -5.48821e-13 3.36413e-13 6.75732e-14 -1.58824e-12 3.59581e-13 9.20878e-13 1.36967e-12 6.58422e-11 1.94105e-09 4.80997e-08 9.81741e-07 1.61224e-05 0.000206609 0.0019803 0.0133805 0.0594379 0.167926 0.328733 0.526981 0.671625 0.810231 0.867544 0.920975 0.941623 0.94203 0.898581 0.79169 0.645618 0.464944 0.283041 0.140402 0.0538995 0.0161476 0.00408172 0.000931971 0.000197819 3.93882e-05 7.38002e-06 1.30346e-06 2.17329e-07 3.42563e-08 5.11109e-09 7.22907e-10 9.74675e-11 1.24716e-11 1.85857e-12 -2.24962e-13 -5.60449e-13 4.02296e-13 -3.73375e-13 8.00566e-13 -6.31248e-13 1.53796e-13 -5.59981e-13 -3.16933e-13 5.51649e-13 -1.18533e-12 -1.10405e-12 1.67286e-13 -4.34506e-13 6.49381e-13 2.87437e-13 -1.00202e-12 -5.40477e-14 8.24268e-13 8.06336e-13 1.36559e-12 -7.04147e-13 7.8601e-13 -5.0523e-13 1.85245e-13 5.17893e-13 -7.42493e-13 1.59171e-13 -4.65194e-13 -6.39461e-14 -1.62315e-12 -1.15795e-12 2.40957e-13 1.94752e-12 9.11869e-13 -1.19922e-12 -1.77134e-12 -1.4853e-12 -1.33304e-12 4.75179e-13 1.89037e-13 1.92605e-12 3.15688e-13 -1.46612e-12 -5.30543e-13 7.0909e-14 7.34162e-13 1.2369e-12 1.85147e-13 -8.08743e-14 -9.854e-13 -3.89674e-13 1.31489e-12 9.97119e-15 -1.30707e-13 -2.84002e-13 -7.25599e-13 8.38006e-13 -2.16813e-13 -4.86292e-13 -1.44954e-12 -2.42809e-12 4.50168e-13 1.36563e-12 1.99919e-12 3.09923e-13 -3.02423e-12 -1.01018e-12 -9.97698e-14 6.92062e-13 1.73436e-12 -8.33937e-14 1.78458e-12 -1.09322e-12 0 0 -2.75598e-14 -2.5776e-14 5.19828e-14 -9.33801e-14 -7.96011e-14 -4.28877e-14 -7.07059e-14 -1.85833e-13 8.52814e-14 -4.33759e-14 -1.5207e-13 -1.10077e-14 -2.06848e-13 2.22511e-13 -4.10571e-14 -2.91638e-14 5.45434e-14 -2.63925e-13 1.25057e-13 2.47244e-15 -6.91488e-14 -3.19108e-13 -2.50678e-13 5.77667e-14 -1.99517e-13 -3.25151e-13 5.15257e-14 1.63917e-14 -8.76278e-14 -2.26422e-13 4.1108e-13 -9.76234e-14 2.58399e-13 5.57012e-13 1.23686e-13 2.77733e-13 -5.50807e-13 2.27173e-13 -4.88362e-13 -2.56482e-13 -3.27671e-13 -3.46469e-13 8.93089e-14 5.00065e-14 -6.8171e-13 2.06874e-13 -4.01789e-13 1.96455e-13 6.72548e-14 -2.1482e-13 -3.34396e-13 -1.16955e-12 1.04343e-12 8.4571e-14 1.00876e-13 -9.68796e-14 -1.33534e-12 1.33491e-12 1.509e-13 1.06639e-13 2.03017e-14 5.33164e-14 2.96477e-13 -1.54833e-13 -1.42105e-13 -1.7567e-13 -3.68124e-13 5.75342e-13 -6.22414e-13 -1.46495e-13 1.73035e-12 1.4093e-13 2.78334e-13 -1.277e-12 -8.99598e-14 -1.46818e-13 -8.22983e-13 -4.84857e-13 -1.39979e-12 1.48267e-12 -8.43792e-13 -1.22769e-12 6.33462e-13 -5.93076e-13 -1.59014e-13 2.25772e-12 6.65674e-11 1.94135e-09 4.80986e-08 9.8174e-07 1.61224e-05 0.000206609 0.0019803 0.0133805 0.0594379 0.167926 0.328733 0.526981 0.671625 0.810231 0.867544 0.920975 0.941623 0.94203 0.898581 0.79169 0.645618 0.464944 0.283041 0.140402 0.0538995 0.0161476 0.00408172 0.000931971 0.000197819 3.93882e-05 7.38002e-06 1.30346e-06 2.17331e-07 3.42558e-08 5.11153e-09 7.23164e-10 9.61702e-11 1.35463e-11 1.57191e-12 6.49458e-13 -8.42781e-13 -1.52101e-12 1.15519e-12 1.84116e-13 3.49821e-13 1.8417e-13 -1.76202e-12 3.03035e-13 7.62708e-14 -1.9228e-13 -1.11806e-12 -1.11795e-12 1.08914e-12 5.40283e-14 -9.9061e-13 7.24209e-13 -1.73259e-12 1.4581e-12 2.68915e-12 2.58974e-13 8.9323e-13 -1.2966e-13 7.35859e-13 7.46378e-13 -2.26317e-12 -1.15444e-13 -1.21786e-12 8.66823e-13 -8.69453e-13 -1.36658e-12 -8.3648e-13 -1.21156e-12 2.22626e-12 1.55117e-12 -1.57838e-13 -2.67899e-12 -3.61464e-12 -1.41033e-12 1.93036e-12 5.67834e-13 1.50852e-12 -1.89741e-12 1.02463e-12 -8.82859e-13 -1.23498e-12 1.78565e-12 1.36546e-12 2.11931e-12 -2.16771e-12 -2.31112e-12 6.04889e-13 1.35538e-12 1.86599e-12 -8.85427e-13 -2.45409e-12 6.92416e-13 1.0821e-12 1.1468e-12 -9.55213e-13 -3.55116e-12 -1.02066e-12 -6.19662e-13 4.41442e-12 -7.7244e-13 -2.47082e-12 2.07248e-12 -2.11548e-12 -1.13486e-13 5.25098e-13 1.91024e-12 2.67259e-12 -1.22402e-12 2.61019e-14 0
				</DataArray>
				<DataArray Name="VitesseY" type="Float32" format="ascii">