<?xml version="1.0"?>
<VTKFile type="PolyData">
	<PolyData>
		<Piece NumberOfPoints="1206" NumberOfPolys="1000">
			<Points>
				<DataArray type="Float32" NumberOfComponents="3" format="ascii">
 0 0 0 0.005 0 0 0.01 0 0 0.015 0 0 0.02 0 0 0.025 0 0 0.03 0 0 0.035 0 0 0.04 0 0 0.045 0 0 0.05 0 0 0.055 0 0 0.06 0 0 0.065 0 0 0.07 0 0 0.075 0 0 0.08 0 0 0.085 0 0 0.09 0 0 0.095 0 0 0.1 0 0 0.105 0 0 0.11 0 0 0.115 0 0 0.12 0 0 0.125 0 0 0.13 0 0 0.135 0 0 0.14 0 0 0.145 0 0 0.15 0 0 0.155 0 0 0.16 0 0 0.165 0 0 0.17 0 0 0.175 0 0 0.18 0 0 0.185 0 0 0.19 0 0 0.195 0 0 0.2 0 0 0.205 0 0 0.21 0 0 0.215 0 0 0.22 0 0 0.225 0 0 0.23 0 0 0.235 0 0 0.24 0 0 0.245 0 0 0.25 0 0 0.255 0 0 0.26 0 0 0.265 0 0 0.27 0 0 0.275 0 0 0.28 0 0 0.285 0 0 0.29 0 0 0.295 0 0 0.3 0 0 0.305 0 0 0.31 0 0 0.315 0 0 0.32 0 0 0.325 0 0 0.33 0 0 0.335 0 0 0.34 0 0 0.345 0 0 0.35 0 0 0.355 0 0 0.36 0 0 0.365 0 0 0.37 0 0 0.375 0 0 0.38 0 0 0.385 0 0 0.39 0 0 0.395 0 0 0.4 0 0 0.405 0 0 0.41 0 0 0.415 0 0 0.42 0 0 0.425 0 0 0.43 0 0 0.435 0 0 0.44 0 0 0.445 0 0 0.45 0 0 0.455 0 0 0.46 0 0 0.465 0 0 0.47 0 0 0.475 0 0 0.48 0 0 0.485 0 0 0.49 0 0 0.495 0 0 0.5 0 0 0.505 0 0 0.51 0 0 0.515 0 0 0.52 0 0 0.525 0 0 0.53 0 0 0.535 0 0 0.54 0 0 0.545 0 0 0.55 0 0 0.555 0 0 0.56 0 0 0.565 0 0 0.57 0 0 0.575 0 0 0.58 0 0 0.585 0 0 0.59 0 0 0.595 0 0 0.6 0 0 0.605 0 0 0.61 0 0 0.615 0 0 0.62 0 0 0.625 0 0 0.63 0 0 0.635 0 0 0.64 0 0 0.645 0 0 0.65 0 0 0.655 0 0 0.66 0 0 0.665 0 0 0.67 0 0 0.675 0 0 0.68 0 0 0.685 0 0 0.69 0 0 0.695 0 0 0.7 0 0 0.705 0 0 0.71 0 0 0.715 0 0 0.72 0 0 0.725 0 0 0.73 0 0 0.735 0 0 0.74 0 0 0.745 0 0 0.75 0 0 0.755 0 0 0.76 0 0 0.765 0 0 0.77 0 0 0.775 0 0 0.78 0 0 0.785 0 0 0.79 0 0 0.795 0 0 0.8 0 0 0.805 0 0 0.81 0 0 0.815 0 0 0.82 0 0 0.825 0 0 0.83 0 0 0.835 0 0 0.84 0 0 0.845 0 0 0.85 0 0 0.855 0 0 0.86 0 0 0.865 0 0 0.87 0 0 0.875 0 0 0.88 0 0 0.885 0 0 0.89 0 0 0.895 0 0 0.9 0 0 0.905 0 0 0.91 0 0 0.915 0 0 0.92 0 0 0.925 0 0 0.93 0 0 0.935 0 0 0.94 0 0 0.945 0 0 0.95 0 0 0.955 0 0 0.96 0 0 0.965 0 0 0.97 0 0 0.975 0 0 0.98 0 0 0.985 0 0 0.99 0 0 0.995 0 0 1 0 0 0 0.02 0 0.005 0.02 0 0.01 0.02 0 0.015 0.02 0 0.02 0.02 0 0.025 0.02 0 0.03 0.02 0 0.035 0.02 0 0.04 0.02 0 0.045 0.02 0 0.05 0.02 0 0.055 0.02 0 0.06 0.02 0 0.065 0.02 0 0.07 0.02 0 0.075 0.02 0 0.08 0.02 0 0.085 0.02 0 0.09 0.02 0 0.095 0.02 0 0.1 0.02 0 0.105 0.02 0 0.11 0.02 0 0.115 0.02 0 0.12 0.02 0 0.125 0.02 0 0.13 0.02 0 0.135 0.02 0 0.14 0.02 0 0.145 0.02 0 0.15 0.02 0 0.155 0.02 0 0.16 0.02 0 0.165 0.02 0 0.17 0.02 0 0.175 0.02 0 0.18 0.02 0 0.185 0.02 0 0.19 0.02 0 0.195 0.02 0 0.2 0.02 0 0.205 0.02 0 0.21 0.02 0 0.215 0.02 0 0.22 0.02 0 0.225 0.02 0 0.23 0.02 0 0.235 0.02 0 0.24 0.02 0 0.245 0.02 0 0.25 0.02 0 0.255 0.02 0 0.26 0.02 0 0.265 0.02 0 0.27 0.02 0 0.275 0.02 0 0.28 0.02 0 0.285 0.02 0 0.29 0.02 0 0.295 0.02 0 0.3 0.02 0 0.305 0.02 0 0.31 0.02 0 0.315 0.02 0 0.32 0.02 0 0.325 0.02 0 0.33 0.02 0 0.335 0.02 0 0.34 0.02 0 0.345 0.02 0 0.35 0.02 0 0.355 0.02 0 0.36 0.02 0 0.365 0.02 0 0.37 0.02 0 0.375 0.02 0 0.38 0.02 0 0.385 0.02 0 0.39 0.02 0 0.395 0.02 0 0.4 0.02 0 0.405 0.02 0 0.41 0.02 0 0.415 0.02 0 0.42 0.02 0 0.425 0.02 0 0.43 0.02 0 0.435 0.02 0 0.44 0.02 0 0.445 0.02 0 0.45 0.02 0 0.455 0.02 0 0.46 0.02 0 0.465 0.02 0 0.47 0.02 0 0.475 0.02 0 0.48 0.02 0 0.485 0.02 0 0.49 0.02 0 0.495 0.02 0 0.5 0.02 0 0.505 0.02 0 0.51 0.02 0 0.515 0.02 0 0.52 0.02 0 0.525 0.02 0 0.53 0.02 0 0.535 0.02 0 0.54 0.02 0 0.545 0.02 0 0.55 0.02 0 0.555 0.02 0 0.56 0.02 0 0.565 0.02 0 0.57 0.02 0 0.575 0.02 0 0.58 0.02 0 0.585 0.02 0 0.59 0.02 0 0.595 0.02 0 0.6 0.02 0 0.605 0.02 0 0.61 0.02 0 0.615 0.02 0 0.62 0.02 0 0.625 0.02 0 0.63 0.02 0 0.635 0.02 0 0.64 0.02 0 0.645 0.02 0 0.65 0.02 0 0.655 0.02 0 0.66 0.02 0 0.665 0.02 0 0.67 0.02 0 0.675 0.02 0 0.68 0.02 0 0.685 0.02 0 0.69 0.02 0 0.695 0.02 0 0.7 0.02 0 0.705 0.02 0 0.71 0.02 0 0.715 0.02 0 0.72 0.02 0 0.725 0.02 0 0.73 0.02 0 0.735 0.02 0 0.74 0.02 0 0.745 0.02 0 0.75 0.02 0 0.755 0.02 0 0.76 0.02 0 0.765 0.02 0 0.77 0.02 0 0.775 0.02 0 0.78 0.02 0 0.785 0.02 0 0.79 0.02 0 0.795 0.02 0 0.8 0.02 0 0.805 0.02 0 0.81 0.02 0 0.815 0.02 0 0.82 0.02 0 0.825 0.02 0 0.83 0.02 0 0.835 0.02 0 0.84 0.02 0 0.845 0.02 0 0.85 0.02 0 0.855 0.02 0 0.86 0.02 0 0.865 0.02 0 0.87 0.02 0 0.875 0.02 0 0.88 0.02 0 0.885 0.02 0 0.89 0.02 0 0.895 0.02 0 0.9 0.02 0 0.905 0.02 0 0.91 0.02 0 0.915 0.02 0 0.92 0.02 0 0.925 0.02 0 0.93 0.02 0 0.935 0.02 0 0.94 0.02 0 0.945 0.02 0 0.95 0.02 0 0.955 0.02 0 0.96 0.02 0 0.965 0.02 0 0.97 0.02 0 0.975 0.02 0 0.98 0.02 0 0.985 0.02 0 0.99 0.02 0 0.995 0.02 0 1 0.02 0 0 0.04 0 0.005 0.04 0 0.01 0.04 0 0.015 0.04 0 0.02 0.04 0 0.025 0.04 0 0.03 0.04 0 0.035 0.04 0 0.04 0.04 0 0.045 0.04 0 0.05 0.04 0 0.055 0.04 0 0.06 0.04 0 0.065 0.04 0 0.07 0.04 0 0.075 0.04 0 0.08 0.04 0 0.085 0.04 0 0.09 0.04 0 0.095 0.04 0 0.1 0.04 0 0.105 0.04 0 0.11 0.04 0 0.115 0.04 0 0.12 0.04 0 0.125 0.04 0 0.13 0.04 0 0.135 0.04 0 0.14 0.04 0 0.145 0.04 0 0.15 0.04 0 0.155 0.04 0 0.16 0.04 0 0.165 0.04 0 0.17 0.04 0 0.175 0.04 0 0.18 0.04 0 0.185 0.04 0 0.19 0.04 0 0.195 0.04 0 0.2 0.04 0 0.205 0.04 0 0.21 0.04 0 0.215 0.04 0 0.22 0.04 0 0.225 0.04 0 0.23 0.04 0 0.235 0.04 0 0.24 0.04 0 0.245 0.04 0 0.25 0.04 0 0.255 0.04 0 0.26 0.04 0 0.265 0.04 0 0.27 0.04 0 0.275 0.04 0 0.28 0.04 0 0.285 0.04 0 0.29 0.04 0 0.295 0.04 0 0.3 0.04 0 0.305 0.04 0 0.31 0.04 0 0.315 0.04 0 0.32 0.04 0 0.325 0.04 0 0.33 0.04 0 0.335 0.04 0 0.34 0.04 0 0.345 0.04 0 0.35 0.04 0 0.355 0.04 0 0.36 0.04 0 0.365 0.04 0 0.37 0.04 0 0.375 0.04 0 0.38 0.04 0 0.385 0.04 0 0.39 0.04 0 0.395 0.04 0 0.4 0.04 0 0.405 0.04 0 0.41 0.04 0 0.415 0.04 0 0.42 0.04 0 0.425 0.04 0 0.43 0.04 0 0.435 0.04 0 0.44 0.04 0 0.445 0.04 0 0.45 0.04 0 0.455 0.04 0 0.46 0.04 0 0.465 0.04 0 0.47 0.04 0 0.475 0.04 0 0.48 0.04 0 0.485 0.04 0 0.49 0.04 0 0.495 0.04 0 0.5 0.04 0 0.505 0.04 0 0.51 0.04 0 0.515 0.04 0 0.52 0.04 0 0.525 0.04 0 0.53 0.04 0 0.535 0.04 0 0.54 0.04 0 0.545 0.04 0 0.55 0.04 0 0.555 0.04 0 0.56 0.04 0 0.565 0.04 0 0.57 0.04 0 0.575 0.04 0 0.58 0.04 0 0.585 0.04 0 0.59 0.04 0 0.595 0.04 0 0.6 0.04 0 0.605 0.04 0 0.61 0.04 0 0.615 0.04 0 0.62 0.04 0 0.625 0.04 0 0.63 0.04 0 0.635 0.04 0 0.64 0.04 0 0.645 0.04 0 0.65 0.04 0 0.655 0.04 0 0.66 0.04 0 0.665 0.04 0 0.67 0.04 0 0.675 0.04 0 0.68 0.04 0 0.685 0.04 0 0.69 0.04 0 0.695 0.04 0 0.7 0.04 0 0.705 0.04 0 0.71 0.04 0 0.715 0.04 0 0.72 0.04 0 0.725 0.04 0 0.73 0.04 0 0.735 0.04 0 0.74 0.04 0 0.745 0.04 0 0.75 0.04 0 0.755 0.04 0 0.76 0.04 0 0.765 0.04 0 0.77 0.04 0 0.775 0.04 0 0.78 0.04 0 0.785 0.04 0 0.79 0.04 0 0.795 0.04 0 0.8 0.04 0 0.805 0.04 0 0.81 0.04 0 0.815 0.04 0 0.82 0.04 0 0.825 0.04 0 0.83 0.04 0 0.835 0.04 0 0.84 0.04 0 0.845 0.04 0 0.85 0.04 0 0.855 0.04 0 0.86 0.04 0 0.865 0.04 0 0.87 0.04 0 0.875 0.04 0 0.88 0.04 0 0.885 0.04 0 0.89 0.04 0 0.895 0.04 0 0.9 0.04 0 0.905 0.04 0 0.91 0.04 0 0.915 0.04 0 0.92 0.04 0 0.925 0.04 0 0.93 0.04 0 0.935 0.04 0 0.94 0.04 0 0.945 0.04 0 0.95 0.04 0 0.955 0.04 0 0.96 0.04 0 0.965 0.04 0 0.97 0.04 0 0.975 0.04 0 0.98 0.04 0 0.985 0.04 0 0.99 0.04 0 0.995 0.04 0 1 0.04 0 0 0.06 0 0.005 0.06 0 0.01 0.06 0 0.015 0.06 0 0.02 0.06 0 0.025 0.06 0 0.03 0.06 0 0.035 0.06 0 0.04 0.06 0 0.045 0.06 0 0.05 0.06 0 0.055 0.06 0 0.06 0.06 0 0.065 0.06 0 0.07 0.06 0 0.075 0.06 0 0.08 0.06 0 0.085 0.06 0 0.09 0.06 0 0.095 0.06 0 0.1 0.06 0 0.105 0.06 0 0.11 0.06 0 0.115 0.06 0 0.12 0.06 0 0.125 0.06 0 0.13 0.06 0 0.135 0.06 0 0.14 0.06 0 0.145 0.06 0 0.15 0.06 0 0.155 0.06 0 0.16 0.06 0 0.165 0.06 0 0.17 0.06 0 0.175 0.06 0 0.18 0.06 0 0.185 0.06 0 0.19 0.06 0 0.195 0.06 0 0.2 0.06 0 0.205 0.06 0 0.21 0.06 0 0.215 0.06 0 0.22 0.06 0 0.225 0.06 0 0.23 0.06 0 0.235 0.06 0 0.24 0.06 0 0.245 0.06 0 0.25 0.06 0 0.255 0.06 0 0.26 0.06 0 0.265 0.06 0 0.27 0.06 0 0.275 0.06 0 0.28 0.06 0 0.285 0.06 0 0.29 0.06 0 0.295 0.06 0 0.3 0.06 0 0.305 0.06 0 0.31 0.06 0 0.315 0.06 0 0.32 0.06 0 0.325 0.06 0 0.33 0.06 0 0.335 0.06 0 0.34 0.06 0 0.345 0.06 0 0.35 0.06 0 0.355 0.06 0 0.36 0.06 0 0.365 0.06 0 0.37 0.06 0 0.375 0.06 0 0.38 0.06 0 0.385 0.06 0 0.39 0.06 0 0.395 0.06 0 0.4 0.06 0 0.405 0.06 0 0.41 0.06 0 0.415 0.06 0 0.42 0.06 0 0.425 0.06 0 0.43 0.06 0 0.435 0.06 0 0.44 0.06 0 0.445 0.06 0 0.45 0.06 0 0.455 0.06 0 0.46 0.06 0 0.465 0.06 0 0.47 0.06 0 0.475 0.06 0 0.48 0.06 0 0.485 0.06 0 0.49 0.06 0 0.495 0.06 0 0.5 0.06 0 0.505 0.06 0 0.51 0.06 0 0.515 0.06 0 0.52 0.06 0 0.525 0.06 0 0.53 0.06 0 0.535 0.06 0 0.54 0.06 0 0.545 0.06 0 0.55 0.06 0 0.555 0.06 0 0.56 0.06 0 0.565 0.06 0 0.57 0.06 0 0.575 0.06 0 0.58 0.06 0 0.585 0.06 0 0.59 0.06 0 0.595 0.06 0 0.6 0.06 0 0.605 0.06 0 0.61 0.06 0 0.615 0.06 0 0.62 0.06 0 0.625 0.06 0 0.63 0.06 0 0.635 0.06 0 0.64 0.06 0 0.645 0.06 0 0.65 0.06 0 0.655 0.06 0 0.66 0.06 0 0.665 0.06 0 0.67 0.06 0 0.675 0.06 0 0.68 0.06 0 0.685 0.06 0 0.69 0.06 0 0.695 0.06 0 0.7 0.06 0 0.705 0.06 0 0.71 0.06 0 0.715 0.06 0 0.72 0.06 0 0.725 0.06 0 0.73 0.06 0 0.735 0.06 0 0.74 0.06 0 0.745 0.06 0 0.75 0.06 0 0.755 0.06 0 0.76 0.06 0 0.765 0.06 0 0.77 0.06 0 0.775 0.06 0 0.78 0.06 0 0.785 0.06 0 0.79 0.06 0 0.795 0.06 0 0.8 0.06 0 0.805 0.06 0 0.81 0.06 0 0.815 0.06 0 0.82 0.06 0 0.825 0.06 0 0.83 0.06 0 0.835 0.06 0 0.84 0.06 0 0.845 0.06 0 0.85 0.06 0 0.855 0.06 0 0.86 0.06 0 0.865 0.06 0 0.87 0.06 0 0.875 0.06 0 0.88 0.06 0 0.885 0.06 0 0.89 0.06 0 0.895 0.06 0 0.9 0.06 0 0.905 0.06 0 0.91 0.06 0 0.915 0.06 0 0.92 0.06 0 0.925 0.06 0 0.93 0.06 0 0.935 0.06 0 0.94 0.06 0 0.945 0.06 0 0.95 0.06 0 0.955 0.06 0 0.96 0.06 0 0.965 0.06 0 0.97 0.06 0 0.975 0.06 0 0.98 0.06 0 0.985 0.06 0 0.99 0.06 0 0.995 0.06 0 1 0.06 0 0 0.08 0 0.005 0.08 0 0.01 0.08 0 0.015 0.08 0 0.02 0.08 0 0.025 0.08 0 0.03 0.08 0 0.035 0.08 0 0.04 0.08 0 0.045 0.08 0 0.05 0.08 0 0.055 0.08 0 0.06 0.08 0 0.065 0.08 0 0.07 0.08 0 0.075 0.08 0 0.08 0.08 0 0.085 0.08 0 0.09 0.08 0 0.095 0.08 0 0.1 0.08 0 0.105 0.08 0 0.11 0.08 0 0.115 0.08 0 0.12 0.08 0 0.125 0.08 0 0.13 0.08 0 0.135 0.08 0 0.14 0.08 0 0.145 0.08 0 0.15 0.08 0 0.155 0.08 0 0.16 0.08 0 0.165 0.08 0
[...]
			<PointData Scalars="VitesseX">
				<DataArray Name="VitesseX" type="Float32" format="ascii">
 0 -9.01751e-15 -5.19967e-15 7.51212e-14 -1.4644e-13 -5.65179e-14 4.53471e-14 -2.47288e-14 -1.25133e-13 -1.53678e-14 6.78335e-14 -1.9295e-13 1.74303e-13 -3.92204e-13 1.90905e-13 -8.44454e-14 -2.69205e-13 2.98996e-13 -2.57917e-13 1.37662e-13 -1.72648e-14 -1.36461e-13 -3.39561e-13 1.85297e-13 4.11616e-13 1.03974e-13 -3.82532e-13 1.68585e-14 -5.5628e-14 1.24017e-13 -3.10645e-13 3.83384e-13 -4.47658e-13 -3.92848e-13 5.06786e-13 -3.10973e-13 2.1762e-13 -6.29354e-13 7.12132e-13 -4.57415e-13 5.04723e-14 -4.13024e-13 -2.7023e-14 6.41684e-13 8.13479e-14 -5.23885e-13 4.07191e-13 -7.53488e-13 2.24315e-13 -1.62819e-13 4.03774e-14 -3.21957e-13 -1.19299e-12 1.62964e-12 -2.84445e-13 -4.02322e-14 5.73148e-13 -7.93148e-13 1.12391e-12 -6.05909e-13 -4.53264e-13 -4.83045e-13 1.33924e-13 -8.24061e-17 -4.88106e-13 6.06352e-14 2.67383e-13 3.27742e-13 8.60917e-13 -7.83383e-13 -4.21061e-13 8.43139e-13 -4.90295e-13 2.40508e-13 -1.87227e-12 5.88859e-13 2.77926e-13 -5.24039e-13 6.45527e-13 -1.20159e-12 2.11668e-12 -9.07021e-13 -2.56365e-13 1.80645e-11 3.32739e-10 6.19735e-09 9.97116e-08 1.3645e-06 1.56253e-05 0.000146543 0.00109392 0.00625584 0.0261771 0.0774333 0.165015 0.277395 0.406969 0.546045 0.64717 0.758784 0.826873 0.88053 0.925254 0.939416 0.93792 0.933391 0.934331 0.927916 0.892932 0.826624 0.727492 0.584945 0.416729 0.25696 0.13266 0.0556058 0.0191831 0.00577794 0.00160316 0.000420451 0.000105165 2.51564e-05 5.76083e-06 1.26366e-06 2.65652e-07 5.35504e-08 1.03596e-08 1.92367e-09 3.41951e-10 6.01047e-11 7.83815e-12 2.95167e-12 6.26267e-14 -2.15243e-12 1.18619e-12 -2.05737e-12 1.88882e-12 4.37019e-13 -1.88904e-12 1.76219e-12 -1.18735e-12 -3.17843e-13 2.7542e-12 -2.2119e-12 -1.50127e-12 1.77727e-12 -1.68407e-12 3.16394e-12 -1.18842e-12 -4.56827e-13 1.5136e-12 -1.81795e-12 2.83659e-12 -1.96652e-12 1.05805e-12 -1.82443e-12 1.73704e-12 2.95947e-13 -1.23918e-12 -2.67887e-13 -1.33444e-12 1.66173e-12 -6.18329e-13 -9.48389e-13 6.11513e-13 5.2678e-14 4.59627e-13 -2.97113e-13 -1.73698e-12 2.57764e-12 -1.55697e-12 6.15897e-13 1.43488e-12 -1.98314e-12 2.20199e-12 -1.57058e-12 7.194e-13 1.12782e-12 -2.06989e-12 1.833e-12 -1.20587e-12 -3.84132e-13 1.37032e-12 -3.06631e-12 1.55379e-12 -1.95977e-12 1.4515e-13 1.30115e-12 -1.78032e-12 3.07349e-12 -1.96577e-12 -1.49138e-12 4.43134e-12 -2.85141e-12 -1.27541e-12 2.98756e-14 -1.41084e-12 4.02207e-12 -3.18152e-12 1.17354e-12 0 0 9.49443e-15 1.03342e-14 -8.6787e-14 6.38208e-14 -3.8073e-14 -9.91589e-14 -7.30943e-14 1.45127e-14 -4.98943e-14 -1.24643e-13 6.34758e-14 -2.43662e-13 1.97793e-13 -2.4563e-13 2.64532e-14 1.38946e-13 -2.25328e-13 1.84672e-13 -2.48673e-13 -1.5365e-13 -3.04651e-14 1.0803e-13 -3.83833e-14 -9.53857e-14 6.61463e-14 2.56307e-13 -1.79418e-13 -1.62837e-13 -1.59894e-13 2.39348e-13 -3.02368e-13 1.48341e-13 -5.21086e-14 -5.852e-13 2.54406e-13 -1.43479e-13 4.63627e-13 -5.08819e-13 1.77933e-13 -4.43118e-13 1.8974e-13 9.02551e-14 -1.8617e-13 2.45472e-15 3.52945e-13 -5.61905e-13 1.84304e-13 -4.22756e-13 -2.78278e-13 -3.29712e-13 -6.99261e-14 8.33412e-13 -1.00445e-12 6.63144e-13 1.40983e-13 -2.90839e-13 6.90946e-13 -8.98768e-13 3.78641e-13 5.15167e-14 -1.19208e-13 -4.98807e-13 -3.94482e-13 3.52605e-13 5.72295e-14 2.89712e-13 1.10216e-13 -5.91909e-13 6.86193e-13 9.03719e-14 -7.12428e-13 1.21448e-13 -8.06598e-13 6.59764e-13 -8.39952e-13 -5.78566e-13 5.10398e-13 -2.06209e-13 1.03703e-12 -1.16843e-12 1.17485e-12 1.56944e-12 1.42268e-11 3.32761e-10 6.20181e-09 9.97097e-08 1.3645e-06 1.56253e-05 0.000146543 0.00109392 0.00625584 0.0261771 0.0774333 0.165015 0.277395 0.406969 0.546045 0.64717 0.758784 0.826873 0.88053 0.925254 0.939416 0.93792 0.933391 0.934331 0.927916 0.892932 0.826624 0.727492 0.584945 0.416729 0.25696 0.13266 0.0556058 0.0191831 0.00577794 0.00160316 0.000420451 0.000105165 2.51564e-05 5.76083e-06 1.26366e-06 2.6565e-07 5.3553e-08 1.03571e-08 1.92339e-09 3.441e-10 5.79049e-11 1.06237e-11 1.8582e-13 -3.54579e-13 7.38085e-13 -1.52507e-12 1.0571e-12 -8.70457e-13 -1.81515e-13 1.43273e-12 -1.36729e-12 8.7608e-13 3.55769e-13 -2.33796e-12 1.68515e-12 5.3358e-14 -1.42625e-12 1.54561e-12 -1.55088e-12 2.01102e-12 3.09011e-13 -1.09353e-12 1.59011e-12 -1.97836e-12 1.59503e-12 -8.82674e-13 1.22783e-12 -8.81254e-13 -3.27635e-13 4.1481e-13 -1.82054e-13 -1.22431e-13 -1.4226e-12 1.08816e-13 1.0164e-12 -1.24122e-13 -2.85919e-13 -8.79714e-13 2.77067e-13 1.22945e-12 -1.55253e-12 1.21658e-12 1.90406e-13 -1.06051e-12 1.63538e-12 -1.24494e-12 1.63946e-12 -4.93252e-13 -8.19433e-13 1.24672e-12 -1.31479e-12 1.01155e-12 7.65806e-14 -1.81564e-12 1.02355e-12 -2.02039e-12 7.25444e-13 -2.77093e-13 -1.36154e-12 1.45927e-12 -1.72575e-12 1.84085e-12 7.33469e-13 -3.79554e-12 2.28072e-12 1.91138e-13 -5.02021e-13 5.70909e-13 -3.31183e-12 3.15575e-12 1.78557e-13 0 0 -1.19805e-14 -4.35052e-14 -9.28327e-15 -3.2548e-14 -5.98822e-15 -1.74935e-14 -5.17403e-14 -1.03509e-13 -1.12328e-13 -4.3196e-14 -7.70847e-14 6.21738e-14 -9.88773e-14 2.15025e-14 3.64299e-14 -3.89896e-14 -4.62276e-14 -1.35034e-13 -1.83655e-15 -1.02789e-13 -1.07185e-13 -1.58866e-13 1.42098e-14 1.11463e-13 5.03726e-14 -5.72533e-14 3.40027e-14 -1.35165e-13 -1.27691e-13 -1.25351e-13 -4.68981e-14 6.42136e-16 -6.35501e-14 -2.32514e-14 -2.23617e-13 7.36276e-14 -7.13627e-14 3.13698e-14 -1.7114e-13 -3.71082e-14 -5.9725e-14 4.88594e-14 9.54614e-14 -2.40378e-13 -3.52428e-13 -1.05375e-13 -2.11894e-13 2.5256e-13 5.39131e-16 -3.14573e-13 -1.61511e-13 -3.01073e-13 6.61022e-13 8.70248e-14 -8.37072e-14 -3.7288e-15 -6.28031e-13 1.55128e-13 2.12568e-13 1.22808e-13 -5.54253e-14 -3.79825e-13 -2.05149e-13 -9.44516e-14 3.29307e-13 1.1097e-13 6.20658e-15 -5.32703e-15 -7.5331e-14 -1.18684e-13 2.04773e-13 -3.99228e-13 1.65773e-14 -3.91224e-13 -1.64618e-13 -4.08385e-13 -2.61342e-13 3.11198e-13 2.48411e-14 1.54628e-15 3.11898e-13 8.95077e-13 1.57745e-11 3.32645e-10 6.20048e-09 9.97104e-08 1.3645e-06 1.56253e-05 0.000146543 0.00109392 0.00625584 0.0261771 0.0774333 0.165015 0.277395 0.406969 0.546045 0.64717 0.758784 0.826873 0.88053 0.925254 0.939416 0.93792 0.933391 0.934331 0.927916 0.892932 0.826624 0.727492 0.584945 0.416729 0.25696 0.13266 0.0556058 0.0191831 0.00577794 0.00160316 0.000420451 0.000105165 2.51564e-05 5.76083e-06 1.26366e-06 2.65651e-07 5.35523e-08 1.0358e-08 1.92344e-09 3.42564e-10 5.91894e-11 9.55779e-12 1.10485e-12 -2.88361e-13 -7.21371e-13 2.95212e-13 -2.21255e-13 -1.49386e-13 -1.61917e-13 -3.57871e-14 6.92612e-14 -1.74663e-13 -6.26051e-13 2.48685e-13 8.21365e-14 3.56992e-13 -2.03978e-13 -1.31995e-13 1.80893e-13 2.33062e-13 5.82367e-13 1.80506e-13 -1.16137e-13 -3.06484e-13 -3.84376e-13 4.6842e-13 4.04183e-13 1.65076e-13 -6.5327e-13 -1.13988e-12 -6.64624e-14 5.86153e-13 5.0624e-13 -2.99387e-13 -1.16347e-12 1.68963e-13 3.59623e-13 -1.72873e-13 1.92502e-13 -2.20156e-13 2.30897e-13 -9.87505e-14 -6.36957e-13 5.3158e-13 6.80205e-13 8.66624e-13 -4.32174e-13 -1.04645e-12 2.07266e-13 5.97953e-13 7.03558e-13 -6.51564e-13 -9.90832e-13 -1.96535e-13 2.60122e-13 -3.23903e-13 -1.18366e-12 -1.03347e-12 7.36265e-13 6.22442e-13 -5.3759e-13 -6.51751e-13 -7.96878e-13 1.21949e-12 2.3392e-13 2.23158e-13 -9.90689e-13 -1.6641e-13 1.016e-12 -5.10172e-13 -2.84904e-13 0 0 -2.97693e-14 -2.43761e-14 3.04902e-14 -9.26991e-14 -9.1343e-14 -5.20371e-14 -2.88606e-14 -4.8408e-14 1.36028e-14 1.07794e-14 -9.47576e-14 -2.11805e-15 -1.03315e-13 8.39883e-14 -9.42317e-14 -1.43938e-13 3.3056e-14 -2.70274e-13 -5.3478e-14 3.37589e-14 -8.74428e-14 -1.56781e-13 4.58718e-14 1.51844e-13 4.86511e-14 -1.82924e-13 -6.05465e-14 -5.43163e-14 -1.92561e-13 -1.76666e-13 2.79316e-13 -8.085e-14 -7.59747e-14 1.52411e-13 -1.76227e-13 1.63761e-13 -2.14203e-13 2.40948e-13 -3.65083e-13 -1.92769e-13 -3.15733e-13 -9.83682e-15 2.51061e-13 1.48737e-14 -3.74639e-13 2.26834e-13 -3.68739e-13 -2.94838e-14 -2.90539e-14 -2.78043e-14 -2.1674e-13 -3.39291e-13 7.82847e-13 -6.62324e-14 3.89501e-15 4.4119e-14 -5.20662e-13 1.03393e-13 -1.49468e-13 -5.88271e-14 -1.48448e-13 -5.13989e-13 -3.29694e-13 -9.5222e-14 4.2083e-13 3.54269e-13 1.65039e-13 5.5388e-13 -2.67738e-13 8.52099e-14 2.29578e-13 -2.54449e-13 1.33401e-15 -8.7468e-13 2.51815e-13 -4.47907e-13 -9.44325e-13 6.87148e-14 1.64858e-14 9.09294e-13 -1.87242e-13 4.39069e-14 1.64917e-11 3.32328e-10 6.19911e-09 9.97112e-08 1.3645e-06 1.56253e-05 0.000146543 0.00109392 0.00625584 0.0261771 0.0774333 0.165015 0.277395 0.406969 0.546045 0.64717 0.758784 0.826873 0.88053 0.925254 0.939416 0.93792 0.933391 0.934331 0.927916 0.892932 0.826624 0.727492 0.584945 0.416729 0.25696 0.13266 0.0556058 0.0191831 0.00577794 0.00160316 0.000420451 0.000105165 2.51564e-05 5.76083e-06 1.26366e-06 2.65651e-07 5.35514e-08 1.03586e-08 1.92329e-09 3.42743e-10 5.93901e-11 8.91509e-12 1.26493e-12 -3.51054e-13 -8.60263e-13 9.06166e-13 -1.04172e-12 2.09144e-13 -2.44373e-13 -8.88423e-13 1.19503e-12 -6.85702e-13 -5.8823e-13 1.36609e-12 -1.14737e-13 5.04693e-13 7.64047e-13 -1.93528e-12 6.66315e-13 1.17792e-13 1.18905e-12 6.21825e-13 -1.66198e-12 2.32541e-13 -5.77688e-13 7.72872e-13 -1.10197e-12 1.64616e-13 1.07769e-14 -6.95525e-13 1.08895e-13 -7.87691e-13 -1.8281e-13 2.54285e-13 -3.90654e-13 5.37437e-13 -3.83138e-13 -6.76207e-13 -1.1394e-12 -6.13834e-13 2.19736e-12 1.70977e-13 1.82899e-13 4.38792e-13 -9.46248e-13 1.16315e-12 -6.26588e-13 2.57038e-13 1.70144e-13 -1.02177e-12 1.1556e-12 -2.64872e-13 -3.58489e-13 6.99571e-13 -2.18305e-12 5.4854e-13 -8.4976e-13 -2.609e-13 8.88221e-13 -4.23047e-13 1.23974e-12 -1.95207e-12 -9.76051e-13 2.18637e-12 5.9627e-14 2.42258e-13 -6.71769e-13 -1.78523e-12 1.12251e-12 1.41373e-13 1.38979e-12 0 0 -1.15695e-14 1.27097e-14 -8.38027e-14 2.143e-14 -7.76236e-14 -1.13868e-13 -3.27278e-14 7.89578e-14 1.72251e-14 -7.93822e-14 5.46444e-14 -2.54271e-13 2.43164e-13 -2.20891e-13 -1.20431e-13 -5.34306e-14 -2.84425e-13 9.67815e-14 -3.20291e-13 -6.05325e-14 4.29615e-14 1.43053e-13 -6.2249e-14 -1.90071e-13 -3.54836e-14 6.48742e-14 -3.01981e-13 -8.52674e-14 -1.73913e-13 2.61204e-13 -4.23898e-14 3.74254e-13 1.68613e-13 -4.55922e-13 1.67084e-13 -1.369e-13 2.97975e-13 -4.94616e-13 8.73037e-14 -4.07086e-13 -3.20709e-14 1.27236e-14 -4.08543e-13 -4.7647e-14 2.66225e-13 -4.30136e-13 2.70045e-13 -5.59697e-13 -2.1081e-13 -4.07647e-13 -2.72723e-13 9.03787e-13 -1.03334e-12 5.77386e-13 3.32714e-13 -2.31836e-13 6.64524e-13 -9.26845e-13 5.4072e-14 -1.41959e-13 -1.44585e-13 -5.05104e-13 -3.52924e-13 2.14326e-13 1.4443e-13 5.81493e-13 3.6321e-13 -9.93821e-14 6.65927e-13 4.38738e-13 -5.80267e-13 -1.41943e-14 -1.00739e-12 4.58139e-13 -8.1502e-13 -3.63269e-13 1.34591e-13 -4.55908e-13 9.51294e-13 -9.97298e-13 8.32354e-13 1.28661e-12 1.40997e-11 3.32317e-10 6.20131e-09 9.97105e-08 1.3645e-06 1.56253e-05 0.000146543 0.00109392 0.00625584 0.0261771 0.0774333 0.165015 0.277395 0.406969 0.546045 0.64717 0.758784 0.826873 0.88053 0.925254 0.939416 0.93792 0.933391 0.934331 0.927916 0.892932 0.826624 0.727492 0.584945 0.416729 0.25696 0.13266 0.0556058 0.0191831 0.00577794 0.00160316 0.000420451 0.000105165 2.51564e-05 5.76083e-06 1.26366e-06 2.6565e-07 5.35523e-08 1.03573e-08 1.92352e-09 3.44324e-10 5.77223e-11 1.00932e-11 3.68043e-13 -1.64703e-13 6.88105e-13 -1.50276e-12 1.20187e-13 -9.16791e-13 -1.22384e-13 1.28558e-12 -9.93217e-13 4.77476e-13 2.31224e-14 -1.26495e-12 1.99472e-12 1.09259e-12 -8.08631e-13 6.70498e-13 -1.49128e-12 1.80497e-12 8.73746e-13 -5.78871e-13 9.50105e-13 -1.82167e-12 1.06497e-12 -1.66037e-12 -2.20777e-13 -1.80894e-12 2.01143e-15 6.79946e-13 -4.56942e-13 -8.67131e-13 -1.59349e-12 1.60861e-13 1.20159e-12 -1.38003e-13 -1.12235e-12 -5.55259e-13 2.30398e-13 9.73219e-13 -1.17049e-12 9.28585e-13 4.80018e-13 -1.34237e-12 6.53776e-13 -1.2637e-12 2.31031e-12 1.09893e-12 -1.0358e-12 2.99728e-14 -1.53036e-12 1.40674e-12 7.72721e-13 -8.91832e-13 -8.32657e-13 -2.11775e-12 3.39841e-13 6.66131e-13 -9.30283e-13 1.18457e-12 -9.99176e-13 1.08208e-12 7.83615e-13 -3.49988e-12 2.2997e-12 3.93067e-13 -3.41913e-13 -7.1403e-13 -2.95687e-12 4.05955e-12 1.39102e-12 0 0 -1.55677e-14 -3.87069e-14 1.54279e-15 -1.1092e-13 3.50904e-14 8.50157e-14 1.0245e-14 -1.06444e-13 -1.3299e-13 5.04044e-14 -1.75268e-13 2.81669e-13 -2.92586e-13 1.15412e-13 -1.16891e-13 -4.4406e-13 2.22354e-14 -1.63219e-13 9.77082e-14 -1.04125e-13 -2.90926e-14 -2.73686e-13 7.42421e-14 1.41485e-13 -9.58432e-14 -5.14056e-13 -3.91702e-14 -6.21859e-14 2.25719e-13 -1.64305e-13 2.50914e-13 1.67152e-13 7.3445e-14 4.14017e-13 -5.80397e-13 5.05102e-14 -6.74976e-13 3.21381e-13 -2.50787e-13 4.33858e-13 -3.4463e-13 -6.46936e-14 -1.14262e-13 -5.29359e-13 -6.52905e-13 6.31199e-15 -2.68315e-13 5.14521e-13 3.1303e-14 -6.89029e-13 -6.17091e-13 -9.75806e-13 1.32821e-12 -1.49445e-13 1.68025e-13 5.9546e-13 -1.06073e-12 1.17122e-12 -5.30974e-13 -4.76946e-13 -3.47753e-13 3.89658e-13 3.32124e-13 -7.63124e-13 5.19905e-14 3.64348e-13 5.16066e-13 7.27558e-13 -4.391e-13 -1.32118e-13 1.05785e-12 -1.05114e-12 -1.30594e-13 -1.30861e-12 -1.94143e-13 7.87562e-13 9.03123e-14 6.31095e-13 -1.35634e-12 6.43454e-13 -5.93733e-13 8.80315e-13 1.63758e-11 3.32484e-10 6.1991e-09 9.97114e-08 1.3645e-06 1.56253e-05 0.000146543 0.00109392 0.00625584 0.0261771 0.0774333 0.165015 0.277395 0.406969 0.546045 0.64717 0.758784 0.826873 0.88053 0.925254 0.939416 0.93792 0.933391 0.934331 0.927916 0.892932 0.826624 0.727492 0.584945 0.416729 0.25696 0.13266 0.0556058 0.0191831 0.00577794 0.00160316 0.000420451 0.000105165 2.51564e-05 5.76083e-06 1.26366e-06 2.65651e-07 5.35509e-08 1.03589e-08 1.9242e-09 3.42041e-10 5.93379e-11 8.06259e-12 2.99595e-12 5.67763e-13 -1.9746e-12 8.90159e-15 -2.29027e-12 1.07909e-12 7.20193e-13 -4.78063e-13 2.58787e-13 -9.62475e-13 -1.05878e-12 2.6654e-12 -1.19902e-12 2.81789e-13 1.07645e-12 1.72272e-13 2.31229e-12 -1.36998e-12 -5.40729e-13 1.66028e-12 -6.29429e-15 2.07191e-12 -2.64003e-12 -1.10626e-12 -1.70935e-12 -1.17419e-13 -3.72854e-13 -1.59762e-12 -1.16838e-12 -7.61554e-14 2.69805e-12 -1.62158e-12 -2.12365e-12 -1.53198e-13 -1.3467e-13 2.11521e-12 2.27335e-12 -1.46208e-12 -5.91209e-13 -2.67241e-12 -4.44593e-13 1.05673e-12 -6.93455e-13 1.57141e-12 1.59949e-13 1.29679e-12 7.69327e-13 -1.26394e-12 4.97774e-13 -1.18887e-12 -2.56538e-13 1.42571e-12 -1.89237e-12 -3.85811e-13 -3.39878e-12 4.86457e-13 1.85975e-12 -2.38748e-13 9.71985e-13 -8.82658e-13 -1.03274e-12 3.08891e-12 -2.46488e-12 -9.09749e-13 -2.87746e-13 -7.4308e-13 4.51899e-12 -2.67701e-12 2.49082e-13 0
				</DataArray>
				<DataArray Name="VitesseY" type="Float32" format="ascii">