<?xml version="1.0"?>
<VTKFile type="PolyData">
	<PolyData>
		<Piece NumberOfPoints="1206" NumberOfPolys="1000">
			<Points>
				<DataArray type="Float32" NumberOfComponents="3" format="ascii">
 0 0 0 0.005 0 0 0.01 0 0 0.015 0 0 0.02 0 0 0.025 0 0 0.03 0 0 0.035 0 0 0.04 0 0 0.045 0 0 0.05 0 0 0.055 0 0 0.06 0 0 0.065 0 0 0.07 0 0 0.075 0 0 0.08 0 0 0.085 0 0 0.09 0 0 0.095 0 0 0.1 0 0 0.105 0 0 0.11 0 0 0.115 0 0 0.12 0 0 0.125 0 0 0.13 0 0 0.135 0 0 0.14 0 0 0.145 0 0 0.15 0 0 0.155 0 0 0.16 0 0 0.165 0 0 0.17 0 0 0.175 0 0 0.18 0 0 0.185 0 0 0.19 0 0 0.195 0 0 0.2 0 0 0.205 0 0 0.21 0 0 0.215 0 0 0.22 0 0 0.225 0 0 0.23 0 0 0.235 0 0 0.24 0 0 0.245 0 0 0.25 0 0 0.255 0 0 0.26 0 0 0.265 0 0 0.27 0 0 0.275 0 0 0.28 0 0 0.285 0 0 0.29 0 0 0.295 0 0 0.3 0 0 0.305 0 0 0.31 0 0 0.315 0 0 0.32 0 0 0.325 0 0 0.33 0 0 0.335 0 0 0.34 0 0 0.345 0 0 0.35 0 0 0.355 0 0 0.36 0 0 0.365 0 0 0.37 0 0 0.375 0 0 0.38 0 0 0.385 0 0 0.39 0 0 0.395 0 0 0.4 0 0 0.405 0 0 0.41 0 0 0.415 0 0 0.42 0 0 0.425 0 0 0.43 0 0 0.435 0 0 0.44 0 0 0.445 0 0 0.45 0 0 0.455 0 0 0.46 0 0 0.465 0 0 0.47 0 0 0.475 0 0 0.48 0 0 0.485 0 0 0.49 0 0 0.495 0 0 0.5 0 0 0.505 0 0 0.51 0 0 0.515 0 0 0.52 0 0 0.525 0 0 0.53 0 0 0.535 0 0 0.54 0 0 0.545 0 0 0.55 0 0 0.555 0 0 0.56 0 0 0.565 0 0 0.57 0 0 0.575 0 0 0.58 0 0 0.585 0 0 0.59 0 0 0.595 0 0 0.6 0 0 0.605 0 0 0.61 0 0 0.615 0 0 0.62 0 0 0.625 0 0 0.63 0 0 0.635 0 0 0.64 0 0 0.645 0 0 0.65 0 0 0.655 0 0 0.66 0 0 0.665 0 0 0.67 0 0 0.675 0 0 0.68 0 0 0.685 0 0 0.69 0 0 0.695 0 0 0.7 0 0 0.705 0 0 0.71 0 0 0.715 0 0 0.72 0 0 0.725 0 0 0.73 0 0 0.735 0 0 0.74 0 0 0.745 0 0 0.75 0 0 0.755 0 0 0.76 0 0 0.765 0 0 0.77 0 0 0.775 0 0 0.78 0 0 0.785 0 0 0.79 0 0 0.795 0 0 0.8 0 0 0.805 0 0 0.81 0 0 0.815 0 0 0.82 0 0 0.825 0 0 0.83 0 0 0.835 0 0 0.84 0 0 0.845 0 0 0.85 0 0 0.855 0 0 0.86 0 0 0.865 0 0 0.87 0 0 0.875 0 0 0.88 0 0 0.885 0 0 0.89 0 0 0.895 0 0 0.9 0 0 0.905 0 0 0.91 0 0 0.915 0 0 0.92 0 0 0.925 0 0 0.93 0 0 0.935 0 0 0.94 0 0 0.945 0 0 0.95 0 0 0.955 0 0 0.96 0 0 0.965 0 0 0.97 0 0 0.975 0 0 0.98 0 0 0.985 0 0 0.99 0 0 0.995 0 0 1 0 0 0 0.02 0 0.005 0.02 0 0.01 0.02 0 0.015 0.02 0 0.02 0.02 0 0.025 0.02 0 0.03 0.02 0 0.035 0.02 0 0.04 0.02 0 0.045 0.02 0 0.05 0.02 0 0.055 0.02 0 0.06 0.02 0 0.065 0.02 0 0.07 0.02 0 0.075 0.02 0 0.08 0.02 0 0.085 0.02 0 0.09 0.02 0 0.095 0.02 0 0.1 0.02 0 0.105 0.02 0 0.11 0.02 0 0.115 0.02 0 0.12 0.02 0 0.125 0.02 0 0.13 0.02 0 0.135 0.02 0 0.14 0.02 0 0.145 0.02 0 0.15 0.02 0 0.155 0.02 0 0.16 0.02 0 0.165 0.02 0 0.17 0.02 0 0.175 0.02 0 0.18 0.02 0 0.185 0.02 0 0.19 0.02 0 0.195 0.02 0 0.2 0.02 0 0.205 0.02 0 0.21 0.02 0 0.215 0.02 0 0.22 0.02 0 0.225 0.02 0 0.23 0.02 0 0.235 0.02 0 0.24 0.02 0 0.245 0.02 0 0.25 0.02 0 0.255 0.02 0 0.26 0.02 0 0.265 0.02 0 0.27 0.02 0 0.275 0.02 0 0.28 0.02 0 0.285 0.02 0 0.29 0.02 0 0.295 0.02 0 0.3 0.02 0 0.305 0.02 0 0.31 0.02 0 0.315 0.02 0 0.32 0.02 0 0.325 0.02 0 0.33 0.02 0 0.335 0.02 0 0.34 0.02 0 0.345 0.02 0 0.35 0.02 0 0.355 0.02 0 0.36 0.02 0 0.365 0.02 0 0.37 0.02 0 0.375 0.02 0 0.38 0.02 0 0.385 0.02 0 0.39 0.02 0 0.395 0.02 0 0.4 0.02 0 0.405 0.02 0 0.41 0.02 0 0.415 0.02 0 0.42 0.02 0 0.425 0.02 0 0.43 0.02 0 0.435 0.02 0 0.44 0.02 0 0.445 0.02 0 0.45 0.02 0 0.455 0.02 0 0.46 0.02 0 0.465 0.02 0 0.47 0.02 0 0.475 0.02 0 0.48 0.02 0 0.485 0.02 0 0.49 0.02 0 0.495 0.02 0 0.5 0.02 0 0.505 0.02 0 0.51 0.02 0 0.515 0.02 0 0.52 0.02 0 0.525 0.02 0 0.53 0.02 0 0.535 0.02 0 0.54 0.02 0 0.545 0.02 0 0.55 0.02 0 0.555 0.02 0 0.56 0.02 0 0.565 0.02 0 0.57 0.02 0 0.575 0.02 0 0.58 0.02 0 0.585 0.02 0 0.59 0.02 0 0.595 0.02 0 0.6 0.02 0 0.605 0.02 0 0.61 0.02 0 0.615 0.02 0 0.62 0.02 0 0.625 0.02 0 0.63 0.02 0 0.635 0.02 0 0.64 0.02 0 0.645 0.02 0 0.65 0.02 0 0.655 0.02 0 0.66 0.02 0 0.665 0.02 0 0.67 0.02 0 0.675 0.02 0 0.68 0.02 0 0.685 0.02 0 0.69 0.02 0 0.695 0.02 0 0.7 0.02 0 0.705 0.02 0 0.71 0.02 0 0.715 0.02 0 0.72 0.02 0 0.725 0.02 0 0.73 0.02 0 0.735 0.02 0 0.74 0.02 0 0.745 0.02 0 0.75 0.02 0 0.755 0.02 0 0.76 0.02 0 0.765 0.02 0 0.77 0.02 0 0.775 0.02 0 0.78 0.02 0 0.785 0.02 0 0.79 0.02 0 0.795 0.02 0 0.8 0.02 0 0.805 0.02 0 0.81 0.02 0 0.815 0.02 0 0.82 0.02 0 0.825 0.02 0 0.83 0.02 0 0.835 0.02 0 0.84 0.02 0 0.845 0.02 0 0.85 0.02 0 0.855 0.02 0 0.86 0.02 0 0.865 0.02 0 0.87 0.02 0 0.875 0.02 0 0.88 0.02 0 0.885 0.02 0 0.89 0.02 0 0.895 0.02 0 0.9 0.02 0 0.905 0.02 0 0.91 0.02 0 0.915 0.02 0 0.92 0.02 0 0.925 0.02 0 0.93 0.02 0 0.935 0.02 0 0.94 0.02 0 0.945 0.02 0 0.95 0.02 0 0.955 0.02 0 0.96 0.02 0 0.965 0.02 0 0.97 0.02 0 0.975 0.02 0 0.98 0.02 0 0.985 0.02 0 0.99 0.02 0 0.995 0.02 0 1 0.02 0 0 0.04 0 0.005 0.04 0 0.01 0.04 0 0.015 0.04 0 0.02 0.04 0 0.025 0.04 0 0.03 0.04 0 0.035 0.04 0 0.04 0.04 0 0.045 0.04 0 0.05 0.04 0 0.055 0.04 0 0.06 0.04 0 0.065 0.04 0 0.07 0.04 0 0.075 0.04 0 0.08 0.04 0 0.085 0.04 0 0.09 0.04 0 0.095 0.04 0 0.1 0.04 0 0.105 0.04 0 0.11 0.04 0 0.115 0.04 0 0.12 0.04 0 0.125 0.04 0 0.13 0.04 0 0.135 0.04 0 0.14 0.04 0 0.145 0.04 0 0.15 0.04 0 0.155 0.04 0 0.16 0.04 0 0.165 0.04 0 0.17 0.04 0 0.175 0.04 0 0.18 0.04 0 0.185 0.04 0 0.19 0.04 0 0.195 0.04 0 0.2 0.04 0 0.205 0.04 0 0.21 0.04 0 0.215 0.04 0 0.22 0.04 0 0.225 0.04 0 0.23 0.04 0 0.235 0.04 0 0.24 0.04 0 0.245 0.04 0 0.25 0.04 0 0.255 0.04 0 0.26 0.04 0 0.265 0.04 0 0.27 0.04 0 0.275 0.04 0 0.28 0.04 0 0.285 0.04 0 0.29 0.04 0 0.295 0.04 0 0.3 0.04 0 0.305 0.04 0 0.31 0.04 0 0.315 0.04 0 0.32 0.04 0 0.325 0.04 0 0.33 0.04 0 0.335 0.04 0 0.34 0.04 0 0.345 0.04 0 0.35 0.04 0 0.355 0.04 0 0.36 0.04 0 0.365 0.04 0 0.37 0.04 0 0.375 0.04 0 0.38 0.04 0 0.385 0.04 0 0.39 0.04 0 0.395 0.04 0 0.4 0.04 0 0.405 0.04 0 0.41 0.04 0 0.415 0.04 0 0.42 0.04 0 0.425 0.04 0 0.43 0.04 0 0.435 0.04 0 0.44 0.04 0 0.445 0.04 0 0.45 0.04 0 0.455 0.04 0 0.46 0.04 0 0.465 0.04 0 0.47 0.04 0 0.475 0.04 0 0.48 0.04 0 0.485 0.04 0 0.49 0.04 0 0.495 0.04 0 0.5 0.04 0 0.505 0.04 0 0.51 0.04 0 0.515 0.04 0 0.52 0.04 0 0.525 0.04 0 0.53 0.04 0 0.535 0.04 0 0.54 0.04 0 0.545 0.04 0 0.55 0.04 0 0.555 0.04 0 0.56 0.04 0 0.565 0.04 0 0.57 0.04 0 0.575 0.04 0 0.58 0.04 0 0.585 0.04 0 0.59 0.04 0 0.595 0.04 0 0.6 0.04 0 0.605 0.04 0 0.61 0.04 0 0.615 0.04 0 0.62 0.04 0 0.625 0.04 0 0.63 0.04 0 0.635 0.04 0 0.64 0.04 0 0.645 0.04 0 0.65 0.04 0 0.655 0.04 0 0.66 0.04 0 0.665 0.04 0 0.67 0.04 0 0.675 0.04 0 0.68 0.04 0 0.685 0.04 0 0.69 0.04 0 0.695 0.04 0 0.7 0.04 0 0.705 0.04 0 0.71 0.04 0 0.715 0.04 0 0.72 0.04 0 0.725 0.04 0 0.73 0.04 0 0.735 0.04 0 0.74 0.04 0 0.745 0.04 0 0.75 0.04 0 0.755 0.04 0 0.76 0.04 0 0.765 0.04 0 0.77 0.04 0 0.775 0.04 0 0.78 0.04 0 0.785 0.04 0 0.79 0.04 0 0.795 0.04 0 0.8 0.04 0 0.805 0.04 0 0.81 0.04 0 0.815 0.04 0 0.82 0.04 0 0.825 0.04 0 0.83 0.04 0 0.835 0.04 0 0.84 0.04 0 0.845 0.04 0 0.85 0.04 0 0.855 0.04 0 0.86 0.04 0 0.865 0.04 0 0.87 0.04 0 0.875 0.04 0 0.88 0.04 0 0.885 0.04 0 0.89 0.04 0 0.895 0.04 0 0.9 0.04 0 0.905 0.04 0 0.91 0.04 0 0.915 0.04 0 0.92 0.04 0 0.925 0.04 0 0.93 0.04 0 0.935 0.04 0 0.94 0.04 0 0.945 0.04 0 0.95 0.04 0 0.955 0.04 0 0.96 0.04 0 0.965 0.04 0 0.97 0.04 0 0.975 0.04 0 0.98 0.04 0 0.985 0.04 0 0.99 0.04 0 0.995 0.04 0 1 0.04 0 0 0.06 0 0.005 0.06 0 0.01 0.06 0 0.015 0.06 0 0.02 0.06 0 0.025 0.06 0 0.03 0.06 0 0.035 0.06 0 0.04 0.06 0 0.045 0.06 0 0.05 0.06 0 0.055 0.06 0 0.06 0.06 0 0.065 0.06 0 0.07 0.06 0 0.075 0.06 0 0.08 0.06 0 0.085 0.06 0 0.09 0.06 0 0.095 0.06 0 0.1 0.06 0 0.105 0.06 0 0.11 0.06 0 0.115 0.06 0 0.12 0.06 0 0.125 0.06 0 0.13 0.06 0 0.135 0.06 0 0.14 0.06 0 0.145 0.06 0 0.15 0.06 0 0.155 0.06 0 0.16 0.06 0 0.165 0.06 0 0.17 0.06 0 0.175 0.06 0 0.18 0.06 0 0.185 0.06 0 0.19 0.06 0 0.195 0.06 0 0.2 0.06 0 0.205 0.06 0 0.21 0.06 0 0.215 0.06 0 0.22 0.06 0 0.225 0.06 0 0.23 0.06 0 0.235 0.06 0 0.24 0.06 0 0.245 0.06 0 0.25 0.06 0 0.255 0.06 0 0.26 0.06 0 0.265 0.06 0 0.27 0.06 0 0.275 0.06 0 0.28 0.06 0 0.285 0.06 0 0.29 0.06 0 0.295 0.06 0 0.3 0.06 0 0.305 0.06 0 0.31 0.06 0 0.315 0.06 0 0.32 0.06 0 0.325 0.06 0 0.33 0.06 0 0.335 0.06 0 0.34 0.06 0 0.345 0.06 0 0.35 0.06 0 0.355 0.06 0 0.36 0.06 0 0.365 0.06 0 0.37 0.06 0 0.375 0.06 0 0.38 0.06 0 0.385 0.06 0 0.39 0.06 0 0.395 0.06 0 0.4 0.06 0 0.405 0.06 0 0.41 0.06 0 0.415 0.06 0 0.42 0.06 0 0.425 0.06 0 0.43 0.06 0 0.435 0.06 0 0.44 0.06 0 0.445 0.06 0 0.45 0.06 0 0.455 0.06 0 0.46 0.06 0 0.465 0.06 0 0.47 0.06 0 0.475 0.06 0 0.48 0.06 0 0.485 0.06 0 0.49 0.06 0 0.495 0.06 0 0.5 0.06 0 0.505 0.06 0 0.51 0.06 0 0.515 0.06 0 0.52 0.06 0 0.525 0.06 0 0.53 0.06 0 0.535 0.06 0 0.54 0.06 0 0.545 0.06 0 0.55 0.06 0 0.555 0.06 0 0.56 0.06 0 0.565 0.06 0 0.57 0.06 0 0.575 0.06 0 0.58 0.06 0 0.585 0.06 0 0.59 0.06 0 0.595 0.06 0 0.6 0.06 0 0.605 0.06 0 0.61 0.06 0 0.615 0.06 0 0.62 0.06 0 0.625 0.06 0 0.63 0.06 0 0.635 0.06 0 0.64 0.06 0 0.645 0.06 0 0.65 0.06 0 0.655 0.06 0 0.66 0.06 0 0.665 0.06 0 0.67 0.06 0 0.675 0.06 0 0.68 0.06 0 0.685 0.06 0 0.69 0.06 0 0.695 0.06 0 0.7 0.06 0 0.705 0.06 0 0.71 0.06 0 0.715 0.06 0 0.72 0.06 0 0.725 0.06 0 0.73 0.06 0 0.735 0.06 0 0.74 0.06 0 0.745 0.06 0 0.75 0.06 0 0.755 0.06 0 0.76 0.06 0 0.765 0.06 0 0.77 0.06 0 0.775 0.06 0 0.78 0.06 0 0.785 0.06 0 0.79 0.06 0 0.795 0.06 0 0.8 0.06 0 0.805 0.06 0 0.81 0.06 0 0.815 0.06 0 0.82 0.06 0 0.825 0.06 0 0.83 0.06 0 0.835 0.06 0 0.84 0.06 0 0.845 0.06 0 0.85 0.06 0 0.855 0.06 0 0.86 0.06 0 0.865 0.06 0 0.87 0.06 0 0.875 0.06 0 0.88 0.06 0 0.885 0.06 0 0.89 0.06 0 0.895 0.06 0 0.9 0.06 0 0.905 0.06 0 0.91 0.06 0 0.915 0.06 0 0.92 0.06 0 0.925 0.06 0 0.93 0.06 0 0.935 0.06 0 0.94 0.06 0 0.945 0.06 0 0.95 0.06 0 0.955 0.06 0 0.96 0.06 0 0.965 0.06 0 0.97 0.06 0 0.975 0.06 0 0.98 0.06 0 0.985 0.06 0 0.99 0.06 0 0.995 0.06 0 1 0.06 0 0 0.08 0 0.005 0.08 0 0.01 0.08 0 0.015 0.08 0 0.02 0.08 0 0.025 0.08 0 0.03 0.08 0 0.035 0.08 0 0.04 0.08 0 0.045 0.08 0 0.05 0.08 0 0.055 0.08 0 0.06 0.08 0 0.065 0.08 0 0.07 0.08 0 0.075 0.08 0 0.08 0.08 0 0.085 0.08 0 0.09 0.08 0 0.095 0.08 0 0.1 0.08 0 0.105 0.08 0 0.11 0.08 0 0.115 0.08 0 0.12 0.08 0 0.125 0.08 0 0.13 0.08 0 0.135 0.08 0 0.14 0.08 0 0.145 0.08 0 0.15 0.08 0 0.155 0.08 0 0.16 0.08 0 0.165 0.08 0
[...]
			<PointData Scalars="VitesseX">
				<DataArray Name="VitesseX" type="Float32" format="ascii">
 0 -2.03576e-14 2.5454e-15 -5.99919e-14 -4.08903e-14 -6.43552e-15 3.42072e-14 -5.26521e-14 -6.84973e-14 -9.20689e-14 -4.87602e-14 4.81207e-14 -8.6299e-14 5.92877e-15 -1.11523e-13 -8.54883e-15 -4.00016e-14 -2.50705e-13 -3.93565e-14 2.5573e-14 3.41181e-14 -1.90986e-13 2.62661e-14 1.37794e-13 1.2585e-13 -3.44292e-14 -2.43608e-13 -7.3745e-14 1.23343e-13 3.14459e-14 6.47115e-14 -2.21765e-13 -1.14592e-13 -1.27843e-13 4.33966e-14 -7.88619e-14 -2.82593e-13 5.55101e-14 -3.11019e-14 2.23742e-13 -1.69827e-13 -1.46698e-13 -4.65642e-14 3.28399e-13 -3.0256e-13 -2.09745e-13 -4.53362e-13 1.12468e-14 -7.20917e-14 1.94988e-13 -1.07732e-13 -5.95032e-13 1.78018e-13 -1.03786e-13 6.84188e-13 1.03792e-13 -3.40412e-13 1.16565e-13 -3.69566e-13 3.42391e-13 -4.54079e-13 -2.07916e-13 -1.61176e-13 1.99512e-13 -2.06075e-13 -8.34374e-14 -2.22645e-15 5.11345e-13 -9.87848e-14 -1.41951e-13 -5.78377e-14 -2.0064e-13 1.99498e-13 -6.20377e-13 -2.032e-13 -4.89408e-13 3.65567e-13 -3.62696e-14 -4.56443e-13 3.23058e-12 4.25359e-11 6.7878e-10 9.56101e-09 1.18466e-07 1.27743e-06 1.18332e-05 9.26574e-05 0.000600645 0.00313691 0.0127663 0.0392496 0.0906276 0.16404 0.25133 0.347835 0.451331 0.552202 0.637345 0.720402 0.793524 0.845327 0.896062 0.923473 0.93144 0.936041 0.936929 0.936803 0.935891 0.934658 0.932439 0.922648 0.896236 0.852701 0.781638 0.670454 0.52452 0.366518 0.223558 0.115568 0.0497517 0.0182282 0.00598896 0.00184282 0.000542362 0.000153843 4.2155e-05 1.11653e-05 2.85904e-06 7.07851e-07 1.69476e-07 3.92474e-08 8.79397e-09 1.90659e-09 3.99395e-10 8.14315e-11 1.64376e-11 3.18931e-12 2.34735e-13 -2.08328e-13 1.4599e-13 -2.4688e-13 8.72264e-14 1.09024e-12 -5.57222e-13 -7.59151e-13 -1.47855e-13 3.54094e-13 3.86034e-13 -4.93549e-13 -3.76087e-13 1.32256e-12 3.8892e-13 3.82476e-13 -2.81586e-13 -5.69341e-13 2.70057e-13 3.15224e-13 1.93842e-13 -1.11938e-12 -1.09737e-12 5.82037e-13 1.45476e-12 -2.21846e-13 -1.54641e-12 -9.6547e-13 1.19055e-12 5.32863e-13 -2.93187e-13 -1.98764e-13 6.40443e-13 -5.23789e-13 -2.33768e-13 4.93443e-13 6.01003e-13 3.73707e-13 -8.56955e-13 -3.89531e-13 9.23317e-13 2.10598e-13 1.8331e-13 -1.22631e-12 -7.06567e-13 -4.9441e-14 1.07859e-13 -3.89747e-14 -1.32267e-12 -2.20875e-13 9.35482e-13 8.8746e-13 2.55863e-13 -2.33458e-12 2.35898e-13 1.78665e-12 -6.88556e-13 -1.90462e-12 -9.8642e-13 1.29886e-12 1.47192e-12 -2.19021e-12 -1.97207e-12 0 0 5.30022e-15 -3.1096e-14 1.31519e-14 -1.25368e-14 -5.93018e-14 -8.4052e-14 -1.57305e-14 -1.46737e-14 3.36612e-14 -4.16171e-14 -9.57794e-14 1.48895e-14 -6.03904e-14 2.18824e-15 -8.05207e-14 -9.41531e-14 3.41666e-14 -1.49467e-13 -1.88268e-13 -1.54503e-13 9.79474e-14 8.60329e-14 -6.11099e-14 -1.16455e-14 -6.3075e-14 3.95367e-14 4.77859e-15 -1.77799e-13 5.40134e-14 -6.93849e-15 5.0087e-14 -9.7682e-14 -7.20851e-14 -2.32983e-13 -1.72489e-13 1.06331e-13 3.18889e-14 -1.4843e-14 -1.85161e-13 -1.72682e-14 -5.68302e-14 -6.11507e-14 -3.39657e-13 6.9386e-14 -8.40511e-14 5.98981e-14 -3.02373e-13 -2.70059e-13 -4.05319e-13 5.06044e-14 4.14031e-13 1.43924e-13 5.31589e-14 -3.67133e-13 1.76574e-13 1.93704e-13 -2.01389e-13 1.60353e-13 -3.77546e-13 8.17477e-14 -3.23745e-13 -2.08723e-13 -1.31346e-13 1.60565e-13 9.88554e-14 5.65e-14 -2.53539e-13 1.74281e-13 2.48005e-13 -1.25119e-13 -1.04859e-13 -4.54165e-13 4.68664e-14 -2.63256e-13 -8.20498e-14 -4.56785e-13 -1.28346e-13 4.51396e-13 2.55255e-12 4.31462e-11 6.78956e-10 9.56002e-09 1.18466e-07 1.27743e-06 1.18332e-05 9.26574e-05 0.000600645 0.00313691 0.0127663 0.0392496 0.0906276 0.16404 0.25133 0.347835 0.451331 0.552202 0.637345 0.720402 0.793524 0.845327 0.896062 0.923473 0.93144 0.936041 0.936929 0.936803 0.935891 0.934658 0.932439 0.922648 0.896236 0.852701 0.781638 0.670454 0.52452 0.366518 0.223558 0.115568 0.0497517 0.0182282 0.00598896 0.00184282 0.000542362 0.000153843 4.2155e-05 1.11653e-05 2.85904e-06 7.07851e-07 1.69476e-07 3.92473e-08 8.79301e-09 1.90656e-09 4.0042e-10 8.12333e-11 1.60366e-11 2.69681e-12 4.77943e-13 2.13115e-13 -4.36308e-13 1.8434e-13 1.55895e-13 -5.17454e-13 3.53564e-13 3.59881e-13 -1.96898e-13 -3.94072e-13 -4.97217e-13 6.49834e-13 7.89531e-13 -3.10151e-13 2.28253e-13 2.90405e-13 4.31986e-13 3.84081e-14 -1.77307e-13 -9.22373e-13 -1.67594e-13 4.86518e-13 1.69029e-13 -3.92344e-13 -1.31156e-12 2.27029e-13 8.91145e-13 2.68884e-13 -7.41109e-13 -5.40928e-13 3.46491e-13 3.5801e-13 -6.1708e-13 6.62934e-13 2.84253e-13 -1.51831e-13 5.07189e-14 -2.25679e-13 5.60477e-13 5.62189e-13 -3.23841e-13 -3.07888e-13 -8.52118e-13 2.67683e-13 9.97498e-14 -5.47677e-13 -6.78852e-13 -9.78188e-13 8.18246e-13 2.76515e-13 -4.98639e-13 -4.8403e-13 -5.7608e-13 1.03507e-12 -4.14982e-13 -1.18683e-12 1.75683e-13 9.35594e-13 -1.67309e-13 -1.04273e-12 -1.7172e-12 9.57936e-13 6.35113e-13 0 0 -6.47469e-15 8.04e-15 -7.97444e-15 -3.30857e-14 -3.6747e-14 -2.53554e-14 -2.76471e-14 -3.50214e-14 -2.34149e-14 -6.17087e-15 1.64336e-14 -3.7093e-14 -6.23053e-14 -6.13284e-14 -2.64653e-14 -1.66349e-14 -1.15388e-13 -1.23494e-13 -1.33918e-13 -8.33064e-14 3.02919e-14 -6.22449e-14 5.77293e-16 -1.34251e-13 -1.71595e-15 -2.38588e-14 -3.13173e-14 4.8053e-15 3.63148e-14 -6.00236e-14 5.87168e-14 -5.66197e-14 -1.56124e-13 -6.31729e-14 -1.0787e-13 -5.61709e-14 -1.39729e-13 -2.65508e-14 -9.65327e-14 2.96635e-14 -1.65008e-14 -1.57798e-13 -3.6959e-13 -6.22058e-14 2.70587e-14 -4.12415e-14 -1.47969e-13 -1.07483e-13 -7.25781e-14 1.82269e-13 2.84882e-13 1.58361e-13 -1.83174e-13 -3.30895e-13 -3.24867e-14 3.50975e-13 2.21621e-13 -3.41069e-14 -5.81424e-13 -4.68961e-13 8.21669e-14 -5.98124e-14 -4.07002e-14 -2.28117e-14 -1.0272e-13 -5.89621e-14 1.26567e-13 5.51614e-13 -1.05919e-13 1.10229e-14 -1.50117e-13 -1.6897e-13 -1.15522e-13 -2.34492e-13 -3.91148e-13 -1.66419e-13 1.2676e-13 2.68852e-13 2.7244e-12 4.30941e-11 6.78298e-10 9.5598e-09 1.18466e-07 1.27743e-06 1.18332e-05 9.26574e-05 0.000600645 0.00313691 0.0127663 0.0392496 0.0906276 0.16404 0.25133 0.347835 0.451331 0.552202 0.637345 0.720402 0.793524 0.845327 0.896062 0.923473 0.93144 0.936041 0.936929 0.936803 0.935891 0.934658 0.932439 0.922648 0.896236 0.852701 0.781638 0.670454 0.52452 0.366518 0.223558 0.115568 0.0497517 0.0182282 0.00598896 0.00184282 0.000542362 0.000153843 4.2155e-05 1.11653e-05 2.85904e-06 7.07851e-07 1.69476e-07 3.9247e-08 8.79344e-09 1.90649e-09 3.99942e-10 8.14605e-11 1.55446e-11 3.13207e-12 4.59232e-13 -8.84609e-14 -2.54007e-13 -3.27193e-13 2.1527e-13 3.06701e-13 -4.56749e-13 -7.79708e-14 7.86177e-13 -8.49625e-14 3.09615e-13 -3.00073e-13 -4.66917e-13 7.05538e-13 2.42406e-13 6.46392e-13 -3.72352e-13 3.59506e-13 -3.76021e-13 -4.54837e-13 -7.19298e-13 -2.89189e-13 6.17708e-14 -2.16607e-13 1.2563e-13 -1.59909e-13 -1.93466e-13 -3.65208e-13 -1.72847e-13 2.69734e-13 5.91938e-13 -1.96129e-15 -2.46055e-13 -7.70566e-13 3.52013e-13 7.217e-13 1.8472e-13 -7.16467e-14 -1.53456e-13 1.15744e-13 6.11686e-13 -2.65715e-13 -2.87832e-13 -5.25629e-13 -4.34874e-13 -3.71279e-13 -7.54621e-13 -3.51613e-13 -3.68656e-13 7.11775e-13 -1.589e-13 -8.94444e-13 1.51208e-13 -1.33208e-13 1.68169e-13 7.48327e-14 -8.67096e-13 9.6543e-14 3.82262e-13 -7.07045e-14 -5.76915e-13 -3.11345e-13 -2.40263e-13 0 0 -9.77283e-15 -1.23745e-14 -6.23616e-14 -4.94742e-14 -3.73063e-15 4.35704e-14 1.38763e-14 -2.75415e-14 -2.13478e-14 -2.13198e-14 4.65626e-15 -2.71464e-14 -9.74859e-14 -1.46029e-13 2.41371e-14 -3.0116e-14 -2.31564e-13 -1.06214e-14 -1.45896e-14 -5.13546e-14 -1.4697e-13 -4.78061e-14 -3.1795e-14 2.02644e-14 -9.12274e-14 -1.52145e-13 -1.23896e-14 7.79664e-14 5.81808e-14 4.09578e-14 -1.3054e-13 1.39465e-15 -4.18078e-14 4.8919e-14 -8.73266e-14 -2.01113e-13 -1.16334e-14 -9.19414e-14 1.34405e-13 -8.09471e-14 -3.46534e-13 -2.91644e-14 1.3593e-14 -1.32727e-13 -1.71183e-13 -3.0907e-13 1.3644e-13 1.10634e-14 2.99959e-13 -6.98275e-14 -2.30511e-13 2.72043e-13 7.21008e-14 -6.45479e-14 -1.77425e-13 -7.83576e-14 3.99153e-14 -2.71015e-13 -2.21498e-14 -6.43292e-13 -1.47227e-13 1.14713e-13 -1.10551e-13 -7.22344e-14 3.58297e-14 1.0499e-13 4.28193e-13 1.43086e-13 1.02731e-13 -7.62606e-14 1.60148e-13 2.13128e-14 -3.78561e-13 -2.94868e-13 -5.13512e-13 3.23458e-13 2.9332e-13 6.10369e-14 2.81145e-12 4.26595e-11 6.78331e-10 9.56057e-09 1.18465e-07 1.27743e-06 1.18332e-05 9.26574e-05 0.000600645 0.00313691 0.0127663 0.0392496 0.0906276 0.16404 0.25133 0.347835 0.451331 0.552202 0.637345 0.720402 0.793524 0.845327 0.896062 0.923473 0.93144 0.936041 0.936929 0.936803 0.935891 0.934658 0.932439 0.922648 0.896236 0.852701 0.781638 0.670454 0.52452 0.366518 0.223558 0.115568 0.0497517 0.0182282 0.00598896 0.00184282 0.000542362 0.000153843 4.2155e-05 1.11653e-05 2.85904e-06 7.07851e-07 1.69476e-07 3.92473e-08 8.7935e-09 1.90668e-09 3.99604e-10 8.09433e-11 1.61353e-11 2.92822e-12 5.68586e-13 -2.62598e-13 -2.06268e-13 -8.22676e-14 2.05784e-13 6.75886e-13 -6.95116e-14 -3.18568e-13 3.72791e-13 1.02007e-12 3.0584e-13 -3.74283e-13 -1.35881e-13 6.83894e-13 -1.88159e-13 -3.50668e-13 -3.60749e-13 -3.77036e-13 2.44041e-13 2.15381e-13 -6.02608e-13 -1.12562e-12 -1.12417e-12 -1.09898e-13 4.77482e-13 -1.03903e-13 -2.30074e-13 -7.22412e-13 6.08429e-13 -2.67067e-13 -8.44475e-13 1.93007e-14 6.29981e-13 5.45754e-13 -1.27444e-13 8.65928e-14 4.68864e-13 1.69185e-13 -5.89304e-13 -2.63353e-13 6.17749e-13 4.16039e-13 3.08243e-13 -8.93964e-13 -5.43615e-13 -1.05586e-12 7.64355e-14 2.17368e-13 -6.0522e-13 1.02085e-13 -8.81456e-14 1.21291e-12 -6.22755e-13 -1.17192e-12 3.74114e-13 9.60908e-13 3.0288e-13 -6.88228e-13 -4.94686e-13 8.89928e-13 4.05479e-13 -1.30194e-12 -1.35451e-12 0 0 -1.95699e-15 -5.21702e-14 -1.44692e-14 -1.56267e-15 -6.19938e-15 2.4772e-15 4.11386e-14 3.14193e-14 7.15737e-14 -4.48216e-14 -1.10257e-13 2.56009e-14 -1.15721e-13 -1.14957e-13 -1.01191e-13 -1.45765e-13 3.11245e-14 -6.41381e-14 -1.55096e-13 -1.49605e-13 4.72145e-15 7.23118e-14 -1.05724e-13 3.28552e-14 -1.48899e-13 8.29486e-15 1.56327e-14 -1.42938e-13 5.80984e-14 1.25919e-13 1.35081e-14 1.1033e-14 -1.61088e-14 -1.92574e-13 -2.53863e-13 4.94797e-14 4.6559e-14 -5.3028e-14 -6.86504e-14 -9.94849e-14 -1.02317e-13 -5.91051e-14 -1.66766e-13 -1.15088e-13 -2.17141e-13 -3.46269e-14 -2.061e-13 -2.20125e-13 -1.78059e-13 2.7607e-14 1.60204e-13 -6.09067e-15 2.5164e-13 -4.01558e-13 -3.32286e-14 -8.26448e-14 -3.14816e-13 9.61176e-14 -1.65654e-13 -1.86817e-13 -3.76659e-13 -1.47038e-13 -1.70368e-13 3.34226e-13 2.16871e-13 3.75386e-13 1.09341e-13 1.18918e-13 4.04605e-13 -2.10171e-13 -7.77776e-14 -6.66473e-13 1.62972e-13 -5.35224e-15 -3.48223e-14 -1.26915e-13 2.28142e-13 6.54538e-13 2.32821e-12 4.28606e-11 6.78895e-10 9.56023e-09 1.18466e-07 1.27743e-06 1.18332e-05 9.26574e-05 0.000600645 0.00313691 0.0127663 0.0392496 0.0906276 0.16404 0.25133 0.347835 0.451331 0.552202 0.637345 0.720402 0.793524 0.845327 0.896062 0.923473 0.93144 0.936041 0.936929 0.936803 0.935891 0.934658 0.932439 0.922648 0.896236 0.852701 0.781638 0.670454 0.52452 0.366518 0.223558 0.115568 0.0497517 0.0182282 0.00598896 0.00184282 0.000542362 0.000153843 4.2155e-05 1.11653e-05 2.85904e-06 7.07851e-07 1.69476e-07 3.92473e-08 8.79298e-09 1.9066e-09 4.00124e-10 8.08196e-11 1.60031e-11 2.48913e-12 6.21631e-13 3.15701e-13 -3.75563e-13 4.20168e-13 4.82987e-13 -1.35221e-13 7.58496e-13 6.23524e-13 -3.27537e-13 1.62116e-13 -2.54189e-13 1.18196e-12 1.01888e-12 -8.0182e-13 -5.84821e-15 -7.03611e-13 9.90243e-15 -5.64766e-13 -4.04309e-14 -7.14897e-13 -6.28834e-13 -4.32647e-13 -1.0515e-12 -1.11978e-12 -1.22552e-12 1.06777e-12 1.48227e-12 1.09146e-12 -5.99001e-13 -1.26566e-12 -1.06578e-12 2.18832e-13 -1.30764e-13 1.28666e-12 -2.01142e-13 -7.13928e-13 -2.38458e-13 3.18787e-13 3.17758e-13 7.80323e-14 -1.39371e-13 4.14183e-13 -7.66525e-14 1.25961e-13 -3.26892e-13 -1.53783e-12 -5.1104e-13 -3.7251e-13 8.9233e-13 -4.73299e-14 -1.11189e-13 6.77403e-13 -8.34353e-13 2.32321e-13 -3.42045e-13 -4.19207e-13 1.2149e-12 7.20538e-13 -6.76266e-13 -7.02104e-13 -1.51888e-12 -2.22276e-13 2.76362e-13 0 0 -2.82758e-14 1.22588e-15 -6.45973e-15 1.3835e-14 3.37366e-14 6.94142e-14 -2.19608e-14 8.7288e-15 -2.03781e-14 -2.48715e-14 4.27194e-14 -8.47695e-14 -3.43703e-14 -1.76413e-13 -1.51093e-13 -1.16263e-13 -2.44378e-14 -9.44436e-14 -1.46739e-13 -1.99908e-14 -2.29143e-14 -3.00537e-14 1.1331e-13 -9.41798e-14 -2.70543e-14 -4.95202e-14 -8.98922e-14 4.67443e-14 -4.11622e-15 1.28463e-13 8.35908e-14 -1.31902e-14 -2.44522e-13 -9.99691e-14 -2.82696e-13 -1.0641e-13 -1.71342e-13 2.33093e-14 -5.11255e-15 -1.13039e-13 4.22396e-13 -2.99741e-13 -9.21847e-14 -5.30466e-13 -7.94417e-14 -1.06755e-13 -3.65024e-13 -2.09316e-13 -9.55657e-14 3.50467e-13 -7.19001e-14 -3.49377e-13 -2.17372e-13 8.26442e-14 -2.59352e-14 -3.44463e-14 2.53122e-13 -2.42203e-14 -3.52374e-13 -6.42545e-13 1.45041e-13 -3.86857e-13 2.61171e-13 2.40093e-13 -1.24506e-13 3.07642e-13 6.33855e-13 6.07546e-13 -2.46052e-13 -5.33747e-14 -7.67009e-13 -6.05683e-13 1.37912e-13 4.33361e-13 -1.50225e-13 4.55546e-14 3.43585e-13 3.65472e-13 2.60779e-12 4.28339e-11 6.78591e-10 9.55991e-09 1.18467e-07 1.27743e-06 1.18332e-05 9.26574e-05 0.000600645 0.00313691 0.0127663 0.0392496 0.0906276 0.16404 0.25133 0.347835 0.451331 0.552202 0.637345 0.720402 0.793524 0.845327 0.896062 0.923473 0.93144 0.936041 0.936929 0.936803 0.935891 0.934658 0.932439 0.922648 0.896236 0.852701 0.781638 0.670454 0.52452 0.366518 0.223558 0.115568 0.0497517 0.0182282 0.00598896 0.00184282 0.000542362 0.000153843 4.2155e-05 1.11653e-05 2.85904e-06 7.07851e-07 1.69476e-07 3.92467e-08 8.79378e-09 1.90629e-09 3.99478e-10 8.16385e-11 1.51893e-11 3.18165e-12 3.03404e-13 3.45119e-13 1.72001e-13 -2.65076e-13 7.60381e-13 1.11633e-12 -5.21833e-13 2.49329e-13 4.17639e-13 -7.43587e-13 8.79641e-13 7.19116e-13 -5.79468e-13 3.82511e-13 7.81847e-13 3.88564e-13 -1.14896e-12 -3.02604e-13 -6.96317e-13 -6.10258e-13 -9.62018e-13 -1.28485e-12 -1.16654e-12 -1.08625e-12 9.23135e-13 1.34762e-12 -2.90934e-13 1.39409e-12 -8.77863e-14 1.56997e-13 -2.44897e-13 -5.19644e-13 -1.38996e-13 -1.90897e-12 -2.45644e-13 6.39462e-13 -5.45637e-13 9.80976e-13 -4.70699e-13 -5.9965e-13 1.28013e-12 2.91232e-13 5.4209e-13 -7.73082e-13 -1.34237e-12 -6.60586e-13 -1.21863e-12 3.44181e-14 -7.01379e-13 3.50814e-13 1.56887e-12 -1.00438e-12 1.28724e-12 -1.86266e-12 -3.01165e-14 1.54974e-12 -9.50063e-13 -7.6519e-13 -2.50438e-13 5.8836e-14 -9.62322e-14 -2.56943e-12 -4.61079e-13 0
				</DataArray>
				<DataArray Name="VitesseY" type="Float32" format="ascii">