<?xml version="1.0"?>
<VTKFile type="PolyData">
	<PolyData>
		<Piece NumberOfPoints="1206" NumberOfPolys="1000">
			<Points>
				<DataArray type="Float32" NumberOfComponents="3" format="ascii">
 0 0 0 0.005 0 0 0.01 0 0 0.015 0 0 0.02 0 0 0.025 0 0 0.03 0 0 0.035 0 0 0.04 0 0 0.045 0 0 0.05 0 0 0.055 0 0 0.06 0 0 0.065 0 0 0.07 0 0 0.075 0 0 0.08 0 0 0.085 0 0 0.09 0 0 0.095 0 0 0.1 0 0 0.105 0 0 0.11 0 0 0.115 0 0 0.12 0 0 0.125 0 0 0.13 0 0 0.135 0 0 0.14 0 0 0.145 0 0 0.15 0 0 0.155 0 0 0.16 0 0 0.165 0 0 0.17 0 0 0.175 0 0 0.18 0 0 0.185 0 0 0.19 0 0 0.195 0 0 0.2 0 0 0.205 0 0 0.21 0 0 0.215 0 0 0.22 0 0 0.225 0 0 0.23 0 0 0.235 0 0 0.24 0 0 0.245 0 0 0.25 0 0 0.255 0 0 0.26 0 0 0.265 0 0 0.27 0 0 0.275 0 0 0.28 0 0 0.285 0 0 0.29 0 0 0.295 0 0 0.3 0 0 0.305 0 0 0.31 0 0 0.315 0 0 0.32 0 0 0.325 0 0 0.33 0 0 0.335 0 0 0.34 0 0 0.345 0 0 0.35 0 0 0.355 0 0 0.36 0 0 0.365 0 0 0.37 0 0 0.375 0 0 0.38 0 0 0.385 0 0 0.39 0 0 0.395 0 0 0.4 0 0 0.405 0 0 0.41 0 0 0.415 0 0 0.42 0 0 0.425 0 0 0.43 0 0 0.435 0 0 0.44 0 0 0.445 0 0 0.45 0 0 0.455 0 0 0.46 0 0 0.465 0 0 0.47 0 0 0.475 0 0 0.48 0 0 0.485 0 0 0.49 0 0 0.495 0 0 0.5 0 0 0.505 0 0 0.51 0 0 0.515 0 0 0.52 0 0 0.525 0 0 0.53 0 0 0.535 0 0 0.54 0 0 0.545 0 0 0.55 0 0 0.555 0 0 0.56 0 0 0.565 0 0 0.57 0 0 0.575 0 0 0.58 0 0 0.585 0 0 0.59 0 0 0.595 0 0 0.6 0 0 0.605 0 0 0.61 0 0 0.615 0 0 0.62 0 0 0.625 0 0 0.63 0 0 0.635 0 0 0.64 0 0 0.645 0 0 0.65 0 0 0.655 0 0 0.66 0 0 0.665 0 0 0.67 0 0 0.675 0 0 0.68 0 0 0.685 0 0 0.69 0 0 0.695 0 0 0.7 0 0 0.705 0 0 0.71 0 0 0.715 0 0 0.72 0 0 0.725 0 0 0.73 0 0 0.735 0 0 0.74 0 0 0.745 0 0 0.75 0 0 0.755 0 0 0.76 0 0 0.765 0 0 0.77 0 0 0.775 0 0 0.78 0 0 0.785 0 0 0.79 0 0 0.795 0 0 0.8 0 0 0.805 0 0 0.81 0 0 0.815 0 0 0.82 0 0 0.825 0 0 0.83 0 0 0.835 0 0 0.84 0 0 0.845 0 0 0.85 0 0 0.855 0 0 0.86 0 0 0.865 0 0 0.87 0 0 0.875 0 0 0.88 0 0 0.885 0 0 0.89 0 0 0.895 0 0 0.9 0 0 0.905 0 0 0.91 0 0 0.915 0 0 0.92 0 0 0.925 0 0 0.93 0 0 0.935 0 0 0.94 0 0 0.945 0 0 0.95 0 0 0.955 0 0 0.96 0 0 0.965 0 0 0.97 0 0 0.975 0 0 0.98 0 0 0.985 0 0 0.99 0 0 0.995 0 0 1 0 0 0 0.02 0 0.005 0.02 0 0.01 0.02 0 0.015 0.02 0 0.02 0.02 0 0.025 0.02 0 0.03 0.02 0 0.035 0.02 0 0.04 0.02 0 0.045 0.02 0 0.05 0.02 0 0.055 0.02 0 0.06 0.02 0 0.065 0.02 0 0.07 0.02 0 0.075 0.02 0 0.08 0.02 0 0.085 0.02 0 0.09 0.02 0 0.095 0.02 0 0.1 0.02 0 0.105 0.02 0 0.11 0.02 0 0.115 0.02 0 0.12 0.02 0 0.125 0.02 0 0.13 0.02 0 0.135 0.02 0 0.14 0.02 0 0.145 0.02 0 0.15 0.02 0 0.155 0.02 0 0.16 0.02 0 0.165 0.02 0 0.17 0.02 0 0.175 0.02 0 0.18 0.02 0 0.185 0.02 0 0.19 0.02 0 0.195 0.02 0 0.2 0.02 0 0.205 0.02 0 0.21 0.02 0 0.215 0.02 0 0.22 0.02 0 0.225 0.02 0 0.23 0.02 0 0.235 0.02 0 0.24 0.02 0 0.245 0.02 0 0.25 0.02 0 0.255 0.02 0 0.26 0.02 0 0.265 0.02 0 0.27 0.02 0 0.275 0.02 0 0.28 0.02 0 0.285 0.02 0 0.29 0.02 0 0.295 0.02 0 0.3 0.02 0 0.305 0.02 0 0.31 0.02 0 0.315 0.02 0 0.32 0.02 0 0.325 0.02 0 0.33 0.02 0 0.335 0.02 0 0.34 0.02 0 0.345 0.02 0 0.35 0.02 0 0.355 0.02 0 0.36 0.02 0 0.365 0.02 0 0.37 0.02 0 0.375 0.02 0 0.38 0.02 0 0.385 0.02 0 0.39 0.02 0 0.395 0.02 0 0.4 0.02 0 0.405 0.02 0 0.41 0.02 0 0.415 0.02 0 0.42 0.02 0 0.425 0.02 0 0.43 0.02 0 0.435 0.02 0 0.44 0.02 0 0.445 0.02 0 0.45 0.02 0 0.455 0.02 0 0.46 0.02 0 0.465 0.02 0 0.47 0.02 0 0.475 0.02 0 0.48 0.02 0 0.485 0.02 0 0.49 0.02 0 0.495 0.02 0 0.5 0.02 0 0.505 0.02 0 0.51 0.02 0 0.515 0.02 0 0.52 0.02 0 0.525 0.02 0 0.53 0.02 0 0.535 0.02 0 0.54 0.02 0 0.545 0.02 0 0.55 0.02 0 0.555 0.02 0 0.56 0.02 0 0.565 0.02 0 0.57 0.02 0 0.575 0.02 0 0.58 0.02 0 0.585 0.02 0 0.59 0.02 0 0.595 0.02 0 0.6 0.02 0 0.605 0.02 0 0.61 0.02 0 0.615 0.02 0 0.62 0.02 0 0.625 0.02 0 0.63 0.02 0 0.635 0.02 0 0.64 0.02 0 0.645 0.02 0 0.65 0.02 0 0.655 0.02 0 0.66 0.02 0 0.665 0.02 0 0.67 0.02 0 0.675 0.02 0 0.68 0.02 0 0.685 0.02 0 0.69 0.02 0 0.695 0.02 0 0.7 0.02 0 0.705 0.02 0 0.71 0.02 0 0.715 0.02 0 0.72 0.02 0 0.725 0.02 0 0.73 0.02 0 0.735 0.02 0 0.74 0.02 0 0.745 0.02 0 0.75 0.02 0 0.755 0.02 0 0.76 0.02 0 0.765 0.02 0 0.77 0.02 0 0.775 0.02 0 0.78 0.02 0 0.785 0.02 0 0.79 0.02 0 0.795 0.02 0 0.8 0.02 0 0.805 0.02 0 0.81 0.02 0 0.815 0.02 0 0.82 0.02 0 0.825 0.02 0 0.83 0.02 0 0.835 0.02 0 0.84 0.02 0 0.845 0.02 0 0.85 0.02 0 0.855 0.02 0 0.86 0.02 0 0.865 0.02 0 0.87 0.02 0 0.875 0.02 0 0.88 0.02 0 0.885 0.02 0 0.89 0.02 0 0.895 0.02 0 0.9 0.02 0 0.905 0.02 0 0.91 0.02 0 0.915 0.02 0 0.92 0.02 0 0.925 0.02 0 0.93 0.02 0 0.935 0.02 0 0.94 0.02 0 0.945 0.02 0 0.95 0.02 0 0.955 0.02 0 0.96 0.02 0 0.965 0.02 0 0.97 0.02 0 0.975 0.02 0 0.98 0.02 0 0.985 0.02 0 0.99 0.02 0 0.995 0.02 0 1 0.02 0 0 0.04 0 0.005 0.04 0 0.01 0.04 0 0.015 0.04 0 0.02 0.04 0 0.025 0.04 0 0.03 0.04 0 0.035 0.04 0 0.04 0.04 0 0.045 0.04 0 0.05 0.04 0 0.055 0.04 0 0.06 0.04 0 0.065 0.04 0 0.07 0.04 0 0.075 0.04 0 0.08 0.04 0 0.085 0.04 0 0.09 0.04 0 0.095 0.04 0 0.1 0.04 0 0.105 0.04 0 0.11 0.04 0 0.115 0.04 0 0.12 0.04 0 0.125 0.04 0 0.13 0.04 0 0.135 0.04 0 0.14 0.04 0 0.145 0.04 0 0.15 0.04 0 0.155 0.04 0 0.16 0.04 0 0.165 0.04 0 0.17 0.04 0 0.175 0.04 0 0.18 0.04 0 0.185 0.04 0 0.19 0.04 0 0.195 0.04 0 0.2 0.04 0 0.205 0.04 0 0.21 0.04 0 0.215 0.04 0 0.22 0.04 0 0.225 0.04 0 0.23 0.04 0 0.235 0.04 0 0.24 0.04 0 0.245 0.04 0 0.25 0.04 0 0.255 0.04 0 0.26 0.04 0 0.265 0.04 0 0.27 0.04 0 0.275 0.04 0 0.28 0.04 0 0.285 0.04 0 0.29 0.04 0 0.295 0.04 0 0.3 0.04 0 0.305 0.04 0 0.31 0.04 0 0.315 0.04 0 0.32 0.04 0 0.325 0.04 0 0.33 0.04 0 0.335 0.04 0 0.34 0.04 0 0.345 0.04 0 0.35 0.04 0 0.355 0.04 0 0.36 0.04 0 0.365 0.04 0 0.37 0.04 0 0.375 0.04 0 0.38 0.04 0 0.385 0.04 0 0.39 0.04 0 0.395 0.04 0 0.4 0.04 0 0.405 0.04 0 0.41 0.04 0 0.415 0.04 0 0.42 0.04 0 0.425 0.04 0 0.43 0.04 0 0.435 0.04 0 0.44 0.04 0 0.445 0.04 0 0.45 0.04 0 0.455 0.04 0 0.46 0.04 0 0.465 0.04 0 0.47 0.04 0 0.475 0.04 0 0.48 0.04 0 0.485 0.04 0 0.49 0.04 0 0.495 0.04 0 0.5 0.04 0 0.505 0.04 0 0.51 0.04 0 0.515 0.04 0 0.52 0.04 0 0.525 0.04 0 0.53 0.04 0 0.535 0.04 0 0.54 0.04 0 0.545 0.04 0 0.55 0.04 0 0.555 0.04 0 0.56 0.04 0 0.565 0.04 0 0.57 0.04 0 0.575 0.04 0 0.58 0.04 0 0.585 0.04 0 0.59 0.04 0 0.595 0.04 0 0.6 0.04 0 0.605 0.04 0 0.61 0.04 0 0.615 0.04 0 0.62 0.04 0 0.625 0.04 0 0.63 0.04 0 0.635 0.04 0 0.64 0.04 0 0.645 0.04 0 0.65 0.04 0 0.655 0.04 0 0.66 0.04 0 0.665 0.04 0 0.67 0.04 0 0.675 0.04 0 0.68 0.04 0 0.685 0.04 0 0.69 0.04 0 0.695 0.04 0 0.7 0.04 0 0.705 0.04 0 0.71 0.04 0 0.715 0.04 0 0.72 0.04 0 0.725 0.04 0 0.73 0.04 0 0.735 0.04 0 0.74 0.04 0 0.745 0.04 0 0.75 0.04 0 0.755 0.04 0 0.76 0.04 0 0.765 0.04 0 0.77 0.04 0 0.775 0.04 0 0.78 0.04 0 0.785 0.04 0 0.79 0.04 0 0.795 0.04 0 0.8 0.04 0 0.805 0.04 0 0.81 0.04 0 0.815 0.04 0 0.82 0.04 0 0.825 0.04 0 0.83 0.04 0 0.835 0.04 0 0.84 0.04 0 0.845 0.04 0 0.85 0.04 0 0.855 0.04 0 0.86 0.04 0 0.865 0.04 0 0.87 0.04 0 0.875 0.04 0 0.88 0.04 0 0.885 0.04 0 0.89 0.04 0 0.895 0.04 0 0.9 0.04 0 0.905 0.04 0 0.91 0.04 0 0.915 0.04 0 0.92 0.04 0 0.925 0.04 0 0.93 0.04 0 0.935 0.04 0 0.94 0.04 0 0.945 0.04 0 0.95 0.04 0 0.955 0.04 0 0.96 0.04 0 0.965 0.04 0 0.97 0.04 0 0.975 0.04 0 0.98 0.04 0 0.985 0.04 0 0.99 0.04 0 0.995 0.04 0 1 0.04 0 0 0.06 0 0.005 0.06 0 0.01 0.06 0 0.015 0.06 0 0.02 0.06 0 0.025 0.06 0 0.03 0.06 0 0.035 0.06 0 0.04 0.06 0 0.045 0.06 0 0.05 0.06 0 0.055 0.06 0 0.06 0.06 0 0.065 0.06 0 0.07 0.06 0 0.075 0.06 0 0.08 0.06 0 0.085 0.06 0 0.09 0.06 0 0.095 0.06 0 0.1 0.06 0 0.105 0.06 0 0.11 0.06 0 0.115 0.06 0 0.12 0.06 0 0.125 0.06 0 0.13 0.06 0 0.135 0.06 0 0.14 0.06 0 0.145 0.06 0 0.15 0.06 0 0.155 0.06 0 0.16 0.06 0 0.165 0.06 0 0.17 0.06 0 0.175 0.06 0 0.18 0.06 0 0.185 0.06 0 0.19 0.06 0 0.195 0.06 0 0.2 0.06 0 0.205 0.06 0 0.21 0.06 0 0.215 0.06 0 0.22 0.06 0 0.225 0.06 0 0.23 0.06 0 0.235 0.06 0 0.24 0.06 0 0.245 0.06 0 0.25 0.06 0 0.255 0.06 0 0.26 0.06 0 0.265 0.06 0 0.27 0.06 0 0.275 0.06 0 0.28 0.06 0 0.285 0.06 0 0.29 0.06 0 0.295 0.06 0 0.3 0.06 0 0.305 0.06 0 0.31 0.06 0 0.315 0.06 0 0.32 0.06 0 0.325 0.06 0 0.33 0.06 0 0.335 0.06 0 0.34 0.06 0 0.345 0.06 0 0.35 0.06 0 0.355 0.06 0 0.36 0.06 0 0.365 0.06 0 0.37 0.06 0 0.375 0.06 0 0.38 0.06 0 0.385 0.06 0 0.39 0.06 0 0.395 0.06 0 0.4 0.06 0 0.405 0.06 0 0.41 0.06 0 0.415 0.06 0 0.42 0.06 0 0.425 0.06 0 0.43 0.06 0 0.435 0.06 0 0.44 0.06 0 0.445 0.06 0 0.45 0.06 0 0.455 0.06 0 0.46 0.06 0 0.465 0.06 0 0.47 0.06 0 0.475 0.06 0 0.48 0.06 0 0.485 0.06 0 0.49 0.06 0 0.495 0.06 0 0.5 0.06 0 0.505 0.06 0 0.51 0.06 0 0.515 0.06 0 0.52 0.06 0 0.525 0.06 0 0.53 0.06 0 0.535 0.06 0 0.54 0.06 0 0.545 0.06 0 0.55 0.06 0 0.555 0.06 0 0.56 0.06 0 0.565 0.06 0 0.57 0.06 0 0.575 0.06 0 0.58 0.06 0 0.585 0.06 0 0.59 0.06 0 0.595 0.06 0 0.6 0.06 0 0.605 0.06 0 0.61 0.06 0 0.615 0.06 0 0.62 0.06 0 0.625 0.06 0 0.63 0.06 0 0.635 0.06 0 0.64 0.06 0 0.645 0.06 0 0.65 0.06 0 0.655 0.06 0 0.66 0.06 0 0.665 0.06 0 0.67 0.06 0 0.675 0.06 0 0.68 0.06 0 0.685 0.06 0 0.69 0.06 0 0.695 0.06 0 0.7 0.06 0 0.705 0.06 0 0.71 0.06 0 0.715 0.06 0 0.72 0.06 0 0.725 0.06 0 0.73 0.06 0 0.735 0.06 0 0.74 0.06 0 0.745 0.06 0 0.75 0.06 0 0.755 0.06 0 0.76 0.06 0 0.765 0.06 0 0.77 0.06 0 0.775 0.06 0 0.78 0.06 0 0.785 0.06 0 0.79 0.06 0 0.795 0.06 0 0.8 0.06 0 0.805 0.06 0 0.81 0.06 0 0.815 0.06 0 0.82 0.06 0 0.825 0.06 0 0.83 0.06 0 0.835 0.06 0 0.84 0.06 0 0.845 0.06 0 0.85 0.06 0 0.855 0.06 0 0.86 0.06 0 0.865 0.06 0 0.87 0.06 0 0.875 0.06 0 0.88 0.06 0 0.885 0.06 0 0.89 0.06 0 0.895 0.06 0 0.9 0.06 0 0.905 0.06 0 0.91 0.06 0 0.915 0.06 0 0.92 0.06 0 0.925 0.06 0 0.93 0.06 0 0.935 0.06 0 0.94 0.06 0 0.945 0.06 0 0.95 0.06 0 0.955 0.06 0 0.96 0.06 0 0.965 0.06 0 0.97 0.06 0 0.975 0.06 0 0.98 0.06 0 0.985 0.06 0 0.99 0.06 0 0.995 0.06 0 1 0.06 0 0 0.08 0 0.005 0.08 0 0.01 0.08 0 0.015 0.08 0 0.02 0.08 0 0.025 0.08 0 0.03 0.08 0 0.035 0.08 0 0.04 0.08 0 0.045 0.08 0 0.05 0.08 0 0.055 0.08 0 0.06 0.08 0 0.065 0.08 0 0.07 0.08 0 0.075 0.08 0 0.08 0.08 0 0.085 0.08 0 0.09 0.08 0 0.095 0.08 0 0.1 0.08 0 0.105 0.08 0 0.11 0.08 0 0.115 0.08 0 0.12 0.08 0 0.125 0.08 0 0.13 0.08 0 0.135 0.08 0 0.14 0.08 0 0.145 0.08 0 0.15 0.08 0 0.155 0.08 0 0.16 0.08 0 0.165 0.08 0
[...]
			<PointData Scalars="VitesseX">
				<DataArray Name="VitesseX" type="Float32" format="ascii">
 0 -5.5449e-15 6.18159e-14 -1.87712e-13 9.71079e-14 2.13507e-14 -8.03097e-14 -9.47409e-14 7.62141e-14 -6.74251e-14 -1.45286e-13 3.25072e-13 -5.98913e-13 5.98756e-13 -4.01568e-13 -2.89072e-14 2.891e-13 -4.15363e-13 3.78603e-13 -3.1913e-13 2.30187e-14 1.07021e-13 1.93485e-13 1.76966e-14 -4.15698e-13 -1.96656e-13 2.76288e-13 -3.18859e-13 1.04579e-13 -3.12806e-13 5.62651e-13 -4.01629e-13 3.89239e-13 3.95848e-15 -5.8782e-13 4.3888e-13 -6.05316e-13 8.685e-13 -8.77965e-13 5.69057e-13 -4.42493e-13 4.40377e-13 -5.39277e-15 -5.99174e-13 -1.63059e-13 8.89423e-13 -1.23855e-12 1.35966e-12 -7.41234e-13 1.50405e-13 1.87663e-14 -4.04251e-14 1.55459e-12 -2.39577e-12 7.09317e-13 -3.23261e-13 -1.2404e-12 1.98796e-12 -2.29891e-12 1.08734e-12 8.05916e-13 6.02683e-13 3.54675e-14 -8.64756e-13 7.79046e-13 5.53281e-14 -1.84518e-13 -3.85028e-13 -1.87003e-12 1.10278e-12 1.10124e-12 -2.30053e-12 1.54434e-12 -9.22381e-13 2.60426e-12 -1.02296e-12 -5.6766e-13 9.12718e-13 -1.33007e-12 1.87035e-12 -2.42935e-12 4.78396e-13 1.12302e-12 -2.16716e-12 4.21284e-13 1.90503e-12 -8.23665e-13 -3.2036e-13 7.94124e-13 -1.41814e-12 3.1042e-12 6.82737e-11 4.29063e-09 2.05967e-07 7.43015e-06 0.000191737 0.00328783 0.0334417 0.175786 0.476088 0.747447 0.909701 0.87989 0.719588 0.493344 0.272931 0.111179 0.0304689 0.00594529 0.000955397 0.000136109 1.75645e-05 2.06973e-06 2.23823e-07 2.23033e-08 2.05453e-09 1.74431e-10 1.32529e-11 3.67892e-12 -1.59621e-12 2.79137e-12 -1.65337e-12 -5.21934e-13 2.25406e-12 -2.60464e-12 2.39312e-12 -1.43275e-12 -7.73349e-13 2.28553e-12 -2.46926e-12 2.31962e-12 -1.22584e-12 -6.55035e-13 2.04138e-12 -2.36365e-12 2.09169e-12 -1.53435e-12 -1.03741e-12 6.98194e-13 -2.26354e-12 1.86649e-12 1.18569e-14 -2.67517e-12 3.43424e-12 1.00206e-12 -1.80482e-12 2.6825e-12 -3.571e-12 2.79071e-12 2.75626e-13 -1.98244e-12 2.46603e-12 -3.39072e-12 3.22544e-12 -2.45835e-12 2.37061e-12 -2.09561e-12 -1.94066e-13 1.22197e-12 -4.80823e-13 1.11224e-12 -1.61285e-12 1.66207e-13 7.77029e-13 -1.14175e-12 -2.15359e-13 -5.17687e-13 1.99952e-13 2.0616e-12 -2.14127e-12 1.87918e-12 2.072e-13 -1.98293e-12 2.82241e-12 -2.57826e-12 1.84656e-12 -3.14877e-13 -1.62545e-12 2.45521e-12 -2.43301e-12 1.56425e-12 4.54288e-13 -2.27225e-12 2.90401e-12 -2.7453e-12 1.93847e-12 -9.40649e-14 -2.67495e-12 1.73623e-12 -4.03866e-12 1.24775e-12 3.55912e-12 -7.41926e-12 5.08214e-12 3.44608e-13 1.04421e-12 1.94909e-12 -4.74389e-12 4.30049e-12 -1.24225e-12 0 0 -2.09142e-15 -4.45766e-14 4.99613e-14 -1.36894e-13 -2.60144e-15 3.21485e-14 2.1457e-14 -1.21906e-13 -1.34027e-13 1.47281e-13 -1.42028e-13 1.94608e-13 -4.3192e-13 3.20272e-13 -1.43262e-13 -3.06988e-13 4.02916e-13 -3.64286e-13 2.51389e-13 1.03375e-13 -8.1035e-14 -1.36937e-13 8.67776e-14 2.09086e-13 -8.85012e-14 -5.80376e-13 -4.78838e-14 2.49809e-13 7.91444e-14 -2.38357e-13 4.14044e-13 -3.6094e-13 -1.485e-13 3.8876e-13 -1.42641e-13 4.24015e-14 -7.83501e-13 7.78966e-13 -3.76753e-13 3.56029e-13 -9.18563e-14 -4.00758e-13 1.97938e-13 1.84691e-13 -5.94772e-13 5.43828e-13 -5.7599e-13 6.17973e-13 2.16714e-14 1.20804e-13 8.07277e-14 -8.61258e-13 8.8201e-13 -1.17302e-12 -5.27093e-13 8.33974e-13 -4.63572e-13 4.30044e-13 -6.89782e-13 4.55247e-13 6.56536e-13 1.68201e-13 2.85847e-13 -5.07106e-13 5.26623e-15 7.66084e-14 -7.0838e-13 -2.40332e-14 -4.57222e-13 -1.93844e-13 6.87027e-13 -6.85621e-13 1.27124e-12 -6.7555e-13 8.2454e-13 8.32978e-14 -6.36278e-13 6.67566e-13 -1.404e-12 1.10139e-12 -1.05171e-12 -8.87559e-13 1.49025e-12 -1.10426e-13 -1.27288e-12 1.08141e-12 6.60215e-13 -3.30282e-13 6.98679e-13 -4.99839e-13 7.06059e-11 4.29072e-09 2.05966e-07 7.43015e-06 0.000191737 0.00328783 0.0334417 0.175786 0.476088 0.747447 0.909701 0.87989 0.719588 0.493344 0.272931 0.111179 0.0304689 0.00594529 0.000955397 0.000136109 1.75645e-05 2.06973e-06 2.23823e-07 2.23009e-08 2.05514e-09 1.75778e-10 1.45456e-11 1.31999e-13 1.86266e-12 -1.44171e-12 1.62279e-12 1.97326e-13 -1.46051e-12 1.24847e-12 -1.546e-12 1.42716e-12 5.74202e-13 -1.80364e-12 1.36673e-12 -1.44196e-12 1.46501e-12 2.92705e-13 -1.49232e-12 1.25324e-12 -1.48553e-12 1.19031e-12 -2.59148e-13 -2.33034e-12 3.81024e-13 3.65586e-14 -9.55158e-13 2.75759e-12 -1.09177e-12 -2.57355e-13 1.54317e-12 -1.24998e-12 2.68137e-12 -1.88308e-12 -6.12636e-13 1.30283e-12 -1.11414e-12 2.46824e-12 -2.53422e-12 1.05533e-12 -1.31781e-12 1.22193e-12 7.90818e-14 -1.1414e-12 1.26143e-13 9.35705e-15 2.13866e-12 -8.56643e-13 -1.7922e-12 -6.83205e-13 -1.07974e-13 1.99231e-12 -3.50643e-13 -1.03554e-12 2.24484e-12 -1.73855e-12 -3.68855e-13 1.95463e-12 -1.55223e-12 1.82179e-12 -1.859e-12 2.30002e-14 1.56379e-12 -1.34042e-12 1.59521e-12 -1.58343e-12 -5.64432e-13 2.07407e-12 -1.80237e-12 2.02765e-12 -2.03861e-12 -3.10318e-13 1.26359e-12 -2.46824e-12 1.05207e-12 -2.50018e-12 3.2121e-13 3.42398e-12 -3.13107e-12 3.2268e-13 8.15168e-13 3.88205e-13 4.31606e-12 -3.87447e-12 -3.13657e-13 0 0 3.98909e-15 -1.68404e-14 -6.58796e-15 -3.11147e-14 -1.19052e-13 -1.06804e-13 9.22223e-14 -7.06715e-14 -6.13034e-15 -6.88294e-14 -1.36059e-14 -6.55574e-14 -1.32558e-13 -1.22035e-14 -1.59472e-13 1.7141e-14 2.06042e-13 -7.09787e-14 -9.33648e-14 7.65325e-14 -5.60158e-14 2.14155e-13 -8.36255e-14 -1.84232e-13 -5.94584e-14 -2.29348e-14 2.10848e-14 -1.29569e-14 -2.26987e-13 -2.73775e-14 1.7181e-13 5.92883e-14 -9.29697e-14 -2.8112e-13 -9.15123e-15 1.23692e-13 6.05511e-14 -6.6189e-14 -1.7528e-13 4.09301e-14 1.02206e-13 -1.44128e-13 -2.95628e-13 1.70317e-13 1.55069e-13 2.08928e-13 -2.65344e-13 -2.28164e-13 -2.73292e-13 -1.10684e-13 4.42588e-13 2.39566e-13 -2.76838e-13 -1.33161e-12 -3.46245e-13 8.78242e-13 1.32431e-13 -6.23289e-14 -5.15121e-13 5.20495e-13 5.39518e-13 -4.96576e-14 2.40137e-13 -1.68379e-13 1.57204e-13 9.44848e-14 -7.36153e-13 -3.06673e-13 -1.23252e-13 -4.30908e-14 -1.9602e-13 -7.88429e-13 1.00036e-12 6.68487e-13 -2.80786e-13 -4.0427e-13 -3.12888e-13 7.48613e-13 -3.29446e-13 -7.48073e-13 3.19357e-13 -1.46159e-13 1.4262e-13 -1.03534e-12 1.1383e-12 6.35393e-13 -4.89609e-13 3.33397e-13 2.68673e-13 1.88447e-12 6.95389e-11 4.28906e-09 2.05967e-07 7.43015e-06 0.000191737 0.00328783 0.0334417 0.175786 0.476088 0.747447 0.909701 0.87989 0.719588 0.493344 0.272931 0.111179 0.0304689 0.00594529 0.000955397 0.000136109 1.75645e-05 2.06973e-06 2.23823e-07 2.23027e-08 2.05418e-09 1.74567e-10 1.47132e-11 1.48007e-12 -6.08837e-14 4.08565e-13 -9.40061e-13 1.4235e-12 2.84467e-14 -6.39489e-13 1.07418e-13 -1.14539e-12 1.46883e-12 -2.27473e-13 -2.84568e-13 1.36888e-13 -1.02233e-12 1.44055e-12 6.09073e-14 -4.02138e-13 1.99932e-13 -1.14274e-12 8.32225e-13 -8.17794e-13 -1.19752e-12 5.78433e-13 1.06027e-13 6.05162e-14 3.88466e-13 6.30194e-13 -7.70289e-13 4.92532e-13 6.19742e-13 -3.9146e-13 6.48949e-13 -1.28093e-12 6.14928e-13 8.01758e-13 -6.96456e-13 -2.52793e-13 6.15151e-13 -1.18899e-12 1.4555e-12 -4.26733e-14 6.46265e-13 -7.05425e-13 -1.79454e-12 6.103e-13 5.045e-13 1.47355e-13 -6.14986e-13 -1.11042e-12 5.18784e-13 1.90334e-13 1.55607e-13 5.71285e-13 2.07677e-13 1.01473e-13 -5.81008e-13 -4.21148e-13 1.25524e-12 -1.62435e-13 3.53198e-13 -9.99814e-13 -1.77394e-13 7.39006e-13 1.96334e-13 -3.8135e-14 -8.50966e-13 -8.99105e-14 8.68019e-13 -2.57935e-13 -2.42053e-13 -1.79461e-12 -1.05894e-12 1.06848e-12 3.96971e-13 -1.37799e-12 -7.94081e-13 1.92299e-12 5.95715e-13 -3.09458e-14 -1.4487e-13 -1.07763e-13 8.5977e-13 0 0 -2.08098e-14 4.22925e-14 -9.00145e-14 -1.71786e-14 -5.93108e-14 -4.1555e-14 3.03169e-14 -1.53672e-13 -1.04617e-13 -1.75223e-13 1.69823e-13 -2.22337e-13 1.79048e-13 -3.3413e-13 -8.0777e-14 3.12464e-13 -2.40201e-13 1.51572e-13 -1.14405e-13 9.82639e-14 -1.72074e-13 6.38314e-14 3.3612e-14 -1.61696e-13 -1.68943e-13 -8.92835e-15 -8.00747e-14 1.09976e-13 -1.78519e-13 1.06327e-13 -4.7001e-14 1.36441e-13 -8.81417e-14 -3.073e-13 -8.60085e-16 -3.65567e-13 6.27284e-13 -6.81043e-13 3.07848e-13 7.85752e-15 3.46571e-13 -1.72073e-13 -2.66388e-13 -2.60771e-13 2.50793e-13 -8.21566e-13 8.29488e-13 -5.05923e-13 -5.27586e-14 -2.80669e-13 -3.02757e-13 1.17735e-12 -8.89375e-13 -8.3076e-13 -3.61381e-13 6.0332e-13 7.65264e-13 -5.95377e-13 -3.72456e-13 4.46905e-13 5.89372e-13 3.5156e-13 6.69767e-13 -4.77589e-13 -2.28385e-13 -1.74765e-13 -3.10991e-13 -4.82449e-13 -9.22186e-13 8.57378e-13 -7.79501e-13 -2.41834e-13 4.33304e-13 9.00907e-13 -1.19435e-12 6.27091e-13 -1.17468e-13 2.82204e-13 4.35444e-13 -2.58187e-12 -3.54187e-13 1.56889e-12 -5.80566e-13 -2.49938e-13 1.45939e-12 -5.1732e-13 -2.84919e-14 1.06513e-12 -8.25537e-13 3.12382e-12 6.80405e-11 4.29038e-09 2.05967e-07 7.43015e-06 0.000191737 0.00328783 0.0334417 0.175786 0.476088 0.747447 0.909701 0.87989 0.719588 0.493344 0.272931 0.111179 0.0304689 0.00594529 0.000955397 0.000136109 1.75645e-05 2.06974e-06 2.23822e-07 2.2303e-08 2.05395e-09 1.74766e-10 1.45305e-11 1.44026e-12 -1.15948e-12 1.81994e-12 -1.70342e-12 1.1781e-12 3.2648e-13 -1.38168e-12 1.7025e-12 -1.84115e-12 1.00065e-12 2.57488e-13 -1.18476e-12 1.73561e-12 -1.6257e-12 1.40009e-12 3.39541e-13 -1.77251e-12 1.73041e-12 -2.0357e-12 7.15765e-13 -3.39879e-13 -1.43623e-12 1.38555e-13 3.82891e-13 -3.51336e-14 1.84367e-13 -1.48627e-14 -1.26629e-12 2.35929e-12 -8.9677e-14 -6.57068e-13 -6.41198e-13 -9.144e-13 2.53439e-12 -2.58755e-13 2.88353e-13 -1.63947e-12 2.4561e-12 -1.66277e-12 1.11523e-12 -1.05459e-12 -5.79935e-13 1.41208e-12 -1.18316e-12 1.16071e-12 -1.79529e-12 -5.42712e-13 9.02682e-13 -1.43937e-12 1.27742e-12 7.79306e-13 -5.82279e-13 5.91505e-13 -1.08406e-12 -5.70453e-13 2.32731e-12 -1.16627e-12 6.76576e-13 -1.14312e-12 -2.98717e-13 1.86007e-12 -8.29384e-13 8.30519e-14 -1.17659e-12 -6.51221e-13 2.43593e-12 -1.50924e-12 7.11156e-13 -1.21455e-12 -6.25537e-13 6.54283e-13 -2.94068e-12 -7.30055e-13 2.24143e-12 -8.57843e-13 2.5556e-13 -9.53946e-13 -2.14149e-13 2.21342e-12 5.07248e-13 -2.45693e-13 -2.32904e-12 0 0 -2.13248e-14 -6.63078e-15 2.61688e-14 -1.66125e-13 -3.46551e-14 1.44114e-14 -7.52283e-14 -1.56284e-13 -1.83482e-13 6.3045e-14 -2.57898e-13 2.09706e-13 -2.96273e-13 1.1611e-13 -9.82762e-14 5.24102e-14 3.51087e-13 -2.46551e-13 4.64373e-14 -2.73701e-14 -2.56645e-13 -4.23866e-13 1.48762e-13 1.435e-13 -1.78164e-13 -4.8277e-13 1.10338e-13 1.73242e-13 1.87799e-13 -2.35778e-13 2.56793e-13 -2.76453e-13 -1.3305e-13 2.68416e-13 -3.47692e-14 2.73405e-13 -2.57208e-13 3.48694e-13 -5.42272e-13 1.43846e-13 -1.18163e-13 -3.16599e-13 3.87336e-14 -5.85445e-14 -4.53226e-13 1.06127e-13 -2.7371e-13 1.93073e-13 2.82865e-14 2.71556e-14 8.44581e-14 -1.82934e-13 4.40317e-13 -1.17561e-12 -5.37469e-13 6.60879e-13 -8.95436e-14 4.60736e-13 -5.36948e-13 5.38172e-13 4.72709e-13 5.40671e-13 3.85463e-13 -6.61443e-13 -2.85746e-13 -6.87352e-14 -4.6264e-13 -1.58199e-13 -9.54104e-13 1.74066e-13 4.68497e-13 -2.97137e-13 1.90046e-12 -4.6566e-13 -1.88056e-13 -3.86837e-13 -1.00043e-12 1.38668e-13 -7.10699e-13 3.0596e-14 -2.87606e-12 3.68931e-13 1.60894e-12 1.99109e-13 -1.76275e-12 3.06264e-13 1.35371e-12 -4.66196e-13 1.4171e-12 5.12229e-15 6.94106e-11 4.29232e-09 2.05965e-07 7.43015e-06 0.000191737 0.00328783 0.0334417 0.175786 0.476088 0.747447 0.909701 0.87989 0.719588 0.493344 0.272931 0.111179 0.0304689 0.00594529 0.000955397 0.000136109 1.75645e-05 2.06973e-06 2.23823e-07 2.23011e-08 2.05511e-09 1.75866e-10 1.41144e-11 2.97096e-13 1.77758e-12 -1.48495e-12 1.83771e-12 -9.60173e-13 -1.03959e-12 1.8385e-12 -1.56471e-12 1.53572e-12 -3.9929e-13 -1.19723e-12 1.47188e-12 -1.25917e-12 1.49613e-12 -3.99639e-13 -9.65588e-13 1.28776e-12 -1.45423e-12 1.14177e-12 -1.02236e-12 -2.22423e-12 1.22478e-12 -1.14557e-12 -1.34334e-12 3.40571e-12 -1.63101e-12 -1.24325e-12 2.05317e-12 -1.33548e-12 3.89604e-12 -2.00855e-12 -7.77236e-13 1.67935e-12 -2.37851e-12 1.83668e-12 -2.45941e-12 1.58408e-12 -9.93091e-13 3.03075e-12 -8.03949e-13 -1.6153e-12 -1.31156e-12 6.30071e-13 3.50188e-12 -2.75776e-12 -2.94939e-12 -8.26079e-14 2.68293e-13 1.82781e-12 -3.43007e-12 3.03209e-13 4.44395e-12 -2.12009e-12 -1.44489e-12 1.36498e-12 6.40786e-13 3.19045e-12 -4.17638e-12 -2.92048e-13 9.03628e-13 4.86721e-14 3.32983e-12 -3.27021e-12 -2.10253e-12 1.41689e-12 7.47267e-13 2.99929e-12 -3.87343e-12 -6.14466e-13 9.24954e-13 -9.79363e-13 4.95189e-13 -6.22479e-12 1.38511e-12 6.70712e-12 -3.3872e-12 -1.83329e-12 5.58997e-13 1.55631e-12 6.49292e-12 -5.47733e-12 -2.43624e-12 0 0 5.58632e-15 1.94417e-14 -6.84444e-14 1.07736e-14 -1.62239e-13 -2.46281e-13 -1.64301e-13 1.73458e-13 3.0638e-14 -1.00969e-13 -2.73527e-13 -2.55157e-13 2.46838e-13 -1.66039e-13 -9.6326e-14 4.1725e-13 3.73465e-13 1.68971e-13 -6.86952e-13 -2.81933e-13 -1.20834e-14 -7.97243e-14 -9.2809e-14 -5.91943e-13 -1.57012e-13 4.43486e-13 1.99904e-13 -2.9442e-13 -1.92433e-13 3.004e-13 -2.78507e-13 4.03908e-13 2.52026e-14 -7.76149e-13 6.38041e-13 8.35208e-13 7.87621e-13 -5.08802e-13 -7.28236e-13 -8.00713e-13 -1.00968e-13 2.18815e-13 -9.76063e-13 2.12646e-13 9.81067e-13 -5.2967e-14 -2.2544e-13 -1.03552e-12 -2.77433e-13 1.71442e-13 1.45773e-12 1.03566e-12 -2.05408e-12 -2.97552e-13 -3.13739e-13 -1.03675e-12 1.47035e-12 -1.17143e-12 1.10768e-12 1.11895e-12 1.35321e-13 -2.20279e-14 -1.52478e-12 1.08879e-12 2.44483e-13 6.32945e-14 -7.43872e-13 -1.78681e-12 1.70689e-12 3.6125e-14 -1.57063e-12 1.22812e-12 1.47017e-12 2.5592e-12 -1.22103e-12 -3.57065e-12 -2.06433e-13 -1.45505e-12 1.72717e-12 -9.03346e-13 -1.82323e-12 2.05896e-13 -4.83413e-13 -5.30454e-13 2.83103e-13 -6.85297e-14 1.44402e-13 -9.41171e-13 2.20713e-12 1.63541e-12 6.88798e-11 4.2912e-09 2.05965e-07 7.43016e-06 0.000191737 0.00328783 0.0334417 0.175786 0.476088 0.747447 0.909701 0.87989 0.719588 0.493344 0.272931 0.111179 0.0304689 0.00594529 0.000955397 0.000136109 1.75645e-05 2.06973e-06 2.23824e-07 2.2303e-08 2.05492e-09 1.74209e-10 1.27561e-11 4.08875e-12 4.30814e-13 -1.17858e-13 3.03179e-13 -2.34613e-12 2.49982e-12 5.98055e-14 -8.34456e-13 1.7589e-13 -1.78397e-12 2.52843e-12 -4.58577e-13 -5.12249e-13 4.31535e-14 -1.95881e-12 2.53758e-12 4.46119e-13 -9.06676e-13 1.54486e-13 -2.3309e-12 -4.54008e-14 -9.86074e-14 3.81989e-13 -1.31823e-12 -1.18763e-12 2.76395e-12 3.20381e-13 2.07184e-13 -1.22202e-12 2.77163e-13 3.07098e-12 2.52672e-12 -1.96246e-12 -3.90163e-12 -2.53282e-12 1.40545e-12 1.37251e-12 -6.61856e-13 2.46959e-12 -1.27958e-12 2.29802e-12 -9.03824e-13 -1.88135e-12 -1.09179e-13 -4.73684e-12 3.06224e-12 1.43958e-12 -2.49816e-12 -1.88785e-13 -7.47617e-12 3.56115e-12 3.73274e-12 1.07567e-12 6.38595e-13 -1.81838e-12 1.39179e-12 1.64931e-12 -1.63086e-12 1.01641e-12 -1.64194e-12 -4.86371e-13 2.34021e-12 -4.974e-13 1.23925e-13 -2.36043e-12 1.42949e-12 2.03665e-12 -1.41746e-12 1.21088e-12 -2.58526e-12 -1.83805e-13 -1.38894e-12 -2.6044e-12 1.99799e-12 -1.89326e-12 2.47058e-12 1.78654e-12 2.15159e-12 -2.03436e-13 -1.69442e-12 1.37062e-12 8.90205e-13 0
				</DataArray>
				<DataArray Name="VitesseY" type="Float32" format="ascii">