<?xml version="1.0"?>
<VTKFile type="PolyData">
	<PolyData>
		<Piece NumberOfPoints="1206" NumberOfPolys="1000">
			<Points>
				<DataArray type="Float32" NumberOfComponents="3" format="ascii">
 0 0 0 0.005 0 0 0.01 0 0 0.015 0 0 0.02 0 0 0.025 0 0 0.03 0 0 0.035 0 0 0.04 0 0 0.045 0 0 0.05 0 0 0.055 0 0 0.06 0 0 0.065 0 0 0.07 0 0 0.075 0 0 0.08 0 0 0.085 0 0 0.09 0 0 0.095 0 0 0.1 0 0 0.105 0 0 0.11 0 0 0.115 0 0 0.12 0 0 0.125 0 0 0.13 0 0 0.135 0 0 0.14 0 0 0.145 0 0 0.15 0 0 0.155 0 0 0.16 0 0 0.165 0 0 0.17 0 0 0.175 0 0 0.18 0 0 0.185 0 0 0.19 0 0 0.195 0 0 0.2 0 0 0.205 0 0 0.21 0 0 0.215 0 0 0.22 0 0 0.225 0 0 0.23 0 0 0.235 0 0 0.24 0 0 0.245 0 0 0.25 0 0 0.255 0 0 0.26 0 0 0.265 0 0 0.27 0 0 0.275 0 0 0.28 0 0 0.285 0 0 0.29 0 0 0.295 0 0 0.3 0 0 0.305 0 0 0.31 0 0 0.315 0 0 0.32 0 0 0.325 0 0 0.33 0 0 0.335 0 0 0.34 0 0 0.345 0 0 0.35 0 0 0.355 0 0 0.36 0 0 0.365 0 0 0.37 0 0 0.375 0 0 0.38 0 0 0.385 0 0 0.39 0 0 0.395 0 0 0.4 0 0 0.405 0 0 0.41 0 0 0.415 0 0 0.42 0 0 0.425 0 0 0.43 0 0 0.435 0 0 0.44 0 0 0.445 0 0 0.45 0 0 0.455 0 0 0.46 0 0 0.465 0 0 0.47 0 0 0.475 0 0 0.48 0 0 0.485 0 0 0.49 0 0 0.495 0 0 0.5 0 0 0.505 0 0 0.51 0 0 0.515 0 0 0.52 0 0 0.525 0 0 0.53 0 0 0.535 0 0 0.54 0 0 0.545 0 0 0.55 0 0 0.555 0 0 0.56 0 0 0.565 0 0 0.57 0 0 0.575 0 0 0.58 0 0 0.585 0 0 0.59 0 0 0.595 0 0 0.6 0 0 0.605 0 0 0.61 0 0 0.615 0 0 0.62 0 0 0.625 0 0 0.63 0 0 0.635 0 0 0.64 0 0 0.645 0 0 0.65 0 0 0.655 0 0 0.66 0 0 0.665 0 0 0.67 0 0 0.675 0 0 0.68 0 0 0.685 0 0 0.69 0 0 0.695 0 0 0.7 0 0 0.705 0 0 0.71 0 0 0.715 0 0 0.72 0 0 0.725 0 0 0.73 0 0 0.735 0 0 0.74 0 0 0.745 0 0 0.75 0 0 0.755 0 0 0.76 0 0 0.765 0 0 0.77 0 0 0.775 0 0 0.78 0 0 0.785 0 0 0.79 0 0 0.795 0 0 0.8 0 0 0.805 0 0 0.81 0 0 0.815 0 0 0.82 0 0 0.825 0 0 0.83 0 0 0.835 0 0 0.84 0 0 0.845 0 0 0.85 0 0 0.855 0 0 0.86 0 0 0.865 0 0 0.87 0 0 0.875 0 0 0.88 0 0 0.885 0 0 0.89 0 0 0.895 0 0 0.9 0 0 0.905 0 0 0.91 0 0 0.915 0 0 0.92 0 0 0.925 0 0 0.93 0 0 0.935 0 0 0.94 0 0 0.945 0 0 0.95 0 0 0.955 0 0 0.96 0 0 0.965 0 0 0.97 0 0 0.975 0 0 0.98 0 0 0.985 0 0 0.99 0 0 0.995 0 0 1 0 0 0 0.02 0 0.005 0.02 0 0.01 0.02 0 0.015 0.02 0 0.02 0.02 0 0.025 0.02 0 0.03 0.02 0 0.035 0.02 0 0.04 0.02 0 0.045 0.02 0 0.05 0.02 0 0.055 0.02 0 0.06 0.02 0 0.065 0.02 0 0.07 0.02 0 0.075 0.02 0 0.08 0.02 0 0.085 0.02 0 0.09 0.02 0 0.095 0.02 0 0.1 0.02 0 0.105 0.02 0 0.11 0.02 0 0.115 0.02 0 0.12 0.02 0 0.125 0.02 0 0.13 0.02 0 0.135 0.02 0 0.14 0.02 0 0.145 0.02 0 0.15 0.02 0 0.155 0.02 0 0.16 0.02 0 0.165 0.02 0 0.17 0.02 0 0.175 0.02 0 0.18 0.02 0 0.185 0.02 0 0.19 0.02 0 0.195 0.02 0 0.2 0.02 0 0.205 0.02 0 0.21 0.02 0 0.215 0.02 0 0.22 0.02 0 0.225 0.02 0 0.23 0.02 0 0.235 0.02 0 0.24 0.02 0 0.245 0.02 0 0.25 0.02 0 0.255 0.02 0 0.26 0.02 0 0.265 0.02 0 0.27 0.02 0 0.275 0.02 0 0.28 0.02 0 0.285 0.02 0 0.29 0.02 0 0.295 0.02 0 0.3 0.02 0 0.305 0.02 0 0.31 0.02 0 0.315 0.02 0 0.32 0.02 0 0.325 0.02 0 0.33 0.02 0 0.335 0.02 0 0.34 0.02 0 0.345 0.02 0 0.35 0.02 0 0.355 0.02 0 0.36 0.02 0 0.365 0.02 0 0.37 0.02 0 0.375 0.02 0 0.38 0.02 0 0.385 0.02 0 0.39 0.02 0 0.395 0.02 0 0.4 0.02 0 0.405 0.02 0 0.41 0.02 0 0.415 0.02 0 0.42 0.02 0 0.425 0.02 0 0.43 0.02 0 0.435 0.02 0 0.44 0.02 0 0.445 0.02 0 0.45 0.02 0 0.455 0.02 0 0.46 0.02 0 0.465 0.02 0 0.47 0.02 0 0.475 0.02 0 0.48 0.02 0 0.485 0.02 0 0.49 0.02 0 0.495 0.02 0 0.5 0.02 0 0.505 0.02 0 0.51 0.02 0 0.515 0.02 0 0.52 0.02 0 0.525 0.02 0 0.53 0.02 0 0.535 0.02 0 0.54 0.02 0 0.545 0.02 0 0.55 0.02 0 0.555 0.02 0 0.56 0.02 0 0.565 0.02 0 0.57 0.02 0 0.575 0.02 0 0.58 0.02 0 0.585 0.02 0 0.59 0.02 0 0.595 0.02 0 0.6 0.02 0 0.605 0.02 0 0.61 0.02 0 0.615 0.02 0 0.62 0.02 0 0.625 0.02 0 0.63 0.02 0 0.635 0.02 0 0.64 0.02 0 0.645 0.02 0 0.65 0.02 0 0.655 0.02 0 0.66 0.02 0 0.665 0.02 0 0.67 0.02 0 0.675 0.02 0 0.68 0.02 0 0.685 0.02 0 0.69 0.02 0 0.695 0.02 0 0.7 0.02 0 0.705 0.02 0 0.71 0.02 0 0.715 0.02 0 0.72 0.02 0 0.725 0.02 0 0.73 0.02 0 0.735 0.02 0 0.74 0.02 0 0.745 0.02 0 0.75 0.02 0 0.755 0.02 0 0.76 0.02 0 0.765 0.02 0 0.77 0.02 0 0.775 0.02 0 0.78 0.02 0 0.785 0.02 0 0.79 0.02 0 0.795 0.02 0 0.8 0.02 0 0.805 0.02 0 0.81 0.02 0 0.815 0.02 0 0.82 0.02 0 0.825 0.02 0 0.83 0.02 0 0.835 0.02 0 0.84 0.02 0 0.845 0.02 0 0.85 0.02 0 0.855 0.02 0 0.86 0.02 0 0.865 0.02 0 0.87 0.02 0 0.875 0.02 0 0.88 0.02 0 0.885 0.02 0 0.89 0.02 0 0.895 0.02 0 0.9 0.02 0 0.905 0.02 0 0.91 0.02 0 0.915 0.02 0 0.92 0.02 0 0.925 0.02 0 0.93 0.02 0 0.935 0.02 0 0.94 0.02 0 0.945 0.02 0 0.95 0.02 0 0.955 0.02 0 0.96 0.02 0 0.965 0.02 0 0.97 0.02 0 0.975 0.02 0 0.98 0.02 0 0.985 0.02 0 0.99 0.02 0 0.995 0.02 0 1 0.02 0 0 0.04 0 0.005 0.04 0 0.01 0.04 0 0.015 0.04 0 0.02 0.04 0 0.025 0.04 0 0.03 0.04 0 0.035 0.04 0 0.04 0.04 0 0.045 0.04 0 0.05 0.04 0 0.055 0.04 0 0.06 0.04 0 0.065 0.04 0 0.07 0.04 0 0.075 0.04 0 0.08 0.04 0 0.085 0.04 0 0.09 0.04 0 0.095 0.04 0 0.1 0.04 0 0.105 0.04 0 0.11 0.04 0 0.115 0.04 0 0.12 0.04 0 0.125 0.04 0 0.13 0.04 0 0.135 0.04 0 0.14 0.04 0 0.145 0.04 0 0.15 0.04 0 0.155 0.04 0 0.16 0.04 0 0.165 0.04 0 0.17 0.04 0 0.175 0.04 0 0.18 0.04 0 0.185 0.04 0 0.19 0.04 0 0.195 0.04 0 0.2 0.04 0 0.205 0.04 0 0.21 0.04 0 0.215 0.04 0 0.22 0.04 0 0.225 0.04 0 0.23 0.04 0 0.235 0.04 0 0.24 0.04 0 0.245 0.04 0 0.25 0.04 0 0.255 0.04 0 0.26 0.04 0 0.265 0.04 0 0.27 0.04 0 0.275 0.04 0 0.28 0.04 0 0.285 0.04 0 0.29 0.04 0 0.295 0.04 0 0.3 0.04 0 0.305 0.04 0 0.31 0.04 0 0.315 0.04 0 0.32 0.04 0 0.325 0.04 0 0.33 0.04 0 0.335 0.04 0 0.34 0.04 0 0.345 0.04 0 0.35 0.04 0 0.355 0.04 0 0.36 0.04 0 0.365 0.04 0 0.37 0.04 0 0.375 0.04 0 0.38 0.04 0 0.385 0.04 0 0.39 0.04 0 0.395 0.04 0 0.4 0.04 0 0.405 0.04 0 0.41 0.04 0 0.415 0.04 0 0.42 0.04 0 0.425 0.04 0 0.43 0.04 0 0.435 0.04 0 0.44 0.04 0 0.445 0.04 0 0.45 0.04 0 0.455 0.04 0 0.46 0.04 0 0.465 0.04 0 0.47 0.04 0 0.475 0.04 0 0.48 0.04 0 0.485 0.04 0 0.49 0.04 0 0.495 0.04 0 0.5 0.04 0 0.505 0.04 0 0.51 0.04 0 0.515 0.04 0 0.52 0.04 0 0.525 0.04 0 0.53 0.04 0 0.535 0.04 0 0.54 0.04 0 0.545 0.04 0 0.55 0.04 0 0.555 0.04 0 0.56 0.04 0 0.565 0.04 0 0.57 0.04 0 0.575 0.04 0 0.58 0.04 0 0.585 0.04 0 0.59 0.04 0 0.595 0.04 0 0.6 0.04 0 0.605 0.04 0 0.61 0.04 0 0.615 0.04 0 0.62 0.04 0 0.625 0.04 0 0.63 0.04 0 0.635 0.04 0 0.64 0.04 0 0.645 0.04 0 0.65 0.04 0 0.655 0.04 0 0.66 0.04 0 0.665 0.04 0 0.67 0.04 0 0.675 0.04 0 0.68 0.04 0 0.685 0.04 0 0.69 0.04 0 0.695 0.04 0 0.7 0.04 0 0.705 0.04 0 0.71 0.04 0 0.715 0.04 0 0.72 0.04 0 0.725 0.04 0 0.73 0.04 0 0.735 0.04 0 0.74 0.04 0 0.745 0.04 0 0.75 0.04 0 0.755 0.04 0 0.76 0.04 0 0.765 0.04 0 0.77 0.04 0 0.775 0.04 0 0.78 0.04 0 0.785 0.04 0 0.79 0.04 0 0.795 0.04 0 0.8 0.04 0 0.805 0.04 0 0.81 0.04 0 0.815 0.04 0 0.82 0.04 0 0.825 0.04 0 0.83 0.04 0 0.835 0.04 0 0.84 0.04 0 0.845 0.04 0 0.85 0.04 0 0.855 0.04 0 0.86 0.04 0 0.865 0.04 0 0.87 0.04 0 0.875 0.04 0 0.88 0.04 0 0.885 0.04 0 0.89 0.04 0 0.895 0.04 0 0.9 0.04 0 0.905 0.04 0 0.91 0.04 0 0.915 0.04 0 0.92 0.04 0 0.925 0.04 0 0.93 0.04 0 0.935 0.04 0 0.94 0.04 0 0.945 0.04 0 0.95 0.04 0 0.955 0.04 0 0.96 0.04 0 0.965 0.04 0 0.97 0.04 0 0.975 0.04 0 0.98 0.04 0 0.985 0.04 0 0.99 0.04 0 0.995 0.04 0 1 0.04 0 0 0.06 0 0.005 0.06 0 0.01 0.06 0 0.015 0.06 0 0.02 0.06 0 0.025 0.06 0 0.03 0.06 0 0.035 0.06 0 0.04 0.06 0 0.045 0.06 0 0.05 0.06 0 0.055 0.06 0 0.06 0.06 0 0.065 0.06 0 0.07 0.06 0 0.075 0.06 0 0.08 0.06 0 0.085 0.06 0 0.09 0.06 0 0.095 0.06 0 0.1 0.06 0 0.105 0.06 0 0.11 0.06 0 0.115 0.06 0 0.12 0.06 0 0.125 0.06 0 0.13 0.06 0 0.135 0.06 0 0.14 0.06 0 0.145 0.06 0 0.15 0.06 0 0.155 0.06 0 0.16 0.06 0 0.165 0.06 0 0.17 0.06 0 0.175 0.06 0 0.18 0.06 0 0.185 0.06 0 0.19 0.06 0 0.195 0.06 0 0.2 0.06 0 0.205 0.06 0 0.21 0.06 0 0.215 0.06 0 0.22 0.06 0 0.225 0.06 0 0.23 0.06 0 0.235 0.06 0 0.24 0.06 0 0.245 0.06 0 0.25 0.06 0 0.255 0.06 0 0.26 0.06 0 0.265 0.06 0 0.27 0.06 0 0.275 0.06 0 0.28 0.06 0 0.285 0.06 0 0.29 0.06 0 0.295 0.06 0 0.3 0.06 0 0.305 0.06 0 0.31 0.06 0 0.315 0.06 0 0.32 0.06 0 0.325 0.06 0 0.33 0.06 0 0.335 0.06 0 0.34 0.06 0 0.345 0.06 0 0.35 0.06 0 0.355 0.06 0 0.36 0.06 0 0.365 0.06 0 0.37 0.06 0 0.375 0.06 0 0.38 0.06 0 0.385 0.06 0 0.39 0.06 0 0.395 0.06 0 0.4 0.06 0 0.405 0.06 0 0.41 0.06 0 0.415 0.06 0 0.42 0.06 0 0.425 0.06 0 0.43 0.06 0 0.435 0.06 0 0.44 0.06 0 0.445 0.06 0 0.45 0.06 0 0.455 0.06 0 0.46 0.06 0 0.465 0.06 0 0.47 0.06 0 0.475 0.06 0 0.48 0.06 0 0.485 0.06 0 0.49 0.06 0 0.495 0.06 0 0.5 0.06 0 0.505 0.06 0 0.51 0.06 0 0.515 0.06 0 0.52 0.06 0 0.525 0.06 0 0.53 0.06 0 0.535 0.06 0 0.54 0.06 0 0.545 0.06 0 0.55 0.06 0 0.555 0.06 0 0.56 0.06 0 0.565 0.06 0 0.57 0.06 0 0.575 0.06 0 0.58 0.06 0 0.585 0.06 0 0.59 0.06 0 0.595 0.06 0 0.6 0.06 0 0.605 0.06 0 0.61 0.06 0 0.615 0.06 0 0.62 0.06 0 0.625 0.06 0 0.63 0.06 0 0.635 0.06 0 0.64 0.06 0 0.645 0.06 0 0.65 0.06 0 0.655 0.06 0 0.66 0.06 0 0.665 0.06 0 0.67 0.06 0 0.675 0.06 0 0.68 0.06 0 0.685 0.06 0 0.69 0.06 0 0.695 0.06 0 0.7 0.06 0 0.705 0.06 0 0.71 0.06 0 0.715 0.06 0 0.72 0.06 0 0.725 0.06 0 0.73 0.06 0 0.735 0.06 0 0.74 0.06 0 0.745 0.06 0 0.75 0.06 0 0.755 0.06 0 0.76 0.06 0 0.765 0.06 0 0.77 0.06 0 0.775 0.06 0 0.78 0.06 0 0.785 0.06 0 0.79 0.06 0 0.795 0.06 0 0.8 0.06 0 0.805 0.06 0 0.81 0.06 0 0.815 0.06 0 0.82 0.06 0 0.825 0.06 0 0.83 0.06 0 0.835 0.06 0 0.84 0.06 0 0.845 0.06 0 0.85 0.06 0 0.855 0.06 0 0.86 0.06 0 0.865 0.06 0 0.87 0.06 0 0.875 0.06 0 0.88 0.06 0 0.885 0.06 0 0.89 0.06 0 0.895 0.06 0 0.9 0.06 0 0.905 0.06 0 0.91 0.06 0 0.915 0.06 0 0.92 0.06 0 0.925 0.06 0 0.93 0.06 0 0.935 0.06 0 0.94 0.06 0 0.945 0.06 0 0.95 0.06 0 0.955 0.06 0 0.96 0.06 0 0.965 0.06 0 0.97 0.06 0 0.975 0.06 0 0.98 0.06 0 0.985 0.06 0 0.99 0.06 0 0.995 0.06 0 1 0.06 0 0 0.08 0 0.005 0.08 0 0.01 0.08 0 0.015 0.08 0 0.02 0.08 0 0.025 0.08 0 0.03 0.08 0 0.035 0.08 0 0.04 0.08 0 0.045 0.08 0 0.05 0.08 0 0.055 0.08 0 0.06 0.08 0 0.065 0.08 0 0.07 0.08 0 0.075 0.08 0 0.08 0.08 0 0.085 0.08 0 0.09 0.08 0 0.095 0.08 0 0.1 0.08 0 0.105 0.08 0 0.11 0.08 0 0.115 0.08 0 0.12 0.08 0 0.125 0.08 0 0.13 0.08 0 0.135 0.08 0 0.14 0.08 0 0.145 0.08 0 0.15 0.08 0 0.155 0.08 0 0.16 0.08 0 0.165 0.08 0
[...]
			<PointData Scalars="VitesseX">
				<DataArray Name="VitesseX" type="Float32" format="ascii">
 0 2.53282e-14 -1.02608e-14 7.57362e-14 -2.6733e-14 -3.41021e-14 6.68661e-15 9.12019e-16 1.90648e-14 -3.19628e-15 -1.43146e-14 -1.11835e-13 5.46899e-14 -2.08282e-13 4.51009e-14 8.35287e-15 -5.42895e-14 2.82373e-14 -1.16747e-13 -6.52078e-14 -1.41585e-13 -9.06991e-14 -1.49728e-13 -3.77759e-14 -4.65389e-14 -6.03912e-14 -1.40386e-13 -5.70362e-14 -9.84098e-14 5.05024e-15 -9.62575e-14 2.70106e-14 -1.06489e-13 1.35326e-14 -5.24778e-14 -1.99597e-13 5.72245e-14 -2.36422e-13 1.23701e-13 -4.2013e-13 -1.33246e-13 -4.53569e-13 -1.61937e-13 1.68849e-15 9.1566e-14 3.25948e-14 1.84109e-13 -1.24028e-13 -4.35927e-15 -2.89862e-14 8.86588e-14 -3.22658e-14 -4.10346e-13 1.10102e-13 -1.75836e-13 -3.59904e-13 9.03564e-14 -4.09028e-13 3.62485e-13 -4.45061e-14 -9.45057e-14 -1.08679e-13 -1.91037e-13 1.43999e-13 -1.81887e-13 4.43298e-14 -2.59999e-13 -1.9647e-13 6.64849e-14 3.42324e-13 5.38805e-12 5.89795e-11 5.95509e-10 5.52485e-09 4.66941e-08 3.57462e-07 2.46129e-06 1.5117e-05 8.19886e-05 0.000387775 0.00157459 0.00538857 0.0152557 0.0353468 0.0675665 0.109945 0.158984 0.212113 0.267898 0.325335 0.384094 0.444188 0.503269 0.558644 0.613891 0.666436 0.715932 0.766196 0.808854 0.850979 0.885421 0.906244 0.923992 0.932543 0.93325 0.934154 0.93453 0.93424 0.933444 0.932311 0.931309 0.930714 0.930413 0.930204 0.929984 0.929759 0.929708 0.929501 0.927976 0.923324 0.915009 0.899354 0.868968 0.815062 0.730054 0.61209 0.47113 0.326484 0.200012 0.106075 0.0484834 0.0195916 0.00731069 0.00260815 0.00090553 0.000308071 0.000102912 3.37644e-05 1.08764e-05 3.43831e-06 1.06624e-06 3.24231e-07 9.66542e-08 2.824e-08 8.0858e-09 2.2686e-09 6.22957e-10 1.68366e-10 4.41977e-11 1.16287e-11 2.13981e-12 -4.6795e-13 4.56535e-13 -1.44225e-14 2.10617e-13 -6.70082e-13 -2.44912e-14 2.42196e-13 5.32037e-13 2.20157e-13 -7.68306e-13 -5.51999e-13 -6.47378e-13 1.17654e-12 3.32231e-13 -2.85552e-13 -5.2455e-13 -1.52352e-13 -3.48127e-13 5.97808e-13 7.83697e-14 1.22459e-13 -2.24731e-13 -7.79793e-13 -2.74118e-15 -2.25481e-13 1.87901e-13 -2.17507e-13 -1.20612e-12 3.27404e-13 1.81806e-13 5.49381e-13 -2.67838e-14 -7.40634e-13 1.26864e-13 4.46276e-13 -2.68735e-13 -8.4947e-13 -2.95349e-13 2.21777e-14 -4.45218e-13 -2.71994e-13 -9.00417e-13 9.36337e-14 2.48914e-14 2.18788e-13 -1.12552e-12 5.49936e-14 3.51878e-13 1.05399e-12 0 0 -5.85737e-15 2.16889e-14 -3.30899e-14 4.49049e-14 4.3005e-14 1.90424e-14 -2.46372e-14 -2.01466e-14 -3.2984e-14 -5.02238e-14 1.35882e-14 -1.24307e-13 5.78934e-14 -1.16931e-13 -1.14932e-14 3.01329e-14 -9.88586e-14 3.12168e-14 -1.01205e-13 -7.67444e-14 -1.30506e-13 -6.47887e-14 -1.11165e-13 -7.43825e-14 -8.27035e-14 -2.47907e-14 -1.46292e-13 -5.97352e-14 6.34301e-15 -2.2361e-14 -1.04503e-13 -5.00696e-14 -1.38677e-14 -6.65459e-14 5.86887e-14 -1.88559e-13 -2.48782e-14 -3.13621e-13 3.9393e-14 -2.98658e-13 -5.56875e-14 -1.11354e-13 -1.26319e-13 1.58502e-14 4.69887e-14 -1.1609e-13 1.30201e-13 7.46916e-14 1.10002e-13 -2.82507e-15 -3.61347e-13 1.66257e-14 -4.22003e-13 1.63177e-14 -1.20781e-13 -3.65402e-13 2.21362e-13 -1.65105e-13 -1.59048e-14 -1.1223e-13 9.52991e-14 1.2484e-15 -1.8034e-13 -3.28715e-14 -1.78161e-13 -1.23429e-13 -3.00437e-14 -1.39261e-13 5.81784e-13 5.5759e-12 5.87938e-11 5.95695e-10 5.52444e-09 4.66951e-08 3.57462e-07 2.46129e-06 1.5117e-05 8.19886e-05 0.000387775 0.00157459 0.00538857 0.0152557 0.0353468 0.0675665 0.109945 0.158984 0.212113 0.267898 0.325335 0.384094 0.444188 0.503269 0.558644 0.613891 0.666436 0.715932 0.766196 0.808854 0.850979 0.885421 0.906244 0.923992 0.932543 0.93325 0.934154 0.93453 0.93424 0.933444 0.932311 0.931309 0.930714 0.930413 0.930204 0.929984 0.929759 0.929708 0.929501 0.927976 0.923324 0.915009 0.899354 0.868968 0.815062 0.730054 0.61209 0.47113 0.326484 0.200012 0.106075 0.0484834 0.0195916 0.00731069 0.00260815 0.00090553 0.000308071 0.000102912 3.37644e-05 1.08764e-05 3.43831e-06 1.06624e-06 3.24231e-07 9.66542e-08 2.824e-08 8.08537e-09 2.26844e-09 6.24144e-10 1.67729e-10 4.41462e-11 1.09177e-11 2.72268e-12 8.31132e-13 -6.61993e-13 -1.25285e-13 -4.01388e-13 2.49547e-13 2.96691e-13 -2.65487e-13 -4.18741e-13 -3.91558e-13 1.63712e-13 2.51168e-13 -9.04962e-15 -8.52612e-13 -3.50396e-13 2.05193e-13 2.21876e-13 1.20932e-13 2.77081e-13 -5.25835e-13 -4.16814e-14 4.5542e-14 -2.11824e-14 2.61266e-13 -5.75096e-13 -4.47141e-13 -6.56338e-13 -2.56729e-13 4.04889e-13 -8.0091e-14 1.39544e-13 -2.82166e-13 -1.03174e-13 7.58654e-13 -2.44972e-13 -5.42569e-13 -1.39932e-13 7.25861e-14 2.54672e-13 -3.1257e-13 -8.64236e-13 -1.3132e-13 1.16727e-13 -3.15431e-13 -7.83582e-13 -4.13951e-13 7.54225e-13 4.90804e-13 -4.73568e-13 -1.18324e-12 0 0 1.32585e-15 -5.89065e-15 2.60251e-14 2.83278e-14 2.88394e-14 3.48392e-14 -1.45055e-14 1.62842e-14 -4.13885e-14 9.6439e-15 -6.85667e-14 -4.44514e-14 -5.50258e-14 -1.14017e-14 -3.23457e-14 -6.47291e-14 -3.47356e-15 -9.19272e-14 -5.50617e-14 -5.34067e-14 -2.33157e-15 -4.71938e-14 -7.34377e-14 -8.99771e-14 -2.40352e-14 -1.61389e-13 5.0483e-14 -1.541e-13 -7.14966e-14 -1.43939e-14 -1.93555e-14 -4.66942e-14 -1.25078e-13 -8.78394e-14 -6.41443e-14 6.28438e-14 -1.41379e-13 -1.20817e-13 -1.77354e-13 6.31208e-14 -1.96166e-13 -5.03606e-14 3.15769e-14 -1.33204e-13 7.71689e-14 4.44397e-14 -1.80211e-13 -6.94632e-15 -1.33944e-13 -1.29305e-13 -6.0887e-14 -1.38003e-13 -4.13416e-14 -1.29803e-13 -2.4942e-13 -6.00267e-14 -1.10567e-13 -6.71998e-14 -7.32626e-15 9.48947e-14 1.59517e-13 -1.87306e-13 -1.20351e-13 -1.31143e-13 -1.60396e-14 -1.16175e-13 -1.35014e-13 -1.96414e-14 5.29548e-13 5.50251e-12 5.92565e-11 5.95678e-10 5.52489e-09 4.66944e-08 3.57462e-07 2.46129e-06 1.5117e-05 8.19886e-05 0.000387775 0.00157459 0.00538857 0.0152557 0.0353468 0.0675665 0.109945 0.158984 0.212113 0.267898 0.325335 0.384094 0.444188 0.503269 0.558644 0.613891 0.666436 0.715932 0.766196 0.808854 0.850979 0.885421 0.906244 0.923992 0.932543 0.93325 0.934154 0.93453 0.93424 0.933444 0.932311 0.931309 0.930714 0.930413 0.930204 0.929984 0.929759 0.929708 0.929501 0.927976 0.923324 0.915009 0.899354 0.868968 0.815062 0.730054 0.61209 0.47113 0.326484 0.200012 0.106075 0.0484834 0.0195916 0.00731069 0.00260815 0.00090553 0.000308071 0.000102912 3.37644e-05 1.08764e-05 3.43831e-06 1.06624e-06 3.24231e-07 9.66543e-08 2.824e-08 8.08567e-09 2.26857e-09 6.23436e-10 1.67944e-10 4.4101e-11 1.14725e-11 2.56673e-12 3.24184e-13 -1.77247e-13 -5.13904e-13 2.32422e-14 1.10169e-13 -3.42829e-13 -2.58976e-13 -2.61374e-13 -4.05093e-13 5.97776e-14 -3.92676e-13 -1.02067e-13 -6.31328e-14 -3.07601e-13 -4.32956e-13 -2.27337e-13 3.26741e-13 -2.37331e-14 6.79708e-14 -7.8331e-14 2.32206e-13 -1.05975e-13 -1.91229e-13 -2.14292e-13 -6.52224e-13 -7.28221e-13 -2.10303e-13 4.19035e-13 3.28179e-13 -1.51502e-13 8.19838e-14 1.10631e-13 2.03375e-13 3.12823e-13 -2.29376e-13 2.01385e-13 1.46991e-13 -4.14017e-13 -3.31126e-13 2.72457e-13 -6.96087e-13 -2.57315e-13 -6.47645e-13 2.76493e-14 1.63065e-13 -1.4811e-14 2.56029e-13 -7.17834e-14 -1.3785e-13 0 0 3.45033e-14 3.4785e-14 4.83455e-14 1.04384e-14 -7.67861e-15 3.22158e-14 -9.65943e-15 -1.56216e-14 -3.97122e-14 3.26457e-14 -1.31277e-14 6.0169e-15 -8.3074e-14 9.74633e-16 -3.92439e-15 -5.26489e-14 -4.48978e-14 -9.40011e-14 -6.86032e-14 -8.05831e-14 1.31446e-14 -6.59203e-14 3.60293e-14 -2.79276e-14 -8.94197e-14 -1.21906e-13 -6.46169e-14 -9.91079e-14 6.5323e-14 -1.11997e-14 -1.12056e-13 -1.13579e-13 -1.2577e-13 -1.74659e-13 -1.81251e-13 2.96948e-14 -1.77681e-13 8.98736e-14 -1.67872e-13 -1.94677e-13 -2.2059e-13 1.30943e-14 1.02376e-13 1.72185e-13 -1.64278e-13 1.87961e-14 -5.82793e-14 -7.34311e-14 -2.31203e-13 -1.14425e-13 -1.16617e-13 -2.65573e-13 -1.52527e-14 -1.91133e-13 -2.06066e-13 5.77548e-15 -7.71012e-14 3.62709e-13 1.14376e-13 -8.92657e-14 -1.28817e-13 6.27924e-14 -2.18483e-14 -1.86917e-13 -9.40416e-14 -6.11596e-14 -1.06237e-14 -1.00072e-13 4.27302e-13 5.40656e-12 5.92935e-11 5.95763e-10 5.52479e-09 4.66945e-08 3.57462e-07 2.46129e-06 1.5117e-05 8.19886e-05 0.000387775 0.00157459 0.00538857 0.0152557 0.0353468 0.0675665 0.109945 0.158984 0.212113 0.267898 0.325335 0.384094 0.444188 0.503269 0.558644 0.613891 0.666436 0.715932 0.766196 0.808854 0.850979 0.885421 0.906244 0.923992 0.932543 0.93325 0.934154 0.93453 0.93424 0.933444 0.932311 0.931309 0.930714 0.930413 0.930204 0.929984 0.929759 0.929708 0.929501 0.927976 0.923324 0.915009 0.899354 0.868968 0.815062 0.730054 0.61209 0.47113 0.326484 0.200012 0.106075 0.0484834 0.0195916 0.00731069 0.00260815 0.00090553 0.000308071 0.000102912 3.37644e-05 1.08764e-05 3.43831e-06 1.06624e-06 3.24231e-07 9.66544e-08 2.82399e-08 8.08575e-09 2.2682e-09 6.23164e-10 1.67893e-10 4.42019e-11 1.12546e-11 2.54698e-12 -1.56095e-13 6.36449e-13 -1.91897e-13 -2.82892e-13 -2.53047e-13 -1.08606e-13 -3.18336e-14 -1.65917e-13 2.88903e-13 -6.10058e-13 1.10361e-13 -5.38016e-13 -1.08186e-13 -2.54835e-13 4.11059e-14 -5.72936e-13 -4.07609e-13 3.17728e-14 3.52262e-13 1.82459e-13 -1.31028e-13 -1.28861e-14 -6.43155e-13 -5.93573e-14 -7.8027e-14 -1.43324e-13 8.07239e-14 -6.26456e-13 -6.24715e-13 4.08756e-14 8.74804e-13 1.42395e-13 -2.81789e-13 1.83177e-13 5.11192e-13 -1.49344e-13 -4.6451e-14 -3.01655e-14 -1.73286e-13 -7.85635e-13 -3.63447e-13 -2.23593e-13 -5.40414e-13 -5.0756e-14 -2.27762e-13 -4.22843e-13 1.50348e-14 1.87926e-13 8.34289e-13 0 0 -1.3638e-15 3.73647e-14 -2.69282e-14 5.18873e-14 1.68149e-14 5.17086e-15 -2.78162e-14 -4.86827e-14 -2.1513e-14 -3.40136e-14 6.46989e-14 -6.70437e-14 9.36096e-14 -6.54321e-14 1.5343e-15 4.99064e-14 -9.64916e-14 -1.59931e-14 -8.41608e-14 -5.00083e-14 -4.90019e-14 -7.33928e-15 -3.19479e-14 -3.60097e-14 -1.14047e-13 2.14698e-14 -2.04115e-13 -5.06454e-14 3.20107e-14 -5.96029e-14 -1.62865e-13 -3.79117e-14 6.73663e-15 -1.43486e-13 -1.612e-13 -2.1599e-13 2.57653e-14 -1.73305e-13 5.54544e-14 -3.584e-13 -6.35394e-14 -4.63097e-14 -5.6841e-15 1.98872e-13 -1.66801e-13 -3.65171e-14 2.80101e-13 5.6426e-14 -4.78196e-14 -8.82034e-14 -3.08425e-13 -1.15588e-13 -4.87289e-13 -7.37273e-14 4.47058e-15 -3.17625e-13 3.62457e-13 8.6672e-15 1.09376e-13 -1.44842e-13 -1.31204e-13 2.19529e-14 -1.05683e-13 2.10775e-14 -3.40121e-13 -1.25267e-13 1.48895e-13 2.84653e-14 6.7538e-13 5.67153e-12 5.89001e-11 5.95749e-10 5.52441e-09 4.66952e-08 3.57462e-07 2.46129e-06 1.5117e-05 8.19886e-05 0.000387775 0.00157459 0.00538857 0.0152557 0.0353468 0.0675665 0.109945 0.158984 0.212113 0.267898 0.325335 0.384094 0.444188 0.503269 0.558644 0.613891 0.666436 0.715932 0.766196 0.808854 0.850979 0.885421 0.906244 0.923992 0.932543 0.93325 0.934154 0.93453 0.93424 0.933444 0.932311 0.931309 0.930714 0.930413 0.930204 0.929984 0.929759 0.929708 0.929501 0.927976 0.923324 0.915009 0.899354 0.868968 0.815062 0.730054 0.61209 0.47113 0.326484 0.200012 0.106075 0.0484834 0.0195916 0.00731069 0.00260815 0.00090553 0.000308071 0.000102912 3.37644e-05 1.08764e-05 3.43831e-06 1.06624e-06 3.24231e-07 9.66545e-08 2.82398e-08 8.08533e-09 2.26794e-09 6.23918e-10 1.67616e-10 4.40502e-11 1.07617e-11 2.60612e-12 8.3361e-13 -1.86976e-13 9.13046e-14 -8.95012e-13 -1.34566e-13 3.42599e-13 5.81595e-13 -1.94064e-13 -1.14836e-13 4.9544e-13 4.76473e-13 -3.56224e-13 -8.23533e-13 -6.52124e-13 3.96268e-13 -2.71357e-13 1.22022e-13 3.41543e-13 -2.63443e-13 5.82036e-14 -4.97104e-13 7.5484e-14 -1.77462e-13 -7.41056e-13 1.28381e-13 -4.74548e-13 -1.99529e-13 -1.48935e-13 -1.15608e-12 7.57651e-14 9.79342e-15 3.91453e-14 6.58841e-13 -1.44106e-13 -2.61646e-13 -2.27444e-13 4.72842e-13 3.70736e-13 -6.02945e-13 -1.26879e-12 1.05935e-14 1.76491e-13 -2.45361e-13 -2.74856e-13 -5.11296e-13 7.22863e-13 1.494e-13 7.46757e-14 -5.72742e-13 0 0 -3.20394e-14 -6.02606e-14 4.3419e-14 2.30107e-14 -1.34462e-14 -1.58098e-14 -1.51381e-14 2.5804e-14 1.63928e-14 -2.78977e-14 -1.20491e-13 6.82808e-14 -8.07535e-14 1.23347e-13 -2.24346e-14 -3.89027e-14 1.1582e-13 -2.07019e-13 -4.03614e-15 -3.37597e-14 4.13564e-14 2.62428e-15 -9.82754e-14 -9.38925e-14 7.69033e-15 -1.26831e-13 5.75186e-14 -1.90215e-13 -2.17254e-13 -1.7713e-13 9.56869e-14 5.1596e-14 5.6124e-14 -3.27197e-14 -4.05161e-13 6.86621e-14 -6.25318e-14 -1.70486e-14 -4.0697e-13 2.62866e-13 -4.20425e-13 -1.58759e-13 1.01361e-13 -1.5317e-13 8.79093e-14 3.94542e-13 -6.80908e-14 9.2079e-14 -1.50112e-13 -1.11857e-13 1.85037e-13 -4.19632e-13 -7.26476e-14 -2.33266e-13 -1.96108e-13 5.43063e-14 -1.93769e-13 -1.49788e-13 -3.73474e-14 2.0859e-13 1.49831e-14 -6.49824e-13 9.63076e-14 3.75598e-14 -1.23587e-13 -3.73703e-13 -8.73733e-14 5.62799e-13 7.34007e-13 5.77122e-12 5.91179e-11 5.95448e-10 5.52499e-09 4.66942e-08 3.57463e-07 2.46129e-06 1.5117e-05 8.19886e-05 0.000387775 0.00157459 0.00538857 0.0152557 0.0353468 0.0675665 0.109945 0.158984 0.212113 0.267898 0.325335 0.384094 0.444188 0.503269 0.558644 0.613891 0.666436 0.715932 0.766196 0.808854 0.850979 0.885421 0.906244 0.923992 0.932543 0.93325 0.934154 0.93453 0.93424 0.933444 0.932311 0.931309 0.930714 0.930413 0.930204 0.929984 0.929759 0.929708 0.929501 0.927976 0.923324 0.915009 0.899354 0.868968 0.815062 0.730054 0.61209 0.47113 0.326484 0.200012 0.106075 0.0484834 0.0195916 0.00731069 0.00260815 0.00090553 0.000308071 0.000102912 3.37644e-05 1.08764e-05 3.43831e-06 1.06624e-06 3.24231e-07 9.66548e-08 2.82396e-08 8.08558e-09 2.26834e-09 6.23051e-10 1.6824e-10 4.3804e-11 1.17523e-11 1.94618e-12 4.97564e-13 -2.20822e-13 -2.25257e-13 -1.64362e-13 -7.11876e-13 -4.01123e-13 1.48208e-12 7.90475e-13 -6.14392e-13 1.23482e-12 -1.10747e-12 -4.69828e-13 1.32481e-12 -3.76756e-13 -8.51525e-13 -8.19818e-13 1.31853e-12 -3.30214e-13 5.54011e-13 -2.4344e-13 -2.36365e-13 -2.17575e-13 -7.53398e-13 -6.44531e-13 -2.22831e-13 -6.18313e-13 -6.85161e-13 -2.22785e-13 8.12198e-14 -3.30507e-13 -4.5234e-13 1.94329e-13 3.00679e-14 5.87886e-13 -4.73013e-13 2.57697e-13 3.37925e-13 -8.30923e-13 -8.74252e-13 8.6186e-13 -6.53447e-13 -8.48334e-13 1.93114e-14 1.19915e-12 8.05751e-13 -3.72182e-13 -1.45827e-13 9.28946e-13 3.30701e-13 0
				</DataArray>
				<DataArray Name="VitesseY" type="Float32" format="ascii">