<?xml version="1.0"?>
<VTKFile type="PolyData">
	<PolyData>
		<Piece NumberOfPoints="1206" NumberOfPolys="1000">
			<Points>
				<DataArray type="Float32" NumberOfComponents="3" format="ascii">
 0 0 0 0.005 0 0 0.01 0 0 0.015 0 0 0.02 0 0 0.025 0 0 0.03 0 0 0.035 0 0 0.04 0 0 0.045 0 0 0.05 0 0 0.055 0 0 0.06 0 0 0.065 0 0 0.07 0 0 0.075 0 0 0.08 0 0 0.085 0 0 0.09 0 0 0.095 0 0 0.1 0 0 0.105 0 0 0.11 0 0 0.115 0 0 0.12 0 0 0.125 0 0 0.13 0 0 0.135 0 0 0.14 0 0 0.145 0 0 0.15 0 0 0.155 0 0 0.16 0 0 0.165 0 0 0.17 0 0 0.175 0 0 0.18 0 0 0.185 0 0 0.19 0 0 0.195 0 0 0.2 0 0 0.205 0 0 0.21 0 0 0.215 0 0 0.22 0 0 0.225 0 0 0.23 0 0 0.235 0 0 0.24 0 0 0.245 0 0 0.25 0 0 0.255 0 0 0.26 0 0 0.265 0 0 0.27 0 0 0.275 0 0 0.28 0 0 0.285 0 0 0.29 0 0 0.295 0 0 0.3 0 0 0.305 0 0 0.31 0 0 0.315 0 0 0.32 0 0 0.325 0 0 0.33 0 0 0.335 0 0 0.34 0 0 0.345 0 0 0.35 0 0 0.355 0 0 0.36 0 0 0.365 0 0 0.37 0 0 0.375 0 0 0.38 0 0 0.385 0 0 0.39 0 0 0.395 0 0 0.4 0 0 0.405 0 0 0.41 0 0 0.415 0 0 0.42 0 0 0.425 0 0 0.43 0 0 0.435 0 0 0.44 0 0 0.445 0 0 0.45 0 0 0.455 0 0 0.46 0 0 0.465 0 0 0.47 0 0 0.475 0 0 0.48 0 0 0.485 0 0 0.49 0 0 0.495 0 0 0.5 0 0 0.505 0 0 0.51 0 0 0.515 0 0 0.52 0 0 0.525 0 0 0.53 0 0 0.535 0 0 0.54 0 0 0.545 0 0 0.55 0 0 0.555 0 0 0.56 0 0 0.565 0 0 0.57 0 0 0.575 0 0 0.58 0 0 0.585 0 0 0.59 0 0 0.595 0 0 0.6 0 0 0.605 0 0 0.61 0 0 0.615 0 0 0.62 0 0 0.625 0 0 0.63 0 0 0.635 0 0 0.64 0 0 0.645 0 0 0.65 0 0 0.655 0 0 0.66 0 0 0.665 0 0 0.67 0 0 0.675 0 0 0.68 0 0 0.685 0 0 0.69 0 0 0.695 0 0 0.7 0 0 0.705 0 0 0.71 0 0 0.715 0 0 0.72 0 0 0.725 0 0 0.73 0 0 0.735 0 0 0.74 0 0 0.745 0 0 0.75 0 0 0.755 0 0 0.76 0 0 0.765 0 0 0.77 0 0 0.775 0 0 0.78 0 0 0.785 0 0 0.79 0 0 0.795 0 0 0.8 0 0 0.805 0 0 0.81 0 0 0.815 0 0 0.82 0 0 0.825 0 0 0.83 0 0 0.835 0 0 0.84 0 0 0.845 0 0 0.85 0 0 0.855 0 0 0.86 0 0 0.865 0 0 0.87 0 0 0.875 0 0 0.88 0 0 0.885 0 0 0.89 0 0 0.895 0 0 0.9 0 0 0.905 0 0 0.91 0 0 0.915 0 0 0.92 0 0 0.925 0 0 0.93 0 0 0.935 0 0 0.94 0 0 0.945 0 0 0.95 0 0 0.955 0 0 0.96 0 0 0.965 0 0 0.97 0 0 0.975 0 0 0.98 0 0 0.985 0 0 0.99 0 0 0.995 0 0 1 0 0 0 0.02 0 0.005 0.02 0 0.01 0.02 0 0.015 0.02 0 0.02 0.02 0 0.025 0.02 0 0.03 0.02 0 0.035 0.02 0 0.04 0.02 0 0.045 0.02 0 0.05 0.02 0 0.055 0.02 0 0.06 0.02 0 0.065 0.02 0 0.07 0.02 0 0.075 0.02 0 0.08 0.02 0 0.085 0.02 0 0.09 0.02 0 0.095 0.02 0 0.1 0.02 0 0.105 0.02 0 0.11 0.02 0 0.115 0.02 0 0.12 0.02 0 0.125 0.02 0 0.13 0.02 0 0.135 0.02 0 0.14 0.02 0 0.145 0.02 0 0.15 0.02 0 0.155 0.02 0 0.16 0.02 0 0.165 0.02 0 0.17 0.02 0 0.175 0.02 0 0.18 0.02 0 0.185 0.02 0 0.19 0.02 0 0.195 0.02 0 0.2 0.02 0 0.205 0.02 0 0.21 0.02 0 0.215 0.02 0 0.22 0.02 0 0.225 0.02 0 0.23 0.02 0 0.235 0.02 0 0.24 0.02 0 0.245 0.02 0 0.25 0.02 0 0.255 0.02 0 0.26 0.02 0 0.265 0.02 0 0.27 0.02 0 0.275 0.02 0 0.28 0.02 0 0.285 0.02 0 0.29 0.02 0 0.295 0.02 0 0.3 0.02 0 0.305 0.02 0 0.31 0.02 0 0.315 0.02 0 0.32 0.02 0 0.325 0.02 0 0.33 0.02 0 0.335 0.02 0 0.34 0.02 0 0.345 0.02 0 0.35 0.02 0 0.355 0.02 0 0.36 0.02 0 0.365 0.02 0 0.37 0.02 0 0.375 0.02 0 0.38 0.02 0 0.385 0.02 0 0.39 0.02 0 0.395 0.02 0 0.4 0.02 0 0.405 0.02 0 0.41 0.02 0 0.415 0.02 0 0.42 0.02 0 0.425 0.02 0 0.43 0.02 0 0.435 0.02 0 0.44 0.02 0 0.445 0.02 0 0.45 0.02 0 0.455 0.02 0 0.46 0.02 0 0.465 0.02 0 0.47 0.02 0 0.475 0.02 0 0.48 0.02 0 0.485 0.02 0 0.49 0.02 0 0.495 0.02 0 0.5 0.02 0 0.505 0.02 0 0.51 0.02 0 0.515 0.02 0 0.52 0.02 0 0.525 0.02 0 0.53 0.02 0 0.535 0.02 0 0.54 0.02 0 0.545 0.02 0 0.55 0.02 0 0.555 0.02 0 0.56 0.02 0 0.565 0.02 0 0.57 0.02 0 0.575 0.02 0 0.58 0.02 0 0.585 0.02 0 0.59 0.02 0 0.595 0.02 0 0.6 0.02 0 0.605 0.02 0 0.61 0.02 0 0.615 0.02 0 0.62 0.02 0 0.625 0.02 0 0.63 0.02 0 0.635 0.02 0 0.64 0.02 0 0.645 0.02 0 0.65 0.02 0 0.655 0.02 0 0.66 0.02 0 0.665 0.02 0 0.67 0.02 0 0.675 0.02 0 0.68 0.02 0 0.685 0.02 0 0.69 0.02 0 0.695 0.02 0 0.7 0.02 0 0.705 0.02 0 0.71 0.02 0 0.715 0.02 0 0.72 0.02 0 0.725 0.02 0 0.73 0.02 0 0.735 0.02 0 0.74 0.02 0 0.745 0.02 0 0.75 0.02 0 0.755 0.02 0 0.76 0.02 0 0.765 0.02 0 0.77 0.02 0 0.775 0.02 0 0.78 0.02 0 0.785 0.02 0 0.79 0.02 0 0.795 0.02 0 0.8 0.02 0 0.805 0.02 0 0.81 0.02 0 0.815 0.02 0 0.82 0.02 0 0.825 0.02 0 0.83 0.02 0 0.835 0.02 0 0.84 0.02 0 0.845 0.02 0 0.85 0.02 0 0.855 0.02 0 0.86 0.02 0 0.865 0.02 0 0.87 0.02 0 0.875 0.02 0 0.88 0.02 0 0.885 0.02 0 0.89 0.02 0 0.895 0.02 0 0.9 0.02 0 0.905 0.02 0 0.91 0.02 0 0.915 0.02 0 0.92 0.02 0 0.925 0.02 0 0.93 0.02 0 0.935 0.02 0 0.94 0.02 0 0.945 0.02 0 0.95 0.02 0 0.955 0.02 0 0.96 0.02 0 0.965 0.02 0 0.97 0.02 0 0.975 0.02 0 0.98 0.02 0 0.985 0.02 0 0.99 0.02 0 0.995 0.02 0 1 0.02 0 0 0.04 0 0.005 0.04 0 0.01 0.04 0 0.015 0.04 0 0.02 0.04 0 0.025 0.04 0 0.03 0.04 0 0.035 0.04 0 0.04 0.04 0 0.045 0.04 0 0.05 0.04 0 0.055 0.04 0 0.06 0.04 0 0.065 0.04 0 0.07 0.04 0 0.075 0.04 0 0.08 0.04 0 0.085 0.04 0 0.09 0.04 0 0.095 0.04 0 0.1 0.04 0 0.105 0.04 0 0.11 0.04 0 0.115 0.04 0 0.12 0.04 0 0.125 0.04 0 0.13 0.04 0 0.135 0.04 0 0.14 0.04 0 0.145 0.04 0 0.15 0.04 0 0.155 0.04 0 0.16 0.04 0 0.165 0.04 0 0.17 0.04 0 0.175 0.04 0 0.18 0.04 0 0.185 0.04 0 0.19 0.04 0 0.195 0.04 0 0.2 0.04 0 0.205 0.04 0 0.21 0.04 0 0.215 0.04 0 0.22 0.04 0 0.225 0.04 0 0.23 0.04 0 0.235 0.04 0 0.24 0.04 0 0.245 0.04 0 0.25 0.04 0 0.255 0.04 0 0.26 0.04 0 0.265 0.04 0 0.27 0.04 0 0.275 0.04 0 0.28 0.04 0 0.285 0.04 0 0.29 0.04 0 0.295 0.04 0 0.3 0.04 0 0.305 0.04 0 0.31 0.04 0 0.315 0.04 0 0.32 0.04 0 0.325 0.04 0 0.33 0.04 0 0.335 0.04 0 0.34 0.04 0 0.345 0.04 0 0.35 0.04 0 0.355 0.04 0 0.36 0.04 0 0.365 0.04 0 0.37 0.04 0 0.375 0.04 0 0.38 0.04 0 0.385 0.04 0 0.39 0.04 0 0.395 0.04 0 0.4 0.04 0 0.405 0.04 0 0.41 0.04 0 0.415 0.04 0 0.42 0.04 0 0.425 0.04 0 0.43 0.04 0 0.435 0.04 0 0.44 0.04 0 0.445 0.04 0 0.45 0.04 0 0.455 0.04 0 0.46 0.04 0 0.465 0.04 0 0.47 0.04 0 0.475 0.04 0 0.48 0.04 0 0.485 0.04 0 0.49 0.04 0 0.495 0.04 0 0.5 0.04 0 0.505 0.04 0 0.51 0.04 0 0.515 0.04 0 0.52 0.04 0 0.525 0.04 0 0.53 0.04 0 0.535 0.04 0 0.54 0.04 0 0.545 0.04 0 0.55 0.04 0 0.555 0.04 0 0.56 0.04 0 0.565 0.04 0 0.57 0.04 0 0.575 0.04 0 0.58 0.04 0 0.585 0.04 0 0.59 0.04 0 0.595 0.04 0 0.6 0.04 0 0.605 0.04 0 0.61 0.04 0 0.615 0.04 0 0.62 0.04 0 0.625 0.04 0 0.63 0.04 0 0.635 0.04 0 0.64 0.04 0 0.645 0.04 0 0.65 0.04 0 0.655 0.04 0 0.66 0.04 0 0.665 0.04 0 0.67 0.04 0 0.675 0.04 0 0.68 0.04 0 0.685 0.04 0 0.69 0.04 0 0.695 0.04 0 0.7 0.04 0 0.705 0.04 0 0.71 0.04 0 0.715 0.04 0 0.72 0.04 0 0.725 0.04 0 0.73 0.04 0 0.735 0.04 0 0.74 0.04 0 0.745 0.04 0 0.75 0.04 0 0.755 0.04 0 0.76 0.04 0 0.765 0.04 0 0.77 0.04 0 0.775 0.04 0 0.78 0.04 0 0.785 0.04 0 0.79 0.04 0 0.795 0.04 0 0.8 0.04 0 0.805 0.04 0 0.81 0.04 0 0.815 0.04 0 0.82 0.04 0 0.825 0.04 0 0.83 0.04 0 0.835 0.04 0 0.84 0.04 0 0.845 0.04 0 0.85 0.04 0 0.855 0.04 0 0.86 0.04 0 0.865 0.04 0 0.87 0.04 0 0.875 0.04 0 0.88 0.04 0 0.885 0.04 0 0.89 0.04 0 0.895 0.04 0 0.9 0.04 0 0.905 0.04 0 0.91 0.04 0 0.915 0.04 0 0.92 0.04 0 0.925 0.04 0 0.93 0.04 0 0.935 0.04 0 0.94 0.04 0 0.945 0.04 0 0.95 0.04 0 0.955 0.04 0 0.96 0.04 0 0.965 0.04 0 0.97 0.04 0 0.975 0.04 0 0.98 0.04 0 0.985 0.04 0 0.99 0.04 0 0.995 0.04 0 1 0.04 0 0 0.06 0 0.005 0.06 0 0.01 0.06 0 0.015 0.06 0 0.02 0.06 0 0.025 0.06 0 0.03 0.06 0 0.035 0.06 0 0.04 0.06 0 0.045 0.06 0 0.05 0.06 0 0.055 0.06 0 0.06 0.06 0 0.065 0.06 0 0.07 0.06 0 0.075 0.06 0 0.08 0.06 0 0.085 0.06 0 0.09 0.06 0 0.095 0.06 0 0.1 0.06 0 0.105 0.06 0 0.11 0.06 0 0.115 0.06 0 0.12 0.06 0 0.125 0.06 0 0.13 0.06 0 0.135 0.06 0 0.14 0.06 0 0.145 0.06 0 0.15 0.06 0 0.155 0.06 0 0.16 0.06 0 0.165 0.06 0 0.17 0.06 0 0.175 0.06 0 0.18 0.06 0 0.185 0.06 0 0.19 0.06 0 0.195 0.06 0 0.2 0.06 0 0.205 0.06 0 0.21 0.06 0 0.215 0.06 0 0.22 0.06 0 0.225 0.06 0 0.23 0.06 0 0.235 0.06 0 0.24 0.06 0 0.245 0.06 0 0.25 0.06 0 0.255 0.06 0 0.26 0.06 0 0.265 0.06 0 0.27 0.06 0 0.275 0.06 0 0.28 0.06 0 0.285 0.06 0 0.29 0.06 0 0.295 0.06 0 0.3 0.06 0 0.305 0.06 0 0.31 0.06 0 0.315 0.06 0 0.32 0.06 0 0.325 0.06 0 0.33 0.06 0 0.335 0.06 0 0.34 0.06 0 0.345 0.06 0 0.35 0.06 0 0.355 0.06 0 0.36 0.06 0 0.365 0.06 0 0.37 0.06 0 0.375 0.06 0 0.38 0.06 0 0.385 0.06 0 0.39 0.06 0 0.395 0.06 0 0.4 0.06 0 0.405 0.06 0 0.41 0.06 0 0.415 0.06 0 0.42 0.06 0 0.425 0.06 0 0.43 0.06 0 0.435 0.06 0 0.44 0.06 0 0.445 0.06 0 0.45 0.06 0 0.455 0.06 0 0.46 0.06 0 0.465 0.06 0 0.47 0.06 0 0.475 0.06 0 0.48 0.06 0 0.485 0.06 0 0.49 0.06 0 0.495 0.06 0 0.5 0.06 0 0.505 0.06 0 0.51 0.06 0 0.515 0.06 0 0.52 0.06 0 0.525 0.06 0 0.53 0.06 0 0.535 0.06 0 0.54 0.06 0 0.545 0.06 0 0.55 0.06 0 0.555 0.06 0 0.56 0.06 0 0.565 0.06 0 0.57 0.06 0 0.575 0.06 0 0.58 0.06 0 0.585 0.06 0 0.59 0.06 0 0.595 0.06 0 0.6 0.06 0 0.605 0.06 0 0.61 0.06 0 0.615 0.06 0 0.62 0.06 0 0.625 0.06 0 0.63 0.06 0 0.635 0.06 0 0.64 0.06 0 0.645 0.06 0 0.65 0.06 0 0.655 0.06 0 0.66 0.06 0 0.665 0.06 0 0.67 0.06 0 0.675 0.06 0 0.68 0.06 0 0.685 0.06 0 0.69 0.06 0 0.695 0.06 0 0.7 0.06 0 0.705 0.06 0 0.71 0.06 0 0.715 0.06 0 0.72 0.06 0 0.725 0.06 0 0.73 0.06 0 0.735 0.06 0 0.74 0.06 0 0.745 0.06 0 0.75 0.06 0 0.755 0.06 0 0.76 0.06 0 0.765 0.06 0 0.77 0.06 0 0.775 0.06 0 0.78 0.06 0 0.785 0.06 0 0.79 0.06 0 0.795 0.06 0 0.8 0.06 0 0.805 0.06 0 0.81 0.06 0 0.815 0.06 0 0.82 0.06 0 0.825 0.06 0 0.83 0.06 0 0.835 0.06 0 0.84 0.06 0 0.845 0.06 0 0.85 0.06 0 0.855 0.06 0 0.86 0.06 0 0.865 0.06 0 0.87 0.06 0 0.875 0.06 0 0.88 0.06 0 0.885 0.06 0 0.89 0.06 0 0.895 0.06 0 0.9 0.06 0 0.905 0.06 0 0.91 0.06 0 0.915 0.06 0 0.92 0.06 0 0.925 0.06 0 0.93 0.06 0 0.935 0.06 0 0.94 0.06 0 0.945 0.06 0 0.95 0.06 0 0.955 0.06 0 0.96 0.06 0 0.965 0.06 0 0.97 0.06 0 0.975 0.06 0 0.98 0.06 0 0.985 0.06 0 0.99 0.06 0 0.995 0.06 0 1 0.06 0 0 0.08 0 0.005 0.08 0 0.01 0.08 0 0.015 0.08 0 0.02 0.08 0 0.025 0.08 0 0.03 0.08 0 0.035 0.08 0 0.04 0.08 0 0.045 0.08 0 0.05 0.08 0 0.055 0.08 0 0.06 0.08 0 0.065 0.08 0 0.07 0.08 0 0.075 0.08 0 0.08 0.08 0 0.085 0.08 0 0.09 0.08 0 0.095 0.08 0 0.1 0.08 0 0.105 0.08 0 0.11 0.08 0 0.115 0.08 0 0.12 0.08 0 0.125 0.08 0 0.13 0.08 0 0.135 0.08 0 0.14 0.08 0 0.145 0.08 0 0.15 0.08 0 0.155 0.08 0 0.16 0.08 0 0.165 0.08 0
[...]
			<PointData Scalars="VitesseX">
				<DataArray Name="VitesseX" type="Float32" format="ascii">
 0 3.02805e-14 -9.21385e-15 7.11393e-14 -3.92253e-14 -3.73678e-14 2.34284e-14 6.12192e-15 -2.14358e-14 1.99147e-14 -3.17188e-14 -1.24059e-13 7.59056e-14 -2.04414e-13 3.8073e-14 -2.82196e-14 -6.22167e-14 -3.05622e-15 -3.0664e-14 -9.03837e-14 -1.91242e-13 -5.31497e-14 -1.217e-13 -1.05649e-13 -1.20507e-13 -7.27248e-14 -1.42393e-13 -5.81111e-14 -4.62465e-14 -6.10508e-14 -8.03046e-14 6.99565e-15 -1.05425e-13 4.02794e-14 -1.81577e-13 -9.72813e-14 5.21711e-14 -7.53487e-14 -5.96748e-14 -4.25771e-13 -1.22016e-13 -3.31789e-13 -3.04983e-13 8.31624e-14 1.1657e-13 3.68084e-14 2.77567e-13 -4.2341e-13 9.14522e-14 -1.7814e-13 9.51493e-14 -4.90413e-14 -4.68923e-13 2.81877e-13 -3.45616e-13 -1.08188e-13 1.59006e-13 -5.85688e-13 3.67931e-13 -9.9121e-14 -1.30772e-13 4.68414e-15 -1.37256e-13 1.10385e-13 -2.00558e-13 -1.40619e-13 3.48163e-14 -5.99559e-13 3.17002e-13 2.49649e-13 5.1651e-12 5.66454e-11 5.70054e-10 5.30432e-09 4.49404e-08 3.44897e-07 2.38089e-06 1.46624e-05 7.97458e-05 0.000378287 0.00154094 0.00529137 0.0150339 0.0349544 0.0670201 0.109309 0.158316 0.211447 0.267255 0.324728 0.383527 0.443664 0.502841 0.558256 0.613605 0.666167 0.715766 0.766094 0.80879 0.851054 0.885418 0.906256 0.924058 0.93249 0.933197 0.934134 0.934508 0.934213 0.93341 0.932274 0.931282 0.930698 0.930404 0.930198 0.929975 0.929751 0.929703 0.929491 0.92793 0.923222 0.914823 0.898976 0.868231 0.813747 0.727925 0.609002 0.467259 0.322373 0.196399 0.103502 0.0470311 0.0189255 0.00704478 0.00250967 0.000870449 0.000295874 9.87524e-05 3.2371e-05 1.0418e-05 3.29031e-06 1.01936e-06 3.09669e-07 9.22206e-08 2.69169e-08 7.69905e-09 2.15789e-09 5.91939e-10 1.5961e-10 4.18278e-11 1.10827e-11 1.98929e-12 -4.76209e-13 3.2558e-13 -1.62504e-13 -7.83769e-14 -4.1041e-13 -2.99142e-13 7.43209e-13 2.17052e-13 3.48656e-13 -8.57591e-13 -8.46554e-13 2.27414e-13 5.11623e-14 6.88968e-13 -2.45317e-13 -6.43276e-13 1.66944e-14 2.12345e-13 -1.97388e-13 -5.02008e-15 5.52462e-13 -2.15293e-13 -7.40938e-13 -2.31133e-13 -2.87183e-13 1.9944e-13 -3.28279e-13 -7.2985e-13 -2.07517e-13 3.81472e-13 9.25598e-13 2.1608e-13 -1.0351e-12 1.45324e-13 6.43778e-13 5.81676e-14 -6.94591e-13 -8.75159e-13 -4.37709e-13 5.38469e-13 -8.1194e-13 -5.63075e-13 -1.67384e-13 4.11522e-13 4.2837e-13 -1.21556e-12 2.3241e-13 1.01129e-13 7.51284e-13 0 0 -6.28256e-15 2.23634e-14 -3.33975e-14 4.75602e-14 2.12178e-14 2.33539e-14 -1.56082e-14 -1.66971e-14 -4.63404e-14 -5.10919e-14 9.15899e-15 -1.45347e-13 5.33607e-14 -1.24979e-13 -5.93961e-15 2.46941e-14 -1.08397e-13 -3.66694e-14 -6.95867e-14 -3.63068e-14 -1.41639e-13 -8.08822e-14 -1.31437e-13 -7.29946e-14 -8.84965e-14 -1.15634e-13 -7.77595e-14 -5.89609e-14 -3.73813e-14 3.97243e-14 -2.07991e-13 8.01753e-15 -6.07771e-14 4.7998e-14 -8.21777e-14 -1.87442e-13 -1.07008e-13 -2.95158e-13 6.45437e-14 -2.9205e-13 -1.17933e-13 -7.2911e-14 -1.39476e-13 -3.98213e-14 -3.31914e-14 -1.08113e-13 3.6447e-13 -1.20953e-13 1.47644e-13 -1.60362e-13 -3.53175e-13 1.48382e-13 -4.26614e-13 4.89927e-15 -1.64228e-13 -3.28883e-13 2.69617e-13 -2.48728e-13 1.15532e-13 -8.15715e-14 -1.22882e-13 1.11157e-13 -1.82713e-13 -4.8905e-15 -1.8932e-13 -3.37811e-13 1.22513e-13 -1.56716e-13 6.01465e-13 5.3755e-12 5.60115e-11 5.7083e-10 5.30395e-09 4.49411e-08 3.44895e-07 2.38089e-06 1.46624e-05 7.97458e-05 0.000378287 0.00154094 0.00529137 0.0150339 0.0349544 0.0670201 0.109309 0.158316 0.211447 0.267255 0.324728 0.383527 0.443664 0.502841 0.558256 0.613605 0.666167 0.715766 0.766094 0.80879 0.851054 0.885418 0.906256 0.924058 0.93249 0.933197 0.934134 0.934508 0.934213 0.93341 0.932274 0.931282 0.930698 0.930404 0.930198 0.929975 0.929751 0.929703 0.929491 0.92793 0.923222 0.914823 0.898976 0.868231 0.813747 0.727925 0.609002 0.467259 0.322373 0.196399 0.103502 0.0470311 0.0189255 0.00704478 0.00250967 0.000870449 0.000295874 9.87524e-05 3.2371e-05 1.0418e-05 3.29031e-06 1.01936e-06 3.09669e-07 9.22207e-08 2.69169e-08 7.69866e-09 2.15755e-09 5.92982e-10 1.59202e-10 4.18356e-11 1.01922e-11 2.51498e-12 7.45297e-13 -5.88203e-13 -2.0892e-13 -7.27919e-13 2.52107e-13 3.42202e-13 -3.46309e-13 2.45546e-14 -6.98598e-13 2.66696e-13 4.68737e-13 -5.9897e-13 -1.05899e-13 -5.01976e-13 -2.12263e-13 4.54606e-13 1.10441e-13 -1.54705e-13 -1.26673e-13 6.34506e-14 -4.02599e-13 2.0167e-13 2.10027e-13 -2.41006e-13 -5.98924e-13 -6.6391e-13 -1.94223e-13 2.51925e-13 1.16459e-13 -1.56229e-14 -2.61211e-13 -1.50569e-13 7.11539e-13 3.75876e-14 -5.55588e-13 -2.32708e-13 2.29225e-13 4.8926e-13 -2.18185e-13 -1.01583e-12 -1.90254e-13 -4.10126e-14 -9.59647e-14 -7.97989e-13 -4.55501e-13 9.81919e-13 4.31149e-13 -3.40154e-13 -1.14745e-12 0 0 -4.78349e-15 -7.88975e-15 2.38128e-14 4.13768e-14 2.59664e-14 2.79591e-15 -1.22961e-14 1.70192e-14 -1.58746e-14 -2.67309e-14 -9.28423e-14 -4.00795e-14 -7.05988e-14 -3.09593e-14 -5.18257e-14 -1.84691e-14 -2.72355e-14 -9.10281e-14 -9.19027e-14 -7.77912e-14 -4.37452e-14 -7.3154e-14 -2.3756e-14 -9.14615e-14 -1.05859e-13 -6.5777e-14 -4.89184e-15 -1.56369e-13 -4.92664e-14 -6.7366e-14 7.23361e-14 -1.2418e-13 -6.38722e-14 -6.97913e-14 -1.03077e-13 -1.92991e-14 -2.03742e-13 -8.85292e-14 -1.81719e-13 -8.99967e-14 -1.23442e-13 -4.97059e-14 -1.20249e-13 -2.34843e-14 5.93271e-14 9.78368e-14 -2.105e-13 3.02525e-14 -3.18327e-13 -4.95456e-14 -2.3725e-14 -1.44285e-13 2.40789e-14 -2.20694e-13 -1.23289e-13 -9.91464e-14 -1.01125e-13 1.14708e-14 -1.70249e-15 2.56539e-14 -1.67229e-14 -1.20297e-13 -9.08697e-14 -1.25777e-13 -8.23539e-14 -4.98264e-14 -2.19346e-13 -8.51972e-15 5.70102e-13 5.12987e-12 5.65575e-11 5.70634e-10 5.30465e-09 4.49407e-08 3.44896e-07 2.38089e-06 1.46624e-05 7.97458e-05 0.000378287 0.00154094 0.00529137 0.0150339 0.0349544 0.0670201 0.109309 0.158316 0.211447 0.267255 0.324728 0.383527 0.443664 0.502841 0.558256 0.613605 0.666167 0.715766 0.766094 0.80879 0.851054 0.885418 0.906256 0.924058 0.93249 0.933197 0.934134 0.934508 0.934213 0.93341 0.932274 0.931282 0.930698 0.930404 0.930198 0.929975 0.929751 0.929703 0.929491 0.92793 0.923222 0.914823 0.898976 0.868231 0.813747 0.727925 0.609002 0.467259 0.322373 0.196399 0.103502 0.0470311 0.0189255 0.00704478 0.00250967 0.000870449 0.000295874 9.87524e-05 3.2371e-05 1.0418e-05 3.29031e-06 1.01936e-06 3.0967e-07 9.22206e-08 2.6917e-08 7.69881e-09 2.15773e-09 5.92005e-10 1.59368e-10 4.17386e-11 1.06903e-11 2.56056e-12 -7.77765e-14 -3.99507e-14 -6.47663e-13 -1.99027e-14 6.05509e-14 -1.1816e-13 -1.24933e-13 -2.15412e-13 6.93345e-14 -5.95667e-13 -2.84908e-13 -1.90936e-13 -2.01046e-13 -3.28461e-13 -2.68437e-13 -2.49042e-13 3.18638e-13 4.93467e-14 -5.40324e-15 -1.2773e-13 2.02238e-13 -2.55246e-13 -2.25274e-13 -2.66924e-13 -3.4744e-13 -1.30837e-13 -3.82098e-13 8.96603e-14 3.73808e-13 -7.84527e-14 2.01302e-13 -3.40748e-13 2.87759e-13 -1.28322e-13 -1.69875e-13 1.85979e-13 2.34145e-13 -5.13247e-13 -9.67636e-14 2.73605e-13 -2.58863e-13 -4.42433e-13 -3.22779e-13 -2.42742e-13 1.13572e-13 2.58726e-13 2.25401e-13 1.74703e-13 1.31006e-13 0 0 3.24845e-14 3.08336e-14 4.87919e-14 -6.3668e-15 6.54889e-15 1.21908e-14 -3.71874e-14 -2.59467e-14 -9.28826e-15 -1.94478e-14 -2.01414e-14 5.5736e-15 -9.00761e-14 -1.64588e-14 -2.49723e-14 -9.02918e-14 -6.71537e-14 -1.20657e-13 -5.20388e-14 -1.03636e-13 -4.80026e-15 -6.93689e-14 -5.28898e-14 -3.45517e-14 -1.54489e-14 -5.07456e-14 -9.26563e-14 -5.97162e-14 -8.7929e-14 1.94373e-14 -7.80569e-14 -6.97022e-14 -1.76328e-13 -1.40444e-13 -1.93971e-15 -5.73989e-14 -1.54587e-13 -1.00754e-13 -1.07028e-13 -6.09798e-14 -2.36942e-13 -1.02553e-13 6.42775e-14 6.28401e-14 4.82757e-14 -1.49543e-13 -1.73977e-13 -7.33282e-14 -4.67966e-14 -8.47236e-14 -1.58267e-13 -3.59383e-13 3.31285e-14 1.61131e-15 -2.78567e-13 -6.16354e-14 -1.9361e-13 2.12774e-13 -4.38761e-14 8.48844e-15 7.70905e-14 9.5093e-14 -1.26488e-13 -2.80417e-13 -1.70668e-13 -1.93793e-13 -8.47243e-14 1.97816e-13 3.36752e-13 5.08831e-12 5.68084e-11 5.70629e-10 5.30454e-09 4.49409e-08 3.44896e-07 2.38089e-06 1.46624e-05 7.97458e-05 0.000378287 0.00154094 0.00529137 0.0150339 0.0349544 0.0670201 0.109309 0.158316 0.211447 0.267255 0.324728 0.383527 0.443664 0.502841 0.558256 0.613605 0.666167 0.715766 0.766094 0.80879 0.851054 0.885418 0.906256 0.924058 0.93249 0.933197 0.934134 0.934508 0.934213 0.93341 0.932274 0.931282 0.930698 0.930404 0.930198 0.929975 0.929751 0.929703 0.929491 0.92793 0.923222 0.914823 0.898976 0.868231 0.813747 0.727925 0.609002 0.467259 0.322373 0.196399 0.103502 0.0470311 0.0189255 0.00704478 0.00250967 0.000870449 0.000295874 9.87524e-05 3.2371e-05 1.0418e-05 3.29031e-06 1.01936e-06 3.09669e-07 9.22207e-08 2.69169e-08 7.6988e-09 2.15763e-09 5.9219e-10 1.59278e-10 4.16322e-11 1.05031e-11 2.30288e-12 7.80397e-14 2.73896e-15 5.16123e-14 -8.62259e-14 -2.65407e-13 -4.90187e-14 6.07871e-14 -8.58716e-14 8.25606e-14 -7.04172e-13 -5.32112e-13 -3.62511e-13 1.30048e-13 -1.02348e-13 -1.146e-13 -6.70177e-13 1.01925e-14 3.55869e-13 -7.5139e-14 2.29131e-13 1.6717e-13 -6.80508e-13 -3.67623e-13 -4.75944e-13 1.78103e-13 -2.82522e-13 -3.51449e-13 -4.5477e-14 -5.44507e-13 4.58419e-13 8.09531e-13 3.57416e-13 -1.19387e-12 1.88775e-13 4.50602e-13 -2.20349e-13 -7.63126e-14 -6.93071e-13 -7.45834e-13 4.243e-13 1.72723e-13 1.90761e-14 -8.03249e-13 -7.08446e-14 -2.26463e-13 1.37888e-13 3.46996e-14 6.56128e-14 9.30925e-13 0 0 1.62187e-15 3.82769e-14 -2.05306e-14 1.82571e-14 5.28005e-15 7.46888e-15 -4.72157e-14 -5.46677e-14 -4.08975e-14 -4.5399e-14 7.75526e-14 -1.01334e-13 1.0121e-13 -9.39523e-14 -1.15818e-14 -5.43995e-15 -1.38062e-13 -1.48502e-14 -3.49765e-14 8.19536e-15 -9.29452e-14 -3.91931e-14 -1.19391e-13 -3.36321e-16 -6.73198e-15 -1.05519e-13 -1.58074e-13 -2.76304e-14 -1.35498e-13 -3.35307e-14 -2.20094e-13 6.95718e-14 -1.6628e-13 -6.55438e-14 3.93261e-14 -1.611e-13 -1.14022e-13 -2.99207e-13 5.30502e-14 -2.31461e-13 -6.82982e-14 -1.0977e-14 -3.52173e-14 -2.86069e-14 -6.09055e-14 -1.49873e-13 3.8718e-13 -9.74757e-14 2.90358e-13 -2.71878e-13 -4.02483e-13 -2.26708e-14 -4.76094e-13 1.24479e-13 -2.72492e-13 -3.02684e-13 4.10742e-13 -1.48145e-13 4.15129e-14 -9.31787e-14 -2.84607e-15 3.61519e-14 -1.43628e-13 -8.66251e-14 -2.78753e-13 -3.86975e-13 1.21657e-13 1.5193e-13 5.9527e-13 5.55754e-12 5.64166e-11 5.71064e-10 5.30403e-09 4.49413e-08 3.44895e-07 2.38089e-06 1.46624e-05 7.97458e-05 0.000378287 0.00154094 0.00529137 0.0150339 0.0349544 0.0670201 0.109309 0.158316 0.211447 0.267255 0.324728 0.383527 0.443664 0.502841 0.558256 0.613605 0.666167 0.715766 0.766094 0.80879 0.851054 0.885418 0.906256 0.924058 0.93249 0.933197 0.934134 0.934508 0.934213 0.93341 0.932274 0.931282 0.930698 0.930404 0.930198 0.929975 0.929751 0.929703 0.929491 0.92793 0.923222 0.914823 0.898976 0.868231 0.813747 0.727925 0.609002 0.467259 0.322373 0.196399 0.103502 0.0470311 0.0189255 0.00704478 0.00250967 0.000870449 0.000295874 9.87524e-05 3.2371e-05 1.0418e-05 3.29031e-06 1.01936e-06 3.09669e-07 9.22209e-08 2.69168e-08 7.69846e-09 2.15757e-09 5.92721e-10 1.59064e-10 4.19312e-11 1.01436e-11 2.05359e-12 1.06997e-12 -8.28918e-13 1.63859e-13 -6.5332e-13 1.23373e-13 2.23208e-13 -1.18827e-13 -1.08847e-13 -2.5695e-13 3.44893e-15 2.43598e-13 -3.57745e-13 -2.55621e-13 -2.98948e-13 -3.39866e-13 8.63851e-14 1.11866e-13 1.70216e-13 -1.75803e-13 8.12361e-14 -5.916e-13 -2.94236e-13 2.58766e-13 -4.43295e-13 -3.34623e-13 -1.03412e-12 -3.02808e-13 1.32726e-13 -3.25757e-13 1.42859e-14 4.05382e-13 3.03666e-13 5.86436e-13 3.522e-16 -2.38961e-13 -2.10432e-13 -8.91063e-14 3.27911e-13 -3.81008e-13 -1.31293e-12 2.3366e-13 2.19898e-13 -4.05499e-13 -6.05344e-13 -6.50516e-13 1.18498e-12 2.49056e-13 -2.29331e-13 -4.46314e-13 0 0 -2.84467e-14 -5.48337e-14 4.69148e-14 -2.34403e-15 -3.04084e-14 -2.71314e-14 -7.31059e-15 -1.14453e-14 1.76278e-14 -3.48992e-14 -1.32673e-13 7.26246e-14 -6.97615e-14 7.11259e-14 -9.32107e-14 2.11606e-14 1.74497e-14 7.22319e-14 -1.00891e-13 -5.05468e-14 -3.36512e-14 -4.5892e-14 -2.32894e-14 -8.90101e-14 -9.00159e-14 -1.52226e-13 -4.32105e-14 -1.76892e-13 -1.7996e-13 -4.00421e-13 2.83576e-13 -9.12716e-14 5.41853e-14 -2.67355e-13 -5.65484e-14 1.81054e-13 -1.87688e-13 -4.33219e-14 -5.98141e-13 -5.88725e-14 -5.51956e-15 -7.54205e-14 -7.73731e-14 -3.36502e-14 3.48298e-15 6.88806e-13 -4.51036e-13 3.45567e-13 -4.35771e-13 -5.75262e-14 1.21427e-13 -3.80831e-13 1.64818e-13 -5.51066e-13 -1.41592e-14 1.36381e-13 -1.18468e-13 1.66491e-13 -1.62812e-13 -1.19656e-13 5.71299e-14 -7.18045e-13 2.59792e-13 -5.47472e-14 -1.42856e-13 2.24421e-13 -8.70515e-13 5.21623e-13 7.03957e-13 5.61231e-12 5.69538e-11 5.70532e-10 5.30469e-09 4.49404e-08 3.44896e-07 2.38089e-06 1.46624e-05 7.97458e-05 0.000378287 0.00154094 0.00529137 0.0150339 0.0349544 0.0670201 0.109309 0.158316 0.211447 0.267255 0.324728 0.383527 0.443664 0.502841 0.558256 0.613605 0.666167 0.715766 0.766094 0.80879 0.851054 0.885418 0.906256 0.924058 0.93249 0.933197 0.934134 0.934508 0.934213 0.93341 0.932274 0.931282 0.930698 0.930404 0.930198 0.929975 0.929751 0.929703 0.929491 0.92793 0.923222 0.914823 0.898976 0.868231 0.813747 0.727925 0.609002 0.467259 0.322373 0.196399 0.103502 0.0470311 0.0189255 0.00704478 0.00250967 0.000870449 0.000295874 9.87524e-05 3.2371e-05 1.0418e-05 3.29031e-06 1.01936e-06 3.09669e-07 9.22209e-08 2.69169e-08 7.69866e-09 2.1581e-09 5.91047e-10 1.59515e-10 4.22319e-11 1.13599e-11 1.58189e-12 -1.38495e-13 -2.4123e-13 -8.15497e-13 2.03467e-13 -1.5962e-14 -6.75413e-13 8.26732e-13 -3.08832e-13 1.2055e-12 -1.16707e-12 -8.02423e-13 1.05301e-12 -9.10469e-13 6.42797e-13 -8.08196e-13 -5.37447e-13 6.36435e-13 2.49142e-13 -1.56176e-13 -6.83172e-13 2.44598e-13 -3.56581e-13 -3.58764e-13 -2.1767e-13 -8.09668e-13 -2.37607e-13 -6.06747e-13 -6.97974e-13 7.44682e-13 -6.32454e-13 1.04232e-12 -2.71777e-13 1.67796e-12 -5.6334e-13 3.60812e-14 9.15375e-13 -7.10338e-13 -8.38208e-13 5.34786e-13 -3.57113e-13 -8.27284e-13 -9.64272e-13 1.74487e-13 4.53018e-13 7.1841e-13 -5.67763e-13 2.49625e-13 5.40956e-13 5.5372e-13 0
				</DataArray>
				<DataArray Name="VitesseY" type="Float32" format="ascii">