<?xml version="1.0"?>
<VTKFile type="PolyData">
	<PolyData>
		<Piece NumberOfPoints="1206" NumberOfPolys="1000">
			<Points>
				<DataArray type="Float32" NumberOfComponents="3" format="ascii">
 0 0 0 0.005 0 0 0.01 0 0 0.015 0 0 0.02 0 0 0.025 0 0 0.03 0 0 0.035 0 0 0.04 0 0 0.045 0 0 0.05 0 0 0.055 0 0 0.06 0 0 0.065 0 0 0.07 0 0 0.075 0 0 0.08 0 0 0.085 0 0 0.09 0 0 0.095 0 0 0.1 0 0 0.105 0 0 0.11 0 0 0.115 0 0 0.12 0 0 0.125 0 0 0.13 0 0 0.135 0 0 0.14 0 0 0.145 0 0 0.15 0 0 0.155 0 0 0.16 0 0 0.165 0 0 0.17 0 0 0.175 0 0 0.18 0 0 0.185 0 0 0.19 0 0 0.195 0 0 0.2 0 0 0.205 0 0 0.21 0 0 0.215 0 0 0.22 0 0 0.225 0 0 0.23 0 0 0.235 0 0 0.24 0 0 0.245 0 0 0.25 0 0 0.255 0 0 0.26 0 0 0.265 0 0 0.27 0 0 0.275 0 0 0.28 0 0 0.285 0 0 0.29 0 0 0.295 0 0 0.3 0 0 0.305 0 0 0.31 0 0 0.315 0 0 0.32 0 0 0.325 0 0 0.33 0 0 0.335 0 0 0.34 0 0 0.345 0 0 0.35 0 0 0.355 0 0 0.36 0 0 0.365 0 0 0.37 0 0 0.375 0 0 0.38 0 0 0.385 0 0 0.39 0 0 0.395 0 0 0.4 0 0 0.405 0 0 0.41 0 0 0.415 0 0 0.42 0 0 0.425 0 0 0.43 0 0 0.435 0 0 0.44 0 0 0.445 0 0 0.45 0 0 0.455 0 0 0.46 0 0 0.465 0 0 0.47 0 0 0.475 0 0 0.48 0 0 0.485 0 0 0.49 0 0 0.495 0 0 0.5 0 0 0.505 0 0 0.51 0 0 0.515 0 0 0.52 0 0 0.525 0 0 0.53 0 0 0.535 0 0 0.54 0 0 0.545 0 0 0.55 0 0 0.555 0 0 0.56 0 0 0.565 0 0 0.57 0 0 0.575 0 0 0.58 0 0 0.585 0 0 0.59 0 0 0.595 0 0 0.6 0 0 0.605 0 0 0.61 0 0 0.615 0 0 0.62 0 0 0.625 0 0 0.63 0 0 0.635 0 0 0.64 0 0 0.645 0 0 0.65 0 0 0.655 0 0 0.66 0 0 0.665 0 0 0.67 0 0 0.675 0 0 0.68 0 0 0.685 0 0 0.69 0 0 0.695 0 0 0.7 0 0 0.705 0 0 0.71 0 0 0.715 0 0 0.72 0 0 0.725 0 0 0.73 0 0 0.735 0 0 0.74 0 0 0.745 0 0 0.75 0 0 0.755 0 0 0.76 0 0 0.765 0 0 0.77 0 0 0.775 0 0 0.78 0 0 0.785 0 0 0.79 0 0 0.795 0 0 0.8 0 0 0.805 0 0 0.81 0 0 0.815 0 0 0.82 0 0 0.825 0 0 0.83 0 0 0.835 0 0 0.84 0 0 0.845 0 0 0.85 0 0 0.855 0 0 0.86 0 0 0.865 0 0 0.87 0 0 0.875 0 0 0.88 0 0 0.885 0 0 0.89 0 0 0.895 0 0 0.9 0 0 0.905 0 0 0.91 0 0 0.915 0 0 0.92 0 0 0.925 0 0 0.93 0 0 0.935 0 0 0.94 0 0 0.945 0 0 0.95 0 0 0.955 0 0 0.96 0 0 0.965 0 0 0.97 0 0 0.975 0 0 0.98 0 0 0.985 0 0 0.99 0 0 0.995 0 0 1 0 0 0 0.02 0 0.005 0.02 0 0.01 0.02 0 0.015 0.02 0 0.02 0.02 0 0.025 0.02 0 0.03 0.02 0 0.035 0.02 0 0.04 0.02 0 0.045 0.02 0 0.05 0.02 0 0.055 0.02 0 0.06 0.02 0 0.065 0.02 0 0.07 0.02 0 0.075 0.02 0 0.08 0.02 0 0.085 0.02 0 0.09 0.02 0 0.095 0.02 0 0.1 0.02 0 0.105 0.02 0 0.11 0.02 0 0.115 0.02 0 0.12 0.02 0 0.125 0.02 0 0.13 0.02 0 0.135 0.02 0 0.14 0.02 0 0.145 0.02 0 0.15 0.02 0 0.155 0.02 0 0.16 0.02 0 0.165 0.02 0 0.17 0.02 0 0.175 0.02 0 0.18 0.02 0 0.185 0.02 0 0.19 0.02 0 0.195 0.02 0 0.2 0.02 0 0.205 0.02 0 0.21 0.02 0 0.215 0.02 0 0.22 0.02 0 0.225 0.02 0 0.23 0.02 0 0.235 0.02 0 0.24 0.02 0 0.245 0.02 0 0.25 0.02 0 0.255 0.02 0 0.26 0.02 0 0.265 0.02 0 0.27 0.02 0 0.275 0.02 0 0.28 0.02 0 0.285 0.02 0 0.29 0.02 0 0.295 0.02 0 0.3 0.02 0 0.305 0.02 0 0.31 0.02 0 0.315 0.02 0 0.32 0.02 0 0.325 0.02 0 0.33 0.02 0 0.335 0.02 0 0.34 0.02 0 0.345 0.02 0 0.35 0.02 0 0.355 0.02 0 0.36 0.02 0 0.365 0.02 0 0.37 0.02 0 0.375 0.02 0 0.38 0.02 0 0.385 0.02 0 0.39 0.02 0 0.395 0.02 0 0.4 0.02 0 0.405 0.02 0 0.41 0.02 0 0.415 0.02 0 0.42 0.02 0 0.425 0.02 0 0.43 0.02 0 0.435 0.02 0 0.44 0.02 0 0.445 0.02 0 0.45 0.02 0 0.455 0.02 0 0.46 0.02 0 0.465 0.02 0 0.47 0.02 0 0.475 0.02 0 0.48 0.02 0 0.485 0.02 0 0.49 0.02 0 0.495 0.02 0 0.5 0.02 0 0.505 0.02 0 0.51 0.02 0 0.515 0.02 0 0.52 0.02 0 0.525 0.02 0 0.53 0.02 0 0.535 0.02 0 0.54 0.02 0 0.545 0.02 0 0.55 0.02 0 0.555 0.02 0 0.56 0.02 0 0.565 0.02 0 0.57 0.02 0 0.575 0.02 0 0.58 0.02 0 0.585 0.02 0 0.59 0.02 0 0.595 0.02 0 0.6 0.02 0 0.605 0.02 0 0.61 0.02 0 0.615 0.02 0 0.62 0.02 0 0.625 0.02 0 0.63 0.02 0 0.635 0.02 0 0.64 0.02 0 0.645 0.02 0 0.65 0.02 0 0.655 0.02 0 0.66 0.02 0 0.665 0.02 0 0.67 0.02 0 0.675 0.02 0 0.68 0.02 0 0.685 0.02 0 0.69 0.02 0 0.695 0.02 0 0.7 0.02 0 0.705 0.02 0 0.71 0.02 0 0.715 0.02 0 0.72 0.02 0 0.725 0.02 0 0.73 0.02 0 0.735 0.02 0 0.74 0.02 0 0.745 0.02 0 0.75 0.02 0 0.755 0.02 0 0.76 0.02 0 0.765 0.02 0 0.77 0.02 0 0.775 0.02 0 0.78 0.02 0 0.785 0.02 0 0.79 0.02 0 0.795 0.02 0 0.8 0.02 0 0.805 0.02 0 0.81 0.02 0 0.815 0.02 0 0.82 0.02 0 0.825 0.02 0 0.83 0.02 0 0.835 0.02 0 0.84 0.02 0 0.845 0.02 0 0.85 0.02 0 0.855 0.02 0 0.86 0.02 0 0.865 0.02 0 0.87 0.02 0 0.875 0.02 0 0.88 0.02 0 0.885 0.02 0 0.89 0.02 0 0.895 0.02 0 0.9 0.02 0 0.905 0.02 0 0.91 0.02 0 0.915 0.02 0 0.92 0.02 0 0.925 0.02 0 0.93 0.02 0 0.935 0.02 0 0.94 0.02 0 0.945 0.02 0 0.95 0.02 0 0.955 0.02 0 0.96 0.02 0 0.965 0.02 0 0.97 0.02 0 0.975 0.02 0 0.98 0.02 0 0.985 0.02 0 0.99 0.02 0 0.995 0.02 0 1 0.02 0 0 0.04 0 0.005 0.04 0 0.01 0.04 0 0.015 0.04 0 0.02 0.04 0 0.025 0.04 0 0.03 0.04 0 0.035 0.04 0 0.04 0.04 0 0.045 0.04 0 0.05 0.04 0 0.055 0.04 0 0.06 0.04 0 0.065 0.04 0 0.07 0.04 0 0.075 0.04 0 0.08 0.04 0 0.085 0.04 0 0.09 0.04 0 0.095 0.04 0 0.1 0.04 0 0.105 0.04 0 0.11 0.04 0 0.115 0.04 0 0.12 0.04 0 0.125 0.04 0 0.13 0.04 0 0.135 0.04 0 0.14 0.04 0 0.145 0.04 0 0.15 0.04 0 0.155 0.04 0 0.16 0.04 0 0.165 0.04 0 0.17 0.04 0 0.175 0.04 0 0.18 0.04 0 0.185 0.04 0 0.19 0.04 0 0.195 0.04 0 0.2 0.04 0 0.205 0.04 0 0.21 0.04 0 0.215 0.04 0 0.22 0.04 0 0.225 0.04 0 0.23 0.04 0 0.235 0.04 0 0.24 0.04 0 0.245 0.04 0 0.25 0.04 0 0.255 0.04 0 0.26 0.04 0 0.265 0.04 0 0.27 0.04 0 0.275 0.04 0 0.28 0.04 0 0.285 0.04 0 0.29 0.04 0 0.295 0.04 0 0.3 0.04 0 0.305 0.04 0 0.31 0.04 0 0.315 0.04 0 0.32 0.04 0 0.325 0.04 0 0.33 0.04 0 0.335 0.04 0 0.34 0.04 0 0.345 0.04 0 0.35 0.04 0 0.355 0.04 0 0.36 0.04 0 0.365 0.04 0 0.37 0.04 0 0.375 0.04 0 0.38 0.04 0 0.385 0.04 0 0.39 0.04 0 0.395 0.04 0 0.4 0.04 0 0.405 0.04 0 0.41 0.04 0 0.415 0.04 0 0.42 0.04 0 0.425 0.04 0 0.43 0.04 0 0.435 0.04 0 0.44 0.04 0 0.445 0.04 0 0.45 0.04 0 0.455 0.04 0 0.46 0.04 0 0.465 0.04 0 0.47 0.04 0 0.475 0.04 0 0.48 0.04 0 0.485 0.04 0 0.49 0.04 0 0.495 0.04 0 0.5 0.04 0 0.505 0.04 0 0.51 0.04 0 0.515 0.04 0 0.52 0.04 0 0.525 0.04 0 0.53 0.04 0 0.535 0.04 0 0.54 0.04 0 0.545 0.04 0 0.55 0.04 0 0.555 0.04 0 0.56 0.04 0 0.565 0.04 0 0.57 0.04 0 0.575 0.04 0 0.58 0.04 0 0.585 0.04 0 0.59 0.04 0 0.595 0.04 0 0.6 0.04 0 0.605 0.04 0 0.61 0.04 0 0.615 0.04 0 0.62 0.04 0 0.625 0.04 0 0.63 0.04 0 0.635 0.04 0 0.64 0.04 0 0.645 0.04 0 0.65 0.04 0 0.655 0.04 0 0.66 0.04 0 0.665 0.04 0 0.67 0.04 0 0.675 0.04 0 0.68 0.04 0 0.685 0.04 0 0.69 0.04 0 0.695 0.04 0 0.7 0.04 0 0.705 0.04 0 0.71 0.04 0 0.715 0.04 0 0.72 0.04 0 0.725 0.04 0 0.73 0.04 0 0.735 0.04 0 0.74 0.04 0 0.745 0.04 0 0.75 0.04 0 0.755 0.04 0 0.76 0.04 0 0.765 0.04 0 0.77 0.04 0 0.775 0.04 0 0.78 0.04 0 0.785 0.04 0 0.79 0.04 0 0.795 0.04 0 0.8 0.04 0 0.805 0.04 0 0.81 0.04 0 0.815 0.04 0 0.82 0.04 0 0.825 0.04 0 0.83 0.04 0 0.835 0.04 0 0.84 0.04 0 0.845 0.04 0 0.85 0.04 0 0.855 0.04 0 0.86 0.04 0 0.865 0.04 0 0.87 0.04 0 0.875 0.04 0 0.88 0.04 0 0.885 0.04 0 0.89 0.04 0 0.895 0.04 0 0.9 0.04 0 0.905 0.04 0 0.91 0.04 0 0.915 0.04 0 0.92 0.04 0 0.925 0.04 0 0.93 0.04 0 0.935 0.04 0 0.94 0.04 0 0.945 0.04 0 0.95 0.04 0 0.955 0.04 0 0.96 0.04 0 0.965 0.04 0 0.97 0.04 0 0.975 0.04 0 0.98 0.04 0 0.985 0.04 0 0.99 0.04 0 0.995 0.04 0 1 0.04 0 0 0.06 0 0.005 0.06 0 0.01 0.06 0 0.015 0.06 0 0.02 0.06 0 0.025 0.06 0 0.03 0.06 0 0.035 0.06 0 0.04 0.06 0 0.045 0.06 0 0.05 0.06 0 0.055 0.06 0 0.06 0.06 0 0.065 0.06 0 0.07 0.06 0 0.075 0.06 0 0.08 0.06 0 0.085 0.06 0 0.09 0.06 0 0.095 0.06 0 0.1 0.06 0 0.105 0.06 0 0.11 0.06 0 0.115 0.06 0 0.12 0.06 0 0.125 0.06 0 0.13 0.06 0 0.135 0.06 0 0.14 0.06 0 0.145 0.06 0 0.15 0.06 0 0.155 0.06 0 0.16 0.06 0 0.165 0.06 0 0.17 0.06 0 0.175 0.06 0 0.18 0.06 0 0.185 0.06 0 0.19 0.06 0 0.195 0.06 0 0.2 0.06 0 0.205 0.06 0 0.21 0.06 0 0.215 0.06 0 0.22 0.06 0 0.225 0.06 0 0.23 0.06 0 0.235 0.06 0 0.24 0.06 0 0.245 0.06 0 0.25 0.06 0 0.255 0.06 0 0.26 0.06 0 0.265 0.06 0 0.27 0.06 0 0.275 0.06 0 0.28 0.06 0 0.285 0.06 0 0.29 0.06 0 0.295 0.06 0 0.3 0.06 0 0.305 0.06 0 0.31 0.06 0 0.315 0.06 0 0.32 0.06 0 0.325 0.06 0 0.33 0.06 0 0.335 0.06 0 0.34 0.06 0 0.345 0.06 0 0.35 0.06 0 0.355 0.06 0 0.36 0.06 0 0.365 0.06 0 0.37 0.06 0 0.375 0.06 0 0.38 0.06 0 0.385 0.06 0 0.39 0.06 0 0.395 0.06 0 0.4 0.06 0 0.405 0.06 0 0.41 0.06 0 0.415 0.06 0 0.42 0.06 0 0.425 0.06 0 0.43 0.06 0 0.435 0.06 0 0.44 0.06 0 0.445 0.06 0 0.45 0.06 0 0.455 0.06 0 0.46 0.06 0 0.465 0.06 0 0.47 0.06 0 0.475 0.06 0 0.48 0.06 0 0.485 0.06 0 0.49 0.06 0 0.495 0.06 0 0.5 0.06 0 0.505 0.06 0 0.51 0.06 0 0.515 0.06 0 0.52 0.06 0 0.525 0.06 0 0.53 0.06 0 0.535 0.06 0 0.54 0.06 0 0.545 0.06 0 0.55 0.06 0 0.555 0.06 0 0.56 0.06 0 0.565 0.06 0 0.57 0.06 0 0.575 0.06 0 0.58 0.06 0 0.585 0.06 0 0.59 0.06 0 0.595 0.06 0 0.6 0.06 0 0.605 0.06 0 0.61 0.06 0 0.615 0.06 0 0.62 0.06 0 0.625 0.06 0 0.63 0.06 0 0.635 0.06 0 0.64 0.06 0 0.645 0.06 0 0.65 0.06 0 0.655 0.06 0 0.66 0.06 0 0.665 0.06 0 0.67 0.06 0 0.675 0.06 0 0.68 0.06 0 0.685 0.06 0 0.69 0.06 0 0.695 0.06 0 0.7 0.06 0 0.705 0.06 0 0.71 0.06 0 0.715 0.06 0 0.72 0.06 0 0.725 0.06 0 0.73 0.06 0 0.735 0.06 0 0.74 0.06 0 0.745 0.06 0 0.75 0.06 0 0.755 0.06 0 0.76 0.06 0 0.765 0.06 0 0.77 0.06 0 0.775 0.06 0 0.78 0.06 0 0.785 0.06 0 0.79 0.06 0 0.795 0.06 0 0.8 0.06 0 0.805 0.06 0 0.81 0.06 0 0.815 0.06 0 0.82 0.06 0 0.825 0.06 0 0.83 0.06 0 0.835 0.06 0 0.84 0.06 0 0.845 0.06 0 0.85 0.06 0 0.855 0.06 0 0.86 0.06 0 0.865 0.06 0 0.87 0.06 0 0.875 0.06 0 0.88 0.06 0 0.885 0.06 0 0.89 0.06 0 0.895 0.06 0 0.9 0.06 0 0.905 0.06 0 0.91 0.06 0 0.915 0.06 0 0.92 0.06 0 0.925 0.06 0 0.93 0.06 0 0.935 0.06 0 0.94 0.06 0 0.945 0.06 0 0.95 0.06 0 0.955 0.06 0 0.96 0.06 0 0.965 0.06 0 0.97 0.06 0 0.975 0.06 0 0.98 0.06 0 0.985 0.06 0 0.99 0.06 0 0.995 0.06 0 1 0.06 0 0 0.08 0 0.005 0.08 0 0.01 0.08 0 0.015 0.08 0 0.02 0.08 0 0.025 0.08 0 0.03 0.08 0 0.035 0.08 0 0.04 0.08 0 0.045 0.08 0 0.05 0.08 0 0.055 0.08 0 0.06 0.08 0 0.065 0.08 0 0.07 0.08 0 0.075 0.08 0 0.08 0.08 0 0.085 0.08 0 0.09 0.08 0 0.095 0.08 0 0.1 0.08 0 0.105 0.08 0 0.11 0.08 0 0.115 0.08 0 0.12 0.08 0 0.125 0.08 0 0.13 0.08 0 0.135 0.08 0 0.14 0.08 0 0.145 0.08 0 0.15 0.08 0 0.155 0.08 0 0.16 0.08 0 0.165 0.08 0
[...]
			<PointData Scalars="VitesseX">
				<DataArray Name="VitesseX" type="Float32" format="ascii">
 0 -1.2067e-14 -4.70402e-15 -8.68921e-14 3.39083e-14 4.40255e-15 -4.09893e-14 -6.38833e-14 1.55084e-14 -8.51535e-14 -6.79288e-14 7.83095e-14 -1.99523e-13 1.58795e-13 -2.09996e-13 -5.9974e-14 3.22862e-14 -2.85604e-13 3.51882e-14 -8.83233e-14 -4.33421e-14 3.27072e-14 5.13661e-14 -8.03031e-15 -3.45768e-13 -5.36312e-14 2.54851e-13 -1.85992e-13 -2.31629e-14 -1.47601e-13 1.5381e-13 -2.89677e-13 1.40772e-13 5.62327e-14 -3.35074e-13 -4.06926e-14 -7.68488e-14 2.27546e-14 -3.82485e-13 3.11893e-13 -1.67929e-13 -4.01933e-14 7.60378e-14 -3.91881e-13 -3.66777e-13 -4.21694e-14 -6.36102e-13 5.01629e-13 -1.70834e-13 4.35004e-14 -2.01431e-13 1.61755e-13 8.0784e-13 -1.0185e-12 2.16247e-13 -4.28874e-14 -6.04187e-13 4.72265e-13 -5.80148e-13 5.97519e-14 2.38281e-13 1.0969e-15 3.3828e-14 -1.76228e-13 2.09938e-13 -1.96469e-13 -1.16346e-13 -2.72433e-14 -6.54295e-13 1.25558e-13 1.25032e-13 -6.49972e-13 2.63877e-13 -3.01276e-13 8.58918e-13 -4.42945e-13 3.68066e-12 5.91941e-11 7.66416e-10 9.01645e-09 9.46382e-08 8.79081e-07 7.15241e-06 5.03377e-05 0.000301634 0.00150801 0.00613347 0.0197569 0.0495739 0.0981556 0.161045 0.232732 0.310147 0.391504 0.476152 0.553436 0.628792 0.694951 0.762536 0.815718 0.864068 0.903709 0.919432 0.929843 0.936899 0.937418 0.936336 0.934332 0.932733 0.932004 0.932278 0.932343 0.930438 0.921833 0.902951 0.872116 0.817831 0.728594 0.602783 0.453784 0.304229 0.177753 0.0883387 0.0372864 0.0138272 0.00472631 0.00153863 0.000484129 0.000147991 4.40124e-05 1.27371e-05 3.58655e-06 9.82499e-07 2.61822e-07 6.78713e-08 1.71171e-08 4.19894e-09 1.00235e-09 2.33538e-10 5.18224e-11 1.17354e-11 2.78613e-12 -6.28256e-13 1.13201e-12 1.06266e-13 -7.14362e-13 8.89877e-13 -1.56606e-12 7.48205e-13 -4.48724e-13 -7.54419e-14 1.63854e-12 -1.37157e-12 7.60101e-13 -4.90843e-13 8.55254e-13 -3.69196e-13 -1.03095e-12 1.05024e-13 -2.16875e-13 7.39888e-13 -2.35241e-13 -4.402e-13 2.378e-13 -1.04125e-12 -9.30781e-14 2.47763e-13 5.60753e-13 5.06431e-13 -6.42554e-13 2.42648e-13 -3.85323e-14 -4.08792e-13 1.18939e-12 -3.20484e-13 4.6019e-14 -4.50192e-13 -4.66407e-13 1.12217e-12 -1.30932e-12 2.2358e-13 -6.93828e-13 -1.29817e-12 1.87018e-12 -6.44092e-13 1.20893e-13 -1.08205e-13 -8.64391e-13 1.16398e-12 -9.80289e-13 -2.54333e-14 8.3463e-13 -2.13868e-12 1.12332e-12 -7.24927e-13 -2.45046e-13 6.73583e-13 -2.2601e-12 8.13084e-13 -1.10186e-12 0 0 -6.03285e-15 -3.21457e-14 3.28682e-14 -7.16576e-14 -3.21608e-14 1.39243e-14 -5.55111e-15 -6.73826e-14 9.74023e-15 1.73894e-14 -1.04674e-13 1.44958e-13 -2.21253e-13 3.57207e-14 -8.78867e-14 -2.46999e-13 1.1539e-14 -1.52543e-13 -3.98795e-15 4.07707e-14 -3.98332e-14 -1.22228e-13 -1.41706e-13 1.54872e-13 -8.84401e-14 -2.35014e-13 9.48946e-14 -1.30082e-13 5.64034e-14 -1.88441e-13 1.42048e-13 -9.04003e-14 -1.08263e-13 6.90783e-14 -1.4441e-13 -8.52221e-14 -2.38633e-13 2.64464e-13 -3.1631e-13 9.83479e-14 -1.8998e-13 -2.00366e-13 -4.24121e-15 -1.69993e-13 -4.28897e-13 1.71691e-13 -4.37658e-13 2.28501e-13 9.98227e-14 2.34695e-13 -7.1829e-14 -5.43626e-13 8.59187e-13 -3.39866e-13 -3.49492e-13 1.71125e-13 -6.92712e-13 3.57044e-13 -1.27586e-13 -8.84038e-14 -2.56069e-14 -8.83891e-14 1.2714e-13 -3.5493e-13 6.48793e-14 5.35953e-14 -3.49335e-13 2.38211e-13 -3.99745e-13 -2.47447e-13 4.76752e-13 -3.36996e-13 2.94306e-13 -4.96059e-13 9.01528e-13 4.21763e-12 5.82007e-11 7.66906e-10 9.01526e-09 9.46404e-08 8.7908e-07 7.15241e-06 5.03377e-05 0.000301634 0.00150801 0.00613347 0.0197569 0.0495739 0.0981556 0.161045 0.232732 0.310147 0.391504 0.476152 0.553436 0.628792 0.694951 0.762536 0.815718 0.864068 0.903709 0.919432 0.929843 0.936899 0.937418 0.936336 0.934332 0.932733 0.932004 0.932278 0.932343 0.930438 0.921833 0.902951 0.872116 0.817831 0.728594 0.602783 0.453784 0.304229 0.177753 0.0883387 0.0372864 0.0138272 0.00472631 0.00153863 0.000484129 0.000147991 4.40124e-05 1.27371e-05 3.58655e-06 9.825e-07 2.61821e-07 6.78724e-08 1.71157e-08 4.19995e-09 1.00248e-09 2.32177e-10 5.29942e-11 1.11796e-11 2.15407e-12 1.38561e-12 -3.8065e-13 1.06499e-13 3.90146e-13 -1.17533e-12 7.53263e-13 -5.43499e-13 3.27782e-13 4.79285e-13 -1.02496e-12 1.36329e-12 -5.10159e-13 2.92393e-13 -7.13661e-13 1.68896e-14 1.27495e-13 -6.02593e-13 -6.96902e-14 -3.85049e-13 1.83072e-13 -1.65389e-13 -4.24326e-13 4.85265e-13 -1.44329e-13 -3.6193e-13 -5.93794e-14 -2.23602e-13 9.73338e-13 -2.13012e-13 1.85032e-13 2.61289e-13 -8.17788e-13 5.41065e-13 -2.31301e-14 3.56957e-13 -4.24511e-14 -1.18288e-12 4.13157e-13 -7.49987e-13 -8.58117e-14 3.55384e-13 -1.20277e-12 4.97414e-13 8.79255e-14 7.06237e-14 3.56499e-13 -1.12264e-12 6.40794e-13 -1.28554e-13 -1.19026e-12 1.56209e-12 -1.12329e-12 4.78366e-14 6.30651e-14 -1.57936e-12 8.98128e-13 -1.48515e-12 1.21877e-13 0 0 4.08753e-15 1.08106e-14 -2.34723e-14 2.48534e-14 -3.25196e-14 -3.92534e-14 -6.97566e-15 2.72656e-15 3.54649e-14 -2.6154e-15 1.43498e-14 -1.16508e-13 4.68604e-14 -1.49448e-13 -1.51359e-13 -2.61048e-14 -1.41715e-13 -7.00247e-14 -8.71281e-15 -9.43436e-14 -3.96441e-15 -4.81964e-14 -1.05709e-13 -9.52178e-14 -8.97231e-14 -2.60332e-15 -7.97799e-14 -5.80867e-14 2.06412e-15 5.74549e-15 1.83702e-14 -3.86946e-14 -5.48153e-14 -1.07928e-13 -4.13297e-14 -6.4364e-14 1.80094e-14 -2.48992e-13 7.50158e-16 -2.26191e-13 -6.79463e-14 3.14692e-15 -1.5372e-13 -2.29035e-13 9.39049e-14 -1.84372e-13 -4.33124e-15 -3.31286e-14 1.74726e-13 8.01406e-14 2.94732e-14 1.36008e-13 -5.38073e-13 3.43066e-13 -1.40215e-13 -3.2117e-13 8.25341e-14 -2.46106e-13 -8.547e-14 -2.00453e-13 -1.48171e-14 -1.60231e-13 -1.33124e-13 5.56383e-14 -9.31065e-14 -1.31963e-13 1.99346e-13 -7.45843e-14 1.59206e-13 -1.09528e-13 -1.40394e-13 1.76444e-13 -1.31967e-13 1.8808e-13 4.05488e-13 4.56356e-12 5.88197e-11 7.66115e-10 9.01647e-09 9.46386e-08 8.7908e-07 7.15241e-06 5.03377e-05 0.000301634 0.00150801 0.00613347 0.0197569 0.0495739 0.0981556 0.161045 0.232732 0.310147 0.391504 0.476152 0.553436 0.628792 0.694951 0.762536 0.815718 0.864068 0.903709 0.919432 0.929843 0.936899 0.937418 0.936336 0.934332 0.932733 0.932004 0.932278 0.932343 0.930438 0.921833 0.902951 0.872116 0.817831 0.728594 0.602783 0.453784 0.304229 0.177753 0.0883387 0.0372864 0.0138272 0.00472631 0.00153863 0.000484129 0.000147991 4.40124e-05 1.27371e-05 3.58655e-06 9.82499e-07 2.61821e-07 6.78713e-08 1.71166e-08 4.19932e-09 1.00245e-09 2.32914e-10 5.23069e-11 1.16797e-11 2.59328e-12 7.77138e-14 2.89124e-13 1.56602e-13 -7.25449e-14 2.95028e-13 -2.20559e-13 2.4488e-13 -1.6833e-13 -3.58558e-13 5.46591e-13 -1.1734e-13 4.83491e-13 -6.61481e-13 -6.80329e-13 -2.54031e-13 -4.60717e-14 -2.32172e-13 -2.00748e-13 -7.50479e-13 -1.97343e-13 1.36768e-13 2.7593e-14 -4.58172e-13 2.88614e-13 -2.54761e-13 8.09472e-14 2.32123e-13 -2.15585e-13 5.57675e-13 1.59537e-13 -2.37508e-13 3.04728e-13 -5.0968e-13 5.04458e-13 1.31268e-13 -2.86804e-14 -6.84733e-13 -6.62489e-13 -1.83518e-13 -1.1584e-13 -2.71354e-13 2.56261e-13 -3.95839e-13 3.24631e-13 1.6721e-13 -2.88971e-13 1.46011e-14 2.39286e-14 -5.24771e-14 1.95651e-13 -3.98433e-13 -1.23347e-13 -7.03497e-13 -1.71031e-13 2.91436e-13 -9.1125e-13 -2.29019e-13 -1.34636e-13 0 0 -7.46555e-15 -7.8331e-15 -1.04559e-14 5.55852e-14 4.02207e-14 7.63035e-15 -8.55131e-15 2.59762e-14 -1.73016e-14 -6.1042e-14 -4.49642e-14 -1.20495e-13 2.97169e-14 -1.66994e-13 -6.55708e-14 -6.58941e-14 -7.78588e-14 1.43667e-15 -6.4958e-14 -8.42149e-14 -7.61597e-14 -9.89543e-14 -4.08974e-14 -2.13242e-13 -2.32617e-14 4.09689e-14 -6.30274e-14 -3.33492e-14 1.33447e-15 6.67308e-14 -4.34021e-14 -8.18985e-14 5.13344e-15 -1.88225e-13 -8.72603e-14 -1.18653e-13 -8.20032e-14 -2.08812e-13 5.24735e-14 -8.12467e-15 -3.11019e-14 8.3286e-15 -3.56046e-13 -1.40349e-13 -2.3303e-13 -3.10523e-13 2.61961e-13 1.27333e-13 4.2109e-14 -1.61383e-14 8.17774e-14 5.00483e-14 -3.44083e-13 2.07446e-15 -1.35734e-13 -4.37785e-13 7.47965e-14 -2.23932e-13 -1.04219e-13 2.84752e-14 -1.23053e-13 -5.61682e-14 -2.73744e-14 1.44577e-13 -8.31519e-14 -6.43653e-14 1.9348e-13 -1.34469e-13 4.9346e-14 1.17614e-13 -5.62115e-14 -4.39867e-14 -5.29791e-14 3.27178e-13 4.78101e-13 4.24384e-12 5.92639e-11 7.66687e-10 9.01563e-09 9.46386e-08 8.79081e-07 7.15241e-06 5.03377e-05 0.000301634 0.00150801 0.00613347 0.0197569 0.0495739 0.0981556 0.161045 0.232732 0.310147 0.391504 0.476152 0.553436 0.628792 0.694951 0.762536 0.815718 0.864068 0.903709 0.919432 0.929843 0.936899 0.937418 0.936336 0.934332 0.932733 0.932004 0.932278 0.932343 0.930438 0.921833 0.902951 0.872116 0.817831 0.728594 0.602783 0.453784 0.304229 0.177753 0.0883387 0.0372864 0.0138272 0.00472631 0.00153863 0.000484129 0.000147991 4.40124e-05 1.27371e-05 3.58655e-06 9.82499e-07 2.61821e-07 6.78714e-08 1.71164e-08 4.1993e-09 1.00266e-09 2.33247e-10 5.23678e-11 1.16971e-11 2.65076e-12 1.83172e-13 4.2411e-13 2.97846e-13 2.1387e-13 5.96916e-13 -2.2853e-13 4.04404e-13 -8.60331e-13 -2.76599e-13 5.47654e-13 -5.49439e-13 -9.95082e-14 -6.62383e-13 -4.21953e-13 -2.50426e-13 -4.42025e-13 -4.50696e-13 -1.37375e-13 1.75805e-13 -9.85013e-14 -6.93e-13 -2.00971e-13 -6.99946e-13 -2.42678e-13 5.43057e-13 3.46019e-13 2.9462e-13 -8.79031e-13 -1.7313e-13 2.31053e-13 7.29779e-14 6.80221e-13 -2.00396e-13 5.17496e-13 -2.0789e-13 -4.50685e-13 2.70992e-13 -6.77879e-13 -8.9851e-16 -9.28381e-13 -1.40443e-13 3.55696e-13 1.94294e-13 -8.48568e-14 2.4684e-14 -3.47135e-13 7.22002e-13 -4.44701e-13 6.79928e-13 -1.96719e-13 -9.16441e-13 3.67879e-13 -4.41285e-13 1.82958e-13 4.3132e-13 -5.35654e-13 -6.64931e-13 -5.89054e-13 0 0 -1.07627e-15 -9.57448e-15 8.64191e-14 -8.3144e-15 4.19974e-14 7.02304e-14 2.38306e-14 -3.12889e-14 -1.84186e-14 -2.4066e-14 -1.63416e-13 8.0597e-14 -2.9933e-13 4.41007e-14 -1.81226e-14 -2.11628e-13 4.53776e-14 -7.54368e-14 -8.94073e-14 -1.87821e-14 -1.1228e-13 -2.13359e-13 -1.16496e-13 1.64018e-13 1.89514e-14 -1.64665e-13 1.96868e-13 -7.16226e-14 2.53365e-14 -1.62222e-13 1.27922e-14 -1.96295e-13 -1.95506e-13 2.31642e-14 -1.5166e-13 -5.8495e-14 -2.51974e-13 2.67758e-13 -3.45058e-13 1.77059e-13 -1.88471e-13 -2.55002e-13 -4.73709e-14 6.14244e-14 -5.41e-13 8.70233e-14 -3.87568e-13 2.78111e-13 -1.88385e-14 1.97384e-13 5.70156e-14 -6.5532e-13 1.00896e-12 -8.25671e-13 -3.70795e-13 4.94843e-14 -7.49699e-13 3.50108e-13 -2.2667e-13 2.63813e-14 -5.29574e-14 1.40397e-13 3.09053e-13 -2.37394e-13 9.84867e-14 1.26706e-13 -3.07275e-13 2.84218e-13 -5.13733e-13 -2.16469e-13 3.63321e-13 -2.59804e-13 6.09356e-13 -3.61953e-13 1.37038e-12 4.15072e-12 5.85957e-11 7.67272e-10 9.01496e-09 9.46407e-08 8.7908e-07 7.15241e-06 5.03377e-05 0.000301634 0.00150801 0.00613347 0.0197569 0.0495739 0.0981556 0.161045 0.232732 0.310147 0.391504 0.476152 0.553436 0.628792 0.694951 0.762536 0.815718 0.864068 0.903709 0.919432 0.929843 0.936899 0.937418 0.936336 0.934332 0.932733 0.932004 0.932278 0.932343 0.930438 0.921833 0.902951 0.872116 0.817831 0.728594 0.602783 0.453784 0.304229 0.177753 0.0883387 0.0372864 0.0138272 0.00472631 0.00153863 0.000484129 0.000147991 4.40124e-05 1.27371e-05 3.58655e-06 9.82499e-07 2.6182e-07 6.78726e-08 1.71154e-08 4.1999e-09 1.00259e-09 2.32453e-10 5.31092e-11 1.1434e-11 2.085e-12 1.90942e-12 -2.82639e-13 3.36066e-13 6.17621e-13 -5.70491e-13 9.02636e-13 -3.33254e-13 9.85398e-14 3.01616e-14 -1.44162e-12 7.90296e-13 -8.17147e-13 2.21531e-13 -1.18796e-12 -1.91597e-13 -3.42729e-13 -7.48473e-13 -2.16787e-13 -2.10547e-13 2.08827e-13 -2.89961e-13 -3.01695e-13 6.00755e-13 -3.43389e-13 2.48754e-13 -1.57954e-13 -6.79892e-13 3.7588e-13 -9.59795e-13 4.15512e-13 6.78022e-13 -1.2071e-12 3.77079e-13 -2.63371e-13 2.47534e-13 -3.88083e-14 -6.1897e-13 7.24498e-13 -7.03334e-13 -6.64061e-13 5.60728e-13 -1.44906e-12 1.1355e-12 -2.66585e-14 1.33392e-13 3.61939e-13 -8.25612e-13 2.89252e-13 5.73036e-13 -1.21635e-12 1.10283e-12 -8.6963e-13 6.12178e-13 1.80758e-13 -1.66674e-12 1.03635e-12 -1.86765e-12 -1.3124e-13 0 0 2.09523e-14 7.77259e-14 -5.82296e-15 9.9131e-14 7.23831e-15 -2.21448e-14 -1.96843e-15 4.11965e-14 -3.5938e-14 -3.39864e-14 7.94548e-14 -3.20272e-13 3.69282e-14 -1.58143e-13 -9.20216e-14 1.82607e-13 -3.45638e-13 4.6478e-14 -1.46672e-13 -1.82705e-13 3.22038e-14 -2.93789e-14 -8.72341e-14 -9.14281e-14 2.82291e-14 3.08403e-13 -1.55497e-14 4.42816e-14 -2.08276e-13 8.42769e-14 -4.24643e-13 1.53901e-14 -2.3815e-13 -2.66309e-13 3.66685e-14 8.51826e-14 1.96097e-13 -4.56259e-13 1.50949e-13 -4.46639e-13 -1.10865e-13 -4.35979e-14 -7.34877e-14 -8.13138e-14 3.87495e-13 -5.53136e-13 6.92249e-14 -3.92537e-13 7.14121e-14 -8.34962e-14 3.14836e-13 7.56371e-13 -1.10693e-12 -7.33798e-14 -9.44556e-14 -6.14238e-13 3.73767e-13 -6.38369e-13 -1.00918e-13 9.99479e-15 1.62867e-13 2.83274e-13 -2.39009e-14 2.67133e-13 -1.49163e-13 -1.0532e-13 6.86093e-14 -4.4251e-13 1.17302e-13 -2.67297e-13 -1.0452e-12 8.59123e-13 1.7085e-13 8.48936e-13 3.49535e-13 4.18627e-12 5.90954e-11 7.66003e-10 9.01752e-09 9.46389e-08 8.79082e-07 7.15241e-06 5.03377e-05 0.000301634 0.00150801 0.00613347 0.0197569 0.0495739 0.0981556 0.161045 0.232732 0.310147 0.391504 0.476152 0.553436 0.628792 0.694951 0.762536 0.815718 0.864068 0.903709 0.919432 0.929843 0.936899 0.937418 0.936336 0.934332 0.932733 0.932004 0.932278 0.932343 0.930438 0.921833 0.902951 0.872116 0.817831 0.728594 0.602783 0.453784 0.304229 0.177753 0.0883387 0.0372864 0.0138272 0.00472631 0.00153863 0.000484129 0.000147991 4.40124e-05 1.27371e-05 3.58655e-06 9.82499e-07 2.61822e-07 6.78715e-08 1.71169e-08 4.19888e-09 1.00216e-09 2.33423e-10 5.19307e-11 1.22094e-11 2.53305e-12 2.08452e-13 1.05806e-12 2.82911e-13 -8.32242e-13 1.49579e-12 -1.25137e-12 8.49646e-13 4.76795e-13 -1.13761e-12 8.03107e-13 -1.65335e-12 1.31212e-12 -6.30761e-13 -6.10088e-13 -7.93379e-13 -1.17949e-12 2.50313e-13 -6.37814e-13 -7.63675e-13 -3.81415e-13 9.7019e-13 9.40191e-13 -3.2672e-13 5.71386e-13 -1.26504e-13 -1.6654e-13 -5.31142e-13 -5.10577e-13 2.10691e-13 2.79396e-13 -1.96298e-13 -3.40206e-13 -1.26702e-12 -4.6054e-13 9.27707e-15 3.84887e-13 3.38537e-13 -6.55858e-13 -4.83535e-14 -2.25245e-13 -1.1493e-12 1.17873e-12 -5.48195e-13 7.10701e-13 3.02384e-13 -7.37184e-13 3.4324e-13 -7.46113e-13 -8.70629e-14 1.5672e-12 -2.02119e-12 6.48187e-13 -1.20669e-13 -7.1764e-13 2.19054e-13 -2.73484e-12 9.19903e-13 -6.99257e-13 0
				</DataArray>
				<DataArray Name="VitesseY" type="Float32" format="ascii">