<?xml version="1.0"?>
<VTKFile type="PolyData">
	<PolyData>
		<Piece NumberOfPoints="1206" NumberOfPolys="1000">
			<Points>
				<DataArray type="Float32" NumberOfComponents="3" format="ascii">
 0 0 0 0.005 0 0 0.01 0 0 0.015 0 0 0.02 0 0 0.025 0 0 0.03 0 0 0.035 0 0 0.04 0 0 0.045 0 0 0.05 0 0 0.055 0 0 0.06 0 0 0.065 0 0 0.07 0 0 0.075 0 0 0.08 0 0 0.085 0 0 0.09 0 0 0.095 0 0 0.1 0 0 0.105 0 0 0.11 0 0 0.115 0 0 0.12 0 0 0.125 0 0 0.13 0 0 0.135 0 0 0.14 0 0 0.145 0 0 0.15 0 0 0.155 0 0 0.16 0 0 0.165 0 0 0.17 0 0 0.175 0 0 0.18 0 0 0.185 0 0 0.19 0 0 0.195 0 0 0.2 0 0 0.205 0 0 0.21 0 0 0.215 0 0 0.22 0 0 0.225 0 0 0.23 0 0 0.235 0 0 0.24 0 0 0.245 0 0 0.25 0 0 0.255 0 0 0.26 0 0 0.265 0 0 0.27 0 0 0.275 0 0 0.28 0 0 0.285 0 0 0.29 0 0 0.295 0 0 0.3 0 0 0.305 0 0 0.31 0 0 0.315 0 0 0.32 0 0 0.325 0 0 0.33 0 0 0.335 0 0 0.34 0 0 0.345 0 0 0.35 0 0 0.355 0 0 0.36 0 0 0.365 0 0 0.37 0 0 0.375 0 0 0.38 0 0 0.385 0 0 0.39 0 0 0.395 0 0 0.4 0 0 0.405 0 0 0.41 0 0 0.415 0 0 0.42 0 0 0.425 0 0 0.43 0 0 0.435 0 0 0.44 0 0 0.445 0 0 0.45 0 0 0.455 0 0 0.46 0 0 0.465 0 0 0.47 0 0 0.475 0 0 0.48 0 0 0.485 0 0 0.49 0 0 0.495 0 0 0.5 0 0 0.505 0 0 0.51 0 0 0.515 0 0 0.52 0 0 0.525 0 0 0.53 0 0 0.535 0 0 0.54 0 0 0.545 0 0 0.55 0 0 0.555 0 0 0.56 0 0 0.565 0 0 0.57 0 0 0.575 0 0 0.58 0 0 0.585 0 0 0.59 0 0 0.595 0 0 0.6 0 0 0.605 0 0 0.61 0 0 0.615 0 0 0.62 0 0 0.625 0 0 0.63 0 0 0.635 0 0 0.64 0 0 0.645 0 0 0.65 0 0 0.655 0 0 0.66 0 0 0.665 0 0 0.67 0 0 0.675 0 0 0.68 0 0 0.685 0 0 0.69 0 0 0.695 0 0 0.7 0 0 0.705 0 0 0.71 0 0 0.715 0 0 0.72 0 0 0.725 0 0 0.73 0 0 0.735 0 0 0.74 0 0 0.745 0 0 0.75 0 0 0.755 0 0 0.76 0 0 0.765 0 0 0.77 0 0 0.775 0 0 0.78 0 0 0.785 0 0 0.79 0 0 0.795 0 0 0.8 0 0 0.805 0 0 0.81 0 0 0.815 0 0 0.82 0 0 0.825 0 0 0.83 0 0 0.835 0 0 0.84 0 0 0.845 0 0 0.85 0 0 0.855 0 0 0.86 0 0 0.865 0 0 0.87 0 0 0.875 0 0 0.88 0 0 0.885 0 0 0.89 0 0 0.895 0 0 0.9 0 0 0.905 0 0 0.91 0 0 0.915 0 0 0.92 0 0 0.925 0 0 0.93 0 0 0.935 0 0 0.94 0 0 0.945 0 0 0.95 0 0 0.955 0 0 0.96 0 0 0.965 0 0 0.97 0 0 0.975 0 0 0.98 0 0 0.985 0 0 0.99 0 0 0.995 0 0 1 0 0 0 0.02 0 0.005 0.02 0 0.01 0.02 0 0.015 0.02 0 0.02 0.02 0 0.025 0.02 0 0.03 0.02 0 0.035 0.02 0 0.04 0.02 0 0.045 0.02 0 0.05 0.02 0 0.055 0.02 0 0.06 0.02 0 0.065 0.02 0 0.07 0.02 0 0.075 0.02 0 0.08 0.02 0 0.085 0.02 0 0.09 0.02 0 0.095 0.02 0 0.1 0.02 0 0.105 0.02 0 0.11 0.02 0 0.115 0.02 0 0.12 0.02 0 0.125 0.02 0 0.13 0.02 0 0.135 0.02 0 0.14 0.02 0 0.145 0.02 0 0.15 0.02 0 0.155 0.02 0 0.16 0.02 0 0.165 0.02 0 0.17 0.02 0 0.175 0.02 0 0.18 0.02 0 0.185 0.02 0 0.19 0.02 0 0.195 0.02 0 0.2 0.02 0 0.205 0.02 0 0.21 0.02 0 0.215 0.02 0 0.22 0.02 0 0.225 0.02 0 0.23 0.02 0 0.235 0.02 0 0.24 0.02 0 0.245 0.02 0 0.25 0.02 0 0.255 0.02 0 0.26 0.02 0 0.265 0.02 0 0.27 0.02 0 0.275 0.02 0 0.28 0.02 0 0.285 0.02 0 0.29 0.02 0 0.295 0.02 0 0.3 0.02 0 0.305 0.02 0 0.31 0.02 0 0.315 0.02 0 0.32 0.02 0 0.325 0.02 0 0.33 0.02 0 0.335 0.02 0 0.34 0.02 0 0.345 0.02 0 0.35 0.02 0 0.355 0.02 0 0.36 0.02 0 0.365 0.02 0 0.37 0.02 0 0.375 0.02 0 0.38 0.02 0 0.385 0.02 0 0.39 0.02 0 0.395 0.02 0 0.4 0.02 0 0.405 0.02 0 0.41 0.02 0 0.415 0.02 0 0.42 0.02 0 0.425 0.02 0 0.43 0.02 0 0.435 0.02 0 0.44 0.02 0 0.445 0.02 0 0.45 0.02 0 0.455 0.02 0 0.46 0.02 0 0.465 0.02 0 0.47 0.02 0 0.475 0.02 0 0.48 0.02 0 0.485 0.02 0 0.49 0.02 0 0.495 0.02 0 0.5 0.02 0 0.505 0.02 0 0.51 0.02 0 0.515 0.02 0 0.52 0.02 0 0.525 0.02 0 0.53 0.02 0 0.535 0.02 0 0.54 0.02 0 0.545 0.02 0 0.55 0.02 0 0.555 0.02 0 0.56 0.02 0 0.565 0.02 0 0.57 0.02 0 0.575 0.02 0 0.58 0.02 0 0.585 0.02 0 0.59 0.02 0 0.595 0.02 0 0.6 0.02 0 0.605 0.02 0 0.61 0.02 0 0.615 0.02 0 0.62 0.02 0 0.625 0.02 0 0.63 0.02 0 0.635 0.02 0 0.64 0.02 0 0.645 0.02 0 0.65 0.02 0 0.655 0.02 0 0.66 0.02 0 0.665 0.02 0 0.67 0.02 0 0.675 0.02 0 0.68 0.02 0 0.685 0.02 0 0.69 0.02 0 0.695 0.02 0 0.7 0.02 0 0.705 0.02 0 0.71 0.02 0 0.715 0.02 0 0.72 0.02 0 0.725 0.02 0 0.73 0.02 0 0.735 0.02 0 0.74 0.02 0 0.745 0.02 0 0.75 0.02 0 0.755 0.02 0 0.76 0.02 0 0.765 0.02 0 0.77 0.02 0 0.775 0.02 0 0.78 0.02 0 0.785 0.02 0 0.79 0.02 0 0.795 0.02 0 0.8 0.02 0 0.805 0.02 0 0.81 0.02 0 0.815 0.02 0 0.82 0.02 0 0.825 0.02 0 0.83 0.02 0 0.835 0.02 0 0.84 0.02 0 0.845 0.02 0 0.85 0.02 0 0.855 0.02 0 0.86 0.02 0 0.865 0.02 0 0.87 0.02 0 0.875 0.02 0 0.88 0.02 0 0.885 0.02 0 0.89 0.02 0 0.895 0.02 0 0.9 0.02 0 0.905 0.02 0 0.91 0.02 0 0.915 0.02 0 0.92 0.02 0 0.925 0.02 0 0.93 0.02 0 0.935 0.02 0 0.94 0.02 0 0.945 0.02 0 0.95 0.02 0 0.955 0.02 0 0.96 0.02 0 0.965 0.02 0 0.97 0.02 0 0.975 0.02 0 0.98 0.02 0 0.985 0.02 0 0.99 0.02 0 0.995 0.02 0 1 0.02 0 0 0.04 0 0.005 0.04 0 0.01 0.04 0 0.015 0.04 0 0.02 0.04 0 0.025 0.04 0 0.03 0.04 0 0.035 0.04 0 0.04 0.04 0 0.045 0.04 0 0.05 0.04 0 0.055 0.04 0 0.06 0.04 0 0.065 0.04 0 0.07 0.04 0 0.075 0.04 0 0.08 0.04 0 0.085 0.04 0 0.09 0.04 0 0.095 0.04 0 0.1 0.04 0 0.105 0.04 0 0.11 0.04 0 0.115 0.04 0 0.12 0.04 0 0.125 0.04 0 0.13 0.04 0 0.135 0.04 0 0.14 0.04 0 0.145 0.04 0 0.15 0.04 0 0.155 0.04 0 0.16 0.04 0 0.165 0.04 0 0.17 0.04 0 0.175 0.04 0 0.18 0.04 0 0.185 0.04 0 0.19 0.04 0 0.195 0.04 0 0.2 0.04 0 0.205 0.04 0 0.21 0.04 0 0.215 0.04 0 0.22 0.04 0 0.225 0.04 0 0.23 0.04 0 0.235 0.04 0 0.24 0.04 0 0.245 0.04 0 0.25 0.04 0 0.255 0.04 0 0.26 0.04 0 0.265 0.04 0 0.27 0.04 0 0.275 0.04 0 0.28 0.04 0 0.285 0.04 0 0.29 0.04 0 0.295 0.04 0 0.3 0.04 0 0.305 0.04 0 0.31 0.04 0 0.315 0.04 0 0.32 0.04 0 0.325 0.04 0 0.33 0.04 0 0.335 0.04 0 0.34 0.04 0 0.345 0.04 0 0.35 0.04 0 0.355 0.04 0 0.36 0.04 0 0.365 0.04 0 0.37 0.04 0 0.375 0.04 0 0.38 0.04 0 0.385 0.04 0 0.39 0.04 0 0.395 0.04 0 0.4 0.04 0 0.405 0.04 0 0.41 0.04 0 0.415 0.04 0 0.42 0.04 0 0.425 0.04 0 0.43 0.04 0 0.435 0.04 0 0.44 0.04 0 0.445 0.04 0 0.45 0.04 0 0.455 0.04 0 0.46 0.04 0 0.465 0.04 0 0.47 0.04 0 0.475 0.04 0 0.48 0.04 0 0.485 0.04 0 0.49 0.04 0 0.495 0.04 0 0.5 0.04 0 0.505 0.04 0 0.51 0.04 0 0.515 0.04 0 0.52 0.04 0 0.525 0.04 0 0.53 0.04 0 0.535 0.04 0 0.54 0.04 0 0.545 0.04 0 0.55 0.04 0 0.555 0.04 0 0.56 0.04 0 0.565 0.04 0 0.57 0.04 0 0.575 0.04 0 0.58 0.04 0 0.585 0.04 0 0.59 0.04 0 0.595 0.04 0 0.6 0.04 0 0.605 0.04 0 0.61 0.04 0 0.615 0.04 0 0.62 0.04 0 0.625 0.04 0 0.63 0.04 0 0.635 0.04 0 0.64 0.04 0 0.645 0.04 0 0.65 0.04 0 0.655 0.04 0 0.66 0.04 0 0.665 0.04 0 0.67 0.04 0 0.675 0.04 0 0.68 0.04 0 0.685 0.04 0 0.69 0.04 0 0.695 0.04 0 0.7 0.04 0 0.705 0.04 0 0.71 0.04 0 0.715 0.04 0 0.72 0.04 0 0.725 0.04 0 0.73 0.04 0 0.735 0.04 0 0.74 0.04 0 0.745 0.04 0 0.75 0.04 0 0.755 0.04 0 0.76 0.04 0 0.765 0.04 0 0.77 0.04 0 0.775 0.04 0 0.78 0.04 0 0.785 0.04 0 0.79 0.04 0 0.795 0.04 0 0.8 0.04 0 0.805 0.04 0 0.81 0.04 0 0.815 0.04 0 0.82 0.04 0 0.825 0.04 0 0.83 0.04 0 0.835 0.04 0 0.84 0.04 0 0.845 0.04 0 0.85 0.04 0 0.855 0.04 0 0.86 0.04 0 0.865 0.04 0 0.87 0.04 0 0.875 0.04 0 0.88 0.04 0 0.885 0.04 0 0.89 0.04 0 0.895 0.04 0 0.9 0.04 0 0.905 0.04 0 0.91 0.04 0 0.915 0.04 0 0.92 0.04 0 0.925 0.04 0 0.93 0.04 0 0.935 0.04 0 0.94 0.04 0 0.945 0.04 0 0.95 0.04 0 0.955 0.04 0 0.96 0.04 0 0.965 0.04 0 0.97 0.04 0 0.975 0.04 0 0.98 0.04 0 0.985 0.04 0 0.99 0.04 0 0.995 0.04 0 1 0.04 0 0 0.06 0 0.005 0.06 0 0.01 0.06 0 0.015 0.06 0 0.02 0.06 0 0.025 0.06 0 0.03 0.06 0 0.035 0.06 0 0.04 0.06 0 0.045 0.06 0 0.05 0.06 0 0.055 0.06 0 0.06 0.06 0 0.065 0.06 0 0.07 0.06 0 0.075 0.06 0 0.08 0.06 0 0.085 0.06 0 0.09 0.06 0 0.095 0.06 0 0.1 0.06 0 0.105 0.06 0 0.11 0.06 0 0.115 0.06 0 0.12 0.06 0 0.125 0.06 0 0.13 0.06 0 0.135 0.06 0 0.14 0.06 0 0.145 0.06 0 0.15 0.06 0 0.155 0.06 0 0.16 0.06 0 0.165 0.06 0 0.17 0.06 0 0.175 0.06 0 0.18 0.06 0 0.185 0.06 0 0.19 0.06 0 0.195 0.06 0 0.2 0.06 0 0.205 0.06 0 0.21 0.06 0 0.215 0.06 0 0.22 0.06 0 0.225 0.06 0 0.23 0.06 0 0.235 0.06 0 0.24 0.06 0 0.245 0.06 0 0.25 0.06 0 0.255 0.06 0 0.26 0.06 0 0.265 0.06 0 0.27 0.06 0 0.275 0.06 0 0.28 0.06 0 0.285 0.06 0 0.29 0.06 0 0.295 0.06 0 0.3 0.06 0 0.305 0.06 0 0.31 0.06 0 0.315 0.06 0 0.32 0.06 0 0.325 0.06 0 0.33 0.06 0 0.335 0.06 0 0.34 0.06 0 0.345 0.06 0 0.35 0.06 0 0.355 0.06 0 0.36 0.06 0 0.365 0.06 0 0.37 0.06 0 0.375 0.06 0 0.38 0.06 0 0.385 0.06 0 0.39 0.06 0 0.395 0.06 0 0.4 0.06 0 0.405 0.06 0 0.41 0.06 0 0.415 0.06 0 0.42 0.06 0 0.425 0.06 0 0.43 0.06 0 0.435 0.06 0 0.44 0.06 0 0.445 0.06 0 0.45 0.06 0 0.455 0.06 0 0.46 0.06 0 0.465 0.06 0 0.47 0.06 0 0.475 0.06 0 0.48 0.06 0 0.485 0.06 0 0.49 0.06 0 0.495 0.06 0 0.5 0.06 0 0.505 0.06 0 0.51 0.06 0 0.515 0.06 0 0.52 0.06 0 0.525 0.06 0 0.53 0.06 0 0.535 0.06 0 0.54 0.06 0 0.545 0.06 0 0.55 0.06 0 0.555 0.06 0 0.56 0.06 0 0.565 0.06 0 0.57 0.06 0 0.575 0.06 0 0.58 0.06 0 0.585 0.06 0 0.59 0.06 0 0.595 0.06 0 0.6 0.06 0 0.605 0.06 0 0.61 0.06 0 0.615 0.06 0 0.62 0.06 0 0.625 0.06 0 0.63 0.06 0 0.635 0.06 0 0.64 0.06 0 0.645 0.06 0 0.65 0.06 0 0.655 0.06 0 0.66 0.06 0 0.665 0.06 0 0.67 0.06 0 0.675 0.06 0 0.68 0.06 0 0.685 0.06 0 0.69 0.06 0 0.695 0.06 0 0.7 0.06 0 0.705 0.06 0 0.71 0.06 0 0.715 0.06 0 0.72 0.06 0 0.725 0.06 0 0.73 0.06 0 0.735 0.06 0 0.74 0.06 0 0.745 0.06 0 0.75 0.06 0 0.755 0.06 0 0.76 0.06 0 0.765 0.06 0 0.77 0.06 0 0.775 0.06 0 0.78 0.06 0 0.785 0.06 0 0.79 0.06 0 0.795 0.06 0 0.8 0.06 0 0.805 0.06 0 0.81 0.06 0 0.815 0.06 0 0.82 0.06 0 0.825 0.06 0 0.83 0.06 0 0.835 0.06 0 0.84 0.06 0 0.845 0.06 0 0.85 0.06 0 0.855 0.06 0 0.86 0.06 0 0.865 0.06 0 0.87 0.06 0 0.875 0.06 0 0.88 0.06 0 0.885 0.06 0 0.89 0.06 0 0.895 0.06 0 0.9 0.06 0 0.905 0.06 0 0.91 0.06 0 0.915 0.06 0 0.92 0.06 0 0.925 0.06 0 0.93 0.06 0 0.935 0.06 0 0.94 0.06 0 0.945 0.06 0 0.95 0.06 0 0.955 0.06 0 0.96 0.06 0 0.965 0.06 0 0.97 0.06 0 0.975 0.06 0 0.98 0.06 0 0.985 0.06 0 0.99 0.06 0 0.995 0.06 0 1 0.06 0 0 0.08 0 0.005 0.08 0 0.01 0.08 0 0.015 0.08 0 0.02 0.08 0 0.025 0.08 0 0.03 0.08 0 0.035 0.08 0 0.04 0.08 0 0.045 0.08 0 0.05 0.08 0 0.055 0.08 0 0.06 0.08 0 0.065 0.08 0 0.07 0.08 0 0.075 0.08 0 0.08 0.08 0 0.085 0.08 0 0.09 0.08 0 0.095 0.08 0 0.1 0.08 0 0.105 0.08 0 0.11 0.08 0 0.115 0.08 0 0.12 0.08 0 0.125 0.08 0 0.13 0.08 0 0.135 0.08 0 0.14 0.08 0 0.145 0.08 0 0.15 0.08 0 0.155 0.08 0 0.16 0.08 0 0.165 0.08 0
[...]
			<PointData Scalars="VitesseX">
				<DataArray Name="VitesseX" type="Float32" format="ascii">
 0 1.26094e-14 -5.34845e-14 6.04721e-14 -2.1566e-14 -4.63494e-14 -1.05281e-13 1.38674e-14 -3.81068e-14 2.7008e-14 -5.42293e-14 -1.4568e-13 1.68238e-13 -2.62465e-13 4.02468e-14 -4.29579e-14 -9.6223e-14 1.45792e-13 -1.03625e-13 -3.05514e-14 -1.78281e-14 7.69924e-14 6.93546e-14 -2.08729e-13 -2.64278e-13 1.16125e-14 3.09208e-13 2.10757e-13 -1.63763e-13 -4.82013e-15 -4.69437e-13 -6.47335e-14 1.28427e-14 2.00431e-13 1.59379e-14 -1.80596e-13 2.69988e-13 -2.81838e-13 -5.862e-14 -3.92716e-13 3.40855e-13 2.7521e-14 -1.70797e-13 -2.15212e-13 1.52901e-13 5.51778e-14 7.8431e-13 -6.84603e-13 -6.7095e-15 -5.29379e-13 -5.97557e-14 5.92068e-13 -4.4833e-13 2.06539e-13 -1.05248e-12 3.5032e-13 8.69263e-13 -7.43929e-13 6.96808e-13 -5.84589e-13 3.75096e-15 2.16439e-13 -3.61038e-13 4.68228e-13 -2.29807e-13 -5.80361e-14 7.5344e-14 -7.82813e-13 7.15133e-13 2.53108e-14 -2.91505e-13 5.29045e-13 -1.39042e-12 9.35373e-13 -2.3223e-14 1.02449e-13 -3.20329e-13 -3.84163e-13 9.86573e-13 -5.52248e-13 1.5351e-13 1.94723e-13 -6.57556e-13 1.41605e-13 -7.49483e-13 1.05778e-12 2.37674e-12 5.94666e-11 1.79377e-09 4.48032e-08 9.21554e-07 1.52549e-05 0.000197111 0.0019058 0.0129978 0.0582976 0.166098 0.326835 0.525369 0.671388 0.809873 0.867468 0.921324 0.941783 0.941943 0.897245 0.789062 0.641596 0.459491 0.277499 0.136157 0.0516286 0.0153145 0.00384719 0.000874683 0.000184984 3.67043e-05 6.85349e-06 1.2063e-06 2.00438e-07 3.14838e-08 4.68139e-09 6.60408e-10 8.84503e-11 1.15959e-11 1.23922e-12 -9.50697e-13 6.23127e-13 1.62126e-13 4.8735e-13 -2.15224e-13 -1.06502e-12 5.96779e-13 8.4496e-14 1.7117e-13 -7.82556e-13 -1.62986e-12 3.96465e-13 6.27094e-13 1.14315e-13 -1.24139e-13 -4.10757e-13 -6.14986e-13 -1.64553e-13 1.31903e-12 1.82471e-13 -1.4264e-13 4.06531e-13 3.67075e-14 1.21e-12 -7.95117e-13 -3.05004e-13 2.19262e-13 -4.88421e-13 1.0193e-12 7.9198e-14 -1.25392e-12 1.07894e-13 5.70622e-13 7.63492e-13 -8.03e-13 -2.01439e-12 4.19905e-13 9.33874e-13 7.98982e-13 -7.8024e-13 -1.47318e-12 8.42715e-13 7.82619e-14 -2.21916e-13 8.87261e-13 4.45743e-13 4.83523e-14 -1.17667e-12 3.76443e-13 8.86068e-13 1.02092e-13 7.02189e-14 -9.78174e-13 -1.38866e-13 8.92295e-13 1.97431e-13 -2.08395e-13 -1.28254e-12 1.46139e-13 3.90176e-13 -6.75349e-13 -7.81589e-13 -1.53533e-12 2.4792e-13 2.08512e-12 -8.68808e-13 -3.78643e-13 -1.64922e-12 2.22412e-12 2.92732e-13 -1.21865e-12 3.36614e-13 7.97087e-13 1.93798e-12 0 0 -2.6417e-14 1.19538e-14 -5.83822e-14 -1.19263e-14 -5.97703e-15 -4.69411e-15 -8.89138e-14 -3.46868e-14 -8.26308e-14 -9.06532e-14 6.20319e-14 -1.48805e-13 8.4451e-14 -1.93311e-13 1.48983e-14 6.74503e-14 -2.38123e-13 8.5728e-14 5.18277e-14 6.21316e-14 -2.02532e-14 -1.07981e-13 -7.96215e-14 -8.41573e-14 -3.05675e-14 1.65148e-13 1.64493e-14 9.98445e-14 -1.88706e-13 -6.49187e-14 -3.88349e-13 -2.88152e-14 1.71006e-13 9.82276e-14 7.44239e-14 -3.23404e-13 1.30375e-14 -2.78576e-13 2.27748e-13 -1.23839e-13 7.7074e-14 -3.13119e-14 -8.96885e-15 -1.41989e-13 2.94192e-13 -3.78973e-13 3.3565e-13 -4.39554e-13 1.05537e-13 -1.05421e-13 -4.67293e-13 2.10861e-13 -6.26073e-13 4.44518e-13 1.06493e-13 -4.23225e-13 6.67781e-13 -5.51745e-13 3.7114e-13 -2.05368e-13 -1.75375e-13 4.6934e-13 -1.33475e-13 9.65887e-14 -1.23526e-13 -3.45541e-13 2.64727e-13 -1.23779e-13 -2.24641e-13 3.04758e-13 -5.79319e-13 4.22813e-13 -5.95645e-13 3.66772e-14 -1.28693e-13 3.25166e-13 2.12629e-13 -6.02598e-13 5.56909e-13 -4.67885e-13 -1.07609e-14 4.00823e-13 -7.0856e-13 2.28674e-13 3.36589e-13 1.48895e-12 6.09615e-11 1.79449e-09 4.48016e-08 9.21555e-07 1.52549e-05 0.000197111 0.0019058 0.0129978 0.0582976 0.166098 0.326835 0.525369 0.671388 0.809873 0.867468 0.921324 0.941783 0.941943 0.897245 0.789062 0.641596 0.459491 0.277499 0.136157 0.0516286 0.0153145 0.00384719 0.000874683 0.000184984 3.67043e-05 6.85349e-06 1.2063e-06 2.00437e-07 3.14847e-08 4.68158e-09 6.59806e-10 8.8415e-11 1.0948e-11 1.47426e-12 5.2575e-14 9.93935e-14 2.41588e-13 -3.67551e-13 -2.92094e-15 -3.11362e-14 -3.88579e-14 2.35924e-13 -6.37787e-13 -3.2442e-13 -4.02745e-13 -4.46163e-13 3.87462e-13 3.43505e-13 -1.31436e-13 -1.99516e-13 -3.81234e-13 -2.38216e-13 2.64146e-16 6.27962e-13 9.24027e-13 -2.02387e-13 2.24509e-13 -3.62557e-13 6.07533e-13 7.94091e-14 -6.38922e-13 5.39451e-13 -3.69414e-13 1.19699e-13 2.54399e-13 -1.28812e-14 -1.42583e-13 -7.32929e-13 3.74946e-13 1.16081e-13 -2.83601e-13 -6.04719e-13 -4.3109e-13 3.13655e-13 2.10858e-13 -1.8701e-13 2.86583e-13 -8.51263e-14 2.28898e-13 4.34601e-14 1.33221e-13 7.49619e-13 -4.54639e-13 -9.73276e-14 2.26743e-14 1.15101e-13 7.56015e-13 -4.1169e-13 -3.31155e-13 -1.81041e-13 -1.29798e-13 8.62547e-13 -8.83816e-13 -7.11401e-13 -6.35149e-13 -9.84833e-13 4.46254e-13 1.24087e-13 -7.25337e-13 9.23791e-13 -5.79758e-13 1.02231e-13 -1.33662e-12 2.76734e-13 1.6789e-12 7.71776e-14 1.12392e-12 -9.42961e-13 0 0 -2.79312e-14 -1.58819e-14 -2.05275e-14 -8.96962e-14 -1.33418e-14 3.93473e-15 -6.21934e-14 -1.26752e-13 -3.92246e-14 -4.14028e-14 -1.21496e-13 1.52913e-14 2.15586e-14 1.09333e-15 -7.7752e-14 -7.95241e-14 -3.18776e-15 -2.35828e-14 2.93507e-14 2.30269e-14 -6.39183e-14 -2.72485e-13 2.0772e-14 1.07599e-13 -2.4903e-14 -9.15086e-15 -1.19526e-14 2.42104e-14 -5.91399e-14 -2.16718e-13 -1.72031e-13 -2.41817e-13 6.77287e-14 3.31311e-13 -6.91031e-14 -6.52345e-14 -2.51726e-13 2.73207e-14 -4.3573e-14 5.04984e-14 -2.62223e-13 5.58639e-14 6.53771e-14 7.65225e-14 -1.50854e-13 -1.04731e-13 -2.67129e-13 -7.60109e-14 -7.58254e-14 -5.89664e-15 -3.24698e-13 -3.47057e-13 2.27315e-13 4.36594e-13 -8.98749e-14 -5.13544e-13 -4.09082e-13 5.97661e-13 2.83742e-13 -1.2731e-13 -2.05493e-13 3.85074e-13 2.44063e-13 -1.09748e-13 -2.74603e-13 -1.32346e-13 1.32887e-13 9.09353e-15 -4.47668e-13 -4.1657e-13 2.95998e-13 3.32561e-13 -3.66874e-13 -7.27618e-13 2.11582e-13 5.23268e-13 -2.61983e-13 -4.85007e-13 -6.06404e-13 7.09663e-13 -3.6648e-13 2.14059e-13 8.37088e-13 -1.0475e-13 -1.06525e-12 1.6324e-12 6.1342e-11 1.7944e-09 4.48026e-08 9.21553e-07 1.52549e-05 0.000197111 0.0019058 0.0129978 0.0582976 0.166098 0.326835 0.525369 0.671388 0.809873 0.867468 0.921324 0.941783 0.941943 0.897245 0.789062 0.641596 0.459491 0.277499 0.136157 0.0516286 0.0153145 0.00384719 0.000874683 0.000184984 3.67043e-05 6.85349e-06 1.2063e-06 2.00437e-07 3.1484e-08 4.68245e-09 6.59846e-10 8.78716e-11 1.09378e-11 7.02805e-13 1.41016e-12 5.98114e-15 -5.5271e-13 -2.3897e-13 -7.34229e-13 1.41863e-12 -1.0063e-13 -5.1143e-13 -2.09377e-13 -9.28684e-13 8.25365e-13 -4.19216e-13 -7.82962e-13 1.72242e-13 -3.4915e-13 5.16701e-13 9.26136e-13 -1.10678e-12 -8.96994e-13 1.17561e-12 3.18839e-14 1.10983e-12 -5.52346e-13 -4.51853e-13 5.51421e-13 -4.92669e-13 1.10808e-12 -2.81187e-13 -4.66169e-13 -1.00385e-12 1.16358e-12 5.50173e-13 -3.27679e-13 -7.85081e-13 -1.62859e-13 9.40674e-13 -6.40324e-13 -8.85827e-13 -4.47185e-13 2.87194e-13 1.07322e-12 -5.92307e-13 -6.03284e-13 5.84899e-13 -3.8433e-13 6.29637e-13 5.95566e-13 -3.27806e-13 -5.09532e-14 -7.19695e-13 8.39577e-13 7.10387e-13 -3.82592e-13 1.46584e-13 -7.60189e-13 4.3495e-13 5.35688e-13 -7.40611e-13 -2.09086e-13 -1.40271e-12 -1.86138e-13 1.51401e-13 -1.03068e-12 8.32575e-13 -1.23788e-12 -2.08108e-13 1.88274e-12 -5.33193e-13 -2.0115e-12 5.59992e-13 1.3235e-12 1.57609e-12 -1.46773e-12 -2.81862e-14 0 0 3.43259e-14 -1.93986e-14 -8.47803e-15 -2.35927e-14 -6.70419e-14 -1.34622e-13 -9.54445e-14 -6.62932e-14 -7.08108e-14 1.36515e-14 -4.47284e-14 1.03193e-13 -9.63923e-14 -5.92902e-14 -3.52668e-14 -1.45702e-13 4.62336e-16 8.91201e-15 -1.14149e-13 -1.85079e-13 1.10117e-14 1.18612e-13 -3.30948e-14 -1.57832e-13 -4.01973e-15 1.46353e-13 -6.26824e-14 -2.06567e-13 6.05193e-14 -1.34201e-13 -2.3713e-13 -2.98077e-14 6.3347e-14 1.63909e-14 8.05981e-14 2.72896e-13 -1.3505e-13 -1.44336e-13 -3.41059e-13 -6.86784e-14 -1.99038e-13 3.25344e-14 -1.46492e-13 2.74228e-13 1.64883e-13 9.92343e-14 -5.44123e-13 -3.20565e-13 -5.28022e-13 1.28813e-13 4.79056e-13 -4.31375e-14 -3.83794e-13 -2.71883e-13 2.61207e-13 9.04619e-14 -1.92706e-14 1.02282e-13 -3.32327e-13 -2.08711e-13 1.99032e-13 2.1207e-13 3.08318e-13 -1.30944e-13 -3.26728e-13 -2.65811e-13 -1.61726e-13 1.70727e-13 5.45617e-13 -1.28548e-13 -1.01052e-13 -4.59272e-13 -8.27953e-15 4.23827e-14 1.66096e-14 -4.74672e-13 -2.07574e-13 -1.55626e-13 -6.00848e-13 -1.45259e-13 3.79859e-13 2.04146e-13 -2.85747e-13 -7.13625e-14 2.92455e-13 1.37476e-12 5.99395e-11 1.79386e-09 4.48043e-08 9.21554e-07 1.52549e-05 0.000197111 0.0019058 0.0129978 0.0582976 0.166098 0.326835 0.525369 0.671388 0.809873 0.867468 0.921324 0.941783 0.941943 0.897245 0.789062 0.641596 0.459491 0.277499 0.136157 0.0516286 0.0153145 0.00384719 0.000874683 0.000184984 3.67043e-05 6.85349e-06 1.2063e-06 2.00437e-07 3.14838e-08 4.68176e-09 6.60069e-10 8.84028e-11 1.10051e-11 9.90994e-13 7.52934e-14 1.38605e-13 1.94564e-13 -2.06977e-13 -2.14744e-13 2.77792e-13 -1.03656e-13 1.39918e-13 -1.19198e-13 -7.8296e-13 -2.91047e-13 -5.97355e-13 8.23715e-14 -1.22538e-12 5.71148e-13 1.26272e-12 -6.2015e-13 -9.96216e-15 -3.81847e-13 1.43129e-13 2.30408e-13 5.03035e-13 5.51203e-14 -3.2731e-13 -5.25878e-13 6.70124e-13 1.17761e-12 -1.96851e-13 -3.71813e-13 -1.12784e-12 -6.40771e-13 -7.06034e-14 1.29174e-12 8.84271e-13 -1.08749e-12 -1.13997e-12 -5.29867e-13 7.82197e-13 -4.35607e-13 -9.98868e-13 2.33293e-13 1.1352e-12 4.44569e-14 -1.17787e-12 2.24138e-13 1.52193e-12 -1.0654e-14 -1.02801e-12 -4.02478e-13 6.15867e-13 1.13366e-12 2.9368e-13 -1.01592e-12 -1.41307e-12 1.06943e-12 1.41777e-12 -5.8195e-13 -9.00678e-13 -9.32562e-13 1.45994e-13 3.20738e-14 -1.14169e-12 -1.51763e-12 -1.0392e-13 3.16849e-12 3.44841e-13 -2.20067e-12 -1.45835e-12 3.3974e-13 9.02633e-13 2.57924e-13 -1.89443e-13 2.02278e-13 9.02513e-13 0 0 1.51669e-14 2.18345e-14 -5.06152e-14 1.75126e-14 -7.95278e-14 -1.1233e-13 -1.70369e-13 -4.40598e-14 -8.92172e-14 -3.19774e-14 1.37216e-13 -1.36602e-13 -5.57685e-15 -1.70847e-13 3.07705e-14 2.96037e-14 -2.76636e-13 4.59262e-14 -3.5747e-14 -1.44285e-13 -2.90911e-14 9.49725e-14 -1.5685e-13 -2.23506e-13 -6.25571e-14 3.7497e-14 -1.36052e-13 -4.18394e-14 -1.13756e-13 1.25635e-13 -2.12793e-13 1.27405e-13 1.97992e-13 4.9275e-14 3.41848e-13 -1.67545e-14 7.24322e-15 -2.92264e-13 -1.52439e-13 -4.85271e-13 -5.2748e-14 -1.48406e-13 -7.34201e-14 -5.46407e-14 3.1417e-13 -4.15617e-13 1.35992e-13 -5.90155e-13 -4.39934e-14 -4.23663e-14 -1.12297e-13 1.52885e-13 -7.78928e-13 2.59025e-13 3.44292e-13 -3.33963e-13 7.68898e-13 -7.49659e-13 1.35032e-13 -2.23405e-13 1.2368e-13 4.10992e-13 -9.51516e-14 1.32072e-13 -2.11979e-13 -6.30476e-13 2.19641e-13 -1.01646e-13 4.63696e-13 6.64433e-13 -4.25461e-13 4.4712e-13 -5.9776e-13 2.40208e-13 -4.36007e-13 -5.96603e-13 -8.78771e-14 -9.45949e-13 2.20649e-13 -8.26511e-13 3.56612e-13 1.68303e-13 -1.63793e-12 3.96862e-13 8.18243e-13 1.20675e-12 6.04303e-11 1.79434e-09 4.48024e-08 9.21555e-07 1.52549e-05 0.000197111 0.0019058 0.0129978 0.0582976 0.166098 0.326835 0.525369 0.671388 0.809873 0.867468 0.921324 0.941783 0.941943 0.897245 0.789062 0.641596 0.459491 0.277499 0.136157 0.0516286 0.0153145 0.00384719 0.000874683 0.000184984 3.67043e-05 6.85349e-06 1.2063e-06 2.00437e-07 3.14846e-08 4.68096e-09 6.598e-10 8.85037e-11 1.1193e-11 1.8114e-12 -4.11343e-13 -6.81013e-13 2.87309e-13 -1.88243e-14 7.52578e-13 -5.6526e-13 -1.40464e-13 2.41488e-14 -2.90521e-13 2.42451e-13 -1.22685e-12 -1.3763e-12 3.66282e-13 1.38122e-14 3.38643e-13 4.59084e-13 -1.43143e-12 5.34363e-14 5.56394e-13 8.03086e-13 1.30654e-12 -5.52077e-13 7.23418e-13 -3.82911e-13 7.23207e-14 5.01195e-13 -8.17284e-13 2.1378e-13 -4.55331e-13 -2.17558e-13 -1.43598e-12 -1.1844e-12 5.26152e-13 1.32617e-12 7.74435e-13 -1.2914e-12 -1.523e-12 -1.33862e-12 -1.14998e-12 1.33335e-13 5.31772e-13 1.60457e-12 2.82415e-13 -1.30068e-12 -2.3981e-13 2.23465e-13 5.21214e-13 1.15545e-12 1.25603e-13 -3.93754e-13 -7.77035e-13 1.85834e-14 1.22546e-12 -2.56208e-13 -6.04846e-14 -3.71893e-13 -7.31748e-13 1.48459e-12 -6.20233e-13 -6.5867e-13 -1.53917e-12 -1.98626e-12 4.23932e-13 1.02984e-12 2.13892e-12 7.58837e-13 -3.42609e-12 -7.16597e-13 -6.53856e-13 1.11738e-12 1.97939e-12 -4.35313e-13 1.74492e-12 -9.40243e-13 0 0 -2.8737e-14 -2.66897e-14 5.19071e-14 -9.48954e-14 -8.60509e-14 -4.34393e-14 -8.25398e-14 -1.77771e-13 7.70075e-14 -4.69863e-14 -1.48849e-13 1.68395e-14 -2.06619e-13 2.05943e-13 -9.61839e-14 -3.95595e-14 6.14656e-14 -2.48218e-13 8.12987e-14 -1.44502e-14 -9.05433e-14 -3.06932e-13 -2.55453e-13 -1.21131e-14 -9.41334e-14 -2.57101e-13 7.2141e-15 1.44242e-14 -9.42373e-14 -2.53365e-13 4.16575e-13 -9.87369e-14 2.63166e-13 5.47873e-13 5.48503e-14 2.07026e-13 -5.26778e-13 2.57315e-13 -5.5812e-13 -1.43654e-13 -3.58494e-13 -3.58327e-13 7.9625e-14 -6.78126e-14 -5.36339e-13 3.03093e-13 -5.2993e-13 1.81197e-13 7.59522e-14 -2.03065e-13 -3.05447e-13 -1.17212e-12 1.12305e-12 -6.51341e-15 1.23753e-13 -1.60227e-13 -1.32132e-12 1.29174e-12 1.75332e-13 1.3048e-13 5.49884e-15 -1.31727e-13 4.16365e-13 -1.16449e-13 -1.30691e-13 -2.27596e-13 -2.83758e-13 4.36131e-13 -5.84584e-13 -1.48198e-13 1.63086e-12 2.41856e-13 2.13955e-13 -1.15616e-12 -1.22235e-13 -1.67986e-13 -1.09399e-12 -3.58892e-13 -1.23588e-12 1.1461e-12 -5.63209e-13 -1.10277e-12 5.28543e-13 -4.79881e-13 -6.94332e-13 2.32764e-12 6.12094e-11 1.79454e-09 4.48013e-08 9.21554e-07 1.52549e-05 0.000197111 0.0019058 0.0129978 0.0582976 0.166098 0.326835 0.525369 0.671388 0.809873 0.867468 0.921324 0.941783 0.941943 0.897245 0.789062 0.641596 0.459491 0.277499 0.136157 0.0516286 0.0153145 0.00384719 0.000874683 0.000184984 3.67043e-05 6.85349e-06 1.2063e-06 2.00439e-07 3.14841e-08 4.68152e-09 6.59948e-10 8.75654e-11 1.19511e-11 1.33711e-12 7.91195e-13 -1.20293e-12 -1.24098e-12 1.12082e-12 2.56803e-13 1.48408e-13 3.99619e-13 -1.64175e-12 6.85343e-13 5.97384e-14 -1.04524e-12 -1.10752e-12 -1.14593e-12 2.25018e-12 -1.02458e-12 -5.85598e-13 3.77197e-13 -1.77489e-12 1.401e-12 2.59768e-12 2.25343e-13 9.20735e-13 -1.80406e-13 9.20211e-13 2.89057e-13 -1.78702e-12 -2.76529e-13 -1.30843e-12 6.58751e-13 -3.47332e-13 -1.02597e-12 -9.93587e-13 -1.33074e-12 1.543e-12 1.84523e-12 -6.68073e-13 -2.27982e-12 -3.86998e-12 -6.6195e-13 1.43124e-12 8.4851e-13 9.70855e-13 -1.22556e-12 8.72504e-13 -1.26709e-12 -9.78834e-13 2.03678e-12 1.0354e-12 2.23998e-12 -2.37791e-12 -2.0855e-12 7.10598e-13 1.22738e-12 3.29141e-12 -2.22561e-12 -2.14991e-12 8.2298e-13 2.8168e-13 2.12026e-12 -2.60177e-12 -2.91982e-12 -1.98251e-13 -6.0606e-13 3.93242e-12 -9.99106e-13 -2.30461e-12 2.09552e-12 -1.43657e-12 -1.11282e-12 1.28874e-12 1.51349e-12 2.84269e-12 -1.30093e-12 8.20115e-14 0
				</DataArray>
				<DataArray Name="VitesseY" type="Float32" format="ascii">