<?xml version="1.0"?>
<VTKFile type="PolyData">
	<PolyData>
		<Piece NumberOfPoints="1206" NumberOfPolys="1000">
			<Points>
				<DataArray type="Float32" NumberOfComponents="3" format="ascii">
 0 0 0 0.005 0 0 0.01 0 0 0.015 0 0 0.02 0 0 0.025 0 0 0.03 0 0 0.035 0 0 0.04 0 0 0.045 0 0 0.05 0 0 0.055 0 0 0.06 0 0 0.065 0 0 0.07 0 0 0.075 0 0 0.08 0 0 0.085 0 0 0.09 0 0 0.095 0 0 0.1 0 0 0.105 0 0 0.11 0 0 0.115 0 0 0.12 0 0 0.125 0 0 0.13 0 0 0.135 0 0 0.14 0 0 0.145 0 0 0.15 0 0 0.155 0 0 0.16 0 0 0.165 0 0 0.17 0 0 0.175 0 0 0.18 0 0 0.185 0 0 0.19 0 0 0.195 0 0 0.2 0 0 0.205 0 0 0.21 0 0 0.215 0 0 0.22 0 0 0.225 0 0 0.23 0 0 0.235 0 0 0.24 0 0 0.245 0 0 0.25 0 0 0.255 0 0 0.26 0 0 0.265 0 0 0.27 0 0 0.275 0 0 0.28 0 0 0.285 0 0 0.29 0 0 0.295 0 0 0.3 0 0 0.305 0 0 0.31 0 0 0.315 0 0 0.32 0 0 0.325 0 0 0.33 0 0 0.335 0 0 0.34 0 0 0.345 0 0 0.35 0 0 0.355 0 0 0.36 0 0 0.365 0 0 0.37 0 0 0.375 0 0 0.38 0 0 0.385 0 0 0.39 0 0 0.395 0 0 0.4 0 0 0.405 0 0 0.41 0 0 0.415 0 0 0.42 0 0 0.425 0 0 0.43 0 0 0.435 0 0 0.44 0 0 0.445 0 0 0.45 0 0 0.455 0 0 0.46 0 0 0.465 0 0 0.47 0 0 0.475 0 0 0.48 0 0 0.485 0 0 0.49 0 0 0.495 0 0 0.5 0 0 0.505 0 0 0.51 0 0 0.515 0 0 0.52 0 0 0.525 0 0 0.53 0 0 0.535 0 0 0.54 0 0 0.545 0 0 0.55 0 0 0.555 0 0 0.56 0 0 0.565 0 0 0.57 0 0 0.575 0 0 0.58 0 0 0.585 0 0 0.59 0 0 0.595 0 0 0.6 0 0 0.605 0 0 0.61 0 0 0.615 0 0 0.62 0 0 0.625 0 0 0.63 0 0 0.635 0 0 0.64 0 0 0.645 0 0 0.65 0 0 0.655 0 0 0.66 0 0 0.665 0 0 0.67 0 0 0.675 0 0 0.68 0 0 0.685 0 0 0.69 0 0 0.695 0 0 0.7 0 0 0.705 0 0 0.71 0 0 0.715 0 0 0.72 0 0 0.725 0 0 0.73 0 0 0.735 0 0 0.74 0 0 0.745 0 0 0.75 0 0 0.755 0 0 0.76 0 0 0.765 0 0 0.77 0 0 0.775 0 0 0.78 0 0 0.785 0 0 0.79 0 0 0.795 0 0 0.8 0 0 0.805 0 0 0.81 0 0 0.815 0 0 0.82 0 0 0.825 0 0 0.83 0 0 0.835 0 0 0.84 0 0 0.845 0 0 0.85 0 0 0.855 0 0 0.86 0 0 0.865 0 0 0.87 0 0 0.875 0 0 0.88 0 0 0.885 0 0 0.89 0 0 0.895 0 0 0.9 0 0 0.905 0 0 0.91 0 0 0.915 0 0 0.92 0 0 0.925 0 0 0.93 0 0 0.935 0 0 0.94 0 0 0.945 0 0 0.95 0 0 0.955 0 0 0.96 0 0 0.965 0 0 0.97 0 0 0.975 0 0 0.98 0 0 0.985 0 0 0.99 0 0 0.995 0 0 1 0 0 0 0.02 0 0.005 0.02 0 0.01 0.02 0 0.015 0.02 0 0.02 0.02 0 0.025 0.02 0 0.03 0.02 0 0.035 0.02 0 0.04 0.02 0 0.045 0.02 0 0.05 0.02 0 0.055 0.02 0 0.06 0.02 0 0.065 0.02 0 0.07 0.02 0 0.075 0.02 0 0.08 0.02 0 0.085 0.02 0 0.09 0.02 0 0.095 0.02 0 0.1 0.02 0 0.105 0.02 0 0.11 0.02 0 0.115 0.02 0 0.12 0.02 0 0.125 0.02 0 0.13 0.02 0 0.135 0.02 0 0.14 0.02 0 0.145 0.02 0 0.15 0.02 0 0.155 0.02 0 0.16 0.02 0 0.165 0.02 0 0.17 0.02 0 0.175 0.02 0 0.18 0.02 0 0.185 0.02 0 0.19 0.02 0 0.195 0.02 0 0.2 0.02 0 0.205 0.02 0 0.21 0.02 0 0.215 0.02 0 0.22 0.02 0 0.225 0.02 0 0.23 0.02 0 0.235 0.02 0 0.24 0.02 0 0.245 0.02 0 0.25 0.02 0 0.255 0.02 0 0.26 0.02 0 0.265 0.02 0 0.27 0.02 0 0.275 0.02 0 0.28 0.02 0 0.285 0.02 0 0.29 0.02 0 0.295 0.02 0 0.3 0.02 0 0.305 0.02 0 0.31 0.02 0 0.315 0.02 0 0.32 0.02 0 0.325 0.02 0 0.33 0.02 0 0.335 0.02 0 0.34 0.02 0 0.345 0.02 0 0.35 0.02 0 0.355 0.02 0 0.36 0.02 0 0.365 0.02 0 0.37 0.02 0 0.375 0.02 0 0.38 0.02 0 0.385 0.02 0 0.39 0.02 0 0.395 0.02 0 0.4 0.02 0 0.405 0.02 0 0.41 0.02 0 0.415 0.02 0 0.42 0.02 0 0.425 0.02 0 0.43 0.02 0 0.435 0.02 0 0.44 0.02 0 0.445 0.02 0 0.45 0.02 0 0.455 0.02 0 0.46 0.02 0 0.465 0.02 0 0.47 0.02 0 0.475 0.02 0 0.48 0.02 0 0.485 0.02 0 0.49 0.02 0 0.495 0.02 0 0.5 0.02 0 0.505 0.02 0 0.51 0.02 0 0.515 0.02 0 0.52 0.02 0 0.525 0.02 0 0.53 0.02 0 0.535 0.02 0 0.54 0.02 0 0.545 0.02 0 0.55 0.02 0 0.555 0.02 0 0.56 0.02 0 0.565 0.02 0 0.57 0.02 0 0.575 0.02 0 0.58 0.02 0 0.585 0.02 0 0.59 0.02 0 0.595 0.02 0 0.6 0.02 0 0.605 0.02 0 0.61 0.02 0 0.615 0.02 0 0.62 0.02 0 0.625 0.02 0 0.63 0.02 0 0.635 0.02 0 0.64 0.02 0 0.645 0.02 0 0.65 0.02 0 0.655 0.02 0 0.66 0.02 0 0.665 0.02 0 0.67 0.02 0 0.675 0.02 0 0.68 0.02 0 0.685 0.02 0 0.69 0.02 0 0.695 0.02 0 0.7 0.02 0 0.705 0.02 0 0.71 0.02 0 0.715 0.02 0 0.72 0.02 0 0.725 0.02 0 0.73 0.02 0 0.735 0.02 0 0.74 0.02 0 0.745 0.02 0 0.75 0.02 0 0.755 0.02 0 0.76 0.02 0 0.765 0.02 0 0.77 0.02 0 0.775 0.02 0 0.78 0.02 0 0.785 0.02 0 0.79 0.02 0 0.795 0.02 0 0.8 0.02 0 0.805 0.02 0 0.81 0.02 0 0.815 0.02 0 0.82 0.02 0 0.825 0.02 0 0.83 0.02 0 0.835 0.02 0 0.84 0.02 0 0.845 0.02 0 0.85 0.02 0 0.855 0.02 0 0.86 0.02 0 0.865 0.02 0 0.87 0.02 0 0.875 0.02 0 0.88 0.02 0 0.885 0.02 0 0.89 0.02 0 0.895 0.02 0 0.9 0.02 0 0.905 0.02 0 0.91 0.02 0 0.915 0.02 0 0.92 0.02 0 0.925 0.02 0 0.93 0.02 0 0.935 0.02 0 0.94 0.02 0 0.945 0.02 0 0.95 0.02 0 0.955 0.02 0 0.96 0.02 0 0.965 0.02 0 0.97 0.02 0 0.975 0.02 0 0.98 0.02 0 0.985 0.02 0 0.99 0.02 0 0.995 0.02 0 1 0.02 0 0 0.04 0 0.005 0.04 0 0.01 0.04 0 0.015 0.04 0 0.02 0.04 0 0.025 0.04 0 0.03 0.04 0 0.035 0.04 0 0.04 0.04 0 0.045 0.04 0 0.05 0.04 0 0.055 0.04 0 0.06 0.04 0 0.065 0.04 0 0.07 0.04 0 0.075 0.04 0 0.08 0.04 0 0.085 0.04 0 0.09 0.04 0 0.095 0.04 0 0.1 0.04 0 0.105 0.04 0 0.11 0.04 0 0.115 0.04 0 0.12 0.04 0 0.125 0.04 0 0.13 0.04 0 0.135 0.04 0 0.14 0.04 0 0.145 0.04 0 0.15 0.04 0 0.155 0.04 0 0.16 0.04 0 0.165 0.04 0 0.17 0.04 0 0.175 0.04 0 0.18 0.04 0 0.185 0.04 0 0.19 0.04 0 0.195 0.04 0 0.2 0.04 0 0.205 0.04 0 0.21 0.04 0 0.215 0.04 0 0.22 0.04 0 0.225 0.04 0 0.23 0.04 0 0.235 0.04 0 0.24 0.04 0 0.245 0.04 0 0.25 0.04 0 0.255 0.04 0 0.26 0.04 0 0.265 0.04 0 0.27 0.04 0 0.275 0.04 0 0.28 0.04 0 0.285 0.04 0 0.29 0.04 0 0.295 0.04 0 0.3 0.04 0 0.305 0.04 0 0.31 0.04 0 0.315 0.04 0 0.32 0.04 0 0.325 0.04 0 0.33 0.04 0 0.335 0.04 0 0.34 0.04 0 0.345 0.04 0 0.35 0.04 0 0.355 0.04 0 0.36 0.04 0 0.365 0.04 0 0.37 0.04 0 0.375 0.04 0 0.38 0.04 0 0.385 0.04 0 0.39 0.04 0 0.395 0.04 0 0.4 0.04 0 0.405 0.04 0 0.41 0.04 0 0.415 0.04 0 0.42 0.04 0 0.425 0.04 0 0.43 0.04 0 0.435 0.04 0 0.44 0.04 0 0.445 0.04 0 0.45 0.04 0 0.455 0.04 0 0.46 0.04 0 0.465 0.04 0 0.47 0.04 0 0.475 0.04 0 0.48 0.04 0 0.485 0.04 0 0.49 0.04 0 0.495 0.04 0 0.5 0.04 0 0.505 0.04 0 0.51 0.04 0 0.515 0.04 0 0.52 0.04 0 0.525 0.04 0 0.53 0.04 0 0.535 0.04 0 0.54 0.04 0 0.545 0.04 0 0.55 0.04 0 0.555 0.04 0 0.56 0.04 0 0.565 0.04 0 0.57 0.04 0 0.575 0.04 0 0.58 0.04 0 0.585 0.04 0 0.59 0.04 0 0.595 0.04 0 0.6 0.04 0 0.605 0.04 0 0.61 0.04 0 0.615 0.04 0 0.62 0.04 0 0.625 0.04 0 0.63 0.04 0 0.635 0.04 0 0.64 0.04 0 0.645 0.04 0 0.65 0.04 0 0.655 0.04 0 0.66 0.04 0 0.665 0.04 0 0.67 0.04 0 0.675 0.04 0 0.68 0.04 0 0.685 0.04 0 0.69 0.04 0 0.695 0.04 0 0.7 0.04 0 0.705 0.04 0 0.71 0.04 0 0.715 0.04 0 0.72 0.04 0 0.725 0.04 0 0.73 0.04 0 0.735 0.04 0 0.74 0.04 0 0.745 0.04 0 0.75 0.04 0 0.755 0.04 0 0.76 0.04 0 0.765 0.04 0 0.77 0.04 0 0.775 0.04 0 0.78 0.04 0 0.785 0.04 0 0.79 0.04 0 0.795 0.04 0 0.8 0.04 0 0.805 0.04 0 0.81 0.04 0 0.815 0.04 0 0.82 0.04 0 0.825 0.04 0 0.83 0.04 0 0.835 0.04 0 0.84 0.04 0 0.845 0.04 0 0.85 0.04 0 0.855 0.04 0 0.86 0.04 0 0.865 0.04 0 0.87 0.04 0 0.875 0.04 0 0.88 0.04 0 0.885 0.04 0 0.89 0.04 0 0.895 0.04 0 0.9 0.04 0 0.905 0.04 0 0.91 0.04 0 0.915 0.04 0 0.92 0.04 0 0.925 0.04 0 0.93 0.04 0 0.935 0.04 0 0.94 0.04 0 0.945 0.04 0 0.95 0.04 0 0.955 0.04 0 0.96 0.04 0 0.965 0.04 0 0.97 0.04 0 0.975 0.04 0 0.98 0.04 0 0.985 0.04 0 0.99 0.04 0 0.995 0.04 0 1 0.04 0 0 0.06 0 0.005 0.06 0 0.01 0.06 0 0.015 0.06 0 0.02 0.06 0 0.025 0.06 0 0.03 0.06 0 0.035 0.06 0 0.04 0.06 0 0.045 0.06 0 0.05 0.06 0 0.055 0.06 0 0.06 0.06 0 0.065 0.06 0 0.07 0.06 0 0.075 0.06 0 0.08 0.06 0 0.085 0.06 0 0.09 0.06 0 0.095 0.06 0 0.1 0.06 0 0.105 0.06 0 0.11 0.06 0 0.115 0.06 0 0.12 0.06 0 0.125 0.06 0 0.13 0.06 0 0.135 0.06 0 0.14 0.06 0 0.145 0.06 0 0.15 0.06 0 0.155 0.06 0 0.16 0.06 0 0.165 0.06 0 0.17 0.06 0 0.175 0.06 0 0.18 0.06 0 0.185 0.06 0 0.19 0.06 0 0.195 0.06 0 0.2 0.06 0 0.205 0.06 0 0.21 0.06 0 0.215 0.06 0 0.22 0.06 0 0.225 0.06 0 0.23 0.06 0 0.235 0.06 0 0.24 0.06 0 0.245 0.06 0 0.25 0.06 0 0.255 0.06 0 0.26 0.06 0 0.265 0.06 0 0.27 0.06 0 0.275 0.06 0 0.28 0.06 0 0.285 0.06 0 0.29 0.06 0 0.295 0.06 0 0.3 0.06 0 0.305 0.06 0 0.31 0.06 0 0.315 0.06 0 0.32 0.06 0 0.325 0.06 0 0.33 0.06 0 0.335 0.06 0 0.34 0.06 0 0.345 0.06 0 0.35 0.06 0 0.355 0.06 0 0.36 0.06 0 0.365 0.06 0 0.37 0.06 0 0.375 0.06 0 0.38 0.06 0 0.385 0.06 0 0.39 0.06 0 0.395 0.06 0 0.4 0.06 0 0.405 0.06 0 0.41 0.06 0 0.415 0.06 0 0.42 0.06 0 0.425 0.06 0 0.43 0.06 0 0.435 0.06 0 0.44 0.06 0 0.445 0.06 0 0.45 0.06 0 0.455 0.06 0 0.46 0.06 0 0.465 0.06 0 0.47 0.06 0 0.475 0.06 0 0.48 0.06 0 0.485 0.06 0 0.49 0.06 0 0.495 0.06 0 0.5 0.06 0 0.505 0.06 0 0.51 0.06 0 0.515 0.06 0 0.52 0.06 0 0.525 0.06 0 0.53 0.06 0 0.535 0.06 0 0.54 0.06 0 0.545 0.06 0 0.55 0.06 0 0.555 0.06 0 0.56 0.06 0 0.565 0.06 0 0.57 0.06 0 0.575 0.06 0 0.58 0.06 0 0.585 0.06 0 0.59 0.06 0 0.595 0.06 0 0.6 0.06 0 0.605 0.06 0 0.61 0.06 0 0.615 0.06 0 0.62 0.06 0 0.625 0.06 0 0.63 0.06 0 0.635 0.06 0 0.64 0.06 0 0.645 0.06 0 0.65 0.06 0 0.655 0.06 0 0.66 0.06 0 0.665 0.06 0 0.67 0.06 0 0.675 0.06 0 0.68 0.06 0 0.685 0.06 0 0.69 0.06 0 0.695 0.06 0 0.7 0.06 0 0.705 0.06 0 0.71 0.06 0 0.715 0.06 0 0.72 0.06 0 0.725 0.06 0 0.73 0.06 0 0.735 0.06 0 0.74 0.06 0 0.745 0.06 0 0.75 0.06 0 0.755 0.06 0 0.76 0.06 0 0.765 0.06 0 0.77 0.06 0 0.775 0.06 0 0.78 0.06 0 0.785 0.06 0 0.79 0.06 0 0.795 0.06 0 0.8 0.06 0 0.805 0.06 0 0.81 0.06 0 0.815 0.06 0 0.82 0.06 0 0.825 0.06 0 0.83 0.06 0 0.835 0.06 0 0.84 0.06 0 0.845 0.06 0 0.85 0.06 0 0.855 0.06 0 0.86 0.06 0 0.865 0.06 0 0.87 0.06 0 0.875 0.06 0 0.88 0.06 0 0.885 0.06 0 0.89 0.06 0 0.895 0.06 0 0.9 0.06 0 0.905 0.06 0 0.91 0.06 0 0.915 0.06 0 0.92 0.06 0 0.925 0.06 0 0.93 0.06 0 0.935 0.06 0 0.94 0.06 0 0.945 0.06 0 0.95 0.06 0 0.955 0.06 0 0.96 0.06 0 0.965 0.06 0 0.97 0.06 0 0.975 0.06 0 0.98 0.06 0 0.985 0.06 0 0.99 0.06 0 0.995 0.06 0 1 0.06 0 0 0.08 0 0.005 0.08 0 0.01 0.08 0 0.015 0.08 0 0.02 0.08 0 0.025 0.08 0 0.03 0.08 0 0.035 0.08 0 0.04 0.08 0 0.045 0.08 0 0.05 0.08 0 0.055 0.08 0 0.06 0.08 0 0.065 0.08 0 0.07 0.08 0 0.075 0.08 0 0.08 0.08 0 0.085 0.08 0 0.09 0.08 0 0.095 0.08 0 0.1 0.08 0 0.105 0.08 0 0.11 0.08 0 0.115 0.08 0 0.12 0.08 0 0.125 0.08 0 0.13 0.08 0 0.135 0.08 0 0.14 0.08 0 0.145 0.08 0 0.15 0.08 0 0.155 0.08 0 0.16 0.08 0 0.165 0.08 0
[...]
			<PointData Scalars="VitesseX">
				<DataArray Name="VitesseX" type="Float32" format="ascii">
 0 -2.33171e-17 -1.66472e-15 5.7462e-15 -1.45263e-14 -1.23796e-14 -6.20514e-15 -1.62561e-14 -5.21005e-14 -1.07028e-14 -1.57278e-14 -4.1936e-14 -4.98377e-14 -6.02419e-14 -5.62246e-14 -7.13158e-14 -5.30554e-14 -9.27226e-14 -6.2557e-14 -6.03636e-14 -1.57805e-14 -2.87687e-14 -3.49311e-14 -9.68641e-15 -4.91779e-14 2.14223e-14 6.64475e-14 -1.83393e-13 -6.83354e-14 1.19533e-14 -7.49769e-14 -4.46302e-14 -6.949e-15 -7.0182e-14 -6.2813e-14 -4.23607e-14 8.088e-14 -8.23487e-14 3.35704e-15 6.16071e-14 1.65228e-13 8.20983e-13 5.46657e-12 3.31813e-11 1.93303e-10 1.06791e-09 5.59111e-09 2.76945e-08 1.29427e-07 5.6908e-07 2.34669e-06 9.0424e-06 3.24197e-05 0.000107611 0.000328753 0.000918051 0.00232572 0.00530527 0.0108369 0.0198001 0.0325391 0.0486965 0.0674786 0.0880614 0.109815 0.132332 0.155369 0.178755 0.20238 0.226179 0.250116 0.274165 0.298312 0.322548 0.346871 0.371283 0.395789 0.420395 0.445054 0.469415 0.493732 0.517757 0.541779 0.565496 0.589249 0.612687 0.636108 0.659209 0.682167 0.705023 0.727587 0.750162 0.772442 0.794356 0.816155 0.836861 0.856993 0.875646 0.891777 0.905974 0.916579 0.923781 0.928781 0.930974 0.931792 0.932103 0.932074 0.931936 0.931699 0.931394 0.931045 0.930671 0.930289 0.929929 0.92961 0.929338 0.929109 0.928916 0.928756 0.928637 0.928531 0.928423 0.928334 0.928264 0.928208 0.928159 0.928116 0.928077 0.928042 0.92801 0.927981 0.927954 0.927931 0.927909 0.927889 0.927869 0.92785 0.927831 0.927814 0.927797 0.927782 0.927767 0.927754 0.927743 0.927734 0.927725 0.927708 0.927677 0.92762 0.9275 0.927245 0.926706 0.925597 0.923351 0.91888 0.910173 0.893728 0.864039 0.813797 0.735797 0.627064 0.494286 0.354079 0.226845 0.127761 0.0628745 0.0275534 0.0111806 0.00435801 0.00166794 0.000633199 0.000239404 9.02778e-05 3.39671e-05 1.27512e-05 4.77499e-06 1.78321e-06 6.63901e-07 2.46336e-07 9.10589e-08 3.35223e-08 1.22852e-08 4.48103e-09 1.62534e-09 5.86448e-10 2.09919e-10 7.46917e-11 2.62249e-11 9.05542e-12 2.91214e-12 7.01154e-13 -1.27259e-13 2.3801e-13 2.11035e-13 4.66046e-14 2.02855e-13 -1.84294e-13 2.79866e-13 -3.32308e-13 5.10075e-13 0 0 -4.55516e-15 -5.64331e-15 -1.08891e-14 -8.11208e-15 -1.73389e-14 -2.75612e-14 -2.3586e-14 2.69676e-15 -4.29795e-14 -6.51049e-14 -3.6828e-14 -1.70043e-14 -4.30473e-14 -7.52036e-14 -7.85216e-14 -7.47342e-14 -5.54583e-14 -8.70954e-14 -3.12768e-14 -6.96121e-14 -4.73354e-16 3.03362e-14 -5.63525e-14 4.33166e-15 -7.81999e-15 -1.81398e-13 6.13569e-14 -5.53865e-14 -5.65223e-14 1.07662e-15 -6.139e-14 -6.53819e-14 2.42722e-15 -4.20048e-14 -8.4852e-14 -5.0644e-14 5.25971e-14 6.20933e-15 3.18482e-14 1.63684e-13 7.51714e-13 5.49248e-12 3.32864e-11 1.93301e-10 1.06757e-09 5.59119e-09 2.76949e-08 1.29427e-07 5.6908e-07 2.34669e-06 9.0424e-06 3.24197e-05 0.000107611 0.000328753 0.000918051 0.00232572 0.00530527 0.0108369 0.0198001 0.0325391 0.0486965 0.0674786 0.0880614 0.109815 0.132332 0.155369 0.178755 0.20238 0.226179 0.250116 0.274165 0.298312 0.322548 0.346871 0.371283 0.395789 0.420395 0.445054 0.469415 0.493732 0.517757 0.541779 0.565496 0.589249 0.612687 0.636108 0.659209 0.682167 0.705023 0.727587 0.750162 0.772442 0.794356 0.816155 0.836861 0.856993 0.875646 0.891777 0.905974 0.916579 0.923781 0.928781 0.930974 0.931792 0.932103 0.932074 0.931936 0.931699 0.931394 0.931045 0.930671 0.930289 0.929929 0.92961 0.929338 0.929109 0.928916 0.928756 0.928637 0.928531 0.928423 0.928334 0.928264 0.928208 0.928159 0.928116 0.928077 0.928042 0.92801 0.927981 0.927954 0.927931 0.927909 0.927889 0.927869 0.92785 0.927831 0.927814 0.927797 0.927782 0.927767 0.927754 0.927743 0.927734 0.927725 0.927708 0.927677 0.92762 0.9275 0.927245 0.926706 0.925597 0.923351 0.91888 0.910173 0.893728 0.864039 0.813797 0.735797 0.627064 0.494286 0.354079 0.226845 0.127761 0.0628745 0.0275534 0.0111806 0.00435801 0.00166794 0.000633199 0.000239404 9.02778e-05 3.39671e-05 1.27512e-05 4.77499e-06 1.78321e-06 6.63901e-07 2.46336e-07 9.10591e-08 3.3522e-08 1.22857e-08 4.48032e-09 1.62578e-09 5.86195e-10 2.10137e-10 7.47471e-11 2.61522e-11 9.05592e-12 2.70175e-12 8.52225e-13 2.34223e-13 2.48726e-13 -1.55404e-14 -6.55955e-13 1.74912e-13 -4.03771e-14 2.55564e-13 2.48927e-13 -2.45137e-13 0 0 -5.93113e-15 -1.1124e-14 -1.32531e-14 -2.34059e-14 -3.66681e-14 -3.54182e-14 -4.93231e-14 -3.39014e-14 -1.58783e-14 -4.51085e-14 -6.72003e-14 -5.74837e-14 -2.84265e-14 -7.12119e-14 -2.283e-14 -5.18347e-14 -8.79875e-14 -1.19835e-14 -6.32739e-14 -2.90924e-14 1.63342e-14 -7.12601e-14 2.57518e-14 -8.52365e-14 -4.14276e-14 1.13304e-14 -5.45529e-14 -1.006e-13 1.5633e-14 -5.27441e-14 -6.14545e-14 -4.66383e-14 -9.78558e-14 6.53041e-14 -1.22728e-13 -5.19796e-14 1.49391e-14 -2.02235e-14 5.13726e-14 1.33743e-13 9.55327e-13 5.29615e-12 3.34207e-11 1.93346e-10 1.06768e-09 5.59121e-09 2.76946e-08 1.29427e-07 5.69079e-07 2.34669e-06 9.0424e-06 3.24197e-05 0.000107611 0.000328753 0.000918051 0.00232572 0.00530527 0.0108369 0.0198001 0.0325391 0.0486965 0.0674786 0.0880614 0.109815 0.132332 0.155369 0.178755 0.20238 0.226179 0.250116 0.274165 0.298312 0.322548 0.346871 0.371283 0.395789 0.420395 0.445054 0.469415 0.493732 0.517757 0.541779 0.565496 0.589249 0.612687 0.636108 0.659209 0.682167 0.705023 0.727587 0.750162 0.772442 0.794356 0.816155 0.836861 0.856993 0.875646 0.891777 0.905974 0.916579 0.923781 0.928781 0.930974 0.931792 0.932103 0.932074 0.931936 0.931699 0.931394 0.931045 0.930671 0.930289 0.929929 0.92961 0.929338 0.929109 0.928916 0.928756 0.928637 0.928531 0.928423 0.928334 0.928264 0.928208 0.928159 0.928116 0.928077 0.928042 0.92801 0.927981 0.927954 0.927931 0.927909 0.927889 0.927869 0.92785 0.927831 0.927814 0.927797 0.927782 0.927767 0.927754 0.927743 0.927734 0.927725 0.927708 0.927677 0.92762 0.9275 0.927245 0.926706 0.925597 0.923351 0.91888 0.910173 0.893728 0.864039 0.813797 0.735797 0.627064 0.494286 0.354079 0.226845 0.127761 0.0628745 0.0275534 0.0111806 0.00435801 0.00166794 0.000633199 0.000239404 9.02778e-05 3.39671e-05 1.27512e-05 4.77499e-06 1.78321e-06 6.63901e-07 2.46336e-07 9.10587e-08 3.35223e-08 1.22856e-08 4.48077e-09 1.62553e-09 5.86294e-10 2.10013e-10 7.45748e-11 2.61455e-11 9.03468e-12 2.83042e-12 1.14694e-12 -2.44968e-13 2.80922e-13 -2.33669e-13 -4.17293e-16 -2.37989e-13 -2.48906e-13 -2.75392e-13 5.31919e-13 -2.3974e-13 0 0 -2.32677e-15 -1.86926e-14 -8.3371e-16 -2.65452e-14 -4.76482e-14 -2.11652e-14 -7.13399e-14 -7.48545e-14 -3.20971e-14 -5.18932e-14 -4.29422e-14 -5.45846e-14 -4.8825e-14 -5.78052e-14 -3.18359e-14 2.21954e-14 -9.42668e-14 -1.91251e-14 2.38331e-14 -1.819e-14 -9.43384e-14 2.32926e-14 -2.76231e-14 -2.77333e-14 -2.32443e-14 2.96068e-14 -1.58131e-13 -9.81886e-14 -5.08784e-14 -6.73468e-14 -5.54381e-14 -3.00761e-15 -1.03397e-13 -1.29422e-13 -1.48788e-14 -7.4332e-14 7.72799e-14 3.16031e-14 7.55014e-14 1.81447e-13 1.00521e-12 5.48976e-12 3.32218e-11 1.93308e-10 1.06777e-09 5.59121e-09 2.76946e-08 1.29427e-07 5.69079e-07 2.34669e-06 9.0424e-06 3.24197e-05 0.000107611 0.000328753 0.000918051 0.00232572 0.00530527 0.0108369 0.0198001 0.0325391 0.0486965 0.0674786 0.0880614 0.109815 0.132332 0.155369 0.178755 0.20238 0.226179 0.250116 0.274165 0.298312 0.322548 0.346871 0.371283 0.395789 0.420395 0.445054 0.469415 0.493732 0.517757 0.541779 0.565496 0.589249 0.612687 0.636108 0.659209 0.682167 0.705023 0.727587 0.750162 0.772442 0.794356 0.816155 0.836861 0.856993 0.875646 0.891777 0.905974 0.916579 0.923781 0.928781 0.930974 0.931792 0.932103 0.932074 0.931936 0.931699 0.931394 0.931045 0.930671 0.930289 0.929929 0.92961 0.929338 0.929109 0.928916 0.928756 0.928637 0.928531 0.928423 0.928334 0.928264 0.928208 0.928159 0.928116 0.928077 0.928042 0.92801 0.927981 0.927954 0.927931 0.927909 0.927889 0.927869 0.92785 0.927831 0.927814 0.927797 0.927782 0.927767 0.927754 0.927743 0.927734 0.927725 0.927708 0.927677 0.92762 0.9275 0.927245 0.926706 0.925597 0.923351 0.91888 0.910173 0.893728 0.864039 0.813797 0.735797 0.627064 0.494286 0.354079 0.226845 0.127761 0.0628745 0.0275534 0.0111806 0.00435801 0.00166794 0.000633199 0.000239404 9.02778e-05 3.39671e-05 1.27512e-05 4.77499e-06 1.78321e-06 6.63901e-07 2.46336e-07 9.10587e-08 3.35221e-08 1.22854e-08 4.48112e-09 1.6254e-09 5.86359e-10 2.09997e-10 7.41537e-11 2.63394e-11 8.87615e-12 3.22164e-12 5.15866e-13 6.63955e-14 -3.40427e-14 -3.86294e-13 6.55217e-13 -7.67619e-13 -3.09853e-13 1.9825e-13 -6.03901e-13 9.83267e-13 0 0 -1.77864e-15 -1.0469e-14 -1.59982e-14 -7.11927e-15 -3.67372e-14 -4.25945e-14 -4.58735e-14 -2.49921e-14 -8.5591e-14 -7.73019e-14 -3.04607e-14 -1.15874e-14 -3.4496e-14 -4.60364e-14 -3.3376e-14 1.54021e-14 -1.94571e-14 -8.62673e-14 9.02119e-15 -6.57281e-14 -7.85238e-14 8.86819e-14 -9.34278e-14 3.95294e-14 -4.1424e-14 -1.63165e-13 -4.30434e-14 -4.82013e-14 -7.60151e-14 -6.50011e-14 -3.06122e-14 -1.89028e-13 -1.14679e-14 -1.09304e-13 5.32167e-14 -2.23814e-14 1.6823e-13 -1.484e-14 -1.46881e-14 1.16966e-13 9.29366e-13 5.64854e-12 3.31722e-11 1.93349e-10 1.06769e-09 5.59122e-09 2.7695e-08 1.29427e-07 5.69079e-07 2.34669e-06 9.0424e-06 3.24197e-05 0.000107611 0.000328753 0.000918051 0.00232572 0.00530527 0.0108369 0.0198001 0.0325391 0.0486965 0.0674786 0.0880614 0.109815 0.132332 0.155369 0.178755 0.20238 0.226179 0.250116 0.274165 0.298312 0.322548 0.346871 0.371283 0.395789 0.420395 0.445054 0.469415 0.493732 0.517757 0.541779 0.565496 0.589249 0.612687 0.636108 0.659209 0.682167 0.705023 0.727587 0.750162 0.772442 0.794356 0.816155 0.836861 0.856993 0.875646 0.891777 0.905974 0.916579 0.923781 0.928781 0.930974 0.931792 0.932103 0.932074 0.931936 0.931699 0.931394 0.931045 0.930671 0.930289 0.929929 0.92961 0.929338 0.929109 0.928916 0.928756 0.928637 0.928531 0.928423 0.928334 0.928264 0.928208 0.928159 0.928116 0.928077 0.928042 0.92801 0.927981 0.927954 0.927931 0.927909 0.927889 0.927869 0.92785 0.927831 0.927814 0.927797 0.927782 0.927767 0.927754 0.927743 0.927734 0.927725 0.927708 0.927677 0.92762 0.9275 0.927245 0.926706 0.925597 0.923351 0.91888 0.910173 0.893728 0.864039 0.813797 0.735797 0.627064 0.494286 0.354079 0.226845 0.127761 0.0628745 0.0275534 0.0111806 0.00435801 0.00166794 0.000633199 0.000239404 9.02778e-05 3.39671e-05 1.27512e-05 4.77499e-06 1.78321e-06 6.63901e-07 2.46336e-07 9.10591e-08 3.3522e-08 1.22856e-08 4.48064e-09 1.62557e-09 5.86144e-10 2.1015e-10 7.45212e-11 2.61513e-11 8.90713e-12 2.63645e-12 9.4899e-14 5.54006e-13 2.17533e-13 -1.63013e-13 -2.71641e-13 -1.59434e-13 -2.71428e-13 2.68363e-13 -3.87659e-13 5.11266e-13 0 0 -1.679e-15 3.82108e-15 -2.93109e-14 -6.26211e-15 -2.92161e-14 -6.47775e-14 -1.67975e-14 -2.5572e-14 -6.34882e-14 -2.65524e-14 -7.77175e-14 -4.48022e-14 -2.34218e-15 -2.47035e-14 3.69873e-14 -2.08429e-14 -8.16171e-15 -4.66177e-14 -1.53982e-13 -2.98171e-14 3.64756e-14 -1.07345e-13 2.29126e-14 -9.37888e-14 -8.21524e-14 6.63601e-14 -1.85037e-13 -5.87871e-14 1.0599e-13 -1.77927e-13 4.89269e-15 -3.41503e-13 -8.68891e-14 1.92041e-13 1.8078e-14 1.8211e-13 2.42357e-14 -1.42395e-13 -7.97231e-14 -2.36162e-14 1.07651e-12 5.39145e-12 3.33506e-11 1.93477e-10 1.06798e-09 5.59115e-09 2.76948e-08 1.29427e-07 5.69079e-07 2.34669e-06 9.0424e-06 3.24197e-05 0.000107611 0.000328753 0.000918051 0.00232572 0.00530527 0.0108369 0.0198001 0.0325391 0.0486965 0.0674786 0.0880614 0.109815 0.132332 0.155369 0.178755 0.20238 0.226179 0.250116 0.274165 0.298312 0.322548 0.346871 0.371283 0.395789 0.420395 0.445054 0.469415 0.493732 0.517757 0.541779 0.565496 0.589249 0.612687 0.636108 0.659209 0.682167 0.705023 0.727587 0.750162 0.772442 0.794356 0.816155 0.836861 0.856993 0.875646 0.891777 0.905974 0.916579 0.923781 0.928781 0.930974 0.931792 0.932103 0.932074 0.931936 0.931699 0.931394 0.931045 0.930671 0.930289 0.929929 0.92961 0.929338 0.929109 0.928916 0.928756 0.928637 0.928531 0.928423 0.928334 0.928264 0.928208 0.928159 0.928116 0.928077 0.928042 0.92801 0.927981 0.927954 0.927931 0.927909 0.927889 0.927869 0.92785 0.927831 0.927814 0.927797 0.927782 0.927767 0.927754 0.927743 0.927734 0.927725 0.927708 0.927677 0.92762 0.9275 0.927245 0.926706 0.925597 0.923351 0.91888 0.910173 0.893728 0.864039 0.813797 0.735797 0.627064 0.494286 0.354079 0.226845 0.127761 0.0628745 0.0275534 0.0111806 0.00435801 0.00166794 0.000633199 0.000239404 9.02778e-05 3.39671e-05 1.27512e-05 4.77499e-06 1.78321e-06 6.63901e-07 2.46336e-07 9.1059e-08 3.35225e-08 1.22854e-08 4.48095e-09 1.62518e-09 5.86217e-10 2.09976e-10 7.50822e-11 2.58352e-11 9.07489e-12 1.99912e-12 4.48649e-13 -1.10421e-13 8.05552e-13 2.21338e-13 -4.96035e-13 5.93421e-13 -5.24501e-13 -6.41819e-13 6.6616e-13 -4.23133e-13 0
				</DataArray>
				<DataArray Name="VitesseY" type="Float32" format="ascii">