<?xml version="1.0"?>
<VTKFile type="PolyData">
	<PolyData>
		<Piece NumberOfPoints="1206" NumberOfPolys="1000">
			<Points>
				<DataArray type="Float32" NumberOfComponents="3" format="ascii">
 0 0 0 0.005 0 0 0.01 0 0 0.015 0 0 0.02 0 0 0.025 0 0 0.03 0 0 0.035 0 0 0.04 0 0 0.045 0 0 0.05 0 0 0.055 0 0 0.06 0 0 0.065 0 0 0.07 0 0 0.075 0 0 0.08 0 0 0.085 0 0 0.09 0 0 0.095 0 0 0.1 0 0 0.105 0 0 0.11 0 0 0.115 0 0 0.12 0 0 0.125 0 0 0.13 0 0 0.135 0 0 0.14 0 0 0.145 0 0 0.15 0 0 0.155 0 0 0.16 0 0 0.165 0 0 0.17 0 0 0.175 0 0 0.18 0 0 0.185 0 0 0.19 0 0 0.195 0 0 0.2 0 0 0.205 0 0 0.21 0 0 0.215 0 0 0.22 0 0 0.225 0 0 0.23 0 0 0.235 0 0 0.24 0 0 0.245 0 0 0.25 0 0 0.255 0 0 0.26 0 0 0.265 0 0 0.27 0 0 0.275 0 0 0.28 0 0 0.285 0 0 0.29 0 0 0.295 0 0 0.3 0 0 0.305 0 0 0.31 0 0 0.315 0 0 0.32 0 0 0.325 0 0 0.33 0 0 0.335 0 0 0.34 0 0 0.345 0 0 0.35 0 0 0.355 0 0 0.36 0 0 0.365 0 0 0.37 0 0 0.375 0 0 0.38 0 0 0.385 0 0 0.39 0 0 0.395 0 0 0.4 0 0 0.405 0 0 0.41 0 0 0.415 0 0 0.42 0 0 0.425 0 0 0.43 0 0 0.435 0 0 0.44 0 0 0.445 0 0 0.45 0 0 0.455 0 0 0.46 0 0 0.465 0 0 0.47 0 0 0.475 0 0 0.48 0 0 0.485 0 0 0.49 0 0 0.495 0 0 0.5 0 0 0.505 0 0 0.51 0 0 0.515 0 0 0.52 0 0 0.525 0 0 0.53 0 0 0.535 0 0 0.54 0 0 0.545 0 0 0.55 0 0 0.555 0 0 0.56 0 0 0.565 0 0 0.57 0 0 0.575 0 0 0.58 0 0 0.585 0 0 0.59 0 0 0.595 0 0 0.6 0 0 0.605 0 0 0.61 0 0 0.615 0 0 0.62 0 0 0.625 0 0 0.63 0 0 0.635 0 0 0.64 0 0 0.645 0 0 0.65 0 0 0.655 0 0 0.66 0 0 0.665 0 0 0.67 0 0 0.675 0 0 0.68 0 0 0.685 0 0 0.69 0 0 0.695 0 0 0.7 0 0 0.705 0 0 0.71 0 0 0.715 0 0 0.72 0 0 0.725 0 0 0.73 0 0 0.735 0 0 0.74 0 0 0.745 0 0 0.75 0 0 0.755 0 0 0.76 0 0 0.765 0 0 0.77 0 0 0.775 0 0 0.78 0 0 0.785 0 0 0.79 0 0 0.795 0 0 0.8 0 0 0.805 0 0 0.81 0 0 0.815 0 0 0.82 0 0 0.825 0 0 0.83 0 0 0.835 0 0 0.84 0 0 0.845 0 0 0.85 0 0 0.855 0 0 0.86 0 0 0.865 0 0 0.87 0 0 0.875 0 0 0.88 0 0 0.885 0 0 0.89 0 0 0.895 0 0 0.9 0 0 0.905 0 0 0.91 0 0 0.915 0 0 0.92 0 0 0.925 0 0 0.93 0 0 0.935 0 0 0.94 0 0 0.945 0 0 0.95 0 0 0.955 0 0 0.96 0 0 0.965 0 0 0.97 0 0 0.975 0 0 0.98 0 0 0.985 0 0 0.99 0 0 0.995 0 0 1 0 0 0 0.02 0 0.005 0.02 0 0.01 0.02 0 0.015 0.02 0 0.02 0.02 0 0.025 0.02 0 0.03 0.02 0 0.035 0.02 0 0.04 0.02 0 0.045 0.02 0 0.05 0.02 0 0.055 0.02 0 0.06 0.02 0 0.065 0.02 0 0.07 0.02 0 0.075 0.02 0 0.08 0.02 0 0.085 0.02 0 0.09 0.02 0 0.095 0.02 0 0.1 0.02 0 0.105 0.02 0 0.11 0.02 0 0.115 0.02 0 0.12 0.02 0 0.125 0.02 0 0.13 0.02 0 0.135 0.02 0 0.14 0.02 0 0.145 0.02 0 0.15 0.02 0 0.155 0.02 0 0.16 0.02 0 0.165 0.02 0 0.17 0.02 0 0.175 0.02 0 0.18 0.02 0 0.185 0.02 0 0.19 0.02 0 0.195 0.02 0 0.2 0.02 0 0.205 0.02 0 0.21 0.02 0 0.215 0.02 0 0.22 0.02 0 0.225 0.02 0 0.23 0.02 0 0.235 0.02 0 0.24 0.02 0 0.245 0.02 0 0.25 0.02 0 0.255 0.02 0 0.26 0.02 0 0.265 0.02 0 0.27 0.02 0 0.275 0.02 0 0.28 0.02 0 0.285 0.02 0 0.29 0.02 0 0.295 0.02 0 0.3 0.02 0 0.305 0.02 0 0.31 0.02 0 0.315 0.02 0 0.32 0.02 0 0.325 0.02 0 0.33 0.02 0 0.335 0.02 0 0.34 0.02 0 0.345 0.02 0 0.35 0.02 0 0.355 0.02 0 0.36 0.02 0 0.365 0.02 0 0.37 0.02 0 0.375 0.02 0 0.38 0.02 0 0.385 0.02 0 0.39 0.02 0 0.395 0.02 0 0.4 0.02 0 0.405 0.02 0 0.41 0.02 0 0.415 0.02 0 0.42 0.02 0 0.425 0.02 0 0.43 0.02 0 0.435 0.02 0 0.44 0.02 0 0.445 0.02 0 0.45 0.02 0 0.455 0.02 0 0.46 0.02 0 0.465 0.02 0 0.47 0.02 0 0.475 0.02 0 0.48 0.02 0 0.485 0.02 0 0.49 0.02 0 0.495 0.02 0 0.5 0.02 0 0.505 0.02 0 0.51 0.02 0 0.515 0.02 0 0.52 0.02 0 0.525 0.02 0 0.53 0.02 0 0.535 0.02 0 0.54 0.02 0 0.545 0.02 0 0.55 0.02 0 0.555 0.02 0 0.56 0.02 0 0.565 0.02 0 0.57 0.02 0 0.575 0.02 0 0.58 0.02 0 0.585 0.02 0 0.59 0.02 0 0.595 0.02 0 0.6 0.02 0 0.605 0.02 0 0.61 0.02 0 0.615 0.02 0 0.62 0.02 0 0.625 0.02 0 0.63 0.02 0 0.635 0.02 0 0.64 0.02 0 0.645 0.02 0 0.65 0.02 0 0.655 0.02 0 0.66 0.02 0 0.665 0.02 0 0.67 0.02 0 0.675 0.02 0 0.68 0.02 0 0.685 0.02 0 0.69 0.02 0 0.695 0.02 0 0.7 0.02 0 0.705 0.02 0 0.71 0.02 0 0.715 0.02 0 0.72 0.02 0 0.725 0.02 0 0.73 0.02 0 0.735 0.02 0 0.74 0.02 0 0.745 0.02 0 0.75 0.02 0 0.755 0.02 0 0.76 0.02 0 0.765 0.02 0 0.77 0.02 0 0.775 0.02 0 0.78 0.02 0 0.785 0.02 0 0.79 0.02 0 0.795 0.02 0 0.8 0.02 0 0.805 0.02 0 0.81 0.02 0 0.815 0.02 0 0.82 0.02 0 0.825 0.02 0 0.83 0.02 0 0.835 0.02 0 0.84 0.02 0 0.845 0.02 0 0.85 0.02 0 0.855 0.02 0 0.86 0.02 0 0.865 0.02 0 0.87 0.02 0 0.875 0.02 0 0.88 0.02 0 0.885 0.02 0 0.89 0.02 0 0.895 0.02 0 0.9 0.02 0 0.905 0.02 0 0.91 0.02 0 0.915 0.02 0 0.92 0.02 0 0.925 0.02 0 0.93 0.02 0 0.935 0.02 0 0.94 0.02 0 0.945 0.02 0 0.95 0.02 0 0.955 0.02 0 0.96 0.02 0 0.965 0.02 0 0.97 0.02 0 0.975 0.02 0 0.98 0.02 0 0.985 0.02 0 0.99 0.02 0 0.995 0.02 0 1 0.02 0 0 0.04 0 0.005 0.04 0 0.01 0.04 0 0.015 0.04 0 0.02 0.04 0 0.025 0.04 0 0.03 0.04 0 0.035 0.04 0 0.04 0.04 0 0.045 0.04 0 0.05 0.04 0 0.055 0.04 0 0.06 0.04 0 0.065 0.04 0 0.07 0.04 0 0.075 0.04 0 0.08 0.04 0 0.085 0.04 0 0.09 0.04 0 0.095 0.04 0 0.1 0.04 0 0.105 0.04 0 0.11 0.04 0 0.115 0.04 0 0.12 0.04 0 0.125 0.04 0 0.13 0.04 0 0.135 0.04 0 0.14 0.04 0 0.145 0.04 0 0.15 0.04 0 0.155 0.04 0 0.16 0.04 0 0.165 0.04 0 0.17 0.04 0 0.175 0.04 0 0.18 0.04 0 0.185 0.04 0 0.19 0.04 0 0.195 0.04 0 0.2 0.04 0 0.205 0.04 0 0.21 0.04 0 0.215 0.04 0 0.22 0.04 0 0.225 0.04 0 0.23 0.04 0 0.235 0.04 0 0.24 0.04 0 0.245 0.04 0 0.25 0.04 0 0.255 0.04 0 0.26 0.04 0 0.265 0.04 0 0.27 0.04 0 0.275 0.04 0 0.28 0.04 0 0.285 0.04 0 0.29 0.04 0 0.295 0.04 0 0.3 0.04 0 0.305 0.04 0 0.31 0.04 0 0.315 0.04 0 0.32 0.04 0 0.325 0.04 0 0.33 0.04 0 0.335 0.04 0 0.34 0.04 0 0.345 0.04 0 0.35 0.04 0 0.355 0.04 0 0.36 0.04 0 0.365 0.04 0 0.37 0.04 0 0.375 0.04 0 0.38 0.04 0 0.385 0.04 0 0.39 0.04 0 0.395 0.04 0 0.4 0.04 0 0.405 0.04 0 0.41 0.04 0 0.415 0.04 0 0.42 0.04 0 0.425 0.04 0 0.43 0.04 0 0.435 0.04 0 0.44 0.04 0 0.445 0.04 0 0.45 0.04 0 0.455 0.04 0 0.46 0.04 0 0.465 0.04 0 0.47 0.04 0 0.475 0.04 0 0.48 0.04 0 0.485 0.04 0 0.49 0.04 0 0.495 0.04 0 0.5 0.04 0 0.505 0.04 0 0.51 0.04 0 0.515 0.04 0 0.52 0.04 0 0.525 0.04 0 0.53 0.04 0 0.535 0.04 0 0.54 0.04 0 0.545 0.04 0 0.55 0.04 0 0.555 0.04 0 0.56 0.04 0 0.565 0.04 0 0.57 0.04 0 0.575 0.04 0 0.58 0.04 0 0.585 0.04 0 0.59 0.04 0 0.595 0.04 0 0.6 0.04 0 0.605 0.04 0 0.61 0.04 0 0.615 0.04 0 0.62 0.04 0 0.625 0.04 0 0.63 0.04 0 0.635 0.04 0 0.64 0.04 0 0.645 0.04 0 0.65 0.04 0 0.655 0.04 0 0.66 0.04 0 0.665 0.04 0 0.67 0.04 0 0.675 0.04 0 0.68 0.04 0 0.685 0.04 0 0.69 0.04 0 0.695 0.04 0 0.7 0.04 0 0.705 0.04 0 0.71 0.04 0 0.715 0.04 0 0.72 0.04 0 0.725 0.04 0 0.73 0.04 0 0.735 0.04 0 0.74 0.04 0 0.745 0.04 0 0.75 0.04 0 0.755 0.04 0 0.76 0.04 0 0.765 0.04 0 0.77 0.04 0 0.775 0.04 0 0.78 0.04 0 0.785 0.04 0 0.79 0.04 0 0.795 0.04 0 0.8 0.04 0 0.805 0.04 0 0.81 0.04 0 0.815 0.04 0 0.82 0.04 0 0.825 0.04 0 0.83 0.04 0 0.835 0.04 0 0.84 0.04 0 0.845 0.04 0 0.85 0.04 0 0.855 0.04 0 0.86 0.04 0 0.865 0.04 0 0.87 0.04 0 0.875 0.04 0 0.88 0.04 0 0.885 0.04 0 0.89 0.04 0 0.895 0.04 0 0.9 0.04 0 0.905 0.04 0 0.91 0.04 0 0.915 0.04 0 0.92 0.04 0 0.925 0.04 0 0.93 0.04 0 0.935 0.04 0 0.94 0.04 0 0.945 0.04 0 0.95 0.04 0 0.955 0.04 0 0.96 0.04 0 0.965 0.04 0 0.97 0.04 0 0.975 0.04 0 0.98 0.04 0 0.985 0.04 0 0.99 0.04 0 0.995 0.04 0 1 0.04 0 0 0.06 0 0.005 0.06 0 0.01 0.06 0 0.015 0.06 0 0.02 0.06 0 0.025 0.06 0 0.03 0.06 0 0.035 0.06 0 0.04 0.06 0 0.045 0.06 0 0.05 0.06 0 0.055 0.06 0 0.06 0.06 0 0.065 0.06 0 0.07 0.06 0 0.075 0.06 0 0.08 0.06 0 0.085 0.06 0 0.09 0.06 0 0.095 0.06 0 0.1 0.06 0 0.105 0.06 0 0.11 0.06 0 0.115 0.06 0 0.12 0.06 0 0.125 0.06 0 0.13 0.06 0 0.135 0.06 0 0.14 0.06 0 0.145 0.06 0 0.15 0.06 0 0.155 0.06 0 0.16 0.06 0 0.165 0.06 0 0.17 0.06 0 0.175 0.06 0 0.18 0.06 0 0.185 0.06 0 0.19 0.06 0 0.195 0.06 0 0.2 0.06 0 0.205 0.06 0 0.21 0.06 0 0.215 0.06 0 0.22 0.06 0 0.225 0.06 0 0.23 0.06 0 0.235 0.06 0 0.24 0.06 0 0.245 0.06 0 0.25 0.06 0 0.255 0.06 0 0.26 0.06 0 0.265 0.06 0 0.27 0.06 0 0.275 0.06 0 0.28 0.06 0 0.285 0.06 0 0.29 0.06 0 0.295 0.06 0 0.3 0.06 0 0.305 0.06 0 0.31 0.06 0 0.315 0.06 0 0.32 0.06 0 0.325 0.06 0 0.33 0.06 0 0.335 0.06 0 0.34 0.06 0 0.345 0.06 0 0.35 0.06 0 0.355 0.06 0 0.36 0.06 0 0.365 0.06 0 0.37 0.06 0 0.375 0.06 0 0.38 0.06 0 0.385 0.06 0 0.39 0.06 0 0.395 0.06 0 0.4 0.06 0 0.405 0.06 0 0.41 0.06 0 0.415 0.06 0 0.42 0.06 0 0.425 0.06 0 0.43 0.06 0 0.435 0.06 0 0.44 0.06 0 0.445 0.06 0 0.45 0.06 0 0.455 0.06 0 0.46 0.06 0 0.465 0.06 0 0.47 0.06 0 0.475 0.06 0 0.48 0.06 0 0.485 0.06 0 0.49 0.06 0 0.495 0.06 0 0.5 0.06 0 0.505 0.06 0 0.51 0.06 0 0.515 0.06 0 0.52 0.06 0 0.525 0.06 0 0.53 0.06 0 0.535 0.06 0 0.54 0.06 0 0.545 0.06 0 0.55 0.06 0 0.555 0.06 0 0.56 0.06 0 0.565 0.06 0 0.57 0.06 0 0.575 0.06 0 0.58 0.06 0 0.585 0.06 0 0.59 0.06 0 0.595 0.06 0 0.6 0.06 0 0.605 0.06 0 0.61 0.06 0 0.615 0.06 0 0.62 0.06 0 0.625 0.06 0 0.63 0.06 0 0.635 0.06 0 0.64 0.06 0 0.645 0.06 0 0.65 0.06 0 0.655 0.06 0 0.66 0.06 0 0.665 0.06 0 0.67 0.06 0 0.675 0.06 0 0.68 0.06 0 0.685 0.06 0 0.69 0.06 0 0.695 0.06 0 0.7 0.06 0 0.705 0.06 0 0.71 0.06 0 0.715 0.06 0 0.72 0.06 0 0.725 0.06 0 0.73 0.06 0 0.735 0.06 0 0.74 0.06 0 0.745 0.06 0 0.75 0.06 0 0.755 0.06 0 0.76 0.06 0 0.765 0.06 0 0.77 0.06 0 0.775 0.06 0 0.78 0.06 0 0.785 0.06 0 0.79 0.06 0 0.795 0.06 0 0.8 0.06 0 0.805 0.06 0 0.81 0.06 0 0.815 0.06 0 0.82 0.06 0 0.825 0.06 0 0.83 0.06 0 0.835 0.06 0 0.84 0.06 0 0.845 0.06 0 0.85 0.06 0 0.855 0.06 0 0.86 0.06 0 0.865 0.06 0 0.87 0.06 0 0.875 0.06 0 0.88 0.06 0 0.885 0.06 0 0.89 0.06 0 0.895 0.06 0 0.9 0.06 0 0.905 0.06 0 0.91 0.06 0 0.915 0.06 0 0.92 0.06 0 0.925 0.06 0 0.93 0.06 0 0.935 0.06 0 0.94 0.06 0 0.945 0.06 0 0.95 0.06 0 0.955 0.06 0 0.96 0.06 0 0.965 0.06 0 0.97 0.06 0 0.975 0.06 0 0.98 0.06 0 0.985 0.06 0 0.99 0.06 0 0.995 0.06 0 1 0.06 0 0 0.08 0 0.005 0.08 0 0.01 0.08 0 0.015 0.08 0 0.02 0.08 0 0.025 0.08 0 0.03 0.08 0 0.035 0.08 0 0.04 0.08 0 0.045 0.08 0 0.05 0.08 0 0.055 0.08 0 0.06 0.08 0 0.065 0.08 0 0.07 0.08 0 0.075 0.08 0 0.08 0.08 0 0.085 0.08 0 0.09 0.08 0 0.095 0.08 0 0.1 0.08 0 0.105 0.08 0 0.11 0.08 0 0.115 0.08 0 0.12 0.08 0 0.125 0.08 0 0.13 0.08 0 0.135 0.08 0 0.14 0.08 0 0.145 0.08 0 0.15 0.08 0 0.155 0.08 0 0.16 0.08 0 0.165 0.08 0
[...]
			<PointData Scalars="VitesseX">
				<DataArray Name="VitesseX" type="Float32" format="ascii">
 0 -5.99208e-15 1.11035e-15 -1.133e-14 -7.77444e-15 9.09624e-16 7.06022e-15 -2.83827e-14 -1.79174e-14 -3.82779e-14 -1.50075e-14 1.36398e-14 -4.16394e-14 -3.9064e-14 -3.13925e-14 -7.53565e-14 -7.94199e-14 -9.26588e-14 -3.4359e-14 -1.4598e-13 -2.64766e-14 -2.48639e-14 -1.12949e-13 3.47418e-14 -2.78416e-14 -7.93173e-14 1.96466e-13 -1.15409e-13 -1.60167e-13 6.25029e-14 -3.26499e-14 -1.28278e-13 -5.84088e-14 -4.11377e-14 -8.96908e-14 -1.18956e-13 -4.33634e-14 -7.45382e-14 -1.24573e-13 -2.4659e-14 9.54446e-14 -1.18964e-13 -4.2313e-14 2.53151e-13 1.47414e-12 9.22521e-12 5.85966e-11 3.46004e-10 1.94302e-09 1.03101e-08 5.15964e-08 2.42826e-07 1.07135e-06 4.4154e-06 1.69284e-05 6.00844e-05 0.000196294 0.000586295 0.00158863 0.00387331 0.00843705 0.0163596 0.0283145 0.0442006 0.0632673 0.0845752 0.107348 0.131065 0.155416 0.180194 0.205255 0.230521 0.255947 0.281502 0.307172 0.332947 0.358826 0.384815 0.410922 0.437137 0.463164 0.488918 0.514561 0.539971 0.565213 0.590346 0.615198 0.639996 0.664375 0.688705 0.712753 0.736573 0.760425 0.783637 0.80677 0.82917 0.850303 0.870646 0.888191 0.903125 0.915309 0.923064 0.92826 0.931181 0.931909 0.93219 0.932185 0.932072 0.931832 0.931493 0.931101 0.930693 0.930298 0.929935 0.92961 0.929334 0.929102 0.928915 0.928778 0.92864 0.928512 0.92841 0.928332 0.928269 0.928215 0.928167 0.928124 0.928085 0.928049 0.928017 0.927988 0.927962 0.927936 0.927912 0.927889 0.927867 0.927847 0.927827 0.92781 0.927794 0.927782 0.927774 0.927764 0.927744 0.927702 0.927622 0.927456 0.927095 0.926333 0.924764 0.921592 0.915317 0.903233 0.880835 0.841563 0.777748 0.683774 0.560879 0.421698 0.285649 0.171473 0.08995 0.0414808 0.0173558 0.00686199 0.00264008 0.00100339 0.000379105 0.00014273 5.35855e-05 2.00626e-05 7.48945e-06 2.78679e-06 1.03323e-06 3.81558e-07 1.4029e-07 5.13366e-08 1.86888e-08 6.76601e-09 2.4352e-09 8.70534e-10 3.09081e-10 1.0873e-10 3.78369e-11 1.34812e-11 3.88795e-12 1.05643e-12 8.36391e-13 -2.25148e-13 -3.97798e-13 1.45587e-13 -3.83255e-13 -2.35174e-13 7.19698e-13 -4.4706e-13 4.27465e-13 6.85623e-14 -6.02893e-13 5.63957e-13 5.1423e-14 0 0 -6.0732e-15 -1.45291e-14 -3.63175e-15 -3.03627e-15 -1.60268e-14 -5.99675e-16 -1.45066e-14 -1.16788e-14 1.09778e-15 -4.85384e-14 -3.81922e-14 -1.29527e-14 -3.14931e-14 -8.35527e-14 -6.81968e-14 -5.5074e-14 -1.13453e-13 -9.08307e-14 -2.75378e-14 -1.05267e-13 -5.0755e-14 2.70196e-14 -8.13845e-14 6.39312e-14 4.84504e-15 -1.8207e-13 7.25512e-14 3.41333e-15 -1.28517e-13 5.63103e-15 -5.37771e-14 -2.22624e-14 -1.37185e-13 -1.11628e-13 4.88594e-14 -1.07951e-13 -5.28703e-14 -3.58344e-14 -6.10238e-14 -1.19227e-13 2.20625e-14 5.28077e-14 8.93334e-14 1.4053e-12 9.47376e-12 5.83062e-11 3.46303e-10 1.94267e-09 1.03102e-08 5.15966e-08 2.42826e-07 1.07135e-06 4.4154e-06 1.69284e-05 6.00844e-05 0.000196294 0.000586295 0.00158863 0.00387331 0.00843705 0.0163596 0.0283145 0.0442006 0.0632673 0.0845752 0.107348 0.131065 0.155416 0.180194 0.205255 0.230521 0.255947 0.281502 0.307172 0.332947 0.358826 0.384815 0.410922 0.437137 0.463164 0.488918 0.514561 0.539971 0.565213 0.590346 0.615198 0.639996 0.664375 0.688705 0.712753 0.736573 0.760425 0.783637 0.80677 0.82917 0.850303 0.870646 0.888191 0.903125 0.915309 0.923064 0.92826 0.931181 0.931909 0.93219 0.932185 0.932072 0.931832 0.931493 0.931101 0.930693 0.930298 0.929935 0.92961 0.929334 0.929102 0.928915 0.928778 0.92864 0.928512 0.92841 0.928332 0.928269 0.928215 0.928167 0.928124 0.928085 0.928049 0.928017 0.927988 0.927962 0.927936 0.927912 0.927889 0.927867 0.927847 0.927827 0.92781 0.927794 0.927782 0.927774 0.927764 0.927744 0.927702 0.927622 0.927456 0.927095 0.926333 0.924764 0.921592 0.915317 0.903233 0.880835 0.841563 0.777748 0.683774 0.560879 0.421698 0.285649 0.171473 0.08995 0.0414808 0.0173558 0.00686199 0.00264008 0.00100339 0.000379105 0.00014273 5.35855e-05 2.00626e-05 7.48945e-06 2.78679e-06 1.03323e-06 3.81558e-07 1.40291e-07 5.13366e-08 1.8689e-08 6.766e-09 2.43469e-09 8.7059e-10 3.09295e-10 1.08826e-10 3.78709e-11 1.25882e-11 4.38143e-12 1.37192e-12 1.35704e-13 9.86422e-14 -2.41311e-13 1.6969e-13 -5.00664e-14 1.1607e-13 -3.17448e-13 3.76202e-13 -2.49005e-13 5.8334e-14 3.85485e-13 -1.82243e-15 2.51055e-13 0 0 -1.14052e-15 -6.98551e-15 -5.36845e-16 -1.71056e-14 -8.58746e-15 -2.89791e-14 -2.49745e-14 -3.40755e-14 -2.2807e-14 -1.66359e-14 -7.66957e-14 -6.03845e-14 -3.37357e-14 -4.48625e-14 -3.00638e-14 -8.83982e-14 -4.3558e-14 -6.74844e-14 -1.12354e-13 -4.50038e-14 -2.09196e-14 -3.17535e-14 -2.77793e-14 -3.82066e-14 -3.00037e-14 -1.94053e-14 -3.41265e-14 -6.91666e-14 2.45264e-14 -9.51537e-14 -5.8379e-14 -6.24775e-14 -5.75396e-14 -6.37256e-14 -6.14736e-14 4.70372e-14 -9.35645e-14 -8.38086e-14 -1.32942e-13 -6.55431e-14 -5.92118e-14 2.14348e-13 1.47388e-13 1.3636e-12 9.34133e-12 5.85154e-11 3.46043e-10 1.94294e-09 1.03101e-08 5.15967e-08 2.42826e-07 1.07135e-06 4.4154e-06 1.69284e-05 6.00844e-05 0.000196294 0.000586295 0.00158863 0.00387331 0.00843705 0.0163596 0.0283145 0.0442006 0.0632673 0.0845752 0.107348 0.131065 0.155416 0.180194 0.205255 0.230521 0.255947 0.281502 0.307172 0.332947 0.358826 0.384815 0.410922 0.437137 0.463164 0.488918 0.514561 0.539971 0.565213 0.590346 0.615198 0.639996 0.664375 0.688705 0.712753 0.736573 0.760425 0.783637 0.80677 0.82917 0.850303 0.870646 0.888191 0.903125 0.915309 0.923064 0.92826 0.931181 0.931909 0.93219 0.932185 0.932072 0.931832 0.931493 0.931101 0.930693 0.930298 0.929935 0.92961 0.929334 0.929102 0.928915 0.928778 0.92864 0.928512 0.92841 0.928332 0.928269 0.928215 0.928167 0.928124 0.928085 0.928049 0.928017 0.927988 0.927962 0.927936 0.927912 0.927889 0.927867 0.927847 0.927827 0.92781 0.927794 0.927782 0.927774 0.927764 0.927744 0.927702 0.927622 0.927456 0.927095 0.926333 0.924764 0.921592 0.915317 0.903233 0.880835 0.841563 0.777748 0.683774 0.560879 0.421698 0.285649 0.171473 0.08995 0.0414808 0.0173558 0.00686199 0.00264008 0.00100339 0.000379105 0.00014273 5.35855e-05 2.00626e-05 7.48945e-06 2.78679e-06 1.03323e-06 3.81558e-07 1.40291e-07 5.13365e-08 1.86891e-08 6.76571e-09 2.43484e-09 8.70753e-10 3.08851e-10 1.09008e-10 3.80572e-11 1.28405e-11 4.26054e-12 9.67158e-13 2.62634e-13 -3.61627e-14 2.65002e-13 -1.20979e-13 2.43385e-13 -5.889e-13 2.13632e-13 1.60273e-13 2.05067e-13 -6.26427e-14 -2.20089e-13 -1.33738e-13 -5.10595e-14 0 0 -4.6488e-16 3.61685e-15 -1.80008e-14 -1.33267e-14 -2.06383e-14 -1.44742e-14 -3.96544e-14 -7.53804e-14 -4.48974e-14 -5.47464e-14 -2.5356e-14 -3.41728e-14 -6.49215e-14 -6.15835e-14 -1.89803e-15 -1.04983e-13 -1.16592e-14 -1.31331e-14 -9.55786e-14 -2.71387e-14 -4.55481e-14 -6.18318e-14 3.5136e-14 -2.99012e-14 -1.1175e-14 7.86222e-14 -1.20052e-13 -1.52451e-13 -2.62816e-14 -8.38904e-14 -6.99883e-14 -1.61623e-13 -7.41331e-14 -2.93091e-14 -4.6648e-14 5.0062e-15 -6.18634e-14 -1.52194e-13 -1.98673e-14 1.53684e-13 -1.16536e-13 -5.629e-15 2.41989e-13 1.42757e-12 9.47215e-12 5.85036e-11 3.46127e-10 1.94294e-09 1.03102e-08 5.15966e-08 2.42826e-07 1.07135e-06 4.4154e-06 1.69284e-05 6.00844e-05 0.000196294 0.000586295 0.00158863 0.00387331 0.00843705 0.0163596 0.0283145 0.0442006 0.0632673 0.0845752 0.107348 0.131065 0.155416 0.180194 0.205255 0.230521 0.255947 0.281502 0.307172 0.332947 0.358826 0.384815 0.410922 0.437137 0.463164 0.488918 0.514561 0.539971 0.565213 0.590346 0.615198 0.639996 0.664375 0.688705 0.712753 0.736573 0.760425 0.783637 0.80677 0.82917 0.850303 0.870646 0.888191 0.903125 0.915309 0.923064 0.92826 0.931181 0.931909 0.93219 0.932185 0.932072 0.931832 0.931493 0.931101 0.930693 0.930298 0.929935 0.92961 0.929334 0.929102 0.928915 0.928778 0.92864 0.928512 0.92841 0.928332 0.928269 0.928215 0.928167 0.928124 0.928085 0.928049 0.928017 0.927988 0.927962 0.927936 0.927912 0.927889 0.927867 0.927847 0.927827 0.92781 0.927794 0.927782 0.927774 0.927764 0.927744 0.927702 0.927622 0.927456 0.927095 0.926333 0.924764 0.921592 0.915317 0.903233 0.880835 0.841563 0.777748 0.683774 0.560879 0.421698 0.285649 0.171473 0.08995 0.0414808 0.0173558 0.00686199 0.00264008 0.00100339 0.000379105 0.00014273 5.35855e-05 2.00626e-05 7.48945e-06 2.78679e-06 1.03323e-06 3.81558e-07 1.40291e-07 5.13365e-08 1.86889e-08 6.76576e-09 2.4354e-09 8.7076e-10 3.0861e-10 1.08701e-10 3.76447e-11 1.33807e-11 3.94261e-12 1.09652e-12 1.85882e-13 -9.43349e-14 -3.57237e-13 2.75807e-13 2.09227e-14 -2.39315e-13 4.05069e-13 -9.56381e-13 7.75448e-13 2.71312e-13 -2.438e-13 -5.32903e-13 -5.32488e-13 0 0 4.15805e-18 -2.87178e-15 -1.61129e-14 4.55094e-16 -3.73892e-14 -1.49144e-14 -4.40075e-14 -3.66364e-14 -3.60922e-14 -7.59224e-14 -2.29817e-14 -9.36589e-15 -4.55947e-14 -8.86912e-14 -4.51076e-14 -1.68671e-14 -1.8688e-14 -8.88999e-14 -1.24186e-14 -9.84834e-14 -3.64607e-14 3.09581e-14 -2.82095e-14 4.05752e-14 2.57543e-14 -1.51246e-13 -3.65832e-14 -2.85763e-14 -1.81289e-13 -8.31979e-15 -1.35057e-13 -6.87164e-14 -1.26097e-13 -6.28371e-14 1.23901e-14 -5.74995e-14 -4.73144e-14 -6.79772e-14 -2.04334e-14 2.00754e-14 -2.54553e-14 -5.24773e-14 2.31538e-13 1.46694e-12 9.57253e-12 5.84492e-11 3.46303e-10 1.94279e-09 1.03103e-08 5.15967e-08 2.42826e-07 1.07135e-06 4.4154e-06 1.69284e-05 6.00844e-05 0.000196294 0.000586295 0.00158863 0.00387331 0.00843705 0.0163596 0.0283145 0.0442006 0.0632673 0.0845752 0.107348 0.131065 0.155416 0.180194 0.205255 0.230521 0.255947 0.281502 0.307172 0.332947 0.358826 0.384815 0.410922 0.437137 0.463164 0.488918 0.514561 0.539971 0.565213 0.590346 0.615198 0.639996 0.664375 0.688705 0.712753 0.736573 0.760425 0.783637 0.80677 0.82917 0.850303 0.870646 0.888191 0.903125 0.915309 0.923064 0.92826 0.931181 0.931909 0.93219 0.932185 0.932072 0.931832 0.931493 0.931101 0.930693 0.930298 0.929935 0.92961 0.929334 0.929102 0.928915 0.928778 0.92864 0.928512 0.92841 0.928332 0.928269 0.928215 0.928167 0.928124 0.928085 0.928049 0.928017 0.927988 0.927962 0.927936 0.927912 0.927889 0.927867 0.927847 0.927827 0.92781 0.927794 0.927782 0.927774 0.927764 0.927744 0.927702 0.927622 0.927456 0.927095 0.926333 0.924764 0.921592 0.915317 0.903233 0.880835 0.841563 0.777748 0.683774 0.560879 0.421698 0.285649 0.171473 0.08995 0.0414808 0.0173558 0.00686199 0.00264008 0.00100339 0.000379105 0.00014273 5.35855e-05 2.00626e-05 7.48945e-06 2.78679e-06 1.03323e-06 3.81558e-07 1.4029e-07 5.1337e-08 1.86888e-08 6.766e-09 2.43475e-09 8.70723e-10 3.09294e-10 1.08696e-10 3.75091e-11 1.28643e-11 4.38533e-12 9.18475e-13 1.48684e-13 -1.48142e-13 -3.36918e-13 -6.93202e-14 -3.09772e-13 4.31161e-13 -2.50574e-13 -1.29956e-13 -2.53651e-13 2.34522e-13 5.05166e-13 -3.10521e-13 -2.48508e-13 0 0 4.81136e-15 3.22024e-15 -1.36426e-15 -8.34964e-15 -1.77135e-14 -5.05789e-14 -5.80246e-14 1.47774e-14 -6.84772e-14 6.44549e-15 -5.86188e-14 -8.68892e-14 -4.89577e-15 -8.22727e-15 -8.55097e-14 3.01631e-14 3.30727e-14 -1.392e-13 -1.49293e-13 -4.86392e-14 5.29815e-14 -4.49155e-14 1.52613e-14 -9.11643e-14 -7.5156e-14 6.20592e-14 -1.61827e-13 -5.75778e-14 5.85749e-14 -8.30781e-14 -2.6762e-13 4.69746e-14 1.42268e-14 -6.0942e-14 -2.21546e-13 1.41603e-13 -1.26829e-13 -5.20864e-14 -1.69628e-13 -6.44039e-14 -9.93512e-14 1.87071e-13 3.48357e-13 1.46946e-12 9.16114e-12 5.89062e-11 3.45836e-10 1.94324e-09 1.03103e-08 5.15967e-08 2.42826e-07 1.07134e-06 4.4154e-06 1.69284e-05 6.00844e-05 0.000196294 0.000586295 0.00158863 0.00387331 0.00843705 0.0163596 0.0283145 0.0442006 0.0632673 0.0845752 0.107348 0.131065 0.155416 0.180194 0.205255 0.230521 0.255947 0.281502 0.307172 0.332947 0.358826 0.384815 0.410922 0.437137 0.463164 0.488918 0.514561 0.539971 0.565213 0.590346 0.615198 0.639996 0.664375 0.688705 0.712753 0.736573 0.760425 0.783637 0.80677 0.82917 0.850303 0.870646 0.888191 0.903125 0.915309 0.923064 0.92826 0.931181 0.931909 0.93219 0.932185 0.932072 0.931832 0.931493 0.931101 0.930693 0.930298 0.929935 0.92961 0.929334 0.929102 0.928915 0.928778 0.92864 0.928512 0.92841 0.928332 0.928269 0.928215 0.928167 0.928124 0.928085 0.928049 0.928017 0.927988 0.927962 0.927936 0.927912 0.927889 0.927867 0.927847 0.927827 0.92781 0.927794 0.927782 0.927774 0.927764 0.927744 0.927702 0.927622 0.927456 0.927095 0.926333 0.924764 0.921592 0.915317 0.903233 0.880835 0.841563 0.777748 0.683774 0.560879 0.421698 0.285649 0.171473 0.08995 0.0414808 0.0173558 0.00686199 0.00264008 0.00100339 0.000379105 0.00014273 5.35855e-05 2.00626e-05 7.48945e-06 2.78679e-06 1.03323e-06 3.81557e-07 1.4029e-07 5.13373e-08 1.8689e-08 6.76591e-09 2.4342e-09 8.70786e-10 3.0956e-10 1.09085e-10 3.79382e-11 1.29531e-11 4.53159e-12 -1.09188e-13 1.01586e-12 -6.02373e-13 6.55468e-13 -1.12601e-12 -4.57742e-13 -3.04162e-13 4.70573e-13 7.73932e-13 -7.22588e-13 -2.46972e-13 -3.16108e-13 7.4489e-13 1.51541e-14 0
				</DataArray>
				<DataArray Name="VitesseY" type="Float32" format="ascii">