<?xml version="1.0"?>
<VTKFile type="PolyData">
	<PolyData>
		<Piece NumberOfPoints="1206" NumberOfPolys="1000">
			<Points>
				<DataArray type="Float32" NumberOfComponents="3" format="ascii">
 0 0 0 0.005 0 0 0.01 0 0 0.015 0 0 0.02 0 0 0.025 0 0 0.03 0 0 0.035 0 0 0.04 0 0 0.045 0 0 0.05 0 0 0.055 0 0 0.06 0 0 0.065 0 0 0.07 0 0 0.075 0 0 0.08 0 0 0.085 0 0 0.09 0 0 0.095 0 0 0.1 0 0 0.105 0 0 0.11 0 0 0.115 0 0 0.12 0 0 0.125 0 0 0.13 0 0 0.135 0 0 0.14 0 0 0.145 0 0 0.15 0 0 0.155 0 0 0.16 0 0 0.165 0 0 0.17 0 0 0.175 0 0 0.18 0 0 0.185 0 0 0.19 0 0 0.195 0 0 0.2 0 0 0.205 0 0 0.21 0 0 0.215 0 0 0.22 0 0 0.225 0 0 0.23 0 0 0.235 0 0 0.24 0 0 0.245 0 0 0.25 0 0 0.255 0 0 0.26 0 0 0.265 0 0 0.27 0 0 0.275 0 0 0.28 0 0 0.285 0 0 0.29 0 0 0.295 0 0 0.3 0 0 0.305 0 0 0.31 0 0 0.315 0 0 0.32 0 0 0.325 0 0 0.33 0 0 0.335 0 0 0.34 0 0 0.345 0 0 0.35 0 0 0.355 0 0 0.36 0 0 0.365 0 0 0.37 0 0 0.375 0 0 0.38 0 0 0.385 0 0 0.39 0 0 0.395 0 0 0.4 0 0 0.405 0 0 0.41 0 0 0.415 0 0 0.42 0 0 0.425 0 0 0.43 0 0 0.435 0 0 0.44 0 0 0.445 0 0 0.45 0 0 0.455 0 0 0.46 0 0 0.465 0 0 0.47 0 0 0.475 0 0 0.48 0 0 0.485 0 0 0.49 0 0 0.495 0 0 0.5 0 0 0.505 0 0 0.51 0 0 0.515 0 0 0.52 0 0 0.525 0 0 0.53 0 0 0.535 0 0 0.54 0 0 0.545 0 0 0.55 0 0 0.555 0 0 0.56 0 0 0.565 0 0 0.57 0 0 0.575 0 0 0.58 0 0 0.585 0 0 0.59 0 0 0.595 0 0 0.6 0 0 0.605 0 0 0.61 0 0 0.615 0 0 0.62 0 0 0.625 0 0 0.63 0 0 0.635 0 0 0.64 0 0 0.645 0 0 0.65 0 0 0.655 0 0 0.66 0 0 0.665 0 0 0.67 0 0 0.675 0 0 0.68 0 0 0.685 0 0 0.69 0 0 0.695 0 0 0.7 0 0 0.705 0 0 0.71 0 0 0.715 0 0 0.72 0 0 0.725 0 0 0.73 0 0 0.735 0 0 0.74 0 0 0.745 0 0 0.75 0 0 0.755 0 0 0.76 0 0 0.765 0 0 0.77 0 0 0.775 0 0 0.78 0 0 0.785 0 0 0.79 0 0 0.795 0 0 0.8 0 0 0.805 0 0 0.81 0 0 0.815 0 0 0.82 0 0 0.825 0 0 0.83 0 0 0.835 0 0 0.84 0 0 0.845 0 0 0.85 0 0 0.855 0 0 0.86 0 0 0.865 0 0 0.87 0 0 0.875 0 0 0.88 0 0 0.885 0 0 0.89 0 0 0.895 0 0 0.9 0 0 0.905 0 0 0.91 0 0 0.915 0 0 0.92 0 0 0.925 0 0 0.93 0 0 0.935 0 0 0.94 0 0 0.945 0 0 0.95 0 0 0.955 0 0 0.96 0 0 0.965 0 0 0.97 0 0 0.975 0 0 0.98 0 0 0.985 0 0 0.99 0 0 0.995 0 0 1 0 0 0 0.02 0 0.005 0.02 0 0.01 0.02 0 0.015 0.02 0 0.02 0.02 0 0.025 0.02 0 0.03 0.02 0 0.035 0.02 0 0.04 0.02 0 0.045 0.02 0 0.05 0.02 0 0.055 0.02 0 0.06 0.02 0 0.065 0.02 0 0.07 0.02 0 0.075 0.02 0 0.08 0.02 0 0.085 0.02 0 0.09 0.02 0 0.095 0.02 0 0.1 0.02 0 0.105 0.02 0 0.11 0.02 0 0.115 0.02 0 0.12 0.02 0 0.125 0.02 0 0.13 0.02 0 0.135 0.02 0 0.14 0.02 0 0.145 0.02 0 0.15 0.02 0 0.155 0.02 0 0.16 0.02 0 0.165 0.02 0 0.17 0.02 0 0.175 0.02 0 0.18 0.02 0 0.185 0.02 0 0.19 0.02 0 0.195 0.02 0 0.2 0.02 0 0.205 0.02 0 0.21 0.02 0 0.215 0.02 0 0.22 0.02 0 0.225 0.02 0 0.23 0.02 0 0.235 0.02 0 0.24 0.02 0 0.245 0.02 0 0.25 0.02 0 0.255 0.02 0 0.26 0.02 0 0.265 0.02 0 0.27 0.02 0 0.275 0.02 0 0.28 0.02 0 0.285 0.02 0 0.29 0.02 0 0.295 0.02 0 0.3 0.02 0 0.305 0.02 0 0.31 0.02 0 0.315 0.02 0 0.32 0.02 0 0.325 0.02 0 0.33 0.02 0 0.335 0.02 0 0.34 0.02 0 0.345 0.02 0 0.35 0.02 0 0.355 0.02 0 0.36 0.02 0 0.365 0.02 0 0.37 0.02 0 0.375 0.02 0 0.38 0.02 0 0.385 0.02 0 0.39 0.02 0 0.395 0.02 0 0.4 0.02 0 0.405 0.02 0 0.41 0.02 0 0.415 0.02 0 0.42 0.02 0 0.425 0.02 0 0.43 0.02 0 0.435 0.02 0 0.44 0.02 0 0.445 0.02 0 0.45 0.02 0 0.455 0.02 0 0.46 0.02 0 0.465 0.02 0 0.47 0.02 0 0.475 0.02 0 0.48 0.02 0 0.485 0.02 0 0.49 0.02 0 0.495 0.02 0 0.5 0.02 0 0.505 0.02 0 0.51 0.02 0 0.515 0.02 0 0.52 0.02 0 0.525 0.02 0 0.53 0.02 0 0.535 0.02 0 0.54 0.02 0 0.545 0.02 0 0.55 0.02 0 0.555 0.02 0 0.56 0.02 0 0.565 0.02 0 0.57 0.02 0 0.575 0.02 0 0.58 0.02 0 0.585 0.02 0 0.59 0.02 0 0.595 0.02 0 0.6 0.02 0 0.605 0.02 0 0.61 0.02 0 0.615 0.02 0 0.62 0.02 0 0.625 0.02 0 0.63 0.02 0 0.635 0.02 0 0.64 0.02 0 0.645 0.02 0 0.65 0.02 0 0.655 0.02 0 0.66 0.02 0 0.665 0.02 0 0.67 0.02 0 0.675 0.02 0 0.68 0.02 0 0.685 0.02 0 0.69 0.02 0 0.695 0.02 0 0.7 0.02 0 0.705 0.02 0 0.71 0.02 0 0.715 0.02 0 0.72 0.02 0 0.725 0.02 0 0.73 0.02 0 0.735 0.02 0 0.74 0.02 0 0.745 0.02 0 0.75 0.02 0 0.755 0.02 0 0.76 0.02 0 0.765 0.02 0 0.77 0.02 0 0.775 0.02 0 0.78 0.02 0 0.785 0.02 0 0.79 0.02 0 0.795 0.02 0 0.8 0.02 0 0.805 0.02 0 0.81 0.02 0 0.815 0.02 0 0.82 0.02 0 0.825 0.02 0 0.83 0.02 0 0.835 0.02 0 0.84 0.02 0 0.845 0.02 0 0.85 0.02 0 0.855 0.02 0 0.86 0.02 0 0.865 0.02 0 0.87 0.02 0 0.875 0.02 0 0.88 0.02 0 0.885 0.02 0 0.89 0.02 0 0.895 0.02 0 0.9 0.02 0 0.905 0.02 0 0.91 0.02 0 0.915 0.02 0 0.92 0.02 0 0.925 0.02 0 0.93 0.02 0 0.935 0.02 0 0.94 0.02 0 0.945 0.02 0 0.95 0.02 0 0.955 0.02 0 0.96 0.02 0 0.965 0.02 0 0.97 0.02 0 0.975 0.02 0 0.98 0.02 0 0.985 0.02 0 0.99 0.02 0 0.995 0.02 0 1 0.02 0 0 0.04 0 0.005 0.04 0 0.01 0.04 0 0.015 0.04 0 0.02 0.04 0 0.025 0.04 0 0.03 0.04 0 0.035 0.04 0 0.04 0.04 0 0.045 0.04 0 0.05 0.04 0 0.055 0.04 0 0.06 0.04 0 0.065 0.04 0 0.07 0.04 0 0.075 0.04 0 0.08 0.04 0 0.085 0.04 0 0.09 0.04 0 0.095 0.04 0 0.1 0.04 0 0.105 0.04 0 0.11 0.04 0 0.115 0.04 0 0.12 0.04 0 0.125 0.04 0 0.13 0.04 0 0.135 0.04 0 0.14 0.04 0 0.145 0.04 0 0.15 0.04 0 0.155 0.04 0 0.16 0.04 0 0.165 0.04 0 0.17 0.04 0 0.175 0.04 0 0.18 0.04 0 0.185 0.04 0 0.19 0.04 0 0.195 0.04 0 0.2 0.04 0 0.205 0.04 0 0.21 0.04 0 0.215 0.04 0 0.22 0.04 0 0.225 0.04 0 0.23 0.04 0 0.235 0.04 0 0.24 0.04 0 0.245 0.04 0 0.25 0.04 0 0.255 0.04 0 0.26 0.04 0 0.265 0.04 0 0.27 0.04 0 0.275 0.04 0 0.28 0.04 0 0.285 0.04 0 0.29 0.04 0 0.295 0.04 0 0.3 0.04 0 0.305 0.04 0 0.31 0.04 0 0.315 0.04 0 0.32 0.04 0 0.325 0.04 0 0.33 0.04 0 0.335 0.04 0 0.34 0.04 0 0.345 0.04 0 0.35 0.04 0 0.355 0.04 0 0.36 0.04 0 0.365 0.04 0 0.37 0.04 0 0.375 0.04 0 0.38 0.04 0 0.385 0.04 0 0.39 0.04 0 0.395 0.04 0 0.4 0.04 0 0.405 0.04 0 0.41 0.04 0 0.415 0.04 0 0.42 0.04 0 0.425 0.04 0 0.43 0.04 0 0.435 0.04 0 0.44 0.04 0 0.445 0.04 0 0.45 0.04 0 0.455 0.04 0 0.46 0.04 0 0.465 0.04 0 0.47 0.04 0 0.475 0.04 0 0.48 0.04 0 0.485 0.04 0 0.49 0.04 0 0.495 0.04 0 0.5 0.04 0 0.505 0.04 0 0.51 0.04 0 0.515 0.04 0 0.52 0.04 0 0.525 0.04 0 0.53 0.04 0 0.535 0.04 0 0.54 0.04 0 0.545 0.04 0 0.55 0.04 0 0.555 0.04 0 0.56 0.04 0 0.565 0.04 0 0.57 0.04 0 0.575 0.04 0 0.58 0.04 0 0.585 0.04 0 0.59 0.04 0 0.595 0.04 0 0.6 0.04 0 0.605 0.04 0 0.61 0.04 0 0.615 0.04 0 0.62 0.04 0 0.625 0.04 0 0.63 0.04 0 0.635 0.04 0 0.64 0.04 0 0.645 0.04 0 0.65 0.04 0 0.655 0.04 0 0.66 0.04 0 0.665 0.04 0 0.67 0.04 0 0.675 0.04 0 0.68 0.04 0 0.685 0.04 0 0.69 0.04 0 0.695 0.04 0 0.7 0.04 0 0.705 0.04 0 0.71 0.04 0 0.715 0.04 0 0.72 0.04 0 0.725 0.04 0 0.73 0.04 0 0.735 0.04 0 0.74 0.04 0 0.745 0.04 0 0.75 0.04 0 0.755 0.04 0 0.76 0.04 0 0.765 0.04 0 0.77 0.04 0 0.775 0.04 0 0.78 0.04 0 0.785 0.04 0 0.79 0.04 0 0.795 0.04 0 0.8 0.04 0 0.805 0.04 0 0.81 0.04 0 0.815 0.04 0 0.82 0.04 0 0.825 0.04 0 0.83 0.04 0 0.835 0.04 0 0.84 0.04 0 0.845 0.04 0 0.85 0.04 0 0.855 0.04 0 0.86 0.04 0 0.865 0.04 0 0.87 0.04 0 0.875 0.04 0 0.88 0.04 0 0.885 0.04 0 0.89 0.04 0 0.895 0.04 0 0.9 0.04 0 0.905 0.04 0 0.91 0.04 0 0.915 0.04 0 0.92 0.04 0 0.925 0.04 0 0.93 0.04 0 0.935 0.04 0 0.94 0.04 0 0.945 0.04 0 0.95 0.04 0 0.955 0.04 0 0.96 0.04 0 0.965 0.04 0 0.97 0.04 0 0.975 0.04 0 0.98 0.04 0 0.985 0.04 0 0.99 0.04 0 0.995 0.04 0 1 0.04 0 0 0.06 0 0.005 0.06 0 0.01 0.06 0 0.015 0.06 0 0.02 0.06 0 0.025 0.06 0 0.03 0.06 0 0.035 0.06 0 0.04 0.06 0 0.045 0.06 0 0.05 0.06 0 0.055 0.06 0 0.06 0.06 0 0.065 0.06 0 0.07 0.06 0 0.075 0.06 0 0.08 0.06 0 0.085 0.06 0 0.09 0.06 0 0.095 0.06 0 0.1 0.06 0 0.105 0.06 0 0.11 0.06 0 0.115 0.06 0 0.12 0.06 0 0.125 0.06 0 0.13 0.06 0 0.135 0.06 0 0.14 0.06 0 0.145 0.06 0 0.15 0.06 0 0.155 0.06 0 0.16 0.06 0 0.165 0.06 0 0.17 0.06 0 0.175 0.06 0 0.18 0.06 0 0.185 0.06 0 0.19 0.06 0 0.195 0.06 0 0.2 0.06 0 0.205 0.06 0 0.21 0.06 0 0.215 0.06 0 0.22 0.06 0 0.225 0.06 0 0.23 0.06 0 0.235 0.06 0 0.24 0.06 0 0.245 0.06 0 0.25 0.06 0 0.255 0.06 0 0.26 0.06 0 0.265 0.06 0 0.27 0.06 0 0.275 0.06 0 0.28 0.06 0 0.285 0.06 0 0.29 0.06 0 0.295 0.06 0 0.3 0.06 0 0.305 0.06 0 0.31 0.06 0 0.315 0.06 0 0.32 0.06 0 0.325 0.06 0 0.33 0.06 0 0.335 0.06 0 0.34 0.06 0 0.345 0.06 0 0.35 0.06 0 0.355 0.06 0 0.36 0.06 0 0.365 0.06 0 0.37 0.06 0 0.375 0.06 0 0.38 0.06 0 0.385 0.06 0 0.39 0.06 0 0.395 0.06 0 0.4 0.06 0 0.405 0.06 0 0.41 0.06 0 0.415 0.06 0 0.42 0.06 0 0.425 0.06 0 0.43 0.06 0 0.435 0.06 0 0.44 0.06 0 0.445 0.06 0 0.45 0.06 0 0.455 0.06 0 0.46 0.06 0 0.465 0.06 0 0.47 0.06 0 0.475 0.06 0 0.48 0.06 0 0.485 0.06 0 0.49 0.06 0 0.495 0.06 0 0.5 0.06 0 0.505 0.06 0 0.51 0.06 0 0.515 0.06 0 0.52 0.06 0 0.525 0.06 0 0.53 0.06 0 0.535 0.06 0 0.54 0.06 0 0.545 0.06 0 0.55 0.06 0 0.555 0.06 0 0.56 0.06 0 0.565 0.06 0 0.57 0.06 0 0.575 0.06 0 0.58 0.06 0 0.585 0.06 0 0.59 0.06 0 0.595 0.06 0 0.6 0.06 0 0.605 0.06 0 0.61 0.06 0 0.615 0.06 0 0.62 0.06 0 0.625 0.06 0 0.63 0.06 0 0.635 0.06 0 0.64 0.06 0 0.645 0.06 0 0.65 0.06 0 0.655 0.06 0 0.66 0.06 0 0.665 0.06 0 0.67 0.06 0 0.675 0.06 0 0.68 0.06 0 0.685 0.06 0 0.69 0.06 0 0.695 0.06 0 0.7 0.06 0 0.705 0.06 0 0.71 0.06 0 0.715 0.06 0 0.72 0.06 0 0.725 0.06 0 0.73 0.06 0 0.735 0.06 0 0.74 0.06 0 0.745 0.06 0 0.75 0.06 0 0.755 0.06 0 0.76 0.06 0 0.765 0.06 0 0.77 0.06 0 0.775 0.06 0 0.78 0.06 0 0.785 0.06 0 0.79 0.06 0 0.795 0.06 0 0.8 0.06 0 0.805 0.06 0 0.81 0.06 0 0.815 0.06 0 0.82 0.06 0 0.825 0.06 0 0.83 0.06 0 0.835 0.06 0 0.84 0.06 0 0.845 0.06 0 0.85 0.06 0 0.855 0.06 0 0.86 0.06 0 0.865 0.06 0 0.87 0.06 0 0.875 0.06 0 0.88 0.06 0 0.885 0.06 0 0.89 0.06 0 0.895 0.06 0 0.9 0.06 0 0.905 0.06 0 0.91 0.06 0 0.915 0.06 0 0.92 0.06 0 0.925 0.06 0 0.93 0.06 0 0.935 0.06 0 0.94 0.06 0 0.945 0.06 0 0.95 0.06 0 0.955 0.06 0 0.96 0.06 0 0.965 0.06 0 0.97 0.06 0 0.975 0.06 0 0.98 0.06 0 0.985 0.06 0 0.99 0.06 0 0.995 0.06 0 1 0.06 0 0 0.08 0 0.005 0.08 0 0.01 0.08 0 0.015 0.08 0 0.02 0.08 0 0.025 0.08 0 0.03 0.08 0 0.035 0.08 0 0.04 0.08 0 0.045 0.08 0 0.05 0.08 0 0.055 0.08 0 0.06 0.08 0 0.065 0.08 0 0.07 0.08 0 0.075 0.08 0 0.08 0.08 0 0.085 0.08 0 0.09 0.08 0 0.095 0.08 0 0.1 0.08 0 0.105 0.08 0 0.11 0.08 0 0.115 0.08 0 0.12 0.08 0 0.125 0.08 0 0.13 0.08 0 0.135 0.08 0 0.14 0.08 0 0.145 0.08 0 0.15 0.08 0 0.155 0.08 0 0.16 0.08 0 0.165 0.08 0
[...]
			<PointData Scalars="VitesseX">
				<DataArray Name="VitesseX" type="Float32" format="ascii">
 0 -7.85483e-15 2.06018e-14 4.80869e-15 -1.41907e-14 3.47489e-14 5.97858e-14 -4.58535e-14 -2.75257e-14 -7.6019e-14 4.44655e-14 -2.56551e-14 5.94291e-14 -8.4306e-14 -3.40039e-14 -3.3075e-14 -9.09917e-14 -2.94566e-14 -4.26978e-14 -8.79403e-14 -1.12752e-13 -4.31224e-14 -2.08269e-13 -1.08861e-13 3.92496e-14 -1.50823e-13 -2.17622e-13 -7.613e-14 -5.22258e-14 -2.74532e-14 -6.25365e-14 -1.29589e-13 -1.79793e-14 -2.11374e-13 1.16148e-13 -2.77739e-13 -1.32858e-13 -1.50126e-13 -1.0026e-13 -1.31573e-13 -2.78973e-13 2.98289e-14 -1.64653e-13 2.54436e-13 -2.80786e-15 6.22616e-14 -2.03671e-13 2.80587e-14 1.61183e-14 -1.87673e-13 -1.43622e-13 -3.61466e-13 -2.43467e-13 2.85599e-13 -5.9171e-14 4.05627e-14 -3.24499e-13 -8.72051e-14 -1.26912e-13 8.37953e-14 -1.5421e-13 -2.60019e-13 -1.17538e-13 -2.53028e-13 -1.51158e-13 -7.21538e-14 1.04758e-12 7.57929e-12 7.30531e-11 6.61375e-10 5.54308e-09 4.26253e-08 2.99226e-07 1.90613e-06 1.09406e-05 5.60975e-05 0.000254271 0.0010057 0.00341757 0.00981458 0.0235239 0.0470621 0.0801206 0.12015 0.164564 0.211727 0.260679 0.310754 0.361718 0.413553 0.465848 0.515234 0.564768 0.611812 0.659265 0.704298 0.747738 0.790615 0.826387 0.861908 0.888579 0.905781 0.921261 0.92794 0.929358 0.931393 0.932651 0.93258 0.932075 0.931462 0.931033 0.930741 0.930444 0.930092 0.929725 0.929442 0.929235 0.929046 0.928815 0.928487 0.927939 0.926876 0.92467 0.920015 0.910384 0.891337 0.856092 0.796285 0.705108 0.582447 0.440432 0.299183 0.179326 0.0931499 0.0420162 0.0169663 0.00639982 0.00232584 0.000826785 0.000289141 9.9644e-05 3.3843e-05 1.13237e-05 3.73071e-06 1.20963e-06 3.85821e-07 1.2101e-07 3.73111e-08 1.13055e-08 3.366e-09 9.84971e-10 2.82118e-10 7.98962e-11 2.10508e-11 5.94636e-12 1.2008e-12 2.12945e-13 2.17825e-13 -3.25874e-13 1.47166e-13 -2.91086e-13 3.838e-13 -6.96089e-13 -2.05795e-13 4.95699e-13 -3.04545e-13 -9.58292e-15 -2.85409e-13 -6.64969e-13 6.06145e-13 -2.7941e-13 -4.11661e-14 -2.43664e-13 -1.20025e-12 7.23042e-13 -2.28937e-13 -5.92619e-14 -1.5056e-13 -1.99338e-13 8.22784e-13 -3.22762e-13 -3.46524e-13 1.42166e-13 1.83003e-13 -1.65748e-13 -7.4748e-13 -2.00123e-13 7.54041e-13 -9.06308e-13 1.5227e-13 -8.55747e-13 -1.32046e-13 1.12633e-12 -8.97458e-13 -2.3119e-13 -6.31466e-13 6.38651e-13 6.07496e-13 -4.74035e-14 -2.27943e-13 0 0 2.23878e-14 8.09153e-15 1.91723e-14 2.54152e-14 7.1571e-15 -3.66567e-14 1.32601e-14 -3.94042e-14 3.30788e-15 -8.35731e-14 8.98106e-15 -4.14764e-14 2.62908e-14 -6.10793e-14 -1.33293e-14 2.53975e-15 -9.20984e-14 -5.54729e-14 -9.20898e-14 -8.39652e-14 -7.6727e-14 -6.09271e-15 -1.52233e-13 -2.34535e-13 -9.33962e-14 6.5975e-14 -1.04317e-13 -1.87124e-13 -5.92937e-14 -2.62418e-14 8.97874e-15 -1.04837e-13 -3.57221e-14 -3.13128e-13 -1.42422e-13 -8.17172e-14 -1.17664e-13 -1.51422e-13 -7.98677e-14 -4.82272e-14 -1.36478e-13 9.23041e-14 -1.54798e-13 3.46649e-14 -7.13442e-14 7.32468e-14 -1.42422e-13 -2.20379e-13 -1.30689e-13 -2.32589e-13 -4.89492e-14 1.04358e-13 -2.90331e-13 -1.38358e-13 -8.74066e-14 1.10437e-13 -1.8291e-13 -8.84695e-14 -1.28986e-13 3.33935e-15 -3.33792e-14 -2.1281e-13 -6.81417e-14 -6.20947e-14 5.90723e-14 6.44653e-13 7.58543e-12 7.29285e-11 6.61837e-10 5.54313e-09 4.26246e-08 2.99225e-07 1.90613e-06 1.09406e-05 5.60975e-05 0.000254271 0.0010057 0.00341757 0.00981458 0.0235239 0.0470621 0.0801206 0.12015 0.164564 0.211727 0.260679 0.310754 0.361718 0.413553 0.465848 0.515234 0.564768 0.611812 0.659265 0.704298 0.747738 0.790615 0.826387 0.861908 0.888579 0.905781 0.921261 0.92794 0.929358 0.931393 0.932651 0.93258 0.932075 0.931462 0.931033 0.930741 0.930444 0.930092 0.929725 0.929442 0.929235 0.929046 0.928815 0.928487 0.927939 0.926876 0.92467 0.920015 0.910384 0.891337 0.856092 0.796285 0.705108 0.582447 0.440432 0.299183 0.179326 0.0931499 0.0420162 0.0169663 0.00639982 0.00232584 0.000826785 0.000289141 9.9644e-05 3.3843e-05 1.13237e-05 3.73071e-06 1.20963e-06 3.8582e-07 1.21011e-07 3.73099e-08 1.1306e-08 3.3663e-09 9.84138e-10 2.82922e-10 7.90666e-11 2.21463e-11 5.52199e-12 1.26174e-12 -1.3888e-13 -2.65011e-13 2.04597e-13 -1.57882e-13 4.45115e-13 -6.48575e-13 2.65345e-13 -1.77684e-13 -6.33026e-13 2.35941e-13 -1.70909e-13 9.59241e-15 2.99512e-13 -6.87449e-13 -2.33345e-13 -2.66127e-13 -3.02468e-13 2.85668e-13 -9.35241e-13 1.89871e-13 -1.67459e-13 2.10871e-13 3.44646e-13 -8.45059e-13 6.59845e-13 8.00495e-14 -2.47945e-13 2.43904e-13 -2.53484e-13 1.98585e-13 -6.28703e-14 -4.26286e-13 1.66879e-13 -7.78392e-13 1.84004e-13 -2.32325e-13 -8.39742e-13 6.86928e-13 -2.96211e-13 3.65896e-13 1.90014e-13 -6.31283e-13 5.75314e-13 5.49404e-13 0 0 1.36422e-15 9.07401e-15 2.68832e-14 -3.46615e-15 -9.45465e-15 -4.34209e-15 -1.79946e-14 -1.26704e-14 -1.00625e-14 -4.03206e-14 -6.29958e-14 1.81701e-14 -7.38115e-14 6.68242e-16 -1.69226e-14 -3.16109e-14 1.93913e-14 -8.08009e-14 -1.09513e-13 -6.5563e-14 -3.21769e-14 -8.50861e-14 -7.02814e-14 -5.8079e-14 -3.2521e-14 -2.12979e-13 -5.48003e-14 -1.30596e-13 -3.30308e-14 -1.12552e-13 1.80658e-14 -6.44186e-14 -2.13228e-13 -1.68962e-13 -1.02957e-13 -9.22721e-14 -1.57376e-13 -7.29595e-14 -9.24763e-14 -1.2419e-14 -9.7672e-14 2.45485e-14 -2.66842e-14 -1.34328e-13 4.60963e-14 -1.24471e-13 -2.11082e-13 -1.13488e-13 -1.20356e-13 -1.85255e-13 -1.39535e-13 -2.38026e-13 3.54386e-15 2.15915e-14 -9.79232e-14 -1.19105e-13 -1.02839e-14 -1.74157e-14 4.77729e-14 -9.94009e-14 -2.0134e-13 -2.34915e-14 8.48989e-14 -1.35284e-13 3.14245e-14 6.42883e-13 7.77718e-12 7.30043e-11 6.61553e-10 5.54316e-09 4.26249e-08 2.99225e-07 1.90613e-06 1.09406e-05 5.60975e-05 0.000254271 0.0010057 0.00341757 0.00981458 0.0235239 0.0470621 0.0801206 0.12015 0.164564 0.211727 0.260679 0.310754 0.361718 0.413553 0.465848 0.515234 0.564768 0.611812 0.659265 0.704298 0.747738 0.790615 0.826387 0.861908 0.888579 0.905781 0.921261 0.92794 0.929358 0.931393 0.932651 0.93258 0.932075 0.931462 0.931033 0.930741 0.930444 0.930092 0.929725 0.929442 0.929235 0.929046 0.928815 0.928487 0.927939 0.926876 0.92467 0.920015 0.910384 0.891337 0.856092 0.796285 0.705108 0.582447 0.440432 0.299183 0.179326 0.0931499 0.0420162 0.0169663 0.00639982 0.00232584 0.000826785 0.000289141 9.9644e-05 3.3843e-05 1.13237e-05 3.73071e-06 1.20963e-06 3.85821e-07 1.2101e-07 3.73106e-08 1.13055e-08 3.3661e-09 9.8462e-10 2.82412e-10 7.98527e-11 2.16046e-11 5.95814e-12 8.89033e-13 -1.7158e-13 -3.49593e-14 -7.2009e-14 2.05517e-13 -3.78255e-13 6.7013e-14 -6.61578e-14 -2.35475e-13 -1.87828e-13 -3.28307e-13 -3.8872e-13 8.87418e-14 -1.62626e-14 -2.78495e-13 -2.07427e-13 -5.0615e-13 3.49108e-14 -2.85577e-13 -1.30388e-13 -5.16044e-13 -5.44064e-14 2.19529e-13 -2.33015e-13 1.41977e-13 1.42446e-13 5.05226e-13 -3.53969e-14 -2.8404e-13 1.81935e-13 2.49725e-13 -1.3922e-13 -3.38295e-13 -7.41903e-13 3.14584e-13 1.17457e-13 -3.94288e-13 -2.48809e-13 -1.27679e-13 4.31913e-13 9.15188e-14 -3.04252e-13 1.32858e-13 2.13242e-13 7.49248e-13 0 0 -1.13791e-14 -1.13665e-14 -2.81635e-14 -1.65373e-14 -9.01559e-15 -1.19833e-14 -3.25327e-14 -3.40336e-14 -4.37483e-15 4.76676e-15 1.29534e-14 5.2053e-14 -8.01419e-14 -3.98929e-14 -4.05852e-14 -7.9713e-14 2.28436e-14 -1.52313e-13 1.2983e-14 -2.4654e-14 1.18607e-14 -6.10622e-14 -3.23912e-14 6.54142e-15 -1.40107e-13 -1.77895e-13 -1.54092e-13 -4.30338e-14 -8.14723e-14 -6.01221e-14 -1.35256e-13 -1.38664e-13 -2.47576e-13 5.34612e-14 -6.54454e-14 -1.743e-13 -5.1669e-14 -1.30692e-13 -7.67078e-14 -1.90767e-13 4.88525e-14 -1.05762e-13 9.80665e-14 7.3601e-14 -3.58835e-14 -1.04664e-13 -8.63454e-14 -1.69677e-13 -6.47425e-14 -8.16291e-14 -3.1223e-13 -3.69694e-13 7.466e-14 -9.75057e-14 1.76307e-13 -1.91685e-13 -7.0534e-14 4.94377e-14 -4.07129e-14 1.30042e-13 -1.72766e-13 -6.83179e-14 -2.43631e-13 -1.28422e-13 1.4172e-13 1.07508e-12 7.45154e-12 7.3125e-11 6.61648e-10 5.54339e-09 4.26249e-08 2.99225e-07 1.90613e-06 1.09406e-05 5.60975e-05 0.000254271 0.0010057 0.00341757 0.00981458 0.0235239 0.0470621 0.0801206 0.12015 0.164564 0.211727 0.260679 0.310754 0.361718 0.413553 0.465848 0.515234 0.564768 0.611812 0.659265 0.704298 0.747738 0.790615 0.826387 0.861908 0.888579 0.905781 0.921261 0.92794 0.929358 0.931393 0.932651 0.93258 0.932075 0.931462 0.931033 0.930741 0.930444 0.930092 0.929725 0.929442 0.929235 0.929046 0.928815 0.928487 0.927939 0.926876 0.92467 0.920015 0.910384 0.891337 0.856092 0.796285 0.705108 0.582447 0.440432 0.299183 0.179326 0.0931499 0.0420162 0.0169663 0.00639982 0.00232584 0.000826785 0.000289141 9.9644e-05 3.3843e-05 1.13237e-05 3.73071e-06 1.20963e-06 3.8582e-07 1.2101e-07 3.73106e-08 1.13056e-08 3.36591e-09 9.84551e-10 2.82915e-10 7.97542e-11 2.16919e-11 5.60421e-12 1.59395e-12 1.52144e-13 2.99638e-13 -3.68498e-13 -1.60349e-13 -3.50088e-13 4.87517e-13 -2.35496e-13 -1.32618e-13 -3.49187e-13 -1.76206e-13 -1.99207e-13 -1.06776e-13 -2.83442e-13 -2.24957e-13 1.45374e-13 -3.91561e-13 -2.42994e-13 -8.00856e-13 -3.00984e-13 -5.80373e-13 -2.08128e-13 3.96646e-13 -2.69982e-15 4.62827e-13 1.56977e-13 -4.21247e-13 1.78469e-13 3.58545e-13 -4.22185e-13 -3.39203e-14 -3.84719e-13 -4.04412e-13 -3.07673e-13 -2.40941e-14 -4.9513e-13 -2.68389e-13 7.13501e-13 -4.3524e-13 -9.20812e-14 3.99494e-13 1.68489e-13 3.21812e-13 -4.67082e-13 -4.75218e-13 0 0 -3.50835e-15 -3.54871e-14 -4.50688e-14 -2.54731e-14 -3.78783e-14 -5.99458e-14 1.38784e-14 -2.78518e-14 2.45692e-14 -6.2115e-14 3.06492e-14 -5.70258e-15 3.56837e-14 -5.37539e-14 2.48579e-14 -9.92388e-15 -8.43882e-14 -1.93768e-14 2.56592e-14 -3.16021e-14 -4.53348e-14 5.19847e-14 -1.02945e-13 -2.21456e-13 -1.6765e-13 -1.35122e-14 -2.03131e-13 -1.82138e-13 -6.61328e-14 -3.48805e-14 -5.66927e-14 -1.42817e-13 5.83445e-15 -1.17397e-13 -1.15741e-13 -6.70508e-14 2.73909e-15 -1.84886e-13 -6.40649e-14 -1.25818e-13 -8.88395e-14 6.18944e-14 -6.10134e-14 1.90145e-13 -1.67006e-13 1.07899e-13 -7.52047e-14 -1.7372e-13 -7.0693e-14 -1.53457e-13 -9.79925e-14 -1.03892e-13 -2.77138e-13 -1.22024e-13 1.2726e-13 1.04243e-13 -2.37323e-13 9.63063e-14 -1.45317e-13 -1.23579e-13 -7.45142e-14 -2.50804e-13 -2.04802e-13 -9.32677e-14 2.86496e-13 1.09975e-12 7.59652e-12 7.30951e-11 6.61991e-10 5.54348e-09 4.26246e-08 2.99225e-07 1.90613e-06 1.09406e-05 5.60975e-05 0.000254271 0.0010057 0.00341757 0.00981458 0.0235239 0.0470621 0.0801206 0.12015 0.164564 0.211727 0.260679 0.310754 0.361718 0.413553 0.465848 0.515234 0.564768 0.611812 0.659265 0.704298 0.747738 0.790615 0.826387 0.861908 0.888579 0.905781 0.921261 0.92794 0.929358 0.931393 0.932651 0.93258 0.932075 0.931462 0.931033 0.930741 0.930444 0.930092 0.929725 0.929442 0.929235 0.929046 0.928815 0.928487 0.927939 0.926876 0.92467 0.920015 0.910384 0.891337 0.856092 0.796285 0.705108 0.582447 0.440432 0.299183 0.179326 0.0931499 0.0420162 0.0169663 0.00639982 0.00232584 0.000826785 0.000289141 9.9644e-05 3.3843e-05 1.13237e-05 3.73071e-06 1.20963e-06 3.8582e-07 1.2101e-07 3.73097e-08 1.13065e-08 3.3663e-09 9.83873e-10 2.83125e-10 7.90661e-11 2.23677e-11 5.39373e-12 1.50504e-12 7.00423e-13 -4.82734e-13 5.46025e-13 -1.49191e-13 5.27934e-13 -5.39949e-13 2.22368e-13 -3.22403e-13 -2.04669e-13 -1.02256e-13 -3.39854e-13 -3.0739e-13 1.63603e-13 -5.28959e-13 1.37807e-13 -3.24858e-13 -7.61332e-13 2.23583e-13 -1.32044e-12 -7.65782e-14 -3.89862e-13 3.32261e-13 5.01459e-13 -9.114e-13 6.20866e-13 -2.38624e-13 -1.63015e-13 2.48862e-13 -3.5238e-13 -1.05913e-13 -1.60684e-13 -2.58872e-13 3.56173e-13 -1.21493e-12 -1.97632e-13 -2.09882e-13 -3.27234e-13 8.73323e-13 -2.01158e-13 5.31962e-13 2.98908e-13 -3.70891e-13 2.88721e-14 -5.56972e-13 0 0 -3.41604e-14 -2.56744e-14 -1.35801e-14 -8.98249e-14 -5.62e-14 2.84899e-14 -1.55408e-14 3.83053e-14 -4.48716e-14 -2.79314e-15 -1.34217e-13 6.32109e-14 -5.28595e-14 6.17692e-14 9.06246e-14 -1.97149e-14 -2.09406e-14 1.72518e-13 -9.74337e-14 -8.98437e-14 -6.84133e-14 -1.40162e-13 -8.60658e-14 -6.38327e-14 -8.41583e-14 -4.46763e-13 -7.51742e-14 -2.17378e-13 5.57516e-14 -1.84674e-13 4.57122e-14 5.45521e-14 -5.95651e-14 6.2764e-14 -2.99398e-13 6.05314e-14 -1.20734e-13 -5.17237e-14 -1.31504e-13 -7.74581e-14 -1.67942e-13 3.51477e-14 1.92504e-13 -1.07705e-13 3.4898e-14 -1.73979e-13 -8.698e-14 2.21813e-13 -1.78906e-13 -1.92609e-13 -1.14161e-13 -3.96629e-13 1.69752e-13 2.11691e-13 -7.85642e-14 -1.91728e-13 -7.55319e-14 1.08933e-13 2.28106e-13 -8.66931e-13 -3.99436e-13 -1.03873e-13 1.30712e-13 -2.27228e-13 1.62102e-13 1.09339e-12 8.25274e-12 7.31448e-11 6.61492e-10 5.54332e-09 4.26251e-08 2.99226e-07 1.90613e-06 1.09406e-05 5.60975e-05 0.000254271 0.0010057 0.00341757 0.00981458 0.0235239 0.0470621 0.0801206 0.12015 0.164564 0.211727 0.260679 0.310754 0.361718 0.413553 0.465848 0.515234 0.564768 0.611812 0.659265 0.704298 0.747738 0.790615 0.826387 0.861908 0.888579 0.905781 0.921261 0.92794 0.929358 0.931393 0.932651 0.93258 0.932075 0.931462 0.931033 0.930741 0.930444 0.930092 0.929725 0.929442 0.929235 0.929046 0.928815 0.928487 0.927939 0.926876 0.92467 0.920015 0.910384 0.891337 0.856092 0.796285 0.705108 0.582447 0.440432 0.299183 0.179326 0.0931499 0.0420162 0.0169663 0.00639982 0.00232584 0.000826785 0.000289141 9.9644e-05 3.3843e-05 1.13237e-05 3.73071e-06 1.20963e-06 3.85821e-07 1.2101e-07 3.73108e-08 1.13062e-08 3.36638e-09 9.8458e-10 2.81517e-10 8.00923e-11 2.13188e-11 6.39767e-12 2.77558e-13 1.2441e-12 -8.86817e-13 9.4996e-13 8.96282e-13 -1.81782e-13 -2.39956e-13 -4.43367e-13 -7.0095e-13 1.67513e-12 -1.28514e-12 -7.265e-13 -5.28338e-13 -4.0243e-13 8.1605e-13 -2.42708e-13 -3.87805e-13 -6.05584e-13 -2.93862e-13 2.9383e-13 -6.33177e-13 -1.96624e-13 -2.62013e-13 -3.46342e-13 4.84006e-14 -4.29781e-13 8.69075e-13 -1.15704e-13 -1.09225e-12 8.44699e-13 -7.89185e-13 9.52473e-14 1.2211e-12 -1.39618e-12 -4.34606e-14 -3.93845e-13 -3.3896e-13 2.26723e-13 9.04536e-14 1.0069e-12 -9.15284e-13 -8.90419e-14 7.50374e-13 2.2036e-13 8.23618e-15 0
				</DataArray>
				<DataArray Name="VitesseY" type="Float32" format="ascii">