<?xml version="1.0"?>
<VTKFile type="PolyData">
	<PolyData>
		<Piece NumberOfPoints="1206" NumberOfPolys="1000">
			<Points>
				<DataArray type="Float32" NumberOfComponents="3" format="ascii">
 0 0 0 0.005 0 0 0.01 0 0 0.015 0 0 0.02 0 0 0.025 0 0 0.03 0 0 0.035 0 0 0.04 0 0 0.045 0 0 0.05 0 0 0.055 0 0 0.06 0 0 0.065 0 0 0.07 0 0 0.075 0 0 0.08 0 0 0.085 0 0 0.09 0 0 0.095 0 0 0.1 0 0 0.105 0 0 0.11 0 0 0.115 0 0 0.12 0 0 0.125 0 0 0.13 0 0 0.135 0 0 0.14 0 0 0.145 0 0 0.15 0 0 0.155 0 0 0.16 0 0 0.165 0 0 0.17 0 0 0.175 0 0 0.18 0 0 0.185 0 0 0.19 0 0 0.195 0 0 0.2 0 0 0.205 0 0 0.21 0 0 0.215 0 0 0.22 0 0 0.225 0 0 0.23 0 0 0.235 0 0 0.24 0 0 0.245 0 0 0.25 0 0 0.255 0 0 0.26 0 0 0.265 0 0 0.27 0 0 0.275 0 0 0.28 0 0 0.285 0 0 0.29 0 0 0.295 0 0 0.3 0 0 0.305 0 0 0.31 0 0 0.315 0 0 0.32 0 0 0.325 0 0 0.33 0 0 0.335 0 0 0.34 0 0 0.345 0 0 0.35 0 0 0.355 0 0 0.36 0 0 0.365 0 0 0.37 0 0 0.375 0 0 0.38 0 0 0.385 0 0 0.39 0 0 0.395 0 0 0.4 0 0 0.405 0 0 0.41 0 0 0.415 0 0 0.42 0 0 0.425 0 0 0.43 0 0 0.435 0 0 0.44 0 0 0.445 0 0 0.45 0 0 0.455 0 0 0.46 0 0 0.465 0 0 0.47 0 0 0.475 0 0 0.48 0 0 0.485 0 0 0.49 0 0 0.495 0 0 0.5 0 0 0.505 0 0 0.51 0 0 0.515 0 0 0.52 0 0 0.525 0 0 0.53 0 0 0.535 0 0 0.54 0 0 0.545 0 0 0.55 0 0 0.555 0 0 0.56 0 0 0.565 0 0 0.57 0 0 0.575 0 0 0.58 0 0 0.585 0 0 0.59 0 0 0.595 0 0 0.6 0 0 0.605 0 0 0.61 0 0 0.615 0 0 0.62 0 0 0.625 0 0 0.63 0 0 0.635 0 0 0.64 0 0 0.645 0 0 0.65 0 0 0.655 0 0 0.66 0 0 0.665 0 0 0.67 0 0 0.675 0 0 0.68 0 0 0.685 0 0 0.69 0 0 0.695 0 0 0.7 0 0 0.705 0 0 0.71 0 0 0.715 0 0 0.72 0 0 0.725 0 0 0.73 0 0 0.735 0 0 0.74 0 0 0.745 0 0 0.75 0 0 0.755 0 0 0.76 0 0 0.765 0 0 0.77 0 0 0.775 0 0 0.78 0 0 0.785 0 0 0.79 0 0 0.795 0 0 0.8 0 0 0.805 0 0 0.81 0 0 0.815 0 0 0.82 0 0 0.825 0 0 0.83 0 0 0.835 0 0 0.84 0 0 0.845 0 0 0.85 0 0 0.855 0 0 0.86 0 0 0.865 0 0 0.87 0 0 0.875 0 0 0.88 0 0 0.885 0 0 0.89 0 0 0.895 0 0 0.9 0 0 0.905 0 0 0.91 0 0 0.915 0 0 0.92 0 0 0.925 0 0 0.93 0 0 0.935 0 0 0.94 0 0 0.945 0 0 0.95 0 0 0.955 0 0 0.96 0 0 0.965 0 0 0.97 0 0 0.975 0 0 0.98 0 0 0.985 0 0 0.99 0 0 0.995 0 0 1 0 0 0 0.02 0 0.005 0.02 0 0.01 0.02 0 0.015 0.02 0 0.02 0.02 0 0.025 0.02 0 0.03 0.02 0 0.035 0.02 0 0.04 0.02 0 0.045 0.02 0 0.05 0.02 0 0.055 0.02 0 0.06 0.02 0 0.065 0.02 0 0.07 0.02 0 0.075 0.02 0 0.08 0.02 0 0.085 0.02 0 0.09 0.02 0 0.095 0.02 0 0.1 0.02 0 0.105 0.02 0 0.11 0.02 0 0.115 0.02 0 0.12 0.02 0 0.125 0.02 0 0.13 0.02 0 0.135 0.02 0 0.14 0.02 0 0.145 0.02 0 0.15 0.02 0 0.155 0.02 0 0.16 0.02 0 0.165 0.02 0 0.17 0.02 0 0.175 0.02 0 0.18 0.02 0 0.185 0.02 0 0.19 0.02 0 0.195 0.02 0 0.2 0.02 0 0.205 0.02 0 0.21 0.02 0 0.215 0.02 0 0.22 0.02 0 0.225 0.02 0 0.23 0.02 0 0.235 0.02 0 0.24 0.02 0 0.245 0.02 0 0.25 0.02 0 0.255 0.02 0 0.26 0.02 0 0.265 0.02 0 0.27 0.02 0 0.275 0.02 0 0.28 0.02 0 0.285 0.02 0 0.29 0.02 0 0.295 0.02 0 0.3 0.02 0 0.305 0.02 0 0.31 0.02 0 0.315 0.02 0 0.32 0.02 0 0.325 0.02 0 0.33 0.02 0 0.335 0.02 0 0.34 0.02 0 0.345 0.02 0 0.35 0.02 0 0.355 0.02 0 0.36 0.02 0 0.365 0.02 0 0.37 0.02 0 0.375 0.02 0 0.38 0.02 0 0.385 0.02 0 0.39 0.02 0 0.395 0.02 0 0.4 0.02 0 0.405 0.02 0 0.41 0.02 0 0.415 0.02 0 0.42 0.02 0 0.425 0.02 0 0.43 0.02 0 0.435 0.02 0 0.44 0.02 0 0.445 0.02 0 0.45 0.02 0 0.455 0.02 0 0.46 0.02 0 0.465 0.02 0 0.47 0.02 0 0.475 0.02 0 0.48 0.02 0 0.485 0.02 0 0.49 0.02 0 0.495 0.02 0 0.5 0.02 0 0.505 0.02 0 0.51 0.02 0 0.515 0.02 0 0.52 0.02 0 0.525 0.02 0 0.53 0.02 0 0.535 0.02 0 0.54 0.02 0 0.545 0.02 0 0.55 0.02 0 0.555 0.02 0 0.56 0.02 0 0.565 0.02 0 0.57 0.02 0 0.575 0.02 0 0.58 0.02 0 0.585 0.02 0 0.59 0.02 0 0.595 0.02 0 0.6 0.02 0 0.605 0.02 0 0.61 0.02 0 0.615 0.02 0 0.62 0.02 0 0.625 0.02 0 0.63 0.02 0 0.635 0.02 0 0.64 0.02 0 0.645 0.02 0 0.65 0.02 0 0.655 0.02 0 0.66 0.02 0 0.665 0.02 0 0.67 0.02 0 0.675 0.02 0 0.68 0.02 0 0.685 0.02 0 0.69 0.02 0 0.695 0.02 0 0.7 0.02 0 0.705 0.02 0 0.71 0.02 0 0.715 0.02 0 0.72 0.02 0 0.725 0.02 0 0.73 0.02 0 0.735 0.02 0 0.74 0.02 0 0.745 0.02 0 0.75 0.02 0 0.755 0.02 0 0.76 0.02 0 0.765 0.02 0 0.77 0.02 0 0.775 0.02 0 0.78 0.02 0 0.785 0.02 0 0.79 0.02 0 0.795 0.02 0 0.8 0.02 0 0.805 0.02 0 0.81 0.02 0 0.815 0.02 0 0.82 0.02 0 0.825 0.02 0 0.83 0.02 0 0.835 0.02 0 0.84 0.02 0 0.845 0.02 0 0.85 0.02 0 0.855 0.02 0 0.86 0.02 0 0.865 0.02 0 0.87 0.02 0 0.875 0.02 0 0.88 0.02 0 0.885 0.02 0 0.89 0.02 0 0.895 0.02 0 0.9 0.02 0 0.905 0.02 0 0.91 0.02 0 0.915 0.02 0 0.92 0.02 0 0.925 0.02 0 0.93 0.02 0 0.935 0.02 0 0.94 0.02 0 0.945 0.02 0 0.95 0.02 0 0.955 0.02 0 0.96 0.02 0 0.965 0.02 0 0.97 0.02 0 0.975 0.02 0 0.98 0.02 0 0.985 0.02 0 0.99 0.02 0 0.995 0.02 0 1 0.02 0 0 0.04 0 0.005 0.04 0 0.01 0.04 0 0.015 0.04 0 0.02 0.04 0 0.025 0.04 0 0.03 0.04 0 0.035 0.04 0 0.04 0.04 0 0.045 0.04 0 0.05 0.04 0 0.055 0.04 0 0.06 0.04 0 0.065 0.04 0 0.07 0.04 0 0.075 0.04 0 0.08 0.04 0 0.085 0.04 0 0.09 0.04 0 0.095 0.04 0 0.1 0.04 0 0.105 0.04 0 0.11 0.04 0 0.115 0.04 0 0.12 0.04 0 0.125 0.04 0 0.13 0.04 0 0.135 0.04 0 0.14 0.04 0 0.145 0.04 0 0.15 0.04 0 0.155 0.04 0 0.16 0.04 0 0.165 0.04 0 0.17 0.04 0 0.175 0.04 0 0.18 0.04 0 0.185 0.04 0 0.19 0.04 0 0.195 0.04 0 0.2 0.04 0 0.205 0.04 0 0.21 0.04 0 0.215 0.04 0 0.22 0.04 0 0.225 0.04 0 0.23 0.04 0 0.235 0.04 0 0.24 0.04 0 0.245 0.04 0 0.25 0.04 0 0.255 0.04 0 0.26 0.04 0 0.265 0.04 0 0.27 0.04 0 0.275 0.04 0 0.28 0.04 0 0.285 0.04 0 0.29 0.04 0 0.295 0.04 0 0.3 0.04 0 0.305 0.04 0 0.31 0.04 0 0.315 0.04 0 0.32 0.04 0 0.325 0.04 0 0.33 0.04 0 0.335 0.04 0 0.34 0.04 0 0.345 0.04 0 0.35 0.04 0 0.355 0.04 0 0.36 0.04 0 0.365 0.04 0 0.37 0.04 0 0.375 0.04 0 0.38 0.04 0 0.385 0.04 0 0.39 0.04 0 0.395 0.04 0 0.4 0.04 0 0.405 0.04 0 0.41 0.04 0 0.415 0.04 0 0.42 0.04 0 0.425 0.04 0 0.43 0.04 0 0.435 0.04 0 0.44 0.04 0 0.445 0.04 0 0.45 0.04 0 0.455 0.04 0 0.46 0.04 0 0.465 0.04 0 0.47 0.04 0 0.475 0.04 0 0.48 0.04 0 0.485 0.04 0 0.49 0.04 0 0.495 0.04 0 0.5 0.04 0 0.505 0.04 0 0.51 0.04 0 0.515 0.04 0 0.52 0.04 0 0.525 0.04 0 0.53 0.04 0 0.535 0.04 0 0.54 0.04 0 0.545 0.04 0 0.55 0.04 0 0.555 0.04 0 0.56 0.04 0 0.565 0.04 0 0.57 0.04 0 0.575 0.04 0 0.58 0.04 0 0.585 0.04 0 0.59 0.04 0 0.595 0.04 0 0.6 0.04 0 0.605 0.04 0 0.61 0.04 0 0.615 0.04 0 0.62 0.04 0 0.625 0.04 0 0.63 0.04 0 0.635 0.04 0 0.64 0.04 0 0.645 0.04 0 0.65 0.04 0 0.655 0.04 0 0.66 0.04 0 0.665 0.04 0 0.67 0.04 0 0.675 0.04 0 0.68 0.04 0 0.685 0.04 0 0.69 0.04 0 0.695 0.04 0 0.7 0.04 0 0.705 0.04 0 0.71 0.04 0 0.715 0.04 0 0.72 0.04 0 0.725 0.04 0 0.73 0.04 0 0.735 0.04 0 0.74 0.04 0 0.745 0.04 0 0.75 0.04 0 0.755 0.04 0 0.76 0.04 0 0.765 0.04 0 0.77 0.04 0 0.775 0.04 0 0.78 0.04 0 0.785 0.04 0 0.79 0.04 0 0.795 0.04 0 0.8 0.04 0 0.805 0.04 0 0.81 0.04 0 0.815 0.04 0 0.82 0.04 0 0.825 0.04 0 0.83 0.04 0 0.835 0.04 0 0.84 0.04 0 0.845 0.04 0 0.85 0.04 0 0.855 0.04 0 0.86 0.04 0 0.865 0.04 0 0.87 0.04 0 0.875 0.04 0 0.88 0.04 0 0.885 0.04 0 0.89 0.04 0 0.895 0.04 0 0.9 0.04 0 0.905 0.04 0 0.91 0.04 0 0.915 0.04 0 0.92 0.04 0 0.925 0.04 0 0.93 0.04 0 0.935 0.04 0 0.94 0.04 0 0.945 0.04 0 0.95 0.04 0 0.955 0.04 0 0.96 0.04 0 0.965 0.04 0 0.97 0.04 0 0.975 0.04 0 0.98 0.04 0 0.985 0.04 0 0.99 0.04 0 0.995 0.04 0 1 0.04 0 0 0.06 0 0.005 0.06 0 0.01 0.06 0 0.015 0.06 0 0.02 0.06 0 0.025 0.06 0 0.03 0.06 0 0.035 0.06 0 0.04 0.06 0 0.045 0.06 0 0.05 0.06 0 0.055 0.06 0 0.06 0.06 0 0.065 0.06 0 0.07 0.06 0 0.075 0.06 0 0.08 0.06 0 0.085 0.06 0 0.09 0.06 0 0.095 0.06 0 0.1 0.06 0 0.105 0.06 0 0.11 0.06 0 0.115 0.06 0 0.12 0.06 0 0.125 0.06 0 0.13 0.06 0 0.135 0.06 0 0.14 0.06 0 0.145 0.06 0 0.15 0.06 0 0.155 0.06 0 0.16 0.06 0 0.165 0.06 0 0.17 0.06 0 0.175 0.06 0 0.18 0.06 0 0.185 0.06 0 0.19 0.06 0 0.195 0.06 0 0.2 0.06 0 0.205 0.06 0 0.21 0.06 0 0.215 0.06 0 0.22 0.06 0 0.225 0.06 0 0.23 0.06 0 0.235 0.06 0 0.24 0.06 0 0.245 0.06 0 0.25 0.06 0 0.255 0.06 0 0.26 0.06 0 0.265 0.06 0 0.27 0.06 0 0.275 0.06 0 0.28 0.06 0 0.285 0.06 0 0.29 0.06 0 0.295 0.06 0 0.3 0.06 0 0.305 0.06 0 0.31 0.06 0 0.315 0.06 0 0.32 0.06 0 0.325 0.06 0 0.33 0.06 0 0.335 0.06 0 0.34 0.06 0 0.345 0.06 0 0.35 0.06 0 0.355 0.06 0 0.36 0.06 0 0.365 0.06 0 0.37 0.06 0 0.375 0.06 0 0.38 0.06 0 0.385 0.06 0 0.39 0.06 0 0.395 0.06 0 0.4 0.06 0 0.405 0.06 0 0.41 0.06 0 0.415 0.06 0 0.42 0.06 0 0.425 0.06 0 0.43 0.06 0 0.435 0.06 0 0.44 0.06 0 0.445 0.06 0 0.45 0.06 0 0.455 0.06 0 0.46 0.06 0 0.465 0.06 0 0.47 0.06 0 0.475 0.06 0 0.48 0.06 0 0.485 0.06 0 0.49 0.06 0 0.495 0.06 0 0.5 0.06 0 0.505 0.06 0 0.51 0.06 0 0.515 0.06 0 0.52 0.06 0 0.525 0.06 0 0.53 0.06 0 0.535 0.06 0 0.54 0.06 0 0.545 0.06 0 0.55 0.06 0 0.555 0.06 0 0.56 0.06 0 0.565 0.06 0 0.57 0.06 0 0.575 0.06 0 0.58 0.06 0 0.585 0.06 0 0.59 0.06 0 0.595 0.06 0 0.6 0.06 0 0.605 0.06 0 0.61 0.06 0 0.615 0.06 0 0.62 0.06 0 0.625 0.06 0 0.63 0.06 0 0.635 0.06 0 0.64 0.06 0 0.645 0.06 0 0.65 0.06 0 0.655 0.06 0 0.66 0.06 0 0.665 0.06 0 0.67 0.06 0 0.675 0.06 0 0.68 0.06 0 0.685 0.06 0 0.69 0.06 0 0.695 0.06 0 0.7 0.06 0 0.705 0.06 0 0.71 0.06 0 0.715 0.06 0 0.72 0.06 0 0.725 0.06 0 0.73 0.06 0 0.735 0.06 0 0.74 0.06 0 0.745 0.06 0 0.75 0.06 0 0.755 0.06 0 0.76 0.06 0 0.765 0.06 0 0.77 0.06 0 0.775 0.06 0 0.78 0.06 0 0.785 0.06 0 0.79 0.06 0 0.795 0.06 0 0.8 0.06 0 0.805 0.06 0 0.81 0.06 0 0.815 0.06 0 0.82 0.06 0 0.825 0.06 0 0.83 0.06 0 0.835 0.06 0 0.84 0.06 0 0.845 0.06 0 0.85 0.06 0 0.855 0.06 0 0.86 0.06 0 0.865 0.06 0 0.87 0.06 0 0.875 0.06 0 0.88 0.06 0 0.885 0.06 0 0.89 0.06 0 0.895 0.06 0 0.9 0.06 0 0.905 0.06 0 0.91 0.06 0 0.915 0.06 0 0.92 0.06 0 0.925 0.06 0 0.93 0.06 0 0.935 0.06 0 0.94 0.06 0 0.945 0.06 0 0.95 0.06 0 0.955 0.06 0 0.96 0.06 0 0.965 0.06 0 0.97 0.06 0 0.975 0.06 0 0.98 0.06 0 0.985 0.06 0 0.99 0.06 0 0.995 0.06 0 1 0.06 0 0 0.08 0 0.005 0.08 0 0.01 0.08 0 0.015 0.08 0 0.02 0.08 0 0.025 0.08 0 0.03 0.08 0 0.035 0.08 0 0.04 0.08 0 0.045 0.08 0 0.05 0.08 0 0.055 0.08 0 0.06 0.08 0 0.065 0.08 0 0.07 0.08 0 0.075 0.08 0 0.08 0.08 0 0.085 0.08 0 0.09 0.08 0 0.095 0.08 0 0.1 0.08 0 0.105 0.08 0 0.11 0.08 0 0.115 0.08 0 0.12 0.08 0 0.125 0.08 0 0.13 0.08 0 0.135 0.08 0 0.14 0.08 0 0.145 0.08 0 0.15 0.08 0 0.155 0.08 0 0.16 0.08 0 0.165 0.08 0
[...]
			<PointData Scalars="VitesseX">
				<DataArray Name="VitesseX" type="Float32" format="ascii">
 0 -2.80307e-15 -5.09523e-15 -1.17068e-14 -8.7201e-15 -2.94935e-15 -2.04977e-15 -2.44191e-14 -3.73815e-14 1.36094e-14 -8.57129e-15 -9.26405e-15 -4.35706e-14 -3.696e-14 -6.1713e-14 -6.11327e-14 -1.30045e-13 -5.81263e-14 -8.67585e-14 -1.22408e-13 1.05864e-14 -3.51868e-14 -8.24273e-14 3.17855e-14 -3.73638e-14 1.57922e-14 4.67499e-14 -6.29391e-14 -1.31502e-13 -5.10257e-14 -4.81029e-14 -7.45247e-14 -1.0937e-13 -1.03656e-13 -1.19006e-13 -8.11549e-15 -1.97649e-14 -5.8406e-14 -6.04163e-14 -1.69143e-13 1.68324e-13 -2.34688e-13 1.50012e-13 4.77339e-13 2.53938e-12 1.62517e-11 9.98437e-11 5.79201e-10 3.18763e-09 1.65713e-08 8.12022e-08 3.73965e-07 1.61341e-06 6.49688e-06 2.43131e-05 8.4131e-05 0.000267579 0.000776747 0.0020418 0.00482131 0.0101612 0.0190733 0.0320374 0.0487493 0.0683702 0.0899907 0.112908 0.136666 0.160996 0.185709 0.21068 0.235845 0.261161 0.286603 0.312157 0.337817 0.363581 0.389454 0.415446 0.441507 0.467175 0.492752 0.518037 0.543283 0.568248 0.593232 0.617917 0.642584 0.667013 0.691204 0.715338 0.738904 0.762502 0.785505 0.807973 0.83003 0.850333 0.869559 0.886647 0.900371 0.911991 0.920235 0.92511 0.928789 0.930443 0.930794 0.931105 0.931129 0.931053 0.93088 0.930648 0.930393 0.930135 0.929874 0.929613 0.929368 0.929153 0.928969 0.928812 0.928676 0.928559 0.928458 0.928372 0.928298 0.928234 0.928179 0.92813 0.928087 0.92805 0.928017 0.927987 0.92796 0.927934 0.927911 0.927888 0.927867 0.927846 0.927827 0.927808 0.92779 0.927772 0.927753 0.927731 0.927701 0.927656 0.927577 0.927425 0.927122 0.926511 0.925282 0.922825 0.917974 0.90858 0.890932 0.859282 0.806193 0.724708 0.612628 0.478074 0.338321 0.213734 0.118497 0.0574452 0.0248907 0.0100326 0.00389653 0.00148807 0.000563905 0.000212803 8.00687e-05 3.00451e-05 1.12424e-05 4.19378e-06 1.55905e-06 5.77384e-07 2.12936e-07 7.81707e-08 2.85543e-08 1.03749e-08 3.74748e-09 1.3456e-09 4.79733e-10 1.69734e-10 5.95631e-11 2.04802e-11 6.85156e-12 2.57796e-12 3.68916e-13 2.63594e-13 -3.63964e-13 3.06479e-13 5.81957e-13 -8.60383e-13 7.02405e-13 -7.45443e-13 3.49178e-13 -3.38767e-14 -6.61331e-13 7.8829e-13 -2.26655e-13 0 0 -5.94736e-15 -1.736e-14 -8.80922e-15 -1.24744e-14 -2.83256e-14 -3.91814e-15 -1.58952e-14 1.11933e-14 -4.3463e-14 -2.28573e-14 -2.47202e-14 -3.21084e-14 -3.21886e-14 -4.05962e-14 -9.10161e-14 -6.31712e-14 -1.50441e-13 -6.30931e-14 -4.94001e-14 -9.09858e-14 -2.65748e-14 -2.17885e-14 -2.74827e-14 1.06723e-13 1.35426e-14 -1.50979e-13 -2.7213e-14 -4.94455e-14 -2.70579e-14 -5.47944e-14 -8.28878e-14 -1.16551e-13 -8.11022e-14 -1.90643e-14 -8.79992e-14 -4.64072e-14 -5.3696e-14 -7.67563e-14 2.25695e-14 -1.83299e-13 6.65991e-14 4.97542e-14 2.46165e-13 2.57105e-12 1.63869e-11 9.98169e-11 5.79248e-10 3.18731e-09 1.65716e-08 8.12023e-08 3.73964e-07 1.61341e-06 6.49688e-06 2.43131e-05 8.4131e-05 0.000267579 0.000776747 0.0020418 0.00482131 0.0101612 0.0190733 0.0320374 0.0487493 0.0683702 0.0899907 0.112908 0.136666 0.160996 0.185709 0.21068 0.235845 0.261161 0.286603 0.312157 0.337817 0.363581 0.389454 0.415446 0.441507 0.467175 0.492752 0.518037 0.543283 0.568248 0.593232 0.617917 0.642584 0.667013 0.691204 0.715338 0.738904 0.762502 0.785505 0.807973 0.83003 0.850333 0.869559 0.886647 0.900371 0.911991 0.920235 0.92511 0.928789 0.930443 0.930794 0.931105 0.931129 0.931053 0.93088 0.930648 0.930393 0.930135 0.929874 0.929613 0.929368 0.929153 0.928969 0.928812 0.928676 0.928559 0.928458 0.928372 0.928298 0.928234 0.928179 0.92813 0.928087 0.92805 0.928017 0.927987 0.92796 0.927934 0.927911 0.927888 0.927867 0.927846 0.927827 0.927808 0.92779 0.927772 0.927753 0.927731 0.927701 0.927656 0.927577 0.927425 0.927122 0.926511 0.925282 0.922825 0.917974 0.90858 0.890932 0.859282 0.806193 0.724708 0.612628 0.478074 0.338321 0.213734 0.118497 0.0574452 0.0248907 0.0100326 0.00389653 0.00148807 0.000563905 0.000212803 8.00687e-05 3.00451e-05 1.12424e-05 4.19378e-06 1.55905e-06 5.77384e-07 2.12936e-07 7.81704e-08 2.85548e-08 1.03744e-08 3.74786e-09 1.34546e-09 4.79707e-10 1.70031e-10 5.95445e-11 2.08046e-11 6.75581e-12 1.8357e-12 7.84227e-13 9.4503e-14 -1.79591e-13 -1.93332e-13 1.99174e-13 2.30388e-13 -3.93409e-13 3.34281e-13 -2.55511e-13 4.13739e-13 2.49591e-13 -6.72688e-13 2.14693e-13 0 0 1.86299e-15 -2.19579e-15 -1.13447e-14 -2.78339e-14 -1.48779e-14 -5.43173e-14 -3.01844e-14 -1.88983e-14 -1.55006e-14 -4.40016e-14 -4.58229e-14 -3.45874e-14 -5.32218e-14 -5.96434e-14 -6.21447e-14 -4.2843e-14 -3.94471e-14 -9.80165e-14 -9.26879e-14 -9.03251e-14 2.76882e-14 -1.93662e-14 3.23729e-14 -5.45418e-14 -4.65444e-14 -2.68686e-14 -3.4417e-14 -8.35618e-14 -5.79192e-15 -1.35093e-13 4.73107e-14 -5.39167e-14 -7.22694e-14 -1.43844e-14 -1.93671e-13 -6.51655e-14 -2.24028e-14 -6.14887e-15 -1.24501e-13 -7.66637e-14 -4.08554e-14 1.06985e-13 3.19387e-13 2.37634e-12 1.64293e-11 9.97229e-11 5.79431e-10 3.18748e-09 1.65714e-08 8.12022e-08 3.73964e-07 1.61341e-06 6.49688e-06 2.43131e-05 8.4131e-05 0.000267579 0.000776747 0.0020418 0.00482131 0.0101612 0.0190733 0.0320374 0.0487493 0.0683702 0.0899907 0.112908 0.136666 0.160996 0.185709 0.21068 0.235845 0.261161 0.286603 0.312157 0.337817 0.363581 0.389454 0.415446 0.441507 0.467175 0.492752 0.518037 0.543283 0.568248 0.593232 0.617917 0.642584 0.667013 0.691204 0.715338 0.738904 0.762502 0.785505 0.807973 0.83003 0.850333 0.869559 0.886647 0.900371 0.911991 0.920235 0.92511 0.928789 0.930443 0.930794 0.931105 0.931129 0.931053 0.93088 0.930648 0.930393 0.930135 0.929874 0.929613 0.929368 0.929153 0.928969 0.928812 0.928676 0.928559 0.928458 0.928372 0.928298 0.928234 0.928179 0.92813 0.928087 0.92805 0.928017 0.927987 0.92796 0.927934 0.927911 0.927888 0.927867 0.927846 0.927827 0.927808 0.92779 0.927772 0.927753 0.927731 0.927701 0.927656 0.927577 0.927425 0.927122 0.926511 0.925282 0.922825 0.917974 0.90858 0.890932 0.859282 0.806193 0.724708 0.612628 0.478074 0.338321 0.213734 0.118497 0.0574452 0.0248907 0.0100326 0.00389653 0.00148807 0.000563905 0.000212803 8.00687e-05 3.00451e-05 1.12424e-05 4.19378e-06 1.55905e-06 5.77384e-07 2.12936e-07 7.81708e-08 2.85546e-08 1.03749e-08 3.7478e-09 1.34555e-09 4.79808e-10 1.69698e-10 5.97829e-11 2.0371e-11 6.75914e-12 2.51829e-12 6.84146e-14 -1.87775e-13 -2.60601e-13 -2.65432e-14 -1.69476e-14 2.33677e-13 4.65392e-14 2.15247e-13 -2.10453e-13 -2.26552e-13 2.15931e-13 6.7427e-15 1.91965e-13 0 0 1.19005e-15 -3.84994e-15 -3.84713e-15 -3.31609e-14 -1.26399e-14 -4.24435e-14 -4.63929e-14 -7.64268e-14 -1.78157e-14 -3.45658e-14 -6.62239e-14 -4.08848e-14 -6.13291e-14 -8.9928e-14 6.35038e-15 -6.66638e-14 -4.47249e-14 1.20178e-14 -8.21537e-14 -3.31012e-14 -7.98471e-14 -2.81519e-14 -3.06738e-14 -2.8133e-14 -3.51771e-15 -2.48343e-14 -2.89812e-14 -7.60259e-14 -7.15112e-14 -4.24361e-14 -5.34707e-14 -4.21225e-14 -5.84781e-14 -1.776e-13 -1.09495e-13 8.16529e-14 -9.44847e-14 -1.74473e-13 -5.95903e-14 9.051e-14 -7.29211e-14 2.96183e-14 6.20107e-13 2.62664e-12 1.62298e-11 9.97999e-11 5.79418e-10 3.18762e-09 1.65714e-08 8.12021e-08 3.73964e-07 1.61341e-06 6.49688e-06 2.43131e-05 8.4131e-05 0.000267579 0.000776747 0.0020418 0.00482131 0.0101612 0.0190733 0.0320374 0.0487493 0.0683702 0.0899907 0.112908 0.136666 0.160996 0.185709 0.21068 0.235845 0.261161 0.286603 0.312157 0.337817 0.363581 0.389454 0.415446 0.441507 0.467175 0.492752 0.518037 0.543283 0.568248 0.593232 0.617917 0.642584 0.667013 0.691204 0.715338 0.738904 0.762502 0.785505 0.807973 0.83003 0.850333 0.869559 0.886647 0.900371 0.911991 0.920235 0.92511 0.928789 0.930443 0.930794 0.931105 0.931129 0.931053 0.93088 0.930648 0.930393 0.930135 0.929874 0.929613 0.929368 0.929153 0.928969 0.928812 0.928676 0.928559 0.928458 0.928372 0.928298 0.928234 0.928179 0.92813 0.928087 0.92805 0.928017 0.927987 0.92796 0.927934 0.927911 0.927888 0.927867 0.927846 0.927827 0.927808 0.92779 0.927772 0.927753 0.927731 0.927701 0.927656 0.927577 0.927425 0.927122 0.926511 0.925282 0.922825 0.917974 0.90858 0.890932 0.859282 0.806193 0.724708 0.612628 0.478074 0.338321 0.213734 0.118497 0.0574452 0.0248907 0.0100326 0.00389653 0.00148807 0.000563905 0.000212803 8.00687e-05 3.00451e-05 1.12424e-05 4.19378e-06 1.55905e-06 5.77384e-07 2.12936e-07 7.81708e-08 2.85546e-08 1.03749e-08 3.74765e-09 1.34539e-09 4.80234e-10 1.69484e-10 5.95933e-11 2.02097e-11 6.78117e-12 2.01707e-12 5.25229e-13 2.0506e-13 -2.53714e-13 2.93033e-13 1.71982e-13 -6.37947e-13 3.14727e-14 -5.89035e-13 2.74875e-13 -2.93739e-13 1.48475e-13 2.22493e-13 -2.24986e-13 0 0 -5.76262e-15 -1.62306e-14 -1.39609e-14 -1.70011e-14 -3.64989e-14 -2.12749e-14 -3.26131e-14 -3.52343e-14 -9.06855e-14 -5.50206e-14 -6.38543e-14 -2.59809e-14 -3.38592e-14 -5.43465e-14 -4.04285e-14 -2.87348e-14 -1.09834e-13 1.43517e-14 -2.31362e-14 -5.70188e-14 -9.37815e-14 1.70547e-14 -1.16097e-13 1.08405e-13 4.16639e-15 -1.49516e-13 -7.18685e-14 -7.5442e-14 -7.73543e-14 -7.8522e-14 -9.74206e-14 -1.78549e-14 -5.86654e-14 -1.31979e-13 5.40825e-14 -2.7865e-14 -7.96235e-15 -1.60706e-13 1.41667e-14 -1.29437e-13 5.83079e-14 -6.23426e-14 5.06733e-13 2.78659e-12 1.64043e-11 9.99022e-11 5.7937e-10 3.18746e-09 1.65715e-08 8.12022e-08 3.73964e-07 1.61341e-06 6.49688e-06 2.43131e-05 8.4131e-05 0.000267579 0.000776747 0.0020418 0.00482131 0.0101612 0.0190733 0.0320374 0.0487493 0.0683702 0.0899907 0.112908 0.136666 0.160996 0.185709 0.21068 0.235845 0.261161 0.286603 0.312157 0.337817 0.363581 0.389454 0.415446 0.441507 0.467175 0.492752 0.518037 0.543283 0.568248 0.593232 0.617917 0.642584 0.667013 0.691204 0.715338 0.738904 0.762502 0.785505 0.807973 0.83003 0.850333 0.869559 0.886647 0.900371 0.911991 0.920235 0.92511 0.928789 0.930443 0.930794 0.931105 0.931129 0.931053 0.93088 0.930648 0.930393 0.930135 0.929874 0.929613 0.929368 0.929153 0.928969 0.928812 0.928676 0.928559 0.928458 0.928372 0.928298 0.928234 0.928179 0.92813 0.928087 0.92805 0.928017 0.927987 0.92796 0.927934 0.927911 0.927888 0.927867 0.927846 0.927827 0.927808 0.92779 0.927772 0.927753 0.927731 0.927701 0.927656 0.927577 0.927425 0.927122 0.926511 0.925282 0.922825 0.917974 0.90858 0.890932 0.859282 0.806193 0.724708 0.612628 0.478074 0.338321 0.213734 0.118497 0.0574452 0.0248907 0.0100326 0.00389653 0.00148807 0.000563905 0.000212803 8.00687e-05 3.00451e-05 1.12424e-05 4.19378e-06 1.55905e-06 5.77385e-07 2.12936e-07 7.81706e-08 2.85549e-08 1.03744e-08 3.74776e-09 1.34529e-09 4.79896e-10 1.69874e-10 5.94415e-11 2.05116e-11 6.78385e-12 1.09226e-12 9.83644e-13 2.10331e-13 1.39969e-13 -1.50046e-13 -1.64111e-14 1.4119e-13 -6.06684e-13 4.056e-14 -3.47103e-13 2.66735e-13 2.03868e-13 -4.78592e-13 -2.8757e-14 0 0 -1.08772e-15 4.7196e-16 -3.70053e-14 -7.11938e-15 -2.37721e-14 -6.05109e-14 -2.54381e-14 -1.51797e-14 -7.62056e-14 -9.17693e-14 -4.67302e-14 -1.87207e-14 -2.40867e-14 -2.86442e-14 -9.69476e-14 -1.3531e-14 3.36429e-14 -1.51937e-13 -9.09486e-14 -3.59271e-14 4.54703e-14 1.28304e-14 -1.93491e-14 -8.68177e-14 -8.90137e-14 4.56082e-14 -1.63122e-13 -1.98567e-13 -2.018e-14 -2.80872e-13 9.79725e-14 6.44324e-14 -8.63649e-14 -1.8404e-14 1.07696e-13 -2.76317e-13 1.77225e-13 1.08333e-13 -3.15769e-13 -5.82995e-14 -1.87139e-13 8.05521e-14 3.97036e-13 2.46985e-12 1.66855e-11 9.98604e-11 5.7947e-10 3.18765e-09 1.65713e-08 8.12023e-08 3.73964e-07 1.61341e-06 6.49688e-06 2.43131e-05 8.4131e-05 0.000267579 0.000776747 0.0020418 0.00482131 0.0101612 0.0190733 0.0320374 0.0487493 0.0683702 0.0899907 0.112908 0.136666 0.160996 0.185709 0.21068 0.235845 0.261161 0.286603 0.312157 0.337817 0.363581 0.389454 0.415446 0.441507 0.467175 0.492752 0.518037 0.543283 0.568248 0.593232 0.617917 0.642584 0.667013 0.691204 0.715338 0.738904 0.762502 0.785505 0.807973 0.83003 0.850333 0.869559 0.886647 0.900371 0.911991 0.920235 0.92511 0.928789 0.930443 0.930794 0.931105 0.931129 0.931053 0.93088 0.930648 0.930393 0.930135 0.929874 0.929613 0.929368 0.929153 0.928969 0.928812 0.928676 0.928559 0.928458 0.928372 0.928298 0.928234 0.928179 0.92813 0.928087 0.92805 0.928017 0.927987 0.92796 0.927934 0.927911 0.927888 0.927867 0.927846 0.927827 0.927808 0.92779 0.927772 0.927753 0.927731 0.927701 0.927656 0.927577 0.927425 0.927122 0.926511 0.925282 0.922825 0.917974 0.90858 0.890932 0.859282 0.806193 0.724708 0.612628 0.478074 0.338321 0.213734 0.118497 0.0574452 0.0248907 0.0100326 0.00389653 0.00148807 0.000563905 0.000212803 8.00687e-05 3.00451e-05 1.12424e-05 4.19378e-06 1.55905e-06 5.77385e-07 2.12937e-07 7.81709e-08 2.85546e-08 1.03748e-08 3.74758e-09 1.34558e-09 4.79261e-10 1.6985e-10 5.97364e-11 2.02168e-11 6.86358e-12 2.09352e-12 -1.45878e-13 -2.90421e-13 2.61382e-13 -2.461e-13 -2.27071e-13 7.04469e-13 3.05987e-13 2.75678e-13 -8.04664e-13 -1.93511e-13 -6.17864e-13 7.44981e-13 1.20347e-13 0
				</DataArray>
				<DataArray Name="VitesseY" type="Float32" format="ascii">