<?xml version="1.0"?>
<VTKFile type="PolyData">
	<PolyData>
		<Piece NumberOfPoints="1206" NumberOfPolys="1000">
			<Points>
				<DataArray type="Float32" NumberOfComponents="3" format="ascii">
 0 0 0 0.005 0 0 0.01 0 0 0.015 0 0 0.02 0 0 0.025 0 0 0.03 0 0 0.035 0 0 0.04 0 0 0.045 0 0 0.05 0 0 0.055 0 0 0.06 0 0 0.065 0 0 0.07 0 0 0.075 0 0 0.08 0 0 0.085 0 0 0.09 0 0 0.095 0 0 0.1 0 0 0.105 0 0 0.11 0 0 0.115 0 0 0.12 0 0 0.125 0 0 0.13 0 0 0.135 0 0 0.14 0 0 0.145 0 0 0.15 0 0 0.155 0 0 0.16 0 0 0.165 0 0 0.17 0 0 0.175 0 0 0.18 0 0 0.185 0 0 0.19 0 0 0.195 0 0 0.2 0 0 0.205 0 0 0.21 0 0 0.215 0 0 0.22 0 0 0.225 0 0 0.23 0 0 0.235 0 0 0.24 0 0 0.245 0 0 0.25 0 0 0.255 0 0 0.26 0 0 0.265 0 0 0.27 0 0 0.275 0 0 0.28 0 0 0.285 0 0 0.29 0 0 0.295 0 0 0.3 0 0 0.305 0 0 0.31 0 0 0.315 0 0 0.32 0 0 0.325 0 0 0.33 0 0 0.335 0 0 0.34 0 0 0.345 0 0 0.35 0 0 0.355 0 0 0.36 0 0 0.365 0 0 0.37 0 0 0.375 0 0 0.38 0 0 0.385 0 0 0.39 0 0 0.395 0 0 0.4 0 0 0.405 0 0 0.41 0 0 0.415 0 0 0.42 0 0 0.425 0 0 0.43 0 0 0.435 0 0 0.44 0 0 0.445 0 0 0.45 0 0 0.455 0 0 0.46 0 0 0.465 0 0 0.47 0 0 0.475 0 0 0.48 0 0 0.485 0 0 0.49 0 0 0.495 0 0 0.5 0 0 0.505 0 0 0.51 0 0 0.515 0 0 0.52 0 0 0.525 0 0 0.53 0 0 0.535 0 0 0.54 0 0 0.545 0 0 0.55 0 0 0.555 0 0 0.56 0 0 0.565 0 0 0.57 0 0 0.575 0 0 0.58 0 0 0.585 0 0 0.59 0 0 0.595 0 0 0.6 0 0 0.605 0 0 0.61 0 0 0.615 0 0 0.62 0 0 0.625 0 0 0.63 0 0 0.635 0 0 0.64 0 0 0.645 0 0 0.65 0 0 0.655 0 0 0.66 0 0 0.665 0 0 0.67 0 0 0.675 0 0 0.68 0 0 0.685 0 0 0.69 0 0 0.695 0 0 0.7 0 0 0.705 0 0 0.71 0 0 0.715 0 0 0.72 0 0 0.725 0 0 0.73 0 0 0.735 0 0 0.74 0 0 0.745 0 0 0.75 0 0 0.755 0 0 0.76 0 0 0.765 0 0 0.77 0 0 0.775 0 0 0.78 0 0 0.785 0 0 0.79 0 0 0.795 0 0 0.8 0 0 0.805 0 0 0.81 0 0 0.815 0 0 0.82 0 0 0.825 0 0 0.83 0 0 0.835 0 0 0.84 0 0 0.845 0 0 0.85 0 0 0.855 0 0 0.86 0 0 0.865 0 0 0.87 0 0 0.875 0 0 0.88 0 0 0.885 0 0 0.89 0 0 0.895 0 0 0.9 0 0 0.905 0 0 0.91 0 0 0.915 0 0 0.92 0 0 0.925 0 0 0.93 0 0 0.935 0 0 0.94 0 0 0.945 0 0 0.95 0 0 0.955 0 0 0.96 0 0 0.965 0 0 0.97 0 0 0.975 0 0 0.98 0 0 0.985 0 0 0.99 0 0 0.995 0 0 1 0 0 0 0.02 0 0.005 0.02 0 0.01 0.02 0 0.015 0.02 0 0.02 0.02 0 0.025 0.02 0 0.03 0.02 0 0.035 0.02 0 0.04 0.02 0 0.045 0.02 0 0.05 0.02 0 0.055 0.02 0 0.06 0.02 0 0.065 0.02 0 0.07 0.02 0 0.075 0.02 0 0.08 0.02 0 0.085 0.02 0 0.09 0.02 0 0.095 0.02 0 0.1 0.02 0 0.105 0.02 0 0.11 0.02 0 0.115 0.02 0 0.12 0.02 0 0.125 0.02 0 0.13 0.02 0 0.135 0.02 0 0.14 0.02 0 0.145 0.02 0 0.15 0.02 0 0.155 0.02 0 0.16 0.02 0 0.165 0.02 0 0.17 0.02 0 0.175 0.02 0 0.18 0.02 0 0.185 0.02 0 0.19 0.02 0 0.195 0.02 0 0.2 0.02 0 0.205 0.02 0 0.21 0.02 0 0.215 0.02 0 0.22 0.02 0 0.225 0.02 0 0.23 0.02 0 0.235 0.02 0 0.24 0.02 0 0.245 0.02 0 0.25 0.02 0 0.255 0.02 0 0.26 0.02 0 0.265 0.02 0 0.27 0.02 0 0.275 0.02 0 0.28 0.02 0 0.285 0.02 0 0.29 0.02 0 0.295 0.02 0 0.3 0.02 0 0.305 0.02 0 0.31 0.02 0 0.315 0.02 0 0.32 0.02 0 0.325 0.02 0 0.33 0.02 0 0.335 0.02 0 0.34 0.02 0 0.345 0.02 0 0.35 0.02 0 0.355 0.02 0 0.36 0.02 0 0.365 0.02 0 0.37 0.02 0 0.375 0.02 0 0.38 0.02 0 0.385 0.02 0 0.39 0.02 0 0.395 0.02 0 0.4 0.02 0 0.405 0.02 0 0.41 0.02 0 0.415 0.02 0 0.42 0.02 0 0.425 0.02 0 0.43 0.02 0 0.435 0.02 0 0.44 0.02 0 0.445 0.02 0 0.45 0.02 0 0.455 0.02 0 0.46 0.02 0 0.465 0.02 0 0.47 0.02 0 0.475 0.02 0 0.48 0.02 0 0.485 0.02 0 0.49 0.02 0 0.495 0.02 0 0.5 0.02 0 0.505 0.02 0 0.51 0.02 0 0.515 0.02 0 0.52 0.02 0 0.525 0.02 0 0.53 0.02 0 0.535 0.02 0 0.54 0.02 0 0.545 0.02 0 0.55 0.02 0 0.555 0.02 0 0.56 0.02 0 0.565 0.02 0 0.57 0.02 0 0.575 0.02 0 0.58 0.02 0 0.585 0.02 0 0.59 0.02 0 0.595 0.02 0 0.6 0.02 0 0.605 0.02 0 0.61 0.02 0 0.615 0.02 0 0.62 0.02 0 0.625 0.02 0 0.63 0.02 0 0.635 0.02 0 0.64 0.02 0 0.645 0.02 0 0.65 0.02 0 0.655 0.02 0 0.66 0.02 0 0.665 0.02 0 0.67 0.02 0 0.675 0.02 0 0.68 0.02 0 0.685 0.02 0 0.69 0.02 0 0.695 0.02 0 0.7 0.02 0 0.705 0.02 0 0.71 0.02 0 0.715 0.02 0 0.72 0.02 0 0.725 0.02 0 0.73 0.02 0 0.735 0.02 0 0.74 0.02 0 0.745 0.02 0 0.75 0.02 0 0.755 0.02 0 0.76 0.02 0 0.765 0.02 0 0.77 0.02 0 0.775 0.02 0 0.78 0.02 0 0.785 0.02 0 0.79 0.02 0 0.795 0.02 0 0.8 0.02 0 0.805 0.02 0 0.81 0.02 0 0.815 0.02 0 0.82 0.02 0 0.825 0.02 0 0.83 0.02 0 0.835 0.02 0 0.84 0.02 0 0.845 0.02 0 0.85 0.02 0 0.855 0.02 0 0.86 0.02 0 0.865 0.02 0 0.87 0.02 0 0.875 0.02 0 0.88 0.02 0 0.885 0.02 0 0.89 0.02 0 0.895 0.02 0 0.9 0.02 0 0.905 0.02 0 0.91 0.02 0 0.915 0.02 0 0.92 0.02 0 0.925 0.02 0 0.93 0.02 0 0.935 0.02 0 0.94 0.02 0 0.945 0.02 0 0.95 0.02 0 0.955 0.02 0 0.96 0.02 0 0.965 0.02 0 0.97 0.02 0 0.975 0.02 0 0.98 0.02 0 0.985 0.02 0 0.99 0.02 0 0.995 0.02 0 1 0.02 0 0 0.04 0 0.005 0.04 0 0.01 0.04 0 0.015 0.04 0 0.02 0.04 0 0.025 0.04 0 0.03 0.04 0 0.035 0.04 0 0.04 0.04 0 0.045 0.04 0 0.05 0.04 0 0.055 0.04 0 0.06 0.04 0 0.065 0.04 0 0.07 0.04 0 0.075 0.04 0 0.08 0.04 0 0.085 0.04 0 0.09 0.04 0 0.095 0.04 0 0.1 0.04 0 0.105 0.04 0 0.11 0.04 0 0.115 0.04 0 0.12 0.04 0 0.125 0.04 0 0.13 0.04 0 0.135 0.04 0 0.14 0.04 0 0.145 0.04 0 0.15 0.04 0 0.155 0.04 0 0.16 0.04 0 0.165 0.04 0 0.17 0.04 0 0.175 0.04 0 0.18 0.04 0 0.185 0.04 0 0.19 0.04 0 0.195 0.04 0 0.2 0.04 0 0.205 0.04 0 0.21 0.04 0 0.215 0.04 0 0.22 0.04 0 0.225 0.04 0 0.23 0.04 0 0.235 0.04 0 0.24 0.04 0 0.245 0.04 0 0.25 0.04 0 0.255 0.04 0 0.26 0.04 0 0.265 0.04 0 0.27 0.04 0 0.275 0.04 0 0.28 0.04 0 0.285 0.04 0 0.29 0.04 0 0.295 0.04 0 0.3 0.04 0 0.305 0.04 0 0.31 0.04 0 0.315 0.04 0 0.32 0.04 0 0.325 0.04 0 0.33 0.04 0 0.335 0.04 0 0.34 0.04 0 0.345 0.04 0 0.35 0.04 0 0.355 0.04 0 0.36 0.04 0 0.365 0.04 0 0.37 0.04 0 0.375 0.04 0 0.38 0.04 0 0.385 0.04 0 0.39 0.04 0 0.395 0.04 0 0.4 0.04 0 0.405 0.04 0 0.41 0.04 0 0.415 0.04 0 0.42 0.04 0 0.425 0.04 0 0.43 0.04 0 0.435 0.04 0 0.44 0.04 0 0.445 0.04 0 0.45 0.04 0 0.455 0.04 0 0.46 0.04 0 0.465 0.04 0 0.47 0.04 0 0.475 0.04 0 0.48 0.04 0 0.485 0.04 0 0.49 0.04 0 0.495 0.04 0 0.5 0.04 0 0.505 0.04 0 0.51 0.04 0 0.515 0.04 0 0.52 0.04 0 0.525 0.04 0 0.53 0.04 0 0.535 0.04 0 0.54 0.04 0 0.545 0.04 0 0.55 0.04 0 0.555 0.04 0 0.56 0.04 0 0.565 0.04 0 0.57 0.04 0 0.575 0.04 0 0.58 0.04 0 0.585 0.04 0 0.59 0.04 0 0.595 0.04 0 0.6 0.04 0 0.605 0.04 0 0.61 0.04 0 0.615 0.04 0 0.62 0.04 0 0.625 0.04 0 0.63 0.04 0 0.635 0.04 0 0.64 0.04 0 0.645 0.04 0 0.65 0.04 0 0.655 0.04 0 0.66 0.04 0 0.665 0.04 0 0.67 0.04 0 0.675 0.04 0 0.68 0.04 0 0.685 0.04 0 0.69 0.04 0 0.695 0.04 0 0.7 0.04 0 0.705 0.04 0 0.71 0.04 0 0.715 0.04 0 0.72 0.04 0 0.725 0.04 0 0.73 0.04 0 0.735 0.04 0 0.74 0.04 0 0.745 0.04 0 0.75 0.04 0 0.755 0.04 0 0.76 0.04 0 0.765 0.04 0 0.77 0.04 0 0.775 0.04 0 0.78 0.04 0 0.785 0.04 0 0.79 0.04 0 0.795 0.04 0 0.8 0.04 0 0.805 0.04 0 0.81 0.04 0 0.815 0.04 0 0.82 0.04 0 0.825 0.04 0 0.83 0.04 0 0.835 0.04 0 0.84 0.04 0 0.845 0.04 0 0.85 0.04 0 0.855 0.04 0 0.86 0.04 0 0.865 0.04 0 0.87 0.04 0 0.875 0.04 0 0.88 0.04 0 0.885 0.04 0 0.89 0.04 0 0.895 0.04 0 0.9 0.04 0 0.905 0.04 0 0.91 0.04 0 0.915 0.04 0 0.92 0.04 0 0.925 0.04 0 0.93 0.04 0 0.935 0.04 0 0.94 0.04 0 0.945 0.04 0 0.95 0.04 0 0.955 0.04 0 0.96 0.04 0 0.965 0.04 0 0.97 0.04 0 0.975 0.04 0 0.98 0.04 0 0.985 0.04 0 0.99 0.04 0 0.995 0.04 0 1 0.04 0 0 0.06 0 0.005 0.06 0 0.01 0.06 0 0.015 0.06 0 0.02 0.06 0 0.025 0.06 0 0.03 0.06 0 0.035 0.06 0 0.04 0.06 0 0.045 0.06 0 0.05 0.06 0 0.055 0.06 0 0.06 0.06 0 0.065 0.06 0 0.07 0.06 0 0.075 0.06 0 0.08 0.06 0 0.085 0.06 0 0.09 0.06 0 0.095 0.06 0 0.1 0.06 0 0.105 0.06 0 0.11 0.06 0 0.115 0.06 0 0.12 0.06 0 0.125 0.06 0 0.13 0.06 0 0.135 0.06 0 0.14 0.06 0 0.145 0.06 0 0.15 0.06 0 0.155 0.06 0 0.16 0.06 0 0.165 0.06 0 0.17 0.06 0 0.175 0.06 0 0.18 0.06 0 0.185 0.06 0 0.19 0.06 0 0.195 0.06 0 0.2 0.06 0 0.205 0.06 0 0.21 0.06 0 0.215 0.06 0 0.22 0.06 0 0.225 0.06 0 0.23 0.06 0 0.235 0.06 0 0.24 0.06 0 0.245 0.06 0 0.25 0.06 0 0.255 0.06 0 0.26 0.06 0 0.265 0.06 0 0.27 0.06 0 0.275 0.06 0 0.28 0.06 0 0.285 0.06 0 0.29 0.06 0 0.295 0.06 0 0.3 0.06 0 0.305 0.06 0 0.31 0.06 0 0.315 0.06 0 0.32 0.06 0 0.325 0.06 0 0.33 0.06 0 0.335 0.06 0 0.34 0.06 0 0.345 0.06 0 0.35 0.06 0 0.355 0.06 0 0.36 0.06 0 0.365 0.06 0 0.37 0.06 0 0.375 0.06 0 0.38 0.06 0 0.385 0.06 0 0.39 0.06 0 0.395 0.06 0 0.4 0.06 0 0.405 0.06 0 0.41 0.06 0 0.415 0.06 0 0.42 0.06 0 0.425 0.06 0 0.43 0.06 0 0.435 0.06 0 0.44 0.06 0 0.445 0.06 0 0.45 0.06 0 0.455 0.06 0 0.46 0.06 0 0.465 0.06 0 0.47 0.06 0 0.475 0.06 0 0.48 0.06 0 0.485 0.06 0 0.49 0.06 0 0.495 0.06 0 0.5 0.06 0 0.505 0.06 0 0.51 0.06 0 0.515 0.06 0 0.52 0.06 0 0.525 0.06 0 0.53 0.06 0 0.535 0.06 0 0.54 0.06 0 0.545 0.06 0 0.55 0.06 0 0.555 0.06 0 0.56 0.06 0 0.565 0.06 0 0.57 0.06 0 0.575 0.06 0 0.58 0.06 0 0.585 0.06 0 0.59 0.06 0 0.595 0.06 0 0.6 0.06 0 0.605 0.06 0 0.61 0.06 0 0.615 0.06 0 0.62 0.06 0 0.625 0.06 0 0.63 0.06 0 0.635 0.06 0 0.64 0.06 0 0.645 0.06 0 0.65 0.06 0 0.655 0.06 0 0.66 0.06 0 0.665 0.06 0 0.67 0.06 0 0.675 0.06 0 0.68 0.06 0 0.685 0.06 0 0.69 0.06 0 0.695 0.06 0 0.7 0.06 0 0.705 0.06 0 0.71 0.06 0 0.715 0.06 0 0.72 0.06 0 0.725 0.06 0 0.73 0.06 0 0.735 0.06 0 0.74 0.06 0 0.745 0.06 0 0.75 0.06 0 0.755 0.06 0 0.76 0.06 0 0.765 0.06 0 0.77 0.06 0 0.775 0.06 0 0.78 0.06 0 0.785 0.06 0 0.79 0.06 0 0.795 0.06 0 0.8 0.06 0 0.805 0.06 0 0.81 0.06 0 0.815 0.06 0 0.82 0.06 0 0.825 0.06 0 0.83 0.06 0 0.835 0.06 0 0.84 0.06 0 0.845 0.06 0 0.85 0.06 0 0.855 0.06 0 0.86 0.06 0 0.865 0.06 0 0.87 0.06 0 0.875 0.06 0 0.88 0.06 0 0.885 0.06 0 0.89 0.06 0 0.895 0.06 0 0.9 0.06 0 0.905 0.06 0 0.91 0.06 0 0.915 0.06 0 0.92 0.06 0 0.925 0.06 0 0.93 0.06 0 0.935 0.06 0 0.94 0.06 0 0.945 0.06 0 0.95 0.06 0 0.955 0.06 0 0.96 0.06 0 0.965 0.06 0 0.97 0.06 0 0.975 0.06 0 0.98 0.06 0 0.985 0.06 0 0.99 0.06 0 0.995 0.06 0 1 0.06 0 0 0.08 0 0.005 0.08 0 0.01 0.08 0 0.015 0.08 0 0.02 0.08 0 0.025 0.08 0 0.03 0.08 0 0.035 0.08 0 0.04 0.08 0 0.045 0.08 0 0.05 0.08 0 0.055 0.08 0 0.06 0.08 0 0.065 0.08 0 0.07 0.08 0 0.075 0.08 0 0.08 0.08 0 0.085 0.08 0 0.09 0.08 0 0.095 0.08 0 0.1 0.08 0 0.105 0.08 0 0.11 0.08 0 0.115 0.08 0 0.12 0.08 0 0.125 0.08 0 0.13 0.08 0 0.135 0.08 0 0.14 0.08 0 0.145 0.08 0 0.15 0.08 0 0.155 0.08 0 0.16 0.08 0 0.165 0.08 0
[...]
			<PointData Scalars="VitesseX">
				<DataArray Name="VitesseX" type="Float32" format="ascii">
 0 6.05582e-15 -1.20454e-14 -3.03001e-15 4.72921e-14 -4.75257e-14 -1.03567e-13 3.45943e-14 -6.39896e-15 6.44818e-14 -6.97022e-14 -6.32089e-14 -1.24986e-13 9.12164e-15 -9.27115e-14 -1.10111e-13 4.72542e-14 -1.53505e-14 -7.97592e-14 -8.61917e-14 -1.58248e-13 -2.58678e-14 2.23351e-14 -1.46317e-13 -1.92929e-13 -1.08634e-13 1.03035e-13 -1.17403e-13 -1.84702e-13 -7.25727e-15 -9.87317e-14 9.44429e-14 2.09164e-14 -1.11537e-13 -2.16677e-13 8.58271e-14 8.46134e-15 -7.67139e-14 -1.79506e-13 -1.65994e-13 -2.44937e-13 -1.36262e-13 -1.03224e-13 -5.02761e-13 -2.25832e-13 1.81386e-13 1.17641e-13 -1.5409e-13 -6.02213e-14 -1.92672e-13 6.10686e-14 7.18021e-13 6.75878e-16 -5.76204e-13 -4.43857e-13 -1.97985e-13 5.10474e-14 -3.27059e-13 1.65699e-13 -2.0357e-13 2.50101e-13 9.26169e-14 -1.2769e-13 7.23647e-14 1.26485e-13 -1.32634e-13 -2.72788e-13 -6.17455e-13 -9.40172e-14 7.17106e-14 -2.7094e-13 -9.60825e-14 5.51154e-13 7.07262e-12 8.05069e-11 8.97845e-10 9.11539e-09 8.35411e-08 6.86087e-07 5.00672e-06 3.21359e-05 0.000179139 0.000853534 0.00340762 0.011147 0.0293329 0.0620187 0.10826 0.163756 0.224933 0.289832 0.357159 0.426569 0.495955 0.558849 0.622707 0.68171 0.737607 0.792933 0.834159 0.874943 0.903018 0.914916 0.92673 0.932587 0.932697 0.931915 0.932079 0.932428 0.932269 0.931707 0.930901 0.930106 0.929302 0.928266 0.926315 0.921962 0.912305 0.892195 0.853847 0.788059 0.688241 0.556528 0.408503 0.266847 0.15182 0.0739124 0.0310447 0.0116917 0.00412365 0.00139926 0.000462161 0.000149176 4.71028e-05 1.45487e-05 4.39453e-06 1.2977e-06 3.7454e-07 1.05636e-07 2.91102e-08 7.83835e-09 2.06185e-09 5.29257e-10 1.33714e-10 3.3121e-11 7.31065e-12 2.17948e-12 -4.4654e-13 2.09801e-13 7.14856e-13 -1.33369e-12 4.54379e-13 -8.23942e-13 9.86984e-13 -3.39356e-13 2.44955e-13 -9.82818e-13 9.3678e-15 4.00798e-13 2.77542e-13 -2.53957e-14 -1.84863e-12 1.03485e-12 4.60532e-13 -5.72357e-13 4.96657e-15 -8.2792e-13 6.39014e-13 7.13725e-13 -6.91545e-13 4.22371e-13 2.12804e-13 -4.99492e-13 3.7624e-13 -9.31556e-13 3.82351e-13 -2.48139e-13 -1.36919e-13 -2.73589e-13 -1.05619e-12 7.30925e-13 3.70224e-13 -2.49936e-13 -4.04439e-13 -2.12121e-13 7.99714e-13 1.68429e-13 -9.38152e-13 -1.64815e-13 -1.10745e-12 1.4349e-12 -1.6231e-13 -2.45447e-12 5.42077e-13 8.85641e-13 5.07032e-13 -1.35521e-12 -2.26235e-12 1.53891e-12 1.13879e-12 0 0 -1.72166e-14 2.93472e-15 -3.62697e-15 -4.83162e-14 2.21168e-14 5.84995e-14 -3.72684e-14 9.65068e-15 -7.15125e-14 5.88511e-15 -1.22705e-14 -3.2686e-14 -1.21017e-13 -7.30643e-14 -4.38528e-15 -1.56596e-13 -3.17005e-14 -3.44069e-14 -3.03803e-14 -6.64021e-15 -1.46207e-13 -1.68645e-13 -3.44394e-14 7.25757e-14 -6.91712e-14 -2.65268e-13 -6.51196e-14 5.19353e-14 -8.66429e-14 -7.5843e-16 -7.85563e-14 -1.09983e-13 -6.06798e-14 1.93088e-13 -1.40415e-13 -9.77878e-14 -1.81173e-13 -9.61687e-14 -1.08059e-13 -7.01589e-14 -2.42955e-13 -2.70132e-13 6.13275e-14 -1.82836e-13 -2.64553e-13 -1.57591e-14 1.17357e-13 1.51032e-13 3.05528e-13 1.08645e-13 -4.07055e-13 -1.88155e-13 8.23556e-14 -1.09915e-13 -2.2933e-13 -3.66467e-13 7.70737e-15 -1.39268e-13 1.00034e-13 -1.33085e-13 -4.77935e-14 1.8982e-13 -7.5711e-14 -1.96435e-13 -1.84842e-13 -1.22624e-13 1.01748e-13 -1.82732e-13 -4.73901e-13 -1.08012e-13 4.21353e-13 8.74821e-13 6.69928e-12 8.03801e-11 8.97917e-10 9.11579e-09 8.35413e-08 6.86087e-07 5.00672e-06 3.21359e-05 0.000179139 0.000853534 0.00340762 0.011147 0.0293329 0.0620187 0.10826 0.163756 0.224933 0.289832 0.357159 0.426569 0.495955 0.558849 0.622707 0.68171 0.737607 0.792933 0.834159 0.874943 0.903018 0.914916 0.92673 0.932587 0.932697 0.931915 0.932079 0.932428 0.932269 0.931707 0.930901 0.930106 0.929302 0.928266 0.926315 0.921962 0.912305 0.892195 0.853847 0.788059 0.688241 0.556528 0.408503 0.266847 0.15182 0.0739124 0.0310447 0.0116917 0.00412365 0.00139926 0.000462161 0.000149176 4.71028e-05 1.45487e-05 4.39453e-06 1.2977e-06 3.7454e-07 1.05635e-07 2.91112e-08 7.83778e-09 2.06198e-09 5.30683e-10 1.32582e-10 3.21773e-11 8.36445e-12 1.56618e-12 1.02894e-12 -5.54211e-13 -8.05154e-13 6.96209e-13 -5.76849e-13 3.30725e-13 -7.58606e-13 7.7857e-14 -2.30491e-13 5.92805e-13 -1.66192e-13 -6.22063e-13 -6.70636e-13 -8.42175e-14 9.6722e-13 -6.21533e-13 -6.4331e-13 1.00982e-13 -1.74156e-13 3.62736e-13 -2.77142e-13 -2.17258e-13 1.02632e-12 -4.1332e-13 1.69197e-14 5.85691e-13 -6.69843e-13 3.84307e-13 -7.32357e-13 -1.56493e-13 -2.09382e-13 -2.20902e-13 1.4226e-14 -7.05837e-13 4.16133e-14 5.19104e-13 3.06602e-13 2.26481e-13 -7.69963e-13 -1.10695e-13 6.3047e-13 -2.43731e-13 4.56433e-13 -1.56997e-12 -4.31841e-13 1.52922e-12 -9.60411e-13 -8.90071e-13 -7.77246e-13 3.87905e-13 1.11705e-12 -1.54723e-12 -6.84701e-13 0 0 1.23934e-14 -2.19481e-15 6.84217e-15 -7.12059e-15 3.10826e-14 2.00424e-14 7.49696e-15 6.60264e-15 -3.72604e-15 -1.65655e-14 -4.16994e-14 -5.93022e-14 -5.20898e-14 -7.14523e-14 -8.36338e-14 -3.06756e-14 -1.95893e-13 7.39242e-14 -9.39936e-14 -9.70208e-14 -5.66376e-14 -3.02479e-14 -4.43504e-14 -1.70671e-13 -3.55892e-14 5.78789e-14 -1.66988e-13 -8.94027e-14 5.84562e-14 -5.24122e-14 -1.30808e-13 4.30111e-14 4.55172e-14 -2.03906e-13 -5.4257e-14 2.24429e-14 -4.10333e-14 -1.20853e-13 -2.50467e-13 -1.71065e-13 -1.32003e-13 -6.43894e-14 -9.41987e-14 -4.17944e-14 3.99178e-14 -5.79584e-14 4.82223e-14 7.50315e-15 -7.53563e-14 -1.45715e-13 1.18889e-13 -6.71985e-15 -1.25602e-13 -2.37892e-13 -8.84839e-14 -9.08989e-14 -3.06314e-13 -1.40955e-13 4.38799e-14 1.24296e-13 3.50315e-15 -2.99134e-13 -5.59009e-14 -2.22385e-13 1.19762e-13 -2.80122e-14 -2.71998e-13 -2.20423e-13 8.969e-14 5.49082e-14 2.11425e-13 7.77687e-13 7.08625e-12 8.07319e-11 8.97952e-10 9.1153e-09 8.35413e-08 6.86087e-07 5.00672e-06 3.21359e-05 0.000179139 0.000853534 0.00340762 0.011147 0.0293329 0.0620187 0.10826 0.163756 0.224933 0.289832 0.357159 0.426569 0.495955 0.558849 0.622707 0.68171 0.737607 0.792933 0.834159 0.874943 0.903018 0.914916 0.92673 0.932587 0.932697 0.931915 0.932079 0.932428 0.932269 0.931707 0.930901 0.930106 0.929302 0.928266 0.926315 0.921962 0.912305 0.892195 0.853847 0.788059 0.688241 0.556528 0.408503 0.266847 0.15182 0.0739124 0.0310447 0.0116917 0.00412365 0.00139926 0.000462161 0.000149176 4.71028e-05 1.45487e-05 4.39453e-06 1.2977e-06 3.7454e-07 1.05636e-07 2.91106e-08 7.83845e-09 2.06205e-09 5.29806e-10 1.33297e-10 3.2685e-11 7.38298e-12 2.16054e-12 -2.9791e-13 2.99603e-13 2.22545e-13 -2.49019e-13 -1.55918e-13 -7.49124e-13 -2.64816e-13 8.09443e-14 -1.9937e-13 -2.104e-13 -1.25313e-13 -2.36178e-13 -3.81547e-13 -2.48235e-13 -6.4128e-13 -2.37196e-13 4.27509e-14 5.23389e-14 1.10531e-13 -3.31092e-13 -1.38853e-13 2.92e-13 -1.01136e-13 4.26207e-13 1.92127e-13 -2.71745e-13 7.22731e-14 -3.77989e-13 1.55987e-13 -4.32753e-13 -5.34301e-13 1.54338e-13 -4.88898e-13 -2.4022e-14 -1.33024e-13 1.52674e-13 7.75249e-13 -1.41655e-13 -2.74267e-13 1.96154e-13 2.02781e-13 4.61704e-13 -8.51928e-13 -2.33263e-13 -2.87425e-13 -2.29077e-13 -4.25131e-14 3.54067e-14 -3.98664e-13 -5.98686e-13 -4.15073e-13 6.92441e-13 2.34123e-13 0 0 1.27405e-14 3.73338e-14 4.87453e-14 6.18309e-14 8.03033e-15 -2.11204e-14 4.97546e-14 -1.93479e-14 -1.23323e-14 -8.65497e-14 -4.92065e-14 -3.41659e-14 -2.31797e-14 -7.2771e-14 -8.3611e-14 -2.40214e-14 -3.16441e-14 -1.01591e-13 -7.14786e-14 -1.52561e-13 -5.55337e-14 -1.7338e-14 -1.5543e-13 -5.81252e-14 -3.654e-14 5.51269e-14 -2.58114e-14 -1.45624e-13 -6.992e-14 -1.08822e-13 6.15521e-14 -1.67954e-14 -2.50654e-14 -1.62367e-13 -1.41655e-13 -5.91971e-14 -3.15597e-14 -9.72516e-14 -1.67611e-14 -2.37712e-13 -6.67549e-14 -1.72566e-13 -1.96259e-13 -5.30198e-14 -4.45788e-14 8.2738e-14 -3.6114e-14 -1.75143e-13 -1.01671e-13 -7.22212e-14 3.14404e-13 -1.21156e-13 -3.78669e-13 -3.35526e-13 -1.30365e-13 4.76452e-14 -2.98496e-13 1.58527e-14 -1.10692e-13 1.75981e-13 1.32464e-13 1.41891e-13 -9.59381e-15 8.12156e-14 -2.6562e-13 -2.24996e-13 -4.528e-13 -6.00521e-14 1.72497e-14 -5.73665e-14 4.94183e-14 8.38104e-13 7.23776e-12 8.08972e-11 8.98033e-10 9.11564e-09 8.35413e-08 6.86087e-07 5.00672e-06 3.21359e-05 0.000179139 0.000853534 0.00340762 0.011147 0.0293329 0.0620187 0.10826 0.163756 0.224933 0.289832 0.357159 0.426569 0.495955 0.558849 0.622707 0.68171 0.737607 0.792933 0.834159 0.874943 0.903018 0.914916 0.92673 0.932587 0.932697 0.931915 0.932079 0.932428 0.932269 0.931707 0.930901 0.930106 0.929302 0.928266 0.926315 0.921962 0.912305 0.892195 0.853847 0.788059 0.688241 0.556528 0.408503 0.266847 0.15182 0.0739124 0.0310447 0.0116917 0.00412365 0.00139926 0.000462161 0.000149176 4.71028e-05 1.45487e-05 4.39453e-06 1.2977e-06 3.74541e-07 1.05636e-07 2.91109e-08 7.83804e-09 2.06206e-09 5.29863e-10 1.33307e-10 3.30948e-11 7.51662e-12 1.68622e-12 -1.65876e-13 1.98036e-13 2.55046e-13 -3.07994e-13 -2.46855e-13 -7.10986e-13 2.31911e-13 -1.25824e-13 -8.97857e-14 -7.74868e-13 -3.07669e-13 -3.55268e-13 2.44345e-13 -7.54206e-14 -1.07123e-12 1.57655e-13 -1.20346e-13 -1.47223e-13 -2.89907e-13 2.58586e-14 4.19009e-13 4.96641e-13 -7.30863e-13 -3.74882e-13 -2.68724e-13 -2.32516e-14 -1.577e-13 -7.61289e-14 4.80942e-13 -2.52113e-13 -5.82897e-13 -3.16342e-13 -6.32017e-13 5.07351e-13 4.65873e-13 3.33836e-13 -2.30526e-13 -2.54328e-13 6.13824e-13 6.94254e-13 -6.88435e-13 -3.60976e-13 -6.45774e-13 5.40793e-13 -8.50357e-13 -8.80054e-13 3.88304e-13 2.58035e-13 1.54838e-14 -7.89788e-13 -6.93878e-13 9.36001e-13 7.97611e-13 0 0 1.63744e-14 6.37353e-14 5.59687e-14 1.90516e-14 2.36511e-14 5.68676e-14 -8.59912e-15 -7.34752e-15 -9.46204e-14 -4.70306e-14 -4.45643e-14 -8.11121e-15 -8.34617e-14 -4.35482e-14 -2.11937e-14 -1.29997e-13 4.14965e-14 -1.22302e-13 -2.43202e-14 -2.81697e-14 -1.24569e-13 -1.7258e-13 -5.80791e-14 1.43271e-13 1.21225e-15 -1.7123e-13 3.33633e-14 5.82781e-14 -3.01865e-13 -7.6882e-14 -1.03431e-13 -1.85221e-13 -7.07568e-14 1.52372e-13 -1.88576e-13 -1.52826e-13 -8.41711e-14 -8.9367e-14 6.46438e-14 -1.90675e-13 -1.44193e-13 -1.86048e-13 6.63662e-14 -1.70834e-13 -2.24759e-13 4.56958e-14 8.06708e-14 6.16002e-14 2.3582e-13 8.16666e-14 -4.81969e-13 -1.80312e-13 -8.02716e-14 -9.61584e-14 -2.57566e-13 -4.43989e-13 -1.07491e-13 -9.96103e-14 1.04848e-13 -1.39038e-14 1.28539e-13 4.09148e-13 8.218e-15 1.81325e-15 -5.29843e-13 -2.12325e-13 1.20541e-13 -2.9088e-13 -3.80349e-13 -2.74173e-14 5.35501e-13 1.15589e-12 6.94834e-12 8.07774e-11 8.97841e-10 9.11598e-09 8.35414e-08 6.86087e-07 5.00672e-06 3.21359e-05 0.000179139 0.000853534 0.00340762 0.011147 0.0293329 0.0620187 0.10826 0.163756 0.224933 0.289832 0.357159 0.426569 0.495955 0.558849 0.622707 0.68171 0.737607 0.792933 0.834159 0.874943 0.903018 0.914916 0.92673 0.932587 0.932697 0.931915 0.932079 0.932428 0.932269 0.931707 0.930901 0.930106 0.929302 0.928266 0.926315 0.921962 0.912305 0.892195 0.853847 0.788059 0.688241 0.556528 0.408503 0.266847 0.15182 0.0739124 0.0310447 0.0116917 0.00412365 0.00139926 0.000462161 0.000149176 4.71028e-05 1.45487e-05 4.39453e-06 1.2977e-06 3.7454e-07 1.05635e-07 2.91115e-08 7.83763e-09 2.06226e-09 5.30478e-10 1.32579e-10 3.24036e-11 8.44468e-12 1.08495e-12 9.33462e-13 -5.34033e-13 -1.03251e-12 5.91432e-13 -3.64553e-13 2.37848e-13 -4.59361e-13 -2.14432e-13 -3.40287e-13 1.44241e-13 4.42579e-14 -6.16466e-13 -3.18926e-13 -8.60457e-14 7.79299e-13 -9.91546e-13 -5.94163e-13 -9.95985e-14 -1.38546e-13 7.48017e-13 1.12727e-13 -5.22406e-13 3.55069e-13 -7.37518e-13 -3.90856e-13 6.56741e-13 -7.65311e-13 2.92595e-13 -8.16163e-13 -3.02731e-13 -4.32672e-13 -7.30401e-13 3.91613e-14 -3.04158e-13 3.36637e-13 7.00286e-13 1.55019e-13 1.33024e-13 -8.55278e-14 2.00178e-13 -7.70449e-14 -7.28841e-13 2.70229e-13 -1.03907e-12 -2.39765e-13 1.23382e-12 -1.08419e-12 -8.0648e-13 -2.83393e-13 3.737e-13 1.51157e-12 -1.2033e-12 -8.09564e-13 0 0 7.25434e-14 3.04985e-14 3.23551e-14 4.41248e-14 1.64744e-15 -2.45052e-14 7.41761e-15 1.15056e-14 3.54785e-14 -3.55654e-14 -1.12782e-13 -1.26109e-13 2.6413e-14 -3.10419e-14 -1.43774e-13 8.71432e-14 -1.97455e-13 9.5481e-14 -1.19101e-13 -9.02273e-14 1.5199e-14 -1.13546e-14 2.85625e-14 -2.76632e-13 3.40341e-14 2.96616e-13 -2.0279e-13 -5.95732e-14 -1.80949e-13 -1.38159e-13 -3.40026e-13 -9.94621e-15 9.47435e-15 -3.81186e-13 1.643e-13 6.16649e-14 9.83428e-14 -2.13106e-13 -2.88001e-13 -3.52676e-13 -6.92334e-14 2.81296e-13 -2.88562e-13 -1.79378e-13 4.29968e-13 -4.08423e-14 -5.87894e-14 1.26208e-13 -2.7946e-13 -1.39877e-13 1.77162e-13 2.45235e-13 -3.95325e-13 -2.21075e-13 -1.70694e-13 -3.81084e-13 -5.73093e-13 -6.86001e-14 1.15204e-13 3.85096e-13 1.87358e-13 -5.71084e-13 1.47608e-13 -8.42194e-14 -5.18723e-14 -5.82227e-14 -2.18265e-13 -6.31056e-13 4.03697e-13 1.14799e-13 4.56228e-13 9.92466e-13 7.26772e-12 8.09711e-11 8.9753e-10 9.11509e-09 8.35414e-08 6.86088e-07 5.00672e-06 3.21359e-05 0.000179139 0.000853534 0.00340762 0.011147 0.0293329 0.0620187 0.10826 0.163756 0.224933 0.289832 0.357159 0.426569 0.495955 0.558849 0.622707 0.68171 0.737607 0.792933 0.834159 0.874943 0.903018 0.914916 0.92673 0.932587 0.932697 0.931915 0.932079 0.932428 0.932269 0.931707 0.930901 0.930106 0.929302 0.928266 0.926315 0.921962 0.912305 0.892195 0.853847 0.788059 0.688241 0.556528 0.408503 0.266847 0.15182 0.0739124 0.0310447 0.0116917 0.00412365 0.00139926 0.000462161 0.000149176 4.71028e-05 1.45487e-05 4.39453e-06 1.2977e-06 3.7454e-07 1.05636e-07 2.91103e-08 7.83887e-09 2.06239e-09 5.28733e-10 1.33688e-10 3.2754e-11 7.20381e-12 2.16566e-12 -9.01565e-13 4.53292e-13 1.95143e-13 -1.42529e-12 1.06084e-12 -1.08597e-12 5.92021e-13 -5.10399e-13 -1.93806e-13 -7.51008e-13 7.9498e-13 6.50171e-13 -2.70822e-13 -3.74682e-13 -1.36458e-12 -4.94883e-13 8.85019e-13 -5.74393e-13 8.77064e-13 -7.71261e-13 3.03028e-13 -3.05853e-13 -7.74588e-13 1.37615e-12 3.18954e-13 -8.54378e-13 6.4525e-13 -1.7187e-12 -4.35171e-13 -9.01896e-13 -4.86308e-13 -3.51227e-13 -7.2008e-13 4.71536e-13 -2.37523e-13 -2.49898e-13 1.30394e-12 -1.73691e-13 3.92402e-13 -2.06026e-13 -5.70748e-13 5.10325e-13 -1.89217e-12 9.48597e-13 1.34771e-12 -1.74331e-12 -5.67123e-13 6.07568e-13 6.66443e-13 -1.00142e-12 -9.15718e-13 1.73965e-12 -2.37907e-13 0
				</DataArray>
				<DataArray Name="VitesseY" type="Float32" format="ascii">