<?xml version="1.0"?>
<VTKFile type="PolyData">
	<PolyData>
		<Piece NumberOfPoints="1206" NumberOfPolys="1000">
			<Points>
				<DataArray type="Float32" NumberOfComponents="3" format="ascii">
 0 0 0 0.005 0 0 0.01 0 0 0.015 0 0 0.02 0 0 0.025 0 0 0.03 0 0 0.035 0 0 0.04 0 0 0.045 0 0 0.05 0 0 0.055 0 0 0.06 0 0 0.065 0 0 0.07 0 0 0.075 0 0 0.08 0 0 0.085 0 0 0.09 0 0 0.095 0 0 0.1 0 0 0.105 0 0 0.11 0 0 0.115 0 0 0.12 0 0 0.125 0 0 0.13 0 0 0.135 0 0 0.14 0 0 0.145 0 0 0.15 0 0 0.155 0 0 0.16 0 0 0.165 0 0 0.17 0 0 0.175 0 0 0.18 0 0 0.185 0 0 0.19 0 0 0.195 0 0 0.2 0 0 0.205 0 0 0.21 0 0 0.215 0 0 0.22 0 0 0.225 0 0 0.23 0 0 0.235 0 0 0.24 0 0 0.245 0 0 0.25 0 0 0.255 0 0 0.26 0 0 0.265 0 0 0.27 0 0 0.275 0 0 0.28 0 0 0.285 0 0 0.29 0 0 0.295 0 0 0.3 0 0 0.305 0 0 0.31 0 0 0.315 0 0 0.32 0 0 0.325 0 0 0.33 0 0 0.335 0 0 0.34 0 0 0.345 0 0 0.35 0 0 0.355 0 0 0.36 0 0 0.365 0 0 0.37 0 0 0.375 0 0 0.38 0 0 0.385 0 0 0.39 0 0 0.395 0 0 0.4 0 0 0.405 0 0 0.41 0 0 0.415 0 0 0.42 0 0 0.425 0 0 0.43 0 0 0.435 0 0 0.44 0 0 0.445 0 0 0.45 0 0 0.455 0 0 0.46 0 0 0.465 0 0 0.47 0 0 0.475 0 0 0.48 0 0 0.485 0 0 0.49 0 0 0.495 0 0 0.5 0 0 0.505 0 0 0.51 0 0 0.515 0 0 0.52 0 0 0.525 0 0 0.53 0 0 0.535 0 0 0.54 0 0 0.545 0 0 0.55 0 0 0.555 0 0 0.56 0 0 0.565 0 0 0.57 0 0 0.575 0 0 0.58 0 0 0.585 0 0 0.59 0 0 0.595 0 0 0.6 0 0 0.605 0 0 0.61 0 0 0.615 0 0 0.62 0 0 0.625 0 0 0.63 0 0 0.635 0 0 0.64 0 0 0.645 0 0 0.65 0 0 0.655 0 0 0.66 0 0 0.665 0 0 0.67 0 0 0.675 0 0 0.68 0 0 0.685 0 0 0.69 0 0 0.695 0 0 0.7 0 0 0.705 0 0 0.71 0 0 0.715 0 0 0.72 0 0 0.725 0 0 0.73 0 0 0.735 0 0 0.74 0 0 0.745 0 0 0.75 0 0 0.755 0 0 0.76 0 0 0.765 0 0 0.77 0 0 0.775 0 0 0.78 0 0 0.785 0 0 0.79 0 0 0.795 0 0 0.8 0 0 0.805 0 0 0.81 0 0 0.815 0 0 0.82 0 0 0.825 0 0 0.83 0 0 0.835 0 0 0.84 0 0 0.845 0 0 0.85 0 0 0.855 0 0 0.86 0 0 0.865 0 0 0.87 0 0 0.875 0 0 0.88 0 0 0.885 0 0 0.89 0 0 0.895 0 0 0.9 0 0 0.905 0 0 0.91 0 0 0.915 0 0 0.92 0 0 0.925 0 0 0.93 0 0 0.935 0 0 0.94 0 0 0.945 0 0 0.95 0 0 0.955 0 0 0.96 0 0 0.965 0 0 0.97 0 0 0.975 0 0 0.98 0 0 0.985 0 0 0.99 0 0 0.995 0 0 1 0 0 0 0.02 0 0.005 0.02 0 0.01 0.02 0 0.015 0.02 0 0.02 0.02 0 0.025 0.02 0 0.03 0.02 0 0.035 0.02 0 0.04 0.02 0 0.045 0.02 0 0.05 0.02 0 0.055 0.02 0 0.06 0.02 0 0.065 0.02 0 0.07 0.02 0 0.075 0.02 0 0.08 0.02 0 0.085 0.02 0 0.09 0.02 0 0.095 0.02 0 0.1 0.02 0 0.105 0.02 0 0.11 0.02 0 0.115 0.02 0 0.12 0.02 0 0.125 0.02 0 0.13 0.02 0 0.135 0.02 0 0.14 0.02 0 0.145 0.02 0 0.15 0.02 0 0.155 0.02 0 0.16 0.02 0 0.165 0.02 0 0.17 0.02 0 0.175 0.02 0 0.18 0.02 0 0.185 0.02 0 0.19 0.02 0 0.195 0.02 0 0.2 0.02 0 0.205 0.02 0 0.21 0.02 0 0.215 0.02 0 0.22 0.02 0 0.225 0.02 0 0.23 0.02 0 0.235 0.02 0 0.24 0.02 0 0.245 0.02 0 0.25 0.02 0 0.255 0.02 0 0.26 0.02 0 0.265 0.02 0 0.27 0.02 0 0.275 0.02 0 0.28 0.02 0 0.285 0.02 0 0.29 0.02 0 0.295 0.02 0 0.3 0.02 0 0.305 0.02 0 0.31 0.02 0 0.315 0.02 0 0.32 0.02 0 0.325 0.02 0 0.33 0.02 0 0.335 0.02 0 0.34 0.02 0 0.345 0.02 0 0.35 0.02 0 0.355 0.02 0 0.36 0.02 0 0.365 0.02 0 0.37 0.02 0 0.375 0.02 0 0.38 0.02 0 0.385 0.02 0 0.39 0.02 0 0.395 0.02 0 0.4 0.02 0 0.405 0.02 0 0.41 0.02 0 0.415 0.02 0 0.42 0.02 0 0.425 0.02 0 0.43 0.02 0 0.435 0.02 0 0.44 0.02 0 0.445 0.02 0 0.45 0.02 0 0.455 0.02 0 0.46 0.02 0 0.465 0.02 0 0.47 0.02 0 0.475 0.02 0 0.48 0.02 0 0.485 0.02 0 0.49 0.02 0 0.495 0.02 0 0.5 0.02 0 0.505 0.02 0 0.51 0.02 0 0.515 0.02 0 0.52 0.02 0 0.525 0.02 0 0.53 0.02 0 0.535 0.02 0 0.54 0.02 0 0.545 0.02 0 0.55 0.02 0 0.555 0.02 0 0.56 0.02 0 0.565 0.02 0 0.57 0.02 0 0.575 0.02 0 0.58 0.02 0 0.585 0.02 0 0.59 0.02 0 0.595 0.02 0 0.6 0.02 0 0.605 0.02 0 0.61 0.02 0 0.615 0.02 0 0.62 0.02 0 0.625 0.02 0 0.63 0.02 0 0.635 0.02 0 0.64 0.02 0 0.645 0.02 0 0.65 0.02 0 0.655 0.02 0 0.66 0.02 0 0.665 0.02 0 0.67 0.02 0 0.675 0.02 0 0.68 0.02 0 0.685 0.02 0 0.69 0.02 0 0.695 0.02 0 0.7 0.02 0 0.705 0.02 0 0.71 0.02 0 0.715 0.02 0 0.72 0.02 0 0.725 0.02 0 0.73 0.02 0 0.735 0.02 0 0.74 0.02 0 0.745 0.02 0 0.75 0.02 0 0.755 0.02 0 0.76 0.02 0 0.765 0.02 0 0.77 0.02 0 0.775 0.02 0 0.78 0.02 0 0.785 0.02 0 0.79 0.02 0 0.795 0.02 0 0.8 0.02 0 0.805 0.02 0 0.81 0.02 0 0.815 0.02 0 0.82 0.02 0 0.825 0.02 0 0.83 0.02 0 0.835 0.02 0 0.84 0.02 0 0.845 0.02 0 0.85 0.02 0 0.855 0.02 0 0.86 0.02 0 0.865 0.02 0 0.87 0.02 0 0.875 0.02 0 0.88 0.02 0 0.885 0.02 0 0.89 0.02 0 0.895 0.02 0 0.9 0.02 0 0.905 0.02 0 0.91 0.02 0 0.915 0.02 0 0.92 0.02 0 0.925 0.02 0 0.93 0.02 0 0.935 0.02 0 0.94 0.02 0 0.945 0.02 0 0.95 0.02 0 0.955 0.02 0 0.96 0.02 0 0.965 0.02 0 0.97 0.02 0 0.975 0.02 0 0.98 0.02 0 0.985 0.02 0 0.99 0.02 0 0.995 0.02 0 1 0.02 0 0 0.04 0 0.005 0.04 0 0.01 0.04 0 0.015 0.04 0 0.02 0.04 0 0.025 0.04 0 0.03 0.04 0 0.035 0.04 0 0.04 0.04 0 0.045 0.04 0 0.05 0.04 0 0.055 0.04 0 0.06 0.04 0 0.065 0.04 0 0.07 0.04 0 0.075 0.04 0 0.08 0.04 0 0.085 0.04 0 0.09 0.04 0 0.095 0.04 0 0.1 0.04 0 0.105 0.04 0 0.11 0.04 0 0.115 0.04 0 0.12 0.04 0 0.125 0.04 0 0.13 0.04 0 0.135 0.04 0 0.14 0.04 0 0.145 0.04 0 0.15 0.04 0 0.155 0.04 0 0.16 0.04 0 0.165 0.04 0 0.17 0.04 0 0.175 0.04 0 0.18 0.04 0 0.185 0.04 0 0.19 0.04 0 0.195 0.04 0 0.2 0.04 0 0.205 0.04 0 0.21 0.04 0 0.215 0.04 0 0.22 0.04 0 0.225 0.04 0 0.23 0.04 0 0.235 0.04 0 0.24 0.04 0 0.245 0.04 0 0.25 0.04 0 0.255 0.04 0 0.26 0.04 0 0.265 0.04 0 0.27 0.04 0 0.275 0.04 0 0.28 0.04 0 0.285 0.04 0 0.29 0.04 0 0.295 0.04 0 0.3 0.04 0 0.305 0.04 0 0.31 0.04 0 0.315 0.04 0 0.32 0.04 0 0.325 0.04 0 0.33 0.04 0 0.335 0.04 0 0.34 0.04 0 0.345 0.04 0 0.35 0.04 0 0.355 0.04 0 0.36 0.04 0 0.365 0.04 0 0.37 0.04 0 0.375 0.04 0 0.38 0.04 0 0.385 0.04 0 0.39 0.04 0 0.395 0.04 0 0.4 0.04 0 0.405 0.04 0 0.41 0.04 0 0.415 0.04 0 0.42 0.04 0 0.425 0.04 0 0.43 0.04 0 0.435 0.04 0 0.44 0.04 0 0.445 0.04 0 0.45 0.04 0 0.455 0.04 0 0.46 0.04 0 0.465 0.04 0 0.47 0.04 0 0.475 0.04 0 0.48 0.04 0 0.485 0.04 0 0.49 0.04 0 0.495 0.04 0 0.5 0.04 0 0.505 0.04 0 0.51 0.04 0 0.515 0.04 0 0.52 0.04 0 0.525 0.04 0 0.53 0.04 0 0.535 0.04 0 0.54 0.04 0 0.545 0.04 0 0.55 0.04 0 0.555 0.04 0 0.56 0.04 0 0.565 0.04 0 0.57 0.04 0 0.575 0.04 0 0.58 0.04 0 0.585 0.04 0 0.59 0.04 0 0.595 0.04 0 0.6 0.04 0 0.605 0.04 0 0.61 0.04 0 0.615 0.04 0 0.62 0.04 0 0.625 0.04 0 0.63 0.04 0 0.635 0.04 0 0.64 0.04 0 0.645 0.04 0 0.65 0.04 0 0.655 0.04 0 0.66 0.04 0 0.665 0.04 0 0.67 0.04 0 0.675 0.04 0 0.68 0.04 0 0.685 0.04 0 0.69 0.04 0 0.695 0.04 0 0.7 0.04 0 0.705 0.04 0 0.71 0.04 0 0.715 0.04 0 0.72 0.04 0 0.725 0.04 0 0.73 0.04 0 0.735 0.04 0 0.74 0.04 0 0.745 0.04 0 0.75 0.04 0 0.755 0.04 0 0.76 0.04 0 0.765 0.04 0 0.77 0.04 0 0.775 0.04 0 0.78 0.04 0 0.785 0.04 0 0.79 0.04 0 0.795 0.04 0 0.8 0.04 0 0.805 0.04 0 0.81 0.04 0 0.815 0.04 0 0.82 0.04 0 0.825 0.04 0 0.83 0.04 0 0.835 0.04 0 0.84 0.04 0 0.845 0.04 0 0.85 0.04 0 0.855 0.04 0 0.86 0.04 0 0.865 0.04 0 0.87 0.04 0 0.875 0.04 0 0.88 0.04 0 0.885 0.04 0 0.89 0.04 0 0.895 0.04 0 0.9 0.04 0 0.905 0.04 0 0.91 0.04 0 0.915 0.04 0 0.92 0.04 0 0.925 0.04 0 0.93 0.04 0 0.935 0.04 0 0.94 0.04 0 0.945 0.04 0 0.95 0.04 0 0.955 0.04 0 0.96 0.04 0 0.965 0.04 0 0.97 0.04 0 0.975 0.04 0 0.98 0.04 0 0.985 0.04 0 0.99 0.04 0 0.995 0.04 0 1 0.04 0 0 0.06 0 0.005 0.06 0 0.01 0.06 0 0.015 0.06 0 0.02 0.06 0 0.025 0.06 0 0.03 0.06 0 0.035 0.06 0 0.04 0.06 0 0.045 0.06 0 0.05 0.06 0 0.055 0.06 0 0.06 0.06 0 0.065 0.06 0 0.07 0.06 0 0.075 0.06 0 0.08 0.06 0 0.085 0.06 0 0.09 0.06 0 0.095 0.06 0 0.1 0.06 0 0.105 0.06 0 0.11 0.06 0 0.115 0.06 0 0.12 0.06 0 0.125 0.06 0 0.13 0.06 0 0.135 0.06 0 0.14 0.06 0 0.145 0.06 0 0.15 0.06 0 0.155 0.06 0 0.16 0.06 0 0.165 0.06 0 0.17 0.06 0 0.175 0.06 0 0.18 0.06 0 0.185 0.06 0 0.19 0.06 0 0.195 0.06 0 0.2 0.06 0 0.205 0.06 0 0.21 0.06 0 0.215 0.06 0 0.22 0.06 0 0.225 0.06 0 0.23 0.06 0 0.235 0.06 0 0.24 0.06 0 0.245 0.06 0 0.25 0.06 0 0.255 0.06 0 0.26 0.06 0 0.265 0.06 0 0.27 0.06 0 0.275 0.06 0 0.28 0.06 0 0.285 0.06 0 0.29 0.06 0 0.295 0.06 0 0.3 0.06 0 0.305 0.06 0 0.31 0.06 0 0.315 0.06 0 0.32 0.06 0 0.325 0.06 0 0.33 0.06 0 0.335 0.06 0 0.34 0.06 0 0.345 0.06 0 0.35 0.06 0 0.355 0.06 0 0.36 0.06 0 0.365 0.06 0 0.37 0.06 0 0.375 0.06 0 0.38 0.06 0 0.385 0.06 0 0.39 0.06 0 0.395 0.06 0 0.4 0.06 0 0.405 0.06 0 0.41 0.06 0 0.415 0.06 0 0.42 0.06 0 0.425 0.06 0 0.43 0.06 0 0.435 0.06 0 0.44 0.06 0 0.445 0.06 0 0.45 0.06 0 0.455 0.06 0 0.46 0.06 0 0.465 0.06 0 0.47 0.06 0 0.475 0.06 0 0.48 0.06 0 0.485 0.06 0 0.49 0.06 0 0.495 0.06 0 0.5 0.06 0 0.505 0.06 0 0.51 0.06 0 0.515 0.06 0 0.52 0.06 0 0.525 0.06 0 0.53 0.06 0 0.535 0.06 0 0.54 0.06 0 0.545 0.06 0 0.55 0.06 0 0.555 0.06 0 0.56 0.06 0 0.565 0.06 0 0.57 0.06 0 0.575 0.06 0 0.58 0.06 0 0.585 0.06 0 0.59 0.06 0 0.595 0.06 0 0.6 0.06 0 0.605 0.06 0 0.61 0.06 0 0.615 0.06 0 0.62 0.06 0 0.625 0.06 0 0.63 0.06 0 0.635 0.06 0 0.64 0.06 0 0.645 0.06 0 0.65 0.06 0 0.655 0.06 0 0.66 0.06 0 0.665 0.06 0 0.67 0.06 0 0.675 0.06 0 0.68 0.06 0 0.685 0.06 0 0.69 0.06 0 0.695 0.06 0 0.7 0.06 0 0.705 0.06 0 0.71 0.06 0 0.715 0.06 0 0.72 0.06 0 0.725 0.06 0 0.73 0.06 0 0.735 0.06 0 0.74 0.06 0 0.745 0.06 0 0.75 0.06 0 0.755 0.06 0 0.76 0.06 0 0.765 0.06 0 0.77 0.06 0 0.775 0.06 0 0.78 0.06 0 0.785 0.06 0 0.79 0.06 0 0.795 0.06 0 0.8 0.06 0 0.805 0.06 0 0.81 0.06 0 0.815 0.06 0 0.82 0.06 0 0.825 0.06 0 0.83 0.06 0 0.835 0.06 0 0.84 0.06 0 0.845 0.06 0 0.85 0.06 0 0.855 0.06 0 0.86 0.06 0 0.865 0.06 0 0.87 0.06 0 0.875 0.06 0 0.88 0.06 0 0.885 0.06 0 0.89 0.06 0 0.895 0.06 0 0.9 0.06 0 0.905 0.06 0 0.91 0.06 0 0.915 0.06 0 0.92 0.06 0 0.925 0.06 0 0.93 0.06 0 0.935 0.06 0 0.94 0.06 0 0.945 0.06 0 0.95 0.06 0 0.955 0.06 0 0.96 0.06 0 0.965 0.06 0 0.97 0.06 0 0.975 0.06 0 0.98 0.06 0 0.985 0.06 0 0.99 0.06 0 0.995 0.06 0 1 0.06 0 0 0.08 0 0.005 0.08 0 0.01 0.08 0 0.015 0.08 0 0.02 0.08 0 0.025 0.08 0 0.03 0.08 0 0.035 0.08 0 0.04 0.08 0 0.045 0.08 0 0.05 0.08 0 0.055 0.08 0 0.06 0.08 0 0.065 0.08 0 0.07 0.08 0 0.075 0.08 0 0.08 0.08 0 0.085 0.08 0 0.09 0.08 0 0.095 0.08 0 0.1 0.08 0 0.105 0.08 0 0.11 0.08 0 0.115 0.08 0 0.12 0.08 0 0.125 0.08 0 0.13 0.08 0 0.135 0.08 0 0.14 0.08 0 0.145 0.08 0 0.15 0.08 0 0.155 0.08 0 0.16 0.08 0 0.165 0.08 0
[...]
			<PointData Scalars="VitesseX">
				<DataArray Name="VitesseX" type="Float32" format="ascii">
 0 9.88385e-15 -1.09023e-14 -1.45456e-15 4.35044e-14 -3.9338e-14 -8.884e-14 2.14743e-14 -2.809e-15 8.57576e-14 -7.74055e-14 -4.009e-14 -1.32337e-13 1.97157e-14 -1.3116e-13 -1.07649e-13 7.78854e-14 -2.37355e-14 -2.82893e-14 -1.13094e-13 -1.75727e-13 -1.42458e-14 2.66151e-14 -1.5123e-13 -2.48701e-13 -8.30978e-14 1.32032e-13 -9.30165e-15 -2.44061e-13 -9.04042e-15 5.18881e-14 -6.68708e-14 7.7287e-14 -1.31809e-13 -1.59844e-13 -1.18849e-14 5.42862e-14 -6.16693e-14 -2.38457e-13 -2.41468e-13 -3.59979e-14 -2.64744e-13 -6.23676e-14 -4.46482e-13 -2.42869e-13 1.50022e-13 1.28039e-13 -7.96812e-14 -1.42853e-13 -1.46317e-13 1.21962e-13 7.55158e-13 -6.44866e-14 -5.38017e-13 -5.1638e-13 -1.38119e-13 -1.37078e-14 -1.17662e-13 -3.98136e-14 -2.73592e-14 -3.48596e-14 3.215e-13 -5.5554e-14 1.43542e-13 2.69925e-14 -2.15244e-13 -2.91925e-13 -5.28303e-13 -1.27689e-13 3.7741e-14 -3.5873e-14 -3.17936e-13 6.00228e-13 6.98514e-12 8.07336e-11 8.98966e-10 9.1277e-09 8.36458e-08 6.86882e-07 5.01204e-06 3.21668e-05 0.000179293 0.000854174 0.00340978 0.0111526 0.0293443 0.0620359 0.108281 0.163778 0.224954 0.289852 0.357179 0.426591 0.49598 0.558861 0.622713 0.68169 0.737564 0.792863 0.834079 0.87485 0.90296 0.914884 0.926719 0.932611 0.932728 0.931943 0.932113 0.93246 0.932299 0.931733 0.930922 0.930122 0.929315 0.928274 0.926315 0.921946 0.912253 0.892084 0.853664 0.787846 0.688151 0.5568 0.409262 0.267918 0.152853 0.074632 0.0314205 0.0118503 0.0041828 0.00141995 0.000469142 0.000151469 4.7838e-05 1.47791e-05 4.46507e-06 1.31879e-06 3.80699e-07 1.07391e-07 2.95988e-08 7.97071e-09 2.09733e-09 5.37952e-10 1.36049e-10 3.38995e-11 7.48886e-12 2.02324e-12 -3.63319e-13 3.92477e-13 5.24509e-13 -1.11386e-12 2.70536e-13 -8.63052e-13 9.88398e-13 -1.43803e-13 2.15262e-13 -9.04915e-13 3.86069e-14 8.75855e-13 2.15985e-13 -3.07532e-13 -1.06373e-12 5.79246e-13 3.83685e-13 -1.81932e-13 -6.07317e-13 -5.37509e-13 6.82228e-13 6.85696e-13 -8.36022e-13 3.28761e-13 2.89683e-13 -5.31041e-13 6.58669e-13 -8.58824e-13 2.34946e-13 -3.23289e-15 -6.99575e-13 -2.2684e-13 -7.19904e-13 2.18855e-13 6.46167e-13 -6.9644e-13 4.00385e-14 -7.34106e-13 1.52696e-12 -2.86481e-13 -1.23841e-12 1.05646e-13 -1.06122e-12 1.00491e-12 -2.67181e-13 -2.02473e-12 2.45425e-13 9.3283e-13 4.25911e-13 -1.26774e-12 -2.58595e-12 1.99477e-12 1.06641e-12 0 0 -1.75174e-14 5.30898e-15 -4.13833e-15 -4.38429e-14 2.72557e-14 5.35148e-14 -1.42514e-14 4.79887e-16 -7.47864e-14 1.98564e-14 -2.15562e-14 -7.51889e-15 -1.433e-13 -4.9588e-14 -3.48815e-14 -1.12295e-13 -9.82432e-15 -6.26226e-14 1.6089e-14 -3.59133e-14 -1.36776e-13 -1.60476e-13 -4.52284e-14 6.05795e-14 -4.84511e-14 -2.66158e-13 -5.59318e-14 7.83716e-14 9.88024e-15 -6.08773e-14 -2.701e-14 -1.34336e-13 -4.30415e-14 1.34599e-13 -3.37069e-14 -1.90984e-13 -1.52426e-13 -2.67642e-14 -1.54941e-13 -2.38563e-13 -5.7842e-14 -2.24072e-13 4.49226e-14 -2.18734e-13 -2.56164e-13 2.63841e-14 7.53705e-14 1.70509e-13 2.89676e-13 1.98065e-13 -3.64547e-13 -1.83945e-13 4.64216e-14 -1.10741e-13 -2.36914e-13 -3.23868e-13 -1.51299e-13 1.60423e-14 6.33223e-15 6.31877e-14 -1.24206e-13 2.02703e-13 -9.90315e-14 -1.12937e-13 -1.59284e-13 -1.96854e-13 9.26144e-15 -1.04283e-13 -4.03563e-13 -2.37342e-13 4.24332e-13 9.48849e-13 6.75584e-12 8.03569e-11 8.9913e-10 9.12805e-09 8.36458e-08 6.86882e-07 5.01204e-06 3.21668e-05 0.000179293 0.000854174 0.00340978 0.0111526 0.0293443 0.0620359 0.108281 0.163778 0.224954 0.289852 0.357179 0.426591 0.49598 0.558861 0.622713 0.68169 0.737564 0.792863 0.834079 0.87485 0.90296 0.914884 0.926719 0.932611 0.932728 0.931943 0.932113 0.93246 0.932299 0.931733 0.930922 0.930122 0.929315 0.928274 0.926315 0.921946 0.912253 0.892084 0.853664 0.787846 0.688151 0.5568 0.409262 0.267918 0.152853 0.074632 0.0314205 0.0118503 0.0041828 0.00141995 0.000469142 0.000151469 4.7838e-05 1.47791e-05 4.46507e-06 1.31879e-06 3.80699e-07 1.0739e-07 2.95995e-08 7.97036e-09 2.09693e-09 5.4e-10 1.34956e-10 3.28479e-11 8.28688e-12 1.84607e-12 9.711e-13 -7.31028e-13 -6.1553e-13 7.54248e-13 -4.89553e-13 1.17816e-13 -6.81611e-13 3.26924e-13 -2.01986e-13 6.16833e-13 9.63571e-15 -8.32469e-13 -2.43134e-13 -1.07347e-13 8.65011e-13 -5.14636e-13 -5.89309e-13 -2.97107e-13 1.81589e-13 1.38903e-13 -3.20952e-13 -2.4462e-13 9.81091e-13 -2.34648e-13 -2.46229e-13 6.56967e-13 -7.27343e-13 7.03596e-13 -8.35983e-13 -2.75885e-13 6.64973e-14 -6.07266e-13 1.58535e-13 -5.40998e-13 -5.67535e-13 7.58799e-13 -2.40396e-14 4.64525e-13 -7.78737e-13 -1.00095e-13 4.54119e-13 -4.82509e-13 1.45731e-13 -1.01471e-12 -5.48308e-13 1.32498e-12 -7.42044e-13 -7.04711e-13 -8.91696e-13 2.94524e-13 1.2192e-12 -1.67788e-12 -6.48266e-13 0 0 1.12117e-14 2.88472e-15 1.17792e-14 5.31547e-15 4.2482e-15 2.50806e-14 4.49312e-14 -7.22832e-15 7.16128e-15 -1.96038e-14 -4.18223e-14 -5.42347e-14 -4.8245e-14 -8.72592e-14 -4.95397e-14 -2.92605e-14 -1.48698e-13 8.01176e-14 -9.02499e-14 -9.29884e-14 -7.8986e-14 -1.78987e-14 -6.91127e-14 -1.38765e-13 -3.13052e-14 4.68159e-14 -1.65521e-13 4.67328e-14 -7.39333e-14 -5.89892e-15 -7.37163e-14 9.43187e-15 -8.77436e-15 -1.14766e-13 -7.28203e-14 5.0134e-14 -6.25042e-14 -1.81884e-13 -1.98743e-13 -1.12383e-13 -1.20651e-13 -1.61087e-14 -1.49062e-13 6.63203e-14 2.01855e-14 -5.72879e-14 4.42494e-14 2.07068e-14 -5.92921e-14 -1.45804e-13 1.10035e-13 6.81034e-14 -1.55526e-13 -2.46929e-13 -1.04776e-13 -1.19227e-13 -2.80273e-13 -1.39822e-13 1.12209e-13 1.06964e-13 -7.50886e-14 -1.5602e-13 -7.79767e-14 2.99506e-14 -6.37805e-15 2.63924e-14 -1.57285e-13 -4.09547e-13 4.58736e-14 -4.8585e-14 1.49723e-13 8.43332e-13 6.88209e-12 8.09222e-11 8.99285e-10 9.12747e-09 8.36459e-08 6.86882e-07 5.01204e-06 3.21668e-05 0.000179293 0.000854174 0.00340978 0.0111526 0.0293443 0.0620359 0.108281 0.163778 0.224954 0.289852 0.357179 0.426591 0.49598 0.558861 0.622713 0.68169 0.737564 0.792863 0.834079 0.87485 0.90296 0.914884 0.926719 0.932611 0.932728 0.931943 0.932113 0.93246 0.932299 0.931733 0.930922 0.930122 0.929315 0.928274 0.926315 0.921946 0.912253 0.892084 0.853664 0.787846 0.688151 0.5568 0.409262 0.267918 0.152853 0.074632 0.0314205 0.0118503 0.0041828 0.00141995 0.000469142 0.000151469 4.7838e-05 1.47791e-05 4.46507e-06 1.31879e-06 3.80699e-07 1.07391e-07 2.95991e-08 7.97094e-09 2.09734e-09 5.38901e-10 1.3582e-10 3.3217e-11 7.71989e-12 2.13313e-12 -2.40359e-13 3.44174e-13 1.80201e-13 -3.24067e-13 1.34595e-13 -7.40568e-13 8.92075e-14 -2.30421e-13 2.23288e-14 -1.71586e-13 -4.3181e-13 -2.1802e-14 -3.04593e-13 -2.90176e-14 -8.30847e-13 -3.57147e-13 1.91621e-13 -2.45458e-14 -1.47694e-13 -1.31519e-13 -2.47304e-13 1.61508e-13 -6.95996e-14 1.06505e-12 -2.16957e-13 -5.68553e-14 -2.64188e-13 -2.16291e-13 -1.19703e-13 -1.94052e-13 -3.1706e-13 2.8408e-13 -3.66949e-13 -4.44313e-13 4.32236e-14 4.40453e-14 5.02904e-13 -3.5159e-13 7.19133e-14 -3.01406e-13 2.28259e-13 4.73455e-13 -4.41933e-13 -3.77405e-13 -2.30844e-13 -5.16946e-13 2.79621e-13 -8.80526e-14 -6.55446e-13 -5.52583e-13 -3.6389e-13 8.14412e-13 2.70261e-13 0 0 1.223e-14 4.04128e-14 5.71126e-14 6.32493e-14 2.68208e-14 -1.11963e-14 2.82834e-14 -2.97239e-14 2.06467e-14 -7.19975e-14 -7.19368e-14 -2.62045e-14 -1.6947e-14 -9.83897e-14 -1.97789e-14 -6.73221e-15 -3.92833e-14 -6.70156e-14 -1.18693e-13 -1.05433e-13 -8.30779e-14 -3.39528e-14 -9.58802e-14 -6.20004e-14 -5.47457e-15 6.26905e-14 7.32407e-15 -1.67782e-13 5.11515e-14 -3.01614e-14 -1.37071e-13 -4.61471e-14 -1.86162e-14 -1.90939e-13 -8.72145e-14 -5.13798e-14 -5.13203e-14 -1.46836e-13 -2.1903e-14 -8.20545e-14 -3.1501e-13 6.25977e-14 -1.80614e-13 -1.33259e-16 9.6337e-14 -1.0125e-14 -2.039e-14 -1.24172e-13 -1.91932e-13 -8.09606e-14 3.50638e-13 -1.03278e-13 -3.65144e-13 -4.00361e-13 -5.6325e-14 1.12524e-13 -1.72374e-13 -3.48911e-14 -1.12845e-13 1.18843e-14 2.16306e-13 1.39346e-13 1.44976e-13 -1.36729e-15 -9.47483e-14 -1.27782e-13 -6.05875e-13 -7.25703e-14 5.40357e-15 3.23916e-14 -1.36751e-13 7.52102e-13 7.22503e-12 8.10946e-11 8.99154e-10 9.12795e-09 8.36457e-08 6.86882e-07 5.01204e-06 3.21668e-05 0.000179293 0.000854174 0.00340978 0.0111526 0.0293443 0.0620359 0.108281 0.163778 0.224954 0.289852 0.357179 0.426591 0.49598 0.558861 0.622713 0.68169 0.737564 0.792863 0.834079 0.87485 0.90296 0.914884 0.926719 0.932611 0.932728 0.931943 0.932113 0.93246 0.932299 0.931733 0.930922 0.930122 0.929315 0.928274 0.926315 0.921946 0.912253 0.892084 0.853664 0.787846 0.688151 0.5568 0.409262 0.267918 0.152853 0.074632 0.0314205 0.0118503 0.0041828 0.00141995 0.000469142 0.000151469 4.7838e-05 1.47791e-05 4.46507e-06 1.31879e-06 3.80699e-07 1.07391e-07 2.95991e-08 7.97076e-09 2.0972e-09 5.38811e-10 1.35922e-10 3.37875e-11 7.76024e-12 1.76653e-12 -7.19308e-14 -5.44056e-14 3.05533e-13 -1.50129e-13 -5.43428e-13 -3.57096e-13 2.68086e-13 -1.65995e-14 -2.00707e-13 -7.21659e-13 -5.58012e-13 1.77317e-13 7.30659e-13 -6.84171e-13 -9.52849e-13 -1.68039e-13 -1.80916e-13 -6.77634e-15 -9.49501e-14 -6.5549e-13 2.90223e-13 7.93979e-13 -1.42289e-13 -2.00981e-13 -3.03739e-14 -2.0172e-13 -1.30327e-13 -3.08909e-13 4.31453e-14 9.91502e-14 -1.98831e-13 -7.32268e-13 -2.16885e-13 3.84481e-14 2.87647e-13 9.39156e-14 -1.38196e-13 -7.94975e-14 3.34543e-13 4.48372e-13 -2.75049e-13 -3.5874e-13 -8.24571e-14 6.20554e-14 -7.099e-13 -7.48624e-13 -1.76461e-13 2.91482e-13 2.90838e-13 -9.73013e-13 -8.68827e-13 8.72858e-13 1.08106e-12 0 0 1.67953e-14 6.2692e-14 5.68319e-14 3.49746e-14 6.72407e-14 5.36151e-14 -3.66103e-14 -1.1089e-14 -8.71005e-14 -3.12784e-14 -6.15705e-14 5.40607e-14 -1.17205e-13 -2.05441e-14 -3.03601e-14 -8.65756e-14 5.39298e-14 -1.18937e-13 -4.40816e-14 -3.95882e-14 -1.2124e-13 -1.84604e-13 4.17623e-15 2.11339e-13 3.49184e-14 -1.65761e-13 9.60608e-14 -5.58844e-14 1.45283e-14 -2.0855e-13 -1.37664e-13 -1.58519e-13 -1.73894e-13 1.25017e-14 -7.08496e-14 -1.62146e-13 -2.74993e-14 -1.88199e-14 -1.7269e-14 -2.29465e-13 -2.04389e-13 -7.67971e-15 8.82862e-14 -2.17699e-13 -1.41534e-13 3.34613e-14 8.37566e-14 6.76337e-14 1.9873e-13 1.23979e-13 -4.46779e-13 -1.43545e-13 -3.22763e-14 -1.625e-13 -2.43086e-13 -2.79675e-13 -2.08252e-13 -2.3e-14 -1.2871e-13 9.8178e-14 1.16022e-13 3.53104e-13 7.16322e-14 -1.10898e-13 -2.03062e-13 -3.28243e-13 -3.29684e-13 6.46327e-14 -3.19279e-13 -3.54262e-14 6.33716e-13 1.06097e-12 7.15576e-12 8.06226e-11 8.98975e-10 9.12828e-09 8.36458e-08 6.86882e-07 5.01204e-06 3.21668e-05 0.000179293 0.000854174 0.00340978 0.0111526 0.0293443 0.0620359 0.108281 0.163778 0.224954 0.289852 0.357179 0.426591 0.49598 0.558861 0.622713 0.68169 0.737564 0.792863 0.834079 0.87485 0.90296 0.914884 0.926719 0.932611 0.932728 0.931943 0.932113 0.93246 0.932299 0.931733 0.930922 0.930122 0.929315 0.928274 0.926315 0.921946 0.912253 0.892084 0.853664 0.787846 0.688151 0.5568 0.409262 0.267918 0.152853 0.074632 0.0314205 0.0118503 0.0041828 0.00141995 0.000469142 0.000151469 4.7838e-05 1.47791e-05 4.46507e-06 1.31879e-06 3.80699e-07 1.07391e-07 2.95996e-08 7.97048e-09 2.09703e-09 5.40111e-10 1.35249e-10 3.29302e-11 8.38438e-12 1.44314e-12 7.47884e-13 -7.14138e-13 -3.66226e-13 7.33447e-13 -9.09789e-13 3.01476e-13 -7.46529e-13 -7.74367e-14 -6.6065e-14 1.07701e-13 -3.03672e-13 -1.00207e-12 5.45787e-13 6.45133e-15 1.11579e-12 -6.63811e-13 -9.90772e-13 -2.17945e-13 -2.02405e-13 -1.14773e-13 4.2625e-13 -1.75257e-13 7.285e-13 -1.00756e-12 -2.61629e-13 4.58274e-13 -9.69827e-13 4.28532e-13 -6.74115e-13 -1.3996e-13 1.55658e-13 -1.55809e-12 9.33621e-14 -3.28027e-13 2.21224e-14 7.9024e-13 2.08707e-13 6.64686e-13 -1.1125e-12 5.12943e-13 2.70849e-13 -9.02642e-13 3.10612e-14 -8.26876e-13 -2.93198e-13 1.21617e-12 -9.18286e-13 -9.29462e-13 -2.12125e-13 -2.8471e-16 1.48166e-12 -1.55353e-12 -2.21537e-13 0 0 7.64728e-14 2.88077e-14 2.9819e-14 8.52717e-14 -4.51332e-15 -1.60856e-14 1.00521e-14 1.90444e-14 3.41587e-14 -7.48878e-14 -5.98897e-14 -6.52385e-14 9.30928e-15 -5.08109e-14 -1.58128e-13 8.42666e-14 -1.15056e-13 1.53347e-13 -1.7655e-13 -1.58187e-13 2.50111e-14 1.04655e-14 1.11462e-15 -1.00711e-13 3.198e-14 3.01077e-13 -5.10061e-14 -8.35434e-14 -2.49914e-13 -1.94932e-13 -1.6147e-13 1.40079e-13 -3.73831e-13 -2.51693e-13 -5.73819e-14 3.14991e-13 1.65817e-13 -2.92664e-13 -3.19804e-13 -7.84573e-14 -1.69122e-13 2.13005e-13 -2.96651e-13 -1.07891e-13 2.26979e-13 4.78676e-14 6.63695e-14 -5.88469e-14 -6.29278e-14 -1.55897e-13 1.09488e-13 3.59075e-13 -2.76178e-13 -3.13034e-13 -2.47365e-13 -3.88824e-13 -4.47367e-13 -3.27759e-13 1.52666e-13 2.2528e-13 2.19168e-13 -3.45485e-13 3.89653e-14 9.37069e-14 -1.26059e-13 -2.46355e-13 -3.09014e-13 -4.6381e-13 2.8725e-13 2.06006e-13 6.7378e-13 1.00692e-12 7.0991e-12 8.09203e-11 8.98917e-10 9.12722e-09 8.36463e-08 6.86883e-07 5.01204e-06 3.21668e-05 0.000179293 0.000854174 0.00340978 0.0111526 0.0293443 0.0620359 0.108281 0.163778 0.224954 0.289852 0.357179 0.426591 0.49598 0.558861 0.622713 0.68169 0.737564 0.792863 0.834079 0.87485 0.90296 0.914884 0.926719 0.932611 0.932728 0.931943 0.932113 0.93246 0.932299 0.931733 0.930922 0.930122 0.929315 0.928274 0.926315 0.921946 0.912253 0.892084 0.853664 0.787846 0.688151 0.5568 0.409262 0.267918 0.152853 0.074632 0.0314205 0.0118503 0.0041828 0.00141995 0.000469142 0.000151469 4.7838e-05 1.47791e-05 4.46507e-06 1.31879e-06 3.80699e-07 1.07391e-07 2.9599e-08 7.97131e-09 2.09781e-09 5.38353e-10 1.3643e-10 3.29231e-11 7.60315e-12 1.95056e-12 -1.14661e-12 1.22342e-12 7.72454e-13 -1.50334e-12 7.8611e-13 -1.26268e-12 5.00805e-13 -1.38017e-12 9.33176e-13 -8.23032e-13 -3.35603e-13 1.38423e-13 -2.76673e-13 1.23037e-12 -3.18159e-13 -9.73182e-14 3.25833e-13 -5.91465e-14 -1.48079e-12 3.0808e-15 1.10158e-12 -4.4052e-13 -1.19582e-12 1.31499e-12 -1.14283e-13 -6.38698e-13 -9.40216e-14 -1.22372e-12 2.32984e-13 -3.17788e-13 -7.57711e-13 -9.57859e-14 -1.15038e-12 -3.20726e-13 1.33664e-12 -7.33298e-13 1.78773e-12 -8.7797e-13 3.34178e-13 -5.59959e-13 -5.98332e-13 9.2977e-13 -2.00951e-12 5.01644e-13 1.20115e-12 -1.779e-12 8.05106e-13 -2.7574e-13 -1.07514e-13 -1.0165e-12 -1.05115e-12 2.12657e-12 2.98268e-13 0
				</DataArray>
				<DataArray Name="VitesseY" type="Float32" format="ascii">