<?xml version="1.0"?>
<VTKFile type="PolyData">
	<PolyData>
		<Piece NumberOfPoints="1206" NumberOfPolys="1000">
			<Points>
				<DataArray type="Float32" NumberOfComponents="3" format="ascii">
 0 0 0 0.005 0 0 0.01 0 0 0.015 0 0 0.02 0 0 0.025 0 0 0.03 0 0 0.035 0 0 0.04 0 0 0.045 0 0 0.05 0 0 0.055 0 0 0.06 0 0 0.065 0 0 0.07 0 0 0.075 0 0 0.08 0 0 0.085 0 0 0.09 0 0 0.095 0 0 0.1 0 0 0.105 0 0 0.11 0 0 0.115 0 0 0.12 0 0 0.125 0 0 0.13 0 0 0.135 0 0 0.14 0 0 0.145 0 0 0.15 0 0 0.155 0 0 0.16 0 0 0.165 0 0 0.17 0 0 0.175 0 0 0.18 0 0 0.185 0 0 0.19 0 0 0.195 0 0 0.2 0 0 0.205 0 0 0.21 0 0 0.215 0 0 0.22 0 0 0.225 0 0 0.23 0 0 0.235 0 0 0.24 0 0 0.245 0 0 0.25 0 0 0.255 0 0 0.26 0 0 0.265 0 0 0.27 0 0 0.275 0 0 0.28 0 0 0.285 0 0 0.29 0 0 0.295 0 0 0.3 0 0 0.305 0 0 0.31 0 0 0.315 0 0 0.32 0 0 0.325 0 0 0.33 0 0 0.335 0 0 0.34 0 0 0.345 0 0 0.35 0 0 0.355 0 0 0.36 0 0 0.365 0 0 0.37 0 0 0.375 0 0 0.38 0 0 0.385 0 0 0.39 0 0 0.395 0 0 0.4 0 0 0.405 0 0 0.41 0 0 0.415 0 0 0.42 0 0 0.425 0 0 0.43 0 0 0.435 0 0 0.44 0 0 0.445 0 0 0.45 0 0 0.455 0 0 0.46 0 0 0.465 0 0 0.47 0 0 0.475 0 0 0.48 0 0 0.485 0 0 0.49 0 0 0.495 0 0 0.5 0 0 0.505 0 0 0.51 0 0 0.515 0 0 0.52 0 0 0.525 0 0 0.53 0 0 0.535 0 0 0.54 0 0 0.545 0 0 0.55 0 0 0.555 0 0 0.56 0 0 0.565 0 0 0.57 0 0 0.575 0 0 0.58 0 0 0.585 0 0 0.59 0 0 0.595 0 0 0.6 0 0 0.605 0 0 0.61 0 0 0.615 0 0 0.62 0 0 0.625 0 0 0.63 0 0 0.635 0 0 0.64 0 0 0.645 0 0 0.65 0 0 0.655 0 0 0.66 0 0 0.665 0 0 0.67 0 0 0.675 0 0 0.68 0 0 0.685 0 0 0.69 0 0 0.695 0 0 0.7 0 0 0.705 0 0 0.71 0 0 0.715 0 0 0.72 0 0 0.725 0 0 0.73 0 0 0.735 0 0 0.74 0 0 0.745 0 0 0.75 0 0 0.755 0 0 0.76 0 0 0.765 0 0 0.77 0 0 0.775 0 0 0.78 0 0 0.785 0 0 0.79 0 0 0.795 0 0 0.8 0 0 0.805 0 0 0.81 0 0 0.815 0 0 0.82 0 0 0.825 0 0 0.83 0 0 0.835 0 0 0.84 0 0 0.845 0 0 0.85 0 0 0.855 0 0 0.86 0 0 0.865 0 0 0.87 0 0 0.875 0 0 0.88 0 0 0.885 0 0 0.89 0 0 0.895 0 0 0.9 0 0 0.905 0 0 0.91 0 0 0.915 0 0 0.92 0 0 0.925 0 0 0.93 0 0 0.935 0 0 0.94 0 0 0.945 0 0 0.95 0 0 0.955 0 0 0.96 0 0 0.965 0 0 0.97 0 0 0.975 0 0 0.98 0 0 0.985 0 0 0.99 0 0 0.995 0 0 1 0 0 0 0.02 0 0.005 0.02 0 0.01 0.02 0 0.015 0.02 0 0.02 0.02 0 0.025 0.02 0 0.03 0.02 0 0.035 0.02 0 0.04 0.02 0 0.045 0.02 0 0.05 0.02 0 0.055 0.02 0 0.06 0.02 0 0.065 0.02 0 0.07 0.02 0 0.075 0.02 0 0.08 0.02 0 0.085 0.02 0 0.09 0.02 0 0.095 0.02 0 0.1 0.02 0 0.105 0.02 0 0.11 0.02 0 0.115 0.02 0 0.12 0.02 0 0.125 0.02 0 0.13 0.02 0 0.135 0.02 0 0.14 0.02 0 0.145 0.02 0 0.15 0.02 0 0.155 0.02 0 0.16 0.02 0 0.165 0.02 0 0.17 0.02 0 0.175 0.02 0 0.18 0.02 0 0.185 0.02 0 0.19 0.02 0 0.195 0.02 0 0.2 0.02 0 0.205 0.02 0 0.21 0.02 0 0.215 0.02 0 0.22 0.02 0 0.225 0.02 0 0.23 0.02 0 0.235 0.02 0 0.24 0.02 0 0.245 0.02 0 0.25 0.02 0 0.255 0.02 0 0.26 0.02 0 0.265 0.02 0 0.27 0.02 0 0.275 0.02 0 0.28 0.02 0 0.285 0.02 0 0.29 0.02 0 0.295 0.02 0 0.3 0.02 0 0.305 0.02 0 0.31 0.02 0 0.315 0.02 0 0.32 0.02 0 0.325 0.02 0 0.33 0.02 0 0.335 0.02 0 0.34 0.02 0 0.345 0.02 0 0.35 0.02 0 0.355 0.02 0 0.36 0.02 0 0.365 0.02 0 0.37 0.02 0 0.375 0.02 0 0.38 0.02 0 0.385 0.02 0 0.39 0.02 0 0.395 0.02 0 0.4 0.02 0 0.405 0.02 0 0.41 0.02 0 0.415 0.02 0 0.42 0.02 0 0.425 0.02 0 0.43 0.02 0 0.435 0.02 0 0.44 0.02 0 0.445 0.02 0 0.45 0.02 0 0.455 0.02 0 0.46 0.02 0 0.465 0.02 0 0.47 0.02 0 0.475 0.02 0 0.48 0.02 0 0.485 0.02 0 0.49 0.02 0 0.495 0.02 0 0.5 0.02 0 0.505 0.02 0 0.51 0.02 0 0.515 0.02 0 0.52 0.02 0 0.525 0.02 0 0.53 0.02 0 0.535 0.02 0 0.54 0.02 0 0.545 0.02 0 0.55 0.02 0 0.555 0.02 0 0.56 0.02 0 0.565 0.02 0 0.57 0.02 0 0.575 0.02 0 0.58 0.02 0 0.585 0.02 0 0.59 0.02 0 0.595 0.02 0 0.6 0.02 0 0.605 0.02 0 0.61 0.02 0 0.615 0.02 0 0.62 0.02 0 0.625 0.02 0 0.63 0.02 0 0.635 0.02 0 0.64 0.02 0 0.645 0.02 0 0.65 0.02 0 0.655 0.02 0 0.66 0.02 0 0.665 0.02 0 0.67 0.02 0 0.675 0.02 0 0.68 0.02 0 0.685 0.02 0 0.69 0.02 0 0.695 0.02 0 0.7 0.02 0 0.705 0.02 0 0.71 0.02 0 0.715 0.02 0 0.72 0.02 0 0.725 0.02 0 0.73 0.02 0 0.735 0.02 0 0.74 0.02 0 0.745 0.02 0 0.75 0.02 0 0.755 0.02 0 0.76 0.02 0 0.765 0.02 0 0.77 0.02 0 0.775 0.02 0 0.78 0.02 0 0.785 0.02 0 0.79 0.02 0 0.795 0.02 0 0.8 0.02 0 0.805 0.02 0 0.81 0.02 0 0.815 0.02 0 0.82 0.02 0 0.825 0.02 0 0.83 0.02 0 0.835 0.02 0 0.84 0.02 0 0.845 0.02 0 0.85 0.02 0 0.855 0.02 0 0.86 0.02 0 0.865 0.02 0 0.87 0.02 0 0.875 0.02 0 0.88 0.02 0 0.885 0.02 0 0.89 0.02 0 0.895 0.02 0 0.9 0.02 0 0.905 0.02 0 0.91 0.02 0 0.915 0.02 0 0.92 0.02 0 0.925 0.02 0 0.93 0.02 0 0.935 0.02 0 0.94 0.02 0 0.945 0.02 0 0.95 0.02 0 0.955 0.02 0 0.96 0.02 0 0.965 0.02 0 0.97 0.02 0 0.975 0.02 0 0.98 0.02 0 0.985 0.02 0 0.99 0.02 0 0.995 0.02 0 1 0.02 0 0 0.04 0 0.005 0.04 0 0.01 0.04 0 0.015 0.04 0 0.02 0.04 0 0.025 0.04 0 0.03 0.04 0 0.035 0.04 0 0.04 0.04 0 0.045 0.04 0 0.05 0.04 0 0.055 0.04 0 0.06 0.04 0 0.065 0.04 0 0.07 0.04 0 0.075 0.04 0 0.08 0.04 0 0.085 0.04 0 0.09 0.04 0 0.095 0.04 0 0.1 0.04 0 0.105 0.04 0 0.11 0.04 0 0.115 0.04 0 0.12 0.04 0 0.125 0.04 0 0.13 0.04 0 0.135 0.04 0 0.14 0.04 0 0.145 0.04 0 0.15 0.04 0 0.155 0.04 0 0.16 0.04 0 0.165 0.04 0 0.17 0.04 0 0.175 0.04 0 0.18 0.04 0 0.185 0.04 0 0.19 0.04 0 0.195 0.04 0 0.2 0.04 0 0.205 0.04 0 0.21 0.04 0 0.215 0.04 0 0.22 0.04 0 0.225 0.04 0 0.23 0.04 0 0.235 0.04 0 0.24 0.04 0 0.245 0.04 0 0.25 0.04 0 0.255 0.04 0 0.26 0.04 0 0.265 0.04 0 0.27 0.04 0 0.275 0.04 0 0.28 0.04 0 0.285 0.04 0 0.29 0.04 0 0.295 0.04 0 0.3 0.04 0 0.305 0.04 0 0.31 0.04 0 0.315 0.04 0 0.32 0.04 0 0.325 0.04 0 0.33 0.04 0 0.335 0.04 0 0.34 0.04 0 0.345 0.04 0 0.35 0.04 0 0.355 0.04 0 0.36 0.04 0 0.365 0.04 0 0.37 0.04 0 0.375 0.04 0 0.38 0.04 0 0.385 0.04 0 0.39 0.04 0 0.395 0.04 0 0.4 0.04 0 0.405 0.04 0 0.41 0.04 0 0.415 0.04 0 0.42 0.04 0 0.425 0.04 0 0.43 0.04 0 0.435 0.04 0 0.44 0.04 0 0.445 0.04 0 0.45 0.04 0 0.455 0.04 0 0.46 0.04 0 0.465 0.04 0 0.47 0.04 0 0.475 0.04 0 0.48 0.04 0 0.485 0.04 0 0.49 0.04 0 0.495 0.04 0 0.5 0.04 0 0.505 0.04 0 0.51 0.04 0 0.515 0.04 0 0.52 0.04 0 0.525 0.04 0 0.53 0.04 0 0.535 0.04 0 0.54 0.04 0 0.545 0.04 0 0.55 0.04 0 0.555 0.04 0 0.56 0.04 0 0.565 0.04 0 0.57 0.04 0 0.575 0.04 0 0.58 0.04 0 0.585 0.04 0 0.59 0.04 0 0.595 0.04 0 0.6 0.04 0 0.605 0.04 0 0.61 0.04 0 0.615 0.04 0 0.62 0.04 0 0.625 0.04 0 0.63 0.04 0 0.635 0.04 0 0.64 0.04 0 0.645 0.04 0 0.65 0.04 0 0.655 0.04 0 0.66 0.04 0 0.665 0.04 0 0.67 0.04 0 0.675 0.04 0 0.68 0.04 0 0.685 0.04 0 0.69 0.04 0 0.695 0.04 0 0.7 0.04 0 0.705 0.04 0 0.71 0.04 0 0.715 0.04 0 0.72 0.04 0 0.725 0.04 0 0.73 0.04 0 0.735 0.04 0 0.74 0.04 0 0.745 0.04 0 0.75 0.04 0 0.755 0.04 0 0.76 0.04 0 0.765 0.04 0 0.77 0.04 0 0.775 0.04 0 0.78 0.04 0 0.785 0.04 0 0.79 0.04 0 0.795 0.04 0 0.8 0.04 0 0.805 0.04 0 0.81 0.04 0 0.815 0.04 0 0.82 0.04 0 0.825 0.04 0 0.83 0.04 0 0.835 0.04 0 0.84 0.04 0 0.845 0.04 0 0.85 0.04 0 0.855 0.04 0 0.86 0.04 0 0.865 0.04 0 0.87 0.04 0 0.875 0.04 0 0.88 0.04 0 0.885 0.04 0 0.89 0.04 0 0.895 0.04 0 0.9 0.04 0 0.905 0.04 0 0.91 0.04 0 0.915 0.04 0 0.92 0.04 0 0.925 0.04 0 0.93 0.04 0 0.935 0.04 0 0.94 0.04 0 0.945 0.04 0 0.95 0.04 0 0.955 0.04 0 0.96 0.04 0 0.965 0.04 0 0.97 0.04 0 0.975 0.04 0 0.98 0.04 0 0.985 0.04 0 0.99 0.04 0 0.995 0.04 0 1 0.04 0 0 0.06 0 0.005 0.06 0 0.01 0.06 0 0.015 0.06 0 0.02 0.06 0 0.025 0.06 0 0.03 0.06 0 0.035 0.06 0 0.04 0.06 0 0.045 0.06 0 0.05 0.06 0 0.055 0.06 0 0.06 0.06 0 0.065 0.06 0 0.07 0.06 0 0.075 0.06 0 0.08 0.06 0 0.085 0.06 0 0.09 0.06 0 0.095 0.06 0 0.1 0.06 0 0.105 0.06 0 0.11 0.06 0 0.115 0.06 0 0.12 0.06 0 0.125 0.06 0 0.13 0.06 0 0.135 0.06 0 0.14 0.06 0 0.145 0.06 0 0.15 0.06 0 0.155 0.06 0 0.16 0.06 0 0.165 0.06 0 0.17 0.06 0 0.175 0.06 0 0.18 0.06 0 0.185 0.06 0 0.19 0.06 0 0.195 0.06 0 0.2 0.06 0 0.205 0.06 0 0.21 0.06 0 0.215 0.06 0 0.22 0.06 0 0.225 0.06 0 0.23 0.06 0 0.235 0.06 0 0.24 0.06 0 0.245 0.06 0 0.25 0.06 0 0.255 0.06 0 0.26 0.06 0 0.265 0.06 0 0.27 0.06 0 0.275 0.06 0 0.28 0.06 0 0.285 0.06 0 0.29 0.06 0 0.295 0.06 0 0.3 0.06 0 0.305 0.06 0 0.31 0.06 0 0.315 0.06 0 0.32 0.06 0 0.325 0.06 0 0.33 0.06 0 0.335 0.06 0 0.34 0.06 0 0.345 0.06 0 0.35 0.06 0 0.355 0.06 0 0.36 0.06 0 0.365 0.06 0 0.37 0.06 0 0.375 0.06 0 0.38 0.06 0 0.385 0.06 0 0.39 0.06 0 0.395 0.06 0 0.4 0.06 0 0.405 0.06 0 0.41 0.06 0 0.415 0.06 0 0.42 0.06 0 0.425 0.06 0 0.43 0.06 0 0.435 0.06 0 0.44 0.06 0 0.445 0.06 0 0.45 0.06 0 0.455 0.06 0 0.46 0.06 0 0.465 0.06 0 0.47 0.06 0 0.475 0.06 0 0.48 0.06 0 0.485 0.06 0 0.49 0.06 0 0.495 0.06 0 0.5 0.06 0 0.505 0.06 0 0.51 0.06 0 0.515 0.06 0 0.52 0.06 0 0.525 0.06 0 0.53 0.06 0 0.535 0.06 0 0.54 0.06 0 0.545 0.06 0 0.55 0.06 0 0.555 0.06 0 0.56 0.06 0 0.565 0.06 0 0.57 0.06 0 0.575 0.06 0 0.58 0.06 0 0.585 0.06 0 0.59 0.06 0 0.595 0.06 0 0.6 0.06 0 0.605 0.06 0 0.61 0.06 0 0.615 0.06 0 0.62 0.06 0 0.625 0.06 0 0.63 0.06 0 0.635 0.06 0 0.64 0.06 0 0.645 0.06 0 0.65 0.06 0 0.655 0.06 0 0.66 0.06 0 0.665 0.06 0 0.67 0.06 0 0.675 0.06 0 0.68 0.06 0 0.685 0.06 0 0.69 0.06 0 0.695 0.06 0 0.7 0.06 0 0.705 0.06 0 0.71 0.06 0 0.715 0.06 0 0.72 0.06 0 0.725 0.06 0 0.73 0.06 0 0.735 0.06 0 0.74 0.06 0 0.745 0.06 0 0.75 0.06 0 0.755 0.06 0 0.76 0.06 0 0.765 0.06 0 0.77 0.06 0 0.775 0.06 0 0.78 0.06 0 0.785 0.06 0 0.79 0.06 0 0.795 0.06 0 0.8 0.06 0 0.805 0.06 0 0.81 0.06 0 0.815 0.06 0 0.82 0.06 0 0.825 0.06 0 0.83 0.06 0 0.835 0.06 0 0.84 0.06 0 0.845 0.06 0 0.85 0.06 0 0.855 0.06 0 0.86 0.06 0 0.865 0.06 0 0.87 0.06 0 0.875 0.06 0 0.88 0.06 0 0.885 0.06 0 0.89 0.06 0 0.895 0.06 0 0.9 0.06 0 0.905 0.06 0 0.91 0.06 0 0.915 0.06 0 0.92 0.06 0 0.925 0.06 0 0.93 0.06 0 0.935 0.06 0 0.94 0.06 0 0.945 0.06 0 0.95 0.06 0 0.955 0.06 0 0.96 0.06 0 0.965 0.06 0 0.97 0.06 0 0.975 0.06 0 0.98 0.06 0 0.985 0.06 0 0.99 0.06 0 0.995 0.06 0 1 0.06 0 0 0.08 0 0.005 0.08 0 0.01 0.08 0 0.015 0.08 0 0.02 0.08 0 0.025 0.08 0 0.03 0.08 0 0.035 0.08 0 0.04 0.08 0 0.045 0.08 0 0.05 0.08 0 0.055 0.08 0 0.06 0.08 0 0.065 0.08 0 0.07 0.08 0 0.075 0.08 0 0.08 0.08 0 0.085 0.08 0 0.09 0.08 0 0.095 0.08 0 0.1 0.08 0 0.105 0.08 0 0.11 0.08 0 0.115 0.08 0 0.12 0.08 0 0.125 0.08 0 0.13 0.08 0 0.135 0.08 0 0.14 0.08 0 0.145 0.08 0 0.15 0.08 0 0.155 0.08 0 0.16 0.08 0 0.165 0.08 0
[...]
			<PointData Scalars="VitesseX">
				<DataArray Name="VitesseX" type="Float32" format="ascii">
 0 -7.1242e-15 -6.32343e-15 7.19484e-14 -1.48863e-13 -5.19038e-14 4.89994e-14 -2.5936e-14 -1.24274e-13 -1.45626e-14 6.49876e-14 -1.92277e-13 1.69374e-13 -3.8065e-13 1.74432e-13 -8.75746e-14 -2.51731e-13 2.81615e-13 -2.53289e-13 1.42508e-13 -2.18256e-14 -1.47971e-13 -3.28636e-13 1.86348e-13 4.22432e-13 9.9978e-14 -4.04014e-13 4.17828e-15 5.24664e-14 3.9291e-14 -2.90405e-13 3.79962e-13 -4.53733e-13 -3.91181e-13 4.85773e-13 -3.09742e-13 1.82678e-13 -5.84529e-13 6.8414e-13 -4.28187e-13 3.88594e-14 -3.03001e-13 -1.04272e-13 6.37622e-13 7.9275e-14 -5.14368e-13 3.56659e-13 -7.19909e-13 2.02253e-13 -1.75907e-13 6.79275e-14 -3.80241e-13 -1.14118e-12 1.54626e-12 -1.49698e-13 -7.36676e-14 5.36951e-13 -7.50589e-13 1.09658e-12 -5.99268e-13 -5.08372e-13 -4.65834e-13 1.38763e-13 -5.10011e-15 -4.42202e-13 2.64712e-14 2.56955e-13 3.87752e-13 9.02655e-13 -8.51847e-13 -4.45222e-13 8.14638e-13 -4.36993e-13 2.14408e-13 -1.8965e-12 5.68305e-13 3.49699e-13 -5.62975e-13 5.2432e-13 -1.04524e-12 2.02279e-12 -7.45208e-13 1.21978e-13 2.53197e-11 4.78711e-10 8.67032e-09 1.35575e-07 1.80222e-06 2.00302e-05 0.0001821 0.0013153 0.00726066 0.0292677 0.0835274 0.173174 0.286557 0.416995 0.552577 0.652859 0.757397 0.83581 0.873253 0.915954 0.932843 0.931268 0.927685 0.92577 0.920459 0.90023 0.848588 0.75223 0.61069 0.443003 0.279629 0.148716 0.0644249 0.0228581 0.00701732 0.00197358 0.000523716 0.000132521 3.2081e-05 7.43812e-06 1.65264e-06 3.52062e-07 7.19449e-08 1.41141e-08 2.65894e-09 4.79993e-10 8.50901e-11 1.22784e-11 3.51759e-12 -5.27856e-14 -1.79392e-12 1.17833e-12 -2.09563e-12 1.88157e-12 3.81914e-13 -1.78029e-12 1.50405e-12 -7.16372e-13 -6.78106e-13 2.84201e-12 -2.29446e-12 -1.47786e-12 1.70038e-12 -1.65379e-12 3.24509e-12 -1.2437e-12 -5.1311e-13 1.56133e-12 -1.71249e-12 2.67618e-12 -1.78169e-12 9.49021e-13 -1.76696e-12 1.75069e-12 1.39507e-13 -1.14292e-12 -2.491e-13 -1.29926e-12 1.68729e-12 -5.59524e-13 -9.48391e-13 4.03392e-13 6.53684e-14 7.77438e-13 -5.308e-13 -1.71164e-12 2.59572e-12 -1.35278e-12 1.21895e-13 1.85929e-12 -1.98595e-12 2.10885e-12 -1.80207e-12 7.15166e-13 1.14088e-12 -1.8855e-12 1.64879e-12 -1.18369e-12 -3.73936e-13 1.5515e-12 -3.01827e-12 1.44737e-12 -1.78258e-12 -1.38524e-13 1.39552e-12 -1.76146e-12 3.22499e-12 -2.14808e-12 -1.44966e-12 4.37606e-12 -2.84522e-12 -1.30393e-12 -1.03055e-13 -1.16016e-12 3.94122e-12 -3.20386e-12 1.05155e-12 0 0 9.31406e-15 9.35231e-15 -8.45176e-14 6.40336e-14 -4.29319e-14 -9.71662e-14 -6.91665e-14 1.39701e-14 -4.76362e-14 -1.27444e-13 6.22378e-14 -2.37159e-13 1.91565e-13 -2.47666e-13 2.67179e-14 1.37776e-13 -2.12904e-13 1.75741e-13 -2.53922e-13 -1.59724e-13 -3.0338e-14 1.08548e-13 -2.97388e-14 -1.04041e-13 7.59435e-14 2.57953e-13 -1.9325e-13 -1.77482e-13 -1.60898e-13 2.67713e-13 -2.97008e-13 1.47829e-13 -4.95879e-14 -5.75895e-13 2.10174e-13 -1.29953e-13 4.31113e-13 -4.79333e-13 1.80955e-13 -4.28282e-13 1.58244e-13 1.35976e-13 -2.07597e-13 1.02929e-14 3.29256e-13 -5.21825e-13 1.55109e-13 -4.30818e-13 -2.65104e-13 -3.56411e-13 -6.60624e-14 8.28998e-13 -9.04439e-13 4.86963e-13 1.69647e-13 -2.02468e-13 6.41697e-13 -8.32361e-13 3.43847e-13 3.87424e-14 -7.87771e-14 -5.7873e-13 -3.81823e-13 2.85374e-13 1.72397e-13 2.95363e-13 8.39087e-14 -5.86037e-13 6.99435e-13 1.16356e-13 -7.09937e-13 4.60931e-14 -7.99179e-13 6.16957e-13 -7.82563e-13 -5.84818e-13 5.13986e-13 -1.7798e-13 1.01614e-12 -1.06623e-12 1.04073e-12 1.99213e-12 2.17398e-11 4.78524e-10 8.67476e-09 1.35573e-07 1.80221e-06 2.00302e-05 0.0001821 0.0013153 0.00726066 0.0292677 0.0835274 0.173174 0.286557 0.416995 0.552577 0.652859 0.757397 0.83581 0.873253 0.915954 0.932843 0.931268 0.927685 0.92577 0.920459 0.90023 0.848588 0.75223 0.61069 0.443003 0.279629 0.148716 0.0644249 0.0228581 0.00701732 0.00197358 0.000523716 0.000132521 3.2081e-05 7.43812e-06 1.65265e-06 3.52059e-07 7.19475e-08 1.41116e-08 2.65838e-09 4.8248e-10 8.28339e-11 1.48963e-11 8.6712e-13 -2.04966e-13 7.20704e-13 -1.48668e-12 9.41624e-13 -8.22778e-13 -1.05092e-13 1.34127e-12 -1.22144e-12 7.11935e-13 3.01562e-13 -2.21944e-12 1.64889e-12 7.14783e-14 -1.4439e-12 1.51944e-12 -1.57582e-12 2.0366e-12 3.83556e-13 -9.82069e-13 1.31699e-12 -1.83485e-12 1.65352e-12 -8.95466e-13 1.22875e-12 -9.98369e-13 -2.27411e-13 3.69307e-13 -1.78335e-13 -4.1529e-14 -1.45392e-12 1.3462e-13 9.84837e-13 -1.00379e-13 -4.93511e-13 -7.2165e-13 2.98807e-13 1.35406e-12 -1.59459e-12 1.2866e-12 2.01084e-13 -1.28122e-12 1.63374e-12 -1.15717e-12 1.4513e-12 -3.60275e-13 -9.66115e-13 1.21961e-12 -1.15874e-12 9.51041e-13 1.17013e-14 -1.65034e-12 9.72516e-13 -2.0294e-12 7.29561e-13 -1.14437e-13 -1.50477e-12 1.48213e-12 -1.80424e-12 1.92697e-12 7.09728e-13 -3.79625e-12 2.21619e-12 2.69021e-13 -4.04479e-13 3.98359e-13 -3.29531e-12 3.13725e-12 2.37194e-13 0 0 -1.27824e-14 -4.16394e-14 -9.81736e-15 -3.42901e-14 -9.23668e-15 -1.29474e-14 -4.83864e-14 -1.05138e-13 -1.11696e-13 -4.89713e-14 -7.06643e-14 6.496e-14 -9.81333e-14 2.43501e-14 3.14737e-14 -4.69724e-14 -2.57935e-14 -1.45659e-13 -1.19784e-14 -1.14496e-13 -8.80972e-14 -1.64447e-13 1.12395e-14 9.50838e-14 5.40037e-14 -2.49789e-14 -2.41082e-15 -1.53522e-13 -1.0614e-13 -1.15298e-13 -4.60608e-14 1.23788e-14 -5.97619e-14 -3.82036e-14 -2.20764e-13 7.09133e-14 -1.13281e-13 6.37547e-14 -1.74825e-13 -2.07839e-14 -7.98911e-14 3.8011e-14 1.19408e-13 -2.63777e-13 -3.52783e-13 -7.9886e-14 -2.02634e-13 2.48991e-13 -4.32508e-14 -3.06506e-13 -1.3065e-13 -3.18733e-13 5.78986e-13 9.14687e-14 -2.41389e-14 -9.26019e-15 -5.58067e-13 2.32182e-13 1.37187e-14 1.98768e-13 -5.2261e-14 -3.61809e-13 -1.04516e-13 -2.00568e-13 1.80191e-13 3.53134e-13 -5.11711e-14 -1.22486e-13 3.38148e-14 -1.33032e-13 2.55116e-13 -4.96699e-13 1.78896e-14 -3.74024e-13 -2.47202e-13 -4.00751e-13 -1.97763e-13 4.57556e-13 -1.25946e-13 1.14364e-13 2.58637e-13 1.25486e-12 2.31714e-11 4.78427e-10 8.67356e-09 1.35574e-07 1.80221e-06 2.00302e-05 0.0001821 0.0013153 0.00726066 0.0292677 0.0835274 0.173174 0.286557 0.416995 0.552577 0.652859 0.757397 0.83581 0.873253 0.915954 0.932843 0.931268 0.927685 0.92577 0.920459 0.90023 0.848588 0.75223 0.61069 0.443003 0.279629 0.148716 0.0644249 0.0228581 0.00701732 0.00197358 0.000523716 0.000132521 3.2081e-05 7.43812e-06 1.65264e-06 3.52061e-07 7.19466e-08 1.41125e-08 2.65871e-09 4.80712e-10 8.39861e-11 1.38587e-11 2.01673e-12 -1.87779e-13 -5.86503e-13 -6.7926e-14 3.82429e-14 -2.67881e-13 -8.14752e-14 -2.8777e-14 4.24309e-14 -1.90156e-13 -6.20976e-13 1.10162e-13 1.14874e-13 6.17888e-13 -2.53085e-13 -2.00291e-13 7.44103e-14 3.15139e-13 4.06822e-13 1.21896e-13 1.65349e-13 -3.63297e-13 -3.16807e-13 5.6522e-13 2.74823e-13 1.94628e-13 -5.49949e-13 -1.17903e-12 -4.76131e-14 4.74379e-13 6.60535e-13 -6.26414e-13 -7.32636e-13 -3.68189e-14 2.63748e-13 -5.10913e-13 7.53411e-13 -3.41994e-13 1.87192e-13 1.8829e-13 -6.39179e-13 2.57301e-13 3.91166e-13 7.50438e-13 -2.70582e-13 -6.91815e-13 -2.33685e-13 9.06525e-13 7.57949e-13 -4.71889e-13 -1.11622e-12 -3.40608e-13 1.01145e-13 -3.13905e-13 -1.08654e-12 -9.47888e-13 7.57583e-13 6.79176e-13 -6.81758e-13 -6.33574e-13 -7.45698e-13 1.31081e-12 2.08371e-13 -8.56871e-14 -5.70224e-13 -3.29996e-13 7.30575e-13 -2.63953e-13 -3.76793e-13 0 0 -3.10637e-14 -2.45184e-14 2.20828e-14 -9.32811e-14 -8.60646e-14 -4.99365e-14 -2.28644e-14 -4.91336e-14 2.25883e-14 -7.9809e-16 -1.04763e-13 8.71284e-15 -1.02749e-13 8.89239e-14 -1.034e-13 -1.43632e-13 1.18924e-14 -2.31393e-13 -7.34841e-14 3.70112e-14 -7.73807e-14 -1.49016e-13 -1.66883e-14 1.82565e-13 2.66879e-14 -2.20327e-13 4.71677e-14 -3.14597e-14 -2.19673e-13 -1.81652e-13 2.39834e-13 -8.46432e-14 -5.43003e-14 1.39147e-13 -1.8165e-13 1.72583e-13 -2.27562e-13 2.19354e-13 -3.45489e-13 -1.97989e-13 -2.71783e-13 -6.61468e-14 2.41982e-13 3.07314e-14 -3.3605e-13 1.88422e-13 -3.85439e-13 -8.45965e-15 -6.25009e-14 -4.29892e-15 -2.11218e-13 -3.62456e-13 7.67846e-13 1.44903e-13 -1.25794e-13 -2.90045e-14 -4.93966e-13 1.97355e-13 -1.25948e-13 -1.18522e-13 -3.09762e-13 -3.74733e-13 -2.97006e-13 -1.36383e-13 3.97044e-13 2.10496e-13 2.09419e-13 6.74412e-13 -3.78883e-13 1.07376e-13 3.42494e-13 -2.96585e-13 -3.07443e-14 -8.07167e-13 1.03683e-13 -3.54707e-13 -7.82794e-13 -2.62936e-14 -1.01713e-13 1.05892e-12 -1.15803e-13 4.42251e-13 2.38564e-11 4.78102e-10 8.67203e-09 1.35575e-07 1.80222e-06 2.00302e-05 0.0001821 0.0013153 0.00726066 0.0292677 0.0835274 0.173174 0.286557 0.416995 0.552577 0.652859 0.757397 0.83581 0.873253 0.915954 0.932843 0.931268 0.927685 0.92577 0.920459 0.90023 0.848588 0.75223 0.61069 0.443003 0.279629 0.148716 0.0644249 0.0228581 0.00701732 0.00197358 0.000523716 0.000132521 3.2081e-05 7.43812e-06 1.65265e-06 3.52061e-07 7.19458e-08 1.4113e-08 2.65869e-09 4.80814e-10 8.43063e-11 1.31104e-11 2.20273e-12 -3.66424e-13 -8.17041e-13 9.02985e-13 -8.10899e-13 -1.23718e-13 -1.98891e-13 -6.38895e-13 1.12594e-12 -3.39511e-13 -9.07519e-13 1.24782e-12 -2.7487e-13 4.86021e-13 6.92374e-13 -1.40019e-12 4.20043e-13 2.62691e-13 9.97983e-13 4.21204e-13 -1.45175e-12 -2.0227e-14 -3.52522e-13 7.78553e-13 -9.16133e-13 1.27934e-13 2.01765e-13 -9.18025e-13 2.63839e-14 -5.36138e-13 -4.46897e-13 1.31205e-14 -8.39449e-14 3.00832e-13 2.56594e-13 -9.29149e-13 -1.22248e-12 -7.16491e-13 2.15317e-12 6.60595e-15 5.3376e-15 8.40552e-13 -9.81199e-13 7.59424e-13 2.27214e-13 -2.07404e-13 1.97861e-13 -9.28963e-13 9.10907e-13 2.58595e-13 -5.06056e-13 4.61019e-13 -1.90642e-12 2.8917e-13 -1.12188e-12 -2.04219e-13 7.62455e-13 -1.56743e-13 8.58237e-13 -1.42957e-12 -9.41559e-13 2.19674e-12 8.02722e-14 -8.25604e-14 -1.20366e-13 -2.11783e-12 1.07522e-12 -2.87229e-13 1.64854e-12 0 0 -1.11091e-14 5.08746e-15 -8.64238e-14 2.23706e-14 -7.29564e-14 -1.17098e-13 -2.39492e-14 8.09067e-14 2.47275e-14 -1.07187e-13 4.30069e-14 -2.34393e-13 2.39354e-13 -2.12602e-13 -1.1823e-13 -5.12319e-14 -2.60463e-13 6.1698e-14 -3.17866e-13 -3.85686e-14 2.76984e-14 1.49866e-13 -8.64527e-14 -1.71098e-13 -4.02955e-14 7.71026e-14 -2.94775e-13 -1.12687e-13 -1.31776e-13 2.72938e-13 -8.19369e-14 3.57416e-13 1.94905e-13 -4.50131e-13 1.83705e-13 -1.40646e-13 2.22772e-13 -5.12578e-13 1.36651e-13 -4.17253e-13 -5.88229e-14 2.1047e-14 -4.26494e-13 -8.27202e-15 2.91962e-13 -4.2576e-13 2.13366e-13 -5.52947e-13 -2.01809e-13 -4.28646e-13 -2.3269e-13 8.81115e-13 -8.59704e-13 5.06188e-13 2.10612e-13 -1.99196e-13 5.74216e-13 -8.45954e-13 2.14001e-13 -2.12205e-13 -2.76931e-13 -5.77621e-13 -3.99265e-13 3.58872e-13 3.42118e-13 3.19311e-13 3.32791e-13 1.24595e-13 7.11127e-13 3.56536e-13 -6.30084e-13 -3.01894e-14 -1.15002e-12 4.76342e-13 -7.7713e-13 -2.50033e-13 1.52227e-13 -5.0492e-13 9.00107e-13 -8.27998e-13 7.44602e-13 1.69806e-12 2.15751e-11 4.78154e-10 8.67419e-09 1.35574e-07 1.80221e-06 2.00302e-05 0.0001821 0.0013153 0.00726066 0.0292677 0.0835274 0.173174 0.286557 0.416995 0.552577 0.652859 0.757397 0.83581 0.873253 0.915954 0.932843 0.931268 0.927685 0.92577 0.920459 0.90023 0.848588 0.75223 0.61069 0.443003 0.279629 0.148716 0.0644249 0.0228581 0.00701732 0.00197358 0.000523716 0.000132521 3.2081e-05 7.43812e-06 1.65265e-06 3.52059e-07 7.19469e-08 1.41117e-08 2.65866e-09 4.8256e-10 8.2678e-11 1.43514e-11 1.13353e-12 -1.86648e-13 4.61065e-13 -1.10266e-12 7.53945e-14 -1.22625e-12 1.68377e-13 1.1092e-12 -7.79993e-13 3.07217e-13 9.91494e-14 -1.15163e-12 1.81806e-12 8.0403e-13 -7.14976e-13 8.44856e-13 -1.18583e-12 1.83492e-12 7.75038e-13 -7.59494e-13 9.55284e-13 -1.96959e-12 9.63884e-13 -1.76177e-12 -1.18113e-14 -1.87464e-12 2.91439e-13 6.62747e-13 -6.23102e-13 -7.57825e-13 -1.8108e-12 5.27478e-13 1.24144e-12 -2.90499e-13 -7.67624e-13 -6.89955e-13 -2.92582e-13 1.18717e-12 -1.20622e-12 6.40231e-13 6.36126e-13 -1.07533e-12 9.07516e-13 -1.30911e-12 2.18654e-12 8.75838e-13 -6.54962e-13 -2.72969e-13 -1.79257e-12 1.64341e-12 1.42353e-12 -1.12192e-12 -9.23531e-13 -2.57504e-12 2.59224e-13 7.04004e-13 -8.28468e-13 1.1316e-12 -1.31619e-12 1.54779e-12 1.01406e-12 -3.62583e-12 2.18208e-12 5.09063e-13 -3.39367e-13 -7.16273e-13 -2.91934e-12 3.29973e-12 2.04057e-12 0 0 -1.1408e-14 -4.90951e-14 4.33579e-15 -1.14207e-13 4.17031e-14 8.31146e-14 1.34547e-14 -1.0241e-13 -1.38404e-13 9.15528e-15 -1.62541e-13 2.87401e-13 -2.75841e-13 1.15413e-13 -1.07722e-13 -4.36427e-13 1.11127e-13 -3.09907e-13 1.37632e-13 -8.25279e-14 -5.33318e-14 -2.76861e-13 1.28775e-13 1.13357e-13 -7.78683e-14 -3.7502e-13 -2.98028e-13 -6.20677e-14 3.24602e-13 -1.47247e-13 2.38316e-13 1.59485e-13 8.68823e-14 3.82601e-13 -4.40909e-13 -4.20469e-14 -7.72648e-13 3.06453e-13 -1.7547e-13 4.15329e-13 -3.53351e-13 -1.25815e-13 -4.5319e-14 -5.46871e-13 -6.22421e-13 1.2173e-14 -2.37786e-13 4.72898e-13 -1.08181e-14 -6.80956e-13 -5.52361e-13 -9.49499e-13 1.25801e-12 -2.18117e-13 2.11571e-13 5.82985e-13 -1.01375e-12 1.13905e-12 -5.79626e-13 -3.75687e-13 -3.4714e-13 1.66829e-13 3.44997e-13 -4.23576e-13 -6.77946e-14 5.90127e-13 3.64337e-13 7.30121e-13 -3.06856e-15 -4.45678e-13 7.9959e-13 -9.89787e-13 -3.90009e-13 -1.31144e-12 -1.226e-13 9.27181e-13 -1.16432e-13 8.38138e-13 -1.32578e-12 6.10138e-13 -5.88581e-13 1.15906e-12 2.36204e-11 4.7862e-10 8.67221e-09 1.35575e-07 1.80221e-06 2.00302e-05 0.0001821 0.0013153 0.00726066 0.0292677 0.0835274 0.173174 0.286557 0.416995 0.552577 0.652859 0.757397 0.83581 0.873253 0.915954 0.932843 0.931268 0.927685 0.92577 0.920459 0.90023 0.848588 0.75223 0.61069 0.443003 0.279629 0.148716 0.0644249 0.0228581 0.00701732 0.00197358 0.000523716 0.000132521 3.2081e-05 7.43812e-06 1.65264e-06 3.52061e-07 7.19452e-08 1.41133e-08 2.65955e-09 4.79948e-10 8.41379e-11 1.26851e-11 3.6784e-12 3.41141e-13 -1.85213e-12 4.55463e-15 -2.1298e-12 7.86305e-13 1.16368e-12 -1.02421e-12 2.19921e-13 -1.22709e-12 -5.09845e-13 2.70231e-12 -1.17663e-12 2.50978e-13 1.26731e-12 -6.03156e-13 3.33381e-12 -1.54215e-12 -9.12469e-13 1.40787e-12 7.98305e-13 1.72057e-12 -3.08952e-12 -1.21025e-12 -1.86617e-12 1.31535e-13 -3.26223e-13 -1.07806e-12 -1.28663e-12 -7.10819e-13 3.18839e-12 -1.05288e-12 -1.73256e-12 -6.52149e-13 -4.68548e-13 1.6773e-12 2.2382e-12 -1.29642e-12 -5.59522e-13 -2.28214e-12 -2.97055e-13 1.10457e-12 -6.93675e-13 1.787e-12 -1.32719e-12 2.21857e-12 9.00089e-13 -1.19968e-12 7.52151e-14 -1.25991e-12 1.22939e-12 1.00509e-12 -2.79523e-12 -8.50055e-13 -2.65258e-12 1.10209e-14 2.73838e-12 -7.90674e-13 1.12111e-12 -1.31445e-12 -4.49278e-13 2.94503e-12 -2.65724e-12 -8.30098e-13 -8.72549e-13 1.8624e-13 4.00387e-12 -2.83236e-12 6.07635e-13 0
				</DataArray>
				<DataArray Name="VitesseY" type="Float32" format="ascii">