<?xml version="1.0"?>
<VTKFile type="PolyData">
	<PolyData>
		<Piece NumberOfPoints="1206" NumberOfPolys="1000">
			<Points>
				<DataArray type="Float32" NumberOfComponents="3" format="ascii">
 0 0 0 0.005 0 0 0.01 0 0 0.015 0 0 0.02 0 0 0.025 0 0 0.03 0 0 0.035 0 0 0.04 0 0 0.045 0 0 0.05 0 0 0.055 0 0 0.06 0 0 0.065 0 0 0.07 0 0 0.075 0 0 0.08 0 0 0.085 0 0 0.09 0 0 0.095 0 0 0.1 0 0 0.105 0 0 0.11 0 0 0.115 0 0 0.12 0 0 0.125 0 0 0.13 0 0 0.135 0 0 0.14 0 0 0.145 0 0 0.15 0 0 0.155 0 0 0.16 0 0 0.165 0 0 0.17 0 0 0.175 0 0 0.18 0 0 0.185 0 0 0.19 0 0 0.195 0 0 0.2 0 0 0.205 0 0 0.21 0 0 0.215 0 0 0.22 0 0 0.225 0 0 0.23 0 0 0.235 0 0 0.24 0 0 0.245 0 0 0.25 0 0 0.255 0 0 0.26 0 0 0.265 0 0 0.27 0 0 0.275 0 0 0.28 0 0 0.285 0 0 0.29 0 0 0.295 0 0 0.3 0 0 0.305 0 0 0.31 0 0 0.315 0 0 0.32 0 0 0.325 0 0 0.33 0 0 0.335 0 0 0.34 0 0 0.345 0 0 0.35 0 0 0.355 0 0 0.36 0 0 0.365 0 0 0.37 0 0 0.375 0 0 0.38 0 0 0.385 0 0 0.39 0 0 0.395 0 0 0.4 0 0 0.405 0 0 0.41 0 0 0.415 0 0 0.42 0 0 0.425 0 0 0.43 0 0 0.435 0 0 0.44 0 0 0.445 0 0 0.45 0 0 0.455 0 0 0.46 0 0 0.465 0 0 0.47 0 0 0.475 0 0 0.48 0 0 0.485 0 0 0.49 0 0 0.495 0 0 0.5 0 0 0.505 0 0 0.51 0 0 0.515 0 0 0.52 0 0 0.525 0 0 0.53 0 0 0.535 0 0 0.54 0 0 0.545 0 0 0.55 0 0 0.555 0 0 0.56 0 0 0.565 0 0 0.57 0 0 0.575 0 0 0.58 0 0 0.585 0 0 0.59 0 0 0.595 0 0 0.6 0 0 0.605 0 0 0.61 0 0 0.615 0 0 0.62 0 0 0.625 0 0 0.63 0 0 0.635 0 0 0.64 0 0 0.645 0 0 0.65 0 0 0.655 0 0 0.66 0 0 0.665 0 0 0.67 0 0 0.675 0 0 0.68 0 0 0.685 0 0 0.69 0 0 0.695 0 0 0.7 0 0 0.705 0 0 0.71 0 0 0.715 0 0 0.72 0 0 0.725 0 0 0.73 0 0 0.735 0 0 0.74 0 0 0.745 0 0 0.75 0 0 0.755 0 0 0.76 0 0 0.765 0 0 0.77 0 0 0.775 0 0 0.78 0 0 0.785 0 0 0.79 0 0 0.795 0 0 0.8 0 0 0.805 0 0 0.81 0 0 0.815 0 0 0.82 0 0 0.825 0 0 0.83 0 0 0.835 0 0 0.84 0 0 0.845 0 0 0.85 0 0 0.855 0 0 0.86 0 0 0.865 0 0 0.87 0 0 0.875 0 0 0.88 0 0 0.885 0 0 0.89 0 0 0.895 0 0 0.9 0 0 0.905 0 0 0.91 0 0 0.915 0 0 0.92 0 0 0.925 0 0 0.93 0 0 0.935 0 0 0.94 0 0 0.945 0 0 0.95 0 0 0.955 0 0 0.96 0 0 0.965 0 0 0.97 0 0 0.975 0 0 0.98 0 0 0.985 0 0 0.99 0 0 0.995 0 0 1 0 0 0 0.02 0 0.005 0.02 0 0.01 0.02 0 0.015 0.02 0 0.02 0.02 0 0.025 0.02 0 0.03 0.02 0 0.035 0.02 0 0.04 0.02 0 0.045 0.02 0 0.05 0.02 0 0.055 0.02 0 0.06 0.02 0 0.065 0.02 0 0.07 0.02 0 0.075 0.02 0 0.08 0.02 0 0.085 0.02 0 0.09 0.02 0 0.095 0.02 0 0.1 0.02 0 0.105 0.02 0 0.11 0.02 0 0.115 0.02 0 0.12 0.02 0 0.125 0.02 0 0.13 0.02 0 0.135 0.02 0 0.14 0.02 0 0.145 0.02 0 0.15 0.02 0 0.155 0.02 0 0.16 0.02 0 0.165 0.02 0 0.17 0.02 0 0.175 0.02 0 0.18 0.02 0 0.185 0.02 0 0.19 0.02 0 0.195 0.02 0 0.2 0.02 0 0.205 0.02 0 0.21 0.02 0 0.215 0.02 0 0.22 0.02 0 0.225 0.02 0 0.23 0.02 0 0.235 0.02 0 0.24 0.02 0 0.245 0.02 0 0.25 0.02 0 0.255 0.02 0 0.26 0.02 0 0.265 0.02 0 0.27 0.02 0 0.275 0.02 0 0.28 0.02 0 0.285 0.02 0 0.29 0.02 0 0.295 0.02 0 0.3 0.02 0 0.305 0.02 0 0.31 0.02 0 0.315 0.02 0 0.32 0.02 0 0.325 0.02 0 0.33 0.02 0 0.335 0.02 0 0.34 0.02 0 0.345 0.02 0 0.35 0.02 0 0.355 0.02 0 0.36 0.02 0 0.365 0.02 0 0.37 0.02 0 0.375 0.02 0 0.38 0.02 0 0.385 0.02 0 0.39 0.02 0 0.395 0.02 0 0.4 0.02 0 0.405 0.02 0 0.41 0.02 0 0.415 0.02 0 0.42 0.02 0 0.425 0.02 0 0.43 0.02 0 0.435 0.02 0 0.44 0.02 0 0.445 0.02 0 0.45 0.02 0 0.455 0.02 0 0.46 0.02 0 0.465 0.02 0 0.47 0.02 0 0.475 0.02 0 0.48 0.02 0 0.485 0.02 0 0.49 0.02 0 0.495 0.02 0 0.5 0.02 0 0.505 0.02 0 0.51 0.02 0 0.515 0.02 0 0.52 0.02 0 0.525 0.02 0 0.53 0.02 0 0.535 0.02 0 0.54 0.02 0 0.545 0.02 0 0.55 0.02 0 0.555 0.02 0 0.56 0.02 0 0.565 0.02 0 0.57 0.02 0 0.575 0.02 0 0.58 0.02 0 0.585 0.02 0 0.59 0.02 0 0.595 0.02 0 0.6 0.02 0 0.605 0.02 0 0.61 0.02 0 0.615 0.02 0 0.62 0.02 0 0.625 0.02 0 0.63 0.02 0 0.635 0.02 0 0.64 0.02 0 0.645 0.02 0 0.65 0.02 0 0.655 0.02 0 0.66 0.02 0 0.665 0.02 0 0.67 0.02 0 0.675 0.02 0 0.68 0.02 0 0.685 0.02 0 0.69 0.02 0 0.695 0.02 0 0.7 0.02 0 0.705 0.02 0 0.71 0.02 0 0.715 0.02 0 0.72 0.02 0 0.725 0.02 0 0.73 0.02 0 0.735 0.02 0 0.74 0.02 0 0.745 0.02 0 0.75 0.02 0 0.755 0.02 0 0.76 0.02 0 0.765 0.02 0 0.77 0.02 0 0.775 0.02 0 0.78 0.02 0 0.785 0.02 0 0.79 0.02 0 0.795 0.02 0 0.8 0.02 0 0.805 0.02 0 0.81 0.02 0 0.815 0.02 0 0.82 0.02 0 0.825 0.02 0 0.83 0.02 0 0.835 0.02 0 0.84 0.02 0 0.845 0.02 0 0.85 0.02 0 0.855 0.02 0 0.86 0.02 0 0.865 0.02 0 0.87 0.02 0 0.875 0.02 0 0.88 0.02 0 0.885 0.02 0 0.89 0.02 0 0.895 0.02 0 0.9 0.02 0 0.905 0.02 0 0.91 0.02 0 0.915 0.02 0 0.92 0.02 0 0.925 0.02 0 0.93 0.02 0 0.935 0.02 0 0.94 0.02 0 0.945 0.02 0 0.95 0.02 0 0.955 0.02 0 0.96 0.02 0 0.965 0.02 0 0.97 0.02 0 0.975 0.02 0 0.98 0.02 0 0.985 0.02 0 0.99 0.02 0 0.995 0.02 0 1 0.02 0 0 0.04 0 0.005 0.04 0 0.01 0.04 0 0.015 0.04 0 0.02 0.04 0 0.025 0.04 0 0.03 0.04 0 0.035 0.04 0 0.04 0.04 0 0.045 0.04 0 0.05 0.04 0 0.055 0.04 0 0.06 0.04 0 0.065 0.04 0 0.07 0.04 0 0.075 0.04 0 0.08 0.04 0 0.085 0.04 0 0.09 0.04 0 0.095 0.04 0 0.1 0.04 0 0.105 0.04 0 0.11 0.04 0 0.115 0.04 0 0.12 0.04 0 0.125 0.04 0 0.13 0.04 0 0.135 0.04 0 0.14 0.04 0 0.145 0.04 0 0.15 0.04 0 0.155 0.04 0 0.16 0.04 0 0.165 0.04 0 0.17 0.04 0 0.175 0.04 0 0.18 0.04 0 0.185 0.04 0 0.19 0.04 0 0.195 0.04 0 0.2 0.04 0 0.205 0.04 0 0.21 0.04 0 0.215 0.04 0 0.22 0.04 0 0.225 0.04 0 0.23 0.04 0 0.235 0.04 0 0.24 0.04 0 0.245 0.04 0 0.25 0.04 0 0.255 0.04 0 0.26 0.04 0 0.265 0.04 0 0.27 0.04 0 0.275 0.04 0 0.28 0.04 0 0.285 0.04 0 0.29 0.04 0 0.295 0.04 0 0.3 0.04 0 0.305 0.04 0 0.31 0.04 0 0.315 0.04 0 0.32 0.04 0 0.325 0.04 0 0.33 0.04 0 0.335 0.04 0 0.34 0.04 0 0.345 0.04 0 0.35 0.04 0 0.355 0.04 0 0.36 0.04 0 0.365 0.04 0 0.37 0.04 0 0.375 0.04 0 0.38 0.04 0 0.385 0.04 0 0.39 0.04 0 0.395 0.04 0 0.4 0.04 0 0.405 0.04 0 0.41 0.04 0 0.415 0.04 0 0.42 0.04 0 0.425 0.04 0 0.43 0.04 0 0.435 0.04 0 0.44 0.04 0 0.445 0.04 0 0.45 0.04 0 0.455 0.04 0 0.46 0.04 0 0.465 0.04 0 0.47 0.04 0 0.475 0.04 0 0.48 0.04 0 0.485 0.04 0 0.49 0.04 0 0.495 0.04 0 0.5 0.04 0 0.505 0.04 0 0.51 0.04 0 0.515 0.04 0 0.52 0.04 0 0.525 0.04 0 0.53 0.04 0 0.535 0.04 0 0.54 0.04 0 0.545 0.04 0 0.55 0.04 0 0.555 0.04 0 0.56 0.04 0 0.565 0.04 0 0.57 0.04 0 0.575 0.04 0 0.58 0.04 0 0.585 0.04 0 0.59 0.04 0 0.595 0.04 0 0.6 0.04 0 0.605 0.04 0 0.61 0.04 0 0.615 0.04 0 0.62 0.04 0 0.625 0.04 0 0.63 0.04 0 0.635 0.04 0 0.64 0.04 0 0.645 0.04 0 0.65 0.04 0 0.655 0.04 0 0.66 0.04 0 0.665 0.04 0 0.67 0.04 0 0.675 0.04 0 0.68 0.04 0 0.685 0.04 0 0.69 0.04 0 0.695 0.04 0 0.7 0.04 0 0.705 0.04 0 0.71 0.04 0 0.715 0.04 0 0.72 0.04 0 0.725 0.04 0 0.73 0.04 0 0.735 0.04 0 0.74 0.04 0 0.745 0.04 0 0.75 0.04 0 0.755 0.04 0 0.76 0.04 0 0.765 0.04 0 0.77 0.04 0 0.775 0.04 0 0.78 0.04 0 0.785 0.04 0 0.79 0.04 0 0.795 0.04 0 0.8 0.04 0 0.805 0.04 0 0.81 0.04 0 0.815 0.04 0 0.82 0.04 0 0.825 0.04 0 0.83 0.04 0 0.835 0.04 0 0.84 0.04 0 0.845 0.04 0 0.85 0.04 0 0.855 0.04 0 0.86 0.04 0 0.865 0.04 0 0.87 0.04 0 0.875 0.04 0 0.88 0.04 0 0.885 0.04 0 0.89 0.04 0 0.895 0.04 0 0.9 0.04 0 0.905 0.04 0 0.91 0.04 0 0.915 0.04 0 0.92 0.04 0 0.925 0.04 0 0.93 0.04 0 0.935 0.04 0 0.94 0.04 0 0.945 0.04 0 0.95 0.04 0 0.955 0.04 0 0.96 0.04 0 0.965 0.04 0 0.97 0.04 0 0.975 0.04 0 0.98 0.04 0 0.985 0.04 0 0.99 0.04 0 0.995 0.04 0 1 0.04 0 0 0.06 0 0.005 0.06 0 0.01 0.06 0 0.015 0.06 0 0.02 0.06 0 0.025 0.06 0 0.03 0.06 0 0.035 0.06 0 0.04 0.06 0 0.045 0.06 0 0.05 0.06 0 0.055 0.06 0 0.06 0.06 0 0.065 0.06 0 0.07 0.06 0 0.075 0.06 0 0.08 0.06 0 0.085 0.06 0 0.09 0.06 0 0.095 0.06 0 0.1 0.06 0 0.105 0.06 0 0.11 0.06 0 0.115 0.06 0 0.12 0.06 0 0.125 0.06 0 0.13 0.06 0 0.135 0.06 0 0.14 0.06 0 0.145 0.06 0 0.15 0.06 0 0.155 0.06 0 0.16 0.06 0 0.165 0.06 0 0.17 0.06 0 0.175 0.06 0 0.18 0.06 0 0.185 0.06 0 0.19 0.06 0 0.195 0.06 0 0.2 0.06 0 0.205 0.06 0 0.21 0.06 0 0.215 0.06 0 0.22 0.06 0 0.225 0.06 0 0.23 0.06 0 0.235 0.06 0 0.24 0.06 0 0.245 0.06 0 0.25 0.06 0 0.255 0.06 0 0.26 0.06 0 0.265 0.06 0 0.27 0.06 0 0.275 0.06 0 0.28 0.06 0 0.285 0.06 0 0.29 0.06 0 0.295 0.06 0 0.3 0.06 0 0.305 0.06 0 0.31 0.06 0 0.315 0.06 0 0.32 0.06 0 0.325 0.06 0 0.33 0.06 0 0.335 0.06 0 0.34 0.06 0 0.345 0.06 0 0.35 0.06 0 0.355 0.06 0 0.36 0.06 0 0.365 0.06 0 0.37 0.06 0 0.375 0.06 0 0.38 0.06 0 0.385 0.06 0 0.39 0.06 0 0.395 0.06 0 0.4 0.06 0 0.405 0.06 0 0.41 0.06 0 0.415 0.06 0 0.42 0.06 0 0.425 0.06 0 0.43 0.06 0 0.435 0.06 0 0.44 0.06 0 0.445 0.06 0 0.45 0.06 0 0.455 0.06 0 0.46 0.06 0 0.465 0.06 0 0.47 0.06 0 0.475 0.06 0 0.48 0.06 0 0.485 0.06 0 0.49 0.06 0 0.495 0.06 0 0.5 0.06 0 0.505 0.06 0 0.51 0.06 0 0.515 0.06 0 0.52 0.06 0 0.525 0.06 0 0.53 0.06 0 0.535 0.06 0 0.54 0.06 0 0.545 0.06 0 0.55 0.06 0 0.555 0.06 0 0.56 0.06 0 0.565 0.06 0 0.57 0.06 0 0.575 0.06 0 0.58 0.06 0 0.585 0.06 0 0.59 0.06 0 0.595 0.06 0 0.6 0.06 0 0.605 0.06 0 0.61 0.06 0 0.615 0.06 0 0.62 0.06 0 0.625 0.06 0 0.63 0.06 0 0.635 0.06 0 0.64 0.06 0 0.645 0.06 0 0.65 0.06 0 0.655 0.06 0 0.66 0.06 0 0.665 0.06 0 0.67 0.06 0 0.675 0.06 0 0.68 0.06 0 0.685 0.06 0 0.69 0.06 0 0.695 0.06 0 0.7 0.06 0 0.705 0.06 0 0.71 0.06 0 0.715 0.06 0 0.72 0.06 0 0.725 0.06 0 0.73 0.06 0 0.735 0.06 0 0.74 0.06 0 0.745 0.06 0 0.75 0.06 0 0.755 0.06 0 0.76 0.06 0 0.765 0.06 0 0.77 0.06 0 0.775 0.06 0 0.78 0.06 0 0.785 0.06 0 0.79 0.06 0 0.795 0.06 0 0.8 0.06 0 0.805 0.06 0 0.81 0.06 0 0.815 0.06 0 0.82 0.06 0 0.825 0.06 0 0.83 0.06 0 0.835 0.06 0 0.84 0.06 0 0.845 0.06 0 0.85 0.06 0 0.855 0.06 0 0.86 0.06 0 0.865 0.06 0 0.87 0.06 0 0.875 0.06 0 0.88 0.06 0 0.885 0.06 0 0.89 0.06 0 0.895 0.06 0 0.9 0.06 0 0.905 0.06 0 0.91 0.06 0 0.915 0.06 0 0.92 0.06 0 0.925 0.06 0 0.93 0.06 0 0.935 0.06 0 0.94 0.06 0 0.945 0.06 0 0.95 0.06 0 0.955 0.06 0 0.96 0.06 0 0.965 0.06 0 0.97 0.06 0 0.975 0.06 0 0.98 0.06 0 0.985 0.06 0 0.99 0.06 0 0.995 0.06 0 1 0.06 0 0 0.08 0 0.005 0.08 0 0.01 0.08 0 0.015 0.08 0 0.02 0.08 0 0.025 0.08 0 0.03 0.08 0 0.035 0.08 0 0.04 0.08 0 0.045 0.08 0 0.05 0.08 0 0.055 0.08 0 0.06 0.08 0 0.065 0.08 0 0.07 0.08 0 0.075 0.08 0 0.08 0.08 0 0.085 0.08 0 0.09 0.08 0 0.095 0.08 0 0.1 0.08 0 0.105 0.08 0 0.11 0.08 0 0.115 0.08 0 0.12 0.08 0 0.125 0.08 0 0.13 0.08 0 0.135 0.08 0 0.14 0.08 0 0.145 0.08 0 0.15 0.08 0 0.155 0.08 0 0.16 0.08 0 0.165 0.08 0
[...]
			<PointData Scalars="VitesseX">
				<DataArray Name="VitesseX" type="Float32" format="ascii">
 0 -2.13441e-14 -6.15001e-16 -6.05546e-14 -3.7845e-14 -2.80718e-15 3.26258e-14 -5.47647e-14 -6.10965e-14 -9.92372e-14 -4.75096e-14 4.61836e-14 -8.46524e-14 1.72552e-14 -1.27354e-13 -6.96603e-15 -4.43544e-14 -2.64807e-13 -1.70196e-14 -1.76586e-15 1.54458e-14 -1.22945e-13 4.46269e-15 1.00271e-13 1.28921e-13 -3.56481e-14 -1.93722e-13 -9.42385e-14 1.0394e-13 2.61882e-14 4.94261e-14 -2.61693e-13 -3.76561e-14 -5.08314e-14 -5.74591e-15 -1.0982e-13 -3.50416e-13 1.08402e-13 -8.47487e-14 2.44538e-13 -1.69553e-13 -7.60748e-14 -8.23295e-14 2.86255e-13 -3.23028e-13 -6.39164e-14 -5.49188e-13 2.80727e-14 -9.36033e-14 1.77324e-13 -9.31086e-14 -5.83103e-13 2.7587e-13 -1.4653e-13 6.67235e-13 5.58165e-14 -4.01357e-13 1.43072e-13 -2.66325e-13 1.28909e-13 -1.98419e-13 -3.72666e-13 9.40223e-15 -1.55756e-13 3.41121e-14 -1.02639e-13 3.19896e-14 5.34789e-13 -3.24694e-13 1.2346e-14 -2.71102e-14 -2.36954e-13 2.25888e-13 -6.09931e-13 -2.27741e-13 -5.33123e-13 3.98215e-13 -6.39304e-14 -3.78972e-13 4.13933e-12 5.55542e-11 8.73148e-10 1.20858e-08 1.47123e-07 1.55792e-06 1.41638e-05 0.000108761 0.000690603 0.00352752 0.0140182 0.042066 0.0950615 0.16944 0.257248 0.354167 0.457915 0.55504 0.642648 0.719922 0.799033 0.846086 0.889002 0.920914 0.925913 0.927932 0.933024 0.934655 0.933896 0.931335 0.926745 0.918594 0.901434 0.864921 0.796607 0.688673 0.545495 0.387195 0.240617 0.127191 0.0560047 0.0208792 0.00693437 0.00214876 0.00063608 0.000181457 5.00196e-05 1.33325e-05 3.43682e-06 8.56871e-07 2.06653e-07 4.82188e-08 1.08884e-08 2.37973e-09 5.02906e-10 1.0336e-10 2.07502e-11 4.30363e-12 2.21979e-13 -2.08529e-13 3.14082e-13 -1.92926e-13 -1.98204e-13 1.25452e-12 -5.83768e-13 -6.45478e-13 -3.95925e-13 6.77987e-13 2.33403e-13 -6.29886e-13 -4.59946e-13 1.49767e-12 2.96454e-13 4.46213e-13 -3.94874e-13 -4.28189e-13 2.06268e-13 4.63576e-13 7.7544e-14 -1.12125e-12 -1.18141e-12 8.97749e-13 1.38243e-12 -5.65131e-13 -1.33311e-12 -8.36192e-13 1.17548e-12 5.15491e-13 -2.44788e-13 -4.58466e-13 5.02515e-13 -3.43003e-13 -5.20398e-13 7.30735e-13 6.53364e-13 1.99044e-13 -6.86445e-13 -6.00913e-13 9.52209e-13 5.92321e-13 -3.21461e-13 -1.2416e-12 -6.71964e-13 4.18355e-13 -1.69373e-13 2.48685e-13 -1.24354e-12 -3.95418e-13 9.86693e-13 8.9127e-13 1.36034e-13 -2.02634e-12 1.8353e-13 1.74197e-12 -7.55064e-13 -1.59206e-12 -1.51932e-12 1.65364e-12 1.17877e-12 -1.96239e-12 -2.17042e-12 0 0 5.71316e-15 -3.30144e-14 1.3137e-14 -1.1469e-14 -6.24001e-14 -7.82081e-14 -1.88499e-14 -1.5429e-14 3.2959e-14 -3.40282e-14 -9.47018e-14 1.38306e-14 -6.25788e-14 9.71417e-15 -8.81598e-14 -1.00585e-13 3.216e-14 -1.76134e-13 -1.66945e-13 -1.19641e-13 6.30008e-14 9.29993e-14 -6.63655e-14 -2.37748e-14 -5.08595e-14 -1.9323e-15 2.93064e-14 -1.65112e-13 6.00383e-14 -6.20535e-14 1.21288e-13 -1.21566e-13 -9.30359e-14 -2.40223e-13 -1.85313e-13 1.71609e-13 -1.0219e-15 -1.63732e-14 -1.84836e-13 -1.06341e-14 -5.49844e-14 -1.34955e-13 -3.05039e-13 1.61421e-13 -1.1409e-13 8.26521e-14 -3.77561e-13 -2.69307e-13 -4.07675e-13 9.34889e-14 3.86295e-13 8.3596e-14 9.3417e-14 -2.84497e-13 1.17289e-13 2.4304e-13 -2.26055e-13 1.52172e-13 -3.37118e-13 -1.64507e-13 -4.26532e-14 -3.2031e-13 2.69152e-14 4.93468e-14 -2.31081e-14 8.53371e-14 -2.49864e-13 4.03648e-13 3.49662e-14 -1.13005e-13 -1.09769e-13 -5.10697e-13 1.15129e-13 -2.26384e-13 -1.32039e-13 -3.90592e-13 -9.41258e-14 4.50082e-13 3.2639e-12 5.64759e-11 8.73162e-10 1.20847e-08 1.47124e-07 1.55792e-06 1.41638e-05 0.000108761 0.000690603 0.00352752 0.0140182 0.042066 0.0950615 0.16944 0.257248 0.354167 0.457915 0.55504 0.642648 0.719922 0.799033 0.846086 0.889002 0.920914 0.925913 0.927932 0.933024 0.934655 0.933896 0.931335 0.926745 0.918594 0.901434 0.864921 0.796607 0.688673 0.545495 0.387195 0.240617 0.127191 0.0560047 0.0208792 0.00693437 0.00214876 0.00063608 0.000181457 5.00196e-05 1.33325e-05 3.43682e-06 8.56872e-07 2.06653e-07 4.8219e-08 1.08875e-08 2.3796e-09 5.03814e-10 1.03117e-10 2.07011e-11 3.47087e-12 8.66619e-13 2.37536e-13 -6.46198e-13 2.01372e-13 2.33169e-13 -6.98413e-13 2.94111e-13 5.93681e-13 -2.04e-13 -6.56889e-13 -2.52685e-13 3.98051e-13 7.90027e-13 -1.91468e-13 1.89602e-13 2.27328e-13 5.01958e-13 2.81143e-13 -3.18736e-13 -1.03488e-12 5.10759e-14 2.98091e-13 2.88099e-13 -6.4788e-13 -1.16946e-12 2.49138e-13 9.52789e-13 2.5807e-13 -6.76521e-13 -4.912e-13 1.87218e-13 4.13368e-13 -4.97093e-13 4.25664e-13 4.98703e-13 -2.80699e-13 4.7111e-14 -4.25646e-13 6.90084e-13 5.83491e-13 -2.46606e-13 -5.58129e-13 -6.15947e-13 4.87681e-13 -2.46744e-13 -7.41769e-13 -4.39e-13 -1.20381e-12 1.04091e-12 2.83165e-13 -4.75606e-13 -4.94037e-13 -3.41557e-13 9.53111e-13 -3.50681e-13 -1.1532e-12 2.38037e-13 7.27991e-13 2.44122e-13 -1.69998e-12 -1.4397e-12 7.89187e-13 7.36605e-13 0 0 -8.55384e-15 1.16971e-14 -8.04391e-15 -3.35057e-14 -3.77876e-14 -3.18043e-14 -4.21039e-14 -9.59262e-15 -1.95007e-14 -6.17857e-15 1.79249e-14 -2.83964e-14 -7.95894e-14 -3.72887e-14 -4.98213e-14 -3.57933e-14 -1.11013e-13 -1.18031e-13 -1.52794e-13 -5.27035e-14 1.52119e-14 -5.61909e-14 3.16373e-14 -1.51494e-13 -2.50287e-14 -4.89771e-14 -1.73428e-14 -5.01098e-14 6.44212e-14 1.64939e-14 4.72749e-14 -7.12044e-14 -1.39737e-13 -5.2815e-14 -1.24669e-13 -5.92888e-14 -7.32732e-14 -1.07908e-13 1.63068e-14 -1.11711e-14 -1.40964e-13 -1.16301e-13 -2.33585e-13 -5.58137e-14 -2.75013e-14 -1.04832e-13 -1.12106e-13 -1.77384e-13 -6.54906e-14 2.13625e-13 2.37187e-13 1.61245e-13 -2.10304e-13 -2.61517e-13 8.02518e-15 3.65849e-13 2.32337e-13 -1.37367e-13 -5.52095e-13 -3.94886e-13 -6.39888e-14 7.53153e-14 -1.20919e-13 1.64514e-14 -2.15597e-13 -1.25389e-13 2.51028e-13 3.80655e-13 2.55451e-14 -1.08562e-13 -8.34369e-14 -1.67056e-13 1.11195e-13 -2.27784e-13 -3.75666e-13 -2.07625e-13 1.56502e-13 3.19686e-13 3.47672e-12 5.62231e-11 8.72462e-10 1.20846e-08 1.47124e-07 1.55792e-06 1.41638e-05 0.000108761 0.000690603 0.00352752 0.0140182 0.042066 0.0950615 0.16944 0.257248 0.354167 0.457915 0.55504 0.642648 0.719922 0.799033 0.846086 0.889002 0.920914 0.925913 0.927932 0.933024 0.934655 0.933896 0.931335 0.926745 0.918594 0.901434 0.864921 0.796607 0.688673 0.545495 0.387195 0.240617 0.127191 0.0560047 0.0208792 0.00693437 0.00214876 0.00063608 0.000181457 5.00196e-05 1.33325e-05 3.43682e-06 8.56872e-07 2.06653e-07 4.82187e-08 1.08878e-08 2.37957e-09 5.03439e-10 1.03397e-10 1.98726e-11 4.1949e-12 7.6811e-13 -1.8436e-13 -2.67727e-13 -4.38474e-13 -2.2772e-13 4.55453e-13 -3.31007e-13 1.46723e-13 5.38925e-13 5.54632e-14 1.90155e-14 -1.87275e-13 -6.30789e-13 8.76652e-13 2.50581e-13 6.49217e-13 -6.07158e-13 4.73455e-13 -3.24392e-13 -5.68212e-13 -2.98408e-13 -2.27259e-13 -4.50514e-13 -5.52581e-14 2.951e-14 -1.21211e-13 1.42173e-13 -2.21839e-13 -3.08482e-13 4.03093e-13 5.75967e-13 -2.39019e-13 3.9589e-13 -1.10196e-12 4.24951e-13 7.07834e-13 -2.88782e-13 1.26048e-13 2.21573e-13 -1.63531e-13 2.00457e-13 -3.92974e-13 -2.3873e-13 -4.62104e-13 -9.64836e-14 -3.00249e-13 -1.01894e-12 -1.76154e-14 -1.91473e-13 8.31031e-14 -1.66951e-13 -7.96214e-13 4.66865e-13 -3.00072e-13 3.94715e-13 1.31771e-13 -1.13807e-12 1.59549e-13 1.28419e-13 -2.76209e-13 -3.52621e-13 -2.47011e-13 -2.83725e-13 0 0 -1.09792e-14 -1.49298e-14 -5.88624e-14 -4.12801e-14 -8.36547e-15 4.6327e-14 5.16344e-15 -1.64756e-14 -1.65703e-14 -2.00453e-14 4.45306e-15 -1.52901e-14 -8.68669e-14 -1.58539e-13 -1.08401e-14 -5.04564e-14 -2.2646e-13 1.92735e-15 -2.81495e-14 -3.30589e-14 -1.25999e-13 -5.97428e-14 -1.72441e-14 3.96357e-14 -1.23473e-13 -1.32847e-13 -6.61704e-14 3.47438e-14 1.35877e-13 7.95296e-14 -1.8188e-13 -1.89881e-14 1.8509e-15 -2.17053e-15 -6.56421e-15 -2.50403e-13 3.98323e-14 -1.72305e-13 2.50907e-14 -6.12918e-14 -7.39443e-14 -2.02196e-13 1.25093e-13 -3.48727e-13 -2.4989e-14 -3.74933e-13 1.87674e-13 -3.72448e-15 3.53413e-13 -1.35067e-13 -2.27613e-13 3.05555e-13 2.6106e-14 -1.10696e-13 -1.47967e-13 -6.26316e-14 1.26214e-13 -1.86684e-13 -7.42654e-14 -3.28643e-13 -5.40199e-13 -1.37028e-13 -9.58116e-14 -1.16943e-13 8.28846e-14 3.10964e-13 5.02304e-13 4.39728e-14 3.74684e-14 5.83701e-14 7.41076e-14 1.14844e-13 -3.88842e-13 -2.37648e-13 -4.08761e-13 1.80462e-13 2.14934e-13 1.61812e-13 3.54833e-12 5.56652e-11 8.7269e-10 1.20854e-08 1.47123e-07 1.55792e-06 1.41638e-05 0.000108761 0.000690603 0.00352752 0.0140182 0.042066 0.0950615 0.16944 0.257248 0.354167 0.457915 0.55504 0.642648 0.719922 0.799033 0.846086 0.889002 0.920914 0.925913 0.927932 0.933024 0.934655 0.933896 0.931335 0.926745 0.918594 0.901434 0.864921 0.796607 0.688673 0.545495 0.387195 0.240617 0.127191 0.0560047 0.0208792 0.00693437 0.00214876 0.00063608 0.000181457 5.00196e-05 1.33325e-05 3.43682e-06 8.56872e-07 2.06653e-07 4.82189e-08 1.08883e-08 2.37957e-09 5.03243e-10 1.02936e-10 2.02301e-11 3.80099e-12 5.7982e-13 -2.55944e-14 -1.15682e-13 -5.47129e-14 4.94471e-13 4.3174e-13 -1.65798e-13 -2.99869e-13 2.36971e-13 1.30222e-12 1.57771e-13 -5.21234e-13 -1.72689e-13 5.52977e-13 -1.16994e-13 -1.54577e-13 -8.39308e-13 -3.55624e-13 7.14086e-13 -1.34481e-13 -1.66248e-13 -1.08324e-12 -1.21933e-12 1.36301e-13 5.00865e-13 -1.27713e-13 -2.56976e-13 -5.45067e-13 4.54258e-13 -2.66088e-13 -9.35664e-13 4.79144e-13 6.84483e-14 7.80485e-13 -4.98108e-13 2.41866e-13 8.00646e-13 2.70684e-13 -9.54914e-13 -5.46516e-13 4.06428e-13 9.98545e-13 -3.9978e-13 -1.18697e-12 -2.64235e-13 -2.94402e-13 4.68721e-13 1.71586e-13 -6.74371e-13 -1.27254e-13 -2.12679e-13 4.53877e-13 -6.02462e-14 -9.41591e-13 6.93587e-13 8.69128e-13 -2.7867e-13 -5.42242e-13 -8.18479e-13 1.32334e-12 4.41512e-13 -1.45154e-12 -1.66913e-12 0 0 -4.80509e-16 -5.67147e-14 -1.38848e-14 4.59983e-15 -6.48559e-15 8.52103e-15 3.59561e-14 3.29307e-14 7.39093e-14 -4.02355e-14 -1.09773e-13 2.70735e-14 -1.4897e-13 -7.266e-14 -1.50939e-13 -1.6291e-13 2.03403e-14 -2.22749e-14 -1.16304e-13 -1.40539e-13 -4.3177e-14 8.02967e-14 -1.38209e-13 5.48417e-14 -1.39921e-13 -3.37605e-14 2.69971e-14 -1.3295e-13 1.40864e-13 8.76426e-15 5.34754e-14 -5.27338e-14 3.30144e-14 -1.72102e-13 -1.49561e-13 -6.71674e-15 -6.50981e-14 -1.04285e-13 -4.51816e-14 -8.60858e-14 -4.04922e-14 -1.39358e-13 -6.99194e-14 -1.84609e-13 -2.11834e-13 2.63588e-14 -2.94528e-13 -1.33893e-13 -2.10793e-13 5.64453e-14 1.77825e-13 -3.59057e-14 1.86833e-13 -3.57279e-13 -7.47636e-14 -1.11059e-14 -3.15927e-13 1.54195e-13 -8.78142e-14 -1.72202e-13 -4.87283e-13 -3.62974e-13 1.64547e-13 9.39078e-14 2.9594e-13 5.65849e-13 3.47525e-14 3.54973e-13 6.58709e-14 4.94504e-14 -3.64316e-13 -5.99502e-13 -2.74434e-14 5.86587e-14 1.50611e-13 -1.75065e-13 1.82406e-13 6.18755e-13 3.20421e-12 5.62339e-11 8.73082e-10 1.2085e-08 1.47124e-07 1.55792e-06 1.41638e-05 0.000108761 0.000690603 0.00352752 0.0140182 0.042066 0.0950615 0.16944 0.257248 0.354167 0.457915 0.55504 0.642648 0.719922 0.799033 0.846086 0.889002 0.920914 0.925913 0.927932 0.933024 0.934655 0.933896 0.931335 0.926745 0.918594 0.901434 0.864921 0.796607 0.688673 0.545495 0.387195 0.240617 0.127191 0.0560047 0.0208792 0.00693437 0.00214876 0.00063608 0.000181457 5.00196e-05 1.33325e-05 3.43682e-06 8.56872e-07 2.06653e-07 4.82189e-08 1.08874e-08 2.37944e-09 5.03767e-10 1.02791e-10 2.07948e-11 3.02534e-12 7.92679e-13 1.25107e-13 -3.3083e-13 6.71917e-13 1.28103e-12 -7.16922e-13 5.43757e-13 4.16085e-13 -8.05158e-14 -1.20405e-13 3.76311e-13 6.49594e-13 1.16015e-12 -9.77423e-13 2.17432e-14 -4.40187e-13 -5.80537e-14 -6.80024e-13 2.0999e-13 -1.04883e-12 -6.25503e-13 -4.68303e-13 -4.78839e-13 -1.3588e-12 -8.32137e-13 1.17367e-12 9.61552e-13 1.04837e-12 -4.15022e-13 -1.5242e-12 -1.22554e-12 5.72687e-13 -4.83251e-13 1.20974e-12 -2.8064e-13 -7.26812e-13 2.83535e-13 4.25772e-13 -2.58786e-13 4.73124e-13 -1.87892e-13 5.33838e-13 -5.39608e-13 2.12142e-13 -6.68108e-13 -1.34498e-12 1.14311e-13 -4.83644e-13 6.59397e-13 2.74471e-13 4.57625e-14 2.1757e-13 -1.03983e-12 2.6859e-13 -1.08308e-13 -6.42823e-13 9.986e-13 7.22673e-13 -5.60119e-13 -6.859e-13 -1.29985e-12 -2.82851e-13 3.00073e-13 0 0 -2.88808e-14 5.23802e-15 -1.29611e-14 9.84121e-15 5.01776e-14 4.98215e-14 -3.96873e-14 4.93888e-14 -2.31972e-14 -3.21909e-14 4.29848e-14 -8.43792e-14 -1.40972e-13 -4.96023e-14 -2.10487e-13 -1.39677e-13 -5.75529e-14 5.07817e-14 -1.49773e-13 -6.56401e-14 -5.2878e-14 -1.38387e-14 5.43467e-14 -9.61051e-14 -1.68844e-14 -8.96395e-14 -1.2019e-15 -1.44452e-15 4.49277e-14 6.49903e-14 6.0993e-14 -4.42372e-15 -8.19065e-14 2.9207e-14 -2.74526e-13 -3.24839e-13 -2.45962e-13 -1.31778e-13 5.06278e-13 -2.20215e-13 -1.8113e-13 8.06535e-14 3.91372e-14 -4.29261e-13 -2.64429e-13 -1.21573e-13 -4.0542e-13 -1.70092e-13 -2.6672e-13 5.30188e-13 -7.04431e-14 -2.51753e-13 -4.32518e-13 2.20029e-13 -1.63042e-14 -5.26885e-14 1.75572e-13 -1.63646e-13 -3.28142e-13 -3.46298e-13 -3.09507e-13 3.4876e-13 6.92944e-14 3.90023e-13 -6.15054e-14 1.20309e-13 6.0147e-13 2.51321e-13 5.03088e-14 -3.60631e-14 -1.06114e-12 -5.15522e-13 1.04998e-13 3.62072e-13 9.83671e-14 5.30938e-14 3.7227e-13 2.74124e-13 3.87673e-12 5.61862e-11 8.7253e-10 1.20847e-08 1.47125e-07 1.55792e-06 1.41638e-05 0.000108761 0.000690603 0.00352752 0.0140182 0.042066 0.0950615 0.16944 0.257248 0.354167 0.457915 0.55504 0.642648 0.719922 0.799033 0.846086 0.889002 0.920914 0.925913 0.927932 0.933024 0.934655 0.933896 0.931335 0.926745 0.918594 0.901434 0.864921 0.796607 0.688673 0.545495 0.387195 0.240617 0.127191 0.0560047 0.0208792 0.00693437 0.00214876 0.00063608 0.000181457 5.00196e-05 1.33325e-05 3.43682e-06 8.56872e-07 2.06653e-07 4.82184e-08 1.08874e-08 2.37941e-09 5.03205e-10 1.03629e-10 2.02227e-11 4.20037e-12 4.50679e-13 -7.50918e-13 6.40726e-13 -1.93575e-14 4.5314e-13 1.26493e-12 -4.14894e-13 -1.07485e-13 4.5495e-13 -7.42565e-13 1.21388e-12 5.41118e-13 -6.35904e-13 5.7311e-13 6.95887e-13 7.1877e-13 -1.0506e-12 -6.92367e-13 -8.13236e-13 -4.31785e-13 -1.53993e-12 -9.42087e-13 -1.17766e-12 -9.07209e-13 1.11436e-12 1.29694e-12 -5.17284e-13 1.39086e-12 1.72994e-13 -2.12155e-13 -4.70337e-14 -1.57615e-12 1.18508e-12 -2.53974e-12 -2.32967e-13 7.70446e-13 -1.05264e-12 1.61261e-12 -2.3121e-13 -5.5677e-14 6.57695e-13 -6.78372e-15 1.53318e-13 -3.42945e-13 -1.17919e-12 -7.99753e-13 -2.03808e-12 1.31062e-12 -1.04077e-12 7.90862e-15 2.12089e-12 -1.85698e-13 -2.06288e-13 -2.11234e-12 7.05319e-14 1.28801e-12 -9.5273e-13 -1.9911e-13 -1.234e-12 4.82698e-13 -1.298e-13 -1.69742e-12 -2.72667e-13 0
				</DataArray>
				<DataArray Name="VitesseY" type="Float32" format="ascii">