<?xml version="1.0"?>
<VTKFile type="PolyData">
	<PolyData>
		<Piece NumberOfPoints="1206" NumberOfPolys="1000">
			<Points>
				<DataArray type="Float32" NumberOfComponents="3" format="ascii">
 0 0 0 0.005 0 0 0.01 0 0 0.015 0 0 0.02 0 0 0.025 0 0 0.03 0 0 0.035 0 0 0.04 0 0 0.045 0 0 0.05 0 0 0.055 0 0 0.06 0 0 0.065 0 0 0.07 0 0 0.075 0 0 0.08 0 0 0.085 0 0 0.09 0 0 0.095 0 0 0.1 0 0 0.105 0 0 0.11 0 0 0.115 0 0 0.12 0 0 0.125 0 0 0.13 0 0 0.135 0 0 0.14 0 0 0.145 0 0 0.15 0 0 0.155 0 0 0.16 0 0 0.165 0 0 0.17 0 0 0.175 0 0 0.18 0 0 0.185 0 0 0.19 0 0 0.195 0 0 0.2 0 0 0.205 0 0 0.21 0 0 0.215 0 0 0.22 0 0 0.225 0 0 0.23 0 0 0.235 0 0 0.24 0 0 0.245 0 0 0.25 0 0 0.255 0 0 0.26 0 0 0.265 0 0 0.27 0 0 0.275 0 0 0.28 0 0 0.285 0 0 0.29 0 0 0.295 0 0 0.3 0 0 0.305 0 0 0.31 0 0 0.315 0 0 0.32 0 0 0.325 0 0 0.33 0 0 0.335 0 0 0.34 0 0 0.345 0 0 0.35 0 0 0.355 0 0 0.36 0 0 0.365 0 0 0.37 0 0 0.375 0 0 0.38 0 0 0.385 0 0 0.39 0 0 0.395 0 0 0.4 0 0 0.405 0 0 0.41 0 0 0.415 0 0 0.42 0 0 0.425 0 0 0.43 0 0 0.435 0 0 0.44 0 0 0.445 0 0 0.45 0 0 0.455 0 0 0.46 0 0 0.465 0 0 0.47 0 0 0.475 0 0 0.48 0 0 0.485 0 0 0.49 0 0 0.495 0 0 0.5 0 0 0.505 0 0 0.51 0 0 0.515 0 0 0.52 0 0 0.525 0 0 0.53 0 0 0.535 0 0 0.54 0 0 0.545 0 0 0.55 0 0 0.555 0 0 0.56 0 0 0.565 0 0 0.57 0 0 0.575 0 0 0.58 0 0 0.585 0 0 0.59 0 0 0.595 0 0 0.6 0 0 0.605 0 0 0.61 0 0 0.615 0 0 0.62 0 0 0.625 0 0 0.63 0 0 0.635 0 0 0.64 0 0 0.645 0 0 0.65 0 0 0.655 0 0 0.66 0 0 0.665 0 0 0.67 0 0 0.675 0 0 0.68 0 0 0.685 0 0 0.69 0 0 0.695 0 0 0.7 0 0 0.705 0 0 0.71 0 0 0.715 0 0 0.72 0 0 0.725 0 0 0.73 0 0 0.735 0 0 0.74 0 0 0.745 0 0 0.75 0 0 0.755 0 0 0.76 0 0 0.765 0 0 0.77 0 0 0.775 0 0 0.78 0 0 0.785 0 0 0.79 0 0 0.795 0 0 0.8 0 0 0.805 0 0 0.81 0 0 0.815 0 0 0.82 0 0 0.825 0 0 0.83 0 0 0.835 0 0 0.84 0 0 0.845 0 0 0.85 0 0 0.855 0 0 0.86 0 0 0.865 0 0 0.87 0 0 0.875 0 0 0.88 0 0 0.885 0 0 0.89 0 0 0.895 0 0 0.9 0 0 0.905 0 0 0.91 0 0 0.915 0 0 0.92 0 0 0.925 0 0 0.93 0 0 0.935 0 0 0.94 0 0 0.945 0 0 0.95 0 0 0.955 0 0 0.96 0 0 0.965 0 0 0.97 0 0 0.975 0 0 0.98 0 0 0.985 0 0 0.99 0 0 0.995 0 0 1 0 0 0 0.02 0 0.005 0.02 0 0.01 0.02 0 0.015 0.02 0 0.02 0.02 0 0.025 0.02 0 0.03 0.02 0 0.035 0.02 0 0.04 0.02 0 0.045 0.02 0 0.05 0.02 0 0.055 0.02 0 0.06 0.02 0 0.065 0.02 0 0.07 0.02 0 0.075 0.02 0 0.08 0.02 0 0.085 0.02 0 0.09 0.02 0 0.095 0.02 0 0.1 0.02 0 0.105 0.02 0 0.11 0.02 0 0.115 0.02 0 0.12 0.02 0 0.125 0.02 0 0.13 0.02 0 0.135 0.02 0 0.14 0.02 0 0.145 0.02 0 0.15 0.02 0 0.155 0.02 0 0.16 0.02 0 0.165 0.02 0 0.17 0.02 0 0.175 0.02 0 0.18 0.02 0 0.185 0.02 0 0.19 0.02 0 0.195 0.02 0 0.2 0.02 0 0.205 0.02 0 0.21 0.02 0 0.215 0.02 0 0.22 0.02 0 0.225 0.02 0 0.23 0.02 0 0.235 0.02 0 0.24 0.02 0 0.245 0.02 0 0.25 0.02 0 0.255 0.02 0 0.26 0.02 0 0.265 0.02 0 0.27 0.02 0 0.275 0.02 0 0.28 0.02 0 0.285 0.02 0 0.29 0.02 0 0.295 0.02 0 0.3 0.02 0 0.305 0.02 0 0.31 0.02 0 0.315 0.02 0 0.32 0.02 0 0.325 0.02 0 0.33 0.02 0 0.335 0.02 0 0.34 0.02 0 0.345 0.02 0 0.35 0.02 0 0.355 0.02 0 0.36 0.02 0 0.365 0.02 0 0.37 0.02 0 0.375 0.02 0 0.38 0.02 0 0.385 0.02 0 0.39 0.02 0 0.395 0.02 0 0.4 0.02 0 0.405 0.02 0 0.41 0.02 0 0.415 0.02 0 0.42 0.02 0 0.425 0.02 0 0.43 0.02 0 0.435 0.02 0 0.44 0.02 0 0.445 0.02 0 0.45 0.02 0 0.455 0.02 0 0.46 0.02 0 0.465 0.02 0 0.47 0.02 0 0.475 0.02 0 0.48 0.02 0 0.485 0.02 0 0.49 0.02 0 0.495 0.02 0 0.5 0.02 0 0.505 0.02 0 0.51 0.02 0 0.515 0.02 0 0.52 0.02 0 0.525 0.02 0 0.53 0.02 0 0.535 0.02 0 0.54 0.02 0 0.545 0.02 0 0.55 0.02 0 0.555 0.02 0 0.56 0.02 0 0.565 0.02 0 0.57 0.02 0 0.575 0.02 0 0.58 0.02 0 0.585 0.02 0 0.59 0.02 0 0.595 0.02 0 0.6 0.02 0 0.605 0.02 0 0.61 0.02 0 0.615 0.02 0 0.62 0.02 0 0.625 0.02 0 0.63 0.02 0 0.635 0.02 0 0.64 0.02 0 0.645 0.02 0 0.65 0.02 0 0.655 0.02 0 0.66 0.02 0 0.665 0.02 0 0.67 0.02 0 0.675 0.02 0 0.68 0.02 0 0.685 0.02 0 0.69 0.02 0 0.695 0.02 0 0.7 0.02 0 0.705 0.02 0 0.71 0.02 0 0.715 0.02 0 0.72 0.02 0 0.725 0.02 0 0.73 0.02 0 0.735 0.02 0 0.74 0.02 0 0.745 0.02 0 0.75 0.02 0 0.755 0.02 0 0.76 0.02 0 0.765 0.02 0 0.77 0.02 0 0.775 0.02 0 0.78 0.02 0 0.785 0.02 0 0.79 0.02 0 0.795 0.02 0 0.8 0.02 0 0.805 0.02 0 0.81 0.02 0 0.815 0.02 0 0.82 0.02 0 0.825 0.02 0 0.83 0.02 0 0.835 0.02 0 0.84 0.02 0 0.845 0.02 0 0.85 0.02 0 0.855 0.02 0 0.86 0.02 0 0.865 0.02 0 0.87 0.02 0 0.875 0.02 0 0.88 0.02 0 0.885 0.02 0 0.89 0.02 0 0.895 0.02 0 0.9 0.02 0 0.905 0.02 0 0.91 0.02 0 0.915 0.02 0 0.92 0.02 0 0.925 0.02 0 0.93 0.02 0 0.935 0.02 0 0.94 0.02 0 0.945 0.02 0 0.95 0.02 0 0.955 0.02 0 0.96 0.02 0 0.965 0.02 0 0.97 0.02 0 0.975 0.02 0 0.98 0.02 0 0.985 0.02 0 0.99 0.02 0 0.995 0.02 0 1 0.02 0 0 0.04 0 0.005 0.04 0 0.01 0.04 0 0.015 0.04 0 0.02 0.04 0 0.025 0.04 0 0.03 0.04 0 0.035 0.04 0 0.04 0.04 0 0.045 0.04 0 0.05 0.04 0 0.055 0.04 0 0.06 0.04 0 0.065 0.04 0 0.07 0.04 0 0.075 0.04 0 0.08 0.04 0 0.085 0.04 0 0.09 0.04 0 0.095 0.04 0 0.1 0.04 0 0.105 0.04 0 0.11 0.04 0 0.115 0.04 0 0.12 0.04 0 0.125 0.04 0 0.13 0.04 0 0.135 0.04 0 0.14 0.04 0 0.145 0.04 0 0.15 0.04 0 0.155 0.04 0 0.16 0.04 0 0.165 0.04 0 0.17 0.04 0 0.175 0.04 0 0.18 0.04 0 0.185 0.04 0 0.19 0.04 0 0.195 0.04 0 0.2 0.04 0 0.205 0.04 0 0.21 0.04 0 0.215 0.04 0 0.22 0.04 0 0.225 0.04 0 0.23 0.04 0 0.235 0.04 0 0.24 0.04 0 0.245 0.04 0 0.25 0.04 0 0.255 0.04 0 0.26 0.04 0 0.265 0.04 0 0.27 0.04 0 0.275 0.04 0 0.28 0.04 0 0.285 0.04 0 0.29 0.04 0 0.295 0.04 0 0.3 0.04 0 0.305 0.04 0 0.31 0.04 0 0.315 0.04 0 0.32 0.04 0 0.325 0.04 0 0.33 0.04 0 0.335 0.04 0 0.34 0.04 0 0.345 0.04 0 0.35 0.04 0 0.355 0.04 0 0.36 0.04 0 0.365 0.04 0 0.37 0.04 0 0.375 0.04 0 0.38 0.04 0 0.385 0.04 0 0.39 0.04 0 0.395 0.04 0 0.4 0.04 0 0.405 0.04 0 0.41 0.04 0 0.415 0.04 0 0.42 0.04 0 0.425 0.04 0 0.43 0.04 0 0.435 0.04 0 0.44 0.04 0 0.445 0.04 0 0.45 0.04 0 0.455 0.04 0 0.46 0.04 0 0.465 0.04 0 0.47 0.04 0 0.475 0.04 0 0.48 0.04 0 0.485 0.04 0 0.49 0.04 0 0.495 0.04 0 0.5 0.04 0 0.505 0.04 0 0.51 0.04 0 0.515 0.04 0 0.52 0.04 0 0.525 0.04 0 0.53 0.04 0 0.535 0.04 0 0.54 0.04 0 0.545 0.04 0 0.55 0.04 0 0.555 0.04 0 0.56 0.04 0 0.565 0.04 0 0.57 0.04 0 0.575 0.04 0 0.58 0.04 0 0.585 0.04 0 0.59 0.04 0 0.595 0.04 0 0.6 0.04 0 0.605 0.04 0 0.61 0.04 0 0.615 0.04 0 0.62 0.04 0 0.625 0.04 0 0.63 0.04 0 0.635 0.04 0 0.64 0.04 0 0.645 0.04 0 0.65 0.04 0 0.655 0.04 0 0.66 0.04 0 0.665 0.04 0 0.67 0.04 0 0.675 0.04 0 0.68 0.04 0 0.685 0.04 0 0.69 0.04 0 0.695 0.04 0 0.7 0.04 0 0.705 0.04 0 0.71 0.04 0 0.715 0.04 0 0.72 0.04 0 0.725 0.04 0 0.73 0.04 0 0.735 0.04 0 0.74 0.04 0 0.745 0.04 0 0.75 0.04 0 0.755 0.04 0 0.76 0.04 0 0.765 0.04 0 0.77 0.04 0 0.775 0.04 0 0.78 0.04 0 0.785 0.04 0 0.79 0.04 0 0.795 0.04 0 0.8 0.04 0 0.805 0.04 0 0.81 0.04 0 0.815 0.04 0 0.82 0.04 0 0.825 0.04 0 0.83 0.04 0 0.835 0.04 0 0.84 0.04 0 0.845 0.04 0 0.85 0.04 0 0.855 0.04 0 0.86 0.04 0 0.865 0.04 0 0.87 0.04 0 0.875 0.04 0 0.88 0.04 0 0.885 0.04 0 0.89 0.04 0 0.895 0.04 0 0.9 0.04 0 0.905 0.04 0 0.91 0.04 0 0.915 0.04 0 0.92 0.04 0 0.925 0.04 0 0.93 0.04 0 0.935 0.04 0 0.94 0.04 0 0.945 0.04 0 0.95 0.04 0 0.955 0.04 0 0.96 0.04 0 0.965 0.04 0 0.97 0.04 0 0.975 0.04 0 0.98 0.04 0 0.985 0.04 0 0.99 0.04 0 0.995 0.04 0 1 0.04 0 0 0.06 0 0.005 0.06 0 0.01 0.06 0 0.015 0.06 0 0.02 0.06 0 0.025 0.06 0 0.03 0.06 0 0.035 0.06 0 0.04 0.06 0 0.045 0.06 0 0.05 0.06 0 0.055 0.06 0 0.06 0.06 0 0.065 0.06 0 0.07 0.06 0 0.075 0.06 0 0.08 0.06 0 0.085 0.06 0 0.09 0.06 0 0.095 0.06 0 0.1 0.06 0 0.105 0.06 0 0.11 0.06 0 0.115 0.06 0 0.12 0.06 0 0.125 0.06 0 0.13 0.06 0 0.135 0.06 0 0.14 0.06 0 0.145 0.06 0 0.15 0.06 0 0.155 0.06 0 0.16 0.06 0 0.165 0.06 0 0.17 0.06 0 0.175 0.06 0 0.18 0.06 0 0.185 0.06 0 0.19 0.06 0 0.195 0.06 0 0.2 0.06 0 0.205 0.06 0 0.21 0.06 0 0.215 0.06 0 0.22 0.06 0 0.225 0.06 0 0.23 0.06 0 0.235 0.06 0 0.24 0.06 0 0.245 0.06 0 0.25 0.06 0 0.255 0.06 0 0.26 0.06 0 0.265 0.06 0 0.27 0.06 0 0.275 0.06 0 0.28 0.06 0 0.285 0.06 0 0.29 0.06 0 0.295 0.06 0 0.3 0.06 0 0.305 0.06 0 0.31 0.06 0 0.315 0.06 0 0.32 0.06 0 0.325 0.06 0 0.33 0.06 0 0.335 0.06 0 0.34 0.06 0 0.345 0.06 0 0.35 0.06 0 0.355 0.06 0 0.36 0.06 0 0.365 0.06 0 0.37 0.06 0 0.375 0.06 0 0.38 0.06 0 0.385 0.06 0 0.39 0.06 0 0.395 0.06 0 0.4 0.06 0 0.405 0.06 0 0.41 0.06 0 0.415 0.06 0 0.42 0.06 0 0.425 0.06 0 0.43 0.06 0 0.435 0.06 0 0.44 0.06 0 0.445 0.06 0 0.45 0.06 0 0.455 0.06 0 0.46 0.06 0 0.465 0.06 0 0.47 0.06 0 0.475 0.06 0 0.48 0.06 0 0.485 0.06 0 0.49 0.06 0 0.495 0.06 0 0.5 0.06 0 0.505 0.06 0 0.51 0.06 0 0.515 0.06 0 0.52 0.06 0 0.525 0.06 0 0.53 0.06 0 0.535 0.06 0 0.54 0.06 0 0.545 0.06 0 0.55 0.06 0 0.555 0.06 0 0.56 0.06 0 0.565 0.06 0 0.57 0.06 0 0.575 0.06 0 0.58 0.06 0 0.585 0.06 0 0.59 0.06 0 0.595 0.06 0 0.6 0.06 0 0.605 0.06 0 0.61 0.06 0 0.615 0.06 0 0.62 0.06 0 0.625 0.06 0 0.63 0.06 0 0.635 0.06 0 0.64 0.06 0 0.645 0.06 0 0.65 0.06 0 0.655 0.06 0 0.66 0.06 0 0.665 0.06 0 0.67 0.06 0 0.675 0.06 0 0.68 0.06 0 0.685 0.06 0 0.69 0.06 0 0.695 0.06 0 0.7 0.06 0 0.705 0.06 0 0.71 0.06 0 0.715 0.06 0 0.72 0.06 0 0.725 0.06 0 0.73 0.06 0 0.735 0.06 0 0.74 0.06 0 0.745 0.06 0 0.75 0.06 0 0.755 0.06 0 0.76 0.06 0 0.765 0.06 0 0.77 0.06 0 0.775 0.06 0 0.78 0.06 0 0.785 0.06 0 0.79 0.06 0 0.795 0.06 0 0.8 0.06 0 0.805 0.06 0 0.81 0.06 0 0.815 0.06 0 0.82 0.06 0 0.825 0.06 0 0.83 0.06 0 0.835 0.06 0 0.84 0.06 0 0.845 0.06 0 0.85 0.06 0 0.855 0.06 0 0.86 0.06 0 0.865 0.06 0 0.87 0.06 0 0.875 0.06 0 0.88 0.06 0 0.885 0.06 0 0.89 0.06 0 0.895 0.06 0 0.9 0.06 0 0.905 0.06 0 0.91 0.06 0 0.915 0.06 0 0.92 0.06 0 0.925 0.06 0 0.93 0.06 0 0.935 0.06 0 0.94 0.06 0 0.945 0.06 0 0.95 0.06 0 0.955 0.06 0 0.96 0.06 0 0.965 0.06 0 0.97 0.06 0 0.975 0.06 0 0.98 0.06 0 0.985 0.06 0 0.99 0.06 0 0.995 0.06 0 1 0.06 0 0 0.08 0 0.005 0.08 0 0.01 0.08 0 0.015 0.08 0 0.02 0.08 0 0.025 0.08 0 0.03 0.08 0 0.035 0.08 0 0.04 0.08 0 0.045 0.08 0 0.05 0.08 0 0.055 0.08 0 0.06 0.08 0 0.065 0.08 0 0.07 0.08 0 0.075 0.08 0 0.08 0.08 0 0.085 0.08 0 0.09 0.08 0 0.095 0.08 0 0.1 0.08 0 0.105 0.08 0 0.11 0.08 0 0.115 0.08 0 0.12 0.08 0 0.125 0.08 0 0.13 0.08 0 0.135 0.08 0 0.14 0.08 0 0.145 0.08 0 0.15 0.08 0 0.155 0.08 0 0.16 0.08 0 0.165 0.08 0
[...]
			<PointData Scalars="VitesseX">
				<DataArray Name="VitesseX" type="Float32" format="ascii">
 0 -3.8363e-15 5.98987e-14 -1.88936e-13 1.01212e-13 2.30248e-14 -8.18265e-14 -9.64857e-14 7.10677e-14 -6.46124e-14 -1.45224e-13 3.19485e-13 -5.98476e-13 6.06363e-13 -4.06881e-13 -2.86414e-14 2.99206e-13 -4.33094e-13 3.97555e-13 -3.30353e-13 2.01968e-14 1.17626e-13 1.91884e-13 1.35923e-14 -4.26976e-13 -2.005e-13 2.95485e-13 -3.09526e-13 8.28267e-14 -2.98806e-13 5.47535e-13 -4.19411e-13 3.92453e-13 1.80801e-14 -5.90143e-13 4.42635e-13 -6.02435e-13 8.61046e-13 -8.87495e-13 5.85647e-13 -4.40566e-13 4.35057e-13 1.33716e-14 -6.23328e-13 -1.84592e-13 9.3286e-13 -1.24188e-12 1.34695e-12 -7.43377e-13 1.52427e-13 1.39963e-14 -4.13816e-14 1.58997e-12 -2.43457e-12 7.02152e-13 -3.24865e-13 -1.21173e-12 1.96174e-12 -2.29728e-12 1.0653e-12 8.3913e-13 6.17005e-13 8.2268e-15 -8.51041e-13 7.73065e-13 1.0031e-13 -2.10185e-13 -4.04844e-13 -1.88948e-12 1.13788e-12 1.10324e-12 -2.33427e-12 1.54607e-12 -9.14793e-13 2.63908e-12 -1.05277e-12 -5.38527e-13 8.31308e-13 -1.29461e-12 1.90611e-12 -2.48917e-12 5.03701e-13 1.21478e-12 -2.25179e-12 4.05629e-13 2.02447e-12 -9.31788e-13 -2.99572e-13 7.74649e-13 -1.42993e-12 3.55833e-12 9.1295e-11 5.52843e-09 2.56607e-07 8.94765e-06 0.000223029 0.00368979 0.0361672 0.183815 0.491695 0.723186 0.90678 0.887996 0.741467 0.512963 0.286533 0.11986 0.0339571 0.00680999 0.00111749 0.000162299 2.13505e-05 2.56499e-06 2.82832e-07 2.8741e-08 2.70064e-09 2.34105e-10 1.83739e-11 4.09136e-12 -1.56928e-12 2.79757e-12 -1.67215e-12 -5.46054e-13 2.24561e-12 -2.54672e-12 2.33432e-12 -1.40542e-12 -7.1386e-13 2.25123e-12 -2.52774e-12 2.40832e-12 -1.29511e-12 -6.34976e-13 2.08216e-12 -2.37035e-12 2.13615e-12 -1.64482e-12 -1.03362e-12 6.92824e-13 -2.24956e-12 1.84464e-12 1.05463e-13 -2.76044e-12 3.41495e-12 1.18825e-12 -1.93968e-12 2.74092e-12 -3.68875e-12 2.90677e-12 3.0864e-13 -2.10106e-12 2.57572e-12 -3.49259e-12 3.25096e-12 -2.44844e-12 2.35864e-12 -2.14023e-12 -2.48917e-13 1.26337e-12 -4.31936e-13 1.35406e-12 -1.87156e-12 6.42852e-14 9.60604e-13 -1.31424e-12 -1.15086e-13 -6.13346e-13 2.7971e-13 2.27791e-12 -2.27753e-12 2.05102e-12 2.623e-15 -2.06689e-12 2.91143e-12 -2.74393e-12 1.92728e-12 -1.86642e-13 -1.90114e-12 2.7269e-12 -2.5807e-12 1.59617e-12 5.67216e-13 -2.4237e-12 2.93531e-12 -2.70752e-12 2.03009e-12 -1.65293e-13 -2.70714e-12 1.70727e-12 -4.00772e-12 1.29408e-12 3.56115e-12 -7.50781e-12 5.05278e-12 3.60068e-13 1.09268e-12 1.9567e-12 -4.8165e-12 4.3971e-12 -1.21325e-12 0 0 -2.38434e-15 -4.58677e-14 5.04168e-14 -1.35464e-13 -6.55959e-15 4.05409e-14 1.43965e-14 -1.24688e-13 -1.34537e-13 1.46308e-13 -1.44651e-13 1.93796e-13 -4.22404e-13 3.11974e-13 -1.37728e-13 -3.07049e-13 3.94994e-13 -3.62021e-13 2.51616e-13 1.01703e-13 -6.86131e-14 -1.4169e-13 8.73361e-14 2.01495e-13 -9.1891e-14 -5.78279e-13 -3.58174e-14 2.39346e-13 9.33198e-14 -2.55564e-13 3.97841e-13 -3.69572e-13 -1.34174e-13 4.18195e-13 -1.74947e-13 5.24154e-14 -7.88752e-13 7.85346e-13 -3.76073e-13 3.59389e-13 -9.81245e-14 -4.01754e-13 1.81818e-13 1.9723e-13 -5.96483e-13 5.63173e-13 -5.54569e-13 6.00258e-13 9.75943e-15 1.19643e-13 9.52855e-14 -8.78213e-13 8.70375e-13 -1.18021e-12 -5.11376e-13 8.42489e-13 -4.75375e-13 4.29049e-13 -7.09143e-13 4.66933e-13 6.34287e-13 2.01406e-13 2.67412e-13 -4.87096e-13 -4.25101e-14 1.38857e-13 -7.38309e-13 -1.74826e-14 -4.10974e-13 -2.10099e-13 6.34777e-13 -6.71306e-13 1.26827e-12 -7.39505e-13 8.91382e-13 7.46628e-14 -6.46876e-13 6.34629e-13 -1.38647e-12 1.11696e-12 -1.03504e-12 -8.40224e-13 1.41343e-12 -3.65401e-14 -1.27047e-12 9.8785e-13 7.20025e-13 -3.65438e-13 7.53515e-13 -1.93928e-13 9.37674e-11 5.52856e-09 2.56607e-07 8.94765e-06 0.000223029 0.00368979 0.0361672 0.183815 0.491695 0.723186 0.90678 0.887996 0.741467 0.512963 0.286533 0.11986 0.0339571 0.00680999 0.00111749 0.000162299 2.13505e-05 2.56499e-06 2.82832e-07 2.87386e-08 2.70102e-09 2.35613e-10 1.9635e-11 5.71296e-13 1.84948e-12 -1.39032e-12 1.59684e-12 1.75934e-13 -1.43481e-12 1.15742e-12 -1.41305e-12 1.42181e-12 5.58494e-13 -1.83582e-12 1.39044e-12 -1.49469e-12 1.53556e-12 2.42433e-13 -1.4666e-12 1.27373e-12 -1.55473e-12 1.2387e-12 -2.88172e-13 -2.38695e-12 4.72197e-13 -7.08324e-14 -8.53548e-13 2.71e-12 -1.1016e-12 -2.20455e-13 1.61953e-12 -1.29015e-12 2.64602e-12 -1.89345e-12 -6.49731e-13 1.43678e-12 -1.16569e-12 2.46505e-12 -2.59751e-12 1.12871e-12 -1.35671e-12 1.28623e-12 1.22472e-13 -1.2463e-12 1.00513e-13 -6.80512e-16 2.19047e-12 -7.78189e-13 -1.88982e-12 -7.20969e-13 2.58425e-14 1.9783e-12 -4.54548e-13 -8.93136e-13 2.10488e-12 -1.8202e-12 -2.76346e-13 1.93105e-12 -1.58616e-12 1.85348e-12 -1.87572e-12 2.27518e-14 1.49945e-12 -1.22609e-12 1.61813e-12 -1.58475e-12 -7.5807e-13 2.16188e-12 -1.71366e-12 2.00825e-12 -2.00506e-12 -3.39073e-13 1.21824e-12 -2.45795e-12 1.0426e-12 -2.37529e-12 2.47074e-13 3.44781e-12 -3.27955e-12 4.34394e-13 7.80161e-13 3.95614e-13 4.32599e-12 -3.83914e-12 -3.01446e-13 0 0 4.19407e-15 -1.89457e-14 -4.61633e-15 -3.59106e-14 -1.20049e-13 -1.01955e-13 9.16287e-14 -7.35494e-14 -7.28847e-15 -6.9468e-14 -2.42937e-14 -5.45272e-14 -1.38465e-13 -1.76541e-14 -1.42257e-13 2.52599e-15 2.06966e-13 -6.63117e-14 -9.20343e-14 7.28279e-14 -5.20396e-14 2.0723e-13 -8.47072e-14 -1.74478e-13 -6.04203e-14 -3.1149e-14 3.05809e-14 -2.5778e-14 -2.01649e-13 -3.25926e-14 1.49117e-13 5.05994e-14 -8.33351e-14 -2.48814e-13 2.62952e-14 8.07498e-14 4.86191e-14 -6.61022e-14 -1.78291e-13 4.6131e-14 8.75787e-14 -1.25834e-13 -3.08886e-13 1.59141e-13 1.235e-13 2.51166e-13 -2.79881e-13 -2.13254e-13 -2.92001e-13 -1.0261e-13 4.47889e-13 2.25465e-13 -2.48695e-13 -1.33963e-12 -3.55339e-13 8.80264e-13 1.15931e-13 -2.83062e-14 -5.47059e-13 4.93098e-13 5.37567e-13 2.86667e-15 2.31585e-13 -1.66119e-13 8.48463e-14 1.39167e-13 -7.14675e-13 -3.07984e-13 -7.50936e-14 -1.3909e-13 -1.57941e-13 -7.79952e-13 9.56413e-13 6.10462e-13 -1.92421e-13 -3.90555e-13 -3.16068e-13 7.62705e-13 -4.4498e-13 -6.99034e-13 3.33963e-13 -1.73823e-13 2.21854e-13 -1.04162e-12 1.02667e-12 6.43046e-13 -4.11553e-13 3.7239e-13 2.89394e-13 2.25877e-12 9.26251e-11 5.52683e-09 2.56608e-07 8.94765e-06 0.000223029 0.00368979 0.0361672 0.183815 0.491695 0.723186 0.90678 0.887996 0.741467 0.512963 0.286533 0.11986 0.0339571 0.00680999 0.00111749 0.000162299 2.13505e-05 2.56499e-06 2.82832e-07 2.87404e-08 2.69984e-09 2.34668e-10 1.97304e-11 1.89766e-12 3.66032e-14 2.96707e-13 -8.41841e-13 1.34083e-12 4.38502e-14 -5.80561e-13 2.2919e-14 -1.02024e-12 1.49944e-12 -3.33621e-13 -2.52387e-13 4.1386e-14 -9.26167e-13 1.42376e-12 7.92665e-14 -4.37246e-13 1.19558e-13 -1.01615e-12 7.83733e-13 -6.55487e-13 -1.38881e-12 5.5358e-13 9.00109e-14 1.57474e-13 3.89931e-13 5.68976e-13 -7.21382e-13 3.65867e-13 7.35913e-13 -3.533e-13 5.57045e-13 -1.21016e-12 5.42819e-13 9.49365e-13 -7.90619e-13 -1.75283e-13 4.77131e-13 -1.00389e-12 1.135e-12 3.44958e-14 7.81234e-13 -5.21075e-13 -2.01237e-12 9.12806e-13 2.88914e-13 1.90264e-13 -6.58794e-13 -9.96817e-13 3.13993e-13 1.54321e-13 2.3518e-13 4.74911e-13 2.46287e-13 1.32095e-13 -6.52259e-13 -3.70466e-13 1.24881e-12 -1.47069e-13 3.36644e-13 -9.99011e-13 -1.33304e-14 8.26661e-13 4.20648e-14 -6.95913e-14 -8.21545e-13 -1.60803e-13 8.25823e-13 -1.64362e-13 -2.89316e-13 -1.8453e-12 -1.06607e-12 1.06956e-12 6.02963e-13 -1.44381e-12 -9.61655e-13 1.84117e-12 7.35902e-13 1.852e-14 -9.08008e-14 -1.66832e-13 7.89414e-13 0 0 -1.86686e-14 4.23993e-14 -9.49963e-14 -1.62449e-14 -5.87291e-14 -4.23295e-14 2.41461e-14 -1.5078e-13 -1.04086e-13 -1.74268e-13 1.75048e-13 -2.26275e-13 1.86701e-13 -3.53483e-13 -7.02719e-14 3.10659e-13 -2.46765e-13 1.68075e-13 -1.19251e-13 7.78102e-14 -1.43353e-13 4.86604e-14 2.81088e-14 -1.58201e-13 -1.69047e-13 4.27473e-16 -8.30478e-14 8.82155e-14 -1.66121e-13 1.31759e-13 -7.32598e-14 1.43114e-13 -8.03176e-14 -3.55865e-13 3.82831e-14 -3.64744e-13 6.40947e-13 -6.89043e-13 3.01677e-13 1.33159e-14 3.38283e-13 -1.72504e-13 -2.79516e-13 -2.93409e-13 3.18591e-13 -8.48435e-13 8.01992e-13 -5.123e-13 -4.47232e-14 -2.92877e-13 -2.86035e-13 1.24169e-12 -9.05848e-13 -8.59668e-13 -4.16388e-13 6.68671e-13 7.77145e-13 -6.64493e-13 -3.44566e-13 4.53774e-13 5.87696e-13 4.11735e-13 6.05775e-13 -4.06243e-13 -3.14901e-13 -1.81655e-13 -2.92082e-13 -4.83899e-13 -8.85276e-13 8.16077e-13 -7.79024e-13 -2.4885e-13 3.98678e-13 9.63601e-13 -1.19731e-12 5.64821e-13 -6.13984e-14 3.20163e-13 4.23205e-13 -2.64958e-12 -2.75459e-13 1.5342e-12 -6.88835e-13 -2.54542e-13 1.54306e-12 -5.46063e-13 1.77569e-14 1.12444e-12 -8.67657e-13 3.63081e-12 9.10671e-11 5.52804e-09 2.56607e-07 8.94765e-06 0.000223029 0.00368979 0.0361672 0.183815 0.491695 0.723186 0.90678 0.887996 0.741467 0.512963 0.286533 0.11986 0.0339571 0.00680999 0.00111749 0.000162299 2.13505e-05 2.56499e-06 2.82831e-07 2.87407e-08 2.69998e-09 2.34589e-10 1.95679e-11 1.97213e-12 -1.06835e-12 1.77932e-12 -1.7396e-12 1.15142e-12 3.63022e-13 -1.37893e-12 1.62544e-12 -1.7744e-12 1.16385e-12 2.13158e-13 -1.26172e-12 1.74861e-12 -1.80275e-12 1.50847e-12 4.39895e-13 -1.75196e-12 1.61417e-12 -1.94599e-12 7.6242e-13 -2.32428e-13 -1.60261e-12 8.76663e-14 3.70997e-13 -6.77696e-14 1.50333e-13 -3.18102e-14 -1.38907e-12 2.5333e-12 -2.62324e-13 -5.39901e-13 -6.28145e-13 -7.83161e-13 2.49303e-12 -8.93836e-14 2.27133e-13 -1.89756e-12 2.53465e-12 -1.84951e-12 1.01743e-12 -6.18721e-13 -7.28556e-13 1.88532e-12 -1.43899e-12 8.92437e-13 -1.81915e-12 -3.44226e-13 7.16073e-13 -1.25183e-12 1.12083e-12 9.49243e-13 -5.93121e-13 7.42908e-13 -1.32642e-12 -5.94001e-13 2.40506e-12 -1.37028e-12 9.76158e-13 -1.13438e-12 -3.76572e-13 1.91775e-12 -1.07505e-12 4.44428e-13 -1.20264e-12 -7.47836e-13 2.38249e-12 -1.54324e-12 6.55242e-13 -1.34118e-12 -4.84308e-13 6.25195e-13 -2.95004e-12 -5.85385e-13 2.35245e-12 -1.2422e-12 2.42865e-13 -8.90252e-13 -3.17077e-13 2.53102e-12 4.51613e-13 -2.16825e-13 -2.49413e-12 0 0 -2.08579e-14 -1.88922e-15 2.05888e-14 -1.6157e-13 -3.80016e-14 1.5148e-14 -8.30018e-14 -1.55469e-13 -1.83884e-13 6.19487e-14 -2.41511e-13 1.9691e-13 -2.91914e-13 1.07862e-13 -1.00613e-13 5.57619e-14 3.44056e-13 -2.46736e-13 5.94599e-14 -4.3199e-14 -2.17667e-13 -4.45668e-13 1.46645e-13 1.43462e-13 -1.93638e-13 -4.72271e-13 1.13321e-13 1.62997e-13 1.75585e-13 -2.16199e-13 2.60871e-13 -2.85128e-13 -1.35377e-13 2.23608e-13 -4.55106e-14 3.00273e-13 -1.81203e-13 3.47595e-13 -6.0619e-13 1.46644e-13 -9.24614e-14 -4.05208e-13 9.56554e-14 -6.35121e-14 -4.07558e-13 1.01169e-13 -2.87917e-13 1.79803e-13 1.52826e-14 7.91023e-15 1.2191e-13 -1.57696e-13 4.22641e-13 -1.2056e-12 -5.77081e-13 7.29192e-13 -8.23852e-14 3.98913e-13 -4.70955e-13 5.03426e-13 5.49744e-13 5.1117e-13 3.52779e-13 -6.27765e-13 -3.45288e-13 -5.02437e-14 -4.55582e-13 -1.52408e-13 -9.59961e-13 1.85241e-13 4.71663e-13 -3.19328e-13 1.92615e-12 -5.46344e-13 -1.04169e-13 -5.26793e-13 -9.03749e-13 1.38196e-13 -7.40946e-13 9.1316e-14 -2.95772e-12 3.86268e-13 1.54017e-12 3.20827e-13 -1.82074e-12 2.45897e-13 1.43921e-12 -4.43903e-13 1.35283e-12 3.33653e-13 9.26567e-11 5.53006e-09 2.56606e-07 8.94765e-06 0.000223029 0.00368979 0.0361672 0.183815 0.491695 0.723186 0.90678 0.887996 0.741467 0.512963 0.286533 0.11986 0.0339571 0.00680999 0.00111749 0.000162299 2.13505e-05 2.56499e-06 2.82832e-07 2.87386e-08 2.70115e-09 2.35802e-10 1.89705e-11 8.95174e-13 1.78832e-12 -1.4357e-12 1.72587e-12 -9.90667e-13 -1.01154e-12 1.73562e-12 -1.412e-12 1.45506e-12 -3.37211e-13 -1.08714e-12 1.42345e-12 -1.25977e-12 1.39044e-12 -4.37733e-13 -9.16296e-13 1.39831e-12 -1.48489e-12 1.09788e-12 -1.02141e-12 -2.24485e-12 1.30476e-12 -1.1805e-12 -1.26053e-12 3.24083e-12 -1.6369e-12 -1.30652e-12 2.07801e-12 -1.12805e-12 3.69274e-12 -2.00878e-12 -6.79391e-13 1.79626e-12 -2.44933e-12 1.94708e-12 -2.60273e-12 1.46319e-12 -8.09302e-13 2.49525e-12 -3.47039e-13 -1.56846e-12 -1.32337e-12 6.83224e-13 3.51734e-12 -3.07406e-12 -2.63218e-12 -6.14461e-13 6.27521e-13 1.79534e-12 -3.36433e-12 3.99026e-13 4.36768e-12 -1.97908e-12 -1.62512e-12 1.33762e-12 6.85011e-13 3.23373e-12 -4.08425e-12 -3.73437e-13 8.30549e-13 3.19703e-13 3.18802e-12 -3.25996e-12 -2.32224e-12 1.65449e-12 6.5898e-13 3.14505e-12 -3.95798e-12 -1.05982e-12 1.17642e-12 -9.81038e-13 5.33504e-13 -6.04317e-12 1.26187e-12 6.65258e-12 -3.42431e-12 -1.52666e-12 -8.88146e-14 2.0074e-12 6.43326e-12 -5.34297e-12 -2.72532e-12 0 0 4.94188e-15 2.51658e-14 -6.78322e-14 9.66802e-15 -1.625e-13 -2.51863e-13 -1.56317e-13 1.63966e-13 3.02872e-14 -1.04342e-13 -2.72919e-13 -2.48752e-13 2.17011e-13 -1.43447e-13 -9.83808e-14 4.08561e-13 3.72493e-13 1.59352e-13 -6.60231e-13 -2.79571e-13 2.14466e-15 -9.89327e-14 -9.34218e-14 -5.75594e-13 -1.8674e-13 4.44348e-13 2.16009e-13 -2.97858e-13 -2.05332e-13 2.97562e-13 -2.48597e-13 3.76309e-13 9.639e-15 -7.65214e-13 6.77533e-13 7.84268e-13 8.91489e-13 -5.17114e-13 -8.34521e-13 -8.00425e-13 -5.5025e-14 9.9801e-14 -8.54393e-13 1.99023e-13 9.20528e-13 3.33145e-14 -2.83488e-13 -9.86194e-13 -3.31082e-13 1.71067e-13 1.47972e-12 9.98549e-13 -2.01573e-12 -3.08541e-13 -3.34176e-13 -1.01513e-12 1.42529e-12 -1.08519e-12 1.13669e-12 9.90761e-13 3.47659e-13 -1.89982e-13 -1.42869e-12 9.71975e-13 2.94248e-13 5.32585e-14 -6.84577e-13 -1.8075e-12 1.66027e-12 -1.64151e-14 -1.41833e-12 1.18783e-12 1.51645e-12 2.31912e-12 -1.03409e-12 -3.65219e-12 -1.91776e-13 -1.40239e-12 1.46079e-12 -6.39376e-13 -2.12282e-12 2.51725e-13 -1.76946e-13 -4.53784e-13 -1.08837e-13 -3.74758e-14 2.80168e-13 -8.86389e-13 2.0828e-12 1.86941e-12 9.21896e-11 5.529e-09 2.56605e-07 8.94765e-06 0.000223029 0.00368979 0.0361672 0.183815 0.491695 0.723186 0.90678 0.887996 0.741467 0.512963 0.286533 0.11986 0.0339571 0.00680999 0.00111749 0.000162299 2.13505e-05 2.56499e-06 2.82833e-07 2.87405e-08 2.70062e-09 2.34641e-10 1.73699e-11 4.59018e-12 5.18303e-13 -2.58414e-13 3.81445e-13 -2.50044e-12 2.4538e-12 2.0639e-13 -8.68614e-13 1.69386e-13 -1.83408e-12 2.65502e-12 -4.4307e-13 -5.36299e-13 1.67805e-13 -2.16473e-12 2.46152e-12 5.08238e-13 -7.13401e-13 -6.67678e-14 -2.45746e-12 1.30907e-13 -1.56839e-13 5.57135e-13 -1.27048e-12 -1.24828e-12 2.82355e-12 2.17684e-13 3.12644e-13 -1.26976e-12 4.0116e-13 3.04929e-12 2.6197e-12 -2.23609e-12 -3.89198e-12 -2.45102e-12 1.20502e-12 1.66508e-12 -6.61581e-13 1.96905e-12 -9.52799e-13 1.92547e-12 -2.6013e-13 -2.09092e-12 -3.64581e-13 -4.48672e-12 3.69204e-12 -3.22486e-14 -1.66147e-12 -4.69253e-13 -7.15354e-12 3.27239e-12 3.90467e-12 1.19725e-12 4.50507e-13 -1.80155e-12 1.33913e-12 2.0162e-12 -1.94448e-12 9.95613e-13 -1.81252e-12 -1.50306e-14 2.68251e-12 -9.89778e-13 -7.17244e-14 -2.082e-12 1.27252e-12 2.33095e-12 -1.53458e-12 7.46837e-13 -2.40078e-12 -2.79895e-13 -1.25796e-12 -2.73178e-12 2.09177e-12 -1.50151e-12 2.35422e-12 1.9008e-12 1.46069e-12 1.55266e-13 -1.6868e-12 1.48943e-12 5.06096e-13 0
				</DataArray>
				<DataArray Name="VitesseY" type="Float32" format="ascii">