<?xml version="1.0"?>
<VTKFile type="PolyData">
	<PolyData>
		<Piece NumberOfPoints="1206" NumberOfPolys="1000">
			<Points>
				<DataArray type="Float32" NumberOfComponents="3" format="ascii">
 0 0 0 0.005 0 0 0.01 0 0 0.015 0 0 0.02 0 0 0.025 0 0 0.03 0 0 0.035 0 0 0.04 0 0 0.045 0 0 0.05 0 0 0.055 0 0 0.06 0 0 0.065 0 0 0.07 0 0 0.075 0 0 0.08 0 0 0.085 0 0 0.09 0 0 0.095 0 0 0.1 0 0 0.105 0 0 0.11 0 0 0.115 0 0 0.12 0 0 0.125 0 0 0.13 0 0 0.135 0 0 0.14 0 0 0.145 0 0 0.15 0 0 0.155 0 0 0.16 0 0 0.165 0 0 0.17 0 0 0.175 0 0 0.18 0 0 0.185 0 0 0.19 0 0 0.195 0 0 0.2 0 0 0.205 0 0 0.21 0 0 0.215 0 0 0.22 0 0 0.225 0 0 0.23 0 0 0.235 0 0 0.24 0 0 0.245 0 0 0.25 0 0 0.255 0 0 0.26 0 0 0.265 0 0 0.27 0 0 0.275 0 0 0.28 0 0 0.285 0 0 0.29 0 0 0.295 0 0 0.3 0 0 0.305 0 0 0.31 0 0 0.315 0 0 0.32 0 0 0.325 0 0 0.33 0 0 0.335 0 0 0.34 0 0 0.345 0 0 0.35 0 0 0.355 0 0 0.36 0 0 0.365 0 0 0.37 0 0 0.375 0 0 0.38 0 0 0.385 0 0 0.39 0 0 0.395 0 0 0.4 0 0 0.405 0 0 0.41 0 0 0.415 0 0 0.42 0 0 0.425 0 0 0.43 0 0 0.435 0 0 0.44 0 0 0.445 0 0 0.45 0 0 0.455 0 0 0.46 0 0 0.465 0 0 0.47 0 0 0.475 0 0 0.48 0 0 0.485 0 0 0.49 0 0 0.495 0 0 0.5 0 0 0.505 0 0 0.51 0 0 0.515 0 0 0.52 0 0 0.525 0 0 0.53 0 0 0.535 0 0 0.54 0 0 0.545 0 0 0.55 0 0 0.555 0 0 0.56 0 0 0.565 0 0 0.57 0 0 0.575 0 0 0.58 0 0 0.585 0 0 0.59 0 0 0.595 0 0 0.6 0 0 0.605 0 0 0.61 0 0 0.615 0 0 0.62 0 0 0.625 0 0 0.63 0 0 0.635 0 0 0.64 0 0 0.645 0 0 0.65 0 0 0.655 0 0 0.66 0 0 0.665 0 0 0.67 0 0 0.675 0 0 0.68 0 0 0.685 0 0 0.69 0 0 0.695 0 0 0.7 0 0 0.705 0 0 0.71 0 0 0.715 0 0 0.72 0 0 0.725 0 0 0.73 0 0 0.735 0 0 0.74 0 0 0.745 0 0 0.75 0 0 0.755 0 0 0.76 0 0 0.765 0 0 0.77 0 0 0.775 0 0 0.78 0 0 0.785 0 0 0.79 0 0 0.795 0 0 0.8 0 0 0.805 0 0 0.81 0 0 0.815 0 0 0.82 0 0 0.825 0 0 0.83 0 0 0.835 0 0 0.84 0 0 0.845 0 0 0.85 0 0 0.855 0 0 0.86 0 0 0.865 0 0 0.87 0 0 0.875 0 0 0.88 0 0 0.885 0 0 0.89 0 0 0.895 0 0 0.9 0 0 0.905 0 0 0.91 0 0 0.915 0 0 0.92 0 0 0.925 0 0 0.93 0 0 0.935 0 0 0.94 0 0 0.945 0 0 0.95 0 0 0.955 0 0 0.96 0 0 0.965 0 0 0.97 0 0 0.975 0 0 0.98 0 0 0.985 0 0 0.99 0 0 0.995 0 0 1 0 0 0 0.02 0 0.005 0.02 0 0.01 0.02 0 0.015 0.02 0 0.02 0.02 0 0.025 0.02 0 0.03 0.02 0 0.035 0.02 0 0.04 0.02 0 0.045 0.02 0 0.05 0.02 0 0.055 0.02 0 0.06 0.02 0 0.065 0.02 0 0.07 0.02 0 0.075 0.02 0 0.08 0.02 0 0.085 0.02 0 0.09 0.02 0 0.095 0.02 0 0.1 0.02 0 0.105 0.02 0 0.11 0.02 0 0.115 0.02 0 0.12 0.02 0 0.125 0.02 0 0.13 0.02 0 0.135 0.02 0 0.14 0.02 0 0.145 0.02 0 0.15 0.02 0 0.155 0.02 0 0.16 0.02 0 0.165 0.02 0 0.17 0.02 0 0.175 0.02 0 0.18 0.02 0 0.185 0.02 0 0.19 0.02 0 0.195 0.02 0 0.2 0.02 0 0.205 0.02 0 0.21 0.02 0 0.215 0.02 0 0.22 0.02 0 0.225 0.02 0 0.23 0.02 0 0.235 0.02 0 0.24 0.02 0 0.245 0.02 0 0.25 0.02 0 0.255 0.02 0 0.26 0.02 0 0.265 0.02 0 0.27 0.02 0 0.275 0.02 0 0.28 0.02 0 0.285 0.02 0 0.29 0.02 0 0.295 0.02 0 0.3 0.02 0 0.305 0.02 0 0.31 0.02 0 0.315 0.02 0 0.32 0.02 0 0.325 0.02 0 0.33 0.02 0 0.335 0.02 0 0.34 0.02 0 0.345 0.02 0 0.35 0.02 0 0.355 0.02 0 0.36 0.02 0 0.365 0.02 0 0.37 0.02 0 0.375 0.02 0 0.38 0.02 0 0.385 0.02 0 0.39 0.02 0 0.395 0.02 0 0.4 0.02 0 0.405 0.02 0 0.41 0.02 0 0.415 0.02 0 0.42 0.02 0 0.425 0.02 0 0.43 0.02 0 0.435 0.02 0 0.44 0.02 0 0.445 0.02 0 0.45 0.02 0 0.455 0.02 0 0.46 0.02 0 0.465 0.02 0 0.47 0.02 0 0.475 0.02 0 0.48 0.02 0 0.485 0.02 0 0.49 0.02 0 0.495 0.02 0 0.5 0.02 0 0.505 0.02 0 0.51 0.02 0 0.515 0.02 0 0.52 0.02 0 0.525 0.02 0 0.53 0.02 0 0.535 0.02 0 0.54 0.02 0 0.545 0.02 0 0.55 0.02 0 0.555 0.02 0 0.56 0.02 0 0.565 0.02 0 0.57 0.02 0 0.575 0.02 0 0.58 0.02 0 0.585 0.02 0 0.59 0.02 0 0.595 0.02 0 0.6 0.02 0 0.605 0.02 0 0.61 0.02 0 0.615 0.02 0 0.62 0.02 0 0.625 0.02 0 0.63 0.02 0 0.635 0.02 0 0.64 0.02 0 0.645 0.02 0 0.65 0.02 0 0.655 0.02 0 0.66 0.02 0 0.665 0.02 0 0.67 0.02 0 0.675 0.02 0 0.68 0.02 0 0.685 0.02 0 0.69 0.02 0 0.695 0.02 0 0.7 0.02 0 0.705 0.02 0 0.71 0.02 0 0.715 0.02 0 0.72 0.02 0 0.725 0.02 0 0.73 0.02 0 0.735 0.02 0 0.74 0.02 0 0.745 0.02 0 0.75 0.02 0 0.755 0.02 0 0.76 0.02 0 0.765 0.02 0 0.77 0.02 0 0.775 0.02 0 0.78 0.02 0 0.785 0.02 0 0.79 0.02 0 0.795 0.02 0 0.8 0.02 0 0.805 0.02 0 0.81 0.02 0 0.815 0.02 0 0.82 0.02 0 0.825 0.02 0 0.83 0.02 0 0.835 0.02 0 0.84 0.02 0 0.845 0.02 0 0.85 0.02 0 0.855 0.02 0 0.86 0.02 0 0.865 0.02 0 0.87 0.02 0 0.875 0.02 0 0.88 0.02 0 0.885 0.02 0 0.89 0.02 0 0.895 0.02 0 0.9 0.02 0 0.905 0.02 0 0.91 0.02 0 0.915 0.02 0 0.92 0.02 0 0.925 0.02 0 0.93 0.02 0 0.935 0.02 0 0.94 0.02 0 0.945 0.02 0 0.95 0.02 0 0.955 0.02 0 0.96 0.02 0 0.965 0.02 0 0.97 0.02 0 0.975 0.02 0 0.98 0.02 0 0.985 0.02 0 0.99 0.02 0 0.995 0.02 0 1 0.02 0 0 0.04 0 0.005 0.04 0 0.01 0.04 0 0.015 0.04 0 0.02 0.04 0 0.025 0.04 0 0.03 0.04 0 0.035 0.04 0 0.04 0.04 0 0.045 0.04 0 0.05 0.04 0 0.055 0.04 0 0.06 0.04 0 0.065 0.04 0 0.07 0.04 0 0.075 0.04 0 0.08 0.04 0 0.085 0.04 0 0.09 0.04 0 0.095 0.04 0 0.1 0.04 0 0.105 0.04 0 0.11 0.04 0 0.115 0.04 0 0.12 0.04 0 0.125 0.04 0 0.13 0.04 0 0.135 0.04 0 0.14 0.04 0 0.145 0.04 0 0.15 0.04 0 0.155 0.04 0 0.16 0.04 0 0.165 0.04 0 0.17 0.04 0 0.175 0.04 0 0.18 0.04 0 0.185 0.04 0 0.19 0.04 0 0.195 0.04 0 0.2 0.04 0 0.205 0.04 0 0.21 0.04 0 0.215 0.04 0 0.22 0.04 0 0.225 0.04 0 0.23 0.04 0 0.235 0.04 0 0.24 0.04 0 0.245 0.04 0 0.25 0.04 0 0.255 0.04 0 0.26 0.04 0 0.265 0.04 0 0.27 0.04 0 0.275 0.04 0 0.28 0.04 0 0.285 0.04 0 0.29 0.04 0 0.295 0.04 0 0.3 0.04 0 0.305 0.04 0 0.31 0.04 0 0.315 0.04 0 0.32 0.04 0 0.325 0.04 0 0.33 0.04 0 0.335 0.04 0 0.34 0.04 0 0.345 0.04 0 0.35 0.04 0 0.355 0.04 0 0.36 0.04 0 0.365 0.04 0 0.37 0.04 0 0.375 0.04 0 0.38 0.04 0 0.385 0.04 0 0.39 0.04 0 0.395 0.04 0 0.4 0.04 0 0.405 0.04 0 0.41 0.04 0 0.415 0.04 0 0.42 0.04 0 0.425 0.04 0 0.43 0.04 0 0.435 0.04 0 0.44 0.04 0 0.445 0.04 0 0.45 0.04 0 0.455 0.04 0 0.46 0.04 0 0.465 0.04 0 0.47 0.04 0 0.475 0.04 0 0.48 0.04 0 0.485 0.04 0 0.49 0.04 0 0.495 0.04 0 0.5 0.04 0 0.505 0.04 0 0.51 0.04 0 0.515 0.04 0 0.52 0.04 0 0.525 0.04 0 0.53 0.04 0 0.535 0.04 0 0.54 0.04 0 0.545 0.04 0 0.55 0.04 0 0.555 0.04 0 0.56 0.04 0 0.565 0.04 0 0.57 0.04 0 0.575 0.04 0 0.58 0.04 0 0.585 0.04 0 0.59 0.04 0 0.595 0.04 0 0.6 0.04 0 0.605 0.04 0 0.61 0.04 0 0.615 0.04 0 0.62 0.04 0 0.625 0.04 0 0.63 0.04 0 0.635 0.04 0 0.64 0.04 0 0.645 0.04 0 0.65 0.04 0 0.655 0.04 0 0.66 0.04 0 0.665 0.04 0 0.67 0.04 0 0.675 0.04 0 0.68 0.04 0 0.685 0.04 0 0.69 0.04 0 0.695 0.04 0 0.7 0.04 0 0.705 0.04 0 0.71 0.04 0 0.715 0.04 0 0.72 0.04 0 0.725 0.04 0 0.73 0.04 0 0.735 0.04 0 0.74 0.04 0 0.745 0.04 0 0.75 0.04 0 0.755 0.04 0 0.76 0.04 0 0.765 0.04 0 0.77 0.04 0 0.775 0.04 0 0.78 0.04 0 0.785 0.04 0 0.79 0.04 0 0.795 0.04 0 0.8 0.04 0 0.805 0.04 0 0.81 0.04 0 0.815 0.04 0 0.82 0.04 0 0.825 0.04 0 0.83 0.04 0 0.835 0.04 0 0.84 0.04 0 0.845 0.04 0 0.85 0.04 0 0.855 0.04 0 0.86 0.04 0 0.865 0.04 0 0.87 0.04 0 0.875 0.04 0 0.88 0.04 0 0.885 0.04 0 0.89 0.04 0 0.895 0.04 0 0.9 0.04 0 0.905 0.04 0 0.91 0.04 0 0.915 0.04 0 0.92 0.04 0 0.925 0.04 0 0.93 0.04 0 0.935 0.04 0 0.94 0.04 0 0.945 0.04 0 0.95 0.04 0 0.955 0.04 0 0.96 0.04 0 0.965 0.04 0 0.97 0.04 0 0.975 0.04 0 0.98 0.04 0 0.985 0.04 0 0.99 0.04 0 0.995 0.04 0 1 0.04 0 0 0.06 0 0.005 0.06 0 0.01 0.06 0 0.015 0.06 0 0.02 0.06 0 0.025 0.06 0 0.03 0.06 0 0.035 0.06 0 0.04 0.06 0 0.045 0.06 0 0.05 0.06 0 0.055 0.06 0 0.06 0.06 0 0.065 0.06 0 0.07 0.06 0 0.075 0.06 0 0.08 0.06 0 0.085 0.06 0 0.09 0.06 0 0.095 0.06 0 0.1 0.06 0 0.105 0.06 0 0.11 0.06 0 0.115 0.06 0 0.12 0.06 0 0.125 0.06 0 0.13 0.06 0 0.135 0.06 0 0.14 0.06 0 0.145 0.06 0 0.15 0.06 0 0.155 0.06 0 0.16 0.06 0 0.165 0.06 0 0.17 0.06 0 0.175 0.06 0 0.18 0.06 0 0.185 0.06 0 0.19 0.06 0 0.195 0.06 0 0.2 0.06 0 0.205 0.06 0 0.21 0.06 0 0.215 0.06 0 0.22 0.06 0 0.225 0.06 0 0.23 0.06 0 0.235 0.06 0 0.24 0.06 0 0.245 0.06 0 0.25 0.06 0 0.255 0.06 0 0.26 0.06 0 0.265 0.06 0 0.27 0.06 0 0.275 0.06 0 0.28 0.06 0 0.285 0.06 0 0.29 0.06 0 0.295 0.06 0 0.3 0.06 0 0.305 0.06 0 0.31 0.06 0 0.315 0.06 0 0.32 0.06 0 0.325 0.06 0 0.33 0.06 0 0.335 0.06 0 0.34 0.06 0 0.345 0.06 0 0.35 0.06 0 0.355 0.06 0 0.36 0.06 0 0.365 0.06 0 0.37 0.06 0 0.375 0.06 0 0.38 0.06 0 0.385 0.06 0 0.39 0.06 0 0.395 0.06 0 0.4 0.06 0 0.405 0.06 0 0.41 0.06 0 0.415 0.06 0 0.42 0.06 0 0.425 0.06 0 0.43 0.06 0 0.435 0.06 0 0.44 0.06 0 0.445 0.06 0 0.45 0.06 0 0.455 0.06 0 0.46 0.06 0 0.465 0.06 0 0.47 0.06 0 0.475 0.06 0 0.48 0.06 0 0.485 0.06 0 0.49 0.06 0 0.495 0.06 0 0.5 0.06 0 0.505 0.06 0 0.51 0.06 0 0.515 0.06 0 0.52 0.06 0 0.525 0.06 0 0.53 0.06 0 0.535 0.06 0 0.54 0.06 0 0.545 0.06 0 0.55 0.06 0 0.555 0.06 0 0.56 0.06 0 0.565 0.06 0 0.57 0.06 0 0.575 0.06 0 0.58 0.06 0 0.585 0.06 0 0.59 0.06 0 0.595 0.06 0 0.6 0.06 0 0.605 0.06 0 0.61 0.06 0 0.615 0.06 0 0.62 0.06 0 0.625 0.06 0 0.63 0.06 0 0.635 0.06 0 0.64 0.06 0 0.645 0.06 0 0.65 0.06 0 0.655 0.06 0 0.66 0.06 0 0.665 0.06 0 0.67 0.06 0 0.675 0.06 0 0.68 0.06 0 0.685 0.06 0 0.69 0.06 0 0.695 0.06 0 0.7 0.06 0 0.705 0.06 0 0.71 0.06 0 0.715 0.06 0 0.72 0.06 0 0.725 0.06 0 0.73 0.06 0 0.735 0.06 0 0.74 0.06 0 0.745 0.06 0 0.75 0.06 0 0.755 0.06 0 0.76 0.06 0 0.765 0.06 0 0.77 0.06 0 0.775 0.06 0 0.78 0.06 0 0.785 0.06 0 0.79 0.06 0 0.795 0.06 0 0.8 0.06 0 0.805 0.06 0 0.81 0.06 0 0.815 0.06 0 0.82 0.06 0 0.825 0.06 0 0.83 0.06 0 0.835 0.06 0 0.84 0.06 0 0.845 0.06 0 0.85 0.06 0 0.855 0.06 0 0.86 0.06 0 0.865 0.06 0 0.87 0.06 0 0.875 0.06 0 0.88 0.06 0 0.885 0.06 0 0.89 0.06 0 0.895 0.06 0 0.9 0.06 0 0.905 0.06 0 0.91 0.06 0 0.915 0.06 0 0.92 0.06 0 0.925 0.06 0 0.93 0.06 0 0.935 0.06 0 0.94 0.06 0 0.945 0.06 0 0.95 0.06 0 0.955 0.06 0 0.96 0.06 0 0.965 0.06 0 0.97 0.06 0 0.975 0.06 0 0.98 0.06 0 0.985 0.06 0 0.99 0.06 0 0.995 0.06 0 1 0.06 0 0 0.08 0 0.005 0.08 0 0.01 0.08 0 0.015 0.08 0 0.02 0.08 0 0.025 0.08 0 0.03 0.08 0 0.035 0.08 0 0.04 0.08 0 0.045 0.08 0 0.05 0.08 0 0.055 0.08 0 0.06 0.08 0 0.065 0.08 0 0.07 0.08 0 0.075 0.08 0 0.08 0.08 0 0.085 0.08 0 0.09 0.08 0 0.095 0.08 0 0.1 0.08 0 0.105 0.08 0 0.11 0.08 0 0.115 0.08 0 0.12 0.08 0 0.125 0.08 0 0.13 0.08 0 0.135 0.08 0 0.14 0.08 0 0.145 0.08 0 0.15 0.08 0 0.155 0.08 0 0.16 0.08 0 0.165 0.08 0
[...]
			<PointData Scalars="VitesseX">
				<DataArray Name="VitesseX" type="Float32" format="ascii">
 0 -1.42635e-14 -3.91387e-15 -8.84917e-14 4.56926e-14 2.83468e-15 -4.50723e-14 -6.65004e-14 1.66172e-14 -9.03554e-14 -6.62114e-14 8.23299e-14 -1.81937e-13 1.42235e-13 -2.12378e-13 -5.36178e-14 3.30445e-14 -2.83747e-13 3.81532e-14 -9.40883e-14 -4.70515e-14 3.07548e-14 5.17973e-14 -2.0039e-14 -3.44142e-13 -1.41156e-14 2.45746e-13 -1.92397e-13 -8.84918e-14 -1.15181e-13 1.81375e-13 -2.99798e-13 1.62073e-13 6.36256e-14 -3.42963e-13 -6.06869e-14 -1.16723e-14 6.03725e-14 -4.57765e-13 1.98604e-13 -1.02248e-13 5.74861e-14 -6.93047e-14 -4.28409e-13 -3.01847e-13 -5.59047e-14 -6.23334e-13 5.49383e-13 -1.64783e-13 1.70043e-14 -1.91168e-13 1.72671e-13 8.1832e-13 -9.85123e-13 1.00541e-13 1.79478e-14 -6.12818e-13 3.61934e-13 -5.81415e-13 2.42627e-13 -2.67132e-14 3.3649e-13 5.51627e-15 -3.64468e-13 2.0823e-13 -9.75837e-14 -1.90278e-13 -2.76424e-14 -7.40642e-13 2.69449e-13 1.68956e-13 -7.63059e-13 3.92269e-13 -3.70431e-13 8.25165e-13 -1.4938e-13 4.89893e-12 7.85061e-11 9.99363e-10 1.15633e-08 1.19309e-07 1.08894e-06 8.70046e-06 6.00843e-05 0.000352911 0.00172701 0.00686424 0.0215813 0.0528949 0.102708 0.166255 0.238255 0.315844 0.397349 0.48151 0.556417 0.632508 0.697479 0.764622 0.81945 0.860411 0.900503 0.916968 0.923128 0.931249 0.934465 0.934083 0.932686 0.931689 0.931291 0.930802 0.929601 0.926835 0.920692 0.907396 0.880072 0.828996 0.74472 0.624004 0.47721 0.32597 0.194742 0.0992195 0.0428368 0.0161357 0.00556567 0.0018223 0.000576057 0.000176894 5.28605e-05 1.53764e-05 4.35351e-06 1.19955e-06 3.21623e-07 8.3908e-08 2.1302e-08 5.26198e-09 1.26518e-09 2.96351e-10 6.68637e-11 1.49739e-11 3.64008e-12 -5.46394e-13 1.20807e-12 2.61898e-13 -7.3565e-13 7.29774e-13 -1.53229e-12 7.822e-13 -3.67617e-13 -5.46969e-14 1.27293e-12 -1.11709e-12 8.80088e-13 -4.90799e-13 9.68129e-13 -7.64314e-13 -7.13313e-13 1.36247e-13 -5.22794e-13 6.28095e-13 -1.44198e-14 -4.08834e-13 1.12002e-13 -8.07892e-13 -3.07764e-13 7.43976e-13 -4.10347e-14 7.32666e-13 -9.03712e-13 2.34659e-13 3.84109e-13 -7.8702e-13 1.19327e-12 -4.38317e-13 2.60215e-13 -6.77423e-13 -3.83332e-13 1.15785e-12 -1.26709e-12 2.22901e-13 -8.43419e-13 -9.79851e-13 1.69687e-12 -5.96706e-13 2.97646e-13 -4.46382e-14 -8.64594e-13 1.12737e-12 -1.2228e-12 9.75194e-14 7.48955e-13 -2.13759e-12 1.23902e-12 -5.42204e-13 -2.48318e-13 5.98341e-13 -2.52418e-12 7.89272e-13 -8.92696e-13 0 0 -4.77002e-15 -2.96464e-14 3.40035e-14 -7.52125e-14 -3.03169e-14 1.85951e-14 -6.32939e-15 -6.9181e-14 6.86371e-15 1.96136e-14 -1.0038e-13 1.47375e-13 -2.13266e-13 3.13966e-14 -1.08308e-13 -2.32065e-13 5.67173e-15 -1.50167e-13 6.99377e-16 3.13156e-14 -4.13673e-14 -1.18387e-13 -1.36358e-13 1.51953e-13 -8.43535e-14 -2.45093e-13 9.35281e-14 -8.24669e-14 5.49421e-14 -2.6737e-13 1.71475e-13 -8.47057e-14 -1.09648e-13 7.43616e-14 -1.34622e-13 -9.66927e-14 -2.33873e-13 2.96222e-13 -3.41827e-13 -1.47656e-14 -1.46156e-13 -2.59625e-13 4.5704e-14 -1.30053e-13 -4.43978e-13 1.80669e-13 -4.26237e-13 2.38292e-13 1.04723e-13 2.7596e-13 -1.00523e-13 -5.34248e-13 8.50701e-13 -3.32278e-13 -3.41778e-13 1.23792e-13 -6.48245e-13 1.96727e-13 -1.04344e-13 4.35759e-14 -1.27795e-13 1.88712e-14 1.94659e-13 -4.1523e-13 -1.22436e-13 6.65026e-14 -2.66676e-13 1.55868e-13 -3.1708e-13 -2.73211e-13 6.11447e-13 -3.84426e-13 3.4059e-13 -4.15464e-13 8.044e-13 5.73222e-12 7.72312e-11 1.00013e-09 1.1562e-08 1.19312e-07 1.08894e-06 8.70046e-06 6.00843e-05 0.000352911 0.00172701 0.00686424 0.0215813 0.0528949 0.102708 0.166255 0.238255 0.315844 0.397349 0.48151 0.556417 0.632508 0.697479 0.764622 0.81945 0.860411 0.900503 0.916968 0.923128 0.931249 0.934465 0.934083 0.932686 0.931689 0.931291 0.930802 0.929601 0.926835 0.920692 0.907396 0.880072 0.828996 0.74472 0.624004 0.47721 0.32597 0.194742 0.0992195 0.0428368 0.0161357 0.00556567 0.0018223 0.000576057 0.000176894 5.28605e-05 1.53764e-05 4.35351e-06 1.19955e-06 3.21622e-07 8.3909e-08 2.13008e-08 5.2627e-09 1.26504e-09 2.95587e-10 6.76079e-11 1.46831e-11 2.91613e-12 1.51831e-12 -4.29744e-13 2.61393e-13 4.0983e-13 -1.17093e-12 7.29428e-13 -4.73352e-13 1.97594e-13 5.28697e-13 -8.7107e-13 1.15766e-12 -7.63636e-13 7.64889e-13 -8.05875e-13 1.62472e-13 -1.48444e-13 -5.1755e-13 1.02061e-13 -5.69436e-13 1.52124e-13 -2.61483e-13 -3.67493e-13 4.92274e-13 -9.19224e-14 -5.82373e-13 2.99786e-13 -2.77877e-13 7.25785e-13 9.56569e-14 -1.28609e-13 3.00193e-13 -7.68624e-13 7.62922e-13 -6.6215e-14 2.27662e-13 -3.0283e-13 -1.2071e-12 7.87592e-13 -8.06553e-13 -1.90201e-13 2.44594e-13 -8.75524e-13 8.86351e-13 9.9627e-15 -3.50029e-13 4.84318e-13 -1.20637e-12 7.02246e-13 -5.23989e-13 -8.93383e-13 1.50743e-12 -1.00104e-12 -1.68686e-13 -7.33462e-14 -1.36166e-12 9.2227e-13 -1.51204e-12 6.9908e-14 0 0 5.7047e-15 1.32068e-14 -2.30393e-14 3.02775e-14 -3.15906e-14 -4.82335e-14 1.27989e-15 -2.67734e-15 4.6845e-14 -1.09371e-14 1.28558e-14 -1.18456e-13 5.88322e-14 -1.85168e-13 -1.31861e-13 -2.53543e-14 -1.46116e-13 -6.63029e-14 -7.33825e-15 -9.20229e-14 -9.22723e-15 -3.30194e-14 -9.4449e-14 -9.25858e-14 -1.27757e-13 4.72977e-14 -8.60401e-14 -5.80171e-14 1.1251e-14 -1.92233e-14 3.34109e-15 5.42228e-14 -1.5272e-13 -1.62702e-13 4.2083e-14 -8.69685e-14 -4.66416e-14 -1.71942e-13 7.01691e-14 -3.64918e-13 -1.27257e-13 4.25217e-14 -1.22385e-13 -1.78637e-13 4.84593e-14 -1.88203e-13 -1.64761e-14 1.43746e-14 1.78403e-13 4.95038e-14 6.02647e-14 9.71913e-14 -3.91411e-13 2.59869e-13 -1.73989e-13 -3.35787e-13 1.08076e-13 -2.0824e-13 -1.32326e-13 -3.38524e-13 -1.30261e-13 7.52977e-15 -5.51296e-14 1.18286e-13 -1.15997e-13 -3.25155e-13 1.39665e-13 2.0161e-14 9.06072e-14 4.7565e-14 -1.4514e-13 1.42334e-13 -1.23922e-14 2.65863e-13 5.44379e-13 5.80363e-12 7.79517e-11 9.99335e-10 1.15631e-08 1.1931e-07 1.08894e-06 8.70046e-06 6.00843e-05 0.000352911 0.00172701 0.00686424 0.0215813 0.0528949 0.102708 0.166255 0.238255 0.315844 0.397349 0.48151 0.556417 0.632508 0.697479 0.764622 0.81945 0.860411 0.900503 0.916968 0.923128 0.931249 0.934465 0.934083 0.932686 0.931689 0.931291 0.930802 0.929601 0.926835 0.920692 0.907396 0.880072 0.828996 0.74472 0.624004 0.47721 0.32597 0.194742 0.0992195 0.0428368 0.0161357 0.00556567 0.0018223 0.000576057 0.000176894 5.28605e-05 1.53764e-05 4.35351e-06 1.19955e-06 3.21622e-07 8.39082e-08 2.13016e-08 5.26207e-09 1.26503e-09 2.96072e-10 6.71389e-11 1.49206e-11 3.3279e-12 4.9071e-13 4.75403e-13 -2.70028e-14 -6.08154e-15 2.40852e-13 -2.29994e-13 2.68837e-13 -8.45878e-14 -5.46505e-13 8.13983e-13 -2.13962e-13 5.61107e-13 -7.51312e-13 -6.3802e-13 -4.97101e-13 4.36222e-15 -2.44914e-13 -2.17533e-13 -8.75404e-14 -8.51715e-13 1.47223e-13 6.50351e-14 -2.62424e-13 4.52874e-14 -2.07582e-13 2.33766e-13 1.87701e-13 7.20002e-14 3.21666e-13 -2.47267e-13 -1.04373e-13 3.40132e-13 -2.81393e-13 2.42445e-13 9.38734e-14 -1.24899e-13 -5.13866e-13 -7.19281e-13 1.80358e-13 -3.47169e-13 -2.71803e-13 -7.41685e-14 -9.14326e-14 6.30352e-13 -1.09091e-13 -4.31609e-13 6.50312e-13 -4.4095e-13 2.09848e-13 2.14062e-13 -7.61139e-13 -1.42575e-13 -7.43815e-13 -3.17555e-13 9.90545e-14 -8.94018e-13 3.23004e-13 -1.19035e-13 0 0 -6.88037e-15 -6.26982e-15 -5.4492e-15 6.0983e-14 3.5986e-14 2.36364e-15 -1.0832e-14 2.87679e-14 -2.09788e-14 -5.20062e-14 -4.82424e-14 -1.07463e-13 2.88788e-14 -1.75041e-13 -7.78503e-14 -4.47441e-14 -8.36376e-14 -1.653e-15 -6.31649e-14 -1.02923e-13 -5.98018e-14 -8.7393e-14 -3.95915e-14 -2.19667e-13 -3.95733e-17 7.18397e-14 -1.56405e-13 -1.16906e-14 -5.95794e-14 1.59692e-13 -3.25519e-14 1.55152e-14 -1.6559e-13 -1.69211e-13 -9.6954e-14 -7.90203e-14 -7.28761e-14 -1.61101e-13 2.6405e-14 1.54143e-14 -6.63642e-14 -1.0371e-14 -4.25398e-13 -1.36929e-13 -1.57725e-13 -2.89702e-13 1.83421e-13 1.39602e-13 1.22525e-14 2.20898e-15 5.55204e-14 3.32877e-14 -3.06368e-13 9.46931e-14 -9.85691e-14 -4.17908e-13 -9.75855e-14 -4.07157e-14 -1.50531e-13 -1.53193e-13 1.85356e-13 -1.1136e-13 -9.64006e-14 1.28697e-13 1.39007e-13 -2.5149e-13 5.98039e-14 -3.1169e-13 2.62062e-14 1.10214e-13 -1.17865e-13 1.12705e-13 -5.09329e-14 4.12279e-13 6.98709e-13 5.59741e-12 7.84343e-11 9.99863e-10 1.15625e-08 1.1931e-07 1.08894e-06 8.70046e-06 6.00843e-05 0.000352911 0.00172701 0.00686424 0.0215813 0.0528949 0.102708 0.166255 0.238255 0.315844 0.397349 0.48151 0.556417 0.632508 0.697479 0.764622 0.81945 0.860411 0.900503 0.916968 0.923128 0.931249 0.934465 0.934083 0.932686 0.931689 0.931291 0.930802 0.929601 0.926835 0.920692 0.907396 0.880072 0.828996 0.74472 0.624004 0.47721 0.32597 0.194742 0.0992195 0.0428368 0.0161357 0.00556567 0.0018223 0.000576057 0.000176894 5.28605e-05 1.53764e-05 4.35351e-06 1.19955e-06 3.21622e-07 8.39081e-08 2.13015e-08 5.26238e-09 1.26528e-09 2.96112e-10 6.72838e-11 1.50834e-11 3.67173e-12 -2.82589e-13 6.35668e-13 6.89466e-14 2.06406e-13 8.47631e-13 -1.07634e-13 1.79795e-13 -5.03953e-13 -6.29359e-13 5.82317e-13 -2.91701e-13 7.51295e-14 -5.4957e-13 -3.88038e-13 -5.82141e-13 -7.30511e-13 -4.13137e-13 -2.94874e-13 3.30524e-13 -3.94342e-13 -9.08735e-14 -1.55914e-13 -6.4726e-13 -3.83612e-13 7.35274e-13 4.78997e-14 2.07346e-13 -7.02431e-13 -5.28598e-13 3.42089e-13 6.92578e-14 6.2492e-13 -1.12343e-13 1.09027e-14 -3.26822e-14 -1.69499e-14 2.30297e-13 -9.33783e-13 2.13511e-13 -7.06467e-13 -2.18453e-13 2.38606e-13 1.39682e-13 4.39548e-13 9.38756e-14 -6.84215e-13 3.77429e-13 -2.48504e-13 5.85429e-13 2.71654e-13 -7.95982e-13 -2.6055e-13 -4.70888e-13 2.12406e-14 3.97874e-13 -6.33515e-13 -2.62421e-13 -5.14782e-13 0 0 5.11085e-15 -4.95871e-15 9.01152e-14 -1.75353e-14 3.8688e-14 7.94042e-14 1.11347e-14 -2.82799e-14 -1.25546e-16 -2.28655e-14 -1.6371e-13 9.20174e-14 -3.00425e-13 5.81811e-14 -6.50081e-14 -1.92599e-13 5.67378e-14 -7.5346e-14 -7.9413e-14 -5.19767e-14 -9.43486e-14 -2.11804e-13 -1.17774e-13 1.46802e-13 7.8626e-14 -1.85678e-13 1.45698e-13 -5.89567e-14 7.53783e-14 -2.43609e-13 5.00724e-14 -2.35256e-13 -2.51199e-13 1.09063e-13 -1.80662e-13 -5.18151e-14 -1.87933e-13 2.9214e-13 -3.91992e-13 2.05695e-13 -1.72538e-13 -2.49799e-13 -1.20738e-13 4.33263e-14 -5.50944e-13 5.365e-14 -3.38748e-13 1.83214e-13 4.85111e-14 2.87414e-13 -3.97897e-14 -6.42991e-13 9.08277e-13 -5.81102e-13 -3.55806e-13 3.91367e-14 -7.82127e-13 1.32933e-13 -1.87808e-13 1.24384e-13 8.97403e-14 6.85155e-14 3.71688e-13 -3.17613e-13 1.13309e-13 1.30861e-13 -3.53791e-13 9.24476e-14 -4.26132e-13 -2.90291e-13 6.71983e-13 -2.44622e-13 3.64025e-13 -3.60912e-13 1.2002e-12 5.9794e-12 7.7526e-11 1.00033e-09 1.15618e-08 1.19312e-07 1.08894e-06 8.70046e-06 6.00843e-05 0.000352911 0.00172701 0.00686424 0.0215813 0.0528949 0.102708 0.166255 0.238255 0.315844 0.397349 0.48151 0.556417 0.632508 0.697479 0.764622 0.81945 0.860411 0.900503 0.916968 0.923128 0.931249 0.934465 0.934083 0.932686 0.931689 0.931291 0.930802 0.929601 0.926835 0.920692 0.907396 0.880072 0.828996 0.74472 0.624004 0.47721 0.32597 0.194742 0.0992195 0.0428368 0.0161357 0.00556567 0.0018223 0.000576057 0.000176894 5.28605e-05 1.53764e-05 4.35351e-06 1.19955e-06 3.21622e-07 8.39088e-08 2.13008e-08 5.26292e-09 1.26525e-09 2.95679e-10 6.77961e-11 1.50422e-11 2.95986e-12 1.29193e-12 -2.82886e-13 3.76168e-13 8.51028e-13 -3.75392e-13 5.30799e-13 -5.24537e-13 1.46613e-13 7.39e-14 -1.37502e-12 8.80766e-13 -8.55576e-13 7.85126e-13 -1.18671e-12 -1.49618e-13 -7.07238e-13 -8.29005e-13 -6.93547e-14 -5.66397e-13 3.65203e-13 -9.73669e-14 -3.30102e-13 1.62416e-13 2.20878e-13 -1.762e-13 2.0238e-14 -5.52921e-13 1.56713e-14 -5.57838e-13 1.04933e-13 5.54151e-13 -1.15479e-12 7.77126e-13 -4.81534e-13 3.92771e-13 -6.16981e-14 -8.27582e-13 7.17791e-13 -1.13099e-12 -4.09789e-13 3.40733e-13 -3.99238e-13 1.04792e-12 -6.94928e-14 -5.61771e-14 2.7412e-13 -1.28007e-12 8.833e-13 -4.18198e-13 -9.77236e-13 1.89027e-12 -1.35181e-12 5.73268e-13 2.42471e-13 -1.23379e-12 7.20005e-13 -2.12091e-12 1.10987e-13 0 0 3.06684e-14 8.44147e-14 -1.14484e-14 9.9636e-14 5.69138e-15 -2.46483e-14 -7.34838e-15 3.55289e-14 3.13137e-14 -6.90314e-14 7.78658e-14 -3.14639e-13 2.7824e-14 -1.79063e-13 -7.5038e-14 1.50757e-13 -3.06571e-13 5.84947e-14 -1.4266e-13 -1.91835e-13 2.59415e-14 -2.62906e-14 -9.25864e-14 -1.00282e-13 5.64077e-14 3.15491e-13 5.26724e-14 -1.34125e-13 6.73521e-14 -1.28936e-13 -4.70818e-13 -6.16119e-14 -1.93736e-13 -2.60543e-13 1.25308e-13 6.21864e-14 2.0472e-13 -4.87612e-13 1.85804e-13 -4.21991e-13 -1.17064e-13 5.6133e-14 -1.55266e-13 -3.85053e-14 1.42533e-13 -6.74374e-13 3.24568e-13 -5.25393e-13 2.36881e-13 -7.36698e-14 3.03626e-13 7.28641e-13 -1.04006e-12 -6.67559e-14 -1.60948e-13 -6.17888e-13 5.05494e-13 -1.04405e-12 1.12109e-13 -2.3576e-13 1.40326e-13 3.42583e-13 7.21327e-14 3.82642e-13 -1.36102e-13 -2.0889e-13 -4.21522e-14 -2.0378e-13 1.80145e-13 9.49877e-15 -6.96538e-13 7.31134e-13 -2.46478e-13 6.41437e-13 3.33559e-13 5.80573e-12 7.81302e-11 9.98725e-10 1.15643e-08 1.1931e-07 1.08894e-06 8.70046e-06 6.00843e-05 0.000352911 0.00172701 0.00686424 0.0215813 0.0528949 0.102708 0.166255 0.238255 0.315844 0.397349 0.48151 0.556417 0.632508 0.697479 0.764622 0.81945 0.860411 0.900503 0.916968 0.923128 0.931249 0.934465 0.934083 0.932686 0.931689 0.931291 0.930802 0.929601 0.926835 0.920692 0.907396 0.880072 0.828996 0.74472 0.624004 0.47721 0.32597 0.194742 0.0992195 0.0428368 0.0161357 0.00556567 0.0018223 0.000576057 0.000176894 5.28605e-05 1.53764e-05 4.3535e-06 1.19955e-06 3.21623e-07 8.39079e-08 2.13022e-08 5.26178e-09 1.2651e-09 2.96454e-10 6.69505e-11 1.53664e-11 3.03988e-12 5.47435e-13 1.18126e-12 2.9955e-13 -2.78227e-13 1.10728e-12 -2.17427e-12 8.57914e-13 3.69153e-13 -7.98583e-13 7.28359e-13 -1.51539e-12 1.66816e-12 -8.53809e-13 -2.93497e-13 -1.21841e-12 -3.61156e-13 -1.50216e-13 -7.10944e-13 -2.01957e-13 -5.03008e-13 3.95591e-13 6.28682e-13 -6.97936e-13 1.17564e-12 -3.29391e-13 -2.28399e-13 1.43289e-13 -7.75078e-13 6.28196e-13 -3.27517e-13 -6.26364e-13 -1.48642e-13 -7.4801e-13 -1.07339e-13 -9.40925e-14 -1.16965e-13 4.28559e-13 -9.77692e-13 -4.92274e-13 -5.64e-13 -8.94274e-13 2.02389e-12 -7.35792e-13 5.20344e-13 1.37131e-13 -7.79779e-13 1.52573e-12 -1.24559e-12 -4.42061e-13 4.66065e-13 -1.30222e-12 7.73437e-13 3.9585e-13 -2.94273e-13 2.56426e-13 -3.44971e-12 7.42391e-13 -1.90439e-14 0
				</DataArray>
				<DataArray Name="VitesseY" type="Float32" format="ascii">