<?xml version="1.0"?>
<VTKFile type="PolyData">
	<PolyData>
		<Piece NumberOfPoints="1206" NumberOfPolys="1000">
			<Points>
				<DataArray type="Float32" NumberOfComponents="3" format="ascii">
 0 0 0 0.005 0 0 0.01 0 0 0.015 0 0 0.02 0 0 0.025 0 0 0.03 0 0 0.035 0 0 0.04 0 0 0.045 0 0 0.05 0 0 0.055 0 0 0.06 0 0 0.065 0 0 0.07 0 0 0.075 0 0 0.08 0 0 0.085 0 0 0.09 0 0 0.095 0 0 0.1 0 0 0.105 0 0 0.11 0 0 0.115 0 0 0.12 0 0 0.125 0 0 0.13 0 0 0.135 0 0 0.14 0 0 0.145 0 0 0.15 0 0 0.155 0 0 0.16 0 0 0.165 0 0 0.17 0 0 0.175 0 0 0.18 0 0 0.185 0 0 0.19 0 0 0.195 0 0 0.2 0 0 0.205 0 0 0.21 0 0 0.215 0 0 0.22 0 0 0.225 0 0 0.23 0 0 0.235 0 0 0.24 0 0 0.245 0 0 0.25 0 0 0.255 0 0 0.26 0 0 0.265 0 0 0.27 0 0 0.275 0 0 0.28 0 0 0.285 0 0 0.29 0 0 0.295 0 0 0.3 0 0 0.305 0 0 0.31 0 0 0.315 0 0 0.32 0 0 0.325 0 0 0.33 0 0 0.335 0 0 0.34 0 0 0.345 0 0 0.35 0 0 0.355 0 0 0.36 0 0 0.365 0 0 0.37 0 0 0.375 0 0 0.38 0 0 0.385 0 0 0.39 0 0 0.395 0 0 0.4 0 0 0.405 0 0 0.41 0 0 0.415 0 0 0.42 0 0 0.425 0 0 0.43 0 0 0.435 0 0 0.44 0 0 0.445 0 0 0.45 0 0 0.455 0 0 0.46 0 0 0.465 0 0 0.47 0 0 0.475 0 0 0.48 0 0 0.485 0 0 0.49 0 0 0.495 0 0 0.5 0 0 0.505 0 0 0.51 0 0 0.515 0 0 0.52 0 0 0.525 0 0 0.53 0 0 0.535 0 0 0.54 0 0 0.545 0 0 0.55 0 0 0.555 0 0 0.56 0 0 0.565 0 0 0.57 0 0 0.575 0 0 0.58 0 0 0.585 0 0 0.59 0 0 0.595 0 0 0.6 0 0 0.605 0 0 0.61 0 0 0.615 0 0 0.62 0 0 0.625 0 0 0.63 0 0 0.635 0 0 0.64 0 0 0.645 0 0 0.65 0 0 0.655 0 0 0.66 0 0 0.665 0 0 0.67 0 0 0.675 0 0 0.68 0 0 0.685 0 0 0.69 0 0 0.695 0 0 0.7 0 0 0.705 0 0 0.71 0 0 0.715 0 0 0.72 0 0 0.725 0 0 0.73 0 0 0.735 0 0 0.74 0 0 0.745 0 0 0.75 0 0 0.755 0 0 0.76 0 0 0.765 0 0 0.77 0 0 0.775 0 0 0.78 0 0 0.785 0 0 0.79 0 0 0.795 0 0 0.8 0 0 0.805 0 0 0.81 0 0 0.815 0 0 0.82 0 0 0.825 0 0 0.83 0 0 0.835 0 0 0.84 0 0 0.845 0 0 0.85 0 0 0.855 0 0 0.86 0 0 0.865 0 0 0.87 0 0 0.875 0 0 0.88 0 0 0.885 0 0 0.89 0 0 0.895 0 0 0.9 0 0 0.905 0 0 0.91 0 0 0.915 0 0 0.92 0 0 0.925 0 0 0.93 0 0 0.935 0 0 0.94 0 0 0.945 0 0 0.95 0 0 0.955 0 0 0.96 0 0 0.965 0 0 0.97 0 0 0.975 0 0 0.98 0 0 0.985 0 0 0.99 0 0 0.995 0 0 1 0 0 0 0.02 0 0.005 0.02 0 0.01 0.02 0 0.015 0.02 0 0.02 0.02 0 0.025 0.02 0 0.03 0.02 0 0.035 0.02 0 0.04 0.02 0 0.045 0.02 0 0.05 0.02 0 0.055 0.02 0 0.06 0.02 0 0.065 0.02 0 0.07 0.02 0 0.075 0.02 0 0.08 0.02 0 0.085 0.02 0 0.09 0.02 0 0.095 0.02 0 0.1 0.02 0 0.105 0.02 0 0.11 0.02 0 0.115 0.02 0 0.12 0.02 0 0.125 0.02 0 0.13 0.02 0 0.135 0.02 0 0.14 0.02 0 0.145 0.02 0 0.15 0.02 0 0.155 0.02 0 0.16 0.02 0 0.165 0.02 0 0.17 0.02 0 0.175 0.02 0 0.18 0.02 0 0.185 0.02 0 0.19 0.02 0 0.195 0.02 0 0.2 0.02 0 0.205 0.02 0 0.21 0.02 0 0.215 0.02 0 0.22 0.02 0 0.225 0.02 0 0.23 0.02 0 0.235 0.02 0 0.24 0.02 0 0.245 0.02 0 0.25 0.02 0 0.255 0.02 0 0.26 0.02 0 0.265 0.02 0 0.27 0.02 0 0.275 0.02 0 0.28 0.02 0 0.285 0.02 0 0.29 0.02 0 0.295 0.02 0 0.3 0.02 0 0.305 0.02 0 0.31 0.02 0 0.315 0.02 0 0.32 0.02 0 0.325 0.02 0 0.33 0.02 0 0.335 0.02 0 0.34 0.02 0 0.345 0.02 0 0.35 0.02 0 0.355 0.02 0 0.36 0.02 0 0.365 0.02 0 0.37 0.02 0 0.375 0.02 0 0.38 0.02 0 0.385 0.02 0 0.39 0.02 0 0.395 0.02 0 0.4 0.02 0 0.405 0.02 0 0.41 0.02 0 0.415 0.02 0 0.42 0.02 0 0.425 0.02 0 0.43 0.02 0 0.435 0.02 0 0.44 0.02 0 0.445 0.02 0 0.45 0.02 0 0.455 0.02 0 0.46 0.02 0 0.465 0.02 0 0.47 0.02 0 0.475 0.02 0 0.48 0.02 0 0.485 0.02 0 0.49 0.02 0 0.495 0.02 0 0.5 0.02 0 0.505 0.02 0 0.51 0.02 0 0.515 0.02 0 0.52 0.02 0 0.525 0.02 0 0.53 0.02 0 0.535 0.02 0 0.54 0.02 0 0.545 0.02 0 0.55 0.02 0 0.555 0.02 0 0.56 0.02 0 0.565 0.02 0 0.57 0.02 0 0.575 0.02 0 0.58 0.02 0 0.585 0.02 0 0.59 0.02 0 0.595 0.02 0 0.6 0.02 0 0.605 0.02 0 0.61 0.02 0 0.615 0.02 0 0.62 0.02 0 0.625 0.02 0 0.63 0.02 0 0.635 0.02 0 0.64 0.02 0 0.645 0.02 0 0.65 0.02 0 0.655 0.02 0 0.66 0.02 0 0.665 0.02 0 0.67 0.02 0 0.675 0.02 0 0.68 0.02 0 0.685 0.02 0 0.69 0.02 0 0.695 0.02 0 0.7 0.02 0 0.705 0.02 0 0.71 0.02 0 0.715 0.02 0 0.72 0.02 0 0.725 0.02 0 0.73 0.02 0 0.735 0.02 0 0.74 0.02 0 0.745 0.02 0 0.75 0.02 0 0.755 0.02 0 0.76 0.02 0 0.765 0.02 0 0.77 0.02 0 0.775 0.02 0 0.78 0.02 0 0.785 0.02 0 0.79 0.02 0 0.795 0.02 0 0.8 0.02 0 0.805 0.02 0 0.81 0.02 0 0.815 0.02 0 0.82 0.02 0 0.825 0.02 0 0.83 0.02 0 0.835 0.02 0 0.84 0.02 0 0.845 0.02 0 0.85 0.02 0 0.855 0.02 0 0.86 0.02 0 0.865 0.02 0 0.87 0.02 0 0.875 0.02 0 0.88 0.02 0 0.885 0.02 0 0.89 0.02 0 0.895 0.02 0 0.9 0.02 0 0.905 0.02 0 0.91 0.02 0 0.915 0.02 0 0.92 0.02 0 0.925 0.02 0 0.93 0.02 0 0.935 0.02 0 0.94 0.02 0 0.945 0.02 0 0.95 0.02 0 0.955 0.02 0 0.96 0.02 0 0.965 0.02 0 0.97 0.02 0 0.975 0.02 0 0.98 0.02 0 0.985 0.02 0 0.99 0.02 0 0.995 0.02 0 1 0.02 0 0 0.04 0 0.005 0.04 0 0.01 0.04 0 0.015 0.04 0 0.02 0.04 0 0.025 0.04 0 0.03 0.04 0 0.035 0.04 0 0.04 0.04 0 0.045 0.04 0 0.05 0.04 0 0.055 0.04 0 0.06 0.04 0 0.065 0.04 0 0.07 0.04 0 0.075 0.04 0 0.08 0.04 0 0.085 0.04 0 0.09 0.04 0 0.095 0.04 0 0.1 0.04 0 0.105 0.04 0 0.11 0.04 0 0.115 0.04 0 0.12 0.04 0 0.125 0.04 0 0.13 0.04 0 0.135 0.04 0 0.14 0.04 0 0.145 0.04 0 0.15 0.04 0 0.155 0.04 0 0.16 0.04 0 0.165 0.04 0 0.17 0.04 0 0.175 0.04 0 0.18 0.04 0 0.185 0.04 0 0.19 0.04 0 0.195 0.04 0 0.2 0.04 0 0.205 0.04 0 0.21 0.04 0 0.215 0.04 0 0.22 0.04 0 0.225 0.04 0 0.23 0.04 0 0.235 0.04 0 0.24 0.04 0 0.245 0.04 0 0.25 0.04 0 0.255 0.04 0 0.26 0.04 0 0.265 0.04 0 0.27 0.04 0 0.275 0.04 0 0.28 0.04 0 0.285 0.04 0 0.29 0.04 0 0.295 0.04 0 0.3 0.04 0 0.305 0.04 0 0.31 0.04 0 0.315 0.04 0 0.32 0.04 0 0.325 0.04 0 0.33 0.04 0 0.335 0.04 0 0.34 0.04 0 0.345 0.04 0 0.35 0.04 0 0.355 0.04 0 0.36 0.04 0 0.365 0.04 0 0.37 0.04 0 0.375 0.04 0 0.38 0.04 0 0.385 0.04 0 0.39 0.04 0 0.395 0.04 0 0.4 0.04 0 0.405 0.04 0 0.41 0.04 0 0.415 0.04 0 0.42 0.04 0 0.425 0.04 0 0.43 0.04 0 0.435 0.04 0 0.44 0.04 0 0.445 0.04 0 0.45 0.04 0 0.455 0.04 0 0.46 0.04 0 0.465 0.04 0 0.47 0.04 0 0.475 0.04 0 0.48 0.04 0 0.485 0.04 0 0.49 0.04 0 0.495 0.04 0 0.5 0.04 0 0.505 0.04 0 0.51 0.04 0 0.515 0.04 0 0.52 0.04 0 0.525 0.04 0 0.53 0.04 0 0.535 0.04 0 0.54 0.04 0 0.545 0.04 0 0.55 0.04 0 0.555 0.04 0 0.56 0.04 0 0.565 0.04 0 0.57 0.04 0 0.575 0.04 0 0.58 0.04 0 0.585 0.04 0 0.59 0.04 0 0.595 0.04 0 0.6 0.04 0 0.605 0.04 0 0.61 0.04 0 0.615 0.04 0 0.62 0.04 0 0.625 0.04 0 0.63 0.04 0 0.635 0.04 0 0.64 0.04 0 0.645 0.04 0 0.65 0.04 0 0.655 0.04 0 0.66 0.04 0 0.665 0.04 0 0.67 0.04 0 0.675 0.04 0 0.68 0.04 0 0.685 0.04 0 0.69 0.04 0 0.695 0.04 0 0.7 0.04 0 0.705 0.04 0 0.71 0.04 0 0.715 0.04 0 0.72 0.04 0 0.725 0.04 0 0.73 0.04 0 0.735 0.04 0 0.74 0.04 0 0.745 0.04 0 0.75 0.04 0 0.755 0.04 0 0.76 0.04 0 0.765 0.04 0 0.77 0.04 0 0.775 0.04 0 0.78 0.04 0 0.785 0.04 0 0.79 0.04 0 0.795 0.04 0 0.8 0.04 0 0.805 0.04 0 0.81 0.04 0 0.815 0.04 0 0.82 0.04 0 0.825 0.04 0 0.83 0.04 0 0.835 0.04 0 0.84 0.04 0 0.845 0.04 0 0.85 0.04 0 0.855 0.04 0 0.86 0.04 0 0.865 0.04 0 0.87 0.04 0 0.875 0.04 0 0.88 0.04 0 0.885 0.04 0 0.89 0.04 0 0.895 0.04 0 0.9 0.04 0 0.905 0.04 0 0.91 0.04 0 0.915 0.04 0 0.92 0.04 0 0.925 0.04 0 0.93 0.04 0 0.935 0.04 0 0.94 0.04 0 0.945 0.04 0 0.95 0.04 0 0.955 0.04 0 0.96 0.04 0 0.965 0.04 0 0.97 0.04 0 0.975 0.04 0 0.98 0.04 0 0.985 0.04 0 0.99 0.04 0 0.995 0.04 0 1 0.04 0 0 0.06 0 0.005 0.06 0 0.01 0.06 0 0.015 0.06 0 0.02 0.06 0 0.025 0.06 0 0.03 0.06 0 0.035 0.06 0 0.04 0.06 0 0.045 0.06 0 0.05 0.06 0 0.055 0.06 0 0.06 0.06 0 0.065 0.06 0 0.07 0.06 0 0.075 0.06 0 0.08 0.06 0 0.085 0.06 0 0.09 0.06 0 0.095 0.06 0 0.1 0.06 0 0.105 0.06 0 0.11 0.06 0 0.115 0.06 0 0.12 0.06 0 0.125 0.06 0 0.13 0.06 0 0.135 0.06 0 0.14 0.06 0 0.145 0.06 0 0.15 0.06 0 0.155 0.06 0 0.16 0.06 0 0.165 0.06 0 0.17 0.06 0 0.175 0.06 0 0.18 0.06 0 0.185 0.06 0 0.19 0.06 0 0.195 0.06 0 0.2 0.06 0 0.205 0.06 0 0.21 0.06 0 0.215 0.06 0 0.22 0.06 0 0.225 0.06 0 0.23 0.06 0 0.235 0.06 0 0.24 0.06 0 0.245 0.06 0 0.25 0.06 0 0.255 0.06 0 0.26 0.06 0 0.265 0.06 0 0.27 0.06 0 0.275 0.06 0 0.28 0.06 0 0.285 0.06 0 0.29 0.06 0 0.295 0.06 0 0.3 0.06 0 0.305 0.06 0 0.31 0.06 0 0.315 0.06 0 0.32 0.06 0 0.325 0.06 0 0.33 0.06 0 0.335 0.06 0 0.34 0.06 0 0.345 0.06 0 0.35 0.06 0 0.355 0.06 0 0.36 0.06 0 0.365 0.06 0 0.37 0.06 0 0.375 0.06 0 0.38 0.06 0 0.385 0.06 0 0.39 0.06 0 0.395 0.06 0 0.4 0.06 0 0.405 0.06 0 0.41 0.06 0 0.415 0.06 0 0.42 0.06 0 0.425 0.06 0 0.43 0.06 0 0.435 0.06 0 0.44 0.06 0 0.445 0.06 0 0.45 0.06 0 0.455 0.06 0 0.46 0.06 0 0.465 0.06 0 0.47 0.06 0 0.475 0.06 0 0.48 0.06 0 0.485 0.06 0 0.49 0.06 0 0.495 0.06 0 0.5 0.06 0 0.505 0.06 0 0.51 0.06 0 0.515 0.06 0 0.52 0.06 0 0.525 0.06 0 0.53 0.06 0 0.535 0.06 0 0.54 0.06 0 0.545 0.06 0 0.55 0.06 0 0.555 0.06 0 0.56 0.06 0 0.565 0.06 0 0.57 0.06 0 0.575 0.06 0 0.58 0.06 0 0.585 0.06 0 0.59 0.06 0 0.595 0.06 0 0.6 0.06 0 0.605 0.06 0 0.61 0.06 0 0.615 0.06 0 0.62 0.06 0 0.625 0.06 0 0.63 0.06 0 0.635 0.06 0 0.64 0.06 0 0.645 0.06 0 0.65 0.06 0 0.655 0.06 0 0.66 0.06 0 0.665 0.06 0 0.67 0.06 0 0.675 0.06 0 0.68 0.06 0 0.685 0.06 0 0.69 0.06 0 0.695 0.06 0 0.7 0.06 0 0.705 0.06 0 0.71 0.06 0 0.715 0.06 0 0.72 0.06 0 0.725 0.06 0 0.73 0.06 0 0.735 0.06 0 0.74 0.06 0 0.745 0.06 0 0.75 0.06 0 0.755 0.06 0 0.76 0.06 0 0.765 0.06 0 0.77 0.06 0 0.775 0.06 0 0.78 0.06 0 0.785 0.06 0 0.79 0.06 0 0.795 0.06 0 0.8 0.06 0 0.805 0.06 0 0.81 0.06 0 0.815 0.06 0 0.82 0.06 0 0.825 0.06 0 0.83 0.06 0 0.835 0.06 0 0.84 0.06 0 0.845 0.06 0 0.85 0.06 0 0.855 0.06 0 0.86 0.06 0 0.865 0.06 0 0.87 0.06 0 0.875 0.06 0 0.88 0.06 0 0.885 0.06 0 0.89 0.06 0 0.895 0.06 0 0.9 0.06 0 0.905 0.06 0 0.91 0.06 0 0.915 0.06 0 0.92 0.06 0 0.925 0.06 0 0.93 0.06 0 0.935 0.06 0 0.94 0.06 0 0.945 0.06 0 0.95 0.06 0 0.955 0.06 0 0.96 0.06 0 0.965 0.06 0 0.97 0.06 0 0.975 0.06 0 0.98 0.06 0 0.985 0.06 0 0.99 0.06 0 0.995 0.06 0 1 0.06 0 0 0.08 0 0.005 0.08 0 0.01 0.08 0 0.015 0.08 0 0.02 0.08 0 0.025 0.08 0 0.03 0.08 0 0.035 0.08 0 0.04 0.08 0 0.045 0.08 0 0.05 0.08 0 0.055 0.08 0 0.06 0.08 0 0.065 0.08 0 0.07 0.08 0 0.075 0.08 0 0.08 0.08 0 0.085 0.08 0 0.09 0.08 0 0.095 0.08 0 0.1 0.08 0 0.105 0.08 0 0.11 0.08 0 0.115 0.08 0 0.12 0.08 0 0.125 0.08 0 0.13 0.08 0 0.135 0.08 0 0.14 0.08 0 0.145 0.08 0 0.15 0.08 0 0.155 0.08 0 0.16 0.08 0 0.165 0.08 0
[...]
			<PointData Scalars="VitesseX">
				<DataArray Name="VitesseX" type="Float32" format="ascii">
 0 -1.2143e-15 2.28123e-14 1.89361e-14 -2.5403e-14 3.14531e-14 5.27341e-14 -4.11041e-14 -2.2649e-14 -7.70887e-14 4.58616e-14 -3.38615e-14 8.9472e-14 -8.08016e-14 2.6325e-14 -2.92252e-14 -1.22347e-13 -1.87178e-14 -1.0749e-13 -2.99862e-14 -1.24559e-14 -8.28253e-14 -2.41022e-13 -3.29197e-14 9.16854e-14 -1.6396e-13 -2.16271e-13 -8.27e-14 -7.22316e-14 -7.24173e-14 -6.3855e-14 4.11552e-14 -9.26194e-14 -1.31923e-13 -6.62971e-14 -1.38746e-13 -1.19157e-13 -1.72412e-13 -6.34833e-14 -1.55422e-13 -3.93475e-13 2.39336e-13 -1.68218e-13 3.71388e-13 -7.12616e-14 -1.19445e-13 1.29919e-13 -6.16369e-14 -2.97423e-14 -5.28611e-14 -1.75491e-13 -3.58807e-13 -3.57983e-13 3.20293e-13 1.76669e-13 -2.20308e-13 -2.45334e-14 -3.38631e-13 9.4344e-14 -1.29583e-13 9.39401e-15 -3.49105e-13 -1.80119e-13 -2.40556e-13 6.15864e-14 -7.19273e-14 7.66642e-13 7.63504e-12 7.33872e-11 6.6192e-10 5.54929e-09 4.26715e-08 2.99527e-07 1.90792e-06 1.09501e-05 5.61416e-05 0.000254451 0.00100633 0.00341939 0.00981887 0.023532 0.0470742 0.0801354 0.120166 0.16458 0.211742 0.260694 0.310769 0.361733 0.413569 0.465867 0.515249 0.56478 0.611814 0.659258 0.704274 0.747699 0.790559 0.826317 0.861833 0.888518 0.905734 0.92124 0.927952 0.929378 0.931419 0.932681 0.93261 0.932104 0.931488 0.931056 0.930761 0.930461 0.930106 0.929736 0.929451 0.929242 0.929052 0.92882 0.92849 0.927939 0.926873 0.924658 0.919987 0.910324 0.891226 0.855917 0.796077 0.704989 0.582629 0.441071 0.300178 0.180371 0.0939501 0.0424774 0.0171791 0.00648549 0.00235798 0.000838433 0.000293273 0.000101087 3.43391e-05 1.14918e-05 3.78676e-06 1.22803e-06 3.91757e-07 1.22893e-07 3.78981e-08 1.14851e-08 3.42006e-09 1.00105e-09 2.86786e-10 8.12936e-11 2.15906e-11 6.02065e-12 1.24501e-12 3.35839e-13 2.33543e-13 -5.12254e-13 2.01662e-13 -1.86419e-13 3.12168e-13 -6.12795e-13 2.5207e-13 7.47589e-14 1.3558e-13 -1.95497e-13 -5.28991e-13 -8.89517e-13 1.08663e-12 -1.17606e-13 -2.33445e-13 -5.6073e-14 -1.30131e-12 6.96456e-13 -7.82886e-13 1.96945e-13 2.16807e-13 -4.87066e-13 6.22443e-13 -2.44787e-13 -5.44371e-13 2.60109e-13 9.81592e-14 7.39701e-14 -1.13464e-12 -2.47711e-13 3.74311e-13 -6.96914e-13 2.68589e-13 -8.82176e-13 -7.64777e-13 1.07223e-12 -6.90158e-13 6.46085e-14 -3.62424e-13 1.99507e-13 1.13191e-12 -6.40598e-13 8.5994e-14 0 0 2.81478e-14 1.26021e-14 1.32035e-14 2.87533e-14 4.2817e-15 -2.49194e-14 -6.16024e-15 -2.32977e-14 -1.2324e-15 -6.79842e-14 1.33887e-14 -4.03615e-14 4.68806e-14 -7.2691e-14 -1.11824e-14 3.44516e-14 -1.34911e-13 -1.17022e-14 -7.44029e-14 -9.23214e-14 -4.28043e-14 8.90816e-14 -1.75602e-13 -2.17186e-13 -8.99243e-14 9.65897e-15 -1.0998e-13 -1.71592e-13 -5.70861e-14 4.07696e-14 -1.38885e-13 6.37741e-15 -9.52708e-14 -2.29584e-13 -7.42938e-14 -9.43293e-14 -1.10944e-13 -1.76341e-13 -9.38367e-14 1.81577e-13 -3.30468e-13 2.40065e-13 -2.45552e-13 1.08364e-13 9.89889e-14 -9.8416e-14 8.5397e-15 -1.36713e-13 -2.44176e-13 -2.69486e-13 -7.33978e-14 1.65125e-13 -3.66323e-13 -1.88064e-13 1.85194e-13 -4.03584e-14 -9.56297e-14 -9.83513e-14 -5.20397e-14 -1.252e-13 -2.77107e-14 -1.3233e-13 -7.96251e-14 -1.39713e-13 5.631e-14 6.78716e-13 7.5065e-12 7.29584e-11 6.62743e-10 5.54953e-09 4.26705e-08 2.99527e-07 1.90792e-06 1.09501e-05 5.61416e-05 0.000254451 0.00100633 0.00341939 0.00981887 0.023532 0.0470742 0.0801354 0.120166 0.16458 0.211742 0.260694 0.310769 0.361733 0.413569 0.465867 0.515249 0.56478 0.611814 0.659258 0.704274 0.747699 0.790559 0.826317 0.861833 0.888518 0.905734 0.92124 0.927952 0.929378 0.931419 0.932681 0.93261 0.932104 0.931488 0.931056 0.930761 0.930461 0.930106 0.929736 0.929451 0.929242 0.929052 0.92882 0.92849 0.927939 0.926873 0.924658 0.919987 0.910324 0.891226 0.855917 0.796077 0.704989 0.582629 0.441071 0.300178 0.180371 0.0939501 0.0424774 0.0171791 0.00648549 0.00235798 0.000838433 0.000293273 0.000101087 3.43391e-05 1.14918e-05 3.78676e-06 1.22803e-06 3.91757e-07 1.22894e-07 3.7897e-08 1.14859e-08 3.42039e-09 9.99918e-10 2.877e-10 8.04841e-11 2.25382e-11 5.61751e-12 1.46824e-12 -2.42775e-13 -2.06584e-13 2.81425e-13 -2.64169e-13 4.04362e-13 -4.88384e-13 1.75526e-13 -4.8896e-13 2.67576e-14 1.88168e-13 -5.02059e-13 2.48961e-13 1.80037e-13 -6.73852e-13 -1.75882e-13 -2.82105e-13 -2.88757e-13 5.04816e-13 -9.79052e-13 3.54635e-13 -5.13108e-13 -9.91601e-14 5.3061e-13 -3.54551e-13 1.82889e-13 3.37506e-14 -2.37091e-13 3.93379e-13 -2.63962e-13 -1.42245e-13 -2.60422e-13 -5.58844e-13 6.884e-13 -9.96789e-13 -2.62093e-13 -4.68665e-14 -7.88636e-13 2.54261e-13 7.69304e-14 2.61595e-13 2.21174e-13 -7.04979e-13 1.08596e-12 4.48136e-13 0 0 -1.69675e-15 8.9794e-15 2.78042e-14 4.18345e-15 3.95346e-16 -1.26371e-14 -2.27316e-14 6.15662e-15 -1.75045e-14 -3.49416e-14 -3.47157e-14 -8.12684e-15 -1.60717e-14 -2.59723e-14 -3.0991e-14 -4.67411e-14 1.35576e-14 2.04292e-14 -1.34591e-13 -1.93958e-14 -2.37203e-14 -3.42829e-14 -2.97938e-14 -7.57493e-14 -8.67899e-14 -7.61737e-14 -8.59531e-14 -1.5601e-13 -6.0969e-14 -7.8327e-14 -4.40145e-15 -9.76979e-14 -1.70218e-13 -1.66458e-14 -1.87002e-13 -1.83946e-13 -1.03554e-13 3.59085e-14 -2.75171e-14 -6.02529e-14 1.68152e-13 -1.64606e-13 -6.52746e-14 -5.62616e-14 -2.37438e-13 6.01387e-15 3.31559e-15 -1.49829e-13 -1.78145e-13 -1.68716e-13 -7.52998e-14 -2.84353e-13 1.0224e-13 -1.05684e-13 -1.41576e-13 -2.86521e-14 -9.99353e-14 1.17417e-13 -2.34317e-15 1.24311e-13 -1.30465e-13 -1.54087e-13 -7.51958e-14 -9.7789e-14 1.03261e-13 6.2034e-13 7.53308e-12 7.30551e-11 6.62594e-10 5.5495e-09 4.26708e-08 2.99527e-07 1.90792e-06 1.09501e-05 5.61416e-05 0.000254451 0.00100633 0.00341939 0.00981887 0.023532 0.0470742 0.0801354 0.120166 0.16458 0.211742 0.260694 0.310769 0.361733 0.413569 0.465867 0.515249 0.56478 0.611814 0.659258 0.704274 0.747699 0.790559 0.826317 0.861833 0.888518 0.905734 0.92124 0.927952 0.929378 0.931419 0.932681 0.93261 0.932104 0.931488 0.931056 0.930761 0.930461 0.930106 0.929736 0.929451 0.929242 0.929052 0.92882 0.92849 0.927939 0.926873 0.924658 0.919987 0.910324 0.891226 0.855917 0.796077 0.704989 0.582629 0.441071 0.300178 0.180371 0.0939501 0.0424774 0.0171791 0.00648549 0.00235798 0.000838433 0.000293273 0.000101087 3.43391e-05 1.14918e-05 3.78676e-06 1.22803e-06 3.91757e-07 1.22893e-07 3.78977e-08 1.14853e-08 3.42019e-09 1.00066e-09 2.87056e-10 8.08946e-11 2.23716e-11 6.11623e-12 9.98499e-13 2.15296e-14 -1.48583e-13 -5.2181e-15 1.87636e-13 -4.63123e-13 1.35029e-13 4.76363e-14 -3.46598e-13 -5.16494e-13 -4.81388e-13 -2.61862e-13 1.60996e-13 -1.00731e-13 2.97348e-13 -8.00995e-13 -1.44483e-13 3.83999e-14 -1.1283e-13 -1.72633e-13 -2.84951e-13 1.75077e-13 -5.12228e-13 -6.28086e-13 7.11509e-13 3.33926e-13 -8.66872e-14 3.74165e-14 -1.81907e-13 2.09976e-13 1.75468e-13 1.19814e-13 -1.78635e-13 -9.57196e-13 5.83299e-13 -4.34196e-13 -2.86511e-13 -2.74084e-13 -2.83955e-13 4.32797e-13 3.00714e-13 -1.26993e-13 3.36284e-13 -4.14611e-13 3.89261e-13 0 0 -1.89371e-14 -6.38012e-15 -1.08267e-14 -2.30833e-14 -8.55193e-15 -7.76472e-15 -1.84037e-14 -2.46044e-14 1.01882e-14 9.75326e-15 1.93628e-15 3.35607e-14 -1.75554e-14 -3.35985e-14 -6.0068e-14 -9.33585e-14 1.87714e-14 -8.98025e-14 1.3912e-14 -2.99068e-14 -3.25466e-14 3.54809e-14 1.63572e-16 -1.76023e-14 -2.79949e-14 -8.78806e-14 -1.65797e-13 -7.0949e-14 -6.98459e-14 -1.06342e-13 -5.36902e-14 -3.00054e-14 -1.02249e-13 -1.8651e-13 -1.06117e-13 -1.61572e-13 -6.09972e-14 5.61292e-14 -1.42843e-13 -1.88756e-13 6.61944e-14 1.72016e-14 4.38852e-14 -3.82289e-14 -2.47997e-14 -2.085e-13 -3.44792e-14 -4.73813e-14 -8.91236e-14 -1.3885e-13 -3.53697e-13 -8.30227e-14 1.31567e-13 5.52311e-14 -1.86927e-13 -1.08253e-14 -2.34899e-13 3.0087e-14 1.30821e-13 2.67431e-14 -1.53914e-13 -1.39175e-13 -1.68035e-13 -6.68582e-14 6.62843e-14 9.27054e-13 7.49933e-12 7.30783e-11 6.62381e-10 5.54979e-09 4.2671e-08 2.99527e-07 1.90792e-06 1.09501e-05 5.61416e-05 0.000254451 0.00100633 0.00341939 0.00981887 0.023532 0.0470742 0.0801354 0.120166 0.16458 0.211742 0.260694 0.310769 0.361733 0.413569 0.465867 0.515249 0.56478 0.611814 0.659258 0.704274 0.747699 0.790559 0.826317 0.861833 0.888518 0.905734 0.92124 0.927952 0.929378 0.931419 0.932681 0.93261 0.932104 0.931488 0.931056 0.930761 0.930461 0.930106 0.929736 0.929451 0.929242 0.929052 0.92882 0.92849 0.927939 0.926873 0.924658 0.919987 0.910324 0.891226 0.855917 0.796077 0.704989 0.582629 0.441071 0.300178 0.180371 0.0939501 0.0424774 0.0171791 0.00648549 0.00235798 0.000838433 0.000293273 0.000101087 3.43391e-05 1.14918e-05 3.78676e-06 1.22803e-06 3.91757e-07 1.22893e-07 3.78977e-08 1.14854e-08 3.42011e-09 1.00082e-09 2.87312e-10 8.09872e-11 2.20706e-11 6.10742e-12 1.67837e-12 4.99269e-13 -1.55214e-14 -6.98765e-13 -4.38539e-14 1.67173e-14 4.25872e-13 -5.46346e-13 2.15524e-13 -5.02578e-13 -3.21456e-13 -2.71535e-13 -2.58416e-13 -1.79588e-13 -8.49231e-15 -6.1401e-14 -3.95232e-13 1.64968e-13 -9.14223e-13 4.03846e-13 -4.63699e-13 -1.99742e-13 -2.31733e-13 -2.9447e-13 4.2961e-13 4.68978e-13 -2.30691e-13 -2.5921e-13 -5.09159e-13 3.50471e-13 -4.1212e-15 2.9026e-13 -1.47848e-13 -7.35749e-13 2.76073e-14 -7.7474e-14 -6.65251e-13 5.63144e-13 -5.65359e-13 -2.94984e-13 -2.79586e-13 -2.76278e-13 9.50189e-13 -2.84329e-13 -2.97471e-13 0 0 -2.91547e-15 -2.97196e-14 -4.28709e-14 -2.51171e-14 -4.26628e-14 -3.86735e-14 1.63903e-14 -1.90342e-14 1.53535e-14 -2.731e-14 4.43845e-14 -3.21712e-14 5.46248e-14 -4.10999e-14 -1.11188e-14 3.19815e-14 -1.00992e-13 -5.58593e-15 2.18492e-14 -3.23119e-14 1.21962e-14 1.0992e-13 -1.61019e-13 -1.89861e-13 -2.36739e-14 -5.40399e-14 -1.70072e-13 -1.09466e-13 -1.00054e-13 -3.90644e-14 -1.79018e-13 8.31114e-14 6.28463e-15 -2.90523e-13 -1.43501e-13 5.72175e-14 -4.0807e-14 -1.66401e-13 -1.28512e-13 1.10117e-13 -2.9328e-13 2.66371e-13 -7.00737e-14 7.45971e-14 2.91062e-13 -2.28536e-13 -7.20536e-14 -7.89237e-14 -1.66773e-13 -1.62467e-13 -2.23001e-13 2.96534e-13 -4.15854e-13 -1.30631e-13 1.33124e-13 1.21321e-13 1.54048e-15 -1.28462e-13 -4.75277e-14 -3.61804e-13 -1.39303e-13 -9.19317e-14 -8.59011e-14 -8.97697e-14 2.51151e-13 1.01296e-12 7.59423e-12 7.3068e-11 6.62728e-10 5.54983e-09 4.26703e-08 2.99527e-07 1.90792e-06 1.09501e-05 5.61416e-05 0.000254451 0.00100633 0.00341939 0.00981887 0.023532 0.0470742 0.0801354 0.120166 0.16458 0.211742 0.260694 0.310769 0.361733 0.413569 0.465867 0.515249 0.56478 0.611814 0.659258 0.704274 0.747699 0.790559 0.826317 0.861833 0.888518 0.905734 0.92124 0.927952 0.929378 0.931419 0.932681 0.93261 0.932104 0.931488 0.931056 0.930761 0.930461 0.930106 0.929736 0.929451 0.929242 0.929052 0.92882 0.92849 0.927939 0.926873 0.924658 0.919987 0.910324 0.891226 0.855917 0.796077 0.704989 0.582629 0.441071 0.300178 0.180371 0.0939501 0.0424774 0.0171791 0.00648549 0.00235798 0.000838433 0.000293273 0.000101087 3.43391e-05 1.14918e-05 3.78676e-06 1.22803e-06 3.91757e-07 1.22894e-07 3.78969e-08 1.1486e-08 3.42021e-09 9.99922e-10 2.87656e-10 8.09391e-11 2.23361e-11 5.64294e-12 1.62378e-12 8.0558e-13 3.06225e-13 2.23264e-13 -1.26143e-13 5.0913e-13 -5.64067e-13 -1.39548e-13 -1.92568e-13 2.27197e-14 1.34702e-13 -4.30301e-13 5.02108e-15 2.65698e-13 -8.60309e-13 1.45759e-13 -2.97219e-13 -3.18324e-13 3.55209e-14 -9.43364e-13 2.79134e-14 -9.0787e-13 -3.63095e-14 6.39213e-13 5.15071e-14 3.34204e-13 -2.48059e-13 -4.93511e-13 -3.23955e-13 -1.70502e-13 2.5252e-13 -1.14205e-13 -5.64728e-13 8.72893e-13 -1.30307e-12 1.37569e-13 -2.48937e-13 -2.06672e-13 4.27872e-13 -6.4252e-13 -2.88982e-14 8.72136e-14 -7.48385e-13 9.56163e-13 -1.46917e-13 0 0 -2.886e-14 -3.11122e-14 -1.59509e-14 -7.86102e-14 -4.45414e-14 1.54812e-14 -4.65889e-15 4.73999e-14 -9.93022e-14 3.782e-14 -4.51739e-14 2.24775e-14 -6.23459e-14 1.0476e-13 2.90561e-14 -3.4053e-14 3.86916e-14 1.25206e-13 -1.34488e-13 1.28585e-13 4.48283e-14 -3.38872e-13 -6.36693e-14 3.00399e-14 -1.49049e-13 -3.20255e-13 -4.31974e-14 -1.18101e-13 -1.40599e-13 -1.67493e-13 5.94681e-14 -7.45363e-14 -6.47497e-14 1.51552e-13 -4.38931e-13 1.39189e-13 -1.17252e-13 -8.40459e-14 5.87861e-15 -2.79389e-13 5.17626e-13 -4.79221e-13 5.04026e-13 -1.7486e-13 -1.60575e-13 2.98706e-13 -1.47234e-13 -1.1906e-13 -7.60988e-14 -2.11862e-14 -1.0122e-13 -4.97825e-13 1.62575e-13 -3.02932e-14 -2.33746e-13 2.63172e-13 1.25636e-13 2.08782e-13 -3.86887e-13 -2.68678e-13 -5.25391e-13 -1.29146e-13 -6.74292e-14 9.96107e-14 3.91709e-13 8.21711e-13 7.878e-12 7.356e-11 6.62316e-10 5.5493e-09 4.26707e-08 2.99527e-07 1.90792e-06 1.09501e-05 5.61416e-05 0.000254451 0.00100633 0.00341939 0.00981887 0.023532 0.0470742 0.0801354 0.120166 0.16458 0.211742 0.260694 0.310769 0.361733 0.413569 0.465867 0.515249 0.56478 0.611814 0.659258 0.704274 0.747699 0.790559 0.826317 0.861833 0.888518 0.905734 0.92124 0.927952 0.929378 0.931419 0.932681 0.93261 0.932104 0.931488 0.931056 0.930761 0.930461 0.930106 0.929736 0.929451 0.929242 0.929052 0.92882 0.92849 0.927939 0.926873 0.924658 0.919987 0.910324 0.891226 0.855917 0.796077 0.704989 0.582629 0.441071 0.300178 0.180371 0.0939501 0.0424774 0.0171791 0.00648549 0.00235798 0.000838433 0.000293273 0.000101087 3.43391e-05 1.14918e-05 3.78676e-06 1.22803e-06 3.91757e-07 1.22893e-07 3.78982e-08 1.14851e-08 3.41986e-09 1.00074e-09 2.86187e-10 8.20184e-11 2.17884e-11 6.08913e-12 1.96341e-13 1.47707e-12 9.93039e-13 7.58518e-13 9.40693e-13 -9.36564e-13 -4.20883e-13 -5.49768e-14 -2.7939e-13 3.88507e-14 -2.91217e-13 -3.26351e-14 -1.78046e-13 -5.6048e-13 1.3254e-12 -9.53511e-13 2.37826e-13 -3.68343e-13 -6.37111e-13 -3.85126e-13 -1.07883e-12 1.57059e-13 -2.18483e-13 -9.37091e-13 1.99836e-12 -2.1226e-13 -8.19983e-13 3.40521e-13 -6.82005e-13 -2.00999e-14 1.40719e-14 -2.96168e-13 3.0097e-13 -7.70823e-13 7.67417e-13 -7.96293e-13 -4.11438e-13 5.61704e-13 2.19873e-13 8.12698e-14 2.17189e-13 2.30155e-13 -1.82712e-13 -1.16076e-12 2.6935e-13 0
				</DataArray>
				<DataArray Name="VitesseY" type="Float32" format="ascii">