<?xml version="1.0"?>
<VTKFile type="PolyData">
	<PolyData>
		<Piece NumberOfPoints="1206" NumberOfPolys="1000">
			<Points>
				<DataArray type="Float32" NumberOfComponents="3" format="ascii">
 0 0 0 0.005 0 0 0.01 0 0 0.015 0 0 0.02 0 0 0.025 0 0 0.03 0 0 0.035 0 0 0.04 0 0 0.045 0 0 0.05 0 0 0.055 0 0 0.06 0 0 0.065 0 0 0.07 0 0 0.075 0 0 0.08 0 0 0.085 0 0 0.09 0 0 0.095 0 0 0.1 0 0 0.105 0 0 0.11 0 0 0.115 0 0 0.12 0 0 0.125 0 0 0.13 0 0 0.135 0 0 0.14 0 0 0.145 0 0 0.15 0 0 0.155 0 0 0.16 0 0 0.165 0 0 0.17 0 0 0.175 0 0 0.18 0 0 0.185 0 0 0.19 0 0 0.195 0 0 0.2 0 0 0.205 0 0 0.21 0 0 0.215 0 0 0.22 0 0 0.225 0 0 0.23 0 0 0.235 0 0 0.24 0 0 0.245 0 0 0.25 0 0 0.255 0 0 0.26 0 0 0.265 0 0 0.27 0 0 0.275 0 0 0.28 0 0 0.285 0 0 0.29 0 0 0.295 0 0 0.3 0 0 0.305 0 0 0.31 0 0 0.315 0 0 0.32 0 0 0.325 0 0 0.33 0 0 0.335 0 0 0.34 0 0 0.345 0 0 0.35 0 0 0.355 0 0 0.36 0 0 0.365 0 0 0.37 0 0 0.375 0 0 0.38 0 0 0.385 0 0 0.39 0 0 0.395 0 0 0.4 0 0 0.405 0 0 0.41 0 0 0.415 0 0 0.42 0 0 0.425 0 0 0.43 0 0 0.435 0 0 0.44 0 0 0.445 0 0 0.45 0 0 0.455 0 0 0.46 0 0 0.465 0 0 0.47 0 0 0.475 0 0 0.48 0 0 0.485 0 0 0.49 0 0 0.495 0 0 0.5 0 0 0.505 0 0 0.51 0 0 0.515 0 0 0.52 0 0 0.525 0 0 0.53 0 0 0.535 0 0 0.54 0 0 0.545 0 0 0.55 0 0 0.555 0 0 0.56 0 0 0.565 0 0 0.57 0 0 0.575 0 0 0.58 0 0 0.585 0 0 0.59 0 0 0.595 0 0 0.6 0 0 0.605 0 0 0.61 0 0 0.615 0 0 0.62 0 0 0.625 0 0 0.63 0 0 0.635 0 0 0.64 0 0 0.645 0 0 0.65 0 0 0.655 0 0 0.66 0 0 0.665 0 0 0.67 0 0 0.675 0 0 0.68 0 0 0.685 0 0 0.69 0 0 0.695 0 0 0.7 0 0 0.705 0 0 0.71 0 0 0.715 0 0 0.72 0 0 0.725 0 0 0.73 0 0 0.735 0 0 0.74 0 0 0.745 0 0 0.75 0 0 0.755 0 0 0.76 0 0 0.765 0 0 0.77 0 0 0.775 0 0 0.78 0 0 0.785 0 0 0.79 0 0 0.795 0 0 0.8 0 0 0.805 0 0 0.81 0 0 0.815 0 0 0.82 0 0 0.825 0 0 0.83 0 0 0.835 0 0 0.84 0 0 0.845 0 0 0.85 0 0 0.855 0 0 0.86 0 0 0.865 0 0 0.87 0 0 0.875 0 0 0.88 0 0 0.885 0 0 0.89 0 0 0.895 0 0 0.9 0 0 0.905 0 0 0.91 0 0 0.915 0 0 0.92 0 0 0.925 0 0 0.93 0 0 0.935 0 0 0.94 0 0 0.945 0 0 0.95 0 0 0.955 0 0 0.96 0 0 0.965 0 0 0.97 0 0 0.975 0 0 0.98 0 0 0.985 0 0 0.99 0 0 0.995 0 0 1 0 0 0 0.02 0 0.005 0.02 0 0.01 0.02 0 0.015 0.02 0 0.02 0.02 0 0.025 0.02 0 0.03 0.02 0 0.035 0.02 0 0.04 0.02 0 0.045 0.02 0 0.05 0.02 0 0.055 0.02 0 0.06 0.02 0 0.065 0.02 0 0.07 0.02 0 0.075 0.02 0 0.08 0.02 0 0.085 0.02 0 0.09 0.02 0 0.095 0.02 0 0.1 0.02 0 0.105 0.02 0 0.11 0.02 0 0.115 0.02 0 0.12 0.02 0 0.125 0.02 0 0.13 0.02 0 0.135 0.02 0 0.14 0.02 0 0.145 0.02 0 0.15 0.02 0 0.155 0.02 0 0.16 0.02 0 0.165 0.02 0 0.17 0.02 0 0.175 0.02 0 0.18 0.02 0 0.185 0.02 0 0.19 0.02 0 0.195 0.02 0 0.2 0.02 0 0.205 0.02 0 0.21 0.02 0 0.215 0.02 0 0.22 0.02 0 0.225 0.02 0 0.23 0.02 0 0.235 0.02 0 0.24 0.02 0 0.245 0.02 0 0.25 0.02 0 0.255 0.02 0 0.26 0.02 0 0.265 0.02 0 0.27 0.02 0 0.275 0.02 0 0.28 0.02 0 0.285 0.02 0 0.29 0.02 0 0.295 0.02 0 0.3 0.02 0 0.305 0.02 0 0.31 0.02 0 0.315 0.02 0 0.32 0.02 0 0.325 0.02 0 0.33 0.02 0 0.335 0.02 0 0.34 0.02 0 0.345 0.02 0 0.35 0.02 0 0.355 0.02 0 0.36 0.02 0 0.365 0.02 0 0.37 0.02 0 0.375 0.02 0 0.38 0.02 0 0.385 0.02 0 0.39 0.02 0 0.395 0.02 0 0.4 0.02 0 0.405 0.02 0 0.41 0.02 0 0.415 0.02 0 0.42 0.02 0 0.425 0.02 0 0.43 0.02 0 0.435 0.02 0 0.44 0.02 0 0.445 0.02 0 0.45 0.02 0 0.455 0.02 0 0.46 0.02 0 0.465 0.02 0 0.47 0.02 0 0.475 0.02 0 0.48 0.02 0 0.485 0.02 0 0.49 0.02 0 0.495 0.02 0 0.5 0.02 0 0.505 0.02 0 0.51 0.02 0 0.515 0.02 0 0.52 0.02 0 0.525 0.02 0 0.53 0.02 0 0.535 0.02 0 0.54 0.02 0 0.545 0.02 0 0.55 0.02 0 0.555 0.02 0 0.56 0.02 0 0.565 0.02 0 0.57 0.02 0 0.575 0.02 0 0.58 0.02 0 0.585 0.02 0 0.59 0.02 0 0.595 0.02 0 0.6 0.02 0 0.605 0.02 0 0.61 0.02 0 0.615 0.02 0 0.62 0.02 0 0.625 0.02 0 0.63 0.02 0 0.635 0.02 0 0.64 0.02 0 0.645 0.02 0 0.65 0.02 0 0.655 0.02 0 0.66 0.02 0 0.665 0.02 0 0.67 0.02 0 0.675 0.02 0 0.68 0.02 0 0.685 0.02 0 0.69 0.02 0 0.695 0.02 0 0.7 0.02 0 0.705 0.02 0 0.71 0.02 0 0.715 0.02 0 0.72 0.02 0 0.725 0.02 0 0.73 0.02 0 0.735 0.02 0 0.74 0.02 0 0.745 0.02 0 0.75 0.02 0 0.755 0.02 0 0.76 0.02 0 0.765 0.02 0 0.77 0.02 0 0.775 0.02 0 0.78 0.02 0 0.785 0.02 0 0.79 0.02 0 0.795 0.02 0 0.8 0.02 0 0.805 0.02 0 0.81 0.02 0 0.815 0.02 0 0.82 0.02 0 0.825 0.02 0 0.83 0.02 0 0.835 0.02 0 0.84 0.02 0 0.845 0.02 0 0.85 0.02 0 0.855 0.02 0 0.86 0.02 0 0.865 0.02 0 0.87 0.02 0 0.875 0.02 0 0.88 0.02 0 0.885 0.02 0 0.89 0.02 0 0.895 0.02 0 0.9 0.02 0 0.905 0.02 0 0.91 0.02 0 0.915 0.02 0 0.92 0.02 0 0.925 0.02 0 0.93 0.02 0 0.935 0.02 0 0.94 0.02 0 0.945 0.02 0 0.95 0.02 0 0.955 0.02 0 0.96 0.02 0 0.965 0.02 0 0.97 0.02 0 0.975 0.02 0 0.98 0.02 0 0.985 0.02 0 0.99 0.02 0 0.995 0.02 0 1 0.02 0 0 0.04 0 0.005 0.04 0 0.01 0.04 0 0.015 0.04 0 0.02 0.04 0 0.025 0.04 0 0.03 0.04 0 0.035 0.04 0 0.04 0.04 0 0.045 0.04 0 0.05 0.04 0 0.055 0.04 0 0.06 0.04 0 0.065 0.04 0 0.07 0.04 0 0.075 0.04 0 0.08 0.04 0 0.085 0.04 0 0.09 0.04 0 0.095 0.04 0 0.1 0.04 0 0.105 0.04 0 0.11 0.04 0 0.115 0.04 0 0.12 0.04 0 0.125 0.04 0 0.13 0.04 0 0.135 0.04 0 0.14 0.04 0 0.145 0.04 0 0.15 0.04 0 0.155 0.04 0 0.16 0.04 0 0.165 0.04 0 0.17 0.04 0 0.175 0.04 0 0.18 0.04 0 0.185 0.04 0 0.19 0.04 0 0.195 0.04 0 0.2 0.04 0 0.205 0.04 0 0.21 0.04 0 0.215 0.04 0 0.22 0.04 0 0.225 0.04 0 0.23 0.04 0 0.235 0.04 0 0.24 0.04 0 0.245 0.04 0 0.25 0.04 0 0.255 0.04 0 0.26 0.04 0 0.265 0.04 0 0.27 0.04 0 0.275 0.04 0 0.28 0.04 0 0.285 0.04 0 0.29 0.04 0 0.295 0.04 0 0.3 0.04 0 0.305 0.04 0 0.31 0.04 0 0.315 0.04 0 0.32 0.04 0 0.325 0.04 0 0.33 0.04 0 0.335 0.04 0 0.34 0.04 0 0.345 0.04 0 0.35 0.04 0 0.355 0.04 0 0.36 0.04 0 0.365 0.04 0 0.37 0.04 0 0.375 0.04 0 0.38 0.04 0 0.385 0.04 0 0.39 0.04 0 0.395 0.04 0 0.4 0.04 0 0.405 0.04 0 0.41 0.04 0 0.415 0.04 0 0.42 0.04 0 0.425 0.04 0 0.43 0.04 0 0.435 0.04 0 0.44 0.04 0 0.445 0.04 0 0.45 0.04 0 0.455 0.04 0 0.46 0.04 0 0.465 0.04 0 0.47 0.04 0 0.475 0.04 0 0.48 0.04 0 0.485 0.04 0 0.49 0.04 0 0.495 0.04 0 0.5 0.04 0 0.505 0.04 0 0.51 0.04 0 0.515 0.04 0 0.52 0.04 0 0.525 0.04 0 0.53 0.04 0 0.535 0.04 0 0.54 0.04 0 0.545 0.04 0 0.55 0.04 0 0.555 0.04 0 0.56 0.04 0 0.565 0.04 0 0.57 0.04 0 0.575 0.04 0 0.58 0.04 0 0.585 0.04 0 0.59 0.04 0 0.595 0.04 0 0.6 0.04 0 0.605 0.04 0 0.61 0.04 0 0.615 0.04 0 0.62 0.04 0 0.625 0.04 0 0.63 0.04 0 0.635 0.04 0 0.64 0.04 0 0.645 0.04 0 0.65 0.04 0 0.655 0.04 0 0.66 0.04 0 0.665 0.04 0 0.67 0.04 0 0.675 0.04 0 0.68 0.04 0 0.685 0.04 0 0.69 0.04 0 0.695 0.04 0 0.7 0.04 0 0.705 0.04 0 0.71 0.04 0 0.715 0.04 0 0.72 0.04 0 0.725 0.04 0 0.73 0.04 0 0.735 0.04 0 0.74 0.04 0 0.745 0.04 0 0.75 0.04 0 0.755 0.04 0 0.76 0.04 0 0.765 0.04 0 0.77 0.04 0 0.775 0.04 0 0.78 0.04 0 0.785 0.04 0 0.79 0.04 0 0.795 0.04 0 0.8 0.04 0 0.805 0.04 0 0.81 0.04 0 0.815 0.04 0 0.82 0.04 0 0.825 0.04 0 0.83 0.04 0 0.835 0.04 0 0.84 0.04 0 0.845 0.04 0 0.85 0.04 0 0.855 0.04 0 0.86 0.04 0 0.865 0.04 0 0.87 0.04 0 0.875 0.04 0 0.88 0.04 0 0.885 0.04 0 0.89 0.04 0 0.895 0.04 0 0.9 0.04 0 0.905 0.04 0 0.91 0.04 0 0.915 0.04 0 0.92 0.04 0 0.925 0.04 0 0.93 0.04 0 0.935 0.04 0 0.94 0.04 0 0.945 0.04 0 0.95 0.04 0 0.955 0.04 0 0.96 0.04 0 0.965 0.04 0 0.97 0.04 0 0.975 0.04 0 0.98 0.04 0 0.985 0.04 0 0.99 0.04 0 0.995 0.04 0 1 0.04 0 0 0.06 0 0.005 0.06 0 0.01 0.06 0 0.015 0.06 0 0.02 0.06 0 0.025 0.06 0 0.03 0.06 0 0.035 0.06 0 0.04 0.06 0 0.045 0.06 0 0.05 0.06 0 0.055 0.06 0 0.06 0.06 0 0.065 0.06 0 0.07 0.06 0 0.075 0.06 0 0.08 0.06 0 0.085 0.06 0 0.09 0.06 0 0.095 0.06 0 0.1 0.06 0 0.105 0.06 0 0.11 0.06 0 0.115 0.06 0 0.12 0.06 0 0.125 0.06 0 0.13 0.06 0 0.135 0.06 0 0.14 0.06 0 0.145 0.06 0 0.15 0.06 0 0.155 0.06 0 0.16 0.06 0 0.165 0.06 0 0.17 0.06 0 0.175 0.06 0 0.18 0.06 0 0.185 0.06 0 0.19 0.06 0 0.195 0.06 0 0.2 0.06 0 0.205 0.06 0 0.21 0.06 0 0.215 0.06 0 0.22 0.06 0 0.225 0.06 0 0.23 0.06 0 0.235 0.06 0 0.24 0.06 0 0.245 0.06 0 0.25 0.06 0 0.255 0.06 0 0.26 0.06 0 0.265 0.06 0 0.27 0.06 0 0.275 0.06 0 0.28 0.06 0 0.285 0.06 0 0.29 0.06 0 0.295 0.06 0 0.3 0.06 0 0.305 0.06 0 0.31 0.06 0 0.315 0.06 0 0.32 0.06 0 0.325 0.06 0 0.33 0.06 0 0.335 0.06 0 0.34 0.06 0 0.345 0.06 0 0.35 0.06 0 0.355 0.06 0 0.36 0.06 0 0.365 0.06 0 0.37 0.06 0 0.375 0.06 0 0.38 0.06 0 0.385 0.06 0 0.39 0.06 0 0.395 0.06 0 0.4 0.06 0 0.405 0.06 0 0.41 0.06 0 0.415 0.06 0 0.42 0.06 0 0.425 0.06 0 0.43 0.06 0 0.435 0.06 0 0.44 0.06 0 0.445 0.06 0 0.45 0.06 0 0.455 0.06 0 0.46 0.06 0 0.465 0.06 0 0.47 0.06 0 0.475 0.06 0 0.48 0.06 0 0.485 0.06 0 0.49 0.06 0 0.495 0.06 0 0.5 0.06 0 0.505 0.06 0 0.51 0.06 0 0.515 0.06 0 0.52 0.06 0 0.525 0.06 0 0.53 0.06 0 0.535 0.06 0 0.54 0.06 0 0.545 0.06 0 0.55 0.06 0 0.555 0.06 0 0.56 0.06 0 0.565 0.06 0 0.57 0.06 0 0.575 0.06 0 0.58 0.06 0 0.585 0.06 0 0.59 0.06 0 0.595 0.06 0 0.6 0.06 0 0.605 0.06 0 0.61 0.06 0 0.615 0.06 0 0.62 0.06 0 0.625 0.06 0 0.63 0.06 0 0.635 0.06 0 0.64 0.06 0 0.645 0.06 0 0.65 0.06 0 0.655 0.06 0 0.66 0.06 0 0.665 0.06 0 0.67 0.06 0 0.675 0.06 0 0.68 0.06 0 0.685 0.06 0 0.69 0.06 0 0.695 0.06 0 0.7 0.06 0 0.705 0.06 0 0.71 0.06 0 0.715 0.06 0 0.72 0.06 0 0.725 0.06 0 0.73 0.06 0 0.735 0.06 0 0.74 0.06 0 0.745 0.06 0 0.75 0.06 0 0.755 0.06 0 0.76 0.06 0 0.765 0.06 0 0.77 0.06 0 0.775 0.06 0 0.78 0.06 0 0.785 0.06 0 0.79 0.06 0 0.795 0.06 0 0.8 0.06 0 0.805 0.06 0 0.81 0.06 0 0.815 0.06 0 0.82 0.06 0 0.825 0.06 0 0.83 0.06 0 0.835 0.06 0 0.84 0.06 0 0.845 0.06 0 0.85 0.06 0 0.855 0.06 0 0.86 0.06 0 0.865 0.06 0 0.87 0.06 0 0.875 0.06 0 0.88 0.06 0 0.885 0.06 0 0.89 0.06 0 0.895 0.06 0 0.9 0.06 0 0.905 0.06 0 0.91 0.06 0 0.915 0.06 0 0.92 0.06 0 0.925 0.06 0 0.93 0.06 0 0.935 0.06 0 0.94 0.06 0 0.945 0.06 0 0.95 0.06 0 0.955 0.06 0 0.96 0.06 0 0.965 0.06 0 0.97 0.06 0 0.975 0.06 0 0.98 0.06 0 0.985 0.06 0 0.99 0.06 0 0.995 0.06 0 1 0.06 0 0 0.08 0 0.005 0.08 0 0.01 0.08 0 0.015 0.08 0 0.02 0.08 0 0.025 0.08 0 0.03 0.08 0 0.035 0.08 0 0.04 0.08 0 0.045 0.08 0 0.05 0.08 0 0.055 0.08 0 0.06 0.08 0 0.065 0.08 0 0.07 0.08 0 0.075 0.08 0 0.08 0.08 0 0.085 0.08 0 0.09 0.08 0 0.095 0.08 0 0.1 0.08 0 0.105 0.08 0 0.11 0.08 0 0.115 0.08 0 0.12 0.08 0 0.125 0.08 0 0.13 0.08 0 0.135 0.08 0 0.14 0.08 0 0.145 0.08 0 0.15 0.08 0 0.155 0.08 0 0.16 0.08 0 0.165 0.08 0
[...]
			<PointData Scalars="VitesseX">
				<DataArray Name="VitesseX" type="Float32" format="ascii">
 0 -9.50049e-15 -4.18899e-15 -1.42249e-14 -6.1544e-15 5.64814e-15 -6.405e-16 -2.18106e-14 1.52423e-14 -2.36489e-14 -2.06967e-14 2.94435e-14 -7.19065e-14 4.64871e-14 -6.09849e-14 -6.03837e-14 2.01812e-14 1.79319e-14 -4.61014e-14 -3.00254e-14 -8.53171e-14 4.72606e-14 -2.51127e-13 -2.25848e-14 -4.4937e-14 -1.06254e-13 8.05474e-14 -8.56322e-14 1.27396e-13 1.99892e-14 -2.30238e-14 5.06553e-14 -5.91134e-14 2.25899e-14 -2.73143e-14 -2.96107e-13 4.69679e-15 -2.08329e-13 -2.17525e-13 -4.9229e-14 -9.42424e-14 -1.90312e-13 1.35768e-13 -1.60159e-13 -3.65166e-14 -1.83012e-13 9.61905e-14 -6.94926e-14 1.98653e-14 1.18144e-12 7.13096e-12 4.8469e-11 3.0985e-10 1.87689e-09 1.0699e-08 5.72412e-08 2.86577e-07 1.33777e-06 5.79886e-06 2.32298e-05 8.55116e-05 0.000287309 0.000874078 0.00238614 0.00579166 0.0124106 0.0234407 0.0392966 0.0593953 0.0826186 0.107906 0.134508 0.161976 0.190024 0.218449 0.247144 0.276049 0.305129 0.334367 0.363762 0.39332 0.423052 0.452776 0.481824 0.510919 0.539469 0.56807 0.596256 0.62436 0.652237 0.679686 0.707162 0.733818 0.760428 0.786364 0.811251 0.835768 0.857602 0.877656 0.895132 0.90779 0.917976 0.92494 0.927987 0.930267 0.931357 0.931348 0.93125 0.93116 0.931038 0.930839 0.930557 0.93023 0.929908 0.929633 0.929392 0.929175 0.928983 0.928819 0.928682 0.928568 0.928471 0.928388 0.928317 0.928256 0.928202 0.928155 0.928112 0.928072 0.928035 0.928 0.927967 0.927937 0.927909 0.927881 0.927851 0.927815 0.927765 0.927685 0.927537 0.927244 0.926652 0.925449 0.923018 0.918178 0.908741 0.890931 0.858918 0.805221 0.722961 0.610183 0.475352 0.335784 0.211684 0.117031 0.0565295 0.0243908 0.00978633 0.00378193 0.00143613 0.00054065 0.000202462 7.54962e-05 2.80356e-05 1.03654e-05 3.81398e-06 1.39603e-06 5.08077e-07 1.83773e-07 6.60316e-08 2.35585e-08 8.34222e-09 2.93087e-09 1.02113e-09 3.52227e-10 1.20656e-10 4.06222e-11 1.32515e-11 4.2821e-12 1.1075e-12 2.90861e-13 -1.00769e-13 -9.48264e-14 -5.69789e-13 4.36285e-13 2.33444e-13 3.8096e-14 2.64298e-13 -2.51349e-13 3.08575e-13 7.4722e-14 -4.04006e-13 6.06398e-14 3.05701e-13 2.68475e-13 -2.20503e-13 1.90378e-13 5.30568e-13 -5.0291e-13 2.67622e-13 0 0 -2.09329e-15 5.06458e-16 1.17283e-14 -1.02941e-14 -1.69268e-14 1.09565e-14 6.77718e-15 -1.8566e-14 9.18431e-15 6.47936e-15 -4.22852e-14 3.37833e-14 -9.50295e-14 -3.42416e-14 2.55998e-14 -2.53144e-14 -5.71727e-14 -2.56576e-14 -7.62592e-14 -5.69893e-14 -9.95993e-14 2.79622e-14 -1.13074e-13 -7.10428e-14 6.0978e-14 -1.46793e-13 9.74067e-14 -7.16748e-14 6.23193e-14 4.05233e-14 1.98843e-14 -9.29782e-15 -6.5037e-14 -1.87933e-13 4.82995e-14 -2.22915e-13 -5.36429e-14 -5.62156e-14 -1.72811e-13 -6.10764e-14 -6.89146e-14 -2.05731e-13 1.93202e-14 -4.30741e-14 6.19612e-14 -1.80195e-13 -6.88376e-14 1.891e-13 8.57307e-13 7.27074e-12 4.83582e-11 3.09997e-10 1.87719e-09 1.06985e-08 5.72412e-08 2.86578e-07 1.33777e-06 5.79886e-06 2.32298e-05 8.55116e-05 0.000287309 0.000874078 0.00238614 0.00579166 0.0124106 0.0234407 0.0392966 0.0593953 0.0826186 0.107906 0.134508 0.161976 0.190024 0.218449 0.247144 0.276049 0.305129 0.334367 0.363762 0.39332 0.423052 0.452776 0.481824 0.510919 0.539469 0.56807 0.596256 0.62436 0.652237 0.679686 0.707162 0.733818 0.760428 0.786364 0.811251 0.835768 0.857602 0.877656 0.895132 0.90779 0.917976 0.92494 0.927987 0.930267 0.931357 0.931348 0.93125 0.93116 0.931038 0.930839 0.930557 0.93023 0.929908 0.929633 0.929392 0.929175 0.928983 0.928819 0.928682 0.928568 0.928471 0.928388 0.928317 0.928256 0.928202 0.928155 0.928112 0.928072 0.928035 0.928 0.927967 0.927937 0.927909 0.927881 0.927851 0.927815 0.927765 0.927685 0.927537 0.927244 0.926652 0.925449 0.923018 0.918178 0.908741 0.890931 0.858918 0.805221 0.722961 0.610183 0.475352 0.335784 0.211684 0.117031 0.0565295 0.0243908 0.00978633 0.00378193 0.00143613 0.00054065 0.000202462 7.54962e-05 2.80356e-05 1.03654e-05 3.81398e-06 1.39603e-06 5.08077e-07 1.83773e-07 6.60314e-08 2.35586e-08 8.34237e-09 2.93074e-09 1.02126e-09 3.52523e-10 1.20285e-10 4.06433e-11 1.34592e-11 4.08258e-12 1.15828e-12 -9.15048e-14 -2.09357e-14 -1.50223e-14 2.67792e-13 -1.05562e-13 5.47565e-14 6.96647e-14 -1.2747e-13 3.97664e-13 -1.79267e-13 -9.70985e-14 1.03119e-13 2.95105e-13 -1.26946e-13 2.29896e-13 2.37609e-13 -1.135e-13 1.483e-13 2.99332e-13 2.50543e-13 0 0 4.4718e-16 5.077e-15 -2.83685e-15 2.50804e-14 3.6314e-14 1.08802e-15 -1.51885e-14 2.18568e-14 8.11321e-15 -1.71221e-14 -9.38939e-15 -3.49173e-14 -2.84743e-14 -6.51925e-14 -3.86634e-14 -4.26927e-14 -4.35186e-14 -9.38544e-14 -8.79117e-14 -6.28172e-15 -8.69689e-14 -9.11913e-14 -6.98622e-14 -1.89632e-14 6.17359e-14 5.43827e-14 -1.58909e-13 1.13322e-13 -4.20854e-14 4.41513e-14 -7.57706e-14 1.91033e-14 -1.39943e-13 -6.89286e-14 -1.0614e-13 3.94036e-14 -1.16391e-13 -7.31584e-14 -1.67689e-13 -6.89787e-14 -4.65856e-14 -7.40479e-14 -4.27995e-14 -5.62887e-14 -6.50974e-14 -1.08725e-13 3.42878e-14 2.02043e-14 1.09544e-12 7.30935e-12 4.82226e-11 3.09985e-10 1.87702e-09 1.06989e-08 5.72411e-08 2.86577e-07 1.33777e-06 5.79886e-06 2.32298e-05 8.55116e-05 0.000287309 0.000874078 0.00238614 0.00579166 0.0124106 0.0234407 0.0392966 0.0593953 0.0826186 0.107906 0.134508 0.161976 0.190024 0.218449 0.247144 0.276049 0.305129 0.334367 0.363762 0.39332 0.423052 0.452776 0.481824 0.510919 0.539469 0.56807 0.596256 0.62436 0.652237 0.679686 0.707162 0.733818 0.760428 0.786364 0.811251 0.835768 0.857602 0.877656 0.895132 0.90779 0.917976 0.92494 0.927987 0.930267 0.931357 0.931348 0.93125 0.93116 0.931038 0.930839 0.930557 0.93023 0.929908 0.929633 0.929392 0.929175 0.928983 0.928819 0.928682 0.928568 0.928471 0.928388 0.928317 0.928256 0.928202 0.928155 0.928112 0.928072 0.928035 0.928 0.927967 0.927937 0.927909 0.927881 0.927851 0.927815 0.927765 0.927685 0.927537 0.927244 0.926652 0.925449 0.923018 0.918178 0.908741 0.890931 0.858918 0.805221 0.722961 0.610183 0.475352 0.335784 0.211684 0.117031 0.0565295 0.0243908 0.00978633 0.00378193 0.00143613 0.00054065 0.000202462 7.54962e-05 2.80356e-05 1.03654e-05 3.81398e-06 1.39603e-06 5.08077e-07 1.83773e-07 6.60316e-08 2.35588e-08 8.34254e-09 2.93075e-09 1.02116e-09 3.52673e-10 1.20568e-10 4.06879e-11 1.34631e-11 4.20969e-12 6.82663e-13 2.80877e-13 -2.14836e-13 2.04012e-13 -1.03093e-13 -3.58046e-15 -5.89084e-16 2.2218e-13 -3.6646e-14 4.59154e-14 1.97878e-13 -9.29172e-15 5.16862e-13 -2.24526e-13 -1.09816e-13 3.76203e-13 3.01863e-13 -1.5315e-13 -2.30935e-13 3.2065e-13 2.73397e-13 0 0 1.17456e-15 -1.19872e-14 -4.66246e-16 1.32199e-14 1.74755e-14 1.31443e-14 3.59981e-14 8.04377e-15 1.80783e-14 9.29261e-15 -1.41936e-14 -5.06844e-14 -1.90457e-14 -9.13932e-14 -6.30651e-14 -5.20751e-14 -7.36826e-14 -1.07803e-13 -1.02588e-13 -6.6402e-14 5.08888e-14 -8.58005e-14 -3.98391e-14 -6.24446e-14 -1.54694e-13 9.82179e-14 -6.30879e-14 9.13146e-14 -4.76044e-14 4.33615e-14 1.48693e-14 -8.18213e-14 -6.59712e-14 1.89054e-14 -1.81891e-13 -8.72343e-14 -2.94499e-14 -1.72952e-13 -3.20958e-14 -1.24518e-13 -8.59239e-14 -2.83545e-14 -1.49437e-13 -1.11339e-13 -7.25722e-14 1.91198e-13 -1.69279e-13 1.04626e-14 1.10934e-12 7.11924e-12 4.85203e-11 3.09956e-10 1.87699e-09 1.0699e-08 5.72412e-08 2.86578e-07 1.33777e-06 5.79886e-06 2.32298e-05 8.55116e-05 0.000287309 0.000874078 0.00238614 0.00579166 0.0124106 0.0234407 0.0392966 0.0593953 0.0826186 0.107906 0.134508 0.161976 0.190024 0.218449 0.247144 0.276049 0.305129 0.334367 0.363762 0.39332 0.423052 0.452776 0.481824 0.510919 0.539469 0.56807 0.596256 0.62436 0.652237 0.679686 0.707162 0.733818 0.760428 0.786364 0.811251 0.835768 0.857602 0.877656 0.895132 0.90779 0.917976 0.92494 0.927987 0.930267 0.931357 0.931348 0.93125 0.93116 0.931038 0.930839 0.930557 0.93023 0.929908 0.929633 0.929392 0.929175 0.928983 0.928819 0.928682 0.928568 0.928471 0.928388 0.928317 0.928256 0.928202 0.928155 0.928112 0.928072 0.928035 0.928 0.927967 0.927937 0.927909 0.927881 0.927851 0.927815 0.927765 0.927685 0.927537 0.927244 0.926652 0.925449 0.923018 0.918178 0.908741 0.890931 0.858918 0.805221 0.722961 0.610183 0.475352 0.335784 0.211684 0.117031 0.0565295 0.0243908 0.00978633 0.00378193 0.00143613 0.00054065 0.000202462 7.54962e-05 2.80356e-05 1.03654e-05 3.81398e-06 1.39603e-06 5.08077e-07 1.83773e-07 6.60315e-08 2.35587e-08 8.34249e-09 2.93091e-09 1.02093e-09 3.52819e-10 1.20802e-10 4.0566e-11 1.34855e-11 4.21767e-12 9.43253e-13 2.07443e-13 -7.00738e-14 9.31899e-14 -4.73647e-13 1.87185e-13 6.03998e-14 2.16425e-13 1.44332e-13 2.69554e-13 -3.46373e-13 -2.48263e-13 6.50521e-14 1.55423e-13 -2.32212e-13 3.34003e-13 -1.52986e-13 2.38573e-13 2.74721e-13 -8.48864e-13 -1.02894e-13 0 0 2.46365e-15 -9.29554e-15 1.1611e-14 -8.09856e-15 -2.688e-14 2.31256e-14 5.73861e-14 -1.33459e-14 1.4072e-14 1.27538e-14 -6.49098e-14 1.73395e-14 -9.06433e-14 -4.64622e-14 -2.23414e-14 -1.18033e-13 -8.67201e-14 -9.28398e-15 -9.00837e-14 -8.96272e-14 -2.90307e-14 8.32086e-14 -1.15381e-13 -9.72674e-14 -9.66025e-14 -1.08912e-13 1.56091e-13 -1.71948e-13 1.18293e-13 6.40254e-14 -9.83709e-15 -1.05404e-13 -1.92667e-14 -1.09216e-13 6.26537e-14 -2.78744e-13 -7.31379e-14 -1.90341e-13 -1.0016e-13 -9.72513e-14 -7.31522e-14 -1.3686e-13 1.34547e-14 -9.53797e-14 4.64489e-14 6.6945e-14 -1.88262e-13 1.39887e-13 8.92767e-13 7.19806e-12 4.84639e-11 3.10176e-10 1.87715e-09 1.06987e-08 5.72413e-08 2.86578e-07 1.33777e-06 5.79886e-06 2.32298e-05 8.55116e-05 0.000287309 0.000874078 0.00238614 0.00579166 0.0124106 0.0234407 0.0392966 0.0593953 0.0826186 0.107906 0.134508 0.161976 0.190024 0.218449 0.247144 0.276049 0.305129 0.334367 0.363762 0.39332 0.423052 0.452776 0.481824 0.510919 0.539469 0.56807 0.596256 0.62436 0.652237 0.679686 0.707162 0.733818 0.760428 0.786364 0.811251 0.835768 0.857602 0.877656 0.895132 0.90779 0.917976 0.92494 0.927987 0.930267 0.931357 0.931348 0.93125 0.93116 0.931038 0.930839 0.930557 0.93023 0.929908 0.929633 0.929392 0.929175 0.928983 0.928819 0.928682 0.928568 0.928471 0.928388 0.928317 0.928256 0.928202 0.928155 0.928112 0.928072 0.928035 0.928 0.927967 0.927937 0.927909 0.927881 0.927851 0.927815 0.927765 0.927685 0.927537 0.927244 0.926652 0.925449 0.923018 0.918178 0.908741 0.890931 0.858918 0.805221 0.722961 0.610183 0.475352 0.335784 0.211684 0.117031 0.0565295 0.0243908 0.00978633 0.00378193 0.00143613 0.00054065 0.000202462 7.54962e-05 2.80356e-05 1.03654e-05 3.81398e-06 1.39603e-06 5.08077e-07 1.83773e-07 6.60316e-08 2.35585e-08 8.34239e-09 2.93112e-09 1.02115e-09 3.52726e-10 1.20406e-10 4.08919e-11 1.32421e-11 4.27179e-12 9.21258e-13 -2.18716e-13 3.28251e-13 -2.81574e-13 -2.23227e-13 2.57319e-13 -2.36675e-13 -1.37564e-13 -1.71637e-13 4.84587e-13 -1.0228e-13 -2.16789e-13 8.23088e-14 2.71775e-13 -2.9767e-13 1.05108e-13 5.64545e-14 3.76883e-14 2.85713e-13 -1.98481e-13 -2.96994e-13 0 0 -1.84137e-15 1.03355e-14 -1.92008e-14 2.19577e-14 2.34185e-14 -4.15007e-16 -2.2966e-14 5.33086e-14 -3.38038e-14 -6.09772e-14 -6.19728e-15 -7.32599e-14 3.64023e-14 -3.30247e-14 -1.07463e-13 -1.46492e-13 1.9165e-14 1.45432e-14 -2.83216e-14 -3.03522e-14 -8.73176e-14 -1.51416e-13 -8.72446e-14 -1.04234e-14 1.14448e-14 6.86385e-14 -1.59906e-13 -2.9137e-14 1.42974e-13 2.556e-14 -1.90067e-13 -4.94773e-14 -3.38137e-14 -4.55489e-14 -1.15896e-13 1.46315e-13 -4.21202e-13 -2.86188e-13 -1.75114e-13 -5.55146e-14 -1.2011e-13 1.82124e-13 4.13849e-14 -3.10263e-14 -1.99087e-13 -9.37524e-15 9.87915e-14 -5.90762e-14 1.22456e-12 7.36581e-12 4.80849e-11 3.10266e-10 1.87689e-09 1.06993e-08 5.72412e-08 2.86577e-07 1.33777e-06 5.79886e-06 2.32298e-05 8.55116e-05 0.000287309 0.000874078 0.00238614 0.00579166 0.0124106 0.0234407 0.0392966 0.0593953 0.0826186 0.107906 0.134508 0.161976 0.190024 0.218449 0.247144 0.276049 0.305129 0.334367 0.363762 0.39332 0.423052 0.452776 0.481824 0.510919 0.539469 0.56807 0.596256 0.62436 0.652237 0.679686 0.707162 0.733818 0.760428 0.786364 0.811251 0.835768 0.857602 0.877656 0.895132 0.90779 0.917976 0.92494 0.927987 0.930267 0.931357 0.931348 0.93125 0.93116 0.931038 0.930839 0.930557 0.93023 0.929908 0.929633 0.929392 0.929175 0.928983 0.928819 0.928682 0.928568 0.928471 0.928388 0.928317 0.928256 0.928202 0.928155 0.928112 0.928072 0.928035 0.928 0.927967 0.927937 0.927909 0.927881 0.927851 0.927815 0.927765 0.927685 0.927537 0.927244 0.926652 0.925449 0.923018 0.918178 0.908741 0.890931 0.858918 0.805221 0.722961 0.610183 0.475352 0.335784 0.211684 0.117031 0.0565295 0.0243908 0.00978633 0.00378193 0.00143613 0.00054065 0.000202462 7.54962e-05 2.80356e-05 1.03654e-05 3.81398e-06 1.39603e-06 5.08077e-07 1.83772e-07 6.60319e-08 2.35586e-08 8.34234e-09 2.93132e-09 1.02138e-09 3.5234e-10 1.20432e-10 4.13634e-11 1.27723e-11 4.64456e-12 1.12285e-13 1.83307e-13 3.08081e-13 -4.06285e-13 -8.10719e-13 7.80516e-13 -4.71397e-13 -3.6485e-13 -1.85994e-13 -5.24779e-13 1.55105e-12 3.13282e-13 4.57992e-13 -7.45917e-13 2.09044e-13 1.03301e-13 3.26884e-13 -2.90692e-13 -2.05918e-13 8.40492e-13 -7.48681e-14 0
				</DataArray>
				<DataArray Name="VitesseY" type="Float32" format="ascii">