<?xml version="1.0"?>
<VTKFile type="PolyData">
	<PolyData>
		<Piece NumberOfPoints="1206" NumberOfPolys="1000">
			<Points>
				<DataArray type="Float32" NumberOfComponents="3" format="ascii">
 0 0 0 0.005 0 0 0.01 0 0 0.015 0 0 0.02 0 0 0.025 0 0 0.03 0 0 0.035 0 0 0.04 0 0 0.045 0 0 0.05 0 0 0.055 0 0 0.06 0 0 0.065 0 0 0.07 0 0 0.075 0 0 0.08 0 0 0.085 0 0 0.09 0 0 0.095 0 0 0.1 0 0 0.105 0 0 0.11 0 0 0.115 0 0 0.12 0 0 0.125 0 0 0.13 0 0 0.135 0 0 0.14 0 0 0.145 0 0 0.15 0 0 0.155 0 0 0.16 0 0 0.165 0 0 0.17 0 0 0.175 0 0 0.18 0 0 0.185 0 0 0.19 0 0 0.195 0 0 0.2 0 0 0.205 0 0 0.21 0 0 0.215 0 0 0.22 0 0 0.225 0 0 0.23 0 0 0.235 0 0 0.24 0 0 0.245 0 0 0.25 0 0 0.255 0 0 0.26 0 0 0.265 0 0 0.27 0 0 0.275 0 0 0.28 0 0 0.285 0 0 0.29 0 0 0.295 0 0 0.3 0 0 0.305 0 0 0.31 0 0 0.315 0 0 0.32 0 0 0.325 0 0 0.33 0 0 0.335 0 0 0.34 0 0 0.345 0 0 0.35 0 0 0.355 0 0 0.36 0 0 0.365 0 0 0.37 0 0 0.375 0 0 0.38 0 0 0.385 0 0 0.39 0 0 0.395 0 0 0.4 0 0 0.405 0 0 0.41 0 0 0.415 0 0 0.42 0 0 0.425 0 0 0.43 0 0 0.435 0 0 0.44 0 0 0.445 0 0 0.45 0 0 0.455 0 0 0.46 0 0 0.465 0 0 0.47 0 0 0.475 0 0 0.48 0 0 0.485 0 0 0.49 0 0 0.495 0 0 0.5 0 0 0.505 0 0 0.51 0 0 0.515 0 0 0.52 0 0 0.525 0 0 0.53 0 0 0.535 0 0 0.54 0 0 0.545 0 0 0.55 0 0 0.555 0 0 0.56 0 0 0.565 0 0 0.57 0 0 0.575 0 0 0.58 0 0 0.585 0 0 0.59 0 0 0.595 0 0 0.6 0 0 0.605 0 0 0.61 0 0 0.615 0 0 0.62 0 0 0.625 0 0 0.63 0 0 0.635 0 0 0.64 0 0 0.645 0 0 0.65 0 0 0.655 0 0 0.66 0 0 0.665 0 0 0.67 0 0 0.675 0 0 0.68 0 0 0.685 0 0 0.69 0 0 0.695 0 0 0.7 0 0 0.705 0 0 0.71 0 0 0.715 0 0 0.72 0 0 0.725 0 0 0.73 0 0 0.735 0 0 0.74 0 0 0.745 0 0 0.75 0 0 0.755 0 0 0.76 0 0 0.765 0 0 0.77 0 0 0.775 0 0 0.78 0 0 0.785 0 0 0.79 0 0 0.795 0 0 0.8 0 0 0.805 0 0 0.81 0 0 0.815 0 0 0.82 0 0 0.825 0 0 0.83 0 0 0.835 0 0 0.84 0 0 0.845 0 0 0.85 0 0 0.855 0 0 0.86 0 0 0.865 0 0 0.87 0 0 0.875 0 0 0.88 0 0 0.885 0 0 0.89 0 0 0.895 0 0 0.9 0 0 0.905 0 0 0.91 0 0 0.915 0 0 0.92 0 0 0.925 0 0 0.93 0 0 0.935 0 0 0.94 0 0 0.945 0 0 0.95 0 0 0.955 0 0 0.96 0 0 0.965 0 0 0.97 0 0 0.975 0 0 0.98 0 0 0.985 0 0 0.99 0 0 0.995 0 0 1 0 0 0 0.02 0 0.005 0.02 0 0.01 0.02 0 0.015 0.02 0 0.02 0.02 0 0.025 0.02 0 0.03 0.02 0 0.035 0.02 0 0.04 0.02 0 0.045 0.02 0 0.05 0.02 0 0.055 0.02 0 0.06 0.02 0 0.065 0.02 0 0.07 0.02 0 0.075 0.02 0 0.08 0.02 0 0.085 0.02 0 0.09 0.02 0 0.095 0.02 0 0.1 0.02 0 0.105 0.02 0 0.11 0.02 0 0.115 0.02 0 0.12 0.02 0 0.125 0.02 0 0.13 0.02 0 0.135 0.02 0 0.14 0.02 0 0.145 0.02 0 0.15 0.02 0 0.155 0.02 0 0.16 0.02 0 0.165 0.02 0 0.17 0.02 0 0.175 0.02 0 0.18 0.02 0 0.185 0.02 0 0.19 0.02 0 0.195 0.02 0 0.2 0.02 0 0.205 0.02 0 0.21 0.02 0 0.215 0.02 0 0.22 0.02 0 0.225 0.02 0 0.23 0.02 0 0.235 0.02 0 0.24 0.02 0 0.245 0.02 0 0.25 0.02 0 0.255 0.02 0 0.26 0.02 0 0.265 0.02 0 0.27 0.02 0 0.275 0.02 0 0.28 0.02 0 0.285 0.02 0 0.29 0.02 0 0.295 0.02 0 0.3 0.02 0 0.305 0.02 0 0.31 0.02 0 0.315 0.02 0 0.32 0.02 0 0.325 0.02 0 0.33 0.02 0 0.335 0.02 0 0.34 0.02 0 0.345 0.02 0 0.35 0.02 0 0.355 0.02 0 0.36 0.02 0 0.365 0.02 0 0.37 0.02 0 0.375 0.02 0 0.38 0.02 0 0.385 0.02 0 0.39 0.02 0 0.395 0.02 0 0.4 0.02 0 0.405 0.02 0 0.41 0.02 0 0.415 0.02 0 0.42 0.02 0 0.425 0.02 0 0.43 0.02 0 0.435 0.02 0 0.44 0.02 0 0.445 0.02 0 0.45 0.02 0 0.455 0.02 0 0.46 0.02 0 0.465 0.02 0 0.47 0.02 0 0.475 0.02 0 0.48 0.02 0 0.485 0.02 0 0.49 0.02 0 0.495 0.02 0 0.5 0.02 0 0.505 0.02 0 0.51 0.02 0 0.515 0.02 0 0.52 0.02 0 0.525 0.02 0 0.53 0.02 0 0.535 0.02 0 0.54 0.02 0 0.545 0.02 0 0.55 0.02 0 0.555 0.02 0 0.56 0.02 0 0.565 0.02 0 0.57 0.02 0 0.575 0.02 0 0.58 0.02 0 0.585 0.02 0 0.59 0.02 0 0.595 0.02 0 0.6 0.02 0 0.605 0.02 0 0.61 0.02 0 0.615 0.02 0 0.62 0.02 0 0.625 0.02 0 0.63 0.02 0 0.635 0.02 0 0.64 0.02 0 0.645 0.02 0 0.65 0.02 0 0.655 0.02 0 0.66 0.02 0 0.665 0.02 0 0.67 0.02 0 0.675 0.02 0 0.68 0.02 0 0.685 0.02 0 0.69 0.02 0 0.695 0.02 0 0.7 0.02 0 0.705 0.02 0 0.71 0.02 0 0.715 0.02 0 0.72 0.02 0 0.725 0.02 0 0.73 0.02 0 0.735 0.02 0 0.74 0.02 0 0.745 0.02 0 0.75 0.02 0 0.755 0.02 0 0.76 0.02 0 0.765 0.02 0 0.77 0.02 0 0.775 0.02 0 0.78 0.02 0 0.785 0.02 0 0.79 0.02 0 0.795 0.02 0 0.8 0.02 0 0.805 0.02 0 0.81 0.02 0 0.815 0.02 0 0.82 0.02 0 0.825 0.02 0 0.83 0.02 0 0.835 0.02 0 0.84 0.02 0 0.845 0.02 0 0.85 0.02 0 0.855 0.02 0 0.86 0.02 0 0.865 0.02 0 0.87 0.02 0 0.875 0.02 0 0.88 0.02 0 0.885 0.02 0 0.89 0.02 0 0.895 0.02 0 0.9 0.02 0 0.905 0.02 0 0.91 0.02 0 0.915 0.02 0 0.92 0.02 0 0.925 0.02 0 0.93 0.02 0 0.935 0.02 0 0.94 0.02 0 0.945 0.02 0 0.95 0.02 0 0.955 0.02 0 0.96 0.02 0 0.965 0.02 0 0.97 0.02 0 0.975 0.02 0 0.98 0.02 0 0.985 0.02 0 0.99 0.02 0 0.995 0.02 0 1 0.02 0 0 0.04 0 0.005 0.04 0 0.01 0.04 0 0.015 0.04 0 0.02 0.04 0 0.025 0.04 0 0.03 0.04 0 0.035 0.04 0 0.04 0.04 0 0.045 0.04 0 0.05 0.04 0 0.055 0.04 0 0.06 0.04 0 0.065 0.04 0 0.07 0.04 0 0.075 0.04 0 0.08 0.04 0 0.085 0.04 0 0.09 0.04 0 0.095 0.04 0 0.1 0.04 0 0.105 0.04 0 0.11 0.04 0 0.115 0.04 0 0.12 0.04 0 0.125 0.04 0 0.13 0.04 0 0.135 0.04 0 0.14 0.04 0 0.145 0.04 0 0.15 0.04 0 0.155 0.04 0 0.16 0.04 0 0.165 0.04 0 0.17 0.04 0 0.175 0.04 0 0.18 0.04 0 0.185 0.04 0 0.19 0.04 0 0.195 0.04 0 0.2 0.04 0 0.205 0.04 0 0.21 0.04 0 0.215 0.04 0 0.22 0.04 0 0.225 0.04 0 0.23 0.04 0 0.235 0.04 0 0.24 0.04 0 0.245 0.04 0 0.25 0.04 0 0.255 0.04 0 0.26 0.04 0 0.265 0.04 0 0.27 0.04 0 0.275 0.04 0 0.28 0.04 0 0.285 0.04 0 0.29 0.04 0 0.295 0.04 0 0.3 0.04 0 0.305 0.04 0 0.31 0.04 0 0.315 0.04 0 0.32 0.04 0 0.325 0.04 0 0.33 0.04 0 0.335 0.04 0 0.34 0.04 0 0.345 0.04 0 0.35 0.04 0 0.355 0.04 0 0.36 0.04 0 0.365 0.04 0 0.37 0.04 0 0.375 0.04 0 0.38 0.04 0 0.385 0.04 0 0.39 0.04 0 0.395 0.04 0 0.4 0.04 0 0.405 0.04 0 0.41 0.04 0 0.415 0.04 0 0.42 0.04 0 0.425 0.04 0 0.43 0.04 0 0.435 0.04 0 0.44 0.04 0 0.445 0.04 0 0.45 0.04 0 0.455 0.04 0 0.46 0.04 0 0.465 0.04 0 0.47 0.04 0 0.475 0.04 0 0.48 0.04 0 0.485 0.04 0 0.49 0.04 0 0.495 0.04 0 0.5 0.04 0 0.505 0.04 0 0.51 0.04 0 0.515 0.04 0 0.52 0.04 0 0.525 0.04 0 0.53 0.04 0 0.535 0.04 0 0.54 0.04 0 0.545 0.04 0 0.55 0.04 0 0.555 0.04 0 0.56 0.04 0 0.565 0.04 0 0.57 0.04 0 0.575 0.04 0 0.58 0.04 0 0.585 0.04 0 0.59 0.04 0 0.595 0.04 0 0.6 0.04 0 0.605 0.04 0 0.61 0.04 0 0.615 0.04 0 0.62 0.04 0 0.625 0.04 0 0.63 0.04 0 0.635 0.04 0 0.64 0.04 0 0.645 0.04 0 0.65 0.04 0 0.655 0.04 0 0.66 0.04 0 0.665 0.04 0 0.67 0.04 0 0.675 0.04 0 0.68 0.04 0 0.685 0.04 0 0.69 0.04 0 0.695 0.04 0 0.7 0.04 0 0.705 0.04 0 0.71 0.04 0 0.715 0.04 0 0.72 0.04 0 0.725 0.04 0 0.73 0.04 0 0.735 0.04 0 0.74 0.04 0 0.745 0.04 0 0.75 0.04 0 0.755 0.04 0 0.76 0.04 0 0.765 0.04 0 0.77 0.04 0 0.775 0.04 0 0.78 0.04 0 0.785 0.04 0 0.79 0.04 0 0.795 0.04 0 0.8 0.04 0 0.805 0.04 0 0.81 0.04 0 0.815 0.04 0 0.82 0.04 0 0.825 0.04 0 0.83 0.04 0 0.835 0.04 0 0.84 0.04 0 0.845 0.04 0 0.85 0.04 0 0.855 0.04 0 0.86 0.04 0 0.865 0.04 0 0.87 0.04 0 0.875 0.04 0 0.88 0.04 0 0.885 0.04 0 0.89 0.04 0 0.895 0.04 0 0.9 0.04 0 0.905 0.04 0 0.91 0.04 0 0.915 0.04 0 0.92 0.04 0 0.925 0.04 0 0.93 0.04 0 0.935 0.04 0 0.94 0.04 0 0.945 0.04 0 0.95 0.04 0 0.955 0.04 0 0.96 0.04 0 0.965 0.04 0 0.97 0.04 0 0.975 0.04 0 0.98 0.04 0 0.985 0.04 0 0.99 0.04 0 0.995 0.04 0 1 0.04 0 0 0.06 0 0.005 0.06 0 0.01 0.06 0 0.015 0.06 0 0.02 0.06 0 0.025 0.06 0 0.03 0.06 0 0.035 0.06 0 0.04 0.06 0 0.045 0.06 0 0.05 0.06 0 0.055 0.06 0 0.06 0.06 0 0.065 0.06 0 0.07 0.06 0 0.075 0.06 0 0.08 0.06 0 0.085 0.06 0 0.09 0.06 0 0.095 0.06 0 0.1 0.06 0 0.105 0.06 0 0.11 0.06 0 0.115 0.06 0 0.12 0.06 0 0.125 0.06 0 0.13 0.06 0 0.135 0.06 0 0.14 0.06 0 0.145 0.06 0 0.15 0.06 0 0.155 0.06 0 0.16 0.06 0 0.165 0.06 0 0.17 0.06 0 0.175 0.06 0 0.18 0.06 0 0.185 0.06 0 0.19 0.06 0 0.195 0.06 0 0.2 0.06 0 0.205 0.06 0 0.21 0.06 0 0.215 0.06 0 0.22 0.06 0 0.225 0.06 0 0.23 0.06 0 0.235 0.06 0 0.24 0.06 0 0.245 0.06 0 0.25 0.06 0 0.255 0.06 0 0.26 0.06 0 0.265 0.06 0 0.27 0.06 0 0.275 0.06 0 0.28 0.06 0 0.285 0.06 0 0.29 0.06 0 0.295 0.06 0 0.3 0.06 0 0.305 0.06 0 0.31 0.06 0 0.315 0.06 0 0.32 0.06 0 0.325 0.06 0 0.33 0.06 0 0.335 0.06 0 0.34 0.06 0 0.345 0.06 0 0.35 0.06 0 0.355 0.06 0 0.36 0.06 0 0.365 0.06 0 0.37 0.06 0 0.375 0.06 0 0.38 0.06 0 0.385 0.06 0 0.39 0.06 0 0.395 0.06 0 0.4 0.06 0 0.405 0.06 0 0.41 0.06 0 0.415 0.06 0 0.42 0.06 0 0.425 0.06 0 0.43 0.06 0 0.435 0.06 0 0.44 0.06 0 0.445 0.06 0 0.45 0.06 0 0.455 0.06 0 0.46 0.06 0 0.465 0.06 0 0.47 0.06 0 0.475 0.06 0 0.48 0.06 0 0.485 0.06 0 0.49 0.06 0 0.495 0.06 0 0.5 0.06 0 0.505 0.06 0 0.51 0.06 0 0.515 0.06 0 0.52 0.06 0 0.525 0.06 0 0.53 0.06 0 0.535 0.06 0 0.54 0.06 0 0.545 0.06 0 0.55 0.06 0 0.555 0.06 0 0.56 0.06 0 0.565 0.06 0 0.57 0.06 0 0.575 0.06 0 0.58 0.06 0 0.585 0.06 0 0.59 0.06 0 0.595 0.06 0 0.6 0.06 0 0.605 0.06 0 0.61 0.06 0 0.615 0.06 0 0.62 0.06 0 0.625 0.06 0 0.63 0.06 0 0.635 0.06 0 0.64 0.06 0 0.645 0.06 0 0.65 0.06 0 0.655 0.06 0 0.66 0.06 0 0.665 0.06 0 0.67 0.06 0 0.675 0.06 0 0.68 0.06 0 0.685 0.06 0 0.69 0.06 0 0.695 0.06 0 0.7 0.06 0 0.705 0.06 0 0.71 0.06 0 0.715 0.06 0 0.72 0.06 0 0.725 0.06 0 0.73 0.06 0 0.735 0.06 0 0.74 0.06 0 0.745 0.06 0 0.75 0.06 0 0.755 0.06 0 0.76 0.06 0 0.765 0.06 0 0.77 0.06 0 0.775 0.06 0 0.78 0.06 0 0.785 0.06 0 0.79 0.06 0 0.795 0.06 0 0.8 0.06 0 0.805 0.06 0 0.81 0.06 0 0.815 0.06 0 0.82 0.06 0 0.825 0.06 0 0.83 0.06 0 0.835 0.06 0 0.84 0.06 0 0.845 0.06 0 0.85 0.06 0 0.855 0.06 0 0.86 0.06 0 0.865 0.06 0 0.87 0.06 0 0.875 0.06 0 0.88 0.06 0 0.885 0.06 0 0.89 0.06 0 0.895 0.06 0 0.9 0.06 0 0.905 0.06 0 0.91 0.06 0 0.915 0.06 0 0.92 0.06 0 0.925 0.06 0 0.93 0.06 0 0.935 0.06 0 0.94 0.06 0 0.945 0.06 0 0.95 0.06 0 0.955 0.06 0 0.96 0.06 0 0.965 0.06 0 0.97 0.06 0 0.975 0.06 0 0.98 0.06 0 0.985 0.06 0 0.99 0.06 0 0.995 0.06 0 1 0.06 0 0 0.08 0 0.005 0.08 0 0.01 0.08 0 0.015 0.08 0 0.02 0.08 0 0.025 0.08 0 0.03 0.08 0 0.035 0.08 0 0.04 0.08 0 0.045 0.08 0 0.05 0.08 0 0.055 0.08 0 0.06 0.08 0 0.065 0.08 0 0.07 0.08 0 0.075 0.08 0 0.08 0.08 0 0.085 0.08 0 0.09 0.08 0 0.095 0.08 0 0.1 0.08 0 0.105 0.08 0 0.11 0.08 0 0.115 0.08 0 0.12 0.08 0 0.125 0.08 0 0.13 0.08 0 0.135 0.08 0 0.14 0.08 0 0.145 0.08 0 0.15 0.08 0 0.155 0.08 0 0.16 0.08 0 0.165 0.08 0
[...]
			<PointData Scalars="VitesseX">
				<DataArray Name="VitesseX" type="Float32" format="ascii">
 0 2.92019e-14 -2.64573e-15 7.04934e-14 -5.42487e-14 -3.26061e-14 3.776e-14 -7.39437e-15 -9.24182e-15 2.22017e-14 -1.38223e-14 -1.38094e-13 5.52931e-14 -1.74285e-13 2.98054e-14 -3.03172e-14 -5.27938e-14 -6.04932e-14 1.16337e-14 -9.05394e-14 -1.3529e-13 -7.8548e-14 -1.22607e-13 -1.1592e-13 -9.57581e-14 -1.25748e-13 -1.29775e-13 -1.07668e-13 -6.01099e-14 -4.74309e-15 -5.28871e-14 -1.2123e-13 5.5638e-14 -5.74598e-14 -1.1782e-13 -1.34372e-13 3.77653e-14 -1.99905e-13 1.17313e-13 -4.69359e-13 -1.07973e-13 -4.42107e-13 -1.94398e-13 2.89602e-14 1.20351e-13 7.13339e-14 1.52676e-13 -3.29261e-13 7.94671e-14 -1.1539e-13 1.15188e-13 -1.5474e-13 -3.72405e-13 2.19824e-13 -2.83686e-13 -1.88909e-13 1.84269e-13 -4.08193e-13 3.77244e-14 4.24667e-14 -1.29328e-13 3.06184e-14 -3.07981e-13 1.91857e-13 -2.78817e-13 -1.04938e-13 1.64221e-14 -4.30001e-13 1.80547e-13 6.27269e-13 7.53641e-12 8.1884e-11 8.11061e-10 7.40238e-09 6.14904e-08 4.62454e-07 3.1264e-06 1.88397e-05 0.000100157 0.000463758 0.00184077 0.00614755 0.0169653 0.0383386 0.0717149 0.114806 0.164173 0.217421 0.273207 0.330595 0.389302 0.449224 0.506967 0.562398 0.616163 0.669784 0.718612 0.768429 0.811524 0.849079 0.884097 0.90336 0.917899 0.928858 0.93084 0.930828 0.931975 0.932736 0.932561 0.931981 0.931227 0.930663 0.930349 0.930111 0.92982 0.929407 0.92885 0.928024 0.926525 0.923416 0.916738 0.902829 0.87568 0.82708 0.748695 0.636856 0.498788 0.352823 0.221312 0.120556 0.0565326 0.0232847 0.00878814 0.00315559 0.00110034 0.000375704 0.000125949 4.14749e-05 1.34125e-05 4.25781e-06 1.32626e-06 4.05212e-07 1.214e-07 3.56563e-08 1.02655e-08 2.89662e-09 8.00497e-10 2.17207e-10 5.73611e-11 1.52499e-11 3.26383e-12 -1.14544e-13 4.82971e-13 -5.63731e-13 4.6421e-13 -9.67249e-13 -1.10903e-13 1.25288e-13 7.01101e-13 2.71576e-13 -9.69752e-13 -3.19685e-13 -2.31023e-13 1.28601e-14 8.1531e-13 -6.9658e-14 -1.22729e-12 4.94879e-13 3.78767e-15 -1.1358e-13 4.29089e-13 -7.14537e-14 -2.34017e-13 -6.28936e-13 -4.4151e-14 -7.58088e-14 -8.51335e-15 -2.55576e-13 -1.22488e-12 9.16795e-13 1.65271e-13 4.75611e-13 -7.44037e-14 -9.84487e-13 3.56735e-13 3.11828e-13 -2.24912e-13 -2.18019e-13 -9.43228e-13 -2.24375e-14 3.09823e-13 -7.52841e-13 -2.12412e-13 -6.32847e-13 5.29436e-13 3.23746e-13 -1.57409e-12 3.93868e-13 2.57853e-13 8.14828e-13 0 0 -4.06559e-15 2.03923e-14 -3.27256e-14 6.02656e-14 1.85442e-14 7.73845e-15 -1.10035e-14 -1.59403e-14 -2.33385e-14 -7.06061e-14 6.72788e-15 -1.42137e-13 3.57272e-14 -9.29446e-14 -5.44686e-15 -1.49304e-14 -3.14537e-14 -9.84948e-14 -3.90996e-14 -3.55351e-14 -1.49881e-13 -8.14216e-14 -1.22126e-13 -8.80972e-14 -8.98939e-14 -1.19301e-13 -7.86674e-14 -7.64442e-14 -8.39013e-14 5.33653e-14 -3.78351e-14 -1.23009e-13 -1.72064e-16 -7.02647e-14 -5.49919e-14 -1.79564e-13 -5.9375e-14 -3.57737e-13 9.18491e-14 -2.29071e-13 -1.40596e-13 -4.09872e-14 -2.07644e-13 3.09808e-15 -7.004e-14 -1.17536e-13 2.87694e-13 -7.17061e-14 1.82444e-13 -1.61104e-13 -3.42013e-13 9.25019e-14 -4.86439e-13 5.8355e-14 -1.14336e-13 -3.02579e-13 1.24559e-13 -5.85697e-14 -8.1329e-14 -3.31159e-14 -1.28543e-13 1.15961e-13 -3.66664e-13 6.53602e-14 -8.28726e-14 -2.79064e-13 1.24335e-13 -8.23558e-14 6.43442e-13 7.96026e-12 8.11511e-11 8.12034e-10 7.40161e-09 6.14913e-08 4.62453e-07 3.1264e-06 1.88397e-05 0.000100157 0.000463758 0.00184077 0.00614755 0.0169653 0.0383386 0.0717149 0.114806 0.164173 0.217421 0.273207 0.330595 0.389302 0.449224 0.506967 0.562398 0.616163 0.669784 0.718612 0.768429 0.811524 0.849079 0.884097 0.90336 0.917899 0.928858 0.93084 0.930828 0.931975 0.932736 0.932561 0.931981 0.931227 0.930663 0.930349 0.930111 0.92982 0.929407 0.92885 0.928024 0.926525 0.923416 0.916738 0.902829 0.87568 0.82708 0.748695 0.636856 0.498788 0.352823 0.221312 0.120556 0.0565326 0.0232847 0.00878814 0.00315559 0.00110034 0.000375704 0.000125949 4.14749e-05 1.34125e-05 4.25781e-06 1.32626e-06 4.05212e-07 1.214e-07 3.56563e-08 1.02651e-08 2.89637e-09 8.01362e-10 2.16822e-10 5.74979e-11 1.42884e-11 3.54287e-12 1.14305e-12 -7.35705e-13 -2.45488e-14 -8.6223e-13 2.83804e-13 2.03802e-13 -2.20406e-13 -3.01583e-13 -4.32217e-13 2.83775e-13 2.48203e-13 -3.69439e-13 -2.5389e-13 -6.10738e-13 -1.24059e-14 6.48785e-13 -3.01833e-13 1.5457e-13 -7.63644e-14 -1.63465e-13 -2.80022e-13 2.47244e-13 2.21851e-13 -5.26028e-13 -4.29033e-13 -6.20898e-13 -2.7407e-13 7.47845e-13 -4.63493e-13 2.55645e-13 -9.66608e-14 1.42838e-13 2.64722e-13 -2.68206e-13 2.69393e-13 -1.35657e-14 -5.37519e-13 6.39457e-13 -4.50822e-13 -7.32847e-13 2.74089e-14 -5.31872e-13 1.30002e-13 -8.87438e-13 -3.68213e-13 1.09606e-12 2.18615e-13 -5.09904e-13 -9.96905e-13 0 0 -5.16223e-15 -1.32513e-14 2.50952e-14 3.76862e-14 2.52116e-14 2.23119e-14 -1.4403e-14 1.24253e-14 -4.72272e-14 3.363e-15 -1.03653e-13 -4.46597e-14 -5.39624e-14 -2.73165e-14 -4.19468e-14 -1.78963e-14 -3.14115e-14 -7.89144e-14 -7.37238e-14 -8.88493e-14 -4.13121e-14 -8.96e-14 -1.97727e-14 -8.91519e-14 -1.03159e-13 -6.15982e-14 -4.91472e-14 -1.37703e-13 -3.71127e-14 -6.20021e-15 -6.19316e-14 -1.20951e-13 -6.76401e-14 -4.2344e-14 -5.5915e-14 -4.62984e-14 -1.49449e-13 -1.12745e-13 -2.58984e-13 -7.1319e-14 5.30405e-14 -1.26882e-13 -1.14376e-13 -8.09413e-14 5.89974e-14 5.94734e-14 -1.90428e-13 -2.68348e-15 -2.73204e-13 -4.87033e-14 -6.56411e-15 -1.65453e-13 -1.16269e-13 -1.8254e-13 -1.25068e-13 -1.07528e-13 -1.57321e-13 1.02619e-13 1.15863e-13 4.82527e-14 -6.69541e-14 -2.91993e-13 -1.38021e-13 -1.21992e-13 1.28209e-14 7.55292e-14 -3.19832e-13 8.34354e-14 7.63083e-13 7.69743e-12 8.19146e-11 8.11706e-10 7.40212e-09 6.14907e-08 4.62453e-07 3.1264e-06 1.88397e-05 0.000100157 0.000463758 0.00184077 0.00614755 0.0169653 0.0383386 0.0717149 0.114806 0.164173 0.217421 0.273207 0.330595 0.389302 0.449224 0.506967 0.562398 0.616163 0.669784 0.718612 0.768429 0.811524 0.849079 0.884097 0.90336 0.917899 0.928858 0.93084 0.930828 0.931975 0.932736 0.932561 0.931981 0.931227 0.930663 0.930349 0.930111 0.92982 0.929407 0.92885 0.928024 0.926525 0.923416 0.916738 0.902829 0.87568 0.82708 0.748695 0.636856 0.498788 0.352823 0.221312 0.120556 0.0565326 0.0232847 0.00878814 0.00315559 0.00110034 0.000375704 0.000125949 4.14749e-05 1.34125e-05 4.25781e-06 1.32626e-06 4.05212e-07 1.214e-07 3.56562e-08 1.02654e-08 2.89637e-09 8.00547e-10 2.17102e-10 5.75594e-11 1.48115e-11 3.40582e-12 4.24209e-13 -2.29777e-13 -6.17922e-13 -4.12861e-13 2.30645e-13 -1.46997e-14 -3.37988e-13 -2.37377e-13 -1.66907e-13 -3.98233e-13 -2.91488e-13 -1.31819e-13 1.12241e-13 -2.48103e-13 -2.46327e-13 -7.24042e-14 -2.6417e-14 -1.95316e-13 1.07433e-13 2.55784e-13 -2.63097e-14 -3.12936e-13 -9.35299e-14 -1.89263e-13 -6.77678e-13 -2.42582e-13 -8.99695e-14 -6.15663e-14 5.08818e-13 -5.57823e-14 -1.09613e-13 2.18765e-13 1.80055e-13 1.32034e-13 -8.50924e-14 1.7252e-13 -5.24501e-14 -1.1603e-13 -3.3246e-13 7.39978e-14 -4.17804e-13 -2.53394e-13 -6.48669e-13 1.5545e-13 3.70745e-13 -1.09251e-14 2.04657e-13 6.76066e-14 -1.91976e-13 0 0 3.17553e-14 2.4832e-14 5.03889e-14 -1.89158e-14 7.50725e-15 3.15333e-14 -4.27389e-14 -1.93875e-14 -4.45357e-14 1.75246e-14 -2.54311e-14 -8.65393e-15 -8.8282e-14 -3.44775e-14 2.89572e-14 -9.31638e-14 -8.87963e-14 -4.51579e-14 -8.61492e-14 -8.87548e-14 -7.93071e-15 -8.3892e-14 -5.92465e-14 -3.19439e-14 -2.75493e-14 -3.9156e-14 -1.25306e-13 -5.57897e-14 -1.1313e-13 -9.81138e-14 -1.28278e-13 -1.06153e-13 -7.02669e-14 -3.78238e-14 -1.33798e-14 5.00929e-14 -2.01061e-13 -5.71916e-14 -2.48773e-13 -6.60662e-14 -4.03688e-13 6.20668e-14 1.3699e-13 2.37229e-14 -6.46417e-14 2.82607e-14 -2.46802e-13 -4.2723e-14 -4.6431e-14 -1.11385e-13 -1.38896e-13 -2.92378e-13 -5.68311e-14 -2.9398e-13 -2.50698e-13 5.41975e-14 7.84374e-14 2.32798e-15 1.41558e-13 4.13272e-14 -4.58726e-14 -1.1443e-14 -2.52129e-14 -1.20652e-13 -1.1947e-13 -2.9885e-13 -7.82896e-14 2.12322e-14 7.95712e-13 7.5691e-12 8.21162e-11 8.11647e-10 7.40217e-09 6.14908e-08 4.62454e-07 3.12641e-06 1.88397e-05 0.000100157 0.000463758 0.00184077 0.00614755 0.0169653 0.0383386 0.0717149 0.114806 0.164173 0.217421 0.273207 0.330595 0.389302 0.449224 0.506967 0.562398 0.616163 0.669784 0.718612 0.768429 0.811524 0.849079 0.884097 0.90336 0.917899 0.928858 0.93084 0.930828 0.931975 0.932736 0.932561 0.931981 0.931227 0.930663 0.930349 0.930111 0.92982 0.929407 0.92885 0.928024 0.926525 0.923416 0.916738 0.902829 0.87568 0.82708 0.748695 0.636856 0.498788 0.352823 0.221312 0.120556 0.0565326 0.0232847 0.00878814 0.00315559 0.00110034 0.000375704 0.000125949 4.14749e-05 1.34125e-05 4.25781e-06 1.32626e-06 4.05212e-07 1.214e-07 3.56563e-08 1.02653e-08 2.89629e-09 8.00628e-10 2.16694e-10 5.73724e-11 1.49326e-11 3.59353e-12 1.15195e-13 3.68845e-13 -2.9375e-13 -2.00923e-13 -2.81664e-13 9.60324e-14 -3.33851e-13 -2.44438e-15 -6.82112e-14 -1.62611e-13 -2.03676e-13 -4.69103e-13 -1.45745e-13 1.76147e-13 -2.22195e-13 -5.54502e-13 1.94621e-13 3.46568e-14 4.29201e-13 -4.22584e-13 -1.31751e-13 -4.82104e-13 -7.54391e-13 -2.28243e-13 -4.42259e-13 5.55642e-14 -2.31586e-13 -1.91515e-13 3.64299e-13 -1.00391e-14 4.27119e-13 3.98564e-18 5.76955e-15 5.25614e-13 -5.82166e-13 -2.28783e-13 3.38808e-13 -2.69955e-13 -3.40266e-13 -7.27479e-13 -5.95984e-13 5.23958e-13 -8.59832e-13 4.67477e-13 1.79655e-13 -5.20577e-13 9.46322e-14 3.02236e-13 8.31923e-13 0 0 9.14945e-16 3.21198e-14 -3.0933e-14 2.89746e-14 1.91513e-14 -1.14927e-14 -4.33141e-14 -4.95194e-14 -1.34715e-14 -5.62123e-14 7.78287e-14 -1.05701e-13 7.74074e-14 -9.66952e-14 -2.37884e-14 -4.85291e-14 -3.51556e-14 -3.17603e-14 -2.16636e-14 -1.35571e-14 -9.02955e-14 -3.06732e-14 -1.15026e-13 -2.70717e-14 6.34838e-15 -1.23891e-13 -1.32372e-13 -1.59067e-13 -1.07919e-13 -9.54423e-14 -1.28544e-13 -1.07142e-13 -1.24075e-14 -4.54265e-14 1.609e-14 -4.64314e-14 -8.28533e-14 -4.0192e-13 7.86708e-14 -2.03164e-13 -1.90977e-13 1.06856e-13 -6.11646e-14 8.0971e-14 -1.25476e-13 -2.1026e-14 3.00139e-13 -1.19067e-13 2.47784e-13 -2.89811e-13 -3.45552e-13 -1.06681e-13 -4.47915e-13 -1.15172e-13 -2.03576e-13 -1.67348e-13 4.96807e-13 -9.01165e-14 -1.21294e-13 6.91868e-14 -2.548e-13 1.33002e-13 -3.09392e-13 8.84693e-14 -1.35655e-13 -4.70047e-13 2.72095e-13 4.80097e-14 9.27744e-13 7.84768e-12 8.16036e-11 8.12111e-10 7.40183e-09 6.14914e-08 4.62453e-07 3.12641e-06 1.88397e-05 0.000100157 0.000463758 0.00184077 0.00614755 0.0169653 0.0383386 0.0717149 0.114806 0.164173 0.217421 0.273207 0.330595 0.389302 0.449224 0.506967 0.562398 0.616163 0.669784 0.718612 0.768429 0.811524 0.849079 0.884097 0.90336 0.917899 0.928858 0.93084 0.930828 0.931975 0.932736 0.932561 0.931981 0.931227 0.930663 0.930349 0.930111 0.92982 0.929407 0.92885 0.928024 0.926525 0.923416 0.916738 0.902829 0.87568 0.82708 0.748695 0.636856 0.498788 0.352823 0.221312 0.120556 0.0565326 0.0232847 0.00878814 0.00315559 0.00110034 0.000375704 0.000125949 4.14749e-05 1.34125e-05 4.25781e-06 1.32626e-06 4.05212e-07 1.214e-07 3.56562e-08 1.0265e-08 2.89588e-09 8.01394e-10 2.16432e-10 5.74985e-11 1.42459e-11 3.67535e-12 1.09956e-12 -5.29139e-13 2.29872e-13 -7.33235e-13 2.43128e-13 1.4265e-14 3.46919e-13 -1.57796e-13 -2.35191e-13 4.05055e-13 7.65379e-14 -6.86026e-13 -2.11686e-13 -7.06264e-13 -4.9419e-13 1.1457e-12 -2.80547e-13 2.86907e-13 3.32256e-13 -8.24946e-13 -5.00851e-13 -1.13839e-15 -2.52707e-13 -8.29837e-13 -4.67382e-13 -7.71883e-13 -4.896e-13 5.71866e-13 -4.69768e-13 8.76665e-14 2.53476e-13 2.07927e-13 2.06716e-13 1.42907e-13 -2.20377e-13 -1.59843e-13 -2.63433e-13 5.93833e-13 -5.39222e-13 -1.26198e-12 -1.25311e-13 1.08114e-13 2.71888e-13 -9.58772e-13 -3.90996e-13 1.17739e-12 1.01687e-13 -1.99143e-13 9.50592e-14 0 0 -3.46721e-14 -5.53575e-14 2.34912e-14 -3.62652e-15 4.01668e-15 -1.91452e-14 -1.53438e-14 -1.27743e-14 3.65527e-14 -1.3358e-14 -1.52336e-13 5.61535e-14 -2.22859e-14 3.6626e-14 -2.08808e-13 3.05437e-14 4.68724e-14 7.75897e-14 -3.08164e-14 -9.15234e-14 -2.6139e-14 -3.25266e-14 -2.27719e-14 -8.81229e-14 -8.44825e-14 -1.83839e-13 -6.2761e-14 -3.89183e-13 9.92572e-14 -1.66675e-13 -1.69956e-13 5.77781e-14 -7.66772e-14 -7.7184e-14 -7.72792e-14 1.11247e-13 -1.43638e-13 -8.21601e-14 -5.16138e-13 -6.66649e-14 3.70587e-13 -2.76609e-13 -1.80813e-13 6.67686e-14 2.07741e-13 4.08122e-13 -1.91624e-13 6.48243e-14 -4.38256e-13 -1.68634e-14 1.02845e-13 -5.1692e-13 1.77995e-13 -4.07862e-13 -1.16127e-13 1.31279e-13 -1.35214e-13 1.75213e-13 -8.88531e-14 8.91283e-14 -2.64059e-13 -8.34999e-13 8.07851e-14 -2.3528e-13 5.40784e-14 3.83216e-13 -6.17566e-13 5.65685e-13 1.13061e-12 7.56791e-12 8.23857e-11 8.11333e-10 7.40274e-09 6.14905e-08 4.62454e-07 3.12641e-06 1.88397e-05 0.000100157 0.000463758 0.00184077 0.00614755 0.0169653 0.0383386 0.0717149 0.114806 0.164173 0.217421 0.273207 0.330595 0.389302 0.449224 0.506967 0.562398 0.616163 0.669784 0.718612 0.768429 0.811524 0.849079 0.884097 0.90336 0.917899 0.928858 0.93084 0.930828 0.931975 0.932736 0.932561 0.931981 0.931227 0.930663 0.930349 0.930111 0.92982 0.929407 0.92885 0.928024 0.926525 0.923416 0.916738 0.902829 0.87568 0.82708 0.748695 0.636856 0.498788 0.352823 0.221312 0.120556 0.0565326 0.0232847 0.00878814 0.00315559 0.00110034 0.000375704 0.000125949 4.14749e-05 1.34125e-05 4.25781e-06 1.32626e-06 4.05212e-07 1.21399e-07 3.56559e-08 1.02654e-08 2.89579e-09 8.00399e-10 2.17244e-10 5.77364e-11 1.49227e-11 3.15338e-12 4.16506e-13 -3.01141e-13 -7.03234e-13 2.98324e-13 -2.39825e-14 -7.1144e-13 1.25166e-12 5.18811e-13 4.68237e-13 -1.19843e-12 -8.38637e-13 -1.8963e-13 6.13241e-13 -2.24241e-13 -1.08149e-12 7.30741e-13 9.53761e-14 -1.91483e-13 6.01241e-14 4.6286e-13 -3.02229e-13 -3.92446e-13 -2.56329e-13 -5.7381e-13 -6.23346e-13 -9.06775e-13 -4.03402e-13 -1.31694e-12 1.19328e-12 -2.62172e-13 1.02421e-13 4.93295e-13 -7.51927e-13 3.91801e-13 3.26434e-13 2.85139e-13 -4.52365e-13 -7.26624e-13 -1.83626e-13 8.54517e-13 -7.01921e-13 -4.87143e-13 7.32518e-14 -2.37285e-13 6.60361e-13 -3.92106e-13 3.80061e-13 4.10118e-13 9.50957e-13 0
				</DataArray>
				<DataArray Name="VitesseY" type="Float32" format="ascii">