<?xml version="1.0"?>
<VTKFile type="PolyData">
	<PolyData>
		<Piece NumberOfPoints="1206" NumberOfPolys="1000">
			<Points>
				<DataArray type="Float32" NumberOfComponents="3" format="ascii">
 0 0 0 0.005 0 0 0.01 0 0 0.015 0 0 0.02 0 0 0.025 0 0 0.03 0 0 0.035 0 0 0.04 0 0 0.045 0 0 0.05 0 0 0.055 0 0 0.06 0 0 0.065 0 0 0.07 0 0 0.075 0 0 0.08 0 0 0.085 0 0 0.09 0 0 0.095 0 0 0.1 0 0 0.105 0 0 0.11 0 0 0.115 0 0 0.12 0 0 0.125 0 0 0.13 0 0 0.135 0 0 0.14 0 0 0.145 0 0 0.15 0 0 0.155 0 0 0.16 0 0 0.165 0 0 0.17 0 0 0.175 0 0 0.18 0 0 0.185 0 0 0.19 0 0 0.195 0 0 0.2 0 0 0.205 0 0 0.21 0 0 0.215 0 0 0.22 0 0 0.225 0 0 0.23 0 0 0.235 0 0 0.24 0 0 0.245 0 0 0.25 0 0 0.255 0 0 0.26 0 0 0.265 0 0 0.27 0 0 0.275 0 0 0.28 0 0 0.285 0 0 0.29 0 0 0.295 0 0 0.3 0 0 0.305 0 0 0.31 0 0 0.315 0 0 0.32 0 0 0.325 0 0 0.33 0 0 0.335 0 0 0.34 0 0 0.345 0 0 0.35 0 0 0.355 0 0 0.36 0 0 0.365 0 0 0.37 0 0 0.375 0 0 0.38 0 0 0.385 0 0 0.39 0 0 0.395 0 0 0.4 0 0 0.405 0 0 0.41 0 0 0.415 0 0 0.42 0 0 0.425 0 0 0.43 0 0 0.435 0 0 0.44 0 0 0.445 0 0 0.45 0 0 0.455 0 0 0.46 0 0 0.465 0 0 0.47 0 0 0.475 0 0 0.48 0 0 0.485 0 0 0.49 0 0 0.495 0 0 0.5 0 0 0.505 0 0 0.51 0 0 0.515 0 0 0.52 0 0 0.525 0 0 0.53 0 0 0.535 0 0 0.54 0 0 0.545 0 0 0.55 0 0 0.555 0 0 0.56 0 0 0.565 0 0 0.57 0 0 0.575 0 0 0.58 0 0 0.585 0 0 0.59 0 0 0.595 0 0 0.6 0 0 0.605 0 0 0.61 0 0 0.615 0 0 0.62 0 0 0.625 0 0 0.63 0 0 0.635 0 0 0.64 0 0 0.645 0 0 0.65 0 0 0.655 0 0 0.66 0 0 0.665 0 0 0.67 0 0 0.675 0 0 0.68 0 0 0.685 0 0 0.69 0 0 0.695 0 0 0.7 0 0 0.705 0 0 0.71 0 0 0.715 0 0 0.72 0 0 0.725 0 0 0.73 0 0 0.735 0 0 0.74 0 0 0.745 0 0 0.75 0 0 0.755 0 0 0.76 0 0 0.765 0 0 0.77 0 0 0.775 0 0 0.78 0 0 0.785 0 0 0.79 0 0 0.795 0 0 0.8 0 0 0.805 0 0 0.81 0 0 0.815 0 0 0.82 0 0 0.825 0 0 0.83 0 0 0.835 0 0 0.84 0 0 0.845 0 0 0.85 0 0 0.855 0 0 0.86 0 0 0.865 0 0 0.87 0 0 0.875 0 0 0.88 0 0 0.885 0 0 0.89 0 0 0.895 0 0 0.9 0 0 0.905 0 0 0.91 0 0 0.915 0 0 0.92 0 0 0.925 0 0 0.93 0 0 0.935 0 0 0.94 0 0 0.945 0 0 0.95 0 0 0.955 0 0 0.96 0 0 0.965 0 0 0.97 0 0 0.975 0 0 0.98 0 0 0.985 0 0 0.99 0 0 0.995 0 0 1 0 0 0 0.02 0 0.005 0.02 0 0.01 0.02 0 0.015 0.02 0 0.02 0.02 0 0.025 0.02 0 0.03 0.02 0 0.035 0.02 0 0.04 0.02 0 0.045 0.02 0 0.05 0.02 0 0.055 0.02 0 0.06 0.02 0 0.065 0.02 0 0.07 0.02 0 0.075 0.02 0 0.08 0.02 0 0.085 0.02 0 0.09 0.02 0 0.095 0.02 0 0.1 0.02 0 0.105 0.02 0 0.11 0.02 0 0.115 0.02 0 0.12 0.02 0 0.125 0.02 0 0.13 0.02 0 0.135 0.02 0 0.14 0.02 0 0.145 0.02 0 0.15 0.02 0 0.155 0.02 0 0.16 0.02 0 0.165 0.02 0 0.17 0.02 0 0.175 0.02 0 0.18 0.02 0 0.185 0.02 0 0.19 0.02 0 0.195 0.02 0 0.2 0.02 0 0.205 0.02 0 0.21 0.02 0 0.215 0.02 0 0.22 0.02 0 0.225 0.02 0 0.23 0.02 0 0.235 0.02 0 0.24 0.02 0 0.245 0.02 0 0.25 0.02 0 0.255 0.02 0 0.26 0.02 0 0.265 0.02 0 0.27 0.02 0 0.275 0.02 0 0.28 0.02 0 0.285 0.02 0 0.29 0.02 0 0.295 0.02 0 0.3 0.02 0 0.305 0.02 0 0.31 0.02 0 0.315 0.02 0 0.32 0.02 0 0.325 0.02 0 0.33 0.02 0 0.335 0.02 0 0.34 0.02 0 0.345 0.02 0 0.35 0.02 0 0.355 0.02 0 0.36 0.02 0 0.365 0.02 0 0.37 0.02 0 0.375 0.02 0 0.38 0.02 0 0.385 0.02 0 0.39 0.02 0 0.395 0.02 0 0.4 0.02 0 0.405 0.02 0 0.41 0.02 0 0.415 0.02 0 0.42 0.02 0 0.425 0.02 0 0.43 0.02 0 0.435 0.02 0 0.44 0.02 0 0.445 0.02 0 0.45 0.02 0 0.455 0.02 0 0.46 0.02 0 0.465 0.02 0 0.47 0.02 0 0.475 0.02 0 0.48 0.02 0 0.485 0.02 0 0.49 0.02 0 0.495 0.02 0 0.5 0.02 0 0.505 0.02 0 0.51 0.02 0 0.515 0.02 0 0.52 0.02 0 0.525 0.02 0 0.53 0.02 0 0.535 0.02 0 0.54 0.02 0 0.545 0.02 0 0.55 0.02 0 0.555 0.02 0 0.56 0.02 0 0.565 0.02 0 0.57 0.02 0 0.575 0.02 0 0.58 0.02 0 0.585 0.02 0 0.59 0.02 0 0.595 0.02 0 0.6 0.02 0 0.605 0.02 0 0.61 0.02 0 0.615 0.02 0 0.62 0.02 0 0.625 0.02 0 0.63 0.02 0 0.635 0.02 0 0.64 0.02 0 0.645 0.02 0 0.65 0.02 0 0.655 0.02 0 0.66 0.02 0 0.665 0.02 0 0.67 0.02 0 0.675 0.02 0 0.68 0.02 0 0.685 0.02 0 0.69 0.02 0 0.695 0.02 0 0.7 0.02 0 0.705 0.02 0 0.71 0.02 0 0.715 0.02 0 0.72 0.02 0 0.725 0.02 0 0.73 0.02 0 0.735 0.02 0 0.74 0.02 0 0.745 0.02 0 0.75 0.02 0 0.755 0.02 0 0.76 0.02 0 0.765 0.02 0 0.77 0.02 0 0.775 0.02 0 0.78 0.02 0 0.785 0.02 0 0.79 0.02 0 0.795 0.02 0 0.8 0.02 0 0.805 0.02 0 0.81 0.02 0 0.815 0.02 0 0.82 0.02 0 0.825 0.02 0 0.83 0.02 0 0.835 0.02 0 0.84 0.02 0 0.845 0.02 0 0.85 0.02 0 0.855 0.02 0 0.86 0.02 0 0.865 0.02 0 0.87 0.02 0 0.875 0.02 0 0.88 0.02 0 0.885 0.02 0 0.89 0.02 0 0.895 0.02 0 0.9 0.02 0 0.905 0.02 0 0.91 0.02 0 0.915 0.02 0 0.92 0.02 0 0.925 0.02 0 0.93 0.02 0 0.935 0.02 0 0.94 0.02 0 0.945 0.02 0 0.95 0.02 0 0.955 0.02 0 0.96 0.02 0 0.965 0.02 0 0.97 0.02 0 0.975 0.02 0 0.98 0.02 0 0.985 0.02 0 0.99 0.02 0 0.995 0.02 0 1 0.02 0 0 0.04 0 0.005 0.04 0 0.01 0.04 0 0.015 0.04 0 0.02 0.04 0 0.025 0.04 0 0.03 0.04 0 0.035 0.04 0 0.04 0.04 0 0.045 0.04 0 0.05 0.04 0 0.055 0.04 0 0.06 0.04 0 0.065 0.04 0 0.07 0.04 0 0.075 0.04 0 0.08 0.04 0 0.085 0.04 0 0.09 0.04 0 0.095 0.04 0 0.1 0.04 0 0.105 0.04 0 0.11 0.04 0 0.115 0.04 0 0.12 0.04 0 0.125 0.04 0 0.13 0.04 0 0.135 0.04 0 0.14 0.04 0 0.145 0.04 0 0.15 0.04 0 0.155 0.04 0 0.16 0.04 0 0.165 0.04 0 0.17 0.04 0 0.175 0.04 0 0.18 0.04 0 0.185 0.04 0 0.19 0.04 0 0.195 0.04 0 0.2 0.04 0 0.205 0.04 0 0.21 0.04 0 0.215 0.04 0 0.22 0.04 0 0.225 0.04 0 0.23 0.04 0 0.235 0.04 0 0.24 0.04 0 0.245 0.04 0 0.25 0.04 0 0.255 0.04 0 0.26 0.04 0 0.265 0.04 0 0.27 0.04 0 0.275 0.04 0 0.28 0.04 0 0.285 0.04 0 0.29 0.04 0 0.295 0.04 0 0.3 0.04 0 0.305 0.04 0 0.31 0.04 0 0.315 0.04 0 0.32 0.04 0 0.325 0.04 0 0.33 0.04 0 0.335 0.04 0 0.34 0.04 0 0.345 0.04 0 0.35 0.04 0 0.355 0.04 0 0.36 0.04 0 0.365 0.04 0 0.37 0.04 0 0.375 0.04 0 0.38 0.04 0 0.385 0.04 0 0.39 0.04 0 0.395 0.04 0 0.4 0.04 0 0.405 0.04 0 0.41 0.04 0 0.415 0.04 0 0.42 0.04 0 0.425 0.04 0 0.43 0.04 0 0.435 0.04 0 0.44 0.04 0 0.445 0.04 0 0.45 0.04 0 0.455 0.04 0 0.46 0.04 0 0.465 0.04 0 0.47 0.04 0 0.475 0.04 0 0.48 0.04 0 0.485 0.04 0 0.49 0.04 0 0.495 0.04 0 0.5 0.04 0 0.505 0.04 0 0.51 0.04 0 0.515 0.04 0 0.52 0.04 0 0.525 0.04 0 0.53 0.04 0 0.535 0.04 0 0.54 0.04 0 0.545 0.04 0 0.55 0.04 0 0.555 0.04 0 0.56 0.04 0 0.565 0.04 0 0.57 0.04 0 0.575 0.04 0 0.58 0.04 0 0.585 0.04 0 0.59 0.04 0 0.595 0.04 0 0.6 0.04 0 0.605 0.04 0 0.61 0.04 0 0.615 0.04 0 0.62 0.04 0 0.625 0.04 0 0.63 0.04 0 0.635 0.04 0 0.64 0.04 0 0.645 0.04 0 0.65 0.04 0 0.655 0.04 0 0.66 0.04 0 0.665 0.04 0 0.67 0.04 0 0.675 0.04 0 0.68 0.04 0 0.685 0.04 0 0.69 0.04 0 0.695 0.04 0 0.7 0.04 0 0.705 0.04 0 0.71 0.04 0 0.715 0.04 0 0.72 0.04 0 0.725 0.04 0 0.73 0.04 0 0.735 0.04 0 0.74 0.04 0 0.745 0.04 0 0.75 0.04 0 0.755 0.04 0 0.76 0.04 0 0.765 0.04 0 0.77 0.04 0 0.775 0.04 0 0.78 0.04 0 0.785 0.04 0 0.79 0.04 0 0.795 0.04 0 0.8 0.04 0 0.805 0.04 0 0.81 0.04 0 0.815 0.04 0 0.82 0.04 0 0.825 0.04 0 0.83 0.04 0 0.835 0.04 0 0.84 0.04 0 0.845 0.04 0 0.85 0.04 0 0.855 0.04 0 0.86 0.04 0 0.865 0.04 0 0.87 0.04 0 0.875 0.04 0 0.88 0.04 0 0.885 0.04 0 0.89 0.04 0 0.895 0.04 0 0.9 0.04 0 0.905 0.04 0 0.91 0.04 0 0.915 0.04 0 0.92 0.04 0 0.925 0.04 0 0.93 0.04 0 0.935 0.04 0 0.94 0.04 0 0.945 0.04 0 0.95 0.04 0 0.955 0.04 0 0.96 0.04 0 0.965 0.04 0 0.97 0.04 0 0.975 0.04 0 0.98 0.04 0 0.985 0.04 0 0.99 0.04 0 0.995 0.04 0 1 0.04 0 0 0.06 0 0.005 0.06 0 0.01 0.06 0 0.015 0.06 0 0.02 0.06 0 0.025 0.06 0 0.03 0.06 0 0.035 0.06 0 0.04 0.06 0 0.045 0.06 0 0.05 0.06 0 0.055 0.06 0 0.06 0.06 0 0.065 0.06 0 0.07 0.06 0 0.075 0.06 0 0.08 0.06 0 0.085 0.06 0 0.09 0.06 0 0.095 0.06 0 0.1 0.06 0 0.105 0.06 0 0.11 0.06 0 0.115 0.06 0 0.12 0.06 0 0.125 0.06 0 0.13 0.06 0 0.135 0.06 0 0.14 0.06 0 0.145 0.06 0 0.15 0.06 0 0.155 0.06 0 0.16 0.06 0 0.165 0.06 0 0.17 0.06 0 0.175 0.06 0 0.18 0.06 0 0.185 0.06 0 0.19 0.06 0 0.195 0.06 0 0.2 0.06 0 0.205 0.06 0 0.21 0.06 0 0.215 0.06 0 0.22 0.06 0 0.225 0.06 0 0.23 0.06 0 0.235 0.06 0 0.24 0.06 0 0.245 0.06 0 0.25 0.06 0 0.255 0.06 0 0.26 0.06 0 0.265 0.06 0 0.27 0.06 0 0.275 0.06 0 0.28 0.06 0 0.285 0.06 0 0.29 0.06 0 0.295 0.06 0 0.3 0.06 0 0.305 0.06 0 0.31 0.06 0 0.315 0.06 0 0.32 0.06 0 0.325 0.06 0 0.33 0.06 0 0.335 0.06 0 0.34 0.06 0 0.345 0.06 0 0.35 0.06 0 0.355 0.06 0 0.36 0.06 0 0.365 0.06 0 0.37 0.06 0 0.375 0.06 0 0.38 0.06 0 0.385 0.06 0 0.39 0.06 0 0.395 0.06 0 0.4 0.06 0 0.405 0.06 0 0.41 0.06 0 0.415 0.06 0 0.42 0.06 0 0.425 0.06 0 0.43 0.06 0 0.435 0.06 0 0.44 0.06 0 0.445 0.06 0 0.45 0.06 0 0.455 0.06 0 0.46 0.06 0 0.465 0.06 0 0.47 0.06 0 0.475 0.06 0 0.48 0.06 0 0.485 0.06 0 0.49 0.06 0 0.495 0.06 0 0.5 0.06 0 0.505 0.06 0 0.51 0.06 0 0.515 0.06 0 0.52 0.06 0 0.525 0.06 0 0.53 0.06 0 0.535 0.06 0 0.54 0.06 0 0.545 0.06 0 0.55 0.06 0 0.555 0.06 0 0.56 0.06 0 0.565 0.06 0 0.57 0.06 0 0.575 0.06 0 0.58 0.06 0 0.585 0.06 0 0.59 0.06 0 0.595 0.06 0 0.6 0.06 0 0.605 0.06 0 0.61 0.06 0 0.615 0.06 0 0.62 0.06 0 0.625 0.06 0 0.63 0.06 0 0.635 0.06 0 0.64 0.06 0 0.645 0.06 0 0.65 0.06 0 0.655 0.06 0 0.66 0.06 0 0.665 0.06 0 0.67 0.06 0 0.675 0.06 0 0.68 0.06 0 0.685 0.06 0 0.69 0.06 0 0.695 0.06 0 0.7 0.06 0 0.705 0.06 0 0.71 0.06 0 0.715 0.06 0 0.72 0.06 0 0.725 0.06 0 0.73 0.06 0 0.735 0.06 0 0.74 0.06 0 0.745 0.06 0 0.75 0.06 0 0.755 0.06 0 0.76 0.06 0 0.765 0.06 0 0.77 0.06 0 0.775 0.06 0 0.78 0.06 0 0.785 0.06 0 0.79 0.06 0 0.795 0.06 0 0.8 0.06 0 0.805 0.06 0 0.81 0.06 0 0.815 0.06 0 0.82 0.06 0 0.825 0.06 0 0.83 0.06 0 0.835 0.06 0 0.84 0.06 0 0.845 0.06 0 0.85 0.06 0 0.855 0.06 0 0.86 0.06 0 0.865 0.06 0 0.87 0.06 0 0.875 0.06 0 0.88 0.06 0 0.885 0.06 0 0.89 0.06 0 0.895 0.06 0 0.9 0.06 0 0.905 0.06 0 0.91 0.06 0 0.915 0.06 0 0.92 0.06 0 0.925 0.06 0 0.93 0.06 0 0.935 0.06 0 0.94 0.06 0 0.945 0.06 0 0.95 0.06 0 0.955 0.06 0 0.96 0.06 0 0.965 0.06 0 0.97 0.06 0 0.975 0.06 0 0.98 0.06 0 0.985 0.06 0 0.99 0.06 0 0.995 0.06 0 1 0.06 0 0 0.08 0 0.005 0.08 0 0.01 0.08 0 0.015 0.08 0 0.02 0.08 0 0.025 0.08 0 0.03 0.08 0 0.035 0.08 0 0.04 0.08 0 0.045 0.08 0 0.05 0.08 0 0.055 0.08 0 0.06 0.08 0 0.065 0.08 0 0.07 0.08 0 0.075 0.08 0 0.08 0.08 0 0.085 0.08 0 0.09 0.08 0 0.095 0.08 0 0.1 0.08 0 0.105 0.08 0 0.11 0.08 0 0.115 0.08 0 0.12 0.08 0 0.125 0.08 0 0.13 0.08 0 0.135 0.08 0 0.14 0.08 0 0.145 0.08 0 0.15 0.08 0 0.155 0.08 0 0.16 0.08 0 0.165 0.08 0
[...]
			<PointData Scalars="VitesseX">
				<DataArray Name="VitesseX" type="Float32" format="ascii">
 0 3.24496e-15 -6.29757e-15 -3.41331e-14 1.9923e-14 1.24077e-14 -2.36142e-14 7.05407e-15 1.25964e-14 -4.44325e-15 1.41541e-15 -4.12206e-14 2.13023e-15 -4.13689e-14 -1.64223e-14 -3.55542e-14 -1.0852e-13 3.84455e-14 -1.91636e-13 -2.0122e-14 -2.72036e-14 -9.91481e-14 3.32396e-14 -8.11239e-14 -1.7557e-14 1.06052e-14 2.07634e-13 -1.62141e-13 1.59591e-13 1.58706e-14 3.12119e-14 -2.01539e-13 5.86315e-14 -1.03587e-13 4.69157e-14 -3.20521e-13 -1.05311e-14 -5.00761e-14 -1.67908e-13 -8.4708e-14 -5.59702e-14 -1.93749e-13 2.72542e-13 -8.13441e-14 -5.33184e-14 8.91995e-14 3.09742e-13 4.37938e-12 2.82776e-11 1.76595e-10 1.04486e-09 5.84473e-09 3.07993e-08 1.52447e-07 7.06529e-07 3.05492e-06 1.22717e-05 4.55733e-05 0.000155555 0.00048465 0.0013673 0.00346285 0.00781035 0.0156144 0.0277156 0.0441167 0.0640482 0.0864784 0.110539 0.135644 0.161451 0.187726 0.214312 0.241124 0.268114 0.295252 0.322523 0.349919 0.377445 0.405109 0.432907 0.460476 0.487632 0.514723 0.541498 0.568155 0.59467 0.620904 0.647144 0.672936 0.698702 0.724065 0.748978 0.773883 0.797689 0.821307 0.843541 0.863753 0.882633 0.897841 0.909817 0.919457 0.924924 0.928243 0.930603 0.931062 0.931138 0.931182 0.931136 0.930997 0.930764 0.930474 0.930173 0.929893 0.929634 0.92939 0.92917 0.928979 0.928818 0.928681 0.928565 0.928464 0.928379 0.928306 0.928243 0.928189 0.928142 0.9281 0.928063 0.928029 0.927997 0.927968 0.92794 0.927913 0.927887 0.927863 0.927841 0.927819 0.927795 0.927766 0.927728 0.927668 0.92756 0.927348 0.926924 0.926065 0.924332 0.920873 0.914079 0.901069 0.877109 0.835445 0.768476 0.67118 0.545999 0.406558 0.272444 0.161532 0.0836445 0.0381416 0.0158368 0.00623337 0.00239145 0.000906792 0.000341785 0.00012832 4.80143e-05 1.79049e-05 6.65235e-06 2.46162e-06 9.06839e-07 3.32443e-07 1.21226e-07 4.39519e-08 1.58374e-08 5.66963e-09 2.01517e-09 7.10848e-10 2.49172e-10 8.63129e-11 2.97248e-11 9.68899e-12 3.12156e-12 1.34301e-12 -3.91167e-13 2.42441e-13 -6.82779e-14 2.33175e-13 -7.54217e-14 8.6009e-14 -3.96278e-13 2.0158e-13 -1.59651e-13 3.73907e-13 2.54007e-13 1.9322e-13 1.01631e-13 3.0406e-13 -7.64037e-13 -6.98721e-13 0 0 -3.18676e-15 -1.15565e-14 1.28854e-14 -1.83564e-14 -8.3144e-15 2.20902e-14 2.48935e-15 -1.45975e-14 7.76955e-15 -2.16969e-14 1.46765e-14 -4.3467e-14 -2.61332e-14 -9.33227e-14 -2.63146e-14 -2.39807e-14 -1.49073e-13 5.70714e-14 -1.15897e-13 -1.51684e-13 1.19622e-14 -3.21089e-14 2.96492e-14 1.21679e-14 6.2748e-14 -7.5889e-14 1.69706e-13 -1.62824e-13 3.07192e-14 -1.98607e-14 7.83498e-14 -9.03276e-14 -4.79927e-14 -1.74772e-13 6.40352e-14 -1.82168e-13 -6.93626e-14 1.97896e-14 -7.21826e-14 -1.78566e-13 4.67966e-14 -2.3425e-13 5.8862e-14 -2.71627e-15 -6.21788e-14 7.14061e-13 4.17276e-12 2.82079e-11 1.76267e-10 1.04476e-09 5.84499e-09 3.07993e-08 1.52447e-07 7.06529e-07 3.05492e-06 1.22717e-05 4.55733e-05 0.000155555 0.00048465 0.0013673 0.00346285 0.00781035 0.0156144 0.0277156 0.0441167 0.0640482 0.0864784 0.110539 0.135644 0.161451 0.187726 0.214312 0.241124 0.268114 0.295252 0.322523 0.349919 0.377445 0.405109 0.432907 0.460476 0.487632 0.514723 0.541498 0.568155 0.59467 0.620904 0.647144 0.672936 0.698702 0.724065 0.748978 0.773883 0.797689 0.821307 0.843541 0.863753 0.882633 0.897841 0.909817 0.919457 0.924924 0.928243 0.930603 0.931062 0.931138 0.931182 0.931136 0.930997 0.930764 0.930474 0.930173 0.929893 0.929634 0.92939 0.92917 0.928979 0.928818 0.928681 0.928565 0.928464 0.928379 0.928306 0.928243 0.928189 0.928142 0.9281 0.928063 0.928029 0.927997 0.927968 0.92794 0.927913 0.927887 0.927863 0.927841 0.927819 0.927795 0.927766 0.927728 0.927668 0.92756 0.927348 0.926924 0.926065 0.924332 0.920873 0.914079 0.901069 0.877109 0.835445 0.768476 0.67118 0.545999 0.406558 0.272444 0.161532 0.0836445 0.0381416 0.0158368 0.00623337 0.00239145 0.000906792 0.000341785 0.00012832 4.80143e-05 1.79049e-05 6.65235e-06 2.46162e-06 9.0684e-07 3.32443e-07 1.21226e-07 4.39521e-08 1.58378e-08 5.66927e-09 2.01543e-09 7.11212e-10 2.48629e-10 8.63486e-11 2.94974e-11 1.01885e-11 3.25235e-12 5.95073e-13 7.06607e-13 -6.14223e-13 2.28666e-13 1.92036e-13 -4.80466e-14 -1.8771e-13 1.77782e-13 -2.88882e-13 4.6595e-13 2.66415e-13 5.23178e-13 -2.9311e-13 -1.61533e-13 -7.6022e-14 3.84375e-13 1.98049e-13 0 0 4.09684e-15 3.92817e-15 2.74471e-16 2.27425e-14 -1.08384e-16 2.37863e-15 -1.39524e-14 3.26609e-15 8.1255e-15 -3.89016e-14 -4.10837e-14 -2.93639e-14 -2.98087e-14 -7.17372e-14 -5.0322e-14 -4.58682e-14 -8.572e-14 -5.00507e-14 -1.84755e-14 -1.2655e-13 -7.96756e-14 -6.72598e-14 4.36596e-14 -2.8397e-14 6.05747e-14 8.31588e-14 1.89688e-14 3.17294e-14 -1.88864e-14 -2.65858e-14 -1.3107e-13 4.42674e-14 -1.81147e-13 7.27082e-14 -1.44297e-13 -2.48588e-14 -5.74884e-14 -1.80971e-13 -1.51179e-14 3.0986e-14 -1.79627e-13 -4.82817e-14 -8.6171e-14 -4.6925e-14 1.21008e-13 4.87037e-13 4.25986e-12 2.83325e-11 1.76372e-10 1.0446e-09 5.84498e-09 3.07992e-08 1.52447e-07 7.06529e-07 3.05492e-06 1.22717e-05 4.55733e-05 0.000155555 0.00048465 0.0013673 0.00346285 0.00781035 0.0156144 0.0277156 0.0441167 0.0640482 0.0864784 0.110539 0.135644 0.161451 0.187726 0.214312 0.241124 0.268114 0.295252 0.322523 0.349919 0.377445 0.405109 0.432907 0.460476 0.487632 0.514723 0.541498 0.568155 0.59467 0.620904 0.647144 0.672936 0.698702 0.724065 0.748978 0.773883 0.797689 0.821307 0.843541 0.863753 0.882633 0.897841 0.909817 0.919457 0.924924 0.928243 0.930603 0.931062 0.931138 0.931182 0.931136 0.930997 0.930764 0.930474 0.930173 0.929893 0.929634 0.92939 0.92917 0.928979 0.928818 0.928681 0.928565 0.928464 0.928379 0.928306 0.928243 0.928189 0.928142 0.9281 0.928063 0.928029 0.927997 0.927968 0.92794 0.927913 0.927887 0.927863 0.927841 0.927819 0.927795 0.927766 0.927728 0.927668 0.92756 0.927348 0.926924 0.926065 0.924332 0.920873 0.914079 0.901069 0.877109 0.835445 0.768476 0.67118 0.545999 0.406558 0.272444 0.161532 0.0836445 0.0381416 0.0158368 0.00623337 0.00239145 0.000906792 0.000341785 0.00012832 4.80143e-05 1.79049e-05 6.65235e-06 2.46162e-06 9.06839e-07 3.32443e-07 1.21226e-07 4.39524e-08 1.58375e-08 5.66957e-09 2.01538e-09 7.11295e-10 2.48789e-10 8.6415e-11 2.93516e-11 9.89682e-12 3.47903e-12 8.49106e-13 3.54949e-14 6.33069e-13 -3.77101e-13 2.0572e-13 -2.33309e-14 1.29026e-13 -6.53726e-14 -1.20276e-13 7.1625e-13 8.25186e-14 -3.58304e-13 2.66007e-13 1.52907e-13 -2.58927e-14 -2.60778e-13 -1.0502e-13 0 0 -5.18995e-15 -2.67226e-15 -4.87686e-15 8.31227e-15 1.03576e-15 -1.05729e-15 -6.90545e-15 1.12231e-14 -1.09268e-14 -2.81988e-15 -7.30697e-14 -1.30126e-14 -5.38239e-14 -5.61191e-14 -2.90698e-14 -1.09379e-13 -7.63634e-14 -1.45958e-13 -2.50607e-14 4.16396e-14 -1.3068e-13 -3.17691e-14 -7.63186e-14 4.73357e-14 6.96565e-14 4.66334e-14 3.5611e-16 4.9708e-14 -4.17476e-14 -6.62907e-14 -6.19993e-14 -4.92728e-14 8.0151e-16 -7.04096e-14 -1.30073e-13 -7.25039e-14 -1.45535e-13 -2.43474e-14 -1.79429e-13 6.65687e-14 -1.17764e-13 -3.4204e-15 -4.48232e-14 3.47179e-14 7.8148e-14 4.18839e-13 4.3146e-12 2.82903e-11 1.76503e-10 1.04492e-09 5.84476e-09 3.07991e-08 1.52447e-07 7.06529e-07 3.05492e-06 1.22717e-05 4.55733e-05 0.000155555 0.00048465 0.0013673 0.00346285 0.00781035 0.0156144 0.0277156 0.0441167 0.0640482 0.0864784 0.110539 0.135644 0.161451 0.187726 0.214312 0.241124 0.268114 0.295252 0.322523 0.349919 0.377445 0.405109 0.432907 0.460476 0.487632 0.514723 0.541498 0.568155 0.59467 0.620904 0.647144 0.672936 0.698702 0.724065 0.748978 0.773883 0.797689 0.821307 0.843541 0.863753 0.882633 0.897841 0.909817 0.919457 0.924924 0.928243 0.930603 0.931062 0.931138 0.931182 0.931136 0.930997 0.930764 0.930474 0.930173 0.929893 0.929634 0.92939 0.92917 0.928979 0.928818 0.928681 0.928565 0.928464 0.928379 0.928306 0.928243 0.928189 0.928142 0.9281 0.928063 0.928029 0.927997 0.927968 0.92794 0.927913 0.927887 0.927863 0.927841 0.927819 0.927795 0.927766 0.927728 0.927668 0.92756 0.927348 0.926924 0.926065 0.924332 0.920873 0.914079 0.901069 0.877109 0.835445 0.768476 0.67118 0.545999 0.406558 0.272444 0.161532 0.0836445 0.0381416 0.0158368 0.00623337 0.00239145 0.000906792 0.000341785 0.00012832 4.80143e-05 1.79049e-05 6.65235e-06 2.46162e-06 9.0684e-07 3.32443e-07 1.21226e-07 4.39524e-08 1.58375e-08 5.66987e-09 2.01505e-09 7.10906e-10 2.48927e-10 8.63618e-11 2.95612e-11 1.00178e-11 3.15465e-12 1.54602e-12 -1.9837e-13 7.76205e-13 -2.62772e-13 3.21302e-13 -4.93045e-13 1.78493e-14 -5.70901e-14 -5.95675e-13 8.32959e-14 4.40491e-13 -6.89568e-13 2.93291e-13 7.38813e-13 4.89384e-13 -8.61184e-13 -7.81871e-13 0 0 -1.14472e-14 -1.155e-14 9.71196e-15 -3.07584e-14 -1.87177e-14 1.40349e-14 -1.32002e-15 -8.76442e-15 -3.07431e-14 -9.01634e-15 -7.97117e-15 -4.1974e-14 -2.50863e-14 -8.2523e-14 -5.7913e-14 -4.82653e-14 -1.40569e-13 7.09076e-14 -1.3352e-13 -9.13493e-14 -2.80275e-15 -3.09719e-14 -5.14519e-14 4.06861e-14 2.22751e-14 -1.92246e-13 1.17928e-13 -1.55274e-13 3.05003e-14 -5.10081e-14 1.10162e-13 -1.55502e-13 4.03156e-14 -2.9034e-13 2.90552e-14 -1.5415e-13 -2.9664e-14 1.59461e-13 -2.03991e-13 -1.50508e-13 5.31744e-14 -2.82693e-13 4.34208e-14 6.30059e-14 -9.6524e-14 6.45141e-13 4.32494e-12 2.836e-11 1.76317e-10 1.04504e-09 5.8449e-09 3.07992e-08 1.52447e-07 7.06529e-07 3.05492e-06 1.22717e-05 4.55733e-05 0.000155555 0.00048465 0.0013673 0.00346285 0.00781035 0.0156144 0.0277156 0.0441167 0.0640482 0.0864784 0.110539 0.135644 0.161451 0.187726 0.214312 0.241124 0.268114 0.295252 0.322523 0.349919 0.377445 0.405109 0.432907 0.460476 0.487632 0.514723 0.541498 0.568155 0.59467 0.620904 0.647144 0.672936 0.698702 0.724065 0.748978 0.773883 0.797689 0.821307 0.843541 0.863753 0.882633 0.897841 0.909817 0.919457 0.924924 0.928243 0.930603 0.931062 0.931138 0.931182 0.931136 0.930997 0.930764 0.930474 0.930173 0.929893 0.929634 0.92939 0.92917 0.928979 0.928818 0.928681 0.928565 0.928464 0.928379 0.928306 0.928243 0.928189 0.928142 0.9281 0.928063 0.928029 0.927997 0.927968 0.92794 0.927913 0.927887 0.927863 0.927841 0.927819 0.927795 0.927766 0.927728 0.927668 0.92756 0.927348 0.926924 0.926065 0.924332 0.920873 0.914079 0.901069 0.877109 0.835445 0.768476 0.67118 0.545999 0.406558 0.272444 0.161532 0.0836445 0.0381416 0.0158368 0.00623337 0.00239145 0.000906792 0.000341785 0.00012832 4.80143e-05 1.79049e-05 6.65235e-06 2.46162e-06 9.0684e-07 3.32444e-07 1.21226e-07 4.39519e-08 1.58381e-08 5.66949e-09 2.01538e-09 7.10927e-10 2.48642e-10 8.62601e-11 2.95243e-11 1.03508e-11 2.84198e-12 1.02259e-12 2.84758e-13 6.09009e-14 2.80698e-13 6.52312e-15 -3.28413e-13 -5.79041e-13 2.31019e-13 -2.95679e-13 1.98378e-13 3.44424e-14 2.1125e-13 -2.46786e-13 1.45888e-13 2.22962e-13 2.5824e-13 3.51723e-15 0 0 5.29758e-15 6.91632e-15 -3.01773e-14 2.39794e-14 -1.06872e-14 -3.28529e-14 -1.46585e-14 8.34843e-15 -4.33639e-14 -4.53868e-14 -2.25439e-14 -2.75862e-14 8.75517e-15 -2.60593e-14 -1.41255e-13 -3.00672e-14 3.67404e-14 2.78499e-14 -4.21973e-14 -2.42914e-13 -2.66699e-14 -3.54678e-14 -3.36984e-15 -1.11986e-13 -8.85043e-14 4.79706e-14 -2.2847e-13 1.38734e-13 6.1155e-14 4.8327e-14 -2.76055e-13 1.15362e-13 -2.90867e-13 1.02016e-13 -4.18929e-13 1.40794e-13 2.05414e-13 -2.01813e-13 -1.97029e-14 -7.10194e-14 -3.04722e-13 8.59331e-14 -1.94922e-13 -8.51597e-14 1.0623e-13 3.08298e-13 4.57426e-12 2.86665e-11 1.76433e-10 1.04476e-09 5.84496e-09 3.07993e-08 1.52447e-07 7.06528e-07 3.05492e-06 1.22717e-05 4.55733e-05 0.000155555 0.00048465 0.0013673 0.00346285 0.00781035 0.0156144 0.0277156 0.0441167 0.0640482 0.0864784 0.110539 0.135644 0.161451 0.187726 0.214312 0.241124 0.268114 0.295252 0.322523 0.349919 0.377445 0.405109 0.432907 0.460476 0.487632 0.514723 0.541498 0.568155 0.59467 0.620904 0.647144 0.672936 0.698702 0.724065 0.748978 0.773883 0.797689 0.821307 0.843541 0.863753 0.882633 0.897841 0.909817 0.919457 0.924924 0.928243 0.930603 0.931062 0.931138 0.931182 0.931136 0.930997 0.930764 0.930474 0.930173 0.929893 0.929634 0.92939 0.92917 0.928979 0.928818 0.928681 0.928565 0.928464 0.928379 0.928306 0.928243 0.928189 0.928142 0.9281 0.928063 0.928029 0.927997 0.927968 0.92794 0.927913 0.927887 0.927863 0.927841 0.927819 0.927795 0.927766 0.927728 0.927668 0.92756 0.927348 0.926924 0.926065 0.924332 0.920873 0.914079 0.901069 0.877109 0.835445 0.768476 0.67118 0.545999 0.406558 0.272444 0.161532 0.0836445 0.0381416 0.0158368 0.00623337 0.00239145 0.000906792 0.000341785 0.00012832 4.80143e-05 1.79049e-05 6.65235e-06 2.46162e-06 9.0684e-07 3.32444e-07 1.21226e-07 4.39517e-08 1.58379e-08 5.66946e-09 2.01571e-09 7.11058e-10 2.48924e-10 8.62425e-11 2.93594e-11 9.77169e-12 2.94958e-12 8.04223e-13 -7.67135e-13 1.30642e-12 -1.92872e-13 -3.69015e-13 3.03274e-13 -4.74302e-13 -3.06369e-13 1.13878e-12 5.71114e-13 -8.05983e-13 2.92678e-13 2.313e-13 -4.55339e-13 -1.28525e-13 1.84505e-13 2.65917e-13 0
				</DataArray>
				<DataArray Name="VitesseY" type="Float32" format="ascii">