<?xml version="1.0"?>
<VTKFile type="PolyData">
	<PolyData>
		<Piece NumberOfPoints="1206" NumberOfPolys="1000">
			<Points>
				<DataArray type="Float32" NumberOfComponents="3" format="ascii">
 0 0 0 0.005 0 0 0.01 0 0 0.015 0 0 0.02 0 0 0.025 0 0 0.03 0 0 0.035 0 0 0.04 0 0 0.045 0 0 0.05 0 0 0.055 0 0 0.06 0 0 0.065 0 0 0.07 0 0 0.075 0 0 0.08 0 0 0.085 0 0 0.09 0 0 0.095 0 0 0.1 0 0 0.105 0 0 0.11 0 0 0.115 0 0 0.12 0 0 0.125 0 0 0.13 0 0 0.135 0 0 0.14 0 0 0.145 0 0 0.15 0 0 0.155 0 0 0.16 0 0 0.165 0 0 0.17 0 0 0.175 0 0 0.18 0 0 0.185 0 0 0.19 0 0 0.195 0 0 0.2 0 0 0.205 0 0 0.21 0 0 0.215 0 0 0.22 0 0 0.225 0 0 0.23 0 0 0.235 0 0 0.24 0 0 0.245 0 0 0.25 0 0 0.255 0 0 0.26 0 0 0.265 0 0 0.27 0 0 0.275 0 0 0.28 0 0 0.285 0 0 0.29 0 0 0.295 0 0 0.3 0 0 0.305 0 0 0.31 0 0 0.315 0 0 0.32 0 0 0.325 0 0 0.33 0 0 0.335 0 0 0.34 0 0 0.345 0 0 0.35 0 0 0.355 0 0 0.36 0 0 0.365 0 0 0.37 0 0 0.375 0 0 0.38 0 0 0.385 0 0 0.39 0 0 0.395 0 0 0.4 0 0 0.405 0 0 0.41 0 0 0.415 0 0 0.42 0 0 0.425 0 0 0.43 0 0 0.435 0 0 0.44 0 0 0.445 0 0 0.45 0 0 0.455 0 0 0.46 0 0 0.465 0 0 0.47 0 0 0.475 0 0 0.48 0 0 0.485 0 0 0.49 0 0 0.495 0 0 0.5 0 0 0.505 0 0 0.51 0 0 0.515 0 0 0.52 0 0 0.525 0 0 0.53 0 0 0.535 0 0 0.54 0 0 0.545 0 0 0.55 0 0 0.555 0 0 0.56 0 0 0.565 0 0 0.57 0 0 0.575 0 0 0.58 0 0 0.585 0 0 0.59 0 0 0.595 0 0 0.6 0 0 0.605 0 0 0.61 0 0 0.615 0 0 0.62 0 0 0.625 0 0 0.63 0 0 0.635 0 0 0.64 0 0 0.645 0 0 0.65 0 0 0.655 0 0 0.66 0 0 0.665 0 0 0.67 0 0 0.675 0 0 0.68 0 0 0.685 0 0 0.69 0 0 0.695 0 0 0.7 0 0 0.705 0 0 0.71 0 0 0.715 0 0 0.72 0 0 0.725 0 0 0.73 0 0 0.735 0 0 0.74 0 0 0.745 0 0 0.75 0 0 0.755 0 0 0.76 0 0 0.765 0 0 0.77 0 0 0.775 0 0 0.78 0 0 0.785 0 0 0.79 0 0 0.795 0 0 0.8 0 0 0.805 0 0 0.81 0 0 0.815 0 0 0.82 0 0 0.825 0 0 0.83 0 0 0.835 0 0 0.84 0 0 0.845 0 0 0.85 0 0 0.855 0 0 0.86 0 0 0.865 0 0 0.87 0 0 0.875 0 0 0.88 0 0 0.885 0 0 0.89 0 0 0.895 0 0 0.9 0 0 0.905 0 0 0.91 0 0 0.915 0 0 0.92 0 0 0.925 0 0 0.93 0 0 0.935 0 0 0.94 0 0 0.945 0 0 0.95 0 0 0.955 0 0 0.96 0 0 0.965 0 0 0.97 0 0 0.975 0 0 0.98 0 0 0.985 0 0 0.99 0 0 0.995 0 0 1 0 0 0 0.02 0 0.005 0.02 0 0.01 0.02 0 0.015 0.02 0 0.02 0.02 0 0.025 0.02 0 0.03 0.02 0 0.035 0.02 0 0.04 0.02 0 0.045 0.02 0 0.05 0.02 0 0.055 0.02 0 0.06 0.02 0 0.065 0.02 0 0.07 0.02 0 0.075 0.02 0 0.08 0.02 0 0.085 0.02 0 0.09 0.02 0 0.095 0.02 0 0.1 0.02 0 0.105 0.02 0 0.11 0.02 0 0.115 0.02 0 0.12 0.02 0 0.125 0.02 0 0.13 0.02 0 0.135 0.02 0 0.14 0.02 0 0.145 0.02 0 0.15 0.02 0 0.155 0.02 0 0.16 0.02 0 0.165 0.02 0 0.17 0.02 0 0.175 0.02 0 0.18 0.02 0 0.185 0.02 0 0.19 0.02 0 0.195 0.02 0 0.2 0.02 0 0.205 0.02 0 0.21 0.02 0 0.215 0.02 0 0.22 0.02 0 0.225 0.02 0 0.23 0.02 0 0.235 0.02 0 0.24 0.02 0 0.245 0.02 0 0.25 0.02 0 0.255 0.02 0 0.26 0.02 0 0.265 0.02 0 0.27 0.02 0 0.275 0.02 0 0.28 0.02 0 0.285 0.02 0 0.29 0.02 0 0.295 0.02 0 0.3 0.02 0 0.305 0.02 0 0.31 0.02 0 0.315 0.02 0 0.32 0.02 0 0.325 0.02 0 0.33 0.02 0 0.335 0.02 0 0.34 0.02 0 0.345 0.02 0 0.35 0.02 0 0.355 0.02 0 0.36 0.02 0 0.365 0.02 0 0.37 0.02 0 0.375 0.02 0 0.38 0.02 0 0.385 0.02 0 0.39 0.02 0 0.395 0.02 0 0.4 0.02 0 0.405 0.02 0 0.41 0.02 0 0.415 0.02 0 0.42 0.02 0 0.425 0.02 0 0.43 0.02 0 0.435 0.02 0 0.44 0.02 0 0.445 0.02 0 0.45 0.02 0 0.455 0.02 0 0.46 0.02 0 0.465 0.02 0 0.47 0.02 0 0.475 0.02 0 0.48 0.02 0 0.485 0.02 0 0.49 0.02 0 0.495 0.02 0 0.5 0.02 0 0.505 0.02 0 0.51 0.02 0 0.515 0.02 0 0.52 0.02 0 0.525 0.02 0 0.53 0.02 0 0.535 0.02 0 0.54 0.02 0 0.545 0.02 0 0.55 0.02 0 0.555 0.02 0 0.56 0.02 0 0.565 0.02 0 0.57 0.02 0 0.575 0.02 0 0.58 0.02 0 0.585 0.02 0 0.59 0.02 0 0.595 0.02 0 0.6 0.02 0 0.605 0.02 0 0.61 0.02 0 0.615 0.02 0 0.62 0.02 0 0.625 0.02 0 0.63 0.02 0 0.635 0.02 0 0.64 0.02 0 0.645 0.02 0 0.65 0.02 0 0.655 0.02 0 0.66 0.02 0 0.665 0.02 0 0.67 0.02 0 0.675 0.02 0 0.68 0.02 0 0.685 0.02 0 0.69 0.02 0 0.695 0.02 0 0.7 0.02 0 0.705 0.02 0 0.71 0.02 0 0.715 0.02 0 0.72 0.02 0 0.725 0.02 0 0.73 0.02 0 0.735 0.02 0 0.74 0.02 0 0.745 0.02 0 0.75 0.02 0 0.755 0.02 0 0.76 0.02 0 0.765 0.02 0 0.77 0.02 0 0.775 0.02 0 0.78 0.02 0 0.785 0.02 0 0.79 0.02 0 0.795 0.02 0 0.8 0.02 0 0.805 0.02 0 0.81 0.02 0 0.815 0.02 0 0.82 0.02 0 0.825 0.02 0 0.83 0.02 0 0.835 0.02 0 0.84 0.02 0 0.845 0.02 0 0.85 0.02 0 0.855 0.02 0 0.86 0.02 0 0.865 0.02 0 0.87 0.02 0 0.875 0.02 0 0.88 0.02 0 0.885 0.02 0 0.89 0.02 0 0.895 0.02 0 0.9 0.02 0 0.905 0.02 0 0.91 0.02 0 0.915 0.02 0 0.92 0.02 0 0.925 0.02 0 0.93 0.02 0 0.935 0.02 0 0.94 0.02 0 0.945 0.02 0 0.95 0.02 0 0.955 0.02 0 0.96 0.02 0 0.965 0.02 0 0.97 0.02 0 0.975 0.02 0 0.98 0.02 0 0.985 0.02 0 0.99 0.02 0 0.995 0.02 0 1 0.02 0 0 0.04 0 0.005 0.04 0 0.01 0.04 0 0.015 0.04 0 0.02 0.04 0 0.025 0.04 0 0.03 0.04 0 0.035 0.04 0 0.04 0.04 0 0.045 0.04 0 0.05 0.04 0 0.055 0.04 0 0.06 0.04 0 0.065 0.04 0 0.07 0.04 0 0.075 0.04 0 0.08 0.04 0 0.085 0.04 0 0.09 0.04 0 0.095 0.04 0 0.1 0.04 0 0.105 0.04 0 0.11 0.04 0 0.115 0.04 0 0.12 0.04 0 0.125 0.04 0 0.13 0.04 0 0.135 0.04 0 0.14 0.04 0 0.145 0.04 0 0.15 0.04 0 0.155 0.04 0 0.16 0.04 0 0.165 0.04 0 0.17 0.04 0 0.175 0.04 0 0.18 0.04 0 0.185 0.04 0 0.19 0.04 0 0.195 0.04 0 0.2 0.04 0 0.205 0.04 0 0.21 0.04 0 0.215 0.04 0 0.22 0.04 0 0.225 0.04 0 0.23 0.04 0 0.235 0.04 0 0.24 0.04 0 0.245 0.04 0 0.25 0.04 0 0.255 0.04 0 0.26 0.04 0 0.265 0.04 0 0.27 0.04 0 0.275 0.04 0 0.28 0.04 0 0.285 0.04 0 0.29 0.04 0 0.295 0.04 0 0.3 0.04 0 0.305 0.04 0 0.31 0.04 0 0.315 0.04 0 0.32 0.04 0 0.325 0.04 0 0.33 0.04 0 0.335 0.04 0 0.34 0.04 0 0.345 0.04 0 0.35 0.04 0 0.355 0.04 0 0.36 0.04 0 0.365 0.04 0 0.37 0.04 0 0.375 0.04 0 0.38 0.04 0 0.385 0.04 0 0.39 0.04 0 0.395 0.04 0 0.4 0.04 0 0.405 0.04 0 0.41 0.04 0 0.415 0.04 0 0.42 0.04 0 0.425 0.04 0 0.43 0.04 0 0.435 0.04 0 0.44 0.04 0 0.445 0.04 0 0.45 0.04 0 0.455 0.04 0 0.46 0.04 0 0.465 0.04 0 0.47 0.04 0 0.475 0.04 0 0.48 0.04 0 0.485 0.04 0 0.49 0.04 0 0.495 0.04 0 0.5 0.04 0 0.505 0.04 0 0.51 0.04 0 0.515 0.04 0 0.52 0.04 0 0.525 0.04 0 0.53 0.04 0 0.535 0.04 0 0.54 0.04 0 0.545 0.04 0 0.55 0.04 0 0.555 0.04 0 0.56 0.04 0 0.565 0.04 0 0.57 0.04 0 0.575 0.04 0 0.58 0.04 0 0.585 0.04 0 0.59 0.04 0 0.595 0.04 0 0.6 0.04 0 0.605 0.04 0 0.61 0.04 0 0.615 0.04 0 0.62 0.04 0 0.625 0.04 0 0.63 0.04 0 0.635 0.04 0 0.64 0.04 0 0.645 0.04 0 0.65 0.04 0 0.655 0.04 0 0.66 0.04 0 0.665 0.04 0 0.67 0.04 0 0.675 0.04 0 0.68 0.04 0 0.685 0.04 0 0.69 0.04 0 0.695 0.04 0 0.7 0.04 0 0.705 0.04 0 0.71 0.04 0 0.715 0.04 0 0.72 0.04 0 0.725 0.04 0 0.73 0.04 0 0.735 0.04 0 0.74 0.04 0 0.745 0.04 0 0.75 0.04 0 0.755 0.04 0 0.76 0.04 0 0.765 0.04 0 0.77 0.04 0 0.775 0.04 0 0.78 0.04 0 0.785 0.04 0 0.79 0.04 0 0.795 0.04 0 0.8 0.04 0 0.805 0.04 0 0.81 0.04 0 0.815 0.04 0 0.82 0.04 0 0.825 0.04 0 0.83 0.04 0 0.835 0.04 0 0.84 0.04 0 0.845 0.04 0 0.85 0.04 0 0.855 0.04 0 0.86 0.04 0 0.865 0.04 0 0.87 0.04 0 0.875 0.04 0 0.88 0.04 0 0.885 0.04 0 0.89 0.04 0 0.895 0.04 0 0.9 0.04 0 0.905 0.04 0 0.91 0.04 0 0.915 0.04 0 0.92 0.04 0 0.925 0.04 0 0.93 0.04 0 0.935 0.04 0 0.94 0.04 0 0.945 0.04 0 0.95 0.04 0 0.955 0.04 0 0.96 0.04 0 0.965 0.04 0 0.97 0.04 0 0.975 0.04 0 0.98 0.04 0 0.985 0.04 0 0.99 0.04 0 0.995 0.04 0 1 0.04 0 0 0.06 0 0.005 0.06 0 0.01 0.06 0 0.015 0.06 0 0.02 0.06 0 0.025 0.06 0 0.03 0.06 0 0.035 0.06 0 0.04 0.06 0 0.045 0.06 0 0.05 0.06 0 0.055 0.06 0 0.06 0.06 0 0.065 0.06 0 0.07 0.06 0 0.075 0.06 0 0.08 0.06 0 0.085 0.06 0 0.09 0.06 0 0.095 0.06 0 0.1 0.06 0 0.105 0.06 0 0.11 0.06 0 0.115 0.06 0 0.12 0.06 0 0.125 0.06 0 0.13 0.06 0 0.135 0.06 0 0.14 0.06 0 0.145 0.06 0 0.15 0.06 0 0.155 0.06 0 0.16 0.06 0 0.165 0.06 0 0.17 0.06 0 0.175 0.06 0 0.18 0.06 0 0.185 0.06 0 0.19 0.06 0 0.195 0.06 0 0.2 0.06 0 0.205 0.06 0 0.21 0.06 0 0.215 0.06 0 0.22 0.06 0 0.225 0.06 0 0.23 0.06 0 0.235 0.06 0 0.24 0.06 0 0.245 0.06 0 0.25 0.06 0 0.255 0.06 0 0.26 0.06 0 0.265 0.06 0 0.27 0.06 0 0.275 0.06 0 0.28 0.06 0 0.285 0.06 0 0.29 0.06 0 0.295 0.06 0 0.3 0.06 0 0.305 0.06 0 0.31 0.06 0 0.315 0.06 0 0.32 0.06 0 0.325 0.06 0 0.33 0.06 0 0.335 0.06 0 0.34 0.06 0 0.345 0.06 0 0.35 0.06 0 0.355 0.06 0 0.36 0.06 0 0.365 0.06 0 0.37 0.06 0 0.375 0.06 0 0.38 0.06 0 0.385 0.06 0 0.39 0.06 0 0.395 0.06 0 0.4 0.06 0 0.405 0.06 0 0.41 0.06 0 0.415 0.06 0 0.42 0.06 0 0.425 0.06 0 0.43 0.06 0 0.435 0.06 0 0.44 0.06 0 0.445 0.06 0 0.45 0.06 0 0.455 0.06 0 0.46 0.06 0 0.465 0.06 0 0.47 0.06 0 0.475 0.06 0 0.48 0.06 0 0.485 0.06 0 0.49 0.06 0 0.495 0.06 0 0.5 0.06 0 0.505 0.06 0 0.51 0.06 0 0.515 0.06 0 0.52 0.06 0 0.525 0.06 0 0.53 0.06 0 0.535 0.06 0 0.54 0.06 0 0.545 0.06 0 0.55 0.06 0 0.555 0.06 0 0.56 0.06 0 0.565 0.06 0 0.57 0.06 0 0.575 0.06 0 0.58 0.06 0 0.585 0.06 0 0.59 0.06 0 0.595 0.06 0 0.6 0.06 0 0.605 0.06 0 0.61 0.06 0 0.615 0.06 0 0.62 0.06 0 0.625 0.06 0 0.63 0.06 0 0.635 0.06 0 0.64 0.06 0 0.645 0.06 0 0.65 0.06 0 0.655 0.06 0 0.66 0.06 0 0.665 0.06 0 0.67 0.06 0 0.675 0.06 0 0.68 0.06 0 0.685 0.06 0 0.69 0.06 0 0.695 0.06 0 0.7 0.06 0 0.705 0.06 0 0.71 0.06 0 0.715 0.06 0 0.72 0.06 0 0.725 0.06 0 0.73 0.06 0 0.735 0.06 0 0.74 0.06 0 0.745 0.06 0 0.75 0.06 0 0.755 0.06 0 0.76 0.06 0 0.765 0.06 0 0.77 0.06 0 0.775 0.06 0 0.78 0.06 0 0.785 0.06 0 0.79 0.06 0 0.795 0.06 0 0.8 0.06 0 0.805 0.06 0 0.81 0.06 0 0.815 0.06 0 0.82 0.06 0 0.825 0.06 0 0.83 0.06 0 0.835 0.06 0 0.84 0.06 0 0.845 0.06 0 0.85 0.06 0 0.855 0.06 0 0.86 0.06 0 0.865 0.06 0 0.87 0.06 0 0.875 0.06 0 0.88 0.06 0 0.885 0.06 0 0.89 0.06 0 0.895 0.06 0 0.9 0.06 0 0.905 0.06 0 0.91 0.06 0 0.915 0.06 0 0.92 0.06 0 0.925 0.06 0 0.93 0.06 0 0.935 0.06 0 0.94 0.06 0 0.945 0.06 0 0.95 0.06 0 0.955 0.06 0 0.96 0.06 0 0.965 0.06 0 0.97 0.06 0 0.975 0.06 0 0.98 0.06 0 0.985 0.06 0 0.99 0.06 0 0.995 0.06 0 1 0.06 0 0 0.08 0 0.005 0.08 0 0.01 0.08 0 0.015 0.08 0 0.02 0.08 0 0.025 0.08 0 0.03 0.08 0 0.035 0.08 0 0.04 0.08 0 0.045 0.08 0 0.05 0.08 0 0.055 0.08 0 0.06 0.08 0 0.065 0.08 0 0.07 0.08 0 0.075 0.08 0 0.08 0.08 0 0.085 0.08 0 0.09 0.08 0 0.095 0.08 0 0.1 0.08 0 0.105 0.08 0 0.11 0.08 0 0.115 0.08 0 0.12 0.08 0 0.125 0.08 0 0.13 0.08 0 0.135 0.08 0 0.14 0.08 0 0.145 0.08 0 0.15 0.08 0 0.155 0.08 0 0.16 0.08 0 0.165 0.08 0
[...]
			<PointData Scalars="VitesseX">
				<DataArray Name="VitesseX" type="Float32" format="ascii">
 0 -6.88618e-16 -2.71948e-15 -2.4422e-15 8.53996e-15 -6.84979e-15 1.2838e-15 -2.30257e-14 1.53608e-14 -3.89784e-15 -1.82463e-14 -1.61551e-14 -1.06711e-14 -7.09939e-14 -3.51816e-14 -4.09597e-14 -1.27982e-13 -9.25146e-14 -1.07883e-13 -4.05549e-14 -1.35096e-14 -4.03639e-14 3.4297e-14 4.90992e-14 2.26291e-14 1.44448e-13 -6.61209e-14 4.393e-14 1.96492e-14 5.98573e-14 -5.82176e-14 -1.91375e-13 5.73728e-14 -2.06493e-13 5.40943e-14 -7.56985e-14 -4.92956e-14 1.92369e-14 -1.80166e-13 -4.9519e-14 1.13702e-13 -1.652e-14 -1.10795e-13 4.10777e-13 2.56707e-12 1.64408e-11 9.96833e-11 5.79621e-10 3.18984e-09 1.65823e-08 8.12533e-08 3.74188e-07 1.61432e-06 6.50032e-06 2.43251e-05 8.41695e-05 0.000267691 0.000777041 0.00204248 0.00482271 0.0101637 0.0190771 0.0320425 0.0487554 0.0683769 0.0899977 0.112915 0.136673 0.161003 0.185715 0.210687 0.235851 0.261167 0.286609 0.312163 0.337823 0.363587 0.389461 0.415453 0.441514 0.467182 0.492759 0.518043 0.543289 0.568253 0.593235 0.617917 0.642581 0.667006 0.691193 0.715322 0.738883 0.762476 0.785474 0.807935 0.829986 0.850285 0.86951 0.886605 0.900339 0.911973 0.920233 0.92512 0.928807 0.930466 0.930817 0.931128 0.931151 0.931074 0.9309 0.930666 0.93041 0.93015 0.929887 0.929624 0.929377 0.929161 0.928976 0.928817 0.92868 0.928562 0.928461 0.928375 0.9283 0.928236 0.92818 0.928131 0.928088 0.928051 0.928017 0.927987 0.92796 0.927934 0.927911 0.927888 0.927867 0.927846 0.927827 0.927808 0.92779 0.927772 0.927753 0.92773 0.9277 0.927655 0.927576 0.927423 0.927118 0.926506 0.925272 0.922806 0.917939 0.908516 0.890822 0.859114 0.805985 0.724554 0.61271 0.478567 0.339211 0.214769 0.119376 0.0580084 0.025177 0.0101574 0.00394664 0.00150747 0.000571304 0.000215604 8.11251e-05 3.04424e-05 1.13915e-05 4.24952e-06 1.57984e-06 5.85108e-07 2.15796e-07 7.92247e-08 2.89417e-08 1.0516e-08 3.79927e-09 1.36384e-09 4.86441e-10 1.7228e-10 6.05648e-11 2.07953e-11 7.27959e-12 2.32684e-12 5.3359e-14 4.47224e-13 -3.00769e-13 -1.66632e-13 6.77358e-13 3.28688e-13 -5.33749e-13 -6.2026e-13 1.15628e-12 3.25549e-13 -8.42349e-13 2.70904e-13 -5.7856e-13 0 0 -7.20324e-15 -8.45622e-15 5.39681e-15 -1.0919e-14 2.84616e-15 1.19482e-14 -9.91243e-15 -2.15766e-14 -1.37494e-14 -3.15442e-14 -1.07706e-14 -2.94974e-14 -3.20811e-14 -5.55965e-14 -9.60027e-14 -4.11653e-14 -1.13215e-13 -8.43686e-14 -5.22844e-14 -5.63567e-14 2.99857e-14 -2.43901e-14 3.06092e-14 1.25319e-13 2.83365e-14 1.9347e-14 -2.95648e-14 -4.28258e-15 -5.60087e-14 -1.55846e-14 7.3302e-14 -1.83927e-13 4.70295e-14 -1.45309e-13 1.14411e-14 -4.74946e-14 -1.13564e-13 6.55026e-14 -9.27602e-14 -1.30214e-13 -4.91531e-14 1.0676e-13 3.22592e-13 2.51391e-12 1.62155e-11 9.99778e-11 5.79713e-10 3.18932e-09 1.65825e-08 8.12534e-08 3.74187e-07 1.61432e-06 6.50032e-06 2.43252e-05 8.41695e-05 0.000267691 0.000777041 0.00204248 0.00482271 0.0101637 0.0190771 0.0320425 0.0487554 0.0683769 0.0899977 0.112915 0.136673 0.161003 0.185715 0.210687 0.235851 0.261167 0.286609 0.312163 0.337823 0.363587 0.389461 0.415453 0.441514 0.467182 0.492759 0.518043 0.543289 0.568253 0.593235 0.617917 0.642581 0.667006 0.691193 0.715322 0.738883 0.762476 0.785474 0.807935 0.829986 0.850285 0.86951 0.886605 0.900339 0.911973 0.920233 0.92512 0.928807 0.930466 0.930817 0.931128 0.931151 0.931074 0.9309 0.930666 0.93041 0.93015 0.929887 0.929624 0.929377 0.929161 0.928976 0.928817 0.92868 0.928562 0.928461 0.928375 0.9283 0.928236 0.92818 0.928131 0.928088 0.928051 0.928017 0.927987 0.92796 0.927934 0.927911 0.927888 0.927867 0.927846 0.927827 0.927808 0.92779 0.927772 0.927753 0.92773 0.9277 0.927655 0.927576 0.927423 0.927118 0.926506 0.925272 0.922806 0.917939 0.908516 0.890822 0.859114 0.805985 0.724554 0.61271 0.478567 0.339211 0.214769 0.119376 0.0580084 0.025177 0.0101574 0.00394664 0.00150747 0.000571304 0.000215604 8.11251e-05 3.04424e-05 1.13915e-05 4.24952e-06 1.57984e-06 5.85109e-07 2.15796e-07 7.92249e-08 2.89414e-08 1.05161e-08 3.79906e-09 1.36425e-09 4.86565e-10 1.72265e-10 6.01273e-11 2.12216e-11 6.94456e-12 2.34902e-12 7.1075e-13 -2.44534e-13 3.16597e-13 9.39194e-14 -4.41224e-13 2.11986e-13 4.17864e-13 4.60499e-13 -4.04456e-13 -1.02545e-13 4.74147e-13 -2.64272e-13 2.42797e-13 0 0 4.24635e-15 7.5689e-15 -1.2036e-14 -1.08907e-14 -6.83399e-15 -2.81029e-14 -3.58725e-14 1.60626e-14 -3.32956e-14 -1.26194e-14 -7.05842e-14 -4.64361e-14 -3.17044e-14 -4.94668e-14 -3.5943e-14 -9.09766e-14 -4.44024e-14 -5.86963e-14 -7.31126e-14 -1.3934e-14 -3.45625e-14 5.93945e-14 -2.51702e-15 -3.77453e-15 -1.48482e-14 8.03488e-14 4.65829e-14 -3.73451e-14 3.7925e-14 -5.32523e-14 -1.30468e-13 -5.95928e-14 4.75495e-14 -6.10268e-14 -1.33388e-13 -4.41123e-14 -4.84629e-14 -2.3082e-14 -1.33063e-13 -4.67906e-14 -1.5605e-16 2.09555e-14 3.25358e-13 2.50094e-12 1.62767e-11 9.99038e-11 5.79687e-10 3.18955e-09 1.65822e-08 8.12534e-08 3.74187e-07 1.61432e-06 6.50032e-06 2.43252e-05 8.41695e-05 0.000267691 0.000777041 0.00204248 0.00482271 0.0101637 0.0190771 0.0320425 0.0487554 0.0683769 0.0899977 0.112915 0.136673 0.161003 0.185715 0.210687 0.235851 0.261167 0.286609 0.312163 0.337823 0.363587 0.389461 0.415453 0.441514 0.467182 0.492759 0.518043 0.543289 0.568253 0.593235 0.617917 0.642581 0.667006 0.691193 0.715322 0.738883 0.762476 0.785474 0.807935 0.829986 0.850285 0.86951 0.886605 0.900339 0.911973 0.920233 0.92512 0.928807 0.930466 0.930817 0.931128 0.931151 0.931074 0.9309 0.930666 0.93041 0.93015 0.929887 0.929624 0.929377 0.929161 0.928976 0.928817 0.92868 0.928562 0.928461 0.928375 0.9283 0.928236 0.92818 0.928131 0.928088 0.928051 0.928017 0.927987 0.92796 0.927934 0.927911 0.927888 0.927867 0.927846 0.927827 0.927808 0.92779 0.927772 0.927753 0.92773 0.9277 0.927655 0.927576 0.927423 0.927118 0.926506 0.925272 0.922806 0.917939 0.908516 0.890822 0.859114 0.805985 0.724554 0.61271 0.478567 0.339211 0.214769 0.119376 0.0580084 0.025177 0.0101574 0.00394664 0.00150747 0.000571304 0.000215604 8.11251e-05 3.04424e-05 1.13915e-05 4.24952e-06 1.57984e-06 5.85108e-07 2.15796e-07 7.92248e-08 2.89416e-08 1.05161e-08 3.79921e-09 1.36426e-09 4.86667e-10 1.72123e-10 6.05957e-11 2.1004e-11 7.12935e-12 2.25206e-12 4.43451e-13 3.60901e-13 -9.36477e-14 7.61807e-14 9.6848e-14 1.98519e-13 -1.12126e-13 3.01876e-13 -1.52815e-13 -3.23343e-13 1.26543e-13 2.73242e-13 -2.3341e-13 0 0 -1.75024e-15 -4.35935e-15 -2.7638e-15 -1.63127e-14 -4.20563e-14 -1.86298e-14 -2.72654e-14 -3.61018e-14 -1.6259e-14 -4.8966e-14 -2.85231e-14 -4.59853e-14 -3.78774e-14 -8.49384e-14 -3.16736e-15 -9.01596e-14 -4.57684e-14 -5.88506e-14 -2.05259e-14 -7.46922e-14 3.08318e-14 -8.11945e-14 5.44892e-14 -3.51068e-14 1.62634e-13 9.05962e-14 -6.29724e-14 -4.67339e-14 -1.29473e-14 -7.07747e-14 -1.40998e-13 4.24706e-14 -2.19241e-13 1.69702e-14 -5.22276e-14 -6.60835e-14 -3.95778e-14 -1.96854e-13 -4.22339e-14 1.687e-14 4.02206e-14 8.61347e-14 4.0047e-13 2.56661e-12 1.63073e-11 9.9757e-11 5.7977e-10 3.18972e-09 1.65822e-08 8.12533e-08 3.74187e-07 1.61432e-06 6.50032e-06 2.43251e-05 8.41695e-05 0.000267691 0.000777041 0.00204248 0.00482271 0.0101637 0.0190771 0.0320425 0.0487554 0.0683769 0.0899977 0.112915 0.136673 0.161003 0.185715 0.210687 0.235851 0.261167 0.286609 0.312163 0.337823 0.363587 0.389461 0.415453 0.441514 0.467182 0.492759 0.518043 0.543289 0.568253 0.593235 0.617917 0.642581 0.667006 0.691193 0.715322 0.738883 0.762476 0.785474 0.807935 0.829986 0.850285 0.86951 0.886605 0.900339 0.911973 0.920233 0.92512 0.928807 0.930466 0.930817 0.931128 0.931151 0.931074 0.9309 0.930666 0.93041 0.93015 0.929887 0.929624 0.929377 0.929161 0.928976 0.928817 0.92868 0.928562 0.928461 0.928375 0.9283 0.928236 0.92818 0.928131 0.928088 0.928051 0.928017 0.927987 0.92796 0.927934 0.927911 0.927888 0.927867 0.927846 0.927827 0.927808 0.92779 0.927772 0.927753 0.92773 0.9277 0.927655 0.927576 0.927423 0.927118 0.926506 0.925272 0.922806 0.917939 0.908516 0.890822 0.859114 0.805985 0.724554 0.61271 0.478567 0.339211 0.214769 0.119376 0.0580084 0.025177 0.0101574 0.00394664 0.00150747 0.000571304 0.000215604 8.11251e-05 3.04424e-05 1.13915e-05 4.24952e-06 1.57984e-06 5.85108e-07 2.15796e-07 7.92249e-08 2.89416e-08 1.05163e-08 3.79898e-09 1.3641e-09 4.86551e-10 1.72853e-10 6.05064e-11 2.10086e-11 7.24655e-12 2.29093e-12 5.95666e-13 4.08392e-13 -6.03215e-13 -2.28096e-13 5.81277e-13 1.51872e-13 -8.3193e-13 -3.69216e-13 2.06388e-13 -1.62823e-13 7.70599e-14 2.46226e-13 4.08832e-13 0 0 -1.00213e-14 -1.27072e-14 -2.20022e-15 -2.06283e-14 -3.33468e-14 -1.2561e-14 -3.75532e-14 -7.39832e-14 -1.44002e-14 -6.19983e-14 1.4304e-14 -2.76391e-14 -3.06424e-14 -8.97775e-14 -7.5892e-14 3.09844e-14 -5.49136e-14 -2.82722e-14 -3.69799e-14 -1.29026e-13 5.45626e-14 -1.70077e-13 1.9493e-14 5.33975e-14 5.61059e-14 2.2227e-14 -1.19578e-13 -7.7282e-14 -1.07318e-13 -2.20194e-14 3.91459e-14 -1.56708e-13 -8.74525e-14 -8.94694e-14 1.04298e-13 -2.88899e-14 -3.13472e-14 -8.77339e-15 3.0866e-14 -1.61677e-13 -7.13425e-14 1.66885e-13 3.2991e-13 2.48301e-12 1.62349e-11 9.99609e-11 5.79787e-10 3.18942e-09 1.65826e-08 8.12533e-08 3.74188e-07 1.61432e-06 6.50032e-06 2.43252e-05 8.41695e-05 0.000267691 0.000777041 0.00204248 0.00482271 0.0101637 0.0190771 0.0320425 0.0487554 0.0683769 0.0899977 0.112915 0.136673 0.161003 0.185715 0.210687 0.235851 0.261167 0.286609 0.312163 0.337823 0.363587 0.389461 0.415453 0.441514 0.467182 0.492759 0.518043 0.543289 0.568253 0.593235 0.617917 0.642581 0.667006 0.691193 0.715322 0.738883 0.762476 0.785474 0.807935 0.829986 0.850285 0.86951 0.886605 0.900339 0.911973 0.920233 0.92512 0.928807 0.930466 0.930817 0.931128 0.931151 0.931074 0.9309 0.930666 0.93041 0.93015 0.929887 0.929624 0.929377 0.929161 0.928976 0.928817 0.92868 0.928562 0.928461 0.928375 0.9283 0.928236 0.92818 0.928131 0.928088 0.928051 0.928017 0.927987 0.92796 0.927934 0.927911 0.927888 0.927867 0.927846 0.927827 0.927808 0.92779 0.927772 0.927753 0.92773 0.9277 0.927655 0.927576 0.927423 0.927118 0.926506 0.925272 0.922806 0.917939 0.908516 0.890822 0.859114 0.805985 0.724554 0.61271 0.478567 0.339211 0.214769 0.119376 0.0580084 0.025177 0.0101574 0.00394664 0.00150747 0.000571304 0.000215604 8.11251e-05 3.04424e-05 1.13915e-05 4.24952e-06 1.57984e-06 5.85108e-07 2.15796e-07 7.92251e-08 2.89413e-08 1.05162e-08 3.79898e-09 1.36415e-09 4.86767e-10 1.72566e-10 6.03821e-11 2.11854e-11 6.83217e-12 2.48969e-12 8.14595e-13 -3.3875e-13 3.61086e-13 -1.72109e-13 -4.69626e-13 -7.32704e-14 1.10446e-13 7.16795e-14 -4.73672e-13 -4.27825e-13 3.99821e-13 -3.35476e-13 6.74288e-13 0 0 5.6684e-15 1.2635e-14 -3.61807e-14 -3.46247e-17 -8.79107e-15 -6.66809e-14 -9.55214e-14 1.48762e-14 -3.92727e-14 -6.46149e-15 -5.01281e-14 -7.85627e-15 -5.57705e-14 -3.26002e-14 -6.62896e-14 1.46831e-14 2.68206e-14 4.61844e-15 -1.15119e-13 -3.73325e-14 -1.21999e-13 2.41005e-14 -8.71456e-14 -5.85494e-14 -1.54977e-13 -8.08557e-14 8.30135e-14 -1.07572e-13 5.89839e-14 -3.60425e-14 -2.38627e-13 -9.23166e-14 5.81239e-14 9.77858e-15 -5.2305e-14 3.1856e-14 1.659e-13 1.88251e-14 1.60747e-14 -7.65455e-14 -1.41652e-13 -1.20904e-13 2.75188e-13 2.37392e-12 1.64184e-11 9.99431e-11 5.79603e-10 3.18969e-09 1.65825e-08 8.12533e-08 3.74188e-07 1.61432e-06 6.50032e-06 2.43251e-05 8.41695e-05 0.000267691 0.000777041 0.00204248 0.00482271 0.0101637 0.0190771 0.0320425 0.0487554 0.0683769 0.0899977 0.112915 0.136673 0.161003 0.185715 0.210687 0.235851 0.261167 0.286609 0.312163 0.337823 0.363587 0.389461 0.415453 0.441514 0.467182 0.492759 0.518043 0.543289 0.568253 0.593235 0.617917 0.642581 0.667006 0.691193 0.715322 0.738883 0.762476 0.785474 0.807935 0.829986 0.850285 0.86951 0.886605 0.900339 0.911973 0.920233 0.92512 0.928807 0.930466 0.930817 0.931128 0.931151 0.931074 0.9309 0.930666 0.93041 0.93015 0.929887 0.929624 0.929377 0.929161 0.928976 0.928817 0.92868 0.928562 0.928461 0.928375 0.9283 0.928236 0.92818 0.928131 0.928088 0.928051 0.928017 0.927987 0.92796 0.927934 0.927911 0.927888 0.927867 0.927846 0.927827 0.927808 0.92779 0.927772 0.927753 0.92773 0.9277 0.927655 0.927576 0.927423 0.927118 0.926506 0.925272 0.922806 0.917939 0.908516 0.890822 0.859114 0.805985 0.724554 0.61271 0.478567 0.339211 0.214769 0.119376 0.0580084 0.025177 0.0101574 0.00394664 0.00150747 0.000571304 0.000215604 8.11251e-05 3.04424e-05 1.13915e-05 4.24952e-06 1.57984e-06 5.85108e-07 2.15796e-07 7.92248e-08 2.89415e-08 1.05159e-08 3.79957e-09 1.36395e-09 4.87078e-10 1.71422e-10 6.12528e-11 2.07137e-11 6.82042e-12 2.53044e-12 -4.33793e-14 1.63809e-13 8.07345e-13 -9.01354e-14 -3.48303e-13 -1.48532e-13 2.91024e-13 -5.57123e-14 2.99447e-13 -6.4605e-13 -8.92034e-13 1.82528e-13 -1.00006e-12 0
				</DataArray>
				<DataArray Name="VitesseY" type="Float32" format="ascii">