<?xml version="1.0"?>
<VTKFile type="PolyData">
	<PolyData>
		<Piece NumberOfPoints="1206" NumberOfPolys="1000">
			<Points>
				<DataArray type="Float32" NumberOfComponents="3" format="ascii">
 0 0 0 0.005 0 0 0.01 0 0 0.015 0 0 0.02 0 0 0.025 0 0 0.03 0 0 0.035 0 0 0.04 0 0 0.045 0 0 0.05 0 0 0.055 0 0 0.06 0 0 0.065 0 0 0.07 0 0 0.075 0 0 0.08 0 0 0.085 0 0 0.09 0 0 0.095 0 0 0.1 0 0 0.105 0 0 0.11 0 0 0.115 0 0 0.12 0 0 0.125 0 0 0.13 0 0 0.135 0 0 0.14 0 0 0.145 0 0 0.15 0 0 0.155 0 0 0.16 0 0 0.165 0 0 0.17 0 0 0.175 0 0 0.18 0 0 0.185 0 0 0.19 0 0 0.195 0 0 0.2 0 0 0.205 0 0 0.21 0 0 0.215 0 0 0.22 0 0 0.225 0 0 0.23 0 0 0.235 0 0 0.24 0 0 0.245 0 0 0.25 0 0 0.255 0 0 0.26 0 0 0.265 0 0 0.27 0 0 0.275 0 0 0.28 0 0 0.285 0 0 0.29 0 0 0.295 0 0 0.3 0 0 0.305 0 0 0.31 0 0 0.315 0 0 0.32 0 0 0.325 0 0 0.33 0 0 0.335 0 0 0.34 0 0 0.345 0 0 0.35 0 0 0.355 0 0 0.36 0 0 0.365 0 0 0.37 0 0 0.375 0 0 0.38 0 0 0.385 0 0 0.39 0 0 0.395 0 0 0.4 0 0 0.405 0 0 0.41 0 0 0.415 0 0 0.42 0 0 0.425 0 0 0.43 0 0 0.435 0 0 0.44 0 0 0.445 0 0 0.45 0 0 0.455 0 0 0.46 0 0 0.465 0 0 0.47 0 0 0.475 0 0 0.48 0 0 0.485 0 0 0.49 0 0 0.495 0 0 0.5 0 0 0.505 0 0 0.51 0 0 0.515 0 0 0.52 0 0 0.525 0 0 0.53 0 0 0.535 0 0 0.54 0 0 0.545 0 0 0.55 0 0 0.555 0 0 0.56 0 0 0.565 0 0 0.57 0 0 0.575 0 0 0.58 0 0 0.585 0 0 0.59 0 0 0.595 0 0 0.6 0 0 0.605 0 0 0.61 0 0 0.615 0 0 0.62 0 0 0.625 0 0 0.63 0 0 0.635 0 0 0.64 0 0 0.645 0 0 0.65 0 0 0.655 0 0 0.66 0 0 0.665 0 0 0.67 0 0 0.675 0 0 0.68 0 0 0.685 0 0 0.69 0 0 0.695 0 0 0.7 0 0 0.705 0 0 0.71 0 0 0.715 0 0 0.72 0 0 0.725 0 0 0.73 0 0 0.735 0 0 0.74 0 0 0.745 0 0 0.75 0 0 0.755 0 0 0.76 0 0 0.765 0 0 0.77 0 0 0.775 0 0 0.78 0 0 0.785 0 0 0.79 0 0 0.795 0 0 0.8 0 0 0.805 0 0 0.81 0 0 0.815 0 0 0.82 0 0 0.825 0 0 0.83 0 0 0.835 0 0 0.84 0 0 0.845 0 0 0.85 0 0 0.855 0 0 0.86 0 0 0.865 0 0 0.87 0 0 0.875 0 0 0.88 0 0 0.885 0 0 0.89 0 0 0.895 0 0 0.9 0 0 0.905 0 0 0.91 0 0 0.915 0 0 0.92 0 0 0.925 0 0 0.93 0 0 0.935 0 0 0.94 0 0 0.945 0 0 0.95 0 0 0.955 0 0 0.96 0 0 0.965 0 0 0.97 0 0 0.975 0 0 0.98 0 0 0.985 0 0 0.99 0 0 0.995 0 0 1 0 0 0 0.02 0 0.005 0.02 0 0.01 0.02 0 0.015 0.02 0 0.02 0.02 0 0.025 0.02 0 0.03 0.02 0 0.035 0.02 0 0.04 0.02 0 0.045 0.02 0 0.05 0.02 0 0.055 0.02 0 0.06 0.02 0 0.065 0.02 0 0.07 0.02 0 0.075 0.02 0 0.08 0.02 0 0.085 0.02 0 0.09 0.02 0 0.095 0.02 0 0.1 0.02 0 0.105 0.02 0 0.11 0.02 0 0.115 0.02 0 0.12 0.02 0 0.125 0.02 0 0.13 0.02 0 0.135 0.02 0 0.14 0.02 0 0.145 0.02 0 0.15 0.02 0 0.155 0.02 0 0.16 0.02 0 0.165 0.02 0 0.17 0.02 0 0.175 0.02 0 0.18 0.02 0 0.185 0.02 0 0.19 0.02 0 0.195 0.02 0 0.2 0.02 0 0.205 0.02 0 0.21 0.02 0 0.215 0.02 0 0.22 0.02 0 0.225 0.02 0 0.23 0.02 0 0.235 0.02 0 0.24 0.02 0 0.245 0.02 0 0.25 0.02 0 0.255 0.02 0 0.26 0.02 0 0.265 0.02 0 0.27 0.02 0 0.275 0.02 0 0.28 0.02 0 0.285 0.02 0 0.29 0.02 0 0.295 0.02 0 0.3 0.02 0 0.305 0.02 0 0.31 0.02 0 0.315 0.02 0 0.32 0.02 0 0.325 0.02 0 0.33 0.02 0 0.335 0.02 0 0.34 0.02 0 0.345 0.02 0 0.35 0.02 0 0.355 0.02 0 0.36 0.02 0 0.365 0.02 0 0.37 0.02 0 0.375 0.02 0 0.38 0.02 0 0.385 0.02 0 0.39 0.02 0 0.395 0.02 0 0.4 0.02 0 0.405 0.02 0 0.41 0.02 0 0.415 0.02 0 0.42 0.02 0 0.425 0.02 0 0.43 0.02 0 0.435 0.02 0 0.44 0.02 0 0.445 0.02 0 0.45 0.02 0 0.455 0.02 0 0.46 0.02 0 0.465 0.02 0 0.47 0.02 0 0.475 0.02 0 0.48 0.02 0 0.485 0.02 0 0.49 0.02 0 0.495 0.02 0 0.5 0.02 0 0.505 0.02 0 0.51 0.02 0 0.515 0.02 0 0.52 0.02 0 0.525 0.02 0 0.53 0.02 0 0.535 0.02 0 0.54 0.02 0 0.545 0.02 0 0.55 0.02 0 0.555 0.02 0 0.56 0.02 0 0.565 0.02 0 0.57 0.02 0 0.575 0.02 0 0.58 0.02 0 0.585 0.02 0 0.59 0.02 0 0.595 0.02 0 0.6 0.02 0 0.605 0.02 0 0.61 0.02 0 0.615 0.02 0 0.62 0.02 0 0.625 0.02 0 0.63 0.02 0 0.635 0.02 0 0.64 0.02 0 0.645 0.02 0 0.65 0.02 0 0.655 0.02 0 0.66 0.02 0 0.665 0.02 0 0.67 0.02 0 0.675 0.02 0 0.68 0.02 0 0.685 0.02 0 0.69 0.02 0 0.695 0.02 0 0.7 0.02 0 0.705 0.02 0 0.71 0.02 0 0.715 0.02 0 0.72 0.02 0 0.725 0.02 0 0.73 0.02 0 0.735 0.02 0 0.74 0.02 0 0.745 0.02 0 0.75 0.02 0 0.755 0.02 0 0.76 0.02 0 0.765 0.02 0 0.77 0.02 0 0.775 0.02 0 0.78 0.02 0 0.785 0.02 0 0.79 0.02 0 0.795 0.02 0 0.8 0.02 0 0.805 0.02 0 0.81 0.02 0 0.815 0.02 0 0.82 0.02 0 0.825 0.02 0 0.83 0.02 0 0.835 0.02 0 0.84 0.02 0 0.845 0.02 0 0.85 0.02 0 0.855 0.02 0 0.86 0.02 0 0.865 0.02 0 0.87 0.02 0 0.875 0.02 0 0.88 0.02 0 0.885 0.02 0 0.89 0.02 0 0.895 0.02 0 0.9 0.02 0 0.905 0.02 0 0.91 0.02 0 0.915 0.02 0 0.92 0.02 0 0.925 0.02 0 0.93 0.02 0 0.935 0.02 0 0.94 0.02 0 0.945 0.02 0 0.95 0.02 0 0.955 0.02 0 0.96 0.02 0 0.965 0.02 0 0.97 0.02 0 0.975 0.02 0 0.98 0.02 0 0.985 0.02 0 0.99 0.02 0 0.995 0.02 0 1 0.02 0 0 0.04 0 0.005 0.04 0 0.01 0.04 0 0.015 0.04 0 0.02 0.04 0 0.025 0.04 0 0.03 0.04 0 0.035 0.04 0 0.04 0.04 0 0.045 0.04 0 0.05 0.04 0 0.055 0.04 0 0.06 0.04 0 0.065 0.04 0 0.07 0.04 0 0.075 0.04 0 0.08 0.04 0 0.085 0.04 0 0.09 0.04 0 0.095 0.04 0 0.1 0.04 0 0.105 0.04 0 0.11 0.04 0 0.115 0.04 0 0.12 0.04 0 0.125 0.04 0 0.13 0.04 0 0.135 0.04 0 0.14 0.04 0 0.145 0.04 0 0.15 0.04 0 0.155 0.04 0 0.16 0.04 0 0.165 0.04 0 0.17 0.04 0 0.175 0.04 0 0.18 0.04 0 0.185 0.04 0 0.19 0.04 0 0.195 0.04 0 0.2 0.04 0 0.205 0.04 0 0.21 0.04 0 0.215 0.04 0 0.22 0.04 0 0.225 0.04 0 0.23 0.04 0 0.235 0.04 0 0.24 0.04 0 0.245 0.04 0 0.25 0.04 0 0.255 0.04 0 0.26 0.04 0 0.265 0.04 0 0.27 0.04 0 0.275 0.04 0 0.28 0.04 0 0.285 0.04 0 0.29 0.04 0 0.295 0.04 0 0.3 0.04 0 0.305 0.04 0 0.31 0.04 0 0.315 0.04 0 0.32 0.04 0 0.325 0.04 0 0.33 0.04 0 0.335 0.04 0 0.34 0.04 0 0.345 0.04 0 0.35 0.04 0 0.355 0.04 0 0.36 0.04 0 0.365 0.04 0 0.37 0.04 0 0.375 0.04 0 0.38 0.04 0 0.385 0.04 0 0.39 0.04 0 0.395 0.04 0 0.4 0.04 0 0.405 0.04 0 0.41 0.04 0 0.415 0.04 0 0.42 0.04 0 0.425 0.04 0 0.43 0.04 0 0.435 0.04 0 0.44 0.04 0 0.445 0.04 0 0.45 0.04 0 0.455 0.04 0 0.46 0.04 0 0.465 0.04 0 0.47 0.04 0 0.475 0.04 0 0.48 0.04 0 0.485 0.04 0 0.49 0.04 0 0.495 0.04 0 0.5 0.04 0 0.505 0.04 0 0.51 0.04 0 0.515 0.04 0 0.52 0.04 0 0.525 0.04 0 0.53 0.04 0 0.535 0.04 0 0.54 0.04 0 0.545 0.04 0 0.55 0.04 0 0.555 0.04 0 0.56 0.04 0 0.565 0.04 0 0.57 0.04 0 0.575 0.04 0 0.58 0.04 0 0.585 0.04 0 0.59 0.04 0 0.595 0.04 0 0.6 0.04 0 0.605 0.04 0 0.61 0.04 0 0.615 0.04 0 0.62 0.04 0 0.625 0.04 0 0.63 0.04 0 0.635 0.04 0 0.64 0.04 0 0.645 0.04 0 0.65 0.04 0 0.655 0.04 0 0.66 0.04 0 0.665 0.04 0 0.67 0.04 0 0.675 0.04 0 0.68 0.04 0 0.685 0.04 0 0.69 0.04 0 0.695 0.04 0 0.7 0.04 0 0.705 0.04 0 0.71 0.04 0 0.715 0.04 0 0.72 0.04 0 0.725 0.04 0 0.73 0.04 0 0.735 0.04 0 0.74 0.04 0 0.745 0.04 0 0.75 0.04 0 0.755 0.04 0 0.76 0.04 0 0.765 0.04 0 0.77 0.04 0 0.775 0.04 0 0.78 0.04 0 0.785 0.04 0 0.79 0.04 0 0.795 0.04 0 0.8 0.04 0 0.805 0.04 0 0.81 0.04 0 0.815 0.04 0 0.82 0.04 0 0.825 0.04 0 0.83 0.04 0 0.835 0.04 0 0.84 0.04 0 0.845 0.04 0 0.85 0.04 0 0.855 0.04 0 0.86 0.04 0 0.865 0.04 0 0.87 0.04 0 0.875 0.04 0 0.88 0.04 0 0.885 0.04 0 0.89 0.04 0 0.895 0.04 0 0.9 0.04 0 0.905 0.04 0 0.91 0.04 0 0.915 0.04 0 0.92 0.04 0 0.925 0.04 0 0.93 0.04 0 0.935 0.04 0 0.94 0.04 0 0.945 0.04 0 0.95 0.04 0 0.955 0.04 0 0.96 0.04 0 0.965 0.04 0 0.97 0.04 0 0.975 0.04 0 0.98 0.04 0 0.985 0.04 0 0.99 0.04 0 0.995 0.04 0 1 0.04 0 0 0.06 0 0.005 0.06 0 0.01 0.06 0 0.015 0.06 0 0.02 0.06 0 0.025 0.06 0 0.03 0.06 0 0.035 0.06 0 0.04 0.06 0 0.045 0.06 0 0.05 0.06 0 0.055 0.06 0 0.06 0.06 0 0.065 0.06 0 0.07 0.06 0 0.075 0.06 0 0.08 0.06 0 0.085 0.06 0 0.09 0.06 0 0.095 0.06 0 0.1 0.06 0 0.105 0.06 0 0.11 0.06 0 0.115 0.06 0 0.12 0.06 0 0.125 0.06 0 0.13 0.06 0 0.135 0.06 0 0.14 0.06 0 0.145 0.06 0 0.15 0.06 0 0.155 0.06 0 0.16 0.06 0 0.165 0.06 0 0.17 0.06 0 0.175 0.06 0 0.18 0.06 0 0.185 0.06 0 0.19 0.06 0 0.195 0.06 0 0.2 0.06 0 0.205 0.06 0 0.21 0.06 0 0.215 0.06 0 0.22 0.06 0 0.225 0.06 0 0.23 0.06 0 0.235 0.06 0 0.24 0.06 0 0.245 0.06 0 0.25 0.06 0 0.255 0.06 0 0.26 0.06 0 0.265 0.06 0 0.27 0.06 0 0.275 0.06 0 0.28 0.06 0 0.285 0.06 0 0.29 0.06 0 0.295 0.06 0 0.3 0.06 0 0.305 0.06 0 0.31 0.06 0 0.315 0.06 0 0.32 0.06 0 0.325 0.06 0 0.33 0.06 0 0.335 0.06 0 0.34 0.06 0 0.345 0.06 0 0.35 0.06 0 0.355 0.06 0 0.36 0.06 0 0.365 0.06 0 0.37 0.06 0 0.375 0.06 0 0.38 0.06 0 0.385 0.06 0 0.39 0.06 0 0.395 0.06 0 0.4 0.06 0 0.405 0.06 0 0.41 0.06 0 0.415 0.06 0 0.42 0.06 0 0.425 0.06 0 0.43 0.06 0 0.435 0.06 0 0.44 0.06 0 0.445 0.06 0 0.45 0.06 0 0.455 0.06 0 0.46 0.06 0 0.465 0.06 0 0.47 0.06 0 0.475 0.06 0 0.48 0.06 0 0.485 0.06 0 0.49 0.06 0 0.495 0.06 0 0.5 0.06 0 0.505 0.06 0 0.51 0.06 0 0.515 0.06 0 0.52 0.06 0 0.525 0.06 0 0.53 0.06 0 0.535 0.06 0 0.54 0.06 0 0.545 0.06 0 0.55 0.06 0 0.555 0.06 0 0.56 0.06 0 0.565 0.06 0 0.57 0.06 0 0.575 0.06 0 0.58 0.06 0 0.585 0.06 0 0.59 0.06 0 0.595 0.06 0 0.6 0.06 0 0.605 0.06 0 0.61 0.06 0 0.615 0.06 0 0.62 0.06 0 0.625 0.06 0 0.63 0.06 0 0.635 0.06 0 0.64 0.06 0 0.645 0.06 0 0.65 0.06 0 0.655 0.06 0 0.66 0.06 0 0.665 0.06 0 0.67 0.06 0 0.675 0.06 0 0.68 0.06 0 0.685 0.06 0 0.69 0.06 0 0.695 0.06 0 0.7 0.06 0 0.705 0.06 0 0.71 0.06 0 0.715 0.06 0 0.72 0.06 0 0.725 0.06 0 0.73 0.06 0 0.735 0.06 0 0.74 0.06 0 0.745 0.06 0 0.75 0.06 0 0.755 0.06 0 0.76 0.06 0 0.765 0.06 0 0.77 0.06 0 0.775 0.06 0 0.78 0.06 0 0.785 0.06 0 0.79 0.06 0 0.795 0.06 0 0.8 0.06 0 0.805 0.06 0 0.81 0.06 0 0.815 0.06 0 0.82 0.06 0 0.825 0.06 0 0.83 0.06 0 0.835 0.06 0 0.84 0.06 0 0.845 0.06 0 0.85 0.06 0 0.855 0.06 0 0.86 0.06 0 0.865 0.06 0 0.87 0.06 0 0.875 0.06 0 0.88 0.06 0 0.885 0.06 0 0.89 0.06 0 0.895 0.06 0 0.9 0.06 0 0.905 0.06 0 0.91 0.06 0 0.915 0.06 0 0.92 0.06 0 0.925 0.06 0 0.93 0.06 0 0.935 0.06 0 0.94 0.06 0 0.945 0.06 0 0.95 0.06 0 0.955 0.06 0 0.96 0.06 0 0.965 0.06 0 0.97 0.06 0 0.975 0.06 0 0.98 0.06 0 0.985 0.06 0 0.99 0.06 0 0.995 0.06 0 1 0.06 0 0 0.08 0 0.005 0.08 0 0.01 0.08 0 0.015 0.08 0 0.02 0.08 0 0.025 0.08 0 0.03 0.08 0 0.035 0.08 0 0.04 0.08 0 0.045 0.08 0 0.05 0.08 0 0.055 0.08 0 0.06 0.08 0 0.065 0.08 0 0.07 0.08 0 0.075 0.08 0 0.08 0.08 0 0.085 0.08 0 0.09 0.08 0 0.095 0.08 0 0.1 0.08 0 0.105 0.08 0 0.11 0.08 0 0.115 0.08 0 0.12 0.08 0 0.125 0.08 0 0.13 0.08 0 0.135 0.08 0 0.14 0.08 0 0.145 0.08 0 0.15 0.08 0 0.155 0.08 0 0.16 0.08 0 0.165 0.08 0
[...]
			<PointData Scalars="VitesseX">
				<DataArray Name="VitesseX" type="Float32" format="ascii">
 0 2.83442e-15 -3.01409e-15 -1.25909e-14 -9.84399e-15 -2.43263e-14 -1.18251e-14 -5.04223e-14 -5.5439e-14 -2.98211e-14 -5.25185e-14 -4.69831e-14 -5.25002e-14 -6.54954e-14 -7.51651e-14 -6.84931e-14 7.67069e-14 -6.87513e-14 1.07344e-13 -2.96941e-14 -4.57886e-14 5.67559e-14 4.08955e-14 -1.015e-14 -3.39781e-14 -5.67884e-14 -6.765e-14 6.07174e-14 -5.73135e-14 -4.59017e-14 -6.26427e-14 8.35842e-14 -1.56102e-13 1.58875e-13 -3.44471e-14 -4.29056e-14 2.63171e-14 2.11363e-13 1.10525e-12 5.31856e-12 3.1446e-11 1.77261e-10 9.47885e-10 4.81616e-09 2.32004e-08 1.05702e-07 4.54292e-07 1.83645e-06 6.95913e-06 2.46244e-05 8.09907e-05 0.000246283 0.000688101 0.00175411 0.00405085 0.00842475 0.0157396 0.0264974 0.0405841 0.0573829 0.0761239 0.0961557 0.117027 0.13846 0.160283 0.182366 0.204636 0.227049 0.249575 0.272197 0.294903 0.317685 0.34054 0.363469 0.386476 0.409565 0.432728 0.455713 0.478503 0.501204 0.523735 0.546176 0.568535 0.590743 0.612936 0.634912 0.656894 0.678639 0.700268 0.721777 0.742917 0.764095 0.784777 0.805185 0.825191 0.844062 0.862235 0.878748 0.892972 0.905428 0.914838 0.921446 0.926423 0.92896 0.930157 0.930941 0.931005 0.930948 0.93085 0.930721 0.930555 0.930346 0.9301 0.929837 0.929585 0.929359 0.929156 0.928974 0.928814 0.928675 0.928556 0.928454 0.928367 0.928291 0.928226 0.928169 0.928119 0.928075 0.928037 0.928002 0.927971 0.927943 0.927918 0.927895 0.927874 0.927856 0.927838 0.927822 0.927807 0.927793 0.92778 0.927768 0.927755 0.927744 0.927732 0.927721 0.92771 0.927697 0.927683 0.927665 0.927639 0.927595 0.927514 0.927357 0.927045 0.926421 0.925174 0.922699 0.917844 0.908485 0.890961 0.8596 0.80705 0.726403 0.615392 0.481806 0.342542 0.217681 0.121535 0.059339 0.0258673 0.0104746 0.00408367 0.00156525 0.00059552 0.000225763 8.53987e-05 3.22454e-05 1.21535e-05 4.57177e-06 1.71599e-06 6.42498e-07 2.399e-07 8.93002e-08 3.31284e-08 1.22441e-08 4.50682e-09 1.65165e-09 6.01975e-10 2.18416e-10 7.87026e-11 2.78539e-11 9.71803e-12 3.58244e-12 1.25999e-12 4.01633e-15 2.50291e-13 9.6647e-14 9.96795e-13 -1.02656e-13 0 0 -2.05588e-15 -5.79435e-15 -1.02624e-14 -2.47921e-14 -2.78207e-14 -4.75605e-14 -1.65045e-14 -4.49697e-14 -4.87807e-14 -4.07831e-14 -6.01642e-14 -4.30894e-14 -7.2223e-14 -3.06206e-14 4.98817e-15 -7.12823e-14 5.7189e-14 -2.74091e-14 4.52873e-14 5.26144e-14 -4.41197e-14 -2.90731e-14 -3.5568e-14 -2.7347e-14 4.71353e-14 4.60411e-14 -6.96049e-14 -1.0319e-13 1.51111e-15 2.13657e-15 -8.1509e-14 6.79865e-14 -1.16108e-13 5.613e-14 -5.62642e-14 1.36551e-13 1.92643e-13 7.9748e-13 5.34098e-12 3.16209e-11 1.77267e-10 9.47852e-10 4.81627e-09 2.32003e-08 1.05702e-07 4.54292e-07 1.83645e-06 6.95913e-06 2.46244e-05 8.09907e-05 0.000246283 0.000688101 0.00175411 0.00405085 0.00842475 0.0157396 0.0264974 0.0405841 0.0573829 0.0761239 0.0961557 0.117027 0.13846 0.160283 0.182366 0.204636 0.227049 0.249575 0.272197 0.294903 0.317685 0.34054 0.363469 0.386476 0.409565 0.432728 0.455713 0.478503 0.501204 0.523735 0.546176 0.568535 0.590743 0.612936 0.634912 0.656894 0.678639 0.700268 0.721777 0.742917 0.764095 0.784777 0.805185 0.825191 0.844062 0.862235 0.878748 0.892972 0.905428 0.914838 0.921446 0.926423 0.92896 0.930157 0.930941 0.931005 0.930948 0.93085 0.930721 0.930555 0.930346 0.9301 0.929837 0.929585 0.929359 0.929156 0.928974 0.928814 0.928675 0.928556 0.928454 0.928367 0.928291 0.928226 0.928169 0.928119 0.928075 0.928037 0.928002 0.927971 0.927943 0.927918 0.927895 0.927874 0.927856 0.927838 0.927822 0.927807 0.927793 0.92778 0.927768 0.927755 0.927744 0.927732 0.927721 0.92771 0.927697 0.927683 0.927665 0.927639 0.927595 0.927514 0.927357 0.927045 0.926421 0.925174 0.922699 0.917844 0.908485 0.890961 0.8596 0.80705 0.726403 0.615392 0.481806 0.342542 0.217681 0.121535 0.059339 0.0258673 0.0104746 0.00408367 0.00156525 0.00059552 0.000225763 8.53987e-05 3.22454e-05 1.21535e-05 4.57177e-06 1.71598e-06 6.42498e-07 2.399e-07 8.93007e-08 3.31283e-08 1.22441e-08 4.50687e-09 1.65148e-09 6.02314e-10 2.18082e-10 7.86168e-11 2.80096e-11 9.89814e-12 3.3576e-12 8.17574e-13 7.81199e-13 2.357e-13 3.00547e-13 -6.50375e-13 -1.39748e-13 0 0 -1.29731e-14 -1.74184e-14 -2.18785e-14 -2.42363e-14 -5.38138e-14 -2.63139e-14 -6.23862e-14 -4.44555e-14 -4.11638e-14 -6.74953e-14 -2.15167e-14 -4.84948e-14 -3.16638e-14 -4.32133e-14 -4.13667e-14 4.06936e-14 -7.20005e-14 8.86009e-14 2.33249e-14 -3.16213e-14 1.16417e-13 -3.0914e-14 -6.95741e-14 -5.99348e-14 -3.26881e-14 -5.88178e-14 -3.67727e-14 -6.04731e-14 -8.25031e-14 7.24085e-15 6.54268e-14 -5.24608e-14 -4.99556e-14 -3.51382e-15 -3.69653e-14 1.08577e-13 1.94166e-13 8.54293e-13 5.35922e-12 3.15272e-11 1.77295e-10 9.47865e-10 4.81628e-09 2.32005e-08 1.05701e-07 4.54292e-07 1.83645e-06 6.95913e-06 2.46244e-05 8.09907e-05 0.000246283 0.000688101 0.00175411 0.00405085 0.00842475 0.0157396 0.0264974 0.0405841 0.0573829 0.0761239 0.0961557 0.117027 0.13846 0.160283 0.182366 0.204636 0.227049 0.249575 0.272197 0.294903 0.317685 0.34054 0.363469 0.386476 0.409565 0.432728 0.455713 0.478503 0.501204 0.523735 0.546176 0.568535 0.590743 0.612936 0.634912 0.656894 0.678639 0.700268 0.721777 0.742917 0.764095 0.784777 0.805185 0.825191 0.844062 0.862235 0.878748 0.892972 0.905428 0.914838 0.921446 0.926423 0.92896 0.930157 0.930941 0.931005 0.930948 0.93085 0.930721 0.930555 0.930346 0.9301 0.929837 0.929585 0.929359 0.929156 0.928974 0.928814 0.928675 0.928556 0.928454 0.928367 0.928291 0.928226 0.928169 0.928119 0.928075 0.928037 0.928002 0.927971 0.927943 0.927918 0.927895 0.927874 0.927856 0.927838 0.927822 0.927807 0.927793 0.92778 0.927768 0.927755 0.927744 0.927732 0.927721 0.92771 0.927697 0.927683 0.927665 0.927639 0.927595 0.927514 0.927357 0.927045 0.926421 0.925174 0.922699 0.917844 0.908485 0.890961 0.8596 0.80705 0.726403 0.615392 0.481806 0.342542 0.217681 0.121535 0.059339 0.0258673 0.0104746 0.00408367 0.00156525 0.00059552 0.000225763 8.53987e-05 3.22454e-05 1.21535e-05 4.57177e-06 1.71598e-06 6.42498e-07 2.399e-07 8.93005e-08 3.31285e-08 1.2244e-08 4.50706e-09 1.65154e-09 6.02297e-10 2.18086e-10 7.86176e-11 2.7877e-11 1.01021e-11 3.29248e-12 1.2132e-12 4.31473e-13 9.13376e-14 -2.99853e-13 -1.08914e-13 -1.28097e-13 0 0 -9.29571e-15 -1.06932e-14 -2.48418e-14 -3.41309e-14 -3.87908e-14 -4.52064e-14 -7.40428e-14 -6.07603e-14 -4.33723e-14 -5.95183e-14 -7.63129e-14 -7.3315e-15 -3.1874e-14 -3.97653e-14 -1.31622e-14 -2.75167e-16 2.59423e-14 3.13534e-14 1.94682e-14 2.61246e-14 3.87392e-14 -1.09378e-13 1.93944e-14 -1.37343e-14 -1.05636e-13 -1.51299e-13 -8.81086e-14 5.84229e-15 -4.76102e-14 -6.48922e-14 -1.648e-14 -4.46644e-15 6.46657e-14 6.13337e-14 -4.22665e-14 -1.94783e-15 1.09687e-13 1.07432e-12 5.44594e-12 3.14714e-11 1.77281e-10 9.47828e-10 4.81619e-09 2.32004e-08 1.05702e-07 4.54292e-07 1.83645e-06 6.95913e-06 2.46244e-05 8.09907e-05 0.000246283 0.000688101 0.00175411 0.00405085 0.00842475 0.0157396 0.0264974 0.0405841 0.0573829 0.0761239 0.0961557 0.117027 0.13846 0.160283 0.182366 0.204636 0.227049 0.249575 0.272197 0.294903 0.317685 0.34054 0.363469 0.386476 0.409565 0.432728 0.455713 0.478503 0.501204 0.523735 0.546176 0.568535 0.590743 0.612936 0.634912 0.656894 0.678639 0.700268 0.721777 0.742917 0.764095 0.784777 0.805185 0.825191 0.844062 0.862235 0.878748 0.892972 0.905428 0.914838 0.921446 0.926423 0.92896 0.930157 0.930941 0.931005 0.930948 0.93085 0.930721 0.930555 0.930346 0.9301 0.929837 0.929585 0.929359 0.929156 0.928974 0.928814 0.928675 0.928556 0.928454 0.928367 0.928291 0.928226 0.928169 0.928119 0.928075 0.928037 0.928002 0.927971 0.927943 0.927918 0.927895 0.927874 0.927856 0.927838 0.927822 0.927807 0.927793 0.92778 0.927768 0.927755 0.927744 0.927732 0.927721 0.92771 0.927697 0.927683 0.927665 0.927639 0.927595 0.927514 0.927357 0.927045 0.926421 0.925174 0.922699 0.917844 0.908485 0.890961 0.8596 0.80705 0.726403 0.615392 0.481806 0.342542 0.217681 0.121535 0.059339 0.0258673 0.0104746 0.00408367 0.00156525 0.00059552 0.000225763 8.53987e-05 3.22454e-05 1.21535e-05 4.57177e-06 1.71599e-06 6.42498e-07 2.399e-07 8.93003e-08 3.31286e-08 1.22441e-08 4.5069e-09 1.65156e-09 6.02308e-10 2.18662e-10 7.85301e-11 2.81154e-11 9.86388e-12 3.39001e-12 1.33549e-12 -3.77944e-13 5.80163e-13 -6.75802e-13 4.94082e-13 -3.81882e-13 0 0 1.1833e-15 -1.27946e-14 -8.29318e-15 -5.25229e-14 -2.70016e-14 -5.65166e-14 -4.52714e-14 -4.62844e-14 -6.81728e-14 -4.1831e-14 -9.36783e-14 1.53406e-15 -4.46837e-14 -5.61018e-15 2.31265e-14 -1.07406e-13 9.32825e-14 -6.55965e-14 6.11036e-14 5.52541e-14 -9.39452e-14 -1.20875e-13 1.4346e-14 -1.48687e-14 -3.319e-14 -6.24739e-14 -1.07177e-13 -1.57925e-13 3.46265e-14 8.71664e-15 -1.08485e-13 1.60775e-13 -2.85671e-14 1.17215e-13 6.44345e-14 1.4271e-13 1.14603e-13 7.34771e-13 5.40918e-12 3.14721e-11 1.77309e-10 9.47892e-10 4.81629e-09 2.32004e-08 1.05702e-07 4.54292e-07 1.83645e-06 6.95913e-06 2.46244e-05 8.09907e-05 0.000246283 0.000688101 0.00175411 0.00405085 0.00842475 0.0157396 0.0264974 0.0405841 0.0573829 0.0761239 0.0961557 0.117027 0.13846 0.160283 0.182366 0.204636 0.227049 0.249575 0.272197 0.294903 0.317685 0.34054 0.363469 0.386476 0.409565 0.432728 0.455713 0.478503 0.501204 0.523735 0.546176 0.568535 0.590743 0.612936 0.634912 0.656894 0.678639 0.700268 0.721777 0.742917 0.764095 0.784777 0.805185 0.825191 0.844062 0.862235 0.878748 0.892972 0.905428 0.914838 0.921446 0.926423 0.92896 0.930157 0.930941 0.931005 0.930948 0.93085 0.930721 0.930555 0.930346 0.9301 0.929837 0.929585 0.929359 0.929156 0.928974 0.928814 0.928675 0.928556 0.928454 0.928367 0.928291 0.928226 0.928169 0.928119 0.928075 0.928037 0.928002 0.927971 0.927943 0.927918 0.927895 0.927874 0.927856 0.927838 0.927822 0.927807 0.927793 0.92778 0.927768 0.927755 0.927744 0.927732 0.927721 0.92771 0.927697 0.927683 0.927665 0.927639 0.927595 0.927514 0.927357 0.927045 0.926421 0.925174 0.922699 0.917844 0.908485 0.890961 0.8596 0.80705 0.726403 0.615392 0.481806 0.342542 0.217681 0.121535 0.059339 0.0258673 0.0104746 0.00408367 0.00156525 0.00059552 0.000225763 8.53987e-05 3.22454e-05 1.21535e-05 4.57177e-06 1.71599e-06 6.42498e-07 2.399e-07 8.93009e-08 3.31282e-08 1.22444e-08 4.50703e-09 1.65173e-09 6.02497e-10 2.18375e-10 7.84548e-11 2.80548e-11 9.77222e-12 3.34709e-12 7.08841e-13 -4.37856e-14 2.5563e-13 1.77913e-13 -1.90191e-13 -2.07351e-13 0 0 1.95796e-15 -3.04649e-14 -2.72563e-15 -4.55162e-14 -5.27343e-14 8.04777e-15 -8.46429e-14 -2.54589e-14 -6.41882e-14 -7.05683e-14 -4.4188e-15 -4.55798e-14 -9.99652e-15 -3.20404e-14 -8.86255e-14 8.63967e-14 -1.9245e-13 1.45464e-13 9.65173e-15 -1.56001e-13 1.1246e-13 1.42193e-14 -8.82592e-14 -1.01422e-13 -7.15422e-14 -9.97175e-14 8.82458e-14 -2.99415e-13 -4.94569e-14 9.47835e-14 1.93446e-13 -6.65134e-14 1.04715e-13 -4.19725e-14 2.09094e-13 2.59683e-13 2.24241e-13 5.39768e-13 5.28153e-12 3.126e-11 1.77371e-10 9.48039e-10 4.8164e-09 2.32005e-08 1.05701e-07 4.54292e-07 1.83645e-06 6.95913e-06 2.46244e-05 8.09907e-05 0.000246283 0.000688101 0.00175411 0.00405085 0.00842475 0.0157396 0.0264974 0.0405841 0.0573829 0.0761239 0.0961557 0.117027 0.13846 0.160283 0.182366 0.204636 0.227049 0.249575 0.272197 0.294903 0.317685 0.34054 0.363469 0.386476 0.409565 0.432728 0.455713 0.478503 0.501204 0.523735 0.546176 0.568535 0.590743 0.612936 0.634912 0.656894 0.678639 0.700268 0.721777 0.742917 0.764095 0.784777 0.805185 0.825191 0.844062 0.862235 0.878748 0.892972 0.905428 0.914838 0.921446 0.926423 0.92896 0.930157 0.930941 0.931005 0.930948 0.93085 0.930721 0.930555 0.930346 0.9301 0.929837 0.929585 0.929359 0.929156 0.928974 0.928814 0.928675 0.928556 0.928454 0.928367 0.928291 0.928226 0.928169 0.928119 0.928075 0.928037 0.928002 0.927971 0.927943 0.927918 0.927895 0.927874 0.927856 0.927838 0.927822 0.927807 0.927793 0.92778 0.927768 0.927755 0.927744 0.927732 0.927721 0.92771 0.927697 0.927683 0.927665 0.927639 0.927595 0.927514 0.927357 0.927045 0.926421 0.925174 0.922699 0.917844 0.908485 0.890961 0.8596 0.80705 0.726403 0.615392 0.481806 0.342542 0.217681 0.121535 0.059339 0.0258673 0.0104746 0.00408367 0.00156525 0.00059552 0.000225763 8.53987e-05 3.22454e-05 1.21535e-05 4.57177e-06 1.71599e-06 6.42498e-07 2.39901e-07 8.93008e-08 3.31282e-08 1.22443e-08 4.50746e-09 1.65212e-09 6.02319e-10 2.1785e-10 7.85537e-11 2.74674e-11 9.94259e-12 3.36636e-12 7.97943e-13 -2.71184e-14 -6.87499e-13 6.03277e-13 7.1117e-13 2.69707e-13 0
				</DataArray>
				<DataArray Name="VitesseY" type="Float32" format="ascii">