<?xml version="1.0"?>
<VTKFile type="PolyData">
	<PolyData>
		<Piece NumberOfPoints="1206" NumberOfPolys="1000">
			<Points>
				<DataArray type="Float32" NumberOfComponents="3" format="ascii">
 0 0 0 0.005 0 0 0.01 0 0 0.015 0 0 0.02 0 0 0.025 0 0 0.03 0 0 0.035 0 0 0.04 0 0 0.045 0 0 0.05 0 0 0.055 0 0 0.06 0 0 0.065 0 0 0.07 0 0 0.075 0 0 0.08 0 0 0.085 0 0 0.09 0 0 0.095 0 0 0.1 0 0 0.105 0 0 0.11 0 0 0.115 0 0 0.12 0 0 0.125 0 0 0.13 0 0 0.135 0 0 0.14 0 0 0.145 0 0 0.15 0 0 0.155 0 0 0.16 0 0 0.165 0 0 0.17 0 0 0.175 0 0 0.18 0 0 0.185 0 0 0.19 0 0 0.195 0 0 0.2 0 0 0.205 0 0 0.21 0 0 0.215 0 0 0.22 0 0 0.225 0 0 0.23 0 0 0.235 0 0 0.24 0 0 0.245 0 0 0.25 0 0 0.255 0 0 0.26 0 0 0.265 0 0 0.27 0 0 0.275 0 0 0.28 0 0 0.285 0 0 0.29 0 0 0.295 0 0 0.3 0 0 0.305 0 0 0.31 0 0 0.315 0 0 0.32 0 0 0.325 0 0 0.33 0 0 0.335 0 0 0.34 0 0 0.345 0 0 0.35 0 0 0.355 0 0 0.36 0 0 0.365 0 0 0.37 0 0 0.375 0 0 0.38 0 0 0.385 0 0 0.39 0 0 0.395 0 0 0.4 0 0 0.405 0 0 0.41 0 0 0.415 0 0 0.42 0 0 0.425 0 0 0.43 0 0 0.435 0 0 0.44 0 0 0.445 0 0 0.45 0 0 0.455 0 0 0.46 0 0 0.465 0 0 0.47 0 0 0.475 0 0 0.48 0 0 0.485 0 0 0.49 0 0 0.495 0 0 0.5 0 0 0.505 0 0 0.51 0 0 0.515 0 0 0.52 0 0 0.525 0 0 0.53 0 0 0.535 0 0 0.54 0 0 0.545 0 0 0.55 0 0 0.555 0 0 0.56 0 0 0.565 0 0 0.57 0 0 0.575 0 0 0.58 0 0 0.585 0 0 0.59 0 0 0.595 0 0 0.6 0 0 0.605 0 0 0.61 0 0 0.615 0 0 0.62 0 0 0.625 0 0 0.63 0 0 0.635 0 0 0.64 0 0 0.645 0 0 0.65 0 0 0.655 0 0 0.66 0 0 0.665 0 0 0.67 0 0 0.675 0 0 0.68 0 0 0.685 0 0 0.69 0 0 0.695 0 0 0.7 0 0 0.705 0 0 0.71 0 0 0.715 0 0 0.72 0 0 0.725 0 0 0.73 0 0 0.735 0 0 0.74 0 0 0.745 0 0 0.75 0 0 0.755 0 0 0.76 0 0 0.765 0 0 0.77 0 0 0.775 0 0 0.78 0 0 0.785 0 0 0.79 0 0 0.795 0 0 0.8 0 0 0.805 0 0 0.81 0 0 0.815 0 0 0.82 0 0 0.825 0 0 0.83 0 0 0.835 0 0 0.84 0 0 0.845 0 0 0.85 0 0 0.855 0 0 0.86 0 0 0.865 0 0 0.87 0 0 0.875 0 0 0.88 0 0 0.885 0 0 0.89 0 0 0.895 0 0 0.9 0 0 0.905 0 0 0.91 0 0 0.915 0 0 0.92 0 0 0.925 0 0 0.93 0 0 0.935 0 0 0.94 0 0 0.945 0 0 0.95 0 0 0.955 0 0 0.96 0 0 0.965 0 0 0.97 0 0 0.975 0 0 0.98 0 0 0.985 0 0 0.99 0 0 0.995 0 0 1 0 0 0 0.02 0 0.005 0.02 0 0.01 0.02 0 0.015 0.02 0 0.02 0.02 0 0.025 0.02 0 0.03 0.02 0 0.035 0.02 0 0.04 0.02 0 0.045 0.02 0 0.05 0.02 0 0.055 0.02 0 0.06 0.02 0 0.065 0.02 0 0.07 0.02 0 0.075 0.02 0 0.08 0.02 0 0.085 0.02 0 0.09 0.02 0 0.095 0.02 0 0.1 0.02 0 0.105 0.02 0 0.11 0.02 0 0.115 0.02 0 0.12 0.02 0 0.125 0.02 0 0.13 0.02 0 0.135 0.02 0 0.14 0.02 0 0.145 0.02 0 0.15 0.02 0 0.155 0.02 0 0.16 0.02 0 0.165 0.02 0 0.17 0.02 0 0.175 0.02 0 0.18 0.02 0 0.185 0.02 0 0.19 0.02 0 0.195 0.02 0 0.2 0.02 0 0.205 0.02 0 0.21 0.02 0 0.215 0.02 0 0.22 0.02 0 0.225 0.02 0 0.23 0.02 0 0.235 0.02 0 0.24 0.02 0 0.245 0.02 0 0.25 0.02 0 0.255 0.02 0 0.26 0.02 0 0.265 0.02 0 0.27 0.02 0 0.275 0.02 0 0.28 0.02 0 0.285 0.02 0 0.29 0.02 0 0.295 0.02 0 0.3 0.02 0 0.305 0.02 0 0.31 0.02 0 0.315 0.02 0 0.32 0.02 0 0.325 0.02 0 0.33 0.02 0 0.335 0.02 0 0.34 0.02 0 0.345 0.02 0 0.35 0.02 0 0.355 0.02 0 0.36 0.02 0 0.365 0.02 0 0.37 0.02 0 0.375 0.02 0 0.38 0.02 0 0.385 0.02 0 0.39 0.02 0 0.395 0.02 0 0.4 0.02 0 0.405 0.02 0 0.41 0.02 0 0.415 0.02 0 0.42 0.02 0 0.425 0.02 0 0.43 0.02 0 0.435 0.02 0 0.44 0.02 0 0.445 0.02 0 0.45 0.02 0 0.455 0.02 0 0.46 0.02 0 0.465 0.02 0 0.47 0.02 0 0.475 0.02 0 0.48 0.02 0 0.485 0.02 0 0.49 0.02 0 0.495 0.02 0 0.5 0.02 0 0.505 0.02 0 0.51 0.02 0 0.515 0.02 0 0.52 0.02 0 0.525 0.02 0 0.53 0.02 0 0.535 0.02 0 0.54 0.02 0 0.545 0.02 0 0.55 0.02 0 0.555 0.02 0 0.56 0.02 0 0.565 0.02 0 0.57 0.02 0 0.575 0.02 0 0.58 0.02 0 0.585 0.02 0 0.59 0.02 0 0.595 0.02 0 0.6 0.02 0 0.605 0.02 0 0.61 0.02 0 0.615 0.02 0 0.62 0.02 0 0.625 0.02 0 0.63 0.02 0 0.635 0.02 0 0.64 0.02 0 0.645 0.02 0 0.65 0.02 0 0.655 0.02 0 0.66 0.02 0 0.665 0.02 0 0.67 0.02 0 0.675 0.02 0 0.68 0.02 0 0.685 0.02 0 0.69 0.02 0 0.695 0.02 0 0.7 0.02 0 0.705 0.02 0 0.71 0.02 0 0.715 0.02 0 0.72 0.02 0 0.725 0.02 0 0.73 0.02 0 0.735 0.02 0 0.74 0.02 0 0.745 0.02 0 0.75 0.02 0 0.755 0.02 0 0.76 0.02 0 0.765 0.02 0 0.77 0.02 0 0.775 0.02 0 0.78 0.02 0 0.785 0.02 0 0.79 0.02 0 0.795 0.02 0 0.8 0.02 0 0.805 0.02 0 0.81 0.02 0 0.815 0.02 0 0.82 0.02 0 0.825 0.02 0 0.83 0.02 0 0.835 0.02 0 0.84 0.02 0 0.845 0.02 0 0.85 0.02 0 0.855 0.02 0 0.86 0.02 0 0.865 0.02 0 0.87 0.02 0 0.875 0.02 0 0.88 0.02 0 0.885 0.02 0 0.89 0.02 0 0.895 0.02 0 0.9 0.02 0 0.905 0.02 0 0.91 0.02 0 0.915 0.02 0 0.92 0.02 0 0.925 0.02 0 0.93 0.02 0 0.935 0.02 0 0.94 0.02 0 0.945 0.02 0 0.95 0.02 0 0.955 0.02 0 0.96 0.02 0 0.965 0.02 0 0.97 0.02 0 0.975 0.02 0 0.98 0.02 0 0.985 0.02 0 0.99 0.02 0 0.995 0.02 0 1 0.02 0 0 0.04 0 0.005 0.04 0 0.01 0.04 0 0.015 0.04 0 0.02 0.04 0 0.025 0.04 0 0.03 0.04 0 0.035 0.04 0 0.04 0.04 0 0.045 0.04 0 0.05 0.04 0 0.055 0.04 0 0.06 0.04 0 0.065 0.04 0 0.07 0.04 0 0.075 0.04 0 0.08 0.04 0 0.085 0.04 0 0.09 0.04 0 0.095 0.04 0 0.1 0.04 0 0.105 0.04 0 0.11 0.04 0 0.115 0.04 0 0.12 0.04 0 0.125 0.04 0 0.13 0.04 0 0.135 0.04 0 0.14 0.04 0 0.145 0.04 0 0.15 0.04 0 0.155 0.04 0 0.16 0.04 0 0.165 0.04 0 0.17 0.04 0 0.175 0.04 0 0.18 0.04 0 0.185 0.04 0 0.19 0.04 0 0.195 0.04 0 0.2 0.04 0 0.205 0.04 0 0.21 0.04 0 0.215 0.04 0 0.22 0.04 0 0.225 0.04 0 0.23 0.04 0 0.235 0.04 0 0.24 0.04 0 0.245 0.04 0 0.25 0.04 0 0.255 0.04 0 0.26 0.04 0 0.265 0.04 0 0.27 0.04 0 0.275 0.04 0 0.28 0.04 0 0.285 0.04 0 0.29 0.04 0 0.295 0.04 0 0.3 0.04 0 0.305 0.04 0 0.31 0.04 0 0.315 0.04 0 0.32 0.04 0 0.325 0.04 0 0.33 0.04 0 0.335 0.04 0 0.34 0.04 0 0.345 0.04 0 0.35 0.04 0 0.355 0.04 0 0.36 0.04 0 0.365 0.04 0 0.37 0.04 0 0.375 0.04 0 0.38 0.04 0 0.385 0.04 0 0.39 0.04 0 0.395 0.04 0 0.4 0.04 0 0.405 0.04 0 0.41 0.04 0 0.415 0.04 0 0.42 0.04 0 0.425 0.04 0 0.43 0.04 0 0.435 0.04 0 0.44 0.04 0 0.445 0.04 0 0.45 0.04 0 0.455 0.04 0 0.46 0.04 0 0.465 0.04 0 0.47 0.04 0 0.475 0.04 0 0.48 0.04 0 0.485 0.04 0 0.49 0.04 0 0.495 0.04 0 0.5 0.04 0 0.505 0.04 0 0.51 0.04 0 0.515 0.04 0 0.52 0.04 0 0.525 0.04 0 0.53 0.04 0 0.535 0.04 0 0.54 0.04 0 0.545 0.04 0 0.55 0.04 0 0.555 0.04 0 0.56 0.04 0 0.565 0.04 0 0.57 0.04 0 0.575 0.04 0 0.58 0.04 0 0.585 0.04 0 0.59 0.04 0 0.595 0.04 0 0.6 0.04 0 0.605 0.04 0 0.61 0.04 0 0.615 0.04 0 0.62 0.04 0 0.625 0.04 0 0.63 0.04 0 0.635 0.04 0 0.64 0.04 0 0.645 0.04 0 0.65 0.04 0 0.655 0.04 0 0.66 0.04 0 0.665 0.04 0 0.67 0.04 0 0.675 0.04 0 0.68 0.04 0 0.685 0.04 0 0.69 0.04 0 0.695 0.04 0 0.7 0.04 0 0.705 0.04 0 0.71 0.04 0 0.715 0.04 0 0.72 0.04 0 0.725 0.04 0 0.73 0.04 0 0.735 0.04 0 0.74 0.04 0 0.745 0.04 0 0.75 0.04 0 0.755 0.04 0 0.76 0.04 0 0.765 0.04 0 0.77 0.04 0 0.775 0.04 0 0.78 0.04 0 0.785 0.04 0 0.79 0.04 0 0.795 0.04 0 0.8 0.04 0 0.805 0.04 0 0.81 0.04 0 0.815 0.04 0 0.82 0.04 0 0.825 0.04 0 0.83 0.04 0 0.835 0.04 0 0.84 0.04 0 0.845 0.04 0 0.85 0.04 0 0.855 0.04 0 0.86 0.04 0 0.865 0.04 0 0.87 0.04 0 0.875 0.04 0 0.88 0.04 0 0.885 0.04 0 0.89 0.04 0 0.895 0.04 0 0.9 0.04 0 0.905 0.04 0 0.91 0.04 0 0.915 0.04 0 0.92 0.04 0 0.925 0.04 0 0.93 0.04 0 0.935 0.04 0 0.94 0.04 0 0.945 0.04 0 0.95 0.04 0 0.955 0.04 0 0.96 0.04 0 0.965 0.04 0 0.97 0.04 0 0.975 0.04 0 0.98 0.04 0 0.985 0.04 0 0.99 0.04 0 0.995 0.04 0 1 0.04 0 0 0.06 0 0.005 0.06 0 0.01 0.06 0 0.015 0.06 0 0.02 0.06 0 0.025 0.06 0 0.03 0.06 0 0.035 0.06 0 0.04 0.06 0 0.045 0.06 0 0.05 0.06 0 0.055 0.06 0 0.06 0.06 0 0.065 0.06 0 0.07 0.06 0 0.075 0.06 0 0.08 0.06 0 0.085 0.06 0 0.09 0.06 0 0.095 0.06 0 0.1 0.06 0 0.105 0.06 0 0.11 0.06 0 0.115 0.06 0 0.12 0.06 0 0.125 0.06 0 0.13 0.06 0 0.135 0.06 0 0.14 0.06 0 0.145 0.06 0 0.15 0.06 0 0.155 0.06 0 0.16 0.06 0 0.165 0.06 0 0.17 0.06 0 0.175 0.06 0 0.18 0.06 0 0.185 0.06 0 0.19 0.06 0 0.195 0.06 0 0.2 0.06 0 0.205 0.06 0 0.21 0.06 0 0.215 0.06 0 0.22 0.06 0 0.225 0.06 0 0.23 0.06 0 0.235 0.06 0 0.24 0.06 0 0.245 0.06 0 0.25 0.06 0 0.255 0.06 0 0.26 0.06 0 0.265 0.06 0 0.27 0.06 0 0.275 0.06 0 0.28 0.06 0 0.285 0.06 0 0.29 0.06 0 0.295 0.06 0 0.3 0.06 0 0.305 0.06 0 0.31 0.06 0 0.315 0.06 0 0.32 0.06 0 0.325 0.06 0 0.33 0.06 0 0.335 0.06 0 0.34 0.06 0 0.345 0.06 0 0.35 0.06 0 0.355 0.06 0 0.36 0.06 0 0.365 0.06 0 0.37 0.06 0 0.375 0.06 0 0.38 0.06 0 0.385 0.06 0 0.39 0.06 0 0.395 0.06 0 0.4 0.06 0 0.405 0.06 0 0.41 0.06 0 0.415 0.06 0 0.42 0.06 0 0.425 0.06 0 0.43 0.06 0 0.435 0.06 0 0.44 0.06 0 0.445 0.06 0 0.45 0.06 0 0.455 0.06 0 0.46 0.06 0 0.465 0.06 0 0.47 0.06 0 0.475 0.06 0 0.48 0.06 0 0.485 0.06 0 0.49 0.06 0 0.495 0.06 0 0.5 0.06 0 0.505 0.06 0 0.51 0.06 0 0.515 0.06 0 0.52 0.06 0 0.525 0.06 0 0.53 0.06 0 0.535 0.06 0 0.54 0.06 0 0.545 0.06 0 0.55 0.06 0 0.555 0.06 0 0.56 0.06 0 0.565 0.06 0 0.57 0.06 0 0.575 0.06 0 0.58 0.06 0 0.585 0.06 0 0.59 0.06 0 0.595 0.06 0 0.6 0.06 0 0.605 0.06 0 0.61 0.06 0 0.615 0.06 0 0.62 0.06 0 0.625 0.06 0 0.63 0.06 0 0.635 0.06 0 0.64 0.06 0 0.645 0.06 0 0.65 0.06 0 0.655 0.06 0 0.66 0.06 0 0.665 0.06 0 0.67 0.06 0 0.675 0.06 0 0.68 0.06 0 0.685 0.06 0 0.69 0.06 0 0.695 0.06 0 0.7 0.06 0 0.705 0.06 0 0.71 0.06 0 0.715 0.06 0 0.72 0.06 0 0.725 0.06 0 0.73 0.06 0 0.735 0.06 0 0.74 0.06 0 0.745 0.06 0 0.75 0.06 0 0.755 0.06 0 0.76 0.06 0 0.765 0.06 0 0.77 0.06 0 0.775 0.06 0 0.78 0.06 0 0.785 0.06 0 0.79 0.06 0 0.795 0.06 0 0.8 0.06 0 0.805 0.06 0 0.81 0.06 0 0.815 0.06 0 0.82 0.06 0 0.825 0.06 0 0.83 0.06 0 0.835 0.06 0 0.84 0.06 0 0.845 0.06 0 0.85 0.06 0 0.855 0.06 0 0.86 0.06 0 0.865 0.06 0 0.87 0.06 0 0.875 0.06 0 0.88 0.06 0 0.885 0.06 0 0.89 0.06 0 0.895 0.06 0 0.9 0.06 0 0.905 0.06 0 0.91 0.06 0 0.915 0.06 0 0.92 0.06 0 0.925 0.06 0 0.93 0.06 0 0.935 0.06 0 0.94 0.06 0 0.945 0.06 0 0.95 0.06 0 0.955 0.06 0 0.96 0.06 0 0.965 0.06 0 0.97 0.06 0 0.975 0.06 0 0.98 0.06 0 0.985 0.06 0 0.99 0.06 0 0.995 0.06 0 1 0.06 0 0 0.08 0 0.005 0.08 0 0.01 0.08 0 0.015 0.08 0 0.02 0.08 0 0.025 0.08 0 0.03 0.08 0 0.035 0.08 0 0.04 0.08 0 0.045 0.08 0 0.05 0.08 0 0.055 0.08 0 0.06 0.08 0 0.065 0.08 0 0.07 0.08 0 0.075 0.08 0 0.08 0.08 0 0.085 0.08 0 0.09 0.08 0 0.095 0.08 0 0.1 0.08 0 0.105 0.08 0 0.11 0.08 0 0.115 0.08 0 0.12 0.08 0 0.125 0.08 0 0.13 0.08 0 0.135 0.08 0 0.14 0.08 0 0.145 0.08 0 0.15 0.08 0 0.155 0.08 0 0.16 0.08 0 0.165 0.08 0
[...]
			<PointData Scalars="VitesseX">
				<DataArray Name="VitesseX" type="Float32" format="ascii">
 0 -2.22629e-14 3.93351e-16 -6.47388e-14 -4.27868e-14 -2.14195e-16 2.73026e-14 -4.62144e-14 -8.11441e-14 -8.27492e-14 -5.23467e-14 3.95691e-14 -9.3994e-14 1.44048e-14 -1.15367e-13 -1.60343e-14 -2.59418e-14 -2.59362e-13 -4.5303e-14 2.94348e-14 -2.93341e-14 -8.45106e-14 -1.71568e-14 9.21393e-14 1.22611e-13 -7.54227e-14 -1.2241e-13 -9.08729e-14 7.92964e-14 1.47977e-14 8.34707e-14 -2.79468e-13 -5.93508e-14 -8.48663e-14 3.1985e-14 -1.59156e-13 -3.06779e-13 1.20032e-13 -1.38515e-13 2.89108e-13 -1.69342e-13 -7.33493e-14 8.34545e-15 1.40315e-13 -3.3237e-13 -1.56804e-13 -5.16369e-13 1.00305e-13 -1.37199e-13 2.84063e-13 -1.76158e-13 -5.46647e-13 2.38368e-13 -8.86572e-14 6.40242e-13 1.4948e-14 -4.30974e-13 2.40064e-13 -3.57935e-13 1.98853e-13 -3.76953e-13 -3.33277e-13 1.22762e-13 -1.00983e-13 -6.64945e-14 -2.24815e-14 -8.85072e-14 5.45488e-13 -1.97496e-13 -7.75942e-14 -1.22599e-13 -9.12543e-14 1.44093e-13 -7.24404e-13 -4.16526e-14 -6.05521e-13 3.47577e-13 5.90484e-14 -3.97645e-13 3.93967e-12 5.56976e-11 8.71547e-10 1.20667e-08 1.46908e-07 1.55585e-06 1.41468e-05 0.000108646 0.000689977 0.00352487 0.01401 0.0420484 0.0950353 0.169411 0.257218 0.354139 0.457882 0.555014 0.642655 0.719961 0.799128 0.846183 0.889107 0.920968 0.925927 0.92793 0.932992 0.934607 0.933847 0.931292 0.926721 0.918606 0.901513 0.865098 0.79684 0.688771 0.545162 0.386313 0.239448 0.126158 0.0553688 0.0205928 0.00683009 0.00211498 0.00062582 0.000178477 4.91864e-05 1.31078e-05 3.37838e-06 8.42196e-07 2.03097e-07 4.73868e-08 1.07003e-08 2.33848e-09 4.94586e-10 1.01289e-10 2.03882e-11 4.3119e-12 3.75136e-13 -3.25521e-13 1.1096e-13 -2.31365e-13 1.65643e-13 9.70194e-13 -7.17035e-13 -6.20366e-13 -2.24667e-13 5.77906e-13 1.73493e-13 -5.42862e-13 -5.36521e-13 1.20087e-12 5.77103e-13 3.36123e-13 -2.04598e-13 -4.73771e-13 -1.17039e-14 5.7995e-13 -5.87347e-14 -1.19428e-12 -8.87727e-13 4.62533e-13 1.70297e-12 -8.80135e-13 -1.50635e-12 -3.31665e-13 7.4615e-13 5.72907e-13 -1.19806e-13 -3.18727e-13 4.45334e-13 -2.7159e-13 -4.67892e-13 8.69035e-13 5.16167e-13 3.50414e-13 -1.01127e-12 -1.2976e-13 4.33392e-13 3.96614e-13 2.22668e-13 -1.13987e-12 -7.34329e-13 -2.21842e-13 6.48281e-13 -4.33645e-13 -1.04292e-12 -3.42853e-13 1.01641e-12 1.2692e-12 -1.14614e-13 -2.06536e-12 2.58828e-13 1.92082e-12 -6.22787e-13 -1.97236e-12 -1.24534e-12 1.62183e-12 9.64253e-13 -1.65155e-12 -2.33363e-12 0 0 8.49214e-15 -3.36274e-14 1.14569e-14 -1.13779e-14 -6.60801e-14 -8.05255e-14 -2.3332e-14 -9.38837e-15 2.54217e-14 -3.34869e-14 -1.06173e-13 7.58657e-15 -5.41696e-14 2.96306e-15 -8.15114e-14 -8.33363e-14 -1.43991e-14 -1.3789e-13 -2.0013e-13 -8.79843e-14 2.29453e-14 1.05974e-13 -8.28019e-14 -2.25911e-14 -3.7346e-14 -5.19839e-14 2.05263e-14 -1.30633e-13 5.66373e-14 -6.95897e-14 1.06771e-13 -1.28246e-13 -1.10583e-13 -2.52548e-13 -8.46521e-14 7.90038e-14 -2.33874e-14 6.25774e-14 -2.09531e-13 -2.74679e-14 -5.91349e-14 -1.28192e-13 -2.67887e-13 1.68008e-13 -1.14802e-13 5.07911e-14 -4.53197e-13 -2.10627e-13 -4.05908e-13 9.88313e-14 4.02297e-13 7.52068e-14 1.12444e-13 -3.28149e-13 1.10201e-13 3.42579e-13 -3.70032e-13 1.72178e-13 -3.89085e-13 9.38767e-15 -1.25198e-13 -3.65291e-13 1.05742e-14 3.86315e-14 4.86905e-14 3.29392e-14 -3.35126e-13 3.92387e-13 3.60872e-14 -1.04391e-13 -9.33552e-14 -4.3509e-13 1.7817e-13 -3.2974e-13 -5.26003e-14 -4.05137e-13 -2.52463e-13 5.51027e-13 3.38047e-12 5.62055e-11 8.7173e-10 1.20656e-08 1.46909e-07 1.55585e-06 1.41468e-05 0.000108646 0.000689977 0.00352487 0.01401 0.0420484 0.0950353 0.169411 0.257218 0.354139 0.457882 0.555014 0.642655 0.719961 0.799128 0.846183 0.889107 0.920968 0.925927 0.92793 0.932992 0.934607 0.933847 0.931292 0.926721 0.918606 0.901513 0.865098 0.79684 0.688771 0.545162 0.386313 0.239448 0.126158 0.0553688 0.0205928 0.00683009 0.00211498 0.00062582 0.000178477 4.91864e-05 1.31078e-05 3.37838e-06 8.42197e-07 2.03097e-07 4.73867e-08 1.06994e-08 2.33877e-09 4.94996e-10 1.01369e-10 2.03304e-11 3.13887e-12 8.03807e-13 3.03657e-13 -5.86491e-13 9.44525e-14 1.69124e-13 -5.29993e-13 4.46193e-13 4.06869e-13 -3.1154e-13 -3.6417e-13 -2.57957e-13 2.05288e-13 9.45224e-13 -4.16373e-13 2.66809e-13 1.90152e-13 3.86764e-13 5.05248e-14 -1.13459e-13 -8.97035e-13 -1.66836e-13 3.91618e-13 3.60964e-13 -5.95299e-13 -1.70847e-12 5.40102e-13 9.03004e-13 1.60787e-14 -4.69525e-13 -5.8125e-13 1.84743e-13 6.06089e-13 -3.82923e-13 2.6529e-13 3.68679e-13 -1.04719e-13 7.10607e-14 -3.24164e-13 6.96957e-13 3.48065e-13 -1.13163e-13 -6.38555e-13 -6.91385e-13 5.56925e-13 -6.55128e-14 -2.08191e-13 -1.36219e-12 -3.58417e-13 3.63032e-13 5.47823e-13 -2.53741e-13 -8.51012e-13 -3.39423e-13 1.26726e-12 -4.78811e-13 -1.25e-12 3.28302e-13 7.34351e-13 3.74651e-13 -1.61373e-12 -1.24377e-12 5.64738e-13 6.35173e-13 0 0 -6.43e-15 1.18248e-14 -6.11042e-15 -3.56544e-14 -3.70644e-14 -3.21773e-14 -5.45668e-14 -7.61089e-15 -9.16843e-15 -1.65944e-14 1.26462e-14 -5.25885e-14 -7.25028e-14 -5.76719e-14 -1.81351e-14 -6.81241e-14 -8.91068e-14 -1.24894e-13 -1.19484e-13 -8.1986e-14 -1.77516e-14 -6.04924e-14 2.61887e-14 -1.12544e-13 -4.2633e-14 -6.32926e-14 -4.12929e-14 3.43259e-14 1.676e-14 6.04372e-14 -1.75662e-13 -6.02132e-14 -8.21623e-14 -4.71127e-14 -1.15329e-13 -3.36131e-14 -1.10222e-13 -1.04693e-13 -3.22695e-14 1.68028e-13 -2.37288e-13 -1.40838e-13 -1.64384e-13 -8.60978e-14 -1.21998e-13 -6.14386e-14 -2.2638e-14 -2.70236e-13 -1.05382e-13 2.09346e-13 2.0806e-13 1.50151e-13 -1.95931e-13 -2.88907e-13 7.90461e-14 1.78503e-13 2.23418e-13 -1.83073e-13 -3.32988e-13 -5.42424e-13 -1.18935e-13 1.82833e-13 -1.22848e-13 8.85363e-15 -1.3086e-13 -8.32628e-14 3.13653e-13 2.62082e-13 -3.99091e-14 -6.94872e-14 -2.14605e-13 1.30441e-13 -1.37779e-13 -2.67769e-13 -3.33458e-13 -4.85897e-14 1.28868e-13 2.48187e-13 3.50087e-12 5.61585e-11 8.71171e-10 1.20654e-08 1.46909e-07 1.55585e-06 1.41468e-05 0.000108646 0.000689977 0.00352487 0.01401 0.0420484 0.0950353 0.169411 0.257218 0.354139 0.457882 0.555014 0.642655 0.719961 0.799128 0.846183 0.889107 0.920968 0.925927 0.92793 0.932992 0.934607 0.933847 0.931292 0.926721 0.918606 0.901513 0.865098 0.79684 0.688771 0.545162 0.386313 0.239448 0.126158 0.0553688 0.0205928 0.00683009 0.00211498 0.00062582 0.000178477 4.91864e-05 1.31078e-05 3.37838e-06 8.42197e-07 2.03097e-07 4.73865e-08 1.06998e-08 2.33846e-09 4.94829e-10 1.01446e-10 1.95752e-11 3.85832e-12 8.46074e-13 -5.4219e-13 5.32631e-14 -6.56931e-13 2.04155e-13 3.82116e-13 -2.58692e-13 -2.37617e-14 7.07101e-13 -1.0304e-13 2.38025e-13 -5.1992e-13 -4.14283e-13 8.42251e-13 1.78411e-13 6.39418e-13 -3.45401e-13 9.48531e-15 -2.45074e-13 -3.46035e-13 -8.3981e-13 4.40509e-14 -2.61322e-13 -6.32554e-13 4.20376e-13 -2.07417e-13 2.5371e-13 -4.7281e-13 -4.86998e-13 5.03992e-13 1.67265e-13 1.24152e-13 2.46069e-13 -7.55563e-13 3.05706e-13 4.76886e-13 -3.66151e-14 2.35027e-13 -2.30909e-13 3.36547e-14 7.34627e-13 -7.13056e-13 -4.31109e-13 -1.09237e-13 -3.07065e-13 -3.39754e-13 -5.23157e-13 -3.78375e-14 -5.30293e-13 7.28687e-13 -1.45859e-13 -1.12469e-12 8.43956e-13 -4.71018e-13 2.09238e-15 -8.15709e-14 -6.06602e-13 6.12185e-14 7.48505e-14 7.96107e-14 -3.76508e-13 -6.33651e-13 -2.30357e-13 0 0 -1.14791e-14 -1.44719e-14 -5.94718e-14 -4.45186e-14 2.15757e-15 4.1994e-14 -4.60106e-15 -3.01842e-14 -1.16808e-14 -4.41881e-14 5.93265e-15 -3.65215e-14 -8.90258e-14 -1.3259e-13 -2.71178e-14 -5.6877e-14 -1.89198e-13 -1.04731e-14 2.56417e-15 -6.45799e-14 -1.23905e-13 -1.10402e-13 -2.71522e-14 4.24618e-14 -1.30424e-13 -1.18635e-13 -4.33377e-14 1.01469e-14 1.56304e-13 6.41471e-14 -2.50412e-13 8.52725e-15 6.74842e-14 -1.41549e-13 -1.03003e-14 -2.7357e-13 3.57942e-14 -7.91031e-14 -4.11936e-14 4.99619e-14 -6.45309e-14 -2.43597e-13 -7.17669e-14 -2.86165e-13 -6.33767e-14 -2.82149e-13 9.62992e-14 -5.70549e-14 3.33541e-13 -1.08695e-13 -2.92496e-13 3.06625e-13 7.00303e-14 -1.0306e-13 -1.16342e-13 -1.06248e-13 1.28066e-13 -4.38182e-13 1.39939e-13 -3.33616e-13 -5.22815e-13 -1.38103e-13 -5.91575e-14 -1.7036e-13 1.16717e-13 4.55639e-13 5.69299e-13 -1.5451e-13 1.3943e-13 -2.13951e-13 1.82389e-13 7.33936e-14 -3.73761e-13 -1.19235e-13 -5.30605e-13 2.41922e-13 9.9817e-14 2.10182e-13 3.63027e-12 5.56279e-11 8.71261e-10 1.2066e-08 1.46908e-07 1.55585e-06 1.41468e-05 0.000108646 0.000689977 0.00352487 0.01401 0.0420484 0.0950353 0.169411 0.257218 0.354139 0.457882 0.555014 0.642655 0.719961 0.799128 0.846183 0.889107 0.920968 0.925927 0.92793 0.932992 0.934607 0.933847 0.931292 0.926721 0.918606 0.901513 0.865098 0.79684 0.688771 0.545162 0.386313 0.239448 0.126158 0.0553688 0.0205928 0.00683009 0.00211498 0.00062582 0.000178477 4.91864e-05 1.31078e-05 3.37838e-06 8.42197e-07 2.03097e-07 4.73866e-08 1.07e-08 2.33852e-09 4.94618e-10 1.00749e-10 2.00766e-11 3.94384e-12 4.0127e-13 4.56074e-13 -3.19026e-13 -5.03074e-14 2.95922e-13 4.78061e-13 -1.74794e-14 -3.19814e-13 7.1989e-14 9.48773e-13 1.4598e-13 -1.81552e-13 -2.90266e-13 4.94664e-13 -2.42737e-13 -2.85947e-13 -5.20564e-13 -5.05256e-13 3.7438e-13 2.5169e-13 -6.43044e-13 -8.99244e-13 -1.14415e-12 -2.78415e-13 1.06945e-12 -2.75059e-13 -6.60236e-13 1.62496e-13 7.35395e-14 -5.31074e-13 -5.2047e-13 -3.6391e-13 2.84054e-13 6.13772e-13 -2.34275e-13 3.12025e-13 7.27507e-13 2.58998e-13 -3.17647e-13 -8.72842e-14 -5.78377e-14 6.55467e-13 2.67575e-13 -1.06454e-12 -7.02871e-13 -8.15289e-13 7.20842e-13 -2.43273e-13 -4.28368e-13 -1.85297e-13 2.76146e-13 8.86854e-13 -2.04727e-13 -1.07244e-12 5.50242e-13 7.46177e-13 -1.65376e-13 -7.43441e-13 -8.40989e-13 1.43501e-12 2.83862e-13 -1.23096e-12 -1.73929e-12 0 0 4.16772e-16 -5.42201e-14 -1.73008e-14 3.84615e-15 -2.93025e-15 7.64674e-15 3.81034e-14 1.96728e-14 2.53225e-14 -4.01328e-14 -1.13884e-13 2.78976e-14 -1.06963e-13 -1.09549e-13 -1.27314e-13 -1.37163e-13 -2.51732e-14 -6.30519e-14 -1.66517e-13 -9.81952e-14 -5.94481e-14 4.03181e-14 -1.32148e-13 3.13654e-14 -1.06413e-13 -5.34155e-14 5.72229e-14 -1.55046e-13 1.17465e-13 -6.17241e-14 1.99008e-13 -2.92366e-14 -8.99888e-14 -3.05656e-13 -1.65463e-13 4.88213e-14 1.33845e-13 6.95775e-15 -3.24675e-13 -1.20764e-13 4.61001e-14 -2.05868e-13 -1.87484e-13 -1.13806e-13 -1.35098e-13 -3.31949e-14 -5.01579e-13 -5.49544e-14 -1.77282e-13 8.12068e-14 1.71003e-13 -1.69976e-14 2.59097e-13 -4.39452e-13 -4.48538e-14 1.63288e-13 -4.96276e-13 8.40595e-14 -1.93248e-13 -2.02797e-14 -3.376e-13 -4.98731e-13 9.63007e-14 7.61429e-14 3.57738e-13 6.16522e-13 -1.89316e-14 1.97365e-13 1.78632e-13 -1.38657e-13 -1.81204e-13 -6.41772e-13 -4.66354e-14 9.29264e-14 -1.42142e-14 -3.52214e-13 -3.5968e-14 1.0418e-12 3.51105e-12 5.58356e-11 8.71451e-10 1.20659e-08 1.46909e-07 1.55585e-06 1.41468e-05 0.000108646 0.000689977 0.00352487 0.01401 0.0420484 0.0950353 0.169411 0.257218 0.354139 0.457882 0.555014 0.642655 0.719961 0.799128 0.846183 0.889107 0.920968 0.925927 0.92793 0.932992 0.934607 0.933847 0.931292 0.926721 0.918606 0.901513 0.865098 0.79684 0.688771 0.545162 0.386313 0.239448 0.126158 0.0553688 0.0205928 0.00683009 0.00211498 0.00062582 0.000178477 4.91864e-05 1.31078e-05 3.37838e-06 8.42197e-07 2.03096e-07 4.73867e-08 1.06993e-08 2.33869e-09 4.94559e-10 1.00922e-10 2.0181e-11 3.22235e-12 5.48782e-13 9.58349e-13 -6.23662e-13 2.43884e-13 7.08903e-13 -1.83675e-13 7.91454e-13 5.55261e-13 -4.50891e-13 6.90401e-14 -1.4263e-13 1.06296e-12 1.08053e-12 -1.17855e-12 -1.13432e-13 -6.19252e-13 -2.81257e-13 -5.46319e-13 -8.16105e-14 -7.85909e-13 -5.33832e-13 -3.76308e-13 -6.27047e-13 -6.96633e-13 -1.43963e-12 9.24359e-13 1.367e-12 4.58073e-13 -3.83505e-13 -1.51639e-12 -5.47787e-13 1.8514e-13 -5.74261e-13 1.27225e-12 -1.17801e-13 -7.89775e-13 1.34185e-13 3.51636e-13 7.72099e-13 1.42585e-13 -5.74128e-13 7.01052e-13 -2.43698e-13 -1.38333e-13 -7.44145e-13 -8.01155e-13 -5.86828e-13 -4.89589e-13 9.4378e-13 -1.29978e-13 -5.46068e-14 2.50419e-13 -7.12593e-13 8.76788e-13 -1.5023e-13 -5.62371e-13 9.40028e-13 6.01886e-13 -8.01351e-13 -9.20026e-13 -8.09085e-13 -2.24981e-13 1.66699e-13 0 0 -2.83153e-14 1.18012e-14 -1.55313e-14 5.38968e-15 4.76416e-14 5.53047e-14 -2.3275e-14 2.21248e-14 -7.79229e-14 -1.04512e-14 3.75742e-14 -8.5506e-14 -5.81359e-14 -1.90556e-13 -8.96735e-14 -1.5609e-13 -8.07285e-14 -1.24468e-13 -1.47436e-13 -8.4568e-14 -3.69905e-14 -4.86502e-14 1.0013e-13 -7.94878e-14 -3.7975e-14 -1.45873e-14 -1.33902e-14 7.88299e-14 -1.42635e-13 9.17823e-14 5.45074e-14 1.18668e-15 -3.4297e-13 1.14642e-13 -5.30835e-13 1.1277e-13 1.42466e-13 -3.00935e-13 7.66683e-14 -1.19803e-13 -2.08394e-13 5.85096e-14 1.15886e-13 -4.95862e-13 -3.14638e-13 -2.42921e-13 -2.34334e-13 -2.52215e-13 -1.36531e-13 4.24676e-13 -8.12005e-15 -2.58989e-13 -3.27274e-13 4.59432e-14 9.56137e-14 -2.20054e-13 1.78279e-13 -2.39543e-14 -3.55326e-13 -8.53902e-13 4.96794e-14 4.97755e-13 -5.6911e-14 3.66956e-13 1.0046e-13 8.54305e-16 6.66586e-13 2.45644e-13 -1.51181e-13 9.77958e-14 -1.06094e-12 -1.55177e-13 -7.0205e-13 5.06614e-13 -1.34456e-13 -1.27601e-13 5.50142e-13 6.59916e-13 3.94203e-12 5.6019e-11 8.70808e-10 1.20659e-08 1.4691e-07 1.55585e-06 1.41468e-05 0.000108646 0.000689977 0.00352487 0.01401 0.0420484 0.0950353 0.169411 0.257218 0.354139 0.457882 0.555014 0.642655 0.719961 0.799128 0.846183 0.889107 0.920968 0.925927 0.92793 0.932992 0.934607 0.933847 0.931292 0.926721 0.918606 0.901513 0.865098 0.79684 0.688771 0.545162 0.386313 0.239448 0.126158 0.0553688 0.0205928 0.00683009 0.00211498 0.00062582 0.000178477 4.91864e-05 1.31078e-05 3.37838e-06 8.42197e-07 2.03097e-07 4.73865e-08 1.06997e-08 2.33822e-09 4.94134e-10 1.0179e-10 1.90868e-11 4.30781e-12 7.54695e-13 -1.01266e-12 7.81197e-13 -1.14575e-12 1.06167e-12 1.47094e-12 -5.0894e-13 2.68522e-13 7.66854e-13 -6.59299e-13 5.88238e-13 4.95756e-13 -5.13946e-13 3.7169e-13 6.58917e-13 5.68045e-13 -1.19031e-12 -6.37975e-13 -1.18691e-12 -3.93249e-13 -1.18626e-12 -8.43545e-13 -1.09809e-12 -4.48413e-13 9.4251e-13 2.36636e-14 1.24954e-12 -7.1829e-13 -2.02886e-13 7.72753e-13 -2.09397e-13 -1.84502e-13 -1.3313e-14 -9.96336e-13 -3.6089e-13 -1.71354e-13 -8.85828e-13 1.65407e-12 -6.87509e-13 -2.98841e-13 1.09639e-12 3.38782e-13 -2.79323e-13 -6.19786e-13 -1.29998e-12 -4.56699e-13 -2.88986e-13 -2.85118e-13 -8.5274e-14 1.29513e-13 5.70669e-13 -5.51028e-13 1.23641e-12 -1.64346e-12 -1.8031e-13 1.64059e-12 -2.81788e-13 -6.27972e-13 -1.76566e-12 2.98436e-13 5.12879e-13 -2.03637e-12 -2.52703e-13 0
				</DataArray>
				<DataArray Name="VitesseY" type="Float32" format="ascii">