<?xml version="1.0"?>
<VTKFile type="PolyData">
	<PolyData>
		<Piece NumberOfPoints="1206" NumberOfPolys="1000">
			<Points>
				<DataArray type="Float32" NumberOfComponents="3" format="ascii">
 0 0 0 0.005 0 0 0.01 0 0 0.015 0 0 0.02 0 0 0.025 0 0 0.03 0 0 0.035 0 0 0.04 0 0 0.045 0 0 0.05 0 0 0.055 0 0 0.06 0 0 0.065 0 0 0.07 0 0 0.075 0 0 0.08 0 0 0.085 0 0 0.09 0 0 0.095 0 0 0.1 0 0 0.105 0 0 0.11 0 0 0.115 0 0 0.12 0 0 0.125 0 0 0.13 0 0 0.135 0 0 0.14 0 0 0.145 0 0 0.15 0 0 0.155 0 0 0.16 0 0 0.165 0 0 0.17 0 0 0.175 0 0 0.18 0 0 0.185 0 0 0.19 0 0 0.195 0 0 0.2 0 0 0.205 0 0 0.21 0 0 0.215 0 0 0.22 0 0 0.225 0 0 0.23 0 0 0.235 0 0 0.24 0 0 0.245 0 0 0.25 0 0 0.255 0 0 0.26 0 0 0.265 0 0 0.27 0 0 0.275 0 0 0.28 0 0 0.285 0 0 0.29 0 0 0.295 0 0 0.3 0 0 0.305 0 0 0.31 0 0 0.315 0 0 0.32 0 0 0.325 0 0 0.33 0 0 0.335 0 0 0.34 0 0 0.345 0 0 0.35 0 0 0.355 0 0 0.36 0 0 0.365 0 0 0.37 0 0 0.375 0 0 0.38 0 0 0.385 0 0 0.39 0 0 0.395 0 0 0.4 0 0 0.405 0 0 0.41 0 0 0.415 0 0 0.42 0 0 0.425 0 0 0.43 0 0 0.435 0 0 0.44 0 0 0.445 0 0 0.45 0 0 0.455 0 0 0.46 0 0 0.465 0 0 0.47 0 0 0.475 0 0 0.48 0 0 0.485 0 0 0.49 0 0 0.495 0 0 0.5 0 0 0.505 0 0 0.51 0 0 0.515 0 0 0.52 0 0 0.525 0 0 0.53 0 0 0.535 0 0 0.54 0 0 0.545 0 0 0.55 0 0 0.555 0 0 0.56 0 0 0.565 0 0 0.57 0 0 0.575 0 0 0.58 0 0 0.585 0 0 0.59 0 0 0.595 0 0 0.6 0 0 0.605 0 0 0.61 0 0 0.615 0 0 0.62 0 0 0.625 0 0 0.63 0 0 0.635 0 0 0.64 0 0 0.645 0 0 0.65 0 0 0.655 0 0 0.66 0 0 0.665 0 0 0.67 0 0 0.675 0 0 0.68 0 0 0.685 0 0 0.69 0 0 0.695 0 0 0.7 0 0 0.705 0 0 0.71 0 0 0.715 0 0 0.72 0 0 0.725 0 0 0.73 0 0 0.735 0 0 0.74 0 0 0.745 0 0 0.75 0 0 0.755 0 0 0.76 0 0 0.765 0 0 0.77 0 0 0.775 0 0 0.78 0 0 0.785 0 0 0.79 0 0 0.795 0 0 0.8 0 0 0.805 0 0 0.81 0 0 0.815 0 0 0.82 0 0 0.825 0 0 0.83 0 0 0.835 0 0 0.84 0 0 0.845 0 0 0.85 0 0 0.855 0 0 0.86 0 0 0.865 0 0 0.87 0 0 0.875 0 0 0.88 0 0 0.885 0 0 0.89 0 0 0.895 0 0 0.9 0 0 0.905 0 0 0.91 0 0 0.915 0 0 0.92 0 0 0.925 0 0 0.93 0 0 0.935 0 0 0.94 0 0 0.945 0 0 0.95 0 0 0.955 0 0 0.96 0 0 0.965 0 0 0.97 0 0 0.975 0 0 0.98 0 0 0.985 0 0 0.99 0 0 0.995 0 0 1 0 0 0 0.02 0 0.005 0.02 0 0.01 0.02 0 0.015 0.02 0 0.02 0.02 0 0.025 0.02 0 0.03 0.02 0 0.035 0.02 0 0.04 0.02 0 0.045 0.02 0 0.05 0.02 0 0.055 0.02 0 0.06 0.02 0 0.065 0.02 0 0.07 0.02 0 0.075 0.02 0 0.08 0.02 0 0.085 0.02 0 0.09 0.02 0 0.095 0.02 0 0.1 0.02 0 0.105 0.02 0 0.11 0.02 0 0.115 0.02 0 0.12 0.02 0 0.125 0.02 0 0.13 0.02 0 0.135 0.02 0 0.14 0.02 0 0.145 0.02 0 0.15 0.02 0 0.155 0.02 0 0.16 0.02 0 0.165 0.02 0 0.17 0.02 0 0.175 0.02 0 0.18 0.02 0 0.185 0.02 0 0.19 0.02 0 0.195 0.02 0 0.2 0.02 0 0.205 0.02 0 0.21 0.02 0 0.215 0.02 0 0.22 0.02 0 0.225 0.02 0 0.23 0.02 0 0.235 0.02 0 0.24 0.02 0 0.245 0.02 0 0.25 0.02 0 0.255 0.02 0 0.26 0.02 0 0.265 0.02 0 0.27 0.02 0 0.275 0.02 0 0.28 0.02 0 0.285 0.02 0 0.29 0.02 0 0.295 0.02 0 0.3 0.02 0 0.305 0.02 0 0.31 0.02 0 0.315 0.02 0 0.32 0.02 0 0.325 0.02 0 0.33 0.02 0 0.335 0.02 0 0.34 0.02 0 0.345 0.02 0 0.35 0.02 0 0.355 0.02 0 0.36 0.02 0 0.365 0.02 0 0.37 0.02 0 0.375 0.02 0 0.38 0.02 0 0.385 0.02 0 0.39 0.02 0 0.395 0.02 0 0.4 0.02 0 0.405 0.02 0 0.41 0.02 0 0.415 0.02 0 0.42 0.02 0 0.425 0.02 0 0.43 0.02 0 0.435 0.02 0 0.44 0.02 0 0.445 0.02 0 0.45 0.02 0 0.455 0.02 0 0.46 0.02 0 0.465 0.02 0 0.47 0.02 0 0.475 0.02 0 0.48 0.02 0 0.485 0.02 0 0.49 0.02 0 0.495 0.02 0 0.5 0.02 0 0.505 0.02 0 0.51 0.02 0 0.515 0.02 0 0.52 0.02 0 0.525 0.02 0 0.53 0.02 0 0.535 0.02 0 0.54 0.02 0 0.545 0.02 0 0.55 0.02 0 0.555 0.02 0 0.56 0.02 0 0.565 0.02 0 0.57 0.02 0 0.575 0.02 0 0.58 0.02 0 0.585 0.02 0 0.59 0.02 0 0.595 0.02 0 0.6 0.02 0 0.605 0.02 0 0.61 0.02 0 0.615 0.02 0 0.62 0.02 0 0.625 0.02 0 0.63 0.02 0 0.635 0.02 0 0.64 0.02 0 0.645 0.02 0 0.65 0.02 0 0.655 0.02 0 0.66 0.02 0 0.665 0.02 0 0.67 0.02 0 0.675 0.02 0 0.68 0.02 0 0.685 0.02 0 0.69 0.02 0 0.695 0.02 0 0.7 0.02 0 0.705 0.02 0 0.71 0.02 0 0.715 0.02 0 0.72 0.02 0 0.725 0.02 0 0.73 0.02 0 0.735 0.02 0 0.74 0.02 0 0.745 0.02 0 0.75 0.02 0 0.755 0.02 0 0.76 0.02 0 0.765 0.02 0 0.77 0.02 0 0.775 0.02 0 0.78 0.02 0 0.785 0.02 0 0.79 0.02 0 0.795 0.02 0 0.8 0.02 0 0.805 0.02 0 0.81 0.02 0 0.815 0.02 0 0.82 0.02 0 0.825 0.02 0 0.83 0.02 0 0.835 0.02 0 0.84 0.02 0 0.845 0.02 0 0.85 0.02 0 0.855 0.02 0 0.86 0.02 0 0.865 0.02 0 0.87 0.02 0 0.875 0.02 0 0.88 0.02 0 0.885 0.02 0 0.89 0.02 0 0.895 0.02 0 0.9 0.02 0 0.905 0.02 0 0.91 0.02 0 0.915 0.02 0 0.92 0.02 0 0.925 0.02 0 0.93 0.02 0 0.935 0.02 0 0.94 0.02 0 0.945 0.02 0 0.95 0.02 0 0.955 0.02 0 0.96 0.02 0 0.965 0.02 0 0.97 0.02 0 0.975 0.02 0 0.98 0.02 0 0.985 0.02 0 0.99 0.02 0 0.995 0.02 0 1 0.02 0 0 0.04 0 0.005 0.04 0 0.01 0.04 0 0.015 0.04 0 0.02 0.04 0 0.025 0.04 0 0.03 0.04 0 0.035 0.04 0 0.04 0.04 0 0.045 0.04 0 0.05 0.04 0 0.055 0.04 0 0.06 0.04 0 0.065 0.04 0 0.07 0.04 0 0.075 0.04 0 0.08 0.04 0 0.085 0.04 0 0.09 0.04 0 0.095 0.04 0 0.1 0.04 0 0.105 0.04 0 0.11 0.04 0 0.115 0.04 0 0.12 0.04 0 0.125 0.04 0 0.13 0.04 0 0.135 0.04 0 0.14 0.04 0 0.145 0.04 0 0.15 0.04 0 0.155 0.04 0 0.16 0.04 0 0.165 0.04 0 0.17 0.04 0 0.175 0.04 0 0.18 0.04 0 0.185 0.04 0 0.19 0.04 0 0.195 0.04 0 0.2 0.04 0 0.205 0.04 0 0.21 0.04 0 0.215 0.04 0 0.22 0.04 0 0.225 0.04 0 0.23 0.04 0 0.235 0.04 0 0.24 0.04 0 0.245 0.04 0 0.25 0.04 0 0.255 0.04 0 0.26 0.04 0 0.265 0.04 0 0.27 0.04 0 0.275 0.04 0 0.28 0.04 0 0.285 0.04 0 0.29 0.04 0 0.295 0.04 0 0.3 0.04 0 0.305 0.04 0 0.31 0.04 0 0.315 0.04 0 0.32 0.04 0 0.325 0.04 0 0.33 0.04 0 0.335 0.04 0 0.34 0.04 0 0.345 0.04 0 0.35 0.04 0 0.355 0.04 0 0.36 0.04 0 0.365 0.04 0 0.37 0.04 0 0.375 0.04 0 0.38 0.04 0 0.385 0.04 0 0.39 0.04 0 0.395 0.04 0 0.4 0.04 0 0.405 0.04 0 0.41 0.04 0 0.415 0.04 0 0.42 0.04 0 0.425 0.04 0 0.43 0.04 0 0.435 0.04 0 0.44 0.04 0 0.445 0.04 0 0.45 0.04 0 0.455 0.04 0 0.46 0.04 0 0.465 0.04 0 0.47 0.04 0 0.475 0.04 0 0.48 0.04 0 0.485 0.04 0 0.49 0.04 0 0.495 0.04 0 0.5 0.04 0 0.505 0.04 0 0.51 0.04 0 0.515 0.04 0 0.52 0.04 0 0.525 0.04 0 0.53 0.04 0 0.535 0.04 0 0.54 0.04 0 0.545 0.04 0 0.55 0.04 0 0.555 0.04 0 0.56 0.04 0 0.565 0.04 0 0.57 0.04 0 0.575 0.04 0 0.58 0.04 0 0.585 0.04 0 0.59 0.04 0 0.595 0.04 0 0.6 0.04 0 0.605 0.04 0 0.61 0.04 0 0.615 0.04 0 0.62 0.04 0 0.625 0.04 0 0.63 0.04 0 0.635 0.04 0 0.64 0.04 0 0.645 0.04 0 0.65 0.04 0 0.655 0.04 0 0.66 0.04 0 0.665 0.04 0 0.67 0.04 0 0.675 0.04 0 0.68 0.04 0 0.685 0.04 0 0.69 0.04 0 0.695 0.04 0 0.7 0.04 0 0.705 0.04 0 0.71 0.04 0 0.715 0.04 0 0.72 0.04 0 0.725 0.04 0 0.73 0.04 0 0.735 0.04 0 0.74 0.04 0 0.745 0.04 0 0.75 0.04 0 0.755 0.04 0 0.76 0.04 0 0.765 0.04 0 0.77 0.04 0 0.775 0.04 0 0.78 0.04 0 0.785 0.04 0 0.79 0.04 0 0.795 0.04 0 0.8 0.04 0 0.805 0.04 0 0.81 0.04 0 0.815 0.04 0 0.82 0.04 0 0.825 0.04 0 0.83 0.04 0 0.835 0.04 0 0.84 0.04 0 0.845 0.04 0 0.85 0.04 0 0.855 0.04 0 0.86 0.04 0 0.865 0.04 0 0.87 0.04 0 0.875 0.04 0 0.88 0.04 0 0.885 0.04 0 0.89 0.04 0 0.895 0.04 0 0.9 0.04 0 0.905 0.04 0 0.91 0.04 0 0.915 0.04 0 0.92 0.04 0 0.925 0.04 0 0.93 0.04 0 0.935 0.04 0 0.94 0.04 0 0.945 0.04 0 0.95 0.04 0 0.955 0.04 0 0.96 0.04 0 0.965 0.04 0 0.97 0.04 0 0.975 0.04 0 0.98 0.04 0 0.985 0.04 0 0.99 0.04 0 0.995 0.04 0 1 0.04 0 0 0.06 0 0.005 0.06 0 0.01 0.06 0 0.015 0.06 0 0.02 0.06 0 0.025 0.06 0 0.03 0.06 0 0.035 0.06 0 0.04 0.06 0 0.045 0.06 0 0.05 0.06 0 0.055 0.06 0 0.06 0.06 0 0.065 0.06 0 0.07 0.06 0 0.075 0.06 0 0.08 0.06 0 0.085 0.06 0 0.09 0.06 0 0.095 0.06 0 0.1 0.06 0 0.105 0.06 0 0.11 0.06 0 0.115 0.06 0 0.12 0.06 0 0.125 0.06 0 0.13 0.06 0 0.135 0.06 0 0.14 0.06 0 0.145 0.06 0 0.15 0.06 0 0.155 0.06 0 0.16 0.06 0 0.165 0.06 0 0.17 0.06 0 0.175 0.06 0 0.18 0.06 0 0.185 0.06 0 0.19 0.06 0 0.195 0.06 0 0.2 0.06 0 0.205 0.06 0 0.21 0.06 0 0.215 0.06 0 0.22 0.06 0 0.225 0.06 0 0.23 0.06 0 0.235 0.06 0 0.24 0.06 0 0.245 0.06 0 0.25 0.06 0 0.255 0.06 0 0.26 0.06 0 0.265 0.06 0 0.27 0.06 0 0.275 0.06 0 0.28 0.06 0 0.285 0.06 0 0.29 0.06 0 0.295 0.06 0 0.3 0.06 0 0.305 0.06 0 0.31 0.06 0 0.315 0.06 0 0.32 0.06 0 0.325 0.06 0 0.33 0.06 0 0.335 0.06 0 0.34 0.06 0 0.345 0.06 0 0.35 0.06 0 0.355 0.06 0 0.36 0.06 0 0.365 0.06 0 0.37 0.06 0 0.375 0.06 0 0.38 0.06 0 0.385 0.06 0 0.39 0.06 0 0.395 0.06 0 0.4 0.06 0 0.405 0.06 0 0.41 0.06 0 0.415 0.06 0 0.42 0.06 0 0.425 0.06 0 0.43 0.06 0 0.435 0.06 0 0.44 0.06 0 0.445 0.06 0 0.45 0.06 0 0.455 0.06 0 0.46 0.06 0 0.465 0.06 0 0.47 0.06 0 0.475 0.06 0 0.48 0.06 0 0.485 0.06 0 0.49 0.06 0 0.495 0.06 0 0.5 0.06 0 0.505 0.06 0 0.51 0.06 0 0.515 0.06 0 0.52 0.06 0 0.525 0.06 0 0.53 0.06 0 0.535 0.06 0 0.54 0.06 0 0.545 0.06 0 0.55 0.06 0 0.555 0.06 0 0.56 0.06 0 0.565 0.06 0 0.57 0.06 0 0.575 0.06 0 0.58 0.06 0 0.585 0.06 0 0.59 0.06 0 0.595 0.06 0 0.6 0.06 0 0.605 0.06 0 0.61 0.06 0 0.615 0.06 0 0.62 0.06 0 0.625 0.06 0 0.63 0.06 0 0.635 0.06 0 0.64 0.06 0 0.645 0.06 0 0.65 0.06 0 0.655 0.06 0 0.66 0.06 0 0.665 0.06 0 0.67 0.06 0 0.675 0.06 0 0.68 0.06 0 0.685 0.06 0 0.69 0.06 0 0.695 0.06 0 0.7 0.06 0 0.705 0.06 0 0.71 0.06 0 0.715 0.06 0 0.72 0.06 0 0.725 0.06 0 0.73 0.06 0 0.735 0.06 0 0.74 0.06 0 0.745 0.06 0 0.75 0.06 0 0.755 0.06 0 0.76 0.06 0 0.765 0.06 0 0.77 0.06 0 0.775 0.06 0 0.78 0.06 0 0.785 0.06 0 0.79 0.06 0 0.795 0.06 0 0.8 0.06 0 0.805 0.06 0 0.81 0.06 0 0.815 0.06 0 0.82 0.06 0 0.825 0.06 0 0.83 0.06 0 0.835 0.06 0 0.84 0.06 0 0.845 0.06 0 0.85 0.06 0 0.855 0.06 0 0.86 0.06 0 0.865 0.06 0 0.87 0.06 0 0.875 0.06 0 0.88 0.06 0 0.885 0.06 0 0.89 0.06 0 0.895 0.06 0 0.9 0.06 0 0.905 0.06 0 0.91 0.06 0 0.915 0.06 0 0.92 0.06 0 0.925 0.06 0 0.93 0.06 0 0.935 0.06 0 0.94 0.06 0 0.945 0.06 0 0.95 0.06 0 0.955 0.06 0 0.96 0.06 0 0.965 0.06 0 0.97 0.06 0 0.975 0.06 0 0.98 0.06 0 0.985 0.06 0 0.99 0.06 0 0.995 0.06 0 1 0.06 0 0 0.08 0 0.005 0.08 0 0.01 0.08 0 0.015 0.08 0 0.02 0.08 0 0.025 0.08 0 0.03 0.08 0 0.035 0.08 0 0.04 0.08 0 0.045 0.08 0 0.05 0.08 0 0.055 0.08 0 0.06 0.08 0 0.065 0.08 0 0.07 0.08 0 0.075 0.08 0 0.08 0.08 0 0.085 0.08 0 0.09 0.08 0 0.095 0.08 0 0.1 0.08 0 0.105 0.08 0 0.11 0.08 0 0.115 0.08 0 0.12 0.08 0 0.125 0.08 0 0.13 0.08 0 0.135 0.08 0 0.14 0.08 0 0.145 0.08 0 0.15 0.08 0 0.155 0.08 0 0.16 0.08 0 0.165 0.08 0
[...]
			<PointData Scalars="VitesseX">
				<DataArray Name="VitesseX" type="Float32" format="ascii">
 0 -3.16975e-14 -1.54201e-15 -2.19555e-14 3.8556e-14 7.10033e-15 2.93029e-15 -4.62871e-14 -5.39212e-15 -5.68834e-15 -2.9146e-14 6.06597e-14 -3.44076e-14 2.02417e-14 -8.00678e-14 -3.26635e-14 -3.14927e-14 -1.09347e-13 -5.43321e-14 -9.25991e-14 -2.21569e-14 -1.31814e-13 -6.22183e-14 -1.30986e-13 2.92318e-14 -2.27144e-14 -2.58057e-13 -6.05536e-14 -6.54924e-14 -6.32202e-14 -1.90957e-13 3.01339e-14 -3.26714e-13 -1.13695e-13 -1.75757e-13 -8.38046e-14 -1.85042e-13 -1.072e-13 -1.94637e-13 9.03748e-14 4.94703e-14 5.56475e-14 1.00109e-13 -6.83379e-14 -6.72396e-14 -1.88888e-13 -1.64564e-13 -5.70465e-14 -5.71964e-14 8.91191e-17 -1.84614e-13 -2.65045e-13 5.77835e-14 -3.92601e-13 3.4219e-13 -1.31834e-13 -5.41679e-13 1.43901e-13 -1.2207e-13 -7.21712e-14 -2.064e-13 -1.63758e-13 1.19928e-13 4.87052e-13 6.72871e-12 5.99563e-11 5.0355e-10 3.94026e-09 2.84528e-08 1.88928e-07 1.14735e-06 6.33418e-06 3.15605e-05 0.000140687 0.000555084 0.00191349 0.00567971 0.0143236 0.0305023 0.0552986 0.0874502 0.124642 0.164971 0.207304 0.250931 0.295379 0.340465 0.386146 0.432436 0.478329 0.522173 0.566101 0.608743 0.65065 0.692371 0.731491 0.771098 0.806857 0.83998 0.870804 0.891944 0.909841 0.922382 0.926561 0.92984 0.932122 0.932326 0.931995 0.931626 0.93139 0.931163 0.930835 0.930401 0.929959 0.929628 0.929399 0.929218 0.929054 0.928903 0.928765 0.928626 0.928459 0.928233 0.927859 0.927126 0.9256 0.922392 0.91576 0.902518 0.87739 0.832939 0.761111 0.657303 0.525848 0.382653 0.248871 0.141979 0.0702391 0.0305382 0.0121197 0.00456711 0.00167435 0.000603705 0.000214915 7.56119e-05 2.62871e-05 9.02635e-06 3.05953e-06 1.02313e-06 3.37386e-07 1.09662e-07 3.512e-08 1.10785e-08 3.44114e-09 1.05208e-09 3.16818e-10 9.38823e-11 2.68168e-11 7.45702e-12 1.65329e-12 4.17725e-13 5.60274e-13 -3.20655e-13 -2.7384e-13 -1.63685e-13 -6.18192e-13 4.10668e-13 -5.82843e-13 -2.85949e-13 1.24249e-13 -5.01816e-13 -5.17305e-13 -2.21196e-14 -2.01482e-14 -7.73944e-14 -1.22146e-13 8.86497e-14 -2.27951e-13 8.13186e-13 4.04535e-14 -7.54456e-13 1.15843e-13 -8.31982e-14 1.14733e-13 -2.74973e-13 -2.19999e-13 -3.296e-13 3.60051e-15 -1.72853e-13 3.57743e-13 -6.86945e-13 2.09513e-13 2.14243e-13 1.97109e-14 -7.36909e-14 -2.66779e-13 6.71629e-13 8.83481e-13 -7.57438e-13 -8.77594e-13 0 0 1.0632e-14 -8.38104e-15 3.37567e-14 -2.74737e-14 -2.4291e-14 -3.03794e-14 2.78789e-17 -2.48503e-14 5.48656e-15 1.38078e-14 -5.0498e-14 5.04447e-14 -3.34285e-14 -3.13719e-14 -1.86414e-14 -6.39945e-14 -5.91602e-14 -1.02158e-13 -3.44005e-14 -1.09404e-13 1.34178e-14 -1.30875e-13 -6.96042e-14 -1.31805e-13 -1.04027e-13 2.21127e-14 -1.48189e-13 -1.66157e-13 -6.17595e-14 -4.76389e-14 -2.3384e-13 -2.73643e-14 -2.59066e-13 -1.29523e-13 -1.83439e-13 -1.00836e-13 -3.56747e-14 3.71545e-15 -1.68051e-13 7.95774e-14 -8.95593e-14 -5.38319e-15 1.43364e-14 -2.33603e-14 -5.752e-14 -8.12808e-14 -3.90997e-13 -2.12763e-13 -2.78393e-13 6.57044e-14 2.23463e-14 -2.40676e-13 1.94193e-13 -4.22898e-13 5.80799e-15 1.2713e-13 -3.81649e-13 -5.05913e-17 -1.40301e-13 3.28826e-14 -4.26714e-14 -7.13765e-14 7.78073e-13 6.58016e-12 5.99625e-11 5.04061e-10 3.93922e-09 2.84532e-08 1.88928e-07 1.14735e-06 6.33418e-06 3.15605e-05 0.000140687 0.000555084 0.00191349 0.00567971 0.0143236 0.0305023 0.0552986 0.0874502 0.124642 0.164971 0.207304 0.250931 0.295379 0.340465 0.386146 0.432436 0.478329 0.522173 0.566101 0.608743 0.65065 0.692371 0.731491 0.771098 0.806857 0.83998 0.870804 0.891944 0.909841 0.922382 0.926561 0.92984 0.932122 0.932326 0.931995 0.931626 0.93139 0.931163 0.930835 0.930401 0.929959 0.929628 0.929399 0.929218 0.929054 0.928903 0.928765 0.928626 0.928459 0.928233 0.927859 0.927126 0.9256 0.922392 0.91576 0.902518 0.87739 0.832939 0.761111 0.657303 0.525848 0.382653 0.248871 0.141979 0.0702391 0.0305382 0.0121197 0.00456711 0.00167435 0.000603705 0.000214915 7.56119e-05 2.62871e-05 9.02635e-06 3.05953e-06 1.02313e-06 3.37386e-07 1.09662e-07 3.51199e-08 1.10787e-08 3.44133e-09 1.05247e-09 3.1633e-10 9.33454e-11 2.73731e-11 7.5624e-12 2.10154e-12 2.83621e-13 -1.73813e-13 -1.35304e-13 2.21125e-13 -3.75462e-13 -6.00909e-14 -6.06982e-13 -1.37355e-13 7.65868e-14 -6.70497e-13 -5.39257e-14 -3.12153e-13 -5.77213e-13 -2.55656e-13 -6.06053e-14 8.75256e-14 3.81161e-13 2.89477e-13 -3.16468e-13 1.50618e-14 1.90603e-13 -3.21539e-13 8.11546e-14 -6.1273e-14 -8.29164e-14 -3.17457e-13 2.75051e-14 -2.05047e-13 -2.10841e-13 -7.26348e-13 4.46528e-13 -1.25626e-13 -1.37174e-14 -1.46572e-14 5.00648e-13 7.32721e-13 -7.26674e-13 -2.09779e-13 5.15733e-13 7.35441e-13 0 0 8.58773e-15 1.1022e-14 -2.15837e-14 -2.87353e-14 -2.44127e-14 -2.77401e-14 -5.58622e-14 7.76818e-17 -2.24872e-15 -1.61107e-14 1.52248e-14 -4.61299e-14 3.91704e-14 -3.0646e-14 -5.15258e-14 -1.17408e-15 -9.154e-14 4.62549e-14 -4.48907e-14 -1.34277e-13 -7.05594e-14 -4.68455e-14 -1.30697e-13 -4.46265e-14 -6.90071e-14 -9.56824e-14 -2.06167e-13 -5.83056e-14 -6.47728e-14 -1.82242e-13 -1.11844e-15 -1.83802e-13 -8.45067e-14 -1.50224e-13 -2.29859e-13 -1.16506e-13 -6.01891e-15 -6.37686e-14 3.5574e-14 -2.46655e-13 4.61633e-14 -8.35015e-14 1.31201e-13 -1.06022e-13 -2.2888e-13 -3.00952e-13 -1.90651e-13 -5.8235e-15 -8.67548e-14 -1.21851e-13 -2.32838e-14 -1.48177e-14 -2.6732e-13 -5.28307e-14 8.59777e-14 -1.21028e-13 -1.27718e-13 -1.44705e-13 -1.24063e-13 1.31274e-14 -7.99346e-14 2.7692e-13 7.41124e-13 6.83694e-12 5.97009e-11 5.03929e-10 3.93976e-09 2.8453e-08 1.88928e-07 1.14735e-06 6.33418e-06 3.15605e-05 0.000140687 0.000555084 0.00191349 0.00567971 0.0143236 0.0305023 0.0552986 0.0874502 0.124642 0.164971 0.207304 0.250931 0.295379 0.340465 0.386146 0.432436 0.478329 0.522173 0.566101 0.608743 0.65065 0.692371 0.731491 0.771098 0.806857 0.83998 0.870804 0.891944 0.909841 0.922382 0.926561 0.92984 0.932122 0.932326 0.931995 0.931626 0.93139 0.931163 0.930835 0.930401 0.929959 0.929628 0.929399 0.929218 0.929054 0.928903 0.928765 0.928626 0.928459 0.928233 0.927859 0.927126 0.9256 0.922392 0.91576 0.902518 0.87739 0.832939 0.761111 0.657303 0.525848 0.382653 0.248871 0.141979 0.0702391 0.0305382 0.0121197 0.00456711 0.00167435 0.000603705 0.000214915 7.56119e-05 2.62871e-05 9.02635e-06 3.05953e-06 1.02313e-06 3.37386e-07 1.09662e-07 3.51199e-08 1.10789e-08 3.44159e-09 1.05214e-09 3.1658e-10 9.36313e-11 2.71433e-11 7.51197e-12 2.07607e-12 3.68854e-13 2.69794e-13 -2.28004e-13 -2.28439e-13 2.0372e-13 -6.25315e-13 -4.14507e-13 -2.90534e-13 -3.09605e-13 -1.66864e-13 -3.72494e-13 -2.36808e-13 -2.87038e-13 -5.59852e-13 1.64462e-14 2.58792e-13 -5.20047e-14 -2.09992e-13 2.27731e-13 -1.17432e-13 -3.58711e-14 1.07076e-13 2.60713e-13 -3.41693e-13 -1.83497e-13 -3.19185e-13 1.32835e-13 -1.39069e-13 -1.81441e-13 -1.15122e-13 -6.90201e-13 -5.50266e-14 6.78376e-13 1.96601e-13 -2.96377e-13 -2.20935e-13 3.70558e-13 2.90758e-13 2.55475e-13 -2.40554e-13 0 0 -3.19973e-14 -3.47503e-14 -4.89271e-14 -3.78705e-14 -3.13606e-14 -1.48348e-14 -4.57096e-14 -1.83618e-14 1.90035e-14 1.2467e-14 -5.25417e-15 -1.69446e-14 9.12858e-15 -7.78098e-14 -1.38301e-14 3.10763e-14 -7.23339e-14 3.30299e-14 -1.09505e-14 4.26842e-14 -1.50805e-13 3.69865e-14 -1.54751e-13 -3.3522e-14 -1.36106e-13 -1.70769e-13 -5.35889e-14 -6.60408e-14 -1.52497e-13 -1.40095e-13 -6.68997e-14 -1.895e-13 -1.2025e-13 -2.04893e-13 -3.85717e-14 -1.52555e-13 -1.9226e-13 5.20754e-14 -1.98845e-14 -6.67442e-14 1.71341e-13 6.06174e-14 -1.20277e-13 -7.52303e-15 -1.5718e-13 -2.84567e-13 6.19643e-14 -7.9116e-14 -1.80974e-13 -2.08315e-13 -7.27687e-14 1.51052e-14 -1.98147e-13 2.03183e-13 -1.04811e-13 -2.07076e-13 1.08645e-14 -5.7412e-14 -2.09287e-13 -2.16289e-13 9.25873e-14 1.26118e-13 8.27945e-13 6.70321e-12 5.99665e-11 5.03858e-10 3.94012e-09 2.84531e-08 1.88928e-07 1.14735e-06 6.33418e-06 3.15605e-05 0.000140687 0.000555084 0.00191349 0.00567971 0.0143236 0.0305023 0.0552986 0.0874502 0.124642 0.164971 0.207304 0.250931 0.295379 0.340465 0.386146 0.432436 0.478329 0.522173 0.566101 0.608743 0.65065 0.692371 0.731491 0.771098 0.806857 0.83998 0.870804 0.891944 0.909841 0.922382 0.926561 0.92984 0.932122 0.932326 0.931995 0.931626 0.93139 0.931163 0.930835 0.930401 0.929959 0.929628 0.929399 0.929218 0.929054 0.928903 0.928765 0.928626 0.928459 0.928233 0.927859 0.927126 0.9256 0.922392 0.91576 0.902518 0.87739 0.832939 0.761111 0.657303 0.525848 0.382653 0.248871 0.141979 0.0702391 0.0305382 0.0121197 0.00456711 0.00167435 0.000603705 0.000214915 7.56119e-05 2.62871e-05 9.02635e-06 3.05953e-06 1.02313e-06 3.37386e-07 1.09662e-07 3.51201e-08 1.10787e-08 3.44142e-09 1.05254e-09 3.16767e-10 9.36409e-11 2.75079e-11 7.56545e-12 1.34886e-12 7.06949e-13 -2.72719e-14 3.87365e-13 -4.12223e-13 3.72244e-14 -4.10891e-13 -6.59877e-14 -2.87638e-13 -7.72295e-13 -6.4207e-14 -2.37762e-13 -4.72754e-13 -2.36877e-13 -1.81528e-13 -7.01809e-14 -2.15422e-13 1.59487e-13 -7.15407e-13 4.72352e-13 1.93108e-13 -1.27355e-13 -1.91564e-13 -3.20088e-13 -4.06612e-13 3.1062e-14 2.36479e-13 -5.13148e-13 -3.43751e-13 -1.68001e-13 -1.12804e-13 -4.84779e-14 -1.95053e-13 2.4365e-13 2.2989e-13 1.44308e-13 5.76089e-14 8.93843e-13 2.56347e-13 -1.001e-12 -6.49857e-13 0 0 -1.83824e-14 -5.12915e-14 -1.64231e-14 -6.15727e-14 -5.34332e-14 -3.13752e-14 9.73375e-15 -3.36635e-14 1.45752e-15 2.56185e-14 -5.87003e-14 7.1214e-14 -5.51877e-14 -7.72234e-15 5.10102e-14 -1.55192e-14 3.0027e-14 -5.36189e-14 -2.87733e-15 5.8207e-15 -1.53071e-14 -1.55317e-13 -7.46243e-14 -1.35397e-13 -1.75771e-13 -6.35953e-14 -1.59635e-13 -1.72915e-13 -8.35127e-14 -3.58819e-15 -2.20482e-13 7.86316e-14 -1.89096e-13 -1.26108e-13 -1.05115e-13 -1.01764e-14 -6.31242e-14 1.10638e-13 -1.91178e-13 9.00363e-14 -9.19953e-14 8.33402e-14 -2.01307e-13 6.46549e-14 -3.8476e-14 -6.73816e-14 -1.60319e-13 -2.95617e-13 -2.9828e-13 1.13768e-15 8.53205e-14 -1.12629e-13 3.48155e-13 -3.19679e-13 -1.40188e-13 1.53014e-13 -2.20426e-13 -5.98656e-14 -2.66043e-13 -3.21722e-14 2.20364e-14 -3.39575e-14 9.85155e-13 6.6653e-12 6.01811e-11 5.04123e-10 3.93953e-09 2.84534e-08 1.88928e-07 1.14735e-06 6.33418e-06 3.15605e-05 0.000140687 0.000555084 0.00191349 0.00567971 0.0143236 0.0305023 0.0552986 0.0874502 0.124642 0.164971 0.207304 0.250931 0.295379 0.340465 0.386146 0.432436 0.478329 0.522173 0.566101 0.608743 0.65065 0.692371 0.731491 0.771098 0.806857 0.83998 0.870804 0.891944 0.909841 0.922382 0.926561 0.92984 0.932122 0.932326 0.931995 0.931626 0.93139 0.931163 0.930835 0.930401 0.929959 0.929628 0.929399 0.929218 0.929054 0.928903 0.928765 0.928626 0.928459 0.928233 0.927859 0.927126 0.9256 0.922392 0.91576 0.902518 0.87739 0.832939 0.761111 0.657303 0.525848 0.382653 0.248871 0.141979 0.0702391 0.0305382 0.0121197 0.00456711 0.00167435 0.000603705 0.000214915 7.56119e-05 2.62871e-05 9.02635e-06 3.05953e-06 1.02313e-06 3.37386e-07 1.09662e-07 3.51202e-08 1.10785e-08 3.44159e-09 1.0526e-09 3.16774e-10 9.34764e-11 2.75199e-11 7.88375e-12 1.57729e-12 4.8835e-13 8.69731e-14 -1.82435e-13 6.73269e-14 -1.6262e-14 -3.19816e-14 -6.98227e-13 -2.15238e-13 -3.51098e-13 -7.63765e-13 2.12778e-13 -4.82827e-13 -4.08768e-13 -3.57014e-14 -1.97509e-13 6.31338e-14 4.98319e-14 -5.69101e-15 -2.75807e-13 -3.89369e-14 3.61961e-13 -5.30472e-13 -3.53674e-13 -3.07747e-13 -1.67768e-14 -6.50743e-14 -2.42182e-13 -5.72153e-13 -3.83931e-14 -4.11955e-13 7.39421e-13 -2.26397e-13 -2.4824e-13 -2.23036e-13 7.88246e-13 8.3653e-13 -4.57909e-13 -2.15222e-13 -2.05058e-13 6.35454e-13 0 0 -8.5563e-15 4.18182e-15 -6.76282e-14 -1.13716e-14 -3.72882e-14 -2.48718e-14 -4.71807e-14 1.38603e-14 -5.62508e-14 -6.268e-14 8.52132e-14 -5.12395e-14 3.6807e-14 6.15588e-14 3.1248e-14 9.57112e-16 3.06154e-14 6.91962e-14 -9.74334e-14 -1.4563e-13 -2.87723e-14 -2.78767e-13 -9.29196e-14 -1.60622e-16 -3.20043e-14 -2.79299e-13 -3.88601e-13 -6.35369e-14 6.87215e-14 -1.8715e-13 1.88414e-13 -1.03326e-13 9.7732e-14 -5.95879e-14 -3.09732e-13 6.8374e-14 2.10383e-13 -2.12481e-13 1.55038e-13 -2.89433e-13 -1.99579e-13 -1.06815e-14 3.33165e-15 -8.82063e-14 -2.94201e-13 -1.69536e-13 -1.00921e-13 -7.63211e-14 1.48753e-13 -1.4082e-13 -4.01272e-14 2.54032e-13 -2.23022e-13 3.65998e-14 -4.2249e-14 -3.17815e-13 1.89183e-13 -4.16287e-13 -1.53208e-13 1.22322e-13 -3.79386e-13 4.9637e-13 7.27573e-13 7.16644e-12 5.9862e-11 5.03815e-10 3.94016e-09 2.84531e-08 1.88927e-07 1.14735e-06 6.33418e-06 3.15605e-05 0.000140687 0.000555084 0.00191349 0.00567971 0.0143236 0.0305023 0.0552986 0.0874502 0.124642 0.164971 0.207304 0.250931 0.295379 0.340465 0.386146 0.432436 0.478329 0.522173 0.566101 0.608743 0.65065 0.692371 0.731491 0.771098 0.806857 0.83998 0.870804 0.891944 0.909841 0.922382 0.926561 0.92984 0.932122 0.932326 0.931995 0.931626 0.93139 0.931163 0.930835 0.930401 0.929959 0.929628 0.929399 0.929218 0.929054 0.928903 0.928765 0.928626 0.928459 0.928233 0.927859 0.927126 0.9256 0.922392 0.91576 0.902518 0.87739 0.832939 0.761111 0.657303 0.525848 0.382653 0.248871 0.141979 0.0702391 0.0305382 0.0121197 0.00456711 0.00167435 0.000603705 0.000214915 7.56119e-05 2.62871e-05 9.02635e-06 3.05953e-06 1.02313e-06 3.37386e-07 1.09662e-07 3.51203e-08 1.10785e-08 3.44199e-09 1.05152e-09 3.17331e-10 9.41252e-11 2.63813e-11 7.99275e-12 2.0592e-12 1.50993e-13 1.67598e-12 -1.64566e-12 -2.13868e-13 8.87704e-13 -9.9082e-13 -4.68861e-13 -7.444e-13 -2.15937e-13 -2.67601e-13 -2.37872e-13 -3.8676e-13 2.14448e-13 -3.36887e-13 -1.77948e-13 7.77498e-13 -9.96991e-13 1.92542e-13 4.05265e-13 -6.88625e-13 -2.28771e-13 2.95258e-13 2.08747e-13 -2.48378e-13 -5.71812e-13 -8.2656e-13 4.22992e-13 -3.21246e-13 1.45163e-13 9.81893e-13 -1.38461e-12 2.88024e-13 6.14651e-13 -4.63626e-13 -3.79866e-13 -6.16249e-13 1.62588e-13 9.41415e-13 3.13936e-13 -2.58963e-13 0
				</DataArray>
				<DataArray Name="VitesseY" type="Float32" format="ascii">