<?xml version="1.0"?>
<VTKFile type="PolyData">
	<PolyData>
		<Piece NumberOfPoints="1206" NumberOfPolys="1000">
			<Points>
				<DataArray type="Float32" NumberOfComponents="3" format="ascii">
 0 0 0 0.005 0 0 0.01 0 0 0.015 0 0 0.02 0 0 0.025 0 0 0.03 0 0 0.035 0 0 0.04 0 0 0.045 0 0 0.05 0 0 0.055 0 0 0.06 0 0 0.065 0 0 0.07 0 0 0.075 0 0 0.08 0 0 0.085 0 0 0.09 0 0 0.095 0 0 0.1 0 0 0.105 0 0 0.11 0 0 0.115 0 0 0.12 0 0 0.125 0 0 0.13 0 0 0.135 0 0 0.14 0 0 0.145 0 0 0.15 0 0 0.155 0 0 0.16 0 0 0.165 0 0 0.17 0 0 0.175 0 0 0.18 0 0 0.185 0 0 0.19 0 0 0.195 0 0 0.2 0 0 0.205 0 0 0.21 0 0 0.215 0 0 0.22 0 0 0.225 0 0 0.23 0 0 0.235 0 0 0.24 0 0 0.245 0 0 0.25 0 0 0.255 0 0 0.26 0 0 0.265 0 0 0.27 0 0 0.275 0 0 0.28 0 0 0.285 0 0 0.29 0 0 0.295 0 0 0.3 0 0 0.305 0 0 0.31 0 0 0.315 0 0 0.32 0 0 0.325 0 0 0.33 0 0 0.335 0 0 0.34 0 0 0.345 0 0 0.35 0 0 0.355 0 0 0.36 0 0 0.365 0 0 0.37 0 0 0.375 0 0 0.38 0 0 0.385 0 0 0.39 0 0 0.395 0 0 0.4 0 0 0.405 0 0 0.41 0 0 0.415 0 0 0.42 0 0 0.425 0 0 0.43 0 0 0.435 0 0 0.44 0 0 0.445 0 0 0.45 0 0 0.455 0 0 0.46 0 0 0.465 0 0 0.47 0 0 0.475 0 0 0.48 0 0 0.485 0 0 0.49 0 0 0.495 0 0 0.5 0 0 0.505 0 0 0.51 0 0 0.515 0 0 0.52 0 0 0.525 0 0 0.53 0 0 0.535 0 0 0.54 0 0 0.545 0 0 0.55 0 0 0.555 0 0 0.56 0 0 0.565 0 0 0.57 0 0 0.575 0 0 0.58 0 0 0.585 0 0 0.59 0 0 0.595 0 0 0.6 0 0 0.605 0 0 0.61 0 0 0.615 0 0 0.62 0 0 0.625 0 0 0.63 0 0 0.635 0 0 0.64 0 0 0.645 0 0 0.65 0 0 0.655 0 0 0.66 0 0 0.665 0 0 0.67 0 0 0.675 0 0 0.68 0 0 0.685 0 0 0.69 0 0 0.695 0 0 0.7 0 0 0.705 0 0 0.71 0 0 0.715 0 0 0.72 0 0 0.725 0 0 0.73 0 0 0.735 0 0 0.74 0 0 0.745 0 0 0.75 0 0 0.755 0 0 0.76 0 0 0.765 0 0 0.77 0 0 0.775 0 0 0.78 0 0 0.785 0 0 0.79 0 0 0.795 0 0 0.8 0 0 0.805 0 0 0.81 0 0 0.815 0 0 0.82 0 0 0.825 0 0 0.83 0 0 0.835 0 0 0.84 0 0 0.845 0 0 0.85 0 0 0.855 0 0 0.86 0 0 0.865 0 0 0.87 0 0 0.875 0 0 0.88 0 0 0.885 0 0 0.89 0 0 0.895 0 0 0.9 0 0 0.905 0 0 0.91 0 0 0.915 0 0 0.92 0 0 0.925 0 0 0.93 0 0 0.935 0 0 0.94 0 0 0.945 0 0 0.95 0 0 0.955 0 0 0.96 0 0 0.965 0 0 0.97 0 0 0.975 0 0 0.98 0 0 0.985 0 0 0.99 0 0 0.995 0 0 1 0 0 0 0.02 0 0.005 0.02 0 0.01 0.02 0 0.015 0.02 0 0.02 0.02 0 0.025 0.02 0 0.03 0.02 0 0.035 0.02 0 0.04 0.02 0 0.045 0.02 0 0.05 0.02 0 0.055 0.02 0 0.06 0.02 0 0.065 0.02 0 0.07 0.02 0 0.075 0.02 0 0.08 0.02 0 0.085 0.02 0 0.09 0.02 0 0.095 0.02 0 0.1 0.02 0 0.105 0.02 0 0.11 0.02 0 0.115 0.02 0 0.12 0.02 0 0.125 0.02 0 0.13 0.02 0 0.135 0.02 0 0.14 0.02 0 0.145 0.02 0 0.15 0.02 0 0.155 0.02 0 0.16 0.02 0 0.165 0.02 0 0.17 0.02 0 0.175 0.02 0 0.18 0.02 0 0.185 0.02 0 0.19 0.02 0 0.195 0.02 0 0.2 0.02 0 0.205 0.02 0 0.21 0.02 0 0.215 0.02 0 0.22 0.02 0 0.225 0.02 0 0.23 0.02 0 0.235 0.02 0 0.24 0.02 0 0.245 0.02 0 0.25 0.02 0 0.255 0.02 0 0.26 0.02 0 0.265 0.02 0 0.27 0.02 0 0.275 0.02 0 0.28 0.02 0 0.285 0.02 0 0.29 0.02 0 0.295 0.02 0 0.3 0.02 0 0.305 0.02 0 0.31 0.02 0 0.315 0.02 0 0.32 0.02 0 0.325 0.02 0 0.33 0.02 0 0.335 0.02 0 0.34 0.02 0 0.345 0.02 0 0.35 0.02 0 0.355 0.02 0 0.36 0.02 0 0.365 0.02 0 0.37 0.02 0 0.375 0.02 0 0.38 0.02 0 0.385 0.02 0 0.39 0.02 0 0.395 0.02 0 0.4 0.02 0 0.405 0.02 0 0.41 0.02 0 0.415 0.02 0 0.42 0.02 0 0.425 0.02 0 0.43 0.02 0 0.435 0.02 0 0.44 0.02 0 0.445 0.02 0 0.45 0.02 0 0.455 0.02 0 0.46 0.02 0 0.465 0.02 0 0.47 0.02 0 0.475 0.02 0 0.48 0.02 0 0.485 0.02 0 0.49 0.02 0 0.495 0.02 0 0.5 0.02 0 0.505 0.02 0 0.51 0.02 0 0.515 0.02 0 0.52 0.02 0 0.525 0.02 0 0.53 0.02 0 0.535 0.02 0 0.54 0.02 0 0.545 0.02 0 0.55 0.02 0 0.555 0.02 0 0.56 0.02 0 0.565 0.02 0 0.57 0.02 0 0.575 0.02 0 0.58 0.02 0 0.585 0.02 0 0.59 0.02 0 0.595 0.02 0 0.6 0.02 0 0.605 0.02 0 0.61 0.02 0 0.615 0.02 0 0.62 0.02 0 0.625 0.02 0 0.63 0.02 0 0.635 0.02 0 0.64 0.02 0 0.645 0.02 0 0.65 0.02 0 0.655 0.02 0 0.66 0.02 0 0.665 0.02 0 0.67 0.02 0 0.675 0.02 0 0.68 0.02 0 0.685 0.02 0 0.69 0.02 0 0.695 0.02 0 0.7 0.02 0 0.705 0.02 0 0.71 0.02 0 0.715 0.02 0 0.72 0.02 0 0.725 0.02 0 0.73 0.02 0 0.735 0.02 0 0.74 0.02 0 0.745 0.02 0 0.75 0.02 0 0.755 0.02 0 0.76 0.02 0 0.765 0.02 0 0.77 0.02 0 0.775 0.02 0 0.78 0.02 0 0.785 0.02 0 0.79 0.02 0 0.795 0.02 0 0.8 0.02 0 0.805 0.02 0 0.81 0.02 0 0.815 0.02 0 0.82 0.02 0 0.825 0.02 0 0.83 0.02 0 0.835 0.02 0 0.84 0.02 0 0.845 0.02 0 0.85 0.02 0 0.855 0.02 0 0.86 0.02 0 0.865 0.02 0 0.87 0.02 0 0.875 0.02 0 0.88 0.02 0 0.885 0.02 0 0.89 0.02 0 0.895 0.02 0 0.9 0.02 0 0.905 0.02 0 0.91 0.02 0 0.915 0.02 0 0.92 0.02 0 0.925 0.02 0 0.93 0.02 0 0.935 0.02 0 0.94 0.02 0 0.945 0.02 0 0.95 0.02 0 0.955 0.02 0 0.96 0.02 0 0.965 0.02 0 0.97 0.02 0 0.975 0.02 0 0.98 0.02 0 0.985 0.02 0 0.99 0.02 0 0.995 0.02 0 1 0.02 0 0 0.04 0 0.005 0.04 0 0.01 0.04 0 0.015 0.04 0 0.02 0.04 0 0.025 0.04 0 0.03 0.04 0 0.035 0.04 0 0.04 0.04 0 0.045 0.04 0 0.05 0.04 0 0.055 0.04 0 0.06 0.04 0 0.065 0.04 0 0.07 0.04 0 0.075 0.04 0 0.08 0.04 0 0.085 0.04 0 0.09 0.04 0 0.095 0.04 0 0.1 0.04 0 0.105 0.04 0 0.11 0.04 0 0.115 0.04 0 0.12 0.04 0 0.125 0.04 0 0.13 0.04 0 0.135 0.04 0 0.14 0.04 0 0.145 0.04 0 0.15 0.04 0 0.155 0.04 0 0.16 0.04 0 0.165 0.04 0 0.17 0.04 0 0.175 0.04 0 0.18 0.04 0 0.185 0.04 0 0.19 0.04 0 0.195 0.04 0 0.2 0.04 0 0.205 0.04 0 0.21 0.04 0 0.215 0.04 0 0.22 0.04 0 0.225 0.04 0 0.23 0.04 0 0.235 0.04 0 0.24 0.04 0 0.245 0.04 0 0.25 0.04 0 0.255 0.04 0 0.26 0.04 0 0.265 0.04 0 0.27 0.04 0 0.275 0.04 0 0.28 0.04 0 0.285 0.04 0 0.29 0.04 0 0.295 0.04 0 0.3 0.04 0 0.305 0.04 0 0.31 0.04 0 0.315 0.04 0 0.32 0.04 0 0.325 0.04 0 0.33 0.04 0 0.335 0.04 0 0.34 0.04 0 0.345 0.04 0 0.35 0.04 0 0.355 0.04 0 0.36 0.04 0 0.365 0.04 0 0.37 0.04 0 0.375 0.04 0 0.38 0.04 0 0.385 0.04 0 0.39 0.04 0 0.395 0.04 0 0.4 0.04 0 0.405 0.04 0 0.41 0.04 0 0.415 0.04 0 0.42 0.04 0 0.425 0.04 0 0.43 0.04 0 0.435 0.04 0 0.44 0.04 0 0.445 0.04 0 0.45 0.04 0 0.455 0.04 0 0.46 0.04 0 0.465 0.04 0 0.47 0.04 0 0.475 0.04 0 0.48 0.04 0 0.485 0.04 0 0.49 0.04 0 0.495 0.04 0 0.5 0.04 0 0.505 0.04 0 0.51 0.04 0 0.515 0.04 0 0.52 0.04 0 0.525 0.04 0 0.53 0.04 0 0.535 0.04 0 0.54 0.04 0 0.545 0.04 0 0.55 0.04 0 0.555 0.04 0 0.56 0.04 0 0.565 0.04 0 0.57 0.04 0 0.575 0.04 0 0.58 0.04 0 0.585 0.04 0 0.59 0.04 0 0.595 0.04 0 0.6 0.04 0 0.605 0.04 0 0.61 0.04 0 0.615 0.04 0 0.62 0.04 0 0.625 0.04 0 0.63 0.04 0 0.635 0.04 0 0.64 0.04 0 0.645 0.04 0 0.65 0.04 0 0.655 0.04 0 0.66 0.04 0 0.665 0.04 0 0.67 0.04 0 0.675 0.04 0 0.68 0.04 0 0.685 0.04 0 0.69 0.04 0 0.695 0.04 0 0.7 0.04 0 0.705 0.04 0 0.71 0.04 0 0.715 0.04 0 0.72 0.04 0 0.725 0.04 0 0.73 0.04 0 0.735 0.04 0 0.74 0.04 0 0.745 0.04 0 0.75 0.04 0 0.755 0.04 0 0.76 0.04 0 0.765 0.04 0 0.77 0.04 0 0.775 0.04 0 0.78 0.04 0 0.785 0.04 0 0.79 0.04 0 0.795 0.04 0 0.8 0.04 0 0.805 0.04 0 0.81 0.04 0 0.815 0.04 0 0.82 0.04 0 0.825 0.04 0 0.83 0.04 0 0.835 0.04 0 0.84 0.04 0 0.845 0.04 0 0.85 0.04 0 0.855 0.04 0 0.86 0.04 0 0.865 0.04 0 0.87 0.04 0 0.875 0.04 0 0.88 0.04 0 0.885 0.04 0 0.89 0.04 0 0.895 0.04 0 0.9 0.04 0 0.905 0.04 0 0.91 0.04 0 0.915 0.04 0 0.92 0.04 0 0.925 0.04 0 0.93 0.04 0 0.935 0.04 0 0.94 0.04 0 0.945 0.04 0 0.95 0.04 0 0.955 0.04 0 0.96 0.04 0 0.965 0.04 0 0.97 0.04 0 0.975 0.04 0 0.98 0.04 0 0.985 0.04 0 0.99 0.04 0 0.995 0.04 0 1 0.04 0 0 0.06 0 0.005 0.06 0 0.01 0.06 0 0.015 0.06 0 0.02 0.06 0 0.025 0.06 0 0.03 0.06 0 0.035 0.06 0 0.04 0.06 0 0.045 0.06 0 0.05 0.06 0 0.055 0.06 0 0.06 0.06 0 0.065 0.06 0 0.07 0.06 0 0.075 0.06 0 0.08 0.06 0 0.085 0.06 0 0.09 0.06 0 0.095 0.06 0 0.1 0.06 0 0.105 0.06 0 0.11 0.06 0 0.115 0.06 0 0.12 0.06 0 0.125 0.06 0 0.13 0.06 0 0.135 0.06 0 0.14 0.06 0 0.145 0.06 0 0.15 0.06 0 0.155 0.06 0 0.16 0.06 0 0.165 0.06 0 0.17 0.06 0 0.175 0.06 0 0.18 0.06 0 0.185 0.06 0 0.19 0.06 0 0.195 0.06 0 0.2 0.06 0 0.205 0.06 0 0.21 0.06 0 0.215 0.06 0 0.22 0.06 0 0.225 0.06 0 0.23 0.06 0 0.235 0.06 0 0.24 0.06 0 0.245 0.06 0 0.25 0.06 0 0.255 0.06 0 0.26 0.06 0 0.265 0.06 0 0.27 0.06 0 0.275 0.06 0 0.28 0.06 0 0.285 0.06 0 0.29 0.06 0 0.295 0.06 0 0.3 0.06 0 0.305 0.06 0 0.31 0.06 0 0.315 0.06 0 0.32 0.06 0 0.325 0.06 0 0.33 0.06 0 0.335 0.06 0 0.34 0.06 0 0.345 0.06 0 0.35 0.06 0 0.355 0.06 0 0.36 0.06 0 0.365 0.06 0 0.37 0.06 0 0.375 0.06 0 0.38 0.06 0 0.385 0.06 0 0.39 0.06 0 0.395 0.06 0 0.4 0.06 0 0.405 0.06 0 0.41 0.06 0 0.415 0.06 0 0.42 0.06 0 0.425 0.06 0 0.43 0.06 0 0.435 0.06 0 0.44 0.06 0 0.445 0.06 0 0.45 0.06 0 0.455 0.06 0 0.46 0.06 0 0.465 0.06 0 0.47 0.06 0 0.475 0.06 0 0.48 0.06 0 0.485 0.06 0 0.49 0.06 0 0.495 0.06 0 0.5 0.06 0 0.505 0.06 0 0.51 0.06 0 0.515 0.06 0 0.52 0.06 0 0.525 0.06 0 0.53 0.06 0 0.535 0.06 0 0.54 0.06 0 0.545 0.06 0 0.55 0.06 0 0.555 0.06 0 0.56 0.06 0 0.565 0.06 0 0.57 0.06 0 0.575 0.06 0 0.58 0.06 0 0.585 0.06 0 0.59 0.06 0 0.595 0.06 0 0.6 0.06 0 0.605 0.06 0 0.61 0.06 0 0.615 0.06 0 0.62 0.06 0 0.625 0.06 0 0.63 0.06 0 0.635 0.06 0 0.64 0.06 0 0.645 0.06 0 0.65 0.06 0 0.655 0.06 0 0.66 0.06 0 0.665 0.06 0 0.67 0.06 0 0.675 0.06 0 0.68 0.06 0 0.685 0.06 0 0.69 0.06 0 0.695 0.06 0 0.7 0.06 0 0.705 0.06 0 0.71 0.06 0 0.715 0.06 0 0.72 0.06 0 0.725 0.06 0 0.73 0.06 0 0.735 0.06 0 0.74 0.06 0 0.745 0.06 0 0.75 0.06 0 0.755 0.06 0 0.76 0.06 0 0.765 0.06 0 0.77 0.06 0 0.775 0.06 0 0.78 0.06 0 0.785 0.06 0 0.79 0.06 0 0.795 0.06 0 0.8 0.06 0 0.805 0.06 0 0.81 0.06 0 0.815 0.06 0 0.82 0.06 0 0.825 0.06 0 0.83 0.06 0 0.835 0.06 0 0.84 0.06 0 0.845 0.06 0 0.85 0.06 0 0.855 0.06 0 0.86 0.06 0 0.865 0.06 0 0.87 0.06 0 0.875 0.06 0 0.88 0.06 0 0.885 0.06 0 0.89 0.06 0 0.895 0.06 0 0.9 0.06 0 0.905 0.06 0 0.91 0.06 0 0.915 0.06 0 0.92 0.06 0 0.925 0.06 0 0.93 0.06 0 0.935 0.06 0 0.94 0.06 0 0.945 0.06 0 0.95 0.06 0 0.955 0.06 0 0.96 0.06 0 0.965 0.06 0 0.97 0.06 0 0.975 0.06 0 0.98 0.06 0 0.985 0.06 0 0.99 0.06 0 0.995 0.06 0 1 0.06 0 0 0.08 0 0.005 0.08 0 0.01 0.08 0 0.015 0.08 0 0.02 0.08 0 0.025 0.08 0 0.03 0.08 0 0.035 0.08 0 0.04 0.08 0 0.045 0.08 0 0.05 0.08 0 0.055 0.08 0 0.06 0.08 0 0.065 0.08 0 0.07 0.08 0 0.075 0.08 0 0.08 0.08 0 0.085 0.08 0 0.09 0.08 0 0.095 0.08 0 0.1 0.08 0 0.105 0.08 0 0.11 0.08 0 0.115 0.08 0 0.12 0.08 0 0.125 0.08 0 0.13 0.08 0 0.135 0.08 0 0.14 0.08 0 0.145 0.08 0 0.15 0.08 0 0.155 0.08 0 0.16 0.08 0 0.165 0.08 0
[...]
			<PointData Scalars="VitesseX">
				<DataArray Name="VitesseX" type="Float32" format="ascii">
 0 1.50229e-14 -1.16572e-14 -4.12891e-14 -1.18422e-14 5.01209e-15 -5.32118e-14 -2.46586e-15 7.71347e-15 4.64681e-14 -4.52435e-14 2.8667e-14 -1.25726e-13 7.60833e-14 -7.98554e-14 -4.4986e-14 -3.61053e-16 -8.35577e-14 -3.65066e-14 -1.78685e-14 -1.35613e-13 -1.09799e-13 8.79231e-14 -8.93774e-14 -1.41872e-13 -2.78279e-14 -1.58378e-14 -1.82641e-13 -2.27073e-15 -2.78761e-13 -1.69475e-13 -7.95453e-14 -2.68202e-13 -6.365e-14 -2.97856e-13 -8.78315e-14 -6.813e-14 -5.63743e-14 3.06315e-15 1.83758e-13 -5.22006e-14 4.95178e-14 -7.77088e-14 -7.77111e-14 -1.87739e-13 -2.70106e-13 -7.11291e-14 -2.1308e-13 -8.47098e-15 1.16034e-14 -2.31558e-13 -3.4727e-14 8.90475e-14 -4.92663e-13 -1.29886e-13 -1.20983e-13 -1.12349e-13 2.37064e-14 -9.71632e-14 -3.62901e-14 5.4726e-13 5.49481e-12 4.63941e-11 3.65926e-10 2.70068e-09 1.85146e-08 1.1741e-07 6.8551e-07 3.66576e-06 1.78432e-05 7.84734e-05 0.000309035 0.00107795 0.00328848 0.00866136 0.0195131 0.0376141 0.0629426 0.0938721 0.128483 0.16539 0.20379 0.243144 0.28312 0.323575 0.364459 0.405787 0.447493 0.488043 0.527961 0.567107 0.606162 0.643959 0.681936 0.718443 0.754082 0.789212 0.820483 0.851495 0.876685 0.896186 0.91311 0.921957 0.926684 0.930833 0.931851 0.931672 0.9316 0.931582 0.931473 0.931184 0.930757 0.9303 0.929935 0.929656 0.929413 0.92919 0.928998 0.928843 0.928721 0.928619 0.928531 0.928447 0.928355 0.92824 0.92808 0.927816 0.927305 0.926252 0.924055 0.919521 0.910401 0.892756 0.860467 0.805688 0.721326 0.605634 0.468007 0.326772 0.202795 0.109855 0.0518136 0.0218073 0.00853558 0.00321456 0.00118642 0.00043242 0.000156036 5.57723e-05 1.97409e-05 6.91582e-06 2.39661e-06 8.21078e-07 2.77958e-07 9.29345e-08 3.06766e-08 9.99321e-09 3.21117e-09 1.01797e-09 3.17821e-10 9.78907e-11 2.92739e-11 9.22256e-12 2.04613e-12 1.09398e-13 7.42619e-15 -5.40591e-13 -2.5386e-13 -6.35806e-14 -6.32297e-13 -5.90319e-13 -3.2747e-13 3.63412e-13 5.62746e-13 -7.56889e-13 2.81046e-13 -4.66634e-13 3.06726e-13 5.09561e-13 -7.00764e-13 1.6e-13 3.61838e-13 -3.70047e-13 -7.52076e-13 2.42078e-13 -1.05885e-13 4.27457e-14 -7.63985e-13 4.07653e-13 2.37273e-13 9.17746e-14 -6.80015e-13 3.47994e-13 1.16439e-12 -3.3611e-13 2.67575e-13 6.3371e-13 -5.79551e-14 -5.37228e-13 -4.10769e-13 0 0 -1.79971e-14 -1.77983e-14 -1.03671e-14 -5.35201e-14 -4.53235e-14 2.93827e-14 -2.54157e-14 6.93619e-15 -3.48891e-14 4.62617e-14 -4.45257e-14 9.96778e-14 -1.36361e-13 -1.62857e-14 -3.40983e-14 -3.52732e-14 -5.04945e-14 -7.20902e-14 -9.7477e-14 -2.86996e-14 -9.8611e-15 -1.21991e-13 -2.18323e-14 -2.52277e-14 -1.02542e-13 -1.41859e-13 -4.44717e-14 -2.04419e-13 -5.92731e-14 -2.21403e-13 -2.49484e-13 -9.67123e-14 -2.56559e-13 -3.87056e-14 -6.69112e-14 -6.32626e-14 -4.94194e-14 6.98735e-14 -9.76798e-14 3.6998e-14 -1.76105e-13 -4.79219e-14 -6.09903e-14 -1.52992e-13 1.18054e-14 -3.02122e-13 -5.19637e-14 -1.677e-13 -1.07783e-13 5.38854e-14 -2.08371e-13 -3.34639e-13 1.24861e-13 -8.43176e-14 -2.44305e-13 -1.32927e-13 -6.19538e-14 -3.88477e-14 1.99631e-13 6.01983e-13 5.34091e-12 4.6348e-11 3.65885e-10 2.70041e-09 1.8515e-08 1.1741e-07 6.8551e-07 3.66576e-06 1.78432e-05 7.84734e-05 0.000309035 0.00107795 0.00328848 0.00866136 0.0195131 0.0376141 0.0629426 0.0938721 0.128483 0.16539 0.20379 0.243144 0.28312 0.323575 0.364459 0.405787 0.447493 0.488043 0.527961 0.567107 0.606162 0.643959 0.681936 0.718443 0.754082 0.789212 0.820483 0.851495 0.876685 0.896186 0.91311 0.921957 0.926684 0.930833 0.931851 0.931672 0.9316 0.931582 0.931473 0.931184 0.930757 0.9303 0.929935 0.929656 0.929413 0.92919 0.928998 0.928843 0.928721 0.928619 0.928531 0.928447 0.928355 0.92824 0.92808 0.927816 0.927305 0.926252 0.924055 0.919521 0.910401 0.892756 0.860467 0.805688 0.721326 0.605634 0.468007 0.326772 0.202795 0.109855 0.0518136 0.0218073 0.00853558 0.00321456 0.00118642 0.00043242 0.000156036 5.57723e-05 1.97409e-05 6.91582e-06 2.39661e-06 8.21078e-07 2.77958e-07 9.29351e-08 3.06763e-08 9.99298e-09 3.21195e-09 1.01777e-09 3.18163e-10 9.76443e-11 2.94653e-11 8.36842e-12 2.44576e-12 5.69256e-13 -1.62944e-13 -5.36003e-13 -2.67454e-13 -7.51398e-13 -2.38653e-13 -2.27111e-14 -2.4716e-13 -4.10694e-13 -3.028e-13 5.33665e-13 -2.91101e-13 5.34028e-13 -1.53161e-13 -3.36773e-13 2.11632e-13 1.90577e-13 -2.43321e-13 -3.05236e-13 1.66043e-14 -4.93985e-13 5.90002e-15 -4.31776e-13 2.79256e-13 -6.18698e-13 1.67922e-13 2.1154e-13 1.62144e-13 2.3204e-13 -2.00463e-13 7.92013e-13 2.43596e-14 -2.01071e-13 7.78985e-14 1.99186e-13 2.59698e-13 0 0 -1.34114e-14 -2.69035e-14 -4.24328e-14 -8.17736e-15 -3.58986e-14 -4.484e-14 -1.63563e-14 -2.84505e-15 -3.48224e-14 -2.00929e-14 4.38431e-14 -7.59737e-15 3.56738e-14 -4.83384e-14 -4.43296e-15 -8.92758e-14 1.05464e-14 -7.00274e-14 1.62004e-14 -1.15214e-13 -8.30358e-14 -6.4534e-14 -8.62684e-14 -1.08171e-13 -3.03839e-14 -9.95457e-14 -1.74482e-13 -6.40032e-14 -1.40857e-13 -1.14417e-13 -1.70814e-13 -2.35134e-13 -5.61355e-14 -1.19537e-13 -8.82473e-14 -4.11604e-14 -3.99569e-14 -9.36025e-14 -9.31994e-14 -2.4485e-14 -3.93405e-14 -6.28396e-14 -2.46877e-13 1.18756e-14 -1.24262e-13 -9.15197e-14 -1.80079e-13 -8.06256e-14 -1.86154e-14 -9.82578e-14 -1.00505e-13 -1.39829e-14 -1.16295e-13 -1.37957e-13 -1.44204e-13 -1.75113e-13 -1.24192e-13 6.26429e-14 6.12146e-14 6.84215e-13 5.70091e-12 4.6158e-11 3.65857e-10 2.70048e-09 1.85152e-08 1.1741e-07 6.8551e-07 3.66576e-06 1.78432e-05 7.84734e-05 0.000309035 0.00107795 0.00328848 0.00866136 0.0195131 0.0376141 0.0629426 0.0938721 0.128483 0.16539 0.20379 0.243144 0.28312 0.323575 0.364459 0.405787 0.447493 0.488043 0.527961 0.567107 0.606162 0.643959 0.681936 0.718443 0.754082 0.789212 0.820483 0.851495 0.876685 0.896186 0.91311 0.921957 0.926684 0.930833 0.931851 0.931672 0.9316 0.931582 0.931473 0.931184 0.930757 0.9303 0.929935 0.929656 0.929413 0.92919 0.928998 0.928843 0.928721 0.928619 0.928531 0.928447 0.928355 0.92824 0.92808 0.927816 0.927305 0.926252 0.924055 0.919521 0.910401 0.892756 0.860467 0.805688 0.721326 0.605634 0.468007 0.326772 0.202795 0.109855 0.0518136 0.0218073 0.00853558 0.00321456 0.00118642 0.00043242 0.000156036 5.57723e-05 1.97409e-05 6.91582e-06 2.39661e-06 8.21078e-07 2.77958e-07 9.29349e-08 3.06767e-08 9.99337e-09 3.21183e-09 1.01793e-09 3.18012e-10 9.80512e-11 2.94838e-11 8.51717e-12 1.99143e-12 4.58463e-13 -2.97855e-14 -3.53373e-13 -5.88874e-13 -3.48668e-13 -2.77037e-13 -3.11605e-13 -2.54234e-13 -2.01165e-13 -7.87118e-14 -3.46854e-14 2.27415e-13 -3.29254e-13 4.33836e-13 -2.23585e-13 -1.65827e-13 -2.39348e-13 -1.90188e-13 -1.58421e-13 7.74698e-14 -3.32442e-13 -4.80871e-13 5.53858e-14 -2.4132e-13 3.26788e-14 -2.22658e-13 -2.05488e-13 2.83598e-13 7.74902e-14 2.47863e-13 -1.91769e-13 3.11797e-13 3.39036e-13 2.77333e-14 1.42788e-13 -5.57471e-13 0 0 -1.2685e-14 -2.98118e-14 -2.48261e-14 -2.65238e-14 -2.48924e-14 -3.99027e-14 -1.72092e-14 -1.8813e-14 1.58826e-14 -3.38982e-14 -2.8851e-14 -5.26445e-14 3.28049e-14 6.60995e-14 -2.47922e-14 6.04323e-15 -7.27744e-15 2.17297e-14 4.06881e-15 -7.62642e-14 -9.30285e-14 -9.05325e-14 -1.60456e-13 -1.07444e-13 -8.77243e-14 -5.57427e-14 -1.04522e-13 -1.05452e-13 -5.46092e-14 -6.12698e-14 -1.76238e-13 -2.16666e-13 -8.66204e-14 -2.16879e-13 -4.51156e-14 -2.10454e-14 -1.43983e-13 -1.08995e-13 5.19033e-14 6.92909e-14 -6.70205e-14 6.03466e-14 -5.67958e-14 -8.65362e-14 -1.92139e-13 4.60045e-14 -3.24557e-13 -1.03639e-13 -8.75895e-14 -1.10465e-14 -6.49464e-14 6.71924e-14 -9.91471e-14 -4.41243e-14 -1.73693e-13 -1.56232e-13 -1.33014e-13 -9.08743e-14 1.31251e-13 7.53417e-13 5.45639e-12 4.63357e-11 3.66027e-10 2.7007e-09 1.8515e-08 1.1741e-07 6.8551e-07 3.66576e-06 1.78432e-05 7.84734e-05 0.000309035 0.00107795 0.00328848 0.00866136 0.0195131 0.0376141 0.0629426 0.0938721 0.128483 0.16539 0.20379 0.243144 0.28312 0.323575 0.364459 0.405787 0.447493 0.488043 0.527961 0.567107 0.606162 0.643959 0.681936 0.718443 0.754082 0.789212 0.820483 0.851495 0.876685 0.896186 0.91311 0.921957 0.926684 0.930833 0.931851 0.931672 0.9316 0.931582 0.931473 0.931184 0.930757 0.9303 0.929935 0.929656 0.929413 0.92919 0.928998 0.928843 0.928721 0.928619 0.928531 0.928447 0.928355 0.92824 0.92808 0.927816 0.927305 0.926252 0.924055 0.919521 0.910401 0.892756 0.860467 0.805688 0.721326 0.605634 0.468007 0.326772 0.202795 0.109855 0.0518136 0.0218073 0.00853558 0.00321456 0.00118642 0.00043242 0.000156036 5.57723e-05 1.97409e-05 6.91582e-06 2.39661e-06 8.21078e-07 2.77958e-07 9.29348e-08 3.06767e-08 9.99334e-09 3.21156e-09 1.01834e-09 3.17919e-10 9.78725e-11 2.97421e-11 8.67273e-12 2.10538e-12 -1.21752e-13 2.31337e-13 -2.54095e-13 -2.30262e-13 -1.25695e-14 -5.26042e-13 -9.76888e-13 3.26282e-14 5.5763e-14 5.07226e-14 -2.53469e-13 3.03709e-13 -4.57652e-13 3.2972e-13 -1.97227e-13 -6.18648e-13 1.34933e-13 -7.74033e-13 -8.90943e-14 -3.01131e-13 2.48204e-13 -2.48896e-13 -2.12083e-13 -5.77258e-13 7.52112e-14 1.15637e-13 -2.53766e-13 9.3996e-14 2.21083e-13 8.82255e-13 -1.56864e-13 5.60391e-13 1.41722e-13 1.83311e-13 -7.41074e-13 2.61658e-13 0 0 -2.12833e-14 -1.00713e-14 5.01461e-15 -4.79426e-14 -4.10281e-14 2.28303e-14 -3.10618e-14 -2.04877e-14 -2.21761e-14 1.50825e-14 -7.83184e-14 9.22673e-14 -1.02389e-13 6.23467e-14 -1.74287e-14 4.85595e-14 -1.34227e-14 4.87236e-14 -1.18419e-13 1.16751e-14 -8.63247e-14 -2.00603e-13 -9.56993e-14 -5.75096e-15 -1.65516e-13 -1.27508e-13 2.31624e-14 -1.71252e-13 -5.30228e-14 -1.49443e-13 -1.81048e-13 3.08378e-14 -1.87868e-13 8.20926e-15 -8.49261e-14 5.20911e-14 -3.53378e-14 -3.60646e-14 -8.91879e-14 5.66305e-14 -2.07152e-13 -5.52866e-14 6.15722e-14 -2.00023e-13 -6.01524e-14 -2.50512e-13 -1.42678e-13 -1.52882e-13 -1.55722e-13 2.6117e-13 -3.27404e-14 -2.43191e-13 1.15433e-13 6.18076e-14 -2.6879e-13 -1.21163e-13 -2.22371e-13 -9.36215e-14 2.87695e-13 8.88401e-13 5.52021e-12 4.65371e-11 3.6605e-10 2.70057e-09 1.8515e-08 1.1741e-07 6.8551e-07 3.66576e-06 1.78432e-05 7.84734e-05 0.000309035 0.00107795 0.00328848 0.00866136 0.0195131 0.0376141 0.0629426 0.0938721 0.128483 0.16539 0.20379 0.243144 0.28312 0.323575 0.364459 0.405787 0.447493 0.488043 0.527961 0.567107 0.606162 0.643959 0.681936 0.718443 0.754082 0.789212 0.820483 0.851495 0.876685 0.896186 0.91311 0.921957 0.926684 0.930833 0.931851 0.931672 0.9316 0.931582 0.931473 0.931184 0.930757 0.9303 0.929935 0.929656 0.929413 0.92919 0.928998 0.928843 0.928721 0.928619 0.928531 0.928447 0.928355 0.92824 0.92808 0.927816 0.927305 0.926252 0.924055 0.919521 0.910401 0.892756 0.860467 0.805688 0.721326 0.605634 0.468007 0.326772 0.202795 0.109855 0.0518136 0.0218073 0.00853558 0.00321456 0.00118642 0.00043242 0.000156036 5.57723e-05 1.97409e-05 6.91582e-06 2.39661e-06 8.21078e-07 2.77958e-07 9.29354e-08 3.06765e-08 9.99296e-09 3.21191e-09 1.01799e-09 3.181e-10 9.78473e-11 2.94953e-11 8.47089e-12 2.64043e-12 -8.87443e-14 -1.90579e-13 -3.59481e-13 -2.03086e-13 -2.76095e-13 -2.64032e-13 -5.09037e-13 -1.80324e-13 -2.57185e-13 -2.48969e-13 2.82361e-13 2.6774e-13 3.31994e-13 -3.03793e-13 -4.30936e-13 -2.58123e-13 9.76667e-14 -6.38927e-13 -1.3171e-13 -2.82199e-13 -3.75528e-13 -1.14357e-13 -3.60645e-13 2.97553e-13 -2.78209e-13 2.92596e-13 5.82979e-14 1.44554e-13 1.70036e-13 -2.41917e-13 7.9106e-13 6.8469e-14 -6.43401e-13 1.39305e-13 -1.16264e-13 9.51859e-13 0 0 6.99764e-15 9.61357e-15 -4.57391e-14 3.60057e-14 -8.40954e-15 -7.61911e-14 -1.20523e-14 -1.51984e-14 -2.95157e-14 -7.99913e-14 1.0647e-13 -5.04528e-14 1.49765e-13 -1.51466e-13 2.90716e-14 -2.33338e-14 2.62336e-14 2.16069e-14 -3.5489e-14 -1.32763e-13 -2.42741e-13 -1.73037e-14 -8.87355e-14 -1.04373e-13 -3.90959e-14 -7.47413e-14 -1.87292e-13 1.4696e-13 -4.38755e-13 -1.3185e-13 6.81749e-14 -5.00388e-14 1.34701e-13 -9.34236e-15 -2.10125e-13 1.22347e-13 1.79842e-13 -1.78027e-13 -8.94632e-14 -2.00487e-13 4.27848e-14 -3.3881e-13 -2.12748e-13 -8.49756e-14 -2.78267e-13 -2.42959e-13 -1.05553e-13 6.71923e-14 5.3674e-14 8.58906e-15 2.45417e-13 1.09592e-13 -5.45816e-13 -2.53002e-14 -1.10976e-13 -1.26583e-13 -2.79484e-13 1.00323e-13 -2.35046e-16 9.81693e-13 6.34243e-12 4.6417e-11 3.65917e-10 2.70059e-09 1.85151e-08 1.1741e-07 6.8551e-07 3.66576e-06 1.78432e-05 7.84734e-05 0.000309035 0.00107795 0.00328848 0.00866136 0.0195131 0.0376141 0.0629426 0.0938721 0.128483 0.16539 0.20379 0.243144 0.28312 0.323575 0.364459 0.405787 0.447493 0.488043 0.527961 0.567107 0.606162 0.643959 0.681936 0.718443 0.754082 0.789212 0.820483 0.851495 0.876685 0.896186 0.91311 0.921957 0.926684 0.930833 0.931851 0.931672 0.9316 0.931582 0.931473 0.931184 0.930757 0.9303 0.929935 0.929656 0.929413 0.92919 0.928998 0.928843 0.928721 0.928619 0.928531 0.928447 0.928355 0.92824 0.92808 0.927816 0.927305 0.926252 0.924055 0.919521 0.910401 0.892756 0.860467 0.805688 0.721326 0.605634 0.468007 0.326772 0.202795 0.109855 0.0518136 0.0218073 0.00853558 0.00321456 0.00118642 0.00043242 0.000156036 5.57723e-05 1.97409e-05 6.91582e-06 2.39661e-06 8.21078e-07 2.77958e-07 9.29351e-08 3.0677e-08 9.99323e-09 3.21164e-09 1.0176e-09 3.17882e-10 9.86541e-11 2.88173e-11 9.11637e-12 2.20759e-12 -4.61728e-14 -5.70088e-13 -3.86103e-13 -8.42351e-13 2.14828e-13 -1.85044e-13 -2.32405e-13 -7.67522e-13 1.56574e-13 4.11539e-13 -8.2193e-13 1.24614e-12 -6.13906e-13 2.13697e-13 2.68519e-13 -7.34631e-13 -7.74384e-13 7.38317e-13 -1.61648e-13 -5.92481e-13 -6.82301e-13 -8.10348e-13 7.19946e-13 -5.55143e-14 1.00357e-12 -1.8997e-13 -1.18153e-13 -3.35991e-13 -6.3199e-14 -1.87306e-13 -4.07826e-13 -1.41394e-13 1.43678e-13 -2.46298e-13 5.99596e-13 -6.64706e-13 0
				</DataArray>
				<DataArray Name="VitesseY" type="Float32" format="ascii">