<?xml version="1.0"?>
<VTKFile type="PolyData">
	<PolyData>
		<Piece NumberOfPoints="1206" NumberOfPolys="1000">
			<Points>
				<DataArray type="Float32" NumberOfComponents="3" format="ascii">
 0 0 0 0.005 0 0 0.01 0 0 0.015 0 0 0.02 0 0 0.025 0 0 0.03 0 0 0.035 0 0 0.04 0 0 0.045 0 0 0.05 0 0 0.055 0 0 0.06 0 0 0.065 0 0 0.07 0 0 0.075 0 0 0.08 0 0 0.085 0 0 0.09 0 0 0.095 0 0 0.1 0 0 0.105 0 0 0.11 0 0 0.115 0 0 0.12 0 0 0.125 0 0 0.13 0 0 0.135 0 0 0.14 0 0 0.145 0 0 0.15 0 0 0.155 0 0 0.16 0 0 0.165 0 0 0.17 0 0 0.175 0 0 0.18 0 0 0.185 0 0 0.19 0 0 0.195 0 0 0.2 0 0 0.205 0 0 0.21 0 0 0.215 0 0 0.22 0 0 0.225 0 0 0.23 0 0 0.235 0 0 0.24 0 0 0.245 0 0 0.25 0 0 0.255 0 0 0.26 0 0 0.265 0 0 0.27 0 0 0.275 0 0 0.28 0 0 0.285 0 0 0.29 0 0 0.295 0 0 0.3 0 0 0.305 0 0 0.31 0 0 0.315 0 0 0.32 0 0 0.325 0 0 0.33 0 0 0.335 0 0 0.34 0 0 0.345 0 0 0.35 0 0 0.355 0 0 0.36 0 0 0.365 0 0 0.37 0 0 0.375 0 0 0.38 0 0 0.385 0 0 0.39 0 0 0.395 0 0 0.4 0 0 0.405 0 0 0.41 0 0 0.415 0 0 0.42 0 0 0.425 0 0 0.43 0 0 0.435 0 0 0.44 0 0 0.445 0 0 0.45 0 0 0.455 0 0 0.46 0 0 0.465 0 0 0.47 0 0 0.475 0 0 0.48 0 0 0.485 0 0 0.49 0 0 0.495 0 0 0.5 0 0 0.505 0 0 0.51 0 0 0.515 0 0 0.52 0 0 0.525 0 0 0.53 0 0 0.535 0 0 0.54 0 0 0.545 0 0 0.55 0 0 0.555 0 0 0.56 0 0 0.565 0 0 0.57 0 0 0.575 0 0 0.58 0 0 0.585 0 0 0.59 0 0 0.595 0 0 0.6 0 0 0.605 0 0 0.61 0 0 0.615 0 0 0.62 0 0 0.625 0 0 0.63 0 0 0.635 0 0 0.64 0 0 0.645 0 0 0.65 0 0 0.655 0 0 0.66 0 0 0.665 0 0 0.67 0 0 0.675 0 0 0.68 0 0 0.685 0 0 0.69 0 0 0.695 0 0 0.7 0 0 0.705 0 0 0.71 0 0 0.715 0 0 0.72 0 0 0.725 0 0 0.73 0 0 0.735 0 0 0.74 0 0 0.745 0 0 0.75 0 0 0.755 0 0 0.76 0 0 0.765 0 0 0.77 0 0 0.775 0 0 0.78 0 0 0.785 0 0 0.79 0 0 0.795 0 0 0.8 0 0 0.805 0 0 0.81 0 0 0.815 0 0 0.82 0 0 0.825 0 0 0.83 0 0 0.835 0 0 0.84 0 0 0.845 0 0 0.85 0 0 0.855 0 0 0.86 0 0 0.865 0 0 0.87 0 0 0.875 0 0 0.88 0 0 0.885 0 0 0.89 0 0 0.895 0 0 0.9 0 0 0.905 0 0 0.91 0 0 0.915 0 0 0.92 0 0 0.925 0 0 0.93 0 0 0.935 0 0 0.94 0 0 0.945 0 0 0.95 0 0 0.955 0 0 0.96 0 0 0.965 0 0 0.97 0 0 0.975 0 0 0.98 0 0 0.985 0 0 0.99 0 0 0.995 0 0 1 0 0 0 0.02 0 0.005 0.02 0 0.01 0.02 0 0.015 0.02 0 0.02 0.02 0 0.025 0.02 0 0.03 0.02 0 0.035 0.02 0 0.04 0.02 0 0.045 0.02 0 0.05 0.02 0 0.055 0.02 0 0.06 0.02 0 0.065 0.02 0 0.07 0.02 0 0.075 0.02 0 0.08 0.02 0 0.085 0.02 0 0.09 0.02 0 0.095 0.02 0 0.1 0.02 0 0.105 0.02 0 0.11 0.02 0 0.115 0.02 0 0.12 0.02 0 0.125 0.02 0 0.13 0.02 0 0.135 0.02 0 0.14 0.02 0 0.145 0.02 0 0.15 0.02 0 0.155 0.02 0 0.16 0.02 0 0.165 0.02 0 0.17 0.02 0 0.175 0.02 0 0.18 0.02 0 0.185 0.02 0 0.19 0.02 0 0.195 0.02 0 0.2 0.02 0 0.205 0.02 0 0.21 0.02 0 0.215 0.02 0 0.22 0.02 0 0.225 0.02 0 0.23 0.02 0 0.235 0.02 0 0.24 0.02 0 0.245 0.02 0 0.25 0.02 0 0.255 0.02 0 0.26 0.02 0 0.265 0.02 0 0.27 0.02 0 0.275 0.02 0 0.28 0.02 0 0.285 0.02 0 0.29 0.02 0 0.295 0.02 0 0.3 0.02 0 0.305 0.02 0 0.31 0.02 0 0.315 0.02 0 0.32 0.02 0 0.325 0.02 0 0.33 0.02 0 0.335 0.02 0 0.34 0.02 0 0.345 0.02 0 0.35 0.02 0 0.355 0.02 0 0.36 0.02 0 0.365 0.02 0 0.37 0.02 0 0.375 0.02 0 0.38 0.02 0 0.385 0.02 0 0.39 0.02 0 0.395 0.02 0 0.4 0.02 0 0.405 0.02 0 0.41 0.02 0 0.415 0.02 0 0.42 0.02 0 0.425 0.02 0 0.43 0.02 0 0.435 0.02 0 0.44 0.02 0 0.445 0.02 0 0.45 0.02 0 0.455 0.02 0 0.46 0.02 0 0.465 0.02 0 0.47 0.02 0 0.475 0.02 0 0.48 0.02 0 0.485 0.02 0 0.49 0.02 0 0.495 0.02 0 0.5 0.02 0 0.505 0.02 0 0.51 0.02 0 0.515 0.02 0 0.52 0.02 0 0.525 0.02 0 0.53 0.02 0 0.535 0.02 0 0.54 0.02 0 0.545 0.02 0 0.55 0.02 0 0.555 0.02 0 0.56 0.02 0 0.565 0.02 0 0.57 0.02 0 0.575 0.02 0 0.58 0.02 0 0.585 0.02 0 0.59 0.02 0 0.595 0.02 0 0.6 0.02 0 0.605 0.02 0 0.61 0.02 0 0.615 0.02 0 0.62 0.02 0 0.625 0.02 0 0.63 0.02 0 0.635 0.02 0 0.64 0.02 0 0.645 0.02 0 0.65 0.02 0 0.655 0.02 0 0.66 0.02 0 0.665 0.02 0 0.67 0.02 0 0.675 0.02 0 0.68 0.02 0 0.685 0.02 0 0.69 0.02 0 0.695 0.02 0 0.7 0.02 0 0.705 0.02 0 0.71 0.02 0 0.715 0.02 0 0.72 0.02 0 0.725 0.02 0 0.73 0.02 0 0.735 0.02 0 0.74 0.02 0 0.745 0.02 0 0.75 0.02 0 0.755 0.02 0 0.76 0.02 0 0.765 0.02 0 0.77 0.02 0 0.775 0.02 0 0.78 0.02 0 0.785 0.02 0 0.79 0.02 0 0.795 0.02 0 0.8 0.02 0 0.805 0.02 0 0.81 0.02 0 0.815 0.02 0 0.82 0.02 0 0.825 0.02 0 0.83 0.02 0 0.835 0.02 0 0.84 0.02 0 0.845 0.02 0 0.85 0.02 0 0.855 0.02 0 0.86 0.02 0 0.865 0.02 0 0.87 0.02 0 0.875 0.02 0 0.88 0.02 0 0.885 0.02 0 0.89 0.02 0 0.895 0.02 0 0.9 0.02 0 0.905 0.02 0 0.91 0.02 0 0.915 0.02 0 0.92 0.02 0 0.925 0.02 0 0.93 0.02 0 0.935 0.02 0 0.94 0.02 0 0.945 0.02 0 0.95 0.02 0 0.955 0.02 0 0.96 0.02 0 0.965 0.02 0 0.97 0.02 0 0.975 0.02 0 0.98 0.02 0 0.985 0.02 0 0.99 0.02 0 0.995 0.02 0 1 0.02 0 0 0.04 0 0.005 0.04 0 0.01 0.04 0 0.015 0.04 0 0.02 0.04 0 0.025 0.04 0 0.03 0.04 0 0.035 0.04 0 0.04 0.04 0 0.045 0.04 0 0.05 0.04 0 0.055 0.04 0 0.06 0.04 0 0.065 0.04 0 0.07 0.04 0 0.075 0.04 0 0.08 0.04 0 0.085 0.04 0 0.09 0.04 0 0.095 0.04 0 0.1 0.04 0 0.105 0.04 0 0.11 0.04 0 0.115 0.04 0 0.12 0.04 0 0.125 0.04 0 0.13 0.04 0 0.135 0.04 0 0.14 0.04 0 0.145 0.04 0 0.15 0.04 0 0.155 0.04 0 0.16 0.04 0 0.165 0.04 0 0.17 0.04 0 0.175 0.04 0 0.18 0.04 0 0.185 0.04 0 0.19 0.04 0 0.195 0.04 0 0.2 0.04 0 0.205 0.04 0 0.21 0.04 0 0.215 0.04 0 0.22 0.04 0 0.225 0.04 0 0.23 0.04 0 0.235 0.04 0 0.24 0.04 0 0.245 0.04 0 0.25 0.04 0 0.255 0.04 0 0.26 0.04 0 0.265 0.04 0 0.27 0.04 0 0.275 0.04 0 0.28 0.04 0 0.285 0.04 0 0.29 0.04 0 0.295 0.04 0 0.3 0.04 0 0.305 0.04 0 0.31 0.04 0 0.315 0.04 0 0.32 0.04 0 0.325 0.04 0 0.33 0.04 0 0.335 0.04 0 0.34 0.04 0 0.345 0.04 0 0.35 0.04 0 0.355 0.04 0 0.36 0.04 0 0.365 0.04 0 0.37 0.04 0 0.375 0.04 0 0.38 0.04 0 0.385 0.04 0 0.39 0.04 0 0.395 0.04 0 0.4 0.04 0 0.405 0.04 0 0.41 0.04 0 0.415 0.04 0 0.42 0.04 0 0.425 0.04 0 0.43 0.04 0 0.435 0.04 0 0.44 0.04 0 0.445 0.04 0 0.45 0.04 0 0.455 0.04 0 0.46 0.04 0 0.465 0.04 0 0.47 0.04 0 0.475 0.04 0 0.48 0.04 0 0.485 0.04 0 0.49 0.04 0 0.495 0.04 0 0.5 0.04 0 0.505 0.04 0 0.51 0.04 0 0.515 0.04 0 0.52 0.04 0 0.525 0.04 0 0.53 0.04 0 0.535 0.04 0 0.54 0.04 0 0.545 0.04 0 0.55 0.04 0 0.555 0.04 0 0.56 0.04 0 0.565 0.04 0 0.57 0.04 0 0.575 0.04 0 0.58 0.04 0 0.585 0.04 0 0.59 0.04 0 0.595 0.04 0 0.6 0.04 0 0.605 0.04 0 0.61 0.04 0 0.615 0.04 0 0.62 0.04 0 0.625 0.04 0 0.63 0.04 0 0.635 0.04 0 0.64 0.04 0 0.645 0.04 0 0.65 0.04 0 0.655 0.04 0 0.66 0.04 0 0.665 0.04 0 0.67 0.04 0 0.675 0.04 0 0.68 0.04 0 0.685 0.04 0 0.69 0.04 0 0.695 0.04 0 0.7 0.04 0 0.705 0.04 0 0.71 0.04 0 0.715 0.04 0 0.72 0.04 0 0.725 0.04 0 0.73 0.04 0 0.735 0.04 0 0.74 0.04 0 0.745 0.04 0 0.75 0.04 0 0.755 0.04 0 0.76 0.04 0 0.765 0.04 0 0.77 0.04 0 0.775 0.04 0 0.78 0.04 0 0.785 0.04 0 0.79 0.04 0 0.795 0.04 0 0.8 0.04 0 0.805 0.04 0 0.81 0.04 0 0.815 0.04 0 0.82 0.04 0 0.825 0.04 0 0.83 0.04 0 0.835 0.04 0 0.84 0.04 0 0.845 0.04 0 0.85 0.04 0 0.855 0.04 0 0.86 0.04 0 0.865 0.04 0 0.87 0.04 0 0.875 0.04 0 0.88 0.04 0 0.885 0.04 0 0.89 0.04 0 0.895 0.04 0 0.9 0.04 0 0.905 0.04 0 0.91 0.04 0 0.915 0.04 0 0.92 0.04 0 0.925 0.04 0 0.93 0.04 0 0.935 0.04 0 0.94 0.04 0 0.945 0.04 0 0.95 0.04 0 0.955 0.04 0 0.96 0.04 0 0.965 0.04 0 0.97 0.04 0 0.975 0.04 0 0.98 0.04 0 0.985 0.04 0 0.99 0.04 0 0.995 0.04 0 1 0.04 0 0 0.06 0 0.005 0.06 0 0.01 0.06 0 0.015 0.06 0 0.02 0.06 0 0.025 0.06 0 0.03 0.06 0 0.035 0.06 0 0.04 0.06 0 0.045 0.06 0 0.05 0.06 0 0.055 0.06 0 0.06 0.06 0 0.065 0.06 0 0.07 0.06 0 0.075 0.06 0 0.08 0.06 0 0.085 0.06 0 0.09 0.06 0 0.095 0.06 0 0.1 0.06 0 0.105 0.06 0 0.11 0.06 0 0.115 0.06 0 0.12 0.06 0 0.125 0.06 0 0.13 0.06 0 0.135 0.06 0 0.14 0.06 0 0.145 0.06 0 0.15 0.06 0 0.155 0.06 0 0.16 0.06 0 0.165 0.06 0 0.17 0.06 0 0.175 0.06 0 0.18 0.06 0 0.185 0.06 0 0.19 0.06 0 0.195 0.06 0 0.2 0.06 0 0.205 0.06 0 0.21 0.06 0 0.215 0.06 0 0.22 0.06 0 0.225 0.06 0 0.23 0.06 0 0.235 0.06 0 0.24 0.06 0 0.245 0.06 0 0.25 0.06 0 0.255 0.06 0 0.26 0.06 0 0.265 0.06 0 0.27 0.06 0 0.275 0.06 0 0.28 0.06 0 0.285 0.06 0 0.29 0.06 0 0.295 0.06 0 0.3 0.06 0 0.305 0.06 0 0.31 0.06 0 0.315 0.06 0 0.32 0.06 0 0.325 0.06 0 0.33 0.06 0 0.335 0.06 0 0.34 0.06 0 0.345 0.06 0 0.35 0.06 0 0.355 0.06 0 0.36 0.06 0 0.365 0.06 0 0.37 0.06 0 0.375 0.06 0 0.38 0.06 0 0.385 0.06 0 0.39 0.06 0 0.395 0.06 0 0.4 0.06 0 0.405 0.06 0 0.41 0.06 0 0.415 0.06 0 0.42 0.06 0 0.425 0.06 0 0.43 0.06 0 0.435 0.06 0 0.44 0.06 0 0.445 0.06 0 0.45 0.06 0 0.455 0.06 0 0.46 0.06 0 0.465 0.06 0 0.47 0.06 0 0.475 0.06 0 0.48 0.06 0 0.485 0.06 0 0.49 0.06 0 0.495 0.06 0 0.5 0.06 0 0.505 0.06 0 0.51 0.06 0 0.515 0.06 0 0.52 0.06 0 0.525 0.06 0 0.53 0.06 0 0.535 0.06 0 0.54 0.06 0 0.545 0.06 0 0.55 0.06 0 0.555 0.06 0 0.56 0.06 0 0.565 0.06 0 0.57 0.06 0 0.575 0.06 0 0.58 0.06 0 0.585 0.06 0 0.59 0.06 0 0.595 0.06 0 0.6 0.06 0 0.605 0.06 0 0.61 0.06 0 0.615 0.06 0 0.62 0.06 0 0.625 0.06 0 0.63 0.06 0 0.635 0.06 0 0.64 0.06 0 0.645 0.06 0 0.65 0.06 0 0.655 0.06 0 0.66 0.06 0 0.665 0.06 0 0.67 0.06 0 0.675 0.06 0 0.68 0.06 0 0.685 0.06 0 0.69 0.06 0 0.695 0.06 0 0.7 0.06 0 0.705 0.06 0 0.71 0.06 0 0.715 0.06 0 0.72 0.06 0 0.725 0.06 0 0.73 0.06 0 0.735 0.06 0 0.74 0.06 0 0.745 0.06 0 0.75 0.06 0 0.755 0.06 0 0.76 0.06 0 0.765 0.06 0 0.77 0.06 0 0.775 0.06 0 0.78 0.06 0 0.785 0.06 0 0.79 0.06 0 0.795 0.06 0 0.8 0.06 0 0.805 0.06 0 0.81 0.06 0 0.815 0.06 0 0.82 0.06 0 0.825 0.06 0 0.83 0.06 0 0.835 0.06 0 0.84 0.06 0 0.845 0.06 0 0.85 0.06 0 0.855 0.06 0 0.86 0.06 0 0.865 0.06 0 0.87 0.06 0 0.875 0.06 0 0.88 0.06 0 0.885 0.06 0 0.89 0.06 0 0.895 0.06 0 0.9 0.06 0 0.905 0.06 0 0.91 0.06 0 0.915 0.06 0 0.92 0.06 0 0.925 0.06 0 0.93 0.06 0 0.935 0.06 0 0.94 0.06 0 0.945 0.06 0 0.95 0.06 0 0.955 0.06 0 0.96 0.06 0 0.965 0.06 0 0.97 0.06 0 0.975 0.06 0 0.98 0.06 0 0.985 0.06 0 0.99 0.06 0 0.995 0.06 0 1 0.06 0 0 0.08 0 0.005 0.08 0 0.01 0.08 0 0.015 0.08 0 0.02 0.08 0 0.025 0.08 0 0.03 0.08 0 0.035 0.08 0 0.04 0.08 0 0.045 0.08 0 0.05 0.08 0 0.055 0.08 0 0.06 0.08 0 0.065 0.08 0 0.07 0.08 0 0.075 0.08 0 0.08 0.08 0 0.085 0.08 0 0.09 0.08 0 0.095 0.08 0 0.1 0.08 0 0.105 0.08 0 0.11 0.08 0 0.115 0.08 0 0.12 0.08 0 0.125 0.08 0 0.13 0.08 0 0.135 0.08 0 0.14 0.08 0 0.145 0.08 0 0.15 0.08 0 0.155 0.08 0 0.16 0.08 0 0.165 0.08 0
[...]
			<PointData Scalars="VitesseX">
				<DataArray Name="VitesseX" type="Float32" format="ascii">
 0 5.16249e-16 -1.53788e-14 -1.59608e-14 -1.80811e-15 -2.54758e-14 -6.46515e-14 1.82032e-14 -1.43139e-14 1.67807e-15 -3.26698e-14 -2.48437e-14 -8.51976e-14 2.38116e-14 -6.85816e-14 2.70742e-14 -1.10008e-13 9.20104e-14 -1.29934e-13 3.0509e-14 -1.28363e-13 2.71056e-14 -7.75521e-14 2.21051e-14 -1.90848e-13 -3.97779e-14 5.35037e-14 -2.44732e-13 -1.67821e-13 -2.38825e-13 -2.32485e-14 -3.043e-13 -7.33144e-14 -5.28359e-14 -1.67012e-13 -1.49314e-13 6.69125e-14 7.35583e-14 -7.10583e-15 -2.01276e-13 3.65343e-14 -1.36227e-13 -1.536e-13 -2.03538e-13 -1.71347e-13 -8.938e-14 -3.80754e-14 -1.47478e-13 -9.31842e-14 -1.70486e-13 -1.23452e-13 3.85132e-14 -1.61184e-13 -1.57694e-14 -6.62073e-13 2.17681e-13 1.96769e-13 1.50275e-13 3.83609e-12 2.9803e-11 2.26559e-10 1.60136e-09 1.0563e-08 6.48157e-08 3.68326e-07 1.92967e-06 9.27092e-06 4.05904e-05 0.000160731 0.000570403 0.00179459 0.00494633 0.0118163 0.024341 0.0434795 0.0685786 0.0980197 0.130258 0.164255 0.199412 0.235306 0.271693 0.308456 0.345548 0.382963 0.420724 0.458559 0.495095 0.531715 0.567324 0.60304 0.637947 0.6725 0.706781 0.739537 0.772589 0.803158 0.83257 0.859965 0.881505 0.900736 0.914531 0.921842 0.927924 0.930891 0.931114 0.931397 0.931688 0.931637 0.9314 0.931023 0.930609 0.930257 0.929961 0.929681 0.929412 0.929178 0.928988 0.928834 0.928705 0.928595 0.928499 0.928417 0.928347 0.928286 0.928229 0.928165 0.928083 0.927966 0.927771 0.927394 0.926626 0.925038 0.921773 0.915188 0.902304 0.87819 0.835819 0.767339 0.667734 0.539973 0.398585 0.26397 0.1541 0.0783151 0.0350027 0.0142527 0.00550325 0.00206892 0.000766855 0.000281597 0.000102593 3.70887e-05 1.32995e-05 4.72789e-06 1.6653e-06 5.80859e-07 2.00529e-07 6.84859e-08 2.31292e-08 7.72138e-09 2.54662e-09 8.29747e-10 2.66712e-10 8.41663e-11 2.61669e-11 7.3827e-12 2.17028e-12 6.47482e-13 -7.17165e-13 -7.72855e-14 3.71346e-14 1.41915e-13 1.6041e-14 -4.35403e-14 5.36822e-14 -4.79379e-13 1.1389e-13 -1.19039e-13 5.80774e-14 -1.86011e-13 -1.92179e-13 5.79526e-14 -5.69791e-13 2.28387e-13 -6.2819e-13 4.95549e-13 -3.47695e-13 3.48882e-13 -4.56986e-13 4.32907e-13 2.39749e-13 3.48494e-13 6.14632e-13 -2.12781e-13 7.21321e-13 1.47568e-13 -6.01799e-13 4.69918e-13 -1.28666e-14 0 0 -2.20343e-14 -2.01329e-14 -2.67075e-14 -2.65036e-14 -1.54884e-14 2.08748e-14 -4.71258e-14 -3.08881e-15 -1.00795e-14 -2.59352e-14 -7.66857e-15 1.56654e-14 -9.6735e-14 -1.72595e-14 -4.63598e-14 3.79822e-14 -1.21769e-13 3.14521e-14 -1.08756e-13 -3.03773e-14 -3.79232e-14 -2.78756e-14 -1.54458e-13 1.01077e-13 -9.1592e-14 -2.66734e-13 -8.12282e-14 -9.66882e-14 -1.49798e-13 -2.20332e-13 -1.12177e-13 -1.80141e-13 -1.49363e-13 -2.21385e-14 -3.72335e-14 -4.27091e-14 5.81439e-14 -1.11172e-13 -3.56595e-14 -2.31699e-13 -1.3328e-13 -1.55518e-13 -3.07303e-14 -5.83543e-14 -2.85358e-13 -3.66995e-14 3.58945e-14 2.10291e-14 -5.54021e-14 -4.33899e-14 -3.53406e-13 -1.16741e-13 -3.67842e-13 3.54071e-13 -3.08726e-13 -8.87505e-14 6.16769e-13 3.59441e-12 3.01489e-11 2.26476e-10 1.60074e-09 1.05635e-08 6.48154e-08 3.68326e-07 1.92967e-06 9.27092e-06 4.05904e-05 0.000160731 0.000570403 0.00179459 0.00494633 0.0118163 0.024341 0.0434795 0.0685786 0.0980197 0.130258 0.164255 0.199412 0.235306 0.271693 0.308456 0.345548 0.382963 0.420724 0.458559 0.495095 0.531715 0.567324 0.60304 0.637947 0.6725 0.706781 0.739537 0.772589 0.803158 0.83257 0.859965 0.881505 0.900736 0.914531 0.921842 0.927924 0.930891 0.931114 0.931397 0.931688 0.931637 0.9314 0.931023 0.930609 0.930257 0.929961 0.929681 0.929412 0.929178 0.928988 0.928834 0.928705 0.928595 0.928499 0.928417 0.928347 0.928286 0.928229 0.928165 0.928083 0.927966 0.927771 0.927394 0.926626 0.925038 0.921773 0.915188 0.902304 0.87819 0.835819 0.767339 0.667734 0.539973 0.398585 0.26397 0.1541 0.0783151 0.0350027 0.0142527 0.00550325 0.00206892 0.000766855 0.000281597 0.000102593 3.70887e-05 1.32995e-05 4.72789e-06 1.6653e-06 5.8086e-07 2.00528e-07 6.84862e-08 2.31292e-08 7.72108e-09 2.54696e-09 8.29644e-10 2.66489e-10 8.44601e-11 2.59265e-11 7.84576e-12 1.94373e-12 6.13801e-15 2.00147e-13 -2.54202e-13 5.76761e-15 -6.09e-14 -2.36553e-13 2.24674e-13 -2.58386e-13 1.99538e-13 -5.14381e-13 6.49551e-15 1.7014e-13 1.2787e-13 -4.34763e-13 2.27069e-14 -2.43258e-13 -3.04415e-13 -2.11697e-13 -6.20293e-13 1.98938e-13 -2.03909e-13 4.93985e-13 -1.44365e-13 4.64763e-13 4.93347e-13 -2.26214e-13 6.2271e-13 -1.44104e-13 -1.71367e-13 5.11513e-13 3.55654e-14 -2.39342e-13 0 0 -1.00977e-14 -2.26866e-14 -2.08721e-14 -2.84342e-14 -9.22332e-15 -1.0438e-14 -1.74212e-14 -5.99769e-14 4.16047e-14 -1.62837e-14 -2.80328e-15 -1.91606e-14 4.03571e-14 -6.73717e-14 2.47003e-15 -3.33991e-14 -2.6852e-14 -9.60485e-14 -5.40143e-14 -5.21794e-14 -1.23253e-14 -7.40915e-14 -3.1533e-14 -1.16847e-13 -1.8921e-13 -2.86359e-14 -6.23352e-14 -2.33973e-13 -1.6988e-13 -6.85764e-14 -6.17672e-14 -1.25574e-13 -1.79004e-13 -1.58136e-13 -3.44428e-14 1.59794e-14 -6.77849e-14 -6.43988e-14 -1.47206e-13 -1.19592e-14 -1.50294e-13 -1.38721e-13 -1.03744e-13 -1.27478e-13 1.3468e-14 -5.79729e-14 3.68548e-14 -6.31257e-14 -1.26026e-13 -1.61237e-13 1.09613e-13 -9.89303e-14 -1.51211e-13 -2.99478e-13 -4.49516e-14 5.3667e-15 3.72456e-13 3.96068e-12 3.00834e-11 2.26512e-10 1.60081e-09 1.05633e-08 6.48155e-08 3.68326e-07 1.92967e-06 9.27092e-06 4.05904e-05 0.000160731 0.000570403 0.00179459 0.00494633 0.0118163 0.024341 0.0434795 0.0685786 0.0980197 0.130258 0.164255 0.199412 0.235306 0.271693 0.308456 0.345548 0.382963 0.420724 0.458559 0.495095 0.531715 0.567324 0.60304 0.637947 0.6725 0.706781 0.739537 0.772589 0.803158 0.83257 0.859965 0.881505 0.900736 0.914531 0.921842 0.927924 0.930891 0.931114 0.931397 0.931688 0.931637 0.9314 0.931023 0.930609 0.930257 0.929961 0.929681 0.929412 0.929178 0.928988 0.928834 0.928705 0.928595 0.928499 0.928417 0.928347 0.928286 0.928229 0.928165 0.928083 0.927966 0.927771 0.927394 0.926626 0.925038 0.921773 0.915188 0.902304 0.87819 0.835819 0.767339 0.667734 0.539973 0.398585 0.26397 0.1541 0.0783151 0.0350027 0.0142527 0.00550325 0.00206892 0.000766855 0.000281597 0.000102593 3.70887e-05 1.32995e-05 4.72789e-06 1.6653e-06 5.8086e-07 2.00529e-07 6.84862e-08 2.31293e-08 7.72122e-09 2.54672e-09 8.29669e-10 2.67132e-10 8.40667e-11 2.62003e-11 7.48371e-12 2.26995e-12 3.04094e-13 -1.32769e-13 -2.3502e-13 -1.79839e-13 4.37199e-14 1.87778e-13 -4.04678e-13 -7.53585e-14 -1.99229e-13 1.82573e-14 7.59528e-14 -3.62663e-13 -3.01359e-13 6.93365e-14 -3.9379e-13 -2.33816e-13 -3.94184e-13 -4.8429e-13 2.60451e-13 -3.28346e-13 -1.50508e-13 2.40873e-13 2.19306e-13 3.85315e-14 -1.96341e-13 4.42961e-13 2.54006e-13 -1.43326e-13 4.69964e-13 -2.05154e-13 2.50088e-13 -2.33761e-13 0 0 8.27138e-15 3.67707e-15 2.7728e-15 -2.52703e-15 -1.90641e-14 -8.4779e-15 -2.4683e-15 -4.63713e-14 -3.95e-14 -1.33809e-14 5.36438e-15 -1.15889e-14 1.6567e-14 4.6608e-15 3.57022e-14 -3.38541e-14 1.54439e-14 -8.13828e-14 -2.87667e-14 -6.7832e-14 -7.94156e-14 -1.43487e-13 -2.75842e-14 -1.50328e-13 -6.53589e-14 -3.20744e-14 -1.83482e-13 -1.90085e-13 1.79942e-14 -3.504e-14 -8.44969e-14 -9.93103e-14 -2.05036e-13 -1.41298e-13 -6.898e-14 -5.75817e-14 -5.79154e-14 8.62295e-15 -1.95744e-14 -1.53098e-13 -6.8905e-14 -4.50558e-14 -1.61901e-13 -6.1278e-14 4.18014e-14 -2.46279e-13 -2.54264e-13 2.87963e-14 1.39589e-13 -8.75094e-14 1.17308e-13 -1.76637e-13 -4.58878e-14 -3.02607e-13 -8.48832e-14 5.43958e-14 5.00155e-13 3.93743e-12 3.00168e-11 2.26483e-10 1.60106e-09 1.05634e-08 6.48155e-08 3.68326e-07 1.92967e-06 9.27092e-06 4.05904e-05 0.000160731 0.000570403 0.00179459 0.00494633 0.0118163 0.024341 0.0434795 0.0685786 0.0980197 0.130258 0.164255 0.199412 0.235306 0.271693 0.308456 0.345548 0.382963 0.420724 0.458559 0.495095 0.531715 0.567324 0.60304 0.637947 0.6725 0.706781 0.739537 0.772589 0.803158 0.83257 0.859965 0.881505 0.900736 0.914531 0.921842 0.927924 0.930891 0.931114 0.931397 0.931688 0.931637 0.9314 0.931023 0.930609 0.930257 0.929961 0.929681 0.929412 0.929178 0.928988 0.928834 0.928705 0.928595 0.928499 0.928417 0.928347 0.928286 0.928229 0.928165 0.928083 0.927966 0.927771 0.927394 0.926626 0.925038 0.921773 0.915188 0.902304 0.87819 0.835819 0.767339 0.667734 0.539973 0.398585 0.26397 0.1541 0.0783151 0.0350027 0.0142527 0.00550325 0.00206892 0.000766855 0.000281597 0.000102593 3.70887e-05 1.32995e-05 4.72789e-06 1.6653e-06 5.8086e-07 2.00529e-07 6.84862e-08 2.31295e-08 7.72134e-09 2.54681e-09 8.29739e-10 2.66663e-10 8.45945e-11 2.60767e-11 7.66358e-12 2.06147e-12 3.56265e-13 -6.3341e-13 9.20221e-14 -8.06051e-14 -1.84398e-14 -5.87982e-14 1.16093e-13 -1.48099e-13 -2.47733e-14 -1.17007e-14 -3.65495e-13 -2.5868e-13 -5.12537e-13 -1.55816e-13 -2.4951e-13 -8.21764e-13 2.11026e-13 -1.31747e-13 -2.82271e-13 2.95485e-13 1.00066e-13 -7.00166e-13 3.45808e-13 3.8803e-13 3.14661e-13 2.2015e-13 1.88874e-13 2.46215e-13 -9.36447e-14 -2.82657e-13 -1.04663e-13 8.81989e-13 0 0 -1.47111e-15 1.20789e-14 4.14322e-15 4.1379e-15 -1.74863e-14 2.60529e-14 -3.61744e-14 1.11469e-14 -3.92467e-14 -3.03414e-14 -1.36306e-14 2.20795e-14 -8.74054e-14 2.71674e-14 -6.00359e-15 6.9306e-14 -1.08307e-13 2.38819e-14 -1.07208e-13 -6.07931e-14 -1.05415e-13 -7.28882e-14 -1.89346e-13 5.87036e-14 6.35118e-15 -1.75107e-13 -9.80164e-14 -5.00258e-14 -5.18141e-14 -1.06822e-13 -1.31169e-13 -8.44735e-14 -1.13531e-13 5.51551e-14 -2.33695e-14 -1.15786e-13 1.97584e-14 -9.54189e-15 3.82325e-14 -3.66837e-13 -1.39014e-13 -6.60314e-14 -7.15229e-14 -2.78943e-14 -2.98393e-13 -1.8404e-13 -1.69247e-13 1.14649e-13 2.47286e-13 2.08519e-14 -3.50598e-13 -1.02712e-13 -3.21511e-13 3.8159e-13 -2.90781e-13 -3.63587e-14 7.97052e-13 3.81929e-12 3.03244e-11 2.26552e-10 1.60083e-09 1.05637e-08 6.48155e-08 3.68326e-07 1.92967e-06 9.27092e-06 4.05904e-05 0.000160731 0.000570403 0.00179459 0.00494633 0.0118163 0.024341 0.0434795 0.0685786 0.0980197 0.130258 0.164255 0.199412 0.235306 0.271693 0.308456 0.345548 0.382963 0.420724 0.458559 0.495095 0.531715 0.567324 0.60304 0.637947 0.6725 0.706781 0.739537 0.772589 0.803158 0.83257 0.859965 0.881505 0.900736 0.914531 0.921842 0.927924 0.930891 0.931114 0.931397 0.931688 0.931637 0.9314 0.931023 0.930609 0.930257 0.929961 0.929681 0.929412 0.929178 0.928988 0.928834 0.928705 0.928595 0.928499 0.928417 0.928347 0.928286 0.928229 0.928165 0.928083 0.927966 0.927771 0.927394 0.926626 0.925038 0.921773 0.915188 0.902304 0.87819 0.835819 0.767339 0.667734 0.539973 0.398585 0.26397 0.1541 0.0783151 0.0350027 0.0142527 0.00550325 0.00206892 0.000766855 0.000281597 0.000102593 3.70887e-05 1.32995e-05 4.72789e-06 1.6653e-06 5.8086e-07 2.00528e-07 6.84864e-08 2.31293e-08 7.72116e-09 2.5472e-09 8.29604e-10 2.66254e-10 8.48459e-11 2.56695e-11 7.98769e-12 1.8308e-12 -2.14654e-13 -6.85796e-14 7.87099e-14 -1.27204e-13 -1.8994e-13 -2.74386e-13 5.90732e-13 8.86504e-14 2.3033e-13 -4.29229e-13 -2.89203e-13 -2.40733e-13 -1.24233e-13 -7.20595e-13 -1.10516e-13 -1.17238e-13 -2.24945e-13 7.17898e-14 -6.08976e-13 6.7552e-13 -2.24432e-13 8.4266e-14 -2.63775e-13 3.4445e-13 4.57855e-13 -3.83739e-13 5.55794e-13 -2.98251e-13 -6.57933e-13 3.4471e-13 -1.91632e-13 5.59422e-13 0 0 4.90464e-15 -3.6826e-15 -1.54921e-15 7.66061e-15 -9.79014e-15 -5.82154e-14 1.02001e-14 -1.30538e-14 1.05553e-13 -4.7288e-14 -5.31031e-14 -8.75126e-14 9.00508e-14 -1.23793e-13 4.13223e-14 -4.64506e-14 3.43417e-14 -1.74406e-13 -1.68903e-14 -1.57889e-13 2.6303e-14 -2.87866e-14 -5.55677e-14 -2.08634e-13 -9.1593e-14 2.43636e-13 -3.60139e-14 -1.62274e-13 -4.18606e-13 1.367e-13 -2.96825e-13 6.5493e-14 7.08942e-14 -4.61005e-14 -5.25121e-14 6.78811e-14 -2.29516e-14 5.01106e-14 -3.08755e-13 4.85367e-14 -3.10474e-13 -1.61957e-13 -1.68809e-13 -2.42826e-13 -1.72117e-13 4.38547e-14 2.44775e-14 -8.97881e-14 -9.63411e-14 -1.42424e-13 2.8739e-14 2.22869e-14 -1.33753e-13 -6.00778e-13 3.33434e-13 2.03494e-13 2.55442e-13 4.33235e-12 3.02871e-11 2.2677e-10 1.60104e-09 1.05633e-08 6.48159e-08 3.68326e-07 1.92967e-06 9.27092e-06 4.05904e-05 0.000160731 0.000570403 0.00179459 0.00494633 0.0118163 0.024341 0.0434795 0.0685786 0.0980197 0.130258 0.164255 0.199412 0.235306 0.271693 0.308456 0.345548 0.382963 0.420724 0.458559 0.495095 0.531715 0.567324 0.60304 0.637947 0.6725 0.706781 0.739537 0.772589 0.803158 0.83257 0.859965 0.881505 0.900736 0.914531 0.921842 0.927924 0.930891 0.931114 0.931397 0.931688 0.931637 0.9314 0.931023 0.930609 0.930257 0.929961 0.929681 0.929412 0.929178 0.928988 0.928834 0.928705 0.928595 0.928499 0.928417 0.928347 0.928286 0.928229 0.928165 0.928083 0.927966 0.927771 0.927394 0.926626 0.925038 0.921773 0.915188 0.902304 0.87819 0.835819 0.767339 0.667734 0.539973 0.398585 0.26397 0.1541 0.0783151 0.0350027 0.0142527 0.00550325 0.00206892 0.000766855 0.000281597 0.000102593 3.70887e-05 1.32995e-05 4.72789e-06 1.6653e-06 5.8086e-07 2.00529e-07 6.84864e-08 2.31288e-08 7.72129e-09 2.54693e-09 8.29528e-10 2.67181e-10 8.38823e-11 2.59002e-11 7.30681e-12 2.36138e-12 1.01556e-13 -2.53337e-13 -6.55455e-14 -4.27277e-13 8.15391e-15 4.33529e-13 -3.52967e-13 8.93237e-13 -7.66707e-13 3.4411e-13 1.72459e-13 -9.71635e-13 -2.67859e-13 -3.13537e-13 -4.97053e-13 8.58145e-13 -8.23094e-13 -7.663e-13 1.60363e-12 -6.42193e-13 -1.93313e-13 6.05655e-13 -5.89162e-14 -6.99872e-13 -7.44492e-13 7.45204e-13 -2.16348e-13 -3.66056e-13 3.01653e-13 -7.80396e-13 7.25028e-13 -6.46838e-13 0
				</DataArray>
				<DataArray Name="VitesseY" type="Float32" format="ascii">