<?xml version="1.0"?>
<VTKFile type="PolyData">
	<PolyData>
		<Piece NumberOfPoints="1206" NumberOfPolys="1000">
			<Points>
				<DataArray type="Float32" NumberOfComponents="3" format="ascii">
 0 0 0 0.005 0 0 0.01 0 0 0.015 0 0 0.02 0 0 0.025 0 0 0.03 0 0 0.035 0 0 0.04 0 0 0.045 0 0 0.05 0 0 0.055 0 0 0.06 0 0 0.065 0 0 0.07 0 0 0.075 0 0 0.08 0 0 0.085 0 0 0.09 0 0 0.095 0 0 0.1 0 0 0.105 0 0 0.11 0 0 0.115 0 0 0.12 0 0 0.125 0 0 0.13 0 0 0.135 0 0 0.14 0 0 0.145 0 0 0.15 0 0 0.155 0 0 0.16 0 0 0.165 0 0 0.17 0 0 0.175 0 0 0.18 0 0 0.185 0 0 0.19 0 0 0.195 0 0 0.2 0 0 0.205 0 0 0.21 0 0 0.215 0 0 0.22 0 0 0.225 0 0 0.23 0 0 0.235 0 0 0.24 0 0 0.245 0 0 0.25 0 0 0.255 0 0 0.26 0 0 0.265 0 0 0.27 0 0 0.275 0 0 0.28 0 0 0.285 0 0 0.29 0 0 0.295 0 0 0.3 0 0 0.305 0 0 0.31 0 0 0.315 0 0 0.32 0 0 0.325 0 0 0.33 0 0 0.335 0 0 0.34 0 0 0.345 0 0 0.35 0 0 0.355 0 0 0.36 0 0 0.365 0 0 0.37 0 0 0.375 0 0 0.38 0 0 0.385 0 0 0.39 0 0 0.395 0 0 0.4 0 0 0.405 0 0 0.41 0 0 0.415 0 0 0.42 0 0 0.425 0 0 0.43 0 0 0.435 0 0 0.44 0 0 0.445 0 0 0.45 0 0 0.455 0 0 0.46 0 0 0.465 0 0 0.47 0 0 0.475 0 0 0.48 0 0 0.485 0 0 0.49 0 0 0.495 0 0 0.5 0 0 0.505 0 0 0.51 0 0 0.515 0 0 0.52 0 0 0.525 0 0 0.53 0 0 0.535 0 0 0.54 0 0 0.545 0 0 0.55 0 0 0.555 0 0 0.56 0 0 0.565 0 0 0.57 0 0 0.575 0 0 0.58 0 0 0.585 0 0 0.59 0 0 0.595 0 0 0.6 0 0 0.605 0 0 0.61 0 0 0.615 0 0 0.62 0 0 0.625 0 0 0.63 0 0 0.635 0 0 0.64 0 0 0.645 0 0 0.65 0 0 0.655 0 0 0.66 0 0 0.665 0 0 0.67 0 0 0.675 0 0 0.68 0 0 0.685 0 0 0.69 0 0 0.695 0 0 0.7 0 0 0.705 0 0 0.71 0 0 0.715 0 0 0.72 0 0 0.725 0 0 0.73 0 0 0.735 0 0 0.74 0 0 0.745 0 0 0.75 0 0 0.755 0 0 0.76 0 0 0.765 0 0 0.77 0 0 0.775 0 0 0.78 0 0 0.785 0 0 0.79 0 0 0.795 0 0 0.8 0 0 0.805 0 0 0.81 0 0 0.815 0 0 0.82 0 0 0.825 0 0 0.83 0 0 0.835 0 0 0.84 0 0 0.845 0 0 0.85 0 0 0.855 0 0 0.86 0 0 0.865 0 0 0.87 0 0 0.875 0 0 0.88 0 0 0.885 0 0 0.89 0 0 0.895 0 0 0.9 0 0 0.905 0 0 0.91 0 0 0.915 0 0 0.92 0 0 0.925 0 0 0.93 0 0 0.935 0 0 0.94 0 0 0.945 0 0 0.95 0 0 0.955 0 0 0.96 0 0 0.965 0 0 0.97 0 0 0.975 0 0 0.98 0 0 0.985 0 0 0.99 0 0 0.995 0 0 1 0 0 0 0.02 0 0.005 0.02 0 0.01 0.02 0 0.015 0.02 0 0.02 0.02 0 0.025 0.02 0 0.03 0.02 0 0.035 0.02 0 0.04 0.02 0 0.045 0.02 0 0.05 0.02 0 0.055 0.02 0 0.06 0.02 0 0.065 0.02 0 0.07 0.02 0 0.075 0.02 0 0.08 0.02 0 0.085 0.02 0 0.09 0.02 0 0.095 0.02 0 0.1 0.02 0 0.105 0.02 0 0.11 0.02 0 0.115 0.02 0 0.12 0.02 0 0.125 0.02 0 0.13 0.02 0 0.135 0.02 0 0.14 0.02 0 0.145 0.02 0 0.15 0.02 0 0.155 0.02 0 0.16 0.02 0 0.165 0.02 0 0.17 0.02 0 0.175 0.02 0 0.18 0.02 0 0.185 0.02 0 0.19 0.02 0 0.195 0.02 0 0.2 0.02 0 0.205 0.02 0 0.21 0.02 0 0.215 0.02 0 0.22 0.02 0 0.225 0.02 0 0.23 0.02 0 0.235 0.02 0 0.24 0.02 0 0.245 0.02 0 0.25 0.02 0 0.255 0.02 0 0.26 0.02 0 0.265 0.02 0 0.27 0.02 0 0.275 0.02 0 0.28 0.02 0 0.285 0.02 0 0.29 0.02 0 0.295 0.02 0 0.3 0.02 0 0.305 0.02 0 0.31 0.02 0 0.315 0.02 0 0.32 0.02 0 0.325 0.02 0 0.33 0.02 0 0.335 0.02 0 0.34 0.02 0 0.345 0.02 0 0.35 0.02 0 0.355 0.02 0 0.36 0.02 0 0.365 0.02 0 0.37 0.02 0 0.375 0.02 0 0.38 0.02 0 0.385 0.02 0 0.39 0.02 0 0.395 0.02 0 0.4 0.02 0 0.405 0.02 0 0.41 0.02 0 0.415 0.02 0 0.42 0.02 0 0.425 0.02 0 0.43 0.02 0 0.435 0.02 0 0.44 0.02 0 0.445 0.02 0 0.45 0.02 0 0.455 0.02 0 0.46 0.02 0 0.465 0.02 0 0.47 0.02 0 0.475 0.02 0 0.48 0.02 0 0.485 0.02 0 0.49 0.02 0 0.495 0.02 0 0.5 0.02 0 0.505 0.02 0 0.51 0.02 0 0.515 0.02 0 0.52 0.02 0 0.525 0.02 0 0.53 0.02 0 0.535 0.02 0 0.54 0.02 0 0.545 0.02 0 0.55 0.02 0 0.555 0.02 0 0.56 0.02 0 0.565 0.02 0 0.57 0.02 0 0.575 0.02 0 0.58 0.02 0 0.585 0.02 0 0.59 0.02 0 0.595 0.02 0 0.6 0.02 0 0.605 0.02 0 0.61 0.02 0 0.615 0.02 0 0.62 0.02 0 0.625 0.02 0 0.63 0.02 0 0.635 0.02 0 0.64 0.02 0 0.645 0.02 0 0.65 0.02 0 0.655 0.02 0 0.66 0.02 0 0.665 0.02 0 0.67 0.02 0 0.675 0.02 0 0.68 0.02 0 0.685 0.02 0 0.69 0.02 0 0.695 0.02 0 0.7 0.02 0 0.705 0.02 0 0.71 0.02 0 0.715 0.02 0 0.72 0.02 0 0.725 0.02 0 0.73 0.02 0 0.735 0.02 0 0.74 0.02 0 0.745 0.02 0 0.75 0.02 0 0.755 0.02 0 0.76 0.02 0 0.765 0.02 0 0.77 0.02 0 0.775 0.02 0 0.78 0.02 0 0.785 0.02 0 0.79 0.02 0 0.795 0.02 0 0.8 0.02 0 0.805 0.02 0 0.81 0.02 0 0.815 0.02 0 0.82 0.02 0 0.825 0.02 0 0.83 0.02 0 0.835 0.02 0 0.84 0.02 0 0.845 0.02 0 0.85 0.02 0 0.855 0.02 0 0.86 0.02 0 0.865 0.02 0 0.87 0.02 0 0.875 0.02 0 0.88 0.02 0 0.885 0.02 0 0.89 0.02 0 0.895 0.02 0 0.9 0.02 0 0.905 0.02 0 0.91 0.02 0 0.915 0.02 0 0.92 0.02 0 0.925 0.02 0 0.93 0.02 0 0.935 0.02 0 0.94 0.02 0 0.945 0.02 0 0.95 0.02 0 0.955 0.02 0 0.96 0.02 0 0.965 0.02 0 0.97 0.02 0 0.975 0.02 0 0.98 0.02 0 0.985 0.02 0 0.99 0.02 0 0.995 0.02 0 1 0.02 0 0 0.04 0 0.005 0.04 0 0.01 0.04 0 0.015 0.04 0 0.02 0.04 0 0.025 0.04 0 0.03 0.04 0 0.035 0.04 0 0.04 0.04 0 0.045 0.04 0 0.05 0.04 0 0.055 0.04 0 0.06 0.04 0 0.065 0.04 0 0.07 0.04 0 0.075 0.04 0 0.08 0.04 0 0.085 0.04 0 0.09 0.04 0 0.095 0.04 0 0.1 0.04 0 0.105 0.04 0 0.11 0.04 0 0.115 0.04 0 0.12 0.04 0 0.125 0.04 0 0.13 0.04 0 0.135 0.04 0 0.14 0.04 0 0.145 0.04 0 0.15 0.04 0 0.155 0.04 0 0.16 0.04 0 0.165 0.04 0 0.17 0.04 0 0.175 0.04 0 0.18 0.04 0 0.185 0.04 0 0.19 0.04 0 0.195 0.04 0 0.2 0.04 0 0.205 0.04 0 0.21 0.04 0 0.215 0.04 0 0.22 0.04 0 0.225 0.04 0 0.23 0.04 0 0.235 0.04 0 0.24 0.04 0 0.245 0.04 0 0.25 0.04 0 0.255 0.04 0 0.26 0.04 0 0.265 0.04 0 0.27 0.04 0 0.275 0.04 0 0.28 0.04 0 0.285 0.04 0 0.29 0.04 0 0.295 0.04 0 0.3 0.04 0 0.305 0.04 0 0.31 0.04 0 0.315 0.04 0 0.32 0.04 0 0.325 0.04 0 0.33 0.04 0 0.335 0.04 0 0.34 0.04 0 0.345 0.04 0 0.35 0.04 0 0.355 0.04 0 0.36 0.04 0 0.365 0.04 0 0.37 0.04 0 0.375 0.04 0 0.38 0.04 0 0.385 0.04 0 0.39 0.04 0 0.395 0.04 0 0.4 0.04 0 0.405 0.04 0 0.41 0.04 0 0.415 0.04 0 0.42 0.04 0 0.425 0.04 0 0.43 0.04 0 0.435 0.04 0 0.44 0.04 0 0.445 0.04 0 0.45 0.04 0 0.455 0.04 0 0.46 0.04 0 0.465 0.04 0 0.47 0.04 0 0.475 0.04 0 0.48 0.04 0 0.485 0.04 0 0.49 0.04 0 0.495 0.04 0 0.5 0.04 0 0.505 0.04 0 0.51 0.04 0 0.515 0.04 0 0.52 0.04 0 0.525 0.04 0 0.53 0.04 0 0.535 0.04 0 0.54 0.04 0 0.545 0.04 0 0.55 0.04 0 0.555 0.04 0 0.56 0.04 0 0.565 0.04 0 0.57 0.04 0 0.575 0.04 0 0.58 0.04 0 0.585 0.04 0 0.59 0.04 0 0.595 0.04 0 0.6 0.04 0 0.605 0.04 0 0.61 0.04 0 0.615 0.04 0 0.62 0.04 0 0.625 0.04 0 0.63 0.04 0 0.635 0.04 0 0.64 0.04 0 0.645 0.04 0 0.65 0.04 0 0.655 0.04 0 0.66 0.04 0 0.665 0.04 0 0.67 0.04 0 0.675 0.04 0 0.68 0.04 0 0.685 0.04 0 0.69 0.04 0 0.695 0.04 0 0.7 0.04 0 0.705 0.04 0 0.71 0.04 0 0.715 0.04 0 0.72 0.04 0 0.725 0.04 0 0.73 0.04 0 0.735 0.04 0 0.74 0.04 0 0.745 0.04 0 0.75 0.04 0 0.755 0.04 0 0.76 0.04 0 0.765 0.04 0 0.77 0.04 0 0.775 0.04 0 0.78 0.04 0 0.785 0.04 0 0.79 0.04 0 0.795 0.04 0 0.8 0.04 0 0.805 0.04 0 0.81 0.04 0 0.815 0.04 0 0.82 0.04 0 0.825 0.04 0 0.83 0.04 0 0.835 0.04 0 0.84 0.04 0 0.845 0.04 0 0.85 0.04 0 0.855 0.04 0 0.86 0.04 0 0.865 0.04 0 0.87 0.04 0 0.875 0.04 0 0.88 0.04 0 0.885 0.04 0 0.89 0.04 0 0.895 0.04 0 0.9 0.04 0 0.905 0.04 0 0.91 0.04 0 0.915 0.04 0 0.92 0.04 0 0.925 0.04 0 0.93 0.04 0 0.935 0.04 0 0.94 0.04 0 0.945 0.04 0 0.95 0.04 0 0.955 0.04 0 0.96 0.04 0 0.965 0.04 0 0.97 0.04 0 0.975 0.04 0 0.98 0.04 0 0.985 0.04 0 0.99 0.04 0 0.995 0.04 0 1 0.04 0 0 0.06 0 0.005 0.06 0 0.01 0.06 0 0.015 0.06 0 0.02 0.06 0 0.025 0.06 0 0.03 0.06 0 0.035 0.06 0 0.04 0.06 0 0.045 0.06 0 0.05 0.06 0 0.055 0.06 0 0.06 0.06 0 0.065 0.06 0 0.07 0.06 0 0.075 0.06 0 0.08 0.06 0 0.085 0.06 0 0.09 0.06 0 0.095 0.06 0 0.1 0.06 0 0.105 0.06 0 0.11 0.06 0 0.115 0.06 0 0.12 0.06 0 0.125 0.06 0 0.13 0.06 0 0.135 0.06 0 0.14 0.06 0 0.145 0.06 0 0.15 0.06 0 0.155 0.06 0 0.16 0.06 0 0.165 0.06 0 0.17 0.06 0 0.175 0.06 0 0.18 0.06 0 0.185 0.06 0 0.19 0.06 0 0.195 0.06 0 0.2 0.06 0 0.205 0.06 0 0.21 0.06 0 0.215 0.06 0 0.22 0.06 0 0.225 0.06 0 0.23 0.06 0 0.235 0.06 0 0.24 0.06 0 0.245 0.06 0 0.25 0.06 0 0.255 0.06 0 0.26 0.06 0 0.265 0.06 0 0.27 0.06 0 0.275 0.06 0 0.28 0.06 0 0.285 0.06 0 0.29 0.06 0 0.295 0.06 0 0.3 0.06 0 0.305 0.06 0 0.31 0.06 0 0.315 0.06 0 0.32 0.06 0 0.325 0.06 0 0.33 0.06 0 0.335 0.06 0 0.34 0.06 0 0.345 0.06 0 0.35 0.06 0 0.355 0.06 0 0.36 0.06 0 0.365 0.06 0 0.37 0.06 0 0.375 0.06 0 0.38 0.06 0 0.385 0.06 0 0.39 0.06 0 0.395 0.06 0 0.4 0.06 0 0.405 0.06 0 0.41 0.06 0 0.415 0.06 0 0.42 0.06 0 0.425 0.06 0 0.43 0.06 0 0.435 0.06 0 0.44 0.06 0 0.445 0.06 0 0.45 0.06 0 0.455 0.06 0 0.46 0.06 0 0.465 0.06 0 0.47 0.06 0 0.475 0.06 0 0.48 0.06 0 0.485 0.06 0 0.49 0.06 0 0.495 0.06 0 0.5 0.06 0 0.505 0.06 0 0.51 0.06 0 0.515 0.06 0 0.52 0.06 0 0.525 0.06 0 0.53 0.06 0 0.535 0.06 0 0.54 0.06 0 0.545 0.06 0 0.55 0.06 0 0.555 0.06 0 0.56 0.06 0 0.565 0.06 0 0.57 0.06 0 0.575 0.06 0 0.58 0.06 0 0.585 0.06 0 0.59 0.06 0 0.595 0.06 0 0.6 0.06 0 0.605 0.06 0 0.61 0.06 0 0.615 0.06 0 0.62 0.06 0 0.625 0.06 0 0.63 0.06 0 0.635 0.06 0 0.64 0.06 0 0.645 0.06 0 0.65 0.06 0 0.655 0.06 0 0.66 0.06 0 0.665 0.06 0 0.67 0.06 0 0.675 0.06 0 0.68 0.06 0 0.685 0.06 0 0.69 0.06 0 0.695 0.06 0 0.7 0.06 0 0.705 0.06 0 0.71 0.06 0 0.715 0.06 0 0.72 0.06 0 0.725 0.06 0 0.73 0.06 0 0.735 0.06 0 0.74 0.06 0 0.745 0.06 0 0.75 0.06 0 0.755 0.06 0 0.76 0.06 0 0.765 0.06 0 0.77 0.06 0 0.775 0.06 0 0.78 0.06 0 0.785 0.06 0 0.79 0.06 0 0.795 0.06 0 0.8 0.06 0 0.805 0.06 0 0.81 0.06 0 0.815 0.06 0 0.82 0.06 0 0.825 0.06 0 0.83 0.06 0 0.835 0.06 0 0.84 0.06 0 0.845 0.06 0 0.85 0.06 0 0.855 0.06 0 0.86 0.06 0 0.865 0.06 0 0.87 0.06 0 0.875 0.06 0 0.88 0.06 0 0.885 0.06 0 0.89 0.06 0 0.895 0.06 0 0.9 0.06 0 0.905 0.06 0 0.91 0.06 0 0.915 0.06 0 0.92 0.06 0 0.925 0.06 0 0.93 0.06 0 0.935 0.06 0 0.94 0.06 0 0.945 0.06 0 0.95 0.06 0 0.955 0.06 0 0.96 0.06 0 0.965 0.06 0 0.97 0.06 0 0.975 0.06 0 0.98 0.06 0 0.985 0.06 0 0.99 0.06 0 0.995 0.06 0 1 0.06 0 0 0.08 0 0.005 0.08 0 0.01 0.08 0 0.015 0.08 0 0.02 0.08 0 0.025 0.08 0 0.03 0.08 0 0.035 0.08 0 0.04 0.08 0 0.045 0.08 0 0.05 0.08 0 0.055 0.08 0 0.06 0.08 0 0.065 0.08 0 0.07 0.08 0 0.075 0.08 0 0.08 0.08 0 0.085 0.08 0 0.09 0.08 0 0.095 0.08 0 0.1 0.08 0 0.105 0.08 0 0.11 0.08 0 0.115 0.08 0 0.12 0.08 0 0.125 0.08 0 0.13 0.08 0 0.135 0.08 0 0.14 0.08 0 0.145 0.08 0 0.15 0.08 0 0.155 0.08 0 0.16 0.08 0 0.165 0.08 0
[...]
			<PointData Scalars="VitesseX">
				<DataArray Name="VitesseX" type="Float32" format="ascii">
 0 -8.96506e-16 1.20815e-14 1.67355e-14 -2.71774e-15 -2.07024e-14 -1.31805e-14 -3.29001e-14 -4.12064e-14 -8.08626e-15 -3.02358e-14 -1.77251e-14 4.21631e-14 -2.87836e-14 2.16803e-14 -3.31572e-14 -1.94916e-14 -3.90308e-14 1.04912e-13 -8.78822e-14 -5.75574e-15 -4.26499e-14 -2.1188e-14 -1.78903e-14 -1.04549e-13 -4.36151e-14 -1.74465e-13 -7.23024e-14 -1.98143e-13 -1.99055e-13 6.26492e-14 -2.86272e-14 -5.04179e-14 -7.39607e-14 -1.23626e-13 1.90303e-13 -8.46918e-14 5.40206e-14 -1.04687e-13 -1.66583e-13 -2.50671e-13 -3.7023e-14 -3.87193e-13 1.29102e-13 -9.04504e-14 -8.17519e-14 9.3569e-17 -1.43703e-13 -1.60619e-14 -2.94394e-13 -5.41068e-14 -6.50487e-14 -2.82415e-13 2.02565e-13 1.00657e-13 2.3748e-12 1.89633e-11 1.37441e-10 9.36367e-10 5.97889e-09 3.56666e-08 1.98055e-07 1.01967e-06 4.84487e-06 2.11304e-05 8.40507e-05 0.000302572 0.000976695 0.00279732 0.00703266 0.0153965 0.0293288 0.049101 0.0737167 0.101705 0.131843 0.16335 0.195769 0.228768 0.262164 0.295865 0.329825 0.364032 0.398498 0.433226 0.467644 0.501194 0.534714 0.567647 0.600342 0.632836 0.664609 0.696492 0.727262 0.757738 0.787543 0.81532 0.842808 0.866272 0.886606 0.904119 0.91507 0.92299 0.928646 0.930178 0.930963 0.931652 0.931686 0.931517 0.931218 0.930888 0.930584 0.93029 0.929985 0.929671 0.929395 0.929173 0.928991 0.928838 0.928705 0.92859 0.928493 0.92841 0.928337 0.928273 0.928216 0.928165 0.92812 0.928076 0.928028 0.927967 0.92788 0.927735 0.927458 0.926898 0.925749 0.923397 0.918648 0.909281 0.891447 0.8592 0.804939 0.721756 0.607846 0.472075 0.332073 0.208196 0.114286 0.054743 0.0234133 0.00931193 0.00356579 0.00134039 0.000498787 0.000184298 6.76691e-05 2.46883e-05 8.94635e-06 3.21832e-06 1.1487e-06 4.06578e-07 1.42635e-07 4.95724e-08 1.70614e-08 5.81204e-09 1.9587e-09 6.5292e-10 2.1523e-10 6.98785e-11 2.2478e-11 7.04586e-12 2.32669e-12 4.01833e-13 -2.15903e-13 6.29645e-13 -7.38439e-13 1.29128e-13 1.80108e-13 -8.80806e-13 -1.69246e-13 -5.47967e-13 7.47177e-13 -2.29227e-13 1.60847e-15 -3.06733e-13 -3.66393e-13 3.66346e-13 2.06951e-13 9.35936e-14 2.06796e-13 -1.03955e-13 3.36942e-13 4.58964e-13 -2.88108e-13 9.14128e-13 -5.23205e-13 -2.82968e-14 -3.72296e-13 1.08569e-12 4.45564e-13 0 0 -2.81283e-15 3.29391e-15 2.90403e-15 -7.38781e-15 1.39578e-14 -8.08195e-15 -2.47791e-14 -1.55646e-14 -4.43846e-14 -1.0668e-14 1.35336e-14 -2.28648e-14 2.33658e-14 -5.54201e-14 2.92831e-14 1.81766e-14 -9.88792e-15 -8.39249e-14 5.25829e-14 -4.27675e-14 3.14855e-14 -1.15314e-13 -1.11988e-13 -3.15314e-14 -1.01562e-13 -6.30521e-14 -1.78979e-13 -5.63655e-14 -5.75279e-16 -1.271e-13 -1.00553e-13 -6.96942e-14 5.96592e-15 5.85416e-14 -1.91307e-13 5.50995e-14 -1.25317e-13 -1.06694e-13 -8.35567e-14 -6.64521e-14 -2.23459e-13 7.92225e-14 -2.35294e-13 3.17451e-14 -9.04383e-14 -1.60283e-13 6.73875e-14 6.72767e-14 9.4001e-14 -1.85121e-13 -2.35569e-13 -5.61206e-14 -2.97889e-13 4.91676e-13 2.41318e-12 1.87015e-11 1.37515e-10 9.3621e-10 5.97911e-09 3.56664e-08 1.98055e-07 1.01967e-06 4.84487e-06 2.11304e-05 8.40507e-05 0.000302572 0.000976695 0.00279732 0.00703266 0.0153965 0.0293288 0.049101 0.0737167 0.101705 0.131843 0.16335 0.195769 0.228768 0.262164 0.295865 0.329825 0.364032 0.398498 0.433226 0.467644 0.501194 0.534714 0.567647 0.600342 0.632836 0.664609 0.696492 0.727262 0.757738 0.787543 0.81532 0.842808 0.866272 0.886606 0.904119 0.91507 0.92299 0.928646 0.930178 0.930963 0.931652 0.931686 0.931517 0.931218 0.930888 0.930584 0.93029 0.929985 0.929671 0.929395 0.929173 0.928991 0.928838 0.928705 0.92859 0.928493 0.92841 0.928337 0.928273 0.928216 0.928165 0.92812 0.928076 0.928028 0.927967 0.92788 0.927735 0.927458 0.926898 0.925749 0.923397 0.918648 0.909281 0.891447 0.8592 0.804939 0.721756 0.607846 0.472075 0.332073 0.208196 0.114286 0.054743 0.0234133 0.00931193 0.00356579 0.00134039 0.000498787 0.000184298 6.76691e-05 2.46883e-05 8.94635e-06 3.21832e-06 1.1487e-06 4.06578e-07 1.42635e-07 4.95728e-08 1.70608e-08 5.81203e-09 1.95902e-09 6.52951e-10 2.15271e-10 7.01753e-11 2.24204e-11 6.97694e-12 2.13287e-12 3.79732e-13 4.15856e-13 -5.39789e-13 6.98255e-14 -3.44327e-13 -3.82269e-13 -9.93114e-14 -4.07756e-13 9.98726e-14 -4.15327e-13 2.50026e-13 -1.84709e-13 -3.00572e-13 3.6647e-13 -3.45214e-13 1.06992e-13 2.37807e-13 3.41826e-15 9.45518e-14 -2.39169e-14 3.5979e-15 2.68671e-13 -3.7074e-13 6.21305e-13 3.26832e-13 6.13705e-13 -8.03197e-13 -3.73467e-13 0 0 -7.56419e-16 5.55346e-15 7.94688e-15 9.8839e-15 -6.91523e-15 -9.15249e-15 7.30638e-15 -1.49448e-14 2.45669e-14 -1.61505e-14 -1.19353e-14 -3.34256e-14 -2.99652e-14 8.47241e-15 2.69221e-14 -3.1235e-14 2.54513e-14 1.63002e-14 -7.86991e-14 -7.18987e-14 2.45969e-14 -6.2467e-14 -1.05404e-13 -1.20312e-13 -9.4332e-14 -1.70861e-13 -4.53661e-14 -1.17276e-13 -5.87881e-14 -1.04713e-13 4.01496e-14 -2.90793e-14 -8.23219e-14 -6.00898e-14 8.09838e-15 -1.77238e-13 -1.84897e-13 1.06116e-13 -9.02603e-14 -1.16089e-13 -1.5774e-14 -2.61797e-13 1.72517e-14 -2.02284e-14 1.14141e-13 5.96419e-14 -1.06338e-13 -1.18708e-13 -9.26797e-14 6.64702e-14 -1.41066e-14 -1.19469e-13 -9.09875e-14 2.36768e-13 2.44157e-12 1.89725e-11 1.3722e-10 9.36255e-10 5.97898e-09 3.56665e-08 1.98055e-07 1.01967e-06 4.84487e-06 2.11304e-05 8.40507e-05 0.000302572 0.000976695 0.00279732 0.00703266 0.0153965 0.0293288 0.049101 0.0737167 0.101705 0.131843 0.16335 0.195769 0.228768 0.262164 0.295865 0.329825 0.364032 0.398498 0.433226 0.467644 0.501194 0.534714 0.567647 0.600342 0.632836 0.664609 0.696492 0.727262 0.757738 0.787543 0.81532 0.842808 0.866272 0.886606 0.904119 0.91507 0.92299 0.928646 0.930178 0.930963 0.931652 0.931686 0.931517 0.931218 0.930888 0.930584 0.93029 0.929985 0.929671 0.929395 0.929173 0.928991 0.928838 0.928705 0.92859 0.928493 0.92841 0.928337 0.928273 0.928216 0.928165 0.92812 0.928076 0.928028 0.927967 0.92788 0.927735 0.927458 0.926898 0.925749 0.923397 0.918648 0.909281 0.891447 0.8592 0.804939 0.721756 0.607846 0.472075 0.332073 0.208196 0.114286 0.054743 0.0234133 0.00931193 0.00356579 0.00134039 0.000498787 0.000184298 6.76691e-05 2.46883e-05 8.94635e-06 3.21832e-06 1.1487e-06 4.06579e-07 1.42635e-07 4.95727e-08 1.70613e-08 5.81206e-09 1.95921e-09 6.53284e-10 2.15321e-10 7.02123e-11 2.24594e-11 6.84898e-12 1.87613e-12 4.37798e-13 7.77254e-14 -4.9856e-14 -1.73013e-13 -4.97502e-14 -8.18242e-13 7.74222e-14 -7.56871e-14 -2.25531e-13 -2.19362e-13 -4.38778e-13 -2.27169e-13 2.44381e-13 -5.52631e-13 2.97251e-13 -3.81609e-13 5.53432e-14 -3.3888e-14 -2.40653e-13 -5.65179e-14 1.98394e-13 4.02258e-14 3.54262e-13 6.18565e-13 3.38306e-13 -1.57768e-13 3.36469e-14 1.45147e-13 0 0 1.3322e-14 1.72203e-14 1.96401e-14 3.46638e-14 6.42242e-16 7.18966e-15 3.04284e-15 -1.61352e-14 -1.45078e-14 -2.03396e-14 -8.76786e-15 3.87249e-15 -4.17024e-15 -1.03949e-14 1.07162e-14 -5.82115e-15 -3.73667e-14 4.49659e-15 -5.48597e-14 -5.23637e-14 -8.01651e-14 -8.31182e-14 -1.47722e-13 -2.37256e-14 -4.93311e-14 -1.88099e-13 -1.76808e-13 -1.17946e-13 -2.89973e-14 4.14032e-14 6.40475e-14 -1.4905e-13 -1.32985e-13 -1.77816e-14 6.65575e-14 -9.12992e-14 -6.78223e-14 -7.50097e-14 -7.89714e-14 -9.65179e-14 -1.91379e-14 -2.40675e-13 1.95739e-14 -6.04396e-14 -1.47133e-13 -6.45508e-14 -5.5723e-14 2.00385e-14 -7.01309e-14 7.79942e-14 6.45169e-14 -3.57504e-13 3.40025e-13 2.02642e-13 2.41598e-12 1.88445e-11 1.37447e-10 9.36341e-10 5.97895e-09 3.56666e-08 1.98055e-07 1.01967e-06 4.84487e-06 2.11304e-05 8.40507e-05 0.000302572 0.000976695 0.00279732 0.00703266 0.0153965 0.0293288 0.049101 0.0737167 0.101705 0.131843 0.16335 0.195769 0.228768 0.262164 0.295865 0.329825 0.364032 0.398498 0.433226 0.467644 0.501194 0.534714 0.567647 0.600342 0.632836 0.664609 0.696492 0.727262 0.757738 0.787543 0.81532 0.842808 0.866272 0.886606 0.904119 0.91507 0.92299 0.928646 0.930178 0.930963 0.931652 0.931686 0.931517 0.931218 0.930888 0.930584 0.93029 0.929985 0.929671 0.929395 0.929173 0.928991 0.928838 0.928705 0.92859 0.928493 0.92841 0.928337 0.928273 0.928216 0.928165 0.92812 0.928076 0.928028 0.927967 0.92788 0.927735 0.927458 0.926898 0.925749 0.923397 0.918648 0.909281 0.891447 0.8592 0.804939 0.721756 0.607846 0.472075 0.332073 0.208196 0.114286 0.054743 0.0234133 0.00931193 0.00356579 0.00134039 0.000498787 0.000184298 6.76691e-05 2.46883e-05 8.94635e-06 3.21832e-06 1.1487e-06 4.06578e-07 1.42635e-07 4.95727e-08 1.70614e-08 5.81206e-09 1.95935e-09 6.53376e-10 2.15278e-10 6.96893e-11 2.26874e-11 7.18414e-12 2.03145e-12 4.62861e-13 -7.6165e-13 7.28365e-13 -2.16503e-13 -4.00646e-13 1.90109e-13 -3.57507e-13 6.99963e-14 -1.04218e-13 -7.40006e-14 -1.41455e-13 -7.4307e-13 -2.29481e-13 -5.05357e-13 3.33623e-14 -3.3534e-13 -2.59191e-13 2.59961e-13 -9.54629e-14 -7.19453e-14 8.0739e-13 4.58774e-13 -1.12439e-13 5.64153e-14 1.79007e-13 1.98823e-13 4.95877e-13 2.73922e-13 0 0 1.54201e-14 1.79054e-14 2.15984e-14 3.01596e-14 3.24751e-14 2.20849e-14 2.70554e-15 1.22675e-14 -4.29679e-14 -2.73151e-14 1.6296e-14 -1.81494e-14 -1.16203e-15 -9.20203e-14 -3.88894e-14 3.639e-14 -3.49922e-14 -8.0294e-14 3.9639e-14 -1.0234e-13 -4.35361e-14 -1.27768e-13 -6.53057e-14 4.81757e-14 -6.34707e-14 -5.55348e-14 -2.36925e-13 -2.3568e-14 3.78678e-14 -1.03224e-13 -8.30134e-14 -9.35348e-14 2.27253e-14 1.37473e-13 -1.78502e-13 7.78375e-14 1.22694e-14 -2.77086e-13 -1.34127e-13 -4.44364e-14 -2.03025e-13 1.7487e-13 -3.53052e-13 -1.07365e-13 -2.72294e-13 -1.27651e-13 1.52925e-13 1.04534e-13 1.04169e-13 -1.61812e-13 -7.56667e-14 -1.08386e-13 -2.72902e-14 5.12089e-13 2.60432e-12 1.87279e-11 1.37788e-10 9.36395e-10 5.97898e-09 3.56665e-08 1.98055e-07 1.01967e-06 4.84487e-06 2.11304e-05 8.40507e-05 0.000302572 0.000976695 0.00279732 0.00703266 0.0153965 0.0293288 0.049101 0.0737167 0.101705 0.131843 0.16335 0.195769 0.228768 0.262164 0.295865 0.329825 0.364032 0.398498 0.433226 0.467644 0.501194 0.534714 0.567647 0.600342 0.632836 0.664609 0.696492 0.727262 0.757738 0.787543 0.81532 0.842808 0.866272 0.886606 0.904119 0.91507 0.92299 0.928646 0.930178 0.930963 0.931652 0.931686 0.931517 0.931218 0.930888 0.930584 0.93029 0.929985 0.929671 0.929395 0.929173 0.928991 0.928838 0.928705 0.92859 0.928493 0.92841 0.928337 0.928273 0.928216 0.928165 0.92812 0.928076 0.928028 0.927967 0.92788 0.927735 0.927458 0.926898 0.925749 0.923397 0.918648 0.909281 0.891447 0.8592 0.804939 0.721756 0.607846 0.472075 0.332073 0.208196 0.114286 0.054743 0.0234133 0.00931193 0.00356579 0.00134039 0.000498787 0.000184298 6.76691e-05 2.46883e-05 8.94635e-06 3.21832e-06 1.1487e-06 4.06578e-07 1.42635e-07 4.95729e-08 1.7061e-08 5.81218e-09 1.95924e-09 6.53039e-10 2.15326e-10 7.01181e-11 2.24931e-11 7.1411e-12 2.33576e-12 3.73421e-13 -1.19764e-13 -1.4883e-13 2.52226e-13 -5.4285e-13 2.61435e-13 -2.53436e-13 -1.92451e-13 3.71764e-13 -7.42166e-13 3.09134e-13 -7.36459e-13 -5.06785e-13 6.00013e-13 -6.68317e-13 6.3056e-14 -3.24122e-13 2.65669e-14 3.58662e-13 3.20064e-14 1.73626e-14 5.20099e-13 -4.06332e-13 3.68723e-13 4.79384e-13 8.32121e-13 -4.88946e-13 -6.18531e-13 0 0 7.41259e-15 1.79709e-14 3.07377e-14 2.28173e-14 1.21724e-15 1.44689e-14 3.05962e-14 1.68386e-14 7.28965e-14 -5.51516e-14 -1.85352e-14 -2.30023e-14 -1.29429e-13 -1.37855e-14 -1.37091e-13 -3.38924e-14 3.63967e-14 1.35781e-13 -1.61449e-13 -1.63972e-13 1.68308e-14 -4.79175e-15 1.6011e-13 -1.38307e-13 -5.74348e-14 -1.24953e-13 7.46897e-14 -1.31209e-13 -1.8175e-13 -1.81831e-13 -4.13427e-14 1.41843e-13 6.08834e-14 -5.03794e-14 9.89935e-14 -2.11093e-13 9.50449e-14 -8.32195e-14 -2.90301e-13 -2.45782e-13 1.05734e-14 -2.38142e-13 -1.11058e-13 -2.88248e-13 7.70842e-14 3.13743e-13 -7.38586e-14 -2.19039e-13 -3.19156e-13 -3.05362e-14 9.75086e-14 8.91237e-14 -1.18263e-13 2.09734e-13 2.80825e-12 1.92722e-11 1.37533e-10 9.36567e-10 5.9787e-09 3.56667e-08 1.98055e-07 1.01967e-06 4.84487e-06 2.11304e-05 8.40507e-05 0.000302572 0.000976695 0.00279732 0.00703266 0.0153965 0.0293288 0.049101 0.0737167 0.101705 0.131843 0.16335 0.195769 0.228768 0.262164 0.295865 0.329825 0.364032 0.398498 0.433226 0.467644 0.501194 0.534714 0.567647 0.600342 0.632836 0.664609 0.696492 0.727262 0.757738 0.787543 0.81532 0.842808 0.866272 0.886606 0.904119 0.91507 0.92299 0.928646 0.930178 0.930963 0.931652 0.931686 0.931517 0.931218 0.930888 0.930584 0.93029 0.929985 0.929671 0.929395 0.929173 0.928991 0.928838 0.928705 0.92859 0.928493 0.92841 0.928337 0.928273 0.928216 0.928165 0.92812 0.928076 0.928028 0.927967 0.92788 0.927735 0.927458 0.926898 0.925749 0.923397 0.918648 0.909281 0.891447 0.8592 0.804939 0.721756 0.607846 0.472075 0.332073 0.208196 0.114286 0.054743 0.0234133 0.00931193 0.00356579 0.00134039 0.000498787 0.000184298 6.76691e-05 2.46883e-05 8.94635e-06 3.21832e-06 1.1487e-06 4.06579e-07 1.42634e-07 4.95727e-08 1.70616e-08 5.81233e-09 1.95886e-09 6.52912e-10 2.15426e-10 7.08101e-11 2.21675e-11 6.70385e-12 2.42184e-12 3.39084e-13 3.91608e-13 -1.44881e-13 -2.86659e-13 4.33874e-13 -5.49188e-13 -3.19196e-13 -3.0003e-14 -2.46811e-13 -1.97223e-13 -7.05659e-13 -7.00884e-14 2.28564e-13 6.14607e-15 2.47917e-13 2.65415e-14 -4.01197e-13 -3.34604e-13 1.33886e-13 4.79643e-13 -7.31498e-13 -6.22348e-13 1.77635e-12 9.593e-14 5.95406e-13 -6.48646e-13 7.8973e-13 -3.02112e-13 0
				</DataArray>
				<DataArray Name="VitesseY" type="Float32" format="ascii">