<?xml version="1.0"?>
<VTKFile type="PolyData">
	<PolyData>
		<Piece NumberOfPoints="1206" NumberOfPolys="1000">
			<Points>
				<DataArray type="Float32" NumberOfComponents="3" format="ascii">
 0 0 0 0.005 0 0 0.01 0 0 0.015 0 0 0.02 0 0 0.025 0 0 0.03 0 0 0.035 0 0 0.04 0 0 0.045 0 0 0.05 0 0 0.055 0 0 0.06 0 0 0.065 0 0 0.07 0 0 0.075 0 0 0.08 0 0 0.085 0 0 0.09 0 0 0.095 0 0 0.1 0 0 0.105 0 0 0.11 0 0 0.115 0 0 0.12 0 0 0.125 0 0 0.13 0 0 0.135 0 0 0.14 0 0 0.145 0 0 0.15 0 0 0.155 0 0 0.16 0 0 0.165 0 0 0.17 0 0 0.175 0 0 0.18 0 0 0.185 0 0 0.19 0 0 0.195 0 0 0.2 0 0 0.205 0 0 0.21 0 0 0.215 0 0 0.22 0 0 0.225 0 0 0.23 0 0 0.235 0 0 0.24 0 0 0.245 0 0 0.25 0 0 0.255 0 0 0.26 0 0 0.265 0 0 0.27 0 0 0.275 0 0 0.28 0 0 0.285 0 0 0.29 0 0 0.295 0 0 0.3 0 0 0.305 0 0 0.31 0 0 0.315 0 0 0.32 0 0 0.325 0 0 0.33 0 0 0.335 0 0 0.34 0 0 0.345 0 0 0.35 0 0 0.355 0 0 0.36 0 0 0.365 0 0 0.37 0 0 0.375 0 0 0.38 0 0 0.385 0 0 0.39 0 0 0.395 0 0 0.4 0 0 0.405 0 0 0.41 0 0 0.415 0 0 0.42 0 0 0.425 0 0 0.43 0 0 0.435 0 0 0.44 0 0 0.445 0 0 0.45 0 0 0.455 0 0 0.46 0 0 0.465 0 0 0.47 0 0 0.475 0 0 0.48 0 0 0.485 0 0 0.49 0 0 0.495 0 0 0.5 0 0 0.505 0 0 0.51 0 0 0.515 0 0 0.52 0 0 0.525 0 0 0.53 0 0 0.535 0 0 0.54 0 0 0.545 0 0 0.55 0 0 0.555 0 0 0.56 0 0 0.565 0 0 0.57 0 0 0.575 0 0 0.58 0 0 0.585 0 0 0.59 0 0 0.595 0 0 0.6 0 0 0.605 0 0 0.61 0 0 0.615 0 0 0.62 0 0 0.625 0 0 0.63 0 0 0.635 0 0 0.64 0 0 0.645 0 0 0.65 0 0 0.655 0 0 0.66 0 0 0.665 0 0 0.67 0 0 0.675 0 0 0.68 0 0 0.685 0 0 0.69 0 0 0.695 0 0 0.7 0 0 0.705 0 0 0.71 0 0 0.715 0 0 0.72 0 0 0.725 0 0 0.73 0 0 0.735 0 0 0.74 0 0 0.745 0 0 0.75 0 0 0.755 0 0 0.76 0 0 0.765 0 0 0.77 0 0 0.775 0 0 0.78 0 0 0.785 0 0 0.79 0 0 0.795 0 0 0.8 0 0 0.805 0 0 0.81 0 0 0.815 0 0 0.82 0 0 0.825 0 0 0.83 0 0 0.835 0 0 0.84 0 0 0.845 0 0 0.85 0 0 0.855 0 0 0.86 0 0 0.865 0 0 0.87 0 0 0.875 0 0 0.88 0 0 0.885 0 0 0.89 0 0 0.895 0 0 0.9 0 0 0.905 0 0 0.91 0 0 0.915 0 0 0.92 0 0 0.925 0 0 0.93 0 0 0.935 0 0 0.94 0 0 0.945 0 0 0.95 0 0 0.955 0 0 0.96 0 0 0.965 0 0 0.97 0 0 0.975 0 0 0.98 0 0 0.985 0 0 0.99 0 0 0.995 0 0 1 0 0 0 0.02 0 0.005 0.02 0 0.01 0.02 0 0.015 0.02 0 0.02 0.02 0 0.025 0.02 0 0.03 0.02 0 0.035 0.02 0 0.04 0.02 0 0.045 0.02 0 0.05 0.02 0 0.055 0.02 0 0.06 0.02 0 0.065 0.02 0 0.07 0.02 0 0.075 0.02 0 0.08 0.02 0 0.085 0.02 0 0.09 0.02 0 0.095 0.02 0 0.1 0.02 0 0.105 0.02 0 0.11 0.02 0 0.115 0.02 0 0.12 0.02 0 0.125 0.02 0 0.13 0.02 0 0.135 0.02 0 0.14 0.02 0 0.145 0.02 0 0.15 0.02 0 0.155 0.02 0 0.16 0.02 0 0.165 0.02 0 0.17 0.02 0 0.175 0.02 0 0.18 0.02 0 0.185 0.02 0 0.19 0.02 0 0.195 0.02 0 0.2 0.02 0 0.205 0.02 0 0.21 0.02 0 0.215 0.02 0 0.22 0.02 0 0.225 0.02 0 0.23 0.02 0 0.235 0.02 0 0.24 0.02 0 0.245 0.02 0 0.25 0.02 0 0.255 0.02 0 0.26 0.02 0 0.265 0.02 0 0.27 0.02 0 0.275 0.02 0 0.28 0.02 0 0.285 0.02 0 0.29 0.02 0 0.295 0.02 0 0.3 0.02 0 0.305 0.02 0 0.31 0.02 0 0.315 0.02 0 0.32 0.02 0 0.325 0.02 0 0.33 0.02 0 0.335 0.02 0 0.34 0.02 0 0.345 0.02 0 0.35 0.02 0 0.355 0.02 0 0.36 0.02 0 0.365 0.02 0 0.37 0.02 0 0.375 0.02 0 0.38 0.02 0 0.385 0.02 0 0.39 0.02 0 0.395 0.02 0 0.4 0.02 0 0.405 0.02 0 0.41 0.02 0 0.415 0.02 0 0.42 0.02 0 0.425 0.02 0 0.43 0.02 0 0.435 0.02 0 0.44 0.02 0 0.445 0.02 0 0.45 0.02 0 0.455 0.02 0 0.46 0.02 0 0.465 0.02 0 0.47 0.02 0 0.475 0.02 0 0.48 0.02 0 0.485 0.02 0 0.49 0.02 0 0.495 0.02 0 0.5 0.02 0 0.505 0.02 0 0.51 0.02 0 0.515 0.02 0 0.52 0.02 0 0.525 0.02 0 0.53 0.02 0 0.535 0.02 0 0.54 0.02 0 0.545 0.02 0 0.55 0.02 0 0.555 0.02 0 0.56 0.02 0 0.565 0.02 0 0.57 0.02 0 0.575 0.02 0 0.58 0.02 0 0.585 0.02 0 0.59 0.02 0 0.595 0.02 0 0.6 0.02 0 0.605 0.02 0 0.61 0.02 0 0.615 0.02 0 0.62 0.02 0 0.625 0.02 0 0.63 0.02 0 0.635 0.02 0 0.64 0.02 0 0.645 0.02 0 0.65 0.02 0 0.655 0.02 0 0.66 0.02 0 0.665 0.02 0 0.67 0.02 0 0.675 0.02 0 0.68 0.02 0 0.685 0.02 0 0.69 0.02 0 0.695 0.02 0 0.7 0.02 0 0.705 0.02 0 0.71 0.02 0 0.715 0.02 0 0.72 0.02 0 0.725 0.02 0 0.73 0.02 0 0.735 0.02 0 0.74 0.02 0 0.745 0.02 0 0.75 0.02 0 0.755 0.02 0 0.76 0.02 0 0.765 0.02 0 0.77 0.02 0 0.775 0.02 0 0.78 0.02 0 0.785 0.02 0 0.79 0.02 0 0.795 0.02 0 0.8 0.02 0 0.805 0.02 0 0.81 0.02 0 0.815 0.02 0 0.82 0.02 0 0.825 0.02 0 0.83 0.02 0 0.835 0.02 0 0.84 0.02 0 0.845 0.02 0 0.85 0.02 0 0.855 0.02 0 0.86 0.02 0 0.865 0.02 0 0.87 0.02 0 0.875 0.02 0 0.88 0.02 0 0.885 0.02 0 0.89 0.02 0 0.895 0.02 0 0.9 0.02 0 0.905 0.02 0 0.91 0.02 0 0.915 0.02 0 0.92 0.02 0 0.925 0.02 0 0.93 0.02 0 0.935 0.02 0 0.94 0.02 0 0.945 0.02 0 0.95 0.02 0 0.955 0.02 0 0.96 0.02 0 0.965 0.02 0 0.97 0.02 0 0.975 0.02 0 0.98 0.02 0 0.985 0.02 0 0.99 0.02 0 0.995 0.02 0 1 0.02 0 0 0.04 0 0.005 0.04 0 0.01 0.04 0 0.015 0.04 0 0.02 0.04 0 0.025 0.04 0 0.03 0.04 0 0.035 0.04 0 0.04 0.04 0 0.045 0.04 0 0.05 0.04 0 0.055 0.04 0 0.06 0.04 0 0.065 0.04 0 0.07 0.04 0 0.075 0.04 0 0.08 0.04 0 0.085 0.04 0 0.09 0.04 0 0.095 0.04 0 0.1 0.04 0 0.105 0.04 0 0.11 0.04 0 0.115 0.04 0 0.12 0.04 0 0.125 0.04 0 0.13 0.04 0 0.135 0.04 0 0.14 0.04 0 0.145 0.04 0 0.15 0.04 0 0.155 0.04 0 0.16 0.04 0 0.165 0.04 0 0.17 0.04 0 0.175 0.04 0 0.18 0.04 0 0.185 0.04 0 0.19 0.04 0 0.195 0.04 0 0.2 0.04 0 0.205 0.04 0 0.21 0.04 0 0.215 0.04 0 0.22 0.04 0 0.225 0.04 0 0.23 0.04 0 0.235 0.04 0 0.24 0.04 0 0.245 0.04 0 0.25 0.04 0 0.255 0.04 0 0.26 0.04 0 0.265 0.04 0 0.27 0.04 0 0.275 0.04 0 0.28 0.04 0 0.285 0.04 0 0.29 0.04 0 0.295 0.04 0 0.3 0.04 0 0.305 0.04 0 0.31 0.04 0 0.315 0.04 0 0.32 0.04 0 0.325 0.04 0 0.33 0.04 0 0.335 0.04 0 0.34 0.04 0 0.345 0.04 0 0.35 0.04 0 0.355 0.04 0 0.36 0.04 0 0.365 0.04 0 0.37 0.04 0 0.375 0.04 0 0.38 0.04 0 0.385 0.04 0 0.39 0.04 0 0.395 0.04 0 0.4 0.04 0 0.405 0.04 0 0.41 0.04 0 0.415 0.04 0 0.42 0.04 0 0.425 0.04 0 0.43 0.04 0 0.435 0.04 0 0.44 0.04 0 0.445 0.04 0 0.45 0.04 0 0.455 0.04 0 0.46 0.04 0 0.465 0.04 0 0.47 0.04 0 0.475 0.04 0 0.48 0.04 0 0.485 0.04 0 0.49 0.04 0 0.495 0.04 0 0.5 0.04 0 0.505 0.04 0 0.51 0.04 0 0.515 0.04 0 0.52 0.04 0 0.525 0.04 0 0.53 0.04 0 0.535 0.04 0 0.54 0.04 0 0.545 0.04 0 0.55 0.04 0 0.555 0.04 0 0.56 0.04 0 0.565 0.04 0 0.57 0.04 0 0.575 0.04 0 0.58 0.04 0 0.585 0.04 0 0.59 0.04 0 0.595 0.04 0 0.6 0.04 0 0.605 0.04 0 0.61 0.04 0 0.615 0.04 0 0.62 0.04 0 0.625 0.04 0 0.63 0.04 0 0.635 0.04 0 0.64 0.04 0 0.645 0.04 0 0.65 0.04 0 0.655 0.04 0 0.66 0.04 0 0.665 0.04 0 0.67 0.04 0 0.675 0.04 0 0.68 0.04 0 0.685 0.04 0 0.69 0.04 0 0.695 0.04 0 0.7 0.04 0 0.705 0.04 0 0.71 0.04 0 0.715 0.04 0 0.72 0.04 0 0.725 0.04 0 0.73 0.04 0 0.735 0.04 0 0.74 0.04 0 0.745 0.04 0 0.75 0.04 0 0.755 0.04 0 0.76 0.04 0 0.765 0.04 0 0.77 0.04 0 0.775 0.04 0 0.78 0.04 0 0.785 0.04 0 0.79 0.04 0 0.795 0.04 0 0.8 0.04 0 0.805 0.04 0 0.81 0.04 0 0.815 0.04 0 0.82 0.04 0 0.825 0.04 0 0.83 0.04 0 0.835 0.04 0 0.84 0.04 0 0.845 0.04 0 0.85 0.04 0 0.855 0.04 0 0.86 0.04 0 0.865 0.04 0 0.87 0.04 0 0.875 0.04 0 0.88 0.04 0 0.885 0.04 0 0.89 0.04 0 0.895 0.04 0 0.9 0.04 0 0.905 0.04 0 0.91 0.04 0 0.915 0.04 0 0.92 0.04 0 0.925 0.04 0 0.93 0.04 0 0.935 0.04 0 0.94 0.04 0 0.945 0.04 0 0.95 0.04 0 0.955 0.04 0 0.96 0.04 0 0.965 0.04 0 0.97 0.04 0 0.975 0.04 0 0.98 0.04 0 0.985 0.04 0 0.99 0.04 0 0.995 0.04 0 1 0.04 0 0 0.06 0 0.005 0.06 0 0.01 0.06 0 0.015 0.06 0 0.02 0.06 0 0.025 0.06 0 0.03 0.06 0 0.035 0.06 0 0.04 0.06 0 0.045 0.06 0 0.05 0.06 0 0.055 0.06 0 0.06 0.06 0 0.065 0.06 0 0.07 0.06 0 0.075 0.06 0 0.08 0.06 0 0.085 0.06 0 0.09 0.06 0 0.095 0.06 0 0.1 0.06 0 0.105 0.06 0 0.11 0.06 0 0.115 0.06 0 0.12 0.06 0 0.125 0.06 0 0.13 0.06 0 0.135 0.06 0 0.14 0.06 0 0.145 0.06 0 0.15 0.06 0 0.155 0.06 0 0.16 0.06 0 0.165 0.06 0 0.17 0.06 0 0.175 0.06 0 0.18 0.06 0 0.185 0.06 0 0.19 0.06 0 0.195 0.06 0 0.2 0.06 0 0.205 0.06 0 0.21 0.06 0 0.215 0.06 0 0.22 0.06 0 0.225 0.06 0 0.23 0.06 0 0.235 0.06 0 0.24 0.06 0 0.245 0.06 0 0.25 0.06 0 0.255 0.06 0 0.26 0.06 0 0.265 0.06 0 0.27 0.06 0 0.275 0.06 0 0.28 0.06 0 0.285 0.06 0 0.29 0.06 0 0.295 0.06 0 0.3 0.06 0 0.305 0.06 0 0.31 0.06 0 0.315 0.06 0 0.32 0.06 0 0.325 0.06 0 0.33 0.06 0 0.335 0.06 0 0.34 0.06 0 0.345 0.06 0 0.35 0.06 0 0.355 0.06 0 0.36 0.06 0 0.365 0.06 0 0.37 0.06 0 0.375 0.06 0 0.38 0.06 0 0.385 0.06 0 0.39 0.06 0 0.395 0.06 0 0.4 0.06 0 0.405 0.06 0 0.41 0.06 0 0.415 0.06 0 0.42 0.06 0 0.425 0.06 0 0.43 0.06 0 0.435 0.06 0 0.44 0.06 0 0.445 0.06 0 0.45 0.06 0 0.455 0.06 0 0.46 0.06 0 0.465 0.06 0 0.47 0.06 0 0.475 0.06 0 0.48 0.06 0 0.485 0.06 0 0.49 0.06 0 0.495 0.06 0 0.5 0.06 0 0.505 0.06 0 0.51 0.06 0 0.515 0.06 0 0.52 0.06 0 0.525 0.06 0 0.53 0.06 0 0.535 0.06 0 0.54 0.06 0 0.545 0.06 0 0.55 0.06 0 0.555 0.06 0 0.56 0.06 0 0.565 0.06 0 0.57 0.06 0 0.575 0.06 0 0.58 0.06 0 0.585 0.06 0 0.59 0.06 0 0.595 0.06 0 0.6 0.06 0 0.605 0.06 0 0.61 0.06 0 0.615 0.06 0 0.62 0.06 0 0.625 0.06 0 0.63 0.06 0 0.635 0.06 0 0.64 0.06 0 0.645 0.06 0 0.65 0.06 0 0.655 0.06 0 0.66 0.06 0 0.665 0.06 0 0.67 0.06 0 0.675 0.06 0 0.68 0.06 0 0.685 0.06 0 0.69 0.06 0 0.695 0.06 0 0.7 0.06 0 0.705 0.06 0 0.71 0.06 0 0.715 0.06 0 0.72 0.06 0 0.725 0.06 0 0.73 0.06 0 0.735 0.06 0 0.74 0.06 0 0.745 0.06 0 0.75 0.06 0 0.755 0.06 0 0.76 0.06 0 0.765 0.06 0 0.77 0.06 0 0.775 0.06 0 0.78 0.06 0 0.785 0.06 0 0.79 0.06 0 0.795 0.06 0 0.8 0.06 0 0.805 0.06 0 0.81 0.06 0 0.815 0.06 0 0.82 0.06 0 0.825 0.06 0 0.83 0.06 0 0.835 0.06 0 0.84 0.06 0 0.845 0.06 0 0.85 0.06 0 0.855 0.06 0 0.86 0.06 0 0.865 0.06 0 0.87 0.06 0 0.875 0.06 0 0.88 0.06 0 0.885 0.06 0 0.89 0.06 0 0.895 0.06 0 0.9 0.06 0 0.905 0.06 0 0.91 0.06 0 0.915 0.06 0 0.92 0.06 0 0.925 0.06 0 0.93 0.06 0 0.935 0.06 0 0.94 0.06 0 0.945 0.06 0 0.95 0.06 0 0.955 0.06 0 0.96 0.06 0 0.965 0.06 0 0.97 0.06 0 0.975 0.06 0 0.98 0.06 0 0.985 0.06 0 0.99 0.06 0 0.995 0.06 0 1 0.06 0 0 0.08 0 0.005 0.08 0 0.01 0.08 0 0.015 0.08 0 0.02 0.08 0 0.025 0.08 0 0.03 0.08 0 0.035 0.08 0 0.04 0.08 0 0.045 0.08 0 0.05 0.08 0 0.055 0.08 0 0.06 0.08 0 0.065 0.08 0 0.07 0.08 0 0.075 0.08 0 0.08 0.08 0 0.085 0.08 0 0.09 0.08 0 0.095 0.08 0 0.1 0.08 0 0.105 0.08 0 0.11 0.08 0 0.115 0.08 0 0.12 0.08 0 0.125 0.08 0 0.13 0.08 0 0.135 0.08 0 0.14 0.08 0 0.145 0.08 0 0.15 0.08 0 0.155 0.08 0 0.16 0.08 0 0.165 0.08 0
[...]
			<PointData Scalars="VitesseX">
				<DataArray Name="VitesseX" type="Float32" format="ascii">
 0 1.05916e-14 -1.31091e-14 -4.74003e-14 -1.14448e-14 -8.2808e-15 -3.32043e-14 3.2123e-14 1.08078e-14 3.07338e-14 -9.80996e-15 1.66713e-14 -1.35806e-13 9.13619e-14 -9.10508e-14 1.39188e-14 7.68697e-15 -2.32208e-14 -6.53064e-14 3.83534e-15 -1.68126e-13 3.46537e-14 2.87662e-14 -6.37121e-14 -1.40568e-13 1.42712e-14 -2.80148e-14 -2.09444e-13 -5.70342e-14 -4.77685e-14 -2.02991e-13 -3.04952e-13 -1.4941e-13 -6.88433e-14 -1.66536e-13 -9.31285e-14 -1.09153e-13 -3.07963e-14 1.44041e-13 8.48094e-15 2.94286e-13 -2.10441e-13 2.68725e-13 -3.12804e-13 -9.94101e-14 -3.74704e-14 -2.74537e-13 -1.23399e-13 -7.68469e-14 -7.63149e-15 -3.03638e-13 1.322e-13 1.93512e-13 -5.08586e-13 -1.11624e-13 2.09266e-14 -3.38401e-13 1.68828e-14 -1.57523e-13 1.51803e-13 3.52036e-13 5.60811e-12 4.6295e-11 3.66359e-10 2.70327e-09 1.85323e-08 1.17515e-07 6.86083e-07 3.66861e-06 1.7856e-05 7.85252e-05 0.000309219 0.00107852 0.00328997 0.00866464 0.019519 0.0376229 0.0629536 0.0938843 0.128496 0.165402 0.203802 0.243156 0.283131 0.323586 0.36447 0.405799 0.447506 0.488056 0.527972 0.567115 0.606166 0.643954 0.681923 0.71842 0.754048 0.789164 0.820425 0.851429 0.876625 0.896134 0.913079 0.921954 0.926693 0.930856 0.931879 0.931699 0.931626 0.931607 0.931497 0.931206 0.930776 0.930316 0.929948 0.929667 0.929422 0.929197 0.929004 0.928849 0.928725 0.928623 0.928534 0.92845 0.928357 0.928241 0.92808 0.927815 0.927302 0.926245 0.924041 0.919491 0.910341 0.892649 0.860299 0.805481 0.72118 0.605743 0.468546 0.327703 0.203843 0.110715 0.0523451 0.0220678 0.00864534 0.00325733 0.00120249 0.000438339 0.000158192 5.65497e-05 2.00185e-05 7.014e-06 2.43097e-06 8.32964e-07 2.82022e-07 9.43071e-08 3.11342e-08 1.01434e-08 3.26021e-09 1.03347e-09 3.22821e-10 9.95431e-11 2.9869e-11 9.02213e-12 1.75678e-12 4.55583e-13 1.99259e-13 -4.15345e-13 1.34598e-13 1.65552e-13 -9.94952e-13 -4.71921e-13 -2.87566e-13 -2.05814e-13 7.24238e-13 -9.0614e-13 4.49468e-13 -3.5022e-14 -2.84927e-13 3.66298e-13 2.4119e-13 3.81359e-13 -8.99924e-13 -2.1924e-13 -2.08442e-13 -2.43811e-13 2.23978e-13 -1.66555e-13 -6.88631e-13 6.01648e-13 -5.56458e-13 -1.42899e-13 4.9998e-13 -2.64069e-13 1.01754e-12 -9.63016e-13 1.10238e-12 2.25279e-13 5.65002e-14 -2.53953e-13 -4.99189e-13 0 0 -2.02313e-14 -1.87065e-14 -8.57103e-15 -5.22513e-14 -3.56987e-14 2.67578e-14 -1.83678e-14 1.57949e-14 3.83907e-15 1.49938e-14 -3.0553e-14 7.5177e-14 -1.09695e-13 2.16711e-14 -2.14403e-14 -2.00438e-14 -2.88944e-14 1.37081e-14 -9.33381e-14 3.88578e-14 -1.13757e-13 -5.1591e-14 -7.92432e-14 4.86333e-14 -7.41168e-14 -1.47924e-13 -3.71475e-14 -1.98607e-13 -1.89933e-13 -1.06312e-13 -6.46966e-14 -2.01373e-13 -1.74265e-13 -1.39258e-13 -2.23731e-14 -1.67882e-14 -7.3049e-15 5.64942e-14 -1.59478e-14 -1.52145e-13 1.63548e-13 -2.62247e-13 1.55683e-13 -7.26625e-14 -3.04115e-13 -1.2788e-13 -1.37224e-13 -1.29127e-13 -1.9662e-13 1.07399e-13 -1.20235e-13 -3.07833e-13 3.51834e-13 -1.05114e-13 -3.48057e-13 1.50339e-15 -2.65116e-13 1.04787e-13 -4.69655e-14 7.56629e-13 5.34542e-12 4.62278e-11 3.6617e-10 2.70334e-09 1.85325e-08 1.17515e-07 6.86083e-07 3.66861e-06 1.7856e-05 7.85252e-05 0.000309219 0.00107852 0.00328997 0.00866464 0.019519 0.0376229 0.0629536 0.0938843 0.128496 0.165402 0.203802 0.243156 0.283131 0.323586 0.36447 0.405799 0.447506 0.488056 0.527972 0.567115 0.606166 0.643954 0.681923 0.71842 0.754048 0.789164 0.820425 0.851429 0.876625 0.896134 0.913079 0.921954 0.926693 0.930856 0.931879 0.931699 0.931626 0.931607 0.931497 0.931206 0.930776 0.930316 0.929948 0.929667 0.929422 0.929197 0.929004 0.928849 0.928725 0.928623 0.928534 0.92845 0.928357 0.928241 0.92808 0.927815 0.927302 0.926245 0.924041 0.919491 0.910341 0.892649 0.860299 0.805481 0.72118 0.605743 0.468546 0.327703 0.203843 0.110715 0.0523451 0.0220678 0.00864534 0.00325733 0.00120249 0.000438339 0.000158192 5.65497e-05 2.00185e-05 7.014e-06 2.43097e-06 8.32965e-07 2.82022e-07 9.43075e-08 3.11339e-08 1.01437e-08 3.26044e-09 1.03356e-09 3.22959e-10 9.92174e-11 3.00301e-11 8.43683e-12 2.87798e-12 4.84584e-13 -2.17985e-13 -2.36416e-13 -2.64968e-13 -5.53319e-13 -1.27283e-13 -1.30176e-13 -5.84364e-13 5.71612e-14 -7.15822e-13 7.97365e-13 -3.68682e-13 2.89984e-13 -5.62441e-14 -5.73804e-13 7.13174e-13 -2.77523e-13 1.32948e-13 -2.89966e-13 -6.39224e-13 2.63385e-13 -6.39933e-13 9.15459e-14 4.06224e-14 -7.06737e-13 2.28112e-13 4.14775e-13 -2.21453e-13 5.32983e-13 -2.21411e-13 6.58738e-13 -2.19271e-13 -2.79887e-13 -1.64789e-13 5.45457e-13 4.63121e-13 0 0 -1.5023e-14 -2.70439e-14 -3.74721e-14 -1.48424e-14 -2.17877e-14 -3.05877e-14 -1.37094e-14 -1.91718e-14 1.02594e-15 -3.22809e-14 2.09904e-14 1.69164e-14 5.69637e-14 -3.08291e-14 -1.80353e-14 -3.122e-14 2.09718e-14 -3.12362e-14 9.17451e-15 -3.98044e-14 -3.40808e-14 -8.84761e-14 -5.69536e-14 -6.50381e-14 -7.70899e-14 -6.88028e-14 -1.69835e-13 -9.07858e-14 -1.85578e-13 -1.00848e-13 -1.03245e-13 -8.11164e-14 -1.52307e-13 -6.22361e-14 -6.01444e-14 -4.27927e-14 4.77229e-14 -7.7754e-14 -1.92546e-14 -2.44952e-13 -2.5261e-14 1.9269e-13 -1.82697e-13 -8.99288e-14 -1.0595e-13 -2.78009e-13 -1.48854e-13 4.44293e-14 -3.20543e-14 -1.03462e-13 -1.3926e-13 9.57396e-15 -8.4501e-15 -1.77594e-13 7.18966e-14 -3.11768e-13 -6.75769e-14 1.21604e-13 -5.57271e-14 6.55081e-13 5.36528e-12 4.63253e-11 3.66126e-10 2.70317e-09 1.85326e-08 1.17515e-07 6.86083e-07 3.66861e-06 1.7856e-05 7.85252e-05 0.000309219 0.00107852 0.00328997 0.00866464 0.019519 0.0376229 0.0629536 0.0938843 0.128496 0.165402 0.203802 0.243156 0.283131 0.323586 0.36447 0.405799 0.447506 0.488056 0.527972 0.567115 0.606166 0.643954 0.681923 0.71842 0.754048 0.789164 0.820425 0.851429 0.876625 0.896134 0.913079 0.921954 0.926693 0.930856 0.931879 0.931699 0.931626 0.931607 0.931497 0.931206 0.930776 0.930316 0.929948 0.929667 0.929422 0.929197 0.929004 0.928849 0.928725 0.928623 0.928534 0.92845 0.928357 0.928241 0.92808 0.927815 0.927302 0.926245 0.924041 0.919491 0.910341 0.892649 0.860299 0.805481 0.72118 0.605743 0.468546 0.327703 0.203843 0.110715 0.0523451 0.0220678 0.00864534 0.00325733 0.00120249 0.000438339 0.000158192 5.65497e-05 2.00185e-05 7.014e-06 2.43097e-06 8.32964e-07 2.82022e-07 9.43073e-08 3.11344e-08 1.01439e-08 3.2606e-09 1.03368e-09 3.22912e-10 9.95388e-11 3.0122e-11 8.71585e-12 2.26134e-12 8.10018e-13 -3.56556e-14 -5.56555e-13 -4.06351e-13 -2.72756e-13 -2.52125e-13 -2.18095e-13 -1.82803e-13 -2.62515e-13 -1.83131e-13 -2.23093e-13 -5.07621e-14 -2.11764e-13 1.47776e-13 5.9283e-13 -6.25478e-13 -3.57741e-14 -2.51244e-13 1.34737e-13 -2.17261e-13 -6.42028e-13 -2.00358e-13 -6.24527e-13 3.62743e-14 -6.97024e-14 -2.7341e-13 -1.71607e-13 4.39456e-13 5.41123e-13 3.52459e-13 -4.80773e-13 -3.34152e-13 2.25373e-13 3.43462e-13 1.99887e-13 -3.32456e-13 0 0 -7.54135e-15 -2.66868e-14 -3.94213e-14 -2.0931e-14 -3.4162e-14 -2.24475e-14 -1.82388e-14 -4.29461e-15 -6.38755e-15 4.15554e-15 3.48051e-14 -3.44989e-14 2.68446e-14 5.22507e-16 -7.07008e-15 1.46379e-14 -4.45845e-15 -9.17565e-15 5.77405e-14 -8.25667e-14 -1.09875e-14 -4.16105e-14 -9.81112e-14 -9.50199e-14 -7.30738e-14 -5.90416e-14 -1.79731e-13 -6.49588e-14 -1.17074e-13 -2.40778e-13 -4.90293e-14 -1.24534e-13 -3.65404e-14 -6.16491e-14 -1.35728e-14 -1.73963e-13 1.38631e-14 7.66213e-14 -1.80491e-13 8.43258e-14 -1.28269e-14 -4.54201e-15 -1.86279e-13 -6.79436e-14 6.36994e-14 -2.41721e-14 -1.26261e-13 -1.43048e-13 -1.40255e-14 -4.09145e-14 2.32005e-16 1.08591e-14 -1.31776e-13 -2.39599e-13 6.3762e-14 -2.34755e-13 -5.5357e-14 -1.10405e-13 1.35173e-13 4.77186e-13 5.438e-12 4.64187e-11 3.66216e-10 2.70335e-09 1.85324e-08 1.17515e-07 6.86083e-07 3.66861e-06 1.7856e-05 7.85252e-05 0.000309219 0.00107852 0.00328997 0.00866464 0.019519 0.0376229 0.0629536 0.0938843 0.128496 0.165402 0.203802 0.243156 0.283131 0.323586 0.36447 0.405799 0.447506 0.488056 0.527972 0.567115 0.606166 0.643954 0.681923 0.71842 0.754048 0.789164 0.820425 0.851429 0.876625 0.896134 0.913079 0.921954 0.926693 0.930856 0.931879 0.931699 0.931626 0.931607 0.931497 0.931206 0.930776 0.930316 0.929948 0.929667 0.929422 0.929197 0.929004 0.928849 0.928725 0.928623 0.928534 0.92845 0.928357 0.928241 0.92808 0.927815 0.927302 0.926245 0.924041 0.919491 0.910341 0.892649 0.860299 0.805481 0.72118 0.605743 0.468546 0.327703 0.203843 0.110715 0.0523451 0.0220678 0.00864534 0.00325733 0.00120249 0.000438339 0.000158192 5.65497e-05 2.00185e-05 7.014e-06 2.43097e-06 8.32964e-07 2.82022e-07 9.43073e-08 3.11342e-08 1.01437e-08 3.26068e-09 1.03404e-09 3.23219e-10 9.96262e-11 3.01799e-11 8.92666e-12 2.31793e-12 3.70456e-13 -1.68093e-13 -6.2536e-14 -4.87869e-13 -3.35504e-13 -1.86546e-13 -5.16245e-13 -1.7546e-13 1.80555e-13 2.2019e-13 -8.53497e-13 1.50808e-13 7.94884e-14 -2.59848e-13 3.6064e-13 -2.37435e-13 -2.40075e-13 -4.41871e-13 2.99219e-13 -2.80359e-13 -3.44636e-13 -2.598e-13 -5.53853e-13 -7.03517e-13 1.26184e-13 1.4082e-13 -1.39693e-13 -2.44496e-13 2.45107e-13 9.62368e-13 -2.29592e-13 8.98874e-13 -1.21037e-14 -1.56248e-13 -7.89026e-13 2.45884e-13 0 0 -2.13786e-14 -1.18017e-14 -1.91184e-14 -4.58969e-14 -5.15451e-14 1.53714e-14 -4.36199e-14 1.68659e-14 -8.2261e-15 4.56926e-14 -2.85262e-14 6.98956e-14 -9.29666e-14 8.57677e-14 -3.88841e-15 2.64694e-14 -2.94811e-14 8.04814e-14 -9.6364e-14 -2.6063e-14 -1.20217e-13 -1.01044e-13 -1.30116e-13 4.18071e-14 -5.56699e-14 -1.92812e-13 -3.90638e-14 -1.82582e-13 -6.36563e-14 -1.07243e-13 -6.70836e-14 -1.66789e-13 -1.95227e-14 -1.51594e-14 3.78159e-14 -2.1234e-14 2.95039e-14 2.61355e-14 -9.27292e-14 -5.06645e-14 7.08823e-14 -4.98749e-13 1.66638e-13 -4.66159e-14 -1.42803e-13 6.30619e-14 -1.27513e-13 -1.52421e-13 -1.61628e-13 2.33945e-13 3.17471e-14 -1.23709e-13 1.68059e-13 -1.34497e-13 -3.4657e-13 -5.39529e-14 -2.42553e-13 1.18293e-14 1.91436e-13 8.59779e-13 5.49821e-12 4.65039e-11 3.66201e-10 2.70347e-09 1.85325e-08 1.17515e-07 6.86083e-07 3.66861e-06 1.7856e-05 7.85252e-05 0.000309219 0.00107852 0.00328997 0.00866464 0.019519 0.0376229 0.0629536 0.0938843 0.128496 0.165402 0.203802 0.243156 0.283131 0.323586 0.36447 0.405799 0.447506 0.488056 0.527972 0.567115 0.606166 0.643954 0.681923 0.71842 0.754048 0.789164 0.820425 0.851429 0.876625 0.896134 0.913079 0.921954 0.926693 0.930856 0.931879 0.931699 0.931626 0.931607 0.931497 0.931206 0.930776 0.930316 0.929948 0.929667 0.929422 0.929197 0.929004 0.928849 0.928725 0.928623 0.928534 0.92845 0.928357 0.928241 0.92808 0.927815 0.927302 0.926245 0.924041 0.919491 0.910341 0.892649 0.860299 0.805481 0.72118 0.605743 0.468546 0.327703 0.203843 0.110715 0.0523451 0.0220678 0.00864534 0.00325733 0.00120249 0.000438339 0.000158192 5.65497e-05 2.00185e-05 7.014e-06 2.43097e-06 8.32965e-07 2.82022e-07 9.43078e-08 3.11342e-08 1.01437e-08 3.26067e-09 1.03375e-09 3.23291e-10 9.95226e-11 3.00627e-11 9.02074e-12 3.01727e-12 -2.36626e-13 2.08228e-14 -3.35062e-13 -3.39274e-13 -7.16024e-13 -2.66823e-14 1.82721e-14 -4.46148e-13 3.07402e-13 -7.65165e-13 2.8193e-13 5.87775e-13 2.33085e-13 -3.3273e-13 -5.90545e-13 6.16144e-13 -8.42269e-13 1.06876e-13 -2.08886e-13 -1.95301e-13 1.84183e-13 -7.57051e-13 5.59326e-14 -2.33112e-13 -3.41127e-13 3.51478e-13 4.13699e-13 -5.69581e-13 2.16049e-13 -2.46382e-13 1.25533e-12 1.26878e-13 -6.44326e-13 -4.77788e-13 -2.01398e-13 7.81092e-13 0 0 -6.66635e-15 -1.36452e-17 -6.45967e-14 1.34412e-14 -1.52248e-14 -7.22574e-14 -9.32246e-15 -1.68045e-14 2.14304e-14 -2.12852e-14 -6.90448e-15 -4.35379e-14 1.85058e-13 -2.5561e-14 2.70922e-14 8.99769e-15 2.64663e-14 2.4119e-14 -9.93485e-14 -2.12443e-13 -2.4454e-14 -1.6387e-13 -8.31425e-14 -9.42566e-14 4.31327e-14 -1.37314e-13 -1.93484e-13 -7.66375e-14 6.77756e-14 7.50093e-14 -4.18157e-13 6.5929e-15 9.10972e-15 8.04871e-14 -6.58939e-14 1.44296e-13 1.10541e-13 -2.25428e-13 1.77392e-13 -1.61308e-13 -4.20641e-13 1.90187e-13 -2.83731e-13 -9.12873e-14 -5.41466e-14 -4.00328e-13 -1.49164e-13 2.51521e-13 2.62949e-14 -1.75641e-13 1.57181e-13 5.5919e-13 -6.29484e-13 -4.63818e-14 4.01712e-14 -6.03339e-13 3.75677e-14 1.20579e-13 2.46806e-13 9.14126e-13 5.76825e-12 4.66603e-11 3.66241e-10 2.70317e-09 1.85327e-08 1.17515e-07 6.86083e-07 3.66861e-06 1.7856e-05 7.85252e-05 0.000309219 0.00107852 0.00328997 0.00866464 0.019519 0.0376229 0.0629536 0.0938843 0.128496 0.165402 0.203802 0.243156 0.283131 0.323586 0.36447 0.405799 0.447506 0.488056 0.527972 0.567115 0.606166 0.643954 0.681923 0.71842 0.754048 0.789164 0.820425 0.851429 0.876625 0.896134 0.913079 0.921954 0.926693 0.930856 0.931879 0.931699 0.931626 0.931607 0.931497 0.931206 0.930776 0.930316 0.929948 0.929667 0.929422 0.929197 0.929004 0.928849 0.928725 0.928623 0.928534 0.92845 0.928357 0.928241 0.92808 0.927815 0.927302 0.926245 0.924041 0.919491 0.910341 0.892649 0.860299 0.805481 0.72118 0.605743 0.468546 0.327703 0.203843 0.110715 0.0523451 0.0220678 0.00864534 0.00325733 0.00120249 0.000438339 0.000158192 5.65497e-05 2.00185e-05 7.014e-06 2.43097e-06 8.32964e-07 2.82022e-07 9.43079e-08 3.11352e-08 1.01438e-08 3.26049e-09 1.03312e-09 3.2287e-10 9.99786e-11 2.98184e-11 9.76833e-12 1.92218e-12 -1.07712e-13 9.41751e-13 -1.60068e-12 1.49021e-13 -3.4361e-14 -9.24909e-13 4.21276e-13 -2.58196e-14 -5.91471e-13 -1.81087e-13 -6.76199e-13 1.95924e-12 -7.31325e-13 -2.26507e-14 7.97195e-13 -7.28956e-13 -3.39531e-13 -5.70815e-13 -3.86044e-13 8.05601e-13 -9.96998e-13 1.08625e-13 -3.79128e-13 2.43483e-13 9.41094e-13 -1.13819e-12 -2.08882e-13 1.17163e-12 -3.05905e-13 -2.52216e-13 -2.72193e-13 -6.71372e-13 -2.86464e-14 4.29922e-13 2.30163e-13 -1.01993e-12 0
				</DataArray>
				<DataArray Name="VitesseY" type="Float32" format="ascii">