<?xml version="1.0"?>
<VTKFile type="PolyData">
	<PolyData>
		<Piece NumberOfPoints="1206" NumberOfPolys="1000">
			<Points>
				<DataArray type="Float32" NumberOfComponents="3" format="ascii">
 0 0 0 0.005 0 0 0.01 0 0 0.015 0 0 0.02 0 0 0.025 0 0 0.03 0 0 0.035 0 0 0.04 0 0 0.045 0 0 0.05 0 0 0.055 0 0 0.06 0 0 0.065 0 0 0.07 0 0 0.075 0 0 0.08 0 0 0.085 0 0 0.09 0 0 0.095 0 0 0.1 0 0 0.105 0 0 0.11 0 0 0.115 0 0 0.12 0 0 0.125 0 0 0.13 0 0 0.135 0 0 0.14 0 0 0.145 0 0 0.15 0 0 0.155 0 0 0.16 0 0 0.165 0 0 0.17 0 0 0.175 0 0 0.18 0 0 0.185 0 0 0.19 0 0 0.195 0 0 0.2 0 0 0.205 0 0 0.21 0 0 0.215 0 0 0.22 0 0 0.225 0 0 0.23 0 0 0.235 0 0 0.24 0 0 0.245 0 0 0.25 0 0 0.255 0 0 0.26 0 0 0.265 0 0 0.27 0 0 0.275 0 0 0.28 0 0 0.285 0 0 0.29 0 0 0.295 0 0 0.3 0 0 0.305 0 0 0.31 0 0 0.315 0 0 0.32 0 0 0.325 0 0 0.33 0 0 0.335 0 0 0.34 0 0 0.345 0 0 0.35 0 0 0.355 0 0 0.36 0 0 0.365 0 0 0.37 0 0 0.375 0 0 0.38 0 0 0.385 0 0 0.39 0 0 0.395 0 0 0.4 0 0 0.405 0 0 0.41 0 0 0.415 0 0 0.42 0 0 0.425 0 0 0.43 0 0 0.435 0 0 0.44 0 0 0.445 0 0 0.45 0 0 0.455 0 0 0.46 0 0 0.465 0 0 0.47 0 0 0.475 0 0 0.48 0 0 0.485 0 0 0.49 0 0 0.495 0 0 0.5 0 0 0.505 0 0 0.51 0 0 0.515 0 0 0.52 0 0 0.525 0 0 0.53 0 0 0.535 0 0 0.54 0 0 0.545 0 0 0.55 0 0 0.555 0 0 0.56 0 0 0.565 0 0 0.57 0 0 0.575 0 0 0.58 0 0 0.585 0 0 0.59 0 0 0.595 0 0 0.6 0 0 0.605 0 0 0.61 0 0 0.615 0 0 0.62 0 0 0.625 0 0 0.63 0 0 0.635 0 0 0.64 0 0 0.645 0 0 0.65 0 0 0.655 0 0 0.66 0 0 0.665 0 0 0.67 0 0 0.675 0 0 0.68 0 0 0.685 0 0 0.69 0 0 0.695 0 0 0.7 0 0 0.705 0 0 0.71 0 0 0.715 0 0 0.72 0 0 0.725 0 0 0.73 0 0 0.735 0 0 0.74 0 0 0.745 0 0 0.75 0 0 0.755 0 0 0.76 0 0 0.765 0 0 0.77 0 0 0.775 0 0 0.78 0 0 0.785 0 0 0.79 0 0 0.795 0 0 0.8 0 0 0.805 0 0 0.81 0 0 0.815 0 0 0.82 0 0 0.825 0 0 0.83 0 0 0.835 0 0 0.84 0 0 0.845 0 0 0.85 0 0 0.855 0 0 0.86 0 0 0.865 0 0 0.87 0 0 0.875 0 0 0.88 0 0 0.885 0 0 0.89 0 0 0.895 0 0 0.9 0 0 0.905 0 0 0.91 0 0 0.915 0 0 0.92 0 0 0.925 0 0 0.93 0 0 0.935 0 0 0.94 0 0 0.945 0 0 0.95 0 0 0.955 0 0 0.96 0 0 0.965 0 0 0.97 0 0 0.975 0 0 0.98 0 0 0.985 0 0 0.99 0 0 0.995 0 0 1 0 0 0 0.02 0 0.005 0.02 0 0.01 0.02 0 0.015 0.02 0 0.02 0.02 0 0.025 0.02 0 0.03 0.02 0 0.035 0.02 0 0.04 0.02 0 0.045 0.02 0 0.05 0.02 0 0.055 0.02 0 0.06 0.02 0 0.065 0.02 0 0.07 0.02 0 0.075 0.02 0 0.08 0.02 0 0.085 0.02 0 0.09 0.02 0 0.095 0.02 0 0.1 0.02 0 0.105 0.02 0 0.11 0.02 0 0.115 0.02 0 0.12 0.02 0 0.125 0.02 0 0.13 0.02 0 0.135 0.02 0 0.14 0.02 0 0.145 0.02 0 0.15 0.02 0 0.155 0.02 0 0.16 0.02 0 0.165 0.02 0 0.17 0.02 0 0.175 0.02 0 0.18 0.02 0 0.185 0.02 0 0.19 0.02 0 0.195 0.02 0 0.2 0.02 0 0.205 0.02 0 0.21 0.02 0 0.215 0.02 0 0.22 0.02 0 0.225 0.02 0 0.23 0.02 0 0.235 0.02 0 0.24 0.02 0 0.245 0.02 0 0.25 0.02 0 0.255 0.02 0 0.26 0.02 0 0.265 0.02 0 0.27 0.02 0 0.275 0.02 0 0.28 0.02 0 0.285 0.02 0 0.29 0.02 0 0.295 0.02 0 0.3 0.02 0 0.305 0.02 0 0.31 0.02 0 0.315 0.02 0 0.32 0.02 0 0.325 0.02 0 0.33 0.02 0 0.335 0.02 0 0.34 0.02 0 0.345 0.02 0 0.35 0.02 0 0.355 0.02 0 0.36 0.02 0 0.365 0.02 0 0.37 0.02 0 0.375 0.02 0 0.38 0.02 0 0.385 0.02 0 0.39 0.02 0 0.395 0.02 0 0.4 0.02 0 0.405 0.02 0 0.41 0.02 0 0.415 0.02 0 0.42 0.02 0 0.425 0.02 0 0.43 0.02 0 0.435 0.02 0 0.44 0.02 0 0.445 0.02 0 0.45 0.02 0 0.455 0.02 0 0.46 0.02 0 0.465 0.02 0 0.47 0.02 0 0.475 0.02 0 0.48 0.02 0 0.485 0.02 0 0.49 0.02 0 0.495 0.02 0 0.5 0.02 0 0.505 0.02 0 0.51 0.02 0 0.515 0.02 0 0.52 0.02 0 0.525 0.02 0 0.53 0.02 0 0.535 0.02 0 0.54 0.02 0 0.545 0.02 0 0.55 0.02 0 0.555 0.02 0 0.56 0.02 0 0.565 0.02 0 0.57 0.02 0 0.575 0.02 0 0.58 0.02 0 0.585 0.02 0 0.59 0.02 0 0.595 0.02 0 0.6 0.02 0 0.605 0.02 0 0.61 0.02 0 0.615 0.02 0 0.62 0.02 0 0.625 0.02 0 0.63 0.02 0 0.635 0.02 0 0.64 0.02 0 0.645 0.02 0 0.65 0.02 0 0.655 0.02 0 0.66 0.02 0 0.665 0.02 0 0.67 0.02 0 0.675 0.02 0 0.68 0.02 0 0.685 0.02 0 0.69 0.02 0 0.695 0.02 0 0.7 0.02 0 0.705 0.02 0 0.71 0.02 0 0.715 0.02 0 0.72 0.02 0 0.725 0.02 0 0.73 0.02 0 0.735 0.02 0 0.74 0.02 0 0.745 0.02 0 0.75 0.02 0 0.755 0.02 0 0.76 0.02 0 0.765 0.02 0 0.77 0.02 0 0.775 0.02 0 0.78 0.02 0 0.785 0.02 0 0.79 0.02 0 0.795 0.02 0 0.8 0.02 0 0.805 0.02 0 0.81 0.02 0 0.815 0.02 0 0.82 0.02 0 0.825 0.02 0 0.83 0.02 0 0.835 0.02 0 0.84 0.02 0 0.845 0.02 0 0.85 0.02 0 0.855 0.02 0 0.86 0.02 0 0.865 0.02 0 0.87 0.02 0 0.875 0.02 0 0.88 0.02 0 0.885 0.02 0 0.89 0.02 0 0.895 0.02 0 0.9 0.02 0 0.905 0.02 0 0.91 0.02 0 0.915 0.02 0 0.92 0.02 0 0.925 0.02 0 0.93 0.02 0 0.935 0.02 0 0.94 0.02 0 0.945 0.02 0 0.95 0.02 0 0.955 0.02 0 0.96 0.02 0 0.965 0.02 0 0.97 0.02 0 0.975 0.02 0 0.98 0.02 0 0.985 0.02 0 0.99 0.02 0 0.995 0.02 0 1 0.02 0 0 0.04 0 0.005 0.04 0 0.01 0.04 0 0.015 0.04 0 0.02 0.04 0 0.025 0.04 0 0.03 0.04 0 0.035 0.04 0 0.04 0.04 0 0.045 0.04 0 0.05 0.04 0 0.055 0.04 0 0.06 0.04 0 0.065 0.04 0 0.07 0.04 0 0.075 0.04 0 0.08 0.04 0 0.085 0.04 0 0.09 0.04 0 0.095 0.04 0 0.1 0.04 0 0.105 0.04 0 0.11 0.04 0 0.115 0.04 0 0.12 0.04 0 0.125 0.04 0 0.13 0.04 0 0.135 0.04 0 0.14 0.04 0 0.145 0.04 0 0.15 0.04 0 0.155 0.04 0 0.16 0.04 0 0.165 0.04 0 0.17 0.04 0 0.175 0.04 0 0.18 0.04 0 0.185 0.04 0 0.19 0.04 0 0.195 0.04 0 0.2 0.04 0 0.205 0.04 0 0.21 0.04 0 0.215 0.04 0 0.22 0.04 0 0.225 0.04 0 0.23 0.04 0 0.235 0.04 0 0.24 0.04 0 0.245 0.04 0 0.25 0.04 0 0.255 0.04 0 0.26 0.04 0 0.265 0.04 0 0.27 0.04 0 0.275 0.04 0 0.28 0.04 0 0.285 0.04 0 0.29 0.04 0 0.295 0.04 0 0.3 0.04 0 0.305 0.04 0 0.31 0.04 0 0.315 0.04 0 0.32 0.04 0 0.325 0.04 0 0.33 0.04 0 0.335 0.04 0 0.34 0.04 0 0.345 0.04 0 0.35 0.04 0 0.355 0.04 0 0.36 0.04 0 0.365 0.04 0 0.37 0.04 0 0.375 0.04 0 0.38 0.04 0 0.385 0.04 0 0.39 0.04 0 0.395 0.04 0 0.4 0.04 0 0.405 0.04 0 0.41 0.04 0 0.415 0.04 0 0.42 0.04 0 0.425 0.04 0 0.43 0.04 0 0.435 0.04 0 0.44 0.04 0 0.445 0.04 0 0.45 0.04 0 0.455 0.04 0 0.46 0.04 0 0.465 0.04 0 0.47 0.04 0 0.475 0.04 0 0.48 0.04 0 0.485 0.04 0 0.49 0.04 0 0.495 0.04 0 0.5 0.04 0 0.505 0.04 0 0.51 0.04 0 0.515 0.04 0 0.52 0.04 0 0.525 0.04 0 0.53 0.04 0 0.535 0.04 0 0.54 0.04 0 0.545 0.04 0 0.55 0.04 0 0.555 0.04 0 0.56 0.04 0 0.565 0.04 0 0.57 0.04 0 0.575 0.04 0 0.58 0.04 0 0.585 0.04 0 0.59 0.04 0 0.595 0.04 0 0.6 0.04 0 0.605 0.04 0 0.61 0.04 0 0.615 0.04 0 0.62 0.04 0 0.625 0.04 0 0.63 0.04 0 0.635 0.04 0 0.64 0.04 0 0.645 0.04 0 0.65 0.04 0 0.655 0.04 0 0.66 0.04 0 0.665 0.04 0 0.67 0.04 0 0.675 0.04 0 0.68 0.04 0 0.685 0.04 0 0.69 0.04 0 0.695 0.04 0 0.7 0.04 0 0.705 0.04 0 0.71 0.04 0 0.715 0.04 0 0.72 0.04 0 0.725 0.04 0 0.73 0.04 0 0.735 0.04 0 0.74 0.04 0 0.745 0.04 0 0.75 0.04 0 0.755 0.04 0 0.76 0.04 0 0.765 0.04 0 0.77 0.04 0 0.775 0.04 0 0.78 0.04 0 0.785 0.04 0 0.79 0.04 0 0.795 0.04 0 0.8 0.04 0 0.805 0.04 0 0.81 0.04 0 0.815 0.04 0 0.82 0.04 0 0.825 0.04 0 0.83 0.04 0 0.835 0.04 0 0.84 0.04 0 0.845 0.04 0 0.85 0.04 0 0.855 0.04 0 0.86 0.04 0 0.865 0.04 0 0.87 0.04 0 0.875 0.04 0 0.88 0.04 0 0.885 0.04 0 0.89 0.04 0 0.895 0.04 0 0.9 0.04 0 0.905 0.04 0 0.91 0.04 0 0.915 0.04 0 0.92 0.04 0 0.925 0.04 0 0.93 0.04 0 0.935 0.04 0 0.94 0.04 0 0.945 0.04 0 0.95 0.04 0 0.955 0.04 0 0.96 0.04 0 0.965 0.04 0 0.97 0.04 0 0.975 0.04 0 0.98 0.04 0 0.985 0.04 0 0.99 0.04 0 0.995 0.04 0 1 0.04 0 0 0.06 0 0.005 0.06 0 0.01 0.06 0 0.015 0.06 0 0.02 0.06 0 0.025 0.06 0 0.03 0.06 0 0.035 0.06 0 0.04 0.06 0 0.045 0.06 0 0.05 0.06 0 0.055 0.06 0 0.06 0.06 0 0.065 0.06 0 0.07 0.06 0 0.075 0.06 0 0.08 0.06 0 0.085 0.06 0 0.09 0.06 0 0.095 0.06 0 0.1 0.06 0 0.105 0.06 0 0.11 0.06 0 0.115 0.06 0 0.12 0.06 0 0.125 0.06 0 0.13 0.06 0 0.135 0.06 0 0.14 0.06 0 0.145 0.06 0 0.15 0.06 0 0.155 0.06 0 0.16 0.06 0 0.165 0.06 0 0.17 0.06 0 0.175 0.06 0 0.18 0.06 0 0.185 0.06 0 0.19 0.06 0 0.195 0.06 0 0.2 0.06 0 0.205 0.06 0 0.21 0.06 0 0.215 0.06 0 0.22 0.06 0 0.225 0.06 0 0.23 0.06 0 0.235 0.06 0 0.24 0.06 0 0.245 0.06 0 0.25 0.06 0 0.255 0.06 0 0.26 0.06 0 0.265 0.06 0 0.27 0.06 0 0.275 0.06 0 0.28 0.06 0 0.285 0.06 0 0.29 0.06 0 0.295 0.06 0 0.3 0.06 0 0.305 0.06 0 0.31 0.06 0 0.315 0.06 0 0.32 0.06 0 0.325 0.06 0 0.33 0.06 0 0.335 0.06 0 0.34 0.06 0 0.345 0.06 0 0.35 0.06 0 0.355 0.06 0 0.36 0.06 0 0.365 0.06 0 0.37 0.06 0 0.375 0.06 0 0.38 0.06 0 0.385 0.06 0 0.39 0.06 0 0.395 0.06 0 0.4 0.06 0 0.405 0.06 0 0.41 0.06 0 0.415 0.06 0 0.42 0.06 0 0.425 0.06 0 0.43 0.06 0 0.435 0.06 0 0.44 0.06 0 0.445 0.06 0 0.45 0.06 0 0.455 0.06 0 0.46 0.06 0 0.465 0.06 0 0.47 0.06 0 0.475 0.06 0 0.48 0.06 0 0.485 0.06 0 0.49 0.06 0 0.495 0.06 0 0.5 0.06 0 0.505 0.06 0 0.51 0.06 0 0.515 0.06 0 0.52 0.06 0 0.525 0.06 0 0.53 0.06 0 0.535 0.06 0 0.54 0.06 0 0.545 0.06 0 0.55 0.06 0 0.555 0.06 0 0.56 0.06 0 0.565 0.06 0 0.57 0.06 0 0.575 0.06 0 0.58 0.06 0 0.585 0.06 0 0.59 0.06 0 0.595 0.06 0 0.6 0.06 0 0.605 0.06 0 0.61 0.06 0 0.615 0.06 0 0.62 0.06 0 0.625 0.06 0 0.63 0.06 0 0.635 0.06 0 0.64 0.06 0 0.645 0.06 0 0.65 0.06 0 0.655 0.06 0 0.66 0.06 0 0.665 0.06 0 0.67 0.06 0 0.675 0.06 0 0.68 0.06 0 0.685 0.06 0 0.69 0.06 0 0.695 0.06 0 0.7 0.06 0 0.705 0.06 0 0.71 0.06 0 0.715 0.06 0 0.72 0.06 0 0.725 0.06 0 0.73 0.06 0 0.735 0.06 0 0.74 0.06 0 0.745 0.06 0 0.75 0.06 0 0.755 0.06 0 0.76 0.06 0 0.765 0.06 0 0.77 0.06 0 0.775 0.06 0 0.78 0.06 0 0.785 0.06 0 0.79 0.06 0 0.795 0.06 0 0.8 0.06 0 0.805 0.06 0 0.81 0.06 0 0.815 0.06 0 0.82 0.06 0 0.825 0.06 0 0.83 0.06 0 0.835 0.06 0 0.84 0.06 0 0.845 0.06 0 0.85 0.06 0 0.855 0.06 0 0.86 0.06 0 0.865 0.06 0 0.87 0.06 0 0.875 0.06 0 0.88 0.06 0 0.885 0.06 0 0.89 0.06 0 0.895 0.06 0 0.9 0.06 0 0.905 0.06 0 0.91 0.06 0 0.915 0.06 0 0.92 0.06 0 0.925 0.06 0 0.93 0.06 0 0.935 0.06 0 0.94 0.06 0 0.945 0.06 0 0.95 0.06 0 0.955 0.06 0 0.96 0.06 0 0.965 0.06 0 0.97 0.06 0 0.975 0.06 0 0.98 0.06 0 0.985 0.06 0 0.99 0.06 0 0.995 0.06 0 1 0.06 0 0 0.08 0 0.005 0.08 0 0.01 0.08 0 0.015 0.08 0 0.02 0.08 0 0.025 0.08 0 0.03 0.08 0 0.035 0.08 0 0.04 0.08 0 0.045 0.08 0 0.05 0.08 0 0.055 0.08 0 0.06 0.08 0 0.065 0.08 0 0.07 0.08 0 0.075 0.08 0 0.08 0.08 0 0.085 0.08 0 0.09 0.08 0 0.095 0.08 0 0.1 0.08 0 0.105 0.08 0 0.11 0.08 0 0.115 0.08 0 0.12 0.08 0 0.125 0.08 0 0.13 0.08 0 0.135 0.08 0 0.14 0.08 0 0.145 0.08 0 0.15 0.08 0 0.155 0.08 0 0.16 0.08 0 0.165 0.08 0
[...]
			<PointData Scalars="VitesseX">
				<DataArray Name="VitesseX" type="Float32" format="ascii">
 0 -7.11732e-15 4.40098e-15 5.82987e-17 5.1354e-15 -6.51758e-15 2.66623e-15 -4.39568e-14 -2.78568e-14 -3.09068e-15 -3.29199e-14 1.79207e-14 -3.46293e-14 -1.2684e-15 5.03199e-15 -2.91875e-14 -6.71768e-15 -2.88892e-14 6.891e-14 -4.31672e-14 -7.49924e-15 -7.08653e-14 -1.30988e-13 -2.95702e-14 -3.17327e-14 -1.23486e-13 -1.79458e-13 2.14433e-14 -1.42287e-13 2.21784e-14 -4.04861e-15 1.34443e-13 -1.83744e-14 -5.36936e-14 -6.47445e-14 7.75575e-14 -1.8161e-13 -2.20437e-13 1.83468e-14 -3.05244e-13 -1.77272e-13 -2.42016e-14 -2.5799e-13 -2.3744e-14 -7.471e-14 -1.12401e-13 1.42347e-13 1.44666e-14 -2.13527e-13 -1.46327e-13 7.90033e-14 2.4334e-14 1.67339e-12 1.15268e-11 8.21595e-11 5.40921e-10 3.35871e-09 1.95541e-08 1.06448e-07 5.39904e-07 2.54112e-06 1.10466e-05 4.41085e-05 0.000160712 0.000530132 0.00156864 0.004122 0.00953193 0.0193027 0.0343438 0.0544112 0.0783788 0.104977 0.133248 0.162599 0.192676 0.223216 0.254081 0.285197 0.316525 0.348047 0.379767 0.4117 0.44379 0.475247 0.506446 0.537226 0.567919 0.598101 0.628335 0.657975 0.687487 0.716624 0.7449 0.773317 0.800055 0.826354 0.850919 0.872033 0.89145 0.906144 0.916212 0.924368 0.928352 0.92989 0.931296 0.931596 0.931485 0.931284 0.93107 0.930851 0.930596 0.930289 0.929951 0.929639 0.929384 0.929171 0.928987 0.928827 0.928691 0.928578 0.928483 0.928401 0.928331 0.928268 0.928212 0.928161 0.928115 0.928072 0.928034 0.927998 0.927964 0.927927 0.92788 0.927815 0.927707 0.927505 0.9271 0.926274 0.924589 0.921188 0.914439 0.901412 0.87729 0.835216 0.767521 0.66925 0.543118 0.403095 0.268986 0.158611 0.0815897 0.0369397 0.015231 0.00595384 0.00226765 0.000852843 0.00031843 0.000118248 4.36887e-05 1.60565e-05 5.86761e-06 2.13102e-06 7.68791e-07 2.75363e-07 9.7875e-08 3.45069e-08 1.20619e-08 4.17878e-09 1.43414e-09 4.87612e-10 1.63844e-10 5.44775e-11 1.77883e-11 5.79128e-12 1.26287e-12 7.43458e-13 -4.58965e-13 -4.77696e-13 -1.11172e-13 -3.20938e-13 2.77038e-14 -1.22066e-13 -4.56667e-13 8.46646e-13 -9.32855e-13 7.24747e-13 1.76593e-13 -4.4298e-13 7.06255e-13 3.47359e-13 -6.44601e-13 7.35421e-13 -2.55567e-13 2.05673e-14 2.52847e-13 1.80719e-13 -2.66983e-13 7.09959e-13 6.45512e-13 0 0 1.70846e-14 2.20038e-15 1.19296e-14 7.83777e-15 -7.36898e-15 -1.21901e-14 -1.05367e-14 -1.02484e-14 -2.37107e-14 4.43089e-15 -3.86233e-14 2.67192e-14 -5.40673e-14 -1.95142e-14 3.23939e-14 -1.7432e-14 -3.34621e-14 -7.96092e-14 5.28482e-14 -3.06686e-14 -6.56407e-14 3.49314e-14 -1.56645e-13 -1.17609e-13 -9.62001e-14 -2.88486e-14 -1.40219e-13 -5.114e-15 2.72833e-14 5.60345e-14 -6.04872e-14 -5.69173e-15 -6.0071e-15 -2.20152e-14 -1.7586e-13 -3.16359e-14 -5.88023e-14 -2.57379e-13 -1.36384e-14 -1.73979e-13 -2.19974e-13 6.94527e-14 -1.25725e-13 -6.2189e-14 4.38055e-14 -1.44424e-13 -6.91846e-14 1.30423e-13 4.97073e-14 -1.59891e-13 1.45268e-13 1.59815e-12 1.17464e-11 8.16384e-11 5.41203e-10 3.35866e-09 1.95542e-08 1.06448e-07 5.39904e-07 2.54112e-06 1.10466e-05 4.41085e-05 0.000160712 0.000530132 0.00156864 0.004122 0.00953193 0.0193027 0.0343438 0.0544112 0.0783788 0.104977 0.133248 0.162599 0.192676 0.223216 0.254081 0.285197 0.316525 0.348047 0.379767 0.4117 0.44379 0.475247 0.506446 0.537226 0.567919 0.598101 0.628335 0.657975 0.687487 0.716624 0.7449 0.773317 0.800055 0.826354 0.850919 0.872033 0.89145 0.906144 0.916212 0.924368 0.928352 0.92989 0.931296 0.931596 0.931485 0.931284 0.93107 0.930851 0.930596 0.930289 0.929951 0.929639 0.929384 0.929171 0.928987 0.928827 0.928691 0.928578 0.928483 0.928401 0.928331 0.928268 0.928212 0.928161 0.928115 0.928072 0.928034 0.927998 0.927964 0.927927 0.92788 0.927815 0.927707 0.927505 0.9271 0.926274 0.924589 0.921188 0.914439 0.901412 0.87729 0.835216 0.767521 0.66925 0.543118 0.403095 0.268986 0.158611 0.0815897 0.0369397 0.015231 0.00595384 0.00226765 0.000852843 0.00031843 0.000118248 4.36887e-05 1.60565e-05 5.86761e-06 2.13102e-06 7.68791e-07 2.75364e-07 9.78752e-08 3.45068e-08 1.20622e-08 4.17866e-09 1.43426e-09 4.87323e-10 1.64032e-10 5.45275e-11 1.77278e-11 5.3702e-12 2.02203e-12 -4.28723e-13 -4.58953e-15 -5.77145e-14 -5.62224e-13 9.51822e-14 -6.9794e-13 -7.28293e-14 6.54798e-13 -5.23197e-13 6.29405e-13 -3.80546e-13 -7.43285e-14 3.56871e-13 -1.12783e-13 -1.04481e-14 3.62015e-13 -2.10405e-13 2.33785e-13 -2.1837e-13 1.47118e-13 4.06387e-13 5.9438e-13 -1.84894e-13 -3.81444e-13 0 0 1.10871e-14 2.25891e-14 1.56302e-14 8.11635e-15 6.38864e-15 2.22832e-14 -1.97933e-14 1.35668e-14 1.74596e-14 -1.47968e-14 4.33487e-15 -4.51318e-14 -5.93285e-15 -4.5153e-14 -6.02836e-14 -3.41367e-14 -2.82416e-14 1.45652e-14 -6.61199e-14 -2.46322e-14 -2.35875e-14 -1.11662e-13 -2.76588e-14 -9.06247e-14 -1.19936e-13 -5.10569e-14 -3.11976e-15 -5.0763e-14 -6.30308e-14 -5.58969e-14 7.20891e-14 -1.98257e-14 -5.26397e-14 -1.00663e-13 -1.7039e-13 -4.12313e-14 9.2309e-15 -1.64523e-13 -7.22828e-14 -1.5819e-13 -1.10882e-13 4.36404e-14 -3.38048e-14 -3.82447e-14 -6.76236e-14 -8.55294e-15 -5.42974e-14 -5.42123e-14 6.00392e-14 -6.43707e-14 2.33989e-13 1.6486e-12 1.16712e-11 8.19207e-11 5.41078e-10 3.35855e-09 1.95543e-08 1.06448e-07 5.39904e-07 2.54112e-06 1.10466e-05 4.41085e-05 0.000160712 0.000530132 0.00156864 0.004122 0.00953193 0.0193027 0.0343438 0.0544112 0.0783788 0.104977 0.133248 0.162599 0.192676 0.223216 0.254081 0.285197 0.316525 0.348047 0.379767 0.4117 0.44379 0.475247 0.506446 0.537226 0.567919 0.598101 0.628335 0.657975 0.687487 0.716624 0.7449 0.773317 0.800055 0.826354 0.850919 0.872033 0.89145 0.906144 0.916212 0.924368 0.928352 0.92989 0.931296 0.931596 0.931485 0.931284 0.93107 0.930851 0.930596 0.930289 0.929951 0.929639 0.929384 0.929171 0.928987 0.928827 0.928691 0.928578 0.928483 0.928401 0.928331 0.928268 0.928212 0.928161 0.928115 0.928072 0.928034 0.927998 0.927964 0.927927 0.92788 0.927815 0.927707 0.927505 0.9271 0.926274 0.924589 0.921188 0.914439 0.901412 0.87729 0.835216 0.767521 0.66925 0.543118 0.403095 0.268986 0.158611 0.0815897 0.0369397 0.015231 0.00595384 0.00226765 0.000852843 0.00031843 0.000118248 4.36887e-05 1.60565e-05 5.86761e-06 2.13102e-06 7.68791e-07 2.75364e-07 9.78753e-08 3.45068e-08 1.20622e-08 4.17875e-09 1.43418e-09 4.87505e-10 1.63971e-10 5.46651e-11 1.76771e-11 5.57735e-12 1.38134e-12 3.83195e-13 -1.93722e-13 -3.46535e-13 -2.65192e-13 -2.4926e-13 -2.1405e-13 -3.42676e-13 -2.74978e-13 5.77153e-13 -1.45223e-13 -5.59643e-14 1.94173e-13 -3.33475e-13 2.74041e-13 -1.37818e-14 -3.85718e-14 2.22082e-15 9.06117e-14 8.48099e-13 -2.85687e-13 1.40547e-13 2.63579e-13 3.59416e-13 -7.60708e-14 0 0 -1.10679e-15 2.43906e-14 1.78744e-14 1.48216e-14 5.784e-15 4.58033e-14 -3.69236e-15 -5.03732e-15 2.36226e-14 -1.52818e-15 1.48834e-14 -1.19089e-14 -3.09618e-14 -8.8559e-14 -5.29272e-14 -3.98125e-14 -5.1205e-14 -2.68813e-15 -2.62334e-14 -9.22115e-14 -9.99608e-14 -6.40422e-14 -1.41138e-14 -1.05703e-13 -6.48156e-14 -1.70276e-13 3.63621e-15 -9.38512e-14 6.04232e-14 -3.1876e-14 2.93238e-14 5.37729e-14 -9.64302e-14 -1.56272e-13 -4.05472e-14 -5.30387e-14 -9.96008e-14 -6.16108e-14 -1.79566e-13 3.54353e-14 -1.6429e-13 -1.41605e-13 -8.27365e-14 9.2764e-15 -8.8128e-14 -4.86177e-14 -2.33121e-15 -8.75981e-14 -2.01911e-13 4.50626e-14 1.00312e-13 2.00943e-12 1.17117e-11 8.2046e-11 5.41166e-10 3.3586e-09 1.95542e-08 1.06448e-07 5.39904e-07 2.54112e-06 1.10466e-05 4.41085e-05 0.000160712 0.000530132 0.00156864 0.004122 0.00953193 0.0193027 0.0343438 0.0544112 0.0783788 0.104977 0.133248 0.162599 0.192676 0.223216 0.254081 0.285197 0.316525 0.348047 0.379767 0.4117 0.44379 0.475247 0.506446 0.537226 0.567919 0.598101 0.628335 0.657975 0.687487 0.716624 0.7449 0.773317 0.800055 0.826354 0.850919 0.872033 0.89145 0.906144 0.916212 0.924368 0.928352 0.92989 0.931296 0.931596 0.931485 0.931284 0.93107 0.930851 0.930596 0.930289 0.929951 0.929639 0.929384 0.929171 0.928987 0.928827 0.928691 0.928578 0.928483 0.928401 0.928331 0.928268 0.928212 0.928161 0.928115 0.928072 0.928034 0.927998 0.927964 0.927927 0.92788 0.927815 0.927707 0.927505 0.9271 0.926274 0.924589 0.921188 0.914439 0.901412 0.87729 0.835216 0.767521 0.66925 0.543118 0.403095 0.268986 0.158611 0.0815897 0.0369397 0.015231 0.00595384 0.00226765 0.000852843 0.00031843 0.000118248 4.36887e-05 1.60565e-05 5.86761e-06 2.13102e-06 7.68791e-07 2.75364e-07 9.78752e-08 3.4507e-08 1.20624e-08 4.17893e-09 1.43419e-09 4.87442e-10 1.64021e-10 5.43319e-11 1.81648e-11 5.69912e-12 1.05109e-12 8.86991e-13 -3.77999e-13 -1.1219e-13 5.55224e-14 -4.37655e-13 -2.32757e-13 -2.9818e-13 -2.30195e-13 -1.1929e-13 -1.38852e-13 -1.35612e-13 5.13081e-13 -2.69314e-13 4.50624e-14 2.70566e-13 -5.9336e-13 5.66328e-13 3.64862e-13 1.05269e-13 1.34708e-14 8.47214e-14 -1.63061e-13 2.23433e-13 2.91013e-13 0 0 1.10418e-14 1.12919e-14 2.84154e-14 2.41861e-14 2.12389e-14 5.36291e-15 1.79108e-14 -8.89664e-15 3.52191e-15 1.90108e-14 -4.95759e-14 1.97109e-14 -6.37074e-14 -7.86832e-14 -3.30486e-14 -3.48067e-14 -3.74855e-14 -9.46549e-14 2.38483e-14 -8.0041e-14 -1.04554e-13 4.50722e-14 -1.62524e-13 -4.09627e-14 -1.90986e-14 -7.23196e-14 -1.13577e-13 -4.82007e-14 5.66857e-14 4.13287e-14 -1.20862e-13 6.26277e-14 -9.06493e-15 -1.91492e-14 -6.38867e-14 -1.14251e-13 -1.90888e-13 -2.0855e-13 -6.47246e-14 -6.84296e-14 -1.7328e-13 -1.49257e-13 3.13606e-14 2.72709e-14 7.9059e-14 -2.89715e-13 -1.81397e-13 8.37519e-14 -9.70967e-14 -1.1868e-13 2.47291e-13 1.7623e-12 1.20327e-11 8.18457e-11 5.4139e-10 3.35874e-09 1.95542e-08 1.06448e-07 5.39904e-07 2.54112e-06 1.10466e-05 4.41085e-05 0.000160712 0.000530132 0.00156864 0.004122 0.00953193 0.0193027 0.0343438 0.0544112 0.0783788 0.104977 0.133248 0.162599 0.192676 0.223216 0.254081 0.285197 0.316525 0.348047 0.379767 0.4117 0.44379 0.475247 0.506446 0.537226 0.567919 0.598101 0.628335 0.657975 0.687487 0.716624 0.7449 0.773317 0.800055 0.826354 0.850919 0.872033 0.89145 0.906144 0.916212 0.924368 0.928352 0.92989 0.931296 0.931596 0.931485 0.931284 0.93107 0.930851 0.930596 0.930289 0.929951 0.929639 0.929384 0.929171 0.928987 0.928827 0.928691 0.928578 0.928483 0.928401 0.928331 0.928268 0.928212 0.928161 0.928115 0.928072 0.928034 0.927998 0.927964 0.927927 0.92788 0.927815 0.927707 0.927505 0.9271 0.926274 0.924589 0.921188 0.914439 0.901412 0.87729 0.835216 0.767521 0.66925 0.543118 0.403095 0.268986 0.158611 0.0815897 0.0369397 0.015231 0.00595384 0.00226765 0.000852843 0.00031843 0.000118248 4.36887e-05 1.60565e-05 5.86761e-06 2.13102e-06 7.68791e-07 2.75364e-07 9.78755e-08 3.45068e-08 1.20625e-08 4.17898e-09 1.43407e-09 4.87523e-10 1.64009e-10 5.46346e-11 1.79075e-11 5.56323e-12 1.27399e-12 1.71067e-13 1.11863e-13 2.13932e-13 -2.41211e-13 -2.29805e-13 -8.11238e-13 -2.72998e-13 9.15241e-13 -1.19346e-12 5.94862e-13 -2.98827e-13 -1.70559e-13 5.60693e-13 -2.41509e-13 -2.5412e-13 -2.45995e-13 1.65308e-13 5.19394e-13 -3.40662e-13 2.36516e-13 5.06001e-13 2.0756e-13 -3.21756e-13 -1.8413e-13 0 0 5.18492e-15 1.89811e-14 2.85416e-14 2.44215e-14 5.19074e-14 -9.26798e-15 -1.92635e-14 1.2055e-14 3.90487e-14 -3.02972e-14 -2.50813e-14 -1.15092e-13 2.95092e-14 -2.64942e-14 -1.74785e-13 -3.01152e-14 8.99094e-15 7.33252e-14 -1.8094e-13 2.89145e-14 4.05559e-15 -2.05946e-13 -6.84174e-14 1.51716e-13 -7.95237e-14 -2.79607e-14 6.12157e-14 -1.42284e-13 -1.65925e-13 -8.15022e-14 9.92235e-14 -2.89327e-14 2.77718e-14 5.22067e-14 4.18184e-14 -3.23226e-13 -2.66945e-13 -8.98204e-14 -1.92849e-13 -3.53424e-13 1.76002e-13 -3.24917e-13 3.88291e-13 9.16765e-15 -8.85376e-16 -6.81059e-14 -3.1389e-13 -2.40098e-13 8.3966e-14 -5.74412e-14 4.95734e-13 1.28004e-12 1.20185e-11 8.23235e-11 5.41118e-10 3.35878e-09 1.95544e-08 1.06448e-07 5.39904e-07 2.54112e-06 1.10466e-05 4.41085e-05 0.000160712 0.000530132 0.00156864 0.004122 0.00953193 0.0193027 0.0343438 0.0544112 0.0783788 0.104977 0.133248 0.162599 0.192676 0.223216 0.254081 0.285197 0.316525 0.348047 0.379767 0.4117 0.44379 0.475247 0.506446 0.537226 0.567919 0.598101 0.628335 0.657975 0.687487 0.716624 0.7449 0.773317 0.800055 0.826354 0.850919 0.872033 0.89145 0.906144 0.916212 0.924368 0.928352 0.92989 0.931296 0.931596 0.931485 0.931284 0.93107 0.930851 0.930596 0.930289 0.929951 0.929639 0.929384 0.929171 0.928987 0.928827 0.928691 0.928578 0.928483 0.928401 0.928331 0.928268 0.928212 0.928161 0.928115 0.928072 0.928034 0.927998 0.927964 0.927927 0.92788 0.927815 0.927707 0.927505 0.9271 0.926274 0.924589 0.921188 0.914439 0.901412 0.87729 0.835216 0.767521 0.66925 0.543118 0.403095 0.268986 0.158611 0.0815897 0.0369397 0.015231 0.00595384 0.00226765 0.000852843 0.00031843 0.000118248 4.36887e-05 1.60565e-05 5.86761e-06 2.13102e-06 7.68791e-07 2.75364e-07 9.78758e-08 3.45067e-08 1.20622e-08 4.17907e-09 1.43373e-09 4.88136e-10 1.63699e-10 5.53581e-11 1.71724e-11 5.93379e-12 4.2729e-13 9.35446e-13 1.42493e-13 -4.03092e-13 -1.10575e-13 -5.94122e-13 -1.61478e-13 -6.11397e-13 -2.53474e-14 8.99002e-13 -1.01468e-12 1.04748e-12 -6.53684e-13 -1.63658e-13 9.0676e-13 -7.0868e-13 -7.51044e-13 3.58631e-13 -2.3285e-13 1.26164e-12 -1.66673e-13 4.91598e-13 -1.87346e-13 7.08202e-13 3.05971e-13 0
				</DataArray>
				<DataArray Name="VitesseY" type="Float32" format="ascii">