<?xml version="1.0"?>
<VTKFile type="PolyData">
	<PolyData>
		<Piece NumberOfPoints="1206" NumberOfPolys="1000">
			<Points>
				<DataArray type="Float32" NumberOfComponents="3" format="ascii">
 0 0 0 0.005 0 0 0.01 0 0 0.015 0 0 0.02 0 0 0.025 0 0 0.03 0 0 0.035 0 0 0.04 0 0 0.045 0 0 0.05 0 0 0.055 0 0 0.06 0 0 0.065 0 0 0.07 0 0 0.075 0 0 0.08 0 0 0.085 0 0 0.09 0 0 0.095 0 0 0.1 0 0 0.105 0 0 0.11 0 0 0.115 0 0 0.12 0 0 0.125 0 0 0.13 0 0 0.135 0 0 0.14 0 0 0.145 0 0 0.15 0 0 0.155 0 0 0.16 0 0 0.165 0 0 0.17 0 0 0.175 0 0 0.18 0 0 0.185 0 0 0.19 0 0 0.195 0 0 0.2 0 0 0.205 0 0 0.21 0 0 0.215 0 0 0.22 0 0 0.225 0 0 0.23 0 0 0.235 0 0 0.24 0 0 0.245 0 0 0.25 0 0 0.255 0 0 0.26 0 0 0.265 0 0 0.27 0 0 0.275 0 0 0.28 0 0 0.285 0 0 0.29 0 0 0.295 0 0 0.3 0 0 0.305 0 0 0.31 0 0 0.315 0 0 0.32 0 0 0.325 0 0 0.33 0 0 0.335 0 0 0.34 0 0 0.345 0 0 0.35 0 0 0.355 0 0 0.36 0 0 0.365 0 0 0.37 0 0 0.375 0 0 0.38 0 0 0.385 0 0 0.39 0 0 0.395 0 0 0.4 0 0 0.405 0 0 0.41 0 0 0.415 0 0 0.42 0 0 0.425 0 0 0.43 0 0 0.435 0 0 0.44 0 0 0.445 0 0 0.45 0 0 0.455 0 0 0.46 0 0 0.465 0 0 0.47 0 0 0.475 0 0 0.48 0 0 0.485 0 0 0.49 0 0 0.495 0 0 0.5 0 0 0.505 0 0 0.51 0 0 0.515 0 0 0.52 0 0 0.525 0 0 0.53 0 0 0.535 0 0 0.54 0 0 0.545 0 0 0.55 0 0 0.555 0 0 0.56 0 0 0.565 0 0 0.57 0 0 0.575 0 0 0.58 0 0 0.585 0 0 0.59 0 0 0.595 0 0 0.6 0 0 0.605 0 0 0.61 0 0 0.615 0 0 0.62 0 0 0.625 0 0 0.63 0 0 0.635 0 0 0.64 0 0 0.645 0 0 0.65 0 0 0.655 0 0 0.66 0 0 0.665 0 0 0.67 0 0 0.675 0 0 0.68 0 0 0.685 0 0 0.69 0 0 0.695 0 0 0.7 0 0 0.705 0 0 0.71 0 0 0.715 0 0 0.72 0 0 0.725 0 0 0.73 0 0 0.735 0 0 0.74 0 0 0.745 0 0 0.75 0 0 0.755 0 0 0.76 0 0 0.765 0 0 0.77 0 0 0.775 0 0 0.78 0 0 0.785 0 0 0.79 0 0 0.795 0 0 0.8 0 0 0.805 0 0 0.81 0 0 0.815 0 0 0.82 0 0 0.825 0 0 0.83 0 0 0.835 0 0 0.84 0 0 0.845 0 0 0.85 0 0 0.855 0 0 0.86 0 0 0.865 0 0 0.87 0 0 0.875 0 0 0.88 0 0 0.885 0 0 0.89 0 0 0.895 0 0 0.9 0 0 0.905 0 0 0.91 0 0 0.915 0 0 0.92 0 0 0.925 0 0 0.93 0 0 0.935 0 0 0.94 0 0 0.945 0 0 0.95 0 0 0.955 0 0 0.96 0 0 0.965 0 0 0.97 0 0 0.975 0 0 0.98 0 0 0.985 0 0 0.99 0 0 0.995 0 0 1 0 0 0 0.02 0 0.005 0.02 0 0.01 0.02 0 0.015 0.02 0 0.02 0.02 0 0.025 0.02 0 0.03 0.02 0 0.035 0.02 0 0.04 0.02 0 0.045 0.02 0 0.05 0.02 0 0.055 0.02 0 0.06 0.02 0 0.065 0.02 0 0.07 0.02 0 0.075 0.02 0 0.08 0.02 0 0.085 0.02 0 0.09 0.02 0 0.095 0.02 0 0.1 0.02 0 0.105 0.02 0 0.11 0.02 0 0.115 0.02 0 0.12 0.02 0 0.125 0.02 0 0.13 0.02 0 0.135 0.02 0 0.14 0.02 0 0.145 0.02 0 0.15 0.02 0 0.155 0.02 0 0.16 0.02 0 0.165 0.02 0 0.17 0.02 0 0.175 0.02 0 0.18 0.02 0 0.185 0.02 0 0.19 0.02 0 0.195 0.02 0 0.2 0.02 0 0.205 0.02 0 0.21 0.02 0 0.215 0.02 0 0.22 0.02 0 0.225 0.02 0 0.23 0.02 0 0.235 0.02 0 0.24 0.02 0 0.245 0.02 0 0.25 0.02 0 0.255 0.02 0 0.26 0.02 0 0.265 0.02 0 0.27 0.02 0 0.275 0.02 0 0.28 0.02 0 0.285 0.02 0 0.29 0.02 0 0.295 0.02 0 0.3 0.02 0 0.305 0.02 0 0.31 0.02 0 0.315 0.02 0 0.32 0.02 0 0.325 0.02 0 0.33 0.02 0 0.335 0.02 0 0.34 0.02 0 0.345 0.02 0 0.35 0.02 0 0.355 0.02 0 0.36 0.02 0 0.365 0.02 0 0.37 0.02 0 0.375 0.02 0 0.38 0.02 0 0.385 0.02 0 0.39 0.02 0 0.395 0.02 0 0.4 0.02 0 0.405 0.02 0 0.41 0.02 0 0.415 0.02 0 0.42 0.02 0 0.425 0.02 0 0.43 0.02 0 0.435 0.02 0 0.44 0.02 0 0.445 0.02 0 0.45 0.02 0 0.455 0.02 0 0.46 0.02 0 0.465 0.02 0 0.47 0.02 0 0.475 0.02 0 0.48 0.02 0 0.485 0.02 0 0.49 0.02 0 0.495 0.02 0 0.5 0.02 0 0.505 0.02 0 0.51 0.02 0 0.515 0.02 0 0.52 0.02 0 0.525 0.02 0 0.53 0.02 0 0.535 0.02 0 0.54 0.02 0 0.545 0.02 0 0.55 0.02 0 0.555 0.02 0 0.56 0.02 0 0.565 0.02 0 0.57 0.02 0 0.575 0.02 0 0.58 0.02 0 0.585 0.02 0 0.59 0.02 0 0.595 0.02 0 0.6 0.02 0 0.605 0.02 0 0.61 0.02 0 0.615 0.02 0 0.62 0.02 0 0.625 0.02 0 0.63 0.02 0 0.635 0.02 0 0.64 0.02 0 0.645 0.02 0 0.65 0.02 0 0.655 0.02 0 0.66 0.02 0 0.665 0.02 0 0.67 0.02 0 0.675 0.02 0 0.68 0.02 0 0.685 0.02 0 0.69 0.02 0 0.695 0.02 0 0.7 0.02 0 0.705 0.02 0 0.71 0.02 0 0.715 0.02 0 0.72 0.02 0 0.725 0.02 0 0.73 0.02 0 0.735 0.02 0 0.74 0.02 0 0.745 0.02 0 0.75 0.02 0 0.755 0.02 0 0.76 0.02 0 0.765 0.02 0 0.77 0.02 0 0.775 0.02 0 0.78 0.02 0 0.785 0.02 0 0.79 0.02 0 0.795 0.02 0 0.8 0.02 0 0.805 0.02 0 0.81 0.02 0 0.815 0.02 0 0.82 0.02 0 0.825 0.02 0 0.83 0.02 0 0.835 0.02 0 0.84 0.02 0 0.845 0.02 0 0.85 0.02 0 0.855 0.02 0 0.86 0.02 0 0.865 0.02 0 0.87 0.02 0 0.875 0.02 0 0.88 0.02 0 0.885 0.02 0 0.89 0.02 0 0.895 0.02 0 0.9 0.02 0 0.905 0.02 0 0.91 0.02 0 0.915 0.02 0 0.92 0.02 0 0.925 0.02 0 0.93 0.02 0 0.935 0.02 0 0.94 0.02 0 0.945 0.02 0 0.95 0.02 0 0.955 0.02 0 0.96 0.02 0 0.965 0.02 0 0.97 0.02 0 0.975 0.02 0 0.98 0.02 0 0.985 0.02 0 0.99 0.02 0 0.995 0.02 0 1 0.02 0 0 0.04 0 0.005 0.04 0 0.01 0.04 0 0.015 0.04 0 0.02 0.04 0 0.025 0.04 0 0.03 0.04 0 0.035 0.04 0 0.04 0.04 0 0.045 0.04 0 0.05 0.04 0 0.055 0.04 0 0.06 0.04 0 0.065 0.04 0 0.07 0.04 0 0.075 0.04 0 0.08 0.04 0 0.085 0.04 0 0.09 0.04 0 0.095 0.04 0 0.1 0.04 0 0.105 0.04 0 0.11 0.04 0 0.115 0.04 0 0.12 0.04 0 0.125 0.04 0 0.13 0.04 0 0.135 0.04 0 0.14 0.04 0 0.145 0.04 0 0.15 0.04 0 0.155 0.04 0 0.16 0.04 0 0.165 0.04 0 0.17 0.04 0 0.175 0.04 0 0.18 0.04 0 0.185 0.04 0 0.19 0.04 0 0.195 0.04 0 0.2 0.04 0 0.205 0.04 0 0.21 0.04 0 0.215 0.04 0 0.22 0.04 0 0.225 0.04 0 0.23 0.04 0 0.235 0.04 0 0.24 0.04 0 0.245 0.04 0 0.25 0.04 0 0.255 0.04 0 0.26 0.04 0 0.265 0.04 0 0.27 0.04 0 0.275 0.04 0 0.28 0.04 0 0.285 0.04 0 0.29 0.04 0 0.295 0.04 0 0.3 0.04 0 0.305 0.04 0 0.31 0.04 0 0.315 0.04 0 0.32 0.04 0 0.325 0.04 0 0.33 0.04 0 0.335 0.04 0 0.34 0.04 0 0.345 0.04 0 0.35 0.04 0 0.355 0.04 0 0.36 0.04 0 0.365 0.04 0 0.37 0.04 0 0.375 0.04 0 0.38 0.04 0 0.385 0.04 0 0.39 0.04 0 0.395 0.04 0 0.4 0.04 0 0.405 0.04 0 0.41 0.04 0 0.415 0.04 0 0.42 0.04 0 0.425 0.04 0 0.43 0.04 0 0.435 0.04 0 0.44 0.04 0 0.445 0.04 0 0.45 0.04 0 0.455 0.04 0 0.46 0.04 0 0.465 0.04 0 0.47 0.04 0 0.475 0.04 0 0.48 0.04 0 0.485 0.04 0 0.49 0.04 0 0.495 0.04 0 0.5 0.04 0 0.505 0.04 0 0.51 0.04 0 0.515 0.04 0 0.52 0.04 0 0.525 0.04 0 0.53 0.04 0 0.535 0.04 0 0.54 0.04 0 0.545 0.04 0 0.55 0.04 0 0.555 0.04 0 0.56 0.04 0 0.565 0.04 0 0.57 0.04 0 0.575 0.04 0 0.58 0.04 0 0.585 0.04 0 0.59 0.04 0 0.595 0.04 0 0.6 0.04 0 0.605 0.04 0 0.61 0.04 0 0.615 0.04 0 0.62 0.04 0 0.625 0.04 0 0.63 0.04 0 0.635 0.04 0 0.64 0.04 0 0.645 0.04 0 0.65 0.04 0 0.655 0.04 0 0.66 0.04 0 0.665 0.04 0 0.67 0.04 0 0.675 0.04 0 0.68 0.04 0 0.685 0.04 0 0.69 0.04 0 0.695 0.04 0 0.7 0.04 0 0.705 0.04 0 0.71 0.04 0 0.715 0.04 0 0.72 0.04 0 0.725 0.04 0 0.73 0.04 0 0.735 0.04 0 0.74 0.04 0 0.745 0.04 0 0.75 0.04 0 0.755 0.04 0 0.76 0.04 0 0.765 0.04 0 0.77 0.04 0 0.775 0.04 0 0.78 0.04 0 0.785 0.04 0 0.79 0.04 0 0.795 0.04 0 0.8 0.04 0 0.805 0.04 0 0.81 0.04 0 0.815 0.04 0 0.82 0.04 0 0.825 0.04 0 0.83 0.04 0 0.835 0.04 0 0.84 0.04 0 0.845 0.04 0 0.85 0.04 0 0.855 0.04 0 0.86 0.04 0 0.865 0.04 0 0.87 0.04 0 0.875 0.04 0 0.88 0.04 0 0.885 0.04 0 0.89 0.04 0 0.895 0.04 0 0.9 0.04 0 0.905 0.04 0 0.91 0.04 0 0.915 0.04 0 0.92 0.04 0 0.925 0.04 0 0.93 0.04 0 0.935 0.04 0 0.94 0.04 0 0.945 0.04 0 0.95 0.04 0 0.955 0.04 0 0.96 0.04 0 0.965 0.04 0 0.97 0.04 0 0.975 0.04 0 0.98 0.04 0 0.985 0.04 0 0.99 0.04 0 0.995 0.04 0 1 0.04 0 0 0.06 0 0.005 0.06 0 0.01 0.06 0 0.015 0.06 0 0.02 0.06 0 0.025 0.06 0 0.03 0.06 0 0.035 0.06 0 0.04 0.06 0 0.045 0.06 0 0.05 0.06 0 0.055 0.06 0 0.06 0.06 0 0.065 0.06 0 0.07 0.06 0 0.075 0.06 0 0.08 0.06 0 0.085 0.06 0 0.09 0.06 0 0.095 0.06 0 0.1 0.06 0 0.105 0.06 0 0.11 0.06 0 0.115 0.06 0 0.12 0.06 0 0.125 0.06 0 0.13 0.06 0 0.135 0.06 0 0.14 0.06 0 0.145 0.06 0 0.15 0.06 0 0.155 0.06 0 0.16 0.06 0 0.165 0.06 0 0.17 0.06 0 0.175 0.06 0 0.18 0.06 0 0.185 0.06 0 0.19 0.06 0 0.195 0.06 0 0.2 0.06 0 0.205 0.06 0 0.21 0.06 0 0.215 0.06 0 0.22 0.06 0 0.225 0.06 0 0.23 0.06 0 0.235 0.06 0 0.24 0.06 0 0.245 0.06 0 0.25 0.06 0 0.255 0.06 0 0.26 0.06 0 0.265 0.06 0 0.27 0.06 0 0.275 0.06 0 0.28 0.06 0 0.285 0.06 0 0.29 0.06 0 0.295 0.06 0 0.3 0.06 0 0.305 0.06 0 0.31 0.06 0 0.315 0.06 0 0.32 0.06 0 0.325 0.06 0 0.33 0.06 0 0.335 0.06 0 0.34 0.06 0 0.345 0.06 0 0.35 0.06 0 0.355 0.06 0 0.36 0.06 0 0.365 0.06 0 0.37 0.06 0 0.375 0.06 0 0.38 0.06 0 0.385 0.06 0 0.39 0.06 0 0.395 0.06 0 0.4 0.06 0 0.405 0.06 0 0.41 0.06 0 0.415 0.06 0 0.42 0.06 0 0.425 0.06 0 0.43 0.06 0 0.435 0.06 0 0.44 0.06 0 0.445 0.06 0 0.45 0.06 0 0.455 0.06 0 0.46 0.06 0 0.465 0.06 0 0.47 0.06 0 0.475 0.06 0 0.48 0.06 0 0.485 0.06 0 0.49 0.06 0 0.495 0.06 0 0.5 0.06 0 0.505 0.06 0 0.51 0.06 0 0.515 0.06 0 0.52 0.06 0 0.525 0.06 0 0.53 0.06 0 0.535 0.06 0 0.54 0.06 0 0.545 0.06 0 0.55 0.06 0 0.555 0.06 0 0.56 0.06 0 0.565 0.06 0 0.57 0.06 0 0.575 0.06 0 0.58 0.06 0 0.585 0.06 0 0.59 0.06 0 0.595 0.06 0 0.6 0.06 0 0.605 0.06 0 0.61 0.06 0 0.615 0.06 0 0.62 0.06 0 0.625 0.06 0 0.63 0.06 0 0.635 0.06 0 0.64 0.06 0 0.645 0.06 0 0.65 0.06 0 0.655 0.06 0 0.66 0.06 0 0.665 0.06 0 0.67 0.06 0 0.675 0.06 0 0.68 0.06 0 0.685 0.06 0 0.69 0.06 0 0.695 0.06 0 0.7 0.06 0 0.705 0.06 0 0.71 0.06 0 0.715 0.06 0 0.72 0.06 0 0.725 0.06 0 0.73 0.06 0 0.735 0.06 0 0.74 0.06 0 0.745 0.06 0 0.75 0.06 0 0.755 0.06 0 0.76 0.06 0 0.765 0.06 0 0.77 0.06 0 0.775 0.06 0 0.78 0.06 0 0.785 0.06 0 0.79 0.06 0 0.795 0.06 0 0.8 0.06 0 0.805 0.06 0 0.81 0.06 0 0.815 0.06 0 0.82 0.06 0 0.825 0.06 0 0.83 0.06 0 0.835 0.06 0 0.84 0.06 0 0.845 0.06 0 0.85 0.06 0 0.855 0.06 0 0.86 0.06 0 0.865 0.06 0 0.87 0.06 0 0.875 0.06 0 0.88 0.06 0 0.885 0.06 0 0.89 0.06 0 0.895 0.06 0 0.9 0.06 0 0.905 0.06 0 0.91 0.06 0 0.915 0.06 0 0.92 0.06 0 0.925 0.06 0 0.93 0.06 0 0.935 0.06 0 0.94 0.06 0 0.945 0.06 0 0.95 0.06 0 0.955 0.06 0 0.96 0.06 0 0.965 0.06 0 0.97 0.06 0 0.975 0.06 0 0.98 0.06 0 0.985 0.06 0 0.99 0.06 0 0.995 0.06 0 1 0.06 0 0 0.08 0 0.005 0.08 0 0.01 0.08 0 0.015 0.08 0 0.02 0.08 0 0.025 0.08 0 0.03 0.08 0 0.035 0.08 0 0.04 0.08 0 0.045 0.08 0 0.05 0.08 0 0.055 0.08 0 0.06 0.08 0 0.065 0.08 0 0.07 0.08 0 0.075 0.08 0 0.08 0.08 0 0.085 0.08 0 0.09 0.08 0 0.095 0.08 0 0.1 0.08 0 0.105 0.08 0 0.11 0.08 0 0.115 0.08 0 0.12 0.08 0 0.125 0.08 0 0.13 0.08 0 0.135 0.08 0 0.14 0.08 0 0.145 0.08 0 0.15 0.08 0 0.155 0.08 0 0.16 0.08 0 0.165 0.08 0
[...]
			<PointData Scalars="VitesseX">
				<DataArray Name="VitesseX" type="Float32" format="ascii">
 0 -5.99889e-15 -4.30409e-15 -1.36285e-14 7.05163e-15 -1.98975e-14 -2.56344e-14 -4.269e-14 1.60895e-14 -5.51963e-14 -3.98374e-14 2.26768e-14 -4.40536e-14 -4.58748e-14 -6.14469e-15 -5.80327e-14 3.15384e-14 -1.45539e-13 3.31293e-14 -8.25422e-14 -6.69016e-14 -1.3816e-13 -5.21712e-14 -9.18348e-14 -7.62056e-14 -8.84101e-14 -9.05491e-14 -1.84571e-13 2.05013e-13 -5.29807e-14 -8.31516e-14 6.86207e-14 -1.32419e-13 -5.54191e-14 -1.34417e-13 -1.67678e-13 -1.2105e-13 -1.74499e-13 -1.59921e-13 -1.88211e-14 -2.93216e-13 -7.16654e-14 1.14304e-13 -3.19735e-13 5.94279e-14 -1.10387e-13 7.07513e-14 -1.01008e-13 1.79955e-14 1.34902e-12 7.09746e-12 4.8139e-11 3.09728e-10 1.87553e-09 1.06913e-08 5.72004e-08 2.86385e-07 1.33692e-06 5.79542e-06 2.32169e-05 8.54681e-05 0.000287176 0.000873714 0.00238527 0.00578984 0.0124074 0.0234358 0.0392902 0.0593878 0.0826105 0.107898 0.1345 0.161967 0.190016 0.218441 0.247137 0.276041 0.305121 0.33436 0.363755 0.393312 0.423043 0.452767 0.481815 0.51091 0.539462 0.568064 0.596254 0.624361 0.652242 0.679695 0.707177 0.73384 0.760456 0.7864 0.811295 0.835818 0.857655 0.877708 0.895173 0.907815 0.917987 0.924933 0.92797 0.930245 0.931333 0.931323 0.931227 0.931138 0.931017 0.93082 0.93054 0.930214 0.929895 0.929622 0.929383 0.929167 0.928977 0.928814 0.928678 0.928564 0.928468 0.928386 0.928315 0.928254 0.928201 0.928154 0.928111 0.928071 0.928034 0.927999 0.927967 0.927937 0.927909 0.927881 0.927852 0.927815 0.927766 0.927686 0.927539 0.927247 0.926657 0.925458 0.923037 0.918213 0.908805 0.891041 0.859087 0.805428 0.723111 0.610092 0.474845 0.334882 0.210647 0.116159 0.055975 0.0241113 0.0096654 0.00373363 0.00141753 0.000533598 0.00019981 7.45036e-05 2.76656e-05 1.0228e-05 3.76323e-06 1.37736e-06 5.01248e-07 1.81288e-07 6.51335e-08 2.32362e-08 8.22725e-09 2.89014e-09 1.00666e-09 3.4755e-10 1.18808e-10 3.97701e-11 1.32375e-11 3.60085e-12 1.44535e-12 -1.13119e-13 6.1282e-14 2.08804e-14 -2.16087e-13 1.00786e-13 2.38378e-13 -4.01918e-13 1.33007e-13 2.16243e-13 3.33732e-13 -5.17283e-13 1.3037e-13 3.6854e-13 -6.55242e-13 1.05698e-12 -3.50045e-13 7.53537e-14 1.63402e-13 -5.47223e-14 1.35743e-13 0 0 -2.29481e-15 -3.32471e-15 1.23943e-14 -2.18326e-14 -8.14008e-15 1.84724e-15 -1.17447e-14 -6.71081e-14 -1.14948e-15 -1.5519e-14 -4.43969e-14 -4.03337e-15 -3.64949e-14 -5.70417e-14 3.10323e-14 -9.97255e-14 2.03364e-14 -9.52347e-14 -4.99904e-14 -8.97826e-14 -3.87254e-14 -1.29114e-13 -1.00785e-13 -9.58878e-14 -4.14693e-14 -7.72408e-14 7.73939e-14 -1.84177e-13 5.77618e-14 -6.45105e-15 -1.04813e-13 5.74205e-14 -1.61763e-13 -1.65812e-13 -1.86678e-13 -7.23167e-14 -1.27658e-13 -1.39166e-13 -1.87254e-13 6.67274e-14 -6.60345e-14 -2.00188e-13 6.86733e-14 -1.55865e-13 -5.4146e-14 -1.65262e-13 -5.98408e-14 2.44662e-13 9.05482e-13 7.26246e-12 4.83967e-11 3.09806e-10 1.87573e-09 1.06905e-08 5.72009e-08 2.86385e-07 1.33692e-06 5.79542e-06 2.32169e-05 8.54681e-05 0.000287176 0.000873714 0.00238527 0.00578984 0.0124074 0.0234358 0.0392902 0.0593878 0.0826105 0.107898 0.1345 0.161967 0.190016 0.218441 0.247137 0.276041 0.305121 0.33436 0.363755 0.393312 0.423043 0.452767 0.481815 0.51091 0.539462 0.568064 0.596254 0.624361 0.652242 0.679695 0.707177 0.73384 0.760456 0.7864 0.811295 0.835818 0.857655 0.877708 0.895173 0.907815 0.917987 0.924933 0.92797 0.930245 0.931333 0.931323 0.931227 0.931138 0.931017 0.93082 0.93054 0.930214 0.929895 0.929622 0.929383 0.929167 0.928977 0.928814 0.928678 0.928564 0.928468 0.928386 0.928315 0.928254 0.928201 0.928154 0.928111 0.928071 0.928034 0.927999 0.927967 0.927937 0.927909 0.927881 0.927852 0.927815 0.927766 0.927686 0.927539 0.927247 0.926657 0.925458 0.923037 0.918213 0.908805 0.891041 0.859087 0.805428 0.723111 0.610092 0.474845 0.334882 0.210647 0.116159 0.055975 0.0241113 0.0096654 0.00373363 0.00141753 0.000533598 0.00019981 7.45036e-05 2.76656e-05 1.0228e-05 3.76323e-06 1.37736e-06 5.01248e-07 1.81289e-07 6.51335e-08 2.3236e-08 8.22744e-09 2.8901e-09 1.00671e-09 3.47342e-10 1.18635e-10 3.99645e-11 1.31404e-11 4.19911e-12 6.93196e-13 2.15958e-13 -1.89717e-13 -1.51355e-13 -6.1329e-14 2.45294e-13 -1.70332e-13 7.1079e-13 -2.70393e-13 -2.00966e-13 -1.85817e-13 2.44512e-13 -2.55611e-13 -1.0187e-14 8.57277e-13 -7.46138e-13 5.85696e-13 5.12178e-13 -1.61572e-13 1.18041e-13 -1.37263e-13 0 0 2.33644e-15 4.45828e-15 -1.46483e-14 2.63383e-14 1.9253e-14 7.14299e-16 -3.23734e-14 3.59787e-14 -3.23864e-14 -3.67475e-14 -5.7928e-14 -3.61007e-14 -3.03864e-14 -3.7115e-14 -7.28954e-14 3.34078e-15 -1.23125e-13 -2.82065e-14 -2.97091e-14 -5.72734e-14 -7.90351e-14 -1.51728e-13 -8.09074e-14 -3.01393e-14 -9.31119e-14 1.23677e-15 -2.10892e-14 1.66551e-14 -5.80197e-14 1.5122e-14 -6.41039e-14 -2.04103e-13 -7.77128e-14 -4.51539e-14 -1.3517e-13 -1.60313e-13 -4.19964e-14 -1.25327e-13 -4.88258e-14 -1.75245e-13 -7.04557e-14 3.09065e-14 -9.82122e-14 -5.4852e-15 -1.65621e-13 -8.78788e-14 -5.39138e-14 1.27743e-13 1.05376e-12 7.29359e-12 4.82646e-11 3.09899e-10 1.87561e-09 1.06909e-08 5.72008e-08 2.86385e-07 1.33692e-06 5.79542e-06 2.32169e-05 8.54681e-05 0.000287176 0.000873714 0.00238527 0.00578984 0.0124074 0.0234358 0.0392902 0.0593878 0.0826105 0.107898 0.1345 0.161967 0.190016 0.218441 0.247137 0.276041 0.305121 0.33436 0.363755 0.393312 0.423043 0.452767 0.481815 0.51091 0.539462 0.568064 0.596254 0.624361 0.652242 0.679695 0.707177 0.73384 0.760456 0.7864 0.811295 0.835818 0.857655 0.877708 0.895173 0.907815 0.917987 0.924933 0.92797 0.930245 0.931333 0.931323 0.931227 0.931138 0.931017 0.93082 0.93054 0.930214 0.929895 0.929622 0.929383 0.929167 0.928977 0.928814 0.928678 0.928564 0.928468 0.928386 0.928315 0.928254 0.928201 0.928154 0.928111 0.928071 0.928034 0.927999 0.927967 0.927937 0.927909 0.927881 0.927852 0.927815 0.927766 0.927686 0.927539 0.927247 0.926657 0.925458 0.923037 0.918213 0.908805 0.891041 0.859087 0.805428 0.723111 0.610092 0.474845 0.334882 0.210647 0.116159 0.055975 0.0241113 0.0096654 0.00373363 0.00141753 0.000533598 0.00019981 7.45036e-05 2.76656e-05 1.0228e-05 3.76323e-06 1.37736e-06 5.01248e-07 1.81289e-07 6.51336e-08 2.32361e-08 8.22728e-09 2.89002e-09 1.00674e-09 3.47718e-10 1.18542e-10 4.00779e-11 1.29356e-11 3.82306e-12 1.33686e-12 -2.52804e-13 1.97406e-13 -2.2111e-13 3.77459e-14 -6.00146e-14 -3.42881e-14 -1.13674e-13 3.14238e-13 -2.42848e-13 -4.43167e-13 1.93581e-13 -7.0731e-14 1.50099e-13 -5.67425e-13 6.55652e-13 2.37587e-13 1.15295e-13 1.43584e-13 4.24717e-13 1.72983e-13 0 0 -5.42024e-15 -9.72906e-15 -7.57395e-15 6.90061e-15 1.61528e-14 2.74347e-15 9.40634e-15 4.52932e-14 -1.59886e-14 -5.48566e-14 -3.36952e-14 -6.5219e-14 -4.71355e-14 -5.65729e-14 -7.06194e-14 -7.64498e-14 -1.19909e-13 -3.49582e-14 -7.38135e-14 -1.93783e-14 -7.94558e-14 -3.51234e-14 -7.03333e-14 -8.29534e-14 9.11673e-15 -6.00242e-14 -9.22016e-14 7.60885e-14 -6.4929e-14 -4.81948e-14 2.0991e-14 -1.83039e-13 -1.23114e-14 -6.61829e-14 -3.35163e-14 -1.81107e-13 -1.38111e-13 -1.3769e-13 -7.43849e-14 -2.351e-13 -6.62339e-14 1.18527e-13 -2.8199e-13 -1.37478e-13 1.22128e-13 -5.10463e-14 -4.18492e-14 -3.11207e-14 1.23574e-12 7.16361e-12 4.84456e-11 3.09906e-10 1.87572e-09 1.06908e-08 5.72006e-08 2.86385e-07 1.33692e-06 5.79542e-06 2.32169e-05 8.54681e-05 0.000287176 0.000873714 0.00238527 0.00578984 0.0124074 0.0234358 0.0392902 0.0593878 0.0826105 0.107898 0.1345 0.161967 0.190016 0.218441 0.247137 0.276041 0.305121 0.33436 0.363755 0.393312 0.423043 0.452767 0.481815 0.51091 0.539462 0.568064 0.596254 0.624361 0.652242 0.679695 0.707177 0.73384 0.760456 0.7864 0.811295 0.835818 0.857655 0.877708 0.895173 0.907815 0.917987 0.924933 0.92797 0.930245 0.931333 0.931323 0.931227 0.931138 0.931017 0.93082 0.93054 0.930214 0.929895 0.929622 0.929383 0.929167 0.928977 0.928814 0.928678 0.928564 0.928468 0.928386 0.928315 0.928254 0.928201 0.928154 0.928111 0.928071 0.928034 0.927999 0.927967 0.927937 0.927909 0.927881 0.927852 0.927815 0.927766 0.927686 0.927539 0.927247 0.926657 0.925458 0.923037 0.918213 0.908805 0.891041 0.859087 0.805428 0.723111 0.610092 0.474845 0.334882 0.210647 0.116159 0.055975 0.0241113 0.0096654 0.00373363 0.00141753 0.000533598 0.00019981 7.45036e-05 2.76656e-05 1.0228e-05 3.76323e-06 1.37736e-06 5.01248e-07 1.81289e-07 6.51337e-08 2.32359e-08 8.22774e-09 2.89004e-09 1.00667e-09 3.47522e-10 1.1861e-10 4.01636e-11 1.30916e-11 3.97662e-12 9.89894e-13 3.35291e-13 -2.14824e-13 -6.10127e-14 3.26893e-13 -8.59761e-13 9.69324e-14 2.03362e-14 -4.47258e-14 4.44408e-13 -5.86865e-13 -6.56386e-13 2.07159e-13 3.93614e-13 -5.06428e-13 6.21627e-13 -1.38561e-13 -1.30335e-13 -3.16516e-13 1.97991e-13 3.32351e-15 0 0 -3.96996e-15 -9.59829e-15 2.17211e-14 -2.46367e-14 -4.35454e-15 6.96096e-15 3.19516e-14 -4.23568e-14 3.99997e-15 -2.07357e-14 -5.05888e-14 -1.72593e-14 -9.0965e-14 -8.95849e-14 -2.68667e-14 -1.48737e-13 1.83436e-15 -7.08712e-14 -8.84984e-14 -9.02462e-14 -1.89248e-14 8.45579e-15 -9.04007e-14 -9.72565e-14 6.11088e-14 -5.9687e-14 1.3507e-14 -1.83011e-13 1.00801e-13 -8.29092e-14 -6.01667e-14 8.97353e-14 -5.49895e-14 -3.04887e-13 -2.85944e-14 3.61532e-14 -9.30212e-14 -1.61797e-13 -2.06874e-13 6.57652e-14 -1.19263e-13 -1.99882e-13 -1.17866e-14 -3.21946e-13 5.30723e-14 -1.94963e-13 2.18791e-14 1.55497e-13 1.07819e-12 7.29978e-12 4.86658e-11 3.09851e-10 1.87588e-09 1.06905e-08 5.72008e-08 2.86385e-07 1.33692e-06 5.79542e-06 2.32169e-05 8.54681e-05 0.000287176 0.000873714 0.00238527 0.00578984 0.0124074 0.0234358 0.0392902 0.0593878 0.0826105 0.107898 0.1345 0.161967 0.190016 0.218441 0.247137 0.276041 0.305121 0.33436 0.363755 0.393312 0.423043 0.452767 0.481815 0.51091 0.539462 0.568064 0.596254 0.624361 0.652242 0.679695 0.707177 0.73384 0.760456 0.7864 0.811295 0.835818 0.857655 0.877708 0.895173 0.907815 0.917987 0.924933 0.92797 0.930245 0.931333 0.931323 0.931227 0.931138 0.931017 0.93082 0.93054 0.930214 0.929895 0.929622 0.929383 0.929167 0.928977 0.928814 0.928678 0.928564 0.928468 0.928386 0.928315 0.928254 0.928201 0.928154 0.928111 0.928071 0.928034 0.927999 0.927967 0.927937 0.927909 0.927881 0.927852 0.927815 0.927766 0.927686 0.927539 0.927247 0.926657 0.925458 0.923037 0.918213 0.908805 0.891041 0.859087 0.805428 0.723111 0.610092 0.474845 0.334882 0.210647 0.116159 0.055975 0.0241113 0.0096654 0.00373363 0.00141753 0.000533598 0.00019981 7.45036e-05 2.76656e-05 1.0228e-05 3.76323e-06 1.37736e-06 5.01248e-07 1.81289e-07 6.51337e-08 2.3236e-08 8.22775e-09 2.89001e-09 1.00674e-09 3.46864e-10 1.18633e-10 3.98598e-11 1.31065e-11 4.18542e-12 8.82764e-13 7.83259e-13 -1.7765e-13 -2.13592e-13 -9.57327e-15 -2.0971e-13 -2.30568e-13 6.84058e-13 -6.03358e-13 2.77296e-13 -6.08678e-13 -2.99263e-13 -3.91155e-13 1.48359e-13 9.75477e-13 -5.69754e-13 2.28171e-13 2.49407e-13 -4.34559e-13 1.14018e-15 -2.46989e-13 0 0 6.16417e-15 1.15234e-14 -9.12355e-15 4.0319e-14 -6.12588e-15 -1.94653e-14 -3.8857e-14 4.69632e-14 -7.76929e-14 -1.40526e-14 -3.81726e-14 -1.2269e-14 -1.21317e-13 -3.23153e-14 -1.78383e-13 9.30962e-14 -1.88975e-13 9.53598e-14 -7.13494e-14 -1.43619e-13 -9.77175e-14 -1.0242e-14 -9.22144e-14 2.66852e-14 -8.77112e-14 6.70805e-14 -1.7012e-13 8.84774e-14 4.69157e-14 -1.09434e-13 -1.22757e-14 -1.09917e-13 2.73254e-14 -3.7051e-13 -5.48164e-14 1.37477e-13 8.70038e-14 -1.80457e-13 -6.94359e-15 -1.75431e-13 -1.86566e-13 -6.03263e-14 -1.13099e-13 -8.74965e-15 -4.71448e-13 -6.23154e-14 3.83024e-14 1.57392e-13 1.33048e-12 7.43206e-12 4.83152e-11 3.09803e-10 1.87561e-09 1.06915e-08 5.72004e-08 2.86385e-07 1.33692e-06 5.79542e-06 2.32169e-05 8.54681e-05 0.000287176 0.000873714 0.00238527 0.00578984 0.0124074 0.0234358 0.0392902 0.0593878 0.0826105 0.107898 0.1345 0.161967 0.190016 0.218441 0.247137 0.276041 0.305121 0.33436 0.363755 0.393312 0.423043 0.452767 0.481815 0.51091 0.539462 0.568064 0.596254 0.624361 0.652242 0.679695 0.707177 0.73384 0.760456 0.7864 0.811295 0.835818 0.857655 0.877708 0.895173 0.907815 0.917987 0.924933 0.92797 0.930245 0.931333 0.931323 0.931227 0.931138 0.931017 0.93082 0.93054 0.930214 0.929895 0.929622 0.929383 0.929167 0.928977 0.928814 0.928678 0.928564 0.928468 0.928386 0.928315 0.928254 0.928201 0.928154 0.928111 0.928071 0.928034 0.927999 0.927967 0.927937 0.927909 0.927881 0.927852 0.927815 0.927766 0.927686 0.927539 0.927247 0.926657 0.925458 0.923037 0.918213 0.908805 0.891041 0.859087 0.805428 0.723111 0.610092 0.474845 0.334882 0.210647 0.116159 0.055975 0.0241113 0.0096654 0.00373363 0.00141753 0.000533598 0.00019981 7.45036e-05 2.76656e-05 1.0228e-05 3.76323e-06 1.37736e-06 5.01248e-07 1.81289e-07 6.51338e-08 2.32367e-08 8.22696e-09 2.88992e-09 1.00685e-09 3.46985e-10 1.18667e-10 3.93892e-11 1.28578e-11 3.26632e-12 2.51842e-12 -1.54706e-13 9.09877e-13 -4.23789e-13 -6.90869e-13 7.9027e-13 -1.44534e-13 -7.23402e-13 1.85004e-13 -2.01745e-13 -2.24595e-13 9.5101e-14 -6.96497e-13 1.98603e-13 -5.40835e-13 1.47779e-12 -3.12799e-13 4.10711e-14 5.3763e-13 1.64929e-13 2.55609e-13 0
				</DataArray>
				<DataArray Name="VitesseY" type="Float32" format="ascii">