<?xml version="1.0"?>
<VTKFile type="PolyData">
	<PolyData>
		<Piece NumberOfPoints="1206" NumberOfPolys="1000">
			<Points>
				<DataArray type="Float32" NumberOfComponents="3" format="ascii">
 0 0 0 0.005 0 0 0.01 0 0 0.015 0 0 0.02 0 0 0.025 0 0 0.03 0 0 0.035 0 0 0.04 0 0 0.045 0 0 0.05 0 0 0.055 0 0 0.06 0 0 0.065 0 0 0.07 0 0 0.075 0 0 0.08 0 0 0.085 0 0 0.09 0 0 0.095 0 0 0.1 0 0 0.105 0 0 0.11 0 0 0.115 0 0 0.12 0 0 0.125 0 0 0.13 0 0 0.135 0 0 0.14 0 0 0.145 0 0 0.15 0 0 0.155 0 0 0.16 0 0 0.165 0 0 0.17 0 0 0.175 0 0 0.18 0 0 0.185 0 0 0.19 0 0 0.195 0 0 0.2 0 0 0.205 0 0 0.21 0 0 0.215 0 0 0.22 0 0 0.225 0 0 0.23 0 0 0.235 0 0 0.24 0 0 0.245 0 0 0.25 0 0 0.255 0 0 0.26 0 0 0.265 0 0 0.27 0 0 0.275 0 0 0.28 0 0 0.285 0 0 0.29 0 0 0.295 0 0 0.3 0 0 0.305 0 0 0.31 0 0 0.315 0 0 0.32 0 0 0.325 0 0 0.33 0 0 0.335 0 0 0.34 0 0 0.345 0 0 0.35 0 0 0.355 0 0 0.36 0 0 0.365 0 0 0.37 0 0 0.375 0 0 0.38 0 0 0.385 0 0 0.39 0 0 0.395 0 0 0.4 0 0 0.405 0 0 0.41 0 0 0.415 0 0 0.42 0 0 0.425 0 0 0.43 0 0 0.435 0 0 0.44 0 0 0.445 0 0 0.45 0 0 0.455 0 0 0.46 0 0 0.465 0 0 0.47 0 0 0.475 0 0 0.48 0 0 0.485 0 0 0.49 0 0 0.495 0 0 0.5 0 0 0.505 0 0 0.51 0 0 0.515 0 0 0.52 0 0 0.525 0 0 0.53 0 0 0.535 0 0 0.54 0 0 0.545 0 0 0.55 0 0 0.555 0 0 0.56 0 0 0.565 0 0 0.57 0 0 0.575 0 0 0.58 0 0 0.585 0 0 0.59 0 0 0.595 0 0 0.6 0 0 0.605 0 0 0.61 0 0 0.615 0 0 0.62 0 0 0.625 0 0 0.63 0 0 0.635 0 0 0.64 0 0 0.645 0 0 0.65 0 0 0.655 0 0 0.66 0 0 0.665 0 0 0.67 0 0 0.675 0 0 0.68 0 0 0.685 0 0 0.69 0 0 0.695 0 0 0.7 0 0 0.705 0 0 0.71 0 0 0.715 0 0 0.72 0 0 0.725 0 0 0.73 0 0 0.735 0 0 0.74 0 0 0.745 0 0 0.75 0 0 0.755 0 0 0.76 0 0 0.765 0 0 0.77 0 0 0.775 0 0 0.78 0 0 0.785 0 0 0.79 0 0 0.795 0 0 0.8 0 0 0.805 0 0 0.81 0 0 0.815 0 0 0.82 0 0 0.825 0 0 0.83 0 0 0.835 0 0 0.84 0 0 0.845 0 0 0.85 0 0 0.855 0 0 0.86 0 0 0.865 0 0 0.87 0 0 0.875 0 0 0.88 0 0 0.885 0 0 0.89 0 0 0.895 0 0 0.9 0 0 0.905 0 0 0.91 0 0 0.915 0 0 0.92 0 0 0.925 0 0 0.93 0 0 0.935 0 0 0.94 0 0 0.945 0 0 0.95 0 0 0.955 0 0 0.96 0 0 0.965 0 0 0.97 0 0 0.975 0 0 0.98 0 0 0.985 0 0 0.99 0 0 0.995 0 0 1 0 0 0 0.02 0 0.005 0.02 0 0.01 0.02 0 0.015 0.02 0 0.02 0.02 0 0.025 0.02 0 0.03 0.02 0 0.035 0.02 0 0.04 0.02 0 0.045 0.02 0 0.05 0.02 0 0.055 0.02 0 0.06 0.02 0 0.065 0.02 0 0.07 0.02 0 0.075 0.02 0 0.08 0.02 0 0.085 0.02 0 0.09 0.02 0 0.095 0.02 0 0.1 0.02 0 0.105 0.02 0 0.11 0.02 0 0.115 0.02 0 0.12 0.02 0 0.125 0.02 0 0.13 0.02 0 0.135 0.02 0 0.14 0.02 0 0.145 0.02 0 0.15 0.02 0 0.155 0.02 0 0.16 0.02 0 0.165 0.02 0 0.17 0.02 0 0.175 0.02 0 0.18 0.02 0 0.185 0.02 0 0.19 0.02 0 0.195 0.02 0 0.2 0.02 0 0.205 0.02 0 0.21 0.02 0 0.215 0.02 0 0.22 0.02 0 0.225 0.02 0 0.23 0.02 0 0.235 0.02 0 0.24 0.02 0 0.245 0.02 0 0.25 0.02 0 0.255 0.02 0 0.26 0.02 0 0.265 0.02 0 0.27 0.02 0 0.275 0.02 0 0.28 0.02 0 0.285 0.02 0 0.29 0.02 0 0.295 0.02 0 0.3 0.02 0 0.305 0.02 0 0.31 0.02 0 0.315 0.02 0 0.32 0.02 0 0.325 0.02 0 0.33 0.02 0 0.335 0.02 0 0.34 0.02 0 0.345 0.02 0 0.35 0.02 0 0.355 0.02 0 0.36 0.02 0 0.365 0.02 0 0.37 0.02 0 0.375 0.02 0 0.38 0.02 0 0.385 0.02 0 0.39 0.02 0 0.395 0.02 0 0.4 0.02 0 0.405 0.02 0 0.41 0.02 0 0.415 0.02 0 0.42 0.02 0 0.425 0.02 0 0.43 0.02 0 0.435 0.02 0 0.44 0.02 0 0.445 0.02 0 0.45 0.02 0 0.455 0.02 0 0.46 0.02 0 0.465 0.02 0 0.47 0.02 0 0.475 0.02 0 0.48 0.02 0 0.485 0.02 0 0.49 0.02 0 0.495 0.02 0 0.5 0.02 0 0.505 0.02 0 0.51 0.02 0 0.515 0.02 0 0.52 0.02 0 0.525 0.02 0 0.53 0.02 0 0.535 0.02 0 0.54 0.02 0 0.545 0.02 0 0.55 0.02 0 0.555 0.02 0 0.56 0.02 0 0.565 0.02 0 0.57 0.02 0 0.575 0.02 0 0.58 0.02 0 0.585 0.02 0 0.59 0.02 0 0.595 0.02 0 0.6 0.02 0 0.605 0.02 0 0.61 0.02 0 0.615 0.02 0 0.62 0.02 0 0.625 0.02 0 0.63 0.02 0 0.635 0.02 0 0.64 0.02 0 0.645 0.02 0 0.65 0.02 0 0.655 0.02 0 0.66 0.02 0 0.665 0.02 0 0.67 0.02 0 0.675 0.02 0 0.68 0.02 0 0.685 0.02 0 0.69 0.02 0 0.695 0.02 0 0.7 0.02 0 0.705 0.02 0 0.71 0.02 0 0.715 0.02 0 0.72 0.02 0 0.725 0.02 0 0.73 0.02 0 0.735 0.02 0 0.74 0.02 0 0.745 0.02 0 0.75 0.02 0 0.755 0.02 0 0.76 0.02 0 0.765 0.02 0 0.77 0.02 0 0.775 0.02 0 0.78 0.02 0 0.785 0.02 0 0.79 0.02 0 0.795 0.02 0 0.8 0.02 0 0.805 0.02 0 0.81 0.02 0 0.815 0.02 0 0.82 0.02 0 0.825 0.02 0 0.83 0.02 0 0.835 0.02 0 0.84 0.02 0 0.845 0.02 0 0.85 0.02 0 0.855 0.02 0 0.86 0.02 0 0.865 0.02 0 0.87 0.02 0 0.875 0.02 0 0.88 0.02 0 0.885 0.02 0 0.89 0.02 0 0.895 0.02 0 0.9 0.02 0 0.905 0.02 0 0.91 0.02 0 0.915 0.02 0 0.92 0.02 0 0.925 0.02 0 0.93 0.02 0 0.935 0.02 0 0.94 0.02 0 0.945 0.02 0 0.95 0.02 0 0.955 0.02 0 0.96 0.02 0 0.965 0.02 0 0.97 0.02 0 0.975 0.02 0 0.98 0.02 0 0.985 0.02 0 0.99 0.02 0 0.995 0.02 0 1 0.02 0 0 0.04 0 0.005 0.04 0 0.01 0.04 0 0.015 0.04 0 0.02 0.04 0 0.025 0.04 0 0.03 0.04 0 0.035 0.04 0 0.04 0.04 0 0.045 0.04 0 0.05 0.04 0 0.055 0.04 0 0.06 0.04 0 0.065 0.04 0 0.07 0.04 0 0.075 0.04 0 0.08 0.04 0 0.085 0.04 0 0.09 0.04 0 0.095 0.04 0 0.1 0.04 0 0.105 0.04 0 0.11 0.04 0 0.115 0.04 0 0.12 0.04 0 0.125 0.04 0 0.13 0.04 0 0.135 0.04 0 0.14 0.04 0 0.145 0.04 0 0.15 0.04 0 0.155 0.04 0 0.16 0.04 0 0.165 0.04 0 0.17 0.04 0 0.175 0.04 0 0.18 0.04 0 0.185 0.04 0 0.19 0.04 0 0.195 0.04 0 0.2 0.04 0 0.205 0.04 0 0.21 0.04 0 0.215 0.04 0 0.22 0.04 0 0.225 0.04 0 0.23 0.04 0 0.235 0.04 0 0.24 0.04 0 0.245 0.04 0 0.25 0.04 0 0.255 0.04 0 0.26 0.04 0 0.265 0.04 0 0.27 0.04 0 0.275 0.04 0 0.28 0.04 0 0.285 0.04 0 0.29 0.04 0 0.295 0.04 0 0.3 0.04 0 0.305 0.04 0 0.31 0.04 0 0.315 0.04 0 0.32 0.04 0 0.325 0.04 0 0.33 0.04 0 0.335 0.04 0 0.34 0.04 0 0.345 0.04 0 0.35 0.04 0 0.355 0.04 0 0.36 0.04 0 0.365 0.04 0 0.37 0.04 0 0.375 0.04 0 0.38 0.04 0 0.385 0.04 0 0.39 0.04 0 0.395 0.04 0 0.4 0.04 0 0.405 0.04 0 0.41 0.04 0 0.415 0.04 0 0.42 0.04 0 0.425 0.04 0 0.43 0.04 0 0.435 0.04 0 0.44 0.04 0 0.445 0.04 0 0.45 0.04 0 0.455 0.04 0 0.46 0.04 0 0.465 0.04 0 0.47 0.04 0 0.475 0.04 0 0.48 0.04 0 0.485 0.04 0 0.49 0.04 0 0.495 0.04 0 0.5 0.04 0 0.505 0.04 0 0.51 0.04 0 0.515 0.04 0 0.52 0.04 0 0.525 0.04 0 0.53 0.04 0 0.535 0.04 0 0.54 0.04 0 0.545 0.04 0 0.55 0.04 0 0.555 0.04 0 0.56 0.04 0 0.565 0.04 0 0.57 0.04 0 0.575 0.04 0 0.58 0.04 0 0.585 0.04 0 0.59 0.04 0 0.595 0.04 0 0.6 0.04 0 0.605 0.04 0 0.61 0.04 0 0.615 0.04 0 0.62 0.04 0 0.625 0.04 0 0.63 0.04 0 0.635 0.04 0 0.64 0.04 0 0.645 0.04 0 0.65 0.04 0 0.655 0.04 0 0.66 0.04 0 0.665 0.04 0 0.67 0.04 0 0.675 0.04 0 0.68 0.04 0 0.685 0.04 0 0.69 0.04 0 0.695 0.04 0 0.7 0.04 0 0.705 0.04 0 0.71 0.04 0 0.715 0.04 0 0.72 0.04 0 0.725 0.04 0 0.73 0.04 0 0.735 0.04 0 0.74 0.04 0 0.745 0.04 0 0.75 0.04 0 0.755 0.04 0 0.76 0.04 0 0.765 0.04 0 0.77 0.04 0 0.775 0.04 0 0.78 0.04 0 0.785 0.04 0 0.79 0.04 0 0.795 0.04 0 0.8 0.04 0 0.805 0.04 0 0.81 0.04 0 0.815 0.04 0 0.82 0.04 0 0.825 0.04 0 0.83 0.04 0 0.835 0.04 0 0.84 0.04 0 0.845 0.04 0 0.85 0.04 0 0.855 0.04 0 0.86 0.04 0 0.865 0.04 0 0.87 0.04 0 0.875 0.04 0 0.88 0.04 0 0.885 0.04 0 0.89 0.04 0 0.895 0.04 0 0.9 0.04 0 0.905 0.04 0 0.91 0.04 0 0.915 0.04 0 0.92 0.04 0 0.925 0.04 0 0.93 0.04 0 0.935 0.04 0 0.94 0.04 0 0.945 0.04 0 0.95 0.04 0 0.955 0.04 0 0.96 0.04 0 0.965 0.04 0 0.97 0.04 0 0.975 0.04 0 0.98 0.04 0 0.985 0.04 0 0.99 0.04 0 0.995 0.04 0 1 0.04 0 0 0.06 0 0.005 0.06 0 0.01 0.06 0 0.015 0.06 0 0.02 0.06 0 0.025 0.06 0 0.03 0.06 0 0.035 0.06 0 0.04 0.06 0 0.045 0.06 0 0.05 0.06 0 0.055 0.06 0 0.06 0.06 0 0.065 0.06 0 0.07 0.06 0 0.075 0.06 0 0.08 0.06 0 0.085 0.06 0 0.09 0.06 0 0.095 0.06 0 0.1 0.06 0 0.105 0.06 0 0.11 0.06 0 0.115 0.06 0 0.12 0.06 0 0.125 0.06 0 0.13 0.06 0 0.135 0.06 0 0.14 0.06 0 0.145 0.06 0 0.15 0.06 0 0.155 0.06 0 0.16 0.06 0 0.165 0.06 0 0.17 0.06 0 0.175 0.06 0 0.18 0.06 0 0.185 0.06 0 0.19 0.06 0 0.195 0.06 0 0.2 0.06 0 0.205 0.06 0 0.21 0.06 0 0.215 0.06 0 0.22 0.06 0 0.225 0.06 0 0.23 0.06 0 0.235 0.06 0 0.24 0.06 0 0.245 0.06 0 0.25 0.06 0 0.255 0.06 0 0.26 0.06 0 0.265 0.06 0 0.27 0.06 0 0.275 0.06 0 0.28 0.06 0 0.285 0.06 0 0.29 0.06 0 0.295 0.06 0 0.3 0.06 0 0.305 0.06 0 0.31 0.06 0 0.315 0.06 0 0.32 0.06 0 0.325 0.06 0 0.33 0.06 0 0.335 0.06 0 0.34 0.06 0 0.345 0.06 0 0.35 0.06 0 0.355 0.06 0 0.36 0.06 0 0.365 0.06 0 0.37 0.06 0 0.375 0.06 0 0.38 0.06 0 0.385 0.06 0 0.39 0.06 0 0.395 0.06 0 0.4 0.06 0 0.405 0.06 0 0.41 0.06 0 0.415 0.06 0 0.42 0.06 0 0.425 0.06 0 0.43 0.06 0 0.435 0.06 0 0.44 0.06 0 0.445 0.06 0 0.45 0.06 0 0.455 0.06 0 0.46 0.06 0 0.465 0.06 0 0.47 0.06 0 0.475 0.06 0 0.48 0.06 0 0.485 0.06 0 0.49 0.06 0 0.495 0.06 0 0.5 0.06 0 0.505 0.06 0 0.51 0.06 0 0.515 0.06 0 0.52 0.06 0 0.525 0.06 0 0.53 0.06 0 0.535 0.06 0 0.54 0.06 0 0.545 0.06 0 0.55 0.06 0 0.555 0.06 0 0.56 0.06 0 0.565 0.06 0 0.57 0.06 0 0.575 0.06 0 0.58 0.06 0 0.585 0.06 0 0.59 0.06 0 0.595 0.06 0 0.6 0.06 0 0.605 0.06 0 0.61 0.06 0 0.615 0.06 0 0.62 0.06 0 0.625 0.06 0 0.63 0.06 0 0.635 0.06 0 0.64 0.06 0 0.645 0.06 0 0.65 0.06 0 0.655 0.06 0 0.66 0.06 0 0.665 0.06 0 0.67 0.06 0 0.675 0.06 0 0.68 0.06 0 0.685 0.06 0 0.69 0.06 0 0.695 0.06 0 0.7 0.06 0 0.705 0.06 0 0.71 0.06 0 0.715 0.06 0 0.72 0.06 0 0.725 0.06 0 0.73 0.06 0 0.735 0.06 0 0.74 0.06 0 0.745 0.06 0 0.75 0.06 0 0.755 0.06 0 0.76 0.06 0 0.765 0.06 0 0.77 0.06 0 0.775 0.06 0 0.78 0.06 0 0.785 0.06 0 0.79 0.06 0 0.795 0.06 0 0.8 0.06 0 0.805 0.06 0 0.81 0.06 0 0.815 0.06 0 0.82 0.06 0 0.825 0.06 0 0.83 0.06 0 0.835 0.06 0 0.84 0.06 0 0.845 0.06 0 0.85 0.06 0 0.855 0.06 0 0.86 0.06 0 0.865 0.06 0 0.87 0.06 0 0.875 0.06 0 0.88 0.06 0 0.885 0.06 0 0.89 0.06 0 0.895 0.06 0 0.9 0.06 0 0.905 0.06 0 0.91 0.06 0 0.915 0.06 0 0.92 0.06 0 0.925 0.06 0 0.93 0.06 0 0.935 0.06 0 0.94 0.06 0 0.945 0.06 0 0.95 0.06 0 0.955 0.06 0 0.96 0.06 0 0.965 0.06 0 0.97 0.06 0 0.975 0.06 0 0.98 0.06 0 0.985 0.06 0 0.99 0.06 0 0.995 0.06 0 1 0.06 0 0 0.08 0 0.005 0.08 0 0.01 0.08 0 0.015 0.08 0 0.02 0.08 0 0.025 0.08 0 0.03 0.08 0 0.035 0.08 0 0.04 0.08 0 0.045 0.08 0 0.05 0.08 0 0.055 0.08 0 0.06 0.08 0 0.065 0.08 0 0.07 0.08 0 0.075 0.08 0 0.08 0.08 0 0.085 0.08 0 0.09 0.08 0 0.095 0.08 0 0.1 0.08 0 0.105 0.08 0 0.11 0.08 0 0.115 0.08 0 0.12 0.08 0 0.125 0.08 0 0.13 0.08 0 0.135 0.08 0 0.14 0.08 0 0.145 0.08 0 0.15 0.08 0 0.155 0.08 0 0.16 0.08 0 0.165 0.08 0
[...]
			<PointData Scalars="VitesseX">
				<DataArray Name="VitesseX" type="Float32" format="ascii">
 0 -9.59953e-15 -2.10145e-15 -8.31259e-16 -1.04745e-14 -2.40191e-14 7.17969e-15 -5.00596e-14 -2.19172e-14 -8.07783e-14 1.4768e-14 -6.70356e-14 1.15966e-14 -5.21172e-14 -2.89786e-14 -6.83605e-14 9.14729e-14 -1.52304e-13 6.78925e-14 -9.13623e-14 1.22231e-14 -6.13832e-14 -1.00767e-13 -9.32876e-14 -1.04324e-13 -1.2082e-13 -2.75713e-13 2.58428e-14 -1.69036e-13 3.75602e-14 3.67206e-15 -8.67487e-14 6.01063e-14 -1.19555e-13 -2.51475e-14 -1.87695e-13 -5.01303e-14 -1.79575e-13 -2.02295e-13 -1.81216e-13 -1.26276e-13 -1.95351e-13 -1.69414e-13 2.7677e-14 -1.03909e-13 -5.20529e-14 -7.38521e-14 -5.41379e-14 -6.94587e-14 -2.55958e-13 6.91495e-14 1.29901e-13 1.83065e-12 1.13958e-11 8.22618e-11 5.40419e-10 3.35581e-09 1.95394e-08 1.06369e-07 5.39529e-07 2.53946e-06 1.10398e-05 4.40836e-05 0.000160629 0.000529886 0.00156799 0.00412053 0.00952908 0.019298 0.0343372 0.0544033 0.07837 0.104968 0.133239 0.16259 0.192667 0.223207 0.254073 0.285189 0.316517 0.348039 0.379759 0.411691 0.44378 0.475237 0.506437 0.537219 0.567913 0.598098 0.628336 0.657982 0.687498 0.716643 0.744927 0.773351 0.800097 0.826405 0.850973 0.872088 0.891497 0.906173 0.916226 0.924365 0.928335 0.929868 0.931271 0.931571 0.931461 0.931261 0.931049 0.930832 0.930578 0.930273 0.929937 0.929628 0.929375 0.929164 0.928981 0.928822 0.928687 0.928575 0.92848 0.928399 0.928329 0.928266 0.928211 0.92816 0.928114 0.928072 0.928033 0.927998 0.927964 0.927927 0.92788 0.927815 0.927708 0.927507 0.927103 0.926281 0.924602 0.921212 0.914486 0.901497 0.877428 0.83541 0.767717 0.669304 0.542826 0.402363 0.267974 0.157625 0.0808752 0.0365408 0.0150475 0.00587847 0.00223831 0.000841697 0.000314243 0.000116686 4.31089e-05 1.58424e-05 5.78894e-06 2.10228e-06 7.58361e-07 2.71603e-07 9.65292e-08 3.4029e-08 1.18939e-08 4.1197e-09 1.41402e-09 4.80507e-10 1.61454e-10 5.33232e-11 1.74475e-11 5.722e-12 1.1832e-12 3.06186e-13 -1.83981e-13 -2.52035e-13 -5.02357e-13 2.13503e-13 -7.1279e-13 2.33731e-13 -1.7149e-14 -2.80906e-13 6.72671e-13 -2.8542e-13 2.08782e-13 -1.78285e-13 2.05879e-13 4.59754e-13 -6.45955e-13 5.15028e-13 -6.3737e-13 1.26104e-12 -2.08742e-13 -1.40273e-13 7.42643e-13 1.4888e-18 9.10096e-14 0 0 1.28207e-14 -1.32648e-15 9.99314e-15 -7.75019e-15 -3.20827e-15 -2.75758e-14 -1.54867e-14 -5.06872e-14 -4.89621e-15 -7.1654e-14 -1.22582e-15 -4.48688e-14 -2.83121e-14 -5.52449e-14 3.67923e-14 -9.16558e-14 8.48297e-14 -1.17631e-13 2.28353e-14 -1.25682e-13 -1.08036e-14 -6.67046e-14 -1.43895e-13 -9.81643e-14 -1.13305e-13 -4.17091e-14 -1.7766e-13 -7.17816e-14 -5.66227e-14 4.49087e-16 5.51023e-14 -1.14944e-13 2.46107e-14 -1.92089e-13 -8.38975e-14 -1.89759e-13 -1.6736e-13 -1.17117e-13 -1.7132e-13 -1.71875e-13 -7.30499e-14 -9.03964e-14 -4.52338e-14 5.30421e-14 -1.51902e-13 -9.89944e-14 -6.31627e-14 -3.82332e-14 -2.29848e-14 -7.07453e-14 3.8957e-13 1.5088e-12 1.18775e-11 8.15639e-11 5.40858e-10 3.35598e-09 1.95389e-08 1.0637e-07 5.39528e-07 2.53946e-06 1.10398e-05 4.40836e-05 0.000160629 0.000529886 0.00156799 0.00412053 0.00952908 0.019298 0.0343372 0.0544033 0.07837 0.104968 0.133239 0.16259 0.192667 0.223207 0.254073 0.285189 0.316517 0.348039 0.379759 0.411691 0.44378 0.475237 0.506437 0.537219 0.567913 0.598098 0.628336 0.657982 0.687498 0.716643 0.744927 0.773351 0.800097 0.826405 0.850973 0.872088 0.891497 0.906173 0.916226 0.924365 0.928335 0.929868 0.931271 0.931571 0.931461 0.931261 0.931049 0.930832 0.930578 0.930273 0.929937 0.929628 0.929375 0.929164 0.928981 0.928822 0.928687 0.928575 0.92848 0.928399 0.928329 0.928266 0.928211 0.92816 0.928114 0.928072 0.928033 0.927998 0.927964 0.927927 0.92788 0.927815 0.927708 0.927507 0.927103 0.926281 0.924602 0.921212 0.914486 0.901497 0.877428 0.83541 0.767717 0.669304 0.542826 0.402363 0.267974 0.157625 0.0808752 0.0365408 0.0150475 0.00587847 0.00223831 0.000841697 0.000314243 0.000116686 4.31089e-05 1.58424e-05 5.78894e-06 2.10228e-06 7.58361e-07 2.71603e-07 9.65295e-08 3.4029e-08 1.18938e-08 4.12023e-09 1.41369e-09 4.80295e-10 1.61383e-10 5.38202e-11 1.73593e-11 5.18199e-12 1.58347e-12 1.78973e-13 -1.98754e-13 -7.3745e-14 -2.48065e-13 -5.16871e-13 5.14605e-14 -5.15231e-13 -2.054e-14 2.13006e-13 -3.48708e-13 4.56474e-13 -2.62437e-13 2.67983e-13 -1.79968e-13 1.44411e-13 -3.10581e-14 -1.32972e-15 7.38676e-13 -3.02671e-13 4.69379e-13 2.25055e-13 -2.3249e-13 2.46599e-13 -2.05488e-13 0 0 7.33027e-15 1.80981e-14 9.42499e-15 6.11339e-15 -9.1087e-15 1.95e-14 -2.22514e-14 2.68658e-14 -2.48943e-14 -3.28492e-14 -3.49705e-14 -3.14431e-14 -3.22348e-14 -3.48369e-14 -8.6864e-14 2.07548e-14 -7.92626e-14 2.28362e-15 -9.25009e-14 3.52722e-15 -1.3002e-13 -8.91596e-14 -3.7632e-14 -6.38533e-14 -4.12113e-14 -1.42411e-13 -1.33831e-13 -5.79647e-14 1.54481e-15 -9.98358e-14 -4.20203e-14 -2.37207e-14 -6.11257e-14 -1.39219e-13 -1.4455e-13 -6.47431e-14 -1.98778e-13 -1.41999e-13 -1.54929e-13 -6.24793e-14 -7.7241e-14 6.05384e-14 -6.83166e-14 -3.8764e-15 5.27025e-15 -1.81088e-13 -5.12006e-14 -1.77876e-13 6.43569e-14 -3.18787e-14 2.2921e-13 1.65837e-12 1.18268e-11 8.21757e-11 5.40478e-10 3.35587e-09 1.95391e-08 1.0637e-07 5.39529e-07 2.53946e-06 1.10398e-05 4.40836e-05 0.000160629 0.000529886 0.00156799 0.00412053 0.00952908 0.019298 0.0343372 0.0544033 0.07837 0.104968 0.133239 0.16259 0.192667 0.223207 0.254073 0.285189 0.316517 0.348039 0.379759 0.411691 0.44378 0.475237 0.506437 0.537219 0.567913 0.598098 0.628336 0.657982 0.687498 0.716643 0.744927 0.773351 0.800097 0.826405 0.850973 0.872088 0.891497 0.906173 0.916226 0.924365 0.928335 0.929868 0.931271 0.931571 0.931461 0.931261 0.931049 0.930832 0.930578 0.930273 0.929937 0.929628 0.929375 0.929164 0.928981 0.928822 0.928687 0.928575 0.92848 0.928399 0.928329 0.928266 0.928211 0.92816 0.928114 0.928072 0.928033 0.927998 0.927964 0.927927 0.92788 0.927815 0.927708 0.927507 0.927103 0.926281 0.924602 0.921212 0.914486 0.901497 0.877428 0.83541 0.767717 0.669304 0.542826 0.402363 0.267974 0.157625 0.0808752 0.0365408 0.0150475 0.00587847 0.00223831 0.000841697 0.000314243 0.000116686 4.31089e-05 1.58424e-05 5.78894e-06 2.10228e-06 7.58361e-07 2.71603e-07 9.65294e-08 3.40292e-08 1.18939e-08 4.11991e-09 1.41383e-09 4.80443e-10 1.6146e-10 5.3579e-11 1.73435e-11 5.46694e-12 1.61793e-12 -1.51411e-13 -4.61293e-14 -3.20615e-13 -3.76882e-13 -1.45362e-13 -1.79546e-13 -8.80784e-14 -5.33065e-13 1.89891e-13 -2.63793e-13 -8.87905e-14 -5.23345e-14 2.14218e-13 1.29898e-13 -2.63901e-13 3.68969e-13 -2.88663e-13 -1.94853e-13 7.59625e-13 2.01761e-13 3.09049e-14 -4.3104e-14 2.74078e-13 2.14418e-13 0 0 -5.04922e-15 2.96606e-15 1.11784e-14 2.21059e-14 4.36216e-15 2.30688e-14 3.2566e-15 -1.19569e-14 -2.02974e-15 2.22489e-14 -1.27438e-14 -1.55577e-14 -7.12413e-14 -8.50513e-14 -9.07214e-14 -3.68913e-14 -5.95275e-14 -1.1409e-13 -7.97275e-14 -3.01635e-14 -5.79158e-14 -7.08882e-14 -4.62954e-14 7.59507e-15 -7.15246e-14 -1.85585e-13 4.75401e-14 -1.00399e-13 -6.47828e-14 -1.26069e-14 -7.36975e-14 5.49555e-14 -1.64291e-13 4.29359e-14 -1.34519e-13 -7.13784e-14 -1.85751e-13 -2.12955e-13 -1.91736e-13 5.7393e-14 -8.3587e-14 -2.6664e-13 -7.97375e-14 -5.6407e-14 -1.95687e-13 7.02303e-14 -4.50952e-14 8.23754e-14 -2.35994e-13 -7.91238e-15 2.38383e-13 1.84133e-12 1.17951e-11 8.22856e-11 5.40553e-10 3.35584e-09 1.95392e-08 1.0637e-07 5.39529e-07 2.53946e-06 1.10398e-05 4.40836e-05 0.000160629 0.000529886 0.00156799 0.00412053 0.00952908 0.019298 0.0343372 0.0544033 0.07837 0.104968 0.133239 0.16259 0.192667 0.223207 0.254073 0.285189 0.316517 0.348039 0.379759 0.411691 0.44378 0.475237 0.506437 0.537219 0.567913 0.598098 0.628336 0.657982 0.687498 0.716643 0.744927 0.773351 0.800097 0.826405 0.850973 0.872088 0.891497 0.906173 0.916226 0.924365 0.928335 0.929868 0.931271 0.931571 0.931461 0.931261 0.931049 0.930832 0.930578 0.930273 0.929937 0.929628 0.929375 0.929164 0.928981 0.928822 0.928687 0.928575 0.92848 0.928399 0.928329 0.928266 0.928211 0.92816 0.928114 0.928072 0.928033 0.927998 0.927964 0.927927 0.92788 0.927815 0.927708 0.927507 0.927103 0.926281 0.924602 0.921212 0.914486 0.901497 0.877428 0.83541 0.767717 0.669304 0.542826 0.402363 0.267974 0.157625 0.0808752 0.0365408 0.0150475 0.00587847 0.00223831 0.000841697 0.000314243 0.000116686 4.31089e-05 1.58424e-05 5.78894e-06 2.10228e-06 7.58361e-07 2.71603e-07 9.65294e-08 3.40288e-08 1.18939e-08 4.1198e-09 1.41417e-09 4.80648e-10 1.61726e-10 5.33469e-11 1.733e-11 5.47858e-12 1.12765e-12 2.19896e-13 -1.58602e-13 -1.8336e-14 -4.95525e-13 -2.93149e-13 -1.36637e-13 2.66936e-13 -2.13006e-13 -3.70601e-13 2.16807e-13 -1.31366e-13 -3.03265e-13 -1.78051e-13 2.59993e-13 3.00287e-13 -8.8646e-13 1.65741e-13 1.62632e-13 2.02052e-13 -2.21252e-13 1.36537e-13 7.11604e-13 -6.24297e-13 2.12651e-13 0 0 4.48585e-15 -9.42103e-15 1.00905e-14 9.75163e-15 1.43658e-14 3.00998e-15 2.88516e-14 -4.5205e-14 2.12475e-14 -3.63326e-14 9.37737e-15 -4.32392e-14 -4.76022e-14 -9.2929e-14 -6.28545e-14 -1.30669e-13 2.68885e-14 -1.52054e-13 1.29571e-14 -1.79209e-13 6.08156e-14 -6.16986e-14 -8.60312e-14 -2.47834e-14 -8.93122e-14 -3.72299e-14 -5.06776e-14 -3.94875e-14 -5.48813e-14 5.64721e-14 9.95544e-14 -6.74925e-14 -1.21873e-13 -5.83716e-14 -1.4428e-14 -1.19178e-13 -9.06889e-14 -1.81909e-13 -2.51259e-13 -1.27039e-13 -8.27063e-14 -2.77623e-13 -9.33839e-14 -7.83888e-16 -1.66223e-13 4.46923e-14 -1.87373e-13 6.10869e-14 -1.53442e-13 -4.83233e-14 4.20539e-13 1.74135e-12 1.20263e-11 8.17695e-11 5.41058e-10 3.35609e-09 1.95389e-08 1.0637e-07 5.39529e-07 2.53946e-06 1.10398e-05 4.40836e-05 0.000160629 0.000529886 0.00156799 0.00412053 0.00952908 0.019298 0.0343372 0.0544033 0.07837 0.104968 0.133239 0.16259 0.192667 0.223207 0.254073 0.285189 0.316517 0.348039 0.379759 0.411691 0.44378 0.475237 0.506437 0.537219 0.567913 0.598098 0.628336 0.657982 0.687498 0.716643 0.744927 0.773351 0.800097 0.826405 0.850973 0.872088 0.891497 0.906173 0.916226 0.924365 0.928335 0.929868 0.931271 0.931571 0.931461 0.931261 0.931049 0.930832 0.930578 0.930273 0.929937 0.929628 0.929375 0.929164 0.928981 0.928822 0.928687 0.928575 0.92848 0.928399 0.928329 0.928266 0.928211 0.92816 0.928114 0.928072 0.928033 0.927998 0.927964 0.927927 0.92788 0.927815 0.927708 0.927507 0.927103 0.926281 0.924602 0.921212 0.914486 0.901497 0.877428 0.83541 0.767717 0.669304 0.542826 0.402363 0.267974 0.157625 0.0808752 0.0365408 0.0150475 0.00587847 0.00223831 0.000841697 0.000314243 0.000116686 4.31089e-05 1.58424e-05 5.78894e-06 2.10228e-06 7.58361e-07 2.71604e-07 9.65293e-08 3.40288e-08 1.18939e-08 4.12008e-09 1.4139e-09 4.80492e-10 1.61564e-10 5.3641e-11 1.72481e-11 4.99858e-12 1.1647e-12 2.53e-13 -2.36666e-13 2.31201e-13 -1.74311e-13 -6.43727e-13 2.19546e-13 -1.88452e-13 2.76159e-13 -1.99455e-13 -2.93209e-13 3.52941e-13 -2.42788e-13 -2.00834e-13 -2.23817e-13 -1.67872e-13 -1.01614e-13 -2.00909e-13 7.96194e-13 -7.24703e-13 2.42285e-13 6.15274e-13 8.72868e-14 -4.4126e-13 -3.47596e-13 0 0 -1.51025e-15 1.19734e-14 -4.1435e-15 -7.45585e-15 -1.58127e-14 6.12137e-14 -1.2399e-14 6.66927e-14 -7.42201e-14 -2.47855e-14 -9.02826e-14 -1.6915e-14 -1.26844e-14 -3.91794e-15 -2.59939e-13 1.28738e-13 -3.07657e-13 2.31795e-13 -1.36665e-13 -2.74483e-14 -6.23537e-14 -1.27298e-13 3.97673e-14 -1.00459e-13 -1.2208e-14 -1.80406e-13 -8.29339e-14 -1.95799e-14 1.73698e-13 -5.87396e-14 6.55099e-14 -2.34288e-15 -2.06193e-13 -1.22023e-13 -6.88184e-14 1.04302e-13 -5.22869e-14 -1.89968e-13 -2.67478e-13 -2.76349e-13 -2.01972e-13 1.1049e-13 -4.57814e-14 -1.065e-13 3.2122e-13 -2.89116e-13 -3.14768e-13 -3.9132e-13 8.38281e-14 6.6061e-14 1.73492e-13 1.92982e-12 1.17567e-11 8.2453e-11 5.4067e-10 3.35608e-09 1.95393e-08 1.06369e-07 5.39529e-07 2.53946e-06 1.10398e-05 4.40836e-05 0.000160629 0.000529886 0.00156799 0.00412053 0.00952908 0.019298 0.0343372 0.0544033 0.07837 0.104968 0.133239 0.16259 0.192667 0.223207 0.254073 0.285189 0.316517 0.348039 0.379759 0.411691 0.44378 0.475237 0.506437 0.537219 0.567913 0.598098 0.628336 0.657982 0.687498 0.716643 0.744927 0.773351 0.800097 0.826405 0.850973 0.872088 0.891497 0.906173 0.916226 0.924365 0.928335 0.929868 0.931271 0.931571 0.931461 0.931261 0.931049 0.930832 0.930578 0.930273 0.929937 0.929628 0.929375 0.929164 0.928981 0.928822 0.928687 0.928575 0.92848 0.928399 0.928329 0.928266 0.928211 0.92816 0.928114 0.928072 0.928033 0.927998 0.927964 0.927927 0.92788 0.927815 0.927708 0.927507 0.927103 0.926281 0.924602 0.921212 0.914486 0.901497 0.877428 0.83541 0.767717 0.669304 0.542826 0.402363 0.267974 0.157625 0.0808752 0.0365408 0.0150475 0.00587847 0.00223831 0.000841697 0.000314243 0.000116686 4.31089e-05 1.58424e-05 5.78894e-06 2.10228e-06 7.5836e-07 2.71604e-07 9.6529e-08 3.40294e-08 1.1894e-08 4.11962e-09 1.41375e-09 4.80492e-10 1.61287e-10 5.34289e-11 1.7252e-11 5.33189e-12 1.32623e-12 -2.88374e-13 -3.48591e-14 -2.46702e-13 -1.17565e-13 2.55365e-13 -4.62436e-13 1.77259e-13 -6.38674e-14 1.51557e-14 -1.77531e-13 -4.07334e-13 7.49943e-13 -3.31381e-13 -1.42008e-13 -1.29319e-12 1.72379e-12 -7.92939e-13 -1.2373e-12 1.53212e-12 1.83097e-13 4.289e-13 -1.27219e-13 4.21033e-13 -1.89674e-13 0
				</DataArray>
				<DataArray Name="VitesseY" type="Float32" format="ascii">