<?xml version="1.0"?>
<VTKFile type="PolyData">
	<PolyData>
		<Piece NumberOfPoints="1206" NumberOfPolys="1000">
			<Points>
				<DataArray type="Float32" NumberOfComponents="3" format="ascii">
 0 0 0 0.005 0 0 0.01 0 0 0.015 0 0 0.02 0 0 0.025 0 0 0.03 0 0 0.035 0 0 0.04 0 0 0.045 0 0 0.05 0 0 0.055 0 0 0.06 0 0 0.065 0 0 0.07 0 0 0.075 0 0 0.08 0 0 0.085 0 0 0.09 0 0 0.095 0 0 0.1 0 0 0.105 0 0 0.11 0 0 0.115 0 0 0.12 0 0 0.125 0 0 0.13 0 0 0.135 0 0 0.14 0 0 0.145 0 0 0.15 0 0 0.155 0 0 0.16 0 0 0.165 0 0 0.17 0 0 0.175 0 0 0.18 0 0 0.185 0 0 0.19 0 0 0.195 0 0 0.2 0 0 0.205 0 0 0.21 0 0 0.215 0 0 0.22 0 0 0.225 0 0 0.23 0 0 0.235 0 0 0.24 0 0 0.245 0 0 0.25 0 0 0.255 0 0 0.26 0 0 0.265 0 0 0.27 0 0 0.275 0 0 0.28 0 0 0.285 0 0 0.29 0 0 0.295 0 0 0.3 0 0 0.305 0 0 0.31 0 0 0.315 0 0 0.32 0 0 0.325 0 0 0.33 0 0 0.335 0 0 0.34 0 0 0.345 0 0 0.35 0 0 0.355 0 0 0.36 0 0 0.365 0 0 0.37 0 0 0.375 0 0 0.38 0 0 0.385 0 0 0.39 0 0 0.395 0 0 0.4 0 0 0.405 0 0 0.41 0 0 0.415 0 0 0.42 0 0 0.425 0 0 0.43 0 0 0.435 0 0 0.44 0 0 0.445 0 0 0.45 0 0 0.455 0 0 0.46 0 0 0.465 0 0 0.47 0 0 0.475 0 0 0.48 0 0 0.485 0 0 0.49 0 0 0.495 0 0 0.5 0 0 0.505 0 0 0.51 0 0 0.515 0 0 0.52 0 0 0.525 0 0 0.53 0 0 0.535 0 0 0.54 0 0 0.545 0 0 0.55 0 0 0.555 0 0 0.56 0 0 0.565 0 0 0.57 0 0 0.575 0 0 0.58 0 0 0.585 0 0 0.59 0 0 0.595 0 0 0.6 0 0 0.605 0 0 0.61 0 0 0.615 0 0 0.62 0 0 0.625 0 0 0.63 0 0 0.635 0 0 0.64 0 0 0.645 0 0 0.65 0 0 0.655 0 0 0.66 0 0 0.665 0 0 0.67 0 0 0.675 0 0 0.68 0 0 0.685 0 0 0.69 0 0 0.695 0 0 0.7 0 0 0.705 0 0 0.71 0 0 0.715 0 0 0.72 0 0 0.725 0 0 0.73 0 0 0.735 0 0 0.74 0 0 0.745 0 0 0.75 0 0 0.755 0 0 0.76 0 0 0.765 0 0 0.77 0 0 0.775 0 0 0.78 0 0 0.785 0 0 0.79 0 0 0.795 0 0 0.8 0 0 0.805 0 0 0.81 0 0 0.815 0 0 0.82 0 0 0.825 0 0 0.83 0 0 0.835 0 0 0.84 0 0 0.845 0 0 0.85 0 0 0.855 0 0 0.86 0 0 0.865 0 0 0.87 0 0 0.875 0 0 0.88 0 0 0.885 0 0 0.89 0 0 0.895 0 0 0.9 0 0 0.905 0 0 0.91 0 0 0.915 0 0 0.92 0 0 0.925 0 0 0.93 0 0 0.935 0 0 0.94 0 0 0.945 0 0 0.95 0 0 0.955 0 0 0.96 0 0 0.965 0 0 0.97 0 0 0.975 0 0 0.98 0 0 0.985 0 0 0.99 0 0 0.995 0 0 1 0 0 0 0.02 0 0.005 0.02 0 0.01 0.02 0 0.015 0.02 0 0.02 0.02 0 0.025 0.02 0 0.03 0.02 0 0.035 0.02 0 0.04 0.02 0 0.045 0.02 0 0.05 0.02 0 0.055 0.02 0 0.06 0.02 0 0.065 0.02 0 0.07 0.02 0 0.075 0.02 0 0.08 0.02 0 0.085 0.02 0 0.09 0.02 0 0.095 0.02 0 0.1 0.02 0 0.105 0.02 0 0.11 0.02 0 0.115 0.02 0 0.12 0.02 0 0.125 0.02 0 0.13 0.02 0 0.135 0.02 0 0.14 0.02 0 0.145 0.02 0 0.15 0.02 0 0.155 0.02 0 0.16 0.02 0 0.165 0.02 0 0.17 0.02 0 0.175 0.02 0 0.18 0.02 0 0.185 0.02 0 0.19 0.02 0 0.195 0.02 0 0.2 0.02 0 0.205 0.02 0 0.21 0.02 0 0.215 0.02 0 0.22 0.02 0 0.225 0.02 0 0.23 0.02 0 0.235 0.02 0 0.24 0.02 0 0.245 0.02 0 0.25 0.02 0 0.255 0.02 0 0.26 0.02 0 0.265 0.02 0 0.27 0.02 0 0.275 0.02 0 0.28 0.02 0 0.285 0.02 0 0.29 0.02 0 0.295 0.02 0 0.3 0.02 0 0.305 0.02 0 0.31 0.02 0 0.315 0.02 0 0.32 0.02 0 0.325 0.02 0 0.33 0.02 0 0.335 0.02 0 0.34 0.02 0 0.345 0.02 0 0.35 0.02 0 0.355 0.02 0 0.36 0.02 0 0.365 0.02 0 0.37 0.02 0 0.375 0.02 0 0.38 0.02 0 0.385 0.02 0 0.39 0.02 0 0.395 0.02 0 0.4 0.02 0 0.405 0.02 0 0.41 0.02 0 0.415 0.02 0 0.42 0.02 0 0.425 0.02 0 0.43 0.02 0 0.435 0.02 0 0.44 0.02 0 0.445 0.02 0 0.45 0.02 0 0.455 0.02 0 0.46 0.02 0 0.465 0.02 0 0.47 0.02 0 0.475 0.02 0 0.48 0.02 0 0.485 0.02 0 0.49 0.02 0 0.495 0.02 0 0.5 0.02 0 0.505 0.02 0 0.51 0.02 0 0.515 0.02 0 0.52 0.02 0 0.525 0.02 0 0.53 0.02 0 0.535 0.02 0 0.54 0.02 0 0.545 0.02 0 0.55 0.02 0 0.555 0.02 0 0.56 0.02 0 0.565 0.02 0 0.57 0.02 0 0.575 0.02 0 0.58 0.02 0 0.585 0.02 0 0.59 0.02 0 0.595 0.02 0 0.6 0.02 0 0.605 0.02 0 0.61 0.02 0 0.615 0.02 0 0.62 0.02 0 0.625 0.02 0 0.63 0.02 0 0.635 0.02 0 0.64 0.02 0 0.645 0.02 0 0.65 0.02 0 0.655 0.02 0 0.66 0.02 0 0.665 0.02 0 0.67 0.02 0 0.675 0.02 0 0.68 0.02 0 0.685 0.02 0 0.69 0.02 0 0.695 0.02 0 0.7 0.02 0 0.705 0.02 0 0.71 0.02 0 0.715 0.02 0 0.72 0.02 0 0.725 0.02 0 0.73 0.02 0 0.735 0.02 0 0.74 0.02 0 0.745 0.02 0 0.75 0.02 0 0.755 0.02 0 0.76 0.02 0 0.765 0.02 0 0.77 0.02 0 0.775 0.02 0 0.78 0.02 0 0.785 0.02 0 0.79 0.02 0 0.795 0.02 0 0.8 0.02 0 0.805 0.02 0 0.81 0.02 0 0.815 0.02 0 0.82 0.02 0 0.825 0.02 0 0.83 0.02 0 0.835 0.02 0 0.84 0.02 0 0.845 0.02 0 0.85 0.02 0 0.855 0.02 0 0.86 0.02 0 0.865 0.02 0 0.87 0.02 0 0.875 0.02 0 0.88 0.02 0 0.885 0.02 0 0.89 0.02 0 0.895 0.02 0 0.9 0.02 0 0.905 0.02 0 0.91 0.02 0 0.915 0.02 0 0.92 0.02 0 0.925 0.02 0 0.93 0.02 0 0.935 0.02 0 0.94 0.02 0 0.945 0.02 0 0.95 0.02 0 0.955 0.02 0 0.96 0.02 0 0.965 0.02 0 0.97 0.02 0 0.975 0.02 0 0.98 0.02 0 0.985 0.02 0 0.99 0.02 0 0.995 0.02 0 1 0.02 0 0 0.04 0 0.005 0.04 0 0.01 0.04 0 0.015 0.04 0 0.02 0.04 0 0.025 0.04 0 0.03 0.04 0 0.035 0.04 0 0.04 0.04 0 0.045 0.04 0 0.05 0.04 0 0.055 0.04 0 0.06 0.04 0 0.065 0.04 0 0.07 0.04 0 0.075 0.04 0 0.08 0.04 0 0.085 0.04 0 0.09 0.04 0 0.095 0.04 0 0.1 0.04 0 0.105 0.04 0 0.11 0.04 0 0.115 0.04 0 0.12 0.04 0 0.125 0.04 0 0.13 0.04 0 0.135 0.04 0 0.14 0.04 0 0.145 0.04 0 0.15 0.04 0 0.155 0.04 0 0.16 0.04 0 0.165 0.04 0 0.17 0.04 0 0.175 0.04 0 0.18 0.04 0 0.185 0.04 0 0.19 0.04 0 0.195 0.04 0 0.2 0.04 0 0.205 0.04 0 0.21 0.04 0 0.215 0.04 0 0.22 0.04 0 0.225 0.04 0 0.23 0.04 0 0.235 0.04 0 0.24 0.04 0 0.245 0.04 0 0.25 0.04 0 0.255 0.04 0 0.26 0.04 0 0.265 0.04 0 0.27 0.04 0 0.275 0.04 0 0.28 0.04 0 0.285 0.04 0 0.29 0.04 0 0.295 0.04 0 0.3 0.04 0 0.305 0.04 0 0.31 0.04 0 0.315 0.04 0 0.32 0.04 0 0.325 0.04 0 0.33 0.04 0 0.335 0.04 0 0.34 0.04 0 0.345 0.04 0 0.35 0.04 0 0.355 0.04 0 0.36 0.04 0 0.365 0.04 0 0.37 0.04 0 0.375 0.04 0 0.38 0.04 0 0.385 0.04 0 0.39 0.04 0 0.395 0.04 0 0.4 0.04 0 0.405 0.04 0 0.41 0.04 0 0.415 0.04 0 0.42 0.04 0 0.425 0.04 0 0.43 0.04 0 0.435 0.04 0 0.44 0.04 0 0.445 0.04 0 0.45 0.04 0 0.455 0.04 0 0.46 0.04 0 0.465 0.04 0 0.47 0.04 0 0.475 0.04 0 0.48 0.04 0 0.485 0.04 0 0.49 0.04 0 0.495 0.04 0 0.5 0.04 0 0.505 0.04 0 0.51 0.04 0 0.515 0.04 0 0.52 0.04 0 0.525 0.04 0 0.53 0.04 0 0.535 0.04 0 0.54 0.04 0 0.545 0.04 0 0.55 0.04 0 0.555 0.04 0 0.56 0.04 0 0.565 0.04 0 0.57 0.04 0 0.575 0.04 0 0.58 0.04 0 0.585 0.04 0 0.59 0.04 0 0.595 0.04 0 0.6 0.04 0 0.605 0.04 0 0.61 0.04 0 0.615 0.04 0 0.62 0.04 0 0.625 0.04 0 0.63 0.04 0 0.635 0.04 0 0.64 0.04 0 0.645 0.04 0 0.65 0.04 0 0.655 0.04 0 0.66 0.04 0 0.665 0.04 0 0.67 0.04 0 0.675 0.04 0 0.68 0.04 0 0.685 0.04 0 0.69 0.04 0 0.695 0.04 0 0.7 0.04 0 0.705 0.04 0 0.71 0.04 0 0.715 0.04 0 0.72 0.04 0 0.725 0.04 0 0.73 0.04 0 0.735 0.04 0 0.74 0.04 0 0.745 0.04 0 0.75 0.04 0 0.755 0.04 0 0.76 0.04 0 0.765 0.04 0 0.77 0.04 0 0.775 0.04 0 0.78 0.04 0 0.785 0.04 0 0.79 0.04 0 0.795 0.04 0 0.8 0.04 0 0.805 0.04 0 0.81 0.04 0 0.815 0.04 0 0.82 0.04 0 0.825 0.04 0 0.83 0.04 0 0.835 0.04 0 0.84 0.04 0 0.845 0.04 0 0.85 0.04 0 0.855 0.04 0 0.86 0.04 0 0.865 0.04 0 0.87 0.04 0 0.875 0.04 0 0.88 0.04 0 0.885 0.04 0 0.89 0.04 0 0.895 0.04 0 0.9 0.04 0 0.905 0.04 0 0.91 0.04 0 0.915 0.04 0 0.92 0.04 0 0.925 0.04 0 0.93 0.04 0 0.935 0.04 0 0.94 0.04 0 0.945 0.04 0 0.95 0.04 0 0.955 0.04 0 0.96 0.04 0 0.965 0.04 0 0.97 0.04 0 0.975 0.04 0 0.98 0.04 0 0.985 0.04 0 0.99 0.04 0 0.995 0.04 0 1 0.04 0 0 0.06 0 0.005 0.06 0 0.01 0.06 0 0.015 0.06 0 0.02 0.06 0 0.025 0.06 0 0.03 0.06 0 0.035 0.06 0 0.04 0.06 0 0.045 0.06 0 0.05 0.06 0 0.055 0.06 0 0.06 0.06 0 0.065 0.06 0 0.07 0.06 0 0.075 0.06 0 0.08 0.06 0 0.085 0.06 0 0.09 0.06 0 0.095 0.06 0 0.1 0.06 0 0.105 0.06 0 0.11 0.06 0 0.115 0.06 0 0.12 0.06 0 0.125 0.06 0 0.13 0.06 0 0.135 0.06 0 0.14 0.06 0 0.145 0.06 0 0.15 0.06 0 0.155 0.06 0 0.16 0.06 0 0.165 0.06 0 0.17 0.06 0 0.175 0.06 0 0.18 0.06 0 0.185 0.06 0 0.19 0.06 0 0.195 0.06 0 0.2 0.06 0 0.205 0.06 0 0.21 0.06 0 0.215 0.06 0 0.22 0.06 0 0.225 0.06 0 0.23 0.06 0 0.235 0.06 0 0.24 0.06 0 0.245 0.06 0 0.25 0.06 0 0.255 0.06 0 0.26 0.06 0 0.265 0.06 0 0.27 0.06 0 0.275 0.06 0 0.28 0.06 0 0.285 0.06 0 0.29 0.06 0 0.295 0.06 0 0.3 0.06 0 0.305 0.06 0 0.31 0.06 0 0.315 0.06 0 0.32 0.06 0 0.325 0.06 0 0.33 0.06 0 0.335 0.06 0 0.34 0.06 0 0.345 0.06 0 0.35 0.06 0 0.355 0.06 0 0.36 0.06 0 0.365 0.06 0 0.37 0.06 0 0.375 0.06 0 0.38 0.06 0 0.385 0.06 0 0.39 0.06 0 0.395 0.06 0 0.4 0.06 0 0.405 0.06 0 0.41 0.06 0 0.415 0.06 0 0.42 0.06 0 0.425 0.06 0 0.43 0.06 0 0.435 0.06 0 0.44 0.06 0 0.445 0.06 0 0.45 0.06 0 0.455 0.06 0 0.46 0.06 0 0.465 0.06 0 0.47 0.06 0 0.475 0.06 0 0.48 0.06 0 0.485 0.06 0 0.49 0.06 0 0.495 0.06 0 0.5 0.06 0 0.505 0.06 0 0.51 0.06 0 0.515 0.06 0 0.52 0.06 0 0.525 0.06 0 0.53 0.06 0 0.535 0.06 0 0.54 0.06 0 0.545 0.06 0 0.55 0.06 0 0.555 0.06 0 0.56 0.06 0 0.565 0.06 0 0.57 0.06 0 0.575 0.06 0 0.58 0.06 0 0.585 0.06 0 0.59 0.06 0 0.595 0.06 0 0.6 0.06 0 0.605 0.06 0 0.61 0.06 0 0.615 0.06 0 0.62 0.06 0 0.625 0.06 0 0.63 0.06 0 0.635 0.06 0 0.64 0.06 0 0.645 0.06 0 0.65 0.06 0 0.655 0.06 0 0.66 0.06 0 0.665 0.06 0 0.67 0.06 0 0.675 0.06 0 0.68 0.06 0 0.685 0.06 0 0.69 0.06 0 0.695 0.06 0 0.7 0.06 0 0.705 0.06 0 0.71 0.06 0 0.715 0.06 0 0.72 0.06 0 0.725 0.06 0 0.73 0.06 0 0.735 0.06 0 0.74 0.06 0 0.745 0.06 0 0.75 0.06 0 0.755 0.06 0 0.76 0.06 0 0.765 0.06 0 0.77 0.06 0 0.775 0.06 0 0.78 0.06 0 0.785 0.06 0 0.79 0.06 0 0.795 0.06 0 0.8 0.06 0 0.805 0.06 0 0.81 0.06 0 0.815 0.06 0 0.82 0.06 0 0.825 0.06 0 0.83 0.06 0 0.835 0.06 0 0.84 0.06 0 0.845 0.06 0 0.85 0.06 0 0.855 0.06 0 0.86 0.06 0 0.865 0.06 0 0.87 0.06 0 0.875 0.06 0 0.88 0.06 0 0.885 0.06 0 0.89 0.06 0 0.895 0.06 0 0.9 0.06 0 0.905 0.06 0 0.91 0.06 0 0.915 0.06 0 0.92 0.06 0 0.925 0.06 0 0.93 0.06 0 0.935 0.06 0 0.94 0.06 0 0.945 0.06 0 0.95 0.06 0 0.955 0.06 0 0.96 0.06 0 0.965 0.06 0 0.97 0.06 0 0.975 0.06 0 0.98 0.06 0 0.985 0.06 0 0.99 0.06 0 0.995 0.06 0 1 0.06 0 0 0.08 0 0.005 0.08 0 0.01 0.08 0 0.015 0.08 0 0.02 0.08 0 0.025 0.08 0 0.03 0.08 0 0.035 0.08 0 0.04 0.08 0 0.045 0.08 0 0.05 0.08 0 0.055 0.08 0 0.06 0.08 0 0.065 0.08 0 0.07 0.08 0 0.075 0.08 0 0.08 0.08 0 0.085 0.08 0 0.09 0.08 0 0.095 0.08 0 0.1 0.08 0 0.105 0.08 0 0.11 0.08 0 0.115 0.08 0 0.12 0.08 0 0.125 0.08 0 0.13 0.08 0 0.135 0.08 0 0.14 0.08 0 0.145 0.08 0 0.15 0.08 0 0.155 0.08 0 0.16 0.08 0 0.165 0.08 0
[...]
			<PointData Scalars="VitesseX">
				<DataArray Name="VitesseX" type="Float32" format="ascii">
 0 -1.43799e-14 1.95582e-15 -8.75871e-14 4.78132e-14 -3.10068e-15 -4.6966e-14 -5.20869e-14 1.53125e-14 -7.53966e-14 -7.26067e-14 1.00191e-13 -1.9159e-13 1.2051e-13 -1.51376e-13 -9.52024e-14 1.8391e-14 -2.98187e-13 5.47265e-14 -1.05251e-13 -6.447e-15 6.53643e-14 3.95049e-14 -4.75318e-14 -3.47451e-13 -1.81887e-14 2.32434e-13 -1.80685e-13 -7.14772e-14 -7.01528e-14 6.97175e-14 -1.23643e-13 7.03973e-14 6.70722e-14 -3.91996e-13 8.85611e-14 -1.84817e-13 7.10259e-14 -3.96153e-13 1.81909e-13 6.15674e-15 -5.26463e-14 9.87835e-14 -5.58137e-13 -2.96655e-13 1.30414e-14 -5.1626e-13 3.23751e-13 -9.15334e-14 6.21672e-14 -2.75741e-13 1.96199e-13 8.24944e-13 -1.01083e-12 2.49333e-13 -1.38464e-13 -4.36147e-13 3.58723e-13 -6.20281e-13 9.51861e-14 1.55127e-13 2.44166e-13 -7.30749e-15 -2.93816e-13 2.13999e-13 2.66241e-14 -3.25925e-13 -2.88467e-15 -7.37329e-13 2.67735e-13 1.1813e-13 -4.85352e-13 6.37205e-14 -3.83466e-13 1.04216e-12 -1.14586e-13 4.6449e-12 7.86319e-11 1.00117e-09 1.158e-08 1.19471e-07 1.0903e-06 8.7103e-06 6.01451e-05 0.000353225 0.00172832 0.00686849 0.0215916 0.0529129 0.102731 0.16628 0.23828 0.315868 0.397374 0.48154 0.556434 0.63251 0.69745 0.764558 0.819366 0.860316 0.900418 0.916938 0.923115 0.931258 0.934498 0.934119 0.932721 0.931722 0.931323 0.930831 0.929623 0.926844 0.920675 0.90733 0.87993 0.828782 0.744534 0.624072 0.477761 0.326971 0.195864 0.100102 0.0433396 0.0163561 0.00564758 0.00185018 0.000585085 0.000179719 5.37183e-05 1.56295e-05 4.42608e-06 1.21977e-06 3.27097e-07 8.53481e-08 2.167e-08 5.35349e-09 1.28702e-09 3.02005e-10 6.78119e-11 1.54784e-11 3.48659e-12 -3.11047e-13 1.17176e-12 1.46607e-13 -7.01174e-13 8.81103e-13 -1.84081e-12 1.11477e-12 -4.01056e-13 -1.52964e-13 1.5773e-12 -1.24548e-12 8.17416e-13 -5.96892e-13 9.78274e-13 -4.72666e-13 -8.99882e-13 2.72185e-13 -2.42342e-13 9.48594e-13 -4.0412e-13 -1.78785e-13 -1.93541e-13 -6.19512e-13 -3.88258e-13 4.1796e-13 6.29961e-13 4.36678e-13 -7.64684e-13 -2.67846e-13 2.02191e-13 -1.73277e-13 1.04613e-12 -7.0379e-13 7.51258e-13 -7.49366e-13 -8.61733e-13 1.40032e-12 -1.10732e-12 -5.17086e-13 2.19407e-13 -1.32315e-12 1.21582e-12 -3.29481e-13 2.12716e-13 -2.39808e-13 -8.10645e-13 1.31728e-12 -1.45878e-12 8.97777e-14 9.32073e-13 -2.36958e-12 1.39599e-12 -6.85217e-13 -2.66154e-13 4.3081e-13 -2.37439e-12 1.16883e-12 -1.49908e-12 0 0 -4.60434e-15 -3.09429e-14 3.42124e-14 -6.94614e-14 -2.72043e-14 1.44817e-14 -3.91431e-15 -5.41809e-14 -4.23485e-15 3.8181e-14 -1.00682e-13 1.39181e-13 -1.97323e-13 1.82469e-14 -7.08517e-14 -2.72739e-13 2.81696e-14 -1.71672e-13 4.09357e-14 5.69891e-14 -6.20669e-14 -1.41773e-13 -1.09167e-13 1.54e-13 -8.51127e-14 -2.45722e-13 6.08806e-14 -6.33088e-14 5.0132e-14 -1.09429e-13 6.34534e-14 -1.05022e-13 -6.16458e-14 1.69016e-13 -2.31063e-13 -3.02957e-14 -3.02496e-13 2.44222e-13 -2.94009e-13 -3.39269e-14 -7.80941e-14 -3.30376e-13 8.44844e-14 -1.15318e-13 -4.3233e-13 1.00128e-13 -3.24637e-13 2.22611e-13 9.27117e-14 2.40707e-13 -9.37912e-14 -5.09038e-13 8.65639e-13 -2.36167e-13 -2.97225e-13 4.95731e-14 -7.20156e-13 3.64963e-13 -1.10367e-13 -2.82118e-14 -1.25004e-13 -4.66213e-14 1.41419e-13 -2.23095e-13 -9.35752e-14 1.14484e-13 -3.12399e-13 1.50979e-13 -4.00993e-13 -2.01809e-13 4.4623e-13 -1.62268e-13 2.74545e-13 -6.01696e-13 8.7646e-13 5.82599e-12 7.73477e-11 1.00162e-09 1.15789e-08 1.19473e-07 1.09029e-06 8.7103e-06 6.01451e-05 0.000353225 0.00172832 0.00686849 0.0215916 0.0529129 0.102731 0.16628 0.23828 0.315868 0.397374 0.48154 0.556434 0.63251 0.69745 0.764558 0.819366 0.860316 0.900418 0.916938 0.923115 0.931258 0.934498 0.934119 0.932721 0.931722 0.931323 0.930831 0.929623 0.926844 0.920675 0.90733 0.87993 0.828782 0.744534 0.624072 0.477761 0.326971 0.195864 0.100102 0.0433396 0.0163561 0.00564758 0.00185018 0.000585085 0.000179719 5.37183e-05 1.56295e-05 4.42608e-06 1.21977e-06 3.27096e-07 8.53492e-08 2.1669e-08 5.35417e-09 1.28737e-09 3.00572e-10 6.89208e-11 1.4729e-11 3.16606e-12 1.57774e-12 -4.75816e-13 5.3037e-14 4.64228e-13 -1.09654e-12 7.54458e-13 -5.70449e-13 3.14236e-13 3.79918e-13 -7.28512e-13 1.20868e-12 -4.74061e-13 5.84536e-13 -7.97979e-13 7.95549e-14 3.59744e-14 -5.93515e-13 2.57392e-13 -6.08316e-13 3.06016e-13 -1.51843e-13 -2.74355e-13 2.62967e-13 -2.65958e-14 -5.21479e-13 4.01584e-14 -2.2582e-13 8.36688e-13 2.97197e-13 -2.82649e-13 2.45913e-13 -7.46403e-13 7.72364e-13 -2.50156e-13 1.47451e-13 2.13855e-13 -1.3063e-12 3.0345e-13 -2.67952e-13 -8.45733e-13 2.98292e-13 -6.81464e-13 6.40596e-13 -3.12115e-13 6.76148e-14 3.91609e-13 -1.37787e-12 7.85498e-13 -3.5109e-13 -8.52021e-13 1.50668e-12 -1.21947e-12 7.25308e-16 -1.49126e-13 -1.42729e-12 1.07315e-12 -2.14374e-12 5.05086e-13 0 0 3.87006e-15 1.18841e-14 -2.15478e-14 2.46761e-14 -2.43902e-14 -3.85316e-14 -6.17319e-15 1.06882e-14 5.71684e-14 -3.8341e-15 1.31564e-14 -1.17159e-13 6.89234e-14 -1.52362e-13 -1.64471e-13 -9.52759e-15 -1.43985e-13 -4.33351e-14 2.73215e-15 -1.18781e-13 -1.28177e-14 -5.57791e-14 -5.45979e-14 -9.15404e-14 -1.07761e-13 -2.36503e-14 -6.36733e-14 -5.21647e-14 6.27828e-14 9.06409e-14 -6.66099e-14 3.83829e-14 3.20125e-15 -1.56919e-13 -4.22219e-14 -1.58092e-13 1.57979e-14 -2.36792e-13 4.54286e-14 -1.89757e-13 -2.17419e-13 7.58588e-15 -4.6488e-14 -1.70013e-13 1.11941e-13 -2.18892e-13 -2.70104e-14 -3.44378e-14 1.78632e-13 6.66056e-14 8.96091e-14 1.37143e-13 -3.9986e-13 3.40926e-13 -1.22239e-13 -3.48991e-13 5.42187e-14 -2.93735e-13 2.4358e-14 -2.74919e-13 -1.17822e-13 -7.28415e-14 -1.30706e-13 6.54513e-14 -7.11364e-15 -9.45184e-14 1.84782e-13 -2.64195e-13 1.20002e-13 1.25952e-13 -2.1944e-13 5.98369e-14 -1.50162e-13 2.79444e-13 5.86855e-13 5.96351e-12 7.80314e-11 1.00079e-09 1.15801e-08 1.19472e-07 1.09029e-06 8.7103e-06 6.01451e-05 0.000353225 0.00172832 0.00686849 0.0215916 0.0529129 0.102731 0.16628 0.23828 0.315868 0.397374 0.48154 0.556434 0.63251 0.69745 0.764558 0.819366 0.860316 0.900418 0.916938 0.923115 0.931258 0.934498 0.934119 0.932721 0.931722 0.931323 0.930831 0.929623 0.926844 0.920675 0.90733 0.87993 0.828782 0.744534 0.624072 0.477761 0.326971 0.195864 0.100102 0.0433396 0.0163561 0.00564758 0.00185018 0.000585085 0.000179719 5.37183e-05 1.56295e-05 4.42608e-06 1.21977e-06 3.27097e-07 8.53483e-08 2.16698e-08 5.35358e-09 1.28705e-09 3.01438e-10 6.83108e-11 1.49643e-11 3.58063e-12 4.05954e-13 2.35699e-13 4.06583e-13 -2.37162e-13 2.52486e-13 -1.12464e-13 2.52548e-13 -6.96158e-14 -4.83919e-13 3.84277e-13 1.45155e-13 7.27141e-13 -7.43462e-13 -4.8119e-13 -4.8419e-13 1.91749e-13 -2.51155e-13 -6.77188e-13 -2.39564e-13 -5.49875e-14 -1.98813e-13 -3.82437e-13 1.01522e-13 2.81034e-13 -2.70856e-13 3.66469e-13 2.30915e-13 -5.23618e-15 3.51543e-13 8.90689e-14 -4.25722e-13 2.74581e-13 -3.47976e-13 2.67798e-13 1.18406e-13 -2.51581e-13 -1.49946e-13 -6.78247e-13 1.22383e-13 -6.93827e-14 -5.30415e-13 -8.06783e-16 -2.48663e-13 -5.12779e-14 -1.89476e-13 -3.016e-13 5.72216e-13 -6.49199e-13 4.42415e-13 1.23232e-13 -7.7157e-13 -7.25123e-14 -6.89287e-13 -1.90826e-13 3.24608e-13 -1.29903e-12 2.06281e-13 1.42189e-13 0 0 -6.16232e-15 -8.43875e-15 -1.152e-14 5.7938e-14 4.56665e-14 9.11251e-15 1.03354e-14 3.1804e-14 -3.52902e-14 -4.05961e-14 -3.16498e-14 -1.05047e-13 -5.09056e-15 -9.35124e-14 -1.24278e-13 -2.51471e-14 -8.76981e-14 1.13692e-14 -8.22102e-14 -7.58019e-14 -5.3066e-14 -9.44421e-14 -4.38994e-14 -2.15826e-13 4.4645e-14 3.00766e-14 -1.37781e-13 1.39144e-14 5.87635e-14 6.55207e-14 4.63744e-14 -1.24793e-13 -5.69332e-14 -2.62466e-13 -5.27405e-14 -1.27038e-14 -8.12459e-14 -1.53009e-13 -4.43506e-14 -1.05576e-14 2.8021e-14 7.71974e-14 -4.50126e-13 -6.28346e-14 -2.24322e-13 -8.84711e-14 6.77008e-15 1.70242e-13 2.48179e-14 4.7742e-14 2.94795e-14 1.41241e-14 -3.52228e-13 2.02682e-13 -1.41002e-13 -3.95915e-13 1.37551e-14 -2.30867e-13 -1.62874e-13 -2.36385e-15 -3.96073e-14 -2.71398e-14 2.47027e-14 1.18484e-13 1.38796e-13 -2.27114e-13 1.32862e-13 -1.88467e-13 8.09406e-14 7.26403e-14 -1.23803e-13 -4.71972e-14 -2.01294e-13 5.00318e-13 6.95559e-13 5.59626e-12 7.85649e-11 1.00143e-09 1.15793e-08 1.19471e-07 1.0903e-06 8.7103e-06 6.01451e-05 0.000353225 0.00172832 0.00686849 0.0215916 0.0529129 0.102731 0.16628 0.23828 0.315868 0.397374 0.48154 0.556434 0.63251 0.69745 0.764558 0.819366 0.860316 0.900418 0.916938 0.923115 0.931258 0.934498 0.934119 0.932721 0.931722 0.931323 0.930831 0.929623 0.926844 0.920675 0.90733 0.87993 0.828782 0.744534 0.624072 0.477761 0.326971 0.195864 0.100102 0.0433396 0.0163561 0.00564758 0.00185018 0.000585085 0.000179719 5.37183e-05 1.56295e-05 4.42608e-06 1.21977e-06 3.27097e-07 8.53481e-08 2.16696e-08 5.35386e-09 1.28725e-09 3.01487e-10 6.85459e-11 1.53647e-11 3.44381e-12 3.78483e-13 4.10283e-13 3.42749e-13 2.96669e-13 7.00799e-13 -2.43942e-13 4.23854e-13 -5.05524e-13 -5.47907e-13 2.8789e-13 -2.42286e-13 -1.58613e-13 -2.28371e-13 2.19653e-14 -3.34125e-13 -6.5083e-13 -6.15133e-13 -4.11133e-13 6.46288e-14 -7.55913e-14 -2.79086e-13 -1.68416e-13 -7.8862e-13 -3.03838e-13 7.38993e-13 5.59185e-13 1.75742e-13 -5.24397e-13 -6.43414e-13 4.70381e-13 4.83876e-13 4.0991e-13 -3.93512e-13 -2.02703e-13 -4.26551e-13 -7.38904e-13 7.45383e-13 -6.13597e-13 3.61904e-13 -3.20471e-13 -2.43763e-13 1.83495e-13 1.91773e-13 1.26705e-13 -1.65818e-13 -5.27897e-13 2.12314e-13 -5.17264e-13 7.43347e-13 8.77325e-14 -1.24127e-12 3.40369e-13 -4.01448e-13 2.33359e-13 2.35632e-13 -7.50183e-13 1.7523e-13 -1.22482e-12 0 0 4.99286e-15 -7.29706e-15 8.58296e-14 -1.43359e-14 5.56984e-14 7.41754e-14 3.90267e-14 -2.10372e-14 -3.59925e-14 1.01208e-14 -1.70476e-13 9.12304e-14 -2.58725e-13 3.27074e-14 -2.9221e-14 -2.1375e-13 5.95246e-14 -9.82988e-14 -2.45085e-14 3.69444e-14 -1.11598e-13 -2.1643e-13 -1.28215e-13 7.08623e-14 1.04285e-13 -9.43219e-14 1.0503e-13 6.49692e-14 1.59182e-14 -1.32866e-13 7.93657e-15 -2.4434e-13 -2.3397e-13 5.32923e-14 -2.46102e-13 6.99952e-14 -2.14928e-13 3.19561e-13 -3.86401e-13 1.53462e-14 3.9851e-14 -3.03643e-13 -7.77049e-14 7.9459e-14 -5.55442e-13 1.69907e-13 -4.10204e-13 2.9028e-13 5.54999e-14 2.90024e-13 -1.70877e-13 -6.60201e-13 9.36638e-13 -4.61426e-13 -3.48817e-13 -1.43183e-13 -8.69432e-13 3.38001e-13 -2.82184e-13 1.52524e-13 -7.45749e-14 1.37588e-13 3.74031e-13 -1.76702e-13 1.08975e-13 1.41098e-13 -3.44595e-13 1.59798e-13 -4.34748e-13 -2.83693e-13 5.73996e-13 6.65824e-14 3.68821e-13 -4.29788e-13 1.11742e-12 6.0042e-12 7.76446e-11 1.00198e-09 1.15788e-08 1.19473e-07 1.09029e-06 8.7103e-06 6.01451e-05 0.000353225 0.00172832 0.00686849 0.0215916 0.0529129 0.102731 0.16628 0.23828 0.315868 0.397374 0.48154 0.556434 0.63251 0.69745 0.764558 0.819366 0.860316 0.900418 0.916938 0.923115 0.931258 0.934498 0.934119 0.932721 0.931722 0.931323 0.930831 0.929623 0.926844 0.920675 0.90733 0.87993 0.828782 0.744534 0.624072 0.477761 0.326971 0.195864 0.100102 0.0433396 0.0163561 0.00564758 0.00185018 0.000585085 0.000179719 5.37183e-05 1.56295e-05 4.42608e-06 1.21977e-06 3.27096e-07 8.5349e-08 2.16689e-08 5.35429e-09 1.28758e-09 3.00649e-10 6.95046e-11 1.5003e-11 3.65434e-12 1.52421e-12 -4.19629e-13 2.34393e-13 5.99434e-13 -3.97541e-13 1.17072e-12 -5.19971e-13 -8.954e-14 -1.82371e-13 -1.03254e-12 5.5256e-13 -6.53602e-13 9.62955e-13 -1.14396e-12 -2.43525e-14 -7.086e-13 -1.20473e-12 9.11335e-14 1.00816e-13 -1.29063e-13 -1.28372e-13 1.88229e-13 -1.99039e-13 1.3936e-13 4.16199e-14 -4.47191e-13 -3.91241e-13 1.94994e-13 -5.3399e-13 -2.21948e-13 7.52127e-13 -7.17149e-13 5.19235e-13 -3.33986e-13 -1.03254e-13 1.81054e-13 -1.03491e-12 3.66228e-13 -4.10461e-13 -1.27637e-12 6.42914e-13 -4.15301e-13 1.42613e-12 -2.11476e-13 1.18437e-13 2.30469e-14 -1.72445e-12 1.10522e-12 -1.89051e-13 -1.09761e-12 1.38025e-12 -1.14958e-12 7.40309e-13 1.55811e-13 -1.64648e-12 1.19791e-12 -2.21002e-12 -3.52803e-13 0 0 2.48792e-14 8.98933e-14 -4.40838e-15 9.15404e-14 2.25914e-14 -2.28669e-14 7.78029e-16 3.93684e-14 4.60054e-14 -5.52033e-14 5.02155e-14 -3.11716e-13 1.45734e-13 -2.40153e-13 -9.23277e-14 1.67609e-13 -3.48051e-13 9.20647e-14 -6.62547e-14 -1.32495e-13 4.67984e-14 -3.24842e-14 -1.07025e-13 -2.65155e-13 5.57945e-14 4.2778e-13 5.58308e-14 5.29204e-14 -1.30542e-13 7.30836e-14 -4.60645e-13 1.18115e-13 -1.57308e-13 -4.12347e-13 7.95218e-14 -2.75012e-13 4.4025e-13 -4.13043e-13 1.76684e-13 -2.53696e-13 -3.07636e-13 1.30262e-14 -7.52394e-14 -1.21456e-13 4.39343e-13 -6.37543e-13 8.50566e-14 -3.65556e-13 2.95372e-13 -1.39378e-13 1.62286e-13 7.68656e-13 -9.64098e-13 7.53052e-14 -2.04119e-13 -7.27812e-13 1.41098e-13 -7.99942e-13 1.26016e-13 -2.85117e-14 1.88594e-13 2.69707e-13 -1.39409e-13 2.0072e-13 1.39904e-13 -7.50406e-15 3.6563e-14 -8.71148e-13 2.78349e-13 6.09856e-14 -4.21095e-13 7.3549e-13 -9.26485e-14 9.44226e-13 1.4993e-13 5.73582e-12 7.81586e-11 1.0006e-09 1.15816e-08 1.19472e-07 1.0903e-06 8.7103e-06 6.01451e-05 0.000353225 0.00172832 0.00686849 0.0215916 0.0529129 0.102731 0.16628 0.23828 0.315868 0.397374 0.48154 0.556434 0.63251 0.69745 0.764558 0.819366 0.860316 0.900418 0.916938 0.923115 0.931258 0.934498 0.934119 0.932721 0.931722 0.931323 0.930831 0.929623 0.926844 0.920675 0.90733 0.87993 0.828782 0.744534 0.624072 0.477761 0.326971 0.195864 0.100102 0.0433396 0.0163561 0.00564758 0.00185018 0.000585085 0.000179719 5.37183e-05 1.56295e-05 4.42608e-06 1.21977e-06 3.27097e-07 8.53482e-08 2.16702e-08 5.35317e-09 1.28703e-09 3.02061e-10 6.85092e-11 1.52257e-11 4.73681e-12 -3.63183e-13 9.34965e-13 6.36988e-13 -1.49842e-12 1.38247e-12 -7.45339e-13 8.73118e-13 -3.36791e-13 -1.14957e-12 1.16201e-12 -1.78283e-12 2.22984e-12 -8.70235e-13 -7.20001e-13 -9.8061e-13 -7.03872e-13 -2.22282e-13 -1.10697e-12 1.75847e-12 -1.23307e-12 2.8701e-14 3.03585e-13 2.36761e-13 1.1134e-12 -4.75541e-13 -7.30167e-13 2.16182e-13 -1.00975e-12 5.96949e-14 -4.39032e-13 -9.80044e-13 8.33979e-13 -1.11898e-12 1.5246e-12 -1.60862e-13 4.73117e-14 1.52439e-13 -1.11106e-12 -1.28115e-12 -1.39689e-13 -1.20721e-12 1.37954e-12 3.60706e-13 5.80284e-14 -1.8548e-13 -1.09517e-12 1.34393e-12 -1.0832e-12 -1.88007e-13 5.11903e-13 -1.68306e-12 7.10006e-13 2.18272e-13 -5.0465e-13 1.70375e-13 -3.22257e-12 1.09838e-12 -4.80841e-13 0
				</DataArray>
				<DataArray Name="VitesseY" type="Float32" format="ascii">