<?xml version="1.0"?>
<VTKFile type="PolyData">
	<PolyData>
		<Piece NumberOfPoints="1206" NumberOfPolys="1000">
			<Points>
				<DataArray type="Float32" NumberOfComponents="3" format="ascii">
 0 0 0 0.02 0 0 0.04 0 0 0.06 0 0 0.08 0 0 0.1 0 0 0 0.005 0 0.02 0.005 0 0.04 0.005 0 0.06 0.005 0 0.08 0.005 0 0.1 0.005 0 0 0.01 0 0.02 0.01 0 0.04 0.01 0 0.06 0.01 0 0.08 0.01 0 0.1 0.01 0 0 0.015 0 0.02 0.015 0 0.04 0.015 0 0.06 0.015 0 0.08 0.015 0 0.1 0.015 0 0 0.02 0 0.02 0.02 0 0.04 0.02 0 0.06 0.02 0 0.08 0.02 0 0.1 0.02 0 0 0.025 0 0.02 0.025 0 0.04 0.025 0 0.06 0.025 0 0.08 0.025 0 0.1 0.025 0 0 0.03 0 0.02 0.03 0 0.04 0.03 0 0.06 0.03 0 0.08 0.03 0 0.1 0.03 0 0 0.035 0 0.02 0.035 0 0.04 0.035 0 0.06 0.035 0 0.08 0.035 0 0.1 0.035 0 0 0.04 0 0.02 0.04 0 0.04 0.04 0 0.06 0.04 0 0.08 0.04 0 0.1 0.04 0 0 0.045 0 0.02 0.045 0 0.04 0.045 0 0.06 0.045 0 0.08 0.045 0 0.1 0.045 0 0 0.05 0 0.02 0.05 0 0.04 0.05 0 0.06 0.05 0 0.08 0.05 0 0.1 0.05 0 0 0.055 0 0.02 0.055 0 0.04 0.055 0 0.06 0.055 0 0.08 0.055 0 0.1 0.055 0 0 0.06 0 0.02 0.06 0 0.04 0.06 0 0.06 0.06 0 0.08 0.06 0 0.1 0.06 0 0 0.065 0 0.02 0.065 0 0.04 0.065 0 0.06 0.065 0 0.08 0.065 0 0.1 0.065 0 0 0.07 0 0.02 0.07 0 0.04 0.07 0 0.06 0.07 0 0.08 0.07 0 0.1 0.07 0 0 0.075 0 0.02 0.075 0 0.04 0.075 0 0.06 0.075 0 0.08 0.075 0 0.1 0.075 0 0 0.08 0 0.02 0.08 0 0.04 0.08 0 0.06 0.08 0 0.08 0.08 0 0.1 0.08 0 0 0.085 0 0.02 0.085 0 0.04 0.085 0 0.06 0.085 0 0.08 0.085 0 0.1 0.085 0 0 0.09 0 0.02 0.09 0 0.04 0.09 0 0.06 0.09 0 0.08 0.09 0 0.1 0.09 0 0 0.095 0 0.02 0.095 0 0.04 0.095 0 0.06 0.095 0 0.08 0.095 0 0.1 0.095 0 0 0.1 0 0.02 0.1 0 0.04 0.1 0 0.06 0.1 0 0.08 0.1 0 0.1 0.1 0 0 0.105 0 0.02 0.105 0 0.04 0.105 0 0.06 0.105 0 0.08 0.105 0 0.1 0.105 0 0 0.11 0 0.02 0.11 0 0.04 0.11 0 0.06 0.11 0 0.08 0.11 0 0.1 0.11 0 0 0.115 0 0.02 0.115 0 0.04 0.115 0 0.06 0.115 0 0.08 0.115 0 0.1 0.115 0 0 0.12 0 0.02 0.12 0 0.04 0.12 0 0.06 0.12 0 0.08 0.12 0 0.1 0.12 0 0 0.125 0 0.02 0.125 0 0.04 0.125 0 0.06 0.125 0 0.08 0.125 0 0.1 0.125 0 0 0.13 0 0.02 0.13 0 0.04 0.13 0 0.06 0.13 0 0.08 0.13 0 0.1 0.13 0 0 0.135 0 0.02 0.135 0 0.04 0.135 0 0.06 0.135 0 0.08 0.135 0 0.1 0.135 0 0 0.14 0 0.02 0.14 0 0.04 0.14 0 0.06 0.14 0 0.08 0.14 0 0.1 0.14 0 0 0.145 0 0.02 0.145 0 0.04 0.145 0 0.06 0.145 0 0.08 0.145 0 0.1 0.145 0 0 0.15 0 0.02 0.15 0 0.04 0.15 0 0.06 0.15 0 0.08 0.15 0 0.1 0.15 0 0 0.155 0 0.02 0.155 0 0.04 0.155 0 0.06 0.155 0 0.08 0.155 0 0.1 0.155 0 0 0.16 0 0.02 0.16 0 0.04 0.16 0 0.06 0.16 0 0.08 0.16 0 0.1 0.16 0 0 0.165 0 0.02 0.165 0 0.04 0.165 0 0.06 0.165 0 0.08 0.165 0 0.1 0.165 0 0 0.17 0 0.02 0.17 0 0.04 0.17 0 0.06 0.17 0 0.08 0.17 0 0.1 0.17 0 0 0.175 0 0.02 0.175 0 0.04 0.175 0 0.06 0.175 0 0.08 0.175 0 0.1 0.175 0 0 0.18 0 0.02 0.18 0 0.04 0.18 0 0.06 0.18 0 0.08 0.18 0 0.1 0.18 0 0 0.185 0 0.02 0.185 0 0.04 0.185 0 0.06 0.185 0 0.08 0.185 0 0.1 0.185 0 0 0.19 0 0.02 0.19 0 0.04 0.19 0 0.06 0.19 0 0.08 0.19 0 0.1 0.19 0 0 0.195 0 0.02 0.195 0 0.04 0.195 0 0.06 0.195 0 0.08 0.195 0 0.1 0.195 0 0 0.2 0 0.02 0.2 0 0.04 0.2 0 0.06 0.2 0 0.08 0.2 0 0.1 0.2 0 0 0.205 0 0.02 0.205 0 0.04 0.205 0 0.06 0.205 0 0.08 0.205 0 0.1 0.205 0 0 0.21 0 0.02 0.21 0 0.04 0.21 0 0.06 0.21 0 0.08 0.21 0 0.1 0.21 0 0 0.215 0 0.02 0.215 0 0.04 0.215 0 0.06 0.215 0 0.08 0.215 0 0.1 0.215 0 0 0.22 0 0.02 0.22 0 0.04 0.22 0 0.06 0.22 0 0.08 0.22 0 0.1 0.22 0 0 0.225 0 0.02 0.225 0 0.04 0.225 0 0.06 0.225 0 0.08 0.225 0 0.1 0.225 0 0 0.23 0 0.02 0.23 0 0.04 0.23 0 0.06 0.23 0 0.08 0.23 0 0.1 0.23 0 0 0.235 0 0.02 0.235 0 0.04 0.235 0 0.06 0.235 0 0.08 0.235 0 0.1 0.235 0 0 0.24 0 0.02 0.24 0 0.04 0.24 0 0.06 0.24 0 0.08 0.24 0 0.1 0.24 0 0 0.245 0 0.02 0.245 0 0.04 0.245 0 0.06 0.245 0 0.08 0.245 0 0.1 0.245 0 0 0.25 0 0.02 0.25 0 0.04 0.25 0 0.06 0.25 0 0.08 0.25 0 0.1 0.25 0 0 0.255 0 0.02 0.255 0 0.04 0.255 0 0.06 0.255 0 0.08 0.255 0 0.1 0.255 0 0 0.26 0 0.02 0.26 0 0.04 0.26 0 0.06 0.26 0 0.08 0.26 0 0.1 0.26 0 0 0.265 0 0.02 0.265 0 0.04 0.265 0 0.06 0.265 0 0.08 0.265 0 0.1 0.265 0 0 0.27 0 0.02 0.27 0 0.04 0.27 0 0.06 0.27 0 0.08 0.27 0 0.1 0.27 0 0 0.275 0 0.02 0.275 0 0.04 0.275 0 0.06 0.275 0 0.08 0.275 0 0.1 0.275 0 0 0.28 0 0.02 0.28 0 0.04 0.28 0 0.06 0.28 0 0.08 0.28 0 0.1 0.28 0 0 0.285 0 0.02 0.285 0 0.04 0.285 0 0.06 0.285 0 0.08 0.285 0 0.1 0.285 0 0 0.29 0 0.02 0.29 0 0.04 0.29 0 0.06 0.29 0 0.08 0.29 0 0.1 0.29 0 0 0.295 0 0.02 0.295 0 0.04 0.295 0 0.06 0.295 0 0.08 0.295 0 0.1 0.295 0 0 0.3 0 0.02 0.3 0 0.04 0.3 0 0.06 0.3 0 0.08 0.3 0 0.1 0.3 0 0 0.305 0 0.02 0.305 0 0.04 0.305 0 0.06 0.305 0 0.08 0.305 0 0.1 0.305 0 0 0.31 0 0.02 0.31 0 0.04 0.31 0 0.06 0.31 0 0.08 0.31 0 0.1 0.31 0 0 0.315 0 0.02 0.315 0 0.04 0.315 0 0.06 0.315 0 0.08 0.315 0 0.1 0.315 0 0 0.32 0 0.02 0.32 0 0.04 0.32 0 0.06 0.32 0 0.08 0.32 0 0.1 0.32 0 0 0.325 0 0.02 0.325 0 0.04 0.325 0 0.06 0.325 0 0.08 0.325 0 0.1 0.325 0 0 0.33 0 0.02 0.33 0 0.04 0.33 0 0.06 0.33 0 0.08 0.33 0 0.1 0.33 0 0 0.335 0 0.02 0.335 0 0.04 0.335 0 0.06 0.335 0 0.08 0.335 0 0.1 0.335 0 0 0.34 0 0.02 0.34 0 0.04 0.34 0 0.06 0.34 0 0.08 0.34 0 0.1 0.34 0 0 0.345 0 0.02 0.345 0 0.04 0.345 0 0.06 0.345 0 0.08 0.345 0 0.1 0.345 0 0 0.35 0 0.02 0.35 0 0.04 0.35 0 0.06 0.35 0 0.08 0.35 0 0.1 0.35 0 0 0.355 0 0.02 0.355 0 0.04 0.355 0 0.06 0.355 0 0.08 0.355 0 0.1 0.355 0 0 0.36 0 0.02 0.36 0 0.04 0.36 0 0.06 0.36 0 0.08 0.36 0 0.1 0.36 0 0 0.365 0 0.02 0.365 0 0.04 0.365 0 0.06 0.365 0 0.08 0.365 0 0.1 0.365 0 0 0.37 0 0.02 0.37 0 0.04 0.37 0 0.06 0.37 0 0.08 0.37 0 0.1 0.37 0 0 0.375 0 0.02 0.375 0 0.04 0.375 0 0.06 0.375 0 0.08 0.375 0 0.1 0.375 0 0 0.38 0 0.02 0.38 0 0.04 0.38 0 0.06 0.38 0 0.08 0.38 0 0.1 0.38 0 0 0.385 0 0.02 0.385 0 0.04 0.385 0 0.06 0.385 0 0.08 0.385 0 0.1 0.385 0 0 0.39 0 0.02 0.39 0 0.04 0.39 0 0.06 0.39 0 0.08 0.39 0 0.1 0.39 0 0 0.395 0 0.02 0.395 0 0.04 0.395 0 0.06 0.395 0 0.08 0.395 0 0.1 0.395 0 0 0.4 0 0.02 0.4 0 0.04 0.4 0 0.06 0.4 0 0.08 0.4 0 0.1 0.4 0 0 0.405 0 0.02 0.405 0 0.04 0.405 0 0.06 0.405 0 0.08 0.405 0 0.1 0.405 0 0 0.41 0 0.02 0.41 0 0.04 0.41 0 0.06 0.41 0 0.08 0.41 0 0.1 0.41 0 0 0.415 0 0.02 0.415 0 0.04 0.415 0 0.06 0.415 0 0.08 0.415 0 0.1 0.415 0 0 0.42 0 0.02 0.42 0 0.04 0.42 0 0.06 0.42 0 0.08 0.42 0 0.1 0.42 0 0 0.425 0 0.02 0.425 0 0.04 0.425 0 0.06 0.425 0 0.08 0.425 0 0.1 0.425 0 0 0.43 0 0.02 0.43 0 0.04 0.43 0 0.06 0.43 0 0.08 0.43 0 0.1 0.43 0 0 0.435 0 0.02 0.435 0 0.04 0.435 0 0.06 0.435 0 0.08 0.435 0 0.1 0.435 0 0 0.44 0 0.02 0.44 0 0.04 0.44 0 0.06 0.44 0 0.08 0.44 0 0.1 0.44 0 0 0.445 0 0.02 0.445 0 0.04 0.445 0 0.06 0.445 0 0.08 0.445 0 0.1 0.445 0 0 0.45 0 0.02 0.45 0 0.04 0.45 0 0.06 0.45 0 0.08 0.45 0 0.1 0.45 0 0 0.455 0 0.02 0.455 0 0.04 0.455 0 0.06 0.455 0 0.08 0.455 0 0.1 0.455 0 0 0.46 0 0.02 0.46 0 0.04 0.46 0 0.06 0.46 0 0.08 0.46 0 0.1 0.46 0 0 0.465 0 0.02 0.465 0 0.04 0.465 0 0.06 0.465 0 0.08 0.465 0 0.1 0.465 0 0 0.47 0 0.02 0.47 0 0.04 0.47 0 0.06 0.47 0 0.08 0.47 0 0.1 0.47 0 0 0.475 0 0.02 0.475 0 0.04 0.475 0 0.06 0.475 0 0.08 0.475 0 0.1 0.475 0 0 0.48 0 0.02 0.48 0 0.04 0.48 0 0.06 0.48 0 0.08 0.48 0 0.1 0.48 0 0 0.485 0 0.02 0.485 0 0.04 0.485 0 0.06 0.485 0 0.08 0.485 0 0.1 0.485 0 0 0.49 0 0.02 0.49 0 0.04 0.49 0 0.06 0.49 0 0.08 0.49 0 0.1 0.49 0 0 0.495 0 0.02 0.495 0 0.04 0.495 0 0.06 0.495 0 0.08 0.495 0 0.1 0.495 0 0 0.5 0 0.02 0.5 0 0.04 0.5 0 0.06 0.5 0 0.08 0.5 0 0.1 0.5 0 0 0.505 0 0.02 0.505 0 0.04 0.505 0 0.06 0.505 0 0.08 0.505 0 0.1 0.505 0 0 0.51 0 0.02 0.51 0 0.04 0.51 0 0.06 0.51 0 0.08 0.51 0 0.1 0.51 0 0 0.515 0 0.02 0.515 0 0.04 0.515 0 0.06 0.515 0 0.08 0.515 0 0.1 0.515 0 0 0.52 0 0.02 0.52 0 0.04 0.52 0 0.06 0.52 0 0.08 0.52 0 0.1 0.52 0 0 0.525 0 0.02 0.525 0 0.04 0.525 0 0.06 0.525 0 0.08 0.525 0 0.1 0.525 0 0 0.53 0 0.02 0.53 0 0.04 0.53 0 0.06 0.53 0 0.08 0.53 0 0.1 0.53 0 0 0.535 0 0.02 0.535 0 0.04 0.535 0 0.06 0.535 0 0.08 0.535 0 0.1 0.535 0 0 0.54 0 0.02 0.54 0 0.04 0.54 0 0.06 0.54 0 0.08 0.54 0 0.1 0.54 0 0 0.545 0 0.02 0.545 0 0.04 0.545 0 0.06 0.545 0 0.08 0.545 0 0.1 0.545 0 0 0.55 0 0.02 0.55 0 0.04 0.55 0 0.06 0.55 0 0.08 0.55 0 0.1 0.55 0 0 0.555 0 0.02 0.555 0 0.04 0.555 0 0.06 0.555 0 0.08 0.555 0 0.1 0.555 0 0 0.56 0 0.02 0.56 0 0.04 0.56 0 0.06 0.56 0 0.08 0.56 0 0.1 0.56 0 0 0.565 0 0.02 0.565 0 0.04 0.565 0 0.06 0.565 0 0.08 0.565 0 0.1 0.565 0 0 0.57 0 0.02 0.57 0 0.04 0.57 0 0.06 0.57 0 0.08 0.57 0 0.1 0.57 0 0 0.575 0 0.02 0.575 0 0.04 0.575 0 0.06 0.575 0 0.08 0.575 0 0.1 0.575 0 0 0.58 0 0.02 0.58 0 0.04 0.58 0 0.06 0.58 0 0.08 0.58 0 0.1 0.58 0 0 0.585 0 0.02 0.585 0 0.04 0.585 0 0.06 0.585 0 0.08 0.585 0 0.1 0.585 0 0 0.59 0 0.02 0.59 0 0.04 0.59 0 0.06 0.59 0 0.08 0.59 0 0.1 0.59 0 0 0.595 0 0.02 0.595 0 0.04 0.595 0 0.06 0.595 0 0.08 0.595 0 0.1 0.595 0 0 0.6 0 0.02 0.6 0 0.04 0.6 0 0.06 0.6 0 0.08 0.6 0 0.1 0.6 0 0 0.605 0 0.02 0.605 0 0.04 0.605 0 0.06 0.605 0 0.08 0.605 0 0.1 0.605 0 0 0.61 0 0.02 0.61 0 0.04 0.61 0 0.06 0.61 0 0.08 0.61 0 0.1 0.61 0 0 0.615 0 0.02 0.615 0 0.04 0.615 0 0.06 0.615 0 0.08 0.615 0 0.1 0.615 0 0 0.62 0 0.02 0.62 0 0.04 0.62 0 0.06 0.62 0 0.08 0.62 0 0.1 0.62 0 0 0.625 0 0.02 0.625 0 0.04 0.625 0 0.06 0.625 0 0.08 0.625 0 0.1 0.625 0 0 0.63 0 0.02 0.63 0 0.04 0.63 0 0.06 0.63 0 0.08 0.63 0 0.1 0.63 0 0 0.635 0 0.02 0.635 0 0.04 0.635 0 0.06 0.635 0 0.08 0.635 0 0.1 0.635 0 0 0.64 0 0.02 0.64 0 0.04 0.64 0 0.06 0.64 0 0.08 0.64 0 0.1 0.64 0 0 0.645 0 0.02 0.645 0 0.04 0.645 0 0.06 0.645 0 0.08 0.645 0 0.1 0.645 0 0 0.65 0 0.02 0.65 0 0.04 0.65 0 0.06 0.65 0 0.08 0.65 0 0.1 0.65 0 0 0.655 0 0.02 0.655 0 0.04 0.655 0 0.06 0.655 0 0.08 0.655 0 0.1 0.655 0 0 0.66 0 0.02 0.66 0 0.04 0.66 0 0.06 0.66 0 0.08 0.66 0 0.1 0.66 0 0 0.665 0 0.02 0.665 0 0.04 0.665 0 0.06 0.665 0 0.08 0.665 0 0.1 0.665 0 0 0.67 0 0.02 0.67 0 0.04 0.67 0 0.06 0.67 0 0.08 0.67 0 0.1 0.67 0 0 0.675 0 0.02 0.675 0 0.04 0.675 0 0.06 0.675 0 0.08 0.675 0 0.1 0.675 0 0 0.68 0 0.02 0.68 0 0.04 0.68 0 0.06 0.68 0 0.08 0.68 0 0.1 0.68 0 0 0.685 0 0.02 0.685 0 0.04 0.685 0 0.06 0.685 0 0.08 0.685 0 0.1 0.685 0 0 0.69 0 0.02 0.69 0 0.04 0.69 0 0.06 0.69 0 0.08 0.69 0 0.1 
[...]
			<PointData Scalars="VitesseX">
				<DataArray Name="VitesseX" type="Float32" format="ascii">
 0 -2.23714e-14 -1.05296e-14 -1.99544e-14 2.99227e-14 0 0 -2.32468e-14 -1.11282e-14 -1.41377e-14 2.37446e-14 0 0 -1.51062e-14 -2.75021e-14 6.64429e-15 8.87593e-15 0 0 -2.58581e-14 -1.24686e-14 -1.28833e-14 2.37121e-14 0 0 -5.13034e-14 1.9168e-14 -4.63901e-14 4.70546e-14 0 0 -3.37736e-14 -2.3527e-14 -1.92669e-15 8.91981e-15 0 0 -9.51233e-15 -6.21478e-14 2.23245e-14 -1.235e-14 0 0 -2.33367e-14 -3.95066e-14 -2.09449e-14 2.21281e-14 0 0 -2.76381e-14 -5.07142e-14 -2.14839e-14 2.79533e-14 0 0 -6.6434e-14 -5.94609e-15 -7.35059e-14 7.68354e-14 0 0 -1.36075e-13 7.16073e-14 -1.17602e-13 1.13146e-13 0 0 -9.90782e-14 -3.26374e-14 4.47876e-14 1.46174e-15 0 0 -1.06901e-13 -1.19599e-14 5.29587e-14 -2.11681e-14 0 0 -8.5154e-14 -1.35379e-14 3.72098e-14 4.06506e-15 0 0 -3.76209e-14 -7.22563e-14 7.19193e-14 -6.33233e-15 0 0 -8.35414e-14 7.06783e-15 -3.88336e-14 6.836e-14 0 0 -4.64923e-14 -4.76892e-14 -2.53182e-14 8.8831e-14 0 0 -6.93455e-14 -1.64816e-15 -8.72058e-14 1.22371e-13 0 0 -1.12861e-13 7.5317e-14 -1.56281e-13 1.21877e-13 0 0 -8.22803e-14 1.58104e-14 -9.02433e-14 6.69455e-14 0 0 -5.8818e-14 -5.04889e-14 -2.63152e-14 3.19162e-14 0 0 -5.22285e-14 -8.02582e-14 -2.81182e-15 -6.59858e-15 0 0 -1.30106e-13 3.86617e-14 -1.0665e-13 2.29285e-14 0 0 -1.487e-13 8.38787e-14 -1.08659e-13 -5.49766e-14 0 0 -5.38588e-14 -3.37535e-14 -1.05917e-14 -1.52715e-13 0 0 -3.69833e-14 -5.67888e-14 -5.83349e-14 -1.10622e-13 0 0 -1.00698e-13 -4.91809e-15 -8.88843e-14 -1.85463e-13 0 0 -1.50593e-13 1.73637e-14 -9.57637e-14 -2.53359e-13 0 0 -1.2681e-13 -5.7797e-14 -6.1267e-14 -2.57616e-13 0 0 -1.25329e-13 -6.21643e-14 -5.75564e-14 -2.39146e-13 0 0 -4.19828e-14 -1.58579e-13 2.86307e-14 -2.23211e-13 0 0 -9.83017e-15 -1.64238e-13 -1.01656e-14 -9.53994e-14 0 0 -9.59985e-14 -3.18765e-14 -1.37189e-13 7.84236e-14 0 0 -6.82966e-14 -1.16858e-13 5.22303e-14 -2.63759e-15 0 0 -5.87095e-14 -1.61663e-13 1.71492e-13 -6.53297e-14 0 0 -6.37512e-14 -1.93856e-13 2.49396e-13 -9.56543e-14 0 0 -3.51236e-13 1.93325e-13 -4.76734e-14 1.18476e-13 0 0 -1.75818e-13 -4.38374e-14 1.55505e-13 2.23292e-14 0 0 -3.51552e-14 -2.01031e-13 3.07587e-13 -1.60138e-13 0 0 -2.19385e-13 8.31123e-14 7.85856e-14 -1.36545e-13 0 0 -1.04503e-13 -9.69196e-14 1.20106e-13 -1.14262e-13 0 0 -1.36229e-13 -9.98482e-14 7.34925e-17 -1.32773e-14 0 0 -1.21166e-13 -1.42906e-13 1.32017e-14 -7.69584e-14 0 0 -1.36187e-13 -1.22216e-13 3.07543e-14 -1.63918e-13 0 0 -2.10976e-13 -6.71494e-14 8.95627e-14 -3.21782e-13 0 0 -2.43717e-13 -1.34288e-13 2.19317e-13 -3.94184e-13 0 0 -3.81981e-13 3.15686e-14 3.84326e-14 -2.15851e-13 0 0 -2.47065e-13 -1.30114e-13 2.20701e-13 -3.39615e-13 0 0 -7.49286e-14 -2.21011e-13 2.67124e-13 -3.44225e-13 0 0 -2.66952e-13 2.18271e-13 -1.31831e-13 -1.77654e-13 0 0 -4.86334e-13 5.67085e-13 -3.37902e-13 -1.88463e-13 0 0 -4.88118e-13 6.24246e-13 -4.72088e-13 -8.61268e-14 0 0 1.28964e-14 -1.05848e-13 2.17823e-13 -5.56691e-13 0 0 -8.46606e-14 1.30288e-14 1.26179e-13 -5.45696e-13 0 0 -5.71673e-13 6.41388e-13 -4.11678e-13 -2.34814e-13 0 0 -5.55919e-13 4.5988e-13 -9.08564e-14 -4.60263e-13 0 0 -4.56578e-13 2.02077e-13 1.43133e-14 -3.63649e-13 0 0 -2.17382e-13 -1.1191e-13 1.23895e-13 -3.24921e-13 0 0 -3.18962e-13 2.11863e-14 8.8018e-14 -3.96745e-13 0 0 -5.01708e-13 2.24536e-13 -6.24529e-14 -3.56864e-13 0 0 -3.80641e-13 1.8108e-13 -1.71455e-13 -3.18882e-13 0 0 -1.51364e-13 3.65671e-15 -2.14965e-13 -2.64738e-13 0 0 -1.3048e-13 -2.32263e-14 -2.39298e-13 -1.655e-13 0 0 -3.26955e-13 3.07121e-13 -6.05499e-13 1.42956e-13 0 0 -1.75778e-13 1.50913e-13 -5.70562e-13 1.60805e-13 0 0 3.93762e-14 -1.38539e-13 -2.02842e-13 -9.05212e-14 0 0 -4.13601e-14 -8.91515e-14 -1.16918e-13 -8.36344e-14 0 0 -2.01058e-13 -2.14194e-14 1.50285e-14 -1.24377e-13 0 0 -5.56413e-13 4.09893e-13 -1.35797e-13 -9.27108e-14 0 0 -5.87996e-13 4.15224e-13 -1.08477e-13 -6.74205e-14 0 0 -1.1519e-13 -2.76055e-13 5.22904e-13 -4.34555e-13 0 0 -2.9073e-13 5.41968e-14 2.32582e-13 -3.59792e-13 0 0 -5.53419e-13 4.90995e-13 -1.84135e-13 -1.62494e-13 0 0 -5.38342e-13 5.17848e-13 -1.20449e-13 -2.92602e-13 0 0 -3.63799e-13 4.43454e-13 -1.01345e-13 -3.89622e-13 0 0 -4.71972e-14 5.45914e-14 1.93178e-13 -5.27162e-13 0 0 -2.13278e-13 2.51476e-13 -5.4102e-14 -2.44897e-13 0 0 -4.70639e-13 5.73657e-13 -3.71561e-13 9.34936e-15 0 0 -2.47203e-13 2.64286e-13 -1.69395e-13 -2.00377e-14 0 0 -1.19822e-13 7.67072e-14 3.88129e-15 -1.1181e-13 0 0 -2.7196e-13 1.82651e-13 1.19781e-13 -2.65772e-13 0 0 -1.88355e-13 -2.45482e-14 3.43312e-13 -3.89122e-13 0 0 -9.27039e-14 -3.42975e-13 6.36928e-13 -5.11485e-13 0 0 -2.25253e-13 -1.80827e-13 3.42703e-13 -7.36485e-14 0 0 -4.13529e-13 3.05173e-13 -3.90252e-13 5.99018e-13 0 0 -2.18706e-13 7.22504e-14 -2.19083e-13 4.8123e-13 0 0 5.8381e-13 -6.76269e-13 4.04211e-13 2.12437e-13 0 0 6.62807e-13 3.92967e-13 8.69105e-13 6.69881e-13 0 0 1.67825e-12 4.86889e-12 3.84703e-12 2.54475e-12 0 0 1.04144e-11 1.72515e-11 1.54188e-11 9.49391e-12 0 0 3.48039e-11 5.12003e-11 4.57413e-11 2.59856e-11 0 0 8.47104e-11 1.21289e-10 1.02745e-10 5.32018e-11 0 0 1.63632e-10 2.30258e-10 1.80158e-10 8.13207e-11 0 0 2.59243e-10 3.60341e-10 2.51956e-10 8.44783e-11 0 0 3.31457e-10 4.75159e-10 2.9079e-10 3.99263e-11 0 0 3.45637e-10 5.48856e-10 2.75995e-10 -6.76127e-11 0 0 2.12079e-10 5.54612e-10 3.00069e-10 -2.81441e-10 0 0 -1.42137e-10 7.08788e-10 3.95103e-10 -6.60375e-10 0 0 -1.34198e-09 8.77995e-10 6.40837e-10 -1.24329e-09 0 0 -2.18032e-09 3.31639e-10 1.91994e-09 -2.94644e-09 0 0 -1.17774e-09 -4.88089e-09 1.00408e-08 -9.72304e-09 0 0 3.03804e-09 -9.86128e-09 1.16307e-08 -9.69552e-09 0 0 3.27668e-09 -6.51922e-09 2.37971e-09 2.92133e-10 0 0 2.99392e-10 6.40109e-09 -1.92676e-08 1.74822e-08 0 0 -2.9118e-09 1.04033e-08 -2.16616e-08 1.84618e-08 0 0 -2.26903e-09 7.89168e-09 -1.73265e-08 1.44593e-08 0 0 1.12596e-09 -8.96133e-10 -4.82681e-09 5.04976e-09 0 0 3.74334e-09 -7.93641e-09 6.60661e-09 -4.1186e-09 0 0 3.0002e-09 -7.24618e-09 6.90169e-09 -5.17202e-09 0 0 8.70506e-12 -2.94654e-09 4.54583e-09 -4.09583e-09 0 0 -1.74857e-09 3.42086e-10 2.8347e-09 -3.86252e-09 0 0 -1.78065e-09 6.84967e-10 1.9448e-09 -3.3721e-09 0 0 -1.32732e-09 8.04502e-10 5.63291e-10 -1.65201e-09 0 0 -5.04919e-10 5.51551e-10 -1.51167e-11 -4.84438e-10 0 0 -1.23252e-10 1.56224e-10 -1.19954e-11 -2.58295e-10 0 0 -2.89121e-11 3.61627e-11 -2.1449e-11 -1.27879e-10 0 0 7.09536e-13 9.49311e-12 -2.12227e-11 -4.90221e-11 0 0 5.06546e-12 2.75131e-12 -1.12738e-11 -1.55437e-11 0 0 2.93952e-12 1.5224e-12 -2.95466e-12 -4.03671e-12 0 0 1.07287e-12 9.3509e-13 -5.80772e-14 -7.71054e-13 0 0 3.32509e-13 3.22465e-13 3.96728e-13 -1.97647e-13 0 0 -1.55952e-13 2.65527e-13 3.64109e-14 -9.21898e-14 0 0 -4.98045e-13 5.15519e-13 -4.48934e-13 5.30483e-14 0 0 -1.63207e-13 -4.59113e-14 -7.46405e-14 -2.06813e-13 0 0 1.12369e-13 -4.67786e-13 2.63224e-13 -4.4291e-13 0 0 2.02592e-14 -3.737e-13 1.61583e-13 -4.02652e-13 0 0 -2.25359e-13 -4.33471e-14 -1.54322e-13 -2.19403e-13 0 0 -5.33229e-13 4.11553e-13 -5.64869e-13 -1.0513e-14 0 0 -3.5367e-13 6.31193e-14 -2.13647e-13 -2.14886e-13 0 0 -9.12301e-14 -2.9373e-13 2.13316e-14 -3.1651e-13 0 0 -7.34851e-14 -2.77368e-13 -8.95597e-14 -2.17603e-13 0 0 -3.33419e-13 4.18772e-14 -3.44265e-13 -6.25913e-14 0 0 -6.51873e-13 4.40581e-13 -6.46495e-13 6.07367e-14 0 0 -4.01102e-13 3.27025e-14 -2.7379e-13 -2.24817e-13 0 0 -6.85278e-14 -4.18946e-13 -1.72027e-14 -3.00378e-13 0 0 -1.00925e-13 -4.94002e-13 -7.01114e-16 -2.13095e-13 0 0 -4.608e-13 -1.70059e-13 -1.87259e-13 -1.36681e-13 0 0 -7.00157e-13 1.85807e-13 -6.05935e-13 1.34438e-13 0 0 -3.68989e-13 -3.15265e-13 -1.10108e-13 -1.76536e-13 0 0 -4.70509e-13 -3.18412e-13 1.15218e-13 -3.98727e-13 0 0 -6.01145e-13 -1.86029e-13 5.59504e-14 -3.46289e-13 0 0 -2.73636e-13 -5.52637e-13 3.23669e-13 -4.01024e-13 0 0 -7.3373e-13 1.98388e-13 -3.86124e-13 2.08274e-13 0 0 -8.09283e-13 3.09927e-13 -4.10944e-13 3.55622e-13 0 0 -3.26375e-14 -7.15652e-13 5.95743e-13 -2.53282e-13 0 0 1.22735e-13 -7.14883e-13 5.6466e-13 -2.73263e-13 0 0 -2.4914e-13 -5.87821e-14 6.87526e-14 -1.76308e-13 0 0 -7.18774e-13 6.59226e-13 -4.45421e-13 3.91788e-14 0 0 -6.22418e-13 4.29958e-13 -2.74505e-13 1.8365e-13 0 0 8.3718e-14 -8.19658e-13 1.06025e-12 -5.35422e-13 0 0 -1.73108e-13 -5.61558e-13 1.01803e-12 -5.69053e-13 0 0 -5.41744e-13 5.64302e-14 2.05982e-13 3.12847e-14 0 0 -6.80568e-13 4.42101e-13 -5.50527e-13 6.06458e-13 0 0 -5.74957e-13 1.85159e-13 -4.74886e-13 5.15875e-13 0 0 -1.65146e-13 -5.70777e-13 1.57568e-13 1.12815e-14 0 0 -4.63248e-14 -6.89263e-13 2.90197e-13 -2.28665e-13 0 0 -3.72456e-13 -2.7346e-13 6.71477e-14 -2.86556e-13 0 0 -1.04341e-12 3.78136e-13 -3.48465e-13 -2.07711e-13 0 0 -7.70693e-13 -1.78327e-13 1.78499e-13 -7.03597e-13 0 0 8.06041e-14 -1.20265e-12 7.43254e-13 -1.12394e-12 0 0 2.89733e-13 -1.29227e-12 4.74966e-13 -1.05263e-12 0 0 -7.5254e-13 3.09037e-13 -1.16756e-12 -8.42655e-14 0 0 -1.42513e-12 1.16579e-12 -1.81404e-12 3.92253e-13 0 0 -4.32591e-13 -3.07238e-13 -4.94015e-13 -3.21743e-14 0 0 3.10635e-13 -1.44951e-12 5.99098e-13 -4.92952e-13 0 0 -1.0949e-14 -1.19596e-12 6.48636e-13 -5.1879e-13 0 0 -5.40253e-13 -4.09612e-13 -2.60842e-13 2.25858e-13 0 0 -8.26248e-13 3.46447e-13 -1.41627e-12 9.53439e-13 0 0 -4.0915e-13 1.80243e-15 -1.44771e-12 1.02728e-12 0 0 -5.07675e-13 -7.10419e-14 -9.98449e-13 5.14336e-13 0 0 -5.28173e-13 -3.24929e-13 -3.44778e-13 -2.07337e-13 0 0 3.82189e-14 -1.12696e-12 3.68226e-13 -7.49839e-13 0 0 -2.85771e-13 -5.64058e-13 -3.21295e-13 -4.054e-13 0 0 -5.56426e-13 -2.84108e-13 -4.7209e-13 -4.86692e-13 0 0 -8.70034e-13 1.15687e-13 -6.18205e-13 -4.59318e-13 0 0 -7.39684e-13 -5.39051e-14 -5.66034e-13 -2.74269e-13 0 0 -2.99762e-14 -1.18757e-12 3.0067e-13 -5.8112e-13 0 0 -1.55143e-13 -9.3798e-13 -1.34793e-13 -1.7254e-13 0 0 -4.75575e-13 -3.68455e-13 -6.11943e-13 1.00842e-13 0 0 -1.02085e-12 2.87319e-13 -8.65816e-13 6.76496e-14 0 0 -8.31261e-13 1.30053e-14 -6.96269e-13 -1.06719e-14 0 0 -4.19806e-14 -1.08773e-12 1.40445e-13 -5.7324e-13 0 0 -2.60323e-13 -7.29231e-13 -1.6491e-13 -5.33233e-13 0 0 -6.47002e-13 -2.7887e-13 -3.42898e-13 -5.19292e-13 0 0 -7.52405e-13 -1.74949e-13 -3.18313e-13 -6.05015e-13 0 0 -5.18026e-13 -4.43445e-13 -1.67811e-13 -6.1276e-13 0 0 7.99524e-15 -1.15414e-12 4.73467e-13 -1.01573e-12 0 0 -3.08519e-13 -6.64633e-13 -1.37785e-13 -5.53811e-13 0 0 -1.01206e-12 -6.707e-14 -2.49875e-13 -5.22015e-13 0 0 -1.44018e-12 4.75713e-13 -5.36671e-13 -3.90504e-13 0 0 -7.95509e-13 -1.22476e-13 -3.79344e-13 -3.64591e-13 0 0 3.18385e-14 -1.18345e-12 6.82682e-13 -1.058e-12 0 0 -9.93938e-13 3.15377e-13 -3.96329e-13 -5.20608e-13 0 0 -1.62699e-12 1.10464e-12 -8.4562e-13 -2.92674e-13 0 0 -6.09442e-13 -4.37453e-13 6.62592e-13 -1.18607e-12 0 0 3.75104e-13 -1.58838e-12 1.3996e-12 -1.56e-12 0 0 8.79736e-14 -8.52437e-13 7.35738e-13 -1.37175e-12 0 0 -1.33332e-12 1.08723e-12 -5.40675e-13 -9.67743e-13 0 0 -1.46212e-12 1.1315e-12 -5.58936e-13 -9.97452e-13 0 0 -1.18369e-13 -7.8862e-13 7.39926e-13 -1.4956e-12 0 0 4.88936e-13 -1.68272e-12 1.33346e-12 -1.63359e-12 0
				</DataArray>
				<DataArray Name="VitesseY" type="Float32" format="ascii">