<?xml version="1.0"?>
<VTKFile type="PolyData">
	<PolyData>
		<Piece NumberOfPoints="1206" NumberOfPolys="1000">
			<Points>
				<DataArray type="Float32" NumberOfComponents="3" format="ascii">
 0 0 0 0.02 0 0 0.04 0 0 0.06 0 0 0.08 0 0 0.1 0 0 0 0.005 0 0.02 0.005 0 0.04 0.005 0 0.06 0.005 0 0.08 0.005 0 0.1 0.005 0 0 0.01 0 0.02 0.01 0 0.04 0.01 0 0.06 0.01 0 0.08 0.01 0 0.1 0.01 0 0 0.015 0 0.02 0.015 0 0.04 0.015 0 0.06 0.015 0 0.08 0.015 0 0.1 0.015 0 0 0.02 0 0.02 0.02 0 0.04 0.02 0 0.06 0.02 0 0.08 0.02 0 0.1 0.02 0 0 0.025 0 0.02 0.025 0 0.04 0.025 0 0.06 0.025 0 0.08 0.025 0 0.1 0.025 0 0 0.03 0 0.02 0.03 0 0.04 0.03 0 0.06 0.03 0 0.08 0.03 0 0.1 0.03 0 0 0.035 0 0.02 0.035 0 0.04 0.035 0 0.06 0.035 0 0.08 0.035 0 0.1 0.035 0 0 0.04 0 0.02 0.04 0 0.04 0.04 0 0.06 0.04 0 0.08 0.04 0 0.1 0.04 0 0 0.045 0 0.02 0.045 0 0.04 0.045 0 0.06 0.045 0 0.08 0.045 0 0.1 0.045 0 0 0.05 0 0.02 0.05 0 0.04 0.05 0 0.06 0.05 0 0.08 0.05 0 0.1 0.05 0 0 0.055 0 0.02 0.055 0 0.04 0.055 0 0.06 0.055 0 0.08 0.055 0 0.1 0.055 0 0 0.06 0 0.02 0.06 0 0.04 0.06 0 0.06 0.06 0 0.08 0.06 0 0.1 0.06 0 0 0.065 0 0.02 0.065 0 0.04 0.065 0 0.06 0.065 0 0.08 0.065 0 0.1 0.065 0 0 0.07 0 0.02 0.07 0 0.04 0.07 0 0.06 0.07 0 0.08 0.07 0 0.1 0.07 0 0 0.075 0 0.02 0.075 0 0.04 0.075 0 0.06 0.075 0 0.08 0.075 0 0.1 0.075 0 0 0.08 0 0.02 0.08 0 0.04 0.08 0 0.06 0.08 0 0.08 0.08 0 0.1 0.08 0 0 0.085 0 0.02 0.085 0 0.04 0.085 0 0.06 0.085 0 0.08 0.085 0 0.1 0.085 0 0 0.09 0 0.02 0.09 0 0.04 0.09 0 0.06 0.09 0 0.08 0.09 0 0.1 0.09 0 0 0.095 0 0.02 0.095 0 0.04 0.095 0 0.06 0.095 0 0.08 0.095 0 0.1 0.095 0 0 0.1 0 0.02 0.1 0 0.04 0.1 0 0.06 0.1 0 0.08 0.1 0 0.1 0.1 0 0 0.105 0 0.02 0.105 0 0.04 0.105 0 0.06 0.105 0 0.08 0.105 0 0.1 0.105 0 0 0.11 0 0.02 0.11 0 0.04 0.11 0 0.06 0.11 0 0.08 0.11 0 0.1 0.11 0 0 0.115 0 0.02 0.115 0 0.04 0.115 0 0.06 0.115 0 0.08 0.115 0 0.1 0.115 0 0 0.12 0 0.02 0.12 0 0.04 0.12 0 0.06 0.12 0 0.08 0.12 0 0.1 0.12 0 0 0.125 0 0.02 0.125 0 0.04 0.125 0 0.06 0.125 0 0.08 0.125 0 0.1 0.125 0 0 0.13 0 0.02 0.13 0 0.04 0.13 0 0.06 0.13 0 0.08 0.13 0 0.1 0.13 0 0 0.135 0 0.02 0.135 0 0.04 0.135 0 0.06 0.135 0 0.08 0.135 0 0.1 0.135 0 0 0.14 0 0.02 0.14 0 0.04 0.14 0 0.06 0.14 0 0.08 0.14 0 0.1 0.14 0 0 0.145 0 0.02 0.145 0 0.04 0.145 0 0.06 0.145 0 0.08 0.145 0 0.1 0.145 0 0 0.15 0 0.02 0.15 0 0.04 0.15 0 0.06 0.15 0 0.08 0.15 0 0.1 0.15 0 0 0.155 0 0.02 0.155 0 0.04 0.155 0 0.06 0.155 0 0.08 0.155 0 0.1 0.155 0 0 0.16 0 0.02 0.16 0 0.04 0.16 0 0.06 0.16 0 0.08 0.16 0 0.1 0.16 0 0 0.165 0 0.02 0.165 0 0.04 0.165 0 0.06 0.165 0 0.08 0.165 0 0.1 0.165 0 0 0.17 0 0.02 0.17 0 0.04 0.17 0 0.06 0.17 0 0.08 0.17 0 0.1 0.17 0 0 0.175 0 0.02 0.175 0 0.04 0.175 0 0.06 0.175 0 0.08 0.175 0 0.1 0.175 0 0 0.18 0 0.02 0.18 0 0.04 0.18 0 0.06 0.18 0 0.08 0.18 0 0.1 0.18 0 0 0.185 0 0.02 0.185 0 0.04 0.185 0 0.06 0.185 0 0.08 0.185 0 0.1 0.185 0 0 0.19 0 0.02 0.19 0 0.04 0.19 0 0.06 0.19 0 0.08 0.19 0 0.1 0.19 0 0 0.195 0 0.02 0.195 0 0.04 0.195 0 0.06 0.195 0 0.08 0.195 0 0.1 0.195 0 0 0.2 0 0.02 0.2 0 0.04 0.2 0 0.06 0.2 0 0.08 0.2 0 0.1 0.2 0 0 0.205 0 0.02 0.205 0 0.04 0.205 0 0.06 0.205 0 0.08 0.205 0 0.1 0.205 0 0 0.21 0 0.02 0.21 0 0.04 0.21 0 0.06 0.21 0 0.08 0.21 0 0.1 0.21 0 0 0.215 0 0.02 0.215 0 0.04 0.215 0 0.06 0.215 0 0.08 0.215 0 0.1 0.215 0 0 0.22 0 0.02 0.22 0 0.04 0.22 0 0.06 0.22 0 0.08 0.22 0 0.1 0.22 0 0 0.225 0 0.02 0.225 0 0.04 0.225 0 0.06 0.225 0 0.08 0.225 0 0.1 0.225 0 0 0.23 0 0.02 0.23 0 0.04 0.23 0 0.06 0.23 0 0.08 0.23 0 0.1 0.23 0 0 0.235 0 0.02 0.235 0 0.04 0.235 0 0.06 0.235 0 0.08 0.235 0 0.1 0.235 0 0 0.24 0 0.02 0.24 0 0.04 0.24 0 0.06 0.24 0 0.08 0.24 0 0.1 0.24 0 0 0.245 0 0.02 0.245 0 0.04 0.245 0 0.06 0.245 0 0.08 0.245 0 0.1 0.245 0 0 0.25 0 0.02 0.25 0 0.04 0.25 0 0.06 0.25 0 0.08 0.25 0 0.1 0.25 0 0 0.255 0 0.02 0.255 0 0.04 0.255 0 0.06 0.255 0 0.08 0.255 0 0.1 0.255 0 0 0.26 0 0.02 0.26 0 0.04 0.26 0 0.06 0.26 0 0.08 0.26 0 0.1 0.26 0 0 0.265 0 0.02 0.265 0 0.04 0.265 0 0.06 0.265 0 0.08 0.265 0 0.1 0.265 0 0 0.27 0 0.02 0.27 0 0.04 0.27 0 0.06 0.27 0 0.08 0.27 0 0.1 0.27 0 0 0.275 0 0.02 0.275 0 0.04 0.275 0 0.06 0.275 0 0.08 0.275 0 0.1 0.275 0 0 0.28 0 0.02 0.28 0 0.04 0.28 0 0.06 0.28 0 0.08 0.28 0 0.1 0.28 0 0 0.285 0 0.02 0.285 0 0.04 0.285 0 0.06 0.285 0 0.08 0.285 0 0.1 0.285 0 0 0.29 0 0.02 0.29 0 0.04 0.29 0 0.06 0.29 0 0.08 0.29 0 0.1 0.29 0 0 0.295 0 0.02 0.295 0 0.04 0.295 0 0.06 0.295 0 0.08 0.295 0 0.1 0.295 0 0 0.3 0 0.02 0.3 0 0.04 0.3 0 0.06 0.3 0 0.08 0.3 0 0.1 0.3 0 0 0.305 0 0.02 0.305 0 0.04 0.305 0 0.06 0.305 0 0.08 0.305 0 0.1 0.305 0 0 0.31 0 0.02 0.31 0 0.04 0.31 0 0.06 0.31 0 0.08 0.31 0 0.1 0.31 0 0 0.315 0 0.02 0.315 0 0.04 0.315 0 0.06 0.315 0 0.08 0.315 0 0.1 0.315 0 0 0.32 0 0.02 0.32 0 0.04 0.32 0 0.06 0.32 0 0.08 0.32 0 0.1 0.32 0 0 0.325 0 0.02 0.325 0 0.04 0.325 0 0.06 0.325 0 0.08 0.325 0 0.1 0.325 0 0 0.33 0 0.02 0.33 0 0.04 0.33 0 0.06 0.33 0 0.08 0.33 0 0.1 0.33 0 0 0.335 0 0.02 0.335 0 0.04 0.335 0 0.06 0.335 0 0.08 0.335 0 0.1 0.335 0 0 0.34 0 0.02 0.34 0 0.04 0.34 0 0.06 0.34 0 0.08 0.34 0 0.1 0.34 0 0 0.345 0 0.02 0.345 0 0.04 0.345 0 0.06 0.345 0 0.08 0.345 0 0.1 0.345 0 0 0.35 0 0.02 0.35 0 0.04 0.35 0 0.06 0.35 0 0.08 0.35 0 0.1 0.35 0 0 0.355 0 0.02 0.355 0 0.04 0.355 0 0.06 0.355 0 0.08 0.355 0 0.1 0.355 0 0 0.36 0 0.02 0.36 0 0.04 0.36 0 0.06 0.36 0 0.08 0.36 0 0.1 0.36 0 0 0.365 0 0.02 0.365 0 0.04 0.365 0 0.06 0.365 0 0.08 0.365 0 0.1 0.365 0 0 0.37 0 0.02 0.37 0 0.04 0.37 0 0.06 0.37 0 0.08 0.37 0 0.1 0.37 0 0 0.375 0 0.02 0.375 0 0.04 0.375 0 0.06 0.375 0 0.08 0.375 0 0.1 0.375 0 0 0.38 0 0.02 0.38 0 0.04 0.38 0 0.06 0.38 0 0.08 0.38 0 0.1 0.38 0 0 0.385 0 0.02 0.385 0 0.04 0.385 0 0.06 0.385 0 0.08 0.385 0 0.1 0.385 0 0 0.39 0 0.02 0.39 0 0.04 0.39 0 0.06 0.39 0 0.08 0.39 0 0.1 0.39 0 0 0.395 0 0.02 0.395 0 0.04 0.395 0 0.06 0.395 0 0.08 0.395 0 0.1 0.395 0 0 0.4 0 0.02 0.4 0 0.04 0.4 0 0.06 0.4 0 0.08 0.4 0 0.1 0.4 0 0 0.405 0 0.02 0.405 0 0.04 0.405 0 0.06 0.405 0 0.08 0.405 0 0.1 0.405 0 0 0.41 0 0.02 0.41 0 0.04 0.41 0 0.06 0.41 0 0.08 0.41 0 0.1 0.41 0 0 0.415 0 0.02 0.415 0 0.04 0.415 0 0.06 0.415 0 0.08 0.415 0 0.1 0.415 0 0 0.42 0 0.02 0.42 0 0.04 0.42 0 0.06 0.42 0 0.08 0.42 0 0.1 0.42 0 0 0.425 0 0.02 0.425 0 0.04 0.425 0 0.06 0.425 0 0.08 0.425 0 0.1 0.425 0 0 0.43 0 0.02 0.43 0 0.04 0.43 0 0.06 0.43 0 0.08 0.43 0 0.1 0.43 0 0 0.435 0 0.02 0.435 0 0.04 0.435 0 0.06 0.435 0 0.08 0.435 0 0.1 0.435 0 0 0.44 0 0.02 0.44 0 0.04 0.44 0 0.06 0.44 0 0.08 0.44 0 0.1 0.44 0 0 0.445 0 0.02 0.445 0 0.04 0.445 0 0.06 0.445 0 0.08 0.445 0 0.1 0.445 0 0 0.45 0 0.02 0.45 0 0.04 0.45 0 0.06 0.45 0 0.08 0.45 0 0.1 0.45 0 0 0.455 0 0.02 0.455 0 0.04 0.455 0 0.06 0.455 0 0.08 0.455 0 0.1 0.455 0 0 0.46 0 0.02 0.46 0 0.04 0.46 0 0.06 0.46 0 0.08 0.46 0 0.1 0.46 0 0 0.465 0 0.02 0.465 0 0.04 0.465 0 0.06 0.465 0 0.08 0.465 0 0.1 0.465 0 0 0.47 0 0.02 0.47 0 0.04 0.47 0 0.06 0.47 0 0.08 0.47 0 0.1 0.47 0 0 0.475 0 0.02 0.475 0 0.04 0.475 0 0.06 0.475 0 0.08 0.475 0 0.1 0.475 0 0 0.48 0 0.02 0.48 0 0.04 0.48 0 0.06 0.48 0 0.08 0.48 0 0.1 0.48 0 0 0.485 0 0.02 0.485 0 0.04 0.485 0 0.06 0.485 0 0.08 0.485 0 0.1 0.485 0 0 0.49 0 0.02 0.49 0 0.04 0.49 0 0.06 0.49 0 0.08 0.49 0 0.1 0.49 0 0 0.495 0 0.02 0.495 0 0.04 0.495 0 0.06 0.495 0 0.08 0.495 0 0.1 0.495 0 0 0.5 0 0.02 0.5 0 0.04 0.5 0 0.06 0.5 0 0.08 0.5 0 0.1 0.5 0 0 0.505 0 0.02 0.505 0 0.04 0.505 0 0.06 0.505 0 0.08 0.505 0 0.1 0.505 0 0 0.51 0 0.02 0.51 0 0.04 0.51 0 0.06 0.51 0 0.08 0.51 0 0.1 0.51 0 0 0.515 0 0.02 0.515 0 0.04 0.515 0 0.06 0.515 0 0.08 0.515 0 0.1 0.515 0 0 0.52 0 0.02 0.52 0 0.04 0.52 0 0.06 0.52 0 0.08 0.52 0 0.1 0.52 0 0 0.525 0 0.02 0.525 0 0.04 0.525 0 0.06 0.525 0 0.08 0.525 0 0.1 0.525 0 0 0.53 0 0.02 0.53 0 0.04 0.53 0 0.06 0.53 0 0.08 0.53 0 0.1 0.53 0 0 0.535 0 0.02 0.535 0 0.04 0.535 0 0.06 0.535 0 0.08 0.535 0 0.1 0.535 0 0 0.54 0 0.02 0.54 0 0.04 0.54 0 0.06 0.54 0 0.08 0.54 0 0.1 0.54 0 0 0.545 0 0.02 0.545 0 0.04 0.545 0 0.06 0.545 0 0.08 0.545 0 0.1 0.545 0 0 0.55 0 0.02 0.55 0 0.04 0.55 0 0.06 0.55 0 0.08 0.55 0 0.1 0.55 0 0 0.555 0 0.02 0.555 0 0.04 0.555 0 0.06 0.555 0 0.08 0.555 0 0.1 0.555 0 0 0.56 0 0.02 0.56 0 0.04 0.56 0 0.06 0.56 0 0.08 0.56 0 0.1 0.56 0 0 0.565 0 0.02 0.565 0 0.04 0.565 0 0.06 0.565 0 0.08 0.565 0 0.1 0.565 0 0 0.57 0 0.02 0.57 0 0.04 0.57 0 0.06 0.57 0 0.08 0.57 0 0.1 0.57 0 0 0.575 0 0.02 0.575 0 0.04 0.575 0 0.06 0.575 0 0.08 0.575 0 0.1 0.575 0 0 0.58 0 0.02 0.58 0 0.04 0.58 0 0.06 0.58 0 0.08 0.58 0 0.1 0.58 0 0 0.585 0 0.02 0.585 0 0.04 0.585 0 0.06 0.585 0 0.08 0.585 0 0.1 0.585 0 0 0.59 0 0.02 0.59 0 0.04 0.59 0 0.06 0.59 0 0.08 0.59 0 0.1 0.59 0 0 0.595 0 0.02 0.595 0 0.04 0.595 0 0.06 0.595 0 0.08 0.595 0 0.1 0.595 0 0 0.6 0 0.02 0.6 0 0.04 0.6 0 0.06 0.6 0 0.08 0.6 0 0.1 0.6 0 0 0.605 0 0.02 0.605 0 0.04 0.605 0 0.06 0.605 0 0.08 0.605 0 0.1 0.605 0 0 0.61 0 0.02 0.61 0 0.04 0.61 0 0.06 0.61 0 0.08 0.61 0 0.1 0.61 0 0 0.615 0 0.02 0.615 0 0.04 0.615 0 0.06 0.615 0 0.08 0.615 0 0.1 0.615 0 0 0.62 0 0.02 0.62 0 0.04 0.62 0 0.06 0.62 0 0.08 0.62 0 0.1 0.62 0 0 0.625 0 0.02 0.625 0 0.04 0.625 0 0.06 0.625 0 0.08 0.625 0 0.1 0.625 0 0 0.63 0 0.02 0.63 0 0.04 0.63 0 0.06 0.63 0 0.08 0.63 0 0.1 0.63 0 0 0.635 0 0.02 0.635 0 0.04 0.635 0 0.06 0.635 0 0.08 0.635 0 0.1 0.635 0 0 0.64 0 0.02 0.64 0 0.04 0.64 0 0.06 0.64 0 0.08 0.64 0 0.1 0.64 0 0 0.645 0 0.02 0.645 0 0.04 0.645 0 0.06 0.645 0 0.08 0.645 0 0.1 0.645 0 0 0.65 0 0.02 0.65 0 0.04 0.65 0 0.06 0.65 0 0.08 0.65 0 0.1 0.65 0 0 0.655 0 0.02 0.655 0 0.04 0.655 0 0.06 0.655 0 0.08 0.655 0 0.1 0.655 0 0 0.66 0 0.02 0.66 0 0.04 0.66 0 0.06 0.66 0 0.08 0.66 0 0.1 0.66 0 0 0.665 0 0.02 0.665 0 0.04 0.665 0 0.06 0.665 0 0.08 0.665 0 0.1 0.665 0 0 0.67 0 0.02 0.67 0 0.04 0.67 0 0.06 0.67 0 0.08 0.67 0 0.1 0.67 0 0 0.675 0 0.02 0.675 0 0.04 0.675 0 0.06 0.675 0 0.08 0.675 0 0.1 0.675 0 0 0.68 0 0.02 0.68 0 0.04 0.68 0 0.06 0.68 0 0.08 0.68 0 0.1 0.68 0 0 0.685 0 0.02 0.685 0 0.04 0.685 0 0.06 0.685 0 0.08 0.685 0 0.1 0.685 0 0 0.69 0 0.02 0.69 0 0.04 0.69 0 0.06 0.69 0 0.08 0.69 0 0.1 
[...]
			<PointData Scalars="VitesseX">
				<DataArray Name="VitesseX" type="Float32" format="ascii">
 0 -2.25588e-14 -8.92529e-15 -1.42195e-14 2.69218e-14 0 0 -2.34668e-14 -8.05065e-15 -1.08726e-14 2.22153e-14 0 0 -1.6851e-14 -2.03875e-14 4.28653e-15 1.30725e-14 0 0 -2.77494e-14 -4.24714e-15 -1.69805e-14 2.9468e-14 0 0 -4.40611e-14 1.03745e-14 -3.11094e-14 4.08745e-14 0 0 -2.7589e-14 -3.23242e-14 1.22337e-14 1.21421e-14 0 0 -1.09912e-14 -6.05334e-14 2.43138e-14 -2.84327e-15 0 0 -2.46085e-14 -3.78009e-14 -2.29395e-14 2.57459e-14 0 0 -2.8331e-14 -5.34999e-14 -1.82899e-14 2.79934e-14 0 0 -6.61744e-14 -2.08585e-14 -5.00925e-14 7.02295e-14 0 0 -1.37241e-13 6.58573e-14 -9.93442e-14 1.1127e-13 0 0 -9.40231e-14 -3.40538e-14 5.47641e-14 1.92313e-15 0 0 -1.03815e-13 -1.51443e-14 6.452e-14 -1.69496e-14 0 0 -8.77343e-14 -2.82729e-14 8.75132e-14 -2.14895e-14 0 0 -4.07762e-14 -9.06e-14 1.25097e-13 -3.0512e-14 0 0 -7.27473e-14 -1.62691e-14 4.95763e-15 5.51064e-14 0 0 -3.70247e-14 -4.91035e-14 -1.11173e-14 8.66903e-14 0 0 -6.9621e-14 2.82093e-14 -1.38494e-13 1.73294e-13 0 0 -9.97185e-14 7.52347e-14 -1.86077e-13 1.75211e-13 0 0 -8.35809e-14 1.79703e-14 -9.61382e-14 8.92866e-14 0 0 -8.20582e-14 -2.71048e-14 -4.20052e-14 5.11965e-14 0 0 -6.88556e-14 -8.02534e-14 2.40537e-14 -3.14414e-14 0 0 -1.13759e-13 -2.41234e-14 -1.75049e-15 -7.69557e-14 0 0 -1.0018e-13 -1.69754e-14 3.90698e-14 -2.1076e-13 0 0 -3.23287e-14 -6.50195e-14 7.86374e-14 -2.93956e-13 0 0 -6.16617e-14 -3.25196e-14 -1.27381e-14 -2.07416e-13 0 0 -9.147e-14 -5.29012e-14 2.24458e-14 -2.9724e-13 0 0 -1.39441e-13 -1.14839e-14 -2.52209e-14 -3.17885e-13 0 0 -1.221e-13 -3.29263e-14 -9.15175e-14 -2.2358e-13 0 0 -9.966e-14 -4.85048e-14 -1.33235e-13 -1.38524e-13 0 0 -6.45222e-14 -1.1417e-13 -1.46664e-14 -1.90791e-13 0 0 -1.24849e-14 -1.74852e-13 6.64713e-14 -1.62814e-13 0 0 -1.23676e-13 2.60612e-14 -1.70483e-13 1.02213e-13 0 0 -8.59484e-14 -1.13301e-14 -1.33549e-13 1.35113e-13 0 0 -1.01648e-13 5.38995e-14 -2.04333e-13 2.37588e-13 0 0 -1.7229e-13 1.0687e-13 -1.97428e-13 3.04621e-13 0 0 -2.87085e-13 1.93241e-13 -1.02496e-13 1.69726e-13 0 0 -9.65076e-14 -1.08321e-13 2.79464e-13 -1.39944e-13 0 0 -1.79665e-14 -2.13311e-13 3.86373e-13 -2.40692e-13 0 0 -1.98866e-13 8.9079e-14 8.82021e-14 -1.70324e-13 0 0 -9.92641e-14 -5.21469e-14 1.08525e-13 -1.66882e-13 0 0 4.12127e-15 -1.89979e-13 5.96926e-14 -3.87797e-14 0 0 4.36722e-14 -2.56393e-13 2.85585e-14 -2.84066e-15 0 0 -4.89101e-14 -2.16502e-13 4.35926e-14 -5.45809e-14 0 0 -1.64565e-13 -1.65052e-13 1.15196e-13 -1.40966e-13 0 0 -1.51787e-13 -3.07114e-13 4.15575e-13 -3.6257e-13 0 0 -3.79402e-13 1.35622e-14 2.17756e-13 -3.00684e-13 0 0 -3.78337e-13 1.06736e-13 1.26714e-13 -3.04443e-13 0 0 -1.01688e-13 -1.45223e-13 2.81321e-13 -4.13546e-13 0 0 -2.62829e-13 1.96169e-13 -5.53785e-14 -2.51259e-13 0 0 -4.83681e-13 5.61563e-13 -2.66135e-13 -2.47248e-13 0 0 -5.26405e-13 6.77125e-13 -3.76001e-13 -1.6835e-13 0 0 -7.99385e-14 5.6575e-14 1.6398e-13 -5.25219e-13 0 0 -7.97791e-14 3.6141e-14 2.00504e-13 -6.14315e-13 0 0 -5.67964e-13 6.88322e-13 -3.82906e-13 -2.32982e-13 0 0 -5.10077e-13 5.02514e-13 -1.41504e-13 -3.79638e-13 0 0 -3.98436e-13 2.05957e-13 6.84273e-14 -3.72819e-13 0 0 -2.09021e-13 -3.87099e-14 1.73652e-13 -3.59063e-13 0 0 -3.0229e-13 7.6489e-14 1.09938e-13 -3.94867e-13 0 0 -5.32809e-13 3.5879e-13 -2.00519e-13 -2.22783e-13 0 0 -3.34997e-13 1.5172e-13 -1.10607e-13 -3.2674e-13 0 0 -1.32748e-13 -8.59245e-15 -1.14429e-13 -3.09794e-13 0 0 -1.05225e-13 -1.24991e-15 -2.76423e-13 -2.51796e-14 0 0 -2.75277e-13 2.43635e-13 -5.70302e-13 2.81151e-13 0 0 -1.78919e-13 2.12067e-13 -6.70372e-13 3.27471e-13 0 0 6.03051e-14 -5.88338e-14 -3.68656e-13 1.20579e-13 0 0 3.16782e-15 -9.71728e-14 -7.6412e-14 -7.32334e-14 0 0 -1.60826e-13 -5.31847e-14 8.56918e-14 -1.29569e-13 0 0 -5.9921e-13 4.83093e-13 -2.31948e-13 1.14012e-13 0 0 -5.75593e-13 4.16434e-13 -8.92723e-14 8.03188e-14 0 0 -9.48113e-14 -2.5795e-13 5.08584e-13 -2.95433e-13 0 0 -2.58231e-13 4.04742e-14 2.34696e-13 -2.78267e-13 0 0 -4.98718e-13 4.55849e-13 -1.68822e-13 -1.19137e-13 0 0 -5.31178e-13 5.29863e-13 -1.59743e-13 -2.25303e-13 0 0 -3.00648e-13 3.28454e-13 1.41314e-14 -3.95419e-13 0 0 -7.61525e-14 1.49386e-13 1.32278e-13 -4.67666e-13 0 0 -2.51073e-13 3.55675e-13 3.63825e-14 -3.86617e-13 0 0 -4.46111e-13 6.23636e-13 -2.63331e-13 -2.1567e-14 0 0 -3.20025e-13 4.93744e-13 -4.21407e-13 3.67684e-13 0 0 -8.9131e-14 5.93024e-14 -6.97732e-14 1.87328e-13 0 0 -2.10053e-13 1.5762e-13 -2.55886e-14 3.48718e-14 0 0 -1.668e-13 4.40763e-14 1.28067e-13 -9.23632e-14 0 0 -5.48473e-14 -3.5043e-13 6.45522e-13 -4.68983e-13 0 0 -3.08433e-13 -7.95432e-14 3.48387e-13 -1.28334e-13 0 0 -5.04404e-13 3.66378e-13 -3.09736e-13 5.29817e-13 0 0 -2.30092e-13 8.67242e-14 -1.28142e-13 4.38181e-13 0 0 6.34674e-13 -7.38753e-13 5.01265e-13 1.3833e-13 0 0 6.4717e-13 2.68303e-13 8.9663e-13 5.7222e-13 0 0 1.39402e-12 4.48393e-12 3.45167e-12 2.34682e-12 0 0 9.35501e-12 1.55907e-11 1.3759e-11 8.53577e-12 0 0 3.1457e-11 4.60458e-11 4.05085e-11 2.29737e-11 0 0 7.65635e-11 1.08767e-10 9.06026e-11 4.60644e-11 0 0 1.47792e-10 2.06505e-10 1.5801e-10 6.84851e-11 0 0 2.33803e-10 3.24223e-10 2.19926e-10 6.4295e-11 0 0 2.98182e-10 4.33043e-10 2.52113e-10 1.87997e-11 0 0 3.06297e-10 5.06331e-10 2.49338e-10 -9.02886e-11 0 0 1.75144e-10 5.39103e-10 2.91077e-10 -3.08651e-10 0 0 -1.79489e-10 7.34758e-10 4.23075e-10 -6.98136e-10 0 0 -1.4912e-09 1.0348e-09 7.39322e-10 -1.34125e-09 0 0 -2.15715e-09 3.60902e-10 2.43967e-09 -3.43311e-09 0 0 -8.99969e-10 -5.96299e-09 1.21152e-08 -1.12291e-08 0 0 3.65907e-09 -1.07527e-08 1.30619e-08 -1.07826e-08 0 0 3.58307e-09 -6.41235e-09 1.37312e-09 1.40617e-09 0 0 -2.83297e-10 8.14269e-09 -2.19283e-08 1.95923e-08 0 0 -3.51259e-09 1.17328e-08 -2.36365e-08 2.00341e-08 0 0 -2.59344e-09 8.69063e-09 -1.81537e-08 1.48922e-08 0 0 1.30477e-09 -1.12819e-09 -4.38384e-09 4.66034e-09 0 0 4.48912e-09 -9.73252e-09 9.60054e-09 -6.44794e-09 0 0 3.88907e-09 -9.36908e-09 1.10499e-08 -8.58861e-09 0 0 5.56041e-10 -4.33335e-09 7.43697e-09 -6.51706e-09 0 0 -2.00493e-09 5.53091e-10 3.63614e-09 -4.45421e-09 0 0 -2.09203e-09 1.07953e-09 1.23143e-09 -2.91666e-09 0 0 -1.47031e-09 9.53643e-10 -2.58394e-11 -1.19683e-09 0 0 -5.02158e-10 3.91205e-10 -1.80462e-10 -3.21103e-10 0 0 -1.55181e-10 2.50565e-11 -1.14315e-10 -2.12031e-10 0 0 -6.26902e-11 -2.99323e-11 -6.83742e-11 -1.25844e-10 0 0 -2.50278e-11 -3.08812e-11 -4.75935e-11 -5.63695e-11 0 0 -9.6032e-12 -1.83465e-11 -2.62916e-11 -2.14901e-11 0 0 -3.31854e-12 -7.27454e-12 -9.95643e-12 -7.52085e-12 0 0 -8.85158e-13 -2.18577e-12 -2.54506e-12 -2.19115e-12 0 0 -1.8511e-13 -5.57291e-13 -2.89658e-13 -6.6173e-13 0 0 -2.91056e-13 7.69789e-14 -1.1167e-13 -2.01434e-13 0 0 -5.2164e-13 4.68116e-13 -4.88182e-13 1.05509e-13 0 0 -2.45696e-13 5.00011e-14 -1.79885e-13 -1.0138e-13 0 0 6.53714e-15 -3.38302e-13 1.0808e-13 -2.66549e-13 0 0 -3.97158e-14 -2.65543e-13 1.27181e-14 -2.18968e-13 0 0 -2.47768e-13 5.29417e-15 -1.82935e-13 -1.14269e-13 0 0 -5.2199e-13 3.88995e-13 -5.26005e-13 1.19384e-13 0 0 -3.28219e-13 6.72343e-14 -1.84234e-13 -1.21484e-13 0 0 -2.26972e-15 -4.39967e-13 2.70983e-13 -4.10696e-13 0 0 2.37341e-14 -4.71178e-13 2.58703e-13 -4.12954e-13 0 0 -2.68826e-13 -5.43372e-14 -8.64288e-14 -2.45915e-13 0 0 -5.98415e-13 4.21163e-13 -5.04708e-13 -5.85918e-14 0 0 -3.1861e-13 3.09922e-14 -2.1734e-13 -2.42484e-13 0 0 -1.31643e-14 -3.47725e-13 -3.65178e-14 -2.33501e-13 0 0 5.36893e-15 -4.51601e-13 5.39961e-14 -2.38206e-13 0 0 -2.56564e-13 -1.62398e-13 -1.51551e-13 -1.54738e-13 0 0 -5.41117e-13 3.13967e-13 -6.45364e-13 1.55528e-13 0 0 -2.45158e-13 -1.62052e-13 -2.40894e-13 -7.61204e-14 0 0 -2.91917e-13 -3.11365e-13 7.76506e-14 -3.52501e-13 0 0 -4.86669e-13 -1.57987e-13 1.52533e-13 -4.40194e-13 0 0 -2.71689e-13 -4.72308e-13 4.55323e-13 -4.56246e-13 0 0 -6.98986e-13 2.24969e-13 -2.58697e-13 2.2844e-13 0 0 -7.85778e-13 3.92183e-13 -3.70498e-13 4.30232e-13 0 0 1.38175e-14 -7.47268e-13 7.34563e-13 -2.35907e-13 0 0 2.01269e-13 -8.34743e-13 7.98397e-13 -3.16126e-13 0 0 -1.62088e-13 -1.49509e-13 2.92359e-13 -9.33595e-14 0 0 -6.48807e-13 6.36841e-13 -2.73884e-13 2.17736e-13 0 0 -7.00515e-13 6.00276e-13 -1.95877e-13 3.42763e-13 0 0 1.58943e-14 -6.79621e-13 1.09395e-12 -3.40605e-13 0 0 -1.40708e-13 -5.38587e-13 1.05458e-12 -2.98225e-13 0 0 -5.11829e-13 7.56283e-14 3.27062e-13 2.03698e-13 0 0 -6.85532e-13 5.32512e-13 -4.11144e-13 6.33836e-13 0 0 -5.24546e-13 2.68297e-13 -4.13296e-13 6.13973e-13 0 0 -3.879e-14 -5.0409e-13 1.876e-13 1.2188e-13 0 0 -6.01986e-14 -4.28539e-13 2.07995e-13 -8.94672e-14 0 0 -3.58659e-13 -1.59925e-13 1.57103e-13 -2.17061e-13 0 0 -8.99274e-13 4.30273e-13 -3.33679e-13 -4.29963e-14 0 0 -6.41099e-13 -1.61547e-14 -3.09929e-14 -3.2982e-13 0 0 2.31207e-13 -1.22304e-12 7.4785e-13 -8.70534e-13 0 0 2.85413e-13 -1.26331e-12 5.45924e-13 -8.20317e-13 0 0 -8.04753e-13 4.0797e-13 -1.06051e-12 4.63771e-14 0 0 -1.37489e-12 1.23407e-12 -1.67168e-12 4.8381e-13 0 0 -4.1777e-13 -1.76361e-13 -3.124e-13 3.99615e-14 0 0 3.575e-13 -1.3287e-12 7.06479e-13 -3.56433e-13 0 0 7.04933e-14 -1.0792e-12 5.40007e-13 -6.05528e-14 0 0 -4.64411e-13 -1.27362e-13 -5.60001e-13 6.47539e-13 0 0 -8.1207e-13 6.51968e-13 -1.67869e-12 1.21355e-12 0 0 -4.25148e-13 7.86551e-14 -1.45633e-12 1.17835e-12 0 0 -3.13766e-13 -1.76906e-13 -1.11946e-12 8.87058e-13 0 0 -3.97639e-13 -3.0625e-13 -4.94481e-13 3.36515e-13 0 0 6.26312e-14 -1.11502e-12 3.43032e-13 -2.43954e-13 0 0 -1.6723e-13 -6.97071e-13 -3.78066e-13 6.16692e-14 0 0 -3.8831e-13 -4.64598e-13 -4.3259e-13 -1.66819e-13 0 0 -6.23368e-13 -8.4361e-15 -6.50306e-13 -2.14534e-13 0 0 -6.80835e-13 1.29465e-13 -7.84099e-13 -7.82732e-14 0 0 -1.56378e-14 -1.01914e-12 2.17155e-13 -4.33408e-13 0 0 -1.94024e-13 -7.47759e-13 -1.90165e-13 -9.7278e-14 0 0 -5.04903e-13 -2.31716e-13 -4.51488e-13 -1.2502e-13 0 0 -8.82669e-13 4.15907e-13 -7.91525e-13 -9.20489e-14 0 0 -7.54328e-13 3.02976e-13 -8.07706e-13 -1.11461e-16 0 0 6.51298e-14 -9.44035e-13 2.28895e-13 -5.19422e-13 0 0 -6.73076e-14 -7.84824e-13 -7.76042e-14 -2.5695e-13 0 0 -4.90621e-13 -2.61366e-13 -5.03288e-13 -4.04555e-14 0 0 -6.6072e-13 -7.89009e-14 -3.68171e-13 -3.55404e-13 0 0 -5.34116e-13 -2.53855e-13 -9.10366e-15 -6.57394e-13 0 0 -7.96785e-14 -8.22105e-13 4.9823e-13 -9.11789e-13 0 0 -1.09905e-13 -8.14025e-13 2.99757e-13 -6.10225e-13 0 0 -8.72905e-13 -9.67888e-14 1.02018e-13 -6.57032e-13 0 0 -1.50195e-12 8.40378e-13 -5.1897e-13 -4.49164e-13 0 0 -7.44667e-13 -4.1295e-14 -8.44615e-14 -6.29901e-13 0 0 4.08214e-14 -1.13903e-12 7.11106e-13 -1.03339e-12 0 0 -9.62978e-13 3.74478e-13 -6.37968e-13 -7.36321e-14 0 0 -1.54765e-12 1.06436e-12 -7.51389e-13 -1.87453e-13 0 0 -5.65199e-13 -3.88588e-13 7.88196e-13 -1.26867e-12 0 0 4.48695e-13 -1.50615e-12 1.49829e-12 -1.60095e-12 0 0 1.8439e-13 -8.63628e-13 9.79513e-13 -1.46791e-12 0 0 -1.25915e-12 1.08595e-12 -4.50626e-13 -8.67704e-13 0 0 -1.43522e-12 1.13969e-12 -4.7421e-13 -9.01527e-13 0 0 -9.77931e-14 -8.35379e-13 9.02281e-13 -1.46096e-12 0 0 5.43749e-13 -1.75945e-12 1.41666e-12 -1.49285e-12 0
				</DataArray>
				<DataArray Name="VitesseY" type="Float32" format="ascii">