<?xml version="1.0"?>
<VTKFile type="PolyData">
	<PolyData>
		<Piece NumberOfPoints="1206" NumberOfPolys="1000">
			<Points>
				<DataArray type="Float32" NumberOfComponents="3" format="ascii">
 0 0 0 0.02 0 0 0.04 0 0 0.06 0 0 0.08 0 0 0.1 0 0 0 0.005 0 0.02 0.005 0 0.04 0.005 0 0.06 0.005 0 0.08 0.005 0 0.1 0.005 0 0 0.01 0 0.02 0.01 0 0.04 0.01 0 0.06 0.01 0 0.08 0.01 0 0.1 0.01 0 0 0.015 0 0.02 0.015 0 0.04 0.015 0 0.06 0.015 0 0.08 0.015 0 0.1 0.015 0 0 0.02 0 0.02 0.02 0 0.04 0.02 0 0.06 0.02 0 0.08 0.02 0 0.1 0.02 0 0 0.025 0 0.02 0.025 0 0.04 0.025 0 0.06 0.025 0 0.08 0.025 0 0.1 0.025 0 0 0.03 0 0.02 0.03 0 0.04 0.03 0 0.06 0.03 0 0.08 0.03 0 0.1 0.03 0 0 0.035 0 0.02 0.035 0 0.04 0.035 0 0.06 0.035 0 0.08 0.035 0 0.1 0.035 0 0 0.04 0 0.02 0.04 0 0.04 0.04 0 0.06 0.04 0 0.08 0.04 0 0.1 0.04 0 0 0.045 0 0.02 0.045 0 0.04 0.045 0 0.06 0.045 0 0.08 0.045 0 0.1 0.045 0 0 0.05 0 0.02 0.05 0 0.04 0.05 0 0.06 0.05 0 0.08 0.05 0 0.1 0.05 0 0 0.055 0 0.02 0.055 0 0.04 0.055 0 0.06 0.055 0 0.08 0.055 0 0.1 0.055 0 0 0.06 0 0.02 0.06 0 0.04 0.06 0 0.06 0.06 0 0.08 0.06 0 0.1 0.06 0 0 0.065 0 0.02 0.065 0 0.04 0.065 0 0.06 0.065 0 0.08 0.065 0 0.1 0.065 0 0 0.07 0 0.02 0.07 0 0.04 0.07 0 0.06 0.07 0 0.08 0.07 0 0.1 0.07 0 0 0.075 0 0.02 0.075 0 0.04 0.075 0 0.06 0.075 0 0.08 0.075 0 0.1 0.075 0 0 0.08 0 0.02 0.08 0 0.04 0.08 0 0.06 0.08 0 0.08 0.08 0 0.1 0.08 0 0 0.085 0 0.02 0.085 0 0.04 0.085 0 0.06 0.085 0 0.08 0.085 0 0.1 0.085 0 0 0.09 0 0.02 0.09 0 0.04 0.09 0 0.06 0.09 0 0.08 0.09 0 0.1 0.09 0 0 0.095 0 0.02 0.095 0 0.04 0.095 0 0.06 0.095 0 0.08 0.095 0 0.1 0.095 0 0 0.1 0 0.02 0.1 0 0.04 0.1 0 0.06 0.1 0 0.08 0.1 0 0.1 0.1 0 0 0.105 0 0.02 0.105 0 0.04 0.105 0 0.06 0.105 0 0.08 0.105 0 0.1 0.105 0 0 0.11 0 0.02 0.11 0 0.04 0.11 0 0.06 0.11 0 0.08 0.11 0 0.1 0.11 0 0 0.115 0 0.02 0.115 0 0.04 0.115 0 0.06 0.115 0 0.08 0.115 0 0.1 0.115 0 0 0.12 0 0.02 0.12 0 0.04 0.12 0 0.06 0.12 0 0.08 0.12 0 0.1 0.12 0 0 0.125 0 0.02 0.125 0 0.04 0.125 0 0.06 0.125 0 0.08 0.125 0 0.1 0.125 0 0 0.13 0 0.02 0.13 0 0.04 0.13 0 0.06 0.13 0 0.08 0.13 0 0.1 0.13 0 0 0.135 0 0.02 0.135 0 0.04 0.135 0 0.06 0.135 0 0.08 0.135 0 0.1 0.135 0 0 0.14 0 0.02 0.14 0 0.04 0.14 0 0.06 0.14 0 0.08 0.14 0 0.1 0.14 0 0 0.145 0 0.02 0.145 0 0.04 0.145 0 0.06 0.145 0 0.08 0.145 0 0.1 0.145 0 0 0.15 0 0.02 0.15 0 0.04 0.15 0 0.06 0.15 0 0.08 0.15 0 0.1 0.15 0 0 0.155 0 0.02 0.155 0 0.04 0.155 0 0.06 0.155 0 0.08 0.155 0 0.1 0.155 0 0 0.16 0 0.02 0.16 0 0.04 0.16 0 0.06 0.16 0 0.08 0.16 0 0.1 0.16 0 0 0.165 0 0.02 0.165 0 0.04 0.165 0 0.06 0.165 0 0.08 0.165 0 0.1 0.165 0 0 0.17 0 0.02 0.17 0 0.04 0.17 0 0.06 0.17 0 0.08 0.17 0 0.1 0.17 0 0 0.175 0 0.02 0.175 0 0.04 0.175 0 0.06 0.175 0 0.08 0.175 0 0.1 0.175 0 0 0.18 0 0.02 0.18 0 0.04 0.18 0 0.06 0.18 0 0.08 0.18 0 0.1 0.18 0 0 0.185 0 0.02 0.185 0 0.04 0.185 0 0.06 0.185 0 0.08 0.185 0 0.1 0.185 0 0 0.19 0 0.02 0.19 0 0.04 0.19 0 0.06 0.19 0 0.08 0.19 0 0.1 0.19 0 0 0.195 0 0.02 0.195 0 0.04 0.195 0 0.06 0.195 0 0.08 0.195 0 0.1 0.195 0 0 0.2 0 0.02 0.2 0 0.04 0.2 0 0.06 0.2 0 0.08 0.2 0 0.1 0.2 0 0 0.205 0 0.02 0.205 0 0.04 0.205 0 0.06 0.205 0 0.08 0.205 0 0.1 0.205 0 0 0.21 0 0.02 0.21 0 0.04 0.21 0 0.06 0.21 0 0.08 0.21 0 0.1 0.21 0 0 0.215 0 0.02 0.215 0 0.04 0.215 0 0.06 0.215 0 0.08 0.215 0 0.1 0.215 0 0 0.22 0 0.02 0.22 0 0.04 0.22 0 0.06 0.22 0 0.08 0.22 0 0.1 0.22 0 0 0.225 0 0.02 0.225 0 0.04 0.225 0 0.06 0.225 0 0.08 0.225 0 0.1 0.225 0 0 0.23 0 0.02 0.23 0 0.04 0.23 0 0.06 0.23 0 0.08 0.23 0 0.1 0.23 0 0 0.235 0 0.02 0.235 0 0.04 0.235 0 0.06 0.235 0 0.08 0.235 0 0.1 0.235 0 0 0.24 0 0.02 0.24 0 0.04 0.24 0 0.06 0.24 0 0.08 0.24 0 0.1 0.24 0 0 0.245 0 0.02 0.245 0 0.04 0.245 0 0.06 0.245 0 0.08 0.245 0 0.1 0.245 0 0 0.25 0 0.02 0.25 0 0.04 0.25 0 0.06 0.25 0 0.08 0.25 0 0.1 0.25 0 0 0.255 0 0.02 0.255 0 0.04 0.255 0 0.06 0.255 0 0.08 0.255 0 0.1 0.255 0 0 0.26 0 0.02 0.26 0 0.04 0.26 0 0.06 0.26 0 0.08 0.26 0 0.1 0.26 0 0 0.265 0 0.02 0.265 0 0.04 0.265 0 0.06 0.265 0 0.08 0.265 0 0.1 0.265 0 0 0.27 0 0.02 0.27 0 0.04 0.27 0 0.06 0.27 0 0.08 0.27 0 0.1 0.27 0 0 0.275 0 0.02 0.275 0 0.04 0.275 0 0.06 0.275 0 0.08 0.275 0 0.1 0.275 0 0 0.28 0 0.02 0.28 0 0.04 0.28 0 0.06 0.28 0 0.08 0.28 0 0.1 0.28 0 0 0.285 0 0.02 0.285 0 0.04 0.285 0 0.06 0.285 0 0.08 0.285 0 0.1 0.285 0 0 0.29 0 0.02 0.29 0 0.04 0.29 0 0.06 0.29 0 0.08 0.29 0 0.1 0.29 0 0 0.295 0 0.02 0.295 0 0.04 0.295 0 0.06 0.295 0 0.08 0.295 0 0.1 0.295 0 0 0.3 0 0.02 0.3 0 0.04 0.3 0 0.06 0.3 0 0.08 0.3 0 0.1 0.3 0 0 0.305 0 0.02 0.305 0 0.04 0.305 0 0.06 0.305 0 0.08 0.305 0 0.1 0.305 0 0 0.31 0 0.02 0.31 0 0.04 0.31 0 0.06 0.31 0 0.08 0.31 0 0.1 0.31 0 0 0.315 0 0.02 0.315 0 0.04 0.315 0 0.06 0.315 0 0.08 0.315 0 0.1 0.315 0 0 0.32 0 0.02 0.32 0 0.04 0.32 0 0.06 0.32 0 0.08 0.32 0 0.1 0.32 0 0 0.325 0 0.02 0.325 0 0.04 0.325 0 0.06 0.325 0 0.08 0.325 0 0.1 0.325 0 0 0.33 0 0.02 0.33 0 0.04 0.33 0 0.06 0.33 0 0.08 0.33 0 0.1 0.33 0 0 0.335 0 0.02 0.335 0 0.04 0.335 0 0.06 0.335 0 0.08 0.335 0 0.1 0.335 0 0 0.34 0 0.02 0.34 0 0.04 0.34 0 0.06 0.34 0 0.08 0.34 0 0.1 0.34 0 0 0.345 0 0.02 0.345 0 0.04 0.345 0 0.06 0.345 0 0.08 0.345 0 0.1 0.345 0 0 0.35 0 0.02 0.35 0 0.04 0.35 0 0.06 0.35 0 0.08 0.35 0 0.1 0.35 0 0 0.355 0 0.02 0.355 0 0.04 0.355 0 0.06 0.355 0 0.08 0.355 0 0.1 0.355 0 0 0.36 0 0.02 0.36 0 0.04 0.36 0 0.06 0.36 0 0.08 0.36 0 0.1 0.36 0 0 0.365 0 0.02 0.365 0 0.04 0.365 0 0.06 0.365 0 0.08 0.365 0 0.1 0.365 0 0 0.37 0 0.02 0.37 0 0.04 0.37 0 0.06 0.37 0 0.08 0.37 0 0.1 0.37 0 0 0.375 0 0.02 0.375 0 0.04 0.375 0 0.06 0.375 0 0.08 0.375 0 0.1 0.375 0 0 0.38 0 0.02 0.38 0 0.04 0.38 0 0.06 0.38 0 0.08 0.38 0 0.1 0.38 0 0 0.385 0 0.02 0.385 0 0.04 0.385 0 0.06 0.385 0 0.08 0.385 0 0.1 0.385 0 0 0.39 0 0.02 0.39 0 0.04 0.39 0 0.06 0.39 0 0.08 0.39 0 0.1 0.39 0 0 0.395 0 0.02 0.395 0 0.04 0.395 0 0.06 0.395 0 0.08 0.395 0 0.1 0.395 0 0 0.4 0 0.02 0.4 0 0.04 0.4 0 0.06 0.4 0 0.08 0.4 0 0.1 0.4 0 0 0.405 0 0.02 0.405 0 0.04 0.405 0 0.06 0.405 0 0.08 0.405 0 0.1 0.405 0 0 0.41 0 0.02 0.41 0 0.04 0.41 0 0.06 0.41 0 0.08 0.41 0 0.1 0.41 0 0 0.415 0 0.02 0.415 0 0.04 0.415 0 0.06 0.415 0 0.08 0.415 0 0.1 0.415 0 0 0.42 0 0.02 0.42 0 0.04 0.42 0 0.06 0.42 0 0.08 0.42 0 0.1 0.42 0 0 0.425 0 0.02 0.425 0 0.04 0.425 0 0.06 0.425 0 0.08 0.425 0 0.1 0.425 0 0 0.43 0 0.02 0.43 0 0.04 0.43 0 0.06 0.43 0 0.08 0.43 0 0.1 0.43 0 0 0.435 0 0.02 0.435 0 0.04 0.435 0 0.06 0.435 0 0.08 0.435 0 0.1 0.435 0 0 0.44 0 0.02 0.44 0 0.04 0.44 0 0.06 0.44 0 0.08 0.44 0 0.1 0.44 0 0 0.445 0 0.02 0.445 0 0.04 0.445 0 0.06 0.445 0 0.08 0.445 0 0.1 0.445 0 0 0.45 0 0.02 0.45 0 0.04 0.45 0 0.06 0.45 0 0.08 0.45 0 0.1 0.45 0 0 0.455 0 0.02 0.455 0 0.04 0.455 0 0.06 0.455 0 0.08 0.455 0 0.1 0.455 0 0 0.46 0 0.02 0.46 0 0.04 0.46 0 0.06 0.46 0 0.08 0.46 0 0.1 0.46 0 0 0.465 0 0.02 0.465 0 0.04 0.465 0 0.06 0.465 0 0.08 0.465 0 0.1 0.465 0 0 0.47 0 0.02 0.47 0 0.04 0.47 0 0.06 0.47 0 0.08 0.47 0 0.1 0.47 0 0 0.475 0 0.02 0.475 0 0.04 0.475 0 0.06 0.475 0 0.08 0.475 0 0.1 0.475 0 0 0.48 0 0.02 0.48 0 0.04 0.48 0 0.06 0.48 0 0.08 0.48 0 0.1 0.48 0 0 0.485 0 0.02 0.485 0 0.04 0.485 0 0.06 0.485 0 0.08 0.485 0 0.1 0.485 0 0 0.49 0 0.02 0.49 0 0.04 0.49 0 0.06 0.49 0 0.08 0.49 0 0.1 0.49 0 0 0.495 0 0.02 0.495 0 0.04 0.495 0 0.06 0.495 0 0.08 0.495 0 0.1 0.495 0 0 0.5 0 0.02 0.5 0 0.04 0.5 0 0.06 0.5 0 0.08 0.5 0 0.1 0.5 0 0 0.505 0 0.02 0.505 0 0.04 0.505 0 0.06 0.505 0 0.08 0.505 0 0.1 0.505 0 0 0.51 0 0.02 0.51 0 0.04 0.51 0 0.06 0.51 0 0.08 0.51 0 0.1 0.51 0 0 0.515 0 0.02 0.515 0 0.04 0.515 0 0.06 0.515 0 0.08 0.515 0 0.1 0.515 0 0 0.52 0 0.02 0.52 0 0.04 0.52 0 0.06 0.52 0 0.08 0.52 0 0.1 0.52 0 0 0.525 0 0.02 0.525 0 0.04 0.525 0 0.06 0.525 0 0.08 0.525 0 0.1 0.525 0 0 0.53 0 0.02 0.53 0 0.04 0.53 0 0.06 0.53 0 0.08 0.53 0 0.1 0.53 0 0 0.535 0 0.02 0.535 0 0.04 0.535 0 0.06 0.535 0 0.08 0.535 0 0.1 0.535 0 0 0.54 0 0.02 0.54 0 0.04 0.54 0 0.06 0.54 0 0.08 0.54 0 0.1 0.54 0 0 0.545 0 0.02 0.545 0 0.04 0.545 0 0.06 0.545 0 0.08 0.545 0 0.1 0.545 0 0 0.55 0 0.02 0.55 0 0.04 0.55 0 0.06 0.55 0 0.08 0.55 0 0.1 0.55 0 0 0.555 0 0.02 0.555 0 0.04 0.555 0 0.06 0.555 0 0.08 0.555 0 0.1 0.555 0 0 0.56 0 0.02 0.56 0 0.04 0.56 0 0.06 0.56 0 0.08 0.56 0 0.1 0.56 0 0 0.565 0 0.02 0.565 0 0.04 0.565 0 0.06 0.565 0 0.08 0.565 0 0.1 0.565 0 0 0.57 0 0.02 0.57 0 0.04 0.57 0 0.06 0.57 0 0.08 0.57 0 0.1 0.57 0 0 0.575 0 0.02 0.575 0 0.04 0.575 0 0.06 0.575 0 0.08 0.575 0 0.1 0.575 0 0 0.58 0 0.02 0.58 0 0.04 0.58 0 0.06 0.58 0 0.08 0.58 0 0.1 0.58 0 0 0.585 0 0.02 0.585 0 0.04 0.585 0 0.06 0.585 0 0.08 0.585 0 0.1 0.585 0 0 0.59 0 0.02 0.59 0 0.04 0.59 0 0.06 0.59 0 0.08 0.59 0 0.1 0.59 0 0 0.595 0 0.02 0.595 0 0.04 0.595 0 0.06 0.595 0 0.08 0.595 0 0.1 0.595 0 0 0.6 0 0.02 0.6 0 0.04 0.6 0 0.06 0.6 0 0.08 0.6 0 0.1 0.6 0 0 0.605 0 0.02 0.605 0 0.04 0.605 0 0.06 0.605 0 0.08 0.605 0 0.1 0.605 0 0 0.61 0 0.02 0.61 0 0.04 0.61 0 0.06 0.61 0 0.08 0.61 0 0.1 0.61 0 0 0.615 0 0.02 0.615 0 0.04 0.615 0 0.06 0.615 0 0.08 0.615 0 0.1 0.615 0 0 0.62 0 0.02 0.62 0 0.04 0.62 0 0.06 0.62 0 0.08 0.62 0 0.1 0.62 0 0 0.625 0 0.02 0.625 0 0.04 0.625 0 0.06 0.625 0 0.08 0.625 0 0.1 0.625 0 0 0.63 0 0.02 0.63 0 0.04 0.63 0 0.06 0.63 0 0.08 0.63 0 0.1 0.63 0 0 0.635 0 0.02 0.635 0 0.04 0.635 0 0.06 0.635 0 0.08 0.635 0 0.1 0.635 0 0 0.64 0 0.02 0.64 0 0.04 0.64 0 0.06 0.64 0 0.08 0.64 0 0.1 0.64 0 0 0.645 0 0.02 0.645 0 0.04 0.645 0 0.06 0.645 0 0.08 0.645 0 0.1 0.645 0 0 0.65 0 0.02 0.65 0 0.04 0.65 0 0.06 0.65 0 0.08 0.65 0 0.1 0.65 0 0 0.655 0 0.02 0.655 0 0.04 0.655 0 0.06 0.655 0 0.08 0.655 0 0.1 0.655 0 0 0.66 0 0.02 0.66 0 0.04 0.66 0 0.06 0.66 0 0.08 0.66 0 0.1 0.66 0 0 0.665 0 0.02 0.665 0 0.04 0.665 0 0.06 0.665 0 0.08 0.665 0 0.1 0.665 0 0 0.67 0 0.02 0.67 0 0.04 0.67 0 0.06 0.67 0 0.08 0.67 0 0.1 0.67 0 0 0.675 0 0.02 0.675 0 0.04 0.675 0 0.06 0.675 0 0.08 0.675 0 0.1 0.675 0 0 0.68 0 0.02 0.68 0 0.04 0.68 0 0.06 0.68 0 0.08 0.68 0 0.1 0.68 0 0 0.685 0 0.02 0.685 0 0.04 0.685 0 0.06 0.685 0 0.08 0.685 0 0.1 0.685 0 0 0.69 0 0.02 0.69 0 0.04 0.69 0 0.06 0.69 0 0.08 0.69 0 0.1 
[...]
			<PointData Scalars="VitesseX">
				<DataArray Name="VitesseX" type="Float32" format="ascii">
 0 -2.65852e-15 -2.05923e-15 1.37122e-14 2.06713e-14 0 0 3.02608e-15 -1.10471e-14 2.41975e-14 1.48428e-14 0 0 -7.17411e-15 7.76253e-15 5.30445e-15 3.23083e-14 0 0 -1.72002e-15 -1.89422e-16 1.77753e-14 3.18787e-14 0 0 1.33918e-14 -1.66052e-14 4.26919e-14 1.92676e-14 0 0 -1.20362e-14 3.26634e-14 1.64808e-14 3.1645e-14 0 0 -2.57221e-14 6.32047e-14 7.94434e-15 3.92835e-14 0 0 6.14123e-15 1.57774e-14 8.03347e-14 -2.90752e-15 0 0 4.88293e-15 2.19344e-14 9.5699e-14 -5.87954e-15 0 0 2.16183e-14 2.35519e-14 8.76511e-14 9.58775e-15 0 0 6.96804e-14 -1.15361e-14 1.03415e-13 -8.3059e-15 0 0 4.81034e-14 5.77603e-14 1.67246e-14 3.09101e-14 0 0 6.45623e-14 3.04174e-14 4.96475e-14 4.35153e-15 0 0 6.02306e-14 3.34276e-14 5.84966e-14 -1.95074e-14 0 0 5.30197e-14 5.57473e-14 5.94529e-15 2.32694e-14 0 0 6.11911e-14 3.93384e-14 1.44042e-14 2.96441e-14 0 0 5.98518e-14 3.24324e-14 6.55948e-14 -3.96635e-14 0 0 9.25738e-14 -7.27344e-16 9.45456e-14 -9.04389e-14 0 0 8.73287e-14 2.07923e-14 4.51227e-14 -4.75981e-14 0 0 3.4661e-14 8.29502e-14 -2.99208e-14 1.59022e-14 0 0 -7.66298e-15 1.08832e-13 -7.67066e-14 5.3854e-14 0 0 8.37926e-15 4.65815e-14 -5.64991e-14 6.49126e-14 0 0 3.76297e-14 -6.34062e-14 6.63029e-14 -1.46204e-14 0 0 -8.28026e-15 -4.62436e-14 5.09491e-14 1.21778e-14 0 0 -5.37237e-14 6.91505e-15 -1.04824e-14 7.78606e-14 0 0 -2.98443e-14 -5.56457e-14 7.2361e-14 3.40878e-14 0 0 3.27481e-14 -1.40437e-13 1.03783e-13 5.55868e-14 0 0 2.16681e-14 -8.64328e-14 -1.31179e-14 1.68317e-13 0 0 -1.87905e-14 -5.93616e-15 -9.54859e-14 2.17575e-13 0 0 3.70254e-14 -1.14012e-13 4.5676e-14 1.09882e-13 0 0 3.1622e-14 -1.34058e-13 1.06369e-13 9.79449e-15 0 0 1.83757e-14 -9.66473e-14 8.28512e-14 -5.33951e-14 0 0 -9.3306e-15 -1.44619e-14 -4.9739e-15 -5.0899e-14 0 0 -6.19676e-14 6.84753e-14 -4.69313e-14 -5.23074e-14 0 0 -5.39022e-14 5.08098e-14 -2.16081e-14 -3.96116e-14 0 0 5.28104e-14 -1.04803e-13 8.30142e-14 -3.15673e-14 0 0 1.50598e-13 -2.41121e-13 1.81096e-13 -2.04068e-14 0 0 1.71261e-14 -4.39203e-14 5.87075e-14 7.46262e-14 0 0 -3.38496e-14 -2.12579e-14 1.30383e-13 -1.13024e-14 0 0 -1.11282e-14 -7.26686e-14 1.6299e-13 -7.67894e-14 0 0 -9.73295e-14 1.02239e-13 -3.65274e-14 2.70114e-14 0 0 -1.17437e-13 8.52425e-14 5.70576e-14 -3.23194e-14 0 0 -1.00282e-13 1.0423e-13 1.03596e-14 5.34248e-14 0 0 -4.67256e-14 1.58782e-13 -1.14058e-13 1.59717e-13 0 0 7.76084e-14 -2.16632e-14 1.38915e-13 -2.31446e-14 0 0 4.59543e-14 6.34996e-14 4.69607e-14 1.98822e-14 0 0 7.45925e-14 8.72107e-14 -2.46149e-14 1.44403e-14 0 0 3.2412e-14 1.98648e-13 -1.57009e-13 6.63215e-14 0 0 4.24949e-14 2.16524e-13 -2.78715e-13 1.46895e-13 0 0 3.20065e-13 -1.67322e-13 -9.46719e-14 7.37364e-14 0 0 4.67246e-13 -4.37048e-13 1.14294e-13 -6.39669e-15 0 0 2.98541e-13 -2.69903e-13 1.00811e-13 -1.29431e-13 0 0 -4.4669e-14 3.05386e-13 -4.35388e-13 1.18952e-13 0 0 9.91914e-14 1.23309e-13 -2.26824e-13 -1.57982e-14 0 0 3.71913e-13 -2.86799e-13 2.13765e-13 -3.54632e-13 0 0 2.92624e-13 -9.02664e-14 -3.96807e-14 -1.93897e-13 0 0 2.05481e-13 7.38441e-14 -1.0824e-13 -2.11644e-13 0 0 2.85907e-13 -4.67176e-14 1.02716e-14 -2.84488e-13 0 0 3.01521e-13 -6.41188e-14 -1.07696e-13 -1.09192e-13 0 0 2.48821e-13 2.40033e-16 -2.02876e-13 -1.06921e-13 0 0 1.58437e-13 1.42062e-13 -2.58603e-13 -2.10141e-13 0 0 1.2002e-13 1.6981e-13 -1.36992e-13 -3.81943e-13 0 0 1.28278e-13 1.00459e-13 -1.78153e-14 -4.49579e-13 0 0 1.14215e-13 1.00115e-13 -2.67531e-14 -3.50953e-13 0 0 1.78727e-13 5.00912e-14 5.38301e-14 -3.41003e-13 0 0 1.51882e-13 2.54763e-13 -1.37923e-13 -1.51945e-13 0 0 2.05292e-13 3.38225e-13 -2.30964e-13 8.90045e-15 0 0 4.18031e-13 1.14452e-13 -8.29492e-14 2.16779e-14 0 0 5.0895e-13 4.54336e-14 -1.0017e-13 1.29319e-13 0 0 4.20064e-13 1.57683e-13 -1.99443e-13 2.88868e-13 0 0 4.17464e-13 1.42071e-13 -1.24459e-13 2.76061e-13 0 0 3.07142e-13 3.13429e-13 -2.15815e-13 3.5875e-13 0 0 8.46636e-14 5.03191e-13 -1.88638e-13 4.24348e-13 0 0 1.85294e-14 4.41032e-13 2.28473e-13 2.67955e-13 0 0 2.045e-13 4.79202e-13 5.54279e-13 4.16669e-13 0 0 8.54642e-13 7.30963e-13 1.41589e-12 7.86257e-13 0 0 1.93958e-12 2.88963e-12 3.09281e-12 2.05656e-12 0 0 4.6755e-12 8.45127e-12 7.45853e-12 5.30357e-12 0 0 1.14495e-11 1.83961e-11 1.81685e-11 1.14713e-11 0 0 2.27491e-11 3.67019e-11 3.62005e-11 2.23326e-11 0 0 3.93372e-11 6.40494e-11 6.2313e-11 3.79561e-11 0 0 6.15679e-11 9.73756e-11 9.53099e-11 5.68342e-11 0 0 8.60036e-11 1.34883e-10 1.29658e-10 7.71682e-11 0 0 1.10321e-10 1.71271e-10 1.61452e-10 9.54236e-11 0 0 1.32538e-10 2.02139e-10 1.87535e-10 1.08771e-10 0 0 1.49767e-10 2.25675e-10 2.04289e-10 1.16551e-10 0 0 1.6048e-10 2.39922e-10 2.11119e-10 1.17858e-10 0 0 1.65099e-10 2.4026e-10 2.07394e-10 1.11711e-10 0 0 1.5927e-10 2.28832e-10 1.94254e-10 9.93456e-11 0 0 1.4502e-10 2.04966e-10 1.6792e-10 8.31936e-11 0 0 1.18439e-10 1.67535e-10 1.32131e-10 6.28125e-11 0 0 7.89123e-11 1.14444e-10 8.61401e-11 3.74224e-11 0 0 3.1477e-11 4.97517e-11 3.52209e-11 1.31792e-11 0 0 -3.90452e-11 -3.89044e-11 -2.39013e-11 -1.51923e-11 0 0 -1.05488e-10 -1.2627e-10 -8.84886e-11 -4.38022e-11 0 0 -2.01665e-10 -2.40532e-10 -1.5677e-10 -7.13816e-11 0 0 -3.03673e-10 -3.57873e-10 -2.28987e-10 -9.63626e-11 0 0 -4.06035e-10 -4.80751e-10 -3.02846e-10 -1.16376e-10 0 0 -5.20047e-10 -6.22084e-10 -3.7377e-10 -1.23817e-10 0 0 -6.93675e-10 -7.73286e-10 -3.99043e-10 -1.93494e-10 0 0 -2.71848e-09 -1.32599e-10 1.30057e-09 -2.585e-09 0 0 -1.88634e-09 -4.16097e-10 4.50311e-10 -1.43261e-09 0 0 2.19372e-09 -2.2277e-09 -3.04899e-09 3.66569e-09 0 0 2.14235e-09 -2.41697e-09 -2.52762e-09 3.18841e-09 0 0 9.31066e-10 -1.77872e-09 -4.61242e-10 4.0172e-10 0 0 -8.68954e-10 3.04763e-10 1.0972e-09 -2.42158e-09 0 0 -8.25792e-10 9.17022e-10 1.252e-10 -1.64469e-09 0 0 -1.75923e-10 5.94537e-10 -1.2051e-09 2.7113e-10 0 0 -3.25121e-10 3.66001e-11 -8.77618e-10 8.76246e-11 0 0 -7.36022e-10 -6.76259e-10 1.31149e-09 -1.98901e-09 0 0 -6.41503e-10 -1.04341e-09 2.95891e-09 -3.41748e-09 0 0 -8.43704e-10 -3.69296e-10 2.17127e-09 -2.75276e-09 0 0 -1.11706e-09 1.62944e-09 -1.17976e-09 -2.65659e-10 0 0 -8.50922e-10 1.991e-09 -3.1463e-09 2.41294e-09 0 0 7.78572e-11 1.28052e-09 -2.82498e-09 2.48992e-09 0 0 1.47132e-09 -1.00712e-09 -1.67819e-09 1.96052e-09 0 0 2.27632e-09 -3.26461e-09 1.42027e-09 -2.20051e-11 0 0 1.89773e-09 -3.18767e-09 3.85677e-09 -2.57542e-09 0 0 2.33609e-10 -1.5428e-09 3.94612e-09 -3.38367e-09 0 0 -1.31353e-09 7.55888e-10 3.41726e-09 -3.42301e-09 0 0 -1.49552e-09 1.36975e-09 2.73303e-09 -3.23558e-09 0 0 -1.31256e-09 1.37359e-09 1.99052e-09 -2.49248e-09 0 0 -7.21703e-10 1.20586e-09 1.18773e-09 -1.38272e-09 0 0 -1.84898e-11 7.11624e-10 4.3754e-10 -3.22888e-10 0 0 4.35855e-10 3.05113e-10 -1.33305e-10 4.0849e-10 0 0 4.53108e-10 2.23248e-10 -3.44726e-10 6.01501e-10 0 0 3.26139e-10 2.0411e-10 -3.5068e-10 5.8468e-10 0 0 1.77707e-10 1.57705e-10 -2.53668e-10 4.06857e-10 0 0 1.09696e-10 3.43074e-11 -3.42853e-11 1.51038e-10 0 0 6.85396e-11 -2.80332e-11 5.96629e-11 1.51051e-11 0 0 2.59012e-11 -2.23926e-11 5.12425e-11 -3.33517e-14 0 0 2.45014e-12 -5.29386e-12 1.58746e-11 1.25504e-12 0 0 -2.17711e-12 -3.85569e-12 -2.3173e-12 -9.79051e-13 0 0 -3.44634e-12 -5.49223e-12 -6.06703e-12 -4.26933e-12 0 0 -3.37893e-12 -5.92305e-12 -6.68839e-12 -4.98913e-12 0 0 -2.57909e-12 -4.73444e-12 -5.49988e-12 -3.96788e-12 0 0 -1.5044e-12 -2.96436e-12 -3.35479e-12 -2.38122e-12 0 0 -6.29304e-13 -1.29487e-12 -1.58517e-12 -1.02829e-12 0 0 5.22648e-14 -4.00603e-13 -3.93776e-13 -3.12846e-13 0 0 2.94138e-13 1.62036e-13 4.15905e-14 4.61403e-14 0 0 4.16491e-13 3.8829e-13 1.30969e-13 2.59538e-13 0 0 5.01762e-13 3.66868e-13 2.92193e-13 2.3712e-13 0 0 3.87514e-13 5.93387e-13 1.37152e-13 3.23402e-13 0 0 4.02797e-13 6.07523e-13 4.95808e-14 3.8934e-13 0 0 5.46778e-13 3.70051e-13 2.37555e-13 2.74616e-13 0 0 5.72534e-13 3.32719e-13 2.53161e-13 2.98479e-13 0 0 4.99507e-13 4.12899e-13 1.66748e-13 4.14796e-13 0 0 3.64551e-13 5.87684e-13 2.43838e-14 4.74537e-13 0 0 3.29473e-13 6.53638e-13 -4.16215e-14 4.60744e-13 0 0 5.42213e-13 3.25438e-13 2.47181e-13 3.27251e-13 0 0 5.33e-13 3.5444e-13 2.29665e-13 3.31999e-13 0 0 4.66489e-13 4.95592e-13 1.4415e-13 3.12552e-13 0 0 4.47476e-13 5.17366e-13 2.32727e-13 1.52406e-13 0 0 4.5795e-13 5.13646e-13 3.60574e-13 -5.54831e-15 0 0 5.62952e-13 3.98887e-13 4.7605e-13 5.31815e-14 0 0 5.5055e-13 4.26155e-13 4.7819e-13 1.21332e-13 0 0 4.47702e-13 5.35164e-13 4.98323e-13 9.75767e-14 0 0 2.77106e-13 7.57419e-13 3.33856e-13 1.65476e-13 0 0 3.92109e-13 6.08585e-13 4.41331e-13 1.49377e-13 0 0 4.55838e-13 5.60961e-13 3.84222e-13 2.69678e-13 0 0 5.83139e-13 4.57071e-13 3.6093e-13 3.56231e-13 0 0 5.53864e-13 4.95141e-13 4.48924e-13 3.30024e-13 0 0 1.97247e-13 9.01332e-13 2.84465e-13 2.9548e-13 0 0 3.79515e-13 6.15263e-13 4.92333e-13 2.81662e-13 0 0 5.04057e-13 4.2428e-13 5.64755e-13 3.75898e-13 0 0 3.38113e-13 5.60866e-13 4.98508e-13 3.28542e-13 0 0 4.72793e-13 3.46629e-13 6.65843e-13 1.69005e-13 0 0 6.35878e-13 1.51829e-13 6.80654e-13 8.39249e-14 0 0 7.75913e-13 -1.32394e-13 8.6165e-13 -8.05385e-15 0 0 4.75355e-13 1.91208e-13 6.57417e-13 1.63266e-14 0 0 -9.98522e-14 8.45178e-13 2.32135e-13 1.0537e-13 0 0 -3.54971e-14 5.97827e-13 5.38964e-13 -2.37393e-14 0 0 9.75383e-14 4.45461e-13 6.79181e-13 -1.57571e-13 0 0 3.44674e-13 2.23776e-13 7.36867e-13 -2.47858e-13 0 0 4.68442e-13 1.58033e-13 4.96003e-13 3.66025e-14 0 0 3.20976e-13 2.97085e-13 4.03775e-13 1.44877e-13 0 0 3.30556e-13 3.14566e-13 3.69126e-13 2.0544e-13 0 0 1.37144e-13 6.07305e-13 -4.72274e-14 5.16983e-13 0 0 4.57785e-13 2.28713e-14 6.19664e-13 1.6536e-14 0 0 5.27943e-13 2.33336e-14 7.29411e-13 -1.19737e-13 0 0 2.33369e-13 6.14349e-13 2.13965e-13 1.66696e-13 0 0 4.1613e-13 4.85161e-13 2.80917e-13 3.03954e-14 0 0 3.47174e-13 5.08644e-13 3.53611e-13 -1.66864e-13 0 0 4.38354e-13 1.53465e-13 7.46149e-13 -3.69932e-13 0 0 2.71447e-13 3.93059e-13 2.96385e-13 4.08464e-14 0 0 2.49716e-13 5.14608e-13 -2.72005e-15 2.09915e-13 0 0 5.83501e-13 2.45478e-13 2.17828e-14 3.22456e-13 0 0 2.71649e-13 8.77643e-13 -5.85819e-13 7.4367e-13 0 0 3.39976e-13 4.92791e-13 1.3179e-13 1.93084e-13 0 0 4.3075e-13 2.26697e-13 4.04892e-13 8.50803e-15 0 0 2.86812e-13 6.18478e-13 7.39978e-16 2.61494e-13 0 0 6.80995e-13 9.15951e-14 5.41181e-13 5.68935e-14 0 0 3.37704e-13 6.01989e-13 4.23878e-15 4.24415e-13 0 0 -4.8927e-14 1.28916e-12 -8.39956e-13 1.09382e-12 0 0 4.79332e-13 6.2591e-13 -3.82766e-13 9.79525e-13 0 0 8.30953e-13 1.37011e-13 2.8141e-13 4.14964e-13 0 0 6.08229e-13 4.54539e-13 5.42774e-14 5.19133e-13 0 0 2.87143e-13 8.26033e-13 -3.29227e-13 8.3678e-13 0 0 3.95439e-13 5.21464e-13 1.43383e-14 5.8952e-13 0 0 6.53674e-13 1.06462e-13 3.0104e-13 3.63438e-13 0 0 7.70494e-13 -9.21992e-15 3.03041e-13 3.62505e-13 0
				</DataArray>
				<DataArray Name="VitesseY" type="Float32" format="ascii">