<?xml version="1.0"?>
<VTKFile type="PolyData">
	<PolyData>
		<Piece NumberOfPoints="1206" NumberOfPolys="1000">
			<Points>
				<DataArray type="Float32" NumberOfComponents="3" format="ascii">
 0 0 0 0.02 0 0 0.04 0 0 0.06 0 0 0.08 0 0 0.1 0 0 0 0.005 0 0.02 0.005 0 0.04 0.005 0 0.06 0.005 0 0.08 0.005 0 0.1 0.005 0 0 0.01 0 0.02 0.01 0 0.04 0.01 0 0.06 0.01 0 0.08 0.01 0 0.1 0.01 0 0 0.015 0 0.02 0.015 0 0.04 0.015 0 0.06 0.015 0 0.08 0.015 0 0.1 0.015 0 0 0.02 0 0.02 0.02 0 0.04 0.02 0 0.06 0.02 0 0.08 0.02 0 0.1 0.02 0 0 0.025 0 0.02 0.025 0 0.04 0.025 0 0.06 0.025 0 0.08 0.025 0 0.1 0.025 0 0 0.03 0 0.02 0.03 0 0.04 0.03 0 0.06 0.03 0 0.08 0.03 0 0.1 0.03 0 0 0.035 0 0.02 0.035 0 0.04 0.035 0 0.06 0.035 0 0.08 0.035 0 0.1 0.035 0 0 0.04 0 0.02 0.04 0 0.04 0.04 0 0.06 0.04 0 0.08 0.04 0 0.1 0.04 0 0 0.045 0 0.02 0.045 0 0.04 0.045 0 0.06 0.045 0 0.08 0.045 0 0.1 0.045 0 0 0.05 0 0.02 0.05 0 0.04 0.05 0 0.06 0.05 0 0.08 0.05 0 0.1 0.05 0 0 0.055 0 0.02 0.055 0 0.04 0.055 0 0.06 0.055 0 0.08 0.055 0 0.1 0.055 0 0 0.06 0 0.02 0.06 0 0.04 0.06 0 0.06 0.06 0 0.08 0.06 0 0.1 0.06 0 0 0.065 0 0.02 0.065 0 0.04 0.065 0 0.06 0.065 0 0.08 0.065 0 0.1 0.065 0 0 0.07 0 0.02 0.07 0 0.04 0.07 0 0.06 0.07 0 0.08 0.07 0 0.1 0.07 0 0 0.075 0 0.02 0.075 0 0.04 0.075 0 0.06 0.075 0 0.08 0.075 0 0.1 0.075 0 0 0.08 0 0.02 0.08 0 0.04 0.08 0 0.06 0.08 0 0.08 0.08 0 0.1 0.08 0 0 0.085 0 0.02 0.085 0 0.04 0.085 0 0.06 0.085 0 0.08 0.085 0 0.1 0.085 0 0 0.09 0 0.02 0.09 0 0.04 0.09 0 0.06 0.09 0 0.08 0.09 0 0.1 0.09 0 0 0.095 0 0.02 0.095 0 0.04 0.095 0 0.06 0.095 0 0.08 0.095 0 0.1 0.095 0 0 0.1 0 0.02 0.1 0 0.04 0.1 0 0.06 0.1 0 0.08 0.1 0 0.1 0.1 0 0 0.105 0 0.02 0.105 0 0.04 0.105 0 0.06 0.105 0 0.08 0.105 0 0.1 0.105 0 0 0.11 0 0.02 0.11 0 0.04 0.11 0 0.06 0.11 0 0.08 0.11 0 0.1 0.11 0 0 0.115 0 0.02 0.115 0 0.04 0.115 0 0.06 0.115 0 0.08 0.115 0 0.1 0.115 0 0 0.12 0 0.02 0.12 0 0.04 0.12 0 0.06 0.12 0 0.08 0.12 0 0.1 0.12 0 0 0.125 0 0.02 0.125 0 0.04 0.125 0 0.06 0.125 0 0.08 0.125 0 0.1 0.125 0 0 0.13 0 0.02 0.13 0 0.04 0.13 0 0.06 0.13 0 0.08 0.13 0 0.1 0.13 0 0 0.135 0 0.02 0.135 0 0.04 0.135 0 0.06 0.135 0 0.08 0.135 0 0.1 0.135 0 0 0.14 0 0.02 0.14 0 0.04 0.14 0 0.06 0.14 0 0.08 0.14 0 0.1 0.14 0 0 0.145 0 0.02 0.145 0 0.04 0.145 0 0.06 0.145 0 0.08 0.145 0 0.1 0.145 0 0 0.15 0 0.02 0.15 0 0.04 0.15 0 0.06 0.15 0 0.08 0.15 0 0.1 0.15 0 0 0.155 0 0.02 0.155 0 0.04 0.155 0 0.06 0.155 0 0.08 0.155 0 0.1 0.155 0 0 0.16 0 0.02 0.16 0 0.04 0.16 0 0.06 0.16 0 0.08 0.16 0 0.1 0.16 0 0 0.165 0 0.02 0.165 0 0.04 0.165 0 0.06 0.165 0 0.08 0.165 0 0.1 0.165 0 0 0.17 0 0.02 0.17 0 0.04 0.17 0 0.06 0.17 0 0.08 0.17 0 0.1 0.17 0 0 0.175 0 0.02 0.175 0 0.04 0.175 0 0.06 0.175 0 0.08 0.175 0 0.1 0.175 0 0 0.18 0 0.02 0.18 0 0.04 0.18 0 0.06 0.18 0 0.08 0.18 0 0.1 0.18 0 0 0.185 0 0.02 0.185 0 0.04 0.185 0 0.06 0.185 0 0.08 0.185 0 0.1 0.185 0 0 0.19 0 0.02 0.19 0 0.04 0.19 0 0.06 0.19 0 0.08 0.19 0 0.1 0.19 0 0 0.195 0 0.02 0.195 0 0.04 0.195 0 0.06 0.195 0 0.08 0.195 0 0.1 0.195 0 0 0.2 0 0.02 0.2 0 0.04 0.2 0 0.06 0.2 0 0.08 0.2 0 0.1 0.2 0 0 0.205 0 0.02 0.205 0 0.04 0.205 0 0.06 0.205 0 0.08 0.205 0 0.1 0.205 0 0 0.21 0 0.02 0.21 0 0.04 0.21 0 0.06 0.21 0 0.08 0.21 0 0.1 0.21 0 0 0.215 0 0.02 0.215 0 0.04 0.215 0 0.06 0.215 0 0.08 0.215 0 0.1 0.215 0 0 0.22 0 0.02 0.22 0 0.04 0.22 0 0.06 0.22 0 0.08 0.22 0 0.1 0.22 0 0 0.225 0 0.02 0.225 0 0.04 0.225 0 0.06 0.225 0 0.08 0.225 0 0.1 0.225 0 0 0.23 0 0.02 0.23 0 0.04 0.23 0 0.06 0.23 0 0.08 0.23 0 0.1 0.23 0 0 0.235 0 0.02 0.235 0 0.04 0.235 0 0.06 0.235 0 0.08 0.235 0 0.1 0.235 0 0 0.24 0 0.02 0.24 0 0.04 0.24 0 0.06 0.24 0 0.08 0.24 0 0.1 0.24 0 0 0.245 0 0.02 0.245 0 0.04 0.245 0 0.06 0.245 0 0.08 0.245 0 0.1 0.245 0 0 0.25 0 0.02 0.25 0 0.04 0.25 0 0.06 0.25 0 0.08 0.25 0 0.1 0.25 0 0 0.255 0 0.02 0.255 0 0.04 0.255 0 0.06 0.255 0 0.08 0.255 0 0.1 0.255 0 0 0.26 0 0.02 0.26 0 0.04 0.26 0 0.06 0.26 0 0.08 0.26 0 0.1 0.26 0 0 0.265 0 0.02 0.265 0 0.04 0.265 0 0.06 0.265 0 0.08 0.265 0 0.1 0.265 0 0 0.27 0 0.02 0.27 0 0.04 0.27 0 0.06 0.27 0 0.08 0.27 0 0.1 0.27 0 0 0.275 0 0.02 0.275 0 0.04 0.275 0 0.06 0.275 0 0.08 0.275 0 0.1 0.275 0 0 0.28 0 0.02 0.28 0 0.04 0.28 0 0.06 0.28 0 0.08 0.28 0 0.1 0.28 0 0 0.285 0 0.02 0.285 0 0.04 0.285 0 0.06 0.285 0 0.08 0.285 0 0.1 0.285 0 0 0.29 0 0.02 0.29 0 0.04 0.29 0 0.06 0.29 0 0.08 0.29 0 0.1 0.29 0 0 0.295 0 0.02 0.295 0 0.04 0.295 0 0.06 0.295 0 0.08 0.295 0 0.1 0.295 0 0 0.3 0 0.02 0.3 0 0.04 0.3 0 0.06 0.3 0 0.08 0.3 0 0.1 0.3 0 0 0.305 0 0.02 0.305 0 0.04 0.305 0 0.06 0.305 0 0.08 0.305 0 0.1 0.305 0 0 0.31 0 0.02 0.31 0 0.04 0.31 0 0.06 0.31 0 0.08 0.31 0 0.1 0.31 0 0 0.315 0 0.02 0.315 0 0.04 0.315 0 0.06 0.315 0 0.08 0.315 0 0.1 0.315 0 0 0.32 0 0.02 0.32 0 0.04 0.32 0 0.06 0.32 0 0.08 0.32 0 0.1 0.32 0 0 0.325 0 0.02 0.325 0 0.04 0.325 0 0.06 0.325 0 0.08 0.325 0 0.1 0.325 0 0 0.33 0 0.02 0.33 0 0.04 0.33 0 0.06 0.33 0 0.08 0.33 0 0.1 0.33 0 0 0.335 0 0.02 0.335 0 0.04 0.335 0 0.06 0.335 0 0.08 0.335 0 0.1 0.335 0 0 0.34 0 0.02 0.34 0 0.04 0.34 0 0.06 0.34 0 0.08 0.34 0 0.1 0.34 0 0 0.345 0 0.02 0.345 0 0.04 0.345 0 0.06 0.345 0 0.08 0.345 0 0.1 0.345 0 0 0.35 0 0.02 0.35 0 0.04 0.35 0 0.06 0.35 0 0.08 0.35 0 0.1 0.35 0 0 0.355 0 0.02 0.355 0 0.04 0.355 0 0.06 0.355 0 0.08 0.355 0 0.1 0.355 0 0 0.36 0 0.02 0.36 0 0.04 0.36 0 0.06 0.36 0 0.08 0.36 0 0.1 0.36 0 0 0.365 0 0.02 0.365 0 0.04 0.365 0 0.06 0.365 0 0.08 0.365 0 0.1 0.365 0 0 0.37 0 0.02 0.37 0 0.04 0.37 0 0.06 0.37 0 0.08 0.37 0 0.1 0.37 0 0 0.375 0 0.02 0.375 0 0.04 0.375 0 0.06 0.375 0 0.08 0.375 0 0.1 0.375 0 0 0.38 0 0.02 0.38 0 0.04 0.38 0 0.06 0.38 0 0.08 0.38 0 0.1 0.38 0 0 0.385 0 0.02 0.385 0 0.04 0.385 0 0.06 0.385 0 0.08 0.385 0 0.1 0.385 0 0 0.39 0 0.02 0.39 0 0.04 0.39 0 0.06 0.39 0 0.08 0.39 0 0.1 0.39 0 0 0.395 0 0.02 0.395 0 0.04 0.395 0 0.06 0.395 0 0.08 0.395 0 0.1 0.395 0 0 0.4 0 0.02 0.4 0 0.04 0.4 0 0.06 0.4 0 0.08 0.4 0 0.1 0.4 0 0 0.405 0 0.02 0.405 0 0.04 0.405 0 0.06 0.405 0 0.08 0.405 0 0.1 0.405 0 0 0.41 0 0.02 0.41 0 0.04 0.41 0 0.06 0.41 0 0.08 0.41 0 0.1 0.41 0 0 0.415 0 0.02 0.415 0 0.04 0.415 0 0.06 0.415 0 0.08 0.415 0 0.1 0.415 0 0 0.42 0 0.02 0.42 0 0.04 0.42 0 0.06 0.42 0 0.08 0.42 0 0.1 0.42 0 0 0.425 0 0.02 0.425 0 0.04 0.425 0 0.06 0.425 0 0.08 0.425 0 0.1 0.425 0 0 0.43 0 0.02 0.43 0 0.04 0.43 0 0.06 0.43 0 0.08 0.43 0 0.1 0.43 0 0 0.435 0 0.02 0.435 0 0.04 0.435 0 0.06 0.435 0 0.08 0.435 0 0.1 0.435 0 0 0.44 0 0.02 0.44 0 0.04 0.44 0 0.06 0.44 0 0.08 0.44 0 0.1 0.44 0 0 0.445 0 0.02 0.445 0 0.04 0.445 0 0.06 0.445 0 0.08 0.445 0 0.1 0.445 0 0 0.45 0 0.02 0.45 0 0.04 0.45 0 0.06 0.45 0 0.08 0.45 0 0.1 0.45 0 0 0.455 0 0.02 0.455 0 0.04 0.455 0 0.06 0.455 0 0.08 0.455 0 0.1 0.455 0 0 0.46 0 0.02 0.46 0 0.04 0.46 0 0.06 0.46 0 0.08 0.46 0 0.1 0.46 0 0 0.465 0 0.02 0.465 0 0.04 0.465 0 0.06 0.465 0 0.08 0.465 0 0.1 0.465 0 0 0.47 0 0.02 0.47 0 0.04 0.47 0 0.06 0.47 0 0.08 0.47 0 0.1 0.47 0 0 0.475 0 0.02 0.475 0 0.04 0.475 0 0.06 0.475 0 0.08 0.475 0 0.1 0.475 0 0 0.48 0 0.02 0.48 0 0.04 0.48 0 0.06 0.48 0 0.08 0.48 0 0.1 0.48 0 0 0.485 0 0.02 0.485 0 0.04 0.485 0 0.06 0.485 0 0.08 0.485 0 0.1 0.485 0 0 0.49 0 0.02 0.49 0 0.04 0.49 0 0.06 0.49 0 0.08 0.49 0 0.1 0.49 0 0 0.495 0 0.02 0.495 0 0.04 0.495 0 0.06 0.495 0 0.08 0.495 0 0.1 0.495 0 0 0.5 0 0.02 0.5 0 0.04 0.5 0 0.06 0.5 0 0.08 0.5 0 0.1 0.5 0 0 0.505 0 0.02 0.505 0 0.04 0.505 0 0.06 0.505 0 0.08 0.505 0 0.1 0.505 0 0 0.51 0 0.02 0.51 0 0.04 0.51 0 0.06 0.51 0 0.08 0.51 0 0.1 0.51 0 0 0.515 0 0.02 0.515 0 0.04 0.515 0 0.06 0.515 0 0.08 0.515 0 0.1 0.515 0 0 0.52 0 0.02 0.52 0 0.04 0.52 0 0.06 0.52 0 0.08 0.52 0 0.1 0.52 0 0 0.525 0 0.02 0.525 0 0.04 0.525 0 0.06 0.525 0 0.08 0.525 0 0.1 0.525 0 0 0.53 0 0.02 0.53 0 0.04 0.53 0 0.06 0.53 0 0.08 0.53 0 0.1 0.53 0 0 0.535 0 0.02 0.535 0 0.04 0.535 0 0.06 0.535 0 0.08 0.535 0 0.1 0.535 0 0 0.54 0 0.02 0.54 0 0.04 0.54 0 0.06 0.54 0 0.08 0.54 0 0.1 0.54 0 0 0.545 0 0.02 0.545 0 0.04 0.545 0 0.06 0.545 0 0.08 0.545 0 0.1 0.545 0 0 0.55 0 0.02 0.55 0 0.04 0.55 0 0.06 0.55 0 0.08 0.55 0 0.1 0.55 0 0 0.555 0 0.02 0.555 0 0.04 0.555 0 0.06 0.555 0 0.08 0.555 0 0.1 0.555 0 0 0.56 0 0.02 0.56 0 0.04 0.56 0 0.06 0.56 0 0.08 0.56 0 0.1 0.56 0 0 0.565 0 0.02 0.565 0 0.04 0.565 0 0.06 0.565 0 0.08 0.565 0 0.1 0.565 0 0 0.57 0 0.02 0.57 0 0.04 0.57 0 0.06 0.57 0 0.08 0.57 0 0.1 0.57 0 0 0.575 0 0.02 0.575 0 0.04 0.575 0 0.06 0.575 0 0.08 0.575 0 0.1 0.575 0 0 0.58 0 0.02 0.58 0 0.04 0.58 0 0.06 0.58 0 0.08 0.58 0 0.1 0.58 0 0 0.585 0 0.02 0.585 0 0.04 0.585 0 0.06 0.585 0 0.08 0.585 0 0.1 0.585 0 0 0.59 0 0.02 0.59 0 0.04 0.59 0 0.06 0.59 0 0.08 0.59 0 0.1 0.59 0 0 0.595 0 0.02 0.595 0 0.04 0.595 0 0.06 0.595 0 0.08 0.595 0 0.1 0.595 0 0 0.6 0 0.02 0.6 0 0.04 0.6 0 0.06 0.6 0 0.08 0.6 0 0.1 0.6 0 0 0.605 0 0.02 0.605 0 0.04 0.605 0 0.06 0.605 0 0.08 0.605 0 0.1 0.605 0 0 0.61 0 0.02 0.61 0 0.04 0.61 0 0.06 0.61 0 0.08 0.61 0 0.1 0.61 0 0 0.615 0 0.02 0.615 0 0.04 0.615 0 0.06 0.615 0 0.08 0.615 0 0.1 0.615 0 0 0.62 0 0.02 0.62 0 0.04 0.62 0 0.06 0.62 0 0.08 0.62 0 0.1 0.62 0 0 0.625 0 0.02 0.625 0 0.04 0.625 0 0.06 0.625 0 0.08 0.625 0 0.1 0.625 0 0 0.63 0 0.02 0.63 0 0.04 0.63 0 0.06 0.63 0 0.08 0.63 0 0.1 0.63 0 0 0.635 0 0.02 0.635 0 0.04 0.635 0 0.06 0.635 0 0.08 0.635 0 0.1 0.635 0 0 0.64 0 0.02 0.64 0 0.04 0.64 0 0.06 0.64 0 0.08 0.64 0 0.1 0.64 0 0 0.645 0 0.02 0.645 0 0.04 0.645 0 0.06 0.645 0 0.08 0.645 0 0.1 0.645 0 0 0.65 0 0.02 0.65 0 0.04 0.65 0 0.06 0.65 0 0.08 0.65 0 0.1 0.65 0 0 0.655 0 0.02 0.655 0 0.04 0.655 0 0.06 0.655 0 0.08 0.655 0 0.1 0.655 0 0 0.66 0 0.02 0.66 0 0.04 0.66 0 0.06 0.66 0 0.08 0.66 0 0.1 0.66 0 0 0.665 0 0.02 0.665 0 0.04 0.665 0 0.06 0.665 0 0.08 0.665 0 0.1 0.665 0 0 0.67 0 0.02 0.67 0 0.04 0.67 0 0.06 0.67 0 0.08 0.67 0 0.1 0.67 0 0 0.675 0 0.02 0.675 0 0.04 0.675 0 0.06 0.675 0 0.08 0.675 0 0.1 0.675 0 0 0.68 0 0.02 0.68 0 0.04 0.68 0 0.06 0.68 0 0.08 0.68 0 0.1 0.68 0 0 0.685 0 0.02 0.685 0 0.04 0.685 0 0.06 0.685 0 0.08 0.685 0 0.1 0.685 0 0 0.69 0 0.02 0.69 0 0.04 0.69 0 0.06 0.69 0 0.08 0.69 0 0.1 
[...]
			<PointData Scalars="VitesseX">
				<DataArray Name="VitesseX" type="Float32" format="ascii">
 0 -2.6687e-15 -1.04891e-14 2.375e-14 2.09691e-14 0 0 1.46764e-15 -1.49403e-14 2.87773e-14 1.8583e-14 0 0 -6.62634e-15 6.77548e-15 6.97753e-15 3.49324e-14 0 0 1.13364e-15 2.47578e-15 1.87704e-14 3.24153e-14 0 0 3.53409e-15 1.51866e-14 1.63377e-14 3.7629e-14 0 0 -2.37663e-14 6.72003e-14 -1.15858e-14 5.59873e-14 0 0 -3.54578e-14 8.90763e-14 -7.49605e-15 5.50986e-14 0 0 9.3439e-15 2.86198e-14 7.13523e-14 7.07619e-15 0 0 2.93909e-14 1.28822e-15 1.25835e-13 -3.2076e-14 0 0 3.71842e-14 1.9061e-14 9.58412e-14 -6.63816e-15 0 0 7.01065e-14 1.04623e-14 7.28279e-14 1.44276e-14 0 0 3.7749e-14 9.17862e-14 -3.5454e-14 8.47828e-14 0 0 6.85886e-14 4.52029e-14 1.48125e-15 7.10585e-14 0 0 6.18863e-14 4.92269e-14 1.62881e-14 4.64663e-14 0 0 3.50869e-14 8.90292e-14 -1.66673e-14 3.81181e-14 0 0 6.88341e-14 1.60867e-14 8.28742e-14 -5.28061e-14 0 0 5.44703e-14 7.65099e-14 -2.45094e-15 5.75855e-15 0 0 8.40987e-14 4.84841e-14 -5.38569e-15 4.30996e-14 0 0 8.0992e-14 8.33008e-15 5.30823e-14 8.03819e-15 0 0 2.90798e-14 4.46617e-14 1.30185e-14 3.37403e-14 0 0 3.45198e-14 1.49127e-14 8.57632e-16 7.55287e-14 0 0 5.37064e-14 -1.73738e-14 -2.48455e-14 1.21148e-13 0 0 5.68421e-14 -1.07578e-13 8.37549e-14 5.54863e-14 0 0 -5.38033e-14 -3.35353e-15 3.78597e-15 1.14735e-13 0 0 -7.34586e-14 2.19447e-14 -2.41802e-14 1.42044e-13 0 0 -3.29723e-14 -4.25159e-14 6.04602e-14 6.62533e-14 0 0 3.57654e-14 -1.27591e-13 1.09968e-13 6.7827e-14 0 0 5.00856e-14 -9.40373e-14 1.71406e-14 1.66249e-13 0 0 -8.57836e-15 1.94628e-14 -7.96555e-14 1.7122e-13 0 0 -5.41294e-15 3.86973e-14 -7.52762e-14 8.43134e-14 0 0 -7.43806e-14 1.76642e-13 -2.15684e-13 1.16279e-13 0 0 -6.31674e-14 9.68733e-14 -9.71995e-14 9.52119e-15 0 0 3.11924e-14 -7.12003e-14 7.84463e-14 -9.65513e-14 0 0 5.31156e-14 -8.35149e-14 6.24685e-14 -5.88695e-14 0 0 2.01312e-14 2.1782e-14 -6.07857e-14 8.77041e-16 0 0 -2.87555e-15 7.93955e-14 -9.03354e-14 1.24938e-15 0 0 6.1528e-15 9.63011e-15 1.75726e-14 -4.52922e-14 0 0 2.26146e-14 3.16424e-15 -1.14676e-14 1.73107e-14 0 0 5.70669e-14 -1.50171e-14 1.44436e-14 1.4996e-14 0 0 5.09562e-14 2.48735e-14 -2.14195e-14 3.4091e-14 0 0 -3.24528e-14 1.93962e-13 -1.71132e-13 1.11035e-13 0 0 -3.68864e-14 1.64619e-13 -7.66181e-15 -5.54007e-14 0 0 3.97035e-14 2.44456e-14 1.65567e-13 -1.49561e-13 0 0 7.97905e-14 2.55286e-14 7.92473e-14 -3.79581e-14 0 0 1.1246e-13 6.36906e-14 2.85047e-14 2.76266e-15 0 0 1.42373e-13 2.45551e-14 4.92845e-14 5.23464e-14 0 0 1.30483e-13 2.84926e-14 -5.72715e-15 1.45172e-13 0 0 7.87317e-15 2.24881e-13 -1.68659e-13 2.76785e-13 0 0 8.3869e-14 1.01079e-13 -4.95308e-14 2.69413e-13 0 0 4.09425e-13 -3.63359e-13 2.73157e-13 1.42474e-13 0 0 5.40011e-13 -5.27832e-13 3.01798e-13 1.54498e-13 0 0 2.92441e-13 -1.53497e-13 5.49476e-15 1.62255e-13 0 0 9.37032e-14 2.25985e-13 -3.07565e-13 1.82169e-13 0 0 2.16599e-13 8.2351e-14 -1.52429e-13 3.62609e-14 0 0 4.02405e-13 -2.29418e-13 1.98487e-13 -2.03937e-13 0 0 4.06328e-13 -1.80142e-13 1.06728e-13 -1.51319e-13 0 0 3.03776e-13 1.19139e-15 -2.31162e-14 -1.60773e-13 0 0 3.45874e-13 -8.84428e-14 7.65884e-14 -2.50549e-13 0 0 2.11272e-13 1.40115e-13 -2.61946e-13 3.87333e-14 0 0 1.90273e-13 1.74017e-13 -2.35211e-13 2.83068e-14 0 0 2.39113e-13 5.11234e-14 -2.0256e-14 -1.08904e-13 0 0 1.49288e-13 7.90124e-14 1.81054e-14 -1.05363e-13 0 0 1.21677e-13 5.83012e-15 1.34108e-13 -1.30377e-13 0 0 1.58393e-13 -6.32055e-14 1.59284e-13 -6.64934e-14 0 0 1.51554e-13 1.85422e-14 1.00142e-13 -4.75274e-14 0 0 1.98593e-13 1.58576e-13 -1.22584e-14 -4.53881e-14 0 0 2.50043e-13 2.65752e-13 -3.37918e-14 -3.14301e-14 0 0 3.78811e-13 8.06754e-14 2.44913e-13 -1.25479e-13 0 0 3.6661e-13 7.40463e-14 1.94342e-13 4.097e-14 0 0 3.19814e-13 1.26561e-13 -5.58901e-14 3.43807e-13 0 0 5.31172e-13 -1.78866e-13 2.00129e-13 2.21502e-13 0 0 4.20168e-13 6.07084e-14 8.33608e-14 2.36154e-13 0 0 1.50498e-13 4.28678e-13 -1.22976e-13 3.93848e-13 0 0 4.56399e-14 4.10779e-13 1.67201e-13 3.2891e-13 0 0 1.54828e-13 4.45908e-13 5.10336e-13 4.15491e-13 0 0 6.5726e-13 7.81559e-13 1.24259e-12 7.54029e-13 0 0 1.69636e-12 2.60046e-12 2.90731e-12 1.77856e-12 0 0 4.17997e-12 7.57275e-12 6.73543e-12 4.70972e-12 0 0 1.01881e-11 1.64939e-11 1.61026e-11 1.025e-11 0 0 2.02892e-11 3.26535e-11 3.21357e-11 1.98058e-11 0 0 3.50334e-11 5.68202e-11 5.52565e-11 3.35349e-11 0 0 5.47187e-11 8.63506e-11 8.43014e-11 5.01118e-11 0 0 7.63853e-11 1.1949e-10 1.1443e-10 6.78463e-11 0 0 9.8001e-11 1.51646e-10 1.42169e-10 8.36918e-11 0 0 1.17889e-10 1.7891e-10 1.64932e-10 9.50934e-11 0 0 1.33461e-10 1.99854e-10 1.79582e-10 1.01545e-10 0 0 1.43321e-10 2.12843e-10 1.85472e-10 1.02212e-10 0 0 1.4805e-10 2.14005e-10 1.82694e-10 9.68024e-11 0 0 1.43726e-10 2.04692e-10 1.71781e-10 8.60542e-11 0 0 1.32133e-10 1.85179e-10 1.49609e-10 7.27263e-11 0 0 1.09592e-10 1.54392e-10 1.20255e-10 5.56915e-11 0 0 7.58094e-11 1.09748e-10 8.14235e-11 3.5126e-11 0 0 3.49464e-11 5.6172e-11 4.10958e-11 1.55309e-11 0 0 -2.63261e-11 -1.99752e-11 -7.89505e-12 -7.24724e-12 0 0 -8.37727e-11 -9.39663e-11 -6.12936e-11 -3.00358e-11 0 0 -1.69779e-10 -1.92596e-10 -1.1694e-10 -5.21216e-11 0 0 -2.60605e-10 -2.89481e-10 -1.78327e-10 -7.24886e-11 0 0 -3.52892e-10 -4.12696e-10 -2.39077e-10 -9.22455e-11 0 0 -4.63354e-10 -5.12731e-10 -3.08429e-10 -9.16987e-11 0 0 -5.99039e-10 -7.34488e-10 -3.66101e-10 -1.15881e-10 0 0 -2.07757e-09 -3.10671e-10 4.77325e-10 -1.33634e-09 0 0 -1.44507e-09 -5.12853e-10 -1.83851e-10 -4.70137e-10 0 0 1.59549e-09 -1.77719e-09 -2.4379e-09 2.80969e-09 0 0 1.70613e-09 -2.09231e-09 -2.01224e-09 2.43146e-09 0 0 1.1752e-09 -1.8147e-09 -2.09659e-10 2.64728e-10 0 0 -1.29735e-10 -7.49036e-10 1.16554e-09 -1.95334e-09 0 0 -5.48081e-10 1.85927e-10 5.89495e-10 -1.61978e-09 0 0 -5.32739e-10 7.34216e-10 -3.34309e-10 -4.54824e-10 0 0 -9.13833e-10 5.68178e-10 -3.04756e-10 -3.66416e-10 0 0 -8.714e-10 -2.99617e-11 7.81926e-10 -1.57384e-09 0 0 -5.76558e-10 -9.42192e-10 2.46747e-09 -3.02224e-09 0 0 -6.39297e-10 -4.98853e-10 1.78343e-09 -2.3895e-09 0 0 -8.18556e-10 1.27955e-09 -1.6759e-09 5.7821e-10 0 0 -5.95706e-10 1.59643e-09 -3.08471e-09 2.36049e-09 0 0 3.30603e-10 7.62432e-10 -2.60264e-09 2.49541e-09 0 0 1.92458e-09 -1.37086e-09 -1.52292e-09 2.1805e-09 0 0 2.94519e-09 -3.4804e-09 7.22477e-10 1.14705e-09 0 0 2.5994e-09 -3.62674e-09 3.34704e-09 -1.33067e-09 0 0 7.39485e-10 -1.97238e-09 3.60674e-09 -2.57052e-09 0 0 -1.12497e-09 8.76051e-10 2.58882e-09 -2.3041e-09 0 0 -1.27583e-09 1.55136e-09 1.41636e-09 -1.62848e-09 0 0 -9.76404e-10 1.3764e-09 8.05872e-10 -1.00022e-09 0 0 -3.28224e-10 8.11389e-10 4.43349e-10 -4.24323e-10 0 0 3.28427e-10 1.61917e-10 1.97605e-10 1.00177e-10 0 0 6.03362e-10 -8.75688e-11 5.3624e-11 4.85202e-10 0 0 5.05055e-10 4.88547e-11 -1.64333e-10 5.14728e-10 0 0 2.51471e-10 3.10088e-10 -2.48563e-10 4.97038e-10 0 0 1.49142e-10 3.38934e-10 -2.00253e-10 4.0223e-10 0 0 1.19436e-10 2.66557e-10 -6.99147e-12 1.8327e-10 0 0 1.00073e-10 1.62189e-10 1.30124e-10 3.5181e-11 0 0 8.24896e-11 1.20724e-10 1.30836e-10 2.28526e-11 0 0 6.61638e-11 1.00326e-10 9.49098e-11 2.83174e-11 0 0 4.8579e-11 7.23085e-11 5.75734e-11 2.62968e-11 0 0 3.09477e-11 4.42247e-11 3.39999e-11 1.70769e-11 0 0 1.64933e-11 2.30475e-11 1.83332e-11 8.7485e-12 0 0 7.17871e-12 9.99781e-12 7.817e-12 3.56748e-12 0 0 2.45911e-12 3.31187e-12 2.23687e-12 1.16679e-12 0 0 6.38633e-13 7.70699e-13 2.78551e-13 2.78645e-13 0 0 2.89145e-13 1.14137e-13 5.96318e-14 3.40693e-14 0 0 2.931e-13 2.16116e-13 1.42743e-13 1.05098e-13 0 0 3.41416e-13 3.58802e-13 2.11113e-13 2.97428e-13 0 0 4.85958e-13 2.77311e-13 3.46225e-13 3.48611e-13 0 0 4.41102e-13 4.60173e-13 1.84678e-13 3.49785e-13 0 0 4.05231e-13 5.44407e-13 1.02457e-13 4.0133e-13 0 0 5.32459e-13 3.63345e-13 2.32875e-13 3.14025e-13 0 0 5.2973e-13 3.89274e-13 1.74578e-13 2.6653e-13 0 0 4.70875e-13 4.2449e-13 1.48262e-13 2.62917e-13 0 0 3.77365e-13 5.3703e-13 2.66219e-14 3.3974e-13 0 0 3.44494e-13 6.34345e-13 -1.38844e-13 4.69444e-13 0 0 5.01162e-13 4.14382e-13 9.87672e-15 4.40503e-13 0 0 4.4033e-13 4.79372e-13 -1.34997e-14 4.81305e-13 0 0 4.58804e-13 4.0723e-13 1.92389e-13 2.82429e-13 0 0 4.28219e-13 4.52636e-13 2.11629e-13 2.72624e-13 0 0 4.18687e-13 5.37669e-13 1.57258e-13 3.21132e-13 0 0 6.15387e-13 3.34382e-13 3.7271e-13 1.69466e-13 0 0 5.42326e-13 4.69357e-13 3.26886e-13 1.84584e-13 0 0 4.04132e-13 5.66087e-13 3.96263e-13 1.92659e-13 0 0 3.1798e-13 6.56231e-13 3.75256e-13 2.74996e-13 0 0 4.01776e-13 5.83619e-13 4.59788e-13 2.14704e-13 0 0 5.51666e-13 4.39869e-13 4.49761e-13 4.05833e-13 0 0 6.94633e-13 3.56433e-13 4.39189e-13 4.50655e-13 0 0 5.55457e-13 5.33923e-13 5.21765e-13 1.40737e-13 0 0 2.47374e-13 9.32084e-13 3.15366e-13 1.28764e-13 0 0 3.63159e-13 8.03881e-13 4.78083e-13 1.04787e-13 0 0 4.09131e-13 6.13742e-13 6.67586e-13 1.56145e-13 0 0 2.94295e-13 6.66307e-13 4.63083e-13 5.10278e-13 0 0 5.08274e-13 3.69589e-13 6.15926e-13 5.78668e-13 0 0 6.60768e-13 1.71304e-13 7.01065e-13 4.63779e-13 0 0 7.82739e-13 -2.01579e-14 9.26571e-13 2.18031e-13 0 0 4.9823e-13 3.33116e-13 7.54255e-13 2.53277e-13 0 0 3.66021e-14 8.46483e-13 3.55773e-13 4.72875e-13 0 0 1.36945e-13 6.29888e-13 4.64146e-13 4.92375e-13 0 0 3.94272e-14 7.58349e-13 2.83044e-13 5.62612e-13 0 0 2.7109e-13 3.81397e-13 5.59597e-13 3.54021e-13 0 0 4.61624e-13 1.34754e-13 6.86228e-13 3.39315e-13 0 0 2.73836e-13 3.52698e-13 4.86701e-13 5.54994e-13 0 0 3.03167e-13 3.01731e-13 5.0068e-13 6.44464e-13 0 0 1.71159e-13 6.15744e-13 2.0464e-13 7.14646e-13 0 0 3.38269e-13 4.23301e-13 4.35381e-13 3.90082e-13 0 0 3.6994e-13 4.28644e-13 5.18564e-13 1.95373e-13 0 0 3.91262e-13 4.79428e-13 5.32792e-13 1.45756e-13 0 0 4.85912e-13 3.00693e-13 6.72176e-13 3.05533e-14 0 0 2.60095e-13 5.38147e-13 3.65948e-13 4.74181e-14 0 0 3.34043e-13 5.22953e-13 4.47931e-13 -1.76121e-13 0 0 4.99061e-13 4.25244e-13 5.16562e-13 -2.18218e-13 0 0 4.92025e-13 4.55235e-13 4.00923e-13 -7.54789e-14 0 0 5.07875e-13 4.93009e-13 2.07636e-13 2.92349e-13 0 0 6.13512e-13 2.54982e-13 4.04363e-13 3.8368e-13 0 0 6.29392e-13 1.34603e-13 7.24376e-13 1.20048e-13 0 0 4.63755e-13 4.1186e-13 4.31155e-13 2.64738e-13 0 0 6.27882e-13 1.53408e-13 4.86113e-13 2.36598e-13 0 0 7.36052e-13 7.05941e-14 5.18165e-13 8.99622e-14 0 0 2.35155e-13 8.90185e-13 -9.74391e-14 4.26341e-13 0 0 1.6491e-13 9.50759e-13 8.84604e-14 4.36978e-13 0 0 5.1362e-13 6.46125e-13 2.36465e-13 4.66198e-13 0 0 7.62159e-13 4.78203e-13 1.25933e-13 6.21875e-13 0 0 5.4579e-13 7.22799e-13 -1.42001e-13 9.88514e-13 0 0 -8.45568e-14 1.50378e-12 -7.08007e-13 1.33438e-12 0 0 8.53313e-14 9.93137e-13 -3.42626e-14 7.24344e-13 0 0 7.09792e-13 -4.43951e-14 7.45736e-13 2.64201e-13 0 0 9.16375e-13 -3.0848e-13 8.04258e-13 2.71697e-13 0
				</DataArray>
				<DataArray Name="VitesseY" type="Float32" format="ascii">