<?xml version="1.0"?>
<VTKFile type="PolyData">
	<PolyData>
		<Piece NumberOfPoints="1206" NumberOfPolys="1000">
			<Points>
				<DataArray type="Float32" NumberOfComponents="3" format="ascii">
 0 0 0 0.02 0 0 0.04 0 0 0.06 0 0 0.08 0 0 0.1 0 0 0 0.005 0 0.02 0.005 0 0.04 0.005 0 0.06 0.005 0 0.08 0.005 0 0.1 0.005 0 0 0.01 0 0.02 0.01 0 0.04 0.01 0 0.06 0.01 0 0.08 0.01 0 0.1 0.01 0 0 0.015 0 0.02 0.015 0 0.04 0.015 0 0.06 0.015 0 0.08 0.015 0 0.1 0.015 0 0 0.02 0 0.02 0.02 0 0.04 0.02 0 0.06 0.02 0 0.08 0.02 0 0.1 0.02 0 0 0.025 0 0.02 0.025 0 0.04 0.025 0 0.06 0.025 0 0.08 0.025 0 0.1 0.025 0 0 0.03 0 0.02 0.03 0 0.04 0.03 0 0.06 0.03 0 0.08 0.03 0 0.1 0.03 0 0 0.035 0 0.02 0.035 0 0.04 0.035 0 0.06 0.035 0 0.08 0.035 0 0.1 0.035 0 0 0.04 0 0.02 0.04 0 0.04 0.04 0 0.06 0.04 0 0.08 0.04 0 0.1 0.04 0 0 0.045 0 0.02 0.045 0 0.04 0.045 0 0.06 0.045 0 0.08 0.045 0 0.1 0.045 0 0 0.05 0 0.02 0.05 0 0.04 0.05 0 0.06 0.05 0 0.08 0.05 0 0.1 0.05 0 0 0.055 0 0.02 0.055 0 0.04 0.055 0 0.06 0.055 0 0.08 0.055 0 0.1 0.055 0 0 0.06 0 0.02 0.06 0 0.04 0.06 0 0.06 0.06 0 0.08 0.06 0 0.1 0.06 0 0 0.065 0 0.02 0.065 0 0.04 0.065 0 0.06 0.065 0 0.08 0.065 0 0.1 0.065 0 0 0.07 0 0.02 0.07 0 0.04 0.07 0 0.06 0.07 0 0.08 0.07 0 0.1 0.07 0 0 0.075 0 0.02 0.075 0 0.04 0.075 0 0.06 0.075 0 0.08 0.075 0 0.1 0.075 0 0 0.08 0 0.02 0.08 0 0.04 0.08 0 0.06 0.08 0 0.08 0.08 0 0.1 0.08 0 0 0.085 0 0.02 0.085 0 0.04 0.085 0 0.06 0.085 0 0.08 0.085 0 0.1 0.085 0 0 0.09 0 0.02 0.09 0 0.04 0.09 0 0.06 0.09 0 0.08 0.09 0 0.1 0.09 0 0 0.095 0 0.02 0.095 0 0.04 0.095 0 0.06 0.095 0 0.08 0.095 0 0.1 0.095 0 0 0.1 0 0.02 0.1 0 0.04 0.1 0 0.06 0.1 0 0.08 0.1 0 0.1 0.1 0 0 0.105 0 0.02 0.105 0 0.04 0.105 0 0.06 0.105 0 0.08 0.105 0 0.1 0.105 0 0 0.11 0 0.02 0.11 0 0.04 0.11 0 0.06 0.11 0 0.08 0.11 0 0.1 0.11 0 0 0.115 0 0.02 0.115 0 0.04 0.115 0 0.06 0.115 0 0.08 0.115 0 0.1 0.115 0 0 0.12 0 0.02 0.12 0 0.04 0.12 0 0.06 0.12 0 0.08 0.12 0 0.1 0.12 0 0 0.125 0 0.02 0.125 0 0.04 0.125 0 0.06 0.125 0 0.08 0.125 0 0.1 0.125 0 0 0.13 0 0.02 0.13 0 0.04 0.13 0 0.06 0.13 0 0.08 0.13 0 0.1 0.13 0 0 0.135 0 0.02 0.135 0 0.04 0.135 0 0.06 0.135 0 0.08 0.135 0 0.1 0.135 0 0 0.14 0 0.02 0.14 0 0.04 0.14 0 0.06 0.14 0 0.08 0.14 0 0.1 0.14 0 0 0.145 0 0.02 0.145 0 0.04 0.145 0 0.06 0.145 0 0.08 0.145 0 0.1 0.145 0 0 0.15 0 0.02 0.15 0 0.04 0.15 0 0.06 0.15 0 0.08 0.15 0 0.1 0.15 0 0 0.155 0 0.02 0.155 0 0.04 0.155 0 0.06 0.155 0 0.08 0.155 0 0.1 0.155 0 0 0.16 0 0.02 0.16 0 0.04 0.16 0 0.06 0.16 0 0.08 0.16 0 0.1 0.16 0 0 0.165 0 0.02 0.165 0 0.04 0.165 0 0.06 0.165 0 0.08 0.165 0 0.1 0.165 0 0 0.17 0 0.02 0.17 0 0.04 0.17 0 0.06 0.17 0 0.08 0.17 0 0.1 0.17 0 0 0.175 0 0.02 0.175 0 0.04 0.175 0 0.06 0.175 0 0.08 0.175 0 0.1 0.175 0 0 0.18 0 0.02 0.18 0 0.04 0.18 0 0.06 0.18 0 0.08 0.18 0 0.1 0.18 0 0 0.185 0 0.02 0.185 0 0.04 0.185 0 0.06 0.185 0 0.08 0.185 0 0.1 0.185 0 0 0.19 0 0.02 0.19 0 0.04 0.19 0 0.06 0.19 0 0.08 0.19 0 0.1 0.19 0 0 0.195 0 0.02 0.195 0 0.04 0.195 0 0.06 0.195 0 0.08 0.195 0 0.1 0.195 0 0 0.2 0 0.02 0.2 0 0.04 0.2 0 0.06 0.2 0 0.08 0.2 0 0.1 0.2 0 0 0.205 0 0.02 0.205 0 0.04 0.205 0 0.06 0.205 0 0.08 0.205 0 0.1 0.205 0 0 0.21 0 0.02 0.21 0 0.04 0.21 0 0.06 0.21 0 0.08 0.21 0 0.1 0.21 0 0 0.215 0 0.02 0.215 0 0.04 0.215 0 0.06 0.215 0 0.08 0.215 0 0.1 0.215 0 0 0.22 0 0.02 0.22 0 0.04 0.22 0 0.06 0.22 0 0.08 0.22 0 0.1 0.22 0 0 0.225 0 0.02 0.225 0 0.04 0.225 0 0.06 0.225 0 0.08 0.225 0 0.1 0.225 0 0 0.23 0 0.02 0.23 0 0.04 0.23 0 0.06 0.23 0 0.08 0.23 0 0.1 0.23 0 0 0.235 0 0.02 0.235 0 0.04 0.235 0 0.06 0.235 0 0.08 0.235 0 0.1 0.235 0 0 0.24 0 0.02 0.24 0 0.04 0.24 0 0.06 0.24 0 0.08 0.24 0 0.1 0.24 0 0 0.245 0 0.02 0.245 0 0.04 0.245 0 0.06 0.245 0 0.08 0.245 0 0.1 0.245 0 0 0.25 0 0.02 0.25 0 0.04 0.25 0 0.06 0.25 0 0.08 0.25 0 0.1 0.25 0 0 0.255 0 0.02 0.255 0 0.04 0.255 0 0.06 0.255 0 0.08 0.255 0 0.1 0.255 0 0 0.26 0 0.02 0.26 0 0.04 0.26 0 0.06 0.26 0 0.08 0.26 0 0.1 0.26 0 0 0.265 0 0.02 0.265 0 0.04 0.265 0 0.06 0.265 0 0.08 0.265 0 0.1 0.265 0 0 0.27 0 0.02 0.27 0 0.04 0.27 0 0.06 0.27 0 0.08 0.27 0 0.1 0.27 0 0 0.275 0 0.02 0.275 0 0.04 0.275 0 0.06 0.275 0 0.08 0.275 0 0.1 0.275 0 0 0.28 0 0.02 0.28 0 0.04 0.28 0 0.06 0.28 0 0.08 0.28 0 0.1 0.28 0 0 0.285 0 0.02 0.285 0 0.04 0.285 0 0.06 0.285 0 0.08 0.285 0 0.1 0.285 0 0 0.29 0 0.02 0.29 0 0.04 0.29 0 0.06 0.29 0 0.08 0.29 0 0.1 0.29 0 0 0.295 0 0.02 0.295 0 0.04 0.295 0 0.06 0.295 0 0.08 0.295 0 0.1 0.295 0 0 0.3 0 0.02 0.3 0 0.04 0.3 0 0.06 0.3 0 0.08 0.3 0 0.1 0.3 0 0 0.305 0 0.02 0.305 0 0.04 0.305 0 0.06 0.305 0 0.08 0.305 0 0.1 0.305 0 0 0.31 0 0.02 0.31 0 0.04 0.31 0 0.06 0.31 0 0.08 0.31 0 0.1 0.31 0 0 0.315 0 0.02 0.315 0 0.04 0.315 0 0.06 0.315 0 0.08 0.315 0 0.1 0.315 0 0 0.32 0 0.02 0.32 0 0.04 0.32 0 0.06 0.32 0 0.08 0.32 0 0.1 0.32 0 0 0.325 0 0.02 0.325 0 0.04 0.325 0 0.06 0.325 0 0.08 0.325 0 0.1 0.325 0 0 0.33 0 0.02 0.33 0 0.04 0.33 0 0.06 0.33 0 0.08 0.33 0 0.1 0.33 0 0 0.335 0 0.02 0.335 0 0.04 0.335 0 0.06 0.335 0 0.08 0.335 0 0.1 0.335 0 0 0.34 0 0.02 0.34 0 0.04 0.34 0 0.06 0.34 0 0.08 0.34 0 0.1 0.34 0 0 0.345 0 0.02 0.345 0 0.04 0.345 0 0.06 0.345 0 0.08 0.345 0 0.1 0.345 0 0 0.35 0 0.02 0.35 0 0.04 0.35 0 0.06 0.35 0 0.08 0.35 0 0.1 0.35 0 0 0.355 0 0.02 0.355 0 0.04 0.355 0 0.06 0.355 0 0.08 0.355 0 0.1 0.355 0 0 0.36 0 0.02 0.36 0 0.04 0.36 0 0.06 0.36 0 0.08 0.36 0 0.1 0.36 0 0 0.365 0 0.02 0.365 0 0.04 0.365 0 0.06 0.365 0 0.08 0.365 0 0.1 0.365 0 0 0.37 0 0.02 0.37 0 0.04 0.37 0 0.06 0.37 0 0.08 0.37 0 0.1 0.37 0 0 0.375 0 0.02 0.375 0 0.04 0.375 0 0.06 0.375 0 0.08 0.375 0 0.1 0.375 0 0 0.38 0 0.02 0.38 0 0.04 0.38 0 0.06 0.38 0 0.08 0.38 0 0.1 0.38 0 0 0.385 0 0.02 0.385 0 0.04 0.385 0 0.06 0.385 0 0.08 0.385 0 0.1 0.385 0 0 0.39 0 0.02 0.39 0 0.04 0.39 0 0.06 0.39 0 0.08 0.39 0 0.1 0.39 0 0 0.395 0 0.02 0.395 0 0.04 0.395 0 0.06 0.395 0 0.08 0.395 0 0.1 0.395 0 0 0.4 0 0.02 0.4 0 0.04 0.4 0 0.06 0.4 0 0.08 0.4 0 0.1 0.4 0 0 0.405 0 0.02 0.405 0 0.04 0.405 0 0.06 0.405 0 0.08 0.405 0 0.1 0.405 0 0 0.41 0 0.02 0.41 0 0.04 0.41 0 0.06 0.41 0 0.08 0.41 0 0.1 0.41 0 0 0.415 0 0.02 0.415 0 0.04 0.415 0 0.06 0.415 0 0.08 0.415 0 0.1 0.415 0 0 0.42 0 0.02 0.42 0 0.04 0.42 0 0.06 0.42 0 0.08 0.42 0 0.1 0.42 0 0 0.425 0 0.02 0.425 0 0.04 0.425 0 0.06 0.425 0 0.08 0.425 0 0.1 0.425 0 0 0.43 0 0.02 0.43 0 0.04 0.43 0 0.06 0.43 0 0.08 0.43 0 0.1 0.43 0 0 0.435 0 0.02 0.435 0 0.04 0.435 0 0.06 0.435 0 0.08 0.435 0 0.1 0.435 0 0 0.44 0 0.02 0.44 0 0.04 0.44 0 0.06 0.44 0 0.08 0.44 0 0.1 0.44 0 0 0.445 0 0.02 0.445 0 0.04 0.445 0 0.06 0.445 0 0.08 0.445 0 0.1 0.445 0 0 0.45 0 0.02 0.45 0 0.04 0.45 0 0.06 0.45 0 0.08 0.45 0 0.1 0.45 0 0 0.455 0 0.02 0.455 0 0.04 0.455 0 0.06 0.455 0 0.08 0.455 0 0.1 0.455 0 0 0.46 0 0.02 0.46 0 0.04 0.46 0 0.06 0.46 0 0.08 0.46 0 0.1 0.46 0 0 0.465 0 0.02 0.465 0 0.04 0.465 0 0.06 0.465 0 0.08 0.465 0 0.1 0.465 0 0 0.47 0 0.02 0.47 0 0.04 0.47 0 0.06 0.47 0 0.08 0.47 0 0.1 0.47 0 0 0.475 0 0.02 0.475 0 0.04 0.475 0 0.06 0.475 0 0.08 0.475 0 0.1 0.475 0 0 0.48 0 0.02 0.48 0 0.04 0.48 0 0.06 0.48 0 0.08 0.48 0 0.1 0.48 0 0 0.485 0 0.02 0.485 0 0.04 0.485 0 0.06 0.485 0 0.08 0.485 0 0.1 0.485 0 0 0.49 0 0.02 0.49 0 0.04 0.49 0 0.06 0.49 0 0.08 0.49 0 0.1 0.49 0 0 0.495 0 0.02 0.495 0 0.04 0.495 0 0.06 0.495 0 0.08 0.495 0 0.1 0.495 0 0 0.5 0 0.02 0.5 0 0.04 0.5 0 0.06 0.5 0 0.08 0.5 0 0.1 0.5 0 0 0.505 0 0.02 0.505 0 0.04 0.505 0 0.06 0.505 0 0.08 0.505 0 0.1 0.505 0 0 0.51 0 0.02 0.51 0 0.04 0.51 0 0.06 0.51 0 0.08 0.51 0 0.1 0.51 0 0 0.515 0 0.02 0.515 0 0.04 0.515 0 0.06 0.515 0 0.08 0.515 0 0.1 0.515 0 0 0.52 0 0.02 0.52 0 0.04 0.52 0 0.06 0.52 0 0.08 0.52 0 0.1 0.52 0 0 0.525 0 0.02 0.525 0 0.04 0.525 0 0.06 0.525 0 0.08 0.525 0 0.1 0.525 0 0 0.53 0 0.02 0.53 0 0.04 0.53 0 0.06 0.53 0 0.08 0.53 0 0.1 0.53 0 0 0.535 0 0.02 0.535 0 0.04 0.535 0 0.06 0.535 0 0.08 0.535 0 0.1 0.535 0 0 0.54 0 0.02 0.54 0 0.04 0.54 0 0.06 0.54 0 0.08 0.54 0 0.1 0.54 0 0 0.545 0 0.02 0.545 0 0.04 0.545 0 0.06 0.545 0 0.08 0.545 0 0.1 0.545 0 0 0.55 0 0.02 0.55 0 0.04 0.55 0 0.06 0.55 0 0.08 0.55 0 0.1 0.55 0 0 0.555 0 0.02 0.555 0 0.04 0.555 0 0.06 0.555 0 0.08 0.555 0 0.1 0.555 0 0 0.56 0 0.02 0.56 0 0.04 0.56 0 0.06 0.56 0 0.08 0.56 0 0.1 0.56 0 0 0.565 0 0.02 0.565 0 0.04 0.565 0 0.06 0.565 0 0.08 0.565 0 0.1 0.565 0 0 0.57 0 0.02 0.57 0 0.04 0.57 0 0.06 0.57 0 0.08 0.57 0 0.1 0.57 0 0 0.575 0 0.02 0.575 0 0.04 0.575 0 0.06 0.575 0 0.08 0.575 0 0.1 0.575 0 0 0.58 0 0.02 0.58 0 0.04 0.58 0 0.06 0.58 0 0.08 0.58 0 0.1 0.58 0 0 0.585 0 0.02 0.585 0 0.04 0.585 0 0.06 0.585 0 0.08 0.585 0 0.1 0.585 0 0 0.59 0 0.02 0.59 0 0.04 0.59 0 0.06 0.59 0 0.08 0.59 0 0.1 0.59 0 0 0.595 0 0.02 0.595 0 0.04 0.595 0 0.06 0.595 0 0.08 0.595 0 0.1 0.595 0 0 0.6 0 0.02 0.6 0 0.04 0.6 0 0.06 0.6 0 0.08 0.6 0 0.1 0.6 0 0 0.605 0 0.02 0.605 0 0.04 0.605 0 0.06 0.605 0 0.08 0.605 0 0.1 0.605 0 0 0.61 0 0.02 0.61 0 0.04 0.61 0 0.06 0.61 0 0.08 0.61 0 0.1 0.61 0 0 0.615 0 0.02 0.615 0 0.04 0.615 0 0.06 0.615 0 0.08 0.615 0 0.1 0.615 0 0 0.62 0 0.02 0.62 0 0.04 0.62 0 0.06 0.62 0 0.08 0.62 0 0.1 0.62 0 0 0.625 0 0.02 0.625 0 0.04 0.625 0 0.06 0.625 0 0.08 0.625 0 0.1 0.625 0 0 0.63 0 0.02 0.63 0 0.04 0.63 0 0.06 0.63 0 0.08 0.63 0 0.1 0.63 0 0 0.635 0 0.02 0.635 0 0.04 0.635 0 0.06 0.635 0 0.08 0.635 0 0.1 0.635 0 0 0.64 0 0.02 0.64 0 0.04 0.64 0 0.06 0.64 0 0.08 0.64 0 0.1 0.64 0 0 0.645 0 0.02 0.645 0 0.04 0.645 0 0.06 0.645 0 0.08 0.645 0 0.1 0.645 0 0 0.65 0 0.02 0.65 0 0.04 0.65 0 0.06 0.65 0 0.08 0.65 0 0.1 0.65 0 0 0.655 0 0.02 0.655 0 0.04 0.655 0 0.06 0.655 0 0.08 0.655 0 0.1 0.655 0 0 0.66 0 0.02 0.66 0 0.04 0.66 0 0.06 0.66 0 0.08 0.66 0 0.1 0.66 0 0 0.665 0 0.02 0.665 0 0.04 0.665 0 0.06 0.665 0 0.08 0.665 0 0.1 0.665 0 0 0.67 0 0.02 0.67 0 0.04 0.67 0 0.06 0.67 0 0.08 0.67 0 0.1 0.67 0 0 0.675 0 0.02 0.675 0 0.04 0.675 0 0.06 0.675 0 0.08 0.675 0 0.1 0.675 0 0 0.68 0 0.02 0.68 0 0.04 0.68 0 0.06 0.68 0 0.08 0.68 0 0.1 0.68 0 0 0.685 0 0.02 0.685 0 0.04 0.685 0 0.06 0.685 0 0.08 0.685 0 0.1 0.685 0 0 0.69 0 0.02 0.69 0 0.04 0.69 0 0.06 0.69 0 0.08 0.69 0 0.1 
[...]
			<PointData Scalars="VitesseX">
				<DataArray Name="VitesseX" type="Float32" format="ascii">
 0 4.48382e-14 6.59428e-14 5.8328e-14 2.19661e-14 0 0 3.71886e-14 7.43694e-14 4.91446e-14 2.90618e-14 0 0 4.62334e-14 5.18157e-14 6.86029e-14 1.98349e-14 0 0 3.72373e-14 6.40041e-14 5.69561e-14 1.74349e-14 0 0 2.50364e-14 9.3904e-14 1.98597e-14 3.02473e-14 0 0 5.86056e-14 4.82538e-14 5.4579e-14 6.50483e-15 0 0 7.25503e-14 3.52574e-14 6.72072e-14 -1.09333e-14 0 0 5.56496e-14 5.63138e-14 4.70036e-14 -3.0523e-16 0 0 4.60508e-14 5.55417e-14 3.27163e-14 2.65557e-14 0 0 3.80903e-14 6.1929e-14 2.40816e-14 3.10388e-14 0 0 3.06022e-14 7.31206e-14 1.52948e-14 2.49738e-14 0 0 3.26005e-14 6.86455e-14 1.45347e-14 2.72541e-14 0 0 4.50647e-14 3.5761e-14 6.61957e-14 -1.93178e-14 0 0 5.22423e-14 1.30371e-14 9.92275e-14 -4.22996e-14 0 0 3.57999e-14 3.74811e-14 6.90265e-14 -1.26583e-14 0 0 1.7725e-14 6.95045e-14 1.54063e-14 3.66349e-14 0 0 4.37233e-14 2.82157e-14 5.106e-14 2.61163e-14 0 0 6.60475e-14 -1.23193e-14 1.07255e-13 -3.22654e-14 0 0 3.98285e-14 4.59173e-14 2.16013e-14 3.08862e-14 0 0 1.78442e-14 1.12378e-13 -7.12062e-14 1.06482e-13 0 0 6.73814e-14 7.36263e-14 -7.70773e-14 1.22771e-13 0 0 1.0118e-13 4.6394e-14 -5.73296e-14 9.3545e-14 0 0 1.124e-13 9.25587e-16 7.26063e-14 -4.12449e-14 0 0 5.98072e-14 1.00953e-13 -3.45002e-14 3.64179e-14 0 0 7.31948e-14 8.90775e-14 -3.17635e-14 5.71332e-14 0 0 9.93352e-14 4.70231e-15 9.57805e-14 -1.90742e-14 0 0 5.33639e-14 4.95575e-14 8.56946e-14 -4.7067e-14 0 0 4.92805e-14 8.21919e-14 9.00241e-15 -1.97046e-14 0 0 1.41031e-14 1.58989e-13 -1.39986e-13 1.108e-13 0 0 7.35952e-14 3.64064e-14 -9.04421e-16 4.3089e-14 0 0 1.51579e-13 -1.13806e-13 1.7839e-13 -9.31589e-14 0 0 1.05465e-13 -3.58562e-14 7.24429e-14 -3.46905e-14 0 0 9.57968e-14 1.58051e-14 -1.51799e-14 -1.95137e-14 0 0 1.12132e-13 4.26243e-14 -2.60601e-14 -6.96929e-14 0 0 5.95473e-14 1.50297e-13 -1.13166e-13 2.1948e-14 0 0 7.14234e-14 8.70408e-14 -9.71525e-15 3.39636e-14 0 0 6.9098e-14 7.38036e-14 1.70676e-14 9.38831e-14 0 0 1.08974e-13 1.83951e-15 6.49119e-14 1.61626e-13 0 0 9.07879e-14 1.46195e-14 9.03586e-14 1.47955e-13 0 0 2.63442e-15 1.8209e-13 -5.81418e-14 1.75592e-13 0 0 9.02052e-14 2.0092e-14 1.35061e-13 3.11855e-14 0 0 1.90778e-13 -1.43818e-13 3.06035e-13 -7.11859e-14 0 0 1.36143e-13 2.79125e-14 4.13071e-14 8.07779e-14 0 0 6.49644e-14 1.54517e-13 -1.05746e-13 1.04355e-13 0 0 5.46406e-14 7.47199e-14 3.75806e-14 -9.36186e-15 0 0 6.92375e-15 3.96969e-14 1.06895e-13 -2.96309e-14 0 0 4.56406e-14 -7.37484e-14 2.1804e-13 -7.56172e-14 0 0 6.62597e-14 -1.42015e-13 2.99424e-13 -1.0074e-13 0 0 -5.10866e-14 5.21681e-14 8.36703e-14 9.15068e-15 0 0 -7.52366e-14 1.27451e-13 4.06335e-15 4.20357e-14 0 0 -7.02994e-14 1.91314e-13 -2.93527e-14 9.62984e-14 0 0 -8.78838e-14 2.90066e-13 -7.95325e-14 1.31855e-13 0 0 2.67294e-14 1.28692e-13 8.72076e-14 8.78105e-14 0 0 1.07991e-13 1.3356e-13 1.21107e-14 2.3418e-13 0 0 1.10643e-13 2.29927e-13 -2.83641e-14 3.27318e-13 0 0 7.66808e-14 2.22092e-13 2.05369e-13 1.7155e-13 0 0 1.08929e-13 2.08104e-13 3.68794e-13 3.19522e-14 0 0 1.22477e-13 2.32863e-13 3.30876e-13 9.87231e-14 0 0 9.10789e-14 2.60752e-13 2.45464e-13 2.2158e-13 0 0 2.0282e-13 9.06308e-14 4.22962e-13 1.65138e-13 0 0 1.40209e-13 1.69717e-13 4.09685e-13 2.41213e-13 0 0 8.21102e-14 3.09622e-13 4.29345e-13 3.16729e-13 0 0 1.91911e-13 4.19506e-13 6.81487e-13 3.66386e-13 0 0 3.87356e-13 8.30342e-13 1.11772e-12 6.30942e-13 0 0 9.99762e-13 1.76762e-12 2.16968e-12 1.26791e-12 0 0 2.38036e-12 4.07736e-12 4.21003e-12 2.76526e-12 0 0 5.11147e-12 8.37321e-12 8.39361e-12 5.3742e-12 0 0 9.64965e-12 1.53058e-11 1.55932e-11 9.5481e-12 0 0 1.60458e-11 2.54496e-11 2.56935e-11 1.57683e-11 0 0 2.40938e-11 3.83329e-11 3.84343e-11 2.36945e-11 0 0 3.30777e-11 5.29884e-11 5.30034e-11 3.25563e-11 0 0 4.23442e-11 6.81177e-11 6.78389e-11 4.16339e-11 0 0 5.10527e-11 8.24374e-11 8.10915e-11 5.01766e-11 0 0 5.85967e-11 9.40501e-11 9.25534e-11 5.67889e-11 0 0 6.41824e-11 1.02449e-10 1.00886e-10 6.15313e-11 0 0 6.73092e-11 1.07634e-10 1.05214e-10 6.43901e-11 0 0 6.83574e-11 1.07696e-10 1.06345e-10 6.38169e-11 0 0 6.61774e-11 1.03863e-10 1.02134e-10 6.15769e-11 0 0 6.10678e-11 9.61529e-11 9.33975e-11 5.71938e-11 0 0 5.26189e-11 8.39962e-11 8.03847e-11 5.02971e-11 0 0 4.20762e-11 6.57932e-11 6.52656e-11 3.98015e-11 0 0 2.79055e-11 4.46281e-11 4.53035e-11 2.83879e-11 0 0 1.09021e-11 1.97761e-11 2.21293e-11 1.53819e-11 0 0 -9.08201e-12 -8.11889e-12 -4.50131e-12 1.18444e-12 0 0 -3.0358e-11 -4.03213e-11 -3.14221e-11 -1.5087e-11 0 0 -5.43742e-11 -7.59758e-11 -6.20211e-11 -3.17625e-11 0 0 -7.84985e-11 -1.12547e-10 -9.31892e-11 -4.89608e-11 0 0 -1.06417e-10 -1.53031e-10 -1.27658e-10 -6.71568e-11 0 0 -1.33863e-10 -1.92558e-10 -1.63049e-10 -8.53404e-11 0 0 -1.62925e-10 -2.34546e-10 -1.9945e-10 -1.03724e-10 0 0 -1.92293e-10 -2.77108e-10 -2.36836e-10 -1.2359e-10 0 0 -2.20983e-10 -3.19379e-10 -2.7394e-10 -1.44399e-10 0 0 -2.48748e-10 -3.61462e-10 -3.1094e-10 -1.65447e-10 0 0 -2.75443e-10 -4.02791e-10 -3.48005e-10 -1.86799e-10 0 0 -3.00367e-10 -4.4252e-10 -3.84803e-10 -2.08828e-10 0 0 -3.19731e-10 -4.80502e-10 -4.21809e-10 -2.27484e-10 0 0 -3.4511e-10 -5.09319e-10 -4.55752e-10 -2.53799e-10 0 0 -2.89568e-10 -5.80478e-10 -5.34018e-10 -1.99273e-10 0 0 1.41936e-09 -1.54626e-09 -2.0628e-09 1.85078e-09 0 0 -7.10969e-09 3.37869e-09 3.74428e-09 -7.39297e-09 0 0 -8.0326e-09 3.71281e-09 4.97616e-09 -9.10373e-09 0 0 6.42694e-09 -4.0303e-09 -6.04876e-09 7.37272e-09 0 0 1.40105e-08 -9.11467e-09 -8.99669e-09 1.37057e-08 0 0 8.12051e-09 -6.77596e-09 -7.28196e-10 4.30366e-09 0 0 -5.43975e-09 2.29967e-09 4.06891e-09 -5.64567e-09 0 0 -7.13069e-09 6.81433e-09 4.51572e-10 -3.58957e-09 0 0 -5.6395e-09 6.01283e-09 -1.37923e-09 -1.81329e-09 0 0 -5.24903e-09 5.46552e-09 -6.02605e-10 -2.70194e-09 0 0 -7.76847e-09 4.39466e-09 6.49225e-09 -1.04644e-08 0 0 -8.26327e-09 3.39105e-09 9.79442e-09 -1.32035e-08 0 0 -5.83718e-09 2.41684e-09 6.28403e-09 -8.61478e-09 0 0 5.28985e-10 -6.43485e-11 -2.83284e-10 7.97067e-10 0 0 4.72119e-09 -1.81896e-09 -4.21932e-09 6.40531e-09 0 0 4.75683e-09 -1.83971e-09 -4.16875e-09 6.40482e-09 0 0 4.37681e-09 -1.76433e-09 -2.92869e-09 5.02585e-09 0 0 3.31641e-09 -1.44272e-09 -2.03055e-09 3.77379e-09 0 0 2.11987e-09 -1.07242e-09 -1.63293e-09 2.9725e-09 0 0 6.27807e-10 -6.46095e-10 -2.51003e-10 1.10261e-09 0 0 -7.15618e-10 -1.20885e-10 1.07842e-09 -7.85777e-10 0 0 -1.06537e-09 3.72157e-10 1.32276e-09 -1.47897e-09 0 0 -1.10451e-09 6.38886e-10 1.25395e-09 -1.44428e-09 0 0 -9.82199e-10 6.16261e-10 1.11298e-09 -1.32173e-09 0 0 -6.0079e-10 2.87672e-10 1.05803e-09 -1.12702e-09 0 0 -4.61687e-10 1.20569e-10 4.44147e-10 -2.48871e-10 0 0 -1.74418e-10 -2.48017e-11 -1.32409e-10 4.01749e-10 0 0 5.05871e-10 -1.11398e-09 1.05188e-09 -5.6995e-10 0 0 5.12809e-10 -1.69904e-09 2.75173e-09 -2.20609e-09 0 0 -2.77745e-10 -6.4946e-10 2.36811e-09 -2.13293e-09 0 0 -1.01935e-09 3.62892e-10 2.05597e-09 -2.06721e-09 0 0 -1.0543e-09 4.27318e-10 2.24333e-09 -2.31516e-09 0 0 -9.89057e-10 5.62818e-10 2.05721e-09 -2.16377e-09 0 0 -6.99902e-10 6.76663e-10 1.21941e-09 -1.36788e-09 0 0 -3.06306e-10 6.1168e-10 3.4954e-10 -4.99811e-10 0 0 4.64111e-11 3.85676e-10 2.22116e-11 6.42587e-11 0 0 3.08378e-10 1.72189e-10 -1.41214e-10 4.19098e-10 0 0 4.29048e-10 4.36362e-11 -3.02491e-10 7.10828e-10 0 0 4.09571e-10 2.1595e-11 -3.11027e-10 7.47087e-10 0 0 2.77691e-10 4.1647e-11 -1.7647e-10 5.96189e-10 0 0 1.36136e-10 8.74154e-11 1.28021e-11 3.34291e-10 0 0 5.4421e-11 1.24416e-10 1.52761e-10 1.29855e-10 0 0 2.95158e-11 1.53441e-10 2.09401e-10 5.07454e-11 0 0 2.56619e-11 1.7412e-10 2.38601e-10 1.52542e-11 0 0 3.93702e-11 1.80208e-10 2.29983e-10 2.49026e-11 0 0 7.38771e-11 1.72875e-10 2.07305e-10 5.47211e-11 0 0 9.87745e-11 1.58338e-10 1.86869e-10 8.06425e-11 0 0 1.09234e-10 1.58732e-10 1.53607e-10 1.08942e-10 0 0 1.13008e-10 1.55591e-10 1.35133e-10 1.13702e-10 0 0 1.07049e-10 1.44447e-10 1.27872e-10 1.07366e-10 0 0 8.81608e-11 1.25785e-10 1.19694e-10 8.57127e-11 0 0 6.83682e-11 1.03486e-10 1.01303e-10 6.54903e-11 0 0 5.04858e-11 7.91713e-11 7.84781e-11 4.91471e-11 0 0 3.46288e-11 5.52625e-11 5.52591e-11 3.45276e-11 0 0 2.14179e-11 3.45375e-11 3.45684e-11 2.17422e-11 0 0 1.17961e-11 1.88626e-11 1.90945e-11 1.1905e-11 0 0 5.63317e-12 8.92418e-12 9.13202e-12 5.53255e-12 0 0 2.33055e-12 3.74814e-12 3.72712e-12 2.3248e-12 0 0 9.94283e-13 1.41658e-12 1.48205e-12 1.02042e-12 0 0 5.13713e-13 6.01643e-13 6.88764e-13 5.53912e-13 0 0 3.37859e-13 3.65881e-13 5.0733e-13 3.17209e-13 0 0 2.33224e-13 3.94612e-13 3.77449e-13 2.45585e-13 0 0 2.12715e-13 3.98146e-13 2.64486e-13 3.46228e-13 0 0 2.43619e-13 2.74691e-13 3.32598e-13 4.07511e-13 0 0 1.61567e-13 3.14656e-13 4.27522e-13 1.98798e-13 0 0 1.08694e-13 4.05348e-13 4.53177e-13 8.59415e-14 0 0 1.85889e-13 3.03543e-13 5.40845e-13 1.72231e-13 0 0 2.6878e-13 2.442e-13 5.06838e-13 3.15618e-13 0 0 3.18747e-13 2.89771e-13 3.53337e-13 4.80007e-13 0 0 3.5202e-13 2.40846e-13 4.32091e-13 3.54002e-13 0 0 3.84083e-13 1.5766e-13 6.19503e-13 2.16104e-13 0 0 2.96773e-13 2.74928e-13 5.73064e-13 3.57897e-13 0 0 1.64164e-13 5.51634e-13 2.18893e-13 6.86028e-13 0 0 3.22184e-13 3.59705e-13 3.7081e-13 6.62238e-13 0 0 4.16755e-13 2.62636e-13 4.38123e-13 6.65121e-13 0 0 3.17216e-13 4.98582e-13 1.92933e-13 7.3193e-13 0 0 3.55224e-13 4.09145e-13 4.27187e-13 3.61583e-13 0 0 3.94491e-13 3.53274e-13 5.76615e-13 9.94335e-14 0 0 2.73242e-13 6.41432e-13 2.21115e-13 3.09851e-13 0 0 3.30298e-13 5.419e-13 2.96722e-13 3.01736e-13 0 0 3.74163e-13 3.90057e-13 5.27002e-13 1.44101e-13 0 0 2.13608e-13 6.88889e-13 1.68109e-13 2.99557e-13 0 0 3.96804e-13 3.88997e-13 4.83289e-13 3.75018e-14 0 0 3.51273e-13 3.05981e-13 6.29133e-13 9.40046e-14 0 0 1.44416e-13 5.35491e-13 4.14233e-13 2.72477e-13 0 0 2.02722e-13 3.76357e-13 7.39867e-13 -1.48657e-13 0 0 2.43846e-13 3.75487e-13 6.35684e-13 -1.10873e-15 0 0 3.60802e-13 3.02889e-13 3.55332e-13 4.48164e-13 0 0 3.89083e-13 1.84835e-13 5.08601e-13 3.56869e-13 0 0 1.98696e-13 4.81076e-13 2.01646e-13 5.73166e-13 0 0 2.02331e-13 5.37582e-13 4.31601e-14 7.21968e-13 0 0 4.36886e-13 1.98773e-13 3.69747e-13 4.56446e-13 0 0 4.25e-13 2.51192e-13 4.27204e-13 2.75547e-13 0 0 2.32286e-13 5.27144e-13 2.63686e-13 2.26896e-13 0 0 2.80722e-13 4.29638e-13 2.75539e-13 1.22627e-13 0 0 5.98369e-13 -2.04221e-13 9.3891e-13 -2.56533e-13 0 0 3.98569e-13 -2.48503e-14 7.09438e-13 3.52813e-14 0 0 9.77385e-14 3.16633e-13 2.48438e-13 4.06606e-13 0 0 1.63864e-13 8.95434e-14 4.47109e-13 3.16186e-13 0 0 1.34445e-14 2.95812e-13 3.5415e-13 2.46896e-13 0 0 2.34309e-14 2.91423e-13 2.22392e-13 3.78836e-13 0 0 -8.85234e-14 4.97687e-13 -1.34844e-13 6.27659e-13 0 0 -3.36884e-13 8.65648e-13 -4.12337e-13 6.65926e-13 0
				</DataArray>
				<DataArray Name="VitesseY" type="Float32" format="ascii">