<?xml version="1.0"?>
<VTKFile type="PolyData">
	<PolyData>
		<Piece NumberOfPoints="1206" NumberOfPolys="1000">
			<Points>
				<DataArray type="Float32" NumberOfComponents="3" format="ascii">
 0 0 0 0.02 0 0 0.04 0 0 0.06 0 0 0.08 0 0 0.1 0 0 0 0.005 0 0.02 0.005 0 0.04 0.005 0 0.06 0.005 0 0.08 0.005 0 0.1 0.005 0 0 0.01 0 0.02 0.01 0 0.04 0.01 0 0.06 0.01 0 0.08 0.01 0 0.1 0.01 0 0 0.015 0 0.02 0.015 0 0.04 0.015 0 0.06 0.015 0 0.08 0.015 0 0.1 0.015 0 0 0.02 0 0.02 0.02 0 0.04 0.02 0 0.06 0.02 0 0.08 0.02 0 0.1 0.02 0 0 0.025 0 0.02 0.025 0 0.04 0.025 0 0.06 0.025 0 0.08 0.025 0 0.1 0.025 0 0 0.03 0 0.02 0.03 0 0.04 0.03 0 0.06 0.03 0 0.08 0.03 0 0.1 0.03 0 0 0.035 0 0.02 0.035 0 0.04 0.035 0 0.06 0.035 0 0.08 0.035 0 0.1 0.035 0 0 0.04 0 0.02 0.04 0 0.04 0.04 0 0.06 0.04 0 0.08 0.04 0 0.1 0.04 0 0 0.045 0 0.02 0.045 0 0.04 0.045 0 0.06 0.045 0 0.08 0.045 0 0.1 0.045 0 0 0.05 0 0.02 0.05 0 0.04 0.05 0 0.06 0.05 0 0.08 0.05 0 0.1 0.05 0 0 0.055 0 0.02 0.055 0 0.04 0.055 0 0.06 0.055 0 0.08 0.055 0 0.1 0.055 0 0 0.06 0 0.02 0.06 0 0.04 0.06 0 0.06 0.06 0 0.08 0.06 0 0.1 0.06 0 0 0.065 0 0.02 0.065 0 0.04 0.065 0 0.06 0.065 0 0.08 0.065 0 0.1 0.065 0 0 0.07 0 0.02 0.07 0 0.04 0.07 0 0.06 0.07 0 0.08 0.07 0 0.1 0.07 0 0 0.075 0 0.02 0.075 0 0.04 0.075 0 0.06 0.075 0 0.08 0.075 0 0.1 0.075 0 0 0.08 0 0.02 0.08 0 0.04 0.08 0 0.06 0.08 0 0.08 0.08 0 0.1 0.08 0 0 0.085 0 0.02 0.085 0 0.04 0.085 0 0.06 0.085 0 0.08 0.085 0 0.1 0.085 0 0 0.09 0 0.02 0.09 0 0.04 0.09 0 0.06 0.09 0 0.08 0.09 0 0.1 0.09 0 0 0.095 0 0.02 0.095 0 0.04 0.095 0 0.06 0.095 0 0.08 0.095 0 0.1 0.095 0 0 0.1 0 0.02 0.1 0 0.04 0.1 0 0.06 0.1 0 0.08 0.1 0 0.1 0.1 0 0 0.105 0 0.02 0.105 0 0.04 0.105 0 0.06 0.105 0 0.08 0.105 0 0.1 0.105 0 0 0.11 0 0.02 0.11 0 0.04 0.11 0 0.06 0.11 0 0.08 0.11 0 0.1 0.11 0 0 0.115 0 0.02 0.115 0 0.04 0.115 0 0.06 0.115 0 0.08 0.115 0 0.1 0.115 0 0 0.12 0 0.02 0.12 0 0.04 0.12 0 0.06 0.12 0 0.08 0.12 0 0.1 0.12 0 0 0.125 0 0.02 0.125 0 0.04 0.125 0 0.06 0.125 0 0.08 0.125 0 0.1 0.125 0 0 0.13 0 0.02 0.13 0 0.04 0.13 0 0.06 0.13 0 0.08 0.13 0 0.1 0.13 0 0 0.135 0 0.02 0.135 0 0.04 0.135 0 0.06 0.135 0 0.08 0.135 0 0.1 0.135 0 0 0.14 0 0.02 0.14 0 0.04 0.14 0 0.06 0.14 0 0.08 0.14 0 0.1 0.14 0 0 0.145 0 0.02 0.145 0 0.04 0.145 0 0.06 0.145 0 0.08 0.145 0 0.1 0.145 0 0 0.15 0 0.02 0.15 0 0.04 0.15 0 0.06 0.15 0 0.08 0.15 0 0.1 0.15 0 0 0.155 0 0.02 0.155 0 0.04 0.155 0 0.06 0.155 0 0.08 0.155 0 0.1 0.155 0 0 0.16 0 0.02 0.16 0 0.04 0.16 0 0.06 0.16 0 0.08 0.16 0 0.1 0.16 0 0 0.165 0 0.02 0.165 0 0.04 0.165 0 0.06 0.165 0 0.08 0.165 0 0.1 0.165 0 0 0.17 0 0.02 0.17 0 0.04 0.17 0 0.06 0.17 0 0.08 0.17 0 0.1 0.17 0 0 0.175 0 0.02 0.175 0 0.04 0.175 0 0.06 0.175 0 0.08 0.175 0 0.1 0.175 0 0 0.18 0 0.02 0.18 0 0.04 0.18 0 0.06 0.18 0 0.08 0.18 0 0.1 0.18 0 0 0.185 0 0.02 0.185 0 0.04 0.185 0 0.06 0.185 0 0.08 0.185 0 0.1 0.185 0 0 0.19 0 0.02 0.19 0 0.04 0.19 0 0.06 0.19 0 0.08 0.19 0 0.1 0.19 0 0 0.195 0 0.02 0.195 0 0.04 0.195 0 0.06 0.195 0 0.08 0.195 0 0.1 0.195 0 0 0.2 0 0.02 0.2 0 0.04 0.2 0 0.06 0.2 0 0.08 0.2 0 0.1 0.2 0 0 0.205 0 0.02 0.205 0 0.04 0.205 0 0.06 0.205 0 0.08 0.205 0 0.1 0.205 0 0 0.21 0 0.02 0.21 0 0.04 0.21 0 0.06 0.21 0 0.08 0.21 0 0.1 0.21 0 0 0.215 0 0.02 0.215 0 0.04 0.215 0 0.06 0.215 0 0.08 0.215 0 0.1 0.215 0 0 0.22 0 0.02 0.22 0 0.04 0.22 0 0.06 0.22 0 0.08 0.22 0 0.1 0.22 0 0 0.225 0 0.02 0.225 0 0.04 0.225 0 0.06 0.225 0 0.08 0.225 0 0.1 0.225 0 0 0.23 0 0.02 0.23 0 0.04 0.23 0 0.06 0.23 0 0.08 0.23 0 0.1 0.23 0 0 0.235 0 0.02 0.235 0 0.04 0.235 0 0.06 0.235 0 0.08 0.235 0 0.1 0.235 0 0 0.24 0 0.02 0.24 0 0.04 0.24 0 0.06 0.24 0 0.08 0.24 0 0.1 0.24 0 0 0.245 0 0.02 0.245 0 0.04 0.245 0 0.06 0.245 0 0.08 0.245 0 0.1 0.245 0 0 0.25 0 0.02 0.25 0 0.04 0.25 0 0.06 0.25 0 0.08 0.25 0 0.1 0.25 0 0 0.255 0 0.02 0.255 0 0.04 0.255 0 0.06 0.255 0 0.08 0.255 0 0.1 0.255 0 0 0.26 0 0.02 0.26 0 0.04 0.26 0 0.06 0.26 0 0.08 0.26 0 0.1 0.26 0 0 0.265 0 0.02 0.265 0 0.04 0.265 0 0.06 0.265 0 0.08 0.265 0 0.1 0.265 0 0 0.27 0 0.02 0.27 0 0.04 0.27 0 0.06 0.27 0 0.08 0.27 0 0.1 0.27 0 0 0.275 0 0.02 0.275 0 0.04 0.275 0 0.06 0.275 0 0.08 0.275 0 0.1 0.275 0 0 0.28 0 0.02 0.28 0 0.04 0.28 0 0.06 0.28 0 0.08 0.28 0 0.1 0.28 0 0 0.285 0 0.02 0.285 0 0.04 0.285 0 0.06 0.285 0 0.08 0.285 0 0.1 0.285 0 0 0.29 0 0.02 0.29 0 0.04 0.29 0 0.06 0.29 0 0.08 0.29 0 0.1 0.29 0 0 0.295 0 0.02 0.295 0 0.04 0.295 0 0.06 0.295 0 0.08 0.295 0 0.1 0.295 0 0 0.3 0 0.02 0.3 0 0.04 0.3 0 0.06 0.3 0 0.08 0.3 0 0.1 0.3 0 0 0.305 0 0.02 0.305 0 0.04 0.305 0 0.06 0.305 0 0.08 0.305 0 0.1 0.305 0 0 0.31 0 0.02 0.31 0 0.04 0.31 0 0.06 0.31 0 0.08 0.31 0 0.1 0.31 0 0 0.315 0 0.02 0.315 0 0.04 0.315 0 0.06 0.315 0 0.08 0.315 0 0.1 0.315 0 0 0.32 0 0.02 0.32 0 0.04 0.32 0 0.06 0.32 0 0.08 0.32 0 0.1 0.32 0 0 0.325 0 0.02 0.325 0 0.04 0.325 0 0.06 0.325 0 0.08 0.325 0 0.1 0.325 0 0 0.33 0 0.02 0.33 0 0.04 0.33 0 0.06 0.33 0 0.08 0.33 0 0.1 0.33 0 0 0.335 0 0.02 0.335 0 0.04 0.335 0 0.06 0.335 0 0.08 0.335 0 0.1 0.335 0 0 0.34 0 0.02 0.34 0 0.04 0.34 0 0.06 0.34 0 0.08 0.34 0 0.1 0.34 0 0 0.345 0 0.02 0.345 0 0.04 0.345 0 0.06 0.345 0 0.08 0.345 0 0.1 0.345 0 0 0.35 0 0.02 0.35 0 0.04 0.35 0 0.06 0.35 0 0.08 0.35 0 0.1 0.35 0 0 0.355 0 0.02 0.355 0 0.04 0.355 0 0.06 0.355 0 0.08 0.355 0 0.1 0.355 0 0 0.36 0 0.02 0.36 0 0.04 0.36 0 0.06 0.36 0 0.08 0.36 0 0.1 0.36 0 0 0.365 0 0.02 0.365 0 0.04 0.365 0 0.06 0.365 0 0.08 0.365 0 0.1 0.365 0 0 0.37 0 0.02 0.37 0 0.04 0.37 0 0.06 0.37 0 0.08 0.37 0 0.1 0.37 0 0 0.375 0 0.02 0.375 0 0.04 0.375 0 0.06 0.375 0 0.08 0.375 0 0.1 0.375 0 0 0.38 0 0.02 0.38 0 0.04 0.38 0 0.06 0.38 0 0.08 0.38 0 0.1 0.38 0 0 0.385 0 0.02 0.385 0 0.04 0.385 0 0.06 0.385 0 0.08 0.385 0 0.1 0.385 0 0 0.39 0 0.02 0.39 0 0.04 0.39 0 0.06 0.39 0 0.08 0.39 0 0.1 0.39 0 0 0.395 0 0.02 0.395 0 0.04 0.395 0 0.06 0.395 0 0.08 0.395 0 0.1 0.395 0 0 0.4 0 0.02 0.4 0 0.04 0.4 0 0.06 0.4 0 0.08 0.4 0 0.1 0.4 0 0 0.405 0 0.02 0.405 0 0.04 0.405 0 0.06 0.405 0 0.08 0.405 0 0.1 0.405 0 0 0.41 0 0.02 0.41 0 0.04 0.41 0 0.06 0.41 0 0.08 0.41 0 0.1 0.41 0 0 0.415 0 0.02 0.415 0 0.04 0.415 0 0.06 0.415 0 0.08 0.415 0 0.1 0.415 0 0 0.42 0 0.02 0.42 0 0.04 0.42 0 0.06 0.42 0 0.08 0.42 0 0.1 0.42 0 0 0.425 0 0.02 0.425 0 0.04 0.425 0 0.06 0.425 0 0.08 0.425 0 0.1 0.425 0 0 0.43 0 0.02 0.43 0 0.04 0.43 0 0.06 0.43 0 0.08 0.43 0 0.1 0.43 0 0 0.435 0 0.02 0.435 0 0.04 0.435 0 0.06 0.435 0 0.08 0.435 0 0.1 0.435 0 0 0.44 0 0.02 0.44 0 0.04 0.44 0 0.06 0.44 0 0.08 0.44 0 0.1 0.44 0 0 0.445 0 0.02 0.445 0 0.04 0.445 0 0.06 0.445 0 0.08 0.445 0 0.1 0.445 0 0 0.45 0 0.02 0.45 0 0.04 0.45 0 0.06 0.45 0 0.08 0.45 0 0.1 0.45 0 0 0.455 0 0.02 0.455 0 0.04 0.455 0 0.06 0.455 0 0.08 0.455 0 0.1 0.455 0 0 0.46 0 0.02 0.46 0 0.04 0.46 0 0.06 0.46 0 0.08 0.46 0 0.1 0.46 0 0 0.465 0 0.02 0.465 0 0.04 0.465 0 0.06 0.465 0 0.08 0.465 0 0.1 0.465 0 0 0.47 0 0.02 0.47 0 0.04 0.47 0 0.06 0.47 0 0.08 0.47 0 0.1 0.47 0 0 0.475 0 0.02 0.475 0 0.04 0.475 0 0.06 0.475 0 0.08 0.475 0 0.1 0.475 0 0 0.48 0 0.02 0.48 0 0.04 0.48 0 0.06 0.48 0 0.08 0.48 0 0.1 0.48 0 0 0.485 0 0.02 0.485 0 0.04 0.485 0 0.06 0.485 0 0.08 0.485 0 0.1 0.485 0 0 0.49 0 0.02 0.49 0 0.04 0.49 0 0.06 0.49 0 0.08 0.49 0 0.1 0.49 0 0 0.495 0 0.02 0.495 0 0.04 0.495 0 0.06 0.495 0 0.08 0.495 0 0.1 0.495 0 0 0.5 0 0.02 0.5 0 0.04 0.5 0 0.06 0.5 0 0.08 0.5 0 0.1 0.5 0 0 0.505 0 0.02 0.505 0 0.04 0.505 0 0.06 0.505 0 0.08 0.505 0 0.1 0.505 0 0 0.51 0 0.02 0.51 0 0.04 0.51 0 0.06 0.51 0 0.08 0.51 0 0.1 0.51 0 0 0.515 0 0.02 0.515 0 0.04 0.515 0 0.06 0.515 0 0.08 0.515 0 0.1 0.515 0 0 0.52 0 0.02 0.52 0 0.04 0.52 0 0.06 0.52 0 0.08 0.52 0 0.1 0.52 0 0 0.525 0 0.02 0.525 0 0.04 0.525 0 0.06 0.525 0 0.08 0.525 0 0.1 0.525 0 0 0.53 0 0.02 0.53 0 0.04 0.53 0 0.06 0.53 0 0.08 0.53 0 0.1 0.53 0 0 0.535 0 0.02 0.535 0 0.04 0.535 0 0.06 0.535 0 0.08 0.535 0 0.1 0.535 0 0 0.54 0 0.02 0.54 0 0.04 0.54 0 0.06 0.54 0 0.08 0.54 0 0.1 0.54 0 0 0.545 0 0.02 0.545 0 0.04 0.545 0 0.06 0.545 0 0.08 0.545 0 0.1 0.545 0 0 0.55 0 0.02 0.55 0 0.04 0.55 0 0.06 0.55 0 0.08 0.55 0 0.1 0.55 0 0 0.555 0 0.02 0.555 0 0.04 0.555 0 0.06 0.555 0 0.08 0.555 0 0.1 0.555 0 0 0.56 0 0.02 0.56 0 0.04 0.56 0 0.06 0.56 0 0.08 0.56 0 0.1 0.56 0 0 0.565 0 0.02 0.565 0 0.04 0.565 0 0.06 0.565 0 0.08 0.565 0 0.1 0.565 0 0 0.57 0 0.02 0.57 0 0.04 0.57 0 0.06 0.57 0 0.08 0.57 0 0.1 0.57 0 0 0.575 0 0.02 0.575 0 0.04 0.575 0 0.06 0.575 0 0.08 0.575 0 0.1 0.575 0 0 0.58 0 0.02 0.58 0 0.04 0.58 0 0.06 0.58 0 0.08 0.58 0 0.1 0.58 0 0 0.585 0 0.02 0.585 0 0.04 0.585 0 0.06 0.585 0 0.08 0.585 0 0.1 0.585 0 0 0.59 0 0.02 0.59 0 0.04 0.59 0 0.06 0.59 0 0.08 0.59 0 0.1 0.59 0 0 0.595 0 0.02 0.595 0 0.04 0.595 0 0.06 0.595 0 0.08 0.595 0 0.1 0.595 0 0 0.6 0 0.02 0.6 0 0.04 0.6 0 0.06 0.6 0 0.08 0.6 0 0.1 0.6 0 0 0.605 0 0.02 0.605 0 0.04 0.605 0 0.06 0.605 0 0.08 0.605 0 0.1 0.605 0 0 0.61 0 0.02 0.61 0 0.04 0.61 0 0.06 0.61 0 0.08 0.61 0 0.1 0.61 0 0 0.615 0 0.02 0.615 0 0.04 0.615 0 0.06 0.615 0 0.08 0.615 0 0.1 0.615 0 0 0.62 0 0.02 0.62 0 0.04 0.62 0 0.06 0.62 0 0.08 0.62 0 0.1 0.62 0 0 0.625 0 0.02 0.625 0 0.04 0.625 0 0.06 0.625 0 0.08 0.625 0 0.1 0.625 0 0 0.63 0 0.02 0.63 0 0.04 0.63 0 0.06 0.63 0 0.08 0.63 0 0.1 0.63 0 0 0.635 0 0.02 0.635 0 0.04 0.635 0 0.06 0.635 0 0.08 0.635 0 0.1 0.635 0 0 0.64 0 0.02 0.64 0 0.04 0.64 0 0.06 0.64 0 0.08 0.64 0 0.1 0.64 0 0 0.645 0 0.02 0.645 0 0.04 0.645 0 0.06 0.645 0 0.08 0.645 0 0.1 0.645 0 0 0.65 0 0.02 0.65 0 0.04 0.65 0 0.06 0.65 0 0.08 0.65 0 0.1 0.65 0 0 0.655 0 0.02 0.655 0 0.04 0.655 0 0.06 0.655 0 0.08 0.655 0 0.1 0.655 0 0 0.66 0 0.02 0.66 0 0.04 0.66 0 0.06 0.66 0 0.08 0.66 0 0.1 0.66 0 0 0.665 0 0.02 0.665 0 0.04 0.665 0 0.06 0.665 0 0.08 0.665 0 0.1 0.665 0 0 0.67 0 0.02 0.67 0 0.04 0.67 0 0.06 0.67 0 0.08 0.67 0 0.1 0.67 0 0 0.675 0 0.02 0.675 0 0.04 0.675 0 0.06 0.675 0 0.08 0.675 0 0.1 0.675 0 0 0.68 0 0.02 0.68 0 0.04 0.68 0 0.06 0.68 0 0.08 0.68 0 0.1 0.68 0 0 0.685 0 0.02 0.685 0 0.04 0.685 0 0.06 0.685 0 0.08 0.685 0 0.1 0.685 0 0 0.69 0 0.02 0.69 0 0.04 0.69 0 0.06 0.69 0 0.08 0.69 0 0.1 
[...]
			<PointData Scalars="VitesseX">
				<DataArray Name="VitesseX" type="Float32" format="ascii">
 0 3.71119e-14 4.29881e-14 4.03422e-14 3.06394e-14 0 0 4.05578e-14 3.74665e-14 4.6052e-14 2.69299e-14 0 0 3.61579e-14 4.5334e-14 3.38069e-14 3.5808e-14 0 0 3.88146e-14 3.45775e-14 4.34179e-14 2.98266e-14 0 0 3.76134e-14 1.89349e-14 6.36184e-14 2.13417e-14 0 0 1.20192e-14 4.18193e-14 4.41331e-14 3.86747e-14 0 0 1.34955e-15 4.81932e-14 3.13618e-14 4.84983e-14 0 0 1.5801e-14 1.00111e-14 6.18249e-14 3.06987e-14 0 0 6.26766e-15 9.5918e-15 5.29178e-14 3.83839e-14 0 0 4.92071e-15 1.36602e-14 2.94961e-14 4.69909e-14 0 0 1.82037e-14 -1.0835e-14 4.7742e-14 1.83586e-14 0 0 -1.8485e-14 3.47401e-14 2.08088e-15 3.50799e-14 0 0 -4.79944e-14 7.54322e-14 -3.07136e-14 4.56309e-14 0 0 4.22261e-15 -1.59138e-14 8.18415e-14 -3.04343e-14 0 0 2.59148e-14 -3.00373e-14 1.05237e-13 -4.62298e-14 0 0 1.16004e-14 4.37986e-14 1.52347e-14 1.42838e-14 0 0 3.29189e-14 3.35379e-15 4.84125e-14 2.12406e-14 0 0 3.74404e-14 -2.68461e-14 7.8201e-14 1.83063e-14 0 0 1.79005e-14 3.64436e-14 -8.85312e-16 6.45507e-14 0 0 2.1331e-14 4.37207e-14 -4.01668e-15 5.77247e-14 0 0 7.83077e-15 6.13954e-14 -2.30885e-14 5.50336e-14 0 0 1.10977e-14 4.48836e-14 -1.79026e-14 4.77533e-14 0 0 7.43753e-16 6.10948e-14 -7.32845e-14 9.47823e-14 0 0 -2.20584e-14 1.25059e-13 -1.66809e-13 1.50095e-13 0 0 1.65712e-14 3.9219e-14 -9.49654e-15 1.24121e-14 0 0 -6.40885e-15 5.6162e-14 2.11025e-14 -1.36949e-14 0 0 3.3389e-14 3.0117e-15 6.48841e-14 -3.44851e-14 0 0 1.3183e-14 5.40612e-14 -2.8531e-14 2.78483e-14 0 0 -5.40905e-14 1.58579e-13 -1.62662e-13 8.92219e-14 0 0 5.10217e-15 3.07198e-14 1.21432e-14 -5.84751e-14 0 0 9.88885e-14 -9.36131e-14 1.50702e-13 -1.51553e-13 0 0 9.97912e-14 -4.08426e-14 5.26164e-14 -3.81958e-14 0 0 6.1457e-14 1.56799e-14 -9.91479e-15 2.19741e-14 0 0 -2.03017e-14 1.44056e-13 -7.709e-14 8.5227e-15 0 0 -3.97245e-14 1.78257e-13 -8.02569e-14 3.06445e-14 0 0 1.63312e-14 4.50562e-14 6.82376e-14 2.93303e-15 0 0 1.45993e-14 6.17258e-14 1.86706e-14 1.28895e-13 0 0 2.65103e-14 7.32402e-14 -5.25678e-14 2.71518e-13 0 0 3.84771e-14 6.77444e-14 -5.97222e-14 2.72665e-13 0 0 1.03776e-13 -1.07298e-14 4.255e-14 1.6426e-13 0 0 6.49394e-14 6.05325e-14 5.3437e-14 1.14913e-13 0 0 9.66115e-15 1.63213e-13 3.02784e-14 1.08535e-13 0 0 4.96225e-14 1.16641e-13 1.7395e-13 1.93072e-14 0 0 1.00501e-13 8.82886e-14 2.67052e-13 -1.46023e-15 0 0 1.17962e-13 1.14242e-13 2.51587e-13 8.28664e-14 0 0 9.49763e-14 1.83179e-13 2.24908e-13 1.53313e-13 0 0 -9.90387e-15 3.56342e-13 1.32749e-13 2.56355e-13 0 0 4.01487e-14 3.23561e-13 1.96544e-13 2.3268e-13 0 0 1.82035e-13 1.31627e-13 3.53081e-13 1.50613e-13 0 0 2.24106e-13 3.41283e-14 4.59244e-13 6.62921e-14 0 0 1.68046e-13 1.20868e-13 4.41233e-13 3.17592e-14 0 0 2.98171e-14 3.81862e-13 2.19267e-13 2.71263e-13 0 0 1.2208e-13 4.19551e-13 2.68616e-13 4.13118e-13 0 0 2.85363e-13 5.38757e-13 5.237e-13 4.43207e-13 0 0 5.73303e-13 9.44191e-13 1.06696e-12 5.68848e-13 0 0 1.19443e-12 1.86341e-12 2.04681e-12 1.05635e-12 0 0 2.24199e-12 3.70901e-12 3.77948e-12 2.15733e-12 0 0 4.0146e-12 6.88824e-12 6.65166e-12 4.08088e-12 0 0 6.93066e-12 1.14286e-11 1.10634e-11 6.89844e-12 0 0 1.09845e-11 1.71518e-11 1.72286e-11 1.04635e-11 0 0 1.54652e-11 2.4351e-11 2.41754e-11 1.50028e-11 0 0 2.01205e-11 3.21155e-11 3.17707e-11 1.98451e-11 0 0 2.47084e-11 3.9609e-11 3.93465e-11 2.44643e-11 0 0 2.88238e-11 4.62968e-11 4.5957e-11 2.86226e-11 0 0 3.20389e-11 5.14495e-11 5.11827e-11 3.1785e-11 0 0 3.40118e-11 5.47888e-11 5.43807e-11 3.37059e-11 0 0 3.4627e-11 5.60409e-11 5.54165e-11 3.41883e-11 0 0 3.37162e-11 5.45775e-11 5.39176e-11 3.31193e-11 0 0 3.1565e-11 5.06381e-11 5.03054e-11 3.07087e-11 0 0 2.77386e-11 4.41285e-11 4.40941e-11 2.68413e-11 0 0 2.22661e-11 3.53128e-11 3.57257e-11 2.1491e-11 0 0 1.51217e-11 2.45893e-11 2.48984e-11 1.49771e-11 0 0 6.66679e-12 1.20722e-11 1.15629e-11 7.64866e-12 0 0 -2.17926e-12 -3.72776e-12 -1.8808e-12 -1.63447e-12 0 0 -1.26017e-11 -2.00296e-11 -1.82444e-11 -1.0824e-11 0 0 -2.41039e-11 -3.76295e-11 -3.54069e-11 -2.12637e-11 0 0 -3.60668e-11 -5.66564e-11 -5.32912e-11 -3.24004e-11 0 0 -4.88637e-11 -7.57777e-11 -7.24477e-11 -4.32941e-11 0 0 -6.1563e-11 -9.61447e-11 -9.13313e-11 -5.4938e-11 0 0 -7.4754e-11 -1.16302e-10 -1.10992e-10 -6.64875e-11 0 0 -8.77566e-11 -1.36559e-10 -1.30553e-10 -7.81673e-11 0 0 -1.00439e-10 -1.56665e-10 -1.50059e-10 -8.97916e-11 0 0 -1.1267e-10 -1.7629e-10 -1.69287e-10 -1.01391e-10 0 0 -1.24238e-10 -1.95245e-10 -1.88014e-10 -1.1292e-10 0 0 -1.35002e-10 -2.13419e-10 -2.06153e-10 -1.24301e-10 0 0 -1.44902e-10 -2.30518e-10 -2.23634e-10 -1.35487e-10 0 0 -1.53855e-10 -2.46152e-10 -2.40407e-10 -1.46457e-10 0 0 -1.61728e-10 -2.60078e-10 -2.56408e-10 -1.57144e-10 0 0 -1.68358e-10 -2.72241e-10 -2.71441e-10 -1.67444e-10 0 0 -1.73565e-10 -2.82614e-10 -2.85211e-10 -1.77282e-10 0 0 -1.77176e-10 -2.91098e-10 -2.9747e-10 -1.86644e-10 0 0 -1.79192e-10 -2.97538e-10 -3.08102e-10 -1.95509e-10 0 0 -1.7937e-10 -3.018e-10 -3.17103e-10 -2.03771e-10 0 0 -1.77755e-10 -3.04062e-10 -3.24545e-10 -2.11249e-10 0 0 -1.74068e-10 -3.0393e-10 -3.30793e-10 -2.1683e-10 0 0 -1.65483e-10 -3.04274e-10 -3.36401e-10 -2.20841e-10 0 0 -8.12088e-11 -3.47352e-10 -3.8866e-10 -1.44245e-10 0 0 1.63946e-09 -1.3636e-09 -1.66163e-09 1.78871e-09 0 0 9.91178e-09 -3.36892e-09 -1.35943e-08 1.62828e-08 0 0 -1.47339e-08 5.29257e-09 1.61785e-08 -2.17307e-08 0 0 -4.56087e-08 1.74777e-08 5.12577e-08 -6.72433e-08 0 0 -2.1459e-08 1.21785e-08 1.43686e-08 -2.30127e-08 0 0 -8.9219e-09 7.01331e-09 2.03477e-09 -6.29777e-09 0 0 -4.6079e-09 3.25959e-09 1.08927e-09 -3.24289e-09 0 0 6.19515e-09 -1.25765e-09 -7.27086e-09 9.56676e-09 0 0 1.84196e-08 -6.76744e-09 -1.70189e-08 2.38873e-08 0 0 1.93781e-08 -9.30132e-09 -1.69892e-08 2.41252e-08 0 0 1.75314e-08 -9.11495e-09 -1.30457e-08 1.97227e-08 0 0 1.41953e-08 -8.03723e-09 -8.69134e-09 1.43516e-08 0 0 1.17742e-08 -6.53451e-09 -7.57471e-09 1.25512e-08 0 0 1.01976e-08 -5.43516e-09 -6.4377e-09 1.11311e-08 0 0 7.66095e-09 -4.26547e-09 -4.00468e-09 8.47079e-09 0 0 2.84722e-09 -1.56212e-09 -7.35974e-10 3.44255e-09 0 0 -2.78887e-09 1.66236e-09 3.28538e-09 -3.0655e-09 0 0 -8.39218e-09 4.64647e-09 7.66376e-09 -1.00265e-08 0 0 -1.14003e-08 5.86702e-09 9.98203e-09 -1.39533e-08 0 0 -1.12768e-08 5.87318e-09 9.61696e-09 -1.36248e-08 0 0 -1.02205e-08 5.51805e-09 7.80947e-09 -1.17045e-08 0 0 -5.89175e-09 3.46286e-09 3.16701e-09 -5.56402e-09 0 0 4.22402e-10 3.75244e-10 -1.88803e-09 2.19276e-09 0 0 5.43505e-09 -2.03074e-09 -5.51108e-09 7.66937e-09 0 0 6.18219e-09 -2.55328e-09 -5.8087e-09 8.15697e-09 0 0 5.78979e-09 -2.58472e-09 -4.6638e-09 6.97967e-09 0 0 3.64978e-09 -2.22651e-09 -1.80749e-09 3.25516e-09 0 0 4.24717e-10 -9.89319e-10 5.83625e-10 -3.70137e-10 0 0 -1.70498e-09 1.50594e-10 1.89508e-09 -2.66469e-09 0 0 -1.80831e-09 4.35357e-10 1.87784e-09 -2.71091e-09 0 0 -1.54405e-09 4.26574e-10 1.54264e-09 -2.35009e-09 0 0 -6.23858e-10 3.45369e-10 4.75465e-10 -1.06294e-09 0 0 1.024e-10 1.16862e-10 -4.90114e-10 2.07727e-10 0 0 1.21598e-10 3.05385e-11 -1.15392e-09 1.03782e-09 0 0 5.91099e-11 4.10179e-10 -2.67293e-09 2.51911e-09 0 0 2.53001e-10 3.05618e-10 -2.44885e-09 2.40239e-09 0 0 2.16492e-10 4.82478e-10 -2.59379e-09 2.55296e-09 0 0 -1.41158e-10 1.47037e-09 -4.17156e-09 3.94367e-09 0 0 3.68506e-11 1.04005e-09 -3.56395e-09 3.55993e-09 0 0 4.75604e-10 -1.78888e-10 -7.79339e-10 1.25069e-09 0 0 5.24556e-10 -3.3007e-10 7.12612e-10 -4.51747e-10 0 0 4.87034e-10 -1.95221e-10 6.96259e-10 -4.84958e-10 0 0 3.56908e-10 9.57113e-11 5.32981e-10 -4.02057e-10 0 0 3.64377e-10 1.01934e-10 1.90277e-10 -1.35377e-10 0 0 4.10244e-10 2.94774e-11 -1.2926e-10 1.77861e-10 0 0 3.81166e-10 3.46613e-11 -2.60669e-10 2.54279e-10 0 0 2.25264e-10 1.28613e-10 -2.55941e-10 2.26517e-10 0 0 6.54326e-11 1.53568e-10 -2.27795e-10 1.54074e-10 0 0 -5.36082e-11 1.31949e-10 -1.46373e-10 8.47179e-12 0 0 -1.52899e-10 1.03447e-10 -5.19172e-11 -1.49417e-10 0 0 -2.20251e-10 8.80684e-11 1.00706e-12 -2.71703e-10 0 0 -2.2626e-10 7.03248e-11 1.14158e-11 -3.09271e-10 0 0 -1.57988e-10 -1.2685e-11 -2.92493e-11 -2.643e-10 0 0 -5.04294e-11 5.48323e-13 -2.37975e-10 1.37613e-11 0 0 -2.88255e-11 -3.3587e-11 -1.75964e-10 -1.81816e-11 0 0 1.10005e-12 -1.66424e-10 1.61397e-10 -2.45899e-10 0 0 -2.97787e-12 -1.14202e-10 5.05784e-11 -1.13378e-10 0 0 -1.44072e-11 2.82357e-11 -1.47007e-10 1.30653e-10 0 0 -5.38652e-12 2.85033e-11 -1.15528e-10 1.26033e-10 0 0 1.4562e-11 6.05515e-12 -1.21593e-11 6.26617e-11 0 0 2.46771e-11 1.27248e-12 8.90541e-11 -6.13542e-12 0 0 2.57369e-11 3.06386e-11 7.85422e-11 9.5467e-12 0 0 3.03937e-11 6.53188e-11 6.45396e-11 3.90138e-11 0 0 4.10221e-11 6.77117e-11 7.80106e-11 3.76345e-11 0 0 4.75407e-11 7.32835e-11 7.77645e-11 4.43895e-11 0 0 4.8153e-11 7.48709e-11 7.70788e-11 4.59866e-11 0 0 4.45904e-11 7.1612e-11 7.08866e-11 4.3668e-11 0 0 3.77458e-11 6.10878e-11 6.07321e-11 3.68538e-11 0 0 2.99757e-11 4.81685e-11 4.84146e-11 2.89862e-11 0 0 2.15172e-11 3.47061e-11 3.46524e-11 2.11169e-11 0 0 1.35589e-11 2.21358e-11 2.18301e-11 1.35253e-11 0 0 7.34586e-12 1.21969e-11 1.20233e-11 7.29295e-12 0 0 3.41623e-12 5.74965e-12 5.72031e-12 3.25382e-12 0 0 1.42666e-12 2.30171e-12 2.41219e-12 1.17335e-12 0 0 4.6947e-13 8.9379e-13 9.1766e-13 4.34413e-13 0 0 1.00648e-13 3.81423e-13 3.12152e-13 3.40367e-13 0 0 3.58261e-14 9.87714e-14 2.90968e-13 1.25359e-13 0 0 1.24726e-13 -8.89331e-14 3.79752e-13 -1.77895e-14 0 0 6.93427e-14 4.17594e-14 1.92647e-13 1.21793e-13 0 0 4.13726e-14 9.87626e-14 1.38354e-13 1.44525e-13 0 0 1.106e-13 4.66018e-15 2.2145e-13 1.41429e-13 0 0 1.19639e-13 3.59593e-14 1.96874e-13 2.0528e-13 0 0 2.26622e-13 -3.72347e-14 2.67579e-13 2.28398e-13 0 0 2.83308e-13 -5.77333e-14 2.8987e-13 2.86714e-13 0 0 2.07359e-13 1.00986e-13 1.69896e-13 3.01077e-13 0 0 2.1923e-13 1.28839e-13 1.50202e-13 2.97987e-13 0 0 2.00149e-13 2.18388e-13 4.53123e-14 3.68708e-13 0 0 2.47425e-13 1.63852e-13 1.34547e-13 2.66785e-13 0 0 2.25636e-13 1.77912e-13 1.61679e-13 1.96519e-13 0 0 1.7096e-13 1.80624e-13 2.47571e-13 6.10764e-14 0 0 2.45716e-13 1.06283e-14 4.22981e-13 -9.62259e-14 0 0 1.84847e-13 1.15624e-13 2.43683e-13 -2.65964e-14 0 0 1.57606e-13 1.83502e-13 1.36375e-13 6.72482e-14 0 0 2.17256e-13 9.23845e-14 2.54736e-13 -8.88429e-14 0 0 2.64426e-13 7.47456e-15 3.4437e-13 -3.38415e-13 0 0 2.75181e-13 7.02544e-15 1.95834e-13 -2.84705e-13 0 0 2.72296e-13 1.249e-14 3.24564e-14 -2.83158e-13 0 0 3.20578e-13 -1.02087e-13 -9.29942e-14 -1.71448e-13 0 0 2.07645e-13 -3.4123e-14 -4.09855e-13 2.42723e-13 0 0 -1.49862e-13 4.18059e-13 -7.77859e-13 3.36797e-13 0 0 8.34775e-14 -4.05289e-14 -2.04485e-13 -2.35476e-13 0 0 2.70952e-13 -3.12736e-13 -4.48629e-14 -3.96362e-13 0 0 2.46137e-13 -1.1178e-13 -5.45545e-13 -3.56646e-14 0 0 4.73987e-13 -3.86319e-13 -4.80524e-13 -1.26497e-14 0
				</DataArray>
				<DataArray Name="VitesseY" type="Float32" format="ascii">