<?xml version="1.0"?>
<VTKFile type="PolyData">
	<PolyData>
		<Piece NumberOfPoints="1206" NumberOfPolys="1000">
			<Points>
				<DataArray type="Float32" NumberOfComponents="3" format="ascii">
 0 0 0 0.02 0 0 0.04 0 0 0.06 0 0 0.08 0 0 0.1 0 0 0 0.005 0 0.02 0.005 0 0.04 0.005 0 0.06 0.005 0 0.08 0.005 0 0.1 0.005 0 0 0.01 0 0.02 0.01 0 0.04 0.01 0 0.06 0.01 0 0.08 0.01 0 0.1 0.01 0 0 0.015 0 0.02 0.015 0 0.04 0.015 0 0.06 0.015 0 0.08 0.015 0 0.1 0.015 0 0 0.02 0 0.02 0.02 0 0.04 0.02 0 0.06 0.02 0 0.08 0.02 0 0.1 0.02 0 0 0.025 0 0.02 0.025 0 0.04 0.025 0 0.06 0.025 0 0.08 0.025 0 0.1 0.025 0 0 0.03 0 0.02 0.03 0 0.04 0.03 0 0.06 0.03 0 0.08 0.03 0 0.1 0.03 0 0 0.035 0 0.02 0.035 0 0.04 0.035 0 0.06 0.035 0 0.08 0.035 0 0.1 0.035 0 0 0.04 0 0.02 0.04 0 0.04 0.04 0 0.06 0.04 0 0.08 0.04 0 0.1 0.04 0 0 0.045 0 0.02 0.045 0 0.04 0.045 0 0.06 0.045 0 0.08 0.045 0 0.1 0.045 0 0 0.05 0 0.02 0.05 0 0.04 0.05 0 0.06 0.05 0 0.08 0.05 0 0.1 0.05 0 0 0.055 0 0.02 0.055 0 0.04 0.055 0 0.06 0.055 0 0.08 0.055 0 0.1 0.055 0 0 0.06 0 0.02 0.06 0 0.04 0.06 0 0.06 0.06 0 0.08 0.06 0 0.1 0.06 0 0 0.065 0 0.02 0.065 0 0.04 0.065 0 0.06 0.065 0 0.08 0.065 0 0.1 0.065 0 0 0.07 0 0.02 0.07 0 0.04 0.07 0 0.06 0.07 0 0.08 0.07 0 0.1 0.07 0 0 0.075 0 0.02 0.075 0 0.04 0.075 0 0.06 0.075 0 0.08 0.075 0 0.1 0.075 0 0 0.08 0 0.02 0.08 0 0.04 0.08 0 0.06 0.08 0 0.08 0.08 0 0.1 0.08 0 0 0.085 0 0.02 0.085 0 0.04 0.085 0 0.06 0.085 0 0.08 0.085 0 0.1 0.085 0 0 0.09 0 0.02 0.09 0 0.04 0.09 0 0.06 0.09 0 0.08 0.09 0 0.1 0.09 0 0 0.095 0 0.02 0.095 0 0.04 0.095 0 0.06 0.095 0 0.08 0.095 0 0.1 0.095 0 0 0.1 0 0.02 0.1 0 0.04 0.1 0 0.06 0.1 0 0.08 0.1 0 0.1 0.1 0 0 0.105 0 0.02 0.105 0 0.04 0.105 0 0.06 0.105 0 0.08 0.105 0 0.1 0.105 0 0 0.11 0 0.02 0.11 0 0.04 0.11 0 0.06 0.11 0 0.08 0.11 0 0.1 0.11 0 0 0.115 0 0.02 0.115 0 0.04 0.115 0 0.06 0.115 0 0.08 0.115 0 0.1 0.115 0 0 0.12 0 0.02 0.12 0 0.04 0.12 0 0.06 0.12 0 0.08 0.12 0 0.1 0.12 0 0 0.125 0 0.02 0.125 0 0.04 0.125 0 0.06 0.125 0 0.08 0.125 0 0.1 0.125 0 0 0.13 0 0.02 0.13 0 0.04 0.13 0 0.06 0.13 0 0.08 0.13 0 0.1 0.13 0 0 0.135 0 0.02 0.135 0 0.04 0.135 0 0.06 0.135 0 0.08 0.135 0 0.1 0.135 0 0 0.14 0 0.02 0.14 0 0.04 0.14 0 0.06 0.14 0 0.08 0.14 0 0.1 0.14 0 0 0.145 0 0.02 0.145 0 0.04 0.145 0 0.06 0.145 0 0.08 0.145 0 0.1 0.145 0 0 0.15 0 0.02 0.15 0 0.04 0.15 0 0.06 0.15 0 0.08 0.15 0 0.1 0.15 0 0 0.155 0 0.02 0.155 0 0.04 0.155 0 0.06 0.155 0 0.08 0.155 0 0.1 0.155 0 0 0.16 0 0.02 0.16 0 0.04 0.16 0 0.06 0.16 0 0.08 0.16 0 0.1 0.16 0 0 0.165 0 0.02 0.165 0 0.04 0.165 0 0.06 0.165 0 0.08 0.165 0 0.1 0.165 0 0 0.17 0 0.02 0.17 0 0.04 0.17 0 0.06 0.17 0 0.08 0.17 0 0.1 0.17 0 0 0.175 0 0.02 0.175 0 0.04 0.175 0 0.06 0.175 0 0.08 0.175 0 0.1 0.175 0 0 0.18 0 0.02 0.18 0 0.04 0.18 0 0.06 0.18 0 0.08 0.18 0 0.1 0.18 0 0 0.185 0 0.02 0.185 0 0.04 0.185 0 0.06 0.185 0 0.08 0.185 0 0.1 0.185 0 0 0.19 0 0.02 0.19 0 0.04 0.19 0 0.06 0.19 0 0.08 0.19 0 0.1 0.19 0 0 0.195 0 0.02 0.195 0 0.04 0.195 0 0.06 0.195 0 0.08 0.195 0 0.1 0.195 0 0 0.2 0 0.02 0.2 0 0.04 0.2 0 0.06 0.2 0 0.08 0.2 0 0.1 0.2 0 0 0.205 0 0.02 0.205 0 0.04 0.205 0 0.06 0.205 0 0.08 0.205 0 0.1 0.205 0 0 0.21 0 0.02 0.21 0 0.04 0.21 0 0.06 0.21 0 0.08 0.21 0 0.1 0.21 0 0 0.215 0 0.02 0.215 0 0.04 0.215 0 0.06 0.215 0 0.08 0.215 0 0.1 0.215 0 0 0.22 0 0.02 0.22 0 0.04 0.22 0 0.06 0.22 0 0.08 0.22 0 0.1 0.22 0 0 0.225 0 0.02 0.225 0 0.04 0.225 0 0.06 0.225 0 0.08 0.225 0 0.1 0.225 0 0 0.23 0 0.02 0.23 0 0.04 0.23 0 0.06 0.23 0 0.08 0.23 0 0.1 0.23 0 0 0.235 0 0.02 0.235 0 0.04 0.235 0 0.06 0.235 0 0.08 0.235 0 0.1 0.235 0 0 0.24 0 0.02 0.24 0 0.04 0.24 0 0.06 0.24 0 0.08 0.24 0 0.1 0.24 0 0 0.245 0 0.02 0.245 0 0.04 0.245 0 0.06 0.245 0 0.08 0.245 0 0.1 0.245 0 0 0.25 0 0.02 0.25 0 0.04 0.25 0 0.06 0.25 0 0.08 0.25 0 0.1 0.25 0 0 0.255 0 0.02 0.255 0 0.04 0.255 0 0.06 0.255 0 0.08 0.255 0 0.1 0.255 0 0 0.26 0 0.02 0.26 0 0.04 0.26 0 0.06 0.26 0 0.08 0.26 0 0.1 0.26 0 0 0.265 0 0.02 0.265 0 0.04 0.265 0 0.06 0.265 0 0.08 0.265 0 0.1 0.265 0 0 0.27 0 0.02 0.27 0 0.04 0.27 0 0.06 0.27 0 0.08 0.27 0 0.1 0.27 0 0 0.275 0 0.02 0.275 0 0.04 0.275 0 0.06 0.275 0 0.08 0.275 0 0.1 0.275 0 0 0.28 0 0.02 0.28 0 0.04 0.28 0 0.06 0.28 0 0.08 0.28 0 0.1 0.28 0 0 0.285 0 0.02 0.285 0 0.04 0.285 0 0.06 0.285 0 0.08 0.285 0 0.1 0.285 0 0 0.29 0 0.02 0.29 0 0.04 0.29 0 0.06 0.29 0 0.08 0.29 0 0.1 0.29 0 0 0.295 0 0.02 0.295 0 0.04 0.295 0 0.06 0.295 0 0.08 0.295 0 0.1 0.295 0 0 0.3 0 0.02 0.3 0 0.04 0.3 0 0.06 0.3 0 0.08 0.3 0 0.1 0.3 0 0 0.305 0 0.02 0.305 0 0.04 0.305 0 0.06 0.305 0 0.08 0.305 0 0.1 0.305 0 0 0.31 0 0.02 0.31 0 0.04 0.31 0 0.06 0.31 0 0.08 0.31 0 0.1 0.31 0 0 0.315 0 0.02 0.315 0 0.04 0.315 0 0.06 0.315 0 0.08 0.315 0 0.1 0.315 0 0 0.32 0 0.02 0.32 0 0.04 0.32 0 0.06 0.32 0 0.08 0.32 0 0.1 0.32 0 0 0.325 0 0.02 0.325 0 0.04 0.325 0 0.06 0.325 0 0.08 0.325 0 0.1 0.325 0 0 0.33 0 0.02 0.33 0 0.04 0.33 0 0.06 0.33 0 0.08 0.33 0 0.1 0.33 0 0 0.335 0 0.02 0.335 0 0.04 0.335 0 0.06 0.335 0 0.08 0.335 0 0.1 0.335 0 0 0.34 0 0.02 0.34 0 0.04 0.34 0 0.06 0.34 0 0.08 0.34 0 0.1 0.34 0 0 0.345 0 0.02 0.345 0 0.04 0.345 0 0.06 0.345 0 0.08 0.345 0 0.1 0.345 0 0 0.35 0 0.02 0.35 0 0.04 0.35 0 0.06 0.35 0 0.08 0.35 0 0.1 0.35 0 0 0.355 0 0.02 0.355 0 0.04 0.355 0 0.06 0.355 0 0.08 0.355 0 0.1 0.355 0 0 0.36 0 0.02 0.36 0 0.04 0.36 0 0.06 0.36 0 0.08 0.36 0 0.1 0.36 0 0 0.365 0 0.02 0.365 0 0.04 0.365 0 0.06 0.365 0 0.08 0.365 0 0.1 0.365 0 0 0.37 0 0.02 0.37 0 0.04 0.37 0 0.06 0.37 0 0.08 0.37 0 0.1 0.37 0 0 0.375 0 0.02 0.375 0 0.04 0.375 0 0.06 0.375 0 0.08 0.375 0 0.1 0.375 0 0 0.38 0 0.02 0.38 0 0.04 0.38 0 0.06 0.38 0 0.08 0.38 0 0.1 0.38 0 0 0.385 0 0.02 0.385 0 0.04 0.385 0 0.06 0.385 0 0.08 0.385 0 0.1 0.385 0 0 0.39 0 0.02 0.39 0 0.04 0.39 0 0.06 0.39 0 0.08 0.39 0 0.1 0.39 0 0 0.395 0 0.02 0.395 0 0.04 0.395 0 0.06 0.395 0 0.08 0.395 0 0.1 0.395 0 0 0.4 0 0.02 0.4 0 0.04 0.4 0 0.06 0.4 0 0.08 0.4 0 0.1 0.4 0 0 0.405 0 0.02 0.405 0 0.04 0.405 0 0.06 0.405 0 0.08 0.405 0 0.1 0.405 0 0 0.41 0 0.02 0.41 0 0.04 0.41 0 0.06 0.41 0 0.08 0.41 0 0.1 0.41 0 0 0.415 0 0.02 0.415 0 0.04 0.415 0 0.06 0.415 0 0.08 0.415 0 0.1 0.415 0 0 0.42 0 0.02 0.42 0 0.04 0.42 0 0.06 0.42 0 0.08 0.42 0 0.1 0.42 0 0 0.425 0 0.02 0.425 0 0.04 0.425 0 0.06 0.425 0 0.08 0.425 0 0.1 0.425 0 0 0.43 0 0.02 0.43 0 0.04 0.43 0 0.06 0.43 0 0.08 0.43 0 0.1 0.43 0 0 0.435 0 0.02 0.435 0 0.04 0.435 0 0.06 0.435 0 0.08 0.435 0 0.1 0.435 0 0 0.44 0 0.02 0.44 0 0.04 0.44 0 0.06 0.44 0 0.08 0.44 0 0.1 0.44 0 0 0.445 0 0.02 0.445 0 0.04 0.445 0 0.06 0.445 0 0.08 0.445 0 0.1 0.445 0 0 0.45 0 0.02 0.45 0 0.04 0.45 0 0.06 0.45 0 0.08 0.45 0 0.1 0.45 0 0 0.455 0 0.02 0.455 0 0.04 0.455 0 0.06 0.455 0 0.08 0.455 0 0.1 0.455 0 0 0.46 0 0.02 0.46 0 0.04 0.46 0 0.06 0.46 0 0.08 0.46 0 0.1 0.46 0 0 0.465 0 0.02 0.465 0 0.04 0.465 0 0.06 0.465 0 0.08 0.465 0 0.1 0.465 0 0 0.47 0 0.02 0.47 0 0.04 0.47 0 0.06 0.47 0 0.08 0.47 0 0.1 0.47 0 0 0.475 0 0.02 0.475 0 0.04 0.475 0 0.06 0.475 0 0.08 0.475 0 0.1 0.475 0 0 0.48 0 0.02 0.48 0 0.04 0.48 0 0.06 0.48 0 0.08 0.48 0 0.1 0.48 0 0 0.485 0 0.02 0.485 0 0.04 0.485 0 0.06 0.485 0 0.08 0.485 0 0.1 0.485 0 0 0.49 0 0.02 0.49 0 0.04 0.49 0 0.06 0.49 0 0.08 0.49 0 0.1 0.49 0 0 0.495 0 0.02 0.495 0 0.04 0.495 0 0.06 0.495 0 0.08 0.495 0 0.1 0.495 0 0 0.5 0 0.02 0.5 0 0.04 0.5 0 0.06 0.5 0 0.08 0.5 0 0.1 0.5 0 0 0.505 0 0.02 0.505 0 0.04 0.505 0 0.06 0.505 0 0.08 0.505 0 0.1 0.505 0 0 0.51 0 0.02 0.51 0 0.04 0.51 0 0.06 0.51 0 0.08 0.51 0 0.1 0.51 0 0 0.515 0 0.02 0.515 0 0.04 0.515 0 0.06 0.515 0 0.08 0.515 0 0.1 0.515 0 0 0.52 0 0.02 0.52 0 0.04 0.52 0 0.06 0.52 0 0.08 0.52 0 0.1 0.52 0 0 0.525 0 0.02 0.525 0 0.04 0.525 0 0.06 0.525 0 0.08 0.525 0 0.1 0.525 0 0 0.53 0 0.02 0.53 0 0.04 0.53 0 0.06 0.53 0 0.08 0.53 0 0.1 0.53 0 0 0.535 0 0.02 0.535 0 0.04 0.535 0 0.06 0.535 0 0.08 0.535 0 0.1 0.535 0 0 0.54 0 0.02 0.54 0 0.04 0.54 0 0.06 0.54 0 0.08 0.54 0 0.1 0.54 0 0 0.545 0 0.02 0.545 0 0.04 0.545 0 0.06 0.545 0 0.08 0.545 0 0.1 0.545 0 0 0.55 0 0.02 0.55 0 0.04 0.55 0 0.06 0.55 0 0.08 0.55 0 0.1 0.55 0 0 0.555 0 0.02 0.555 0 0.04 0.555 0 0.06 0.555 0 0.08 0.555 0 0.1 0.555 0 0 0.56 0 0.02 0.56 0 0.04 0.56 0 0.06 0.56 0 0.08 0.56 0 0.1 0.56 0 0 0.565 0 0.02 0.565 0 0.04 0.565 0 0.06 0.565 0 0.08 0.565 0 0.1 0.565 0 0 0.57 0 0.02 0.57 0 0.04 0.57 0 0.06 0.57 0 0.08 0.57 0 0.1 0.57 0 0 0.575 0 0.02 0.575 0 0.04 0.575 0 0.06 0.575 0 0.08 0.575 0 0.1 0.575 0 0 0.58 0 0.02 0.58 0 0.04 0.58 0 0.06 0.58 0 0.08 0.58 0 0.1 0.58 0 0 0.585 0 0.02 0.585 0 0.04 0.585 0 0.06 0.585 0 0.08 0.585 0 0.1 0.585 0 0 0.59 0 0.02 0.59 0 0.04 0.59 0 0.06 0.59 0 0.08 0.59 0 0.1 0.59 0 0 0.595 0 0.02 0.595 0 0.04 0.595 0 0.06 0.595 0 0.08 0.595 0 0.1 0.595 0 0 0.6 0 0.02 0.6 0 0.04 0.6 0 0.06 0.6 0 0.08 0.6 0 0.1 0.6 0 0 0.605 0 0.02 0.605 0 0.04 0.605 0 0.06 0.605 0 0.08 0.605 0 0.1 0.605 0 0 0.61 0 0.02 0.61 0 0.04 0.61 0 0.06 0.61 0 0.08 0.61 0 0.1 0.61 0 0 0.615 0 0.02 0.615 0 0.04 0.615 0 0.06 0.615 0 0.08 0.615 0 0.1 0.615 0 0 0.62 0 0.02 0.62 0 0.04 0.62 0 0.06 0.62 0 0.08 0.62 0 0.1 0.62 0 0 0.625 0 0.02 0.625 0 0.04 0.625 0 0.06 0.625 0 0.08 0.625 0 0.1 0.625 0 0 0.63 0 0.02 0.63 0 0.04 0.63 0 0.06 0.63 0 0.08 0.63 0 0.1 0.63 0 0 0.635 0 0.02 0.635 0 0.04 0.635 0 0.06 0.635 0 0.08 0.635 0 0.1 0.635 0 0 0.64 0 0.02 0.64 0 0.04 0.64 0 0.06 0.64 0 0.08 0.64 0 0.1 0.64 0 0 0.645 0 0.02 0.645 0 0.04 0.645 0 0.06 0.645 0 0.08 0.645 0 0.1 0.645 0 0 0.65 0 0.02 0.65 0 0.04 0.65 0 0.06 0.65 0 0.08 0.65 0 0.1 0.65 0 0 0.655 0 0.02 0.655 0 0.04 0.655 0 0.06 0.655 0 0.08 0.655 0 0.1 0.655 0 0 0.66 0 0.02 0.66 0 0.04 0.66 0 0.06 0.66 0 0.08 0.66 0 0.1 0.66 0 0 0.665 0 0.02 0.665 0 0.04 0.665 0 0.06 0.665 0 0.08 0.665 0 0.1 0.665 0 0 0.67 0 0.02 0.67 0 0.04 0.67 0 0.06 0.67 0 0.08 0.67 0 0.1 0.67 0 0 0.675 0 0.02 0.675 0 0.04 0.675 0 0.06 0.675 0 0.08 0.675 0 0.1 0.675 0 0 0.68 0 0.02 0.68 0 0.04 0.68 0 0.06 0.68 0 0.08 0.68 0 0.1 0.68 0 0 0.685 0 0.02 0.685 0 0.04 0.685 0 0.06 0.685 0 0.08 0.685 0 0.1 0.685 0 0 0.69 0 0.02 0.69 0 0.04 0.69 0 0.06 0.69 0 0.08 0.69 0 0.1 
[...]
			<PointData Scalars="VitesseX">
				<DataArray Name="VitesseX" type="Float32" format="ascii">
 0 -1.17117e-14 -6.14722e-15 5.23753e-16 2.75217e-14 0 0 -4.63319e-15 -1.95257e-14 1.53888e-14 1.78531e-14 0 0 -1.09154e-14 -7.42971e-15 4.57887e-15 2.36186e-14 0 0 -1.33277e-14 -7.93672e-17 3.06907e-15 2.50508e-14 0 0 8.85748e-15 -3.64818e-14 4.57695e-14 1.06439e-14 0 0 -5.85202e-15 -5.51545e-15 1.57408e-14 3.97001e-14 0 0 -4.38462e-14 5.63614e-14 -2.40125e-14 6.98377e-14 0 0 -2.48705e-14 2.27385e-14 4.54333e-14 3.05817e-14 0 0 -1.80749e-14 2.16819e-14 6.51937e-14 2.76753e-14 0 0 5.83016e-16 4.43492e-15 8.94242e-14 2.49655e-14 0 0 5.4295e-14 -5.44426e-14 1.38138e-13 -8.82505e-15 0 0 5.42905e-14 -1.40131e-14 7.40158e-14 2.08458e-14 0 0 4.76097e-14 1.98859e-14 2.76727e-14 4.41268e-14 0 0 4.65579e-14 1.63531e-14 4.30562e-14 1.44499e-14 0 0 2.36342e-14 2.9098e-14 5.003e-14 1.40495e-15 0 0 1.94689e-15 6.8836e-14 6.76659e-15 3.00404e-14 0 0 5.1475e-14 6.74639e-15 5.92084e-14 -1.63965e-14 0 0 8.95572e-14 -4.06885e-14 1.00151e-13 -5.39814e-14 0 0 8.18714e-14 -1.86752e-14 5.35197e-14 -2.51205e-14 0 0 1.5143e-14 6.86052e-14 -2.6642e-14 3.28352e-15 0 0 -2.34293e-14 9.7325e-14 -5.14026e-14 3.60115e-15 0 0 -1.35053e-14 4.42304e-14 -5.68242e-14 3.70326e-14 0 0 3.6746e-14 -8.4782e-14 6.46265e-14 -3.44779e-14 0 0 -2.12485e-14 -4.86729e-14 4.29788e-14 -1.93028e-14 0 0 -1.36247e-13 9.9971e-14 -1.30899e-13 1.10825e-13 0 0 -6.2416e-14 -3.65086e-14 1.17002e-14 3.77544e-14 0 0 1.77145e-15 -1.54832e-13 1.22722e-13 8.70715e-15 0 0 -6.47505e-14 -4.46655e-14 -3.972e-14 1.57188e-13 0 0 -7.22739e-14 2.76076e-15 -1.18955e-13 1.81195e-13 0 0 2.76385e-14 -1.49018e-13 5.39482e-14 2.75604e-14 0 0 1.19038e-14 -1.55225e-13 1.22237e-13 -6.86775e-14 0 0 -7.2475e-14 -4.67127e-14 5.19682e-14 -8.62559e-14 0 0 -9.78745e-14 -2.34878e-15 7.77285e-15 -5.88708e-14 0 0 -6.49813e-14 -3.2441e-14 6.09121e-14 -8.33567e-14 0 0 -6.49353e-14 -2.0963e-14 5.00033e-14 -5.41468e-14 0 0 -2.09426e-14 -9.6583e-14 9.87845e-14 -2.94926e-14 0 0 9.20566e-14 -2.54272e-13 2.29331e-13 -5.38704e-14 0 0 -7.98818e-15 -2.91936e-14 2.76408e-14 6.37504e-14 0 0 -3.37768e-14 -1.56735e-14 1.16736e-13 -6.91316e-14 0 0 -2.39767e-15 -1.07374e-13 2.14558e-13 -1.29017e-13 0 0 -1.08839e-13 5.24447e-14 3.24163e-14 1.49871e-14 0 0 -1.3329e-13 7.80085e-14 4.53099e-14 -4.57004e-14 0 0 -1.03517e-13 8.26267e-14 2.41239e-14 -5.87497e-14 0 0 -9.61484e-14 1.13333e-13 -2.69738e-14 1.26983e-14 0 0 -4.93249e-14 4.6594e-14 8.68484e-14 -3.09243e-14 0 0 -6.73751e-14 1.42934e-13 -1.83611e-14 1.80459e-14 0 0 1.15451e-13 -7.29221e-14 1.33293e-13 -1.07709e-13 0 0 8.3585e-14 3.34568e-14 5.88225e-15 -6.13198e-14 0 0 1.10872e-14 2.46984e-13 -2.89643e-13 9.2757e-14 0 0 2.7733e-13 -1.21346e-13 -8.48666e-14 -6.13162e-15 0 0 4.58681e-13 -4.17708e-13 1.28208e-13 -8.15246e-14 0 0 3.61956e-13 -2.7825e-13 6.21723e-14 -1.28499e-13 0 0 -5.86668e-14 3.56695e-13 -4.988e-13 1.6552e-13 0 0 1.04531e-13 7.99464e-14 -1.7385e-13 -3.70742e-14 0 0 3.78004e-13 -3.23284e-13 2.39729e-13 -3.65135e-13 0 0 2.26828e-13 -4.42217e-14 -8.29776e-14 -1.62939e-13 0 0 2.29699e-13 -6.58807e-14 -4.78801e-14 -1.89896e-13 0 0 1.44624e-13 -2.24382e-14 -2.05123e-14 -2.76593e-13 0 0 9.99605e-14 5.22405e-14 -1.5751e-13 -1.85209e-13 0 0 2.10327e-13 -6.62472e-14 -1.31438e-13 -1.8124e-13 0 0 8.73991e-14 1.31316e-13 -2.37004e-13 -2.18496e-13 0 0 3.99629e-14 1.61264e-13 -1.44823e-13 -3.80045e-13 0 0 5.42564e-14 8.03537e-14 -1.41179e-14 -4.72192e-13 0 0 3.43227e-14 9.38772e-14 1.20952e-14 -4.71039e-13 0 0 1.763e-14 1.02923e-13 2.21035e-14 -4.62974e-13 0 0 -3.2321e-14 2.28181e-13 -1.90035e-13 -2.7507e-13 0 0 7.2266e-14 1.73051e-13 -2.55372e-13 -1.11221e-13 0 0 2.7689e-13 -6.96129e-15 -1.03049e-13 -7.87281e-14 0 0 3.72314e-13 -1.79398e-14 -5.0279e-14 -3.10669e-14 0 0 3.88871e-13 1.17662e-13 -2.20483e-13 1.38678e-13 0 0 4.50987e-13 1.24949e-13 -2.49262e-13 2.35046e-13 0 0 4.13464e-13 1.83861e-13 -2.00081e-13 2.12785e-13 0 0 5.19343e-13 4.36216e-14 2.04841e-14 3.77259e-14 0 0 4.069e-13 2.31463e-13 -9.75956e-14 1.20143e-13 0 0 3.24447e-13 2.21847e-13 1.00399e-13 5.73248e-14 0 0 5.14424e-13 -6.78098e-14 4.52873e-13 2.83785e-14 0 0 4.78122e-13 3.04483e-13 2.0933e-13 4.9505e-13 0 0 6.64939e-13 7.00208e-13 7.00307e-13 7.01247e-13 0 0 1.48606e-12 2.13917e-12 2.17698e-12 1.3449e-12 0 0 4.22018e-12 5.97326e-12 6.30818e-12 3.80693e-12 0 0 9.96152e-12 1.59213e-11 1.52248e-11 9.9778e-12 0 0 2.1174e-11 3.48608e-11 3.30648e-11 2.083e-11 0 0 4.02506e-11 6.3549e-11 6.24746e-11 3.69175e-11 0 0 6.56954e-11 1.03243e-10 9.92067e-11 5.87813e-11 0 0 9.52427e-11 1.49476e-10 1.3879e-10 8.31036e-11 0 0 1.27172e-10 1.93703e-10 1.77589e-10 1.03751e-10 0 0 1.56228e-10 2.32134e-10 2.0923e-10 1.17372e-10 0 0 1.78976e-10 2.61103e-10 2.29217e-10 1.23517e-10 0 0 1.93311e-10 2.78408e-10 2.34798e-10 1.21171e-10 0 0 1.98603e-10 2.80205e-10 2.24916e-10 1.11879e-10 0 0 1.89658e-10 2.65015e-10 2.03755e-10 9.2924e-11 0 0 1.68899e-10 2.32354e-10 1.67858e-10 6.73965e-11 0 0 1.31446e-10 1.79451e-10 1.22179e-10 3.97637e-11 0 0 7.25832e-11 1.03815e-10 6.34363e-11 3.82506e-12 0 0 4.46828e-12 1.83223e-11 -2.10158e-12 -2.9048e-11 0 0 -1.072e-10 -1.00832e-10 -7.39913e-11 -6.70666e-11 0 0 -2.12822e-10 -2.1621e-10 -1.49602e-10 -1.04802e-10 0 0 -3.51596e-10 -3.64839e-10 -2.24634e-10 -1.35508e-10 0 0 -5.0579e-10 -5.30044e-10 -3.03482e-10 -1.5608e-10 0 0 -6.29883e-10 -6.82251e-10 -3.99689e-10 -1.21655e-10 0 0 -1.11863e-09 -8.31487e-10 -1.64669e-10 -4.20334e-10 0 0 -1.53341e-09 -1.08523e-09 6.67272e-10 -1.25867e-09 0 0 -1.16832e-09 -1.19888e-09 9.16395e-10 -1.49347e-09 0 0 -3.82831e-10 -7.09271e-10 1.56894e-10 -8.73205e-10 0 0 1.41882e-09 -6.14735e-10 -3.29235e-09 2.98603e-09 0 0 1.90458e-09 -9.20982e-10 -4.30102e-09 4.55916e-09 0 0 7.34063e-10 -4.15981e-10 -3.58514e-09 3.39644e-09 0 0 -2.43511e-09 1.29691e-09 -1.58273e-09 -1.56247e-10 0 0 -3.03124e-09 1.38927e-09 2.22631e-09 -4.2117e-09 0 0 -2.52462e-09 8.11974e-10 2.87125e-09 -4.4384e-09 0 0 -9.53866e-10 -1.32079e-11 2.0051e-09 -3.13277e-09 0 0 1.80029e-10 -2.51782e-10 9.05645e-10 -1.40828e-09 0 0 3.23116e-10 -5.78316e-10 3.80363e-10 -5.49443e-10 0 0 4.46932e-10 -8.37194e-10 -2.28223e-10 1.37029e-10 0 0 3.62481e-10 -8.30986e-10 1.27803e-10 -1.34455e-10 0 0 -1.90646e-10 -5.31022e-10 1.28766e-09 -1.38116e-09 0 0 -8.6494e-10 3.89448e-10 2.06086e-09 -2.46996e-09 0 0 -1.05133e-09 1.05535e-09 1.99244e-09 -2.35422e-09 0 0 -8.47929e-10 9.96169e-10 1.82952e-09 -2.18763e-09 0 0 -2.0795e-10 5.95407e-10 1.34874e-09 -1.61215e-09 0 0 4.36384e-10 1.84315e-10 5.48573e-10 -4.94119e-10 0 0 6.96951e-10 -1.57782e-12 -1.82001e-10 5.07236e-10 0 0 6.09768e-10 4.43967e-11 -4.50226e-10 6.25448e-10 0 0 3.02632e-10 1.95998e-10 -4.96177e-10 6.08188e-10 0 0 1.10201e-10 1.89002e-10 -4.31208e-10 4.54057e-10 0 0 5.98874e-11 4.58038e-11 -1.58873e-10 1.46916e-10 0 0 2.38715e-11 -3.34633e-11 -8.21431e-12 -1.42003e-11 0 0 -3.7259e-12 -2.80116e-11 -8.82964e-12 -2.78696e-11 0 0 -1.07252e-11 -1.83096e-11 -2.08571e-11 -2.47552e-11 0 0 -9.99907e-12 -1.64566e-11 -2.27805e-11 -2.05941e-11 0 0 -7.46955e-12 -1.40823e-11 -1.91583e-11 -1.57511e-11 0 0 -5.07154e-12 -1.03968e-11 -1.32906e-11 -1.02992e-11 0 0 -3.03259e-12 -6.44055e-12 -7.73345e-12 -5.67295e-12 0 0 -1.50369e-12 -3.14947e-12 -3.69154e-12 -2.51909e-12 0 0 -5.81794e-13 -1.02841e-12 -1.5582e-12 -7.47458e-13 0 0 -9.09389e-14 -9.99433e-14 -4.76504e-13 -4.18548e-14 0 0 2.14437e-13 1.12021e-13 9.21445e-14 8.96507e-14 0 0 3.58071e-13 1.99392e-13 2.26919e-13 1.68955e-13 0 0 4.94754e-13 1.36014e-13 3.38838e-13 1.78882e-13 0 0 4.66685e-13 2.99935e-13 1.65378e-13 3.32693e-13 0 0 3.59997e-13 5.14729e-13 2.77774e-14 4.09927e-13 0 0 4.79035e-13 2.97169e-13 3.37828e-13 1.56627e-13 0 0 4.70905e-13 3.2024e-13 2.95838e-13 1.4825e-13 0 0 4.31313e-13 4.44617e-13 1.23408e-13 2.35824e-13 0 0 4.67341e-13 4.47085e-13 6.98038e-14 2.52046e-13 0 0 3.18424e-13 6.52383e-13 -1.32519e-13 3.59415e-13 0 0 5.06209e-13 3.10935e-13 2.12576e-13 1.2501e-13 0 0 5.84335e-13 2.39707e-13 2.32432e-13 7.9044e-14 0 0 4.76212e-13 4.85844e-13 -1.03383e-13 3.35316e-13 0 0 4.87317e-13 5.04926e-13 -1.85161e-13 4.68301e-13 0 0 3.48177e-13 6.82439e-13 -3.04247e-13 5.56816e-13 0 0 5.99606e-13 2.55455e-13 1.60853e-13 2.10598e-13 0 0 6.72976e-13 1.06787e-13 3.50621e-13 3.25815e-14 0 0 5.01122e-13 3.2284e-13 2.56258e-13 -1.89081e-15 0 0 3.71671e-13 4.94498e-13 1.7938e-13 -9.7455e-14 0 0 2.46645e-13 6.41229e-13 1.35617e-13 -2.41236e-13 0 0 5.33643e-13 2.16544e-13 5.37589e-13 -4.58906e-13 0 0 5.7507e-13 1.76591e-13 4.66079e-13 -1.08738e-13 0 0 4.26136e-13 2.93741e-13 4.74548e-13 4.55792e-14 0 0 1.35437e-13 6.89992e-13 1.06683e-13 4.50829e-13 0 0 3.65859e-14 7.94522e-13 1.9599e-14 7.19594e-13 0 0 4.44392e-13 1.2237e-13 8.26962e-13 1.48113e-13 0 0 5.68995e-13 -1.97035e-14 1.02694e-12 -1.30176e-13 0 0 3.75241e-13 2.15174e-13 8.38602e-13 7.67647e-14 0 0 -2.01402e-14 6.77005e-13 4.04053e-13 4.5953e-13 0 0 -1.1325e-13 8.42114e-13 1.62585e-13 5.02139e-13 0 0 3.60667e-13 1.60734e-13 6.8112e-13 1.08424e-13 0 0 6.46748e-13 -2.91258e-13 9.50085e-13 -1.04908e-13 0 0 7.6978e-13 -4.37926e-13 9.04403e-13 -1.32397e-13 0 0 4.05025e-13 -2.5533e-14 6.53433e-13 -7.56526e-14 0 0 -1.52385e-13 6.90036e-13 8.92814e-14 2.27945e-13 0 0 -2.32274e-13 7.21003e-13 1.80857e-13 1.09667e-13 0 0 1.0963e-14 3.3939e-13 4.20927e-13 4.22077e-14 0 0 3.27402e-13 -7.53891e-14 5.04225e-13 1.55441e-13 0 0 3.65914e-13 -9.16751e-14 4.24371e-13 1.36331e-13 0 0 2.76901e-13 4.28846e-14 2.12e-13 1.5278e-13 0 0 4.19224e-14 3.52904e-13 -8.95488e-14 3.04584e-13 0 0 -9.49822e-14 5.21065e-13 -2.03752e-13 3.49512e-13 0 0 2.50394e-13 -2.00247e-13 6.29205e-13 -1.74695e-13 0 0 4.24923e-13 -3.33574e-13 7.49938e-13 -1.73493e-13 0 0 3.40642e-13 1.81927e-13 1.68971e-13 1.56749e-13 0 0 3.05072e-13 2.88284e-13 1.3365e-13 4.21829e-14 0 0 1.38989e-13 4.04587e-13 1.90232e-13 -1.37248e-13 0 0 3.35061e-13 -3.1358e-14 5.50163e-13 -2.86671e-13 0 0 1.19353e-13 2.2929e-13 1.52611e-13 4.70551e-14 0 0 6.48352e-14 4.0684e-13 -1.13024e-13 2.33358e-13 0 0 4.63905e-13 -1.37745e-14 -2.12006e-14 4.15309e-13 0 0 2.20544e-13 4.0378e-13 -5.65363e-13 8.67486e-13 0 0 2.55937e-13 3.00395e-13 -7.89108e-14 3.17768e-13 0 0 5.48874e-13 -1.5837e-14 3.58293e-13 -7.2647e-14 0 0 5.83819e-13 2.1517e-13 -2.97154e-13 5.91209e-13 0 0 6.58406e-13 5.88242e-14 -4.75924e-14 4.96714e-13 0 0 3.18714e-13 3.78528e-13 -8.21434e-14 3.83171e-13 0 0 2.30045e-13 4.15554e-13 -5.92654e-14 3.04316e-13 0 0 4.84478e-13 1.59016e-13 3.26387e-13 -5.11578e-14 0 0 5.01721e-13 5.39664e-13 -2.41466e-13 3.68053e-13 0 0 8.21408e-13 3.15392e-13 -5.1314e-13 9.43334e-13 0 0 1.02511e-12 -2.14808e-14 -3.02921e-13 9.99914e-13 0 0 9.0739e-13 5.46605e-14 -1.31263e-13 7.79204e-13 0 0 5.04986e-13 5.36147e-13 -4.33872e-13 8.56408e-13 0 0 1.86626e-13 8.83139e-13 -6.82277e-13 9.29048e-13 0
				</DataArray>
				<DataArray Name="VitesseY" type="Float32" format="ascii">