<?xml version="1.0"?>
<VTKFile type="PolyData">
	<PolyData>
		<Piece NumberOfPoints="1206" NumberOfPolys="1000">
			<Points>
				<DataArray type="Float32" NumberOfComponents="3" format="ascii">
 0 0 0 0.02 0 0 0.04 0 0 0.06 0 0 0.08 0 0 0.1 0 0 0 0.005 0 0.02 0.005 0 0.04 0.005 0 0.06 0.005 0 0.08 0.005 0 0.1 0.005 0 0 0.01 0 0.02 0.01 0 0.04 0.01 0 0.06 0.01 0 0.08 0.01 0 0.1 0.01 0 0 0.015 0 0.02 0.015 0 0.04 0.015 0 0.06 0.015 0 0.08 0.015 0 0.1 0.015 0 0 0.02 0 0.02 0.02 0 0.04 0.02 0 0.06 0.02 0 0.08 0.02 0 0.1 0.02 0 0 0.025 0 0.02 0.025 0 0.04 0.025 0 0.06 0.025 0 0.08 0.025 0 0.1 0.025 0 0 0.03 0 0.02 0.03 0 0.04 0.03 0 0.06 0.03 0 0.08 0.03 0 0.1 0.03 0 0 0.035 0 0.02 0.035 0 0.04 0.035 0 0.06 0.035 0 0.08 0.035 0 0.1 0.035 0 0 0.04 0 0.02 0.04 0 0.04 0.04 0 0.06 0.04 0 0.08 0.04 0 0.1 0.04 0 0 0.045 0 0.02 0.045 0 0.04 0.045 0 0.06 0.045 0 0.08 0.045 0 0.1 0.045 0 0 0.05 0 0.02 0.05 0 0.04 0.05 0 0.06 0.05 0 0.08 0.05 0 0.1 0.05 0 0 0.055 0 0.02 0.055 0 0.04 0.055 0 0.06 0.055 0 0.08 0.055 0 0.1 0.055 0 0 0.06 0 0.02 0.06 0 0.04 0.06 0 0.06 0.06 0 0.08 0.06 0 0.1 0.06 0 0 0.065 0 0.02 0.065 0 0.04 0.065 0 0.06 0.065 0 0.08 0.065 0 0.1 0.065 0 0 0.07 0 0.02 0.07 0 0.04 0.07 0 0.06 0.07 0 0.08 0.07 0 0.1 0.07 0 0 0.075 0 0.02 0.075 0 0.04 0.075 0 0.06 0.075 0 0.08 0.075 0 0.1 0.075 0 0 0.08 0 0.02 0.08 0 0.04 0.08 0 0.06 0.08 0 0.08 0.08 0 0.1 0.08 0 0 0.085 0 0.02 0.085 0 0.04 0.085 0 0.06 0.085 0 0.08 0.085 0 0.1 0.085 0 0 0.09 0 0.02 0.09 0 0.04 0.09 0 0.06 0.09 0 0.08 0.09 0 0.1 0.09 0 0 0.095 0 0.02 0.095 0 0.04 0.095 0 0.06 0.095 0 0.08 0.095 0 0.1 0.095 0 0 0.1 0 0.02 0.1 0 0.04 0.1 0 0.06 0.1 0 0.08 0.1 0 0.1 0.1 0 0 0.105 0 0.02 0.105 0 0.04 0.105 0 0.06 0.105 0 0.08 0.105 0 0.1 0.105 0 0 0.11 0 0.02 0.11 0 0.04 0.11 0 0.06 0.11 0 0.08 0.11 0 0.1 0.11 0 0 0.115 0 0.02 0.115 0 0.04 0.115 0 0.06 0.115 0 0.08 0.115 0 0.1 0.115 0 0 0.12 0 0.02 0.12 0 0.04 0.12 0 0.06 0.12 0 0.08 0.12 0 0.1 0.12 0 0 0.125 0 0.02 0.125 0 0.04 0.125 0 0.06 0.125 0 0.08 0.125 0 0.1 0.125 0 0 0.13 0 0.02 0.13 0 0.04 0.13 0 0.06 0.13 0 0.08 0.13 0 0.1 0.13 0 0 0.135 0 0.02 0.135 0 0.04 0.135 0 0.06 0.135 0 0.08 0.135 0 0.1 0.135 0 0 0.14 0 0.02 0.14 0 0.04 0.14 0 0.06 0.14 0 0.08 0.14 0 0.1 0.14 0 0 0.145 0 0.02 0.145 0 0.04 0.145 0 0.06 0.145 0 0.08 0.145 0 0.1 0.145 0 0 0.15 0 0.02 0.15 0 0.04 0.15 0 0.06 0.15 0 0.08 0.15 0 0.1 0.15 0 0 0.155 0 0.02 0.155 0 0.04 0.155 0 0.06 0.155 0 0.08 0.155 0 0.1 0.155 0 0 0.16 0 0.02 0.16 0 0.04 0.16 0 0.06 0.16 0 0.08 0.16 0 0.1 0.16 0 0 0.165 0 0.02 0.165 0 0.04 0.165 0 0.06 0.165 0 0.08 0.165 0 0.1 0.165 0 0 0.17 0 0.02 0.17 0 0.04 0.17 0 0.06 0.17 0 0.08 0.17 0 0.1 0.17 0 0 0.175 0 0.02 0.175 0 0.04 0.175 0 0.06 0.175 0 0.08 0.175 0 0.1 0.175 0 0 0.18 0 0.02 0.18 0 0.04 0.18 0 0.06 0.18 0 0.08 0.18 0 0.1 0.18 0 0 0.185 0 0.02 0.185 0 0.04 0.185 0 0.06 0.185 0 0.08 0.185 0 0.1 0.185 0 0 0.19 0 0.02 0.19 0 0.04 0.19 0 0.06 0.19 0 0.08 0.19 0 0.1 0.19 0 0 0.195 0 0.02 0.195 0 0.04 0.195 0 0.06 0.195 0 0.08 0.195 0 0.1 0.195 0 0 0.2 0 0.02 0.2 0 0.04 0.2 0 0.06 0.2 0 0.08 0.2 0 0.1 0.2 0 0 0.205 0 0.02 0.205 0 0.04 0.205 0 0.06 0.205 0 0.08 0.205 0 0.1 0.205 0 0 0.21 0 0.02 0.21 0 0.04 0.21 0 0.06 0.21 0 0.08 0.21 0 0.1 0.21 0 0 0.215 0 0.02 0.215 0 0.04 0.215 0 0.06 0.215 0 0.08 0.215 0 0.1 0.215 0 0 0.22 0 0.02 0.22 0 0.04 0.22 0 0.06 0.22 0 0.08 0.22 0 0.1 0.22 0 0 0.225 0 0.02 0.225 0 0.04 0.225 0 0.06 0.225 0 0.08 0.225 0 0.1 0.225 0 0 0.23 0 0.02 0.23 0 0.04 0.23 0 0.06 0.23 0 0.08 0.23 0 0.1 0.23 0 0 0.235 0 0.02 0.235 0 0.04 0.235 0 0.06 0.235 0 0.08 0.235 0 0.1 0.235 0 0 0.24 0 0.02 0.24 0 0.04 0.24 0 0.06 0.24 0 0.08 0.24 0 0.1 0.24 0 0 0.245 0 0.02 0.245 0 0.04 0.245 0 0.06 0.245 0 0.08 0.245 0 0.1 0.245 0 0 0.25 0 0.02 0.25 0 0.04 0.25 0 0.06 0.25 0 0.08 0.25 0 0.1 0.25 0 0 0.255 0 0.02 0.255 0 0.04 0.255 0 0.06 0.255 0 0.08 0.255 0 0.1 0.255 0 0 0.26 0 0.02 0.26 0 0.04 0.26 0 0.06 0.26 0 0.08 0.26 0 0.1 0.26 0 0 0.265 0 0.02 0.265 0 0.04 0.265 0 0.06 0.265 0 0.08 0.265 0 0.1 0.265 0 0 0.27 0 0.02 0.27 0 0.04 0.27 0 0.06 0.27 0 0.08 0.27 0 0.1 0.27 0 0 0.275 0 0.02 0.275 0 0.04 0.275 0 0.06 0.275 0 0.08 0.275 0 0.1 0.275 0 0 0.28 0 0.02 0.28 0 0.04 0.28 0 0.06 0.28 0 0.08 0.28 0 0.1 0.28 0 0 0.285 0 0.02 0.285 0 0.04 0.285 0 0.06 0.285 0 0.08 0.285 0 0.1 0.285 0 0 0.29 0 0.02 0.29 0 0.04 0.29 0 0.06 0.29 0 0.08 0.29 0 0.1 0.29 0 0 0.295 0 0.02 0.295 0 0.04 0.295 0 0.06 0.295 0 0.08 0.295 0 0.1 0.295 0 0 0.3 0 0.02 0.3 0 0.04 0.3 0 0.06 0.3 0 0.08 0.3 0 0.1 0.3 0 0 0.305 0 0.02 0.305 0 0.04 0.305 0 0.06 0.305 0 0.08 0.305 0 0.1 0.305 0 0 0.31 0 0.02 0.31 0 0.04 0.31 0 0.06 0.31 0 0.08 0.31 0 0.1 0.31 0 0 0.315 0 0.02 0.315 0 0.04 0.315 0 0.06 0.315 0 0.08 0.315 0 0.1 0.315 0 0 0.32 0 0.02 0.32 0 0.04 0.32 0 0.06 0.32 0 0.08 0.32 0 0.1 0.32 0 0 0.325 0 0.02 0.325 0 0.04 0.325 0 0.06 0.325 0 0.08 0.325 0 0.1 0.325 0 0 0.33 0 0.02 0.33 0 0.04 0.33 0 0.06 0.33 0 0.08 0.33 0 0.1 0.33 0 0 0.335 0 0.02 0.335 0 0.04 0.335 0 0.06 0.335 0 0.08 0.335 0 0.1 0.335 0 0 0.34 0 0.02 0.34 0 0.04 0.34 0 0.06 0.34 0 0.08 0.34 0 0.1 0.34 0 0 0.345 0 0.02 0.345 0 0.04 0.345 0 0.06 0.345 0 0.08 0.345 0 0.1 0.345 0 0 0.35 0 0.02 0.35 0 0.04 0.35 0 0.06 0.35 0 0.08 0.35 0 0.1 0.35 0 0 0.355 0 0.02 0.355 0 0.04 0.355 0 0.06 0.355 0 0.08 0.355 0 0.1 0.355 0 0 0.36 0 0.02 0.36 0 0.04 0.36 0 0.06 0.36 0 0.08 0.36 0 0.1 0.36 0 0 0.365 0 0.02 0.365 0 0.04 0.365 0 0.06 0.365 0 0.08 0.365 0 0.1 0.365 0 0 0.37 0 0.02 0.37 0 0.04 0.37 0 0.06 0.37 0 0.08 0.37 0 0.1 0.37 0 0 0.375 0 0.02 0.375 0 0.04 0.375 0 0.06 0.375 0 0.08 0.375 0 0.1 0.375 0 0 0.38 0 0.02 0.38 0 0.04 0.38 0 0.06 0.38 0 0.08 0.38 0 0.1 0.38 0 0 0.385 0 0.02 0.385 0 0.04 0.385 0 0.06 0.385 0 0.08 0.385 0 0.1 0.385 0 0 0.39 0 0.02 0.39 0 0.04 0.39 0 0.06 0.39 0 0.08 0.39 0 0.1 0.39 0 0 0.395 0 0.02 0.395 0 0.04 0.395 0 0.06 0.395 0 0.08 0.395 0 0.1 0.395 0 0 0.4 0 0.02 0.4 0 0.04 0.4 0 0.06 0.4 0 0.08 0.4 0 0.1 0.4 0 0 0.405 0 0.02 0.405 0 0.04 0.405 0 0.06 0.405 0 0.08 0.405 0 0.1 0.405 0 0 0.41 0 0.02 0.41 0 0.04 0.41 0 0.06 0.41 0 0.08 0.41 0 0.1 0.41 0 0 0.415 0 0.02 0.415 0 0.04 0.415 0 0.06 0.415 0 0.08 0.415 0 0.1 0.415 0 0 0.42 0 0.02 0.42 0 0.04 0.42 0 0.06 0.42 0 0.08 0.42 0 0.1 0.42 0 0 0.425 0 0.02 0.425 0 0.04 0.425 0 0.06 0.425 0 0.08 0.425 0 0.1 0.425 0 0 0.43 0 0.02 0.43 0 0.04 0.43 0 0.06 0.43 0 0.08 0.43 0 0.1 0.43 0 0 0.435 0 0.02 0.435 0 0.04 0.435 0 0.06 0.435 0 0.08 0.435 0 0.1 0.435 0 0 0.44 0 0.02 0.44 0 0.04 0.44 0 0.06 0.44 0 0.08 0.44 0 0.1 0.44 0 0 0.445 0 0.02 0.445 0 0.04 0.445 0 0.06 0.445 0 0.08 0.445 0 0.1 0.445 0 0 0.45 0 0.02 0.45 0 0.04 0.45 0 0.06 0.45 0 0.08 0.45 0 0.1 0.45 0 0 0.455 0 0.02 0.455 0 0.04 0.455 0 0.06 0.455 0 0.08 0.455 0 0.1 0.455 0 0 0.46 0 0.02 0.46 0 0.04 0.46 0 0.06 0.46 0 0.08 0.46 0 0.1 0.46 0 0 0.465 0 0.02 0.465 0 0.04 0.465 0 0.06 0.465 0 0.08 0.465 0 0.1 0.465 0 0 0.47 0 0.02 0.47 0 0.04 0.47 0 0.06 0.47 0 0.08 0.47 0 0.1 0.47 0 0 0.475 0 0.02 0.475 0 0.04 0.475 0 0.06 0.475 0 0.08 0.475 0 0.1 0.475 0 0 0.48 0 0.02 0.48 0 0.04 0.48 0 0.06 0.48 0 0.08 0.48 0 0.1 0.48 0 0 0.485 0 0.02 0.485 0 0.04 0.485 0 0.06 0.485 0 0.08 0.485 0 0.1 0.485 0 0 0.49 0 0.02 0.49 0 0.04 0.49 0 0.06 0.49 0 0.08 0.49 0 0.1 0.49 0 0 0.495 0 0.02 0.495 0 0.04 0.495 0 0.06 0.495 0 0.08 0.495 0 0.1 0.495 0 0 0.5 0 0.02 0.5 0 0.04 0.5 0 0.06 0.5 0 0.08 0.5 0 0.1 0.5 0 0 0.505 0 0.02 0.505 0 0.04 0.505 0 0.06 0.505 0 0.08 0.505 0 0.1 0.505 0 0 0.51 0 0.02 0.51 0 0.04 0.51 0 0.06 0.51 0 0.08 0.51 0 0.1 0.51 0 0 0.515 0 0.02 0.515 0 0.04 0.515 0 0.06 0.515 0 0.08 0.515 0 0.1 0.515 0 0 0.52 0 0.02 0.52 0 0.04 0.52 0 0.06 0.52 0 0.08 0.52 0 0.1 0.52 0 0 0.525 0 0.02 0.525 0 0.04 0.525 0 0.06 0.525 0 0.08 0.525 0 0.1 0.525 0 0 0.53 0 0.02 0.53 0 0.04 0.53 0 0.06 0.53 0 0.08 0.53 0 0.1 0.53 0 0 0.535 0 0.02 0.535 0 0.04 0.535 0 0.06 0.535 0 0.08 0.535 0 0.1 0.535 0 0 0.54 0 0.02 0.54 0 0.04 0.54 0 0.06 0.54 0 0.08 0.54 0 0.1 0.54 0 0 0.545 0 0.02 0.545 0 0.04 0.545 0 0.06 0.545 0 0.08 0.545 0 0.1 0.545 0 0 0.55 0 0.02 0.55 0 0.04 0.55 0 0.06 0.55 0 0.08 0.55 0 0.1 0.55 0 0 0.555 0 0.02 0.555 0 0.04 0.555 0 0.06 0.555 0 0.08 0.555 0 0.1 0.555 0 0 0.56 0 0.02 0.56 0 0.04 0.56 0 0.06 0.56 0 0.08 0.56 0 0.1 0.56 0 0 0.565 0 0.02 0.565 0 0.04 0.565 0 0.06 0.565 0 0.08 0.565 0 0.1 0.565 0 0 0.57 0 0.02 0.57 0 0.04 0.57 0 0.06 0.57 0 0.08 0.57 0 0.1 0.57 0 0 0.575 0 0.02 0.575 0 0.04 0.575 0 0.06 0.575 0 0.08 0.575 0 0.1 0.575 0 0 0.58 0 0.02 0.58 0 0.04 0.58 0 0.06 0.58 0 0.08 0.58 0 0.1 0.58 0 0 0.585 0 0.02 0.585 0 0.04 0.585 0 0.06 0.585 0 0.08 0.585 0 0.1 0.585 0 0 0.59 0 0.02 0.59 0 0.04 0.59 0 0.06 0.59 0 0.08 0.59 0 0.1 0.59 0 0 0.595 0 0.02 0.595 0 0.04 0.595 0 0.06 0.595 0 0.08 0.595 0 0.1 0.595 0 0 0.6 0 0.02 0.6 0 0.04 0.6 0 0.06 0.6 0 0.08 0.6 0 0.1 0.6 0 0 0.605 0 0.02 0.605 0 0.04 0.605 0 0.06 0.605 0 0.08 0.605 0 0.1 0.605 0 0 0.61 0 0.02 0.61 0 0.04 0.61 0 0.06 0.61 0 0.08 0.61 0 0.1 0.61 0 0 0.615 0 0.02 0.615 0 0.04 0.615 0 0.06 0.615 0 0.08 0.615 0 0.1 0.615 0 0 0.62 0 0.02 0.62 0 0.04 0.62 0 0.06 0.62 0 0.08 0.62 0 0.1 0.62 0 0 0.625 0 0.02 0.625 0 0.04 0.625 0 0.06 0.625 0 0.08 0.625 0 0.1 0.625 0 0 0.63 0 0.02 0.63 0 0.04 0.63 0 0.06 0.63 0 0.08 0.63 0 0.1 0.63 0 0 0.635 0 0.02 0.635 0 0.04 0.635 0 0.06 0.635 0 0.08 0.635 0 0.1 0.635 0 0 0.64 0 0.02 0.64 0 0.04 0.64 0 0.06 0.64 0 0.08 0.64 0 0.1 0.64 0 0 0.645 0 0.02 0.645 0 0.04 0.645 0 0.06 0.645 0 0.08 0.645 0 0.1 0.645 0 0 0.65 0 0.02 0.65 0 0.04 0.65 0 0.06 0.65 0 0.08 0.65 0 0.1 0.65 0 0 0.655 0 0.02 0.655 0 0.04 0.655 0 0.06 0.655 0 0.08 0.655 0 0.1 0.655 0 0 0.66 0 0.02 0.66 0 0.04 0.66 0 0.06 0.66 0 0.08 0.66 0 0.1 0.66 0 0 0.665 0 0.02 0.665 0 0.04 0.665 0 0.06 0.665 0 0.08 0.665 0 0.1 0.665 0 0 0.67 0 0.02 0.67 0 0.04 0.67 0 0.06 0.67 0 0.08 0.67 0 0.1 0.67 0 0 0.675 0 0.02 0.675 0 0.04 0.675 0 0.06 0.675 0 0.08 0.675 0 0.1 0.675 0 0 0.68 0 0.02 0.68 0 0.04 0.68 0 0.06 0.68 0 0.08 0.68 0 0.1 0.68 0 0 0.685 0 0.02 0.685 0 0.04 0.685 0 0.06 0.685 0 0.08 0.685 0 0.1 0.685 0 0 0.69 0 0.02 0.69 0 0.04 0.69 0 0.06 0.69 0 0.08 0.69 0 0.1 
[...]
			<PointData Scalars="VitesseX">
				<DataArray Name="VitesseX" type="Float32" format="ascii">
 0 4.23519e-14 7.2391e-14 4.60156e-14 2.60833e-14 0 0 4.5522e-14 7.08144e-14 4.20178e-14 3.03816e-14 0 0 4.8334e-14 6.56707e-14 4.15454e-14 3.00418e-14 0 0 4.47553e-14 5.79856e-14 4.77799e-14 2.36826e-14 0 0 4.02039e-14 5.15045e-14 4.90476e-14 2.78219e-14 0 0 3.54845e-14 4.72576e-14 4.87665e-14 3.27608e-14 0 0 3.39577e-14 3.55695e-14 5.89976e-14 2.68986e-14 0 0 1.52272e-14 5.8213e-14 3.82624e-14 3.63798e-14 0 0 1.84674e-14 5.55537e-14 3.16023e-14 5.05761e-14 0 0 2.93103e-14 4.1259e-14 4.01166e-14 6.36146e-14 0 0 1.75072e-14 4.50751e-14 6.0079e-14 4.37209e-14 0 0 3.29094e-14 -3.05234e-15 1.29881e-13 -1.92632e-14 0 0 1.49349e-14 2.75073e-14 1.06427e-13 -3.04011e-14 0 0 -3.37368e-14 1.30705e-13 -4.47552e-15 2.99694e-14 0 0 -2.95653e-16 1.1064e-13 -1.55961e-14 5.80076e-14 0 0 3.3026e-14 6.87574e-14 1.70218e-14 5.05077e-14 0 0 5.82898e-14 2.72733e-14 7.74814e-14 1.94618e-14 0 0 6.92573e-14 1.51642e-14 9.47142e-14 2.93066e-14 0 0 1.83625e-14 1.12743e-13 -1.76795e-14 1.2806e-13 0 0 2.77539e-14 1.12893e-13 -3.3381e-14 1.52348e-13 0 0 8.536e-14 2.69216e-14 8.08016e-14 2.99838e-14 0 0 8.6429e-14 6.41209e-14 4.33965e-14 2.67992e-15 0 0 2.83682e-14 1.94079e-13 -1.13507e-13 8.82109e-14 0 0 -1.77818e-14 2.70022e-13 -1.77744e-13 1.23915e-13 0 0 2.87954e-14 1.70442e-13 -3.56681e-14 3.71218e-14 0 0 6.61366e-14 1.14677e-13 2.55707e-14 -8.81339e-16 0 0 1.1483e-13 5.58259e-14 6.81932e-14 -5.48634e-14 0 0 1.27924e-13 6.31445e-14 1.42673e-14 -4.43634e-14 0 0 1.27986e-13 6.97414e-14 -5.14894e-14 3.89118e-14 0 0 1.44684e-13 -2.27586e-14 6.61746e-14 -1.99183e-14 0 0 9.00964e-14 4.79556e-14 -1.2727e-14 3.61322e-14 0 0 1.15321e-13 2.0912e-14 1.33112e-14 8.60094e-15 0 0 1.05e-13 6.70702e-14 8.05556e-15 -1.2603e-14 0 0 5.34045e-14 1.78749e-13 -4.57669e-14 3.5512e-14 0 0 8.69526e-14 1.32495e-13 5.25681e-14 1.24032e-14 0 0 1.21588e-13 9.57087e-14 6.29968e-14 8.88389e-14 0 0 7.51278e-14 1.68267e-13 1.75393e-14 9.26558e-14 0 0 3.47233e-14 2.23877e-13 -6.04578e-15 9.78198e-14 0 0 7.23479e-14 1.47623e-13 5.17175e-14 1.26605e-13 0 0 1.41999e-13 -6.08023e-15 2.24033e-13 -4.55597e-16 0 0 5.67212e-14 7.33029e-14 1.20482e-13 5.33239e-14 0 0 -1.62426e-13 3.68141e-13 -1.77082e-13 2.18828e-13 0 0 -1.05803e-13 2.29124e-13 -2.90449e-14 1.11801e-13 0 0 -6.94986e-14 8.94935e-14 1.24987e-13 -1.77795e-14 0 0 -1.84715e-14 4.65803e-14 1.30689e-13 -5.02673e-14 0 0 7.47561e-14 -2.97826e-14 2.03138e-13 -9.45158e-14 0 0 1.57302e-14 7.88917e-14 2.07833e-13 -1.38541e-13 0 0 -2.80348e-14 2.55328e-13 7.82791e-14 -1.02185e-13 0 0 -4.61717e-15 2.9218e-13 9.97272e-15 -2.05873e-15 0 0 3.70376e-14 2.00387e-13 1.04035e-13 -8.2376e-15 0 0 -9.66103e-14 3.61624e-13 3.94315e-14 1.27217e-14 0 0 -3.67435e-14 3.42546e-13 1.20041e-13 1.91951e-14 0 0 1.8105e-13 1.88812e-13 2.66641e-13 -5.09204e-14 0 0 1.6492e-13 1.95548e-13 2.46396e-13 -3.8156e-14 0 0 2.3026e-14 2.53112e-13 1.28625e-13 1.32247e-13 0 0 -5.59703e-14 2.24449e-13 1.31806e-13 3.01529e-13 0 0 -1.25383e-14 9.76973e-14 4.19688e-13 2.95049e-13 0 0 2.85594e-14 3.0991e-13 4.40909e-13 4.46367e-13 0 0 2.0611e-13 5.9662e-13 6.09308e-13 6.35281e-13 0 0 6.02593e-13 1.10639e-12 1.25563e-12 9.56646e-13 0 0 1.44689e-12 2.29983e-12 2.57636e-12 1.75362e-12 0 0 2.97365e-12 4.73231e-12 5.06112e-12 3.14973e-12 0 0 5.41172e-12 8.96596e-12 9.07269e-12 5.51019e-12 0 0 9.17152e-12 1.49736e-11 1.49841e-11 9.10762e-12 0 0 1.40823e-11 2.26598e-11 2.26802e-11 1.3855e-11 0 0 1.96477e-11 3.16827e-11 3.15646e-11 1.94378e-11 0 0 2.55952e-11 4.0999e-11 4.11133e-11 2.52097e-11 0 0 3.11502e-11 5.02356e-11 4.98571e-11 3.09101e-11 0 0 3.59671e-11 5.81633e-11 5.75406e-11 3.55883e-11 0 0 3.989e-11 6.38215e-11 6.35905e-11 3.88145e-11 0 0 4.22152e-11 6.76124e-11 6.6588e-11 4.11619e-11 0 0 4.27813e-11 6.88781e-11 6.71608e-11 4.18666e-11 0 0 4.15698e-11 6.65987e-11 6.57289e-11 4.00489e-11 0 0 3.85946e-11 6.21527e-11 6.1129e-11 3.7214e-11 0 0 3.3766e-11 5.49816e-11 5.30682e-11 3.30848e-11 0 0 2.75402e-11 4.40329e-11 4.37951e-11 2.6359e-11 0 0 1.93874e-11 3.11311e-11 3.10268e-11 1.95061e-11 0 0 9.33306e-12 1.61296e-11 1.61071e-11 1.14301e-11 0 0 -1.93626e-12 -1.6289e-12 -3.41622e-14 1.55247e-12 0 0 -1.48604e-11 -2.06136e-11 -1.81872e-11 -8.74399e-12 0 0 -2.84886e-11 -4.18637e-11 -3.67356e-11 -2.05475e-11 0 0 -4.3364e-11 -6.39648e-11 -5.71715e-11 -3.25711e-11 0 0 -5.8631e-11 -8.69522e-11 -7.81109e-11 -4.48635e-11 0 0 -7.47982e-11 -1.10875e-10 -1.00723e-10 -5.69011e-11 0 0 -9.06167e-11 -1.34733e-10 -1.23068e-10 -6.9514e-11 0 0 -1.06475e-10 -1.59932e-10 -1.45703e-10 -8.27152e-11 0 0 -1.22134e-10 -1.8487e-10 -1.68215e-10 -9.5933e-11 0 0 -1.3744e-10 -2.09114e-10 -1.90854e-10 -1.09173e-10 0 0 -1.52313e-10 -2.32573e-10 -2.14005e-10 -1.22945e-10 0 0 -1.66503e-10 -2.55216e-10 -2.36993e-10 -1.36727e-10 0 0 -1.79654e-10 -2.76895e-10 -2.59507e-10 -1.50822e-10 0 0 -1.91513e-10 -2.97429e-10 -2.81461e-10 -1.65138e-10 0 0 -2.02001e-10 -3.16674e-10 -3.03001e-10 -1.8048e-10 0 0 -2.11127e-10 -3.34616e-10 -3.2442e-10 -1.96187e-10 0 0 -2.18645e-10 -3.51748e-10 -3.46074e-10 -2.09803e-10 0 0 -2.2436e-10 -3.66594e-10 -3.67276e-10 -2.29104e-10 0 0 -2.10486e-10 -3.95164e-10 -4.00179e-10 -2.18119e-10 0 0 -1.54624e-10 -4.59204e-10 -4.56175e-10 -1.68316e-10 0 0 -2.85568e-10 -4.54851e-10 -4.95584e-10 -2.07749e-10 0 0 -3.38074e-09 9.86784e-10 2.05686e-09 -3.77115e-09 0 0 -7.43072e-09 3.46264e-09 4.92795e-09 -8.04525e-09 0 0 -3.7613e-09 2.00027e-09 1.56486e-09 -3.51147e-09 0 0 -1.33853e-09 7.48217e-10 2.57629e-10 -1.28046e-09 0 0 2.80574e-09 -1.82539e-09 -1.38554e-09 1.88796e-09 0 0 1.41362e-08 -8.42271e-09 -8.20307e-09 1.28127e-08 0 0 2.38336e-08 -1.29689e-08 -1.62206e-08 2.43128e-08 0 0 2.34565e-08 -1.25416e-08 -1.64211e-08 2.44488e-08 0 0 1.68361e-08 -9.1662e-09 -1.07838e-08 1.68548e-08 0 0 1.46646e-09 -8.98352e-10 1.1209e-09 -2.55326e-10 0 0 -8.67531e-09 5.94747e-09 5.44839e-09 -7.9934e-09 0 0 -1.16342e-08 7.84882e-09 6.35061e-09 -1.02243e-08 0 0 -1.27014e-08 7.72682e-09 8.98691e-09 -1.30326e-08 0 0 -1.17397e-08 6.01836e-09 8.96497e-09 -1.26695e-08 0 0 -7.20666e-09 2.97457e-09 6.26739e-09 -8.77638e-09 0 0 -1.24893e-09 1.78137e-11 1.34316e-09 -1.46258e-09 0 0 4.02309e-09 -2.06511e-09 -3.17043e-09 5.10885e-09 0 0 4.86717e-09 -2.17862e-09 -3.93334e-09 6.01217e-09 0 0 4.40178e-09 -1.60222e-09 -3.6976e-09 5.62089e-09 0 0 2.61843e-09 -1.09816e-09 -1.34016e-09 2.6453e-09 0 0 8.29355e-10 -8.96847e-10 1.63256e-09 -1.08166e-09 0 0 -6.9888e-10 -2.783e-10 1.62522e-09 -1.28364e-09 0 0 -9.30051e-10 7.81512e-11 1.13626e-09 -1.08925e-09 0 0 -6.96399e-10 -9.61162e-11 9.62745e-10 -9.64934e-10 0 0 -4.20606e-10 -1.43642e-10 7.68304e-10 -8.00411e-10 0 0 -3.9448e-10 3.10728e-10 -1.20253e-10 -1.79069e-10 0 0 -3.57307e-10 6.21251e-10 -1.05427e-09 5.18704e-10 0 0 -1.7663e-10 4.1557e-10 -1.07234e-09 8.17207e-10 0 0 -4.88562e-11 4.02214e-10 -1.23578e-09 1.21917e-09 0 0 2.80327e-10 3.61629e-10 -1.34816e-09 1.35778e-09 0 0 1.0657e-09 -9.07232e-10 2.76627e-10 1.89161e-10 0 0 1.08918e-09 -1.29642e-09 8.42019e-10 -3.79608e-10 0 0 8.04154e-10 -8.96537e-10 1.04443e-09 -6.69855e-10 0 0 6.90015e-10 -1.00027e-09 2.08078e-09 -1.57526e-09 0 0 5.26286e-10 -9.39775e-10 2.64845e-09 -2.21714e-09 0 0 -3.68256e-11 -2.80313e-10 2.45289e-09 -2.21222e-09 0 0 -6.40971e-10 5.53628e-10 1.68633e-09 -2.00674e-09 0 0 -9.47098e-10 9.71508e-10 7.9815e-10 -1.42846e-09 0 0 -9.41656e-10 9.75369e-10 1.03665e-10 -8.84076e-10 0 0 -6.4665e-10 7.45196e-10 -4.80449e-11 -4.05881e-10 0 0 -1.51933e-10 2.98946e-10 -1.36097e-10 -2.15321e-13 0 0 1.42163e-10 5.60129e-12 -2.12663e-10 1.89073e-10 0 0 2.35456e-10 -1.10465e-10 -2.47533e-10 2.5053e-10 0 0 2.378e-10 -1.34838e-10 -2.36085e-10 2.46411e-10 0 0 1.66784e-10 -1.0079e-10 -1.66306e-10 1.56155e-10 0 0 6.982e-11 -2.04218e-11 -9.19518e-11 6.63657e-11 0 0 3.21021e-11 3.91064e-11 -3.71211e-11 3.15812e-11 0 0 1.29569e-11 8.0039e-11 -1.00638e-11 2.34846e-11 0 0 2.14617e-11 6.5163e-11 5.86419e-11 -1.47552e-11 0 0 3.96414e-11 5.14639e-11 1.06753e-10 -3.2973e-11 0 0 4.96159e-11 5.06051e-11 1.10888e-10 -2.81314e-11 0 0 5.61029e-11 5.30865e-11 1.07225e-10 -2.05999e-12 0 0 4.95639e-11 8.00473e-11 7.17991e-11 5.08687e-11 0 0 5.29513e-11 7.85659e-11 7.63684e-11 5.51478e-11 0 0 5.23097e-11 8.01554e-11 7.49859e-11 6.48135e-11 0 0 5.2735e-11 7.49469e-11 8.31068e-11 6.16884e-11 0 0 4.84174e-11 7.25511e-11 8.23657e-11 5.59858e-11 0 0 4.20024e-11 6.80091e-11 7.35061e-11 4.86923e-11 0 0 3.54448e-11 5.8383e-11 6.10443e-11 3.99354e-11 0 0 2.78713e-11 4.60891e-11 4.75211e-11 3.06609e-11 0 0 1.99492e-11 3.28189e-11 3.37238e-11 2.14158e-11 0 0 1.26465e-11 2.07689e-11 2.08858e-11 1.35115e-11 0 0 6.93622e-12 1.14024e-11 1.11482e-11 7.49816e-12 0 0 3.26807e-12 5.26312e-12 5.25795e-12 3.45621e-12 0 0 1.31904e-12 2.13592e-12 2.27787e-12 1.17014e-12 0 0 5.72994e-13 6.53143e-13 1.18071e-12 1.74682e-13 0 0 2.44902e-13 1.96349e-13 6.2934e-13 -6.65944e-14 0 0 6.09384e-14 1.42971e-13 3.9577e-13 -1.84344e-13 0 0 -3.64727e-14 1.7621e-13 2.55881e-13 -1.7117e-13 0 0 -9.58287e-14 2.38136e-13 1.36558e-13 -1.35983e-13 0 0 2.21258e-14 6.31587e-14 2.61874e-13 -1.66751e-13 0 0 4.22713e-14 3.87137e-15 2.31614e-13 -6.46869e-14 0 0 5.91207e-15 1.95019e-14 1.37647e-13 4.37192e-14 0 0 -1.10622e-14 6.67062e-14 3.61721e-15 1.17074e-13 0 0 6.58148e-15 -2.57873e-14 1.12365e-14 2.02419e-13 0 0 3.32328e-14 -1.81e-13 2.21043e-13 3.16122e-14 0 0 4.3037e-14 -2.15598e-13 2.91845e-13 -6.75396e-14 0 0 1.11821e-13 -2.6363e-13 2.11709e-13 1.27669e-13 0 0 6.97647e-14 -1.50115e-13 4.77454e-14 2.66429e-13 0 0 4.15358e-14 -1.77847e-13 2.03837e-13 1.69526e-13 0 0 -2.32544e-14 -6.27105e-14 1.73134e-13 1.85388e-13 0 0 -1.76321e-14 1.16541e-14 1.53894e-13 1.46151e-13 0 0 1.16046e-13 -1.58393e-13 3.94625e-13 -4.29748e-14 0 0 1.08518e-13 -2.75533e-14 3.24678e-13 -4.50132e-14 0 0 3.26108e-14 2.19197e-13 2.41781e-13 -1.20451e-13 0 0 1.87333e-14 4.01622e-13 1.35513e-13 -5.91702e-14 0 0 1.36273e-13 2.92622e-13 2.88844e-13 -1.44024e-13 0 0 1.45639e-13 2.78842e-13 2.90408e-13 -1.59705e-13 0 0 -6.58551e-15 5.10506e-13 -7.08862e-14 2.11211e-14 0 0 -3.96583e-14 4.31685e-13 1.07301e-13 -2.79037e-13 0 0 -8.39942e-14 2.52956e-13 4.16887e-13 -3.87924e-13 0 0 -2.45404e-14 7.40163e-14 3.58758e-13 -8.62531e-14 0 0 4.13878e-14 7.47782e-14 1.738e-13 5.10586e-14 0 0 2.04752e-13 -1.0021e-13 2.81472e-13 -1.28429e-13 0 0 3.03515e-13 -1.88561e-13 1.86399e-13 -6.56226e-14 0 0 2.05106e-13 1.73139e-14 -2.0621e-13 2.12163e-13 0 0 9.63731e-14 1.23193e-13 -3.65297e-13 3.15459e-13 0 0 3.12812e-13 -2.29071e-13 -1.85477e-13 4.00625e-13 0 0 5.14731e-13 -7.23408e-13 3.02924e-13 2.30335e-13 0 0 1.54262e-13 -4.47741e-13 1.6845e-13 3.08772e-13 0 0 1.61249e-13 -3.96668e-13 -1.46159e-13 6.52808e-13 0 0 3.61823e-13 -6.17016e-13 -1.22627e-13 7.52559e-13 0
				</DataArray>
				<DataArray Name="VitesseY" type="Float32" format="ascii">