<?xml version="1.0"?>
<VTKFile type="PolyData">
	<PolyData>
		<Piece NumberOfPoints="1206" NumberOfPolys="1000">
			<Points>
				<DataArray type="Float32" NumberOfComponents="3" format="ascii">
 0 0 0 0.02 0 0 0.04 0 0 0.06 0 0 0.08 0 0 0.1 0 0 0 0.005 0 0.02 0.005 0 0.04 0.005 0 0.06 0.005 0 0.08 0.005 0 0.1 0.005 0 0 0.01 0 0.02 0.01 0 0.04 0.01 0 0.06 0.01 0 0.08 0.01 0 0.1 0.01 0 0 0.015 0 0.02 0.015 0 0.04 0.015 0 0.06 0.015 0 0.08 0.015 0 0.1 0.015 0 0 0.02 0 0.02 0.02 0 0.04 0.02 0 0.06 0.02 0 0.08 0.02 0 0.1 0.02 0 0 0.025 0 0.02 0.025 0 0.04 0.025 0 0.06 0.025 0 0.08 0.025 0 0.1 0.025 0 0 0.03 0 0.02 0.03 0 0.04 0.03 0 0.06 0.03 0 0.08 0.03 0 0.1 0.03 0 0 0.035 0 0.02 0.035 0 0.04 0.035 0 0.06 0.035 0 0.08 0.035 0 0.1 0.035 0 0 0.04 0 0.02 0.04 0 0.04 0.04 0 0.06 0.04 0 0.08 0.04 0 0.1 0.04 0 0 0.045 0 0.02 0.045 0 0.04 0.045 0 0.06 0.045 0 0.08 0.045 0 0.1 0.045 0 0 0.05 0 0.02 0.05 0 0.04 0.05 0 0.06 0.05 0 0.08 0.05 0 0.1 0.05 0 0 0.055 0 0.02 0.055 0 0.04 0.055 0 0.06 0.055 0 0.08 0.055 0 0.1 0.055 0 0 0.06 0 0.02 0.06 0 0.04 0.06 0 0.06 0.06 0 0.08 0.06 0 0.1 0.06 0 0 0.065 0 0.02 0.065 0 0.04 0.065 0 0.06 0.065 0 0.08 0.065 0 0.1 0.065 0 0 0.07 0 0.02 0.07 0 0.04 0.07 0 0.06 0.07 0 0.08 0.07 0 0.1 0.07 0 0 0.075 0 0.02 0.075 0 0.04 0.075 0 0.06 0.075 0 0.08 0.075 0 0.1 0.075 0 0 0.08 0 0.02 0.08 0 0.04 0.08 0 0.06 0.08 0 0.08 0.08 0 0.1 0.08 0 0 0.085 0 0.02 0.085 0 0.04 0.085 0 0.06 0.085 0 0.08 0.085 0 0.1 0.085 0 0 0.09 0 0.02 0.09 0 0.04 0.09 0 0.06 0.09 0 0.08 0.09 0 0.1 0.09 0 0 0.095 0 0.02 0.095 0 0.04 0.095 0 0.06 0.095 0 0.08 0.095 0 0.1 0.095 0 0 0.1 0 0.02 0.1 0 0.04 0.1 0 0.06 0.1 0 0.08 0.1 0 0.1 0.1 0 0 0.105 0 0.02 0.105 0 0.04 0.105 0 0.06 0.105 0 0.08 0.105 0 0.1 0.105 0 0 0.11 0 0.02 0.11 0 0.04 0.11 0 0.06 0.11 0 0.08 0.11 0 0.1 0.11 0 0 0.115 0 0.02 0.115 0 0.04 0.115 0 0.06 0.115 0 0.08 0.115 0 0.1 0.115 0 0 0.12 0 0.02 0.12 0 0.04 0.12 0 0.06 0.12 0 0.08 0.12 0 0.1 0.12 0 0 0.125 0 0.02 0.125 0 0.04 0.125 0 0.06 0.125 0 0.08 0.125 0 0.1 0.125 0 0 0.13 0 0.02 0.13 0 0.04 0.13 0 0.06 0.13 0 0.08 0.13 0 0.1 0.13 0 0 0.135 0 0.02 0.135 0 0.04 0.135 0 0.06 0.135 0 0.08 0.135 0 0.1 0.135 0 0 0.14 0 0.02 0.14 0 0.04 0.14 0 0.06 0.14 0 0.08 0.14 0 0.1 0.14 0 0 0.145 0 0.02 0.145 0 0.04 0.145 0 0.06 0.145 0 0.08 0.145 0 0.1 0.145 0 0 0.15 0 0.02 0.15 0 0.04 0.15 0 0.06 0.15 0 0.08 0.15 0 0.1 0.15 0 0 0.155 0 0.02 0.155 0 0.04 0.155 0 0.06 0.155 0 0.08 0.155 0 0.1 0.155 0 0 0.16 0 0.02 0.16 0 0.04 0.16 0 0.06 0.16 0 0.08 0.16 0 0.1 0.16 0 0 0.165 0 0.02 0.165 0 0.04 0.165 0 0.06 0.165 0 0.08 0.165 0 0.1 0.165 0 0 0.17 0 0.02 0.17 0 0.04 0.17 0 0.06 0.17 0 0.08 0.17 0 0.1 0.17 0 0 0.175 0 0.02 0.175 0 0.04 0.175 0 0.06 0.175 0 0.08 0.175 0 0.1 0.175 0 0 0.18 0 0.02 0.18 0 0.04 0.18 0 0.06 0.18 0 0.08 0.18 0 0.1 0.18 0 0 0.185 0 0.02 0.185 0 0.04 0.185 0 0.06 0.185 0 0.08 0.185 0 0.1 0.185 0 0 0.19 0 0.02 0.19 0 0.04 0.19 0 0.06 0.19 0 0.08 0.19 0 0.1 0.19 0 0 0.195 0 0.02 0.195 0 0.04 0.195 0 0.06 0.195 0 0.08 0.195 0 0.1 0.195 0 0 0.2 0 0.02 0.2 0 0.04 0.2 0 0.06 0.2 0 0.08 0.2 0 0.1 0.2 0 0 0.205 0 0.02 0.205 0 0.04 0.205 0 0.06 0.205 0 0.08 0.205 0 0.1 0.205 0 0 0.21 0 0.02 0.21 0 0.04 0.21 0 0.06 0.21 0 0.08 0.21 0 0.1 0.21 0 0 0.215 0 0.02 0.215 0 0.04 0.215 0 0.06 0.215 0 0.08 0.215 0 0.1 0.215 0 0 0.22 0 0.02 0.22 0 0.04 0.22 0 0.06 0.22 0 0.08 0.22 0 0.1 0.22 0 0 0.225 0 0.02 0.225 0 0.04 0.225 0 0.06 0.225 0 0.08 0.225 0 0.1 0.225 0 0 0.23 0 0.02 0.23 0 0.04 0.23 0 0.06 0.23 0 0.08 0.23 0 0.1 0.23 0 0 0.235 0 0.02 0.235 0 0.04 0.235 0 0.06 0.235 0 0.08 0.235 0 0.1 0.235 0 0 0.24 0 0.02 0.24 0 0.04 0.24 0 0.06 0.24 0 0.08 0.24 0 0.1 0.24 0 0 0.245 0 0.02 0.245 0 0.04 0.245 0 0.06 0.245 0 0.08 0.245 0 0.1 0.245 0 0 0.25 0 0.02 0.25 0 0.04 0.25 0 0.06 0.25 0 0.08 0.25 0 0.1 0.25 0 0 0.255 0 0.02 0.255 0 0.04 0.255 0 0.06 0.255 0 0.08 0.255 0 0.1 0.255 0 0 0.26 0 0.02 0.26 0 0.04 0.26 0 0.06 0.26 0 0.08 0.26 0 0.1 0.26 0 0 0.265 0 0.02 0.265 0 0.04 0.265 0 0.06 0.265 0 0.08 0.265 0 0.1 0.265 0 0 0.27 0 0.02 0.27 0 0.04 0.27 0 0.06 0.27 0 0.08 0.27 0 0.1 0.27 0 0 0.275 0 0.02 0.275 0 0.04 0.275 0 0.06 0.275 0 0.08 0.275 0 0.1 0.275 0 0 0.28 0 0.02 0.28 0 0.04 0.28 0 0.06 0.28 0 0.08 0.28 0 0.1 0.28 0 0 0.285 0 0.02 0.285 0 0.04 0.285 0 0.06 0.285 0 0.08 0.285 0 0.1 0.285 0 0 0.29 0 0.02 0.29 0 0.04 0.29 0 0.06 0.29 0 0.08 0.29 0 0.1 0.29 0 0 0.295 0 0.02 0.295 0 0.04 0.295 0 0.06 0.295 0 0.08 0.295 0 0.1 0.295 0 0 0.3 0 0.02 0.3 0 0.04 0.3 0 0.06 0.3 0 0.08 0.3 0 0.1 0.3 0 0 0.305 0 0.02 0.305 0 0.04 0.305 0 0.06 0.305 0 0.08 0.305 0 0.1 0.305 0 0 0.31 0 0.02 0.31 0 0.04 0.31 0 0.06 0.31 0 0.08 0.31 0 0.1 0.31 0 0 0.315 0 0.02 0.315 0 0.04 0.315 0 0.06 0.315 0 0.08 0.315 0 0.1 0.315 0 0 0.32 0 0.02 0.32 0 0.04 0.32 0 0.06 0.32 0 0.08 0.32 0 0.1 0.32 0 0 0.325 0 0.02 0.325 0 0.04 0.325 0 0.06 0.325 0 0.08 0.325 0 0.1 0.325 0 0 0.33 0 0.02 0.33 0 0.04 0.33 0 0.06 0.33 0 0.08 0.33 0 0.1 0.33 0 0 0.335 0 0.02 0.335 0 0.04 0.335 0 0.06 0.335 0 0.08 0.335 0 0.1 0.335 0 0 0.34 0 0.02 0.34 0 0.04 0.34 0 0.06 0.34 0 0.08 0.34 0 0.1 0.34 0 0 0.345 0 0.02 0.345 0 0.04 0.345 0 0.06 0.345 0 0.08 0.345 0 0.1 0.345 0 0 0.35 0 0.02 0.35 0 0.04 0.35 0 0.06 0.35 0 0.08 0.35 0 0.1 0.35 0 0 0.355 0 0.02 0.355 0 0.04 0.355 0 0.06 0.355 0 0.08 0.355 0 0.1 0.355 0 0 0.36 0 0.02 0.36 0 0.04 0.36 0 0.06 0.36 0 0.08 0.36 0 0.1 0.36 0 0 0.365 0 0.02 0.365 0 0.04 0.365 0 0.06 0.365 0 0.08 0.365 0 0.1 0.365 0 0 0.37 0 0.02 0.37 0 0.04 0.37 0 0.06 0.37 0 0.08 0.37 0 0.1 0.37 0 0 0.375 0 0.02 0.375 0 0.04 0.375 0 0.06 0.375 0 0.08 0.375 0 0.1 0.375 0 0 0.38 0 0.02 0.38 0 0.04 0.38 0 0.06 0.38 0 0.08 0.38 0 0.1 0.38 0 0 0.385 0 0.02 0.385 0 0.04 0.385 0 0.06 0.385 0 0.08 0.385 0 0.1 0.385 0 0 0.39 0 0.02 0.39 0 0.04 0.39 0 0.06 0.39 0 0.08 0.39 0 0.1 0.39 0 0 0.395 0 0.02 0.395 0 0.04 0.395 0 0.06 0.395 0 0.08 0.395 0 0.1 0.395 0 0 0.4 0 0.02 0.4 0 0.04 0.4 0 0.06 0.4 0 0.08 0.4 0 0.1 0.4 0 0 0.405 0 0.02 0.405 0 0.04 0.405 0 0.06 0.405 0 0.08 0.405 0 0.1 0.405 0 0 0.41 0 0.02 0.41 0 0.04 0.41 0 0.06 0.41 0 0.08 0.41 0 0.1 0.41 0 0 0.415 0 0.02 0.415 0 0.04 0.415 0 0.06 0.415 0 0.08 0.415 0 0.1 0.415 0 0 0.42 0 0.02 0.42 0 0.04 0.42 0 0.06 0.42 0 0.08 0.42 0 0.1 0.42 0 0 0.425 0 0.02 0.425 0 0.04 0.425 0 0.06 0.425 0 0.08 0.425 0 0.1 0.425 0 0 0.43 0 0.02 0.43 0 0.04 0.43 0 0.06 0.43 0 0.08 0.43 0 0.1 0.43 0 0 0.435 0 0.02 0.435 0 0.04 0.435 0 0.06 0.435 0 0.08 0.435 0 0.1 0.435 0 0 0.44 0 0.02 0.44 0 0.04 0.44 0 0.06 0.44 0 0.08 0.44 0 0.1 0.44 0 0 0.445 0 0.02 0.445 0 0.04 0.445 0 0.06 0.445 0 0.08 0.445 0 0.1 0.445 0 0 0.45 0 0.02 0.45 0 0.04 0.45 0 0.06 0.45 0 0.08 0.45 0 0.1 0.45 0 0 0.455 0 0.02 0.455 0 0.04 0.455 0 0.06 0.455 0 0.08 0.455 0 0.1 0.455 0 0 0.46 0 0.02 0.46 0 0.04 0.46 0 0.06 0.46 0 0.08 0.46 0 0.1 0.46 0 0 0.465 0 0.02 0.465 0 0.04 0.465 0 0.06 0.465 0 0.08 0.465 0 0.1 0.465 0 0 0.47 0 0.02 0.47 0 0.04 0.47 0 0.06 0.47 0 0.08 0.47 0 0.1 0.47 0 0 0.475 0 0.02 0.475 0 0.04 0.475 0 0.06 0.475 0 0.08 0.475 0 0.1 0.475 0 0 0.48 0 0.02 0.48 0 0.04 0.48 0 0.06 0.48 0 0.08 0.48 0 0.1 0.48 0 0 0.485 0 0.02 0.485 0 0.04 0.485 0 0.06 0.485 0 0.08 0.485 0 0.1 0.485 0 0 0.49 0 0.02 0.49 0 0.04 0.49 0 0.06 0.49 0 0.08 0.49 0 0.1 0.49 0 0 0.495 0 0.02 0.495 0 0.04 0.495 0 0.06 0.495 0 0.08 0.495 0 0.1 0.495 0 0 0.5 0 0.02 0.5 0 0.04 0.5 0 0.06 0.5 0 0.08 0.5 0 0.1 0.5 0 0 0.505 0 0.02 0.505 0 0.04 0.505 0 0.06 0.505 0 0.08 0.505 0 0.1 0.505 0 0 0.51 0 0.02 0.51 0 0.04 0.51 0 0.06 0.51 0 0.08 0.51 0 0.1 0.51 0 0 0.515 0 0.02 0.515 0 0.04 0.515 0 0.06 0.515 0 0.08 0.515 0 0.1 0.515 0 0 0.52 0 0.02 0.52 0 0.04 0.52 0 0.06 0.52 0 0.08 0.52 0 0.1 0.52 0 0 0.525 0 0.02 0.525 0 0.04 0.525 0 0.06 0.525 0 0.08 0.525 0 0.1 0.525 0 0 0.53 0 0.02 0.53 0 0.04 0.53 0 0.06 0.53 0 0.08 0.53 0 0.1 0.53 0 0 0.535 0 0.02 0.535 0 0.04 0.535 0 0.06 0.535 0 0.08 0.535 0 0.1 0.535 0 0 0.54 0 0.02 0.54 0 0.04 0.54 0 0.06 0.54 0 0.08 0.54 0 0.1 0.54 0 0 0.545 0 0.02 0.545 0 0.04 0.545 0 0.06 0.545 0 0.08 0.545 0 0.1 0.545 0 0 0.55 0 0.02 0.55 0 0.04 0.55 0 0.06 0.55 0 0.08 0.55 0 0.1 0.55 0 0 0.555 0 0.02 0.555 0 0.04 0.555 0 0.06 0.555 0 0.08 0.555 0 0.1 0.555 0 0 0.56 0 0.02 0.56 0 0.04 0.56 0 0.06 0.56 0 0.08 0.56 0 0.1 0.56 0 0 0.565 0 0.02 0.565 0 0.04 0.565 0 0.06 0.565 0 0.08 0.565 0 0.1 0.565 0 0 0.57 0 0.02 0.57 0 0.04 0.57 0 0.06 0.57 0 0.08 0.57 0 0.1 0.57 0 0 0.575 0 0.02 0.575 0 0.04 0.575 0 0.06 0.575 0 0.08 0.575 0 0.1 0.575 0 0 0.58 0 0.02 0.58 0 0.04 0.58 0 0.06 0.58 0 0.08 0.58 0 0.1 0.58 0 0 0.585 0 0.02 0.585 0 0.04 0.585 0 0.06 0.585 0 0.08 0.585 0 0.1 0.585 0 0 0.59 0 0.02 0.59 0 0.04 0.59 0 0.06 0.59 0 0.08 0.59 0 0.1 0.59 0 0 0.595 0 0.02 0.595 0 0.04 0.595 0 0.06 0.595 0 0.08 0.595 0 0.1 0.595 0 0 0.6 0 0.02 0.6 0 0.04 0.6 0 0.06 0.6 0 0.08 0.6 0 0.1 0.6 0 0 0.605 0 0.02 0.605 0 0.04 0.605 0 0.06 0.605 0 0.08 0.605 0 0.1 0.605 0 0 0.61 0 0.02 0.61 0 0.04 0.61 0 0.06 0.61 0 0.08 0.61 0 0.1 0.61 0 0 0.615 0 0.02 0.615 0 0.04 0.615 0 0.06 0.615 0 0.08 0.615 0 0.1 0.615 0 0 0.62 0 0.02 0.62 0 0.04 0.62 0 0.06 0.62 0 0.08 0.62 0 0.1 0.62 0 0 0.625 0 0.02 0.625 0 0.04 0.625 0 0.06 0.625 0 0.08 0.625 0 0.1 0.625 0 0 0.63 0 0.02 0.63 0 0.04 0.63 0 0.06 0.63 0 0.08 0.63 0 0.1 0.63 0 0 0.635 0 0.02 0.635 0 0.04 0.635 0 0.06 0.635 0 0.08 0.635 0 0.1 0.635 0 0 0.64 0 0.02 0.64 0 0.04 0.64 0 0.06 0.64 0 0.08 0.64 0 0.1 0.64 0 0 0.645 0 0.02 0.645 0 0.04 0.645 0 0.06 0.645 0 0.08 0.645 0 0.1 0.645 0 0 0.65 0 0.02 0.65 0 0.04 0.65 0 0.06 0.65 0 0.08 0.65 0 0.1 0.65 0 0 0.655 0 0.02 0.655 0 0.04 0.655 0 0.06 0.655 0 0.08 0.655 0 0.1 0.655 0 0 0.66 0 0.02 0.66 0 0.04 0.66 0 0.06 0.66 0 0.08 0.66 0 0.1 0.66 0 0 0.665 0 0.02 0.665 0 0.04 0.665 0 0.06 0.665 0 0.08 0.665 0 0.1 0.665 0 0 0.67 0 0.02 0.67 0 0.04 0.67 0 0.06 0.67 0 0.08 0.67 0 0.1 0.67 0 0 0.675 0 0.02 0.675 0 0.04 0.675 0 0.06 0.675 0 0.08 0.675 0 0.1 0.675 0 0 0.68 0 0.02 0.68 0 0.04 0.68 0 0.06 0.68 0 0.08 0.68 0 0.1 0.68 0 0 0.685 0 0.02 0.685 0 0.04 0.685 0 0.06 0.685 0 0.08 0.685 0 0.1 0.685 0 0 0.69 0 0.02 0.69 0 0.04 0.69 0 0.06 0.69 0 0.08 0.69 0 0.1 
[...]
			<PointData Scalars="VitesseX">
				<DataArray Name="VitesseX" type="Float32" format="ascii">
 0 2.92711e-14 4.73122e-14 5.22561e-14 2.69831e-14 0 0 2.9738e-14 4.98871e-14 4.7576e-14 2.73605e-14 0 0 4.34665e-14 3.34466e-14 6.06835e-14 1.55297e-14 0 0 3.61735e-14 5.01265e-14 4.74158e-14 1.83284e-14 0 0 2.84896e-14 7.649e-14 2.18217e-14 3.08818e-14 0 0 6.26805e-14 2.92845e-14 7.26904e-14 1.10236e-15 0 0 6.52354e-14 3.15733e-14 7.36829e-14 3.72513e-15 0 0 6.75417e-14 3.47708e-14 7.62414e-14 2.12058e-15 0 0 6.88091e-14 3.38476e-14 8.57358e-14 -7.26219e-15 0 0 4.35204e-14 7.65611e-14 3.53562e-14 3.33967e-14 0 0 3.62966e-14 8.86288e-14 1.67399e-14 5.34077e-14 0 0 4.39147e-14 7.29641e-14 4.51705e-14 2.54842e-14 0 0 7.14619e-14 3.93708e-14 1.01566e-13 -3.48088e-14 0 0 7.03037e-14 7.12575e-14 7.39565e-14 -2.06739e-14 0 0 3.0843e-14 1.32216e-13 5.78115e-15 4.28979e-14 0 0 5.74328e-14 6.91978e-14 6.58346e-14 4.4387e-16 0 0 5.38076e-14 8.95444e-14 1.5698e-14 2.56351e-14 0 0 3.78011e-14 1.22778e-13 -3.29233e-14 7.71472e-14 0 0 5.18532e-14 9.01056e-14 1.42017e-14 7.40788e-14 0 0 2.4989e-14 1.32884e-13 -1.62111e-14 9.21901e-14 0 0 4.56909e-14 8.36131e-14 5.95371e-14 3.41745e-14 0 0 2.22126e-14 1.37124e-13 -1.28911e-15 5.88942e-14 0 0 1.03064e-14 1.7464e-13 -3.14367e-14 4.59045e-14 0 0 -2.38635e-15 1.89364e-13 -5.71838e-14 8.37139e-14 0 0 6.4562e-14 8.0765e-14 1.89096e-14 8.35219e-14 0 0 1.31383e-13 -4.8453e-14 1.78194e-13 -2.32413e-14 0 0 5.10802e-14 7.47203e-14 8.28551e-14 3.84472e-15 0 0 5.85766e-14 1.35471e-13 -5.85867e-14 9.94079e-14 0 0 1.30591e-13 4.78991e-14 -5.76389e-14 1.34202e-13 0 0 1.36807e-13 4.73691e-14 -9.05158e-14 1.50415e-13 0 0 1.20653e-13 1.28612e-13 -1.91452e-13 1.57262e-13 0 0 1.98355e-13 -1.22326e-14 4.33114e-14 -8.95036e-14 0 0 1.47428e-13 4.67737e-14 3.91672e-14 -1.37287e-13 0 0 6.9202e-14 1.35878e-13 -5.76622e-14 -1.58867e-14 0 0 8.41253e-14 4.60635e-14 7.12489e-14 -2.45289e-14 0 0 4.78974e-14 9.48883e-14 4.73007e-15 9.80912e-14 0 0 6.90795e-14 6.5355e-14 1.26721e-14 1.10297e-13 0 0 1.84648e-14 1.80571e-13 -1.14076e-13 1.81822e-13 0 0 -3.19471e-14 2.7697e-13 -2.14755e-13 2.91059e-13 0 0 3.84757e-14 1.38076e-13 -5.08164e-14 1.75116e-13 0 0 4.93997e-14 1.52039e-13 -3.60259e-14 1.17937e-13 0 0 9.52687e-14 1.4066e-13 -5.19507e-14 1.53101e-13 0 0 4.50549e-14 1.5923e-13 -7.48999e-14 1.96315e-13 0 0 -2.39646e-14 1.69153e-13 -4.5874e-14 1.66255e-13 0 0 7.62143e-15 6.20636e-14 1.05854e-13 6.5936e-14 0 0 8.74394e-14 -8.44453e-14 2.59782e-13 -1.26869e-14 0 0 6.4557e-14 1.8682e-14 5.53045e-14 1.53147e-13 0 0 7.25335e-14 4.45649e-14 -3.30625e-14 2.06699e-13 0 0 6.60035e-14 3.74992e-15 2.18377e-14 1.36954e-13 0 0 -9.07788e-14 1.47984e-13 -2.50249e-14 1.21388e-13 0 0 -4.80894e-14 7.13703e-15 2.62392e-13 -8.85044e-14 0 0 2.14311e-14 -4.54888e-14 3.06827e-13 -8.86932e-14 0 0 -3.04383e-14 2.04763e-13 -1.10103e-14 1.20765e-13 0 0 8.39562e-15 2.7352e-13 -2.3331e-14 7.90682e-14 0 0 6.7558e-14 2.09016e-13 1.36639e-13 -4.8998e-14 0 0 3.70642e-14 2.06658e-13 1.55026e-13 -2.50338e-14 0 0 -1.64289e-14 3.34936e-13 5.28179e-14 3.60411e-14 0 0 1.36749e-13 3.3204e-13 6.55675e-14 1.32898e-14 0 0 3.44531e-13 2.19207e-13 2.06712e-13 -8.52294e-14 0 0 2.85399e-13 3.79543e-13 1.34728e-13 -6.37386e-14 0 0 2.10966e-13 4.12879e-13 7.8916e-14 1.4668e-14 0 0 2.02177e-13 3.13172e-13 1.3177e-13 4.95729e-14 0 0 1.64972e-13 3.72985e-13 1.14362e-13 1.19126e-13 0 0 2.81536e-13 3.12644e-13 2.21502e-13 1.70022e-13 0 0 4.01044e-13 3.19052e-13 3.00828e-13 3.82682e-13 0 0 4.29018e-13 6.21485e-13 5.80418e-13 6.25067e-13 0 0 7.36804e-13 1.32573e-12 1.46796e-12 9.46922e-13 0 0 1.76453e-12 3.0097e-12 3.27898e-12 1.83924e-12 0 0 3.93598e-12 6.64092e-12 6.66031e-12 3.93644e-12 0 0 7.82306e-12 1.29231e-11 1.26994e-11 7.74905e-12 0 0 1.39254e-11 2.20998e-11 2.22289e-11 1.35362e-11 0 0 2.17334e-11 3.46261e-11 3.47845e-11 2.12114e-11 0 0 3.087e-11 4.94469e-11 4.96907e-11 3.00785e-11 0 0 4.08232e-11 6.52838e-11 6.50767e-11 3.96512e-11 0 0 5.04702e-11 8.05292e-11 7.9671e-11 4.85797e-11 0 0 5.88092e-11 9.36982e-11 9.23122e-11 5.595e-11 0 0 6.55718e-11 1.03451e-10 1.02129e-10 6.13229e-11 0 0 6.97069e-11 1.10195e-10 1.07528e-10 6.49937e-11 0 0 7.14812e-11 1.1302e-10 1.08621e-10 6.63543e-11 0 0 7.06467e-11 1.09648e-10 1.06452e-10 6.38264e-11 0 0 6.67644e-11 1.02538e-10 1.00243e-10 5.90191e-11 0 0 5.90882e-11 9.14272e-11 8.8263e-11 5.27784e-11 0 0 4.80501e-11 7.56791e-11 7.25571e-11 4.42499e-11 0 0 3.36853e-11 5.54812e-11 5.36507e-11 3.36804e-11 0 0 1.68954e-11 3.0036e-11 3.3087e-11 2.10158e-11 0 0 -3.06319e-12 9.74632e-13 7.88994e-12 7.99023e-12 0 0 -2.50049e-11 -3.10465e-11 -1.8024e-11 -6.3986e-12 0 0 -5.11424e-11 -6.7724e-11 -4.89437e-11 -2.10491e-11 0 0 -7.70067e-11 -1.03692e-10 -7.96565e-11 -3.57822e-11 0 0 -1.07627e-10 -1.46377e-10 -1.13349e-10 -5.20093e-11 0 0 -1.37922e-10 -1.88805e-10 -1.48113e-10 -6.93913e-11 0 0 -1.69261e-10 -2.34742e-10 -1.82312e-10 -8.69257e-11 0 0 -2.02754e-10 -2.80467e-10 -2.1966e-10 -1.05065e-10 0 0 -2.35846e-10 -3.27867e-10 -2.57467e-10 -1.23917e-10 0 0 -2.68465e-10 -3.75506e-10 -2.97381e-10 -1.44242e-10 0 0 -2.99638e-10 -4.20747e-10 -3.38511e-10 -1.62259e-10 0 0 -3.38493e-10 -4.72931e-10 -3.77041e-10 -1.86037e-10 0 0 -3.26927e-10 -5.46591e-10 -4.42125e-10 -1.61327e-10 0 0 -2.90381e-10 -5.9468e-10 -6.37064e-10 2.59549e-11 0 0 -2.5215e-09 1.0182e-09 -1.0541e-09 -1.10366e-09 0 0 -8.2445e-09 4.59469e-09 1.95603e-10 -4.97573e-09 0 0 -8.24833e-09 3.68248e-09 7.50737e-09 -1.05369e-08 0 0 -5.77833e-09 5.71359e-10 7.16418e-09 -8.55831e-09 0 0 4.76376e-09 -3.37186e-09 -2.89426e-09 4.98104e-09 0 0 6.73777e-09 -3.45292e-09 -5.90898e-09 7.98872e-09 0 0 -1.54738e-09 1.41611e-09 4.91438e-10 -1.84181e-09 0 0 -1.47412e-08 8.41444e-09 1.00047e-08 -1.61616e-08 0 0 -1.54295e-08 8.70682e-09 1.01346e-08 -1.6506e-08 0 0 -8.33721e-09 5.58934e-09 3.38612e-09 -7.19767e-09 0 0 3.31172e-09 -5.99045e-10 -4.0555e-09 4.8037e-09 0 0 6.93823e-09 -3.00099e-09 -5.37351e-09 7.55962e-09 0 0 7.05739e-09 -3.1992e-09 -4.96261e-09 7.29716e-09 0 0 5.95746e-09 -2.88327e-09 -2.75003e-09 5.01912e-09 0 0 3.46963e-09 -1.52373e-09 -1.51998e-09 2.96882e-09 0 0 1.47822e-09 -2.99761e-10 -1.16141e-09 2.02816e-09 0 0 2.82974e-10 2.10911e-11 -3.20907e-10 8.9405e-10 0 0 -3.27665e-10 1.0805e-10 4.90142e-10 -1.67152e-10 0 0 -6.27776e-10 8.96197e-11 1.05678e-09 -9.72615e-10 0 0 -6.626e-10 -1.01772e-11 1.23582e-09 -1.2624e-09 0 0 -6.2769e-10 -4.29127e-11 1.18799e-09 -1.22362e-09 0 0 -5.08171e-10 -4.55646e-11 1.00383e-09 -1.04463e-09 0 0 -4.78805e-10 6.84375e-11 5.15829e-10 -5.85122e-10 0 0 -6.09078e-10 1.12426e-09 -1.75127e-09 1.39654e-09 0 0 -5.54409e-10 1.14107e-09 -2.03029e-09 1.70291e-09 0 0 -6.21221e-10 6.87017e-10 -6.3528e-10 4.25862e-10 0 0 -1.08752e-09 1.25138e-09 -3.5794e-10 -7.10851e-11 0 0 -8.52624e-10 1.27557e-09 -9.7463e-11 -1.70997e-10 0 0 1.2841e-10 1.07718e-10 1.22577e-09 -9.4205e-10 0 0 6.06946e-10 -4.20834e-10 1.29854e-09 -9.17172e-10 0 0 7.05792e-10 -3.04614e-10 7.96335e-10 -3.98154e-10 0 0 7.34593e-10 -2.57532e-10 1.90211e-10 1.47336e-10 0 0 7.174e-10 -3.1554e-10 -1.25313e-11 2.65046e-10 0 0 5.0174e-10 -1.73157e-10 -1.11458e-10 3.30758e-10 0 0 1.38848e-10 2.5138e-10 -1.48942e-10 3.25349e-10 0 0 -5.00373e-11 3.94924e-10 -1.0821e-10 2.68208e-10 0 0 -5.3371e-11 3.63406e-10 2.4281e-11 1.42737e-10 0 0 -2.03081e-11 2.58534e-10 1.43359e-10 6.67434e-11 0 0 1.9547e-11 1.82478e-10 1.98898e-10 5.40236e-11 0 0 3.64761e-11 1.72622e-10 2.0541e-10 5.88399e-11 0 0 4.82931e-11 1.63566e-10 2.07008e-10 7.39049e-11 0 0 6.85052e-11 1.48552e-10 1.98901e-10 9.27582e-11 0 0 8.2577e-11 1.47182e-10 1.82442e-10 1.10047e-10 0 0 8.80409e-11 1.44968e-10 1.68729e-10 1.10929e-10 0 0 8.6822e-11 1.46156e-10 1.50076e-10 1.09311e-10 0 0 8.13918e-11 1.40055e-10 1.37225e-10 9.60214e-11 0 0 7.22243e-11 1.21737e-10 1.22673e-10 7.92515e-11 0 0 6.06051e-11 1.00483e-10 1.0142e-10 6.35053e-11 0 0 4.70926e-11 7.70037e-11 7.73977e-11 4.78923e-11 0 0 3.30491e-11 5.35087e-11 5.35551e-11 3.28696e-11 0 0 2.04154e-11 3.30329e-11 3.29188e-11 2.02094e-11 0 0 1.09958e-11 1.77737e-11 1.77202e-11 1.10618e-11 0 0 5.1153e-12 8.21379e-12 8.28526e-12 5.19429e-12 0 0 2.08951e-12 3.51236e-12 3.32933e-12 2.27759e-12 0 0 8.80149e-13 1.47654e-12 1.35456e-12 1.17887e-12 0 0 5.01998e-13 6.6543e-13 7.42828e-13 6.65358e-13 0 0 3.32228e-13 5.5656e-13 3.95895e-13 5.21611e-13 0 0 2.66546e-13 5.10201e-13 3.70685e-13 3.95192e-13 0 0 2.62426e-13 4.25675e-13 5.09857e-13 1.53058e-13 0 0 2.84916e-13 3.20285e-13 6.00424e-13 1.68014e-13 0 0 3.18787e-13 2.32693e-13 6.1553e-13 2.56082e-13 0 0 3.39162e-13 2.59641e-13 5.79908e-13 2.28928e-13 0 0 3.66558e-13 2.74362e-13 5.22979e-13 2.64295e-13 0 0 3.04829e-13 3.51684e-13 4.28029e-13 3.69431e-13 0 0 1.34378e-13 5.6182e-13 2.85244e-13 4.04439e-13 0 0 3.05302e-14 6.86039e-13 1.84015e-13 4.0972e-13 0 0 1.28536e-13 5.15161e-13 2.83359e-13 4.54484e-13 0 0 2.6316e-13 3.46002e-13 3.9986e-13 4.76344e-13 0 0 4.13485e-13 1.91458e-13 5.43503e-13 3.55194e-13 0 0 4.5882e-13 2.41816e-13 4.47976e-13 3.69065e-13 0 0 4.00754e-13 4.36726e-13 2.66263e-13 4.56673e-13 0 0 3.90871e-13 4.40099e-13 4.04618e-13 3.24762e-13 0 0 3.67479e-13 5.01485e-13 5.00368e-13 1.88836e-13 0 0 3.94301e-13 5.70827e-13 4.72814e-13 1.56983e-13 0 0 4.00305e-13 6.46521e-13 3.82479e-13 2.63802e-13 0 0 5.04961e-13 4.88712e-13 5.27517e-13 2.62661e-13 0 0 4.22164e-13 6.10307e-13 4.35578e-13 3.99623e-13 0 0 3.29587e-13 7.35304e-13 4.45373e-13 3.31592e-13 0 0 4.86074e-13 5.38691e-13 6.50337e-13 1.38468e-13 0 0 4.4455e-13 5.76683e-13 4.54027e-13 3.9536e-13 0 0 5.18459e-13 3.27208e-13 6.36444e-13 3.65463e-13 0 0 4.42324e-13 3.94581e-13 4.23437e-13 6.51025e-13 0 0 3.08793e-13 5.90508e-13 9.36829e-14 9.71788e-13 0 0 3.29239e-13 5.10026e-13 3.39375e-13 6.8386e-13 0 0 2.6968e-13 4.57003e-13 5.3892e-13 5.02544e-13 0 0 1.57786e-13 5.02522e-13 4.85084e-13 5.79173e-13 0 0 1.80206e-13 4.96509e-13 3.83076e-13 6.82773e-13 0 0 3.12761e-13 5.21925e-13 1.71606e-13 7.67785e-13 0 0 5.04406e-13 3.10297e-13 5.15795e-13 3.6018e-13 0 0 5.29713e-13 1.80062e-13 7.33575e-13 8.69383e-14 0 0 2.89739e-13 5.04013e-13 4.26182e-13 2.20882e-13 0 0 4.3173e-13 3.12556e-13 5.33384e-13 2.05136e-13 0 0 6.63923e-13 7.01049e-14 4.25213e-13 3.51537e-13 0 0 2.94949e-13 4.98685e-13 9.83016e-14 4.45913e-13 0 0 5.49244e-14 6.05164e-13 2.40776e-13 3.41664e-13 0 0 2.4618e-13 2.29489e-13 8.15383e-13 -5.65397e-14 0 0 -3.1091e-14 6.78392e-13 5.58517e-13 -1.56823e-13 0 0 1.54033e-13 4.38347e-13 4.8624e-13 -1.81655e-13 0 0 5.52791e-13 -5.46937e-14 5.43947e-13 -8.22987e-14 0 0 3.32775e-13 4.62062e-13 -1.51993e-13 2.99403e-13 0 0 -3.35433e-14 9.61389e-13 -5.75042e-13 3.62069e-13 0 0 -2.54775e-13 1.17776e-12 -6.40165e-13 3.12387e-13 0
				</DataArray>
				<DataArray Name="VitesseY" type="Float32" format="ascii">