<?xml version="1.0"?>
<VTKFile type="PolyData">
	<PolyData>
		<Piece NumberOfPoints="1206" NumberOfPolys="1000">
			<Points>
				<DataArray type="Float32" NumberOfComponents="3" format="ascii">
 0 0 0 0.02 0 0 0.04 0 0 0.06 0 0 0.08 0 0 0.1 0 0 0 0.005 0 0.02 0.005 0 0.04 0.005 0 0.06 0.005 0 0.08 0.005 0 0.1 0.005 0 0 0.01 0 0.02 0.01 0 0.04 0.01 0 0.06 0.01 0 0.08 0.01 0 0.1 0.01 0 0 0.015 0 0.02 0.015 0 0.04 0.015 0 0.06 0.015 0 0.08 0.015 0 0.1 0.015 0 0 0.02 0 0.02 0.02 0 0.04 0.02 0 0.06 0.02 0 0.08 0.02 0 0.1 0.02 0 0 0.025 0 0.02 0.025 0 0.04 0.025 0 0.06 0.025 0 0.08 0.025 0 0.1 0.025 0 0 0.03 0 0.02 0.03 0 0.04 0.03 0 0.06 0.03 0 0.08 0.03 0 0.1 0.03 0 0 0.035 0 0.02 0.035 0 0.04 0.035 0 0.06 0.035 0 0.08 0.035 0 0.1 0.035 0 0 0.04 0 0.02 0.04 0 0.04 0.04 0 0.06 0.04 0 0.08 0.04 0 0.1 0.04 0 0 0.045 0 0.02 0.045 0 0.04 0.045 0 0.06 0.045 0 0.08 0.045 0 0.1 0.045 0 0 0.05 0 0.02 0.05 0 0.04 0.05 0 0.06 0.05 0 0.08 0.05 0 0.1 0.05 0 0 0.055 0 0.02 0.055 0 0.04 0.055 0 0.06 0.055 0 0.08 0.055 0 0.1 0.055 0 0 0.06 0 0.02 0.06 0 0.04 0.06 0 0.06 0.06 0 0.08 0.06 0 0.1 0.06 0 0 0.065 0 0.02 0.065 0 0.04 0.065 0 0.06 0.065 0 0.08 0.065 0 0.1 0.065 0 0 0.07 0 0.02 0.07 0 0.04 0.07 0 0.06 0.07 0 0.08 0.07 0 0.1 0.07 0 0 0.075 0 0.02 0.075 0 0.04 0.075 0 0.06 0.075 0 0.08 0.075 0 0.1 0.075 0 0 0.08 0 0.02 0.08 0 0.04 0.08 0 0.06 0.08 0 0.08 0.08 0 0.1 0.08 0 0 0.085 0 0.02 0.085 0 0.04 0.085 0 0.06 0.085 0 0.08 0.085 0 0.1 0.085 0 0 0.09 0 0.02 0.09 0 0.04 0.09 0 0.06 0.09 0 0.08 0.09 0 0.1 0.09 0 0 0.095 0 0.02 0.095 0 0.04 0.095 0 0.06 0.095 0 0.08 0.095 0 0.1 0.095 0 0 0.1 0 0.02 0.1 0 0.04 0.1 0 0.06 0.1 0 0.08 0.1 0 0.1 0.1 0 0 0.105 0 0.02 0.105 0 0.04 0.105 0 0.06 0.105 0 0.08 0.105 0 0.1 0.105 0 0 0.11 0 0.02 0.11 0 0.04 0.11 0 0.06 0.11 0 0.08 0.11 0 0.1 0.11 0 0 0.115 0 0.02 0.115 0 0.04 0.115 0 0.06 0.115 0 0.08 0.115 0 0.1 0.115 0 0 0.12 0 0.02 0.12 0 0.04 0.12 0 0.06 0.12 0 0.08 0.12 0 0.1 0.12 0 0 0.125 0 0.02 0.125 0 0.04 0.125 0 0.06 0.125 0 0.08 0.125 0 0.1 0.125 0 0 0.13 0 0.02 0.13 0 0.04 0.13 0 0.06 0.13 0 0.08 0.13 0 0.1 0.13 0 0 0.135 0 0.02 0.135 0 0.04 0.135 0 0.06 0.135 0 0.08 0.135 0 0.1 0.135 0 0 0.14 0 0.02 0.14 0 0.04 0.14 0 0.06 0.14 0 0.08 0.14 0 0.1 0.14 0 0 0.145 0 0.02 0.145 0 0.04 0.145 0 0.06 0.145 0 0.08 0.145 0 0.1 0.145 0 0 0.15 0 0.02 0.15 0 0.04 0.15 0 0.06 0.15 0 0.08 0.15 0 0.1 0.15 0 0 0.155 0 0.02 0.155 0 0.04 0.155 0 0.06 0.155 0 0.08 0.155 0 0.1 0.155 0 0 0.16 0 0.02 0.16 0 0.04 0.16 0 0.06 0.16 0 0.08 0.16 0 0.1 0.16 0 0 0.165 0 0.02 0.165 0 0.04 0.165 0 0.06 0.165 0 0.08 0.165 0 0.1 0.165 0 0 0.17 0 0.02 0.17 0 0.04 0.17 0 0.06 0.17 0 0.08 0.17 0 0.1 0.17 0 0 0.175 0 0.02 0.175 0 0.04 0.175 0 0.06 0.175 0 0.08 0.175 0 0.1 0.175 0 0 0.18 0 0.02 0.18 0 0.04 0.18 0 0.06 0.18 0 0.08 0.18 0 0.1 0.18 0 0 0.185 0 0.02 0.185 0 0.04 0.185 0 0.06 0.185 0 0.08 0.185 0 0.1 0.185 0 0 0.19 0 0.02 0.19 0 0.04 0.19 0 0.06 0.19 0 0.08 0.19 0 0.1 0.19 0 0 0.195 0 0.02 0.195 0 0.04 0.195 0 0.06 0.195 0 0.08 0.195 0 0.1 0.195 0 0 0.2 0 0.02 0.2 0 0.04 0.2 0 0.06 0.2 0 0.08 0.2 0 0.1 0.2 0 0 0.205 0 0.02 0.205 0 0.04 0.205 0 0.06 0.205 0 0.08 0.205 0 0.1 0.205 0 0 0.21 0 0.02 0.21 0 0.04 0.21 0 0.06 0.21 0 0.08 0.21 0 0.1 0.21 0 0 0.215 0 0.02 0.215 0 0.04 0.215 0 0.06 0.215 0 0.08 0.215 0 0.1 0.215 0 0 0.22 0 0.02 0.22 0 0.04 0.22 0 0.06 0.22 0 0.08 0.22 0 0.1 0.22 0 0 0.225 0 0.02 0.225 0 0.04 0.225 0 0.06 0.225 0 0.08 0.225 0 0.1 0.225 0 0 0.23 0 0.02 0.23 0 0.04 0.23 0 0.06 0.23 0 0.08 0.23 0 0.1 0.23 0 0 0.235 0 0.02 0.235 0 0.04 0.235 0 0.06 0.235 0 0.08 0.235 0 0.1 0.235 0 0 0.24 0 0.02 0.24 0 0.04 0.24 0 0.06 0.24 0 0.08 0.24 0 0.1 0.24 0 0 0.245 0 0.02 0.245 0 0.04 0.245 0 0.06 0.245 0 0.08 0.245 0 0.1 0.245 0 0 0.25 0 0.02 0.25 0 0.04 0.25 0 0.06 0.25 0 0.08 0.25 0 0.1 0.25 0 0 0.255 0 0.02 0.255 0 0.04 0.255 0 0.06 0.255 0 0.08 0.255 0 0.1 0.255 0 0 0.26 0 0.02 0.26 0 0.04 0.26 0 0.06 0.26 0 0.08 0.26 0 0.1 0.26 0 0 0.265 0 0.02 0.265 0 0.04 0.265 0 0.06 0.265 0 0.08 0.265 0 0.1 0.265 0 0 0.27 0 0.02 0.27 0 0.04 0.27 0 0.06 0.27 0 0.08 0.27 0 0.1 0.27 0 0 0.275 0 0.02 0.275 0 0.04 0.275 0 0.06 0.275 0 0.08 0.275 0 0.1 0.275 0 0 0.28 0 0.02 0.28 0 0.04 0.28 0 0.06 0.28 0 0.08 0.28 0 0.1 0.28 0 0 0.285 0 0.02 0.285 0 0.04 0.285 0 0.06 0.285 0 0.08 0.285 0 0.1 0.285 0 0 0.29 0 0.02 0.29 0 0.04 0.29 0 0.06 0.29 0 0.08 0.29 0 0.1 0.29 0 0 0.295 0 0.02 0.295 0 0.04 0.295 0 0.06 0.295 0 0.08 0.295 0 0.1 0.295 0 0 0.3 0 0.02 0.3 0 0.04 0.3 0 0.06 0.3 0 0.08 0.3 0 0.1 0.3 0 0 0.305 0 0.02 0.305 0 0.04 0.305 0 0.06 0.305 0 0.08 0.305 0 0.1 0.305 0 0 0.31 0 0.02 0.31 0 0.04 0.31 0 0.06 0.31 0 0.08 0.31 0 0.1 0.31 0 0 0.315 0 0.02 0.315 0 0.04 0.315 0 0.06 0.315 0 0.08 0.315 0 0.1 0.315 0 0 0.32 0 0.02 0.32 0 0.04 0.32 0 0.06 0.32 0 0.08 0.32 0 0.1 0.32 0 0 0.325 0 0.02 0.325 0 0.04 0.325 0 0.06 0.325 0 0.08 0.325 0 0.1 0.325 0 0 0.33 0 0.02 0.33 0 0.04 0.33 0 0.06 0.33 0 0.08 0.33 0 0.1 0.33 0 0 0.335 0 0.02 0.335 0 0.04 0.335 0 0.06 0.335 0 0.08 0.335 0 0.1 0.335 0 0 0.34 0 0.02 0.34 0 0.04 0.34 0 0.06 0.34 0 0.08 0.34 0 0.1 0.34 0 0 0.345 0 0.02 0.345 0 0.04 0.345 0 0.06 0.345 0 0.08 0.345 0 0.1 0.345 0 0 0.35 0 0.02 0.35 0 0.04 0.35 0 0.06 0.35 0 0.08 0.35 0 0.1 0.35 0 0 0.355 0 0.02 0.355 0 0.04 0.355 0 0.06 0.355 0 0.08 0.355 0 0.1 0.355 0 0 0.36 0 0.02 0.36 0 0.04 0.36 0 0.06 0.36 0 0.08 0.36 0 0.1 0.36 0 0 0.365 0 0.02 0.365 0 0.04 0.365 0 0.06 0.365 0 0.08 0.365 0 0.1 0.365 0 0 0.37 0 0.02 0.37 0 0.04 0.37 0 0.06 0.37 0 0.08 0.37 0 0.1 0.37 0 0 0.375 0 0.02 0.375 0 0.04 0.375 0 0.06 0.375 0 0.08 0.375 0 0.1 0.375 0 0 0.38 0 0.02 0.38 0 0.04 0.38 0 0.06 0.38 0 0.08 0.38 0 0.1 0.38 0 0 0.385 0 0.02 0.385 0 0.04 0.385 0 0.06 0.385 0 0.08 0.385 0 0.1 0.385 0 0 0.39 0 0.02 0.39 0 0.04 0.39 0 0.06 0.39 0 0.08 0.39 0 0.1 0.39 0 0 0.395 0 0.02 0.395 0 0.04 0.395 0 0.06 0.395 0 0.08 0.395 0 0.1 0.395 0 0 0.4 0 0.02 0.4 0 0.04 0.4 0 0.06 0.4 0 0.08 0.4 0 0.1 0.4 0 0 0.405 0 0.02 0.405 0 0.04 0.405 0 0.06 0.405 0 0.08 0.405 0 0.1 0.405 0 0 0.41 0 0.02 0.41 0 0.04 0.41 0 0.06 0.41 0 0.08 0.41 0 0.1 0.41 0 0 0.415 0 0.02 0.415 0 0.04 0.415 0 0.06 0.415 0 0.08 0.415 0 0.1 0.415 0 0 0.42 0 0.02 0.42 0 0.04 0.42 0 0.06 0.42 0 0.08 0.42 0 0.1 0.42 0 0 0.425 0 0.02 0.425 0 0.04 0.425 0 0.06 0.425 0 0.08 0.425 0 0.1 0.425 0 0 0.43 0 0.02 0.43 0 0.04 0.43 0 0.06 0.43 0 0.08 0.43 0 0.1 0.43 0 0 0.435 0 0.02 0.435 0 0.04 0.435 0 0.06 0.435 0 0.08 0.435 0 0.1 0.435 0 0 0.44 0 0.02 0.44 0 0.04 0.44 0 0.06 0.44 0 0.08 0.44 0 0.1 0.44 0 0 0.445 0 0.02 0.445 0 0.04 0.445 0 0.06 0.445 0 0.08 0.445 0 0.1 0.445 0 0 0.45 0 0.02 0.45 0 0.04 0.45 0 0.06 0.45 0 0.08 0.45 0 0.1 0.45 0 0 0.455 0 0.02 0.455 0 0.04 0.455 0 0.06 0.455 0 0.08 0.455 0 0.1 0.455 0 0 0.46 0 0.02 0.46 0 0.04 0.46 0 0.06 0.46 0 0.08 0.46 0 0.1 0.46 0 0 0.465 0 0.02 0.465 0 0.04 0.465 0 0.06 0.465 0 0.08 0.465 0 0.1 0.465 0 0 0.47 0 0.02 0.47 0 0.04 0.47 0 0.06 0.47 0 0.08 0.47 0 0.1 0.47 0 0 0.475 0 0.02 0.475 0 0.04 0.475 0 0.06 0.475 0 0.08 0.475 0 0.1 0.475 0 0 0.48 0 0.02 0.48 0 0.04 0.48 0 0.06 0.48 0 0.08 0.48 0 0.1 0.48 0 0 0.485 0 0.02 0.485 0 0.04 0.485 0 0.06 0.485 0 0.08 0.485 0 0.1 0.485 0 0 0.49 0 0.02 0.49 0 0.04 0.49 0 0.06 0.49 0 0.08 0.49 0 0.1 0.49 0 0 0.495 0 0.02 0.495 0 0.04 0.495 0 0.06 0.495 0 0.08 0.495 0 0.1 0.495 0 0 0.5 0 0.02 0.5 0 0.04 0.5 0 0.06 0.5 0 0.08 0.5 0 0.1 0.5 0 0 0.505 0 0.02 0.505 0 0.04 0.505 0 0.06 0.505 0 0.08 0.505 0 0.1 0.505 0 0 0.51 0 0.02 0.51 0 0.04 0.51 0 0.06 0.51 0 0.08 0.51 0 0.1 0.51 0 0 0.515 0 0.02 0.515 0 0.04 0.515 0 0.06 0.515 0 0.08 0.515 0 0.1 0.515 0 0 0.52 0 0.02 0.52 0 0.04 0.52 0 0.06 0.52 0 0.08 0.52 0 0.1 0.52 0 0 0.525 0 0.02 0.525 0 0.04 0.525 0 0.06 0.525 0 0.08 0.525 0 0.1 0.525 0 0 0.53 0 0.02 0.53 0 0.04 0.53 0 0.06 0.53 0 0.08 0.53 0 0.1 0.53 0 0 0.535 0 0.02 0.535 0 0.04 0.535 0 0.06 0.535 0 0.08 0.535 0 0.1 0.535 0 0 0.54 0 0.02 0.54 0 0.04 0.54 0 0.06 0.54 0 0.08 0.54 0 0.1 0.54 0 0 0.545 0 0.02 0.545 0 0.04 0.545 0 0.06 0.545 0 0.08 0.545 0 0.1 0.545 0 0 0.55 0 0.02 0.55 0 0.04 0.55 0 0.06 0.55 0 0.08 0.55 0 0.1 0.55 0 0 0.555 0 0.02 0.555 0 0.04 0.555 0 0.06 0.555 0 0.08 0.555 0 0.1 0.555 0 0 0.56 0 0.02 0.56 0 0.04 0.56 0 0.06 0.56 0 0.08 0.56 0 0.1 0.56 0 0 0.565 0 0.02 0.565 0 0.04 0.565 0 0.06 0.565 0 0.08 0.565 0 0.1 0.565 0 0 0.57 0 0.02 0.57 0 0.04 0.57 0 0.06 0.57 0 0.08 0.57 0 0.1 0.57 0 0 0.575 0 0.02 0.575 0 0.04 0.575 0 0.06 0.575 0 0.08 0.575 0 0.1 0.575 0 0 0.58 0 0.02 0.58 0 0.04 0.58 0 0.06 0.58 0 0.08 0.58 0 0.1 0.58 0 0 0.585 0 0.02 0.585 0 0.04 0.585 0 0.06 0.585 0 0.08 0.585 0 0.1 0.585 0 0 0.59 0 0.02 0.59 0 0.04 0.59 0 0.06 0.59 0 0.08 0.59 0 0.1 0.59 0 0 0.595 0 0.02 0.595 0 0.04 0.595 0 0.06 0.595 0 0.08 0.595 0 0.1 0.595 0 0 0.6 0 0.02 0.6 0 0.04 0.6 0 0.06 0.6 0 0.08 0.6 0 0.1 0.6 0 0 0.605 0 0.02 0.605 0 0.04 0.605 0 0.06 0.605 0 0.08 0.605 0 0.1 0.605 0 0 0.61 0 0.02 0.61 0 0.04 0.61 0 0.06 0.61 0 0.08 0.61 0 0.1 0.61 0 0 0.615 0 0.02 0.615 0 0.04 0.615 0 0.06 0.615 0 0.08 0.615 0 0.1 0.615 0 0 0.62 0 0.02 0.62 0 0.04 0.62 0 0.06 0.62 0 0.08 0.62 0 0.1 0.62 0 0 0.625 0 0.02 0.625 0 0.04 0.625 0 0.06 0.625 0 0.08 0.625 0 0.1 0.625 0 0 0.63 0 0.02 0.63 0 0.04 0.63 0 0.06 0.63 0 0.08 0.63 0 0.1 0.63 0 0 0.635 0 0.02 0.635 0 0.04 0.635 0 0.06 0.635 0 0.08 0.635 0 0.1 0.635 0 0 0.64 0 0.02 0.64 0 0.04 0.64 0 0.06 0.64 0 0.08 0.64 0 0.1 0.64 0 0 0.645 0 0.02 0.645 0 0.04 0.645 0 0.06 0.645 0 0.08 0.645 0 0.1 0.645 0 0 0.65 0 0.02 0.65 0 0.04 0.65 0 0.06 0.65 0 0.08 0.65 0 0.1 0.65 0 0 0.655 0 0.02 0.655 0 0.04 0.655 0 0.06 0.655 0 0.08 0.655 0 0.1 0.655 0 0 0.66 0 0.02 0.66 0 0.04 0.66 0 0.06 0.66 0 0.08 0.66 0 0.1 0.66 0 0 0.665 0 0.02 0.665 0 0.04 0.665 0 0.06 0.665 0 0.08 0.665 0 0.1 0.665 0 0 0.67 0 0.02 0.67 0 0.04 0.67 0 0.06 0.67 0 0.08 0.67 0 0.1 0.67 0 0 0.675 0 0.02 0.675 0 0.04 0.675 0 0.06 0.675 0 0.08 0.675 0 0.1 0.675 0 0 0.68 0 0.02 0.68 0 0.04 0.68 0 0.06 0.68 0 0.08 0.68 0 0.1 0.68 0 0 0.685 0 0.02 0.685 0 0.04 0.685 0 0.06 0.685 0 0.08 0.685 0 0.1 0.685 0 0 0.69 0 0.02 0.69 0 0.04 0.69 0 0.06 0.69 0 0.08 0.69 0 0.1 
[...]
			<PointData Scalars="VitesseX">
				<DataArray Name="VitesseX" type="Float32" format="ascii">
 0 4.59079e-14 5.93726e-14 4.14031e-14 3.08493e-14 0 0 5.1773e-14 5.30369e-14 4.53232e-14 2.96464e-14 0 0 5.35018e-14 5.29664e-14 4.02402e-14 3.32156e-14 0 0 5.50685e-14 4.47033e-14 4.37599e-14 3.06574e-14 0 0 5.49593e-14 2.99566e-14 5.65437e-14 2.89715e-14 0 0 2.88139e-14 4.80738e-14 4.37971e-14 4.05398e-14 0 0 1.02891e-14 5.45811e-14 3.5045e-14 4.83431e-14 0 0 1.70919e-14 3.30677e-14 5.50884e-14 2.8378e-14 0 0 1.7095e-14 4.06075e-14 3.52502e-14 3.60268e-14 0 0 1.9877e-14 3.30828e-14 2.47508e-14 4.16556e-14 0 0 1.46894e-14 1.08667e-14 4.93237e-14 1.02125e-14 0 0 -1.51938e-14 3.2858e-14 3.38388e-14 7.47155e-15 0 0 -4.02743e-14 7.50853e-14 1.42929e-15 1.39837e-14 0 0 9.04329e-15 -2.56223e-15 8.54954e-14 -4.02473e-14 0 0 3.32872e-14 -2.48141e-14 9.71171e-14 -3.75794e-14 0 0 1.1572e-14 4.26417e-14 1.41315e-14 2.55935e-14 0 0 3.59186e-14 5.46823e-15 4.80128e-14 3.24773e-14 0 0 4.04914e-14 -3.82896e-15 5.55021e-14 4.01489e-14 0 0 3.33877e-14 2.17713e-14 1.34198e-14 7.4758e-14 0 0 3.34083e-14 4.04945e-14 -1.38389e-14 8.89846e-14 0 0 3.63848e-14 5.82568e-14 -4.99493e-14 9.51302e-14 0 0 3.17834e-14 5.63615e-14 -4.65243e-14 9.74207e-14 0 0 1.7125e-14 8.90696e-14 -8.80194e-14 1.25617e-13 0 0 4.00476e-15 1.37133e-13 -1.41322e-13 1.15779e-13 0 0 1.66389e-14 7.57046e-14 -1.06313e-14 -2.07295e-14 0 0 2.24883e-14 6.28681e-14 1.43496e-14 -3.21216e-14 0 0 4.97332e-14 1.42415e-14 6.46627e-14 -4.01991e-14 0 0 7.65434e-15 8.90737e-14 -5.53991e-14 5.23465e-14 0 0 -4.67646e-14 2.13401e-13 -2.29268e-13 1.26451e-13 0 0 2.14035e-14 7.1146e-14 -5.35781e-14 6.11141e-15 0 0 9.27642e-14 -8.11831e-14 1.31564e-13 -1.01508e-13 0 0 9.68332e-14 -2.83677e-14 6.3778e-14 -4.91697e-14 0 0 8.96394e-14 1.62464e-14 1.29548e-14 -1.42179e-14 0 0 2.53866e-14 1.20067e-13 -4.75013e-14 -3.11575e-14 0 0 1.55275e-16 1.82025e-13 -1.04332e-13 3.51117e-14 0 0 2.94621e-14 8.15529e-14 1.30627e-14 3.54463e-14 0 0 6.19941e-14 8.17431e-15 6.99272e-14 6.56297e-14 0 0 6.20023e-14 3.98033e-14 -2.95029e-14 2.05558e-13 0 0 4.09415e-14 9.95056e-14 -1.07854e-13 2.76358e-13 0 0 9.53996e-14 1.96879e-14 -8.91514e-15 1.86929e-13 0 0 6.92778e-14 4.35151e-14 -1.50094e-14 1.66158e-13 0 0 2.79408e-14 7.3848e-14 1.54155e-14 1.19301e-13 0 0 1.54728e-14 9.33709e-14 4.81171e-14 1.03622e-13 0 0 7.52086e-16 1.23468e-13 7.86018e-14 8.04899e-14 0 0 4.81344e-14 1.0305e-13 1.60159e-13 2.26408e-14 0 0 1.65698e-13 1.29607e-14 2.74085e-13 -1.76451e-14 0 0 1.11061e-13 1.41059e-13 1.96963e-13 4.45029e-14 0 0 -1.59425e-16 2.71809e-13 2.07397e-13 3.93203e-14 0 0 1.69532e-14 2.31527e-13 3.86576e-13 -5.16574e-14 0 0 8.08387e-14 2.29918e-13 3.69129e-13 5.02302e-14 0 0 1.62432e-13 1.11245e-13 4.26407e-13 1.27455e-13 0 0 1.38397e-13 9.05439e-14 4.74918e-13 1.0555e-13 0 0 2.69169e-15 2.64637e-13 3.61229e-13 1.7292e-13 0 0 -8.638e-15 2.78803e-13 3.74022e-13 2.6035e-13 0 0 9.09486e-14 2.14056e-13 5.39323e-13 2.64671e-13 0 0 8.16008e-14 4.75161e-13 5.90022e-13 3.84462e-13 0 0 3.42741e-13 8.22121e-13 9.31152e-13 5.76051e-13 0 0 8.48071e-13 1.71781e-12 1.56445e-12 1.16278e-12 0 0 1.93252e-12 3.22573e-12 3.21248e-12 2.15097e-12 0 0 3.80624e-12 6.03471e-12 6.19309e-12 3.90713e-12 0 0 6.57197e-12 1.08912e-11 1.05926e-11 6.75266e-12 0 0 1.08138e-11 1.718e-11 1.70637e-11 1.0569e-11 0 0 1.58282e-11 2.51862e-11 2.49186e-11 1.55096e-11 0 0 2.11966e-11 3.42263e-11 3.37335e-11 2.10065e-11 0 0 2.68354e-11 4.31459e-11 4.28876e-11 2.64817e-11 0 0 3.19595e-11 5.14693e-11 5.12676e-11 3.15605e-11 0 0 3.6141e-11 5.84118e-11 5.81233e-11 3.57378e-11 0 0 3.9073e-11 6.3415e-11 6.28102e-11 3.85729e-11 0 0 4.07512e-11 6.58455e-11 6.53634e-11 3.9807e-11 0 0 4.08641e-11 6.53024e-11 6.49253e-11 3.95727e-11 0 0 3.88519e-11 6.25466e-11 6.15668e-11 3.79538e-11 0 0 3.49239e-11 5.70639e-11 5.53122e-11 3.4588e-11 0 0 2.96503e-11 4.79819e-11 4.71104e-11 2.90564e-11 0 0 2.29042e-11 3.56924e-11 3.71029e-11 2.1655e-11 0 0 1.37307e-11 2.25432e-11 2.26977e-11 1.42848e-11 0 0 3.50065e-12 6.26176e-12 7.36532e-12 4.5946e-12 0 0 -7.8351e-12 -1.21413e-11 -9.98535e-12 -5.75189e-12 0 0 -2.07907e-11 -3.15259e-11 -2.93061e-11 -1.65286e-11 0 0 -3.45204e-11 -5.29083e-11 -4.91833e-11 -2.87269e-11 0 0 -4.94901e-11 -7.46769e-11 -7.08327e-11 -4.08042e-11 0 0 -6.43194e-11 -9.81634e-11 -9.22359e-11 -5.38364e-11 0 0 -7.97373e-11 -1.22203e-10 -1.14467e-10 -6.70988e-11 0 0 -9.49718e-11 -1.46214e-10 -1.36402e-10 -8.07085e-11 0 0 -1.10299e-10 -1.70225e-10 -1.59266e-10 -9.42912e-11 0 0 -1.25314e-10 -1.93705e-10 -1.82123e-10 -1.07698e-10 0 0 -1.39649e-10 -2.16548e-10 -2.04767e-10 -1.21327e-10 0 0 -1.53145e-10 -2.38743e-10 -2.27027e-10 -1.34926e-10 0 0 -1.65719e-10 -2.59947e-10 -2.48684e-10 -1.48353e-10 0 0 -1.7723e-10 -2.79699e-10 -2.69564e-10 -1.6155e-10 0 0 -1.87495e-10 -2.97694e-10 -2.89585e-10 -1.74723e-10 0 0 -1.9631e-10 -3.13799e-10 -3.08609e-10 -1.87829e-10 0 0 -2.03427e-10 -3.27904e-10 -3.26381e-10 -2.007e-10 0 0 -2.08576e-10 -3.39835e-10 -3.42678e-10 -2.13272e-10 0 0 -2.1157e-10 -3.4946e-10 -3.57465e-10 -2.25483e-10 0 0 -2.12358e-10 -3.57034e-10 -3.7124e-10 -2.35524e-10 0 0 -2.08557e-10 -3.62957e-10 -3.84044e-10 -2.49172e-10 0 0 -1.96012e-10 -3.69865e-10 -3.99175e-10 -2.49445e-10 0 0 -1.29752e-10 -4.08924e-10 -4.5843e-10 -1.91228e-10 0 0 1.67691e-10 -3.02573e-10 -1.42031e-09 7.61759e-10 0 0 -1.10461e-08 4.68654e-09 9.99572e-09 -1.45641e-08 0 0 -2.21855e-08 1.01784e-08 2.02379e-08 -2.8731e-08 0 0 -1.26912e-08 6.69203e-09 9.50806e-09 -1.48816e-08 0 0 -1.23752e-09 1.68067e-09 -2.29958e-09 1.29455e-09 0 0 1.28818e-08 -4.19188e-09 -1.34139e-08 1.79942e-08 0 0 1.65237e-08 -8.07646e-09 -1.36565e-08 1.93787e-08 0 0 1.51769e-08 -8.91704e-09 -1.01325e-08 1.57163e-08 0 0 1.54464e-08 -9.33373e-09 -9.15415e-09 1.48663e-08 0 0 1.64228e-08 -8.88732e-09 -1.14221e-08 1.7808e-08 0 0 1.59734e-08 -8.08679e-09 -1.1924e-08 1.82414e-08 0 0 1.28885e-08 -6.46445e-09 -9.30712e-09 1.50305e-08 0 0 4.68074e-09 -2.37599e-09 -2.539e-09 5.73782e-09 0 0 -3.62824e-09 2.06678e-09 4.03302e-09 -4.13044e-09 0 0 -9.76631e-09 5.36973e-09 9.2615e-09 -1.21977e-08 0 0 -1.22277e-08 6.59439e-09 1.04088e-08 -1.46804e-08 0 0 -1.22862e-08 6.6106e-09 1.02031e-08 -1.45769e-08 0 0 -1.08501e-08 5.60173e-09 8.74244e-09 -1.27963e-08 0 0 -4.92747e-09 2.42772e-09 3.74956e-09 -5.58782e-09 0 0 2.18127e-09 -8.33202e-10 -2.69092e-09 3.93934e-09 0 0 5.46389e-09 -2.12916e-09 -5.44725e-09 7.80883e-09 0 0 5.70699e-09 -2.28666e-09 -5.40656e-09 7.82847e-09 0 0 5.01722e-09 -2.18735e-09 -3.65753e-09 5.97209e-09 0 0 2.35001e-09 -1.54211e-09 -2.3415e-10 1.62593e-09 0 0 -5.87526e-10 -4.01727e-10 1.40665e-09 -1.56228e-09 0 0 -1.69478e-09 3.45779e-10 1.80924e-09 -2.41445e-09 0 0 -1.73487e-09 4.03031e-10 1.87968e-09 -2.54518e-09 0 0 -1.38612e-09 3.38013e-10 1.56917e-09 -2.17646e-09 0 0 -4.73949e-10 2.72932e-10 4.24398e-10 -8.17708e-10 0 0 1.76704e-11 2.99492e-10 -6.96876e-10 4.87776e-10 0 0 -1.10791e-11 4.11152e-10 -1.43003e-09 1.31747e-09 0 0 -1.8937e-10 8.41595e-10 -2.45425e-09 2.20038e-09 0 0 2.86631e-11 5.93422e-10 -2.04058e-09 1.90188e-09 0 0 3.43911e-10 2.69419e-10 -1.57275e-09 1.56843e-09 0 0 9.94697e-11 1.07366e-09 -3.15704e-09 2.95444e-09 0 0 2.13982e-10 9.10142e-10 -2.65843e-09 2.52549e-09 0 0 9.39003e-10 -4.52785e-10 -3.05588e-10 7.38436e-10 0 0 1.16677e-09 -9.15012e-10 1.13994e-09 -5.2141e-10 0 0 9.58069e-10 -7.19663e-10 1.07047e-09 -7.30898e-10 0 0 5.38317e-10 -1.45846e-10 8.16379e-10 -6.94163e-10 0 0 2.80054e-10 1.94162e-10 4.5689e-10 -5.73566e-10 0 0 1.7422e-10 2.22917e-10 1.16396e-10 -3.06674e-10 0 0 5.79926e-11 2.71763e-10 -1.04613e-10 -4.64032e-11 0 0 -8.51474e-11 3.10255e-10 -1.14634e-10 -2.712e-11 0 0 -1.81082e-10 2.72096e-10 -9.32673e-11 -8.0406e-11 0 0 -2.03458e-10 1.62104e-10 -6.30408e-11 -1.6826e-10 0 0 -1.85673e-10 7.22097e-11 -6.20182e-11 -1.96939e-10 0 0 -1.3344e-10 2.64272e-11 -6.66538e-11 -1.85967e-10 0 0 -7.71274e-11 2.08769e-12 -6.52325e-11 -1.38222e-10 0 0 -1.56837e-11 -4.07344e-11 -4.15775e-11 -7.84372e-11 0 0 3.65791e-11 -8.35668e-11 -1.01185e-11 -1.40919e-11 0 0 5.27354e-11 -1.13442e-10 6.1419e-11 -7.72794e-12 0 0 3.47304e-11 -6.98188e-11 1.88598e-11 4.70172e-11 0 0 7.08601e-12 -3.35033e-12 3.14341e-11 5.39813e-11 0 0 7.65908e-12 3.38171e-11 7.49953e-11 3.12932e-11 0 0 1.5144e-11 7.63716e-11 4.91058e-11 6.39031e-11 0 0 3.03235e-11 8.84636e-11 4.94867e-11 7.18609e-11 0 0 4.51268e-11 1.01159e-10 5.21397e-11 8.33057e-11 0 0 5.96861e-11 9.7194e-11 8.52087e-11 6.84003e-11 0 0 6.61039e-11 1.00538e-10 9.62864e-11 6.77558e-11 0 0 6.6368e-11 9.92195e-11 1.0246e-10 6.16329e-11 0 0 6.12415e-11 9.38912e-11 9.62783e-11 5.66105e-11 0 0 5.15346e-11 8.16879e-11 8.1213e-11 4.94573e-11 0 0 4.11622e-11 6.54948e-11 6.49801e-11 3.99574e-11 0 0 2.99559e-11 4.80252e-11 4.74617e-11 2.93589e-11 0 0 1.93372e-11 3.13933e-11 3.08939e-11 1.91333e-11 0 0 1.09445e-11 1.787e-11 1.7718e-11 1.08548e-11 0 0 5.33471e-12 8.77029e-12 8.6836e-12 5.29826e-12 0 0 2.22947e-12 3.69576e-12 3.72873e-12 2.23808e-12 0 0 7.59159e-13 1.48648e-12 1.53797e-12 7.13643e-13 0 0 1.36022e-13 7.65425e-13 4.95917e-13 3.35428e-13 0 0 -3.48711e-14 4.07813e-13 2.1406e-13 2.89298e-13 0 0 8.92769e-14 4.03757e-15 4.8843e-13 5.13692e-15 0 0 5.57892e-14 3.15122e-14 3.89098e-13 9.77288e-14 0 0 3.9986e-14 1.07739e-13 2.2489e-13 2.49837e-13 0 0 1.35961e-13 1.89001e-14 2.80108e-13 1.75567e-13 0 0 1.37557e-13 -3.02805e-14 4.14144e-13 1.01591e-13 0 0 1.68978e-13 -3.94976e-14 4.0521e-13 1.94896e-13 0 0 2.25869e-13 -5.61685e-14 4.0064e-13 2.37667e-13 0 0 2.15286e-13 -1.03588e-14 3.35924e-13 3.79075e-13 0 0 2.07775e-13 1.12425e-13 1.26917e-13 5.90767e-13 0 0 3.14002e-13 -3.15908e-14 3.75843e-13 3.8018e-13 0 0 2.70961e-13 6.36847e-14 3.21341e-13 3.92126e-13 0 0 2.61754e-13 1.61003e-13 1.70002e-13 4.83933e-13 0 0 3.97452e-13 6.58412e-14 3.00868e-13 3.45878e-13 0 0 3.20831e-13 3.09781e-13 8.66707e-14 3.91563e-13 0 0 3.12823e-13 3.70158e-13 3.40609e-14 3.56532e-13 0 0 3.30587e-13 2.86288e-13 2.06646e-13 2.31202e-13 0 0 2.42939e-13 3.32335e-13 2.62473e-13 1.44626e-13 0 0 2.57023e-13 2.31648e-13 3.45711e-13 7.4818e-14 0 0 1.60114e-13 3.01095e-13 2.08051e-13 1.33932e-13 0 0 1.25994e-13 2.54167e-13 1.53249e-13 9.46531e-14 0 0 2.36259e-13 -2.70789e-14 3.75847e-13 -2.30814e-13 0 0 3.12135e-13 -5.84997e-14 2.63088e-13 -3.14814e-13 0 0 2.78322e-13 4.67215e-14 1.30983e-13 -3.12732e-13 0 0 1.50493e-13 2.36544e-13 -4.43452e-14 -2.68004e-13 0 0 3.73475e-13 -2.12923e-14 -1.17176e-13 -3.78977e-14 0 0 4.33325e-13 -6.18897e-14 -3.52348e-13 1.5946e-13 0 0 1.02298e-13 4.72398e-13 -8.35773e-13 2.34745e-13 0 0 3.59369e-13 -9.3842e-14 -1.68165e-13 -2.40743e-13 0 0 4.88923e-13 -4.28209e-13 6.32217e-14 -3.05065e-13 0 0 2.85095e-13 -4.82133e-14 -5.20764e-13 7.03526e-14 0 0 3.32397e-13 -9.45157e-14 -5.61129e-13 7.57627e-14 0
				</DataArray>
				<DataArray Name="VitesseY" type="Float32" format="ascii">