<?xml version="1.0"?>
<VTKFile type="PolyData">
	<PolyData>
		<Piece NumberOfPoints="1206" NumberOfPolys="1000">
			<Points>
				<DataArray type="Float32" NumberOfComponents="3" format="ascii">
 0 0 0 0.02 0 0 0.04 0 0 0.06 0 0 0.08 0 0 0.1 0 0 0 0.005 0 0.02 0.005 0 0.04 0.005 0 0.06 0.005 0 0.08 0.005 0 0.1 0.005 0 0 0.01 0 0.02 0.01 0 0.04 0.01 0 0.06 0.01 0 0.08 0.01 0 0.1 0.01 0 0 0.015 0 0.02 0.015 0 0.04 0.015 0 0.06 0.015 0 0.08 0.015 0 0.1 0.015 0 0 0.02 0 0.02 0.02 0 0.04 0.02 0 0.06 0.02 0 0.08 0.02 0 0.1 0.02 0 0 0.025 0 0.02 0.025 0 0.04 0.025 0 0.06 0.025 0 0.08 0.025 0 0.1 0.025 0 0 0.03 0 0.02 0.03 0 0.04 0.03 0 0.06 0.03 0 0.08 0.03 0 0.1 0.03 0 0 0.035 0 0.02 0.035 0 0.04 0.035 0 0.06 0.035 0 0.08 0.035 0 0.1 0.035 0 0 0.04 0 0.02 0.04 0 0.04 0.04 0 0.06 0.04 0 0.08 0.04 0 0.1 0.04 0 0 0.045 0 0.02 0.045 0 0.04 0.045 0 0.06 0.045 0 0.08 0.045 0 0.1 0.045 0 0 0.05 0 0.02 0.05 0 0.04 0.05 0 0.06 0.05 0 0.08 0.05 0 0.1 0.05 0 0 0.055 0 0.02 0.055 0 0.04 0.055 0 0.06 0.055 0 0.08 0.055 0 0.1 0.055 0 0 0.06 0 0.02 0.06 0 0.04 0.06 0 0.06 0.06 0 0.08 0.06 0 0.1 0.06 0 0 0.065 0 0.02 0.065 0 0.04 0.065 0 0.06 0.065 0 0.08 0.065 0 0.1 0.065 0 0 0.07 0 0.02 0.07 0 0.04 0.07 0 0.06 0.07 0 0.08 0.07 0 0.1 0.07 0 0 0.075 0 0.02 0.075 0 0.04 0.075 0 0.06 0.075 0 0.08 0.075 0 0.1 0.075 0 0 0.08 0 0.02 0.08 0 0.04 0.08 0 0.06 0.08 0 0.08 0.08 0 0.1 0.08 0 0 0.085 0 0.02 0.085 0 0.04 0.085 0 0.06 0.085 0 0.08 0.085 0 0.1 0.085 0 0 0.09 0 0.02 0.09 0 0.04 0.09 0 0.06 0.09 0 0.08 0.09 0 0.1 0.09 0 0 0.095 0 0.02 0.095 0 0.04 0.095 0 0.06 0.095 0 0.08 0.095 0 0.1 0.095 0 0 0.1 0 0.02 0.1 0 0.04 0.1 0 0.06 0.1 0 0.08 0.1 0 0.1 0.1 0 0 0.105 0 0.02 0.105 0 0.04 0.105 0 0.06 0.105 0 0.08 0.105 0 0.1 0.105 0 0 0.11 0 0.02 0.11 0 0.04 0.11 0 0.06 0.11 0 0.08 0.11 0 0.1 0.11 0 0 0.115 0 0.02 0.115 0 0.04 0.115 0 0.06 0.115 0 0.08 0.115 0 0.1 0.115 0 0 0.12 0 0.02 0.12 0 0.04 0.12 0 0.06 0.12 0 0.08 0.12 0 0.1 0.12 0 0 0.125 0 0.02 0.125 0 0.04 0.125 0 0.06 0.125 0 0.08 0.125 0 0.1 0.125 0 0 0.13 0 0.02 0.13 0 0.04 0.13 0 0.06 0.13 0 0.08 0.13 0 0.1 0.13 0 0 0.135 0 0.02 0.135 0 0.04 0.135 0 0.06 0.135 0 0.08 0.135 0 0.1 0.135 0 0 0.14 0 0.02 0.14 0 0.04 0.14 0 0.06 0.14 0 0.08 0.14 0 0.1 0.14 0 0 0.145 0 0.02 0.145 0 0.04 0.145 0 0.06 0.145 0 0.08 0.145 0 0.1 0.145 0 0 0.15 0 0.02 0.15 0 0.04 0.15 0 0.06 0.15 0 0.08 0.15 0 0.1 0.15 0 0 0.155 0 0.02 0.155 0 0.04 0.155 0 0.06 0.155 0 0.08 0.155 0 0.1 0.155 0 0 0.16 0 0.02 0.16 0 0.04 0.16 0 0.06 0.16 0 0.08 0.16 0 0.1 0.16 0 0 0.165 0 0.02 0.165 0 0.04 0.165 0 0.06 0.165 0 0.08 0.165 0 0.1 0.165 0 0 0.17 0 0.02 0.17 0 0.04 0.17 0 0.06 0.17 0 0.08 0.17 0 0.1 0.17 0 0 0.175 0 0.02 0.175 0 0.04 0.175 0 0.06 0.175 0 0.08 0.175 0 0.1 0.175 0 0 0.18 0 0.02 0.18 0 0.04 0.18 0 0.06 0.18 0 0.08 0.18 0 0.1 0.18 0 0 0.185 0 0.02 0.185 0 0.04 0.185 0 0.06 0.185 0 0.08 0.185 0 0.1 0.185 0 0 0.19 0 0.02 0.19 0 0.04 0.19 0 0.06 0.19 0 0.08 0.19 0 0.1 0.19 0 0 0.195 0 0.02 0.195 0 0.04 0.195 0 0.06 0.195 0 0.08 0.195 0 0.1 0.195 0 0 0.2 0 0.02 0.2 0 0.04 0.2 0 0.06 0.2 0 0.08 0.2 0 0.1 0.2 0 0 0.205 0 0.02 0.205 0 0.04 0.205 0 0.06 0.205 0 0.08 0.205 0 0.1 0.205 0 0 0.21 0 0.02 0.21 0 0.04 0.21 0 0.06 0.21 0 0.08 0.21 0 0.1 0.21 0 0 0.215 0 0.02 0.215 0 0.04 0.215 0 0.06 0.215 0 0.08 0.215 0 0.1 0.215 0 0 0.22 0 0.02 0.22 0 0.04 0.22 0 0.06 0.22 0 0.08 0.22 0 0.1 0.22 0 0 0.225 0 0.02 0.225 0 0.04 0.225 0 0.06 0.225 0 0.08 0.225 0 0.1 0.225 0 0 0.23 0 0.02 0.23 0 0.04 0.23 0 0.06 0.23 0 0.08 0.23 0 0.1 0.23 0 0 0.235 0 0.02 0.235 0 0.04 0.235 0 0.06 0.235 0 0.08 0.235 0 0.1 0.235 0 0 0.24 0 0.02 0.24 0 0.04 0.24 0 0.06 0.24 0 0.08 0.24 0 0.1 0.24 0 0 0.245 0 0.02 0.245 0 0.04 0.245 0 0.06 0.245 0 0.08 0.245 0 0.1 0.245 0 0 0.25 0 0.02 0.25 0 0.04 0.25 0 0.06 0.25 0 0.08 0.25 0 0.1 0.25 0 0 0.255 0 0.02 0.255 0 0.04 0.255 0 0.06 0.255 0 0.08 0.255 0 0.1 0.255 0 0 0.26 0 0.02 0.26 0 0.04 0.26 0 0.06 0.26 0 0.08 0.26 0 0.1 0.26 0 0 0.265 0 0.02 0.265 0 0.04 0.265 0 0.06 0.265 0 0.08 0.265 0 0.1 0.265 0 0 0.27 0 0.02 0.27 0 0.04 0.27 0 0.06 0.27 0 0.08 0.27 0 0.1 0.27 0 0 0.275 0 0.02 0.275 0 0.04 0.275 0 0.06 0.275 0 0.08 0.275 0 0.1 0.275 0 0 0.28 0 0.02 0.28 0 0.04 0.28 0 0.06 0.28 0 0.08 0.28 0 0.1 0.28 0 0 0.285 0 0.02 0.285 0 0.04 0.285 0 0.06 0.285 0 0.08 0.285 0 0.1 0.285 0 0 0.29 0 0.02 0.29 0 0.04 0.29 0 0.06 0.29 0 0.08 0.29 0 0.1 0.29 0 0 0.295 0 0.02 0.295 0 0.04 0.295 0 0.06 0.295 0 0.08 0.295 0 0.1 0.295 0 0 0.3 0 0.02 0.3 0 0.04 0.3 0 0.06 0.3 0 0.08 0.3 0 0.1 0.3 0 0 0.305 0 0.02 0.305 0 0.04 0.305 0 0.06 0.305 0 0.08 0.305 0 0.1 0.305 0 0 0.31 0 0.02 0.31 0 0.04 0.31 0 0.06 0.31 0 0.08 0.31 0 0.1 0.31 0 0 0.315 0 0.02 0.315 0 0.04 0.315 0 0.06 0.315 0 0.08 0.315 0 0.1 0.315 0 0 0.32 0 0.02 0.32 0 0.04 0.32 0 0.06 0.32 0 0.08 0.32 0 0.1 0.32 0 0 0.325 0 0.02 0.325 0 0.04 0.325 0 0.06 0.325 0 0.08 0.325 0 0.1 0.325 0 0 0.33 0 0.02 0.33 0 0.04 0.33 0 0.06 0.33 0 0.08 0.33 0 0.1 0.33 0 0 0.335 0 0.02 0.335 0 0.04 0.335 0 0.06 0.335 0 0.08 0.335 0 0.1 0.335 0 0 0.34 0 0.02 0.34 0 0.04 0.34 0 0.06 0.34 0 0.08 0.34 0 0.1 0.34 0 0 0.345 0 0.02 0.345 0 0.04 0.345 0 0.06 0.345 0 0.08 0.345 0 0.1 0.345 0 0 0.35 0 0.02 0.35 0 0.04 0.35 0 0.06 0.35 0 0.08 0.35 0 0.1 0.35 0 0 0.355 0 0.02 0.355 0 0.04 0.355 0 0.06 0.355 0 0.08 0.355 0 0.1 0.355 0 0 0.36 0 0.02 0.36 0 0.04 0.36 0 0.06 0.36 0 0.08 0.36 0 0.1 0.36 0 0 0.365 0 0.02 0.365 0 0.04 0.365 0 0.06 0.365 0 0.08 0.365 0 0.1 0.365 0 0 0.37 0 0.02 0.37 0 0.04 0.37 0 0.06 0.37 0 0.08 0.37 0 0.1 0.37 0 0 0.375 0 0.02 0.375 0 0.04 0.375 0 0.06 0.375 0 0.08 0.375 0 0.1 0.375 0 0 0.38 0 0.02 0.38 0 0.04 0.38 0 0.06 0.38 0 0.08 0.38 0 0.1 0.38 0 0 0.385 0 0.02 0.385 0 0.04 0.385 0 0.06 0.385 0 0.08 0.385 0 0.1 0.385 0 0 0.39 0 0.02 0.39 0 0.04 0.39 0 0.06 0.39 0 0.08 0.39 0 0.1 0.39 0 0 0.395 0 0.02 0.395 0 0.04 0.395 0 0.06 0.395 0 0.08 0.395 0 0.1 0.395 0 0 0.4 0 0.02 0.4 0 0.04 0.4 0 0.06 0.4 0 0.08 0.4 0 0.1 0.4 0 0 0.405 0 0.02 0.405 0 0.04 0.405 0 0.06 0.405 0 0.08 0.405 0 0.1 0.405 0 0 0.41 0 0.02 0.41 0 0.04 0.41 0 0.06 0.41 0 0.08 0.41 0 0.1 0.41 0 0 0.415 0 0.02 0.415 0 0.04 0.415 0 0.06 0.415 0 0.08 0.415 0 0.1 0.415 0 0 0.42 0 0.02 0.42 0 0.04 0.42 0 0.06 0.42 0 0.08 0.42 0 0.1 0.42 0 0 0.425 0 0.02 0.425 0 0.04 0.425 0 0.06 0.425 0 0.08 0.425 0 0.1 0.425 0 0 0.43 0 0.02 0.43 0 0.04 0.43 0 0.06 0.43 0 0.08 0.43 0 0.1 0.43 0 0 0.435 0 0.02 0.435 0 0.04 0.435 0 0.06 0.435 0 0.08 0.435 0 0.1 0.435 0 0 0.44 0 0.02 0.44 0 0.04 0.44 0 0.06 0.44 0 0.08 0.44 0 0.1 0.44 0 0 0.445 0 0.02 0.445 0 0.04 0.445 0 0.06 0.445 0 0.08 0.445 0 0.1 0.445 0 0 0.45 0 0.02 0.45 0 0.04 0.45 0 0.06 0.45 0 0.08 0.45 0 0.1 0.45 0 0 0.455 0 0.02 0.455 0 0.04 0.455 0 0.06 0.455 0 0.08 0.455 0 0.1 0.455 0 0 0.46 0 0.02 0.46 0 0.04 0.46 0 0.06 0.46 0 0.08 0.46 0 0.1 0.46 0 0 0.465 0 0.02 0.465 0 0.04 0.465 0 0.06 0.465 0 0.08 0.465 0 0.1 0.465 0 0 0.47 0 0.02 0.47 0 0.04 0.47 0 0.06 0.47 0 0.08 0.47 0 0.1 0.47 0 0 0.475 0 0.02 0.475 0 0.04 0.475 0 0.06 0.475 0 0.08 0.475 0 0.1 0.475 0 0 0.48 0 0.02 0.48 0 0.04 0.48 0 0.06 0.48 0 0.08 0.48 0 0.1 0.48 0 0 0.485 0 0.02 0.485 0 0.04 0.485 0 0.06 0.485 0 0.08 0.485 0 0.1 0.485 0 0 0.49 0 0.02 0.49 0 0.04 0.49 0 0.06 0.49 0 0.08 0.49 0 0.1 0.49 0 0 0.495 0 0.02 0.495 0 0.04 0.495 0 0.06 0.495 0 0.08 0.495 0 0.1 0.495 0 0 0.5 0 0.02 0.5 0 0.04 0.5 0 0.06 0.5 0 0.08 0.5 0 0.1 0.5 0 0 0.505 0 0.02 0.505 0 0.04 0.505 0 0.06 0.505 0 0.08 0.505 0 0.1 0.505 0 0 0.51 0 0.02 0.51 0 0.04 0.51 0 0.06 0.51 0 0.08 0.51 0 0.1 0.51 0 0 0.515 0 0.02 0.515 0 0.04 0.515 0 0.06 0.515 0 0.08 0.515 0 0.1 0.515 0 0 0.52 0 0.02 0.52 0 0.04 0.52 0 0.06 0.52 0 0.08 0.52 0 0.1 0.52 0 0 0.525 0 0.02 0.525 0 0.04 0.525 0 0.06 0.525 0 0.08 0.525 0 0.1 0.525 0 0 0.53 0 0.02 0.53 0 0.04 0.53 0 0.06 0.53 0 0.08 0.53 0 0.1 0.53 0 0 0.535 0 0.02 0.535 0 0.04 0.535 0 0.06 0.535 0 0.08 0.535 0 0.1 0.535 0 0 0.54 0 0.02 0.54 0 0.04 0.54 0 0.06 0.54 0 0.08 0.54 0 0.1 0.54 0 0 0.545 0 0.02 0.545 0 0.04 0.545 0 0.06 0.545 0 0.08 0.545 0 0.1 0.545 0 0 0.55 0 0.02 0.55 0 0.04 0.55 0 0.06 0.55 0 0.08 0.55 0 0.1 0.55 0 0 0.555 0 0.02 0.555 0 0.04 0.555 0 0.06 0.555 0 0.08 0.555 0 0.1 0.555 0 0 0.56 0 0.02 0.56 0 0.04 0.56 0 0.06 0.56 0 0.08 0.56 0 0.1 0.56 0 0 0.565 0 0.02 0.565 0 0.04 0.565 0 0.06 0.565 0 0.08 0.565 0 0.1 0.565 0 0 0.57 0 0.02 0.57 0 0.04 0.57 0 0.06 0.57 0 0.08 0.57 0 0.1 0.57 0 0 0.575 0 0.02 0.575 0 0.04 0.575 0 0.06 0.575 0 0.08 0.575 0 0.1 0.575 0 0 0.58 0 0.02 0.58 0 0.04 0.58 0 0.06 0.58 0 0.08 0.58 0 0.1 0.58 0 0 0.585 0 0.02 0.585 0 0.04 0.585 0 0.06 0.585 0 0.08 0.585 0 0.1 0.585 0 0 0.59 0 0.02 0.59 0 0.04 0.59 0 0.06 0.59 0 0.08 0.59 0 0.1 0.59 0 0 0.595 0 0.02 0.595 0 0.04 0.595 0 0.06 0.595 0 0.08 0.595 0 0.1 0.595 0 0 0.6 0 0.02 0.6 0 0.04 0.6 0 0.06 0.6 0 0.08 0.6 0 0.1 0.6 0 0 0.605 0 0.02 0.605 0 0.04 0.605 0 0.06 0.605 0 0.08 0.605 0 0.1 0.605 0 0 0.61 0 0.02 0.61 0 0.04 0.61 0 0.06 0.61 0 0.08 0.61 0 0.1 0.61 0 0 0.615 0 0.02 0.615 0 0.04 0.615 0 0.06 0.615 0 0.08 0.615 0 0.1 0.615 0 0 0.62 0 0.02 0.62 0 0.04 0.62 0 0.06 0.62 0 0.08 0.62 0 0.1 0.62 0 0 0.625 0 0.02 0.625 0 0.04 0.625 0 0.06 0.625 0 0.08 0.625 0 0.1 0.625 0 0 0.63 0 0.02 0.63 0 0.04 0.63 0 0.06 0.63 0 0.08 0.63 0 0.1 0.63 0 0 0.635 0 0.02 0.635 0 0.04 0.635 0 0.06 0.635 0 0.08 0.635 0 0.1 0.635 0 0 0.64 0 0.02 0.64 0 0.04 0.64 0 0.06 0.64 0 0.08 0.64 0 0.1 0.64 0 0 0.645 0 0.02 0.645 0 0.04 0.645 0 0.06 0.645 0 0.08 0.645 0 0.1 0.645 0 0 0.65 0 0.02 0.65 0 0.04 0.65 0 0.06 0.65 0 0.08 0.65 0 0.1 0.65 0 0 0.655 0 0.02 0.655 0 0.04 0.655 0 0.06 0.655 0 0.08 0.655 0 0.1 0.655 0 0 0.66 0 0.02 0.66 0 0.04 0.66 0 0.06 0.66 0 0.08 0.66 0 0.1 0.66 0 0 0.665 0 0.02 0.665 0 0.04 0.665 0 0.06 0.665 0 0.08 0.665 0 0.1 0.665 0 0 0.67 0 0.02 0.67 0 0.04 0.67 0 0.06 0.67 0 0.08 0.67 0 0.1 0.67 0 0 0.675 0 0.02 0.675 0 0.04 0.675 0 0.06 0.675 0 0.08 0.675 0 0.1 0.675 0 0 0.68 0 0.02 0.68 0 0.04 0.68 0 0.06 0.68 0 0.08 0.68 0 0.1 0.68 0 0 0.685 0 0.02 0.685 0 0.04 0.685 0 0.06 0.685 0 0.08 0.685 0 0.1 0.685 0 0 0.69 0 0.02 0.69 0 0.04 0.69 0 0.06 0.69 0 0.08 0.69 0 0.1 
[...]
			<PointData Scalars="VitesseX">
				<DataArray Name="VitesseX" type="Float32" format="ascii">
 0 4.05651e-14 7.11073e-14 4.57407e-14 2.36936e-14 0 0 3.72939e-14 7.35728e-14 4.33665e-14 2.5912e-14 0 0 4.94443e-14 4.75885e-14 6.15256e-14 1.95406e-14 0 0 4.67612e-14 5.28889e-14 4.78219e-14 2.47286e-14 0 0 3.71535e-14 6.87799e-14 2.94642e-14 3.2966e-14 0 0 5.47594e-14 2.80964e-14 7.25578e-14 8.55889e-15 0 0 5.65147e-14 2.56629e-14 7.78509e-14 1.07479e-15 0 0 5.71692e-14 3.43646e-14 7.13609e-14 5.54866e-15 0 0 5.74482e-14 3.66859e-14 7.38151e-14 5.81118e-15 0 0 3.82933e-14 6.71856e-14 3.76205e-14 3.74096e-14 0 0 3.06352e-14 8.05544e-14 2.1235e-14 5.04517e-14 0 0 5.45868e-14 4.07379e-14 7.91093e-14 3.12005e-15 0 0 6.09622e-14 3.87718e-14 1.07866e-13 -3.83558e-14 0 0 3.10062e-14 1.12355e-13 3.83704e-14 1.72516e-15 0 0 8.64976e-15 1.48068e-13 -1.68386e-14 6.45116e-14 0 0 4.24939e-14 7.39683e-14 4.61249e-14 2.36597e-14 0 0 5.3715e-14 6.11195e-14 4.42261e-14 2.15021e-14 0 0 4.09446e-14 9.90173e-14 5.47376e-15 6.76036e-14 0 0 4.46218e-14 1.04922e-13 1.15832e-14 8.80041e-14 0 0 2.24729e-14 1.43666e-13 -1.51252e-14 1.09991e-13 0 0 6.52798e-14 7.29701e-14 7.21792e-14 5.45812e-14 0 0 4.46432e-14 1.31692e-13 1.31327e-14 8.05641e-14 0 0 7.76316e-15 2.00574e-13 -4.58619e-14 8.76126e-14 0 0 -1.66818e-14 2.32472e-13 -8.15629e-14 9.60138e-14 0 0 1.99911e-14 1.43143e-13 2.22228e-14 2.07576e-14 0 0 1.07796e-13 -1.78183e-14 1.91984e-13 -9.23863e-14 0 0 8.42892e-14 5.29618e-14 1.08948e-13 -7.13463e-14 0 0 5.16613e-14 1.54923e-13 -4.95065e-14 1.96879e-14 0 0 1.34053e-13 4.02554e-14 -1.30077e-14 5.68506e-14 0 0 1.60931e-13 3.06666e-14 -6.90994e-14 1.11379e-13 0 0 1.17294e-13 1.36433e-13 -2.01131e-13 1.57944e-13 0 0 1.92956e-13 -1.54828e-14 4.68276e-14 -8.30719e-14 0 0 1.23249e-13 6.80763e-14 4.94756e-14 -1.46671e-13 0 0 5.84197e-14 1.60995e-13 -3.91007e-14 -3.95725e-14 0 0 9.97747e-14 6.20901e-14 7.70502e-14 -2.77799e-14 0 0 5.52057e-14 1.01852e-13 4.38875e-14 9.02415e-14 0 0 6.82867e-14 9.01945e-14 4.47417e-14 9.95925e-14 0 0 6.7727e-15 2.21966e-13 -1.05197e-13 1.94062e-13 0 0 -1.60401e-14 2.52254e-13 -1.11383e-13 2.26993e-13 0 0 7.32486e-14 9.3853e-14 1.0813e-13 4.83519e-14 0 0 9.30849e-14 8.53954e-14 5.12141e-14 9.68154e-14 0 0 4.55832e-14 1.52001e-13 -4.41533e-14 1.38536e-13 0 0 -3.58365e-14 2.04966e-13 -2.20958e-14 9.11059e-14 0 0 -6.43262e-14 1.59961e-13 5.08738e-14 8.37432e-14 0 0 -5.58004e-14 7.83984e-14 1.79173e-13 1.24367e-14 0 0 5.40778e-14 -7.80303e-14 2.36515e-13 1.59115e-14 0 0 9.54248e-14 -8.00769e-14 8.48518e-14 1.3368e-13 0 0 3.04493e-14 6.79205e-14 -3.6296e-14 9.99491e-14 0 0 -8.95718e-14 2.41463e-13 -1.33938e-13 1.14778e-13 0 0 -1.81495e-13 2.9635e-13 -3.81316e-14 5.96134e-14 0 0 -5.04398e-14 1.13016e-13 2.35334e-13 -1.24604e-13 0 0 2.68818e-14 9.59768e-14 2.7939e-13 -1.22994e-13 0 0 4.26948e-15 1.97014e-13 2.28735e-13 -5.6329e-14 0 0 -7.73193e-14 2.83462e-13 1.32466e-13 6.15068e-14 0 0 -7.95937e-14 3.2366e-13 5.44325e-14 1.6458e-13 0 0 2.84707e-14 3.60001e-13 4.92811e-14 1.58194e-13 0 0 5.95291e-14 4.99009e-13 -4.04285e-14 1.85066e-13 0 0 2.06232e-13 3.17628e-13 1.74518e-13 2.57943e-14 0 0 1.79945e-13 2.22312e-13 2.46337e-13 -6.39914e-15 0 0 7.52663e-14 2.02867e-13 2.52553e-13 6.85179e-14 0 0 4.72201e-14 2.40845e-13 2.93994e-13 1.25297e-13 0 0 9.33864e-14 3.7776e-13 2.90105e-13 2.13973e-13 0 0 2.75818e-13 4.59209e-13 4.64797e-13 3.11518e-13 0 0 4.73555e-13 8.46776e-13 7.85562e-13 5.95507e-13 0 0 9.04857e-13 1.84371e-12 1.68916e-12 1.11886e-12 0 0 2.11834e-12 3.81159e-12 3.71724e-12 2.26103e-12 0 0 4.46396e-12 7.67969e-12 7.37039e-12 4.61505e-12 0 0 8.57264e-12 1.36734e-11 1.38599e-11 8.24289e-12 0 0 1.41922e-11 2.26289e-11 2.28252e-11 1.37377e-11 0 0 2.11668e-11 3.42167e-11 3.38566e-11 2.09541e-11 0 0 2.93353e-11 4.68586e-11 4.6932e-11 2.86532e-11 0 0 3.76188e-11 6.00359e-11 6.00707e-11 3.65755e-11 0 0 4.52741e-11 7.2719e-11 7.15357e-11 4.42325e-11 0 0 5.1866e-11 8.29583e-11 8.15636e-11 4.99869e-11 0 0 5.6708e-11 9.03474e-11 8.88745e-11 5.40327e-11 0 0 5.93353e-11 9.50117e-11 9.25785e-11 5.65628e-11 0 0 6.03194e-11 9.49609e-11 9.36175e-11 5.59338e-11 0 0 5.84945e-11 9.15394e-11 8.99699e-11 5.39704e-11 0 0 5.40708e-11 8.47655e-11 8.23679e-11 5.02476e-11 0 0 4.66477e-11 7.4249e-11 7.10557e-11 4.44934e-11 0 0 3.74205e-11 5.84134e-11 5.81095e-11 3.54082e-11 0 0 2.5124e-11 3.99743e-11 4.11881e-11 2.55064e-11 0 0 1.02442e-11 1.85749e-11 2.12886e-11 1.45041e-11 0 0 -7.15042e-12 -5.44423e-12 -1.6382e-12 2.63539e-12 0 0 -2.56821e-11 -3.31132e-11 -2.44168e-11 -1.10303e-11 0 0 -4.64811e-11 -6.39328e-11 -5.07464e-11 -2.48636e-11 0 0 -6.74217e-11 -9.52468e-11 -7.67106e-11 -3.93905e-11 0 0 -9.16475e-11 -1.30126e-10 -1.06224e-10 -5.44539e-11 0 0 -1.15437e-10 -1.64204e-10 -1.36032e-10 -6.94438e-11 0 0 -1.40735e-10 -2.00524e-10 -1.66695e-10 -8.47568e-11 0 0 -1.66403e-10 -2.36799e-10 -1.98777e-10 -1.01565e-10 0 0 -1.91491e-10 -2.74168e-10 -2.30626e-10 -1.19105e-10 0 0 -2.16038e-10 -3.11287e-10 -2.62916e-10 -1.37414e-10 0 0 -2.40049e-10 -3.47978e-10 -2.95645e-10 -1.55917e-10 0 0 -2.63095e-10 -3.84409e-10 -3.28434e-10 -1.75974e-10 0 0 -2.80594e-10 -4.21483e-10 -3.65232e-10 -1.94805e-10 0 0 -3.09323e-10 -4.54317e-10 -3.98159e-10 -2.13683e-10 0 0 -2.58318e-10 -5.34085e-10 -4.78473e-10 -1.55216e-10 0 0 1.39474e-09 -1.53349e-09 -1.94836e-09 1.83966e-09 0 0 -6.96516e-09 3.16448e-09 3.64151e-09 -6.84056e-09 0 0 -7.34906e-09 3.32213e-09 3.99776e-09 -7.42623e-09 0 0 7.791e-09 -4.80413e-09 -6.95172e-09 8.80072e-09 0 0 1.31701e-08 -8.57015e-09 -8.16688e-09 1.2072e-08 0 0 6.58548e-09 -5.91104e-09 5.48209e-10 2.00811e-09 0 0 -6.45141e-09 2.69675e-09 5.53306e-09 -7.72591e-09 0 0 -7.70292e-09 6.15882e-09 2.55815e-09 -5.6394e-09 0 0 -6.10307e-09 5.68274e-09 -5.37242e-10 -2.40049e-09 0 0 -5.55777e-09 5.25288e-09 -2.43583e-10 -2.60665e-09 0 0 -7.82212e-09 4.33332e-09 5.71905e-09 -9.02632e-09 0 0 -8.14521e-09 3.57315e-09 7.91508e-09 -1.09957e-08 0 0 -5.07483e-09 2.3649e-09 4.37792e-09 -6.31474e-09 0 0 9.19101e-10 -2.12927e-13 -8.44802e-10 1.27656e-09 0 0 4.50042e-09 -1.67766e-09 -3.37872e-09 5.16223e-09 0 0 4.64804e-09 -1.9915e-09 -3.36681e-09 5.23577e-09 0 0 4.39404e-09 -2.02758e-09 -2.30386e-09 4.23701e-09 0 0 3.19402e-09 -1.59801e-09 -1.38141e-09 2.98794e-09 0 0 1.70324e-09 -6.84633e-10 -1.18897e-09 2.31016e-09 0 0 3.83141e-10 -1.02266e-10 -3.94407e-10 1.0643e-09 0 0 -6.17491e-10 1.26066e-10 6.29689e-10 -2.03235e-10 0 0 -7.91398e-10 2.76296e-10 9.42271e-10 -1.08764e-09 0 0 -8.11975e-10 4.14964e-10 8.24687e-10 -1.03467e-09 0 0 -7.72066e-10 4.06039e-10 7.05972e-10 -9.46847e-10 0 0 -5.99558e-10 2.39568e-10 7.46574e-10 -9.6615e-10 0 0 -4.33446e-10 1.84945e-10 3.9659e-10 -6.92421e-10 0 0 -1.27203e-10 2.02559e-10 -7.146e-10 6.8487e-10 0 0 5.89078e-10 -4.73373e-10 -4.22102e-10 6.71308e-10 0 0 6.51913e-10 -9.65146e-10 5.77252e-10 -1.69676e-10 0 0 -1.24255e-10 1.5191e-10 5.92697e-11 -7.25597e-11 0 0 -1.04787e-09 1.15545e-09 3.786e-10 -7.50109e-10 0 0 -1.13128e-09 1.10027e-09 1.59355e-09 -2.02322e-09 0 0 -8.5995e-10 8.47945e-10 1.60435e-09 -1.98071e-09 0 0 -3.4813e-10 6.51629e-10 9.39781e-10 -1.21466e-09 0 0 1.68768e-10 2.96362e-10 -5.29982e-11 -9.42914e-11 0 0 6.37447e-10 -1.33959e-10 -4.72452e-10 5.47838e-10 0 0 7.1811e-10 -2.48495e-10 -4.99534e-10 6.45272e-10 0 0 5.25268e-10 -9.53385e-11 -4.67425e-10 6.16239e-10 0 0 2.386e-10 1.23064e-10 -3.38577e-10 4.60229e-10 0 0 1.27948e-10 1.53552e-10 -1.78648e-10 2.94863e-10 0 0 7.35977e-11 1.53288e-10 -3.00501e-11 1.53508e-10 0 0 3.38928e-11 1.48035e-10 1.08993e-10 3.61566e-11 0 0 1.71629e-11 1.56891e-10 1.48718e-10 1.53171e-11 0 0 2.25075e-11 1.52698e-10 1.82991e-10 3.80132e-12 0 0 3.98155e-11 1.40269e-10 1.92408e-10 9.34513e-12 0 0 5.95237e-11 1.32468e-10 1.90022e-10 3.76651e-11 0 0 7.81246e-11 1.2552e-10 1.71982e-10 7.20851e-11 0 0 7.85509e-11 1.31019e-10 1.36561e-10 1.03337e-10 0 0 7.9838e-11 1.28706e-10 1.27212e-10 1.05859e-10 0 0 7.65284e-11 1.23277e-10 1.22459e-10 1.00254e-10 0 0 6.88712e-11 1.1232e-10 1.16832e-10 8.29224e-11 0 0 5.97855e-11 9.85242e-11 1.02474e-10 6.68172e-11 0 0 4.90414e-11 8.08459e-11 8.30771e-11 5.27345e-11 0 0 3.71468e-11 6.08889e-11 6.20317e-11 3.92008e-11 0 0 2.52868e-11 4.12655e-11 4.16132e-11 2.63929e-11 0 0 1.51281e-11 2.47012e-11 2.46343e-11 1.55985e-11 0 0 7.90359e-12 1.27059e-11 1.28105e-11 7.89469e-12 0 0 3.54047e-12 5.6936e-12 5.81873e-12 3.38196e-12 0 0 1.44169e-12 2.35275e-12 2.46696e-12 1.2642e-12 0 0 6.32964e-13 9.86994e-13 1.13863e-12 4.35239e-13 0 0 3.62922e-13 5.10011e-13 6.07552e-13 2.19787e-13 0 0 2.50901e-13 4.26464e-13 2.97997e-13 2.47402e-13 0 0 2.1571e-13 3.25276e-13 3.01451e-13 1.75718e-13 0 0 1.81724e-13 2.57216e-13 3.95459e-13 1.15791e-13 0 0 6.8404e-14 4.18741e-13 2.08909e-13 2.60925e-13 0 0 6.26651e-14 3.42039e-13 3.02398e-13 2.16003e-13 0 0 1.86852e-14 3.53073e-13 3.56988e-13 1.55008e-13 0 0 2.24548e-14 3.629e-13 3.3794e-13 2.17646e-13 0 0 1.38508e-13 2.68918e-13 3.72792e-13 2.64437e-13 0 0 3.26399e-13 8.01083e-14 5.18956e-13 1.57259e-13 0 0 3.94862e-13 2.23468e-14 6.17682e-13 7.62271e-14 0 0 1.61807e-13 4.5148e-13 2.8339e-13 2.10253e-13 0 0 1.026e-13 5.14374e-13 3.32132e-13 1.48871e-13 0 0 2.50508e-13 2.50847e-13 6.48047e-13 -6.82473e-14 0 0 2.70435e-13 2.63251e-13 6.06843e-13 -3.19691e-14 0 0 2.83192e-13 3.70082e-13 4.09627e-13 2.03172e-13 0 0 2.79467e-13 4.05758e-13 2.93507e-13 3.89485e-13 0 0 2.99988e-13 3.28319e-13 3.62975e-13 3.85144e-13 0 0 2.74367e-13 4.3754e-13 2.14266e-13 3.8724e-13 0 0 2.21226e-13 4.46993e-13 2.0657e-13 4.2884e-13 0 0 2.85116e-13 2.53191e-13 3.53862e-13 4.94045e-13 0 0 4.39557e-13 -7.29263e-15 5.25094e-13 4.37135e-13 0 0 4.55042e-13 -6.58792e-14 5.97296e-13 4.48061e-13 0 0 2.79304e-13 3.24359e-13 3.11803e-13 6.60559e-13 0 0 1.29281e-13 5.13516e-13 3.04331e-13 6.14902e-13 0 0 1.61942e-13 3.32218e-13 4.47089e-13 5.73974e-13 0 0 9.28737e-14 3.80337e-13 4.3218e-13 4.99937e-13 0 0 1.8501e-13 3.0699e-13 5.29785e-13 3.31942e-13 0 0 3.04152e-13 3.55371e-13 4.57e-13 2.45006e-13 0 0 4.13655e-13 2.57785e-13 6.1051e-13 -4.53836e-14 0 0 5.25719e-13 1.17943e-13 6.25569e-13 1.60256e-14 0 0 4.73623e-13 2.27138e-13 4.07174e-13 1.81754e-13 0 0 5.81759e-13 9.68675e-14 4.14819e-13 1.08389e-13 0 0 5.46544e-13 2.56169e-14 3.8252e-13 1.99156e-13 0 0 1.60511e-13 4.0293e-13 8.30483e-14 3.6017e-13 0 0 1.90293e-13 3.97085e-13 1.36454e-13 2.41386e-13 0 0 4.66375e-13 -6.47118e-14 4.80281e-13 4.37639e-14 0 0 3.49952e-13 -1.07111e-13 4.44826e-13 1.36462e-13 0 0 2.83296e-13 -1.15143e-13 6.23161e-13 -1.77064e-14 0 0 3.48719e-13 -3.35437e-14 4.74958e-13 -1.77549e-14 0 0 2.89114e-13 2.22115e-13 -4.68113e-14 2.17303e-13 0 0 -1.16838e-14 6.5431e-13 -7.12301e-13 5.0813e-13 0 0 -1.62831e-13 8.70606e-13 -1.12306e-12 7.26248e-13 0
				</DataArray>
				<DataArray Name="VitesseY" type="Float32" format="ascii">