<?xml version="1.0"?>
<VTKFile type="PolyData">
	<PolyData>
		<Piece NumberOfPoints="1206" NumberOfPolys="1000">
			<Points>
				<DataArray type="Float32" NumberOfComponents="3" format="ascii">
 0 0 0 0.02 0 0 0.04 0 0 0.06 0 0 0.08 0 0 0.1 0 0 0 0.005 0 0.02 0.005 0 0.04 0.005 0 0.06 0.005 0 0.08 0.005 0 0.1 0.005 0 0 0.01 0 0.02 0.01 0 0.04 0.01 0 0.06 0.01 0 0.08 0.01 0 0.1 0.01 0 0 0.015 0 0.02 0.015 0 0.04 0.015 0 0.06 0.015 0 0.08 0.015 0 0.1 0.015 0 0 0.02 0 0.02 0.02 0 0.04 0.02 0 0.06 0.02 0 0.08 0.02 0 0.1 0.02 0 0 0.025 0 0.02 0.025 0 0.04 0.025 0 0.06 0.025 0 0.08 0.025 0 0.1 0.025 0 0 0.03 0 0.02 0.03 0 0.04 0.03 0 0.06 0.03 0 0.08 0.03 0 0.1 0.03 0 0 0.035 0 0.02 0.035 0 0.04 0.035 0 0.06 0.035 0 0.08 0.035 0 0.1 0.035 0 0 0.04 0 0.02 0.04 0 0.04 0.04 0 0.06 0.04 0 0.08 0.04 0 0.1 0.04 0 0 0.045 0 0.02 0.045 0 0.04 0.045 0 0.06 0.045 0 0.08 0.045 0 0.1 0.045 0 0 0.05 0 0.02 0.05 0 0.04 0.05 0 0.06 0.05 0 0.08 0.05 0 0.1 0.05 0 0 0.055 0 0.02 0.055 0 0.04 0.055 0 0.06 0.055 0 0.08 0.055 0 0.1 0.055 0 0 0.06 0 0.02 0.06 0 0.04 0.06 0 0.06 0.06 0 0.08 0.06 0 0.1 0.06 0 0 0.065 0 0.02 0.065 0 0.04 0.065 0 0.06 0.065 0 0.08 0.065 0 0.1 0.065 0 0 0.07 0 0.02 0.07 0 0.04 0.07 0 0.06 0.07 0 0.08 0.07 0 0.1 0.07 0 0 0.075 0 0.02 0.075 0 0.04 0.075 0 0.06 0.075 0 0.08 0.075 0 0.1 0.075 0 0 0.08 0 0.02 0.08 0 0.04 0.08 0 0.06 0.08 0 0.08 0.08 0 0.1 0.08 0 0 0.085 0 0.02 0.085 0 0.04 0.085 0 0.06 0.085 0 0.08 0.085 0 0.1 0.085 0 0 0.09 0 0.02 0.09 0 0.04 0.09 0 0.06 0.09 0 0.08 0.09 0 0.1 0.09 0 0 0.095 0 0.02 0.095 0 0.04 0.095 0 0.06 0.095 0 0.08 0.095 0 0.1 0.095 0 0 0.1 0 0.02 0.1 0 0.04 0.1 0 0.06 0.1 0 0.08 0.1 0 0.1 0.1 0 0 0.105 0 0.02 0.105 0 0.04 0.105 0 0.06 0.105 0 0.08 0.105 0 0.1 0.105 0 0 0.11 0 0.02 0.11 0 0.04 0.11 0 0.06 0.11 0 0.08 0.11 0 0.1 0.11 0 0 0.115 0 0.02 0.115 0 0.04 0.115 0 0.06 0.115 0 0.08 0.115 0 0.1 0.115 0 0 0.12 0 0.02 0.12 0 0.04 0.12 0 0.06 0.12 0 0.08 0.12 0 0.1 0.12 0 0 0.125 0 0.02 0.125 0 0.04 0.125 0 0.06 0.125 0 0.08 0.125 0 0.1 0.125 0 0 0.13 0 0.02 0.13 0 0.04 0.13 0 0.06 0.13 0 0.08 0.13 0 0.1 0.13 0 0 0.135 0 0.02 0.135 0 0.04 0.135 0 0.06 0.135 0 0.08 0.135 0 0.1 0.135 0 0 0.14 0 0.02 0.14 0 0.04 0.14 0 0.06 0.14 0 0.08 0.14 0 0.1 0.14 0 0 0.145 0 0.02 0.145 0 0.04 0.145 0 0.06 0.145 0 0.08 0.145 0 0.1 0.145 0 0 0.15 0 0.02 0.15 0 0.04 0.15 0 0.06 0.15 0 0.08 0.15 0 0.1 0.15 0 0 0.155 0 0.02 0.155 0 0.04 0.155 0 0.06 0.155 0 0.08 0.155 0 0.1 0.155 0 0 0.16 0 0.02 0.16 0 0.04 0.16 0 0.06 0.16 0 0.08 0.16 0 0.1 0.16 0 0 0.165 0 0.02 0.165 0 0.04 0.165 0 0.06 0.165 0 0.08 0.165 0 0.1 0.165 0 0 0.17 0 0.02 0.17 0 0.04 0.17 0 0.06 0.17 0 0.08 0.17 0 0.1 0.17 0 0 0.175 0 0.02 0.175 0 0.04 0.175 0 0.06 0.175 0 0.08 0.175 0 0.1 0.175 0 0 0.18 0 0.02 0.18 0 0.04 0.18 0 0.06 0.18 0 0.08 0.18 0 0.1 0.18 0 0 0.185 0 0.02 0.185 0 0.04 0.185 0 0.06 0.185 0 0.08 0.185 0 0.1 0.185 0 0 0.19 0 0.02 0.19 0 0.04 0.19 0 0.06 0.19 0 0.08 0.19 0 0.1 0.19 0 0 0.195 0 0.02 0.195 0 0.04 0.195 0 0.06 0.195 0 0.08 0.195 0 0.1 0.195 0 0 0.2 0 0.02 0.2 0 0.04 0.2 0 0.06 0.2 0 0.08 0.2 0 0.1 0.2 0 0 0.205 0 0.02 0.205 0 0.04 0.205 0 0.06 0.205 0 0.08 0.205 0 0.1 0.205 0 0 0.21 0 0.02 0.21 0 0.04 0.21 0 0.06 0.21 0 0.08 0.21 0 0.1 0.21 0 0 0.215 0 0.02 0.215 0 0.04 0.215 0 0.06 0.215 0 0.08 0.215 0 0.1 0.215 0 0 0.22 0 0.02 0.22 0 0.04 0.22 0 0.06 0.22 0 0.08 0.22 0 0.1 0.22 0 0 0.225 0 0.02 0.225 0 0.04 0.225 0 0.06 0.225 0 0.08 0.225 0 0.1 0.225 0 0 0.23 0 0.02 0.23 0 0.04 0.23 0 0.06 0.23 0 0.08 0.23 0 0.1 0.23 0 0 0.235 0 0.02 0.235 0 0.04 0.235 0 0.06 0.235 0 0.08 0.235 0 0.1 0.235 0 0 0.24 0 0.02 0.24 0 0.04 0.24 0 0.06 0.24 0 0.08 0.24 0 0.1 0.24 0 0 0.245 0 0.02 0.245 0 0.04 0.245 0 0.06 0.245 0 0.08 0.245 0 0.1 0.245 0 0 0.25 0 0.02 0.25 0 0.04 0.25 0 0.06 0.25 0 0.08 0.25 0 0.1 0.25 0 0 0.255 0 0.02 0.255 0 0.04 0.255 0 0.06 0.255 0 0.08 0.255 0 0.1 0.255 0 0 0.26 0 0.02 0.26 0 0.04 0.26 0 0.06 0.26 0 0.08 0.26 0 0.1 0.26 0 0 0.265 0 0.02 0.265 0 0.04 0.265 0 0.06 0.265 0 0.08 0.265 0 0.1 0.265 0 0 0.27 0 0.02 0.27 0 0.04 0.27 0 0.06 0.27 0 0.08 0.27 0 0.1 0.27 0 0 0.275 0 0.02 0.275 0 0.04 0.275 0 0.06 0.275 0 0.08 0.275 0 0.1 0.275 0 0 0.28 0 0.02 0.28 0 0.04 0.28 0 0.06 0.28 0 0.08 0.28 0 0.1 0.28 0 0 0.285 0 0.02 0.285 0 0.04 0.285 0 0.06 0.285 0 0.08 0.285 0 0.1 0.285 0 0 0.29 0 0.02 0.29 0 0.04 0.29 0 0.06 0.29 0 0.08 0.29 0 0.1 0.29 0 0 0.295 0 0.02 0.295 0 0.04 0.295 0 0.06 0.295 0 0.08 0.295 0 0.1 0.295 0 0 0.3 0 0.02 0.3 0 0.04 0.3 0 0.06 0.3 0 0.08 0.3 0 0.1 0.3 0 0 0.305 0 0.02 0.305 0 0.04 0.305 0 0.06 0.305 0 0.08 0.305 0 0.1 0.305 0 0 0.31 0 0.02 0.31 0 0.04 0.31 0 0.06 0.31 0 0.08 0.31 0 0.1 0.31 0 0 0.315 0 0.02 0.315 0 0.04 0.315 0 0.06 0.315 0 0.08 0.315 0 0.1 0.315 0 0 0.32 0 0.02 0.32 0 0.04 0.32 0 0.06 0.32 0 0.08 0.32 0 0.1 0.32 0 0 0.325 0 0.02 0.325 0 0.04 0.325 0 0.06 0.325 0 0.08 0.325 0 0.1 0.325 0 0 0.33 0 0.02 0.33 0 0.04 0.33 0 0.06 0.33 0 0.08 0.33 0 0.1 0.33 0 0 0.335 0 0.02 0.335 0 0.04 0.335 0 0.06 0.335 0 0.08 0.335 0 0.1 0.335 0 0 0.34 0 0.02 0.34 0 0.04 0.34 0 0.06 0.34 0 0.08 0.34 0 0.1 0.34 0 0 0.345 0 0.02 0.345 0 0.04 0.345 0 0.06 0.345 0 0.08 0.345 0 0.1 0.345 0 0 0.35 0 0.02 0.35 0 0.04 0.35 0 0.06 0.35 0 0.08 0.35 0 0.1 0.35 0 0 0.355 0 0.02 0.355 0 0.04 0.355 0 0.06 0.355 0 0.08 0.355 0 0.1 0.355 0 0 0.36 0 0.02 0.36 0 0.04 0.36 0 0.06 0.36 0 0.08 0.36 0 0.1 0.36 0 0 0.365 0 0.02 0.365 0 0.04 0.365 0 0.06 0.365 0 0.08 0.365 0 0.1 0.365 0 0 0.37 0 0.02 0.37 0 0.04 0.37 0 0.06 0.37 0 0.08 0.37 0 0.1 0.37 0 0 0.375 0 0.02 0.375 0 0.04 0.375 0 0.06 0.375 0 0.08 0.375 0 0.1 0.375 0 0 0.38 0 0.02 0.38 0 0.04 0.38 0 0.06 0.38 0 0.08 0.38 0 0.1 0.38 0 0 0.385 0 0.02 0.385 0 0.04 0.385 0 0.06 0.385 0 0.08 0.385 0 0.1 0.385 0 0 0.39 0 0.02 0.39 0 0.04 0.39 0 0.06 0.39 0 0.08 0.39 0 0.1 0.39 0 0 0.395 0 0.02 0.395 0 0.04 0.395 0 0.06 0.395 0 0.08 0.395 0 0.1 0.395 0 0 0.4 0 0.02 0.4 0 0.04 0.4 0 0.06 0.4 0 0.08 0.4 0 0.1 0.4 0 0 0.405 0 0.02 0.405 0 0.04 0.405 0 0.06 0.405 0 0.08 0.405 0 0.1 0.405 0 0 0.41 0 0.02 0.41 0 0.04 0.41 0 0.06 0.41 0 0.08 0.41 0 0.1 0.41 0 0 0.415 0 0.02 0.415 0 0.04 0.415 0 0.06 0.415 0 0.08 0.415 0 0.1 0.415 0 0 0.42 0 0.02 0.42 0 0.04 0.42 0 0.06 0.42 0 0.08 0.42 0 0.1 0.42 0 0 0.425 0 0.02 0.425 0 0.04 0.425 0 0.06 0.425 0 0.08 0.425 0 0.1 0.425 0 0 0.43 0 0.02 0.43 0 0.04 0.43 0 0.06 0.43 0 0.08 0.43 0 0.1 0.43 0 0 0.435 0 0.02 0.435 0 0.04 0.435 0 0.06 0.435 0 0.08 0.435 0 0.1 0.435 0 0 0.44 0 0.02 0.44 0 0.04 0.44 0 0.06 0.44 0 0.08 0.44 0 0.1 0.44 0 0 0.445 0 0.02 0.445 0 0.04 0.445 0 0.06 0.445 0 0.08 0.445 0 0.1 0.445 0 0 0.45 0 0.02 0.45 0 0.04 0.45 0 0.06 0.45 0 0.08 0.45 0 0.1 0.45 0 0 0.455 0 0.02 0.455 0 0.04 0.455 0 0.06 0.455 0 0.08 0.455 0 0.1 0.455 0 0 0.46 0 0.02 0.46 0 0.04 0.46 0 0.06 0.46 0 0.08 0.46 0 0.1 0.46 0 0 0.465 0 0.02 0.465 0 0.04 0.465 0 0.06 0.465 0 0.08 0.465 0 0.1 0.465 0 0 0.47 0 0.02 0.47 0 0.04 0.47 0 0.06 0.47 0 0.08 0.47 0 0.1 0.47 0 0 0.475 0 0.02 0.475 0 0.04 0.475 0 0.06 0.475 0 0.08 0.475 0 0.1 0.475 0 0 0.48 0 0.02 0.48 0 0.04 0.48 0 0.06 0.48 0 0.08 0.48 0 0.1 0.48 0 0 0.485 0 0.02 0.485 0 0.04 0.485 0 0.06 0.485 0 0.08 0.485 0 0.1 0.485 0 0 0.49 0 0.02 0.49 0 0.04 0.49 0 0.06 0.49 0 0.08 0.49 0 0.1 0.49 0 0 0.495 0 0.02 0.495 0 0.04 0.495 0 0.06 0.495 0 0.08 0.495 0 0.1 0.495 0 0 0.5 0 0.02 0.5 0 0.04 0.5 0 0.06 0.5 0 0.08 0.5 0 0.1 0.5 0 0 0.505 0 0.02 0.505 0 0.04 0.505 0 0.06 0.505 0 0.08 0.505 0 0.1 0.505 0 0 0.51 0 0.02 0.51 0 0.04 0.51 0 0.06 0.51 0 0.08 0.51 0 0.1 0.51 0 0 0.515 0 0.02 0.515 0 0.04 0.515 0 0.06 0.515 0 0.08 0.515 0 0.1 0.515 0 0 0.52 0 0.02 0.52 0 0.04 0.52 0 0.06 0.52 0 0.08 0.52 0 0.1 0.52 0 0 0.525 0 0.02 0.525 0 0.04 0.525 0 0.06 0.525 0 0.08 0.525 0 0.1 0.525 0 0 0.53 0 0.02 0.53 0 0.04 0.53 0 0.06 0.53 0 0.08 0.53 0 0.1 0.53 0 0 0.535 0 0.02 0.535 0 0.04 0.535 0 0.06 0.535 0 0.08 0.535 0 0.1 0.535 0 0 0.54 0 0.02 0.54 0 0.04 0.54 0 0.06 0.54 0 0.08 0.54 0 0.1 0.54 0 0 0.545 0 0.02 0.545 0 0.04 0.545 0 0.06 0.545 0 0.08 0.545 0 0.1 0.545 0 0 0.55 0 0.02 0.55 0 0.04 0.55 0 0.06 0.55 0 0.08 0.55 0 0.1 0.55 0 0 0.555 0 0.02 0.555 0 0.04 0.555 0 0.06 0.555 0 0.08 0.555 0 0.1 0.555 0 0 0.56 0 0.02 0.56 0 0.04 0.56 0 0.06 0.56 0 0.08 0.56 0 0.1 0.56 0 0 0.565 0 0.02 0.565 0 0.04 0.565 0 0.06 0.565 0 0.08 0.565 0 0.1 0.565 0 0 0.57 0 0.02 0.57 0 0.04 0.57 0 0.06 0.57 0 0.08 0.57 0 0.1 0.57 0 0 0.575 0 0.02 0.575 0 0.04 0.575 0 0.06 0.575 0 0.08 0.575 0 0.1 0.575 0 0 0.58 0 0.02 0.58 0 0.04 0.58 0 0.06 0.58 0 0.08 0.58 0 0.1 0.58 0 0 0.585 0 0.02 0.585 0 0.04 0.585 0 0.06 0.585 0 0.08 0.585 0 0.1 0.585 0 0 0.59 0 0.02 0.59 0 0.04 0.59 0 0.06 0.59 0 0.08 0.59 0 0.1 0.59 0 0 0.595 0 0.02 0.595 0 0.04 0.595 0 0.06 0.595 0 0.08 0.595 0 0.1 0.595 0 0 0.6 0 0.02 0.6 0 0.04 0.6 0 0.06 0.6 0 0.08 0.6 0 0.1 0.6 0 0 0.605 0 0.02 0.605 0 0.04 0.605 0 0.06 0.605 0 0.08 0.605 0 0.1 0.605 0 0 0.61 0 0.02 0.61 0 0.04 0.61 0 0.06 0.61 0 0.08 0.61 0 0.1 0.61 0 0 0.615 0 0.02 0.615 0 0.04 0.615 0 0.06 0.615 0 0.08 0.615 0 0.1 0.615 0 0 0.62 0 0.02 0.62 0 0.04 0.62 0 0.06 0.62 0 0.08 0.62 0 0.1 0.62 0 0 0.625 0 0.02 0.625 0 0.04 0.625 0 0.06 0.625 0 0.08 0.625 0 0.1 0.625 0 0 0.63 0 0.02 0.63 0 0.04 0.63 0 0.06 0.63 0 0.08 0.63 0 0.1 0.63 0 0 0.635 0 0.02 0.635 0 0.04 0.635 0 0.06 0.635 0 0.08 0.635 0 0.1 0.635 0 0 0.64 0 0.02 0.64 0 0.04 0.64 0 0.06 0.64 0 0.08 0.64 0 0.1 0.64 0 0 0.645 0 0.02 0.645 0 0.04 0.645 0 0.06 0.645 0 0.08 0.645 0 0.1 0.645 0 0 0.65 0 0.02 0.65 0 0.04 0.65 0 0.06 0.65 0 0.08 0.65 0 0.1 0.65 0 0 0.655 0 0.02 0.655 0 0.04 0.655 0 0.06 0.655 0 0.08 0.655 0 0.1 0.655 0 0 0.66 0 0.02 0.66 0 0.04 0.66 0 0.06 0.66 0 0.08 0.66 0 0.1 0.66 0 0 0.665 0 0.02 0.665 0 0.04 0.665 0 0.06 0.665 0 0.08 0.665 0 0.1 0.665 0 0 0.67 0 0.02 0.67 0 0.04 0.67 0 0.06 0.67 0 0.08 0.67 0 0.1 0.67 0 0 0.675 0 0.02 0.675 0 0.04 0.675 0 0.06 0.675 0 0.08 0.675 0 0.1 0.675 0 0 0.68 0 0.02 0.68 0 0.04 0.68 0 0.06 0.68 0 0.08 0.68 0 0.1 0.68 0 0 0.685 0 0.02 0.685 0 0.04 0.685 0 0.06 0.685 0 0.08 0.685 0 0.1 0.685 0 0 0.69 0 0.02 0.69 0 0.04 0.69 0 0.06 0.69 0 0.08 0.69 0 0.1 
[...]
			<PointData Scalars="VitesseX">
				<DataArray Name="VitesseX" type="Float32" format="ascii">
 0 -9.2161e-15 -2.63639e-14 -2.03598e-14 3.19703e-14 0 0 -1.57356e-14 -1.91961e-14 -1.91521e-14 2.98976e-14 0 0 -2.60223e-14 -6.71317e-15 -1.37677e-14 2.24089e-14 0 0 -1.24656e-14 -1.97874e-14 -5.05645e-15 1.75279e-14 0 0 -3.41783e-14 1.36853e-14 -5.61033e-14 5.43621e-14 0 0 -5.73029e-14 1.59644e-14 -4.35673e-14 3.00529e-14 0 0 -8.6472e-15 -8.46885e-14 5.90606e-14 -5.66576e-14 0 0 1.05694e-14 -1.04796e-13 6.04333e-14 -7.58579e-14 0 0 -2.18794e-14 -5.63418e-14 -1.00101e-14 -3.08944e-14 0 0 -7.1517e-14 7.91221e-15 -1.21737e-13 9.0795e-14 0 0 -1.03268e-13 3.80966e-14 -1.74279e-13 1.68775e-13 0 0 -1.22838e-13 -3.38538e-15 -4.31212e-14 5.61044e-14 0 0 -9.0159e-14 -8.71399e-14 1.22014e-13 -9.91275e-14 0 0 -1.0856e-13 -4.65682e-14 8.42272e-14 -8.94186e-14 0 0 -1.02325e-13 -5.76527e-14 4.8359e-14 -3.74819e-14 0 0 -4.38869e-14 -1.48449e-13 8.14663e-14 2.40353e-15 0 0 -1.18766e-13 -2.95657e-14 -4.49318e-14 1.2491e-13 0 0 -1.07578e-13 -1.01582e-15 -1.09688e-13 2.04966e-13 0 0 -1.29244e-13 6.17862e-14 -1.76859e-13 2.21893e-13 0 0 -1.3598e-13 5.98541e-14 -1.36025e-13 1.07231e-13 0 0 -2.22964e-14 -1.375e-13 4.63611e-14 -4.92689e-14 0 0 -1.3012e-14 -1.7431e-13 4.75567e-14 -5.42494e-14 0 0 -1.35717e-13 1.91798e-14 -1.56464e-13 4.58285e-14 0 0 -1.7629e-13 9.49626e-14 -2.1015e-13 1.60799e-15 0 0 -1.32921e-14 -1.44062e-13 5.30559e-14 -2.29442e-13 0 0 8.90785e-14 -2.51606e-13 1.45572e-13 -3.14717e-13 0 0 -8.10587e-14 -1.15063e-14 -6.00202e-14 -2.47657e-13 0 0 -2.24457e-13 1.50805e-13 -2.46861e-13 -1.40242e-13 0 0 -1.14876e-13 -3.38068e-14 -1.56444e-13 -1.5916e-13 0 0 -4.59362e-14 -1.6652e-13 -7.67444e-15 -2.68754e-13 0 0 -6.60965e-14 -1.34016e-13 5.01624e-15 -2.76485e-13 0 0 3.4313e-15 -1.71007e-13 -7.46903e-15 -1.72522e-13 0 0 -4.42194e-14 -8.13996e-14 -1.22943e-13 5.12166e-14 0 0 -2.11007e-13 1.02283e-13 -2.41737e-13 2.07107e-13 0 0 -8.83631e-14 -1.06273e-13 -2.11509e-14 1.0457e-13 0 0 8.17806e-14 -3.69893e-13 2.94038e-13 -9.0629e-14 0 0 -2.29737e-13 1.09696e-13 -4.80805e-14 9.39844e-14 0 0 -1.46188e-13 1.25286e-14 5.3384e-14 3.52108e-14 0 0 -1.10547e-14 -1.5354e-13 2.00676e-13 -8.71121e-14 0 0 -1.40419e-13 4.51778e-14 -1.57699e-14 1.46592e-14 0 0 2.09759e-14 -2.50724e-13 1.11582e-13 -3.97623e-14 0 0 -1.18443e-14 -2.92392e-13 7.76471e-14 -2.13685e-14 0 0 -1.58798e-13 -1.02239e-13 -8.85476e-14 3.02031e-14 0 0 -1.72457e-14 -2.49663e-13 3.37809e-14 -1.09576e-13 0 0 2.89745e-14 -3.38024e-13 2.06244e-13 -3.47344e-13 0 0 -1.22739e-13 -2.02761e-13 1.96526e-13 -4.62233e-13 0 0 -4.91927e-13 2.68403e-13 -1.9787e-13 -1.70671e-13 0 0 -4.2404e-13 1.17122e-13 -9.6813e-14 -1.28307e-13 0 0 -4.9009e-14 -3.62145e-13 2.95298e-13 -3.33479e-13 0 0 -9.88706e-14 -1.15457e-13 3.01168e-14 -1.39964e-13 0 0 -1.47895e-13 5.33961e-14 -1.49259e-13 -7.28355e-14 0 0 -4.20316e-13 3.09438e-13 -2.46554e-13 -2.05321e-13 0 0 -1.79318e-13 -2.77066e-13 4.56093e-13 -7.48891e-13 0 0 -3.51304e-13 8.336e-14 5.45276e-14 -5.07666e-13 0 0 -5.52968e-13 6.47802e-13 -5.94213e-13 -6.91962e-14 0 0 -8.96679e-14 8.87084e-15 4.65412e-14 -4.11076e-13 0 0 -4.09552e-13 2.4223e-13 -4.17494e-14 -2.95249e-13 0 0 -3.49139e-13 -2.0438e-13 4.64681e-13 -5.24334e-13 0 0 -3.85611e-13 -2.29825e-13 4.04711e-13 -4.56027e-13 0 0 -5.42557e-13 2.15635e-13 -2.25959e-13 -5.44689e-14 0 0 -1.54771e-13 -6.28536e-14 -1.65775e-13 -1.07566e-13 0 0 -1.72626e-13 2.23797e-14 -1.92675e-13 -1.73916e-13 0 0 -2.29901e-13 9.62901e-14 -3.15427e-13 -5.76257e-14 0 0 -2.20586e-13 1.69537e-13 -5.77153e-13 2.28251e-13 0 0 -9.33914e-14 -7.03343e-14 -2.93856e-13 5.03401e-14 0 0 -2.92294e-14 -1.6777e-13 -1.94257e-13 -6.32943e-14 0 0 -1.34742e-13 3.75683e-14 -3.29737e-13 -2.78062e-14 0 0 3.42594e-14 -2.54954e-13 -4.29481e-14 -9.30349e-14 0 0 -3.19507e-13 8.48474e-14 -2.03187e-13 3.97988e-14 0 0 -7.00284e-13 4.93044e-13 -2.97965e-13 2.26593e-14 0 0 -1.65587e-13 -3.85251e-13 6.46732e-13 -4.64158e-13 0 0 -3.67664e-13 -3.59278e-15 2.88354e-13 -1.61983e-13 0 0 -5.91798e-13 4.48311e-13 -2.12234e-13 1.12059e-13 0 0 -5.86648e-13 4.8839e-13 -2.75114e-13 3.65289e-14 0 0 -3.37296e-13 1.47688e-13 4.77366e-14 -2.69452e-13 0 0 -1.47919e-13 -2.11426e-13 4.60457e-13 -6.20735e-13 0 0 -6.13827e-13 4.56277e-13 -1.88074e-13 -1.66238e-13 0 0 -4.63911e-13 2.53487e-13 -2.73819e-13 9.70398e-14 0 0 -5.08119e-13 1.74497e-13 -3.89441e-13 3.50682e-13 0 0 -2.78768e-13 -3.37909e-13 1.6204e-13 -4.0669e-14 0 0 -4.89544e-13 -8.27038e-14 1.74877e-13 -3.77203e-13 0 0 -8.1541e-13 4.8966e-13 -3.52649e-13 -1.34058e-13 0 0 1.7791e-13 -7.5e-13 4.74934e-13 -4.80486e-13 0 0 -1.99901e-13 -1.03461e-13 -2.04461e-13 -1.42231e-13 0 0 -1.14534e-12 1.23315e-12 -1.4124e-12 4.89209e-13 0 0 6.41334e-14 -3.98225e-13 -1.5431e-13 -9.97856e-14 0 0 5.78834e-13 -1.1539e-12 5.63905e-13 -4.47257e-13 0 0 -3.3538e-13 1.81218e-14 -3.42387e-13 4.00008e-14 0 0 -4.87459e-13 2.68903e-13 -6.081e-13 2.87525e-13 0 0 -6.73998e-13 6.90694e-13 -4.92696e-13 6.57019e-13 0 0 1.15687e-12 1.39501e-12 2.11969e-12 1.26006e-12 0 0 8.05772e-12 9.85267e-12 1.08928e-11 5.37898e-12 0 0 3.02189e-11 4.44061e-11 3.6711e-11 1.89011e-11 0 0 8.83043e-11 1.28026e-10 9.72403e-11 4.14969e-11 0 0 1.89729e-10 2.78842e-10 1.91377e-10 5.10208e-11 0 0 3.10702e-10 4.75735e-10 2.72326e-10 -1.03309e-11 0 0 2.92619e-10 6.0132e-10 4.16154e-10 -2.24596e-10 0 0 -1.90395e-10 1.26971e-09 5.21729e-10 -7.54248e-10 0 0 -2.00056e-09 1.16029e-09 1.29071e-09 -2.21809e-09 0 0 -1.77558e-09 -2.79741e-09 9.10416e-09 -9.54158e-09 0 0 -3.73479e-10 -4.00349e-09 7.88959e-09 -7.56462e-09 0 0 9.78046e-10 3.7774e-10 -7.68157e-09 7.23304e-09 0 0 1.7153e-09 3.46008e-09 -1.58626e-08 1.5633e-08 0 0 2.29773e-09 1.89375e-09 -1.33293e-08 1.34119e-08 0 0 2.49669e-09 -2.26673e-09 -6.2124e-09 7.52481e-09 0 0 2.04874e-09 -5.68959e-09 3.4231e-09 -1.52781e-09 0 0 6.93756e-10 -5.27263e-09 6.52236e-09 -6.15501e-09 0 0 -9.9501e-10 -2.38619e-09 4.67987e-09 -5.01374e-09 0 0 -1.5262e-09 4.53823e-10 2.3644e-09 -3.34681e-09 0 0 -1.20316e-09 6.72911e-10 7.50343e-10 -1.68815e-09 0 0 -4.34035e-10 4.29947e-10 1.54302e-10 -5.17242e-10 0 0 -6.11217e-11 1.32047e-10 4.72611e-11 -1.98535e-10 0 0 6.74547e-12 4.71098e-11 8.51758e-12 -6.23447e-11 0 0 1.63767e-11 2.12142e-11 2.71702e-12 -1.20296e-11 0 0 9.98963e-12 9.76423e-12 4.06544e-12 1.94161e-13 0 0 3.94422e-12 3.72373e-12 3.55078e-12 1.00886e-12 0 0 1.02961e-12 1.39016e-12 1.25251e-12 5.72415e-13 0 0 -2.81909e-13 9.06369e-13 -3.57827e-13 3.9136e-13 0 0 -2.45241e-13 4.44634e-14 -1.78503e-13 -1.94791e-13 0 0 -2.97067e-13 -7.73628e-14 -1.68503e-13 -4.13169e-13 0 0 -2.63307e-13 -1.58629e-13 -9.33199e-14 -5.18547e-13 0 0 -2.438e-13 -1.58447e-13 -1.49109e-13 -3.70631e-13 0 0 -7.92202e-13 6.46594e-13 -9.73719e-13 3.39748e-13 0 0 -2.73922e-13 -2.78089e-13 -3.16609e-14 -1.97009e-13 0 0 -2.32716e-13 -3.89586e-13 1.70923e-13 -4.69466e-13 0 0 -1.08383e-13 -4.15443e-13 3.76817e-14 -4.45979e-13 0 0 -8.27119e-14 -3.88629e-13 -1.15123e-13 -3.76255e-13 0 0 -8.39942e-13 6.52752e-13 -1.07225e-12 2.70826e-13 0 0 -3.95147e-13 -1.73255e-13 -2.34589e-13 -1.41017e-13 0 0 -3.78519e-13 -3.1842e-13 4.25157e-14 -4.61424e-13 0 0 -2.19236e-13 -4.43622e-13 6.58728e-14 -5.39478e-13 0 0 -1.71747e-13 -4.33267e-13 -1.85173e-13 -2.05303e-13 0 0 -9.01222e-13 5.44888e-13 -1.22014e-12 6.32206e-13 0 0 -4.55922e-13 -3.41412e-13 -2.27934e-13 2.04248e-14 0 0 -5.0261e-13 -3.70678e-13 1.61839e-13 -5.02619e-13 0 0 -3.48096e-13 -3.21969e-13 3.98874e-14 -6.36944e-13 0 0 -2.25411e-13 -4.32059e-13 -1.14126e-13 -5.08622e-13 0 0 -1.02213e-12 4.7162e-13 -1.04934e-12 2.75578e-13 0 0 -3.77934e-13 -5.07993e-13 -2.83691e-13 -2.7941e-14 0 0 -2.22086e-13 -6.43291e-13 -4.19534e-14 -3.88821e-13 0 0 -6.13261e-13 -8.01899e-14 -4.2566e-13 -3.33726e-13 0 0 6.96135e-14 -1.13587e-12 3.8084e-13 -5.26445e-13 0 0 -8.41073e-13 1.64045e-13 -8.00718e-13 3.19193e-13 0 0 -1.17705e-12 6.87248e-13 -1.05245e-12 3.07462e-13 0 0 2.23746e-13 -1.05637e-12 6.1371e-13 -7.19171e-13 0 0 -2.91243e-13 -2.2095e-13 4.27707e-14 -3.95405e-13 0 0 -3.89758e-13 -2.69722e-13 -2.80246e-14 -3.71504e-14 0 0 -7.12476e-13 1.44705e-13 -7.58209e-13 7.28413e-13 0 0 -1.0545e-12 4.72935e-13 -8.69436e-13 7.02563e-13 0 0 -6.91857e-14 -9.95391e-13 8.6685e-13 -5.35617e-13 0 0 -5.15161e-13 -2.46898e-13 4.01454e-13 -3.83052e-13 0 0 -3.67801e-13 -4.23537e-13 2.44788e-13 1.10971e-13 0 0 -8.14498e-13 1.38905e-13 -6.40459e-13 1.02807e-12 0 0 -9.70128e-13 2.05262e-13 -6.57758e-13 8.34181e-13 0 0 -4.99172e-13 -5.12047e-13 1.40358e-13 -1.76342e-13 0 0 -2.5652e-13 -7.87702e-13 2.10138e-13 -5.46098e-13 0 0 -1.67527e-13 -7.31244e-13 -2.25873e-13 -4.04355e-13 0 0 -9.5028e-13 4.68975e-13 -1.30848e-12 7.10291e-14 0 0 -7.43788e-13 -1.53995e-13 -3.17116e-13 -7.00164e-13 0 0 -4.59421e-13 -8.27467e-13 4.75411e-13 -1.28999e-12 0 0 -9.64998e-14 -1.07924e-12 3.08755e-13 -1.1478e-12 0 0 -4.28472e-13 -6.49841e-14 -1.18281e-12 -4.96352e-14 0 0 -9.74446e-13 9.88888e-13 -2.35099e-12 8.40457e-13 0 0 -3.73203e-13 -2.84257e-13 -7.63221e-13 -2.70111e-13 0 0 -1.35391e-13 -1.16412e-12 5.05612e-13 -1.3072e-12 0 0 -2.57163e-13 -9.31015e-13 2.43562e-13 -1.32607e-12 0 0 -4.82079e-13 -3.31729e-13 -7.84605e-13 -3.66403e-13 0 0 -8.87382e-13 3.27897e-13 -1.95438e-12 1.08209e-12 0 0 -1.62797e-13 -8.62794e-13 -1.06934e-12 8.88317e-13 0 0 -4.20854e-13 -5.21346e-13 -1.01067e-12 3.76204e-13 0 0 -9.15268e-13 2.48408e-13 -1.133e-12 -2.97439e-13 0 0 -2.25442e-13 -1.00353e-12 2.55228e-13 -1.27744e-12 0 0 -7.90421e-13 -3.48085e-13 -2.90348e-13 -8.95236e-13 0 0 -5.26321e-13 -4.92061e-13 -4.00318e-13 -7.45769e-13 0 0 -5.22598e-13 -2.23139e-13 -9.95698e-13 -4.76223e-13 0 0 -6.71277e-13 -3.73561e-14 -1.05005e-12 -5.78389e-13 0 0 -1.31652e-13 -1.21689e-12 3.46171e-13 -1.01118e-12 0 0 -9.52154e-13 -2.78329e-13 -3.70145e-13 -3.50114e-13 0 0 -4.74514e-13 -5.49883e-13 -5.49205e-13 -3.29017e-13 0 0 -3.47534e-13 -2.91738e-13 -1.20779e-12 -8.11667e-14 0 0 -7.69421e-13 2.03283e-13 -1.33713e-12 -2.21213e-13 0 0 -1.51428e-13 -1.17002e-12 2.75537e-13 -8.08191e-13 0 0 -7.71263e-13 -5.07593e-13 -1.98148e-13 -2.06709e-13 0 0 -5.9854e-13 -4.8531e-13 -3.98499e-13 -2.7645e-13 0 0 -4.81343e-13 -3.82927e-13 -8.42098e-13 -3.51609e-13 0 0 -5.76675e-13 -3.73555e-13 -7.889e-13 -6.83483e-13 0 0 1.39036e-13 -1.7554e-12 7.05422e-13 -1.49949e-12 0 0 -6.80607e-13 -4.91051e-13 -3.381e-13 -7.64876e-13 0 0 -5.08091e-13 -3.0289e-13 -6.05205e-13 -6.20111e-13 0 0 -7.97545e-13 9.37471e-14 -8.21567e-13 -6.34982e-13 0 0 -1.12994e-12 1.36376e-13 -7.38176e-13 -5.80953e-13 0 0 3.74794e-13 -2.40537e-12 1.54366e-12 -1.62036e-12 0 0 -1.23956e-12 1.60907e-13 -7.41956e-13 -3.62054e-13 0 0 -2.02052e-12 1.73901e-12 -2.12958e-12 1.02517e-13 0 0 -2.15071e-13 -6.208e-13 1.03529e-13 -1.42342e-12 0 0 -3.28273e-14 -9.7979e-13 5.68667e-13 -1.72482e-12 0 0 3.09151e-14 -1.38372e-12 8.86292e-13 -1.73434e-12 0 0 -1.32655e-12 8.79803e-13 -1.77759e-12 2.34309e-13 0 0 -1.35008e-12 1.01128e-12 -1.90998e-12 3.98962e-13 0 0 -6.54507e-14 -1.31553e-12 1.01751e-12 -1.61559e-12 0 0 -4.20101e-13 -1.04238e-12 1.17397e-12 -1.83281e-12 0
				</DataArray>
				<DataArray Name="VitesseY" type="Float32" format="ascii">