<?xml version="1.0"?>
<VTKFile type="PolyData">
	<PolyData>
		<Piece NumberOfPoints="1206" NumberOfPolys="1000">
			<Points>
				<DataArray type="Float32" NumberOfComponents="3" format="ascii">
 0 0 0 0.02 0 0 0.04 0 0 0.06 0 0 0.08 0 0 0.1 0 0 0 0.005 0 0.02 0.005 0 0.04 0.005 0 0.06 0.005 0 0.08 0.005 0 0.1 0.005 0 0 0.01 0 0.02 0.01 0 0.04 0.01 0 0.06 0.01 0 0.08 0.01 0 0.1 0.01 0 0 0.015 0 0.02 0.015 0 0.04 0.015 0 0.06 0.015 0 0.08 0.015 0 0.1 0.015 0 0 0.02 0 0.02 0.02 0 0.04 0.02 0 0.06 0.02 0 0.08 0.02 0 0.1 0.02 0 0 0.025 0 0.02 0.025 0 0.04 0.025 0 0.06 0.025 0 0.08 0.025 0 0.1 0.025 0 0 0.03 0 0.02 0.03 0 0.04 0.03 0 0.06 0.03 0 0.08 0.03 0 0.1 0.03 0 0 0.035 0 0.02 0.035 0 0.04 0.035 0 0.06 0.035 0 0.08 0.035 0 0.1 0.035 0 0 0.04 0 0.02 0.04 0 0.04 0.04 0 0.06 0.04 0 0.08 0.04 0 0.1 0.04 0 0 0.045 0 0.02 0.045 0 0.04 0.045 0 0.06 0.045 0 0.08 0.045 0 0.1 0.045 0 0 0.05 0 0.02 0.05 0 0.04 0.05 0 0.06 0.05 0 0.08 0.05 0 0.1 0.05 0 0 0.055 0 0.02 0.055 0 0.04 0.055 0 0.06 0.055 0 0.08 0.055 0 0.1 0.055 0 0 0.06 0 0.02 0.06 0 0.04 0.06 0 0.06 0.06 0 0.08 0.06 0 0.1 0.06 0 0 0.065 0 0.02 0.065 0 0.04 0.065 0 0.06 0.065 0 0.08 0.065 0 0.1 0.065 0 0 0.07 0 0.02 0.07 0 0.04 0.07 0 0.06 0.07 0 0.08 0.07 0 0.1 0.07 0 0 0.075 0 0.02 0.075 0 0.04 0.075 0 0.06 0.075 0 0.08 0.075 0 0.1 0.075 0 0 0.08 0 0.02 0.08 0 0.04 0.08 0 0.06 0.08 0 0.08 0.08 0 0.1 0.08 0 0 0.085 0 0.02 0.085 0 0.04 0.085 0 0.06 0.085 0 0.08 0.085 0 0.1 0.085 0 0 0.09 0 0.02 0.09 0 0.04 0.09 0 0.06 0.09 0 0.08 0.09 0 0.1 0.09 0 0 0.095 0 0.02 0.095 0 0.04 0.095 0 0.06 0.095 0 0.08 0.095 0 0.1 0.095 0 0 0.1 0 0.02 0.1 0 0.04 0.1 0 0.06 0.1 0 0.08 0.1 0 0.1 0.1 0 0 0.105 0 0.02 0.105 0 0.04 0.105 0 0.06 0.105 0 0.08 0.105 0 0.1 0.105 0 0 0.11 0 0.02 0.11 0 0.04 0.11 0 0.06 0.11 0 0.08 0.11 0 0.1 0.11 0 0 0.115 0 0.02 0.115 0 0.04 0.115 0 0.06 0.115 0 0.08 0.115 0 0.1 0.115 0 0 0.12 0 0.02 0.12 0 0.04 0.12 0 0.06 0.12 0 0.08 0.12 0 0.1 0.12 0 0 0.125 0 0.02 0.125 0 0.04 0.125 0 0.06 0.125 0 0.08 0.125 0 0.1 0.125 0 0 0.13 0 0.02 0.13 0 0.04 0.13 0 0.06 0.13 0 0.08 0.13 0 0.1 0.13 0 0 0.135 0 0.02 0.135 0 0.04 0.135 0 0.06 0.135 0 0.08 0.135 0 0.1 0.135 0 0 0.14 0 0.02 0.14 0 0.04 0.14 0 0.06 0.14 0 0.08 0.14 0 0.1 0.14 0 0 0.145 0 0.02 0.145 0 0.04 0.145 0 0.06 0.145 0 0.08 0.145 0 0.1 0.145 0 0 0.15 0 0.02 0.15 0 0.04 0.15 0 0.06 0.15 0 0.08 0.15 0 0.1 0.15 0 0 0.155 0 0.02 0.155 0 0.04 0.155 0 0.06 0.155 0 0.08 0.155 0 0.1 0.155 0 0 0.16 0 0.02 0.16 0 0.04 0.16 0 0.06 0.16 0 0.08 0.16 0 0.1 0.16 0 0 0.165 0 0.02 0.165 0 0.04 0.165 0 0.06 0.165 0 0.08 0.165 0 0.1 0.165 0 0 0.17 0 0.02 0.17 0 0.04 0.17 0 0.06 0.17 0 0.08 0.17 0 0.1 0.17 0 0 0.175 0 0.02 0.175 0 0.04 0.175 0 0.06 0.175 0 0.08 0.175 0 0.1 0.175 0 0 0.18 0 0.02 0.18 0 0.04 0.18 0 0.06 0.18 0 0.08 0.18 0 0.1 0.18 0 0 0.185 0 0.02 0.185 0 0.04 0.185 0 0.06 0.185 0 0.08 0.185 0 0.1 0.185 0 0 0.19 0 0.02 0.19 0 0.04 0.19 0 0.06 0.19 0 0.08 0.19 0 0.1 0.19 0 0 0.195 0 0.02 0.195 0 0.04 0.195 0 0.06 0.195 0 0.08 0.195 0 0.1 0.195 0 0 0.2 0 0.02 0.2 0 0.04 0.2 0 0.06 0.2 0 0.08 0.2 0 0.1 0.2 0 0 0.205 0 0.02 0.205 0 0.04 0.205 0 0.06 0.205 0 0.08 0.205 0 0.1 0.205 0 0 0.21 0 0.02 0.21 0 0.04 0.21 0 0.06 0.21 0 0.08 0.21 0 0.1 0.21 0 0 0.215 0 0.02 0.215 0 0.04 0.215 0 0.06 0.215 0 0.08 0.215 0 0.1 0.215 0 0 0.22 0 0.02 0.22 0 0.04 0.22 0 0.06 0.22 0 0.08 0.22 0 0.1 0.22 0 0 0.225 0 0.02 0.225 0 0.04 0.225 0 0.06 0.225 0 0.08 0.225 0 0.1 0.225 0 0 0.23 0 0.02 0.23 0 0.04 0.23 0 0.06 0.23 0 0.08 0.23 0 0.1 0.23 0 0 0.235 0 0.02 0.235 0 0.04 0.235 0 0.06 0.235 0 0.08 0.235 0 0.1 0.235 0 0 0.24 0 0.02 0.24 0 0.04 0.24 0 0.06 0.24 0 0.08 0.24 0 0.1 0.24 0 0 0.245 0 0.02 0.245 0 0.04 0.245 0 0.06 0.245 0 0.08 0.245 0 0.1 0.245 0 0 0.25 0 0.02 0.25 0 0.04 0.25 0 0.06 0.25 0 0.08 0.25 0 0.1 0.25 0 0 0.255 0 0.02 0.255 0 0.04 0.255 0 0.06 0.255 0 0.08 0.255 0 0.1 0.255 0 0 0.26 0 0.02 0.26 0 0.04 0.26 0 0.06 0.26 0 0.08 0.26 0 0.1 0.26 0 0 0.265 0 0.02 0.265 0 0.04 0.265 0 0.06 0.265 0 0.08 0.265 0 0.1 0.265 0 0 0.27 0 0.02 0.27 0 0.04 0.27 0 0.06 0.27 0 0.08 0.27 0 0.1 0.27 0 0 0.275 0 0.02 0.275 0 0.04 0.275 0 0.06 0.275 0 0.08 0.275 0 0.1 0.275 0 0 0.28 0 0.02 0.28 0 0.04 0.28 0 0.06 0.28 0 0.08 0.28 0 0.1 0.28 0 0 0.285 0 0.02 0.285 0 0.04 0.285 0 0.06 0.285 0 0.08 0.285 0 0.1 0.285 0 0 0.29 0 0.02 0.29 0 0.04 0.29 0 0.06 0.29 0 0.08 0.29 0 0.1 0.29 0 0 0.295 0 0.02 0.295 0 0.04 0.295 0 0.06 0.295 0 0.08 0.295 0 0.1 0.295 0 0 0.3 0 0.02 0.3 0 0.04 0.3 0 0.06 0.3 0 0.08 0.3 0 0.1 0.3 0 0 0.305 0 0.02 0.305 0 0.04 0.305 0 0.06 0.305 0 0.08 0.305 0 0.1 0.305 0 0 0.31 0 0.02 0.31 0 0.04 0.31 0 0.06 0.31 0 0.08 0.31 0 0.1 0.31 0 0 0.315 0 0.02 0.315 0 0.04 0.315 0 0.06 0.315 0 0.08 0.315 0 0.1 0.315 0 0 0.32 0 0.02 0.32 0 0.04 0.32 0 0.06 0.32 0 0.08 0.32 0 0.1 0.32 0 0 0.325 0 0.02 0.325 0 0.04 0.325 0 0.06 0.325 0 0.08 0.325 0 0.1 0.325 0 0 0.33 0 0.02 0.33 0 0.04 0.33 0 0.06 0.33 0 0.08 0.33 0 0.1 0.33 0 0 0.335 0 0.02 0.335 0 0.04 0.335 0 0.06 0.335 0 0.08 0.335 0 0.1 0.335 0 0 0.34 0 0.02 0.34 0 0.04 0.34 0 0.06 0.34 0 0.08 0.34 0 0.1 0.34 0 0 0.345 0 0.02 0.345 0 0.04 0.345 0 0.06 0.345 0 0.08 0.345 0 0.1 0.345 0 0 0.35 0 0.02 0.35 0 0.04 0.35 0 0.06 0.35 0 0.08 0.35 0 0.1 0.35 0 0 0.355 0 0.02 0.355 0 0.04 0.355 0 0.06 0.355 0 0.08 0.355 0 0.1 0.355 0 0 0.36 0 0.02 0.36 0 0.04 0.36 0 0.06 0.36 0 0.08 0.36 0 0.1 0.36 0 0 0.365 0 0.02 0.365 0 0.04 0.365 0 0.06 0.365 0 0.08 0.365 0 0.1 0.365 0 0 0.37 0 0.02 0.37 0 0.04 0.37 0 0.06 0.37 0 0.08 0.37 0 0.1 0.37 0 0 0.375 0 0.02 0.375 0 0.04 0.375 0 0.06 0.375 0 0.08 0.375 0 0.1 0.375 0 0 0.38 0 0.02 0.38 0 0.04 0.38 0 0.06 0.38 0 0.08 0.38 0 0.1 0.38 0 0 0.385 0 0.02 0.385 0 0.04 0.385 0 0.06 0.385 0 0.08 0.385 0 0.1 0.385 0 0 0.39 0 0.02 0.39 0 0.04 0.39 0 0.06 0.39 0 0.08 0.39 0 0.1 0.39 0 0 0.395 0 0.02 0.395 0 0.04 0.395 0 0.06 0.395 0 0.08 0.395 0 0.1 0.395 0 0 0.4 0 0.02 0.4 0 0.04 0.4 0 0.06 0.4 0 0.08 0.4 0 0.1 0.4 0 0 0.405 0 0.02 0.405 0 0.04 0.405 0 0.06 0.405 0 0.08 0.405 0 0.1 0.405 0 0 0.41 0 0.02 0.41 0 0.04 0.41 0 0.06 0.41 0 0.08 0.41 0 0.1 0.41 0 0 0.415 0 0.02 0.415 0 0.04 0.415 0 0.06 0.415 0 0.08 0.415 0 0.1 0.415 0 0 0.42 0 0.02 0.42 0 0.04 0.42 0 0.06 0.42 0 0.08 0.42 0 0.1 0.42 0 0 0.425 0 0.02 0.425 0 0.04 0.425 0 0.06 0.425 0 0.08 0.425 0 0.1 0.425 0 0 0.43 0 0.02 0.43 0 0.04 0.43 0 0.06 0.43 0 0.08 0.43 0 0.1 0.43 0 0 0.435 0 0.02 0.435 0 0.04 0.435 0 0.06 0.435 0 0.08 0.435 0 0.1 0.435 0 0 0.44 0 0.02 0.44 0 0.04 0.44 0 0.06 0.44 0 0.08 0.44 0 0.1 0.44 0 0 0.445 0 0.02 0.445 0 0.04 0.445 0 0.06 0.445 0 0.08 0.445 0 0.1 0.445 0 0 0.45 0 0.02 0.45 0 0.04 0.45 0 0.06 0.45 0 0.08 0.45 0 0.1 0.45 0 0 0.455 0 0.02 0.455 0 0.04 0.455 0 0.06 0.455 0 0.08 0.455 0 0.1 0.455 0 0 0.46 0 0.02 0.46 0 0.04 0.46 0 0.06 0.46 0 0.08 0.46 0 0.1 0.46 0 0 0.465 0 0.02 0.465 0 0.04 0.465 0 0.06 0.465 0 0.08 0.465 0 0.1 0.465 0 0 0.47 0 0.02 0.47 0 0.04 0.47 0 0.06 0.47 0 0.08 0.47 0 0.1 0.47 0 0 0.475 0 0.02 0.475 0 0.04 0.475 0 0.06 0.475 0 0.08 0.475 0 0.1 0.475 0 0 0.48 0 0.02 0.48 0 0.04 0.48 0 0.06 0.48 0 0.08 0.48 0 0.1 0.48 0 0 0.485 0 0.02 0.485 0 0.04 0.485 0 0.06 0.485 0 0.08 0.485 0 0.1 0.485 0 0 0.49 0 0.02 0.49 0 0.04 0.49 0 0.06 0.49 0 0.08 0.49 0 0.1 0.49 0 0 0.495 0 0.02 0.495 0 0.04 0.495 0 0.06 0.495 0 0.08 0.495 0 0.1 0.495 0 0 0.5 0 0.02 0.5 0 0.04 0.5 0 0.06 0.5 0 0.08 0.5 0 0.1 0.5 0 0 0.505 0 0.02 0.505 0 0.04 0.505 0 0.06 0.505 0 0.08 0.505 0 0.1 0.505 0 0 0.51 0 0.02 0.51 0 0.04 0.51 0 0.06 0.51 0 0.08 0.51 0 0.1 0.51 0 0 0.515 0 0.02 0.515 0 0.04 0.515 0 0.06 0.515 0 0.08 0.515 0 0.1 0.515 0 0 0.52 0 0.02 0.52 0 0.04 0.52 0 0.06 0.52 0 0.08 0.52 0 0.1 0.52 0 0 0.525 0 0.02 0.525 0 0.04 0.525 0 0.06 0.525 0 0.08 0.525 0 0.1 0.525 0 0 0.53 0 0.02 0.53 0 0.04 0.53 0 0.06 0.53 0 0.08 0.53 0 0.1 0.53 0 0 0.535 0 0.02 0.535 0 0.04 0.535 0 0.06 0.535 0 0.08 0.535 0 0.1 0.535 0 0 0.54 0 0.02 0.54 0 0.04 0.54 0 0.06 0.54 0 0.08 0.54 0 0.1 0.54 0 0 0.545 0 0.02 0.545 0 0.04 0.545 0 0.06 0.545 0 0.08 0.545 0 0.1 0.545 0 0 0.55 0 0.02 0.55 0 0.04 0.55 0 0.06 0.55 0 0.08 0.55 0 0.1 0.55 0 0 0.555 0 0.02 0.555 0 0.04 0.555 0 0.06 0.555 0 0.08 0.555 0 0.1 0.555 0 0 0.56 0 0.02 0.56 0 0.04 0.56 0 0.06 0.56 0 0.08 0.56 0 0.1 0.56 0 0 0.565 0 0.02 0.565 0 0.04 0.565 0 0.06 0.565 0 0.08 0.565 0 0.1 0.565 0 0 0.57 0 0.02 0.57 0 0.04 0.57 0 0.06 0.57 0 0.08 0.57 0 0.1 0.57 0 0 0.575 0 0.02 0.575 0 0.04 0.575 0 0.06 0.575 0 0.08 0.575 0 0.1 0.575 0 0 0.58 0 0.02 0.58 0 0.04 0.58 0 0.06 0.58 0 0.08 0.58 0 0.1 0.58 0 0 0.585 0 0.02 0.585 0 0.04 0.585 0 0.06 0.585 0 0.08 0.585 0 0.1 0.585 0 0 0.59 0 0.02 0.59 0 0.04 0.59 0 0.06 0.59 0 0.08 0.59 0 0.1 0.59 0 0 0.595 0 0.02 0.595 0 0.04 0.595 0 0.06 0.595 0 0.08 0.595 0 0.1 0.595 0 0 0.6 0 0.02 0.6 0 0.04 0.6 0 0.06 0.6 0 0.08 0.6 0 0.1 0.6 0 0 0.605 0 0.02 0.605 0 0.04 0.605 0 0.06 0.605 0 0.08 0.605 0 0.1 0.605 0 0 0.61 0 0.02 0.61 0 0.04 0.61 0 0.06 0.61 0 0.08 0.61 0 0.1 0.61 0 0 0.615 0 0.02 0.615 0 0.04 0.615 0 0.06 0.615 0 0.08 0.615 0 0.1 0.615 0 0 0.62 0 0.02 0.62 0 0.04 0.62 0 0.06 0.62 0 0.08 0.62 0 0.1 0.62 0 0 0.625 0 0.02 0.625 0 0.04 0.625 0 0.06 0.625 0 0.08 0.625 0 0.1 0.625 0 0 0.63 0 0.02 0.63 0 0.04 0.63 0 0.06 0.63 0 0.08 0.63 0 0.1 0.63 0 0 0.635 0 0.02 0.635 0 0.04 0.635 0 0.06 0.635 0 0.08 0.635 0 0.1 0.635 0 0 0.64 0 0.02 0.64 0 0.04 0.64 0 0.06 0.64 0 0.08 0.64 0 0.1 0.64 0 0 0.645 0 0.02 0.645 0 0.04 0.645 0 0.06 0.645 0 0.08 0.645 0 0.1 0.645 0 0 0.65 0 0.02 0.65 0 0.04 0.65 0 0.06 0.65 0 0.08 0.65 0 0.1 0.65 0 0 0.655 0 0.02 0.655 0 0.04 0.655 0 0.06 0.655 0 0.08 0.655 0 0.1 0.655 0 0 0.66 0 0.02 0.66 0 0.04 0.66 0 0.06 0.66 0 0.08 0.66 0 0.1 0.66 0 0 0.665 0 0.02 0.665 0 0.04 0.665 0 0.06 0.665 0 0.08 0.665 0 0.1 0.665 0 0 0.67 0 0.02 0.67 0 0.04 0.67 0 0.06 0.67 0 0.08 0.67 0 0.1 0.67 0 0 0.675 0 0.02 0.675 0 0.04 0.675 0 0.06 0.675 0 0.08 0.675 0 0.1 0.675 0 0 0.68 0 0.02 0.68 0 0.04 0.68 0 0.06 0.68 0 0.08 0.68 0 0.1 0.68 0 0 0.685 0 0.02 0.685 0 0.04 0.685 0 0.06 0.685 0 0.08 0.685 0 0.1 0.685 0 0 0.69 0 0.02 0.69 0 0.04 0.69 0 0.06 0.69 0 0.08 0.69 0 0.1 
[...]
			<PointData Scalars="VitesseX">
				<DataArray Name="VitesseX" type="Float32" format="ascii">
 0 5.62576e-15 -3.51425e-14 1.48173e-14 1.91207e-15 0 0 7.73595e-15 -3.64055e-14 4.43196e-15 1.40142e-14 0 0 -1.88051e-14 1.23377e-14 -7.31202e-14 7.16273e-14 0 0 8.66293e-15 -4.83711e-14 -1.57755e-15 1.32749e-14 0 0 1.2214e-14 -4.62116e-14 -1.10988e-14 1.72922e-14 0 0 -3.50642e-14 5.0078e-14 -1.27886e-13 7.76079e-14 0 0 -1.7077e-14 -3.46999e-14 1.44474e-14 -6.78169e-14 0 0 2.88805e-14 -1.7981e-13 2.14843e-13 -2.11108e-13 0 0 6.42214e-15 -1.19405e-13 1.12446e-13 -1.10843e-13 0 0 -4.76558e-14 4.35833e-14 -1.35081e-13 6.19761e-14 0 0 1.99507e-14 -5.39e-14 -8.3832e-14 2.62338e-14 0 0 -2.44631e-14 4.75108e-15 -1.9816e-13 7.85012e-14 0 0 6.05895e-14 -2.15976e-13 3.8106e-14 -1.0931e-13 0 0 9.43185e-15 -1.70195e-13 -1.76427e-15 -7.36326e-14 0 0 -8.09921e-14 -7.27027e-14 -5.60862e-14 -1.70547e-14 0 0 4.20889e-14 -3.37309e-13 2.84716e-13 -2.01901e-13 0 0 -1.16741e-13 2.83436e-14 -1.62656e-13 1.41383e-13 0 0 -5.82818e-14 -6.76994e-14 -7.99269e-14 1.73894e-13 0 0 -4.77082e-14 -9.02407e-14 -7.54791e-14 2.39999e-13 0 0 -1.17548e-13 3.61668e-14 -1.7416e-13 2.25349e-13 0 0 3.50218e-14 -2.89475e-13 2.87054e-13 -2.33305e-13 0 0 2.05432e-14 -2.22353e-13 2.16511e-13 -3.22983e-13 0 0 -5.86254e-14 6.86047e-14 -2.54999e-13 -2.4642e-14 0 0 -9.91567e-14 1.9911e-13 -5.29694e-13 1.97457e-13 0 0 2.40863e-14 -1.86142e-13 -3.28572e-14 -1.66518e-13 0 0 2.04318e-13 -6.18195e-13 4.97018e-13 -5.31315e-13 0 0 4.10082e-14 -1.86798e-13 -3.02688e-14 -1.32926e-13 0 0 -1.25787e-13 2.43904e-13 -5.03935e-13 2.23648e-13 0 0 -4.90271e-14 7.68539e-14 -3.19888e-13 7.57608e-14 0 0 1.06356e-13 -2.60539e-13 8.6831e-14 -2.02558e-13 0 0 2.58167e-14 -1.55812e-13 -5.1853e-15 -1.05454e-13 0 0 5.30597e-14 -2.51915e-13 7.90499e-14 -1.98254e-13 0 0 4.77957e-14 -2.05644e-13 -1.13631e-14 -1.67402e-13 0 0 -1.95764e-13 2.85188e-13 -6.28342e-13 3.11322e-13 0 0 4.31315e-14 -1.43162e-13 -1.07199e-13 -3.40609e-14 0 0 1.23817e-13 -4.03276e-13 2.67731e-13 -2.79549e-13 0 0 1.29e-13 -3.53812e-13 7.67163e-14 6.25765e-14 0 0 -6.82675e-14 1.31188e-13 -5.65846e-13 6.37211e-13 0 0 -8.89017e-14 8.64442e-14 -5.63033e-13 7.04333e-13 0 0 7.86117e-14 -2.97049e-13 -1.29571e-13 3.86209e-13 0 0 7.29723e-14 -2.76637e-13 -4.09701e-15 1.10021e-13 0 0 1.09878e-13 -3.58412e-13 1.51999e-13 -1.60041e-13 0 0 -9.77719e-14 -1.09378e-14 -1.25287e-13 -1.37418e-13 0 0 -1.074e-14 -1.5447e-13 6.65967e-14 -3.14266e-13 0 0 2.69906e-13 -5.86869e-13 3.17559e-13 -3.46121e-13 0 0 1.83104e-14 -1.16867e-13 -3.4681e-13 2.16594e-13 0 0 3.11352e-14 -6.433e-14 -5.50816e-13 4.37588e-13 0 0 -3.81991e-15 -4.56645e-14 -4.97542e-13 3.17298e-13 0 0 -7.32464e-14 -4.4223e-14 -4.10173e-13 1.63109e-13 0 0 2.18881e-13 -6.37911e-13 2.14888e-13 -2.29109e-13 0 0 1.76443e-13 -7.52766e-13 4.10494e-13 -3.36088e-13 0 0 2.62013e-13 -7.52986e-13 1.37713e-13 6.46806e-14 0 0 -3.08719e-13 1.65423e-13 -7.67077e-13 7.45726e-13 0 0 -1.2007e-13 -8.95522e-14 -4.46121e-13 4.98208e-13 0 0 2.63543e-13 -8.52783e-13 3.6785e-13 -4.32687e-14 0 0 -2.56355e-13 -3.22096e-13 9.69728e-15 1.09283e-13 0 0 1.8778e-13 -6.00824e-13 1.23358e-13 -9.44913e-14 0 0 5.2953e-15 -2.37309e-13 -1.12227e-13 -6.3685e-14 0 0 9.96253e-14 -3.64642e-13 8.38703e-14 -1.95856e-13 0 0 4.30774e-13 -8.04025e-13 4.27435e-13 -3.04903e-13 0 0 -1.40526e-13 -1.37143e-13 -1.77899e-13 2.40316e-13 0 0 -2.53029e-13 4.18887e-14 -4.30391e-13 4.69397e-13 0 0 -1.90364e-13 -1.25934e-13 -1.59183e-13 2.73657e-13 0 0 1.29076e-13 -6.77347e-13 6.62193e-13 -4.99115e-13 0 0 9.24767e-14 -6.56202e-13 6.95442e-13 -5.92057e-13 0 0 -2.3042e-13 -1.05746e-13 -4.42423e-14 8.078e-14 0 0 -2.29124e-13 1.88352e-14 -3.48218e-13 3.45729e-13 0 0 -1.21145e-13 -1.41964e-13 -2.1707e-13 2.43925e-13 0 0 2.85247e-13 -6.76072e-13 3.83978e-13 -3.13984e-13 0 0 2.45232e-13 -5.42379e-13 3.63343e-14 1.01715e-14 0 0 -4.97683e-13 4.13967e-13 -9.23135e-13 6.97766e-13 0 0 -1.44384e-14 -3.0492e-13 -1.83988e-13 1.95697e-13 0 0 3.11156e-13 -9.34875e-13 4.11178e-13 1.50927e-14 0 0 2.38438e-13 -1.01854e-12 5.6925e-13 1.76495e-13 0 0 -1.37423e-13 -3.18613e-13 -2.24651e-13 9.26141e-13 0 0 -4.68657e-13 2.2108e-13 -9.69401e-13 1.5237e-12 0 0 1.60613e-13 -9.46445e-13 2.63642e-13 3.93403e-13 0 0 -5.45681e-14 -9.10401e-13 5.58528e-13 -3.06824e-13 0 0 3.57506e-14 -8.05304e-13 3.8249e-13 -4.51949e-13 0 0 -2.44492e-13 -1.69499e-13 -2.37357e-13 -1.90069e-13 0 0 -2.10407e-13 -3.54456e-13 -3.22684e-13 1.74974e-13 0 0 2.15614e-13 -8.93936e-13 -3.01257e-13 1.29958e-13 0 0 -6.2685e-13 5.0386e-13 -1.44883e-12 3.76671e-13 0 0 -1.55422e-13 -1.67872e-13 -5.9303e-13 -1.87696e-13 0 0 6.25966e-13 -1.67937e-12 1.00111e-12 -1.01294e-12 0 0 -2.68479e-13 -3.25806e-13 -1.66382e-13 -5.26416e-13 0 0 -5.88578e-13 6.70913e-13 -1.44091e-12 3.40295e-14 0 0 -2.12153e-15 -3.30591e-13 -4.73547e-13 -4.57653e-13 0 0 1.01235e-14 -5.63007e-13 1.02173e-13 -1.04422e-12 0 0 3.18088e-13 -8.41205e-13 3.00181e-13 -1.09874e-12 0 0 3.69383e-14 1.27759e-14 -6.49755e-13 -3.80865e-13 0 0 -3.65293e-13 7.46659e-13 -1.45644e-12 8.3121e-15 0 0 1.60245e-13 -5.32065e-13 -1.04186e-13 -5.24385e-13 0 0 1.40659e-13 -7.40976e-13 4.35735e-13 -1.02992e-12 0 0 4.73493e-13 -8.79766e-13 1.53092e-13 -4.76053e-13 0 0 9.57239e-14 2.07723e-12 -4.83322e-13 7.05963e-13 0 0 8.22383e-12 1.9379e-11 1.23757e-11 -2.64745e-12 0 0 2.07017e-12 1.77681e-10 1.1815e-10 -1.01589e-10 0 0 -8.86443e-10 1.32866e-09 7.49285e-10 -1.17072e-09 0 0 3.31727e-10 -2.87528e-09 7.84191e-09 -7.2507e-09 0 0 1.42395e-09 -4.20416e-09 6.64151e-09 -5.60276e-09 0 0 -1.29699e-09 4.11601e-09 -1.11128e-08 9.84373e-09 0 0 -1.92015e-09 7.38995e-09 -1.65039e-08 1.44611e-08 0 0 2.05058e-10 1.86665e-09 -5.07539e-09 4.88983e-09 0 0 6.38014e-10 -9.07198e-11 -2.19349e-10 5.29127e-10 0 0 2.93709e-10 -5.76252e-11 -5.64524e-11 2.3384e-10 0 0 5.95586e-11 -1.51723e-11 5.09729e-13 6.14325e-11 0 0 4.69178e-12 -3.847e-12 1.26766e-12 8.83179e-12 0 0 -4.67759e-13 -2.46751e-12 5.8372e-14 -1.9277e-13 0 0 -5.14405e-13 -4.82875e-13 -9.23927e-13 -7.30884e-15 0 0 -7.76876e-13 8.18588e-13 -1.69374e-12 5.42436e-13 0 0 -1.80097e-13 -1.58198e-13 -5.13312e-13 -9.13567e-14 0 0 3.46197e-13 -1.00009e-12 5.29182e-13 -1.08001e-12 0 0 3.65204e-13 -9.05035e-13 4.29035e-13 -1.23475e-12 0 0 -2.38314e-13 1.17859e-13 -6.9369e-13 -3.77414e-13 0 0 -7.77915e-13 7.994e-13 -1.32793e-12 1.35231e-13 0 0 -2.27978e-13 -3.53928e-13 -1.73044e-13 -3.6506e-13 0 0 4.98951e-13 -1.34448e-12 7.40725e-13 -1.0424e-12 0 0 -1.00919e-13 -3.15492e-13 -3.82871e-13 -3.48701e-13 0 0 -1.94709e-13 -3.00501e-13 -5.99364e-13 1.9038e-13 0 0 -2.49396e-13 -2.6115e-13 -6.09742e-13 1.2083e-13 0 0 -4.24374e-13 -3.07689e-13 -4.44491e-13 7.59916e-14 0 0 4.65773e-13 -1.60762e-12 7.40696e-13 -7.91474e-13 0 0 -2.55904e-13 -1.85219e-13 -7.04848e-13 -2.10495e-13 0 0 -2.7893e-13 -1.52738e-13 -9.03511e-13 3.34558e-13 0 0 -1.94488e-13 -3.75581e-13 -5.11239e-13 1.55397e-14 0 0 -5.22945e-13 -3.26657e-13 -2.80672e-13 -1.06256e-13 0 0 4.37946e-13 -1.68815e-12 9.24726e-13 -8.51376e-13 0 0 -1.55906e-13 -4.40286e-13 -3.82958e-13 -2.44523e-13 0 0 -2.76566e-13 -2.73969e-13 -6.84774e-13 3.27449e-13 0 0 -1.777e-13 -4.10314e-13 -4.40594e-13 4.09038e-14 0 0 -4.12784e-13 -4.38142e-13 -1.59277e-13 -2.49175e-13 0 0 4.26427e-13 -1.662e-12 1.0394e-12 -1.10153e-12 0 0 -2.14177e-13 -3.10966e-13 -3.35491e-13 -4.61957e-13 0 0 -2.99046e-13 -1.68416e-13 -7.38877e-13 1.9704e-13 0 0 -1.8155e-13 -2.9796e-13 -5.90951e-13 3.5782e-14 0 0 -3.7273e-13 -2.9893e-13 -3.66655e-13 -1.7765e-13 0 0 3.9977e-13 -1.42859e-12 6.2835e-13 -8.81659e-13 0 0 -9.95441e-14 -2.67338e-13 -6.43363e-13 -3.74967e-13 0 0 -2.21348e-13 -4.46607e-14 -8.20702e-13 -7.31774e-14 0 0 -8.29459e-14 -4.05712e-13 -5.25999e-13 -1.32843e-13 0 0 -7.36297e-13 5.80774e-13 -1.54218e-12 2.21308e-13 0 0 4.01595e-13 -1.09032e-12 1.8688e-13 -9.80813e-13 0 0 6.11597e-13 -1.61962e-12 6.37079e-13 -1.06572e-12 0 0 -7.99168e-13 5.01485e-13 -1.77187e-12 5.39131e-13 0 0 -3.22555e-13 -2.9208e-13 -1.26136e-12 5.2183e-13 0 0 -4.56498e-13 -4.14485e-13 -7.38977e-13 -2.99143e-14 0 0 1.12044e-13 -1.13876e-12 2.23099e-13 -7.98056e-13 0 0 5.16932e-13 -1.65758e-12 4.71202e-13 -3.99258e-13 0 0 -8.2743e-13 4.58432e-13 -1.98804e-12 1.61741e-12 0 0 -2.53417e-13 -3.87398e-13 -1.33044e-12 1.50898e-12 0 0 -2.76647e-13 -6.81248e-13 -4.7726e-13 1.89232e-13 0 0 2.56889e-13 -1.29464e-12 3.91802e-13 -1.2963e-12 0 0 2.73273e-13 -1.2898e-12 3.7996e-13 -1.46022e-12 0 0 -3.79548e-13 -4.57209e-13 -6.5604e-13 -3.93489e-13 0 0 -3.82431e-13 -2.33666e-13 -8.76176e-13 -2.22583e-13 0 0 -4.40308e-13 -3.62689e-13 -3.79512e-13 -4.0437e-13 0 0 3.80776e-13 -1.50795e-12 7.22922e-13 -8.2529e-13 0 0 -1.04469e-13 -2.37806e-13 -8.52259e-13 7.06005e-14 0 0 -5.44011e-13 7.57072e-13 -2.49213e-12 1.31623e-12 0 0 -6.18626e-13 7.29752e-13 -2.26682e-12 7.51503e-13 0 0 -2.72103e-14 -1.1361e-12 3.84654e-13 -9.11759e-13 0 0 6.44794e-13 -2.56996e-12 2.13446e-12 -2.33752e-12 0 0 -2.2604e-13 -6.57258e-13 -3.28678e-13 -1.11109e-12 0 0 -6.96922e-13 6.99726e-13 -2.47875e-12 7.08896e-13 0 0 -5.85525e-13 6.25506e-13 -2.11723e-12 2.5487e-13 0 0 -5.37084e-14 -8.00877e-13 -2.73754e-13 -8.45523e-13 0 0 5.22143e-13 -2.02542e-12 1.11772e-12 -2.5452e-12 0 0 -3.18926e-13 -7.50939e-13 1.25548e-13 -2.84926e-12 0 0 -1.08914e-13 -1.16962e-12 4.65066e-13 -2.06661e-12 0 0 5.173e-14 -1.13727e-12 2.61085e-13 -1.33119e-12 0 0 -9.01568e-13 6.89545e-13 -1.93021e-12 7.38175e-14 0 0 7.76513e-15 -6.42652e-13 -1.07357e-12 -2.52631e-13 0 0 -1.3001e-13 -7.90201e-13 -3.8445e-13 -8.75643e-13 0 0 -1.0879e-13 -1.1487e-12 4.4123e-13 -1.09536e-12 0 0 1.37687e-13 -1.16654e-12 1.4109e-13 -9.6382e-13 0 0 -7.33837e-13 5.80308e-13 -1.96162e-12 8.22055e-14 0 0 7.3681e-14 -6.48016e-13 -1.02877e-12 -2.88313e-13 0 0 -6.72439e-14 -8.43523e-13 -2.80979e-13 -1.0969e-12 0 0 -9.36824e-15 -1.31146e-12 6.14891e-13 -1.29351e-12 0 0 2.54747e-13 -1.38259e-12 2.86073e-13 -8.31258e-13 0 0 -7.76074e-13 5.50049e-13 -2.1438e-12 4.05586e-13 0 0 -3.65486e-14 -5.9615e-13 -1.3096e-12 -5.12865e-14 0 0 -1.09563e-13 -9.01039e-13 -3.16254e-13 -9.29306e-13 0 0 -1.46563e-13 -1.13653e-12 2.30811e-13 -7.8579e-13 0 0 1.27809e-13 -1.14504e-12 -2.02881e-13 -3.7717e-13 0 0 -8.70187e-13 7.04826e-13 -2.32204e-12 6.24468e-13 0 0 -2.1788e-14 -6.03781e-13 -1.30217e-12 1.825e-13 0 0 -3.10705e-14 -8.33748e-13 -5.11361e-13 -6.54932e-13 0 0 1.71514e-13 -1.32058e-12 1.65421e-13 -9.29143e-13 0 0 4.53052e-13 -1.23561e-12 -8.51783e-13 -3.38944e-13 0 0 -1.31322e-12 1.45612e-12 -3.65502e-12 9.1731e-13 0 0 6.58449e-13 -1.82129e-12 1.02644e-13 -1.01182e-12 0 0 1.39568e-12 -3.21409e-12 1.90192e-12 -1.82747e-12 0 0 -7.15262e-13 -7.20535e-14 -1.54441e-12 3.65292e-13 0 0 -7.84234e-13 3.74489e-13 -2.90069e-12 1.70195e-12 0 0 -1.24165e-12 6.96725e-13 -2.92159e-12 1.71675e-12 0 0 5.45581e-13 -2.31795e-12 9.0149e-13 -8.60872e-13 0 0 7.95086e-13 -2.75801e-12 1.4904e-12 -1.26518e-12 0 0 -9.62898e-13 2.70405e-13 -2.43392e-12 1.29605e-12 0 0 -7.51999e-13 4.09139e-13 -3.38843e-12 2.15756e-12 0
				</DataArray>
				<DataArray Name="VitesseY" type="Float32" format="ascii">