<?xml version="1.0"?>
<VTKFile type="PolyData">
	<PolyData>
		<Piece NumberOfPoints="1206" NumberOfPolys="1000">
			<Points>
				<DataArray type="Float32" NumberOfComponents="3" format="ascii">
 0 0 0 0.02 0 0 0.04 0 0 0.06 0 0 0.08 0 0 0.1 0 0 0 0.005 0 0.02 0.005 0 0.04 0.005 0 0.06 0.005 0 0.08 0.005 0 0.1 0.005 0 0 0.01 0 0.02 0.01 0 0.04 0.01 0 0.06 0.01 0 0.08 0.01 0 0.1 0.01 0 0 0.015 0 0.02 0.015 0 0.04 0.015 0 0.06 0.015 0 0.08 0.015 0 0.1 0.015 0 0 0.02 0 0.02 0.02 0 0.04 0.02 0 0.06 0.02 0 0.08 0.02 0 0.1 0.02 0 0 0.025 0 0.02 0.025 0 0.04 0.025 0 0.06 0.025 0 0.08 0.025 0 0.1 0.025 0 0 0.03 0 0.02 0.03 0 0.04 0.03 0 0.06 0.03 0 0.08 0.03 0 0.1 0.03 0 0 0.035 0 0.02 0.035 0 0.04 0.035 0 0.06 0.035 0 0.08 0.035 0 0.1 0.035 0 0 0.04 0 0.02 0.04 0 0.04 0.04 0 0.06 0.04 0 0.08 0.04 0 0.1 0.04 0 0 0.045 0 0.02 0.045 0 0.04 0.045 0 0.06 0.045 0 0.08 0.045 0 0.1 0.045 0 0 0.05 0 0.02 0.05 0 0.04 0.05 0 0.06 0.05 0 0.08 0.05 0 0.1 0.05 0 0 0.055 0 0.02 0.055 0 0.04 0.055 0 0.06 0.055 0 0.08 0.055 0 0.1 0.055 0 0 0.06 0 0.02 0.06 0 0.04 0.06 0 0.06 0.06 0 0.08 0.06 0 0.1 0.06 0 0 0.065 0 0.02 0.065 0 0.04 0.065 0 0.06 0.065 0 0.08 0.065 0 0.1 0.065 0 0 0.07 0 0.02 0.07 0 0.04 0.07 0 0.06 0.07 0 0.08 0.07 0 0.1 0.07 0 0 0.075 0 0.02 0.075 0 0.04 0.075 0 0.06 0.075 0 0.08 0.075 0 0.1 0.075 0 0 0.08 0 0.02 0.08 0 0.04 0.08 0 0.06 0.08 0 0.08 0.08 0 0.1 0.08 0 0 0.085 0 0.02 0.085 0 0.04 0.085 0 0.06 0.085 0 0.08 0.085 0 0.1 0.085 0 0 0.09 0 0.02 0.09 0 0.04 0.09 0 0.06 0.09 0 0.08 0.09 0 0.1 0.09 0 0 0.095 0 0.02 0.095 0 0.04 0.095 0 0.06 0.095 0 0.08 0.095 0 0.1 0.095 0 0 0.1 0 0.02 0.1 0 0.04 0.1 0 0.06 0.1 0 0.08 0.1 0 0.1 0.1 0 0 0.105 0 0.02 0.105 0 0.04 0.105 0 0.06 0.105 0 0.08 0.105 0 0.1 0.105 0 0 0.11 0 0.02 0.11 0 0.04 0.11 0 0.06 0.11 0 0.08 0.11 0 0.1 0.11 0 0 0.115 0 0.02 0.115 0 0.04 0.115 0 0.06 0.115 0 0.08 0.115 0 0.1 0.115 0 0 0.12 0 0.02 0.12 0 0.04 0.12 0 0.06 0.12 0 0.08 0.12 0 0.1 0.12 0 0 0.125 0 0.02 0.125 0 0.04 0.125 0 0.06 0.125 0 0.08 0.125 0 0.1 0.125 0 0 0.13 0 0.02 0.13 0 0.04 0.13 0 0.06 0.13 0 0.08 0.13 0 0.1 0.13 0 0 0.135 0 0.02 0.135 0 0.04 0.135 0 0.06 0.135 0 0.08 0.135 0 0.1 0.135 0 0 0.14 0 0.02 0.14 0 0.04 0.14 0 0.06 0.14 0 0.08 0.14 0 0.1 0.14 0 0 0.145 0 0.02 0.145 0 0.04 0.145 0 0.06 0.145 0 0.08 0.145 0 0.1 0.145 0 0 0.15 0 0.02 0.15 0 0.04 0.15 0 0.06 0.15 0 0.08 0.15 0 0.1 0.15 0 0 0.155 0 0.02 0.155 0 0.04 0.155 0 0.06 0.155 0 0.08 0.155 0 0.1 0.155 0 0 0.16 0 0.02 0.16 0 0.04 0.16 0 0.06 0.16 0 0.08 0.16 0 0.1 0.16 0 0 0.165 0 0.02 0.165 0 0.04 0.165 0 0.06 0.165 0 0.08 0.165 0 0.1 0.165 0 0 0.17 0 0.02 0.17 0 0.04 0.17 0 0.06 0.17 0 0.08 0.17 0 0.1 0.17 0 0 0.175 0 0.02 0.175 0 0.04 0.175 0 0.06 0.175 0 0.08 0.175 0 0.1 0.175 0 0 0.18 0 0.02 0.18 0 0.04 0.18 0 0.06 0.18 0 0.08 0.18 0 0.1 0.18 0 0 0.185 0 0.02 0.185 0 0.04 0.185 0 0.06 0.185 0 0.08 0.185 0 0.1 0.185 0 0 0.19 0 0.02 0.19 0 0.04 0.19 0 0.06 0.19 0 0.08 0.19 0 0.1 0.19 0 0 0.195 0 0.02 0.195 0 0.04 0.195 0 0.06 0.195 0 0.08 0.195 0 0.1 0.195 0 0 0.2 0 0.02 0.2 0 0.04 0.2 0 0.06 0.2 0 0.08 0.2 0 0.1 0.2 0 0 0.205 0 0.02 0.205 0 0.04 0.205 0 0.06 0.205 0 0.08 0.205 0 0.1 0.205 0 0 0.21 0 0.02 0.21 0 0.04 0.21 0 0.06 0.21 0 0.08 0.21 0 0.1 0.21 0 0 0.215 0 0.02 0.215 0 0.04 0.215 0 0.06 0.215 0 0.08 0.215 0 0.1 0.215 0 0 0.22 0 0.02 0.22 0 0.04 0.22 0 0.06 0.22 0 0.08 0.22 0 0.1 0.22 0 0 0.225 0 0.02 0.225 0 0.04 0.225 0 0.06 0.225 0 0.08 0.225 0 0.1 0.225 0 0 0.23 0 0.02 0.23 0 0.04 0.23 0 0.06 0.23 0 0.08 0.23 0 0.1 0.23 0 0 0.235 0 0.02 0.235 0 0.04 0.235 0 0.06 0.235 0 0.08 0.235 0 0.1 0.235 0 0 0.24 0 0.02 0.24 0 0.04 0.24 0 0.06 0.24 0 0.08 0.24 0 0.1 0.24 0 0 0.245 0 0.02 0.245 0 0.04 0.245 0 0.06 0.245 0 0.08 0.245 0 0.1 0.245 0 0 0.25 0 0.02 0.25 0 0.04 0.25 0 0.06 0.25 0 0.08 0.25 0 0.1 0.25 0 0 0.255 0 0.02 0.255 0 0.04 0.255 0 0.06 0.255 0 0.08 0.255 0 0.1 0.255 0 0 0.26 0 0.02 0.26 0 0.04 0.26 0 0.06 0.26 0 0.08 0.26 0 0.1 0.26 0 0 0.265 0 0.02 0.265 0 0.04 0.265 0 0.06 0.265 0 0.08 0.265 0 0.1 0.265 0 0 0.27 0 0.02 0.27 0 0.04 0.27 0 0.06 0.27 0 0.08 0.27 0 0.1 0.27 0 0 0.275 0 0.02 0.275 0 0.04 0.275 0 0.06 0.275 0 0.08 0.275 0 0.1 0.275 0 0 0.28 0 0.02 0.28 0 0.04 0.28 0 0.06 0.28 0 0.08 0.28 0 0.1 0.28 0 0 0.285 0 0.02 0.285 0 0.04 0.285 0 0.06 0.285 0 0.08 0.285 0 0.1 0.285 0 0 0.29 0 0.02 0.29 0 0.04 0.29 0 0.06 0.29 0 0.08 0.29 0 0.1 0.29 0 0 0.295 0 0.02 0.295 0 0.04 0.295 0 0.06 0.295 0 0.08 0.295 0 0.1 0.295 0 0 0.3 0 0.02 0.3 0 0.04 0.3 0 0.06 0.3 0 0.08 0.3 0 0.1 0.3 0 0 0.305 0 0.02 0.305 0 0.04 0.305 0 0.06 0.305 0 0.08 0.305 0 0.1 0.305 0 0 0.31 0 0.02 0.31 0 0.04 0.31 0 0.06 0.31 0 0.08 0.31 0 0.1 0.31 0 0 0.315 0 0.02 0.315 0 0.04 0.315 0 0.06 0.315 0 0.08 0.315 0 0.1 0.315 0 0 0.32 0 0.02 0.32 0 0.04 0.32 0 0.06 0.32 0 0.08 0.32 0 0.1 0.32 0 0 0.325 0 0.02 0.325 0 0.04 0.325 0 0.06 0.325 0 0.08 0.325 0 0.1 0.325 0 0 0.33 0 0.02 0.33 0 0.04 0.33 0 0.06 0.33 0 0.08 0.33 0 0.1 0.33 0 0 0.335 0 0.02 0.335 0 0.04 0.335 0 0.06 0.335 0 0.08 0.335 0 0.1 0.335 0 0 0.34 0 0.02 0.34 0 0.04 0.34 0 0.06 0.34 0 0.08 0.34 0 0.1 0.34 0 0 0.345 0 0.02 0.345 0 0.04 0.345 0 0.06 0.345 0 0.08 0.345 0 0.1 0.345 0 0 0.35 0 0.02 0.35 0 0.04 0.35 0 0.06 0.35 0 0.08 0.35 0 0.1 0.35 0 0 0.355 0 0.02 0.355 0 0.04 0.355 0 0.06 0.355 0 0.08 0.355 0 0.1 0.355 0 0 0.36 0 0.02 0.36 0 0.04 0.36 0 0.06 0.36 0 0.08 0.36 0 0.1 0.36 0 0 0.365 0 0.02 0.365 0 0.04 0.365 0 0.06 0.365 0 0.08 0.365 0 0.1 0.365 0 0 0.37 0 0.02 0.37 0 0.04 0.37 0 0.06 0.37 0 0.08 0.37 0 0.1 0.37 0 0 0.375 0 0.02 0.375 0 0.04 0.375 0 0.06 0.375 0 0.08 0.375 0 0.1 0.375 0 0 0.38 0 0.02 0.38 0 0.04 0.38 0 0.06 0.38 0 0.08 0.38 0 0.1 0.38 0 0 0.385 0 0.02 0.385 0 0.04 0.385 0 0.06 0.385 0 0.08 0.385 0 0.1 0.385 0 0 0.39 0 0.02 0.39 0 0.04 0.39 0 0.06 0.39 0 0.08 0.39 0 0.1 0.39 0 0 0.395 0 0.02 0.395 0 0.04 0.395 0 0.06 0.395 0 0.08 0.395 0 0.1 0.395 0 0 0.4 0 0.02 0.4 0 0.04 0.4 0 0.06 0.4 0 0.08 0.4 0 0.1 0.4 0 0 0.405 0 0.02 0.405 0 0.04 0.405 0 0.06 0.405 0 0.08 0.405 0 0.1 0.405 0 0 0.41 0 0.02 0.41 0 0.04 0.41 0 0.06 0.41 0 0.08 0.41 0 0.1 0.41 0 0 0.415 0 0.02 0.415 0 0.04 0.415 0 0.06 0.415 0 0.08 0.415 0 0.1 0.415 0 0 0.42 0 0.02 0.42 0 0.04 0.42 0 0.06 0.42 0 0.08 0.42 0 0.1 0.42 0 0 0.425 0 0.02 0.425 0 0.04 0.425 0 0.06 0.425 0 0.08 0.425 0 0.1 0.425 0 0 0.43 0 0.02 0.43 0 0.04 0.43 0 0.06 0.43 0 0.08 0.43 0 0.1 0.43 0 0 0.435 0 0.02 0.435 0 0.04 0.435 0 0.06 0.435 0 0.08 0.435 0 0.1 0.435 0 0 0.44 0 0.02 0.44 0 0.04 0.44 0 0.06 0.44 0 0.08 0.44 0 0.1 0.44 0 0 0.445 0 0.02 0.445 0 0.04 0.445 0 0.06 0.445 0 0.08 0.445 0 0.1 0.445 0 0 0.45 0 0.02 0.45 0 0.04 0.45 0 0.06 0.45 0 0.08 0.45 0 0.1 0.45 0 0 0.455 0 0.02 0.455 0 0.04 0.455 0 0.06 0.455 0 0.08 0.455 0 0.1 0.455 0 0 0.46 0 0.02 0.46 0 0.04 0.46 0 0.06 0.46 0 0.08 0.46 0 0.1 0.46 0 0 0.465 0 0.02 0.465 0 0.04 0.465 0 0.06 0.465 0 0.08 0.465 0 0.1 0.465 0 0 0.47 0 0.02 0.47 0 0.04 0.47 0 0.06 0.47 0 0.08 0.47 0 0.1 0.47 0 0 0.475 0 0.02 0.475 0 0.04 0.475 0 0.06 0.475 0 0.08 0.475 0 0.1 0.475 0 0 0.48 0 0.02 0.48 0 0.04 0.48 0 0.06 0.48 0 0.08 0.48 0 0.1 0.48 0 0 0.485 0 0.02 0.485 0 0.04 0.485 0 0.06 0.485 0 0.08 0.485 0 0.1 0.485 0 0 0.49 0 0.02 0.49 0 0.04 0.49 0 0.06 0.49 0 0.08 0.49 0 0.1 0.49 0 0 0.495 0 0.02 0.495 0 0.04 0.495 0 0.06 0.495 0 0.08 0.495 0 0.1 0.495 0 0 0.5 0 0.02 0.5 0 0.04 0.5 0 0.06 0.5 0 0.08 0.5 0 0.1 0.5 0 0 0.505 0 0.02 0.505 0 0.04 0.505 0 0.06 0.505 0 0.08 0.505 0 0.1 0.505 0 0 0.51 0 0.02 0.51 0 0.04 0.51 0 0.06 0.51 0 0.08 0.51 0 0.1 0.51 0 0 0.515 0 0.02 0.515 0 0.04 0.515 0 0.06 0.515 0 0.08 0.515 0 0.1 0.515 0 0 0.52 0 0.02 0.52 0 0.04 0.52 0 0.06 0.52 0 0.08 0.52 0 0.1 0.52 0 0 0.525 0 0.02 0.525 0 0.04 0.525 0 0.06 0.525 0 0.08 0.525 0 0.1 0.525 0 0 0.53 0 0.02 0.53 0 0.04 0.53 0 0.06 0.53 0 0.08 0.53 0 0.1 0.53 0 0 0.535 0 0.02 0.535 0 0.04 0.535 0 0.06 0.535 0 0.08 0.535 0 0.1 0.535 0 0 0.54 0 0.02 0.54 0 0.04 0.54 0 0.06 0.54 0 0.08 0.54 0 0.1 0.54 0 0 0.545 0 0.02 0.545 0 0.04 0.545 0 0.06 0.545 0 0.08 0.545 0 0.1 0.545 0 0 0.55 0 0.02 0.55 0 0.04 0.55 0 0.06 0.55 0 0.08 0.55 0 0.1 0.55 0 0 0.555 0 0.02 0.555 0 0.04 0.555 0 0.06 0.555 0 0.08 0.555 0 0.1 0.555 0 0 0.56 0 0.02 0.56 0 0.04 0.56 0 0.06 0.56 0 0.08 0.56 0 0.1 0.56 0 0 0.565 0 0.02 0.565 0 0.04 0.565 0 0.06 0.565 0 0.08 0.565 0 0.1 0.565 0 0 0.57 0 0.02 0.57 0 0.04 0.57 0 0.06 0.57 0 0.08 0.57 0 0.1 0.57 0 0 0.575 0 0.02 0.575 0 0.04 0.575 0 0.06 0.575 0 0.08 0.575 0 0.1 0.575 0 0 0.58 0 0.02 0.58 0 0.04 0.58 0 0.06 0.58 0 0.08 0.58 0 0.1 0.58 0 0 0.585 0 0.02 0.585 0 0.04 0.585 0 0.06 0.585 0 0.08 0.585 0 0.1 0.585 0 0 0.59 0 0.02 0.59 0 0.04 0.59 0 0.06 0.59 0 0.08 0.59 0 0.1 0.59 0 0 0.595 0 0.02 0.595 0 0.04 0.595 0 0.06 0.595 0 0.08 0.595 0 0.1 0.595 0 0 0.6 0 0.02 0.6 0 0.04 0.6 0 0.06 0.6 0 0.08 0.6 0 0.1 0.6 0 0 0.605 0 0.02 0.605 0 0.04 0.605 0 0.06 0.605 0 0.08 0.605 0 0.1 0.605 0 0 0.61 0 0.02 0.61 0 0.04 0.61 0 0.06 0.61 0 0.08 0.61 0 0.1 0.61 0 0 0.615 0 0.02 0.615 0 0.04 0.615 0 0.06 0.615 0 0.08 0.615 0 0.1 0.615 0 0 0.62 0 0.02 0.62 0 0.04 0.62 0 0.06 0.62 0 0.08 0.62 0 0.1 0.62 0 0 0.625 0 0.02 0.625 0 0.04 0.625 0 0.06 0.625 0 0.08 0.625 0 0.1 0.625 0 0 0.63 0 0.02 0.63 0 0.04 0.63 0 0.06 0.63 0 0.08 0.63 0 0.1 0.63 0 0 0.635 0 0.02 0.635 0 0.04 0.635 0 0.06 0.635 0 0.08 0.635 0 0.1 0.635 0 0 0.64 0 0.02 0.64 0 0.04 0.64 0 0.06 0.64 0 0.08 0.64 0 0.1 0.64 0 0 0.645 0 0.02 0.645 0 0.04 0.645 0 0.06 0.645 0 0.08 0.645 0 0.1 0.645 0 0 0.65 0 0.02 0.65 0 0.04 0.65 0 0.06 0.65 0 0.08 0.65 0 0.1 0.65 0 0 0.655 0 0.02 0.655 0 0.04 0.655 0 0.06 0.655 0 0.08 0.655 0 0.1 0.655 0 0 0.66 0 0.02 0.66 0 0.04 0.66 0 0.06 0.66 0 0.08 0.66 0 0.1 0.66 0 0 0.665 0 0.02 0.665 0 0.04 0.665 0 0.06 0.665 0 0.08 0.665 0 0.1 0.665 0 0 0.67 0 0.02 0.67 0 0.04 0.67 0 0.06 0.67 0 0.08 0.67 0 0.1 0.67 0 0 0.675 0 0.02 0.675 0 0.04 0.675 0 0.06 0.675 0 0.08 0.675 0 0.1 0.675 0 0 0.68 0 0.02 0.68 0 0.04 0.68 0 0.06 0.68 0 0.08 0.68 0 0.1 0.68 0 0 0.685 0 0.02 0.685 0 0.04 0.685 0 0.06 0.685 0 0.08 0.685 0 0.1 0.685 0 0 0.69 0 0.02 0.69 0 0.04 0.69 0 0.06 0.69 0 0.08 0.69 0 0.1 
[...]
			<PointData Scalars="VitesseX">
				<DataArray Name="VitesseX" type="Float32" format="ascii">
 0 2.04923e-14 3.33614e-14 3.79017e-14 3.06047e-14 0 0 2.10435e-14 2.8731e-14 4.53284e-14 2.43703e-14 0 0 5.97828e-15 4.46612e-14 3.40792e-14 3.19703e-14 0 0 9.51405e-15 3.44878e-14 4.4756e-14 2.95547e-14 0 0 2.55267e-14 1.30753e-14 6.11154e-14 2.46183e-14 0 0 -5.67706e-15 5.63354e-14 2.9107e-14 4.09437e-14 0 0 -1.73581e-14 6.14469e-14 3.8948e-14 2.815e-14 0 0 1.84052e-15 2.81065e-14 6.41787e-14 2.08702e-14 0 0 6.90767e-15 1.25811e-14 7.57483e-14 2.14651e-14 0 0 -1.05933e-14 3.22723e-14 4.68441e-14 4.80797e-14 0 0 -2.24336e-14 3.75858e-14 3.04149e-14 6.05547e-14 0 0 -5.84125e-15 -3.09693e-15 7.80012e-14 1.72715e-14 0 0 1.41893e-14 -3.33348e-14 1.15627e-13 -2.40277e-14 0 0 -2.41805e-14 4.87005e-14 3.51249e-14 1.86944e-14 0 0 -5.26999e-14 1.15489e-13 -4.23156e-14 7.83427e-14 0 0 -7.48995e-15 4.56045e-14 1.59013e-14 5.31162e-14 0 0 1.04499e-14 9.72203e-15 6.35439e-14 2.4643e-14 0 0 3.45755e-15 2.20763e-14 6.00782e-14 2.93806e-14 0 0 9.47839e-15 6.13844e-14 -1.82777e-14 9.5967e-14 0 0 2.14122e-14 7.09069e-14 -3.02839e-14 9.75676e-14 0 0 5.04548e-14 1.82142e-14 4.77475e-14 3.07536e-14 0 0 1.71017e-14 7.60187e-14 1.02405e-15 4.8458e-14 0 0 -3.69923e-14 1.74058e-13 -9.80394e-14 9.24955e-14 0 0 -3.11518e-15 1.42504e-13 -1.20903e-13 1.37877e-13 0 0 3.75088e-14 7.52768e-14 -4.48286e-14 9.38988e-14 0 0 2.17129e-14 8.63862e-14 -1.8075e-15 3.36085e-14 0 0 6.64778e-14 3.05859e-17 9.71218e-14 -3.45622e-14 0 0 5.99999e-14 3.4925e-14 1.54696e-14 2.89399e-14 0 0 5.50612e-14 6.03441e-14 -4.86957e-14 9.04093e-14 0 0 1.00731e-13 -3.59051e-14 8.45619e-14 9.38227e-15 0 0 3.2771e-14 9.95701e-14 -4.36727e-14 9.04897e-14 0 0 7.33129e-14 5.23118e-14 4.57003e-14 1.23454e-14 0 0 7.75782e-14 7.57394e-14 3.78686e-14 4.17121e-15 0 0 4.4245e-14 1.38372e-13 -4.74925e-14 5.05808e-14 0 0 7.38596e-14 7.73501e-14 4.32381e-14 -2.34432e-14 0 0 8.59562e-14 8.32852e-14 4.90637e-14 2.44619e-14 0 0 7.04635e-14 1.01749e-13 1.55914e-14 4.41808e-14 0 0 6.11068e-14 6.69353e-14 1.0275e-14 2.51622e-14 0 0 1.15943e-13 -2.953e-14 1.32927e-13 -3.59529e-14 0 0 4.08663e-14 1.79607e-13 5.11462e-14 -3.27186e-14 0 0 1.13266e-13 1.73495e-13 1.24221e-13 -1.06574e-13 0 0 2.5643e-13 -4.08523e-14 3.37941e-13 -2.35375e-13 0 0 1.51244e-13 1.45172e-13 1.78971e-13 -1.39618e-13 0 0 4.37791e-14 3.17547e-13 2.02166e-14 -2.54648e-16 0 0 4.35336e-14 2.45065e-13 9.84942e-14 3.4462e-14 0 0 5.58779e-14 2.98311e-13 2.95197e-14 1.33621e-13 0 0 1.10297e-13 2.70707e-13 8.50462e-14 5.64244e-14 0 0 2.11846e-13 8.77879e-14 2.46747e-13 -1.06194e-13 0 0 2.35948e-13 3.33339e-14 1.83182e-13 2.00283e-14 0 0 1.94715e-13 -1.3763e-14 2.81165e-13 1.66117e-13 0 0 1.93859e-13 2.72638e-14 4.72118e-13 2.95577e-13 0 0 2.70238e-13 4.16602e-13 5.50163e-13 5.15096e-13 0 0 6.19453e-13 9.63788e-13 9.14924e-13 7.47679e-13 0 0 1.23409e-12 1.90604e-12 1.80919e-12 1.30051e-12 0 0 2.33484e-12 3.57016e-12 3.51925e-12 2.35913e-12 0 0 4.04791e-12 6.29424e-12 6.20886e-12 4.00341e-12 0 0 6.43144e-12 1.02056e-11 9.9978e-12 6.32246e-12 0 0 9.52676e-12 1.50476e-11 1.49932e-11 9.10214e-12 0 0 1.28977e-11 2.07843e-11 2.0562e-11 1.24323e-11 0 0 1.64878e-11 2.65159e-11 2.63934e-11 1.60063e-11 0 0 1.98516e-11 3.18847e-11 3.17889e-11 1.95233e-11 0 0 2.26158e-11 3.65021e-11 3.6226e-11 2.25852e-11 0 0 2.46405e-11 3.97383e-11 3.95215e-11 2.46728e-11 0 0 2.58037e-11 4.12939e-11 4.15197e-11 2.55292e-11 0 0 2.55996e-11 4.13197e-11 4.11619e-11 2.54785e-11 0 0 2.43226e-11 3.94394e-11 3.90148e-11 2.4224e-11 0 0 2.18948e-11 3.55767e-11 3.50931e-11 2.16721e-11 0 0 1.82896e-11 2.96403e-11 2.94059e-11 1.80124e-11 0 0 1.36986e-11 2.17109e-11 2.2168e-11 1.33759e-11 0 0 7.74138e-12 1.2761e-11 1.27374e-11 8.15753e-12 0 0 8.63754e-13 2.16949e-12 2.32393e-12 1.79938e-12 0 0 -6.54099e-12 -1.03366e-11 -8.71902e-12 -5.80181e-12 0 0 -1.4955e-11 -2.29163e-11 -2.20052e-11 -1.31342e-11 0 0 -2.34542e-11 -3.74019e-11 -3.50822e-11 -2.14969e-11 0 0 -3.25645e-11 -5.19357e-11 -4.94073e-11 -2.97642e-11 0 0 -4.22482e-11 -6.64726e-11 -6.42093e-11 -3.83376e-11 0 0 -5.17669e-11 -8.17499e-11 -7.8751e-11 -4.74696e-11 0 0 -6.14298e-11 -9.68023e-11 -9.34204e-11 -5.64801e-11 0 0 -7.09258e-11 -1.11678e-10 -1.07825e-10 -6.53468e-11 0 0 -8.0089e-11 -1.26266e-10 -1.21914e-10 -7.40581e-11 0 0 -8.87854e-11 -1.40321e-10 -1.35717e-10 -8.25165e-11 0 0 -9.68745e-11 -1.53668e-10 -1.49146e-10 -9.06774e-11 0 0 -1.0427e-10 -1.66163e-10 -1.621e-10 -9.85901e-11 0 0 -1.10931e-10 -1.77646e-10 -1.74486e-10 -1.06294e-10 0 0 -1.16782e-10 -1.8803e-10 -1.86165e-10 -1.13787e-10 0 0 -1.21708e-10 -1.97329e-10 -1.96955e-10 -1.21073e-10 0 0 -1.25641e-10 -2.05523e-10 -2.06744e-10 -1.28126e-10 0 0 -1.28607e-10 -2.12439e-10 -2.15541e-10 -1.34886e-10 0 0 -1.30663e-10 -2.17836e-10 -2.23414e-10 -1.41274e-10 0 0 -1.31845e-10 -2.21592e-10 -2.30402e-10 -1.47214e-10 0 0 -1.32084e-10 -2.23795e-10 -2.36469e-10 -1.52676e-10 0 0 -1.31171e-10 -2.24713e-10 -2.41539e-10 -1.57682e-10 0 0 -1.29197e-10 -2.24421e-10 -2.45597e-10 -1.62265e-10 0 0 -1.26476e-10 -2.23524e-10 -2.4885e-10 -1.66292e-10 0 0 -1.21529e-10 -2.23359e-10 -2.51657e-10 -1.69035e-10 0 0 -8.16871e-11 -2.40115e-10 -2.74322e-10 -1.37783e-10 0 0 5.24671e-10 -5.65479e-10 -6.4841e-10 4.38046e-10 0 0 7.54641e-09 -4.72013e-09 -5.99762e-09 8.1723e-09 0 0 2.82124e-08 -1.16468e-08 -2.87569e-08 3.73219e-08 0 0 1.72738e-08 -5.7526e-09 -2.06571e-08 2.54943e-08 0 0 -2.47131e-08 1.07311e-08 2.33897e-08 -3.16314e-08 0 0 -3.49773e-08 1.01214e-08 4.52795e-08 -5.54068e-08 0 0 -2.97415e-08 9.91616e-09 3.42119e-08 -4.3286e-08 0 0 -1.32109e-08 9.42621e-09 -9.59117e-10 -3.54648e-09 0 0 3.17803e-10 4.92783e-09 -9.07886e-09 9.19279e-09 0 0 4.33455e-09 1.28614e-10 -6.3288e-09 7.15683e-09 0 0 9.20287e-09 -2.82225e-09 -7.19689e-09 9.6353e-09 0 0 1.3224e-08 -4.65619e-09 -1.10821e-08 1.564e-08 0 0 1.31573e-08 -5.59999e-09 -1.11136e-08 1.57305e-08 0 0 1.22559e-08 -5.8914e-09 -8.66447e-09 1.3186e-08 0 0 1.12592e-08 -5.90246e-09 -6.57589e-09 1.08391e-08 0 0 1.05895e-08 -5.62592e-09 -6.22003e-09 1.0331e-08 0 0 9.34338e-09 -4.92593e-09 -5.33242e-09 9.24539e-09 0 0 6.05232e-09 -3.16373e-09 -2.76008e-09 5.95274e-09 0 0 1.08419e-09 -1.35445e-10 -3.69509e-10 1.87632e-09 0 0 -4.58848e-09 3.06581e-09 3.41441e-09 -4.02503e-09 0 0 -1.00801e-08 5.28124e-09 8.19433e-09 -1.09262e-08 0 0 -1.07436e-08 5.2295e-09 9.21813e-09 -1.25471e-08 0 0 -1.01315e-08 4.86577e-09 8.36145e-09 -1.17001e-08 0 0 -8.19462e-09 4.12895e-09 5.29947e-09 -8.37647e-09 0 0 -4.04151e-09 2.5206e-09 1.80255e-09 -3.39684e-09 0 0 6.4866e-10 2.8796e-10 -1.63746e-09 1.66797e-09 0 0 5.04054e-09 -1.99559e-09 -4.32931e-09 5.90988e-09 0 0 5.86115e-09 -2.712e-09 -4.58727e-09 6.43926e-09 0 0 5.29272e-09 -2.59127e-09 -3.71303e-09 5.44443e-09 0 0 2.96569e-09 -1.95113e-09 -1.47943e-09 2.45669e-09 0 0 2.68955e-10 -7.79006e-10 2.70488e-10 -1.52145e-10 0 0 -1.15867e-09 -4.05318e-11 1.12047e-09 -1.57527e-09 0 0 -1.21698e-09 2.91759e-12 1.15006e-09 -1.66475e-09 0 0 -1.13385e-09 5.27704e-11 9.72324e-10 -1.52611e-09 0 0 -7.47322e-10 1.07702e-10 2.40533e-10 -8.11663e-10 0 0 -2.8783e-10 1.7609e-11 -3.80914e-10 -2.84961e-11 0 0 -2.1402e-10 4.82058e-12 -7.70059e-10 6.16914e-10 0 0 -3.16666e-10 5.71175e-10 -1.88259e-09 1.79788e-09 0 0 -9.281e-11 3.85566e-10 -1.46707e-09 1.51094e-09 0 0 2.86461e-10 -1.68478e-10 -6.61615e-10 9.06267e-10 0 0 1.74249e-12 3.98878e-10 -1.36042e-09 1.41935e-09 0 0 -6.06189e-10 8.83516e-10 -7.3691e-10 6.49726e-10 0 0 -7.62991e-10 8.79439e-10 6.39155e-10 -6.78697e-10 0 0 -5.62365e-10 6.95223e-10 1.02433e-09 -8.83606e-10 0 0 -1.11253e-10 3.68729e-10 9.26427e-10 -6.85421e-10 0 0 2.31125e-10 8.22357e-11 6.8909e-10 -4.07249e-10 0 0 3.81982e-10 -1.04252e-10 1.95596e-10 7.76359e-12 0 0 4.52126e-10 -1.46278e-10 -2.79696e-10 4.32612e-10 0 0 5.01691e-10 -1.69796e-10 -3.98919e-10 6.86084e-10 0 0 4.76829e-10 -1.54904e-10 -3.90494e-10 6.9603e-10 0 0 2.92269e-10 -5.96219e-11 -2.92788e-10 5.51466e-10 0 0 4.25522e-11 7.06673e-11 -1.36183e-10 2.40727e-10 0 0 -1.60884e-10 1.5525e-10 1.75604e-11 -2.76498e-11 0 0 -2.1309e-10 1.42142e-10 1.65107e-10 -2.26303e-10 0 0 -1.70192e-10 1.39203e-11 2.83113e-10 -3.01369e-10 0 0 -7.67704e-11 -6.46397e-11 2.73973e-10 -2.86384e-10 0 0 -7.12667e-11 -3.31453e-11 1.50529e-10 -1.67864e-10 0 0 -9.0418e-11 6.73867e-11 -9.79857e-11 2.3768e-11 0 0 -7.88535e-11 5.98651e-11 -1.43736e-10 5.56347e-11 0 0 -2.17992e-11 -2.97754e-11 -9.23363e-11 1.42871e-11 0 0 -5.60527e-13 -8.76582e-11 -3.82147e-11 -3.74425e-11 0 0 -5.56121e-12 -8.20902e-11 -3.99048e-11 -4.22108e-11 0 0 -1.9912e-11 -5.08698e-11 -4.88113e-11 -3.39018e-11 0 0 -2.02999e-11 -2.4214e-11 -4.51075e-11 -2.39416e-11 0 0 -2.28196e-11 3.24836e-13 -5.3284e-11 -3.38219e-12 0 0 -2.1118e-11 1.07158e-11 -5.41702e-11 8.62354e-12 0 0 -8.40482e-12 8.55098e-12 -3.46194e-11 8.37015e-12 0 0 1.7386e-12 6.89652e-12 -9.89854e-12 7.10509e-12 0 0 7.82862e-12 7.42715e-12 7.85336e-12 5.20082e-12 0 0 9.96288e-12 1.26018e-11 1.57596e-11 6.62933e-12 0 0 1.11202e-11 1.74507e-11 1.84752e-11 9.72506e-12 0 0 1.15772e-11 1.89039e-11 1.90713e-11 1.15518e-11 0 0 1.11773e-11 1.80921e-11 1.84213e-11 1.14199e-11 0 0 9.49176e-12 1.53423e-11 1.56479e-11 1.00446e-11 0 0 7.1964e-12 1.16266e-11 1.18247e-11 7.74355e-12 0 0 4.74402e-12 7.62704e-12 7.89373e-12 5.0763e-12 0 0 2.64576e-12 4.07507e-12 4.52319e-12 2.71293e-12 0 0 1.15436e-12 1.78311e-12 2.13016e-12 1.14714e-12 0 0 2.70729e-13 6.82762e-13 5.89414e-13 5.57007e-13 0 0 -6.01002e-14 5.35988e-14 4.65004e-14 1.54066e-13 0 0 -1.51536e-13 -2.40014e-13 -4.91955e-14 -1.92719e-13 0 0 -1.88044e-13 -2.62716e-13 -1.57244e-13 -3.26691e-13 0 0 -1.92347e-13 -2.68976e-13 -1.88573e-13 -3.59928e-13 0 0 -1.47756e-13 -3.32702e-13 -1.63717e-13 -3.95075e-13 0 0 -2.34625e-13 -1.52159e-13 -3.59661e-13 -3.44821e-13 0 0 -2.84632e-13 -4.42533e-14 -4.74423e-13 -2.60611e-13 0 0 -1.81559e-13 -1.95604e-13 -3.53092e-13 -2.87905e-13 0 0 -1.50424e-13 -2.00245e-13 -3.41736e-13 -2.55338e-13 0 0 -1.77799e-13 -1.77149e-13 -2.71846e-13 -3.61728e-13 0 0 -2.34994e-13 -1.57855e-13 -2.3712e-13 -4.35079e-13 0 0 -2.31302e-13 -1.12645e-13 -3.13574e-13 -3.61367e-13 0 0 -1.47754e-13 -2.34777e-13 -1.43188e-13 -4.45591e-13 0 0 -1.89984e-13 -1.50273e-13 -2.04897e-13 -3.4716e-13 0 0 -2.36107e-13 2.03889e-14 -3.80657e-13 -1.59646e-13 0 0 -1.90101e-13 -5.42487e-15 -3.37542e-13 -1.24544e-13 0 0 -6.76359e-14 -2.24641e-13 -1.20293e-13 -2.17523e-13 0 0 -6.37569e-14 -2.24182e-13 -8.86655e-14 -2.48606e-13 0 0 -9.35072e-14 -1.67595e-13 -4.29414e-14 -3.2094e-13 0 0 -7.89692e-14 -2.22993e-13 8.28179e-14 -3.52767e-13 0 0 -1.91948e-13 -3.22834e-14 -2.34886e-13 -7.15734e-14 0 0 -1.97398e-13 -8.6935e-14 -1.66212e-13 -1.80591e-13 0 0 -6.88712e-14 -3.93109e-13 3.13125e-13 -5.54693e-13 0 0 -2.55123e-13 -8.16143e-14 -1.13466e-13 -1.70348e-13 0 0 -4.07245e-13 2.95805e-13 -8.00816e-13 4.23894e-13 0 0 -2.90123e-13 1.96275e-13 -8.38621e-13 5.00385e-13 0
				</DataArray>
				<DataArray Name="VitesseY" type="Float32" format="ascii">