<?xml version="1.0"?>
<VTKFile type="PolyData">
	<PolyData>
		<Piece NumberOfPoints="1206" NumberOfPolys="1000">
			<Points>
				<DataArray type="Float32" NumberOfComponents="3" format="ascii">
 0 0 0 0.02 0 0 0.04 0 0 0.06 0 0 0.08 0 0 0.1 0 0 0 0.005 0 0.02 0.005 0 0.04 0.005 0 0.06 0.005 0 0.08 0.005 0 0.1 0.005 0 0 0.01 0 0.02 0.01 0 0.04 0.01 0 0.06 0.01 0 0.08 0.01 0 0.1 0.01 0 0 0.015 0 0.02 0.015 0 0.04 0.015 0 0.06 0.015 0 0.08 0.015 0 0.1 0.015 0 0 0.02 0 0.02 0.02 0 0.04 0.02 0 0.06 0.02 0 0.08 0.02 0 0.1 0.02 0 0 0.025 0 0.02 0.025 0 0.04 0.025 0 0.06 0.025 0 0.08 0.025 0 0.1 0.025 0 0 0.03 0 0.02 0.03 0 0.04 0.03 0 0.06 0.03 0 0.08 0.03 0 0.1 0.03 0 0 0.035 0 0.02 0.035 0 0.04 0.035 0 0.06 0.035 0 0.08 0.035 0 0.1 0.035 0 0 0.04 0 0.02 0.04 0 0.04 0.04 0 0.06 0.04 0 0.08 0.04 0 0.1 0.04 0 0 0.045 0 0.02 0.045 0 0.04 0.045 0 0.06 0.045 0 0.08 0.045 0 0.1 0.045 0 0 0.05 0 0.02 0.05 0 0.04 0.05 0 0.06 0.05 0 0.08 0.05 0 0.1 0.05 0 0 0.055 0 0.02 0.055 0 0.04 0.055 0 0.06 0.055 0 0.08 0.055 0 0.1 0.055 0 0 0.06 0 0.02 0.06 0 0.04 0.06 0 0.06 0.06 0 0.08 0.06 0 0.1 0.06 0 0 0.065 0 0.02 0.065 0 0.04 0.065 0 0.06 0.065 0 0.08 0.065 0 0.1 0.065 0 0 0.07 0 0.02 0.07 0 0.04 0.07 0 0.06 0.07 0 0.08 0.07 0 0.1 0.07 0 0 0.075 0 0.02 0.075 0 0.04 0.075 0 0.06 0.075 0 0.08 0.075 0 0.1 0.075 0 0 0.08 0 0.02 0.08 0 0.04 0.08 0 0.06 0.08 0 0.08 0.08 0 0.1 0.08 0 0 0.085 0 0.02 0.085 0 0.04 0.085 0 0.06 0.085 0 0.08 0.085 0 0.1 0.085 0 0 0.09 0 0.02 0.09 0 0.04 0.09 0 0.06 0.09 0 0.08 0.09 0 0.1 0.09 0 0 0.095 0 0.02 0.095 0 0.04 0.095 0 0.06 0.095 0 0.08 0.095 0 0.1 0.095 0 0 0.1 0 0.02 0.1 0 0.04 0.1 0 0.06 0.1 0 0.08 0.1 0 0.1 0.1 0 0 0.105 0 0.02 0.105 0 0.04 0.105 0 0.06 0.105 0 0.08 0.105 0 0.1 0.105 0 0 0.11 0 0.02 0.11 0 0.04 0.11 0 0.06 0.11 0 0.08 0.11 0 0.1 0.11 0 0 0.115 0 0.02 0.115 0 0.04 0.115 0 0.06 0.115 0 0.08 0.115 0 0.1 0.115 0 0 0.12 0 0.02 0.12 0 0.04 0.12 0 0.06 0.12 0 0.08 0.12 0 0.1 0.12 0 0 0.125 0 0.02 0.125 0 0.04 0.125 0 0.06 0.125 0 0.08 0.125 0 0.1 0.125 0 0 0.13 0 0.02 0.13 0 0.04 0.13 0 0.06 0.13 0 0.08 0.13 0 0.1 0.13 0 0 0.135 0 0.02 0.135 0 0.04 0.135 0 0.06 0.135 0 0.08 0.135 0 0.1 0.135 0 0 0.14 0 0.02 0.14 0 0.04 0.14 0 0.06 0.14 0 0.08 0.14 0 0.1 0.14 0 0 0.145 0 0.02 0.145 0 0.04 0.145 0 0.06 0.145 0 0.08 0.145 0 0.1 0.145 0 0 0.15 0 0.02 0.15 0 0.04 0.15 0 0.06 0.15 0 0.08 0.15 0 0.1 0.15 0 0 0.155 0 0.02 0.155 0 0.04 0.155 0 0.06 0.155 0 0.08 0.155 0 0.1 0.155 0 0 0.16 0 0.02 0.16 0 0.04 0.16 0 0.06 0.16 0 0.08 0.16 0 0.1 0.16 0 0 0.165 0 0.02 0.165 0 0.04 0.165 0 0.06 0.165 0 0.08 0.165 0 0.1 0.165 0 0 0.17 0 0.02 0.17 0 0.04 0.17 0 0.06 0.17 0 0.08 0.17 0 0.1 0.17 0 0 0.175 0 0.02 0.175 0 0.04 0.175 0 0.06 0.175 0 0.08 0.175 0 0.1 0.175 0 0 0.18 0 0.02 0.18 0 0.04 0.18 0 0.06 0.18 0 0.08 0.18 0 0.1 0.18 0 0 0.185 0 0.02 0.185 0 0.04 0.185 0 0.06 0.185 0 0.08 0.185 0 0.1 0.185 0 0 0.19 0 0.02 0.19 0 0.04 0.19 0 0.06 0.19 0 0.08 0.19 0 0.1 0.19 0 0 0.195 0 0.02 0.195 0 0.04 0.195 0 0.06 0.195 0 0.08 0.195 0 0.1 0.195 0 0 0.2 0 0.02 0.2 0 0.04 0.2 0 0.06 0.2 0 0.08 0.2 0 0.1 0.2 0 0 0.205 0 0.02 0.205 0 0.04 0.205 0 0.06 0.205 0 0.08 0.205 0 0.1 0.205 0 0 0.21 0 0.02 0.21 0 0.04 0.21 0 0.06 0.21 0 0.08 0.21 0 0.1 0.21 0 0 0.215 0 0.02 0.215 0 0.04 0.215 0 0.06 0.215 0 0.08 0.215 0 0.1 0.215 0 0 0.22 0 0.02 0.22 0 0.04 0.22 0 0.06 0.22 0 0.08 0.22 0 0.1 0.22 0 0 0.225 0 0.02 0.225 0 0.04 0.225 0 0.06 0.225 0 0.08 0.225 0 0.1 0.225 0 0 0.23 0 0.02 0.23 0 0.04 0.23 0 0.06 0.23 0 0.08 0.23 0 0.1 0.23 0 0 0.235 0 0.02 0.235 0 0.04 0.235 0 0.06 0.235 0 0.08 0.235 0 0.1 0.235 0 0 0.24 0 0.02 0.24 0 0.04 0.24 0 0.06 0.24 0 0.08 0.24 0 0.1 0.24 0 0 0.245 0 0.02 0.245 0 0.04 0.245 0 0.06 0.245 0 0.08 0.245 0 0.1 0.245 0 0 0.25 0 0.02 0.25 0 0.04 0.25 0 0.06 0.25 0 0.08 0.25 0 0.1 0.25 0 0 0.255 0 0.02 0.255 0 0.04 0.255 0 0.06 0.255 0 0.08 0.255 0 0.1 0.255 0 0 0.26 0 0.02 0.26 0 0.04 0.26 0 0.06 0.26 0 0.08 0.26 0 0.1 0.26 0 0 0.265 0 0.02 0.265 0 0.04 0.265 0 0.06 0.265 0 0.08 0.265 0 0.1 0.265 0 0 0.27 0 0.02 0.27 0 0.04 0.27 0 0.06 0.27 0 0.08 0.27 0 0.1 0.27 0 0 0.275 0 0.02 0.275 0 0.04 0.275 0 0.06 0.275 0 0.08 0.275 0 0.1 0.275 0 0 0.28 0 0.02 0.28 0 0.04 0.28 0 0.06 0.28 0 0.08 0.28 0 0.1 0.28 0 0 0.285 0 0.02 0.285 0 0.04 0.285 0 0.06 0.285 0 0.08 0.285 0 0.1 0.285 0 0 0.29 0 0.02 0.29 0 0.04 0.29 0 0.06 0.29 0 0.08 0.29 0 0.1 0.29 0 0 0.295 0 0.02 0.295 0 0.04 0.295 0 0.06 0.295 0 0.08 0.295 0 0.1 0.295 0 0 0.3 0 0.02 0.3 0 0.04 0.3 0 0.06 0.3 0 0.08 0.3 0 0.1 0.3 0 0 0.305 0 0.02 0.305 0 0.04 0.305 0 0.06 0.305 0 0.08 0.305 0 0.1 0.305 0 0 0.31 0 0.02 0.31 0 0.04 0.31 0 0.06 0.31 0 0.08 0.31 0 0.1 0.31 0 0 0.315 0 0.02 0.315 0 0.04 0.315 0 0.06 0.315 0 0.08 0.315 0 0.1 0.315 0 0 0.32 0 0.02 0.32 0 0.04 0.32 0 0.06 0.32 0 0.08 0.32 0 0.1 0.32 0 0 0.325 0 0.02 0.325 0 0.04 0.325 0 0.06 0.325 0 0.08 0.325 0 0.1 0.325 0 0 0.33 0 0.02 0.33 0 0.04 0.33 0 0.06 0.33 0 0.08 0.33 0 0.1 0.33 0 0 0.335 0 0.02 0.335 0 0.04 0.335 0 0.06 0.335 0 0.08 0.335 0 0.1 0.335 0 0 0.34 0 0.02 0.34 0 0.04 0.34 0 0.06 0.34 0 0.08 0.34 0 0.1 0.34 0 0 0.345 0 0.02 0.345 0 0.04 0.345 0 0.06 0.345 0 0.08 0.345 0 0.1 0.345 0 0 0.35 0 0.02 0.35 0 0.04 0.35 0 0.06 0.35 0 0.08 0.35 0 0.1 0.35 0 0 0.355 0 0.02 0.355 0 0.04 0.355 0 0.06 0.355 0 0.08 0.355 0 0.1 0.355 0 0 0.36 0 0.02 0.36 0 0.04 0.36 0 0.06 0.36 0 0.08 0.36 0 0.1 0.36 0 0 0.365 0 0.02 0.365 0 0.04 0.365 0 0.06 0.365 0 0.08 0.365 0 0.1 0.365 0 0 0.37 0 0.02 0.37 0 0.04 0.37 0 0.06 0.37 0 0.08 0.37 0 0.1 0.37 0 0 0.375 0 0.02 0.375 0 0.04 0.375 0 0.06 0.375 0 0.08 0.375 0 0.1 0.375 0 0 0.38 0 0.02 0.38 0 0.04 0.38 0 0.06 0.38 0 0.08 0.38 0 0.1 0.38 0 0 0.385 0 0.02 0.385 0 0.04 0.385 0 0.06 0.385 0 0.08 0.385 0 0.1 0.385 0 0 0.39 0 0.02 0.39 0 0.04 0.39 0 0.06 0.39 0 0.08 0.39 0 0.1 0.39 0 0 0.395 0 0.02 0.395 0 0.04 0.395 0 0.06 0.395 0 0.08 0.395 0 0.1 0.395 0 0 0.4 0 0.02 0.4 0 0.04 0.4 0 0.06 0.4 0 0.08 0.4 0 0.1 0.4 0 0 0.405 0 0.02 0.405 0 0.04 0.405 0 0.06 0.405 0 0.08 0.405 0 0.1 0.405 0 0 0.41 0 0.02 0.41 0 0.04 0.41 0 0.06 0.41 0 0.08 0.41 0 0.1 0.41 0 0 0.415 0 0.02 0.415 0 0.04 0.415 0 0.06 0.415 0 0.08 0.415 0 0.1 0.415 0 0 0.42 0 0.02 0.42 0 0.04 0.42 0 0.06 0.42 0 0.08 0.42 0 0.1 0.42 0 0 0.425 0 0.02 0.425 0 0.04 0.425 0 0.06 0.425 0 0.08 0.425 0 0.1 0.425 0 0 0.43 0 0.02 0.43 0 0.04 0.43 0 0.06 0.43 0 0.08 0.43 0 0.1 0.43 0 0 0.435 0 0.02 0.435 0 0.04 0.435 0 0.06 0.435 0 0.08 0.435 0 0.1 0.435 0 0 0.44 0 0.02 0.44 0 0.04 0.44 0 0.06 0.44 0 0.08 0.44 0 0.1 0.44 0 0 0.445 0 0.02 0.445 0 0.04 0.445 0 0.06 0.445 0 0.08 0.445 0 0.1 0.445 0 0 0.45 0 0.02 0.45 0 0.04 0.45 0 0.06 0.45 0 0.08 0.45 0 0.1 0.45 0 0 0.455 0 0.02 0.455 0 0.04 0.455 0 0.06 0.455 0 0.08 0.455 0 0.1 0.455 0 0 0.46 0 0.02 0.46 0 0.04 0.46 0 0.06 0.46 0 0.08 0.46 0 0.1 0.46 0 0 0.465 0 0.02 0.465 0 0.04 0.465 0 0.06 0.465 0 0.08 0.465 0 0.1 0.465 0 0 0.47 0 0.02 0.47 0 0.04 0.47 0 0.06 0.47 0 0.08 0.47 0 0.1 0.47 0 0 0.475 0 0.02 0.475 0 0.04 0.475 0 0.06 0.475 0 0.08 0.475 0 0.1 0.475 0 0 0.48 0 0.02 0.48 0 0.04 0.48 0 0.06 0.48 0 0.08 0.48 0 0.1 0.48 0 0 0.485 0 0.02 0.485 0 0.04 0.485 0 0.06 0.485 0 0.08 0.485 0 0.1 0.485 0 0 0.49 0 0.02 0.49 0 0.04 0.49 0 0.06 0.49 0 0.08 0.49 0 0.1 0.49 0 0 0.495 0 0.02 0.495 0 0.04 0.495 0 0.06 0.495 0 0.08 0.495 0 0.1 0.495 0 0 0.5 0 0.02 0.5 0 0.04 0.5 0 0.06 0.5 0 0.08 0.5 0 0.1 0.5 0 0 0.505 0 0.02 0.505 0 0.04 0.505 0 0.06 0.505 0 0.08 0.505 0 0.1 0.505 0 0 0.51 0 0.02 0.51 0 0.04 0.51 0 0.06 0.51 0 0.08 0.51 0 0.1 0.51 0 0 0.515 0 0.02 0.515 0 0.04 0.515 0 0.06 0.515 0 0.08 0.515 0 0.1 0.515 0 0 0.52 0 0.02 0.52 0 0.04 0.52 0 0.06 0.52 0 0.08 0.52 0 0.1 0.52 0 0 0.525 0 0.02 0.525 0 0.04 0.525 0 0.06 0.525 0 0.08 0.525 0 0.1 0.525 0 0 0.53 0 0.02 0.53 0 0.04 0.53 0 0.06 0.53 0 0.08 0.53 0 0.1 0.53 0 0 0.535 0 0.02 0.535 0 0.04 0.535 0 0.06 0.535 0 0.08 0.535 0 0.1 0.535 0 0 0.54 0 0.02 0.54 0 0.04 0.54 0 0.06 0.54 0 0.08 0.54 0 0.1 0.54 0 0 0.545 0 0.02 0.545 0 0.04 0.545 0 0.06 0.545 0 0.08 0.545 0 0.1 0.545 0 0 0.55 0 0.02 0.55 0 0.04 0.55 0 0.06 0.55 0 0.08 0.55 0 0.1 0.55 0 0 0.555 0 0.02 0.555 0 0.04 0.555 0 0.06 0.555 0 0.08 0.555 0 0.1 0.555 0 0 0.56 0 0.02 0.56 0 0.04 0.56 0 0.06 0.56 0 0.08 0.56 0 0.1 0.56 0 0 0.565 0 0.02 0.565 0 0.04 0.565 0 0.06 0.565 0 0.08 0.565 0 0.1 0.565 0 0 0.57 0 0.02 0.57 0 0.04 0.57 0 0.06 0.57 0 0.08 0.57 0 0.1 0.57 0 0 0.575 0 0.02 0.575 0 0.04 0.575 0 0.06 0.575 0 0.08 0.575 0 0.1 0.575 0 0 0.58 0 0.02 0.58 0 0.04 0.58 0 0.06 0.58 0 0.08 0.58 0 0.1 0.58 0 0 0.585 0 0.02 0.585 0 0.04 0.585 0 0.06 0.585 0 0.08 0.585 0 0.1 0.585 0 0 0.59 0 0.02 0.59 0 0.04 0.59 0 0.06 0.59 0 0.08 0.59 0 0.1 0.59 0 0 0.595 0 0.02 0.595 0 0.04 0.595 0 0.06 0.595 0 0.08 0.595 0 0.1 0.595 0 0 0.6 0 0.02 0.6 0 0.04 0.6 0 0.06 0.6 0 0.08 0.6 0 0.1 0.6 0 0 0.605 0 0.02 0.605 0 0.04 0.605 0 0.06 0.605 0 0.08 0.605 0 0.1 0.605 0 0 0.61 0 0.02 0.61 0 0.04 0.61 0 0.06 0.61 0 0.08 0.61 0 0.1 0.61 0 0 0.615 0 0.02 0.615 0 0.04 0.615 0 0.06 0.615 0 0.08 0.615 0 0.1 0.615 0 0 0.62 0 0.02 0.62 0 0.04 0.62 0 0.06 0.62 0 0.08 0.62 0 0.1 0.62 0 0 0.625 0 0.02 0.625 0 0.04 0.625 0 0.06 0.625 0 0.08 0.625 0 0.1 0.625 0 0 0.63 0 0.02 0.63 0 0.04 0.63 0 0.06 0.63 0 0.08 0.63 0 0.1 0.63 0 0 0.635 0 0.02 0.635 0 0.04 0.635 0 0.06 0.635 0 0.08 0.635 0 0.1 0.635 0 0 0.64 0 0.02 0.64 0 0.04 0.64 0 0.06 0.64 0 0.08 0.64 0 0.1 0.64 0 0 0.645 0 0.02 0.645 0 0.04 0.645 0 0.06 0.645 0 0.08 0.645 0 0.1 0.645 0 0 0.65 0 0.02 0.65 0 0.04 0.65 0 0.06 0.65 0 0.08 0.65 0 0.1 0.65 0 0 0.655 0 0.02 0.655 0 0.04 0.655 0 0.06 0.655 0 0.08 0.655 0 0.1 0.655 0 0 0.66 0 0.02 0.66 0 0.04 0.66 0 0.06 0.66 0 0.08 0.66 0 0.1 0.66 0 0 0.665 0 0.02 0.665 0 0.04 0.665 0 0.06 0.665 0 0.08 0.665 0 0.1 0.665 0 0 0.67 0 0.02 0.67 0 0.04 0.67 0 0.06 0.67 0 0.08 0.67 0 0.1 0.67 0 0 0.675 0 0.02 0.675 0 0.04 0.675 0 0.06 0.675 0 0.08 0.675 0 0.1 0.675 0 0 0.68 0 0.02 0.68 0 0.04 0.68 0 0.06 0.68 0 0.08 0.68 0 0.1 0.68 0 0 0.685 0 0.02 0.685 0 0.04 0.685 0 0.06 0.685 0 0.08 0.685 0 0.1 0.685 0 0 0.69 0 0.02 0.69 0 0.04 0.69 0 0.06 0.69 0 0.08 0.69 0 0.1 
[...]
			<PointData Scalars="VitesseX">
				<DataArray Name="VitesseX" type="Float32" format="ascii">
 0 -2.14536e-14 -1.12632e-14 4.51052e-15 1.2869e-14 0 0 -2.3859e-14 -6.27e-15 -2.39846e-15 1.65865e-14 0 0 -1.63056e-14 -2.29996e-14 1.39003e-14 7.50596e-15 0 0 -3.47453e-14 1.452e-15 -1.27933e-14 2.78512e-14 0 0 -3.70359e-14 -2.0483e-16 -1.40966e-14 3.11426e-14 0 0 -2.26977e-15 -6.02686e-14 4.04419e-14 -5.21772e-15 0 0 -1.46523e-14 -4.13415e-14 2.86321e-15 2.88118e-14 0 0 -5.20397e-14 1.52442e-14 -7.23093e-14 9.29089e-14 0 0 -4.09377e-14 -2.13458e-14 -1.49928e-14 5.97182e-14 0 0 -6.65746e-14 -1.63953e-14 4.06273e-14 1.91956e-14 0 0 -1.27703e-13 5.41516e-14 1.83291e-14 2.93021e-14 0 0 -6.62029e-14 -5.29142e-14 1.3585e-13 -3.52278e-14 0 0 -1.03629e-13 3.59737e-14 3.11722e-14 4.04978e-14 0 0 -6.97214e-14 2.33585e-15 3.82549e-14 5.33402e-14 0 0 -4.70681e-15 -9.47279e-14 1.35304e-13 -2.33587e-14 0 0 -6.66064e-14 4.77523e-14 -4.91365e-14 7.37048e-14 0 0 5.73936e-15 -3.47122e-14 -3.83469e-14 1.00837e-13 0 0 -3.62934e-14 4.29666e-14 -1.2912e-13 1.49966e-13 0 0 -5.77104e-14 7.36686e-14 -1.52153e-13 1.16472e-13 0 0 -3.00271e-14 2.49964e-14 -1.08415e-13 5.90543e-14 0 0 -5.44654e-14 3.45214e-14 -1.30083e-13 7.30764e-14 0 0 -6.81997e-14 -5.49986e-15 -6.74317e-14 3.40253e-14 0 0 -7.67809e-14 -3.52892e-14 2.19374e-14 -7.26551e-14 0 0 -4.20552e-14 -9.39528e-14 1.24754e-13 -2.03845e-13 0 0 -9.92338e-14 -1.67702e-14 4.33392e-14 -1.78644e-13 0 0 -1.64879e-13 6.05671e-14 -1.07069e-13 -6.53365e-14 0 0 -1.04638e-13 -5.11181e-14 -3.52509e-14 -1.41665e-13 0 0 -7.32203e-14 -7.60094e-14 -1.19037e-14 -2.60177e-13 0 0 -1.00936e-13 1.17386e-14 -1.12751e-13 -2.30573e-13 0 0 -1.52588e-13 8.70071e-14 -2.02629e-13 -8.62203e-14 0 0 -5.14206e-14 -9.87241e-14 -3.58447e-14 -9.2509e-14 0 0 -3.55511e-14 -1.42634e-13 3.89415e-14 -9.51546e-14 0 0 -1.27424e-13 2.66742e-14 -1.27854e-13 5.61737e-14 0 0 3.67311e-14 -1.90002e-13 7.26371e-14 4.93667e-15 0 0 -8.97318e-14 -1.49372e-14 -1.38342e-14 1.15366e-13 0 0 -2.58015e-13 2.1785e-13 -1.91693e-13 2.68611e-13 0 0 -2.09778e-13 1.4501e-13 -8.9652e-14 1.32079e-13 0 0 -5.59152e-14 -1.10593e-13 2.27833e-13 -1.52188e-13 0 0 -4.11963e-14 -1.55025e-13 3.37918e-13 -2.79709e-13 0 0 -1.5619e-13 -1.62614e-14 2.55489e-13 -2.82794e-13 0 0 -1.28721e-13 -6.68551e-15 1.30982e-13 -1.59305e-13 0 0 -5.30664e-14 -5.69158e-14 4.43515e-14 -5.11859e-14 0 0 1.70441e-14 -1.8652e-13 1.04793e-13 -4.7392e-14 0 0 -4.60436e-14 -2.01601e-13 1.09519e-13 -8.7315e-15 0 0 -2.12298e-13 -8.88735e-14 1.17612e-13 -4.36955e-14 0 0 -1.85635e-13 -1.95396e-13 3.95228e-13 -3.16467e-13 0 0 -1.06554e-13 -2.26262e-13 4.05805e-13 -3.60778e-13 0 0 -8.65327e-14 -1.42487e-13 2.6496e-13 -2.99785e-13 0 0 -1.26821e-13 1.94878e-14 1.65328e-13 -3.45921e-13 0 0 -3.84128e-13 4.8689e-13 -1.43262e-13 -3.68268e-13 0 0 -4.24336e-13 6.03229e-13 -1.9493e-13 -4.07751e-13 0 0 -2.52614e-13 5.2364e-13 -3.10046e-13 -1.65274e-13 0 0 -4.97834e-15 3.16211e-13 -2.36314e-13 -1.14337e-13 0 0 1.05696e-13 1.2049e-14 2.05573e-13 -4.53452e-13 0 0 -2.3638e-13 3.06922e-13 -1.65679e-14 -3.75629e-13 0 0 -4.36661e-13 5.44021e-13 -3.40799e-13 -1.49267e-13 0 0 -1.30864e-13 1.70776e-14 9.84418e-14 -3.66612e-13 0 0 -5.93805e-14 -2.78131e-14 3.25084e-15 -2.788e-13 0 0 -1.55135e-13 1.59119e-13 -2.47368e-13 -1.25898e-13 0 0 -2.5304e-13 2.03528e-13 -2.17318e-13 -1.92518e-13 0 0 -3.23779e-13 2.01843e-13 -1.36725e-13 -3.04784e-13 0 0 -1.40781e-13 -4.67663e-14 6.23119e-14 -4.15376e-13 0 0 -2.15502e-14 -1.03471e-13 -1.105e-14 -2.51314e-13 0 0 -1.78348e-13 1.68806e-13 -3.10957e-13 6.43976e-14 0 0 -2.12073e-13 2.92011e-13 -4.59984e-13 2.87987e-13 0 0 -1.86159e-14 1.06786e-13 -3.78857e-13 3.2588e-13 0 0 1.95993e-14 -9.40587e-14 -7.66686e-14 1.33925e-13 0 0 -1.74801e-13 1.49859e-14 6.97063e-14 -4.86641e-14 0 0 -3.31609e-13 2.95325e-13 -1.53696e-13 -8.64189e-15 0 0 -1.82154e-13 7.32137e-14 6.55814e-14 -1.19628e-13 0 0 -1.2216e-13 -1.30885e-14 2.69959e-13 -2.52815e-13 0 0 -8.01216e-14 6.56502e-14 2.35502e-13 -3.95554e-13 0 0 -1.48948e-13 2.74954e-13 1.85884e-14 -3.98414e-13 0 0 -6.85936e-14 1.69878e-13 1.65298e-13 -5.07663e-13 0 0 -1.0613e-13 2.89977e-13 5.5609e-14 -3.22822e-13 0 0 -1.51761e-13 4.19999e-13 -8.40977e-14 -7.2323e-14 0 0 2.11102e-13 -1.19041e-14 2.01689e-13 -1.14839e-13 0 0 8.83554e-14 3.20001e-13 -2.27876e-13 1.35243e-13 0 0 -3.53042e-14 4.46468e-13 -1.05854e-13 -1.46692e-13 0 0 -1.07577e-13 6.734e-13 -3.74338e-13 1.14717e-13 0 0 2.66909e-13 8.43962e-14 -3.9392e-14 2.0971e-13 0 0 4.35698e-13 -6.06993e-13 8.56045e-13 -2.23486e-13 0 0 -3.47425e-13 4.00244e-13 1.04884e-13 3.03571e-13 0 0 -6.7808e-14 1.58853e-13 2.90698e-13 2.64624e-13 0 0 7.987e-13 -5.54277e-13 1.26767e-12 -6.22843e-16 0 0 7.71557e-13 1.76003e-12 1.37725e-12 1.48164e-12 0 0 3.00876e-12 6.82935e-12 5.82762e-12 4.12445e-12 0 0 1.25376e-11 1.95085e-11 1.94209e-11 1.10462e-11 0 0 3.38639e-11 5.00741e-11 4.64835e-11 2.71675e-11 0 0 7.13811e-11 1.04113e-10 9.25176e-11 5.06457e-11 0 0 1.2515e-10 1.79982e-10 1.4999e-10 7.62629e-11 0 0 1.8937e-10 2.65179e-10 2.02661e-10 9.33401e-11 0 0 2.49376e-10 3.39248e-10 2.36547e-10 8.38304e-11 0 0 2.914e-10 3.90613e-10 2.46029e-10 5.12706e-11 0 0 2.90976e-10 4.16926e-10 2.26926e-10 -1.28281e-11 0 0 2.34763e-10 4.20605e-10 1.87303e-10 -1.1052e-10 0 0 8.52124e-11 3.89843e-10 1.85409e-10 -2.61147e-10 0 0 -1.59039e-10 3.48245e-10 2.15787e-10 -5.42786e-10 0 0 -5.81052e-10 3.6826e-10 3.24035e-10 -8.54337e-10 0 0 -1.71759e-09 2.81234e-10 5.19301e-10 -1.10921e-09 0 0 -1.72469e-09 -2.11855e-10 1.04187e-09 -1.92062e-09 0 0 -8.54713e-10 -2.40434e-09 2.78285e-09 -2.62816e-09 0 0 3.16012e-09 -7.75433e-09 5.05079e-09 -2.79814e-09 0 0 4.74813e-09 -9.18087e-09 6.80539e-09 -3.92434e-09 0 0 2.86649e-09 -5.42541e-09 2.99228e-09 -1.36426e-09 0 0 -3.28155e-09 6.33413e-09 -9.42919e-09 6.63974e-09 0 0 -5.14891e-09 9.00793e-09 -1.18169e-08 7.84825e-09 0 0 -4.3216e-09 7.78823e-09 -1.1193e-08 7.67089e-09 0 0 -4.36191e-10 1.28597e-09 -5.54506e-09 4.60394e-09 0 0 2.77235e-09 -5.44349e-09 4.68229e-09 -3.20771e-09 0 0 2.69366e-09 -5.67382e-09 7.29319e-09 -5.94563e-09 0 0 1.31108e-09 -3.3955e-09 6.04937e-09 -5.13861e-09 0 0 -7.1436e-10 -5.19005e-10 4.22579e-09 -4.47466e-09 0 0 -1.2432e-09 4.10759e-10 2.41724e-09 -3.47003e-09 0 0 -1.26097e-09 9.07486e-10 4.7699e-10 -1.70434e-09 0 0 -9.77086e-10 9.41715e-10 -4.11308e-10 -2.94679e-10 0 0 -4.39665e-10 5.30579e-10 -3.62446e-10 -1.96631e-10 0 0 -1.441e-10 7.00193e-11 -1.65545e-10 -2.0324e-10 0 0 -6.82188e-11 -3.20848e-11 -8.82134e-11 -1.49532e-10 0 0 -3.4862e-11 -4.39916e-11 -6.78419e-11 -8.00195e-11 0 0 -1.90179e-11 -3.49824e-11 -4.62115e-11 -3.83958e-11 0 0 -1.01806e-11 -1.96265e-11 -2.45952e-11 -1.76327e-11 0 0 -4.63271e-12 -8.67845e-12 -1.01321e-11 -7.15069e-12 0 0 -1.75071e-12 -2.89519e-12 -3.53396e-12 -2.29142e-12 0 0 -4.36857e-13 -9.40167e-13 -8.34688e-13 -8.68497e-13 0 0 -1.17987e-13 -2.67293e-13 -1.13094e-13 -4.35212e-13 0 0 -1.67071e-13 6.43459e-14 -1.42763e-13 -1.03525e-13 0 0 -9.81232e-14 -1.9191e-14 4.16734e-15 -1.05299e-13 0 0 -1.15714e-13 4.41935e-14 -8.42079e-14 -4.43494e-14 0 0 8.234e-14 -2.3553e-13 1.07799e-13 -1.48479e-13 0 0 2.36086e-14 -1.53309e-13 2.12938e-14 -1.41243e-13 0 0 -1.7331e-13 1.53824e-13 -2.45134e-13 -4.05782e-14 0 0 -7.85709e-14 -2.52934e-14 -4.10572e-14 -2.11633e-13 0 0 -1.51466e-13 5.82738e-14 -1.83357e-13 -8.02354e-14 0 0 7.54851e-14 -3.31032e-13 5.69862e-14 -5.35831e-14 0 0 7.03223e-14 -3.75166e-13 -3.10494e-15 1.64866e-13 0 0 -1.6933e-13 -1.71162e-14 -3.23299e-13 3.45053e-13 0 0 -1.63727e-14 -2.92432e-13 8.84209e-14 -2.4664e-14 0 0 -3.39354e-13 1.16478e-13 -8.11086e-14 -5.7147e-14 0 0 -4.07288e-13 1.28644e-13 4.78978e-14 -1.6419e-13 0 0 -1.84376e-13 -2.89111e-13 5.09443e-13 -3.47275e-13 0 0 -3.7879e-13 4.48815e-14 1.82245e-13 -7.23751e-14 0 0 -2.56091e-13 -2.51505e-14 9.59408e-14 1.24158e-13 0 0 -1.61787e-13 -1.48369e-13 1.45103e-13 2.93751e-13 0 0 -1.96449e-13 -8.69982e-14 2.32885e-13 1.31114e-13 0 0 1.77998e-13 -5.41543e-13 7.99745e-13 -3.2304e-13 0 0 -1.27502e-13 2.65246e-14 3.95624e-13 1.97241e-14 0 0 -1.58536e-13 2.63547e-13 2.4554e-13 1.01851e-13 0 0 -8.70671e-15 1.14362e-13 5.51237e-13 -9.99731e-14 0 0 -5.58039e-15 -6.99878e-14 8.15019e-13 -8.60999e-14 0 0 1.45465e-13 -4.35507e-13 9.92821e-13 -1.67858e-13 0 0 -4.36271e-13 4.14074e-13 9.53809e-14 1.46587e-13 0 0 -3.63007e-13 3.36872e-13 1.16274e-13 -9.72995e-14 0 0 -1.05616e-13 1.68619e-13 8.53675e-15 4.25199e-14 0 0 1.45764e-14 4.14201e-14 -1.07476e-13 3.70731e-13 0 0 -4.08621e-14 -2.30097e-13 2.98928e-13 4.97711e-14 0 0 -3.37974e-13 -4.19392e-14 2.23788e-13 -2.03431e-14 0 0 -3.87363e-13 4.466e-14 1.52946e-13 -1.21024e-13 0 0 -2.92308e-13 -1.85481e-14 1.57935e-13 -2.38102e-13 0 0 1.78092e-13 -6.41851e-13 6.07808e-13 -5.13342e-13 0 0 -2.79623e-14 -3.98909e-13 3.42467e-13 -3.94861e-13 0 0 -5.95858e-13 3.09398e-13 -2.88101e-13 3.52433e-14 0 0 -5.13003e-13 1.28273e-13 -1.96507e-13 5.61299e-14 0 0 -2.61671e-13 -2.66603e-13 -4.76599e-14 2.97589e-13 0 0 1.20473e-13 -8.08926e-13 2.08386e-13 7.57061e-13 0 0 2.14793e-13 -9.06278e-13 1.45732e-13 9.46274e-13 0 0 -1.92803e-13 -2.30729e-13 -2.99869e-13 8.73829e-13 0 0 -4.52508e-13 1.17772e-13 -2.35256e-13 4.53766e-13 0 0 -6.08124e-13 4.22524e-13 -5.12842e-13 4.56484e-13 0 0 -4.29574e-13 1.46662e-13 -5.52714e-13 6.17792e-13 0 0 -1.06211e-13 -5.85292e-13 -5.36052e-14 4.45163e-13 0 0 -9.51249e-14 -5.3372e-13 -2.25929e-13 5.13609e-13 0 0 9.38217e-15 -5.75357e-13 -1.23571e-13 3.47948e-13 0 0 -2.85516e-13 -2.74481e-13 -8.52507e-14 1.28177e-13 0 0 -5.47789e-13 -3.02859e-14 -1.67275e-13 4.17867e-14 0 0 -3.61571e-13 -2.68201e-13 -1.90551e-13 3.53025e-14 0 0 -5.63621e-14 -4.75786e-13 -3.12423e-13 1.08981e-13 0 0 4.31408e-14 -6.38711e-13 -1.33053e-14 -2.08663e-13 0 0 -5.8047e-13 6.67126e-14 -3.95413e-13 2.15574e-14 0 0 -7.92871e-13 2.57263e-13 -3.20019e-13 2.35029e-14 0 0 -4.20557e-13 -1.57161e-13 -2.63215e-14 -2.03941e-13 0 0 -2.88172e-13 -1.19271e-13 -4.67921e-13 9.3746e-14 0 0 9.24597e-14 -5.81862e-13 -9.45538e-14 -1.68115e-13 0 0 -7.14241e-14 -2.89612e-13 -2.77835e-13 -1.56319e-13 0 0 -2.94448e-13 -1.5389e-13 -5.1621e-14 -3.32975e-13 0 0 -2.68343e-13 -3.88892e-13 6.16142e-13 -6.906e-13 0 0 -3.92137e-13 -1.60152e-13 4.42304e-13 -5.26763e-13 0 0 -1.38521e-13 -5.24665e-13 6.65619e-13 -6.88807e-13 0 0 -5.76547e-13 6.4274e-14 -4.94662e-14 -2.34804e-13 0 0 -7.3062e-13 4.0551e-13 -4.94284e-13 6.1447e-14 0 0 -1.4265e-13 -2.88031e-13 2.00493e-13 -4.09936e-13 0 0 -4.75364e-13 5.58571e-13 -7.27269e-13 2.09868e-13 0 0 -1.81776e-13 2.09966e-13 -4.32732e-13 3.25761e-14 0 0 7.037e-14 -3.88307e-13 2.8971e-13 -4.17735e-13 0 0 -2.67195e-13 7.69109e-15 1.35946e-13 -2.75687e-13 0 0 1.18665e-13 -6.1697e-13 8.1784e-13 -6.45795e-13 0 0 -1.23844e-13 -1.46662e-13 4.71992e-13 -6.02745e-13 0 0 7.34586e-14 -4.5152e-13 1.07687e-12 -1.29514e-12 0 0 -9.46114e-14 -1.49449e-13 8.44698e-13 -1.32644e-12 0 0 -2.11015e-13 3.86554e-13 -1.10055e-13 -6.29666e-13 0 0 4.22637e-13 -3.33535e-13 2.36291e-13 -7.07666e-13 0
				</DataArray>
				<DataArray Name="VitesseY" type="Float32" format="ascii">