<?xml version="1.0"?>
<VTKFile type="PolyData">
	<PolyData>
		<Piece NumberOfPoints="1206" NumberOfPolys="1000">
			<Points>
				<DataArray type="Float32" NumberOfComponents="3" format="ascii">
 0 0 0 0.02 0 0 0.04 0 0 0.06 0 0 0.08 0 0 0.1 0 0 0 0.005 0 0.02 0.005 0 0.04 0.005 0 0.06 0.005 0 0.08 0.005 0 0.1 0.005 0 0 0.01 0 0.02 0.01 0 0.04 0.01 0 0.06 0.01 0 0.08 0.01 0 0.1 0.01 0 0 0.015 0 0.02 0.015 0 0.04 0.015 0 0.06 0.015 0 0.08 0.015 0 0.1 0.015 0 0 0.02 0 0.02 0.02 0 0.04 0.02 0 0.06 0.02 0 0.08 0.02 0 0.1 0.02 0 0 0.025 0 0.02 0.025 0 0.04 0.025 0 0.06 0.025 0 0.08 0.025 0 0.1 0.025 0 0 0.03 0 0.02 0.03 0 0.04 0.03 0 0.06 0.03 0 0.08 0.03 0 0.1 0.03 0 0 0.035 0 0.02 0.035 0 0.04 0.035 0 0.06 0.035 0 0.08 0.035 0 0.1 0.035 0 0 0.04 0 0.02 0.04 0 0.04 0.04 0 0.06 0.04 0 0.08 0.04 0 0.1 0.04 0 0 0.045 0 0.02 0.045 0 0.04 0.045 0 0.06 0.045 0 0.08 0.045 0 0.1 0.045 0 0 0.05 0 0.02 0.05 0 0.04 0.05 0 0.06 0.05 0 0.08 0.05 0 0.1 0.05 0 0 0.055 0 0.02 0.055 0 0.04 0.055 0 0.06 0.055 0 0.08 0.055 0 0.1 0.055 0 0 0.06 0 0.02 0.06 0 0.04 0.06 0 0.06 0.06 0 0.08 0.06 0 0.1 0.06 0 0 0.065 0 0.02 0.065 0 0.04 0.065 0 0.06 0.065 0 0.08 0.065 0 0.1 0.065 0 0 0.07 0 0.02 0.07 0 0.04 0.07 0 0.06 0.07 0 0.08 0.07 0 0.1 0.07 0 0 0.075 0 0.02 0.075 0 0.04 0.075 0 0.06 0.075 0 0.08 0.075 0 0.1 0.075 0 0 0.08 0 0.02 0.08 0 0.04 0.08 0 0.06 0.08 0 0.08 0.08 0 0.1 0.08 0 0 0.085 0 0.02 0.085 0 0.04 0.085 0 0.06 0.085 0 0.08 0.085 0 0.1 0.085 0 0 0.09 0 0.02 0.09 0 0.04 0.09 0 0.06 0.09 0 0.08 0.09 0 0.1 0.09 0 0 0.095 0 0.02 0.095 0 0.04 0.095 0 0.06 0.095 0 0.08 0.095 0 0.1 0.095 0 0 0.1 0 0.02 0.1 0 0.04 0.1 0 0.06 0.1 0 0.08 0.1 0 0.1 0.1 0 0 0.105 0 0.02 0.105 0 0.04 0.105 0 0.06 0.105 0 0.08 0.105 0 0.1 0.105 0 0 0.11 0 0.02 0.11 0 0.04 0.11 0 0.06 0.11 0 0.08 0.11 0 0.1 0.11 0 0 0.115 0 0.02 0.115 0 0.04 0.115 0 0.06 0.115 0 0.08 0.115 0 0.1 0.115 0 0 0.12 0 0.02 0.12 0 0.04 0.12 0 0.06 0.12 0 0.08 0.12 0 0.1 0.12 0 0 0.125 0 0.02 0.125 0 0.04 0.125 0 0.06 0.125 0 0.08 0.125 0 0.1 0.125 0 0 0.13 0 0.02 0.13 0 0.04 0.13 0 0.06 0.13 0 0.08 0.13 0 0.1 0.13 0 0 0.135 0 0.02 0.135 0 0.04 0.135 0 0.06 0.135 0 0.08 0.135 0 0.1 0.135 0 0 0.14 0 0.02 0.14 0 0.04 0.14 0 0.06 0.14 0 0.08 0.14 0 0.1 0.14 0 0 0.145 0 0.02 0.145 0 0.04 0.145 0 0.06 0.145 0 0.08 0.145 0 0.1 0.145 0 0 0.15 0 0.02 0.15 0 0.04 0.15 0 0.06 0.15 0 0.08 0.15 0 0.1 0.15 0 0 0.155 0 0.02 0.155 0 0.04 0.155 0 0.06 0.155 0 0.08 0.155 0 0.1 0.155 0 0 0.16 0 0.02 0.16 0 0.04 0.16 0 0.06 0.16 0 0.08 0.16 0 0.1 0.16 0 0 0.165 0 0.02 0.165 0 0.04 0.165 0 0.06 0.165 0 0.08 0.165 0 0.1 0.165 0 0 0.17 0 0.02 0.17 0 0.04 0.17 0 0.06 0.17 0 0.08 0.17 0 0.1 0.17 0 0 0.175 0 0.02 0.175 0 0.04 0.175 0 0.06 0.175 0 0.08 0.175 0 0.1 0.175 0 0 0.18 0 0.02 0.18 0 0.04 0.18 0 0.06 0.18 0 0.08 0.18 0 0.1 0.18 0 0 0.185 0 0.02 0.185 0 0.04 0.185 0 0.06 0.185 0 0.08 0.185 0 0.1 0.185 0 0 0.19 0 0.02 0.19 0 0.04 0.19 0 0.06 0.19 0 0.08 0.19 0 0.1 0.19 0 0 0.195 0 0.02 0.195 0 0.04 0.195 0 0.06 0.195 0 0.08 0.195 0 0.1 0.195 0 0 0.2 0 0.02 0.2 0 0.04 0.2 0 0.06 0.2 0 0.08 0.2 0 0.1 0.2 0 0 0.205 0 0.02 0.205 0 0.04 0.205 0 0.06 0.205 0 0.08 0.205 0 0.1 0.205 0 0 0.21 0 0.02 0.21 0 0.04 0.21 0 0.06 0.21 0 0.08 0.21 0 0.1 0.21 0 0 0.215 0 0.02 0.215 0 0.04 0.215 0 0.06 0.215 0 0.08 0.215 0 0.1 0.215 0 0 0.22 0 0.02 0.22 0 0.04 0.22 0 0.06 0.22 0 0.08 0.22 0 0.1 0.22 0 0 0.225 0 0.02 0.225 0 0.04 0.225 0 0.06 0.225 0 0.08 0.225 0 0.1 0.225 0 0 0.23 0 0.02 0.23 0 0.04 0.23 0 0.06 0.23 0 0.08 0.23 0 0.1 0.23 0 0 0.235 0 0.02 0.235 0 0.04 0.235 0 0.06 0.235 0 0.08 0.235 0 0.1 0.235 0 0 0.24 0 0.02 0.24 0 0.04 0.24 0 0.06 0.24 0 0.08 0.24 0 0.1 0.24 0 0 0.245 0 0.02 0.245 0 0.04 0.245 0 0.06 0.245 0 0.08 0.245 0 0.1 0.245 0 0 0.25 0 0.02 0.25 0 0.04 0.25 0 0.06 0.25 0 0.08 0.25 0 0.1 0.25 0 0 0.255 0 0.02 0.255 0 0.04 0.255 0 0.06 0.255 0 0.08 0.255 0 0.1 0.255 0 0 0.26 0 0.02 0.26 0 0.04 0.26 0 0.06 0.26 0 0.08 0.26 0 0.1 0.26 0 0 0.265 0 0.02 0.265 0 0.04 0.265 0 0.06 0.265 0 0.08 0.265 0 0.1 0.265 0 0 0.27 0 0.02 0.27 0 0.04 0.27 0 0.06 0.27 0 0.08 0.27 0 0.1 0.27 0 0 0.275 0 0.02 0.275 0 0.04 0.275 0 0.06 0.275 0 0.08 0.275 0 0.1 0.275 0 0 0.28 0 0.02 0.28 0 0.04 0.28 0 0.06 0.28 0 0.08 0.28 0 0.1 0.28 0 0 0.285 0 0.02 0.285 0 0.04 0.285 0 0.06 0.285 0 0.08 0.285 0 0.1 0.285 0 0 0.29 0 0.02 0.29 0 0.04 0.29 0 0.06 0.29 0 0.08 0.29 0 0.1 0.29 0 0 0.295 0 0.02 0.295 0 0.04 0.295 0 0.06 0.295 0 0.08 0.295 0 0.1 0.295 0 0 0.3 0 0.02 0.3 0 0.04 0.3 0 0.06 0.3 0 0.08 0.3 0 0.1 0.3 0 0 0.305 0 0.02 0.305 0 0.04 0.305 0 0.06 0.305 0 0.08 0.305 0 0.1 0.305 0 0 0.31 0 0.02 0.31 0 0.04 0.31 0 0.06 0.31 0 0.08 0.31 0 0.1 0.31 0 0 0.315 0 0.02 0.315 0 0.04 0.315 0 0.06 0.315 0 0.08 0.315 0 0.1 0.315 0 0 0.32 0 0.02 0.32 0 0.04 0.32 0 0.06 0.32 0 0.08 0.32 0 0.1 0.32 0 0 0.325 0 0.02 0.325 0 0.04 0.325 0 0.06 0.325 0 0.08 0.325 0 0.1 0.325 0 0 0.33 0 0.02 0.33 0 0.04 0.33 0 0.06 0.33 0 0.08 0.33 0 0.1 0.33 0 0 0.335 0 0.02 0.335 0 0.04 0.335 0 0.06 0.335 0 0.08 0.335 0 0.1 0.335 0 0 0.34 0 0.02 0.34 0 0.04 0.34 0 0.06 0.34 0 0.08 0.34 0 0.1 0.34 0 0 0.345 0 0.02 0.345 0 0.04 0.345 0 0.06 0.345 0 0.08 0.345 0 0.1 0.345 0 0 0.35 0 0.02 0.35 0 0.04 0.35 0 0.06 0.35 0 0.08 0.35 0 0.1 0.35 0 0 0.355 0 0.02 0.355 0 0.04 0.355 0 0.06 0.355 0 0.08 0.355 0 0.1 0.355 0 0 0.36 0 0.02 0.36 0 0.04 0.36 0 0.06 0.36 0 0.08 0.36 0 0.1 0.36 0 0 0.365 0 0.02 0.365 0 0.04 0.365 0 0.06 0.365 0 0.08 0.365 0 0.1 0.365 0 0 0.37 0 0.02 0.37 0 0.04 0.37 0 0.06 0.37 0 0.08 0.37 0 0.1 0.37 0 0 0.375 0 0.02 0.375 0 0.04 0.375 0 0.06 0.375 0 0.08 0.375 0 0.1 0.375 0 0 0.38 0 0.02 0.38 0 0.04 0.38 0 0.06 0.38 0 0.08 0.38 0 0.1 0.38 0 0 0.385 0 0.02 0.385 0 0.04 0.385 0 0.06 0.385 0 0.08 0.385 0 0.1 0.385 0 0 0.39 0 0.02 0.39 0 0.04 0.39 0 0.06 0.39 0 0.08 0.39 0 0.1 0.39 0 0 0.395 0 0.02 0.395 0 0.04 0.395 0 0.06 0.395 0 0.08 0.395 0 0.1 0.395 0 0 0.4 0 0.02 0.4 0 0.04 0.4 0 0.06 0.4 0 0.08 0.4 0 0.1 0.4 0 0 0.405 0 0.02 0.405 0 0.04 0.405 0 0.06 0.405 0 0.08 0.405 0 0.1 0.405 0 0 0.41 0 0.02 0.41 0 0.04 0.41 0 0.06 0.41 0 0.08 0.41 0 0.1 0.41 0 0 0.415 0 0.02 0.415 0 0.04 0.415 0 0.06 0.415 0 0.08 0.415 0 0.1 0.415 0 0 0.42 0 0.02 0.42 0 0.04 0.42 0 0.06 0.42 0 0.08 0.42 0 0.1 0.42 0 0 0.425 0 0.02 0.425 0 0.04 0.425 0 0.06 0.425 0 0.08 0.425 0 0.1 0.425 0 0 0.43 0 0.02 0.43 0 0.04 0.43 0 0.06 0.43 0 0.08 0.43 0 0.1 0.43 0 0 0.435 0 0.02 0.435 0 0.04 0.435 0 0.06 0.435 0 0.08 0.435 0 0.1 0.435 0 0 0.44 0 0.02 0.44 0 0.04 0.44 0 0.06 0.44 0 0.08 0.44 0 0.1 0.44 0 0 0.445 0 0.02 0.445 0 0.04 0.445 0 0.06 0.445 0 0.08 0.445 0 0.1 0.445 0 0 0.45 0 0.02 0.45 0 0.04 0.45 0 0.06 0.45 0 0.08 0.45 0 0.1 0.45 0 0 0.455 0 0.02 0.455 0 0.04 0.455 0 0.06 0.455 0 0.08 0.455 0 0.1 0.455 0 0 0.46 0 0.02 0.46 0 0.04 0.46 0 0.06 0.46 0 0.08 0.46 0 0.1 0.46 0 0 0.465 0 0.02 0.465 0 0.04 0.465 0 0.06 0.465 0 0.08 0.465 0 0.1 0.465 0 0 0.47 0 0.02 0.47 0 0.04 0.47 0 0.06 0.47 0 0.08 0.47 0 0.1 0.47 0 0 0.475 0 0.02 0.475 0 0.04 0.475 0 0.06 0.475 0 0.08 0.475 0 0.1 0.475 0 0 0.48 0 0.02 0.48 0 0.04 0.48 0 0.06 0.48 0 0.08 0.48 0 0.1 0.48 0 0 0.485 0 0.02 0.485 0 0.04 0.485 0 0.06 0.485 0 0.08 0.485 0 0.1 0.485 0 0 0.49 0 0.02 0.49 0 0.04 0.49 0 0.06 0.49 0 0.08 0.49 0 0.1 0.49 0 0 0.495 0 0.02 0.495 0 0.04 0.495 0 0.06 0.495 0 0.08 0.495 0 0.1 0.495 0 0 0.5 0 0.02 0.5 0 0.04 0.5 0 0.06 0.5 0 0.08 0.5 0 0.1 0.5 0 0 0.505 0 0.02 0.505 0 0.04 0.505 0 0.06 0.505 0 0.08 0.505 0 0.1 0.505 0 0 0.51 0 0.02 0.51 0 0.04 0.51 0 0.06 0.51 0 0.08 0.51 0 0.1 0.51 0 0 0.515 0 0.02 0.515 0 0.04 0.515 0 0.06 0.515 0 0.08 0.515 0 0.1 0.515 0 0 0.52 0 0.02 0.52 0 0.04 0.52 0 0.06 0.52 0 0.08 0.52 0 0.1 0.52 0 0 0.525 0 0.02 0.525 0 0.04 0.525 0 0.06 0.525 0 0.08 0.525 0 0.1 0.525 0 0 0.53 0 0.02 0.53 0 0.04 0.53 0 0.06 0.53 0 0.08 0.53 0 0.1 0.53 0 0 0.535 0 0.02 0.535 0 0.04 0.535 0 0.06 0.535 0 0.08 0.535 0 0.1 0.535 0 0 0.54 0 0.02 0.54 0 0.04 0.54 0 0.06 0.54 0 0.08 0.54 0 0.1 0.54 0 0 0.545 0 0.02 0.545 0 0.04 0.545 0 0.06 0.545 0 0.08 0.545 0 0.1 0.545 0 0 0.55 0 0.02 0.55 0 0.04 0.55 0 0.06 0.55 0 0.08 0.55 0 0.1 0.55 0 0 0.555 0 0.02 0.555 0 0.04 0.555 0 0.06 0.555 0 0.08 0.555 0 0.1 0.555 0 0 0.56 0 0.02 0.56 0 0.04 0.56 0 0.06 0.56 0 0.08 0.56 0 0.1 0.56 0 0 0.565 0 0.02 0.565 0 0.04 0.565 0 0.06 0.565 0 0.08 0.565 0 0.1 0.565 0 0 0.57 0 0.02 0.57 0 0.04 0.57 0 0.06 0.57 0 0.08 0.57 0 0.1 0.57 0 0 0.575 0 0.02 0.575 0 0.04 0.575 0 0.06 0.575 0 0.08 0.575 0 0.1 0.575 0 0 0.58 0 0.02 0.58 0 0.04 0.58 0 0.06 0.58 0 0.08 0.58 0 0.1 0.58 0 0 0.585 0 0.02 0.585 0 0.04 0.585 0 0.06 0.585 0 0.08 0.585 0 0.1 0.585 0 0 0.59 0 0.02 0.59 0 0.04 0.59 0 0.06 0.59 0 0.08 0.59 0 0.1 0.59 0 0 0.595 0 0.02 0.595 0 0.04 0.595 0 0.06 0.595 0 0.08 0.595 0 0.1 0.595 0 0 0.6 0 0.02 0.6 0 0.04 0.6 0 0.06 0.6 0 0.08 0.6 0 0.1 0.6 0 0 0.605 0 0.02 0.605 0 0.04 0.605 0 0.06 0.605 0 0.08 0.605 0 0.1 0.605 0 0 0.61 0 0.02 0.61 0 0.04 0.61 0 0.06 0.61 0 0.08 0.61 0 0.1 0.61 0 0 0.615 0 0.02 0.615 0 0.04 0.615 0 0.06 0.615 0 0.08 0.615 0 0.1 0.615 0 0 0.62 0 0.02 0.62 0 0.04 0.62 0 0.06 0.62 0 0.08 0.62 0 0.1 0.62 0 0 0.625 0 0.02 0.625 0 0.04 0.625 0 0.06 0.625 0 0.08 0.625 0 0.1 0.625 0 0 0.63 0 0.02 0.63 0 0.04 0.63 0 0.06 0.63 0 0.08 0.63 0 0.1 0.63 0 0 0.635 0 0.02 0.635 0 0.04 0.635 0 0.06 0.635 0 0.08 0.635 0 0.1 0.635 0 0 0.64 0 0.02 0.64 0 0.04 0.64 0 0.06 0.64 0 0.08 0.64 0 0.1 0.64 0 0 0.645 0 0.02 0.645 0 0.04 0.645 0 0.06 0.645 0 0.08 0.645 0 0.1 0.645 0 0 0.65 0 0.02 0.65 0 0.04 0.65 0 0.06 0.65 0 0.08 0.65 0 0.1 0.65 0 0 0.655 0 0.02 0.655 0 0.04 0.655 0 0.06 0.655 0 0.08 0.655 0 0.1 0.655 0 0 0.66 0 0.02 0.66 0 0.04 0.66 0 0.06 0.66 0 0.08 0.66 0 0.1 0.66 0 0 0.665 0 0.02 0.665 0 0.04 0.665 0 0.06 0.665 0 0.08 0.665 0 0.1 0.665 0 0 0.67 0 0.02 0.67 0 0.04 0.67 0 0.06 0.67 0 0.08 0.67 0 0.1 0.67 0 0 0.675 0 0.02 0.675 0 0.04 0.675 0 0.06 0.675 0 0.08 0.675 0 0.1 0.675 0 0 0.68 0 0.02 0.68 0 0.04 0.68 0 0.06 0.68 0 0.08 0.68 0 0.1 0.68 0 0 0.685 0 0.02 0.685 0 0.04 0.685 0 0.06 0.685 0 0.08 0.685 0 0.1 0.685 0 0 0.69 0 0.02 0.69 0 0.04 0.69 0 0.06 0.69 0 0.08 0.69 0 0.1 
[...]
			<PointData Scalars="VitesseX">
				<DataArray Name="VitesseX" type="Float32" format="ascii">
 0 4.53014e-14 7.63261e-14 4.63632e-14 2.66572e-14 0 0 4.29788e-14 7.65796e-14 4.27634e-14 3.07822e-14 0 0 5.24253e-14 5.73941e-14 5.43156e-14 2.53104e-14 0 0 5.09645e-14 5.48019e-14 5.06992e-14 2.40365e-14 0 0 3.96946e-14 5.86806e-14 4.26547e-14 3.03497e-14 0 0 4.66823e-14 3.50965e-14 6.60427e-14 1.65824e-14 0 0 4.96034e-14 2.9718e-14 7.3332e-14 4.81822e-15 0 0 3.41864e-14 5.32579e-14 4.79177e-14 2.09538e-14 0 0 3.85176e-14 4.47436e-14 5.66506e-14 2.16912e-14 0 0 3.67173e-14 5.24056e-14 4.6091e-14 3.62331e-14 0 0 2.86496e-14 5.94981e-14 4.16315e-14 4.50769e-14 0 0 5.27218e-14 1.09344e-14 1.13059e-13 -1.20571e-14 0 0 3.76633e-14 4.03723e-14 1.01093e-13 -3.07856e-14 0 0 -7.10573e-15 1.27479e-13 6.61855e-15 2.76268e-14 0 0 4.51099e-15 1.28825e-13 -2.26275e-14 6.78242e-14 0 0 4.2802e-14 7.36391e-14 1.40412e-14 4.91766e-14 0 0 6.20651e-14 3.24571e-14 7.53549e-14 3.88187e-15 0 0 5.72358e-14 4.6866e-14 8.06381e-14 9.7086e-15 0 0 2.81449e-14 1.17465e-13 -8.18727e-15 1.05431e-13 0 0 2.06113e-14 1.37526e-13 -1.55144e-14 1.24515e-13 0 0 7.78926e-14 6.21713e-14 8.62362e-14 4.77216e-14 0 0 7.77399e-14 1.07853e-13 1.06572e-14 8.13844e-14 0 0 2.31545e-14 1.99254e-13 -8.22064e-14 1.11887e-13 0 0 -1.78024e-14 2.68132e-13 -1.37315e-13 1.23369e-13 0 0 2.29598e-14 1.82923e-13 -1.61766e-14 1.54643e-14 0 0 9.97924e-14 3.77355e-14 1.43371e-13 -9.3019e-14 0 0 1.14203e-13 5.67447e-14 9.78634e-14 -9.1503e-14 0 0 8.68535e-14 1.37902e-13 -3.46966e-14 -1.91328e-14 0 0 1.38853e-13 5.44547e-14 -2.41365e-14 4.40544e-14 0 0 1.60964e-13 1.06127e-14 -1.93075e-14 4.84979e-14 0 0 1.00722e-13 1.25102e-13 -1.64096e-13 1.08618e-13 0 0 1.53644e-13 1.63863e-14 -7.88067e-15 -1.71951e-14 0 0 1.11298e-13 6.43877e-14 2.50315e-14 -6.75559e-14 0 0 4.73952e-14 1.87015e-13 -5.11423e-14 8.19258e-15 0 0 9.81352e-14 1.04613e-13 7.12781e-14 -1.52704e-14 0 0 9.92175e-14 1.08458e-13 4.4836e-14 9.25321e-14 0 0 7.00222e-14 1.41013e-13 1.78475e-14 1.1461e-13 0 0 -3.15799e-15 2.38563e-13 -6.78e-14 1.8542e-13 0 0 3.21737e-14 1.97734e-13 -6.83569e-14 2.54332e-13 0 0 1.18605e-13 2.93494e-14 1.64699e-13 5.57449e-14 0 0 7.69415e-14 6.28956e-14 1.44243e-13 3.18724e-14 0 0 -6.31973e-14 2.69855e-13 -1.01534e-13 1.62084e-13 0 0 -7.39225e-14 2.25974e-13 -5.80759e-14 1.33189e-13 0 0 -6.0027e-14 1.3596e-13 5.88878e-14 6.05897e-14 0 0 -6.11831e-14 6.28235e-14 1.57376e-13 -2.26969e-14 0 0 6.43191e-14 -8.70702e-14 2.17227e-13 -6.87635e-14 0 0 1.0947e-13 -6.53196e-14 1.29317e-13 -3.00978e-14 0 0 -2.79155e-14 1.40259e-13 -8.19343e-15 6.10556e-14 0 0 -1.75755e-13 4.00219e-13 -1.29986e-13 6.12902e-14 0 0 -5.80448e-14 3.11189e-13 2.17276e-14 -7.22023e-14 0 0 1.56812e-15 2.60119e-13 9.82689e-14 -5.95033e-14 0 0 -5.77375e-14 2.6768e-13 1.70077e-13 -7.18611e-14 0 0 -1.09272e-14 9.2029e-14 4.09568e-13 -1.51916e-13 0 0 7.14533e-15 2.29232e-13 2.86169e-13 6.06111e-15 0 0 2.93177e-17 4.73422e-13 1.68435e-14 2.09484e-13 0 0 3.16838e-14 4.66229e-13 -3.20028e-14 2.7052e-13 0 0 7.26224e-14 2.98896e-13 7.66512e-14 2.40649e-13 0 0 1.9865e-14 1.47561e-13 2.70506e-13 1.82793e-13 0 0 -6.27237e-14 2.37578e-13 3.248e-13 2.41973e-13 0 0 8.33816e-14 2.44718e-13 4.73187e-13 2.64244e-13 0 0 2.43843e-13 4.16087e-13 6.57985e-13 3.79949e-13 0 0 4.84597e-13 9.46806e-13 1.03107e-12 7.64463e-13 0 0 1.1865e-12 1.95417e-12 2.1975e-12 1.40718e-12 0 0 2.46477e-12 4.33154e-12 4.39933e-12 2.70008e-12 0 0 4.91085e-12 8.45133e-12 8.31812e-12 5.01789e-12 0 0 8.84941e-12 1.46523e-11 1.4455e-11 8.69823e-12 0 0 1.41684e-11 2.30656e-11 2.27282e-11 1.38983e-11 0 0 2.05886e-11 3.30919e-11 3.28701e-11 2.02191e-11 0 0 2.75923e-11 4.40156e-11 4.39654e-11 2.70904e-11 0 0 3.43554e-11 5.50172e-11 5.49676e-11 3.37106e-11 0 0 4.043e-11 6.50879e-11 6.4534e-11 3.96706e-11 0 0 4.56141e-11 7.29197e-11 7.21766e-11 4.42668e-11 0 0 4.89331e-11 7.85737e-11 7.69431e-11 4.74319e-11 0 0 5.05242e-11 8.13884e-11 7.90162e-11 4.88918e-11 0 0 5.01806e-11 8.00757e-11 7.85431e-11 4.75626e-11 0 0 4.77108e-11 7.62606e-11 7.44199e-11 4.52407e-11 0 0 4.31782e-11 6.89095e-11 6.6828e-11 4.15749e-11 0 0 3.65232e-11 5.78503e-11 5.6935e-11 3.51503e-11 0 0 2.77971e-11 4.37107e-11 4.4021e-11 2.70013e-11 0 0 1.65134e-11 2.76546e-11 2.7739e-11 1.82667e-11 0 0 3.79336e-12 8.01802e-12 1.02302e-11 7.49542e-12 0 0 -1.08677e-11 -1.36163e-11 -9.6918e-12 -3.82207e-12 0 0 -2.68034e-11 -3.74754e-11 -3.08726e-11 -1.59216e-11 0 0 -4.44865e-11 -6.28117e-11 -5.45174e-11 -2.8242e-11 0 0 -6.22939e-11 -8.95571e-11 -7.77011e-11 -4.19478e-11 0 0 -8.16278e-11 -1.18785e-10 -1.02929e-10 -5.58947e-11 0 0 -1.00475e-10 -1.47481e-10 -1.28012e-10 -6.9912e-11 0 0 -1.20409e-10 -1.77425e-10 -1.5453e-10 -8.44421e-11 0 0 -1.40325e-10 -2.07259e-10 -1.8179e-10 -9.93606e-11 0 0 -1.59937e-10 -2.36892e-10 -2.08744e-10 -1.14169e-10 0 0 -1.79078e-10 -2.66131e-10 -2.36118e-10 -1.29832e-10 0 0 -1.97502e-10 -2.94719e-10 -2.63649e-10 -1.46252e-10 0 0 -2.14843e-10 -3.22442e-10 -2.91076e-10 -1.63757e-10 0 0 -2.30826e-10 -3.49126e-10 -3.18745e-10 -1.81186e-10 0 0 -2.45354e-10 -3.74485e-10 -3.45465e-10 -1.99189e-10 0 0 -2.59062e-10 -4.01052e-10 -3.75711e-10 -2.19558e-10 0 0 -2.48488e-10 -4.34515e-10 -4.11386e-10 -2.11648e-10 0 0 -1.08774e-10 -5.5888e-10 -5.38606e-10 -7.03669e-11 0 0 1.25723e-09 -1.39722e-09 -1.77057e-09 1.59251e-09 0 0 -1.71411e-09 2.27846e-10 2.58291e-10 -1.45176e-09 0 0 -1.06042e-08 4.90765e-09 7.35962e-09 -1.16587e-08 0 0 -8.0429e-09 3.48658e-09 5.98364e-09 -9.3998e-09 0 0 5.02864e-09 -3.27116e-09 -3.67414e-09 4.76264e-09 0 0 2.31542e-08 -1.33717e-08 -1.5683e-08 2.32746e-08 0 0 2.41042e-08 -1.42444e-08 -1.51038e-08 2.32505e-08 0 0 1.51624e-08 -9.81502e-09 -6.5201e-09 1.1908e-08 0 0 -3.93302e-09 2.12857e-09 3.53821e-09 -4.91274e-09 0 0 -1.16354e-08 8.73575e-09 5.21881e-09 -9.40155e-09 0 0 -1.17015e-08 8.9325e-09 4.15459e-09 -8.68605e-09 0 0 -1.03608e-08 8.09439e-09 3.56075e-09 -7.75644e-09 0 0 -8.85452e-09 4.83305e-09 6.66511e-09 -9.54543e-09 0 0 -6.03375e-09 1.5939e-09 6.78746e-09 -8.8278e-09 0 0 -1.386e-09 -3.28633e-10 2.93332e-09 -3.2237e-09 0 0 3.01451e-09 -1.64983e-09 -1.53338e-09 3.0911e-09 0 0 4.20586e-09 -1.70849e-09 -3.43768e-09 5.29767e-09 0 0 3.89303e-09 -1.30803e-09 -3.30324e-09 5.04736e-09 0 0 2.79354e-09 -1.1617e-09 -1.49442e-09 3.06371e-09 0 0 1.54029e-09 -1.06319e-09 5.57731e-10 4.6472e-10 0 0 5.69859e-10 -5.25558e-10 3.05759e-10 3.97617e-10 0 0 -2.01074e-10 -1.01093e-10 3.08079e-10 2.33781e-10 0 0 -4.59852e-10 -1.03424e-10 6.96179e-10 -5.26852e-10 0 0 -5.46587e-10 9.10237e-12 7.31026e-10 -7.79718e-10 0 0 -6.68018e-10 4.97187e-10 3.29799e-10 -5.86185e-10 0 0 -6.58913e-10 7.01272e-10 -1.9234e-10 -2.37603e-10 0 0 -4.48459e-10 4.84285e-10 -2.5958e-10 -6.25293e-11 0 0 -2.04678e-10 2.06178e-10 -4.50103e-10 3.33957e-10 0 0 3.39269e-10 1.73248e-11 -8.52021e-10 9.03609e-10 0 0 1.37765e-09 -1.46016e-09 6.03179e-10 1.25809e-11 0 0 1.60842e-09 -2.72428e-09 3.13834e-09 -2.25352e-09 0 0 9.44173e-10 -1.67066e-09 2.54413e-09 -2.00822e-09 0 0 -3.33595e-10 3.3999e-11 1.83641e-09 -1.7561e-09 0 0 -8.09016e-10 3.95871e-10 2.19655e-09 -2.44213e-09 0 0 -9.93273e-10 7.32328e-10 2.1152e-09 -2.51996e-09 0 0 -9.5582e-10 9.25252e-10 1.4962e-09 -2.06707e-09 0 0 -7.28148e-10 8.87646e-10 5.92019e-10 -1.15278e-09 0 0 -4.48362e-10 7.18225e-10 -1.68871e-10 -3.51591e-10 0 0 -4.82008e-11 3.75198e-10 -4.4033e-10 2.45161e-10 0 0 3.80348e-10 -3.17249e-11 -4.7431e-10 5.18087e-10 0 0 4.72749e-10 -1.74032e-10 -4.53371e-10 5.36061e-10 0 0 3.76306e-10 -1.33397e-10 -3.26038e-10 4.26336e-10 0 0 2.09641e-10 -3.33335e-11 -1.7748e-10 2.477e-10 0 0 9.58551e-11 4.11439e-11 -5.10644e-11 1.01414e-10 0 0 3.37657e-11 8.70639e-11 3.44863e-11 3.28571e-11 0 0 2.18489e-11 1.09418e-10 8.5431e-11 -3.13089e-12 0 0 1.95907e-11 1.21867e-10 1.09026e-10 -3.86924e-12 0 0 3.76916e-11 1.02751e-10 1.58394e-10 -1.93235e-11 0 0 6.21622e-11 9.18408e-11 1.6341e-10 -1.1002e-11 0 0 6.37068e-11 1.02828e-10 1.293e-10 4.41044e-11 0 0 6.82507e-11 1.03335e-10 1.14164e-10 7.14646e-11 0 0 6.61807e-11 1.0954e-10 9.64998e-11 9.08096e-11 0 0 6.69532e-11 1.02574e-10 1.0238e-10 8.79006e-11 0 0 6.28565e-11 9.59387e-11 1.03067e-10 7.7053e-11 0 0 5.52979e-11 8.89316e-11 9.66656e-11 6.47024e-11 0 0 4.72177e-11 7.74675e-11 8.15614e-11 5.35653e-11 0 0 3.78719e-11 6.24479e-11 6.48936e-11 4.17745e-11 0 0 2.78998e-11 4.58723e-11 4.72586e-11 2.97169e-11 0 0 1.83695e-11 3.0111e-11 3.04911e-11 1.9104e-11 0 0 1.05755e-11 1.73406e-11 1.71559e-11 1.08554e-11 0 0 5.26136e-12 8.52961e-12 8.46398e-12 5.20012e-12 0 0 2.21405e-12 3.75543e-12 3.58547e-12 2.21117e-12 0 0 8.46464e-13 1.54795e-12 1.35431e-12 9.67732e-13 0 0 3.16648e-13 6.72819e-13 5.17977e-13 4.76167e-13 0 0 8.80108e-14 3.94182e-13 2.75172e-13 2.50297e-13 0 0 8.53493e-14 1.78566e-13 3.15758e-13 1.30573e-13 0 0 1.2801e-13 5.49665e-14 3.93201e-13 2.45502e-14 0 0 1.03346e-13 1.11994e-13 3.05389e-13 2.41125e-14 0 0 8.29777e-14 1.64377e-13 3.03106e-13 -2.83235e-14 0 0 1.05663e-13 1.38161e-13 4.44545e-13 -1.41268e-13 0 0 1.18082e-13 1.55075e-13 4.02201e-13 -1.71169e-14 0 0 5.11957e-14 2.8017e-13 3.27934e-13 -2.73507e-14 0 0 1.10288e-13 2.04055e-13 4.27901e-13 -1.74908e-13 0 0 1.71566e-13 1.63235e-13 3.71869e-13 -5.8783e-14 0 0 1.66353e-13 1.6098e-13 3.15886e-13 1.18049e-13 0 0 1.52775e-13 1.14649e-13 3.23104e-13 1.92163e-13 0 0 9.79429e-14 1.93732e-13 1.56467e-13 2.23604e-13 0 0 2.45156e-13 -5.94312e-14 2.71484e-13 2.67185e-13 0 0 2.42738e-13 -9.30536e-14 2.30466e-13 4.17087e-13 0 0 1.12346e-13 1.0561e-13 4.64346e-15 5.6157e-13 0 0 1.57926e-13 2.84836e-14 1.15306e-13 5.30542e-13 0 0 2.34096e-13 -6.25321e-14 3.0246e-13 4.55676e-13 0 0 2.85511e-13 -1.66487e-13 6.43188e-13 1.68209e-13 0 0 7.41709e-14 1.27055e-13 5.82061e-13 1.05259e-13 0 0 6.65304e-15 2.6683e-13 4.56348e-13 1.52347e-13 0 0 1.34706e-13 1.29236e-13 4.87808e-13 1.92399e-13 0 0 -2.99637e-14 4.8746e-13 1.33413e-13 3.33073e-13 0 0 1.68983e-13 3.23235e-13 3.94225e-13 5.57803e-15 0 0 3.20564e-13 2.75122e-13 3.87093e-13 -8.02891e-14 0 0 2.57621e-13 3.88414e-13 1.57457e-13 9.22355e-14 0 0 2.60929e-13 2.78912e-13 3.40127e-13 -8.33423e-15 0 0 2.78304e-13 2.08581e-13 4.23216e-13 -1.5086e-13 0 0 3.31586e-13 1.12243e-13 3.51959e-13 -9.81301e-14 0 0 2.30523e-13 1.86194e-13 2.89949e-13 -6.17208e-14 0 0 2.32145e-13 1.88979e-13 1.28643e-13 1.77925e-13 0 0 3.29895e-13 8.91401e-14 5.00158e-14 2.6888e-13 0 0 3.69626e-13 4.74629e-14 9.49152e-14 7.74393e-14 0 0 3.04317e-13 2.32904e-14 1.61869e-15 2.30072e-13 0 0 3.22386e-13 -3.41666e-13 2.14404e-13 3.39586e-13 0 0 2.94828e-13 -4.21628e-13 3.55059e-13 1.62976e-13 0 0 1.41176e-13 -8.66872e-14 -3.44632e-14 2.84117e-13 0 0 1.38464e-13 2.78859e-14 -4.45665e-13 6.26442e-13 0 0 2.17774e-13 -5.02665e-14 -4.60804e-13 6.86435e-13 0
				</DataArray>
				<DataArray Name="VitesseY" type="Float32" format="ascii">