<?xml version="1.0"?>
<VTKFile type="PolyData">
	<PolyData>
		<Piece NumberOfPoints="1206" NumberOfPolys="1000">
			<Points>
				<DataArray type="Float32" NumberOfComponents="3" format="ascii">
 0 0 0 0.02 0 0 0.04 0 0 0.06 0 0 0.08 0 0 0.1 0 0 0 0.005 0 0.02 0.005 0 0.04 0.005 0 0.06 0.005 0 0.08 0.005 0 0.1 0.005 0 0 0.01 0 0.02 0.01 0 0.04 0.01 0 0.06 0.01 0 0.08 0.01 0 0.1 0.01 0 0 0.015 0 0.02 0.015 0 0.04 0.015 0 0.06 0.015 0 0.08 0.015 0 0.1 0.015 0 0 0.02 0 0.02 0.02 0 0.04 0.02 0 0.06 0.02 0 0.08 0.02 0 0.1 0.02 0 0 0.025 0 0.02 0.025 0 0.04 0.025 0 0.06 0.025 0 0.08 0.025 0 0.1 0.025 0 0 0.03 0 0.02 0.03 0 0.04 0.03 0 0.06 0.03 0 0.08 0.03 0 0.1 0.03 0 0 0.035 0 0.02 0.035 0 0.04 0.035 0 0.06 0.035 0 0.08 0.035 0 0.1 0.035 0 0 0.04 0 0.02 0.04 0 0.04 0.04 0 0.06 0.04 0 0.08 0.04 0 0.1 0.04 0 0 0.045 0 0.02 0.045 0 0.04 0.045 0 0.06 0.045 0 0.08 0.045 0 0.1 0.045 0 0 0.05 0 0.02 0.05 0 0.04 0.05 0 0.06 0.05 0 0.08 0.05 0 0.1 0.05 0 0 0.055 0 0.02 0.055 0 0.04 0.055 0 0.06 0.055 0 0.08 0.055 0 0.1 0.055 0 0 0.06 0 0.02 0.06 0 0.04 0.06 0 0.06 0.06 0 0.08 0.06 0 0.1 0.06 0 0 0.065 0 0.02 0.065 0 0.04 0.065 0 0.06 0.065 0 0.08 0.065 0 0.1 0.065 0 0 0.07 0 0.02 0.07 0 0.04 0.07 0 0.06 0.07 0 0.08 0.07 0 0.1 0.07 0 0 0.075 0 0.02 0.075 0 0.04 0.075 0 0.06 0.075 0 0.08 0.075 0 0.1 0.075 0 0 0.08 0 0.02 0.08 0 0.04 0.08 0 0.06 0.08 0 0.08 0.08 0 0.1 0.08 0 0 0.085 0 0.02 0.085 0 0.04 0.085 0 0.06 0.085 0 0.08 0.085 0 0.1 0.085 0 0 0.09 0 0.02 0.09 0 0.04 0.09 0 0.06 0.09 0 0.08 0.09 0 0.1 0.09 0 0 0.095 0 0.02 0.095 0 0.04 0.095 0 0.06 0.095 0 0.08 0.095 0 0.1 0.095 0 0 0.1 0 0.02 0.1 0 0.04 0.1 0 0.06 0.1 0 0.08 0.1 0 0.1 0.1 0 0 0.105 0 0.02 0.105 0 0.04 0.105 0 0.06 0.105 0 0.08 0.105 0 0.1 0.105 0 0 0.11 0 0.02 0.11 0 0.04 0.11 0 0.06 0.11 0 0.08 0.11 0 0.1 0.11 0 0 0.115 0 0.02 0.115 0 0.04 0.115 0 0.06 0.115 0 0.08 0.115 0 0.1 0.115 0 0 0.12 0 0.02 0.12 0 0.04 0.12 0 0.06 0.12 0 0.08 0.12 0 0.1 0.12 0 0 0.125 0 0.02 0.125 0 0.04 0.125 0 0.06 0.125 0 0.08 0.125 0 0.1 0.125 0 0 0.13 0 0.02 0.13 0 0.04 0.13 0 0.06 0.13 0 0.08 0.13 0 0.1 0.13 0 0 0.135 0 0.02 0.135 0 0.04 0.135 0 0.06 0.135 0 0.08 0.135 0 0.1 0.135 0 0 0.14 0 0.02 0.14 0 0.04 0.14 0 0.06 0.14 0 0.08 0.14 0 0.1 0.14 0 0 0.145 0 0.02 0.145 0 0.04 0.145 0 0.06 0.145 0 0.08 0.145 0 0.1 0.145 0 0 0.15 0 0.02 0.15 0 0.04 0.15 0 0.06 0.15 0 0.08 0.15 0 0.1 0.15 0 0 0.155 0 0.02 0.155 0 0.04 0.155 0 0.06 0.155 0 0.08 0.155 0 0.1 0.155 0 0 0.16 0 0.02 0.16 0 0.04 0.16 0 0.06 0.16 0 0.08 0.16 0 0.1 0.16 0 0 0.165 0 0.02 0.165 0 0.04 0.165 0 0.06 0.165 0 0.08 0.165 0 0.1 0.165 0 0 0.17 0 0.02 0.17 0 0.04 0.17 0 0.06 0.17 0 0.08 0.17 0 0.1 0.17 0 0 0.175 0 0.02 0.175 0 0.04 0.175 0 0.06 0.175 0 0.08 0.175 0 0.1 0.175 0 0 0.18 0 0.02 0.18 0 0.04 0.18 0 0.06 0.18 0 0.08 0.18 0 0.1 0.18 0 0 0.185 0 0.02 0.185 0 0.04 0.185 0 0.06 0.185 0 0.08 0.185 0 0.1 0.185 0 0 0.19 0 0.02 0.19 0 0.04 0.19 0 0.06 0.19 0 0.08 0.19 0 0.1 0.19 0 0 0.195 0 0.02 0.195 0 0.04 0.195 0 0.06 0.195 0 0.08 0.195 0 0.1 0.195 0 0 0.2 0 0.02 0.2 0 0.04 0.2 0 0.06 0.2 0 0.08 0.2 0 0.1 0.2 0 0 0.205 0 0.02 0.205 0 0.04 0.205 0 0.06 0.205 0 0.08 0.205 0 0.1 0.205 0 0 0.21 0 0.02 0.21 0 0.04 0.21 0 0.06 0.21 0 0.08 0.21 0 0.1 0.21 0 0 0.215 0 0.02 0.215 0 0.04 0.215 0 0.06 0.215 0 0.08 0.215 0 0.1 0.215 0 0 0.22 0 0.02 0.22 0 0.04 0.22 0 0.06 0.22 0 0.08 0.22 0 0.1 0.22 0 0 0.225 0 0.02 0.225 0 0.04 0.225 0 0.06 0.225 0 0.08 0.225 0 0.1 0.225 0 0 0.23 0 0.02 0.23 0 0.04 0.23 0 0.06 0.23 0 0.08 0.23 0 0.1 0.23 0 0 0.235 0 0.02 0.235 0 0.04 0.235 0 0.06 0.235 0 0.08 0.235 0 0.1 0.235 0 0 0.24 0 0.02 0.24 0 0.04 0.24 0 0.06 0.24 0 0.08 0.24 0 0.1 0.24 0 0 0.245 0 0.02 0.245 0 0.04 0.245 0 0.06 0.245 0 0.08 0.245 0 0.1 0.245 0 0 0.25 0 0.02 0.25 0 0.04 0.25 0 0.06 0.25 0 0.08 0.25 0 0.1 0.25 0 0 0.255 0 0.02 0.255 0 0.04 0.255 0 0.06 0.255 0 0.08 0.255 0 0.1 0.255 0 0 0.26 0 0.02 0.26 0 0.04 0.26 0 0.06 0.26 0 0.08 0.26 0 0.1 0.26 0 0 0.265 0 0.02 0.265 0 0.04 0.265 0 0.06 0.265 0 0.08 0.265 0 0.1 0.265 0 0 0.27 0 0.02 0.27 0 0.04 0.27 0 0.06 0.27 0 0.08 0.27 0 0.1 0.27 0 0 0.275 0 0.02 0.275 0 0.04 0.275 0 0.06 0.275 0 0.08 0.275 0 0.1 0.275 0 0 0.28 0 0.02 0.28 0 0.04 0.28 0 0.06 0.28 0 0.08 0.28 0 0.1 0.28 0 0 0.285 0 0.02 0.285 0 0.04 0.285 0 0.06 0.285 0 0.08 0.285 0 0.1 0.285 0 0 0.29 0 0.02 0.29 0 0.04 0.29 0 0.06 0.29 0 0.08 0.29 0 0.1 0.29 0 0 0.295 0 0.02 0.295 0 0.04 0.295 0 0.06 0.295 0 0.08 0.295 0 0.1 0.295 0 0 0.3 0 0.02 0.3 0 0.04 0.3 0 0.06 0.3 0 0.08 0.3 0 0.1 0.3 0 0 0.305 0 0.02 0.305 0 0.04 0.305 0 0.06 0.305 0 0.08 0.305 0 0.1 0.305 0 0 0.31 0 0.02 0.31 0 0.04 0.31 0 0.06 0.31 0 0.08 0.31 0 0.1 0.31 0 0 0.315 0 0.02 0.315 0 0.04 0.315 0 0.06 0.315 0 0.08 0.315 0 0.1 0.315 0 0 0.32 0 0.02 0.32 0 0.04 0.32 0 0.06 0.32 0 0.08 0.32 0 0.1 0.32 0 0 0.325 0 0.02 0.325 0 0.04 0.325 0 0.06 0.325 0 0.08 0.325 0 0.1 0.325 0 0 0.33 0 0.02 0.33 0 0.04 0.33 0 0.06 0.33 0 0.08 0.33 0 0.1 0.33 0 0 0.335 0 0.02 0.335 0 0.04 0.335 0 0.06 0.335 0 0.08 0.335 0 0.1 0.335 0 0 0.34 0 0.02 0.34 0 0.04 0.34 0 0.06 0.34 0 0.08 0.34 0 0.1 0.34 0 0 0.345 0 0.02 0.345 0 0.04 0.345 0 0.06 0.345 0 0.08 0.345 0 0.1 0.345 0 0 0.35 0 0.02 0.35 0 0.04 0.35 0 0.06 0.35 0 0.08 0.35 0 0.1 0.35 0 0 0.355 0 0.02 0.355 0 0.04 0.355 0 0.06 0.355 0 0.08 0.355 0 0.1 0.355 0 0 0.36 0 0.02 0.36 0 0.04 0.36 0 0.06 0.36 0 0.08 0.36 0 0.1 0.36 0 0 0.365 0 0.02 0.365 0 0.04 0.365 0 0.06 0.365 0 0.08 0.365 0 0.1 0.365 0 0 0.37 0 0.02 0.37 0 0.04 0.37 0 0.06 0.37 0 0.08 0.37 0 0.1 0.37 0 0 0.375 0 0.02 0.375 0 0.04 0.375 0 0.06 0.375 0 0.08 0.375 0 0.1 0.375 0 0 0.38 0 0.02 0.38 0 0.04 0.38 0 0.06 0.38 0 0.08 0.38 0 0.1 0.38 0 0 0.385 0 0.02 0.385 0 0.04 0.385 0 0.06 0.385 0 0.08 0.385 0 0.1 0.385 0 0 0.39 0 0.02 0.39 0 0.04 0.39 0 0.06 0.39 0 0.08 0.39 0 0.1 0.39 0 0 0.395 0 0.02 0.395 0 0.04 0.395 0 0.06 0.395 0 0.08 0.395 0 0.1 0.395 0 0 0.4 0 0.02 0.4 0 0.04 0.4 0 0.06 0.4 0 0.08 0.4 0 0.1 0.4 0 0 0.405 0 0.02 0.405 0 0.04 0.405 0 0.06 0.405 0 0.08 0.405 0 0.1 0.405 0 0 0.41 0 0.02 0.41 0 0.04 0.41 0 0.06 0.41 0 0.08 0.41 0 0.1 0.41 0 0 0.415 0 0.02 0.415 0 0.04 0.415 0 0.06 0.415 0 0.08 0.415 0 0.1 0.415 0 0 0.42 0 0.02 0.42 0 0.04 0.42 0 0.06 0.42 0 0.08 0.42 0 0.1 0.42 0 0 0.425 0 0.02 0.425 0 0.04 0.425 0 0.06 0.425 0 0.08 0.425 0 0.1 0.425 0 0 0.43 0 0.02 0.43 0 0.04 0.43 0 0.06 0.43 0 0.08 0.43 0 0.1 0.43 0 0 0.435 0 0.02 0.435 0 0.04 0.435 0 0.06 0.435 0 0.08 0.435 0 0.1 0.435 0 0 0.44 0 0.02 0.44 0 0.04 0.44 0 0.06 0.44 0 0.08 0.44 0 0.1 0.44 0 0 0.445 0 0.02 0.445 0 0.04 0.445 0 0.06 0.445 0 0.08 0.445 0 0.1 0.445 0 0 0.45 0 0.02 0.45 0 0.04 0.45 0 0.06 0.45 0 0.08 0.45 0 0.1 0.45 0 0 0.455 0 0.02 0.455 0 0.04 0.455 0 0.06 0.455 0 0.08 0.455 0 0.1 0.455 0 0 0.46 0 0.02 0.46 0 0.04 0.46 0 0.06 0.46 0 0.08 0.46 0 0.1 0.46 0 0 0.465 0 0.02 0.465 0 0.04 0.465 0 0.06 0.465 0 0.08 0.465 0 0.1 0.465 0 0 0.47 0 0.02 0.47 0 0.04 0.47 0 0.06 0.47 0 0.08 0.47 0 0.1 0.47 0 0 0.475 0 0.02 0.475 0 0.04 0.475 0 0.06 0.475 0 0.08 0.475 0 0.1 0.475 0 0 0.48 0 0.02 0.48 0 0.04 0.48 0 0.06 0.48 0 0.08 0.48 0 0.1 0.48 0 0 0.485 0 0.02 0.485 0 0.04 0.485 0 0.06 0.485 0 0.08 0.485 0 0.1 0.485 0 0 0.49 0 0.02 0.49 0 0.04 0.49 0 0.06 0.49 0 0.08 0.49 0 0.1 0.49 0 0 0.495 0 0.02 0.495 0 0.04 0.495 0 0.06 0.495 0 0.08 0.495 0 0.1 0.495 0 0 0.5 0 0.02 0.5 0 0.04 0.5 0 0.06 0.5 0 0.08 0.5 0 0.1 0.5 0 0 0.505 0 0.02 0.505 0 0.04 0.505 0 0.06 0.505 0 0.08 0.505 0 0.1 0.505 0 0 0.51 0 0.02 0.51 0 0.04 0.51 0 0.06 0.51 0 0.08 0.51 0 0.1 0.51 0 0 0.515 0 0.02 0.515 0 0.04 0.515 0 0.06 0.515 0 0.08 0.515 0 0.1 0.515 0 0 0.52 0 0.02 0.52 0 0.04 0.52 0 0.06 0.52 0 0.08 0.52 0 0.1 0.52 0 0 0.525 0 0.02 0.525 0 0.04 0.525 0 0.06 0.525 0 0.08 0.525 0 0.1 0.525 0 0 0.53 0 0.02 0.53 0 0.04 0.53 0 0.06 0.53 0 0.08 0.53 0 0.1 0.53 0 0 0.535 0 0.02 0.535 0 0.04 0.535 0 0.06 0.535 0 0.08 0.535 0 0.1 0.535 0 0 0.54 0 0.02 0.54 0 0.04 0.54 0 0.06 0.54 0 0.08 0.54 0 0.1 0.54 0 0 0.545 0 0.02 0.545 0 0.04 0.545 0 0.06 0.545 0 0.08 0.545 0 0.1 0.545 0 0 0.55 0 0.02 0.55 0 0.04 0.55 0 0.06 0.55 0 0.08 0.55 0 0.1 0.55 0 0 0.555 0 0.02 0.555 0 0.04 0.555 0 0.06 0.555 0 0.08 0.555 0 0.1 0.555 0 0 0.56 0 0.02 0.56 0 0.04 0.56 0 0.06 0.56 0 0.08 0.56 0 0.1 0.56 0 0 0.565 0 0.02 0.565 0 0.04 0.565 0 0.06 0.565 0 0.08 0.565 0 0.1 0.565 0 0 0.57 0 0.02 0.57 0 0.04 0.57 0 0.06 0.57 0 0.08 0.57 0 0.1 0.57 0 0 0.575 0 0.02 0.575 0 0.04 0.575 0 0.06 0.575 0 0.08 0.575 0 0.1 0.575 0 0 0.58 0 0.02 0.58 0 0.04 0.58 0 0.06 0.58 0 0.08 0.58 0 0.1 0.58 0 0 0.585 0 0.02 0.585 0 0.04 0.585 0 0.06 0.585 0 0.08 0.585 0 0.1 0.585 0 0 0.59 0 0.02 0.59 0 0.04 0.59 0 0.06 0.59 0 0.08 0.59 0 0.1 0.59 0 0 0.595 0 0.02 0.595 0 0.04 0.595 0 0.06 0.595 0 0.08 0.595 0 0.1 0.595 0 0 0.6 0 0.02 0.6 0 0.04 0.6 0 0.06 0.6 0 0.08 0.6 0 0.1 0.6 0 0 0.605 0 0.02 0.605 0 0.04 0.605 0 0.06 0.605 0 0.08 0.605 0 0.1 0.605 0 0 0.61 0 0.02 0.61 0 0.04 0.61 0 0.06 0.61 0 0.08 0.61 0 0.1 0.61 0 0 0.615 0 0.02 0.615 0 0.04 0.615 0 0.06 0.615 0 0.08 0.615 0 0.1 0.615 0 0 0.62 0 0.02 0.62 0 0.04 0.62 0 0.06 0.62 0 0.08 0.62 0 0.1 0.62 0 0 0.625 0 0.02 0.625 0 0.04 0.625 0 0.06 0.625 0 0.08 0.625 0 0.1 0.625 0 0 0.63 0 0.02 0.63 0 0.04 0.63 0 0.06 0.63 0 0.08 0.63 0 0.1 0.63 0 0 0.635 0 0.02 0.635 0 0.04 0.635 0 0.06 0.635 0 0.08 0.635 0 0.1 0.635 0 0 0.64 0 0.02 0.64 0 0.04 0.64 0 0.06 0.64 0 0.08 0.64 0 0.1 0.64 0 0 0.645 0 0.02 0.645 0 0.04 0.645 0 0.06 0.645 0 0.08 0.645 0 0.1 0.645 0 0 0.65 0 0.02 0.65 0 0.04 0.65 0 0.06 0.65 0 0.08 0.65 0 0.1 0.65 0 0 0.655 0 0.02 0.655 0 0.04 0.655 0 0.06 0.655 0 0.08 0.655 0 0.1 0.655 0 0 0.66 0 0.02 0.66 0 0.04 0.66 0 0.06 0.66 0 0.08 0.66 0 0.1 0.66 0 0 0.665 0 0.02 0.665 0 0.04 0.665 0 0.06 0.665 0 0.08 0.665 0 0.1 0.665 0 0 0.67 0 0.02 0.67 0 0.04 0.67 0 0.06 0.67 0 0.08 0.67 0 0.1 0.67 0 0 0.675 0 0.02 0.675 0 0.04 0.675 0 0.06 0.675 0 0.08 0.675 0 0.1 0.675 0 0 0.68 0 0.02 0.68 0 0.04 0.68 0 0.06 0.68 0 0.08 0.68 0 0.1 0.68 0 0 0.685 0 0.02 0.685 0 0.04 0.685 0 0.06 0.685 0 0.08 0.685 0 0.1 0.685 0 0 0.69 0 0.02 0.69 0 0.04 0.69 0 0.06 0.69 0 0.08 0.69 0 0.1 
[...]
			<PointData Scalars="VitesseX">
				<DataArray Name="VitesseX" type="Float32" format="ascii">
 0 2.16816e-14 2.83375e-14 3.89495e-14 2.89399e-14 0 0 2.35027e-14 2.29162e-14 4.57887e-14 2.31863e-14 0 0 1.28149e-14 3.56629e-14 3.21624e-14 3.07707e-14 0 0 1.47849e-14 2.40676e-14 4.50674e-14 2.21299e-14 0 0 2.16358e-14 4.0439e-15 6.80017e-14 1.06361e-14 0 0 8.18555e-16 3.12485e-14 4.06843e-14 3.13887e-14 0 0 -8.9149e-15 4.1202e-14 2.13971e-14 4.54942e-14 0 0 9.25497e-15 -3.44609e-15 5.39793e-14 3.09867e-14 0 0 8.31563e-15 -1.97007e-14 6.50579e-14 3.42527e-14 0 0 8.3399e-15 -9.96115e-15 4.35201e-14 4.35137e-14 0 0 1.82864e-14 -1.58011e-14 4.00963e-14 3.17528e-14 0 0 -1.64531e-14 3.69526e-14 -1.41846e-14 5.48378e-14 0 0 -4.28466e-14 7.06991e-14 -3.80185e-14 5.97656e-14 0 0 5.08696e-15 -1.86719e-14 7.64827e-14 -1.51274e-14 0 0 2.34576e-14 -2.53192e-14 9.81219e-14 -4.58098e-14 0 0 7.05538e-15 4.57513e-14 1.53756e-14 -3.48283e-15 0 0 2.66696e-14 -5.34754e-15 7.65464e-14 -3.66224e-14 0 0 2.85168e-14 -1.98496e-14 8.38832e-14 -2.69093e-14 0 0 -8.13448e-15 7.30564e-14 -5.04298e-14 8.26408e-14 0 0 1.37297e-14 3.77414e-14 -1.57113e-14 6.62896e-14 0 0 -6.78367e-15 5.12327e-14 1.09141e-14 2.24388e-14 0 0 -1.7651e-14 4.77374e-14 2.00022e-14 3.00559e-16 0 0 -5.12713e-15 2.912e-14 -2.4292e-14 6.4021e-14 0 0 -2.96353e-14 9.79183e-14 -1.46033e-13 1.52881e-13 0 0 1.00103e-14 8.99173e-15 -1.51155e-14 3.92064e-14 0 0 -2.24875e-14 2.58663e-14 1.57615e-14 1.191e-14 0 0 8.73877e-15 -1.67896e-14 4.67213e-14 -4.0281e-15 0 0 1.44006e-14 -5.53439e-15 -6.10266e-15 3.30522e-14 0 0 -5.19989e-14 8.75401e-14 -1.06362e-13 9.02561e-14 0 0 -1.06621e-14 -1.68533e-14 4.55034e-14 -2.94806e-14 0 0 6.82819e-14 -9.1936e-14 1.19394e-13 -1.03619e-13 0 0 6.0493e-14 -3.91234e-14 5.59597e-14 -5.36215e-14 0 0 2.43759e-14 2.19242e-14 -6.91845e-15 -3.95538e-16 0 0 -5.16206e-14 1.37899e-13 -8.1777e-14 4.26808e-14 0 0 -5.30896e-14 1.20458e-13 -1.22025e-14 4.42248e-14 0 0 2.8917e-14 1.79704e-14 1.03913e-13 3.84542e-14 0 0 -1.85785e-15 1.26998e-13 -4.02288e-14 1.72106e-13 0 0 2.22921e-14 1.33581e-13 -7.73659e-14 2.20268e-13 0 0 5.39781e-14 8.10369e-14 3.94825e-14 1.75386e-13 0 0 4.51103e-14 8.55751e-14 1.22436e-13 1.27556e-13 0 0 5.49381e-14 1.15292e-13 1.62161e-13 9.93171e-14 0 0 5.88718e-14 1.74604e-13 1.87834e-13 7.31338e-14 0 0 1.3191e-13 1.04585e-13 3.01504e-13 1.62372e-14 0 0 1.90568e-13 6.06505e-14 3.57587e-13 4.23099e-14 0 0 1.35761e-13 1.71435e-13 3.0907e-13 1.29748e-13 0 0 -1.66555e-14 3.85541e-13 1.47536e-13 2.78451e-13 0 0 1.71841e-15 3.78455e-13 1.22282e-13 3.19566e-13 0 0 1.4286e-13 1.95429e-13 2.03705e-13 3.15422e-13 0 0 2.40067e-13 1.10271e-13 2.61538e-13 2.86058e-13 0 0 2.92986e-13 7.81227e-14 4.29033e-13 1.87088e-13 0 0 2.37957e-13 3.2967e-13 3.99577e-13 3.39452e-13 0 0 3.12715e-13 7.75149e-13 3.87113e-13 5.70947e-13 0 0 7.4275e-13 1.20649e-12 9.95723e-13 7.53109e-13 0 0 1.48832e-12 2.22486e-12 2.10827e-12 1.33392e-12 0 0 2.67918e-12 4.18724e-12 3.94397e-12 2.53453e-12 0 0 4.62213e-12 7.1358e-12 7.15395e-12 4.30387e-12 0 0 7.29502e-12 1.16029e-11 1.14575e-11 6.96351e-12 0 0 1.08191e-11 1.71082e-11 1.70238e-11 1.02794e-11 0 0 1.46871e-11 2.35474e-11 2.32568e-11 1.41853e-11 0 0 1.87535e-11 3.00889e-11 2.97942e-11 1.82959e-11 0 0 2.26524e-11 3.60309e-11 3.6144e-11 2.20606e-11 0 0 2.57875e-11 4.13374e-11 4.12295e-11 2.5409e-11 0 0 2.79986e-11 4.51964e-11 4.48254e-11 2.78811e-11 0 0 2.92794e-11 4.69587e-11 4.70485e-11 2.89686e-11 0 0 2.91967e-11 4.6824e-11 4.68363e-11 2.88466e-11 0 0 2.77552e-11 4.47989e-11 4.43554e-11 2.74929e-11 0 0 2.49986e-11 4.05396e-11 3.98169e-11 2.47332e-11 0 0 2.10392e-11 3.37363e-11 3.34031e-11 2.0626e-11 0 0 1.58387e-11 2.47637e-11 2.51109e-11 1.5447e-11 0 0 9.03779e-12 1.45566e-11 1.44924e-11 9.35253e-12 0 0 1.30311e-12 2.35855e-12 2.774e-12 1.86498e-12 0 0 -7.1704e-12 -1.17974e-11 -9.87205e-12 -6.79128e-12 0 0 -1.68307e-11 -2.62524e-11 -2.50867e-11 -1.52785e-11 0 0 -2.66728e-11 -4.26082e-11 -4.02066e-11 -2.48678e-11 0 0 -3.72185e-11 -5.91332e-11 -5.68896e-11 -3.42941e-11 0 0 -4.83443e-11 -7.59163e-11 -7.3925e-11 -4.41682e-11 0 0 -5.93309e-11 -9.35598e-11 -9.06059e-11 -5.47732e-11 0 0 -7.05191e-11 -1.10919e-10 -1.07557e-10 -6.52429e-11 0 0 -8.14767e-11 -1.28163e-10 -1.24275e-10 -7.55282e-11 0 0 -9.20196e-11 -1.45112e-10 -1.40672e-10 -8.55946e-11 0 0 -1.02038e-10 -1.61478e-10 -1.56716e-10 -9.5377e-11 0 0 -1.11412e-10 -1.77055e-10 -1.72277e-10 -1.04871e-10 0 0 -1.20061e-10 -1.91625e-10 -1.87259e-10 -1.14088e-10 0 0 -1.2793e-10 -2.04964e-10 -2.01571e-10 -1.23016e-10 0 0 -1.34883e-10 -2.16987e-10 -2.15023e-10 -1.31627e-10 0 0 -1.40734e-10 -2.27722e-10 -2.27389e-10 -1.39875e-10 0 0 -1.45375e-10 -2.37112e-10 -2.38519e-10 -1.47705e-10 0 0 -1.48813e-10 -2.44908e-10 -2.48374e-10 -1.55057e-10 0 0 -1.51082e-10 -2.50789e-10 -2.56958e-10 -1.61862e-10 0 0 -1.52295e-10 -2.54569e-10 -2.64215e-10 -1.68024e-10 0 0 -1.51961e-10 -2.56465e-10 -2.69981e-10 -1.73452e-10 0 0 -1.50428e-10 -2.55992e-10 -2.7406e-10 -1.78081e-10 0 0 -1.47037e-10 -2.54054e-10 -2.76406e-10 -1.81848e-10 0 0 -1.4198e-10 -2.50367e-10 -2.76967e-10 -1.84793e-10 0 0 -1.34208e-10 -2.43813e-10 -2.76658e-10 -1.84092e-10 0 0 -8.6307e-11 -2.63197e-10 -2.97285e-10 -1.42115e-10 0 0 6.06942e-10 -6.6715e-10 -7.20789e-10 5.78586e-10 0 0 8.66687e-09 -5.75532e-09 -6.94211e-09 9.93359e-09 0 0 3.2557e-08 -1.4097e-08 -3.37974e-08 4.5172e-08 0 0 2.09955e-08 -7.66051e-09 -2.50129e-08 3.20852e-08 0 0 -2.50015e-08 9.77717e-09 2.66019e-08 -3.50987e-08 0 0 -3.84934e-08 1.28185e-08 4.90371e-08 -6.17945e-08 0 0 -3.28776e-08 1.28308e-08 3.57857e-08 -4.75936e-08 0 0 -1.53773e-08 1.16147e-08 -4.32289e-10 -5.83637e-09 0 0 -1.10505e-09 5.67411e-09 -6.82943e-09 6.32911e-09 0 0 3.00697e-09 3.45737e-10 -4.45134e-09 4.93059e-09 0 0 8.99926e-09 -2.86047e-09 -6.65098e-09 9.6312e-09 0 0 1.43954e-08 -5.26279e-09 -1.26201e-08 1.82587e-08 0 0 1.45133e-08 -6.47386e-09 -1.28624e-08 1.86033e-08 0 0 1.35577e-08 -6.70996e-09 -1.05084e-08 1.60162e-08 0 0 1.17753e-08 -6.59015e-09 -7.4319e-09 1.25051e-08 0 0 1.0277e-08 -6.00025e-09 -5.55611e-09 1.01981e-08 0 0 8.93257e-09 -5.3168e-09 -4.09076e-09 8.73914e-09 0 0 5.70973e-09 -3.68241e-09 -1.71521e-09 5.63948e-09 0 0 7.96155e-10 -4.01309e-10 3.81864e-10 1.49796e-09 0 0 -4.48755e-09 3.16477e-09 3.22534e-09 -3.92066e-09 0 0 -9.94009e-09 5.90114e-09 7.67824e-09 -1.08862e-08 0 0 -1.1202e-08 5.89246e-09 9.63308e-09 -1.3716e-08 0 0 -1.05753e-08 5.4906e-09 8.89742e-09 -1.2836e-08 0 0 -8.82021e-09 4.65451e-09 6.36372e-09 -1.00615e-08 0 0 -4.85107e-09 2.71851e-09 2.99658e-09 -4.96324e-09 0 0 6.97149e-10 2.56151e-11 -1.34097e-09 1.60444e-09 0 0 5.75998e-09 -2.19763e-09 -5.78891e-09 7.8887e-09 0 0 6.55969e-09 -2.50337e-09 -6.84994e-09 9.11904e-09 0 0 6.00774e-09 -2.5095e-09 -5.53328e-09 7.65451e-09 0 0 3.7287e-09 -2.3177e-09 -2.11855e-09 3.40203e-09 0 0 7.85563e-10 -1.43645e-09 7.17228e-10 -4.68061e-10 0 0 -1.20516e-09 -2.63671e-10 1.1778e-09 -1.89302e-09 0 0 -1.35041e-09 2.87406e-10 1.17548e-09 -1.94641e-09 0 0 -1.30967e-09 3.81282e-10 1.06702e-09 -1.87161e-09 0 0 -9.06021e-10 3.73703e-10 5.35116e-10 -1.25807e-09 0 0 -1.60059e-10 2.9287e-12 8.01117e-11 -5.1983e-10 0 0 -1.12127e-11 -1.98936e-10 -6.43744e-10 4.96939e-10 0 0 -3.90079e-11 1.49652e-10 -2.11042e-09 1.98005e-09 0 0 2.77307e-10 -2.55181e-10 -1.28113e-09 1.32105e-09 0 0 5.89341e-10 -1.35908e-09 1.19358e-09 -7.53471e-10 0 0 3.13726e-10 -8.97108e-10 6.6111e-10 -3.36119e-10 0 0 -4.85524e-11 -2.06174e-10 2.82526e-11 1.62388e-10 0 0 -1.80649e-10 -6.43169e-11 1.60273e-10 4.38526e-11 0 0 -2.18353e-10 -9.49298e-12 6.18953e-10 -5.01055e-10 0 0 -1.96088e-10 1.44293e-10 6.542e-10 -6.0672e-10 0 0 -1.26338e-10 1.96913e-10 6.3446e-10 -5.81008e-10 0 0 -5.21743e-12 1.89918e-10 4.19106e-10 -3.61381e-10 0 0 1.38122e-10 1.61641e-10 -7.9407e-11 1.51499e-10 0 0 2.72294e-10 8.43504e-11 -3.28591e-10 4.65227e-10 0 0 3.06854e-10 1.58542e-11 -3.30823e-10 4.76217e-10 0 0 2.59013e-10 8.95764e-12 -3.15117e-10 4.16132e-10 0 0 1.42051e-10 1.71796e-11 -2.5976e-10 2.59689e-10 0 0 3.78103e-11 1.53894e-11 -1.49993e-10 8.32208e-11 0 0 -4.61934e-11 -8.08637e-12 -4.57432e-11 -9.08017e-11 0 0 -8.27544e-11 -4.24472e-12 -5.90072e-11 -9.37517e-11 0 0 -1.16098e-10 3.96574e-11 -1.35153e-10 -7.53778e-11 0 0 -1.48518e-10 4.06547e-11 -8.8595e-11 -1.52777e-10 0 0 -1.43637e-10 -4.28638e-11 8.59697e-11 -3.41526e-10 0 0 -1.07748e-10 -8.85809e-11 7.76447e-11 -3.36152e-10 0 0 -6.97946e-11 -5.1402e-11 -9.02453e-11 -1.56503e-10 0 0 -3.85803e-11 -1.42562e-11 -2.36314e-10 7.34883e-11 0 0 -4.61282e-12 -3.2118e-11 -2.20398e-10 9.70321e-11 0 0 2.04885e-11 -6.12946e-11 -1.3266e-10 7.14297e-11 0 0 1.95181e-11 -6.22969e-11 -2.56012e-11 2.08905e-11 0 0 1.3802e-11 -4.9382e-11 1.9387e-11 3.20546e-14 0 0 4.96927e-12 -1.75971e-11 5.39839e-11 -2.26347e-11 0 0 3.61163e-12 1.2699e-11 7.04522e-11 -2.2479e-11 0 0 8.15328e-12 3.75689e-11 6.27149e-11 -3.49176e-12 0 0 2.0273e-11 4.72849e-11 6.02105e-11 1.49e-11 0 0 3.01643e-11 5.2575e-11 5.29098e-11 3.14262e-11 0 0 3.25111e-11 5.22595e-11 5.02268e-11 3.36249e-11 0 0 3.07222e-11 4.85528e-11 4.76393e-11 3.07976e-11 0 0 2.59205e-11 4.13862e-11 4.13477e-11 2.57286e-11 0 0 2.02334e-11 3.26294e-11 3.25785e-11 2.02307e-11 0 0 1.41826e-11 2.31736e-11 2.29285e-11 1.42862e-11 0 0 8.75715e-12 1.43368e-11 1.4134e-11 8.68559e-12 0 0 4.65135e-12 7.53725e-12 7.4829e-12 4.48789e-12 0 0 2.0669e-12 3.42857e-12 3.3728e-12 2.0358e-12 0 0 8.6626e-13 1.29119e-12 1.45183e-12 7.18483e-13 0 0 3.56365e-13 4.12301e-13 6.783e-13 9.42343e-14 0 0 9.63538e-14 1.95258e-13 2.85318e-13 -1.11242e-14 0 0 4.93142e-15 1.72107e-13 1.12254e-13 1.10292e-14 0 0 9.16006e-14 6.57642e-14 5.98565e-14 9.14112e-14 0 0 7.06259e-14 1.22752e-13 -2.9952e-15 1.13038e-13 0 0 1.14596e-13 2.26709e-15 2.23769e-13 -7.666e-15 0 0 1.42421e-13 -4.08041e-14 2.25845e-13 1.27822e-13 0 0 3.7679e-14 1.39275e-13 5.82517e-14 2.19014e-13 0 0 4.74512e-14 8.58593e-14 1.56713e-13 7.32046e-14 0 0 1.32591e-13 2.39516e-14 1.76741e-13 3.70524e-14 0 0 1.40377e-13 4.64375e-14 1.38844e-13 5.7441e-14 0 0 1.51641e-13 -1.86162e-15 2.20519e-13 -2.8173e-14 0 0 1.85098e-13 -1.65329e-14 2.51099e-13 -5.54822e-14 0 0 1.75432e-13 2.93497e-14 2.50247e-13 -1.25029e-13 0 0 1.54044e-13 8.56328e-14 1.47936e-13 -8.06229e-14 0 0 1.19279e-13 1.70022e-13 2.92303e-14 -5.70588e-14 0 0 1.36648e-13 1.17989e-13 9.44044e-14 -1.52894e-13 0 0 2.10189e-13 -5.3903e-14 2.12257e-13 -2.22191e-13 0 0 2.60965e-13 -1.32933e-13 1.51901e-13 -1.67151e-13 0 0 1.27612e-13 1.57356e-14 -7.61086e-14 -4.80812e-14 0 0 -8.48793e-14 2.68336e-13 -3.24687e-13 -1.4576e-14 0 0 -8.74416e-14 2.2171e-13 -3.51063e-13 -5.25394e-14 0 0 1.07506e-13 -2.26078e-13 1.37046e-13 -5.01412e-13 0 0 6.16814e-14 -1.55433e-13 -6.76009e-14 -4.36061e-13 0 0 1.41068e-13 -1.76207e-13 -4.79041e-13 -1.41632e-14 0 0 3.9627e-13 -5.58165e-13 -3.38712e-13 1.57036e-14 0
				</DataArray>
				<DataArray Name="VitesseY" type="Float32" format="ascii">