<?xml version="1.0"?>
<VTKFile type="PolyData">
	<PolyData>
		<Piece NumberOfPoints="1206" NumberOfPolys="1000">
			<Points>
				<DataArray type="Float32" NumberOfComponents="3" format="ascii">
 0 0 0 0.02 0 0 0.04 0 0 0.06 0 0 0.08 0 0 0.1 0 0 0 0.005 0 0.02 0.005 0 0.04 0.005 0 0.06 0.005 0 0.08 0.005 0 0.1 0.005 0 0 0.01 0 0.02 0.01 0 0.04 0.01 0 0.06 0.01 0 0.08 0.01 0 0.1 0.01 0 0 0.015 0 0.02 0.015 0 0.04 0.015 0 0.06 0.015 0 0.08 0.015 0 0.1 0.015 0 0 0.02 0 0.02 0.02 0 0.04 0.02 0 0.06 0.02 0 0.08 0.02 0 0.1 0.02 0 0 0.025 0 0.02 0.025 0 0.04 0.025 0 0.06 0.025 0 0.08 0.025 0 0.1 0.025 0 0 0.03 0 0.02 0.03 0 0.04 0.03 0 0.06 0.03 0 0.08 0.03 0 0.1 0.03 0 0 0.035 0 0.02 0.035 0 0.04 0.035 0 0.06 0.035 0 0.08 0.035 0 0.1 0.035 0 0 0.04 0 0.02 0.04 0 0.04 0.04 0 0.06 0.04 0 0.08 0.04 0 0.1 0.04 0 0 0.045 0 0.02 0.045 0 0.04 0.045 0 0.06 0.045 0 0.08 0.045 0 0.1 0.045 0 0 0.05 0 0.02 0.05 0 0.04 0.05 0 0.06 0.05 0 0.08 0.05 0 0.1 0.05 0 0 0.055 0 0.02 0.055 0 0.04 0.055 0 0.06 0.055 0 0.08 0.055 0 0.1 0.055 0 0 0.06 0 0.02 0.06 0 0.04 0.06 0 0.06 0.06 0 0.08 0.06 0 0.1 0.06 0 0 0.065 0 0.02 0.065 0 0.04 0.065 0 0.06 0.065 0 0.08 0.065 0 0.1 0.065 0 0 0.07 0 0.02 0.07 0 0.04 0.07 0 0.06 0.07 0 0.08 0.07 0 0.1 0.07 0 0 0.075 0 0.02 0.075 0 0.04 0.075 0 0.06 0.075 0 0.08 0.075 0 0.1 0.075 0 0 0.08 0 0.02 0.08 0 0.04 0.08 0 0.06 0.08 0 0.08 0.08 0 0.1 0.08 0 0 0.085 0 0.02 0.085 0 0.04 0.085 0 0.06 0.085 0 0.08 0.085 0 0.1 0.085 0 0 0.09 0 0.02 0.09 0 0.04 0.09 0 0.06 0.09 0 0.08 0.09 0 0.1 0.09 0 0 0.095 0 0.02 0.095 0 0.04 0.095 0 0.06 0.095 0 0.08 0.095 0 0.1 0.095 0 0 0.1 0 0.02 0.1 0 0.04 0.1 0 0.06 0.1 0 0.08 0.1 0 0.1 0.1 0 0 0.105 0 0.02 0.105 0 0.04 0.105 0 0.06 0.105 0 0.08 0.105 0 0.1 0.105 0 0 0.11 0 0.02 0.11 0 0.04 0.11 0 0.06 0.11 0 0.08 0.11 0 0.1 0.11 0 0 0.115 0 0.02 0.115 0 0.04 0.115 0 0.06 0.115 0 0.08 0.115 0 0.1 0.115 0 0 0.12 0 0.02 0.12 0 0.04 0.12 0 0.06 0.12 0 0.08 0.12 0 0.1 0.12 0 0 0.125 0 0.02 0.125 0 0.04 0.125 0 0.06 0.125 0 0.08 0.125 0 0.1 0.125 0 0 0.13 0 0.02 0.13 0 0.04 0.13 0 0.06 0.13 0 0.08 0.13 0 0.1 0.13 0 0 0.135 0 0.02 0.135 0 0.04 0.135 0 0.06 0.135 0 0.08 0.135 0 0.1 0.135 0 0 0.14 0 0.02 0.14 0 0.04 0.14 0 0.06 0.14 0 0.08 0.14 0 0.1 0.14 0 0 0.145 0 0.02 0.145 0 0.04 0.145 0 0.06 0.145 0 0.08 0.145 0 0.1 0.145 0 0 0.15 0 0.02 0.15 0 0.04 0.15 0 0.06 0.15 0 0.08 0.15 0 0.1 0.15 0 0 0.155 0 0.02 0.155 0 0.04 0.155 0 0.06 0.155 0 0.08 0.155 0 0.1 0.155 0 0 0.16 0 0.02 0.16 0 0.04 0.16 0 0.06 0.16 0 0.08 0.16 0 0.1 0.16 0 0 0.165 0 0.02 0.165 0 0.04 0.165 0 0.06 0.165 0 0.08 0.165 0 0.1 0.165 0 0 0.17 0 0.02 0.17 0 0.04 0.17 0 0.06 0.17 0 0.08 0.17 0 0.1 0.17 0 0 0.175 0 0.02 0.175 0 0.04 0.175 0 0.06 0.175 0 0.08 0.175 0 0.1 0.175 0 0 0.18 0 0.02 0.18 0 0.04 0.18 0 0.06 0.18 0 0.08 0.18 0 0.1 0.18 0 0 0.185 0 0.02 0.185 0 0.04 0.185 0 0.06 0.185 0 0.08 0.185 0 0.1 0.185 0 0 0.19 0 0.02 0.19 0 0.04 0.19 0 0.06 0.19 0 0.08 0.19 0 0.1 0.19 0 0 0.195 0 0.02 0.195 0 0.04 0.195 0 0.06 0.195 0 0.08 0.195 0 0.1 0.195 0 0 0.2 0 0.02 0.2 0 0.04 0.2 0 0.06 0.2 0 0.08 0.2 0 0.1 0.2 0 0 0.205 0 0.02 0.205 0 0.04 0.205 0 0.06 0.205 0 0.08 0.205 0 0.1 0.205 0 0 0.21 0 0.02 0.21 0 0.04 0.21 0 0.06 0.21 0 0.08 0.21 0 0.1 0.21 0 0 0.215 0 0.02 0.215 0 0.04 0.215 0 0.06 0.215 0 0.08 0.215 0 0.1 0.215 0 0 0.22 0 0.02 0.22 0 0.04 0.22 0 0.06 0.22 0 0.08 0.22 0 0.1 0.22 0 0 0.225 0 0.02 0.225 0 0.04 0.225 0 0.06 0.225 0 0.08 0.225 0 0.1 0.225 0 0 0.23 0 0.02 0.23 0 0.04 0.23 0 0.06 0.23 0 0.08 0.23 0 0.1 0.23 0 0 0.235 0 0.02 0.235 0 0.04 0.235 0 0.06 0.235 0 0.08 0.235 0 0.1 0.235 0 0 0.24 0 0.02 0.24 0 0.04 0.24 0 0.06 0.24 0 0.08 0.24 0 0.1 0.24 0 0 0.245 0 0.02 0.245 0 0.04 0.245 0 0.06 0.245 0 0.08 0.245 0 0.1 0.245 0 0 0.25 0 0.02 0.25 0 0.04 0.25 0 0.06 0.25 0 0.08 0.25 0 0.1 0.25 0 0 0.255 0 0.02 0.255 0 0.04 0.255 0 0.06 0.255 0 0.08 0.255 0 0.1 0.255 0 0 0.26 0 0.02 0.26 0 0.04 0.26 0 0.06 0.26 0 0.08 0.26 0 0.1 0.26 0 0 0.265 0 0.02 0.265 0 0.04 0.265 0 0.06 0.265 0 0.08 0.265 0 0.1 0.265 0 0 0.27 0 0.02 0.27 0 0.04 0.27 0 0.06 0.27 0 0.08 0.27 0 0.1 0.27 0 0 0.275 0 0.02 0.275 0 0.04 0.275 0 0.06 0.275 0 0.08 0.275 0 0.1 0.275 0 0 0.28 0 0.02 0.28 0 0.04 0.28 0 0.06 0.28 0 0.08 0.28 0 0.1 0.28 0 0 0.285 0 0.02 0.285 0 0.04 0.285 0 0.06 0.285 0 0.08 0.285 0 0.1 0.285 0 0 0.29 0 0.02 0.29 0 0.04 0.29 0 0.06 0.29 0 0.08 0.29 0 0.1 0.29 0 0 0.295 0 0.02 0.295 0 0.04 0.295 0 0.06 0.295 0 0.08 0.295 0 0.1 0.295 0 0 0.3 0 0.02 0.3 0 0.04 0.3 0 0.06 0.3 0 0.08 0.3 0 0.1 0.3 0 0 0.305 0 0.02 0.305 0 0.04 0.305 0 0.06 0.305 0 0.08 0.305 0 0.1 0.305 0 0 0.31 0 0.02 0.31 0 0.04 0.31 0 0.06 0.31 0 0.08 0.31 0 0.1 0.31 0 0 0.315 0 0.02 0.315 0 0.04 0.315 0 0.06 0.315 0 0.08 0.315 0 0.1 0.315 0 0 0.32 0 0.02 0.32 0 0.04 0.32 0 0.06 0.32 0 0.08 0.32 0 0.1 0.32 0 0 0.325 0 0.02 0.325 0 0.04 0.325 0 0.06 0.325 0 0.08 0.325 0 0.1 0.325 0 0 0.33 0 0.02 0.33 0 0.04 0.33 0 0.06 0.33 0 0.08 0.33 0 0.1 0.33 0 0 0.335 0 0.02 0.335 0 0.04 0.335 0 0.06 0.335 0 0.08 0.335 0 0.1 0.335 0 0 0.34 0 0.02 0.34 0 0.04 0.34 0 0.06 0.34 0 0.08 0.34 0 0.1 0.34 0 0 0.345 0 0.02 0.345 0 0.04 0.345 0 0.06 0.345 0 0.08 0.345 0 0.1 0.345 0 0 0.35 0 0.02 0.35 0 0.04 0.35 0 0.06 0.35 0 0.08 0.35 0 0.1 0.35 0 0 0.355 0 0.02 0.355 0 0.04 0.355 0 0.06 0.355 0 0.08 0.355 0 0.1 0.355 0 0 0.36 0 0.02 0.36 0 0.04 0.36 0 0.06 0.36 0 0.08 0.36 0 0.1 0.36 0 0 0.365 0 0.02 0.365 0 0.04 0.365 0 0.06 0.365 0 0.08 0.365 0 0.1 0.365 0 0 0.37 0 0.02 0.37 0 0.04 0.37 0 0.06 0.37 0 0.08 0.37 0 0.1 0.37 0 0 0.375 0 0.02 0.375 0 0.04 0.375 0 0.06 0.375 0 0.08 0.375 0 0.1 0.375 0 0 0.38 0 0.02 0.38 0 0.04 0.38 0 0.06 0.38 0 0.08 0.38 0 0.1 0.38 0 0 0.385 0 0.02 0.385 0 0.04 0.385 0 0.06 0.385 0 0.08 0.385 0 0.1 0.385 0 0 0.39 0 0.02 0.39 0 0.04 0.39 0 0.06 0.39 0 0.08 0.39 0 0.1 0.39 0 0 0.395 0 0.02 0.395 0 0.04 0.395 0 0.06 0.395 0 0.08 0.395 0 0.1 0.395 0 0 0.4 0 0.02 0.4 0 0.04 0.4 0 0.06 0.4 0 0.08 0.4 0 0.1 0.4 0 0 0.405 0 0.02 0.405 0 0.04 0.405 0 0.06 0.405 0 0.08 0.405 0 0.1 0.405 0 0 0.41 0 0.02 0.41 0 0.04 0.41 0 0.06 0.41 0 0.08 0.41 0 0.1 0.41 0 0 0.415 0 0.02 0.415 0 0.04 0.415 0 0.06 0.415 0 0.08 0.415 0 0.1 0.415 0 0 0.42 0 0.02 0.42 0 0.04 0.42 0 0.06 0.42 0 0.08 0.42 0 0.1 0.42 0 0 0.425 0 0.02 0.425 0 0.04 0.425 0 0.06 0.425 0 0.08 0.425 0 0.1 0.425 0 0 0.43 0 0.02 0.43 0 0.04 0.43 0 0.06 0.43 0 0.08 0.43 0 0.1 0.43 0 0 0.435 0 0.02 0.435 0 0.04 0.435 0 0.06 0.435 0 0.08 0.435 0 0.1 0.435 0 0 0.44 0 0.02 0.44 0 0.04 0.44 0 0.06 0.44 0 0.08 0.44 0 0.1 0.44 0 0 0.445 0 0.02 0.445 0 0.04 0.445 0 0.06 0.445 0 0.08 0.445 0 0.1 0.445 0 0 0.45 0 0.02 0.45 0 0.04 0.45 0 0.06 0.45 0 0.08 0.45 0 0.1 0.45 0 0 0.455 0 0.02 0.455 0 0.04 0.455 0 0.06 0.455 0 0.08 0.455 0 0.1 0.455 0 0 0.46 0 0.02 0.46 0 0.04 0.46 0 0.06 0.46 0 0.08 0.46 0 0.1 0.46 0 0 0.465 0 0.02 0.465 0 0.04 0.465 0 0.06 0.465 0 0.08 0.465 0 0.1 0.465 0 0 0.47 0 0.02 0.47 0 0.04 0.47 0 0.06 0.47 0 0.08 0.47 0 0.1 0.47 0 0 0.475 0 0.02 0.475 0 0.04 0.475 0 0.06 0.475 0 0.08 0.475 0 0.1 0.475 0 0 0.48 0 0.02 0.48 0 0.04 0.48 0 0.06 0.48 0 0.08 0.48 0 0.1 0.48 0 0 0.485 0 0.02 0.485 0 0.04 0.485 0 0.06 0.485 0 0.08 0.485 0 0.1 0.485 0 0 0.49 0 0.02 0.49 0 0.04 0.49 0 0.06 0.49 0 0.08 0.49 0 0.1 0.49 0 0 0.495 0 0.02 0.495 0 0.04 0.495 0 0.06 0.495 0 0.08 0.495 0 0.1 0.495 0 0 0.5 0 0.02 0.5 0 0.04 0.5 0 0.06 0.5 0 0.08 0.5 0 0.1 0.5 0 0 0.505 0 0.02 0.505 0 0.04 0.505 0 0.06 0.505 0 0.08 0.505 0 0.1 0.505 0 0 0.51 0 0.02 0.51 0 0.04 0.51 0 0.06 0.51 0 0.08 0.51 0 0.1 0.51 0 0 0.515 0 0.02 0.515 0 0.04 0.515 0 0.06 0.515 0 0.08 0.515 0 0.1 0.515 0 0 0.52 0 0.02 0.52 0 0.04 0.52 0 0.06 0.52 0 0.08 0.52 0 0.1 0.52 0 0 0.525 0 0.02 0.525 0 0.04 0.525 0 0.06 0.525 0 0.08 0.525 0 0.1 0.525 0 0 0.53 0 0.02 0.53 0 0.04 0.53 0 0.06 0.53 0 0.08 0.53 0 0.1 0.53 0 0 0.535 0 0.02 0.535 0 0.04 0.535 0 0.06 0.535 0 0.08 0.535 0 0.1 0.535 0 0 0.54 0 0.02 0.54 0 0.04 0.54 0 0.06 0.54 0 0.08 0.54 0 0.1 0.54 0 0 0.545 0 0.02 0.545 0 0.04 0.545 0 0.06 0.545 0 0.08 0.545 0 0.1 0.545 0 0 0.55 0 0.02 0.55 0 0.04 0.55 0 0.06 0.55 0 0.08 0.55 0 0.1 0.55 0 0 0.555 0 0.02 0.555 0 0.04 0.555 0 0.06 0.555 0 0.08 0.555 0 0.1 0.555 0 0 0.56 0 0.02 0.56 0 0.04 0.56 0 0.06 0.56 0 0.08 0.56 0 0.1 0.56 0 0 0.565 0 0.02 0.565 0 0.04 0.565 0 0.06 0.565 0 0.08 0.565 0 0.1 0.565 0 0 0.57 0 0.02 0.57 0 0.04 0.57 0 0.06 0.57 0 0.08 0.57 0 0.1 0.57 0 0 0.575 0 0.02 0.575 0 0.04 0.575 0 0.06 0.575 0 0.08 0.575 0 0.1 0.575 0 0 0.58 0 0.02 0.58 0 0.04 0.58 0 0.06 0.58 0 0.08 0.58 0 0.1 0.58 0 0 0.585 0 0.02 0.585 0 0.04 0.585 0 0.06 0.585 0 0.08 0.585 0 0.1 0.585 0 0 0.59 0 0.02 0.59 0 0.04 0.59 0 0.06 0.59 0 0.08 0.59 0 0.1 0.59 0 0 0.595 0 0.02 0.595 0 0.04 0.595 0 0.06 0.595 0 0.08 0.595 0 0.1 0.595 0 0 0.6 0 0.02 0.6 0 0.04 0.6 0 0.06 0.6 0 0.08 0.6 0 0.1 0.6 0 0 0.605 0 0.02 0.605 0 0.04 0.605 0 0.06 0.605 0 0.08 0.605 0 0.1 0.605 0 0 0.61 0 0.02 0.61 0 0.04 0.61 0 0.06 0.61 0 0.08 0.61 0 0.1 0.61 0 0 0.615 0 0.02 0.615 0 0.04 0.615 0 0.06 0.615 0 0.08 0.615 0 0.1 0.615 0 0 0.62 0 0.02 0.62 0 0.04 0.62 0 0.06 0.62 0 0.08 0.62 0 0.1 0.62 0 0 0.625 0 0.02 0.625 0 0.04 0.625 0 0.06 0.625 0 0.08 0.625 0 0.1 0.625 0 0 0.63 0 0.02 0.63 0 0.04 0.63 0 0.06 0.63 0 0.08 0.63 0 0.1 0.63 0 0 0.635 0 0.02 0.635 0 0.04 0.635 0 0.06 0.635 0 0.08 0.635 0 0.1 0.635 0 0 0.64 0 0.02 0.64 0 0.04 0.64 0 0.06 0.64 0 0.08 0.64 0 0.1 0.64 0 0 0.645 0 0.02 0.645 0 0.04 0.645 0 0.06 0.645 0 0.08 0.645 0 0.1 0.645 0 0 0.65 0 0.02 0.65 0 0.04 0.65 0 0.06 0.65 0 0.08 0.65 0 0.1 0.65 0 0 0.655 0 0.02 0.655 0 0.04 0.655 0 0.06 0.655 0 0.08 0.655 0 0.1 0.655 0 0 0.66 0 0.02 0.66 0 0.04 0.66 0 0.06 0.66 0 0.08 0.66 0 0.1 0.66 0 0 0.665 0 0.02 0.665 0 0.04 0.665 0 0.06 0.665 0 0.08 0.665 0 0.1 0.665 0 0 0.67 0 0.02 0.67 0 0.04 0.67 0 0.06 0.67 0 0.08 0.67 0 0.1 0.67 0 0 0.675 0 0.02 0.675 0 0.04 0.675 0 0.06 0.675 0 0.08 0.675 0 0.1 0.675 0 0 0.68 0 0.02 0.68 0 0.04 0.68 0 0.06 0.68 0 0.08 0.68 0 0.1 0.68 0 0 0.685 0 0.02 0.685 0 0.04 0.685 0 0.06 0.685 0 0.08 0.685 0 0.1 0.685 0 0 0.69 0 0.02 0.69 0 0.04 0.69 0 0.06 0.69 0 0.08 0.69 0 0.1 
[...]
			<PointData Scalars="VitesseX">
				<DataArray Name="VitesseX" type="Float32" format="ascii">
 0 5.89947e-15 -3.64143e-14 1.52667e-14 1.99154e-16 0 0 7.83046e-15 -3.75369e-14 5.37167e-15 1.01666e-14 0 0 -1.90056e-14 1.21339e-14 -7.34821e-14 6.99375e-14 0 0 8.95359e-15 -4.9157e-14 -1.80543e-15 1.40258e-14 0 0 1.2457e-14 -4.71916e-14 -1.09802e-14 1.68781e-14 0 0 -3.6942e-14 5.1522e-14 -1.29508e-13 7.76216e-14 0 0 -1.95921e-14 -3.42358e-14 1.52127e-14 -6.95842e-14 0 0 2.71726e-14 -1.81407e-13 2.18116e-13 -2.1514e-13 0 0 4.30122e-15 -1.20772e-13 1.14639e-13 -1.15409e-13 0 0 -5.43371e-14 5.01717e-14 -1.41832e-13 6.39556e-14 0 0 1.3666e-14 -4.80083e-14 -8.78039e-14 3.00702e-14 0 0 -2.72629e-14 5.81105e-15 -1.9914e-13 8.07995e-14 0 0 6.01311e-14 -2.17732e-13 3.67569e-14 -1.09099e-13 0 0 9.60084e-15 -1.73917e-13 2.80546e-16 -7.65981e-14 0 0 -8.32206e-14 -7.45457e-14 -5.8153e-14 -1.72694e-14 0 0 4.21743e-14 -3.43781e-13 2.85151e-13 -2.04491e-13 0 0 -1.16127e-13 2.43586e-14 -1.6659e-13 1.37719e-13 0 0 -5.86934e-14 -6.87715e-14 -8.59485e-14 1.70251e-13 0 0 -4.79817e-14 -8.92742e-14 -8.16638e-14 2.3578e-13 0 0 -1.18161e-13 3.75646e-14 -1.82199e-13 2.18854e-13 0 0 3.12509e-14 -2.8487e-13 2.79095e-13 -2.37599e-13 0 0 2.56732e-14 -2.29004e-13 2.128e-13 -3.25242e-13 0 0 -5.36842e-14 6.12734e-14 -2.58351e-13 -1.40749e-14 0 0 -1.06582e-13 2.03888e-13 -5.32621e-13 1.99561e-13 0 0 1.74467e-14 -1.8519e-13 -3.59661e-14 -1.78223e-13 0 0 2.02052e-13 -6.19702e-13 4.98625e-13 -5.37136e-13 0 0 4.07319e-14 -1.89692e-13 -2.34059e-14 -1.35799e-13 0 0 -1.26966e-13 2.34347e-13 -4.96824e-13 2.30588e-13 0 0 -5.63321e-14 7.46277e-14 -3.32551e-13 9.28551e-14 0 0 1.0932e-13 -2.64881e-13 7.06944e-14 -1.92473e-13 0 0 3.30413e-14 -1.72119e-13 8.61679e-15 -1.14021e-13 0 0 5.13568e-14 -2.60056e-13 9.68433e-14 -2.12475e-13 0 0 4.9929e-14 -1.91703e-13 -3.77239e-14 -1.81028e-13 0 0 -1.85685e-13 2.81803e-13 -6.45513e-13 2.85896e-13 0 0 4.17854e-14 -1.6019e-13 -8.26222e-14 -6.66611e-14 0 0 1.10449e-13 -3.98399e-13 2.68885e-13 -2.97935e-13 0 0 1.26227e-13 -3.56193e-13 6.78888e-14 6.39131e-14 0 0 -7.21948e-14 1.35695e-13 -5.68735e-13 6.48845e-13 0 0 -8.64111e-14 6.86523e-14 -5.30063e-13 6.6095e-13 0 0 7.62471e-14 -3.19643e-13 -9.92429e-14 3.13471e-13 0 0 5.95503e-14 -2.71658e-13 -1.38812e-14 8.3845e-14 0 0 1.02779e-13 -3.61654e-13 1.57285e-13 -1.77623e-13 0 0 -1.04168e-13 -1.14232e-14 -1.52735e-13 -1.0707e-13 0 0 -2.29657e-14 -1.56264e-13 4.69783e-14 -3.13887e-13 0 0 2.54088e-13 -5.89496e-13 3.34868e-13 -4.07027e-13 0 0 7.32501e-15 -1.10687e-13 -3.64271e-13 2.06499e-13 0 0 2.43027e-14 -5.71099e-14 -5.75854e-13 4.48068e-13 0 0 -1.23504e-14 -3.45204e-14 -5.14597e-13 3.16531e-13 0 0 -8.32001e-14 -3.88523e-14 -4.15198e-13 1.18535e-13 0 0 2.13774e-13 -6.42225e-13 2.13515e-13 -2.88927e-13 0 0 1.77445e-13 -7.57283e-13 4.08172e-13 -3.8472e-13 0 0 2.68298e-13 -7.61017e-13 1.35017e-13 3.21385e-14 0 0 -3.09863e-13 1.71167e-13 -7.8389e-13 7.43308e-13 0 0 -1.14068e-13 -1.13611e-13 -4.34611e-13 4.78379e-13 0 0 2.55662e-13 -8.67868e-13 3.71997e-13 -6.33329e-14 0 0 -2.85724e-13 -2.90761e-13 -3.16963e-14 1.20183e-13 0 0 1.86944e-13 -6.13533e-13 1.00384e-13 -7.88019e-14 0 0 2.34705e-14 -2.87902e-13 -1.02385e-13 -5.92361e-14 0 0 1.03356e-13 -4.03358e-13 1.00369e-13 -2.02133e-13 0 0 4.21402e-13 -8.27842e-13 4.63328e-13 -3.35902e-13 0 0 -1.49979e-13 -1.57819e-13 -1.29355e-13 1.81861e-13 0 0 -2.74148e-13 4.61184e-14 -4.2578e-13 4.48257e-13 0 0 -2.09799e-13 -1.37001e-13 -1.53552e-13 2.33259e-13 0 0 1.26468e-13 -6.9366e-13 6.40597e-13 -5.1897e-13 0 0 1.02377e-13 -6.62106e-13 6.50798e-13 -5.72855e-13 0 0 -2.34821e-13 -8.3431e-14 -9.99955e-14 7.34915e-14 0 0 -2.32403e-13 4.35298e-14 -4.21112e-13 3.47346e-13 0 0 -1.09462e-13 -1.71019e-13 -2.19838e-13 2.05091e-13 0 0 2.82753e-13 -7.00159e-13 4.04511e-13 -3.72245e-13 0 0 2.31206e-13 -5.45749e-13 2.46071e-14 -6.96811e-15 0 0 -5.10815e-13 4.14839e-13 -9.41769e-13 7.03853e-13 0 0 -8.51944e-15 -3.25222e-13 -1.78032e-13 1.6599e-13 0 0 3.00371e-13 -9.49603e-13 4.10149e-13 -7.75844e-15 0 0 2.02316e-13 -1.01479e-12 5.51627e-13 1.81216e-13 0 0 -1.48812e-13 -3.52071e-13 -2.36804e-13 9.51512e-13 0 0 -4.66916e-13 1.59313e-13 -9.61291e-13 1.55147e-12 0 0 1.41651e-13 -9.694e-13 2.83964e-13 3.66839e-13 0 0 -8.43378e-14 -9.05739e-13 5.47798e-13 -3.09765e-13 0 0 4.0738e-14 -8.49981e-13 3.78454e-13 -4.30516e-13 0 0 -2.49503e-13 -1.92689e-13 -2.40372e-13 -2.29092e-13 0 0 -2.49922e-13 -3.3329e-13 -3.2342e-13 1.12681e-13 0 0 1.91714e-13 -8.93126e-13 -3.08258e-13 1.14939e-13 0 0 -6.41179e-13 5.03896e-13 -1.4834e-12 3.48341e-13 0 0 -1.97685e-13 -1.49007e-13 -5.79284e-13 -2.89943e-13 0 0 5.49677e-13 -1.61783e-12 1.01116e-12 -1.12734e-12 0 0 -3.53535e-13 -2.1205e-13 -2.3446e-13 -5.91755e-13 0 0 -6.23853e-13 7.12546e-13 -1.49276e-12 -7.47773e-15 0 0 5.15375e-14 -4.2381e-13 -4.4785e-13 -5.06089e-13 0 0 5.42001e-14 -6.25947e-13 1.31222e-13 -1.10826e-12 0 0 3.26918e-13 -8.35929e-13 2.69836e-13 -1.15485e-12 0 0 3.19194e-14 2.33002e-14 -7.17782e-13 -3.91565e-13 0 0 -3.83847e-13 7.52438e-13 -1.51944e-12 2.25513e-14 0 0 1.5788e-13 -5.39677e-13 -1.67907e-13 -5.03434e-13 0 0 1.51845e-13 -7.65169e-13 3.88302e-13 -1.03174e-12 0 0 4.71153e-13 -8.75068e-13 1.1622e-13 -4.7718e-13 0 0 1.32487e-13 2.18127e-12 -4.94213e-13 8.41968e-13 0 0 9.5047e-12 2.02644e-11 1.31251e-11 -1.28412e-12 0 0 1.80598e-11 1.8196e-10 1.21202e-10 -8.77116e-11 0 0 -7.43002e-10 1.29478e-09 7.18619e-10 -1.06014e-09 0 0 2.95083e-10 -2.47046e-09 7.1495e-09 -6.63145e-09 0 0 1.15566e-09 -3.61175e-09 5.71818e-09 -4.86904e-09 0 0 -1.18483e-09 3.66046e-09 -1.08712e-08 9.6377e-09 0 0 -1.48918e-09 5.97649e-09 -1.47986e-08 1.31081e-08 0 0 3.94497e-10 1.33422e-09 -4.46748e-09 4.45997e-09 0 0 6.27718e-10 -1.04554e-10 -1.77954e-10 5.0247e-10 0 0 2.5852e-10 -4.60882e-11 -2.64579e-11 2.02107e-10 0 0 4.97203e-11 -6.28393e-12 6.63489e-12 5.24821e-11 0 0 3.68987e-12 -2.78185e-12 1.96617e-12 7.52505e-12 0 0 -5.06869e-13 -2.47097e-12 3.86059e-15 -3.12561e-13 0 0 -5.08638e-13 -5.06763e-13 -9.97241e-13 2.08642e-14 0 0 -8.18988e-13 8.43836e-13 -1.77148e-12 6.22687e-13 0 0 -2.07162e-13 -2.03802e-13 -4.92441e-13 -8.75642e-14 0 0 3.64807e-13 -1.12115e-12 6.16318e-13 -1.12564e-12 0 0 3.85929e-13 -1.0176e-12 4.83123e-13 -1.21381e-12 0 0 -2.6243e-13 9.82705e-14 -7.13398e-13 -3.64653e-13 0 0 -7.79097e-13 7.73972e-13 -1.31417e-12 7.80732e-14 0 0 -2.36234e-13 -3.96547e-13 -1.31614e-13 -3.93532e-13 0 0 4.65105e-13 -1.35563e-12 7.57801e-13 -1.05587e-12 0 0 -1.26451e-13 -3.36712e-13 -3.80475e-13 -3.73169e-13 0 0 -2.32268e-13 -3.04602e-13 -6.23196e-13 2.05201e-13 0 0 -2.78689e-13 -2.32021e-13 -6.64189e-13 1.5935e-13 0 0 -4.30649e-13 -2.99856e-13 -4.74574e-13 7.56359e-14 0 0 4.57413e-13 -1.59184e-12 6.96334e-13 -7.82142e-13 0 0 -2.68802e-13 -2.02351e-13 -7.19809e-13 -2.08599e-13 0 0 -3.12098e-13 -1.91835e-13 -8.83856e-13 2.90635e-13 0 0 -2.47708e-13 -3.23564e-13 -6.08784e-13 3.56699e-14 0 0 -5.39653e-13 -3.22282e-13 -3.83263e-13 -3.62837e-14 0 0 4.35902e-13 -1.76878e-12 9.16393e-13 -8.10461e-13 0 0 -1.7384e-13 -4.97791e-13 -3.80029e-13 -1.83002e-13 0 0 -3.03913e-13 -3.05079e-13 -6.75586e-13 3.12004e-13 0 0 -2.12792e-13 -4.08231e-13 -4.58561e-13 -1.444e-14 0 0 -4.68845e-13 -4.20023e-13 -1.94052e-13 -2.05448e-13 0 0 3.84414e-13 -1.68056e-12 1.04025e-12 -1.08115e-12 0 0 -2.06501e-13 -3.87506e-13 -3.08815e-13 -5.07321e-13 0 0 -2.68367e-13 -2.86492e-13 -7.14652e-13 1.841e-13 0 0 -1.67772e-13 -3.81075e-13 -5.78713e-13 1.56817e-14 0 0 -3.81487e-13 -3.56927e-13 -3.56399e-13 -1.97701e-13 0 0 4.27728e-13 -1.53623e-12 6.51849e-13 -8.66946e-13 0 0 -7.26106e-14 -3.18758e-13 -6.6731e-13 -3.59159e-13 0 0 -1.97054e-13 -1.44849e-13 -7.90045e-13 -8.73082e-14 0 0 -5.24517e-14 -5.22246e-13 -4.89186e-13 -1.19495e-13 0 0 -7.73387e-13 6.00864e-13 -1.63617e-12 2.97241e-13 0 0 3.73689e-13 -1.11877e-12 1.70627e-13 -9.7641e-13 0 0 6.0173e-13 -1.68051e-12 6.37301e-13 -1.05634e-12 0 0 -8.01413e-13 4.3414e-13 -1.82455e-12 6.18889e-13 0 0 -3.10468e-13 -3.88036e-13 -1.31908e-12 6.71806e-13 0 0 -4.79257e-13 -4.84894e-13 -7.82881e-13 9.32124e-14 0 0 7.68777e-14 -1.21539e-12 2.40406e-13 -7.80335e-13 0 0 4.81203e-13 -1.73333e-12 4.88016e-13 -3.74425e-13 0 0 -8.37988e-13 3.70588e-13 -2.01167e-12 1.71778e-12 0 0 -2.76378e-13 -4.99275e-13 -1.35894e-12 1.61176e-12 0 0 -3.4011e-13 -7.41155e-13 -4.84871e-13 2.1062e-13 0 0 2.36341e-13 -1.35954e-12 4.31367e-13 -1.3159e-12 0 0 2.59218e-13 -1.32342e-12 3.58702e-13 -1.46909e-12 0 0 -4.27645e-13 -4.37614e-13 -7.11324e-13 -4.40133e-13 0 0 -3.7568e-13 -2.56575e-13 -8.7182e-13 -3.27452e-13 0 0 -3.84426e-13 -4.3793e-13 -3.44388e-13 -4.90806e-13 0 0 4.38372e-13 -1.68205e-12 7.75337e-13 -8.55704e-13 0 0 -7.80299e-14 -4.42065e-13 -8.5472e-13 1.30974e-13 0 0 -5.09072e-13 5.37781e-13 -2.48254e-12 1.37341e-12 0 0 -5.62416e-13 5.30056e-13 -2.21689e-12 7.16771e-13 0 0 -1.22269e-14 -1.26766e-12 4.87045e-13 -1.08305e-12 0 0 5.58105e-13 -2.54618e-12 2.13662e-12 -2.45817e-12 0 0 -3.48042e-13 -5.12745e-13 -5.08451e-13 -1.06577e-12 0 0 -7.75299e-13 7.37058e-13 -2.62344e-12 7.47309e-13 0 0 -6.53981e-13 5.28527e-13 -2.16643e-12 3.12348e-13 0 0 -4.36645e-14 -1.00691e-12 -2.08166e-13 -8.38781e-13 0 0 5.00533e-13 -2.14316e-12 1.11545e-12 -2.49435e-12 0 0 -4.25727e-13 -6.98505e-13 -8.90546e-14 -2.61356e-12 0 0 -1.97198e-13 -1.13403e-12 2.8749e-13 -1.89014e-12 0 0 1.90228e-14 -1.22692e-12 2.44324e-13 -1.26563e-12 0 0 -8.81105e-13 5.15049e-13 -1.89222e-12 8.85767e-14 0 0 5.21244e-15 -7.35903e-13 -1.15296e-12 -2.2844e-13 0 0 -1.86227e-13 -8.33959e-13 -4.89212e-13 -7.84812e-13 0 0 -1.52593e-13 -1.23633e-12 4.54745e-13 -1.00887e-12 0 0 6.15846e-14 -1.14601e-12 8.62374e-14 -8.94762e-13 0 0 -8.25681e-13 6.2289e-13 -2.07691e-12 1.39749e-13 0 0 7.54488e-14 -7.19945e-13 -1.1164e-12 -2.32079e-13 0 0 -9.16924e-14 -8.31863e-13 -4.51633e-13 -9.94449e-13 0 0 -1.15051e-13 -1.22142e-12 4.54626e-13 -1.21901e-12 0 0 1.88046e-13 -1.37851e-12 2.10556e-13 -7.91244e-13 0 0 -7.62104e-13 5.07474e-13 -2.24714e-12 4.52022e-13 0 0 -1.31735e-14 -6.26646e-13 -1.46448e-12 -5.28311e-14 0 0 -1.35572e-13 -9.0823e-13 -4.75282e-13 -9.14902e-13 0 0 -1.29869e-13 -1.20753e-12 2.62607e-13 -9.44881e-13 0 0 1.28935e-13 -1.1747e-12 -2.16412e-13 -5.1896e-13 0 0 -9.26987e-13 7.23102e-13 -2.40547e-12 6.2129e-13 0 0 -2.91617e-15 -6.62555e-13 -1.32248e-12 1.54154e-13 0 0 -4.58508e-14 -8.15853e-13 -6.25607e-13 -6.49027e-13 0 0 1.69767e-13 -1.37157e-12 1.5196e-13 -9.79946e-13 0 0 4.93146e-13 -1.34162e-12 -8.11471e-13 -4.17469e-13 0 0 -1.3097e-12 1.40767e-12 -3.6561e-12 7.90524e-13 0 0 6.6538e-13 -1.89814e-12 2.44762e-13 -1.35727e-12 0 0 1.38746e-12 -3.25919e-12 2.01342e-12 -2.12421e-12 0 0 -7.5575e-13 -4.30932e-14 -1.66735e-12 3.21237e-13 0 0 -8.35033e-13 4.40701e-13 -3.07136e-12 1.61133e-12 0 0 -1.25056e-12 6.62839e-13 -2.9479e-12 1.57254e-12 0 0 5.6561e-13 -2.44938e-12 9.94511e-13 -9.59478e-13 0 0 7.88474e-13 -2.84286e-12 1.53309e-12 -1.29513e-12 0 0 -9.92864e-13 2.62691e-13 -2.48114e-12 1.30092e-12 0 0 -7.74845e-13 4.17728e-13 -3.45955e-12 2.14891e-12 0
				</DataArray>
				<DataArray Name="VitesseY" type="Float32" format="ascii">