<?xml version="1.0"?>
<VTKFile type="PolyData">
	<PolyData>
		<Piece NumberOfPoints="1206" NumberOfPolys="1000">
			<Points>
				<DataArray type="Float32" NumberOfComponents="3" format="ascii">
 0 0 0 0.02 0 0 0.04 0 0 0.06 0 0 0.08 0 0 0.1 0 0 0 0.005 0 0.02 0.005 0 0.04 0.005 0 0.06 0.005 0 0.08 0.005 0 0.1 0.005 0 0 0.01 0 0.02 0.01 0 0.04 0.01 0 0.06 0.01 0 0.08 0.01 0 0.1 0.01 0 0 0.015 0 0.02 0.015 0 0.04 0.015 0 0.06 0.015 0 0.08 0.015 0 0.1 0.015 0 0 0.02 0 0.02 0.02 0 0.04 0.02 0 0.06 0.02 0 0.08 0.02 0 0.1 0.02 0 0 0.025 0 0.02 0.025 0 0.04 0.025 0 0.06 0.025 0 0.08 0.025 0 0.1 0.025 0 0 0.03 0 0.02 0.03 0 0.04 0.03 0 0.06 0.03 0 0.08 0.03 0 0.1 0.03 0 0 0.035 0 0.02 0.035 0 0.04 0.035 0 0.06 0.035 0 0.08 0.035 0 0.1 0.035 0 0 0.04 0 0.02 0.04 0 0.04 0.04 0 0.06 0.04 0 0.08 0.04 0 0.1 0.04 0 0 0.045 0 0.02 0.045 0 0.04 0.045 0 0.06 0.045 0 0.08 0.045 0 0.1 0.045 0 0 0.05 0 0.02 0.05 0 0.04 0.05 0 0.06 0.05 0 0.08 0.05 0 0.1 0.05 0 0 0.055 0 0.02 0.055 0 0.04 0.055 0 0.06 0.055 0 0.08 0.055 0 0.1 0.055 0 0 0.06 0 0.02 0.06 0 0.04 0.06 0 0.06 0.06 0 0.08 0.06 0 0.1 0.06 0 0 0.065 0 0.02 0.065 0 0.04 0.065 0 0.06 0.065 0 0.08 0.065 0 0.1 0.065 0 0 0.07 0 0.02 0.07 0 0.04 0.07 0 0.06 0.07 0 0.08 0.07 0 0.1 0.07 0 0 0.075 0 0.02 0.075 0 0.04 0.075 0 0.06 0.075 0 0.08 0.075 0 0.1 0.075 0 0 0.08 0 0.02 0.08 0 0.04 0.08 0 0.06 0.08 0 0.08 0.08 0 0.1 0.08 0 0 0.085 0 0.02 0.085 0 0.04 0.085 0 0.06 0.085 0 0.08 0.085 0 0.1 0.085 0 0 0.09 0 0.02 0.09 0 0.04 0.09 0 0.06 0.09 0 0.08 0.09 0 0.1 0.09 0 0 0.095 0 0.02 0.095 0 0.04 0.095 0 0.06 0.095 0 0.08 0.095 0 0.1 0.095 0 0 0.1 0 0.02 0.1 0 0.04 0.1 0 0.06 0.1 0 0.08 0.1 0 0.1 0.1 0 0 0.105 0 0.02 0.105 0 0.04 0.105 0 0.06 0.105 0 0.08 0.105 0 0.1 0.105 0 0 0.11 0 0.02 0.11 0 0.04 0.11 0 0.06 0.11 0 0.08 0.11 0 0.1 0.11 0 0 0.115 0 0.02 0.115 0 0.04 0.115 0 0.06 0.115 0 0.08 0.115 0 0.1 0.115 0 0 0.12 0 0.02 0.12 0 0.04 0.12 0 0.06 0.12 0 0.08 0.12 0 0.1 0.12 0 0 0.125 0 0.02 0.125 0 0.04 0.125 0 0.06 0.125 0 0.08 0.125 0 0.1 0.125 0 0 0.13 0 0.02 0.13 0 0.04 0.13 0 0.06 0.13 0 0.08 0.13 0 0.1 0.13 0 0 0.135 0 0.02 0.135 0 0.04 0.135 0 0.06 0.135 0 0.08 0.135 0 0.1 0.135 0 0 0.14 0 0.02 0.14 0 0.04 0.14 0 0.06 0.14 0 0.08 0.14 0 0.1 0.14 0 0 0.145 0 0.02 0.145 0 0.04 0.145 0 0.06 0.145 0 0.08 0.145 0 0.1 0.145 0 0 0.15 0 0.02 0.15 0 0.04 0.15 0 0.06 0.15 0 0.08 0.15 0 0.1 0.15 0 0 0.155 0 0.02 0.155 0 0.04 0.155 0 0.06 0.155 0 0.08 0.155 0 0.1 0.155 0 0 0.16 0 0.02 0.16 0 0.04 0.16 0 0.06 0.16 0 0.08 0.16 0 0.1 0.16 0 0 0.165 0 0.02 0.165 0 0.04 0.165 0 0.06 0.165 0 0.08 0.165 0 0.1 0.165 0 0 0.17 0 0.02 0.17 0 0.04 0.17 0 0.06 0.17 0 0.08 0.17 0 0.1 0.17 0 0 0.175 0 0.02 0.175 0 0.04 0.175 0 0.06 0.175 0 0.08 0.175 0 0.1 0.175 0 0 0.18 0 0.02 0.18 0 0.04 0.18 0 0.06 0.18 0 0.08 0.18 0 0.1 0.18 0 0 0.185 0 0.02 0.185 0 0.04 0.185 0 0.06 0.185 0 0.08 0.185 0 0.1 0.185 0 0 0.19 0 0.02 0.19 0 0.04 0.19 0 0.06 0.19 0 0.08 0.19 0 0.1 0.19 0 0 0.195 0 0.02 0.195 0 0.04 0.195 0 0.06 0.195 0 0.08 0.195 0 0.1 0.195 0 0 0.2 0 0.02 0.2 0 0.04 0.2 0 0.06 0.2 0 0.08 0.2 0 0.1 0.2 0 0 0.205 0 0.02 0.205 0 0.04 0.205 0 0.06 0.205 0 0.08 0.205 0 0.1 0.205 0 0 0.21 0 0.02 0.21 0 0.04 0.21 0 0.06 0.21 0 0.08 0.21 0 0.1 0.21 0 0 0.215 0 0.02 0.215 0 0.04 0.215 0 0.06 0.215 0 0.08 0.215 0 0.1 0.215 0 0 0.22 0 0.02 0.22 0 0.04 0.22 0 0.06 0.22 0 0.08 0.22 0 0.1 0.22 0 0 0.225 0 0.02 0.225 0 0.04 0.225 0 0.06 0.225 0 0.08 0.225 0 0.1 0.225 0 0 0.23 0 0.02 0.23 0 0.04 0.23 0 0.06 0.23 0 0.08 0.23 0 0.1 0.23 0 0 0.235 0 0.02 0.235 0 0.04 0.235 0 0.06 0.235 0 0.08 0.235 0 0.1 0.235 0 0 0.24 0 0.02 0.24 0 0.04 0.24 0 0.06 0.24 0 0.08 0.24 0 0.1 0.24 0 0 0.245 0 0.02 0.245 0 0.04 0.245 0 0.06 0.245 0 0.08 0.245 0 0.1 0.245 0 0 0.25 0 0.02 0.25 0 0.04 0.25 0 0.06 0.25 0 0.08 0.25 0 0.1 0.25 0 0 0.255 0 0.02 0.255 0 0.04 0.255 0 0.06 0.255 0 0.08 0.255 0 0.1 0.255 0 0 0.26 0 0.02 0.26 0 0.04 0.26 0 0.06 0.26 0 0.08 0.26 0 0.1 0.26 0 0 0.265 0 0.02 0.265 0 0.04 0.265 0 0.06 0.265 0 0.08 0.265 0 0.1 0.265 0 0 0.27 0 0.02 0.27 0 0.04 0.27 0 0.06 0.27 0 0.08 0.27 0 0.1 0.27 0 0 0.275 0 0.02 0.275 0 0.04 0.275 0 0.06 0.275 0 0.08 0.275 0 0.1 0.275 0 0 0.28 0 0.02 0.28 0 0.04 0.28 0 0.06 0.28 0 0.08 0.28 0 0.1 0.28 0 0 0.285 0 0.02 0.285 0 0.04 0.285 0 0.06 0.285 0 0.08 0.285 0 0.1 0.285 0 0 0.29 0 0.02 0.29 0 0.04 0.29 0 0.06 0.29 0 0.08 0.29 0 0.1 0.29 0 0 0.295 0 0.02 0.295 0 0.04 0.295 0 0.06 0.295 0 0.08 0.295 0 0.1 0.295 0 0 0.3 0 0.02 0.3 0 0.04 0.3 0 0.06 0.3 0 0.08 0.3 0 0.1 0.3 0 0 0.305 0 0.02 0.305 0 0.04 0.305 0 0.06 0.305 0 0.08 0.305 0 0.1 0.305 0 0 0.31 0 0.02 0.31 0 0.04 0.31 0 0.06 0.31 0 0.08 0.31 0 0.1 0.31 0 0 0.315 0 0.02 0.315 0 0.04 0.315 0 0.06 0.315 0 0.08 0.315 0 0.1 0.315 0 0 0.32 0 0.02 0.32 0 0.04 0.32 0 0.06 0.32 0 0.08 0.32 0 0.1 0.32 0 0 0.325 0 0.02 0.325 0 0.04 0.325 0 0.06 0.325 0 0.08 0.325 0 0.1 0.325 0 0 0.33 0 0.02 0.33 0 0.04 0.33 0 0.06 0.33 0 0.08 0.33 0 0.1 0.33 0 0 0.335 0 0.02 0.335 0 0.04 0.335 0 0.06 0.335 0 0.08 0.335 0 0.1 0.335 0 0 0.34 0 0.02 0.34 0 0.04 0.34 0 0.06 0.34 0 0.08 0.34 0 0.1 0.34 0 0 0.345 0 0.02 0.345 0 0.04 0.345 0 0.06 0.345 0 0.08 0.345 0 0.1 0.345 0 0 0.35 0 0.02 0.35 0 0.04 0.35 0 0.06 0.35 0 0.08 0.35 0 0.1 0.35 0 0 0.355 0 0.02 0.355 0 0.04 0.355 0 0.06 0.355 0 0.08 0.355 0 0.1 0.355 0 0 0.36 0 0.02 0.36 0 0.04 0.36 0 0.06 0.36 0 0.08 0.36 0 0.1 0.36 0 0 0.365 0 0.02 0.365 0 0.04 0.365 0 0.06 0.365 0 0.08 0.365 0 0.1 0.365 0 0 0.37 0 0.02 0.37 0 0.04 0.37 0 0.06 0.37 0 0.08 0.37 0 0.1 0.37 0 0 0.375 0 0.02 0.375 0 0.04 0.375 0 0.06 0.375 0 0.08 0.375 0 0.1 0.375 0 0 0.38 0 0.02 0.38 0 0.04 0.38 0 0.06 0.38 0 0.08 0.38 0 0.1 0.38 0 0 0.385 0 0.02 0.385 0 0.04 0.385 0 0.06 0.385 0 0.08 0.385 0 0.1 0.385 0 0 0.39 0 0.02 0.39 0 0.04 0.39 0 0.06 0.39 0 0.08 0.39 0 0.1 0.39 0 0 0.395 0 0.02 0.395 0 0.04 0.395 0 0.06 0.395 0 0.08 0.395 0 0.1 0.395 0 0 0.4 0 0.02 0.4 0 0.04 0.4 0 0.06 0.4 0 0.08 0.4 0 0.1 0.4 0 0 0.405 0 0.02 0.405 0 0.04 0.405 0 0.06 0.405 0 0.08 0.405 0 0.1 0.405 0 0 0.41 0 0.02 0.41 0 0.04 0.41 0 0.06 0.41 0 0.08 0.41 0 0.1 0.41 0 0 0.415 0 0.02 0.415 0 0.04 0.415 0 0.06 0.415 0 0.08 0.415 0 0.1 0.415 0 0 0.42 0 0.02 0.42 0 0.04 0.42 0 0.06 0.42 0 0.08 0.42 0 0.1 0.42 0 0 0.425 0 0.02 0.425 0 0.04 0.425 0 0.06 0.425 0 0.08 0.425 0 0.1 0.425 0 0 0.43 0 0.02 0.43 0 0.04 0.43 0 0.06 0.43 0 0.08 0.43 0 0.1 0.43 0 0 0.435 0 0.02 0.435 0 0.04 0.435 0 0.06 0.435 0 0.08 0.435 0 0.1 0.435 0 0 0.44 0 0.02 0.44 0 0.04 0.44 0 0.06 0.44 0 0.08 0.44 0 0.1 0.44 0 0 0.445 0 0.02 0.445 0 0.04 0.445 0 0.06 0.445 0 0.08 0.445 0 0.1 0.445 0 0 0.45 0 0.02 0.45 0 0.04 0.45 0 0.06 0.45 0 0.08 0.45 0 0.1 0.45 0 0 0.455 0 0.02 0.455 0 0.04 0.455 0 0.06 0.455 0 0.08 0.455 0 0.1 0.455 0 0 0.46 0 0.02 0.46 0 0.04 0.46 0 0.06 0.46 0 0.08 0.46 0 0.1 0.46 0 0 0.465 0 0.02 0.465 0 0.04 0.465 0 0.06 0.465 0 0.08 0.465 0 0.1 0.465 0 0 0.47 0 0.02 0.47 0 0.04 0.47 0 0.06 0.47 0 0.08 0.47 0 0.1 0.47 0 0 0.475 0 0.02 0.475 0 0.04 0.475 0 0.06 0.475 0 0.08 0.475 0 0.1 0.475 0 0 0.48 0 0.02 0.48 0 0.04 0.48 0 0.06 0.48 0 0.08 0.48 0 0.1 0.48 0 0 0.485 0 0.02 0.485 0 0.04 0.485 0 0.06 0.485 0 0.08 0.485 0 0.1 0.485 0 0 0.49 0 0.02 0.49 0 0.04 0.49 0 0.06 0.49 0 0.08 0.49 0 0.1 0.49 0 0 0.495 0 0.02 0.495 0 0.04 0.495 0 0.06 0.495 0 0.08 0.495 0 0.1 0.495 0 0 0.5 0 0.02 0.5 0 0.04 0.5 0 0.06 0.5 0 0.08 0.5 0 0.1 0.5 0 0 0.505 0 0.02 0.505 0 0.04 0.505 0 0.06 0.505 0 0.08 0.505 0 0.1 0.505 0 0 0.51 0 0.02 0.51 0 0.04 0.51 0 0.06 0.51 0 0.08 0.51 0 0.1 0.51 0 0 0.515 0 0.02 0.515 0 0.04 0.515 0 0.06 0.515 0 0.08 0.515 0 0.1 0.515 0 0 0.52 0 0.02 0.52 0 0.04 0.52 0 0.06 0.52 0 0.08 0.52 0 0.1 0.52 0 0 0.525 0 0.02 0.525 0 0.04 0.525 0 0.06 0.525 0 0.08 0.525 0 0.1 0.525 0 0 0.53 0 0.02 0.53 0 0.04 0.53 0 0.06 0.53 0 0.08 0.53 0 0.1 0.53 0 0 0.535 0 0.02 0.535 0 0.04 0.535 0 0.06 0.535 0 0.08 0.535 0 0.1 0.535 0 0 0.54 0 0.02 0.54 0 0.04 0.54 0 0.06 0.54 0 0.08 0.54 0 0.1 0.54 0 0 0.545 0 0.02 0.545 0 0.04 0.545 0 0.06 0.545 0 0.08 0.545 0 0.1 0.545 0 0 0.55 0 0.02 0.55 0 0.04 0.55 0 0.06 0.55 0 0.08 0.55 0 0.1 0.55 0 0 0.555 0 0.02 0.555 0 0.04 0.555 0 0.06 0.555 0 0.08 0.555 0 0.1 0.555 0 0 0.56 0 0.02 0.56 0 0.04 0.56 0 0.06 0.56 0 0.08 0.56 0 0.1 0.56 0 0 0.565 0 0.02 0.565 0 0.04 0.565 0 0.06 0.565 0 0.08 0.565 0 0.1 0.565 0 0 0.57 0 0.02 0.57 0 0.04 0.57 0 0.06 0.57 0 0.08 0.57 0 0.1 0.57 0 0 0.575 0 0.02 0.575 0 0.04 0.575 0 0.06 0.575 0 0.08 0.575 0 0.1 0.575 0 0 0.58 0 0.02 0.58 0 0.04 0.58 0 0.06 0.58 0 0.08 0.58 0 0.1 0.58 0 0 0.585 0 0.02 0.585 0 0.04 0.585 0 0.06 0.585 0 0.08 0.585 0 0.1 0.585 0 0 0.59 0 0.02 0.59 0 0.04 0.59 0 0.06 0.59 0 0.08 0.59 0 0.1 0.59 0 0 0.595 0 0.02 0.595 0 0.04 0.595 0 0.06 0.595 0 0.08 0.595 0 0.1 0.595 0 0 0.6 0 0.02 0.6 0 0.04 0.6 0 0.06 0.6 0 0.08 0.6 0 0.1 0.6 0 0 0.605 0 0.02 0.605 0 0.04 0.605 0 0.06 0.605 0 0.08 0.605 0 0.1 0.605 0 0 0.61 0 0.02 0.61 0 0.04 0.61 0 0.06 0.61 0 0.08 0.61 0 0.1 0.61 0 0 0.615 0 0.02 0.615 0 0.04 0.615 0 0.06 0.615 0 0.08 0.615 0 0.1 0.615 0 0 0.62 0 0.02 0.62 0 0.04 0.62 0 0.06 0.62 0 0.08 0.62 0 0.1 0.62 0 0 0.625 0 0.02 0.625 0 0.04 0.625 0 0.06 0.625 0 0.08 0.625 0 0.1 0.625 0 0 0.63 0 0.02 0.63 0 0.04 0.63 0 0.06 0.63 0 0.08 0.63 0 0.1 0.63 0 0 0.635 0 0.02 0.635 0 0.04 0.635 0 0.06 0.635 0 0.08 0.635 0 0.1 0.635 0 0 0.64 0 0.02 0.64 0 0.04 0.64 0 0.06 0.64 0 0.08 0.64 0 0.1 0.64 0 0 0.645 0 0.02 0.645 0 0.04 0.645 0 0.06 0.645 0 0.08 0.645 0 0.1 0.645 0 0 0.65 0 0.02 0.65 0 0.04 0.65 0 0.06 0.65 0 0.08 0.65 0 0.1 0.65 0 0 0.655 0 0.02 0.655 0 0.04 0.655 0 0.06 0.655 0 0.08 0.655 0 0.1 0.655 0 0 0.66 0 0.02 0.66 0 0.04 0.66 0 0.06 0.66 0 0.08 0.66 0 0.1 0.66 0 0 0.665 0 0.02 0.665 0 0.04 0.665 0 0.06 0.665 0 0.08 0.665 0 0.1 0.665 0 0 0.67 0 0.02 0.67 0 0.04 0.67 0 0.06 0.67 0 0.08 0.67 0 0.1 0.67 0 0 0.675 0 0.02 0.675 0 0.04 0.675 0 0.06 0.675 0 0.08 0.675 0 0.1 0.675 0 0 0.68 0 0.02 0.68 0 0.04 0.68 0 0.06 0.68 0 0.08 0.68 0 0.1 0.68 0 0 0.685 0 0.02 0.685 0 0.04 0.685 0 0.06 0.685 0 0.08 0.685 0 0.1 0.685 0 0 0.69 0 0.02 0.69 0 0.04 0.69 0 0.06 0.69 0 0.08 0.69 0 0.1 
[...]
			<PointData Scalars="VitesseX">
				<DataArray Name="VitesseX" type="Float32" format="ascii">
 0 4.68605e-14 7.6544e-14 4.10968e-14 3.06137e-14 0 0 5.296e-14 6.8581e-14 4.50101e-14 2.99459e-14 0 0 5.9032e-14 5.70045e-14 5.10743e-14 2.58056e-14 0 0 5.59546e-14 5.6028e-14 4.61775e-14 2.64091e-14 0 0 5.70658e-14 4.6985e-14 4.6545e-14 3.08694e-14 0 0 4.64921e-14 4.59834e-14 5.04938e-14 2.99586e-14 0 0 2.30808e-14 6.08559e-14 4.29395e-14 3.18159e-14 0 0 2.05955e-14 6.11045e-14 3.36606e-14 3.41593e-14 0 0 3.76087e-14 4.29345e-14 2.84684e-14 4.31482e-14 0 0 3.7619e-14 2.6872e-14 3.87562e-14 3.64869e-14 0 0 1.87809e-14 3.13157e-14 3.66016e-14 2.92897e-14 0 0 -6.99286e-15 5.34468e-14 1.99792e-14 2.81656e-14 0 0 -2.20443e-14 6.2322e-14 3.19411e-14 -1.35101e-14 0 0 2.23481e-14 -6.45019e-15 9.95371e-14 -5.63053e-14 0 0 2.88535e-14 -1.02018e-15 8.21757e-14 -2.42025e-14 0 0 3.22591e-15 4.27562e-14 3.71078e-14 1.74386e-14 0 0 4.76311e-14 -1.31562e-14 7.24573e-14 2.64172e-14 0 0 6.68111e-14 -1.95719e-14 6.52571e-14 3.67305e-14 0 0 3.61867e-14 3.77738e-14 1.55339e-14 6.07205e-14 0 0 2.18821e-14 8.24482e-14 -4.23917e-14 9.64795e-14 0 0 5.63716e-14 6.38463e-14 -7.63135e-14 1.2406e-13 0 0 6.08803e-14 5.7541e-14 -4.73026e-14 7.9676e-14 0 0 4.94076e-14 7.685e-14 -3.75365e-14 3.96379e-14 0 0 2.47399e-14 1.37589e-13 -1.14208e-13 7.40892e-14 0 0 2.09291e-14 1.04185e-13 -3.36783e-14 7.08286e-15 0 0 3.88351e-14 6.62632e-14 1.30598e-14 -8.01775e-15 0 0 5.31649e-14 3.14911e-14 5.31948e-14 -3.32099e-14 0 0 -3.28171e-16 8.73346e-14 -6.78156e-15 -1.66564e-15 0 0 -6.06235e-14 2.37661e-13 -2.19794e-13 1.51035e-13 0 0 4.89122e-14 8.0072e-14 -7.66836e-14 8.42662e-14 0 0 1.32306e-13 -9.04273e-14 1.43826e-13 -9.32054e-14 0 0 1.16904e-13 -3.7067e-14 7.37739e-14 -6.70325e-14 0 0 1.18008e-13 2.16715e-14 1.44632e-14 -6.10753e-14 0 0 7.15066e-14 1.36398e-13 -7.49663e-14 -4.95765e-14 0 0 3.17219e-14 1.76765e-13 -1.09397e-13 3.46931e-14 0 0 5.18729e-14 9.21365e-14 -1.21956e-16 3.18817e-14 0 0 7.9806e-14 1.12528e-14 7.8673e-14 4.72577e-14 0 0 7.14369e-14 5.30685e-14 -5.23225e-15 1.68082e-13 0 0 5.37937e-14 1.18454e-13 -7.48159e-14 2.07856e-13 0 0 5.1452e-14 1.10727e-13 -3.63293e-14 1.61229e-13 0 0 7.17416e-14 5.23772e-14 1.02506e-14 1.53245e-13 0 0 1.00845e-13 -3.87322e-14 7.87163e-14 1.35801e-13 0 0 2.01079e-14 7.20798e-14 -2.66639e-14 1.56411e-13 0 0 -7.67778e-16 1.33854e-13 -8.09331e-14 1.46931e-13 0 0 4.37905e-14 6.53879e-14 5.03655e-14 3.39953e-14 0 0 7.6751e-14 -1.29865e-14 2.31417e-13 -1.24273e-13 0 0 1.16339e-13 -4.32628e-14 3.59112e-13 -2.12641e-13 0 0 5.76532e-14 1.01665e-13 2.99651e-13 -1.42123e-13 0 0 -1.93282e-14 2.31552e-13 2.20165e-13 -3.87537e-14 0 0 -9.48321e-14 3.12932e-13 2.12441e-13 3.67951e-14 0 0 3.97041e-15 2.38511e-13 2.93517e-13 1.05544e-13 0 0 1.87485e-13 1.72751e-14 5.11976e-13 7.14263e-14 0 0 6.1763e-14 1.11052e-13 5.06335e-13 9.72797e-14 0 0 -4.65183e-14 2.53854e-13 4.03571e-13 1.6247e-13 0 0 -4.38347e-14 2.97092e-13 2.59661e-13 3.34325e-13 0 0 -1.28013e-14 3.01675e-13 2.0625e-13 4.6561e-13 0 0 7.48227e-14 2.44455e-13 3.12301e-13 4.8921e-13 0 0 2.04555e-13 2.03141e-13 5.44939e-13 4.9412e-13 0 0 3.22799e-13 5.25681e-13 8.60435e-13 5.89665e-13 0 0 5.41394e-13 1.49392e-12 1.33851e-12 9.98844e-13 0 0 1.48961e-12 2.83567e-12 2.85722e-12 1.79045e-12 0 0 3.25923e-12 5.48345e-12 5.70848e-12 3.35959e-12 0 0 6.16764e-12 1.01527e-11 1.02164e-11 6.15881e-12 0 0 1.0494e-11 1.68974e-11 1.69158e-11 1.02529e-11 0 0 1.58768e-11 2.57548e-11 2.5614e-11 1.56027e-11 0 0 2.22687e-11 3.58358e-11 3.58365e-11 2.18363e-11 0 0 2.89677e-11 4.65181e-11 4.65004e-11 2.84887e-11 0 0 3.51919e-11 5.70107e-11 5.64941e-11 3.49718e-11 0 0 4.0653e-11 6.60111e-11 6.52443e-11 4.03424e-11 0 0 4.49903e-11 7.26944e-11 7.18835e-11 4.42415e-11 0 0 4.76474e-11 7.69986e-11 7.54944e-11 4.68091e-11 0 0 4.85686e-11 7.81226e-11 7.6557e-11 4.74071e-11 0 0 4.73346e-11 7.55546e-11 7.4777e-11 4.55415e-11 0 0 4.40174e-11 7.05074e-11 6.94635e-11 4.24223e-11 0 0 3.84899e-11 6.22213e-11 6.04493e-11 3.76291e-11 0 0 3.13331e-11 4.97416e-11 4.98253e-11 2.99069e-11 0 0 2.19212e-11 3.50794e-11 3.51116e-11 2.19188e-11 0 0 1.04534e-11 1.7905e-11 1.78746e-11 1.25123e-11 0 0 -2.40136e-12 -2.48293e-12 -8.12644e-13 1.09585e-12 0 0 -1.72086e-11 -2.43359e-11 -2.19208e-11 -1.09128e-11 0 0 -3.27671e-11 -4.89532e-11 -4.34309e-11 -2.46732e-11 0 0 -4.9921e-11 -7.4493e-11 -6.7248e-11 -3.86549e-11 0 0 -6.74827e-11 -1.01235e-10 -9.16233e-11 -5.31281e-11 0 0 -8.61273e-11 -1.29024e-10 -1.17977e-10 -6.74617e-11 0 0 -1.04351e-10 -1.56834e-10 -1.44027e-10 -8.2422e-11 0 0 -1.22739e-10 -1.86021e-10 -1.7059e-10 -9.80224e-11 0 0 -1.4092e-10 -2.14835e-10 -1.97059e-10 -1.13602e-10 0 0 -1.58678e-10 -2.42829e-10 -2.23662e-10 -1.29006e-10 0 0 -1.7588e-10 -2.69944e-10 -2.50405e-10 -1.44859e-10 0 0 -1.92215e-10 -2.96064e-10 -2.76783e-10 -1.60917e-10 0 0 -2.07236e-10 -3.20848e-10 -3.02355e-10 -1.76867e-10 0 0 -2.20579e-10 -3.43913e-10 -3.26896e-10 -1.93046e-10 0 0 -2.32019e-10 -3.64919e-10 -3.5039e-10 -2.0966e-10 0 0 -2.41347e-10 -3.83539e-10 -3.72879e-10 -2.26169e-10 0 0 -2.48131e-10 -3.99764e-10 -3.94678e-10 -2.40793e-10 0 0 -2.50062e-10 -4.13113e-10 -4.15371e-10 -2.59665e-10 0 0 -2.33605e-10 -4.33809e-10 -4.43952e-10 -2.49934e-10 0 0 -1.69662e-10 -4.8692e-10 -4.96378e-10 -2.06713e-10 0 0 -3.7126e-10 -3.54743e-10 -4.38776e-10 -4.0549e-10 0 0 -4.2511e-09 1.58232e-09 2.86774e-09 -5.19245e-09 0 0 -7.81963e-09 3.90259e-09 5.38943e-09 -8.9849e-09 0 0 -2.79642e-09 1.71084e-09 4.78424e-10 -2.20579e-09 0 0 1.99709e-10 7.65152e-11 -1.04142e-09 5.85581e-10 0 0 3.56839e-09 -2.60344e-09 -1.58394e-09 2.42678e-09 0 0 1.40635e-08 -9.28253e-09 -6.97335e-09 1.19338e-08 0 0 2.39303e-08 -1.32485e-08 -1.63204e-08 2.51437e-08 0 0 2.37425e-08 -1.27297e-08 -1.74218e-08 2.6289e-08 0 0 1.79529e-08 -9.54e-09 -1.32069e-08 2.0383e-08 0 0 3.36532e-09 -1.02276e-09 -2.87025e-09 5.22341e-09 0 0 -8.66725e-09 5.81951e-09 5.06507e-09 -6.88781e-09 0 0 -1.18612e-08 7.63443e-09 8.36452e-09 -1.35621e-08 0 0 -1.29139e-08 7.76908e-09 1.05727e-08 -1.52978e-08 0 0 -1.2345e-08 6.68658e-09 1.03588e-08 -1.48238e-08 0 0 -9.07967e-09 3.67455e-09 8.96476e-09 -1.25272e-08 0 0 -2.57955e-09 4.91688e-10 4.06128e-09 -4.88953e-09 0 0 3.97113e-09 -2.0945e-09 -2.91776e-09 5.15703e-09 0 0 5.57543e-09 -2.39459e-09 -5.43383e-09 8.06681e-09 0 0 5.3024e-09 -1.98041e-09 -5.23261e-09 7.76641e-09 0 0 3.6144e-09 -1.24883e-09 -2.73245e-09 4.6237e-09 0 0 9.53161e-10 -5.99774e-10 1.02949e-09 -3.02227e-10 0 0 -1.11248e-09 7.2337e-11 1.57326e-09 -1.51038e-09 0 0 -1.31641e-09 1.96555e-10 1.54693e-09 -1.75127e-09 0 0 -1.16293e-09 6.33366e-11 1.44478e-09 -1.69424e-09 0 0 -8.63037e-10 5.24158e-11 1.24002e-09 -1.47835e-09 0 0 -5.98125e-10 3.76209e-10 5.12034e-10 -7.27678e-10 0 0 -4.53752e-10 7.39168e-10 -3.94737e-10 1.46287e-10 0 0 -4.07948e-10 7.26213e-10 -9.62617e-10 7.17592e-10 0 0 -4.23546e-10 7.70069e-10 -1.61667e-09 1.45753e-09 0 0 -5.17601e-11 4.9163e-10 -1.63975e-09 1.57513e-09 0 0 5.52281e-10 -4.68547e-10 -2.42141e-10 4.56377e-10 0 0 5.18136e-10 -4.17374e-10 4.25857e-11 1.26255e-10 0 0 5.53474e-10 -7.21511e-11 -5.76009e-10 7.24561e-10 0 0 8.37575e-10 -5.51464e-10 2.15647e-10 1.73332e-10 0 0 8.147e-10 -9.08425e-10 1.8525e-09 -1.48508e-09 0 0 3.6752e-10 -5.30944e-10 1.97004e-09 -1.89662e-09 0 0 -1.56812e-10 2.33899e-10 1.60195e-09 -1.74947e-09 0 0 -3.26215e-10 5.61775e-10 9.02708e-10 -1.205e-09 0 0 -3.47967e-10 5.8788e-10 3.27703e-10 -6.40527e-10 0 0 -3.23123e-10 5.48455e-10 -3.69132e-11 -2.24438e-10 0 0 -2.16452e-10 3.80441e-10 -1.48746e-10 1.73214e-11 0 0 -9.3657e-11 1.88782e-10 -1.81441e-10 4.5582e-11 0 0 -7.57743e-12 4.78794e-11 -1.88942e-10 6.44505e-11 0 0 3.86612e-11 -1.1114e-11 -1.72518e-10 9.01919e-11 0 0 6.48264e-11 -4.08486e-11 -1.0804e-10 1.03923e-10 0 0 7.13554e-11 -5.1069e-11 -3.59594e-11 9.99197e-11 0 0 6.9622e-11 -5.24487e-11 4.30257e-11 7.45919e-11 0 0 5.7666e-11 -3.30573e-11 9.19498e-11 6.30803e-11 0 0 4.16224e-11 -1.90151e-12 1.26316e-10 4.25668e-11 0 0 3.0528e-11 4.21126e-11 1.0878e-10 5.4701e-11 0 0 3.19918e-11 7.81212e-11 9.23405e-11 7.21108e-11 0 0 4.13978e-11 1.02656e-10 9.45621e-11 7.57614e-11 0 0 5.45689e-11 1.26135e-10 9.22713e-11 8.55721e-11 0 0 7.07244e-11 1.26247e-10 1.11146e-10 7.82965e-11 0 0 8.26449e-11 1.29577e-10 1.11012e-10 8.59964e-11 0 0 8.48582e-11 1.24621e-10 1.18876e-10 8.1206e-11 0 0 7.9486e-11 1.14885e-10 1.16302e-10 7.2918e-11 0 0 6.5951e-11 1.01041e-10 1.00867e-10 6.3002e-11 0 0 5.22811e-11 8.23019e-11 8.1212e-11 5.07478e-11 0 0 3.84662e-11 6.13213e-11 6.07643e-11 3.74449e-11 0 0 2.55617e-11 4.09353e-11 4.09051e-11 2.48923e-11 0 0 1.49817e-11 2.42073e-11 2.41292e-11 1.47365e-11 0 0 7.58793e-12 1.24703e-11 1.21855e-11 7.66046e-12 0 0 3.31848e-12 5.53631e-12 5.17766e-12 3.47235e-12 0 0 1.34485e-12 2.14365e-12 2.02073e-12 1.29071e-12 0 0 5.54921e-13 7.6594e-13 9.22488e-13 3.66589e-13 0 0 2.13448e-13 4.04355e-13 4.79459e-13 1.53417e-13 0 0 1.02626e-13 2.7522e-13 3.29373e-13 1.82791e-13 0 0 3.88057e-14 2.36232e-13 2.62291e-13 3.23484e-13 0 0 1.65994e-14 2.85057e-13 2.11987e-13 3.22266e-13 0 0 3.01045e-14 2.86228e-13 2.02365e-13 3.11256e-13 0 0 6.95081e-14 2.089e-13 2.72668e-13 3.58233e-13 0 0 1.1273e-13 1.48006e-13 3.83368e-13 2.85454e-13 0 0 1.55809e-13 8.06929e-14 4.66462e-13 2.36169e-13 0 0 2.4991e-13 -2.75661e-14 5.49383e-13 2.11498e-13 0 0 1.98372e-13 1.32181e-13 3.23334e-13 3.77547e-13 0 0 2.27989e-13 8.76183e-14 3.72244e-13 4.24482e-13 0 0 3.81662e-13 -1.22299e-13 5.87513e-13 3.36964e-13 0 0 3.01138e-13 9.24823e-14 2.96639e-13 5.6527e-13 0 0 2.24053e-13 2.21133e-13 3.0343e-13 4.02608e-13 0 0 3.68576e-13 1.31928e-14 5.47964e-13 1.9666e-13 0 0 3.16228e-13 1.55272e-13 3.44287e-13 3.99134e-13 0 0 2.60346e-13 2.87266e-13 3.01189e-13 3.85592e-13 0 0 3.08222e-13 2.71009e-13 3.43915e-13 3.41713e-13 0 0 3.55099e-13 3.25626e-13 1.48294e-13 5.2777e-13 0 0 3.49661e-13 3.35231e-13 1.19184e-13 5.88735e-13 0 0 3.04008e-13 2.96215e-13 3.39697e-13 3.63457e-13 0 0 2.57383e-13 3.49926e-13 3.33362e-13 2.23007e-13 0 0 1.13761e-13 6.00233e-13 3.69142e-14 1.89521e-13 0 0 1.94005e-13 4.77173e-13 1.17011e-13 2.60665e-14 0 0 2.27289e-13 2.80748e-13 3.58623e-13 -1.18253e-13 0 0 3.93232e-13 2.36051e-15 4.35016e-13 -9.58727e-14 0 0 3.76815e-13 1.33117e-14 2.5113e-13 1.19351e-14 0 0 1.33899e-13 2.74543e-13 1.24497e-13 -1.39886e-13 0 0 1.26103e-13 3.88322e-13 -5.68567e-14 -1.75051e-13 0 0 3.71932e-13 1.28096e-13 -1.41129e-13 3.37306e-14 0 0 4.66732e-13 9.42766e-14 -3.13336e-13 1.74334e-13 0 0 2.1763e-13 3.90234e-13 -5.17202e-13 2.41931e-13 0 0 4.44319e-13 -2.29864e-13 1.18109e-13 -8.20896e-14 0 0 5.58117e-13 -4.3852e-13 1.70732e-13 -9.46838e-14 0 0 2.59405e-13 3.96939e-14 -3.82026e-13 1.85504e-13 0 0 1.19728e-13 2.18319e-13 -5.15222e-13 1.84981e-13 0
				</DataArray>
				<DataArray Name="VitesseY" type="Float32" format="ascii">