<?xml version="1.0"?>
<VTKFile type="PolyData">
	<PolyData>
		<Piece NumberOfPoints="1206" NumberOfPolys="1000">
			<Points>
				<DataArray type="Float32" NumberOfComponents="3" format="ascii">
 0 0 0 0.02 0 0 0.04 0 0 0.06 0 0 0.08 0 0 0.1 0 0 0 0.005 0 0.02 0.005 0 0.04 0.005 0 0.06 0.005 0 0.08 0.005 0 0.1 0.005 0 0 0.01 0 0.02 0.01 0 0.04 0.01 0 0.06 0.01 0 0.08 0.01 0 0.1 0.01 0 0 0.015 0 0.02 0.015 0 0.04 0.015 0 0.06 0.015 0 0.08 0.015 0 0.1 0.015 0 0 0.02 0 0.02 0.02 0 0.04 0.02 0 0.06 0.02 0 0.08 0.02 0 0.1 0.02 0 0 0.025 0 0.02 0.025 0 0.04 0.025 0 0.06 0.025 0 0.08 0.025 0 0.1 0.025 0 0 0.03 0 0.02 0.03 0 0.04 0.03 0 0.06 0.03 0 0.08 0.03 0 0.1 0.03 0 0 0.035 0 0.02 0.035 0 0.04 0.035 0 0.06 0.035 0 0.08 0.035 0 0.1 0.035 0 0 0.04 0 0.02 0.04 0 0.04 0.04 0 0.06 0.04 0 0.08 0.04 0 0.1 0.04 0 0 0.045 0 0.02 0.045 0 0.04 0.045 0 0.06 0.045 0 0.08 0.045 0 0.1 0.045 0 0 0.05 0 0.02 0.05 0 0.04 0.05 0 0.06 0.05 0 0.08 0.05 0 0.1 0.05 0 0 0.055 0 0.02 0.055 0 0.04 0.055 0 0.06 0.055 0 0.08 0.055 0 0.1 0.055 0 0 0.06 0 0.02 0.06 0 0.04 0.06 0 0.06 0.06 0 0.08 0.06 0 0.1 0.06 0 0 0.065 0 0.02 0.065 0 0.04 0.065 0 0.06 0.065 0 0.08 0.065 0 0.1 0.065 0 0 0.07 0 0.02 0.07 0 0.04 0.07 0 0.06 0.07 0 0.08 0.07 0 0.1 0.07 0 0 0.075 0 0.02 0.075 0 0.04 0.075 0 0.06 0.075 0 0.08 0.075 0 0.1 0.075 0 0 0.08 0 0.02 0.08 0 0.04 0.08 0 0.06 0.08 0 0.08 0.08 0 0.1 0.08 0 0 0.085 0 0.02 0.085 0 0.04 0.085 0 0.06 0.085 0 0.08 0.085 0 0.1 0.085 0 0 0.09 0 0.02 0.09 0 0.04 0.09 0 0.06 0.09 0 0.08 0.09 0 0.1 0.09 0 0 0.095 0 0.02 0.095 0 0.04 0.095 0 0.06 0.095 0 0.08 0.095 0 0.1 0.095 0 0 0.1 0 0.02 0.1 0 0.04 0.1 0 0.06 0.1 0 0.08 0.1 0 0.1 0.1 0 0 0.105 0 0.02 0.105 0 0.04 0.105 0 0.06 0.105 0 0.08 0.105 0 0.1 0.105 0 0 0.11 0 0.02 0.11 0 0.04 0.11 0 0.06 0.11 0 0.08 0.11 0 0.1 0.11 0 0 0.115 0 0.02 0.115 0 0.04 0.115 0 0.06 0.115 0 0.08 0.115 0 0.1 0.115 0 0 0.12 0 0.02 0.12 0 0.04 0.12 0 0.06 0.12 0 0.08 0.12 0 0.1 0.12 0 0 0.125 0 0.02 0.125 0 0.04 0.125 0 0.06 0.125 0 0.08 0.125 0 0.1 0.125 0 0 0.13 0 0.02 0.13 0 0.04 0.13 0 0.06 0.13 0 0.08 0.13 0 0.1 0.13 0 0 0.135 0 0.02 0.135 0 0.04 0.135 0 0.06 0.135 0 0.08 0.135 0 0.1 0.135 0 0 0.14 0 0.02 0.14 0 0.04 0.14 0 0.06 0.14 0 0.08 0.14 0 0.1 0.14 0 0 0.145 0 0.02 0.145 0 0.04 0.145 0 0.06 0.145 0 0.08 0.145 0 0.1 0.145 0 0 0.15 0 0.02 0.15 0 0.04 0.15 0 0.06 0.15 0 0.08 0.15 0 0.1 0.15 0 0 0.155 0 0.02 0.155 0 0.04 0.155 0 0.06 0.155 0 0.08 0.155 0 0.1 0.155 0 0 0.16 0 0.02 0.16 0 0.04 0.16 0 0.06 0.16 0 0.08 0.16 0 0.1 0.16 0 0 0.165 0 0.02 0.165 0 0.04 0.165 0 0.06 0.165 0 0.08 0.165 0 0.1 0.165 0 0 0.17 0 0.02 0.17 0 0.04 0.17 0 0.06 0.17 0 0.08 0.17 0 0.1 0.17 0 0 0.175 0 0.02 0.175 0 0.04 0.175 0 0.06 0.175 0 0.08 0.175 0 0.1 0.175 0 0 0.18 0 0.02 0.18 0 0.04 0.18 0 0.06 0.18 0 0.08 0.18 0 0.1 0.18 0 0 0.185 0 0.02 0.185 0 0.04 0.185 0 0.06 0.185 0 0.08 0.185 0 0.1 0.185 0 0 0.19 0 0.02 0.19 0 0.04 0.19 0 0.06 0.19 0 0.08 0.19 0 0.1 0.19 0 0 0.195 0 0.02 0.195 0 0.04 0.195 0 0.06 0.195 0 0.08 0.195 0 0.1 0.195 0 0 0.2 0 0.02 0.2 0 0.04 0.2 0 0.06 0.2 0 0.08 0.2 0 0.1 0.2 0 0 0.205 0 0.02 0.205 0 0.04 0.205 0 0.06 0.205 0 0.08 0.205 0 0.1 0.205 0 0 0.21 0 0.02 0.21 0 0.04 0.21 0 0.06 0.21 0 0.08 0.21 0 0.1 0.21 0 0 0.215 0 0.02 0.215 0 0.04 0.215 0 0.06 0.215 0 0.08 0.215 0 0.1 0.215 0 0 0.22 0 0.02 0.22 0 0.04 0.22 0 0.06 0.22 0 0.08 0.22 0 0.1 0.22 0 0 0.225 0 0.02 0.225 0 0.04 0.225 0 0.06 0.225 0 0.08 0.225 0 0.1 0.225 0 0 0.23 0 0.02 0.23 0 0.04 0.23 0 0.06 0.23 0 0.08 0.23 0 0.1 0.23 0 0 0.235 0 0.02 0.235 0 0.04 0.235 0 0.06 0.235 0 0.08 0.235 0 0.1 0.235 0 0 0.24 0 0.02 0.24 0 0.04 0.24 0 0.06 0.24 0 0.08 0.24 0 0.1 0.24 0 0 0.245 0 0.02 0.245 0 0.04 0.245 0 0.06 0.245 0 0.08 0.245 0 0.1 0.245 0 0 0.25 0 0.02 0.25 0 0.04 0.25 0 0.06 0.25 0 0.08 0.25 0 0.1 0.25 0 0 0.255 0 0.02 0.255 0 0.04 0.255 0 0.06 0.255 0 0.08 0.255 0 0.1 0.255 0 0 0.26 0 0.02 0.26 0 0.04 0.26 0 0.06 0.26 0 0.08 0.26 0 0.1 0.26 0 0 0.265 0 0.02 0.265 0 0.04 0.265 0 0.06 0.265 0 0.08 0.265 0 0.1 0.265 0 0 0.27 0 0.02 0.27 0 0.04 0.27 0 0.06 0.27 0 0.08 0.27 0 0.1 0.27 0 0 0.275 0 0.02 0.275 0 0.04 0.275 0 0.06 0.275 0 0.08 0.275 0 0.1 0.275 0 0 0.28 0 0.02 0.28 0 0.04 0.28 0 0.06 0.28 0 0.08 0.28 0 0.1 0.28 0 0 0.285 0 0.02 0.285 0 0.04 0.285 0 0.06 0.285 0 0.08 0.285 0 0.1 0.285 0 0 0.29 0 0.02 0.29 0 0.04 0.29 0 0.06 0.29 0 0.08 0.29 0 0.1 0.29 0 0 0.295 0 0.02 0.295 0 0.04 0.295 0 0.06 0.295 0 0.08 0.295 0 0.1 0.295 0 0 0.3 0 0.02 0.3 0 0.04 0.3 0 0.06 0.3 0 0.08 0.3 0 0.1 0.3 0 0 0.305 0 0.02 0.305 0 0.04 0.305 0 0.06 0.305 0 0.08 0.305 0 0.1 0.305 0 0 0.31 0 0.02 0.31 0 0.04 0.31 0 0.06 0.31 0 0.08 0.31 0 0.1 0.31 0 0 0.315 0 0.02 0.315 0 0.04 0.315 0 0.06 0.315 0 0.08 0.315 0 0.1 0.315 0 0 0.32 0 0.02 0.32 0 0.04 0.32 0 0.06 0.32 0 0.08 0.32 0 0.1 0.32 0 0 0.325 0 0.02 0.325 0 0.04 0.325 0 0.06 0.325 0 0.08 0.325 0 0.1 0.325 0 0 0.33 0 0.02 0.33 0 0.04 0.33 0 0.06 0.33 0 0.08 0.33 0 0.1 0.33 0 0 0.335 0 0.02 0.335 0 0.04 0.335 0 0.06 0.335 0 0.08 0.335 0 0.1 0.335 0 0 0.34 0 0.02 0.34 0 0.04 0.34 0 0.06 0.34 0 0.08 0.34 0 0.1 0.34 0 0 0.345 0 0.02 0.345 0 0.04 0.345 0 0.06 0.345 0 0.08 0.345 0 0.1 0.345 0 0 0.35 0 0.02 0.35 0 0.04 0.35 0 0.06 0.35 0 0.08 0.35 0 0.1 0.35 0 0 0.355 0 0.02 0.355 0 0.04 0.355 0 0.06 0.355 0 0.08 0.355 0 0.1 0.355 0 0 0.36 0 0.02 0.36 0 0.04 0.36 0 0.06 0.36 0 0.08 0.36 0 0.1 0.36 0 0 0.365 0 0.02 0.365 0 0.04 0.365 0 0.06 0.365 0 0.08 0.365 0 0.1 0.365 0 0 0.37 0 0.02 0.37 0 0.04 0.37 0 0.06 0.37 0 0.08 0.37 0 0.1 0.37 0 0 0.375 0 0.02 0.375 0 0.04 0.375 0 0.06 0.375 0 0.08 0.375 0 0.1 0.375 0 0 0.38 0 0.02 0.38 0 0.04 0.38 0 0.06 0.38 0 0.08 0.38 0 0.1 0.38 0 0 0.385 0 0.02 0.385 0 0.04 0.385 0 0.06 0.385 0 0.08 0.385 0 0.1 0.385 0 0 0.39 0 0.02 0.39 0 0.04 0.39 0 0.06 0.39 0 0.08 0.39 0 0.1 0.39 0 0 0.395 0 0.02 0.395 0 0.04 0.395 0 0.06 0.395 0 0.08 0.395 0 0.1 0.395 0 0 0.4 0 0.02 0.4 0 0.04 0.4 0 0.06 0.4 0 0.08 0.4 0 0.1 0.4 0 0 0.405 0 0.02 0.405 0 0.04 0.405 0 0.06 0.405 0 0.08 0.405 0 0.1 0.405 0 0 0.41 0 0.02 0.41 0 0.04 0.41 0 0.06 0.41 0 0.08 0.41 0 0.1 0.41 0 0 0.415 0 0.02 0.415 0 0.04 0.415 0 0.06 0.415 0 0.08 0.415 0 0.1 0.415 0 0 0.42 0 0.02 0.42 0 0.04 0.42 0 0.06 0.42 0 0.08 0.42 0 0.1 0.42 0 0 0.425 0 0.02 0.425 0 0.04 0.425 0 0.06 0.425 0 0.08 0.425 0 0.1 0.425 0 0 0.43 0 0.02 0.43 0 0.04 0.43 0 0.06 0.43 0 0.08 0.43 0 0.1 0.43 0 0 0.435 0 0.02 0.435 0 0.04 0.435 0 0.06 0.435 0 0.08 0.435 0 0.1 0.435 0 0 0.44 0 0.02 0.44 0 0.04 0.44 0 0.06 0.44 0 0.08 0.44 0 0.1 0.44 0 0 0.445 0 0.02 0.445 0 0.04 0.445 0 0.06 0.445 0 0.08 0.445 0 0.1 0.445 0 0 0.45 0 0.02 0.45 0 0.04 0.45 0 0.06 0.45 0 0.08 0.45 0 0.1 0.45 0 0 0.455 0 0.02 0.455 0 0.04 0.455 0 0.06 0.455 0 0.08 0.455 0 0.1 0.455 0 0 0.46 0 0.02 0.46 0 0.04 0.46 0 0.06 0.46 0 0.08 0.46 0 0.1 0.46 0 0 0.465 0 0.02 0.465 0 0.04 0.465 0 0.06 0.465 0 0.08 0.465 0 0.1 0.465 0 0 0.47 0 0.02 0.47 0 0.04 0.47 0 0.06 0.47 0 0.08 0.47 0 0.1 0.47 0 0 0.475 0 0.02 0.475 0 0.04 0.475 0 0.06 0.475 0 0.08 0.475 0 0.1 0.475 0 0 0.48 0 0.02 0.48 0 0.04 0.48 0 0.06 0.48 0 0.08 0.48 0 0.1 0.48 0 0 0.485 0 0.02 0.485 0 0.04 0.485 0 0.06 0.485 0 0.08 0.485 0 0.1 0.485 0 0 0.49 0 0.02 0.49 0 0.04 0.49 0 0.06 0.49 0 0.08 0.49 0 0.1 0.49 0 0 0.495 0 0.02 0.495 0 0.04 0.495 0 0.06 0.495 0 0.08 0.495 0 0.1 0.495 0 0 0.5 0 0.02 0.5 0 0.04 0.5 0 0.06 0.5 0 0.08 0.5 0 0.1 0.5 0 0 0.505 0 0.02 0.505 0 0.04 0.505 0 0.06 0.505 0 0.08 0.505 0 0.1 0.505 0 0 0.51 0 0.02 0.51 0 0.04 0.51 0 0.06 0.51 0 0.08 0.51 0 0.1 0.51 0 0 0.515 0 0.02 0.515 0 0.04 0.515 0 0.06 0.515 0 0.08 0.515 0 0.1 0.515 0 0 0.52 0 0.02 0.52 0 0.04 0.52 0 0.06 0.52 0 0.08 0.52 0 0.1 0.52 0 0 0.525 0 0.02 0.525 0 0.04 0.525 0 0.06 0.525 0 0.08 0.525 0 0.1 0.525 0 0 0.53 0 0.02 0.53 0 0.04 0.53 0 0.06 0.53 0 0.08 0.53 0 0.1 0.53 0 0 0.535 0 0.02 0.535 0 0.04 0.535 0 0.06 0.535 0 0.08 0.535 0 0.1 0.535 0 0 0.54 0 0.02 0.54 0 0.04 0.54 0 0.06 0.54 0 0.08 0.54 0 0.1 0.54 0 0 0.545 0 0.02 0.545 0 0.04 0.545 0 0.06 0.545 0 0.08 0.545 0 0.1 0.545 0 0 0.55 0 0.02 0.55 0 0.04 0.55 0 0.06 0.55 0 0.08 0.55 0 0.1 0.55 0 0 0.555 0 0.02 0.555 0 0.04 0.555 0 0.06 0.555 0 0.08 0.555 0 0.1 0.555 0 0 0.56 0 0.02 0.56 0 0.04 0.56 0 0.06 0.56 0 0.08 0.56 0 0.1 0.56 0 0 0.565 0 0.02 0.565 0 0.04 0.565 0 0.06 0.565 0 0.08 0.565 0 0.1 0.565 0 0 0.57 0 0.02 0.57 0 0.04 0.57 0 0.06 0.57 0 0.08 0.57 0 0.1 0.57 0 0 0.575 0 0.02 0.575 0 0.04 0.575 0 0.06 0.575 0 0.08 0.575 0 0.1 0.575 0 0 0.58 0 0.02 0.58 0 0.04 0.58 0 0.06 0.58 0 0.08 0.58 0 0.1 0.58 0 0 0.585 0 0.02 0.585 0 0.04 0.585 0 0.06 0.585 0 0.08 0.585 0 0.1 0.585 0 0 0.59 0 0.02 0.59 0 0.04 0.59 0 0.06 0.59 0 0.08 0.59 0 0.1 0.59 0 0 0.595 0 0.02 0.595 0 0.04 0.595 0 0.06 0.595 0 0.08 0.595 0 0.1 0.595 0 0 0.6 0 0.02 0.6 0 0.04 0.6 0 0.06 0.6 0 0.08 0.6 0 0.1 0.6 0 0 0.605 0 0.02 0.605 0 0.04 0.605 0 0.06 0.605 0 0.08 0.605 0 0.1 0.605 0 0 0.61 0 0.02 0.61 0 0.04 0.61 0 0.06 0.61 0 0.08 0.61 0 0.1 0.61 0 0 0.615 0 0.02 0.615 0 0.04 0.615 0 0.06 0.615 0 0.08 0.615 0 0.1 0.615 0 0 0.62 0 0.02 0.62 0 0.04 0.62 0 0.06 0.62 0 0.08 0.62 0 0.1 0.62 0 0 0.625 0 0.02 0.625 0 0.04 0.625 0 0.06 0.625 0 0.08 0.625 0 0.1 0.625 0 0 0.63 0 0.02 0.63 0 0.04 0.63 0 0.06 0.63 0 0.08 0.63 0 0.1 0.63 0 0 0.635 0 0.02 0.635 0 0.04 0.635 0 0.06 0.635 0 0.08 0.635 0 0.1 0.635 0 0 0.64 0 0.02 0.64 0 0.04 0.64 0 0.06 0.64 0 0.08 0.64 0 0.1 0.64 0 0 0.645 0 0.02 0.645 0 0.04 0.645 0 0.06 0.645 0 0.08 0.645 0 0.1 0.645 0 0 0.65 0 0.02 0.65 0 0.04 0.65 0 0.06 0.65 0 0.08 0.65 0 0.1 0.65 0 0 0.655 0 0.02 0.655 0 0.04 0.655 0 0.06 0.655 0 0.08 0.655 0 0.1 0.655 0 0 0.66 0 0.02 0.66 0 0.04 0.66 0 0.06 0.66 0 0.08 0.66 0 0.1 0.66 0 0 0.665 0 0.02 0.665 0 0.04 0.665 0 0.06 0.665 0 0.08 0.665 0 0.1 0.665 0 0 0.67 0 0.02 0.67 0 0.04 0.67 0 0.06 0.67 0 0.08 0.67 0 0.1 0.67 0 0 0.675 0 0.02 0.675 0 0.04 0.675 0 0.06 0.675 0 0.08 0.675 0 0.1 0.675 0 0 0.68 0 0.02 0.68 0 0.04 0.68 0 0.06 0.68 0 0.08 0.68 0 0.1 0.68 0 0 0.685 0 0.02 0.685 0 0.04 0.685 0 0.06 0.685 0 0.08 0.685 0 0.1 0.685 0 0 0.69 0 0.02 0.69 0 0.04 0.69 0 0.06 0.69 0 0.08 0.69 0 0.1 
[...]
			<PointData Scalars="VitesseX">
				<DataArray Name="VitesseX" type="Float32" format="ascii">
 0 -1.98792e-14 -9.75993e-15 -4.99464e-15 3.06291e-14 0 0 -1.49905e-14 -2.0441e-14 7.95916e-15 2.15914e-14 0 0 -1.30044e-14 -2.35762e-14 1.22008e-14 1.57667e-14 0 0 -2.44411e-14 -3.69986e-15 -5.35832e-15 2.38766e-14 0 0 -8.79619e-15 -2.92966e-14 2.07658e-14 1.60454e-14 0 0 -2.82491e-15 -3.27305e-14 1.44702e-14 3.58319e-14 0 0 -3.93362e-14 3.23519e-14 -5.3273e-14 9.5042e-14 0 0 -5.12115e-14 3.57501e-14 -1.29834e-14 7.65329e-14 0 0 -4.08601e-14 1.9318e-14 3.75113e-14 4.82709e-14 0 0 -1.27214e-14 -1.15645e-14 6.64852e-14 4.86495e-14 0 0 6.72123e-15 -4.59023e-14 1.12805e-13 2.38615e-14 0 0 3.11998e-14 -6.40562e-14 1.36239e-13 -9.85251e-15 0 0 8.36049e-15 8.39018e-15 3.7149e-14 5.15832e-14 0 0 9.86972e-15 1.25639e-14 1.84203e-14 6.79136e-14 0 0 4.75656e-15 6.019e-15 6.4114e-14 1.32306e-14 0 0 -4.38844e-14 1.01026e-13 -2.95003e-14 4.6697e-14 0 0 5.08398e-14 -2.9233e-14 7.44622e-14 -3.17512e-14 0 0 8.13335e-14 -6.99669e-14 1.0386e-13 -6.36055e-14 0 0 4.67695e-14 -1.58662e-14 2.51635e-14 -1.21119e-14 0 0 -8.21233e-15 5.778e-14 -5.92913e-14 3.34995e-14 0 0 -4.65279e-14 8.73246e-14 -8.61418e-14 3.11787e-14 0 0 -5.20059e-14 5.96348e-14 -7.67939e-14 3.24828e-14 0 0 7.3622e-17 -6.88977e-14 4.52125e-14 -4.27287e-14 0 0 -4.84266e-14 -3.64491e-14 2.91123e-14 -4.74521e-14 0 0 -1.70534e-13 1.48238e-13 -2.01024e-13 1.14292e-13 0 0 -1.07302e-13 1.73805e-14 -9.26598e-14 7.51028e-14 0 0 -6.51309e-14 -8.05057e-14 5.59955e-14 -5.07743e-14 0 0 -1.1235e-13 1.45878e-14 -6.44148e-14 -5.26657e-16 0 0 -8.42608e-14 -2.98697e-14 -6.44099e-14 1.20926e-14 0 0 -8.89768e-15 -1.68474e-13 7.34641e-14 -6.40694e-14 0 0 -3.24661e-15 -1.7502e-13 9.22083e-14 -8.56449e-14 0 0 -1.25998e-13 -4.47371e-14 3.34471e-14 -7.52373e-14 0 0 -1.96356e-13 2.9308e-14 2.20647e-14 -6.41852e-14 0 0 -4.2722e-14 -1.13709e-13 1.15957e-13 -9.36082e-14 0 0 -5.55252e-14 -8.23668e-14 9.28042e-14 -5.21964e-14 0 0 -1.24355e-13 -3.86701e-14 1.15661e-13 -5.20804e-14 0 0 -2.29908e-14 -1.48244e-13 1.7663e-13 -4.87781e-14 0 0 -6.5337e-14 -2.16289e-14 2.03263e-14 2.94329e-14 0 0 -5.35417e-14 -5.47524e-14 1.19093e-13 -8.81323e-14 0 0 -3.44464e-14 -9.91806e-14 2.06414e-13 -1.38344e-13 0 0 -1.54721e-13 5.73415e-14 9.48182e-14 -9.32789e-14 0 0 -1.62981e-13 7.75263e-14 2.90035e-14 3.15684e-15 0 0 -9.17608e-14 1.72896e-15 7.72262e-14 -2.13352e-14 0 0 -1.52625e-13 5.25242e-14 9.32523e-14 -1.1873e-13 0 0 -1.98763e-13 1.34232e-13 -2.12664e-14 -5.62949e-14 0 0 -1.34339e-13 1.20124e-13 -4.4191e-14 -6.36235e-14 0 0 1.09882e-13 -2.04769e-13 2.57015e-13 -2.72576e-13 0 0 9.90008e-14 -8.37719e-14 6.57318e-14 -1.47215e-13 0 0 -4.36211e-14 2.19089e-13 -2.32027e-13 -1.8747e-15 0 0 4.25948e-14 1.03246e-13 -1.10309e-13 -1.12015e-13 0 0 2.10122e-13 -8.77028e-14 -9.52441e-15 -1.36607e-13 0 0 3.46262e-13 -2.05574e-13 -1.74902e-14 -6.93039e-14 0 0 8.3302e-15 3.31387e-13 -5.62786e-13 3.08744e-13 0 0 1.3659e-13 5.15446e-14 -1.64254e-13 -6.63251e-15 0 0 3.70642e-13 -3.21929e-13 1.95177e-13 -3.15676e-13 0 0 1.18718e-13 6.06015e-14 -2.10813e-13 -1.79114e-13 0 0 1.53865e-13 -1.09283e-13 1.40975e-14 -3.99857e-13 0 0 -1.59457e-14 8.90582e-14 -1.02057e-13 -3.55129e-13 0 0 -2.38535e-14 9.8521e-14 -1.68411e-13 -2.56455e-13 0 0 1.68293e-13 -2.1094e-13 1.80359e-14 -2.63463e-13 0 0 -4.57455e-14 1.36663e-13 -2.26078e-13 -2.1745e-13 0 0 -1.21454e-13 2.02311e-13 -1.39962e-13 -3.93955e-13 0 0 -1.20404e-14 6.36344e-14 -1.3819e-14 -4.62101e-13 0 0 1.71783e-14 9.14193e-14 -8.52651e-14 -3.69176e-13 0 0 -1.07473e-13 2.26554e-13 -1.90598e-13 -2.60486e-13 0 0 -1.09107e-13 1.86847e-13 -1.84935e-13 -2.02908e-13 0 0 1.84509e-14 5.68144e-15 -5.56063e-14 -2.37614e-13 0 0 3.21496e-14 2.19684e-14 -9.10335e-14 -1.95274e-13 0 0 9.59775e-14 2.58e-14 -1.36959e-13 -1.47949e-13 0 0 1.831e-13 4.17397e-14 -1.03089e-13 -1.56558e-13 0 0 2.03325e-13 1.7977e-13 -1.79419e-13 -8.67435e-14 0 0 4.20721e-13 -8.87551e-15 -2.68886e-14 -1.28528e-13 0 0 5.9496e-13 -1.75514e-13 1.24721e-13 -1.44157e-13 0 0 5.45782e-13 4.91029e-14 -1.06679e-13 4.83578e-14 0 0 6.36629e-13 6.46177e-14 -1.2117e-13 6.04403e-14 0 0 4.15099e-13 3.59732e-13 -1.9707e-13 5.57597e-14 0 0 2.67267e-13 3.34777e-13 6.18286e-14 -9.50626e-14 0 0 6.53471e-13 -2.41918e-13 6.1263e-13 -2.34384e-13 0 0 5.04567e-13 1.63719e-13 2.74697e-13 2.34719e-13 0 0 7.24522e-13 3.61087e-13 5.70127e-13 2.75012e-13 0 0 1.33588e-12 1.40812e-12 1.3222e-12 8.78349e-13 0 0 2.83979e-12 5.11938e-12 3.79895e-12 3.1858e-12 0 0 8.36808e-12 1.27961e-11 1.27307e-11 7.76461e-12 0 0 1.96528e-11 3.08961e-11 3.02125e-11 1.83556e-11 0 0 3.95275e-11 6.32541e-11 5.98405e-11 3.63017e-11 0 0 6.99707e-11 1.07982e-10 1.02716e-10 5.98634e-11 0 0 1.0756e-10 1.6267e-10 1.50877e-10 8.6691e-11 0 0 1.47441e-10 2.20064e-10 1.95859e-10 1.09648e-10 0 0 1.85163e-10 2.69539e-10 2.31003e-10 1.23797e-10 0 0 2.154e-10 3.05368e-10 2.51735e-10 1.25956e-10 0 0 2.34058e-10 3.25708e-10 2.52216e-10 1.15751e-10 0 0 2.39241e-10 3.22704e-10 2.35443e-10 9.56366e-11 0 0 2.22921e-10 2.99767e-10 2.01614e-10 6.43454e-11 0 0 1.85564e-10 2.51202e-10 1.49404e-10 2.11335e-11 0 0 1.20515e-10 1.78457e-10 8.79148e-11 -1.92009e-11 0 0 1.33763e-11 7.22926e-11 1.70482e-11 -8.17573e-11 0 0 -1.02722e-10 -3.98422e-11 -5.66957e-11 -1.37959e-10 0 0 -3.00473e-10 -1.9722e-10 -1.30077e-10 -1.99513e-10 0 0 -4.95259e-10 -3.38099e-10 -2.03143e-10 -2.64765e-10 0 0 -6.18503e-10 -5.72556e-10 -2.66649e-10 -2.41329e-10 0 0 -9.07512e-10 -9.23547e-10 -3.90953e-10 -4.73507e-11 0 0 -8.06145e-10 -1.18857e-09 -5.59103e-10 2.32002e-10 0 0 1.19358e-09 -1.96654e-09 -2.9373e-09 3.54019e-09 0 0 2.38775e-09 -2.11344e-09 -5.50358e-09 6.50848e-09 0 0 8.72506e-10 -8.02189e-10 -4.66777e-09 5.00408e-09 0 0 -2.48789e-09 2.08014e-09 -3.53587e-09 1.62892e-09 0 0 -3.14207e-09 2.26532e-09 -1.06914e-09 -1.52545e-09 0 0 -2.0289e-09 3.23081e-10 2.85747e-09 -4.49442e-09 0 0 -3.95468e-10 -1.82168e-09 4.57945e-09 -4.98115e-09 0 0 -3.07861e-10 -1.74176e-09 4.30184e-09 -4.66971e-09 0 0 -7.50427e-10 -8.49118e-10 3.18363e-09 -3.83658e-09 0 0 -1.16651e-09 6.68746e-10 -3.17618e-10 -8.18939e-10 0 0 -1.42654e-09 2.14518e-09 -3.57338e-09 2.27722e-09 0 0 -1.39064e-09 2.48058e-09 -3.56851e-09 2.30179e-09 0 0 -5.48496e-10 1.75105e-09 -2.49461e-09 1.60082e-09 0 0 6.01036e-10 -1.87407e-11 -1.57558e-10 2.56783e-10 0 0 8.63459e-10 -6.08102e-10 1.27184e-09 -1.04732e-09 0 0 8.77295e-10 -7.17121e-10 1.18785e-09 -1.05406e-09 0 0 7.05873e-10 -5.92998e-10 8.76596e-10 -7.66471e-10 0 0 3.93617e-10 -6.46663e-11 2.24901e-11 3.21478e-11 0 0 8.80011e-11 3.44872e-10 -5.41709e-10 3.99823e-10 0 0 -7.29774e-11 3.47959e-10 -5.05855e-10 3.31572e-10 0 0 -8.53767e-11 1.89173e-10 -2.55346e-10 7.14433e-11 0 0 -6.31342e-11 1.73337e-11 -5.50548e-11 -9.19366e-11 0 0 -3.49323e-11 -9.00941e-12 -4.32029e-11 -8.71046e-11 0 0 -1.94827e-11 -1.64912e-11 -3.95599e-11 -5.86888e-11 0 0 -1.1401e-11 -1.7938e-11 -3.30669e-11 -3.56633e-11 0 0 -6.68088e-12 -1.52248e-11 -2.38348e-11 -2.11996e-11 0 0 -4.00499e-12 -9.84204e-12 -1.41663e-11 -1.12071e-11 0 0 -2.32522e-12 -4.94908e-12 -6.95731e-12 -4.91475e-12 0 0 -1.04677e-12 -1.97091e-12 -2.82909e-12 -1.82507e-12 0 0 -1.48671e-13 -8.16756e-13 -7.3295e-13 -7.28825e-13 0 0 1.75855e-13 -3.1612e-13 6.49132e-15 -3.08008e-13 0 0 1.80243e-13 2.81562e-14 3.82229e-16 4.63276e-14 0 0 6.47576e-14 3.15816e-13 -1.91241e-13 2.96464e-13 0 0 2.70114e-14 4.1855e-13 -2.36456e-13 3.87021e-13 0 0 2.28125e-13 1.26995e-13 8.272e-14 2.24185e-13 0 0 4.06176e-13 -1.73764e-13 4.48172e-13 3.60172e-14 0 0 3.50051e-13 -7.07951e-14 3.88922e-13 1.41351e-13 0 0 2.3348e-13 1.53624e-13 1.62602e-13 3.3372e-13 0 0 1.35195e-13 3.68628e-13 -5.51767e-14 4.32572e-13 0 0 2.54979e-13 2.55919e-13 1.1549e-13 2.17798e-13 0 0 4.51469e-13 -8.16544e-15 4.77021e-13 -9.72911e-14 0 0 3.86089e-13 1.24934e-13 4.00717e-13 -7.70947e-14 0 0 2.21375e-13 4.34155e-13 7.28996e-14 1.07907e-13 0 0 6.2904e-14 7.12592e-13 -2.56839e-13 2.47497e-13 0 0 3.32294e-13 2.84944e-13 1.61597e-13 -5.31776e-14 0 0 6.57437e-13 -1.85086e-13 6.02249e-13 -2.88133e-13 0 0 5.90561e-13 5.34625e-14 2.36881e-13 4.35111e-15 0 0 2.02127e-13 7.25655e-13 -5.2175e-13 5.63777e-13 0 0 1.96297e-13 7.48839e-13 -5.77631e-13 6.71282e-13 0 0 4.83547e-13 1.08396e-13 1.70308e-13 1.033e-13 0 0 5.94878e-13 -1.69328e-13 5.24098e-13 -2.75437e-13 0 0 4.08893e-13 9.14256e-14 2.58389e-13 -1.26677e-13 0 0 -6.7086e-14 6.08202e-13 1.68478e-14 -1.48188e-13 0 0 -6.80573e-14 6.31819e-13 6.24491e-14 -3.26195e-13 0 0 3.62566e-13 1.19672e-13 3.56313e-13 -4.32971e-13 0 0 5.84995e-13 -9.96943e-14 4.73411e-13 -3.12424e-13 0 0 3.71612e-13 1.44367e-13 2.061e-13 1.30744e-13 0 0 -1.16652e-13 6.8887e-13 -2.38437e-13 6.10295e-13 0 0 -3.45966e-13 8.81984e-13 -2.89018e-13 7.53999e-13 0 0 3.04067e-13 -2.09028e-13 7.69838e-13 1.53089e-13 0 0 8.28312e-13 -1.09041e-12 1.60941e-12 -3.36702e-13 0 0 1.85671e-13 -1.55836e-13 6.9448e-13 1.72256e-13 0 0 -4.1479e-13 8.93985e-13 -3.62788e-13 6.93487e-13 0 0 -2.6426e-13 7.01923e-13 -1.21975e-13 5.54697e-13 0 0 5.06261e-14 1.74307e-13 4.12074e-13 3.46865e-13 0 0 3.28493e-13 -3.25776e-13 9.184e-13 -3.00337e-14 0 0 3.67008e-13 -4.36453e-13 8.76706e-13 -2.92251e-14 0 0 2.79101e-13 -2.48718e-13 6.50116e-13 5.20017e-15 0 0 1.01416e-13 9.96601e-14 3.06575e-13 9.16475e-14 0 0 -2.1494e-13 5.78476e-13 -3.95714e-13 5.16584e-13 0 0 -2.74135e-14 1.5581e-13 -4.53122e-14 2.66243e-13 0 0 6.65902e-14 -1.72875e-13 2.68058e-13 2.22518e-13 0 0 1.8921e-13 -3.36786e-13 3.20122e-13 2.36818e-13 0 0 2.49858e-13 -3.60096e-13 2.65037e-13 1.2356e-13 0 0 -2.28625e-13 2.25541e-13 -3.52152e-13 5.02017e-13 0 0 -1.8067e-13 1.46682e-13 -2.05873e-13 3.37534e-13 0 0 1.9136e-14 -1.70266e-14 1.4068e-13 -9.04495e-14 0 0 3.25604e-13 -4.15752e-13 4.13856e-13 -1.73678e-13 0 0 5.39239e-13 -6.70576e-13 4.45512e-13 -5.05902e-14 0 0 -1.80052e-14 1.19866e-13 -8.33884e-14 6.00299e-14 0 0 -6.05053e-14 2.21186e-13 6.169e-14 -2.67581e-13 0 0 1.87811e-13 -1.05318e-13 3.52977e-13 -4.22265e-13 0 0 1.02851e-14 1.06467e-13 -2.59492e-15 -2.06052e-14 0 0 2.38276e-14 -2.71264e-14 1.74742e-13 -5.14841e-14 0 0 -6.78186e-14 1.63155e-14 1.92844e-13 4.30476e-14 0 0 1.08473e-13 -2.87949e-14 -1.43996e-14 2.84761e-13 0 0 2.49543e-13 1.20071e-13 -3.03678e-13 3.7926e-13 0 0 4.01079e-13 3.64434e-14 -1.18303e-13 2.15788e-13 0 0 3.95406e-13 -1.48043e-14 -1.68791e-13 4.63676e-13 0 0 6.26575e-14 4.62313e-13 -6.11872e-13 7.81218e-13 0 0 3.63564e-13 2.9219e-14 5.91345e-14 9.21129e-14 0 0 7.76463e-13 -6.10282e-13 9.16817e-13 -6.54728e-13 0 0 4.01705e-13 -1.2808e-14 2.99752e-13 -1.65202e-13 0 0 -4.65729e-14 8.82497e-13 -9.27655e-13 8.34483e-13 0 0 4.8319e-13 3.05129e-13 -4.66476e-13 6.23428e-13 0 0 1.16935e-12 -5.60878e-13 2.14246e-13 3.01895e-13 0 0 1.06181e-12 -3.52201e-13 4.08644e-15 4.88885e-13 0 0 2.33082e-13 8.64551e-13 -8.1319e-13 9.22158e-13 0 0 -3.26513e-13 1.69361e-12 -1.39761e-12 1.22082e-12 0
				</DataArray>
				<DataArray Name="VitesseY" type="Float32" format="ascii">