<?xml version="1.0"?>
<VTKFile type="PolyData">
	<PolyData>
		<Piece NumberOfPoints="1206" NumberOfPolys="1000">
			<Points>
				<DataArray type="Float32" NumberOfComponents="3" format="ascii">
 0 0 0 0.02 0 0 0.04 0 0 0.06 0 0 0.08 0 0 0.1 0 0 0 0.005 0 0.02 0.005 0 0.04 0.005 0 0.06 0.005 0 0.08 0.005 0 0.1 0.005 0 0 0.01 0 0.02 0.01 0 0.04 0.01 0 0.06 0.01 0 0.08 0.01 0 0.1 0.01 0 0 0.015 0 0.02 0.015 0 0.04 0.015 0 0.06 0.015 0 0.08 0.015 0 0.1 0.015 0 0 0.02 0 0.02 0.02 0 0.04 0.02 0 0.06 0.02 0 0.08 0.02 0 0.1 0.02 0 0 0.025 0 0.02 0.025 0 0.04 0.025 0 0.06 0.025 0 0.08 0.025 0 0.1 0.025 0 0 0.03 0 0.02 0.03 0 0.04 0.03 0 0.06 0.03 0 0.08 0.03 0 0.1 0.03 0 0 0.035 0 0.02 0.035 0 0.04 0.035 0 0.06 0.035 0 0.08 0.035 0 0.1 0.035 0 0 0.04 0 0.02 0.04 0 0.04 0.04 0 0.06 0.04 0 0.08 0.04 0 0.1 0.04 0 0 0.045 0 0.02 0.045 0 0.04 0.045 0 0.06 0.045 0 0.08 0.045 0 0.1 0.045 0 0 0.05 0 0.02 0.05 0 0.04 0.05 0 0.06 0.05 0 0.08 0.05 0 0.1 0.05 0 0 0.055 0 0.02 0.055 0 0.04 0.055 0 0.06 0.055 0 0.08 0.055 0 0.1 0.055 0 0 0.06 0 0.02 0.06 0 0.04 0.06 0 0.06 0.06 0 0.08 0.06 0 0.1 0.06 0 0 0.065 0 0.02 0.065 0 0.04 0.065 0 0.06 0.065 0 0.08 0.065 0 0.1 0.065 0 0 0.07 0 0.02 0.07 0 0.04 0.07 0 0.06 0.07 0 0.08 0.07 0 0.1 0.07 0 0 0.075 0 0.02 0.075 0 0.04 0.075 0 0.06 0.075 0 0.08 0.075 0 0.1 0.075 0 0 0.08 0 0.02 0.08 0 0.04 0.08 0 0.06 0.08 0 0.08 0.08 0 0.1 0.08 0 0 0.085 0 0.02 0.085 0 0.04 0.085 0 0.06 0.085 0 0.08 0.085 0 0.1 0.085 0 0 0.09 0 0.02 0.09 0 0.04 0.09 0 0.06 0.09 0 0.08 0.09 0 0.1 0.09 0 0 0.095 0 0.02 0.095 0 0.04 0.095 0 0.06 0.095 0 0.08 0.095 0 0.1 0.095 0 0 0.1 0 0.02 0.1 0 0.04 0.1 0 0.06 0.1 0 0.08 0.1 0 0.1 0.1 0 0 0.105 0 0.02 0.105 0 0.04 0.105 0 0.06 0.105 0 0.08 0.105 0 0.1 0.105 0 0 0.11 0 0.02 0.11 0 0.04 0.11 0 0.06 0.11 0 0.08 0.11 0 0.1 0.11 0 0 0.115 0 0.02 0.115 0 0.04 0.115 0 0.06 0.115 0 0.08 0.115 0 0.1 0.115 0 0 0.12 0 0.02 0.12 0 0.04 0.12 0 0.06 0.12 0 0.08 0.12 0 0.1 0.12 0 0 0.125 0 0.02 0.125 0 0.04 0.125 0 0.06 0.125 0 0.08 0.125 0 0.1 0.125 0 0 0.13 0 0.02 0.13 0 0.04 0.13 0 0.06 0.13 0 0.08 0.13 0 0.1 0.13 0 0 0.135 0 0.02 0.135 0 0.04 0.135 0 0.06 0.135 0 0.08 0.135 0 0.1 0.135 0 0 0.14 0 0.02 0.14 0 0.04 0.14 0 0.06 0.14 0 0.08 0.14 0 0.1 0.14 0 0 0.145 0 0.02 0.145 0 0.04 0.145 0 0.06 0.145 0 0.08 0.145 0 0.1 0.145 0 0 0.15 0 0.02 0.15 0 0.04 0.15 0 0.06 0.15 0 0.08 0.15 0 0.1 0.15 0 0 0.155 0 0.02 0.155 0 0.04 0.155 0 0.06 0.155 0 0.08 0.155 0 0.1 0.155 0 0 0.16 0 0.02 0.16 0 0.04 0.16 0 0.06 0.16 0 0.08 0.16 0 0.1 0.16 0 0 0.165 0 0.02 0.165 0 0.04 0.165 0 0.06 0.165 0 0.08 0.165 0 0.1 0.165 0 0 0.17 0 0.02 0.17 0 0.04 0.17 0 0.06 0.17 0 0.08 0.17 0 0.1 0.17 0 0 0.175 0 0.02 0.175 0 0.04 0.175 0 0.06 0.175 0 0.08 0.175 0 0.1 0.175 0 0 0.18 0 0.02 0.18 0 0.04 0.18 0 0.06 0.18 0 0.08 0.18 0 0.1 0.18 0 0 0.185 0 0.02 0.185 0 0.04 0.185 0 0.06 0.185 0 0.08 0.185 0 0.1 0.185 0 0 0.19 0 0.02 0.19 0 0.04 0.19 0 0.06 0.19 0 0.08 0.19 0 0.1 0.19 0 0 0.195 0 0.02 0.195 0 0.04 0.195 0 0.06 0.195 0 0.08 0.195 0 0.1 0.195 0 0 0.2 0 0.02 0.2 0 0.04 0.2 0 0.06 0.2 0 0.08 0.2 0 0.1 0.2 0 0 0.205 0 0.02 0.205 0 0.04 0.205 0 0.06 0.205 0 0.08 0.205 0 0.1 0.205 0 0 0.21 0 0.02 0.21 0 0.04 0.21 0 0.06 0.21 0 0.08 0.21 0 0.1 0.21 0 0 0.215 0 0.02 0.215 0 0.04 0.215 0 0.06 0.215 0 0.08 0.215 0 0.1 0.215 0 0 0.22 0 0.02 0.22 0 0.04 0.22 0 0.06 0.22 0 0.08 0.22 0 0.1 0.22 0 0 0.225 0 0.02 0.225 0 0.04 0.225 0 0.06 0.225 0 0.08 0.225 0 0.1 0.225 0 0 0.23 0 0.02 0.23 0 0.04 0.23 0 0.06 0.23 0 0.08 0.23 0 0.1 0.23 0 0 0.235 0 0.02 0.235 0 0.04 0.235 0 0.06 0.235 0 0.08 0.235 0 0.1 0.235 0 0 0.24 0 0.02 0.24 0 0.04 0.24 0 0.06 0.24 0 0.08 0.24 0 0.1 0.24 0 0 0.245 0 0.02 0.245 0 0.04 0.245 0 0.06 0.245 0 0.08 0.245 0 0.1 0.245 0 0 0.25 0 0.02 0.25 0 0.04 0.25 0 0.06 0.25 0 0.08 0.25 0 0.1 0.25 0 0 0.255 0 0.02 0.255 0 0.04 0.255 0 0.06 0.255 0 0.08 0.255 0 0.1 0.255 0 0 0.26 0 0.02 0.26 0 0.04 0.26 0 0.06 0.26 0 0.08 0.26 0 0.1 0.26 0 0 0.265 0 0.02 0.265 0 0.04 0.265 0 0.06 0.265 0 0.08 0.265 0 0.1 0.265 0 0 0.27 0 0.02 0.27 0 0.04 0.27 0 0.06 0.27 0 0.08 0.27 0 0.1 0.27 0 0 0.275 0 0.02 0.275 0 0.04 0.275 0 0.06 0.275 0 0.08 0.275 0 0.1 0.275 0 0 0.28 0 0.02 0.28 0 0.04 0.28 0 0.06 0.28 0 0.08 0.28 0 0.1 0.28 0 0 0.285 0 0.02 0.285 0 0.04 0.285 0 0.06 0.285 0 0.08 0.285 0 0.1 0.285 0 0 0.29 0 0.02 0.29 0 0.04 0.29 0 0.06 0.29 0 0.08 0.29 0 0.1 0.29 0 0 0.295 0 0.02 0.295 0 0.04 0.295 0 0.06 0.295 0 0.08 0.295 0 0.1 0.295 0 0 0.3 0 0.02 0.3 0 0.04 0.3 0 0.06 0.3 0 0.08 0.3 0 0.1 0.3 0 0 0.305 0 0.02 0.305 0 0.04 0.305 0 0.06 0.305 0 0.08 0.305 0 0.1 0.305 0 0 0.31 0 0.02 0.31 0 0.04 0.31 0 0.06 0.31 0 0.08 0.31 0 0.1 0.31 0 0 0.315 0 0.02 0.315 0 0.04 0.315 0 0.06 0.315 0 0.08 0.315 0 0.1 0.315 0 0 0.32 0 0.02 0.32 0 0.04 0.32 0 0.06 0.32 0 0.08 0.32 0 0.1 0.32 0 0 0.325 0 0.02 0.325 0 0.04 0.325 0 0.06 0.325 0 0.08 0.325 0 0.1 0.325 0 0 0.33 0 0.02 0.33 0 0.04 0.33 0 0.06 0.33 0 0.08 0.33 0 0.1 0.33 0 0 0.335 0 0.02 0.335 0 0.04 0.335 0 0.06 0.335 0 0.08 0.335 0 0.1 0.335 0 0 0.34 0 0.02 0.34 0 0.04 0.34 0 0.06 0.34 0 0.08 0.34 0 0.1 0.34 0 0 0.345 0 0.02 0.345 0 0.04 0.345 0 0.06 0.345 0 0.08 0.345 0 0.1 0.345 0 0 0.35 0 0.02 0.35 0 0.04 0.35 0 0.06 0.35 0 0.08 0.35 0 0.1 0.35 0 0 0.355 0 0.02 0.355 0 0.04 0.355 0 0.06 0.355 0 0.08 0.355 0 0.1 0.355 0 0 0.36 0 0.02 0.36 0 0.04 0.36 0 0.06 0.36 0 0.08 0.36 0 0.1 0.36 0 0 0.365 0 0.02 0.365 0 0.04 0.365 0 0.06 0.365 0 0.08 0.365 0 0.1 0.365 0 0 0.37 0 0.02 0.37 0 0.04 0.37 0 0.06 0.37 0 0.08 0.37 0 0.1 0.37 0 0 0.375 0 0.02 0.375 0 0.04 0.375 0 0.06 0.375 0 0.08 0.375 0 0.1 0.375 0 0 0.38 0 0.02 0.38 0 0.04 0.38 0 0.06 0.38 0 0.08 0.38 0 0.1 0.38 0 0 0.385 0 0.02 0.385 0 0.04 0.385 0 0.06 0.385 0 0.08 0.385 0 0.1 0.385 0 0 0.39 0 0.02 0.39 0 0.04 0.39 0 0.06 0.39 0 0.08 0.39 0 0.1 0.39 0 0 0.395 0 0.02 0.395 0 0.04 0.395 0 0.06 0.395 0 0.08 0.395 0 0.1 0.395 0 0 0.4 0 0.02 0.4 0 0.04 0.4 0 0.06 0.4 0 0.08 0.4 0 0.1 0.4 0 0 0.405 0 0.02 0.405 0 0.04 0.405 0 0.06 0.405 0 0.08 0.405 0 0.1 0.405 0 0 0.41 0 0.02 0.41 0 0.04 0.41 0 0.06 0.41 0 0.08 0.41 0 0.1 0.41 0 0 0.415 0 0.02 0.415 0 0.04 0.415 0 0.06 0.415 0 0.08 0.415 0 0.1 0.415 0 0 0.42 0 0.02 0.42 0 0.04 0.42 0 0.06 0.42 0 0.08 0.42 0 0.1 0.42 0 0 0.425 0 0.02 0.425 0 0.04 0.425 0 0.06 0.425 0 0.08 0.425 0 0.1 0.425 0 0 0.43 0 0.02 0.43 0 0.04 0.43 0 0.06 0.43 0 0.08 0.43 0 0.1 0.43 0 0 0.435 0 0.02 0.435 0 0.04 0.435 0 0.06 0.435 0 0.08 0.435 0 0.1 0.435 0 0 0.44 0 0.02 0.44 0 0.04 0.44 0 0.06 0.44 0 0.08 0.44 0 0.1 0.44 0 0 0.445 0 0.02 0.445 0 0.04 0.445 0 0.06 0.445 0 0.08 0.445 0 0.1 0.445 0 0 0.45 0 0.02 0.45 0 0.04 0.45 0 0.06 0.45 0 0.08 0.45 0 0.1 0.45 0 0 0.455 0 0.02 0.455 0 0.04 0.455 0 0.06 0.455 0 0.08 0.455 0 0.1 0.455 0 0 0.46 0 0.02 0.46 0 0.04 0.46 0 0.06 0.46 0 0.08 0.46 0 0.1 0.46 0 0 0.465 0 0.02 0.465 0 0.04 0.465 0 0.06 0.465 0 0.08 0.465 0 0.1 0.465 0 0 0.47 0 0.02 0.47 0 0.04 0.47 0 0.06 0.47 0 0.08 0.47 0 0.1 0.47 0 0 0.475 0 0.02 0.475 0 0.04 0.475 0 0.06 0.475 0 0.08 0.475 0 0.1 0.475 0 0 0.48 0 0.02 0.48 0 0.04 0.48 0 0.06 0.48 0 0.08 0.48 0 0.1 0.48 0 0 0.485 0 0.02 0.485 0 0.04 0.485 0 0.06 0.485 0 0.08 0.485 0 0.1 0.485 0 0 0.49 0 0.02 0.49 0 0.04 0.49 0 0.06 0.49 0 0.08 0.49 0 0.1 0.49 0 0 0.495 0 0.02 0.495 0 0.04 0.495 0 0.06 0.495 0 0.08 0.495 0 0.1 0.495 0 0 0.5 0 0.02 0.5 0 0.04 0.5 0 0.06 0.5 0 0.08 0.5 0 0.1 0.5 0 0 0.505 0 0.02 0.505 0 0.04 0.505 0 0.06 0.505 0 0.08 0.505 0 0.1 0.505 0 0 0.51 0 0.02 0.51 0 0.04 0.51 0 0.06 0.51 0 0.08 0.51 0 0.1 0.51 0 0 0.515 0 0.02 0.515 0 0.04 0.515 0 0.06 0.515 0 0.08 0.515 0 0.1 0.515 0 0 0.52 0 0.02 0.52 0 0.04 0.52 0 0.06 0.52 0 0.08 0.52 0 0.1 0.52 0 0 0.525 0 0.02 0.525 0 0.04 0.525 0 0.06 0.525 0 0.08 0.525 0 0.1 0.525 0 0 0.53 0 0.02 0.53 0 0.04 0.53 0 0.06 0.53 0 0.08 0.53 0 0.1 0.53 0 0 0.535 0 0.02 0.535 0 0.04 0.535 0 0.06 0.535 0 0.08 0.535 0 0.1 0.535 0 0 0.54 0 0.02 0.54 0 0.04 0.54 0 0.06 0.54 0 0.08 0.54 0 0.1 0.54 0 0 0.545 0 0.02 0.545 0 0.04 0.545 0 0.06 0.545 0 0.08 0.545 0 0.1 0.545 0 0 0.55 0 0.02 0.55 0 0.04 0.55 0 0.06 0.55 0 0.08 0.55 0 0.1 0.55 0 0 0.555 0 0.02 0.555 0 0.04 0.555 0 0.06 0.555 0 0.08 0.555 0 0.1 0.555 0 0 0.56 0 0.02 0.56 0 0.04 0.56 0 0.06 0.56 0 0.08 0.56 0 0.1 0.56 0 0 0.565 0 0.02 0.565 0 0.04 0.565 0 0.06 0.565 0 0.08 0.565 0 0.1 0.565 0 0 0.57 0 0.02 0.57 0 0.04 0.57 0 0.06 0.57 0 0.08 0.57 0 0.1 0.57 0 0 0.575 0 0.02 0.575 0 0.04 0.575 0 0.06 0.575 0 0.08 0.575 0 0.1 0.575 0 0 0.58 0 0.02 0.58 0 0.04 0.58 0 0.06 0.58 0 0.08 0.58 0 0.1 0.58 0 0 0.585 0 0.02 0.585 0 0.04 0.585 0 0.06 0.585 0 0.08 0.585 0 0.1 0.585 0 0 0.59 0 0.02 0.59 0 0.04 0.59 0 0.06 0.59 0 0.08 0.59 0 0.1 0.59 0 0 0.595 0 0.02 0.595 0 0.04 0.595 0 0.06 0.595 0 0.08 0.595 0 0.1 0.595 0 0 0.6 0 0.02 0.6 0 0.04 0.6 0 0.06 0.6 0 0.08 0.6 0 0.1 0.6 0 0 0.605 0 0.02 0.605 0 0.04 0.605 0 0.06 0.605 0 0.08 0.605 0 0.1 0.605 0 0 0.61 0 0.02 0.61 0 0.04 0.61 0 0.06 0.61 0 0.08 0.61 0 0.1 0.61 0 0 0.615 0 0.02 0.615 0 0.04 0.615 0 0.06 0.615 0 0.08 0.615 0 0.1 0.615 0 0 0.62 0 0.02 0.62 0 0.04 0.62 0 0.06 0.62 0 0.08 0.62 0 0.1 0.62 0 0 0.625 0 0.02 0.625 0 0.04 0.625 0 0.06 0.625 0 0.08 0.625 0 0.1 0.625 0 0 0.63 0 0.02 0.63 0 0.04 0.63 0 0.06 0.63 0 0.08 0.63 0 0.1 0.63 0 0 0.635 0 0.02 0.635 0 0.04 0.635 0 0.06 0.635 0 0.08 0.635 0 0.1 0.635 0 0 0.64 0 0.02 0.64 0 0.04 0.64 0 0.06 0.64 0 0.08 0.64 0 0.1 0.64 0 0 0.645 0 0.02 0.645 0 0.04 0.645 0 0.06 0.645 0 0.08 0.645 0 0.1 0.645 0 0 0.65 0 0.02 0.65 0 0.04 0.65 0 0.06 0.65 0 0.08 0.65 0 0.1 0.65 0 0 0.655 0 0.02 0.655 0 0.04 0.655 0 0.06 0.655 0 0.08 0.655 0 0.1 0.655 0 0 0.66 0 0.02 0.66 0 0.04 0.66 0 0.06 0.66 0 0.08 0.66 0 0.1 0.66 0 0 0.665 0 0.02 0.665 0 0.04 0.665 0 0.06 0.665 0 0.08 0.665 0 0.1 0.665 0 0 0.67 0 0.02 0.67 0 0.04 0.67 0 0.06 0.67 0 0.08 0.67 0 0.1 0.67 0 0 0.675 0 0.02 0.675 0 0.04 0.675 0 0.06 0.675 0 0.08 0.675 0 0.1 0.675 0 0 0.68 0 0.02 0.68 0 0.04 0.68 0 0.06 0.68 0 0.08 0.68 0 0.1 0.68 0 0 0.685 0 0.02 0.685 0 0.04 0.685 0 0.06 0.685 0 0.08 0.685 0 0.1 0.685 0 0 0.69 0 0.02 0.69 0 0.04 0.69 0 0.06 0.69 0 0.08 0.69 0 0.1 
[...]
			<PointData Scalars="VitesseX">
				<DataArray Name="VitesseX" type="Float32" format="ascii">
 0 -8.57274e-15 -1.51944e-14 2.26999e-14 1.78628e-14 0 0 -8.29083e-15 -1.59507e-14 2.38816e-14 1.85268e-14 0 0 -1.40049e-14 -4.52437e-15 1.10918e-14 2.7185e-14 0 0 -1.76139e-14 3.51765e-15 5.30052e-15 3.08214e-14 0 0 -3.65445e-15 -1.36768e-14 2.32412e-14 3.12571e-14 0 0 -1.2201e-14 1.43968e-14 1.20995e-15 5.22492e-14 0 0 -4.51171e-14 7.7e-14 -3.30044e-14 7.29839e-14 0 0 -2.75233e-14 4.29542e-14 5.05297e-14 1.51485e-14 0 0 -1.30684e-14 1.8517e-14 1.05215e-13 -2.29198e-14 0 0 1.60678e-14 -1.47081e-15 1.0234e-13 -1.00777e-15 0 0 6.79946e-14 -5.75367e-14 1.29808e-13 -1.7339e-16 0 0 4.45344e-14 1.39993e-14 3.47103e-14 5.43566e-14 0 0 3.38501e-14 6.22685e-14 -2.28652e-14 7.70978e-14 0 0 3.37128e-14 7.4322e-14 -2.52701e-14 5.37571e-14 0 0 4.3121e-14 4.72746e-14 7.64038e-16 1.97774e-14 0 0 4.87214e-14 2.38187e-14 2.28187e-14 -3.10372e-15 0 0 4.49557e-14 5.05345e-14 -1.81338e-14 2.85911e-14 0 0 8.26155e-14 -5.24246e-15 3.83769e-14 7.88375e-15 0 0 8.18471e-14 -1.51213e-14 4.76125e-14 -1.85434e-15 0 0 4.04141e-14 4.80748e-14 -4.42448e-14 5.97614e-14 0 0 2.49964e-14 2.42663e-14 -5.76481e-14 1.03417e-13 0 0 2.58019e-14 -2.60465e-14 -7.03864e-14 1.69622e-13 0 0 2.61585e-14 -1.03434e-13 4.07624e-14 1.10433e-13 0 0 -6.82614e-14 -3.18112e-14 2.93955e-14 9.98071e-14 0 0 -1.25327e-13 3.50989e-14 -3.19019e-14 1.19264e-13 0 0 -1.00672e-13 -1.4879e-14 3.49147e-14 3.49734e-14 0 0 6.97522e-15 -1.56285e-13 1.25106e-13 -1.38064e-15 0 0 4.23583e-14 -1.47169e-13 5.68254e-14 5.96721e-14 0 0 -4.58263e-14 9.8281e-15 -7.75556e-14 7.21878e-14 0 0 -7.25437e-14 7.23052e-14 -1.10868e-13 1.25349e-14 0 0 -7.40057e-14 1.19939e-13 -1.69092e-13 2.86572e-14 0 0 -8.27049e-14 9.50679e-14 -1.30458e-13 3.39502e-14 0 0 4.44284e-15 -1.12191e-13 1.05883e-13 -8.62216e-14 0 0 6.52853e-14 -2.06406e-13 2.25561e-13 -1.85149e-13 0 0 -2.95798e-14 1.72759e-14 -1.92665e-14 -3.33767e-14 0 0 -7.09469e-14 1.36044e-13 -1.6691e-13 1.04938e-13 0 0 -2.63583e-14 1.01916e-13 -1.0272e-13 2.95936e-14 0 0 1.87567e-16 4.71031e-14 -5.09951e-15 -3.52483e-14 0 0 3.88394e-14 -5.98233e-14 1.22483e-13 -7.24704e-14 0 0 5.30025e-14 -8.25399e-14 1.18221e-13 -7.10278e-14 0 0 -6.34752e-14 1.0996e-13 -3.74749e-14 -9.73519e-15 0 0 -6.62961e-14 1.08842e-13 6.49215e-14 -1.11886e-13 0 0 -1.20554e-14 -1.3498e-15 1.92406e-13 -1.50932e-13 0 0 2.76439e-14 -7.68777e-14 1.8961e-13 -4.14945e-14 0 0 6.92632e-14 -7.99212e-14 1.41567e-13 2.99326e-14 0 0 1.20289e-13 -5.92201e-14 1.25888e-13 -6.37691e-15 0 0 1.69519e-13 -8.90601e-14 1.58751e-13 -5.38223e-14 0 0 3.53737e-14 1.5497e-13 -8.14548e-14 1.0394e-13 0 0 -1.61584e-14 2.45076e-13 -1.73769e-13 1.84257e-13 0 0 2.4057e-13 -1.14572e-13 6.16763e-14 1.07951e-13 0 0 5.33265e-13 -4.63115e-13 2.57027e-13 6.59166e-14 0 0 3.42236e-13 -1.49767e-13 -3.39069e-14 1.68211e-13 0 0 1.75408e-14 3.88505e-13 -5.02245e-13 3.19103e-13 0 0 2.24062e-13 1.03551e-13 -1.70739e-13 2.25876e-14 0 0 4.82352e-13 -2.96572e-13 1.94112e-13 -2.33915e-13 0 0 3.21807e-13 -4.65148e-14 -1.07409e-13 -6.57576e-14 0 0 2.09037e-13 6.82604e-15 -6.35881e-14 -1.55547e-13 0 0 2.10988e-13 -6.77205e-14 9.16406e-14 -2.94575e-13 0 0 1.00506e-13 1.62418e-13 -2.59115e-13 -2.08105e-14 0 0 1.57348e-13 9.40017e-14 -2.84673e-13 6.05144e-14 0 0 1.53196e-13 3.7335e-14 -6.25818e-14 -1.54898e-13 0 0 7.07081e-14 7.9688e-14 2.20309e-14 -2.12144e-13 0 0 7.05663e-14 7.04382e-15 8.2708e-14 -1.33375e-13 0 0 1.1198e-13 -1.03365e-13 1.51369e-13 -6.5984e-14 0 0 5.2297e-14 -9.25628e-15 6.31916e-14 3.1556e-14 0 0 -1.30403e-13 2.86668e-13 -1.50145e-13 1.27519e-13 0 0 8.74239e-14 4.67738e-14 8.63315e-14 -6.00011e-14 0 0 2.64977e-13 2.68342e-15 9.6074e-14 -1.02886e-13 0 0 3.09321e-13 1.11342e-13 9.73286e-15 -3.10474e-14 0 0 3.89064e-13 8.70559e-14 1.12596e-13 -6.10229e-14 0 0 3.94262e-13 7.70735e-14 1.09683e-13 2.34841e-15 0 0 4.04171e-13 1.14149e-14 1.08964e-13 2.81183e-14 0 0 5.58924e-13 -1.74071e-13 2.66052e-13 -6.93906e-14 0 0 4.31996e-13 1.31499e-13 -3.87988e-14 1.9784e-13 0 0 3.76332e-13 9.368e-14 1.56834e-13 1.66482e-13 0 0 4.99817e-13 -1.25869e-13 4.87674e-13 9.51703e-14 0 0 3.98854e-13 3.0551e-13 2.07442e-13 4.64927e-13 0 0 5.93783e-13 6.2493e-13 7.47241e-13 5.23827e-13 0 0 1.34316e-12 1.91821e-12 2.05196e-12 1.14521e-12 0 0 3.95281e-12 5.07562e-12 5.95555e-12 3.26607e-12 0 0 8.97909e-12 1.40765e-11 1.37028e-11 8.93114e-12 0 0 1.87847e-11 3.11032e-11 2.93534e-11 1.86395e-11 0 0 3.58284e-11 5.64011e-11 5.55601e-11 3.26199e-11 0 0 5.85494e-11 9.15266e-11 8.78842e-11 5.17431e-11 0 0 8.48614e-11 1.32507e-10 1.22497e-10 7.28556e-11 0 0 1.1338e-10 1.71678e-10 1.56297e-10 9.05819e-11 0 0 1.39528e-10 2.05702e-10 1.83844e-10 1.02023e-10 0 0 1.60229e-10 2.3164e-10 2.01295e-10 1.06873e-10 0 0 1.73581e-10 2.476e-10 2.05973e-10 1.04375e-10 0 0 1.79282e-10 2.51147e-10 1.97715e-10 9.6165e-11 0 0 1.72423e-10 2.39148e-10 1.80175e-10 7.94685e-11 0 0 1.55589e-10 2.13093e-10 1.50364e-10 5.7794e-11 0 0 1.23999e-10 1.69815e-10 1.14273e-10 3.41723e-11 0 0 7.36761e-11 1.06087e-10 6.50304e-11 4.24022e-12 0 0 1.43936e-11 3.66263e-11 1.27324e-11 -2.23392e-11 0 0 -8.47822e-11 -6.44653e-11 -4.44538e-11 -5.5133e-11 0 0 -1.77259e-10 -1.62156e-10 -1.05308e-10 -8.84977e-11 0 0 -3.05556e-10 -2.94828e-10 -1.67497e-10 -1.16206e-10 0 0 -4.48956e-10 -4.16625e-10 -2.38281e-10 -1.33057e-10 0 0 -5.56014e-10 -6.43296e-10 -3.00391e-10 -9.9701e-11 0 0 -1.02489e-09 -6.68132e-10 -3.92096e-10 -8.19725e-11 0 0 -1.01545e-09 -9.25174e-10 -1.27539e-10 -2.70163e-10 0 0 -5.54594e-10 -1.43646e-09 1.58531e-10 -3.79783e-10 0 0 2.11228e-10 -1.23344e-09 1.05123e-10 -3.84024e-10 0 0 1.15389e-09 -1.00225e-09 -1.64159e-09 1.53359e-09 0 0 1.31078e-09 -7.76861e-10 -3.58961e-09 3.59136e-09 0 0 2.81984e-10 4.38773e-10 -3.39816e-09 3.2187e-09 0 0 -2.31903e-09 1.84308e-09 -2.53962e-09 1.30977e-09 0 0 -2.6657e-09 1.65482e-09 3.35803e-10 -3.07386e-09 0 0 -2.11697e-09 5.09141e-10 2.95502e-09 -3.95367e-09 0 0 -6.87714e-10 -4.86763e-10 2.20018e-09 -2.95314e-09 0 0 2.76536e-10 -7.13888e-10 1.13102e-09 -1.55363e-09 0 0 5.0064e-10 -1.08991e-09 1.15983e-09 -1.23888e-09 0 0 6.90401e-10 -8.17129e-10 -5.32482e-10 6.10009e-10 0 0 6.42425e-10 -1.6406e-10 -1.5966e-09 1.64451e-09 0 0 1.12303e-10 2.15135e-10 -6.56204e-10 7.31038e-10 0 0 -5.36719e-10 9.58375e-10 4.00035e-11 -7.30323e-11 0 0 -5.78346e-10 1.43576e-09 3.15674e-11 -1.04592e-10 0 0 -1.71368e-10 1.07885e-09 1.74309e-10 -2.16184e-10 0 0 4.41835e-10 2.31116e-10 3.62351e-10 -1.80179e-10 0 0 8.31848e-10 -3.18856e-10 4.61387e-10 -1.23865e-10 0 0 8.64796e-10 -3.78067e-10 4.53718e-10 -7.66988e-11 0 0 6.25937e-10 -8.86051e-11 1.40322e-10 1.45704e-10 0 0 2.06012e-10 4.126e-10 -2.94537e-10 3.52437e-10 0 0 7.88018e-11 4.75244e-10 -3.19308e-10 3.40564e-10 0 0 9.16829e-11 3.10356e-10 -1.32902e-10 1.91065e-10 0 0 8.59092e-11 1.30999e-10 3.57502e-11 3.62904e-11 0 0 6.93994e-11 7.08075e-11 4.30042e-11 7.90036e-12 0 0 4.43455e-11 4.64531e-11 2.66316e-11 3.20206e-12 0 0 2.37865e-11 2.60985e-11 1.04169e-11 -1.31328e-12 0 0 1.02793e-11 9.74268e-12 5.82713e-13 -4.07029e-12 0 0 2.77908e-12 6.38886e-13 -3.44001e-12 -4.54401e-12 0 0 -4.03734e-13 -2.4097e-12 -4.02104e-12 -3.54718e-12 0 0 -9.5032e-13 -2.45059e-12 -2.66679e-12 -2.1865e-12 0 0 -6.85986e-13 -1.18547e-12 -1.43104e-12 -9.37462e-13 0 0 -2.88007e-13 -2.68001e-13 -5.27585e-13 -2.7553e-13 0 0 3.73939e-14 9.07876e-15 9.89856e-14 -4.09672e-14 0 0 1.19109e-13 2.56739e-13 1.56343e-13 2.12688e-13 0 0 3.11089e-13 1.31687e-13 3.57669e-13 2.47999e-13 0 0 3.19588e-13 2.40239e-13 2.50057e-13 4.38437e-13 0 0 2.24395e-13 4.73955e-13 5.92448e-14 5.60327e-13 0 0 3.89037e-13 2.52732e-13 3.8847e-13 2.3793e-13 0 0 3.99343e-13 2.94585e-13 4.06693e-13 1.96569e-13 0 0 4.13568e-13 3.13267e-13 4.0156e-13 1.66532e-13 0 0 4.54172e-13 3.08674e-13 3.59415e-13 1.12134e-13 0 0 2.60593e-13 6.83738e-13 -1.33263e-13 4.18972e-13 0 0 4.63561e-13 3.91965e-13 8.86256e-14 2.24017e-13 0 0 5.40546e-13 2.92568e-13 1.31197e-13 1.66285e-13 0 0 4.198e-13 4.68727e-13 -1.01777e-13 3.76857e-13 0 0 4.88166e-13 4.08041e-13 -1.14657e-13 5.02674e-13 0 0 4.56328e-13 5.14603e-13 -2.04238e-13 5.48338e-13 0 0 5.79038e-13 2.78759e-13 1.85515e-13 1.85667e-13 0 0 5.37087e-13 3.12307e-13 2.31735e-13 1.64967e-13 0 0 4.46148e-13 4.16995e-13 1.6653e-13 2.07518e-13 0 0 3.52978e-13 4.77332e-13 1.64686e-13 1.95344e-13 0 0 3.08256e-13 5.02018e-13 1.27025e-13 2.43034e-13 0 0 4.78988e-13 3.52549e-13 3.30905e-13 -1.93546e-14 0 0 6.04813e-13 1.93455e-13 5.98945e-13 -2.10976e-13 0 0 5.20806e-13 1.751e-13 5.89926e-13 7.43161e-14 0 0 2.98732e-13 3.97111e-13 4.35286e-13 3.12922e-13 0 0 3.15314e-13 3.35015e-13 6.54721e-13 1.10902e-13 0 0 4.38928e-13 2.50553e-13 7.2613e-13 4.52087e-14 0 0 5.32661e-13 2.48566e-13 6.52498e-13 1.2411e-13 0 0 3.96343e-13 4.8803e-13 3.57931e-13 4.57627e-13 0 0 -5.34141e-14 1.03887e-12 -1.86646e-13 8.94179e-13 0 0 -2.12413e-13 9.81258e-13 6.35894e-14 6.55003e-13 0 0 2.26999e-13 1.50614e-13 8.76573e-13 2.64367e-13 0 0 6.03386e-13 -2.74476e-13 1.03384e-12 3.42725e-13 0 0 6.23898e-13 -2.78245e-13 1.06052e-12 2.85399e-13 0 0 2.94092e-13 1.49066e-13 8.13849e-13 3.07825e-13 0 0 -1.27679e-13 7.69949e-13 3.36732e-13 4.69776e-13 0 0 -1.61313e-13 6.98301e-13 3.60187e-13 4.49422e-13 0 0 -1.26041e-13 6.59141e-13 2.08291e-13 6.23178e-13 0 0 1.13412e-13 3.23823e-13 2.92362e-13 6.4381e-13 0 0 3.48952e-13 -1.69046e-13 6.32832e-13 3.86477e-13 0 0 2.75598e-13 -1.39812e-13 6.35273e-13 2.03908e-13 0 0 9.07022e-14 1.92249e-13 2.5389e-13 3.97973e-13 0 0 -3.35732e-14 4.33425e-13 -1.37898e-14 6.15782e-13 0 0 3.53752e-13 -1.54503e-13 6.44631e-13 2.1485e-13 0 0 5.64295e-13 -3.22174e-13 7.65463e-13 9.87104e-14 0 0 4.69615e-13 4.45585e-14 3.34328e-13 2.19776e-13 0 0 2.6238e-13 3.31116e-13 1.73762e-13 1.43376e-13 0 0 -2.47325e-13 8.42137e-13 -6.82309e-14 1.73531e-13 0 0 -2.32955e-14 4.93232e-13 3.46717e-13 -4.69396e-14 0 0 5.04181e-13 -4.92972e-14 6.42449e-13 -1.21323e-13 0 0 3.32608e-13 2.9402e-13 2.6681e-13 7.56479e-14 0 0 8.96004e-14 6.7469e-13 -9.87556e-14 3.53378e-13 0 0 4.3074e-13 1.92033e-13 2.92813e-13 2.1732e-13 0 0 6.82779e-13 -1.05977e-13 5.20256e-13 7.80144e-14 0 0 6.34285e-13 3.4316e-15 4.19016e-13 1.22839e-13 0 0 6.48791e-13 8.54857e-14 4.39619e-13 4.40138e-14 0 0 7.60554e-13 7.1801e-14 3.99052e-13 1.29838e-13 0 0 5.21072e-13 3.27607e-13 1.83645e-13 3.96947e-13 0 0 3.7893e-13 4.33947e-13 3.3453e-13 2.59889e-13 0 0 6.27049e-13 2.47107e-13 5.05495e-13 2.70715e-13 0 0 5.85993e-13 6.40059e-13 -2.39456e-13 1.00141e-12 0 0 7.12763e-13 5.43228e-13 -4.49587e-13 1.35361e-12 0 0 6.95956e-13 4.55329e-13 -4.31028e-13 1.36558e-12 0 0 6.41155e-13 3.87016e-13 -1.26515e-13 9.19803e-13 0 0 5.41267e-13 4.97087e-13 -8.56169e-14 8.2035e-13 0 0 3.14444e-13 8.84539e-13 -5.2029e-13 1.1601e-12 0
				</DataArray>
				<DataArray Name="VitesseY" type="Float32" format="ascii">