<?xml version="1.0"?>
<VTKFile type="PolyData">
	<PolyData>
		<Piece NumberOfPoints="1206" NumberOfPolys="1000">
			<Points>
				<DataArray type="Float32" NumberOfComponents="3" format="ascii">
 0 0 0 0.02 0 0 0.04 0 0 0.06 0 0 0.08 0 0 0.1 0 0 0 0.005 0 0.02 0.005 0 0.04 0.005 0 0.06 0.005 0 0.08 0.005 0 0.1 0.005 0 0 0.01 0 0.02 0.01 0 0.04 0.01 0 0.06 0.01 0 0.08 0.01 0 0.1 0.01 0 0 0.015 0 0.02 0.015 0 0.04 0.015 0 0.06 0.015 0 0.08 0.015 0 0.1 0.015 0 0 0.02 0 0.02 0.02 0 0.04 0.02 0 0.06 0.02 0 0.08 0.02 0 0.1 0.02 0 0 0.025 0 0.02 0.025 0 0.04 0.025 0 0.06 0.025 0 0.08 0.025 0 0.1 0.025 0 0 0.03 0 0.02 0.03 0 0.04 0.03 0 0.06 0.03 0 0.08 0.03 0 0.1 0.03 0 0 0.035 0 0.02 0.035 0 0.04 0.035 0 0.06 0.035 0 0.08 0.035 0 0.1 0.035 0 0 0.04 0 0.02 0.04 0 0.04 0.04 0 0.06 0.04 0 0.08 0.04 0 0.1 0.04 0 0 0.045 0 0.02 0.045 0 0.04 0.045 0 0.06 0.045 0 0.08 0.045 0 0.1 0.045 0 0 0.05 0 0.02 0.05 0 0.04 0.05 0 0.06 0.05 0 0.08 0.05 0 0.1 0.05 0 0 0.055 0 0.02 0.055 0 0.04 0.055 0 0.06 0.055 0 0.08 0.055 0 0.1 0.055 0 0 0.06 0 0.02 0.06 0 0.04 0.06 0 0.06 0.06 0 0.08 0.06 0 0.1 0.06 0 0 0.065 0 0.02 0.065 0 0.04 0.065 0 0.06 0.065 0 0.08 0.065 0 0.1 0.065 0 0 0.07 0 0.02 0.07 0 0.04 0.07 0 0.06 0.07 0 0.08 0.07 0 0.1 0.07 0 0 0.075 0 0.02 0.075 0 0.04 0.075 0 0.06 0.075 0 0.08 0.075 0 0.1 0.075 0 0 0.08 0 0.02 0.08 0 0.04 0.08 0 0.06 0.08 0 0.08 0.08 0 0.1 0.08 0 0 0.085 0 0.02 0.085 0 0.04 0.085 0 0.06 0.085 0 0.08 0.085 0 0.1 0.085 0 0 0.09 0 0.02 0.09 0 0.04 0.09 0 0.06 0.09 0 0.08 0.09 0 0.1 0.09 0 0 0.095 0 0.02 0.095 0 0.04 0.095 0 0.06 0.095 0 0.08 0.095 0 0.1 0.095 0 0 0.1 0 0.02 0.1 0 0.04 0.1 0 0.06 0.1 0 0.08 0.1 0 0.1 0.1 0 0 0.105 0 0.02 0.105 0 0.04 0.105 0 0.06 0.105 0 0.08 0.105 0 0.1 0.105 0 0 0.11 0 0.02 0.11 0 0.04 0.11 0 0.06 0.11 0 0.08 0.11 0 0.1 0.11 0 0 0.115 0 0.02 0.115 0 0.04 0.115 0 0.06 0.115 0 0.08 0.115 0 0.1 0.115 0 0 0.12 0 0.02 0.12 0 0.04 0.12 0 0.06 0.12 0 0.08 0.12 0 0.1 0.12 0 0 0.125 0 0.02 0.125 0 0.04 0.125 0 0.06 0.125 0 0.08 0.125 0 0.1 0.125 0 0 0.13 0 0.02 0.13 0 0.04 0.13 0 0.06 0.13 0 0.08 0.13 0 0.1 0.13 0 0 0.135 0 0.02 0.135 0 0.04 0.135 0 0.06 0.135 0 0.08 0.135 0 0.1 0.135 0 0 0.14 0 0.02 0.14 0 0.04 0.14 0 0.06 0.14 0 0.08 0.14 0 0.1 0.14 0 0 0.145 0 0.02 0.145 0 0.04 0.145 0 0.06 0.145 0 0.08 0.145 0 0.1 0.145 0 0 0.15 0 0.02 0.15 0 0.04 0.15 0 0.06 0.15 0 0.08 0.15 0 0.1 0.15 0 0 0.155 0 0.02 0.155 0 0.04 0.155 0 0.06 0.155 0 0.08 0.155 0 0.1 0.155 0 0 0.16 0 0.02 0.16 0 0.04 0.16 0 0.06 0.16 0 0.08 0.16 0 0.1 0.16 0 0 0.165 0 0.02 0.165 0 0.04 0.165 0 0.06 0.165 0 0.08 0.165 0 0.1 0.165 0 0 0.17 0 0.02 0.17 0 0.04 0.17 0 0.06 0.17 0 0.08 0.17 0 0.1 0.17 0 0 0.175 0 0.02 0.175 0 0.04 0.175 0 0.06 0.175 0 0.08 0.175 0 0.1 0.175 0 0 0.18 0 0.02 0.18 0 0.04 0.18 0 0.06 0.18 0 0.08 0.18 0 0.1 0.18 0 0 0.185 0 0.02 0.185 0 0.04 0.185 0 0.06 0.185 0 0.08 0.185 0 0.1 0.185 0 0 0.19 0 0.02 0.19 0 0.04 0.19 0 0.06 0.19 0 0.08 0.19 0 0.1 0.19 0 0 0.195 0 0.02 0.195 0 0.04 0.195 0 0.06 0.195 0 0.08 0.195 0 0.1 0.195 0 0 0.2 0 0.02 0.2 0 0.04 0.2 0 0.06 0.2 0 0.08 0.2 0 0.1 0.2 0 0 0.205 0 0.02 0.205 0 0.04 0.205 0 0.06 0.205 0 0.08 0.205 0 0.1 0.205 0 0 0.21 0 0.02 0.21 0 0.04 0.21 0 0.06 0.21 0 0.08 0.21 0 0.1 0.21 0 0 0.215 0 0.02 0.215 0 0.04 0.215 0 0.06 0.215 0 0.08 0.215 0 0.1 0.215 0 0 0.22 0 0.02 0.22 0 0.04 0.22 0 0.06 0.22 0 0.08 0.22 0 0.1 0.22 0 0 0.225 0 0.02 0.225 0 0.04 0.225 0 0.06 0.225 0 0.08 0.225 0 0.1 0.225 0 0 0.23 0 0.02 0.23 0 0.04 0.23 0 0.06 0.23 0 0.08 0.23 0 0.1 0.23 0 0 0.235 0 0.02 0.235 0 0.04 0.235 0 0.06 0.235 0 0.08 0.235 0 0.1 0.235 0 0 0.24 0 0.02 0.24 0 0.04 0.24 0 0.06 0.24 0 0.08 0.24 0 0.1 0.24 0 0 0.245 0 0.02 0.245 0 0.04 0.245 0 0.06 0.245 0 0.08 0.245 0 0.1 0.245 0 0 0.25 0 0.02 0.25 0 0.04 0.25 0 0.06 0.25 0 0.08 0.25 0 0.1 0.25 0 0 0.255 0 0.02 0.255 0 0.04 0.255 0 0.06 0.255 0 0.08 0.255 0 0.1 0.255 0 0 0.26 0 0.02 0.26 0 0.04 0.26 0 0.06 0.26 0 0.08 0.26 0 0.1 0.26 0 0 0.265 0 0.02 0.265 0 0.04 0.265 0 0.06 0.265 0 0.08 0.265 0 0.1 0.265 0 0 0.27 0 0.02 0.27 0 0.04 0.27 0 0.06 0.27 0 0.08 0.27 0 0.1 0.27 0 0 0.275 0 0.02 0.275 0 0.04 0.275 0 0.06 0.275 0 0.08 0.275 0 0.1 0.275 0 0 0.28 0 0.02 0.28 0 0.04 0.28 0 0.06 0.28 0 0.08 0.28 0 0.1 0.28 0 0 0.285 0 0.02 0.285 0 0.04 0.285 0 0.06 0.285 0 0.08 0.285 0 0.1 0.285 0 0 0.29 0 0.02 0.29 0 0.04 0.29 0 0.06 0.29 0 0.08 0.29 0 0.1 0.29 0 0 0.295 0 0.02 0.295 0 0.04 0.295 0 0.06 0.295 0 0.08 0.295 0 0.1 0.295 0 0 0.3 0 0.02 0.3 0 0.04 0.3 0 0.06 0.3 0 0.08 0.3 0 0.1 0.3 0 0 0.305 0 0.02 0.305 0 0.04 0.305 0 0.06 0.305 0 0.08 0.305 0 0.1 0.305 0 0 0.31 0 0.02 0.31 0 0.04 0.31 0 0.06 0.31 0 0.08 0.31 0 0.1 0.31 0 0 0.315 0 0.02 0.315 0 0.04 0.315 0 0.06 0.315 0 0.08 0.315 0 0.1 0.315 0 0 0.32 0 0.02 0.32 0 0.04 0.32 0 0.06 0.32 0 0.08 0.32 0 0.1 0.32 0 0 0.325 0 0.02 0.325 0 0.04 0.325 0 0.06 0.325 0 0.08 0.325 0 0.1 0.325 0 0 0.33 0 0.02 0.33 0 0.04 0.33 0 0.06 0.33 0 0.08 0.33 0 0.1 0.33 0 0 0.335 0 0.02 0.335 0 0.04 0.335 0 0.06 0.335 0 0.08 0.335 0 0.1 0.335 0 0 0.34 0 0.02 0.34 0 0.04 0.34 0 0.06 0.34 0 0.08 0.34 0 0.1 0.34 0 0 0.345 0 0.02 0.345 0 0.04 0.345 0 0.06 0.345 0 0.08 0.345 0 0.1 0.345 0 0 0.35 0 0.02 0.35 0 0.04 0.35 0 0.06 0.35 0 0.08 0.35 0 0.1 0.35 0 0 0.355 0 0.02 0.355 0 0.04 0.355 0 0.06 0.355 0 0.08 0.355 0 0.1 0.355 0 0 0.36 0 0.02 0.36 0 0.04 0.36 0 0.06 0.36 0 0.08 0.36 0 0.1 0.36 0 0 0.365 0 0.02 0.365 0 0.04 0.365 0 0.06 0.365 0 0.08 0.365 0 0.1 0.365 0 0 0.37 0 0.02 0.37 0 0.04 0.37 0 0.06 0.37 0 0.08 0.37 0 0.1 0.37 0 0 0.375 0 0.02 0.375 0 0.04 0.375 0 0.06 0.375 0 0.08 0.375 0 0.1 0.375 0 0 0.38 0 0.02 0.38 0 0.04 0.38 0 0.06 0.38 0 0.08 0.38 0 0.1 0.38 0 0 0.385 0 0.02 0.385 0 0.04 0.385 0 0.06 0.385 0 0.08 0.385 0 0.1 0.385 0 0 0.39 0 0.02 0.39 0 0.04 0.39 0 0.06 0.39 0 0.08 0.39 0 0.1 0.39 0 0 0.395 0 0.02 0.395 0 0.04 0.395 0 0.06 0.395 0 0.08 0.395 0 0.1 0.395 0 0 0.4 0 0.02 0.4 0 0.04 0.4 0 0.06 0.4 0 0.08 0.4 0 0.1 0.4 0 0 0.405 0 0.02 0.405 0 0.04 0.405 0 0.06 0.405 0 0.08 0.405 0 0.1 0.405 0 0 0.41 0 0.02 0.41 0 0.04 0.41 0 0.06 0.41 0 0.08 0.41 0 0.1 0.41 0 0 0.415 0 0.02 0.415 0 0.04 0.415 0 0.06 0.415 0 0.08 0.415 0 0.1 0.415 0 0 0.42 0 0.02 0.42 0 0.04 0.42 0 0.06 0.42 0 0.08 0.42 0 0.1 0.42 0 0 0.425 0 0.02 0.425 0 0.04 0.425 0 0.06 0.425 0 0.08 0.425 0 0.1 0.425 0 0 0.43 0 0.02 0.43 0 0.04 0.43 0 0.06 0.43 0 0.08 0.43 0 0.1 0.43 0 0 0.435 0 0.02 0.435 0 0.04 0.435 0 0.06 0.435 0 0.08 0.435 0 0.1 0.435 0 0 0.44 0 0.02 0.44 0 0.04 0.44 0 0.06 0.44 0 0.08 0.44 0 0.1 0.44 0 0 0.445 0 0.02 0.445 0 0.04 0.445 0 0.06 0.445 0 0.08 0.445 0 0.1 0.445 0 0 0.45 0 0.02 0.45 0 0.04 0.45 0 0.06 0.45 0 0.08 0.45 0 0.1 0.45 0 0 0.455 0 0.02 0.455 0 0.04 0.455 0 0.06 0.455 0 0.08 0.455 0 0.1 0.455 0 0 0.46 0 0.02 0.46 0 0.04 0.46 0 0.06 0.46 0 0.08 0.46 0 0.1 0.46 0 0 0.465 0 0.02 0.465 0 0.04 0.465 0 0.06 0.465 0 0.08 0.465 0 0.1 0.465 0 0 0.47 0 0.02 0.47 0 0.04 0.47 0 0.06 0.47 0 0.08 0.47 0 0.1 0.47 0 0 0.475 0 0.02 0.475 0 0.04 0.475 0 0.06 0.475 0 0.08 0.475 0 0.1 0.475 0 0 0.48 0 0.02 0.48 0 0.04 0.48 0 0.06 0.48 0 0.08 0.48 0 0.1 0.48 0 0 0.485 0 0.02 0.485 0 0.04 0.485 0 0.06 0.485 0 0.08 0.485 0 0.1 0.485 0 0 0.49 0 0.02 0.49 0 0.04 0.49 0 0.06 0.49 0 0.08 0.49 0 0.1 0.49 0 0 0.495 0 0.02 0.495 0 0.04 0.495 0 0.06 0.495 0 0.08 0.495 0 0.1 0.495 0 0 0.5 0 0.02 0.5 0 0.04 0.5 0 0.06 0.5 0 0.08 0.5 0 0.1 0.5 0 0 0.505 0 0.02 0.505 0 0.04 0.505 0 0.06 0.505 0 0.08 0.505 0 0.1 0.505 0 0 0.51 0 0.02 0.51 0 0.04 0.51 0 0.06 0.51 0 0.08 0.51 0 0.1 0.51 0 0 0.515 0 0.02 0.515 0 0.04 0.515 0 0.06 0.515 0 0.08 0.515 0 0.1 0.515 0 0 0.52 0 0.02 0.52 0 0.04 0.52 0 0.06 0.52 0 0.08 0.52 0 0.1 0.52 0 0 0.525 0 0.02 0.525 0 0.04 0.525 0 0.06 0.525 0 0.08 0.525 0 0.1 0.525 0 0 0.53 0 0.02 0.53 0 0.04 0.53 0 0.06 0.53 0 0.08 0.53 0 0.1 0.53 0 0 0.535 0 0.02 0.535 0 0.04 0.535 0 0.06 0.535 0 0.08 0.535 0 0.1 0.535 0 0 0.54 0 0.02 0.54 0 0.04 0.54 0 0.06 0.54 0 0.08 0.54 0 0.1 0.54 0 0 0.545 0 0.02 0.545 0 0.04 0.545 0 0.06 0.545 0 0.08 0.545 0 0.1 0.545 0 0 0.55 0 0.02 0.55 0 0.04 0.55 0 0.06 0.55 0 0.08 0.55 0 0.1 0.55 0 0 0.555 0 0.02 0.555 0 0.04 0.555 0 0.06 0.555 0 0.08 0.555 0 0.1 0.555 0 0 0.56 0 0.02 0.56 0 0.04 0.56 0 0.06 0.56 0 0.08 0.56 0 0.1 0.56 0 0 0.565 0 0.02 0.565 0 0.04 0.565 0 0.06 0.565 0 0.08 0.565 0 0.1 0.565 0 0 0.57 0 0.02 0.57 0 0.04 0.57 0 0.06 0.57 0 0.08 0.57 0 0.1 0.57 0 0 0.575 0 0.02 0.575 0 0.04 0.575 0 0.06 0.575 0 0.08 0.575 0 0.1 0.575 0 0 0.58 0 0.02 0.58 0 0.04 0.58 0 0.06 0.58 0 0.08 0.58 0 0.1 0.58 0 0 0.585 0 0.02 0.585 0 0.04 0.585 0 0.06 0.585 0 0.08 0.585 0 0.1 0.585 0 0 0.59 0 0.02 0.59 0 0.04 0.59 0 0.06 0.59 0 0.08 0.59 0 0.1 0.59 0 0 0.595 0 0.02 0.595 0 0.04 0.595 0 0.06 0.595 0 0.08 0.595 0 0.1 0.595 0 0 0.6 0 0.02 0.6 0 0.04 0.6 0 0.06 0.6 0 0.08 0.6 0 0.1 0.6 0 0 0.605 0 0.02 0.605 0 0.04 0.605 0 0.06 0.605 0 0.08 0.605 0 0.1 0.605 0 0 0.61 0 0.02 0.61 0 0.04 0.61 0 0.06 0.61 0 0.08 0.61 0 0.1 0.61 0 0 0.615 0 0.02 0.615 0 0.04 0.615 0 0.06 0.615 0 0.08 0.615 0 0.1 0.615 0 0 0.62 0 0.02 0.62 0 0.04 0.62 0 0.06 0.62 0 0.08 0.62 0 0.1 0.62 0 0 0.625 0 0.02 0.625 0 0.04 0.625 0 0.06 0.625 0 0.08 0.625 0 0.1 0.625 0 0 0.63 0 0.02 0.63 0 0.04 0.63 0 0.06 0.63 0 0.08 0.63 0 0.1 0.63 0 0 0.635 0 0.02 0.635 0 0.04 0.635 0 0.06 0.635 0 0.08 0.635 0 0.1 0.635 0 0 0.64 0 0.02 0.64 0 0.04 0.64 0 0.06 0.64 0 0.08 0.64 0 0.1 0.64 0 0 0.645 0 0.02 0.645 0 0.04 0.645 0 0.06 0.645 0 0.08 0.645 0 0.1 0.645 0 0 0.65 0 0.02 0.65 0 0.04 0.65 0 0.06 0.65 0 0.08 0.65 0 0.1 0.65 0 0 0.655 0 0.02 0.655 0 0.04 0.655 0 0.06 0.655 0 0.08 0.655 0 0.1 0.655 0 0 0.66 0 0.02 0.66 0 0.04 0.66 0 0.06 0.66 0 0.08 0.66 0 0.1 0.66 0 0 0.665 0 0.02 0.665 0 0.04 0.665 0 0.06 0.665 0 0.08 0.665 0 0.1 0.665 0 0 0.67 0 0.02 0.67 0 0.04 0.67 0 0.06 0.67 0 0.08 0.67 0 0.1 0.67 0 0 0.675 0 0.02 0.675 0 0.04 0.675 0 0.06 0.675 0 0.08 0.675 0 0.1 0.675 0 0 0.68 0 0.02 0.68 0 0.04 0.68 0 0.06 0.68 0 0.08 0.68 0 0.1 0.68 0 0 0.685 0 0.02 0.685 0 0.04 0.685 0 0.06 0.685 0 0.08 0.685 0 0.1 0.685 0 0 0.69 0 0.02 0.69 0 0.04 0.69 0 0.06 0.69 0 0.08 0.69 0 0.1 
[...]
			<PointData Scalars="VitesseX">
				<DataArray Name="VitesseX" type="Float32" format="ascii">
 0 -1.77397e-14 -1.55062e-14 1.50945e-14 7.50289e-15 0 0 -2.24572e-14 -1.04095e-14 9.50403e-15 1.23344e-14 0 0 -1.9423e-14 -2.10903e-14 2.11254e-14 7.8756e-15 0 0 -3.70796e-14 4.87753e-15 -7.25435e-15 3.07497e-14 0 0 -2.98109e-14 -8.43079e-15 1.31881e-15 2.9403e-14 0 0 4.23589e-15 -6.1619e-14 4.76678e-14 -2.7239e-16 0 0 -2.1183e-14 -9.46563e-15 -2.52572e-14 5.73129e-14 0 0 -6.26203e-14 5.35463e-14 -7.2689e-14 1.01062e-13 0 0 -4.95855e-14 1.45544e-14 1.33667e-14 5.1804e-14 0 0 -4.51175e-14 -1.49278e-14 9.07871e-14 4.09058e-15 0 0 -6.20433e-14 -1.79835e-15 1.13275e-13 -1.59747e-14 0 0 -1.61386e-14 -6.50886e-14 1.70332e-13 -4.98745e-14 0 0 -7.20994e-14 5.90781e-14 1.67661e-15 7.30061e-14 0 0 -4.45578e-14 3.17276e-14 -6.38106e-15 8.64617e-14 0 0 1.60366e-14 -6.51258e-14 1.02525e-13 -7.44692e-15 0 0 -3.42758e-14 5.33433e-14 -3.71869e-14 6.2929e-14 0 0 2.45812e-14 -1.39412e-14 -1.92068e-14 7.99577e-14 0 0 1.37673e-15 2.05893e-14 -5.69179e-14 9.86616e-14 0 0 -6.49525e-15 3.67581e-14 -8.98206e-14 8.26571e-14 0 0 -4.05725e-16 2.28614e-14 -1.09726e-13 8.0268e-14 0 0 -2.30042e-14 2.61141e-14 -1.39312e-13 1.22926e-13 0 0 -5.64665e-14 2.31854e-14 -1.11213e-13 1.04246e-13 0 0 -2.96948e-14 -8.09107e-14 5.20934e-14 -3.68704e-14 0 0 -2.95205e-14 -1.33542e-13 1.33845e-13 -1.15792e-13 0 0 -1.58028e-13 3.93166e-14 -1.88947e-14 -6.12544e-14 0 0 -1.8452e-13 6.81627e-14 -6.00467e-14 -6.6876e-14 0 0 -6.78303e-14 -1.01185e-13 3.96312e-14 -1.31133e-13 0 0 -3.549e-15 -1.38113e-13 1.74925e-14 -1.52867e-13 0 0 -7.21662e-14 2.44756e-14 -1.05957e-13 -1.55329e-13 0 0 -1.27728e-13 1.04401e-13 -1.87132e-13 -8.19532e-14 0 0 -5.82892e-14 -3.95622e-14 -7.10015e-14 -5.41268e-14 0 0 -7.6833e-14 -6.55666e-14 4.2729e-14 -9.24019e-14 0 0 -1.08199e-13 -1.61703e-14 5.07918e-14 -9.35096e-14 0 0 4.09109e-14 -2.43679e-13 2.62556e-13 -1.55101e-13 0 0 -7.67995e-14 -5.03198e-14 9.82639e-14 -1.12702e-14 0 0 -2.30832e-13 2.61935e-13 -2.18513e-13 1.90604e-13 0 0 -1.24104e-13 1.21131e-13 -9.59443e-14 8.59718e-14 0 0 -3.46682e-14 -3.13328e-14 1.14547e-13 -1.42235e-13 0 0 -2.57329e-14 -8.65542e-14 2.20639e-13 -2.5199e-13 0 0 -2.36869e-14 -1.42208e-13 3.11822e-13 -2.99569e-13 0 0 -9.98096e-14 2.43356e-15 1.2156e-13 -1.1893e-13 0 0 -8.92627e-14 2.09015e-14 3.52744e-14 -9.92683e-15 0 0 -2.58167e-14 -1.13222e-13 1.3759e-13 -4.84646e-14 0 0 -1.88522e-14 -2.11909e-13 2.25987e-13 -5.86975e-14 0 0 -1.47061e-13 -6.93187e-14 1.52089e-13 -3.83153e-14 0 0 -1.0052e-13 -9.10055e-14 2.16184e-13 -1.52463e-13 0 0 1.25641e-13 -3.26834e-13 3.83046e-13 -2.78206e-13 0 0 8.64901e-14 -2.1199e-13 3.01519e-13 -2.99499e-13 0 0 -1.28236e-13 1.51261e-13 4.92365e-14 -2.78593e-13 0 0 -2.87855e-13 4.59401e-13 -1.77211e-13 -2.49242e-13 0 0 -8.2302e-14 2.53368e-13 5.2931e-15 -3.55057e-13 0 0 1.20703e-13 1.71652e-13 -1.0066e-13 -1.72366e-13 0 0 9.7551e-15 4.25499e-13 -5.04012e-13 2.23793e-13 0 0 2.16662e-13 -5.46965e-14 -1.94551e-14 -2.39315e-14 0 0 2.11995e-13 -1.92202e-13 2.40633e-13 -3.1299e-13 0 0 -1.81419e-13 3.07116e-13 -2.24117e-13 -1.10394e-13 0 0 -2.00804e-14 -4.01707e-14 2.85766e-14 -2.53294e-13 0 0 -3.07197e-15 -4.93758e-14 -1.21897e-14 -2.52007e-13 0 0 -9.59385e-14 1.9462e-13 -3.26868e-13 -3.79465e-14 0 0 -5.66176e-14 1.07887e-13 -2.04774e-13 -1.52182e-13 0 0 -1.60793e-13 1.16154e-13 -1.03435e-13 -2.62332e-13 0 0 -1.18644e-13 -2.79043e-14 9.63099e-14 -3.61078e-13 0 0 3.28637e-14 -1.37663e-13 1.59001e-13 -3.58934e-13 0 0 -8.72204e-15 1.76331e-14 -5.145e-15 -1.67645e-13 0 0 -1.61151e-13 2.12474e-13 -1.3572e-13 2.73796e-14 0 0 -1.76503e-13 2.67631e-13 -3.15974e-13 2.84383e-13 0 0 -2.64475e-14 -4.57222e-14 4.36345e-14 6.42473e-14 0 0 -6.683e-14 1.19741e-14 6.05871e-14 -3.74253e-14 0 0 -7.96989e-14 1.49057e-13 -1.27091e-13 1.1769e-14 0 0 8.43826e-14 -9.26672e-14 2.00903e-13 -3.12293e-13 0 0 -4.09601e-14 1.42196e-13 6.54988e-14 -3.11029e-13 0 0 8.39301e-14 4.18869e-14 2.05585e-13 -4.38041e-13 0 0 2.07593e-13 3.63517e-14 2.15457e-13 -4.39714e-13 0 0 3.80386e-13 -1.03371e-13 3.23251e-13 -3.48638e-13 0 0 2.11617e-13 1.35084e-13 1.02581e-13 -7.78466e-14 0 0 1.11393e-13 3.95281e-13 -2.8369e-13 2.1542e-13 0 0 4.44938e-13 -7.05789e-15 1.03497e-13 -5.42005e-14 0 0 4.61282e-13 -1.52833e-14 2.54548e-13 -1.9234e-13 0 0 5.08502e-13 -1.28307e-14 1.70433e-13 -2.21887e-14 0 0 1.1098e-13 4.86667e-13 -1.81466e-13 2.55213e-13 0 0 2.43174e-13 1.78914e-13 3.91403e-13 -6.23901e-14 0 0 6.73637e-13 -8.33921e-14 6.55462e-13 6.59188e-14 0 0 6.49621e-13 1.07117e-12 2.1575e-13 1.12699e-12 0 0 1.92538e-12 2.62671e-12 2.67824e-12 2.0276e-12 0 0 5.88802e-12 8.01177e-12 9.72078e-12 4.90358e-12 0 0 1.49606e-11 2.39334e-11 2.35914e-11 1.37067e-11 0 0 3.40799e-11 5.46346e-11 5.00125e-11 3.0295e-11 0 0 6.6174e-11 1.00651e-10 9.17231e-11 5.31605e-11 0 0 1.08922e-10 1.59614e-10 1.42239e-10 7.75612e-11 0 0 1.57144e-10 2.23656e-10 1.88651e-10 9.68591e-11 0 0 2.02364e-10 2.80912e-10 2.20811e-10 1.05339e-10 0 0 2.37344e-10 3.22836e-10 2.36234e-10 9.44074e-11 0 0 2.57591e-10 3.46331e-10 2.26508e-10 7.07885e-11 0 0 2.52468e-10 3.41491e-10 2.02731e-10 2.93316e-11 0 0 2.1913e-10 3.1549e-10 1.66419e-10 -2.59618e-11 0 0 1.3926e-10 2.60447e-10 1.14193e-10 -1.0715e-10 0 0 -4.95951e-13 1.94612e-10 6.34936e-11 -1.80324e-10 0 0 -2.35349e-10 9.07901e-11 5.10542e-11 -3.28235e-10 0 0 -4.1853e-10 -1.50564e-11 5.10064e-11 -4.96444e-10 0 0 -7.8269e-10 -2.06952e-10 6.89747e-11 -6.04488e-10 0 0 -1.17161e-09 -5.13622e-10 -8.67428e-11 -3.78158e-10 0 0 -4.94237e-10 -9.28298e-10 -1.72975e-09 1.59434e-09 0 0 -1.3154e-10 -5.5854e-10 -3.97593e-09 4.11832e-09 0 0 -3.1806e-10 -4.47424e-11 -3.78683e-09 3.53033e-09 0 0 9.23361e-10 -1.65959e-09 -2.20538e-09 2.17189e-09 0 0 2.17084e-09 -4.4321e-09 2.66319e-09 -1.46123e-09 0 0 1.24244e-09 -3.77762e-09 4.19878e-09 -4.15091e-09 0 0 -2.47799e-09 8.14413e-10 2.8347e-09 -4.07684e-09 0 0 -3.5896e-09 2.99029e-09 5.27244e-10 -2.97775e-09 0 0 -3.28205e-09 3.76716e-09 -3.39623e-09 9.51865e-10 0 0 -1.80089e-09 3.92619e-09 -7.46855e-09 5.66392e-09 0 0 -5.95388e-10 2.91615e-09 -6.72135e-09 5.33796e-09 0 0 2.20627e-10 6.98681e-10 -2.07348e-09 1.80544e-09 0 0 8.29869e-10 -1.0169e-09 2.33647e-09 -2.02504e-09 0 0 7.40972e-10 -1.1736e-09 3.27149e-09 -3.15107e-09 0 0 3.17441e-10 -7.82258e-10 2.94594e-09 -3.02425e-09 0 0 -1.17818e-10 8.51411e-12 1.45371e-09 -1.9212e-09 0 0 -4.04476e-10 6.98219e-10 -1.11936e-10 -3.95978e-10 0 0 -4.12236e-10 7.84248e-10 -5.07394e-10 5.34254e-11 0 0 -2.26443e-10 4.73916e-10 -4.16439e-10 2.48666e-11 0 0 -6.1114e-11 8.56321e-11 -1.68659e-10 -8.03921e-11 0 0 -3.2266e-11 -1.42811e-11 -7.87854e-11 -9.78597e-11 0 0 -2.25423e-11 -3.3349e-11 -6.19924e-11 -7.20734e-11 0 0 -1.72335e-11 -3.33778e-11 -4.79861e-11 -4.25737e-11 0 0 -1.23019e-11 -2.43468e-11 -3.12513e-11 -2.35029e-11 0 0 -7.36826e-12 -1.38583e-11 -1.65803e-11 -1.16936e-11 0 0 -3.56373e-12 -6.2498e-12 -7.15815e-12 -4.98018e-12 0 0 -1.18856e-12 -2.5174e-12 -2.34501e-12 -1.94215e-12 0 0 -3.38112e-13 -7.46576e-13 -7.60715e-13 -5.75002e-13 0 0 -1.02107e-13 -1.14393e-13 -2.40604e-13 -1.80373e-13 0 0 -5.2099e-14 9.09475e-14 -1.25413e-13 -6.55562e-14 0 0 -3.61299e-14 1.33051e-13 -1.61786e-13 6.87758e-14 0 0 1.69388e-13 -2.19207e-13 1.6628e-13 -4.74339e-14 0 0 4.00884e-14 -3.01599e-14 -4.38597e-14 1.33537e-13 0 0 8.80678e-14 -1.19902e-13 4.0851e-14 1.39989e-13 0 0 6.24904e-14 -4.44856e-14 -5.42695e-14 2.28496e-13 0 0 -4.59497e-14 1.05814e-13 -1.6302e-13 3.186e-13 0 0 1.18748e-13 -2.72144e-13 3.75618e-13 1.22185e-14 0 0 -1.68302e-13 1.22527e-13 1.63395e-13 1.23525e-13 0 0 -2.43331e-13 2.55252e-13 1.35736e-13 9.56578e-14 0 0 -6.00302e-16 -6.15513e-14 4.41384e-13 -5.85057e-14 0 0 -1.17106e-13 1.81275e-13 1.11812e-13 1.96684e-13 0 0 1.56351e-13 -1.80652e-13 4.2881e-13 -1.40044e-14 0 0 2.76811e-13 -2.89284e-13 5.68917e-13 -6.77335e-14 0 0 -1.40689e-13 3.33511e-13 7.1036e-14 3.12916e-13 0 0 4.02653e-14 6.94259e-14 4.41957e-13 1.43166e-13 0 0 1.18789e-13 1.23677e-13 3.79381e-13 1.43224e-13 0 0 3.26433e-13 -1.36213e-13 6.77664e-13 -9.32891e-14 0 0 4.30979e-13 -2.9091e-13 9.65949e-13 -3.22981e-13 0 0 6.61304e-14 4.4513e-13 2.37002e-13 5.00843e-14 0 0 2.75452e-13 1.03002e-13 4.82853e-13 -1.54143e-13 0 0 2.32537e-14 3.45982e-13 1.14051e-13 9.11997e-14 0 0 1.52534e-13 4.74911e-14 3.10131e-13 -1.55859e-15 0 0 2.18956e-13 -4.91241e-14 3.62514e-13 -6.59232e-14 0 0 -6.25161e-14 4.50003e-13 -1.65252e-13 2.14595e-13 0 0 1.40657e-14 2.18438e-13 8.21204e-14 -3.11786e-14 0 0 -2.41378e-15 9.57224e-14 2.2152e-13 -1.44163e-13 0 0 2.92334e-13 -3.904e-13 6.19988e-13 -2.21734e-13 0 0 2.08693e-13 -1.38165e-13 3.20033e-13 -2.08659e-15 0 0 -8.20096e-14 2.7757e-13 1.91174e-13 -1.62125e-13 0 0 -2.96326e-13 3.34346e-13 3.7533e-13 -2.45554e-13 0 0 9.53091e-15 -2.96529e-13 7.53732e-13 -7.29196e-14 0 0 4.4116e-13 -9.97311e-13 1.18126e-12 -8.90054e-14 0 0 -6.68878e-14 -2.44202e-13 3.79074e-13 4.10978e-13 0 0 -2.77973e-13 2.35233e-13 -3.61556e-13 1.00701e-12 0 0 6.60512e-14 -1.21223e-13 -1.70398e-13 9.98175e-13 0 0 5.11118e-15 -1.76411e-13 2.21098e-13 6.19656e-13 0 0 -1.40871e-13 -1.63288e-13 4.56353e-13 3.54134e-13 0 0 -4.57323e-13 1.8203e-13 3.10285e-13 2.68575e-13 0 0 -4.02337e-13 1.3521e-13 3.66403e-13 1.28408e-13 0 0 -8.82295e-14 -1.00503e-13 1.46848e-13 4.65634e-13 0 0 -2.03051e-13 1.42599e-13 -2.97735e-13 8.60672e-13 0 0 2.47051e-14 -3.03389e-13 1.22185e-13 5.66448e-13 0 0 -2.81029e-13 -2.50567e-14 -2.50602e-14 5.33429e-13 0 0 -2.98329e-13 -1.56649e-13 1.65815e-13 3.15444e-13 0 0 9.90186e-14 -6.07051e-13 3.96814e-13 7.44793e-14 0 0 -2.32393e-13 8.95661e-14 -2.43958e-13 2.45201e-13 0 0 -9.69825e-14 -2.03436e-13 2.40043e-13 -2.03422e-13 0 0 -1.81349e-13 -1.21204e-13 1.1319e-13 -1.6973e-13 0 0 -5.56838e-14 -3.75665e-13 2.51984e-13 -2.39483e-13 0 0 2.79097e-15 -5.42253e-13 4.20584e-13 -3.10127e-13 0 0 -5.36118e-13 4.3013e-13 -5.03806e-13 2.95952e-13 0 0 -1.44105e-13 7.25927e-14 -2.46165e-13 2.96691e-13 0 0 -1.70542e-14 -8.13298e-14 2.73904e-15 1.334e-13 0 0 -3.19002e-14 -1.37992e-13 3.27566e-13 -2.83878e-13 0 0 -4.81906e-14 -2.24868e-13 6.29485e-13 -6.5524e-13 0 0 -5.37629e-13 3.85806e-13 2.12428e-13 -5.0963e-13 0 0 -1.73351e-13 -1.44443e-14 4.13936e-13 -5.17099e-13 0 0 2.13396e-14 4.83061e-14 -4.63066e-14 2.525e-14 0 0 3.83583e-13 -3.73132e-13 1.44197e-13 2.07991e-13 0 0 3.46158e-13 -4.23766e-13 2.55881e-13 2.87612e-13 0 0 -5.62757e-13 9.9535e-13 -1.00736e-12 9.84888e-13 0 0 3.34389e-13 -2.56024e-13 2.40557e-13 1.7427e-13 0 0 1.158e-12 -1.29938e-12 1.04701e-12 -2.71723e-13 0 0 3.08942e-13 7.63031e-14 -2.24088e-13 3.16676e-13 0 0 -2.03866e-13 7.31608e-13 -3.94787e-13 1.21311e-13 0 0 -1.13861e-14 4.78246e-13 -2.09567e-13 8.10135e-14 0 0 1.05636e-12 -1.17126e-12 1.3138e-12 -6.81898e-13 0 0 1.09135e-12 -8.96514e-13 1.08549e-12 -5.84566e-13 0 0 1.88827e-14 1.15221e-12 -1.02705e-12 5.88608e-13 0 0 -1.88955e-13 1.46397e-12 -1.32988e-12 7.14024e-13 0
				</DataArray>
				<DataArray Name="VitesseY" type="Float32" format="ascii">