<?xml version="1.0"?>
<VTKFile type="PolyData">
	<PolyData>
		<Piece NumberOfPoints="961" NumberOfPolys="900">
			<Points>
				<DataArray type="Float32" NumberOfComponents="3" format="ascii">
 0 0 0 0.04 0 0 0.08 0 0 0.12 0 0 0.16 0 0 0.2 0 0 0.24 0 0 0.28 0 0 0.32 0 0 0.36 0 0 0.4 0 0 0.44 0 0 0.48 0 0 0.52 0 0 0.56 0 0 0.6 0 0 0.64 0 0 0.68 0 0 0.72 0 0 0.76 0 0 0.8 0 0 0.84 0 0 0.88 0 0 0.92 0 0 0.96 0 0 1 0 0 1.04 0 0 1.08 0 0 1.12 0 0 1.16 0 0 1.2 0 0 0 0.04 0 0.04 0.04 0 0.08 0.04 0 0.12 0.04 0 0.16 0.04 0 0.2 0.04 0 0.24 0.04 0 0.28 0.04 0 0.32 0.04 0 0.36 0.04 0 0.4 0.04 0 0.44 0.04 0 0.48 0.04 0 0.52 0.04 0 0.56 0.04 0 0.6 0.04 0 0.64 0.04 0 0.68 0.04 0 0.72 0.04 0 0.76 0.04 0 0.8 0.04 0 0.84 0.04 0 0.88 0.04 0 0.92 0.04 0 0.96 0.04 0 1 0.04 0 1.04 0.04 0 1.08 0.04 0 1.12 0.04 0 1.16 0.04 0 1.2 0.04 0 0 0.08 0 0.04 0.08 0 0.08 0.08 0 0.12 0.08 0 0.16 0.08 0 0.2 0.08 0 0.24 0.08 0 0.28 0.08 0 0.32 0.08 0 0.36 0.08 0 0.4 0.08 0 0.44 0.08 0 0.48 0.08 0 0.52 0.08 0 0.56 0.08 0 0.6 0.08 0 0.64 0.08 0 0.68 0.08 0 0.72 0.08 0 0.76 0.08 0 0.8 0.08 0 0.84 0.08 0 0.88 0.08 0 0.92 0.08 0 0.96 0.08 0 1 0.08 0 1.04 0.08 0 1.08 0.08 0 1.12 0.08 0 1.16 0.08 0 1.2 0.08 0 0 0.12 0 0.04 0.12 0 0.08 0.12 0 0.12 0.12 0 0.16 0.12 0 0.2 0.12 0 0.24 0.12 0 0.28 0.12 0 0.32 0.12 0 0.36 0.12 0 0.4 0.12 0 0.44 0.12 0 0.48 0.12 0 0.52 0.12 0 0.56 0.12 0 0.6 0.12 0 0.64 0.12 0 0.68 0.12 0 0.72 0.12 0 0.76 0.12 0 0.8 0.12 0 0.84 0.12 0 0.88 0.12 0 0.92 0.12 0 0.96 0.12 0 1 0.12 0 1.04 0.12 0 1.08 0.12 0 1.12 0.12 0 1.16 0.12 0 1.2 0.12 0 0 0.16 0 0.04 0.16 0 0.08 0.16 0 0.12 0.16 0 0.16 0.16 0 0.2 0.16 0 0.24 0.16 0 0.28 0.16 0 0.32 0.16 0 0.36 0.16 0 0.4 0.16 0 0.44 0.16 0 0.48 0.16 0 0.52 0.16 0 0.56 0.16 0 0.6 0.16 0 0.64 0.16 0 0.68 0.16 0 0.72 0.16 0 0.76 0.16 0 0.8 0.16 0 0.84 0.16 0 0.88 0.16 0 0.92 0.16 0 0.96 0.16 0 1 0.16 0 1.04 0.16 0 1.08 0.16 0 1.12 0.16 0 1.16 0.16 0 1.2 0.16 0 0 0.2 0 0.04 0.2 0 0.08 0.2 0 0.12 0.2 0 0.16 0.2 0 0.2 0.2 0 0.24 0.2 0 0.28 0.2 0 0.32 0.2 0 0.36 0.2 0 0.4 0.2 0 0.44 0.2 0 0.48 0.2 0 0.52 0.2 0 0.56 0.2 0 0.6 0.2 0 0.64 0.2 0 0.68 0.2 0 0.72 0.2 0 0.76 0.2 0 0.8 0.2 0 0.84 0.2 0 0.88 0.2 0 0.92 0.2 0 0.96 0.2 0 1 0.2 0 1.04 0.2 0 1.08 0.2 0 1.12 0.2 0 1.16 0.2 0 1.2 0.2 0 0 0.24 0 0.04 0.24 0 0.08 0.24 0 0.12 0.24 0 0.16 0.24 0 0.2 0.24 0 0.24 0.24 0 0.28 0.24 0 0.32 0.24 0 0.36 0.24 0 0.4 0.24 0 0.44 0.24 0 0.48 0.24 0 0.52 0.24 0 0.56 0.24 0 0.6 0.24 0 0.64 0.24 0 0.68 0.24 0 0.72 0.24 0 0.76 0.24 0 0.8 0.24 0 0.84 0.24 0 0.88 0.24 0 0.92 0.24 0 0.96 0.24 0 1 0.24 0 1.04 0.24 0 1.08 0.24 0 1.12 0.24 0 1.16 0.24 0 1.2 0.24 0 0 0.28 0 0.04 0.28 0 0.08 0.28 0 0.12 0.28 0 0.16 0.28 0 0.2 0.28 0 0.24 0.28 0 0.28 0.28 0 0.32 0.28 0 0.36 0.28 0 0.4 0.28 0 0.44 0.28 0 0.48 0.28 0 0.52 0.28 0 0.56 0.28 0 0.6 0.28 0 0.64 0.28 0 0.68 0.28 0 0.72 0.28 0 0.76 0.28 0 0.8 0.28 0 0.84 0.28 0 0.88 0.28 0 0.92 0.28 0 0.96 0.28 0 1 0.28 0 1.04 0.28 0 1.08 0.28 0 1.12 0.28 0 1.16 0.28 0 1.2 0.28 0 0 0.32 0 0.04 0.32 0 0.08 0.32 0 0.12 0.32 0 0.16 0.32 0 0.2 0.32 0 0.24 0.32 0 0.28 0.32 0 0.32 0.32 0 0.36 0.32 0 0.4 0.32 0 0.44 0.32 0 0.48 0.32 0 0.52 0.32 0 0.56 0.32 0 0.6 0.32 0 0.64 0.32 0 0.68 0.32 0 0.72 0.32 0 0.76 0.32 0 0.8 0.32 0 0.84 0.32 0 0.88 0.32 0 0.92 0.32 0 0.96 0.32 0 1 0.32 0 1.04 0.32 0 1.08 0.32 0 1.12 0.32 0 1.16 0.32 0 1.2 0.32 0 0 0.36 0 0.04 0.36 0 0.08 0.36 0 0.12 0.36 0 0.16 0.36 0 0.2 0.36 0 0.24 0.36 0 0.28 0.36 0 0.32 0.36 0 0.36 0.36 0 0.4 0.36 0 0.44 0.36 0 0.48 0.36 0 0.52 0.36 0 0.56 0.36 0 0.6 0.36 0 0.64 0.36 0 0.68 0.36 0 0.72 0.36 0 0.76 0.36 0 0.8 0.36 0 0.84 0.36 0 0.88 0.36 0 0.92 0.36 0 0.96 0.36 0 1 0.36 0 1.04 0.36 0 1.08 0.36 0 1.12 0.36 0 1.16 0.36 0 1.2 0.36 0 0 0.4 0 0.04 0.4 0 0.08 0.4 0 0.12 0.4 0 0.16 0.4 0 0.2 0.4 0 0.24 0.4 0 0.28 0.4 0 0.32 0.4 0 0.36 0.4 0 0.4 0.4 0 0.44 0.4 0 0.48 0.4 0 0.52 0.4 0 0.56 0.4 0 0.6 0.4 0 0.64 0.4 0 0.68 0.4 0 0.72 0.4 0 0.76 0.4 0 0.8 0.4 0 0.84 0.4 0 0.88 0.4 0 0.92 0.4 0 0.96 0.4 0 1 0.4 0 1.04 0.4 0 1.08 0.4 0 1.12 0.4 0 1.16 0.4 0 1.2 0.4 0 0 0.44 0 0.04 0.44 0 0.08 0.44 0 0.12 0.44 0 0.16 0.44 0 0.2 0.44 0 0.24 0.44 0 0.28 0.44 0 0.32 0.44 0 0.36 0.44 0 0.4 0.44 0 0.44 0.44 0 0.48 0.44 0 0.52 0.44 0 0.56 0.44 0 0.6 0.44 0 0.64 0.44 0 0.68 0.44 0 0.72 0.44 0 0.76 0.44 0 0.8 0.44 0 0.84 0.44 0 0.88 0.44 0 0.92 0.44 0 0.96 0.44 0 1 0.44 0 1.04 0.44 0 1.08 0.44 0 1.12 0.44 0 1.16 0.44 0 1.2 0.44 0 0 0.48 0 0.04 0.48 0 0.08 0.48 0 0.12 0.48 0 0.16 0.48 0 0.2 0.48 0 0.24 0.48 0 0.28 0.48 0 0.32 0.48 0 0.36 0.48 0 0.4 0.48 0 0.44 0.48 0 0.48 0.48 0 0.52 0.48 0 0.56 0.48 0 0.6 0.48 0 0.64 0.48 0 0.68 0.48 0 0.72 0.48 0 0.76 0.48 0 0.8 0.48 0 0.84 0.48 0 0.88 0.48 0 0.92 0.48 0 0.96 0.48 0 1 0.48 0 1.04 0.48 0 1.08 0.48 0 1.12 0.48 0 1.16 0.48 0 1.2 0.48 0 0 0.52 0 0.04 0.52 0 0.08 0.52 0 0.12 0.52 0 0.16 0.52 0 0.2 0.52 0 0.24 0.52 0 0.28 0.52 0 0.32 0.52 0 0.36 0.52 0 0.4 0.52 0 0.44 0.52 0 0.48 0.52 0 0.52 0.52 0 0.56 0.52 0 0.6 0.52 0 0.64 0.52 0 0.68 0.52 0 0.72 0.52 0 0.76 0.52 0 0.8 0.52 0 0.84 0.52 0 0.88 0.52 0 0.92 0.52 0 0.96 0.52 0 1 0.52 0 1.04 0.52 0 1.08 0.52 0 1.12 0.52 0 1.16 0.52 0 1.2 0.52 0 0 0.56 0 0.04 0.56 0 0.08 0.56 0 0.12 0.56 0 0.16 0.56 0 0.2 0.56 0 0.24 0.56 0 0.28 0.56 0 0.32 0.56 0 0.36 0.56 0 0.4 0.56 0 0.44 0.56 0 0.48 0.56 0 0.52 0.56 0 0.56 0.56 0 0.6 0.56 0 0.64 0.56 0 0.68 0.56 0 0.72 0.56 0 0.76 0.56 0 0.8 0.56 0 0.84 0.56 0 0.88 0.56 0 0.92 0.56 0 0.96 0.56 0 1 0.56 0 1.04 0.56 0 1.08 0.56 0 1.12 0.56 0 1.16 0.56 0 1.2 0.56 0 0 0.6 0 0.04 0.6 0 0.08 0.6 0 0.12 0.6 0 0.16 0.6 0 0.2 0.6 0 0.24 0.6 0 0.28 0.6 0 0.32 0.6 0 0.36 0.6 0 0.4 0.6 0 0.44 0.6 0 0.48 0.6 0 0.52 0.6 0 0.56 0.6 0 0.6 0.6 0 0.64 0.6 0 0.68 0.6 0 0.72 0.6 0 0.76 0.6 0 0.8 0.6 0 0.84 0.6 0 0.88 0.6 0 0.92 0.6 0 0.96 0.6 0 1 0.6 0 1.04 0.6 0 1.08 0.6 0 1.12 0.6 0 1.16 0.6 0 1.2 0.6 0 0 0.64 0 0.04 0.64 0 0.08 0.64 0 0.12 0.64 0 0.16 0.64 0 0.2 0.64 0 0.24 0.64 0 0.28 0.64 0 0.32 0.64 0 0.36 0.64 0 0.4 0.64 0 0.44 0.64 0 0.48 0.64 0 0.52 0.64 0 0.56 0.64 0 0.6 0.64 0 0.64 0.64 0 0.68 0.64 0 0.72 0.64 0 0.76 0.64 0 0.8 0.64 0 0.84 0.64 0 0.88 0.64 0 0.92 0.64 0 0.96 0.64 0 1 0.64 0 1.04 0.64 0 1.08 0.64 0 1.12 0.64 0 1.16 0.64 0 1.2 0.64 0 0 0.68 0 0.04 0.68 0 0.08 0.68 0 0.12 0.68 0 0.16 0.68 0 0.2 0.68 0 0.24 0.68 0 0.28 0.68 0 0.32 0.68 0 0.36 0.68 0 0.4 0.68 0 0.44 0.68 0 0.48 0.68 0 0.52 0.68 0 0.56 0.68 0 0.6 0.68 0 0.64 0.68 0 0.68 0.68 0 0.72 0.68 0 0.76 0.68 0 0.8 0.68 0 0.84 0.68 0 0.88 0.68 0 0.92 0.68 0 0.96 0.68 0 1 0.68 0 1.04 0.68 0 1.08 0.68 0 1.12 0.68 0 1.16 0.68 0 1.2 0.68 0 0 0.72 0 0.04 0.72 0 0.08 0.72 0 0.12 0.72 0 0.16 0.72 0 0.2 0.72 0 0.24 0.72 0 0.28 0.72 0 0.32 0.72 0 0.36 0.72 0 0.4 0.72 0 0.44 0.72 0 0.48 0.72 0 0.52 0.72 0 0.56 0.72 0 0.6 0.72 0 0.64 0.72 0 0.68 0.72 0 0.72 0.72 0 0.76 0.72 0 0.8 0.72 0 0.84 0.72 0 0.88 0.72 0 0.92 0.72 0 0.96 0.72 0 1 0.72 0 1.04 0.72 0 1.08 0.72 0 1.12 0.72 0 1.16 0.72 0 1.2 0.72 0 0 0.76 0 0.04 0.76 0 0.08 0.76 0 0.12 0.76 0 0.16 0.76 0 0.2 0.76 0 0.24 0.76 0 0.28 0.76 0 0.32 0.76 0 0.36 0.76 0 0.4 0.76 0 0.44 0.76 0 0.48 0.76 0 0.52 0.76 0 0.56 0.76 0 0.6 0.76 0 0.64 0.76 0 0.68 0.76 0 0.72 0.76 0 0.76 0.76 0 0.8 0.76 0 0.84 0.76 0 0.88 0.76 0 0.92 0.76 0 0.96 0.76 0 1 0.76 0 1.04 0.76 0 1.08 0.76 0 1.12 0.76 0 1.16 0.76 0 1.2 0.76 0 0 0.8 0 0.04 0.8 0 0.08 0.8 0 0.12 0.8 0 0.16 0.8 0 0.2 0.8 0 0.24 0.8 0 0.28 0.8 0 0.32 0.8 0 0.36 0.8 0 0.4 0.8 0 0.44 0.8 0 0.48 0.8 0 0.52 0.8 0 0.56 0.8 0 0.6 0.8 0 0.64 0.8 0 0.68 0.8 0 0.72 0.8 0 0.76 0.8 0 0.8 0.8 0 0.84 0.8 0 0.88 0.8 0 0.92 0.8 0 0.96 0.8 0 1 0.8 0 1.04 0.8 0 1.08 0.8 0 1.12 0.8 0 1.16 0.8 0 1.2 0.8 0 0 0.84 0 0.04 0.84 0 0.08 0.84 0 0.12 0.84 0 0.16 0.84 0 0.2 0.84 0 0.24 0.84 0 0.28 0.84 0 0.32 0.84 0 0.36 0.84 0 0.4 0.84 0 0.44 0.84 0 0.48 0.84 0 0.52 0.84 0 0.56 0.84 0 0.6 0.84 0 0.64 0.84 0 0.68 0.84 0 0.72 0.84 0 0.76 0.84 0 0.8 0.84 0 0.84 0.84 0 0.88 0.84 0 0.92 0.84 0 0.96 0.84 0 1 0.84 0 1.04 0.84 0 1.08 0.84 0 1.12 0.84 0 1.16 0.84 0 1.2 0.84 0 0 0.88 0 0.04 0.88 0 0.08 0.88 0 0.12 0.88 0 0.16 0.88 0 0.2 0.88 0 0.24 0.88 0 0.28 0.88 0 0.32 0.88 0 0.36 0.88 0 0.4 0.88 0 0.44 0.88 0 0.48 0.88 0 0.52 0.88 0 0.56 0.88 0 0.6 0.88 0 0.64 0.88 0 0.68 0.88 0 0.72 0.88 0 0.76 0.88 0 0.8 0.88 0 0.84 0.88 0 0.88 0.88 0 0.92 0.88 0 0.96 0.88 0 1 0.88 0 1.04 0.88 0 1.08 0.88 0 1.12 0.88 0 1.16 0.88 0 1.2 0.88 0 0 0.92 0 0.04 0.92 0 0.08 0.92 0 0.12 0.92 0 0.16 0.92 0 0.2 0.92 0 0.24 0.92 0 0.28 0.92 0 0.32 0.92 0 0.36 0.92 0 0.4 0.92 0 0.44 0.92 0 0.48 0.92 0 0.52 0.92 0 0.56 0.92 0 0.6 0.92 0 0.64 0.92 0 0.68 0.92 0 0.72 0.92 0 0.76 0.92 0 0.8 0.92 0 0.84 0.92 0 0.88 0.92 0 0.92 0.92 0 0.96 0.92 0 1 0.92 0 1.04 0.92 0 1.08 0.92 0 1.12 0.92 0 1.16 0.92 0 1.2 0.92 0 0 0.96 0 0.04 0.96 0 0.08 0.96 0 0.12 0.96 0 0.16 0.96 0 0.2 0.96 0 0.24 0.96 0 0.28 0.96 0 0.32 0.96 0 0.36 0.96 0 0.4 0.96 0 0.44 0.96 0 0.48 0.96 0 0.52 0.96 0 0.56 0.96 0 0.6 0.96 0 0.64 0.96 0 0.68 0.96 0 0.72 0.96 0 0.76 0.96 0 0.8 0.96 0 0.84 0.96 0 0.88 0.96 0 0.92 0.96 0 0.96 0.96 0 1 0.96 0 1.04 0.96 0 1.08 0.96 0 1.12 0.96 0 1.16 0.96 0 1.2 0.96 0 0 1 0 0.04 1 0 0.08 1 0 0.12 1 0 0.16 1 0 0.2 1 0 0.24 1 0 0.28 1 0 0.32 1 0 0.36 1 0 0.4 1 0 0.44 1 0 0.48 1 0 0.52 1 0 0.56 1 0 0.6 1 0 0.64 1 0 0.68 1 0 0.72 1 0 0.76 1 0 0.8 1 0 0.84 1 0 0.88 1 0 0.92 1 0 0.96 1 0 1 1 0 1.04 1 0 1.08 1 0 1.12 1 0 1.16 1 0 1.2 1 0 0 1.04 0 0.04 1.04 0 0.08 1.04 0 0.12 1.04 0 0.16 1.04 0 0.2 1.04 0 0.24 1.04 0 0.28 1.04 0 0.32 1.04 0 0.36 1.04 0 0.4 1.04 0 0.44 1.04 0 0.48 1.04 0 0.52 1.04 0 0.56 1.04 0 0.6 1.04 0 0.64 1.04 0 0.68 1.04 0 0.72 1.04 0 0.76 1.04 0 0.8 1.04 0 0.84 1.04 0 0.88 1.04 0 0.92 1.04 0 0.96 1.04 0 1 1.04 0 1.04 1.04 0 1.08 1.04 0 1.12 1.04 0 1.16 1.04 0 1.2 1.04 0 0 1.08 0 0.04 1.08 0 0.08 1.08 0 0.12 1.08 0 0.16 1.08 0 0.2 1.08 0 0.24 1.08 0 0.28 1.08 0 0.32 1.08 0 0.36 1.08 0 0.4 1.08 0 0.44 1.08 0 0.48 1.08 0 0.52 1.08 0 0.56 1.08 0 0.6 1.08 0 0.64 1.08 0 0.68 1.08 0 0.72 1.08 0 0.76 1.08 0 0.8 1.08 0 0.84 1.08 0 0.88 1.08 0 0.92 1.08 0 0.96 1.08 0 1 1.08 0 1.04 1.08 0 1.08 1.08 0 1.12 1.08 0 1.16 1.08 0 1.2 1.08 0 0 1.12 0 
[...]
			<PointData Scalars="VitesseX">
				<DataArray Name="VitesseX" type="Float32" format="ascii">
 0 -0.0416765 -0.179112 -0.160236 -0.0921394 0.0154097 0.141474 0.25439 0.351347 0.437242 0.515191 0.586966 0.656374 0.723977 0.791455 0.859178 0.9276 0.997188 1.0682 1.14072 1.2149 1.29115 1.36996 1.45182 1.53839 1.62704 1.73109 1.90431 1.77058 1.12168 0 0 0.177449 0.168054 0.160303 0.151846 0.191617 0.261217 0.337312 0.409376 0.480311 0.546947 0.610497 0.673418 0.735834 0.798751 0.862655 0.928027 0.995203 1.06445 1.13586 1.20954 1.28581 1.36498 1.44737 1.53442 1.62323 1.72843 1.90239 1.77022 1.12471 0 0 0.168026 0.26794 0.337481 0.34409 0.360446 0.391643 0.432016 0.471825 0.520274 0.572054 0.627159 0.685255 0.74488 0.806105 0.868881 0.933585 1.00053 1.06971 1.14104 1.21451 1.29043 1.36903 1.45071 1.53685 1.62415 1.73132 1.9061 1.77781 1.13925 0 0 0.124264 0.230513 0.315891 0.348691 0.396742 0.430622 0.462977 0.503894 0.545593 0.593302 0.643957 0.698264 0.755448 0.815237 0.877389 0.94184 1.0085 1.07724 1.14797 1.22077 1.29596 1.37372 1.45461 1.53987 1.62586 1.73831 1.91391 1.7909 1.16302 0 0 0.060375 0.153598 0.259776 0.321221 0.384937 0.427862 0.467763 0.522082 0.565801 0.614793 0.662953 0.713914 0.768695 0.826956 0.888191 0.951957 1.01787 1.08571 1.15545 1.22725 1.30152 1.37843 1.45882 1.54361 1.62891 1.75094 1.92405 1.80561 1.19321 0 0 0.0256869 0.104178 0.200747 0.277558 0.3543 0.408292 0.462664 0.522467 0.573204 0.627262 0.678515 0.730436 0.784358 0.841314 0.901349 0.963873 1.02849 1.09501 1.16345 1.23407 1.30738 1.38355 1.46382 1.54832 1.63374 1.77096 1.93299 1.81678 1.22621 0 0 0.0211369 0.0959229 0.185199 0.253698 0.333312 0.391818 0.453748 0.515281 0.573139 0.631883 0.687834 0.743484 0.799361 0.856658 0.91608 0.977373 1.04041 1.10526 1.17217 1.24155 1.31391 1.38947 1.46997 1.55394 1.64107 1.8 1.93575 1.8189 1.25501 0 0 0.0292969 0.0958724 0.18242 0.250248 0.330558 0.389126 0.451833 0.512257 0.573326 0.634395 0.694172 0.753068 0.811068 0.869438 0.928873 0.989625 1.05177 1.11557 1.1813 1.24966 1.3212 1.39641 1.47737 1.56017 1.65266 1.83425 1.92947 1.80587 1.26726 0 0 0.0391785 0.101547 0.18216 0.254884 0.331268 0.391886 0.453688 0.514121 0.575339 0.637095 0.698682 0.759562 0.819482 0.878922 0.938683 0.99927 1.06099 1.12427 1.18953 1.25766 1.32882 1.40429 1.48574 1.56673 1.6721 1.86639 1.91135 1.76958 1.24373 0 0 0.0472878 0.109482 0.184645 0.258025 0.331448 0.395553 0.458145 0.518429 0.579197 0.640471 0.702118 0.763628 0.824768 0.885202 0.945564 1.00631 1.06807 1.13126 1.19661 1.26495 1.33622 1.41294 1.49402 1.57435 1.7051 1.88475 1.88015 1.6991 1.15805 0 0 0.0523297 0.114256 0.184922 0.257827 0.330386 0.397221 0.460524 0.521491 0.581976 0.642943 0.704332 0.765914 0.827354 0.888598 0.949587 1.01089 1.07308 1.13658 1.20264 1.2714 1.34355 1.42227 1.50112 1.58654 1.75514 1.87912 1.82952 1.58241 0.987899 0 0 0.0552487 0.116997 0.184407 0.255227 0.326771 0.394914 0.459648 0.521407 0.58221 0.643295 0.704771 0.766392 0.82805 0.889635 0.951293 1.01342 1.07621 1.14064 1.20775 1.27715 1.35152 1.43113 1.5071 1.61197 1.80164 1.84938 1.74841 1.4054 0.729889 0 0 0.0569512 0.118309 0.183081 0.250903 0.320464 0.388865 0.454585 0.517813 0.579684 0.641299 0.703152 0.765259 0.827369 0.88929 0.951526 1.01437 1.07808 1.14403 1.21207 1.28301 1.36077 1.4377 1.51612 1.66235 1.81635 1.79847 1.62022 1.15139 0.429624 0 0 0.0575574 0.118418 0.181412 0.246336 0.312962 0.379947 0.445638 0.509978 0.573231 0.635839 0.698532 0.761531 0.824579 0.887612 0.950799 1.01439 1.07967 1.14704 1.21613 1.29055 1.36932 1.44248 1.54052 1.7246 1.79144 1.71421 1.42472 0.815318 0.187092 0 0 0.0575562 0.117871 0.179362 0.24194 0.305781 0.370426 0.435229 0.499788 0.563958 0.627792 0.691463 0.755436 0.819851 0.884376 0.948786 1.01425 1.08145 1.14979 1.22164 1.30025 1.3745 1.4521 1.59847 1.74586 1.73422 1.57327 1.13631 0.448001 0.0567238 0 0 0.0572785 0.116659 0.176712 0.237389 0.299127 0.362157 0.426081 0.490439 0.555032 0.619721 0.684474 0.749563 0.815092 0.880888 0.947386 1.01494 1.0832 1.15366 1.23081 1.30726 1.3791 1.48675 1.66468 1.71459 1.63462 1.34525 0.747651 0.173989 0.0106429 0 0 0.0567246 0.11499 0.173629 0.232854 0.293232 0.355197 0.41857 0.482889 0.547885 0.613333 0.67914 0.745281 0.811904 0.879336 0.947522 1.01601 1.08601 1.16178 1.23976 1.31093 1.39838 1.56283 1.66877 1.64076 1.45832 0.996953 0.35449 0.0438282 0.00112319 0 0 0.0560692 0.113289 0.170843 0.22912 0.288669 0.35002 0.413101 0.477455 0.542787 0.608862 0.675513 0.742733 0.810735 0.879356 0.948203 1.0184 1.0935 1.17182 1.24377 1.32282 1.46329 1.60415 1.61486 1.5034 1.16217 0.553835 0.11108 0.00623568 5.47016e-05 0 0 0.0556393 0.112093 0.168934 0.226711 0.285917 0.346991 0.409972 0.474462 0.540109 0.606702 0.67411 0.742238 0.810919 0.880124 0.950935 1.02601 1.10392 1.17658 1.25315 1.37701 1.52965 1.57001 1.50238 1.25175 0.724522 0.202387 0.0200484 0.00043589 1.02937e-06 0 0 0.0554959 0.111535 0.16812 0.225808 0.285015 0.346057 0.409049 0.473696 0.539615 0.606581 0.674408 0.743029 0.812616 0.884208 0.959482 1.03647 1.1095 1.18658 1.30343 1.45338 1.51188 1.47203 1.28352 0.840846 0.296393 0.0438147 0.00179665 1.12959e-05 1.14358e-08 0 0 0.0555903 0.111577 0.168239 0.226091 0.285491 0.34669 0.409815 0.474676 0.540925 0.60834 0.676887 0.746901 0.819181 0.894315 0.969909 1.04322 1.12311 1.23998 1.38044 1.44473 1.42199 1.27269 0.89801 0.371417 0.0723496 0.00463791 6.1326e-05 1.06488e-07 1.77015e-10 0 0 0.0560506 0.112369 0.169559 0.228045 0.288069 0.349794 0.413334 0.478628 0.545482 0.613892 0.684162 0.756598 0.830792 0.904885 0.979073 1.06462 1.18584 1.31053 1.3718 1.35679 1.22955 0.902788 0.412869 0.0966642 0.00848495 0.000190659 6.26466e-07 1.02931e-09 1.3845e-11 0 0 0.0569681 0.114224 0.17255 0.232255 0.29343 0.356158 0.420562 0.486745 0.554777 0.624717 0.696375 0.769013 0.842211 0.919723 1.01454 1.13716 1.23988 1.29362 1.27818 1.1598 0.862835 0.415408 0.109058 0.0118147 0.000381162 2.12038e-06 3.9619e-09 -3.94368e-12 2.47391e-11 0 0 0.058336 0.117107 0.177136 0.238617 0.301484 0.365732 0.431455 0.498765 0.567647 0.637892 0.70957 0.784737 0.869943 0.975204 1.08459 1.16575 1.2076 1.18572 1.06531 0.784076 0.381229 0.106155 0.0130131 0.000528017 4.27593e-06 9.85022e-09 2.9343e-11 -4.06615e-14 -2.10148e-11 0 0 0.0601021 0.120788 0.182914 0.246475 0.311198 0.376948 0.443778 0.511958 0.5822 0.656344 0.738336 0.833502 0.933518 1.01968 1.08534 1.11031 1.07641 0.945136 0.671149 0.317869 0.0894269 0.0114982 0.000525709 5.36748e-06 1.56726e-08 6.07415e-11 -2.0904e-11 3.32911e-11 -3.32488e-11 0 0 0.0619385 0.12473 0.189101 0.254832 0.321645 0.389831 0.460297 0.534765 0.615839 0.703542 0.791696 0.872617 0.942909 0.991103 0.997629 0.945271 0.79714 0.530284 0.237409 0.0642046 0.00807876 0.000376633 4.26414e-06 1.56645e-08 7.71377e-11 1.90774e-13 -6.6829e-11 6.67811e-11 1.47089e-13 0 0 0.0650108 0.131022 0.199615 0.269537 0.341921 0.417101 0.494758 0.573798 0.651666 0.725841 0.795235 0.850023 0.876565 0.862529 0.786599 0.621342 0.375135 0.155008 0.0378474 0.00436307 0.000187535 2.10859e-06 9.76282e-09 8.53363e-11 1.7006e-13 -3.34151e-11 9.26322e-14 -1.19963e-13 3.35497e-11 0 0 0.0680425 0.143667 0.212618 0.288031 0.36223 0.435871 0.508258 0.578523 0.643798 0.697267 0.732091 0.736152 0.698375 0.597745 0.426049 0.227497 0.0834308 0.0171839 0.00169038 6.02461e-05 6.2062e-07 3.92033e-09 2.91413e-11 -2.0962e-11 -8.58007e-15 7.92218e-14 -8.43602e-14 6.41454e-14 -7.17657e-14 0 0 0.0763856 0.121882 0.224463 0.301036 0.372176 0.437915 0.497403 0.546484 0.579292 0.588998 0.568084 0.503381 0.388054 0.24087 0.111563 0.0333852 0.00542712 0.000414115 1.11014e-05 1.04772e-07 1.01542e-09 -4.03218e-12 2.46934e-11 -3.34307e-11 2.51108e-14 6.61229e-14 -6.41453e-14 7.49297e-14 -7.57642e-14 0 0 -0.132244 0.13513 0.245306 0.329409 0.398536 0.453824 0.489569 0.497446 0.470424 0.405274 0.309262 0.19994 0.103986 0.0382925 0.00847578 0.00101229 5.26373e-05 1.0083e-06 1.11366e-08 1.74486e-10 -1.09796e-11 -4.19312e-14 -2.11481e-11 3.35086e-11 -2.82868e-14 -3.33789e-11 -5.65491e-14 7.41192e-14 3.34271e-11 0 0 0 0 0 0 0 0 0 0 0 0 0 0 0 0 0 0 0 0 0 0 0 0 0 0 0 0 0 0 0 0
				</DataArray>
				<DataArray Name="VitesseY" type="Float32" format="ascii">
 0 0 0 0 0 0 0 0 0 0 0 0 0 0 0 0 0 0 0 0 0 0 0 0 0 0 0 0 0 0 0 -0.0416314 0.177429 0.168013 0.124266 0.0603803 0.0256918 0.0211413 0.0293039 0.0391863 0.0472938 0.0523344 0.0552532 0.0569559 0.0575617 0.0575603 0.0572821 0.0567274 0.0560708 0.0556399 0.055496 0.05559 0.05605 0.0569673 0.0583353 0.0601015 0.0619425 0.0648418 0.0704852 0.0773859 0.0896785 0 -0.179089 0.168006 0.267906 0.230483 0.153576 0.10418 0.0959396 0.09589 0.101561 0.109491 0.11426 0.117 0.118313 0.118423 0.117876 0.116664 0.114994 0.113291 0.112094 0.111534 0.111576 0.112368 0.114223 0.117106 0.120788 0.124716 0.131132 0.142072 0.154164 0.175148 0 -0.160279 0.160216 0.337434 0.315861 0.259765 0.200764 0.18523 0.182451 0.182184 0.184656 0.184925 0.184407 0.183082 0.181415 0.179367 0.176716 0.173631 0.170845 0.168934 0.168119 0.168238 0.169557 0.172549 0.177135 0.182914 0.189103 0.19939 0.214744 0.229382 0.256158 0 -0.0921703 0.151795 0.344067 0.348683 0.321218 0.277578 0.253733 0.250281 0.254911 0.258043 0.257835 0.255228 0.250902 0.246338 0.241942 0.237392 0.232856 0.229121 0.226711 0.225807 0.22609 0.228044 0.232254 0.238617 0.246476 0.254827 0.269526 0.288314 0.302451 0.331598 0 0.0153492 0.191552 0.360402 0.396719 0.384928 0.354308 0.333334 0.330585 0.331293 0.331467 0.330399 0.326777 0.320465 0.312962 0.305783 0.299128 0.293232 0.288669 0.285916 0.285013 0.28549 0.288068 0.293429 0.301485 0.311199 0.321646 0.34193 0.362298 0.372388 0.398955 0 0.141415 0.261175 0.391619 0.430602 0.427853 0.408298 0.391836 0.389148 0.391906 0.39557 0.397235 0.394925 0.38887 0.379948 0.370426 0.362156 0.355195 0.350018 0.346989 0.346056 0.346689 0.349793 0.356158 0.365734 0.37695 0.389832 0.417103 0.435883 0.437951 0.453897 0 0.254323 0.337273 0.432009 0.462966 0.467756 0.462662 0.453755 0.451847 0.453704 0.458162 0.460539 0.45966 0.454593 0.445641 0.435228 0.42608 0.418567 0.413098 0.40997 0.409047 0.409813 0.413334 0.420562 0.431457 0.443779 0.460298 0.49476 0.508262 0.497411 0.489583 0 0.351291 0.409349 0.47183 0.503889 0.522069 0.52246 0.515281 0.512266 0.514133 0.518444 0.521505 0.521419 0.517821 0.509981 0.499788 0.490437 0.482886 0.477452 0.474459 0.473693 0.474673 0.478627 0.486745 0.498766 0.511958 0.534766 0.5738 0.578526 0.546488 0.49745 0 0.437191 0.48029 0.520282 0.545597 0.565792 0.573194 0.573136 0.573331 0.57535 0.57921 0.581987 0.58222 0.57969 0.573233 0.563957 0.55503 0.547882 0.542784 0.540106 0.539612 0.540923 0.545481 0.554776 0.567646 0.582201 0.61584 0.651668 0.6438 0.579294 0.470426 0 0.515147 0.546931 0.572059 0.59331 0.614791 0.627251 0.63188 0.6344 0.637104 0.640482 0.642952 0.643303 0.641303 0.63584 0.62779 0.619719 0.613331 0.60886 0.6067 0.606578 0.608338 0.61389 0.624715 0.637891 0.656344 0.703543 0.725842 0.697269 0.589 0.405275 0 0.586928 0.610483 0.62716 0.643966 0.662956 0.678508 0.687832 0.694176 0.69869 0.702127 0.704339 0.704776 0.703154 0.698531 0.69146 0.684472 0.679139 0.675512 0.674109 0.674407 0.676886 0.68416 0.696374 0.70957 0.738337 0.791698 0.795236 0.732092 0.568084 0.30926 0 0.656342 0.673407 0.685252 0.698269 0.713919 0.730434 0.743485 0.753073 0.759569 0.763635 0.765919 0.766395 0.76526 0.76153 0.755433 0.749561 0.74528 0.742733 0.742237 0.743029 0.746901 0.756597 0.769011 0.784736 0.833503 0.872618 0.850023 0.736151 0.503379 0.199938 0 0.723952 0.735825 0.744876 0.755449 0.768699 0.784359 0.799364 0.811075 0.819489 0.824773 0.827358 0.828052 0.82737 0.824578 0.819849 0.815091 0.811904 0.810735 0.810919 0.812616 0.819181 0.830791 0.84221 0.869943 0.933519 0.942909 0.876564 0.698373 0.388051 0.103985 0 0.791436 0.798743 0.806101 0.815237 0.826958 0.841315 0.856661 0.869445 0.878928 0.885206 0.8886 0.889636 0.889291 0.887612 0.884375 0.880886 0.879335 0.879355 0.880124 0.884208 0.894314 0.904884 0.919722 0.975204 1.01968 0.991102 0.862527 0.597742 0.240867 0.0382916 0 0.859164 0.862649 0.868877 0.877386 0.88819 0.901348 0.916082 0.928879 0.938689 0.945568 0.949589 0.951294 0.951527 0.950799 0.948786 0.947385 0.947521 0.948203 0.950934 0.959481 0.969908 0.979072 1.01454 1.08458 1.08534 0.997627 0.786597 0.426045 0.111561 0.00847551 0 0.927591 0.928023 0.933581 0.941836 0.951953 0.963871 0.977374 0.989631 0.999276 1.00631 1.01089 1.01342 1.01437 1.01439 1.01425 1.01494 1.01601 1.0184 1.02601 1.03647 1.04322 1.06462 1.13716 1.16575 1.1103 0.945268 0.621338 0.227494 0.0333844 0.00101224 0 0.997183 0.9952 1.00052 1.0085 1.01787 1.02848 1.04041 1.05178 1.061 1.06807 1.07308 1.07621 1.07808 1.07967 1.08145 1.0832 1.08601 1.0935 1.10392 1.1095 1.12311 1.18584 1.23988 1.2076 1.07641 0.797136 0.375131 0.0834292 0.00542694 5.26344e-05 0 1.06819 1.06444 1.0697 1.07723 1.08571 1.095 1.10526 1.11557 1.12427 1.13126 1.13659 1.14064 1.14403 1.14704 1.14979 1.15366 1.16178 1.17182 1.17658 1.18658 1.23998 1.31052 1.29362 1.18572 0.945132 0.53028 0.155006 0.0171835 0.000414098 1.00823e-06 0 1.14072 1.13585 1.14103 1.14797 1.15544 1.16345 1.17217 1.1813 1.18954 1.19662 1.20264 1.20775 1.21207 1.21613 1.22164 1.23081 1.23976 1.24377 1.25314 1.30343 1.38044 1.3718 1.27818 1.06531 0.671145 0.237406 0.0378467 0.00169032 1.11008e-05 1.11359e-08 0 1.2149 1.20954 1.21451 1.22077 1.22724 1.23407 1.24155 1.24966 1.25767 1.26495 1.2714 1.27715 1.28301 1.29055 1.30025 1.30726 1.31094 1.32282 1.377 1.45338 1.44473 1.35679 1.1598 0.784073 0.317866 0.0642036 0.00436295 6.02438e-05 1.04765e-07 1.74477e-10 0 1.29115 1.28581 1.29043 1.29596 1.30152 1.30738 1.31391 1.3212 1.32882 1.33622 1.34355 1.35152 1.36077 1.36932 1.37451 1.3791 1.39838 1.46329 1.52965 1.51188 1.42199 1.22955 0.862832 0.381227 0.089426 0.0080786 0.000187529 6.20589e-07 1.01537e-09 -1.09797e-11 0 1.36996 1.36498 1.36903 1.37372 1.37843 1.38354 1.38947 1.39641 1.4043 1.41294 1.42227 1.43113 1.4377 1.44249 1.45211 1.48675 1.56283 1.60415 1.57001 1.47203 1.2727 0.902787 0.415407 0.106155 0.0114981 0.000376625 2.1085e-06 3.92017e-09 -4.03262e-12 -4.19313e-14 0 1.45182 1.44737 1.45071 1.45461 1.45882 1.46382 1.46997 1.47737 1.48574 1.49403 1.50112 1.5071 1.51612 1.54052 1.59847 1.66468 1.66877 1.61486 1.50238 1.28353 0.898011 0.412869 0.109058 0.013013 0.000525706 4.26405e-06 9.76255e-09 2.91401e-11 2.46935e-11 -2.11481e-11 0 1.53839 1.53442 1.53685 1.53987 1.54361 1.54832 1.55395 1.56018 1.56674 1.57435 1.58654 1.61198 1.66236 1.7246 1.74586 1.7146 1.64076 1.5034 1.25175 0.84085 0.37142 0.096665 0.0118148 0.00052802 5.36747e-06 1.56644e-08 8.5335e-11 -2.0962e-11 -3.34307e-11 3.35086e-11 0 1.62701 1.62319 1.62412 1.62584 1.6289 1.63374 1.64107 1.65267 1.67211 1.7051 1.75514 1.80164 1.81635 1.79144 1.73422 1.63462 1.45833 1.16217 0.724527 0.296396 0.0723507 0.00848511 0.000381169 4.27602e-06 1.56727e-08 7.71377e-11 1.70059e-13 -8.58007e-15 2.51108e-14 -2.82868e-14 0 1.73093 1.72838 1.73124 1.73822 1.75097 1.77097 1.8 1.83425 1.86639 1.88475 1.87912 1.84938 1.79847 1.71422 1.57327 1.34526 0.996959 0.553841 0.20239 0.0438155 0.00463803 0.000190666 2.12046e-06 9.85049e-09 6.07428e-11 1.90774e-13 -3.34151e-11 7.92218e-14 6.61229e-14 -3.33789e-11 0 1.91506 1.91048 1.9117 1.91703 1.92445 1.93305 1.93576 1.92948 1.91136 1.88016 1.82953 1.74842 1.62022 1.42472 1.13632 0.747658 0.354495 0.111082 0.020049 0.00179671 6.13283e-05 6.26497e-07 3.96206e-09 2.93442e-11 -2.09041e-11 -6.6829e-11 9.26322e-14 -8.43602e-14 -6.41453e-14 -5.65491e-14 0 1.83277 1.83256 1.81093 1.7939 1.80662 1.81691 1.81892 1.80587 1.76958 1.6991 1.58242 1.4054 1.15139 0.815325 0.448007 0.173993 0.0438294 0.00623589 0.000435909 1.12965e-05 1.06494e-07 1.02936e-09 -3.94324e-12 -4.063e-14 3.32911e-11 6.67811e-11 -1.19963e-13 6.41454e-14 7.49297e-14 7.41192e-14 0 1.51156 1.31919 1.13176 1.16827 1.19333 1.22626 1.25502 1.26727 1.24373 1.15805 0.987903 0.729894 0.429629 0.187095 0.0567253 0.0106433 0.00112324 5.47046e-05 1.02944e-06 1.14365e-08 1.77024e-10 1.38451e-11 2.47391e-11 -2.10148e-11 -3.32488e-11 1.47089e-13 3.35497e-11 -7.17657e-14 -7.57642e-14 3.34271e-11 0 1.62548 0 0 0 0 0 0 0 0 0 0 0 0 0 0 0 0 0 0 0 0 0 0 0 0 0 0 0 0 0 0
				</DataArray>
			</PointData>
			<CellData Scalars="Density">
				<DataArray Name="Density" type="Float32" format="ascii">