<?xml version="1.0"?>
<VTKFile type="PolyData">
	<PolyData>
		<Piece NumberOfPoints="961" NumberOfPolys="900">
			<Points>
				<DataArray type="Float32" NumberOfComponents="3" format="ascii">
 0 0 0 0.04 0 0 0.08 0 0 0.12 0 0 0.16 0 0 0.2 0 0 0.24 0 0 0.28 0 0 0.32 0 0 0.36 0 0 0.4 0 0 0.44 0 0 0.48 0 0 0.52 0 0 0.56 0 0 0.6 0 0 0.64 0 0 0.68 0 0 0.72 0 0 0.76 0 0 0.8 0 0 0.84 0 0 0.88 0 0 0.92 0 0 0.96 0 0 1 0 0 1.04 0 0 1.08 0 0 1.12 0 0 1.16 0 0 1.2 0 0 0 0.04 0 0.04 0.04 0 0.08 0.04 0 0.12 0.04 0 0.16 0.04 0 0.2 0.04 0 0.24 0.04 0 0.28 0.04 0 0.32 0.04 0 0.36 0.04 0 0.4 0.04 0 0.44 0.04 0 0.48 0.04 0 0.52 0.04 0 0.56 0.04 0 0.6 0.04 0 0.64 0.04 0 0.68 0.04 0 0.72 0.04 0 0.76 0.04 0 0.8 0.04 0 0.84 0.04 0 0.88 0.04 0 0.92 0.04 0 0.96 0.04 0 1 0.04 0 1.04 0.04 0 1.08 0.04 0 1.12 0.04 0 1.16 0.04 0 1.2 0.04 0 0 0.08 0 0.04 0.08 0 0.08 0.08 0 0.12 0.08 0 0.16 0.08 0 0.2 0.08 0 0.24 0.08 0 0.28 0.08 0 0.32 0.08 0 0.36 0.08 0 0.4 0.08 0 0.44 0.08 0 0.48 0.08 0 0.52 0.08 0 0.56 0.08 0 0.6 0.08 0 0.64 0.08 0 0.68 0.08 0 0.72 0.08 0 0.76 0.08 0 0.8 0.08 0 0.84 0.08 0 0.88 0.08 0 0.92 0.08 0 0.96 0.08 0 1 0.08 0 1.04 0.08 0 1.08 0.08 0 1.12 0.08 0 1.16 0.08 0 1.2 0.08 0 0 0.12 0 0.04 0.12 0 0.08 0.12 0 0.12 0.12 0 0.16 0.12 0 0.2 0.12 0 0.24 0.12 0 0.28 0.12 0 0.32 0.12 0 0.36 0.12 0 0.4 0.12 0 0.44 0.12 0 0.48 0.12 0 0.52 0.12 0 0.56 0.12 0 0.6 0.12 0 0.64 0.12 0 0.68 0.12 0 0.72 0.12 0 0.76 0.12 0 0.8 0.12 0 0.84 0.12 0 0.88 0.12 0 0.92 0.12 0 0.96 0.12 0 1 0.12 0 1.04 0.12 0 1.08 0.12 0 1.12 0.12 0 1.16 0.12 0 1.2 0.12 0 0 0.16 0 0.04 0.16 0 0.08 0.16 0 0.12 0.16 0 0.16 0.16 0 0.2 0.16 0 0.24 0.16 0 0.28 0.16 0 0.32 0.16 0 0.36 0.16 0 0.4 0.16 0 0.44 0.16 0 0.48 0.16 0 0.52 0.16 0 0.56 0.16 0 0.6 0.16 0 0.64 0.16 0 0.68 0.16 0 0.72 0.16 0 0.76 0.16 0 0.8 0.16 0 0.84 0.16 0 0.88 0.16 0 0.92 0.16 0 0.96 0.16 0 1 0.16 0 1.04 0.16 0 1.08 0.16 0 1.12 0.16 0 1.16 0.16 0 1.2 0.16 0 0 0.2 0 0.04 0.2 0 0.08 0.2 0 0.12 0.2 0 0.16 0.2 0 0.2 0.2 0 0.24 0.2 0 0.28 0.2 0 0.32 0.2 0 0.36 0.2 0 0.4 0.2 0 0.44 0.2 0 0.48 0.2 0 0.52 0.2 0 0.56 0.2 0 0.6 0.2 0 0.64 0.2 0 0.68 0.2 0 0.72 0.2 0 0.76 0.2 0 0.8 0.2 0 0.84 0.2 0 0.88 0.2 0 0.92 0.2 0 0.96 0.2 0 1 0.2 0 1.04 0.2 0 1.08 0.2 0 1.12 0.2 0 1.16 0.2 0 1.2 0.2 0 0 0.24 0 0.04 0.24 0 0.08 0.24 0 0.12 0.24 0 0.16 0.24 0 0.2 0.24 0 0.24 0.24 0 0.28 0.24 0 0.32 0.24 0 0.36 0.24 0 0.4 0.24 0 0.44 0.24 0 0.48 0.24 0 0.52 0.24 0 0.56 0.24 0 0.6 0.24 0 0.64 0.24 0 0.68 0.24 0 0.72 0.24 0 0.76 0.24 0 0.8 0.24 0 0.84 0.24 0 0.88 0.24 0 0.92 0.24 0 0.96 0.24 0 1 0.24 0 1.04 0.24 0 1.08 0.24 0 1.12 0.24 0 1.16 0.24 0 1.2 0.24 0 0 0.28 0 0.04 0.28 0 0.08 0.28 0 0.12 0.28 0 0.16 0.28 0 0.2 0.28 0 0.24 0.28 0 0.28 0.28 0 0.32 0.28 0 0.36 0.28 0 0.4 0.28 0 0.44 0.28 0 0.48 0.28 0 0.52 0.28 0 0.56 0.28 0 0.6 0.28 0 0.64 0.28 0 0.68 0.28 0 0.72 0.28 0 0.76 0.28 0 0.8 0.28 0 0.84 0.28 0 0.88 0.28 0 0.92 0.28 0 0.96 0.28 0 1 0.28 0 1.04 0.28 0 1.08 0.28 0 1.12 0.28 0 1.16 0.28 0 1.2 0.28 0 0 0.32 0 0.04 0.32 0 0.08 0.32 0 0.12 0.32 0 0.16 0.32 0 0.2 0.32 0 0.24 0.32 0 0.28 0.32 0 0.32 0.32 0 0.36 0.32 0 0.4 0.32 0 0.44 0.32 0 0.48 0.32 0 0.52 0.32 0 0.56 0.32 0 0.6 0.32 0 0.64 0.32 0 0.68 0.32 0 0.72 0.32 0 0.76 0.32 0 0.8 0.32 0 0.84 0.32 0 0.88 0.32 0 0.92 0.32 0 0.96 0.32 0 1 0.32 0 1.04 0.32 0 1.08 0.32 0 1.12 0.32 0 1.16 0.32 0 1.2 0.32 0 0 0.36 0 0.04 0.36 0 0.08 0.36 0 0.12 0.36 0 0.16 0.36 0 0.2 0.36 0 0.24 0.36 0 0.28 0.36 0 0.32 0.36 0 0.36 0.36 0 0.4 0.36 0 0.44 0.36 0 0.48 0.36 0 0.52 0.36 0 0.56 0.36 0 0.6 0.36 0 0.64 0.36 0 0.68 0.36 0 0.72 0.36 0 0.76 0.36 0 0.8 0.36 0 0.84 0.36 0 0.88 0.36 0 0.92 0.36 0 0.96 0.36 0 1 0.36 0 1.04 0.36 0 1.08 0.36 0 1.12 0.36 0 1.16 0.36 0 1.2 0.36 0 0 0.4 0 0.04 0.4 0 0.08 0.4 0 0.12 0.4 0 0.16 0.4 0 0.2 0.4 0 0.24 0.4 0 0.28 0.4 0 0.32 0.4 0 0.36 0.4 0 0.4 0.4 0 0.44 0.4 0 0.48 0.4 0 0.52 0.4 0 0.56 0.4 0 0.6 0.4 0 0.64 0.4 0 0.68 0.4 0 0.72 0.4 0 0.76 0.4 0 0.8 0.4 0 0.84 0.4 0 0.88 0.4 0 0.92 0.4 0 0.96 0.4 0 1 0.4 0 1.04 0.4 0 1.08 0.4 0 1.12 0.4 0 1.16 0.4 0 1.2 0.4 0 0 0.44 0 0.04 0.44 0 0.08 0.44 0 0.12 0.44 0 0.16 0.44 0 0.2 0.44 0 0.24 0.44 0 0.28 0.44 0 0.32 0.44 0 0.36 0.44 0 0.4 0.44 0 0.44 0.44 0 0.48 0.44 0 0.52 0.44 0 0.56 0.44 0 0.6 0.44 0 0.64 0.44 0 0.68 0.44 0 0.72 0.44 0 0.76 0.44 0 0.8 0.44 0 0.84 0.44 0 0.88 0.44 0 0.92 0.44 0 0.96 0.44 0 1 0.44 0 1.04 0.44 0 1.08 0.44 0 1.12 0.44 0 1.16 0.44 0 1.2 0.44 0 0 0.48 0 0.04 0.48 0 0.08 0.48 0 0.12 0.48 0 0.16 0.48 0 0.2 0.48 0 0.24 0.48 0 0.28 0.48 0 0.32 0.48 0 0.36 0.48 0 0.4 0.48 0 0.44 0.48 0 0.48 0.48 0 0.52 0.48 0 0.56 0.48 0 0.6 0.48 0 0.64 0.48 0 0.68 0.48 0 0.72 0.48 0 0.76 0.48 0 0.8 0.48 0 0.84 0.48 0 0.88 0.48 0 0.92 0.48 0 0.96 0.48 0 1 0.48 0 1.04 0.48 0 1.08 0.48 0 1.12 0.48 0 1.16 0.48 0 1.2 0.48 0 0 0.52 0 0.04 0.52 0 0.08 0.52 0 0.12 0.52 0 0.16 0.52 0 0.2 0.52 0 0.24 0.52 0 0.28 0.52 0 0.32 0.52 0 0.36 0.52 0 0.4 0.52 0 0.44 0.52 0 0.48 0.52 0 0.52 0.52 0 0.56 0.52 0 0.6 0.52 0 0.64 0.52 0 0.68 0.52 0 0.72 0.52 0 0.76 0.52 0 0.8 0.52 0 0.84 0.52 0 0.88 0.52 0 0.92 0.52 0 0.96 0.52 0 1 0.52 0 1.04 0.52 0 1.08 0.52 0 1.12 0.52 0 1.16 0.52 0 1.2 0.52 0 0 0.56 0 0.04 0.56 0 0.08 0.56 0 0.12 0.56 0 0.16 0.56 0 0.2 0.56 0 0.24 0.56 0 0.28 0.56 0 0.32 0.56 0 0.36 0.56 0 0.4 0.56 0 0.44 0.56 0 0.48 0.56 0 0.52 0.56 0 0.56 0.56 0 0.6 0.56 0 0.64 0.56 0 0.68 0.56 0 0.72 0.56 0 0.76 0.56 0 0.8 0.56 0 0.84 0.56 0 0.88 0.56 0 0.92 0.56 0 0.96 0.56 0 1 0.56 0 1.04 0.56 0 1.08 0.56 0 1.12 0.56 0 1.16 0.56 0 1.2 0.56 0 0 0.6 0 0.04 0.6 0 0.08 0.6 0 0.12 0.6 0 0.16 0.6 0 0.2 0.6 0 0.24 0.6 0 0.28 0.6 0 0.32 0.6 0 0.36 0.6 0 0.4 0.6 0 0.44 0.6 0 0.48 0.6 0 0.52 0.6 0 0.56 0.6 0 0.6 0.6 0 0.64 0.6 0 0.68 0.6 0 0.72 0.6 0 0.76 0.6 0 0.8 0.6 0 0.84 0.6 0 0.88 0.6 0 0.92 0.6 0 0.96 0.6 0 1 0.6 0 1.04 0.6 0 1.08 0.6 0 1.12 0.6 0 1.16 0.6 0 1.2 0.6 0 0 0.64 0 0.04 0.64 0 0.08 0.64 0 0.12 0.64 0 0.16 0.64 0 0.2 0.64 0 0.24 0.64 0 0.28 0.64 0 0.32 0.64 0 0.36 0.64 0 0.4 0.64 0 0.44 0.64 0 0.48 0.64 0 0.52 0.64 0 0.56 0.64 0 0.6 0.64 0 0.64 0.64 0 0.68 0.64 0 0.72 0.64 0 0.76 0.64 0 0.8 0.64 0 0.84 0.64 0 0.88 0.64 0 0.92 0.64 0 0.96 0.64 0 1 0.64 0 1.04 0.64 0 1.08 0.64 0 1.12 0.64 0 1.16 0.64 0 1.2 0.64 0 0 0.68 0 0.04 0.68 0 0.08 0.68 0 0.12 0.68 0 0.16 0.68 0 0.2 0.68 0 0.24 0.68 0 0.28 0.68 0 0.32 0.68 0 0.36 0.68 0 0.4 0.68 0 0.44 0.68 0 0.48 0.68 0 0.52 0.68 0 0.56 0.68 0 0.6 0.68 0 0.64 0.68 0 0.68 0.68 0 0.72 0.68 0 0.76 0.68 0 0.8 0.68 0 0.84 0.68 0 0.88 0.68 0 0.92 0.68 0 0.96 0.68 0 1 0.68 0 1.04 0.68 0 1.08 0.68 0 1.12 0.68 0 1.16 0.68 0 1.2 0.68 0 0 0.72 0 0.04 0.72 0 0.08 0.72 0 0.12 0.72 0 0.16 0.72 0 0.2 0.72 0 0.24 0.72 0 0.28 0.72 0 0.32 0.72 0 0.36 0.72 0 0.4 0.72 0 0.44 0.72 0 0.48 0.72 0 0.52 0.72 0 0.56 0.72 0 0.6 0.72 0 0.64 0.72 0 0.68 0.72 0 0.72 0.72 0 0.76 0.72 0 0.8 0.72 0 0.84 0.72 0 0.88 0.72 0 0.92 0.72 0 0.96 0.72 0 1 0.72 0 1.04 0.72 0 1.08 0.72 0 1.12 0.72 0 1.16 0.72 0 1.2 0.72 0 0 0.76 0 0.04 0.76 0 0.08 0.76 0 0.12 0.76 0 0.16 0.76 0 0.2 0.76 0 0.24 0.76 0 0.28 0.76 0 0.32 0.76 0 0.36 0.76 0 0.4 0.76 0 0.44 0.76 0 0.48 0.76 0 0.52 0.76 0 0.56 0.76 0 0.6 0.76 0 0.64 0.76 0 0.68 0.76 0 0.72 0.76 0 0.76 0.76 0 0.8 0.76 0 0.84 0.76 0 0.88 0.76 0 0.92 0.76 0 0.96 0.76 0 1 0.76 0 1.04 0.76 0 1.08 0.76 0 1.12 0.76 0 1.16 0.76 0 1.2 0.76 0 0 0.8 0 0.04 0.8 0 0.08 0.8 0 0.12 0.8 0 0.16 0.8 0 0.2 0.8 0 0.24 0.8 0 0.28 0.8 0 0.32 0.8 0 0.36 0.8 0 0.4 0.8 0 0.44 0.8 0 0.48 0.8 0 0.52 0.8 0 0.56 0.8 0 0.6 0.8 0 0.64 0.8 0 0.68 0.8 0 0.72 0.8 0 0.76 0.8 0 0.8 0.8 0 0.84 0.8 0 0.88 0.8 0 0.92 0.8 0 0.96 0.8 0 1 0.8 0 1.04 0.8 0 1.08 0.8 0 1.12 0.8 0 1.16 0.8 0 1.2 0.8 0 0 0.84 0 0.04 0.84 0 0.08 0.84 0 0.12 0.84 0 0.16 0.84 0 0.2 0.84 0 0.24 0.84 0 0.28 0.84 0 0.32 0.84 0 0.36 0.84 0 0.4 0.84 0 0.44 0.84 0 0.48 0.84 0 0.52 0.84 0 0.56 0.84 0 0.6 0.84 0 0.64 0.84 0 0.68 0.84 0 0.72 0.84 0 0.76 0.84 0 0.8 0.84 0 0.84 0.84 0 0.88 0.84 0 0.92 0.84 0 0.96 0.84 0 1 0.84 0 1.04 0.84 0 1.08 0.84 0 1.12 0.84 0 1.16 0.84 0 1.2 0.84 0 0 0.88 0 0.04 0.88 0 0.08 0.88 0 0.12 0.88 0 0.16 0.88 0 0.2 0.88 0 0.24 0.88 0 0.28 0.88 0 0.32 0.88 0 0.36 0.88 0 0.4 0.88 0 0.44 0.88 0 0.48 0.88 0 0.52 0.88 0 0.56 0.88 0 0.6 0.88 0 0.64 0.88 0 0.68 0.88 0 0.72 0.88 0 0.76 0.88 0 0.8 0.88 0 0.84 0.88 0 0.88 0.88 0 0.92 0.88 0 0.96 0.88 0 1 0.88 0 1.04 0.88 0 1.08 0.88 0 1.12 0.88 0 1.16 0.88 0 1.2 0.88 0 0 0.92 0 0.04 0.92 0 0.08 0.92 0 0.12 0.92 0 0.16 0.92 0 0.2 0.92 0 0.24 0.92 0 0.28 0.92 0 0.32 0.92 0 0.36 0.92 0 0.4 0.92 0 0.44 0.92 0 0.48 0.92 0 0.52 0.92 0 0.56 0.92 0 0.6 0.92 0 0.64 0.92 0 0.68 0.92 0 0.72 0.92 0 0.76 0.92 0 0.8 0.92 0 0.84 0.92 0 0.88 0.92 0 0.92 0.92 0 0.96 0.92 0 1 0.92 0 1.04 0.92 0 1.08 0.92 0 1.12 0.92 0 1.16 0.92 0 1.2 0.92 0 0 0.96 0 0.04 0.96 0 0.08 0.96 0 0.12 0.96 0 0.16 0.96 0 0.2 0.96 0 0.24 0.96 0 0.28 0.96 0 0.32 0.96 0 0.36 0.96 0 0.4 0.96 0 0.44 0.96 0 0.48 0.96 0 0.52 0.96 0 0.56 0.96 0 0.6 0.96 0 0.64 0.96 0 0.68 0.96 0 0.72 0.96 0 0.76 0.96 0 0.8 0.96 0 0.84 0.96 0 0.88 0.96 0 0.92 0.96 0 0.96 0.96 0 1 0.96 0 1.04 0.96 0 1.08 0.96 0 1.12 0.96 0 1.16 0.96 0 1.2 0.96 0 0 1 0 0.04 1 0 0.08 1 0 0.12 1 0 0.16 1 0 0.2 1 0 0.24 1 0 0.28 1 0 0.32 1 0 0.36 1 0 0.4 1 0 0.44 1 0 0.48 1 0 0.52 1 0 0.56 1 0 0.6 1 0 0.64 1 0 0.68 1 0 0.72 1 0 0.76 1 0 0.8 1 0 0.84 1 0 0.88 1 0 0.92 1 0 0.96 1 0 1 1 0 1.04 1 0 1.08 1 0 1.12 1 0 1.16 1 0 1.2 1 0 0 1.04 0 0.04 1.04 0 0.08 1.04 0 0.12 1.04 0 0.16 1.04 0 0.2 1.04 0 0.24 1.04 0 0.28 1.04 0 0.32 1.04 0 0.36 1.04 0 0.4 1.04 0 0.44 1.04 0 0.48 1.04 0 0.52 1.04 0 0.56 1.04 0 0.6 1.04 0 0.64 1.04 0 0.68 1.04 0 0.72 1.04 0 0.76 1.04 0 0.8 1.04 0 0.84 1.04 0 0.88 1.04 0 0.92 1.04 0 0.96 1.04 0 1 1.04 0 1.04 1.04 0 1.08 1.04 0 1.12 1.04 0 1.16 1.04 0 1.2 1.04 0 0 1.08 0 0.04 1.08 0 0.08 1.08 0 0.12 1.08 0 0.16 1.08 0 0.2 1.08 0 0.24 1.08 0 0.28 1.08 0 0.32 1.08 0 0.36 1.08 0 0.4 1.08 0 0.44 1.08 0 0.48 1.08 0 0.52 1.08 0 0.56 1.08 0 0.6 1.08 0 0.64 1.08 0 0.68 1.08 0 0.72 1.08 0 0.76 1.08 0 0.8 1.08 0 0.84 1.08 0 0.88 1.08 0 0.92 1.08 0 0.96 1.08 0 1 1.08 0 1.04 1.08 0 1.08 1.08 0 1.12 1.08 0 1.16 1.08 0 1.2 1.08 0 0 1.12 0 
[...]
			<PointData Scalars="VitesseX">
				<DataArray Name="VitesseX" type="Float32" format="ascii">
 0 -0.0551704 -0.118395 -0.155605 -0.12567 -0.0626744 0.0150679 0.0993269 0.177765 0.24391 0.300642 0.349951 0.394054 0.433112 0.461536 0.441768 0.343361 0.146134 -0.194272 -0.650316 -1.09989 -1.42619 -1.58357 -1.5872 -1.44293 -1.21396 -0.959232 -0.711336 -0.482964 -0.258994 0 0 0.11134 0.121043 0.0597244 0.0515321 0.0746431 0.127254 0.180345 0.233954 0.285687 0.333538 0.376224 0.414876 0.449483 0.474496 0.453916 0.355484 0.160771 -0.174809 -0.627415 -1.07819 -1.40884 -1.57144 -1.57998 -1.4401 -1.21299 -0.958974 -0.711342 -0.483243 -0.259601 0 0 0.11525 0.201857 0.219066 0.238656 0.230723 0.24824 0.270963 0.299316 0.329561 0.362077 0.394071 0.42593 0.456585 0.480617 0.465894 0.375212 0.194665 -0.121595 -0.560472 -1.01264 -1.35554 -1.53393 -1.55735 -1.43103 -1.20985 -0.957749 -0.710219 -0.482357 -0.260097 0 0 0.0917129 0.164621 0.216114 0.250501 0.25342 0.276031 0.295429 0.321394 0.34553 0.373009 0.400863 0.430595 0.460378 0.485547 0.48102 0.403808 0.245261 -0.0402138 -0.4559 -0.909045 -1.27168 -1.47551 -1.52246 -1.4182 -1.20688 -0.95767 -0.709485 -0.48096 -0.26035 0 0 0.0464411 0.112907 0.181663 0.224203 0.244786 0.273328 0.29168 0.321782 0.348452 0.379518 0.408038 0.436845 0.465467 0.491395 0.497942 0.439376 0.307354 0.06134 -0.32009 -0.769548 -1.15716 -1.39631 -1.47405 -1.40087 -1.20452 -0.959508 -0.710006 -0.479732 -0.26039 0 0 0.0120785 0.0583725 0.120768 0.183182 0.219949 0.258483 0.280455 0.314782 0.343583 0.377039 0.408843 0.440593 0.470685 0.498081 0.513724 0.479227 0.375274 0.174077 -0.160857 -0.595664 -1.00866 -1.29205 -1.40844 -1.37512 -1.20158 -0.963107 -0.712109 -0.478897 -0.260254 0 0 0.000800879 0.0378639 0.0829631 0.14327 0.182556 0.231083 0.262214 0.3001 0.333999 0.370611 0.405047 0.438959 0.471704 0.502464 0.526205 0.518133 0.443918 0.28926 0.0113203 -0.391587 -0.822912 -1.15501 -1.3224 -1.33474 -1.19533 -0.967776 -0.715937 -0.478593 -0.259825 0 0 0.00264427 0.0373158 0.0792752 0.13119 0.169506 0.213872 0.247221 0.284956 0.32182 0.3606 0.398595 0.435527 0.470742 0.504584 0.534697 0.548746 0.508527 0.398275 0.182896 -0.167315 -0.599681 -0.979592 -1.20943 -1.27339 -1.1813 -0.972167 -0.721654 -0.479084 -0.259009 0 0 0.00894136 0.0402745 0.0837886 0.13015 0.171343 0.211799 0.246105 0.282193 0.318442 0.355784 0.393918 0.432401 0.469945 0.506261 0.540478 0.567399 0.562266 0.493079 0.339398 0.0591851 -0.344832 -0.762301 -1.06125 -1.18561 -1.15252 -0.973851 -0.729411 -0.480844 -0.257783 0 0 0.016257 0.047127 0.0905072 0.13443 0.175865 0.214364 0.249043 0.284002 0.319566 0.356137 0.393815 0.43216 0.470399 0.508085 0.544723 0.577998 0.597791 0.569578 0.470889 0.266168 -0.0756776 -0.50347 -0.868417 -1.06847 -1.09937 -0.969083 -0.7385 -0.484544 -0.256274 0 0 0.023275 0.0562764 0.0985295 0.141641 0.182792 0.220681 0.255556 0.289524 0.324039 0.359509 0.396223 0.434006 0.472328 0.510565 0.548257 0.584546 0.615609 0.62383 0.572621 0.438587 0.178075 -0.213599 -0.628213 -0.913052 -1.01457 -0.950242 -0.746928 -0.491031 -0.254887 0 0 0.0284591 0.0640865 0.105445 0.148408 0.189875 0.228526 0.264408 0.298163 0.33176 0.366078 0.401501 0.438235 0.47586 0.513794 0.551677 0.588983 0.624285 0.652009 0.644729 0.569675 0.39254 0.0759913 -0.343886 -0.709011 -0.895565 -0.905605 -0.750225 -0.501069 -0.254422 0 0 0.032246 0.069542 0.110247 0.152375 0.194316 0.234021 0.271348 0.306377 0.340115 0.373922 0.408329 0.443839 0.480388 0.517529 0.554893 0.592222 0.628939 0.663 0.685411 0.660712 0.556469 0.329246 -0.0376711 -0.452542 -0.736686 -0.825593 -0.740463 -0.513922 -0.25612 0 0 0.034949 0.0733855 0.113587 0.154805 0.19645 0.236768 0.274834 0.310829 0.345323 0.379244 0.413358 0.448286 0.484132 0.52061 0.557456 0.594472 0.631455 0.667695 0.700495 0.715132 0.669271 0.528036 0.246631 -0.155697 -0.526402 -0.708167 -0.704618 -0.52475 -0.261581 0 0 0.0367252 0.075775 0.115699 0.156053 0.19712 0.237477 0.275886 0.312323 0.347395 0.381741 0.415987 0.450762 0.486303 0.522445 0.558975 0.595761 0.632671 0.669503 0.705387 0.736762 0.739157 0.667415 0.479325 0.145176 -0.262759 -0.550385 -0.630909 -0.52494 -0.271759 0 0 0.0380595 0.0778205 0.117663 0.157608 0.197721 0.237557 0.275753 0.312244 0.347513 0.382096 0.416599 0.451465 0.486946 0.522976 0.559407 0.596113 0.632995 0.669957 0.70681 0.742446 0.771138 0.75589 0.650105 0.406584 0.0310402 -0.340141 -0.517651 -0.500665 -0.284193 0 0 0.0412895 0.0835091 0.12502 0.164849 0.20317 0.239811 0.276302 0.311683 0.346527 0.381164 0.415866 0.450927 0.486482 0.522546 0.559011 0.595769 0.632727 0.669805 0.706938 0.744039 0.779594 0.802733 0.762102 0.610601 0.309129 -0.0807468 -0.365035 -0.43598 -0.29079 0 0 0.0472695 0.0947881 0.139888 0.182044 0.220179 0.255049 0.287478 0.317233 0.347146 0.379846 0.413876 0.448893 0.484593 0.520815 0.557456 0.594433 0.631652 0.669016 0.706519 0.744184 0.781899 0.81765 0.828635 0.752107 0.542181 0.193366 -0.163892 -0.32894 -0.278422 0 0 0.0562773 0.111389 0.163405 0.210101 0.25171 0.28704 0.316815 0.341138 0.363414 0.386347 0.413559 0.446412 0.481603 0.517898 0.554794 0.592126 0.629768 0.667614 0.705632 0.743912 0.78265 0.821502 0.8565 0.842376 0.717998 0.442776 0.0775309 -0.184873 -0.227865 0 0 0.0671189 0.132977 0.194017 0.249982 0.297967 0.337901 0.368318 0.390068 0.404897 0.416322 0.430383 0.450412 0.479979 0.514902 0.551812 0.589517 0.627662 0.666077 0.704698 0.743726 0.783289 0.823492 0.863553 0.892124 0.836901 0.650859 0.3226 -0.00447568 -0.13417 0 0 0.0748277 0.148554 0.220644 0.288618 0.351469 0.403882 0.443259 0.467356 0.477575 0.478614 0.477097 0.479178 0.492074 0.516198 0.55032 0.587612 0.626097 0.665008 0.704277 0.743946 0.784226 0.825373 0.867328 0.90871 0.914228 0.806487 0.546266 0.20248 -0.00952689 0 0 0.0737963 0.148551 0.222992 0.300123 0.377674 0.452876 0.517353 0.561939 0.58112 0.578132 0.562594 0.544732 0.534334 0.537616 0.556042 0.588 0.625428 0.664591 0.704371 0.744677 0.785779 0.827841 0.870849 0.914733 0.955855 0.912142 0.735481 0.421228 0.13495 0 0 0.0657831 0.130819 0.199862 0.275407 0.36005 0.451107 0.541747 0.621526 0.677932 0.698646 0.686504 0.654389 0.619458 0.595482 0.58846 0.600531 0.628061 0.665236 0.705095 0.746195 0.788244 0.831153 0.875207 0.92166 0.970633 0.98017 0.881776 0.632776 0.300686 0 0 0.0522894 0.103154 0.158014 0.221652 0.305605 0.405384 0.510924 0.614821 0.706069 0.773025 0.802573 0.791403 0.749405 0.700359 0.663298 0.645898 0.650319 0.672102 0.707848 0.748927 0.79174 0.835704 0.881728 0.929901 0.976533 1.01942 0.992923 0.81911 0.478901 0 0 0.042224 0.0751 0.10185 0.149744 0.231566 0.333955 0.448598 0.56547 0.672847 0.764915 0.838204 0.878341 0.878479 0.841033 0.785327 0.738796 0.712126 0.707941 0.724628 0.755645 0.796979 0.842476 0.890246 0.936513 0.983619 1.05503 1.07031 0.949927 0.643473 0 0 0.0354598 0.0473664 0.0478357 0.0940249 0.170807 0.268294 0.377354 0.491021 0.602929 0.707277 0.799924 0.87237 0.922428 0.938596 0.919199 0.871532 0.821986 0.789322 0.777165 0.786127 0.813759 0.853181 0.897463 0.943548 1.00671 1.09612 1.09809 1.00353 0.7484 0 0 0.0272859 0.0159135 0.0136907 0.0619442 0.134287 0.224727 0.320752 0.418755 0.51807 0.618025 0.715249 0.804711 0.882188 0.937921 0.971471 0.974313 0.949631 0.90932 0.875874 0.860424 0.861755 0.879666 0.911281 0.968613 1.05418 1.10066 1.0832 0.976083 0.72656 0 0 0.011687 -0.0193803 -0.00278491 0.0422334 0.114146 0.196281 0.279531 0.361776 0.44386 0.527198 0.613186 0.701416 0.787913 0.867159 0.933916 0.97877 1.00396 1.00508 0.988829 0.96486 0.947228 0.944297 0.963459 1.01933 1.0723 1.07166 1.00628 0.82056 0.491611 0 0 -0.012671 -0.0637009 -0.00831187 0.0259823 0.100583 0.170618 0.242371 0.312089 0.380179 0.448658 0.519668 0.595445 0.676798 0.761637 0.843909 0.917178 0.976864 1.01244 1.03226 1.04267 1.04725 1.05554 1.07536 1.0965 1.08613 1.01687 0.833818 0.502714 0.179614 0 0 -0.19075 -0.0743382 -0.0249213 0.0170894 0.0555487 0.114041 0.17124 0.226802 0.281954 0.338212 0.397823 0.463265 0.537029 0.621329 0.717265 0.82306 0.932709 1.03562 1.12368 1.17831 1.21745 1.25631 1.28189 1.27154 1.17702 0.932817 0.538532 0.185202 0.0335857 0 0 0 0 0 0 0 0 0 0 0 0 0 0 0 0 0 0 0 0 0 0 0 0 0 0 0 0 0 0 0 0
				</DataArray>
				<DataArray Name="VitesseY" type="Float32" format="ascii">
 0 0 0 0 0 0 0 0 0 0 0 0 0 0 0 0 0 0 0 0 0 0 0 0 0 0 0 0 0 0 0 -0.0551455 0.111317 0.115228 0.0916943 0.046435 0.0120786 0.000799573 0.00264392 0.00894279 0.0162607 0.0232771 0.0284608 0.0322508 0.0350198 0.0372803 0.041513 0.0495941 0.062963 0.0826494 0.104232 0.116253 0.114966 0.104779 0.0882516 0.0700045 0.0564587 0.0476501 0.0412702 0.0351401 0.0242044 0 -0.118395 0.120991 0.201829 0.16461 0.112915 0.0583837 0.0378756 0.0373261 0.0402838 0.0471345 0.0562823 0.0640872 0.0695583 0.0735091 0.0768109 0.0840358 0.0987128 0.123299 0.159953 0.201744 0.227465 0.227161 0.208882 0.178009 0.142554 0.115387 0.0974503 0.0843977 0.0720724 0.0490855 0 -0.155609 0.0596647 0.219041 0.216094 0.181651 0.120764 0.0829741 0.0792939 0.0838076 0.090524 0.0985396 0.105453 0.110269 0.11377 0.116954 0.125385 0.144353 0.176919 0.226334 0.286016 0.328548 0.333716 0.311115 0.269767 0.219178 0.178386 0.150807 0.130541 0.111492 0.0761046 0 -0.125698 0.0514705 0.238607 0.250478 0.224192 0.18318 0.143284 0.131211 0.130171 0.134449 0.141659 0.148421 0.152421 0.155004 0.157318 0.164884 0.185315 0.222146 0.279214 0.353269 0.415598 0.432545 0.410121 0.363011 0.300447 0.245894 0.207831 0.1797 0.153552 0.105652 0 -0.0627062 0.074592 0.23068 0.253402 0.244773 0.219945 0.18257 0.169529 0.171365 0.175887 0.182811 0.189898 0.194366 0.196657 0.198177 0.203002 0.221735 0.258931 0.318249 0.401356 0.48419 0.5207 0.505258 0.457123 0.386339 0.318082 0.268364 0.231529 0.19786 0.137655 0 0.0150302 0.127207 0.248197 0.276005 0.273309 0.258474 0.231088 0.213887 0.211816 0.214383 0.2207 0.228547 0.234072 0.236942 0.238289 0.24122 0.255365 0.288288 0.344942 0.430304 0.529923 0.593751 0.594014 0.550045 0.476185 0.395387 0.332642 0.285959 0.244201 0.172161 0 0.099281 0.180307 0.270933 0.295405 0.291661 0.280444 0.262215 0.247233 0.246119 0.249059 0.255572 0.26443 0.271389 0.274968 0.27642 0.278009 0.285696 0.311744 0.362256 0.442859 0.550679 0.644832 0.671293 0.637711 0.567508 0.478215 0.4014 0.343405 0.292767 0.209493 0 0.177713 0.233921 0.299298 0.321374 0.321767 0.314772 0.300096 0.284961 0.282202 0.284012 0.289537 0.29818 0.30641 0.310916 0.312642 0.313434 0.316214 0.333256 0.373725 0.444251 0.549373 0.66632 0.730662 0.718422 0.658094 0.566295 0.475655 0.404691 0.344125 0.250218 0 0.243863 0.28566 0.329557 0.345521 0.348441 0.343574 0.333992 0.321821 0.318448 0.319574 0.324049 0.331774 0.340137 0.345376 0.347557 0.348097 0.348637 0.355277 0.383031 0.440464 0.533825 0.658344 0.762655 0.786427 0.742438 0.656868 0.556164 0.47092 0.399159 0.295074 0 0.300609 0.333527 0.362091 0.373022 0.379524 0.377041 0.370611 0.360602 0.355791 0.356144 0.359518 0.366089 0.373938 0.379272 0.381815 0.382347 0.382 0.382731 0.396649 0.437259 0.512867 0.628574 0.759813 0.830943 0.815071 0.744805 0.642364 0.543252 0.459017 0.344974 0 0.349976 0.37627 0.394147 0.400941 0.408103 0.408887 0.405076 0.398614 0.393934 0.393826 0.396233 0.401513 0.408342 0.413373 0.416018 0.416695 0.416164 0.414864 0.417077 0.440033 0.495427 0.591081 0.725006 0.842429 0.871713 0.824943 0.73067 0.622177 0.52494 0.401044 0 0.394332 0.415179 0.426246 0.430912 0.437118 0.440785 0.439092 0.435608 0.43245 0.432187 0.434023 0.438247 0.443849 0.448295 0.450774 0.451497 0.451017 0.449188 0.447361 0.454181 0.487651 0.558954 0.674704 0.816446 0.899695 0.888131 0.814353 0.70625 0.597975 0.4647 0 0.434736 0.451085 0.458101 0.461709 0.466554 0.471461 0.472209 0.471048 0.470105 0.47048 0.472364 0.475878 0.480398 0.484138 0.486308 0.486956 0.486505 0.484661 0.481831 0.480791 0.495015 0.540444 0.629113 0.761706 0.891891 0.931919 0.887804 0.790669 0.677983 0.53765 0 0.471137 0.483804 0.488858 0.492187 0.496292 0.501379 0.504476 0.505692 0.506818 0.508331 0.510665 0.513832 0.517544 0.520616 0.522448 0.522979 0.52255 0.520827 0.51794 0.515056 0.516823 0.539664 0.599273 0.705904 0.847369 0.944118 0.941152 0.868676 0.762223 0.621599 0 0.49643 0.506343 0.511642 0.51658 0.522137 0.52847 0.534495 0.538984 0.542466 0.545561 0.548573 0.551778 0.554927 0.557465 0.558977 0.559408 0.559012 0.557457 0.554797 0.551827 0.550405 0.55648 0.589696 0.665368 0.787911 0.922012 0.973248 0.934722 0.84421 0.717388 0 0.467729 0.476921 0.487626 0.502039 0.519191 0.537247 0.553445 0.565963 0.5747 0.580965 0.5856 0.589314 0.592313 0.594495 0.595766 0.596113 0.595768 0.594431 0.592124 0.589514 0.587614 0.588034 0.600808 0.646531 0.739775 0.872514 0.975271 0.979196 0.917335 0.823115 0 0.361923 0.370536 0.387266 0.41187 0.443245 0.479991 0.520251 0.559576 0.590115 0.608872 0.619197 0.625421 0.629234 0.631518 0.632683 0.632996 0.632727 0.631651 0.629766 0.62766 0.626093 0.625423 0.628068 0.650461 0.712396 0.822357 0.94999 1.00417 0.976937 0.932736 0 0.153401 0.163711 0.190305 0.231493 0.284384 0.346006 0.413114 0.481356 0.545429 0.599686 0.637116 0.65582 0.664032 0.667931 0.66954 0.669961 0.669805 0.669015 0.667613 0.666076 0.665007 0.664587 0.66523 0.672109 0.708005 0.789426 0.909405 1.00518 1.01247 1.03563 0 -0.191486 -0.179289 -0.141028 -0.0811628 -0.00217676 0.0930489 0.199744 0.312262 0.421403 0.518548 0.59838 0.657011 0.68928 0.701278 0.705553 0.706828 0.706939 0.706517 0.705631 0.704698 0.704277 0.70437 0.705094 0.707844 0.724632 0.777184 0.875903 0.988856 1.03227 1.12368 0 -0.628987 -0.615824 -0.573349 -0.505433 -0.412959 -0.295456 -0.153709 0.00673021 0.175407 0.336614 0.477457 0.588958 0.66946 0.718185 0.737337 0.742548 0.744047 0.744183 0.743911 0.743726 0.743946 0.744677 0.746195 0.748926 0.755643 0.786129 0.860428 0.964861 1.04267 1.17831 0 -1.03239 -1.0218 -0.982437 -0.922234 -0.840437 -0.732571 -0.593569 -0.4194 -0.213122 0.0113111 0.229822 0.420178 0.569406 0.674734 0.741174 0.771581 0.779649 0.781903 0.782649 0.783289 0.784226 0.785779 0.788244 0.79174 0.796978 0.813758 0.861754 0.947227 1.04725 1.21745 0 -1.30671 -1.29629 -1.26077 -1.21333 -1.15485 -1.07966 -0.97741 -0.837696 -0.65335 -0.424248 -0.161339 0.107253 0.34598 0.535607 0.670369 0.756934 0.802997 0.817677 0.821504 0.823491 0.825373 0.827841 0.831153 0.835704 0.842475 0.85318 0.879665 0.944296 1.05554 1.25631 0 -1.42637 -1.41193 -1.37243 -1.3309 -1.29473 -1.25785 -1.20351 -1.11911 -0.993541 -0.817813 -0.591632 -0.319452 -0.0225955 0.254905 0.483092 0.651517 0.762575 0.828773 0.856521 0.863554 0.867328 0.87085 0.875207 0.881728 0.890246 0.897462 0.91128 0.963458 1.07536 1.28189 0 -1.41067 -1.38725 -1.33621 -1.29746 -1.28306 -1.27658 -1.26067 -1.22239 -1.15274 -1.04683 -0.897351 -0.697321 -0.444592 -0.150369 0.14833 0.408106 0.611175 0.752282 0.842426 0.892133 0.908711 0.914733 0.92166 0.929901 0.936513 0.943547 0.968612 1.01933 1.0965 1.27154 0 -1.23967 -1.19977 -1.14179 -1.12027 -1.12892 -1.14499 -1.15867 -1.15955 -1.14083 -1.09404 -1.01258 -0.894459 -0.735314 -0.52515 -0.261647 0.0319014 0.30959 0.542372 0.718053 0.836914 0.914231 0.955856 0.970633 0.976532 0.983618 1.00671 1.05417 1.0723 1.08612 1.17702 0 -0.967682 -0.915194 -0.888501 -0.890606 -0.910396 -0.934005 -0.954581 -0.968219 -0.974592 -0.971872 -0.953423 -0.908276 -0.827442 -0.709097 -0.550712 -0.340173 -0.0806297 0.193458 0.442815 0.650872 0.806488 0.912141 0.980169 1.01942 1.05503 1.09612 1.10066 1.07166 1.01687 0.932813 0 -0.632209 -0.597969 -0.644336 -0.649557 -0.677133 -0.700097 -0.714114 -0.725892 -0.735232 -0.743693 -0.7509 -0.753079 -0.742367 -0.705784 -0.63155 -0.517937 -0.365139 -0.16392 0.0775357 0.322602 0.546263 0.735478 0.881774 0.992921 1.0703 1.09808 1.08319 1.00628 0.833816 0.538529 0 -0.198768 -0.305193 -0.426197 -0.432744 -0.467996 -0.477637 -0.483591 -0.487099 -0.488257 -0.490137 -0.49477 -0.50336 -0.515231 -0.525486 -0.525361 -0.500869 -0.436079 -0.328982 -0.184888 -0.004483 0.202476 0.421224 0.632772 0.819107 0.949925 1.00352 0.976081 0.820559 0.502713 0.185202 0 0.432721 -0.091421 -0.24506 -0.241032 -0.276225 -0.26168 -0.273263 -0.269308 -0.264873 -0.260928 -0.25769 -0.255971 -0.256909 -0.261951 -0.271933 -0.284278 -0.290831 -0.278441 -0.227874 -0.134175 -0.00953039 0.134947 0.300683 0.478899 0.64347 0.748399 0.72656 0.491611 0.179614 0.0335857 0 4.92136 0 0 0 0 0 0 0 0 0 0 0 0 0 0 0 0 0 0 0 0 0 0 0 0 0 0 0 0 0 0
				</DataArray>
			</PointData>
			<CellData Scalars="Density">
				<DataArray Name="Density" type="Float32" format="ascii">