<?xml version="1.0"?>
<VTKFile type="PolyData">
	<PolyData>
		<Piece NumberOfPoints="961" NumberOfPolys="900">
			<Points>
				<DataArray type="Float32" NumberOfComponents="3" format="ascii">
 0 0 0 0.04 0 0 0.08 0 0 0.12 0 0 0.16 0 0 0.2 0 0 0.24 0 0 0.28 0 0 0.32 0 0 0.36 0 0 0.4 0 0 0.44 0 0 0.48 0 0 0.52 0 0 0.56 0 0 0.6 0 0 0.64 0 0 0.68 0 0 0.72 0 0 0.76 0 0 0.8 0 0 0.84 0 0 0.88 0 0 0.92 0 0 0.96 0 0 1 0 0 1.04 0 0 1.08 0 0 1.12 0 0 1.16 0 0 1.2 0 0 0 0.04 0 0.04 0.04 0 0.08 0.04 0 0.12 0.04 0 0.16 0.04 0 0.2 0.04 0 0.24 0.04 0 0.28 0.04 0 0.32 0.04 0 0.36 0.04 0 0.4 0.04 0 0.44 0.04 0 0.48 0.04 0 0.52 0.04 0 0.56 0.04 0 0.6 0.04 0 0.64 0.04 0 0.68 0.04 0 0.72 0.04 0 0.76 0.04 0 0.8 0.04 0 0.84 0.04 0 0.88 0.04 0 0.92 0.04 0 0.96 0.04 0 1 0.04 0 1.04 0.04 0 1.08 0.04 0 1.12 0.04 0 1.16 0.04 0 1.2 0.04 0 0 0.08 0 0.04 0.08 0 0.08 0.08 0 0.12 0.08 0 0.16 0.08 0 0.2 0.08 0 0.24 0.08 0 0.28 0.08 0 0.32 0.08 0 0.36 0.08 0 0.4 0.08 0 0.44 0.08 0 0.48 0.08 0 0.52 0.08 0 0.56 0.08 0 0.6 0.08 0 0.64 0.08 0 0.68 0.08 0 0.72 0.08 0 0.76 0.08 0 0.8 0.08 0 0.84 0.08 0 0.88 0.08 0 0.92 0.08 0 0.96 0.08 0 1 0.08 0 1.04 0.08 0 1.08 0.08 0 1.12 0.08 0 1.16 0.08 0 1.2 0.08 0 0 0.12 0 0.04 0.12 0 0.08 0.12 0 0.12 0.12 0 0.16 0.12 0 0.2 0.12 0 0.24 0.12 0 0.28 0.12 0 0.32 0.12 0 0.36 0.12 0 0.4 0.12 0 0.44 0.12 0 0.48 0.12 0 0.52 0.12 0 0.56 0.12 0 0.6 0.12 0 0.64 0.12 0 0.68 0.12 0 0.72 0.12 0 0.76 0.12 0 0.8 0.12 0 0.84 0.12 0 0.88 0.12 0 0.92 0.12 0 0.96 0.12 0 1 0.12 0 1.04 0.12 0 1.08 0.12 0 1.12 0.12 0 1.16 0.12 0 1.2 0.12 0 0 0.16 0 0.04 0.16 0 0.08 0.16 0 0.12 0.16 0 0.16 0.16 0 0.2 0.16 0 0.24 0.16 0 0.28 0.16 0 0.32 0.16 0 0.36 0.16 0 0.4 0.16 0 0.44 0.16 0 0.48 0.16 0 0.52 0.16 0 0.56 0.16 0 0.6 0.16 0 0.64 0.16 0 0.68 0.16 0 0.72 0.16 0 0.76 0.16 0 0.8 0.16 0 0.84 0.16 0 0.88 0.16 0 0.92 0.16 0 0.96 0.16 0 1 0.16 0 1.04 0.16 0 1.08 0.16 0 1.12 0.16 0 1.16 0.16 0 1.2 0.16 0 0 0.2 0 0.04 0.2 0 0.08 0.2 0 0.12 0.2 0 0.16 0.2 0 0.2 0.2 0 0.24 0.2 0 0.28 0.2 0 0.32 0.2 0 0.36 0.2 0 0.4 0.2 0 0.44 0.2 0 0.48 0.2 0 0.52 0.2 0 0.56 0.2 0 0.6 0.2 0 0.64 0.2 0 0.68 0.2 0 0.72 0.2 0 0.76 0.2 0 0.8 0.2 0 0.84 0.2 0 0.88 0.2 0 0.92 0.2 0 0.96 0.2 0 1 0.2 0 1.04 0.2 0 1.08 0.2 0 1.12 0.2 0 1.16 0.2 0 1.2 0.2 0 0 0.24 0 0.04 0.24 0 0.08 0.24 0 0.12 0.24 0 0.16 0.24 0 0.2 0.24 0 0.24 0.24 0 0.28 0.24 0 0.32 0.24 0 0.36 0.24 0 0.4 0.24 0 0.44 0.24 0 0.48 0.24 0 0.52 0.24 0 0.56 0.24 0 0.6 0.24 0 0.64 0.24 0 0.68 0.24 0 0.72 0.24 0 0.76 0.24 0 0.8 0.24 0 0.84 0.24 0 0.88 0.24 0 0.92 0.24 0 0.96 0.24 0 1 0.24 0 1.04 0.24 0 1.08 0.24 0 1.12 0.24 0 1.16 0.24 0 1.2 0.24 0 0 0.28 0 0.04 0.28 0 0.08 0.28 0 0.12 0.28 0 0.16 0.28 0 0.2 0.28 0 0.24 0.28 0 0.28 0.28 0 0.32 0.28 0 0.36 0.28 0 0.4 0.28 0 0.44 0.28 0 0.48 0.28 0 0.52 0.28 0 0.56 0.28 0 0.6 0.28 0 0.64 0.28 0 0.68 0.28 0 0.72 0.28 0 0.76 0.28 0 0.8 0.28 0 0.84 0.28 0 0.88 0.28 0 0.92 0.28 0 0.96 0.28 0 1 0.28 0 1.04 0.28 0 1.08 0.28 0 1.12 0.28 0 1.16 0.28 0 1.2 0.28 0 0 0.32 0 0.04 0.32 0 0.08 0.32 0 0.12 0.32 0 0.16 0.32 0 0.2 0.32 0 0.24 0.32 0 0.28 0.32 0 0.32 0.32 0 0.36 0.32 0 0.4 0.32 0 0.44 0.32 0 0.48 0.32 0 0.52 0.32 0 0.56 0.32 0 0.6 0.32 0 0.64 0.32 0 0.68 0.32 0 0.72 0.32 0 0.76 0.32 0 0.8 0.32 0 0.84 0.32 0 0.88 0.32 0 0.92 0.32 0 0.96 0.32 0 1 0.32 0 1.04 0.32 0 1.08 0.32 0 1.12 0.32 0 1.16 0.32 0 1.2 0.32 0 0 0.36 0 0.04 0.36 0 0.08 0.36 0 0.12 0.36 0 0.16 0.36 0 0.2 0.36 0 0.24 0.36 0 0.28 0.36 0 0.32 0.36 0 0.36 0.36 0 0.4 0.36 0 0.44 0.36 0 0.48 0.36 0 0.52 0.36 0 0.56 0.36 0 0.6 0.36 0 0.64 0.36 0 0.68 0.36 0 0.72 0.36 0 0.76 0.36 0 0.8 0.36 0 0.84 0.36 0 0.88 0.36 0 0.92 0.36 0 0.96 0.36 0 1 0.36 0 1.04 0.36 0 1.08 0.36 0 1.12 0.36 0 1.16 0.36 0 1.2 0.36 0 0 0.4 0 0.04 0.4 0 0.08 0.4 0 0.12 0.4 0 0.16 0.4 0 0.2 0.4 0 0.24 0.4 0 0.28 0.4 0 0.32 0.4 0 0.36 0.4 0 0.4 0.4 0 0.44 0.4 0 0.48 0.4 0 0.52 0.4 0 0.56 0.4 0 0.6 0.4 0 0.64 0.4 0 0.68 0.4 0 0.72 0.4 0 0.76 0.4 0 0.8 0.4 0 0.84 0.4 0 0.88 0.4 0 0.92 0.4 0 0.96 0.4 0 1 0.4 0 1.04 0.4 0 1.08 0.4 0 1.12 0.4 0 1.16 0.4 0 1.2 0.4 0 0 0.44 0 0.04 0.44 0 0.08 0.44 0 0.12 0.44 0 0.16 0.44 0 0.2 0.44 0 0.24 0.44 0 0.28 0.44 0 0.32 0.44 0 0.36 0.44 0 0.4 0.44 0 0.44 0.44 0 0.48 0.44 0 0.52 0.44 0 0.56 0.44 0 0.6 0.44 0 0.64 0.44 0 0.68 0.44 0 0.72 0.44 0 0.76 0.44 0 0.8 0.44 0 0.84 0.44 0 0.88 0.44 0 0.92 0.44 0 0.96 0.44 0 1 0.44 0 1.04 0.44 0 1.08 0.44 0 1.12 0.44 0 1.16 0.44 0 1.2 0.44 0 0 0.48 0 0.04 0.48 0 0.08 0.48 0 0.12 0.48 0 0.16 0.48 0 0.2 0.48 0 0.24 0.48 0 0.28 0.48 0 0.32 0.48 0 0.36 0.48 0 0.4 0.48 0 0.44 0.48 0 0.48 0.48 0 0.52 0.48 0 0.56 0.48 0 0.6 0.48 0 0.64 0.48 0 0.68 0.48 0 0.72 0.48 0 0.76 0.48 0 0.8 0.48 0 0.84 0.48 0 0.88 0.48 0 0.92 0.48 0 0.96 0.48 0 1 0.48 0 1.04 0.48 0 1.08 0.48 0 1.12 0.48 0 1.16 0.48 0 1.2 0.48 0 0 0.52 0 0.04 0.52 0 0.08 0.52 0 0.12 0.52 0 0.16 0.52 0 0.2 0.52 0 0.24 0.52 0 0.28 0.52 0 0.32 0.52 0 0.36 0.52 0 0.4 0.52 0 0.44 0.52 0 0.48 0.52 0 0.52 0.52 0 0.56 0.52 0 0.6 0.52 0 0.64 0.52 0 0.68 0.52 0 0.72 0.52 0 0.76 0.52 0 0.8 0.52 0 0.84 0.52 0 0.88 0.52 0 0.92 0.52 0 0.96 0.52 0 1 0.52 0 1.04 0.52 0 1.08 0.52 0 1.12 0.52 0 1.16 0.52 0 1.2 0.52 0 0 0.56 0 0.04 0.56 0 0.08 0.56 0 0.12 0.56 0 0.16 0.56 0 0.2 0.56 0 0.24 0.56 0 0.28 0.56 0 0.32 0.56 0 0.36 0.56 0 0.4 0.56 0 0.44 0.56 0 0.48 0.56 0 0.52 0.56 0 0.56 0.56 0 0.6 0.56 0 0.64 0.56 0 0.68 0.56 0 0.72 0.56 0 0.76 0.56 0 0.8 0.56 0 0.84 0.56 0 0.88 0.56 0 0.92 0.56 0 0.96 0.56 0 1 0.56 0 1.04 0.56 0 1.08 0.56 0 1.12 0.56 0 1.16 0.56 0 1.2 0.56 0 0 0.6 0 0.04 0.6 0 0.08 0.6 0 0.12 0.6 0 0.16 0.6 0 0.2 0.6 0 0.24 0.6 0 0.28 0.6 0 0.32 0.6 0 0.36 0.6 0 0.4 0.6 0 0.44 0.6 0 0.48 0.6 0 0.52 0.6 0 0.56 0.6 0 0.6 0.6 0 0.64 0.6 0 0.68 0.6 0 0.72 0.6 0 0.76 0.6 0 0.8 0.6 0 0.84 0.6 0 0.88 0.6 0 0.92 0.6 0 0.96 0.6 0 1 0.6 0 1.04 0.6 0 1.08 0.6 0 1.12 0.6 0 1.16 0.6 0 1.2 0.6 0 0 0.64 0 0.04 0.64 0 0.08 0.64 0 0.12 0.64 0 0.16 0.64 0 0.2 0.64 0 0.24 0.64 0 0.28 0.64 0 0.32 0.64 0 0.36 0.64 0 0.4 0.64 0 0.44 0.64 0 0.48 0.64 0 0.52 0.64 0 0.56 0.64 0 0.6 0.64 0 0.64 0.64 0 0.68 0.64 0 0.72 0.64 0 0.76 0.64 0 0.8 0.64 0 0.84 0.64 0 0.88 0.64 0 0.92 0.64 0 0.96 0.64 0 1 0.64 0 1.04 0.64 0 1.08 0.64 0 1.12 0.64 0 1.16 0.64 0 1.2 0.64 0 0 0.68 0 0.04 0.68 0 0.08 0.68 0 0.12 0.68 0 0.16 0.68 0 0.2 0.68 0 0.24 0.68 0 0.28 0.68 0 0.32 0.68 0 0.36 0.68 0 0.4 0.68 0 0.44 0.68 0 0.48 0.68 0 0.52 0.68 0 0.56 0.68 0 0.6 0.68 0 0.64 0.68 0 0.68 0.68 0 0.72 0.68 0 0.76 0.68 0 0.8 0.68 0 0.84 0.68 0 0.88 0.68 0 0.92 0.68 0 0.96 0.68 0 1 0.68 0 1.04 0.68 0 1.08 0.68 0 1.12 0.68 0 1.16 0.68 0 1.2 0.68 0 0 0.72 0 0.04 0.72 0 0.08 0.72 0 0.12 0.72 0 0.16 0.72 0 0.2 0.72 0 0.24 0.72 0 0.28 0.72 0 0.32 0.72 0 0.36 0.72 0 0.4 0.72 0 0.44 0.72 0 0.48 0.72 0 0.52 0.72 0 0.56 0.72 0 0.6 0.72 0 0.64 0.72 0 0.68 0.72 0 0.72 0.72 0 0.76 0.72 0 0.8 0.72 0 0.84 0.72 0 0.88 0.72 0 0.92 0.72 0 0.96 0.72 0 1 0.72 0 1.04 0.72 0 1.08 0.72 0 1.12 0.72 0 1.16 0.72 0 1.2 0.72 0 0 0.76 0 0.04 0.76 0 0.08 0.76 0 0.12 0.76 0 0.16 0.76 0 0.2 0.76 0 0.24 0.76 0 0.28 0.76 0 0.32 0.76 0 0.36 0.76 0 0.4 0.76 0 0.44 0.76 0 0.48 0.76 0 0.52 0.76 0 0.56 0.76 0 0.6 0.76 0 0.64 0.76 0 0.68 0.76 0 0.72 0.76 0 0.76 0.76 0 0.8 0.76 0 0.84 0.76 0 0.88 0.76 0 0.92 0.76 0 0.96 0.76 0 1 0.76 0 1.04 0.76 0 1.08 0.76 0 1.12 0.76 0 1.16 0.76 0 1.2 0.76 0 0 0.8 0 0.04 0.8 0 0.08 0.8 0 0.12 0.8 0 0.16 0.8 0 0.2 0.8 0 0.24 0.8 0 0.28 0.8 0 0.32 0.8 0 0.36 0.8 0 0.4 0.8 0 0.44 0.8 0 0.48 0.8 0 0.52 0.8 0 0.56 0.8 0 0.6 0.8 0 0.64 0.8 0 0.68 0.8 0 0.72 0.8 0 0.76 0.8 0 0.8 0.8 0 0.84 0.8 0 0.88 0.8 0 0.92 0.8 0 0.96 0.8 0 1 0.8 0 1.04 0.8 0 1.08 0.8 0 1.12 0.8 0 1.16 0.8 0 1.2 0.8 0 0 0.84 0 0.04 0.84 0 0.08 0.84 0 0.12 0.84 0 0.16 0.84 0 0.2 0.84 0 0.24 0.84 0 0.28 0.84 0 0.32 0.84 0 0.36 0.84 0 0.4 0.84 0 0.44 0.84 0 0.48 0.84 0 0.52 0.84 0 0.56 0.84 0 0.6 0.84 0 0.64 0.84 0 0.68 0.84 0 0.72 0.84 0 0.76 0.84 0 0.8 0.84 0 0.84 0.84 0 0.88 0.84 0 0.92 0.84 0 0.96 0.84 0 1 0.84 0 1.04 0.84 0 1.08 0.84 0 1.12 0.84 0 1.16 0.84 0 1.2 0.84 0 0 0.88 0 0.04 0.88 0 0.08 0.88 0 0.12 0.88 0 0.16 0.88 0 0.2 0.88 0 0.24 0.88 0 0.28 0.88 0 0.32 0.88 0 0.36 0.88 0 0.4 0.88 0 0.44 0.88 0 0.48 0.88 0 0.52 0.88 0 0.56 0.88 0 0.6 0.88 0 0.64 0.88 0 0.68 0.88 0 0.72 0.88 0 0.76 0.88 0 0.8 0.88 0 0.84 0.88 0 0.88 0.88 0 0.92 0.88 0 0.96 0.88 0 1 0.88 0 1.04 0.88 0 1.08 0.88 0 1.12 0.88 0 1.16 0.88 0 1.2 0.88 0 0 0.92 0 0.04 0.92 0 0.08 0.92 0 0.12 0.92 0 0.16 0.92 0 0.2 0.92 0 0.24 0.92 0 0.28 0.92 0 0.32 0.92 0 0.36 0.92 0 0.4 0.92 0 0.44 0.92 0 0.48 0.92 0 0.52 0.92 0 0.56 0.92 0 0.6 0.92 0 0.64 0.92 0 0.68 0.92 0 0.72 0.92 0 0.76 0.92 0 0.8 0.92 0 0.84 0.92 0 0.88 0.92 0 0.92 0.92 0 0.96 0.92 0 1 0.92 0 1.04 0.92 0 1.08 0.92 0 1.12 0.92 0 1.16 0.92 0 1.2 0.92 0 0 0.96 0 0.04 0.96 0 0.08 0.96 0 0.12 0.96 0 0.16 0.96 0 0.2 0.96 0 0.24 0.96 0 0.28 0.96 0 0.32 0.96 0 0.36 0.96 0 0.4 0.96 0 0.44 0.96 0 0.48 0.96 0 0.52 0.96 0 0.56 0.96 0 0.6 0.96 0 0.64 0.96 0 0.68 0.96 0 0.72 0.96 0 0.76 0.96 0 0.8 0.96 0 0.84 0.96 0 0.88 0.96 0 0.92 0.96 0 0.96 0.96 0 1 0.96 0 1.04 0.96 0 1.08 0.96 0 1.12 0.96 0 1.16 0.96 0 1.2 0.96 0 0 1 0 0.04 1 0 0.08 1 0 0.12 1 0 0.16 1 0 0.2 1 0 0.24 1 0 0.28 1 0 0.32 1 0 0.36 1 0 0.4 1 0 0.44 1 0 0.48 1 0 0.52 1 0 0.56 1 0 0.6 1 0 0.64 1 0 0.68 1 0 0.72 1 0 0.76 1 0 0.8 1 0 0.84 1 0 0.88 1 0 0.92 1 0 0.96 1 0 1 1 0 1.04 1 0 1.08 1 0 1.12 1 0 1.16 1 0 1.2 1 0 0 1.04 0 0.04 1.04 0 0.08 1.04 0 0.12 1.04 0 0.16 1.04 0 0.2 1.04 0 0.24 1.04 0 0.28 1.04 0 0.32 1.04 0 0.36 1.04 0 0.4 1.04 0 0.44 1.04 0 0.48 1.04 0 0.52 1.04 0 0.56 1.04 0 0.6 1.04 0 0.64 1.04 0 0.68 1.04 0 0.72 1.04 0 0.76 1.04 0 0.8 1.04 0 0.84 1.04 0 0.88 1.04 0 0.92 1.04 0 0.96 1.04 0 1 1.04 0 1.04 1.04 0 1.08 1.04 0 1.12 1.04 0 1.16 1.04 0 1.2 1.04 0 0 1.08 0 0.04 1.08 0 0.08 1.08 0 0.12 1.08 0 0.16 1.08 0 0.2 1.08 0 0.24 1.08 0 0.28 1.08 0 0.32 1.08 0 0.36 1.08 0 0.4 1.08 0 0.44 1.08 0 0.48 1.08 0 0.52 1.08 0 0.56 1.08 0 0.6 1.08 0 0.64 1.08 0 0.68 1.08 0 0.72 1.08 0 0.76 1.08 0 0.8 1.08 0 0.84 1.08 0 0.88 1.08 0 0.92 1.08 0 0.96 1.08 0 1 1.08 0 1.04 1.08 0 1.08 1.08 0 1.12 1.08 0 1.16 1.08 0 1.2 1.08 0 0 1.12 0 
[...]
			<PointData Scalars="VitesseX">
				<DataArray Name="VitesseX" type="Float32" format="ascii">
 0 -0.0483014 -0.0827259 -0.0100248 0.130322 0.2805 0.380015 0.417614 0.394169 0.358975 0.327839 0.309684 0.317919 0.347957 0.394696 0.450008 0.506807 0.564889 0.618545 0.668976 0.714464 0.761215 0.757967 0.627099 0.265478 -0.158336 -0.321268 -0.262011 -0.174197 -0.0858307 0 0 0.0626767 0.0705162 0.11485 0.196648 0.287644 0.362865 0.368438 0.33393 0.296463 0.276325 0.277101 0.294117 0.330789 0.383162 0.442033 0.501536 0.561647 0.616387 0.66693 0.712091 0.758565 0.75553 0.625785 0.266139 -0.157091 -0.321127 -0.262406 -0.1744 -0.0858963 0 0 0.00114564 0.00594933 0.00519417 0.0135057 0.0396058 0.0675235 0.100958 0.129353 0.148211 0.164698 0.189479 0.229851 0.284717 0.350417 0.418712 0.485167 0.550193 0.607694 0.659208 0.704306 0.750916 0.749076 0.6233 0.270018 -0.151454 -0.319269 -0.262746 -0.174624 -0.0859917 0 0 -0.0764841 -0.113711 -0.121948 -0.128017 -0.135909 -0.132199 -0.103764 -0.0517586 -0.00280755 0.0442235 0.0971491 0.157899 0.225782 0.300073 0.377083 0.451294 0.523049 0.585305 0.639952 0.687124 0.735907 0.737148 0.619073 0.277619 -0.140392 -0.315148 -0.263212 -0.174986 -0.0861906 0 0 -0.114696 -0.167119 -0.183343 -0.196451 -0.209434 -0.210979 -0.181628 -0.133363 -0.0765357 -0.0215905 0.0374195 0.101571 0.169042 0.241059 0.31848 0.398099 0.474853 0.542699 0.602882 0.65522 0.709218 0.716483 0.610752 0.288523 -0.122204 -0.307299 -0.26384 -0.175547 -0.0865375 0 0 -0.110673 -0.171092 -0.197096 -0.206351 -0.212229 -0.209004 -0.190376 -0.153084 -0.106152 -0.0501158 0.00682782 0.0654329 0.126599 0.190252 0.259557 0.334377 0.410536 0.482 0.547382 0.60632 0.666952 0.683192 0.594763 0.301841 -0.094268 -0.292535 -0.26433 -0.176246 -0.0869923 0 0 -0.0832254 -0.13921 -0.15568 -0.147476 -0.135329 -0.135973 -0.136112 -0.125992 -0.0941124 -0.0489023 0.000111825 0.0501439 0.101417 0.153601 0.211313 0.275891 0.343754 0.411715 0.478205 0.542265 0.607035 0.633261 0.566457 0.315342 -0.0531134 -0.265279 -0.263204 -0.1769 -0.0874794 0 0 -0.0273112 -0.0491208 -0.0555481 -0.0420477 -0.030678 -0.0243797 -0.0325498 -0.0444078 -0.0431884 -0.0205192 0.0145841 0.0524237 0.0919444 0.132006 0.175518 0.226428 0.284108 0.344357 0.406355 0.469243 0.53067 0.563923 0.521045 0.324677 0.00342906 -0.218719 -0.254076 -0.176902 -0.0878448 0 0 0.049894 0.0792741 0.0743429 0.0627156 0.0549666 0.0582336 0.0608764 0.0490349 0.0344535 0.0315903 0.0444503 0.0665348 0.0925269 0.12084 0.151017 0.187338 0.232645 0.284505 0.34137 0.397563 0.445467 0.477247 0.455458 0.322938 0.0726836 -0.146481 -0.222601 -0.174061 -0.0877209 0 0 0.0804658 0.137095 0.145949 0.129596 0.110929 0.0993525 0.102965 0.108041 0.0966886 0.0799856 0.0730349 0.0804513 0.0943986 0.113445 0.131705 0.156566 0.188942 0.231585 0.282541 0.331064 0.364808 0.383535 0.373455 0.30297 0.142931 -0.0466846 -0.154318 -0.155829 -0.0854398 0 0 0.0795419 0.136977 0.149218 0.135355 0.115487 0.0989545 0.0930057 0.098708 0.105279 0.0994138 0.0878031 0.0789968 0.0829325 0.0939738 0.110996 0.128174 0.149643 0.183584 0.226864 0.266969 0.292803 0.296688 0.286854 0.261211 0.193817 0.0702277 -0.0474679 -0.0984488 -0.0706073 0 0 0.0704167 0.116918 0.127875 0.112666 0.0890983 0.0669296 0.0529841 0.0521404 0.0601435 0.0668396 0.0625064 0.0538111 0.0477435 0.0528734 0.0690728 0.0882906 0.108902 0.137586 0.171092 0.2029 0.224497 0.222052 0.204899 0.202705 0.206959 0.172922 0.085315 0.00661754 -0.0176783 0 0 0.0499398 0.0796993 0.0829365 0.0620775 0.0330867 0.0074812 -0.0101156 -0.0160652 -0.0105856 -0.00139014 0.00663556 0.00667246 -0.00102193 -0.00570391 0.00145336 0.0204263 0.0514596 0.0804733 0.108392 0.134678 0.152988 0.154601 0.133989 0.129724 0.189695 0.226442 0.204484 0.139965 0.0856377 0 0 0.0234098 0.0348341 0.023175 -0.00678689 -0.039917 -0.0670328 -0.083538 -0.0892693 -0.0873104 -0.0794793 -0.0697042 -0.0627507 -0.0608308 -0.0650733 -0.0700754 -0.0595318 -0.035274 -0.00223469 0.0278306 0.0528386 0.0686343 0.080477 0.0771137 0.0636445 0.142598 0.231921 0.261127 0.24154 0.200105 0 0 -0.00124555 -0.0129428 -0.0404089 -0.0790033 -0.118263 -0.146492 -0.1588 -0.159209 -0.154474 -0.15138 -0.148102 -0.141969 -0.137401 -0.138808 -0.141475 -0.142715 -0.133983 -0.110988 -0.078984 -0.0530408 -0.0342444 -0.0171082 0.0167384 0.0304089 0.0842734 0.191397 0.256539 0.261221 0.247406 0 0 -0.0230968 -0.0560344 -0.104273 -0.158814 -0.201843 -0.224459 -0.229772 -0.223522 -0.2134 -0.207952 -0.211327 -0.215719 -0.218953 -0.221249 -0.226437 -0.234047 -0.238135 -0.231955 -0.213219 -0.186312 -0.157588 -0.12552 -0.0717396 0.00331096 0.0484748 0.118344 0.189579 0.2094 0.218368 0 0 -0.0396454 -0.0884696 -0.146919 -0.203144 -0.244093 -0.267539 -0.275831 -0.27226 -0.261805 -0.252766 -0.255028 -0.271002 -0.2867 -0.301921 -0.31982 -0.34059 -0.360194 -0.372004 -0.373483 -0.355336 -0.311012 -0.250898 -0.181582 -0.0726042 0.00658761 0.0427823 0.0751851 0.102468 0.140007 0 0 -0.0514659 -0.10563 -0.161245 -0.210225 -0.248173 -0.271894 -0.2831 -0.285988 -0.284453 -0.282117 -0.284981 -0.300749 -0.331385 -0.367691 -0.407305 -0.452378 -0.501845 -0.547255 -0.570442 -0.560737 -0.513251 -0.425786 -0.316327 -0.208309 -0.0947373 -0.0496851 -0.0473799 -0.0239466 0.0444509 0 0 -0.0595702 -0.113394 -0.160104 -0.2023 -0.23537 -0.257009 -0.269286 -0.276208 -0.280853 -0.286267 -0.296824 -0.316944 -0.353962 -0.409062 -0.475125 -0.555488 -0.648578 -0.736657 -0.790499 -0.797897 -0.751748 -0.652669 -0.510376 -0.379084 -0.265524 -0.191645 -0.170846 -0.132309 -0.0538148 0 0 -0.0655885 -0.113332 -0.148961 -0.176862 -0.199573 -0.218377 -0.232551 -0.242885 -0.25436 -0.270251 -0.290643 -0.320877 -0.365628 -0.427714 -0.518172 -0.635865 -0.77526 -0.906457 -0.992078 -1.01382 -0.971091 -0.872215 -0.733716 -0.590204 -0.473265 -0.372774 -0.289797 -0.210513 -0.140502 0 0 -0.0659904 -0.105638 -0.123163 -0.132737 -0.142855 -0.159291 -0.17845 -0.194497 -0.213767 -0.240062 -0.274488 -0.31494 -0.365193 -0.437357 -0.540647 -0.684967 -0.860427 -1.02362 -1.13019 -1.16178 -1.1178 -1.02196 -0.904325 -0.770428 -0.640203 -0.515385 -0.382431 -0.266727 -0.194026 0 0 -0.057757 -0.0839108 -0.0817117 -0.0741975 -0.0726805 -0.0886132 -0.119682 -0.155136 -0.188544 -0.223822 -0.262607 -0.308315 -0.362853 -0.436029 -0.546642 -0.706433 -0.901325 -1.07756 -1.18855 -1.21796 -1.17544 -1.08936 -0.991 -0.873225 -0.735432 -0.593272 -0.441602 -0.305756 -0.208517 0 0 -0.0327174 -0.0406911 -0.0242303 -0.00859948 -0.0107342 -0.0339598 -0.0774781 -0.1311 -0.183406 -0.22698 -0.268397 -0.314225 -0.368508 -0.437636 -0.537254 -0.698639 -0.906449 -1.08765 -1.19484 -1.21626 -1.17859 -1.09894 -1.01264 -0.906521 -0.771277 -0.623406 -0.470483 -0.322703 -0.199214 0 0 0.00946145 0.022248 0.0360243 0.0395207 0.02604 -0.00546056 -0.0567027 -0.126595 -0.196092 -0.251924 -0.29266 -0.329673 -0.379007 -0.440641 -0.527941 -0.666749 -0.872696 -1.04951 -1.14675 -1.16221 -1.13506 -1.07011 -0.995897 -0.902364 -0.774328 -0.629182 -0.477664 -0.322621 -0.17575 0 0 0.0444947 0.0669227 0.0688617 0.0597804 0.0367839 -0.00222762 -0.0579756 -0.136461 -0.227556 -0.299553 -0.340992 -0.366221 -0.390821 -0.434825 -0.511467 -0.637256 -0.821316 -0.985495 -1.06988 -1.07616 -1.04546 -0.993401 -0.933912 -0.860912 -0.759407 -0.622329 -0.47308 -0.313875 -0.152567 0 0 0.055592 0.0792413 0.0694472 0.0520519 0.0217172 -0.0183897 -0.0735868 -0.15333 -0.251283 -0.338596 -0.394538 -0.421458 -0.424257 -0.436578 -0.496061 -0.629165 -0.797162 -0.935254 -0.99534 -0.982653 -0.934587 -0.885747 -0.841621 -0.794101 -0.715925 -0.603581 -0.461745 -0.308225 -0.143786 0 0 0.0426752 0.048337 0.0278162 0.00177144 -0.0228285 -0.0523584 -0.091068 -0.153594 -0.241686 -0.337709 -0.415254 -0.464786 -0.480266 -0.480512 -0.512927 -0.648063 -0.818285 -0.921081 -0.947829 -0.909042 -0.844063 -0.795074 -0.753985 -0.712811 -0.654343 -0.56702 -0.45123 -0.308944 -0.154689 0 0 -0.0130708 -0.0261985 -0.0539868 -0.0568502 -0.0645776 -0.0727075 -0.0882732 -0.120067 -0.18551 -0.279151 -0.385471 -0.476352 -0.536314 -0.567122 -0.604723 -0.712745 -0.851724 -0.924228 -0.928694 -0.872583 -0.791718 -0.72995 -0.678631 -0.631036 -0.582753 -0.518025 -0.428926 -0.311335 -0.183087 0 0 -0.0650408 -0.136254 -0.0958026 -0.0849754 -0.0802647 -0.0822935 -0.0815698 -0.0894674 -0.107979 -0.175055 -0.291449 -0.443599 -0.583294 -0.685751 -0.770116 -0.86706 -0.949013 -0.977537 -0.955309 -0.876536 -0.769751 -0.678464 -0.605715 -0.548005 -0.499713 -0.445401 -0.384612 -0.322461 -0.164368 0 0 -0.380565 -0.165935 -0.108539 -0.0782081 -0.074925 -0.0825459 -0.0868393 -0.0722351 -0.0589645 -0.0766539 -0.166557 -0.335299 -0.560945 -0.788284 -0.977718 -1.10922 -1.16885 -1.16298 -1.06347 -0.89866 -0.724457 -0.578597 -0.469387 -0.393435 -0.343429 -0.304582 -0.26144 -0.214963 -0.191741 0 0 0 0 0 0 0 0 0 0 0 0 0 0 0 0 0 0 0 0 0 0 0 0 0 0 0 0 0 0 0 0
				</DataArray>
				<DataArray Name="VitesseY" type="Float32" format="ascii">
 0 0 0 0 0 0 0 0 0 0 0 0 0 0 0 0 0 0 0 0 0 0 0 0 0 0 0 0 0 0 0 -0.033407 0.0791461 0.00760456 -0.0645798 -0.0976149 -0.0836439 -0.0310445 0.047777 0.0700252 0.0622174 0.0486283 0.0284785 0.00603344 -0.0130965 -0.0272814 -0.0310015 -0.0310523 -0.0295242 -0.026217 -0.0216477 -0.0167985 -0.0125969 -0.00871199 -0.00502666 -0.00180765 0.000298989 -0.000554096 -0.00273597 -0.00446493 -0.00488058 0 -0.0568916 0.0989716 0.0352559 -0.0756782 -0.116674 -0.1216 -0.0362097 0.0739862 0.109703 0.100883 0.0730642 0.0380165 -0.00122692 -0.0379435 -0.0621507 -0.0676685 -0.0666167 -0.0617967 -0.0535262 -0.0431322 -0.0334908 -0.0253981 -0.0180217 -0.0111107 -0.00474433 -9.32115e-05 -0.00129843 -0.00552882 -0.00898109 -0.00979807 0 0.0209297 0.156551 0.0702414 -0.0416571 -0.0928811 -0.103746 -0.025653 0.0613693 0.101795 0.100507 0.0696661 0.0230548 -0.0281425 -0.0749671 -0.10746 -0.112472 -0.10903 -0.0989992 -0.0836511 -0.0659145 -0.0513844 -0.0396532 -0.0292598 -0.0196498 -0.0102213 -0.0020529 -0.00235004 -0.00822695 -0.0134338 -0.0147044 0 0.167918 0.260725 0.115711 -0.00253312 -0.0529158 -0.062889 -0.00884457 0.0466633 0.0759299 0.0804191 0.0469565 -0.00698187 -0.0643104 -0.116124 -0.155788 -0.163811 -0.158053 -0.141873 -0.118505 -0.0930148 -0.0731823 -0.0578861 -0.0450914 -0.0333066 -0.0206451 -0.00719383 -0.00408315 -0.0107424 -0.0177444 -0.0195676 0 0.338826 0.375207 0.174184 0.0412458 -0.0143157 -0.0227474 0.00913199 0.0404126 0.0563369 0.0559681 0.0198721 -0.0373245 -0.0981983 -0.153503 -0.197959 -0.213942 -0.208543 -0.188995 -0.158893 -0.126617 -0.101368 -0.0829349 -0.0690761 -0.0562437 -0.0400231 -0.0186823 -0.00787335 -0.0132448 -0.0218803 -0.0243159 0 0.482788 0.485441 0.240573 0.0775194 0.0104883 0.00608885 0.0374199 0.0531993 0.055766 0.0371672 -0.00304058 -0.0618922 -0.124254 -0.182475 -0.229012 -0.255268 -0.253246 -0.234523 -0.201804 -0.165629 -0.136109 -0.116157 -0.104001 -0.092912 -0.0739694 -0.0419822 -0.0174245 -0.0167979 -0.0258632 -0.0288438 0 0.574047 0.565137 0.29913 0.102117 0.0243183 0.0286337 0.0688021 0.0897623 0.0802758 0.0390105 -0.0136745 -0.0764418 -0.140434 -0.199732 -0.248439 -0.282833 -0.288092 -0.273386 -0.241912 -0.204538 -0.174095 -0.155912 -0.149752 -0.14526 -0.127538 -0.0848633 -0.0411501 -0.0259628 -0.0302422 -0.0332237 0 0.60376 0.573168 0.343959 0.128956 0.0557023 0.0534222 0.0942268 0.129451 0.123584 0.0684086 -0.00395151 -0.0754961 -0.143982 -0.205304 -0.256397 -0.294969 -0.311595 -0.303149 -0.275998 -0.23877 -0.210141 -0.197712 -0.200603 -0.209334 -0.200478 -0.154081 -0.0897107 -0.048417 -0.0372704 -0.0380277 0 0.572402 0.534465 0.356999 0.172221 0.100473 0.0950872 0.12057 0.156411 0.162892 0.113943 0.0293615 -0.0571655 -0.134102 -0.200035 -0.253741 -0.295068 -0.322337 -0.322832 -0.303418 -0.269675 -0.24322 -0.23692 -0.24654 -0.271742 -0.281845 -0.247412 -0.172057 -0.101242 -0.0595357 -0.0453956 0 0.524858 0.48211 0.355405 0.212957 0.149979 0.143974 0.159622 0.17943 0.188125 0.152797 0.0710655 -0.0223017 -0.111796 -0.185817 -0.244998 -0.289337 -0.32142 -0.333966 -0.324083 -0.299183 -0.275383 -0.271047 -0.283409 -0.317138 -0.350167 -0.344744 -0.283614 -0.196105 -0.116894 -0.0662191 0 0.477699 0.439324 0.354498 0.250725 0.201168 0.196209 0.205671 0.21253 0.209497 0.174691 0.106342 0.0152604 -0.0773423 -0.164768 -0.234293 -0.285326 -0.319041 -0.339668 -0.340275 -0.327306 -0.310149 -0.304894 -0.314752 -0.344346 -0.389453 -0.416424 -0.395275 -0.324521 -0.228766 -0.130796 0 0.439526 0.417361 0.360225 0.290951 0.256923 0.252487 0.256589 0.252299 0.234486 0.194369 0.127244 0.0449483 -0.0443315 -0.135107 -0.218164 -0.282418 -0.326893 -0.349048 -0.358747 -0.356 -0.347596 -0.343435 -0.349371 -0.36607 -0.406366 -0.451159 -0.468225 -0.447573 -0.386789 -0.273114 0 0.42669 0.416858 0.379557 0.339813 0.318713 0.31246 0.308058 0.293073 0.263357 0.214215 0.145087 0.063291 -0.0206575 -0.10783 -0.194979 -0.275989 -0.335802 -0.372633 -0.389555 -0.394618 -0.390404 -0.389074 -0.396108 -0.399558 -0.409992 -0.447229 -0.492722 -0.525677 -0.545406 -0.492582 0 0.443248 0.43763 0.418526 0.399534 0.386644 0.375834 0.358555 0.329192 0.289122 0.236736 0.165147 0.0793971 -0.00439973 -0.0888048 -0.177404 -0.263146 -0.3418 -0.402814 -0.43714 -0.44982 -0.453579 -0.451315 -0.452988 -0.451849 -0.433441 -0.435544 -0.485735 -0.562805 -0.662034 -0.737075 0 0.482196 0.481768 0.477899 0.474493 0.46339 0.439308 0.402927 0.358384 0.309551 0.254844 0.187869 0.103044 0.0133312 -0.0764817 -0.163931 -0.255578 -0.348228 -0.432184 -0.495714 -0.532343 -0.548404 -0.54835 -0.535392 -0.524964 -0.499657 -0.472069 -0.494986 -0.591591 -0.751119 -0.946319 0 0.540553 0.544619 0.554829 0.562082 0.54395 0.499886 0.444591 0.38482 0.32593 0.268352 0.208078 0.132668 0.0371131 -0.0565461 -0.151964 -0.251618 -0.358944 -0.467763 -0.565957 -0.640914 -0.683146 -0.696355 -0.679744 -0.644122 -0.616188 -0.602019 -0.613937 -0.684791 -0.846858 -1.08979 0 0.614285 0.621001 0.639987 0.649084 0.620269 0.559598 0.487377 0.414562 0.346759 0.284419 0.224573 0.158122 0.0735935 -0.0266152 -0.132523 -0.245106 -0.3688 -0.509196 -0.650516 -0.770309 -0.848137 -0.882135 -0.880944 -0.839933 -0.789255 -0.771045 -0.788769 -0.824001 -0.930156 -1.15451 0 0.699992 0.704895 0.723416 0.727864 0.69153 0.617027 0.530586 0.447306 0.372312 0.306266 0.246197 0.186197 0.110534 0.013343 -0.101933 -0.227205 -0.372423 -0.545672 -0.731327 -0.894531 -1.00413 -1.05258 -1.05931 -1.01891 -0.954945 -0.908973 -0.89886 -0.903704 -0.962267 -1.15261 0 0.797174 0.791651 0.796781 0.795173 0.751639 0.668787 0.572716 0.480939 0.4022 0.337065 0.278885 0.21884 0.145544 0.0522612 -0.062109 -0.198155 -0.362763 -0.562857 -0.779508 -0.976713 -1.10943 -1.16396 -1.1683 -1.12134 -1.04647 -0.974814 -0.931063 -0.913567 -0.944615 -1.05908 0 0.903794 0.879799 0.861049 0.848251 0.799006 0.712525 0.616839 0.519717 0.439024 0.375415 0.317742 0.254072 0.180103 0.0885515 -0.0243146 -0.162854 -0.337218 -0.545912 -0.785506 -0.999743 -1.14346 -1.1963 -1.19369 -1.14144 -1.05858 -0.968209 -0.897981 -0.863777 -0.870376 -0.896371 0 1.00927 0.961665 0.903672 0.878342 0.826688 0.747936 0.665137 0.57046 0.483098 0.413319 0.352608 0.28811 0.210785 0.117376 0.00733426 -0.12514 -0.288001 -0.497262 -0.741619 -0.961292 -1.10583 -1.16178 -1.16436 -1.12092 -1.03445 -0.925456 -0.836612 -0.785952 -0.765433 -0.722456 0 1.09758 1.03823 0.936686 0.902798 0.855216 0.789789 0.72181 0.633282 0.533195 0.447316 0.374369 0.305123 0.23096 0.14115 0.0312884 -0.0829065 -0.223773 -0.41533 -0.647533 -0.867182 -1.01565 -1.08117 -1.0902 -1.06202 -0.986008 -0.879768 -0.790361 -0.726323 -0.675987 -0.577258 0 1.15529 1.08984 0.958876 0.914058 0.868325 0.812543 0.754821 0.678607 0.576039 0.470537 0.378841 0.299897 0.228923 0.157657 0.0683122 -0.0411758 -0.156837 -0.303207 -0.512554 -0.736087 -0.903263 -0.987685 -1.00853 -0.991224 -0.929359 -0.838223 -0.751137 -0.676625 -0.60457 -0.468634 0 1.1469 1.07942 0.938743 0.883902 0.83314 0.776784 0.719232 0.652218 0.561687 0.461548 0.371387 0.290774 0.211104 0.144369 0.0971028 0.0401323 -0.0633439 -0.207344 -0.379727 -0.594953 -0.772926 -0.872914 -0.905061 -0.90071 -0.859372 -0.792324 -0.711478 -0.630203 -0.54751 -0.393154 0 1.04119 0.96183 0.805788 0.724698 0.652451 0.588605 0.528864 0.481018 0.431286 0.380464 0.338554 0.296324 0.24443 0.178427 0.121292 0.0832474 0.0258488 -0.0940132 -0.274791 -0.48099 -0.644082 -0.737331 -0.772074 -0.774505 -0.759048 -0.715498 -0.654136 -0.58262 -0.499533 -0.343406 0 0.741774 0.646869 0.483787 0.377521 0.287235 0.222448 0.178519 0.162388 0.171258 0.200177 0.246401 0.287363 0.298477 0.274771 0.211883 0.133954 0.0575641 -0.0445079 -0.198171 -0.38159 -0.520961 -0.595976 -0.624728 -0.62997 -0.622799 -0.60382 -0.567128 -0.518108 -0.445575 -0.304732 0 0.337386 0.232786 0.119164 0.0236865 -0.052229 -0.08549 -0.107377 -0.102175 -0.069727 0.000811467 0.102033 0.218889 0.300616 0.321594 0.289747 0.200142 0.0754556 -0.0497817 -0.17606 -0.295619 -0.386902 -0.444563 -0.472282 -0.478739 -0.473515 -0.461947 -0.451428 -0.429081 -0.384801 -0.261642 0 0.124868 0.119452 -0.035454 -0.101962 -0.136999 -0.141311 -0.160413 -0.161304 -0.149758 -0.10326 -0.00881758 0.117014 0.246119 0.31143 0.299506 0.221394 0.0986683 -0.0328252 -0.139971 -0.215255 -0.269878 -0.308148 -0.324236 -0.323589 -0.314411 -0.308484 -0.309065 -0.311447 -0.322582 -0.215138 0 0.648158 0.111856 -0.0670508 -0.0491032 -0.0866121 -0.0652736 -0.0832582 -0.0854922 -0.102352 -0.0816002 -0.0386301 0.0519706 0.166088 0.259358 0.275661 0.223882 0.134534 0.0371384 -0.0600255 -0.144972 -0.196443 -0.20965 -0.199761 -0.176126 -0.152896 -0.144015 -0.15478 -0.183142 -0.164411 -0.191813 0 5.50952 0 0 0 0 0 0 0 0 0 0 0 0 0 0 0 0 0 0 0 0 0 0 0 0 0 0 0 0 0 0
				</DataArray>
			</PointData>
			<CellData Scalars="Density">
				<DataArray Name="Density" type="Float32" format="ascii">