<?xml version="1.0"?>
<VTKFile type="PolyData">
	<PolyData>
		<Piece NumberOfPoints="961" NumberOfPolys="900">
			<Points>
				<DataArray type="Float32" NumberOfComponents="3" format="ascii">
 0 0 0 0.04 0 0 0.08 0 0 0.12 0 0 0.16 0 0 0.2 0 0 0.24 0 0 0.28 0 0 0.32 0 0 0.36 0 0 0.4 0 0 0.44 0 0 0.48 0 0 0.52 0 0 0.56 0 0 0.6 0 0 0.64 0 0 0.68 0 0 0.72 0 0 0.76 0 0 0.8 0 0 0.84 0 0 0.88 0 0 0.92 0 0 0.96 0 0 1 0 0 1.04 0 0 1.08 0 0 1.12 0 0 1.16 0 0 1.2 0 0 0 0.04 0 0.04 0.04 0 0.08 0.04 0 0.12 0.04 0 0.16 0.04 0 0.2 0.04 0 0.24 0.04 0 0.28 0.04 0 0.32 0.04 0 0.36 0.04 0 0.4 0.04 0 0.44 0.04 0 0.48 0.04 0 0.52 0.04 0 0.56 0.04 0 0.6 0.04 0 0.64 0.04 0 0.68 0.04 0 0.72 0.04 0 0.76 0.04 0 0.8 0.04 0 0.84 0.04 0 0.88 0.04 0 0.92 0.04 0 0.96 0.04 0 1 0.04 0 1.04 0.04 0 1.08 0.04 0 1.12 0.04 0 1.16 0.04 0 1.2 0.04 0 0 0.08 0 0.04 0.08 0 0.08 0.08 0 0.12 0.08 0 0.16 0.08 0 0.2 0.08 0 0.24 0.08 0 0.28 0.08 0 0.32 0.08 0 0.36 0.08 0 0.4 0.08 0 0.44 0.08 0 0.48 0.08 0 0.52 0.08 0 0.56 0.08 0 0.6 0.08 0 0.64 0.08 0 0.68 0.08 0 0.72 0.08 0 0.76 0.08 0 0.8 0.08 0 0.84 0.08 0 0.88 0.08 0 0.92 0.08 0 0.96 0.08 0 1 0.08 0 1.04 0.08 0 1.08 0.08 0 1.12 0.08 0 1.16 0.08 0 1.2 0.08 0 0 0.12 0 0.04 0.12 0 0.08 0.12 0 0.12 0.12 0 0.16 0.12 0 0.2 0.12 0 0.24 0.12 0 0.28 0.12 0 0.32 0.12 0 0.36 0.12 0 0.4 0.12 0 0.44 0.12 0 0.48 0.12 0 0.52 0.12 0 0.56 0.12 0 0.6 0.12 0 0.64 0.12 0 0.68 0.12 0 0.72 0.12 0 0.76 0.12 0 0.8 0.12 0 0.84 0.12 0 0.88 0.12 0 0.92 0.12 0 0.96 0.12 0 1 0.12 0 1.04 0.12 0 1.08 0.12 0 1.12 0.12 0 1.16 0.12 0 1.2 0.12 0 0 0.16 0 0.04 0.16 0 0.08 0.16 0 0.12 0.16 0 0.16 0.16 0 0.2 0.16 0 0.24 0.16 0 0.28 0.16 0 0.32 0.16 0 0.36 0.16 0 0.4 0.16 0 0.44 0.16 0 0.48 0.16 0 0.52 0.16 0 0.56 0.16 0 0.6 0.16 0 0.64 0.16 0 0.68 0.16 0 0.72 0.16 0 0.76 0.16 0 0.8 0.16 0 0.84 0.16 0 0.88 0.16 0 0.92 0.16 0 0.96 0.16 0 1 0.16 0 1.04 0.16 0 1.08 0.16 0 1.12 0.16 0 1.16 0.16 0 1.2 0.16 0 0 0.2 0 0.04 0.2 0 0.08 0.2 0 0.12 0.2 0 0.16 0.2 0 0.2 0.2 0 0.24 0.2 0 0.28 0.2 0 0.32 0.2 0 0.36 0.2 0 0.4 0.2 0 0.44 0.2 0 0.48 0.2 0 0.52 0.2 0 0.56 0.2 0 0.6 0.2 0 0.64 0.2 0 0.68 0.2 0 0.72 0.2 0 0.76 0.2 0 0.8 0.2 0 0.84 0.2 0 0.88 0.2 0 0.92 0.2 0 0.96 0.2 0 1 0.2 0 1.04 0.2 0 1.08 0.2 0 1.12 0.2 0 1.16 0.2 0 1.2 0.2 0 0 0.24 0 0.04 0.24 0 0.08 0.24 0 0.12 0.24 0 0.16 0.24 0 0.2 0.24 0 0.24 0.24 0 0.28 0.24 0 0.32 0.24 0 0.36 0.24 0 0.4 0.24 0 0.44 0.24 0 0.48 0.24 0 0.52 0.24 0 0.56 0.24 0 0.6 0.24 0 0.64 0.24 0 0.68 0.24 0 0.72 0.24 0 0.76 0.24 0 0.8 0.24 0 0.84 0.24 0 0.88 0.24 0 0.92 0.24 0 0.96 0.24 0 1 0.24 0 1.04 0.24 0 1.08 0.24 0 1.12 0.24 0 1.16 0.24 0 1.2 0.24 0 0 0.28 0 0.04 0.28 0 0.08 0.28 0 0.12 0.28 0 0.16 0.28 0 0.2 0.28 0 0.24 0.28 0 0.28 0.28 0 0.32 0.28 0 0.36 0.28 0 0.4 0.28 0 0.44 0.28 0 0.48 0.28 0 0.52 0.28 0 0.56 0.28 0 0.6 0.28 0 0.64 0.28 0 0.68 0.28 0 0.72 0.28 0 0.76 0.28 0 0.8 0.28 0 0.84 0.28 0 0.88 0.28 0 0.92 0.28 0 0.96 0.28 0 1 0.28 0 1.04 0.28 0 1.08 0.28 0 1.12 0.28 0 1.16 0.28 0 1.2 0.28 0 0 0.32 0 0.04 0.32 0 0.08 0.32 0 0.12 0.32 0 0.16 0.32 0 0.2 0.32 0 0.24 0.32 0 0.28 0.32 0 0.32 0.32 0 0.36 0.32 0 0.4 0.32 0 0.44 0.32 0 0.48 0.32 0 0.52 0.32 0 0.56 0.32 0 0.6 0.32 0 0.64 0.32 0 0.68 0.32 0 0.72 0.32 0 0.76 0.32 0 0.8 0.32 0 0.84 0.32 0 0.88 0.32 0 0.92 0.32 0 0.96 0.32 0 1 0.32 0 1.04 0.32 0 1.08 0.32 0 1.12 0.32 0 1.16 0.32 0 1.2 0.32 0 0 0.36 0 0.04 0.36 0 0.08 0.36 0 0.12 0.36 0 0.16 0.36 0 0.2 0.36 0 0.24 0.36 0 0.28 0.36 0 0.32 0.36 0 0.36 0.36 0 0.4 0.36 0 0.44 0.36 0 0.48 0.36 0 0.52 0.36 0 0.56 0.36 0 0.6 0.36 0 0.64 0.36 0 0.68 0.36 0 0.72 0.36 0 0.76 0.36 0 0.8 0.36 0 0.84 0.36 0 0.88 0.36 0 0.92 0.36 0 0.96 0.36 0 1 0.36 0 1.04 0.36 0 1.08 0.36 0 1.12 0.36 0 1.16 0.36 0 1.2 0.36 0 0 0.4 0 0.04 0.4 0 0.08 0.4 0 0.12 0.4 0 0.16 0.4 0 0.2 0.4 0 0.24 0.4 0 0.28 0.4 0 0.32 0.4 0 0.36 0.4 0 0.4 0.4 0 0.44 0.4 0 0.48 0.4 0 0.52 0.4 0 0.56 0.4 0 0.6 0.4 0 0.64 0.4 0 0.68 0.4 0 0.72 0.4 0 0.76 0.4 0 0.8 0.4 0 0.84 0.4 0 0.88 0.4 0 0.92 0.4 0 0.96 0.4 0 1 0.4 0 1.04 0.4 0 1.08 0.4 0 1.12 0.4 0 1.16 0.4 0 1.2 0.4 0 0 0.44 0 0.04 0.44 0 0.08 0.44 0 0.12 0.44 0 0.16 0.44 0 0.2 0.44 0 0.24 0.44 0 0.28 0.44 0 0.32 0.44 0 0.36 0.44 0 0.4 0.44 0 0.44 0.44 0 0.48 0.44 0 0.52 0.44 0 0.56 0.44 0 0.6 0.44 0 0.64 0.44 0 0.68 0.44 0 0.72 0.44 0 0.76 0.44 0 0.8 0.44 0 0.84 0.44 0 0.88 0.44 0 0.92 0.44 0 0.96 0.44 0 1 0.44 0 1.04 0.44 0 1.08 0.44 0 1.12 0.44 0 1.16 0.44 0 1.2 0.44 0 0 0.48 0 0.04 0.48 0 0.08 0.48 0 0.12 0.48 0 0.16 0.48 0 0.2 0.48 0 0.24 0.48 0 0.28 0.48 0 0.32 0.48 0 0.36 0.48 0 0.4 0.48 0 0.44 0.48 0 0.48 0.48 0 0.52 0.48 0 0.56 0.48 0 0.6 0.48 0 0.64 0.48 0 0.68 0.48 0 0.72 0.48 0 0.76 0.48 0 0.8 0.48 0 0.84 0.48 0 0.88 0.48 0 0.92 0.48 0 0.96 0.48 0 1 0.48 0 1.04 0.48 0 1.08 0.48 0 1.12 0.48 0 1.16 0.48 0 1.2 0.48 0 0 0.52 0 0.04 0.52 0 0.08 0.52 0 0.12 0.52 0 0.16 0.52 0 0.2 0.52 0 0.24 0.52 0 0.28 0.52 0 0.32 0.52 0 0.36 0.52 0 0.4 0.52 0 0.44 0.52 0 0.48 0.52 0 0.52 0.52 0 0.56 0.52 0 0.6 0.52 0 0.64 0.52 0 0.68 0.52 0 0.72 0.52 0 0.76 0.52 0 0.8 0.52 0 0.84 0.52 0 0.88 0.52 0 0.92 0.52 0 0.96 0.52 0 1 0.52 0 1.04 0.52 0 1.08 0.52 0 1.12 0.52 0 1.16 0.52 0 1.2 0.52 0 0 0.56 0 0.04 0.56 0 0.08 0.56 0 0.12 0.56 0 0.16 0.56 0 0.2 0.56 0 0.24 0.56 0 0.28 0.56 0 0.32 0.56 0 0.36 0.56 0 0.4 0.56 0 0.44 0.56 0 0.48 0.56 0 0.52 0.56 0 0.56 0.56 0 0.6 0.56 0 0.64 0.56 0 0.68 0.56 0 0.72 0.56 0 0.76 0.56 0 0.8 0.56 0 0.84 0.56 0 0.88 0.56 0 0.92 0.56 0 0.96 0.56 0 1 0.56 0 1.04 0.56 0 1.08 0.56 0 1.12 0.56 0 1.16 0.56 0 1.2 0.56 0 0 0.6 0 0.04 0.6 0 0.08 0.6 0 0.12 0.6 0 0.16 0.6 0 0.2 0.6 0 0.24 0.6 0 0.28 0.6 0 0.32 0.6 0 0.36 0.6 0 0.4 0.6 0 0.44 0.6 0 0.48 0.6 0 0.52 0.6 0 0.56 0.6 0 0.6 0.6 0 0.64 0.6 0 0.68 0.6 0 0.72 0.6 0 0.76 0.6 0 0.8 0.6 0 0.84 0.6 0 0.88 0.6 0 0.92 0.6 0 0.96 0.6 0 1 0.6 0 1.04 0.6 0 1.08 0.6 0 1.12 0.6 0 1.16 0.6 0 1.2 0.6 0 0 0.64 0 0.04 0.64 0 0.08 0.64 0 0.12 0.64 0 0.16 0.64 0 0.2 0.64 0 0.24 0.64 0 0.28 0.64 0 0.32 0.64 0 0.36 0.64 0 0.4 0.64 0 0.44 0.64 0 0.48 0.64 0 0.52 0.64 0 0.56 0.64 0 0.6 0.64 0 0.64 0.64 0 0.68 0.64 0 0.72 0.64 0 0.76 0.64 0 0.8 0.64 0 0.84 0.64 0 0.88 0.64 0 0.92 0.64 0 0.96 0.64 0 1 0.64 0 1.04 0.64 0 1.08 0.64 0 1.12 0.64 0 1.16 0.64 0 1.2 0.64 0 0 0.68 0 0.04 0.68 0 0.08 0.68 0 0.12 0.68 0 0.16 0.68 0 0.2 0.68 0 0.24 0.68 0 0.28 0.68 0 0.32 0.68 0 0.36 0.68 0 0.4 0.68 0 0.44 0.68 0 0.48 0.68 0 0.52 0.68 0 0.56 0.68 0 0.6 0.68 0 0.64 0.68 0 0.68 0.68 0 0.72 0.68 0 0.76 0.68 0 0.8 0.68 0 0.84 0.68 0 0.88 0.68 0 0.92 0.68 0 0.96 0.68 0 1 0.68 0 1.04 0.68 0 1.08 0.68 0 1.12 0.68 0 1.16 0.68 0 1.2 0.68 0 0 0.72 0 0.04 0.72 0 0.08 0.72 0 0.12 0.72 0 0.16 0.72 0 0.2 0.72 0 0.24 0.72 0 0.28 0.72 0 0.32 0.72 0 0.36 0.72 0 0.4 0.72 0 0.44 0.72 0 0.48 0.72 0 0.52 0.72 0 0.56 0.72 0 0.6 0.72 0 0.64 0.72 0 0.68 0.72 0 0.72 0.72 0 0.76 0.72 0 0.8 0.72 0 0.84 0.72 0 0.88 0.72 0 0.92 0.72 0 0.96 0.72 0 1 0.72 0 1.04 0.72 0 1.08 0.72 0 1.12 0.72 0 1.16 0.72 0 1.2 0.72 0 0 0.76 0 0.04 0.76 0 0.08 0.76 0 0.12 0.76 0 0.16 0.76 0 0.2 0.76 0 0.24 0.76 0 0.28 0.76 0 0.32 0.76 0 0.36 0.76 0 0.4 0.76 0 0.44 0.76 0 0.48 0.76 0 0.52 0.76 0 0.56 0.76 0 0.6 0.76 0 0.64 0.76 0 0.68 0.76 0 0.72 0.76 0 0.76 0.76 0 0.8 0.76 0 0.84 0.76 0 0.88 0.76 0 0.92 0.76 0 0.96 0.76 0 1 0.76 0 1.04 0.76 0 1.08 0.76 0 1.12 0.76 0 1.16 0.76 0 1.2 0.76 0 0 0.8 0 0.04 0.8 0 0.08 0.8 0 0.12 0.8 0 0.16 0.8 0 0.2 0.8 0 0.24 0.8 0 0.28 0.8 0 0.32 0.8 0 0.36 0.8 0 0.4 0.8 0 0.44 0.8 0 0.48 0.8 0 0.52 0.8 0 0.56 0.8 0 0.6 0.8 0 0.64 0.8 0 0.68 0.8 0 0.72 0.8 0 0.76 0.8 0 0.8 0.8 0 0.84 0.8 0 0.88 0.8 0 0.92 0.8 0 0.96 0.8 0 1 0.8 0 1.04 0.8 0 1.08 0.8 0 1.12 0.8 0 1.16 0.8 0 1.2 0.8 0 0 0.84 0 0.04 0.84 0 0.08 0.84 0 0.12 0.84 0 0.16 0.84 0 0.2 0.84 0 0.24 0.84 0 0.28 0.84 0 0.32 0.84 0 0.36 0.84 0 0.4 0.84 0 0.44 0.84 0 0.48 0.84 0 0.52 0.84 0 0.56 0.84 0 0.6 0.84 0 0.64 0.84 0 0.68 0.84 0 0.72 0.84 0 0.76 0.84 0 0.8 0.84 0 0.84 0.84 0 0.88 0.84 0 0.92 0.84 0 0.96 0.84 0 1 0.84 0 1.04 0.84 0 1.08 0.84 0 1.12 0.84 0 1.16 0.84 0 1.2 0.84 0 0 0.88 0 0.04 0.88 0 0.08 0.88 0 0.12 0.88 0 0.16 0.88 0 0.2 0.88 0 0.24 0.88 0 0.28 0.88 0 0.32 0.88 0 0.36 0.88 0 0.4 0.88 0 0.44 0.88 0 0.48 0.88 0 0.52 0.88 0 0.56 0.88 0 0.6 0.88 0 0.64 0.88 0 0.68 0.88 0 0.72 0.88 0 0.76 0.88 0 0.8 0.88 0 0.84 0.88 0 0.88 0.88 0 0.92 0.88 0 0.96 0.88 0 1 0.88 0 1.04 0.88 0 1.08 0.88 0 1.12 0.88 0 1.16 0.88 0 1.2 0.88 0 0 0.92 0 0.04 0.92 0 0.08 0.92 0 0.12 0.92 0 0.16 0.92 0 0.2 0.92 0 0.24 0.92 0 0.28 0.92 0 0.32 0.92 0 0.36 0.92 0 0.4 0.92 0 0.44 0.92 0 0.48 0.92 0 0.52 0.92 0 0.56 0.92 0 0.6 0.92 0 0.64 0.92 0 0.68 0.92 0 0.72 0.92 0 0.76 0.92 0 0.8 0.92 0 0.84 0.92 0 0.88 0.92 0 0.92 0.92 0 0.96 0.92 0 1 0.92 0 1.04 0.92 0 1.08 0.92 0 1.12 0.92 0 1.16 0.92 0 1.2 0.92 0 0 0.96 0 0.04 0.96 0 0.08 0.96 0 0.12 0.96 0 0.16 0.96 0 0.2 0.96 0 0.24 0.96 0 0.28 0.96 0 0.32 0.96 0 0.36 0.96 0 0.4 0.96 0 0.44 0.96 0 0.48 0.96 0 0.52 0.96 0 0.56 0.96 0 0.6 0.96 0 0.64 0.96 0 0.68 0.96 0 0.72 0.96 0 0.76 0.96 0 0.8 0.96 0 0.84 0.96 0 0.88 0.96 0 0.92 0.96 0 0.96 0.96 0 1 0.96 0 1.04 0.96 0 1.08 0.96 0 1.12 0.96 0 1.16 0.96 0 1.2 0.96 0 0 1 0 0.04 1 0 0.08 1 0 0.12 1 0 0.16 1 0 0.2 1 0 0.24 1 0 0.28 1 0 0.32 1 0 0.36 1 0 0.4 1 0 0.44 1 0 0.48 1 0 0.52 1 0 0.56 1 0 0.6 1 0 0.64 1 0 0.68 1 0 0.72 1 0 0.76 1 0 0.8 1 0 0.84 1 0 0.88 1 0 0.92 1 0 0.96 1 0 1 1 0 1.04 1 0 1.08 1 0 1.12 1 0 1.16 1 0 1.2 1 0 0 1.04 0 0.04 1.04 0 0.08 1.04 0 0.12 1.04 0 0.16 1.04 0 0.2 1.04 0 0.24 1.04 0 0.28 1.04 0 0.32 1.04 0 0.36 1.04 0 0.4 1.04 0 0.44 1.04 0 0.48 1.04 0 0.52 1.04 0 0.56 1.04 0 0.6 1.04 0 0.64 1.04 0 0.68 1.04 0 0.72 1.04 0 0.76 1.04 0 0.8 1.04 0 0.84 1.04 0 0.88 1.04 0 0.92 1.04 0 0.96 1.04 0 1 1.04 0 1.04 1.04 0 1.08 1.04 0 1.12 1.04 0 1.16 1.04 0 1.2 1.04 0 0 1.08 0 0.04 1.08 0 0.08 1.08 0 0.12 1.08 0 0.16 1.08 0 0.2 1.08 0 0.24 1.08 0 0.28 1.08 0 0.32 1.08 0 0.36 1.08 0 0.4 1.08 0 0.44 1.08 0 0.48 1.08 0 0.52 1.08 0 0.56 1.08 0 0.6 1.08 0 0.64 1.08 0 0.68 1.08 0 0.72 1.08 0 0.76 1.08 0 0.8 1.08 0 0.84 1.08 0 0.88 1.08 0 0.92 1.08 0 0.96 1.08 0 1 1.08 0 1.04 1.08 0 1.08 1.08 0 1.12 1.08 0 1.16 1.08 0 1.2 1.08 0 0 1.12 0 
[...]
			<PointData Scalars="VitesseX">
				<DataArray Name="VitesseX" type="Float32" format="ascii">
 0 -0.116275 -0.941852 1.35442 1.07155 1.94495 2.48073 3.22639 3.71637 5.28185 5.48672 4.46574 2.23056 0.285407 0.00171098 3.46071e-08 1.4994e-13 -1.07723e-12 1.07723e-12 4.1109e-16 -1.07765e-12 1.07623e-12 -1.07623e-12 -1.30891e-19 1.07723e-12 4.11082e-16 -1.07805e-12 1.07756e-12 -3.63638e-12 3.63638e-12 0 0 0.473909 0.800568 1.5683 1.61148 2.07338 2.62397 3.2435 3.7312 5.27231 5.39284 4.33154 2.08844 0.246376 0.00134231 2.69001e-08 1.31154e-13 -1.07698e-12 1.07695e-12 -9.79557e-17 -1.07693e-12 1.07674e-12 -1.07664e-12 -5.76325e-16 1.07696e-12 -7.42294e-17 -1.07676e-12 1.07754e-12 -3.63632e-12 3.6357e-12 0 0 0.769497 1.34737 1.57441 2.16636 2.16786 2.90976 3.25529 3.8785 5.33633 5.23004 4.00594 1.70303 0.155906 0.000643964 1.29384e-08 6.24952e-13 -2.35645e-12 2.35663e-12 -5.38935e-13 -1.81763e-12 2.35641e-12 -5.38542e-13 -5.2862e-16 -1.27947e-12 -2.79771e-16 1.28061e-12 5.37003e-13 -3.635e-12 1.81763e-12 0 0 0.578448 1.06834 1.82638 2.06564 2.43851 3.11405 3.23177 4.26268 5.33752 4.93256 3.44332 1.13673 0.0687544 0.000184004 4.02351e-09 -1.2378e-12 2.36902e-16 -2.65642e-17 1.27871e-12 -1.27964e-12 1.81691e-12 -1.81643e-12 -3.08866e-16 -8.49194e-16 1.17223e-15 -1.20002e-15 -2.86787e-16 -1.8168e-12 1.81773e-12 0 0 0.410613 1.01004 1.58453 1.97595 2.74061 2.96075 3.32436 4.76736 5.12545 4.41252 2.56853 0.559818 0.0198708 2.92837e-05 8.4171e-10 -1.80481e-12 1.63235e-15 -5.42449e-16 1.8169e-12 -1.8174e-12 -8.75495e-16 1.17754e-15 -1.81797e-12 1.81692e-12 1.12091e-15 -1.55042e-15 -1.81668e-12 -2.34427e-16 1.81726e-12 0 0 0.422275 0.869413 1.42942 2.12958 2.53529 2.77747 3.87172 4.87857 4.68216 3.52996 1.46209 0.188055 0.00345705 2.30823e-06 1.14135e-10 1.82051e-12 -3.63513e-12 1.81764e-12 -3.60657e-16 -1.81729e-12 1.81854e-12 -1.67091e-15 1.64663e-15 -1.8193e-12 7.39735e-16 1.81474e-12 2.0527e-15 -1.82038e-12 2.7888e-15 0 0 0.38958 0.869483 1.43402 1.90736 2.28541 3.15412 4.32754 4.51755 3.8787 2.22748 0.55978 0.0381886 0.000309289 8.2811e-08 8.07019e-12 1.87618e-15 -1.81857e-12 1.20853e-16 1.818e-12 -1.01067e-15 -1.35975e-15 1.10667e-15 1.84762e-15 -1.81934e-12 -8.91043e-17 1.81554e-12 -1.05726e-11 1.05719e-11 -1.8158e-12 0 0 0.399778 0.845307 1.31288 1.84527 2.67116 3.66445 4.07663 3.75115 2.5623 0.927591 0.129799 0.00403715 1.11705e-05 1.99589e-09 2.8915e-13 -1.81868e-12 1.81916e-12 -1.81874e-12 1.81943e-12 -5.03736e-15 1.95447e-15 -5.31883e-12 3.50311e-12 1.81835e-12 -1.91184e-15 -1.05725e-11 4.07435e-16 -1.24011e-15 1.05738e-11 0 0 0.432781 0.927713 1.52865 2.25912 2.99058 3.44384 3.3042 2.4662 1.09127 0.228094 0.0149681 0.000168038 1.30319e-07 4.86484e-11 -1.81088e-12 1.81595e-12 3.06319e-15 -1.46955e-15 -7.13722e-12 7.13447e-12 -1.05702e-11 5.2533e-12 3.50204e-12 1.81822e-12 -2.56396e-15 -1.05715e-11 -5.27785e-16 5.64392e-16 1.05689e-11 0 0 0.558256 1.1419 1.73517 2.31503 2.69672 2.64606 2.04246 0.998107 0.259279 0.0258842 0.000644055 1.8768e-06 1.00227e-09 -4.83108e-12 5.31875e-12 6.90285e-16 -1.81865e-12 3.63408e-12 -7.13522e-12 -5.25393e-12 7.59369e-17 1.05727e-11 -1.81611e-12 -1.04814e-15 -1.06657e-15 1.81765e-12 -1.0573e-11 9.38537e-16 8.74897e-12 0 0 0.567345 1.11078 1.5793 1.88083 1.85374 1.42191 0.7172 0.204505 0.0251982 0.000963125 6.23458e-06 6.1485e-09 1.12155e-11 -7.13105e-12 5.31777e-12 -1.81393e-12 -3.80556e-15 1.81795e-12 -2.21295e-16 -1.23895e-11 1.23887e-11 -1.81555e-12 1.81542e-12 -1.8148e-12 4.65778e-16 -2.22191e-15 3.63805e-12 -1.42136e-11 1.23937e-11 0 0 0.448857 0.814495 1.03001 1.01763 0.763665 0.379929 0.10697 0.0139591 0.000634941 6.2235e-06 1.15714e-08 2.52123e-11 3.66014e-12 -7.1352e-12 3.49917e-12 1.82126e-12 -1.82098e-12 2.28218e-15 -3.71075e-15 4.65111e-15 1.81304e-12 -1.81466e-12 1.81571e-12 -1.81521e-12 1.49061e-15 -7.61652e-15 3.64066e-12 -3.6412e-12 -8.74918e-12 0 0 0.207516 0.337936 0.356275 0.262213 0.119413 0.0303579 0.00370316 0.000164375 1.86627e-06 6.11314e-09 2.51657e-11 1.86806e-12 -1.05731e-11 5.25356e-12 5.31824e-12 -1.05727e-11 1.05732e-11 -1.23921e-11 1.23923e-11 4.77147e-16 -1.05743e-11 1.05727e-11 -1.23895e-11 1.23893e-11 3.31598e-15 -8.72795e-15 -3.15895e-11 3.15888e-11 -1.05706e-11 0 0 0.0351682 0.0465233 0.0323749 0.012861 0.0027992 0.000285507 1.09031e-05 1.28404e-07 9.88048e-10 7.53505e-12 2.76513e-14 -1.05713e-11 -2.8152e-15 1.05739e-11 5.94753e-16 -1.05719e-11 -2.28612e-15 2.25421e-15 1.05714e-11 -7.61931e-16 -1.05727e-11 1.05693e-11 -1.05674e-11 -2.82364e-15 1.7195e-15 1.2381e-11 -3.34065e-11 3.34019e-11 -1.23813e-11 0 0 0.000312355 0.000294912 0.000122746 2.4316e-05 2.13538e-06 7.88665e-08 1.8999e-09 4.76891e-11 -4.83896e-12 7.13763e-12 -7.13397e-12 -5.25411e-12 1.05706e-11 -1.81562e-12 -1.72424e-15 1.82049e-12 -1.05757e-11 2.69531e-15 8.75249e-12 1.81592e-12 1.08833e-15 -1.82352e-12 -8.74857e-12 -3.21211e-15 -3.52744e-15 -2.40104e-15 1.2395e-11 -1.23959e-11 1.27091e-14 0 0 6.51956e-09 6.03174e-09 2.52833e-09 6.28445e-10 9.49116e-11 1.11416e-11 -3.3608e-12 1.82418e-12 -5.31958e-12 5.31736e-12 -7.13645e-12 8.95619e-12 -3.63704e-12 1.55221e-16 2.02486e-22 -1.71707e-15 1.81894e-12 -1.05712e-11 8.75314e-12 -8.75728e-12 1.05763e-11 -1.23944e-11 1.81924e-12 1.23832e-11 -4.2751e-15 -2.4769e-11 2.47749e-11 -2.47748e-11 2.47842e-11 0 0 1.83554e-14 -5.12575e-13 -1.26049e-12 1.82491e-12 -1.81365e-12 -1.2097e-15 -1.81858e-12 1.8166e-12 2.37675e-15 -1.8202e-12 1.81771e-12 -1.05729e-11 1.05752e-11 -1.82204e-12 1.71368e-15 1.81843e-12 -1.81974e-12 1.81978e-12 -1.81852e-12 -8.76605e-12 1.16428e-14 -5.34109e-15 1.2397e-11 -1.2398e-11 -1.22525e-15 -1.86403e-15 1.23897e-11 -1.2391e-11 8.85135e-15 0 0 -1.70686e-16 -1.27971e-12 5.79709e-16 -1.78116e-15 1.59343e-15 -1.81853e-12 1.8159e-12 6.56996e-16 -1.81864e-12 1.03765e-15 1.81448e-12 -1.05694e-11 -2.87437e-15 1.0575e-11 -1.82293e-12 1.82455e-12 -1.81934e-12 1.81599e-12 -1.23916e-11 1.41982e-11 -2.47749e-11 2.47808e-11 -1.23862e-11 2.02952e-15 -9.21936e-15 1.23878e-11 -3.34077e-11 3.34045e-11 -1.23762e-11 0 0 -4.54629e-16 -1.27934e-12 3.70933e-16 -6.92301e-16 -1.81807e-12 1.76572e-16 1.81606e-12 1.67979e-15 -5.83002e-15 -1.81305e-12 -4.27998e-15 -8.75086e-12 -2.58865e-15 1.7698e-15 1.0571e-11 -1.81703e-12 1.81884e-12 -1.05792e-11 4.54366e-15 -2.10236e-11 2.10222e-11 -6.08459e-15 8.93097e-15 -8.97951e-16 -8.32155e-15 1.23948e-11 -3.34166e-11 2.10243e-11 4.61367e-15 0 0 6.69712e-14 -5.38175e-13 -1.28028e-12 1.81763e-12 -3.63547e-12 1.81842e-12 -1.81962e-12 -3.50203e-12 7.13542e-12 -3.63543e-12 -1.0681e-15 -8.75246e-12 1.05725e-11 -1.23918e-11 1.23913e-11 -1.81793e-12 -8.7571e-12 -2.25411e-15 -6.42743e-16 -2.10187e-11 2.10226e-11 -7.08204e-15 9.97057e-15 -9.59653e-15 2.10594e-15 3.1406e-15 1.23824e-11 -2.47727e-11 1.23862e-11 0 0 6.73032e-14 -1.81792e-12 2.3551e-12 -1.81732e-12 -1.81767e-12 3.63525e-12 -3.63904e-12 -3.49974e-12 -5.25327e-12 8.7527e-12 1.46359e-15 3.63681e-12 -3.63887e-12 1.81732e-12 -1.23904e-11 1.23833e-11 -1.05671e-11 -2.10179e-11 2.10147e-11 -4.33803e-16 2.52026e-15 1.23867e-11 -2.47758e-11 2.47727e-11 3.00764e-16 -2.47713e-11 2.47767e-11 -1.23849e-11 1.23885e-11 0 0 3.04992e-16 -1.27971e-12 1.81585e-12 -3.63361e-12 1.81815e-12 -4.1928e-15 -3.17996e-16 -1.05711e-11 -4.44956e-17 8.75249e-12 1.82021e-12 -1.05735e-11 1.05719e-11 -3.00859e-15 -1.0568e-11 -1.24878e-14 6.34203e-15 -2.1016e-11 2.10181e-11 -5.60384e-15 6.72214e-15 -8.06949e-15 9.45318e-15 -5.79587e-15 -7.20549e-16 4.74795e-15 1.2386e-11 -1.23837e-11 1.23939e-11 0 0 5.33207e-16 5.37839e-13 -1.81921e-12 1.27389e-15 -1.71676e-16 -2.99068e-15 -5.31814e-12 -5.25329e-12 1.05718e-11 -1.81909e-12 1.81706e-12 -1.05704e-11 1.05671e-11 -1.81729e-12 -8.74937e-12 -6.80691e-15 2.2905e-16 3.65528e-16 1.04206e-15 1.23852e-11 -2.47747e-11 1.23909e-11 -2.0203e-15 4.55822e-15 -9.02602e-15 1.2393e-11 -1.2389e-11 -1.2389e-11 2.47745e-11 0 0 -4.51654e-16 1.07697e-12 -3.63601e-12 1.81802e-12 -1.47903e-16 -3.58783e-17 -7.13977e-12 7.1394e-12 -1.81958e-12 1.81559e-12 -1.81643e-12 -8.75474e-12 1.05701e-11 -1.23943e-11 1.82461e-12 1.2386e-11 -1.23896e-11 -1.53743e-15 2.98717e-15 -8.66546e-15 9.62012e-15 -5.86336e-15 1.92153e-15 4.33559e-15 -8.62233e-15 -2.68659e-15 -8.07369e-16 4.56421e-15 -2.10288e-11 0 0 -1.29864e-15 -1.27856e-12 -1.63869e-15 -1.81624e-12 1.81751e-12 -1.81753e-12 1.81667e-12 -1.81824e-12 6.41848e-16 1.81315e-12 -1.81411e-12 -8.75774e-12 3.03938e-15 -8.77004e-15 1.23934e-11 -1.23862e-11 -5.14681e-16 1.49707e-15 -7.7063e-15 -1.48276e-15 9.23147e-15 -6.5941e-15 6.37147e-15 -7.83072e-15 2.48707e-15 -6.41456e-15 -2.1024e-11 3.34065e-11 -3.33952e-11 0 0 -2.05475e-15 -3.63444e-12 3.63431e-12 -3.63447e-12 -8.74664e-16 -1.53364e-17 3.63503e-12 -3.63737e-12 2.0006e-15 -4.31386e-16 8.73817e-17 3.6344e-12 -2.47828e-11 2.47715e-11 -1.15921e-15 -2.477e-11 2.47753e-11 -2.47763e-11 2.47718e-11 -5.83322e-16 -2.47711e-11 2.47758e-11 -2.47759e-11 2.47734e-11 -6.8799e-15 2.51003e-15 -6.68145e-11 6.68042e-11 1.23634e-14 0 0 -1.24727e-15 -1.27809e-12 -2.40335e-15 1.84304e-15 -1.82128e-12 1.82037e-12 -1.05753e-11 1.05733e-11 -1.81806e-12 1.28828e-15 -6.00206e-15 3.64121e-12 -1.24015e-11 1.57398e-15 1.36166e-15 -2.26716e-15 1.23893e-11 -1.23825e-11 -3.13481e-15 -1.88512e-15 5.21972e-15 1.23795e-11 -2.47748e-11 2.47797e-11 -1.36729e-14 -3.34088e-11 1.83194e-14 -1.58429e-14 3.34165e-11 0 0 2.2827e-17 5.37479e-13 -3.63707e-12 1.81977e-12 -4.18342e-15 -1.05706e-11 6.28691e-16 -2.45011e-15 1.05744e-11 -3.72099e-17 -7.45994e-15 -3.15886e-11 3.34009e-11 -1.23827e-11 -1.08235e-15 1.23821e-11 -3.34027e-11 3.34075e-11 -1.23858e-11 5.83593e-16 1.23881e-11 -1.239e-11 -1.28877e-14 -2.10092e-11 -6.32256e-15 5.45511e-15 -1.02429e-14 1.32623e-14 -1.41724e-14 0 0 5.61944e-17 -1.76458e-15 -1.81691e-12 -2.18768e-16 1.81439e-12 -1.05716e-11 1.53562e-15 -2.48775e-15 2.38593e-15 1.05685e-11 -9.7971e-16 -3.15952e-11 3.34035e-11 -1.23816e-11 -1.20373e-15 1.23808e-11 -3.34034e-11 2.10191e-11 4.60442e-15 1.23923e-11 -1.23931e-11 -1.23891e-11 2.4768e-11 -3.34113e-11 2.93179e-15 9.0173e-15 -1.32623e-14 1.32317e-14 -1.40542e-14 0 0 -7.08861e-15 -1.8179e-12 1.81752e-12 -1.81855e-12 -1.89947e-15 1.81836e-12 -1.05719e-11 1.05679e-11 -1.23876e-11 1.23886e-11 -1.23916e-11 1.4204e-11 -1.23932e-11 1.13701e-14 -1.61537e-15 -1.02998e-14 1.23982e-11 -2.47817e-11 1.239e-11 1.2397e-11 -1.23912e-11 -1.57883e-14 -2.1015e-11 3.34073e-11 -1.04521e-14 -3.33935e-11 -1.23521e-14 1.24091e-14 3.34078e-11 0 0 0 0 0 0 0 0 0 0 0 0 0 0 0 0 0 0 0 0 0 0 0 0 0 0 0 0 0 0 0 0
				</DataArray>
				<DataArray Name="VitesseY" type="Float32" format="ascii">