<?xml version="1.0"?>
<VTKFile type="PolyData">
	<PolyData>
		<Piece NumberOfPoints="961" NumberOfPolys="900">
			<Points>
				<DataArray type="Float32" NumberOfComponents="3" format="ascii">
 0 0 0 0.04 0 0 0.08 0 0 0.12 0 0 0.16 0 0 0.2 0 0 0.24 0 0 0.28 0 0 0.32 0 0 0.36 0 0 0.4 0 0 0.44 0 0 0.48 0 0 0.52 0 0 0.56 0 0 0.6 0 0 0.64 0 0 0.68 0 0 0.72 0 0 0.76 0 0 0.8 0 0 0.84 0 0 0.88 0 0 0.92 0 0 0.96 0 0 1 0 0 1.04 0 0 1.08 0 0 1.12 0 0 1.16 0 0 1.2 0 0 0 0.04 0 0.04 0.04 0 0.08 0.04 0 0.12 0.04 0 0.16 0.04 0 0.2 0.04 0 0.24 0.04 0 0.28 0.04 0 0.32 0.04 0 0.36 0.04 0 0.4 0.04 0 0.44 0.04 0 0.48 0.04 0 0.52 0.04 0 0.56 0.04 0 0.6 0.04 0 0.64 0.04 0 0.68 0.04 0 0.72 0.04 0 0.76 0.04 0 0.8 0.04 0 0.84 0.04 0 0.88 0.04 0 0.92 0.04 0 0.96 0.04 0 1 0.04 0 1.04 0.04 0 1.08 0.04 0 1.12 0.04 0 1.16 0.04 0 1.2 0.04 0 0 0.08 0 0.04 0.08 0 0.08 0.08 0 0.12 0.08 0 0.16 0.08 0 0.2 0.08 0 0.24 0.08 0 0.28 0.08 0 0.32 0.08 0 0.36 0.08 0 0.4 0.08 0 0.44 0.08 0 0.48 0.08 0 0.52 0.08 0 0.56 0.08 0 0.6 0.08 0 0.64 0.08 0 0.68 0.08 0 0.72 0.08 0 0.76 0.08 0 0.8 0.08 0 0.84 0.08 0 0.88 0.08 0 0.92 0.08 0 0.96 0.08 0 1 0.08 0 1.04 0.08 0 1.08 0.08 0 1.12 0.08 0 1.16 0.08 0 1.2 0.08 0 0 0.12 0 0.04 0.12 0 0.08 0.12 0 0.12 0.12 0 0.16 0.12 0 0.2 0.12 0 0.24 0.12 0 0.28 0.12 0 0.32 0.12 0 0.36 0.12 0 0.4 0.12 0 0.44 0.12 0 0.48 0.12 0 0.52 0.12 0 0.56 0.12 0 0.6 0.12 0 0.64 0.12 0 0.68 0.12 0 0.72 0.12 0 0.76 0.12 0 0.8 0.12 0 0.84 0.12 0 0.88 0.12 0 0.92 0.12 0 0.96 0.12 0 1 0.12 0 1.04 0.12 0 1.08 0.12 0 1.12 0.12 0 1.16 0.12 0 1.2 0.12 0 0 0.16 0 0.04 0.16 0 0.08 0.16 0 0.12 0.16 0 0.16 0.16 0 0.2 0.16 0 0.24 0.16 0 0.28 0.16 0 0.32 0.16 0 0.36 0.16 0 0.4 0.16 0 0.44 0.16 0 0.48 0.16 0 0.52 0.16 0 0.56 0.16 0 0.6 0.16 0 0.64 0.16 0 0.68 0.16 0 0.72 0.16 0 0.76 0.16 0 0.8 0.16 0 0.84 0.16 0 0.88 0.16 0 0.92 0.16 0 0.96 0.16 0 1 0.16 0 1.04 0.16 0 1.08 0.16 0 1.12 0.16 0 1.16 0.16 0 1.2 0.16 0 0 0.2 0 0.04 0.2 0 0.08 0.2 0 0.12 0.2 0 0.16 0.2 0 0.2 0.2 0 0.24 0.2 0 0.28 0.2 0 0.32 0.2 0 0.36 0.2 0 0.4 0.2 0 0.44 0.2 0 0.48 0.2 0 0.52 0.2 0 0.56 0.2 0 0.6 0.2 0 0.64 0.2 0 0.68 0.2 0 0.72 0.2 0 0.76 0.2 0 0.8 0.2 0 0.84 0.2 0 0.88 0.2 0 0.92 0.2 0 0.96 0.2 0 1 0.2 0 1.04 0.2 0 1.08 0.2 0 1.12 0.2 0 1.16 0.2 0 1.2 0.2 0 0 0.24 0 0.04 0.24 0 0.08 0.24 0 0.12 0.24 0 0.16 0.24 0 0.2 0.24 0 0.24 0.24 0 0.28 0.24 0 0.32 0.24 0 0.36 0.24 0 0.4 0.24 0 0.44 0.24 0 0.48 0.24 0 0.52 0.24 0 0.56 0.24 0 0.6 0.24 0 0.64 0.24 0 0.68 0.24 0 0.72 0.24 0 0.76 0.24 0 0.8 0.24 0 0.84 0.24 0 0.88 0.24 0 0.92 0.24 0 0.96 0.24 0 1 0.24 0 1.04 0.24 0 1.08 0.24 0 1.12 0.24 0 1.16 0.24 0 1.2 0.24 0 0 0.28 0 0.04 0.28 0 0.08 0.28 0 0.12 0.28 0 0.16 0.28 0 0.2 0.28 0 0.24 0.28 0 0.28 0.28 0 0.32 0.28 0 0.36 0.28 0 0.4 0.28 0 0.44 0.28 0 0.48 0.28 0 0.52 0.28 0 0.56 0.28 0 0.6 0.28 0 0.64 0.28 0 0.68 0.28 0 0.72 0.28 0 0.76 0.28 0 0.8 0.28 0 0.84 0.28 0 0.88 0.28 0 0.92 0.28 0 0.96 0.28 0 1 0.28 0 1.04 0.28 0 1.08 0.28 0 1.12 0.28 0 1.16 0.28 0 1.2 0.28 0 0 0.32 0 0.04 0.32 0 0.08 0.32 0 0.12 0.32 0 0.16 0.32 0 0.2 0.32 0 0.24 0.32 0 0.28 0.32 0 0.32 0.32 0 0.36 0.32 0 0.4 0.32 0 0.44 0.32 0 0.48 0.32 0 0.52 0.32 0 0.56 0.32 0 0.6 0.32 0 0.64 0.32 0 0.68 0.32 0 0.72 0.32 0 0.76 0.32 0 0.8 0.32 0 0.84 0.32 0 0.88 0.32 0 0.92 0.32 0 0.96 0.32 0 1 0.32 0 1.04 0.32 0 1.08 0.32 0 1.12 0.32 0 1.16 0.32 0 1.2 0.32 0 0 0.36 0 0.04 0.36 0 0.08 0.36 0 0.12 0.36 0 0.16 0.36 0 0.2 0.36 0 0.24 0.36 0 0.28 0.36 0 0.32 0.36 0 0.36 0.36 0 0.4 0.36 0 0.44 0.36 0 0.48 0.36 0 0.52 0.36 0 0.56 0.36 0 0.6 0.36 0 0.64 0.36 0 0.68 0.36 0 0.72 0.36 0 0.76 0.36 0 0.8 0.36 0 0.84 0.36 0 0.88 0.36 0 0.92 0.36 0 0.96 0.36 0 1 0.36 0 1.04 0.36 0 1.08 0.36 0 1.12 0.36 0 1.16 0.36 0 1.2 0.36 0 0 0.4 0 0.04 0.4 0 0.08 0.4 0 0.12 0.4 0 0.16 0.4 0 0.2 0.4 0 0.24 0.4 0 0.28 0.4 0 0.32 0.4 0 0.36 0.4 0 0.4 0.4 0 0.44 0.4 0 0.48 0.4 0 0.52 0.4 0 0.56 0.4 0 0.6 0.4 0 0.64 0.4 0 0.68 0.4 0 0.72 0.4 0 0.76 0.4 0 0.8 0.4 0 0.84 0.4 0 0.88 0.4 0 0.92 0.4 0 0.96 0.4 0 1 0.4 0 1.04 0.4 0 1.08 0.4 0 1.12 0.4 0 1.16 0.4 0 1.2 0.4 0 0 0.44 0 0.04 0.44 0 0.08 0.44 0 0.12 0.44 0 0.16 0.44 0 0.2 0.44 0 0.24 0.44 0 0.28 0.44 0 0.32 0.44 0 0.36 0.44 0 0.4 0.44 0 0.44 0.44 0 0.48 0.44 0 0.52 0.44 0 0.56 0.44 0 0.6 0.44 0 0.64 0.44 0 0.68 0.44 0 0.72 0.44 0 0.76 0.44 0 0.8 0.44 0 0.84 0.44 0 0.88 0.44 0 0.92 0.44 0 0.96 0.44 0 1 0.44 0 1.04 0.44 0 1.08 0.44 0 1.12 0.44 0 1.16 0.44 0 1.2 0.44 0 0 0.48 0 0.04 0.48 0 0.08 0.48 0 0.12 0.48 0 0.16 0.48 0 0.2 0.48 0 0.24 0.48 0 0.28 0.48 0 0.32 0.48 0 0.36 0.48 0 0.4 0.48 0 0.44 0.48 0 0.48 0.48 0 0.52 0.48 0 0.56 0.48 0 0.6 0.48 0 0.64 0.48 0 0.68 0.48 0 0.72 0.48 0 0.76 0.48 0 0.8 0.48 0 0.84 0.48 0 0.88 0.48 0 0.92 0.48 0 0.96 0.48 0 1 0.48 0 1.04 0.48 0 1.08 0.48 0 1.12 0.48 0 1.16 0.48 0 1.2 0.48 0 0 0.52 0 0.04 0.52 0 0.08 0.52 0 0.12 0.52 0 0.16 0.52 0 0.2 0.52 0 0.24 0.52 0 0.28 0.52 0 0.32 0.52 0 0.36 0.52 0 0.4 0.52 0 0.44 0.52 0 0.48 0.52 0 0.52 0.52 0 0.56 0.52 0 0.6 0.52 0 0.64 0.52 0 0.68 0.52 0 0.72 0.52 0 0.76 0.52 0 0.8 0.52 0 0.84 0.52 0 0.88 0.52 0 0.92 0.52 0 0.96 0.52 0 1 0.52 0 1.04 0.52 0 1.08 0.52 0 1.12 0.52 0 1.16 0.52 0 1.2 0.52 0 0 0.56 0 0.04 0.56 0 0.08 0.56 0 0.12 0.56 0 0.16 0.56 0 0.2 0.56 0 0.24 0.56 0 0.28 0.56 0 0.32 0.56 0 0.36 0.56 0 0.4 0.56 0 0.44 0.56 0 0.48 0.56 0 0.52 0.56 0 0.56 0.56 0 0.6 0.56 0 0.64 0.56 0 0.68 0.56 0 0.72 0.56 0 0.76 0.56 0 0.8 0.56 0 0.84 0.56 0 0.88 0.56 0 0.92 0.56 0 0.96 0.56 0 1 0.56 0 1.04 0.56 0 1.08 0.56 0 1.12 0.56 0 1.16 0.56 0 1.2 0.56 0 0 0.6 0 0.04 0.6 0 0.08 0.6 0 0.12 0.6 0 0.16 0.6 0 0.2 0.6 0 0.24 0.6 0 0.28 0.6 0 0.32 0.6 0 0.36 0.6 0 0.4 0.6 0 0.44 0.6 0 0.48 0.6 0 0.52 0.6 0 0.56 0.6 0 0.6 0.6 0 0.64 0.6 0 0.68 0.6 0 0.72 0.6 0 0.76 0.6 0 0.8 0.6 0 0.84 0.6 0 0.88 0.6 0 0.92 0.6 0 0.96 0.6 0 1 0.6 0 1.04 0.6 0 1.08 0.6 0 1.12 0.6 0 1.16 0.6 0 1.2 0.6 0 0 0.64 0 0.04 0.64 0 0.08 0.64 0 0.12 0.64 0 0.16 0.64 0 0.2 0.64 0 0.24 0.64 0 0.28 0.64 0 0.32 0.64 0 0.36 0.64 0 0.4 0.64 0 0.44 0.64 0 0.48 0.64 0 0.52 0.64 0 0.56 0.64 0 0.6 0.64 0 0.64 0.64 0 0.68 0.64 0 0.72 0.64 0 0.76 0.64 0 0.8 0.64 0 0.84 0.64 0 0.88 0.64 0 0.92 0.64 0 0.96 0.64 0 1 0.64 0 1.04 0.64 0 1.08 0.64 0 1.12 0.64 0 1.16 0.64 0 1.2 0.64 0 0 0.68 0 0.04 0.68 0 0.08 0.68 0 0.12 0.68 0 0.16 0.68 0 0.2 0.68 0 0.24 0.68 0 0.28 0.68 0 0.32 0.68 0 0.36 0.68 0 0.4 0.68 0 0.44 0.68 0 0.48 0.68 0 0.52 0.68 0 0.56 0.68 0 0.6 0.68 0 0.64 0.68 0 0.68 0.68 0 0.72 0.68 0 0.76 0.68 0 0.8 0.68 0 0.84 0.68 0 0.88 0.68 0 0.92 0.68 0 0.96 0.68 0 1 0.68 0 1.04 0.68 0 1.08 0.68 0 1.12 0.68 0 1.16 0.68 0 1.2 0.68 0 0 0.72 0 0.04 0.72 0 0.08 0.72 0 0.12 0.72 0 0.16 0.72 0 0.2 0.72 0 0.24 0.72 0 0.28 0.72 0 0.32 0.72 0 0.36 0.72 0 0.4 0.72 0 0.44 0.72 0 0.48 0.72 0 0.52 0.72 0 0.56 0.72 0 0.6 0.72 0 0.64 0.72 0 0.68 0.72 0 0.72 0.72 0 0.76 0.72 0 0.8 0.72 0 0.84 0.72 0 0.88 0.72 0 0.92 0.72 0 0.96 0.72 0 1 0.72 0 1.04 0.72 0 1.08 0.72 0 1.12 0.72 0 1.16 0.72 0 1.2 0.72 0 0 0.76 0 0.04 0.76 0 0.08 0.76 0 0.12 0.76 0 0.16 0.76 0 0.2 0.76 0 0.24 0.76 0 0.28 0.76 0 0.32 0.76 0 0.36 0.76 0 0.4 0.76 0 0.44 0.76 0 0.48 0.76 0 0.52 0.76 0 0.56 0.76 0 0.6 0.76 0 0.64 0.76 0 0.68 0.76 0 0.72 0.76 0 0.76 0.76 0 0.8 0.76 0 0.84 0.76 0 0.88 0.76 0 0.92 0.76 0 0.96 0.76 0 1 0.76 0 1.04 0.76 0 1.08 0.76 0 1.12 0.76 0 1.16 0.76 0 1.2 0.76 0 0 0.8 0 0.04 0.8 0 0.08 0.8 0 0.12 0.8 0 0.16 0.8 0 0.2 0.8 0 0.24 0.8 0 0.28 0.8 0 0.32 0.8 0 0.36 0.8 0 0.4 0.8 0 0.44 0.8 0 0.48 0.8 0 0.52 0.8 0 0.56 0.8 0 0.6 0.8 0 0.64 0.8 0 0.68 0.8 0 0.72 0.8 0 0.76 0.8 0 0.8 0.8 0 0.84 0.8 0 0.88 0.8 0 0.92 0.8 0 0.96 0.8 0 1 0.8 0 1.04 0.8 0 1.08 0.8 0 1.12 0.8 0 1.16 0.8 0 1.2 0.8 0 0 0.84 0 0.04 0.84 0 0.08 0.84 0 0.12 0.84 0 0.16 0.84 0 0.2 0.84 0 0.24 0.84 0 0.28 0.84 0 0.32 0.84 0 0.36 0.84 0 0.4 0.84 0 0.44 0.84 0 0.48 0.84 0 0.52 0.84 0 0.56 0.84 0 0.6 0.84 0 0.64 0.84 0 0.68 0.84 0 0.72 0.84 0 0.76 0.84 0 0.8 0.84 0 0.84 0.84 0 0.88 0.84 0 0.92 0.84 0 0.96 0.84 0 1 0.84 0 1.04 0.84 0 1.08 0.84 0 1.12 0.84 0 1.16 0.84 0 1.2 0.84 0 0 0.88 0 0.04 0.88 0 0.08 0.88 0 0.12 0.88 0 0.16 0.88 0 0.2 0.88 0 0.24 0.88 0 0.28 0.88 0 0.32 0.88 0 0.36 0.88 0 0.4 0.88 0 0.44 0.88 0 0.48 0.88 0 0.52 0.88 0 0.56 0.88 0 0.6 0.88 0 0.64 0.88 0 0.68 0.88 0 0.72 0.88 0 0.76 0.88 0 0.8 0.88 0 0.84 0.88 0 0.88 0.88 0 0.92 0.88 0 0.96 0.88 0 1 0.88 0 1.04 0.88 0 1.08 0.88 0 1.12 0.88 0 1.16 0.88 0 1.2 0.88 0 0 0.92 0 0.04 0.92 0 0.08 0.92 0 0.12 0.92 0 0.16 0.92 0 0.2 0.92 0 0.24 0.92 0 0.28 0.92 0 0.32 0.92 0 0.36 0.92 0 0.4 0.92 0 0.44 0.92 0 0.48 0.92 0 0.52 0.92 0 0.56 0.92 0 0.6 0.92 0 0.64 0.92 0 0.68 0.92 0 0.72 0.92 0 0.76 0.92 0 0.8 0.92 0 0.84 0.92 0 0.88 0.92 0 0.92 0.92 0 0.96 0.92 0 1 0.92 0 1.04 0.92 0 1.08 0.92 0 1.12 0.92 0 1.16 0.92 0 1.2 0.92 0 0 0.96 0 0.04 0.96 0 0.08 0.96 0 0.12 0.96 0 0.16 0.96 0 0.2 0.96 0 0.24 0.96 0 0.28 0.96 0 0.32 0.96 0 0.36 0.96 0 0.4 0.96 0 0.44 0.96 0 0.48 0.96 0 0.52 0.96 0 0.56 0.96 0 0.6 0.96 0 0.64 0.96 0 0.68 0.96 0 0.72 0.96 0 0.76 0.96 0 0.8 0.96 0 0.84 0.96 0 0.88 0.96 0 0.92 0.96 0 0.96 0.96 0 1 0.96 0 1.04 0.96 0 1.08 0.96 0 1.12 0.96 0 1.16 0.96 0 1.2 0.96 0 0 1 0 0.04 1 0 0.08 1 0 0.12 1 0 0.16 1 0 0.2 1 0 0.24 1 0 0.28 1 0 0.32 1 0 0.36 1 0 0.4 1 0 0.44 1 0 0.48 1 0 0.52 1 0 0.56 1 0 0.6 1 0 0.64 1 0 0.68 1 0 0.72 1 0 0.76 1 0 0.8 1 0 0.84 1 0 0.88 1 0 0.92 1 0 0.96 1 0 1 1 0 1.04 1 0 1.08 1 0 1.12 1 0 1.16 1 0 1.2 1 0 0 1.04 0 0.04 1.04 0 0.08 1.04 0 0.12 1.04 0 0.16 1.04 0 0.2 1.04 0 0.24 1.04 0 0.28 1.04 0 0.32 1.04 0 0.36 1.04 0 0.4 1.04 0 0.44 1.04 0 0.48 1.04 0 0.52 1.04 0 0.56 1.04 0 0.6 1.04 0 0.64 1.04 0 0.68 1.04 0 0.72 1.04 0 0.76 1.04 0 0.8 1.04 0 0.84 1.04 0 0.88 1.04 0 0.92 1.04 0 0.96 1.04 0 1 1.04 0 1.04 1.04 0 1.08 1.04 0 1.12 1.04 0 1.16 1.04 0 1.2 1.04 0 0 1.08 0 0.04 1.08 0 0.08 1.08 0 0.12 1.08 0 0.16 1.08 0 0.2 1.08 0 0.24 1.08 0 0.28 1.08 0 0.32 1.08 0 0.36 1.08 0 0.4 1.08 0 0.44 1.08 0 0.48 1.08 0 0.52 1.08 0 0.56 1.08 0 0.6 1.08 0 0.64 1.08 0 0.68 1.08 0 0.72 1.08 0 0.76 1.08 0 0.8 1.08 0 0.84 1.08 0 0.88 1.08 0 0.92 1.08 0 0.96 1.08 0 1 1.08 0 1.04 1.08 0 1.08 1.08 0 1.12 1.08 0 1.16 1.08 0 1.2 1.08 0 0 1.12 0 
[...]
			<PointData Scalars="VitesseX">
				<DataArray Name="VitesseX" type="Float32" format="ascii">
 0 -0.0582871 -0.0983583 -0.0258048 0.115117 0.268135 0.369656 0.396575 0.361025 0.315119 0.272885 0.249418 0.253111 0.279188 0.319547 0.366008 0.413166 0.457854 0.499546 0.476775 0.226276 -0.272905 -0.620366 -0.68706 -0.590151 -0.496089 -0.401267 -0.303616 -0.203157 -0.100689 0 0 0.0596726 0.0563228 0.0926956 0.175019 0.269508 0.340316 0.340401 0.300227 0.257546 0.231889 0.224521 0.23668 0.267939 0.312007 0.360848 0.409882 0.45545 0.497234 0.475475 0.228398 -0.26829 -0.617583 -0.687091 -0.59071 -0.496697 -0.401894 -0.304151 -0.203484 -0.100806 0 0 -0.0127978 -0.0128184 -0.019793 -0.0152116 0.00800456 0.038823 0.0736956 0.100952 0.115952 0.129165 0.152362 0.187541 0.23442 0.288802 0.344806 0.398549 0.446816 0.489327 0.471142 0.234744 -0.253642 -0.608002 -0.685778 -0.591052 -0.497064 -0.402354 -0.30461 -0.203853 -0.100999 0 0 -0.0934059 -0.145276 -0.161428 -0.171102 -0.18004 -0.171618 -0.13406 -0.080524 -0.0304074 0.0167367 0.067169 0.123437 0.184018 0.248292 0.312875 0.373479 0.426603 0.4719 0.460718 0.243012 -0.229552 -0.59104 -0.682595 -0.59143 -0.497374 -0.402801 -0.305168 -0.204396 -0.10132 0 0 -0.131881 -0.199374 -0.226091 -0.243913 -0.259971 -0.261404 -0.22987 -0.176198 -0.116118 -0.0587456 -0.000610017 0.0603034 0.124 0.192163 0.262933 0.329393 0.388811 0.439391 0.439205 0.248992 -0.197077 -0.565227 -0.675839 -0.592038 -0.497767 -0.403366 -0.305927 -0.205138 -0.101771 0 0 -0.124769 -0.200637 -0.236919 -0.25545 -0.266627 -0.270721 -0.25508 -0.216138 -0.164774 -0.1067 -0.0490846 0.00844643 0.0679947 0.131017 0.199083 0.26895 0.333267 0.389011 0.402687 0.247816 -0.157172 -0.527782 -0.661982 -0.592877 -0.49825 -0.404011 -0.306807 -0.206004 -0.102255 0 0 -0.0892422 -0.153648 -0.188833 -0.198698 -0.204596 -0.214382 -0.220552 -0.211343 -0.179581 -0.13312 -0.0819277 -0.0305076 0.0214202 0.0757182 0.135459 0.200181 0.264739 0.321966 0.348656 0.234748 -0.11185 -0.474617 -0.634873 -0.593518 -0.498788 -0.404675 -0.307756 -0.206983 -0.102757 0 0 -0.0192326 -0.0371167 -0.0613787 -0.0870892 -0.109152 -0.125889 -0.142626 -0.158897 -0.160258 -0.137205 -0.100117 -0.0588984 -0.0159424 0.0283767 0.0776409 0.132982 0.191241 0.244482 0.276656 0.205927 -0.0654384 -0.401863 -0.586178 -0.590998 -0.499258 -0.405313 -0.308753 -0.208111 -0.103357 0 0 0.052394 0.0759426 0.0514526 0.00885489 -0.0332308 -0.0612548 -0.0811616 -0.10093 -0.118335 -0.122619 -0.10791 -0.0804433 -0.0481152 -0.0127459 0.0252343 0.0693346 0.11923 0.165393 0.192023 0.157638 -0.0257912 -0.309252 -0.513083 -0.571738 -0.498719 -0.405911 -0.309794 -0.209434 -0.104189 0 0 0.0646152 0.103787 0.0940878 0.0550363 0.00848862 -0.0329582 -0.0549906 -0.0694501 -0.0895994 -0.107763 -0.112522 -0.101915 -0.0789789 -0.0523169 -0.0239617 0.00890998 0.0490818 0.0872867 0.103149 0.0895319 -0.00501033 -0.2076 -0.41318 -0.51641 -0.493292 -0.406059 -0.310823 -0.210935 -0.1053 0 0 0.0603737 0.0941415 0.0856383 0.0507629 0.00677895 -0.036343 -0.0718468 -0.0898205 -0.100742 -0.116876 -0.132183 -0.134727 -0.122799 -0.100198 -0.0759848 -0.0496786 -0.0209745 0.00638689 0.0149031 0.00695344 -0.0158052 -0.116688 -0.286978 -0.419874 -0.463652 -0.403304 -0.311632 -0.212476 -0.106626 0 0 0.0438063 0.0631713 0.0507616 0.0138943 -0.031976 -0.0778658 -0.117314 -0.145883 -0.159828 -0.169233 -0.180801 -0.190693 -0.189174 -0.171658 -0.142428 -0.116425 -0.0927096 -0.0771689 -0.0729003 -0.079538 -0.0659857 -0.0643812 -0.152048 -0.290819 -0.383778 -0.386621 -0.310564 -0.213784 -0.107991 0 0 0.0175335 0.0189616 -0.00383869 -0.0465524 -0.0949653 -0.140343 -0.179988 -0.210497 -0.231942 -0.244842 -0.253798 -0.262596 -0.27035 -0.266949 -0.24503 -0.209152 -0.182285 -0.165887 -0.16049 -0.159705 -0.149179 -0.0666107 -0.0467972 -0.138485 -0.258555 -0.326641 -0.300958 -0.213819 -0.109212 0 0 -0.00944545 -0.0284332 -0.0662099 -0.115787 -0.167376 -0.212465 -0.247469 -0.27478 -0.297852 -0.318509 -0.334265 -0.346525 -0.356435 -0.362225 -0.357322 -0.336515 -0.301267 -0.275405 -0.258482 -0.239132 -0.227149 -0.121723 -0.0056814 -0.00190536 -0.102807 -0.210889 -0.257366 -0.208567 -0.109604 0 0 -0.0306679 -0.0703211 -0.120553 -0.17989 -0.235778 -0.279864 -0.310811 -0.332312 -0.350696 -0.374137 -0.402499 -0.426582 -0.444069 -0.457728 -0.465561 -0.463026 -0.447628 -0.417901 -0.378384 -0.336218 -0.28324 -0.199502 -0.0337271 0.0726358 0.0516105 -0.0566931 -0.155107 -0.177425 -0.10667 0 0 -0.0475721 -0.10039 -0.165353 -0.232404 -0.289132 -0.330272 -0.357981 -0.375895 -0.390712 -0.410298 -0.443445 -0.483481 -0.519388 -0.546814 -0.569345 -0.584473 -0.587358 -0.565352 -0.520299 -0.456441 -0.345356 -0.243523 -0.11472 0.0698742 0.150083 0.108473 -0.004035 -0.0900998 -0.0850733 0 0 -0.0594605 -0.120645 -0.181779 -0.240973 -0.293464 -0.335682 -0.367602 -0.391592 -0.410309 -0.429972 -0.460367 -0.509807 -0.563596 -0.615724 -0.659725 -0.694822 -0.711426 -0.702386 -0.658977 -0.571794 -0.437291 -0.27957 -0.166951 -0.00676621 0.170335 0.224476 0.167627 0.0535867 -0.0122631 0 0 -0.0677498 -0.126551 -0.179055 -0.228753 -0.273439 -0.311509 -0.343445 -0.371765 -0.3994 -0.427685 -0.461139 -0.506346 -0.577436 -0.650194 -0.718877 -0.777696 -0.812239 -0.817056 -0.773667 -0.669103 -0.532119 -0.353348 -0.188055 -0.0847998 0.114108 0.26463 0.292615 0.221673 0.119669 0 0 -0.0699643 -0.122101 -0.16028 -0.192767 -0.223748 -0.255685 -0.288516 -0.321716 -0.358529 -0.400089 -0.443968 -0.496555 -0.557258 -0.645087 -0.739429 -0.817943 -0.86955 -0.886898 -0.848098 -0.748283 -0.607601 -0.442551 -0.247749 -0.103454 0.0163737 0.226853 0.339108 0.332924 0.255906 0 0 -0.0622269 -0.100991 -0.120202 -0.134884 -0.151974 -0.180115 -0.219965 -0.263355 -0.308894 -0.359206 -0.41282 -0.468452 -0.536228 -0.612679 -0.701589 -0.797759 -0.873341 -0.904319 -0.880607 -0.798204 -0.667608 -0.51762 -0.341465 -0.129839 -0.0370492 0.123725 0.309254 0.345626 0.305482 0 0 -0.0341343 -0.0570282 -0.062727 -0.0652392 -0.07696 -0.107968 -0.159154 -0.221942 -0.280025 -0.330388 -0.379317 -0.432494 -0.497119 -0.569445 -0.652833 -0.736157 -0.80156 -0.838654 -0.846474 -0.812809 -0.711659 -0.576523 -0.422308 -0.235988 -0.0586714 0.0272695 0.193404 0.272938 0.259194 0 0 0.00869488 -0.000708885 -0.0123933 -0.0179764 -0.0312263 -0.0606396 -0.113816 -0.18858 -0.262704 -0.318478 -0.359803 -0.400767 -0.445391 -0.513771 -0.585516 -0.646947 -0.706205 -0.754214 -0.778015 -0.767006 -0.726705 -0.636942 -0.50509 -0.366213 -0.151574 -0.0541018 0.0329005 0.125978 0.151875 0 0 0.0241966 0.0195115 0.00931926 -0.00205588 -0.0121847 -0.0313271 -0.0753436 -0.143591 -0.220393 -0.288825 -0.343433 -0.385984 -0.413101 -0.442413 -0.497073 -0.560244 -0.606453 -0.65185 -0.693504 -0.714076 -0.709954 -0.687155 -0.608712 -0.486082 -0.354418 -0.187559 -0.127547 -0.060029 0.0278901 0 0 0.00790909 0.000696183 0.0017709 -0.00708207 -0.00398985 -0.00912215 -0.0348347 -0.077064 -0.133945 -0.203099 -0.281731 -0.353751 -0.398703 -0.414033 -0.420148 -0.452041 -0.512445 -0.564446 -0.593474 -0.639078 -0.692268 -0.71873 -0.720389 -0.646627 -0.56333 -0.405936 -0.287605 -0.215154 -0.0918421 0 0 -0.013703 -0.0178576 -0.0195418 -0.0159393 0.00116074 0.00478287 -0.00528529 -0.0156724 -0.0374947 -0.0856416 -0.162738 -0.259955 -0.348596 -0.402048 -0.411317 -0.399077 -0.407224 -0.447141 -0.510384 -0.575068 -0.637559 -0.72862 -0.801376 -0.793766 -0.711998 -0.587394 -0.426505 -0.30933 -0.189475 0 0 -0.0270216 -0.0291732 -0.0373056 -0.0291144 -0.0112454 -0.00838888 -0.00317351 0.0105002 0.0219229 0.00790505 -0.0467359 -0.132287 -0.238531 -0.336425 -0.39883 -0.409098 -0.387067 -0.370109 -0.402042 -0.479189 -0.592391 -0.722249 -0.820445 -0.843037 -0.777116 -0.66479 -0.507117 -0.359502 -0.242116 0 0 -0.0308224 -0.0455163 -0.0477211 -0.0485319 -0.0343735 -0.029967 -0.0237635 -0.00303945 0.0256729 0.0402302 0.0181327 -0.0364479 -0.117453 -0.219791 -0.321232 -0.390299 -0.40827 -0.393212 -0.374982 -0.401349 -0.530181 -0.698726 -0.80134 -0.821021 -0.76781 -0.665889 -0.53341 -0.383738 -0.253062 0 0 -0.0472393 -0.0613218 -0.0791683 -0.0667607 -0.0579521 -0.0483378 -0.0393744 -0.0195787 0.000756867 0.0100756 0.0038921 -0.014877 -0.0484511 -0.112472 -0.206404 -0.311585 -0.390996 -0.427979 -0.429526 -0.442958 -0.522313 -0.662673 -0.75499 -0.759413 -0.708374 -0.628999 -0.528905 -0.392419 -0.231029 0 0 -0.0626706 -0.131677 -0.101287 -0.0884061 -0.0725037 -0.0656051 -0.0438952 -0.0281445 -0.0137043 -0.0182659 -0.0321552 -0.0445073 -0.0529861 -0.0749362 -0.129654 -0.225245 -0.342734 -0.442838 -0.512733 -0.566159 -0.628415 -0.703118 -0.733771 -0.709507 -0.637881 -0.560887 -0.495244 -0.395819 -0.185525 0 0 -0.376869 -0.162785 -0.107155 -0.0928141 -0.0869729 -0.0659381 -0.0471815 -0.0217261 -0.0149979 -0.029379 -0.0514056 -0.0649347 -0.068624 -0.0679274 -0.0841937 -0.149448 -0.288665 -0.483144 -0.673108 -0.81095 -0.886482 -0.90631 -0.862621 -0.726695 -0.55548 -0.42202 -0.341741 -0.291445 -0.258785 0 0 0 0 0 0 0 0 0 0 0 0 0 0 0 0 0 0 0 0 0 0 0 0 0 0 0 0 0 0 0 0
				</DataArray>
				<DataArray Name="VitesseY" type="Float32" format="ascii">
 0 0 0 0 0 0 0 0 0 0 0 0 0 0 0 0 0 0 0 0 0 0 0 0 0 0 0 0 0 0 0 -0.0511279 0.0693795 -0.00629766 -0.0829882 -0.120697 -0.107159 -0.045403 0.0382309 0.0573252 0.0510453 0.0367673 0.0143164 -0.00960561 -0.0266261 -0.0355275 -0.0356809 -0.0334015 -0.0286997 -0.0231816 -0.0171417 -0.0087877 0.00178153 0.00976742 0.0124567 0.0109185 0.00837959 0.00479715 0.000572917 -0.0025596 -0.00390986 0 -0.0833946 0.0744204 0.0117306 -0.110832 -0.160143 -0.165784 -0.0685554 0.0463053 0.0820483 0.0738018 0.0464561 0.00899989 -0.0311451 -0.0621841 -0.0763951 -0.0757192 -0.0695332 -0.0586685 -0.0466198 -0.0342919 -0.0181797 0.00255634 0.0188614 0.0248095 0.0220477 0.0169964 0.00977426 0.00119049 -0.00514282 -0.00786582 0 -0.0045871 0.121474 0.0361301 -0.0925732 -0.153741 -0.166831 -0.0870136 0.0121667 0.0552074 0.0554664 0.0243827 -0.0223556 -0.0708441 -0.109178 -0.126266 -0.123184 -0.110854 -0.0918548 -0.071926 -0.0528217 -0.0296163 0.000762596 0.0262604 0.0367811 0.03353 0.0259789 0.015074 0.00202943 -0.00758137 -0.0117525 0 0.139183 0.222522 0.0740112 -0.0679768 -0.131362 -0.144665 -0.0966246 -0.0276074 0.00759239 0.0127157 -0.0172743 -0.0691139 -0.121034 -0.162922 -0.183986 -0.178385 -0.159091 -0.130924 -0.102302 -0.0762369 -0.0462774 -0.0063018 0.0301154 0.0475567 0.0453582 0.035344 0.0208644 0.0032583 -0.00975621 -0.0154227 0 0.302457 0.335478 0.124097 -0.0354439 -0.108006 -0.12128 -0.0949621 -0.0568894 -0.03605 -0.0352486 -0.0648796 -0.117148 -0.171423 -0.215692 -0.242129 -0.238282 -0.213991 -0.177298 -0.140974 -0.10884 -0.0728075 -0.0229797 0.0272468 0.0555491 0.0575419 0.0452341 0.0274402 0.00512252 -0.011552 -0.0188378 0 0.437694 0.434118 0.185531 -0.00569776 -0.0898395 -0.102915 -0.0799506 -0.0618871 -0.0596172 -0.0752324 -0.109559 -0.161385 -0.21628 -0.262851 -0.292903 -0.296331 -0.271955 -0.230294 -0.188704 -0.153063 -0.113586 -0.0546253 0.012929 0.0585556 0.0694339 0.0557361 0.0349356 0.00777525 -0.0129408 -0.0221082 0 0.511813 0.488439 0.233573 0.0255276 -0.0657962 -0.0794033 -0.0574025 -0.0420056 -0.0529355 -0.0928015 -0.141873 -0.197758 -0.25342 -0.301579 -0.334629 -0.346771 -0.327296 -0.286691 -0.242074 -0.207526 -0.1696 -0.105321 -0.0190913 0.0511394 0.0778598 0.0668115 0.0434254 0.0113981 -0.0138292 -0.025289 0 0.512563 0.474472 0.261785 0.0660109 -0.0181682 -0.043109 -0.0294154 -0.0137825 -0.0256734 -0.0817906 -0.152251 -0.220182 -0.281102 -0.331227 -0.367838 -0.386938 -0.37726 -0.341696 -0.29658 -0.265133 -0.235604 -0.174951 -0.0748067 0.0222044 0.0736245 0.0779283 0.0530407 0.0162787 -0.0139619 -0.0281949 0 0.465304 0.424698 0.268852 0.11303 0.0363386 0.0105245 0.00613403 0.0121436 0.00218455 -0.0527478 -0.139597 -0.224355 -0.297448 -0.353256 -0.393292 -0.417219 -0.41982 -0.392969 -0.352018 -0.319302 -0.299491 -0.254828 -0.155277 -0.0348416 0.0533692 0.0843042 0.0634386 0.0227168 -0.012934 -0.0304143 0 0.412286 0.372558 0.267857 0.152169 0.0909499 0.0663213 0.0545854 0.0408607 0.0253493 -0.0253894 -0.113869 -0.212364 -0.300862 -0.369657 -0.414699 -0.442481 -0.454255 -0.439399 -0.406672 -0.372113 -0.35185 -0.327212 -0.251034 -0.121589 0.0011704 0.0688463 0.0733556 0.0309518 -0.0103477 -0.0315097 0 0.363134 0.337386 0.269859 0.190919 0.143911 0.12304 0.1067 0.0832103 0.0491072 -0.00533851 -0.0905037 -0.192153 -0.292941 -0.378823 -0.439259 -0.470501 -0.484928 -0.482054 -0.457959 -0.42625 -0.396717 -0.379785 -0.338689 -0.229251 -0.0857724 0.0254849 0.0702043 0.0400937 -0.00603096 -0.0312096 0 0.33546 0.3238 0.282662 0.233284 0.2009 0.180201 0.160385 0.128198 0.0819642 0.0150667 -0.0717497 -0.174491 -0.279431 -0.379722 -0.45884 -0.50739 -0.525385 -0.524251 -0.511891 -0.478985 -0.441426 -0.419753 -0.400117 -0.330215 -0.19803 -0.0554712 0.0358062 0.045203 -0.000793884 -0.0295665 0 0.338445 0.332757 0.311258 0.285181 0.261256 0.239503 0.211045 0.170936 0.115186 0.0435189 -0.0505355 -0.158155 -0.267534 -0.373162 -0.468303 -0.539394 -0.577001 -0.584479 -0.566926 -0.540751 -0.497175 -0.448239 -0.426092 -0.398747 -0.307807 -0.166701 -0.0377339 0.0250476 0.00148956 -0.0274062 0 0.366233 0.364846 0.357727 0.346808 0.328422 0.29937 0.259186 0.20697 0.14525 0.070944 -0.0210379 -0.136016 -0.252478 -0.365822 -0.470112 -0.560484 -0.623598 -0.653299 -0.640771 -0.608634 -0.563868 -0.495385 -0.433226 -0.416455 -0.384522 -0.28313 -0.1446 -0.0373866 -0.0156743 -0.0276926 0 0.41376 0.41548 0.419376 0.42031 0.400856 0.358808 0.303177 0.238698 0.168341 0.0933814 0.00736177 -0.101498 -0.227444 -0.350719 -0.468962 -0.573282 -0.660842 -0.713356 -0.726846 -0.68649 -0.633263 -0.560541 -0.465379 -0.407628 -0.402226 -0.367485 -0.265038 -0.139884 -0.0709663 -0.046457 0 0.476884 0.479788 0.48964 0.496233 0.471635 0.416217 0.346789 0.269655 0.190478 0.111266 0.0299873 -0.064483 -0.187408 -0.324995 -0.45545 -0.580816 -0.686775 -0.763252 -0.79873 -0.771284 -0.70282 -0.61702 -0.525428 -0.421215 -0.386627 -0.392488 -0.35613 -0.262776 -0.17426 -0.113977 0 0.553281 0.551783 0.559031 0.562785 0.534716 0.470154 0.389159 0.301884 0.215499 0.132237 0.0511464 -0.0352855 -0.145702 -0.281649 -0.432491 -0.572825 -0.695933 -0.792117 -0.845157 -0.838665 -0.764871 -0.670532 -0.578263 -0.477504 -0.382819 -0.375861 -0.391046 -0.361674 -0.306001 -0.256834 0 0.63745 0.625034 0.617529 0.617272 0.584885 0.514058 0.427379 0.332961 0.243474 0.158613 0.0746867 -0.0126873 -0.115063 -0.240252 -0.392574 -0.542284 -0.680881 -0.794117 -0.858758 -0.868937 -0.805346 -0.71881 -0.621111 -0.539174 -0.421195 -0.354904 -0.383223 -0.413669 -0.422379 -0.459218 0 0.726974 0.699198 0.663503 0.652589 0.61452 0.544216 0.462208 0.365501 0.26914 0.181198 0.0937549 0.00125144 -0.0960274 -0.210278 -0.34389 -0.489827 -0.632257 -0.749358 -0.823546 -0.854518 -0.814698 -0.747876 -0.666017 -0.574267 -0.489994 -0.383093 -0.365659 -0.421634 -0.502204 -0.659564 0 0.774452 0.734883 0.667288 0.647726 0.607359 0.543561 0.473423 0.383828 0.281216 0.183388 0.0916265 0.00282698 -0.0851844 -0.181108 -0.294727 -0.424014 -0.546621 -0.65047 -0.731872 -0.778874 -0.789932 -0.745608 -0.692354 -0.620466 -0.561629 -0.465358 -0.390659 -0.436896 -0.561306 -0.805222 0 0.683584 0.641612 0.543445 0.515068 0.472337 0.418892 0.36924 0.307639 0.23049 0.155098 0.0835746 0.00505874 -0.0793875 -0.154316 -0.229854 -0.324502 -0.426095 -0.519073 -0.593973 -0.656672 -0.699135 -0.711441 -0.696371 -0.678052 -0.626797 -0.584585 -0.521535 -0.516603 -0.625753 -0.884654 0 0.306861 0.278134 0.170228 0.131512 0.0904242 0.0581183 0.044556 0.0387419 0.0327138 0.034673 0.0427196 0.0303077 -0.0186469 -0.101023 -0.16896 -0.206792 -0.264596 -0.352505 -0.436793 -0.509243 -0.57029 -0.628923 -0.676497 -0.709387 -0.721262 -0.715799 -0.693966 -0.658702 -0.701236 -0.905811 0 -0.215463 -0.215379 -0.278609 -0.30268 -0.334005 -0.339936 -0.328751 -0.302702 -0.255531 -0.183143 -0.0910246 -0.000180119 0.0506318 0.0452002 -0.0220307 -0.109463 -0.145135 -0.171268 -0.250457 -0.340994 -0.415536 -0.501614 -0.608204 -0.715858 -0.795938 -0.816921 -0.799179 -0.7531 -0.732888 -0.86308 0 -0.445515 -0.437362 -0.466771 -0.477119 -0.505216 -0.506339 -0.501617 -0.484805 -0.444014 -0.369331 -0.262084 -0.130748 0.00263287 0.0940959 0.121753 0.0836114 -0.0126309 -0.077934 -0.0882794 -0.125596 -0.241117 -0.36502 -0.481851 -0.645768 -0.793419 -0.841604 -0.81983 -0.758974 -0.709383 -0.727269 0 -0.368811 -0.369796 -0.40104 -0.414464 -0.441688 -0.455118 -0.471428 -0.47854 -0.47138 -0.440379 -0.369164 -0.263893 -0.133139 0.0136841 0.133505 0.192101 0.184975 0.108376 0.012913 -0.0312206 -0.0527168 -0.152184 -0.356906 -0.562878 -0.710723 -0.776611 -0.767554 -0.70852 -0.638155 -0.555846 0 -0.227816 -0.248776 -0.293736 -0.318247 -0.347663 -0.366011 -0.383021 -0.388443 -0.387823 -0.381249 -0.368314 -0.328237 -0.245552 -0.125273 0.025797 0.16964 0.257717 0.27803 0.22492 0.118071 0.0266085 -0.0529047 -0.187882 -0.407374 -0.588319 -0.665004 -0.665947 -0.629168 -0.561169 -0.422279 0 -0.0716479 -0.128765 -0.181291 -0.218939 -0.261381 -0.276451 -0.293245 -0.296445 -0.294917 -0.290604 -0.289965 -0.291451 -0.277635 -0.219294 -0.108369 0.0457003 0.208246 0.315794 0.349915 0.310792 0.189438 0.0299842 -0.128514 -0.288297 -0.427129 -0.507596 -0.533712 -0.529102 -0.495452 -0.341932 0 0.0557568 0.0526035 -0.0863408 -0.133218 -0.178738 -0.186437 -0.201795 -0.20402 -0.197035 -0.192068 -0.19359 -0.202117 -0.209635 -0.207484 -0.168838 -0.0706555 0.0800903 0.245625 0.345603 0.351093 0.273774 0.123791 -0.0627168 -0.216668 -0.309934 -0.359754 -0.383882 -0.392513 -0.395901 -0.291558 0 0.647003 0.100653 -0.0730326 -0.0555983 -0.0967754 -0.0893751 -0.12011 -0.101989 -0.102593 -0.0896141 -0.091869 -0.0981116 -0.107681 -0.112238 -0.111284 -0.0868787 -0.00667344 0.131984 0.266607 0.309791 0.259096 0.150138 0.0263811 -0.0927411 -0.189873 -0.242242 -0.253103 -0.231051 -0.185547 -0.258822 0 5.46517 0 0 0 0 0 0 0 0 0 0 0 0 0 0 0 0 0 0 0 0 0 0 0 0 0 0 0 0 0 0
				</DataArray>
			</PointData>
			<CellData Scalars="Density">
				<DataArray Name="Density" type="Float32" format="ascii">