<?xml version="1.0"?>
<VTKFile type="PolyData">
	<PolyData>
		<Piece NumberOfPoints="961" NumberOfPolys="900">
			<Points>
				<DataArray type="Float32" NumberOfComponents="3" format="ascii">
 0 0 0 0.04 0 0 0.08 0 0 0.12 0 0 0.16 0 0 0.2 0 0 0.24 0 0 0.28 0 0 0.32 0 0 0.36 0 0 0.4 0 0 0.44 0 0 0.48 0 0 0.52 0 0 0.56 0 0 0.6 0 0 0.64 0 0 0.68 0 0 0.72 0 0 0.76 0 0 0.8 0 0 0.84 0 0 0.88 0 0 0.92 0 0 0.96 0 0 1 0 0 1.04 0 0 1.08 0 0 1.12 0 0 1.16 0 0 1.2 0 0 0 0.04 0 0.04 0.04 0 0.08 0.04 0 0.12 0.04 0 0.16 0.04 0 0.2 0.04 0 0.24 0.04 0 0.28 0.04 0 0.32 0.04 0 0.36 0.04 0 0.4 0.04 0 0.44 0.04 0 0.48 0.04 0 0.52 0.04 0 0.56 0.04 0 0.6 0.04 0 0.64 0.04 0 0.68 0.04 0 0.72 0.04 0 0.76 0.04 0 0.8 0.04 0 0.84 0.04 0 0.88 0.04 0 0.92 0.04 0 0.96 0.04 0 1 0.04 0 1.04 0.04 0 1.08 0.04 0 1.12 0.04 0 1.16 0.04 0 1.2 0.04 0 0 0.08 0 0.04 0.08 0 0.08 0.08 0 0.12 0.08 0 0.16 0.08 0 0.2 0.08 0 0.24 0.08 0 0.28 0.08 0 0.32 0.08 0 0.36 0.08 0 0.4 0.08 0 0.44 0.08 0 0.48 0.08 0 0.52 0.08 0 0.56 0.08 0 0.6 0.08 0 0.64 0.08 0 0.68 0.08 0 0.72 0.08 0 0.76 0.08 0 0.8 0.08 0 0.84 0.08 0 0.88 0.08 0 0.92 0.08 0 0.96 0.08 0 1 0.08 0 1.04 0.08 0 1.08 0.08 0 1.12 0.08 0 1.16 0.08 0 1.2 0.08 0 0 0.12 0 0.04 0.12 0 0.08 0.12 0 0.12 0.12 0 0.16 0.12 0 0.2 0.12 0 0.24 0.12 0 0.28 0.12 0 0.32 0.12 0 0.36 0.12 0 0.4 0.12 0 0.44 0.12 0 0.48 0.12 0 0.52 0.12 0 0.56 0.12 0 0.6 0.12 0 0.64 0.12 0 0.68 0.12 0 0.72 0.12 0 0.76 0.12 0 0.8 0.12 0 0.84 0.12 0 0.88 0.12 0 0.92 0.12 0 0.96 0.12 0 1 0.12 0 1.04 0.12 0 1.08 0.12 0 1.12 0.12 0 1.16 0.12 0 1.2 0.12 0 0 0.16 0 0.04 0.16 0 0.08 0.16 0 0.12 0.16 0 0.16 0.16 0 0.2 0.16 0 0.24 0.16 0 0.28 0.16 0 0.32 0.16 0 0.36 0.16 0 0.4 0.16 0 0.44 0.16 0 0.48 0.16 0 0.52 0.16 0 0.56 0.16 0 0.6 0.16 0 0.64 0.16 0 0.68 0.16 0 0.72 0.16 0 0.76 0.16 0 0.8 0.16 0 0.84 0.16 0 0.88 0.16 0 0.92 0.16 0 0.96 0.16 0 1 0.16 0 1.04 0.16 0 1.08 0.16 0 1.12 0.16 0 1.16 0.16 0 1.2 0.16 0 0 0.2 0 0.04 0.2 0 0.08 0.2 0 0.12 0.2 0 0.16 0.2 0 0.2 0.2 0 0.24 0.2 0 0.28 0.2 0 0.32 0.2 0 0.36 0.2 0 0.4 0.2 0 0.44 0.2 0 0.48 0.2 0 0.52 0.2 0 0.56 0.2 0 0.6 0.2 0 0.64 0.2 0 0.68 0.2 0 0.72 0.2 0 0.76 0.2 0 0.8 0.2 0 0.84 0.2 0 0.88 0.2 0 0.92 0.2 0 0.96 0.2 0 1 0.2 0 1.04 0.2 0 1.08 0.2 0 1.12 0.2 0 1.16 0.2 0 1.2 0.2 0 0 0.24 0 0.04 0.24 0 0.08 0.24 0 0.12 0.24 0 0.16 0.24 0 0.2 0.24 0 0.24 0.24 0 0.28 0.24 0 0.32 0.24 0 0.36 0.24 0 0.4 0.24 0 0.44 0.24 0 0.48 0.24 0 0.52 0.24 0 0.56 0.24 0 0.6 0.24 0 0.64 0.24 0 0.68 0.24 0 0.72 0.24 0 0.76 0.24 0 0.8 0.24 0 0.84 0.24 0 0.88 0.24 0 0.92 0.24 0 0.96 0.24 0 1 0.24 0 1.04 0.24 0 1.08 0.24 0 1.12 0.24 0 1.16 0.24 0 1.2 0.24 0 0 0.28 0 0.04 0.28 0 0.08 0.28 0 0.12 0.28 0 0.16 0.28 0 0.2 0.28 0 0.24 0.28 0 0.28 0.28 0 0.32 0.28 0 0.36 0.28 0 0.4 0.28 0 0.44 0.28 0 0.48 0.28 0 0.52 0.28 0 0.56 0.28 0 0.6 0.28 0 0.64 0.28 0 0.68 0.28 0 0.72 0.28 0 0.76 0.28 0 0.8 0.28 0 0.84 0.28 0 0.88 0.28 0 0.92 0.28 0 0.96 0.28 0 1 0.28 0 1.04 0.28 0 1.08 0.28 0 1.12 0.28 0 1.16 0.28 0 1.2 0.28 0 0 0.32 0 0.04 0.32 0 0.08 0.32 0 0.12 0.32 0 0.16 0.32 0 0.2 0.32 0 0.24 0.32 0 0.28 0.32 0 0.32 0.32 0 0.36 0.32 0 0.4 0.32 0 0.44 0.32 0 0.48 0.32 0 0.52 0.32 0 0.56 0.32 0 0.6 0.32 0 0.64 0.32 0 0.68 0.32 0 0.72 0.32 0 0.76 0.32 0 0.8 0.32 0 0.84 0.32 0 0.88 0.32 0 0.92 0.32 0 0.96 0.32 0 1 0.32 0 1.04 0.32 0 1.08 0.32 0 1.12 0.32 0 1.16 0.32 0 1.2 0.32 0 0 0.36 0 0.04 0.36 0 0.08 0.36 0 0.12 0.36 0 0.16 0.36 0 0.2 0.36 0 0.24 0.36 0 0.28 0.36 0 0.32 0.36 0 0.36 0.36 0 0.4 0.36 0 0.44 0.36 0 0.48 0.36 0 0.52 0.36 0 0.56 0.36 0 0.6 0.36 0 0.64 0.36 0 0.68 0.36 0 0.72 0.36 0 0.76 0.36 0 0.8 0.36 0 0.84 0.36 0 0.88 0.36 0 0.92 0.36 0 0.96 0.36 0 1 0.36 0 1.04 0.36 0 1.08 0.36 0 1.12 0.36 0 1.16 0.36 0 1.2 0.36 0 0 0.4 0 0.04 0.4 0 0.08 0.4 0 0.12 0.4 0 0.16 0.4 0 0.2 0.4 0 0.24 0.4 0 0.28 0.4 0 0.32 0.4 0 0.36 0.4 0 0.4 0.4 0 0.44 0.4 0 0.48 0.4 0 0.52 0.4 0 0.56 0.4 0 0.6 0.4 0 0.64 0.4 0 0.68 0.4 0 0.72 0.4 0 0.76 0.4 0 0.8 0.4 0 0.84 0.4 0 0.88 0.4 0 0.92 0.4 0 0.96 0.4 0 1 0.4 0 1.04 0.4 0 1.08 0.4 0 1.12 0.4 0 1.16 0.4 0 1.2 0.4 0 0 0.44 0 0.04 0.44 0 0.08 0.44 0 0.12 0.44 0 0.16 0.44 0 0.2 0.44 0 0.24 0.44 0 0.28 0.44 0 0.32 0.44 0 0.36 0.44 0 0.4 0.44 0 0.44 0.44 0 0.48 0.44 0 0.52 0.44 0 0.56 0.44 0 0.6 0.44 0 0.64 0.44 0 0.68 0.44 0 0.72 0.44 0 0.76 0.44 0 0.8 0.44 0 0.84 0.44 0 0.88 0.44 0 0.92 0.44 0 0.96 0.44 0 1 0.44 0 1.04 0.44 0 1.08 0.44 0 1.12 0.44 0 1.16 0.44 0 1.2 0.44 0 0 0.48 0 0.04 0.48 0 0.08 0.48 0 0.12 0.48 0 0.16 0.48 0 0.2 0.48 0 0.24 0.48 0 0.28 0.48 0 0.32 0.48 0 0.36 0.48 0 0.4 0.48 0 0.44 0.48 0 0.48 0.48 0 0.52 0.48 0 0.56 0.48 0 0.6 0.48 0 0.64 0.48 0 0.68 0.48 0 0.72 0.48 0 0.76 0.48 0 0.8 0.48 0 0.84 0.48 0 0.88 0.48 0 0.92 0.48 0 0.96 0.48 0 1 0.48 0 1.04 0.48 0 1.08 0.48 0 1.12 0.48 0 1.16 0.48 0 1.2 0.48 0 0 0.52 0 0.04 0.52 0 0.08 0.52 0 0.12 0.52 0 0.16 0.52 0 0.2 0.52 0 0.24 0.52 0 0.28 0.52 0 0.32 0.52 0 0.36 0.52 0 0.4 0.52 0 0.44 0.52 0 0.48 0.52 0 0.52 0.52 0 0.56 0.52 0 0.6 0.52 0 0.64 0.52 0 0.68 0.52 0 0.72 0.52 0 0.76 0.52 0 0.8 0.52 0 0.84 0.52 0 0.88 0.52 0 0.92 0.52 0 0.96 0.52 0 1 0.52 0 1.04 0.52 0 1.08 0.52 0 1.12 0.52 0 1.16 0.52 0 1.2 0.52 0 0 0.56 0 0.04 0.56 0 0.08 0.56 0 0.12 0.56 0 0.16 0.56 0 0.2 0.56 0 0.24 0.56 0 0.28 0.56 0 0.32 0.56 0 0.36 0.56 0 0.4 0.56 0 0.44 0.56 0 0.48 0.56 0 0.52 0.56 0 0.56 0.56 0 0.6 0.56 0 0.64 0.56 0 0.68 0.56 0 0.72 0.56 0 0.76 0.56 0 0.8 0.56 0 0.84 0.56 0 0.88 0.56 0 0.92 0.56 0 0.96 0.56 0 1 0.56 0 1.04 0.56 0 1.08 0.56 0 1.12 0.56 0 1.16 0.56 0 1.2 0.56 0 0 0.6 0 0.04 0.6 0 0.08 0.6 0 0.12 0.6 0 0.16 0.6 0 0.2 0.6 0 0.24 0.6 0 0.28 0.6 0 0.32 0.6 0 0.36 0.6 0 0.4 0.6 0 0.44 0.6 0 0.48 0.6 0 0.52 0.6 0 0.56 0.6 0 0.6 0.6 0 0.64 0.6 0 0.68 0.6 0 0.72 0.6 0 0.76 0.6 0 0.8 0.6 0 0.84 0.6 0 0.88 0.6 0 0.92 0.6 0 0.96 0.6 0 1 0.6 0 1.04 0.6 0 1.08 0.6 0 1.12 0.6 0 1.16 0.6 0 1.2 0.6 0 0 0.64 0 0.04 0.64 0 0.08 0.64 0 0.12 0.64 0 0.16 0.64 0 0.2 0.64 0 0.24 0.64 0 0.28 0.64 0 0.32 0.64 0 0.36 0.64 0 0.4 0.64 0 0.44 0.64 0 0.48 0.64 0 0.52 0.64 0 0.56 0.64 0 0.6 0.64 0 0.64 0.64 0 0.68 0.64 0 0.72 0.64 0 0.76 0.64 0 0.8 0.64 0 0.84 0.64 0 0.88 0.64 0 0.92 0.64 0 0.96 0.64 0 1 0.64 0 1.04 0.64 0 1.08 0.64 0 1.12 0.64 0 1.16 0.64 0 1.2 0.64 0 0 0.68 0 0.04 0.68 0 0.08 0.68 0 0.12 0.68 0 0.16 0.68 0 0.2 0.68 0 0.24 0.68 0 0.28 0.68 0 0.32 0.68 0 0.36 0.68 0 0.4 0.68 0 0.44 0.68 0 0.48 0.68 0 0.52 0.68 0 0.56 0.68 0 0.6 0.68 0 0.64 0.68 0 0.68 0.68 0 0.72 0.68 0 0.76 0.68 0 0.8 0.68 0 0.84 0.68 0 0.88 0.68 0 0.92 0.68 0 0.96 0.68 0 1 0.68 0 1.04 0.68 0 1.08 0.68 0 1.12 0.68 0 1.16 0.68 0 1.2 0.68 0 0 0.72 0 0.04 0.72 0 0.08 0.72 0 0.12 0.72 0 0.16 0.72 0 0.2 0.72 0 0.24 0.72 0 0.28 0.72 0 0.32 0.72 0 0.36 0.72 0 0.4 0.72 0 0.44 0.72 0 0.48 0.72 0 0.52 0.72 0 0.56 0.72 0 0.6 0.72 0 0.64 0.72 0 0.68 0.72 0 0.72 0.72 0 0.76 0.72 0 0.8 0.72 0 0.84 0.72 0 0.88 0.72 0 0.92 0.72 0 0.96 0.72 0 1 0.72 0 1.04 0.72 0 1.08 0.72 0 1.12 0.72 0 1.16 0.72 0 1.2 0.72 0 0 0.76 0 0.04 0.76 0 0.08 0.76 0 0.12 0.76 0 0.16 0.76 0 0.2 0.76 0 0.24 0.76 0 0.28 0.76 0 0.32 0.76 0 0.36 0.76 0 0.4 0.76 0 0.44 0.76 0 0.48 0.76 0 0.52 0.76 0 0.56 0.76 0 0.6 0.76 0 0.64 0.76 0 0.68 0.76 0 0.72 0.76 0 0.76 0.76 0 0.8 0.76 0 0.84 0.76 0 0.88 0.76 0 0.92 0.76 0 0.96 0.76 0 1 0.76 0 1.04 0.76 0 1.08 0.76 0 1.12 0.76 0 1.16 0.76 0 1.2 0.76 0 0 0.8 0 0.04 0.8 0 0.08 0.8 0 0.12 0.8 0 0.16 0.8 0 0.2 0.8 0 0.24 0.8 0 0.28 0.8 0 0.32 0.8 0 0.36 0.8 0 0.4 0.8 0 0.44 0.8 0 0.48 0.8 0 0.52 0.8 0 0.56 0.8 0 0.6 0.8 0 0.64 0.8 0 0.68 0.8 0 0.72 0.8 0 0.76 0.8 0 0.8 0.8 0 0.84 0.8 0 0.88 0.8 0 0.92 0.8 0 0.96 0.8 0 1 0.8 0 1.04 0.8 0 1.08 0.8 0 1.12 0.8 0 1.16 0.8 0 1.2 0.8 0 0 0.84 0 0.04 0.84 0 0.08 0.84 0 0.12 0.84 0 0.16 0.84 0 0.2 0.84 0 0.24 0.84 0 0.28 0.84 0 0.32 0.84 0 0.36 0.84 0 0.4 0.84 0 0.44 0.84 0 0.48 0.84 0 0.52 0.84 0 0.56 0.84 0 0.6 0.84 0 0.64 0.84 0 0.68 0.84 0 0.72 0.84 0 0.76 0.84 0 0.8 0.84 0 0.84 0.84 0 0.88 0.84 0 0.92 0.84 0 0.96 0.84 0 1 0.84 0 1.04 0.84 0 1.08 0.84 0 1.12 0.84 0 1.16 0.84 0 1.2 0.84 0 0 0.88 0 0.04 0.88 0 0.08 0.88 0 0.12 0.88 0 0.16 0.88 0 0.2 0.88 0 0.24 0.88 0 0.28 0.88 0 0.32 0.88 0 0.36 0.88 0 0.4 0.88 0 0.44 0.88 0 0.48 0.88 0 0.52 0.88 0 0.56 0.88 0 0.6 0.88 0 0.64 0.88 0 0.68 0.88 0 0.72 0.88 0 0.76 0.88 0 0.8 0.88 0 0.84 0.88 0 0.88 0.88 0 0.92 0.88 0 0.96 0.88 0 1 0.88 0 1.04 0.88 0 1.08 0.88 0 1.12 0.88 0 1.16 0.88 0 1.2 0.88 0 0 0.92 0 0.04 0.92 0 0.08 0.92 0 0.12 0.92 0 0.16 0.92 0 0.2 0.92 0 0.24 0.92 0 0.28 0.92 0 0.32 0.92 0 0.36 0.92 0 0.4 0.92 0 0.44 0.92 0 0.48 0.92 0 0.52 0.92 0 0.56 0.92 0 0.6 0.92 0 0.64 0.92 0 0.68 0.92 0 0.72 0.92 0 0.76 0.92 0 0.8 0.92 0 0.84 0.92 0 0.88 0.92 0 0.92 0.92 0 0.96 0.92 0 1 0.92 0 1.04 0.92 0 1.08 0.92 0 1.12 0.92 0 1.16 0.92 0 1.2 0.92 0 0 0.96 0 0.04 0.96 0 0.08 0.96 0 0.12 0.96 0 0.16 0.96 0 0.2 0.96 0 0.24 0.96 0 0.28 0.96 0 0.32 0.96 0 0.36 0.96 0 0.4 0.96 0 0.44 0.96 0 0.48 0.96 0 0.52 0.96 0 0.56 0.96 0 0.6 0.96 0 0.64 0.96 0 0.68 0.96 0 0.72 0.96 0 0.76 0.96 0 0.8 0.96 0 0.84 0.96 0 0.88 0.96 0 0.92 0.96 0 0.96 0.96 0 1 0.96 0 1.04 0.96 0 1.08 0.96 0 1.12 0.96 0 1.16 0.96 0 1.2 0.96 0 0 1 0 0.04 1 0 0.08 1 0 0.12 1 0 0.16 1 0 0.2 1 0 0.24 1 0 0.28 1 0 0.32 1 0 0.36 1 0 0.4 1 0 0.44 1 0 0.48 1 0 0.52 1 0 0.56 1 0 0.6 1 0 0.64 1 0 0.68 1 0 0.72 1 0 0.76 1 0 0.8 1 0 0.84 1 0 0.88 1 0 0.92 1 0 0.96 1 0 1 1 0 1.04 1 0 1.08 1 0 1.12 1 0 1.16 1 0 1.2 1 0 0 1.04 0 0.04 1.04 0 0.08 1.04 0 0.12 1.04 0 0.16 1.04 0 0.2 1.04 0 0.24 1.04 0 0.28 1.04 0 0.32 1.04 0 0.36 1.04 0 0.4 1.04 0 0.44 1.04 0 0.48 1.04 0 0.52 1.04 0 0.56 1.04 0 0.6 1.04 0 0.64 1.04 0 0.68 1.04 0 0.72 1.04 0 0.76 1.04 0 0.8 1.04 0 0.84 1.04 0 0.88 1.04 0 0.92 1.04 0 0.96 1.04 0 1 1.04 0 1.04 1.04 0 1.08 1.04 0 1.12 1.04 0 1.16 1.04 0 1.2 1.04 0 0 1.08 0 0.04 1.08 0 0.08 1.08 0 0.12 1.08 0 0.16 1.08 0 0.2 1.08 0 0.24 1.08 0 0.28 1.08 0 0.32 1.08 0 0.36 1.08 0 0.4 1.08 0 0.44 1.08 0 0.48 1.08 0 0.52 1.08 0 0.56 1.08 0 0.6 1.08 0 0.64 1.08 0 0.68 1.08 0 0.72 1.08 0 0.76 1.08 0 0.8 1.08 0 0.84 1.08 0 0.88 1.08 0 0.92 1.08 0 0.96 1.08 0 1 1.08 0 1.04 1.08 0 1.08 1.08 0 1.12 1.08 0 1.16 1.08 0 1.2 1.08 0 0 1.12 0 
[...]
			<PointData Scalars="VitesseX">
				<DataArray Name="VitesseX" type="Float32" format="ascii">
 0 -0.0409996 -0.0740231 -0.00794509 0.12352 0.265175 0.356897 0.403657 0.390773 0.363224 0.339969 0.325341 0.333122 0.360704 0.406755 0.466716 0.531443 0.596773 0.661818 0.724848 0.784651 0.841043 0.892334 0.93719 0.987846 1.01514 0.992925 0.850001 0.520342 0.154115 0 0 0.0600729 0.0745275 0.121791 0.20132 0.286338 0.362884 0.370323 0.340114 0.304556 0.285151 0.287012 0.303296 0.337667 0.390051 0.454466 0.522956 0.591021 0.658417 0.722729 0.782758 0.838571 0.889227 0.93371 0.984225 1.01176 0.989969 0.847939 0.519812 0.154617 0 0 0.0118534 0.019393 0.0247996 0.0356208 0.0646043 0.0919458 0.123995 0.146999 0.163991 0.177217 0.196675 0.230811 0.280402 0.346239 0.422026 0.499015 0.573502 0.645982 0.713349 0.774297 0.82946 0.879386 0.923625 0.974456 1.00324 0.983002 0.843823 0.519857 0.156934 0 0 -0.058415 -0.085542 -0.0915974 -0.0950251 -0.101268 -0.100708 -0.0814177 -0.0326248 0.0119029 0.0545414 0.101046 0.155939 0.219769 0.291749 0.372213 0.455768 0.537185 0.615386 0.687209 0.750708 0.807381 0.858506 0.904102 0.956913 0.98879 0.971752 0.838302 0.522186 0.162778 0 0 -0.100135 -0.142428 -0.154163 -0.167198 -0.1792 -0.181063 -0.151482 -0.106936 -0.0543879 -0.00506875 0.0500313 0.109542 0.173792 0.242416 0.317063 0.398313 0.481225 0.562446 0.63824 0.705428 0.766329 0.821333 0.870614 0.927823 0.965238 0.953494 0.830006 0.527821 0.174667 0 0 -0.101321 -0.151073 -0.172698 -0.180079 -0.185088 -0.175442 -0.153743 -0.116535 -0.0726716 -0.0201255 0.0336545 0.0910011 0.149913 0.210359 0.27528 0.347197 0.422295 0.497905 0.572304 0.641617 0.706808 0.766168 0.820295 0.883309 0.927783 0.923161 0.814995 0.53662 0.196269 0 0 -0.0838291 -0.134493 -0.144737 -0.134218 -0.116735 -0.112075 -0.102486 -0.0848728 -0.0499924 -0.00469323 0.0446293 0.0948186 0.147396 0.198755 0.251601 0.310464 0.374416 0.439884 0.505486 0.569645 0.6342 0.695304 0.753661 0.821289 0.870362 0.872907 0.785116 0.54483 0.231659 0 0 -0.0407775 -0.07483 -0.078006 -0.0472428 -0.0158742 0.00388989 0.00186404 0.000125675 0.0119784 0.039855 0.0777418 0.119509 0.161178 0.203178 0.244238 0.289167 0.339673 0.393755 0.448864 0.504563 0.560467 0.617004 0.676083 0.741956 0.788249 0.794544 0.72855 0.541729 0.280796 0 0 0.023221 0.0330779 0.0373767 0.0582846 0.0780985 0.103157 0.120839 0.114174 0.105682 0.109792 0.127922 0.154956 0.185318 0.216502 0.246174 0.27822 0.316179 0.358858 0.403785 0.451023 0.496716 0.545031 0.599564 0.649969 0.685268 0.686887 0.636613 0.509387 0.32611 0 0 0.0798445 0.137535 0.153354 0.152551 0.155074 0.163768 0.181766 0.197203 0.192687 0.179018 0.17348 0.181152 0.198096 0.219914 0.244131 0.267455 0.295832 0.329346 0.366376 0.406781 0.446124 0.487912 0.531685 0.56437 0.577993 0.564665 0.515129 0.43266 0.331353 0 0 0.0878737 0.158966 0.184311 0.182418 0.176931 0.174536 0.180876 0.192715 0.201873 0.20122 0.192538 0.18468 0.186473 0.197642 0.217834 0.241911 0.266615 0.295746 0.329053 0.364991 0.402503 0.440156 0.472273 0.488839 0.479432 0.441106 0.37878 0.317334 0.280708 0 0 0.0850544 0.151821 0.178642 0.177882 0.168396 0.159252 0.155428 0.159432 0.16543 0.166435 0.158933 0.146158 0.134382 0.135823 0.150194 0.176258 0.207916 0.242077 0.278402 0.315793 0.354627 0.388558 0.411468 0.411155 0.380693 0.315158 0.239284 0.185704 0.191584 0 0 0.0741581 0.127777 0.152408 0.149369 0.134479 0.117468 0.103881 0.0979218 0.0966711 0.0941291 0.0869102 0.0720349 0.055874 0.043654 0.0457808 0.065529 0.101593 0.145722 0.192106 0.238084 0.2803 0.313245 0.32584 0.31191 0.262972 0.182761 0.107321 0.0673435 0.0935448 0 0 0.053763 0.0921341 0.10738 0.0974402 0.0763677 0.0541789 0.0353944 0.0221664 0.0127787 0.00299709 -0.0114842 -0.0280226 -0.0480422 -0.0665501 -0.077313 -0.0703639 -0.0421909 0.00342056 0.0573859 0.110774 0.156637 0.187101 0.192443 0.166354 0.109887 0.0405761 -0.0133774 -0.0268516 0.00623184 0 0 0.0305661 0.0512568 0.050922 0.0313521 0.00408325 -0.0206623 -0.0388881 -0.0529686 -0.069201 -0.0906439 -0.115256 -0.143234 -0.17385 -0.202423 -0.219444 -0.220628 -0.20304 -0.167021 -0.119413 -0.0706005 -0.0296507 -0.00633301 -0.00742076 -0.0359305 -0.0794282 -0.11227 -0.120224 -0.0965195 -0.0696292 0 0 0.00847447 0.00653574 -0.0126692 -0.0454473 -0.079205 -0.102598 -0.113065 -0.120324 -0.13662 -0.167926 -0.209032 -0.255893 -0.305398 -0.348451 -0.378183 -0.388542 -0.382011 -0.362777 -0.337242 -0.310486 -0.289576 -0.278041 -0.277688 -0.285143 -0.284084 -0.255684 -0.205238 -0.147938 -0.125817 0 0 -0.0137585 -0.0387056 -0.0795846 -0.126342 -0.162211 -0.178402 -0.181761 -0.183033 -0.195914 -0.22807 -0.281357 -0.351272 -0.421278 -0.482428 -0.527631 -0.55529 -0.565309 -0.567235 -0.568924 -0.572485 -0.571314 -0.559077 -0.539387 -0.508397 -0.449164 -0.365168 -0.270111 -0.190645 -0.153195 0 0 -0.0300723 -0.0708392 -0.122517 -0.1718 -0.203086 -0.216695 -0.220119 -0.223379 -0.240036 -0.272652 -0.331378 -0.417793 -0.50905 -0.587259 -0.647442 -0.687539 -0.710808 -0.730878 -0.758211 -0.780888 -0.788108 -0.771861 -0.727955 -0.654607 -0.551608 -0.436591 -0.320253 -0.222783 -0.158171 0 0 -0.0407678 -0.0880874 -0.139899 -0.182513 -0.209479 -0.221708 -0.225175 -0.230263 -0.253241 -0.293846 -0.361653 -0.45673 -0.561619 -0.655296 -0.728094 -0.774729 -0.807947 -0.850853 -0.897647 -0.927543 -0.933536 -0.903162 -0.831544 -0.72669 -0.604797 -0.476124 -0.349998 -0.239387 -0.152059 0 0 -0.0481494 -0.0963944 -0.141479 -0.179151 -0.203767 -0.214403 -0.216879 -0.221139 -0.244638 -0.289282 -0.365478 -0.473212 -0.586515 -0.688969 -0.769684 -0.823683 -0.874785 -0.939207 -0.993128 -1.01984 -1.01729 -0.961331 -0.872233 -0.752375 -0.623237 -0.490298 -0.360882 -0.242869 -0.140302 0 0 -0.0537201 -0.0995662 -0.136594 -0.165485 -0.184384 -0.192874 -0.194505 -0.197459 -0.220817 -0.271034 -0.354466 -0.469875 -0.592124 -0.700628 -0.784548 -0.849306 -0.923111 -0.997166 -1.05044 -1.07285 -1.04982 -0.977148 -0.87901 -0.754936 -0.624615 -0.491322 -0.361454 -0.239039 -0.128628 0 0 -0.0588664 -0.0986671 -0.123544 -0.138876 -0.149083 -0.155782 -0.158636 -0.161863 -0.185213 -0.238097 -0.330269 -0.45837 -0.588199 -0.702041 -0.788892 -0.863729 -0.947243 -1.02267 -1.07464 -1.08914 -1.05142 -0.97233 -0.866248 -0.745241 -0.617162 -0.486091 -0.356304 -0.232342 -0.121501 0 0 -0.0602246 -0.0928843 -0.101844 -0.101095 -0.100402 -0.105918 -0.115296 -0.127853 -0.155844 -0.212623 -0.309277 -0.448919 -0.59077 -0.707934 -0.793419 -0.868582 -0.951677 -1.0177 -1.04482 -1.03374 -0.997746 -0.928752 -0.838802 -0.725689 -0.603304 -0.477017 -0.350821 -0.229845 -0.120262 0 0 -0.0560097 -0.0787737 -0.0711831 -0.0555345 -0.0450204 -0.0509226 -0.0726369 -0.101723 -0.139806 -0.203304 -0.307999 -0.456155 -0.608637 -0.730095 -0.807005 -0.85921 -0.909107 -0.940404 -0.948088 -0.936968 -0.910637 -0.865134 -0.79571 -0.70257 -0.590939 -0.47113 -0.349764 -0.232654 -0.125164 0 0 -0.04086 -0.0527806 -0.0338691 -0.012185 -0.00368919 -0.0161335 -0.0465507 -0.0884344 -0.138862 -0.209746 -0.327662 -0.49198 -0.652524 -0.769172 -0.832904 -0.860908 -0.872352 -0.875192 -0.867287 -0.851081 -0.828354 -0.792581 -0.741946 -0.671482 -0.580112 -0.469577 -0.353657 -0.241045 -0.134004 0 0 -0.0160442 -0.0134423 0.00559048 0.0238904 0.0216623 -0.000701787 -0.0418772 -0.0919818 -0.153211 -0.243405 -0.386289 -0.572366 -0.736146 -0.83493 -0.875071 -0.873677 -0.83875 -0.819179 -0.801015 -0.780184 -0.756451 -0.725982 -0.685119 -0.632162 -0.560514 -0.469605 -0.363445 -0.253589 -0.136922 0 0 0.0159079 0.0281492 0.0452553 0.0527527 0.0365773 0.000208628 -0.0504938 -0.117925 -0.204648 -0.326596 -0.4966 -0.695089 -0.84461 -0.914553 -0.93046 -0.882949 -0.821847 -0.783391 -0.752087 -0.722909 -0.693615 -0.663788 -0.630111 -0.587616 -0.534723 -0.462624 -0.370225 -0.261264 -0.138338 0 0 0.0452721 0.0858258 0.094027 0.0693969 0.0427459 -0.00614154 -0.0805611 -0.183062 -0.315281 -0.474233 -0.662521 -0.840665 -0.947726 -0.983415 -0.976908 -0.897901 -0.823696 -0.765671 -0.715771 -0.673265 -0.636677 -0.605084 -0.575264 -0.540098 -0.495809 -0.445755 -0.368637 -0.262401 -0.151184 0 0 0.240949 0.196062 0.090753 0.0856363 0.0453369 -0.025675 -0.133003 -0.285318 -0.475679 -0.684754 -0.877073 -1.01088 -1.07292 -1.08798 -1.05324 -0.95208 -0.847029 -0.757699 -0.682892 -0.623998 -0.578454 -0.543016 -0.510681 -0.473544 -0.431996 -0.384542 -0.327863 -0.27112 -0.133106 0 0 -0.249462 -0.00400782 0.131965 0.1081 0.0502249 -0.0319775 -0.161145 -0.352222 -0.596108 -0.844556 -1.05066 -1.18158 -1.23603 -1.23237 -1.13074 -0.964805 -0.808771 -0.679267 -0.577588 -0.501547 -0.4448 -0.40218 -0.365376 -0.324944 -0.278651 -0.235631 -0.205929 -0.174297 -0.14909 0 0 0 0 0 0 0 0 0 0 0 0 0 0 0 0 0 0 0 0 0 0 0 0 0 0 0 0 0 0 0 0
				</DataArray>
				<DataArray Name="VitesseY" type="Float32" format="ascii">
 0 0 0 0 0 0 0 0 0 0 0 0 0 0 0 0 0 0 0 0 0 0 0 0 0 0 0 0 0 0 0 -0.0179567 0.0835144 0.0196559 -0.0484112 -0.0780599 -0.0640657 -0.0196968 0.0498142 0.0774126 0.0695197 0.0568251 0.0393391 0.0200739 0.00170404 -0.0158542 -0.0239232 -0.0255781 -0.0251851 -0.0239847 -0.0218243 -0.0189548 -0.0156757 -0.0128445 -0.0104493 -0.00813758 -0.00712577 -0.00753776 -0.00896689 -0.00933055 -0.00739864 0 -0.0357402 0.113935 0.0518428 -0.0487044 -0.0836034 -0.0879948 -0.0151339 0.0901017 0.128456 0.120865 0.095123 0.0632141 0.0287849 -0.00740239 -0.0404637 -0.0549304 -0.0564079 -0.0549179 -0.051074 -0.0451622 -0.0378794 -0.0305878 -0.0252382 -0.0210024 -0.0171117 -0.0158849 -0.0170635 -0.0203532 -0.0207387 -0.0157966 0 0.0330687 0.176136 0.0936503 -0.00545486 -0.0498783 -0.060057 0.0133268 0.094512 0.13621 0.135216 0.108321 0.0667793 0.0193057 -0.0287817 -0.0738437 -0.0933684 -0.0949468 -0.0912902 -0.0833094 -0.0716986 -0.0576992 -0.0460979 -0.0382356 -0.0328169 -0.0284993 -0.0281985 -0.030635 -0.0362231 -0.0361781 -0.026426 0 0.174043 0.277835 0.145625 0.0446014 0.000712787 -0.00834419 0.0469353 0.0958169 0.125257 0.132309 0.101979 0.0537836 -0.0010297 -0.0546054 -0.106367 -0.133813 -0.137837 -0.133298 -0.121084 -0.102752 -0.0813488 -0.0650175 -0.0544253 -0.0481659 -0.0447817 -0.046151 -0.0510875 -0.0597895 -0.0588727 -0.0418218 0 0.347166 0.390063 0.209466 0.098103 0.0514511 0.0416194 0.0725525 0.102207 0.119754 0.123631 0.0903728 0.0371448 -0.0214382 -0.0789131 -0.131868 -0.168931 -0.178198 -0.174369 -0.160465 -0.137654 -0.110521 -0.0893419 -0.0761272 -0.069111 -0.0682677 -0.0718828 -0.0818342 -0.0962465 -0.095054 -0.0679491 0 0.501464 0.504713 0.278995 0.144051 0.0859167 0.0776566 0.104978 0.120329 0.12834 0.116619 0.0789587 0.0233965 -0.0380484 -0.0985596 -0.150863 -0.194429 -0.211396 -0.209003 -0.195681 -0.171569 -0.142085 -0.118305 -0.103292 -0.0968195 -0.098212 -0.106185 -0.125951 -0.152539 -0.155522 -0.118357 0 0.608434 0.605927 0.346079 0.173732 0.0977325 0.099459 0.140148 0.158323 0.153585 0.122594 0.0753505 0.0138326 -0.0498234 -0.111674 -0.165143 -0.210314 -0.236425 -0.236962 -0.225623 -0.201764 -0.171078 -0.147976 -0.133774 -0.128948 -0.131474 -0.147143 -0.184057 -0.234034 -0.254347 -0.217209 0 0.666189 0.649036 0.41044 0.191063 0.111218 0.116123 0.159176 0.202203 0.195032 0.151748 0.0853639 0.0143867 -0.0562475 -0.120151 -0.175957 -0.22196 -0.255466 -0.262821 -0.253747 -0.231377 -0.199611 -0.176747 -0.16511 -0.161012 -0.16677 -0.193803 -0.25248 -0.33794 -0.400109 -0.388199 0 0.662413 0.632654 0.442056 0.221904 0.141814 0.143821 0.176235 0.226085 0.235702 0.193807 0.117271 0.0284708 -0.0543269 -0.126675 -0.188416 -0.237663 -0.278398 -0.296538 -0.291658 -0.272701 -0.240842 -0.213873 -0.200787 -0.19981 -0.211282 -0.250533 -0.331199 -0.453021 -0.583574 -0.628041 0 0.622655 0.587421 0.441004 0.263685 0.183852 0.183939 0.207057 0.244658 0.259708 0.229176 0.153236 0.054999 -0.0436052 -0.130845 -0.205927 -0.265957 -0.30987 -0.338459 -0.341415 -0.329178 -0.302301 -0.273208 -0.259671 -0.259796 -0.279059 -0.332581 -0.432299 -0.581379 -0.7736 -0.893163 0 0.58144 0.538004 0.434734 0.299463 0.231054 0.230214 0.247348 0.273099 0.280621 0.250976 0.179494 0.0807456 -0.0267515 -0.131963 -0.223856 -0.300238 -0.356723 -0.394652 -0.410895 -0.406102 -0.388752 -0.363687 -0.352568 -0.35932 -0.392186 -0.461982 -0.576071 -0.737122 -0.945536 -1.11296 0 0.539369 0.503265 0.431125 0.333012 0.281362 0.281542 0.295961 0.309595 0.30672 0.270887 0.198741 0.0990785 -0.0120776 -0.126949 -0.239548 -0.33951 -0.421299 -0.474864 -0.503946 -0.509583 -0.502142 -0.488541 -0.485819 -0.50202 -0.550535 -0.638324 -0.755269 -0.892997 -1.06285 -1.24168 0 0.508578 0.488703 0.436077 0.369824 0.33736 0.338595 0.349943 0.353351 0.337244 0.293381 0.215055 0.112458 -0.0012718 -0.124128 -0.252946 -0.377813 -0.484279 -0.561432 -0.603522 -0.619523 -0.618823 -0.615328 -0.621913 -0.648547 -0.702984 -0.790873 -0.890787 -0.984177 -1.10945 -1.28433 0 0.503633 0.492493 0.456096 0.417158 0.399892 0.401286 0.405964 0.397132 0.371346 0.318812 0.234509 0.127411 0.00844188 -0.124036 -0.265663 -0.407768 -0.534962 -0.631878 -0.690869 -0.716278 -0.72248 -0.724068 -0.733889 -0.762153 -0.807642 -0.873174 -0.944537 -1.00738 -1.10982 -1.25968 0 0.523636 0.517198 0.496275 0.478842 0.471653 0.468133 0.458001 0.435855 0.401012 0.346102 0.262071 0.150701 0.0239123 -0.118069 -0.270115 -0.426283 -0.569827 -0.682042 -0.754869 -0.790047 -0.801426 -0.806322 -0.814799 -0.831773 -0.859894 -0.900076 -0.948562 -0.98447 -1.05805 -1.14097 0 0.565828 0.564628 0.559611 0.558123 0.55252 0.534363 0.502527 0.465401 0.423728 0.369453 0.293586 0.186012 0.0509425 -0.097798 -0.25902 -0.427288 -0.587123 -0.712741 -0.792578 -0.836398 -0.860303 -0.87534 -0.881515 -0.873241 -0.873824 -0.879912 -0.881577 -0.893652 -0.950008 -0.966666 0 0.627181 0.631655 0.642339 0.650685 0.636576 0.594657 0.543409 0.4921 0.442486 0.389137 0.322381 0.226535 0.0941454 -0.0614611 -0.229048 -0.411336 -0.588106 -0.726016 -0.816805 -0.879955 -0.926312 -0.949458 -0.954001 -0.907987 -0.867925 -0.829882 -0.811276 -0.812476 -0.83817 -0.80392 0 0.702461 0.712059 0.734475 0.745723 0.71508 0.652611 0.58381 0.520341 0.464226 0.410833 0.349997 0.266935 0.145579 -0.00854787 -0.184266 -0.382159 -0.579814 -0.735939 -0.851186 -0.936101 -0.991837 -1.01659 -1.00848 -0.928399 -0.860961 -0.804513 -0.768706 -0.752158 -0.746923 -0.671731 0 0.788462 0.799837 0.827891 0.833871 0.790096 0.708741 0.624378 0.549816 0.487915 0.434262 0.379542 0.307719 0.199148 0.0518188 -0.128694 -0.347082 -0.572758 -0.755022 -0.88994 -0.983185 -1.03876 -1.06137 -1.02959 -0.932694 -0.851772 -0.786115 -0.738222 -0.703499 -0.672799 -0.569733 0 0.884428 0.892393 0.914688 0.914679 0.85987 0.763082 0.664476 0.579149 0.511868 0.459621 0.409916 0.347961 0.252335 0.112142 -0.072768 -0.312142 -0.568533 -0.771611 -0.91486 -1.00641 -1.05884 -1.07428 -1.01791 -0.922316 -0.837706 -0.768088 -0.711914 -0.663628 -0.615715 -0.494831 0 0.99044 0.98607 0.994308 0.98441 0.920272 0.813832 0.705196 0.610215 0.537807 0.48593 0.441603 0.388094 0.30144 0.166193 -0.0241104 -0.283153 -0.562407 -0.776175 -0.918537 -1.00227 -1.03719 -1.03987 -0.98595 -0.899079 -0.818005 -0.747364 -0.685856 -0.629894 -0.572403 -0.439727 0 1.10476 1.07936 1.06127 1.03805 0.966952 0.858476 0.749458 0.64775 0.567997 0.51478 0.474899 0.426509 0.343232 0.206681 0.00844076 -0.264855 -0.547239 -0.758589 -0.891488 -0.952335 -0.968407 -0.964733 -0.921104 -0.857875 -0.786026 -0.719963 -0.658278 -0.600027 -0.538512 -0.398375 0 1.22154 1.16982 1.11456 1.07581 0.99908 0.897211 0.799096 0.697574 0.611653 0.553648 0.509242 0.455926 0.368167 0.225815 0.0175797 -0.260829 -0.526392 -0.718666 -0.825756 -0.867286 -0.875224 -0.862708 -0.834833 -0.791451 -0.738158 -0.681555 -0.626751 -0.571993 -0.507822 -0.36295 0 1.32532 1.25836 1.153 1.09729 1.02236 0.934147 0.851742 0.760358 0.669687 0.597599 0.537416 0.468853 0.366468 0.212879 -0.00126018 -0.266221 -0.499892 -0.65192 -0.725379 -0.751851 -0.754297 -0.743799 -0.72389 -0.700764 -0.669307 -0.630188 -0.58602 -0.538523 -0.472043 -0.323641 0 1.41096 1.32954 1.1792 1.11077 1.04622 0.978196 0.914166 0.835404 0.731398 0.633543 0.547146 0.455338 0.333282 0.16577 -0.0445352 -0.268255 -0.445376 -0.552459 -0.606516 -0.624566 -0.62564 -0.617473 -0.602749 -0.59036 -0.579385 -0.559917 -0.533904 -0.495134 -0.43136 -0.277966 0 1.44123 1.35799 1.20065 1.13108 1.08446 1.03617 0.979318 0.898965 0.781783 0.651391 0.529777 0.405046 0.260356 0.0949829 -0.0833211 -0.246377 -0.365762 -0.439468 -0.479047 -0.492497 -0.493171 -0.487226 -0.477461 -0.471244 -0.469578 -0.469368 -0.462435 -0.445472 -0.384343 -0.235373 0 1.38173 1.30325 1.17229 1.13184 1.10012 1.05937 1.00704 0.926616 0.796551 0.637043 0.476925 0.320043 0.169713 0.0273275 -0.100862 -0.200728 -0.272269 -0.324167 -0.353729 -0.363637 -0.363597 -0.357653 -0.351723 -0.350367 -0.353848 -0.363409 -0.370184 -0.368671 -0.327874 -0.205947 0 1.00172 1.10124 1.132 1.08596 1.02413 0.998496 0.948971 0.872792 0.743754 0.572357 0.394051 0.230379 0.0974913 -0.00649331 -0.0872569 -0.146195 -0.191386 -0.225206 -0.242077 -0.245228 -0.240854 -0.233607 -0.230807 -0.233304 -0.241376 -0.253747 -0.261318 -0.26242 -0.271183 -0.174398 0 0.897246 0.553174 0.924824 0.706831 0.717185 0.698797 0.66205 0.623367 0.542221 0.431097 0.304053 0.190528 0.0918468 0.00582079 -0.0685279 -0.123509 -0.151949 -0.157753 -0.152169 -0.141139 -0.129809 -0.122646 -0.121166 -0.125631 -0.134254 -0.137046 -0.138377 -0.151229 -0.133127 -0.149149 0 5.55674 0 0 0 0 0 0 0 0 0 0 0 0 0 0 0 0 0 0 0 0 0 0 0 0 0 0 0 0 0 0
				</DataArray>
			</PointData>
			<CellData Scalars="Density">
				<DataArray Name="Density" type="Float32" format="ascii">