<?xml version="1.0"?>
<VTKFile type="PolyData">
	<PolyData>
		<Piece NumberOfPoints="961" NumberOfPolys="900">
			<Points>
				<DataArray type="Float32" NumberOfComponents="3" format="ascii">
 0 0 0 0.04 0 0 0.08 0 0 0.12 0 0 0.16 0 0 0.2 0 0 0.24 0 0 0.28 0 0 0.32 0 0 0.36 0 0 0.4 0 0 0.44 0 0 0.48 0 0 0.52 0 0 0.56 0 0 0.6 0 0 0.64 0 0 0.68 0 0 0.72 0 0 0.76 0 0 0.8 0 0 0.84 0 0 0.88 0 0 0.92 0 0 0.96 0 0 1 0 0 1.04 0 0 1.08 0 0 1.12 0 0 1.16 0 0 1.2 0 0 0 0.04 0 0.04 0.04 0 0.08 0.04 0 0.12 0.04 0 0.16 0.04 0 0.2 0.04 0 0.24 0.04 0 0.28 0.04 0 0.32 0.04 0 0.36 0.04 0 0.4 0.04 0 0.44 0.04 0 0.48 0.04 0 0.52 0.04 0 0.56 0.04 0 0.6 0.04 0 0.64 0.04 0 0.68 0.04 0 0.72 0.04 0 0.76 0.04 0 0.8 0.04 0 0.84 0.04 0 0.88 0.04 0 0.92 0.04 0 0.96 0.04 0 1 0.04 0 1.04 0.04 0 1.08 0.04 0 1.12 0.04 0 1.16 0.04 0 1.2 0.04 0 0 0.08 0 0.04 0.08 0 0.08 0.08 0 0.12 0.08 0 0.16 0.08 0 0.2 0.08 0 0.24 0.08 0 0.28 0.08 0 0.32 0.08 0 0.36 0.08 0 0.4 0.08 0 0.44 0.08 0 0.48 0.08 0 0.52 0.08 0 0.56 0.08 0 0.6 0.08 0 0.64 0.08 0 0.68 0.08 0 0.72 0.08 0 0.76 0.08 0 0.8 0.08 0 0.84 0.08 0 0.88 0.08 0 0.92 0.08 0 0.96 0.08 0 1 0.08 0 1.04 0.08 0 1.08 0.08 0 1.12 0.08 0 1.16 0.08 0 1.2 0.08 0 0 0.12 0 0.04 0.12 0 0.08 0.12 0 0.12 0.12 0 0.16 0.12 0 0.2 0.12 0 0.24 0.12 0 0.28 0.12 0 0.32 0.12 0 0.36 0.12 0 0.4 0.12 0 0.44 0.12 0 0.48 0.12 0 0.52 0.12 0 0.56 0.12 0 0.6 0.12 0 0.64 0.12 0 0.68 0.12 0 0.72 0.12 0 0.76 0.12 0 0.8 0.12 0 0.84 0.12 0 0.88 0.12 0 0.92 0.12 0 0.96 0.12 0 1 0.12 0 1.04 0.12 0 1.08 0.12 0 1.12 0.12 0 1.16 0.12 0 1.2 0.12 0 0 0.16 0 0.04 0.16 0 0.08 0.16 0 0.12 0.16 0 0.16 0.16 0 0.2 0.16 0 0.24 0.16 0 0.28 0.16 0 0.32 0.16 0 0.36 0.16 0 0.4 0.16 0 0.44 0.16 0 0.48 0.16 0 0.52 0.16 0 0.56 0.16 0 0.6 0.16 0 0.64 0.16 0 0.68 0.16 0 0.72 0.16 0 0.76 0.16 0 0.8 0.16 0 0.84 0.16 0 0.88 0.16 0 0.92 0.16 0 0.96 0.16 0 1 0.16 0 1.04 0.16 0 1.08 0.16 0 1.12 0.16 0 1.16 0.16 0 1.2 0.16 0 0 0.2 0 0.04 0.2 0 0.08 0.2 0 0.12 0.2 0 0.16 0.2 0 0.2 0.2 0 0.24 0.2 0 0.28 0.2 0 0.32 0.2 0 0.36 0.2 0 0.4 0.2 0 0.44 0.2 0 0.48 0.2 0 0.52 0.2 0 0.56 0.2 0 0.6 0.2 0 0.64 0.2 0 0.68 0.2 0 0.72 0.2 0 0.76 0.2 0 0.8 0.2 0 0.84 0.2 0 0.88 0.2 0 0.92 0.2 0 0.96 0.2 0 1 0.2 0 1.04 0.2 0 1.08 0.2 0 1.12 0.2 0 1.16 0.2 0 1.2 0.2 0 0 0.24 0 0.04 0.24 0 0.08 0.24 0 0.12 0.24 0 0.16 0.24 0 0.2 0.24 0 0.24 0.24 0 0.28 0.24 0 0.32 0.24 0 0.36 0.24 0 0.4 0.24 0 0.44 0.24 0 0.48 0.24 0 0.52 0.24 0 0.56 0.24 0 0.6 0.24 0 0.64 0.24 0 0.68 0.24 0 0.72 0.24 0 0.76 0.24 0 0.8 0.24 0 0.84 0.24 0 0.88 0.24 0 0.92 0.24 0 0.96 0.24 0 1 0.24 0 1.04 0.24 0 1.08 0.24 0 1.12 0.24 0 1.16 0.24 0 1.2 0.24 0 0 0.28 0 0.04 0.28 0 0.08 0.28 0 0.12 0.28 0 0.16 0.28 0 0.2 0.28 0 0.24 0.28 0 0.28 0.28 0 0.32 0.28 0 0.36 0.28 0 0.4 0.28 0 0.44 0.28 0 0.48 0.28 0 0.52 0.28 0 0.56 0.28 0 0.6 0.28 0 0.64 0.28 0 0.68 0.28 0 0.72 0.28 0 0.76 0.28 0 0.8 0.28 0 0.84 0.28 0 0.88 0.28 0 0.92 0.28 0 0.96 0.28 0 1 0.28 0 1.04 0.28 0 1.08 0.28 0 1.12 0.28 0 1.16 0.28 0 1.2 0.28 0 0 0.32 0 0.04 0.32 0 0.08 0.32 0 0.12 0.32 0 0.16 0.32 0 0.2 0.32 0 0.24 0.32 0 0.28 0.32 0 0.32 0.32 0 0.36 0.32 0 0.4 0.32 0 0.44 0.32 0 0.48 0.32 0 0.52 0.32 0 0.56 0.32 0 0.6 0.32 0 0.64 0.32 0 0.68 0.32 0 0.72 0.32 0 0.76 0.32 0 0.8 0.32 0 0.84 0.32 0 0.88 0.32 0 0.92 0.32 0 0.96 0.32 0 1 0.32 0 1.04 0.32 0 1.08 0.32 0 1.12 0.32 0 1.16 0.32 0 1.2 0.32 0 0 0.36 0 0.04 0.36 0 0.08 0.36 0 0.12 0.36 0 0.16 0.36 0 0.2 0.36 0 0.24 0.36 0 0.28 0.36 0 0.32 0.36 0 0.36 0.36 0 0.4 0.36 0 0.44 0.36 0 0.48 0.36 0 0.52 0.36 0 0.56 0.36 0 0.6 0.36 0 0.64 0.36 0 0.68 0.36 0 0.72 0.36 0 0.76 0.36 0 0.8 0.36 0 0.84 0.36 0 0.88 0.36 0 0.92 0.36 0 0.96 0.36 0 1 0.36 0 1.04 0.36 0 1.08 0.36 0 1.12 0.36 0 1.16 0.36 0 1.2 0.36 0 0 0.4 0 0.04 0.4 0 0.08 0.4 0 0.12 0.4 0 0.16 0.4 0 0.2 0.4 0 0.24 0.4 0 0.28 0.4 0 0.32 0.4 0 0.36 0.4 0 0.4 0.4 0 0.44 0.4 0 0.48 0.4 0 0.52 0.4 0 0.56 0.4 0 0.6 0.4 0 0.64 0.4 0 0.68 0.4 0 0.72 0.4 0 0.76 0.4 0 0.8 0.4 0 0.84 0.4 0 0.88 0.4 0 0.92 0.4 0 0.96 0.4 0 1 0.4 0 1.04 0.4 0 1.08 0.4 0 1.12 0.4 0 1.16 0.4 0 1.2 0.4 0 0 0.44 0 0.04 0.44 0 0.08 0.44 0 0.12 0.44 0 0.16 0.44 0 0.2 0.44 0 0.24 0.44 0 0.28 0.44 0 0.32 0.44 0 0.36 0.44 0 0.4 0.44 0 0.44 0.44 0 0.48 0.44 0 0.52 0.44 0 0.56 0.44 0 0.6 0.44 0 0.64 0.44 0 0.68 0.44 0 0.72 0.44 0 0.76 0.44 0 0.8 0.44 0 0.84 0.44 0 0.88 0.44 0 0.92 0.44 0 0.96 0.44 0 1 0.44 0 1.04 0.44 0 1.08 0.44 0 1.12 0.44 0 1.16 0.44 0 1.2 0.44 0 0 0.48 0 0.04 0.48 0 0.08 0.48 0 0.12 0.48 0 0.16 0.48 0 0.2 0.48 0 0.24 0.48 0 0.28 0.48 0 0.32 0.48 0 0.36 0.48 0 0.4 0.48 0 0.44 0.48 0 0.48 0.48 0 0.52 0.48 0 0.56 0.48 0 0.6 0.48 0 0.64 0.48 0 0.68 0.48 0 0.72 0.48 0 0.76 0.48 0 0.8 0.48 0 0.84 0.48 0 0.88 0.48 0 0.92 0.48 0 0.96 0.48 0 1 0.48 0 1.04 0.48 0 1.08 0.48 0 1.12 0.48 0 1.16 0.48 0 1.2 0.48 0 0 0.52 0 0.04 0.52 0 0.08 0.52 0 0.12 0.52 0 0.16 0.52 0 0.2 0.52 0 0.24 0.52 0 0.28 0.52 0 0.32 0.52 0 0.36 0.52 0 0.4 0.52 0 0.44 0.52 0 0.48 0.52 0 0.52 0.52 0 0.56 0.52 0 0.6 0.52 0 0.64 0.52 0 0.68 0.52 0 0.72 0.52 0 0.76 0.52 0 0.8 0.52 0 0.84 0.52 0 0.88 0.52 0 0.92 0.52 0 0.96 0.52 0 1 0.52 0 1.04 0.52 0 1.08 0.52 0 1.12 0.52 0 1.16 0.52 0 1.2 0.52 0 0 0.56 0 0.04 0.56 0 0.08 0.56 0 0.12 0.56 0 0.16 0.56 0 0.2 0.56 0 0.24 0.56 0 0.28 0.56 0 0.32 0.56 0 0.36 0.56 0 0.4 0.56 0 0.44 0.56 0 0.48 0.56 0 0.52 0.56 0 0.56 0.56 0 0.6 0.56 0 0.64 0.56 0 0.68 0.56 0 0.72 0.56 0 0.76 0.56 0 0.8 0.56 0 0.84 0.56 0 0.88 0.56 0 0.92 0.56 0 0.96 0.56 0 1 0.56 0 1.04 0.56 0 1.08 0.56 0 1.12 0.56 0 1.16 0.56 0 1.2 0.56 0 0 0.6 0 0.04 0.6 0 0.08 0.6 0 0.12 0.6 0 0.16 0.6 0 0.2 0.6 0 0.24 0.6 0 0.28 0.6 0 0.32 0.6 0 0.36 0.6 0 0.4 0.6 0 0.44 0.6 0 0.48 0.6 0 0.52 0.6 0 0.56 0.6 0 0.6 0.6 0 0.64 0.6 0 0.68 0.6 0 0.72 0.6 0 0.76 0.6 0 0.8 0.6 0 0.84 0.6 0 0.88 0.6 0 0.92 0.6 0 0.96 0.6 0 1 0.6 0 1.04 0.6 0 1.08 0.6 0 1.12 0.6 0 1.16 0.6 0 1.2 0.6 0 0 0.64 0 0.04 0.64 0 0.08 0.64 0 0.12 0.64 0 0.16 0.64 0 0.2 0.64 0 0.24 0.64 0 0.28 0.64 0 0.32 0.64 0 0.36 0.64 0 0.4 0.64 0 0.44 0.64 0 0.48 0.64 0 0.52 0.64 0 0.56 0.64 0 0.6 0.64 0 0.64 0.64 0 0.68 0.64 0 0.72 0.64 0 0.76 0.64 0 0.8 0.64 0 0.84 0.64 0 0.88 0.64 0 0.92 0.64 0 0.96 0.64 0 1 0.64 0 1.04 0.64 0 1.08 0.64 0 1.12 0.64 0 1.16 0.64 0 1.2 0.64 0 0 0.68 0 0.04 0.68 0 0.08 0.68 0 0.12 0.68 0 0.16 0.68 0 0.2 0.68 0 0.24 0.68 0 0.28 0.68 0 0.32 0.68 0 0.36 0.68 0 0.4 0.68 0 0.44 0.68 0 0.48 0.68 0 0.52 0.68 0 0.56 0.68 0 0.6 0.68 0 0.64 0.68 0 0.68 0.68 0 0.72 0.68 0 0.76 0.68 0 0.8 0.68 0 0.84 0.68 0 0.88 0.68 0 0.92 0.68 0 0.96 0.68 0 1 0.68 0 1.04 0.68 0 1.08 0.68 0 1.12 0.68 0 1.16 0.68 0 1.2 0.68 0 0 0.72 0 0.04 0.72 0 0.08 0.72 0 0.12 0.72 0 0.16 0.72 0 0.2 0.72 0 0.24 0.72 0 0.28 0.72 0 0.32 0.72 0 0.36 0.72 0 0.4 0.72 0 0.44 0.72 0 0.48 0.72 0 0.52 0.72 0 0.56 0.72 0 0.6 0.72 0 0.64 0.72 0 0.68 0.72 0 0.72 0.72 0 0.76 0.72 0 0.8 0.72 0 0.84 0.72 0 0.88 0.72 0 0.92 0.72 0 0.96 0.72 0 1 0.72 0 1.04 0.72 0 1.08 0.72 0 1.12 0.72 0 1.16 0.72 0 1.2 0.72 0 0 0.76 0 0.04 0.76 0 0.08 0.76 0 0.12 0.76 0 0.16 0.76 0 0.2 0.76 0 0.24 0.76 0 0.28 0.76 0 0.32 0.76 0 0.36 0.76 0 0.4 0.76 0 0.44 0.76 0 0.48 0.76 0 0.52 0.76 0 0.56 0.76 0 0.6 0.76 0 0.64 0.76 0 0.68 0.76 0 0.72 0.76 0 0.76 0.76 0 0.8 0.76 0 0.84 0.76 0 0.88 0.76 0 0.92 0.76 0 0.96 0.76 0 1 0.76 0 1.04 0.76 0 1.08 0.76 0 1.12 0.76 0 1.16 0.76 0 1.2 0.76 0 0 0.8 0 0.04 0.8 0 0.08 0.8 0 0.12 0.8 0 0.16 0.8 0 0.2 0.8 0 0.24 0.8 0 0.28 0.8 0 0.32 0.8 0 0.36 0.8 0 0.4 0.8 0 0.44 0.8 0 0.48 0.8 0 0.52 0.8 0 0.56 0.8 0 0.6 0.8 0 0.64 0.8 0 0.68 0.8 0 0.72 0.8 0 0.76 0.8 0 0.8 0.8 0 0.84 0.8 0 0.88 0.8 0 0.92 0.8 0 0.96 0.8 0 1 0.8 0 1.04 0.8 0 1.08 0.8 0 1.12 0.8 0 1.16 0.8 0 1.2 0.8 0 0 0.84 0 0.04 0.84 0 0.08 0.84 0 0.12 0.84 0 0.16 0.84 0 0.2 0.84 0 0.24 0.84 0 0.28 0.84 0 0.32 0.84 0 0.36 0.84 0 0.4 0.84 0 0.44 0.84 0 0.48 0.84 0 0.52 0.84 0 0.56 0.84 0 0.6 0.84 0 0.64 0.84 0 0.68 0.84 0 0.72 0.84 0 0.76 0.84 0 0.8 0.84 0 0.84 0.84 0 0.88 0.84 0 0.92 0.84 0 0.96 0.84 0 1 0.84 0 1.04 0.84 0 1.08 0.84 0 1.12 0.84 0 1.16 0.84 0 1.2 0.84 0 0 0.88 0 0.04 0.88 0 0.08 0.88 0 0.12 0.88 0 0.16 0.88 0 0.2 0.88 0 0.24 0.88 0 0.28 0.88 0 0.32 0.88 0 0.36 0.88 0 0.4 0.88 0 0.44 0.88 0 0.48 0.88 0 0.52 0.88 0 0.56 0.88 0 0.6 0.88 0 0.64 0.88 0 0.68 0.88 0 0.72 0.88 0 0.76 0.88 0 0.8 0.88 0 0.84 0.88 0 0.88 0.88 0 0.92 0.88 0 0.96 0.88 0 1 0.88 0 1.04 0.88 0 1.08 0.88 0 1.12 0.88 0 1.16 0.88 0 1.2 0.88 0 0 0.92 0 0.04 0.92 0 0.08 0.92 0 0.12 0.92 0 0.16 0.92 0 0.2 0.92 0 0.24 0.92 0 0.28 0.92 0 0.32 0.92 0 0.36 0.92 0 0.4 0.92 0 0.44 0.92 0 0.48 0.92 0 0.52 0.92 0 0.56 0.92 0 0.6 0.92 0 0.64 0.92 0 0.68 0.92 0 0.72 0.92 0 0.76 0.92 0 0.8 0.92 0 0.84 0.92 0 0.88 0.92 0 0.92 0.92 0 0.96 0.92 0 1 0.92 0 1.04 0.92 0 1.08 0.92 0 1.12 0.92 0 1.16 0.92 0 1.2 0.92 0 0 0.96 0 0.04 0.96 0 0.08 0.96 0 0.12 0.96 0 0.16 0.96 0 0.2 0.96 0 0.24 0.96 0 0.28 0.96 0 0.32 0.96 0 0.36 0.96 0 0.4 0.96 0 0.44 0.96 0 0.48 0.96 0 0.52 0.96 0 0.56 0.96 0 0.6 0.96 0 0.64 0.96 0 0.68 0.96 0 0.72 0.96 0 0.76 0.96 0 0.8 0.96 0 0.84 0.96 0 0.88 0.96 0 0.92 0.96 0 0.96 0.96 0 1 0.96 0 1.04 0.96 0 1.08 0.96 0 1.12 0.96 0 1.16 0.96 0 1.2 0.96 0 0 1 0 0.04 1 0 0.08 1 0 0.12 1 0 0.16 1 0 0.2 1 0 0.24 1 0 0.28 1 0 0.32 1 0 0.36 1 0 0.4 1 0 0.44 1 0 0.48 1 0 0.52 1 0 0.56 1 0 0.6 1 0 0.64 1 0 0.68 1 0 0.72 1 0 0.76 1 0 0.8 1 0 0.84 1 0 0.88 1 0 0.92 1 0 0.96 1 0 1 1 0 1.04 1 0 1.08 1 0 1.12 1 0 1.16 1 0 1.2 1 0 0 1.04 0 0.04 1.04 0 0.08 1.04 0 0.12 1.04 0 0.16 1.04 0 0.2 1.04 0 0.24 1.04 0 0.28 1.04 0 0.32 1.04 0 0.36 1.04 0 0.4 1.04 0 0.44 1.04 0 0.48 1.04 0 0.52 1.04 0 0.56 1.04 0 0.6 1.04 0 0.64 1.04 0 0.68 1.04 0 0.72 1.04 0 0.76 1.04 0 0.8 1.04 0 0.84 1.04 0 0.88 1.04 0 0.92 1.04 0 0.96 1.04 0 1 1.04 0 1.04 1.04 0 1.08 1.04 0 1.12 1.04 0 1.16 1.04 0 1.2 1.04 0 0 1.08 0 0.04 1.08 0 0.08 1.08 0 0.12 1.08 0 0.16 1.08 0 0.2 1.08 0 0.24 1.08 0 0.28 1.08 0 0.32 1.08 0 0.36 1.08 0 0.4 1.08 0 0.44 1.08 0 0.48 1.08 0 0.52 1.08 0 0.56 1.08 0 0.6 1.08 0 0.64 1.08 0 0.68 1.08 0 0.72 1.08 0 0.76 1.08 0 0.8 1.08 0 0.84 1.08 0 0.88 1.08 0 0.92 1.08 0 0.96 1.08 0 1 1.08 0 1.04 1.08 0 1.08 1.08 0 1.12 1.08 0 1.16 1.08 0 1.2 1.08 0 0 1.12 0 
[...]
			<PointData Scalars="VitesseX">
				<DataArray Name="VitesseX" type="Float32" format="ascii">
 0 -0.0703229 -0.119837 -0.0484265 0.0910357 0.249159 0.350741 0.368008 0.32451 0.266247 0.21058 0.174299 0.157986 0.156796 0.152121 -0.0585459 -0.652185 -1.23411 -1.47096 -1.39746 -1.25872 -1.13027 -1.00477 -0.881544 -0.760062 -0.639369 -0.518221 -0.394402 -0.266486 -0.133619 0 0 0.0523058 0.0356906 0.0582615 0.143595 0.248286 0.317627 0.312899 0.271195 0.221777 0.182058 0.155756 0.145868 0.147613 0.145247 -0.058454 -0.642796 -1.22375 -1.4651 -1.39781 -1.25868 -1.13026 -1.00482 -0.881686 -0.760329 -0.639795 -0.518831 -0.395119 -0.267048 -0.133792 0 0 -0.0269697 -0.0330497 -0.0403826 -0.0324162 -0.00466277 0.0395319 0.0799365 0.0949782 0.0966723 0.0952362 0.0981072 0.105787 0.118355 0.122514 -0.0604057 -0.616005 -1.19235 -1.44664 -1.39899 -1.25853 -1.13001 -1.00455 -0.881429 -0.760169 -0.639817 -0.519122 -0.395654 -0.267542 -0.133981 0 0 -0.111308 -0.182843 -0.218459 -0.232756 -0.236361 -0.207579 -0.150266 -0.0945972 -0.0503897 -0.0144051 0.0159607 0.0437434 0.0687955 0.0804518 -0.0707009 -0.575883 -1.13927 -1.41277 -1.40139 -1.25896 -1.13015 -1.00453 -0.881313 -0.760038 -0.639776 -0.519283 -0.396091 -0.268105 -0.134254 0 0 -0.156885 -0.254558 -0.307711 -0.341362 -0.361786 -0.355783 -0.302218 -0.230587 -0.167313 -0.114804 -0.0704429 -0.0319086 0.00105031 0.0166094 -0.0974535 -0.52988 -1.06439 -1.36255 -1.40114 -1.26078 -1.13126 -1.00529 -0.881759 -0.760259 -0.639918 -0.519519 -0.396657 -0.268929 -0.134712 0 0 -0.158794 -0.261985 -0.32526 -0.368548 -0.397258 -0.41351 -0.394708 -0.332867 -0.263312 -0.202122 -0.152641 -0.111966 -0.078387 -0.0663084 -0.146406 -0.48582 -0.969657 -1.29712 -1.38593 -1.26361 -1.13329 -1.0068 -0.88277 -0.760855 -0.640293 -0.519885 -0.397369 -0.270033 -0.135432 0 0 -0.10986 -0.202348 -0.277517 -0.337753 -0.380983 -0.40954 -0.421953 -0.40185 -0.347843 -0.28562 -0.23238 -0.191785 -0.163208 -0.158882 -0.218858 -0.455106 -0.863655 -1.20777 -1.34262 -1.26836 -1.13609 -1.00897 -0.884291 -0.761797 -0.640869 -0.520348 -0.398173 -0.271382 -0.136482 0 0 -0.0247618 -0.0625562 -0.136253 -0.230367 -0.315744 -0.372884 -0.408227 -0.425164 -0.412601 -0.370139 -0.317313 -0.274829 -0.251538 -0.254146 -0.30906 -0.450425 -0.758181 -1.08771 -1.2623 -1.26936 -1.13949 -1.01163 -0.886191 -0.762986 -0.641571 -0.520853 -0.398997 -0.272871 -0.137757 0 0 0.0219369 0.0143396 -0.0410043 -0.129358 -0.233256 -0.325538 -0.388384 -0.428967 -0.450091 -0.443581 -0.410342 -0.369494 -0.346203 -0.35469 -0.405714 -0.486057 -0.662925 -0.939823 -1.15724 -1.23763 -1.143 -1.01453 -0.888335 -0.764325 -0.642321 -0.521331 -0.399734 -0.274351 -0.139101 0 0 0.0296714 0.032096 -0.0133416 -0.0909604 -0.186425 -0.290606 -0.380301 -0.441454 -0.483745 -0.507 -0.50449 -0.479367 -0.456916 -0.465037 -0.505102 -0.557036 -0.607767 -0.790335 -1.02027 -1.15144 -1.14266 -1.01729 -0.890518 -0.765723 -0.643041 -0.521715 -0.400289 -0.275702 -0.140434 0 0 0.0209201 0.0171773 -0.0232476 -0.0952922 -0.183037 -0.281207 -0.382381 -0.469928 -0.53316 -0.57771 -0.601521 -0.602883 -0.586604 -0.584378 -0.615064 -0.637907 -0.626028 -0.659729 -0.849097 -1.02765 -1.1048 -1.01911 -0.892557 -0.767116 -0.643694 -0.521975 -0.400617 -0.27685 -0.141762 0 0 -0.000714082 -0.0187982 -0.0632775 -0.128871 -0.211201 -0.302109 -0.400187 -0.500299 -0.588469 -0.655572 -0.704854 -0.733518 -0.74236 -0.73307 -0.726433 -0.720215 -0.687903 -0.607791 -0.675227 -0.869826 -1.00214 -1.01183 -0.893866 -0.768379 -0.644318 -0.522126 -0.400735 -0.277771 -0.143116 0 0 -0.0247067 -0.0598906 -0.112833 -0.182936 -0.260192 -0.342994 -0.432201 -0.528703 -0.630286 -0.723734 -0.800307 -0.857952 -0.894416 -0.896354 -0.859793 -0.815814 -0.75727 -0.630531 -0.549145 -0.679116 -0.859407 -0.954391 -0.893249 -0.769323 -0.644937 -0.522238 -0.400715 -0.278465 -0.144529 0 0 -0.046156 -0.0978566 -0.160921 -0.233928 -0.312227 -0.390276 -0.469772 -0.554714 -0.650588 -0.760814 -0.863995 -0.953756 -1.01749 -1.03894 -1.00244 -0.923159 -0.838513 -0.675655 -0.522932 -0.501389 -0.677896 -0.830538 -0.872896 -0.768942 -0.645533 -0.522388 -0.400653 -0.278923 -0.145984 0 0 -0.0624944 -0.127556 -0.198099 -0.275187 -0.353738 -0.429702 -0.501829 -0.574536 -0.655137 -0.752132 -0.87933 -0.999234 -1.08569 -1.12685 -1.11274 -1.03729 -0.899197 -0.749051 -0.552666 -0.406324 -0.475343 -0.665567 -0.788317 -0.763398 -0.645695 -0.522623 -0.40064 -0.279187 -0.147463 0 0 -0.0718011 -0.144086 -0.218808 -0.297034 -0.374429 -0.447147 -0.515357 -0.581956 -0.64807 -0.72495 -0.820002 -0.942734 -1.06415 -1.15052 -1.171 -1.10436 -0.957486 -0.800614 -0.613736 -0.408753 -0.315888 -0.462872 -0.641819 -0.721999 -0.643358 -0.523012 -0.400717 -0.279316 -0.148913 0 0 -0.0642267 -0.131471 -0.202287 -0.272572 -0.345449 -0.417783 -0.487034 -0.550627 -0.613908 -0.673985 -0.74144 -0.836308 -0.945834 -1.04711 -1.1099 -1.0965 -0.99644 -0.825676 -0.668245 -0.464558 -0.261225 -0.262333 -0.453524 -0.607478 -0.62813 -0.522031 -0.40088 -0.279396 -0.15028 0 0 -0.0368221 -0.0834835 -0.131989 -0.187602 -0.245652 -0.312141 -0.38713 -0.461094 -0.528882 -0.590488 -0.652786 -0.717688 -0.7976 -0.890015 -0.958591 -0.976976 -0.939599 -0.840029 -0.687304 -0.524574 -0.297885 -0.137667 -0.236614 -0.439326 -0.557384 -0.516556 -0.400969 -0.279435 -0.151521 0 0 -0.00953668 -0.0280032 -0.0496942 -0.0790702 -0.110791 -0.159892 -0.223287 -0.294584 -0.370893 -0.455274 -0.538097 -0.606785 -0.656359 -0.723596 -0.777571 -0.829229 -0.819559 -0.772023 -0.663193 -0.542164 -0.380094 -0.119192 -0.0596788 -0.229504 -0.416477 -0.48264 -0.39799 -0.279546 -0.15255 0 0 0.00299065 0.00986283 0.00127025 0.00142164 -0.00820087 -0.0289515 -0.0552831 -0.0962096 -0.163557 -0.253425 -0.354796 -0.460761 -0.540329 -0.587267 -0.617576 -0.668508 -0.690381 -0.667901 -0.595013 -0.488456 -0.409614 -0.202158 0.0268579 -0.0221934 -0.225231 -0.379876 -0.383661 -0.278233 -0.15319 0 0 0.00422602 0.0205182 0.0131963 0.03323 0.0367789 0.0441958 0.0600476 0.0593624 0.0260967 -0.0371143 -0.131585 -0.2429 -0.359282 -0.456213 -0.516041 -0.528758 -0.546302 -0.559025 -0.524248 -0.433969 -0.329028 -0.274129 -0.00240759 0.11812 -0.0103996 -0.212483 -0.320586 -0.271421 -0.152827 0 0 0.0047289 0.00741101 0.0121024 0.034251 0.0402256 0.065324 0.107413 0.139975 0.144489 0.118479 0.0630726 -0.0159046 -0.11925 -0.236446 -0.353455 -0.426387 -0.456051 -0.444582 -0.429024 -0.386915 -0.276685 -0.212528 -0.0944231 0.151282 0.164333 -0.00653866 -0.183027 -0.236173 -0.148727 0 0 0.0062462 -0.00580429 0.0146409 0.0229084 0.0299136 0.0669047 0.118928 0.163213 0.185222 0.184136 0.174392 0.14709 0.0922448 0.00958825 -0.0993275 -0.221654 -0.330624 -0.370899 -0.367334 -0.323606 -0.254868 -0.137285 -0.0955788 0.0863138 0.242425 0.189301 0.00656399 -0.131135 -0.128088 0 0 0.00255148 -0.0155693 0.0129609 0.0086307 0.0227235 0.0678161 0.121501 0.158121 0.177464 0.192426 0.207223 0.214007 0.215417 0.194118 0.133505 0.0384753 -0.0805909 -0.204431 -0.284023 -0.287228 -0.246665 -0.139492 -0.0386263 0.0372241 0.218573 0.295179 0.207938 0.0389155 -0.0508611 0 0 -0.00653025 -0.0207808 0.00411094 -0.00715507 0.0171968 0.0673977 0.116095 0.145239 0.159797 0.173283 0.192693 0.221212 0.252712 0.272344 0.273299 0.241161 0.166778 0.0562124 -0.0671589 -0.178106 -0.206641 -0.178181 -0.0611274 0.0351795 0.15324 0.2997 0.322136 0.233055 0.0913306 0 0 -0.0192316 -0.0299632 -0.0122261 -0.0227615 0.0109535 0.0605447 0.104185 0.125846 0.136777 0.149843 0.171353 0.201751 0.238229 0.277773 0.315339 0.332301 0.322206 0.272178 0.179461 0.0590837 -0.0570792 -0.125578 -0.108289 -0.0177418 0.0898352 0.227151 0.330323 0.323533 0.244438 0 0 -0.0393678 -0.042 -0.0387425 -0.0357784 -0.000424868 0.0477104 0.0832612 0.0986012 0.106494 0.120397 0.144298 0.176602 0.213776 0.253138 0.293275 0.333038 0.369008 0.376312 0.349979 0.277253 0.166062 0.0475682 -0.0420879 -0.0479235 0.00417624 0.111769 0.229861 0.29082 0.226117 0 0 -0.0686829 -0.0477761 -0.0703578 -0.0458253 -0.0132318 0.0254263 0.0483661 0.0558641 0.062261 0.078501 0.105368 0.139135 0.176401 0.215158 0.25436 0.293929 0.333522 0.372205 0.402387 0.395754 0.343386 0.2442 0.123158 0.0180539 -0.0219625 -0.0118726 0.0697066 0.119611 0.12616 0 0 -0.0624131 -0.130643 -0.0811532 -0.0645677 -0.0166325 0.00471168 0.012873 0.0055309 0.00461612 0.0149693 0.0383634 0.0701921 0.10646 0.144162 0.18249 0.22133 0.260751 0.300951 0.340475 0.379164 0.396032 0.366599 0.277491 0.147275 0.0167616 -0.0598354 -0.103155 -0.0663089 -0.0600748 0 0 -0.368716 -0.169054 -0.113632 -0.048846 -0.0222481 -0.00113744 -0.00696309 -0.0225812 -0.0334956 -0.0302074 -0.0180106 -0.00113845 0.0183053 0.0395379 0.0623123 0.086846 0.113646 0.143364 0.176733 0.212966 0.250241 0.279386 0.263904 0.170997 0.0110531 -0.125123 -0.170172 -0.198282 -0.157583 0 0 0 0 0 0 0 0 0 0 0 0 0 0 0 0 0 0 0 0 0 0 0 0 0 0 0 0 0 0 0 0
				</DataArray>
				<DataArray Name="VitesseY" type="Float32" format="ascii">
 0 0 0 0 0 0 0 0 0 0 0 0 0 0 0 0 0 0 0 0 0 0 0 0 0 0 0 0 0 0 0 -0.081806 0.0434182 -0.0337602 -0.116884 -0.164817 -0.154987 -0.0729147 0.00309791 0.0242122 0.0242793 0.00992538 -0.0121666 -0.0323538 -0.0447102 -0.0482345 -0.0406946 -0.0204527 0.00339282 0.0195343 0.0242389 0.023557 0.0227945 0.0218686 0.0206832 0.0191529 0.0171693 0.0144126 0.0101787 0.00401367 -0.00050962 0 -0.137799 0.0175665 -0.0417237 -0.180819 -0.250994 -0.258209 -0.140266 -0.0226759 0.0183838 0.0182277 -0.00459089 -0.0397301 -0.0736237 -0.0951182 -0.100875 -0.0863632 -0.0460816 0.00321595 0.037554 0.0480873 0.0472136 0.0457751 0.0440057 0.0416474 0.0385746 0.0346009 0.0291277 0.0206233 0.00804189 -0.00102851 0 -0.0744895 0.0357792 -0.0390425 -0.197464 -0.285198 -0.305555 -0.22363 -0.0952443 -0.0389202 -0.0309561 -0.0528743 -0.0914168 -0.129697 -0.155392 -0.162283 -0.141601 -0.0817226 -0.0041419 0.0519172 0.0707658 0.0711353 0.0689947 0.0664442 0.0629856 0.0584343 0.0525507 0.0444236 0.0315978 0.0123585 -0.00143809 0 0.053413 0.118972 -0.00998715 -0.194984 -0.297378 -0.327496 -0.295184 -0.194061 -0.127922 -0.111642 -0.125397 -0.1623 -0.1994 -0.225727 -0.234366 -0.209201 -0.131566 -0.0247284 0.0557449 0.0894259 0.0952922 0.0923518 0.0892128 0.084757 0.0787919 0.0710555 0.0603429 0.0433031 0.0171858 -0.00175074 0 0.208092 0.222706 0.0299568 -0.176057 -0.297601 -0.337077 -0.335237 -0.287314 -0.230559 -0.206175 -0.2118 -0.24126 -0.277416 -0.302899 -0.314155 -0.288677 -0.199945 -0.0677701 0.0423925 0.102303 0.118746 0.11577 0.11231 0.106965 0.0997054 0.0901963 0.0770404 0.0560859 0.0229315 -0.0018317 0 0.331927 0.310174 0.0807918 -0.146429 -0.282528 -0.340106 -0.348553 -0.343052 -0.3214 -0.306064 -0.305929 -0.325271 -0.357554 -0.383028 -0.395027 -0.376717 -0.28791 -0.136465 0.0129017 0.10822 0.13906 0.139575 0.135744 0.129717 0.121283 0.11014 0.0947191 0.0702354 0.0300679 -0.00131163 0 0.376607 0.342499 0.121019 -0.0962157 -0.237947 -0.317033 -0.348543 -0.360138 -0.374733 -0.38993 -0.401612 -0.416459 -0.439121 -0.463022 -0.47542 -0.462701 -0.387774 -0.226718 -0.0411372 0.093528 0.151903 0.16374 0.159531 0.153106 0.143672 0.131042 0.11356 0.0859969 0.0391518 0.000290014 0 0.351648 0.312124 0.138433 -0.0437794 -0.168397 -0.259471 -0.321076 -0.356431 -0.391535 -0.439235 -0.481679 -0.509949 -0.527605 -0.543587 -0.555074 -0.541252 -0.48458 -0.33589 -0.129635 0.0479993 0.151185 0.184559 0.184163 0.177301 0.167048 0.153092 0.133768 0.103574 0.0506694 0.00338506 0 0.294251 0.258871 0.137383 -0.00228313 -0.105727 -0.186589 -0.263976 -0.33106 -0.389449 -0.457855 -0.532979 -0.59085 -0.622341 -0.630474 -0.634086 -0.618365 -0.567862 -0.44827 -0.242807 -0.0243025 0.131373 0.197168 0.209492 0.202357 0.191628 0.17648 0.15552 0.123025 0.0648947 0.00818667 0 0.233587 0.208569 0.128176 0.0307216 -0.0527587 -0.122546 -0.195096 -0.282888 -0.368328 -0.459773 -0.55857 -0.650603 -0.710135 -0.73269 -0.717802 -0.694174 -0.637548 -0.546671 -0.368064 -0.131353 0.0724427 0.19166 0.231166 0.229082 0.217498 0.201329 0.178889 0.144294 0.0818616 0.0147244 0 0.187177 0.172521 0.122934 0.0562364 -0.00762337 -0.0674139 -0.135063 -0.222737 -0.327083 -0.444423 -0.56818 -0.688027 -0.782589 -0.834845 -0.826072 -0.770964 -0.703737 -0.621142 -0.487457 -0.262278 -0.0180961 0.161426 0.240714 0.256492 0.244574 0.227677 0.20385 0.167417 0.101337 0.0230132 0 0.163486 0.155532 0.126034 0.0811995 0.0309016 -0.0224807 -0.0870473 -0.170941 -0.277777 -0.4108 -0.561011 -0.7057 -0.836709 -0.919002 -0.943239 -0.871441 -0.777302 -0.682504 -0.578345 -0.39457 -0.14211 0.0877641 0.230026 0.279261 0.27344 0.255452 0.23037 0.192311 0.123232 0.0331161 0 0.160305 0.155349 0.13734 0.107515 0.0655678 0.0118555 -0.0538422 -0.136672 -0.242645 -0.372729 -0.534661 -0.709615 -0.863729 -0.978703 -1.03303 -0.985374 -0.873515 -0.745014 -0.632208 -0.506305 -0.281913 -0.0207479 0.183626 0.281107 0.302596 0.28463 0.258457 0.218954 0.147532 0.0451757 0 0.166285 0.16273 0.150392 0.128905 0.0905467 0.032727 -0.0410378 -0.129782 -0.235975 -0.35967 -0.508949 -0.687456 -0.863055 -1.00321 -1.07892 -1.07796 -0.968043 -0.813472 -0.670102 -0.569049 -0.412746 -0.157287 0.094057 0.261757 0.323944 0.315211 0.288202 0.247406 0.17429 0.0594637 0 0.13404 0.13235 0.126432 0.11429 0.0790192 0.0147918 -0.0673365 -0.162076 -0.267498 -0.388508 -0.512227 -0.659093 -0.823497 -0.972445 -1.07453 -1.11918 -1.0329 -0.890735 -0.726814 -0.588264 -0.492272 -0.299623 -0.0305648 0.197246 0.317343 0.34579 0.31972 0.277786 0.203603 0.0763765 0 -0.170072 -0.16002 -0.133201 -0.098388 -0.0857424 -0.110087 -0.166406 -0.246331 -0.339303 -0.436417 -0.53852 -0.64403 -0.761962 -0.895065 -1.00423 -1.06481 -1.04168 -0.923249 -0.773293 -0.627037 -0.519845 -0.407168 -0.172887 0.0916725 0.2831 0.361763 0.352074 0.310345 0.235518 0.0963608 0 -0.749296 -0.725111 -0.666801 -0.587484 -0.510041 -0.453431 -0.414647 -0.402458 -0.423911 -0.47587 -0.545038 -0.616515 -0.707333 -0.788906 -0.87362 -0.939725 -0.962114 -0.88948 -0.78688 -0.657109 -0.523453 -0.447565 -0.306377 -0.0433034 0.202558 0.34625 0.383793 0.344688 0.269927 0.119864 0 -1.22686 -1.19856 -1.13622 -1.05893 -0.972472 -0.880438 -0.782575 -0.691293 -0.606052 -0.533227 -0.511865 -0.542631 -0.589262 -0.659909 -0.727232 -0.770655 -0.807855 -0.815738 -0.738611 -0.64796 -0.540005 -0.440793 -0.36619 -0.181484 0.0823172 0.293136 0.389332 0.379554 0.306694 0.14733 0 -1.3931 -1.36584 -1.31418 -1.26333 -1.20752 -1.14286 -1.07274 -0.982274 -0.864517 -0.726724 -0.589743 -0.484462 -0.455263 -0.481806 -0.537763 -0.603699 -0.645121 -0.666419 -0.645999 -0.581165 -0.511361 -0.42062 -0.370426 -0.280301 -0.0512263 0.195491 0.360832 0.408017 0.344083 0.179205 0 -1.28835 -1.25321 -1.22443 -1.21054 -1.2052 -1.20018 -1.1812 -1.1294 -1.03958 -0.928361 -0.791379 -0.631905 -0.477833 -0.373574 -0.352936 -0.395781 -0.465604 -0.509459 -0.517827 -0.474667 -0.434033 -0.380475 -0.322801 -0.289796 -0.172461 0.0693766 0.285615 0.400619 0.381398 0.214491 0 -1.14067 -1.09872 -1.07863 -1.06367 -1.06394 -1.07635 -1.0896 -1.09263 -1.07843 -1.0263 -0.935616 -0.825351 -0.680004 -0.507185 -0.346124 -0.245944 -0.236103 -0.302169 -0.382408 -0.39204 -0.312999 -0.279953 -0.256094 -0.250339 -0.208462 -0.0532385 0.171895 0.347249 0.397885 0.251211 0 -0.996151 -0.951084 -0.941042 -0.926901 -0.934156 -0.949445 -0.958613 -0.960369 -0.96057 -0.965314 -0.965994 -0.926562 -0.838997 -0.716126 -0.550751 -0.35911 -0.191909 -0.103772 -0.112118 -0.21072 -0.271103 -0.202199 -0.137069 -0.142509 -0.18196 -0.126112 0.0497625 0.246971 0.368109 0.280092 0 -0.847972 -0.804711 -0.80504 -0.794328 -0.810683 -0.825391 -0.832348 -0.834914 -0.839136 -0.848641 -0.8615 -0.875131 -0.876306 -0.829741 -0.724936 -0.576771 -0.386796 -0.180701 -0.0245019 0.0428302 -0.0011224 -0.0951705 -0.0934803 -0.0381085 -0.0634605 -0.110536 -0.042014 0.124335 0.278619 0.26446 0 -0.696107 -0.658167 -0.670494 -0.667009 -0.692549 -0.704449 -0.710109 -0.714609 -0.721833 -0.733622 -0.747541 -0.760219 -0.7693 -0.774705 -0.764778 -0.702807 -0.576006 -0.403554 -0.193915 0.00480209 0.132431 0.156658 0.0872942 0.0369213 0.0349295 -0.0191234 -0.0489547 0.0181478 0.14783 0.171409 0 -0.533927 -0.511205 -0.53704 -0.545432 -0.578513 -0.587622 -0.593271 -0.599393 -0.608335 -0.620473 -0.633064 -0.643435 -0.650673 -0.655005 -0.656305 -0.654177 -0.632251 -0.548767 -0.400718 -0.206794 0.00662008 0.175012 0.247367 0.220373 0.153078 0.0894958 0.00355073 -0.0222994 0.0168509 0.011266 0 -0.354702 -0.363878 -0.407751 -0.428985 -0.467259 -0.473764 -0.480655 -0.487098 -0.496694 -0.508415 -0.519194 -0.526932 -0.531418 -0.533478 -0.534077 -0.533847 -0.531624 -0.524121 -0.484563 -0.375397 -0.204749 0.00215678 0.195545 0.298189 0.300918 0.227248 0.111598 -0.0121014 -0.0599017 -0.125059 0 -0.158126 -0.209399 -0.283793 -0.314985 -0.355329 -0.360344 -0.368233 -0.374138 -0.384537 -0.396084 -0.404958 -0.41018 -0.412443 -0.412602 -0.411871 -0.410624 -0.409246 -0.407677 -0.403293 -0.386986 -0.320683 -0.180684 0.0100913 0.210916 0.323645 0.330904 0.229973 0.0696575 -0.103209 -0.170167 0 0.014792 -0.00537463 -0.16962 -0.215061 -0.243307 -0.244221 -0.246235 -0.25224 -0.263675 -0.276788 -0.284867 -0.289898 -0.291445 -0.291162 -0.289805 -0.288007 -0.286203 -0.2846 -0.283382 -0.280996 -0.273361 -0.237011 -0.130769 0.0400337 0.234171 0.324111 0.291023 0.119656 -0.0663149 -0.198287 0 0.636592 0.0681183 -0.123252 -0.0952254 -0.158678 -0.113396 -0.124249 -0.120216 -0.133024 -0.139591 -0.149027 -0.152414 -0.154244 -0.154831 -0.154863 -0.154698 -0.154554 -0.154544 -0.154624 -0.15459 -0.15381 -0.149426 -0.128504 -0.050898 0.0915999 0.244746 0.226266 0.126201 -0.0600688 -0.157585 0 5.36142 0 0 0 0 0 0 0 0 0 0 0 0 0 0 0 0 0 0 0 0 0 0 0 0 0 0 0 0 0 0
				</DataArray>
			</PointData>
			<CellData Scalars="Density">
				<DataArray Name="Density" type="Float32" format="ascii">