<?xml version="1.0"?>
<VTKFile type="PolyData">
	<PolyData>
		<Piece NumberOfPoints="961" NumberOfPolys="900">
			<Points>
				<DataArray type="Float32" NumberOfComponents="3" format="ascii">
 0 0 0 0.04 0 0 0.08 0 0 0.12 0 0 0.16 0 0 0.2 0 0 0.24 0 0 0.28 0 0 0.32 0 0 0.36 0 0 0.4 0 0 0.44 0 0 0.48 0 0 0.52 0 0 0.56 0 0 0.6 0 0 0.64 0 0 0.68 0 0 0.72 0 0 0.76 0 0 0.8 0 0 0.84 0 0 0.88 0 0 0.92 0 0 0.96 0 0 1 0 0 1.04 0 0 1.08 0 0 1.12 0 0 1.16 0 0 1.2 0 0 0 0.04 0 0.04 0.04 0 0.08 0.04 0 0.12 0.04 0 0.16 0.04 0 0.2 0.04 0 0.24 0.04 0 0.28 0.04 0 0.32 0.04 0 0.36 0.04 0 0.4 0.04 0 0.44 0.04 0 0.48 0.04 0 0.52 0.04 0 0.56 0.04 0 0.6 0.04 0 0.64 0.04 0 0.68 0.04 0 0.72 0.04 0 0.76 0.04 0 0.8 0.04 0 0.84 0.04 0 0.88 0.04 0 0.92 0.04 0 0.96 0.04 0 1 0.04 0 1.04 0.04 0 1.08 0.04 0 1.12 0.04 0 1.16 0.04 0 1.2 0.04 0 0 0.08 0 0.04 0.08 0 0.08 0.08 0 0.12 0.08 0 0.16 0.08 0 0.2 0.08 0 0.24 0.08 0 0.28 0.08 0 0.32 0.08 0 0.36 0.08 0 0.4 0.08 0 0.44 0.08 0 0.48 0.08 0 0.52 0.08 0 0.56 0.08 0 0.6 0.08 0 0.64 0.08 0 0.68 0.08 0 0.72 0.08 0 0.76 0.08 0 0.8 0.08 0 0.84 0.08 0 0.88 0.08 0 0.92 0.08 0 0.96 0.08 0 1 0.08 0 1.04 0.08 0 1.08 0.08 0 1.12 0.08 0 1.16 0.08 0 1.2 0.08 0 0 0.12 0 0.04 0.12 0 0.08 0.12 0 0.12 0.12 0 0.16 0.12 0 0.2 0.12 0 0.24 0.12 0 0.28 0.12 0 0.32 0.12 0 0.36 0.12 0 0.4 0.12 0 0.44 0.12 0 0.48 0.12 0 0.52 0.12 0 0.56 0.12 0 0.6 0.12 0 0.64 0.12 0 0.68 0.12 0 0.72 0.12 0 0.76 0.12 0 0.8 0.12 0 0.84 0.12 0 0.88 0.12 0 0.92 0.12 0 0.96 0.12 0 1 0.12 0 1.04 0.12 0 1.08 0.12 0 1.12 0.12 0 1.16 0.12 0 1.2 0.12 0 0 0.16 0 0.04 0.16 0 0.08 0.16 0 0.12 0.16 0 0.16 0.16 0 0.2 0.16 0 0.24 0.16 0 0.28 0.16 0 0.32 0.16 0 0.36 0.16 0 0.4 0.16 0 0.44 0.16 0 0.48 0.16 0 0.52 0.16 0 0.56 0.16 0 0.6 0.16 0 0.64 0.16 0 0.68 0.16 0 0.72 0.16 0 0.76 0.16 0 0.8 0.16 0 0.84 0.16 0 0.88 0.16 0 0.92 0.16 0 0.96 0.16 0 1 0.16 0 1.04 0.16 0 1.08 0.16 0 1.12 0.16 0 1.16 0.16 0 1.2 0.16 0 0 0.2 0 0.04 0.2 0 0.08 0.2 0 0.12 0.2 0 0.16 0.2 0 0.2 0.2 0 0.24 0.2 0 0.28 0.2 0 0.32 0.2 0 0.36 0.2 0 0.4 0.2 0 0.44 0.2 0 0.48 0.2 0 0.52 0.2 0 0.56 0.2 0 0.6 0.2 0 0.64 0.2 0 0.68 0.2 0 0.72 0.2 0 0.76 0.2 0 0.8 0.2 0 0.84 0.2 0 0.88 0.2 0 0.92 0.2 0 0.96 0.2 0 1 0.2 0 1.04 0.2 0 1.08 0.2 0 1.12 0.2 0 1.16 0.2 0 1.2 0.2 0 0 0.24 0 0.04 0.24 0 0.08 0.24 0 0.12 0.24 0 0.16 0.24 0 0.2 0.24 0 0.24 0.24 0 0.28 0.24 0 0.32 0.24 0 0.36 0.24 0 0.4 0.24 0 0.44 0.24 0 0.48 0.24 0 0.52 0.24 0 0.56 0.24 0 0.6 0.24 0 0.64 0.24 0 0.68 0.24 0 0.72 0.24 0 0.76 0.24 0 0.8 0.24 0 0.84 0.24 0 0.88 0.24 0 0.92 0.24 0 0.96 0.24 0 1 0.24 0 1.04 0.24 0 1.08 0.24 0 1.12 0.24 0 1.16 0.24 0 1.2 0.24 0 0 0.28 0 0.04 0.28 0 0.08 0.28 0 0.12 0.28 0 0.16 0.28 0 0.2 0.28 0 0.24 0.28 0 0.28 0.28 0 0.32 0.28 0 0.36 0.28 0 0.4 0.28 0 0.44 0.28 0 0.48 0.28 0 0.52 0.28 0 0.56 0.28 0 0.6 0.28 0 0.64 0.28 0 0.68 0.28 0 0.72 0.28 0 0.76 0.28 0 0.8 0.28 0 0.84 0.28 0 0.88 0.28 0 0.92 0.28 0 0.96 0.28 0 1 0.28 0 1.04 0.28 0 1.08 0.28 0 1.12 0.28 0 1.16 0.28 0 1.2 0.28 0 0 0.32 0 0.04 0.32 0 0.08 0.32 0 0.12 0.32 0 0.16 0.32 0 0.2 0.32 0 0.24 0.32 0 0.28 0.32 0 0.32 0.32 0 0.36 0.32 0 0.4 0.32 0 0.44 0.32 0 0.48 0.32 0 0.52 0.32 0 0.56 0.32 0 0.6 0.32 0 0.64 0.32 0 0.68 0.32 0 0.72 0.32 0 0.76 0.32 0 0.8 0.32 0 0.84 0.32 0 0.88 0.32 0 0.92 0.32 0 0.96 0.32 0 1 0.32 0 1.04 0.32 0 1.08 0.32 0 1.12 0.32 0 1.16 0.32 0 1.2 0.32 0 0 0.36 0 0.04 0.36 0 0.08 0.36 0 0.12 0.36 0 0.16 0.36 0 0.2 0.36 0 0.24 0.36 0 0.28 0.36 0 0.32 0.36 0 0.36 0.36 0 0.4 0.36 0 0.44 0.36 0 0.48 0.36 0 0.52 0.36 0 0.56 0.36 0 0.6 0.36 0 0.64 0.36 0 0.68 0.36 0 0.72 0.36 0 0.76 0.36 0 0.8 0.36 0 0.84 0.36 0 0.88 0.36 0 0.92 0.36 0 0.96 0.36 0 1 0.36 0 1.04 0.36 0 1.08 0.36 0 1.12 0.36 0 1.16 0.36 0 1.2 0.36 0 0 0.4 0 0.04 0.4 0 0.08 0.4 0 0.12 0.4 0 0.16 0.4 0 0.2 0.4 0 0.24 0.4 0 0.28 0.4 0 0.32 0.4 0 0.36 0.4 0 0.4 0.4 0 0.44 0.4 0 0.48 0.4 0 0.52 0.4 0 0.56 0.4 0 0.6 0.4 0 0.64 0.4 0 0.68 0.4 0 0.72 0.4 0 0.76 0.4 0 0.8 0.4 0 0.84 0.4 0 0.88 0.4 0 0.92 0.4 0 0.96 0.4 0 1 0.4 0 1.04 0.4 0 1.08 0.4 0 1.12 0.4 0 1.16 0.4 0 1.2 0.4 0 0 0.44 0 0.04 0.44 0 0.08 0.44 0 0.12 0.44 0 0.16 0.44 0 0.2 0.44 0 0.24 0.44 0 0.28 0.44 0 0.32 0.44 0 0.36 0.44 0 0.4 0.44 0 0.44 0.44 0 0.48 0.44 0 0.52 0.44 0 0.56 0.44 0 0.6 0.44 0 0.64 0.44 0 0.68 0.44 0 0.72 0.44 0 0.76 0.44 0 0.8 0.44 0 0.84 0.44 0 0.88 0.44 0 0.92 0.44 0 0.96 0.44 0 1 0.44 0 1.04 0.44 0 1.08 0.44 0 1.12 0.44 0 1.16 0.44 0 1.2 0.44 0 0 0.48 0 0.04 0.48 0 0.08 0.48 0 0.12 0.48 0 0.16 0.48 0 0.2 0.48 0 0.24 0.48 0 0.28 0.48 0 0.32 0.48 0 0.36 0.48 0 0.4 0.48 0 0.44 0.48 0 0.48 0.48 0 0.52 0.48 0 0.56 0.48 0 0.6 0.48 0 0.64 0.48 0 0.68 0.48 0 0.72 0.48 0 0.76 0.48 0 0.8 0.48 0 0.84 0.48 0 0.88 0.48 0 0.92 0.48 0 0.96 0.48 0 1 0.48 0 1.04 0.48 0 1.08 0.48 0 1.12 0.48 0 1.16 0.48 0 1.2 0.48 0 0 0.52 0 0.04 0.52 0 0.08 0.52 0 0.12 0.52 0 0.16 0.52 0 0.2 0.52 0 0.24 0.52 0 0.28 0.52 0 0.32 0.52 0 0.36 0.52 0 0.4 0.52 0 0.44 0.52 0 0.48 0.52 0 0.52 0.52 0 0.56 0.52 0 0.6 0.52 0 0.64 0.52 0 0.68 0.52 0 0.72 0.52 0 0.76 0.52 0 0.8 0.52 0 0.84 0.52 0 0.88 0.52 0 0.92 0.52 0 0.96 0.52 0 1 0.52 0 1.04 0.52 0 1.08 0.52 0 1.12 0.52 0 1.16 0.52 0 1.2 0.52 0 0 0.56 0 0.04 0.56 0 0.08 0.56 0 0.12 0.56 0 0.16 0.56 0 0.2 0.56 0 0.24 0.56 0 0.28 0.56 0 0.32 0.56 0 0.36 0.56 0 0.4 0.56 0 0.44 0.56 0 0.48 0.56 0 0.52 0.56 0 0.56 0.56 0 0.6 0.56 0 0.64 0.56 0 0.68 0.56 0 0.72 0.56 0 0.76 0.56 0 0.8 0.56 0 0.84 0.56 0 0.88 0.56 0 0.92 0.56 0 0.96 0.56 0 1 0.56 0 1.04 0.56 0 1.08 0.56 0 1.12 0.56 0 1.16 0.56 0 1.2 0.56 0 0 0.6 0 0.04 0.6 0 0.08 0.6 0 0.12 0.6 0 0.16 0.6 0 0.2 0.6 0 0.24 0.6 0 0.28 0.6 0 0.32 0.6 0 0.36 0.6 0 0.4 0.6 0 0.44 0.6 0 0.48 0.6 0 0.52 0.6 0 0.56 0.6 0 0.6 0.6 0 0.64 0.6 0 0.68 0.6 0 0.72 0.6 0 0.76 0.6 0 0.8 0.6 0 0.84 0.6 0 0.88 0.6 0 0.92 0.6 0 0.96 0.6 0 1 0.6 0 1.04 0.6 0 1.08 0.6 0 1.12 0.6 0 1.16 0.6 0 1.2 0.6 0 0 0.64 0 0.04 0.64 0 0.08 0.64 0 0.12 0.64 0 0.16 0.64 0 0.2 0.64 0 0.24 0.64 0 0.28 0.64 0 0.32 0.64 0 0.36 0.64 0 0.4 0.64 0 0.44 0.64 0 0.48 0.64 0 0.52 0.64 0 0.56 0.64 0 0.6 0.64 0 0.64 0.64 0 0.68 0.64 0 0.72 0.64 0 0.76 0.64 0 0.8 0.64 0 0.84 0.64 0 0.88 0.64 0 0.92 0.64 0 0.96 0.64 0 1 0.64 0 1.04 0.64 0 1.08 0.64 0 1.12 0.64 0 1.16 0.64 0 1.2 0.64 0 0 0.68 0 0.04 0.68 0 0.08 0.68 0 0.12 0.68 0 0.16 0.68 0 0.2 0.68 0 0.24 0.68 0 0.28 0.68 0 0.32 0.68 0 0.36 0.68 0 0.4 0.68 0 0.44 0.68 0 0.48 0.68 0 0.52 0.68 0 0.56 0.68 0 0.6 0.68 0 0.64 0.68 0 0.68 0.68 0 0.72 0.68 0 0.76 0.68 0 0.8 0.68 0 0.84 0.68 0 0.88 0.68 0 0.92 0.68 0 0.96 0.68 0 1 0.68 0 1.04 0.68 0 1.08 0.68 0 1.12 0.68 0 1.16 0.68 0 1.2 0.68 0 0 0.72 0 0.04 0.72 0 0.08 0.72 0 0.12 0.72 0 0.16 0.72 0 0.2 0.72 0 0.24 0.72 0 0.28 0.72 0 0.32 0.72 0 0.36 0.72 0 0.4 0.72 0 0.44 0.72 0 0.48 0.72 0 0.52 0.72 0 0.56 0.72 0 0.6 0.72 0 0.64 0.72 0 0.68 0.72 0 0.72 0.72 0 0.76 0.72 0 0.8 0.72 0 0.84 0.72 0 0.88 0.72 0 0.92 0.72 0 0.96 0.72 0 1 0.72 0 1.04 0.72 0 1.08 0.72 0 1.12 0.72 0 1.16 0.72 0 1.2 0.72 0 0 0.76 0 0.04 0.76 0 0.08 0.76 0 0.12 0.76 0 0.16 0.76 0 0.2 0.76 0 0.24 0.76 0 0.28 0.76 0 0.32 0.76 0 0.36 0.76 0 0.4 0.76 0 0.44 0.76 0 0.48 0.76 0 0.52 0.76 0 0.56 0.76 0 0.6 0.76 0 0.64 0.76 0 0.68 0.76 0 0.72 0.76 0 0.76 0.76 0 0.8 0.76 0 0.84 0.76 0 0.88 0.76 0 0.92 0.76 0 0.96 0.76 0 1 0.76 0 1.04 0.76 0 1.08 0.76 0 1.12 0.76 0 1.16 0.76 0 1.2 0.76 0 0 0.8 0 0.04 0.8 0 0.08 0.8 0 0.12 0.8 0 0.16 0.8 0 0.2 0.8 0 0.24 0.8 0 0.28 0.8 0 0.32 0.8 0 0.36 0.8 0 0.4 0.8 0 0.44 0.8 0 0.48 0.8 0 0.52 0.8 0 0.56 0.8 0 0.6 0.8 0 0.64 0.8 0 0.68 0.8 0 0.72 0.8 0 0.76 0.8 0 0.8 0.8 0 0.84 0.8 0 0.88 0.8 0 0.92 0.8 0 0.96 0.8 0 1 0.8 0 1.04 0.8 0 1.08 0.8 0 1.12 0.8 0 1.16 0.8 0 1.2 0.8 0 0 0.84 0 0.04 0.84 0 0.08 0.84 0 0.12 0.84 0 0.16 0.84 0 0.2 0.84 0 0.24 0.84 0 0.28 0.84 0 0.32 0.84 0 0.36 0.84 0 0.4 0.84 0 0.44 0.84 0 0.48 0.84 0 0.52 0.84 0 0.56 0.84 0 0.6 0.84 0 0.64 0.84 0 0.68 0.84 0 0.72 0.84 0 0.76 0.84 0 0.8 0.84 0 0.84 0.84 0 0.88 0.84 0 0.92 0.84 0 0.96 0.84 0 1 0.84 0 1.04 0.84 0 1.08 0.84 0 1.12 0.84 0 1.16 0.84 0 1.2 0.84 0 0 0.88 0 0.04 0.88 0 0.08 0.88 0 0.12 0.88 0 0.16 0.88 0 0.2 0.88 0 0.24 0.88 0 0.28 0.88 0 0.32 0.88 0 0.36 0.88 0 0.4 0.88 0 0.44 0.88 0 0.48 0.88 0 0.52 0.88 0 0.56 0.88 0 0.6 0.88 0 0.64 0.88 0 0.68 0.88 0 0.72 0.88 0 0.76 0.88 0 0.8 0.88 0 0.84 0.88 0 0.88 0.88 0 0.92 0.88 0 0.96 0.88 0 1 0.88 0 1.04 0.88 0 1.08 0.88 0 1.12 0.88 0 1.16 0.88 0 1.2 0.88 0 0 0.92 0 0.04 0.92 0 0.08 0.92 0 0.12 0.92 0 0.16 0.92 0 0.2 0.92 0 0.24 0.92 0 0.28 0.92 0 0.32 0.92 0 0.36 0.92 0 0.4 0.92 0 0.44 0.92 0 0.48 0.92 0 0.52 0.92 0 0.56 0.92 0 0.6 0.92 0 0.64 0.92 0 0.68 0.92 0 0.72 0.92 0 0.76 0.92 0 0.8 0.92 0 0.84 0.92 0 0.88 0.92 0 0.92 0.92 0 0.96 0.92 0 1 0.92 0 1.04 0.92 0 1.08 0.92 0 1.12 0.92 0 1.16 0.92 0 1.2 0.92 0 0 0.96 0 0.04 0.96 0 0.08 0.96 0 0.12 0.96 0 0.16 0.96 0 0.2 0.96 0 0.24 0.96 0 0.28 0.96 0 0.32 0.96 0 0.36 0.96 0 0.4 0.96 0 0.44 0.96 0 0.48 0.96 0 0.52 0.96 0 0.56 0.96 0 0.6 0.96 0 0.64 0.96 0 0.68 0.96 0 0.72 0.96 0 0.76 0.96 0 0.8 0.96 0 0.84 0.96 0 0.88 0.96 0 0.92 0.96 0 0.96 0.96 0 1 0.96 0 1.04 0.96 0 1.08 0.96 0 1.12 0.96 0 1.16 0.96 0 1.2 0.96 0 0 1 0 0.04 1 0 0.08 1 0 0.12 1 0 0.16 1 0 0.2 1 0 0.24 1 0 0.28 1 0 0.32 1 0 0.36 1 0 0.4 1 0 0.44 1 0 0.48 1 0 0.52 1 0 0.56 1 0 0.6 1 0 0.64 1 0 0.68 1 0 0.72 1 0 0.76 1 0 0.8 1 0 0.84 1 0 0.88 1 0 0.92 1 0 0.96 1 0 1 1 0 1.04 1 0 1.08 1 0 1.12 1 0 1.16 1 0 1.2 1 0 0 1.04 0 0.04 1.04 0 0.08 1.04 0 0.12 1.04 0 0.16 1.04 0 0.2 1.04 0 0.24 1.04 0 0.28 1.04 0 0.32 1.04 0 0.36 1.04 0 0.4 1.04 0 0.44 1.04 0 0.48 1.04 0 0.52 1.04 0 0.56 1.04 0 0.6 1.04 0 0.64 1.04 0 0.68 1.04 0 0.72 1.04 0 0.76 1.04 0 0.8 1.04 0 0.84 1.04 0 0.88 1.04 0 0.92 1.04 0 0.96 1.04 0 1 1.04 0 1.04 1.04 0 1.08 1.04 0 1.12 1.04 0 1.16 1.04 0 1.2 1.04 0 0 1.08 0 0.04 1.08 0 0.08 1.08 0 0.12 1.08 0 0.16 1.08 0 0.2 1.08 0 0.24 1.08 0 0.28 1.08 0 0.32 1.08 0 0.36 1.08 0 0.4 1.08 0 0.44 1.08 0 0.48 1.08 0 0.52 1.08 0 0.56 1.08 0 0.6 1.08 0 0.64 1.08 0 0.68 1.08 0 0.72 1.08 0 0.76 1.08 0 0.8 1.08 0 0.84 1.08 0 0.88 1.08 0 0.92 1.08 0 0.96 1.08 0 1 1.08 0 1.04 1.08 0 1.08 1.08 0 1.12 1.08 0 1.16 1.08 0 1.2 1.08 0 0 1.12 0 
[...]
			<PointData Scalars="VitesseX">
				<DataArray Name="VitesseX" type="Float32" format="ascii">
 0 -0.0572882 -0.153201 -0.15998 -0.106619 -0.0162669 0.113072 0.206199 0.306427 0.382995 0.454578 0.519622 0.581044 0.64027 0.69873 0.757189 0.815986 0.875581 0.936359 0.998446 1.06185 1.12673 1.1933 1.26191 1.33293 1.40708 1.4726 1.3195 0.883248 0.324684 0 0 0.16481 0.155414 0.135014 0.120511 0.155951 0.23494 0.285396 0.364079 0.425402 0.486931 0.544021 0.599124 0.653405 0.707676 0.762357 0.818071 0.875229 0.93408 0.994749 1.05729 1.12181 1.18845 1.2574 1.3289 1.4035 1.47063 1.32169 0.889407 0.330192 0 0 0.162321 0.235841 0.31677 0.312434 0.318451 0.36664 0.377875 0.428148 0.465909 0.512316 0.560436 0.61026 0.661818 0.714401 0.768055 0.823112 0.879967 0.938806 0.999547 1.06211 1.12652 1.19288 1.26141 1.33232 1.40616 1.47536 1.33646 0.914358 0.350837 0 0 0.112843 0.207232 0.29404 0.323818 0.346691 0.396897 0.411257 0.456224 0.488967 0.530552 0.574811 0.621533 0.670806 0.721995 0.77507 0.830056 0.886989 0.945789 1.00632 1.0685 1.13241 1.19819 1.26605 1.33621 1.40928 1.48149 1.35989 0.955592 0.384758 0 0 0.0526132 0.148505 0.23157 0.295846 0.342594 0.386682 0.417699 0.465872 0.505299 0.54802 0.59081 0.634901 0.681788 0.731537 0.78393 0.838624 0.895318 0.953722 1.01368 1.07515 1.13829 1.20331 1.27046 1.34 1.41274 1.48786 1.39094 1.01159 0.431717 0 0 0.0198512 0.0922196 0.176943 0.251411 0.317539 0.362827 0.411669 0.461867 0.508666 0.556376 0.602341 0.648114 0.694606 0.743335 0.7949 0.848896 0.904837 0.962401 1.02144 1.08197 1.14419 1.2084 1.27489 1.34403 1.41689 1.49312 1.42894 1.08108 0.491881 0 0 0.0184989 0.0749043 0.152929 0.22613 0.289245 0.341102 0.399426 0.453482 0.505582 0.55745 0.607697 0.657009 0.706203 0.756058 0.807509 0.860798 0.915687 0.972027 1.02981 1.08919 1.1504 1.2138 1.27973 1.34867 1.42204 1.49676 1.47298 1.16192 0.565085 0 0 0.0240931 0.076793 0.150655 0.222176 0.281963 0.339724 0.395245 0.447914 0.502381 0.557277 0.61075 0.663313 0.715167 0.766803 0.818933 0.872127 0.926445 0.981899 1.0386 1.09687 1.15708 1.21976 1.28521 1.35417 1.42818 1.49947 1.52189 1.25065 0.650518 0 0 0.0311161 0.0844728 0.154113 0.224796 0.284391 0.342988 0.39596 0.448954 0.50348 0.558553 0.613497 0.668114 0.721974 0.774967 0.827859 0.881168 0.935236 0.990229 1.0464 1.10412 1.16384 1.22615 1.29133 1.36064 1.43479 1.5049 1.57039 1.34395 0.746941 0 0 0.0392189 0.093326 0.159002 0.226925 0.288854 0.346941 0.400642 0.45365 0.50732 0.561792 0.616817 0.671973 0.726727 0.780848 0.834422 0.888029 0.942101 0.996914 1.05288 1.11041 1.17013 1.23252 1.29783 1.36797 1.44155 1.5143 1.61615 1.43638 0.850923 0 0 0.0447323 0.0999304 0.162846 0.228216 0.291352 0.350831 0.40612 0.459439 0.512405 0.566012 0.620377 0.675139 0.729943 0.784533 0.838682 0.892738 0.947026 1.00197 1.05804 1.11575 1.17589 1.23858 1.3046 1.37592 1.44794 1.52871 1.65883 1.51885 0.955912 0 0 0.0484475 0.103871 0.164265 0.227668 0.291079 0.351255 0.407853 0.461914 0.515076 0.568469 0.622515 0.67699 0.731674 0.786329 0.840934 0.895446 0.950137 1.00551 1.06195 1.12028 1.18113 1.24436 1.31192 1.38373 1.45398 1.55474 1.69365 1.57742 1.05184 0 0 0.0507696 0.106156 0.164498 0.225759 0.288288 0.348917 0.406377 0.461449 0.515084 0.56868 0.622731 0.677217 0.731922 0.786706 0.84155 0.896505 0.951803 1.00775 1.06489 1.1243 1.18592 1.25028 1.32007 1.39023 1.46293 1.59996 1.7078 1.59851 1.12184 0 0 0.0518662 0.106948 0.163956 0.222856 0.283327 0.343358 0.401377 0.457506 0.512284 0.566529 0.620957 0.675748 0.73082 0.786011 0.841156 0.896514 0.952461 1.00911 1.06748 1.12809 1.19055 1.25717 1.32805 1.39548 1.4838 1.64904 1.69531 1.57542 1.13034 0 0 0.0521211 0.106838 0.162677 0.219519 0.277435 0.335795 0.393478 0.450115 0.505939 0.561228 0.616398 0.671837 0.727655 0.783615 0.839615 0.895846 0.95247 1.01032 1.07023 1.13173 1.19586 1.26561 1.33391 1.40376 1.53005 1.66846 1.6559 1.49069 1.02444 0 0 0.0520098 0.106096 0.160763 0.215838 0.271568 0.327935 0.384566 0.441129 0.497521 0.553756 0.609895 0.666158 0.72278 0.779793 0.837027 0.894323 0.952378 1.01201 1.07309 1.13575 1.20331 1.2732 1.33868 1.42846 1.58938 1.64661 1.58007 1.32317 0.767157 0 0 0.0515855 0.104757 0.158191 0.211759 0.26583 0.320821 0.376651 0.432973 0.489606 0.54644 0.603444 0.660619 0.718167 0.776211 0.834516 0.893337 0.953155 1.01415 1.07618 1.14196 1.21233 1.27798 1.35057 1.48721 1.60464 1.59098 1.44413 1.04693 0.420351 0 0 0.0509205 0.103005 0.155157 0.207504 0.260531 0.314692 0.370051 0.426291 0.483181 0.540556 0.598299 0.656404 0.714917 0.773873 0.833399 0.893652 0.95474 1.01664 1.08143 1.15136 1.21814 1.28458 1.39183 1.54031 1.56972 1.48989 1.2151 0.661621 0.155206 0 0 0.0501977 0.101248 0.152388 0.203924 0.256294 0.309976 0.365098 0.421372 0.478513 0.536347 0.594746 0.653643 0.713014 0.772985 0.833593 0.894871 0.956932 1.02145 1.09078 1.15843 1.2232 1.31301 1.46235 1.5301 1.49152 1.30575 0.860271 0.289914 0.035519 0 0 0.0496806 0.0999505 0.150392 0.201453 0.253538 0.30701 0.362055 0.418441 0.47583 0.534047 0.592966 0.652507 0.712627 0.773348 0.834794 0.897188 0.961954 1.03088 1.09876 1.16342 1.24499 1.38404 1.47627 1.46746 1.34147 0.993337 0.434056 0.0811103 0.00436751 0 0 0.0494231 0.0992165 0.149354 0.200298 0.252387 0.305875 0.360938 0.417429 0.475019 0.533517 0.592802 0.652791 0.713529 0.775114 0.83792 0.903173 0.971806 1.03931 1.1044 1.18345 1.31297 1.41574 1.42686 1.33925 1.06557 0.555922 0.139327 0.0122844 0.000243423 0 0 0.0494029 0.0990596 0.149206 0.200247 0.252463 0.306073 0.36122 0.417826 0.475639 0.53448 0.594262 0.654959 0.716697 0.779965 0.845632 0.913701 0.980463 1.04635 1.12672 1.25072 1.35221 1.37516 1.31068 1.08888 0.637735 0.195469 0.0246278 0.00085858 4.55625e-06 0 0 0.049615 0.0994109 0.149855 0.201303 0.253967 0.307986 0.36346 0.420397 0.478655 0.538077 0.598628 0.660499 0.724117 0.789791 0.856742 0.922709 0.990231 1.07528 1.19582 1.28779 1.31497 1.26313 1.074 0.674046 0.236359 0.0381752 0.00197886 1.99484e-05 3.41372e-08 0 0 0.0502008 0.100583 0.151801 0.204132 0.257662 0.312454 0.368575 0.426093 0.485005 0.545307 0.607141 0.670672 0.735666 0.801177 0.866871 0.938219 1.03088 1.14447 1.22232 1.24734 1.19999 1.02816 0.666535 0.253733 0.0482572 0.00328331 5.26639e-05 1.39713e-07 3.07309e-10 0 0 0.0511959 0.102616 0.155106 0.208728 0.263525 0.319456 0.376592 0.435056 0.494956 0.556339 0.619093 0.682836 0.747412 0.815085 0.893749 0.993781 1.09065 1.15419 1.17173 1.12185 0.955086 0.620083 0.245213 0.0512798 0.00415334 9.10962e-05 3.59773e-07 9.85568e-10 -3.11729e-11 0 0 0.0523911 0.105905 0.159372 0.21478 0.271133 0.328537 0.386936 0.446371 0.506906 0.568577 0.631692 0.697911 0.771665 0.859763 0.953574 1.02955 1.08087 1.08611 1.027 0.855872 0.540461 0.213939 0.0463395 0.0041157 0.000108557 5.74061e-07 1.71199e-09 7.20052e-11 1.7591e-13 0 0 0.0552658 0.105864 0.166769 0.221902 0.28038 0.339036 0.398227 0.458485 0.520651 0.586197 0.657845 0.739116 0.824169 0.899515 0.960928 0.995788 0.987058 0.911868 0.730395 0.43549 0.167136 0.0353802 0.00320146 9.06511e-05 5.73242e-07 2.15263e-09 8.48891e-12 -1.08972e-13 3.35655e-11 0 0 0.03446 0.116912 0.156038 0.235818 0.300369 0.363112 0.424921 0.487681 0.553333 0.624047 0.700579 0.773856 0.835632 0.88136 0.896838 0.869139 0.772595 0.579595 0.316968 0.114041 0.0222505 0.00190945 5.22096e-05 3.58125e-07 1.77253e-09 8.45453e-12 -5.91787e-14 7.04627e-14 -7.80978e-14 0 0 0.0324992 -0.0117781 0.167913 0.258298 0.340151 0.412576 0.481825 0.550182 0.617969 0.683425 0.740342 0.781118 0.80258 0.791977 0.734279 0.609564 0.411901 0.201561 0.0649146 0.010981 0.000825996 1.97321e-05 1.38498e-07 9.12558e-10 5.23363e-12 9.70772e-14 -7.04624e-14 8.49148e-14 -8.57643e-14 0 0 -0.365531 0.0333305 0.190699 0.311224 0.407988 0.494796 0.57699 0.655356 0.72725 0.786336 0.822138 0.822394 0.769389 0.645053 0.460413 0.259215 0.108192 0.0285463 0.00393369 0.000235023 4.49882e-06 3.35968e-08 3.04114e-10 3.5557e-11 -1.94289e-14 -3.33747e-11 -6.28812e-14 8.41193e-14 3.34292e-11 0 0 0 0 0 0 0 0 0 0 0 0 0 0 0 0 0 0 0 0 0 0 0 0 0 0 0 0 0 0 0 0
				</DataArray>
				<DataArray Name="VitesseY" type="Float32" format="ascii">
 0 0 0 0 0 0 0 0 0 0 0 0 0 0 0 0 0 0 0 0 0 0 0 0 0 0 0 0 0 0 0 -0.0572516 0.164786 0.16229 0.11282 0.0526074 0.0198507 0.0184994 0.0240974 0.0311229 0.0392249 0.0447371 0.0484518 0.0507742 0.0518705 0.052125 0.0520134 0.0515886 0.0509229 0.0501992 0.0496812 0.0494231 0.0494025 0.0496142 0.0502005 0.0511792 0.0524926 0.055247 0.0608191 0.069133 0.0850356 0 -0.153206 0.155355 0.235811 0.207219 0.148504 0.0922322 0.0749229 0.0768104 0.0844884 0.0933362 0.0999362 0.103875 0.10616 0.106953 0.106843 0.106101 0.104761 0.103009 0.101249 0.099951 0.0992161 0.0990588 0.0994098 0.10058 0.102633 0.105406 0.110775 0.121644 0.138913 0.168235 0 -0.159981 0.134962 0.316743 0.294019 0.231555 0.176948 0.152953 0.150681 0.154137 0.159015 0.162851 0.164267 0.164499 0.163959 0.162681 0.160768 0.158195 0.15516 0.152389 0.150392 0.149353 0.149206 0.149854 0.1518 0.155087 0.15946 0.167077 0.182682 0.208498 0.250833 0 -0.106667 0.120435 0.312379 0.323792 0.295835 0.251421 0.226161 0.22221 0.224825 0.226945 0.228226 0.227672 0.22576 0.222856 0.219521 0.215842 0.211762 0.207506 0.203924 0.201453 0.200297 0.200246 0.201302 0.20413 0.208727 0.21476 0.223928 0.243347 0.277587 0.333202 0 -0.0163034 0.155904 0.318423 0.34668 0.342589 0.317549 0.289269 0.28199 0.284416 0.288874 0.291366 0.291088 0.288291 0.283327 0.277436 0.27157 0.265832 0.260531 0.256295 0.253538 0.252386 0.252463 0.253966 0.257661 0.263522 0.271157 0.280992 0.303441 0.346133 0.415323 0 0.11301 0.234888 0.366605 0.396877 0.386671 0.362829 0.341117 0.339745 0.343009 0.346959 0.350845 0.351266 0.348924 0.343361 0.335796 0.327936 0.320821 0.314691 0.309975 0.307009 0.305874 0.306072 0.307986 0.312453 0.319455 0.328553 0.339146 0.363888 0.414279 0.497005 0 0.206142 0.285361 0.377864 0.411241 0.417688 0.411664 0.399432 0.395258 0.395975 0.400658 0.406134 0.407865 0.406387 0.401382 0.39348 0.384565 0.37665 0.37005 0.365097 0.362054 0.360937 0.361219 0.363459 0.368574 0.376593 0.386941 0.398244 0.425053 0.482263 0.577596 0 0.306371 0.36405 0.42815 0.456218 0.465862 0.46186 0.453481 0.447923 0.448966 0.453664 0.459453 0.461926 0.461459 0.457512 0.450117 0.441129 0.432971 0.426289 0.42137 0.418439 0.417427 0.417824 0.420395 0.426092 0.435056 0.446372 0.458487 0.487697 0.550281 0.655509 0 0.382946 0.425379 0.465915 0.488968 0.505289 0.508656 0.505576 0.502385 0.503488 0.507333 0.512417 0.515086 0.515093 0.512289 0.50594 0.497519 0.489604 0.483179 0.478511 0.475828 0.475016 0.475636 0.478653 0.485003 0.494956 0.506906 0.520651 0.553336 0.617991 0.727286 0 0.454534 0.486913 0.512322 0.530558 0.548016 0.556365 0.557445 0.557279 0.558561 0.561803 0.566022 0.568477 0.568687 0.566532 0.561228 0.553754 0.546438 0.540554 0.536345 0.534045 0.533514 0.534478 0.538075 0.545306 0.556339 0.568577 0.586197 0.624049 0.68343 0.786345 0 0.519584 0.544008 0.560438 0.574818 0.590812 0.602333 0.607693 0.610753 0.613504 0.616827 0.620385 0.622521 0.622736 0.620959 0.616397 0.609893 0.603443 0.598298 0.594745 0.592964 0.5928 0.59426 0.598627 0.60714 0.619093 0.631692 0.657846 0.70058 0.740344 0.82214 0 0.581012 0.599113 0.610258 0.621539 0.634906 0.64811 0.657007 0.663316 0.668121 0.671981 0.675145 0.676994 0.67722 0.675749 0.671835 0.666155 0.660617 0.656403 0.653641 0.652505 0.65279 0.654958 0.660498 0.670671 0.682836 0.697911 0.739118 0.773857 0.781118 0.822394 0 0.640244 0.653397 0.661815 0.670809 0.681792 0.694606 0.706203 0.715172 0.72198 0.726732 0.729947 0.731677 0.731923 0.730821 0.727653 0.722777 0.718166 0.714915 0.713013 0.712626 0.713528 0.716696 0.724116 0.735665 0.747412 0.771665 0.824169 0.835632 0.802579 0.769387 0 0.69871 0.707669 0.714397 0.721996 0.73154 0.743336 0.75606 0.766809 0.774973 0.780853 0.784536 0.78633 0.786707 0.786011 0.783614 0.779791 0.77621 0.773871 0.772984 0.773347 0.775114 0.779965 0.789791 0.801176 0.815084 0.859763 0.899515 0.88136 0.791975 0.645049 0 0.757175 0.762352 0.768052 0.775069 0.78393 0.794901 0.80751 0.818938 0.827864 0.834426 0.838684 0.840935 0.84155 0.841156 0.839614 0.837026 0.834515 0.833398 0.833593 0.834794 0.837919 0.845632 0.856741 0.86687 0.893749 0.953575 0.960927 0.896837 0.734277 0.460408 0 0.815976 0.818068 0.82311 0.830053 0.838623 0.848895 0.860798 0.872132 0.881174 0.888033 0.89274 0.895447 0.896506 0.896514 0.895846 0.894323 0.893337 0.893652 0.894871 0.897187 0.903173 0.913701 0.922708 0.938218 0.993781 1.02955 0.995787 0.869137 0.60956 0.259211 0 0.875575 0.875227 0.879965 0.886986 0.895315 0.904834 0.915686 0.926449 0.935242 0.942105 0.947028 0.950138 0.951804 0.952461 0.95247 0.952378 0.953155 0.95474 0.956933 0.961954 0.971805 0.980462 0.99023 1.03088 1.09065 1.08087 0.987055 0.772592 0.411897 0.10819 0 0.936356 0.934078 0.938804 0.945784 0.953717 0.962397 0.972026 0.981903 0.990234 0.996919 1.00197 1.00551 1.00775 1.00911 1.01032 1.01201 1.01416 1.01664 1.02145 1.03088 1.03931 1.04635 1.07528 1.14447 1.15419 1.0861 0.911865 0.579591 0.201558 0.0285456 0 0.998444 0.994747 0.999544 1.00631 1.01367 1.02144 1.02981 1.0386 1.0464 1.05288 1.05804 1.06195 1.06489 1.06748 1.07023 1.07309 1.07618 1.08143 1.09078 1.09876 1.1044 1.12672 1.19582 1.22231 1.17172 1.027 0.730391 0.316965 0.0649133 0.00393356 0 1.06185 1.05729 1.06211 1.06849 1.07515 1.08196 1.08919 1.09687 1.10412 1.11041 1.11575 1.12028 1.12431 1.12809 1.13173 1.13575 1.14196 1.15136 1.15843 1.16342 1.18345 1.25072 1.28779 1.24734 1.12184 0.855868 0.435487 0.114039 0.0109807 0.000235012 0 1.12672 1.12181 1.12652 1.13241 1.13829 1.14419 1.1504 1.15708 1.16384 1.17014 1.17589 1.18113 1.18593 1.19055 1.19586 1.20331 1.21233 1.21814 1.2232 1.24499 1.31296 1.3522 1.31497 1.19998 0.955081 0.540456 0.167134 0.02225 0.000825966 4.49856e-06 0 1.1933 1.18844 1.19288 1.19819 1.20331 1.20839 1.2138 1.21976 1.22615 1.23253 1.23858 1.24437 1.25028 1.25718 1.26562 1.2732 1.27798 1.28458 1.31301 1.38404 1.41574 1.37516 1.26312 1.02816 0.62008 0.213938 0.0353795 0.00190939 1.97312e-05 3.35949e-08 0 1.2619 1.25739 1.2614 1.26604 1.27045 1.27489 1.27973 1.28521 1.29133 1.29784 1.3046 1.31192 1.32007 1.32805 1.33391 1.33868 1.35057 1.39183 1.46235 1.47627 1.42686 1.31068 1.074 0.666534 0.245211 0.0463391 0.00320141 5.22076e-05 1.38491e-07 3.04099e-10 0 1.3329 1.32888 1.3323 1.33619 1.34 1.34402 1.34867 1.35417 1.36064 1.36797 1.37592 1.38373 1.39023 1.39548 1.40376 1.42846 1.48721 1.54031 1.5301 1.46746 1.33925 1.08888 0.674046 0.253734 0.0512797 0.00411567 9.06496e-05 3.58113e-07 9.12518e-10 3.5557e-11 0 1.40711 1.40342 1.40619 1.40941 1.41275 1.41693 1.42206 1.42818 1.43479 1.44155 1.44794 1.45398 1.46293 1.48381 1.53005 1.58938 1.60464 1.56972 1.49153 1.34147 1.06558 0.637738 0.236361 0.0482575 0.00415336 0.000108557 5.73236e-07 1.7725e-09 5.23338e-12 -1.94288e-14 0 1.48733 1.48673 1.48648 1.48688 1.49091 1.49374 1.49682 1.49947 1.5049 1.5143 1.52872 1.55474 1.59996 1.64904 1.66846 1.64661 1.59098 1.48989 1.30576 0.993341 0.555927 0.195472 0.0381759 0.00328336 9.10977e-05 5.74067e-07 2.15263e-09 8.45445e-12 9.70769e-14 -3.33747e-11 0 1.43489 1.41222 1.40207 1.39826 1.40149 1.43243 1.4739 1.52205 1.57044 1.61616 1.65883 1.69366 1.70781 1.69531 1.6559 1.58007 1.44413 1.2151 0.860277 0.43406 0.139329 0.0246283 0.00197892 5.26659e-05 3.59784e-07 1.71203e-09 8.48899e-12 -5.91787e-14 -7.04624e-14 -6.28812e-14 0 1.14653 1.16875 1.06331 0.987517 1.02835 1.08547 1.16295 1.25091 1.34402 1.4364 1.51885 1.57743 1.59851 1.57543 1.49069 1.32318 1.04693 0.661628 0.289919 0.0811119 0.0122847 0.000858611 1.99493e-05 1.3972e-07 9.85609e-10 7.20055e-11 -1.08972e-13 7.04627e-14 8.49148e-14 8.41193e-14 0 1.13396 0.725641 0.336065 0.410972 0.434396 0.492966 0.56548 0.650611 0.746965 0.85093 0.955913 1.05184 1.12184 1.13035 1.02445 0.767163 0.420357 0.155209 0.0355199 0.00436766 0.000243434 4.5565e-06 3.41391e-08 3.07324e-10 -3.11729e-11 1.7591e-13 3.35655e-11 -7.80978e-14 -8.57643e-14 3.34292e-11 0 2.71348 0 0 0 0 0 0 0 0 0 0 0 0 0 0 0 0 0 0 0 0 0 0 0 0 0 0 0 0 0 0
				</DataArray>
			</PointData>
			<CellData Scalars="Density">
				<DataArray Name="Density" type="Float32" format="ascii">