<?xml version="1.0"?>
<VTKFile type="PolyData">
	<PolyData>
		<Piece NumberOfPoints="961" NumberOfPolys="900">
			<Points>
				<DataArray type="Float32" NumberOfComponents="3" format="ascii">
 0 0 0 0.04 0 0 0.08 0 0 0.12 0 0 0.16 0 0 0.2 0 0 0.24 0 0 0.28 0 0 0.32 0 0 0.36 0 0 0.4 0 0 0.44 0 0 0.48 0 0 0.52 0 0 0.56 0 0 0.6 0 0 0.64 0 0 0.68 0 0 0.72 0 0 0.76 0 0 0.8 0 0 0.84 0 0 0.88 0 0 0.92 0 0 0.96 0 0 1 0 0 1.04 0 0 1.08 0 0 1.12 0 0 1.16 0 0 1.2 0 0 0 0.04 0 0.04 0.04 0 0.08 0.04 0 0.12 0.04 0 0.16 0.04 0 0.2 0.04 0 0.24 0.04 0 0.28 0.04 0 0.32 0.04 0 0.36 0.04 0 0.4 0.04 0 0.44 0.04 0 0.48 0.04 0 0.52 0.04 0 0.56 0.04 0 0.6 0.04 0 0.64 0.04 0 0.68 0.04 0 0.72 0.04 0 0.76 0.04 0 0.8 0.04 0 0.84 0.04 0 0.88 0.04 0 0.92 0.04 0 0.96 0.04 0 1 0.04 0 1.04 0.04 0 1.08 0.04 0 1.12 0.04 0 1.16 0.04 0 1.2 0.04 0 0 0.08 0 0.04 0.08 0 0.08 0.08 0 0.12 0.08 0 0.16 0.08 0 0.2 0.08 0 0.24 0.08 0 0.28 0.08 0 0.32 0.08 0 0.36 0.08 0 0.4 0.08 0 0.44 0.08 0 0.48 0.08 0 0.52 0.08 0 0.56 0.08 0 0.6 0.08 0 0.64 0.08 0 0.68 0.08 0 0.72 0.08 0 0.76 0.08 0 0.8 0.08 0 0.84 0.08 0 0.88 0.08 0 0.92 0.08 0 0.96 0.08 0 1 0.08 0 1.04 0.08 0 1.08 0.08 0 1.12 0.08 0 1.16 0.08 0 1.2 0.08 0 0 0.12 0 0.04 0.12 0 0.08 0.12 0 0.12 0.12 0 0.16 0.12 0 0.2 0.12 0 0.24 0.12 0 0.28 0.12 0 0.32 0.12 0 0.36 0.12 0 0.4 0.12 0 0.44 0.12 0 0.48 0.12 0 0.52 0.12 0 0.56 0.12 0 0.6 0.12 0 0.64 0.12 0 0.68 0.12 0 0.72 0.12 0 0.76 0.12 0 0.8 0.12 0 0.84 0.12 0 0.88 0.12 0 0.92 0.12 0 0.96 0.12 0 1 0.12 0 1.04 0.12 0 1.08 0.12 0 1.12 0.12 0 1.16 0.12 0 1.2 0.12 0 0 0.16 0 0.04 0.16 0 0.08 0.16 0 0.12 0.16 0 0.16 0.16 0 0.2 0.16 0 0.24 0.16 0 0.28 0.16 0 0.32 0.16 0 0.36 0.16 0 0.4 0.16 0 0.44 0.16 0 0.48 0.16 0 0.52 0.16 0 0.56 0.16 0 0.6 0.16 0 0.64 0.16 0 0.68 0.16 0 0.72 0.16 0 0.76 0.16 0 0.8 0.16 0 0.84 0.16 0 0.88 0.16 0 0.92 0.16 0 0.96 0.16 0 1 0.16 0 1.04 0.16 0 1.08 0.16 0 1.12 0.16 0 1.16 0.16 0 1.2 0.16 0 0 0.2 0 0.04 0.2 0 0.08 0.2 0 0.12 0.2 0 0.16 0.2 0 0.2 0.2 0 0.24 0.2 0 0.28 0.2 0 0.32 0.2 0 0.36 0.2 0 0.4 0.2 0 0.44 0.2 0 0.48 0.2 0 0.52 0.2 0 0.56 0.2 0 0.6 0.2 0 0.64 0.2 0 0.68 0.2 0 0.72 0.2 0 0.76 0.2 0 0.8 0.2 0 0.84 0.2 0 0.88 0.2 0 0.92 0.2 0 0.96 0.2 0 1 0.2 0 1.04 0.2 0 1.08 0.2 0 1.12 0.2 0 1.16 0.2 0 1.2 0.2 0 0 0.24 0 0.04 0.24 0 0.08 0.24 0 0.12 0.24 0 0.16 0.24 0 0.2 0.24 0 0.24 0.24 0 0.28 0.24 0 0.32 0.24 0 0.36 0.24 0 0.4 0.24 0 0.44 0.24 0 0.48 0.24 0 0.52 0.24 0 0.56 0.24 0 0.6 0.24 0 0.64 0.24 0 0.68 0.24 0 0.72 0.24 0 0.76 0.24 0 0.8 0.24 0 0.84 0.24 0 0.88 0.24 0 0.92 0.24 0 0.96 0.24 0 1 0.24 0 1.04 0.24 0 1.08 0.24 0 1.12 0.24 0 1.16 0.24 0 1.2 0.24 0 0 0.28 0 0.04 0.28 0 0.08 0.28 0 0.12 0.28 0 0.16 0.28 0 0.2 0.28 0 0.24 0.28 0 0.28 0.28 0 0.32 0.28 0 0.36 0.28 0 0.4 0.28 0 0.44 0.28 0 0.48 0.28 0 0.52 0.28 0 0.56 0.28 0 0.6 0.28 0 0.64 0.28 0 0.68 0.28 0 0.72 0.28 0 0.76 0.28 0 0.8 0.28 0 0.84 0.28 0 0.88 0.28 0 0.92 0.28 0 0.96 0.28 0 1 0.28 0 1.04 0.28 0 1.08 0.28 0 1.12 0.28 0 1.16 0.28 0 1.2 0.28 0 0 0.32 0 0.04 0.32 0 0.08 0.32 0 0.12 0.32 0 0.16 0.32 0 0.2 0.32 0 0.24 0.32 0 0.28 0.32 0 0.32 0.32 0 0.36 0.32 0 0.4 0.32 0 0.44 0.32 0 0.48 0.32 0 0.52 0.32 0 0.56 0.32 0 0.6 0.32 0 0.64 0.32 0 0.68 0.32 0 0.72 0.32 0 0.76 0.32 0 0.8 0.32 0 0.84 0.32 0 0.88 0.32 0 0.92 0.32 0 0.96 0.32 0 1 0.32 0 1.04 0.32 0 1.08 0.32 0 1.12 0.32 0 1.16 0.32 0 1.2 0.32 0 0 0.36 0 0.04 0.36 0 0.08 0.36 0 0.12 0.36 0 0.16 0.36 0 0.2 0.36 0 0.24 0.36 0 0.28 0.36 0 0.32 0.36 0 0.36 0.36 0 0.4 0.36 0 0.44 0.36 0 0.48 0.36 0 0.52 0.36 0 0.56 0.36 0 0.6 0.36 0 0.64 0.36 0 0.68 0.36 0 0.72 0.36 0 0.76 0.36 0 0.8 0.36 0 0.84 0.36 0 0.88 0.36 0 0.92 0.36 0 0.96 0.36 0 1 0.36 0 1.04 0.36 0 1.08 0.36 0 1.12 0.36 0 1.16 0.36 0 1.2 0.36 0 0 0.4 0 0.04 0.4 0 0.08 0.4 0 0.12 0.4 0 0.16 0.4 0 0.2 0.4 0 0.24 0.4 0 0.28 0.4 0 0.32 0.4 0 0.36 0.4 0 0.4 0.4 0 0.44 0.4 0 0.48 0.4 0 0.52 0.4 0 0.56 0.4 0 0.6 0.4 0 0.64 0.4 0 0.68 0.4 0 0.72 0.4 0 0.76 0.4 0 0.8 0.4 0 0.84 0.4 0 0.88 0.4 0 0.92 0.4 0 0.96 0.4 0 1 0.4 0 1.04 0.4 0 1.08 0.4 0 1.12 0.4 0 1.16 0.4 0 1.2 0.4 0 0 0.44 0 0.04 0.44 0 0.08 0.44 0 0.12 0.44 0 0.16 0.44 0 0.2 0.44 0 0.24 0.44 0 0.28 0.44 0 0.32 0.44 0 0.36 0.44 0 0.4 0.44 0 0.44 0.44 0 0.48 0.44 0 0.52 0.44 0 0.56 0.44 0 0.6 0.44 0 0.64 0.44 0 0.68 0.44 0 0.72 0.44 0 0.76 0.44 0 0.8 0.44 0 0.84 0.44 0 0.88 0.44 0 0.92 0.44 0 0.96 0.44 0 1 0.44 0 1.04 0.44 0 1.08 0.44 0 1.12 0.44 0 1.16 0.44 0 1.2 0.44 0 0 0.48 0 0.04 0.48 0 0.08 0.48 0 0.12 0.48 0 0.16 0.48 0 0.2 0.48 0 0.24 0.48 0 0.28 0.48 0 0.32 0.48 0 0.36 0.48 0 0.4 0.48 0 0.44 0.48 0 0.48 0.48 0 0.52 0.48 0 0.56 0.48 0 0.6 0.48 0 0.64 0.48 0 0.68 0.48 0 0.72 0.48 0 0.76 0.48 0 0.8 0.48 0 0.84 0.48 0 0.88 0.48 0 0.92 0.48 0 0.96 0.48 0 1 0.48 0 1.04 0.48 0 1.08 0.48 0 1.12 0.48 0 1.16 0.48 0 1.2 0.48 0 0 0.52 0 0.04 0.52 0 0.08 0.52 0 0.12 0.52 0 0.16 0.52 0 0.2 0.52 0 0.24 0.52 0 0.28 0.52 0 0.32 0.52 0 0.36 0.52 0 0.4 0.52 0 0.44 0.52 0 0.48 0.52 0 0.52 0.52 0 0.56 0.52 0 0.6 0.52 0 0.64 0.52 0 0.68 0.52 0 0.72 0.52 0 0.76 0.52 0 0.8 0.52 0 0.84 0.52 0 0.88 0.52 0 0.92 0.52 0 0.96 0.52 0 1 0.52 0 1.04 0.52 0 1.08 0.52 0 1.12 0.52 0 1.16 0.52 0 1.2 0.52 0 0 0.56 0 0.04 0.56 0 0.08 0.56 0 0.12 0.56 0 0.16 0.56 0 0.2 0.56 0 0.24 0.56 0 0.28 0.56 0 0.32 0.56 0 0.36 0.56 0 0.4 0.56 0 0.44 0.56 0 0.48 0.56 0 0.52 0.56 0 0.56 0.56 0 0.6 0.56 0 0.64 0.56 0 0.68 0.56 0 0.72 0.56 0 0.76 0.56 0 0.8 0.56 0 0.84 0.56 0 0.88 0.56 0 0.92 0.56 0 0.96 0.56 0 1 0.56 0 1.04 0.56 0 1.08 0.56 0 1.12 0.56 0 1.16 0.56 0 1.2 0.56 0 0 0.6 0 0.04 0.6 0 0.08 0.6 0 0.12 0.6 0 0.16 0.6 0 0.2 0.6 0 0.24 0.6 0 0.28 0.6 0 0.32 0.6 0 0.36 0.6 0 0.4 0.6 0 0.44 0.6 0 0.48 0.6 0 0.52 0.6 0 0.56 0.6 0 0.6 0.6 0 0.64 0.6 0 0.68 0.6 0 0.72 0.6 0 0.76 0.6 0 0.8 0.6 0 0.84 0.6 0 0.88 0.6 0 0.92 0.6 0 0.96 0.6 0 1 0.6 0 1.04 0.6 0 1.08 0.6 0 1.12 0.6 0 1.16 0.6 0 1.2 0.6 0 0 0.64 0 0.04 0.64 0 0.08 0.64 0 0.12 0.64 0 0.16 0.64 0 0.2 0.64 0 0.24 0.64 0 0.28 0.64 0 0.32 0.64 0 0.36 0.64 0 0.4 0.64 0 0.44 0.64 0 0.48 0.64 0 0.52 0.64 0 0.56 0.64 0 0.6 0.64 0 0.64 0.64 0 0.68 0.64 0 0.72 0.64 0 0.76 0.64 0 0.8 0.64 0 0.84 0.64 0 0.88 0.64 0 0.92 0.64 0 0.96 0.64 0 1 0.64 0 1.04 0.64 0 1.08 0.64 0 1.12 0.64 0 1.16 0.64 0 1.2 0.64 0 0 0.68 0 0.04 0.68 0 0.08 0.68 0 0.12 0.68 0 0.16 0.68 0 0.2 0.68 0 0.24 0.68 0 0.28 0.68 0 0.32 0.68 0 0.36 0.68 0 0.4 0.68 0 0.44 0.68 0 0.48 0.68 0 0.52 0.68 0 0.56 0.68 0 0.6 0.68 0 0.64 0.68 0 0.68 0.68 0 0.72 0.68 0 0.76 0.68 0 0.8 0.68 0 0.84 0.68 0 0.88 0.68 0 0.92 0.68 0 0.96 0.68 0 1 0.68 0 1.04 0.68 0 1.08 0.68 0 1.12 0.68 0 1.16 0.68 0 1.2 0.68 0 0 0.72 0 0.04 0.72 0 0.08 0.72 0 0.12 0.72 0 0.16 0.72 0 0.2 0.72 0 0.24 0.72 0 0.28 0.72 0 0.32 0.72 0 0.36 0.72 0 0.4 0.72 0 0.44 0.72 0 0.48 0.72 0 0.52 0.72 0 0.56 0.72 0 0.6 0.72 0 0.64 0.72 0 0.68 0.72 0 0.72 0.72 0 0.76 0.72 0 0.8 0.72 0 0.84 0.72 0 0.88 0.72 0 0.92 0.72 0 0.96 0.72 0 1 0.72 0 1.04 0.72 0 1.08 0.72 0 1.12 0.72 0 1.16 0.72 0 1.2 0.72 0 0 0.76 0 0.04 0.76 0 0.08 0.76 0 0.12 0.76 0 0.16 0.76 0 0.2 0.76 0 0.24 0.76 0 0.28 0.76 0 0.32 0.76 0 0.36 0.76 0 0.4 0.76 0 0.44 0.76 0 0.48 0.76 0 0.52 0.76 0 0.56 0.76 0 0.6 0.76 0 0.64 0.76 0 0.68 0.76 0 0.72 0.76 0 0.76 0.76 0 0.8 0.76 0 0.84 0.76 0 0.88 0.76 0 0.92 0.76 0 0.96 0.76 0 1 0.76 0 1.04 0.76 0 1.08 0.76 0 1.12 0.76 0 1.16 0.76 0 1.2 0.76 0 0 0.8 0 0.04 0.8 0 0.08 0.8 0 0.12 0.8 0 0.16 0.8 0 0.2 0.8 0 0.24 0.8 0 0.28 0.8 0 0.32 0.8 0 0.36 0.8 0 0.4 0.8 0 0.44 0.8 0 0.48 0.8 0 0.52 0.8 0 0.56 0.8 0 0.6 0.8 0 0.64 0.8 0 0.68 0.8 0 0.72 0.8 0 0.76 0.8 0 0.8 0.8 0 0.84 0.8 0 0.88 0.8 0 0.92 0.8 0 0.96 0.8 0 1 0.8 0 1.04 0.8 0 1.08 0.8 0 1.12 0.8 0 1.16 0.8 0 1.2 0.8 0 0 0.84 0 0.04 0.84 0 0.08 0.84 0 0.12 0.84 0 0.16 0.84 0 0.2 0.84 0 0.24 0.84 0 0.28 0.84 0 0.32 0.84 0 0.36 0.84 0 0.4 0.84 0 0.44 0.84 0 0.48 0.84 0 0.52 0.84 0 0.56 0.84 0 0.6 0.84 0 0.64 0.84 0 0.68 0.84 0 0.72 0.84 0 0.76 0.84 0 0.8 0.84 0 0.84 0.84 0 0.88 0.84 0 0.92 0.84 0 0.96 0.84 0 1 0.84 0 1.04 0.84 0 1.08 0.84 0 1.12 0.84 0 1.16 0.84 0 1.2 0.84 0 0 0.88 0 0.04 0.88 0 0.08 0.88 0 0.12 0.88 0 0.16 0.88 0 0.2 0.88 0 0.24 0.88 0 0.28 0.88 0 0.32 0.88 0 0.36 0.88 0 0.4 0.88 0 0.44 0.88 0 0.48 0.88 0 0.52 0.88 0 0.56 0.88 0 0.6 0.88 0 0.64 0.88 0 0.68 0.88 0 0.72 0.88 0 0.76 0.88 0 0.8 0.88 0 0.84 0.88 0 0.88 0.88 0 0.92 0.88 0 0.96 0.88 0 1 0.88 0 1.04 0.88 0 1.08 0.88 0 1.12 0.88 0 1.16 0.88 0 1.2 0.88 0 0 0.92 0 0.04 0.92 0 0.08 0.92 0 0.12 0.92 0 0.16 0.92 0 0.2 0.92 0 0.24 0.92 0 0.28 0.92 0 0.32 0.92 0 0.36 0.92 0 0.4 0.92 0 0.44 0.92 0 0.48 0.92 0 0.52 0.92 0 0.56 0.92 0 0.6 0.92 0 0.64 0.92 0 0.68 0.92 0 0.72 0.92 0 0.76 0.92 0 0.8 0.92 0 0.84 0.92 0 0.88 0.92 0 0.92 0.92 0 0.96 0.92 0 1 0.92 0 1.04 0.92 0 1.08 0.92 0 1.12 0.92 0 1.16 0.92 0 1.2 0.92 0 0 0.96 0 0.04 0.96 0 0.08 0.96 0 0.12 0.96 0 0.16 0.96 0 0.2 0.96 0 0.24 0.96 0 0.28 0.96 0 0.32 0.96 0 0.36 0.96 0 0.4 0.96 0 0.44 0.96 0 0.48 0.96 0 0.52 0.96 0 0.56 0.96 0 0.6 0.96 0 0.64 0.96 0 0.68 0.96 0 0.72 0.96 0 0.76 0.96 0 0.8 0.96 0 0.84 0.96 0 0.88 0.96 0 0.92 0.96 0 0.96 0.96 0 1 0.96 0 1.04 0.96 0 1.08 0.96 0 1.12 0.96 0 1.16 0.96 0 1.2 0.96 0 0 1 0 0.04 1 0 0.08 1 0 0.12 1 0 0.16 1 0 0.2 1 0 0.24 1 0 0.28 1 0 0.32 1 0 0.36 1 0 0.4 1 0 0.44 1 0 0.48 1 0 0.52 1 0 0.56 1 0 0.6 1 0 0.64 1 0 0.68 1 0 0.72 1 0 0.76 1 0 0.8 1 0 0.84 1 0 0.88 1 0 0.92 1 0 0.96 1 0 1 1 0 1.04 1 0 1.08 1 0 1.12 1 0 1.16 1 0 1.2 1 0 0 1.04 0 0.04 1.04 0 0.08 1.04 0 0.12 1.04 0 0.16 1.04 0 0.2 1.04 0 0.24 1.04 0 0.28 1.04 0 0.32 1.04 0 0.36 1.04 0 0.4 1.04 0 0.44 1.04 0 0.48 1.04 0 0.52 1.04 0 0.56 1.04 0 0.6 1.04 0 0.64 1.04 0 0.68 1.04 0 0.72 1.04 0 0.76 1.04 0 0.8 1.04 0 0.84 1.04 0 0.88 1.04 0 0.92 1.04 0 0.96 1.04 0 1 1.04 0 1.04 1.04 0 1.08 1.04 0 1.12 1.04 0 1.16 1.04 0 1.2 1.04 0 0 1.08 0 0.04 1.08 0 0.08 1.08 0 0.12 1.08 0 0.16 1.08 0 0.2 1.08 0 0.24 1.08 0 0.28 1.08 0 0.32 1.08 0 0.36 1.08 0 0.4 1.08 0 0.44 1.08 0 0.48 1.08 0 0.52 1.08 0 0.56 1.08 0 0.6 1.08 0 0.64 1.08 0 0.68 1.08 0 0.72 1.08 0 0.76 1.08 0 0.8 1.08 0 0.84 1.08 0 0.88 1.08 0 0.92 1.08 0 0.96 1.08 0 1 1.08 0 1.04 1.08 0 1.08 1.08 0 1.12 1.08 0 1.16 1.08 0 1.2 1.08 0 0 1.12 0 
[...]
			<PointData Scalars="VitesseX">
				<DataArray Name="VitesseX" type="Float32" format="ascii">
 0 -0.087014 -0.235309 -0.309273 -0.359821 -0.388651 -0.432634 -0.516943 -0.66741 -0.893973 -1.18348 -1.50705 -1.82312 -2.09882 -2.30974 -2.42638 -2.44611 -2.3983 -2.28591 -2.12996 -1.94893 -1.7544 -1.55306 -1.35213 -1.15651 -0.967933 -0.784999 -0.601948 -0.412774 -0.206871 0 0 0.0565902 -0.0289731 -0.139023 -0.233072 -0.305796 -0.384219 -0.503945 -0.67877 -0.911934 -1.19835 -1.51512 -1.82472 -2.09521 -2.30299 -2.41908 -2.43907 -2.39205 -2.28114 -2.12664 -1.94666 -1.75281 -1.55187 -1.35108 -1.15558 -0.967206 -0.784648 -0.602161 -0.413606 -0.207429 0 0 0.0463355 0.0450063 -0.0196695 -0.117843 -0.24559 -0.391778 -0.559197 -0.760996 -1.00093 -1.27476 -1.56741 -1.85063 -2.09915 -2.29315 -2.405 -2.42451 -2.37863 -2.27054 -2.11873 -1.94075 -1.74832 -1.54846 -1.34805 -1.15274 -0.964605 -0.78275 -0.60146 -0.414151 -0.208112 0 0 0.0210006 0.017186 -0.0331832 -0.120025 -0.246522 -0.407755 -0.595628 -0.81456 -1.06085 -1.32612 -1.59657 -1.85404 -2.08124 -2.26188 -2.37381 -2.39754 -2.35683 -2.25501 -2.10824 -1.93373 -1.74355 -1.54522 -1.3452 -1.14982 -0.961656 -0.780384 -0.600409 -0.414517 -0.208943 0 0 -0.0222373 -0.0289046 -0.0510813 -0.112338 -0.215662 -0.361862 -0.543269 -0.757577 -1.00252 -1.26845 -1.53947 -1.79392 -2.01508 -2.19339 -2.31498 -2.35277 -2.32384 -2.23351 -2.09535 -1.9265 -1.73978 -1.5436 -1.34408 -1.14824 -0.959479 -0.778282 -0.599402 -0.415047 -0.21005 0 0 -0.0472442 -0.067326 -0.0703906 -0.0995302 -0.168864 -0.285589 -0.444637 -0.640181 -0.870969 -1.12855 -1.39786 -1.65789 -1.88905 -2.07928 -2.21913 -2.2836 -2.27427 -2.20212 -2.07751 -1.91754 -1.73612 -1.54299 -1.34445 -1.14797 -0.95819 -0.776574 -0.598507 -0.415682 -0.211395 0 0 -0.0441383 -0.0603963 -0.0599059 -0.0711017 -0.109765 -0.191252 -0.317809 -0.486748 -0.695509 -0.936305 -1.19758 -1.46156 -1.70671 -1.91626 -2.079 -2.17963 -2.19993 -2.15438 -2.05021 -1.90384 -1.73073 -1.54219 -1.34579 -1.14879 -0.957709 -0.775165 -0.597554 -0.416278 -0.212971 0 0 -0.023782 -0.0212822 -0.00636196 0.00043015 -0.0179247 -0.072177 -0.167296 -0.306008 -0.487452 -0.706739 -0.953387 -1.21447 -1.47004 -1.69968 -1.88882 -2.02614 -2.09048 -2.0809 -2.00693 -1.88121 -1.72099 -1.53978 -1.34725 -1.15049 -0.957887 -0.773933 -0.596389 -0.416713 -0.214888 0 0 0.00471825 0.0272944 0.0612312 0.0896787 0.0956073 0.0693418 0.0042476 -0.10248 -0.2533 -0.445334 -0.671325 -0.919829 -1.17692 -1.42321 -1.64055 -1.81449 -1.93091 -1.96964 -1.93809 -1.8437 -1.70335 -1.53377 -1.34739 -1.15268 -0.958672 -0.772814 -0.594901 -0.416847 -0.217233 0 0 0.0366564 0.0821746 0.134432 0.18225 0.211633 0.212106 0.177369 0.103119 -0.0121682 -0.17076 -0.366292 -0.591154 -0.835676 -1.08726 -1.32871 -1.54103 -1.70689 -1.80787 -1.83005 -1.78195 -1.67261 -1.52134 -1.34475 -1.15462 -0.960096 -0.771908 -0.593033 -0.416496 -0.22001 0 0 0.0696538 0.141025 0.210853 0.274907 0.32489 0.349481 0.341233 0.297438 0.213834 0.0910926 -0.0697993 -0.260719 -0.47622 -0.712361 -0.960014 -1.20254 -1.41664 -1.57976 -1.67036 -1.68131 -1.61993 -1.49813 -1.33741 -1.15496 -0.962196 -0.771525 -0.590833 -0.41546 -0.223107 0 0 0.101032 0.198803 0.286766 0.365341 0.431905 0.477145 0.493039 0.474888 0.419171 0.325296 0.197024 0.040023 -0.139558 -0.340699 -0.566238 -0.812225 -1.06092 -1.28161 -1.44509 -1.5283 -1.53026 -1.4562 -1.32204 -1.15223 -0.964603 -0.772075 -0.588612 -0.413607 -0.226284 0 0 0.12858 0.250211 0.356456 0.448261 0.527929 0.590125 0.627545 0.632282 0.600531 0.529735 0.425497 0.295995 0.148891 -0.0132894 -0.197463 -0.41309 -0.659622 -0.917928 -1.14761 -1.3121 -1.38836 -1.38063 -1.29198 -1.1443 -0.965895 -0.774041 -0.586933 -0.411006 -0.229143 0 0 0.148716 0.28888 0.411318 0.516029 0.607153 0.684174 0.739771 0.765862 0.754998 0.7043 0.616921 0.504409 0.379291 0.248351 0.107922 -0.0581511 -0.26572 -0.514867 -0.784312 -1.02292 -1.18653 -1.25396 -1.23305 -1.12624 -0.964487 -0.77763 -0.586538 -0.408154 -0.231123 0 0 0.157819 0.307085 0.439749 0.55554 0.658493 0.749654 0.823496 0.870645 0.882182 0.851997 0.779027 0.675422 0.55849 0.443661 0.335006 0.218049 0.0691986 -0.13229 -0.386075 -0.666987 -0.91222 -1.07053 -1.1254 -1.08545 -0.957077 -0.781567 -0.588425 -0.405797 -0.231961 0 0 0.157216 0.306471 0.441324 0.562164 0.67234 0.773633 0.863496 0.934973 0.975947 0.97302 0.920912 0.824573 0.706905 0.590885 0.492317 0.408911 0.314463 0.180175 -0.0175605 -0.277604 -0.569262 -0.816571 -0.963157 -1.00039 -0.934023 -0.783048 -0.593626 -0.40503 -0.231706 0 0 0.149309 0.291846 0.422696 0.542904 0.654722 0.759463 0.858837 0.948106 1.01921 1.05602 1.04013 0.96433 0.845559 0.718101 0.609069 0.530593 0.471853 0.396813 0.27336 0.0768188 -0.190947 -0.491533 -0.734226 -0.861435 -0.874387 -0.775626 -0.601463 -0.407163 -0.230964 0 0 0.135898 0.266205 0.386584 0.499558 0.606494 0.710731 0.814466 0.914966 1.00929 1.08345 1.11648 1.08694 0.986958 0.848578 0.717943 0.62093 0.563431 0.525961 0.465885 0.34925 0.150674 -0.126333 -0.432304 -0.661413 -0.761214 -0.741381 -0.606202 -0.413773 -0.230912 0 0 0.119804 0.233057 0.339537 0.437948 0.533408 0.631549 0.734658 0.842462 0.952302 1.05432 1.13379 1.16212 1.11732 0.994135 0.841823 0.714303 0.632511 0.594095 0.573209 0.523231 0.409033 0.204584 -0.0829507 -0.388323 -0.592341 -0.657341 -0.594955 -0.424306 -0.233181 0 0 0.103205 0.199274 0.288479 0.366016 0.445333 0.530281 0.626366 0.736553 0.857468 0.98026 1.09155 1.17421 1.19608 1.13512 0.992048 0.833058 0.713582 0.647603 0.624571 0.615508 0.570873 0.454121 0.239039 -0.0594218 -0.35442 -0.52005 -0.542846 -0.429091 -0.239184 0 0 0.0875256 0.169295 0.237834 0.295468 0.353814 0.419229 0.501647 0.606136 0.73221 0.871447 1.00651 1.12392 1.20555 1.21982 1.14432 0.987372 0.828811 0.720048 0.668198 0.656381 0.654766 0.610465 0.484913 0.253955 -0.0534968 -0.322282 -0.437138 -0.409955 -0.246218 0 0 0.0728737 0.141967 0.191037 0.233779 0.271147 0.318865 0.387864 0.481296 0.598328 0.737098 0.889173 1.0312 1.14938 1.22635 1.23377 1.14854 0.98567 0.833033 0.735414 0.694666 0.690212 0.691989 0.64208 0.500063 0.249444 -0.0589755 -0.280191 -0.340666 -0.243311 0 0 0.059331 0.113187 0.151226 0.183297 0.20493 0.242017 0.302238 0.384981 0.487774 0.6102 0.751971 0.906337 1.04915 1.16394 1.23482 1.23819 1.15082 0.990776 0.84732 0.759749 0.726821 0.726235 0.727135 0.664339 0.497484 0.226414 -0.0651235 -0.218612 -0.208603 0 0 0.0462287 0.0823308 0.121515 0.143154 0.157219 0.191139 0.247251 0.321821 0.411192 0.514215 0.632278 0.767163 0.915395 1.05492 1.16463 1.23015 1.23382 1.15336 1.00449 0.872443 0.793361 0.765143 0.765157 0.759021 0.673589 0.475296 0.189719 -0.052702 -0.124539 0 0 0.0275569 0.0539973 0.100329 0.110434 0.124883 0.160461 0.215194 0.284372 0.363489 0.450475 0.54612 0.653339 0.775696 0.912265 1.04553 1.15068 1.21343 1.22208 1.15752 1.02788 0.909014 0.837126 0.810859 0.807332 0.783751 0.666222 0.431797 0.151024 -0.00271695 0 0 0.00119703 0.0340387 0.0804724 0.0833613 0.102532 0.140504 0.194786 0.260481 0.332293 0.407767 0.487167 0.572603 0.667479 0.775662 0.897852 1.02247 1.12414 1.18778 1.20484 1.1626 1.05986 0.956198 0.890604 0.864264 0.85162 0.793892 0.634028 0.373885 0.142688 0 0 -0.0329273 0.0240222 0.0471749 0.0614186 0.0845211 0.123569 0.177558 0.240382 0.306376 0.373407 0.441673 0.512558 0.588323 0.672056 0.767437 0.875977 0.990319 1.08832 1.15537 1.18199 1.16408 1.09479 1.01103 0.954643 0.923619 0.883449 0.788128 0.585048 0.311596 0 0 -0.0644679 0.00480249 0.00929686 0.0428932 0.0666329 0.105362 0.159185 0.218773 0.279421 0.339453 0.399251 0.459841 0.523035 0.591162 0.666705 0.752382 0.849546 0.953484 1.04717 1.11761 1.15241 1.15572 1.12418 1.0661 1.01553 0.976291 0.912576 0.761209 0.490346 0 0 -0.0750897 -0.0647264 -0.0115037 0.0191968 0.0420471 0.0768659 0.129553 0.18466 0.239686 0.294031 0.347797 0.401665 0.456782 0.514817 0.577767 0.647882 0.727659 0.818692 0.917788 1.01141 1.08549 1.13076 1.14194 1.13916 1.12212 1.09801 1.05533 0.938943 0.673231 0 0 -0.289612 -0.090506 -0.0134235 -0.000947276 -0.000892143 0.0251037 0.0579066 0.098497 0.141039 0.183806 0.227229 0.272359 0.32043 0.372779 0.430857 0.496289 0.571035 0.657809 0.759755 0.878015 1.00653 1.12731 1.22162 1.27243 1.2979 1.30702 1.27879 1.16242 0.930264 0 0 0 0 0 0 0 0 0 0 0 0 0 0 0 0 0 0 0 0 0 0 0 0 0 0 0 0 0 0 0 0
				</DataArray>
				<DataArray Name="VitesseY" type="Float32" format="ascii">
 0 0 0 0 0 0 0 0 0 0 0 0 0 0 0 0 0 0 0 0 0 0 0 0 0 0 0 0 0 0 0 -0.043693 0.0990223 0.0834566 0.0524244 0.00791544 -0.0159329 -0.0119497 0.0111618 0.0452785 0.0847631 0.124162 0.157656 0.180616 0.189479 0.186699 0.173812 0.153847 0.130451 0.106452 0.0849353 0.0676888 0.0551413 0.0467877 0.0415996 0.0382747 0.0356071 0.0329092 0.0294866 0.0238895 0.0126894 0 -0.147464 0.0631555 0.138735 0.105687 0.0534806 0.0111359 0.0151326 0.0534119 0.106546 0.171332 0.240339 0.302089 0.346693 0.366262 0.36376 0.341855 0.30535 0.261292 0.214869 0.172436 0.137898 0.112456 0.0953685 0.0847101 0.0779 0.0724589 0.0669443 0.0599306 0.0487898 0.025554 0 -0.179292 0.00316112 0.137846 0.124077 0.0993938 0.0709107 0.0720534 0.11733 0.181722 0.258518 0.342733 0.423037 0.486507 0.519995 0.522634 0.499026 0.452671 0.392722 0.326661 0.264392 0.212622 0.173811 0.147351 0.130624 0.119859 0.111299 0.102719 0.0920732 0.0752494 0.0394072 0 -0.201835 -0.0545732 0.098248 0.108766 0.111234 0.111435 0.12415 0.180305 0.256547 0.342939 0.435736 0.526928 0.603566 0.651207 0.662748 0.644747 0.596241 0.525619 0.44347 0.362679 0.293644 0.240703 0.203904 0.180219 0.164803 0.152631 0.140626 0.126191 0.103749 0.0551903 0 -0.201366 -0.0906052 0.0290022 0.053448 0.0796153 0.111294 0.14793 0.217774 0.311311 0.412272 0.517443 0.618785 0.705498 0.766132 0.789007 0.779994 0.735673 0.660189 0.566458 0.46888 0.382464 0.314293 0.265774 0.233888 0.212916 0.19658 0.180796 0.162434 0.134513 0.0733302 0 -0.20608 -0.124191 -0.0588739 -0.038133 0.00484911 0.062613 0.128655 0.217537 0.331556 0.452395 0.574063 0.690388 0.791114 0.866597 0.904056 0.90385 0.868183 0.795388 0.695622 0.584337 0.480609 0.395817 0.333695 0.291923 0.264221 0.243056 0.223098 0.200662 0.167438 0.0938459 0 -0.232429 -0.184791 -0.163637 -0.156512 -0.107457 -0.0308813 0.0622577 0.174533 0.310266 0.453098 0.595434 0.731193 0.851032 0.945442 1.00261 1.01503 0.990701 0.927199 0.829134 0.709832 0.589734 0.486933 0.408878 0.354982 0.318908 0.291962 0.267327 0.240631 0.202329 0.116769 0 -0.307749 -0.288668 -0.303001 -0.31253 -0.259097 -0.166857 -0.0509663 0.0848271 0.243881 0.410369 0.57508 0.73189 0.873838 0.991215 1.07368 1.10837 1.09824 1.04914 0.962243 0.844056 0.711533 0.589888 0.493224 0.424303 0.377607 0.343529 0.313522 0.282257 0.239141 0.142286 0 -0.452297 -0.447552 -0.484987 -0.508014 -0.453546 -0.348538 -0.212989 -0.0533879 0.128841 0.320143 0.508097 0.686519 0.850072 0.990647 1.10153 1.17092 1.18733 1.15647 1.08599 0.980209 0.846026 0.707197 0.589423 0.501906 0.441576 0.398427 0.362077 0.325731 0.278034 0.170741 0 -0.671788 -0.671887 -0.715913 -0.743095 -0.687943 -0.573922 -0.421321 -0.240902 -0.0352893 0.181205 0.39325 0.592744 0.774879 0.937164 1.07495 1.18009 1.23874 1.24221 1.19418 1.10676 0.986065 0.840015 0.700749 0.590716 0.512825 0.457865 0.41372 0.371488 0.319301 0.202581 0 -0.958294 -0.958104 -0.99489 -1.01313 -0.956746 -0.834878 -0.669728 -0.471371 -0.245267 -0.00215583 0.235504 0.455412 0.654428 0.830361 0.987047 1.12414 1.22898 1.28132 1.27621 1.21554 1.11524 0.982552 0.829529 0.694481 0.594192 0.523689 0.469531 0.420216 0.363311 0.23832 0 -1.28684 -1.28428 -1.30566 -1.30596 -1.24541 -1.11911 -0.945948 -0.73549 -0.490906 -0.223948 0.0422179 0.28654 0.501539 0.687885 0.850717 1.00097 1.1404 1.25057 1.30258 1.29279 1.22372 1.11388 0.971548 0.816442 0.689398 0.598392 0.531007 0.472872 0.410541 0.278489 0 -1.61512 -1.60975 -1.61379 -1.59547 -1.52826 -1.40412 -1.23226 -1.01761 -0.761692 -0.473756 -0.178932 0.0946082 0.332214 0.529375 0.694646 0.841225 0.985377 1.12937 1.2495 1.30693 1.29548 1.22105 1.10401 0.954065 0.802166 0.685198 0.600084 0.53081 0.461578 0.323629 0 -1.90364 -1.89565 -1.88501 -1.85144 -1.77947 -1.66289 -1.50213 -1.29572 -1.04095 -0.743202 -0.423159 -0.115357 0.153838 0.372716 0.542997 0.683248 0.812796 0.950475 1.0998 1.23291 1.29959 1.2876 1.20919 1.08598 0.931459 0.787554 0.679365 0.595643 0.517303 0.374379 0 -2.12823 -2.11791 -2.0962 -2.05235 -1.97945 -1.87371 -1.73104 -1.54456 -1.30723 -1.01799 -0.68819 -0.348212 -0.0376811 0.217771 0.411333 0.551248 0.665726 0.778641 0.90915 1.06298 1.20951 1.28535 1.2717 1.1892 1.06012 0.905722 0.771884 0.669236 0.579033 0.43164 0 -2.27496 -2.2631 -2.23412 -2.18535 -2.11548 -2.0223 -1.901 -1.7429 -1.53706 -1.27673 -0.961949 -0.609129 -0.258346 0.0477413 0.284538 0.451071 0.561637 0.652043 0.749409 0.873182 1.03 1.18718 1.2677 1.24938 1.16192 1.02802 0.878667 0.753787 0.648532 0.496673 0 -2.32009 -2.3079 -2.27702 -2.23015 -2.1691 -2.09343 -1.99869 -1.87471 -1.71011 -1.49405 -1.21904 -0.886333 -0.51775 -0.162596 0.134803 0.35165 0.49282 0.577929 0.647769 0.731847 0.850326 1.00848 1.171 1.2485 1.22189 1.12833 0.992032 0.850323 0.728003 0.571226 0 -2.28377 -2.27116 -2.23924 -2.19421 -2.14076 -2.08096 -2.01116 -1.92413 -1.80861 -1.64788 -1.42883 -1.14601 -0.801488 -0.423117 -0.0682278 0.218061 0.416157 0.535429 0.600139 0.65433 0.728609 0.843392 1.00156 1.16255 1.22827 1.19082 1.08956 0.953929 0.818875 0.657905 0 -2.17029 -2.15756 -2.12486 -2.08103 -2.03472 -1.99035 -1.94471 -1.89193 -1.82097 -1.71832 -1.56717 -1.35044 -1.06486 -0.714358 -0.331698 0.0193138 0.293754 0.475261 0.577121 0.626867 0.670882 0.739043 0.851782 1.00895 1.16116 1.207 1.15624 1.04746 0.917887 0.759804 0 -2.00427 -1.99141 -1.95679 -1.91325 -1.87252 -1.83935 -1.81326 -1.78957 -1.75825 -1.70524 -1.61488 -1.47272 -1.26248 -0.979793 -0.629998 -0.248423 0.0962196 0.359369 0.527453 0.617 0.657215 0.695626 0.761139 0.874156 1.02945 1.16383 1.1826 1.1178 1.01147 0.878039 0 -1.81142 -1.79651 -1.75893 -1.7159 -1.6788 -1.65403 -1.64515 -1.64335 -1.63904 -1.62207 -1.58087 -1.50013 -1.36625 -1.16716 -0.894396 -0.552686 -0.177052 0.159918 0.413609 0.572624 0.655298 0.690491 0.727139 0.793842 0.909592 1.06033 1.16443 1.15253 1.08552 1.00654 0 -1.60523 -1.58555 -1.54595 -1.50324 -1.46839 -1.45625 -1.46256 -1.47582 -1.48707 -1.48954 -1.4784 -1.44453 -1.37367 -1.25039 -1.06722 -0.811999 -0.485732 -0.120604 0.208459 0.455977 0.611123 0.692163 0.726323 0.765242 0.837275 0.956363 1.09491 1.1558 1.13078 1.12732 0 -1.38963 -1.3652 -1.32423 -1.2843 -1.25999 -1.26212 -1.27815 -1.29948 -1.31713 -1.32789 -1.32987 -1.32107 -1.29449 -1.23685 -1.12933 -0.965809 -0.734765 -0.431091 -0.0809583 0.24045 0.485571 0.6423 0.727187 0.765179 0.810887 0.890643 1.01106 1.1242 1.14195 1.22162 0 -1.16551 -1.13744 -1.1002 -1.07091 -1.06234 -1.07617 -1.09738 -1.119 -1.13682 -1.14923 -1.15572 -1.15637 -1.15041 -1.13272 -1.09138 -1.00522 -0.864665 -0.662905 -0.388488 -0.0589153 0.254378 0.500265 0.664402 0.759037 0.807337 0.86427 0.954651 1.0661 1.13916 1.27242 0 -0.933054 -0.89949 -0.883665 -0.867767 -0.87973 -0.900632 -0.921712 -0.939855 -0.952922 -0.961607 -0.96748 -0.97124 -0.97254 -0.970564 -0.962223 -0.938157 -0.877498 -0.76322 -0.593351 -0.354729 -0.0534211 0.249538 0.497531 0.673602 0.783753 0.851621 0.923618 1.01553 1.12212 1.2979 0 -0.686213 -0.656616 -0.681641 -0.682195 -0.715172 -0.736401 -0.75459 -0.768098 -0.775184 -0.77812 -0.778929 -0.779227 -0.780145 -0.782362 -0.785049 -0.785683 -0.777542 -0.742741 -0.658222 -0.5205 -0.322445 -0.0590041 0.226428 0.475302 0.666223 0.793891 0.883447 0.976289 1.09801 1.30701 0 -0.410959 -0.416149 -0.491194 -0.515206 -0.561257 -0.577483 -0.592333 -0.601236 -0.603334 -0.602282 -0.59942 -0.595677 -0.592321 -0.590427 -0.591057 -0.59526 -0.602478 -0.606883 -0.595404 -0.543121 -0.437288 -0.280247 -0.0651389 0.189716 0.431794 0.634025 0.788125 0.912574 1.05533 1.27879 0 -0.106359 -0.18138 -0.319689 -0.358985 -0.397678 -0.411009 -0.422502 -0.428136 -0.428754 -0.427303 -0.424185 -0.420016 -0.41535 -0.410953 -0.407522 -0.406066 -0.407752 -0.414089 -0.424489 -0.429208 -0.410024 -0.340701 -0.218628 -0.0527091 0.15102 0.373882 0.585045 0.761206 0.93894 1.16242 0 0.549134 -0.00511032 -0.214921 -0.174674 -0.201269 -0.205611 -0.226288 -0.224241 -0.227204 -0.228737 -0.229684 -0.230714 -0.231887 -0.232722 -0.232858 -0.23219 -0.231223 -0.231058 -0.233251 -0.239218 -0.246237 -0.243323 -0.208609 -0.124543 -0.0027194 0.142686 0.311595 0.490345 0.673229 0.930263 0 5.09829 0 0 0 0 0 0 0 0 0 0 0 0 0 0 0 0 0 0 0 0 0 0 0 0 0 0 0 0 0 0
				</DataArray>
			</PointData>
			<CellData Scalars="Density">
				<DataArray Name="Density" type="Float32" format="ascii">