<?xml version="1.0"?>
<VTKFile type="PolyData">
	<PolyData>
		<Piece NumberOfPoints="961" NumberOfPolys="900">
			<Points>
				<DataArray type="Float32" NumberOfComponents="3" format="ascii">
 0 0 0 0.04 0 0 0.08 0 0 0.12 0 0 0.16 0 0 0.2 0 0 0.24 0 0 0.28 0 0 0.32 0 0 0.36 0 0 0.4 0 0 0.44 0 0 0.48 0 0 0.52 0 0 0.56 0 0 0.6 0 0 0.64 0 0 0.68 0 0 0.72 0 0 0.76 0 0 0.8 0 0 0.84 0 0 0.88 0 0 0.92 0 0 0.96 0 0 1 0 0 1.04 0 0 1.08 0 0 1.12 0 0 1.16 0 0 1.2 0 0 0 0.04 0 0.04 0.04 0 0.08 0.04 0 0.12 0.04 0 0.16 0.04 0 0.2 0.04 0 0.24 0.04 0 0.28 0.04 0 0.32 0.04 0 0.36 0.04 0 0.4 0.04 0 0.44 0.04 0 0.48 0.04 0 0.52 0.04 0 0.56 0.04 0 0.6 0.04 0 0.64 0.04 0 0.68 0.04 0 0.72 0.04 0 0.76 0.04 0 0.8 0.04 0 0.84 0.04 0 0.88 0.04 0 0.92 0.04 0 0.96 0.04 0 1 0.04 0 1.04 0.04 0 1.08 0.04 0 1.12 0.04 0 1.16 0.04 0 1.2 0.04 0 0 0.08 0 0.04 0.08 0 0.08 0.08 0 0.12 0.08 0 0.16 0.08 0 0.2 0.08 0 0.24 0.08 0 0.28 0.08 0 0.32 0.08 0 0.36 0.08 0 0.4 0.08 0 0.44 0.08 0 0.48 0.08 0 0.52 0.08 0 0.56 0.08 0 0.6 0.08 0 0.64 0.08 0 0.68 0.08 0 0.72 0.08 0 0.76 0.08 0 0.8 0.08 0 0.84 0.08 0 0.88 0.08 0 0.92 0.08 0 0.96 0.08 0 1 0.08 0 1.04 0.08 0 1.08 0.08 0 1.12 0.08 0 1.16 0.08 0 1.2 0.08 0 0 0.12 0 0.04 0.12 0 0.08 0.12 0 0.12 0.12 0 0.16 0.12 0 0.2 0.12 0 0.24 0.12 0 0.28 0.12 0 0.32 0.12 0 0.36 0.12 0 0.4 0.12 0 0.44 0.12 0 0.48 0.12 0 0.52 0.12 0 0.56 0.12 0 0.6 0.12 0 0.64 0.12 0 0.68 0.12 0 0.72 0.12 0 0.76 0.12 0 0.8 0.12 0 0.84 0.12 0 0.88 0.12 0 0.92 0.12 0 0.96 0.12 0 1 0.12 0 1.04 0.12 0 1.08 0.12 0 1.12 0.12 0 1.16 0.12 0 1.2 0.12 0 0 0.16 0 0.04 0.16 0 0.08 0.16 0 0.12 0.16 0 0.16 0.16 0 0.2 0.16 0 0.24 0.16 0 0.28 0.16 0 0.32 0.16 0 0.36 0.16 0 0.4 0.16 0 0.44 0.16 0 0.48 0.16 0 0.52 0.16 0 0.56 0.16 0 0.6 0.16 0 0.64 0.16 0 0.68 0.16 0 0.72 0.16 0 0.76 0.16 0 0.8 0.16 0 0.84 0.16 0 0.88 0.16 0 0.92 0.16 0 0.96 0.16 0 1 0.16 0 1.04 0.16 0 1.08 0.16 0 1.12 0.16 0 1.16 0.16 0 1.2 0.16 0 0 0.2 0 0.04 0.2 0 0.08 0.2 0 0.12 0.2 0 0.16 0.2 0 0.2 0.2 0 0.24 0.2 0 0.28 0.2 0 0.32 0.2 0 0.36 0.2 0 0.4 0.2 0 0.44 0.2 0 0.48 0.2 0 0.52 0.2 0 0.56 0.2 0 0.6 0.2 0 0.64 0.2 0 0.68 0.2 0 0.72 0.2 0 0.76 0.2 0 0.8 0.2 0 0.84 0.2 0 0.88 0.2 0 0.92 0.2 0 0.96 0.2 0 1 0.2 0 1.04 0.2 0 1.08 0.2 0 1.12 0.2 0 1.16 0.2 0 1.2 0.2 0 0 0.24 0 0.04 0.24 0 0.08 0.24 0 0.12 0.24 0 0.16 0.24 0 0.2 0.24 0 0.24 0.24 0 0.28 0.24 0 0.32 0.24 0 0.36 0.24 0 0.4 0.24 0 0.44 0.24 0 0.48 0.24 0 0.52 0.24 0 0.56 0.24 0 0.6 0.24 0 0.64 0.24 0 0.68 0.24 0 0.72 0.24 0 0.76 0.24 0 0.8 0.24 0 0.84 0.24 0 0.88 0.24 0 0.92 0.24 0 0.96 0.24 0 1 0.24 0 1.04 0.24 0 1.08 0.24 0 1.12 0.24 0 1.16 0.24 0 1.2 0.24 0 0 0.28 0 0.04 0.28 0 0.08 0.28 0 0.12 0.28 0 0.16 0.28 0 0.2 0.28 0 0.24 0.28 0 0.28 0.28 0 0.32 0.28 0 0.36 0.28 0 0.4 0.28 0 0.44 0.28 0 0.48 0.28 0 0.52 0.28 0 0.56 0.28 0 0.6 0.28 0 0.64 0.28 0 0.68 0.28 0 0.72 0.28 0 0.76 0.28 0 0.8 0.28 0 0.84 0.28 0 0.88 0.28 0 0.92 0.28 0 0.96 0.28 0 1 0.28 0 1.04 0.28 0 1.08 0.28 0 1.12 0.28 0 1.16 0.28 0 1.2 0.28 0 0 0.32 0 0.04 0.32 0 0.08 0.32 0 0.12 0.32 0 0.16 0.32 0 0.2 0.32 0 0.24 0.32 0 0.28 0.32 0 0.32 0.32 0 0.36 0.32 0 0.4 0.32 0 0.44 0.32 0 0.48 0.32 0 0.52 0.32 0 0.56 0.32 0 0.6 0.32 0 0.64 0.32 0 0.68 0.32 0 0.72 0.32 0 0.76 0.32 0 0.8 0.32 0 0.84 0.32 0 0.88 0.32 0 0.92 0.32 0 0.96 0.32 0 1 0.32 0 1.04 0.32 0 1.08 0.32 0 1.12 0.32 0 1.16 0.32 0 1.2 0.32 0 0 0.36 0 0.04 0.36 0 0.08 0.36 0 0.12 0.36 0 0.16 0.36 0 0.2 0.36 0 0.24 0.36 0 0.28 0.36 0 0.32 0.36 0 0.36 0.36 0 0.4 0.36 0 0.44 0.36 0 0.48 0.36 0 0.52 0.36 0 0.56 0.36 0 0.6 0.36 0 0.64 0.36 0 0.68 0.36 0 0.72 0.36 0 0.76 0.36 0 0.8 0.36 0 0.84 0.36 0 0.88 0.36 0 0.92 0.36 0 0.96 0.36 0 1 0.36 0 1.04 0.36 0 1.08 0.36 0 1.12 0.36 0 1.16 0.36 0 1.2 0.36 0 0 0.4 0 0.04 0.4 0 0.08 0.4 0 0.12 0.4 0 0.16 0.4 0 0.2 0.4 0 0.24 0.4 0 0.28 0.4 0 0.32 0.4 0 0.36 0.4 0 0.4 0.4 0 0.44 0.4 0 0.48 0.4 0 0.52 0.4 0 0.56 0.4 0 0.6 0.4 0 0.64 0.4 0 0.68 0.4 0 0.72 0.4 0 0.76 0.4 0 0.8 0.4 0 0.84 0.4 0 0.88 0.4 0 0.92 0.4 0 0.96 0.4 0 1 0.4 0 1.04 0.4 0 1.08 0.4 0 1.12 0.4 0 1.16 0.4 0 1.2 0.4 0 0 0.44 0 0.04 0.44 0 0.08 0.44 0 0.12 0.44 0 0.16 0.44 0 0.2 0.44 0 0.24 0.44 0 0.28 0.44 0 0.32 0.44 0 0.36 0.44 0 0.4 0.44 0 0.44 0.44 0 0.48 0.44 0 0.52 0.44 0 0.56 0.44 0 0.6 0.44 0 0.64 0.44 0 0.68 0.44 0 0.72 0.44 0 0.76 0.44 0 0.8 0.44 0 0.84 0.44 0 0.88 0.44 0 0.92 0.44 0 0.96 0.44 0 1 0.44 0 1.04 0.44 0 1.08 0.44 0 1.12 0.44 0 1.16 0.44 0 1.2 0.44 0 0 0.48 0 0.04 0.48 0 0.08 0.48 0 0.12 0.48 0 0.16 0.48 0 0.2 0.48 0 0.24 0.48 0 0.28 0.48 0 0.32 0.48 0 0.36 0.48 0 0.4 0.48 0 0.44 0.48 0 0.48 0.48 0 0.52 0.48 0 0.56 0.48 0 0.6 0.48 0 0.64 0.48 0 0.68 0.48 0 0.72 0.48 0 0.76 0.48 0 0.8 0.48 0 0.84 0.48 0 0.88 0.48 0 0.92 0.48 0 0.96 0.48 0 1 0.48 0 1.04 0.48 0 1.08 0.48 0 1.12 0.48 0 1.16 0.48 0 1.2 0.48 0 0 0.52 0 0.04 0.52 0 0.08 0.52 0 0.12 0.52 0 0.16 0.52 0 0.2 0.52 0 0.24 0.52 0 0.28 0.52 0 0.32 0.52 0 0.36 0.52 0 0.4 0.52 0 0.44 0.52 0 0.48 0.52 0 0.52 0.52 0 0.56 0.52 0 0.6 0.52 0 0.64 0.52 0 0.68 0.52 0 0.72 0.52 0 0.76 0.52 0 0.8 0.52 0 0.84 0.52 0 0.88 0.52 0 0.92 0.52 0 0.96 0.52 0 1 0.52 0 1.04 0.52 0 1.08 0.52 0 1.12 0.52 0 1.16 0.52 0 1.2 0.52 0 0 0.56 0 0.04 0.56 0 0.08 0.56 0 0.12 0.56 0 0.16 0.56 0 0.2 0.56 0 0.24 0.56 0 0.28 0.56 0 0.32 0.56 0 0.36 0.56 0 0.4 0.56 0 0.44 0.56 0 0.48 0.56 0 0.52 0.56 0 0.56 0.56 0 0.6 0.56 0 0.64 0.56 0 0.68 0.56 0 0.72 0.56 0 0.76 0.56 0 0.8 0.56 0 0.84 0.56 0 0.88 0.56 0 0.92 0.56 0 0.96 0.56 0 1 0.56 0 1.04 0.56 0 1.08 0.56 0 1.12 0.56 0 1.16 0.56 0 1.2 0.56 0 0 0.6 0 0.04 0.6 0 0.08 0.6 0 0.12 0.6 0 0.16 0.6 0 0.2 0.6 0 0.24 0.6 0 0.28 0.6 0 0.32 0.6 0 0.36 0.6 0 0.4 0.6 0 0.44 0.6 0 0.48 0.6 0 0.52 0.6 0 0.56 0.6 0 0.6 0.6 0 0.64 0.6 0 0.68 0.6 0 0.72 0.6 0 0.76 0.6 0 0.8 0.6 0 0.84 0.6 0 0.88 0.6 0 0.92 0.6 0 0.96 0.6 0 1 0.6 0 1.04 0.6 0 1.08 0.6 0 1.12 0.6 0 1.16 0.6 0 1.2 0.6 0 0 0.64 0 0.04 0.64 0 0.08 0.64 0 0.12 0.64 0 0.16 0.64 0 0.2 0.64 0 0.24 0.64 0 0.28 0.64 0 0.32 0.64 0 0.36 0.64 0 0.4 0.64 0 0.44 0.64 0 0.48 0.64 0 0.52 0.64 0 0.56 0.64 0 0.6 0.64 0 0.64 0.64 0 0.68 0.64 0 0.72 0.64 0 0.76 0.64 0 0.8 0.64 0 0.84 0.64 0 0.88 0.64 0 0.92 0.64 0 0.96 0.64 0 1 0.64 0 1.04 0.64 0 1.08 0.64 0 1.12 0.64 0 1.16 0.64 0 1.2 0.64 0 0 0.68 0 0.04 0.68 0 0.08 0.68 0 0.12 0.68 0 0.16 0.68 0 0.2 0.68 0 0.24 0.68 0 0.28 0.68 0 0.32 0.68 0 0.36 0.68 0 0.4 0.68 0 0.44 0.68 0 0.48 0.68 0 0.52 0.68 0 0.56 0.68 0 0.6 0.68 0 0.64 0.68 0 0.68 0.68 0 0.72 0.68 0 0.76 0.68 0 0.8 0.68 0 0.84 0.68 0 0.88 0.68 0 0.92 0.68 0 0.96 0.68 0 1 0.68 0 1.04 0.68 0 1.08 0.68 0 1.12 0.68 0 1.16 0.68 0 1.2 0.68 0 0 0.72 0 0.04 0.72 0 0.08 0.72 0 0.12 0.72 0 0.16 0.72 0 0.2 0.72 0 0.24 0.72 0 0.28 0.72 0 0.32 0.72 0 0.36 0.72 0 0.4 0.72 0 0.44 0.72 0 0.48 0.72 0 0.52 0.72 0 0.56 0.72 0 0.6 0.72 0 0.64 0.72 0 0.68 0.72 0 0.72 0.72 0 0.76 0.72 0 0.8 0.72 0 0.84 0.72 0 0.88 0.72 0 0.92 0.72 0 0.96 0.72 0 1 0.72 0 1.04 0.72 0 1.08 0.72 0 1.12 0.72 0 1.16 0.72 0 1.2 0.72 0 0 0.76 0 0.04 0.76 0 0.08 0.76 0 0.12 0.76 0 0.16 0.76 0 0.2 0.76 0 0.24 0.76 0 0.28 0.76 0 0.32 0.76 0 0.36 0.76 0 0.4 0.76 0 0.44 0.76 0 0.48 0.76 0 0.52 0.76 0 0.56 0.76 0 0.6 0.76 0 0.64 0.76 0 0.68 0.76 0 0.72 0.76 0 0.76 0.76 0 0.8 0.76 0 0.84 0.76 0 0.88 0.76 0 0.92 0.76 0 0.96 0.76 0 1 0.76 0 1.04 0.76 0 1.08 0.76 0 1.12 0.76 0 1.16 0.76 0 1.2 0.76 0 0 0.8 0 0.04 0.8 0 0.08 0.8 0 0.12 0.8 0 0.16 0.8 0 0.2 0.8 0 0.24 0.8 0 0.28 0.8 0 0.32 0.8 0 0.36 0.8 0 0.4 0.8 0 0.44 0.8 0 0.48 0.8 0 0.52 0.8 0 0.56 0.8 0 0.6 0.8 0 0.64 0.8 0 0.68 0.8 0 0.72 0.8 0 0.76 0.8 0 0.8 0.8 0 0.84 0.8 0 0.88 0.8 0 0.92 0.8 0 0.96 0.8 0 1 0.8 0 1.04 0.8 0 1.08 0.8 0 1.12 0.8 0 1.16 0.8 0 1.2 0.8 0 0 0.84 0 0.04 0.84 0 0.08 0.84 0 0.12 0.84 0 0.16 0.84 0 0.2 0.84 0 0.24 0.84 0 0.28 0.84 0 0.32 0.84 0 0.36 0.84 0 0.4 0.84 0 0.44 0.84 0 0.48 0.84 0 0.52 0.84 0 0.56 0.84 0 0.6 0.84 0 0.64 0.84 0 0.68 0.84 0 0.72 0.84 0 0.76 0.84 0 0.8 0.84 0 0.84 0.84 0 0.88 0.84 0 0.92 0.84 0 0.96 0.84 0 1 0.84 0 1.04 0.84 0 1.08 0.84 0 1.12 0.84 0 1.16 0.84 0 1.2 0.84 0 0 0.88 0 0.04 0.88 0 0.08 0.88 0 0.12 0.88 0 0.16 0.88 0 0.2 0.88 0 0.24 0.88 0 0.28 0.88 0 0.32 0.88 0 0.36 0.88 0 0.4 0.88 0 0.44 0.88 0 0.48 0.88 0 0.52 0.88 0 0.56 0.88 0 0.6 0.88 0 0.64 0.88 0 0.68 0.88 0 0.72 0.88 0 0.76 0.88 0 0.8 0.88 0 0.84 0.88 0 0.88 0.88 0 0.92 0.88 0 0.96 0.88 0 1 0.88 0 1.04 0.88 0 1.08 0.88 0 1.12 0.88 0 1.16 0.88 0 1.2 0.88 0 0 0.92 0 0.04 0.92 0 0.08 0.92 0 0.12 0.92 0 0.16 0.92 0 0.2 0.92 0 0.24 0.92 0 0.28 0.92 0 0.32 0.92 0 0.36 0.92 0 0.4 0.92 0 0.44 0.92 0 0.48 0.92 0 0.52 0.92 0 0.56 0.92 0 0.6 0.92 0 0.64 0.92 0 0.68 0.92 0 0.72 0.92 0 0.76 0.92 0 0.8 0.92 0 0.84 0.92 0 0.88 0.92 0 0.92 0.92 0 0.96 0.92 0 1 0.92 0 1.04 0.92 0 1.08 0.92 0 1.12 0.92 0 1.16 0.92 0 1.2 0.92 0 0 0.96 0 0.04 0.96 0 0.08 0.96 0 0.12 0.96 0 0.16 0.96 0 0.2 0.96 0 0.24 0.96 0 0.28 0.96 0 0.32 0.96 0 0.36 0.96 0 0.4 0.96 0 0.44 0.96 0 0.48 0.96 0 0.52 0.96 0 0.56 0.96 0 0.6 0.96 0 0.64 0.96 0 0.68 0.96 0 0.72 0.96 0 0.76 0.96 0 0.8 0.96 0 0.84 0.96 0 0.88 0.96 0 0.92 0.96 0 0.96 0.96 0 1 0.96 0 1.04 0.96 0 1.08 0.96 0 1.12 0.96 0 1.16 0.96 0 1.2 0.96 0 0 1 0 0.04 1 0 0.08 1 0 0.12 1 0 0.16 1 0 0.2 1 0 0.24 1 0 0.28 1 0 0.32 1 0 0.36 1 0 0.4 1 0 0.44 1 0 0.48 1 0 0.52 1 0 0.56 1 0 0.6 1 0 0.64 1 0 0.68 1 0 0.72 1 0 0.76 1 0 0.8 1 0 0.84 1 0 0.88 1 0 0.92 1 0 0.96 1 0 1 1 0 1.04 1 0 1.08 1 0 1.12 1 0 1.16 1 0 1.2 1 0 0 1.04 0 0.04 1.04 0 0.08 1.04 0 0.12 1.04 0 0.16 1.04 0 0.2 1.04 0 0.24 1.04 0 0.28 1.04 0 0.32 1.04 0 0.36 1.04 0 0.4 1.04 0 0.44 1.04 0 0.48 1.04 0 0.52 1.04 0 0.56 1.04 0 0.6 1.04 0 0.64 1.04 0 0.68 1.04 0 0.72 1.04 0 0.76 1.04 0 0.8 1.04 0 0.84 1.04 0 0.88 1.04 0 0.92 1.04 0 0.96 1.04 0 1 1.04 0 1.04 1.04 0 1.08 1.04 0 1.12 1.04 0 1.16 1.04 0 1.2 1.04 0 0 1.08 0 0.04 1.08 0 0.08 1.08 0 0.12 1.08 0 0.16 1.08 0 0.2 1.08 0 0.24 1.08 0 0.28 1.08 0 0.32 1.08 0 0.36 1.08 0 0.4 1.08 0 0.44 1.08 0 0.48 1.08 0 0.52 1.08 0 0.56 1.08 0 0.6 1.08 0 0.64 1.08 0 0.68 1.08 0 0.72 1.08 0 0.76 1.08 0 0.8 1.08 0 0.84 1.08 0 0.88 1.08 0 0.92 1.08 0 0.96 1.08 0 1 1.08 0 1.04 1.08 0 1.08 1.08 0 1.12 1.08 0 1.16 1.08 0 1.2 1.08 0 0 1.12 0 
[...]
			<PointData Scalars="VitesseX">
				<DataArray Name="VitesseX" type="Float32" format="ascii">
 0 0.0975787 -0.120905 -0.114879 0.25497 0.534282 0.679575 0.979536 1.17347 1.39985 1.62624 1.85471 2.08437 2.33607 2.55087 2.97727 3.40475 3.25949 2.60524 1.32514 0.185288 0.00143446 5.25127e-08 4.54118e-13 1.07657e-12 1.07525e-15 -1.07871e-12 1.07754e-12 -3.63581e-12 3.63582e-12 0 0 0.572736 0.462266 0.406283 0.586227 0.749895 0.801782 1.06687 1.22972 1.43199 1.6413 1.85624 2.07803 2.32422 2.5373 2.97668 3.38435 3.22857 2.5624 1.27725 0.169559 0.00121336 4.30072e-08 4.01649e-13 1.07583e-12 -1.53887e-16 -1.07536e-12 1.07742e-12 -3.63576e-12 3.63352e-12 0 0 0.479992 0.535475 0.627137 0.866453 0.928237 0.962157 1.15506 1.29377 1.47554 1.67184 1.87499 2.09325 2.32976 2.54088 3.01544 3.36182 3.17139 2.45502 1.14175 0.128926 0.000729395 2.39885e-08 2.78799e-13 -1.27999e-12 -6.91513e-16 1.28238e-12 5.33532e-13 -3.6314e-12 1.81514e-12 0 0 0.24748 0.474161 0.669324 0.902376 0.96506 1.11079 1.23009 1.37763 1.53659 1.71822 1.90653 2.12151 2.34121 2.55975 3.08251 3.32777 3.07966 2.27592 0.928157 0.0791586 0.000305116 9.50552e-09 1.4889e-13 -3.28414e-15 2.80357e-15 -4.77912e-16 -3.35515e-15 -1.81348e-12 1.81477e-12 0 0 0.170746 0.420782 0.623799 0.81963 1.01676 1.16845 1.29263 1.44731 1.59721 1.77337 1.94621 2.16236 2.35739 2.60631 3.15929 3.27017 2.9355 2.00847 0.657221 0.0374234 8.57871e-05 2.81992e-09 -1.75575e-12 1.81421e-12 2.75071e-15 -1.83134e-15 -1.81543e-12 -1.26121e-15 1.81465e-12 0 0 0.158773 0.363296 0.558861 0.816656 1.01863 1.15987 1.33006 1.47849 1.64911 1.81069 1.98583 2.20175 2.37202 2.69966 3.20667 3.17762 2.71292 1.63455 0.380375 0.0128765 1.5414e-05 6.34082e-10 2.34867e-14 -1.82048e-12 1.86403e-15 1.80857e-12 7.06725e-15 -1.82607e-12 8.35299e-15 0 0 0.151297 0.346059 0.563732 0.794033 0.979132 1.15854 1.32453 1.49935 1.67293 1.82457 2.02972 2.21746 2.39427 2.85593 3.18501 3.02429 2.38435 1.1548 0.17007 0.00303872 1.66783e-06 1.00714e-10 4.20174e-15 -1.81758e-12 1.02602e-15 1.80571e-12 -1.05668e-11 1.05695e-11 -1.81328e-12 0 0 0.143129 0.337357 0.539762 0.745009 0.950851 1.13272 1.31416 1.50584 1.66046 1.8434 2.05764 2.20949 2.46924 2.99543 3.08303 2.77641 1.91035 0.644369 0.0535009 0.00045107 1.08696e-07 4.92387e-12 3.50153e-12 1.82049e-12 -1.91822e-15 -1.05788e-11 4.98014e-15 -2.07516e-15 1.05721e-11 0 0 0.14292 0.311672 0.501896 0.70893 0.908507 1.10328 1.30307 1.47277 1.65127 1.87478 2.0423 2.21508 2.65754 3.0041 2.90337 2.38099 1.27516 0.259404 0.0108262 3.67048e-05 5.56247e-09 5.93811e-12 3.49698e-12 1.82302e-12 -6.64818e-15 -1.05697e-11 4.19271e-16 -4.34933e-16 1.05632e-11 0 0 0.143628 0.305082 0.484775 0.67602 0.875171 1.07536 1.2602 1.45076 1.67368 1.86041 2.01582 2.33547 2.81267 2.87486 2.59251 1.78095 0.621859 0.0687428 0.00126976 1.42105e-06 2.87834e-10 1.06155e-11 -1.82092e-12 3.41066e-15 -4.01521e-15 1.81666e-12 -1.05703e-11 2.58105e-16 8.74284e-12 0 0 0.145108 0.303957 0.475902 0.66006 0.851775 1.04483 1.24649 1.4646 1.65977 1.82423 2.09106 2.56582 2.7597 2.62109 2.06455 1.00398 0.201234 0.0105311 7.10093e-05 2.86845e-08 2.19511e-11 -1.80976e-12 1.80882e-12 -1.80949e-12 1.60772e-15 -6.63152e-15 3.63605e-12 -1.42151e-11 1.24002e-11 0 0 0.14725 0.304688 0.473272 0.653798 0.84492 1.04625 1.25475 1.449 1.63235 1.89498 2.32901 2.57959 2.53811 2.15797 1.27774 0.369521 0.0377871 0.000801131 1.51605e-06 6.3432e-10 2.00657e-12 -1.80588e-12 1.81045e-12 -1.81315e-12 5.88704e-15 -2.07145e-14 3.64489e-12 -3.64246e-12 -8.74174e-12 0 0 0.151909 0.311076 0.479644 0.660244 0.852333 1.04979 1.24409 1.45038 1.73493 2.12254 2.36663 2.38021 2.10936 1.3956 0.507061 0.0793237 0.00347158 2.23621e-05 1.48304e-08 1.07116e-11 -1.05805e-11 1.05735e-11 -1.23814e-11 1.23833e-11 7.7124e-15 -2.15234e-14 -3.15949e-11 3.15892e-11 -1.05543e-11 0 0 0.159149 0.322563 0.492934 0.672353 0.86188 1.06485 1.30193 1.6099 1.92586 2.13525 2.16646 1.95482 1.36494 0.566041 0.115143 0.00798222 0.000116204 1.88516e-07 1.94964e-10 1.1522e-13 -1.05728e-11 1.05586e-11 -1.05554e-11 -6.74702e-15 1.73223e-15 1.2372e-11 -3.34196e-11 3.33954e-11 -1.23513e-11 0 0 0.166851 0.33936 0.521925 0.719947 0.943496 1.20083 1.47108 1.71135 1.88559 1.90495 1.71737 1.21162 0.534123 0.126037 0.0115629 0.000281335 9.87951e-07 1.17791e-09 1.00845e-11 1.81805e-12 -5.10891e-15 -1.81951e-12 -8.74304e-12 -1.20936e-14 -1.47667e-14 6.17424e-15 1.23866e-11 -1.23939e-11 2.52739e-14 0 0 0.193784 0.396442 0.608623 0.830076 1.05564 1.27371 1.47335 1.59857 1.59682 1.40811 0.965423 0.428282 0.107308 0.0113708 0.000370443 2.17191e-06 3.53977e-09 -3.4036e-12 8.76215e-12 -8.75765e-12 1.05703e-11 -1.23882e-11 1.82013e-12 1.23702e-11 -2.20209e-14 -2.47398e-11 2.47557e-11 -2.47556e-11 2.47826e-11 0 0 0.213732 0.425981 0.635563 0.841256 1.03329 1.18631 1.2681 1.23511 1.03799 0.666445 0.285158 0.0697801 0.00763136 0.000278862 2.16868e-06 5.13459e-09 1.43815e-11 1.84495e-12 -1.8194e-12 -8.76348e-12 1.08981e-14 -7.08058e-15 1.23999e-11 -1.24016e-11 -7.7211e-15 2.57262e-15 1.23804e-11 -1.23901e-11 2.5842e-14 0 0 0.205685 0.401151 0.581318 0.736858 0.847654 0.886223 0.824062 0.639432 0.372858 0.146704 0.0321678 0.00327243 0.00011454 9.83239e-07 3.51806e-09 1.80078e-11 -1.78595e-12 1.81902e-12 -1.24008e-11 1.42065e-11 -2.47798e-11 2.47826e-11 -1.23852e-11 1.16413e-15 -1.09421e-14 1.23783e-11 -3.34173e-11 3.34035e-11 -1.23476e-11 0 0 0.160877 0.301499 0.412077 0.477986 0.482502 0.418494 0.293059 0.151419 0.0498978 0.00898241 0.000756824 2.20033e-05 1.86532e-07 1.16628e-09 1.76952e-11 -1.78924e-12 1.81756e-12 -1.05888e-11 1.44769e-14 -2.10384e-11 2.10411e-11 -1.56885e-14 1.90877e-14 -7.39898e-15 -1.00336e-14 1.23853e-11 -3.34197e-11 2.10275e-11 1.65044e-14 0 0 0.0775223 0.136468 0.167588 0.166197 0.133959 0.0810356 0.0331445 0.00823937 0.00112047 6.78619e-05 1.48738e-06 1.4464e-08 1.92537e-10 -1.10688e-11 1.23998e-11 -1.82694e-12 -8.75203e-12 -1.18511e-14 -2.51097e-15 -2.10263e-11 2.10473e-11 -1.70055e-14 2.02289e-14 -2.37332e-14 6.87783e-15 2.11099e-15 1.23834e-11 -2.4771e-11 1.23816e-11 0 0 0.0146434 0.0231503 0.022755 0.0154747 0.00709837 0.00210835 0.000372434 3.36802e-05 1.36324e-06 2.74723e-08 6.1351e-10 1.41307e-11 -3.53548e-12 1.82355e-12 -1.23907e-11 1.23762e-11 -1.05665e-11 -2.1027e-11 2.10077e-11 9.02823e-15 5.32785e-15 1.23858e-11 -2.47653e-11 2.47461e-11 4.21142e-15 -2.47494e-11 2.47589e-11 -1.23639e-11 1.23844e-11 0 0 0.000192748 0.000232839 0.000146569 5.46199e-05 1.19031e-05 1.44349e-06 9.78354e-08 5.00529e-09 2.69168e-10 1.79256e-11 2.00729e-12 -1.05618e-11 1.05684e-11 -9.81959e-15 -1.05577e-11 -2.20215e-14 1.1048e-14 -2.10287e-11 2.10276e-11 -1.74471e-14 1.4393e-14 -1.4453e-14 2.78694e-14 -2.37349e-14 -1.56035e-15 1.60089e-14 1.23715e-11 -1.23616e-11 1.23953e-11 0 0 8.35276e-09 8.86856e-09 4.82103e-09 1.7241e-09 4.51577e-10 8.15172e-11 3.63218e-12 -4.64506e-12 1.06057e-11 -1.81576e-12 1.80806e-12 -1.05704e-11 1.05698e-11 -1.82173e-12 -8.73913e-12 -1.88096e-14 6.8836e-15 -1.94337e-15 5.76939e-15 1.23652e-11 -2.47595e-11 1.23917e-11 -2.6857e-15 4.56841e-15 -1.63632e-14 1.23955e-11 -1.23849e-11 -1.23858e-11 2.47616e-11 0 0 4.99608e-14 1.14877e-12 -3.57632e-12 1.84587e-12 1.2485e-14 9.4306e-16 -7.13751e-12 7.13469e-12 -1.81454e-12 1.80899e-12 -1.81117e-12 -8.76363e-12 1.05742e-11 -1.23919e-11 1.8255e-12 1.23775e-11 -1.23847e-11 -4.39909e-15 8.04931e-15 -1.97224e-14 1.83082e-14 -1.05846e-14 3.94943e-15 4.34578e-15 -1.59488e-14 -3.16363e-16 -9.87603e-15 1.1759e-14 -2.10521e-11 0 0 -3.247e-15 -1.27667e-12 -4.07585e-15 -1.81353e-12 1.81644e-12 -1.81939e-12 1.81823e-12 -1.82307e-12 5.71036e-15 1.80559e-12 -1.8098e-12 -8.7604e-12 6.95077e-15 -1.76547e-14 1.23967e-11 -1.23858e-11 -3.70356e-15 1.03002e-14 -2.18429e-14 -5.49089e-15 2.73762e-14 -2.19043e-14 2.16817e-14 -2.84447e-14 1.54707e-14 -1.53054e-14 -2.10466e-11 3.3423e-11 -3.33944e-11 0 0 -5.21547e-15 -3.63106e-12 3.63051e-12 -3.63068e-12 -1.99892e-15 1.09976e-15 3.63287e-12 -3.6399e-12 5.55899e-15 -1.53852e-15 -2.05688e-15 3.63011e-12 -2.47796e-11 2.4747e-11 7.04275e-15 -2.47537e-11 2.47638e-11 -2.47648e-11 2.47539e-11 -1.40055e-14 -2.47397e-11 2.47587e-11 -2.47587e-11 2.47506e-11 -6.88817e-15 -1.4055e-15 -6.68227e-11 6.6822e-11 1.16158e-14 0 0 -3.09723e-15 -1.27598e-12 -3.93588e-15 2.36724e-15 -1.82553e-12 1.82093e-12 -1.05744e-11 1.05717e-11 -1.81707e-12 3.42065e-15 -1.68197e-14 3.64589e-12 -1.24078e-11 -7.00131e-15 7.8397e-15 2.16951e-15 1.23804e-11 -1.23735e-11 -3.77976e-15 -1.05648e-14 1.64807e-14 1.23672e-11 -2.47627e-11 2.4771e-11 -3.56985e-14 -3.34084e-11 3.89705e-14 -3.53215e-14 3.34363e-11 0 0 1.25599e-16 5.34657e-13 -3.63432e-12 1.81932e-12 -9.58163e-15 -1.05717e-11 5.44355e-15 -3.60248e-15 1.05739e-11 -4.42604e-15 -1.42192e-14 -3.15973e-11 3.34041e-11 -1.23785e-11 2.44763e-15 1.23746e-11 -3.34141e-11 3.34256e-11 -1.23829e-11 -7.42592e-15 1.23913e-11 -1.23844e-11 -3.18644e-14 -2.10115e-11 -1.54247e-14 2.60486e-14 -3.0887e-14 2.37557e-14 -2.55959e-14 0 0 5.50566e-17 -4.80099e-15 -1.81382e-12 -1.03561e-15 1.80846e-12 -1.05681e-11 2.00581e-15 -3.08539e-15 3.29619e-15 1.05572e-11 5.71029e-15 -3.16253e-11 3.34134e-11 -1.23709e-11 2.32624e-15 1.23648e-11 -3.34084e-11 2.10415e-11 5.79408e-15 1.23865e-11 -1.23878e-11 -1.23859e-11 2.47421e-11 -3.3411e-11 6.87338e-15 8.13689e-15 -2.37557e-14 2.14569e-14 -2.22559e-14 0 0 -1.34898e-13 -1.81659e-12 1.81552e-12 -1.81828e-12 -5.39939e-15 1.81969e-12 -1.05719e-11 1.05635e-11 -1.2383e-11 1.23853e-11 -1.23917e-11 1.41913e-11 -1.23941e-11 2.39776e-14 3.15979e-15 -2.73333e-14 1.24039e-11 -2.47826e-11 1.23965e-11 1.24056e-11 -1.23937e-11 -3.79667e-14 -2.10219e-11 3.3422e-11 -2.11331e-14 -3.33965e-11 -2.18682e-14 2.06108e-14 3.34199e-11 0 0 0 0 0 0 0 0 0 0 0 0 0 0 0 0 0 0 0 0 0 0 0 0 0 0 0 0 0 0 0 0
				</DataArray>
				<DataArray Name="VitesseY" type="Float32" format="ascii">
 0 0 0 0 0 0 0 0 0 0 0 0 0 0 0 0 0 0 0 0 0 0 0 0 0 0 0 0 0 0 0 0.0976519 0.572692 0.479965 0.247479 0.170762 0.158799 0.15131 0.143137 0.142925 0.143634 0.145115 0.14726 0.151916 0.159151 0.166853 0.193786 0.213734 0.205686 0.160878 0.0775232 0.0146437 0.000192757 8.35345e-09 4.99608e-14 -3.247e-15 -5.21547e-15 -3.09723e-15 1.25599e-16 5.50671e-17 -2.18389e-15 0 -0.120895 0.462199 0.535409 0.474131 0.420805 0.363337 0.346084 0.337359 0.311672 0.305088 0.303964 0.304695 0.31108 0.322565 0.339363 0.396447 0.425985 0.401154 0.301502 0.13647 0.0231508 0.000232849 8.86926e-09 1.14879e-12 -1.27667e-12 -3.63106e-12 -1.27598e-12 5.34657e-13 -4.80098e-15 -1.81659e-12 0 -0.11498 0.406197 0.62709 0.669309 0.623833 0.558915 0.563777 0.539773 0.501895 0.484779 0.475907 0.473274 0.479643 0.492934 0.52193 0.60863 0.635569 0.581324 0.412081 0.167591 0.0227555 0.000146576 4.82137e-09 -3.57633e-12 -4.07585e-15 3.63051e-12 -3.93588e-15 -3.63432e-12 -1.81382e-12 1.81552e-12 0 0.254867 0.586161 0.866427 0.902387 0.819673 0.8167 0.794068 0.745033 0.708934 0.67602 0.660057 0.653793 0.660239 0.672352 0.719953 0.830082 0.841261 0.736863 0.477991 0.166199 0.015475 5.46224e-05 1.72421e-09 1.84587e-12 -1.81353e-12 -3.63068e-12 2.36724e-15 1.81932e-12 -1.03561e-15 -1.81828e-12 0 0.53418 0.749863 0.928262 0.965047 1.01676 1.01865 0.979163 0.95088 0.908523 0.875174 0.851771 0.844912 0.852327 0.86188 0.9435 1.05565 1.03329 0.847658 0.482505 0.133961 0.00709851 1.19036e-05 4.51601e-10 1.24877e-14 1.81644e-12 -1.99892e-15 -1.82553e-12 -9.58163e-15 1.80846e-12 -5.39939e-15 0 0.679491 0.801758 0.962171 1.11078 1.16844 1.15988 1.15857 1.13274 1.1033 1.07536 1.04483 1.04624 1.04979 1.06485 1.20083 1.27371 1.18632 0.886226 0.418497 0.0810361 0.00210838 1.44354e-06 8.15211e-11 9.4306e-16 -1.81939e-12 1.09976e-15 1.82093e-12 -1.05717e-11 -1.05681e-11 1.81969e-12 0 0.979472 1.06687 1.15508 1.2301 1.29262 1.33006 1.32455 1.31417 1.30307 1.26019 1.24649 1.25475 1.24408 1.30193 1.47108 1.47335 1.2681 0.824064 0.293059 0.0331447 0.000372438 9.78385e-08 3.63253e-12 -7.13751e-12 1.81823e-12 3.63287e-12 -1.05744e-11 5.44355e-15 2.00581e-15 -1.05719e-11 0 1.17342 1.22971 1.29379 1.37765 1.44731 1.4785 1.49936 1.50585 1.47277 1.45076 1.4646 1.449 1.45038 1.6099 1.71135 1.59857 1.2351 0.639432 0.151419 0.00823936 3.36805e-05 5.00539e-09 -4.64505e-12 7.13469e-12 -1.82307e-12 -3.6399e-12 1.05717e-11 -3.60248e-15 -3.08539e-15 1.05635e-11 0 1.3998 1.43199 1.47555 1.53662 1.59722 1.64913 1.67294 1.66046 1.65128 1.67368 1.65978 1.63235 1.73493 1.92586 1.88559 1.59682 1.038 0.372856 0.0498976 0.00112047 1.36325e-06 2.69171e-10 1.06057e-11 -1.81454e-12 5.71036e-15 5.55899e-15 -1.81707e-12 1.05739e-11 3.29619e-15 -1.2383e-11 0 1.62621 1.64129 1.67184 1.71824 1.77339 1.81071 1.82459 1.84341 1.87479 1.86042 1.82425 1.89498 2.12255 2.13525 1.90495 1.40811 0.666443 0.146703 0.00898236 6.78615e-05 2.74723e-08 1.79256e-11 -1.81576e-12 1.80899e-12 1.80559e-12 -1.53852e-15 3.42065e-15 -4.42604e-15 1.05572e-11 1.23853e-11 0 1.8547 1.85624 1.87499 1.90654 1.94622 1.98585 2.02974 2.05765 2.0423 2.01582 2.09107 2.32902 2.36663 2.16646 1.71737 0.965419 0.285159 0.0321676 0.000756814 1.48737e-06 6.13508e-10 2.00727e-12 1.80806e-12 -1.81117e-12 -1.8098e-12 -2.05688e-15 -1.68197e-14 -1.42192e-14 5.71029e-15 -1.23917e-11 0 2.08438 2.07804 2.09326 2.12152 2.16237 2.20176 2.21746 2.20949 2.21507 2.33547 2.56582 2.5796 2.38021 1.95482 1.21162 0.428281 0.0697797 0.00327241 2.2003e-05 1.44638e-08 1.41307e-11 -1.05618e-11 -1.05704e-11 -8.76363e-12 -8.7604e-12 3.63011e-12 3.64589e-12 -3.15973e-11 -3.16253e-11 1.41913e-11 0 2.33609 2.32425 2.32977 2.34121 2.3574 2.37202 2.39427 2.46924 2.65754 2.81268 2.75971 2.53811 2.10936 1.36494 0.534124 0.107307 0.00763128 0.000114538 1.8653e-07 1.92534e-10 -3.53549e-12 1.05684e-11 1.05698e-11 1.05742e-11 6.95077e-15 -2.47796e-11 -1.24078e-11 3.34041e-11 3.34134e-11 -1.23941e-11 0 2.55089 2.53732 2.54089 2.55975 2.60631 2.69967 2.85594 2.99544 3.00411 2.87486 2.62109 2.15798 1.3956 0.566041 0.126037 0.0113708 0.00027886 9.83221e-07 1.16627e-09 -1.10689e-11 1.82355e-12 -9.81959e-15 -1.82173e-12 -1.23919e-11 -1.76547e-14 2.4747e-11 -7.00131e-15 -1.23785e-11 -1.23709e-11 2.39776e-14 0 2.97728 2.97668 3.01544 3.08251 3.15929 3.20667 3.18502 3.08304 2.90337 2.59251 2.06456 1.27774 0.507065 0.115143 0.0115629 0.000370443 2.16867e-06 3.51803e-09 1.76951e-11 1.23998e-11 -1.23907e-11 -1.05577e-11 -8.73913e-12 1.8255e-12 1.23967e-11 7.04275e-15 7.8397e-15 2.44763e-15 2.32624e-15 3.15979e-15 0 3.40474 3.38434 3.36181 3.32776 3.27018 3.17763 3.02429 2.77641 2.38099 1.78096 1.00398 0.369524 0.0793242 0.0079823 0.000281336 2.17192e-06 5.13459e-09 1.80076e-11 -1.78924e-12 -1.82694e-12 1.23762e-11 -2.20215e-14 -1.88096e-14 1.23775e-11 -1.23858e-11 -2.47537e-11 2.16951e-15 1.23746e-11 1.23648e-11 -2.73333e-14 0 3.25948 3.22857 3.17138 3.07965 2.9355 2.71292 2.38435 1.91036 1.27517 0.621862 0.201235 0.0377874 0.0034716 0.000116205 9.8797e-07 3.5398e-09 1.43816e-11 -1.78595e-12 1.81756e-12 -8.75203e-12 -1.05665e-11 1.1048e-14 6.8836e-15 -1.23847e-11 -3.70356e-15 2.47638e-11 1.23804e-11 -3.34141e-11 -3.34084e-11 1.24039e-11 0 2.60523 2.56239 2.45501 2.27591 2.00846 1.63455 1.1548 0.644371 0.259405 0.0687432 0.0105312 0.000801141 2.23625e-05 1.88518e-07 1.17792e-09 -3.40345e-12 1.84495e-12 1.81902e-12 -1.05888e-11 -1.18511e-14 -2.1027e-11 -2.10287e-11 -1.94337e-15 -4.39909e-15 1.03002e-14 -2.47648e-11 -1.23735e-11 3.34256e-11 2.10415e-11 -2.47826e-11 0 1.32513 1.27724 1.14174 0.928149 0.657216 0.380373 0.17007 0.0535008 0.0108262 0.00126977 7.10097e-05 1.51606e-06 1.48307e-08 1.94967e-10 1.00846e-11 8.76215e-12 -1.8194e-12 -1.24008e-11 1.44769e-14 -2.51097e-15 2.10077e-11 2.10276e-11 5.76939e-15 8.04931e-15 -2.18429e-14 2.47539e-11 -3.77976e-15 -1.23829e-11 5.79408e-15 1.23965e-11 0 0.185284 0.169555 0.128923 0.079157 0.0374226 0.0128762 0.00303867 0.000451064 3.67045e-05 1.42105e-06 2.86846e-08 6.34322e-10 1.07117e-11 1.1523e-13 1.81805e-12 -8.75765e-12 -8.76348e-12 1.42065e-11 -2.10384e-11 -2.10263e-11 9.02823e-15 -1.74471e-14 1.23652e-11 -1.97224e-14 -5.49089e-15 -1.40055e-14 -1.05648e-14 -7.42592e-15 1.23865e-11 1.24056e-11 0 0.0014344 0.00121331 0.000729362 0.000305102 8.57834e-05 1.54134e-05 1.66777e-06 1.08693e-07 5.56236e-09 2.87831e-10 2.19511e-11 2.00659e-12 -1.05805e-11 -1.05728e-11 -5.10891e-15 1.05703e-11 1.08981e-14 -2.47798e-11 2.10411e-11 2.10473e-11 5.32785e-15 1.4393e-14 -2.47595e-11 1.83082e-14 2.73762e-14 -2.47397e-11 1.64807e-14 1.23913e-11 -1.23878e-11 -1.23937e-11 0 5.25086e-08 4.30039e-08 2.39868e-08 9.5049e-09 2.81976e-09 6.3405e-10 1.0071e-10 4.92351e-12 5.93811e-12 1.06155e-11 -1.80976e-12 -1.80588e-12 1.05735e-11 1.05586e-11 -1.81951e-12 -1.23882e-11 -7.08058e-15 2.47826e-11 -1.56885e-14 -1.70055e-14 1.23858e-11 -1.4453e-14 1.23917e-11 -1.05846e-14 -2.19043e-14 2.47587e-11 1.23672e-11 -1.23844e-11 -1.23859e-11 -3.79667e-14 0 4.54092e-13 4.01622e-13 2.78788e-13 1.48883e-13 -1.75577e-12 2.34841e-14 4.20174e-15 3.50153e-12 3.49698e-12 -1.82092e-12 1.80882e-12 1.81045e-12 -1.23814e-11 -1.05554e-11 -8.74304e-12 1.82013e-12 1.23999e-11 -1.23852e-11 1.90877e-14 2.02289e-14 -2.47653e-11 2.78694e-14 -2.6857e-15 3.94943e-15 2.16817e-14 -2.47587e-11 -2.47627e-11 -3.18644e-14 2.47421e-11 -2.10219e-11 0 1.07657e-12 1.07583e-12 -1.27999e-12 -3.28414e-15 1.81421e-12 -1.82048e-12 -1.81758e-12 1.82049e-12 1.82302e-12 3.41066e-15 -1.80949e-12 -1.81315e-12 1.23833e-11 -6.74702e-15 -1.20936e-14 1.23702e-11 -1.24016e-11 1.16413e-15 -7.39898e-15 -2.37332e-14 2.47461e-11 -2.37349e-14 4.56841e-15 4.34578e-15 -2.84447e-14 2.47506e-11 2.4771e-11 -2.10115e-11 -3.3411e-11 3.3422e-11 0 1.07525e-15 -1.53887e-16 -6.91513e-16 2.80357e-15 2.75071e-15 1.86403e-15 1.02602e-15 -1.91822e-15 -6.64818e-15 -4.01521e-15 1.60772e-15 5.88704e-15 7.7124e-15 1.73223e-15 -1.47667e-14 -2.20209e-14 -7.7211e-15 -1.09421e-14 -1.00336e-14 6.87783e-15 4.21142e-15 -1.56035e-15 -1.63632e-14 -1.59488e-14 1.54707e-14 -6.88817e-15 -3.56985e-14 -1.54247e-14 6.87338e-15 -2.11331e-14 0 -1.07871e-12 -1.07536e-12 1.28238e-12 -4.77912e-16 -1.83134e-15 1.80857e-12 1.80571e-12 -1.05788e-11 -1.05697e-11 1.81666e-12 -6.63152e-15 -2.07145e-14 -2.15234e-14 1.2372e-11 6.17424e-15 -2.47398e-11 2.57262e-15 1.23783e-11 1.23853e-11 2.11099e-15 -2.47494e-11 1.60089e-14 1.23955e-11 -3.16363e-16 -1.53054e-14 -1.4055e-15 -3.34084e-11 2.60486e-14 8.13689e-15 -3.33965e-11 0 1.07754e-12 1.07742e-12 5.33532e-13 -3.35515e-15 -1.81543e-12 7.06725e-15 -1.05668e-11 4.98014e-15 4.19271e-16 -1.05703e-11 3.63605e-12 3.64489e-12 -3.15949e-11 -3.34196e-11 1.23866e-11 2.47557e-11 1.23804e-11 -3.34173e-11 -3.34197e-11 1.23834e-11 2.47589e-11 1.23715e-11 -1.23849e-11 -9.87603e-15 -2.10466e-11 -6.68227e-11 3.89705e-14 -3.0887e-14 -2.37557e-14 -2.18682e-14 0 -3.63581e-12 -3.63576e-12 -3.6314e-12 -1.81348e-12 -1.26121e-15 -1.82607e-12 1.05695e-11 -2.07516e-15 -4.34933e-16 2.58105e-16 -1.42151e-11 -3.64246e-12 3.15892e-11 3.33954e-11 -1.23939e-11 -2.47556e-11 -1.23901e-11 3.34035e-11 2.10275e-11 -2.4771e-11 -1.23639e-11 -1.23616e-11 -1.23858e-11 1.1759e-14 3.3423e-11 6.6822e-11 -3.53215e-14 2.37557e-14 2.14569e-14 2.06108e-14 0 3.90125e-12 3.76624e-12 1.81514e-12 1.81477e-12 1.81465e-12 8.35299e-15 -1.81328e-12 1.05721e-11 1.05632e-11 8.74284e-12 1.24002e-11 -8.74174e-12 -1.05543e-11 -1.23513e-11 2.52739e-14 2.47826e-11 2.5842e-14 -1.23476e-11 1.65044e-14 1.23816e-11 1.23844e-11 1.23953e-11 2.47616e-11 -2.10521e-11 -3.33944e-11 1.16158e-14 3.34363e-11 -2.55959e-14 -2.22559e-14 3.34199e-11 0 2.00558e-06 0 0 0 0 0 0 0 0 0 0 0 0 0 0 0 0 0 0 0 0 0 0 0 0 0 0 0 0 0 0
				</DataArray>
			</PointData>
			<CellData Scalars="Density">
				<DataArray Name="Density" type="Float32" format="ascii">