<?xml version="1.0"?>
<VTKFile type="PolyData">
	<PolyData>
		<Piece NumberOfPoints="961" NumberOfPolys="900">
			<Points>
				<DataArray type="Float32" NumberOfComponents="3" format="ascii">
 0 0 0 0.04 0 0 0.08 0 0 0.12 0 0 0.16 0 0 0.2 0 0 0.24 0 0 0.28 0 0 0.32 0 0 0.36 0 0 0.4 0 0 0.44 0 0 0.48 0 0 0.52 0 0 0.56 0 0 0.6 0 0 0.64 0 0 0.68 0 0 0.72 0 0 0.76 0 0 0.8 0 0 0.84 0 0 0.88 0 0 0.92 0 0 0.96 0 0 1 0 0 1.04 0 0 1.08 0 0 1.12 0 0 1.16 0 0 1.2 0 0 0 0.04 0 0.04 0.04 0 0.08 0.04 0 0.12 0.04 0 0.16 0.04 0 0.2 0.04 0 0.24 0.04 0 0.28 0.04 0 0.32 0.04 0 0.36 0.04 0 0.4 0.04 0 0.44 0.04 0 0.48 0.04 0 0.52 0.04 0 0.56 0.04 0 0.6 0.04 0 0.64 0.04 0 0.68 0.04 0 0.72 0.04 0 0.76 0.04 0 0.8 0.04 0 0.84 0.04 0 0.88 0.04 0 0.92 0.04 0 0.96 0.04 0 1 0.04 0 1.04 0.04 0 1.08 0.04 0 1.12 0.04 0 1.16 0.04 0 1.2 0.04 0 0 0.08 0 0.04 0.08 0 0.08 0.08 0 0.12 0.08 0 0.16 0.08 0 0.2 0.08 0 0.24 0.08 0 0.28 0.08 0 0.32 0.08 0 0.36 0.08 0 0.4 0.08 0 0.44 0.08 0 0.48 0.08 0 0.52 0.08 0 0.56 0.08 0 0.6 0.08 0 0.64 0.08 0 0.68 0.08 0 0.72 0.08 0 0.76 0.08 0 0.8 0.08 0 0.84 0.08 0 0.88 0.08 0 0.92 0.08 0 0.96 0.08 0 1 0.08 0 1.04 0.08 0 1.08 0.08 0 1.12 0.08 0 1.16 0.08 0 1.2 0.08 0 0 0.12 0 0.04 0.12 0 0.08 0.12 0 0.12 0.12 0 0.16 0.12 0 0.2 0.12 0 0.24 0.12 0 0.28 0.12 0 0.32 0.12 0 0.36 0.12 0 0.4 0.12 0 0.44 0.12 0 0.48 0.12 0 0.52 0.12 0 0.56 0.12 0 0.6 0.12 0 0.64 0.12 0 0.68 0.12 0 0.72 0.12 0 0.76 0.12 0 0.8 0.12 0 0.84 0.12 0 0.88 0.12 0 0.92 0.12 0 0.96 0.12 0 1 0.12 0 1.04 0.12 0 1.08 0.12 0 1.12 0.12 0 1.16 0.12 0 1.2 0.12 0 0 0.16 0 0.04 0.16 0 0.08 0.16 0 0.12 0.16 0 0.16 0.16 0 0.2 0.16 0 0.24 0.16 0 0.28 0.16 0 0.32 0.16 0 0.36 0.16 0 0.4 0.16 0 0.44 0.16 0 0.48 0.16 0 0.52 0.16 0 0.56 0.16 0 0.6 0.16 0 0.64 0.16 0 0.68 0.16 0 0.72 0.16 0 0.76 0.16 0 0.8 0.16 0 0.84 0.16 0 0.88 0.16 0 0.92 0.16 0 0.96 0.16 0 1 0.16 0 1.04 0.16 0 1.08 0.16 0 1.12 0.16 0 1.16 0.16 0 1.2 0.16 0 0 0.2 0 0.04 0.2 0 0.08 0.2 0 0.12 0.2 0 0.16 0.2 0 0.2 0.2 0 0.24 0.2 0 0.28 0.2 0 0.32 0.2 0 0.36 0.2 0 0.4 0.2 0 0.44 0.2 0 0.48 0.2 0 0.52 0.2 0 0.56 0.2 0 0.6 0.2 0 0.64 0.2 0 0.68 0.2 0 0.72 0.2 0 0.76 0.2 0 0.8 0.2 0 0.84 0.2 0 0.88 0.2 0 0.92 0.2 0 0.96 0.2 0 1 0.2 0 1.04 0.2 0 1.08 0.2 0 1.12 0.2 0 1.16 0.2 0 1.2 0.2 0 0 0.24 0 0.04 0.24 0 0.08 0.24 0 0.12 0.24 0 0.16 0.24 0 0.2 0.24 0 0.24 0.24 0 0.28 0.24 0 0.32 0.24 0 0.36 0.24 0 0.4 0.24 0 0.44 0.24 0 0.48 0.24 0 0.52 0.24 0 0.56 0.24 0 0.6 0.24 0 0.64 0.24 0 0.68 0.24 0 0.72 0.24 0 0.76 0.24 0 0.8 0.24 0 0.84 0.24 0 0.88 0.24 0 0.92 0.24 0 0.96 0.24 0 1 0.24 0 1.04 0.24 0 1.08 0.24 0 1.12 0.24 0 1.16 0.24 0 1.2 0.24 0 0 0.28 0 0.04 0.28 0 0.08 0.28 0 0.12 0.28 0 0.16 0.28 0 0.2 0.28 0 0.24 0.28 0 0.28 0.28 0 0.32 0.28 0 0.36 0.28 0 0.4 0.28 0 0.44 0.28 0 0.48 0.28 0 0.52 0.28 0 0.56 0.28 0 0.6 0.28 0 0.64 0.28 0 0.68 0.28 0 0.72 0.28 0 0.76 0.28 0 0.8 0.28 0 0.84 0.28 0 0.88 0.28 0 0.92 0.28 0 0.96 0.28 0 1 0.28 0 1.04 0.28 0 1.08 0.28 0 1.12 0.28 0 1.16 0.28 0 1.2 0.28 0 0 0.32 0 0.04 0.32 0 0.08 0.32 0 0.12 0.32 0 0.16 0.32 0 0.2 0.32 0 0.24 0.32 0 0.28 0.32 0 0.32 0.32 0 0.36 0.32 0 0.4 0.32 0 0.44 0.32 0 0.48 0.32 0 0.52 0.32 0 0.56 0.32 0 0.6 0.32 0 0.64 0.32 0 0.68 0.32 0 0.72 0.32 0 0.76 0.32 0 0.8 0.32 0 0.84 0.32 0 0.88 0.32 0 0.92 0.32 0 0.96 0.32 0 1 0.32 0 1.04 0.32 0 1.08 0.32 0 1.12 0.32 0 1.16 0.32 0 1.2 0.32 0 0 0.36 0 0.04 0.36 0 0.08 0.36 0 0.12 0.36 0 0.16 0.36 0 0.2 0.36 0 0.24 0.36 0 0.28 0.36 0 0.32 0.36 0 0.36 0.36 0 0.4 0.36 0 0.44 0.36 0 0.48 0.36 0 0.52 0.36 0 0.56 0.36 0 0.6 0.36 0 0.64 0.36 0 0.68 0.36 0 0.72 0.36 0 0.76 0.36 0 0.8 0.36 0 0.84 0.36 0 0.88 0.36 0 0.92 0.36 0 0.96 0.36 0 1 0.36 0 1.04 0.36 0 1.08 0.36 0 1.12 0.36 0 1.16 0.36 0 1.2 0.36 0 0 0.4 0 0.04 0.4 0 0.08 0.4 0 0.12 0.4 0 0.16 0.4 0 0.2 0.4 0 0.24 0.4 0 0.28 0.4 0 0.32 0.4 0 0.36 0.4 0 0.4 0.4 0 0.44 0.4 0 0.48 0.4 0 0.52 0.4 0 0.56 0.4 0 0.6 0.4 0 0.64 0.4 0 0.68 0.4 0 0.72 0.4 0 0.76 0.4 0 0.8 0.4 0 0.84 0.4 0 0.88 0.4 0 0.92 0.4 0 0.96 0.4 0 1 0.4 0 1.04 0.4 0 1.08 0.4 0 1.12 0.4 0 1.16 0.4 0 1.2 0.4 0 0 0.44 0 0.04 0.44 0 0.08 0.44 0 0.12 0.44 0 0.16 0.44 0 0.2 0.44 0 0.24 0.44 0 0.28 0.44 0 0.32 0.44 0 0.36 0.44 0 0.4 0.44 0 0.44 0.44 0 0.48 0.44 0 0.52 0.44 0 0.56 0.44 0 0.6 0.44 0 0.64 0.44 0 0.68 0.44 0 0.72 0.44 0 0.76 0.44 0 0.8 0.44 0 0.84 0.44 0 0.88 0.44 0 0.92 0.44 0 0.96 0.44 0 1 0.44 0 1.04 0.44 0 1.08 0.44 0 1.12 0.44 0 1.16 0.44 0 1.2 0.44 0 0 0.48 0 0.04 0.48 0 0.08 0.48 0 0.12 0.48 0 0.16 0.48 0 0.2 0.48 0 0.24 0.48 0 0.28 0.48 0 0.32 0.48 0 0.36 0.48 0 0.4 0.48 0 0.44 0.48 0 0.48 0.48 0 0.52 0.48 0 0.56 0.48 0 0.6 0.48 0 0.64 0.48 0 0.68 0.48 0 0.72 0.48 0 0.76 0.48 0 0.8 0.48 0 0.84 0.48 0 0.88 0.48 0 0.92 0.48 0 0.96 0.48 0 1 0.48 0 1.04 0.48 0 1.08 0.48 0 1.12 0.48 0 1.16 0.48 0 1.2 0.48 0 0 0.52 0 0.04 0.52 0 0.08 0.52 0 0.12 0.52 0 0.16 0.52 0 0.2 0.52 0 0.24 0.52 0 0.28 0.52 0 0.32 0.52 0 0.36 0.52 0 0.4 0.52 0 0.44 0.52 0 0.48 0.52 0 0.52 0.52 0 0.56 0.52 0 0.6 0.52 0 0.64 0.52 0 0.68 0.52 0 0.72 0.52 0 0.76 0.52 0 0.8 0.52 0 0.84 0.52 0 0.88 0.52 0 0.92 0.52 0 0.96 0.52 0 1 0.52 0 1.04 0.52 0 1.08 0.52 0 1.12 0.52 0 1.16 0.52 0 1.2 0.52 0 0 0.56 0 0.04 0.56 0 0.08 0.56 0 0.12 0.56 0 0.16 0.56 0 0.2 0.56 0 0.24 0.56 0 0.28 0.56 0 0.32 0.56 0 0.36 0.56 0 0.4 0.56 0 0.44 0.56 0 0.48 0.56 0 0.52 0.56 0 0.56 0.56 0 0.6 0.56 0 0.64 0.56 0 0.68 0.56 0 0.72 0.56 0 0.76 0.56 0 0.8 0.56 0 0.84 0.56 0 0.88 0.56 0 0.92 0.56 0 0.96 0.56 0 1 0.56 0 1.04 0.56 0 1.08 0.56 0 1.12 0.56 0 1.16 0.56 0 1.2 0.56 0 0 0.6 0 0.04 0.6 0 0.08 0.6 0 0.12 0.6 0 0.16 0.6 0 0.2 0.6 0 0.24 0.6 0 0.28 0.6 0 0.32 0.6 0 0.36 0.6 0 0.4 0.6 0 0.44 0.6 0 0.48 0.6 0 0.52 0.6 0 0.56 0.6 0 0.6 0.6 0 0.64 0.6 0 0.68 0.6 0 0.72 0.6 0 0.76 0.6 0 0.8 0.6 0 0.84 0.6 0 0.88 0.6 0 0.92 0.6 0 0.96 0.6 0 1 0.6 0 1.04 0.6 0 1.08 0.6 0 1.12 0.6 0 1.16 0.6 0 1.2 0.6 0 0 0.64 0 0.04 0.64 0 0.08 0.64 0 0.12 0.64 0 0.16 0.64 0 0.2 0.64 0 0.24 0.64 0 0.28 0.64 0 0.32 0.64 0 0.36 0.64 0 0.4 0.64 0 0.44 0.64 0 0.48 0.64 0 0.52 0.64 0 0.56 0.64 0 0.6 0.64 0 0.64 0.64 0 0.68 0.64 0 0.72 0.64 0 0.76 0.64 0 0.8 0.64 0 0.84 0.64 0 0.88 0.64 0 0.92 0.64 0 0.96 0.64 0 1 0.64 0 1.04 0.64 0 1.08 0.64 0 1.12 0.64 0 1.16 0.64 0 1.2 0.64 0 0 0.68 0 0.04 0.68 0 0.08 0.68 0 0.12 0.68 0 0.16 0.68 0 0.2 0.68 0 0.24 0.68 0 0.28 0.68 0 0.32 0.68 0 0.36 0.68 0 0.4 0.68 0 0.44 0.68 0 0.48 0.68 0 0.52 0.68 0 0.56 0.68 0 0.6 0.68 0 0.64 0.68 0 0.68 0.68 0 0.72 0.68 0 0.76 0.68 0 0.8 0.68 0 0.84 0.68 0 0.88 0.68 0 0.92 0.68 0 0.96 0.68 0 1 0.68 0 1.04 0.68 0 1.08 0.68 0 1.12 0.68 0 1.16 0.68 0 1.2 0.68 0 0 0.72 0 0.04 0.72 0 0.08 0.72 0 0.12 0.72 0 0.16 0.72 0 0.2 0.72 0 0.24 0.72 0 0.28 0.72 0 0.32 0.72 0 0.36 0.72 0 0.4 0.72 0 0.44 0.72 0 0.48 0.72 0 0.52 0.72 0 0.56 0.72 0 0.6 0.72 0 0.64 0.72 0 0.68 0.72 0 0.72 0.72 0 0.76 0.72 0 0.8 0.72 0 0.84 0.72 0 0.88 0.72 0 0.92 0.72 0 0.96 0.72 0 1 0.72 0 1.04 0.72 0 1.08 0.72 0 1.12 0.72 0 1.16 0.72 0 1.2 0.72 0 0 0.76 0 0.04 0.76 0 0.08 0.76 0 0.12 0.76 0 0.16 0.76 0 0.2 0.76 0 0.24 0.76 0 0.28 0.76 0 0.32 0.76 0 0.36 0.76 0 0.4 0.76 0 0.44 0.76 0 0.48 0.76 0 0.52 0.76 0 0.56 0.76 0 0.6 0.76 0 0.64 0.76 0 0.68 0.76 0 0.72 0.76 0 0.76 0.76 0 0.8 0.76 0 0.84 0.76 0 0.88 0.76 0 0.92 0.76 0 0.96 0.76 0 1 0.76 0 1.04 0.76 0 1.08 0.76 0 1.12 0.76 0 1.16 0.76 0 1.2 0.76 0 0 0.8 0 0.04 0.8 0 0.08 0.8 0 0.12 0.8 0 0.16 0.8 0 0.2 0.8 0 0.24 0.8 0 0.28 0.8 0 0.32 0.8 0 0.36 0.8 0 0.4 0.8 0 0.44 0.8 0 0.48 0.8 0 0.52 0.8 0 0.56 0.8 0 0.6 0.8 0 0.64 0.8 0 0.68 0.8 0 0.72 0.8 0 0.76 0.8 0 0.8 0.8 0 0.84 0.8 0 0.88 0.8 0 0.92 0.8 0 0.96 0.8 0 1 0.8 0 1.04 0.8 0 1.08 0.8 0 1.12 0.8 0 1.16 0.8 0 1.2 0.8 0 0 0.84 0 0.04 0.84 0 0.08 0.84 0 0.12 0.84 0 0.16 0.84 0 0.2 0.84 0 0.24 0.84 0 0.28 0.84 0 0.32 0.84 0 0.36 0.84 0 0.4 0.84 0 0.44 0.84 0 0.48 0.84 0 0.52 0.84 0 0.56 0.84 0 0.6 0.84 0 0.64 0.84 0 0.68 0.84 0 0.72 0.84 0 0.76 0.84 0 0.8 0.84 0 0.84 0.84 0 0.88 0.84 0 0.92 0.84 0 0.96 0.84 0 1 0.84 0 1.04 0.84 0 1.08 0.84 0 1.12 0.84 0 1.16 0.84 0 1.2 0.84 0 0 0.88 0 0.04 0.88 0 0.08 0.88 0 0.12 0.88 0 0.16 0.88 0 0.2 0.88 0 0.24 0.88 0 0.28 0.88 0 0.32 0.88 0 0.36 0.88 0 0.4 0.88 0 0.44 0.88 0 0.48 0.88 0 0.52 0.88 0 0.56 0.88 0 0.6 0.88 0 0.64 0.88 0 0.68 0.88 0 0.72 0.88 0 0.76 0.88 0 0.8 0.88 0 0.84 0.88 0 0.88 0.88 0 0.92 0.88 0 0.96 0.88 0 1 0.88 0 1.04 0.88 0 1.08 0.88 0 1.12 0.88 0 1.16 0.88 0 1.2 0.88 0 0 0.92 0 0.04 0.92 0 0.08 0.92 0 0.12 0.92 0 0.16 0.92 0 0.2 0.92 0 0.24 0.92 0 0.28 0.92 0 0.32 0.92 0 0.36 0.92 0 0.4 0.92 0 0.44 0.92 0 0.48 0.92 0 0.52 0.92 0 0.56 0.92 0 0.6 0.92 0 0.64 0.92 0 0.68 0.92 0 0.72 0.92 0 0.76 0.92 0 0.8 0.92 0 0.84 0.92 0 0.88 0.92 0 0.92 0.92 0 0.96 0.92 0 1 0.92 0 1.04 0.92 0 1.08 0.92 0 1.12 0.92 0 1.16 0.92 0 1.2 0.92 0 0 0.96 0 0.04 0.96 0 0.08 0.96 0 0.12 0.96 0 0.16 0.96 0 0.2 0.96 0 0.24 0.96 0 0.28 0.96 0 0.32 0.96 0 0.36 0.96 0 0.4 0.96 0 0.44 0.96 0 0.48 0.96 0 0.52 0.96 0 0.56 0.96 0 0.6 0.96 0 0.64 0.96 0 0.68 0.96 0 0.72 0.96 0 0.76 0.96 0 0.8 0.96 0 0.84 0.96 0 0.88 0.96 0 0.92 0.96 0 0.96 0.96 0 1 0.96 0 1.04 0.96 0 1.08 0.96 0 1.12 0.96 0 1.16 0.96 0 1.2 0.96 0 0 1 0 0.04 1 0 0.08 1 0 0.12 1 0 0.16 1 0 0.2 1 0 0.24 1 0 0.28 1 0 0.32 1 0 0.36 1 0 0.4 1 0 0.44 1 0 0.48 1 0 0.52 1 0 0.56 1 0 0.6 1 0 0.64 1 0 0.68 1 0 0.72 1 0 0.76 1 0 0.8 1 0 0.84 1 0 0.88 1 0 0.92 1 0 0.96 1 0 1 1 0 1.04 1 0 1.08 1 0 1.12 1 0 1.16 1 0 1.2 1 0 0 1.04 0 0.04 1.04 0 0.08 1.04 0 0.12 1.04 0 0.16 1.04 0 0.2 1.04 0 0.24 1.04 0 0.28 1.04 0 0.32 1.04 0 0.36 1.04 0 0.4 1.04 0 0.44 1.04 0 0.48 1.04 0 0.52 1.04 0 0.56 1.04 0 0.6 1.04 0 0.64 1.04 0 0.68 1.04 0 0.72 1.04 0 0.76 1.04 0 0.8 1.04 0 0.84 1.04 0 0.88 1.04 0 0.92 1.04 0 0.96 1.04 0 1 1.04 0 1.04 1.04 0 1.08 1.04 0 1.12 1.04 0 1.16 1.04 0 1.2 1.04 0 0 1.08 0 0.04 1.08 0 0.08 1.08 0 0.12 1.08 0 0.16 1.08 0 0.2 1.08 0 0.24 1.08 0 0.28 1.08 0 0.32 1.08 0 0.36 1.08 0 0.4 1.08 0 0.44 1.08 0 0.48 1.08 0 0.52 1.08 0 0.56 1.08 0 0.6 1.08 0 0.64 1.08 0 0.68 1.08 0 0.72 1.08 0 0.76 1.08 0 0.8 1.08 0 0.84 1.08 0 0.88 1.08 0 0.92 1.08 0 0.96 1.08 0 1 1.08 0 1.04 1.08 0 1.08 1.08 0 1.12 1.08 0 1.16 1.08 0 1.2 1.08 0 0 1.12 0 
[...]
			<PointData Scalars="VitesseX">
				<DataArray Name="VitesseX" type="Float32" format="ascii">
 0 0.0539635 -0.177507 -0.0454627 0.0120936 0.398006 0.534215 0.72945 0.902713 1.08926 1.25695 1.42958 1.60723 1.78857 1.97549 2.1745 2.35557 2.70636 3.04094 2.9241 2.38765 1.29754 0.217953 0.00250925 1.70633e-07 1.65362e-12 -1.07895e-12 1.07753e-12 -3.6356e-12 3.63561e-12 0 0 0.339133 0.422609 0.458396 0.318465 0.601937 0.661342 0.823421 0.961983 1.12567 1.27925 1.43969 1.60814 1.78277 1.96665 2.16367 2.34481 2.70486 3.02571 2.90133 2.3555 1.25947 0.202551 0.00217121 1.40197e-07 1.46424e-12 -1.0748e-12 1.07733e-12 -3.63555e-12 3.63271e-12 0 0 0.250818 0.538207 0.636555 0.576161 0.797272 0.796757 0.920794 1.02689 1.16518 1.30865 1.46092 1.62365 1.79312 1.976 2.16716 2.34758 2.73101 3.00918 2.85981 2.27548 1.15128 0.161557 0.00139752 7.85178e-08 1.00942e-12 1.28306e-12 5.31845e-13 -3.62969e-12 1.81443e-12 0 0 0.169175 0.390617 0.55966 0.676342 0.850382 0.867438 0.992836 1.09931 1.21657 1.35051 1.49321 1.64899 1.81112 1.9922 2.17394 2.36015 2.77728 2.98528 2.79437 2.14278 0.977873 0.108108 0.000655703 3.09764e-08 5.36838e-13 -1.31756e-16 -4.8988e-15 -1.8123e-12 1.81418e-12 0 0 0.111163 0.30568 0.531374 0.697129 0.821677 0.900969 1.05153 1.15599 1.26885 1.39898 1.53328 1.68226 1.83659 2.01577 2.18437 2.39054 2.83347 2.94621 2.69328 1.94517 0.748419 0.058247 0.000216992 9.14299e-09 2.17709e-13 -1.46395e-15 -1.81539e-12 -1.68287e-15 1.81304e-12 0 0 0.0987104 0.298963 0.504443 0.666971 0.77802 0.922941 1.07774 1.1862 1.31161 1.43694 1.57238 1.71583 1.86647 2.04292 2.19682 2.45011 2.87695 2.88416 2.53897 1.66787 0.490064 0.0239278 4.84199e-05 2.14016e-09 6.85417e-14 1.80625e-12 8.66018e-15 -1.82878e-12 1.07597e-14 0 0 0.0977218 0.28175 0.470792 0.626077 0.77394 0.938775 1.07207 1.20078 1.33291 1.46171 1.60197 1.73799 1.89722 2.06264 2.21349 2.55305 2.8788 2.7857 2.31066 1.29952 0.25856 0.00708984 6.87363e-06 3.89632e-10 1.68945e-14 1.80202e-12 -1.05645e-11 1.05678e-11 -1.8127e-12 0 0 0.108542 0.267771 0.442271 0.610372 0.772186 0.922526 1.06219 1.20245 1.33549 1.47772 1.61343 1.754 1.92518 2.06895 2.25239 2.67396 2.82471 2.62665 1.98335 0.858592 0.103553 0.00142026 5.94343e-07 5.18909e-11 6.55373e-16 -1.05808e-11 6.69566e-15 -2.07619e-15 1.0569e-11 0 0 0.117228 0.256779 0.417898 0.585066 0.745422 0.900218 1.04874 1.1896 1.33517 1.47841 1.61309 1.77598 1.93472 2.07033 2.35321 2.73271 2.71686 2.37535 1.52487 0.43715 0.0285692 0.000173817 3.43002e-08 5.99395e-12 -7.81646e-15 -1.05696e-11 1.23651e-15 -1.86904e-15 1.05635e-11 0 0 0.116832 0.248718 0.396735 0.554242 0.715215 0.873564 1.02372 1.17583 1.32661 1.46479 1.62095 1.79176 1.92477 2.10689 2.51251 2.68669 2.53583 1.98829 0.951567 0.159409 0.00499145 1.13213e-05 1.89444e-09 2.64229e-13 -5.22419e-15 1.81626e-12 -1.05698e-11 -7.95083e-16 8.7429e-12 0 0 0.116333 0.244687 0.384255 0.534252 0.688963 0.844724 1.00283 1.15771 1.30467 1.46309 1.63759 1.77964 1.92652 2.24871 2.57045 2.5504 2.2293 1.4228 0.426054 0.0373937 0.000492753 3.59975e-07 9.50937e-11 -1.79259e-12 2.03396e-15 -7.86741e-15 3.63531e-12 -1.42173e-11 1.24027e-11 0 0 0.117434 0.244218 0.378907 0.522339 0.673389 0.829143 0.984728 1.13954 1.30265 1.47601 1.62615 1.76857 2.02612 2.39919 2.4833 2.3061 1.72805 0.749851 0.125867 0.00500859 2.23249e-05 7.83738e-09 4.53916e-12 -1.81108e-12 6.47176e-15 -2.82027e-14 3.65042e-12 -3.64393e-12 -8.73938e-12 0 0 0.119179 0.245082 0.377627 0.518129 0.666676 0.820513 0.978269 1.14297 1.31203 1.46557 1.61562 1.8506 2.21128 2.36414 2.27508 1.86811 1.01999 0.258105 0.0211981 0.0003243 4.00114e-07 2.12806e-10 -1.23105e-11 1.23811e-11 7.21513e-15 -2.58367e-14 -3.15952e-11 3.15918e-11 -1.05496e-11 0 0 0.121327 0.24744 0.379145 0.519039 0.667423 0.823168 0.985525 1.14877 1.30411 1.46783 1.70774 2.03637 2.20895 2.17624 1.88069 1.17711 0.386349 0.0511774 0.00174006 7.57654e-06 4.64769e-09 1.37047e-11 -1.05478e-11 -9.00724e-15 6.61151e-16 1.23712e-11 -3.34272e-11 3.33978e-11 -1.23421e-11 0 0 0.125353 0.2541 0.387933 0.529078 0.678 0.833197 0.990731 1.15127 1.33637 1.5939 1.87386 2.0343 2.02827 1.79789 1.21066 0.466862 0.0839761 0.00479735 5.1119e-05 6.1349e-08 6.62383e-11 -1.77607e-12 -8.74002e-12 -1.86028e-14 -1.54638e-14 8.78323e-15 1.23844e-11 -1.2392e-11 2.7383e-14 0 0 0.130927 0.264075 0.40169 0.544543 0.693661 0.851793 1.02696 1.23914 1.48992 1.70663 1.84458 1.84008 1.6409 1.13565 0.477582 0.103374 0.00822176 0.000158205 4.09187e-07 5.15879e-10 1.10741e-11 -1.23829e-11 1.81808e-12 1.23639e-11 -2.71145e-14 -2.47271e-11 2.4754e-11 -2.47539e-11 2.47815e-11 0 0 0.137003 0.277838 0.425372 0.58194 0.753275 0.946487 1.15422 1.35474 1.52524 1.63069 1.6141 1.4208 0.972395 0.420804 0.100085 0.00964248 0.000266669 1.2257e-06 1.95139e-09 -5.41576e-12 1.15645e-14 -7.06538e-15 1.23984e-11 -1.24003e-11 -1.21106e-14 4.6175e-15 1.23812e-11 -1.23933e-11 3.30407e-14 0 0 0.15628 0.318523 0.486882 0.661142 0.838818 1.01351 1.18041 1.319 1.38452 1.34519 1.14325 0.745639 0.317292 0.0766293 0.0079903 0.00026558 1.74584e-06 3.77986e-09 -2.15664e-12 1.42306e-11 -2.47845e-11 2.47849e-11 -1.23863e-11 1.6252e-15 -1.0942e-14 1.23741e-11 -3.34221e-11 3.34013e-11 -1.23336e-11 0 0 0.170342 0.339556 0.50684 0.671919 0.830186 0.967842 1.0668 1.09622 1.02759 0.819068 0.491217 0.197599 0.0447259 0.00457009 0.000156506 1.22202e-06 3.77079e-09 4.18061e-12 5.27612e-14 -2.10433e-11 2.10483e-11 -1.85254e-14 2.19308e-14 -9.80935e-15 -1.00265e-14 1.23812e-11 -3.34226e-11 2.1029e-11 2.41546e-14 0 0 0.164618 0.322206 0.469644 0.601812 0.706801 0.767555 0.762776 0.669941 0.483875 0.260153 0.093224 0.0182091 0.00164764 5.03983e-05 4.06337e-07 1.93762e-09 1.46585e-12 1.81207e-14 -3.11904e-15 -2.10286e-11 2.1057e-11 -2.47507e-14 2.79965e-14 -2.89732e-14 5.14292e-15 3.79218e-15 1.23861e-11 -2.47704e-11 1.23803e-11 0 0 0.131917 0.249667 0.347045 0.414714 0.439687 0.41223 0.329737 0.210903 0.0976962 0.0280865 0.00436553 0.000309079 7.4606e-06 6.04361e-08 5.06605e-10 1.5691e-11 -1.05498e-11 -2.10307e-11 2.10045e-11 1.36432e-14 8.05323e-15 1.23796e-11 -2.47573e-11 2.47355e-11 2.46942e-15 -2.47371e-11 2.47525e-11 -1.23587e-11 1.23853e-11 0 0 0.0680286 0.121975 0.154856 0.161877 0.142934 0.102261 0.0539919 0.0189005 0.00397123 0.000445622 2.15036e-05 3.91226e-07 4.54356e-09 6.53051e-11 -1.00491e-11 -2.16413e-14 1.29702e-14 -2.10346e-11 2.10318e-11 -2.03683e-14 1.72423e-14 -1.69326e-14 3.31757e-14 -3.13732e-14 -1.55338e-15 2.08135e-14 1.2367e-11 -1.23568e-11 1.23963e-11 0 0 0.0147392 0.0243177 0.0259567 0.0202765 0.0113109 0.00430107 0.00105566 0.000149521 1.0567e-05 3.4455e-07 7.44766e-09 1.85573e-10 1.36437e-11 -1.78375e-12 -8.73296e-12 -2.44405e-14 1.16545e-14 -3.92714e-15 3.67085e-15 1.23632e-11 -2.47537e-11 1.23903e-11 -2.98586e-15 4.57195e-15 -2.11628e-14 1.23986e-11 -1.23807e-11 -1.23899e-11 2.47619e-11 0 0 0.000296586 0.000386295 0.000275994 0.000123075 3.41942e-05 5.62566e-06 5.25454e-07 3.06564e-08 1.71352e-09 8.97941e-11 7.89869e-13 -8.70281e-12 1.05758e-11 -1.23889e-11 1.82346e-12 1.23754e-11 -1.2381e-11 -6.38204e-15 5.96614e-15 -2.00441e-14 2.34962e-14 -1.58505e-14 6.43234e-15 4.34933e-15 -2.07414e-14 4.1733e-15 -1.17009e-14 1.97309e-15 -2.10472e-11 0 0 2.65666e-08 2.85455e-08 1.55792e-08 5.46834e-09 1.44971e-09 2.97284e-10 4.40407e-11 1.85631e-12 2.37196e-13 1.81719e-12 -1.80689e-12 -8.76355e-12 9.2031e-15 -2.41659e-14 1.23993e-11 -1.23844e-11 -4.11491e-15 1.35689e-14 -2.7083e-14 -7.8891e-15 3.50145e-14 -2.75853e-14 2.73626e-14 -3.60831e-14 2.02838e-14 -2.02998e-14 -2.10507e-11 3.34171e-11 -3.33835e-11 0 0 1.81456e-13 -3.36356e-12 3.83963e-12 -3.52077e-12 3.71675e-14 1.20525e-14 3.6344e-12 -3.64026e-12 6.76797e-15 -1.95211e-15 -1.79971e-15 3.6243e-12 -2.47753e-11 2.47346e-11 1.14252e-14 -2.47457e-11 2.47603e-11 -2.47613e-11 2.47438e-11 -1.70601e-14 -2.47267e-11 2.47504e-11 -2.47505e-11 2.47423e-11 -6.89352e-15 -6.08354e-15 -6.68237e-11 6.68228e-11 2.40781e-14 0 0 -3.74191e-15 -1.27525e-12 -4.40416e-15 2.85323e-15 -1.82789e-12 1.82123e-12 -1.05739e-11 1.05708e-11 -1.81587e-12 3.81598e-15 -2.34652e-14 3.64908e-12 -1.24096e-11 -9.6103e-15 8.18826e-15 4.21439e-15 1.2381e-11 -1.23741e-11 -5.57264e-15 -1.11653e-14 2.12853e-14 1.23606e-11 -2.47547e-11 2.47631e-11 -4.0629e-14 -3.34089e-11 4.66331e-14 -4.29843e-14 3.34463e-11 0 0 2.04466e-16 5.33177e-13 -3.63277e-12 1.8194e-12 -1.26633e-14 -1.05714e-11 7.15907e-15 -4.43169e-15 1.05742e-11 -5.30819e-15 -1.95647e-14 -3.15981e-11 3.34025e-11 -1.23725e-11 4.88554e-15 1.23663e-11 -3.34149e-11 3.34283e-11 -1.23766e-11 -1.45896e-14 1.23971e-11 -1.23851e-11 -3.42936e-14 -2.10207e-11 -1.55816e-14 3.36733e-14 -3.85452e-14 3.14138e-14 -3.60662e-14 0 0 5.43163e-17 -6.3012e-15 -1.81264e-12 -6.13935e-16 1.8043e-12 -1.0565e-11 2.00683e-15 -4.53145e-15 4.37744e-15 1.05531e-11 1.04881e-14 -3.1638e-11 3.34164e-11 -1.23647e-11 4.76416e-15 1.23541e-11 -3.34114e-11 2.10521e-11 8.89831e-15 1.23779e-11 -1.23789e-11 -1.239e-11 2.47315e-11 -3.34104e-11 6.86068e-15 1.57618e-14 -3.14138e-14 2.91151e-14 -2.99014e-14 0 0 -2.636e-13 -1.81589e-12 1.81409e-12 -1.81788e-12 -7.8082e-15 1.82032e-12 -1.05715e-11 1.05637e-11 -1.23834e-11 1.23842e-11 -1.23893e-11 1.41873e-11 -1.23954e-11 2.68546e-14 5.5626e-15 -3.45601e-14 1.24052e-11 -2.4779e-11 1.23967e-11 1.24067e-11 -1.23948e-11 -4.17366e-14 -2.10339e-11 3.34338e-11 -2.39586e-14 -3.3397e-11 -2.6689e-14 2.82563e-14 3.34203e-11 0 0 0 0 0 0 0 0 0 0 0 0 0 0 0 0 0 0 0 0 0 0 0 0 0 0 0 0 0 0 0 0
				</DataArray>
				<DataArray Name="VitesseY" type="Float32" format="ascii">
 0 0 0 0 0 0 0 0 0 0 0 0 0 0 0 0 0 0 0 0 0 0 0 0 0 0 0 0 0 0 0 0.0540263 0.339092 0.250787 0.16916 0.111163 0.0987246 0.0977353 0.10855 0.117231 0.116834 0.116339 0.117441 0.119184 0.121328 0.125351 0.130924 0.137001 0.156281 0.170344 0.16462 0.131919 0.0680299 0.0147397 0.000296604 2.65697e-08 1.81479e-13 -3.74191e-15 2.04466e-16 5.43408e-17 -2.78438e-15 0 -0.177501 0.422542 0.538148 0.390587 0.305702 0.299014 0.281789 0.267783 0.256776 0.248718 0.244691 0.244222 0.245086 0.24744 0.254097 0.264071 0.277836 0.318525 0.339559 0.32221 0.249671 0.121978 0.0243184 0.000386319 2.85487e-08 -3.36354e-12 -1.27525e-12 5.33177e-13 -6.30117e-15 -1.81589e-12 0 -0.045523 0.458334 0.636528 0.559654 0.531401 0.504485 0.470827 0.442284 0.417893 0.396731 0.384254 0.378906 0.377625 0.379142 0.387928 0.401686 0.425372 0.486887 0.506845 0.469649 0.34705 0.154859 0.0259575 0.00027601 1.55807e-08 3.83966e-12 -4.40416e-15 -3.63277e-12 -1.81264e-12 1.81409e-12 0 0.011995 0.318388 0.576106 0.676324 0.697152 0.667013 0.62612 0.610402 0.585075 0.55424 0.534247 0.522333 0.518124 0.519034 0.529074 0.544541 0.581943 0.661147 0.671924 0.601818 0.41472 0.16188 0.020277 0.000123082 5.46881e-09 -3.52075e-12 2.85323e-15 1.8194e-12 -6.13935e-16 -1.81788e-12 0 0.397919 0.601901 0.797288 0.850391 0.821688 0.778044 0.773969 0.772214 0.745441 0.71522 0.688959 0.673382 0.666671 0.667418 0.677996 0.693661 0.753279 0.838823 0.830192 0.706807 0.439691 0.142936 0.0113112 3.41959e-05 1.44981e-09 3.7165e-14 -1.82789e-12 -1.26633e-14 1.8043e-12 -7.8082e-15 0 0.53413 0.66131 0.796771 0.867428 0.900966 0.922955 0.9388 0.922553 0.900239 0.873574 0.844723 0.829139 0.820509 0.823164 0.833193 0.851792 0.94649 1.01351 0.967846 0.76756 0.412233 0.102262 0.00430115 5.6259e-06 2.97301e-10 1.205e-14 1.82123e-12 -1.05714e-11 -1.0565e-11 1.82032e-12 0 0.72938 0.823405 0.920821 0.992845 1.05152 1.07774 1.07209 1.06221 1.04875 1.02373 1.00283 0.984727 0.978266 0.985522 0.990729 1.02696 1.15422 1.18041 1.06681 0.762777 0.329738 0.053992 0.00105567 5.2547e-07 4.40426e-11 3.6344e-12 -1.05739e-11 7.15907e-15 2.00683e-15 -1.05715e-11 0 0.902652 0.96197 1.0269 1.09932 1.15599 1.1862 1.2008 1.20247 1.18962 1.17583 1.15772 1.13954 1.14296 1.14877 1.15128 1.23914 1.35474 1.319 1.09622 0.669941 0.210903 0.0189004 0.000149521 3.06568e-08 1.85645e-12 -3.64026e-12 1.05708e-11 -4.43169e-15 -4.53145e-15 1.05637e-11 0 1.0892 1.12566 1.16519 1.21659 1.26886 1.31162 1.33293 1.33551 1.33518 1.32661 1.30467 1.30265 1.31203 1.30411 1.33637 1.48992 1.52524 1.38452 1.02759 0.483873 0.0976953 0.00397119 1.05669e-05 1.71352e-09 2.37191e-13 6.76797e-15 -1.81587e-12 1.05742e-11 4.37744e-15 -1.23834e-11 0 1.25692 1.27924 1.30865 1.35053 1.39899 1.43695 1.46172 1.47773 1.47842 1.46479 1.46309 1.47601 1.46557 1.46783 1.5939 1.70662 1.6307 1.34519 0.819066 0.26015 0.0280861 0.000445613 3.44542e-07 8.97933e-11 1.81719e-12 -1.95211e-15 3.81598e-15 -5.30819e-15 1.05531e-11 1.23842e-11 0 1.42955 1.43968 1.46092 1.49322 1.53329 1.5724 1.60198 1.61344 1.61309 1.62095 1.6376 1.62615 1.61562 1.70773 1.87385 1.84458 1.61409 1.14324 0.491214 0.0932231 0.00436546 2.15031e-05 7.44748e-09 7.89858e-13 -1.80689e-12 -1.79971e-15 -2.34652e-14 -1.95647e-14 1.04881e-14 -1.23893e-11 0 1.60722 1.60814 1.62365 1.649 1.68227 1.71585 1.73801 1.75401 1.77599 1.79176 1.77965 1.76857 1.85061 2.03637 2.0343 1.84008 1.4208 0.745635 0.197598 0.0182089 0.000309072 3.91214e-07 1.85568e-10 -8.70282e-12 -8.76355e-12 3.6243e-12 3.64908e-12 -3.15981e-11 -3.1638e-11 1.41873e-11 0 1.78857 1.78277 1.79312 1.81112 1.83659 1.86648 1.89723 1.92519 1.93473 1.92477 1.92653 2.02613 2.21128 2.20895 2.02826 1.6409 0.97239 0.31729 0.0447255 0.00164763 7.46042e-06 4.54344e-09 1.36436e-11 1.05758e-11 9.2031e-15 -2.47753e-11 -1.24096e-11 3.34025e-11 3.34164e-11 -1.23954e-11 0 1.9755 1.96665 1.976 1.9922 2.01578 2.04293 2.06265 2.06896 2.07033 2.10689 2.24872 2.39919 2.36415 2.17624 1.79789 1.13565 0.420802 0.0766286 0.00457002 5.03974e-05 6.04352e-08 6.53035e-11 -1.78375e-12 -1.23889e-11 -2.41659e-14 2.47346e-11 -9.6103e-15 -1.23725e-11 -1.23647e-11 2.68546e-14 0 2.17452 2.16368 2.16717 2.17395 2.18437 2.19682 2.21349 2.2524 2.35321 2.51252 2.57045 2.4833 2.27508 1.8807 1.21066 0.477581 0.100085 0.00799025 0.000156503 4.06327e-07 5.06595e-10 -1.00491e-11 -8.73296e-12 1.82346e-12 1.23993e-11 1.14252e-14 8.18826e-15 4.88554e-15 4.76416e-15 5.5626e-15 0 2.35559 2.34482 2.34759 2.36016 2.39054 2.45011 2.55306 2.67396 2.73271 2.6867 2.5504 2.3061 1.86811 1.17711 0.466862 0.103374 0.00964248 0.000265579 1.22201e-06 1.93758e-09 1.56909e-11 -2.16413e-14 -2.44405e-14 1.23754e-11 -1.23844e-11 -2.47457e-11 4.21439e-15 1.23663e-11 1.23541e-11 -3.45601e-14 0 2.70638 2.70487 2.73102 2.77728 2.83347 2.87695 2.87881 2.82472 2.71686 2.53584 2.22931 1.72805 1.02 0.386353 0.0839767 0.0082218 0.000266669 1.74584e-06 3.77077e-09 1.46574e-12 -1.05498e-11 1.29702e-14 1.16545e-14 -1.2381e-11 -4.11491e-15 2.47603e-11 1.2381e-11 -3.34149e-11 -3.34114e-11 1.24052e-11 0 3.04094 3.02571 3.00917 2.98528 2.94621 2.88416 2.7857 2.62666 2.37535 1.9883 1.4228 0.749855 0.258106 0.0511779 0.00479742 0.000158208 1.22571e-06 3.77988e-09 4.18061e-12 1.81205e-14 -2.10307e-11 -2.10346e-11 -3.92714e-15 -6.38204e-15 1.35689e-14 -2.47613e-11 -1.23741e-11 3.34283e-11 2.10521e-11 -2.4779e-11 0 2.92409 2.90132 2.85981 2.79437 2.69328 2.53897 2.31067 1.98335 1.52487 0.951572 0.426059 0.125868 0.0211983 0.00174008 5.11199e-05 4.09197e-07 1.95144e-09 -2.15653e-12 5.27614e-14 -3.11904e-15 2.10045e-11 2.10318e-11 3.67085e-15 5.96614e-15 -2.7083e-14 2.47438e-11 -5.57264e-15 -1.23766e-11 8.89831e-15 1.23967e-11 0 2.38763 2.35548 2.27547 2.14278 1.94516 1.66787 1.29952 0.858595 0.437153 0.159411 0.0373943 0.00500868 0.000324307 7.57672e-06 6.13499e-08 5.15888e-10 -5.41568e-12 1.42306e-11 -2.10433e-11 -2.10286e-11 1.36432e-14 -2.03683e-14 1.23632e-11 -2.00441e-14 -7.8891e-15 -1.70601e-14 -1.11653e-14 -1.45896e-14 1.23779e-11 1.24067e-11 0 1.29753 1.25946 1.15127 0.977863 0.748412 0.490061 0.25856 0.103553 0.0285694 0.00499152 0.000492763 2.23255e-05 4.00126e-07 4.64781e-09 6.62399e-11 1.10741e-11 1.15645e-14 -2.47845e-11 2.10483e-11 2.1057e-11 8.05323e-15 1.72423e-14 -2.47537e-11 2.34962e-14 3.50145e-14 -2.47267e-11 2.12853e-14 1.23971e-11 -1.23789e-11 -1.23948e-11 0 0.217947 0.202546 0.161553 0.108105 0.0582457 0.0239274 0.00708975 0.00142025 0.000173817 1.13215e-05 3.59983e-07 7.83757e-09 2.12812e-10 1.37047e-11 -1.77607e-12 -1.23829e-11 -7.06538e-15 2.47849e-11 -1.85254e-14 -2.47507e-14 1.23796e-11 -1.69326e-14 1.23903e-11 -1.58505e-14 -2.75853e-14 2.47504e-11 1.23606e-11 -1.23851e-11 -1.239e-11 -4.17366e-14 0 0.0025091 0.00217108 0.00139744 0.000655667 0.000216981 4.84176e-05 6.87335e-06 5.94326e-07 3.42998e-08 1.89443e-09 9.50945e-11 4.53919e-12 -1.23105e-11 -1.05478e-11 -8.74002e-12 1.81808e-12 1.23984e-11 -1.23863e-11 2.19308e-14 2.79965e-14 -2.47573e-11 3.31757e-14 -2.98586e-15 6.43234e-15 2.73626e-14 -2.47505e-11 -2.47547e-11 -3.42936e-14 2.47315e-11 -2.10339e-11 0 1.70615e-07 1.40182e-07 7.85098e-08 3.09735e-08 9.14228e-09 2.14003e-09 3.89612e-10 5.18887e-11 5.99382e-12 2.64234e-13 -1.79259e-12 -1.81108e-12 1.23811e-11 -9.00724e-15 -1.86028e-14 1.23639e-11 -1.24003e-11 1.6252e-15 -9.80935e-15 -2.89732e-14 2.47355e-11 -3.13732e-14 4.57195e-15 4.34933e-15 -3.60831e-14 2.47423e-11 2.47631e-11 -2.10207e-11 -3.34104e-11 3.34338e-11 0 1.65345e-12 1.46409e-12 1.00932e-12 5.36782e-13 2.177e-13 6.85493e-14 1.68971e-14 6.55439e-16 -7.81646e-15 -5.22419e-15 2.03396e-15 6.47176e-15 7.21513e-15 6.61151e-16 -1.54638e-14 -2.71145e-14 -1.21106e-14 -1.0942e-14 -1.00265e-14 5.14292e-15 2.46942e-15 -1.55338e-15 -2.11628e-14 -2.07414e-14 2.02838e-14 -6.89352e-15 -4.0629e-14 -1.55816e-14 6.86068e-15 -2.39586e-14 0 -1.07895e-12 -1.0748e-12 1.28306e-12 -1.31756e-16 -1.46395e-15 1.80625e-12 1.80202e-12 -1.05808e-11 -1.05696e-11 1.81626e-12 -7.86741e-15 -2.82027e-14 -2.58367e-14 1.23712e-11 8.78323e-15 -2.47271e-11 4.6175e-15 1.23741e-11 1.23812e-11 3.79218e-15 -2.47371e-11 2.08135e-14 1.23986e-11 4.1733e-15 -2.02998e-14 -6.08354e-15 -3.34089e-11 3.36733e-14 1.57618e-14 -3.3397e-11 0 1.07753e-12 1.07733e-12 5.31845e-13 -4.8988e-15 -1.81539e-12 8.66018e-15 -1.05645e-11 6.69566e-15 1.23651e-15 -1.05698e-11 3.63531e-12 3.65042e-12 -3.15952e-11 -3.34272e-11 1.23844e-11 2.4754e-11 1.23812e-11 -3.34221e-11 -3.34226e-11 1.23861e-11 2.47525e-11 1.2367e-11 -1.23807e-11 -1.17009e-14 -2.10507e-11 -6.68237e-11 4.66331e-14 -3.85452e-14 -3.14138e-14 -2.6689e-14 0 -3.6356e-12 -3.63555e-12 -3.62969e-12 -1.8123e-12 -1.68287e-15 -1.82878e-12 1.05678e-11 -2.07619e-15 -1.86904e-15 -7.95083e-16 -1.42173e-11 -3.64393e-12 3.15918e-11 3.33978e-11 -1.2392e-11 -2.47539e-11 -1.23933e-11 3.34013e-11 2.1029e-11 -2.47704e-11 -1.23587e-11 -1.23568e-11 -1.23899e-11 1.97309e-15 3.34171e-11 6.68228e-11 -4.29843e-14 3.14138e-14 2.91151e-14 2.82563e-14 0 4.15724e-12 3.89353e-12 1.81443e-12 1.81418e-12 1.81304e-12 1.07597e-14 -1.8127e-12 1.0569e-11 1.05635e-11 8.7429e-12 1.24027e-11 -8.73938e-12 -1.05496e-11 -1.23421e-11 2.7383e-14 2.47815e-11 3.30407e-14 -1.23336e-11 2.41546e-14 1.23803e-11 1.23853e-11 1.23963e-11 2.47619e-11 -2.10472e-11 -3.33835e-11 2.40781e-14 3.34463e-11 -3.60662e-14 -2.99014e-14 3.34203e-11 0 2.50838e-06 0 0 0 0 0 0 0 0 0 0 0 0 0 0 0 0 0 0 0 0 0 0 0 0 0 0 0 0 0 0
				</DataArray>
			</PointData>
			<CellData Scalars="Density">
				<DataArray Name="Density" type="Float32" format="ascii">