<?xml version="1.0"?>
<VTKFile type="PolyData">
	<PolyData>
		<Piece NumberOfPoints="961" NumberOfPolys="900">
			<Points>
				<DataArray type="Float32" NumberOfComponents="3" format="ascii">
 0 0 0 0.04 0 0 0.08 0 0 0.12 0 0 0.16 0 0 0.2 0 0 0.24 0 0 0.28 0 0 0.32 0 0 0.36 0 0 0.4 0 0 0.44 0 0 0.48 0 0 0.52 0 0 0.56 0 0 0.6 0 0 0.64 0 0 0.68 0 0 0.72 0 0 0.76 0 0 0.8 0 0 0.84 0 0 0.88 0 0 0.92 0 0 0.96 0 0 1 0 0 1.04 0 0 1.08 0 0 1.12 0 0 1.16 0 0 1.2 0 0 0 0.04 0 0.04 0.04 0 0.08 0.04 0 0.12 0.04 0 0.16 0.04 0 0.2 0.04 0 0.24 0.04 0 0.28 0.04 0 0.32 0.04 0 0.36 0.04 0 0.4 0.04 0 0.44 0.04 0 0.48 0.04 0 0.52 0.04 0 0.56 0.04 0 0.6 0.04 0 0.64 0.04 0 0.68 0.04 0 0.72 0.04 0 0.76 0.04 0 0.8 0.04 0 0.84 0.04 0 0.88 0.04 0 0.92 0.04 0 0.96 0.04 0 1 0.04 0 1.04 0.04 0 1.08 0.04 0 1.12 0.04 0 1.16 0.04 0 1.2 0.04 0 0 0.08 0 0.04 0.08 0 0.08 0.08 0 0.12 0.08 0 0.16 0.08 0 0.2 0.08 0 0.24 0.08 0 0.28 0.08 0 0.32 0.08 0 0.36 0.08 0 0.4 0.08 0 0.44 0.08 0 0.48 0.08 0 0.52 0.08 0 0.56 0.08 0 0.6 0.08 0 0.64 0.08 0 0.68 0.08 0 0.72 0.08 0 0.76 0.08 0 0.8 0.08 0 0.84 0.08 0 0.88 0.08 0 0.92 0.08 0 0.96 0.08 0 1 0.08 0 1.04 0.08 0 1.08 0.08 0 1.12 0.08 0 1.16 0.08 0 1.2 0.08 0 0 0.12 0 0.04 0.12 0 0.08 0.12 0 0.12 0.12 0 0.16 0.12 0 0.2 0.12 0 0.24 0.12 0 0.28 0.12 0 0.32 0.12 0 0.36 0.12 0 0.4 0.12 0 0.44 0.12 0 0.48 0.12 0 0.52 0.12 0 0.56 0.12 0 0.6 0.12 0 0.64 0.12 0 0.68 0.12 0 0.72 0.12 0 0.76 0.12 0 0.8 0.12 0 0.84 0.12 0 0.88 0.12 0 0.92 0.12 0 0.96 0.12 0 1 0.12 0 1.04 0.12 0 1.08 0.12 0 1.12 0.12 0 1.16 0.12 0 1.2 0.12 0 0 0.16 0 0.04 0.16 0 0.08 0.16 0 0.12 0.16 0 0.16 0.16 0 0.2 0.16 0 0.24 0.16 0 0.28 0.16 0 0.32 0.16 0 0.36 0.16 0 0.4 0.16 0 0.44 0.16 0 0.48 0.16 0 0.52 0.16 0 0.56 0.16 0 0.6 0.16 0 0.64 0.16 0 0.68 0.16 0 0.72 0.16 0 0.76 0.16 0 0.8 0.16 0 0.84 0.16 0 0.88 0.16 0 0.92 0.16 0 0.96 0.16 0 1 0.16 0 1.04 0.16 0 1.08 0.16 0 1.12 0.16 0 1.16 0.16 0 1.2 0.16 0 0 0.2 0 0.04 0.2 0 0.08 0.2 0 0.12 0.2 0 0.16 0.2 0 0.2 0.2 0 0.24 0.2 0 0.28 0.2 0 0.32 0.2 0 0.36 0.2 0 0.4 0.2 0 0.44 0.2 0 0.48 0.2 0 0.52 0.2 0 0.56 0.2 0 0.6 0.2 0 0.64 0.2 0 0.68 0.2 0 0.72 0.2 0 0.76 0.2 0 0.8 0.2 0 0.84 0.2 0 0.88 0.2 0 0.92 0.2 0 0.96 0.2 0 1 0.2 0 1.04 0.2 0 1.08 0.2 0 1.12 0.2 0 1.16 0.2 0 1.2 0.2 0 0 0.24 0 0.04 0.24 0 0.08 0.24 0 0.12 0.24 0 0.16 0.24 0 0.2 0.24 0 0.24 0.24 0 0.28 0.24 0 0.32 0.24 0 0.36 0.24 0 0.4 0.24 0 0.44 0.24 0 0.48 0.24 0 0.52 0.24 0 0.56 0.24 0 0.6 0.24 0 0.64 0.24 0 0.68 0.24 0 0.72 0.24 0 0.76 0.24 0 0.8 0.24 0 0.84 0.24 0 0.88 0.24 0 0.92 0.24 0 0.96 0.24 0 1 0.24 0 1.04 0.24 0 1.08 0.24 0 1.12 0.24 0 1.16 0.24 0 1.2 0.24 0 0 0.28 0 0.04 0.28 0 0.08 0.28 0 0.12 0.28 0 0.16 0.28 0 0.2 0.28 0 0.24 0.28 0 0.28 0.28 0 0.32 0.28 0 0.36 0.28 0 0.4 0.28 0 0.44 0.28 0 0.48 0.28 0 0.52 0.28 0 0.56 0.28 0 0.6 0.28 0 0.64 0.28 0 0.68 0.28 0 0.72 0.28 0 0.76 0.28 0 0.8 0.28 0 0.84 0.28 0 0.88 0.28 0 0.92 0.28 0 0.96 0.28 0 1 0.28 0 1.04 0.28 0 1.08 0.28 0 1.12 0.28 0 1.16 0.28 0 1.2 0.28 0 0 0.32 0 0.04 0.32 0 0.08 0.32 0 0.12 0.32 0 0.16 0.32 0 0.2 0.32 0 0.24 0.32 0 0.28 0.32 0 0.32 0.32 0 0.36 0.32 0 0.4 0.32 0 0.44 0.32 0 0.48 0.32 0 0.52 0.32 0 0.56 0.32 0 0.6 0.32 0 0.64 0.32 0 0.68 0.32 0 0.72 0.32 0 0.76 0.32 0 0.8 0.32 0 0.84 0.32 0 0.88 0.32 0 0.92 0.32 0 0.96 0.32 0 1 0.32 0 1.04 0.32 0 1.08 0.32 0 1.12 0.32 0 1.16 0.32 0 1.2 0.32 0 0 0.36 0 0.04 0.36 0 0.08 0.36 0 0.12 0.36 0 0.16 0.36 0 0.2 0.36 0 0.24 0.36 0 0.28 0.36 0 0.32 0.36 0 0.36 0.36 0 0.4 0.36 0 0.44 0.36 0 0.48 0.36 0 0.52 0.36 0 0.56 0.36 0 0.6 0.36 0 0.64 0.36 0 0.68 0.36 0 0.72 0.36 0 0.76 0.36 0 0.8 0.36 0 0.84 0.36 0 0.88 0.36 0 0.92 0.36 0 0.96 0.36 0 1 0.36 0 1.04 0.36 0 1.08 0.36 0 1.12 0.36 0 1.16 0.36 0 1.2 0.36 0 0 0.4 0 0.04 0.4 0 0.08 0.4 0 0.12 0.4 0 0.16 0.4 0 0.2 0.4 0 0.24 0.4 0 0.28 0.4 0 0.32 0.4 0 0.36 0.4 0 0.4 0.4 0 0.44 0.4 0 0.48 0.4 0 0.52 0.4 0 0.56 0.4 0 0.6 0.4 0 0.64 0.4 0 0.68 0.4 0 0.72 0.4 0 0.76 0.4 0 0.8 0.4 0 0.84 0.4 0 0.88 0.4 0 0.92 0.4 0 0.96 0.4 0 1 0.4 0 1.04 0.4 0 1.08 0.4 0 1.12 0.4 0 1.16 0.4 0 1.2 0.4 0 0 0.44 0 0.04 0.44 0 0.08 0.44 0 0.12 0.44 0 0.16 0.44 0 0.2 0.44 0 0.24 0.44 0 0.28 0.44 0 0.32 0.44 0 0.36 0.44 0 0.4 0.44 0 0.44 0.44 0 0.48 0.44 0 0.52 0.44 0 0.56 0.44 0 0.6 0.44 0 0.64 0.44 0 0.68 0.44 0 0.72 0.44 0 0.76 0.44 0 0.8 0.44 0 0.84 0.44 0 0.88 0.44 0 0.92 0.44 0 0.96 0.44 0 1 0.44 0 1.04 0.44 0 1.08 0.44 0 1.12 0.44 0 1.16 0.44 0 1.2 0.44 0 0 0.48 0 0.04 0.48 0 0.08 0.48 0 0.12 0.48 0 0.16 0.48 0 0.2 0.48 0 0.24 0.48 0 0.28 0.48 0 0.32 0.48 0 0.36 0.48 0 0.4 0.48 0 0.44 0.48 0 0.48 0.48 0 0.52 0.48 0 0.56 0.48 0 0.6 0.48 0 0.64 0.48 0 0.68 0.48 0 0.72 0.48 0 0.76 0.48 0 0.8 0.48 0 0.84 0.48 0 0.88 0.48 0 0.92 0.48 0 0.96 0.48 0 1 0.48 0 1.04 0.48 0 1.08 0.48 0 1.12 0.48 0 1.16 0.48 0 1.2 0.48 0 0 0.52 0 0.04 0.52 0 0.08 0.52 0 0.12 0.52 0 0.16 0.52 0 0.2 0.52 0 0.24 0.52 0 0.28 0.52 0 0.32 0.52 0 0.36 0.52 0 0.4 0.52 0 0.44 0.52 0 0.48 0.52 0 0.52 0.52 0 0.56 0.52 0 0.6 0.52 0 0.64 0.52 0 0.68 0.52 0 0.72 0.52 0 0.76 0.52 0 0.8 0.52 0 0.84 0.52 0 0.88 0.52 0 0.92 0.52 0 0.96 0.52 0 1 0.52 0 1.04 0.52 0 1.08 0.52 0 1.12 0.52 0 1.16 0.52 0 1.2 0.52 0 0 0.56 0 0.04 0.56 0 0.08 0.56 0 0.12 0.56 0 0.16 0.56 0 0.2 0.56 0 0.24 0.56 0 0.28 0.56 0 0.32 0.56 0 0.36 0.56 0 0.4 0.56 0 0.44 0.56 0 0.48 0.56 0 0.52 0.56 0 0.56 0.56 0 0.6 0.56 0 0.64 0.56 0 0.68 0.56 0 0.72 0.56 0 0.76 0.56 0 0.8 0.56 0 0.84 0.56 0 0.88 0.56 0 0.92 0.56 0 0.96 0.56 0 1 0.56 0 1.04 0.56 0 1.08 0.56 0 1.12 0.56 0 1.16 0.56 0 1.2 0.56 0 0 0.6 0 0.04 0.6 0 0.08 0.6 0 0.12 0.6 0 0.16 0.6 0 0.2 0.6 0 0.24 0.6 0 0.28 0.6 0 0.32 0.6 0 0.36 0.6 0 0.4 0.6 0 0.44 0.6 0 0.48 0.6 0 0.52 0.6 0 0.56 0.6 0 0.6 0.6 0 0.64 0.6 0 0.68 0.6 0 0.72 0.6 0 0.76 0.6 0 0.8 0.6 0 0.84 0.6 0 0.88 0.6 0 0.92 0.6 0 0.96 0.6 0 1 0.6 0 1.04 0.6 0 1.08 0.6 0 1.12 0.6 0 1.16 0.6 0 1.2 0.6 0 0 0.64 0 0.04 0.64 0 0.08 0.64 0 0.12 0.64 0 0.16 0.64 0 0.2 0.64 0 0.24 0.64 0 0.28 0.64 0 0.32 0.64 0 0.36 0.64 0 0.4 0.64 0 0.44 0.64 0 0.48 0.64 0 0.52 0.64 0 0.56 0.64 0 0.6 0.64 0 0.64 0.64 0 0.68 0.64 0 0.72 0.64 0 0.76 0.64 0 0.8 0.64 0 0.84 0.64 0 0.88 0.64 0 0.92 0.64 0 0.96 0.64 0 1 0.64 0 1.04 0.64 0 1.08 0.64 0 1.12 0.64 0 1.16 0.64 0 1.2 0.64 0 0 0.68 0 0.04 0.68 0 0.08 0.68 0 0.12 0.68 0 0.16 0.68 0 0.2 0.68 0 0.24 0.68 0 0.28 0.68 0 0.32 0.68 0 0.36 0.68 0 0.4 0.68 0 0.44 0.68 0 0.48 0.68 0 0.52 0.68 0 0.56 0.68 0 0.6 0.68 0 0.64 0.68 0 0.68 0.68 0 0.72 0.68 0 0.76 0.68 0 0.8 0.68 0 0.84 0.68 0 0.88 0.68 0 0.92 0.68 0 0.96 0.68 0 1 0.68 0 1.04 0.68 0 1.08 0.68 0 1.12 0.68 0 1.16 0.68 0 1.2 0.68 0 0 0.72 0 0.04 0.72 0 0.08 0.72 0 0.12 0.72 0 0.16 0.72 0 0.2 0.72 0 0.24 0.72 0 0.28 0.72 0 0.32 0.72 0 0.36 0.72 0 0.4 0.72 0 0.44 0.72 0 0.48 0.72 0 0.52 0.72 0 0.56 0.72 0 0.6 0.72 0 0.64 0.72 0 0.68 0.72 0 0.72 0.72 0 0.76 0.72 0 0.8 0.72 0 0.84 0.72 0 0.88 0.72 0 0.92 0.72 0 0.96 0.72 0 1 0.72 0 1.04 0.72 0 1.08 0.72 0 1.12 0.72 0 1.16 0.72 0 1.2 0.72 0 0 0.76 0 0.04 0.76 0 0.08 0.76 0 0.12 0.76 0 0.16 0.76 0 0.2 0.76 0 0.24 0.76 0 0.28 0.76 0 0.32 0.76 0 0.36 0.76 0 0.4 0.76 0 0.44 0.76 0 0.48 0.76 0 0.52 0.76 0 0.56 0.76 0 0.6 0.76 0 0.64 0.76 0 0.68 0.76 0 0.72 0.76 0 0.76 0.76 0 0.8 0.76 0 0.84 0.76 0 0.88 0.76 0 0.92 0.76 0 0.96 0.76 0 1 0.76 0 1.04 0.76 0 1.08 0.76 0 1.12 0.76 0 1.16 0.76 0 1.2 0.76 0 0 0.8 0 0.04 0.8 0 0.08 0.8 0 0.12 0.8 0 0.16 0.8 0 0.2 0.8 0 0.24 0.8 0 0.28 0.8 0 0.32 0.8 0 0.36 0.8 0 0.4 0.8 0 0.44 0.8 0 0.48 0.8 0 0.52 0.8 0 0.56 0.8 0 0.6 0.8 0 0.64 0.8 0 0.68 0.8 0 0.72 0.8 0 0.76 0.8 0 0.8 0.8 0 0.84 0.8 0 0.88 0.8 0 0.92 0.8 0 0.96 0.8 0 1 0.8 0 1.04 0.8 0 1.08 0.8 0 1.12 0.8 0 1.16 0.8 0 1.2 0.8 0 0 0.84 0 0.04 0.84 0 0.08 0.84 0 0.12 0.84 0 0.16 0.84 0 0.2 0.84 0 0.24 0.84 0 0.28 0.84 0 0.32 0.84 0 0.36 0.84 0 0.4 0.84 0 0.44 0.84 0 0.48 0.84 0 0.52 0.84 0 0.56 0.84 0 0.6 0.84 0 0.64 0.84 0 0.68 0.84 0 0.72 0.84 0 0.76 0.84 0 0.8 0.84 0 0.84 0.84 0 0.88 0.84 0 0.92 0.84 0 0.96 0.84 0 1 0.84 0 1.04 0.84 0 1.08 0.84 0 1.12 0.84 0 1.16 0.84 0 1.2 0.84 0 0 0.88 0 0.04 0.88 0 0.08 0.88 0 0.12 0.88 0 0.16 0.88 0 0.2 0.88 0 0.24 0.88 0 0.28 0.88 0 0.32 0.88 0 0.36 0.88 0 0.4 0.88 0 0.44 0.88 0 0.48 0.88 0 0.52 0.88 0 0.56 0.88 0 0.6 0.88 0 0.64 0.88 0 0.68 0.88 0 0.72 0.88 0 0.76 0.88 0 0.8 0.88 0 0.84 0.88 0 0.88 0.88 0 0.92 0.88 0 0.96 0.88 0 1 0.88 0 1.04 0.88 0 1.08 0.88 0 1.12 0.88 0 1.16 0.88 0 1.2 0.88 0 0 0.92 0 0.04 0.92 0 0.08 0.92 0 0.12 0.92 0 0.16 0.92 0 0.2 0.92 0 0.24 0.92 0 0.28 0.92 0 0.32 0.92 0 0.36 0.92 0 0.4 0.92 0 0.44 0.92 0 0.48 0.92 0 0.52 0.92 0 0.56 0.92 0 0.6 0.92 0 0.64 0.92 0 0.68 0.92 0 0.72 0.92 0 0.76 0.92 0 0.8 0.92 0 0.84 0.92 0 0.88 0.92 0 0.92 0.92 0 0.96 0.92 0 1 0.92 0 1.04 0.92 0 1.08 0.92 0 1.12 0.92 0 1.16 0.92 0 1.2 0.92 0 0 0.96 0 0.04 0.96 0 0.08 0.96 0 0.12 0.96 0 0.16 0.96 0 0.2 0.96 0 0.24 0.96 0 0.28 0.96 0 0.32 0.96 0 0.36 0.96 0 0.4 0.96 0 0.44 0.96 0 0.48 0.96 0 0.52 0.96 0 0.56 0.96 0 0.6 0.96 0 0.64 0.96 0 0.68 0.96 0 0.72 0.96 0 0.76 0.96 0 0.8 0.96 0 0.84 0.96 0 0.88 0.96 0 0.92 0.96 0 0.96 0.96 0 1 0.96 0 1.04 0.96 0 1.08 0.96 0 1.12 0.96 0 1.16 0.96 0 1.2 0.96 0 0 1 0 0.04 1 0 0.08 1 0 0.12 1 0 0.16 1 0 0.2 1 0 0.24 1 0 0.28 1 0 0.32 1 0 0.36 1 0 0.4 1 0 0.44 1 0 0.48 1 0 0.52 1 0 0.56 1 0 0.6 1 0 0.64 1 0 0.68 1 0 0.72 1 0 0.76 1 0 0.8 1 0 0.84 1 0 0.88 1 0 0.92 1 0 0.96 1 0 1 1 0 1.04 1 0 1.08 1 0 1.12 1 0 1.16 1 0 1.2 1 0 0 1.04 0 0.04 1.04 0 0.08 1.04 0 0.12 1.04 0 0.16 1.04 0 0.2 1.04 0 0.24 1.04 0 0.28 1.04 0 0.32 1.04 0 0.36 1.04 0 0.4 1.04 0 0.44 1.04 0 0.48 1.04 0 0.52 1.04 0 0.56 1.04 0 0.6 1.04 0 0.64 1.04 0 0.68 1.04 0 0.72 1.04 0 0.76 1.04 0 0.8 1.04 0 0.84 1.04 0 0.88 1.04 0 0.92 1.04 0 0.96 1.04 0 1 1.04 0 1.04 1.04 0 1.08 1.04 0 1.12 1.04 0 1.16 1.04 0 1.2 1.04 0 0 1.08 0 0.04 1.08 0 0.08 1.08 0 0.12 1.08 0 0.16 1.08 0 0.2 1.08 0 0.24 1.08 0 0.28 1.08 0 0.32 1.08 0 0.36 1.08 0 0.4 1.08 0 0.44 1.08 0 0.48 1.08 0 0.52 1.08 0 0.56 1.08 0 0.6 1.08 0 0.64 1.08 0 0.68 1.08 0 0.72 1.08 0 0.76 1.08 0 0.8 1.08 0 0.84 1.08 0 0.88 1.08 0 0.92 1.08 0 0.96 1.08 0 1 1.08 0 1.04 1.08 0 1.08 1.08 0 1.12 1.08 0 1.16 1.08 0 1.2 1.08 0 0 1.12 0 
[...]
			<PointData Scalars="VitesseX">
				<DataArray Name="VitesseX" type="Float32" format="ascii">
 0 -0.0389355 -0.0718466 -0.0109819 0.115024 0.250136 0.338562 0.388042 0.382833 0.360233 0.342164 0.329465 0.336129 0.360443 0.402401 0.459593 0.524013 0.590146 0.656001 0.721259 0.784493 0.845605 0.902893 0.957684 1.00618 1.05316 1.10335 1.11399 1.0437 0.720988 0 0 0.0577771 0.0732036 0.120792 0.196811 0.278367 0.353106 0.363338 0.336131 0.304655 0.286326 0.288537 0.303639 0.334749 0.383147 0.445179 0.513517 0.582877 0.651506 0.718651 0.782772 0.843758 0.90023 0.954226 1.00223 1.049 1.09933 1.1104 1.0406 0.719238 0 0 0.0138212 0.0222437 0.0282508 0.0388677 0.066324 0.0940472 0.125197 0.148498 0.165017 0.179092 0.197011 0.228194 0.273449 0.334593 0.408016 0.485614 0.562158 0.636593 0.708024 0.774277 0.835261 0.89061 0.943404 0.990785 1.03762 1.08883 1.10144 1.03298 0.715083 0 0 -0.052559 -0.0789101 -0.0867426 -0.0920008 -0.0974162 -0.0990328 -0.0820498 -0.0352835 0.0102036 0.0518781 0.0977059 0.150136 0.211403 0.280078 0.356758 0.438924 0.522308 0.602855 0.679284 0.748815 0.811485 0.867679 0.920803 0.968993 1.01734 1.07056 1.08612 1.02015 0.708435 0 0 -0.0975117 -0.140746 -0.156986 -0.172428 -0.185812 -0.186246 -0.156962 -0.112075 -0.0609448 -0.0109008 0.0440682 0.104478 0.168314 0.235343 0.306701 0.384954 0.466755 0.54863 0.627623 0.700451 0.766243 0.825657 0.881433 0.932393 0.984137 1.04043 1.06011 0.99779 0.696922 0 0 -0.104572 -0.158566 -0.185494 -0.198715 -0.204648 -0.193521 -0.168538 -0.130485 -0.0848291 -0.0316171 0.0250131 0.0847549 0.147545 0.209305 0.273163 0.343273 0.417169 0.49118 0.564437 0.63587 0.70318 0.765437 0.824475 0.878458 0.933967 0.991923 1.01513 0.956853 0.674902 0 0 -0.0949592 -0.152351 -0.172988 -0.172778 -0.162881 -0.156654 -0.14129 -0.116889 -0.0778335 -0.0278929 0.0259413 0.082481 0.141087 0.199745 0.256406 0.316844 0.381023 0.445487 0.509555 0.572029 0.633036 0.693191 0.753043 0.807414 0.864313 0.91681 0.93835 0.882126 0.631754 0 0 -0.0617264 -0.113491 -0.128104 -0.110604 -0.0879488 -0.0735452 -0.0718774 -0.064211 -0.0423585 -0.00637093 0.039395 0.0905682 0.142801 0.195326 0.246568 0.298243 0.353516 0.409914 0.465867 0.51989 0.571178 0.622088 0.673869 0.722954 0.772184 0.81193 0.81636 0.7578 0.554513 0 0 -0.00949415 -0.0285853 -0.0399414 -0.0245301 -0.0119464 0.00431424 0.0160087 0.0120989 0.013624 0.0285959 0.0575682 0.0951249 0.138501 0.18471 0.231465 0.277043 0.325469 0.376146 0.425953 0.474306 0.519185 0.560185 0.598161 0.634328 0.664649 0.675581 0.653883 0.583739 0.439915 0 0 0.051162 0.0811431 0.0780778 0.0680024 0.0597575 0.0546954 0.0574397 0.0631771 0.059602 0.0549179 0.0596894 0.0800617 0.111119 0.150878 0.195682 0.240489 0.286319 0.334053 0.380531 0.425975 0.467819 0.501568 0.528384 0.547943 0.55098 0.531678 0.480354 0.396463 0.301184 0 0 0.0668486 0.11776 0.125211 0.106656 0.0846401 0.0620458 0.0459084 0.0358317 0.030685 0.027888 0.0287663 0.0353128 0.0535547 0.0829723 0.12392 0.172288 0.221565 0.271268 0.319819 0.364681 0.404543 0.43641 0.454768 0.456266 0.43818 0.395357 0.32457 0.235052 0.171742 0 0 0.0674307 0.118968 0.129497 0.111061 0.0817123 0.0486836 0.01686 -0.00831797 -0.0271608 -0.0393883 -0.0467989 -0.0475665 -0.0415391 -0.0207362 0.0140375 0.0625401 0.119082 0.177004 0.232155 0.280465 0.321276 0.351324 0.363522 0.352524 0.319645 0.260671 0.181369 0.104374 0.0619377 0 0 0.0635972 0.10788 0.118612 0.0981788 0.0603547 0.0146256 -0.0320499 -0.0722949 -0.104149 -0.128059 -0.143262 -0.152086 -0.152307 -0.141809 -0.114592 -0.0712243 -0.0143446 0.0483438 0.10921 0.163143 0.205761 0.233202 0.238663 0.2204 0.175153 0.109284 0.0431515 -0.000174834 -0.0284697 0 0 0.0513021 0.0840715 0.0899657 0.063782 0.017057 -0.0388803 -0.0963297 -0.147464 -0.189454 -0.222968 -0.24946 -0.266986 -0.272592 -0.264862 -0.243694 -0.207798 -0.159405 -0.102634 -0.0457021 0.00560713 0.0457923 0.0671469 0.0658106 0.0366691 -0.0135204 -0.0588094 -0.0788265 -0.0783349 -0.093927 0 0 0.0330613 0.0528262 0.0477672 0.0127306 -0.0414298 -0.103488 -0.165374 -0.222147 -0.272089 -0.315188 -0.352027 -0.380037 -0.394638 -0.394794 -0.379025 -0.350662 -0.314705 -0.274702 -0.234678 -0.197527 -0.170779 -0.160187 -0.17127 -0.194564 -0.211719 -0.204417 -0.172503 -0.136372 -0.129438 0 0 0.0141398 0.0168607 -0.00415646 -0.0490411 -0.108952 -0.17185 -0.228679 -0.28096 -0.334604 -0.38938 -0.439837 -0.478929 -0.504205 -0.514199 -0.510352 -0.496916 -0.477008 -0.457435 -0.439396 -0.424207 -0.413209 -0.406389 -0.402714 -0.396977 -0.36987 -0.313289 -0.241992 -0.178604 -0.140132 0 0 -0.00600064 -0.0252276 -0.0650766 -0.122687 -0.18502 -0.240276 -0.287037 -0.331371 -0.381964 -0.4424 -0.50353 -0.554723 -0.590021 -0.611074 -0.619876 -0.616838 -0.610081 -0.606878 -0.605951 -0.609167 -0.609883 -0.601131 -0.581454 -0.545586 -0.47425 -0.384444 -0.288824 -0.202994 -0.13746 0 0 -0.0242916 -0.061415 -0.115856 -0.177861 -0.231569 -0.277419 -0.321847 -0.364699 -0.416197 -0.475577 -0.540225 -0.600764 -0.64616 -0.677066 -0.693027 -0.696576 -0.700919 -0.708036 -0.727505 -0.747018 -0.753904 -0.74178 -0.704034 -0.630061 -0.53003 -0.420539 -0.311319 -0.212072 -0.128993 0 0 -0.0357011 -0.082826 -0.140477 -0.193778 -0.235205 -0.272966 -0.316135 -0.361651 -0.420105 -0.48826 -0.555341 -0.617997 -0.670431 -0.70828 -0.727113 -0.739304 -0.752091 -0.779453 -0.819821 -0.848968 -0.855883 -0.832735 -0.765237 -0.663622 -0.549626 -0.432229 -0.318056 -0.213124 -0.120538 0 0 -0.0431985 -0.0919598 -0.143672 -0.189485 -0.224948 -0.25638 -0.297349 -0.343812 -0.40492 -0.477379 -0.549231 -0.614922 -0.670817 -0.709535 -0.7318 -0.751725 -0.783082 -0.838979 -0.8918 -0.921575 -0.923455 -0.875083 -0.782925 -0.671299 -0.552481 -0.433561 -0.318019 -0.210474 -0.114155 0 0 -0.0479581 -0.0952081 -0.139772 -0.17762 -0.205535 -0.229201 -0.265017 -0.311097 -0.376043 -0.456369 -0.533761 -0.600336 -0.655276 -0.690477 -0.715364 -0.744812 -0.805785 -0.88009 -0.938015 -0.965231 -0.951342 -0.884938 -0.784679 -0.668011 -0.548637 -0.430145 -0.314901 -0.207727 -0.11079 0 0 -0.0517881 -0.0952148 -0.130123 -0.156941 -0.176171 -0.192313 -0.221016 -0.266917 -0.334322 -0.425207 -0.5126 -0.582405 -0.633427 -0.661434 -0.683337 -0.731651 -0.813478 -0.896804 -0.956769 -0.976782 -0.943248 -0.870355 -0.766301 -0.656475 -0.54077 -0.426151 -0.313887 -0.208028 -0.110455 0 0 -0.0561131 -0.0930973 -0.114697 -0.127361 -0.136304 -0.147 -0.171166 -0.216662 -0.28927 -0.390847 -0.492292 -0.570205 -0.617731 -0.636187 -0.65373 -0.713854 -0.803111 -0.880812 -0.916555 -0.915252 -0.881853 -0.827175 -0.744199 -0.643109 -0.535674 -0.425734 -0.316772 -0.212232 -0.112126 0 0 -0.0573723 -0.0871712 -0.0939796 -0.0904744 -0.0876923 -0.0938623 -0.120647 -0.176478 -0.262138 -0.381331 -0.49391 -0.573312 -0.61651 -0.625038 -0.636593 -0.695258 -0.774609 -0.832059 -0.852647 -0.846131 -0.818667 -0.774755 -0.712612 -0.630283 -0.532876 -0.429274 -0.32341 -0.220207 -0.118895 0 0 -0.0560095 -0.0769745 -0.0675809 -0.0483583 -0.0382663 -0.0459921 -0.0840463 -0.158843 -0.264384 -0.393371 -0.512065 -0.596306 -0.635286 -0.6372 -0.648047 -0.704577 -0.761863 -0.791047 -0.796923 -0.783651 -0.759112 -0.722541 -0.67423 -0.61054 -0.530568 -0.434906 -0.333349 -0.230294 -0.126421 0 0 -0.0417285 -0.0532998 -0.0337522 -0.0161112 -0.00672064 -0.0243159 -0.0800217 -0.16761 -0.285926 -0.430939 -0.562651 -0.651901 -0.685735 -0.685262 -0.694848 -0.725202 -0.7471 -0.753537 -0.745363 -0.728166 -0.704731 -0.673961 -0.633267 -0.583905 -0.519603 -0.437991 -0.343241 -0.23935 -0.128011 0 0 -0.0117201 -0.0105854 0.00108781 0.0189933 0.00651325 -0.0278905 -0.0941479 -0.197271 -0.339553 -0.508389 -0.652194 -0.737779 -0.764139 -0.76328 -0.750278 -0.743453 -0.736713 -0.720456 -0.701119 -0.678677 -0.654745 -0.627694 -0.592953 -0.551411 -0.5002 -0.432145 -0.348578 -0.244679 -0.125207 0 0 0.0262991 0.0459609 0.0635353 0.0395222 0.0161183 -0.0370238 -0.125944 -0.261095 -0.442159 -0.632184 -0.771671 -0.840394 -0.857501 -0.849104 -0.803855 -0.766659 -0.727973 -0.692594 -0.660835 -0.632402 -0.607307 -0.581649 -0.54953 -0.51004 -0.465024 -0.41549 -0.346812 -0.245226 -0.137783 0 0 0.170333 0.128363 0.0687145 0.0759614 0.0342945 -0.0444334 -0.175178 -0.367211 -0.602572 -0.804567 -0.928952 -0.983312 -0.992464 -0.94769 -0.860977 -0.786965 -0.720058 -0.663303 -0.617795 -0.581519 -0.552332 -0.523267 -0.485847 -0.442106 -0.398948 -0.353928 -0.303737 -0.254041 -0.127881 0 0 -0.290518 -0.0193183 0.139527 0.140181 0.0865379 -0.019203 -0.185815 -0.428412 -0.710899 -0.945453 -1.08592 -1.14015 -1.11802 -0.984838 -0.843638 -0.724222 -0.625874 -0.54925 -0.490867 -0.445472 -0.409425 -0.375209 -0.336095 -0.290486 -0.244381 -0.208279 -0.189233 -0.166279 -0.144009 0 0 0 0 0 0 0 0 0 0 0 0 0 0 0 0 0 0 0 0 0 0 0 0 0 0 0 0 0 0 0 0
				</DataArray>
				<DataArray Name="VitesseY" type="Float32" format="ascii">
 0 0 0 0 0 0 0 0 0 0 0 0 0 0 0 0 0 0 0 0 0 0 0 0 0 0 0 0 0 0 0 -0.0212189 0.0755328 0.0150953 -0.0503524 -0.0784666 -0.0648763 -0.0247872 0.0386225 0.0674981 0.0604645 0.0502361 0.0352864 0.0190542 0.00315921 -0.0140362 -0.0233588 -0.0255026 -0.0249089 -0.0235068 -0.0213977 -0.018836 -0.01595 -0.0130784 -0.0112407 -0.00946994 -0.00840651 -0.00872757 -0.00984681 -0.0118798 -0.0130002 0 -0.0444248 0.100099 0.0396695 -0.0555636 -0.0868802 -0.0922957 -0.026589 0.0723562 0.110882 0.10536 0.0831363 0.0563647 0.0266116 -0.00488392 -0.0378467 -0.0553328 -0.057544 -0.0555264 -0.0514777 -0.0456755 -0.0387849 -0.0312806 -0.02544 -0.0220543 -0.0187902 -0.0179117 -0.019069 -0.0221579 -0.0272993 -0.0306367 0 0.0114321 0.155465 0.0747255 -0.0162799 -0.0589345 -0.0697266 -0.002662 0.0725555 0.112767 0.11317 0.091454 0.0557226 0.0151545 -0.0276352 -0.0721561 -0.0959111 -0.0983281 -0.0943597 -0.0861937 -0.0748891 -0.0614391 -0.0475714 -0.0382112 -0.0333092 -0.0294197 -0.0300059 -0.0330594 -0.0397455 -0.0500411 -0.0576551 0 0.141195 0.247458 0.124119 0.0300914 -0.0131116 -0.0254381 0.0259364 0.0680277 0.0950329 0.103013 0.0770815 0.0356872 -0.0131114 -0.0608746 -0.109914 -0.140654 -0.145627 -0.140126 -0.128006 -0.11034 -0.0886609 -0.0677487 -0.0543182 -0.0469801 -0.0443781 -0.0465181 -0.0532759 -0.066473 -0.085912 -0.101607 0 0.306818 0.354625 0.184908 0.0830369 0.0327192 0.017221 0.0408585 0.0654423 0.079878 0.0839166 0.0530054 0.00455247 -0.0486062 -0.101597 -0.149459 -0.186175 -0.195502 -0.18916 -0.174374 -0.151381 -0.122483 -0.0943181 -0.0764371 -0.0657279 -0.0655506 -0.0698779 -0.0825595 -0.107401 -0.144325 -0.175702 0 0.465478 0.465111 0.255373 0.12929 0.0676413 0.0452781 0.060077 0.0682694 0.0732787 0.0608646 0.0229727 -0.0312725 -0.0903197 -0.147862 -0.195908 -0.235471 -0.251252 -0.243839 -0.226271 -0.198303 -0.163061 -0.129386 -0.106071 -0.0936158 -0.0944735 -0.103002 -0.125567 -0.170023 -0.23869 -0.298902 0 0.58056 0.575188 0.322765 0.164743 0.0806678 0.0635124 0.0821306 0.0859188 0.0758997 0.0438405 -0.00583459 -0.0693357 -0.134829 -0.196436 -0.247759 -0.289604 -0.314237 -0.309705 -0.292413 -0.261214 -0.219666 -0.179488 -0.151101 -0.13937 -0.14171 -0.15604 -0.191902 -0.264963 -0.383978 -0.486899 0 0.654218 0.640267 0.395597 0.183911 0.0926004 0.0772294 0.0941811 0.112205 0.0913027 0.0439003 -0.0254858 -0.101097 -0.176378 -0.243517 -0.299284 -0.341283 -0.372652 -0.375773 -0.361658 -0.33289 -0.291696 -0.247677 -0.219324 -0.209567 -0.21488 -0.236256 -0.291251 -0.403616 -0.586276 -0.73092 0 0.67322 0.646059 0.444885 0.213539 0.119304 0.103645 0.108729 0.129035 0.11207 0.057148 -0.0246668 -0.118455 -0.207507 -0.284441 -0.348509 -0.396276 -0.431697 -0.446833 -0.437361 -0.414954 -0.3788 -0.3364 -0.310279 -0.305481 -0.316695 -0.354276 -0.438619 -0.587458 -0.806492 -0.970078 0 0.650447 0.616648 0.458342 0.258785 0.162236 0.144974 0.142332 0.149043 0.129363 0.0748021 -0.0152236 -0.12101 -0.224905 -0.315924 -0.392907 -0.453408 -0.493905 -0.517879 -0.516457 -0.501806 -0.475913 -0.443124 -0.423279 -0.426931 -0.449673 -0.508228 -0.614127 -0.768228 -0.970637 -1.14165 0 0.619873 0.578319 0.458572 0.302386 0.213016 0.195904 0.189201 0.184508 0.15632 0.0930032 -0.0030066 -0.115899 -0.229398 -0.335684 -0.428623 -0.503473 -0.555672 -0.583832 -0.590375 -0.579476 -0.5617 -0.539098 -0.530325 -0.53994 -0.574063 -0.646015 -0.753456 -0.885446 -1.05358 -1.22773 0 0.587812 0.544934 0.46012 0.340564 0.268605 0.253701 0.24688 0.233459 0.194582 0.121435 0.0172757 -0.104128 -0.226202 -0.343041 -0.450846 -0.541313 -0.607939 -0.64462 -0.654758 -0.645659 -0.629112 -0.611512 -0.60683 -0.619634 -0.658557 -0.72981 -0.824854 -0.932108 -1.07806 -1.24745 0 0.55635 0.527796 0.464785 0.379274 0.329293 0.319199 0.313911 0.29255 0.242626 0.15934 0.0457219 -0.0836739 -0.214495 -0.340621 -0.457616 -0.561252 -0.641355 -0.689944 -0.706621 -0.700618 -0.681172 -0.661137 -0.6507 -0.659916 -0.693052 -0.754784 -0.839906 -0.935004 -1.06684 -1.17845 0 0.541465 0.526328 0.479238 0.424133 0.395784 0.390983 0.385717 0.356514 0.296589 0.203864 0.0822935 -0.0536058 -0.190531 -0.32522 -0.451702 -0.564715 -0.655769 -0.715477 -0.739359 -0.735607 -0.712805 -0.685623 -0.66568 -0.663211 -0.688156 -0.744778 -0.820853 -0.891128 -0.978963 -1.01384 0 0.55061 0.54053 0.509982 0.48046 0.46865 0.466308 0.455044 0.41672 0.350651 0.253309 0.128758 -0.011582 -0.153148 -0.293405 -0.429412 -0.554544 -0.657058 -0.72381 -0.751288 -0.751749 -0.732106 -0.703027 -0.679974 -0.667714 -0.688552 -0.732966 -0.774427 -0.819483 -0.873793 -0.857381 0 0.580372 0.575723 0.561304 0.552504 0.549448 0.541444 0.514094 0.466149 0.397204 0.304201 0.184209 0.0436453 -0.103029 -0.246733 -0.392478 -0.532848 -0.646121 -0.718619 -0.755983 -0.764937 -0.757416 -0.747065 -0.733117 -0.717633 -0.72437 -0.73645 -0.747936 -0.765569 -0.785439 -0.725752 0 0.630639 0.63169 0.634221 0.639647 0.635346 0.60803 0.56367 0.506914 0.436949 0.349856 0.241126 0.107454 -0.0403666 -0.189407 -0.3475 -0.504094 -0.629756 -0.714822 -0.761709 -0.790899 -0.813217 -0.821077 -0.811604 -0.781103 -0.762859 -0.742486 -0.727528 -0.718186 -0.711502 -0.620533 0 0.696857 0.704551 0.722072 0.734427 0.715856 0.665914 0.607638 0.544887 0.474407 0.393539 0.294845 0.172198 0.0281822 -0.125539 -0.297619 -0.475006 -0.618069 -0.714221 -0.781993 -0.839222 -0.879204 -0.895486 -0.877538 -0.825542 -0.780508 -0.740744 -0.707365 -0.679965 -0.652153 -0.54081 0 0.775495 0.78778 0.815767 0.826947 0.790292 0.719865 0.648229 0.579503 0.510319 0.435012 0.345425 0.23327 0.0959443 -0.0616139 -0.248646 -0.448629 -0.609888 -0.725808 -0.814824 -0.885028 -0.929974 -0.948176 -0.905979 -0.839974 -0.783199 -0.731484 -0.688018 -0.648905 -0.607056 -0.482296 0 0.863529 0.877205 0.907691 0.912905 0.861906 0.772231 0.685935 0.610495 0.541598 0.471513 0.390468 0.288465 0.157071 -0.00401341 -0.203763 -0.426207 -0.606159 -0.738932 -0.838415 -0.910372 -0.953554 -0.964491 -0.900941 -0.833209 -0.771418 -0.716723 -0.668091 -0.622573 -0.57236 -0.437884 0 0.960104 0.969672 0.994048 0.991357 0.928122 0.822519 0.722087 0.63788 0.567741 0.502799 0.429864 0.334117 0.206777 0.0427947 -0.169859 -0.408539 -0.601518 -0.742081 -0.842481 -0.910261 -0.9389 -0.932713 -0.870651 -0.80818 -0.749254 -0.6955 -0.646086 -0.599095 -0.544733 -0.402987 0 1.06589 1.0628 1.07199 1.05877 0.985476 0.870408 0.759207 0.664369 0.59044 0.528057 0.4607 0.37036 0.242075 0.0719404 -0.152304 -0.395679 -0.588126 -0.727114 -0.818797 -0.864136 -0.87608 -0.862461 -0.819162 -0.767329 -0.715683 -0.667469 -0.621513 -0.575809 -0.518009 -0.370508 0 1.18023 1.15528 1.13969 1.11194 1.03015 0.912744 0.799877 0.696289 0.614017 0.548987 0.481772 0.389194 0.257578 0.0805804 -0.154123 -0.38666 -0.564854 -0.689067 -0.755831 -0.777568 -0.780531 -0.762572 -0.739853 -0.708174 -0.67006 -0.629459 -0.589489 -0.546048 -0.482619 -0.332983 0 1.30308 1.25078 1.19455 1.14799 1.06073 0.949852 0.845717 0.739754 0.644909 0.566451 0.485452 0.383724 0.249129 0.065118 -0.168569 -0.37482 -0.528707 -0.621096 -0.659395 -0.668745 -0.666548 -0.654514 -0.641254 -0.62832 -0.608178 -0.581737 -0.549279 -0.507988 -0.440085 -0.288571 0 1.39711 1.33084 1.22788 1.17106 1.08824 0.987682 0.893663 0.787976 0.676981 0.57166 0.466846 0.357986 0.216966 0.0268448 -0.181203 -0.350639 -0.465409 -0.526361 -0.548589 -0.552382 -0.548715 -0.540357 -0.53503 -0.531928 -0.529536 -0.5187 -0.499045 -0.463983 -0.39786 -0.243253 0 1.39701 1.32585 1.20458 1.1421 1.07378 1.00323 0.92485 0.824528 0.689635 0.550509 0.428751 0.310093 0.163557 -0.0156094 -0.177625 -0.300102 -0.378493 -0.419313 -0.432773 -0.434657 -0.431104 -0.426622 -0.425964 -0.429249 -0.434582 -0.437492 -0.431701 -0.414988 -0.353538 -0.207736 0 1.30083 1.23501 1.11067 1.06243 1.01831 0.964173 0.904028 0.806846 0.655696 0.498 0.366202 0.240453 0.0964046 -0.0429701 -0.153619 -0.233424 -0.286491 -0.311966 -0.319504 -0.319695 -0.316264 -0.315016 -0.317567 -0.323767 -0.333285 -0.343124 -0.348444 -0.346691 -0.303544 -0.189086 0 0.934496 1.02907 0.948402 0.859041 0.812085 0.803036 0.767908 0.694708 0.559473 0.409705 0.279354 0.155322 0.0396433 -0.0549569 -0.123617 -0.172561 -0.202001 -0.213166 -0.21489 -0.212376 -0.209253 -0.209289 -0.213047 -0.220612 -0.230486 -0.239381 -0.244619 -0.245174 -0.25404 -0.166293 0 1.02123 0.685385 0.527776 0.419295 0.453281 0.463263 0.469428 0.45055 0.391671 0.301358 0.194975 0.0918697 -0.000302133 -0.0742515 -0.12022 -0.136291 -0.136158 -0.129208 -0.121704 -0.115607 -0.112078 -0.111422 -0.112671 -0.119197 -0.12666 -0.128141 -0.125259 -0.137822 -0.127875 -0.144043 0 5.63071 0 0 0 0 0 0 0 0 0 0 0 0 0 0 0 0 0 0 0 0 0 0 0 0 0 0 0 0 0 0
				</DataArray>
			</PointData>
			<CellData Scalars="Density">
				<DataArray Name="Density" type="Float32" format="ascii">