<?xml version="1.0"?>
<VTKFile type="PolyData">
	<PolyData>
		<Piece NumberOfPoints="961" NumberOfPolys="900">
			<Points>
				<DataArray type="Float32" NumberOfComponents="3" format="ascii">
 0 0 0 0.04 0 0 0.08 0 0 0.12 0 0 0.16 0 0 0.2 0 0 0.24 0 0 0.28 0 0 0.32 0 0 0.36 0 0 0.4 0 0 0.44 0 0 0.48 0 0 0.52 0 0 0.56 0 0 0.6 0 0 0.64 0 0 0.68 0 0 0.72 0 0 0.76 0 0 0.8 0 0 0.84 0 0 0.88 0 0 0.92 0 0 0.96 0 0 1 0 0 1.04 0 0 1.08 0 0 1.12 0 0 1.16 0 0 1.2 0 0 0 0.04 0 0.04 0.04 0 0.08 0.04 0 0.12 0.04 0 0.16 0.04 0 0.2 0.04 0 0.24 0.04 0 0.28 0.04 0 0.32 0.04 0 0.36 0.04 0 0.4 0.04 0 0.44 0.04 0 0.48 0.04 0 0.52 0.04 0 0.56 0.04 0 0.6 0.04 0 0.64 0.04 0 0.68 0.04 0 0.72 0.04 0 0.76 0.04 0 0.8 0.04 0 0.84 0.04 0 0.88 0.04 0 0.92 0.04 0 0.96 0.04 0 1 0.04 0 1.04 0.04 0 1.08 0.04 0 1.12 0.04 0 1.16 0.04 0 1.2 0.04 0 0 0.08 0 0.04 0.08 0 0.08 0.08 0 0.12 0.08 0 0.16 0.08 0 0.2 0.08 0 0.24 0.08 0 0.28 0.08 0 0.32 0.08 0 0.36 0.08 0 0.4 0.08 0 0.44 0.08 0 0.48 0.08 0 0.52 0.08 0 0.56 0.08 0 0.6 0.08 0 0.64 0.08 0 0.68 0.08 0 0.72 0.08 0 0.76 0.08 0 0.8 0.08 0 0.84 0.08 0 0.88 0.08 0 0.92 0.08 0 0.96 0.08 0 1 0.08 0 1.04 0.08 0 1.08 0.08 0 1.12 0.08 0 1.16 0.08 0 1.2 0.08 0 0 0.12 0 0.04 0.12 0 0.08 0.12 0 0.12 0.12 0 0.16 0.12 0 0.2 0.12 0 0.24 0.12 0 0.28 0.12 0 0.32 0.12 0 0.36 0.12 0 0.4 0.12 0 0.44 0.12 0 0.48 0.12 0 0.52 0.12 0 0.56 0.12 0 0.6 0.12 0 0.64 0.12 0 0.68 0.12 0 0.72 0.12 0 0.76 0.12 0 0.8 0.12 0 0.84 0.12 0 0.88 0.12 0 0.92 0.12 0 0.96 0.12 0 1 0.12 0 1.04 0.12 0 1.08 0.12 0 1.12 0.12 0 1.16 0.12 0 1.2 0.12 0 0 0.16 0 0.04 0.16 0 0.08 0.16 0 0.12 0.16 0 0.16 0.16 0 0.2 0.16 0 0.24 0.16 0 0.28 0.16 0 0.32 0.16 0 0.36 0.16 0 0.4 0.16 0 0.44 0.16 0 0.48 0.16 0 0.52 0.16 0 0.56 0.16 0 0.6 0.16 0 0.64 0.16 0 0.68 0.16 0 0.72 0.16 0 0.76 0.16 0 0.8 0.16 0 0.84 0.16 0 0.88 0.16 0 0.92 0.16 0 0.96 0.16 0 1 0.16 0 1.04 0.16 0 1.08 0.16 0 1.12 0.16 0 1.16 0.16 0 1.2 0.16 0 0 0.2 0 0.04 0.2 0 0.08 0.2 0 0.12 0.2 0 0.16 0.2 0 0.2 0.2 0 0.24 0.2 0 0.28 0.2 0 0.32 0.2 0 0.36 0.2 0 0.4 0.2 0 0.44 0.2 0 0.48 0.2 0 0.52 0.2 0 0.56 0.2 0 0.6 0.2 0 0.64 0.2 0 0.68 0.2 0 0.72 0.2 0 0.76 0.2 0 0.8 0.2 0 0.84 0.2 0 0.88 0.2 0 0.92 0.2 0 0.96 0.2 0 1 0.2 0 1.04 0.2 0 1.08 0.2 0 1.12 0.2 0 1.16 0.2 0 1.2 0.2 0 0 0.24 0 0.04 0.24 0 0.08 0.24 0 0.12 0.24 0 0.16 0.24 0 0.2 0.24 0 0.24 0.24 0 0.28 0.24 0 0.32 0.24 0 0.36 0.24 0 0.4 0.24 0 0.44 0.24 0 0.48 0.24 0 0.52 0.24 0 0.56 0.24 0 0.6 0.24 0 0.64 0.24 0 0.68 0.24 0 0.72 0.24 0 0.76 0.24 0 0.8 0.24 0 0.84 0.24 0 0.88 0.24 0 0.92 0.24 0 0.96 0.24 0 1 0.24 0 1.04 0.24 0 1.08 0.24 0 1.12 0.24 0 1.16 0.24 0 1.2 0.24 0 0 0.28 0 0.04 0.28 0 0.08 0.28 0 0.12 0.28 0 0.16 0.28 0 0.2 0.28 0 0.24 0.28 0 0.28 0.28 0 0.32 0.28 0 0.36 0.28 0 0.4 0.28 0 0.44 0.28 0 0.48 0.28 0 0.52 0.28 0 0.56 0.28 0 0.6 0.28 0 0.64 0.28 0 0.68 0.28 0 0.72 0.28 0 0.76 0.28 0 0.8 0.28 0 0.84 0.28 0 0.88 0.28 0 0.92 0.28 0 0.96 0.28 0 1 0.28 0 1.04 0.28 0 1.08 0.28 0 1.12 0.28 0 1.16 0.28 0 1.2 0.28 0 0 0.32 0 0.04 0.32 0 0.08 0.32 0 0.12 0.32 0 0.16 0.32 0 0.2 0.32 0 0.24 0.32 0 0.28 0.32 0 0.32 0.32 0 0.36 0.32 0 0.4 0.32 0 0.44 0.32 0 0.48 0.32 0 0.52 0.32 0 0.56 0.32 0 0.6 0.32 0 0.64 0.32 0 0.68 0.32 0 0.72 0.32 0 0.76 0.32 0 0.8 0.32 0 0.84 0.32 0 0.88 0.32 0 0.92 0.32 0 0.96 0.32 0 1 0.32 0 1.04 0.32 0 1.08 0.32 0 1.12 0.32 0 1.16 0.32 0 1.2 0.32 0 0 0.36 0 0.04 0.36 0 0.08 0.36 0 0.12 0.36 0 0.16 0.36 0 0.2 0.36 0 0.24 0.36 0 0.28 0.36 0 0.32 0.36 0 0.36 0.36 0 0.4 0.36 0 0.44 0.36 0 0.48 0.36 0 0.52 0.36 0 0.56 0.36 0 0.6 0.36 0 0.64 0.36 0 0.68 0.36 0 0.72 0.36 0 0.76 0.36 0 0.8 0.36 0 0.84 0.36 0 0.88 0.36 0 0.92 0.36 0 0.96 0.36 0 1 0.36 0 1.04 0.36 0 1.08 0.36 0 1.12 0.36 0 1.16 0.36 0 1.2 0.36 0 0 0.4 0 0.04 0.4 0 0.08 0.4 0 0.12 0.4 0 0.16 0.4 0 0.2 0.4 0 0.24 0.4 0 0.28 0.4 0 0.32 0.4 0 0.36 0.4 0 0.4 0.4 0 0.44 0.4 0 0.48 0.4 0 0.52 0.4 0 0.56 0.4 0 0.6 0.4 0 0.64 0.4 0 0.68 0.4 0 0.72 0.4 0 0.76 0.4 0 0.8 0.4 0 0.84 0.4 0 0.88 0.4 0 0.92 0.4 0 0.96 0.4 0 1 0.4 0 1.04 0.4 0 1.08 0.4 0 1.12 0.4 0 1.16 0.4 0 1.2 0.4 0 0 0.44 0 0.04 0.44 0 0.08 0.44 0 0.12 0.44 0 0.16 0.44 0 0.2 0.44 0 0.24 0.44 0 0.28 0.44 0 0.32 0.44 0 0.36 0.44 0 0.4 0.44 0 0.44 0.44 0 0.48 0.44 0 0.52 0.44 0 0.56 0.44 0 0.6 0.44 0 0.64 0.44 0 0.68 0.44 0 0.72 0.44 0 0.76 0.44 0 0.8 0.44 0 0.84 0.44 0 0.88 0.44 0 0.92 0.44 0 0.96 0.44 0 1 0.44 0 1.04 0.44 0 1.08 0.44 0 1.12 0.44 0 1.16 0.44 0 1.2 0.44 0 0 0.48 0 0.04 0.48 0 0.08 0.48 0 0.12 0.48 0 0.16 0.48 0 0.2 0.48 0 0.24 0.48 0 0.28 0.48 0 0.32 0.48 0 0.36 0.48 0 0.4 0.48 0 0.44 0.48 0 0.48 0.48 0 0.52 0.48 0 0.56 0.48 0 0.6 0.48 0 0.64 0.48 0 0.68 0.48 0 0.72 0.48 0 0.76 0.48 0 0.8 0.48 0 0.84 0.48 0 0.88 0.48 0 0.92 0.48 0 0.96 0.48 0 1 0.48 0 1.04 0.48 0 1.08 0.48 0 1.12 0.48 0 1.16 0.48 0 1.2 0.48 0 0 0.52 0 0.04 0.52 0 0.08 0.52 0 0.12 0.52 0 0.16 0.52 0 0.2 0.52 0 0.24 0.52 0 0.28 0.52 0 0.32 0.52 0 0.36 0.52 0 0.4 0.52 0 0.44 0.52 0 0.48 0.52 0 0.52 0.52 0 0.56 0.52 0 0.6 0.52 0 0.64 0.52 0 0.68 0.52 0 0.72 0.52 0 0.76 0.52 0 0.8 0.52 0 0.84 0.52 0 0.88 0.52 0 0.92 0.52 0 0.96 0.52 0 1 0.52 0 1.04 0.52 0 1.08 0.52 0 1.12 0.52 0 1.16 0.52 0 1.2 0.52 0 0 0.56 0 0.04 0.56 0 0.08 0.56 0 0.12 0.56 0 0.16 0.56 0 0.2 0.56 0 0.24 0.56 0 0.28 0.56 0 0.32 0.56 0 0.36 0.56 0 0.4 0.56 0 0.44 0.56 0 0.48 0.56 0 0.52 0.56 0 0.56 0.56 0 0.6 0.56 0 0.64 0.56 0 0.68 0.56 0 0.72 0.56 0 0.76 0.56 0 0.8 0.56 0 0.84 0.56 0 0.88 0.56 0 0.92 0.56 0 0.96 0.56 0 1 0.56 0 1.04 0.56 0 1.08 0.56 0 1.12 0.56 0 1.16 0.56 0 1.2 0.56 0 0 0.6 0 0.04 0.6 0 0.08 0.6 0 0.12 0.6 0 0.16 0.6 0 0.2 0.6 0 0.24 0.6 0 0.28 0.6 0 0.32 0.6 0 0.36 0.6 0 0.4 0.6 0 0.44 0.6 0 0.48 0.6 0 0.52 0.6 0 0.56 0.6 0 0.6 0.6 0 0.64 0.6 0 0.68 0.6 0 0.72 0.6 0 0.76 0.6 0 0.8 0.6 0 0.84 0.6 0 0.88 0.6 0 0.92 0.6 0 0.96 0.6 0 1 0.6 0 1.04 0.6 0 1.08 0.6 0 1.12 0.6 0 1.16 0.6 0 1.2 0.6 0 0 0.64 0 0.04 0.64 0 0.08 0.64 0 0.12 0.64 0 0.16 0.64 0 0.2 0.64 0 0.24 0.64 0 0.28 0.64 0 0.32 0.64 0 0.36 0.64 0 0.4 0.64 0 0.44 0.64 0 0.48 0.64 0 0.52 0.64 0 0.56 0.64 0 0.6 0.64 0 0.64 0.64 0 0.68 0.64 0 0.72 0.64 0 0.76 0.64 0 0.8 0.64 0 0.84 0.64 0 0.88 0.64 0 0.92 0.64 0 0.96 0.64 0 1 0.64 0 1.04 0.64 0 1.08 0.64 0 1.12 0.64 0 1.16 0.64 0 1.2 0.64 0 0 0.68 0 0.04 0.68 0 0.08 0.68 0 0.12 0.68 0 0.16 0.68 0 0.2 0.68 0 0.24 0.68 0 0.28 0.68 0 0.32 0.68 0 0.36 0.68 0 0.4 0.68 0 0.44 0.68 0 0.48 0.68 0 0.52 0.68 0 0.56 0.68 0 0.6 0.68 0 0.64 0.68 0 0.68 0.68 0 0.72 0.68 0 0.76 0.68 0 0.8 0.68 0 0.84 0.68 0 0.88 0.68 0 0.92 0.68 0 0.96 0.68 0 1 0.68 0 1.04 0.68 0 1.08 0.68 0 1.12 0.68 0 1.16 0.68 0 1.2 0.68 0 0 0.72 0 0.04 0.72 0 0.08 0.72 0 0.12 0.72 0 0.16 0.72 0 0.2 0.72 0 0.24 0.72 0 0.28 0.72 0 0.32 0.72 0 0.36 0.72 0 0.4 0.72 0 0.44 0.72 0 0.48 0.72 0 0.52 0.72 0 0.56 0.72 0 0.6 0.72 0 0.64 0.72 0 0.68 0.72 0 0.72 0.72 0 0.76 0.72 0 0.8 0.72 0 0.84 0.72 0 0.88 0.72 0 0.92 0.72 0 0.96 0.72 0 1 0.72 0 1.04 0.72 0 1.08 0.72 0 1.12 0.72 0 1.16 0.72 0 1.2 0.72 0 0 0.76 0 0.04 0.76 0 0.08 0.76 0 0.12 0.76 0 0.16 0.76 0 0.2 0.76 0 0.24 0.76 0 0.28 0.76 0 0.32 0.76 0 0.36 0.76 0 0.4 0.76 0 0.44 0.76 0 0.48 0.76 0 0.52 0.76 0 0.56 0.76 0 0.6 0.76 0 0.64 0.76 0 0.68 0.76 0 0.72 0.76 0 0.76 0.76 0 0.8 0.76 0 0.84 0.76 0 0.88 0.76 0 0.92 0.76 0 0.96 0.76 0 1 0.76 0 1.04 0.76 0 1.08 0.76 0 1.12 0.76 0 1.16 0.76 0 1.2 0.76 0 0 0.8 0 0.04 0.8 0 0.08 0.8 0 0.12 0.8 0 0.16 0.8 0 0.2 0.8 0 0.24 0.8 0 0.28 0.8 0 0.32 0.8 0 0.36 0.8 0 0.4 0.8 0 0.44 0.8 0 0.48 0.8 0 0.52 0.8 0 0.56 0.8 0 0.6 0.8 0 0.64 0.8 0 0.68 0.8 0 0.72 0.8 0 0.76 0.8 0 0.8 0.8 0 0.84 0.8 0 0.88 0.8 0 0.92 0.8 0 0.96 0.8 0 1 0.8 0 1.04 0.8 0 1.08 0.8 0 1.12 0.8 0 1.16 0.8 0 1.2 0.8 0 0 0.84 0 0.04 0.84 0 0.08 0.84 0 0.12 0.84 0 0.16 0.84 0 0.2 0.84 0 0.24 0.84 0 0.28 0.84 0 0.32 0.84 0 0.36 0.84 0 0.4 0.84 0 0.44 0.84 0 0.48 0.84 0 0.52 0.84 0 0.56 0.84 0 0.6 0.84 0 0.64 0.84 0 0.68 0.84 0 0.72 0.84 0 0.76 0.84 0 0.8 0.84 0 0.84 0.84 0 0.88 0.84 0 0.92 0.84 0 0.96 0.84 0 1 0.84 0 1.04 0.84 0 1.08 0.84 0 1.12 0.84 0 1.16 0.84 0 1.2 0.84 0 0 0.88 0 0.04 0.88 0 0.08 0.88 0 0.12 0.88 0 0.16 0.88 0 0.2 0.88 0 0.24 0.88 0 0.28 0.88 0 0.32 0.88 0 0.36 0.88 0 0.4 0.88 0 0.44 0.88 0 0.48 0.88 0 0.52 0.88 0 0.56 0.88 0 0.6 0.88 0 0.64 0.88 0 0.68 0.88 0 0.72 0.88 0 0.76 0.88 0 0.8 0.88 0 0.84 0.88 0 0.88 0.88 0 0.92 0.88 0 0.96 0.88 0 1 0.88 0 1.04 0.88 0 1.08 0.88 0 1.12 0.88 0 1.16 0.88 0 1.2 0.88 0 0 0.92 0 0.04 0.92 0 0.08 0.92 0 0.12 0.92 0 0.16 0.92 0 0.2 0.92 0 0.24 0.92 0 0.28 0.92 0 0.32 0.92 0 0.36 0.92 0 0.4 0.92 0 0.44 0.92 0 0.48 0.92 0 0.52 0.92 0 0.56 0.92 0 0.6 0.92 0 0.64 0.92 0 0.68 0.92 0 0.72 0.92 0 0.76 0.92 0 0.8 0.92 0 0.84 0.92 0 0.88 0.92 0 0.92 0.92 0 0.96 0.92 0 1 0.92 0 1.04 0.92 0 1.08 0.92 0 1.12 0.92 0 1.16 0.92 0 1.2 0.92 0 0 0.96 0 0.04 0.96 0 0.08 0.96 0 0.12 0.96 0 0.16 0.96 0 0.2 0.96 0 0.24 0.96 0 0.28 0.96 0 0.32 0.96 0 0.36 0.96 0 0.4 0.96 0 0.44 0.96 0 0.48 0.96 0 0.52 0.96 0 0.56 0.96 0 0.6 0.96 0 0.64 0.96 0 0.68 0.96 0 0.72 0.96 0 0.76 0.96 0 0.8 0.96 0 0.84 0.96 0 0.88 0.96 0 0.92 0.96 0 0.96 0.96 0 1 0.96 0 1.04 0.96 0 1.08 0.96 0 1.12 0.96 0 1.16 0.96 0 1.2 0.96 0 0 1 0 0.04 1 0 0.08 1 0 0.12 1 0 0.16 1 0 0.2 1 0 0.24 1 0 0.28 1 0 0.32 1 0 0.36 1 0 0.4 1 0 0.44 1 0 0.48 1 0 0.52 1 0 0.56 1 0 0.6 1 0 0.64 1 0 0.68 1 0 0.72 1 0 0.76 1 0 0.8 1 0 0.84 1 0 0.88 1 0 0.92 1 0 0.96 1 0 1 1 0 1.04 1 0 1.08 1 0 1.12 1 0 1.16 1 0 1.2 1 0 0 1.04 0 0.04 1.04 0 0.08 1.04 0 0.12 1.04 0 0.16 1.04 0 0.2 1.04 0 0.24 1.04 0 0.28 1.04 0 0.32 1.04 0 0.36 1.04 0 0.4 1.04 0 0.44 1.04 0 0.48 1.04 0 0.52 1.04 0 0.56 1.04 0 0.6 1.04 0 0.64 1.04 0 0.68 1.04 0 0.72 1.04 0 0.76 1.04 0 0.8 1.04 0 0.84 1.04 0 0.88 1.04 0 0.92 1.04 0 0.96 1.04 0 1 1.04 0 1.04 1.04 0 1.08 1.04 0 1.12 1.04 0 1.16 1.04 0 1.2 1.04 0 0 1.08 0 0.04 1.08 0 0.08 1.08 0 0.12 1.08 0 0.16 1.08 0 0.2 1.08 0 0.24 1.08 0 0.28 1.08 0 0.32 1.08 0 0.36 1.08 0 0.4 1.08 0 0.44 1.08 0 0.48 1.08 0 0.52 1.08 0 0.56 1.08 0 0.6 1.08 0 0.64 1.08 0 0.68 1.08 0 0.72 1.08 0 0.76 1.08 0 0.8 1.08 0 0.84 1.08 0 0.88 1.08 0 0.92 1.08 0 0.96 1.08 0 1 1.08 0 1.04 1.08 0 1.08 1.08 0 1.12 1.08 0 1.16 1.08 0 1.2 1.08 0 0 1.12 0 
[...]
			<PointData Scalars="VitesseX">
				<DataArray Name="VitesseX" type="Float32" format="ascii">
 0 -0.0717137 -0.127265 -0.160381 -0.119065 -0.0522306 0.0523709 0.13861 0.225268 0.295392 0.356789 0.411526 0.461519 0.508389 0.553317 0.597409 0.641477 0.685756 0.730503 0.776105 0.822848 0.869271 0.859051 0.712756 0.369054 -0.148467 -0.592279 -0.764741 -0.675503 -0.333065 0 0 0.122542 0.141022 0.0849832 0.0804034 0.100951 0.169636 0.218032 0.281935 0.337227 0.389729 0.437145 0.481369 0.523501 0.564594 0.605437 0.646512 0.688216 0.730918 0.77488 0.820328 0.865934 0.858366 0.716322 0.379445 -0.13341 -0.580163 -0.757754 -0.674389 -0.334278 0 0 0.1325 0.219262 0.250191 0.27137 0.257998 0.296161 0.309849 0.347092 0.379946 0.41667 0.45393 0.49199 0.530754 0.57017 0.610088 0.650577 0.691919 0.734459 0.77849 0.824132 0.870315 0.871582 0.741054 0.4217 -0.0813871 -0.540563 -0.735512 -0.669078 -0.336521 0 0 0.0987851 0.181327 0.241125 0.28406 0.284374 0.321842 0.338194 0.370522 0.398299 0.429729 0.463533 0.499428 0.536774 0.57524 0.614567 0.654895 0.696481 0.73944 0.783842 0.829692 0.876282 0.889705 0.776431 0.483744 -0.00289558 -0.479171 -0.701245 -0.660116 -0.340439 0 0 0.0474494 0.126204 0.199303 0.254577 0.276603 0.313858 0.339291 0.372429 0.406991 0.440511 0.474207 0.508538 0.544084 0.581187 0.619783 0.660035 0.701878 0.745196 0.78985 0.83572 0.882373 0.908588 0.817412 0.558784 0.0965974 -0.396931 -0.655256 -0.646263 -0.345803 0 0 0.0117943 0.0714608 0.142391 0.204885 0.250862 0.296936 0.32988 0.365757 0.404172 0.441651 0.479425 0.51577 0.551865 0.588456 0.626494 0.666466 0.708303 0.751674 0.796252 0.841867 0.888217 0.924965 0.860739 0.641431 0.212915 -0.292393 -0.595816 -0.624731 -0.352226 0 0 0.00517937 0.0517157 0.110314 0.167451 0.220661 0.271738 0.310302 0.353441 0.396548 0.437632 0.478222 0.517613 0.55651 0.595254 0.634245 0.674346 0.716017 0.759095 0.803238 0.848293 0.89407 0.936891 0.903987 0.726316 0.3417 -0.165428 -0.519564 -0.592244 -0.358717 0 0 0.0101372 0.0509189 0.106764 0.161679 0.211833 0.259347 0.299498 0.343599 0.3871 0.431427 0.475402 0.517669 0.55922 0.600314 0.641338 0.682576 0.72449 0.767291 0.81088 0.8552 0.900215 0.944922 0.94389 0.807684 0.475846 -0.0163403 -0.42218 -0.545711 -0.363329 0 0 0.0168068 0.056144 0.110276 0.164481 0.213039 0.25942 0.300428 0.343111 0.385773 0.42969 0.474083 0.518198 0.561634 0.604581 0.647027 0.68928 0.731687 0.774515 0.81785 0.86174 0.906273 0.951101 0.976031 0.881504 0.610296 0.14941 -0.299174 -0.482328 -0.362822 0 0 0.0248384 0.0643538 0.1161 0.169158 0.218003 0.263306 0.304605 0.345966 0.388083 0.431209 0.475296 0.519868 0.564278 0.608258 0.651799 0.694767 0.73755 0.780452 0.823651 0.867292 0.911551 0.956358 0.996306 0.946256 0.737449 0.324016 -0.149275 -0.399546 -0.352047 0 0 0.0315087 0.0734499 0.123485 0.175478 0.224438 0.269848 0.311955 0.352645 0.39375 0.43575 0.478979 0.523092 0.567439 0.611752 0.655665 0.699142 0.742205 0.7852 0.828364 0.871902 0.916035 0.960917 1.00601 1.0002 0.849774 0.496506 0.0246599 -0.296547 -0.323974 0 0 0.0362556 0.0796615 0.12835 0.178965 0.228832 0.275517 0.319211 0.360606 0.401228 0.442261 0.484305 0.527393 0.571051 0.614917 0.65878 0.702361 0.745646 0.788762 0.831992 0.875557 0.919709 0.964772 1.01068 1.03929 0.942723 0.660698 0.211542 -0.170673 -0.273537 0 0 0.0395332 0.0839645 0.131432 0.180706 0.230322 0.277845 0.322616 0.365078 0.406174 0.447035 0.488529 0.530913 0.573935 0.61733 0.660894 0.704473 0.747876 0.791163 0.834543 0.87825 0.922594 0.967976 1.01455 1.05976 1.01756 0.80857 0.400365 -0.0206553 -0.198588 0 0 0.0416837 0.0865801 0.133167 0.181116 0.230081 0.277838 0.323102 0.366166 0.40785 0.449016 0.490474 0.532632 0.57539 0.61854 0.66193 0.705425 0.748952 0.792466 0.836082 0.880074 0.924798 0.970662 1.01802 1.06704 1.07548 0.932544 0.584374 0.148277 -0.100138 0 0 0.0427276 0.087712 0.133652 0.180584 0.228436 0.275885 0.321417 0.36502 0.407267 0.448859 0.490544 0.53274 0.575479 0.618611 0.661994 0.705514 0.749131 0.792881 0.836851 0.881298 0.926584 0.973131 1.02132 1.07103 1.112 1.03093 0.757127 0.328663 0.0150931 0 0 0.0429813 0.0878666 0.13333 0.179157 0.225433 0.271784 0.317163 0.361157 0.404156 0.446541 0.488808 0.531316 0.57423 0.617533 0.661123 0.704885 0.748742 0.792748 0.837152 0.882191 0.92822 0.975631 1.02465 1.07527 1.12853 1.10716 0.909389 0.516946 0.143776 0 0 0.0429288 0.0874992 0.132233 0.176895 0.221584 0.266425 0.311064 0.355075 0.398554 0.441713 0.484738 0.527842 0.57118 0.614873 0.65892 0.703189 0.74758 0.792172 0.837204 0.88302 0.92996 0.978347 1.02811 1.07977 1.13584 1.16102 1.03444 0.707257 0.291491 0 0 0.0426275 0.0865093 0.130363 0.173885 0.217228 0.260659 0.304295 0.348026 0.391702 0.435371 0.479082 0.522882 0.566841 0.611087 0.655724 0.700679 0.745846 0.79127 0.83725 0.884045 0.932068 0.981361 1.03193 1.08552 1.14314 1.18664 1.13879 0.892228 0.454672 0 0 0.0420438 0.0850195 0.127835 0.170266 0.212544 0.255061 0.298113 0.34159 0.385325 0.429282 0.473459 0.517875 0.562556 0.60751 0.652812 0.698494 0.744455 0.790797 0.837694 0.88559 0.934662 0.984757 1.03702 1.09319 1.14868 1.19912 1.23035 1.0544 0.623891 0 0 0.0412669 0.0832154 0.124889 0.166395 0.207991 0.250018 0.292741 0.336128 0.379999 0.424275 0.468912 0.513887 0.559184 0.604798 0.650759 0.697092 0.743807 0.790942 0.838845 0.887842 0.937772 0.989344 1.04453 1.10033 1.1539 1.2271 1.29573 1.1717 0.779975 0 0 0.0405086 0.0814075 0.122265 0.163039 0.204177 0.245866 0.288419 0.331808 0.375842 0.420413 0.465451 0.510908 0.556752 0.602969 0.64955 0.696519 0.743882 0.791899 0.840917 0.890835 0.942142 0.99662 1.05267 1.10558 1.16758 1.27996 1.32197 1.22196 0.88676 0 0 0.0398168 0.080166 0.120084 0.160538 0.201248 0.242852 0.285353 0.328827 0.37305 0.417887 0.463269 0.509142 0.555458 0.602175 0.649252 0.696729 0.744898 0.794008 0.844006 0.895321 0.949434 1.00537 1.05832 1.11587 1.21132 1.31015 1.30888 1.19869 0.881942 0 0 0.0402577 0.0797273 0.120731 0.160425 0.201401 0.242509 0.284625 0.327705 0.371825 0.416806 0.46245 0.508614 0.555233 0.602269 0.64983 0.698145 0.74736 0.797491 0.848984 0.902985 0.958552 1.01154 1.0675 1.15352 1.25988 1.29076 1.24524 1.06655 0.679418 0 0 0.0397286 0.0828326 0.122695 0.168068 0.210095 0.253742 0.295317 0.336185 0.376262 0.418754 0.463345 0.509183 0.556017 0.603636 0.652047 0.701348 0.75164 0.803394 0.857368 0.912321 0.965199 1.02112 1.10307 1.20732 1.25009 1.22515 1.09639 0.778801 0.326701 0 0 0.0390413 0.0778517 0.129667 0.177222 0.232476 0.281356 0.326685 0.366292 0.402277 0.43908 0.477168 0.516322 0.5604 0.607589 0.656482 0.706853 0.758849 0.812686 0.866761 0.919498 0.976595 1.05837 1.15704 1.20295 1.1886 1.08477 0.813341 0.383129 0.0906958 0 0 0.0237472 0.0658602 0.114369 0.189451 0.256862 0.32528 0.381335 0.426563 0.462599 0.492812 0.52084 0.549843 0.584801 0.62394 0.666977 0.716841 0.769413 0.822212 0.874811 0.934547 1.0189 1.1088 1.15263 1.14271 1.05215 0.811875 0.412749 0.111694 0.0124014 0 0 -0.00643205 0.0129699 0.0845431 0.17104 0.272614 0.361039 0.43767 0.498593 0.543393 0.575816 0.601002 0.623569 0.646814 0.672511 0.703936 0.743208 0.784495 0.834023 0.897175 0.982891 1.0606 1.09988 1.08922 1.00339 0.781169 0.412693 0.121995 0.0159647 0.000681033 0 0 -0.0752916 -0.0701645 0.0273566 0.155808 0.26362 0.365939 0.456394 0.532107 0.594093 0.643345 0.68136 0.710927 0.734843 0.756037 0.777965 0.801915 0.831391 0.878973 0.949149 1.01839 1.04758 1.03146 0.941694 0.725696 0.38472 0.118946 0.0171807 0.000877489 9.95467e-06 0 0 -0.201463 -0.133875 0.035147 0.13629 0.254461 0.353849 0.441375 0.519732 0.589547 0.650311 0.703612 0.751123 0.792056 0.829641 0.863937 0.897947 0.93623 0.981793 1.02219 1.02936 0.996362 0.885255 0.65598 0.335411 0.103911 0.0155384 0.00087326 1.19427e-05 4.17932e-08 0 0 -0.221105 -0.0268746 0.00105697 0.130586 0.225141 0.312817 0.396165 0.478172 0.561306 0.645846 0.732224 0.817898 0.893628 0.953157 1.01066 1.06961 1.12549 1.16749 1.17357 1.1127 0.935088 0.628299 0.287859 0.0825682 0.011827 0.000672125 9.92666e-06 4.1716e-08 2.53518e-10 0 0 0 0 0 0 0 0 0 0 0 0 0 0 0 0 0 0 0 0 0 0 0 0 0 0 0 0 0 0 0 0
				</DataArray>
				<DataArray Name="VitesseY" type="Float32" format="ascii">
 0 0 0 0 0 0 0 0 0 0 0 0 0 0 0 0 0 0 0 0 0 0 0 0 0 0 0 0 0 0 0 -0.071695 0.122508 0.132473 0.098768 0.0474439 0.0117947 0.00517978 0.0101396 0.0168117 0.0248442 0.0315133 0.0362595 0.0395374 0.0416879 0.0427312 0.0429844 0.0429315 0.0426301 0.0420437 0.0412714 0.0404693 0.0400856 0.0427306 0.0500069 0.0621932 0.0741936 0.076455 0.0709436 0.0616157 0.050501 0 -0.127248 0.140977 0.219236 0.181317 0.126208 0.0714729 0.0517292 0.0509302 0.0561561 0.0643643 0.073457 0.0796659 0.0839686 0.0865843 0.0877163 0.0878707 0.0875032 0.0865121 0.0850233 0.0832038 0.0814171 0.0803651 0.0848345 0.0980103 0.121029 0.145037 0.151448 0.14221 0.125273 0.101871 0 -0.160391 0.0849216 0.250163 0.241103 0.199286 0.142385 0.11033 0.106788 0.1103 0.116119 0.123495 0.128354 0.131434 0.13317 0.133655 0.133334 0.132237 0.130367 0.127835 0.124893 0.122218 0.120445 0.125769 0.142958 0.17471 0.210727 0.224115 0.213759 0.190535 0.156022 0 -0.119099 0.0803385 0.271324 0.284042 0.254573 0.204891 0.167476 0.161708 0.164507 0.169181 0.175492 0.178972 0.180709 0.181117 0.180585 0.179159 0.176898 0.173888 0.170268 0.166387 0.163046 0.160657 0.165706 0.184801 0.222957 0.270159 0.293803 0.284918 0.257318 0.213373 0 -0.0522591 0.100901 0.257957 0.284352 0.276589 0.250861 0.220681 0.211859 0.213063 0.218026 0.224456 0.228843 0.230328 0.230084 0.228437 0.225434 0.221586 0.21723 0.212544 0.207991 0.204167 0.201365 0.204901 0.224029 0.26607 0.32277 0.359459 0.354716 0.325109 0.274285 0 0.0523233 0.169588 0.296127 0.321828 0.313848 0.296935 0.27175 0.259367 0.259442 0.263327 0.269865 0.275529 0.277853 0.277844 0.275888 0.271786 0.266426 0.26066 0.255061 0.250016 0.24587 0.242859 0.244175 0.261753 0.304752 0.36825 0.419585 0.422253 0.393445 0.339342 0 0.138561 0.217997 0.309826 0.33817 0.339274 0.329873 0.310308 0.299512 0.300444 0.304621 0.31197 0.319224 0.322626 0.32311 0.321422 0.317165 0.311065 0.304295 0.298112 0.292739 0.28842 0.285359 0.285423 0.299985 0.339986 0.406857 0.472414 0.487761 0.462447 0.409164 0 0.225217 0.281906 0.347087 0.370513 0.372421 0.365752 0.35344 0.343607 0.343122 0.345979 0.352659 0.360619 0.365088 0.366175 0.365027 0.36116 0.355076 0.348026 0.341589 0.336127 0.331809 0.328836 0.328051 0.338448 0.372918 0.439668 0.516537 0.548337 0.530093 0.484065 0 0.295344 0.337202 0.379948 0.398294 0.40698 0.404162 0.396542 0.387103 0.385781 0.388092 0.393762 0.401241 0.406184 0.407858 0.407273 0.404159 0.398554 0.391701 0.385324 0.379998 0.375842 0.373055 0.371942 0.377139 0.405072 0.468327 0.551599 0.60177 0.594235 0.56372 0 0.356747 0.389709 0.416675 0.429732 0.440505 0.441641 0.437624 0.431426 0.429696 0.431217 0.435761 0.442273 0.447044 0.449023 0.448865 0.446543 0.441713 0.435369 0.42928 0.424274 0.420412 0.417888 0.416835 0.418931 0.439958 0.495015 0.57924 0.646706 0.652303 0.646784 0 0.411488 0.43713 0.453933 0.463538 0.474206 0.479415 0.478214 0.4754 0.474087 0.475304 0.478989 0.484315 0.488536 0.490479 0.490548 0.48881 0.484737 0.47908 0.473458 0.468911 0.46545 0.463269 0.462455 0.463385 0.477427 0.521594 0.602243 0.682717 0.704466 0.732601 0 0.461486 0.481357 0.491991 0.499432 0.508542 0.515763 0.517606 0.517668 0.518201 0.519875 0.523101 0.527401 0.530918 0.532636 0.532742 0.531316 0.527841 0.52288 0.517874 0.513886 0.510907 0.509141 0.508614 0.509187 0.516377 0.550021 0.623982 0.711421 0.751457 0.818049 0 0.508361 0.523492 0.530752 0.536777 0.544088 0.551863 0.556506 0.55922 0.561638 0.564284 0.567446 0.571057 0.573938 0.575392 0.57548 0.574229 0.571179 0.566839 0.562554 0.559183 0.556751 0.555457 0.555232 0.556015 0.5604 0.584831 0.646906 0.735001 0.792169 0.893678 0 0.553294 0.564586 0.570167 0.575241 0.58119 0.588456 0.595251 0.600315 0.604585 0.608263 0.611757 0.614921 0.617333 0.618542 0.618612 0.617533 0.614872 0.611085 0.607509 0.604798 0.602968 0.602174 0.602268 0.603635 0.607587 0.623944 0.672524 0.756079 0.829676 0.953172 0 0.597391 0.605431 0.610085 0.614567 0.619785 0.626495 0.634244 0.641341 0.647032 0.651804 0.655669 0.658783 0.660896 0.661931 0.661995 0.661122 0.658919 0.655722 0.652811 0.650758 0.649549 0.649251 0.649829 0.652046 0.656481 0.666976 0.703936 0.777969 0.863946 1.01067 0 0.641463 0.646507 0.650573 0.654893 0.660035 0.666466 0.674345 0.682579 0.689285 0.694771 0.699145 0.702363 0.704474 0.705425 0.705514 0.704884 0.703188 0.700678 0.698493 0.697092 0.696518 0.696729 0.698144 0.701347 0.706852 0.71684 0.743207 0.801914 0.897947 1.06961 0 0.685745 0.688211 0.691916 0.696477 0.701875 0.708302 0.716016 0.724492 0.731691 0.737554 0.742208 0.745648 0.747877 0.748952 0.749131 0.748742 0.747579 0.745845 0.744455 0.743806 0.743881 0.744897 0.747359 0.75164 0.758848 0.769413 0.784495 0.83139 0.936228 1.12549 0 0.730488 0.730909 0.73445 0.739432 0.74519 0.751669 0.759093 0.767292 0.774519 0.780455 0.785202 0.788763 0.791164 0.792466 0.792881 0.792748 0.792172 0.791269 0.790797 0.790942 0.791899 0.794007 0.797491 0.803393 0.812686 0.822211 0.834022 0.878972 0.981792 1.16748 0 0.776076 0.77485 0.778468 0.783826 0.789837 0.796247 0.803234 0.810882 0.817855 0.823655 0.828366 0.831993 0.834543 0.836083 0.836851 0.837152 0.837204 0.83725 0.837694 0.838845 0.840917 0.844006 0.848984 0.857367 0.866761 0.87481 0.897175 0.949149 1.02219 1.17357 0 0.822781 0.820292 0.824108 0.829686 0.835734 0.84188 0.848308 0.855212 0.861749 0.867298 0.871905 0.875559 0.878251 0.880075 0.881298 0.882191 0.88302 0.884046 0.88559 0.887842 0.890835 0.895321 0.902984 0.912321 0.919497 0.934547 0.98289 1.01839 1.02936 1.1127 0 0.870685 0.867159 0.871281 0.876969 0.882828 0.888554 0.89428 0.900347 0.906333 0.911575 0.916044 0.919713 0.922596 0.924798 0.926584 0.928221 0.929961 0.932069 0.934663 0.937773 0.942142 0.949434 0.958552 0.965198 0.976594 1.0189 1.0606 1.04758 0.99636 0.935083 0 0.905096 0.902047 0.907656 0.915814 0.924656 0.932535 0.939842 0.94586 0.951462 0.956481 0.960953 0.96478 0.967978 0.970662 0.973132 0.975632 0.978348 0.981362 0.984758 0.989344 0.996621 1.00537 1.01154 1.02112 1.05836 1.1088 1.09988 1.03146 0.885251 0.628294 0 0.835179 0.831157 0.840279 0.853272 0.871202 0.895825 0.923736 0.953891 0.979895 0.997395 1.00619 1.01072 1.01455 1.01802 1.02132 1.02465 1.02811 1.03193 1.03702 1.04453 1.05267 1.05832 1.0675 1.10307 1.15704 1.15263 1.08922 0.94169 0.655976 0.287855 0 0.623286 0.622107 0.627298 0.642568 0.669643 0.709663 0.764916 0.826395 0.889976 0.949797 1.00153 1.03966 1.05983 1.06705 1.07103 1.07527 1.07977 1.08552 1.09319 1.10033 1.10558 1.11587 1.15352 1.20732 1.20295 1.14271 1.00339 0.725693 0.335409 0.082567 0 0.244777 0.231729 0.227893 0.229223 0.254074 0.312749 0.396393 0.504062 0.623139 0.74293 0.851842 0.943428 1.01777 1.07554 1.11201 1.12853 1.13584 1.14314 1.14868 1.1539 1.16758 1.21132 1.25988 1.25009 1.1886 1.05215 0.781167 0.384718 0.103909 0.0118268 0 -0.189015 -0.204811 -0.243749 -0.271444 -0.259292 -0.210033 -0.117102 0.00828389 0.160754 0.328943 0.498777 0.661562 0.808871 0.932632 1.03096 1.10717 1.16102 1.18664 1.19912 1.2271 1.27996 1.31015 1.29076 1.22515 1.08477 0.811874 0.412692 0.118945 0.0155382 0.00067211 0 -0.429151 -0.461227 -0.540357 -0.591028 -0.588463 -0.557542 -0.501816 -0.414089 -0.295219 -0.147257 0.0256551 0.212016 0.400572 0.584445 0.757148 0.909392 1.03444 1.13879 1.23035 1.29573 1.32197 1.30888 1.24524 1.09639 0.813342 0.412751 0.121996 0.0171807 0.000873253 9.92645e-06 0 -0.372673 -0.441128 -0.621718 -0.624858 -0.623583 -0.620874 -0.593931 -0.547917 -0.483741 -0.400193 -0.296741 -0.170705 -0.0206501 0.148286 0.328666 0.516945 0.707254 0.892225 1.0544 1.17169 1.22196 1.19869 1.06655 0.778803 0.383131 0.111695 0.0159649 0.000877496 1.19427e-05 4.17154e-08 0 0.194737 -0.279695 -0.386391 -0.309741 -0.365712 -0.356411 -0.363103 -0.366512 -0.364539 -0.352825 -0.324331 -0.273701 -0.198652 -0.100161 0.0150853 0.143772 0.291488 0.454668 0.623888 0.779972 0.886759 0.881943 0.679421 0.326704 0.090697 0.0124016 0.000681047 9.95488e-06 4.17938e-08 2.53518e-10 0 4.43181 0 0 0 0 0 0 0 0 0 0 0 0 0 0 0 0 0 0 0 0 0 0 0 0 0 0 0 0 0 0
				</DataArray>
			</PointData>
			<CellData Scalars="Density">
				<DataArray Name="Density" type="Float32" format="ascii">