<?xml version="1.0"?>
<VTKFile type="PolyData">
	<PolyData>
		<Piece NumberOfPoints="961" NumberOfPolys="900">
			<Points>
				<DataArray type="Float32" NumberOfComponents="3" format="ascii">
 0 0 0 0.04 0 0 0.08 0 0 0.12 0 0 0.16 0 0 0.2 0 0 0.24 0 0 0.28 0 0 0.32 0 0 0.36 0 0 0.4 0 0 0.44 0 0 0.48 0 0 0.52 0 0 0.56 0 0 0.6 0 0 0.64 0 0 0.68 0 0 0.72 0 0 0.76 0 0 0.8 0 0 0.84 0 0 0.88 0 0 0.92 0 0 0.96 0 0 1 0 0 1.04 0 0 1.08 0 0 1.12 0 0 1.16 0 0 1.2 0 0 0 0.04 0 0.04 0.04 0 0.08 0.04 0 0.12 0.04 0 0.16 0.04 0 0.2 0.04 0 0.24 0.04 0 0.28 0.04 0 0.32 0.04 0 0.36 0.04 0 0.4 0.04 0 0.44 0.04 0 0.48 0.04 0 0.52 0.04 0 0.56 0.04 0 0.6 0.04 0 0.64 0.04 0 0.68 0.04 0 0.72 0.04 0 0.76 0.04 0 0.8 0.04 0 0.84 0.04 0 0.88 0.04 0 0.92 0.04 0 0.96 0.04 0 1 0.04 0 1.04 0.04 0 1.08 0.04 0 1.12 0.04 0 1.16 0.04 0 1.2 0.04 0 0 0.08 0 0.04 0.08 0 0.08 0.08 0 0.12 0.08 0 0.16 0.08 0 0.2 0.08 0 0.24 0.08 0 0.28 0.08 0 0.32 0.08 0 0.36 0.08 0 0.4 0.08 0 0.44 0.08 0 0.48 0.08 0 0.52 0.08 0 0.56 0.08 0 0.6 0.08 0 0.64 0.08 0 0.68 0.08 0 0.72 0.08 0 0.76 0.08 0 0.8 0.08 0 0.84 0.08 0 0.88 0.08 0 0.92 0.08 0 0.96 0.08 0 1 0.08 0 1.04 0.08 0 1.08 0.08 0 1.12 0.08 0 1.16 0.08 0 1.2 0.08 0 0 0.12 0 0.04 0.12 0 0.08 0.12 0 0.12 0.12 0 0.16 0.12 0 0.2 0.12 0 0.24 0.12 0 0.28 0.12 0 0.32 0.12 0 0.36 0.12 0 0.4 0.12 0 0.44 0.12 0 0.48 0.12 0 0.52 0.12 0 0.56 0.12 0 0.6 0.12 0 0.64 0.12 0 0.68 0.12 0 0.72 0.12 0 0.76 0.12 0 0.8 0.12 0 0.84 0.12 0 0.88 0.12 0 0.92 0.12 0 0.96 0.12 0 1 0.12 0 1.04 0.12 0 1.08 0.12 0 1.12 0.12 0 1.16 0.12 0 1.2 0.12 0 0 0.16 0 0.04 0.16 0 0.08 0.16 0 0.12 0.16 0 0.16 0.16 0 0.2 0.16 0 0.24 0.16 0 0.28 0.16 0 0.32 0.16 0 0.36 0.16 0 0.4 0.16 0 0.44 0.16 0 0.48 0.16 0 0.52 0.16 0 0.56 0.16 0 0.6 0.16 0 0.64 0.16 0 0.68 0.16 0 0.72 0.16 0 0.76 0.16 0 0.8 0.16 0 0.84 0.16 0 0.88 0.16 0 0.92 0.16 0 0.96 0.16 0 1 0.16 0 1.04 0.16 0 1.08 0.16 0 1.12 0.16 0 1.16 0.16 0 1.2 0.16 0 0 0.2 0 0.04 0.2 0 0.08 0.2 0 0.12 0.2 0 0.16 0.2 0 0.2 0.2 0 0.24 0.2 0 0.28 0.2 0 0.32 0.2 0 0.36 0.2 0 0.4 0.2 0 0.44 0.2 0 0.48 0.2 0 0.52 0.2 0 0.56 0.2 0 0.6 0.2 0 0.64 0.2 0 0.68 0.2 0 0.72 0.2 0 0.76 0.2 0 0.8 0.2 0 0.84 0.2 0 0.88 0.2 0 0.92 0.2 0 0.96 0.2 0 1 0.2 0 1.04 0.2 0 1.08 0.2 0 1.12 0.2 0 1.16 0.2 0 1.2 0.2 0 0 0.24 0 0.04 0.24 0 0.08 0.24 0 0.12 0.24 0 0.16 0.24 0 0.2 0.24 0 0.24 0.24 0 0.28 0.24 0 0.32 0.24 0 0.36 0.24 0 0.4 0.24 0 0.44 0.24 0 0.48 0.24 0 0.52 0.24 0 0.56 0.24 0 0.6 0.24 0 0.64 0.24 0 0.68 0.24 0 0.72 0.24 0 0.76 0.24 0 0.8 0.24 0 0.84 0.24 0 0.88 0.24 0 0.92 0.24 0 0.96 0.24 0 1 0.24 0 1.04 0.24 0 1.08 0.24 0 1.12 0.24 0 1.16 0.24 0 1.2 0.24 0 0 0.28 0 0.04 0.28 0 0.08 0.28 0 0.12 0.28 0 0.16 0.28 0 0.2 0.28 0 0.24 0.28 0 0.28 0.28 0 0.32 0.28 0 0.36 0.28 0 0.4 0.28 0 0.44 0.28 0 0.48 0.28 0 0.52 0.28 0 0.56 0.28 0 0.6 0.28 0 0.64 0.28 0 0.68 0.28 0 0.72 0.28 0 0.76 0.28 0 0.8 0.28 0 0.84 0.28 0 0.88 0.28 0 0.92 0.28 0 0.96 0.28 0 1 0.28 0 1.04 0.28 0 1.08 0.28 0 1.12 0.28 0 1.16 0.28 0 1.2 0.28 0 0 0.32 0 0.04 0.32 0 0.08 0.32 0 0.12 0.32 0 0.16 0.32 0 0.2 0.32 0 0.24 0.32 0 0.28 0.32 0 0.32 0.32 0 0.36 0.32 0 0.4 0.32 0 0.44 0.32 0 0.48 0.32 0 0.52 0.32 0 0.56 0.32 0 0.6 0.32 0 0.64 0.32 0 0.68 0.32 0 0.72 0.32 0 0.76 0.32 0 0.8 0.32 0 0.84 0.32 0 0.88 0.32 0 0.92 0.32 0 0.96 0.32 0 1 0.32 0 1.04 0.32 0 1.08 0.32 0 1.12 0.32 0 1.16 0.32 0 1.2 0.32 0 0 0.36 0 0.04 0.36 0 0.08 0.36 0 0.12 0.36 0 0.16 0.36 0 0.2 0.36 0 0.24 0.36 0 0.28 0.36 0 0.32 0.36 0 0.36 0.36 0 0.4 0.36 0 0.44 0.36 0 0.48 0.36 0 0.52 0.36 0 0.56 0.36 0 0.6 0.36 0 0.64 0.36 0 0.68 0.36 0 0.72 0.36 0 0.76 0.36 0 0.8 0.36 0 0.84 0.36 0 0.88 0.36 0 0.92 0.36 0 0.96 0.36 0 1 0.36 0 1.04 0.36 0 1.08 0.36 0 1.12 0.36 0 1.16 0.36 0 1.2 0.36 0 0 0.4 0 0.04 0.4 0 0.08 0.4 0 0.12 0.4 0 0.16 0.4 0 0.2 0.4 0 0.24 0.4 0 0.28 0.4 0 0.32 0.4 0 0.36 0.4 0 0.4 0.4 0 0.44 0.4 0 0.48 0.4 0 0.52 0.4 0 0.56 0.4 0 0.6 0.4 0 0.64 0.4 0 0.68 0.4 0 0.72 0.4 0 0.76 0.4 0 0.8 0.4 0 0.84 0.4 0 0.88 0.4 0 0.92 0.4 0 0.96 0.4 0 1 0.4 0 1.04 0.4 0 1.08 0.4 0 1.12 0.4 0 1.16 0.4 0 1.2 0.4 0 0 0.44 0 0.04 0.44 0 0.08 0.44 0 0.12 0.44 0 0.16 0.44 0 0.2 0.44 0 0.24 0.44 0 0.28 0.44 0 0.32 0.44 0 0.36 0.44 0 0.4 0.44 0 0.44 0.44 0 0.48 0.44 0 0.52 0.44 0 0.56 0.44 0 0.6 0.44 0 0.64 0.44 0 0.68 0.44 0 0.72 0.44 0 0.76 0.44 0 0.8 0.44 0 0.84 0.44 0 0.88 0.44 0 0.92 0.44 0 0.96 0.44 0 1 0.44 0 1.04 0.44 0 1.08 0.44 0 1.12 0.44 0 1.16 0.44 0 1.2 0.44 0 0 0.48 0 0.04 0.48 0 0.08 0.48 0 0.12 0.48 0 0.16 0.48 0 0.2 0.48 0 0.24 0.48 0 0.28 0.48 0 0.32 0.48 0 0.36 0.48 0 0.4 0.48 0 0.44 0.48 0 0.48 0.48 0 0.52 0.48 0 0.56 0.48 0 0.6 0.48 0 0.64 0.48 0 0.68 0.48 0 0.72 0.48 0 0.76 0.48 0 0.8 0.48 0 0.84 0.48 0 0.88 0.48 0 0.92 0.48 0 0.96 0.48 0 1 0.48 0 1.04 0.48 0 1.08 0.48 0 1.12 0.48 0 1.16 0.48 0 1.2 0.48 0 0 0.52 0 0.04 0.52 0 0.08 0.52 0 0.12 0.52 0 0.16 0.52 0 0.2 0.52 0 0.24 0.52 0 0.28 0.52 0 0.32 0.52 0 0.36 0.52 0 0.4 0.52 0 0.44 0.52 0 0.48 0.52 0 0.52 0.52 0 0.56 0.52 0 0.6 0.52 0 0.64 0.52 0 0.68 0.52 0 0.72 0.52 0 0.76 0.52 0 0.8 0.52 0 0.84 0.52 0 0.88 0.52 0 0.92 0.52 0 0.96 0.52 0 1 0.52 0 1.04 0.52 0 1.08 0.52 0 1.12 0.52 0 1.16 0.52 0 1.2 0.52 0 0 0.56 0 0.04 0.56 0 0.08 0.56 0 0.12 0.56 0 0.16 0.56 0 0.2 0.56 0 0.24 0.56 0 0.28 0.56 0 0.32 0.56 0 0.36 0.56 0 0.4 0.56 0 0.44 0.56 0 0.48 0.56 0 0.52 0.56 0 0.56 0.56 0 0.6 0.56 0 0.64 0.56 0 0.68 0.56 0 0.72 0.56 0 0.76 0.56 0 0.8 0.56 0 0.84 0.56 0 0.88 0.56 0 0.92 0.56 0 0.96 0.56 0 1 0.56 0 1.04 0.56 0 1.08 0.56 0 1.12 0.56 0 1.16 0.56 0 1.2 0.56 0 0 0.6 0 0.04 0.6 0 0.08 0.6 0 0.12 0.6 0 0.16 0.6 0 0.2 0.6 0 0.24 0.6 0 0.28 0.6 0 0.32 0.6 0 0.36 0.6 0 0.4 0.6 0 0.44 0.6 0 0.48 0.6 0 0.52 0.6 0 0.56 0.6 0 0.6 0.6 0 0.64 0.6 0 0.68 0.6 0 0.72 0.6 0 0.76 0.6 0 0.8 0.6 0 0.84 0.6 0 0.88 0.6 0 0.92 0.6 0 0.96 0.6 0 1 0.6 0 1.04 0.6 0 1.08 0.6 0 1.12 0.6 0 1.16 0.6 0 1.2 0.6 0 0 0.64 0 0.04 0.64 0 0.08 0.64 0 0.12 0.64 0 0.16 0.64 0 0.2 0.64 0 0.24 0.64 0 0.28 0.64 0 0.32 0.64 0 0.36 0.64 0 0.4 0.64 0 0.44 0.64 0 0.48 0.64 0 0.52 0.64 0 0.56 0.64 0 0.6 0.64 0 0.64 0.64 0 0.68 0.64 0 0.72 0.64 0 0.76 0.64 0 0.8 0.64 0 0.84 0.64 0 0.88 0.64 0 0.92 0.64 0 0.96 0.64 0 1 0.64 0 1.04 0.64 0 1.08 0.64 0 1.12 0.64 0 1.16 0.64 0 1.2 0.64 0 0 0.68 0 0.04 0.68 0 0.08 0.68 0 0.12 0.68 0 0.16 0.68 0 0.2 0.68 0 0.24 0.68 0 0.28 0.68 0 0.32 0.68 0 0.36 0.68 0 0.4 0.68 0 0.44 0.68 0 0.48 0.68 0 0.52 0.68 0 0.56 0.68 0 0.6 0.68 0 0.64 0.68 0 0.68 0.68 0 0.72 0.68 0 0.76 0.68 0 0.8 0.68 0 0.84 0.68 0 0.88 0.68 0 0.92 0.68 0 0.96 0.68 0 1 0.68 0 1.04 0.68 0 1.08 0.68 0 1.12 0.68 0 1.16 0.68 0 1.2 0.68 0 0 0.72 0 0.04 0.72 0 0.08 0.72 0 0.12 0.72 0 0.16 0.72 0 0.2 0.72 0 0.24 0.72 0 0.28 0.72 0 0.32 0.72 0 0.36 0.72 0 0.4 0.72 0 0.44 0.72 0 0.48 0.72 0 0.52 0.72 0 0.56 0.72 0 0.6 0.72 0 0.64 0.72 0 0.68 0.72 0 0.72 0.72 0 0.76 0.72 0 0.8 0.72 0 0.84 0.72 0 0.88 0.72 0 0.92 0.72 0 0.96 0.72 0 1 0.72 0 1.04 0.72 0 1.08 0.72 0 1.12 0.72 0 1.16 0.72 0 1.2 0.72 0 0 0.76 0 0.04 0.76 0 0.08 0.76 0 0.12 0.76 0 0.16 0.76 0 0.2 0.76 0 0.24 0.76 0 0.28 0.76 0 0.32 0.76 0 0.36 0.76 0 0.4 0.76 0 0.44 0.76 0 0.48 0.76 0 0.52 0.76 0 0.56 0.76 0 0.6 0.76 0 0.64 0.76 0 0.68 0.76 0 0.72 0.76 0 0.76 0.76 0 0.8 0.76 0 0.84 0.76 0 0.88 0.76 0 0.92 0.76 0 0.96 0.76 0 1 0.76 0 1.04 0.76 0 1.08 0.76 0 1.12 0.76 0 1.16 0.76 0 1.2 0.76 0 0 0.8 0 0.04 0.8 0 0.08 0.8 0 0.12 0.8 0 0.16 0.8 0 0.2 0.8 0 0.24 0.8 0 0.28 0.8 0 0.32 0.8 0 0.36 0.8 0 0.4 0.8 0 0.44 0.8 0 0.48 0.8 0 0.52 0.8 0 0.56 0.8 0 0.6 0.8 0 0.64 0.8 0 0.68 0.8 0 0.72 0.8 0 0.76 0.8 0 0.8 0.8 0 0.84 0.8 0 0.88 0.8 0 0.92 0.8 0 0.96 0.8 0 1 0.8 0 1.04 0.8 0 1.08 0.8 0 1.12 0.8 0 1.16 0.8 0 1.2 0.8 0 0 0.84 0 0.04 0.84 0 0.08 0.84 0 0.12 0.84 0 0.16 0.84 0 0.2 0.84 0 0.24 0.84 0 0.28 0.84 0 0.32 0.84 0 0.36 0.84 0 0.4 0.84 0 0.44 0.84 0 0.48 0.84 0 0.52 0.84 0 0.56 0.84 0 0.6 0.84 0 0.64 0.84 0 0.68 0.84 0 0.72 0.84 0 0.76 0.84 0 0.8 0.84 0 0.84 0.84 0 0.88 0.84 0 0.92 0.84 0 0.96 0.84 0 1 0.84 0 1.04 0.84 0 1.08 0.84 0 1.12 0.84 0 1.16 0.84 0 1.2 0.84 0 0 0.88 0 0.04 0.88 0 0.08 0.88 0 0.12 0.88 0 0.16 0.88 0 0.2 0.88 0 0.24 0.88 0 0.28 0.88 0 0.32 0.88 0 0.36 0.88 0 0.4 0.88 0 0.44 0.88 0 0.48 0.88 0 0.52 0.88 0 0.56 0.88 0 0.6 0.88 0 0.64 0.88 0 0.68 0.88 0 0.72 0.88 0 0.76 0.88 0 0.8 0.88 0 0.84 0.88 0 0.88 0.88 0 0.92 0.88 0 0.96 0.88 0 1 0.88 0 1.04 0.88 0 1.08 0.88 0 1.12 0.88 0 1.16 0.88 0 1.2 0.88 0 0 0.92 0 0.04 0.92 0 0.08 0.92 0 0.12 0.92 0 0.16 0.92 0 0.2 0.92 0 0.24 0.92 0 0.28 0.92 0 0.32 0.92 0 0.36 0.92 0 0.4 0.92 0 0.44 0.92 0 0.48 0.92 0 0.52 0.92 0 0.56 0.92 0 0.6 0.92 0 0.64 0.92 0 0.68 0.92 0 0.72 0.92 0 0.76 0.92 0 0.8 0.92 0 0.84 0.92 0 0.88 0.92 0 0.92 0.92 0 0.96 0.92 0 1 0.92 0 1.04 0.92 0 1.08 0.92 0 1.12 0.92 0 1.16 0.92 0 1.2 0.92 0 0 0.96 0 0.04 0.96 0 0.08 0.96 0 0.12 0.96 0 0.16 0.96 0 0.2 0.96 0 0.24 0.96 0 0.28 0.96 0 0.32 0.96 0 0.36 0.96 0 0.4 0.96 0 0.44 0.96 0 0.48 0.96 0 0.52 0.96 0 0.56 0.96 0 0.6 0.96 0 0.64 0.96 0 0.68 0.96 0 0.72 0.96 0 0.76 0.96 0 0.8 0.96 0 0.84 0.96 0 0.88 0.96 0 0.92 0.96 0 0.96 0.96 0 1 0.96 0 1.04 0.96 0 1.08 0.96 0 1.12 0.96 0 1.16 0.96 0 1.2 0.96 0 0 1 0 0.04 1 0 0.08 1 0 0.12 1 0 0.16 1 0 0.2 1 0 0.24 1 0 0.28 1 0 0.32 1 0 0.36 1 0 0.4 1 0 0.44 1 0 0.48 1 0 0.52 1 0 0.56 1 0 0.6 1 0 0.64 1 0 0.68 1 0 0.72 1 0 0.76 1 0 0.8 1 0 0.84 1 0 0.88 1 0 0.92 1 0 0.96 1 0 1 1 0 1.04 1 0 1.08 1 0 1.12 1 0 1.16 1 0 1.2 1 0 0 1.04 0 0.04 1.04 0 0.08 1.04 0 0.12 1.04 0 0.16 1.04 0 0.2 1.04 0 0.24 1.04 0 0.28 1.04 0 0.32 1.04 0 0.36 1.04 0 0.4 1.04 0 0.44 1.04 0 0.48 1.04 0 0.52 1.04 0 0.56 1.04 0 0.6 1.04 0 0.64 1.04 0 0.68 1.04 0 0.72 1.04 0 0.76 1.04 0 0.8 1.04 0 0.84 1.04 0 0.88 1.04 0 0.92 1.04 0 0.96 1.04 0 1 1.04 0 1.04 1.04 0 1.08 1.04 0 1.12 1.04 0 1.16 1.04 0 1.2 1.04 0 0 1.08 0 0.04 1.08 0 0.08 1.08 0 0.12 1.08 0 0.16 1.08 0 0.2 1.08 0 0.24 1.08 0 0.28 1.08 0 0.32 1.08 0 0.36 1.08 0 0.4 1.08 0 0.44 1.08 0 0.48 1.08 0 0.52 1.08 0 0.56 1.08 0 0.6 1.08 0 0.64 1.08 0 0.68 1.08 0 0.72 1.08 0 0.76 1.08 0 0.8 1.08 0 0.84 1.08 0 0.88 1.08 0 0.92 1.08 0 0.96 1.08 0 1 1.08 0 1.04 1.08 0 1.08 1.08 0 1.12 1.08 0 1.16 1.08 0 1.2 1.08 0 0 1.12 0 
[...]
			<PointData Scalars="VitesseX">
				<DataArray Name="VitesseX" type="Float32" format="ascii">
 0 -0.0631232 -0.107637 -0.0353881 0.105047 0.25999 0.362804 0.384816 0.343862 0.291478 0.243385 0.216092 0.214884 0.235061 0.266389 0.300047 0.328704 0.302275 -0.0238841 -0.574176 -0.923526 -0.980438 -0.866204 -0.761364 -0.657478 -0.552934 -0.44705 -0.339173 -0.228681 -0.114048 0 0 0.0570842 0.0480001 0.0782964 0.162508 0.261319 0.330441 0.327727 0.28554 0.239934 0.208733 0.194836 0.201647 0.225578 0.259644 0.295319 0.325209 0.300932 -0.0191675 -0.566663 -0.919027 -0.980125 -0.866499 -0.761719 -0.657946 -0.553513 -0.447702 -0.339792 -0.229121 -0.114249 0 0 -0.0195717 -0.0222847 -0.0298495 -0.0255741 -0.00133176 0.0346174 0.071549 0.0950832 0.104904 0.113785 0.131481 0.158728 0.196095 0.238668 0.279998 0.313485 0.295502 -0.00632012 -0.544155 -0.904966 -0.978153 -0.866587 -0.761767 -0.658121 -0.553852 -0.448173 -0.340291 -0.229544 -0.114581 0 0 -0.101333 -0.16157 -0.185217 -0.196046 -0.20437 -0.188641 -0.142973 -0.0888057 -0.0395905 0.0046549 0.049606 0.0979218 0.148357 0.200359 0.249729 0.289204 0.281334 0.0102715 -0.507884 -0.880823 -0.973456 -0.866868 -0.761881 -0.658322 -0.554197 -0.448629 -0.340807 -0.230043 -0.114958 0 0 -0.141855 -0.220538 -0.25541 -0.278091 -0.295253 -0.296078 -0.258274 -0.197598 -0.135861 -0.0790305 -0.0247241 0.030485 0.086846 0.144872 0.200777 0.246727 0.251843 0.0236458 -0.460104 -0.845026 -0.963263 -0.86765 -0.762291 -0.658717 -0.554672 -0.449193 -0.341487 -0.230711 -0.115395 0 0 -0.135839 -0.220894 -0.265735 -0.2914 -0.308526 -0.31691 -0.302861 -0.258935 -0.200718 -0.141152 -0.0855476 -0.0320465 0.0221076 0.0778546 0.13487 0.18562 0.203243 0.0272366 -0.403561 -0.794195 -0.942144 -0.869236 -0.762996 -0.659311 -0.555283 -0.449871 -0.342307 -0.231544 -0.115937 0 0 -0.0943548 -0.165293 -0.213729 -0.242147 -0.261665 -0.278828 -0.287112 -0.275659 -0.23966 -0.188764 -0.135938 -0.0865199 -0.0384348 0.010203 0.060852 0.11001 0.134542 0.015329 -0.342739 -0.723831 -0.90245 -0.871182 -0.76396 -0.660069 -0.556008 -0.450647 -0.34324 -0.232551 -0.116677 0 0 -0.0143069 -0.0342964 -0.076106 -0.128525 -0.174269 -0.206004 -0.229891 -0.247267 -0.246884 -0.219988 -0.178574 -0.135498 -0.0942769 -0.0540266 -0.0122396 0.0282505 0.048819 -0.0182074 -0.284527 -0.631665 -0.837885 -0.866917 -0.764834 -0.660943 -0.55681 -0.451494 -0.344274 -0.233752 -0.117681 0 0 0.0450176 0.0598993 0.0255854 -0.0342607 -0.0986724 -0.149434 -0.184504 -0.211348 -0.230964 -0.234427 -0.214799 -0.182162 -0.148336 -0.115778 -0.0838038 -0.0545431 -0.0443071 -0.077088 -0.239289 -0.521171 -0.750899 -0.836206 -0.764996 -0.661883 -0.557639 -0.452389 -0.345387 -0.235109 -0.118942 0 0 0.0534339 0.0799003 0.0574864 0.00437908 -0.0605331 -0.123463 -0.166871 -0.195374 -0.222247 -0.243156 -0.247776 -0.232531 -0.205973 -0.179512 -0.156489 -0.139739 -0.137686 -0.158262 -0.223295 -0.410559 -0.635735 -0.7634 -0.759215 -0.662375 -0.558385 -0.453288 -0.346526 -0.23654 -0.120322 0 0 0.046453 0.0657284 0.0453817 -0.00306402 -0.0625226 -0.125036 -0.182604 -0.222374 -0.248749 -0.272522 -0.290389 -0.292668 -0.276497 -0.25279 -0.235024 -0.227477 -0.233425 -0.251456 -0.25254 -0.319701 -0.494965 -0.654036 -0.721545 -0.660188 -0.55903 -0.454101 -0.347595 -0.237942 -0.121679 0 0 0.0259755 0.0301391 0.00445712 -0.043459 -0.102682 -0.163924 -0.222829 -0.274189 -0.310624 -0.33672 -0.358492 -0.373049 -0.371889 -0.351605 -0.326534 -0.318005 -0.331041 -0.3429 -0.328167 -0.286756 -0.353444 -0.513912 -0.629203 -0.644411 -0.558128 -0.454684 -0.348527 -0.239246 -0.122931 0 0 -0.00114783 -0.0154751 -0.0510944 -0.104813 -0.163991 -0.222857 -0.278961 -0.330788 -0.376576 -0.413401 -0.442136 -0.465034 -0.479119 -0.477585 -0.457812 -0.436509 -0.432666 -0.434128 -0.414199 -0.324724 -0.255167 -0.350767 -0.496425 -0.581463 -0.551039 -0.454514 -0.349268 -0.24046 -0.124072 0 0 -0.0255102 -0.059304 -0.10847 -0.168275 -0.230854 -0.288129 -0.338922 -0.384841 -0.430856 -0.479196 -0.522477 -0.557416 -0.585954 -0.603394 -0.608425 -0.590374 -0.559289 -0.53223 -0.499748 -0.396945 -0.241547 -0.207418 -0.331767 -0.462192 -0.514175 -0.451229 -0.349589 -0.241593 -0.125106 0 0 -0.0441275 -0.0945823 -0.154578 -0.222701 -0.288062 -0.344227 -0.390207 -0.430719 -0.470323 -0.518474 -0.577384 -0.634367 -0.682132 -0.722087 -0.745717 -0.748895 -0.716088 -0.652401 -0.577901 -0.478518 -0.296701 -0.141914 -0.163238 -0.304101 -0.41723 -0.43172 -0.348058 -0.242554 -0.126087 0 0 -0.0577488 -0.11813 -0.185935 -0.257209 -0.322866 -0.377582 -0.421839 -0.458322 -0.494283 -0.536657 -0.598449 -0.6747 -0.748822 -0.815094 -0.863715 -0.882515 -0.856545 -0.788841 -0.673395 -0.536983 -0.383668 -0.169746 -0.0497783 -0.124109 -0.270279 -0.36186 -0.338659 -0.242522 -0.127023 0 0 -0.0669943 -0.130842 -0.193598 -0.256074 -0.316255 -0.369391 -0.415792 -0.45735 -0.495634 -0.536843 -0.589838 -0.672907 -0.775041 -0.864458 -0.933925 -0.972602 -0.968744 -0.90306 -0.774468 -0.598297 -0.443961 -0.26561 -0.0352917 0.024533 -0.089721 -0.231052 -0.294036 -0.238535 -0.127527 0 0 -0.0702858 -0.131343 -0.183448 -0.232197 -0.277909 -0.324487 -0.370562 -0.417022 -0.466301 -0.516087 -0.57103 -0.639126 -0.729415 -0.844865 -0.949541 -1.0138 -1.03012 -0.96893 -0.848091 -0.680562 -0.491484 -0.337011 -0.124303 0.0875518 0.0827747 -0.056926 -0.185388 -0.213383 -0.125726 0 0 -0.0634272 -0.115845 -0.152743 -0.180603 -0.212206 -0.253652 -0.304863 -0.359145 -0.413348 -0.470565 -0.528544 -0.589859 -0.670032 -0.763616 -0.869509 -0.957987 -1.00366 -0.987869 -0.886619 -0.740441 -0.560362 -0.370457 -0.231866 0.0403102 0.184612 0.132116 -0.0216026 -0.131151 -0.112759 0 0 -0.0382207 -0.0736954 -0.0963791 -0.113156 -0.135279 -0.172782 -0.229471 -0.294133 -0.354287 -0.409577 -0.463214 -0.521982 -0.590855 -0.673509 -0.76225 -0.838219 -0.889367 -0.905787 -0.872737 -0.763613 -0.617337 -0.42971 -0.259542 -0.0977444 0.189785 0.2629 0.172997 0.0179919 -0.0552289 0 0 -0.0124528 -0.0309993 -0.0383984 -0.0527161 -0.0630359 -0.0906407 -0.139365 -0.200786 -0.266017 -0.328391 -0.390602 -0.454834 -0.504707 -0.566297 -0.63493 -0.705223 -0.762229 -0.790499 -0.78373 -0.733577 -0.636171 -0.488049 -0.283687 -0.182098 0.0874567 0.306506 0.322605 0.207729 0.0722476 0 0 -0.00317523 -0.00724353 -0.00715016 -0.0100222 -0.00611032 -0.0212181 -0.0473859 -0.0832536 -0.133025 -0.202024 -0.284293 -0.365953 -0.429841 -0.475215 -0.510591 -0.571051 -0.629535 -0.66973 -0.686217 -0.67051 -0.592952 -0.507021 -0.359668 -0.179444 -0.0519803 0.251263 0.383857 0.357909 0.235387 0 0 -0.00834015 0.00202074 -0.00148252 0.0124813 0.0257254 0.017841 0.0188103 0.0202742 -9.2909e-05 -0.0513605 -0.131008 -0.228019 -0.324945 -0.394678 -0.437958 -0.456116 -0.488252 -0.549485 -0.586223 -0.588317 -0.55211 -0.472584 -0.40331 -0.20548 -0.111112 0.113431 0.355334 0.39848 0.327244 0 0 -0.0153208 -0.00108464 -0.012393 0.0179536 0.0266926 0.0247906 0.0429046 0.0734834 0.0887158 0.0702449 0.015324 -0.0673404 -0.166807 -0.267152 -0.352697 -0.391533 -0.40507 -0.414592 -0.45241 -0.501509 -0.51535 -0.447097 -0.379298 -0.286444 -0.123355 -0.0175224 0.228939 0.337727 0.304971 0 0 -0.0215421 -0.0120235 -0.0224729 0.00865048 0.00944221 0.0134102 0.0429085 0.085518 0.119893 0.125003 0.103428 0.0602273 -0.00731541 -0.0991642 -0.20018 -0.294142 -0.346261 -0.358701 -0.355104 -0.370963 -0.405302 -0.431512 -0.384527 -0.328802 -0.194265 -0.105445 0.0278338 0.197081 0.193582 0 0 -0.0255742 -0.0345998 -0.0291043 -0.0104181 -0.00968933 8.44835e-05 0.033952 0.0748774 0.105713 0.118883 0.124019 0.115636 0.0947766 0.0492158 -0.0271388 -0.128022 -0.228452 -0.302604 -0.320911 -0.31269 -0.303741 -0.333337 -0.359126 -0.371185 -0.321199 -0.230989 -0.167482 -0.021847 0.0594568 0 0 -0.0282576 -0.0556615 -0.0378585 -0.0323207 -0.0312253 -0.0144076 0.0167426 0.0535919 0.0761274 0.0847383 0.0909105 0.102903 0.11969 0.121354 0.0974523 0.035594 -0.0597211 -0.168129 -0.253962 -0.291548 -0.292644 -0.280029 -0.29689 -0.360036 -0.426546 -0.404476 -0.348485 -0.225082 -0.0837115 0 0 -0.0481116 -0.0604177 -0.0713619 -0.0523115 -0.0486065 -0.0286676 -0.00366566 0.0216377 0.0313853 0.0317953 0.0363446 0.0518207 0.07634 0.105703 0.129851 0.124298 0.0780114 -0.00819186 -0.120304 -0.217656 -0.281327 -0.300635 -0.317634 -0.362623 -0.461203 -0.517927 -0.468321 -0.353697 -0.17475 0 0 -0.060416 -0.129201 -0.0980394 -0.0810608 -0.0533505 -0.0406179 -0.0121956 -0.0015957 -0.00673638 -0.0188664 -0.021218 -0.0122039 0.00671932 0.0317592 0.0600644 0.0893545 0.101663 0.0781312 0.00413931 -0.110844 -0.231 -0.324063 -0.389081 -0.441211 -0.50941 -0.546165 -0.50533 -0.398311 -0.219934 0 0 -0.372999 -0.171943 -0.113263 -0.0831831 -0.0714067 -0.0336885 -0.0114511 -0.00866358 -0.0267513 -0.0443448 -0.0527888 -0.0494991 -0.038781 -0.0243279 -0.00838002 0.00802432 0.0228668 0.028042 -0.00147006 -0.0924659 -0.255278 -0.441932 -0.578799 -0.636138 -0.631273 -0.579526 -0.456932 -0.347803 -0.301344 0 0 0 0 0 0 0 0 0 0 0 0 0 0 0 0 0 0 0 0 0 0 0 0 0 0 0 0 0 0 0 0
				</DataArray>
				<DataArray Name="VitesseY" type="Float32" format="ascii">
 0 0 0 0 0 0 0 0 0 0 0 0 0 0 0 0 0 0 0 0 0 0 0 0 0 0 0 0 0 0 0 -0.0624458 0.0611337 -0.0149138 -0.0950554 -0.137104 -0.124077 -0.0550819 0.028593 0.0473166 0.0433003 0.0286092 0.00521613 -0.0181652 -0.0333845 -0.0395526 -0.0385554 -0.0346103 -0.0279151 -0.0156328 0.000606953 0.0131826 0.0178791 0.0175065 0.016072 0.0143309 0.0120587 0.00889308 0.0042011 -0.000286783 -0.00276179 0 -0.101829 0.055597 -0.00495912 -0.135179 -0.192902 -0.198696 -0.0927218 0.0247241 0.0626043 0.0563164 0.0303558 -0.00793397 -0.0467399 -0.0738692 -0.0838224 -0.0806908 -0.0712841 -0.056921 -0.0326053 -0.000479174 0.0251239 0.0353361 0.0352269 0.0323682 0.0289481 0.02442 0.0180249 0.00841704 -0.000655136 -0.00552285 0 -0.0260761 0.0932195 0.012878 -0.129365 -0.199775 -0.215327 -0.13529 -0.0227225 0.0248241 0.0273207 -0.00169111 -0.0466232 -0.0918727 -0.125095 -0.136378 -0.129613 -0.112472 -0.089125 -0.0533656 -0.00570999 0.0340842 0.05173 0.0532231 0.0488941 0.0438506 0.0371375 0.0275483 0.0129451 -0.000808846 -0.0080954 0 0.11302 0.189596 0.0478081 -0.113437 -0.189987 -0.207482 -0.165911 -0.0834797 -0.0373794 -0.0296698 -0.0542714 -0.102099 -0.149112 -0.184485 -0.197869 -0.186615 -0.161011 -0.128376 -0.0820653 -0.0189459 0.0372863 0.0661167 0.0713757 0.0656501 0.0591092 0.0503378 0.0377024 0.0181473 -0.00056295 -0.0104747 0 0.272357 0.300208 0.0933236 -0.0870183 -0.176009 -0.195254 -0.177196 -0.13246 -0.101622 -0.094301 -0.115303 -0.1608 -0.209548 -0.246155 -0.263371 -0.250863 -0.218512 -0.178233 -0.12363 -0.0452878 0.0309684 0.0770505 0.0892724 0.0826591 0.0747723 0.064068 0.0485748 0.0242017 0.000110239 -0.0127482 0 0.402753 0.392415 0.149517 -0.0577399 -0.159307 -0.183639 -0.171865 -0.152503 -0.146238 -0.153602 -0.17681 -0.218763 -0.266768 -0.305112 -0.325581 -0.31814 -0.283318 -0.239243 -0.18075 -0.0894121 0.0109987 0.0818492 0.105637 0.100073 0.0908477 0.078381 0.0602456 0.0313641 0.00138776 -0.0148853 0 0.463337 0.432904 0.192408 -0.018241 -0.126164 -0.160116 -0.155493 -0.146137 -0.156705 -0.190215 -0.229521 -0.273108 -0.319343 -0.358946 -0.38166 -0.382208 -0.350677 -0.30769 -0.250673 -0.153105 -0.0287268 0.0708972 0.114239 0.118155 0.10741 0.0933924 0.0729071 0.0399282 0.00362735 -0.0166501 0 0.448862 0.408943 0.213726 0.0285991 -0.069158 -0.115871 -0.126634 -0.126077 -0.143284 -0.196203 -0.260125 -0.318401 -0.367207 -0.406963 -0.432757 -0.43966 -0.41741 -0.376382 -0.325653 -0.233793 -0.0946226 0.0350877 0.111549 0.13472 0.124596 0.109252 0.0867514 0.0502007 0.00727433 -0.0176033 0 0.395409 0.356024 0.217264 0.0735272 -0.00989664 -0.0550165 -0.0837103 -0.101212 -0.124518 -0.181575 -0.26539 -0.345799 -0.408705 -0.451802 -0.479618 -0.491816 -0.479961 -0.443708 -0.397165 -0.320471 -0.183541 -0.0271468 0.092245 0.142168 0.142537 0.126104 0.10198 0.062488 0.0127939 -0.0172973 0 0.33771 0.305517 0.213668 0.111219 0.0449181 0.00481034 -0.0285875 -0.0669666 -0.103503 -0.164169 -0.255533 -0.354147 -0.439164 -0.496133 -0.526376 -0.540974 -0.537895 -0.509688 -0.461826 -0.397887 -0.284515 -0.117389 0.0374578 0.129673 0.158524 0.144164 0.118754 0.0770326 0.020561 -0.0154828 0 0.290551 0.27175 0.215302 0.14656 0.0963347 0.0616981 0.0268734 -0.0187996 -0.0752891 -0.146851 -0.243586 -0.351776 -0.456319 -0.536285 -0.581381 -0.596597 -0.593617 -0.570692 -0.521925 -0.463285 -0.37657 -0.227377 -0.0494389 0.093031 0.158298 0.162696 0.137148 0.0939087 0.0307835 -0.0121329 0 0.268514 0.260057 0.227993 0.185489 0.148658 0.116408 0.0795112 0.0289807 -0.0369825 -0.123405 -0.22906 -0.346698 -0.462881 -0.566629 -0.636769 -0.668551 -0.660589 -0.633591 -0.581542 -0.520696 -0.452325 -0.335404 -0.15961 0.0164072 0.134199 0.176023 0.156755 0.112962 0.0435678 -0.00734529 0 0.2748 0.27087 0.255392 0.232367 0.203786 0.170232 0.127214 0.0710701 -0.00163183 -0.0915035 -0.206255 -0.335622 -0.464665 -0.584107 -0.682588 -0.739259 -0.754513 -0.709688 -0.654087 -0.572146 -0.500052 -0.417458 -0.275087 -0.0907866 0.0742594 0.162916 0.176061 0.1338 0.0590312 -0.00120675 0 0.302593 0.302005 0.297508 0.287482 0.263499 0.223437 0.170082 0.104386 0.0267198 -0.0644629 -0.174071 -0.31311 -0.455859 -0.593788 -0.713967 -0.800711 -0.842966 -0.809606 -0.734546 -0.63979 -0.537238 -0.464918 -0.37158 -0.208905 -0.0237742 0.119755 0.179649 0.154963 0.0771703 0.00635138 0 0.346654 0.347432 0.34978 0.349018 0.32531 0.274542 0.208224 0.130561 0.045889 -0.0462247 -0.149188 -0.277054 -0.43491 -0.589856 -0.730403 -0.845198 -0.906142 -0.90797 -0.825223 -0.72231 -0.596751 -0.486128 -0.420511 -0.31639 -0.142796 0.0362184 0.150736 0.171562 0.0975103 0.0154663 0 0.402265 0.401265 0.404248 0.407265 0.381127 0.320446 0.24154 0.153117 0.058935 -0.0378792 -0.138568 -0.252612 -0.398956 -0.567677 -0.729182 -0.859157 -0.940993 -0.97413 -0.907808 -0.793553 -0.663944 -0.531935 -0.439296 -0.375175 -0.25556 -0.0788084 0.0820451 0.160414 0.117928 0.0259183 0 0.464054 0.456884 0.451481 0.449473 0.41937 0.352313 0.265802 0.16775 0.0661237 -0.0378776 -0.143703 -0.250297 -0.37506 -0.52792 -0.689412 -0.830873 -0.939663 -0.995622 -0.955711 -0.845466 -0.724038 -0.596423 -0.460959 -0.394319 -0.330792 -0.196436 -0.0227633 0.108743 0.124024 0.0360165 0 0.469982 0.456898 0.441195 0.436749 0.406131 0.341912 0.25901 0.158611 0.0501125 -0.0555037 -0.159072 -0.262014 -0.366951 -0.481139 -0.62026 -0.761583 -0.878287 -0.94025 -0.953236 -0.866118 -0.757332 -0.6447 -0.521126 -0.398164 -0.350801 -0.28738 -0.144533 0.0161578 0.0959608 0.037934 0 0.233014 0.222256 0.199159 0.211247 0.202502 0.16747 0.124564 0.0640959 -0.010269 -0.0887717 -0.173509 -0.258569 -0.344484 -0.437641 -0.541041 -0.65727 -0.756452 -0.829278 -0.866302 -0.845138 -0.755883 -0.662877 -0.569411 -0.434302 -0.347813 -0.315468 -0.241961 -0.104494 0.0181021 0.00665472 0 -0.307265 -0.297397 -0.31227 -0.285552 -0.268242 -0.254269 -0.231832 -0.213468 -0.20007 -0.182286 -0.177398 -0.216051 -0.290047 -0.373237 -0.445459 -0.509135 -0.590558 -0.671178 -0.725704 -0.746818 -0.717649 -0.652177 -0.576667 -0.489791 -0.36044 -0.310316 -0.288318 -0.21007 -0.101738 -0.0856155 0 -0.72667 -0.696423 -0.697391 -0.673845 -0.661144 -0.634676 -0.598132 -0.549434 -0.479422 -0.386433 -0.283767 -0.198012 -0.170833 -0.209304 -0.294492 -0.371224 -0.423035 -0.483573 -0.555055 -0.607868 -0.623495 -0.584695 -0.542866 -0.50904 -0.399006 -0.299805 -0.291701 -0.279316 -0.227013 -0.250591 0 -0.838068 -0.796684 -0.796257 -0.783704 -0.788815 -0.777204 -0.763438 -0.73497 -0.674727 -0.583757 -0.465379 -0.326523 -0.193502 -0.107546 -0.0980769 -0.169225 -0.270375 -0.321948 -0.358056 -0.430124 -0.48256 -0.497667 -0.466063 -0.44447 -0.429442 -0.330322 -0.279419 -0.300549 -0.323033 -0.439915 0 -0.713148 -0.675593 -0.684843 -0.681105 -0.699701 -0.708427 -0.722677 -0.729808 -0.719002 -0.675138 -0.592376 -0.485322 -0.350548 -0.197875 -0.0680958 -0.00213936 -0.0249752 -0.138214 -0.23046 -0.244876 -0.279234 -0.361708 -0.400735 -0.374306 -0.382811 -0.358429 -0.296321 -0.317856 -0.389248 -0.578563 0 -0.579624 -0.550591 -0.569886 -0.572958 -0.596862 -0.60885 -0.621518 -0.626633 -0.625666 -0.62299 -0.613696 -0.571351 -0.486011 -0.365628 -0.210572 -0.0487637 0.0694859 0.104827 0.0348756 -0.107 -0.178292 -0.172155 -0.205246 -0.287634 -0.328363 -0.370906 -0.359743 -0.362756 -0.441586 -0.636512 0 -0.438628 -0.424568 -0.456846 -0.468449 -0.496338 -0.512335 -0.523526 -0.526201 -0.525492 -0.52724 -0.533005 -0.539326 -0.528739 -0.472195 -0.364656 -0.215474 -0.038487 0.117784 0.201197 0.192919 0.081772 -0.0539422 -0.108371 -0.121476 -0.194646 -0.32186 -0.426912 -0.461387 -0.509677 -0.631667 0 -0.280685 -0.294765 -0.340383 -0.36332 -0.396892 -0.414107 -0.425591 -0.42532 -0.424884 -0.428257 -0.436644 -0.447007 -0.455142 -0.455241 -0.42705 -0.3424 -0.203814 -0.0265979 0.156486 0.276289 0.311929 0.250707 0.111648 -0.0174133 -0.104714 -0.230974 -0.404819 -0.518227 -0.546396 -0.579768 0 -0.102444 -0.163325 -0.22262 -0.255953 -0.302317 -0.313808 -0.322697 -0.321601 -0.322117 -0.327024 -0.336578 -0.347353 -0.355698 -0.360014 -0.359569 -0.347384 -0.29327 -0.175337 -0.00579919 0.188342 0.331906 0.388341 0.356808 0.228627 0.0275575 -0.167449 -0.348542 -0.46846 -0.505478 -0.457048 0 0.0415054 0.0321166 -0.117224 -0.161032 -0.209393 -0.217137 -0.220004 -0.216309 -0.213569 -0.219467 -0.229961 -0.241168 -0.24838 -0.252945 -0.254749 -0.254042 -0.248235 -0.218634 -0.129764 0.0249177 0.216307 0.363466 0.401157 0.338734 0.197167 -0.0219702 -0.225139 -0.353751 -0.398369 -0.347862 0 0.644316 0.0895742 -0.0815006 -0.0713203 -0.125035 -0.105123 -0.129061 -0.103138 -0.103313 -0.105287 -0.116757 -0.123613 -0.130189 -0.133264 -0.134798 -0.13517 -0.13455 -0.131371 -0.116503 -0.0558349 0.0750571 0.239318 0.32952 0.30566 0.193562 0.0593499 -0.083733 -0.174754 -0.219938 -0.301358 0 5.42512 0 0 0 0 0 0 0 0 0 0 0 0 0 0 0 0 0 0 0 0 0 0 0 0 0 0 0 0 0 0
				</DataArray>
			</PointData>
			<CellData Scalars="Density">
				<DataArray Name="Density" type="Float32" format="ascii">