<?xml version="1.0"?>
<VTKFile type="PolyData">
	<PolyData>
		<Piece NumberOfPoints="961" NumberOfPolys="900">
			<Points>
				<DataArray type="Float32" NumberOfComponents="3" format="ascii">
 0 0 0 0.04 0 0 0.08 0 0 0.12 0 0 0.16 0 0 0.2 0 0 0.24 0 0 0.28 0 0 0.32 0 0 0.36 0 0 0.4 0 0 0.44 0 0 0.48 0 0 0.52 0 0 0.56 0 0 0.6 0 0 0.64 0 0 0.68 0 0 0.72 0 0 0.76 0 0 0.8 0 0 0.84 0 0 0.88 0 0 0.92 0 0 0.96 0 0 1 0 0 1.04 0 0 1.08 0 0 1.12 0 0 1.16 0 0 1.2 0 0 0 0.04 0 0.04 0.04 0 0.08 0.04 0 0.12 0.04 0 0.16 0.04 0 0.2 0.04 0 0.24 0.04 0 0.28 0.04 0 0.32 0.04 0 0.36 0.04 0 0.4 0.04 0 0.44 0.04 0 0.48 0.04 0 0.52 0.04 0 0.56 0.04 0 0.6 0.04 0 0.64 0.04 0 0.68 0.04 0 0.72 0.04 0 0.76 0.04 0 0.8 0.04 0 0.84 0.04 0 0.88 0.04 0 0.92 0.04 0 0.96 0.04 0 1 0.04 0 1.04 0.04 0 1.08 0.04 0 1.12 0.04 0 1.16 0.04 0 1.2 0.04 0 0 0.08 0 0.04 0.08 0 0.08 0.08 0 0.12 0.08 0 0.16 0.08 0 0.2 0.08 0 0.24 0.08 0 0.28 0.08 0 0.32 0.08 0 0.36 0.08 0 0.4 0.08 0 0.44 0.08 0 0.48 0.08 0 0.52 0.08 0 0.56 0.08 0 0.6 0.08 0 0.64 0.08 0 0.68 0.08 0 0.72 0.08 0 0.76 0.08 0 0.8 0.08 0 0.84 0.08 0 0.88 0.08 0 0.92 0.08 0 0.96 0.08 0 1 0.08 0 1.04 0.08 0 1.08 0.08 0 1.12 0.08 0 1.16 0.08 0 1.2 0.08 0 0 0.12 0 0.04 0.12 0 0.08 0.12 0 0.12 0.12 0 0.16 0.12 0 0.2 0.12 0 0.24 0.12 0 0.28 0.12 0 0.32 0.12 0 0.36 0.12 0 0.4 0.12 0 0.44 0.12 0 0.48 0.12 0 0.52 0.12 0 0.56 0.12 0 0.6 0.12 0 0.64 0.12 0 0.68 0.12 0 0.72 0.12 0 0.76 0.12 0 0.8 0.12 0 0.84 0.12 0 0.88 0.12 0 0.92 0.12 0 0.96 0.12 0 1 0.12 0 1.04 0.12 0 1.08 0.12 0 1.12 0.12 0 1.16 0.12 0 1.2 0.12 0 0 0.16 0 0.04 0.16 0 0.08 0.16 0 0.12 0.16 0 0.16 0.16 0 0.2 0.16 0 0.24 0.16 0 0.28 0.16 0 0.32 0.16 0 0.36 0.16 0 0.4 0.16 0 0.44 0.16 0 0.48 0.16 0 0.52 0.16 0 0.56 0.16 0 0.6 0.16 0 0.64 0.16 0 0.68 0.16 0 0.72 0.16 0 0.76 0.16 0 0.8 0.16 0 0.84 0.16 0 0.88 0.16 0 0.92 0.16 0 0.96 0.16 0 1 0.16 0 1.04 0.16 0 1.08 0.16 0 1.12 0.16 0 1.16 0.16 0 1.2 0.16 0 0 0.2 0 0.04 0.2 0 0.08 0.2 0 0.12 0.2 0 0.16 0.2 0 0.2 0.2 0 0.24 0.2 0 0.28 0.2 0 0.32 0.2 0 0.36 0.2 0 0.4 0.2 0 0.44 0.2 0 0.48 0.2 0 0.52 0.2 0 0.56 0.2 0 0.6 0.2 0 0.64 0.2 0 0.68 0.2 0 0.72 0.2 0 0.76 0.2 0 0.8 0.2 0 0.84 0.2 0 0.88 0.2 0 0.92 0.2 0 0.96 0.2 0 1 0.2 0 1.04 0.2 0 1.08 0.2 0 1.12 0.2 0 1.16 0.2 0 1.2 0.2 0 0 0.24 0 0.04 0.24 0 0.08 0.24 0 0.12 0.24 0 0.16 0.24 0 0.2 0.24 0 0.24 0.24 0 0.28 0.24 0 0.32 0.24 0 0.36 0.24 0 0.4 0.24 0 0.44 0.24 0 0.48 0.24 0 0.52 0.24 0 0.56 0.24 0 0.6 0.24 0 0.64 0.24 0 0.68 0.24 0 0.72 0.24 0 0.76 0.24 0 0.8 0.24 0 0.84 0.24 0 0.88 0.24 0 0.92 0.24 0 0.96 0.24 0 1 0.24 0 1.04 0.24 0 1.08 0.24 0 1.12 0.24 0 1.16 0.24 0 1.2 0.24 0 0 0.28 0 0.04 0.28 0 0.08 0.28 0 0.12 0.28 0 0.16 0.28 0 0.2 0.28 0 0.24 0.28 0 0.28 0.28 0 0.32 0.28 0 0.36 0.28 0 0.4 0.28 0 0.44 0.28 0 0.48 0.28 0 0.52 0.28 0 0.56 0.28 0 0.6 0.28 0 0.64 0.28 0 0.68 0.28 0 0.72 0.28 0 0.76 0.28 0 0.8 0.28 0 0.84 0.28 0 0.88 0.28 0 0.92 0.28 0 0.96 0.28 0 1 0.28 0 1.04 0.28 0 1.08 0.28 0 1.12 0.28 0 1.16 0.28 0 1.2 0.28 0 0 0.32 0 0.04 0.32 0 0.08 0.32 0 0.12 0.32 0 0.16 0.32 0 0.2 0.32 0 0.24 0.32 0 0.28 0.32 0 0.32 0.32 0 0.36 0.32 0 0.4 0.32 0 0.44 0.32 0 0.48 0.32 0 0.52 0.32 0 0.56 0.32 0 0.6 0.32 0 0.64 0.32 0 0.68 0.32 0 0.72 0.32 0 0.76 0.32 0 0.8 0.32 0 0.84 0.32 0 0.88 0.32 0 0.92 0.32 0 0.96 0.32 0 1 0.32 0 1.04 0.32 0 1.08 0.32 0 1.12 0.32 0 1.16 0.32 0 1.2 0.32 0 0 0.36 0 0.04 0.36 0 0.08 0.36 0 0.12 0.36 0 0.16 0.36 0 0.2 0.36 0 0.24 0.36 0 0.28 0.36 0 0.32 0.36 0 0.36 0.36 0 0.4 0.36 0 0.44 0.36 0 0.48 0.36 0 0.52 0.36 0 0.56 0.36 0 0.6 0.36 0 0.64 0.36 0 0.68 0.36 0 0.72 0.36 0 0.76 0.36 0 0.8 0.36 0 0.84 0.36 0 0.88 0.36 0 0.92 0.36 0 0.96 0.36 0 1 0.36 0 1.04 0.36 0 1.08 0.36 0 1.12 0.36 0 1.16 0.36 0 1.2 0.36 0 0 0.4 0 0.04 0.4 0 0.08 0.4 0 0.12 0.4 0 0.16 0.4 0 0.2 0.4 0 0.24 0.4 0 0.28 0.4 0 0.32 0.4 0 0.36 0.4 0 0.4 0.4 0 0.44 0.4 0 0.48 0.4 0 0.52 0.4 0 0.56 0.4 0 0.6 0.4 0 0.64 0.4 0 0.68 0.4 0 0.72 0.4 0 0.76 0.4 0 0.8 0.4 0 0.84 0.4 0 0.88 0.4 0 0.92 0.4 0 0.96 0.4 0 1 0.4 0 1.04 0.4 0 1.08 0.4 0 1.12 0.4 0 1.16 0.4 0 1.2 0.4 0 0 0.44 0 0.04 0.44 0 0.08 0.44 0 0.12 0.44 0 0.16 0.44 0 0.2 0.44 0 0.24 0.44 0 0.28 0.44 0 0.32 0.44 0 0.36 0.44 0 0.4 0.44 0 0.44 0.44 0 0.48 0.44 0 0.52 0.44 0 0.56 0.44 0 0.6 0.44 0 0.64 0.44 0 0.68 0.44 0 0.72 0.44 0 0.76 0.44 0 0.8 0.44 0 0.84 0.44 0 0.88 0.44 0 0.92 0.44 0 0.96 0.44 0 1 0.44 0 1.04 0.44 0 1.08 0.44 0 1.12 0.44 0 1.16 0.44 0 1.2 0.44 0 0 0.48 0 0.04 0.48 0 0.08 0.48 0 0.12 0.48 0 0.16 0.48 0 0.2 0.48 0 0.24 0.48 0 0.28 0.48 0 0.32 0.48 0 0.36 0.48 0 0.4 0.48 0 0.44 0.48 0 0.48 0.48 0 0.52 0.48 0 0.56 0.48 0 0.6 0.48 0 0.64 0.48 0 0.68 0.48 0 0.72 0.48 0 0.76 0.48 0 0.8 0.48 0 0.84 0.48 0 0.88 0.48 0 0.92 0.48 0 0.96 0.48 0 1 0.48 0 1.04 0.48 0 1.08 0.48 0 1.12 0.48 0 1.16 0.48 0 1.2 0.48 0 0 0.52 0 0.04 0.52 0 0.08 0.52 0 0.12 0.52 0 0.16 0.52 0 0.2 0.52 0 0.24 0.52 0 0.28 0.52 0 0.32 0.52 0 0.36 0.52 0 0.4 0.52 0 0.44 0.52 0 0.48 0.52 0 0.52 0.52 0 0.56 0.52 0 0.6 0.52 0 0.64 0.52 0 0.68 0.52 0 0.72 0.52 0 0.76 0.52 0 0.8 0.52 0 0.84 0.52 0 0.88 0.52 0 0.92 0.52 0 0.96 0.52 0 1 0.52 0 1.04 0.52 0 1.08 0.52 0 1.12 0.52 0 1.16 0.52 0 1.2 0.52 0 0 0.56 0 0.04 0.56 0 0.08 0.56 0 0.12 0.56 0 0.16 0.56 0 0.2 0.56 0 0.24 0.56 0 0.28 0.56 0 0.32 0.56 0 0.36 0.56 0 0.4 0.56 0 0.44 0.56 0 0.48 0.56 0 0.52 0.56 0 0.56 0.56 0 0.6 0.56 0 0.64 0.56 0 0.68 0.56 0 0.72 0.56 0 0.76 0.56 0 0.8 0.56 0 0.84 0.56 0 0.88 0.56 0 0.92 0.56 0 0.96 0.56 0 1 0.56 0 1.04 0.56 0 1.08 0.56 0 1.12 0.56 0 1.16 0.56 0 1.2 0.56 0 0 0.6 0 0.04 0.6 0 0.08 0.6 0 0.12 0.6 0 0.16 0.6 0 0.2 0.6 0 0.24 0.6 0 0.28 0.6 0 0.32 0.6 0 0.36 0.6 0 0.4 0.6 0 0.44 0.6 0 0.48 0.6 0 0.52 0.6 0 0.56 0.6 0 0.6 0.6 0 0.64 0.6 0 0.68 0.6 0 0.72 0.6 0 0.76 0.6 0 0.8 0.6 0 0.84 0.6 0 0.88 0.6 0 0.92 0.6 0 0.96 0.6 0 1 0.6 0 1.04 0.6 0 1.08 0.6 0 1.12 0.6 0 1.16 0.6 0 1.2 0.6 0 0 0.64 0 0.04 0.64 0 0.08 0.64 0 0.12 0.64 0 0.16 0.64 0 0.2 0.64 0 0.24 0.64 0 0.28 0.64 0 0.32 0.64 0 0.36 0.64 0 0.4 0.64 0 0.44 0.64 0 0.48 0.64 0 0.52 0.64 0 0.56 0.64 0 0.6 0.64 0 0.64 0.64 0 0.68 0.64 0 0.72 0.64 0 0.76 0.64 0 0.8 0.64 0 0.84 0.64 0 0.88 0.64 0 0.92 0.64 0 0.96 0.64 0 1 0.64 0 1.04 0.64 0 1.08 0.64 0 1.12 0.64 0 1.16 0.64 0 1.2 0.64 0 0 0.68 0 0.04 0.68 0 0.08 0.68 0 0.12 0.68 0 0.16 0.68 0 0.2 0.68 0 0.24 0.68 0 0.28 0.68 0 0.32 0.68 0 0.36 0.68 0 0.4 0.68 0 0.44 0.68 0 0.48 0.68 0 0.52 0.68 0 0.56 0.68 0 0.6 0.68 0 0.64 0.68 0 0.68 0.68 0 0.72 0.68 0 0.76 0.68 0 0.8 0.68 0 0.84 0.68 0 0.88 0.68 0 0.92 0.68 0 0.96 0.68 0 1 0.68 0 1.04 0.68 0 1.08 0.68 0 1.12 0.68 0 1.16 0.68 0 1.2 0.68 0 0 0.72 0 0.04 0.72 0 0.08 0.72 0 0.12 0.72 0 0.16 0.72 0 0.2 0.72 0 0.24 0.72 0 0.28 0.72 0 0.32 0.72 0 0.36 0.72 0 0.4 0.72 0 0.44 0.72 0 0.48 0.72 0 0.52 0.72 0 0.56 0.72 0 0.6 0.72 0 0.64 0.72 0 0.68 0.72 0 0.72 0.72 0 0.76 0.72 0 0.8 0.72 0 0.84 0.72 0 0.88 0.72 0 0.92 0.72 0 0.96 0.72 0 1 0.72 0 1.04 0.72 0 1.08 0.72 0 1.12 0.72 0 1.16 0.72 0 1.2 0.72 0 0 0.76 0 0.04 0.76 0 0.08 0.76 0 0.12 0.76 0 0.16 0.76 0 0.2 0.76 0 0.24 0.76 0 0.28 0.76 0 0.32 0.76 0 0.36 0.76 0 0.4 0.76 0 0.44 0.76 0 0.48 0.76 0 0.52 0.76 0 0.56 0.76 0 0.6 0.76 0 0.64 0.76 0 0.68 0.76 0 0.72 0.76 0 0.76 0.76 0 0.8 0.76 0 0.84 0.76 0 0.88 0.76 0 0.92 0.76 0 0.96 0.76 0 1 0.76 0 1.04 0.76 0 1.08 0.76 0 1.12 0.76 0 1.16 0.76 0 1.2 0.76 0 0 0.8 0 0.04 0.8 0 0.08 0.8 0 0.12 0.8 0 0.16 0.8 0 0.2 0.8 0 0.24 0.8 0 0.28 0.8 0 0.32 0.8 0 0.36 0.8 0 0.4 0.8 0 0.44 0.8 0 0.48 0.8 0 0.52 0.8 0 0.56 0.8 0 0.6 0.8 0 0.64 0.8 0 0.68 0.8 0 0.72 0.8 0 0.76 0.8 0 0.8 0.8 0 0.84 0.8 0 0.88 0.8 0 0.92 0.8 0 0.96 0.8 0 1 0.8 0 1.04 0.8 0 1.08 0.8 0 1.12 0.8 0 1.16 0.8 0 1.2 0.8 0 0 0.84 0 0.04 0.84 0 0.08 0.84 0 0.12 0.84 0 0.16 0.84 0 0.2 0.84 0 0.24 0.84 0 0.28 0.84 0 0.32 0.84 0 0.36 0.84 0 0.4 0.84 0 0.44 0.84 0 0.48 0.84 0 0.52 0.84 0 0.56 0.84 0 0.6 0.84 0 0.64 0.84 0 0.68 0.84 0 0.72 0.84 0 0.76 0.84 0 0.8 0.84 0 0.84 0.84 0 0.88 0.84 0 0.92 0.84 0 0.96 0.84 0 1 0.84 0 1.04 0.84 0 1.08 0.84 0 1.12 0.84 0 1.16 0.84 0 1.2 0.84 0 0 0.88 0 0.04 0.88 0 0.08 0.88 0 0.12 0.88 0 0.16 0.88 0 0.2 0.88 0 0.24 0.88 0 0.28 0.88 0 0.32 0.88 0 0.36 0.88 0 0.4 0.88 0 0.44 0.88 0 0.48 0.88 0 0.52 0.88 0 0.56 0.88 0 0.6 0.88 0 0.64 0.88 0 0.68 0.88 0 0.72 0.88 0 0.76 0.88 0 0.8 0.88 0 0.84 0.88 0 0.88 0.88 0 0.92 0.88 0 0.96 0.88 0 1 0.88 0 1.04 0.88 0 1.08 0.88 0 1.12 0.88 0 1.16 0.88 0 1.2 0.88 0 0 0.92 0 0.04 0.92 0 0.08 0.92 0 0.12 0.92 0 0.16 0.92 0 0.2 0.92 0 0.24 0.92 0 0.28 0.92 0 0.32 0.92 0 0.36 0.92 0 0.4 0.92 0 0.44 0.92 0 0.48 0.92 0 0.52 0.92 0 0.56 0.92 0 0.6 0.92 0 0.64 0.92 0 0.68 0.92 0 0.72 0.92 0 0.76 0.92 0 0.8 0.92 0 0.84 0.92 0 0.88 0.92 0 0.92 0.92 0 0.96 0.92 0 1 0.92 0 1.04 0.92 0 1.08 0.92 0 1.12 0.92 0 1.16 0.92 0 1.2 0.92 0 0 0.96 0 0.04 0.96 0 0.08 0.96 0 0.12 0.96 0 0.16 0.96 0 0.2 0.96 0 0.24 0.96 0 0.28 0.96 0 0.32 0.96 0 0.36 0.96 0 0.4 0.96 0 0.44 0.96 0 0.48 0.96 0 0.52 0.96 0 0.56 0.96 0 0.6 0.96 0 0.64 0.96 0 0.68 0.96 0 0.72 0.96 0 0.76 0.96 0 0.8 0.96 0 0.84 0.96 0 0.88 0.96 0 0.92 0.96 0 0.96 0.96 0 1 0.96 0 1.04 0.96 0 1.08 0.96 0 1.12 0.96 0 1.16 0.96 0 1.2 0.96 0 0 1 0 0.04 1 0 0.08 1 0 0.12 1 0 0.16 1 0 0.2 1 0 0.24 1 0 0.28 1 0 0.32 1 0 0.36 1 0 0.4 1 0 0.44 1 0 0.48 1 0 0.52 1 0 0.56 1 0 0.6 1 0 0.64 1 0 0.68 1 0 0.72 1 0 0.76 1 0 0.8 1 0 0.84 1 0 0.88 1 0 0.92 1 0 0.96 1 0 1 1 0 1.04 1 0 1.08 1 0 1.12 1 0 1.16 1 0 1.2 1 0 0 1.04 0 0.04 1.04 0 0.08 1.04 0 0.12 1.04 0 0.16 1.04 0 0.2 1.04 0 0.24 1.04 0 0.28 1.04 0 0.32 1.04 0 0.36 1.04 0 0.4 1.04 0 0.44 1.04 0 0.48 1.04 0 0.52 1.04 0 0.56 1.04 0 0.6 1.04 0 0.64 1.04 0 0.68 1.04 0 0.72 1.04 0 0.76 1.04 0 0.8 1.04 0 0.84 1.04 0 0.88 1.04 0 0.92 1.04 0 0.96 1.04 0 1 1.04 0 1.04 1.04 0 1.08 1.04 0 1.12 1.04 0 1.16 1.04 0 1.2 1.04 0 0 1.08 0 0.04 1.08 0 0.08 1.08 0 0.12 1.08 0 0.16 1.08 0 0.2 1.08 0 0.24 1.08 0 0.28 1.08 0 0.32 1.08 0 0.36 1.08 0 0.4 1.08 0 0.44 1.08 0 0.48 1.08 0 0.52 1.08 0 0.56 1.08 0 0.6 1.08 0 0.64 1.08 0 0.68 1.08 0 0.72 1.08 0 0.76 1.08 0 0.8 1.08 0 0.84 1.08 0 0.88 1.08 0 0.92 1.08 0 0.96 1.08 0 1 1.08 0 1.04 1.08 0 1.08 1.08 0 1.12 1.08 0 1.16 1.08 0 1.2 1.08 0 0 1.12 0 
[...]
			<PointData Scalars="VitesseX">
				<DataArray Name="VitesseX" type="Float32" format="ascii">
 0 -0.0592095 -0.100173 -0.0276469 0.11309 0.266374 0.368097 0.394062 0.357431 0.310343 0.267077 0.242956 0.245976 0.271194 0.310334 0.355195 0.400327 0.445059 0.474748 0.396224 0.0249187 -0.47348 -0.721971 -0.699674 -0.599843 -0.504554 -0.408181 -0.309119 -0.207071 -0.102637 0 0 0.0592111 0.0548125 0.0900499 0.172568 0.267611 0.33805 0.337636 0.296952 0.253727 0.227223 0.218806 0.230165 0.260397 0.303017 0.350209 0.397125 0.442526 0.472539 0.396023 0.0287917 -0.468947 -0.719702 -0.700247 -0.600384 -0.505161 -0.408812 -0.309667 -0.207419 -0.102768 0 0 -0.0141827 -0.01483 -0.0220493 -0.0176962 0.00550441 0.0369568 0.0720901 0.0989505 0.113251 0.125868 0.148334 0.182378 0.227776 0.280462 0.334539 0.386088 0.433579 0.464998 0.394935 0.0404264 -0.454421 -0.711561 -0.700789 -0.600682 -0.505525 -0.409269 -0.310132 -0.207811 -0.102987 0 0 -0.094962 -0.148252 -0.165676 -0.175578 -0.18455 -0.175115 -0.136359 -0.082736 -0.0326424 0.0142459 0.0639174 0.11903 0.178158 0.240601 0.303248 0.361688 0.41316 0.448433 0.389734 0.0576656 -0.429719 -0.69655 -0.701512 -0.601012 -0.505841 -0.409706 -0.310683 -0.208369 -0.103321 0 0 -0.133622 -0.203009 -0.23091 -0.249482 -0.265747 -0.26717 -0.234956 -0.180303 -0.119833 -0.0624802 -0.00477348 0.0552793 0.118003 0.184907 0.253869 0.318457 0.375298 0.417409 0.375194 0.0767354 -0.394195 -0.673325 -0.701409 -0.601536 -0.506252 -0.410256 -0.311424 -0.209116 -0.103771 0 0 -0.126511 -0.203864 -0.241543 -0.26118 -0.273195 -0.278058 -0.262711 -0.223262 -0.170968 -0.112488 -0.0552116 0.00183529 0.0607016 0.12293 0.190019 0.258329 0.319407 0.368935 0.346683 0.0935216 -0.346953 -0.639631 -0.697491 -0.602201 -0.506763 -0.410887 -0.312282 -0.20999 -0.104257 0 0 -0.0900016 -0.155445 -0.192685 -0.20528 -0.213357 -0.224333 -0.230936 -0.221452 -0.189215 -0.142338 -0.0908325 -0.0395868 0.0120565 0.0658016 0.124864 0.18838 0.250054 0.303248 0.300699 0.103301 -0.287981 -0.591524 -0.683901 -0.602878 -0.50734 -0.411547 -0.313209 -0.210988 -0.104784 0 0 -0.018173 -0.0360176 -0.0630342 -0.0931335 -0.119108 -0.138253 -0.156107 -0.172624 -0.173808 -0.150394 -0.112845 -0.0711862 -0.0282492 0.0158669 0.0645092 0.11872 0.175231 0.224615 0.235767 0.10098 -0.220449 -0.523336 -0.651183 -0.602967 -0.507972 -0.412209 -0.314191 -0.212145 -0.105442 0 0 0.0515047 0.0738449 0.04771 0.00212474 -0.0434971 -0.0751055 -0.097416 -0.118117 -0.13589 -0.14024 -0.124954 -0.0965552 -0.0638628 -0.0287443 0.00879273 0.0524016 0.101222 0.141487 0.155059 0.0801061 -0.152325 -0.431127 -0.589024 -0.597165 -0.508215 -0.412855 -0.315225 -0.213488 -0.106365 0 0 0.0628717 0.0999794 0.0881854 0.0467168 -0.00273753 -0.0475768 -0.072687 -0.0891928 -0.110226 -0.128863 -0.133582 -0.122285 -0.0989007 -0.0723174 -0.043953 -0.010941 0.0276265 0.0591737 0.0654184 0.0352088 -0.0965261 -0.318457 -0.49756 -0.56459 -0.506213 -0.413438 -0.316284 -0.21498 -0.107575 0 0 0.0581434 0.089477 0.0789023 0.0418484 -0.00465061 -0.050753 -0.0895712 -0.110702 -0.123948 -0.141212 -0.15657 -0.159065 -0.147116 -0.124002 -0.0994335 -0.0732109 -0.0470006 -0.0254766 -0.0260744 -0.0333908 -0.0723063 -0.203808 -0.377035 -0.486316 -0.492472 -0.412543 -0.317236 -0.216518 -0.108968 0 0 0.0408653 0.0574753 0.0428419 0.00399348 -0.0440501 -0.0923331 -0.134743 -0.166734 -0.183818 -0.195299 -0.208188 -0.219278 -0.217812 -0.198948 -0.168832 -0.143751 -0.122827 -0.113455 -0.115193 -0.117632 -0.095786 -0.114091 -0.234129 -0.367989 -0.438314 -0.405399 -0.317378 -0.217896 -0.110395 0 0 0.0141627 0.0128944 -0.0123399 -0.0568405 -0.107052 -0.154553 -0.196737 -0.230403 -0.255244 -0.271457 -0.283758 -0.294698 -0.302699 -0.298515 -0.275747 -0.239948 -0.216128 -0.204926 -0.202944 -0.199795 -0.165973 -0.082425 -0.10039 -0.219538 -0.330154 -0.37016 -0.313702 -0.218664 -0.111747 0 0 -0.0123876 -0.0342518 -0.0740819 -0.125507 -0.178854 -0.225856 -0.263195 -0.293202 -0.319681 -0.344749 -0.364719 -0.379862 -0.391565 -0.398371 -0.393463 -0.373053 -0.339384 -0.315066 -0.298837 -0.276902 -0.247908 -0.113448 -0.0223767 -0.0636014 -0.184267 -0.278682 -0.29127 -0.216794 -0.112725 0 0 -0.0332568 -0.0749683 -0.12719 -0.188118 -0.245564 -0.291418 -0.324689 -0.34919 -0.371066 -0.398352 -0.431004 -0.459137 -0.480464 -0.497318 -0.507123 -0.506574 -0.490261 -0.458566 -0.41463 -0.36556 -0.307147 -0.190397 -0.0204581 0.047694 -0.0186124 -0.138668 -0.218223 -0.202761 -0.112103 0 0 -0.0495531 -0.103906 -0.169618 -0.23734 -0.295365 -0.338693 -0.369255 -0.390455 -0.408688 -0.431541 -0.468166 -0.513391 -0.555057 -0.587865 -0.615158 -0.632266 -0.635063 -0.606917 -0.554371 -0.476744 -0.356865 -0.251415 -0.089269 0.0802359 0.114892 0.0305994 -0.0868054 -0.146845 -0.104115 0 0 -0.0610596 -0.122951 -0.183938 -0.243621 -0.297334 -0.341587 -0.376171 -0.403028 -0.424715 -0.447481 -0.481652 -0.536324 -0.596472 -0.65519 -0.706042 -0.743691 -0.758737 -0.742638 -0.689632 -0.58783 -0.436052 -0.284455 -0.16631 0.0303551 0.173734 0.180288 0.0838312 -0.0285804 -0.0620789 0 0 -0.0688174 -0.127472 -0.179892 -0.229168 -0.274344 -0.314053 -0.348099 -0.378951 -0.40977 -0.441722 -0.479189 -0.528179 -0.605419 -0.686878 -0.760053 -0.82095 -0.853789 -0.854518 -0.797257 -0.680785 -0.52934 -0.343732 -0.1939 -0.068969 0.151232 0.260429 0.244469 0.136832 0.0416729 0 0 -0.0695899 -0.121269 -0.158598 -0.190528 -0.221295 -0.254175 -0.289231 -0.325508 -0.365968 -0.411418 -0.458525 -0.515404 -0.579593 -0.669716 -0.77054 -0.854362 -0.905606 -0.915906 -0.864165 -0.75155 -0.607059 -0.430621 -0.232749 -0.114153 0.0542113 0.260935 0.334138 0.293919 0.190165 0 0 -0.0590519 -0.0973616 -0.115989 -0.129969 -0.146834 -0.176893 -0.220374 -0.26847 -0.317284 -0.369266 -0.424778 -0.481109 -0.550797 -0.630772 -0.721596 -0.814496 -0.887725 -0.916698 -0.888899 -0.794418 -0.662308 -0.509843 -0.322791 -0.123165 -0.0328425 0.179016 0.34427 0.360293 0.298935 0 0 -0.0272499 -0.0499399 -0.0585413 -0.0621133 -0.0753405 -0.107351 -0.16042 -0.22697 -0.288413 -0.339438 -0.38698 -0.438674 -0.50405 -0.57924 -0.660245 -0.739934 -0.803158 -0.837026 -0.839538 -0.804091 -0.699466 -0.564984 -0.403833 -0.196159 -0.0612431 0.0637909 0.269056 0.333858 0.302087 0 0 0.0103579 -0.000253991 -0.0134576 -0.0208007 -0.0333474 -0.0605867 -0.112543 -0.186155 -0.26031 -0.318371 -0.362467 -0.406162 -0.445833 -0.508834 -0.580932 -0.642303 -0.698946 -0.742425 -0.763633 -0.752053 -0.705547 -0.606415 -0.472916 -0.327393 -0.105219 -0.0233321 0.118532 0.222003 0.220863 0 0 0.0166471 0.00901678 0.00377347 -0.00733484 -0.0117724 -0.0264457 -0.0657411 -0.125924 -0.195959 -0.265095 -0.328422 -0.380969 -0.413868 -0.437354 -0.480955 -0.545216 -0.596393 -0.636433 -0.674303 -0.691407 -0.675416 -0.637044 -0.547155 -0.434629 -0.261958 -0.12135 -0.0497969 0.0461743 0.0984304 0 0 -0.000358501 -0.00769638 -0.00389896 -0.00833589 0.00326184 -0.000373735 -0.0206806 -0.050501 -0.0944092 -0.156834 -0.238469 -0.321471 -0.385919 -0.412034 -0.416873 -0.434989 -0.484881 -0.548312 -0.579605 -0.604319 -0.638865 -0.657865 -0.633429 -0.553201 -0.474344 -0.302433 -0.21317 -0.140283 -0.0265027 0 0 -0.0172658 -0.0176524 -0.0217997 -0.0132908 0.00778884 0.00911777 0.00479227 0.00601164 0.00048407 -0.0370389 -0.107599 -0.204492 -0.303533 -0.379634 -0.404763 -0.398546 -0.392771 -0.421482 -0.475592 -0.540447 -0.587325 -0.641174 -0.704587 -0.700772 -0.651666 -0.514823 -0.369554 -0.271797 -0.14152 0 0 -0.0279373 -0.0285716 -0.0377604 -0.025924 -0.00870254 -0.00804692 0.000964246 0.0233088 0.0468623 0.041605 -0.00111219 -0.0754696 -0.173947 -0.279864 -0.362496 -0.395954 -0.38824 -0.36259 -0.370212 -0.42927 -0.519533 -0.631592 -0.732948 -0.779852 -0.747402 -0.640069 -0.479235 -0.344232 -0.22191 0 0 -0.03059 -0.0459864 -0.0469662 -0.0452885 -0.0327216 -0.0287372 -0.019562 0.0054055 0.0361018 0.054719 0.0429946 0.00574299 -0.0589807 -0.147498 -0.25246 -0.340909 -0.387321 -0.387384 -0.366371 -0.363754 -0.433651 -0.595431 -0.731263 -0.785383 -0.757174 -0.664786 -0.525731 -0.378683 -0.253313 0 0 -0.0468435 -0.0609082 -0.0785978 -0.0638755 -0.0563375 -0.0461575 -0.0350278 -0.0130864 0.00701601 0.0146165 0.0100866 0.00338296 -0.012056 -0.052349 -0.128175 -0.231622 -0.328923 -0.392306 -0.409407 -0.412924 -0.448257 -0.562907 -0.691565 -0.742196 -0.714264 -0.639868 -0.530101 -0.394403 -0.239553 0 0 -0.0621358 -0.13052 -0.101656 -0.0874678 -0.0698554 -0.0626999 -0.039025 -0.022572 -0.0111921 -0.0184985 -0.0317619 -0.0401392 -0.0392582 -0.043864 -0.0712861 -0.141411 -0.248143 -0.362679 -0.450297 -0.512665 -0.565202 -0.635467 -0.694861 -0.700336 -0.650998 -0.574766 -0.50504 -0.402354 -0.195328 0 0 -0.37631 -0.163452 -0.107967 -0.092954 -0.0862941 -0.0613662 -0.0405665 -0.0174429 -0.015397 -0.032339 -0.0532891 -0.0640176 -0.0642583 -0.0586998 -0.0580369 -0.0899578 -0.185322 -0.350784 -0.549009 -0.716048 -0.821665 -0.864421 -0.856351 -0.763685 -0.600633 -0.451934 -0.357465 -0.301405 -0.268355 0 0 0 0 0 0 0 0 0 0 0 0 0 0 0 0 0 0 0 0 0 0 0 0 0 0 0 0 0 0 0 0
				</DataArray>
				<DataArray Name="VitesseY" type="Float32" format="ascii">
 0 0 0 0 0 0 0 0 0 0 0 0 0 0 0 0 0 0 0 0 0 0 0 0 0 0 0 0 0 0 0 -0.0529984 0.0681382 -0.00769219 -0.0849091 -0.123305 -0.109819 -0.0469954 0.0369137 0.0558784 0.049935 0.0355852 0.0129258 -0.011023 -0.0277517 -0.0361223 -0.0360721 -0.0334208 -0.0285359 -0.0229306 -0.0160386 -0.00584249 0.00514987 0.0120629 0.0134162 0.0114251 0.00895164 0.00543615 0.00108393 -0.00225058 -0.00375815 0 -0.0862975 0.0715096 0.00917248 -0.1147 -0.165252 -0.170943 -0.0723204 0.0430096 0.0791064 0.0710839 0.0439848 0.00628763 -0.0337096 -0.064115 -0.0775049 -0.0763653 -0.0694416 -0.0582566 -0.0460646 -0.0322415 -0.0125825 0.00929815 0.023707 0.0269414 0.023069 0.0181605 0.0110722 0.00221733 -0.00452399 -0.00755052 0 -0.00773427 0.117228 0.0324836 -0.0984022 -0.160908 -0.174387 -0.0944877 0.00671386 0.0503289 0.050958 0.020148 -0.0263505 -0.0744054 -0.111778 -0.127695 -0.12396 -0.110522 -0.0911102 -0.0710354 -0.0500471 -0.021848 0.0109625 0.0342722 0.0405786 0.0350495 0.0277307 0.0170283 0.00356745 -0.00665141 -0.0112571 0 0.135359 0.21769 0.0697828 -0.0752858 -0.140598 -0.154386 -0.107327 -0.0362278 0.000377064 0.00581 -0.0233772 -0.0746439 -0.125715 -0.166509 -0.185975 -0.179242 -0.15855 -0.129945 -0.101281 -0.0730106 -0.0367803 0.00762207 0.0419817 0.0535087 0.0473641 0.0376932 0.0234981 0.00534834 -0.00848803 -0.014736 0 0.29797 0.330288 0.119046 -0.043862 -0.118782 -0.132834 -0.107569 -0.0684155 -0.0463415 -0.0448133 -0.0731382 -0.124431 -0.177884 -0.220735 -0.245351 -0.239798 -0.213701 -0.176621 -0.140348 -0.105695 -0.0619712 -0.00482531 0.043875 0.0643668 0.0601069 0.0481987 0.0307685 0.00780459 -0.00993589 -0.017977 0 0.432205 0.427846 0.179602 -0.0143809 -0.100934 -0.11552 -0.0940687 -0.0756594 -0.0729151 -0.0874982 -0.120423 -0.170914 -0.224685 -0.269846 -0.298095 -0.299505 -0.273139 -0.230461 -0.189143 -0.15094 -0.102115 -0.0319424 0.0354555 0.0706881 0.0732512 0.0592888 0.0389442 0.0110843 -0.0109677 -0.0210934 0 0.504262 0.479419 0.226777 0.0181106 -0.0754913 -0.0919327 -0.0725568 -0.057793 -0.0686878 -0.107646 -0.15565 -0.209946 -0.264256 -0.311014 -0.342286 -0.352601 -0.330853 -0.288001 -0.244211 -0.20782 -0.159116 -0.0788309 0.0104824 0.0694676 0.085494 0.0710035 0.0481181 0.0154005 -0.0114497 -0.0241033 0 0.502166 0.463566 0.253605 0.0598197 -0.0264078 -0.0544308 -0.0443047 -0.0308846 -0.0433349 -0.0990852 -0.168688 -0.23571 -0.294981 -0.343581 -0.378581 -0.395752 -0.383236 -0.345221 -0.300818 -0.269275 -0.228402 -0.147208 -0.0373408 0.0528087 0.0906672 0.0831514 0.0584152 0.0210702 -0.011084 -0.0267666 0 0.453749 0.413109 0.26006 0.106648 0.0290772 0.000484621 -0.00767586 -0.00503891 -0.0169205 -0.0719869 -0.158756 -0.242949 -0.315041 -0.369165 -0.407677 -0.429488 -0.428809 -0.39986 -0.358298 -0.326479 -0.298234 -0.230613 -0.111826 0.00727984 0.0781626 0.0944536 0.0698657 0.0284464 -0.00944445 -0.0286431 0 0.399816 0.361272 0.258789 0.145623 0.0839022 0.0569342 0.0418995 0.0244525 0.00599564 -0.0463382 -0.135254 -0.233887 -0.322269 -0.390172 -0.433171 -0.458303 -0.46746 -0.449986 -0.415869 -0.38052 -0.356225 -0.312406 -0.208355 -0.0696885 0.042803 0.0926512 0.0814274 0.0379087 -0.00610525 -0.0293065 0 0.351021 0.326573 0.260968 0.184047 0.136771 0.113811 0.0946102 0.0677446 0.0300874 -0.0267076 -0.113455 -0.216311 -0.318351 -0.404165 -0.462073 -0.490371 -0.502604 -0.496621 -0.470183 -0.435291 -0.402876 -0.375901 -0.307372 -0.173136 -0.0296694 0.0644488 0.0894572 0.0490913 -0.000831897 -0.0285081 0 0.32454 0.313523 0.274142 0.226253 0.193356 0.170821 0.148266 0.113104 0.0639262 -0.00576747 -0.0952178 -0.200965 -0.308127 -0.408824 -0.486783 -0.532512 -0.547533 -0.543369 -0.526531 -0.488996 -0.447635 -0.421815 -0.384421 -0.283449 -0.133483 0.00126309 0.0725357 0.0600314 0.00618396 -0.026267 0 0.328549 0.323333 0.303073 0.277801 0.253221 0.229525 0.198629 0.15601 0.0976598 0.0232788 -0.0743231 -0.185626 -0.297864 -0.405359 -0.501167 -0.570619 -0.605687 -0.607732 -0.5867 -0.551827 -0.499366 -0.449898 -0.422612 -0.371142 -0.250064 -0.0968394 0.019512 0.0569708 0.0128782 -0.022978 0 0.356931 0.355686 0.349344 0.338776 0.319479 0.288601 0.246185 0.1918 0.127575 0.050272 -0.0445479 -0.162844 -0.283031 -0.399947 -0.506757 -0.598017 -0.658825 -0.68543 -0.661232 -0.62193 -0.566689 -0.489483 -0.432479 -0.408934 -0.346501 -0.215819 -0.0714032 0.0195056 0.0112447 -0.0201904 0 0.404226 0.405966 0.409909 0.410802 0.390571 0.346984 0.289728 0.222981 0.149914 0.0722278 -0.0159921 -0.127121 -0.257558 -0.385554 -0.508421 -0.615854 -0.703019 -0.750757 -0.751927 -0.702453 -0.638459 -0.550511 -0.452414 -0.408533 -0.390854 -0.319904 -0.189491 -0.0635745 -0.0177674 -0.0243026 0 0.466779 0.4691 0.478097 0.484253 0.459579 0.403396 0.332297 0.253026 0.171498 0.0900201 0.00650675 -0.0905457 -0.216526 -0.360487 -0.496585 -0.625638 -0.732598 -0.802194 -0.829768 -0.783781 -0.704128 -0.611043 -0.506735 -0.408691 -0.388146 -0.375451 -0.29975 -0.179659 -0.0934689 -0.0595787 0 0.542549 0.539721 0.544741 0.548194 0.520304 0.455309 0.373114 0.284328 0.196079 0.110405 0.0263308 -0.0629568 -0.176875 -0.317474 -0.47322 -0.618596 -0.74056 -0.830227 -0.877464 -0.850339 -0.76407 -0.663448 -0.567263 -0.451298 -0.373955 -0.376349 -0.366709 -0.295894 -0.210572 -0.15754 0 0.624792 0.611296 0.600857 0.599426 0.566444 0.495507 0.409331 0.314111 0.222505 0.134557 0.0462342 -0.0451377 -0.150491 -0.277337 -0.431769 -0.582647 -0.719517 -0.829585 -0.887605 -0.878487 -0.802722 -0.708378 -0.609045 -0.520662 -0.396981 -0.351436 -0.376187 -0.374549 -0.3395 -0.327919 0 0.706303 0.67761 0.637886 0.62561 0.587947 0.519614 0.439383 0.342747 0.242314 0.149447 0.0580053 -0.0374982 -0.135055 -0.24685 -0.378822 -0.523652 -0.663708 -0.774317 -0.839701 -0.862657 -0.80872 -0.733429 -0.647758 -0.561733 -0.455545 -0.354501 -0.359114 -0.401908 -0.438757 -0.534291 0 0.715998 0.678808 0.610871 0.591541 0.551938 0.490812 0.424377 0.338852 0.239143 0.142193 0.0499484 -0.0378935 -0.123296 -0.215353 -0.32475 -0.448889 -0.565223 -0.661686 -0.735317 -0.775824 -0.781037 -0.731068 -0.670115 -0.588359 -0.527361 -0.415702 -0.355899 -0.40794 -0.507346 -0.709237 0 0.521559 0.484968 0.388036 0.36266 0.324995 0.279924 0.24332 0.199871 0.144236 0.0920549 0.0414046 -0.0256303 -0.111925 -0.190199 -0.255047 -0.33225 -0.428147 -0.519997 -0.59413 -0.650878 -0.687498 -0.690893 -0.662193 -0.625863 -0.578044 -0.511596 -0.425933 -0.444089 -0.563037 -0.819539 0 0.0191982 0.00797685 -0.0755534 -0.102145 -0.131565 -0.145993 -0.140733 -0.125021 -0.102405 -0.0677238 -0.024155 -0.00271199 -0.0224962 -0.0917701 -0.175579 -0.22063 -0.263345 -0.342286 -0.426781 -0.502199 -0.55841 -0.599517 -0.627757 -0.647515 -0.634473 -0.62647 -0.590448 -0.559482 -0.634088 -0.86411 0 -0.412298 -0.398228 -0.438049 -0.448539 -0.47225 -0.468931 -0.453089 -0.425905 -0.374464 -0.292214 -0.183913 -0.0682391 0.0166942 0.0426314 0.00259346 -0.0923664 -0.153792 -0.173751 -0.230049 -0.324996 -0.397896 -0.467161 -0.545833 -0.631081 -0.699604 -0.729725 -0.729471 -0.689624 -0.694161 -0.856692 0 -0.506753 -0.492159 -0.512971 -0.518425 -0.544354 -0.547986 -0.551552 -0.544398 -0.51316 -0.44422 -0.342865 -0.216377 -0.0737818 0.0473239 0.109744 0.104459 0.0252795 -0.0715626 -0.101935 -0.113672 -0.199353 -0.329006 -0.430876 -0.550437 -0.700096 -0.778702 -0.784467 -0.741763 -0.700189 -0.764298 0 -0.378674 -0.377243 -0.408966 -0.422205 -0.449182 -0.463039 -0.479105 -0.486055 -0.483069 -0.468069 -0.420566 -0.333257 -0.216519 -0.072717 0.0720102 0.168411 0.196743 0.151499 0.0463112 -0.0316648 -0.0549611 -0.103012 -0.264353 -0.475057 -0.650604 -0.746689 -0.756851 -0.714397 -0.651248 -0.60104 0 -0.235957 -0.255394 -0.300815 -0.325332 -0.354791 -0.373437 -0.39019 -0.394207 -0.39307 -0.388655 -0.384213 -0.366449 -0.309076 -0.206819 -0.0665529 0.0943338 0.220329 0.279383 0.265076 0.173398 0.060755 -0.0226522 -0.120276 -0.303254 -0.515831 -0.640429 -0.664892 -0.640066 -0.575052 -0.452192 0 -0.0756883 -0.133435 -0.187188 -0.224182 -0.267492 -0.282563 -0.298366 -0.300444 -0.298446 -0.295149 -0.296948 -0.302846 -0.303111 -0.271738 -0.185352 -0.0477323 0.123483 0.271026 0.347388 0.349621 0.267495 0.115258 -0.0511713 -0.213554 -0.369947 -0.479651 -0.526006 -0.5303 -0.505245 -0.357646 0 0.0535932 0.0490254 -0.0907695 -0.136316 -0.183535 -0.192078 -0.205456 -0.206233 -0.198814 -0.195152 -0.198788 -0.208573 -0.217216 -0.221239 -0.205189 -0.138748 -0.0109874 0.158844 0.309603 0.367652 0.336481 0.221601 0.0441203 -0.141822 -0.272471 -0.344479 -0.378808 -0.394488 -0.402431 -0.301507 0 0.646715 0.0991721 -0.0733898 -0.0573804 -0.100075 -0.0924355 -0.123223 -0.102228 -0.101474 -0.090872 -0.0951683 -0.102193 -0.111771 -0.116724 -0.118254 -0.109732 -0.0629301 0.0481766 0.200611 0.305255 0.30387 0.220026 0.0971579 -0.0273555 -0.14193 -0.222041 -0.25335 -0.239573 -0.195347 -0.268389 0 5.45919 0 0 0 0 0 0 0 0 0 0 0 0 0 0 0 0 0 0 0 0 0 0 0 0 0 0 0 0 0 0
				</DataArray>
			</PointData>
			<CellData Scalars="Density">
				<DataArray Name="Density" type="Float32" format="ascii">