<?xml version="1.0"?>
<VTKFile type="PolyData">
	<PolyData>
		<Piece NumberOfPoints="961" NumberOfPolys="900">
			<Points>
				<DataArray type="Float32" NumberOfComponents="3" format="ascii">
 0 0 0 0.04 0 0 0.08 0 0 0.12 0 0 0.16 0 0 0.2 0 0 0.24 0 0 0.28 0 0 0.32 0 0 0.36 0 0 0.4 0 0 0.44 0 0 0.48 0 0 0.52 0 0 0.56 0 0 0.6 0 0 0.64 0 0 0.68 0 0 0.72 0 0 0.76 0 0 0.8 0 0 0.84 0 0 0.88 0 0 0.92 0 0 0.96 0 0 1 0 0 1.04 0 0 1.08 0 0 1.12 0 0 1.16 0 0 1.2 0 0 0 0.04 0 0.04 0.04 0 0.08 0.04 0 0.12 0.04 0 0.16 0.04 0 0.2 0.04 0 0.24 0.04 0 0.28 0.04 0 0.32 0.04 0 0.36 0.04 0 0.4 0.04 0 0.44 0.04 0 0.48 0.04 0 0.52 0.04 0 0.56 0.04 0 0.6 0.04 0 0.64 0.04 0 0.68 0.04 0 0.72 0.04 0 0.76 0.04 0 0.8 0.04 0 0.84 0.04 0 0.88 0.04 0 0.92 0.04 0 0.96 0.04 0 1 0.04 0 1.04 0.04 0 1.08 0.04 0 1.12 0.04 0 1.16 0.04 0 1.2 0.04 0 0 0.08 0 0.04 0.08 0 0.08 0.08 0 0.12 0.08 0 0.16 0.08 0 0.2 0.08 0 0.24 0.08 0 0.28 0.08 0 0.32 0.08 0 0.36 0.08 0 0.4 0.08 0 0.44 0.08 0 0.48 0.08 0 0.52 0.08 0 0.56 0.08 0 0.6 0.08 0 0.64 0.08 0 0.68 0.08 0 0.72 0.08 0 0.76 0.08 0 0.8 0.08 0 0.84 0.08 0 0.88 0.08 0 0.92 0.08 0 0.96 0.08 0 1 0.08 0 1.04 0.08 0 1.08 0.08 0 1.12 0.08 0 1.16 0.08 0 1.2 0.08 0 0 0.12 0 0.04 0.12 0 0.08 0.12 0 0.12 0.12 0 0.16 0.12 0 0.2 0.12 0 0.24 0.12 0 0.28 0.12 0 0.32 0.12 0 0.36 0.12 0 0.4 0.12 0 0.44 0.12 0 0.48 0.12 0 0.52 0.12 0 0.56 0.12 0 0.6 0.12 0 0.64 0.12 0 0.68 0.12 0 0.72 0.12 0 0.76 0.12 0 0.8 0.12 0 0.84 0.12 0 0.88 0.12 0 0.92 0.12 0 0.96 0.12 0 1 0.12 0 1.04 0.12 0 1.08 0.12 0 1.12 0.12 0 1.16 0.12 0 1.2 0.12 0 0 0.16 0 0.04 0.16 0 0.08 0.16 0 0.12 0.16 0 0.16 0.16 0 0.2 0.16 0 0.24 0.16 0 0.28 0.16 0 0.32 0.16 0 0.36 0.16 0 0.4 0.16 0 0.44 0.16 0 0.48 0.16 0 0.52 0.16 0 0.56 0.16 0 0.6 0.16 0 0.64 0.16 0 0.68 0.16 0 0.72 0.16 0 0.76 0.16 0 0.8 0.16 0 0.84 0.16 0 0.88 0.16 0 0.92 0.16 0 0.96 0.16 0 1 0.16 0 1.04 0.16 0 1.08 0.16 0 1.12 0.16 0 1.16 0.16 0 1.2 0.16 0 0 0.2 0 0.04 0.2 0 0.08 0.2 0 0.12 0.2 0 0.16 0.2 0 0.2 0.2 0 0.24 0.2 0 0.28 0.2 0 0.32 0.2 0 0.36 0.2 0 0.4 0.2 0 0.44 0.2 0 0.48 0.2 0 0.52 0.2 0 0.56 0.2 0 0.6 0.2 0 0.64 0.2 0 0.68 0.2 0 0.72 0.2 0 0.76 0.2 0 0.8 0.2 0 0.84 0.2 0 0.88 0.2 0 0.92 0.2 0 0.96 0.2 0 1 0.2 0 1.04 0.2 0 1.08 0.2 0 1.12 0.2 0 1.16 0.2 0 1.2 0.2 0 0 0.24 0 0.04 0.24 0 0.08 0.24 0 0.12 0.24 0 0.16 0.24 0 0.2 0.24 0 0.24 0.24 0 0.28 0.24 0 0.32 0.24 0 0.36 0.24 0 0.4 0.24 0 0.44 0.24 0 0.48 0.24 0 0.52 0.24 0 0.56 0.24 0 0.6 0.24 0 0.64 0.24 0 0.68 0.24 0 0.72 0.24 0 0.76 0.24 0 0.8 0.24 0 0.84 0.24 0 0.88 0.24 0 0.92 0.24 0 0.96 0.24 0 1 0.24 0 1.04 0.24 0 1.08 0.24 0 1.12 0.24 0 1.16 0.24 0 1.2 0.24 0 0 0.28 0 0.04 0.28 0 0.08 0.28 0 0.12 0.28 0 0.16 0.28 0 0.2 0.28 0 0.24 0.28 0 0.28 0.28 0 0.32 0.28 0 0.36 0.28 0 0.4 0.28 0 0.44 0.28 0 0.48 0.28 0 0.52 0.28 0 0.56 0.28 0 0.6 0.28 0 0.64 0.28 0 0.68 0.28 0 0.72 0.28 0 0.76 0.28 0 0.8 0.28 0 0.84 0.28 0 0.88 0.28 0 0.92 0.28 0 0.96 0.28 0 1 0.28 0 1.04 0.28 0 1.08 0.28 0 1.12 0.28 0 1.16 0.28 0 1.2 0.28 0 0 0.32 0 0.04 0.32 0 0.08 0.32 0 0.12 0.32 0 0.16 0.32 0 0.2 0.32 0 0.24 0.32 0 0.28 0.32 0 0.32 0.32 0 0.36 0.32 0 0.4 0.32 0 0.44 0.32 0 0.48 0.32 0 0.52 0.32 0 0.56 0.32 0 0.6 0.32 0 0.64 0.32 0 0.68 0.32 0 0.72 0.32 0 0.76 0.32 0 0.8 0.32 0 0.84 0.32 0 0.88 0.32 0 0.92 0.32 0 0.96 0.32 0 1 0.32 0 1.04 0.32 0 1.08 0.32 0 1.12 0.32 0 1.16 0.32 0 1.2 0.32 0 0 0.36 0 0.04 0.36 0 0.08 0.36 0 0.12 0.36 0 0.16 0.36 0 0.2 0.36 0 0.24 0.36 0 0.28 0.36 0 0.32 0.36 0 0.36 0.36 0 0.4 0.36 0 0.44 0.36 0 0.48 0.36 0 0.52 0.36 0 0.56 0.36 0 0.6 0.36 0 0.64 0.36 0 0.68 0.36 0 0.72 0.36 0 0.76 0.36 0 0.8 0.36 0 0.84 0.36 0 0.88 0.36 0 0.92 0.36 0 0.96 0.36 0 1 0.36 0 1.04 0.36 0 1.08 0.36 0 1.12 0.36 0 1.16 0.36 0 1.2 0.36 0 0 0.4 0 0.04 0.4 0 0.08 0.4 0 0.12 0.4 0 0.16 0.4 0 0.2 0.4 0 0.24 0.4 0 0.28 0.4 0 0.32 0.4 0 0.36 0.4 0 0.4 0.4 0 0.44 0.4 0 0.48 0.4 0 0.52 0.4 0 0.56 0.4 0 0.6 0.4 0 0.64 0.4 0 0.68 0.4 0 0.72 0.4 0 0.76 0.4 0 0.8 0.4 0 0.84 0.4 0 0.88 0.4 0 0.92 0.4 0 0.96 0.4 0 1 0.4 0 1.04 0.4 0 1.08 0.4 0 1.12 0.4 0 1.16 0.4 0 1.2 0.4 0 0 0.44 0 0.04 0.44 0 0.08 0.44 0 0.12 0.44 0 0.16 0.44 0 0.2 0.44 0 0.24 0.44 0 0.28 0.44 0 0.32 0.44 0 0.36 0.44 0 0.4 0.44 0 0.44 0.44 0 0.48 0.44 0 0.52 0.44 0 0.56 0.44 0 0.6 0.44 0 0.64 0.44 0 0.68 0.44 0 0.72 0.44 0 0.76 0.44 0 0.8 0.44 0 0.84 0.44 0 0.88 0.44 0 0.92 0.44 0 0.96 0.44 0 1 0.44 0 1.04 0.44 0 1.08 0.44 0 1.12 0.44 0 1.16 0.44 0 1.2 0.44 0 0 0.48 0 0.04 0.48 0 0.08 0.48 0 0.12 0.48 0 0.16 0.48 0 0.2 0.48 0 0.24 0.48 0 0.28 0.48 0 0.32 0.48 0 0.36 0.48 0 0.4 0.48 0 0.44 0.48 0 0.48 0.48 0 0.52 0.48 0 0.56 0.48 0 0.6 0.48 0 0.64 0.48 0 0.68 0.48 0 0.72 0.48 0 0.76 0.48 0 0.8 0.48 0 0.84 0.48 0 0.88 0.48 0 0.92 0.48 0 0.96 0.48 0 1 0.48 0 1.04 0.48 0 1.08 0.48 0 1.12 0.48 0 1.16 0.48 0 1.2 0.48 0 0 0.52 0 0.04 0.52 0 0.08 0.52 0 0.12 0.52 0 0.16 0.52 0 0.2 0.52 0 0.24 0.52 0 0.28 0.52 0 0.32 0.52 0 0.36 0.52 0 0.4 0.52 0 0.44 0.52 0 0.48 0.52 0 0.52 0.52 0 0.56 0.52 0 0.6 0.52 0 0.64 0.52 0 0.68 0.52 0 0.72 0.52 0 0.76 0.52 0 0.8 0.52 0 0.84 0.52 0 0.88 0.52 0 0.92 0.52 0 0.96 0.52 0 1 0.52 0 1.04 0.52 0 1.08 0.52 0 1.12 0.52 0 1.16 0.52 0 1.2 0.52 0 0 0.56 0 0.04 0.56 0 0.08 0.56 0 0.12 0.56 0 0.16 0.56 0 0.2 0.56 0 0.24 0.56 0 0.28 0.56 0 0.32 0.56 0 0.36 0.56 0 0.4 0.56 0 0.44 0.56 0 0.48 0.56 0 0.52 0.56 0 0.56 0.56 0 0.6 0.56 0 0.64 0.56 0 0.68 0.56 0 0.72 0.56 0 0.76 0.56 0 0.8 0.56 0 0.84 0.56 0 0.88 0.56 0 0.92 0.56 0 0.96 0.56 0 1 0.56 0 1.04 0.56 0 1.08 0.56 0 1.12 0.56 0 1.16 0.56 0 1.2 0.56 0 0 0.6 0 0.04 0.6 0 0.08 0.6 0 0.12 0.6 0 0.16 0.6 0 0.2 0.6 0 0.24 0.6 0 0.28 0.6 0 0.32 0.6 0 0.36 0.6 0 0.4 0.6 0 0.44 0.6 0 0.48 0.6 0 0.52 0.6 0 0.56 0.6 0 0.6 0.6 0 0.64 0.6 0 0.68 0.6 0 0.72 0.6 0 0.76 0.6 0 0.8 0.6 0 0.84 0.6 0 0.88 0.6 0 0.92 0.6 0 0.96 0.6 0 1 0.6 0 1.04 0.6 0 1.08 0.6 0 1.12 0.6 0 1.16 0.6 0 1.2 0.6 0 0 0.64 0 0.04 0.64 0 0.08 0.64 0 0.12 0.64 0 0.16 0.64 0 0.2 0.64 0 0.24 0.64 0 0.28 0.64 0 0.32 0.64 0 0.36 0.64 0 0.4 0.64 0 0.44 0.64 0 0.48 0.64 0 0.52 0.64 0 0.56 0.64 0 0.6 0.64 0 0.64 0.64 0 0.68 0.64 0 0.72 0.64 0 0.76 0.64 0 0.8 0.64 0 0.84 0.64 0 0.88 0.64 0 0.92 0.64 0 0.96 0.64 0 1 0.64 0 1.04 0.64 0 1.08 0.64 0 1.12 0.64 0 1.16 0.64 0 1.2 0.64 0 0 0.68 0 0.04 0.68 0 0.08 0.68 0 0.12 0.68 0 0.16 0.68 0 0.2 0.68 0 0.24 0.68 0 0.28 0.68 0 0.32 0.68 0 0.36 0.68 0 0.4 0.68 0 0.44 0.68 0 0.48 0.68 0 0.52 0.68 0 0.56 0.68 0 0.6 0.68 0 0.64 0.68 0 0.68 0.68 0 0.72 0.68 0 0.76 0.68 0 0.8 0.68 0 0.84 0.68 0 0.88 0.68 0 0.92 0.68 0 0.96 0.68 0 1 0.68 0 1.04 0.68 0 1.08 0.68 0 1.12 0.68 0 1.16 0.68 0 1.2 0.68 0 0 0.72 0 0.04 0.72 0 0.08 0.72 0 0.12 0.72 0 0.16 0.72 0 0.2 0.72 0 0.24 0.72 0 0.28 0.72 0 0.32 0.72 0 0.36 0.72 0 0.4 0.72 0 0.44 0.72 0 0.48 0.72 0 0.52 0.72 0 0.56 0.72 0 0.6 0.72 0 0.64 0.72 0 0.68 0.72 0 0.72 0.72 0 0.76 0.72 0 0.8 0.72 0 0.84 0.72 0 0.88 0.72 0 0.92 0.72 0 0.96 0.72 0 1 0.72 0 1.04 0.72 0 1.08 0.72 0 1.12 0.72 0 1.16 0.72 0 1.2 0.72 0 0 0.76 0 0.04 0.76 0 0.08 0.76 0 0.12 0.76 0 0.16 0.76 0 0.2 0.76 0 0.24 0.76 0 0.28 0.76 0 0.32 0.76 0 0.36 0.76 0 0.4 0.76 0 0.44 0.76 0 0.48 0.76 0 0.52 0.76 0 0.56 0.76 0 0.6 0.76 0 0.64 0.76 0 0.68 0.76 0 0.72 0.76 0 0.76 0.76 0 0.8 0.76 0 0.84 0.76 0 0.88 0.76 0 0.92 0.76 0 0.96 0.76 0 1 0.76 0 1.04 0.76 0 1.08 0.76 0 1.12 0.76 0 1.16 0.76 0 1.2 0.76 0 0 0.8 0 0.04 0.8 0 0.08 0.8 0 0.12 0.8 0 0.16 0.8 0 0.2 0.8 0 0.24 0.8 0 0.28 0.8 0 0.32 0.8 0 0.36 0.8 0 0.4 0.8 0 0.44 0.8 0 0.48 0.8 0 0.52 0.8 0 0.56 0.8 0 0.6 0.8 0 0.64 0.8 0 0.68 0.8 0 0.72 0.8 0 0.76 0.8 0 0.8 0.8 0 0.84 0.8 0 0.88 0.8 0 0.92 0.8 0 0.96 0.8 0 1 0.8 0 1.04 0.8 0 1.08 0.8 0 1.12 0.8 0 1.16 0.8 0 1.2 0.8 0 0 0.84 0 0.04 0.84 0 0.08 0.84 0 0.12 0.84 0 0.16 0.84 0 0.2 0.84 0 0.24 0.84 0 0.28 0.84 0 0.32 0.84 0 0.36 0.84 0 0.4 0.84 0 0.44 0.84 0 0.48 0.84 0 0.52 0.84 0 0.56 0.84 0 0.6 0.84 0 0.64 0.84 0 0.68 0.84 0 0.72 0.84 0 0.76 0.84 0 0.8 0.84 0 0.84 0.84 0 0.88 0.84 0 0.92 0.84 0 0.96 0.84 0 1 0.84 0 1.04 0.84 0 1.08 0.84 0 1.12 0.84 0 1.16 0.84 0 1.2 0.84 0 0 0.88 0 0.04 0.88 0 0.08 0.88 0 0.12 0.88 0 0.16 0.88 0 0.2 0.88 0 0.24 0.88 0 0.28 0.88 0 0.32 0.88 0 0.36 0.88 0 0.4 0.88 0 0.44 0.88 0 0.48 0.88 0 0.52 0.88 0 0.56 0.88 0 0.6 0.88 0 0.64 0.88 0 0.68 0.88 0 0.72 0.88 0 0.76 0.88 0 0.8 0.88 0 0.84 0.88 0 0.88 0.88 0 0.92 0.88 0 0.96 0.88 0 1 0.88 0 1.04 0.88 0 1.08 0.88 0 1.12 0.88 0 1.16 0.88 0 1.2 0.88 0 0 0.92 0 0.04 0.92 0 0.08 0.92 0 0.12 0.92 0 0.16 0.92 0 0.2 0.92 0 0.24 0.92 0 0.28 0.92 0 0.32 0.92 0 0.36 0.92 0 0.4 0.92 0 0.44 0.92 0 0.48 0.92 0 0.52 0.92 0 0.56 0.92 0 0.6 0.92 0 0.64 0.92 0 0.68 0.92 0 0.72 0.92 0 0.76 0.92 0 0.8 0.92 0 0.84 0.92 0 0.88 0.92 0 0.92 0.92 0 0.96 0.92 0 1 0.92 0 1.04 0.92 0 1.08 0.92 0 1.12 0.92 0 1.16 0.92 0 1.2 0.92 0 0 0.96 0 0.04 0.96 0 0.08 0.96 0 0.12 0.96 0 0.16 0.96 0 0.2 0.96 0 0.24 0.96 0 0.28 0.96 0 0.32 0.96 0 0.36 0.96 0 0.4 0.96 0 0.44 0.96 0 0.48 0.96 0 0.52 0.96 0 0.56 0.96 0 0.6 0.96 0 0.64 0.96 0 0.68 0.96 0 0.72 0.96 0 0.76 0.96 0 0.8 0.96 0 0.84 0.96 0 0.88 0.96 0 0.92 0.96 0 0.96 0.96 0 1 0.96 0 1.04 0.96 0 1.08 0.96 0 1.12 0.96 0 1.16 0.96 0 1.2 0.96 0 0 1 0 0.04 1 0 0.08 1 0 0.12 1 0 0.16 1 0 0.2 1 0 0.24 1 0 0.28 1 0 0.32 1 0 0.36 1 0 0.4 1 0 0.44 1 0 0.48 1 0 0.52 1 0 0.56 1 0 0.6 1 0 0.64 1 0 0.68 1 0 0.72 1 0 0.76 1 0 0.8 1 0 0.84 1 0 0.88 1 0 0.92 1 0 0.96 1 0 1 1 0 1.04 1 0 1.08 1 0 1.12 1 0 1.16 1 0 1.2 1 0 0 1.04 0 0.04 1.04 0 0.08 1.04 0 0.12 1.04 0 0.16 1.04 0 0.2 1.04 0 0.24 1.04 0 0.28 1.04 0 0.32 1.04 0 0.36 1.04 0 0.4 1.04 0 0.44 1.04 0 0.48 1.04 0 0.52 1.04 0 0.56 1.04 0 0.6 1.04 0 0.64 1.04 0 0.68 1.04 0 0.72 1.04 0 0.76 1.04 0 0.8 1.04 0 0.84 1.04 0 0.88 1.04 0 0.92 1.04 0 0.96 1.04 0 1 1.04 0 1.04 1.04 0 1.08 1.04 0 1.12 1.04 0 1.16 1.04 0 1.2 1.04 0 0 1.08 0 0.04 1.08 0 0.08 1.08 0 0.12 1.08 0 0.16 1.08 0 0.2 1.08 0 0.24 1.08 0 0.28 1.08 0 0.32 1.08 0 0.36 1.08 0 0.4 1.08 0 0.44 1.08 0 0.48 1.08 0 0.52 1.08 0 0.56 1.08 0 0.6 1.08 0 0.64 1.08 0 0.68 1.08 0 0.72 1.08 0 0.76 1.08 0 0.8 1.08 0 0.84 1.08 0 0.88 1.08 0 0.92 1.08 0 0.96 1.08 0 1 1.08 0 1.04 1.08 0 1.08 1.08 0 1.12 1.08 0 1.16 1.08 0 1.2 1.08 0 0 1.12 0 
[...]
			<PointData Scalars="VitesseX">
				<DataArray Name="VitesseX" type="Float32" format="ascii">
 0 -0.0492756 -0.0841319 -0.0109283 0.129845 0.280833 0.38077 0.417386 0.392439 0.356282 0.323802 0.304747 0.312241 0.341843 0.388501 0.443916 0.499417 0.554949 0.609352 0.655367 0.705461 0.738851 0.701782 0.480695 0.0420977 -0.296809 -0.351882 -0.265575 -0.176991 -0.0872747 0 0 0.0626323 0.0694604 0.113168 0.195273 0.286735 0.361751 0.36679 0.331784 0.293731 0.273222 0.27301 0.289263 0.325424 0.377529 0.436358 0.494493 0.551841 0.607283 0.653304 0.703046 0.736304 0.699751 0.48036 0.0436271 -0.295764 -0.352216 -0.265982 -0.177201 -0.0873414 0 0 -0.00030147 0.00408739 0.0026381 0.0105514 0.036363 0.064528 0.0981593 0.126828 0.145553 0.161777 0.186649 0.226614 0.280926 0.346033 0.414074 0.47889 0.540886 0.598936 0.64572 0.695335 0.729057 0.694612 0.48088 0.0500924 -0.290871 -0.351889 -0.266328 -0.17743 -0.087439 0 0 -0.0784925 -0.117186 -0.126029 -0.132494 -0.140445 -0.136365 -0.106777 -0.0546145 -0.0052728 0.0419362 0.0948603 0.155344 0.222822 0.296858 0.373637 0.44613 0.514811 0.577451 0.627208 0.678768 0.714999 0.685056 0.481873 0.0622584 -0.281251 -0.350702 -0.266813 -0.177805 -0.0876523 0 0 -0.116582 -0.170433 -0.187675 -0.201067 -0.214363 -0.215689 -0.186311 -0.137486 -0.0805745 -0.0249627 0.0340917 0.0980527 0.16538 0.237793 0.315593 0.393885 0.468075 0.536253 0.591715 0.648232 0.690101 0.667901 0.481493 0.0805964 -0.265178 -0.347805 -0.267534 -0.178388 -0.0880258 0 0 -0.112054 -0.174219 -0.201088 -0.211129 -0.217293 -0.214879 -0.196558 -0.159154 -0.111965 -0.0559273 0.00154205 0.0599366 0.121321 0.185399 0.255181 0.329647 0.405043 0.476652 0.538272 0.600952 0.650421 0.639094 0.476895 0.105645 -0.239672 -0.340933 -0.268378 -0.179115 -0.0885009 0 0 -0.0837554 -0.140532 -0.15885 -0.15207 -0.141531 -0.142949 -0.143759 -0.134215 -0.102372 -0.0574458 -0.00818525 0.0420138 0.0934162 0.146279 0.20446 0.26944 0.337761 0.406101 0.471103 0.537688 0.593156 0.59436 0.463974 0.137217 -0.200256 -0.325268 -0.268874 -0.179864 -0.0890066 0 0 -0.0263917 -0.0474824 -0.0552612 -0.0455739 -0.0377169 -0.0336283 -0.0428331 -0.0549957 -0.0547418 -0.0321707 0.00263781 0.0411758 0.0804676 0.1213 0.165629 0.217641 0.276314 0.337176 0.399977 0.463215 0.518043 0.530831 0.437583 0.172529 -0.141587 -0.291766 -0.267216 -0.180358 -0.089454 0 0 0.0512512 0.0808085 0.0736192 0.0580539 0.0465345 0.0463342 0.0467477 0.0339865 0.0191942 0.0159297 0.0286234 0.0510576 0.077401 0.10647 0.137581 0.175547 0.222263 0.275797 0.334324 0.387238 0.431308 0.449057 0.392978 0.204967 -0.0620335 -0.230837 -0.253816 -0.179516 -0.089719 0 0 0.0789815 0.133954 0.140883 0.122141 0.100292 0.0855349 0.0864529 0.0896047 0.0772907 0.0600016 0.0537372 0.0609962 0.076233 0.0951808 0.115099 0.141305 0.175657 0.221114 0.272722 0.316551 0.346164 0.356708 0.329479 0.223106 0.0319509 -0.138634 -0.208117 -0.172485 -0.0890603 0 0 0.0777011 0.132553 0.142344 0.126222 0.103622 0.0842782 0.0753209 0.0788773 0.0837177 0.0770083 0.0642775 0.0561836 0.0609898 0.0727752 0.0918689 0.109385 0.133653 0.170464 0.212516 0.249429 0.269279 0.267477 0.253977 0.215831 0.120358 -0.0186578 -0.118271 -0.138883 -0.0836186 0 0 0.0677049 0.1111 0.119372 0.101548 0.0754249 0.0505378 0.0339279 0.0303389 0.0366751 0.0416696 0.0365778 0.0282289 0.0220519 0.0297748 0.0469398 0.0674759 0.0908491 0.120239 0.152209 0.182228 0.197724 0.189048 0.175384 0.180476 0.174254 0.10885 0.00798202 -0.0566721 -0.0535859 0 0 0.0463548 0.0728766 0.0729573 0.0492943 0.0177555 -0.00991524 -0.029804 -0.0379123 -0.0349839 -0.027692 -0.0206108 -0.0219895 -0.0284616 -0.0320868 -0.0242749 -0.00161341 0.0312779 0.0590032 0.0859703 0.110527 0.12488 0.121098 0.098231 0.122831 0.185659 0.198906 0.147109 0.06918 0.025128 0 0 0.0195428 0.0273386 0.0122573 -0.0203288 -0.0556144 -0.084653 -0.102879 -0.11073 -0.110934 -0.105268 -0.0982355 -0.0919046 -0.0899921 -0.0949438 -0.0975625 -0.0843963 -0.0590605 -0.0262741 0.00281669 0.0253674 0.0399518 0.0515682 0.0400065 0.054651 0.15804 0.233254 0.243626 0.201323 0.144883 0 0 -0.00491429 -0.0204249 -0.0509888 -0.0921238 -0.133578 -0.163423 -0.177457 -0.179487 -0.176884 -0.17636 -0.175089 -0.170577 -0.168085 -0.168632 -0.169608 -0.170103 -0.160816 -0.137061 -0.105706 -0.0819544 -0.0633572 -0.041223 -0.00646676 0.011513 0.0986262 0.216609 0.272012 0.267202 0.236892 0 0 -0.0263827 -0.0621557 -0.113107 -0.16996 -0.214701 -0.239 -0.246266 -0.242287 -0.234317 -0.230613 -0.236117 -0.243621 -0.247459 -0.249196 -0.254258 -0.261279 -0.263983 -0.257091 -0.238821 -0.21156 -0.183099 -0.149213 -0.0762519 -0.00419374 0.0520166 0.153012 0.239007 0.252738 0.245911 0 0 -0.0423031 -0.093035 -0.152529 -0.209118 -0.251435 -0.277219 -0.288085 -0.287508 -0.279827 -0.273173 -0.277693 -0.295223 -0.311601 -0.327672 -0.344793 -0.362947 -0.379876 -0.389289 -0.388577 -0.368598 -0.321072 -0.259804 -0.175478 -0.047911 0.0217166 0.0778589 0.141925 0.169781 0.188353 0 0 -0.0536234 -0.108893 -0.164113 -0.213453 -0.252834 -0.278461 -0.291818 -0.297445 -0.298643 -0.299284 -0.30403 -0.320998 -0.353477 -0.389891 -0.42673 -0.466188 -0.508487 -0.546788 -0.56423 -0.549489 -0.495208 -0.399618 -0.289265 -0.162257 -0.045044 -9.61592e-05 0.0151381 0.044743 0.0957053 0 0 -0.0615902 -0.115415 -0.161647 -0.203279 -0.236463 -0.259418 -0.274077 -0.283749 -0.291362 -0.299623 -0.312702 -0.335114 -0.3729 -0.426279 -0.487043 -0.558023 -0.638439 -0.713206 -0.757335 -0.755834 -0.703284 -0.59263 -0.447671 -0.318292 -0.189117 -0.118478 -0.110685 -0.0835422 -0.00482631 0 0 -0.0666429 -0.114159 -0.147832 -0.173941 -0.196074 -0.216069 -0.232381 -0.245117 -0.260077 -0.280067 -0.30484 -0.33687 -0.381534 -0.44026 -0.522094 -0.624953 -0.746605 -0.863241 -0.942086 -0.962141 -0.9155 -0.812063 -0.663523 -0.513485 -0.393754 -0.295837 -0.240117 -0.182796 -0.102618 0 0 -0.0658339 -0.10394 -0.118581 -0.125903 -0.135079 -0.152045 -0.173829 -0.194758 -0.219004 -0.249208 -0.286909 -0.329156 -0.378688 -0.446531 -0.537434 -0.660947 -0.813085 -0.966943 -1.08022 -1.12081 -1.08394 -0.985097 -0.858413 -0.718224 -0.58756 -0.470327 -0.353618 -0.250674 -0.178106 0 0 -0.0541737 -0.0771543 -0.0722043 -0.0632047 -0.0623506 -0.08044 -0.115887 -0.157354 -0.19607 -0.234719 -0.275265 -0.32215 -0.375479 -0.441737 -0.536165 -0.669717 -0.839553 -1.01382 -1.14419 -1.19438 -1.16769 -1.07907 -0.973636 -0.854167 -0.716449 -0.580472 -0.430582 -0.298955 -0.212246 0 0 -0.023275 -0.0264333 -0.0101639 0.00159333 -0.00377121 -0.0298 -0.0769655 -0.136337 -0.193994 -0.240577 -0.282042 -0.326015 -0.379552 -0.442142 -0.521941 -0.645903 -0.827461 -1.01685 -1.15383 -1.20102 -1.1811 -1.1036 -1.01119 -0.909633 -0.775387 -0.628573 -0.472972 -0.326276 -0.21299 0 0 0.0218072 0.0376062 0.0448019 0.0434461 0.0270094 -0.00644271 -0.0592795 -0.133592 -0.21037 -0.270133 -0.308944 -0.340491 -0.383604 -0.438811 -0.512131 -0.606221 -0.777682 -0.976349 -1.11417 -1.15777 -1.14717 -1.0866 -1.00505 -0.913423 -0.787925 -0.641452 -0.488529 -0.332873 -0.193481 0 0 0.0496891 0.0712496 0.0679224 0.0554786 0.0310949 -0.00706787 -0.0618909 -0.14159 -0.236309 -0.313162 -0.35716 -0.379971 -0.394074 -0.42387 -0.481802 -0.572492 -0.724351 -0.909875 -1.04366 -1.08256 -1.06798 -1.01955 -0.952987 -0.877401 -0.777344 -0.638842 -0.488486 -0.327852 -0.165707 0 0 0.0518869 0.0702588 0.0559567 0.0361394 0.00691013 -0.0275889 -0.0752511 -0.147668 -0.241573 -0.330871 -0.393904 -0.428241 -0.431596 -0.430026 -0.454859 -0.547899 -0.701475 -0.864044 -0.973237 -0.99443 -0.963473 -0.912495 -0.862343 -0.810254 -0.734227 -0.622136 -0.479088 -0.321205 -0.150523 0 0 0.0241691 0.0196327 -0.000903871 -0.021483 -0.0376853 -0.0561144 -0.0826032 -0.131815 -0.207587 -0.300072 -0.385961 -0.4491 -0.478824 -0.479627 -0.479446 -0.550863 -0.715692 -0.86305 -0.930995 -0.927535 -0.872576 -0.815801 -0.77025 -0.727478 -0.670545 -0.583777 -0.466146 -0.319211 -0.157088 0 0 -0.0314493 -0.0490392 -0.0710495 -0.0678568 -0.0696225 -0.069959 -0.0765892 -0.0948558 -0.141754 -0.220182 -0.324461 -0.431134 -0.508746 -0.549631 -0.569201 -0.625766 -0.759016 -0.875608 -0.916529 -0.894147 -0.819395 -0.750023 -0.695446 -0.645751 -0.596031 -0.53067 -0.439644 -0.319623 -0.183076 0 0 -0.0690324 -0.141349 -0.098876 -0.0873263 -0.0812394 -0.0805931 -0.0750901 -0.0754718 -0.0795384 -0.121866 -0.219055 -0.362484 -0.514182 -0.630706 -0.711159 -0.79175 -0.884311 -0.944225 -0.950209 -0.901228 -0.80422 -0.705814 -0.626577 -0.56335 -0.510821 -0.454419 -0.392716 -0.328563 -0.165924 0 0 -0.380338 -0.165537 -0.107888 -0.0795345 -0.0767994 -0.082926 -0.0847953 -0.0661831 -0.046998 -0.048383 -0.110051 -0.242129 -0.441345 -0.669427 -0.876121 -1.03285 -1.12613 -1.15325 -1.10177 -0.96332 -0.786877 -0.624796 -0.498685 -0.409631 -0.351633 -0.310534 -0.268109 -0.221633 -0.198828 0 0 0 0 0 0 0 0 0 0 0 0 0 0 0 0 0 0 0 0 0 0 0 0 0 0 0 0 0 0 0 0
				</DataArray>
				<DataArray Name="VitesseY" type="Float32" format="ascii">
 0 0 0 0 0 0 0 0 0 0 0 0 0 0 0 0 0 0 0 0 0 0 0 0 0 0 0 0 0 0 0 -0.035369 0.0781944 0.00597637 -0.0667369 -0.100177 -0.0862465 -0.0326725 0.046876 0.0686643 0.0609431 0.0472122 0.0268414 0.00409972 -0.0149638 -0.0285968 -0.0317801 -0.0316132 -0.0297708 -0.0260753 -0.0211812 -0.0163149 -0.0120364 -0.00791359 -0.00379969 2.77371e-07 0.00208456 0.00030196 -0.00244793 -0.00430986 -0.00479698 0 -0.0598794 0.0965307 0.0326312 -0.0795265 -0.121284 -0.126344 -0.0396172 0.0710768 0.10652 0.0977579 0.0698617 0.034413 -0.00518644 -0.0414024 -0.0644375 -0.0689523 -0.0675105 -0.0620582 -0.0530659 -0.0421994 -0.0325964 -0.0243137 -0.0164787 -0.0086676 -0.000951339 0.0037482 0.000528285 -0.00494079 -0.00867598 -0.00964482 0 0.0185409 0.153067 0.0665531 -0.0470453 -0.0992225 -0.110277 -0.0318952 0.0560112 0.0964813 0.0951042 0.0640209 0.0171811 -0.0339839 -0.0800501 -0.110502 -0.114272 -0.110113 -0.0989875 -0.0826492 -0.0645549 -0.0501111 -0.0380653 -0.0270059 -0.0159978 -0.00412613 0.00437794 0.000718985 -0.0072901 -0.0129655 -0.0144825 0 0.165502 0.257198 0.111105 -0.00946208 -0.0609706 -0.0712737 -0.0177707 0.0387704 0.0682937 0.0725651 0.0389476 -0.0150734 -0.0719934 -0.122853 -0.160304 -0.166416 -0.159543 -0.141668 -0.116938 -0.0912571 -0.0715481 -0.0559113 -0.0422315 -0.0284324 -0.0116861 0.00268752 0.000752839 -0.00936959 -0.0170988 -0.0192569 0 0.335713 0.371708 0.168728 0.0330879 -0.0240951 -0.0328603 -0.00135394 0.0302963 0.0461929 0.0456533 0.00965522 -0.0474608 -0.107828 -0.162001 -0.204611 -0.218157 -0.211076 -0.188908 -0.157083 -0.124617 -0.0995075 -0.0810295 -0.066055 -0.0502071 -0.0274336 -0.00410878 -0.0001624 -0.0112403 -0.021024 -0.0238843 0 0.478688 0.480811 0.234784 0.0683589 -0.00024809 -0.00512876 0.0256975 0.0414719 0.0435286 0.0246377 -0.0153549 -0.0740783 -0.135893 -0.193105 -0.238053 -0.261661 -0.257507 -0.235552 -0.200794 -0.163725 -0.1345 -0.115321 -0.101916 -0.086252 -0.0571269 -0.020778 -0.00433486 -0.0131792 -0.0246766 -0.0282661 0 0.568206 0.557818 0.292072 0.0931915 0.0145395 0.0174997 0.0563111 0.0765375 0.0666229 0.0247583 -0.0280584 -0.0905116 -0.154091 -0.212482 -0.259983 -0.291994 -0.294365 -0.276692 -0.242536 -0.203532 -0.173892 -0.157683 -0.150363 -0.139536 -0.106961 -0.054787 -0.0174568 -0.0165085 -0.0282525 -0.0324588 0 0.594686 0.562786 0.334854 0.121643 0.0479639 0.0436537 0.0819906 0.115265 0.108627 0.052553 -0.0200245 -0.0916094 -0.159663 -0.220323 -0.270105 -0.30705 -0.320666 -0.309203 -0.278527 -0.239696 -0.212902 -0.202981 -0.206035 -0.207031 -0.179216 -0.114876 -0.0524894 -0.0296781 -0.0329654 -0.0367611 0 0.560899 0.522571 0.346867 0.165906 0.0940609 0.0866416 0.109648 0.1421 0.146958 0.0968362 0.0111644 -0.0750119 -0.152229 -0.217373 -0.270137 -0.309703 -0.334414 -0.33214 -0.308871 -0.273817 -0.249072 -0.24482 -0.256906 -0.27622 -0.266038 -0.203495 -0.120359 -0.0639538 -0.0438197 -0.042256 0 0.512976 0.469871 0.345632 0.20643 0.144232 0.136643 0.149462 0.165718 0.172204 0.134459 0.0519872 -0.0424146 -0.131738 -0.205753 -0.264047 -0.306545 -0.336817 -0.346276 -0.33328 -0.306967 -0.284028 -0.280754 -0.296071 -0.328864 -0.344893 -0.308884 -0.222785 -0.137732 -0.0796504 -0.0529263 0 0.465233 0.428044 0.345097 0.244608 0.1959 0.189321 0.196496 0.199875 0.193254 0.156796 0.0860631 -0.00618085 -0.0995677 -0.187212 -0.255345 -0.305047 -0.336834 -0.354459 -0.353219 -0.338532 -0.320638 -0.315525 -0.326558 -0.358167 -0.395616 -0.397676 -0.342652 -0.251823 -0.162374 -0.0894497 0 0.427772 0.407261 0.351841 0.285274 0.252134 0.246327 0.247575 0.240234 0.219404 0.175842 0.106945 0.0229722 -0.0685245 -0.159598 -0.242117 -0.305324 -0.346407 -0.366013 -0.37426 -0.36967 -0.360116 -0.354508 -0.35786 -0.377633 -0.417685 -0.446798 -0.437016 -0.383412 -0.298137 -0.187691 0 0.417165 0.407886 0.372588 0.335074 0.314104 0.306136 0.299329 0.281336 0.248284 0.196744 0.125156 0.0402845 -0.0451022 -0.1333 -0.221558 -0.300354 -0.356955 -0.391508 -0.405745 -0.408167 -0.402482 -0.400455 -0.40288 -0.399604 -0.413821 -0.453257 -0.482185 -0.483836 -0.460951 -0.368406 0 0.435614 0.430482 0.413169 0.395556 0.382368 0.369596 0.349259 0.317153 0.274772 0.219844 0.145473 0.0576017 -0.0284218 -0.115805 -0.204151 -0.287997 -0.364584 -0.421821 -0.451646 -0.460652 -0.461177 -0.455839 -0.455564 -0.443718 -0.421664 -0.433337 -0.482627 -0.536983 -0.595352 -0.606071 0 0.476227 0.476356 0.473835 0.471301 0.459296 0.432834 0.393872 0.346638 0.294923 0.238008 0.169898 0.0826228 -0.0110411 -0.102248 -0.189762 -0.280641 -0.370449 -0.449177 -0.505522 -0.534733 -0.543442 -0.536493 -0.522167 -0.507028 -0.465261 -0.435855 -0.470206 -0.558062 -0.68726 -0.834126 0 0.535733 0.539988 0.551004 0.558769 0.539246 0.493326 0.435822 0.373651 0.312422 0.25271 0.190076 0.112572 0.0154095 -0.0800794 -0.177124 -0.276341 -0.378732 -0.479021 -0.566411 -0.62798 -0.658491 -0.657431 -0.624412 -0.585357 -0.551172 -0.516563 -0.51996 -0.603446 -0.771585 -1.00812 0 0.609831 0.616244 0.635067 0.643471 0.614348 0.552551 0.479026 0.404314 0.334251 0.269334 0.207406 0.140304 0.0544303 -0.0490164 -0.157466 -0.268421 -0.385584 -0.512878 -0.637797 -0.739424 -0.798446 -0.817482 -0.797067 -0.742613 -0.693413 -0.674455 -0.683411 -0.730629 -0.864985 -1.11021 0 0.696937 0.700174 0.716155 0.719969 0.68379 0.609403 0.522274 0.437437 0.36066 0.293109 0.231879 0.169765 0.0911066 -0.0091994 -0.126095 -0.249474 -0.386333 -0.54202 -0.705229 -0.849108 -0.945159 -0.986179 -0.986108 -0.942782 -0.877347 -0.837534 -0.838938 -0.853203 -0.928594 -1.14134 0 0.793834 0.785613 0.787166 0.784763 0.742298 0.660408 0.564508 0.471774 0.392594 0.326522 0.265887 0.201768 0.125143 0.0297671 -0.0864175 -0.220687 -0.3741 -0.553385 -0.744499 -0.925364 -1.05805 -1.11796 -1.12542 -1.08692 -1.0177 -0.950994 -0.913454 -0.900383 -0.938433 -1.09587 0 0.901579 0.872878 0.847037 0.832471 0.78422 0.7007 0.608935 0.512818 0.430879 0.36438 0.302957 0.235988 0.1589 0.0643397 -0.0498531 -0.185146 -0.347401 -0.531601 -0.741735 -0.947201 -1.10237 -1.17237 -1.17792 -1.13698 -1.06475 -0.9792 -0.915284 -0.884112 -0.894515 -0.961284 0 1.00032 0.950753 0.88503 0.860508 0.812299 0.738042 0.659424 0.565116 0.473687 0.399572 0.335082 0.267096 0.187009 0.0911529 -0.0196361 -0.147658 -0.295822 -0.476829 -0.691224 -0.905893 -1.07222 -1.15353 -1.16578 -1.13176 -1.0561 -0.953738 -0.865114 -0.814091 -0.800197 -0.785338 0 1.08572 1.02647 0.918621 0.883816 0.837445 0.775235 0.710345 0.62465 0.522322 0.429809 0.350105 0.276891 0.202728 0.115547 0.00578118 -0.106414 -0.228268 -0.387658 -0.587893 -0.807276 -0.979268 -1.0715 -1.09514 -1.07839 -1.01221 -0.906659 -0.811231 -0.746527 -0.703423 -0.623732 0 1.11968 1.05584 0.925446 0.88149 0.835712 0.779868 0.722462 0.648394 0.548411 0.443021 0.349623 0.26743 0.194252 0.127616 0.050957 -0.0502165 -0.158255 -0.274619 -0.446035 -0.666464 -0.857929 -0.970288 -1.00701 -1.00053 -0.948253 -0.858984 -0.767537 -0.693523 -0.625522 -0.49811 0 1.07714 1.01137 0.868431 0.80773 0.750772 0.691357 0.633885 0.5738 0.496664 0.412139 0.335782 0.2653 0.187713 0.115493 0.0717424 0.03753 -0.0352242 -0.163565 -0.318208 -0.516488 -0.721152 -0.854323 -0.907993 -0.911497 -0.875723 -0.808534 -0.726119 -0.644916 -0.562976 -0.409454 0 0.887376 0.805705 0.646621 0.556759 0.476701 0.413038 0.359697 0.327691 0.30531 0.288762 0.2834 0.271818 0.244296 0.190158 0.123722 0.0813598 0.0445579 -0.0394942 -0.195879 -0.401864 -0.591944 -0.71865 -0.776588 -0.788355 -0.777115 -0.733759 -0.670318 -0.595946 -0.510712 -0.351669 0 0.488939 0.4028 0.258072 0.159858 0.0775953 0.0251662 -0.0040215 -0.00486889 0.0231545 0.0799196 0.159281 0.240517 0.284219 0.28544 0.241146 0.163025 0.0896153 0.0082932 -0.120198 -0.304295 -0.476517 -0.583546 -0.629825 -0.64213 -0.639305 -0.62244 -0.583942 -0.530788 -0.454608 -0.310709 0 0.139901 0.0551002 -0.0278378 -0.0992712 -0.156872 -0.178575 -0.194557 -0.188861 -0.159949 -0.0928795 0.0106804 0.141731 0.259332 0.315486 0.313885 0.255759 0.142857 0.0125765 -0.114846 -0.24551 -0.35827 -0.433732 -0.474934 -0.489621 -0.489028 -0.479293 -0.466337 -0.439801 -0.39291 -0.268315 0 0.0789046 0.0818713 -0.0618642 -0.118314 -0.148966 -0.149959 -0.169953 -0.175446 -0.173599 -0.145655 -0.071099 0.0411472 0.177181 0.285609 0.315261 0.273369 0.171445 0.0366451 -0.0924001 -0.188832 -0.254092 -0.301334 -0.327913 -0.333887 -0.328419 -0.321489 -0.319346 -0.319741 -0.328685 -0.221807 0 0.648093 0.110573 -0.0685757 -0.0494615 -0.0868839 -0.0672439 -0.0867094 -0.0886906 -0.105484 -0.0873659 -0.0615024 0.00199082 0.0992985 0.213238 0.275793 0.260355 0.186732 0.0889792 -0.0114765 -0.107646 -0.181193 -0.213703 -0.213686 -0.193848 -0.166004 -0.150727 -0.157177 -0.183128 -0.165967 -0.198897 0 5.50532 0 0 0 0 0 0 0 0 0 0 0 0 0 0 0 0 0 0 0 0 0 0 0 0 0 0 0 0 0 0
				</DataArray>
			</PointData>
			<CellData Scalars="Density">
				<DataArray Name="Density" type="Float32" format="ascii">