<?xml version="1.0"?>
<VTKFile type="PolyData">
	<PolyData>
		<Piece NumberOfPoints="961" NumberOfPolys="900">
			<Points>
				<DataArray type="Float32" NumberOfComponents="3" format="ascii">
 0 0 0 0.04 0 0 0.08 0 0 0.12 0 0 0.16 0 0 0.2 0 0 0.24 0 0 0.28 0 0 0.32 0 0 0.36 0 0 0.4 0 0 0.44 0 0 0.48 0 0 0.52 0 0 0.56 0 0 0.6 0 0 0.64 0 0 0.68 0 0 0.72 0 0 0.76 0 0 0.8 0 0 0.84 0 0 0.88 0 0 0.92 0 0 0.96 0 0 1 0 0 1.04 0 0 1.08 0 0 1.12 0 0 1.16 0 0 1.2 0 0 0 0.04 0 0.04 0.04 0 0.08 0.04 0 0.12 0.04 0 0.16 0.04 0 0.2 0.04 0 0.24 0.04 0 0.28 0.04 0 0.32 0.04 0 0.36 0.04 0 0.4 0.04 0 0.44 0.04 0 0.48 0.04 0 0.52 0.04 0 0.56 0.04 0 0.6 0.04 0 0.64 0.04 0 0.68 0.04 0 0.72 0.04 0 0.76 0.04 0 0.8 0.04 0 0.84 0.04 0 0.88 0.04 0 0.92 0.04 0 0.96 0.04 0 1 0.04 0 1.04 0.04 0 1.08 0.04 0 1.12 0.04 0 1.16 0.04 0 1.2 0.04 0 0 0.08 0 0.04 0.08 0 0.08 0.08 0 0.12 0.08 0 0.16 0.08 0 0.2 0.08 0 0.24 0.08 0 0.28 0.08 0 0.32 0.08 0 0.36 0.08 0 0.4 0.08 0 0.44 0.08 0 0.48 0.08 0 0.52 0.08 0 0.56 0.08 0 0.6 0.08 0 0.64 0.08 0 0.68 0.08 0 0.72 0.08 0 0.76 0.08 0 0.8 0.08 0 0.84 0.08 0 0.88 0.08 0 0.92 0.08 0 0.96 0.08 0 1 0.08 0 1.04 0.08 0 1.08 0.08 0 1.12 0.08 0 1.16 0.08 0 1.2 0.08 0 0 0.12 0 0.04 0.12 0 0.08 0.12 0 0.12 0.12 0 0.16 0.12 0 0.2 0.12 0 0.24 0.12 0 0.28 0.12 0 0.32 0.12 0 0.36 0.12 0 0.4 0.12 0 0.44 0.12 0 0.48 0.12 0 0.52 0.12 0 0.56 0.12 0 0.6 0.12 0 0.64 0.12 0 0.68 0.12 0 0.72 0.12 0 0.76 0.12 0 0.8 0.12 0 0.84 0.12 0 0.88 0.12 0 0.92 0.12 0 0.96 0.12 0 1 0.12 0 1.04 0.12 0 1.08 0.12 0 1.12 0.12 0 1.16 0.12 0 1.2 0.12 0 0 0.16 0 0.04 0.16 0 0.08 0.16 0 0.12 0.16 0 0.16 0.16 0 0.2 0.16 0 0.24 0.16 0 0.28 0.16 0 0.32 0.16 0 0.36 0.16 0 0.4 0.16 0 0.44 0.16 0 0.48 0.16 0 0.52 0.16 0 0.56 0.16 0 0.6 0.16 0 0.64 0.16 0 0.68 0.16 0 0.72 0.16 0 0.76 0.16 0 0.8 0.16 0 0.84 0.16 0 0.88 0.16 0 0.92 0.16 0 0.96 0.16 0 1 0.16 0 1.04 0.16 0 1.08 0.16 0 1.12 0.16 0 1.16 0.16 0 1.2 0.16 0 0 0.2 0 0.04 0.2 0 0.08 0.2 0 0.12 0.2 0 0.16 0.2 0 0.2 0.2 0 0.24 0.2 0 0.28 0.2 0 0.32 0.2 0 0.36 0.2 0 0.4 0.2 0 0.44 0.2 0 0.48 0.2 0 0.52 0.2 0 0.56 0.2 0 0.6 0.2 0 0.64 0.2 0 0.68 0.2 0 0.72 0.2 0 0.76 0.2 0 0.8 0.2 0 0.84 0.2 0 0.88 0.2 0 0.92 0.2 0 0.96 0.2 0 1 0.2 0 1.04 0.2 0 1.08 0.2 0 1.12 0.2 0 1.16 0.2 0 1.2 0.2 0 0 0.24 0 0.04 0.24 0 0.08 0.24 0 0.12 0.24 0 0.16 0.24 0 0.2 0.24 0 0.24 0.24 0 0.28 0.24 0 0.32 0.24 0 0.36 0.24 0 0.4 0.24 0 0.44 0.24 0 0.48 0.24 0 0.52 0.24 0 0.56 0.24 0 0.6 0.24 0 0.64 0.24 0 0.68 0.24 0 0.72 0.24 0 0.76 0.24 0 0.8 0.24 0 0.84 0.24 0 0.88 0.24 0 0.92 0.24 0 0.96 0.24 0 1 0.24 0 1.04 0.24 0 1.08 0.24 0 1.12 0.24 0 1.16 0.24 0 1.2 0.24 0 0 0.28 0 0.04 0.28 0 0.08 0.28 0 0.12 0.28 0 0.16 0.28 0 0.2 0.28 0 0.24 0.28 0 0.28 0.28 0 0.32 0.28 0 0.36 0.28 0 0.4 0.28 0 0.44 0.28 0 0.48 0.28 0 0.52 0.28 0 0.56 0.28 0 0.6 0.28 0 0.64 0.28 0 0.68 0.28 0 0.72 0.28 0 0.76 0.28 0 0.8 0.28 0 0.84 0.28 0 0.88 0.28 0 0.92 0.28 0 0.96 0.28 0 1 0.28 0 1.04 0.28 0 1.08 0.28 0 1.12 0.28 0 1.16 0.28 0 1.2 0.28 0 0 0.32 0 0.04 0.32 0 0.08 0.32 0 0.12 0.32 0 0.16 0.32 0 0.2 0.32 0 0.24 0.32 0 0.28 0.32 0 0.32 0.32 0 0.36 0.32 0 0.4 0.32 0 0.44 0.32 0 0.48 0.32 0 0.52 0.32 0 0.56 0.32 0 0.6 0.32 0 0.64 0.32 0 0.68 0.32 0 0.72 0.32 0 0.76 0.32 0 0.8 0.32 0 0.84 0.32 0 0.88 0.32 0 0.92 0.32 0 0.96 0.32 0 1 0.32 0 1.04 0.32 0 1.08 0.32 0 1.12 0.32 0 1.16 0.32 0 1.2 0.32 0 0 0.36 0 0.04 0.36 0 0.08 0.36 0 0.12 0.36 0 0.16 0.36 0 0.2 0.36 0 0.24 0.36 0 0.28 0.36 0 0.32 0.36 0 0.36 0.36 0 0.4 0.36 0 0.44 0.36 0 0.48 0.36 0 0.52 0.36 0 0.56 0.36 0 0.6 0.36 0 0.64 0.36 0 0.68 0.36 0 0.72 0.36 0 0.76 0.36 0 0.8 0.36 0 0.84 0.36 0 0.88 0.36 0 0.92 0.36 0 0.96 0.36 0 1 0.36 0 1.04 0.36 0 1.08 0.36 0 1.12 0.36 0 1.16 0.36 0 1.2 0.36 0 0 0.4 0 0.04 0.4 0 0.08 0.4 0 0.12 0.4 0 0.16 0.4 0 0.2 0.4 0 0.24 0.4 0 0.28 0.4 0 0.32 0.4 0 0.36 0.4 0 0.4 0.4 0 0.44 0.4 0 0.48 0.4 0 0.52 0.4 0 0.56 0.4 0 0.6 0.4 0 0.64 0.4 0 0.68 0.4 0 0.72 0.4 0 0.76 0.4 0 0.8 0.4 0 0.84 0.4 0 0.88 0.4 0 0.92 0.4 0 0.96 0.4 0 1 0.4 0 1.04 0.4 0 1.08 0.4 0 1.12 0.4 0 1.16 0.4 0 1.2 0.4 0 0 0.44 0 0.04 0.44 0 0.08 0.44 0 0.12 0.44 0 0.16 0.44 0 0.2 0.44 0 0.24 0.44 0 0.28 0.44 0 0.32 0.44 0 0.36 0.44 0 0.4 0.44 0 0.44 0.44 0 0.48 0.44 0 0.52 0.44 0 0.56 0.44 0 0.6 0.44 0 0.64 0.44 0 0.68 0.44 0 0.72 0.44 0 0.76 0.44 0 0.8 0.44 0 0.84 0.44 0 0.88 0.44 0 0.92 0.44 0 0.96 0.44 0 1 0.44 0 1.04 0.44 0 1.08 0.44 0 1.12 0.44 0 1.16 0.44 0 1.2 0.44 0 0 0.48 0 0.04 0.48 0 0.08 0.48 0 0.12 0.48 0 0.16 0.48 0 0.2 0.48 0 0.24 0.48 0 0.28 0.48 0 0.32 0.48 0 0.36 0.48 0 0.4 0.48 0 0.44 0.48 0 0.48 0.48 0 0.52 0.48 0 0.56 0.48 0 0.6 0.48 0 0.64 0.48 0 0.68 0.48 0 0.72 0.48 0 0.76 0.48 0 0.8 0.48 0 0.84 0.48 0 0.88 0.48 0 0.92 0.48 0 0.96 0.48 0 1 0.48 0 1.04 0.48 0 1.08 0.48 0 1.12 0.48 0 1.16 0.48 0 1.2 0.48 0 0 0.52 0 0.04 0.52 0 0.08 0.52 0 0.12 0.52 0 0.16 0.52 0 0.2 0.52 0 0.24 0.52 0 0.28 0.52 0 0.32 0.52 0 0.36 0.52 0 0.4 0.52 0 0.44 0.52 0 0.48 0.52 0 0.52 0.52 0 0.56 0.52 0 0.6 0.52 0 0.64 0.52 0 0.68 0.52 0 0.72 0.52 0 0.76 0.52 0 0.8 0.52 0 0.84 0.52 0 0.88 0.52 0 0.92 0.52 0 0.96 0.52 0 1 0.52 0 1.04 0.52 0 1.08 0.52 0 1.12 0.52 0 1.16 0.52 0 1.2 0.52 0 0 0.56 0 0.04 0.56 0 0.08 0.56 0 0.12 0.56 0 0.16 0.56 0 0.2 0.56 0 0.24 0.56 0 0.28 0.56 0 0.32 0.56 0 0.36 0.56 0 0.4 0.56 0 0.44 0.56 0 0.48 0.56 0 0.52 0.56 0 0.56 0.56 0 0.6 0.56 0 0.64 0.56 0 0.68 0.56 0 0.72 0.56 0 0.76 0.56 0 0.8 0.56 0 0.84 0.56 0 0.88 0.56 0 0.92 0.56 0 0.96 0.56 0 1 0.56 0 1.04 0.56 0 1.08 0.56 0 1.12 0.56 0 1.16 0.56 0 1.2 0.56 0 0 0.6 0 0.04 0.6 0 0.08 0.6 0 0.12 0.6 0 0.16 0.6 0 0.2 0.6 0 0.24 0.6 0 0.28 0.6 0 0.32 0.6 0 0.36 0.6 0 0.4 0.6 0 0.44 0.6 0 0.48 0.6 0 0.52 0.6 0 0.56 0.6 0 0.6 0.6 0 0.64 0.6 0 0.68 0.6 0 0.72 0.6 0 0.76 0.6 0 0.8 0.6 0 0.84 0.6 0 0.88 0.6 0 0.92 0.6 0 0.96 0.6 0 1 0.6 0 1.04 0.6 0 1.08 0.6 0 1.12 0.6 0 1.16 0.6 0 1.2 0.6 0 0 0.64 0 0.04 0.64 0 0.08 0.64 0 0.12 0.64 0 0.16 0.64 0 0.2 0.64 0 0.24 0.64 0 0.28 0.64 0 0.32 0.64 0 0.36 0.64 0 0.4 0.64 0 0.44 0.64 0 0.48 0.64 0 0.52 0.64 0 0.56 0.64 0 0.6 0.64 0 0.64 0.64 0 0.68 0.64 0 0.72 0.64 0 0.76 0.64 0 0.8 0.64 0 0.84 0.64 0 0.88 0.64 0 0.92 0.64 0 0.96 0.64 0 1 0.64 0 1.04 0.64 0 1.08 0.64 0 1.12 0.64 0 1.16 0.64 0 1.2 0.64 0 0 0.68 0 0.04 0.68 0 0.08 0.68 0 0.12 0.68 0 0.16 0.68 0 0.2 0.68 0 0.24 0.68 0 0.28 0.68 0 0.32 0.68 0 0.36 0.68 0 0.4 0.68 0 0.44 0.68 0 0.48 0.68 0 0.52 0.68 0 0.56 0.68 0 0.6 0.68 0 0.64 0.68 0 0.68 0.68 0 0.72 0.68 0 0.76 0.68 0 0.8 0.68 0 0.84 0.68 0 0.88 0.68 0 0.92 0.68 0 0.96 0.68 0 1 0.68 0 1.04 0.68 0 1.08 0.68 0 1.12 0.68 0 1.16 0.68 0 1.2 0.68 0 0 0.72 0 0.04 0.72 0 0.08 0.72 0 0.12 0.72 0 0.16 0.72 0 0.2 0.72 0 0.24 0.72 0 0.28 0.72 0 0.32 0.72 0 0.36 0.72 0 0.4 0.72 0 0.44 0.72 0 0.48 0.72 0 0.52 0.72 0 0.56 0.72 0 0.6 0.72 0 0.64 0.72 0 0.68 0.72 0 0.72 0.72 0 0.76 0.72 0 0.8 0.72 0 0.84 0.72 0 0.88 0.72 0 0.92 0.72 0 0.96 0.72 0 1 0.72 0 1.04 0.72 0 1.08 0.72 0 1.12 0.72 0 1.16 0.72 0 1.2 0.72 0 0 0.76 0 0.04 0.76 0 0.08 0.76 0 0.12 0.76 0 0.16 0.76 0 0.2 0.76 0 0.24 0.76 0 0.28 0.76 0 0.32 0.76 0 0.36 0.76 0 0.4 0.76 0 0.44 0.76 0 0.48 0.76 0 0.52 0.76 0 0.56 0.76 0 0.6 0.76 0 0.64 0.76 0 0.68 0.76 0 0.72 0.76 0 0.76 0.76 0 0.8 0.76 0 0.84 0.76 0 0.88 0.76 0 0.92 0.76 0 0.96 0.76 0 1 0.76 0 1.04 0.76 0 1.08 0.76 0 1.12 0.76 0 1.16 0.76 0 1.2 0.76 0 0 0.8 0 0.04 0.8 0 0.08 0.8 0 0.12 0.8 0 0.16 0.8 0 0.2 0.8 0 0.24 0.8 0 0.28 0.8 0 0.32 0.8 0 0.36 0.8 0 0.4 0.8 0 0.44 0.8 0 0.48 0.8 0 0.52 0.8 0 0.56 0.8 0 0.6 0.8 0 0.64 0.8 0 0.68 0.8 0 0.72 0.8 0 0.76 0.8 0 0.8 0.8 0 0.84 0.8 0 0.88 0.8 0 0.92 0.8 0 0.96 0.8 0 1 0.8 0 1.04 0.8 0 1.08 0.8 0 1.12 0.8 0 1.16 0.8 0 1.2 0.8 0 0 0.84 0 0.04 0.84 0 0.08 0.84 0 0.12 0.84 0 0.16 0.84 0 0.2 0.84 0 0.24 0.84 0 0.28 0.84 0 0.32 0.84 0 0.36 0.84 0 0.4 0.84 0 0.44 0.84 0 0.48 0.84 0 0.52 0.84 0 0.56 0.84 0 0.6 0.84 0 0.64 0.84 0 0.68 0.84 0 0.72 0.84 0 0.76 0.84 0 0.8 0.84 0 0.84 0.84 0 0.88 0.84 0 0.92 0.84 0 0.96 0.84 0 1 0.84 0 1.04 0.84 0 1.08 0.84 0 1.12 0.84 0 1.16 0.84 0 1.2 0.84 0 0 0.88 0 0.04 0.88 0 0.08 0.88 0 0.12 0.88 0 0.16 0.88 0 0.2 0.88 0 0.24 0.88 0 0.28 0.88 0 0.32 0.88 0 0.36 0.88 0 0.4 0.88 0 0.44 0.88 0 0.48 0.88 0 0.52 0.88 0 0.56 0.88 0 0.6 0.88 0 0.64 0.88 0 0.68 0.88 0 0.72 0.88 0 0.76 0.88 0 0.8 0.88 0 0.84 0.88 0 0.88 0.88 0 0.92 0.88 0 0.96 0.88 0 1 0.88 0 1.04 0.88 0 1.08 0.88 0 1.12 0.88 0 1.16 0.88 0 1.2 0.88 0 0 0.92 0 0.04 0.92 0 0.08 0.92 0 0.12 0.92 0 0.16 0.92 0 0.2 0.92 0 0.24 0.92 0 0.28 0.92 0 0.32 0.92 0 0.36 0.92 0 0.4 0.92 0 0.44 0.92 0 0.48 0.92 0 0.52 0.92 0 0.56 0.92 0 0.6 0.92 0 0.64 0.92 0 0.68 0.92 0 0.72 0.92 0 0.76 0.92 0 0.8 0.92 0 0.84 0.92 0 0.88 0.92 0 0.92 0.92 0 0.96 0.92 0 1 0.92 0 1.04 0.92 0 1.08 0.92 0 1.12 0.92 0 1.16 0.92 0 1.2 0.92 0 0 0.96 0 0.04 0.96 0 0.08 0.96 0 0.12 0.96 0 0.16 0.96 0 0.2 0.96 0 0.24 0.96 0 0.28 0.96 0 0.32 0.96 0 0.36 0.96 0 0.4 0.96 0 0.44 0.96 0 0.48 0.96 0 0.52 0.96 0 0.56 0.96 0 0.6 0.96 0 0.64 0.96 0 0.68 0.96 0 0.72 0.96 0 0.76 0.96 0 0.8 0.96 0 0.84 0.96 0 0.88 0.96 0 0.92 0.96 0 0.96 0.96 0 1 0.96 0 1.04 0.96 0 1.08 0.96 0 1.12 0.96 0 1.16 0.96 0 1.2 0.96 0 0 1 0 0.04 1 0 0.08 1 0 0.12 1 0 0.16 1 0 0.2 1 0 0.24 1 0 0.28 1 0 0.32 1 0 0.36 1 0 0.4 1 0 0.44 1 0 0.48 1 0 0.52 1 0 0.56 1 0 0.6 1 0 0.64 1 0 0.68 1 0 0.72 1 0 0.76 1 0 0.8 1 0 0.84 1 0 0.88 1 0 0.92 1 0 0.96 1 0 1 1 0 1.04 1 0 1.08 1 0 1.12 1 0 1.16 1 0 1.2 1 0 0 1.04 0 0.04 1.04 0 0.08 1.04 0 0.12 1.04 0 0.16 1.04 0 0.2 1.04 0 0.24 1.04 0 0.28 1.04 0 0.32 1.04 0 0.36 1.04 0 0.4 1.04 0 0.44 1.04 0 0.48 1.04 0 0.52 1.04 0 0.56 1.04 0 0.6 1.04 0 0.64 1.04 0 0.68 1.04 0 0.72 1.04 0 0.76 1.04 0 0.8 1.04 0 0.84 1.04 0 0.88 1.04 0 0.92 1.04 0 0.96 1.04 0 1 1.04 0 1.04 1.04 0 1.08 1.04 0 1.12 1.04 0 1.16 1.04 0 1.2 1.04 0 0 1.08 0 0.04 1.08 0 0.08 1.08 0 0.12 1.08 0 0.16 1.08 0 0.2 1.08 0 0.24 1.08 0 0.28 1.08 0 0.32 1.08 0 0.36 1.08 0 0.4 1.08 0 0.44 1.08 0 0.48 1.08 0 0.52 1.08 0 0.56 1.08 0 0.6 1.08 0 0.64 1.08 0 0.68 1.08 0 0.72 1.08 0 0.76 1.08 0 0.8 1.08 0 0.84 1.08 0 0.88 1.08 0 0.92 1.08 0 0.96 1.08 0 1 1.08 0 1.04 1.08 0 1.08 1.08 0 1.12 1.08 0 1.16 1.08 0 1.2 1.08 0 0 1.12 0 
[...]
			<PointData Scalars="VitesseX">
				<DataArray Name="VitesseX" type="Float32" format="ascii">
 0 0.018281 -0.165612 -0.182843 -0.0301904 0.128403 0.274976 0.415936 0.53197 0.646047 0.751276 0.854642 0.95677 1.05968 1.16362 1.26871 1.37553 1.48556 1.59855 1.71724 1.8416 1.96771 2.20353 2.4003 2.32289 1.96532 1.18941 0.273846 0.00621919 1.42233e-06 0 0 0.286416 0.263043 0.214558 0.250934 0.323394 0.390279 0.502287 0.592248 0.688215 0.780582 0.874679 0.969262 1.06585 1.16478 1.26605 1.37022 1.47879 1.59132 1.71048 1.83511 1.96204 2.20196 2.39215 2.31101 1.94789 1.16686 0.260439 0.0055989 1.20127e-06 0 0 0.250381 0.33163 0.40484 0.460597 0.511251 0.519953 0.595803 0.653386 0.726515 0.80679 0.893428 0.9833 1.07666 1.17353 1.27361 1.37697 1.48481 1.5964 1.715 1.83729 1.96419 2.21344 2.38328 2.28969 1.90489 1.1024 0.223312 0.00406748 7.24396e-07 0 0 0.170573 0.256781 0.390862 0.488181 0.542263 0.577912 0.642181 0.699579 0.76437 0.836939 0.917056 1.00213 1.09238 1.18705 1.28529 1.38694 1.49308 1.60306 1.72099 1.84054 1.97088 2.23458 2.3714 2.25706 1.83431 0.996366 0.170919 0.00234944 3.13837e-07 0 0 0.0895125 0.190036 0.341519 0.453421 0.52008 0.59561 0.660736 0.733204 0.800121 0.870268 0.9453 1.02592 1.11286 1.20455 1.30001 1.39926 1.50308 1.61134 1.72888 1.84548 1.98498 2.26218 2.35339 2.20835 1.73016 0.849274 0.113969 0.00105003 9.99834e-08 0 0 0.0614745 0.162305 0.280834 0.413138 0.502454 0.584269 0.662465 0.747439 0.821652 0.897123 0.972657 1.05231 1.13687 1.22536 1.31738 1.4139 1.51504 1.62197 1.73892 1.85235 2.01014 2.28916 2.32579 2.13636 1.58431 0.665632 0.0634993 0.000349489 2.48173e-08 0 0 0.0571617 0.159645 0.27083 0.40098 0.48795 0.574214 0.666438 0.751118 0.83286 0.914205 0.993459 1.07457 1.15849 1.24544 1.33523 1.42982 1.52843 1.6352 1.75041 1.86173 2.05171 2.30396 2.28529 2.03063 1.38784 0.460143 0.0280917 8.26842e-05 5.21311e-09 0 0 0.0592884 0.162343 0.273309 0.392013 0.481658 0.577075 0.667262 0.751392 0.838434 0.923529 1.00716 1.09003 1.17445 1.26059 1.34984 1.44379 1.54142 1.65028 1.7613 1.87623 2.11347 2.29588 2.22212 1.88065 1.13256 0.266148 0.00937195 1.31909e-05 9.50925e-10 0 0 0.0687113 0.163828 0.269128 0.381017 0.480849 0.57715 0.664741 0.75205 0.840225 0.927073 1.0132 1.09864 1.18427 1.27071 1.36123 1.4546 1.55383 1.66517 1.76944 1.90427 2.17606 2.26145 2.12525 1.67074 0.820133 0.123269 0.00223528 1.35993e-06 1.41356e-10 0 0 0.0742368 0.163805 0.264237 0.370769 0.474046 0.571025 0.661115 0.750504 0.839277 0.926909 1.01413 1.10153 1.18826 1.27712 1.36907 1.46257 1.56727 1.67595 1.77767 1.96071 2.20836 2.2015 1.97646 1.38152 0.490132 0.0420597 0.000353419 9.49503e-08 2.14248e-11 0 0 0.0763333 0.162321 0.257445 0.358577 0.461452 0.559809 0.6531 0.744191 0.834093 0.923412 1.01257 1.10041 1.18913 1.28097 1.37299 1.47072 1.58106 1.68102 1.79798 2.04855 2.18979 2.10493 1.7533 1.0036 0.223266 0.00977629 3.31389e-05 5.95766e-09 1.33266e-11 0 0 0.0773708 0.161552 0.251996 0.347407 0.445757 0.543531 0.639273 0.732476 0.824131 0.915807 1.00654 1.09683 1.18902 1.28157 1.37591 1.48295 1.58838 1.6854 1.85646 2.10655 2.12482 1.94626 1.42791 0.580149 0.0727045 0.00143649 1.67666e-06 3.77162e-10 -8.66302e-12 0 0 0.0778301 0.160754 0.24782 0.338497 0.43241 0.5275 0.622752 0.717404 0.811134 0.904197 0.997684 1.09267 1.18677 1.28077 1.38412 1.49397 1.58902 1.71083 1.9598 2.08899 2.01393 1.69013 0.982723 0.241441 0.0150972 0.000116771 5.08516e-08 4.84246e-11 -1.05203e-11 0 0 0.0778347 0.159635 0.244074 0.331515 0.422326 0.515571 0.610083 0.705063 0.799862 0.895061 0.991548 1.0878 1.18378 1.28593 1.39689 1.49488 1.59758 1.79734 2.00722 2.00715 1.81936 1.29684 0.500186 0.0670655 0.00181908 4.42196e-06 1.60929e-09 3.39308e-11 -1.2316e-11 0 0 0.0776937 0.158347 0.24098 0.326267 0.415023 0.506996 0.601094 0.696555 0.793045 0.890404 0.987644 1.08539 1.18812 1.29864 1.39915 1.49712 1.65927 1.89653 1.95934 1.85569 1.48816 0.769569 0.170753 0.0108155 0.000106747 8.11685e-08 6.00157e-11 -1.23646e-11 3.05509e-14 0 0 0.0776577 0.157553 0.239117 0.323291 0.410934 0.502187 0.596261 0.692369 0.789809 0.887785 0.986881 1.09062 1.20013 1.30168 1.40037 1.5457 1.77697 1.88351 1.83354 1.57646 0.980786 0.304588 0.0347186 0.000890139 2.44727e-06 1.5095e-09 2.56116e-11 -2.47515e-11 2.47788e-11 0 0 0.0779416 0.157555 0.238812 0.32274 0.410121 0.501204 0.59531 0.691502 0.78939 0.889483 0.993937 1.10156 1.20335 1.30532 1.44836 1.66549 1.78899 1.77487 1.58946 1.10468 0.431711 0.0731921 0.00358258 2.84828e-05 2.63301e-08 2.65807e-11 1.24012e-11 -1.24033e-11 5.35003e-14 0 0 0.0787933 0.158657 0.240184 0.324379 0.411914 0.503049 0.597445 0.694808 0.795408 0.899369 1.0043 1.10624 1.21437 1.36478 1.56565 1.68549 1.69047 1.5479 1.14573 0.519341 0.114563 0.00875763 0.000148275 3.00711e-07 3.58676e-10 1.26571e-11 -3.34376e-11 3.34012e-11 -1.22982e-11 0 0 0.0803058 0.161439 0.244366 0.329945 0.418692 0.510986 0.60696 0.706328 0.808058 0.910445 1.01453 1.13383 1.29618 1.47117 1.57585 1.58584 1.4649 1.11685 0.551082 0.14376 0.014865 0.000421084 1.77504e-06 2.35013e-09 3.22372e-12 1.23737e-11 -3.344e-11 2.10478e-11 4.09149e-14 0 0 0.0827319 0.166338 0.252077 0.340413 0.431439 0.525306 0.621982 0.721157 0.823837 0.935974 1.07149 1.23361 1.37181 1.45943 1.46229 1.34678 1.0296 0.525539 0.150965 0.0188628 0.00074685 5.40063e-06 9.0908e-09 1.96067e-11 3.11062e-14 1.05881e-14 1.23867e-11 -2.47604e-11 1.23753e-11 0 0 0.0857241 0.17249 0.26169 0.35316 0.446746 0.54316 0.64434 0.754261 0.879898 1.02076 1.15432 1.26254 1.32884 1.31792 1.19446 0.892393 0.451344 0.134816 0.0185415 0.000893162 9.18222e-06 2.11575e-08 3.79258e-11 2.48073e-11 4.88778e-16 -2.47001e-11 2.4736e-11 -1.2347e-11 1.23885e-11 0 0 0.0893844 0.180837 0.27561 0.373789 0.476541 0.586509 0.704098 0.825623 0.943595 1.05057 1.13906 1.17751 1.14701 1.00602 0.71332 0.344576 0.101577 0.0141682 0.000738873 9.16788e-06 2.8155e-08 1.09737e-10 2.96776e-13 -5.11949e-14 -3.02038e-15 3.44827e-14 1.23553e-11 -1.2345e-11 1.23995e-11 0 0 0.0991707 0.200936 0.305165 0.411572 0.519486 0.627533 0.733465 0.835991 0.926283 0.986038 0.998554 0.942199 0.780997 0.507905 0.227747 0.062362 0.00817769 0.000413463 5.37624e-06 2.10634e-08 8.48696e-11 1.27106e-11 -1.93688e-15 4.57986e-15 -3.48004e-14 1.24075e-11 -1.23691e-11 -1.23954e-11 2.47529e-11 0 0 0.105629 0.210685 0.314781 0.418031 0.519381 0.615582 0.700456 0.76666 0.798916 0.783931 0.699388 0.52926 0.306145 0.123542 0.0290817 0.00332803 0.000145191 1.7615e-06 9.00504e-09 6.23583e-11 2.85752e-13 -3.09223e-14 1.44927e-14 4.35723e-15 -3.43487e-14 1.63149e-14 -3.8655e-15 -4.47365e-14 -2.10306e-11 0 0 0.102573 0.201943 0.296924 0.386028 0.465518 0.529309 0.569419 0.574717 0.532921 0.433142 0.288591 0.145551 0.0489162 0.00915944 0.000834753 2.79149e-05 2.96747e-07 2.31751e-09 1.9449e-11 9.91002e-14 5.56551e-14 -4.3773e-14 4.35504e-14 -5.78115e-14 3.39829e-14 -4.04776e-14 -2.10449e-11 3.33639e-11 -3.33288e-11 0 0 0.0854116 0.164139 0.233819 0.291056 0.330304 0.344632 0.327728 0.276299 0.198242 0.113546 0.0462065 0.0115558 0.00160039 0.00010174 2.39717e-06 2.56469e-08 3.77611e-10 -2.15622e-11 2.47338e-11 -1.60445e-14 -2.46912e-11 2.47271e-11 -2.47271e-11 2.4719e-11 -6.9141e-15 -2.47345e-14 -6.68234e-11 6.68066e-11 8.03624e-14 0 0 0.0494865 0.0914471 0.122278 0.138779 0.138595 0.122092 0.092005 0.055527 0.0241981 0.00689848 0.00119064 0.000107424 4.25883e-06 7.82339e-08 1.48336e-09 2.60327e-11 1.267e-11 -1.23719e-11 -1.23686e-14 -1.11646e-14 3.49545e-14 1.23421e-11 -2.47328e-11 2.47362e-11 -4.92949e-14 -3.34113e-11 6.84635e-14 -7.86106e-14 3.34951e-11 0 0 0.0133488 0.0234789 0.0282533 0.0270309 0.0207204 0.0121749 0.0051783 0.00151656 0.000282978 2.95733e-05 1.57393e-06 4.76718e-08 1.58356e-09 3.36358e-11 8.40955e-13 1.23558e-11 -3.34168e-11 3.34292e-11 -1.23499e-11 -3.50878e-14 1.24128e-11 -1.23872e-11 -2.93895e-14 -2.1065e-11 -1.07221e-14 5.534e-14 -6.0326e-14 4.80898e-14 -5.56721e-14 0 0 0.000549898 0.000811873 0.000723781 0.000447267 0.000192622 5.58863e-05 1.03505e-05 1.16714e-06 8.34841e-08 5.25327e-09 3.4828e-10 -1.58347e-11 3.39171e-11 -1.23299e-11 1.34991e-14 1.23209e-11 -3.34161e-11 2.10728e-11 2.50431e-14 1.23526e-11 -1.23536e-11 -1.23955e-11 2.46949e-11 -3.34218e-11 1.02416e-14 4.10147e-14 -4.80898e-14 5.08958e-14 -5.16923e-14 0 0 1.93403e-07 2.28974e-07 1.42998e-07 5.65546e-08 1.57499e-08 3.55982e-09 6.91579e-10 1.177e-10 -1.40502e-12 1.31796e-11 -1.23392e-11 1.41868e-11 -1.23943e-11 3.25432e-14 1.23959e-14 -5.51411e-14 1.24127e-11 -2.47702e-11 1.23943e-11 1.241e-11 -1.2398e-11 -4.81501e-14 -2.10853e-11 3.34689e-11 -2.85534e-14 -3.33907e-11 -4.04556e-14 5.00473e-14 3.34228e-11 0 0 0 0 0 0 0 0 0 0 0 0 0 0 0 0 0 0 0 0 0 0 0 0 0 0 0 0 0 0 0 0
				</DataArray>
				<DataArray Name="VitesseY" type="Float32" format="ascii">
 0 0 0 0 0 0 0 0 0 0 0 0 0 0 0 0 0 0 0 0 0 0 0 0 0 0 0 0 0 0 0 0.0183193 0.286375 0.250338 0.170558 0.0895168 0.0614822 0.0571711 0.0592995 0.0687189 0.0742418 0.076338 0.0773765 0.0778364 0.0778407 0.0776985 0.0776612 0.077944 0.0787945 0.080306 0.0827314 0.0857235 0.089384 0.0991707 0.10563 0.102574 0.0854126 0.0494875 0.0133492 0.000549936 1.9344e-07 0 -0.165601 0.262991 0.3316 0.256763 0.190032 0.162326 0.159672 0.162365 0.163838 0.163809 0.162324 0.161558 0.160761 0.159643 0.158354 0.157557 0.157558 0.158658 0.161439 0.166338 0.17249 0.180837 0.200937 0.210686 0.201944 0.164141 0.0914491 0.0234797 0.000811928 2.29004e-07 0 -0.182857 0.214499 0.404795 0.39083 0.341505 0.280859 0.270868 0.273339 0.269144 0.264239 0.257444 0.251998 0.247825 0.24408 0.240986 0.239121 0.238815 0.240185 0.244366 0.252076 0.26169 0.27561 0.305166 0.314783 0.296927 0.233823 0.122281 0.0282542 0.000723828 1.43016e-07 0 -0.0302654 0.25085 0.460547 0.488164 0.453431 0.413175 0.401022 0.392048 0.381041 0.370778 0.358577 0.347408 0.338499 0.331519 0.326269 0.323294 0.322743 0.324381 0.329946 0.340414 0.35316 0.373789 0.411574 0.418034 0.386032 0.291061 0.138782 0.0270317 0.000447295 5.65611e-08 0 0.12833 0.323343 0.511233 0.542255 0.520081 0.502468 0.487975 0.481685 0.480872 0.474061 0.46146 0.44576 0.432411 0.422327 0.415024 0.410935 0.410122 0.411916 0.418693 0.43144 0.446746 0.476542 0.519488 0.519384 0.465522 0.330308 0.138597 0.020721 0.000192633 1.57515e-08 0 0.274899 0.390235 0.519943 0.577896 0.595605 0.584277 0.574231 0.577096 0.57717 0.571043 0.559822 0.543536 0.527501 0.51557 0.506996 0.502187 0.501205 0.503049 0.510986 0.525306 0.543161 0.58651 0.627536 0.615585 0.529313 0.344636 0.122093 0.0121752 5.58891e-05 3.56009e-09 0 0.415865 0.502256 0.595814 0.642176 0.660724 0.662463 0.666446 0.667278 0.664758 0.661131 0.653113 0.639279 0.622753 0.610082 0.601092 0.59626 0.595309 0.597444 0.606959 0.621982 0.64434 0.704099 0.733468 0.700459 0.569423 0.327731 0.0920058 0.00517838 1.03509e-05 6.9162e-10 0 0.53191 0.592227 0.6534 0.699582 0.733191 0.74743 0.751122 0.751405 0.752064 0.750518 0.744201 0.73248 0.717404 0.705062 0.696553 0.692367 0.691499 0.694806 0.706326 0.721156 0.754262 0.825626 0.835994 0.766662 0.57472 0.2763 0.0555272 0.00151657 1.16718e-06 1.17704e-10 0 0.645995 0.6882 0.726524 0.764383 0.800115 0.821645 0.832864 0.838445 0.840236 0.839287 0.834099 0.824132 0.811132 0.799861 0.793042 0.789806 0.789387 0.795406 0.808056 0.823835 0.879898 0.943597 0.926285 0.798917 0.532921 0.198242 0.024198 0.000282976 8.34848e-08 -1.40468e-12 0 0.751233 0.780569 0.806794 0.836954 0.870271 0.897121 0.91421 0.923537 0.927081 0.926916 0.923416 0.915807 0.904194 0.895058 0.890401 0.887782 0.88948 0.899367 0.910443 0.935973 1.02076 1.05057 0.986038 0.783931 0.433141 0.113545 0.00689839 2.95728e-05 5.25324e-09 1.31796e-11 0 0.854608 0.874668 0.893429 0.917067 0.945306 0.972659 0.993465 1.00717 1.0132 1.01413 1.01257 1.00654 0.997681 0.991545 0.987641 0.986878 0.993934 1.00429 1.01453 1.07149 1.15432 1.13906 0.998552 0.699385 0.288589 0.0462058 0.00119061 1.57388e-06 3.48273e-10 -1.23392e-11 0 0.956746 0.969255 0.9833 1.00213 1.02593 1.05231 1.07458 1.09004 1.09864 1.10154 1.10041 1.09683 1.09267 1.0878 1.08538 1.09061 1.10156 1.10624 1.13383 1.23361 1.26254 1.17751 0.942197 0.529257 0.14555 0.0115555 0.00010742 4.76698e-08 -1.58352e-11 1.41868e-11 0 1.05967 1.06585 1.07666 1.09239 1.11286 1.13687 1.1585 1.17446 1.18427 1.18826 1.18913 1.18902 1.18677 1.18378 1.18812 1.20012 1.20335 1.21437 1.29618 1.37181 1.32883 1.147 0.780993 0.306142 0.0489155 0.00160034 4.25862e-06 1.5835e-09 3.39171e-11 -1.23943e-11 0 1.16361 1.16478 1.17353 1.18706 1.20455 1.22536 1.24545 1.2606 1.27071 1.27712 1.28097 1.28157 1.28078 1.28593 1.29865 1.30168 1.30532 1.36478 1.47117 1.45942 1.31792 1.00601 0.507901 0.12354 0.00915922 0.000101736 7.82296e-08 3.36337e-11 -1.23299e-11 3.25432e-14 0 1.26871 1.26605 1.27361 1.28529 1.30001 1.31738 1.33524 1.34985 1.36123 1.36907 1.37299 1.37591 1.38412 1.39689 1.39915 1.40037 1.44836 1.56564 1.57584 1.46228 1.19446 0.713315 0.227745 0.0290811 0.000834726 2.39705e-06 1.48329e-09 8.40862e-13 1.34991e-14 1.23959e-14 0 1.37554 1.37022 1.37697 1.38694 1.39926 1.4139 1.42982 1.4438 1.4546 1.46258 1.47072 1.48295 1.49397 1.49488 1.49712 1.5457 1.66549 1.68548 1.58583 1.34678 0.89239 0.344573 0.0623612 0.00332795 2.79138e-05 2.56456e-08 2.60314e-11 1.23558e-11 1.23209e-11 -5.51411e-14 0 1.48556 1.47879 1.4848 1.49308 1.50308 1.51505 1.52844 1.54143 1.55384 1.56728 1.58107 1.58838 1.58902 1.59758 1.65927 1.77697 1.78899 1.69047 1.4649 1.0296 0.451341 0.101576 0.00817758 0.000145187 2.96734e-07 3.77596e-10 1.26701e-11 -3.34168e-11 -3.34161e-11 1.24127e-11 0 1.59855 1.59132 1.59639 1.60305 1.61133 1.62197 1.63521 1.65029 1.66517 1.67596 1.68103 1.6854 1.71083 1.79734 1.89653 1.88351 1.77487 1.5479 1.11685 0.525537 0.134816 0.014168 0.000413457 1.76145e-06 2.31743e-09 -2.15624e-11 -1.23719e-11 3.34292e-11 2.10728e-11 -2.47702e-11 0 1.71723 1.71048 1.715 1.72099 1.72888 1.73892 1.75041 1.76131 1.76945 1.77768 1.79799 1.85646 1.9598 2.00723 1.95934 1.83354 1.58946 1.14573 0.551082 0.150965 0.0185414 0.000738866 5.37611e-06 9.00485e-09 1.94487e-11 2.47338e-11 -1.23686e-14 -1.23499e-11 2.50431e-14 1.23943e-11 0 1.8416 1.83511 1.83729 1.84054 1.84548 1.85236 1.86174 1.87624 1.90427 1.96072 2.04855 2.10655 2.089 2.00715 1.85569 1.57646 1.10468 0.519344 0.14376 0.0188629 0.000893162 9.16782e-06 2.10631e-08 6.23566e-11 9.90903e-14 -1.60445e-14 -1.11646e-14 -3.50878e-14 1.23526e-11 1.241e-11 0 1.96771 1.96204 1.96419 1.97088 1.98499 2.01014 2.05171 2.11348 2.17607 2.20836 2.1898 2.12483 2.01394 1.81936 1.48816 0.98079 0.431713 0.114563 0.0148652 0.000746857 9.18228e-06 2.8155e-08 8.48692e-11 2.85742e-13 5.56549e-14 -2.46912e-11 3.49545e-14 1.24128e-11 -1.23536e-11 -1.2398e-11 0 2.20353 2.20196 2.21345 2.23458 2.26219 2.28916 2.30396 2.29588 2.26146 2.2015 2.10493 1.94626 1.69013 1.29685 0.769575 0.30459 0.073193 0.00875776 0.00042109 5.40077e-06 2.11578e-08 1.09737e-10 1.27106e-11 -3.09223e-14 -4.3773e-14 2.47271e-11 1.23421e-11 -1.23872e-11 -1.23955e-11 -4.81501e-14 0 2.4003 2.39215 2.38328 2.3714 2.35339 2.32579 2.28529 2.22212 2.12525 1.97647 1.75331 1.42792 0.98273 0.500191 0.170756 0.0347192 0.00358266 0.000148279 1.77509e-06 9.091e-09 3.79275e-11 2.96786e-13 -1.93688e-15 1.44927e-14 4.35504e-14 -2.47271e-11 -2.47328e-11 -2.93895e-14 2.46949e-11 -2.10853e-11 0 2.32289 2.31101 2.28969 2.25706 2.20835 2.13636 2.03063 1.88065 1.67075 1.38152 1.00361 0.580155 0.241444 0.0670667 0.0108157 0.000890168 2.84839e-05 3.00724e-07 2.35021e-09 1.96071e-11 2.48073e-11 -5.11948e-14 4.57986e-15 4.35723e-15 -5.78115e-14 2.4719e-11 2.47362e-11 -2.1065e-11 -3.34218e-11 3.34689e-11 0 1.96531 1.94788 1.90488 1.8343 1.73016 1.58431 1.38784 1.13256 0.820135 0.490135 0.223268 0.0727058 0.0150975 0.00181914 0.000106751 2.44739e-06 2.63314e-08 3.58692e-10 3.22388e-12 3.11059e-14 4.88778e-16 -3.02038e-15 -3.48004e-14 -3.43487e-14 3.39829e-14 -6.9141e-15 -4.92949e-14 -1.07221e-14 1.02416e-14 -2.85534e-14 0 1.1894 1.16685 1.10239 0.996357 0.849267 0.665626 0.460141 0.266148 0.12327 0.0420601 0.00977645 0.00143652 0.000116775 4.42217e-06 8.11729e-08 1.50957e-09 2.6582e-11 1.26571e-11 1.23737e-11 1.05881e-14 -2.47001e-11 3.44827e-14 1.24075e-11 1.63149e-14 -4.04776e-14 -2.47345e-14 -3.34113e-11 5.534e-14 4.10147e-14 -3.33907e-11 0 0.273839 0.260432 0.223306 0.170915 0.113967 0.0634979 0.0280913 0.00937185 0.00223527 0.000353421 3.31395e-05 1.67671e-06 5.08537e-08 1.60936e-09 6.0018e-11 2.56117e-11 1.24012e-11 -3.34376e-11 -3.344e-11 1.23867e-11 2.4736e-11 1.23553e-11 -1.23691e-11 -3.8655e-15 -2.10449e-11 -6.68234e-11 6.84635e-14 -6.0326e-14 -4.80898e-14 -4.04556e-14 0 0.00621879 0.00559854 0.00406722 0.00234929 0.00104997 0.00034947 8.26804e-05 1.31904e-05 1.35989e-06 9.49497e-08 5.9577e-09 3.7717e-10 4.84251e-11 3.39309e-11 -1.23646e-11 -2.47515e-11 -1.24033e-11 3.34012e-11 2.10478e-11 -2.47604e-11 -1.2347e-11 -1.2345e-11 -1.23954e-11 -4.47365e-14 3.33639e-11 6.68066e-11 -7.86106e-14 4.80898e-14 5.08958e-14 5.00473e-14 0 1.42217e-06 1.20113e-06 7.24305e-07 3.138e-07 9.99727e-08 2.48151e-08 5.21274e-09 9.50875e-10 1.41351e-10 2.14245e-11 1.33266e-11 -8.66303e-12 -1.05203e-11 -1.2316e-11 3.05509e-14 2.47788e-11 5.35003e-14 -1.22982e-11 4.09149e-14 1.23753e-11 1.23885e-11 1.23995e-11 2.47529e-11 -2.10306e-11 -3.33288e-11 8.03624e-14 3.34951e-11 -5.56721e-14 -5.16923e-14 3.34228e-11 0 4.01246e-06 4.48489e-16 0 0 0 0 0 0 0 0 0 0 0 0 0 0 0 0 0 0 0 0 0 0 0 0 0 0 0 0 0
				</DataArray>
			</PointData>
			<CellData Scalars="Density">
				<DataArray Name="Density" type="Float32" format="ascii">