<?xml version="1.0"?>
<VTKFile type="PolyData">
	<PolyData>
		<Piece NumberOfPoints="961" NumberOfPolys="900">
			<Points>
				<DataArray type="Float32" NumberOfComponents="3" format="ascii">
 0 0 0 0.04 0 0 0.08 0 0 0.12 0 0 0.16 0 0 0.2 0 0 0.24 0 0 0.28 0 0 0.32 0 0 0.36 0 0 0.4 0 0 0.44 0 0 0.48 0 0 0.52 0 0 0.56 0 0 0.6 0 0 0.64 0 0 0.68 0 0 0.72 0 0 0.76 0 0 0.8 0 0 0.84 0 0 0.88 0 0 0.92 0 0 0.96 0 0 1 0 0 1.04 0 0 1.08 0 0 1.12 0 0 1.16 0 0 1.2 0 0 0 0.04 0 0.04 0.04 0 0.08 0.04 0 0.12 0.04 0 0.16 0.04 0 0.2 0.04 0 0.24 0.04 0 0.28 0.04 0 0.32 0.04 0 0.36 0.04 0 0.4 0.04 0 0.44 0.04 0 0.48 0.04 0 0.52 0.04 0 0.56 0.04 0 0.6 0.04 0 0.64 0.04 0 0.68 0.04 0 0.72 0.04 0 0.76 0.04 0 0.8 0.04 0 0.84 0.04 0 0.88 0.04 0 0.92 0.04 0 0.96 0.04 0 1 0.04 0 1.04 0.04 0 1.08 0.04 0 1.12 0.04 0 1.16 0.04 0 1.2 0.04 0 0 0.08 0 0.04 0.08 0 0.08 0.08 0 0.12 0.08 0 0.16 0.08 0 0.2 0.08 0 0.24 0.08 0 0.28 0.08 0 0.32 0.08 0 0.36 0.08 0 0.4 0.08 0 0.44 0.08 0 0.48 0.08 0 0.52 0.08 0 0.56 0.08 0 0.6 0.08 0 0.64 0.08 0 0.68 0.08 0 0.72 0.08 0 0.76 0.08 0 0.8 0.08 0 0.84 0.08 0 0.88 0.08 0 0.92 0.08 0 0.96 0.08 0 1 0.08 0 1.04 0.08 0 1.08 0.08 0 1.12 0.08 0 1.16 0.08 0 1.2 0.08 0 0 0.12 0 0.04 0.12 0 0.08 0.12 0 0.12 0.12 0 0.16 0.12 0 0.2 0.12 0 0.24 0.12 0 0.28 0.12 0 0.32 0.12 0 0.36 0.12 0 0.4 0.12 0 0.44 0.12 0 0.48 0.12 0 0.52 0.12 0 0.56 0.12 0 0.6 0.12 0 0.64 0.12 0 0.68 0.12 0 0.72 0.12 0 0.76 0.12 0 0.8 0.12 0 0.84 0.12 0 0.88 0.12 0 0.92 0.12 0 0.96 0.12 0 1 0.12 0 1.04 0.12 0 1.08 0.12 0 1.12 0.12 0 1.16 0.12 0 1.2 0.12 0 0 0.16 0 0.04 0.16 0 0.08 0.16 0 0.12 0.16 0 0.16 0.16 0 0.2 0.16 0 0.24 0.16 0 0.28 0.16 0 0.32 0.16 0 0.36 0.16 0 0.4 0.16 0 0.44 0.16 0 0.48 0.16 0 0.52 0.16 0 0.56 0.16 0 0.6 0.16 0 0.64 0.16 0 0.68 0.16 0 0.72 0.16 0 0.76 0.16 0 0.8 0.16 0 0.84 0.16 0 0.88 0.16 0 0.92 0.16 0 0.96 0.16 0 1 0.16 0 1.04 0.16 0 1.08 0.16 0 1.12 0.16 0 1.16 0.16 0 1.2 0.16 0 0 0.2 0 0.04 0.2 0 0.08 0.2 0 0.12 0.2 0 0.16 0.2 0 0.2 0.2 0 0.24 0.2 0 0.28 0.2 0 0.32 0.2 0 0.36 0.2 0 0.4 0.2 0 0.44 0.2 0 0.48 0.2 0 0.52 0.2 0 0.56 0.2 0 0.6 0.2 0 0.64 0.2 0 0.68 0.2 0 0.72 0.2 0 0.76 0.2 0 0.8 0.2 0 0.84 0.2 0 0.88 0.2 0 0.92 0.2 0 0.96 0.2 0 1 0.2 0 1.04 0.2 0 1.08 0.2 0 1.12 0.2 0 1.16 0.2 0 1.2 0.2 0 0 0.24 0 0.04 0.24 0 0.08 0.24 0 0.12 0.24 0 0.16 0.24 0 0.2 0.24 0 0.24 0.24 0 0.28 0.24 0 0.32 0.24 0 0.36 0.24 0 0.4 0.24 0 0.44 0.24 0 0.48 0.24 0 0.52 0.24 0 0.56 0.24 0 0.6 0.24 0 0.64 0.24 0 0.68 0.24 0 0.72 0.24 0 0.76 0.24 0 0.8 0.24 0 0.84 0.24 0 0.88 0.24 0 0.92 0.24 0 0.96 0.24 0 1 0.24 0 1.04 0.24 0 1.08 0.24 0 1.12 0.24 0 1.16 0.24 0 1.2 0.24 0 0 0.28 0 0.04 0.28 0 0.08 0.28 0 0.12 0.28 0 0.16 0.28 0 0.2 0.28 0 0.24 0.28 0 0.28 0.28 0 0.32 0.28 0 0.36 0.28 0 0.4 0.28 0 0.44 0.28 0 0.48 0.28 0 0.52 0.28 0 0.56 0.28 0 0.6 0.28 0 0.64 0.28 0 0.68 0.28 0 0.72 0.28 0 0.76 0.28 0 0.8 0.28 0 0.84 0.28 0 0.88 0.28 0 0.92 0.28 0 0.96 0.28 0 1 0.28 0 1.04 0.28 0 1.08 0.28 0 1.12 0.28 0 1.16 0.28 0 1.2 0.28 0 0 0.32 0 0.04 0.32 0 0.08 0.32 0 0.12 0.32 0 0.16 0.32 0 0.2 0.32 0 0.24 0.32 0 0.28 0.32 0 0.32 0.32 0 0.36 0.32 0 0.4 0.32 0 0.44 0.32 0 0.48 0.32 0 0.52 0.32 0 0.56 0.32 0 0.6 0.32 0 0.64 0.32 0 0.68 0.32 0 0.72 0.32 0 0.76 0.32 0 0.8 0.32 0 0.84 0.32 0 0.88 0.32 0 0.92 0.32 0 0.96 0.32 0 1 0.32 0 1.04 0.32 0 1.08 0.32 0 1.12 0.32 0 1.16 0.32 0 1.2 0.32 0 0 0.36 0 0.04 0.36 0 0.08 0.36 0 0.12 0.36 0 0.16 0.36 0 0.2 0.36 0 0.24 0.36 0 0.28 0.36 0 0.32 0.36 0 0.36 0.36 0 0.4 0.36 0 0.44 0.36 0 0.48 0.36 0 0.52 0.36 0 0.56 0.36 0 0.6 0.36 0 0.64 0.36 0 0.68 0.36 0 0.72 0.36 0 0.76 0.36 0 0.8 0.36 0 0.84 0.36 0 0.88 0.36 0 0.92 0.36 0 0.96 0.36 0 1 0.36 0 1.04 0.36 0 1.08 0.36 0 1.12 0.36 0 1.16 0.36 0 1.2 0.36 0 0 0.4 0 0.04 0.4 0 0.08 0.4 0 0.12 0.4 0 0.16 0.4 0 0.2 0.4 0 0.24 0.4 0 0.28 0.4 0 0.32 0.4 0 0.36 0.4 0 0.4 0.4 0 0.44 0.4 0 0.48 0.4 0 0.52 0.4 0 0.56 0.4 0 0.6 0.4 0 0.64 0.4 0 0.68 0.4 0 0.72 0.4 0 0.76 0.4 0 0.8 0.4 0 0.84 0.4 0 0.88 0.4 0 0.92 0.4 0 0.96 0.4 0 1 0.4 0 1.04 0.4 0 1.08 0.4 0 1.12 0.4 0 1.16 0.4 0 1.2 0.4 0 0 0.44 0 0.04 0.44 0 0.08 0.44 0 0.12 0.44 0 0.16 0.44 0 0.2 0.44 0 0.24 0.44 0 0.28 0.44 0 0.32 0.44 0 0.36 0.44 0 0.4 0.44 0 0.44 0.44 0 0.48 0.44 0 0.52 0.44 0 0.56 0.44 0 0.6 0.44 0 0.64 0.44 0 0.68 0.44 0 0.72 0.44 0 0.76 0.44 0 0.8 0.44 0 0.84 0.44 0 0.88 0.44 0 0.92 0.44 0 0.96 0.44 0 1 0.44 0 1.04 0.44 0 1.08 0.44 0 1.12 0.44 0 1.16 0.44 0 1.2 0.44 0 0 0.48 0 0.04 0.48 0 0.08 0.48 0 0.12 0.48 0 0.16 0.48 0 0.2 0.48 0 0.24 0.48 0 0.28 0.48 0 0.32 0.48 0 0.36 0.48 0 0.4 0.48 0 0.44 0.48 0 0.48 0.48 0 0.52 0.48 0 0.56 0.48 0 0.6 0.48 0 0.64 0.48 0 0.68 0.48 0 0.72 0.48 0 0.76 0.48 0 0.8 0.48 0 0.84 0.48 0 0.88 0.48 0 0.92 0.48 0 0.96 0.48 0 1 0.48 0 1.04 0.48 0 1.08 0.48 0 1.12 0.48 0 1.16 0.48 0 1.2 0.48 0 0 0.52 0 0.04 0.52 0 0.08 0.52 0 0.12 0.52 0 0.16 0.52 0 0.2 0.52 0 0.24 0.52 0 0.28 0.52 0 0.32 0.52 0 0.36 0.52 0 0.4 0.52 0 0.44 0.52 0 0.48 0.52 0 0.52 0.52 0 0.56 0.52 0 0.6 0.52 0 0.64 0.52 0 0.68 0.52 0 0.72 0.52 0 0.76 0.52 0 0.8 0.52 0 0.84 0.52 0 0.88 0.52 0 0.92 0.52 0 0.96 0.52 0 1 0.52 0 1.04 0.52 0 1.08 0.52 0 1.12 0.52 0 1.16 0.52 0 1.2 0.52 0 0 0.56 0 0.04 0.56 0 0.08 0.56 0 0.12 0.56 0 0.16 0.56 0 0.2 0.56 0 0.24 0.56 0 0.28 0.56 0 0.32 0.56 0 0.36 0.56 0 0.4 0.56 0 0.44 0.56 0 0.48 0.56 0 0.52 0.56 0 0.56 0.56 0 0.6 0.56 0 0.64 0.56 0 0.68 0.56 0 0.72 0.56 0 0.76 0.56 0 0.8 0.56 0 0.84 0.56 0 0.88 0.56 0 0.92 0.56 0 0.96 0.56 0 1 0.56 0 1.04 0.56 0 1.08 0.56 0 1.12 0.56 0 1.16 0.56 0 1.2 0.56 0 0 0.6 0 0.04 0.6 0 0.08 0.6 0 0.12 0.6 0 0.16 0.6 0 0.2 0.6 0 0.24 0.6 0 0.28 0.6 0 0.32 0.6 0 0.36 0.6 0 0.4 0.6 0 0.44 0.6 0 0.48 0.6 0 0.52 0.6 0 0.56 0.6 0 0.6 0.6 0 0.64 0.6 0 0.68 0.6 0 0.72 0.6 0 0.76 0.6 0 0.8 0.6 0 0.84 0.6 0 0.88 0.6 0 0.92 0.6 0 0.96 0.6 0 1 0.6 0 1.04 0.6 0 1.08 0.6 0 1.12 0.6 0 1.16 0.6 0 1.2 0.6 0 0 0.64 0 0.04 0.64 0 0.08 0.64 0 0.12 0.64 0 0.16 0.64 0 0.2 0.64 0 0.24 0.64 0 0.28 0.64 0 0.32 0.64 0 0.36 0.64 0 0.4 0.64 0 0.44 0.64 0 0.48 0.64 0 0.52 0.64 0 0.56 0.64 0 0.6 0.64 0 0.64 0.64 0 0.68 0.64 0 0.72 0.64 0 0.76 0.64 0 0.8 0.64 0 0.84 0.64 0 0.88 0.64 0 0.92 0.64 0 0.96 0.64 0 1 0.64 0 1.04 0.64 0 1.08 0.64 0 1.12 0.64 0 1.16 0.64 0 1.2 0.64 0 0 0.68 0 0.04 0.68 0 0.08 0.68 0 0.12 0.68 0 0.16 0.68 0 0.2 0.68 0 0.24 0.68 0 0.28 0.68 0 0.32 0.68 0 0.36 0.68 0 0.4 0.68 0 0.44 0.68 0 0.48 0.68 0 0.52 0.68 0 0.56 0.68 0 0.6 0.68 0 0.64 0.68 0 0.68 0.68 0 0.72 0.68 0 0.76 0.68 0 0.8 0.68 0 0.84 0.68 0 0.88 0.68 0 0.92 0.68 0 0.96 0.68 0 1 0.68 0 1.04 0.68 0 1.08 0.68 0 1.12 0.68 0 1.16 0.68 0 1.2 0.68 0 0 0.72 0 0.04 0.72 0 0.08 0.72 0 0.12 0.72 0 0.16 0.72 0 0.2 0.72 0 0.24 0.72 0 0.28 0.72 0 0.32 0.72 0 0.36 0.72 0 0.4 0.72 0 0.44 0.72 0 0.48 0.72 0 0.52 0.72 0 0.56 0.72 0 0.6 0.72 0 0.64 0.72 0 0.68 0.72 0 0.72 0.72 0 0.76 0.72 0 0.8 0.72 0 0.84 0.72 0 0.88 0.72 0 0.92 0.72 0 0.96 0.72 0 1 0.72 0 1.04 0.72 0 1.08 0.72 0 1.12 0.72 0 1.16 0.72 0 1.2 0.72 0 0 0.76 0 0.04 0.76 0 0.08 0.76 0 0.12 0.76 0 0.16 0.76 0 0.2 0.76 0 0.24 0.76 0 0.28 0.76 0 0.32 0.76 0 0.36 0.76 0 0.4 0.76 0 0.44 0.76 0 0.48 0.76 0 0.52 0.76 0 0.56 0.76 0 0.6 0.76 0 0.64 0.76 0 0.68 0.76 0 0.72 0.76 0 0.76 0.76 0 0.8 0.76 0 0.84 0.76 0 0.88 0.76 0 0.92 0.76 0 0.96 0.76 0 1 0.76 0 1.04 0.76 0 1.08 0.76 0 1.12 0.76 0 1.16 0.76 0 1.2 0.76 0 0 0.8 0 0.04 0.8 0 0.08 0.8 0 0.12 0.8 0 0.16 0.8 0 0.2 0.8 0 0.24 0.8 0 0.28 0.8 0 0.32 0.8 0 0.36 0.8 0 0.4 0.8 0 0.44 0.8 0 0.48 0.8 0 0.52 0.8 0 0.56 0.8 0 0.6 0.8 0 0.64 0.8 0 0.68 0.8 0 0.72 0.8 0 0.76 0.8 0 0.8 0.8 0 0.84 0.8 0 0.88 0.8 0 0.92 0.8 0 0.96 0.8 0 1 0.8 0 1.04 0.8 0 1.08 0.8 0 1.12 0.8 0 1.16 0.8 0 1.2 0.8 0 0 0.84 0 0.04 0.84 0 0.08 0.84 0 0.12 0.84 0 0.16 0.84 0 0.2 0.84 0 0.24 0.84 0 0.28 0.84 0 0.32 0.84 0 0.36 0.84 0 0.4 0.84 0 0.44 0.84 0 0.48 0.84 0 0.52 0.84 0 0.56 0.84 0 0.6 0.84 0 0.64 0.84 0 0.68 0.84 0 0.72 0.84 0 0.76 0.84 0 0.8 0.84 0 0.84 0.84 0 0.88 0.84 0 0.92 0.84 0 0.96 0.84 0 1 0.84 0 1.04 0.84 0 1.08 0.84 0 1.12 0.84 0 1.16 0.84 0 1.2 0.84 0 0 0.88 0 0.04 0.88 0 0.08 0.88 0 0.12 0.88 0 0.16 0.88 0 0.2 0.88 0 0.24 0.88 0 0.28 0.88 0 0.32 0.88 0 0.36 0.88 0 0.4 0.88 0 0.44 0.88 0 0.48 0.88 0 0.52 0.88 0 0.56 0.88 0 0.6 0.88 0 0.64 0.88 0 0.68 0.88 0 0.72 0.88 0 0.76 0.88 0 0.8 0.88 0 0.84 0.88 0 0.88 0.88 0 0.92 0.88 0 0.96 0.88 0 1 0.88 0 1.04 0.88 0 1.08 0.88 0 1.12 0.88 0 1.16 0.88 0 1.2 0.88 0 0 0.92 0 0.04 0.92 0 0.08 0.92 0 0.12 0.92 0 0.16 0.92 0 0.2 0.92 0 0.24 0.92 0 0.28 0.92 0 0.32 0.92 0 0.36 0.92 0 0.4 0.92 0 0.44 0.92 0 0.48 0.92 0 0.52 0.92 0 0.56 0.92 0 0.6 0.92 0 0.64 0.92 0 0.68 0.92 0 0.72 0.92 0 0.76 0.92 0 0.8 0.92 0 0.84 0.92 0 0.88 0.92 0 0.92 0.92 0 0.96 0.92 0 1 0.92 0 1.04 0.92 0 1.08 0.92 0 1.12 0.92 0 1.16 0.92 0 1.2 0.92 0 0 0.96 0 0.04 0.96 0 0.08 0.96 0 0.12 0.96 0 0.16 0.96 0 0.2 0.96 0 0.24 0.96 0 0.28 0.96 0 0.32 0.96 0 0.36 0.96 0 0.4 0.96 0 0.44 0.96 0 0.48 0.96 0 0.52 0.96 0 0.56 0.96 0 0.6 0.96 0 0.64 0.96 0 0.68 0.96 0 0.72 0.96 0 0.76 0.96 0 0.8 0.96 0 0.84 0.96 0 0.88 0.96 0 0.92 0.96 0 0.96 0.96 0 1 0.96 0 1.04 0.96 0 1.08 0.96 0 1.12 0.96 0 1.16 0.96 0 1.2 0.96 0 0 1 0 0.04 1 0 0.08 1 0 0.12 1 0 0.16 1 0 0.2 1 0 0.24 1 0 0.28 1 0 0.32 1 0 0.36 1 0 0.4 1 0 0.44 1 0 0.48 1 0 0.52 1 0 0.56 1 0 0.6 1 0 0.64 1 0 0.68 1 0 0.72 1 0 0.76 1 0 0.8 1 0 0.84 1 0 0.88 1 0 0.92 1 0 0.96 1 0 1 1 0 1.04 1 0 1.08 1 0 1.12 1 0 1.16 1 0 1.2 1 0 0 1.04 0 0.04 1.04 0 0.08 1.04 0 0.12 1.04 0 0.16 1.04 0 0.2 1.04 0 0.24 1.04 0 0.28 1.04 0 0.32 1.04 0 0.36 1.04 0 0.4 1.04 0 0.44 1.04 0 0.48 1.04 0 0.52 1.04 0 0.56 1.04 0 0.6 1.04 0 0.64 1.04 0 0.68 1.04 0 0.72 1.04 0 0.76 1.04 0 0.8 1.04 0 0.84 1.04 0 0.88 1.04 0 0.92 1.04 0 0.96 1.04 0 1 1.04 0 1.04 1.04 0 1.08 1.04 0 1.12 1.04 0 1.16 1.04 0 1.2 1.04 0 0 1.08 0 0.04 1.08 0 0.08 1.08 0 0.12 1.08 0 0.16 1.08 0 0.2 1.08 0 0.24 1.08 0 0.28 1.08 0 0.32 1.08 0 0.36 1.08 0 0.4 1.08 0 0.44 1.08 0 0.48 1.08 0 0.52 1.08 0 0.56 1.08 0 0.6 1.08 0 0.64 1.08 0 0.68 1.08 0 0.72 1.08 0 0.76 1.08 0 0.8 1.08 0 0.84 1.08 0 0.88 1.08 0 0.92 1.08 0 0.96 1.08 0 1 1.08 0 1.04 1.08 0 1.08 1.08 0 1.12 1.08 0 1.16 1.08 0 1.2 1.08 0 0 1.12 0 
[...]
			<PointData Scalars="VitesseX">
				<DataArray Name="VitesseX" type="Float32" format="ascii">
 0 -0.0503956 -0.0857218 -0.0123125 0.128701 0.280257 0.380405 0.416022 0.389655 0.352591 0.318812 0.299432 0.306466 0.335418 0.381113 0.436162 0.49166 0.544301 0.598429 0.641991 0.694057 0.708308 0.6167 0.292377 -0.163698 -0.390454 -0.359622 -0.269649 -0.179862 -0.0887676 0 0 0.0624607 0.0680992 0.111054 0.19331 0.285026 0.359759 0.364105 0.328721 0.290163 0.269358 0.268432 0.284295 0.319731 0.370721 0.428935 0.48703 0.541422 0.596396 0.639903 0.691625 0.705927 0.615333 0.29323 -0.161858 -0.389844 -0.360196 -0.27007 -0.18008 -0.0888362 0 0 -0.00183795 0.00204098 -0.000151487 0.00720647 0.032743 0.060934 0.094925 0.123577 0.142274 0.158401 0.183446 0.223213 0.276759 0.340529 0.407623 0.472153 0.530999 0.588332 0.632439 0.684048 0.699242 0.612272 0.297347 -0.154541 -0.386312 -0.360671 -0.270421 -0.180316 -0.0889375 0 0 -0.0805474 -0.120713 -0.130384 -0.13715 -0.145411 -0.140834 -0.110363 -0.0577773 -0.008298 0.0392434 0.0922377 0.152559 0.219521 0.292638 0.368482 0.440495 0.505963 0.567697 0.61463 0.668153 0.686328 0.606332 0.304569 -0.140822 -0.379049 -0.361192 -0.270901 -0.180705 -0.0891655 0 0 -0.118472 -0.173976 -0.192122 -0.206067 -0.219577 -0.220945 -0.191463 -0.142153 -0.0847473 -0.0288653 0.0303738 0.0942876 0.16135 0.233733 0.311472 0.389142 0.460646 0.527922 0.580656 0.63901 0.66338 0.594552 0.313648 -0.119493 -0.366211 -0.361728 -0.271613 -0.181309 -0.089563 0 0 -0.113587 -0.177391 -0.205372 -0.21609 -0.222726 -0.221219 -0.203219 -0.165854 -0.118001 -0.0620228 -0.00430897 0.0542395 0.115599 0.179926 0.250077 0.32466 0.398759 0.469657 0.529186 0.593322 0.626423 0.57303 0.322636 -0.0885829 -0.344749 -0.361176 -0.272484 -0.182056 -0.0900523 0 0 -0.0843417 -0.142079 -0.162209 -0.157059 -0.148288 -0.150554 -0.152282 -0.14294 -0.111303 -0.0660885 -0.0171753 0.0336333 0.0850529 0.138466 0.197254 0.262723 0.331009 0.399637 0.463796 0.530599 0.572217 0.537435 0.328329 -0.0459314 -0.310325 -0.355946 -0.27331 -0.182848 -0.0905634 0 0 -0.0256147 -0.0460057 -0.0552423 -0.0495502 -0.04525 -0.0437589 -0.0537789 -0.0665939 -0.0668999 -0.0442985 -0.00967305 0.0292012 0.0689133 0.110205 0.155621 0.208507 0.268038 0.329888 0.392879 0.454305 0.499746 0.483931 0.325992 0.00872717 -0.257027 -0.338244 -0.273356 -0.18355 -0.0910462 0 0 0.0522718 0.0816958 0.0722426 0.0528913 0.0374546 0.0339822 0.0319218 0.0180846 0.0032953 -0.0005032 0.0125816 0.0347121 0.0622275 0.0917068 0.124153 0.163433 0.211932 0.267161 0.32551 0.374355 0.413324 0.411235 0.309463 0.0704962 -0.179307 -0.29486 -0.26928 -0.183693 -0.0914876 0 0 0.0772853 0.13049 0.135447 0.114206 0.0893278 0.0712567 0.0694486 0.0707424 0.0569138 0.0398237 0.0337002 0.0412252 0.0574002 0.0767672 0.0984123 0.125806 0.162842 0.210259 0.260525 0.299999 0.324418 0.324833 0.273305 0.127296 -0.0778476 -0.215953 -0.245295 -0.181369 -0.091616 0 0 0.0756288 0.12791 0.135331 0.11682 0.0915105 0.0693372 0.0572819 0.0583101 0.06171 0.0537411 0.0401339 0.0331033 0.0381829 0.05196 0.071837 0.0907574 0.118142 0.156253 0.196015 0.229973 0.242645 0.236388 0.217637 0.159811 0.034752 -0.103051 -0.178473 -0.165408 -0.0897076 0 0 0.0649404 0.105046 0.110656 0.090307 0.0616218 0.0339743 0.0146222 0.00819257 0.012414 0.015779 0.0104144 0.00136771 -0.00374952 0.00611046 0.0238479 0.0473239 0.0723296 0.101229 0.132012 0.159524 0.167849 0.155125 0.148905 0.155571 0.12781 0.033017 -0.0661278 -0.109391 -0.0762166 0 0 0.0426536 0.0660159 0.0628491 0.0364851 0.00255248 -0.0272894 -0.0495049 -0.0601151 -0.0599851 -0.0543295 -0.0489497 -0.0511765 -0.0567432 -0.0600779 -0.0499998 -0.0236894 0.00926996 0.0360231 0.0624625 0.0846993 0.0943436 0.0854882 0.0690634 0.121485 0.17162 0.155612 0.0759797 -0.0014147 -0.0246198 0 0 0.0156233 0.0198422 0.00142732 -0.033699 -0.0710589 -0.102177 -0.122278 -0.132266 -0.134735 -0.132011 -0.127308 -0.121748 -0.121309 -0.12577 -0.125507 -0.111375 -0.0851186 -0.0517922 -0.0238198 -0.00352828 0.0104603 0.0207615 0.00431134 0.0602515 0.168028 0.223029 0.206086 0.138661 0.0799698 0 0 -0.00850414 -0.0276833 -0.0611939 -0.104887 -0.148496 -0.18007 -0.195948 -0.199848 -0.19959 -0.201647 -0.20254 -0.201193 -0.200108 -0.199626 -0.200643 -0.20098 -0.190676 -0.165828 -0.135141 -0.11293 -0.0924691 -0.0636974 -0.0333049 0.00351429 0.120356 0.231942 0.27178 0.250531 0.200361 0 0 -0.0295414 -0.0679483 -0.121373 -0.180342 -0.22668 -0.252984 -0.262424 -0.260889 -0.255136 -0.253465 -0.262098 -0.272514 -0.277255 -0.280292 -0.286606 -0.293491 -0.295129 -0.287992 -0.26961 -0.241006 -0.210702 -0.170614 -0.0802986 -0.016016 0.0607706 0.187602 0.271589 0.277485 0.255662 0 0 -0.0448661 -0.0973745 -0.1576 -0.214469 -0.258146 -0.286238 -0.299863 -0.302246 -0.29776 -0.293825 -0.300787 -0.320027 -0.33921 -0.357747 -0.375314 -0.392708 -0.408945 -0.416847 -0.413533 -0.389778 -0.33849 -0.275904 -0.166447 -0.0351494 0.0282061 0.111306 0.204404 0.228693 0.229868 0 0 -0.0556815 -0.111949 -0.166774 -0.216427 -0.257241 -0.284698 -0.300347 -0.308558 -0.312596 -0.3162 -0.323214 -0.343018 -0.378619 -0.416554 -0.453379 -0.490812 -0.528813 -0.560734 -0.572173 -0.551377 -0.489184 -0.387724 -0.270395 -0.120244 -0.0117031 0.0390744 0.0834984 0.118667 0.149416 0 0 -0.0634108 -0.117108 -0.162851 -0.203669 -0.236843 -0.261122 -0.278029 -0.290308 -0.30107 -0.312971 -0.329472 -0.354879 -0.394459 -0.448411 -0.508011 -0.574231 -0.64478 -0.705764 -0.737972 -0.72565 -0.665115 -0.543351 -0.399146 -0.26407 -0.122098 -0.0551961 -0.0479512 -0.0191107 0.0486734 0 0 -0.0674012 -0.114624 -0.146214 -0.170512 -0.191974 -0.212906 -0.231117 -0.246729 -0.265632 -0.290324 -0.319326 -0.353994 -0.39973 -0.458261 -0.536432 -0.629485 -0.734203 -0.831989 -0.895554 -0.907961 -0.85296 -0.744197 -0.588092 -0.438651 -0.309538 -0.210379 -0.18152 -0.141727 -0.0559597 0 0 -0.0651656 -0.101439 -0.113183 -0.118445 -0.12661 -0.143923 -0.169038 -0.195883 -0.224795 -0.258872 -0.299436 -0.344254 -0.394261 -0.460959 -0.544991 -0.653883 -0.781597 -0.912919 -1.01868 -1.06193 -1.02925 -0.932581 -0.798803 -0.652024 -0.519479 -0.405681 -0.31185 -0.228587 -0.148898 0 0 -0.0492045 -0.0685737 -0.0616092 -0.0518159 -0.0528982 -0.073718 -0.11333 -0.160219 -0.204313 -0.245892 -0.288087 -0.335909 -0.389746 -0.451967 -0.536778 -0.649651 -0.789181 -0.944303 -1.07778 -1.14771 -1.13957 -1.05734 -0.945094 -0.819875 -0.681734 -0.553093 -0.410363 -0.286671 -0.206876 0 0 -0.0124266 -0.0112336 0.00270699 0.0101207 0.00135784 -0.0274568 -0.077554 -0.141972 -0.205414 -0.254965 -0.29563 -0.336591 -0.38974 -0.450531 -0.519712 -0.611948 -0.755922 -0.932853 -1.08611 -1.16632 -1.16798 -1.10342 -1.00607 -0.902732 -0.769846 -0.627424 -0.468939 -0.324394 -0.222622 0 0 0.0325578 0.0485706 0.0500221 0.0445445 0.0254211 -0.00884832 -0.0622103 -0.139862 -0.223345 -0.287091 -0.324689 -0.352218 -0.386412 -0.437122 -0.504416 -0.571555 -0.689853 -0.883278 -1.05117 -1.13661 -1.14577 -1.09811 -1.01128 -0.918027 -0.796984 -0.651235 -0.495588 -0.340125 -0.210972 0 0 0.0515995 0.0703385 0.0626882 0.0477266 0.0229701 -0.0128685 -0.0647771 -0.142663 -0.237702 -0.318394 -0.367838 -0.392146 -0.398633 -0.416691 -0.46042 -0.528385 -0.639166 -0.813114 -0.984556 -1.07319 -1.07903 -1.04168 -0.971373 -0.890993 -0.792014 -0.652816 -0.501262 -0.340357 -0.182459 0 0 0.0424441 0.0533541 0.0358712 0.0163995 -0.00865692 -0.0342872 -0.0720504 -0.13512 -0.221787 -0.31137 -0.382098 -0.426314 -0.438074 -0.431089 -0.434758 -0.484681 -0.609554 -0.772877 -0.920917 -0.98959 -0.983186 -0.940688 -0.88604 -0.826811 -0.750531 -0.638828 -0.495719 -0.334745 -0.160852 0 0 0.00358409 -0.00828184 -0.0247901 -0.0386279 -0.0463218 -0.0547737 -0.0710855 -0.106869 -0.167797 -0.251305 -0.342877 -0.42181 -0.470113 -0.479963 -0.470543 -0.487045 -0.605508 -0.77662 -0.891339 -0.927281 -0.898471 -0.839869 -0.788212 -0.741796 -0.68567 -0.600218 -0.48191 -0.330588 -0.161868 0 0 -0.041913 -0.0606536 -0.0791549 -0.0727842 -0.0707731 -0.0659599 -0.0675451 -0.0751776 -0.103443 -0.163684 -0.258736 -0.37373 -0.470516 -0.528792 -0.54934 -0.569453 -0.65913 -0.799038 -0.883975 -0.897647 -0.847389 -0.772048 -0.712936 -0.660813 -0.609503 -0.544297 -0.451732 -0.328876 -0.18313 0 0 -0.0692788 -0.141595 -0.0992045 -0.0877319 -0.0814035 -0.0792266 -0.0713378 -0.0664311 -0.0589017 -0.0821205 -0.15783 -0.283689 -0.436733 -0.568739 -0.657542 -0.726167 -0.809471 -0.892465 -0.92751 -0.910047 -0.83583 -0.735199 -0.649353 -0.580438 -0.523467 -0.464833 -0.402084 -0.335014 -0.166684 0 0 -0.379993 -0.164998 -0.10724 -0.0811731 -0.078751 -0.082817 -0.0822719 -0.0604859 -0.0388934 -0.0327987 -0.0737626 -0.170784 -0.332006 -0.545969 -0.763532 -0.942218 -1.06557 -1.12178 -1.11573 -1.01653 -0.852452 -0.678385 -0.534515 -0.430301 -0.36197 -0.31685 -0.274773 -0.22874 -0.205901 0 0 0 0 0 0 0 0 0 0 0 0 0 0 0 0 0 0 0 0 0 0 0 0 0 0 0 0 0 0 0 0
				</DataArray>
				<DataArray Name="VitesseY" type="Float32" format="ascii">
 0 0 0 0 0 0 0 0 0 0 0 0 0 0 0 0 0 0 0 0 0 0 0 0 0 0 0 0 0 0 0 -0.0373999 0.077193 0.00433731 -0.0688895 -0.102691 -0.0888491 -0.0342426 0.0459573 0.0672135 0.059582 0.0458125 0.0251547 0.00208159 -0.016832 -0.0298392 -0.0325329 -0.0321597 -0.029925 -0.0258127 -0.0206747 -0.0158193 -0.011395 -0.00692411 -0.00216272 0.00203544 0.00357991 0.000942168 -0.00215731 -0.00414403 -0.00470837 0 -0.0629134 0.0939599 0.0299233 -0.0834279 -0.125989 -0.131049 -0.0430792 0.0681386 0.10336 0.0944725 0.0665105 0.0307563 -0.00915484 -0.0448433 -0.0666364 -0.0701751 -0.0682731 -0.0621228 -0.0524153 -0.0412323 -0.0316453 -0.0230719 -0.0145575 -0.00536966 0.00330514 0.00697992 0.00190009 -0.00435331 -0.00834736 -0.00947949 0 0.0158887 0.149328 0.0627189 -0.0526643 -0.10566 -0.116998 -0.0382282 0.0505454 0.0911394 0.089868 0.0584377 0.0113327 -0.0397423 -0.0849668 -0.113371 -0.115914 -0.110923 -0.0986834 -0.0813978 -0.0631573 -0.0487351 -0.0362582 -0.0242052 -0.011021 0.00273656 0.00989867 0.0030614 -0.00637721 -0.0124599 -0.0142396 0 0.162641 0.253319 0.106191 -0.0165771 -0.0693947 -0.0798565 -0.0269538 0.0308032 0.0605111 0.0647011 0.03125 -0.022894 -0.0794187 -0.129363 -0.164583 -0.168661 -0.160525 -0.141077 -0.115089 -0.0894586 -0.0697881 -0.0536684 -0.038655 -0.0216707 -0.00152611 0.0115548 0.00456059 -0.00809904 -0.0164058 -0.0189159 0 0.332163 0.367634 0.163055 0.0245151 -0.0341297 -0.043287 -0.0121349 0.0199781 0.036034 0.0352894 -0.000448285 -0.057291 -0.117146 -0.170149 -0.210833 -0.221861 -0.212967 -0.18836 -0.154978 -0.122475 -0.0975888 -0.0788394 -0.0620873 -0.0415226 -0.0128842 0.00954996 0.00582208 -0.00948816 -0.0201177 -0.0234155 0 0.473964 0.475748 0.228558 0.0590306 -0.0112639 -0.016738 0.0135921 0.0294306 0.0311521 0.0120679 -0.0275747 -0.0859934 -0.147219 -0.203334 -0.246581 -0.267471 -0.261163 -0.236146 -0.199254 -0.161548 -0.133124 -0.114278 -0.0985133 -0.0758591 -0.0368293 -0.000628994 0.00546535 -0.0105707 -0.0235026 -0.027659 0 0.562082 0.549767 0.284828 0.08418 0.00451702 0.00601276 0.0431337 0.0628966 0.0526198 0.0104336 -0.0425491 -0.104458 -0.167585 -0.225001 -0.270995 -0.300567 -0.300309 -0.279348 -0.242306 -0.202382 -0.174339 -0.15938 -0.149105 -0.128666 -0.0805456 -0.0257259 -0.000665463 -0.0120024 -0.0266279 -0.0317105 0 0.584923 0.55226 0.325439 0.11424 0.039967 0.0333338 0.0692484 0.10041 0.0930029 0.0364193 -0.03635 -0.107916 -0.175332 -0.235257 -0.283744 -0.318758 -0.32934 -0.314494 -0.280452 -0.241015 -0.216098 -0.208212 -0.209285 -0.198499 -0.148875 -0.0749719 -0.0216346 -0.0166184 -0.0300223 -0.0357563 0 0.549313 0.510295 0.336697 0.159426 0.0872152 0.077911 0.0979741 0.126987 0.130473 0.0790199 -0.00721659 -0.0932758 -0.170519 -0.234811 -0.286469 -0.324197 -0.346245 -0.340883 -0.314079 -0.278561 -0.255358 -0.25301 -0.266039 -0.273688 -0.238279 -0.154783 -0.0735444 -0.0374421 -0.035734 -0.0402193 0 0.500729 0.457575 0.335736 0.199754 0.138299 0.128779 0.138808 0.151616 0.155203 0.11568 0.0322478 -0.0631817 -0.15225 -0.226267 -0.283131 -0.323916 -0.352234 -0.358465 -0.342675 -0.315 -0.292729 -0.290765 -0.308419 -0.335083 -0.328529 -0.26037 -0.162133 -0.0887326 -0.055096 -0.0469006 0 0.452595 0.416732 0.335756 0.238304 0.190201 0.182212 0.186753 0.186447 0.176704 0.137865 0.064838 -0.0279287 -0.122737 -0.210243 -0.277483 -0.325928 -0.354947 -0.369849 -0.366996 -0.350133 -0.33123 -0.326137 -0.338343 -0.370183 -0.393265 -0.365039 -0.279561 -0.183288 -0.110106 -0.0651591 0 0.41617 0.397083 0.343359 0.279517 0.247034 0.239478 0.237974 0.227754 0.203369 0.156754 0.0862513 -0.000581845 -0.0935576 -0.184994 -0.267537 -0.328827 -0.366727 -0.38474 -0.391153 -0.38417 -0.373097 -0.36503 -0.366242 -0.389267 -0.424406 -0.433064 -0.392454 -0.310202 -0.218389 -0.125282 0 0.407545 0.398829 0.365509 0.329997 0.309052 0.299497 0.290021 0.268695 0.232729 0.178902 0.104108 0.0168046 -0.0704534 -0.160858 -0.2496 -0.326177 -0.38086 -0.413149 -0.424151 -0.423858 -0.416631 -0.412603 -0.408024 -0.40168 -0.420682 -0.453838 -0.461209 -0.430223 -0.370522 -0.261814 0 0.427591 0.422965 0.4074 0.391066 0.377484 0.362633 0.339467 0.304867 0.259836 0.202022 0.125612 0.0353689 -0.0542527 -0.144174 -0.232264 -0.316093 -0.391587 -0.445069 -0.470831 -0.47644 -0.473572 -0.464772 -0.459884 -0.435679 -0.414572 -0.436858 -0.477894 -0.504706 -0.520457 -0.474617 0 0.469671 0.470278 0.468962 0.467239 0.454371 0.425683 0.384182 0.334248 0.279974 0.221185 0.151445 0.0608928 -0.0361127 -0.12869 -0.21851 -0.310232 -0.39813 -0.473068 -0.52388 -0.547196 -0.548407 -0.535191 -0.519948 -0.49407 -0.441083 -0.420908 -0.463018 -0.534619 -0.626606 -0.711448 0 0.530425 0.534767 0.546313 0.554333 0.533592 0.485958 0.426527 0.362253 0.298736 0.236533 0.17135 0.092544 -0.00638091 -0.105797 -0.206014 -0.306001 -0.405919 -0.500909 -0.580146 -0.630142 -0.64944 -0.634496 -0.591332 -0.55211 -0.503881 -0.454239 -0.46471 -0.552535 -0.704558 -0.910942 0 0.604803 0.610843 0.629343 0.637078 0.60773 0.545045 0.470289 0.393588 0.321223 0.254104 0.190648 0.122518 0.033914 -0.0737804 -0.185635 -0.297326 -0.411895 -0.530253 -0.641323 -0.724353 -0.765347 -0.764933 -0.721319 -0.656345 -0.611495 -0.579881 -0.573076 -0.633596 -0.7909 -1.04731 0 0.692829 0.694158 0.7074 0.710737 0.674961 0.600847 0.51316 0.427091 0.349155 0.280369 0.217435 0.152046 0.070083 -0.0333361 -0.153295 -0.277803 -0.410596 -0.552957 -0.69496 -0.815281 -0.889126 -0.914205 -0.900064 -0.846753 -0.780577 -0.747502 -0.750458 -0.77529 -0.876475 -1.10968 0 0.790366 0.77953 0.776873 0.77327 0.731554 0.650676 0.555844 0.462709 0.382891 0.315037 0.251023 0.183115 0.103562 0.00566905 -0.113475 -0.249026 -0.39599 -0.55803 -0.722881 -0.877185 -0.995066 -1.04975 -1.05589 -1.02246 -0.956599 -0.897483 -0.872914 -0.867156 -0.915563 -1.108 0 0.896086 0.863053 0.830316 0.814886 0.768405 0.688447 0.600518 0.505166 0.420918 0.351087 0.286595 0.216529 0.136138 0.0384144 -0.0778185 -0.211928 -0.366079 -0.53115 -0.709474 -0.891601 -1.04285 -1.12596 -1.1432 -1.11573 -1.05483 -0.974036 -0.914552 -0.886439 -0.902459 -1.01406 0 0.991309 0.940731 0.867866 0.84388 0.798263 0.727758 0.652162 0.557734 0.462301 0.383816 0.314713 0.243103 0.161227 0.0640595 -0.0473662 -0.172947 -0.311711 -0.469892 -0.650349 -0.842884 -1.01769 -1.12475 -1.15168 -1.12962 -1.0665 -0.97275 -0.890387 -0.841912 -0.831894 -0.851447 0 1.0672 1.00804 0.894817 0.859131 0.813796 0.753903 0.6918 0.609566 0.506649 0.408384 0.322635 0.245705 0.171879 0.0893246 -0.0182478 -0.132035 -0.242439 -0.371472 -0.538831 -0.739666 -0.926896 -1.05028 -1.09495 -1.08938 -1.0341 -0.934711 -0.835398 -0.768785 -0.732925 -0.677595 0 1.07169 1.01091 0.882231 0.837104 0.788957 0.731975 0.674885 0.604038 0.509241 0.40857 0.317957 0.235924 0.158296 0.0933723 0.0314617 -0.0532316 -0.158243 -0.260021 -0.393271 -0.590842 -0.799009 -0.941782 -1.00193 -1.00705 -0.966661 -0.882641 -0.785679 -0.711111 -0.648364 -0.534116 0 0.976245 0.910759 0.763004 0.694779 0.63061 0.56892 0.514105 0.465403 0.408237 0.347464 0.294409 0.241284 0.1755 0.100899 0.0499444 0.0259058 -0.0156219 -0.121719 -0.265949 -0.438874 -0.654649 -0.820565 -0.901081 -0.915797 -0.889102 -0.825181 -0.740475 -0.65999 -0.580163 -0.43022 0 0.679109 0.598702 0.444264 0.35141 0.269228 0.211583 0.169912 0.156113 0.161645 0.1808 0.214773 0.240435 0.240852 0.205861 0.137972 0.0815946 0.0500756 -0.000533366 -0.125386 -0.317847 -0.52413 -0.684112 -0.771359 -0.797674 -0.791961 -0.750023 -0.68538 -0.609437 -0.52343 -0.362059 0 0.233355 0.163717 0.0486581 -0.0298782 -0.0953277 -0.132256 -0.148773 -0.140897 -0.105454 -0.0357982 0.0638302 0.176852 0.256826 0.284705 0.264446 0.196576 0.118542 0.0479935 -0.0527197 -0.216082 -0.412091 -0.55669 -0.62872 -0.651785 -0.653208 -0.639171 -0.60044 -0.544451 -0.465038 -0.317048 0 0.0162074 -0.0532477 -0.112879 -0.165685 -0.210704 -0.225954 -0.241337 -0.24082 -0.222289 -0.166307 -0.070652 0.0586824 0.197313 0.291733 0.321145 0.296212 0.208814 0.0802872 -0.0514922 -0.186081 -0.316519 -0.413696 -0.471028 -0.496763 -0.50187 -0.495959 -0.482094 -0.451889 -0.40228 -0.274981 0 0.0676799 0.0740085 -0.067027 -0.120757 -0.152416 -0.153425 -0.174075 -0.180848 -0.181947 -0.167694 -0.116522 -0.026402 0.0985491 0.23143 0.308547 0.306748 0.236457 0.11384 -0.0282368 -0.149085 -0.232703 -0.28909 -0.326078 -0.341149 -0.340967 -0.335053 -0.330737 -0.328998 -0.335134 -0.228913 0 0.64812 0.109402 -0.0696584 -0.0497133 -0.0871829 -0.0694177 -0.0905382 -0.0915237 -0.107173 -0.0892819 -0.0738798 -0.034846 0.0365026 0.146093 0.248935 0.278323 0.233937 0.144513 0.0423399 -0.0611278 -0.152488 -0.208757 -0.223488 -0.211375 -0.182727 -0.161027 -0.161951 -0.183178 -0.166725 -0.205966 0 5.50096 0 0 0 0 0 0 0 0 0 0 0 0 0 0 0 0 0 0 0 0 0 0 0 0 0 0 0 0 0 0
				</DataArray>
			</PointData>
			<CellData Scalars="Density">
				<DataArray Name="Density" type="Float32" format="ascii">