<?xml version="1.0"?>
<VTKFile type="PolyData">
	<PolyData>
		<Piece NumberOfPoints="961" NumberOfPolys="900">
			<Points>
				<DataArray type="Float32" NumberOfComponents="3" format="ascii">
 0 0 0 0.04 0 0 0.08 0 0 0.12 0 0 0.16 0 0 0.2 0 0 0.24 0 0 0.28 0 0 0.32 0 0 0.36 0 0 0.4 0 0 0.44 0 0 0.48 0 0 0.52 0 0 0.56 0 0 0.6 0 0 0.64 0 0 0.68 0 0 0.72 0 0 0.76 0 0 0.8 0 0 0.84 0 0 0.88 0 0 0.92 0 0 0.96 0 0 1 0 0 1.04 0 0 1.08 0 0 1.12 0 0 1.16 0 0 1.2 0 0 0 0.04 0 0.04 0.04 0 0.08 0.04 0 0.12 0.04 0 0.16 0.04 0 0.2 0.04 0 0.24 0.04 0 0.28 0.04 0 0.32 0.04 0 0.36 0.04 0 0.4 0.04 0 0.44 0.04 0 0.48 0.04 0 0.52 0.04 0 0.56 0.04 0 0.6 0.04 0 0.64 0.04 0 0.68 0.04 0 0.72 0.04 0 0.76 0.04 0 0.8 0.04 0 0.84 0.04 0 0.88 0.04 0 0.92 0.04 0 0.96 0.04 0 1 0.04 0 1.04 0.04 0 1.08 0.04 0 1.12 0.04 0 1.16 0.04 0 1.2 0.04 0 0 0.08 0 0.04 0.08 0 0.08 0.08 0 0.12 0.08 0 0.16 0.08 0 0.2 0.08 0 0.24 0.08 0 0.28 0.08 0 0.32 0.08 0 0.36 0.08 0 0.4 0.08 0 0.44 0.08 0 0.48 0.08 0 0.52 0.08 0 0.56 0.08 0 0.6 0.08 0 0.64 0.08 0 0.68 0.08 0 0.72 0.08 0 0.76 0.08 0 0.8 0.08 0 0.84 0.08 0 0.88 0.08 0 0.92 0.08 0 0.96 0.08 0 1 0.08 0 1.04 0.08 0 1.08 0.08 0 1.12 0.08 0 1.16 0.08 0 1.2 0.08 0 0 0.12 0 0.04 0.12 0 0.08 0.12 0 0.12 0.12 0 0.16 0.12 0 0.2 0.12 0 0.24 0.12 0 0.28 0.12 0 0.32 0.12 0 0.36 0.12 0 0.4 0.12 0 0.44 0.12 0 0.48 0.12 0 0.52 0.12 0 0.56 0.12 0 0.6 0.12 0 0.64 0.12 0 0.68 0.12 0 0.72 0.12 0 0.76 0.12 0 0.8 0.12 0 0.84 0.12 0 0.88 0.12 0 0.92 0.12 0 0.96 0.12 0 1 0.12 0 1.04 0.12 0 1.08 0.12 0 1.12 0.12 0 1.16 0.12 0 1.2 0.12 0 0 0.16 0 0.04 0.16 0 0.08 0.16 0 0.12 0.16 0 0.16 0.16 0 0.2 0.16 0 0.24 0.16 0 0.28 0.16 0 0.32 0.16 0 0.36 0.16 0 0.4 0.16 0 0.44 0.16 0 0.48 0.16 0 0.52 0.16 0 0.56 0.16 0 0.6 0.16 0 0.64 0.16 0 0.68 0.16 0 0.72 0.16 0 0.76 0.16 0 0.8 0.16 0 0.84 0.16 0 0.88 0.16 0 0.92 0.16 0 0.96 0.16 0 1 0.16 0 1.04 0.16 0 1.08 0.16 0 1.12 0.16 0 1.16 0.16 0 1.2 0.16 0 0 0.2 0 0.04 0.2 0 0.08 0.2 0 0.12 0.2 0 0.16 0.2 0 0.2 0.2 0 0.24 0.2 0 0.28 0.2 0 0.32 0.2 0 0.36 0.2 0 0.4 0.2 0 0.44 0.2 0 0.48 0.2 0 0.52 0.2 0 0.56 0.2 0 0.6 0.2 0 0.64 0.2 0 0.68 0.2 0 0.72 0.2 0 0.76 0.2 0 0.8 0.2 0 0.84 0.2 0 0.88 0.2 0 0.92 0.2 0 0.96 0.2 0 1 0.2 0 1.04 0.2 0 1.08 0.2 0 1.12 0.2 0 1.16 0.2 0 1.2 0.2 0 0 0.24 0 0.04 0.24 0 0.08 0.24 0 0.12 0.24 0 0.16 0.24 0 0.2 0.24 0 0.24 0.24 0 0.28 0.24 0 0.32 0.24 0 0.36 0.24 0 0.4 0.24 0 0.44 0.24 0 0.48 0.24 0 0.52 0.24 0 0.56 0.24 0 0.6 0.24 0 0.64 0.24 0 0.68 0.24 0 0.72 0.24 0 0.76 0.24 0 0.8 0.24 0 0.84 0.24 0 0.88 0.24 0 0.92 0.24 0 0.96 0.24 0 1 0.24 0 1.04 0.24 0 1.08 0.24 0 1.12 0.24 0 1.16 0.24 0 1.2 0.24 0 0 0.28 0 0.04 0.28 0 0.08 0.28 0 0.12 0.28 0 0.16 0.28 0 0.2 0.28 0 0.24 0.28 0 0.28 0.28 0 0.32 0.28 0 0.36 0.28 0 0.4 0.28 0 0.44 0.28 0 0.48 0.28 0 0.52 0.28 0 0.56 0.28 0 0.6 0.28 0 0.64 0.28 0 0.68 0.28 0 0.72 0.28 0 0.76 0.28 0 0.8 0.28 0 0.84 0.28 0 0.88 0.28 0 0.92 0.28 0 0.96 0.28 0 1 0.28 0 1.04 0.28 0 1.08 0.28 0 1.12 0.28 0 1.16 0.28 0 1.2 0.28 0 0 0.32 0 0.04 0.32 0 0.08 0.32 0 0.12 0.32 0 0.16 0.32 0 0.2 0.32 0 0.24 0.32 0 0.28 0.32 0 0.32 0.32 0 0.36 0.32 0 0.4 0.32 0 0.44 0.32 0 0.48 0.32 0 0.52 0.32 0 0.56 0.32 0 0.6 0.32 0 0.64 0.32 0 0.68 0.32 0 0.72 0.32 0 0.76 0.32 0 0.8 0.32 0 0.84 0.32 0 0.88 0.32 0 0.92 0.32 0 0.96 0.32 0 1 0.32 0 1.04 0.32 0 1.08 0.32 0 1.12 0.32 0 1.16 0.32 0 1.2 0.32 0 0 0.36 0 0.04 0.36 0 0.08 0.36 0 0.12 0.36 0 0.16 0.36 0 0.2 0.36 0 0.24 0.36 0 0.28 0.36 0 0.32 0.36 0 0.36 0.36 0 0.4 0.36 0 0.44 0.36 0 0.48 0.36 0 0.52 0.36 0 0.56 0.36 0 0.6 0.36 0 0.64 0.36 0 0.68 0.36 0 0.72 0.36 0 0.76 0.36 0 0.8 0.36 0 0.84 0.36 0 0.88 0.36 0 0.92 0.36 0 0.96 0.36 0 1 0.36 0 1.04 0.36 0 1.08 0.36 0 1.12 0.36 0 1.16 0.36 0 1.2 0.36 0 0 0.4 0 0.04 0.4 0 0.08 0.4 0 0.12 0.4 0 0.16 0.4 0 0.2 0.4 0 0.24 0.4 0 0.28 0.4 0 0.32 0.4 0 0.36 0.4 0 0.4 0.4 0 0.44 0.4 0 0.48 0.4 0 0.52 0.4 0 0.56 0.4 0 0.6 0.4 0 0.64 0.4 0 0.68 0.4 0 0.72 0.4 0 0.76 0.4 0 0.8 0.4 0 0.84 0.4 0 0.88 0.4 0 0.92 0.4 0 0.96 0.4 0 1 0.4 0 1.04 0.4 0 1.08 0.4 0 1.12 0.4 0 1.16 0.4 0 1.2 0.4 0 0 0.44 0 0.04 0.44 0 0.08 0.44 0 0.12 0.44 0 0.16 0.44 0 0.2 0.44 0 0.24 0.44 0 0.28 0.44 0 0.32 0.44 0 0.36 0.44 0 0.4 0.44 0 0.44 0.44 0 0.48 0.44 0 0.52 0.44 0 0.56 0.44 0 0.6 0.44 0 0.64 0.44 0 0.68 0.44 0 0.72 0.44 0 0.76 0.44 0 0.8 0.44 0 0.84 0.44 0 0.88 0.44 0 0.92 0.44 0 0.96 0.44 0 1 0.44 0 1.04 0.44 0 1.08 0.44 0 1.12 0.44 0 1.16 0.44 0 1.2 0.44 0 0 0.48 0 0.04 0.48 0 0.08 0.48 0 0.12 0.48 0 0.16 0.48 0 0.2 0.48 0 0.24 0.48 0 0.28 0.48 0 0.32 0.48 0 0.36 0.48 0 0.4 0.48 0 0.44 0.48 0 0.48 0.48 0 0.52 0.48 0 0.56 0.48 0 0.6 0.48 0 0.64 0.48 0 0.68 0.48 0 0.72 0.48 0 0.76 0.48 0 0.8 0.48 0 0.84 0.48 0 0.88 0.48 0 0.92 0.48 0 0.96 0.48 0 1 0.48 0 1.04 0.48 0 1.08 0.48 0 1.12 0.48 0 1.16 0.48 0 1.2 0.48 0 0 0.52 0 0.04 0.52 0 0.08 0.52 0 0.12 0.52 0 0.16 0.52 0 0.2 0.52 0 0.24 0.52 0 0.28 0.52 0 0.32 0.52 0 0.36 0.52 0 0.4 0.52 0 0.44 0.52 0 0.48 0.52 0 0.52 0.52 0 0.56 0.52 0 0.6 0.52 0 0.64 0.52 0 0.68 0.52 0 0.72 0.52 0 0.76 0.52 0 0.8 0.52 0 0.84 0.52 0 0.88 0.52 0 0.92 0.52 0 0.96 0.52 0 1 0.52 0 1.04 0.52 0 1.08 0.52 0 1.12 0.52 0 1.16 0.52 0 1.2 0.52 0 0 0.56 0 0.04 0.56 0 0.08 0.56 0 0.12 0.56 0 0.16 0.56 0 0.2 0.56 0 0.24 0.56 0 0.28 0.56 0 0.32 0.56 0 0.36 0.56 0 0.4 0.56 0 0.44 0.56 0 0.48 0.56 0 0.52 0.56 0 0.56 0.56 0 0.6 0.56 0 0.64 0.56 0 0.68 0.56 0 0.72 0.56 0 0.76 0.56 0 0.8 0.56 0 0.84 0.56 0 0.88 0.56 0 0.92 0.56 0 0.96 0.56 0 1 0.56 0 1.04 0.56 0 1.08 0.56 0 1.12 0.56 0 1.16 0.56 0 1.2 0.56 0 0 0.6 0 0.04 0.6 0 0.08 0.6 0 0.12 0.6 0 0.16 0.6 0 0.2 0.6 0 0.24 0.6 0 0.28 0.6 0 0.32 0.6 0 0.36 0.6 0 0.4 0.6 0 0.44 0.6 0 0.48 0.6 0 0.52 0.6 0 0.56 0.6 0 0.6 0.6 0 0.64 0.6 0 0.68 0.6 0 0.72 0.6 0 0.76 0.6 0 0.8 0.6 0 0.84 0.6 0 0.88 0.6 0 0.92 0.6 0 0.96 0.6 0 1 0.6 0 1.04 0.6 0 1.08 0.6 0 1.12 0.6 0 1.16 0.6 0 1.2 0.6 0 0 0.64 0 0.04 0.64 0 0.08 0.64 0 0.12 0.64 0 0.16 0.64 0 0.2 0.64 0 0.24 0.64 0 0.28 0.64 0 0.32 0.64 0 0.36 0.64 0 0.4 0.64 0 0.44 0.64 0 0.48 0.64 0 0.52 0.64 0 0.56 0.64 0 0.6 0.64 0 0.64 0.64 0 0.68 0.64 0 0.72 0.64 0 0.76 0.64 0 0.8 0.64 0 0.84 0.64 0 0.88 0.64 0 0.92 0.64 0 0.96 0.64 0 1 0.64 0 1.04 0.64 0 1.08 0.64 0 1.12 0.64 0 1.16 0.64 0 1.2 0.64 0 0 0.68 0 0.04 0.68 0 0.08 0.68 0 0.12 0.68 0 0.16 0.68 0 0.2 0.68 0 0.24 0.68 0 0.28 0.68 0 0.32 0.68 0 0.36 0.68 0 0.4 0.68 0 0.44 0.68 0 0.48 0.68 0 0.52 0.68 0 0.56 0.68 0 0.6 0.68 0 0.64 0.68 0 0.68 0.68 0 0.72 0.68 0 0.76 0.68 0 0.8 0.68 0 0.84 0.68 0 0.88 0.68 0 0.92 0.68 0 0.96 0.68 0 1 0.68 0 1.04 0.68 0 1.08 0.68 0 1.12 0.68 0 1.16 0.68 0 1.2 0.68 0 0 0.72 0 0.04 0.72 0 0.08 0.72 0 0.12 0.72 0 0.16 0.72 0 0.2 0.72 0 0.24 0.72 0 0.28 0.72 0 0.32 0.72 0 0.36 0.72 0 0.4 0.72 0 0.44 0.72 0 0.48 0.72 0 0.52 0.72 0 0.56 0.72 0 0.6 0.72 0 0.64 0.72 0 0.68 0.72 0 0.72 0.72 0 0.76 0.72 0 0.8 0.72 0 0.84 0.72 0 0.88 0.72 0 0.92 0.72 0 0.96 0.72 0 1 0.72 0 1.04 0.72 0 1.08 0.72 0 1.12 0.72 0 1.16 0.72 0 1.2 0.72 0 0 0.76 0 0.04 0.76 0 0.08 0.76 0 0.12 0.76 0 0.16 0.76 0 0.2 0.76 0 0.24 0.76 0 0.28 0.76 0 0.32 0.76 0 0.36 0.76 0 0.4 0.76 0 0.44 0.76 0 0.48 0.76 0 0.52 0.76 0 0.56 0.76 0 0.6 0.76 0 0.64 0.76 0 0.68 0.76 0 0.72 0.76 0 0.76 0.76 0 0.8 0.76 0 0.84 0.76 0 0.88 0.76 0 0.92 0.76 0 0.96 0.76 0 1 0.76 0 1.04 0.76 0 1.08 0.76 0 1.12 0.76 0 1.16 0.76 0 1.2 0.76 0 0 0.8 0 0.04 0.8 0 0.08 0.8 0 0.12 0.8 0 0.16 0.8 0 0.2 0.8 0 0.24 0.8 0 0.28 0.8 0 0.32 0.8 0 0.36 0.8 0 0.4 0.8 0 0.44 0.8 0 0.48 0.8 0 0.52 0.8 0 0.56 0.8 0 0.6 0.8 0 0.64 0.8 0 0.68 0.8 0 0.72 0.8 0 0.76 0.8 0 0.8 0.8 0 0.84 0.8 0 0.88 0.8 0 0.92 0.8 0 0.96 0.8 0 1 0.8 0 1.04 0.8 0 1.08 0.8 0 1.12 0.8 0 1.16 0.8 0 1.2 0.8 0 0 0.84 0 0.04 0.84 0 0.08 0.84 0 0.12 0.84 0 0.16 0.84 0 0.2 0.84 0 0.24 0.84 0 0.28 0.84 0 0.32 0.84 0 0.36 0.84 0 0.4 0.84 0 0.44 0.84 0 0.48 0.84 0 0.52 0.84 0 0.56 0.84 0 0.6 0.84 0 0.64 0.84 0 0.68 0.84 0 0.72 0.84 0 0.76 0.84 0 0.8 0.84 0 0.84 0.84 0 0.88 0.84 0 0.92 0.84 0 0.96 0.84 0 1 0.84 0 1.04 0.84 0 1.08 0.84 0 1.12 0.84 0 1.16 0.84 0 1.2 0.84 0 0 0.88 0 0.04 0.88 0 0.08 0.88 0 0.12 0.88 0 0.16 0.88 0 0.2 0.88 0 0.24 0.88 0 0.28 0.88 0 0.32 0.88 0 0.36 0.88 0 0.4 0.88 0 0.44 0.88 0 0.48 0.88 0 0.52 0.88 0 0.56 0.88 0 0.6 0.88 0 0.64 0.88 0 0.68 0.88 0 0.72 0.88 0 0.76 0.88 0 0.8 0.88 0 0.84 0.88 0 0.88 0.88 0 0.92 0.88 0 0.96 0.88 0 1 0.88 0 1.04 0.88 0 1.08 0.88 0 1.12 0.88 0 1.16 0.88 0 1.2 0.88 0 0 0.92 0 0.04 0.92 0 0.08 0.92 0 0.12 0.92 0 0.16 0.92 0 0.2 0.92 0 0.24 0.92 0 0.28 0.92 0 0.32 0.92 0 0.36 0.92 0 0.4 0.92 0 0.44 0.92 0 0.48 0.92 0 0.52 0.92 0 0.56 0.92 0 0.6 0.92 0 0.64 0.92 0 0.68 0.92 0 0.72 0.92 0 0.76 0.92 0 0.8 0.92 0 0.84 0.92 0 0.88 0.92 0 0.92 0.92 0 0.96 0.92 0 1 0.92 0 1.04 0.92 0 1.08 0.92 0 1.12 0.92 0 1.16 0.92 0 1.2 0.92 0 0 0.96 0 0.04 0.96 0 0.08 0.96 0 0.12 0.96 0 0.16 0.96 0 0.2 0.96 0 0.24 0.96 0 0.28 0.96 0 0.32 0.96 0 0.36 0.96 0 0.4 0.96 0 0.44 0.96 0 0.48 0.96 0 0.52 0.96 0 0.56 0.96 0 0.6 0.96 0 0.64 0.96 0 0.68 0.96 0 0.72 0.96 0 0.76 0.96 0 0.8 0.96 0 0.84 0.96 0 0.88 0.96 0 0.92 0.96 0 0.96 0.96 0 1 0.96 0 1.04 0.96 0 1.08 0.96 0 1.12 0.96 0 1.16 0.96 0 1.2 0.96 0 0 1 0 0.04 1 0 0.08 1 0 0.12 1 0 0.16 1 0 0.2 1 0 0.24 1 0 0.28 1 0 0.32 1 0 0.36 1 0 0.4 1 0 0.44 1 0 0.48 1 0 0.52 1 0 0.56 1 0 0.6 1 0 0.64 1 0 0.68 1 0 0.72 1 0 0.76 1 0 0.8 1 0 0.84 1 0 0.88 1 0 0.92 1 0 0.96 1 0 1 1 0 1.04 1 0 1.08 1 0 1.12 1 0 1.16 1 0 1.2 1 0 0 1.04 0 0.04 1.04 0 0.08 1.04 0 0.12 1.04 0 0.16 1.04 0 0.2 1.04 0 0.24 1.04 0 0.28 1.04 0 0.32 1.04 0 0.36 1.04 0 0.4 1.04 0 0.44 1.04 0 0.48 1.04 0 0.52 1.04 0 0.56 1.04 0 0.6 1.04 0 0.64 1.04 0 0.68 1.04 0 0.72 1.04 0 0.76 1.04 0 0.8 1.04 0 0.84 1.04 0 0.88 1.04 0 0.92 1.04 0 0.96 1.04 0 1 1.04 0 1.04 1.04 0 1.08 1.04 0 1.12 1.04 0 1.16 1.04 0 1.2 1.04 0 0 1.08 0 0.04 1.08 0 0.08 1.08 0 0.12 1.08 0 0.16 1.08 0 0.2 1.08 0 0.24 1.08 0 0.28 1.08 0 0.32 1.08 0 0.36 1.08 0 0.4 1.08 0 0.44 1.08 0 0.48 1.08 0 0.52 1.08 0 0.56 1.08 0 0.6 1.08 0 0.64 1.08 0 0.68 1.08 0 0.72 1.08 0 0.76 1.08 0 0.8 1.08 0 0.84 1.08 0 0.88 1.08 0 0.92 1.08 0 0.96 1.08 0 1 1.08 0 1.04 1.08 0 1.08 1.08 0 1.12 1.08 0 1.16 1.08 0 1.2 1.08 0 0 1.12 0 
[...]
			<PointData Scalars="VitesseX">
				<DataArray Name="VitesseX" type="Float32" format="ascii">
 0 -0.0335372 -0.0647342 -0.00727725 0.11223 0.240976 0.32551 0.378628 0.38681 0.380859 0.378046 0.374898 0.382395 0.400879 0.432675 0.47818 0.532874 0.591834 0.652786 0.714662 0.776625 0.837622 0.897413 0.954645 1.01006 1.06653 1.0969 1.05914 0.878582 0.493014 0 0 0.0590061 0.0779938 0.125624 0.195459 0.267475 0.338325 0.354988 0.339286 0.320287 0.312397 0.320548 0.337282 0.364764 0.405232 0.458572 0.519123 0.582593 0.647185 0.711589 0.77504 0.836463 0.895587 0.951904 1.00634 1.06204 1.09164 1.05383 0.873812 0.490967 0 0 0.0155512 0.0267918 0.0309305 0.0338113 0.0538989 0.0755547 0.104778 0.133272 0.158152 0.179181 0.202469 0.236458 0.281862 0.340637 0.410342 0.484522 0.558457 0.63054 0.700225 0.766991 0.82933 0.887363 0.942031 0.994699 1.04904 1.0767 1.03884 0.860639 0.485676 0 0 -0.049015 -0.077783 -0.0947457 -0.107879 -0.118102 -0.123858 -0.110676 -0.0661595 -0.0196607 0.0254636 0.0760173 0.134423 0.201144 0.27373 0.351695 0.433084 0.515316 0.595535 0.671253 0.741934 0.806018 0.864536 0.91863 0.970498 1.02446 1.04877 1.01088 0.836123 0.475617 0 0 -0.0993397 -0.153764 -0.185738 -0.210394 -0.226951 -0.227373 -0.199703 -0.158763 -0.110532 -0.0586874 0.0019025 0.0703868 0.144191 0.220046 0.297335 0.378547 0.461272 0.543032 0.621967 0.695763 0.761613 0.821722 0.876633 0.928812 0.981558 1.00117 0.962514 0.793562 0.457728 0 0 -0.120276 -0.194548 -0.241854 -0.269522 -0.279915 -0.268038 -0.241974 -0.205191 -0.159875 -0.10411 -0.0401054 0.030069 0.105532 0.181092 0.255553 0.332811 0.412436 0.490445 0.565586 0.636643 0.702358 0.76271 0.816639 0.867964 0.912969 0.926853 0.88434 0.724684 0.428231 0 0 -0.124883 -0.210259 -0.260901 -0.286351 -0.293579 -0.288 -0.265782 -0.234969 -0.191004 -0.134326 -0.0710075 -0.0010692 0.0731824 0.148261 0.220679 0.292898 0.367342 0.440493 0.511273 0.577284 0.637659 0.69219 0.74084 0.786581 0.81763 0.819106 0.767355 0.622923 0.383886 0 0 -0.111283 -0.201093 -0.24941 -0.270182 -0.277747 -0.277119 -0.268918 -0.245493 -0.208561 -0.159589 -0.0999859 -0.0330766 0.0382196 0.111315 0.18267 0.251286 0.320721 0.389448 0.455403 0.516953 0.57151 0.616823 0.655549 0.68505 0.695625 0.676699 0.611788 0.493557 0.3249 0 0 -0.0779523 -0.153506 -0.202709 -0.225024 -0.246389 -0.256233 -0.254298 -0.245116 -0.220319 -0.182554 -0.133623 -0.0759477 -0.0109703 0.0581531 0.129725 0.197647 0.264962 0.33104 0.392423 0.449272 0.498833 0.537443 0.563635 0.572313 0.559859 0.524732 0.463149 0.374218 0.251132 0 0 -0.0269266 -0.0669742 -0.119203 -0.160803 -0.201072 -0.234967 -0.251901 -0.250606 -0.238726 -0.217147 -0.183948 -0.138356 -0.0819406 -0.0181518 0.0525092 0.123466 0.192805 0.259117 0.318702 0.370871 0.41561 0.448933 0.464702 0.459321 0.437422 0.401911 0.351834 0.274205 0.170659 0 0 -0.00715165 -0.0275718 -0.0758558 -0.132609 -0.183912 -0.233403 -0.272736 -0.295126 -0.298739 -0.283594 -0.25531 -0.217906 -0.170952 -0.114181 -0.0475599 0.0251451 0.0984192 0.168378 0.231529 0.282724 0.321874 0.350361 0.360624 0.351299 0.329194 0.297954 0.251921 0.177135 0.0903537 0 0 -0.00599822 -0.0210831 -0.0651745 -0.123627 -0.182758 -0.239998 -0.292546 -0.333212 -0.354797 -0.357584 -0.342286 -0.312706 -0.272782 -0.222005 -0.161042 -0.0913035 -0.0164446 0.0580123 0.125331 0.17958 0.218372 0.241722 0.248803 0.241255 0.222353 0.19221 0.142249 0.0811583 0.00985958 0 0 -0.00331801 -0.0181206 -0.0601773 -0.121961 -0.190388 -0.260377 -0.325619 -0.377916 -0.413047 -0.427463 -0.424202 -0.405086 -0.371932 -0.326908 -0.271559 -0.208128 -0.138738 -0.0684526 -0.0024273 0.0525356 0.0912673 0.112094 0.116508 0.108903 0.0889497 0.0583978 0.027871 -0.00556466 -0.0597818 0 0 -0.00279399 -0.0223163 -0.0654341 -0.133906 -0.21444 -0.296472 -0.37197 -0.431988 -0.472982 -0.494829 -0.500738 -0.491508 -0.467776 -0.430322 -0.382041 -0.325466 -0.267118 -0.209513 -0.153513 -0.106323 -0.0731741 -0.0557347 -0.0534869 -0.0621981 -0.0703468 -0.0775383 -0.0798232 -0.0803799 -0.100513 0 0 -0.00977097 -0.0351587 -0.0854617 -0.162745 -0.252613 -0.343387 -0.425198 -0.488691 -0.531618 -0.557258 -0.568513 -0.568401 -0.555424 -0.529758 -0.492672 -0.450314 -0.407323 -0.365314 -0.327085 -0.294216 -0.269157 -0.253002 -0.242804 -0.230202 -0.216113 -0.201723 -0.171401 -0.137393 -0.112344 0 0 -0.0212092 -0.0565694 -0.118426 -0.20453 -0.300741 -0.392184 -0.469615 -0.529758 -0.574576 -0.605302 -0.623548 -0.630236 -0.627671 -0.612328 -0.587064 -0.55816 -0.527061 -0.498628 -0.475434 -0.457917 -0.439769 -0.421495 -0.400463 -0.372435 -0.341601 -0.296296 -0.233633 -0.168694 -0.113096 0 0 -0.034392 -0.0853117 -0.161809 -0.2582 -0.358959 -0.443984 -0.508299 -0.559844 -0.601188 -0.634893 -0.658734 -0.672307 -0.676304 -0.669536 -0.652663 -0.630107 -0.607306 -0.591469 -0.583075 -0.579319 -0.571204 -0.55431 -0.526325 -0.484916 -0.4275 -0.350314 -0.264467 -0.18142 -0.108783 0 0 -0.0490934 -0.116581 -0.208549 -0.312982 -0.403754 -0.474337 -0.532477 -0.579577 -0.615601 -0.645363 -0.670765 -0.688483 -0.696544 -0.69539 -0.680824 -0.663045 -0.651316 -0.648431 -0.659112 -0.670456 -0.671848 -0.656758 -0.619638 -0.555299 -0.469645 -0.373217 -0.276667 -0.185526 -0.104452 0 0 -0.0570704 -0.132585 -0.227768 -0.320932 -0.398243 -0.463128 -0.5205 -0.570181 -0.609214 -0.638581 -0.662049 -0.68119 -0.692402 -0.693058 -0.681089 -0.668118 -0.669674 -0.687555 -0.721798 -0.748028 -0.753647 -0.733243 -0.673942 -0.585206 -0.484395 -0.381418 -0.280785 -0.186691 -0.100929 0 0 -0.0587852 -0.131488 -0.219471 -0.306288 -0.377074 -0.437777 -0.495046 -0.547732 -0.589879 -0.618539 -0.638935 -0.655287 -0.663661 -0.663587 -0.657112 -0.656582 -0.673611 -0.72306 -0.776391 -0.809809 -0.816019 -0.775949 -0.69401 -0.594032 -0.488892 -0.384066 -0.282453 -0.187106 -0.0989346 0 0 -0.0575737 -0.12413 -0.199341 -0.275345 -0.341686 -0.400247 -0.458977 -0.514907 -0.560446 -0.591943 -0.610245 -0.618378 -0.616833 -0.613296 -0.60817 -0.626 -0.674582 -0.749653 -0.813944 -0.847309 -0.846758 -0.788218 -0.697538 -0.593887 -0.488727 -0.385083 -0.284525 -0.189118 -0.0987672 0 0 -0.0559414 -0.113617 -0.172787 -0.23389 -0.295052 -0.352156 -0.412794 -0.474853 -0.526044 -0.560929 -0.579344 -0.58033 -0.563816 -0.549181 -0.550281 -0.590218 -0.670685 -0.76037 -0.830659 -0.860525 -0.84106 -0.773359 -0.683889 -0.589126 -0.488829 -0.388275 -0.289268 -0.193371 -0.100601 0 0 -0.0553955 -0.103157 -0.145516 -0.18758 -0.239784 -0.29592 -0.359105 -0.428736 -0.487114 -0.526842 -0.549093 -0.548016 -0.516669 -0.490632 -0.501673 -0.563008 -0.65893 -0.750019 -0.804021 -0.817261 -0.793364 -0.745327 -0.671828 -0.583609 -0.491158 -0.394401 -0.296101 -0.199609 -0.104512 0 0 -0.0570163 -0.0954916 -0.120149 -0.142413 -0.1795 -0.235512 -0.304241 -0.385715 -0.464752 -0.516386 -0.535696 -0.527421 -0.482389 -0.451076 -0.477727 -0.555419 -0.659277 -0.739805 -0.772804 -0.774554 -0.748884 -0.70793 -0.652109 -0.578062 -0.493087 -0.402323 -0.304398 -0.207941 -0.112185 0 0 -0.0561019 -0.0845888 -0.092024 -0.0947787 -0.120588 -0.175275 -0.261783 -0.374268 -0.469366 -0.520432 -0.534932 -0.519669 -0.465546 -0.440132 -0.488831 -0.585874 -0.674813 -0.725095 -0.738686 -0.729906 -0.705561 -0.670436 -0.625436 -0.566153 -0.493801 -0.408286 -0.31401 -0.216102 -0.118387 0 0 -0.0477593 -0.0661001 -0.0614937 -0.0597198 -0.0786328 -0.145293 -0.259124 -0.386394 -0.486104 -0.537838 -0.551962 -0.529908 -0.482031 -0.479271 -0.547762 -0.626484 -0.680964 -0.701068 -0.702709 -0.688075 -0.665648 -0.633358 -0.593853 -0.546624 -0.485012 -0.410806 -0.322246 -0.224078 -0.121102 0 0 -0.0293361 -0.0466693 -0.0346439 -0.0310994 -0.0638386 -0.146741 -0.273517 -0.410995 -0.513117 -0.57127 -0.588715 -0.565255 -0.538609 -0.561809 -0.61731 -0.658779 -0.675818 -0.677023 -0.665952 -0.648941 -0.627477 -0.596824 -0.560803 -0.518648 -0.46701 -0.403377 -0.327286 -0.231422 -0.118368 0 0 -0.0291155 -0.016198 -0.0191575 -0.013565 -0.0564902 -0.156971 -0.295812 -0.438076 -0.550063 -0.621151 -0.64224 -0.633721 -0.634651 -0.66335 -0.678742 -0.676108 -0.664266 -0.648615 -0.629498 -0.610538 -0.58787 -0.556763 -0.519818 -0.478102 -0.433291 -0.385582 -0.327619 -0.234002 -0.130756 0 0 0.00699467 -0.0821064 0.0011624 0.0116194 -0.0420846 -0.151799 -0.312562 -0.479437 -0.615279 -0.703413 -0.745169 -0.758249 -0.769579 -0.745206 -0.712057 -0.676394 -0.642739 -0.611788 -0.584146 -0.55976 -0.531852 -0.49563 -0.451893 -0.407955 -0.366798 -0.327048 -0.284507 -0.242591 -0.12412 0 0 -0.398787 -0.0615254 0.058967 0.0669918 0.0106487 -0.109976 -0.271464 -0.453149 -0.632097 -0.776538 -0.862614 -0.886055 -0.814826 -0.721831 -0.643181 -0.575975 -0.522478 -0.479448 -0.443679 -0.413347 -0.381615 -0.343403 -0.300111 -0.256286 -0.217585 -0.189436 -0.175444 -0.159638 -0.139792 0 0 0 0 0 0 0 0 0 0 0 0 0 0 0 0 0 0 0 0 0 0 0 0 0 0 0 0 0 0 0 0
				</DataArray>
				<DataArray Name="VitesseY" type="Float32" format="ascii">
 0 0 0 0 0 0 0 0 0 0 0 0 0 0 0 0 0 0 0 0 0 0 0 0 0 0 0 0 0 0 0 -0.0568727 0.0371881 -0.019068 -0.0800544 -0.103153 -0.0911044 -0.0573812 -0.00503201 0.0199135 0.0125857 0.00578002 -0.00306848 -0.0132865 -0.0236182 -0.0361401 -0.0430775 -0.041395 -0.037257 -0.0320185 -0.0267762 -0.0220156 -0.0179311 -0.0141319 -0.0118767 -0.0101884 -0.00937017 -0.0102288 -0.0125781 -0.0164653 -0.0200147 0 -0.113959 0.025601 -0.0317916 -0.112973 -0.136582 -0.143146 -0.0907646 -0.0101699 0.0198902 0.014421 -0.00133577 -0.0195684 -0.0397266 -0.0619851 -0.0871609 -0.10016 -0.0953145 -0.0852991 -0.0728198 -0.0600176 -0.0481503 -0.0371992 -0.0280538 -0.0234359 -0.0197207 -0.0193597 -0.021814 -0.0280794 -0.0379228 -0.0482619 0 -0.0940076 0.0449898 -0.0277495 -0.0981015 -0.134718 -0.147884 -0.09442 -0.0410953 -0.0139395 -0.0145814 -0.029832 -0.0560788 -0.0873128 -0.119606 -0.155162 -0.173948 -0.166714 -0.150896 -0.129646 -0.106393 -0.083406 -0.0613205 -0.0444312 -0.0358465 -0.0305628 -0.0314376 -0.0375099 -0.0511351 -0.071489 -0.0933693 0 0.00054019 0.104629 0.00167233 -0.0723712 -0.11587 -0.13244 -0.095377 -0.0719518 -0.058797 -0.0542732 -0.0762525 -0.110019 -0.149977 -0.189422 -0.229174 -0.255345 -0.252077 -0.23595 -0.208682 -0.174191 -0.136378 -0.0981641 -0.0705694 -0.05399 -0.047901 -0.0519674 -0.0654627 -0.0911375 -0.12813 -0.167136 0 0.139672 0.190589 0.0502175 -0.0353896 -0.093441 -0.119483 -0.1101 -0.100092 -0.0961083 -0.0972474 -0.12689 -0.169641 -0.215638 -0.261272 -0.300923 -0.33259 -0.336051 -0.322661 -0.29639 -0.259321 -0.213908 -0.162674 -0.121793 -0.093967 -0.0881821 -0.0971726 -0.120965 -0.163051 -0.222266 -0.282946 0 0.289759 0.290654 0.115141 0.00386681 -0.0719143 -0.114231 -0.121513 -0.123792 -0.124977 -0.140875 -0.177944 -0.227721 -0.280377 -0.331115 -0.371457 -0.404588 -0.417934 -0.406835 -0.383073 -0.346584 -0.299353 -0.24544 -0.199292 -0.168657 -0.165732 -0.179254 -0.215226 -0.278179 -0.364795 -0.446214 0 0.417393 0.403555 0.182382 0.0417477 -0.0556717 -0.105412 -0.123851 -0.13635 -0.148632 -0.178041 -0.224269 -0.282091 -0.341195 -0.395832 -0.439756 -0.472301 -0.493122 -0.486431 -0.467381 -0.435067 -0.390692 -0.338015 -0.293142 -0.269476 -0.274407 -0.298347 -0.347877 -0.429377 -0.547608 -0.633966 0 0.515187 0.499063 0.256893 0.0707717 -0.0335231 -0.0874225 -0.118451 -0.134429 -0.162026 -0.202142 -0.260248 -0.326177 -0.39273 -0.451734 -0.500648 -0.534588 -0.55793 -0.55743 -0.541964 -0.515065 -0.478412 -0.433706 -0.396296 -0.388513 -0.401901 -0.434927 -0.492803 -0.582053 -0.718212 -0.810147 0 0.575282 0.547526 0.328086 0.106641 0.00252244 -0.0507325 -0.0959458 -0.122233 -0.160968 -0.21126 -0.277485 -0.354269 -0.428707 -0.494177 -0.547698 -0.585984 -0.609268 -0.615717 -0.602246 -0.578671 -0.54838 -0.51252 -0.487014 -0.490772 -0.50859 -0.545539 -0.606791 -0.698941 -0.837605 -0.952217 0 0.598546 0.561356 0.3783 0.161657 0.0531993 0.0016673 -0.0488059 -0.0911291 -0.143129 -0.204235 -0.280888 -0.365898 -0.44774 -0.520018 -0.580311 -0.624404 -0.649515 -0.657175 -0.645953 -0.624421 -0.596788 -0.565152 -0.547674 -0.551687 -0.569717 -0.608869 -0.673018 -0.762949 -0.897989 -1.03965 0 0.60997 0.565516 0.4123 0.224199 0.112652 0.0637761 0.0131364 -0.0374111 -0.102486 -0.179927 -0.269792 -0.363234 -0.4512 -0.53027 -0.597946 -0.650175 -0.68127 -0.689434 -0.678041 -0.654361 -0.626278 -0.595612 -0.57698 -0.575078 -0.590115 -0.62859 -0.689847 -0.773607 -0.911795 -1.06904 0 0.619791 0.566205 0.443195 0.282497 0.180682 0.134145 0.0876517 0.031756 -0.043505 -0.136551 -0.239652 -0.343783 -0.439865 -0.526557 -0.602015 -0.662456 -0.701833 -0.713953 -0.703204 -0.674427 -0.637267 -0.602394 -0.578206 -0.568611 -0.575313 -0.603694 -0.659794 -0.751833 -0.89708 -1.01609 0 0.618644 0.571857 0.471689 0.340749 0.257224 0.216701 0.17446 0.113161 0.0262478 -0.0792511 -0.195301 -0.307945 -0.413109 -0.50878 -0.5934 -0.663229 -0.708816 -0.725384 -0.716567 -0.683815 -0.636061 -0.587124 -0.546181 -0.521677 -0.519847 -0.553127 -0.628254 -0.735901 -0.856648 -0.878002 0 0.615675 0.583694 0.501601 0.403647 0.342632 0.3101 0.270843 0.201221 0.102915 -0.0145791 -0.140102 -0.259082 -0.370276 -0.475377 -0.570658 -0.649033 -0.702036 -0.723016 -0.716531 -0.683283 -0.630655 -0.570821 -0.518961 -0.489321 -0.494777 -0.548572 -0.634017 -0.722897 -0.789799 -0.762555 0 0.622551 0.60074 0.53949 0.474249 0.43578 0.409218 0.368584 0.28957 0.181481 0.0552552 -0.0745181 -0.198025 -0.314345 -0.4272 -0.53351 -0.622278 -0.681781 -0.704744 -0.70132 -0.674503 -0.62422 -0.572237 -0.531648 -0.513889 -0.539729 -0.600473 -0.657776 -0.704719 -0.730437 -0.661764 0 0.641625 0.62786 0.590198 0.555912 0.534751 0.511215 0.455831 0.367211 0.256376 0.131142 -0.000191278 -0.127379 -0.248163 -0.368143 -0.487449 -0.589167 -0.654983 -0.682692 -0.685667 -0.671313 -0.640389 -0.610342 -0.589671 -0.586736 -0.619915 -0.650387 -0.670136 -0.679448 -0.678587 -0.580701 0 0.67462 0.669928 0.657451 0.64971 0.638836 0.600683 0.529804 0.436458 0.325574 0.204298 0.0778486 -0.0507815 -0.176064 -0.303253 -0.438893 -0.552151 -0.626515 -0.665767 -0.681354 -0.684307 -0.686282 -0.684428 -0.674951 -0.675958 -0.68531 -0.681537 -0.671809 -0.657366 -0.635751 -0.518644 0 0.723062 0.727441 0.7387 0.748712 0.733868 0.675253 0.59343 0.496802 0.38855 0.272869 0.152439 0.0271077 -0.101314 -0.238888 -0.38969 -0.516953 -0.604484 -0.657681 -0.693146 -0.72698 -0.753243 -0.764058 -0.753292 -0.739212 -0.718642 -0.692451 -0.665235 -0.637298 -0.601396 -0.471835 0 0.785275 0.797743 0.825763 0.843037 0.814093 0.740579 0.649912 0.550225 0.444948 0.335677 0.221034 0.099791 -0.0304833 -0.176157 -0.343566 -0.486909 -0.589617 -0.660594 -0.720077 -0.772639 -0.809312 -0.825772 -0.796093 -0.763114 -0.72708 -0.689867 -0.653745 -0.618057 -0.573267 -0.434951 0 0.858626 0.875721 0.912635 0.928308 0.886416 0.79776 0.699803 0.598052 0.493496 0.387387 0.278643 0.162069 0.0309787 -0.121522 -0.303279 -0.462764 -0.579247 -0.665737 -0.73987 -0.800395 -0.837681 -0.850214 -0.805509 -0.762506 -0.718167 -0.676831 -0.637804 -0.599475 -0.549357 -0.404609 0 0.941253 0.958909 0.9959 1.00538 0.950308 0.84817 0.742476 0.638003 0.533242 0.42751 0.321411 0.20812 0.076996 -0.0818057 -0.271752 -0.43899 -0.565464 -0.661828 -0.741772 -0.803657 -0.834163 -0.83074 -0.783022 -0.739143 -0.696121 -0.656077 -0.618056 -0.579095 -0.523713 -0.374246 0 1.03417 1.04668 1.07537 1.07441 1.00591 0.892065 0.777203 0.667137 0.55977 0.454261 0.349915 0.23814 0.105134 -0.0579285 -0.249572 -0.414183 -0.542681 -0.642265 -0.718423 -0.764561 -0.779903 -0.765774 -0.737285 -0.700218 -0.663059 -0.626736 -0.590778 -0.550718 -0.489891 -0.337791 0 1.14096 1.14162 1.15306 1.13735 1.05311 0.929195 0.804626 0.68129 0.569454 0.466791 0.364764 0.251285 0.117167 -0.0482802 -0.233352 -0.388624 -0.510212 -0.601767 -0.661542 -0.687303 -0.692345 -0.679209 -0.667044 -0.647497 -0.620812 -0.589475 -0.556632 -0.515619 -0.447896 -0.296137 0 1.22209 1.19894 1.1884 1.1595 1.07432 0.947078 0.814452 0.683585 0.56573 0.459853 0.35764 0.247202 0.117389 -0.0469259 -0.214943 -0.353849 -0.463647 -0.540766 -0.578945 -0.590173 -0.59192 -0.586781 -0.581444 -0.575731 -0.563568 -0.544221 -0.516068 -0.4756 -0.405283 -0.253657 0 1.24916 1.2066 1.16401 1.12744 1.03992 0.920573 0.799496 0.666701 0.538277 0.426329 0.328136 0.23111 0.108879 -0.0449685 -0.189243 -0.313549 -0.408414 -0.462019 -0.481237 -0.48759 -0.487965 -0.488315 -0.49034 -0.491727 -0.492368 -0.483583 -0.465435 -0.431892 -0.365261 -0.215987 0 1.19967 1.14977 1.07179 1.01724 0.932881 0.831774 0.728878 0.601831 0.467245 0.365214 0.286445 0.208211 0.0916178 -0.0448636 -0.168329 -0.271876 -0.339364 -0.369229 -0.380526 -0.384215 -0.38557 -0.38862 -0.394374 -0.402034 -0.407702 -0.410078 -0.402636 -0.38477 -0.326338 -0.18853 0 1.06561 0.994008 0.877295 0.795532 0.709665 0.640761 0.565363 0.463202 0.354797 0.288028 0.239301 0.173714 0.0648292 -0.043566 -0.142648 -0.217694 -0.258331 -0.275172 -0.281273 -0.28361 -0.285663 -0.290115 -0.296477 -0.304341 -0.313775 -0.321972 -0.326963 -0.32727 -0.284082 -0.175095 0 0.789921 0.82637 0.597846 0.440117 0.403201 0.370925 0.336556 0.290096 0.234226 0.205976 0.180867 0.117606 0.0353907 -0.0456765 -0.116325 -0.15995 -0.178955 -0.185847 -0.187921 -0.18855 -0.190361 -0.194247 -0.200067 -0.208086 -0.216117 -0.223995 -0.231292 -0.23387 -0.242474 -0.159519 0 1.0398 0.621303 0.109538 0.148656 0.135719 0.138019 0.150071 0.151263 0.14317 0.136662 0.107707 0.0486369 -0.0244103 -0.0799442 -0.102898 -0.108098 -0.107589 -0.104571 -0.101743 -0.0998171 -0.0994944 -0.101106 -0.104926 -0.112538 -0.118644 -0.121236 -0.118403 -0.130766 -0.124093 -0.139792 0 5.7555 0 0 0 0 0 0 0 0 0 0 0 0 0 0 0 0 0 0 0 0 0 0 0 0 0 0 0 0 0 0
				</DataArray>
			</PointData>
			<CellData Scalars="Density">
				<DataArray Name="Density" type="Float32" format="ascii">