<?xml version="1.0"?>
<VTKFile type="PolyData">
	<PolyData>
		<Piece NumberOfPoints="961" NumberOfPolys="900">
			<Points>
				<DataArray type="Float32" NumberOfComponents="3" format="ascii">
 0 0 0 0.04 0 0 0.08 0 0 0.12 0 0 0.16 0 0 0.2 0 0 0.24 0 0 0.28 0 0 0.32 0 0 0.36 0 0 0.4 0 0 0.44 0 0 0.48 0 0 0.52 0 0 0.56 0 0 0.6 0 0 0.64 0 0 0.68 0 0 0.72 0 0 0.76 0 0 0.8 0 0 0.84 0 0 0.88 0 0 0.92 0 0 0.96 0 0 1 0 0 1.04 0 0 1.08 0 0 1.12 0 0 1.16 0 0 1.2 0 0 0 0.04 0 0.04 0.04 0 0.08 0.04 0 0.12 0.04 0 0.16 0.04 0 0.2 0.04 0 0.24 0.04 0 0.28 0.04 0 0.32 0.04 0 0.36 0.04 0 0.4 0.04 0 0.44 0.04 0 0.48 0.04 0 0.52 0.04 0 0.56 0.04 0 0.6 0.04 0 0.64 0.04 0 0.68 0.04 0 0.72 0.04 0 0.76 0.04 0 0.8 0.04 0 0.84 0.04 0 0.88 0.04 0 0.92 0.04 0 0.96 0.04 0 1 0.04 0 1.04 0.04 0 1.08 0.04 0 1.12 0.04 0 1.16 0.04 0 1.2 0.04 0 0 0.08 0 0.04 0.08 0 0.08 0.08 0 0.12 0.08 0 0.16 0.08 0 0.2 0.08 0 0.24 0.08 0 0.28 0.08 0 0.32 0.08 0 0.36 0.08 0 0.4 0.08 0 0.44 0.08 0 0.48 0.08 0 0.52 0.08 0 0.56 0.08 0 0.6 0.08 0 0.64 0.08 0 0.68 0.08 0 0.72 0.08 0 0.76 0.08 0 0.8 0.08 0 0.84 0.08 0 0.88 0.08 0 0.92 0.08 0 0.96 0.08 0 1 0.08 0 1.04 0.08 0 1.08 0.08 0 1.12 0.08 0 1.16 0.08 0 1.2 0.08 0 0 0.12 0 0.04 0.12 0 0.08 0.12 0 0.12 0.12 0 0.16 0.12 0 0.2 0.12 0 0.24 0.12 0 0.28 0.12 0 0.32 0.12 0 0.36 0.12 0 0.4 0.12 0 0.44 0.12 0 0.48 0.12 0 0.52 0.12 0 0.56 0.12 0 0.6 0.12 0 0.64 0.12 0 0.68 0.12 0 0.72 0.12 0 0.76 0.12 0 0.8 0.12 0 0.84 0.12 0 0.88 0.12 0 0.92 0.12 0 0.96 0.12 0 1 0.12 0 1.04 0.12 0 1.08 0.12 0 1.12 0.12 0 1.16 0.12 0 1.2 0.12 0 0 0.16 0 0.04 0.16 0 0.08 0.16 0 0.12 0.16 0 0.16 0.16 0 0.2 0.16 0 0.24 0.16 0 0.28 0.16 0 0.32 0.16 0 0.36 0.16 0 0.4 0.16 0 0.44 0.16 0 0.48 0.16 0 0.52 0.16 0 0.56 0.16 0 0.6 0.16 0 0.64 0.16 0 0.68 0.16 0 0.72 0.16 0 0.76 0.16 0 0.8 0.16 0 0.84 0.16 0 0.88 0.16 0 0.92 0.16 0 0.96 0.16 0 1 0.16 0 1.04 0.16 0 1.08 0.16 0 1.12 0.16 0 1.16 0.16 0 1.2 0.16 0 0 0.2 0 0.04 0.2 0 0.08 0.2 0 0.12 0.2 0 0.16 0.2 0 0.2 0.2 0 0.24 0.2 0 0.28 0.2 0 0.32 0.2 0 0.36 0.2 0 0.4 0.2 0 0.44 0.2 0 0.48 0.2 0 0.52 0.2 0 0.56 0.2 0 0.6 0.2 0 0.64 0.2 0 0.68 0.2 0 0.72 0.2 0 0.76 0.2 0 0.8 0.2 0 0.84 0.2 0 0.88 0.2 0 0.92 0.2 0 0.96 0.2 0 1 0.2 0 1.04 0.2 0 1.08 0.2 0 1.12 0.2 0 1.16 0.2 0 1.2 0.2 0 0 0.24 0 0.04 0.24 0 0.08 0.24 0 0.12 0.24 0 0.16 0.24 0 0.2 0.24 0 0.24 0.24 0 0.28 0.24 0 0.32 0.24 0 0.36 0.24 0 0.4 0.24 0 0.44 0.24 0 0.48 0.24 0 0.52 0.24 0 0.56 0.24 0 0.6 0.24 0 0.64 0.24 0 0.68 0.24 0 0.72 0.24 0 0.76 0.24 0 0.8 0.24 0 0.84 0.24 0 0.88 0.24 0 0.92 0.24 0 0.96 0.24 0 1 0.24 0 1.04 0.24 0 1.08 0.24 0 1.12 0.24 0 1.16 0.24 0 1.2 0.24 0 0 0.28 0 0.04 0.28 0 0.08 0.28 0 0.12 0.28 0 0.16 0.28 0 0.2 0.28 0 0.24 0.28 0 0.28 0.28 0 0.32 0.28 0 0.36 0.28 0 0.4 0.28 0 0.44 0.28 0 0.48 0.28 0 0.52 0.28 0 0.56 0.28 0 0.6 0.28 0 0.64 0.28 0 0.68 0.28 0 0.72 0.28 0 0.76 0.28 0 0.8 0.28 0 0.84 0.28 0 0.88 0.28 0 0.92 0.28 0 0.96 0.28 0 1 0.28 0 1.04 0.28 0 1.08 0.28 0 1.12 0.28 0 1.16 0.28 0 1.2 0.28 0 0 0.32 0 0.04 0.32 0 0.08 0.32 0 0.12 0.32 0 0.16 0.32 0 0.2 0.32 0 0.24 0.32 0 0.28 0.32 0 0.32 0.32 0 0.36 0.32 0 0.4 0.32 0 0.44 0.32 0 0.48 0.32 0 0.52 0.32 0 0.56 0.32 0 0.6 0.32 0 0.64 0.32 0 0.68 0.32 0 0.72 0.32 0 0.76 0.32 0 0.8 0.32 0 0.84 0.32 0 0.88 0.32 0 0.92 0.32 0 0.96 0.32 0 1 0.32 0 1.04 0.32 0 1.08 0.32 0 1.12 0.32 0 1.16 0.32 0 1.2 0.32 0 0 0.36 0 0.04 0.36 0 0.08 0.36 0 0.12 0.36 0 0.16 0.36 0 0.2 0.36 0 0.24 0.36 0 0.28 0.36 0 0.32 0.36 0 0.36 0.36 0 0.4 0.36 0 0.44 0.36 0 0.48 0.36 0 0.52 0.36 0 0.56 0.36 0 0.6 0.36 0 0.64 0.36 0 0.68 0.36 0 0.72 0.36 0 0.76 0.36 0 0.8 0.36 0 0.84 0.36 0 0.88 0.36 0 0.92 0.36 0 0.96 0.36 0 1 0.36 0 1.04 0.36 0 1.08 0.36 0 1.12 0.36 0 1.16 0.36 0 1.2 0.36 0 0 0.4 0 0.04 0.4 0 0.08 0.4 0 0.12 0.4 0 0.16 0.4 0 0.2 0.4 0 0.24 0.4 0 0.28 0.4 0 0.32 0.4 0 0.36 0.4 0 0.4 0.4 0 0.44 0.4 0 0.48 0.4 0 0.52 0.4 0 0.56 0.4 0 0.6 0.4 0 0.64 0.4 0 0.68 0.4 0 0.72 0.4 0 0.76 0.4 0 0.8 0.4 0 0.84 0.4 0 0.88 0.4 0 0.92 0.4 0 0.96 0.4 0 1 0.4 0 1.04 0.4 0 1.08 0.4 0 1.12 0.4 0 1.16 0.4 0 1.2 0.4 0 0 0.44 0 0.04 0.44 0 0.08 0.44 0 0.12 0.44 0 0.16 0.44 0 0.2 0.44 0 0.24 0.44 0 0.28 0.44 0 0.32 0.44 0 0.36 0.44 0 0.4 0.44 0 0.44 0.44 0 0.48 0.44 0 0.52 0.44 0 0.56 0.44 0 0.6 0.44 0 0.64 0.44 0 0.68 0.44 0 0.72 0.44 0 0.76 0.44 0 0.8 0.44 0 0.84 0.44 0 0.88 0.44 0 0.92 0.44 0 0.96 0.44 0 1 0.44 0 1.04 0.44 0 1.08 0.44 0 1.12 0.44 0 1.16 0.44 0 1.2 0.44 0 0 0.48 0 0.04 0.48 0 0.08 0.48 0 0.12 0.48 0 0.16 0.48 0 0.2 0.48 0 0.24 0.48 0 0.28 0.48 0 0.32 0.48 0 0.36 0.48 0 0.4 0.48 0 0.44 0.48 0 0.48 0.48 0 0.52 0.48 0 0.56 0.48 0 0.6 0.48 0 0.64 0.48 0 0.68 0.48 0 0.72 0.48 0 0.76 0.48 0 0.8 0.48 0 0.84 0.48 0 0.88 0.48 0 0.92 0.48 0 0.96 0.48 0 1 0.48 0 1.04 0.48 0 1.08 0.48 0 1.12 0.48 0 1.16 0.48 0 1.2 0.48 0 0 0.52 0 0.04 0.52 0 0.08 0.52 0 0.12 0.52 0 0.16 0.52 0 0.2 0.52 0 0.24 0.52 0 0.28 0.52 0 0.32 0.52 0 0.36 0.52 0 0.4 0.52 0 0.44 0.52 0 0.48 0.52 0 0.52 0.52 0 0.56 0.52 0 0.6 0.52 0 0.64 0.52 0 0.68 0.52 0 0.72 0.52 0 0.76 0.52 0 0.8 0.52 0 0.84 0.52 0 0.88 0.52 0 0.92 0.52 0 0.96 0.52 0 1 0.52 0 1.04 0.52 0 1.08 0.52 0 1.12 0.52 0 1.16 0.52 0 1.2 0.52 0 0 0.56 0 0.04 0.56 0 0.08 0.56 0 0.12 0.56 0 0.16 0.56 0 0.2 0.56 0 0.24 0.56 0 0.28 0.56 0 0.32 0.56 0 0.36 0.56 0 0.4 0.56 0 0.44 0.56 0 0.48 0.56 0 0.52 0.56 0 0.56 0.56 0 0.6 0.56 0 0.64 0.56 0 0.68 0.56 0 0.72 0.56 0 0.76 0.56 0 0.8 0.56 0 0.84 0.56 0 0.88 0.56 0 0.92 0.56 0 0.96 0.56 0 1 0.56 0 1.04 0.56 0 1.08 0.56 0 1.12 0.56 0 1.16 0.56 0 1.2 0.56 0 0 0.6 0 0.04 0.6 0 0.08 0.6 0 0.12 0.6 0 0.16 0.6 0 0.2 0.6 0 0.24 0.6 0 0.28 0.6 0 0.32 0.6 0 0.36 0.6 0 0.4 0.6 0 0.44 0.6 0 0.48 0.6 0 0.52 0.6 0 0.56 0.6 0 0.6 0.6 0 0.64 0.6 0 0.68 0.6 0 0.72 0.6 0 0.76 0.6 0 0.8 0.6 0 0.84 0.6 0 0.88 0.6 0 0.92 0.6 0 0.96 0.6 0 1 0.6 0 1.04 0.6 0 1.08 0.6 0 1.12 0.6 0 1.16 0.6 0 1.2 0.6 0 0 0.64 0 0.04 0.64 0 0.08 0.64 0 0.12 0.64 0 0.16 0.64 0 0.2 0.64 0 0.24 0.64 0 0.28 0.64 0 0.32 0.64 0 0.36 0.64 0 0.4 0.64 0 0.44 0.64 0 0.48 0.64 0 0.52 0.64 0 0.56 0.64 0 0.6 0.64 0 0.64 0.64 0 0.68 0.64 0 0.72 0.64 0 0.76 0.64 0 0.8 0.64 0 0.84 0.64 0 0.88 0.64 0 0.92 0.64 0 0.96 0.64 0 1 0.64 0 1.04 0.64 0 1.08 0.64 0 1.12 0.64 0 1.16 0.64 0 1.2 0.64 0 0 0.68 0 0.04 0.68 0 0.08 0.68 0 0.12 0.68 0 0.16 0.68 0 0.2 0.68 0 0.24 0.68 0 0.28 0.68 0 0.32 0.68 0 0.36 0.68 0 0.4 0.68 0 0.44 0.68 0 0.48 0.68 0 0.52 0.68 0 0.56 0.68 0 0.6 0.68 0 0.64 0.68 0 0.68 0.68 0 0.72 0.68 0 0.76 0.68 0 0.8 0.68 0 0.84 0.68 0 0.88 0.68 0 0.92 0.68 0 0.96 0.68 0 1 0.68 0 1.04 0.68 0 1.08 0.68 0 1.12 0.68 0 1.16 0.68 0 1.2 0.68 0 0 0.72 0 0.04 0.72 0 0.08 0.72 0 0.12 0.72 0 0.16 0.72 0 0.2 0.72 0 0.24 0.72 0 0.28 0.72 0 0.32 0.72 0 0.36 0.72 0 0.4 0.72 0 0.44 0.72 0 0.48 0.72 0 0.52 0.72 0 0.56 0.72 0 0.6 0.72 0 0.64 0.72 0 0.68 0.72 0 0.72 0.72 0 0.76 0.72 0 0.8 0.72 0 0.84 0.72 0 0.88 0.72 0 0.92 0.72 0 0.96 0.72 0 1 0.72 0 1.04 0.72 0 1.08 0.72 0 1.12 0.72 0 1.16 0.72 0 1.2 0.72 0 0 0.76 0 0.04 0.76 0 0.08 0.76 0 0.12 0.76 0 0.16 0.76 0 0.2 0.76 0 0.24 0.76 0 0.28 0.76 0 0.32 0.76 0 0.36 0.76 0 0.4 0.76 0 0.44 0.76 0 0.48 0.76 0 0.52 0.76 0 0.56 0.76 0 0.6 0.76 0 0.64 0.76 0 0.68 0.76 0 0.72 0.76 0 0.76 0.76 0 0.8 0.76 0 0.84 0.76 0 0.88 0.76 0 0.92 0.76 0 0.96 0.76 0 1 0.76 0 1.04 0.76 0 1.08 0.76 0 1.12 0.76 0 1.16 0.76 0 1.2 0.76 0 0 0.8 0 0.04 0.8 0 0.08 0.8 0 0.12 0.8 0 0.16 0.8 0 0.2 0.8 0 0.24 0.8 0 0.28 0.8 0 0.32 0.8 0 0.36 0.8 0 0.4 0.8 0 0.44 0.8 0 0.48 0.8 0 0.52 0.8 0 0.56 0.8 0 0.6 0.8 0 0.64 0.8 0 0.68 0.8 0 0.72 0.8 0 0.76 0.8 0 0.8 0.8 0 0.84 0.8 0 0.88 0.8 0 0.92 0.8 0 0.96 0.8 0 1 0.8 0 1.04 0.8 0 1.08 0.8 0 1.12 0.8 0 1.16 0.8 0 1.2 0.8 0 0 0.84 0 0.04 0.84 0 0.08 0.84 0 0.12 0.84 0 0.16 0.84 0 0.2 0.84 0 0.24 0.84 0 0.28 0.84 0 0.32 0.84 0 0.36 0.84 0 0.4 0.84 0 0.44 0.84 0 0.48 0.84 0 0.52 0.84 0 0.56 0.84 0 0.6 0.84 0 0.64 0.84 0 0.68 0.84 0 0.72 0.84 0 0.76 0.84 0 0.8 0.84 0 0.84 0.84 0 0.88 0.84 0 0.92 0.84 0 0.96 0.84 0 1 0.84 0 1.04 0.84 0 1.08 0.84 0 1.12 0.84 0 1.16 0.84 0 1.2 0.84 0 0 0.88 0 0.04 0.88 0 0.08 0.88 0 0.12 0.88 0 0.16 0.88 0 0.2 0.88 0 0.24 0.88 0 0.28 0.88 0 0.32 0.88 0 0.36 0.88 0 0.4 0.88 0 0.44 0.88 0 0.48 0.88 0 0.52 0.88 0 0.56 0.88 0 0.6 0.88 0 0.64 0.88 0 0.68 0.88 0 0.72 0.88 0 0.76 0.88 0 0.8 0.88 0 0.84 0.88 0 0.88 0.88 0 0.92 0.88 0 0.96 0.88 0 1 0.88 0 1.04 0.88 0 1.08 0.88 0 1.12 0.88 0 1.16 0.88 0 1.2 0.88 0 0 0.92 0 0.04 0.92 0 0.08 0.92 0 0.12 0.92 0 0.16 0.92 0 0.2 0.92 0 0.24 0.92 0 0.28 0.92 0 0.32 0.92 0 0.36 0.92 0 0.4 0.92 0 0.44 0.92 0 0.48 0.92 0 0.52 0.92 0 0.56 0.92 0 0.6 0.92 0 0.64 0.92 0 0.68 0.92 0 0.72 0.92 0 0.76 0.92 0 0.8 0.92 0 0.84 0.92 0 0.88 0.92 0 0.92 0.92 0 0.96 0.92 0 1 0.92 0 1.04 0.92 0 1.08 0.92 0 1.12 0.92 0 1.16 0.92 0 1.2 0.92 0 0 0.96 0 0.04 0.96 0 0.08 0.96 0 0.12 0.96 0 0.16 0.96 0 0.2 0.96 0 0.24 0.96 0 0.28 0.96 0 0.32 0.96 0 0.36 0.96 0 0.4 0.96 0 0.44 0.96 0 0.48 0.96 0 0.52 0.96 0 0.56 0.96 0 0.6 0.96 0 0.64 0.96 0 0.68 0.96 0 0.72 0.96 0 0.76 0.96 0 0.8 0.96 0 0.84 0.96 0 0.88 0.96 0 0.92 0.96 0 0.96 0.96 0 1 0.96 0 1.04 0.96 0 1.08 0.96 0 1.12 0.96 0 1.16 0.96 0 1.2 0.96 0 0 1 0 0.04 1 0 0.08 1 0 0.12 1 0 0.16 1 0 0.2 1 0 0.24 1 0 0.28 1 0 0.32 1 0 0.36 1 0 0.4 1 0 0.44 1 0 0.48 1 0 0.52 1 0 0.56 1 0 0.6 1 0 0.64 1 0 0.68 1 0 0.72 1 0 0.76 1 0 0.8 1 0 0.84 1 0 0.88 1 0 0.92 1 0 0.96 1 0 1 1 0 1.04 1 0 1.08 1 0 1.12 1 0 1.16 1 0 1.2 1 0 0 1.04 0 0.04 1.04 0 0.08 1.04 0 0.12 1.04 0 0.16 1.04 0 0.2 1.04 0 0.24 1.04 0 0.28 1.04 0 0.32 1.04 0 0.36 1.04 0 0.4 1.04 0 0.44 1.04 0 0.48 1.04 0 0.52 1.04 0 0.56 1.04 0 0.6 1.04 0 0.64 1.04 0 0.68 1.04 0 0.72 1.04 0 0.76 1.04 0 0.8 1.04 0 0.84 1.04 0 0.88 1.04 0 0.92 1.04 0 0.96 1.04 0 1 1.04 0 1.04 1.04 0 1.08 1.04 0 1.12 1.04 0 1.16 1.04 0 1.2 1.04 0 0 1.08 0 0.04 1.08 0 0.08 1.08 0 0.12 1.08 0 0.16 1.08 0 0.2 1.08 0 0.24 1.08 0 0.28 1.08 0 0.32 1.08 0 0.36 1.08 0 0.4 1.08 0 0.44 1.08 0 0.48 1.08 0 0.52 1.08 0 0.56 1.08 0 0.6 1.08 0 0.64 1.08 0 0.68 1.08 0 0.72 1.08 0 0.76 1.08 0 0.8 1.08 0 0.84 1.08 0 0.88 1.08 0 0.92 1.08 0 0.96 1.08 0 1 1.08 0 1.04 1.08 0 1.08 1.08 0 1.12 1.08 0 1.16 1.08 0 1.2 1.08 0 0 1.12 0 
[...]
			<PointData Scalars="VitesseX">
				<DataArray Name="VitesseX" type="Float32" format="ascii">
 0 -0.159395 -0.272605 -0.268307 -0.209005 -0.154201 -0.204496 -0.409905 -0.763692 -1.24654 -1.79916 -2.2883 -2.60942 -2.74396 -2.6883 -2.53219 -2.35155 -2.16849 -1.98688 -1.80896 -1.63575 -1.4679 -1.30555 -1.14766 -0.991684 -0.834545 -0.673946 -0.510389 -0.345658 -0.177828 0 0 -0.0406556 -0.145241 -0.202157 -0.201428 -0.192688 -0.259061 -0.465135 -0.806506 -1.26474 -1.79598 -2.2729 -2.59268 -2.73126 -2.68315 -2.53076 -2.35041 -2.16773 -1.98624 -1.80829 -1.635 -1.46709 -1.30476 -1.14702 -0.991314 -0.834536 -0.674266 -0.510946 -0.346303 -0.178166 0 0 -0.136974 -0.236774 -0.330197 -0.4019 -0.461992 -0.534654 -0.681694 -0.950438 -1.33321 -1.79862 -2.23668 -2.54878 -2.69552 -2.67104 -2.5288 -2.34919 -2.16658 -1.98493 -1.80667 -1.63308 -1.46495 -1.30254 -1.14501 -0.989781 -0.833675 -0.674029 -0.51113 -0.34667 -0.178417 0 0 -0.236638 -0.415245 -0.55498 -0.677671 -0.783161 -0.86968 -0.974899 -1.1558 -1.43171 -1.79805 -2.1765 -2.4728 -2.62839 -2.6486 -2.52516 -2.34881 -2.16671 -1.98463 -1.80583 -1.63161 -1.46294 -1.30023 -1.14276 -0.987994 -0.832631 -0.673725 -0.511287 -0.346989 -0.178718 0 0 -0.303283 -0.544018 -0.739379 -0.902145 -1.04187 -1.14659 -1.22694 -1.34101 -1.52387 -1.78055 -2.08746 -2.3602 -2.53509 -2.60244 -2.5146 -2.3505 -2.16873 -1.98668 -1.80731 -1.63224 -1.46264 -1.29913 -1.14131 -0.986707 -0.831924 -0.673714 -0.511691 -0.347546 -0.179288 0 0 -0.333355 -0.610835 -0.842646 -1.04995 -1.23208 -1.3685 -1.44572 -1.50791 -1.60657 -1.75441 -1.97423 -2.21704 -2.41368 -2.5158 -2.49124 -2.35103 -2.17183 -1.99043 -1.81048 -1.63449 -1.46375 -1.29915 -1.14057 -0.985904 -0.831569 -0.674054 -0.512431 -0.348337 -0.17995 0 0 -0.28426 -0.569245 -0.845341 -1.10202 -1.32802 -1.50408 -1.60894 -1.64635 -1.67135 -1.73524 -1.84961 -2.04917 -2.25344 -2.39079 -2.44043 -2.34185 -2.17543 -1.9945 -1.81473 -1.63784 -1.46581 -1.2999 -1.14035 -0.98538 -0.831394 -0.674591 -0.513411 -0.349274 -0.180507 0 0 -0.188635 -0.415387 -0.689213 -0.984509 -1.27332 -1.52178 -1.68117 -1.73282 -1.72285 -1.71127 -1.74691 -1.86081 -2.05569 -2.23607 -2.33602 -2.31535 -2.17378 -1.99753 -1.81869 -1.64156 -1.46842 -1.30109 -1.14034 -0.984879 -0.831178 -0.67517 -0.514538 -0.350326 -0.18093 0 0 -0.115468 -0.27479 -0.497295 -0.762813 -1.05482 -1.34594 -1.58038 -1.70209 -1.71461 -1.67673 -1.65073 -1.68387 -1.83158 -2.03335 -2.1845 -2.24922 -2.15939 -1.99686 -1.82055 -1.64435 -1.47083 -1.30229 -1.14024 -0.984137 -0.83071 -0.675604 -0.515738 -0.351552 -0.181286 0 0 -0.0698106 -0.172859 -0.336423 -0.549717 -0.789625 -1.04698 -1.30251 -1.49961 -1.58018 -1.57154 -1.53392 -1.52279 -1.59229 -1.78646 -1.99245 -2.11417 -2.12134 -1.98793 -1.81858 -1.64481 -1.47199 -1.30288 -1.13971 -0.982909 -0.829753 -0.675715 -0.516933 -0.353025 -0.181714 0 0 -0.035526 -0.096418 -0.20242 -0.353185 -0.537449 -0.741081 -0.952714 -1.15431 -1.30124 -1.35522 -1.34924 -1.33702 -1.36582 -1.50633 -1.73637 -1.93042 -2.02582 -1.96113 -1.80945 -1.6416 -1.47117 -1.30245 -1.13856 -0.98101 -0.828098 -0.67531 -0.518007 -0.354771 -0.182365 0 0 0.00187781 -0.0178426 -0.0747796 -0.172945 -0.30272 -0.454636 -0.624215 -0.792861 -0.938389 -1.03523 -1.07181 -1.08897 -1.1215 -1.21445 -1.43448 -1.68505 -1.85234 -1.90015 -1.78785 -1.63106 -1.46697 -1.30047 -1.1366 -0.978382 -0.82558 -0.674152 -0.51878 -0.356745 -0.183401 0 0 0.0406827 0.06268 0.0516354 0.00247952 -0.0826014 -0.198179 -0.329519 -0.466045 -0.594393 -0.690816 -0.746306 -0.771457 -0.82195 -0.910977 -1.09343 -1.37222 -1.6235 -1.75973 -1.74263 -1.61073 -1.45617 -1.29581 -1.13354 -0.975058 -0.82215 -0.672015 -0.519008 -0.358796 -0.185021 0 0 0.0715396 0.12794 0.157451 0.152895 0.109509 0.0337608 -0.0650506 -0.181837 -0.295393 -0.386439 -0.437572 -0.454372 -0.475569 -0.568313 -0.726526 -1.00448 -1.31769 -1.54791 -1.64164 -1.57159 -1.4365 -1.28593 -1.12881 -0.971005 -0.817871 -0.668793 -0.518422 -0.360657 -0.187284 0 0 0.0871925 0.163694 0.220717 0.250633 0.248489 0.219267 0.156986 0.0705928 -0.028474 -0.122395 -0.180782 -0.193856 -0.173553 -0.195862 -0.338235 -0.586979 -0.941617 -1.2625 -1.45662 -1.49877 -1.40193 -1.26827 -1.12065 -0.96622 -0.813014 -0.664549 -0.516699 -0.362034 -0.190181 0 0 0.0864591 0.167148 0.238917 0.291722 0.321393 0.328652 0.308224 0.266768 0.20121 0.125491 0.05564 0.0205971 0.0353263 0.0854486 0.0565916 -0.146695 -0.494493 -0.895862 -1.20077 -1.35037 -1.34382 -1.23877 -1.10637 -0.959966 -0.808024 -0.659518 -0.513667 -0.362604 -0.193592 0 0 0.075802 0.148249 0.217642 0.27929 0.332907 0.367843 0.380616 0.375329 0.355268 0.323308 0.278304 0.237388 0.225765 0.256763 0.316036 0.268389 -0.00535687 -0.439472 -0.856779 -1.12845 -1.23097 -1.19134 -1.08302 -0.949829 -0.803132 -0.654268 -0.509406 -0.362105 -0.197412 0 0 0.0632632 0.126208 0.18407 0.23993 0.291878 0.338497 0.379652 0.407762 0.422867 0.429611 0.432266 0.430176 0.42327 0.434571 0.475226 0.520339 0.432477 0.0854829 -0.408159 -0.81549 -1.04476 -1.10735 -1.0464 -0.933367 -0.797152 -0.649556 -0.504405 -0.360259 -0.201432 0 0 0.0525151 0.104941 0.151204 0.199598 0.24477 0.289107 0.330347 0.36939 0.411584 0.452995 0.495216 0.538348 0.574141 0.608009 0.642332 0.683282 0.694997 0.548668 0.13414 -0.388108 -0.767223 -0.954095 -0.983985 -0.90785 -0.787703 -0.646023 -0.499551 -0.357101 -0.20529 0 0 0.044142 0.0836493 0.123131 0.163314 0.203313 0.245388 0.282633 0.318975 0.361787 0.414909 0.480857 0.555154 0.633877 0.714713 0.779883 0.834787 0.868416 0.8362 0.621174 0.152812 -0.369462 -0.710745 -0.857537 -0.863113 -0.772738 -0.642569 -0.496008 -0.353254 -0.208663 0 0 0.036602 0.0633873 0.0992582 0.13187 0.173236 0.214297 0.244876 0.275345 0.314573 0.367788 0.435568 0.515592 0.610103 0.716909 0.832583 0.937087 1.00091 1.01869 0.93919 0.658526 0.155567 -0.345516 -0.644933 -0.758643 -0.743123 -0.637037 -0.494829 -0.350052 -0.211408 0 0 0.0256965 0.0470548 0.0761233 0.107859 0.155701 0.192595 0.216881 0.243697 0.280684 0.331277 0.395092 0.471196 0.560142 0.662245 0.782773 0.922198 1.06142 1.12597 1.12622 1.00427 0.670203 0.155466 -0.312923 -0.571972 -0.658398 -0.620369 -0.495468 -0.348935 -0.213491 0 0 0.0123314 0.0348708 0.051431 0.0943268 0.145501 0.175459 0.195721 0.221938 0.259044 0.308279 0.368258 0.43737 0.515838 0.606381 0.711236 0.835353 0.988181 1.14195 1.20585 1.19125 1.03486 0.664614 0.158877 -0.271504 -0.494417 -0.554173 -0.490423 -0.351084 -0.215264 0 0 0.00144273 0.0179917 0.0299121 0.089409 0.136268 0.159349 0.178137 0.205829 0.244834 0.294255 0.351582 0.415002 0.484308 0.561225 0.649096 0.751838 0.875475 1.03072 1.18245 1.24385 1.21809 1.03738 0.650991 0.167976 -0.222751 -0.411931 -0.442738 -0.352014 -0.216703 0 0 -0.00451457 -0.0105217 0.0189796 0.0859978 0.123853 0.142321 0.161201 0.191329 0.232936 0.283283 0.338966 0.398214 0.460727 0.527549 0.600976 0.684465 0.782504 0.901796 1.05085 1.19417 1.24828 1.21538 1.0196 0.634928 0.180757 -0.167517 -0.321782 -0.321573 -0.215438 0 0 -0.00943236 -0.0413804 0.017763 0.0730887 0.106401 0.123063 0.143277 0.176197 0.220232 0.271281 0.325592 0.381435 0.43864 0.498077 0.56152 0.631223 0.710118 0.802564 0.914869 1.05284 1.18333 1.22961 1.19068 0.987324 0.61706 0.19462 -0.104007 -0.219942 -0.189409 0 0 -0.0329097 -0.0634212 0.00560918 0.0534569 0.0848595 0.101331 0.122875 0.157767 0.202986 0.253782 0.306501 0.359499 0.412741 0.466914 0.523181 0.583285 0.649481 0.724287 0.811143 0.91541 1.04066 1.1566 1.19444 1.1486 0.943937 0.594558 0.207813 -0.0260443 -0.0996191 0 0 -0.0647802 -0.0731607 -0.0138948 0.0325118 0.0585881 0.0739088 0.0964856 0.131847 0.176786 0.226172 0.27656 0.326699 0.376781 0.427253 0.478933 0.532963 0.590785 0.654241 0.72581 0.808524 0.905895 1.01875 1.11923 1.14647 1.09032 0.886059 0.568318 0.217295 0.0838829 0 0 -0.0918158 -0.119262 -0.0257035 0.0083975 0.0252008 0.0305733 0.0523402 0.0858525 0.129814 0.177008 0.224068 0.270413 0.316958 0.364246 0.412991 0.464052 0.518365 0.57692 0.640942 0.712205 0.793366 0.887627 0.995326 1.08859 1.10511 1.02797 0.823293 0.558997 0.214162 0 0 -0.352236 -0.0985509 -0.0437868 -0.0043576 -0.000685634 -0.00407052 -0.00138106 0.0176854 0.0445307 0.0753739 0.108431 0.143115 0.179208 0.217456 0.258775 0.304122 0.354443 0.410686 0.473967 0.54578 0.628392 0.725143 0.840077 0.975582 1.11038 1.15202 1.04591 0.804539 0.62382 0 0 0 0 0 0 0 0 0 0 0 0 0 0 0 0 0 0 0 0 0 0 0 0 0 0 0 0 0 0 0 0
				</DataArray>
				<DataArray Name="VitesseY" type="Float32" format="ascii">
 0 0 0 0 0 0 0 0 0 0 0 0 0 0 0 0 0 0 0 0 0 0 0 0 0 0 0 0 0 0 0 -0.232401 -0.124062 -0.22392 -0.311271 -0.369864 -0.363183 -0.258662 -0.170939 -0.110512 -0.0629633 -0.0148104 0.031786 0.0679107 0.0861567 0.0863077 0.0755733 0.0633508 0.052978 0.0449969 0.0393836 0.0357625 0.0335523 0.0321029 0.0308707 0.0295017 0.0275827 0.0249364 0.0213431 0.0156086 0.00614251 0 -0.435102 -0.304493 -0.408114 -0.565151 -0.664288 -0.680982 -0.530615 -0.368388 -0.250732 -0.153318 -0.0543432 0.0425437 0.119139 0.160579 0.168076 0.149485 0.126408 0.10612 0.0903299 0.0791268 0.0718885 0.0674834 0.0646096 0.0621729 0.0594913 0.0557983 0.0506149 0.0433235 0.0314078 0.0118605 0 -0.498802 -0.438272 -0.573947 -0.763005 -0.89812 -0.948197 -0.826538 -0.620178 -0.445581 -0.291873 -0.137208 0.015626 0.139942 0.215362 0.24002 0.219735 0.188558 0.159423 0.136266 0.119678 0.108836 0.102219 0.0979338 0.0943437 0.0904275 0.0850188 0.0773385 0.0664052 0.0481795 0.0179414 0 -0.491107 -0.491293 -0.691989 -0.91898 -1.09216 -1.18002 -1.11867 -0.910176 -0.688219 -0.475931 -0.265105 -0.0565592 0.120839 0.238151 0.290116 0.285196 0.249556 0.213209 0.183401 0.161549 0.147069 0.138163 0.132442 0.127711 0.122587 0.115509 0.10539 0.0908614 0.0664463 0.0249968 0 -0.445371 -0.503643 -0.768441 -1.03859 -1.24896 -1.37334 -1.38323 -1.2109 -0.953884 -0.689888 -0.428527 -0.17135 0.0581504 0.22601 0.318336 0.34319 0.309054 0.268216 0.232403 0.205424 0.187195 0.175808 0.168512 0.162571 0.156213 0.147482 0.134972 0.116951 0.0866876 0.0335889 0 -0.44031 -0.51877 -0.819954 -1.12018 -1.35808 -1.52349 -1.59335 -1.48488 -1.22753 -0.921533 -0.613508 -0.318022 -0.0431348 0.17957 0.319358 0.378762 0.367252 0.324944 0.284053 0.252158 0.229879 0.215718 0.206594 0.199268 0.191565 0.181159 0.166295 0.14491 0.109224 0.0441395 0 -0.539216 -0.609395 -0.877783 -1.17374 -1.41315 -1.60562 -1.71733 -1.69002 -1.47901 -1.15411 -0.810952 -0.480834 -0.172376 0.0954778 0.289054 0.393574 0.421059 0.3833 0.339601 0.302517 0.275811 0.258306 0.246946 0.237971 0.228742 0.216605 0.19943 0.174808 0.13408 0.0568384 0 -0.75135 -0.803508 -0.999346 -1.24256 -1.44674 -1.61699 -1.74324 -1.7824 -1.64982 -1.35815 -1.00049 -0.646737 -0.318649 -0.0175487 0.228597 0.384206 0.452322 0.443447 0.399491 0.357625 0.325734 0.304032 0.289708 0.278658 0.267651 0.253716 0.23428 0.20655 0.161127 0.0717695 0 -1.05456 -1.08709 -1.20643 -1.36624 -1.50726 -1.6194 -1.70747 -1.75706 -1.69565 -1.48213 -1.15038 -0.795346 -0.458436 -0.143861 0.138497 0.35102 0.467806 0.501278 0.463707 0.418465 0.380598 0.353539 0.335216 0.321414 0.308215 0.292355 0.270721 0.24004 0.190255 0.0890904 0 -1.43048 -1.44154 -1.49186 -1.55743 -1.61751 -1.6534 -1.67844 -1.68209 -1.63722 -1.49267 -1.22527 -0.894743 -0.566581 -0.261357 0.0344483 0.291214 0.461638 0.537619 0.532301 0.486235 0.441773 0.407849 0.384125 0.366589 0.350593 0.332529 0.308729 0.2753 0.221439 0.109117 0 -1.85449 -1.84741 -1.83822 -1.81849 -1.78252 -1.73816 -1.68472 -1.62891 -1.55303 -1.4229 -1.21511 -0.927444 -0.620036 -0.333009 -0.059478 0.21394 0.437504 0.564481 0.599861 0.560994 0.510995 0.468682 0.437612 0.414899 0.395261 0.37449 0.348431 0.31248 0.254811 0.13221 0 -2.24047 -2.22277 -2.18011 -2.11091 -2.01271 -1.88599 -1.74881 -1.62494 -1.50281 -1.35948 -1.16473 -0.909778 -0.620762 -0.346573 -0.103328 0.146539 0.393565 0.572655 0.652852 0.64394 0.590683 0.53827 0.497615 0.4676 0.443068 0.41874 0.390113 0.351795 0.290855 0.158559 0 -2.50505 -2.48616 -2.43681 -2.35454 -2.23472 -2.08216 -1.90483 -1.70857 -1.51733 -1.33726 -1.13999 -0.898779 -0.611536 -0.323126 -0.0847722 0.123983 0.354373 0.568375 0.700476 0.728317 0.68085 0.620082 0.566757 0.526648 0.495236 0.4661 0.434248 0.393488 0.329838 0.188642 0 -2.62006 -2.60514 -2.56345 -2.48803 -2.38286 -2.25077 -2.08538 -1.88235 -1.6548 -1.41218 -1.17575 -0.932524 -0.655744 -0.340805 -0.0460779 0.161261 0.348736 0.559522 0.729595 0.812328 0.78515 0.715773 0.64861 0.594718 0.55349 0.51778 0.481498 0.437886 0.371949 0.222924 0 -2.55356 -2.54576 -2.52657 -2.49394 -2.43724 -2.3415 -2.2043 -2.04366 -1.84824 -1.61128 -1.34619 -1.06109 -0.766395 -0.453638 -0.111336 0.195931 0.39106 0.566145 0.75257 0.878059 0.898903 0.828403 0.746634 0.675317 0.620213 0.575376 0.532806 0.485452 0.417403 0.261816 0 -2.39847 -2.39332 -2.38189 -2.36415 -2.33767 -2.29852 -2.23664 -2.13093 -1.98218 -1.80875 -1.58827 -1.32113 -1.01494 -0.672868 -0.311364 0.0685388 0.393088 0.598453 0.768761 0.92505 1.00912 0.965098 0.864713 0.772601 0.698702 0.64081 0.589548 0.536862 0.466507 0.305768 0 -2.21781 -2.21226 -2.19827 -2.18164 -2.16489 -2.14427 -2.11822 -2.08279 -2.02457 -1.9175 -1.76603 -1.57922 -1.32832 -1.02223 -0.656276 -0.245655 0.187656 0.541967 0.77239 0.942271 1.06681 1.10563 1.01367 0.891997 0.793169 0.716754 0.653541 0.593115 0.519713 0.355328 0 -2.0382 -2.02927 -2.0122 -1.99291 -1.97089 -1.95206 -1.9373 -1.92326 -1.90862 -1.8855 -1.83474 -1.72459 -1.56362 -1.34494 -1.05295 -0.685153 -0.245182 0.242355 0.640012 0.904111 1.07505 1.16938 1.16536 1.04362 0.909885 0.807251 0.726939 0.655674 0.577664 0.411168 0 -1.85787 -1.84585 -1.82525 -1.80039 -1.77713 -1.76112 -1.74752 -1.73824 -1.73564 -1.738 -1.73586 -1.71757 -1.65824 -1.52832 -1.33896 -1.07612 -0.725835 -0.279416 0.246552 0.691113 0.991194 1.16454 1.23144 1.19479 1.05675 0.918242 0.812919 0.72673 0.641362 0.474234 0 -1.67728 -1.66272 -1.63663 -1.60879 -1.58777 -1.57349 -1.56178 -1.5584 -1.56451 -1.57596 -1.58522 -1.58791 -1.57798 -1.54435 -1.45683 -1.29864 -1.07037 -0.749045 -0.316009 0.222882 0.706135 1.03872 1.21375 1.25653 1.19948 1.05518 0.916631 0.809118 0.712455 0.545931 0 -1.4962 -1.47945 -1.44614 -1.421 -1.40471 -1.39165 -1.38373 -1.38743 -1.40052 -1.41713 -1.4317 -1.43957 -1.43924 -1.42832 -1.39876 -1.33908 -1.21819 -1.02653 -0.74137 -0.336028 0.193168 0.698135 1.05453 1.22948 1.25369 1.18527 1.04145 0.906278 0.79352 0.628479 0 -1.31549 -1.29434 -1.25883 -1.24054 -1.22922 -1.21866 -1.21747 -1.22787 -1.24504 -1.26253 -1.27702 -1.28673 -1.29002 -1.28632 -1.27303 -1.24567 -1.19909 -1.11087 -0.953 -0.704224 -0.33325 0.172045 0.679021 1.04693 1.22029 1.23156 1.15719 1.01898 0.887723 0.725193 0 -1.13504 -1.10262 -1.07723 -1.06742 -1.06154 -1.05774 -1.06429 -1.07975 -1.09785 -1.11361 -1.12524 -1.13239 -1.13516 -1.13443 -1.12852 -1.11522 -1.09193 -1.05508 -0.99131 -0.862064 -0.645685 -0.309729 0.165222 0.657125 1.02348 1.19245 1.19502 1.11938 0.995384 0.840106 0 -0.953305 -0.908106 -0.904337 -0.89996 -0.901352 -0.908332 -0.922298 -0.940383 -0.957243 -0.969908 -0.977779 -0.981321 -0.981332 -0.979147 -0.97498 -0.968436 -0.957619 -0.940288 -0.913918 -0.868359 -0.762372 -0.573712 -0.271131 0.169995 0.637091 0.988624 1.14912 1.14659 1.08862 0.975598 0 -0.758254 -0.714885 -0.736429 -0.736394 -0.749911 -0.766581 -0.785681 -0.804553 -0.818896 -0.828163 -0.83257 -0.833124 -0.831146 -0.826976 -0.821437 -0.815312 -0.809161 -0.802058 -0.791623 -0.77585 -0.745727 -0.66038 -0.495507 -0.222916 0.181271 0.617701 0.944296 1.09044 1.10513 1.11039 0 -0.538325 -0.524069 -0.567047 -0.574649 -0.606012 -0.626507 -0.646771 -0.663854 -0.675515 -0.682345 -0.684897 -0.684668 -0.682043 -0.677571 -0.671862 -0.665374 -0.658743 -0.652918 -0.648484 -0.644334 -0.638323 -0.621375 -0.554962 -0.412396 -0.167648 0.194714 0.594714 0.886136 1.02799 1.15202 0 -0.297038 -0.327151 -0.400151 -0.419836 -0.464858 -0.479498 -0.499123 -0.513555 -0.522301 -0.527463 -0.529693 -0.529793 -0.528463 -0.525938 -0.522369 -0.517795 -0.512364 -0.506515 -0.501032 -0.497003 -0.495488 -0.495921 -0.49076 -0.442986 -0.321932 -0.104061 0.20782 0.568347 0.823305 1.04591 0 -0.0226944 -0.102672 -0.254547 -0.27697 -0.311193 -0.325552 -0.343831 -0.355754 -0.361775 -0.365509 -0.366821 -0.367153 -0.367064 -0.366761 -0.36629 -0.365457 -0.363936 -0.361424 -0.357859 -0.35376 -0.350382 -0.349147 -0.351209 -0.352101 -0.321636 -0.21998 -0.02606 0.217293 0.559 0.804538 0 0.598861 0.0266941 -0.19768 -0.122397 -0.165789 -0.164759 -0.182773 -0.18393 -0.192019 -0.192351 -0.191816 -0.191135 -0.190845 -0.191314 -0.192775 -0.195178 -0.19835 -0.20198 -0.205624 -0.208864 -0.21153 -0.213565 -0.215305 -0.216728 -0.215455 -0.18942 -0.099627 0.0838792 0.21416 0.62382 0 5.21417 0 0 0 0 0 0 0 0 0 0 0 0 0 0 0 0 0 0 0 0 0 0 0 0 0 0 0 0 0 0
				</DataArray>
			</PointData>
			<CellData Scalars="Density">
				<DataArray Name="Density" type="Float32" format="ascii">