<?xml version="1.0"?>
<VTKFile type="PolyData">
	<PolyData>
		<Piece NumberOfPoints="961" NumberOfPolys="900">
			<Points>
				<DataArray type="Float32" NumberOfComponents="3" format="ascii">
 0 0 0 0.04 0 0 0.08 0 0 0.12 0 0 0.16 0 0 0.2 0 0 0.24 0 0 0.28 0 0 0.32 0 0 0.36 0 0 0.4 0 0 0.44 0 0 0.48 0 0 0.52 0 0 0.56 0 0 0.6 0 0 0.64 0 0 0.68 0 0 0.72 0 0 0.76 0 0 0.8 0 0 0.84 0 0 0.88 0 0 0.92 0 0 0.96 0 0 1 0 0 1.04 0 0 1.08 0 0 1.12 0 0 1.16 0 0 1.2 0 0 0 0.04 0 0.04 0.04 0 0.08 0.04 0 0.12 0.04 0 0.16 0.04 0 0.2 0.04 0 0.24 0.04 0 0.28 0.04 0 0.32 0.04 0 0.36 0.04 0 0.4 0.04 0 0.44 0.04 0 0.48 0.04 0 0.52 0.04 0 0.56 0.04 0 0.6 0.04 0 0.64 0.04 0 0.68 0.04 0 0.72 0.04 0 0.76 0.04 0 0.8 0.04 0 0.84 0.04 0 0.88 0.04 0 0.92 0.04 0 0.96 0.04 0 1 0.04 0 1.04 0.04 0 1.08 0.04 0 1.12 0.04 0 1.16 0.04 0 1.2 0.04 0 0 0.08 0 0.04 0.08 0 0.08 0.08 0 0.12 0.08 0 0.16 0.08 0 0.2 0.08 0 0.24 0.08 0 0.28 0.08 0 0.32 0.08 0 0.36 0.08 0 0.4 0.08 0 0.44 0.08 0 0.48 0.08 0 0.52 0.08 0 0.56 0.08 0 0.6 0.08 0 0.64 0.08 0 0.68 0.08 0 0.72 0.08 0 0.76 0.08 0 0.8 0.08 0 0.84 0.08 0 0.88 0.08 0 0.92 0.08 0 0.96 0.08 0 1 0.08 0 1.04 0.08 0 1.08 0.08 0 1.12 0.08 0 1.16 0.08 0 1.2 0.08 0 0 0.12 0 0.04 0.12 0 0.08 0.12 0 0.12 0.12 0 0.16 0.12 0 0.2 0.12 0 0.24 0.12 0 0.28 0.12 0 0.32 0.12 0 0.36 0.12 0 0.4 0.12 0 0.44 0.12 0 0.48 0.12 0 0.52 0.12 0 0.56 0.12 0 0.6 0.12 0 0.64 0.12 0 0.68 0.12 0 0.72 0.12 0 0.76 0.12 0 0.8 0.12 0 0.84 0.12 0 0.88 0.12 0 0.92 0.12 0 0.96 0.12 0 1 0.12 0 1.04 0.12 0 1.08 0.12 0 1.12 0.12 0 1.16 0.12 0 1.2 0.12 0 0 0.16 0 0.04 0.16 0 0.08 0.16 0 0.12 0.16 0 0.16 0.16 0 0.2 0.16 0 0.24 0.16 0 0.28 0.16 0 0.32 0.16 0 0.36 0.16 0 0.4 0.16 0 0.44 0.16 0 0.48 0.16 0 0.52 0.16 0 0.56 0.16 0 0.6 0.16 0 0.64 0.16 0 0.68 0.16 0 0.72 0.16 0 0.76 0.16 0 0.8 0.16 0 0.84 0.16 0 0.88 0.16 0 0.92 0.16 0 0.96 0.16 0 1 0.16 0 1.04 0.16 0 1.08 0.16 0 1.12 0.16 0 1.16 0.16 0 1.2 0.16 0 0 0.2 0 0.04 0.2 0 0.08 0.2 0 0.12 0.2 0 0.16 0.2 0 0.2 0.2 0 0.24 0.2 0 0.28 0.2 0 0.32 0.2 0 0.36 0.2 0 0.4 0.2 0 0.44 0.2 0 0.48 0.2 0 0.52 0.2 0 0.56 0.2 0 0.6 0.2 0 0.64 0.2 0 0.68 0.2 0 0.72 0.2 0 0.76 0.2 0 0.8 0.2 0 0.84 0.2 0 0.88 0.2 0 0.92 0.2 0 0.96 0.2 0 1 0.2 0 1.04 0.2 0 1.08 0.2 0 1.12 0.2 0 1.16 0.2 0 1.2 0.2 0 0 0.24 0 0.04 0.24 0 0.08 0.24 0 0.12 0.24 0 0.16 0.24 0 0.2 0.24 0 0.24 0.24 0 0.28 0.24 0 0.32 0.24 0 0.36 0.24 0 0.4 0.24 0 0.44 0.24 0 0.48 0.24 0 0.52 0.24 0 0.56 0.24 0 0.6 0.24 0 0.64 0.24 0 0.68 0.24 0 0.72 0.24 0 0.76 0.24 0 0.8 0.24 0 0.84 0.24 0 0.88 0.24 0 0.92 0.24 0 0.96 0.24 0 1 0.24 0 1.04 0.24 0 1.08 0.24 0 1.12 0.24 0 1.16 0.24 0 1.2 0.24 0 0 0.28 0 0.04 0.28 0 0.08 0.28 0 0.12 0.28 0 0.16 0.28 0 0.2 0.28 0 0.24 0.28 0 0.28 0.28 0 0.32 0.28 0 0.36 0.28 0 0.4 0.28 0 0.44 0.28 0 0.48 0.28 0 0.52 0.28 0 0.56 0.28 0 0.6 0.28 0 0.64 0.28 0 0.68 0.28 0 0.72 0.28 0 0.76 0.28 0 0.8 0.28 0 0.84 0.28 0 0.88 0.28 0 0.92 0.28 0 0.96 0.28 0 1 0.28 0 1.04 0.28 0 1.08 0.28 0 1.12 0.28 0 1.16 0.28 0 1.2 0.28 0 0 0.32 0 0.04 0.32 0 0.08 0.32 0 0.12 0.32 0 0.16 0.32 0 0.2 0.32 0 0.24 0.32 0 0.28 0.32 0 0.32 0.32 0 0.36 0.32 0 0.4 0.32 0 0.44 0.32 0 0.48 0.32 0 0.52 0.32 0 0.56 0.32 0 0.6 0.32 0 0.64 0.32 0 0.68 0.32 0 0.72 0.32 0 0.76 0.32 0 0.8 0.32 0 0.84 0.32 0 0.88 0.32 0 0.92 0.32 0 0.96 0.32 0 1 0.32 0 1.04 0.32 0 1.08 0.32 0 1.12 0.32 0 1.16 0.32 0 1.2 0.32 0 0 0.36 0 0.04 0.36 0 0.08 0.36 0 0.12 0.36 0 0.16 0.36 0 0.2 0.36 0 0.24 0.36 0 0.28 0.36 0 0.32 0.36 0 0.36 0.36 0 0.4 0.36 0 0.44 0.36 0 0.48 0.36 0 0.52 0.36 0 0.56 0.36 0 0.6 0.36 0 0.64 0.36 0 0.68 0.36 0 0.72 0.36 0 0.76 0.36 0 0.8 0.36 0 0.84 0.36 0 0.88 0.36 0 0.92 0.36 0 0.96 0.36 0 1 0.36 0 1.04 0.36 0 1.08 0.36 0 1.12 0.36 0 1.16 0.36 0 1.2 0.36 0 0 0.4 0 0.04 0.4 0 0.08 0.4 0 0.12 0.4 0 0.16 0.4 0 0.2 0.4 0 0.24 0.4 0 0.28 0.4 0 0.32 0.4 0 0.36 0.4 0 0.4 0.4 0 0.44 0.4 0 0.48 0.4 0 0.52 0.4 0 0.56 0.4 0 0.6 0.4 0 0.64 0.4 0 0.68 0.4 0 0.72 0.4 0 0.76 0.4 0 0.8 0.4 0 0.84 0.4 0 0.88 0.4 0 0.92 0.4 0 0.96 0.4 0 1 0.4 0 1.04 0.4 0 1.08 0.4 0 1.12 0.4 0 1.16 0.4 0 1.2 0.4 0 0 0.44 0 0.04 0.44 0 0.08 0.44 0 0.12 0.44 0 0.16 0.44 0 0.2 0.44 0 0.24 0.44 0 0.28 0.44 0 0.32 0.44 0 0.36 0.44 0 0.4 0.44 0 0.44 0.44 0 0.48 0.44 0 0.52 0.44 0 0.56 0.44 0 0.6 0.44 0 0.64 0.44 0 0.68 0.44 0 0.72 0.44 0 0.76 0.44 0 0.8 0.44 0 0.84 0.44 0 0.88 0.44 0 0.92 0.44 0 0.96 0.44 0 1 0.44 0 1.04 0.44 0 1.08 0.44 0 1.12 0.44 0 1.16 0.44 0 1.2 0.44 0 0 0.48 0 0.04 0.48 0 0.08 0.48 0 0.12 0.48 0 0.16 0.48 0 0.2 0.48 0 0.24 0.48 0 0.28 0.48 0 0.32 0.48 0 0.36 0.48 0 0.4 0.48 0 0.44 0.48 0 0.48 0.48 0 0.52 0.48 0 0.56 0.48 0 0.6 0.48 0 0.64 0.48 0 0.68 0.48 0 0.72 0.48 0 0.76 0.48 0 0.8 0.48 0 0.84 0.48 0 0.88 0.48 0 0.92 0.48 0 0.96 0.48 0 1 0.48 0 1.04 0.48 0 1.08 0.48 0 1.12 0.48 0 1.16 0.48 0 1.2 0.48 0 0 0.52 0 0.04 0.52 0 0.08 0.52 0 0.12 0.52 0 0.16 0.52 0 0.2 0.52 0 0.24 0.52 0 0.28 0.52 0 0.32 0.52 0 0.36 0.52 0 0.4 0.52 0 0.44 0.52 0 0.48 0.52 0 0.52 0.52 0 0.56 0.52 0 0.6 0.52 0 0.64 0.52 0 0.68 0.52 0 0.72 0.52 0 0.76 0.52 0 0.8 0.52 0 0.84 0.52 0 0.88 0.52 0 0.92 0.52 0 0.96 0.52 0 1 0.52 0 1.04 0.52 0 1.08 0.52 0 1.12 0.52 0 1.16 0.52 0 1.2 0.52 0 0 0.56 0 0.04 0.56 0 0.08 0.56 0 0.12 0.56 0 0.16 0.56 0 0.2 0.56 0 0.24 0.56 0 0.28 0.56 0 0.32 0.56 0 0.36 0.56 0 0.4 0.56 0 0.44 0.56 0 0.48 0.56 0 0.52 0.56 0 0.56 0.56 0 0.6 0.56 0 0.64 0.56 0 0.68 0.56 0 0.72 0.56 0 0.76 0.56 0 0.8 0.56 0 0.84 0.56 0 0.88 0.56 0 0.92 0.56 0 0.96 0.56 0 1 0.56 0 1.04 0.56 0 1.08 0.56 0 1.12 0.56 0 1.16 0.56 0 1.2 0.56 0 0 0.6 0 0.04 0.6 0 0.08 0.6 0 0.12 0.6 0 0.16 0.6 0 0.2 0.6 0 0.24 0.6 0 0.28 0.6 0 0.32 0.6 0 0.36 0.6 0 0.4 0.6 0 0.44 0.6 0 0.48 0.6 0 0.52 0.6 0 0.56 0.6 0 0.6 0.6 0 0.64 0.6 0 0.68 0.6 0 0.72 0.6 0 0.76 0.6 0 0.8 0.6 0 0.84 0.6 0 0.88 0.6 0 0.92 0.6 0 0.96 0.6 0 1 0.6 0 1.04 0.6 0 1.08 0.6 0 1.12 0.6 0 1.16 0.6 0 1.2 0.6 0 0 0.64 0 0.04 0.64 0 0.08 0.64 0 0.12 0.64 0 0.16 0.64 0 0.2 0.64 0 0.24 0.64 0 0.28 0.64 0 0.32 0.64 0 0.36 0.64 0 0.4 0.64 0 0.44 0.64 0 0.48 0.64 0 0.52 0.64 0 0.56 0.64 0 0.6 0.64 0 0.64 0.64 0 0.68 0.64 0 0.72 0.64 0 0.76 0.64 0 0.8 0.64 0 0.84 0.64 0 0.88 0.64 0 0.92 0.64 0 0.96 0.64 0 1 0.64 0 1.04 0.64 0 1.08 0.64 0 1.12 0.64 0 1.16 0.64 0 1.2 0.64 0 0 0.68 0 0.04 0.68 0 0.08 0.68 0 0.12 0.68 0 0.16 0.68 0 0.2 0.68 0 0.24 0.68 0 0.28 0.68 0 0.32 0.68 0 0.36 0.68 0 0.4 0.68 0 0.44 0.68 0 0.48 0.68 0 0.52 0.68 0 0.56 0.68 0 0.6 0.68 0 0.64 0.68 0 0.68 0.68 0 0.72 0.68 0 0.76 0.68 0 0.8 0.68 0 0.84 0.68 0 0.88 0.68 0 0.92 0.68 0 0.96 0.68 0 1 0.68 0 1.04 0.68 0 1.08 0.68 0 1.12 0.68 0 1.16 0.68 0 1.2 0.68 0 0 0.72 0 0.04 0.72 0 0.08 0.72 0 0.12 0.72 0 0.16 0.72 0 0.2 0.72 0 0.24 0.72 0 0.28 0.72 0 0.32 0.72 0 0.36 0.72 0 0.4 0.72 0 0.44 0.72 0 0.48 0.72 0 0.52 0.72 0 0.56 0.72 0 0.6 0.72 0 0.64 0.72 0 0.68 0.72 0 0.72 0.72 0 0.76 0.72 0 0.8 0.72 0 0.84 0.72 0 0.88 0.72 0 0.92 0.72 0 0.96 0.72 0 1 0.72 0 1.04 0.72 0 1.08 0.72 0 1.12 0.72 0 1.16 0.72 0 1.2 0.72 0 0 0.76 0 0.04 0.76 0 0.08 0.76 0 0.12 0.76 0 0.16 0.76 0 0.2 0.76 0 0.24 0.76 0 0.28 0.76 0 0.32 0.76 0 0.36 0.76 0 0.4 0.76 0 0.44 0.76 0 0.48 0.76 0 0.52 0.76 0 0.56 0.76 0 0.6 0.76 0 0.64 0.76 0 0.68 0.76 0 0.72 0.76 0 0.76 0.76 0 0.8 0.76 0 0.84 0.76 0 0.88 0.76 0 0.92 0.76 0 0.96 0.76 0 1 0.76 0 1.04 0.76 0 1.08 0.76 0 1.12 0.76 0 1.16 0.76 0 1.2 0.76 0 0 0.8 0 0.04 0.8 0 0.08 0.8 0 0.12 0.8 0 0.16 0.8 0 0.2 0.8 0 0.24 0.8 0 0.28 0.8 0 0.32 0.8 0 0.36 0.8 0 0.4 0.8 0 0.44 0.8 0 0.48 0.8 0 0.52 0.8 0 0.56 0.8 0 0.6 0.8 0 0.64 0.8 0 0.68 0.8 0 0.72 0.8 0 0.76 0.8 0 0.8 0.8 0 0.84 0.8 0 0.88 0.8 0 0.92 0.8 0 0.96 0.8 0 1 0.8 0 1.04 0.8 0 1.08 0.8 0 1.12 0.8 0 1.16 0.8 0 1.2 0.8 0 0 0.84 0 0.04 0.84 0 0.08 0.84 0 0.12 0.84 0 0.16 0.84 0 0.2 0.84 0 0.24 0.84 0 0.28 0.84 0 0.32 0.84 0 0.36 0.84 0 0.4 0.84 0 0.44 0.84 0 0.48 0.84 0 0.52 0.84 0 0.56 0.84 0 0.6 0.84 0 0.64 0.84 0 0.68 0.84 0 0.72 0.84 0 0.76 0.84 0 0.8 0.84 0 0.84 0.84 0 0.88 0.84 0 0.92 0.84 0 0.96 0.84 0 1 0.84 0 1.04 0.84 0 1.08 0.84 0 1.12 0.84 0 1.16 0.84 0 1.2 0.84 0 0 0.88 0 0.04 0.88 0 0.08 0.88 0 0.12 0.88 0 0.16 0.88 0 0.2 0.88 0 0.24 0.88 0 0.28 0.88 0 0.32 0.88 0 0.36 0.88 0 0.4 0.88 0 0.44 0.88 0 0.48 0.88 0 0.52 0.88 0 0.56 0.88 0 0.6 0.88 0 0.64 0.88 0 0.68 0.88 0 0.72 0.88 0 0.76 0.88 0 0.8 0.88 0 0.84 0.88 0 0.88 0.88 0 0.92 0.88 0 0.96 0.88 0 1 0.88 0 1.04 0.88 0 1.08 0.88 0 1.12 0.88 0 1.16 0.88 0 1.2 0.88 0 0 0.92 0 0.04 0.92 0 0.08 0.92 0 0.12 0.92 0 0.16 0.92 0 0.2 0.92 0 0.24 0.92 0 0.28 0.92 0 0.32 0.92 0 0.36 0.92 0 0.4 0.92 0 0.44 0.92 0 0.48 0.92 0 0.52 0.92 0 0.56 0.92 0 0.6 0.92 0 0.64 0.92 0 0.68 0.92 0 0.72 0.92 0 0.76 0.92 0 0.8 0.92 0 0.84 0.92 0 0.88 0.92 0 0.92 0.92 0 0.96 0.92 0 1 0.92 0 1.04 0.92 0 1.08 0.92 0 1.12 0.92 0 1.16 0.92 0 1.2 0.92 0 0 0.96 0 0.04 0.96 0 0.08 0.96 0 0.12 0.96 0 0.16 0.96 0 0.2 0.96 0 0.24 0.96 0 0.28 0.96 0 0.32 0.96 0 0.36 0.96 0 0.4 0.96 0 0.44 0.96 0 0.48 0.96 0 0.52 0.96 0 0.56 0.96 0 0.6 0.96 0 0.64 0.96 0 0.68 0.96 0 0.72 0.96 0 0.76 0.96 0 0.8 0.96 0 0.84 0.96 0 0.88 0.96 0 0.92 0.96 0 0.96 0.96 0 1 0.96 0 1.04 0.96 0 1.08 0.96 0 1.12 0.96 0 1.16 0.96 0 1.2 0.96 0 0 1 0 0.04 1 0 0.08 1 0 0.12 1 0 0.16 1 0 0.2 1 0 0.24 1 0 0.28 1 0 0.32 1 0 0.36 1 0 0.4 1 0 0.44 1 0 0.48 1 0 0.52 1 0 0.56 1 0 0.6 1 0 0.64 1 0 0.68 1 0 0.72 1 0 0.76 1 0 0.8 1 0 0.84 1 0 0.88 1 0 0.92 1 0 0.96 1 0 1 1 0 1.04 1 0 1.08 1 0 1.12 1 0 1.16 1 0 1.2 1 0 0 1.04 0 0.04 1.04 0 0.08 1.04 0 0.12 1.04 0 0.16 1.04 0 0.2 1.04 0 0.24 1.04 0 0.28 1.04 0 0.32 1.04 0 0.36 1.04 0 0.4 1.04 0 0.44 1.04 0 0.48 1.04 0 0.52 1.04 0 0.56 1.04 0 0.6 1.04 0 0.64 1.04 0 0.68 1.04 0 0.72 1.04 0 0.76 1.04 0 0.8 1.04 0 0.84 1.04 0 0.88 1.04 0 0.92 1.04 0 0.96 1.04 0 1 1.04 0 1.04 1.04 0 1.08 1.04 0 1.12 1.04 0 1.16 1.04 0 1.2 1.04 0 0 1.08 0 0.04 1.08 0 0.08 1.08 0 0.12 1.08 0 0.16 1.08 0 0.2 1.08 0 0.24 1.08 0 0.28 1.08 0 0.32 1.08 0 0.36 1.08 0 0.4 1.08 0 0.44 1.08 0 0.48 1.08 0 0.52 1.08 0 0.56 1.08 0 0.6 1.08 0 0.64 1.08 0 0.68 1.08 0 0.72 1.08 0 0.76 1.08 0 0.8 1.08 0 0.84 1.08 0 0.88 1.08 0 0.92 1.08 0 0.96 1.08 0 1 1.08 0 1.04 1.08 0 1.08 1.08 0 1.12 1.08 0 1.16 1.08 0 1.2 1.08 0 0 1.12 0 
[...]
			<PointData Scalars="VitesseX">
				<DataArray Name="VitesseX" type="Float32" format="ascii">
 0 -0.0723522 -0.12313 -0.0524581 0.0861307 0.243999 0.344435 0.360074 0.31568 0.255455 0.197883 0.159866 0.141558 0.133065 0.0788961 -0.320396 -0.981986 -1.44732 -1.56698 -1.42665 -1.2898 -1.15846 -1.02959 -0.902826 -0.77785 -0.653928 -0.529959 -0.403766 -0.273283 -0.1368 0 0 0.0507936 0.0323 0.0529335 0.13753 0.242417 0.311239 0.305678 0.263081 0.2122 0.170266 0.141718 0.129325 0.123785 0.0727557 -0.315778 -0.970004 -1.43856 -1.56392 -1.42662 -1.28971 -1.15841 -1.02962 -0.902939 -0.778087 -0.654328 -0.530545 -0.404477 -0.273858 -0.136976 0 0 -0.028744 -0.036291 -0.0441261 -0.0358639 -0.00796691 0.0370897 0.0772074 0.0900842 0.0891858 0.0848973 0.0847029 0.0887389 0.0939481 0.0520362 -0.30417 -0.935308 -1.41179 -1.55348 -1.42682 -1.28946 -1.15812 -1.02931 -0.902653 -0.777883 -0.6543 -0.53077 -0.40497 -0.274355 -0.137165 0 0 -0.11396 -0.187754 -0.226147 -0.241641 -0.244694 -0.214445 -0.155749 -0.100796 -0.0583143 -0.024904 0.00217726 0.0257019 0.0427198 0.0129071 -0.292259 -0.881618 -1.36517 -1.53173 -1.42839 -1.28971 -1.1582 -1.02928 -0.902534 -0.777725 -0.654208 -0.530847 -0.405339 -0.274923 -0.137467 0 0 -0.160427 -0.262555 -0.320079 -0.356853 -0.378118 -0.370583 -0.314962 -0.241939 -0.179307 -0.128298 -0.0866032 -0.0520777 -0.0280749 -0.0481862 -0.289991 -0.81507 -1.29559 -1.49279 -1.43236 -1.2912 -1.15932 -1.03009 -0.903037 -0.77797 -0.654328 -0.531006 -0.405821 -0.275753 -0.137995 0 0 -0.164202 -0.272133 -0.340254 -0.388288 -0.420542 -0.438369 -0.417748 -0.352509 -0.281243 -0.220684 -0.172925 -0.135865 -0.112163 -0.130814 -0.305813 -0.742076 -1.20049 -1.42915 -1.43523 -1.29398 -1.1614 -1.03169 -0.904153 -0.778641 -0.654712 -0.531312 -0.406437 -0.276859 -0.138814 0 0 -0.114467 -0.213088 -0.294827 -0.361498 -0.410063 -0.441916 -0.455389 -0.433072 -0.375311 -0.310874 -0.258606 -0.22133 -0.202978 -0.227173 -0.346867 -0.671245 -1.08018 -1.34593 -1.41847 -1.29758 -1.16423 -1.03396 -0.90581 -0.779696 -0.655327 -0.531735 -0.407133 -0.278185 -0.139963 0 0 -0.0294709 -0.0728107 -0.153604 -0.256457 -0.350049 -0.412936 -0.451124 -0.468225 -0.45261 -0.406761 -0.351974 -0.312145 -0.299162 -0.327262 -0.415574 -0.61616 -0.947677 -1.23749 -1.36162 -1.30255 -1.16766 -1.03673 -0.907863 -0.78103 -0.656094 -0.532217 -0.407827 -0.279604 -0.141318 0 0 0.01596 0.00276408 -0.0581895 -0.152939 -0.265909 -0.367496 -0.437233 -0.481029 -0.502062 -0.493022 -0.457286 -0.417121 -0.403731 -0.431105 -0.503344 -0.599616 -0.820147 -1.09418 -1.26301 -1.2951 -1.17115 -1.03971 -0.910153 -0.782539 -0.656933 -0.532693 -0.408411 -0.280954 -0.142724 0 0 0.0240116 0.0208452 -0.0295218 -0.113117 -0.215206 -0.329159 -0.429224 -0.498532 -0.545153 -0.568588 -0.565073 -0.540058 -0.524801 -0.547566 -0.595543 -0.636288 -0.712881 -0.927314 -1.13837 -1.23782 -1.17462 -1.04268 -0.912484 -0.784125 -0.65778 -0.533096 -0.408809 -0.282124 -0.144117 0 0 0.0153389 0.00683677 -0.0382492 -0.115147 -0.209559 -0.315302 -0.42692 -0.525294 -0.597189 -0.647772 -0.673866 -0.677267 -0.665085 -0.670063 -0.695628 -0.705909 -0.678107 -0.765866 -0.974906 -1.12557 -1.16121 -1.04484 -0.914595 -0.785699 -0.658625 -0.533408 -0.409008 -0.283052 -0.14551 0 0 -0.00582604 -0.0284426 -0.0764985 -0.146284 -0.233405 -0.331353 -0.43791 -0.549382 -0.649714 -0.72681 -0.783448 -0.818037 -0.827675 -0.815803 -0.802531 -0.776691 -0.714116 -0.65245 -0.786548 -0.980957 -1.08888 -1.0447 -0.91627 -0.787164 -0.659481 -0.533679 -0.409062 -0.28373 -0.146917 0 0 -0.0290781 -0.0680004 -0.124315 -0.197447 -0.278884 -0.366691 -0.463302 -0.569328 -0.683555 -0.789991 -0.878538 -0.945007 -0.98098 -0.971797 -0.921752 -0.869294 -0.761807 -0.635486 -0.615183 -0.795363 -0.958769 -1.01744 -0.916611 -0.788341 -0.660355 -0.533981 -0.409067 -0.284181 -0.148352 0 0 -0.0499574 -0.105044 -0.170842 -0.24649 -0.327922 -0.410063 -0.494871 -0.587584 -0.692999 -0.818344 -0.936737 -1.03102 -1.09168 -1.10245 -1.0512 -0.955152 -0.837812 -0.660682 -0.526906 -0.593787 -0.791063 -0.921624 -0.910211 -0.788755 -0.661218 -0.534404 -0.409112 -0.284432 -0.149777 0 0 -0.0660891 -0.134677 -0.207735 -0.286834 -0.367086 -0.446147 -0.522979 -0.600432 -0.68773 -0.79116 -0.92476 -1.05356 -1.14252 -1.17766 -1.14503 -1.03782 -0.895692 -0.714784 -0.527549 -0.43761 -0.584762 -0.770797 -0.860952 -0.787078 -0.661918 -0.534975 -0.409296 -0.284564 -0.151168 0 0 -0.0715116 -0.144412 -0.221291 -0.301299 -0.382499 -0.459023 -0.529462 -0.598825 -0.668771 -0.748109 -0.842756 -0.962263 -1.08051 -1.16794 -1.17884 -1.09175 -0.928256 -0.773294 -0.568242 -0.384576 -0.383279 -0.578683 -0.738487 -0.769701 -0.661035 -0.535673 -0.409671 -0.28468 -0.152475 0 0 -0.0549078 -0.115898 -0.183058 -0.255075 -0.332456 -0.410901 -0.486389 -0.554957 -0.618435 -0.678907 -0.744776 -0.836515 -0.944884 -1.03473 -1.07591 -1.05504 -0.95095 -0.794613 -0.623265 -0.408996 -0.258408 -0.357679 -0.566564 -0.691318 -0.655977 -0.535781 -0.41019 -0.284894 -0.15366 0 0 -0.0235655 -0.0577405 -0.0980519 -0.151882 -0.210404 -0.278225 -0.356516 -0.436737 -0.512342 -0.580458 -0.645137 -0.707555 -0.781812 -0.852538 -0.920435 -0.924305 -0.884206 -0.773198 -0.647818 -0.470225 -0.235353 -0.17603 -0.350997 -0.545009 -0.619238 -0.533338 -0.410839 -0.285258 -0.154699 0 0 4.83839e-05 -0.00761007 -0.0241544 -0.0484777 -0.0731613 -0.114321 -0.174443 -0.24505 -0.325739 -0.417005 -0.511878 -0.586626 -0.636662 -0.686485 -0.741116 -0.771979 -0.763725 -0.698961 -0.595608 -0.497891 -0.298165 -0.083978 -0.136126 -0.349292 -0.51077 -0.519793 -0.409784 -0.285811 -0.155561 0 0 0.0072608 0.0187187 0.011892 0.0184226 0.019014 0.00673775 -0.0134093 -0.0438663 -0.104832 -0.195299 -0.301037 -0.413526 -0.5061 -0.56713 -0.585354 -0.619225 -0.633305 -0.605245 -0.518375 -0.424016 -0.352337 -0.104393 0.0168211 -0.125934 -0.340004 -0.455389 -0.404651 -0.285881 -0.156176 0 0 0.00655549 0.0197759 0.0171617 0.0404848 0.0492733 0.0615978 0.0854571 0.0991845 0.0720792 0.0173164 -0.0677854 -0.176685 -0.294278 -0.408036 -0.477433 -0.507723 -0.502047 -0.496937 -0.45141 -0.349938 -0.285159 -0.177298 0.0632122 0.0655627 -0.128544 -0.316333 -0.373107 -0.28286 -0.156396 0 0 0.00754149 0.00504356 0.0158257 0.0335072 0.0424154 0.0753589 0.123149 0.160418 0.166172 0.154003 0.111359 0.0468313 -0.0442121 -0.157581 -0.279181 -0.380378 -0.4177 -0.416243 -0.376273 -0.306854 -0.192036 -0.158573 0.0136534 0.163695 0.0846596 -0.125112 -0.272009 -0.267573 -0.154893 0 0 0.00833244 -0.00780646 0.0185354 0.0203812 0.0341872 0.0779583 0.131132 0.172393 0.193444 0.2021 0.19719 0.18898 0.152581 0.0868583 -0.0112747 -0.131596 -0.254088 -0.325953 -0.331052 -0.288421 -0.176656 -0.0694127 -0.00928255 0.157725 0.220544 0.0914057 -0.10439 -0.201285 -0.146152 0 0 0.00228524 -0.0149535 0.0137675 0.00559746 0.029252 0.0801739 0.132633 0.164466 0.181534 0.197248 0.216991 0.237212 0.247731 0.247084 0.207771 0.130473 0.018275 -0.106176 -0.216416 -0.242266 -0.211195 -0.0824171 0.0217348 0.127003 0.250143 0.249134 0.103827 -0.0596488 -0.103667 0 0 -0.00829651 -0.0168508 0.00158058 -0.00882648 0.0259415 0.0796933 0.12531 0.14999 0.163653 0.178974 0.20152 0.233173 0.269735 0.302947 0.315339 0.306662 0.254606 0.160129 0.0382496 -0.0822534 -0.15313 -0.131875 -0.0217733 0.0944962 0.22497 0.300341 0.266342 0.136439 0.0106216 0 0 -0.021174 -0.0244868 -0.0172075 -0.0219333 0.0206889 0.072189 0.11153 0.129496 0.140645 0.156384 0.181434 0.214955 0.253556 0.294845 0.336324 0.370064 0.375051 0.351342 0.280278 0.169991 0.0463075 -0.0491827 -0.0563583 0.0209982 0.145234 0.274483 0.320778 0.275256 0.177692 0 0 -0.0405982 -0.037125 -0.0435605 -0.0324946 0.00975977 0.0581194 0.0892773 0.101921 0.111056 0.128165 0.155554 0.190531 0.229546 0.270259 0.311597 0.353001 0.394154 0.42272 0.416965 0.369951 0.2773 0.156193 0.0483069 0.0102958 0.0534982 0.165474 0.266076 0.295372 0.21127 0 0 -0.0690293 -0.047543 -0.0720226 -0.0415308 -0.00483078 0.0339455 0.0535471 0.0598508 0.0687501 0.0886456 0.118462 0.154123 0.192829 0.232607 0.272724 0.313219 0.354277 0.395115 0.435768 0.452456 0.428002 0.351387 0.235809 0.115416 0.0505587 0.0499695 0.132056 0.162939 0.157906 0 0 -0.0621558 -0.131631 -0.0783599 -0.0588851 -0.0102888 0.00990255 0.0142854 0.00706533 0.0100369 0.0250048 0.0521851 0.086883 0.124517 0.163152 0.202247 0.241791 0.281909 0.322784 0.364553 0.406846 0.44334 0.442139 0.382578 0.266795 0.125386 0.0314579 -0.0268959 0.0067063 -0.0196133 0 0 -0.368368 -0.164504 -0.111108 -0.043247 -0.0151922 0.000568678 -0.00930365 -0.0237259 -0.0308184 -0.0242825 -0.00998478 0.00837907 0.029162 0.0516426 0.0757189 0.101748 0.130341 0.16226 0.197701 0.236487 0.277925 0.318382 0.334841 0.287589 0.153845 0.00315406 -0.0747128 -0.12201 -0.100896 0 0 0 0 0 0 0 0 0 0 0 0 0 0 0 0 0 0 0 0 0 0 0 0 0 0 0 0 0 0 0 0
				</DataArray>
				<DataArray Name="VitesseY" type="Float32" format="ascii">
 0 0 0 0 0 0 0 0 0 0 0 0 0 0 0 0 0 0 0 0 0 0 0 0 0 0 0 0 0 0 0 -0.0857424 0.0393243 -0.0381622 -0.121594 -0.170504 -0.161541 -0.0773354 -0.00303739 0.0187898 0.0197288 0.00576684 -0.0155779 -0.0351857 -0.047074 -0.0494641 -0.0367682 -0.0115217 0.0107087 0.0225545 0.0253195 0.0243254 0.0235551 0.0226353 0.0214628 0.0199413 0.0179752 0.0152717 0.0111596 0.00486961 -7.64006e-05 0 -0.145847 0.00927883 -0.0502247 -0.190769 -0.26299 -0.271044 -0.151349 -0.033998 0.00792239 0.00935441 -0.0123568 -0.0462038 -0.0791282 -0.0998772 -0.103696 -0.0792503 -0.0290565 0.0171398 0.0436952 0.0505301 0.0487337 0.0473068 0.0455557 0.0432218 0.0401638 0.0362305 0.0308811 0.0226486 0.00977944 -0.000183564 0 -0.0855752 0.023317 -0.0513309 -0.212154 -0.303545 -0.325021 -0.242993 -0.11232 -0.0540066 -0.0442848 -0.0641055 -0.100858 -0.137668 -0.162678 -0.167398 -0.132979 -0.0587769 0.0153389 0.0618995 0.0751703 0.0732301 0.0713171 0.0688067 0.0653949 0.0608696 0.0550356 0.0470804 0.034667 0.0149689 -0.000217274 0 0.0400407 0.103303 -0.0240849 -0.212582 -0.320572 -0.354135 -0.32303 -0.219006 -0.149069 -0.130062 -0.141121 -0.175158 -0.210275 -0.235964 -0.24261 -0.201979 -0.105432 0.00221844 0.0749724 0.0980449 0.0978347 0.095504 0.0924087 0.0880412 0.0821157 0.0744292 0.0639231 0.0474332 0.0207345 -0.000127373 0 0.193431 0.205488 0.014768 -0.195312 -0.323428 -0.36912 -0.37032 -0.321997 -0.260092 -0.231013 -0.233169 -0.258816 -0.292022 -0.316447 -0.327036 -0.285585 -0.171588 -0.0285366 0.0746659 0.116088 0.12274 0.11978 0.116366 0.111169 0.103969 0.0945124 0.0815872 0.0613092 0.027548 0.000263406 0 0.3159 0.29242 0.0650541 -0.165821 -0.309353 -0.374876 -0.38894 -0.386488 -0.361514 -0.339935 -0.334659 -0.348552 -0.377256 -0.400815 -0.412461 -0.379204 -0.258353 -0.0891377 0.0494066 0.1247 0.146401 0.144127 0.140691 0.134894 0.126546 0.115451 0.100269 0.0765575 0.0359048 0.00136585 0 0.358407 0.324111 0.105425 -0.114423 -0.263369 -0.352514 -0.392455 -0.409741 -0.424981 -0.435352 -0.440035 -0.447925 -0.46514 -0.486329 -0.495519 -0.472205 -0.363648 -0.177874 0.00493334 0.123236 0.165216 0.169191 0.16554 0.159319 0.15 0.137409 0.120156 0.0934035 0.0463525 0.0036876 0 0.332535 0.292917 0.122241 -0.0613993 -0.192205 -0.292597 -0.365966 -0.40965 -0.449614 -0.495583 -0.531947 -0.552736 -0.562265 -0.57306 -0.578453 -0.555583 -0.471088 -0.287529 -0.0712304 0.0923687 0.172269 0.193539 0.190955 0.18463 0.174525 0.160589 0.141461 0.112017 0.0593439 0.00761037 0 0.27407 0.239286 0.119697 -0.0210098 -0.129511 -0.2179 -0.306033 -0.384689 -0.451321 -0.522808 -0.595237 -0.645883 -0.669654 -0.666772 -0.662397 -0.632517 -0.564731 -0.408323 -0.180346 0.0309575 0.164876 0.213188 0.217698 0.210975 0.200319 0.185171 0.164346 0.132477 0.075044 0.0132947 0 0.21216 0.187665 0.108302 0.00989937 -0.0778206 -0.153904 -0.234932 -0.333713 -0.430546 -0.529186 -0.629815 -0.718054 -0.770404 -0.779599 -0.749523 -0.708296 -0.638575 -0.52156 -0.309202 -0.0633354 0.125029 0.2181 0.243367 0.238595 0.227477 0.211254 0.188865 0.154845 0.0933083 0.0207522 0 0.163739 0.1494 0.0997918 0.0320489 -0.0352647 -0.100468 -0.17492 -0.271725 -0.387028 -0.515019 -0.644033 -0.766011 -0.853564 -0.896114 -0.857568 -0.786162 -0.705693 -0.609214 -0.43862 -0.189842 0.0485261 0.204984 0.263158 0.267978 0.255936 0.238844 0.214977 0.179037 0.114017 0.0300093 0 0.137114 0.128803 0.0986863 0.0521108 -0.00141394 -0.0593302 -0.129826 -0.22098 -0.337118 -0.480073 -0.64077 -0.789485 -0.916547 -0.988898 -0.981361 -0.883867 -0.774622 -0.672762 -0.549379 -0.329052 -0.0633997 0.150966 0.263132 0.295377 0.285833 0.26791 0.242669 0.204988 0.137111 0.0411569 0 0.12905 0.123614 0.103787 0.0710815 0.0250772 -0.0336616 -0.104906 -0.193987 -0.306909 -0.44542 -0.615488 -0.795283 -0.949654 -1.04751 -1.07761 -0.99422 -0.858509 -0.723751 -0.613935 -0.458192 -0.202829 0.0585021 0.240644 0.312372 0.317375 0.298433 0.271978 0.232721 0.162601 0.0543775 0 0.121127 0.116486 0.100886 0.0741715 0.0301712 -0.0326406 -0.110372 -0.20314 -0.314014 -0.441787 -0.593808 -0.772389 -0.939559 -1.06217 -1.12491 -1.08492 -0.952342 -0.785825 -0.643854 -0.538699 -0.344735 -0.0696315 0.170446 0.305889 0.346504 0.330544 0.303052 0.262339 0.190562 0.0699916 0 -0.0159466 -0.0144539 -0.0125302 -0.0146035 -0.0390284 -0.0943403 -0.17187 -0.262835 -0.363552 -0.480463 -0.599322 -0.734881 -0.881983 -1.01681 -1.1032 -1.11691 -1.00504 -0.845982 -0.690207 -0.571596 -0.452027 -0.215348 0.0610031 0.268121 0.357456 0.36394 0.336018 0.294007 0.221092 0.0884398 0 -0.490431 -0.473519 -0.4305 -0.370675 -0.321993 -0.305822 -0.321391 -0.370003 -0.443253 -0.524945 -0.609838 -0.70321 -0.807083 -0.923488 -1.01285 -1.05128 -0.992093 -0.876939 -0.724391 -0.58231 -0.495104 -0.348568 -0.0784103 0.182962 0.342826 0.394092 0.370557 0.327925 0.254211 0.110207 0 -1.07753 -1.0506 -0.984411 -0.892787 -0.794294 -0.706482 -0.62838 -0.567741 -0.536472 -0.547223 -0.596577 -0.653312 -0.731997 -0.803986 -0.85942 -0.907539 -0.919466 -0.837581 -0.728641 -0.605184 -0.493137 -0.408955 -0.220448 0.057905 0.28752 0.396132 0.406418 0.364147 0.289795 0.13578 0 -1.41492 -1.38888 -1.33026 -1.26072 -1.1807 -1.08846 -0.980896 -0.865188 -0.750159 -0.638615 -0.56289 -0.556981 -0.584789 -0.635028 -0.703502 -0.746231 -0.767664 -0.746129 -0.675564 -0.585685 -0.48158 -0.416981 -0.319442 -0.0812013 0.18638 0.369631 0.433195 0.401587 0.327658 0.165672 0 -1.47064 -1.44601 -1.40232 -1.36685 -1.32489 -1.26675 -1.19565 -1.11109 -0.996393 -0.85124 -0.696529 -0.554279 -0.471774 -0.465789 -0.50387 -0.562191 -0.605983 -0.620887 -0.570616 -0.511956 -0.441687 -0.373971 -0.332565 -0.205743 0.0557169 0.294971 0.425808 0.43996 0.367589 0.19978 0 -1.31548 -1.28246 -1.25243 -1.23756 -1.2327 -1.23899 -1.24237 -1.20977 -1.1321 -1.0254 -0.901538 -0.746293 -0.576753 -0.429536 -0.351047 -0.352166 -0.407603 -0.466243 -0.475688 -0.400339 -0.350873 -0.305973 -0.293043 -0.244229 -0.074346 0.18068 0.377242 0.456211 0.408696 0.237756 0 -1.16981 -1.12876 -1.10674 -1.09161 -1.09142 -1.10444 -1.11472 -1.11632 -1.11202 -1.08825 -1.02096 -0.922186 -0.793413 -0.62428 -0.439699 -0.286814 -0.213089 -0.225859 -0.306611 -0.345204 -0.267004 -0.190742 -0.181001 -0.216879 -0.152918 0.0512116 0.282803 0.431098 0.444648 0.278729 0 -1.02202 -0.978533 -0.965764 -0.951029 -0.959097 -0.974488 -0.981668 -0.982443 -0.984139 -0.990737 -1.00142 -0.990251 -0.926891 -0.817668 -0.668107 -0.476446 -0.274939 -0.124914 -0.0610667 -0.103699 -0.178762 -0.152869 -0.067843 -0.0864286 -0.135856 -0.0481534 0.158979 0.353799 0.44324 0.318921 0 -0.871025 -0.829095 -0.826473 -0.815137 -0.832344 -0.846376 -0.85184 -0.854542 -0.860445 -0.871801 -0.886006 -0.899802 -0.909802 -0.891674 -0.8149 -0.683198 -0.507874 -0.293876 -0.0938614 0.0400242 0.072293 0.0148664 -0.00895059 0.0217123 -0.024364 -0.0583896 0.0489902 0.237166 0.383502 0.33524 0 -0.716736 -0.677827 -0.688174 -0.684546 -0.710214 -0.720929 -0.726036 -0.731633 -0.740885 -0.754211 -0.768608 -0.780982 -0.789927 -0.795267 -0.795581 -0.765866 -0.669801 -0.516506 -0.317785 -0.0972007 0.0843373 0.172778 0.161044 0.126877 0.0939414 0.0196887 0.00955773 0.115788 0.267369 0.287906 0 -0.551793 -0.526642 -0.551234 -0.559506 -0.5919 -0.599771 -0.605857 -0.613737 -0.624636 -0.637924 -0.650671 -0.66061 -0.667272 -0.671166 -0.672733 -0.671835 -0.664872 -0.61849 -0.500692 -0.325786 -0.113164 0.0965812 0.226819 0.252877 0.225208 0.144885 0.0529759 0.0503878 0.125585 0.154049 0 -0.369327 -0.375385 -0.418915 -0.439938 -0.477019 -0.482822 -0.490672 -0.499017 -0.51006 -0.522241 -0.532706 -0.539915 -0.543948 -0.545778 -0.54634 -0.546217 -0.545009 -0.541147 -0.52471 -0.454669 -0.311608 -0.118503 0.0975257 0.25265 0.301848 0.27475 0.165347 0.0497932 0.031447 0.00324263 0 -0.167747 -0.216161 -0.293125 -0.323961 -0.362236 -0.367446 -0.376679 -0.384309 -0.395464 -0.406735 -0.414763 -0.419163 -0.420929 -0.420921 -0.420202 -0.419128 -0.41801 -0.417023 -0.414662 -0.408246 -0.374678 -0.271278 -0.102242 0.106288 0.26789 0.321413 0.266225 0.132031 -0.0269291 -0.0746918 0 0.0122388 -0.0132693 -0.178937 -0.22237 -0.248064 -0.249441 -0.253163 -0.261015 -0.273081 -0.285697 -0.292592 -0.296377 -0.297127 -0.296305 -0.294636 -0.292778 -0.291144 -0.289929 -0.289206 -0.288287 -0.284625 -0.268685 -0.201533 -0.0591814 0.137209 0.275791 0.295585 0.162994 0.00670746 -0.122009 0 0.634828 0.0642964 -0.132035 -0.0974931 -0.160656 -0.115258 -0.125798 -0.125215 -0.139431 -0.145445 -0.153774 -0.15666 -0.158005 -0.158296 -0.158118 -0.157783 -0.157503 -0.157371 -0.157373 -0.157389 -0.157222 -0.155489 -0.146562 -0.103866 0.0106607 0.177871 0.211401 0.157954 -0.0196042 -0.100896 0 5.3502 0 0 0 0 0 0 0 0 0 0 0 0 0 0 0 0 0 0 0 0 0 0 0 0 0 0 0 0 0 0
				</DataArray>
			</PointData>
			<CellData Scalars="Density">
				<DataArray Name="Density" type="Float32" format="ascii">