<?xml version="1.0"?>
<VTKFile type="PolyData">
	<PolyData>
		<Piece NumberOfPoints="961" NumberOfPolys="900">
			<Points>
				<DataArray type="Float32" NumberOfComponents="3" format="ascii">
 0 0 0 0.04 0 0 0.08 0 0 0.12 0 0 0.16 0 0 0.2 0 0 0.24 0 0 0.28 0 0 0.32 0 0 0.36 0 0 0.4 0 0 0.44 0 0 0.48 0 0 0.52 0 0 0.56 0 0 0.6 0 0 0.64 0 0 0.68 0 0 0.72 0 0 0.76 0 0 0.8 0 0 0.84 0 0 0.88 0 0 0.92 0 0 0.96 0 0 1 0 0 1.04 0 0 1.08 0 0 1.12 0 0 1.16 0 0 1.2 0 0 0 0.04 0 0.04 0.04 0 0.08 0.04 0 0.12 0.04 0 0.16 0.04 0 0.2 0.04 0 0.24 0.04 0 0.28 0.04 0 0.32 0.04 0 0.36 0.04 0 0.4 0.04 0 0.44 0.04 0 0.48 0.04 0 0.52 0.04 0 0.56 0.04 0 0.6 0.04 0 0.64 0.04 0 0.68 0.04 0 0.72 0.04 0 0.76 0.04 0 0.8 0.04 0 0.84 0.04 0 0.88 0.04 0 0.92 0.04 0 0.96 0.04 0 1 0.04 0 1.04 0.04 0 1.08 0.04 0 1.12 0.04 0 1.16 0.04 0 1.2 0.04 0 0 0.08 0 0.04 0.08 0 0.08 0.08 0 0.12 0.08 0 0.16 0.08 0 0.2 0.08 0 0.24 0.08 0 0.28 0.08 0 0.32 0.08 0 0.36 0.08 0 0.4 0.08 0 0.44 0.08 0 0.48 0.08 0 0.52 0.08 0 0.56 0.08 0 0.6 0.08 0 0.64 0.08 0 0.68 0.08 0 0.72 0.08 0 0.76 0.08 0 0.8 0.08 0 0.84 0.08 0 0.88 0.08 0 0.92 0.08 0 0.96 0.08 0 1 0.08 0 1.04 0.08 0 1.08 0.08 0 1.12 0.08 0 1.16 0.08 0 1.2 0.08 0 0 0.12 0 0.04 0.12 0 0.08 0.12 0 0.12 0.12 0 0.16 0.12 0 0.2 0.12 0 0.24 0.12 0 0.28 0.12 0 0.32 0.12 0 0.36 0.12 0 0.4 0.12 0 0.44 0.12 0 0.48 0.12 0 0.52 0.12 0 0.56 0.12 0 0.6 0.12 0 0.64 0.12 0 0.68 0.12 0 0.72 0.12 0 0.76 0.12 0 0.8 0.12 0 0.84 0.12 0 0.88 0.12 0 0.92 0.12 0 0.96 0.12 0 1 0.12 0 1.04 0.12 0 1.08 0.12 0 1.12 0.12 0 1.16 0.12 0 1.2 0.12 0 0 0.16 0 0.04 0.16 0 0.08 0.16 0 0.12 0.16 0 0.16 0.16 0 0.2 0.16 0 0.24 0.16 0 0.28 0.16 0 0.32 0.16 0 0.36 0.16 0 0.4 0.16 0 0.44 0.16 0 0.48 0.16 0 0.52 0.16 0 0.56 0.16 0 0.6 0.16 0 0.64 0.16 0 0.68 0.16 0 0.72 0.16 0 0.76 0.16 0 0.8 0.16 0 0.84 0.16 0 0.88 0.16 0 0.92 0.16 0 0.96 0.16 0 1 0.16 0 1.04 0.16 0 1.08 0.16 0 1.12 0.16 0 1.16 0.16 0 1.2 0.16 0 0 0.2 0 0.04 0.2 0 0.08 0.2 0 0.12 0.2 0 0.16 0.2 0 0.2 0.2 0 0.24 0.2 0 0.28 0.2 0 0.32 0.2 0 0.36 0.2 0 0.4 0.2 0 0.44 0.2 0 0.48 0.2 0 0.52 0.2 0 0.56 0.2 0 0.6 0.2 0 0.64 0.2 0 0.68 0.2 0 0.72 0.2 0 0.76 0.2 0 0.8 0.2 0 0.84 0.2 0 0.88 0.2 0 0.92 0.2 0 0.96 0.2 0 1 0.2 0 1.04 0.2 0 1.08 0.2 0 1.12 0.2 0 1.16 0.2 0 1.2 0.2 0 0 0.24 0 0.04 0.24 0 0.08 0.24 0 0.12 0.24 0 0.16 0.24 0 0.2 0.24 0 0.24 0.24 0 0.28 0.24 0 0.32 0.24 0 0.36 0.24 0 0.4 0.24 0 0.44 0.24 0 0.48 0.24 0 0.52 0.24 0 0.56 0.24 0 0.6 0.24 0 0.64 0.24 0 0.68 0.24 0 0.72 0.24 0 0.76 0.24 0 0.8 0.24 0 0.84 0.24 0 0.88 0.24 0 0.92 0.24 0 0.96 0.24 0 1 0.24 0 1.04 0.24 0 1.08 0.24 0 1.12 0.24 0 1.16 0.24 0 1.2 0.24 0 0 0.28 0 0.04 0.28 0 0.08 0.28 0 0.12 0.28 0 0.16 0.28 0 0.2 0.28 0 0.24 0.28 0 0.28 0.28 0 0.32 0.28 0 0.36 0.28 0 0.4 0.28 0 0.44 0.28 0 0.48 0.28 0 0.52 0.28 0 0.56 0.28 0 0.6 0.28 0 0.64 0.28 0 0.68 0.28 0 0.72 0.28 0 0.76 0.28 0 0.8 0.28 0 0.84 0.28 0 0.88 0.28 0 0.92 0.28 0 0.96 0.28 0 1 0.28 0 1.04 0.28 0 1.08 0.28 0 1.12 0.28 0 1.16 0.28 0 1.2 0.28 0 0 0.32 0 0.04 0.32 0 0.08 0.32 0 0.12 0.32 0 0.16 0.32 0 0.2 0.32 0 0.24 0.32 0 0.28 0.32 0 0.32 0.32 0 0.36 0.32 0 0.4 0.32 0 0.44 0.32 0 0.48 0.32 0 0.52 0.32 0 0.56 0.32 0 0.6 0.32 0 0.64 0.32 0 0.68 0.32 0 0.72 0.32 0 0.76 0.32 0 0.8 0.32 0 0.84 0.32 0 0.88 0.32 0 0.92 0.32 0 0.96 0.32 0 1 0.32 0 1.04 0.32 0 1.08 0.32 0 1.12 0.32 0 1.16 0.32 0 1.2 0.32 0 0 0.36 0 0.04 0.36 0 0.08 0.36 0 0.12 0.36 0 0.16 0.36 0 0.2 0.36 0 0.24 0.36 0 0.28 0.36 0 0.32 0.36 0 0.36 0.36 0 0.4 0.36 0 0.44 0.36 0 0.48 0.36 0 0.52 0.36 0 0.56 0.36 0 0.6 0.36 0 0.64 0.36 0 0.68 0.36 0 0.72 0.36 0 0.76 0.36 0 0.8 0.36 0 0.84 0.36 0 0.88 0.36 0 0.92 0.36 0 0.96 0.36 0 1 0.36 0 1.04 0.36 0 1.08 0.36 0 1.12 0.36 0 1.16 0.36 0 1.2 0.36 0 0 0.4 0 0.04 0.4 0 0.08 0.4 0 0.12 0.4 0 0.16 0.4 0 0.2 0.4 0 0.24 0.4 0 0.28 0.4 0 0.32 0.4 0 0.36 0.4 0 0.4 0.4 0 0.44 0.4 0 0.48 0.4 0 0.52 0.4 0 0.56 0.4 0 0.6 0.4 0 0.64 0.4 0 0.68 0.4 0 0.72 0.4 0 0.76 0.4 0 0.8 0.4 0 0.84 0.4 0 0.88 0.4 0 0.92 0.4 0 0.96 0.4 0 1 0.4 0 1.04 0.4 0 1.08 0.4 0 1.12 0.4 0 1.16 0.4 0 1.2 0.4 0 0 0.44 0 0.04 0.44 0 0.08 0.44 0 0.12 0.44 0 0.16 0.44 0 0.2 0.44 0 0.24 0.44 0 0.28 0.44 0 0.32 0.44 0 0.36 0.44 0 0.4 0.44 0 0.44 0.44 0 0.48 0.44 0 0.52 0.44 0 0.56 0.44 0 0.6 0.44 0 0.64 0.44 0 0.68 0.44 0 0.72 0.44 0 0.76 0.44 0 0.8 0.44 0 0.84 0.44 0 0.88 0.44 0 0.92 0.44 0 0.96 0.44 0 1 0.44 0 1.04 0.44 0 1.08 0.44 0 1.12 0.44 0 1.16 0.44 0 1.2 0.44 0 0 0.48 0 0.04 0.48 0 0.08 0.48 0 0.12 0.48 0 0.16 0.48 0 0.2 0.48 0 0.24 0.48 0 0.28 0.48 0 0.32 0.48 0 0.36 0.48 0 0.4 0.48 0 0.44 0.48 0 0.48 0.48 0 0.52 0.48 0 0.56 0.48 0 0.6 0.48 0 0.64 0.48 0 0.68 0.48 0 0.72 0.48 0 0.76 0.48 0 0.8 0.48 0 0.84 0.48 0 0.88 0.48 0 0.92 0.48 0 0.96 0.48 0 1 0.48 0 1.04 0.48 0 1.08 0.48 0 1.12 0.48 0 1.16 0.48 0 1.2 0.48 0 0 0.52 0 0.04 0.52 0 0.08 0.52 0 0.12 0.52 0 0.16 0.52 0 0.2 0.52 0 0.24 0.52 0 0.28 0.52 0 0.32 0.52 0 0.36 0.52 0 0.4 0.52 0 0.44 0.52 0 0.48 0.52 0 0.52 0.52 0 0.56 0.52 0 0.6 0.52 0 0.64 0.52 0 0.68 0.52 0 0.72 0.52 0 0.76 0.52 0 0.8 0.52 0 0.84 0.52 0 0.88 0.52 0 0.92 0.52 0 0.96 0.52 0 1 0.52 0 1.04 0.52 0 1.08 0.52 0 1.12 0.52 0 1.16 0.52 0 1.2 0.52 0 0 0.56 0 0.04 0.56 0 0.08 0.56 0 0.12 0.56 0 0.16 0.56 0 0.2 0.56 0 0.24 0.56 0 0.28 0.56 0 0.32 0.56 0 0.36 0.56 0 0.4 0.56 0 0.44 0.56 0 0.48 0.56 0 0.52 0.56 0 0.56 0.56 0 0.6 0.56 0 0.64 0.56 0 0.68 0.56 0 0.72 0.56 0 0.76 0.56 0 0.8 0.56 0 0.84 0.56 0 0.88 0.56 0 0.92 0.56 0 0.96 0.56 0 1 0.56 0 1.04 0.56 0 1.08 0.56 0 1.12 0.56 0 1.16 0.56 0 1.2 0.56 0 0 0.6 0 0.04 0.6 0 0.08 0.6 0 0.12 0.6 0 0.16 0.6 0 0.2 0.6 0 0.24 0.6 0 0.28 0.6 0 0.32 0.6 0 0.36 0.6 0 0.4 0.6 0 0.44 0.6 0 0.48 0.6 0 0.52 0.6 0 0.56 0.6 0 0.6 0.6 0 0.64 0.6 0 0.68 0.6 0 0.72 0.6 0 0.76 0.6 0 0.8 0.6 0 0.84 0.6 0 0.88 0.6 0 0.92 0.6 0 0.96 0.6 0 1 0.6 0 1.04 0.6 0 1.08 0.6 0 1.12 0.6 0 1.16 0.6 0 1.2 0.6 0 0 0.64 0 0.04 0.64 0 0.08 0.64 0 0.12 0.64 0 0.16 0.64 0 0.2 0.64 0 0.24 0.64 0 0.28 0.64 0 0.32 0.64 0 0.36 0.64 0 0.4 0.64 0 0.44 0.64 0 0.48 0.64 0 0.52 0.64 0 0.56 0.64 0 0.6 0.64 0 0.64 0.64 0 0.68 0.64 0 0.72 0.64 0 0.76 0.64 0 0.8 0.64 0 0.84 0.64 0 0.88 0.64 0 0.92 0.64 0 0.96 0.64 0 1 0.64 0 1.04 0.64 0 1.08 0.64 0 1.12 0.64 0 1.16 0.64 0 1.2 0.64 0 0 0.68 0 0.04 0.68 0 0.08 0.68 0 0.12 0.68 0 0.16 0.68 0 0.2 0.68 0 0.24 0.68 0 0.28 0.68 0 0.32 0.68 0 0.36 0.68 0 0.4 0.68 0 0.44 0.68 0 0.48 0.68 0 0.52 0.68 0 0.56 0.68 0 0.6 0.68 0 0.64 0.68 0 0.68 0.68 0 0.72 0.68 0 0.76 0.68 0 0.8 0.68 0 0.84 0.68 0 0.88 0.68 0 0.92 0.68 0 0.96 0.68 0 1 0.68 0 1.04 0.68 0 1.08 0.68 0 1.12 0.68 0 1.16 0.68 0 1.2 0.68 0 0 0.72 0 0.04 0.72 0 0.08 0.72 0 0.12 0.72 0 0.16 0.72 0 0.2 0.72 0 0.24 0.72 0 0.28 0.72 0 0.32 0.72 0 0.36 0.72 0 0.4 0.72 0 0.44 0.72 0 0.48 0.72 0 0.52 0.72 0 0.56 0.72 0 0.6 0.72 0 0.64 0.72 0 0.68 0.72 0 0.72 0.72 0 0.76 0.72 0 0.8 0.72 0 0.84 0.72 0 0.88 0.72 0 0.92 0.72 0 0.96 0.72 0 1 0.72 0 1.04 0.72 0 1.08 0.72 0 1.12 0.72 0 1.16 0.72 0 1.2 0.72 0 0 0.76 0 0.04 0.76 0 0.08 0.76 0 0.12 0.76 0 0.16 0.76 0 0.2 0.76 0 0.24 0.76 0 0.28 0.76 0 0.32 0.76 0 0.36 0.76 0 0.4 0.76 0 0.44 0.76 0 0.48 0.76 0 0.52 0.76 0 0.56 0.76 0 0.6 0.76 0 0.64 0.76 0 0.68 0.76 0 0.72 0.76 0 0.76 0.76 0 0.8 0.76 0 0.84 0.76 0 0.88 0.76 0 0.92 0.76 0 0.96 0.76 0 1 0.76 0 1.04 0.76 0 1.08 0.76 0 1.12 0.76 0 1.16 0.76 0 1.2 0.76 0 0 0.8 0 0.04 0.8 0 0.08 0.8 0 0.12 0.8 0 0.16 0.8 0 0.2 0.8 0 0.24 0.8 0 0.28 0.8 0 0.32 0.8 0 0.36 0.8 0 0.4 0.8 0 0.44 0.8 0 0.48 0.8 0 0.52 0.8 0 0.56 0.8 0 0.6 0.8 0 0.64 0.8 0 0.68 0.8 0 0.72 0.8 0 0.76 0.8 0 0.8 0.8 0 0.84 0.8 0 0.88 0.8 0 0.92 0.8 0 0.96 0.8 0 1 0.8 0 1.04 0.8 0 1.08 0.8 0 1.12 0.8 0 1.16 0.8 0 1.2 0.8 0 0 0.84 0 0.04 0.84 0 0.08 0.84 0 0.12 0.84 0 0.16 0.84 0 0.2 0.84 0 0.24 0.84 0 0.28 0.84 0 0.32 0.84 0 0.36 0.84 0 0.4 0.84 0 0.44 0.84 0 0.48 0.84 0 0.52 0.84 0 0.56 0.84 0 0.6 0.84 0 0.64 0.84 0 0.68 0.84 0 0.72 0.84 0 0.76 0.84 0 0.8 0.84 0 0.84 0.84 0 0.88 0.84 0 0.92 0.84 0 0.96 0.84 0 1 0.84 0 1.04 0.84 0 1.08 0.84 0 1.12 0.84 0 1.16 0.84 0 1.2 0.84 0 0 0.88 0 0.04 0.88 0 0.08 0.88 0 0.12 0.88 0 0.16 0.88 0 0.2 0.88 0 0.24 0.88 0 0.28 0.88 0 0.32 0.88 0 0.36 0.88 0 0.4 0.88 0 0.44 0.88 0 0.48 0.88 0 0.52 0.88 0 0.56 0.88 0 0.6 0.88 0 0.64 0.88 0 0.68 0.88 0 0.72 0.88 0 0.76 0.88 0 0.8 0.88 0 0.84 0.88 0 0.88 0.88 0 0.92 0.88 0 0.96 0.88 0 1 0.88 0 1.04 0.88 0 1.08 0.88 0 1.12 0.88 0 1.16 0.88 0 1.2 0.88 0 0 0.92 0 0.04 0.92 0 0.08 0.92 0 0.12 0.92 0 0.16 0.92 0 0.2 0.92 0 0.24 0.92 0 0.28 0.92 0 0.32 0.92 0 0.36 0.92 0 0.4 0.92 0 0.44 0.92 0 0.48 0.92 0 0.52 0.92 0 0.56 0.92 0 0.6 0.92 0 0.64 0.92 0 0.68 0.92 0 0.72 0.92 0 0.76 0.92 0 0.8 0.92 0 0.84 0.92 0 0.88 0.92 0 0.92 0.92 0 0.96 0.92 0 1 0.92 0 1.04 0.92 0 1.08 0.92 0 1.12 0.92 0 1.16 0.92 0 1.2 0.92 0 0 0.96 0 0.04 0.96 0 0.08 0.96 0 0.12 0.96 0 0.16 0.96 0 0.2 0.96 0 0.24 0.96 0 0.28 0.96 0 0.32 0.96 0 0.36 0.96 0 0.4 0.96 0 0.44 0.96 0 0.48 0.96 0 0.52 0.96 0 0.56 0.96 0 0.6 0.96 0 0.64 0.96 0 0.68 0.96 0 0.72 0.96 0 0.76 0.96 0 0.8 0.96 0 0.84 0.96 0 0.88 0.96 0 0.92 0.96 0 0.96 0.96 0 1 0.96 0 1.04 0.96 0 1.08 0.96 0 1.12 0.96 0 1.16 0.96 0 1.2 0.96 0 0 1 0 0.04 1 0 0.08 1 0 0.12 1 0 0.16 1 0 0.2 1 0 0.24 1 0 0.28 1 0 0.32 1 0 0.36 1 0 0.4 1 0 0.44 1 0 0.48 1 0 0.52 1 0 0.56 1 0 0.6 1 0 0.64 1 0 0.68 1 0 0.72 1 0 0.76 1 0 0.8 1 0 0.84 1 0 0.88 1 0 0.92 1 0 0.96 1 0 1 1 0 1.04 1 0 1.08 1 0 1.12 1 0 1.16 1 0 1.2 1 0 0 1.04 0 0.04 1.04 0 0.08 1.04 0 0.12 1.04 0 0.16 1.04 0 0.2 1.04 0 0.24 1.04 0 0.28 1.04 0 0.32 1.04 0 0.36 1.04 0 0.4 1.04 0 0.44 1.04 0 0.48 1.04 0 0.52 1.04 0 0.56 1.04 0 0.6 1.04 0 0.64 1.04 0 0.68 1.04 0 0.72 1.04 0 0.76 1.04 0 0.8 1.04 0 0.84 1.04 0 0.88 1.04 0 0.92 1.04 0 0.96 1.04 0 1 1.04 0 1.04 1.04 0 1.08 1.04 0 1.12 1.04 0 1.16 1.04 0 1.2 1.04 0 0 1.08 0 0.04 1.08 0 0.08 1.08 0 0.12 1.08 0 0.16 1.08 0 0.2 1.08 0 0.24 1.08 0 0.28 1.08 0 0.32 1.08 0 0.36 1.08 0 0.4 1.08 0 0.44 1.08 0 0.48 1.08 0 0.52 1.08 0 0.56 1.08 0 0.6 1.08 0 0.64 1.08 0 0.68 1.08 0 0.72 1.08 0 0.76 1.08 0 0.8 1.08 0 0.84 1.08 0 0.88 1.08 0 0.92 1.08 0 0.96 1.08 0 1 1.08 0 1.04 1.08 0 1.08 1.08 0 1.12 1.08 0 1.16 1.08 0 1.2 1.08 0 0 1.12 0 
[...]
			<PointData Scalars="VitesseX">
				<DataArray Name="VitesseX" type="Float32" format="ascii">
 0 -0.044363 -0.0777264 -0.00683577 0.13054 0.278168 0.374779 0.417151 0.398323 0.366855 0.339319 0.322571 0.330525 0.359984 0.407629 0.466782 0.528317 0.589189 0.650063 0.705629 0.759313 0.803233 0.854021 0.879541 0.842389 0.647064 0.254076 -0.0908449 -0.157862 -0.0805679 0 0 0.0622873 0.0740386 0.120275 0.201796 0.290458 0.367162 0.373817 0.341555 0.304849 0.285235 0.286814 0.303781 0.339905 0.393709 0.457082 0.521698 0.585059 0.647536 0.703616 0.757044 0.80054 0.850987 0.876578 0.839849 0.645655 0.254309 -0.0901613 -0.15785 -0.0806337 0 0 0.00676453 0.0130851 0.015542 0.0252544 0.053186 0.0805527 0.113542 0.139728 0.158349 0.173594 0.196152 0.234113 0.288086 0.355904 0.429869 0.502095 0.57113 0.637491 0.695186 0.748696 0.791984 0.842365 0.868804 0.833796 0.643565 0.257056 -0.0868683 -0.157374 -0.0807288 0 0 -0.068186 -0.0999538 -0.106484 -0.110962 -0.118051 -0.115552 -0.0914652 -0.0406077 0.006055 0.0513684 0.101669 0.160579 0.227481 0.302724 0.383906 0.463935 0.539557 0.611434 0.672577 0.728483 0.773609 0.825793 0.854956 0.823686 0.641166 0.263612 -0.0798746 -0.156159 -0.0808677 0 0 -0.107515 -0.154507 -0.167565 -0.179873 -0.192007 -0.19398 -0.164403 -0.118118 -0.0630674 -0.0111563 0.0464381 0.108731 0.175515 0.246933 0.325088 0.406933 0.486899 0.56318 0.629249 0.690337 0.740132 0.796973 0.831721 0.806914 0.637245 0.274936 -0.0671367 -0.153384 -0.0810433 0 0 -0.105529 -0.15983 -0.182761 -0.189987 -0.19508 -0.188374 -0.168561 -0.131439 -0.0864337 -0.03176 0.023372 0.0814721 0.141476 0.204394 0.272629 0.346585 0.422084 0.497711 0.567608 0.633555 0.68924 0.752361 0.794962 0.779388 0.629111 0.291869 -0.0451884 -0.146882 -0.081135 0 0 -0.0819998 -0.134767 -0.146006 -0.134307 -0.117424 -0.115458 -0.111501 -0.0988883 -0.0660837 -0.0214034 0.027222 0.0767287 0.128343 0.179216 0.234415 0.296128 0.362104 0.42945 0.496157 0.562205 0.62287 0.690854 0.740461 0.735691 0.612 0.313885 -0.0088957 -0.131523 -0.0805278 0 0 -0.031474 -0.0573894 -0.0602273 -0.0346665 -0.0113206 0.00330172 -0.00222658 -0.0103582 -0.00549725 0.0185695 0.0540773 0.0922191 0.131276 0.171112 0.211565 0.258309 0.312003 0.369417 0.428357 0.487555 0.54779 0.614861 0.665878 0.670553 0.579276 0.337459 0.0469627 -0.0971847 -0.076139 0 0 0.0416455 0.0668559 0.0692237 0.0736259 0.0802406 0.0953932 0.10714 0.098169 0.0855055 0.0846549 0.0983302 0.121439 0.146902 0.17401 0.200776 0.232962 0.272549 0.31889 0.36913 0.420571 0.476642 0.532373 0.574315 0.583208 0.525374 0.354949 0.121754 -0.0327685 -0.0544148 0 0 0.0844956 0.145655 0.160534 0.152853 0.145779 0.146199 0.15874 0.171185 0.164298 0.148551 0.14172 0.147732 0.161292 0.178396 0.195383 0.215097 0.241615 0.276705 0.317719 0.364576 0.415569 0.455058 0.480423 0.48409 0.452207 0.356162 0.20293 0.0641788 0.00468788 0 0 0.0859774 0.152557 0.173319 0.16753 0.156853 0.150069 0.154303 0.167247 0.178979 0.178207 0.168764 0.159486 0.161385 0.168874 0.184477 0.197076 0.214999 0.23944 0.272537 0.316366 0.359703 0.388428 0.398425 0.390847 0.370253 0.333755 0.264645 0.174886 0.105862 0 0 0.0799335 0.13806 0.158693 0.152559 0.138394 0.125788 0.121297 0.129011 0.142813 0.153361 0.151151 0.143762 0.133857 0.136576 0.146076 0.163081 0.181595 0.201984 0.231084 0.268928 0.30462 0.327838 0.330196 0.310891 0.290192 0.287744 0.279952 0.246506 0.207645 0 0 0.0633318 0.105814 0.120897 0.110365 0.0905755 0.0726949 0.0623864 0.0639952 0.0759936 0.0896152 0.100938 0.0994579 0.0918387 0.0817887 0.0818908 0.0967465 0.120844 0.148359 0.180297 0.214092 0.244421 0.263932 0.26607 0.24581 0.216638 0.226232 0.247021 0.246196 0.241137 0 0 0.0388629 0.0641175 0.0661505 0.0468499 0.0215089 0.00089839 -0.0103146 -0.0105474 -0.00245099 0.011465 0.0234272 0.031931 0.0298371 0.0188065 0.00892678 0.00944567 0.027605 0.0608514 0.0984074 0.135424 0.16545 0.183164 0.18994 0.180808 0.152679 0.151224 0.171612 0.183759 0.205756 0 0 0.0140324 0.0181058 0.00365177 -0.0252976 -0.0566136 -0.0789416 -0.0868046 -0.0830874 -0.0741352 -0.0664472 -0.0585413 -0.053728 -0.0560705 -0.0659607 -0.0801778 -0.0913175 -0.0888841 -0.0659526 -0.0280421 0.012157 0.0469095 0.0687272 0.079415 0.0884918 0.0806684 0.0652233 0.0683888 0.0811381 0.128724 0 0 -0.00901151 -0.0287174 -0.0641082 -0.108052 -0.145198 -0.163263 -0.163014 -0.151574 -0.137426 -0.129312 -0.131499 -0.139497 -0.152225 -0.170287 -0.194661 -0.218286 -0.231419 -0.22751 -0.20246 -0.1663 -0.130656 -0.0983626 -0.0758194 -0.0511504 -0.0286565 -0.0319551 -0.0400688 -0.0249227 0.040585 0 0 -0.0284728 -0.0675168 -0.119556 -0.172585 -0.209016 -0.224892 -0.224149 -0.211288 -0.193804 -0.181778 -0.186802 -0.209057 -0.240885 -0.279809 -0.327408 -0.376105 -0.411458 -0.426284 -0.425926 -0.410656 -0.382423 -0.338883 -0.283945 -0.234113 -0.182849 -0.154782 -0.145727 -0.109632 -0.0466085 0 0 -0.0419142 -0.0909578 -0.146302 -0.194667 -0.227671 -0.244077 -0.246809 -0.24087 -0.230408 -0.222273 -0.225617 -0.256756 -0.308533 -0.376357 -0.456923 -0.54046 -0.61139 -0.659872 -0.688042 -0.696081 -0.67618 -0.621177 -0.543966 -0.452193 -0.375114 -0.306231 -0.242818 -0.172002 -0.122725 0 0 -0.0509889 -0.102833 -0.152056 -0.194284 -0.224827 -0.240706 -0.245047 -0.242184 -0.238519 -0.237649 -0.250482 -0.285833 -0.349687 -0.447823 -0.564946 -0.68392 -0.785743 -0.863666 -0.914409 -0.932283 -0.916405 -0.857746 -0.763221 -0.650396 -0.544484 -0.436088 -0.321299 -0.221917 -0.169545 0 0 -0.0581576 -0.107336 -0.14811 -0.182105 -0.206543 -0.220477 -0.225735 -0.226611 -0.227731 -0.234387 -0.252888 -0.296748 -0.373553 -0.491313 -0.640445 -0.791222 -0.917701 -1.01203 -1.06903 -1.08892 -1.06945 -1.00537 -0.89751 -0.776028 -0.651241 -0.5172 -0.379232 -0.261185 -0.183254 0 0 -0.0632845 -0.106468 -0.134497 -0.153695 -0.1681 -0.179872 -0.187844 -0.192899 -0.199401 -0.213217 -0.241736 -0.293302 -0.380884 -0.516799 -0.68667 -0.860319 -1.00267 -1.1003 -1.15323 -1.16619 -1.13499 -1.06715 -0.957016 -0.834031 -0.70186 -0.556746 -0.413057 -0.282666 -0.177542 0 0 -0.063442 -0.0982703 -0.108451 -0.110123 -0.113007 -0.123257 -0.139151 -0.153892 -0.167275 -0.188097 -0.224578 -0.283302 -0.380265 -0.526811 -0.715617 -0.901491 -1.04919 -1.14357 -1.18601 -1.18808 -1.14733 -1.07819 -0.970694 -0.849277 -0.715781 -0.569507 -0.424422 -0.286647 -0.160301 0 0 -0.0548669 -0.0775846 -0.0701914 -0.0566909 -0.0490799 -0.0613819 -0.0903528 -0.121575 -0.151048 -0.18342 -0.223705 -0.283142 -0.381953 -0.537187 -0.73585 -0.923458 -1.06762 -1.15732 -1.18594 -1.16617 -1.11758 -1.05434 -0.962157 -0.843676 -0.711618 -0.568942 -0.423497 -0.280142 -0.142409 0 0 -0.032854 -0.0405991 -0.0215924 -0.000163268 0.00183837 -0.0161802 -0.0543776 -0.103189 -0.14857 -0.189591 -0.235818 -0.299043 -0.395638 -0.549631 -0.753397 -0.930523 -1.04828 -1.10138 -1.10474 -1.07756 -1.03812 -0.991252 -0.921105 -0.81974 -0.695246 -0.559137 -0.414648 -0.269882 -0.133025 0 0 0.00165824 0.0125312 0.0336237 0.0428688 0.0341503 0.0039815 -0.0443457 -0.104026 -0.163214 -0.217513 -0.26857 -0.331426 -0.428126 -0.577186 -0.768057 -0.92711 -1.01322 -1.0292 -1.00191 -0.963687 -0.930973 -0.897782 -0.851812 -0.776605 -0.673026 -0.544246 -0.405753 -0.265988 -0.134015 0 0 0.0345913 0.0620175 0.0714214 0.0687861 0.0458764 0.00587805 -0.0509318 -0.125149 -0.208185 -0.277379 -0.328807 -0.382169 -0.475051 -0.631632 -0.807541 -0.931368 -0.985797 -0.970792 -0.911908 -0.868652 -0.836716 -0.806956 -0.771348 -0.719008 -0.63635 -0.530444 -0.403193 -0.271005 -0.139041 0 0 0.0560961 0.0843702 0.0863968 0.0702539 0.0410281 -0.0084732 -0.0772903 -0.171405 -0.275372 -0.361031 -0.415907 -0.461956 -0.542214 -0.699739 -0.870129 -0.959676 -0.978037 -0.930198 -0.852191 -0.801295 -0.763706 -0.7291 -0.693685 -0.649958 -0.591278 -0.509516 -0.405149 -0.281063 -0.152785 0 0 0.0563873 0.0841567 0.0642193 0.0422805 0.00616407 -0.0443299 -0.113153 -0.205118 -0.322598 -0.43228 -0.511778 -0.571859 -0.654502 -0.794471 -0.929604 -0.986278 -0.982522 -0.915934 -0.82845 -0.761379 -0.707271 -0.660866 -0.619747 -0.58105 -0.537438 -0.479691 -0.397293 -0.286717 -0.175158 0 0 0.050907 0.0027523 -0.00758544 -0.0229379 -0.0432958 -0.0750634 -0.121766 -0.196756 -0.305836 -0.444457 -0.583051 -0.707651 -0.828897 -0.953503 -1.03605 -1.05869 -1.03278 -0.949069 -0.834904 -0.736368 -0.656288 -0.593676 -0.544966 -0.505661 -0.467359 -0.418083 -0.358852 -0.299463 -0.150333 0 0 -0.363952 -0.125293 -0.0782855 -0.0611828 -0.0606696 -0.0784353 -0.105451 -0.143132 -0.22424 -0.370893 -0.573367 -0.799399 -1.00671 -1.15791 -1.23011 -1.23247 -1.14228 -0.979057 -0.804884 -0.658317 -0.544296 -0.460564 -0.400797 -0.357132 -0.318162 -0.277398 -0.234522 -0.192607 -0.16624 0 0 0 0 0 0 0 0 0 0 0 0 0 0 0 0 0 0 0 0 0 0 0 0 0 0 0 0 0 0 0 0
				</DataArray>
				<DataArray Name="VitesseY" type="Float32" format="ascii">
 0 0 0 0 0 0 0 0 0 0 0 0 0 0 0 0 0 0 0 0 0 0 0 0 0 0 0 0 0 0 0 -0.0254819 0.0823277 0.0140377 -0.0564474 -0.087881 -0.073888 -0.0250423 0.0501413 0.0747697 0.0667547 0.0533901 0.0343258 0.0131571 -0.00607187 -0.0222584 -0.0278503 -0.0285244 -0.0278415 -0.0258062 -0.0225273 -0.0184938 -0.0144893 -0.0110711 -0.00801708 -0.00572926 -0.0049193 -0.00547548 -0.00536783 -0.00522677 -0.00516209 0 -0.0456318 0.108176 0.0448644 -0.0612583 -0.099662 -0.104144 -0.0243577 0.0839916 0.120847 0.112271 0.085119 0.051125 0.0136023 -0.0242175 -0.0526636 -0.0618454 -0.0617846 -0.0592193 -0.0534843 -0.0454291 -0.0364398 -0.0288407 -0.0224606 -0.0168996 -0.0127987 -0.0114158 -0.0122961 -0.0113802 -0.0105947 -0.0103082 0 0.0296845 0.168972 0.084184 -0.021887 -0.0697677 -0.0803094 -0.0037089 0.0804385 0.121234 0.119892 0.0902272 0.045301 -0.00518618 -0.0537149 -0.0930377 -0.103675 -0.102577 -0.0962946 -0.0849362 -0.0700352 -0.055299 -0.0442001 -0.035462 -0.0281429 -0.0228815 -0.0210678 -0.0216884 -0.0186591 -0.0162228 -0.0154336 0 0.175521 0.273317 0.133197 0.023279 -0.0236026 -0.0328043 0.022538 0.0746424 0.103696 0.109302 0.0764789 0.0240345 -0.0334141 -0.087196 -0.133631 -0.150219 -0.149244 -0.139491 -0.121529 -0.0987469 -0.078056 -0.0631532 -0.0524255 -0.0441931 -0.0386073 -0.0365044 -0.035711 -0.0285268 -0.0225201 -0.0206254 0 0.348998 0.387365 0.194975 0.0719944 0.0216401 0.0134219 0.0457046 0.0760995 0.0926155 0.0938025 0.058436 0.0019607 -0.0590754 -0.116794 -0.166735 -0.193347 -0.194951 -0.184391 -0.162109 -0.132858 -0.106628 -0.0881166 -0.0757288 -0.0678672 -0.0634887 -0.0617913 -0.0585334 -0.0439222 -0.0306545 -0.0259935 0 0.497275 0.501209 0.262774 0.112767 0.0507353 0.0466457 0.0779243 0.0939655 0.0989014 0.0828986 0.0432451 -0.0149456 -0.0777851 -0.138202 -0.189379 -0.225955 -0.232842 -0.224281 -0.20144 -0.169483 -0.140515 -0.119354 -0.106021 -0.100714 -0.100678 -0.102059 -0.0965773 -0.0710248 -0.043709 -0.0319471 0 0.595362 0.591193 0.326064 0.137911 0.0623853 0.0688843 0.112869 0.134365 0.127452 0.0901588 0.0395041 -0.02305 -0.0872996 -0.148882 -0.201479 -0.243567 -0.260106 -0.254835 -0.234528 -0.203282 -0.174761 -0.153382 -0.141281 -0.141718 -0.15034 -0.160737 -0.156778 -0.120464 -0.0699763 -0.0413036 0 0.637726 0.61311 0.379305 0.159348 0.0850714 0.0897902 0.135793 0.178485 0.173814 0.124224 0.054462 -0.0163178 -0.0854611 -0.148017 -0.202647 -0.247014 -0.273865 -0.275272 -0.26033 -0.231783 -0.203026 -0.184214 -0.177314 -0.183978 -0.207731 -0.23519 -0.240792 -0.203417 -0.128705 -0.0667521 0 0.617051 0.581901 0.398361 0.1972 0.124091 0.124761 0.15822 0.204792 0.216555 0.173159 0.0934028 0.0071986 -0.0700084 -0.137379 -0.194149 -0.239611 -0.275266 -0.286156 -0.278174 -0.25527 -0.225524 -0.210674 -0.209395 -0.223368 -0.260573 -0.309219 -0.337596 -0.318582 -0.237727 -0.136468 0 0.571272 0.531158 0.395314 0.238376 0.170073 0.169527 0.192671 0.225814 0.242087 0.213945 0.138636 0.046907 -0.0421108 -0.117699 -0.180377 -0.22956 -0.268026 -0.290312 -0.29007 -0.275766 -0.249197 -0.237437 -0.239987 -0.258364 -0.301039 -0.362967 -0.420423 -0.44078 -0.395569 -0.284406 0 0.526173 0.484064 0.391462 0.274515 0.219161 0.218449 0.235428 0.255111 0.263149 0.237072 0.174347 0.0876357 -0.00306016 -0.0916209 -0.164524 -0.22368 -0.265464 -0.294062 -0.304965 -0.297713 -0.280669 -0.271104 -0.275449 -0.294391 -0.333052 -0.394756 -0.470642 -0.535334 -0.567537 -0.512438 0 0.484696 0.455948 0.392508 0.311355 0.272134 0.272072 0.284646 0.291903 0.286752 0.256581 0.196467 0.119167 0.0316146 -0.0584326 -0.147143 -0.221808 -0.279722 -0.316653 -0.335959 -0.337422 -0.329434 -0.320981 -0.327007 -0.345854 -0.375252 -0.424962 -0.501205 -0.598308 -0.713445 -0.772237 0 0.462545 0.449477 0.404954 0.354919 0.331384 0.330696 0.336065 0.332564 0.314115 0.275045 0.21432 0.136838 0.056863 -0.0324701 -0.128772 -0.222809 -0.303148 -0.360335 -0.391431 -0.406206 -0.408073 -0.406255 -0.411285 -0.429414 -0.457083 -0.490543 -0.551823 -0.665151 -0.835149 -1.00182 0 0.470293 0.462747 0.435965 0.409951 0.397292 0.393587 0.387817 0.369799 0.340691 0.29671 0.230685 0.152894 0.0709094 -0.0189049 -0.11811 -0.22509 -0.329687 -0.419272 -0.481575 -0.51579 -0.533673 -0.542913 -0.550977 -0.566535 -0.594359 -0.634471 -0.686428 -0.781199 -0.949201 -1.15853 0 0.502356 0.499245 0.488652 0.480479 0.472501 0.458537 0.433614 0.4006 0.361808 0.314159 0.2534 0.172315 0.0841011 -0.0102274 -0.11521 -0.234899 -0.365482 -0.489118 -0.589921 -0.657675 -0.69773 -0.723576 -0.743237 -0.75498 -0.768447 -0.803508 -0.853402 -0.910291 -1.02563 -1.22697 0 0.555128 0.557383 0.562331 0.566806 0.555016 0.520704 0.47507 0.425397 0.376842 0.328222 0.272252 0.198997 0.105178 0.00364191 -0.11244 -0.247381 -0.404378 -0.563543 -0.699681 -0.800568 -0.864561 -0.901969 -0.921785 -0.92381 -0.916189 -0.918668 -0.943548 -0.968616 -1.04554 -1.22592 0 0.624485 0.631636 0.649065 0.659589 0.63469 0.580402 0.516129 0.452579 0.39386 0.340164 0.287798 0.225095 0.137482 0.0282501 -0.0985423 -0.251141 -0.431662 -0.626993 -0.794147 -0.919736 -0.999652 -1.04151 -1.05733 -1.0343 -0.997016 -0.968595 -0.96134 -0.965577 -1.01968 -1.13647 0 0.706799 0.715509 0.739581 0.746636 0.710252 0.638578 0.558105 0.482443 0.415849 0.358484 0.305944 0.248661 0.171025 0.0675342 -0.068745 -0.236504 -0.439491 -0.66661 -0.86346 -1.00546 -1.08893 -1.12914 -1.14007 -1.08073 -1.00956 -0.953025 -0.915333 -0.902655 -0.939201 -0.974737 0 0.799697 0.804763 0.823765 0.825818 0.780427 0.694229 0.599717 0.514204 0.441802 0.381873 0.32851 0.275443 0.207955 0.111371 -0.0236266 -0.202665 -0.429585 -0.685959 -0.90629 -1.05628 -1.13717 -1.16825 -1.16595 -1.08415 -0.984014 -0.896357 -0.838541 -0.816582 -0.826026 -0.79977 0 0.904235 0.896288 0.899249 0.892355 0.83874 0.744688 0.642156 0.547588 0.470072 0.410069 0.360475 0.31105 0.247761 0.156689 0.025458 -0.158336 -0.404503 -0.688169 -0.921066 -1.07398 -1.14904 -1.1705 -1.14879 -1.0611 -0.949438 -0.855937 -0.789955 -0.751879 -0.729282 -0.65367 0 1.01544 0.985919 0.962638 0.943377 0.884302 0.788852 0.687417 0.586757 0.505025 0.447081 0.401694 0.351431 0.287284 0.198765 0.0712216 -0.112748 -0.36953 -0.666059 -0.905086 -1.0559 -1.12031 -1.13241 -1.10363 -1.0254 -0.919892 -0.827394 -0.755908 -0.700829 -0.651356 -0.540715 0 1.12748 1.07504 1.00955 0.974807 0.911529 0.824349 0.736913 0.640061 0.55444 0.492018 0.439919 0.386295 0.32018 0.231582 0.106424 -0.0714263 -0.323134 -0.612042 -0.850771 -0.998569 -1.05957 -1.07054 -1.04609 -0.983491 -0.890556 -0.800802 -0.724088 -0.65697 -0.590623 -0.458138 0 1.21838 1.15137 1.03797 0.99149 0.934076 0.863685 0.795709 0.710411 0.614652 0.533535 0.468313 0.408298 0.339808 0.250781 0.126849 -0.041194 -0.270109 -0.542274 -0.762895 -0.895604 -0.954109 -0.967483 -0.958606 -0.916921 -0.848097 -0.767885 -0.690712 -0.617388 -0.54317 -0.399319 0 1.28396 1.211 1.06864 1.01483 0.967282 0.911836 0.853459 0.776844 0.67264 0.567768 0.481249 0.408562 0.338488 0.255113 0.139263 -0.0220478 -0.223688 -0.456113 -0.656269 -0.778701 -0.834038 -0.848152 -0.842196 -0.818173 -0.774923 -0.717251 -0.648779 -0.579863 -0.504525 -0.356368 0 1.31515 1.23635 1.08439 1.02325 0.977716 0.928592 0.87283 0.800847 0.696894 0.580553 0.478238 0.390976 0.312768 0.234162 0.133533 -0.00360988 -0.179996 -0.382887 -0.551243 -0.655159 -0.704171 -0.716818 -0.711614 -0.694974 -0.672452 -0.635879 -0.590808 -0.537059 -0.467034 -0.31791 0 1.29546 1.21065 1.05439 0.982627 0.926603 0.870963 0.810533 0.742695 0.652546 0.550036 0.457507 0.374073 0.293294 0.206246 0.107167 -0.0105153 -0.153979 -0.315622 -0.444639 -0.52256 -0.559847 -0.571557 -0.570406 -0.559519 -0.544445 -0.530489 -0.509497 -0.479666 -0.418148 -0.277404 0 1.18686 1.07428 0.911994 0.808564 0.717853 0.650892 0.585675 0.53531 0.488413 0.444278 0.406216 0.362913 0.297172 0.203149 0.0869962 -0.0316611 -0.146407 -0.248332 -0.327541 -0.384365 -0.416524 -0.426566 -0.424937 -0.415389 -0.406093 -0.403427 -0.405269 -0.397404 -0.358993 -0.234677 0 0.818738 0.780484 0.593929 0.45191 0.350478 0.286653 0.239749 0.225594 0.235608 0.270995 0.315438 0.329079 0.291265 0.202344 0.0840607 -0.0274927 -0.113808 -0.176135 -0.225797 -0.264861 -0.285406 -0.288507 -0.281224 -0.270597 -0.266448 -0.271173 -0.28115 -0.286812 -0.299574 -0.192766 0 0.678285 0.167678 0.187099 0.116249 0.0368189 0.0369955 0.0112086 0.0214876 0.0396101 0.110369 0.199473 0.267064 0.266128 0.208493 0.121725 0.032995 -0.0528617 -0.127023 -0.171856 -0.184321 -0.178118 -0.160889 -0.143086 -0.133592 -0.134414 -0.139257 -0.152855 -0.175208 -0.150372 -0.166315 0 5.52488 0 0 0 0 0 0 0 0 0 0 0 0 0 0 0 0 0 0 0 0 0 0 0 0 0 0 0 0 0 0
				</DataArray>
			</PointData>
			<CellData Scalars="Density">
				<DataArray Name="Density" type="Float32" format="ascii">