<?xml version="1.0"?>
<VTKFile type="PolyData">
	<PolyData>
		<Piece NumberOfPoints="961" NumberOfPolys="900">
			<Points>
				<DataArray type="Float32" NumberOfComponents="3" format="ascii">
 0 0 0 0.04 0 0 0.08 0 0 0.12 0 0 0.16 0 0 0.2 0 0 0.24 0 0 0.28 0 0 0.32 0 0 0.36 0 0 0.4 0 0 0.44 0 0 0.48 0 0 0.52 0 0 0.56 0 0 0.6 0 0 0.64 0 0 0.68 0 0 0.72 0 0 0.76 0 0 0.8 0 0 0.84 0 0 0.88 0 0 0.92 0 0 0.96 0 0 1 0 0 1.04 0 0 1.08 0 0 1.12 0 0 1.16 0 0 1.2 0 0 0 0.04 0 0.04 0.04 0 0.08 0.04 0 0.12 0.04 0 0.16 0.04 0 0.2 0.04 0 0.24 0.04 0 0.28 0.04 0 0.32 0.04 0 0.36 0.04 0 0.4 0.04 0 0.44 0.04 0 0.48 0.04 0 0.52 0.04 0 0.56 0.04 0 0.6 0.04 0 0.64 0.04 0 0.68 0.04 0 0.72 0.04 0 0.76 0.04 0 0.8 0.04 0 0.84 0.04 0 0.88 0.04 0 0.92 0.04 0 0.96 0.04 0 1 0.04 0 1.04 0.04 0 1.08 0.04 0 1.12 0.04 0 1.16 0.04 0 1.2 0.04 0 0 0.08 0 0.04 0.08 0 0.08 0.08 0 0.12 0.08 0 0.16 0.08 0 0.2 0.08 0 0.24 0.08 0 0.28 0.08 0 0.32 0.08 0 0.36 0.08 0 0.4 0.08 0 0.44 0.08 0 0.48 0.08 0 0.52 0.08 0 0.56 0.08 0 0.6 0.08 0 0.64 0.08 0 0.68 0.08 0 0.72 0.08 0 0.76 0.08 0 0.8 0.08 0 0.84 0.08 0 0.88 0.08 0 0.92 0.08 0 0.96 0.08 0 1 0.08 0 1.04 0.08 0 1.08 0.08 0 1.12 0.08 0 1.16 0.08 0 1.2 0.08 0 0 0.12 0 0.04 0.12 0 0.08 0.12 0 0.12 0.12 0 0.16 0.12 0 0.2 0.12 0 0.24 0.12 0 0.28 0.12 0 0.32 0.12 0 0.36 0.12 0 0.4 0.12 0 0.44 0.12 0 0.48 0.12 0 0.52 0.12 0 0.56 0.12 0 0.6 0.12 0 0.64 0.12 0 0.68 0.12 0 0.72 0.12 0 0.76 0.12 0 0.8 0.12 0 0.84 0.12 0 0.88 0.12 0 0.92 0.12 0 0.96 0.12 0 1 0.12 0 1.04 0.12 0 1.08 0.12 0 1.12 0.12 0 1.16 0.12 0 1.2 0.12 0 0 0.16 0 0.04 0.16 0 0.08 0.16 0 0.12 0.16 0 0.16 0.16 0 0.2 0.16 0 0.24 0.16 0 0.28 0.16 0 0.32 0.16 0 0.36 0.16 0 0.4 0.16 0 0.44 0.16 0 0.48 0.16 0 0.52 0.16 0 0.56 0.16 0 0.6 0.16 0 0.64 0.16 0 0.68 0.16 0 0.72 0.16 0 0.76 0.16 0 0.8 0.16 0 0.84 0.16 0 0.88 0.16 0 0.92 0.16 0 0.96 0.16 0 1 0.16 0 1.04 0.16 0 1.08 0.16 0 1.12 0.16 0 1.16 0.16 0 1.2 0.16 0 0 0.2 0 0.04 0.2 0 0.08 0.2 0 0.12 0.2 0 0.16 0.2 0 0.2 0.2 0 0.24 0.2 0 0.28 0.2 0 0.32 0.2 0 0.36 0.2 0 0.4 0.2 0 0.44 0.2 0 0.48 0.2 0 0.52 0.2 0 0.56 0.2 0 0.6 0.2 0 0.64 0.2 0 0.68 0.2 0 0.72 0.2 0 0.76 0.2 0 0.8 0.2 0 0.84 0.2 0 0.88 0.2 0 0.92 0.2 0 0.96 0.2 0 1 0.2 0 1.04 0.2 0 1.08 0.2 0 1.12 0.2 0 1.16 0.2 0 1.2 0.2 0 0 0.24 0 0.04 0.24 0 0.08 0.24 0 0.12 0.24 0 0.16 0.24 0 0.2 0.24 0 0.24 0.24 0 0.28 0.24 0 0.32 0.24 0 0.36 0.24 0 0.4 0.24 0 0.44 0.24 0 0.48 0.24 0 0.52 0.24 0 0.56 0.24 0 0.6 0.24 0 0.64 0.24 0 0.68 0.24 0 0.72 0.24 0 0.76 0.24 0 0.8 0.24 0 0.84 0.24 0 0.88 0.24 0 0.92 0.24 0 0.96 0.24 0 1 0.24 0 1.04 0.24 0 1.08 0.24 0 1.12 0.24 0 1.16 0.24 0 1.2 0.24 0 0 0.28 0 0.04 0.28 0 0.08 0.28 0 0.12 0.28 0 0.16 0.28 0 0.2 0.28 0 0.24 0.28 0 0.28 0.28 0 0.32 0.28 0 0.36 0.28 0 0.4 0.28 0 0.44 0.28 0 0.48 0.28 0 0.52 0.28 0 0.56 0.28 0 0.6 0.28 0 0.64 0.28 0 0.68 0.28 0 0.72 0.28 0 0.76 0.28 0 0.8 0.28 0 0.84 0.28 0 0.88 0.28 0 0.92 0.28 0 0.96 0.28 0 1 0.28 0 1.04 0.28 0 1.08 0.28 0 1.12 0.28 0 1.16 0.28 0 1.2 0.28 0 0 0.32 0 0.04 0.32 0 0.08 0.32 0 0.12 0.32 0 0.16 0.32 0 0.2 0.32 0 0.24 0.32 0 0.28 0.32 0 0.32 0.32 0 0.36 0.32 0 0.4 0.32 0 0.44 0.32 0 0.48 0.32 0 0.52 0.32 0 0.56 0.32 0 0.6 0.32 0 0.64 0.32 0 0.68 0.32 0 0.72 0.32 0 0.76 0.32 0 0.8 0.32 0 0.84 0.32 0 0.88 0.32 0 0.92 0.32 0 0.96 0.32 0 1 0.32 0 1.04 0.32 0 1.08 0.32 0 1.12 0.32 0 1.16 0.32 0 1.2 0.32 0 0 0.36 0 0.04 0.36 0 0.08 0.36 0 0.12 0.36 0 0.16 0.36 0 0.2 0.36 0 0.24 0.36 0 0.28 0.36 0 0.32 0.36 0 0.36 0.36 0 0.4 0.36 0 0.44 0.36 0 0.48 0.36 0 0.52 0.36 0 0.56 0.36 0 0.6 0.36 0 0.64 0.36 0 0.68 0.36 0 0.72 0.36 0 0.76 0.36 0 0.8 0.36 0 0.84 0.36 0 0.88 0.36 0 0.92 0.36 0 0.96 0.36 0 1 0.36 0 1.04 0.36 0 1.08 0.36 0 1.12 0.36 0 1.16 0.36 0 1.2 0.36 0 0 0.4 0 0.04 0.4 0 0.08 0.4 0 0.12 0.4 0 0.16 0.4 0 0.2 0.4 0 0.24 0.4 0 0.28 0.4 0 0.32 0.4 0 0.36 0.4 0 0.4 0.4 0 0.44 0.4 0 0.48 0.4 0 0.52 0.4 0 0.56 0.4 0 0.6 0.4 0 0.64 0.4 0 0.68 0.4 0 0.72 0.4 0 0.76 0.4 0 0.8 0.4 0 0.84 0.4 0 0.88 0.4 0 0.92 0.4 0 0.96 0.4 0 1 0.4 0 1.04 0.4 0 1.08 0.4 0 1.12 0.4 0 1.16 0.4 0 1.2 0.4 0 0 0.44 0 0.04 0.44 0 0.08 0.44 0 0.12 0.44 0 0.16 0.44 0 0.2 0.44 0 0.24 0.44 0 0.28 0.44 0 0.32 0.44 0 0.36 0.44 0 0.4 0.44 0 0.44 0.44 0 0.48 0.44 0 0.52 0.44 0 0.56 0.44 0 0.6 0.44 0 0.64 0.44 0 0.68 0.44 0 0.72 0.44 0 0.76 0.44 0 0.8 0.44 0 0.84 0.44 0 0.88 0.44 0 0.92 0.44 0 0.96 0.44 0 1 0.44 0 1.04 0.44 0 1.08 0.44 0 1.12 0.44 0 1.16 0.44 0 1.2 0.44 0 0 0.48 0 0.04 0.48 0 0.08 0.48 0 0.12 0.48 0 0.16 0.48 0 0.2 0.48 0 0.24 0.48 0 0.28 0.48 0 0.32 0.48 0 0.36 0.48 0 0.4 0.48 0 0.44 0.48 0 0.48 0.48 0 0.52 0.48 0 0.56 0.48 0 0.6 0.48 0 0.64 0.48 0 0.68 0.48 0 0.72 0.48 0 0.76 0.48 0 0.8 0.48 0 0.84 0.48 0 0.88 0.48 0 0.92 0.48 0 0.96 0.48 0 1 0.48 0 1.04 0.48 0 1.08 0.48 0 1.12 0.48 0 1.16 0.48 0 1.2 0.48 0 0 0.52 0 0.04 0.52 0 0.08 0.52 0 0.12 0.52 0 0.16 0.52 0 0.2 0.52 0 0.24 0.52 0 0.28 0.52 0 0.32 0.52 0 0.36 0.52 0 0.4 0.52 0 0.44 0.52 0 0.48 0.52 0 0.52 0.52 0 0.56 0.52 0 0.6 0.52 0 0.64 0.52 0 0.68 0.52 0 0.72 0.52 0 0.76 0.52 0 0.8 0.52 0 0.84 0.52 0 0.88 0.52 0 0.92 0.52 0 0.96 0.52 0 1 0.52 0 1.04 0.52 0 1.08 0.52 0 1.12 0.52 0 1.16 0.52 0 1.2 0.52 0 0 0.56 0 0.04 0.56 0 0.08 0.56 0 0.12 0.56 0 0.16 0.56 0 0.2 0.56 0 0.24 0.56 0 0.28 0.56 0 0.32 0.56 0 0.36 0.56 0 0.4 0.56 0 0.44 0.56 0 0.48 0.56 0 0.52 0.56 0 0.56 0.56 0 0.6 0.56 0 0.64 0.56 0 0.68 0.56 0 0.72 0.56 0 0.76 0.56 0 0.8 0.56 0 0.84 0.56 0 0.88 0.56 0 0.92 0.56 0 0.96 0.56 0 1 0.56 0 1.04 0.56 0 1.08 0.56 0 1.12 0.56 0 1.16 0.56 0 1.2 0.56 0 0 0.6 0 0.04 0.6 0 0.08 0.6 0 0.12 0.6 0 0.16 0.6 0 0.2 0.6 0 0.24 0.6 0 0.28 0.6 0 0.32 0.6 0 0.36 0.6 0 0.4 0.6 0 0.44 0.6 0 0.48 0.6 0 0.52 0.6 0 0.56 0.6 0 0.6 0.6 0 0.64 0.6 0 0.68 0.6 0 0.72 0.6 0 0.76 0.6 0 0.8 0.6 0 0.84 0.6 0 0.88 0.6 0 0.92 0.6 0 0.96 0.6 0 1 0.6 0 1.04 0.6 0 1.08 0.6 0 1.12 0.6 0 1.16 0.6 0 1.2 0.6 0 0 0.64 0 0.04 0.64 0 0.08 0.64 0 0.12 0.64 0 0.16 0.64 0 0.2 0.64 0 0.24 0.64 0 0.28 0.64 0 0.32 0.64 0 0.36 0.64 0 0.4 0.64 0 0.44 0.64 0 0.48 0.64 0 0.52 0.64 0 0.56 0.64 0 0.6 0.64 0 0.64 0.64 0 0.68 0.64 0 0.72 0.64 0 0.76 0.64 0 0.8 0.64 0 0.84 0.64 0 0.88 0.64 0 0.92 0.64 0 0.96 0.64 0 1 0.64 0 1.04 0.64 0 1.08 0.64 0 1.12 0.64 0 1.16 0.64 0 1.2 0.64 0 0 0.68 0 0.04 0.68 0 0.08 0.68 0 0.12 0.68 0 0.16 0.68 0 0.2 0.68 0 0.24 0.68 0 0.28 0.68 0 0.32 0.68 0 0.36 0.68 0 0.4 0.68 0 0.44 0.68 0 0.48 0.68 0 0.52 0.68 0 0.56 0.68 0 0.6 0.68 0 0.64 0.68 0 0.68 0.68 0 0.72 0.68 0 0.76 0.68 0 0.8 0.68 0 0.84 0.68 0 0.88 0.68 0 0.92 0.68 0 0.96 0.68 0 1 0.68 0 1.04 0.68 0 1.08 0.68 0 1.12 0.68 0 1.16 0.68 0 1.2 0.68 0 0 0.72 0 0.04 0.72 0 0.08 0.72 0 0.12 0.72 0 0.16 0.72 0 0.2 0.72 0 0.24 0.72 0 0.28 0.72 0 0.32 0.72 0 0.36 0.72 0 0.4 0.72 0 0.44 0.72 0 0.48 0.72 0 0.52 0.72 0 0.56 0.72 0 0.6 0.72 0 0.64 0.72 0 0.68 0.72 0 0.72 0.72 0 0.76 0.72 0 0.8 0.72 0 0.84 0.72 0 0.88 0.72 0 0.92 0.72 0 0.96 0.72 0 1 0.72 0 1.04 0.72 0 1.08 0.72 0 1.12 0.72 0 1.16 0.72 0 1.2 0.72 0 0 0.76 0 0.04 0.76 0 0.08 0.76 0 0.12 0.76 0 0.16 0.76 0 0.2 0.76 0 0.24 0.76 0 0.28 0.76 0 0.32 0.76 0 0.36 0.76 0 0.4 0.76 0 0.44 0.76 0 0.48 0.76 0 0.52 0.76 0 0.56 0.76 0 0.6 0.76 0 0.64 0.76 0 0.68 0.76 0 0.72 0.76 0 0.76 0.76 0 0.8 0.76 0 0.84 0.76 0 0.88 0.76 0 0.92 0.76 0 0.96 0.76 0 1 0.76 0 1.04 0.76 0 1.08 0.76 0 1.12 0.76 0 1.16 0.76 0 1.2 0.76 0 0 0.8 0 0.04 0.8 0 0.08 0.8 0 0.12 0.8 0 0.16 0.8 0 0.2 0.8 0 0.24 0.8 0 0.28 0.8 0 0.32 0.8 0 0.36 0.8 0 0.4 0.8 0 0.44 0.8 0 0.48 0.8 0 0.52 0.8 0 0.56 0.8 0 0.6 0.8 0 0.64 0.8 0 0.68 0.8 0 0.72 0.8 0 0.76 0.8 0 0.8 0.8 0 0.84 0.8 0 0.88 0.8 0 0.92 0.8 0 0.96 0.8 0 1 0.8 0 1.04 0.8 0 1.08 0.8 0 1.12 0.8 0 1.16 0.8 0 1.2 0.8 0 0 0.84 0 0.04 0.84 0 0.08 0.84 0 0.12 0.84 0 0.16 0.84 0 0.2 0.84 0 0.24 0.84 0 0.28 0.84 0 0.32 0.84 0 0.36 0.84 0 0.4 0.84 0 0.44 0.84 0 0.48 0.84 0 0.52 0.84 0 0.56 0.84 0 0.6 0.84 0 0.64 0.84 0 0.68 0.84 0 0.72 0.84 0 0.76 0.84 0 0.8 0.84 0 0.84 0.84 0 0.88 0.84 0 0.92 0.84 0 0.96 0.84 0 1 0.84 0 1.04 0.84 0 1.08 0.84 0 1.12 0.84 0 1.16 0.84 0 1.2 0.84 0 0 0.88 0 0.04 0.88 0 0.08 0.88 0 0.12 0.88 0 0.16 0.88 0 0.2 0.88 0 0.24 0.88 0 0.28 0.88 0 0.32 0.88 0 0.36 0.88 0 0.4 0.88 0 0.44 0.88 0 0.48 0.88 0 0.52 0.88 0 0.56 0.88 0 0.6 0.88 0 0.64 0.88 0 0.68 0.88 0 0.72 0.88 0 0.76 0.88 0 0.8 0.88 0 0.84 0.88 0 0.88 0.88 0 0.92 0.88 0 0.96 0.88 0 1 0.88 0 1.04 0.88 0 1.08 0.88 0 1.12 0.88 0 1.16 0.88 0 1.2 0.88 0 0 0.92 0 0.04 0.92 0 0.08 0.92 0 0.12 0.92 0 0.16 0.92 0 0.2 0.92 0 0.24 0.92 0 0.28 0.92 0 0.32 0.92 0 0.36 0.92 0 0.4 0.92 0 0.44 0.92 0 0.48 0.92 0 0.52 0.92 0 0.56 0.92 0 0.6 0.92 0 0.64 0.92 0 0.68 0.92 0 0.72 0.92 0 0.76 0.92 0 0.8 0.92 0 0.84 0.92 0 0.88 0.92 0 0.92 0.92 0 0.96 0.92 0 1 0.92 0 1.04 0.92 0 1.08 0.92 0 1.12 0.92 0 1.16 0.92 0 1.2 0.92 0 0 0.96 0 0.04 0.96 0 0.08 0.96 0 0.12 0.96 0 0.16 0.96 0 0.2 0.96 0 0.24 0.96 0 0.28 0.96 0 0.32 0.96 0 0.36 0.96 0 0.4 0.96 0 0.44 0.96 0 0.48 0.96 0 0.52 0.96 0 0.56 0.96 0 0.6 0.96 0 0.64 0.96 0 0.68 0.96 0 0.72 0.96 0 0.76 0.96 0 0.8 0.96 0 0.84 0.96 0 0.88 0.96 0 0.92 0.96 0 0.96 0.96 0 1 0.96 0 1.04 0.96 0 1.08 0.96 0 1.12 0.96 0 1.16 0.96 0 1.2 0.96 0 0 1 0 0.04 1 0 0.08 1 0 0.12 1 0 0.16 1 0 0.2 1 0 0.24 1 0 0.28 1 0 0.32 1 0 0.36 1 0 0.4 1 0 0.44 1 0 0.48 1 0 0.52 1 0 0.56 1 0 0.6 1 0 0.64 1 0 0.68 1 0 0.72 1 0 0.76 1 0 0.8 1 0 0.84 1 0 0.88 1 0 0.92 1 0 0.96 1 0 1 1 0 1.04 1 0 1.08 1 0 1.12 1 0 1.16 1 0 1.2 1 0 0 1.04 0 0.04 1.04 0 0.08 1.04 0 0.12 1.04 0 0.16 1.04 0 0.2 1.04 0 0.24 1.04 0 0.28 1.04 0 0.32 1.04 0 0.36 1.04 0 0.4 1.04 0 0.44 1.04 0 0.48 1.04 0 0.52 1.04 0 0.56 1.04 0 0.6 1.04 0 0.64 1.04 0 0.68 1.04 0 0.72 1.04 0 0.76 1.04 0 0.8 1.04 0 0.84 1.04 0 0.88 1.04 0 0.92 1.04 0 0.96 1.04 0 1 1.04 0 1.04 1.04 0 1.08 1.04 0 1.12 1.04 0 1.16 1.04 0 1.2 1.04 0 0 1.08 0 0.04 1.08 0 0.08 1.08 0 0.12 1.08 0 0.16 1.08 0 0.2 1.08 0 0.24 1.08 0 0.28 1.08 0 0.32 1.08 0 0.36 1.08 0 0.4 1.08 0 0.44 1.08 0 0.48 1.08 0 0.52 1.08 0 0.56 1.08 0 0.6 1.08 0 0.64 1.08 0 0.68 1.08 0 0.72 1.08 0 0.76 1.08 0 0.8 1.08 0 0.84 1.08 0 0.88 1.08 0 0.92 1.08 0 0.96 1.08 0 1 1.08 0 1.04 1.08 0 1.08 1.08 0 1.12 1.08 0 1.16 1.08 0 1.2 1.08 0 0 1.12 0 
[...]
			<PointData Scalars="VitesseX">
				<DataArray Name="VitesseX" type="Float32" format="ascii">
 0 -0.0400929 -0.0729109 -0.00759861 0.122494 0.263059 0.353294 0.400987 0.388655 0.362105 0.339069 0.325059 0.332815 0.359979 0.405626 0.46502 0.52971 0.595703 0.661378 0.724847 0.786392 0.843561 0.897667 0.944108 0.992293 1.03541 1.0384 0.965376 0.722569 0.332548 0 0 0.0597823 0.0750072 0.122473 0.201762 0.28576 0.362318 0.369346 0.339728 0.303823 0.28459 0.286059 0.302362 0.33651 0.38828 0.452286 0.520676 0.589629 0.657734 0.72266 0.784573 0.841233 0.894601 0.940598 0.988537 1.03181 1.03519 0.962808 0.721263 0.332653 0 0 0.0129262 0.0208733 0.027057 0.0378994 0.0670265 0.0940183 0.126113 0.148094 0.16472 0.177133 0.1961 0.229318 0.278087 0.343414 0.418843 0.495796 0.571312 0.644752 0.713037 0.776137 0.832224 0.884656 0.930229 0.978207 1.02253 1.02737 0.957105 0.719147 0.334021 0 0 -0.056388 -0.0826927 -0.0888621 -0.0921225 -0.0982513 -0.097948 -0.0798335 -0.031588 0.0123383 0.0543871 0.0998932 0.154095 0.217332 0.288811 0.368605 0.451798 0.534024 0.613377 0.686193 0.752063 0.809607 0.863095 0.909803 0.959403 1.00655 1.01446 0.948452 0.717536 0.338502 0 0 -0.0987535 -0.140479 -0.15236 -0.165712 -0.177764 -0.179534 -0.150096 -0.105897 -0.0540111 -0.00522006 0.0492231 0.108262 0.172531 0.24069 0.314623 0.395072 0.477732 0.559807 0.636348 0.70581 0.767261 0.824561 0.87463 0.928176 0.980399 0.993457 0.934565 0.716203 0.348083 0 0 -0.100954 -0.150422 -0.172289 -0.180262 -0.185269 -0.175333 -0.153038 -0.116095 -0.0721124 -0.0203081 0.0336762 0.0907655 0.149885 0.210765 0.275079 0.346147 0.420787 0.496293 0.570501 0.641198 0.706444 0.767898 0.822205 0.881018 0.939222 0.958997 0.910135 0.7124 0.364566 0 0 -0.084982 -0.135822 -0.146958 -0.137599 -0.121085 -0.115816 -0.105356 -0.0863099 -0.0513483 -0.00517034 0.0440927 0.0954577 0.148422 0.200775 0.254025 0.312248 0.375827 0.440948 0.506174 0.570136 0.6337 0.696087 0.753536 0.817052 0.877696 0.902858 0.865406 0.698143 0.387412 0 0 -0.043861 -0.0803644 -0.0846065 -0.0548442 -0.0234756 -0.00419895 -0.00531452 -0.00587621 0.00789654 0.0365833 0.0759126 0.119018 0.163065 0.20606 0.248407 0.293596 0.34431 0.398195 0.452874 0.507625 0.562451 0.618354 0.67469 0.738264 0.792291 0.816868 0.787792 0.658347 0.407867 0 0 0.0177825 0.0226181 0.025581 0.0480974 0.0686138 0.0938715 0.11073 0.104308 0.0967461 0.102368 0.122174 0.151258 0.183948 0.21761 0.249366 0.283104 0.322307 0.365873 0.410917 0.457454 0.502751 0.548351 0.598666 0.649351 0.688958 0.700955 0.670895 0.57601 0.40432 0 0 0.0763432 0.130926 0.144857 0.14403 0.146544 0.154143 0.170676 0.18412 0.179124 0.166081 0.161045 0.170619 0.189617 0.214169 0.241941 0.269247 0.300478 0.336262 0.374337 0.41513 0.454396 0.49271 0.533569 0.567105 0.583047 0.572028 0.525775 0.449473 0.354664 0 0 0.086203 0.155811 0.180107 0.176956 0.170045 0.165503 0.168199 0.176008 0.18132 0.178725 0.170517 0.16373 0.167775 0.181718 0.206187 0.23534 0.264989 0.29819 0.334278 0.371683 0.409079 0.444642 0.474696 0.491452 0.482146 0.441715 0.371291 0.298223 0.26298 0 0 0.0840673 0.150531 0.176494 0.174533 0.163246 0.150915 0.142661 0.140583 0.140267 0.136316 0.126279 0.11368 0.10446 0.109107 0.126726 0.15732 0.194734 0.234519 0.275547 0.315502 0.354897 0.388336 0.409531 0.407259 0.376352 0.307854 0.222772 0.156584 0.155405 0 0 0.0745701 0.128797 0.153283 0.14931 0.13225 0.111262 0.0915705 0.0779222 0.0680885 0.0581548 0.0457026 0.0301482 0.0155035 0.00561179 0.0116064 0.0361105 0.0771921 0.126562 0.177608 0.22661 0.269741 0.30246 0.313589 0.297356 0.24667 0.1668 0.0871044 0.0420436 0.0560195 0 0 0.0555183 0.0950852 0.110968 0.100702 0.0772342 0.0501296 0.0235993 0.000998414 -0.018448 -0.0369793 -0.0569932 -0.0768388 -0.0978256 -0.11322 -0.118146 -0.104678 -0.0713103 -0.0220067 0.0342681 0.0886595 0.134356 0.163238 0.166772 0.138555 0.0807982 0.0127473 -0.0356345 -0.0466838 -0.0282913 0 0 0.0329346 0.0556181 0.0568248 0.0369833 0.00739674 -0.0225441 -0.0497297 -0.0757007 -0.102976 -0.133063 -0.16315 -0.19684 -0.228543 -0.252613 -0.262435 -0.255642 -0.231661 -0.193418 -0.146913 -0.100383 -0.0621287 -0.0423923 -0.0482024 -0.0799783 -0.122297 -0.146997 -0.139903 -0.110859 -0.0954855 0 0 0.0113377 0.0121378 -0.00480288 -0.0373238 -0.0731482 -0.101902 -0.121868 -0.14184 -0.17154 -0.210712 -0.259621 -0.311227 -0.359128 -0.396189 -0.417218 -0.420896 -0.41048 -0.391074 -0.368305 -0.346032 -0.329748 -0.321513 -0.323221 -0.33047 -0.320834 -0.282303 -0.219265 -0.15896 -0.137751 0 0 -0.0109427 -0.0334229 -0.0721725 -0.118695 -0.157137 -0.177976 -0.189051 -0.202898 -0.229048 -0.270524 -0.33389 -0.405929 -0.470826 -0.522831 -0.558196 -0.577313 -0.582321 -0.583256 -0.585222 -0.590116 -0.591509 -0.581878 -0.564653 -0.533757 -0.467537 -0.377444 -0.279531 -0.198208 -0.152905 0 0 -0.0279013 -0.0670039 -0.118157 -0.168308 -0.201309 -0.218061 -0.227783 -0.242878 -0.271294 -0.314104 -0.383544 -0.470724 -0.552647 -0.618672 -0.667063 -0.696035 -0.713244 -0.73001 -0.755937 -0.77873 -0.786935 -0.773532 -0.732049 -0.657807 -0.553326 -0.438083 -0.322582 -0.223777 -0.152124 0 0 -0.0387738 -0.0855945 -0.138037 -0.181542 -0.209086 -0.223195 -0.231491 -0.248128 -0.282733 -0.334407 -0.41246 -0.506424 -0.599355 -0.678286 -0.736094 -0.770629 -0.797511 -0.836562 -0.881391 -0.910981 -0.917647 -0.891005 -0.820516 -0.71574 -0.594709 -0.468011 -0.344362 -0.234136 -0.143372 0 0 -0.0463857 -0.0943266 -0.140572 -0.178952 -0.204063 -0.215984 -0.222054 -0.236734 -0.272541 -0.328301 -0.415027 -0.519813 -0.618966 -0.70459 -0.767109 -0.809463 -0.854848 -0.916794 -0.96997 -0.996914 -0.99544 -0.942484 -0.852442 -0.733238 -0.606138 -0.47637 -0.350356 -0.234664 -0.132149 0 0 -0.0518469 -0.0979433 -0.136547 -0.1671 -0.186906 -0.195996 -0.199646 -0.211113 -0.247338 -0.308913 -0.403378 -0.514868 -0.620611 -0.709595 -0.773569 -0.825852 -0.896345 -0.970063 -1.02462 -1.04807 -1.02585 -0.9556 -0.856449 -0.733128 -0.605189 -0.475553 -0.349033 -0.229575 -0.122876 0 0 -0.0571232 -0.0976477 -0.12502 -0.143108 -0.154714 -0.16144 -0.164773 -0.173557 -0.209173 -0.274904 -0.37993 -0.502952 -0.614101 -0.704934 -0.769713 -0.83258 -0.914904 -0.99285 -1.04757 -1.06341 -1.02499 -0.947941 -0.84088 -0.721848 -0.596365 -0.469135 -0.343501 -0.224612 -0.118337 0 0 -0.0595792 -0.0933146 -0.105596 -0.108072 -0.109196 -0.11457 -0.122346 -0.13562 -0.175418 -0.245168 -0.357507 -0.494121 -0.61431 -0.70427 -0.766285 -0.831675 -0.915365 -0.983746 -1.01275 -1.00418 -0.967482 -0.902264 -0.813584 -0.702998 -0.583922 -0.461639 -0.340377 -0.224204 -0.11843 0 0 -0.057307 -0.082228 -0.0780447 -0.0649684 -0.0550891 -0.0596358 -0.0785455 -0.107394 -0.156092 -0.233939 -0.356293 -0.502021 -0.63022 -0.720433 -0.771638 -0.817484 -0.872421 -0.911048 -0.922528 -0.912887 -0.885832 -0.840578 -0.772717 -0.682368 -0.574262 -0.458547 -0.341545 -0.228975 -0.124111 0 0 -0.046135 -0.0610684 -0.0433417 -0.0217278 -0.0117393 -0.0219672 -0.0502418 -0.093356 -0.153964 -0.240897 -0.376327 -0.536883 -0.670715 -0.7553 -0.794319 -0.81799 -0.839722 -0.851434 -0.84835 -0.833041 -0.809826 -0.773326 -0.722932 -0.654293 -0.566014 -0.459232 -0.347712 -0.238586 -0.132644 0 0 -0.0241371 -0.0261898 -0.00632171 0.0130154 0.0143149 -0.00482972 -0.0440386 -0.0975483 -0.167249 -0.27501 -0.437001 -0.615619 -0.747869 -0.817128 -0.83789 -0.829219 -0.810612 -0.800478 -0.785755 -0.766081 -0.742371 -0.711605 -0.670725 -0.618505 -0.549214 -0.460887 -0.358216 -0.250515 -0.134849 0 0 0.00759258 0.0165803 0.0319304 0.0434838 0.0292901 -0.00403164 -0.0523737 -0.121449 -0.216424 -0.358791 -0.550593 -0.734701 -0.84919 -0.894188 -0.894078 -0.837365 -0.796401 -0.765534 -0.737705 -0.710431 -0.682332 -0.653625 -0.620059 -0.577795 -0.525748 -0.454855 -0.364678 -0.257172 -0.134556 0 0 0.0424404 0.0771591 0.0897729 0.0620693 0.0378717 -0.00907748 -0.0810975 -0.184281 -0.327287 -0.510448 -0.71422 -0.87043 -0.946509 -0.967383 -0.938141 -0.857421 -0.796407 -0.74452 -0.699375 -0.660736 -0.627358 -0.598245 -0.568954 -0.53273 -0.488269 -0.43862 -0.363107 -0.257693 -0.147013 0 0 0.237826 0.199874 0.0882893 0.0890442 0.048736 -0.0236934 -0.134042 -0.294397 -0.502095 -0.731107 -0.919443 -1.02856 -1.07058 -1.07458 -1.01095 -0.904247 -0.810235 -0.729255 -0.662459 -0.610331 -0.569937 -0.537694 -0.505398 -0.466401 -0.424041 -0.376952 -0.321573 -0.266157 -0.13129 0 0 -0.24451 -0.00730825 0.150641 0.132793 0.0729951 -0.0192728 -0.164553 -0.376671 -0.643811 -0.901969 -1.09259 -1.19619 -1.22953 -1.19444 -1.0579 -0.894787 -0.753894 -0.638872 -0.550167 -0.483912 -0.433945 -0.395233 -0.358909 -0.316943 -0.269739 -0.227979 -0.201325 -0.171877 -0.14746 0 0 0 0 0 0 0 0 0 0 0 0 0 0 0 0 0 0 0 0 0 0 0 0 0 0 0 0 0 0 0 0
				</DataArray>
				<DataArray Name="VitesseY" type="Float32" format="ascii">
 0 0 0 0 0 0 0 0 0 0 0 0 0 0 0 0 0 0 0 0 0 0 0 0 0 0 0 0 0 0 0 -0.0174702 0.0826642 0.0197834 -0.0478009 -0.0769834 -0.0630438 -0.019395 0.0488014 0.0770291 0.0691357 0.056758 0.0395844 0.0205489 0.00271946 -0.0149018 -0.0234088 -0.0253065 -0.0249393 -0.0237323 -0.0216501 -0.0189098 -0.0157469 -0.0129676 -0.0107718 -0.00854006 -0.00749559 -0.00781759 -0.00910975 -0.010009 -0.0086798 0 -0.0356903 0.113007 0.051119 -0.0480523 -0.0822426 -0.0864783 -0.0151258 0.0894215 0.127971 0.120866 0.0953947 0.0640186 0.0304234 -0.00549234 -0.0390734 -0.0542057 -0.0558994 -0.0544711 -0.0507391 -0.0450104 -0.0379853 -0.030667 -0.0253685 -0.0214492 -0.0176879 -0.0165421 -0.0175638 -0.0207602 -0.0225364 -0.0191111 0 0.0310648 0.174457 0.0926414 -0.0049381 -0.0485724 -0.0587671 0.0138316 0.0942101 0.136237 0.135276 0.109242 0.0684776 0.0217082 -0.0254026 -0.0711006 -0.0924209 -0.0943245 -0.0908274 -0.0831741 -0.0719711 -0.0582347 -0.0462073 -0.0382489 -0.033115 -0.0289291 -0.0290234 -0.0313455 -0.0372509 -0.0399214 -0.0332714 0 0.170072 0.275008 0.1446 0.0454802 0.00193456 -0.00727874 0.0476111 0.0957612 0.125041 0.13256 0.102918 0.0559682 0.00216422 -0.0510837 -0.102966 -0.131898 -0.136802 -0.132705 -0.121306 -0.103723 -0.0823873 -0.0652592 -0.0542822 -0.0480366 -0.0449756 -0.0467253 -0.0519404 -0.0620191 -0.065994 -0.0549061 0 0.342492 0.386452 0.208511 0.0994214 0.0529319 0.0422699 0.0723449 0.101469 0.119015 0.123233 0.0906519 0.0385115 -0.0188294 -0.0757123 -0.128586 -0.166724 -0.177139 -0.173712 -0.160823 -0.138912 -0.11183 -0.0896048 -0.0756912 -0.068279 -0.0678829 -0.0717755 -0.0822015 -0.100145 -0.107934 -0.0922401 0 0.497977 0.500878 0.278329 0.146145 0.0881084 0.0778548 0.103339 0.11777 0.125843 0.114516 0.0772312 0.0222227 -0.0386549 -0.0980479 -0.149679 -0.193613 -0.21175 -0.209411 -0.196716 -0.173131 -0.143473 -0.118442 -0.102245 -0.0953191 -0.0967456 -0.104435 -0.124432 -0.157799 -0.177609 -0.1617 0 0.607292 0.604158 0.345988 0.177184 0.100315 0.0993908 0.137003 0.15313 0.147677 0.117369 0.0697683 0.00825332 -0.0554255 -0.117166 -0.169762 -0.214381 -0.240939 -0.241089 -0.229592 -0.205579 -0.173983 -0.14853 -0.132658 -0.127468 -0.129285 -0.142824 -0.179144 -0.239303 -0.289289 -0.287238 0 0.668374 0.652537 0.412633 0.194414 0.112709 0.115154 0.155011 0.194623 0.185372 0.141469 0.0749322 0.00252082 -0.0693691 -0.134261 -0.190504 -0.236105 -0.26987 -0.276781 -0.266739 -0.243124 -0.208794 -0.181158 -0.167041 -0.162386 -0.167306 -0.190427 -0.246901 -0.343791 -0.449062 -0.485205 0 0.669234 0.64047 0.447964 0.224488 0.141694 0.142166 0.170988 0.217647 0.222782 0.178673 0.100499 0.00962169 -0.0761182 -0.151106 -0.215443 -0.265897 -0.305945 -0.323429 -0.317145 -0.297091 -0.263364 -0.23187 -0.215298 -0.212097 -0.220607 -0.255956 -0.336505 -0.470218 -0.643323 -0.741247 0 0.632042 0.597721 0.448886 0.266752 0.183731 0.181706 0.202001 0.235878 0.245601 0.210347 0.130301 0.0283755 -0.0742694 -0.16523 -0.242195 -0.3026 -0.346411 -0.375028 -0.37741 -0.364445 -0.337049 -0.305229 -0.288342 -0.287434 -0.305674 -0.359689 -0.463727 -0.625013 -0.842504 -0.994719 0 0.59253 0.549133 0.443082 0.303533 0.231015 0.228627 0.24259 0.26512 0.267017 0.230402 0.152343 0.0473887 -0.0648642 -0.172516 -0.266827 -0.346222 -0.404857 -0.442683 -0.458465 -0.453049 -0.436042 -0.410798 -0.398633 -0.405436 -0.440115 -0.516073 -0.637177 -0.800256 -1.0039 -1.17853 0 0.551186 0.513883 0.439361 0.337129 0.281859 0.280184 0.292489 0.302987 0.294405 0.251169 0.170032 0.062391 -0.0542305 -0.173036 -0.289149 -0.391264 -0.473079 -0.525544 -0.551989 -0.555433 -0.546809 -0.533146 -0.531234 -0.548329 -0.597749 -0.688003 -0.805685 -0.935039 -1.09143 -1.26751 0 0.51945 0.49758 0.44331 0.373162 0.33753 0.3381 0.348028 0.349081 0.327766 0.275388 0.187425 0.0761849 -0.0449909 -0.174001 -0.305374 -0.429017 -0.531896 -0.603685 -0.640592 -0.651881 -0.647743 -0.641704 -0.646197 -0.671559 -0.723602 -0.806889 -0.90324 -0.992054 -1.11537 -1.28545 0 0.511355 0.499564 0.460829 0.418687 0.399777 0.400844 0.406126 0.396117 0.365108 0.303942 0.210031 0.0937899 -0.0343555 -0.173177 -0.315541 -0.453994 -0.574153 -0.662395 -0.713328 -0.731935 -0.732221 -0.727977 -0.731834 -0.755206 -0.798155 -0.860395 -0.932147 -0.999666 -1.10069 -1.22158 0 0.528449 0.521165 0.498091 0.478169 0.470516 0.468489 0.460211 0.437977 0.399538 0.335759 0.241489 0.120266 -0.0154123 -0.16204 -0.314604 -0.465026 -0.599395 -0.700987 -0.762598 -0.787591 -0.790952 -0.788108 -0.789428 -0.799025 -0.826075 -0.870214 -0.91533 -0.94741 -1.019 -1.06984 0 0.567739 0.565795 0.558618 0.555527 0.550802 0.535926 0.50686 0.470512 0.425883 0.364905 0.278714 0.159607 0.0164074 -0.135647 -0.295871 -0.459486 -0.608823 -0.720734 -0.788171 -0.822139 -0.837371 -0.845477 -0.846386 -0.833939 -0.832536 -0.835035 -0.837049 -0.854173 -0.902313 -0.896253 0 0.627139 0.630835 0.639676 0.647332 0.635543 0.596954 0.548523 0.499005 0.448189 0.389444 0.313558 0.205914 0.0644063 -0.0939638 -0.260242 -0.439407 -0.604366 -0.727776 -0.80633 -0.860639 -0.900625 -0.918535 -0.919381 -0.873179 -0.835904 -0.802785 -0.786078 -0.785252 -0.80124 -0.748662 0 0.700738 0.710147 0.731559 0.743092 0.714676 0.654811 0.588895 0.527937 0.47183 0.41501 0.346657 0.252358 0.12091 -0.0372388 -0.212868 -0.41007 -0.595107 -0.735182 -0.837327 -0.914446 -0.965769 -0.98781 -0.975369 -0.900113 -0.838448 -0.786232 -0.751121 -0.731216 -0.718396 -0.630977 0 0.78539 0.797086 0.82547 0.832589 0.789881 0.710526 0.628981 0.557264 0.497 0.441364 0.380521 0.298543 0.179078 0.0255082 -0.157882 -0.378166 -0.588762 -0.752853 -0.87419 -0.96077 -1.01383 -1.0355 -0.998615 -0.9078 -0.833123 -0.770992 -0.724083 -0.687148 -0.652103 -0.541958 0 0.879235 0.889198 0.914119 0.915243 0.860792 0.764797 0.66859 0.58614 0.521048 0.467867 0.413723 0.342731 0.235707 0.0865607 -0.104223 -0.347969 -0.58627 -0.769378 -0.898638 -0.984136 -1.03467 -1.04918 -0.988981 -0.898862 -0.820009 -0.754178 -0.699524 -0.651106 -0.601871 -0.477007 0 0.982999 0.982661 0.995679 0.987738 0.923404 0.816245 0.70849 0.615618 0.545624 0.494285 0.446512 0.384396 0.285905 0.140013 -0.0587562 -0.323839 -0.582451 -0.774648 -0.902853 -0.980958 -1.01359 -1.01386 -0.95573 -0.874432 -0.799618 -0.733321 -0.674523 -0.620321 -0.563519 -0.428534 0 1.0958 1.07672 1.06634 1.04552 0.973439 0.862277 0.751171 0.650387 0.573505 0.521203 0.478166 0.422393 0.326888 0.17817 -0.0301854 -0.309337 -0.569593 -0.75934 -0.878409 -0.932944 -0.946579 -0.940125 -0.894617 -0.833359 -0.766759 -0.705465 -0.647839 -0.592862 -0.532882 -0.39116 0 1.21378 1.16762 1.12323 1.08703 1.00864 0.902054 0.799251 0.69659 0.611852 0.554808 0.509158 0.449247 0.349813 0.194403 -0.0264948 -0.306616 -0.550424 -0.721661 -0.814154 -0.847316 -0.852695 -0.837425 -0.80949 -0.768415 -0.719059 -0.667103 -0.616681 -0.56564 -0.502468 -0.356338 0 1.32201 1.2583 1.16613 1.11284 1.03383 0.939297 0.850816 0.755021 0.66409 0.594055 0.533172 0.457597 0.344892 0.17982 -0.0486031 -0.310841 -0.522877 -0.653259 -0.71332 -0.73223 -0.732265 -0.720219 -0.701154 -0.680522 -0.652058 -0.616488 -0.576087 -0.531065 -0.464803 -0.315502 0 1.41835 1.33835 1.19576 1.12736 1.05621 0.979288 0.908092 0.825561 0.722802 0.627266 0.538403 0.440346 0.309214 0.132153 -0.0893709 -0.305104 -0.462917 -0.553052 -0.595738 -0.607057 -0.605996 -0.596449 -0.58337 -0.573618 -0.565237 -0.548563 -0.52485 -0.4875 -0.423295 -0.268946 0 1.44325 1.36213 1.20885 1.13958 1.0877 1.03445 0.974507 0.890929 0.771825 0.64108 0.517084 0.388281 0.237953 0.0636194 -0.118676 -0.271728 -0.376398 -0.439739 -0.470209 -0.478241 -0.477216 -0.470028 -0.461963 -0.458632 -0.459155 -0.460583 -0.454612 -0.438284 -0.376706 -0.227658 0 1.37287 1.29858 1.17064 1.1315 1.10181 1.06075 1.00922 0.925414 0.788274 0.62221 0.458614 0.300892 0.148911 0.00390651 -0.122209 -0.215159 -0.280699 -0.325658 -0.347367 -0.352796 -0.350914 -0.344741 -0.341271 -0.342117 -0.347833 -0.358153 -0.364617 -0.363114 -0.321542 -0.201305 0 0.987135 1.09564 1.11674 1.06974 1.01423 0.998916 0.955167 0.877318 0.738103 0.55353 0.367564 0.204804 0.0768417 -0.0245081 -0.100845 -0.156222 -0.198372 -0.225848 -0.236496 -0.236875 -0.231276 -0.225857 -0.225179 -0.229575 -0.238887 -0.250657 -0.257199 -0.257692 -0.266207 -0.171961 0 0.938739 0.612665 0.860874 0.66192 0.697006 0.69395 0.673091 0.635551 0.545451 0.416968 0.278176 0.160598 0.0613299 -0.0233151 -0.090839 -0.134112 -0.151527 -0.151655 -0.14374 -0.133252 -0.124189 -0.119491 -0.119278 -0.12451 -0.13288 -0.134968 -0.134597 -0.147058 -0.131306 -0.147514 0 5.57016 0 0 0 0 0 0 0 0 0 0 0 0 0 0 0 0 0 0 0 0 0 0 0 0 0 0 0 0 0 0
				</DataArray>
			</PointData>
			<CellData Scalars="Density">
				<DataArray Name="Density" type="Float32" format="ascii">