<?xml version="1.0"?>
<VTKFile type="PolyData">
	<PolyData>
		<Piece NumberOfPoints="961" NumberOfPolys="900">
			<Points>
				<DataArray type="Float32" NumberOfComponents="3" format="ascii">
 0 0 0 0.04 0 0 0.08 0 0 0.12 0 0 0.16 0 0 0.2 0 0 0.24 0 0 0.28 0 0 0.32 0 0 0.36 0 0 0.4 0 0 0.44 0 0 0.48 0 0 0.52 0 0 0.56 0 0 0.6 0 0 0.64 0 0 0.68 0 0 0.72 0 0 0.76 0 0 0.8 0 0 0.84 0 0 0.88 0 0 0.92 0 0 0.96 0 0 1 0 0 1.04 0 0 1.08 0 0 1.12 0 0 1.16 0 0 1.2 0 0 0 0.04 0 0.04 0.04 0 0.08 0.04 0 0.12 0.04 0 0.16 0.04 0 0.2 0.04 0 0.24 0.04 0 0.28 0.04 0 0.32 0.04 0 0.36 0.04 0 0.4 0.04 0 0.44 0.04 0 0.48 0.04 0 0.52 0.04 0 0.56 0.04 0 0.6 0.04 0 0.64 0.04 0 0.68 0.04 0 0.72 0.04 0 0.76 0.04 0 0.8 0.04 0 0.84 0.04 0 0.88 0.04 0 0.92 0.04 0 0.96 0.04 0 1 0.04 0 1.04 0.04 0 1.08 0.04 0 1.12 0.04 0 1.16 0.04 0 1.2 0.04 0 0 0.08 0 0.04 0.08 0 0.08 0.08 0 0.12 0.08 0 0.16 0.08 0 0.2 0.08 0 0.24 0.08 0 0.28 0.08 0 0.32 0.08 0 0.36 0.08 0 0.4 0.08 0 0.44 0.08 0 0.48 0.08 0 0.52 0.08 0 0.56 0.08 0 0.6 0.08 0 0.64 0.08 0 0.68 0.08 0 0.72 0.08 0 0.76 0.08 0 0.8 0.08 0 0.84 0.08 0 0.88 0.08 0 0.92 0.08 0 0.96 0.08 0 1 0.08 0 1.04 0.08 0 1.08 0.08 0 1.12 0.08 0 1.16 0.08 0 1.2 0.08 0 0 0.12 0 0.04 0.12 0 0.08 0.12 0 0.12 0.12 0 0.16 0.12 0 0.2 0.12 0 0.24 0.12 0 0.28 0.12 0 0.32 0.12 0 0.36 0.12 0 0.4 0.12 0 0.44 0.12 0 0.48 0.12 0 0.52 0.12 0 0.56 0.12 0 0.6 0.12 0 0.64 0.12 0 0.68 0.12 0 0.72 0.12 0 0.76 0.12 0 0.8 0.12 0 0.84 0.12 0 0.88 0.12 0 0.92 0.12 0 0.96 0.12 0 1 0.12 0 1.04 0.12 0 1.08 0.12 0 1.12 0.12 0 1.16 0.12 0 1.2 0.12 0 0 0.16 0 0.04 0.16 0 0.08 0.16 0 0.12 0.16 0 0.16 0.16 0 0.2 0.16 0 0.24 0.16 0 0.28 0.16 0 0.32 0.16 0 0.36 0.16 0 0.4 0.16 0 0.44 0.16 0 0.48 0.16 0 0.52 0.16 0 0.56 0.16 0 0.6 0.16 0 0.64 0.16 0 0.68 0.16 0 0.72 0.16 0 0.76 0.16 0 0.8 0.16 0 0.84 0.16 0 0.88 0.16 0 0.92 0.16 0 0.96 0.16 0 1 0.16 0 1.04 0.16 0 1.08 0.16 0 1.12 0.16 0 1.16 0.16 0 1.2 0.16 0 0 0.2 0 0.04 0.2 0 0.08 0.2 0 0.12 0.2 0 0.16 0.2 0 0.2 0.2 0 0.24 0.2 0 0.28 0.2 0 0.32 0.2 0 0.36 0.2 0 0.4 0.2 0 0.44 0.2 0 0.48 0.2 0 0.52 0.2 0 0.56 0.2 0 0.6 0.2 0 0.64 0.2 0 0.68 0.2 0 0.72 0.2 0 0.76 0.2 0 0.8 0.2 0 0.84 0.2 0 0.88 0.2 0 0.92 0.2 0 0.96 0.2 0 1 0.2 0 1.04 0.2 0 1.08 0.2 0 1.12 0.2 0 1.16 0.2 0 1.2 0.2 0 0 0.24 0 0.04 0.24 0 0.08 0.24 0 0.12 0.24 0 0.16 0.24 0 0.2 0.24 0 0.24 0.24 0 0.28 0.24 0 0.32 0.24 0 0.36 0.24 0 0.4 0.24 0 0.44 0.24 0 0.48 0.24 0 0.52 0.24 0 0.56 0.24 0 0.6 0.24 0 0.64 0.24 0 0.68 0.24 0 0.72 0.24 0 0.76 0.24 0 0.8 0.24 0 0.84 0.24 0 0.88 0.24 0 0.92 0.24 0 0.96 0.24 0 1 0.24 0 1.04 0.24 0 1.08 0.24 0 1.12 0.24 0 1.16 0.24 0 1.2 0.24 0 0 0.28 0 0.04 0.28 0 0.08 0.28 0 0.12 0.28 0 0.16 0.28 0 0.2 0.28 0 0.24 0.28 0 0.28 0.28 0 0.32 0.28 0 0.36 0.28 0 0.4 0.28 0 0.44 0.28 0 0.48 0.28 0 0.52 0.28 0 0.56 0.28 0 0.6 0.28 0 0.64 0.28 0 0.68 0.28 0 0.72 0.28 0 0.76 0.28 0 0.8 0.28 0 0.84 0.28 0 0.88 0.28 0 0.92 0.28 0 0.96 0.28 0 1 0.28 0 1.04 0.28 0 1.08 0.28 0 1.12 0.28 0 1.16 0.28 0 1.2 0.28 0 0 0.32 0 0.04 0.32 0 0.08 0.32 0 0.12 0.32 0 0.16 0.32 0 0.2 0.32 0 0.24 0.32 0 0.28 0.32 0 0.32 0.32 0 0.36 0.32 0 0.4 0.32 0 0.44 0.32 0 0.48 0.32 0 0.52 0.32 0 0.56 0.32 0 0.6 0.32 0 0.64 0.32 0 0.68 0.32 0 0.72 0.32 0 0.76 0.32 0 0.8 0.32 0 0.84 0.32 0 0.88 0.32 0 0.92 0.32 0 0.96 0.32 0 1 0.32 0 1.04 0.32 0 1.08 0.32 0 1.12 0.32 0 1.16 0.32 0 1.2 0.32 0 0 0.36 0 0.04 0.36 0 0.08 0.36 0 0.12 0.36 0 0.16 0.36 0 0.2 0.36 0 0.24 0.36 0 0.28 0.36 0 0.32 0.36 0 0.36 0.36 0 0.4 0.36 0 0.44 0.36 0 0.48 0.36 0 0.52 0.36 0 0.56 0.36 0 0.6 0.36 0 0.64 0.36 0 0.68 0.36 0 0.72 0.36 0 0.76 0.36 0 0.8 0.36 0 0.84 0.36 0 0.88 0.36 0 0.92 0.36 0 0.96 0.36 0 1 0.36 0 1.04 0.36 0 1.08 0.36 0 1.12 0.36 0 1.16 0.36 0 1.2 0.36 0 0 0.4 0 0.04 0.4 0 0.08 0.4 0 0.12 0.4 0 0.16 0.4 0 0.2 0.4 0 0.24 0.4 0 0.28 0.4 0 0.32 0.4 0 0.36 0.4 0 0.4 0.4 0 0.44 0.4 0 0.48 0.4 0 0.52 0.4 0 0.56 0.4 0 0.6 0.4 0 0.64 0.4 0 0.68 0.4 0 0.72 0.4 0 0.76 0.4 0 0.8 0.4 0 0.84 0.4 0 0.88 0.4 0 0.92 0.4 0 0.96 0.4 0 1 0.4 0 1.04 0.4 0 1.08 0.4 0 1.12 0.4 0 1.16 0.4 0 1.2 0.4 0 0 0.44 0 0.04 0.44 0 0.08 0.44 0 0.12 0.44 0 0.16 0.44 0 0.2 0.44 0 0.24 0.44 0 0.28 0.44 0 0.32 0.44 0 0.36 0.44 0 0.4 0.44 0 0.44 0.44 0 0.48 0.44 0 0.52 0.44 0 0.56 0.44 0 0.6 0.44 0 0.64 0.44 0 0.68 0.44 0 0.72 0.44 0 0.76 0.44 0 0.8 0.44 0 0.84 0.44 0 0.88 0.44 0 0.92 0.44 0 0.96 0.44 0 1 0.44 0 1.04 0.44 0 1.08 0.44 0 1.12 0.44 0 1.16 0.44 0 1.2 0.44 0 0 0.48 0 0.04 0.48 0 0.08 0.48 0 0.12 0.48 0 0.16 0.48 0 0.2 0.48 0 0.24 0.48 0 0.28 0.48 0 0.32 0.48 0 0.36 0.48 0 0.4 0.48 0 0.44 0.48 0 0.48 0.48 0 0.52 0.48 0 0.56 0.48 0 0.6 0.48 0 0.64 0.48 0 0.68 0.48 0 0.72 0.48 0 0.76 0.48 0 0.8 0.48 0 0.84 0.48 0 0.88 0.48 0 0.92 0.48 0 0.96 0.48 0 1 0.48 0 1.04 0.48 0 1.08 0.48 0 1.12 0.48 0 1.16 0.48 0 1.2 0.48 0 0 0.52 0 0.04 0.52 0 0.08 0.52 0 0.12 0.52 0 0.16 0.52 0 0.2 0.52 0 0.24 0.52 0 0.28 0.52 0 0.32 0.52 0 0.36 0.52 0 0.4 0.52 0 0.44 0.52 0 0.48 0.52 0 0.52 0.52 0 0.56 0.52 0 0.6 0.52 0 0.64 0.52 0 0.68 0.52 0 0.72 0.52 0 0.76 0.52 0 0.8 0.52 0 0.84 0.52 0 0.88 0.52 0 0.92 0.52 0 0.96 0.52 0 1 0.52 0 1.04 0.52 0 1.08 0.52 0 1.12 0.52 0 1.16 0.52 0 1.2 0.52 0 0 0.56 0 0.04 0.56 0 0.08 0.56 0 0.12 0.56 0 0.16 0.56 0 0.2 0.56 0 0.24 0.56 0 0.28 0.56 0 0.32 0.56 0 0.36 0.56 0 0.4 0.56 0 0.44 0.56 0 0.48 0.56 0 0.52 0.56 0 0.56 0.56 0 0.6 0.56 0 0.64 0.56 0 0.68 0.56 0 0.72 0.56 0 0.76 0.56 0 0.8 0.56 0 0.84 0.56 0 0.88 0.56 0 0.92 0.56 0 0.96 0.56 0 1 0.56 0 1.04 0.56 0 1.08 0.56 0 1.12 0.56 0 1.16 0.56 0 1.2 0.56 0 0 0.6 0 0.04 0.6 0 0.08 0.6 0 0.12 0.6 0 0.16 0.6 0 0.2 0.6 0 0.24 0.6 0 0.28 0.6 0 0.32 0.6 0 0.36 0.6 0 0.4 0.6 0 0.44 0.6 0 0.48 0.6 0 0.52 0.6 0 0.56 0.6 0 0.6 0.6 0 0.64 0.6 0 0.68 0.6 0 0.72 0.6 0 0.76 0.6 0 0.8 0.6 0 0.84 0.6 0 0.88 0.6 0 0.92 0.6 0 0.96 0.6 0 1 0.6 0 1.04 0.6 0 1.08 0.6 0 1.12 0.6 0 1.16 0.6 0 1.2 0.6 0 0 0.64 0 0.04 0.64 0 0.08 0.64 0 0.12 0.64 0 0.16 0.64 0 0.2 0.64 0 0.24 0.64 0 0.28 0.64 0 0.32 0.64 0 0.36 0.64 0 0.4 0.64 0 0.44 0.64 0 0.48 0.64 0 0.52 0.64 0 0.56 0.64 0 0.6 0.64 0 0.64 0.64 0 0.68 0.64 0 0.72 0.64 0 0.76 0.64 0 0.8 0.64 0 0.84 0.64 0 0.88 0.64 0 0.92 0.64 0 0.96 0.64 0 1 0.64 0 1.04 0.64 0 1.08 0.64 0 1.12 0.64 0 1.16 0.64 0 1.2 0.64 0 0 0.68 0 0.04 0.68 0 0.08 0.68 0 0.12 0.68 0 0.16 0.68 0 0.2 0.68 0 0.24 0.68 0 0.28 0.68 0 0.32 0.68 0 0.36 0.68 0 0.4 0.68 0 0.44 0.68 0 0.48 0.68 0 0.52 0.68 0 0.56 0.68 0 0.6 0.68 0 0.64 0.68 0 0.68 0.68 0 0.72 0.68 0 0.76 0.68 0 0.8 0.68 0 0.84 0.68 0 0.88 0.68 0 0.92 0.68 0 0.96 0.68 0 1 0.68 0 1.04 0.68 0 1.08 0.68 0 1.12 0.68 0 1.16 0.68 0 1.2 0.68 0 0 0.72 0 0.04 0.72 0 0.08 0.72 0 0.12 0.72 0 0.16 0.72 0 0.2 0.72 0 0.24 0.72 0 0.28 0.72 0 0.32 0.72 0 0.36 0.72 0 0.4 0.72 0 0.44 0.72 0 0.48 0.72 0 0.52 0.72 0 0.56 0.72 0 0.6 0.72 0 0.64 0.72 0 0.68 0.72 0 0.72 0.72 0 0.76 0.72 0 0.8 0.72 0 0.84 0.72 0 0.88 0.72 0 0.92 0.72 0 0.96 0.72 0 1 0.72 0 1.04 0.72 0 1.08 0.72 0 1.12 0.72 0 1.16 0.72 0 1.2 0.72 0 0 0.76 0 0.04 0.76 0 0.08 0.76 0 0.12 0.76 0 0.16 0.76 0 0.2 0.76 0 0.24 0.76 0 0.28 0.76 0 0.32 0.76 0 0.36 0.76 0 0.4 0.76 0 0.44 0.76 0 0.48 0.76 0 0.52 0.76 0 0.56 0.76 0 0.6 0.76 0 0.64 0.76 0 0.68 0.76 0 0.72 0.76 0 0.76 0.76 0 0.8 0.76 0 0.84 0.76 0 0.88 0.76 0 0.92 0.76 0 0.96 0.76 0 1 0.76 0 1.04 0.76 0 1.08 0.76 0 1.12 0.76 0 1.16 0.76 0 1.2 0.76 0 0 0.8 0 0.04 0.8 0 0.08 0.8 0 0.12 0.8 0 0.16 0.8 0 0.2 0.8 0 0.24 0.8 0 0.28 0.8 0 0.32 0.8 0 0.36 0.8 0 0.4 0.8 0 0.44 0.8 0 0.48 0.8 0 0.52 0.8 0 0.56 0.8 0 0.6 0.8 0 0.64 0.8 0 0.68 0.8 0 0.72 0.8 0 0.76 0.8 0 0.8 0.8 0 0.84 0.8 0 0.88 0.8 0 0.92 0.8 0 0.96 0.8 0 1 0.8 0 1.04 0.8 0 1.08 0.8 0 1.12 0.8 0 1.16 0.8 0 1.2 0.8 0 0 0.84 0 0.04 0.84 0 0.08 0.84 0 0.12 0.84 0 0.16 0.84 0 0.2 0.84 0 0.24 0.84 0 0.28 0.84 0 0.32 0.84 0 0.36 0.84 0 0.4 0.84 0 0.44 0.84 0 0.48 0.84 0 0.52 0.84 0 0.56 0.84 0 0.6 0.84 0 0.64 0.84 0 0.68 0.84 0 0.72 0.84 0 0.76 0.84 0 0.8 0.84 0 0.84 0.84 0 0.88 0.84 0 0.92 0.84 0 0.96 0.84 0 1 0.84 0 1.04 0.84 0 1.08 0.84 0 1.12 0.84 0 1.16 0.84 0 1.2 0.84 0 0 0.88 0 0.04 0.88 0 0.08 0.88 0 0.12 0.88 0 0.16 0.88 0 0.2 0.88 0 0.24 0.88 0 0.28 0.88 0 0.32 0.88 0 0.36 0.88 0 0.4 0.88 0 0.44 0.88 0 0.48 0.88 0 0.52 0.88 0 0.56 0.88 0 0.6 0.88 0 0.64 0.88 0 0.68 0.88 0 0.72 0.88 0 0.76 0.88 0 0.8 0.88 0 0.84 0.88 0 0.88 0.88 0 0.92 0.88 0 0.96 0.88 0 1 0.88 0 1.04 0.88 0 1.08 0.88 0 1.12 0.88 0 1.16 0.88 0 1.2 0.88 0 0 0.92 0 0.04 0.92 0 0.08 0.92 0 0.12 0.92 0 0.16 0.92 0 0.2 0.92 0 0.24 0.92 0 0.28 0.92 0 0.32 0.92 0 0.36 0.92 0 0.4 0.92 0 0.44 0.92 0 0.48 0.92 0 0.52 0.92 0 0.56 0.92 0 0.6 0.92 0 0.64 0.92 0 0.68 0.92 0 0.72 0.92 0 0.76 0.92 0 0.8 0.92 0 0.84 0.92 0 0.88 0.92 0 0.92 0.92 0 0.96 0.92 0 1 0.92 0 1.04 0.92 0 1.08 0.92 0 1.12 0.92 0 1.16 0.92 0 1.2 0.92 0 0 0.96 0 0.04 0.96 0 0.08 0.96 0 0.12 0.96 0 0.16 0.96 0 0.2 0.96 0 0.24 0.96 0 0.28 0.96 0 0.32 0.96 0 0.36 0.96 0 0.4 0.96 0 0.44 0.96 0 0.48 0.96 0 0.52 0.96 0 0.56 0.96 0 0.6 0.96 0 0.64 0.96 0 0.68 0.96 0 0.72 0.96 0 0.76 0.96 0 0.8 0.96 0 0.84 0.96 0 0.88 0.96 0 0.92 0.96 0 0.96 0.96 0 1 0.96 0 1.04 0.96 0 1.08 0.96 0 1.12 0.96 0 1.16 0.96 0 1.2 0.96 0 0 1 0 0.04 1 0 0.08 1 0 0.12 1 0 0.16 1 0 0.2 1 0 0.24 1 0 0.28 1 0 0.32 1 0 0.36 1 0 0.4 1 0 0.44 1 0 0.48 1 0 0.52 1 0 0.56 1 0 0.6 1 0 0.64 1 0 0.68 1 0 0.72 1 0 0.76 1 0 0.8 1 0 0.84 1 0 0.88 1 0 0.92 1 0 0.96 1 0 1 1 0 1.04 1 0 1.08 1 0 1.12 1 0 1.16 1 0 1.2 1 0 0 1.04 0 0.04 1.04 0 0.08 1.04 0 0.12 1.04 0 0.16 1.04 0 0.2 1.04 0 0.24 1.04 0 0.28 1.04 0 0.32 1.04 0 0.36 1.04 0 0.4 1.04 0 0.44 1.04 0 0.48 1.04 0 0.52 1.04 0 0.56 1.04 0 0.6 1.04 0 0.64 1.04 0 0.68 1.04 0 0.72 1.04 0 0.76 1.04 0 0.8 1.04 0 0.84 1.04 0 0.88 1.04 0 0.92 1.04 0 0.96 1.04 0 1 1.04 0 1.04 1.04 0 1.08 1.04 0 1.12 1.04 0 1.16 1.04 0 1.2 1.04 0 0 1.08 0 0.04 1.08 0 0.08 1.08 0 0.12 1.08 0 0.16 1.08 0 0.2 1.08 0 0.24 1.08 0 0.28 1.08 0 0.32 1.08 0 0.36 1.08 0 0.4 1.08 0 0.44 1.08 0 0.48 1.08 0 0.52 1.08 0 0.56 1.08 0 0.6 1.08 0 0.64 1.08 0 0.68 1.08 0 0.72 1.08 0 0.76 1.08 0 0.8 1.08 0 0.84 1.08 0 0.88 1.08 0 0.92 1.08 0 0.96 1.08 0 1 1.08 0 1.04 1.08 0 1.08 1.08 0 1.12 1.08 0 1.16 1.08 0 1.2 1.08 0 0 1.12 0 
[...]
			<PointData Scalars="VitesseX">
				<DataArray Name="VitesseX" type="Float32" format="ascii">
 0 -0.0434758 -0.126533 -0.149419 -0.126066 -0.0644375 0.0100027 0.0939483 0.171114 0.236631 0.292261 0.339289 0.375282 0.37641 0.305945 0.163859 -0.0912454 -0.472428 -0.923581 -1.33187 -1.61479 -1.74585 -1.73799 -1.60065 -1.38791 -1.14914 -0.908894 -0.682065 -0.469557 -0.249207 0 0 0.117635 0.108475 0.0607418 0.0459068 0.0710565 0.121706 0.174765 0.227299 0.278363 0.325123 0.365628 0.396309 0.394145 0.321841 0.17978 -0.0727823 -0.450487 -0.899997 -1.31026 -1.59761 -1.73358 -1.73055 -1.59736 -1.38648 -1.14845 -0.90851 -0.681929 -0.469918 -0.249911 0 0 0.11879 0.191878 0.21936 0.230424 0.227813 0.242727 0.264769 0.292656 0.322507 0.353748 0.383625 0.40786 0.405433 0.337116 0.203738 -0.0334122 -0.394153 -0.834335 -1.24796 -1.54679 -1.6969 -1.70773 -1.58699 -1.38196 -1.14626 -0.906802 -0.680367 -0.469183 -0.250745 0 0 0.0946008 0.158242 0.216314 0.243925 0.250923 0.269018 0.289437 0.31375 0.338623 0.364314 0.390076 0.413061 0.415983 0.358339 0.239991 0.0277622 -0.305265 -0.729324 -1.14821 -1.46604 -1.6393 -1.67252 -1.57222 -1.37705 -1.14488 -0.905763 -0.67871 -0.467805 -0.251536 0 0 0.0467725 0.10872 0.182226 0.218462 0.241317 0.265695 0.287018 0.313033 0.341249 0.370106 0.397109 0.420369 0.429074 0.387518 0.287158 0.105895 -0.189942 -0.588978 -1.01157 -1.35456 -1.56006 -1.62356 -1.55228 -1.37235 -1.14527 -0.906326 -0.677804 -0.466369 -0.252294 0 0 0.0113112 0.0558408 0.121688 0.177331 0.216025 0.25267 0.275943 0.305969 0.336256 0.367252 0.397697 0.425345 0.441905 0.421198 0.341325 0.19418 -0.0562008 -0.418984 -0.837703 -1.20839 -1.45533 -1.55612 -1.52295 -1.36627 -1.14698 -0.908708 -0.67787 -0.465017 -0.253031 0 0 0.000508398 0.0355403 0.0809813 0.137069 0.179077 0.226449 0.255924 0.291802 0.326136 0.360685 0.394072 0.424917 0.449002 0.450458 0.397192 0.285691 0.0862075 -0.227497 -0.62816 -1.02299 -1.31737 -1.4661 -1.47755 -1.35554 -1.14896 -0.91287 -0.679055 -0.463729 -0.253614 0 0 0.00211885 0.0351238 0.0760014 0.126003 0.165009 0.207659 0.239315 0.276964 0.313241 0.35053 0.387514 0.422326 0.452263 0.470311 0.449143 0.372758 0.225446 -0.0270329 -0.389833 -0.796267 -1.13884 -1.34691 -1.40931 -1.33479 -1.1493 -0.918521 -0.681583 -0.462591 -0.2539 0 0 0.00786545 0.0380766 0.0801967 0.125455 0.165972 0.204795 0.238489 0.274191 0.309165 0.345401 0.382539 0.419493 0.454026 0.482167 0.490197 0.44913 0.350128 0.16363 -0.138341 -0.531614 -0.915373 -1.19002 -1.31222 -1.29579 -1.14526 -0.924792 -0.685778 -0.461877 -0.25373 0 0 0.0150207 0.0449153 0.086595 0.129625 0.17029 0.207375 0.241595 0.275527 0.310006 0.345721 0.382414 0.419547 0.455943 0.489509 0.514756 0.510096 0.453321 0.328714 0.101239 -0.243369 -0.646096 -0.985745 -1.18228 -1.2284 -1.13113 -0.930143 -0.692058 -0.462067 -0.252965 0 0 0.0220309 0.0539837 0.0948539 0.136846 0.176983 0.213611 0.247815 0.280716 0.314357 0.348957 0.384709 0.421469 0.458531 0.494624 0.527271 0.548348 0.53206 0.459819 0.306341 0.03745 -0.34017 -0.730118 -1.00931 -1.12633 -1.09719 -0.931422 -0.700706 -0.463934 -0.251599 0 0 0.0273039 0.0618566 0.102118 0.14401 0.184355 0.221787 0.256667 0.289312 0.322002 0.355421 0.389913 0.425705 0.462339 0.499013 0.534596 0.566098 0.582227 0.55512 0.465504 0.279767 -0.0294373 -0.426986 -0.782325 -0.987292 -1.03058 -0.922934 -0.710518 -0.468466 -0.249927 0 0 0.0312262 0.0675279 0.107325 0.148488 0.189367 0.227901 0.264196 0.298071 0.330739 0.363532 0.396954 0.431501 0.46713 0.503299 0.539393 0.574326 0.604639 0.615328 0.577134 0.466736 0.244941 -0.10159 -0.500199 -0.800081 -0.924865 -0.893047 -0.71769 -0.476698 -0.248734 0 0 0.0342874 0.0721233 0.111654 0.152078 0.192651 0.231788 0.268622 0.303379 0.336687 0.369477 0.402516 0.436414 0.471281 0.506812 0.542654 0.578385 0.612854 0.642004 0.646568 0.595615 0.459263 0.197984 -0.178594 -0.554183 -0.778965 -0.826998 -0.714854 -0.488909 -0.249336 0 0 0.0380305 0.0781853 0.118557 0.158061 0.19753 0.235968 0.272239 0.306634 0.339951 0.372787 0.405739 0.43935 0.473835 0.509007 0.544579 0.580346 0.615962 0.65014 0.677873 0.674919 0.60761 0.43884 0.136888 -0.255834 -0.580917 -0.71918 -0.689157 -0.501019 -0.25366 0 0 0.0437432 0.0885913 0.132055 0.173409 0.21259 0.249259 0.281527 0.31222 0.343335 0.37488 0.407271 0.440596 0.474863 0.509839 0.545273 0.580995 0.61686 0.652527 0.686494 0.712211 0.699082 0.609804 0.401563 0.061531 -0.322978 -0.56962 -0.62444 -0.504611 -0.262623 0 0 0.0523353 0.104513 0.154108 0.199482 0.240499 0.276132 0.305868 0.331123 0.354224 0.379473 0.40909 0.441165 0.474916 0.509706 0.545097 0.580843 0.616802 0.652839 0.688616 0.72247 0.744994 0.717145 0.597967 0.344378 -0.023958 -0.366108 -0.516421 -0.485693 -0.27441 0 0 0.0642909 0.12734 0.185453 0.237548 0.281934 0.318829 0.347485 0.36854 0.383559 0.398113 0.416109 0.442709 0.474469 0.508622 0.543918 0.579776 0.615937 0.652255 0.688617 0.724767 0.758669 0.775486 0.725986 0.566725 0.266576 -0.107222 -0.366674 -0.424937 -0.280835 0 0 0.0782927 0.154085 0.224364 0.286355 0.339056 0.380245 0.409805 0.427601 0.436191 0.439559 0.442929 0.453928 0.47589 0.507203 0.541812 0.577724 0.6142 0.65093 0.687833 0.724849 0.761748 0.79591 0.801089 0.720699 0.510628 0.172786 -0.166155 -0.318763 -0.267914 0 0 0.0875816 0.173433 0.254426 0.330103 0.397138 0.452512 0.491807 0.513265 0.517603 0.510256 0.498633 0.490185 0.492867 0.509875 0.540241 0.575358 0.612067 0.649299 0.686755 0.724513 0.762679 0.800704 0.833708 0.817065 0.694091 0.427801 0.0776757 -0.173149 -0.214919 0 0 0.0881387 0.174534 0.259024 0.341628 0.423 0.499257 0.5646 0.60893 0.625212 0.616114 0.590578 0.561387 0.540183 0.53414 0.546486 0.575181 0.610629 0.64805 0.68606 0.724488 0.763417 0.80295 0.842164 0.869341 0.816501 0.639031 0.325901 0.0102612 -0.1174 0 0 0.0812173 0.160456 0.237489 0.318359 0.404096 0.494605 0.583956 0.663052 0.719163 0.737304 0.718509 0.675231 0.628124 0.593503 0.578764 0.586257 0.612246 0.647864 0.685962 0.724893 0.764531 0.805057 0.846318 0.886751 0.894696 0.794486 0.550211 0.220825 0.0104487 0 0 0.071454 0.135539 0.199539 0.268447 0.349397 0.444624 0.547855 0.651863 0.744055 0.811405 0.837652 0.817429 0.761249 0.698692 0.651324 0.627838 0.629934 0.65163 0.686945 0.725974 0.766423 0.807842 0.850183 0.893577 0.935256 0.897634 0.736855 0.441921 0.158455 0 0 0.0628878 0.109919 0.152801 0.1971 0.268835 0.364815 0.476659 0.595391 0.706954 0.804241 0.879339 0.915124 0.903113 0.845227 0.772424 0.714693 0.682732 0.678228 0.695349 0.729147 0.769429 0.811582 0.855178 0.901264 0.948544 0.962912 0.878992 0.651446 0.327919 0 0 0.0548658 0.0862465 0.0993801 0.127083 0.192418 0.28281 0.391409 0.511002 0.632135 0.745504 0.843654 0.919743 0.965111 0.966643 0.921557 0.848285 0.784699 0.745705 0.734299 0.746949 0.776276 0.817094 0.86244 0.909281 0.954293 1.00257 0.984756 0.828439 0.505873 0 0 0.0432636 0.0615997 0.0535767 0.0808961 0.142346 0.226431 0.323941 0.429233 0.539553 0.652287 0.760792 0.858362 0.935735 0.988204 1.00593 0.983098 0.924231 0.861536 0.818915 0.800811 0.8071 0.833518 0.87239 0.915468 0.963604 1.04238 1.05089 0.941425 0.660392 0 0 0.0282661 0.0340672 0.0209715 0.0551567 0.114227 0.19363 0.280191 0.369467 0.460921 0.555447 0.653775 0.754116 0.848486 0.930363 0.9892 1.02299 1.02396 0.992155 0.941883 0.90085 0.880663 0.879676 0.896241 0.93023 0.99633 1.07285 1.06883 0.975347 0.738693 0 0 0.0124214 -0.00320423 0.000262201 0.0380908 0.0975732 0.170821 0.247847 0.324474 0.400682 0.477785 0.557796 0.642554 0.732222 0.823014 0.905909 0.975299 1.01996 1.04242 1.0393 1.01563 0.984454 0.962727 0.959331 0.982928 1.04214 1.07446 1.04695 0.926127 0.669751 0 0 -0.00742246 -0.0608517 -0.00882968 0.0212506 0.0847948 0.147608 0.215752 0.282203 0.3466 0.410708 0.476245 0.545685 0.621271 0.703942 0.791657 0.877321 0.952601 1.0121 1.04498 1.06075 1.06645 1.06664 1.07268 1.09098 1.10287 1.07672 0.975537 0.741609 0.390019 0 0 -0.20714 -0.0851531 -0.0191292 0.00911677 0.0380014 0.0912944 0.144791 0.19739 0.249506 0.302163 0.35715 0.416585 0.482724 0.557996 0.644706 0.744079 0.854164 0.967787 1.07234 1.15811 1.20686 1.244 1.27845 1.29452 1.26583 1.13232 0.83458 0.4191 0.121499 0 0 0 0 0 0 0 0 0 0 0 0 0 0 0 0 0 0 0 0 0 0 0 0 0 0 0 0 0 0 0 0
				</DataArray>
				<DataArray Name="VitesseY" type="Float32" format="ascii">
 0 0 0 0 0 0 0 0 0 0 0 0 0 0 0 0 0 0 0 0 0 0 0 0 0 0 0 0 0 0 0 -0.0434702 0.117594 0.118761 0.0945828 0.0467665 0.0113115 0.00050615 0.00211557 0.00786189 0.0150176 0.0220286 0.0273457 0.0315578 0.0366545 0.0445593 0.0563914 0.0737441 0.0963429 0.117729 0.127212 0.123942 0.112213 0.094262 0.0743906 0.0592782 0.0496212 0.0432748 0.0381645 0.032548 0.0213944 0 -0.126508 0.10844 0.191859 0.158234 0.108725 0.0558497 0.0355484 0.0351288 0.0380804 0.0449162 0.0539947 0.0619517 0.0682394 0.0765695 0.0904876 0.112104 0.144274 0.186899 0.22889 0.249667 0.245453 0.224157 0.190412 0.151604 0.121229 0.10154 0.0884919 0.0779439 0.0666975 0.0434262 0 -0.149437 0.060666 0.219323 0.216289 0.18221 0.12168 0.0809878 0.0760173 0.0802127 0.0866162 0.0948976 0.102313 0.108346 0.117345 0.134933 0.163505 0.206523 0.265182 0.326677 0.362412 0.361572 0.334657 0.289075 0.233479 0.187706 0.157307 0.136922 0.120422 0.103084 0.0673322 0 -0.12609 0.0458497 0.23038 0.243906 0.218455 0.177331 0.137085 0.126023 0.12548 0.129662 0.136936 0.14429 0.149688 0.157522 0.176295 0.2089 0.258173 0.327716 0.406476 0.461697 0.470136 0.442341 0.389852 0.320801 0.259446 0.217298 0.188725 0.165706 0.142013 0.0936974 0 -0.0644714 0.0710022 0.227763 0.250899 0.241298 0.216016 0.179085 0.165032 0.166001 0.17034 0.17709 0.184673 0.19052 0.197411 0.214992 0.247912 0.298828 0.373138 0.46472 0.542334 0.568077 0.545197 0.491129 0.413668 0.336902 0.28156 0.243651 0.213491 0.183175 0.12252 0 0.00996709 0.121662 0.24269 0.269002 0.265685 0.252668 0.226459 0.20768 0.204825 0.207423 0.213719 0.222075 0.228872 0.235393 0.249629 0.280046 0.329116 0.402005 0.499668 0.598463 0.650531 0.64214 0.591756 0.51122 0.420733 0.350551 0.30171 0.263575 0.226281 0.153787 0 0.0939134 0.174738 0.264754 0.289431 0.287017 0.27595 0.255938 0.239338 0.238516 0.241638 0.247904 0.256902 0.264905 0.271006 0.280377 0.30546 0.349903 0.416635 0.512304 0.625366 0.710506 0.726901 0.686961 0.610376 0.511439 0.425253 0.363446 0.316141 0.271352 0.187721 0 0.171099 0.227308 0.292691 0.313794 0.31308 0.306011 0.291837 0.276996 0.274221 0.275563 0.280785 0.289476 0.298535 0.304787 0.311317 0.327719 0.363238 0.421053 0.507332 0.623393 0.737984 0.79229 0.773568 0.707596 0.608398 0.5069 0.429903 0.371807 0.318761 0.224783 0 0.23671 0.278471 0.322666 0.338793 0.341404 0.336385 0.326232 0.313311 0.309215 0.310046 0.314407 0.322106 0.331001 0.337448 0.342228 0.350246 0.374138 0.420065 0.492412 0.599214 0.729072 0.827546 0.845822 0.797614 0.707181 0.596229 0.502523 0.43158 0.369186 0.26558 0 0.292675 0.32558 0.354278 0.364872 0.370599 0.367647 0.360967 0.350715 0.345515 0.345787 0.349006 0.355485 0.363668 0.369834 0.373787 0.377889 0.388665 0.419067 0.475163 0.563889 0.689619 0.822361 0.890881 0.874099 0.801586 0.692099 0.582752 0.496777 0.423555 0.310852 0 0.34109 0.367469 0.385522 0.39193 0.398685 0.3989 0.394912 0.388036 0.382836 0.382565 0.384787 0.389966 0.397022 0.402662 0.406125 0.408372 0.41222 0.426062 0.462683 0.529841 0.635788 0.776484 0.897138 0.930258 0.883857 0.788502 0.67094 0.568803 0.483039 0.361503 0 0.383372 0.404358 0.415572 0.419936 0.425941 0.429361 0.427584 0.423902 0.420335 0.419942 0.421649 0.425779 0.431544 0.436472 0.439479 0.44095 0.442163 0.445461 0.462483 0.50621 0.585885 0.70868 0.857284 0.950612 0.947524 0.877048 0.76473 0.648619 0.549067 0.41862 0 0.416255 0.432893 0.440393 0.444531 0.450244 0.456195 0.457755 0.457219 0.45651 0.457089 0.458974 0.462502 0.467186 0.471311 0.473876 0.474961 0.475183 0.47521 0.478108 0.499228 0.551602 0.645184 0.782905 0.926509 0.983117 0.947813 0.855099 0.73548 0.622877 0.483636 0 0.415789 0.429795 0.438673 0.448196 0.459689 0.471783 0.480621 0.485928 0.489723 0.492778 0.495894 0.499437 0.503424 0.506852 0.509024 0.509862 0.50976 0.508781 0.507661 0.511596 0.538412 0.600797 0.709106 0.857295 0.978213 0.995778 0.934414 0.824832 0.704708 0.558399 0 0.344068 0.356505 0.369517 0.387998 0.413013 0.44299 0.473153 0.4977 0.51409 0.524215 0.530879 0.535785 0.539738 0.54274 0.544599 0.54528 0.545105 0.543938 0.541885 0.540491 0.547629 0.581306 0.655465 0.777858 0.927274 1.01044 0.991616 0.906942 0.79204 0.644889 0 0.200273 0.212578 0.23271 0.263558 0.303779 0.35123 0.403216 0.455956 0.503792 0.53922 0.559209 0.569473 0.575299 0.57862 0.580391 0.581002 0.580844 0.579775 0.577725 0.575378 0.575294 0.586921 0.629182 0.716766 0.850643 0.985452 1.02439 0.975874 0.877527 0.744163 0 -0.0550094 -0.0415297 -0.00989342 0.039461 0.104102 0.180483 0.26448 0.351018 0.432384 0.503834 0.559657 0.592887 0.607337 0.613556 0.6161 0.616877 0.616804 0.615935 0.614196 0.612061 0.610627 0.612284 0.630266 0.683356 0.785599 0.92508 1.02473 1.02028 0.952709 0.854203 0 -0.430839 -0.415282 -0.37308 -0.305515 -0.215444 -0.105794 0.0193863 0.152952 0.284383 0.403077 0.501919 0.577046 0.624105 0.644025 0.650592 0.652598 0.652843 0.652253 0.650928 0.649296 0.648044 0.647854 0.651647 0.678374 0.745956 0.861849 0.992434 1.04258 1.01215 0.967805 0 -0.861034 -0.845813 -0.799417 -0.72567 -0.625243 -0.497711 -0.34408 -0.167789 0.0206033 0.204341 0.366901 0.497562 0.592657 0.652899 0.679379 0.686754 0.688649 0.688617 0.68783 0.686754 0.686059 0.685958 0.686937 0.695361 0.734355 0.819003 0.941951 1.03938 1.045 1.07235 0 -1.23533 -1.22166 -1.17831 -1.11166 -1.02228 -0.906619 -0.75963 -0.577445 -0.361154 -0.122765 0.114486 0.323654 0.488682 0.605386 0.678773 0.713184 0.722606 0.724781 0.724847 0.724512 0.724487 0.724893 0.725972 0.729142 0.746955 0.800827 0.900873 1.01565 1.06076 1.15811 0 -1.48416 -1.47131 -1.43022 -1.3746 -1.30677 -1.22174 -1.11123 -0.964444 -0.773343 -0.536597 -0.26303 0.0199744 0.272679 0.472637 0.613169 0.701157 0.745545 0.758732 0.761754 0.762678 0.763417 0.764531 0.766423 0.769428 0.776273 0.807102 0.880666 0.984454 1.06645 1.20686 0 -1.59509 -1.57849 -1.5342 -1.48381 -1.43446 -1.38432 -1.32015 -1.22822 -1.09485 -0.910462 -0.672874 -0.386641 -0.07513 0.213097 0.445952 0.61263 0.718142 0.775769 0.795947 0.800707 0.80295 0.805057 0.807842 0.811582 0.817093 0.833517 0.879675 0.962726 1.06664 1.244 0 -1.57971 -1.55786 -1.50658 -1.45715 -1.42482 -1.40472 -1.37937 -1.33432 -1.25891 -1.14339 -0.979437 -0.759552 -0.483875 -0.167467 0.143543 0.404795 0.599221 0.726401 0.80121 0.833729 0.842166 0.846318 0.850183 0.855178 0.86244 0.872389 0.896239 0.95933 1.07268 1.27845 0 -1.42457 -1.39452 -1.33442 -1.29078 -1.28134 -1.28964 -1.29797 -1.29485 -1.26958 -1.21269 -1.11716 -0.98072 -0.794655 -0.549888 -0.252411 0.0638809 0.34558 0.567197 0.720846 0.817105 0.869349 0.886752 0.893578 0.901264 0.909281 0.915467 0.930229 0.982927 1.09098 1.29452 0 -1.18313 -1.14245 -1.08585 -1.06567 -1.07617 -1.09655 -1.11825 -1.13308 -1.13802 -1.12933 -1.09793 -1.03222 -0.92621 -0.779437 -0.580748 -0.322488 -0.0233871 0.266915 0.510772 0.694133 0.816511 0.894698 0.935256 0.948544 0.954292 0.963603 0.996329 1.04214 1.10286 1.26583 0 -0.901234 -0.850001 -0.833458 -0.833175 -0.854992 -0.879239 -0.900351 -0.916088 -0.92723 -0.934365 -0.935869 -0.926875 -0.896037 -0.828993 -0.720302 -0.5701 -0.366227 -0.10717 0.17285 0.427828 0.639039 0.794486 0.897633 0.962911 1.00257 1.04238 1.07285 1.07446 1.07672 1.13232 0 -0.577035 -0.546074 -0.600932 -0.611522 -0.64309 -0.663661 -0.675913 -0.68571 -0.692151 -0.698232 -0.70563 -0.714039 -0.720115 -0.716474 -0.690115 -0.62498 -0.516681 -0.366774 -0.166181 0.0776777 0.325901 0.550208 0.736853 0.878989 0.984754 1.05089 1.06883 1.04695 0.975534 0.834577 0 -0.167703 -0.271935 -0.399888 -0.418067 -0.454018 -0.463177 -0.469157 -0.471483 -0.470282 -0.468661 -0.468564 -0.471415 -0.478444 -0.489882 -0.501575 -0.504927 -0.485854 -0.425013 -0.318796 -0.173163 0.0102549 0.220821 0.441917 0.651443 0.828436 0.941423 0.975344 0.926125 0.741607 0.419098 0 0.464135 -0.0681938 -0.240666 -0.233548 -0.264674 -0.253932 -0.268385 -0.264933 -0.261765 -0.258584 -0.255157 -0.251961 -0.249814 -0.24989 -0.253913 -0.262743 -0.274469 -0.280866 -0.267928 -0.214926 -0.117404 0.0104456 0.158452 0.327917 0.50587 0.660391 0.738692 0.66975 0.390019 0.121499 0 4.96521 0 0 0 0 0 0 0 0 0 0 0 0 0 0 0 0 0 0 0 0 0 0 0 0 0 0 0 0 0 0
				</DataArray>
			</PointData>
			<CellData Scalars="Density">
				<DataArray Name="Density" type="Float32" format="ascii">