<?xml version="1.0"?>
<VTKFile type="PolyData">
	<PolyData>
		<Piece NumberOfPoints="961" NumberOfPolys="900">
			<Points>
				<DataArray type="Float32" NumberOfComponents="3" format="ascii">
 0 0 0 0.04 0 0 0.08 0 0 0.12 0 0 0.16 0 0 0.2 0 0 0.24 0 0 0.28 0 0 0.32 0 0 0.36 0 0 0.4 0 0 0.44 0 0 0.48 0 0 0.52 0 0 0.56 0 0 0.6 0 0 0.64 0 0 0.68 0 0 0.72 0 0 0.76 0 0 0.8 0 0 0.84 0 0 0.88 0 0 0.92 0 0 0.96 0 0 1 0 0 1.04 0 0 1.08 0 0 1.12 0 0 1.16 0 0 1.2 0 0 0 0.04 0 0.04 0.04 0 0.08 0.04 0 0.12 0.04 0 0.16 0.04 0 0.2 0.04 0 0.24 0.04 0 0.28 0.04 0 0.32 0.04 0 0.36 0.04 0 0.4 0.04 0 0.44 0.04 0 0.48 0.04 0 0.52 0.04 0 0.56 0.04 0 0.6 0.04 0 0.64 0.04 0 0.68 0.04 0 0.72 0.04 0 0.76 0.04 0 0.8 0.04 0 0.84 0.04 0 0.88 0.04 0 0.92 0.04 0 0.96 0.04 0 1 0.04 0 1.04 0.04 0 1.08 0.04 0 1.12 0.04 0 1.16 0.04 0 1.2 0.04 0 0 0.08 0 0.04 0.08 0 0.08 0.08 0 0.12 0.08 0 0.16 0.08 0 0.2 0.08 0 0.24 0.08 0 0.28 0.08 0 0.32 0.08 0 0.36 0.08 0 0.4 0.08 0 0.44 0.08 0 0.48 0.08 0 0.52 0.08 0 0.56 0.08 0 0.6 0.08 0 0.64 0.08 0 0.68 0.08 0 0.72 0.08 0 0.76 0.08 0 0.8 0.08 0 0.84 0.08 0 0.88 0.08 0 0.92 0.08 0 0.96 0.08 0 1 0.08 0 1.04 0.08 0 1.08 0.08 0 1.12 0.08 0 1.16 0.08 0 1.2 0.08 0 0 0.12 0 0.04 0.12 0 0.08 0.12 0 0.12 0.12 0 0.16 0.12 0 0.2 0.12 0 0.24 0.12 0 0.28 0.12 0 0.32 0.12 0 0.36 0.12 0 0.4 0.12 0 0.44 0.12 0 0.48 0.12 0 0.52 0.12 0 0.56 0.12 0 0.6 0.12 0 0.64 0.12 0 0.68 0.12 0 0.72 0.12 0 0.76 0.12 0 0.8 0.12 0 0.84 0.12 0 0.88 0.12 0 0.92 0.12 0 0.96 0.12 0 1 0.12 0 1.04 0.12 0 1.08 0.12 0 1.12 0.12 0 1.16 0.12 0 1.2 0.12 0 0 0.16 0 0.04 0.16 0 0.08 0.16 0 0.12 0.16 0 0.16 0.16 0 0.2 0.16 0 0.24 0.16 0 0.28 0.16 0 0.32 0.16 0 0.36 0.16 0 0.4 0.16 0 0.44 0.16 0 0.48 0.16 0 0.52 0.16 0 0.56 0.16 0 0.6 0.16 0 0.64 0.16 0 0.68 0.16 0 0.72 0.16 0 0.76 0.16 0 0.8 0.16 0 0.84 0.16 0 0.88 0.16 0 0.92 0.16 0 0.96 0.16 0 1 0.16 0 1.04 0.16 0 1.08 0.16 0 1.12 0.16 0 1.16 0.16 0 1.2 0.16 0 0 0.2 0 0.04 0.2 0 0.08 0.2 0 0.12 0.2 0 0.16 0.2 0 0.2 0.2 0 0.24 0.2 0 0.28 0.2 0 0.32 0.2 0 0.36 0.2 0 0.4 0.2 0 0.44 0.2 0 0.48 0.2 0 0.52 0.2 0 0.56 0.2 0 0.6 0.2 0 0.64 0.2 0 0.68 0.2 0 0.72 0.2 0 0.76 0.2 0 0.8 0.2 0 0.84 0.2 0 0.88 0.2 0 0.92 0.2 0 0.96 0.2 0 1 0.2 0 1.04 0.2 0 1.08 0.2 0 1.12 0.2 0 1.16 0.2 0 1.2 0.2 0 0 0.24 0 0.04 0.24 0 0.08 0.24 0 0.12 0.24 0 0.16 0.24 0 0.2 0.24 0 0.24 0.24 0 0.28 0.24 0 0.32 0.24 0 0.36 0.24 0 0.4 0.24 0 0.44 0.24 0 0.48 0.24 0 0.52 0.24 0 0.56 0.24 0 0.6 0.24 0 0.64 0.24 0 0.68 0.24 0 0.72 0.24 0 0.76 0.24 0 0.8 0.24 0 0.84 0.24 0 0.88 0.24 0 0.92 0.24 0 0.96 0.24 0 1 0.24 0 1.04 0.24 0 1.08 0.24 0 1.12 0.24 0 1.16 0.24 0 1.2 0.24 0 0 0.28 0 0.04 0.28 0 0.08 0.28 0 0.12 0.28 0 0.16 0.28 0 0.2 0.28 0 0.24 0.28 0 0.28 0.28 0 0.32 0.28 0 0.36 0.28 0 0.4 0.28 0 0.44 0.28 0 0.48 0.28 0 0.52 0.28 0 0.56 0.28 0 0.6 0.28 0 0.64 0.28 0 0.68 0.28 0 0.72 0.28 0 0.76 0.28 0 0.8 0.28 0 0.84 0.28 0 0.88 0.28 0 0.92 0.28 0 0.96 0.28 0 1 0.28 0 1.04 0.28 0 1.08 0.28 0 1.12 0.28 0 1.16 0.28 0 1.2 0.28 0 0 0.32 0 0.04 0.32 0 0.08 0.32 0 0.12 0.32 0 0.16 0.32 0 0.2 0.32 0 0.24 0.32 0 0.28 0.32 0 0.32 0.32 0 0.36 0.32 0 0.4 0.32 0 0.44 0.32 0 0.48 0.32 0 0.52 0.32 0 0.56 0.32 0 0.6 0.32 0 0.64 0.32 0 0.68 0.32 0 0.72 0.32 0 0.76 0.32 0 0.8 0.32 0 0.84 0.32 0 0.88 0.32 0 0.92 0.32 0 0.96 0.32 0 1 0.32 0 1.04 0.32 0 1.08 0.32 0 1.12 0.32 0 1.16 0.32 0 1.2 0.32 0 0 0.36 0 0.04 0.36 0 0.08 0.36 0 0.12 0.36 0 0.16 0.36 0 0.2 0.36 0 0.24 0.36 0 0.28 0.36 0 0.32 0.36 0 0.36 0.36 0 0.4 0.36 0 0.44 0.36 0 0.48 0.36 0 0.52 0.36 0 0.56 0.36 0 0.6 0.36 0 0.64 0.36 0 0.68 0.36 0 0.72 0.36 0 0.76 0.36 0 0.8 0.36 0 0.84 0.36 0 0.88 0.36 0 0.92 0.36 0 0.96 0.36 0 1 0.36 0 1.04 0.36 0 1.08 0.36 0 1.12 0.36 0 1.16 0.36 0 1.2 0.36 0 0 0.4 0 0.04 0.4 0 0.08 0.4 0 0.12 0.4 0 0.16 0.4 0 0.2 0.4 0 0.24 0.4 0 0.28 0.4 0 0.32 0.4 0 0.36 0.4 0 0.4 0.4 0 0.44 0.4 0 0.48 0.4 0 0.52 0.4 0 0.56 0.4 0 0.6 0.4 0 0.64 0.4 0 0.68 0.4 0 0.72 0.4 0 0.76 0.4 0 0.8 0.4 0 0.84 0.4 0 0.88 0.4 0 0.92 0.4 0 0.96 0.4 0 1 0.4 0 1.04 0.4 0 1.08 0.4 0 1.12 0.4 0 1.16 0.4 0 1.2 0.4 0 0 0.44 0 0.04 0.44 0 0.08 0.44 0 0.12 0.44 0 0.16 0.44 0 0.2 0.44 0 0.24 0.44 0 0.28 0.44 0 0.32 0.44 0 0.36 0.44 0 0.4 0.44 0 0.44 0.44 0 0.48 0.44 0 0.52 0.44 0 0.56 0.44 0 0.6 0.44 0 0.64 0.44 0 0.68 0.44 0 0.72 0.44 0 0.76 0.44 0 0.8 0.44 0 0.84 0.44 0 0.88 0.44 0 0.92 0.44 0 0.96 0.44 0 1 0.44 0 1.04 0.44 0 1.08 0.44 0 1.12 0.44 0 1.16 0.44 0 1.2 0.44 0 0 0.48 0 0.04 0.48 0 0.08 0.48 0 0.12 0.48 0 0.16 0.48 0 0.2 0.48 0 0.24 0.48 0 0.28 0.48 0 0.32 0.48 0 0.36 0.48 0 0.4 0.48 0 0.44 0.48 0 0.48 0.48 0 0.52 0.48 0 0.56 0.48 0 0.6 0.48 0 0.64 0.48 0 0.68 0.48 0 0.72 0.48 0 0.76 0.48 0 0.8 0.48 0 0.84 0.48 0 0.88 0.48 0 0.92 0.48 0 0.96 0.48 0 1 0.48 0 1.04 0.48 0 1.08 0.48 0 1.12 0.48 0 1.16 0.48 0 1.2 0.48 0 0 0.52 0 0.04 0.52 0 0.08 0.52 0 0.12 0.52 0 0.16 0.52 0 0.2 0.52 0 0.24 0.52 0 0.28 0.52 0 0.32 0.52 0 0.36 0.52 0 0.4 0.52 0 0.44 0.52 0 0.48 0.52 0 0.52 0.52 0 0.56 0.52 0 0.6 0.52 0 0.64 0.52 0 0.68 0.52 0 0.72 0.52 0 0.76 0.52 0 0.8 0.52 0 0.84 0.52 0 0.88 0.52 0 0.92 0.52 0 0.96 0.52 0 1 0.52 0 1.04 0.52 0 1.08 0.52 0 1.12 0.52 0 1.16 0.52 0 1.2 0.52 0 0 0.56 0 0.04 0.56 0 0.08 0.56 0 0.12 0.56 0 0.16 0.56 0 0.2 0.56 0 0.24 0.56 0 0.28 0.56 0 0.32 0.56 0 0.36 0.56 0 0.4 0.56 0 0.44 0.56 0 0.48 0.56 0 0.52 0.56 0 0.56 0.56 0 0.6 0.56 0 0.64 0.56 0 0.68 0.56 0 0.72 0.56 0 0.76 0.56 0 0.8 0.56 0 0.84 0.56 0 0.88 0.56 0 0.92 0.56 0 0.96 0.56 0 1 0.56 0 1.04 0.56 0 1.08 0.56 0 1.12 0.56 0 1.16 0.56 0 1.2 0.56 0 0 0.6 0 0.04 0.6 0 0.08 0.6 0 0.12 0.6 0 0.16 0.6 0 0.2 0.6 0 0.24 0.6 0 0.28 0.6 0 0.32 0.6 0 0.36 0.6 0 0.4 0.6 0 0.44 0.6 0 0.48 0.6 0 0.52 0.6 0 0.56 0.6 0 0.6 0.6 0 0.64 0.6 0 0.68 0.6 0 0.72 0.6 0 0.76 0.6 0 0.8 0.6 0 0.84 0.6 0 0.88 0.6 0 0.92 0.6 0 0.96 0.6 0 1 0.6 0 1.04 0.6 0 1.08 0.6 0 1.12 0.6 0 1.16 0.6 0 1.2 0.6 0 0 0.64 0 0.04 0.64 0 0.08 0.64 0 0.12 0.64 0 0.16 0.64 0 0.2 0.64 0 0.24 0.64 0 0.28 0.64 0 0.32 0.64 0 0.36 0.64 0 0.4 0.64 0 0.44 0.64 0 0.48 0.64 0 0.52 0.64 0 0.56 0.64 0 0.6 0.64 0 0.64 0.64 0 0.68 0.64 0 0.72 0.64 0 0.76 0.64 0 0.8 0.64 0 0.84 0.64 0 0.88 0.64 0 0.92 0.64 0 0.96 0.64 0 1 0.64 0 1.04 0.64 0 1.08 0.64 0 1.12 0.64 0 1.16 0.64 0 1.2 0.64 0 0 0.68 0 0.04 0.68 0 0.08 0.68 0 0.12 0.68 0 0.16 0.68 0 0.2 0.68 0 0.24 0.68 0 0.28 0.68 0 0.32 0.68 0 0.36 0.68 0 0.4 0.68 0 0.44 0.68 0 0.48 0.68 0 0.52 0.68 0 0.56 0.68 0 0.6 0.68 0 0.64 0.68 0 0.68 0.68 0 0.72 0.68 0 0.76 0.68 0 0.8 0.68 0 0.84 0.68 0 0.88 0.68 0 0.92 0.68 0 0.96 0.68 0 1 0.68 0 1.04 0.68 0 1.08 0.68 0 1.12 0.68 0 1.16 0.68 0 1.2 0.68 0 0 0.72 0 0.04 0.72 0 0.08 0.72 0 0.12 0.72 0 0.16 0.72 0 0.2 0.72 0 0.24 0.72 0 0.28 0.72 0 0.32 0.72 0 0.36 0.72 0 0.4 0.72 0 0.44 0.72 0 0.48 0.72 0 0.52 0.72 0 0.56 0.72 0 0.6 0.72 0 0.64 0.72 0 0.68 0.72 0 0.72 0.72 0 0.76 0.72 0 0.8 0.72 0 0.84 0.72 0 0.88 0.72 0 0.92 0.72 0 0.96 0.72 0 1 0.72 0 1.04 0.72 0 1.08 0.72 0 1.12 0.72 0 1.16 0.72 0 1.2 0.72 0 0 0.76 0 0.04 0.76 0 0.08 0.76 0 0.12 0.76 0 0.16 0.76 0 0.2 0.76 0 0.24 0.76 0 0.28 0.76 0 0.32 0.76 0 0.36 0.76 0 0.4 0.76 0 0.44 0.76 0 0.48 0.76 0 0.52 0.76 0 0.56 0.76 0 0.6 0.76 0 0.64 0.76 0 0.68 0.76 0 0.72 0.76 0 0.76 0.76 0 0.8 0.76 0 0.84 0.76 0 0.88 0.76 0 0.92 0.76 0 0.96 0.76 0 1 0.76 0 1.04 0.76 0 1.08 0.76 0 1.12 0.76 0 1.16 0.76 0 1.2 0.76 0 0 0.8 0 0.04 0.8 0 0.08 0.8 0 0.12 0.8 0 0.16 0.8 0 0.2 0.8 0 0.24 0.8 0 0.28 0.8 0 0.32 0.8 0 0.36 0.8 0 0.4 0.8 0 0.44 0.8 0 0.48 0.8 0 0.52 0.8 0 0.56 0.8 0 0.6 0.8 0 0.64 0.8 0 0.68 0.8 0 0.72 0.8 0 0.76 0.8 0 0.8 0.8 0 0.84 0.8 0 0.88 0.8 0 0.92 0.8 0 0.96 0.8 0 1 0.8 0 1.04 0.8 0 1.08 0.8 0 1.12 0.8 0 1.16 0.8 0 1.2 0.8 0 0 0.84 0 0.04 0.84 0 0.08 0.84 0 0.12 0.84 0 0.16 0.84 0 0.2 0.84 0 0.24 0.84 0 0.28 0.84 0 0.32 0.84 0 0.36 0.84 0 0.4 0.84 0 0.44 0.84 0 0.48 0.84 0 0.52 0.84 0 0.56 0.84 0 0.6 0.84 0 0.64 0.84 0 0.68 0.84 0 0.72 0.84 0 0.76 0.84 0 0.8 0.84 0 0.84 0.84 0 0.88 0.84 0 0.92 0.84 0 0.96 0.84 0 1 0.84 0 1.04 0.84 0 1.08 0.84 0 1.12 0.84 0 1.16 0.84 0 1.2 0.84 0 0 0.88 0 0.04 0.88 0 0.08 0.88 0 0.12 0.88 0 0.16 0.88 0 0.2 0.88 0 0.24 0.88 0 0.28 0.88 0 0.32 0.88 0 0.36 0.88 0 0.4 0.88 0 0.44 0.88 0 0.48 0.88 0 0.52 0.88 0 0.56 0.88 0 0.6 0.88 0 0.64 0.88 0 0.68 0.88 0 0.72 0.88 0 0.76 0.88 0 0.8 0.88 0 0.84 0.88 0 0.88 0.88 0 0.92 0.88 0 0.96 0.88 0 1 0.88 0 1.04 0.88 0 1.08 0.88 0 1.12 0.88 0 1.16 0.88 0 1.2 0.88 0 0 0.92 0 0.04 0.92 0 0.08 0.92 0 0.12 0.92 0 0.16 0.92 0 0.2 0.92 0 0.24 0.92 0 0.28 0.92 0 0.32 0.92 0 0.36 0.92 0 0.4 0.92 0 0.44 0.92 0 0.48 0.92 0 0.52 0.92 0 0.56 0.92 0 0.6 0.92 0 0.64 0.92 0 0.68 0.92 0 0.72 0.92 0 0.76 0.92 0 0.8 0.92 0 0.84 0.92 0 0.88 0.92 0 0.92 0.92 0 0.96 0.92 0 1 0.92 0 1.04 0.92 0 1.08 0.92 0 1.12 0.92 0 1.16 0.92 0 1.2 0.92 0 0 0.96 0 0.04 0.96 0 0.08 0.96 0 0.12 0.96 0 0.16 0.96 0 0.2 0.96 0 0.24 0.96 0 0.28 0.96 0 0.32 0.96 0 0.36 0.96 0 0.4 0.96 0 0.44 0.96 0 0.48 0.96 0 0.52 0.96 0 0.56 0.96 0 0.6 0.96 0 0.64 0.96 0 0.68 0.96 0 0.72 0.96 0 0.76 0.96 0 0.8 0.96 0 0.84 0.96 0 0.88 0.96 0 0.92 0.96 0 0.96 0.96 0 1 0.96 0 1.04 0.96 0 1.08 0.96 0 1.12 0.96 0 1.16 0.96 0 1.2 0.96 0 0 1 0 0.04 1 0 0.08 1 0 0.12 1 0 0.16 1 0 0.2 1 0 0.24 1 0 0.28 1 0 0.32 1 0 0.36 1 0 0.4 1 0 0.44 1 0 0.48 1 0 0.52 1 0 0.56 1 0 0.6 1 0 0.64 1 0 0.68 1 0 0.72 1 0 0.76 1 0 0.8 1 0 0.84 1 0 0.88 1 0 0.92 1 0 0.96 1 0 1 1 0 1.04 1 0 1.08 1 0 1.12 1 0 1.16 1 0 1.2 1 0 0 1.04 0 0.04 1.04 0 0.08 1.04 0 0.12 1.04 0 0.16 1.04 0 0.2 1.04 0 0.24 1.04 0 0.28 1.04 0 0.32 1.04 0 0.36 1.04 0 0.4 1.04 0 0.44 1.04 0 0.48 1.04 0 0.52 1.04 0 0.56 1.04 0 0.6 1.04 0 0.64 1.04 0 0.68 1.04 0 0.72 1.04 0 0.76 1.04 0 0.8 1.04 0 0.84 1.04 0 0.88 1.04 0 0.92 1.04 0 0.96 1.04 0 1 1.04 0 1.04 1.04 0 1.08 1.04 0 1.12 1.04 0 1.16 1.04 0 1.2 1.04 0 0 1.08 0 0.04 1.08 0 0.08 1.08 0 0.12 1.08 0 0.16 1.08 0 0.2 1.08 0 0.24 1.08 0 0.28 1.08 0 0.32 1.08 0 0.36 1.08 0 0.4 1.08 0 0.44 1.08 0 0.48 1.08 0 0.52 1.08 0 0.56 1.08 0 0.6 1.08 0 0.64 1.08 0 0.68 1.08 0 0.72 1.08 0 0.76 1.08 0 0.8 1.08 0 0.84 1.08 0 0.88 1.08 0 0.92 1.08 0 0.96 1.08 0 1 1.08 0 1.04 1.08 0 1.08 1.08 0 1.12 1.08 0 1.16 1.08 0 1.2 1.08 0 0 1.12 0 
[...]
			<PointData Scalars="VitesseX">
				<DataArray Name="VitesseX" type="Float32" format="ascii">
 0 -0.0458219 -0.133831 -0.154936 -0.124937 -0.0565127 0.0288191 0.119803 0.19876 0.267946 0.326374 0.378176 0.425049 0.468469 0.509617 0.549607 0.589287 0.628814 0.66465 0.653586 0.537188 0.27332 -0.175332 -0.677859 -1.03419 -1.16833 -1.09857 -0.857447 -0.555279 -0.276421 0 0 0.117819 0.121106 0.0747998 0.064435 0.0908111 0.14284 0.200091 0.254826 0.309793 0.359285 0.404208 0.445431 0.484221 0.521606 0.558447 0.595289 0.632224 0.666233 0.656374 0.542701 0.284681 -0.157428 -0.659725 -1.02033 -1.15933 -1.09515 -0.857521 -0.556172 -0.276742 0 0 0.112456 0.220645 0.232515 0.249056 0.250407 0.26435 0.2919 0.320044 0.353104 0.386913 0.421524 0.45617 0.491271 0.526795 0.562705 0.599001 0.635614 0.670156 0.668376 0.565928 0.326741 -0.0962386 -0.598775 -0.975145 -1.13114 -1.08396 -0.856736 -0.557141 -0.276462 0 0 0.0877737 0.194407 0.217939 0.257491 0.277228 0.289799 0.317667 0.343045 0.370442 0.398593 0.429629 0.462121 0.496031 0.530874 0.566366 0.602505 0.639338 0.675169 0.685156 0.600035 0.388762 -0.00417193 -0.504715 -0.904921 -1.08834 -1.06695 -0.856387 -0.559233 -0.275958 0 0 0.0423105 0.128699 0.179648 0.232328 0.273115 0.285777 0.315874 0.344352 0.376075 0.407092 0.438486 0.469654 0.502051 0.535716 0.570491 0.60647 0.643642 0.680735 0.702598 0.640314 0.462726 0.109812 -0.380983 -0.809986 -1.03171 -1.04281 -0.856131 -0.563188 -0.27554 0 0 0.0120658 0.0653643 0.128192 0.187199 0.245209 0.269907 0.304208 0.337728 0.371556 0.406053 0.441361 0.475047 0.508267 0.541589 0.575798 0.611543 0.648828 0.686763 0.717321 0.682943 0.541391 0.237255 -0.229852 -0.688425 -0.957856 -1.00827 -0.854282 -0.569277 -0.275563 0 0 0.00434973 0.0435711 0.0960139 0.151384 0.206048 0.244002 0.284049 0.324376 0.362641 0.40101 0.43859 0.474875 0.510696 0.546175 0.581687 0.617842 0.655212 0.69353 0.728806 0.723387 0.618259 0.369809 -0.056611 -0.537558 -0.862189 -0.959175 -0.848199 -0.577184 -0.276351 0 0 0.00641041 0.0433724 0.090684 0.145354 0.190634 0.23251 0.271721 0.312186 0.351403 0.39278 0.433703 0.472981 0.511235 0.549038 0.586711 0.624403 0.662447 0.701047 0.738481 0.756553 0.688716 0.498039 0.129038 -0.355666 -0.738748 -0.891915 -0.833631 -0.586199 -0.278426 0 0 0.0125445 0.0478087 0.0942987 0.147218 0.190166 0.233168 0.271272 0.310151 0.349068 0.38958 0.430647 0.471702 0.511937 0.551591 0.590829 0.629778 0.668709 0.707772 0.746401 0.777835 0.749921 0.613762 0.313638 -0.145892 -0.581616 -0.803679 -0.804383 -0.594539 -0.282545 0 0 0.0201039 0.0555123 0.101457 0.151403 0.194772 0.236985 0.274435 0.312341 0.350835 0.390508 0.431113 0.47229 0.513418 0.554145 0.594514 0.634376 0.673864 0.713264 0.752493 0.789076 0.797181 0.710352 0.483885 0.0794509 -0.38855 -0.689634 -0.75387 -0.598568 -0.289588 0 0 0.0270451 0.0645165 0.109943 0.157782 0.201897 0.243364 0.281469 0.318526 0.35601 0.394486 0.434185 0.474921 0.516026 0.557106 0.597879 0.638279 0.678173 0.71777 0.757271 0.795856 0.825119 0.786727 0.630307 0.299881 -0.163142 -0.541662 -0.678078 -0.592178 -0.300173 0 0 0.0320775 0.0714586 0.116089 0.162807 0.208018 0.250489 0.290001 0.327181 0.36394 0.401282 0.439713 0.479351 0.519753 0.560418 0.601103 0.641521 0.681579 0.721336 0.760979 0.800377 0.837165 0.842148 0.745982 0.49813 0.0811414 -0.353716 -0.575589 -0.566376 -0.312728 0 0 0.0356778 0.076343 0.120191 0.165632 0.211147 0.254504 0.295221 0.333725 0.370857 0.407897 0.445524 0.484166 0.523651 0.563601 0.603773 0.644013 0.684074 0.72394 0.763684 0.803405 0.842442 0.87275 0.831889 0.663982 0.318451 -0.129053 -0.443918 -0.512489 -0.322625 0 0 0.0381217 0.0796143 0.12277 0.167091 0.212047 0.255811 0.297225 0.336511 0.374378 0.411584 0.449028 0.487258 0.526272 0.565778 0.60559 0.645557 0.685585 0.725536 0.76541 0.805355 0.845341 0.883693 0.891076 0.790568 0.529894 0.114718 -0.27502 -0.427207 -0.322333 0 0 0.039519 0.0813345 0.123988 0.167382 0.211646 0.255374 0.297032 0.336721 0.375025 0.412663 0.450307 0.488495 0.527345 0.566669 0.606309 0.646172 0.686158 0.726205 0.766271 0.806493 0.847023 0.887549 0.921624 0.881499 0.705307 0.351649 -0.0678187 -0.311162 -0.300094 0 0 0.0400242 0.0818361 0.124129 0.166857 0.210031 0.253104 0.294827 0.334909 0.373786 0.411916 0.44994 0.488295 0.52717 0.566497 0.606161 0.646062 0.686099 0.726221 0.766507 0.807081 0.848133 0.889837 0.931229 0.943017 0.837722 0.565125 0.160653 -0.165404 -0.243955 0 0 0.0400703 0.0817237 0.123621 0.165424 0.207272 0.24911 0.290409 0.330656 0.370059 0.408943 0.447635 0.486452 0.525573 0.565085 0.604951 0.645084 0.685372 0.72577 0.766358 0.807353 0.849016 0.891602 0.93489 0.973874 0.93194 0.744956 0.38539 0.0101129 -0.152438 0 0 0.0398994 0.0811334 0.1223 0.163141 0.203666 0.244168 0.284602 0.324698 0.364385 0.403861 0.443251 0.482697 0.522321 0.56222 0.602467 0.643031 0.683799 0.724724 0.765872 0.807511 0.849929 0.893361 0.937949 0.983123 0.99659 0.883289 0.594155 0.206461 -0.0337664 0 0 0.0395323 0.0799885 0.12038 0.16012 0.199586 0.238905 0.278475 0.318211 0.357979 0.397792 0.437714 0.477784 0.518032 0.558491 0.599255 0.640378 0.681787 0.723388 0.765315 0.80781 0.851078 0.895421 0.940948 0.987443 1.03128 0.982939 0.776331 0.41347 0.102279 0 0 0.0393448 0.0794247 0.11868 0.157602 0.195811 0.234288 0.273143 0.312569 0.352332 0.392365 0.432656 0.473213 0.514039 0.555134 0.596507 0.638208 0.680218 0.722514 0.765238 0.808512 0.852707 0.897992 0.944306 0.992501 1.04487 1.05109 0.922634 0.620489 0.257403 0 0 0.0412371 0.0821377 0.123036 0.161959 0.200547 0.237304 0.273286 0.310118 0.348676 0.388229 0.428648 0.469586 0.510884 0.552513 0.594447 0.6367 0.679301 0.722285 0.765671 0.80985 0.855045 0.901173 0.948702 0.999321 1.05191 1.08832 1.03808 0.815912 0.42947 0 0 0.0442564 0.089623 0.133015 0.176931 0.21765 0.256425 0.291342 0.32509 0.358022 0.390726 0.42769 0.46748 0.508698 0.550726 0.59316 0.635951 0.679104 0.722638 0.766895 0.812102 0.858195 0.905479 0.955404 1.00745 1.05725 1.1112 1.13199 0.977756 0.604382 0 0 0.047889 0.0957756 0.147781 0.198349 0.249622 0.294954 0.334498 0.366592 0.393117 0.417172 0.44429 0.474052 0.510123 0.550682 0.592905 0.63597 0.679585 0.723965 0.769255 0.815398 0.862659 0.912246 0.963994 1.01353 1.06532 1.1507 1.18898 1.07895 0.753627 0 0 0.0435886 0.0948486 0.150625 0.217182 0.283925 0.34786 0.399877 0.438487 0.463867 0.480036 0.492985 0.507521 0.529879 0.558577 0.595294 0.637304 0.681377 0.726705 0.772933 0.820308 0.86979 0.921139 0.970537 1.02107 1.09426 1.19394 1.20002 1.10406 0.825145 0 0 0.0303735 0.0696392 0.131382 0.205277 0.29215 0.379313 0.458937 0.520841 0.559979 0.578146 0.58312 0.583371 0.585993 0.59564 0.617383 0.647677 0.686685 0.731385 0.778569 0.82804 0.878915 0.928043 0.978455 1.04835 1.14632 1.19181 1.16834 1.04209 0.744094 0 0 0.00179203 0.0275368 0.078003 0.164341 0.26399 0.368803 0.468718 0.556389 0.626072 0.672023 0.692511 0.693054 0.68567 0.678444 0.678508 0.688359 0.712386 0.746343 0.789357 0.837954 0.886213 0.936999 1.00696 1.1004 1.15088 1.14542 1.06293 0.834912 0.446302 0 0 -0.0281217 -0.0356548 0.0212035 0.116877 0.224125 0.336558 0.443512 0.540541 0.623772 0.694782 0.748922 0.781805 0.793139 0.789818 0.780921 0.775553 0.779037 0.792923 0.819565 0.853453 0.899743 0.969717 1.05716 1.10568 1.10507 1.03548 0.836178 0.472121 0.14758 0 0 -0.0713028 -0.0741102 -0.00195517 0.0848841 0.191277 0.296988 0.397696 0.491391 0.577537 0.657527 0.72778 0.785255 0.832088 0.86249 0.876478 0.879489 0.878327 0.878686 0.885583 0.904062 0.948669 1.01952 1.06557 1.06289 0.995687 0.80916 0.469599 0.156262 0.0248555 0 0 -0.110482 -0.0834369 -0.00172536 0.0640416 0.168499 0.258515 0.343393 0.425636 0.505669 0.584353 0.660819 0.733183 0.800629 0.855692 0.895751 0.926854 0.950585 0.969777 0.988997 1.01526 1.05095 1.07253 1.05561 0.974917 0.778292 0.447178 0.152968 0.0261284 0.00167015 0 0 -0.177633 -0.031453 -0.0346806 0.0580292 0.125446 0.197472 0.266231 0.333662 0.402509 0.475746 0.555694 0.64322 0.737269 0.834148 0.928521 1.01506 1.07759 1.12429 1.17333 1.21782 1.24139 1.2177 1.09569 0.824515 0.440773 0.143405 0.0243542 0.00166192 3.06384e-05 0 0 0 0 0 0 0 0 0 0 0 0 0 0 0 0 0 0 0 0 0 0 0 0 0 0 0 0 0 0 0 0
				</DataArray>
				<DataArray Name="VitesseY" type="Float32" format="ascii">
 0 0 0 0 0 0 0 0 0 0 0 0 0 0 0 0 0 0 0 0 0 0 0 0 0 0 0 0 0 0 0 -0.0457956 0.117795 0.112439 0.087763 0.0423083 0.0120661 0.00434765 0.00640968 0.012547 0.0201087 0.0270494 0.0320812 0.0356815 0.0381257 0.0395218 0.0400271 0.0400683 0.0399159 0.039817 0.0423135 0.0494009 0.0625531 0.0803454 0.0917343 0.090373 0.0814414 0.0680396 0.0555982 0.0456705 0.0345959 0 -0.133818 0.121059 0.220615 0.19439 0.128696 0.0653706 0.0435838 0.0433853 0.0478209 0.055523 0.0645243 0.0714632 0.0763469 0.0796179 0.0813384 0.0818367 0.0817287 0.0811451 0.080505 0.084391 0.0968844 0.121086 0.155126 0.179196 0.178577 0.162665 0.137605 0.113391 0.0937873 0.0700048 0 -0.154952 0.07473 0.232484 0.21792 0.179642 0.1282 0.0960358 0.0907082 0.0943205 0.101475 0.109954 0.116093 0.120192 0.122772 0.12399 0.124132 0.123619 0.122342 0.120829 0.124604 0.140195 0.172414 0.220002 0.2591 0.263185 0.243463 0.209411 0.174353 0.144913 0.108201 0 -0.12496 0.0643819 0.249022 0.257476 0.232318 0.187194 0.151393 0.145373 0.14724 0.151425 0.157798 0.162815 0.165635 0.167092 0.167383 0.166856 0.165429 0.163162 0.16053 0.16256 0.178961 0.215892 0.273522 0.329089 0.343089 0.323214 0.283381 0.238452 0.198972 0.149141 0 -0.0565485 0.0907552 0.250358 0.2772 0.273099 0.24521 0.206069 0.190664 0.190193 0.194796 0.201915 0.20803 0.211153 0.21205 0.211647 0.210031 0.207271 0.203698 0.199821 0.198848 0.213935 0.252152 0.31558 0.386972 0.416864 0.400725 0.358696 0.305473 0.255734 0.192834 0 0.0287822 0.142798 0.264317 0.289783 0.285767 0.269904 0.244011 0.232529 0.233188 0.237005 0.243382 0.250502 0.254513 0.255816 0.255378 0.253105 0.249113 0.244186 0.239067 0.235985 0.247498 0.28256 0.347143 0.430853 0.482178 0.475504 0.434917 0.375336 0.315377 0.239712 0 0.119755 0.200055 0.291873 0.317646 0.315859 0.304201 0.284053 0.271735 0.271288 0.274451 0.281485 0.290014 0.29523 0.297233 0.297038 0.29483 0.290411 0.284616 0.278562 0.273999 0.280105 0.309209 0.370487 0.460074 0.535558 0.546205 0.51104 0.447679 0.378384 0.290569 0 0.198711 0.254796 0.320034 0.343033 0.344341 0.33772 0.324374 0.312194 0.310162 0.312352 0.318539 0.327194 0.333736 0.33652 0.336728 0.334914 0.330658 0.324705 0.318257 0.312907 0.312933 0.334726 0.388731 0.476922 0.57244 0.608739 0.583923 0.521472 0.445222 0.346472 0 0.2679 0.309767 0.353103 0.370436 0.376064 0.371547 0.362636 0.351405 0.349076 0.350844 0.356022 0.363952 0.370867 0.374386 0.375032 0.37379 0.370062 0.364389 0.357999 0.352464 0.349681 0.36294 0.405223 0.485673 0.590997 0.658466 0.6502 0.594806 0.51589 0.408673 0 0.326332 0.359264 0.386917 0.398593 0.407084 0.406043 0.401001 0.392777 0.389584 0.390515 0.394496 0.401294 0.407906 0.411592 0.412669 0.41192 0.408945 0.403862 0.3978 0.392416 0.388568 0.392839 0.422741 0.491051 0.594665 0.690434 0.70998 0.667004 0.589381 0.478468 0 0.378138 0.404192 0.421527 0.429632 0.438484 0.441351 0.438582 0.433699 0.43065 0.431119 0.434193 0.439723 0.445532 0.449034 0.450311 0.449942 0.447635 0.443251 0.437716 0.432672 0.428725 0.428188 0.446298 0.497761 0.591055 0.701834 0.756975 0.732717 0.663236 0.556811 0 0.425015 0.445417 0.45617 0.462123 0.469656 0.475039 0.474867 0.472978 0.471704 0.472296 0.474929 0.47936 0.484173 0.487262 0.488497 0.488297 0.486452 0.482696 0.477783 0.473216 0.469604 0.467607 0.474725 0.509249 0.586552 0.697586 0.78573 0.787738 0.734326 0.643673 0 0.468438 0.484208 0.491268 0.496031 0.502053 0.508262 0.51069 0.511233 0.511939 0.513424 0.516033 0.51976 0.523656 0.526275 0.527347 0.52717 0.525572 0.52232 0.51803 0.514039 0.510888 0.508716 0.510222 0.530331 0.587093 0.687326 0.794882 0.833268 0.801149 0.737452 0 0.509588 0.521594 0.526787 0.530871 0.535716 0.541586 0.54617 0.549037 0.551594 0.554149 0.557112 0.560423 0.563604 0.56578 0.56667 0.566497 0.565083 0.562218 0.558489 0.555133 0.552512 0.550726 0.550694 0.558679 0.595925 0.678976 0.79058 0.862998 0.855917 0.83423 0 0.549582 0.558433 0.562695 0.566361 0.570489 0.575797 0.581684 0.586711 0.590833 0.594518 0.597883 0.601107 0.603776 0.605591 0.60631 0.606161 0.60495 0.602465 0.599254 0.596506 0.594446 0.593159 0.592903 0.595298 0.617429 0.678666 0.781119 0.87668 0.895847 0.928559 0 0.589283 0.595301 0.599012 0.602518 0.606484 0.611553 0.61785 0.624409 0.629785 0.634382 0.638283 0.641523 0.644014 0.645558 0.646172 0.646061 0.645082 0.643029 0.640376 0.638207 0.636699 0.63595 0.635969 0.637301 0.647682 0.688381 0.775603 0.879553 0.92689 1.01507 0 0.629065 0.632483 0.635866 0.639556 0.643808 0.648947 0.655282 0.662488 0.668732 0.673876 0.678179 0.681582 0.684076 0.685585 0.686158 0.686099 0.685371 0.683798 0.681786 0.680217 0.6793 0.679103 0.679585 0.681376 0.686684 0.712385 0.779046 0.878342 0.950596 1.07759 0 0.668437 0.669817 0.67305 0.677286 0.68214 0.687597 0.694006 0.701285 0.707885 0.713313 0.717789 0.721343 0.723943 0.725537 0.726205 0.726221 0.725769 0.724723 0.723387 0.722514 0.722285 0.722638 0.723965 0.726704 0.731384 0.746342 0.792922 0.878685 0.969778 1.12429 0 0.69846 0.698504 0.703329 0.710105 0.71752 0.724986 0.73237 0.740105 0.747056 0.752732 0.757351 0.761003 0.763691 0.765412 0.766271 0.766507 0.766357 0.765871 0.765314 0.765238 0.765671 0.766895 0.769255 0.772933 0.778568 0.789357 0.819563 0.885581 0.988996 1.17332 0 0.653429 0.654638 0.665578 0.682666 0.703706 0.726764 0.749681 0.768745 0.782111 0.790425 0.796285 0.800487 0.80343 0.80536 0.806494 0.807081 0.807352 0.80751 0.80781 0.808512 0.80985 0.812102 0.815398 0.820307 0.82804 0.837953 0.853452 0.904061 1.01526 1.21782 0 0.504829 0.506239 0.523565 0.550218 0.584944 0.626635 0.672723 0.72164 0.767941 0.805263 0.827644 0.837685 0.842567 0.845361 0.847025 0.848133 0.849016 0.849929 0.851078 0.852707 0.855046 0.858195 0.862659 0.869789 0.878914 0.886212 0.899742 0.948668 1.05095 1.24138 0 0.201279 0.20546 0.227469 0.264861 0.317201 0.384839 0.466584 0.555767 0.645315 0.725903 0.793906 0.845021 0.873489 0.883797 0.887565 0.889838 0.891601 0.893362 0.895422 0.897993 0.901174 0.905479 0.912246 0.921139 0.928042 0.936998 0.969716 1.01952 1.07253 1.2177 0 -0.237969 -0.237473 -0.216056 -0.180664 -0.123558 -0.0384419 0.0742341 0.210711 0.359862 0.508202 0.641715 0.750747 0.83373 0.891691 0.92175 0.931241 0.934891 0.937949 0.940949 0.944307 0.948702 0.955404 0.963994 0.970537 0.978454 1.00696 1.05716 1.06556 1.05561 1.09568 0 -0.65505 -0.656697 -0.648219 -0.628636 -0.590223 -0.524407 -0.421222 -0.278405 -0.0983131 0.105969 0.313613 0.504517 0.666639 0.791523 0.881795 0.943097 0.973888 0.983124 0.987444 0.992501 0.999322 1.00745 1.01353 1.02107 1.04835 1.1004 1.10568 1.06289 0.974913 0.82451 0 -0.896338 -0.898917 -0.896205 -0.89575 -0.884809 -0.853797 -0.793121 -0.694193 -0.553586 -0.371604 -0.15326 0.0863885 0.321015 0.530995 0.705707 0.837844 0.931968 0.996596 1.03128 1.04487 1.05191 1.05725 1.06532 1.09426 1.14632 1.15088 1.10507 0.995685 0.778289 0.440769 0 -0.944423 -0.929796 -0.931459 -0.947905 -0.957178 -0.95324 -0.928477 -0.876545 -0.796289 -0.685353 -0.538885 -0.351892 -0.127927 0.115336 0.351953 0.565244 0.744991 0.883296 0.982939 1.05109 1.08832 1.1112 1.1507 1.19394 1.19181 1.14542 1.03548 0.809158 0.447175 0.143404 0 -0.768815 -0.757051 -0.790867 -0.803937 -0.822007 -0.837058 -0.842305 -0.833454 -0.806095 -0.75581 -0.679401 -0.576199 -0.444087 -0.275023 -0.067779 0.16069 0.38541 0.594158 0.776329 0.922631 1.03808 1.13199 1.18898 1.20001 1.16834 1.06293 0.836177 0.469598 0.152967 0.024354 0 -0.374747 -0.44336 -0.554238 -0.524866 -0.555549 -0.572376 -0.582634 -0.591926 -0.598797 -0.601295 -0.593785 -0.56728 -0.512973 -0.427427 -0.311241 -0.165426 0.0101069 0.206458 0.413466 0.620484 0.815908 0.977754 1.07895 1.10406 1.04209 0.834913 0.472121 0.156262 0.0261284 0.00166191 0 0.32419 -0.178418 -0.267456 -0.246498 -0.293947 -0.27705 -0.284023 -0.284872 -0.286559 -0.2918 -0.301313 -0.313276 -0.32288 -0.322451 -0.300141 -0.243976 -0.152448 -0.0337711 0.102276 0.2574 0.429467 0.604379 0.753625 0.825144 0.744095 0.446304 0.147581 0.0248557 0.00167016 3.06384e-05 0 4.74255 0 0 0 0 0 0 0 0 0 0 0 0 0 0 0 0 0 0 0 0 0 0 0 0 0 0 0 0 0 0
				</DataArray>
			</PointData>
			<CellData Scalars="Density">
				<DataArray Name="Density" type="Float32" format="ascii">