<?xml version="1.0"?>
<VTKFile type="PolyData">
	<PolyData>
		<Piece NumberOfPoints="961" NumberOfPolys="900">
			<Points>
				<DataArray type="Float32" NumberOfComponents="3" format="ascii">
 0 0 0 0.04 0 0 0.08 0 0 0.12 0 0 0.16 0 0 0.2 0 0 0.24 0 0 0.28 0 0 0.32 0 0 0.36 0 0 0.4 0 0 0.44 0 0 0.48 0 0 0.52 0 0 0.56 0 0 0.6 0 0 0.64 0 0 0.68 0 0 0.72 0 0 0.76 0 0 0.8 0 0 0.84 0 0 0.88 0 0 0.92 0 0 0.96 0 0 1 0 0 1.04 0 0 1.08 0 0 1.12 0 0 1.16 0 0 1.2 0 0 0 0.04 0 0.04 0.04 0 0.08 0.04 0 0.12 0.04 0 0.16 0.04 0 0.2 0.04 0 0.24 0.04 0 0.28 0.04 0 0.32 0.04 0 0.36 0.04 0 0.4 0.04 0 0.44 0.04 0 0.48 0.04 0 0.52 0.04 0 0.56 0.04 0 0.6 0.04 0 0.64 0.04 0 0.68 0.04 0 0.72 0.04 0 0.76 0.04 0 0.8 0.04 0 0.84 0.04 0 0.88 0.04 0 0.92 0.04 0 0.96 0.04 0 1 0.04 0 1.04 0.04 0 1.08 0.04 0 1.12 0.04 0 1.16 0.04 0 1.2 0.04 0 0 0.08 0 0.04 0.08 0 0.08 0.08 0 0.12 0.08 0 0.16 0.08 0 0.2 0.08 0 0.24 0.08 0 0.28 0.08 0 0.32 0.08 0 0.36 0.08 0 0.4 0.08 0 0.44 0.08 0 0.48 0.08 0 0.52 0.08 0 0.56 0.08 0 0.6 0.08 0 0.64 0.08 0 0.68 0.08 0 0.72 0.08 0 0.76 0.08 0 0.8 0.08 0 0.84 0.08 0 0.88 0.08 0 0.92 0.08 0 0.96 0.08 0 1 0.08 0 1.04 0.08 0 1.08 0.08 0 1.12 0.08 0 1.16 0.08 0 1.2 0.08 0 0 0.12 0 0.04 0.12 0 0.08 0.12 0 0.12 0.12 0 0.16 0.12 0 0.2 0.12 0 0.24 0.12 0 0.28 0.12 0 0.32 0.12 0 0.36 0.12 0 0.4 0.12 0 0.44 0.12 0 0.48 0.12 0 0.52 0.12 0 0.56 0.12 0 0.6 0.12 0 0.64 0.12 0 0.68 0.12 0 0.72 0.12 0 0.76 0.12 0 0.8 0.12 0 0.84 0.12 0 0.88 0.12 0 0.92 0.12 0 0.96 0.12 0 1 0.12 0 1.04 0.12 0 1.08 0.12 0 1.12 0.12 0 1.16 0.12 0 1.2 0.12 0 0 0.16 0 0.04 0.16 0 0.08 0.16 0 0.12 0.16 0 0.16 0.16 0 0.2 0.16 0 0.24 0.16 0 0.28 0.16 0 0.32 0.16 0 0.36 0.16 0 0.4 0.16 0 0.44 0.16 0 0.48 0.16 0 0.52 0.16 0 0.56 0.16 0 0.6 0.16 0 0.64 0.16 0 0.68 0.16 0 0.72 0.16 0 0.76 0.16 0 0.8 0.16 0 0.84 0.16 0 0.88 0.16 0 0.92 0.16 0 0.96 0.16 0 1 0.16 0 1.04 0.16 0 1.08 0.16 0 1.12 0.16 0 1.16 0.16 0 1.2 0.16 0 0 0.2 0 0.04 0.2 0 0.08 0.2 0 0.12 0.2 0 0.16 0.2 0 0.2 0.2 0 0.24 0.2 0 0.28 0.2 0 0.32 0.2 0 0.36 0.2 0 0.4 0.2 0 0.44 0.2 0 0.48 0.2 0 0.52 0.2 0 0.56 0.2 0 0.6 0.2 0 0.64 0.2 0 0.68 0.2 0 0.72 0.2 0 0.76 0.2 0 0.8 0.2 0 0.84 0.2 0 0.88 0.2 0 0.92 0.2 0 0.96 0.2 0 1 0.2 0 1.04 0.2 0 1.08 0.2 0 1.12 0.2 0 1.16 0.2 0 1.2 0.2 0 0 0.24 0 0.04 0.24 0 0.08 0.24 0 0.12 0.24 0 0.16 0.24 0 0.2 0.24 0 0.24 0.24 0 0.28 0.24 0 0.32 0.24 0 0.36 0.24 0 0.4 0.24 0 0.44 0.24 0 0.48 0.24 0 0.52 0.24 0 0.56 0.24 0 0.6 0.24 0 0.64 0.24 0 0.68 0.24 0 0.72 0.24 0 0.76 0.24 0 0.8 0.24 0 0.84 0.24 0 0.88 0.24 0 0.92 0.24 0 0.96 0.24 0 1 0.24 0 1.04 0.24 0 1.08 0.24 0 1.12 0.24 0 1.16 0.24 0 1.2 0.24 0 0 0.28 0 0.04 0.28 0 0.08 0.28 0 0.12 0.28 0 0.16 0.28 0 0.2 0.28 0 0.24 0.28 0 0.28 0.28 0 0.32 0.28 0 0.36 0.28 0 0.4 0.28 0 0.44 0.28 0 0.48 0.28 0 0.52 0.28 0 0.56 0.28 0 0.6 0.28 0 0.64 0.28 0 0.68 0.28 0 0.72 0.28 0 0.76 0.28 0 0.8 0.28 0 0.84 0.28 0 0.88 0.28 0 0.92 0.28 0 0.96 0.28 0 1 0.28 0 1.04 0.28 0 1.08 0.28 0 1.12 0.28 0 1.16 0.28 0 1.2 0.28 0 0 0.32 0 0.04 0.32 0 0.08 0.32 0 0.12 0.32 0 0.16 0.32 0 0.2 0.32 0 0.24 0.32 0 0.28 0.32 0 0.32 0.32 0 0.36 0.32 0 0.4 0.32 0 0.44 0.32 0 0.48 0.32 0 0.52 0.32 0 0.56 0.32 0 0.6 0.32 0 0.64 0.32 0 0.68 0.32 0 0.72 0.32 0 0.76 0.32 0 0.8 0.32 0 0.84 0.32 0 0.88 0.32 0 0.92 0.32 0 0.96 0.32 0 1 0.32 0 1.04 0.32 0 1.08 0.32 0 1.12 0.32 0 1.16 0.32 0 1.2 0.32 0 0 0.36 0 0.04 0.36 0 0.08 0.36 0 0.12 0.36 0 0.16 0.36 0 0.2 0.36 0 0.24 0.36 0 0.28 0.36 0 0.32 0.36 0 0.36 0.36 0 0.4 0.36 0 0.44 0.36 0 0.48 0.36 0 0.52 0.36 0 0.56 0.36 0 0.6 0.36 0 0.64 0.36 0 0.68 0.36 0 0.72 0.36 0 0.76 0.36 0 0.8 0.36 0 0.84 0.36 0 0.88 0.36 0 0.92 0.36 0 0.96 0.36 0 1 0.36 0 1.04 0.36 0 1.08 0.36 0 1.12 0.36 0 1.16 0.36 0 1.2 0.36 0 0 0.4 0 0.04 0.4 0 0.08 0.4 0 0.12 0.4 0 0.16 0.4 0 0.2 0.4 0 0.24 0.4 0 0.28 0.4 0 0.32 0.4 0 0.36 0.4 0 0.4 0.4 0 0.44 0.4 0 0.48 0.4 0 0.52 0.4 0 0.56 0.4 0 0.6 0.4 0 0.64 0.4 0 0.68 0.4 0 0.72 0.4 0 0.76 0.4 0 0.8 0.4 0 0.84 0.4 0 0.88 0.4 0 0.92 0.4 0 0.96 0.4 0 1 0.4 0 1.04 0.4 0 1.08 0.4 0 1.12 0.4 0 1.16 0.4 0 1.2 0.4 0 0 0.44 0 0.04 0.44 0 0.08 0.44 0 0.12 0.44 0 0.16 0.44 0 0.2 0.44 0 0.24 0.44 0 0.28 0.44 0 0.32 0.44 0 0.36 0.44 0 0.4 0.44 0 0.44 0.44 0 0.48 0.44 0 0.52 0.44 0 0.56 0.44 0 0.6 0.44 0 0.64 0.44 0 0.68 0.44 0 0.72 0.44 0 0.76 0.44 0 0.8 0.44 0 0.84 0.44 0 0.88 0.44 0 0.92 0.44 0 0.96 0.44 0 1 0.44 0 1.04 0.44 0 1.08 0.44 0 1.12 0.44 0 1.16 0.44 0 1.2 0.44 0 0 0.48 0 0.04 0.48 0 0.08 0.48 0 0.12 0.48 0 0.16 0.48 0 0.2 0.48 0 0.24 0.48 0 0.28 0.48 0 0.32 0.48 0 0.36 0.48 0 0.4 0.48 0 0.44 0.48 0 0.48 0.48 0 0.52 0.48 0 0.56 0.48 0 0.6 0.48 0 0.64 0.48 0 0.68 0.48 0 0.72 0.48 0 0.76 0.48 0 0.8 0.48 0 0.84 0.48 0 0.88 0.48 0 0.92 0.48 0 0.96 0.48 0 1 0.48 0 1.04 0.48 0 1.08 0.48 0 1.12 0.48 0 1.16 0.48 0 1.2 0.48 0 0 0.52 0 0.04 0.52 0 0.08 0.52 0 0.12 0.52 0 0.16 0.52 0 0.2 0.52 0 0.24 0.52 0 0.28 0.52 0 0.32 0.52 0 0.36 0.52 0 0.4 0.52 0 0.44 0.52 0 0.48 0.52 0 0.52 0.52 0 0.56 0.52 0 0.6 0.52 0 0.64 0.52 0 0.68 0.52 0 0.72 0.52 0 0.76 0.52 0 0.8 0.52 0 0.84 0.52 0 0.88 0.52 0 0.92 0.52 0 0.96 0.52 0 1 0.52 0 1.04 0.52 0 1.08 0.52 0 1.12 0.52 0 1.16 0.52 0 1.2 0.52 0 0 0.56 0 0.04 0.56 0 0.08 0.56 0 0.12 0.56 0 0.16 0.56 0 0.2 0.56 0 0.24 0.56 0 0.28 0.56 0 0.32 0.56 0 0.36 0.56 0 0.4 0.56 0 0.44 0.56 0 0.48 0.56 0 0.52 0.56 0 0.56 0.56 0 0.6 0.56 0 0.64 0.56 0 0.68 0.56 0 0.72 0.56 0 0.76 0.56 0 0.8 0.56 0 0.84 0.56 0 0.88 0.56 0 0.92 0.56 0 0.96 0.56 0 1 0.56 0 1.04 0.56 0 1.08 0.56 0 1.12 0.56 0 1.16 0.56 0 1.2 0.56 0 0 0.6 0 0.04 0.6 0 0.08 0.6 0 0.12 0.6 0 0.16 0.6 0 0.2 0.6 0 0.24 0.6 0 0.28 0.6 0 0.32 0.6 0 0.36 0.6 0 0.4 0.6 0 0.44 0.6 0 0.48 0.6 0 0.52 0.6 0 0.56 0.6 0 0.6 0.6 0 0.64 0.6 0 0.68 0.6 0 0.72 0.6 0 0.76 0.6 0 0.8 0.6 0 0.84 0.6 0 0.88 0.6 0 0.92 0.6 0 0.96 0.6 0 1 0.6 0 1.04 0.6 0 1.08 0.6 0 1.12 0.6 0 1.16 0.6 0 1.2 0.6 0 0 0.64 0 0.04 0.64 0 0.08 0.64 0 0.12 0.64 0 0.16 0.64 0 0.2 0.64 0 0.24 0.64 0 0.28 0.64 0 0.32 0.64 0 0.36 0.64 0 0.4 0.64 0 0.44 0.64 0 0.48 0.64 0 0.52 0.64 0 0.56 0.64 0 0.6 0.64 0 0.64 0.64 0 0.68 0.64 0 0.72 0.64 0 0.76 0.64 0 0.8 0.64 0 0.84 0.64 0 0.88 0.64 0 0.92 0.64 0 0.96 0.64 0 1 0.64 0 1.04 0.64 0 1.08 0.64 0 1.12 0.64 0 1.16 0.64 0 1.2 0.64 0 0 0.68 0 0.04 0.68 0 0.08 0.68 0 0.12 0.68 0 0.16 0.68 0 0.2 0.68 0 0.24 0.68 0 0.28 0.68 0 0.32 0.68 0 0.36 0.68 0 0.4 0.68 0 0.44 0.68 0 0.48 0.68 0 0.52 0.68 0 0.56 0.68 0 0.6 0.68 0 0.64 0.68 0 0.68 0.68 0 0.72 0.68 0 0.76 0.68 0 0.8 0.68 0 0.84 0.68 0 0.88 0.68 0 0.92 0.68 0 0.96 0.68 0 1 0.68 0 1.04 0.68 0 1.08 0.68 0 1.12 0.68 0 1.16 0.68 0 1.2 0.68 0 0 0.72 0 0.04 0.72 0 0.08 0.72 0 0.12 0.72 0 0.16 0.72 0 0.2 0.72 0 0.24 0.72 0 0.28 0.72 0 0.32 0.72 0 0.36 0.72 0 0.4 0.72 0 0.44 0.72 0 0.48 0.72 0 0.52 0.72 0 0.56 0.72 0 0.6 0.72 0 0.64 0.72 0 0.68 0.72 0 0.72 0.72 0 0.76 0.72 0 0.8 0.72 0 0.84 0.72 0 0.88 0.72 0 0.92 0.72 0 0.96 0.72 0 1 0.72 0 1.04 0.72 0 1.08 0.72 0 1.12 0.72 0 1.16 0.72 0 1.2 0.72 0 0 0.76 0 0.04 0.76 0 0.08 0.76 0 0.12 0.76 0 0.16 0.76 0 0.2 0.76 0 0.24 0.76 0 0.28 0.76 0 0.32 0.76 0 0.36 0.76 0 0.4 0.76 0 0.44 0.76 0 0.48 0.76 0 0.52 0.76 0 0.56 0.76 0 0.6 0.76 0 0.64 0.76 0 0.68 0.76 0 0.72 0.76 0 0.76 0.76 0 0.8 0.76 0 0.84 0.76 0 0.88 0.76 0 0.92 0.76 0 0.96 0.76 0 1 0.76 0 1.04 0.76 0 1.08 0.76 0 1.12 0.76 0 1.16 0.76 0 1.2 0.76 0 0 0.8 0 0.04 0.8 0 0.08 0.8 0 0.12 0.8 0 0.16 0.8 0 0.2 0.8 0 0.24 0.8 0 0.28 0.8 0 0.32 0.8 0 0.36 0.8 0 0.4 0.8 0 0.44 0.8 0 0.48 0.8 0 0.52 0.8 0 0.56 0.8 0 0.6 0.8 0 0.64 0.8 0 0.68 0.8 0 0.72 0.8 0 0.76 0.8 0 0.8 0.8 0 0.84 0.8 0 0.88 0.8 0 0.92 0.8 0 0.96 0.8 0 1 0.8 0 1.04 0.8 0 1.08 0.8 0 1.12 0.8 0 1.16 0.8 0 1.2 0.8 0 0 0.84 0 0.04 0.84 0 0.08 0.84 0 0.12 0.84 0 0.16 0.84 0 0.2 0.84 0 0.24 0.84 0 0.28 0.84 0 0.32 0.84 0 0.36 0.84 0 0.4 0.84 0 0.44 0.84 0 0.48 0.84 0 0.52 0.84 0 0.56 0.84 0 0.6 0.84 0 0.64 0.84 0 0.68 0.84 0 0.72 0.84 0 0.76 0.84 0 0.8 0.84 0 0.84 0.84 0 0.88 0.84 0 0.92 0.84 0 0.96 0.84 0 1 0.84 0 1.04 0.84 0 1.08 0.84 0 1.12 0.84 0 1.16 0.84 0 1.2 0.84 0 0 0.88 0 0.04 0.88 0 0.08 0.88 0 0.12 0.88 0 0.16 0.88 0 0.2 0.88 0 0.24 0.88 0 0.28 0.88 0 0.32 0.88 0 0.36 0.88 0 0.4 0.88 0 0.44 0.88 0 0.48 0.88 0 0.52 0.88 0 0.56 0.88 0 0.6 0.88 0 0.64 0.88 0 0.68 0.88 0 0.72 0.88 0 0.76 0.88 0 0.8 0.88 0 0.84 0.88 0 0.88 0.88 0 0.92 0.88 0 0.96 0.88 0 1 0.88 0 1.04 0.88 0 1.08 0.88 0 1.12 0.88 0 1.16 0.88 0 1.2 0.88 0 0 0.92 0 0.04 0.92 0 0.08 0.92 0 0.12 0.92 0 0.16 0.92 0 0.2 0.92 0 0.24 0.92 0 0.28 0.92 0 0.32 0.92 0 0.36 0.92 0 0.4 0.92 0 0.44 0.92 0 0.48 0.92 0 0.52 0.92 0 0.56 0.92 0 0.6 0.92 0 0.64 0.92 0 0.68 0.92 0 0.72 0.92 0 0.76 0.92 0 0.8 0.92 0 0.84 0.92 0 0.88 0.92 0 0.92 0.92 0 0.96 0.92 0 1 0.92 0 1.04 0.92 0 1.08 0.92 0 1.12 0.92 0 1.16 0.92 0 1.2 0.92 0 0 0.96 0 0.04 0.96 0 0.08 0.96 0 0.12 0.96 0 0.16 0.96 0 0.2 0.96 0 0.24 0.96 0 0.28 0.96 0 0.32 0.96 0 0.36 0.96 0 0.4 0.96 0 0.44 0.96 0 0.48 0.96 0 0.52 0.96 0 0.56 0.96 0 0.6 0.96 0 0.64 0.96 0 0.68 0.96 0 0.72 0.96 0 0.76 0.96 0 0.8 0.96 0 0.84 0.96 0 0.88 0.96 0 0.92 0.96 0 0.96 0.96 0 1 0.96 0 1.04 0.96 0 1.08 0.96 0 1.12 0.96 0 1.16 0.96 0 1.2 0.96 0 0 1 0 0.04 1 0 0.08 1 0 0.12 1 0 0.16 1 0 0.2 1 0 0.24 1 0 0.28 1 0 0.32 1 0 0.36 1 0 0.4 1 0 0.44 1 0 0.48 1 0 0.52 1 0 0.56 1 0 0.6 1 0 0.64 1 0 0.68 1 0 0.72 1 0 0.76 1 0 0.8 1 0 0.84 1 0 0.88 1 0 0.92 1 0 0.96 1 0 1 1 0 1.04 1 0 1.08 1 0 1.12 1 0 1.16 1 0 1.2 1 0 0 1.04 0 0.04 1.04 0 0.08 1.04 0 0.12 1.04 0 0.16 1.04 0 0.2 1.04 0 0.24 1.04 0 0.28 1.04 0 0.32 1.04 0 0.36 1.04 0 0.4 1.04 0 0.44 1.04 0 0.48 1.04 0 0.52 1.04 0 0.56 1.04 0 0.6 1.04 0 0.64 1.04 0 0.68 1.04 0 0.72 1.04 0 0.76 1.04 0 0.8 1.04 0 0.84 1.04 0 0.88 1.04 0 0.92 1.04 0 0.96 1.04 0 1 1.04 0 1.04 1.04 0 1.08 1.04 0 1.12 1.04 0 1.16 1.04 0 1.2 1.04 0 0 1.08 0 0.04 1.08 0 0.08 1.08 0 0.12 1.08 0 0.16 1.08 0 0.2 1.08 0 0.24 1.08 0 0.28 1.08 0 0.32 1.08 0 0.36 1.08 0 0.4 1.08 0 0.44 1.08 0 0.48 1.08 0 0.52 1.08 0 0.56 1.08 0 0.6 1.08 0 0.64 1.08 0 0.68 1.08 0 0.72 1.08 0 0.76 1.08 0 0.8 1.08 0 0.84 1.08 0 0.88 1.08 0 0.92 1.08 0 0.96 1.08 0 1 1.08 0 1.04 1.08 0 1.08 1.08 0 1.12 1.08 0 1.16 1.08 0 1.2 1.08 0 0 1.12 0 
[...]
			<PointData Scalars="VitesseX">
				<DataArray Name="VitesseX" type="Float32" format="ascii">
 0 -0.0600437 -0.101779 -0.029276 0.11137 0.264929 0.36694 0.391941 0.354326 0.306011 0.26163 0.236796 0.239067 0.263507 0.301409 0.344519 0.387759 0.429152 0.440322 0.273969 -0.199554 -0.637842 -0.789785 -0.708897 -0.610329 -0.513377 -0.415326 -0.31477 -0.211141 -0.10468 0 0 0.0587921 0.0534397 0.0876163 0.170438 0.266148 0.336212 0.335357 0.294137 0.250381 0.222839 0.21335 0.223845 0.253093 0.294276 0.339666 0.384567 0.426521 0.438458 0.275458 -0.194293 -0.633757 -0.788615 -0.709412 -0.610856 -0.513981 -0.41596 -0.315332 -0.21151 -0.104826 0 0 -0.0154226 -0.0166212 -0.0239365 -0.0197474 0.00353939 0.0357248 0.0710445 0.097462 0.110923 0.122844 0.144465 0.177315 0.221287 0.272258 0.324277 0.373597 0.417367 0.431945 0.279355 -0.178391 -0.620533 -0.783799 -0.709835 -0.611123 -0.514343 -0.416415 -0.3158 -0.211921 -0.105073 0 0 -0.0963601 -0.151025 -0.169706 -0.179777 -0.188757 -0.178233 -0.138137 -0.0845425 -0.0345691 0.0118745 0.0607334 0.114652 0.172334 0.232948 0.293465 0.349512 0.396955 0.417175 0.282143 -0.153484 -0.597645 -0.774362 -0.710527 -0.611406 -0.514672 -0.416847 -0.31634 -0.212484 -0.105421 0 0 -0.135307 -0.206525 -0.235635 -0.254958 -0.271408 -0.272825 -0.239777 -0.184014 -0.123298 -0.066035 -0.00896098 0.0502996 0.111999 0.177564 0.24446 0.306696 0.359422 0.388689 0.278239 -0.12246 -0.563794 -0.757916 -0.711666 -0.611867 -0.515107 -0.417389 -0.317061 -0.213228 -0.105869 0 0 -0.128256 -0.207108 -0.24607 -0.266837 -0.279821 -0.285329 -0.270284 -0.230199 -0.176963 -0.11828 -0.0612979 -0.00478658 0.0533221 0.114615 0.180407 0.246479 0.303853 0.34294 0.262459 -0.0885311 -0.516594 -0.730113 -0.712999 -0.612529 -0.515653 -0.418014 -0.317896 -0.214102 -0.106362 0 0 -0.0907618 -0.157235 -0.196604 -0.212055 -0.222221 -0.234383 -0.241288 -0.2315 -0.198857 -0.151525 -0.0996733 -0.0486989 0.00245376 0.0554289 0.113453 0.175471 0.234249 0.278976 0.23041 -0.0556997 -0.453284 -0.68608 -0.711369 -0.613266 -0.516283 -0.418683 -0.318806 -0.215109 -0.106925 0 0 -0.0171676 -0.0350384 -0.0648691 -0.0993719 -0.129131 -0.150709 -0.169624 -0.18644 -0.187572 -0.163708 -0.125582 -0.0835743 -0.0409509 0.00267077 0.0505342 0.103832 0.157752 0.19971 0.178885 -0.0290208 -0.373296 -0.624015 -0.695869 -0.61367 -0.516982 -0.419377 -0.319776 -0.216281 -0.107654 0 0 0.0505126 0.0715271 0.0437984 -0.00462678 -0.0538212 -0.0889705 -0.113638 -0.135527 -0.153773 -0.1581 -0.142052 -0.113033 -0.0802138 -0.0453974 -0.00801948 0.0348718 0.0809994 0.11292 0.108275 -0.0172351 -0.283781 -0.538031 -0.652111 -0.612689 -0.517631 -0.420087 -0.320807 -0.217624 -0.108675 0 0 0.0610986 0.096148 0.0822924 0.0386666 -0.0139478 -0.0620111 -0.0904944 -0.109156 -0.131312 -0.150213 -0.155035 -0.143477 -0.119568 -0.0925239 -0.0640439 -0.0319318 0.00360506 0.0261215 0.0228034 -0.0305109 -0.19886 -0.425727 -0.571821 -0.598477 -0.517078 -0.420807 -0.32188 -0.219096 -0.109971 0 0 0.0558849 0.0848268 0.0722769 0.0330049 -0.0158774 -0.0650933 -0.107379 -0.131922 -0.147414 -0.165801 -0.181804 -0.184544 -0.171696 -0.147647 -0.123372 -0.098446 -0.076097 -0.0618101 -0.0697984 -0.0764346 -0.138217 -0.296707 -0.460117 -0.543584 -0.511591 -0.421003 -0.322872 -0.2206 -0.111408 0 0 0.0379162 0.051957 0.035071 -0.00567261 -0.0559074 -0.106599 -0.152102 -0.187499 -0.207889 -0.222052 -0.236778 -0.248383 -0.246284 -0.22642 -0.196289 -0.172983 -0.156498 -0.153312 -0.159322 -0.153221 -0.12873 -0.177446 -0.319401 -0.439745 -0.480835 -0.418086 -0.323538 -0.22198 -0.11286 0 0 0.0109347 0.00700968 -0.0204668 -0.0668684 -0.118841 -0.1685 -0.213183 -0.25009 -0.278783 -0.298939 -0.314164 -0.326526 -0.335063 -0.3308 -0.307867 -0.273219 -0.252931 -0.246873 -0.246124 -0.23951 -0.175018 -0.108035 -0.168189 -0.300886 -0.395876 -0.400626 -0.322198 -0.222996 -0.114252 0 0 -0.0151805 -0.0397346 -0.0814964 -0.134782 -0.189913 -0.238854 -0.278571 -0.311589 -0.341837 -0.371102 -0.394671 -0.412973 -0.427219 -0.435634 -0.431303 -0.411622 -0.38002 -0.356133 -0.339552 -0.317604 -0.253463 -0.109292 -0.0545373 -0.138155 -0.263212 -0.337528 -0.312297 -0.222749 -0.11543 0 0 -0.0356982 -0.079229 -0.133372 -0.195739 -0.254881 -0.302598 -0.338377 -0.365983 -0.391141 -0.421799 -0.459007 -0.49192 -0.517574 -0.538108 -0.550399 -0.551853 -0.534189 -0.498829 -0.451185 -0.395217 -0.323487 -0.172602 -0.0171274 0.00371313 -0.099471 -0.216102 -0.267936 -0.217459 -0.115892 0 0 -0.0513661 -0.107178 -0.173361 -0.24186 -0.301256 -0.346997 -0.380374 -0.404443 -0.425812 -0.452151 -0.492806 -0.543507 -0.591293 -0.629967 -0.662344 -0.681019 -0.68246 -0.648151 -0.586445 -0.491873 -0.370166 -0.251309 -0.0602949 0.0757396 0.06078 -0.0556008 -0.1623 -0.187703 -0.113263 0 0 -0.0625058 -0.124954 -0.185959 -0.246147 -0.301409 -0.347661 -0.3843 -0.413795 -0.43858 -0.464791 -0.502777 -0.562933 -0.630022 -0.695169 -0.752496 -0.792648 -0.805813 -0.78219 -0.715101 -0.599315 -0.43452 -0.291608 -0.153756 0.0615255 0.160028 0.116983 -0.00654674 -0.100972 -0.0941537 0 0 -0.069473 -0.128062 -0.180599 -0.229699 -0.275364 -0.316113 -0.35216 -0.38574 -0.420026 -0.455749 -0.497204 -0.549868 -0.632553 -0.723345 -0.80162 -0.863082 -0.894365 -0.887336 -0.815743 -0.69043 -0.523329 -0.336541 -0.201264 -0.0355827 0.175217 0.237356 0.172872 0.0455761 -0.0249899 0 0 -0.0690058 -0.120308 -0.156779 -0.188309 -0.218646 -0.252535 -0.290285 -0.329896 -0.374019 -0.423088 -0.472912 -0.533181 -0.601695 -0.692108 -0.797813 -0.888026 -0.936935 -0.941694 -0.876659 -0.754857 -0.603944 -0.417177 -0.225477 -0.117422 0.103386 0.278018 0.305684 0.22238 0.107336 0 0 -0.055457 -0.0935733 -0.112239 -0.125291 -0.142588 -0.174835 -0.221876 -0.274618 -0.326492 -0.379218 -0.435711 -0.49273 -0.563258 -0.645408 -0.739252 -0.827915 -0.89618 -0.924529 -0.895223 -0.791014 -0.656735 -0.497727 -0.301016 -0.13007 -0.0107096 0.232972 0.357033 0.347338 0.255857 0 0 -0.0212995 -0.0437707 -0.0555717 -0.0606548 -0.0749976 -0.107291 -0.161614 -0.230691 -0.294664 -0.346625 -0.393475 -0.443546 -0.50767 -0.584443 -0.665008 -0.739597 -0.801304 -0.833564 -0.833477 -0.793372 -0.687999 -0.555021 -0.388965 -0.164984 -0.0674295 0.115864 0.327518 0.369417 0.319499 0 0 0.00851567 -0.00337729 -0.0147193 -0.0235888 -0.0340966 -0.0585284 -0.108247 -0.178291 -0.250679 -0.311504 -0.360382 -0.4082 -0.446509 -0.502043 -0.57212 -0.634261 -0.690183 -0.731475 -0.748611 -0.736551 -0.687494 -0.583287 -0.449044 -0.285293 -0.0873217 0.00663274 0.206889 0.301625 0.27961 0 0 0.00902475 -7.0545e-05 0.000127856 -0.00971901 -0.00778118 -0.0192064 -0.0525697 -0.102472 -0.163855 -0.232248 -0.304061 -0.368817 -0.410122 -0.434779 -0.466763 -0.524984 -0.584582 -0.622445 -0.654521 -0.671759 -0.650961 -0.596497 -0.498734 -0.394901 -0.185544 -0.0780894 0.0341573 0.15535 0.170226 0 0 -0.00609132 -0.0103353 -0.007277 -0.00598187 0.0127231 0.00852397 -0.00569943 -0.0224226 -0.0531828 -0.108057 -0.189095 -0.280642 -0.361812 -0.403843 -0.415673 -0.422636 -0.4583 -0.523722 -0.567447 -0.58121 -0.596187 -0.607438 -0.559525 -0.483753 -0.376212 -0.208491 -0.136776 -0.042149 0.0444359 0 0 -0.0200865 -0.015484 -0.0234715 -0.0091503 0.0131982 0.0118333 0.0139833 0.0251713 0.0332048 0.00740732 -0.0546944 -0.146244 -0.250656 -0.341185 -0.390942 -0.396709 -0.384993 -0.398908 -0.442874 -0.506029 -0.549485 -0.577353 -0.612567 -0.598219 -0.570041 -0.421339 -0.303037 -0.212284 -0.0817258 0 0 -0.0284752 -0.028552 -0.037803 -0.0224142 -0.00717016 -0.00779633 0.00560416 0.0338255 0.0659826 0.0687256 0.0379787 -0.0238309 -0.110055 -0.214408 -0.310583 -0.372803 -0.382066 -0.361554 -0.349451 -0.387702 -0.459787 -0.552773 -0.641618 -0.692055 -0.694178 -0.594579 -0.4379 -0.319216 -0.186226 0 0 -0.030131 -0.0470962 -0.0459474 -0.0418784 -0.0316555 -0.0272979 -0.0144041 0.0143835 0.045761 0.0632409 0.0612977 0.0386685 -0.00722529 -0.0792222 -0.176189 -0.277635 -0.350811 -0.372414 -0.361542 -0.345083 -0.370808 -0.486402 -0.64143 -0.726278 -0.728966 -0.654038 -0.51161 -0.369844 -0.242891 0 0 -0.0464728 -0.0607012 -0.077807 -0.060907 -0.0548756 -0.0437258 -0.0300423 -0.00625459 0.0128106 0.0182589 0.0148327 0.0158067 0.0151383 -0.00208533 -0.056998 -0.147186 -0.254022 -0.339203 -0.383434 -0.389506 -0.403971 -0.470126 -0.602549 -0.700592 -0.706445 -0.646504 -0.529057 -0.394067 -0.24261 0 0 -0.0616538 -0.129656 -0.10178 -0.0862761 -0.0670124 -0.0593507 -0.0339372 -0.017249 -0.0093224 -0.0189516 -0.0311185 -0.0359116 -0.0298383 -0.0212678 -0.0283247 -0.0688892 -0.155139 -0.270302 -0.376795 -0.454404 -0.510437 -0.566438 -0.639182 -0.674391 -0.65322 -0.587673 -0.512459 -0.406358 -0.205949 0 0 -0.375714 -0.164531 -0.108934 -0.0923998 -0.0849303 -0.0563651 -0.0339664 -0.0138799 -0.016649 -0.0353392 -0.0546179 -0.06253 -0.059969 -0.0513332 -0.0428912 -0.0514817 -0.105314 -0.230757 -0.41519 -0.603788 -0.741137 -0.812059 -0.825849 -0.779205 -0.642631 -0.485691 -0.375197 -0.311103 -0.278125 0 0 0 0 0 0 0 0 0 0 0 0 0 0 0 0 0 0 0 0 0 0 0 0 0 0 0 0 0 0 0 0
				</DataArray>
				<DataArray Name="VitesseY" type="Float32" format="ascii">
 0 0 0 0 0 0 0 0 0 0 0 0 0 0 0 0 0 0 0 0 0 0 0 0 0 0 0 0 0 0 0 -0.05484 0.066872 -0.00905216 -0.0868333 -0.12596 -0.112513 -0.0486143 0.03549 0.0543354 0.0487245 0.0342813 0.0114428 -0.0124513 -0.0288771 -0.0367402 -0.0364838 -0.0334992 -0.02848 -0.0225672 -0.0142343 -0.00227209 0.00852768 0.0138215 0.0139348 0.0119724 0.00953812 0.00609397 0.00163036 -0.00191513 -0.00359238 0 -0.089209 0.0685922 0.00658769 -0.118611 -0.17045 -0.176217 -0.0761409 0.0396095 0.0760867 0.0682854 0.0414417 0.00353333 -0.0362833 -0.0660016 -0.0786211 -0.077042 -0.0694809 -0.0580483 -0.0453215 -0.0289046 -0.00568047 0.0160606 0.0272899 0.0280535 0.024177 0.019351 0.0124036 0.00330945 -0.00385742 -0.00720796 0 -0.0109711 0.112882 0.0288575 -0.104269 -0.168199 -0.182045 -0.102156 0.00120789 0.0454742 0.0465131 0.0159541 -0.0302583 -0.0778513 -0.114345 -0.129159 -0.124802 -0.11043 -0.0906622 -0.0699216 -0.0456056 -0.0120224 0.0211618 0.039874 0.0424432 0.0366984 0.0295192 0.0190342 0.00520533 -0.00564978 -0.0107188 0 0.131459 0.212678 0.0656308 -0.0825775 -0.149924 -0.164312 -0.11824 -0.044996 -0.00678613 -0.000983105 -0.0292996 -0.0800522 -0.130278 -0.169953 -0.18802 -0.180278 -0.158397 -0.129352 -0.0999905 -0.0679624 -0.0244576 0.0215034 0.050598 0.0569242 0.0495258 0.0400937 0.0262067 0.00757928 -0.00712323 -0.0139959 0 0.293369 0.324978 0.114097 -0.0522723 -0.129618 -0.144539 -0.120488 -0.0801508 -0.0566733 -0.0542525 -0.0812729 -0.131469 -0.184066 -0.225649 -0.248645 -0.241584 -0.21398 -0.176307 -0.139415 -0.100724 -0.0475511 0.0135513 0.0577512 0.0710135 0.0627618 0.0512209 0.0341846 0.010665 -0.00820173 -0.0170582 0 0.426775 0.42146 0.17383 -0.022922 -0.112113 -0.128317 -0.108449 -0.0896987 -0.0863824 -0.0999036 -0.131199 -0.180248 -0.2329 -0.27671 -0.303383 -0.303045 -0.274641 -0.230896 -0.189443 -0.147039 -0.086161 -0.0079044 0.0563627 0.0818637 0.0764719 0.0629388 0.0430498 0.0146147 -0.00884861 -0.0200109 0 0.496701 0.470502 0.220181 0.0108662 -0.0852499 -0.104565 -0.0879039 -0.0738346 -0.0847818 -0.122777 -0.169582 -0.222098 -0.275021 -0.320482 -0.350059 -0.358488 -0.334111 -0.289609 -0.246928 -0.206307 -0.143008 -0.0489481 0.0389527 0.0845196 0.0904565 0.0752535 0.0529038 0.0196757 -0.00888408 -0.0228276 0 0.491904 0.452911 0.245651 0.0538688 -0.0344689 -0.0657403 -0.0593977 -0.0482834 -0.061418 -0.116876 -0.185547 -0.25139 -0.308953 -0.356137 -0.389384 -0.404143 -0.388988 -0.349155 -0.3061 -0.271924 -0.214832 -0.113595 -0.000604254 0.0768056 0.102161 0.0882581 0.0638841 0.0261887 -0.00797359 -0.0252169 0 0.442426 0.401784 0.251631 0.100371 0.0218675 -0.00969744 -0.0216459 -0.0226045 -0.0366 -0.0918703 -0.178349 -0.262016 -0.333084 -0.385365 -0.42167 -0.441251 -0.437663 -0.407236 -0.365409 -0.333077 -0.290972 -0.198091 -0.0673013 0.0453235 0.099258 0.101454 0.0760797 0.0345388 -0.005674 -0.0267207 0 0.387603 0.350316 0.249938 0.139239 0.0768091 0.0474425 0.0289723 0.00757647 -0.0140235 -0.0678056 -0.157078 -0.25605 -0.34439 -0.410446 -0.450981 -0.473747 -0.480554 -0.461048 -0.42531 -0.388494 -0.35614 -0.28852 -0.160229 -0.0196872 0.0769479 0.110243 0.0890715 0.0450747 -0.00155821 -0.0269301 0 0.33908 0.315865 0.252264 0.177222 0.129632 0.104409 0.0821934 0.0518776 0.0107339 -0.0484198 -0.137213 -0.241579 -0.344122 -0.429006 -0.484554 -0.510324 -0.520303 -0.511265 -0.482361 -0.442997 -0.407378 -0.364695 -0.265802 -0.115278 0.0213804 0.0951608 0.101823 0.0577862 0.00464617 -0.0256373 0 0.313668 0.303299 0.265552 0.219059 0.185509 0.16111 0.135781 0.0976731 0.0455291 -0.0274356 -0.120016 -0.228089 -0.336599 -0.437937 -0.514965 -0.557927 -0.570013 -0.562362 -0.539736 -0.497398 -0.454274 -0.420399 -0.357637 -0.228403 -0.0698 0.0514831 0.100988 0.0712323 0.0129219 -0.0228645 0 0.318343 0.313495 0.294411 0.269829 0.244621 0.218991 0.185677 0.140486 0.0792067 0.00180229 -0.0988804 -0.213112 -0.328309 -0.438136 -0.534761 -0.602292 -0.634885 -0.629742 -0.60498 -0.560996 -0.500005 -0.451286 -0.413385 -0.330345 -0.18523 -0.0307606 0.0680847 0.0809018 0.0223713 -0.0188514 0 0.34705 0.345932 0.34027 0.330011 0.309805 0.277159 0.232465 0.175641 0.108721 0.0288302 -0.0682302 -0.189901 -0.314344 -0.435139 -0.544482 -0.636414 -0.694157 -0.716123 -0.680178 -0.63318 -0.563871 -0.48201 -0.432291 -0.393723 -0.294729 -0.14332 -0.00437656 0.0643025 0.0296451 -0.014293 0 0.39419 0.395933 0.399717 0.400475 0.37952 0.334331 0.275243 0.206148 0.130812 0.0508661 -0.0397432 -0.153725 -0.288998 -0.421757 -0.549157 -0.659549 -0.744762 -0.788207 -0.773399 -0.714344 -0.638604 -0.537667 -0.442727 -0.407908 -0.369583 -0.259548 -0.11048 0.00439004 0.0205903 -0.0120486 0 0.456112 0.457749 0.465846 0.471493 0.446624 0.389507 0.316565 0.235589 0.152069 0.068034 -0.0182118 -0.118198 -0.24742 -0.397618 -0.539642 -0.671146 -0.778419 -0.840443 -0.857709 -0.793812 -0.703298 -0.601717 -0.486599 -0.402433 -0.384224 -0.344407 -0.231242 -0.0954124 -0.0250731 -0.0250312 0 0.530155 0.526253 0.529213 0.532363 0.504328 0.438663 0.355821 0.265813 0.175371 0.086865 -0.00068165 -0.0931316 -0.210296 -0.355611 -0.515176 -0.664286 -0.785406 -0.867414 -0.904354 -0.856779 -0.7612 -0.655329 -0.552163 -0.427932 -0.371491 -0.368119 -0.323908 -0.217516 -0.119202 -0.0818279 0 0.610243 0.595473 0.581686 0.578632 0.545399 0.475348 0.38982 0.293336 0.198771 0.107091 0.0140924 -0.0811804 -0.188776 -0.316369 -0.471177 -0.622534 -0.757541 -0.860876 -0.912259 -0.884765 -0.797794 -0.698211 -0.598257 -0.494592 -0.377318 -0.352908 -0.360478 -0.318502 -0.245379 -0.210275 0 0.675627 0.64759 0.606523 0.593351 0.556015 0.489264 0.410305 0.313708 0.209884 0.112306 0.0174705 -0.0796471 -0.176876 -0.285215 -0.413711 -0.556003 -0.690845 -0.794368 -0.852486 -0.868248 -0.803727 -0.71958 -0.630156 -0.549557 -0.423779 -0.337878 -0.355278 -0.374527 -0.363758 -0.400286 0 0.625223 0.590641 0.521879 0.505245 0.468855 0.412665 0.353402 0.276581 0.185079 0.0951563 0.00722641 -0.0788483 -0.162272 -0.249828 -0.35232 -0.469812 -0.580187 -0.671676 -0.738431 -0.773832 -0.770606 -0.715728 -0.651094 -0.567538 -0.492743 -0.375145 -0.339682 -0.385319 -0.448573 -0.595913 0 0.292498 0.266374 0.179591 0.160257 0.132373 0.101827 0.0839193 0.0641698 0.0370429 0.0158465 -0.00608798 -0.0536262 -0.133842 -0.217268 -0.279157 -0.340581 -0.426859 -0.516938 -0.59314 -0.64476 -0.676229 -0.673817 -0.637052 -0.584715 -0.541501 -0.451569 -0.364775 -0.401086 -0.508332 -0.738428 0 -0.258153 -0.250591 -0.305233 -0.315965 -0.333872 -0.332901 -0.314369 -0.283937 -0.239018 -0.176421 -0.101842 -0.0436905 -0.0324136 -0.0790079 -0.168848 -0.231014 -0.267076 -0.331678 -0.415177 -0.490927 -0.547679 -0.57705 -0.590112 -0.597132 -0.57118 -0.548617 -0.481466 -0.467548 -0.565603 -0.811747 0 -0.554752 -0.531462 -0.555351 -0.556918 -0.576335 -0.567366 -0.550241 -0.525209 -0.474763 -0.390669 -0.276869 -0.146476 -0.0321332 0.0274013 0.0190424 -0.0623554 -0.152728 -0.182755 -0.215189 -0.30453 -0.385651 -0.442118 -0.495129 -0.558359 -0.608896 -0.639004 -0.639829 -0.6008 -0.638679 -0.826183 0 -0.528338 -0.509835 -0.52808 -0.532387 -0.557804 -0.565969 -0.578224 -0.580361 -0.56141 -0.507132 -0.415459 -0.298915 -0.158269 -0.0167241 0.0816027 0.111751 0.0654391 -0.0453128 -0.112123 -0.118194 -0.163222 -0.288751 -0.392824 -0.480074 -0.596499 -0.691074 -0.725688 -0.700151 -0.674304 -0.779792 0 -0.390032 -0.385933 -0.417976 -0.430851 -0.457507 -0.471925 -0.487435 -0.493447 -0.491454 -0.484365 -0.459461 -0.39568 -0.294809 -0.162208 -0.00773205 0.123344 0.190505 0.183495 0.0955807 -0.0147342 -0.0633275 -0.0829878 -0.186498 -0.378038 -0.569597 -0.693349 -0.728647 -0.706545 -0.653432 -0.643072 0 -0.244487 -0.262447 -0.308141 -0.332552 -0.362313 -0.381122 -0.397328 -0.400042 -0.398469 -0.395802 -0.39563 -0.392454 -0.361523 -0.280968 -0.155906 0.0037753 0.161611 0.261514 0.287284 0.230654 0.11108 0.00599067 -0.0765373 -0.208167 -0.422244 -0.595063 -0.65421 -0.646733 -0.587957 -0.485947 0 -0.0800373 -0.138537 -0.19347 -0.229763 -0.273897 -0.288731 -0.303337 -0.304359 -0.302175 -0.300161 -0.303975 -0.312203 -0.318939 -0.308116 -0.250393 -0.134181 0.0271728 0.201876 0.322487 0.364878 0.328906 0.204397 0.0322755 -0.137217 -0.303221 -0.438191 -0.511847 -0.529252 -0.512659 -0.375368 0 0.0513712 0.0455015 -0.0955439 -0.14 -0.188545 -0.197648 -0.20889 -0.208261 -0.200834 -0.1988 -0.204353 -0.214928 -0.223833 -0.229466 -0.225346 -0.189187 -0.0920334 0.0620983 0.239113 0.356846 0.37371 0.302698 0.154386 -0.0434715 -0.212997 -0.319474 -0.369954 -0.394143 -0.406429 -0.311195 0 0.646376 0.097574 -0.0740066 -0.059485 -0.103994 -0.0953919 -0.125721 -0.10231 -0.100728 -0.0927038 -0.0989136 -0.106405 -0.115687 -0.120506 -0.122964 -0.120643 -0.0991537 -0.0239136 0.114655 0.263537 0.323019 0.279964 0.169356 0.0436387 -0.0821258 -0.18636 -0.242921 -0.242627 -0.205966 -0.278154 0 5.45296 0 0 0 0 0 0 0 0 0 0 0 0 0 0 0 0 0 0 0 0 0 0 0 0 0 0 0 0 0 0
				</DataArray>
			</PointData>
			<CellData Scalars="Density">
				<DataArray Name="Density" type="Float32" format="ascii">