<?xml version="1.0"?>
<VTKFile type="PolyData">
	<PolyData>
		<Piece NumberOfPoints="961" NumberOfPolys="900">
			<Points>
				<DataArray type="Float32" NumberOfComponents="3" format="ascii">
 0 0 0 0.04 0 0 0.08 0 0 0.12 0 0 0.16 0 0 0.2 0 0 0.24 0 0 0.28 0 0 0.32 0 0 0.36 0 0 0.4 0 0 0.44 0 0 0.48 0 0 0.52 0 0 0.56 0 0 0.6 0 0 0.64 0 0 0.68 0 0 0.72 0 0 0.76 0 0 0.8 0 0 0.84 0 0 0.88 0 0 0.92 0 0 0.96 0 0 1 0 0 1.04 0 0 1.08 0 0 1.12 0 0 1.16 0 0 1.2 0 0 0 0.04 0 0.04 0.04 0 0.08 0.04 0 0.12 0.04 0 0.16 0.04 0 0.2 0.04 0 0.24 0.04 0 0.28 0.04 0 0.32 0.04 0 0.36 0.04 0 0.4 0.04 0 0.44 0.04 0 0.48 0.04 0 0.52 0.04 0 0.56 0.04 0 0.6 0.04 0 0.64 0.04 0 0.68 0.04 0 0.72 0.04 0 0.76 0.04 0 0.8 0.04 0 0.84 0.04 0 0.88 0.04 0 0.92 0.04 0 0.96 0.04 0 1 0.04 0 1.04 0.04 0 1.08 0.04 0 1.12 0.04 0 1.16 0.04 0 1.2 0.04 0 0 0.08 0 0.04 0.08 0 0.08 0.08 0 0.12 0.08 0 0.16 0.08 0 0.2 0.08 0 0.24 0.08 0 0.28 0.08 0 0.32 0.08 0 0.36 0.08 0 0.4 0.08 0 0.44 0.08 0 0.48 0.08 0 0.52 0.08 0 0.56 0.08 0 0.6 0.08 0 0.64 0.08 0 0.68 0.08 0 0.72 0.08 0 0.76 0.08 0 0.8 0.08 0 0.84 0.08 0 0.88 0.08 0 0.92 0.08 0 0.96 0.08 0 1 0.08 0 1.04 0.08 0 1.08 0.08 0 1.12 0.08 0 1.16 0.08 0 1.2 0.08 0 0 0.12 0 0.04 0.12 0 0.08 0.12 0 0.12 0.12 0 0.16 0.12 0 0.2 0.12 0 0.24 0.12 0 0.28 0.12 0 0.32 0.12 0 0.36 0.12 0 0.4 0.12 0 0.44 0.12 0 0.48 0.12 0 0.52 0.12 0 0.56 0.12 0 0.6 0.12 0 0.64 0.12 0 0.68 0.12 0 0.72 0.12 0 0.76 0.12 0 0.8 0.12 0 0.84 0.12 0 0.88 0.12 0 0.92 0.12 0 0.96 0.12 0 1 0.12 0 1.04 0.12 0 1.08 0.12 0 1.12 0.12 0 1.16 0.12 0 1.2 0.12 0 0 0.16 0 0.04 0.16 0 0.08 0.16 0 0.12 0.16 0 0.16 0.16 0 0.2 0.16 0 0.24 0.16 0 0.28 0.16 0 0.32 0.16 0 0.36 0.16 0 0.4 0.16 0 0.44 0.16 0 0.48 0.16 0 0.52 0.16 0 0.56 0.16 0 0.6 0.16 0 0.64 0.16 0 0.68 0.16 0 0.72 0.16 0 0.76 0.16 0 0.8 0.16 0 0.84 0.16 0 0.88 0.16 0 0.92 0.16 0 0.96 0.16 0 1 0.16 0 1.04 0.16 0 1.08 0.16 0 1.12 0.16 0 1.16 0.16 0 1.2 0.16 0 0 0.2 0 0.04 0.2 0 0.08 0.2 0 0.12 0.2 0 0.16 0.2 0 0.2 0.2 0 0.24 0.2 0 0.28 0.2 0 0.32 0.2 0 0.36 0.2 0 0.4 0.2 0 0.44 0.2 0 0.48 0.2 0 0.52 0.2 0 0.56 0.2 0 0.6 0.2 0 0.64 0.2 0 0.68 0.2 0 0.72 0.2 0 0.76 0.2 0 0.8 0.2 0 0.84 0.2 0 0.88 0.2 0 0.92 0.2 0 0.96 0.2 0 1 0.2 0 1.04 0.2 0 1.08 0.2 0 1.12 0.2 0 1.16 0.2 0 1.2 0.2 0 0 0.24 0 0.04 0.24 0 0.08 0.24 0 0.12 0.24 0 0.16 0.24 0 0.2 0.24 0 0.24 0.24 0 0.28 0.24 0 0.32 0.24 0 0.36 0.24 0 0.4 0.24 0 0.44 0.24 0 0.48 0.24 0 0.52 0.24 0 0.56 0.24 0 0.6 0.24 0 0.64 0.24 0 0.68 0.24 0 0.72 0.24 0 0.76 0.24 0 0.8 0.24 0 0.84 0.24 0 0.88 0.24 0 0.92 0.24 0 0.96 0.24 0 1 0.24 0 1.04 0.24 0 1.08 0.24 0 1.12 0.24 0 1.16 0.24 0 1.2 0.24 0 0 0.28 0 0.04 0.28 0 0.08 0.28 0 0.12 0.28 0 0.16 0.28 0 0.2 0.28 0 0.24 0.28 0 0.28 0.28 0 0.32 0.28 0 0.36 0.28 0 0.4 0.28 0 0.44 0.28 0 0.48 0.28 0 0.52 0.28 0 0.56 0.28 0 0.6 0.28 0 0.64 0.28 0 0.68 0.28 0 0.72 0.28 0 0.76 0.28 0 0.8 0.28 0 0.84 0.28 0 0.88 0.28 0 0.92 0.28 0 0.96 0.28 0 1 0.28 0 1.04 0.28 0 1.08 0.28 0 1.12 0.28 0 1.16 0.28 0 1.2 0.28 0 0 0.32 0 0.04 0.32 0 0.08 0.32 0 0.12 0.32 0 0.16 0.32 0 0.2 0.32 0 0.24 0.32 0 0.28 0.32 0 0.32 0.32 0 0.36 0.32 0 0.4 0.32 0 0.44 0.32 0 0.48 0.32 0 0.52 0.32 0 0.56 0.32 0 0.6 0.32 0 0.64 0.32 0 0.68 0.32 0 0.72 0.32 0 0.76 0.32 0 0.8 0.32 0 0.84 0.32 0 0.88 0.32 0 0.92 0.32 0 0.96 0.32 0 1 0.32 0 1.04 0.32 0 1.08 0.32 0 1.12 0.32 0 1.16 0.32 0 1.2 0.32 0 0 0.36 0 0.04 0.36 0 0.08 0.36 0 0.12 0.36 0 0.16 0.36 0 0.2 0.36 0 0.24 0.36 0 0.28 0.36 0 0.32 0.36 0 0.36 0.36 0 0.4 0.36 0 0.44 0.36 0 0.48 0.36 0 0.52 0.36 0 0.56 0.36 0 0.6 0.36 0 0.64 0.36 0 0.68 0.36 0 0.72 0.36 0 0.76 0.36 0 0.8 0.36 0 0.84 0.36 0 0.88 0.36 0 0.92 0.36 0 0.96 0.36 0 1 0.36 0 1.04 0.36 0 1.08 0.36 0 1.12 0.36 0 1.16 0.36 0 1.2 0.36 0 0 0.4 0 0.04 0.4 0 0.08 0.4 0 0.12 0.4 0 0.16 0.4 0 0.2 0.4 0 0.24 0.4 0 0.28 0.4 0 0.32 0.4 0 0.36 0.4 0 0.4 0.4 0 0.44 0.4 0 0.48 0.4 0 0.52 0.4 0 0.56 0.4 0 0.6 0.4 0 0.64 0.4 0 0.68 0.4 0 0.72 0.4 0 0.76 0.4 0 0.8 0.4 0 0.84 0.4 0 0.88 0.4 0 0.92 0.4 0 0.96 0.4 0 1 0.4 0 1.04 0.4 0 1.08 0.4 0 1.12 0.4 0 1.16 0.4 0 1.2 0.4 0 0 0.44 0 0.04 0.44 0 0.08 0.44 0 0.12 0.44 0 0.16 0.44 0 0.2 0.44 0 0.24 0.44 0 0.28 0.44 0 0.32 0.44 0 0.36 0.44 0 0.4 0.44 0 0.44 0.44 0 0.48 0.44 0 0.52 0.44 0 0.56 0.44 0 0.6 0.44 0 0.64 0.44 0 0.68 0.44 0 0.72 0.44 0 0.76 0.44 0 0.8 0.44 0 0.84 0.44 0 0.88 0.44 0 0.92 0.44 0 0.96 0.44 0 1 0.44 0 1.04 0.44 0 1.08 0.44 0 1.12 0.44 0 1.16 0.44 0 1.2 0.44 0 0 0.48 0 0.04 0.48 0 0.08 0.48 0 0.12 0.48 0 0.16 0.48 0 0.2 0.48 0 0.24 0.48 0 0.28 0.48 0 0.32 0.48 0 0.36 0.48 0 0.4 0.48 0 0.44 0.48 0 0.48 0.48 0 0.52 0.48 0 0.56 0.48 0 0.6 0.48 0 0.64 0.48 0 0.68 0.48 0 0.72 0.48 0 0.76 0.48 0 0.8 0.48 0 0.84 0.48 0 0.88 0.48 0 0.92 0.48 0 0.96 0.48 0 1 0.48 0 1.04 0.48 0 1.08 0.48 0 1.12 0.48 0 1.16 0.48 0 1.2 0.48 0 0 0.52 0 0.04 0.52 0 0.08 0.52 0 0.12 0.52 0 0.16 0.52 0 0.2 0.52 0 0.24 0.52 0 0.28 0.52 0 0.32 0.52 0 0.36 0.52 0 0.4 0.52 0 0.44 0.52 0 0.48 0.52 0 0.52 0.52 0 0.56 0.52 0 0.6 0.52 0 0.64 0.52 0 0.68 0.52 0 0.72 0.52 0 0.76 0.52 0 0.8 0.52 0 0.84 0.52 0 0.88 0.52 0 0.92 0.52 0 0.96 0.52 0 1 0.52 0 1.04 0.52 0 1.08 0.52 0 1.12 0.52 0 1.16 0.52 0 1.2 0.52 0 0 0.56 0 0.04 0.56 0 0.08 0.56 0 0.12 0.56 0 0.16 0.56 0 0.2 0.56 0 0.24 0.56 0 0.28 0.56 0 0.32 0.56 0 0.36 0.56 0 0.4 0.56 0 0.44 0.56 0 0.48 0.56 0 0.52 0.56 0 0.56 0.56 0 0.6 0.56 0 0.64 0.56 0 0.68 0.56 0 0.72 0.56 0 0.76 0.56 0 0.8 0.56 0 0.84 0.56 0 0.88 0.56 0 0.92 0.56 0 0.96 0.56 0 1 0.56 0 1.04 0.56 0 1.08 0.56 0 1.12 0.56 0 1.16 0.56 0 1.2 0.56 0 0 0.6 0 0.04 0.6 0 0.08 0.6 0 0.12 0.6 0 0.16 0.6 0 0.2 0.6 0 0.24 0.6 0 0.28 0.6 0 0.32 0.6 0 0.36 0.6 0 0.4 0.6 0 0.44 0.6 0 0.48 0.6 0 0.52 0.6 0 0.56 0.6 0 0.6 0.6 0 0.64 0.6 0 0.68 0.6 0 0.72 0.6 0 0.76 0.6 0 0.8 0.6 0 0.84 0.6 0 0.88 0.6 0 0.92 0.6 0 0.96 0.6 0 1 0.6 0 1.04 0.6 0 1.08 0.6 0 1.12 0.6 0 1.16 0.6 0 1.2 0.6 0 0 0.64 0 0.04 0.64 0 0.08 0.64 0 0.12 0.64 0 0.16 0.64 0 0.2 0.64 0 0.24 0.64 0 0.28 0.64 0 0.32 0.64 0 0.36 0.64 0 0.4 0.64 0 0.44 0.64 0 0.48 0.64 0 0.52 0.64 0 0.56 0.64 0 0.6 0.64 0 0.64 0.64 0 0.68 0.64 0 0.72 0.64 0 0.76 0.64 0 0.8 0.64 0 0.84 0.64 0 0.88 0.64 0 0.92 0.64 0 0.96 0.64 0 1 0.64 0 1.04 0.64 0 1.08 0.64 0 1.12 0.64 0 1.16 0.64 0 1.2 0.64 0 0 0.68 0 0.04 0.68 0 0.08 0.68 0 0.12 0.68 0 0.16 0.68 0 0.2 0.68 0 0.24 0.68 0 0.28 0.68 0 0.32 0.68 0 0.36 0.68 0 0.4 0.68 0 0.44 0.68 0 0.48 0.68 0 0.52 0.68 0 0.56 0.68 0 0.6 0.68 0 0.64 0.68 0 0.68 0.68 0 0.72 0.68 0 0.76 0.68 0 0.8 0.68 0 0.84 0.68 0 0.88 0.68 0 0.92 0.68 0 0.96 0.68 0 1 0.68 0 1.04 0.68 0 1.08 0.68 0 1.12 0.68 0 1.16 0.68 0 1.2 0.68 0 0 0.72 0 0.04 0.72 0 0.08 0.72 0 0.12 0.72 0 0.16 0.72 0 0.2 0.72 0 0.24 0.72 0 0.28 0.72 0 0.32 0.72 0 0.36 0.72 0 0.4 0.72 0 0.44 0.72 0 0.48 0.72 0 0.52 0.72 0 0.56 0.72 0 0.6 0.72 0 0.64 0.72 0 0.68 0.72 0 0.72 0.72 0 0.76 0.72 0 0.8 0.72 0 0.84 0.72 0 0.88 0.72 0 0.92 0.72 0 0.96 0.72 0 1 0.72 0 1.04 0.72 0 1.08 0.72 0 1.12 0.72 0 1.16 0.72 0 1.2 0.72 0 0 0.76 0 0.04 0.76 0 0.08 0.76 0 0.12 0.76 0 0.16 0.76 0 0.2 0.76 0 0.24 0.76 0 0.28 0.76 0 0.32 0.76 0 0.36 0.76 0 0.4 0.76 0 0.44 0.76 0 0.48 0.76 0 0.52 0.76 0 0.56 0.76 0 0.6 0.76 0 0.64 0.76 0 0.68 0.76 0 0.72 0.76 0 0.76 0.76 0 0.8 0.76 0 0.84 0.76 0 0.88 0.76 0 0.92 0.76 0 0.96 0.76 0 1 0.76 0 1.04 0.76 0 1.08 0.76 0 1.12 0.76 0 1.16 0.76 0 1.2 0.76 0 0 0.8 0 0.04 0.8 0 0.08 0.8 0 0.12 0.8 0 0.16 0.8 0 0.2 0.8 0 0.24 0.8 0 0.28 0.8 0 0.32 0.8 0 0.36 0.8 0 0.4 0.8 0 0.44 0.8 0 0.48 0.8 0 0.52 0.8 0 0.56 0.8 0 0.6 0.8 0 0.64 0.8 0 0.68 0.8 0 0.72 0.8 0 0.76 0.8 0 0.8 0.8 0 0.84 0.8 0 0.88 0.8 0 0.92 0.8 0 0.96 0.8 0 1 0.8 0 1.04 0.8 0 1.08 0.8 0 1.12 0.8 0 1.16 0.8 0 1.2 0.8 0 0 0.84 0 0.04 0.84 0 0.08 0.84 0 0.12 0.84 0 0.16 0.84 0 0.2 0.84 0 0.24 0.84 0 0.28 0.84 0 0.32 0.84 0 0.36 0.84 0 0.4 0.84 0 0.44 0.84 0 0.48 0.84 0 0.52 0.84 0 0.56 0.84 0 0.6 0.84 0 0.64 0.84 0 0.68 0.84 0 0.72 0.84 0 0.76 0.84 0 0.8 0.84 0 0.84 0.84 0 0.88 0.84 0 0.92 0.84 0 0.96 0.84 0 1 0.84 0 1.04 0.84 0 1.08 0.84 0 1.12 0.84 0 1.16 0.84 0 1.2 0.84 0 0 0.88 0 0.04 0.88 0 0.08 0.88 0 0.12 0.88 0 0.16 0.88 0 0.2 0.88 0 0.24 0.88 0 0.28 0.88 0 0.32 0.88 0 0.36 0.88 0 0.4 0.88 0 0.44 0.88 0 0.48 0.88 0 0.52 0.88 0 0.56 0.88 0 0.6 0.88 0 0.64 0.88 0 0.68 0.88 0 0.72 0.88 0 0.76 0.88 0 0.8 0.88 0 0.84 0.88 0 0.88 0.88 0 0.92 0.88 0 0.96 0.88 0 1 0.88 0 1.04 0.88 0 1.08 0.88 0 1.12 0.88 0 1.16 0.88 0 1.2 0.88 0 0 0.92 0 0.04 0.92 0 0.08 0.92 0 0.12 0.92 0 0.16 0.92 0 0.2 0.92 0 0.24 0.92 0 0.28 0.92 0 0.32 0.92 0 0.36 0.92 0 0.4 0.92 0 0.44 0.92 0 0.48 0.92 0 0.52 0.92 0 0.56 0.92 0 0.6 0.92 0 0.64 0.92 0 0.68 0.92 0 0.72 0.92 0 0.76 0.92 0 0.8 0.92 0 0.84 0.92 0 0.88 0.92 0 0.92 0.92 0 0.96 0.92 0 1 0.92 0 1.04 0.92 0 1.08 0.92 0 1.12 0.92 0 1.16 0.92 0 1.2 0.92 0 0 0.96 0 0.04 0.96 0 0.08 0.96 0 0.12 0.96 0 0.16 0.96 0 0.2 0.96 0 0.24 0.96 0 0.28 0.96 0 0.32 0.96 0 0.36 0.96 0 0.4 0.96 0 0.44 0.96 0 0.48 0.96 0 0.52 0.96 0 0.56 0.96 0 0.6 0.96 0 0.64 0.96 0 0.68 0.96 0 0.72 0.96 0 0.76 0.96 0 0.8 0.96 0 0.84 0.96 0 0.88 0.96 0 0.92 0.96 0 0.96 0.96 0 1 0.96 0 1.04 0.96 0 1.08 0.96 0 1.12 0.96 0 1.16 0.96 0 1.2 0.96 0 0 1 0 0.04 1 0 0.08 1 0 0.12 1 0 0.16 1 0 0.2 1 0 0.24 1 0 0.28 1 0 0.32 1 0 0.36 1 0 0.4 1 0 0.44 1 0 0.48 1 0 0.52 1 0 0.56 1 0 0.6 1 0 0.64 1 0 0.68 1 0 0.72 1 0 0.76 1 0 0.8 1 0 0.84 1 0 0.88 1 0 0.92 1 0 0.96 1 0 1 1 0 1.04 1 0 1.08 1 0 1.12 1 0 1.16 1 0 1.2 1 0 0 1.04 0 0.04 1.04 0 0.08 1.04 0 0.12 1.04 0 0.16 1.04 0 0.2 1.04 0 0.24 1.04 0 0.28 1.04 0 0.32 1.04 0 0.36 1.04 0 0.4 1.04 0 0.44 1.04 0 0.48 1.04 0 0.52 1.04 0 0.56 1.04 0 0.6 1.04 0 0.64 1.04 0 0.68 1.04 0 0.72 1.04 0 0.76 1.04 0 0.8 1.04 0 0.84 1.04 0 0.88 1.04 0 0.92 1.04 0 0.96 1.04 0 1 1.04 0 1.04 1.04 0 1.08 1.04 0 1.12 1.04 0 1.16 1.04 0 1.2 1.04 0 0 1.08 0 0.04 1.08 0 0.08 1.08 0 0.12 1.08 0 0.16 1.08 0 0.2 1.08 0 0.24 1.08 0 0.28 1.08 0 0.32 1.08 0 0.36 1.08 0 0.4 1.08 0 0.44 1.08 0 0.48 1.08 0 0.52 1.08 0 0.56 1.08 0 0.6 1.08 0 0.64 1.08 0 0.68 1.08 0 0.72 1.08 0 0.76 1.08 0 0.8 1.08 0 0.84 1.08 0 0.88 1.08 0 0.92 1.08 0 0.96 1.08 0 1 1.08 0 1.04 1.08 0 1.08 1.08 0 1.12 1.08 0 1.16 1.08 0 1.2 1.08 0 0 1.12 0 
[...]
			<PointData Scalars="VitesseX">
				<DataArray Name="VitesseX" type="Float32" format="ascii">
 0 -0.0309886 -0.155192 -0.199402 0.031513 0.256037 0.343712 0.544693 0.673162 0.80902 0.939848 1.06918 1.19872 1.32997 1.46327 1.59938 1.73764 1.88742 2.0369 2.20548 2.54599 2.65816 2.47189 1.88057 0.848756 0.088115 0.000380314 9.06459e-09 -3.51563e-12 3.6353e-12 0 0 0.282048 0.364324 0.243602 0.311547 0.450413 0.470902 0.631059 0.734444 0.849503 0.967345 1.08598 1.20696 1.33157 1.45983 1.59266 1.7294 1.87928 2.02833 2.19961 2.54225 2.64531 2.45387 1.85501 0.821598 0.0815154 0.000327784 7.8194e-09 -3.52704e-12 3.63226e-12 0 0 0.2814 0.431155 0.448623 0.51835 0.624423 0.617471 0.720955 0.796351 0.889157 0.995192 1.10596 1.22174 1.34302 1.46889 1.60001 1.73566 1.88488 2.02951 2.20664 2.55167 2.62758 2.41662 1.78716 0.743613 0.0641376 0.000208735 5.06599e-09 -3.5484e-12 1.81364e-12 0 0 0.21378 0.309649 0.430687 0.580908 0.646466 0.696924 0.77471 0.850931 0.93423 1.03005 1.13352 1.24376 1.36101 1.48351 1.61144 1.74512 1.89279 2.03267 2.22489 2.56781 2.60286 2.35648 1.6748 0.621117 0.0420537 9.6662e-05 2.51284e-09 -1.76392e-12 1.81308e-12 0 0 0.113907 0.250688 0.398684 0.562009 0.622963 0.724773 0.804063 0.896822 0.978305 1.06944 1.16715 1.27225 1.3845 1.50283 1.62654 1.75842 1.90351 2.03941 2.25971 2.58171 2.56739 2.26479 1.51149 0.465798 0.0222289 3.17647e-05 9.60285e-10 2.01772e-14 1.81093e-12 0 0 0.0650984 0.214111 0.359358 0.516475 0.610874 0.715307 0.819296 0.920627 1.00896 1.10331 1.19989 1.3033 1.41126 1.52572 1.64485 1.77625 1.91646 2.05137 2.31661 2.58175 2.51202 2.13201 1.28958 0.301085 0.0090933 7.1881e-06 2.78672e-10 -1.82288e-12 1.28649e-14 0 0 0.0680386 0.204123 0.35345 0.491554 0.60048 0.712662 0.828125 0.926128 1.02651 1.12546 1.22495 1.32764 1.43427 1.54704 1.66364 1.79739 1.92899 2.07279 2.38935 2.55773 2.42695 1.94466 1.00484 0.161274 0.0027486 1.09065e-06 4.79253e-11 1.05692e-11 -1.81323e-12 0 0 0.0779907 0.206847 0.349615 0.474732 0.595438 0.715929 0.823852 0.926094 1.03247 1.13703 1.24009 1.34294 1.45162 1.56249 1.68138 1.81673 1.93812 2.11543 2.45127 2.50657 2.29751 1.68362 0.676754 0.0667975 0.000576653 1.1382e-07 8.61707e-12 -1.97738e-15 1.05665e-11 0 0 0.0862905 0.20198 0.333158 0.461076 0.589273 0.706534 0.815643 0.923728 1.0322 1.13981 1.24445 1.35185 1.46208 1.57242 1.70026 1.8284 1.94896 2.19682 2.46919 2.42537 2.10037 1.33104 0.364199 0.0197898 7.6857e-05 9.8038e-09 9.38158e-13 -1.82403e-15 1.05611e-11 0 0 0.090498 0.198225 0.318603 0.444266 0.570955 0.690886 0.804367 0.916314 1.02794 1.13598 1.24414 1.35569 1.46465 1.58275 1.71672 1.83136 1.98075 2.30221 2.42873 2.29189 1.81129 0.892958 0.147283 0.00391778 5.89079e-06 8.3053e-10 -1.04809e-11 1.5542e-15 8.73902e-12 0 0 0.0917746 0.194862 0.30718 0.426544 0.548959 0.670102 0.787664 0.902999 1.01564 1.12779 1.24234 1.35295 1.46641 1.59862 1.7207 1.83594 2.06883 2.34893 2.33688 2.07568 1.3979 0.457973 0.0407421 0.000472332 2.51779e-07 5.33093e-11 3.64159e-12 -1.42201e-11 1.24064e-11 0 0 0.0927184 0.19315 0.299976 0.413137 0.530257 0.648759 0.767625 0.8843 1.00094 1.11934 1.23405 1.34865 1.47749 1.60677 1.71656 1.87921 2.19337 2.30421 2.18027 1.73427 0.868678 0.165313 0.0069782 2.94961e-05 8.31877e-09 2.15296e-12 3.66074e-12 -3.6508e-12 -8.73309e-12 0 0 0.0931557 0.191947 0.295376 0.403931 0.517368 0.63414 0.752032 0.871038 0.990711 1.10875 1.2275 1.35589 1.48807 1.6008 1.73377 2.00777 2.21718 2.18473 1.90885 1.22741 0.381449 0.0378096 0.000661622 8.38096e-07 3.10779e-10 4.87956e-14 -3.15966e-11 3.15908e-11 -1.05371e-11 0 0 0.0934878 0.191278 0.292568 0.398417 0.509664 0.625301 0.74366 0.863489 0.983343 1.10521 1.23448 1.36636 1.48269 1.60809 1.83963 2.0966 2.13116 1.96603 1.45968 0.628298 0.108735 0.00481126 2.77914e-05 1.42823e-08 7.62517e-12 1.2373e-11 -3.34385e-11 3.34001e-11 -1.23271e-11 0 0 0.0940442 0.191354 0.291766 0.396611 0.506806 0.621759 0.739918 0.860277 0.983888 1.11379 1.24333 1.36221 1.49042 1.70273 1.96223 2.0421 1.94335 1.56954 0.832253 0.207046 0.0172198 0.000286335 4.43129e-07 3.02496e-10 1.23453e-13 1.22379e-14 1.2382e-11 -1.23896e-11 3.02354e-14 0 0 0.0951894 0.192638 0.292925 0.397609 0.507546 0.622524 0.741913 0.865598 0.993635 1.12011 1.24199 1.37989 1.59157 1.82941 1.92773 1.86915 1.58294 0.953356 0.299936 0.038297 0.00128941 5.89186e-06 4.65623e-09 1.64879e-11 -3.30832e-14 -2.47082e-11 2.47532e-11 -2.4753e-11 2.47801e-11 0 0 0.0973161 0.196312 0.298114 0.404159 0.515303 0.631819 0.753045 0.876996 1.00094 1.12845 1.28318 1.49994 1.69951 1.7963 1.75746 1.52271 0.982643 0.358397 0.060583 0.00325845 3.28857e-05 4.34402e-08 7.20397e-11 -1.2348e-11 -1.90835e-14 8.07287e-15 1.23828e-11 -1.23984e-11 4.3441e-14 0 0 0.100959 0.203284 0.308594 0.417558 0.530388 0.647125 0.767567 0.893645 1.03454 1.20993 1.40999 1.56649 1.64976 1.61417 1.40364 0.928666 0.367204 0.0737419 0.00536872 9.26358e-05 2.30051e-07 4.01905e-10 -1.19542e-11 3.48955e-15 -1.09413e-14 1.23682e-11 -3.343e-11 3.33999e-11 -1.23143e-11 0 0 0.10491 0.211344 0.321067 0.434101 0.551308 0.675565 0.812541 0.970657 1.14228 1.29987 1.42476 1.48386 1.43967 1.23321 0.805575 0.327503 0.0717482 0.00623737 0.000150327 6.15996e-07 1.23161e-09 2.18207e-12 3.24741e-14 -1.32948e-14 -1.00123e-14 1.23752e-11 -3.34305e-11 2.10363e-11 3.41929e-14 0 0 0.11143 0.226423 0.346746 0.473625 0.608611 0.750864 0.896613 1.03692 1.16505 1.26316 1.29312 1.2293 1.01521 0.631529 0.252983 0.0560461 0.0052457 0.000149841 8.49073e-07 2.13204e-09 2.70098e-11 -2.40347e-14 3.9481e-14 -3.9818e-14 4.96112e-15 7.24743e-15 1.23871e-11 -2.47662e-11 1.2378e-11 0 0 0.126398 0.255003 0.384964 0.515915 0.646441 0.775117 0.89882 1.00284 1.06691 1.06794 0.977434 0.756394 0.432903 0.164095 0.0341269 0.00313168 9.1835e-05 6.14105e-07 2.16945e-09 8.26927e-12 3.19805e-14 1.23702e-11 -2.47455e-11 2.47169e-11 2.27411e-15 -2.47182e-11 2.47441e-11 -1.23528e-11 1.23869e-11 0 0 0.13058 0.259496 0.385707 0.508298 0.623017 0.72355 0.799097 0.830553 0.801846 0.686416 0.47986 0.246324 0.0835135 0.0150979 0.0012322 3.2501e-05 2.28414e-07 1.18206e-09 2.69611e-11 -4.59145e-15 2.13671e-14 -2.04535e-14 4.07778e-14 -4.24126e-14 -1.54e-15 2.77567e-14 1.2361e-11 -1.23508e-11 1.23979e-11 0 0 0.121193 0.236203 0.342293 0.435701 0.510008 0.554705 0.556211 0.50228 0.3877 0.238016 0.106231 0.0292353 0.00426116 0.000274813 5.81297e-06 4.28087e-08 3.73605e-10 2.18681e-12 1.21594e-14 1.23608e-11 -2.47453e-11 1.23878e-11 -2.98934e-15 4.57583e-15 -2.80942e-14 1.24031e-11 -1.23748e-11 -1.23942e-11 2.47602e-11 0 0 0.0897925 0.169132 0.233602 0.277545 0.293491 0.276791 0.226924 0.154468 0.0801614 0.0276991 0.00564147 0.000603943 2.68958e-05 4.34451e-07 4.54602e-09 7.12591e-11 -1.19527e-11 -2.43784e-15 2.32666e-15 -2.00709e-14 3.10715e-14 -2.40441e-14 1.05274e-14 4.35321e-15 -2.76594e-14 1.01715e-14 -6.72121e-15 -1.74167e-14 -2.10423e-11 0 0 0.0391051 0.070116 0.0888467 0.0930566 0.0824639 0.0595528 0.0325288 0.0122442 0.00293952 0.000409475 2.77403e-05 8.10054e-07 1.36999e-08 2.94606e-10 1.64422e-11 -1.23346e-11 -3.52341e-15 1.83002e-14 -3.79278e-14 -8.08371e-15 4.60539e-14 -3.58052e-14 3.55826e-14 -4.71229e-14 2.72422e-14 -3.13861e-14 -2.1046e-11 3.33965e-11 -3.3363e-11 0 0 0.00607586 0.0098822 0.0102623 0.00774123 0.00422587 0.00162498 0.000416524 6.42637e-05 5.36525e-06 2.35458e-07 7.71544e-09 2.99571e-10 -1.74126e-11 2.48528e-11 1.94011e-14 -2.47339e-11 2.47553e-11 -2.47564e-11 2.47252e-11 -1.72541e-14 -2.47079e-11 2.47385e-11 -2.47386e-11 2.47304e-11 -6.90307e-15 -1.62226e-14 -6.68225e-11 6.68174e-11 4.94724e-14 0 0 4.60528e-05 5.89696e-05 4.11467e-05 1.79707e-05 4.9821e-06 8.61577e-07 9.50457e-08 8.26147e-09 7.24592e-10 4.9107e-11 2.00418e-12 3.72866e-12 -1.24096e-11 -1.3065e-14 8.18756e-15 7.6698e-15 1.2382e-11 -1.23751e-11 -9.02792e-15 -1.11647e-14 2.82285e-14 1.23512e-11 -2.47437e-11 2.47489e-11 -4.43712e-14 -3.34099e-11 5.77181e-14 -5.72002e-14 3.34656e-11 0 0 1.15912e-09 1.44984e-09 1.02574e-09 5.06362e-10 1.77094e-10 3.24035e-11 6.9124e-12 7.63331e-13 1.06499e-11 3.58942e-15 -2.99307e-14 -3.15988e-11 3.34001e-11 -1.23631e-11 8.9669e-15 1.23528e-11 -3.34159e-11 3.34293e-11 -1.23637e-11 -2.50067e-14 1.2405e-11 -1.23861e-11 -3.11538e-14 -2.10444e-11 -1.24418e-14 4.4686e-14 -4.96156e-14 4.13256e-14 -4.88976e-14 0 0 1.15189e-14 9.44883e-15 -1.79576e-12 9.01264e-15 1.80372e-12 -1.05598e-11 1.99127e-15 -4.50931e-15 2.08182e-15 1.05523e-11 9.85291e-15 -3.16542e-11 3.3423e-11 -1.23552e-11 8.84552e-15 1.23372e-11 -3.34148e-11 2.10642e-11 1.6573e-14 1.2365e-11 -1.23661e-11 -1.23943e-11 2.47219e-11 -3.34228e-11 1.02698e-14 2.75881e-14 -4.13257e-14 4.01855e-14 -4.09718e-14 0 0 -5.77534e-13 -1.81611e-12 1.81367e-12 -1.81847e-12 -9.9174e-15 1.81985e-12 -1.0569e-11 1.05612e-11 -1.23823e-11 1.23824e-11 -1.23905e-11 1.41837e-11 -1.23956e-11 3.09806e-14 9.03616e-15 -4.50141e-14 1.2408e-11 -2.47737e-11 1.23957e-11 1.24083e-11 -1.23964e-11 -4.50341e-14 -2.10532e-11 3.34455e-11 -2.46064e-14 -3.3396e-11 -3.36811e-14 3.93267e-14 3.34214e-11 0 0 0 0 0 0 0 0 0 0 0 0 0 0 0 0 0 0 0 0 0 0 0 0 0 0 0 0 0 0 0 0
				</DataArray>
				<DataArray Name="VitesseY" type="Float32" format="ascii">
 0 0 0 0 0 0 0 0 0 0 0 0 0 0 0 0 0 0 0 0 0 0 0 0 0 0 0 0 0 0 0 -0.0309265 0.282021 0.281369 0.213766 0.113906 0.0651058 0.0680506 0.0780031 0.0862982 0.0905046 0.0917817 0.0927265 0.0931641 0.0934949 0.0940488 0.0951915 0.0973159 0.100957 0.104908 0.11143 0.126399 0.130581 0.121194 0.089794 0.0391062 0.00607613 4.60571e-05 1.15928e-09 1.15193e-14 -2.94007e-15 0 -0.155177 0.364277 0.43113 0.309619 0.250685 0.21415 0.20416 0.206869 0.201987 0.198227 0.194869 0.19316 0.191957 0.191286 0.19136 0.192641 0.196312 0.203282 0.211342 0.226422 0.255004 0.259499 0.236206 0.169135 0.0701179 0.00988265 5.89751e-05 1.45003e-09 9.44444e-15 -1.81607e-12 0 -0.199465 0.243509 0.44857 0.430667 0.398696 0.3594 0.353491 0.349644 0.333169 0.318603 0.307184 0.299982 0.295383 0.292574 0.29177 0.292928 0.298113 0.308593 0.321065 0.346745 0.384966 0.38571 0.342297 0.233606 0.088849 0.0102627 4.11504e-05 1.02586e-09 -1.79575e-12 1.81367e-12 0 0.0314539 0.311499 0.518325 0.580897 0.562028 0.516515 0.491596 0.474766 0.461096 0.444272 0.426548 0.413141 0.403934 0.39842 0.396613 0.39761 0.404158 0.417557 0.434101 0.473626 0.515918 0.508303 0.435706 0.27755 0.0930588 0.00774155 1.79722e-05 5.06415e-10 9.00404e-15 -1.81847e-12 0 0.255953 0.450362 0.624409 0.646463 0.622972 0.610897 0.600509 0.595467 0.589297 0.57097 0.548967 0.53026 0.517369 0.509664 0.506805 0.507544 0.515302 0.530387 0.551308 0.608612 0.646444 0.623021 0.510014 0.293496 0.0824656 0.00422602 4.98248e-06 1.7711e-10 1.80373e-12 -9.9174e-15 0 0.34363 0.470862 0.617474 0.696914 0.724769 0.715317 0.712683 0.715954 0.706556 0.690904 0.670113 0.648762 0.63414 0.625299 0.621756 0.622522 0.631816 0.647123 0.675566 0.750867 0.775121 0.723555 0.55471 0.276794 0.0595537 0.00162502 8.61633e-07 3.2407e-11 -1.05598e-11 1.81985e-12 0 0.544632 0.631043 0.720982 0.774716 0.804056 0.819298 0.828137 0.82387 0.815662 0.804382 0.787672 0.767628 0.752032 0.743658 0.739915 0.74191 0.753042 0.767565 0.812542 0.896616 0.898824 0.799101 0.556215 0.226925 0.0325291 0.000416531 9.50502e-08 6.91283e-12 1.99133e-15 -1.0569e-11 0 0.673106 0.734431 0.796371 0.850944 0.896812 0.920622 0.926138 0.926109 0.923743 0.916325 0.903003 0.8843 0.871038 0.863488 0.860276 0.865596 0.876993 0.893643 0.970657 1.03692 1.00285 0.830555 0.502281 0.154468 0.0122442 6.42641e-05 8.26168e-09 7.63383e-13 -4.50931e-15 1.05612e-11 0 0.808975 0.849496 0.88917 0.93425 0.978307 1.00896 1.02651 1.03248 1.03221 1.02795 1.01564 1.00094 0.990709 0.983342 0.983887 0.993634 1.00094 1.03454 1.14228 1.16505 1.06691 0.801845 0.387699 0.0801607 0.00293949 5.3652e-06 7.24598e-10 1.06499e-11 2.08182e-15 -1.23823e-11 0 0.939811 0.967337 0.9952 1.03007 1.06945 1.10331 1.12546 1.13704 1.13981 1.13598 1.12779 1.11934 1.10875 1.10521 1.11379 1.12011 1.12845 1.20993 1.29987 1.26316 1.06794 0.686414 0.238013 0.0276987 0.000409465 2.35452e-07 4.91066e-11 3.58943e-15 1.05523e-11 1.23824e-11 0 1.06915 1.08597 1.10596 1.13354 1.16716 1.1999 1.22496 1.24009 1.24445 1.24414 1.24234 1.23405 1.2275 1.23448 1.24333 1.24199 1.28318 1.40999 1.42476 1.29312 0.977432 0.479857 0.10623 0.00564135 2.77394e-05 7.71519e-09 2.00411e-12 -2.99307e-14 9.85291e-15 -1.23905e-11 0 1.1987 1.20696 1.22175 1.24376 1.27225 1.30331 1.32765 1.34295 1.35185 1.35569 1.35295 1.34865 1.35589 1.36636 1.3622 1.37989 1.49994 1.56648 1.48386 1.22929 0.75639 0.246322 0.0292348 0.000603926 8.10017e-07 2.9956e-10 3.72866e-12 -3.15988e-11 -3.16542e-11 1.41837e-11 0 1.32996 1.33157 1.34302 1.36101 1.3845 1.41126 1.43428 1.45164 1.46208 1.46465 1.46641 1.47749 1.48807 1.48269 1.49042 1.59157 1.69951 1.64976 1.43967 1.0152 0.432899 0.0835123 0.00426107 2.68949e-05 1.36993e-08 -1.74129e-11 -1.24096e-11 3.34001e-11 3.3423e-11 -1.23956e-11 0 1.46327 1.45983 1.46889 1.48351 1.50283 1.52573 1.54706 1.5625 1.57242 1.58276 1.59863 1.60677 1.60081 1.6081 1.70273 1.82941 1.7963 1.61416 1.23321 0.631525 0.164093 0.0150976 0.000274805 4.34433e-07 2.94594e-10 2.48527e-11 -1.3065e-14 -1.23631e-11 -1.23552e-11 3.09806e-14 0 1.59938 1.59266 1.60001 1.61143 1.62654 1.64486 1.66365 1.68139 1.70026 1.71673 1.7207 1.71656 1.73377 1.83964 1.96224 1.92774 1.75745 1.40364 0.80557 0.252981 0.0341265 0.00123217 5.81276e-06 4.54585e-09 1.64421e-11 1.9401e-14 8.18756e-15 8.9669e-15 8.84552e-15 9.03616e-15 0 1.73765 1.7294 1.73565 1.74511 1.75842 1.77625 1.7974 1.81674 1.82841 1.83136 1.83594 1.87921 2.00778 2.0966 2.0421 1.86915 1.52271 0.928664 0.327502 0.0560456 0.00313163 3.25001e-05 4.28072e-08 7.1257e-11 -1.23346e-11 -2.47339e-11 7.6698e-15 1.23528e-11 1.23372e-11 -4.50141e-14 0 1.88742 1.87928 1.88488 1.89278 1.90351 1.91647 1.92899 1.93812 1.94897 1.98075 2.06883 2.19337 2.21718 2.13116 1.94335 1.58294 0.982643 0.367202 0.0717479 0.00524566 9.18335e-05 2.28408e-07 3.73594e-10 -1.19527e-11 -3.52334e-15 2.47553e-11 1.2382e-11 -3.34159e-11 -3.34148e-11 1.2408e-11 0 2.0369 2.02833 2.02951 2.03267 2.03941 2.05137 2.07279 2.11543 2.19682 2.30221 2.34894 2.30421 2.18473 1.96604 1.56954 0.953357 0.358399 0.073742 0.00623737 0.00014984 6.14098e-07 1.18204e-09 2.18682e-12 -2.43784e-15 1.83002e-14 -2.47564e-11 -1.23751e-11 3.34293e-11 2.10642e-11 -2.47737e-11 0 2.20548 2.19962 2.20665 2.2249 2.25972 2.31661 2.38935 2.45127 2.46919 2.42873 2.33688 2.18027 1.90885 1.45968 0.832256 0.299938 0.0605835 0.00536876 0.000150328 8.49073e-07 2.16944e-09 2.69611e-11 1.21594e-14 2.32666e-15 -3.79278e-14 2.47252e-11 -9.02792e-15 -1.23637e-11 1.6573e-14 1.23957e-11 0 2.546 2.54226 2.55167 2.56781 2.58171 2.58175 2.55774 2.50657 2.42538 2.2919 2.07568 1.73427 1.22741 0.628303 0.207048 0.0382975 0.0032585 9.26372e-05 6.16003e-07 2.13206e-09 8.26927e-12 -4.59145e-15 1.23608e-11 -2.00709e-14 -8.08371e-15 -1.72541e-14 -1.11647e-14 -2.50067e-14 1.2365e-11 1.24083e-11 0 2.65816 2.6453 2.62758 2.60285 2.56739 2.51202 2.42696 2.29752 2.10038 1.8113 1.3979 0.868683 0.381454 0.108737 0.0172201 0.00128943 3.28866e-05 2.30058e-07 1.23163e-09 2.70098e-11 3.19805e-14 2.13671e-14 -2.47453e-11 3.10715e-14 4.60539e-14 -2.47079e-11 2.82285e-14 1.2405e-11 -1.23661e-11 -1.23964e-11 0 2.47188 2.45387 2.41661 2.35648 2.26479 2.13201 1.94466 1.68362 1.33104 0.892963 0.457978 0.165315 0.0378103 0.00481138 0.000286344 5.89207e-06 4.34417e-08 4.01916e-10 2.18206e-12 -2.40347e-14 1.23702e-11 -2.04535e-14 1.23878e-11 -2.40441e-14 -3.58052e-14 2.47385e-11 1.23512e-11 -1.23861e-11 -1.23943e-11 -4.50341e-14 0 1.88056 1.85499 1.78715 1.67479 1.51149 1.28957 1.00484 0.676755 0.364201 0.147285 0.0407428 0.00697837 0.000661641 2.77924e-05 4.43148e-07 4.65641e-09 7.20419e-11 -1.19542e-11 3.24741e-14 3.9481e-14 -2.47455e-11 4.07778e-14 -2.98934e-15 1.05274e-14 3.55826e-14 -2.47386e-11 -2.47437e-11 -3.11538e-14 2.47219e-11 -2.10532e-11 0 0.848741 0.821584 0.743601 0.621108 0.465792 0.301081 0.161273 0.0667975 0.0197899 0.00391784 0.000472344 2.94971e-05 8.38134e-07 1.42829e-08 3.02507e-10 1.6488e-11 -1.2348e-11 3.48949e-15 -1.32948e-14 -3.9818e-14 2.47169e-11 -4.24126e-14 4.57583e-15 4.35321e-15 -4.71229e-14 2.47304e-11 2.47489e-11 -2.10444e-11 -3.34228e-11 3.34455e-11 0 0.0881113 0.081512 0.064135 0.0420521 0.0222282 0.00909303 0.00274854 0.000576645 7.68568e-05 5.89086e-06 2.51785e-07 8.31904e-09 3.1079e-10 7.6255e-12 1.23484e-13 -3.30831e-14 -1.90835e-14 -1.09413e-14 -1.00123e-14 4.96112e-15 2.27411e-15 -1.54e-15 -2.80942e-14 -2.76594e-14 2.72422e-14 -6.90307e-15 -4.43712e-14 -1.24418e-14 1.02698e-14 -2.46064e-14 0 0.00038028 0.000327754 0.000208716 9.66537e-05 3.17621e-05 7.18758e-06 1.09058e-06 1.13815e-07 9.80358e-09 8.30525e-10 5.33099e-11 2.15304e-12 4.88008e-14 1.2373e-11 1.22379e-14 -2.47082e-11 8.07287e-15 1.23682e-11 1.23752e-11 7.24743e-15 -2.47182e-11 2.77567e-14 1.24031e-11 1.01715e-14 -3.13861e-14 -1.62226e-14 -3.34099e-11 4.4686e-14 2.75881e-14 -3.3396e-11 0 9.06345e-09 7.81843e-09 5.0654e-09 2.51257e-09 9.60192e-10 2.78648e-10 4.79208e-11 8.61653e-12 9.38106e-13 -1.04809e-11 3.64159e-12 3.66074e-12 -3.15966e-11 -3.34385e-11 1.2382e-11 2.47532e-11 1.23828e-11 -3.343e-11 -3.34305e-11 1.23871e-11 2.47441e-11 1.2361e-11 -1.23748e-11 -6.72121e-15 -2.1046e-11 -6.68225e-11 5.77181e-14 -4.96156e-14 -4.13257e-14 -3.36811e-14 0 -3.51564e-12 -3.52705e-12 -3.54842e-12 -1.76393e-12 2.01702e-14 -1.82289e-12 1.05692e-11 -1.97744e-15 -1.82403e-15 1.5542e-15 -1.42201e-11 -3.6508e-12 3.15908e-11 3.34001e-11 -1.23896e-11 -2.4753e-11 -1.23984e-11 3.33999e-11 2.10363e-11 -2.47662e-11 -1.23528e-11 -1.23508e-11 -1.23942e-11 -1.74167e-14 3.33965e-11 6.68174e-11 -5.72002e-14 4.13256e-14 4.01855e-14 3.93267e-14 0 4.78457e-12 4.20694e-12 1.81369e-12 1.81308e-12 1.81093e-12 1.28649e-14 -1.81323e-12 1.05665e-11 1.05611e-11 8.73902e-12 1.24064e-11 -8.73309e-12 -1.05371e-11 -1.23271e-11 3.02354e-14 2.47801e-11 4.3441e-14 -1.23143e-11 3.41929e-14 1.2378e-11 1.23869e-11 1.23979e-11 2.47602e-11 -2.10423e-11 -3.3363e-11 4.94724e-14 3.34656e-11 -4.88976e-14 -4.09718e-14 3.34214e-11 0 3.26032e-06 0 0 0 0 0 0 0 0 0 0 0 0 0 0 0 0 0 0 0 0 0 0 0 0 0 0 0 0 0 0
				</DataArray>
			</PointData>
			<CellData Scalars="Density">
				<DataArray Name="Density" type="Float32" format="ascii">