<?xml version="1.0"?>
<VTKFile type="PolyData">
	<PolyData>
		<Piece NumberOfPoints="961" NumberOfPolys="900">
			<Points>
				<DataArray type="Float32" NumberOfComponents="3" format="ascii">
 0 0 0 0.04 0 0 0.08 0 0 0.12 0 0 0.16 0 0 0.2 0 0 0.24 0 0 0.28 0 0 0.32 0 0 0.36 0 0 0.4 0 0 0.44 0 0 0.48 0 0 0.52 0 0 0.56 0 0 0.6 0 0 0.64 0 0 0.68 0 0 0.72 0 0 0.76 0 0 0.8 0 0 0.84 0 0 0.88 0 0 0.92 0 0 0.96 0 0 1 0 0 1.04 0 0 1.08 0 0 1.12 0 0 1.16 0 0 1.2 0 0 0 0.04 0 0.04 0.04 0 0.08 0.04 0 0.12 0.04 0 0.16 0.04 0 0.2 0.04 0 0.24 0.04 0 0.28 0.04 0 0.32 0.04 0 0.36 0.04 0 0.4 0.04 0 0.44 0.04 0 0.48 0.04 0 0.52 0.04 0 0.56 0.04 0 0.6 0.04 0 0.64 0.04 0 0.68 0.04 0 0.72 0.04 0 0.76 0.04 0 0.8 0.04 0 0.84 0.04 0 0.88 0.04 0 0.92 0.04 0 0.96 0.04 0 1 0.04 0 1.04 0.04 0 1.08 0.04 0 1.12 0.04 0 1.16 0.04 0 1.2 0.04 0 0 0.08 0 0.04 0.08 0 0.08 0.08 0 0.12 0.08 0 0.16 0.08 0 0.2 0.08 0 0.24 0.08 0 0.28 0.08 0 0.32 0.08 0 0.36 0.08 0 0.4 0.08 0 0.44 0.08 0 0.48 0.08 0 0.52 0.08 0 0.56 0.08 0 0.6 0.08 0 0.64 0.08 0 0.68 0.08 0 0.72 0.08 0 0.76 0.08 0 0.8 0.08 0 0.84 0.08 0 0.88 0.08 0 0.92 0.08 0 0.96 0.08 0 1 0.08 0 1.04 0.08 0 1.08 0.08 0 1.12 0.08 0 1.16 0.08 0 1.2 0.08 0 0 0.12 0 0.04 0.12 0 0.08 0.12 0 0.12 0.12 0 0.16 0.12 0 0.2 0.12 0 0.24 0.12 0 0.28 0.12 0 0.32 0.12 0 0.36 0.12 0 0.4 0.12 0 0.44 0.12 0 0.48 0.12 0 0.52 0.12 0 0.56 0.12 0 0.6 0.12 0 0.64 0.12 0 0.68 0.12 0 0.72 0.12 0 0.76 0.12 0 0.8 0.12 0 0.84 0.12 0 0.88 0.12 0 0.92 0.12 0 0.96 0.12 0 1 0.12 0 1.04 0.12 0 1.08 0.12 0 1.12 0.12 0 1.16 0.12 0 1.2 0.12 0 0 0.16 0 0.04 0.16 0 0.08 0.16 0 0.12 0.16 0 0.16 0.16 0 0.2 0.16 0 0.24 0.16 0 0.28 0.16 0 0.32 0.16 0 0.36 0.16 0 0.4 0.16 0 0.44 0.16 0 0.48 0.16 0 0.52 0.16 0 0.56 0.16 0 0.6 0.16 0 0.64 0.16 0 0.68 0.16 0 0.72 0.16 0 0.76 0.16 0 0.8 0.16 0 0.84 0.16 0 0.88 0.16 0 0.92 0.16 0 0.96 0.16 0 1 0.16 0 1.04 0.16 0 1.08 0.16 0 1.12 0.16 0 1.16 0.16 0 1.2 0.16 0 0 0.2 0 0.04 0.2 0 0.08 0.2 0 0.12 0.2 0 0.16 0.2 0 0.2 0.2 0 0.24 0.2 0 0.28 0.2 0 0.32 0.2 0 0.36 0.2 0 0.4 0.2 0 0.44 0.2 0 0.48 0.2 0 0.52 0.2 0 0.56 0.2 0 0.6 0.2 0 0.64 0.2 0 0.68 0.2 0 0.72 0.2 0 0.76 0.2 0 0.8 0.2 0 0.84 0.2 0 0.88 0.2 0 0.92 0.2 0 0.96 0.2 0 1 0.2 0 1.04 0.2 0 1.08 0.2 0 1.12 0.2 0 1.16 0.2 0 1.2 0.2 0 0 0.24 0 0.04 0.24 0 0.08 0.24 0 0.12 0.24 0 0.16 0.24 0 0.2 0.24 0 0.24 0.24 0 0.28 0.24 0 0.32 0.24 0 0.36 0.24 0 0.4 0.24 0 0.44 0.24 0 0.48 0.24 0 0.52 0.24 0 0.56 0.24 0 0.6 0.24 0 0.64 0.24 0 0.68 0.24 0 0.72 0.24 0 0.76 0.24 0 0.8 0.24 0 0.84 0.24 0 0.88 0.24 0 0.92 0.24 0 0.96 0.24 0 1 0.24 0 1.04 0.24 0 1.08 0.24 0 1.12 0.24 0 1.16 0.24 0 1.2 0.24 0 0 0.28 0 0.04 0.28 0 0.08 0.28 0 0.12 0.28 0 0.16 0.28 0 0.2 0.28 0 0.24 0.28 0 0.28 0.28 0 0.32 0.28 0 0.36 0.28 0 0.4 0.28 0 0.44 0.28 0 0.48 0.28 0 0.52 0.28 0 0.56 0.28 0 0.6 0.28 0 0.64 0.28 0 0.68 0.28 0 0.72 0.28 0 0.76 0.28 0 0.8 0.28 0 0.84 0.28 0 0.88 0.28 0 0.92 0.28 0 0.96 0.28 0 1 0.28 0 1.04 0.28 0 1.08 0.28 0 1.12 0.28 0 1.16 0.28 0 1.2 0.28 0 0 0.32 0 0.04 0.32 0 0.08 0.32 0 0.12 0.32 0 0.16 0.32 0 0.2 0.32 0 0.24 0.32 0 0.28 0.32 0 0.32 0.32 0 0.36 0.32 0 0.4 0.32 0 0.44 0.32 0 0.48 0.32 0 0.52 0.32 0 0.56 0.32 0 0.6 0.32 0 0.64 0.32 0 0.68 0.32 0 0.72 0.32 0 0.76 0.32 0 0.8 0.32 0 0.84 0.32 0 0.88 0.32 0 0.92 0.32 0 0.96 0.32 0 1 0.32 0 1.04 0.32 0 1.08 0.32 0 1.12 0.32 0 1.16 0.32 0 1.2 0.32 0 0 0.36 0 0.04 0.36 0 0.08 0.36 0 0.12 0.36 0 0.16 0.36 0 0.2 0.36 0 0.24 0.36 0 0.28 0.36 0 0.32 0.36 0 0.36 0.36 0 0.4 0.36 0 0.44 0.36 0 0.48 0.36 0 0.52 0.36 0 0.56 0.36 0 0.6 0.36 0 0.64 0.36 0 0.68 0.36 0 0.72 0.36 0 0.76 0.36 0 0.8 0.36 0 0.84 0.36 0 0.88 0.36 0 0.92 0.36 0 0.96 0.36 0 1 0.36 0 1.04 0.36 0 1.08 0.36 0 1.12 0.36 0 1.16 0.36 0 1.2 0.36 0 0 0.4 0 0.04 0.4 0 0.08 0.4 0 0.12 0.4 0 0.16 0.4 0 0.2 0.4 0 0.24 0.4 0 0.28 0.4 0 0.32 0.4 0 0.36 0.4 0 0.4 0.4 0 0.44 0.4 0 0.48 0.4 0 0.52 0.4 0 0.56 0.4 0 0.6 0.4 0 0.64 0.4 0 0.68 0.4 0 0.72 0.4 0 0.76 0.4 0 0.8 0.4 0 0.84 0.4 0 0.88 0.4 0 0.92 0.4 0 0.96 0.4 0 1 0.4 0 1.04 0.4 0 1.08 0.4 0 1.12 0.4 0 1.16 0.4 0 1.2 0.4 0 0 0.44 0 0.04 0.44 0 0.08 0.44 0 0.12 0.44 0 0.16 0.44 0 0.2 0.44 0 0.24 0.44 0 0.28 0.44 0 0.32 0.44 0 0.36 0.44 0 0.4 0.44 0 0.44 0.44 0 0.48 0.44 0 0.52 0.44 0 0.56 0.44 0 0.6 0.44 0 0.64 0.44 0 0.68 0.44 0 0.72 0.44 0 0.76 0.44 0 0.8 0.44 0 0.84 0.44 0 0.88 0.44 0 0.92 0.44 0 0.96 0.44 0 1 0.44 0 1.04 0.44 0 1.08 0.44 0 1.12 0.44 0 1.16 0.44 0 1.2 0.44 0 0 0.48 0 0.04 0.48 0 0.08 0.48 0 0.12 0.48 0 0.16 0.48 0 0.2 0.48 0 0.24 0.48 0 0.28 0.48 0 0.32 0.48 0 0.36 0.48 0 0.4 0.48 0 0.44 0.48 0 0.48 0.48 0 0.52 0.48 0 0.56 0.48 0 0.6 0.48 0 0.64 0.48 0 0.68 0.48 0 0.72 0.48 0 0.76 0.48 0 0.8 0.48 0 0.84 0.48 0 0.88 0.48 0 0.92 0.48 0 0.96 0.48 0 1 0.48 0 1.04 0.48 0 1.08 0.48 0 1.12 0.48 0 1.16 0.48 0 1.2 0.48 0 0 0.52 0 0.04 0.52 0 0.08 0.52 0 0.12 0.52 0 0.16 0.52 0 0.2 0.52 0 0.24 0.52 0 0.28 0.52 0 0.32 0.52 0 0.36 0.52 0 0.4 0.52 0 0.44 0.52 0 0.48 0.52 0 0.52 0.52 0 0.56 0.52 0 0.6 0.52 0 0.64 0.52 0 0.68 0.52 0 0.72 0.52 0 0.76 0.52 0 0.8 0.52 0 0.84 0.52 0 0.88 0.52 0 0.92 0.52 0 0.96 0.52 0 1 0.52 0 1.04 0.52 0 1.08 0.52 0 1.12 0.52 0 1.16 0.52 0 1.2 0.52 0 0 0.56 0 0.04 0.56 0 0.08 0.56 0 0.12 0.56 0 0.16 0.56 0 0.2 0.56 0 0.24 0.56 0 0.28 0.56 0 0.32 0.56 0 0.36 0.56 0 0.4 0.56 0 0.44 0.56 0 0.48 0.56 0 0.52 0.56 0 0.56 0.56 0 0.6 0.56 0 0.64 0.56 0 0.68 0.56 0 0.72 0.56 0 0.76 0.56 0 0.8 0.56 0 0.84 0.56 0 0.88 0.56 0 0.92 0.56 0 0.96 0.56 0 1 0.56 0 1.04 0.56 0 1.08 0.56 0 1.12 0.56 0 1.16 0.56 0 1.2 0.56 0 0 0.6 0 0.04 0.6 0 0.08 0.6 0 0.12 0.6 0 0.16 0.6 0 0.2 0.6 0 0.24 0.6 0 0.28 0.6 0 0.32 0.6 0 0.36 0.6 0 0.4 0.6 0 0.44 0.6 0 0.48 0.6 0 0.52 0.6 0 0.56 0.6 0 0.6 0.6 0 0.64 0.6 0 0.68 0.6 0 0.72 0.6 0 0.76 0.6 0 0.8 0.6 0 0.84 0.6 0 0.88 0.6 0 0.92 0.6 0 0.96 0.6 0 1 0.6 0 1.04 0.6 0 1.08 0.6 0 1.12 0.6 0 1.16 0.6 0 1.2 0.6 0 0 0.64 0 0.04 0.64 0 0.08 0.64 0 0.12 0.64 0 0.16 0.64 0 0.2 0.64 0 0.24 0.64 0 0.28 0.64 0 0.32 0.64 0 0.36 0.64 0 0.4 0.64 0 0.44 0.64 0 0.48 0.64 0 0.52 0.64 0 0.56 0.64 0 0.6 0.64 0 0.64 0.64 0 0.68 0.64 0 0.72 0.64 0 0.76 0.64 0 0.8 0.64 0 0.84 0.64 0 0.88 0.64 0 0.92 0.64 0 0.96 0.64 0 1 0.64 0 1.04 0.64 0 1.08 0.64 0 1.12 0.64 0 1.16 0.64 0 1.2 0.64 0 0 0.68 0 0.04 0.68 0 0.08 0.68 0 0.12 0.68 0 0.16 0.68 0 0.2 0.68 0 0.24 0.68 0 0.28 0.68 0 0.32 0.68 0 0.36 0.68 0 0.4 0.68 0 0.44 0.68 0 0.48 0.68 0 0.52 0.68 0 0.56 0.68 0 0.6 0.68 0 0.64 0.68 0 0.68 0.68 0 0.72 0.68 0 0.76 0.68 0 0.8 0.68 0 0.84 0.68 0 0.88 0.68 0 0.92 0.68 0 0.96 0.68 0 1 0.68 0 1.04 0.68 0 1.08 0.68 0 1.12 0.68 0 1.16 0.68 0 1.2 0.68 0 0 0.72 0 0.04 0.72 0 0.08 0.72 0 0.12 0.72 0 0.16 0.72 0 0.2 0.72 0 0.24 0.72 0 0.28 0.72 0 0.32 0.72 0 0.36 0.72 0 0.4 0.72 0 0.44 0.72 0 0.48 0.72 0 0.52 0.72 0 0.56 0.72 0 0.6 0.72 0 0.64 0.72 0 0.68 0.72 0 0.72 0.72 0 0.76 0.72 0 0.8 0.72 0 0.84 0.72 0 0.88 0.72 0 0.92 0.72 0 0.96 0.72 0 1 0.72 0 1.04 0.72 0 1.08 0.72 0 1.12 0.72 0 1.16 0.72 0 1.2 0.72 0 0 0.76 0 0.04 0.76 0 0.08 0.76 0 0.12 0.76 0 0.16 0.76 0 0.2 0.76 0 0.24 0.76 0 0.28 0.76 0 0.32 0.76 0 0.36 0.76 0 0.4 0.76 0 0.44 0.76 0 0.48 0.76 0 0.52 0.76 0 0.56 0.76 0 0.6 0.76 0 0.64 0.76 0 0.68 0.76 0 0.72 0.76 0 0.76 0.76 0 0.8 0.76 0 0.84 0.76 0 0.88 0.76 0 0.92 0.76 0 0.96 0.76 0 1 0.76 0 1.04 0.76 0 1.08 0.76 0 1.12 0.76 0 1.16 0.76 0 1.2 0.76 0 0 0.8 0 0.04 0.8 0 0.08 0.8 0 0.12 0.8 0 0.16 0.8 0 0.2 0.8 0 0.24 0.8 0 0.28 0.8 0 0.32 0.8 0 0.36 0.8 0 0.4 0.8 0 0.44 0.8 0 0.48 0.8 0 0.52 0.8 0 0.56 0.8 0 0.6 0.8 0 0.64 0.8 0 0.68 0.8 0 0.72 0.8 0 0.76 0.8 0 0.8 0.8 0 0.84 0.8 0 0.88 0.8 0 0.92 0.8 0 0.96 0.8 0 1 0.8 0 1.04 0.8 0 1.08 0.8 0 1.12 0.8 0 1.16 0.8 0 1.2 0.8 0 0 0.84 0 0.04 0.84 0 0.08 0.84 0 0.12 0.84 0 0.16 0.84 0 0.2 0.84 0 0.24 0.84 0 0.28 0.84 0 0.32 0.84 0 0.36 0.84 0 0.4 0.84 0 0.44 0.84 0 0.48 0.84 0 0.52 0.84 0 0.56 0.84 0 0.6 0.84 0 0.64 0.84 0 0.68 0.84 0 0.72 0.84 0 0.76 0.84 0 0.8 0.84 0 0.84 0.84 0 0.88 0.84 0 0.92 0.84 0 0.96 0.84 0 1 0.84 0 1.04 0.84 0 1.08 0.84 0 1.12 0.84 0 1.16 0.84 0 1.2 0.84 0 0 0.88 0 0.04 0.88 0 0.08 0.88 0 0.12 0.88 0 0.16 0.88 0 0.2 0.88 0 0.24 0.88 0 0.28 0.88 0 0.32 0.88 0 0.36 0.88 0 0.4 0.88 0 0.44 0.88 0 0.48 0.88 0 0.52 0.88 0 0.56 0.88 0 0.6 0.88 0 0.64 0.88 0 0.68 0.88 0 0.72 0.88 0 0.76 0.88 0 0.8 0.88 0 0.84 0.88 0 0.88 0.88 0 0.92 0.88 0 0.96 0.88 0 1 0.88 0 1.04 0.88 0 1.08 0.88 0 1.12 0.88 0 1.16 0.88 0 1.2 0.88 0 0 0.92 0 0.04 0.92 0 0.08 0.92 0 0.12 0.92 0 0.16 0.92 0 0.2 0.92 0 0.24 0.92 0 0.28 0.92 0 0.32 0.92 0 0.36 0.92 0 0.4 0.92 0 0.44 0.92 0 0.48 0.92 0 0.52 0.92 0 0.56 0.92 0 0.6 0.92 0 0.64 0.92 0 0.68 0.92 0 0.72 0.92 0 0.76 0.92 0 0.8 0.92 0 0.84 0.92 0 0.88 0.92 0 0.92 0.92 0 0.96 0.92 0 1 0.92 0 1.04 0.92 0 1.08 0.92 0 1.12 0.92 0 1.16 0.92 0 1.2 0.92 0 0 0.96 0 0.04 0.96 0 0.08 0.96 0 0.12 0.96 0 0.16 0.96 0 0.2 0.96 0 0.24 0.96 0 0.28 0.96 0 0.32 0.96 0 0.36 0.96 0 0.4 0.96 0 0.44 0.96 0 0.48 0.96 0 0.52 0.96 0 0.56 0.96 0 0.6 0.96 0 0.64 0.96 0 0.68 0.96 0 0.72 0.96 0 0.76 0.96 0 0.8 0.96 0 0.84 0.96 0 0.88 0.96 0 0.92 0.96 0 0.96 0.96 0 1 0.96 0 1.04 0.96 0 1.08 0.96 0 1.12 0.96 0 1.16 0.96 0 1.2 0.96 0 0 1 0 0.04 1 0 0.08 1 0 0.12 1 0 0.16 1 0 0.2 1 0 0.24 1 0 0.28 1 0 0.32 1 0 0.36 1 0 0.4 1 0 0.44 1 0 0.48 1 0 0.52 1 0 0.56 1 0 0.6 1 0 0.64 1 0 0.68 1 0 0.72 1 0 0.76 1 0 0.8 1 0 0.84 1 0 0.88 1 0 0.92 1 0 0.96 1 0 1 1 0 1.04 1 0 1.08 1 0 1.12 1 0 1.16 1 0 1.2 1 0 0 1.04 0 0.04 1.04 0 0.08 1.04 0 0.12 1.04 0 0.16 1.04 0 0.2 1.04 0 0.24 1.04 0 0.28 1.04 0 0.32 1.04 0 0.36 1.04 0 0.4 1.04 0 0.44 1.04 0 0.48 1.04 0 0.52 1.04 0 0.56 1.04 0 0.6 1.04 0 0.64 1.04 0 0.68 1.04 0 0.72 1.04 0 0.76 1.04 0 0.8 1.04 0 0.84 1.04 0 0.88 1.04 0 0.92 1.04 0 0.96 1.04 0 1 1.04 0 1.04 1.04 0 1.08 1.04 0 1.12 1.04 0 1.16 1.04 0 1.2 1.04 0 0 1.08 0 0.04 1.08 0 0.08 1.08 0 0.12 1.08 0 0.16 1.08 0 0.2 1.08 0 0.24 1.08 0 0.28 1.08 0 0.32 1.08 0 0.36 1.08 0 0.4 1.08 0 0.44 1.08 0 0.48 1.08 0 0.52 1.08 0 0.56 1.08 0 0.6 1.08 0 0.64 1.08 0 0.68 1.08 0 0.72 1.08 0 0.76 1.08 0 0.8 1.08 0 0.84 1.08 0 0.88 1.08 0 0.92 1.08 0 0.96 1.08 0 1 1.08 0 1.04 1.08 0 1.08 1.08 0 1.12 1.08 0 1.16 1.08 0 1.2 1.08 0 0 1.12 0 
[...]
			<PointData Scalars="VitesseX">
				<DataArray Name="VitesseX" type="Float32" format="ascii">
 0 -0.0797386 -0.134047 -0.178445 -0.0983217 -0.0241688 0.101294 0.195611 0.292174 0.367711 0.437654 0.500638 0.559915 0.616933 0.672851 0.72879 0.784971 0.841779 0.899664 0.958837 1.01929 1.08108 1.14441 1.20955 1.27692 1.35013 1.33251 1.0705 0.560096 0.100319 0 0 0.147741 0.166858 0.109236 0.128351 0.142084 0.222365 0.274841 0.349806 0.410048 0.470247 0.5252 0.578314 0.630373 0.682239 0.734469 0.787552 0.841901 0.89783 0.955525 1.01502 1.07635 1.13964 1.20505 1.27285 1.34645 1.33275 1.07496 0.567008 0.105334 0 0 0.15569 0.242948 0.28855 0.321469 0.298554 0.35549 0.366945 0.414247 0.450693 0.495918 0.541448 0.589308 0.638596 0.688791 0.740016 0.792441 0.846454 0.902363 0.960163 1.01974 1.08102 1.14411 1.20917 1.27645 1.34911 1.34382 1.09582 0.593326 0.12384 0 0 0.110146 0.209401 0.275551 0.327492 0.328248 0.387903 0.397604 0.441938 0.472498 0.513223 0.55506 0.600091 0.647148 0.695982 0.746586 0.798938 0.853108 0.909102 0.966804 1.02609 1.08695 1.14953 1.214 1.28056 1.35174 1.35993 1.12775 0.636086 0.154055 0 0 0.0560053 0.145125 0.223334 0.29157 0.328322 0.375887 0.402803 0.450673 0.48766 0.529476 0.57035 0.612767 0.657496 0.704898 0.754817 0.806958 0.861039 0.916796 0.974057 1.03274 1.09291 1.15476 1.21853 1.28443 1.35417 1.37904 1.16874 0.693807 0.196144 0 0 0.021007 0.0845624 0.170039 0.242296 0.30645 0.349754 0.397903 0.4454 0.489946 0.536713 0.580807 0.624924 0.669512 0.715938 0.765053 0.816651 0.870165 0.925225 0.98169 1.03951 1.09883 1.15988 1.22298 1.28837 1.35701 1.39927 1.21691 0.766154 0.250754 0 0 0.0156018 0.0700497 0.147285 0.214903 0.278047 0.327505 0.385001 0.435387 0.48637 0.5367 0.584922 0.632631 0.679994 0.727737 0.776946 0.827997 0.88061 0.934592 0.989915 1.04665 1.10499 1.16522 1.2277 1.29272 1.36087 1.41836 1.27022 0.852508 0.318605 0 0 0.0209185 0.0734616 0.143072 0.210679 0.270094 0.325962 0.378987 0.429158 0.48247 0.535463 0.587064 0.63794 0.687939 0.737706 0.78788 0.838974 0.891109 0.944282 0.998583 1.05423 1.11157 1.171 1.23295 1.29774 1.36617 1.43374 1.32701 0.951593 0.400219 0 0 0.0281442 0.0801268 0.146023 0.21461 0.272246 0.328657 0.379048 0.430485 0.483256 0.536174 0.589267 0.642067 0.694122 0.745404 0.796439 0.847758 0.899706 0.952484 1.00627 1.06136 1.11815 1.17712 1.23874 1.30349 1.3728 1.44317 1.38677 1.06086 0.495464 0 0 0.0366274 0.08869 0.151697 0.21738 0.276626 0.33261 0.384105 0.435186 0.486796 0.539172 0.592352 0.645677 0.698688 0.751067 0.802835 0.854486 0.906476 0.959094 1.01264 1.06751 1.12415 1.18316 1.24478 1.30988 1.38029 1.4475 1.44919 1.17547 0.602779 0 0 0.0425672 0.0955363 0.156203 0.21949 0.280134 0.337383 0.390255 0.441423 0.49222 0.543752 0.596191 0.649058 0.702036 0.754804 0.807125 0.85918 0.91141 0.964105 1.01771 1.07264 1.12952 1.18888 1.2508 1.31686 1.38753 1.45267 1.50935 1.28936 0.719956 0 0 0.0464882 0.0997919 0.158294 0.219524 0.28056 0.338462 0.392866 0.444833 0.495752 0.546982 0.598927 0.651377 0.704099 0.75687 0.809504 0.862 0.914575 0.967599 1.02152 1.07683 1.13434 1.19423 1.25688 1.32447 1.39402 1.46346 1.56256 1.39561 0.842015 0 0 0.048939 0.102409 0.159063 0.218372 0.278667 0.337054 0.392276 0.444959 0.496399 0.5478 0.599668 0.652022 0.7047 0.757481 0.810302 0.863209 0.916239 0.969804 1.02424 1.08033 1.13877 1.19932 1.26346 1.33237 1.39966 1.48267 1.60878 1.48124 0.958628 0 0 0.050181 0.103547 0.158865 0.216016 0.274593 0.332595 0.388383 0.442124 0.494564 0.546464 0.598597 0.65115 0.704019 0.757044 0.810103 0.863253 0.916867 0.971042 1.02629 1.0836 1.14295 1.20455 1.2711 1.33905 1.40634 1.52056 1.638 1.52838 1.05464 0 0 0.0505062 0.103626 0.157869 0.213081 0.269281 0.325815 0.381424 0.435814 0.48927 0.542138 0.594937 0.647991 0.701424 0.755092 0.80877 0.86262 0.916832 0.971789 1.02835 1.08692 1.14708 1.21086 1.27918 1.34414 1.42205 1.57428 1.63756 1.52722 1.09838 0 0 0.0504552 0.103071 0.156186 0.209672 0.263706 0.318287 0.372996 0.427406 0.481484 0.535314 0.589005 0.642815 0.696997 0.751516 0.806251 0.861125 0.916327 0.972669 1.03078 1.09025 1.15201 1.21907 1.28522 1.35099 1.46197 1.60578 1.60698 1.46581 1.03623 0 0 0.050122 0.101852 0.153804 0.205803 0.258161 0.311282 0.36506 0.41915 0.473443 0.527872 0.582427 0.637117 0.692104 0.74758 0.803413 0.859447 0.916224 0.974249 1.03345 1.09411 1.15933 1.22683 1.2899 1.37248 1.52381 1.59205 1.54057 1.31874 0.810941 0 0 0.0495034 0.100166 0.150865 0.201603 0.25284 0.30505 0.358278 0.412249 0.46677 0.521711 0.576968 0.632525 0.688454 0.744835 0.801607 0.85897 0.917164 0.976359 1.03659 1.10048 1.16835 1.23171 1.30124 1.42861 1.54584 1.5406 1.41488 1.05848 0.46217 0 0 0.0487443 0.0983191 0.147928 0.197805 0.248334 0.299991 0.352929 0.406907 0.461665 0.517047 0.572934 0.629276 0.686047 0.743275 0.801106 0.859592 0.918893 0.979125 1.04238 1.10997 1.17413 1.23882 1.3424 1.48266 1.51414 1.44397 1.19448 0.677104 0.173916 0 0 0.0481265 0.0968515 0.145672 0.194961 0.245108 0.296489 0.349316 0.403385 0.458382 0.514146 0.570555 0.62752 0.685012 0.74305 0.801719 0.861185 0.92167 0.98487 1.05205 1.11669 1.18002 1.26988 1.4108 1.47231 1.43677 1.26314 0.843462 0.296322 0.0401614 0 0 0.0477547 0.0958983 0.144278 0.19333 0.243397 0.294749 0.347579 0.401756 0.456972 0.513037 0.569823 0.627244 0.685267 0.744023 0.80365 0.864525 0.928028 0.994804 1.05945 1.12275 1.20647 1.3403 1.41923 1.40821 1.285 0.949704 0.417671 0.0815414 0.00486494 0 0 0.0476413 0.0955223 0.143808 0.192892 0.243056 0.294503 0.347388 0.401648 0.457014 0.513305 0.570444 0.628396 0.6872 0.747004 0.808329 0.872179 0.938374 1.00263 1.06659 1.14932 1.27612 1.36085 1.36533 1.2742 1.00204 0.513354 0.129237 0.0118368 0.000258993 0 0 0.0477246 0.0956201 0.144048 0.193364 0.2438 0.295509 0.348604 0.403081 0.458789 0.515564 0.573328 0.632094 0.692094 0.753821 0.817737 0.882907 0.946627 1.01212 1.09775 1.21866 1.29972 1.31226 1.23988 1.01068 0.570675 0.170772 0.0213011 0.000762812 4.40007e-06 0 0 0.0481036 0.0963588 0.145314 0.195286 0.246385 0.298702 0.352302 0.407235 0.463458 0.520882 0.579532 0.639628 0.701446 0.764839 0.828657 0.892132 0.960955 1.05259 1.16543 1.23679 1.25082 1.18742 0.98414 0.586675 0.196278 0.0302634 0.00152762 1.53325e-05 2.92064e-08 0 0 0.0489125 0.0978675 0.147924 0.198922 0.251088 0.304347 0.35876 0.41442 0.471412 0.529804 0.589678 0.65098 0.713248 0.775916 0.840706 0.915867 1.01434 1.11172 1.17145 1.18123 1.1189 0.927777 0.563484 0.200814 0.0353752 0.00224565 3.34108e-05 9.15363e-08 2.20794e-10 0 0 0.0497025 0.10119 0.15126 0.204196 0.257584 0.312125 0.3677 0.424426 0.482385 0.541529 0.60171 0.662877 0.726112 0.795715 0.879994 0.975786 1.05303 1.10178 1.10226 1.03378 0.844176 0.506009 0.184487 0.0347326 0.00252874 4.84817e-05 1.83142e-07 6.5711e-10 1.56264e-12 0 0 0.0532278 0.0955227 0.160596 0.211443 0.270605 0.327077 0.382522 0.4376 0.495013 0.554368 0.616428 0.683705 0.760781 0.847786 0.926848 0.988305 1.02265 1.01119 0.929606 0.734167 0.421341 0.151627 0.0287129 0.00221354 4.83835e-05 2.30637e-07 8.91614e-10 2.60846e-12 3.35796e-11 0 0 0.0236143 0.103118 0.136229 0.226294 0.293944 0.356344 0.413904 0.469677 0.527419 0.588195 0.654015 0.727535 0.805037 0.86949 0.916571 0.932315 0.903986 0.803233 0.598758 0.319474 0.109573 0.0196709 0.0014893 3.32223e-05 1.82608e-07 8.90183e-10 3.35921e-12 8.58526e-14 -8.04193e-14 0 0 -0.00229424 -0.0546412 0.144449 0.240701 0.328068 0.401422 0.468603 0.533493 0.598104 0.663136 0.727741 0.787487 0.830686 0.852302 0.843807 0.785676 0.656101 0.444641 0.21475 0.0671657 0.0107674 0.000739703 1.52054e-05 9.0801e-08 5.87676e-10 2.8132e-12 -5.97158e-14 8.82018e-14 -8.9051e-14 0 0 -0.361645 0.000683119 0.162853 0.290084 0.390255 0.477918 0.560223 0.640145 0.717878 0.791158 0.854284 0.896498 0.903092 0.857363 0.732854 0.532822 0.302796 0.125524 0.0329226 0.00442851 0.000251269 4.35389e-06 2.88366e-08 2.85683e-10 1.35048e-12 -3.3364e-11 -6.52027e-14 8.7406e-14 3.343e-11 0 0 0 0 0 0 0 0 0 0 0 0 0 0 0 0 0 0 0 0 0 0 0 0 0 0 0 0 0 0 0 0
				</DataArray>
				<DataArray Name="VitesseY" type="Float32" format="ascii">
 0 0 0 0 0 0 0 0 0 0 0 0 0 0 0 0 0 0 0 0 0 0 0 0 0 0 0 0 0 0 0 -0.0797092 0.147712 0.155663 0.110133 0.0560014 0.0210046 0.0156013 0.0209215 0.0281505 0.0366335 0.0425719 0.0464926 0.0489435 0.0501853 0.05051 0.0504588 0.0501252 0.0495059 0.0487459 0.0481273 0.0477549 0.047641 0.0477236 0.0481055 0.0488576 0.0501463 0.0540509 0.0612962 0.0683185 0.082181 0 -0.134039 0.166803 0.242914 0.209381 0.145117 0.0845729 0.0700692 0.0734791 0.0801421 0.0887 0.0955417 0.0997956 0.102413 0.103552 0.103631 0.103076 0.101857 0.10017 0.0983212 0.0968524 0.0958983 0.0955217 0.0956194 0.0963516 0.0979138 0.100555 0.108167 0.122262 0.137248 0.162769 0 -0.17845 0.10918 0.288523 0.275531 0.223322 0.170045 0.147308 0.143097 0.146046 0.151712 0.156208 0.158296 0.159065 0.158867 0.157873 0.15619 0.153808 0.150868 0.14793 0.145672 0.144277 0.143807 0.144047 0.145315 0.147866 0.151911 0.162733 0.183062 0.205794 0.242889 0 -0.0983705 0.12828 0.321425 0.327477 0.291566 0.242308 0.214933 0.210711 0.214638 0.2174 0.2195 0.219528 0.218373 0.216016 0.213083 0.209676 0.205806 0.201605 0.197806 0.194961 0.19333 0.192892 0.193363 0.195282 0.198918 0.204339 0.217684 0.24302 0.273493 0.322825 0 -0.0242045 0.142034 0.298515 0.328222 0.328306 0.306452 0.278069 0.270121 0.272271 0.276647 0.280147 0.280569 0.278671 0.274594 0.269282 0.263708 0.258163 0.252841 0.248334 0.245108 0.243397 0.243056 0.243799 0.246384 0.25108 0.257772 0.272783 0.301696 0.340059 0.402536 0 0.101235 0.222313 0.355456 0.387887 0.375883 0.34976 0.327521 0.325983 0.328678 0.332629 0.337398 0.338473 0.337062 0.332599 0.325817 0.318288 0.311282 0.305049 0.29999 0.296488 0.294749 0.294503 0.295509 0.298701 0.304347 0.312204 0.327847 0.358834 0.405409 0.482092 0 0.195556 0.274807 0.366932 0.397587 0.40279 0.397897 0.385007 0.379001 0.379063 0.384122 0.390269 0.392878 0.392286 0.388389 0.381427 0.372996 0.365059 0.358277 0.352928 0.349315 0.347578 0.347387 0.348603 0.352301 0.358761 0.36772 0.382715 0.414539 0.469786 0.561519 0 0.292118 0.349776 0.414247 0.441932 0.450664 0.445394 0.435386 0.429167 0.430496 0.435199 0.441437 0.444845 0.444969 0.44213 0.435817 0.427405 0.419149 0.412247 0.406905 0.403383 0.401754 0.401646 0.40308 0.407234 0.41442 0.424429 0.437621 0.469793 0.533809 0.640515 0 0.367662 0.410025 0.450698 0.472498 0.487649 0.489936 0.486365 0.482474 0.483264 0.486808 0.492233 0.495763 0.496408 0.49457 0.489272 0.481484 0.473441 0.466768 0.461663 0.45838 0.45697 0.457012 0.458787 0.463457 0.471411 0.482385 0.495012 0.527433 0.598166 0.717976 0 0.43761 0.470229 0.495924 0.513229 0.529471 0.536702 0.536694 0.535465 0.536181 0.539183 0.543764 0.54699 0.547807 0.546469 0.542139 0.535312 0.52787 0.521709 0.517045 0.514144 0.513035 0.513302 0.515562 0.52088 0.529804 0.541528 0.554368 0.588198 0.663147 0.791182 0 0.500599 0.525186 0.541451 0.555067 0.570351 0.580798 0.584917 0.587065 0.589273 0.592362 0.5962 0.598933 0.599672 0.598599 0.594936 0.589003 0.582425 0.576967 0.572933 0.570553 0.569821 0.570442 0.573326 0.579531 0.589677 0.60171 0.616428 0.654017 0.727745 0.85429 0 0.559883 0.578302 0.589307 0.600096 0.612772 0.624919 0.632627 0.637942 0.642073 0.645684 0.649065 0.651382 0.652025 0.651151 0.64799 0.642813 0.637115 0.632524 0.629274 0.627518 0.627243 0.628395 0.632093 0.639627 0.650979 0.662877 0.683706 0.727536 0.787488 0.896499 0 0.616907 0.630364 0.638593 0.647151 0.6575 0.669511 0.679994 0.687943 0.694128 0.698694 0.702041 0.704103 0.704702 0.70402 0.701423 0.696994 0.692102 0.688452 0.686045 0.685011 0.685265 0.687199 0.692093 0.701445 0.713248 0.726112 0.760781 0.805037 0.830686 0.903091 0 0.672831 0.682232 0.688788 0.695982 0.7049 0.715939 0.727738 0.737711 0.74541 0.751072 0.754807 0.756872 0.757482 0.757045 0.755091 0.751514 0.747578 0.744833 0.743274 0.743049 0.744022 0.747003 0.75382 0.764839 0.775916 0.795714 0.847786 0.86949 0.852301 0.85736 0 0.728775 0.734464 0.740013 0.746585 0.754817 0.765053 0.776947 0.787885 0.796445 0.80284 0.807127 0.809505 0.810303 0.810103 0.80877 0.80625 0.803412 0.801606 0.801106 0.801718 0.80365 0.808328 0.817737 0.828656 0.840705 0.879995 0.926848 0.91657 0.843805 0.732849 0 0.784961 0.787549 0.792439 0.798936 0.806956 0.816651 0.827997 0.838979 0.847763 0.85449 0.859183 0.862002 0.863209 0.863253 0.862621 0.861125 0.859447 0.85897 0.859592 0.861184 0.864524 0.872178 0.882907 0.892132 0.915866 0.975785 0.988304 0.932314 0.785674 0.532817 0 0.841773 0.841899 0.846452 0.853105 0.861035 0.870163 0.880609 0.891113 0.899711 0.906479 0.911412 0.914576 0.916239 0.916867 0.916832 0.916327 0.916225 0.917165 0.918893 0.92167 0.928027 0.938373 0.946626 0.960954 1.01434 1.05303 1.02265 0.903983 0.656097 0.302792 0 0.899661 0.897829 0.902361 0.909098 0.916791 0.925221 0.93459 0.944285 0.952489 0.959098 0.964108 0.9676 0.969805 0.971043 0.97179 0.97267 0.974249 0.97636 0.979126 0.98487 0.994803 1.00263 1.01212 1.05259 1.11172 1.10178 1.01119 0.80323 0.444636 0.125522 0 0.958836 0.955525 0.960161 0.9668 0.974052 0.981686 0.989913 0.998585 1.00627 1.01264 1.01771 1.02152 1.02424 1.02629 1.02835 1.03078 1.03345 1.03659 1.04238 1.05205 1.05945 1.06659 1.09775 1.16543 1.17145 1.10225 0.929603 0.598754 0.214746 0.0329218 0 1.01929 1.01502 1.01973 1.02609 1.03273 1.03951 1.04664 1.05423 1.06137 1.06751 1.07265 1.07683 1.08033 1.0836 1.08692 1.09025 1.09411 1.10048 1.10997 1.11669 1.12275 1.14932 1.21866 1.23679 1.18122 1.03378 0.734163 0.31947 0.0671644 0.00442837 0 1.08108 1.07635 1.08102 1.08695 1.0929 1.09882 1.10499 1.11157 1.11816 1.12415 1.12952 1.13434 1.13877 1.14295 1.14708 1.15201 1.15933 1.16835 1.17413 1.18002 1.20647 1.27612 1.29971 1.25082 1.1189 0.844171 0.421338 0.109571 0.0107671 0.000251258 0 1.14441 1.13963 1.1441 1.14953 1.15476 1.15988 1.16522 1.171 1.17712 1.18317 1.18888 1.19424 1.19932 1.20455 1.21086 1.21907 1.22683 1.23171 1.23882 1.26987 1.3403 1.36085 1.31225 1.18742 0.927773 0.506005 0.151625 0.0196705 0.000739678 4.35365e-06 0 1.20954 1.20503 1.20916 1.21399 1.21852 1.22298 1.2277 1.23295 1.23874 1.24478 1.25081 1.25688 1.26347 1.2711 1.27918 1.28522 1.2899 1.30124 1.34239 1.4108 1.41923 1.36533 1.23988 0.984138 0.563481 0.184485 0.0287125 0.00148926 1.52048e-05 2.88351e-08 0 1.2768 1.27278 1.27638 1.2805 1.28443 1.28837 1.29273 1.29774 1.30349 1.30988 1.31686 1.32447 1.33237 1.33905 1.34414 1.35099 1.37248 1.42861 1.48266 1.47231 1.40821 1.2742 1.01068 0.586675 0.200814 0.0347324 0.00221352 3.32213e-05 9.07968e-08 2.85671e-10 0 1.34816 1.3438 1.34738 1.35109 1.35368 1.3571 1.36094 1.36618 1.3728 1.38029 1.38753 1.39402 1.39966 1.40634 1.42205 1.46197 1.52381 1.54584 1.51414 1.43677 1.285 1.00205 0.570677 0.196278 0.0353754 0.00252874 4.83829e-05 1.82604e-07 5.87658e-10 1.35062e-12 0 1.3878 1.38823 1.38414 1.38308 1.39188 1.40308 1.41938 1.43395 1.4432 1.4475 1.45267 1.46346 1.48267 1.52056 1.57428 1.60578 1.59206 1.5406 1.44398 1.26315 0.949708 0.513358 0.170774 0.0302638 0.00224568 4.84823e-05 2.30637e-07 8.90171e-10 2.81313e-12 -3.3364e-11 0 1.2503 1.22171 1.20509 1.19136 1.18915 1.22481 1.27249 1.32755 1.3869 1.44923 1.50936 1.56256 1.60878 1.638 1.63756 1.60698 1.54057 1.41488 1.19448 0.843466 0.417676 0.129239 0.0213015 0.00152767 3.34117e-05 1.83146e-07 8.91625e-10 3.35921e-12 -5.9716e-14 -6.52027e-14 0 0.879255 0.91263 0.771345 0.67975 0.719879 0.773883 0.854673 0.952246 1.06105 1.17551 1.28937 1.39561 1.48124 1.52838 1.52722 1.46581 1.31875 1.05848 0.67711 0.296326 0.081543 0.0118371 0.000762838 1.53331e-05 9.15405e-08 6.57129e-10 2.60852e-12 8.58527e-14 8.82018e-14 8.7406e-14 0 0.910813 0.487175 0.103516 0.18617 0.198683 0.252104 0.319163 0.400367 0.495509 0.602793 0.71996 0.842015 0.958627 1.05464 1.09839 1.03624 0.810947 0.462176 0.17392 0.0401624 0.0048651 0.000259004 4.40032e-06 2.9208e-08 2.20806e-10 1.5625e-12 3.35796e-11 -8.04193e-14 -8.9051e-14 3.343e-11 0 3.02789 0 0 0 0 0 0 0 0 0 0 0 0 0 0 0 0 0 0 0 0 0 0 0 0 0 0 0 0 0 0
				</DataArray>
			</PointData>
			<CellData Scalars="Density">
				<DataArray Name="Density" type="Float32" format="ascii">