<?xml version="1.0"?>
<VTKFile type="PolyData">
	<PolyData>
		<Piece NumberOfPoints="961" NumberOfPolys="900">
			<Points>
				<DataArray type="Float32" NumberOfComponents="3" format="ascii">
 0 0 0 0.04 0 0 0.08 0 0 0.12 0 0 0.16 0 0 0.2 0 0 0.24 0 0 0.28 0 0 0.32 0 0 0.36 0 0 0.4 0 0 0.44 0 0 0.48 0 0 0.52 0 0 0.56 0 0 0.6 0 0 0.64 0 0 0.68 0 0 0.72 0 0 0.76 0 0 0.8 0 0 0.84 0 0 0.88 0 0 0.92 0 0 0.96 0 0 1 0 0 1.04 0 0 1.08 0 0 1.12 0 0 1.16 0 0 1.2 0 0 0 0.04 0 0.04 0.04 0 0.08 0.04 0 0.12 0.04 0 0.16 0.04 0 0.2 0.04 0 0.24 0.04 0 0.28 0.04 0 0.32 0.04 0 0.36 0.04 0 0.4 0.04 0 0.44 0.04 0 0.48 0.04 0 0.52 0.04 0 0.56 0.04 0 0.6 0.04 0 0.64 0.04 0 0.68 0.04 0 0.72 0.04 0 0.76 0.04 0 0.8 0.04 0 0.84 0.04 0 0.88 0.04 0 0.92 0.04 0 0.96 0.04 0 1 0.04 0 1.04 0.04 0 1.08 0.04 0 1.12 0.04 0 1.16 0.04 0 1.2 0.04 0 0 0.08 0 0.04 0.08 0 0.08 0.08 0 0.12 0.08 0 0.16 0.08 0 0.2 0.08 0 0.24 0.08 0 0.28 0.08 0 0.32 0.08 0 0.36 0.08 0 0.4 0.08 0 0.44 0.08 0 0.48 0.08 0 0.52 0.08 0 0.56 0.08 0 0.6 0.08 0 0.64 0.08 0 0.68 0.08 0 0.72 0.08 0 0.76 0.08 0 0.8 0.08 0 0.84 0.08 0 0.88 0.08 0 0.92 0.08 0 0.96 0.08 0 1 0.08 0 1.04 0.08 0 1.08 0.08 0 1.12 0.08 0 1.16 0.08 0 1.2 0.08 0 0 0.12 0 0.04 0.12 0 0.08 0.12 0 0.12 0.12 0 0.16 0.12 0 0.2 0.12 0 0.24 0.12 0 0.28 0.12 0 0.32 0.12 0 0.36 0.12 0 0.4 0.12 0 0.44 0.12 0 0.48 0.12 0 0.52 0.12 0 0.56 0.12 0 0.6 0.12 0 0.64 0.12 0 0.68 0.12 0 0.72 0.12 0 0.76 0.12 0 0.8 0.12 0 0.84 0.12 0 0.88 0.12 0 0.92 0.12 0 0.96 0.12 0 1 0.12 0 1.04 0.12 0 1.08 0.12 0 1.12 0.12 0 1.16 0.12 0 1.2 0.12 0 0 0.16 0 0.04 0.16 0 0.08 0.16 0 0.12 0.16 0 0.16 0.16 0 0.2 0.16 0 0.24 0.16 0 0.28 0.16 0 0.32 0.16 0 0.36 0.16 0 0.4 0.16 0 0.44 0.16 0 0.48 0.16 0 0.52 0.16 0 0.56 0.16 0 0.6 0.16 0 0.64 0.16 0 0.68 0.16 0 0.72 0.16 0 0.76 0.16 0 0.8 0.16 0 0.84 0.16 0 0.88 0.16 0 0.92 0.16 0 0.96 0.16 0 1 0.16 0 1.04 0.16 0 1.08 0.16 0 1.12 0.16 0 1.16 0.16 0 1.2 0.16 0 0 0.2 0 0.04 0.2 0 0.08 0.2 0 0.12 0.2 0 0.16 0.2 0 0.2 0.2 0 0.24 0.2 0 0.28 0.2 0 0.32 0.2 0 0.36 0.2 0 0.4 0.2 0 0.44 0.2 0 0.48 0.2 0 0.52 0.2 0 0.56 0.2 0 0.6 0.2 0 0.64 0.2 0 0.68 0.2 0 0.72 0.2 0 0.76 0.2 0 0.8 0.2 0 0.84 0.2 0 0.88 0.2 0 0.92 0.2 0 0.96 0.2 0 1 0.2 0 1.04 0.2 0 1.08 0.2 0 1.12 0.2 0 1.16 0.2 0 1.2 0.2 0 0 0.24 0 0.04 0.24 0 0.08 0.24 0 0.12 0.24 0 0.16 0.24 0 0.2 0.24 0 0.24 0.24 0 0.28 0.24 0 0.32 0.24 0 0.36 0.24 0 0.4 0.24 0 0.44 0.24 0 0.48 0.24 0 0.52 0.24 0 0.56 0.24 0 0.6 0.24 0 0.64 0.24 0 0.68 0.24 0 0.72 0.24 0 0.76 0.24 0 0.8 0.24 0 0.84 0.24 0 0.88 0.24 0 0.92 0.24 0 0.96 0.24 0 1 0.24 0 1.04 0.24 0 1.08 0.24 0 1.12 0.24 0 1.16 0.24 0 1.2 0.24 0 0 0.28 0 0.04 0.28 0 0.08 0.28 0 0.12 0.28 0 0.16 0.28 0 0.2 0.28 0 0.24 0.28 0 0.28 0.28 0 0.32 0.28 0 0.36 0.28 0 0.4 0.28 0 0.44 0.28 0 0.48 0.28 0 0.52 0.28 0 0.56 0.28 0 0.6 0.28 0 0.64 0.28 0 0.68 0.28 0 0.72 0.28 0 0.76 0.28 0 0.8 0.28 0 0.84 0.28 0 0.88 0.28 0 0.92 0.28 0 0.96 0.28 0 1 0.28 0 1.04 0.28 0 1.08 0.28 0 1.12 0.28 0 1.16 0.28 0 1.2 0.28 0 0 0.32 0 0.04 0.32 0 0.08 0.32 0 0.12 0.32 0 0.16 0.32 0 0.2 0.32 0 0.24 0.32 0 0.28 0.32 0 0.32 0.32 0 0.36 0.32 0 0.4 0.32 0 0.44 0.32 0 0.48 0.32 0 0.52 0.32 0 0.56 0.32 0 0.6 0.32 0 0.64 0.32 0 0.68 0.32 0 0.72 0.32 0 0.76 0.32 0 0.8 0.32 0 0.84 0.32 0 0.88 0.32 0 0.92 0.32 0 0.96 0.32 0 1 0.32 0 1.04 0.32 0 1.08 0.32 0 1.12 0.32 0 1.16 0.32 0 1.2 0.32 0 0 0.36 0 0.04 0.36 0 0.08 0.36 0 0.12 0.36 0 0.16 0.36 0 0.2 0.36 0 0.24 0.36 0 0.28 0.36 0 0.32 0.36 0 0.36 0.36 0 0.4 0.36 0 0.44 0.36 0 0.48 0.36 0 0.52 0.36 0 0.56 0.36 0 0.6 0.36 0 0.64 0.36 0 0.68 0.36 0 0.72 0.36 0 0.76 0.36 0 0.8 0.36 0 0.84 0.36 0 0.88 0.36 0 0.92 0.36 0 0.96 0.36 0 1 0.36 0 1.04 0.36 0 1.08 0.36 0 1.12 0.36 0 1.16 0.36 0 1.2 0.36 0 0 0.4 0 0.04 0.4 0 0.08 0.4 0 0.12 0.4 0 0.16 0.4 0 0.2 0.4 0 0.24 0.4 0 0.28 0.4 0 0.32 0.4 0 0.36 0.4 0 0.4 0.4 0 0.44 0.4 0 0.48 0.4 0 0.52 0.4 0 0.56 0.4 0 0.6 0.4 0 0.64 0.4 0 0.68 0.4 0 0.72 0.4 0 0.76 0.4 0 0.8 0.4 0 0.84 0.4 0 0.88 0.4 0 0.92 0.4 0 0.96 0.4 0 1 0.4 0 1.04 0.4 0 1.08 0.4 0 1.12 0.4 0 1.16 0.4 0 1.2 0.4 0 0 0.44 0 0.04 0.44 0 0.08 0.44 0 0.12 0.44 0 0.16 0.44 0 0.2 0.44 0 0.24 0.44 0 0.28 0.44 0 0.32 0.44 0 0.36 0.44 0 0.4 0.44 0 0.44 0.44 0 0.48 0.44 0 0.52 0.44 0 0.56 0.44 0 0.6 0.44 0 0.64 0.44 0 0.68 0.44 0 0.72 0.44 0 0.76 0.44 0 0.8 0.44 0 0.84 0.44 0 0.88 0.44 0 0.92 0.44 0 0.96 0.44 0 1 0.44 0 1.04 0.44 0 1.08 0.44 0 1.12 0.44 0 1.16 0.44 0 1.2 0.44 0 0 0.48 0 0.04 0.48 0 0.08 0.48 0 0.12 0.48 0 0.16 0.48 0 0.2 0.48 0 0.24 0.48 0 0.28 0.48 0 0.32 0.48 0 0.36 0.48 0 0.4 0.48 0 0.44 0.48 0 0.48 0.48 0 0.52 0.48 0 0.56 0.48 0 0.6 0.48 0 0.64 0.48 0 0.68 0.48 0 0.72 0.48 0 0.76 0.48 0 0.8 0.48 0 0.84 0.48 0 0.88 0.48 0 0.92 0.48 0 0.96 0.48 0 1 0.48 0 1.04 0.48 0 1.08 0.48 0 1.12 0.48 0 1.16 0.48 0 1.2 0.48 0 0 0.52 0 0.04 0.52 0 0.08 0.52 0 0.12 0.52 0 0.16 0.52 0 0.2 0.52 0 0.24 0.52 0 0.28 0.52 0 0.32 0.52 0 0.36 0.52 0 0.4 0.52 0 0.44 0.52 0 0.48 0.52 0 0.52 0.52 0 0.56 0.52 0 0.6 0.52 0 0.64 0.52 0 0.68 0.52 0 0.72 0.52 0 0.76 0.52 0 0.8 0.52 0 0.84 0.52 0 0.88 0.52 0 0.92 0.52 0 0.96 0.52 0 1 0.52 0 1.04 0.52 0 1.08 0.52 0 1.12 0.52 0 1.16 0.52 0 1.2 0.52 0 0 0.56 0 0.04 0.56 0 0.08 0.56 0 0.12 0.56 0 0.16 0.56 0 0.2 0.56 0 0.24 0.56 0 0.28 0.56 0 0.32 0.56 0 0.36 0.56 0 0.4 0.56 0 0.44 0.56 0 0.48 0.56 0 0.52 0.56 0 0.56 0.56 0 0.6 0.56 0 0.64 0.56 0 0.68 0.56 0 0.72 0.56 0 0.76 0.56 0 0.8 0.56 0 0.84 0.56 0 0.88 0.56 0 0.92 0.56 0 0.96 0.56 0 1 0.56 0 1.04 0.56 0 1.08 0.56 0 1.12 0.56 0 1.16 0.56 0 1.2 0.56 0 0 0.6 0 0.04 0.6 0 0.08 0.6 0 0.12 0.6 0 0.16 0.6 0 0.2 0.6 0 0.24 0.6 0 0.28 0.6 0 0.32 0.6 0 0.36 0.6 0 0.4 0.6 0 0.44 0.6 0 0.48 0.6 0 0.52 0.6 0 0.56 0.6 0 0.6 0.6 0 0.64 0.6 0 0.68 0.6 0 0.72 0.6 0 0.76 0.6 0 0.8 0.6 0 0.84 0.6 0 0.88 0.6 0 0.92 0.6 0 0.96 0.6 0 1 0.6 0 1.04 0.6 0 1.08 0.6 0 1.12 0.6 0 1.16 0.6 0 1.2 0.6 0 0 0.64 0 0.04 0.64 0 0.08 0.64 0 0.12 0.64 0 0.16 0.64 0 0.2 0.64 0 0.24 0.64 0 0.28 0.64 0 0.32 0.64 0 0.36 0.64 0 0.4 0.64 0 0.44 0.64 0 0.48 0.64 0 0.52 0.64 0 0.56 0.64 0 0.6 0.64 0 0.64 0.64 0 0.68 0.64 0 0.72 0.64 0 0.76 0.64 0 0.8 0.64 0 0.84 0.64 0 0.88 0.64 0 0.92 0.64 0 0.96 0.64 0 1 0.64 0 1.04 0.64 0 1.08 0.64 0 1.12 0.64 0 1.16 0.64 0 1.2 0.64 0 0 0.68 0 0.04 0.68 0 0.08 0.68 0 0.12 0.68 0 0.16 0.68 0 0.2 0.68 0 0.24 0.68 0 0.28 0.68 0 0.32 0.68 0 0.36 0.68 0 0.4 0.68 0 0.44 0.68 0 0.48 0.68 0 0.52 0.68 0 0.56 0.68 0 0.6 0.68 0 0.64 0.68 0 0.68 0.68 0 0.72 0.68 0 0.76 0.68 0 0.8 0.68 0 0.84 0.68 0 0.88 0.68 0 0.92 0.68 0 0.96 0.68 0 1 0.68 0 1.04 0.68 0 1.08 0.68 0 1.12 0.68 0 1.16 0.68 0 1.2 0.68 0 0 0.72 0 0.04 0.72 0 0.08 0.72 0 0.12 0.72 0 0.16 0.72 0 0.2 0.72 0 0.24 0.72 0 0.28 0.72 0 0.32 0.72 0 0.36 0.72 0 0.4 0.72 0 0.44 0.72 0 0.48 0.72 0 0.52 0.72 0 0.56 0.72 0 0.6 0.72 0 0.64 0.72 0 0.68 0.72 0 0.72 0.72 0 0.76 0.72 0 0.8 0.72 0 0.84 0.72 0 0.88 0.72 0 0.92 0.72 0 0.96 0.72 0 1 0.72 0 1.04 0.72 0 1.08 0.72 0 1.12 0.72 0 1.16 0.72 0 1.2 0.72 0 0 0.76 0 0.04 0.76 0 0.08 0.76 0 0.12 0.76 0 0.16 0.76 0 0.2 0.76 0 0.24 0.76 0 0.28 0.76 0 0.32 0.76 0 0.36 0.76 0 0.4 0.76 0 0.44 0.76 0 0.48 0.76 0 0.52 0.76 0 0.56 0.76 0 0.6 0.76 0 0.64 0.76 0 0.68 0.76 0 0.72 0.76 0 0.76 0.76 0 0.8 0.76 0 0.84 0.76 0 0.88 0.76 0 0.92 0.76 0 0.96 0.76 0 1 0.76 0 1.04 0.76 0 1.08 0.76 0 1.12 0.76 0 1.16 0.76 0 1.2 0.76 0 0 0.8 0 0.04 0.8 0 0.08 0.8 0 0.12 0.8 0 0.16 0.8 0 0.2 0.8 0 0.24 0.8 0 0.28 0.8 0 0.32 0.8 0 0.36 0.8 0 0.4 0.8 0 0.44 0.8 0 0.48 0.8 0 0.52 0.8 0 0.56 0.8 0 0.6 0.8 0 0.64 0.8 0 0.68 0.8 0 0.72 0.8 0 0.76 0.8 0 0.8 0.8 0 0.84 0.8 0 0.88 0.8 0 0.92 0.8 0 0.96 0.8 0 1 0.8 0 1.04 0.8 0 1.08 0.8 0 1.12 0.8 0 1.16 0.8 0 1.2 0.8 0 0 0.84 0 0.04 0.84 0 0.08 0.84 0 0.12 0.84 0 0.16 0.84 0 0.2 0.84 0 0.24 0.84 0 0.28 0.84 0 0.32 0.84 0 0.36 0.84 0 0.4 0.84 0 0.44 0.84 0 0.48 0.84 0 0.52 0.84 0 0.56 0.84 0 0.6 0.84 0 0.64 0.84 0 0.68 0.84 0 0.72 0.84 0 0.76 0.84 0 0.8 0.84 0 0.84 0.84 0 0.88 0.84 0 0.92 0.84 0 0.96 0.84 0 1 0.84 0 1.04 0.84 0 1.08 0.84 0 1.12 0.84 0 1.16 0.84 0 1.2 0.84 0 0 0.88 0 0.04 0.88 0 0.08 0.88 0 0.12 0.88 0 0.16 0.88 0 0.2 0.88 0 0.24 0.88 0 0.28 0.88 0 0.32 0.88 0 0.36 0.88 0 0.4 0.88 0 0.44 0.88 0 0.48 0.88 0 0.52 0.88 0 0.56 0.88 0 0.6 0.88 0 0.64 0.88 0 0.68 0.88 0 0.72 0.88 0 0.76 0.88 0 0.8 0.88 0 0.84 0.88 0 0.88 0.88 0 0.92 0.88 0 0.96 0.88 0 1 0.88 0 1.04 0.88 0 1.08 0.88 0 1.12 0.88 0 1.16 0.88 0 1.2 0.88 0 0 0.92 0 0.04 0.92 0 0.08 0.92 0 0.12 0.92 0 0.16 0.92 0 0.2 0.92 0 0.24 0.92 0 0.28 0.92 0 0.32 0.92 0 0.36 0.92 0 0.4 0.92 0 0.44 0.92 0 0.48 0.92 0 0.52 0.92 0 0.56 0.92 0 0.6 0.92 0 0.64 0.92 0 0.68 0.92 0 0.72 0.92 0 0.76 0.92 0 0.8 0.92 0 0.84 0.92 0 0.88 0.92 0 0.92 0.92 0 0.96 0.92 0 1 0.92 0 1.04 0.92 0 1.08 0.92 0 1.12 0.92 0 1.16 0.92 0 1.2 0.92 0 0 0.96 0 0.04 0.96 0 0.08 0.96 0 0.12 0.96 0 0.16 0.96 0 0.2 0.96 0 0.24 0.96 0 0.28 0.96 0 0.32 0.96 0 0.36 0.96 0 0.4 0.96 0 0.44 0.96 0 0.48 0.96 0 0.52 0.96 0 0.56 0.96 0 0.6 0.96 0 0.64 0.96 0 0.68 0.96 0 0.72 0.96 0 0.76 0.96 0 0.8 0.96 0 0.84 0.96 0 0.88 0.96 0 0.92 0.96 0 0.96 0.96 0 1 0.96 0 1.04 0.96 0 1.08 0.96 0 1.12 0.96 0 1.16 0.96 0 1.2 0.96 0 0 1 0 0.04 1 0 0.08 1 0 0.12 1 0 0.16 1 0 0.2 1 0 0.24 1 0 0.28 1 0 0.32 1 0 0.36 1 0 0.4 1 0 0.44 1 0 0.48 1 0 0.52 1 0 0.56 1 0 0.6 1 0 0.64 1 0 0.68 1 0 0.72 1 0 0.76 1 0 0.8 1 0 0.84 1 0 0.88 1 0 0.92 1 0 0.96 1 0 1 1 0 1.04 1 0 1.08 1 0 1.12 1 0 1.16 1 0 1.2 1 0 0 1.04 0 0.04 1.04 0 0.08 1.04 0 0.12 1.04 0 0.16 1.04 0 0.2 1.04 0 0.24 1.04 0 0.28 1.04 0 0.32 1.04 0 0.36 1.04 0 0.4 1.04 0 0.44 1.04 0 0.48 1.04 0 0.52 1.04 0 0.56 1.04 0 0.6 1.04 0 0.64 1.04 0 0.68 1.04 0 0.72 1.04 0 0.76 1.04 0 0.8 1.04 0 0.84 1.04 0 0.88 1.04 0 0.92 1.04 0 0.96 1.04 0 1 1.04 0 1.04 1.04 0 1.08 1.04 0 1.12 1.04 0 1.16 1.04 0 1.2 1.04 0 0 1.08 0 0.04 1.08 0 0.08 1.08 0 0.12 1.08 0 0.16 1.08 0 0.2 1.08 0 0.24 1.08 0 0.28 1.08 0 0.32 1.08 0 0.36 1.08 0 0.4 1.08 0 0.44 1.08 0 0.48 1.08 0 0.52 1.08 0 0.56 1.08 0 0.6 1.08 0 0.64 1.08 0 0.68 1.08 0 0.72 1.08 0 0.76 1.08 0 0.8 1.08 0 0.84 1.08 0 0.88 1.08 0 0.92 1.08 0 0.96 1.08 0 1 1.08 0 1.04 1.08 0 1.08 1.08 0 1.12 1.08 0 1.16 1.08 0 1.2 1.08 0 0 1.12 0 
[...]
			<PointData Scalars="VitesseX">
				<DataArray Name="VitesseX" type="Float32" format="ascii">
 0 -0.0660412 -0.112897 -0.0404552 0.100169 0.257394 0.360515 0.380635 0.337645 0.282322 0.230558 0.199595 0.192105 0.202629 0.220859 0.231841 0.0989961 -0.413664 -0.977352 -1.23045 -1.18036 -1.0544 -0.9385 -0.824896 -0.712248 -0.599561 -0.485335 -0.368363 -0.24844 -0.124957 0 0 0.0552641 0.0428521 0.0696153 0.155447 0.258124 0.327498 0.323509 0.282113 0.234708 0.199554 0.180033 0.179742 0.193489 0.214122 0.226852 0.0991922 -0.405739 -0.968562 -1.22559 -1.18074 -1.05448 -0.938633 -0.825129 -0.712609 -0.600067 -0.485988 -0.369057 -0.248948 -0.12515 0 0 -0.0229 -0.0265918 -0.0335261 -0.0272974 -0.000783483 0.0400098 0.0794056 0.0985049 0.104682 0.109114 0.120517 0.138939 0.164647 0.192643 0.21066 0.0977375 -0.383355 -0.942055 -1.21019 -1.18169 -1.05435 -0.938428 -0.824983 -0.712602 -0.600258 -0.486425 -0.369624 -0.249393 -0.125408 0 0 -0.10586 -0.171731 -0.201026 -0.21289 -0.218899 -0.195841 -0.143622 -0.0879617 -0.0408371 0.000257171 0.0388985 0.0780732 0.116473 0.153523 0.179344 0.0885761 -0.350776 -0.897664 -1.18219 -1.18359 -1.05461 -0.9384 -0.824914 -0.71261 -0.600419 -0.486809 -0.370159 -0.249891 -0.125696 0 0 -0.148941 -0.23653 -0.279603 -0.30701 -0.325392 -0.323382 -0.277247 -0.210568 -0.147221 -0.091945 -0.0415463 0.00633062 0.0523316 0.095908 0.128223 0.0631379 -0.314689 -0.835299 -1.14137 -1.18324 -1.05578 -0.938955 -0.825252 -0.712869 -0.600705 -0.487279 -0.370853 -0.250612 -0.126075 0 0 -0.146327 -0.239432 -0.292466 -0.325556 -0.347683 -0.35974 -0.344538 -0.292258 -0.227785 -0.166394 -0.113476 -0.0653003 -0.0195093 0.0236898 0.0565863 0.0169666 -0.282208 -0.756447 -1.08661 -1.17256 -1.05765 -0.940108 -0.826 -0.713399 -0.601151 -0.487868 -0.371713 -0.25158 -0.126634 0 0 -0.100633 -0.180207 -0.240769 -0.285204 -0.316149 -0.338592 -0.348562 -0.333142 -0.288874 -0.232561 -0.178592 -0.132856 -0.0917983 -0.0542615 -0.0288604 -0.0517821 -0.262292 -0.66694 -1.01136 -1.14101 -1.06063 -0.941749 -0.82713 -0.714172 -0.601737 -0.48855 -0.372702 -0.252794 -0.127485 0 0 -0.0164571 -0.0432448 -0.100359 -0.17359 -0.238681 -0.282565 -0.311846 -0.328972 -0.323544 -0.289387 -0.242472 -0.198599 -0.162775 -0.133486 -0.117681 -0.139222 -0.265231 -0.576508 -0.909377 -1.07744 -1.06268 -0.943829 -0.828547 -0.7151 -0.602409 -0.489273 -0.373778 -0.254225 -0.128594 0 0 0.0349191 0.0398417 -0.00373454 -0.0770736 -0.160516 -0.23108 -0.279045 -0.312092 -0.332677 -0.332191 -0.305996 -0.268791 -0.236046 -0.214814 -0.208392 -0.234745 -0.302159 -0.495931 -0.780992 -0.98393 -1.04508 -0.945466 -0.830043 -0.716094 -0.603107 -0.489977 -0.374867 -0.255772 -0.129834 0 0 0.0424712 0.057461 0.0240607 -0.0406641 -0.120284 -0.202642 -0.267488 -0.310518 -0.343915 -0.366534 -0.368197 -0.347524 -0.319456 -0.301721 -0.303993 -0.331897 -0.373733 -0.444894 -0.644245 -0.864599 -0.979337 -0.945269 -0.831368 -0.717066 -0.603735 -0.490578 -0.37587 -0.257318 -0.131064 0 0 0.033977 0.0419158 0.0118849 -0.0479844 -0.120988 -0.200586 -0.278419 -0.340238 -0.383252 -0.415543 -0.436147 -0.437065 -0.418605 -0.400692 -0.406338 -0.434746 -0.461024 -0.454471 -0.522962 -0.712837 -0.868186 -0.921886 -0.831271 -0.717863 -0.604202 -0.491005 -0.376697 -0.258783 -0.132229 0 0 0.0122745 0.00506083 -0.0300999 -0.0866025 -0.156935 -0.232207 -0.309659 -0.383473 -0.4437 -0.488528 -0.522409 -0.543052 -0.544969 -0.528606 -0.518528 -0.535763 -0.54668 -0.522821 -0.463463 -0.54992 -0.7267 -0.839541 -0.825169 -0.717819 -0.604465 -0.491202 -0.377298 -0.260132 -0.133349 0 0 -0.0135616 -0.0386639 -0.0834287 -0.145426 -0.213678 -0.284111 -0.355724 -0.428839 -0.500409 -0.563368 -0.613456 -0.652452 -0.676298 -0.684268 -0.670101 -0.649343 -0.637438 -0.599651 -0.486946 -0.42294 -0.554047 -0.708617 -0.782466 -0.71502 -0.604477 -0.491166 -0.377658 -0.261366 -0.13449 0 0 -0.0358923 -0.0792082 -0.135431 -0.202683 -0.273457 -0.341145 -0.406215 -0.470686 -0.540696 -0.617292 -0.690494 -0.752152 -0.80104 -0.831061 -0.831612 -0.794629 -0.738226 -0.686037 -0.542533 -0.391027 -0.384022 -0.543892 -0.674109 -0.69756 -0.602654 -0.490991 -0.377787 -0.262442 -0.135695 0 0 -0.0531117 -0.11034 -0.176463 -0.249387 -0.32204 -0.388291 -0.447049 -0.504452 -0.564697 -0.640409 -0.731269 -0.818318 -0.89644 -0.952079 -0.971309 -0.93906 -0.864679 -0.755595 -0.623431 -0.429187 -0.287457 -0.356658 -0.521729 -0.625339 -0.595193 -0.490189 -0.377712 -0.263326 -0.13701 0 0 -0.0651846 -0.131035 -0.200893 -0.275641 -0.347528 -0.412175 -0.46976 -0.522053 -0.576467 -0.638564 -0.72446 -0.838918 -0.943789 -1.01969 -1.05993 -1.05098 -0.97814 -0.836503 -0.685648 -0.504734 -0.293503 -0.205411 -0.335067 -0.490746 -0.556347 -0.486384 -0.37741 -0.263975 -0.13843 0 0 -0.0717596 -0.141147 -0.207473 -0.272181 -0.335957 -0.397288 -0.45524 -0.511363 -0.566445 -0.621717 -0.690301 -0.782275 -0.900341 -1.01473 -1.0908 -1.11158 -1.04376 -0.909984 -0.734285 -0.574083 -0.368299 -0.155046 -0.150942 -0.313972 -0.451241 -0.468122 -0.375456 -0.264338 -0.139903 0 0 -0.0651331 -0.127932 -0.184719 -0.234114 -0.285972 -0.342459 -0.402348 -0.461197 -0.518634 -0.577763 -0.636071 -0.708529 -0.801438 -0.908328 -1.00669 -1.06527 -1.05145 -0.944628 -0.789025 -0.612293 -0.449469 -0.210814 -0.0372072 -0.115828 -0.290835 -0.398645 -0.367369 -0.263753 -0.141383 0 0 -0.0397435 -0.0831114 -0.11889 -0.156681 -0.194572 -0.24332 -0.305636 -0.371532 -0.435205 -0.496564 -0.557404 -0.618175 -0.68981 -0.778965 -0.864041 -0.924444 -0.948371 -0.910888 -0.814292 -0.649468 -0.481172 -0.3202 -0.0388699 0.0447723 -0.0943823 -0.261941 -0.328231 -0.259721 -0.142555 0 0 -0.0141191 -0.0315074 -0.0458604 -0.0670047 -0.0842627 -0.118555 -0.169489 -0.230309 -0.297204 -0.370534 -0.44996 -0.524543 -0.578075 -0.640358 -0.704338 -0.769728 -0.810552 -0.811265 -0.751435 -0.667871 -0.502988 -0.366115 -0.151675 0.108343 0.0945129 -0.0778426 -0.222862 -0.239493 -0.141733 0 0 -0.00415033 0.00439015 -0.00391784 2.50774e-05 -0.00260881 -0.0180509 -0.0377789 -0.0661526 -0.117372 -0.195419 -0.288714 -0.387903 -0.47103 -0.529708 -0.560729 -0.617261 -0.663932 -0.695981 -0.666533 -0.603802 -0.513941 -0.359769 -0.25758 0.0543688 0.205401 0.125139 -0.0564759 -0.16634 -0.132733 0 0 -0.00461188 0.0150953 0.00433208 0.0277142 0.0311374 0.0323653 0.0483612 0.0614086 0.039274 -0.0130911 -0.0953048 -0.198513 -0.307053 -0.40306 -0.468866 -0.496079 -0.515175 -0.560163 -0.587041 -0.536937 -0.462283 -0.351483 -0.258129 -0.0851309 0.215586 0.267597 0.146686 -0.0225715 -0.0862167 0 0 -0.00480282 0.00437279 0.00165485 0.0300834 0.0288977 0.0434582 0.0801913 0.120236 0.131056 0.115833 0.0662437 -0.00707647 -0.101701 -0.209592 -0.318607 -0.393493 -0.435167 -0.433315 -0.450632 -0.471955 -0.429513 -0.339367 -0.200453 -0.153179 0.115865 0.318126 0.309026 0.170221 0.031318 0 0 -0.00529598 -0.00820355 0.000471566 0.0211409 0.015788 0.0390907 0.0851124 0.132929 0.160757 0.166539 0.151871 0.127359 0.0757272 -0.00280399 -0.102751 -0.213481 -0.314632 -0.362072 -0.36973 -0.360212 -0.353723 -0.326798 -0.210085 -0.112462 -0.00362799 0.266699 0.377862 0.331317 0.198463 0 0 -0.0103082 -0.0216938 -0.00298548 0.0055071 0.00364753 0.035453 0.0834729 0.125185 0.147841 0.159462 0.171505 0.178661 0.173349 0.152419 0.0947359 0.00340772 -0.104693 -0.216905 -0.288934 -0.30633 -0.288273 -0.259798 -0.220742 -0.104549 -0.0434928 0.13597 0.345198 0.386576 0.300475 0 0 -0.0181322 -0.040173 -0.0110627 -0.0155478 -0.00784907 0.0277228 0.075559 0.11014 0.126158 0.135221 0.147808 0.168458 0.196116 0.216401 0.212225 0.178076 0.103143 -0.00268295 -0.115036 -0.210582 -0.241602 -0.231022 -0.196963 -0.133199 -0.0534336 0.0092534 0.210928 0.314336 0.28935 0 0 -0.032831 -0.0555687 -0.0310451 -0.0356633 -0.0225771 0.0162683 0.0579445 0.0851535 0.0948212 0.102452 0.116701 0.140521 0.171559 0.205955 0.240256 0.255685 0.239435 0.182989 0.0885328 -0.0269712 -0.128136 -0.185409 -0.189416 -0.163925 -0.106563 -0.0639794 -0.00488831 0.149056 0.142952 0 0 -0.0599727 -0.054282 -0.0665611 -0.0509922 -0.0338448 -0.00101583 0.0282822 0.0435484 0.0469755 0.0536182 0.0706797 0.0977451 0.130889 0.166543 0.203115 0.238896 0.270051 0.273111 0.236454 0.1559 0.0416582 -0.0691004 -0.148346 -0.178515 -0.182944 -0.178351 -0.172808 -0.107211 -0.00689509 0 0 -0.0615324 -0.130058 -0.0884717 -0.0754552 -0.0344172 -0.0143843 0.00562543 0.00368852 -0.00451611 -0.00679729 0.00538895 0.0275889 0.056922 0.090949 0.126767 0.163371 0.200144 0.235574 0.25914 0.245354 0.18031 0.0675526 -0.0623228 -0.166171 -0.242889 -0.285988 -0.327531 -0.285369 -0.151522 0 0 -0.370209 -0.176092 -0.11582 -0.0652547 -0.0452285 -0.0117463 -0.00304394 -0.0159681 -0.0351514 -0.0421379 -0.0377256 -0.0255576 -0.00958538 0.00831005 0.0276795 0.0484728 0.0708511 0.0949484 0.120001 0.143204 0.14018 0.0786445 -0.0685346 -0.246865 -0.365325 -0.40339 -0.389355 -0.345136 -0.260479 0 0 0 0 0 0 0 0 0 0 0 0 0 0 0 0 0 0 0 0 0 0 0 0 0 0 0 0 0 0 0 0
				</DataArray>
				<DataArray Name="VitesseY" type="Float32" format="ascii">
 0 0 0 0 0 0 0 0 0 0 0 0 0 0 0 0 0 0 0 0 0 0 0 0 0 0 0 0 0 0 0 -0.0719666 0.0529386 -0.0235237 -0.105646 -0.150956 -0.139131 -0.0634829 0.0170398 0.0366539 0.0347582 0.0200818 -0.00307461 -0.025148 -0.0389862 -0.043691 -0.041832 -0.0334856 -0.0161746 0.00389314 0.0175505 0.0215438 0.0207624 0.0198211 0.0185661 0.0169673 0.0148775 0.0119382 0.00741235 0.00187297 -0.00162169 0 -0.118807 0.037531 -0.02189 -0.157098 -0.221629 -0.227795 -0.115123 0.0029013 0.0422243 0.03886 0.0142903 -0.0231281 -0.0598079 -0.0842025 -0.0917572 -0.0869568 -0.069922 -0.0356828 0.00527378 0.034054 0.0429038 0.0416893 0.0398628 0.0373881 0.0342077 0.0300187 0.0241174 0.014919 0.00367381 -0.0032359 0 -0.0484133 0.0658478 -0.0106836 -0.162236 -0.241209 -0.25915 -0.17823 -0.0564869 -0.00449681 0.000186116 -0.0257458 -0.0680309 -0.110182 -0.139581 -0.147878 -0.138781 -0.112592 -0.0621593 0.00131974 0.0479948 0.0635967 0.0628865 0.0601216 0.056479 0.0517737 0.0455907 0.0368218 0.0229109 0.00577184 -0.00465344 0 0.0853492 0.156563 0.0218723 -0.152807 -0.242001 -0.264937 -0.228781 -0.135955 -0.0796154 -0.0682797 -0.0879685 -0.131091 -0.173441 -0.204222 -0.213416 -0.199543 -0.16541 -0.0998566 -0.0123513 0.0546049 0.0812713 0.0844859 0.0806144 0.075897 0.069754 0.0616782 0.0501539 0.0316268 0.00829057 -0.00597407 0 0.242674 0.264086 0.0646881 -0.130084 -0.235254 -0.26257 -0.253068 -0.205595 -0.162328 -0.147793 -0.161033 -0.199374 -0.242658 -0.273198 -0.284978 -0.269691 -0.230728 -0.152945 -0.0429456 0.0481418 0.0945831 0.105967 0.101279 0.095656 0.0881832 0.078301 0.0641859 0.0413032 0.0114233 -0.00719287 0 0.369909 0.353398 0.11764 -0.100279 -0.21887 -0.257886 -0.255996 -0.241513 -0.228812 -0.226148 -0.238225 -0.269672 -0.310779 -0.342415 -0.356607 -0.345214 -0.307024 -0.224176 -0.0963264 0.0260231 0.102289 0.125756 0.122214 0.115851 0.107129 0.0955977 0.0791092 0.0522616 0.0155374 -0.00807175 0 0.421502 0.388311 0.158468 -0.0545029 -0.178769 -0.234579 -0.246528 -0.246557 -0.258264 -0.284411 -0.310989 -0.341545 -0.377228 -0.408925 -0.425786 -0.419862 -0.387562 -0.310088 -0.171888 -0.0154383 0.0968732 0.140076 0.144241 0.13646 0.126724 0.113718 0.0951112 0.0647972 0.0211174 -0.00819409 0 0.400041 0.360315 0.177237 -0.00412871 -0.114934 -0.183187 -0.218075 -0.233799 -0.258816 -0.309209 -0.364428 -0.409335 -0.444469 -0.473402 -0.491355 -0.492167 -0.463313 -0.3995 -0.266127 -0.0872419 0.061521 0.141317 0.164701 0.15753 0.147165 0.132822 0.112377 0.0791854 0.0286763 -0.00709795 0 0.344225 0.30709 0.17867 0.0390792 -0.0531872 -0.116144 -0.167919 -0.208849 -0.247849 -0.309492 -0.389743 -0.46167 -0.511016 -0.539165 -0.556453 -0.560137 -0.535235 -0.482094 -0.368387 -0.18632 -3.41354e-05 0.12928 0.178395 0.180215 0.168512 0.153082 0.131109 0.0956374 0.0386414 -0.00449374 0 0.285005 0.257263 0.172781 0.0750539 0.00117773 -0.0533889 -0.106061 -0.16785 -0.22701 -0.301057 -0.395828 -0.493237 -0.568575 -0.611231 -0.625041 -0.625349 -0.605609 -0.552393 -0.462362 -0.300596 -0.0923141 0.0807481 0.173631 0.201403 0.190871 0.174727 0.151434 0.114197 0.051299 -0.00032776 0 0.239082 0.223373 0.171978 0.106355 0.0503094 0.00337854 -0.047597 -0.113734 -0.192385 -0.284575 -0.394255 -0.508451 -0.61219 -0.680749 -0.710199 -0.697832 -0.672297 -0.614746 -0.539606 -0.410972 -0.210487 -0.000737928 0.150714 0.212154 0.214685 0.197746 0.173358 0.134709 0.0667448 0.00542015 0 0.218194 0.210407 0.181623 0.139787 0.0970985 0.0546769 0.0037136 -0.0628679 -0.148305 -0.255802 -0.382712 -0.514813 -0.639645 -0.740567 -0.79582 -0.799491 -0.744702 -0.679261 -0.602131 -0.505131 -0.333869 -0.111434 0.0849072 0.199752 0.236512 0.222079 0.196822 0.156884 0.0849664 0.0128097 0 0.221883 0.218388 0.203403 0.178951 0.144767 0.101087 0.0469445 -0.0223863 -0.110695 -0.219492 -0.358115 -0.508345 -0.654427 -0.784029 -0.869056 -0.903009 -0.846079 -0.759646 -0.657403 -0.565262 -0.442515 -0.239483 -0.0149105 0.159804 0.23936 0.246891 0.221807 0.180653 0.105819 0.0219001 0 0.244207 0.242388 0.23606 0.222516 0.192532 0.144335 0.0809749 0.00474054 -0.08671 -0.194753 -0.324434 -0.487311 -0.65675 -0.80567 -0.921989 -0.980709 -0.954479 -0.853258 -0.724754 -0.601249 -0.510908 -0.361922 -0.13889 0.0756885 0.216755 0.266775 0.247696 0.206105 0.129129 0.0328436 0 0.276763 0.275636 0.272144 0.265546 0.236822 0.179134 0.10479 0.0162878 -0.0816526 -0.190974 -0.309665 -0.46002 -0.634763 -0.805832 -0.942562 -1.01926 -1.03762 -0.940729 -0.808827 -0.661356 -0.539014 -0.444378 -0.268682 -0.0401338 0.155314 0.257778 0.273489 0.233225 0.154952 0.0459066 0 0.296567 0.293615 0.290835 0.286294 0.255459 0.190914 0.104293 0.00587487 -0.100842 -0.213015 -0.330569 -0.451731 -0.601372 -0.76688 -0.911878 -1.01613 -1.06621 -1.00188 -0.871314 -0.720646 -0.57692 -0.484144 -0.371581 -0.168572 0.0533091 0.219199 0.285504 0.260883 0.183325 0.0614221 0 0.133308 0.136458 0.151454 0.171428 0.163984 0.116818 0.0429187 -0.0505034 -0.153667 -0.258178 -0.362395 -0.465122 -0.573136 -0.698793 -0.835258 -0.949806 -1.0137 -1.01023 -0.898312 -0.771886 -0.630927 -0.491764 -0.423806 -0.290664 -0.0702117 0.137475 0.26449 0.286535 0.213738 0.0797161 0 -0.370775 -0.353504 -0.315703 -0.258581 -0.21395 -0.194962 -0.189551 -0.205332 -0.242948 -0.300345 -0.377027 -0.453581 -0.541062 -0.630073 -0.723899 -0.823758 -0.887638 -0.916262 -0.876518 -0.782227 -0.67011 -0.537358 -0.424513 -0.354442 -0.195175 0.0221921 0.203672 0.286727 0.244482 0.100851 0 -0.894963 -0.865305 -0.821672 -0.760937 -0.701971 -0.641024 -0.574668 -0.512694 -0.453615 -0.395078 -0.364352 -0.392757 -0.45068 -0.52549 -0.600666 -0.658114 -0.723249 -0.775546 -0.792719 -0.726692 -0.651777 -0.570205 -0.43834 -0.367566 -0.283534 -0.100501 0.104354 0.24765 0.26565 0.123862 0 -1.1248 -1.0904 -1.05374 -1.01183 -0.975463 -0.930779 -0.881713 -0.815506 -0.722811 -0.603395 -0.47641 -0.367054 -0.324526 -0.351196 -0.419977 -0.49738 -0.553776 -0.600615 -0.641682 -0.653146 -0.587563 -0.531642 -0.463573 -0.355989 -0.305555 -0.204855 -0.0179134 0.164541 0.250465 0.145827 0 -1.06671 -1.02237 -1.00749 -0.994581 -0.99524 -0.994745 -0.988837 -0.957331 -0.886283 -0.787466 -0.666747 -0.521064 -0.37247 -0.262857 -0.234407 -0.284054 -0.374294 -0.436597 -0.464257 -0.497986 -0.508603 -0.454314 -0.423896 -0.350394 -0.289277 -0.242069 -0.124294 0.0468358 0.184371 0.142225 0 -0.92337 -0.877395 -0.873419 -0.862126 -0.86962 -0.881521 -0.895491 -0.901139 -0.895563 -0.862917 -0.787914 -0.686701 -0.556786 -0.397093 -0.241969 -0.14202 -0.133799 -0.219203 -0.324065 -0.351985 -0.348294 -0.350488 -0.341399 -0.324877 -0.258526 -0.232424 -0.185807 -0.0671606 0.0700874 0.0803564 0 -0.784871 -0.740864 -0.747628 -0.739911 -0.754899 -0.768517 -0.779772 -0.783659 -0.783861 -0.785542 -0.78857 -0.764266 -0.689933 -0.577276 -0.426035 -0.247974 -0.0910376 -0.00927898 -0.0359649 -0.162114 -0.257366 -0.248839 -0.196699 -0.212803 -0.221778 -0.197775 -0.190382 -0.148359 -0.0614406 -0.067413 0 -0.641281 -0.605844 -0.623174 -0.622098 -0.64629 -0.66036 -0.668979 -0.672058 -0.674129 -0.680268 -0.690326 -0.70078 -0.703618 -0.669104 -0.576113 -0.437239 -0.259528 -0.0704445 0.0722579 0.119635 0.0530424 -0.0884429 -0.150537 -0.110113 -0.105269 -0.134275 -0.164991 -0.179138 -0.166161 -0.246488 0 -0.488651 -0.469843 -0.499475 -0.509187 -0.541413 -0.554681 -0.561193 -0.563779 -0.567329 -0.575206 -0.586198 -0.597267 -0.60553 -0.608587 -0.599011 -0.544429 -0.42696 -0.26181 -0.0651867 0.115271 0.215817 0.218843 0.114981 -0.00340155 -0.0432392 -0.053655 -0.107187 -0.183526 -0.243134 -0.365328 0 -0.318788 -0.332337 -0.377141 -0.398673 -0.43727 -0.448408 -0.454997 -0.456817 -0.461643 -0.47087 -0.482022 -0.491424 -0.497715 -0.501057 -0.501292 -0.497075 -0.473197 -0.392922 -0.249403 -0.0621251 0.138771 0.275432 0.321711 0.267608 0.136066 0.00912811 -0.0641397 -0.178634 -0.286181 -0.403482 0 -0.132501 -0.190475 -0.256718 -0.288272 -0.333347 -0.339897 -0.345898 -0.347405 -0.354074 -0.364616 -0.375398 -0.3836 -0.388222 -0.38978 -0.389728 -0.388569 -0.385122 -0.374626 -0.330259 -0.219245 -0.0493517 0.154269 0.313816 0.380138 0.346114 0.211138 -0.00492759 -0.1729 -0.327629 -0.389416 0 0.0267083 0.0147806 -0.144151 -0.190957 -0.229093 -0.231707 -0.231123 -0.231284 -0.237835 -0.249942 -0.260595 -0.269232 -0.2734 -0.275102 -0.275141 -0.274245 -0.272787 -0.270443 -0.264793 -0.24238 -0.166187 -0.019941 0.173798 0.333797 0.387725 0.314744 0.149158 -0.107207 -0.285395 -0.345161 0 0.640697 0.0784662 -0.10069 -0.0861402 -0.147792 -0.110261 -0.125015 -0.109377 -0.116599 -0.123458 -0.135234 -0.140006 -0.143581 -0.145014 -0.145469 -0.145517 -0.145496 -0.145578 -0.145555 -0.143852 -0.134117 -0.0865635 0.0321297 0.199811 0.30136 0.289659 0.143009 -0.00688854 -0.151523 -0.260487 0 5.39157 0 0 0 0 0 0 0 0 0 0 0 0 0 0 0 0 0 0 0 0 0 0 0 0 0 0 0 0 0 0
				</DataArray>
			</PointData>
			<CellData Scalars="Density">
				<DataArray Name="Density" type="Float32" format="ascii">