<?xml version="1.0"?>
<VTKFile type="PolyData">
	<PolyData>
		<Piece NumberOfPoints="961" NumberOfPolys="900">
			<Points>
				<DataArray type="Float32" NumberOfComponents="3" format="ascii">
 0 0 0 0.04 0 0 0.08 0 0 0.12 0 0 0.16 0 0 0.2 0 0 0.24 0 0 0.28 0 0 0.32 0 0 0.36 0 0 0.4 0 0 0.44 0 0 0.48 0 0 0.52 0 0 0.56 0 0 0.6 0 0 0.64 0 0 0.68 0 0 0.72 0 0 0.76 0 0 0.8 0 0 0.84 0 0 0.88 0 0 0.92 0 0 0.96 0 0 1 0 0 1.04 0 0 1.08 0 0 1.12 0 0 1.16 0 0 1.2 0 0 0 0.04 0 0.04 0.04 0 0.08 0.04 0 0.12 0.04 0 0.16 0.04 0 0.2 0.04 0 0.24 0.04 0 0.28 0.04 0 0.32 0.04 0 0.36 0.04 0 0.4 0.04 0 0.44 0.04 0 0.48 0.04 0 0.52 0.04 0 0.56 0.04 0 0.6 0.04 0 0.64 0.04 0 0.68 0.04 0 0.72 0.04 0 0.76 0.04 0 0.8 0.04 0 0.84 0.04 0 0.88 0.04 0 0.92 0.04 0 0.96 0.04 0 1 0.04 0 1.04 0.04 0 1.08 0.04 0 1.12 0.04 0 1.16 0.04 0 1.2 0.04 0 0 0.08 0 0.04 0.08 0 0.08 0.08 0 0.12 0.08 0 0.16 0.08 0 0.2 0.08 0 0.24 0.08 0 0.28 0.08 0 0.32 0.08 0 0.36 0.08 0 0.4 0.08 0 0.44 0.08 0 0.48 0.08 0 0.52 0.08 0 0.56 0.08 0 0.6 0.08 0 0.64 0.08 0 0.68 0.08 0 0.72 0.08 0 0.76 0.08 0 0.8 0.08 0 0.84 0.08 0 0.88 0.08 0 0.92 0.08 0 0.96 0.08 0 1 0.08 0 1.04 0.08 0 1.08 0.08 0 1.12 0.08 0 1.16 0.08 0 1.2 0.08 0 0 0.12 0 0.04 0.12 0 0.08 0.12 0 0.12 0.12 0 0.16 0.12 0 0.2 0.12 0 0.24 0.12 0 0.28 0.12 0 0.32 0.12 0 0.36 0.12 0 0.4 0.12 0 0.44 0.12 0 0.48 0.12 0 0.52 0.12 0 0.56 0.12 0 0.6 0.12 0 0.64 0.12 0 0.68 0.12 0 0.72 0.12 0 0.76 0.12 0 0.8 0.12 0 0.84 0.12 0 0.88 0.12 0 0.92 0.12 0 0.96 0.12 0 1 0.12 0 1.04 0.12 0 1.08 0.12 0 1.12 0.12 0 1.16 0.12 0 1.2 0.12 0 0 0.16 0 0.04 0.16 0 0.08 0.16 0 0.12 0.16 0 0.16 0.16 0 0.2 0.16 0 0.24 0.16 0 0.28 0.16 0 0.32 0.16 0 0.36 0.16 0 0.4 0.16 0 0.44 0.16 0 0.48 0.16 0 0.52 0.16 0 0.56 0.16 0 0.6 0.16 0 0.64 0.16 0 0.68 0.16 0 0.72 0.16 0 0.76 0.16 0 0.8 0.16 0 0.84 0.16 0 0.88 0.16 0 0.92 0.16 0 0.96 0.16 0 1 0.16 0 1.04 0.16 0 1.08 0.16 0 1.12 0.16 0 1.16 0.16 0 1.2 0.16 0 0 0.2 0 0.04 0.2 0 0.08 0.2 0 0.12 0.2 0 0.16 0.2 0 0.2 0.2 0 0.24 0.2 0 0.28 0.2 0 0.32 0.2 0 0.36 0.2 0 0.4 0.2 0 0.44 0.2 0 0.48 0.2 0 0.52 0.2 0 0.56 0.2 0 0.6 0.2 0 0.64 0.2 0 0.68 0.2 0 0.72 0.2 0 0.76 0.2 0 0.8 0.2 0 0.84 0.2 0 0.88 0.2 0 0.92 0.2 0 0.96 0.2 0 1 0.2 0 1.04 0.2 0 1.08 0.2 0 1.12 0.2 0 1.16 0.2 0 1.2 0.2 0 0 0.24 0 0.04 0.24 0 0.08 0.24 0 0.12 0.24 0 0.16 0.24 0 0.2 0.24 0 0.24 0.24 0 0.28 0.24 0 0.32 0.24 0 0.36 0.24 0 0.4 0.24 0 0.44 0.24 0 0.48 0.24 0 0.52 0.24 0 0.56 0.24 0 0.6 0.24 0 0.64 0.24 0 0.68 0.24 0 0.72 0.24 0 0.76 0.24 0 0.8 0.24 0 0.84 0.24 0 0.88 0.24 0 0.92 0.24 0 0.96 0.24 0 1 0.24 0 1.04 0.24 0 1.08 0.24 0 1.12 0.24 0 1.16 0.24 0 1.2 0.24 0 0 0.28 0 0.04 0.28 0 0.08 0.28 0 0.12 0.28 0 0.16 0.28 0 0.2 0.28 0 0.24 0.28 0 0.28 0.28 0 0.32 0.28 0 0.36 0.28 0 0.4 0.28 0 0.44 0.28 0 0.48 0.28 0 0.52 0.28 0 0.56 0.28 0 0.6 0.28 0 0.64 0.28 0 0.68 0.28 0 0.72 0.28 0 0.76 0.28 0 0.8 0.28 0 0.84 0.28 0 0.88 0.28 0 0.92 0.28 0 0.96 0.28 0 1 0.28 0 1.04 0.28 0 1.08 0.28 0 1.12 0.28 0 1.16 0.28 0 1.2 0.28 0 0 0.32 0 0.04 0.32 0 0.08 0.32 0 0.12 0.32 0 0.16 0.32 0 0.2 0.32 0 0.24 0.32 0 0.28 0.32 0 0.32 0.32 0 0.36 0.32 0 0.4 0.32 0 0.44 0.32 0 0.48 0.32 0 0.52 0.32 0 0.56 0.32 0 0.6 0.32 0 0.64 0.32 0 0.68 0.32 0 0.72 0.32 0 0.76 0.32 0 0.8 0.32 0 0.84 0.32 0 0.88 0.32 0 0.92 0.32 0 0.96 0.32 0 1 0.32 0 1.04 0.32 0 1.08 0.32 0 1.12 0.32 0 1.16 0.32 0 1.2 0.32 0 0 0.36 0 0.04 0.36 0 0.08 0.36 0 0.12 0.36 0 0.16 0.36 0 0.2 0.36 0 0.24 0.36 0 0.28 0.36 0 0.32 0.36 0 0.36 0.36 0 0.4 0.36 0 0.44 0.36 0 0.48 0.36 0 0.52 0.36 0 0.56 0.36 0 0.6 0.36 0 0.64 0.36 0 0.68 0.36 0 0.72 0.36 0 0.76 0.36 0 0.8 0.36 0 0.84 0.36 0 0.88 0.36 0 0.92 0.36 0 0.96 0.36 0 1 0.36 0 1.04 0.36 0 1.08 0.36 0 1.12 0.36 0 1.16 0.36 0 1.2 0.36 0 0 0.4 0 0.04 0.4 0 0.08 0.4 0 0.12 0.4 0 0.16 0.4 0 0.2 0.4 0 0.24 0.4 0 0.28 0.4 0 0.32 0.4 0 0.36 0.4 0 0.4 0.4 0 0.44 0.4 0 0.48 0.4 0 0.52 0.4 0 0.56 0.4 0 0.6 0.4 0 0.64 0.4 0 0.68 0.4 0 0.72 0.4 0 0.76 0.4 0 0.8 0.4 0 0.84 0.4 0 0.88 0.4 0 0.92 0.4 0 0.96 0.4 0 1 0.4 0 1.04 0.4 0 1.08 0.4 0 1.12 0.4 0 1.16 0.4 0 1.2 0.4 0 0 0.44 0 0.04 0.44 0 0.08 0.44 0 0.12 0.44 0 0.16 0.44 0 0.2 0.44 0 0.24 0.44 0 0.28 0.44 0 0.32 0.44 0 0.36 0.44 0 0.4 0.44 0 0.44 0.44 0 0.48 0.44 0 0.52 0.44 0 0.56 0.44 0 0.6 0.44 0 0.64 0.44 0 0.68 0.44 0 0.72 0.44 0 0.76 0.44 0 0.8 0.44 0 0.84 0.44 0 0.88 0.44 0 0.92 0.44 0 0.96 0.44 0 1 0.44 0 1.04 0.44 0 1.08 0.44 0 1.12 0.44 0 1.16 0.44 0 1.2 0.44 0 0 0.48 0 0.04 0.48 0 0.08 0.48 0 0.12 0.48 0 0.16 0.48 0 0.2 0.48 0 0.24 0.48 0 0.28 0.48 0 0.32 0.48 0 0.36 0.48 0 0.4 0.48 0 0.44 0.48 0 0.48 0.48 0 0.52 0.48 0 0.56 0.48 0 0.6 0.48 0 0.64 0.48 0 0.68 0.48 0 0.72 0.48 0 0.76 0.48 0 0.8 0.48 0 0.84 0.48 0 0.88 0.48 0 0.92 0.48 0 0.96 0.48 0 1 0.48 0 1.04 0.48 0 1.08 0.48 0 1.12 0.48 0 1.16 0.48 0 1.2 0.48 0 0 0.52 0 0.04 0.52 0 0.08 0.52 0 0.12 0.52 0 0.16 0.52 0 0.2 0.52 0 0.24 0.52 0 0.28 0.52 0 0.32 0.52 0 0.36 0.52 0 0.4 0.52 0 0.44 0.52 0 0.48 0.52 0 0.52 0.52 0 0.56 0.52 0 0.6 0.52 0 0.64 0.52 0 0.68 0.52 0 0.72 0.52 0 0.76 0.52 0 0.8 0.52 0 0.84 0.52 0 0.88 0.52 0 0.92 0.52 0 0.96 0.52 0 1 0.52 0 1.04 0.52 0 1.08 0.52 0 1.12 0.52 0 1.16 0.52 0 1.2 0.52 0 0 0.56 0 0.04 0.56 0 0.08 0.56 0 0.12 0.56 0 0.16 0.56 0 0.2 0.56 0 0.24 0.56 0 0.28 0.56 0 0.32 0.56 0 0.36 0.56 0 0.4 0.56 0 0.44 0.56 0 0.48 0.56 0 0.52 0.56 0 0.56 0.56 0 0.6 0.56 0 0.64 0.56 0 0.68 0.56 0 0.72 0.56 0 0.76 0.56 0 0.8 0.56 0 0.84 0.56 0 0.88 0.56 0 0.92 0.56 0 0.96 0.56 0 1 0.56 0 1.04 0.56 0 1.08 0.56 0 1.12 0.56 0 1.16 0.56 0 1.2 0.56 0 0 0.6 0 0.04 0.6 0 0.08 0.6 0 0.12 0.6 0 0.16 0.6 0 0.2 0.6 0 0.24 0.6 0 0.28 0.6 0 0.32 0.6 0 0.36 0.6 0 0.4 0.6 0 0.44 0.6 0 0.48 0.6 0 0.52 0.6 0 0.56 0.6 0 0.6 0.6 0 0.64 0.6 0 0.68 0.6 0 0.72 0.6 0 0.76 0.6 0 0.8 0.6 0 0.84 0.6 0 0.88 0.6 0 0.92 0.6 0 0.96 0.6 0 1 0.6 0 1.04 0.6 0 1.08 0.6 0 1.12 0.6 0 1.16 0.6 0 1.2 0.6 0 0 0.64 0 0.04 0.64 0 0.08 0.64 0 0.12 0.64 0 0.16 0.64 0 0.2 0.64 0 0.24 0.64 0 0.28 0.64 0 0.32 0.64 0 0.36 0.64 0 0.4 0.64 0 0.44 0.64 0 0.48 0.64 0 0.52 0.64 0 0.56 0.64 0 0.6 0.64 0 0.64 0.64 0 0.68 0.64 0 0.72 0.64 0 0.76 0.64 0 0.8 0.64 0 0.84 0.64 0 0.88 0.64 0 0.92 0.64 0 0.96 0.64 0 1 0.64 0 1.04 0.64 0 1.08 0.64 0 1.12 0.64 0 1.16 0.64 0 1.2 0.64 0 0 0.68 0 0.04 0.68 0 0.08 0.68 0 0.12 0.68 0 0.16 0.68 0 0.2 0.68 0 0.24 0.68 0 0.28 0.68 0 0.32 0.68 0 0.36 0.68 0 0.4 0.68 0 0.44 0.68 0 0.48 0.68 0 0.52 0.68 0 0.56 0.68 0 0.6 0.68 0 0.64 0.68 0 0.68 0.68 0 0.72 0.68 0 0.76 0.68 0 0.8 0.68 0 0.84 0.68 0 0.88 0.68 0 0.92 0.68 0 0.96 0.68 0 1 0.68 0 1.04 0.68 0 1.08 0.68 0 1.12 0.68 0 1.16 0.68 0 1.2 0.68 0 0 0.72 0 0.04 0.72 0 0.08 0.72 0 0.12 0.72 0 0.16 0.72 0 0.2 0.72 0 0.24 0.72 0 0.28 0.72 0 0.32 0.72 0 0.36 0.72 0 0.4 0.72 0 0.44 0.72 0 0.48 0.72 0 0.52 0.72 0 0.56 0.72 0 0.6 0.72 0 0.64 0.72 0 0.68 0.72 0 0.72 0.72 0 0.76 0.72 0 0.8 0.72 0 0.84 0.72 0 0.88 0.72 0 0.92 0.72 0 0.96 0.72 0 1 0.72 0 1.04 0.72 0 1.08 0.72 0 1.12 0.72 0 1.16 0.72 0 1.2 0.72 0 0 0.76 0 0.04 0.76 0 0.08 0.76 0 0.12 0.76 0 0.16 0.76 0 0.2 0.76 0 0.24 0.76 0 0.28 0.76 0 0.32 0.76 0 0.36 0.76 0 0.4 0.76 0 0.44 0.76 0 0.48 0.76 0 0.52 0.76 0 0.56 0.76 0 0.6 0.76 0 0.64 0.76 0 0.68 0.76 0 0.72 0.76 0 0.76 0.76 0 0.8 0.76 0 0.84 0.76 0 0.88 0.76 0 0.92 0.76 0 0.96 0.76 0 1 0.76 0 1.04 0.76 0 1.08 0.76 0 1.12 0.76 0 1.16 0.76 0 1.2 0.76 0 0 0.8 0 0.04 0.8 0 0.08 0.8 0 0.12 0.8 0 0.16 0.8 0 0.2 0.8 0 0.24 0.8 0 0.28 0.8 0 0.32 0.8 0 0.36 0.8 0 0.4 0.8 0 0.44 0.8 0 0.48 0.8 0 0.52 0.8 0 0.56 0.8 0 0.6 0.8 0 0.64 0.8 0 0.68 0.8 0 0.72 0.8 0 0.76 0.8 0 0.8 0.8 0 0.84 0.8 0 0.88 0.8 0 0.92 0.8 0 0.96 0.8 0 1 0.8 0 1.04 0.8 0 1.08 0.8 0 1.12 0.8 0 1.16 0.8 0 1.2 0.8 0 0 0.84 0 0.04 0.84 0 0.08 0.84 0 0.12 0.84 0 0.16 0.84 0 0.2 0.84 0 0.24 0.84 0 0.28 0.84 0 0.32 0.84 0 0.36 0.84 0 0.4 0.84 0 0.44 0.84 0 0.48 0.84 0 0.52 0.84 0 0.56 0.84 0 0.6 0.84 0 0.64 0.84 0 0.68 0.84 0 0.72 0.84 0 0.76 0.84 0 0.8 0.84 0 0.84 0.84 0 0.88 0.84 0 0.92 0.84 0 0.96 0.84 0 1 0.84 0 1.04 0.84 0 1.08 0.84 0 1.12 0.84 0 1.16 0.84 0 1.2 0.84 0 0 0.88 0 0.04 0.88 0 0.08 0.88 0 0.12 0.88 0 0.16 0.88 0 0.2 0.88 0 0.24 0.88 0 0.28 0.88 0 0.32 0.88 0 0.36 0.88 0 0.4 0.88 0 0.44 0.88 0 0.48 0.88 0 0.52 0.88 0 0.56 0.88 0 0.6 0.88 0 0.64 0.88 0 0.68 0.88 0 0.72 0.88 0 0.76 0.88 0 0.8 0.88 0 0.84 0.88 0 0.88 0.88 0 0.92 0.88 0 0.96 0.88 0 1 0.88 0 1.04 0.88 0 1.08 0.88 0 1.12 0.88 0 1.16 0.88 0 1.2 0.88 0 0 0.92 0 0.04 0.92 0 0.08 0.92 0 0.12 0.92 0 0.16 0.92 0 0.2 0.92 0 0.24 0.92 0 0.28 0.92 0 0.32 0.92 0 0.36 0.92 0 0.4 0.92 0 0.44 0.92 0 0.48 0.92 0 0.52 0.92 0 0.56 0.92 0 0.6 0.92 0 0.64 0.92 0 0.68 0.92 0 0.72 0.92 0 0.76 0.92 0 0.8 0.92 0 0.84 0.92 0 0.88 0.92 0 0.92 0.92 0 0.96 0.92 0 1 0.92 0 1.04 0.92 0 1.08 0.92 0 1.12 0.92 0 1.16 0.92 0 1.2 0.92 0 0 0.96 0 0.04 0.96 0 0.08 0.96 0 0.12 0.96 0 0.16 0.96 0 0.2 0.96 0 0.24 0.96 0 0.28 0.96 0 0.32 0.96 0 0.36 0.96 0 0.4 0.96 0 0.44 0.96 0 0.48 0.96 0 0.52 0.96 0 0.56 0.96 0 0.6 0.96 0 0.64 0.96 0 0.68 0.96 0 0.72 0.96 0 0.76 0.96 0 0.8 0.96 0 0.84 0.96 0 0.88 0.96 0 0.92 0.96 0 0.96 0.96 0 1 0.96 0 1.04 0.96 0 1.08 0.96 0 1.12 0.96 0 1.16 0.96 0 1.2 0.96 0 0 1 0 0.04 1 0 0.08 1 0 0.12 1 0 0.16 1 0 0.2 1 0 0.24 1 0 0.28 1 0 0.32 1 0 0.36 1 0 0.4 1 0 0.44 1 0 0.48 1 0 0.52 1 0 0.56 1 0 0.6 1 0 0.64 1 0 0.68 1 0 0.72 1 0 0.76 1 0 0.8 1 0 0.84 1 0 0.88 1 0 0.92 1 0 0.96 1 0 1 1 0 1.04 1 0 1.08 1 0 1.12 1 0 1.16 1 0 1.2 1 0 0 1.04 0 0.04 1.04 0 0.08 1.04 0 0.12 1.04 0 0.16 1.04 0 0.2 1.04 0 0.24 1.04 0 0.28 1.04 0 0.32 1.04 0 0.36 1.04 0 0.4 1.04 0 0.44 1.04 0 0.48 1.04 0 0.52 1.04 0 0.56 1.04 0 0.6 1.04 0 0.64 1.04 0 0.68 1.04 0 0.72 1.04 0 0.76 1.04 0 0.8 1.04 0 0.84 1.04 0 0.88 1.04 0 0.92 1.04 0 0.96 1.04 0 1 1.04 0 1.04 1.04 0 1.08 1.04 0 1.12 1.04 0 1.16 1.04 0 1.2 1.04 0 0 1.08 0 0.04 1.08 0 0.08 1.08 0 0.12 1.08 0 0.16 1.08 0 0.2 1.08 0 0.24 1.08 0 0.28 1.08 0 0.32 1.08 0 0.36 1.08 0 0.4 1.08 0 0.44 1.08 0 0.48 1.08 0 0.52 1.08 0 0.56 1.08 0 0.6 1.08 0 0.64 1.08 0 0.68 1.08 0 0.72 1.08 0 0.76 1.08 0 0.8 1.08 0 0.84 1.08 0 0.88 1.08 0 0.92 1.08 0 0.96 1.08 0 1 1.08 0 1.04 1.08 0 1.08 1.08 0 1.12 1.08 0 1.16 1.08 0 1.2 1.08 0 0 1.12 0 
[...]
			<PointData Scalars="VitesseX">
				<DataArray Name="VitesseX" type="Float32" format="ascii">
 0 -0.068489 -0.116765 -0.0447731 0.0954346 0.253515 0.355891 0.374177 0.330822 0.273475 0.218959 0.184633 0.172617 0.177148 0.182377 0.10589 -0.348378 -0.973587 -1.33106 -1.37226 -1.22942 -1.1035 -0.981356 -0.861551 -0.743292 -0.625535 -0.50689 -0.385355 -0.260076 -0.130635 0 0 0.0537018 0.038787 0.0631918 0.14899 0.253282 0.322803 0.318471 0.276785 0.227894 0.189639 0.165874 0.160417 0.167969 0.175474 0.102744 -0.341638 -0.962426 -1.32414 -1.37176 -1.22948 -1.10351 -0.981435 -0.861722 -0.743589 -0.625988 -0.50752 -0.386071 -0.260622 -0.130811 0 0 -0.0253634 -0.0300983 -0.0370913 -0.0294766 -0.00204452 0.0410469 0.0811225 0.0976822 0.100966 0.101621 0.107825 0.12033 0.138682 0.153109 0.0915242 -0.32314 -0.929419 -1.30351 -1.36924 -1.22957 -1.1033 -0.981185 -0.861497 -0.743477 -0.626065 -0.50787 -0.38663 -0.261103 -0.131013 0 0 -0.108944 -0.178407 -0.211482 -0.224815 -0.229138 -0.202216 -0.146551 -0.0908126 -0.0454658 -0.0075329 0.0261407 0.0588395 0.0892713 0.112491 0.0670546 -0.298151 -0.876655 -1.26877 -1.36194 -1.23028 -1.10346 -0.981165 -0.861387 -0.743384 -0.626085 -0.508117 -0.387118 -0.261648 -0.131276 0 0 -0.153717 -0.247484 -0.296808 -0.327878 -0.347594 -0.343068 -0.292002 -0.222014 -0.158563 -0.10489 -0.0579657 -0.0154613 0.0225591 0.0518436 0.0229753 -0.27614 -0.808585 -1.21768 -1.34474 -1.23224 -1.10451 -0.981846 -0.861783 -0.743605 -0.62626 -0.508437 -0.387749 -0.262447 -0.131685 0 0 -0.154027 -0.253176 -0.312388 -0.35169 -0.377658 -0.39249 -0.375225 -0.316794 -0.248967 -0.18737 -0.136439 -0.0927873 -0.0538892 -0.0261654 -0.0438244 -0.266422 -0.730491 -1.14469 -1.30864 -1.23633 -1.10645 -0.983239 -0.86269 -0.74416 -0.626639 -0.508878 -0.388534 -0.263521 -0.132328 0 0 -0.106083 -0.193396 -0.262906 -0.317362 -0.355975 -0.382057 -0.393626 -0.375403 -0.324841 -0.264678 -0.210876 -0.168299 -0.133761 -0.112522 -0.13036 -0.277754 -0.649602 -1.04571 -1.24445 -1.2398 -1.10931 -0.985268 -0.864063 -0.745015 -0.627201 -0.509409 -0.389428 -0.26485 -0.133292 0 0 -0.021087 -0.0543692 -0.121827 -0.208169 -0.286173 -0.338309 -0.371298 -0.388217 -0.378385 -0.338906 -0.288204 -0.244929 -0.215328 -0.201855 -0.226491 -0.318459 -0.575077 -0.920871 -1.15628 -1.22379 -1.11235 -0.987707 -0.865788 -0.74608 -0.627875 -0.509973 -0.390367 -0.266358 -0.134494 0 0 0.0270022 0.0241882 -0.0264547 -0.109169 -0.20525 -0.289424 -0.346475 -0.384141 -0.405179 -0.401045 -0.370342 -0.330489 -0.301646 -0.296461 -0.323997 -0.38982 -0.522294 -0.787043 -1.0432 -1.16324 -1.11574 -0.990499 -0.867737 -0.747264 -0.628577 -0.510503 -0.391249 -0.267909 -0.135783 0 0 0.0344756 0.0417407 0.000749804 -0.0718103 -0.161402 -0.257252 -0.337667 -0.391868 -0.430478 -0.453647 -0.452704 -0.428732 -0.402498 -0.398621 -0.425998 -0.478033 -0.519726 -0.66264 -0.895139 -1.05889 -1.10242 -0.992672 -0.869684 -0.748487 -0.629224 -0.510919 -0.391975 -0.26938 -0.137059 0 0 0.0257049 0.0261642 -0.0101633 -0.0777506 -0.159767 -0.251133 -0.343417 -0.421204 -0.476846 -0.516396 -0.539129 -0.53981 -0.521061 -0.511655 -0.538071 -0.567632 -0.575622 -0.576019 -0.73056 -0.926553 -1.03358 -0.992931 -0.871398 -0.749664 -0.629758 -0.511182 -0.392473 -0.270695 -0.138313 0 0 0.00381712 -0.0102713 -0.0514448 -0.113371 -0.191301 -0.276195 -0.36669 -0.456832 -0.534213 -0.592928 -0.636463 -0.661541 -0.667436 -0.655324 -0.65084 -0.662374 -0.64764 -0.57965 -0.582261 -0.757505 -0.912135 -0.968076 -0.871793 -0.750673 -0.630191 -0.511295 -0.392731 -0.271818 -0.139581 0 0 -0.0208027 -0.0525004 -0.102327 -0.169534 -0.243291 -0.321633 -0.404263 -0.492069 -0.582192 -0.664493 -0.730639 -0.781251 -0.813473 -0.819651 -0.796578 -0.76483 -0.729745 -0.627297 -0.512789 -0.575143 -0.757829 -0.878303 -0.865952 -0.75091 -0.630558 -0.511293 -0.392783 -0.272741 -0.140919 0 0 -0.042479 -0.0910939 -0.151667 -0.222542 -0.298259 -0.372496 -0.446932 -0.524211 -0.610661 -0.707647 -0.800153 -0.881272 -0.941606 -0.969222 -0.949534 -0.885753 -0.813649 -0.693324 -0.527001 -0.438405 -0.568829 -0.737253 -0.81966 -0.749054 -0.630766 -0.511248 -0.392708 -0.273435 -0.142329 0 0 -0.0589697 -0.120896 -0.189881 -0.265538 -0.342185 -0.414574 -0.481993 -0.549679 -0.622752 -0.713613 -0.829745 -0.937683 -1.02134 -1.07128 -1.07257 -1.01502 -0.89633 -0.766883 -0.577311 -0.404238 -0.386504 -0.558941 -0.703588 -0.731808 -0.629654 -0.511198 -0.392596 -0.273902 -0.143811 0 0 -0.0701444 -0.140639 -0.212981 -0.289628 -0.364333 -0.434495 -0.499754 -0.561828 -0.624097 -0.697518 -0.79134 -0.914101 -1.03375 -1.11396 -1.14401 -1.09844 -0.979007 -0.814906 -0.650821 -0.441695 -0.284464 -0.35741 -0.540862 -0.65619 -0.623548 -0.510898 -0.39246 -0.274166 -0.145324 0 0 -0.0699274 -0.140067 -0.210644 -0.277904 -0.346703 -0.414582 -0.478938 -0.539822 -0.601963 -0.661788 -0.73084 -0.823904 -0.935132 -1.04733 -1.12389 -1.11979 -1.02271 -0.860486 -0.697999 -0.513452 -0.288296 -0.195296 -0.341406 -0.514272 -0.586134 -0.507917 -0.392275 -0.274265 -0.146808 0 0 -0.0488586 -0.103946 -0.1573 -0.211815 -0.2691 -0.333229 -0.402609 -0.470479 -0.532669 -0.591842 -0.650801 -0.719932 -0.809202 -0.90945 -0.983227 -1.01855 -0.986485 -0.890489 -0.720857 -0.563211 -0.362545 -0.137502 -0.143002 -0.328893 -0.478297 -0.492377 -0.391068 -0.274117 -0.14822 0 0 -0.0194101 -0.0462618 -0.0733165 -0.109702 -0.147067 -0.197779 -0.261423 -0.331604 -0.404079 -0.479351 -0.551641 -0.615817 -0.676249 -0.74548 -0.815468 -0.870471 -0.871787 -0.824446 -0.728575 -0.57802 -0.432084 -0.185659 -0.0187312 -0.117383 -0.312958 -0.425371 -0.384496 -0.27356 -0.149413 0 0 -0.00163036 -0.000521465 -0.0125771 -0.0241682 -0.0367015 -0.0604955 -0.0958561 -0.147061 -0.216342 -0.301861 -0.398343 -0.491425 -0.562794 -0.600563 -0.65537 -0.704198 -0.741108 -0.717555 -0.660803 -0.55644 -0.440583 -0.291454 -0.00274983 0.053669 -0.107848 -0.288183 -0.349657 -0.269922 -0.150062 0 0 0.00168288 0.0181839 0.00772214 0.0218543 0.0252419 0.0273544 0.0296396 0.0159604 -0.0209136 -0.0920402 -0.190845 -0.29982 -0.410174 -0.490687 -0.537615 -0.551175 -0.593406 -0.613784 -0.580043 -0.500354 -0.3867 -0.325885 -0.0996515 0.132653 0.0902087 -0.0997378 -0.247838 -0.252637 -0.148598 0 0 0.0013777 0.0105933 0.00906686 0.034423 0.03881 0.0555205 0.0892271 0.116343 0.117148 0.0770081 0.0119997 -0.0790766 -0.188982 -0.30546 -0.405215 -0.462841 -0.474363 -0.478224 -0.486819 -0.451749 -0.355167 -0.243739 -0.189855 0.0975804 0.213001 0.107812 -0.0804026 -0.184719 -0.139884 0 0 0.0028692 -0.0025766 0.00999441 0.0257755 0.0276656 0.0574596 0.106475 0.15138 0.171888 0.164393 0.145587 0.0988815 0.0287448 -0.0670545 -0.181022 -0.299647 -0.376594 -0.405202 -0.389627 -0.366641 -0.327793 -0.208461 -0.146603 -0.00779468 0.23377 0.259817 0.12206 -0.042298 -0.0958465 0 0 0.00112238 -0.0143178 0.0101047 0.0129589 0.0183729 0.0567227 0.109506 0.150887 0.173261 0.186935 0.19332 0.188441 0.17728 0.132677 0.0547704 -0.0509241 -0.171027 -0.282831 -0.32459 -0.318028 -0.275442 -0.205653 -0.0921032 -0.038476 0.156853 0.314564 0.291483 0.145292 0.0206367 0 0 -0.00631894 -0.0229018 0.00402531 -0.00356454 0.010479 0.055644 0.10583 0.139618 0.155992 0.168287 0.184937 0.209264 0.232075 0.236956 0.22308 0.167156 0.0742083 -0.0424635 -0.162746 -0.242238 -0.244809 -0.207617 -0.105458 -0.0147816 0.0740116 0.269791 0.354595 0.313547 0.175765 0 0 -0.017932 -0.0348615 -0.00943066 -0.021461 0.00287226 0.0489288 0.0956231 0.121546 0.133232 0.144256 0.162463 0.18968 0.223742 0.260507 0.288555 0.28833 0.258311 0.185187 0.0760606 -0.0432781 -0.144872 -0.173712 -0.147917 -0.0483727 0.0382002 0.15778 0.317795 0.346211 0.288897 0 0 -0.0373927 -0.0472436 -0.0347458 -0.0370932 -0.00938055 0.0369716 0.0760025 0.094856 0.102422 0.113635 0.134117 0.163653 0.198883 0.236869 0.275496 0.312995 0.334782 0.322492 0.270896 0.177242 0.0575029 -0.0479933 -0.109873 -0.0955341 -0.031879 0.0553244 0.170063 0.264834 0.217687 0 0 -0.0667644 -0.0493451 -0.0685803 -0.0486757 -0.0209713 0.0165491 0.0423671 0.0519561 0.0565494 0.0693083 0.0929999 0.124828 0.160657 0.198365 0.236708 0.275352 0.313102 0.348358 0.357721 0.327082 0.249276 0.13338 0.0203429 -0.0657718 -0.0805209 -0.0677417 -0.00227893 0.0578953 0.0865914 0 0 -0.0623545 -0.130192 -0.0836283 -0.0691859 -0.0228301 -0.00119961 0.0110354 0.00464686 0.000480402 0.00636362 0.0260168 0.0546153 0.0890989 0.125796 0.163335 0.201447 0.240169 0.279339 0.316742 0.345852 0.33798 0.277408 0.164547 0.0323285 -0.0805312 -0.141405 -0.178443 -0.144246 -0.0950122 0 0 -0.369134 -0.172546 -0.115101 -0.0544444 -0.0297814 -0.00380619 -0.00497155 -0.0207558 -0.0350611 -0.0351805 -0.0253299 -0.00991197 0.00828753 0.0283261 0.0498955 0.0730755 0.0982748 0.125994 0.156964 0.190167 0.222283 0.229238 0.174318 0.0382738 -0.12936 -0.235189 -0.25342 -0.264433 -0.202269 0 0 0 0 0 0 0 0 0 0 0 0 0 0 0 0 0 0 0 0 0 0 0 0 0 0 0 0 0 0 0 0
				</DataArray>
				<DataArray Name="VitesseY" type="Float32" format="ascii">
 0 0 0 0 0 0 0 0 0 0 0 0 0 0 0 0 0 0 0 0 0 0 0 0 0 0 0 0 0 0 0 -0.0782826 0.0469961 -0.0299529 -0.112786 -0.159824 -0.149281 -0.0694241 0.00824655 0.028788 0.0281496 0.0136625 -0.00880132 -0.0296571 -0.0426453 -0.0466863 -0.042419 -0.026597 -0.00276141 0.0155197 0.0224152 0.0229751 0.0220765 0.0211475 0.0199452 0.0183986 0.0163871 0.0135713 0.00922503 0.00323516 -0.000909862 0 -0.130664 0.0248737 -0.0343602 -0.172117 -0.240408 -0.247095 -0.131024 -0.0132005 0.0272046 0.0258063 0.00240951 -0.0335757 -0.0684267 -0.0911558 -0.0976737 -0.0888402 -0.0573107 -0.00932492 0.0281976 0.0438044 0.0460991 0.044319 0.0425467 0.0401598 0.0370616 0.0330291 0.027417 0.0186526 0.00645398 -0.00181716 0 -0.0646765 0.0467894 -0.028424 -0.184536 -0.269065 -0.288567 -0.206904 -0.0808443 -0.0261375 -0.0194033 -0.0428283 -0.0826653 -0.122372 -0.149705 -0.156867 -0.143177 -0.0965835 -0.0244966 0.0344471 0.0630889 0.0693559 0.0667588 0.0642173 0.060709 0.0561197 0.0501586 0.041831 0.0286053 0.00997014 -0.00257988 0 0.0652132 0.13293 0.00211146 -0.179457 -0.276941 -0.304255 -0.270756 -0.172448 -0.109837 -0.0955224 -0.111402 -0.150663 -0.189811 -0.217902 -0.226009 -0.208187 -0.14926 -0.054617 0.0303025 0.0790225 0.0922413 0.0893277 0.086198 0.081653 0.075641 0.0678219 0.0568621 0.0392809 0.0139514 -0.0032582 0 0.220964 0.23811 0.0431341 -0.159025 -0.274616 -0.309141 -0.304553 -0.256853 -0.204874 -0.184363 -0.192797 -0.2256 -0.264702 -0.29183 -0.302166 -0.284349 -0.219269 -0.104316 0.0131711 0.0896303 0.113347 0.112126 0.108481 0.102993 0.0956746 0.0860769 0.0726361 0.0509958 0.0187345 -0.00376126 0 0.346237 0.32615 0.0947133 -0.129226 -0.258804 -0.309368 -0.313518 -0.304878 -0.286387 -0.276138 -0.280495 -0.304546 -0.340342 -0.367772 -0.379778 -0.367616 -0.304395 -0.17468 -0.0223016 0.0867578 0.129542 0.135572 0.131 0.12483 0.116319 0.105087 0.0893589 0.0640593 0.0247599 -0.00375872 0 0.393195 0.359382 0.13503 -0.0803165 -0.215594 -0.285918 -0.31002 -0.316966 -0.330709 -0.350127 -0.367604 -0.388481 -0.416165 -0.442665 -0.45695 -0.448257 -0.396586 -0.26511 -0.0886715 0.0565249 0.134774 0.157487 0.153852 0.147264 0.137715 0.125003 0.107211 0.0787362 0.0325622 -0.00278268 0 0.369432 0.329845 0.153059 -0.0285284 -0.147834 -0.230527 -0.281993 -0.310017 -0.341084 -0.39003 -0.437517 -0.472325 -0.496672 -0.517443 -0.53201 -0.524811 -0.484475 -0.370088 -0.182695 0.00409552 0.128669 0.174184 0.178014 0.170348 0.160026 0.146005 0.126389 0.0952603 0.0426677 -0.000421495 0 0.312819 0.276793 0.153131 0.0137585 -0.0853898 -0.159651 -0.22752 -0.284689 -0.335803 -0.401532 -0.478857 -0.542471 -0.580895 -0.597385 -0.606337 -0.60025 -0.560579 -0.471583 -0.295963 -0.0805979 0.0895333 0.176136 0.200643 0.194305 0.183485 0.16828 0.147079 0.113744 0.055427 0.00355634 0 0.252905 0.227115 0.145321 0.0482 -0.0317694 -0.0959647 -0.161085 -0.239257 -0.314701 -0.399585 -0.496911 -0.591519 -0.657625 -0.688322 -0.685693 -0.67299 -0.63047 -0.55784 -0.412925 -0.194961 0.0186684 0.162733 0.216719 0.220248 0.208069 0.191979 0.169373 0.134103 0.0709567 0.00923103 0 0.20711 0.192076 0.142106 0.0760137 0.0151056 -0.0399273 -0.101517 -0.181074 -0.27586 -0.383684 -0.50214 -0.620053 -0.719631 -0.777462 -0.788607 -0.748647 -0.698974 -0.62493 -0.517921 -0.323719 -0.084691 0.109998 0.213573 0.244298 0.234003 0.217166 0.193255 0.156208 0.0892029 0.016616 0 0.184507 0.17678 0.147749 0.104383 0.0571143 0.00779304 -0.0516572 -0.129247 -0.227983 -0.351418 -0.492698 -0.633474 -0.762879 -0.853498 -0.895922 -0.853299 -0.77319 -0.685242 -0.594174 -0.446361 -0.214732 0.022058 0.190037 0.257488 0.261623 0.243694 0.218689 0.180102 0.109917 0.0257497 0 0.184112 0.179793 0.163459 0.13616 0.0974949 0.0476909 -0.0136355 -0.0912756 -0.190798 -0.312792 -0.466614 -0.633439 -0.784863 -0.91132 -0.979922 -0.967866 -0.87093 -0.753021 -0.641493 -0.536225 -0.348472 -0.0982237 0.120709 0.247082 0.286963 0.271625 0.245643 0.205736 0.133052 0.0367405 0 0.198892 0.196173 0.186547 0.168696 0.133802 0.0796155 0.00978813 -0.0742001 -0.175044 -0.293801 -0.437065 -0.611204 -0.790324 -0.938823 -1.02822 -1.05493 -0.970732 -0.839644 -0.696652 -0.58427 -0.459298 -0.236043 0.0150433 0.207169 0.292583 0.300449 0.274188 0.23312 0.158638 0.0498172 0 0.210332 0.207748 0.199806 0.186545 0.15158 0.0888186 0.00869199 -0.0856408 -0.190589 -0.309091 -0.433971 -0.588309 -0.762052 -0.91975 -1.03507 -1.09591 -1.0497 -0.917619 -0.75462 -0.610398 -0.520325 -0.366903 -0.117246 0.12093 0.273144 0.324865 0.303988 0.262323 0.186772 0.0653323 0 0.0697752 0.0731603 0.0847853 0.0969617 0.0827146 0.0311887 -0.0479786 -0.142607 -0.245385 -0.353036 -0.46639 -0.580208 -0.709856 -0.854281 -0.982862 -1.06207 -1.07131 -0.956771 -0.816872 -0.664512 -0.532122 -0.444448 -0.256733 0.000195719 0.212964 0.320397 0.334154 0.293569 0.217492 0.0836954 0 -0.41927 -0.400426 -0.353954 -0.290714 -0.239524 -0.220233 -0.226095 -0.261157 -0.324518 -0.403772 -0.485955 -0.568412 -0.663088 -0.765162 -0.87765 -0.954338 -0.98815 -0.940511 -0.834422 -0.702318 -0.56323 -0.468055 -0.362502 -0.13625 0.111373 0.286459 0.353285 0.325619 0.250728 0.105326 0 -0.980595 -0.952328 -0.890612 -0.810048 -0.726762 -0.651039 -0.579041 -0.519122 -0.470733 -0.445738 -0.468654 -0.524747 -0.589242 -0.669701 -0.733025 -0.792557 -0.845964 -0.863672 -0.787658 -0.698166 -0.590481 -0.465046 -0.40014 -0.265712 -0.0177174 0.208452 0.337788 0.357209 0.286031 0.130558 0 -1.26348 -1.23468 -1.18068 -1.12425 -1.06877 -1.00485 -0.928716 -0.836244 -0.726131 -0.608391 -0.498047 -0.440768 -0.452061 -0.499047 -0.568484 -0.634182 -0.674552 -0.706773 -0.710939 -0.639612 -0.568529 -0.475284 -0.389316 -0.322433 -0.148203 0.0923586 0.28368 0.365034 0.321003 0.159866 0 -1.26558 -1.2287 -1.19894 -1.17905 -1.1616 -1.13529 -1.09717 -1.03313 -0.943626 -0.825707 -0.680996 -0.528969 -0.402364 -0.349655 -0.371219 -0.437476 -0.506224 -0.542343 -0.561731 -0.548121 -0.493378 -0.442525 -0.361776 -0.321255 -0.240889 -0.0340594 0.186536 0.333269 0.348811 0.191992 0 -1.11288 -1.0704 -1.05218 -1.03772 -1.03829 -1.05015 -1.06533 -1.06487 -1.03034 -0.952331 -0.849269 -0.725001 -0.568657 -0.405169 -0.280796 -0.239627 -0.282036 -0.370301 -0.421598 -0.419795 -0.378318 -0.359048 -0.325298 -0.275448 -0.246784 -0.142498 0.0630011 0.253844 0.340472 0.223469 0 -0.971078 -0.924955 -0.917331 -0.904098 -0.910865 -0.925382 -0.936439 -0.939366 -0.938338 -0.938693 -0.918398 -0.850897 -0.748603 -0.610262 -0.435884 -0.261495 -0.141384 -0.117967 -0.191362 -0.297321 -0.314698 -0.233532 -0.211194 -0.207477 -0.210269 -0.175065 -0.0464383 0.136201 0.279359 0.230195 0 -0.825996 -0.781845 -0.784795 -0.774951 -0.790536 -0.805365 -0.813879 -0.816607 -0.819321 -0.826468 -0.83769 -0.847913 -0.828151 -0.752106 -0.629492 -0.46594 -0.270909 -0.0937411 0.00594996 0.00317792 -0.105065 -0.188621 -0.141898 -0.0921429 -0.107424 -0.150164 -0.11054 0.0211612 0.165784 0.175077 0 -0.676726 -0.639618 -0.653844 -0.650872 -0.676031 -0.688962 -0.695452 -0.69915 -0.704424 -0.714438 -0.727556 -0.74 -0.748879 -0.751182 -0.718479 -0.622537 -0.474793 -0.286927 -0.0812182 0.0768152 0.142889 0.0989487 -0.00791177 -0.0381089 -0.0148134 -0.0496792 -0.0966783 -0.0659714 0.0327509 0.0387599 0 -0.517556 -0.496618 -0.52379 -0.532483 -0.565708 -0.576262 -0.581834 -0.586444 -0.593455 -0.604267 -0.616482 -0.627176 -0.635015 -0.639426 -0.639826 -0.631458 -0.581077 -0.462071 -0.291832 -0.0862864 0.106526 0.221251 0.236969 0.157541 0.0737262 0.0379408 -0.032544 -0.0809722 -0.0805595 -0.129187 0 -0.341504 -0.352942 -0.397145 -0.418491 -0.457455 -0.465145 -0.471495 -0.476186 -0.484233 -0.495334 -0.506362 -0.51463 -0.519626 -0.521984 -0.522696 -0.521881 -0.517763 -0.497881 -0.422744 -0.279885 -0.0891374 0.117522 0.265448 0.317095 0.270647 0.157726 0.0551403 -0.0680064 -0.141525 -0.235168 0 -0.149185 -0.203052 -0.274643 -0.305996 -0.348239 -0.353443 -0.360317 -0.364573 -0.373952 -0.385488 -0.395169 -0.401352 -0.404275 -0.404764 -0.404129 -0.402796 -0.401158 -0.398266 -0.389895 -0.351611 -0.245848 -0.0761724 0.126756 0.29448 0.355922 0.318285 0.170121 -0.00234752 -0.178515 -0.253436 0 0.0182772 0.00202421 -0.160638 -0.207251 -0.238572 -0.239578 -0.24024 -0.244276 -0.254562 -0.267756 -0.276885 -0.283184 -0.285592 -0.285924 -0.285 -0.283426 -0.281626 -0.279788 -0.277845 -0.27301 -0.254479 -0.18482 -0.0410079 0.147134 0.314845 0.346769 0.265014 0.0579281 -0.144258 -0.264445 0 0.638131 0.0717543 -0.115032 -0.0925674 -0.155884 -0.112092 -0.123766 -0.115925 -0.127014 -0.133958 -0.144363 -0.148217 -0.150573 -0.151431 -0.151621 -0.151572 -0.151524 -0.151619 -0.151773 -0.151674 -0.149752 -0.140659 -0.0961219 0.0209265 0.176335 0.289283 0.217826 0.0866201 -0.09501 -0.202273 0 5.37203 0 0 0 0 0 0 0 0 0 0 0 0 0 0 0 0 0 0 0 0 0 0 0 0 0 0 0 0 0 0
				</DataArray>
			</PointData>
			<CellData Scalars="Density">
				<DataArray Name="Density" type="Float32" format="ascii">