<?xml version="1.0"?>
<VTKFile type="PolyData">
	<PolyData>
		<Piece NumberOfPoints="961" NumberOfPolys="900">
			<Points>
				<DataArray type="Float32" NumberOfComponents="3" format="ascii">
 0 0 0 0.04 0 0 0.08 0 0 0.12 0 0 0.16 0 0 0.2 0 0 0.24 0 0 0.28 0 0 0.32 0 0 0.36 0 0 0.4 0 0 0.44 0 0 0.48 0 0 0.52 0 0 0.56 0 0 0.6 0 0 0.64 0 0 0.68 0 0 0.72 0 0 0.76 0 0 0.8 0 0 0.84 0 0 0.88 0 0 0.92 0 0 0.96 0 0 1 0 0 1.04 0 0 1.08 0 0 1.12 0 0 1.16 0 0 1.2 0 0 0 0.04 0 0.04 0.04 0 0.08 0.04 0 0.12 0.04 0 0.16 0.04 0 0.2 0.04 0 0.24 0.04 0 0.28 0.04 0 0.32 0.04 0 0.36 0.04 0 0.4 0.04 0 0.44 0.04 0 0.48 0.04 0 0.52 0.04 0 0.56 0.04 0 0.6 0.04 0 0.64 0.04 0 0.68 0.04 0 0.72 0.04 0 0.76 0.04 0 0.8 0.04 0 0.84 0.04 0 0.88 0.04 0 0.92 0.04 0 0.96 0.04 0 1 0.04 0 1.04 0.04 0 1.08 0.04 0 1.12 0.04 0 1.16 0.04 0 1.2 0.04 0 0 0.08 0 0.04 0.08 0 0.08 0.08 0 0.12 0.08 0 0.16 0.08 0 0.2 0.08 0 0.24 0.08 0 0.28 0.08 0 0.32 0.08 0 0.36 0.08 0 0.4 0.08 0 0.44 0.08 0 0.48 0.08 0 0.52 0.08 0 0.56 0.08 0 0.6 0.08 0 0.64 0.08 0 0.68 0.08 0 0.72 0.08 0 0.76 0.08 0 0.8 0.08 0 0.84 0.08 0 0.88 0.08 0 0.92 0.08 0 0.96 0.08 0 1 0.08 0 1.04 0.08 0 1.08 0.08 0 1.12 0.08 0 1.16 0.08 0 1.2 0.08 0 0 0.12 0 0.04 0.12 0 0.08 0.12 0 0.12 0.12 0 0.16 0.12 0 0.2 0.12 0 0.24 0.12 0 0.28 0.12 0 0.32 0.12 0 0.36 0.12 0 0.4 0.12 0 0.44 0.12 0 0.48 0.12 0 0.52 0.12 0 0.56 0.12 0 0.6 0.12 0 0.64 0.12 0 0.68 0.12 0 0.72 0.12 0 0.76 0.12 0 0.8 0.12 0 0.84 0.12 0 0.88 0.12 0 0.92 0.12 0 0.96 0.12 0 1 0.12 0 1.04 0.12 0 1.08 0.12 0 1.12 0.12 0 1.16 0.12 0 1.2 0.12 0 0 0.16 0 0.04 0.16 0 0.08 0.16 0 0.12 0.16 0 0.16 0.16 0 0.2 0.16 0 0.24 0.16 0 0.28 0.16 0 0.32 0.16 0 0.36 0.16 0 0.4 0.16 0 0.44 0.16 0 0.48 0.16 0 0.52 0.16 0 0.56 0.16 0 0.6 0.16 0 0.64 0.16 0 0.68 0.16 0 0.72 0.16 0 0.76 0.16 0 0.8 0.16 0 0.84 0.16 0 0.88 0.16 0 0.92 0.16 0 0.96 0.16 0 1 0.16 0 1.04 0.16 0 1.08 0.16 0 1.12 0.16 0 1.16 0.16 0 1.2 0.16 0 0 0.2 0 0.04 0.2 0 0.08 0.2 0 0.12 0.2 0 0.16 0.2 0 0.2 0.2 0 0.24 0.2 0 0.28 0.2 0 0.32 0.2 0 0.36 0.2 0 0.4 0.2 0 0.44 0.2 0 0.48 0.2 0 0.52 0.2 0 0.56 0.2 0 0.6 0.2 0 0.64 0.2 0 0.68 0.2 0 0.72 0.2 0 0.76 0.2 0 0.8 0.2 0 0.84 0.2 0 0.88 0.2 0 0.92 0.2 0 0.96 0.2 0 1 0.2 0 1.04 0.2 0 1.08 0.2 0 1.12 0.2 0 1.16 0.2 0 1.2 0.2 0 0 0.24 0 0.04 0.24 0 0.08 0.24 0 0.12 0.24 0 0.16 0.24 0 0.2 0.24 0 0.24 0.24 0 0.28 0.24 0 0.32 0.24 0 0.36 0.24 0 0.4 0.24 0 0.44 0.24 0 0.48 0.24 0 0.52 0.24 0 0.56 0.24 0 0.6 0.24 0 0.64 0.24 0 0.68 0.24 0 0.72 0.24 0 0.76 0.24 0 0.8 0.24 0 0.84 0.24 0 0.88 0.24 0 0.92 0.24 0 0.96 0.24 0 1 0.24 0 1.04 0.24 0 1.08 0.24 0 1.12 0.24 0 1.16 0.24 0 1.2 0.24 0 0 0.28 0 0.04 0.28 0 0.08 0.28 0 0.12 0.28 0 0.16 0.28 0 0.2 0.28 0 0.24 0.28 0 0.28 0.28 0 0.32 0.28 0 0.36 0.28 0 0.4 0.28 0 0.44 0.28 0 0.48 0.28 0 0.52 0.28 0 0.56 0.28 0 0.6 0.28 0 0.64 0.28 0 0.68 0.28 0 0.72 0.28 0 0.76 0.28 0 0.8 0.28 0 0.84 0.28 0 0.88 0.28 0 0.92 0.28 0 0.96 0.28 0 1 0.28 0 1.04 0.28 0 1.08 0.28 0 1.12 0.28 0 1.16 0.28 0 1.2 0.28 0 0 0.32 0 0.04 0.32 0 0.08 0.32 0 0.12 0.32 0 0.16 0.32 0 0.2 0.32 0 0.24 0.32 0 0.28 0.32 0 0.32 0.32 0 0.36 0.32 0 0.4 0.32 0 0.44 0.32 0 0.48 0.32 0 0.52 0.32 0 0.56 0.32 0 0.6 0.32 0 0.64 0.32 0 0.68 0.32 0 0.72 0.32 0 0.76 0.32 0 0.8 0.32 0 0.84 0.32 0 0.88 0.32 0 0.92 0.32 0 0.96 0.32 0 1 0.32 0 1.04 0.32 0 1.08 0.32 0 1.12 0.32 0 1.16 0.32 0 1.2 0.32 0 0 0.36 0 0.04 0.36 0 0.08 0.36 0 0.12 0.36 0 0.16 0.36 0 0.2 0.36 0 0.24 0.36 0 0.28 0.36 0 0.32 0.36 0 0.36 0.36 0 0.4 0.36 0 0.44 0.36 0 0.48 0.36 0 0.52 0.36 0 0.56 0.36 0 0.6 0.36 0 0.64 0.36 0 0.68 0.36 0 0.72 0.36 0 0.76 0.36 0 0.8 0.36 0 0.84 0.36 0 0.88 0.36 0 0.92 0.36 0 0.96 0.36 0 1 0.36 0 1.04 0.36 0 1.08 0.36 0 1.12 0.36 0 1.16 0.36 0 1.2 0.36 0 0 0.4 0 0.04 0.4 0 0.08 0.4 0 0.12 0.4 0 0.16 0.4 0 0.2 0.4 0 0.24 0.4 0 0.28 0.4 0 0.32 0.4 0 0.36 0.4 0 0.4 0.4 0 0.44 0.4 0 0.48 0.4 0 0.52 0.4 0 0.56 0.4 0 0.6 0.4 0 0.64 0.4 0 0.68 0.4 0 0.72 0.4 0 0.76 0.4 0 0.8 0.4 0 0.84 0.4 0 0.88 0.4 0 0.92 0.4 0 0.96 0.4 0 1 0.4 0 1.04 0.4 0 1.08 0.4 0 1.12 0.4 0 1.16 0.4 0 1.2 0.4 0 0 0.44 0 0.04 0.44 0 0.08 0.44 0 0.12 0.44 0 0.16 0.44 0 0.2 0.44 0 0.24 0.44 0 0.28 0.44 0 0.32 0.44 0 0.36 0.44 0 0.4 0.44 0 0.44 0.44 0 0.48 0.44 0 0.52 0.44 0 0.56 0.44 0 0.6 0.44 0 0.64 0.44 0 0.68 0.44 0 0.72 0.44 0 0.76 0.44 0 0.8 0.44 0 0.84 0.44 0 0.88 0.44 0 0.92 0.44 0 0.96 0.44 0 1 0.44 0 1.04 0.44 0 1.08 0.44 0 1.12 0.44 0 1.16 0.44 0 1.2 0.44 0 0 0.48 0 0.04 0.48 0 0.08 0.48 0 0.12 0.48 0 0.16 0.48 0 0.2 0.48 0 0.24 0.48 0 0.28 0.48 0 0.32 0.48 0 0.36 0.48 0 0.4 0.48 0 0.44 0.48 0 0.48 0.48 0 0.52 0.48 0 0.56 0.48 0 0.6 0.48 0 0.64 0.48 0 0.68 0.48 0 0.72 0.48 0 0.76 0.48 0 0.8 0.48 0 0.84 0.48 0 0.88 0.48 0 0.92 0.48 0 0.96 0.48 0 1 0.48 0 1.04 0.48 0 1.08 0.48 0 1.12 0.48 0 1.16 0.48 0 1.2 0.48 0 0 0.52 0 0.04 0.52 0 0.08 0.52 0 0.12 0.52 0 0.16 0.52 0 0.2 0.52 0 0.24 0.52 0 0.28 0.52 0 0.32 0.52 0 0.36 0.52 0 0.4 0.52 0 0.44 0.52 0 0.48 0.52 0 0.52 0.52 0 0.56 0.52 0 0.6 0.52 0 0.64 0.52 0 0.68 0.52 0 0.72 0.52 0 0.76 0.52 0 0.8 0.52 0 0.84 0.52 0 0.88 0.52 0 0.92 0.52 0 0.96 0.52 0 1 0.52 0 1.04 0.52 0 1.08 0.52 0 1.12 0.52 0 1.16 0.52 0 1.2 0.52 0 0 0.56 0 0.04 0.56 0 0.08 0.56 0 0.12 0.56 0 0.16 0.56 0 0.2 0.56 0 0.24 0.56 0 0.28 0.56 0 0.32 0.56 0 0.36 0.56 0 0.4 0.56 0 0.44 0.56 0 0.48 0.56 0 0.52 0.56 0 0.56 0.56 0 0.6 0.56 0 0.64 0.56 0 0.68 0.56 0 0.72 0.56 0 0.76 0.56 0 0.8 0.56 0 0.84 0.56 0 0.88 0.56 0 0.92 0.56 0 0.96 0.56 0 1 0.56 0 1.04 0.56 0 1.08 0.56 0 1.12 0.56 0 1.16 0.56 0 1.2 0.56 0 0 0.6 0 0.04 0.6 0 0.08 0.6 0 0.12 0.6 0 0.16 0.6 0 0.2 0.6 0 0.24 0.6 0 0.28 0.6 0 0.32 0.6 0 0.36 0.6 0 0.4 0.6 0 0.44 0.6 0 0.48 0.6 0 0.52 0.6 0 0.56 0.6 0 0.6 0.6 0 0.64 0.6 0 0.68 0.6 0 0.72 0.6 0 0.76 0.6 0 0.8 0.6 0 0.84 0.6 0 0.88 0.6 0 0.92 0.6 0 0.96 0.6 0 1 0.6 0 1.04 0.6 0 1.08 0.6 0 1.12 0.6 0 1.16 0.6 0 1.2 0.6 0 0 0.64 0 0.04 0.64 0 0.08 0.64 0 0.12 0.64 0 0.16 0.64 0 0.2 0.64 0 0.24 0.64 0 0.28 0.64 0 0.32 0.64 0 0.36 0.64 0 0.4 0.64 0 0.44 0.64 0 0.48 0.64 0 0.52 0.64 0 0.56 0.64 0 0.6 0.64 0 0.64 0.64 0 0.68 0.64 0 0.72 0.64 0 0.76 0.64 0 0.8 0.64 0 0.84 0.64 0 0.88 0.64 0 0.92 0.64 0 0.96 0.64 0 1 0.64 0 1.04 0.64 0 1.08 0.64 0 1.12 0.64 0 1.16 0.64 0 1.2 0.64 0 0 0.68 0 0.04 0.68 0 0.08 0.68 0 0.12 0.68 0 0.16 0.68 0 0.2 0.68 0 0.24 0.68 0 0.28 0.68 0 0.32 0.68 0 0.36 0.68 0 0.4 0.68 0 0.44 0.68 0 0.48 0.68 0 0.52 0.68 0 0.56 0.68 0 0.6 0.68 0 0.64 0.68 0 0.68 0.68 0 0.72 0.68 0 0.76 0.68 0 0.8 0.68 0 0.84 0.68 0 0.88 0.68 0 0.92 0.68 0 0.96 0.68 0 1 0.68 0 1.04 0.68 0 1.08 0.68 0 1.12 0.68 0 1.16 0.68 0 1.2 0.68 0 0 0.72 0 0.04 0.72 0 0.08 0.72 0 0.12 0.72 0 0.16 0.72 0 0.2 0.72 0 0.24 0.72 0 0.28 0.72 0 0.32 0.72 0 0.36 0.72 0 0.4 0.72 0 0.44 0.72 0 0.48 0.72 0 0.52 0.72 0 0.56 0.72 0 0.6 0.72 0 0.64 0.72 0 0.68 0.72 0 0.72 0.72 0 0.76 0.72 0 0.8 0.72 0 0.84 0.72 0 0.88 0.72 0 0.92 0.72 0 0.96 0.72 0 1 0.72 0 1.04 0.72 0 1.08 0.72 0 1.12 0.72 0 1.16 0.72 0 1.2 0.72 0 0 0.76 0 0.04 0.76 0 0.08 0.76 0 0.12 0.76 0 0.16 0.76 0 0.2 0.76 0 0.24 0.76 0 0.28 0.76 0 0.32 0.76 0 0.36 0.76 0 0.4 0.76 0 0.44 0.76 0 0.48 0.76 0 0.52 0.76 0 0.56 0.76 0 0.6 0.76 0 0.64 0.76 0 0.68 0.76 0 0.72 0.76 0 0.76 0.76 0 0.8 0.76 0 0.84 0.76 0 0.88 0.76 0 0.92 0.76 0 0.96 0.76 0 1 0.76 0 1.04 0.76 0 1.08 0.76 0 1.12 0.76 0 1.16 0.76 0 1.2 0.76 0 0 0.8 0 0.04 0.8 0 0.08 0.8 0 0.12 0.8 0 0.16 0.8 0 0.2 0.8 0 0.24 0.8 0 0.28 0.8 0 0.32 0.8 0 0.36 0.8 0 0.4 0.8 0 0.44 0.8 0 0.48 0.8 0 0.52 0.8 0 0.56 0.8 0 0.6 0.8 0 0.64 0.8 0 0.68 0.8 0 0.72 0.8 0 0.76 0.8 0 0.8 0.8 0 0.84 0.8 0 0.88 0.8 0 0.92 0.8 0 0.96 0.8 0 1 0.8 0 1.04 0.8 0 1.08 0.8 0 1.12 0.8 0 1.16 0.8 0 1.2 0.8 0 0 0.84 0 0.04 0.84 0 0.08 0.84 0 0.12 0.84 0 0.16 0.84 0 0.2 0.84 0 0.24 0.84 0 0.28 0.84 0 0.32 0.84 0 0.36 0.84 0 0.4 0.84 0 0.44 0.84 0 0.48 0.84 0 0.52 0.84 0 0.56 0.84 0 0.6 0.84 0 0.64 0.84 0 0.68 0.84 0 0.72 0.84 0 0.76 0.84 0 0.8 0.84 0 0.84 0.84 0 0.88 0.84 0 0.92 0.84 0 0.96 0.84 0 1 0.84 0 1.04 0.84 0 1.08 0.84 0 1.12 0.84 0 1.16 0.84 0 1.2 0.84 0 0 0.88 0 0.04 0.88 0 0.08 0.88 0 0.12 0.88 0 0.16 0.88 0 0.2 0.88 0 0.24 0.88 0 0.28 0.88 0 0.32 0.88 0 0.36 0.88 0 0.4 0.88 0 0.44 0.88 0 0.48 0.88 0 0.52 0.88 0 0.56 0.88 0 0.6 0.88 0 0.64 0.88 0 0.68 0.88 0 0.72 0.88 0 0.76 0.88 0 0.8 0.88 0 0.84 0.88 0 0.88 0.88 0 0.92 0.88 0 0.96 0.88 0 1 0.88 0 1.04 0.88 0 1.08 0.88 0 1.12 0.88 0 1.16 0.88 0 1.2 0.88 0 0 0.92 0 0.04 0.92 0 0.08 0.92 0 0.12 0.92 0 0.16 0.92 0 0.2 0.92 0 0.24 0.92 0 0.28 0.92 0 0.32 0.92 0 0.36 0.92 0 0.4 0.92 0 0.44 0.92 0 0.48 0.92 0 0.52 0.92 0 0.56 0.92 0 0.6 0.92 0 0.64 0.92 0 0.68 0.92 0 0.72 0.92 0 0.76 0.92 0 0.8 0.92 0 0.84 0.92 0 0.88 0.92 0 0.92 0.92 0 0.96 0.92 0 1 0.92 0 1.04 0.92 0 1.08 0.92 0 1.12 0.92 0 1.16 0.92 0 1.2 0.92 0 0 0.96 0 0.04 0.96 0 0.08 0.96 0 0.12 0.96 0 0.16 0.96 0 0.2 0.96 0 0.24 0.96 0 0.28 0.96 0 0.32 0.96 0 0.36 0.96 0 0.4 0.96 0 0.44 0.96 0 0.48 0.96 0 0.52 0.96 0 0.56 0.96 0 0.6 0.96 0 0.64 0.96 0 0.68 0.96 0 0.72 0.96 0 0.76 0.96 0 0.8 0.96 0 0.84 0.96 0 0.88 0.96 0 0.92 0.96 0 0.96 0.96 0 1 0.96 0 1.04 0.96 0 1.08 0.96 0 1.12 0.96 0 1.16 0.96 0 1.2 0.96 0 0 1 0 0.04 1 0 0.08 1 0 0.12 1 0 0.16 1 0 0.2 1 0 0.24 1 0 0.28 1 0 0.32 1 0 0.36 1 0 0.4 1 0 0.44 1 0 0.48 1 0 0.52 1 0 0.56 1 0 0.6 1 0 0.64 1 0 0.68 1 0 0.72 1 0 0.76 1 0 0.8 1 0 0.84 1 0 0.88 1 0 0.92 1 0 0.96 1 0 1 1 0 1.04 1 0 1.08 1 0 1.12 1 0 1.16 1 0 1.2 1 0 0 1.04 0 0.04 1.04 0 0.08 1.04 0 0.12 1.04 0 0.16 1.04 0 0.2 1.04 0 0.24 1.04 0 0.28 1.04 0 0.32 1.04 0 0.36 1.04 0 0.4 1.04 0 0.44 1.04 0 0.48 1.04 0 0.52 1.04 0 0.56 1.04 0 0.6 1.04 0 0.64 1.04 0 0.68 1.04 0 0.72 1.04 0 0.76 1.04 0 0.8 1.04 0 0.84 1.04 0 0.88 1.04 0 0.92 1.04 0 0.96 1.04 0 1 1.04 0 1.04 1.04 0 1.08 1.04 0 1.12 1.04 0 1.16 1.04 0 1.2 1.04 0 0 1.08 0 0.04 1.08 0 0.08 1.08 0 0.12 1.08 0 0.16 1.08 0 0.2 1.08 0 0.24 1.08 0 0.28 1.08 0 0.32 1.08 0 0.36 1.08 0 0.4 1.08 0 0.44 1.08 0 0.48 1.08 0 0.52 1.08 0 0.56 1.08 0 0.6 1.08 0 0.64 1.08 0 0.68 1.08 0 0.72 1.08 0 0.76 1.08 0 0.8 1.08 0 0.84 1.08 0 0.88 1.08 0 0.92 1.08 0 0.96 1.08 0 1 1.08 0 1.04 1.08 0 1.08 1.08 0 1.12 1.08 0 1.16 1.08 0 1.2 1.08 0 0 1.12 0 
[...]
			<PointData Scalars="VitesseX">
				<DataArray Name="VitesseX" type="Float32" format="ascii">
 0 -0.0490814 -0.141141 -0.152567 -0.122591 -0.0519447 0.0440835 0.131098 0.216505 0.285479 0.346144 0.399741 0.448626 0.494261 0.537816 0.580467 0.622953 0.665621 0.708737 0.752595 0.795936 0.795987 0.673691 0.377043 -0.112394 -0.600293 -0.863295 -0.877422 -0.651842 -0.302343 0 0 0.134352 0.119721 0.0881938 0.071645 0.0979415 0.160178 0.211122 0.272923 0.327429 0.379059 0.425516 0.468651 0.509589 0.549348 0.58878 0.628333 0.668422 0.709467 0.751664 0.79378 0.795658 0.676968 0.386967 -0.0965144 -0.585642 -0.85381 -0.873137 -0.652505 -0.303154 0 0 0.135488 0.205982 0.252976 0.25797 0.256433 0.28542 0.303861 0.337433 0.370635 0.406151 0.442496 0.479271 0.516747 0.554789 0.593292 0.632282 0.672022 0.712872 0.755111 0.797722 0.807515 0.700118 0.428379 -0.0404267 -0.536939 -0.823647 -0.859081 -0.652636 -0.304312 0 0 0.101509 0.177174 0.241507 0.269309 0.284589 0.310495 0.331344 0.359874 0.388814 0.418657 0.45157 0.486177 0.522365 0.559534 0.59749 0.636318 0.676273 0.717543 0.760207 0.803455 0.823736 0.733501 0.488992 0.043571 -0.461896 -0.777389 -0.837053 -0.652833 -0.306559 0 0 0.0497523 0.120315 0.19921 0.24144 0.278085 0.302694 0.331667 0.361591 0.396582 0.428654 0.461594 0.49474 0.529252 0.565103 0.60232 0.641036 0.681256 0.722946 0.765951 0.809601 0.840185 0.772334 0.561431 0.148564 -0.362646 -0.71518 -0.806282 -0.652419 -0.310237 0 0 0.0125313 0.0656179 0.142951 0.194316 0.250914 0.286257 0.321985 0.355246 0.39301 0.42903 0.465985 0.501371 0.536483 0.571874 0.608536 0.646976 0.687228 0.72906 0.77209 0.815779 0.853639 0.813321 0.63947 0.268711 -0.238923 -0.633672 -0.764573 -0.649394 -0.315793 0 0 0.00390572 0.0484385 0.108011 0.158958 0.216023 0.261701 0.301884 0.342458 0.384629 0.424738 0.464175 0.502537 0.540325 0.577902 0.61564 0.654304 0.694489 0.736118 0.778802 0.822166 0.863549 0.852945 0.71729 0.39748 -0.0915451 -0.528917 -0.708964 -0.640472 -0.323519 0 0 0.00817223 0.0491321 0.101642 0.15462 0.204475 0.25057 0.289616 0.331894 0.374635 0.417818 0.460626 0.501887 0.54226 0.582195 0.622024 0.661993 0.702569 0.743995 0.786201 0.829011 0.871288 0.887068 0.789765 0.527932 0.0748943 -0.397222 -0.636648 -0.621487 -0.332882 0 0 0.0150887 0.0536046 0.104642 0.15812 0.205117 0.250512 0.289611 0.331478 0.373019 0.41553 0.458745 0.501822 0.544079 0.585881 0.627189 0.668284 0.709467 0.751002 0.793023 0.835507 0.877998 0.911037 0.854631 0.652668 0.251397 -0.236766 -0.545094 -0.587248 -0.342403 0 0 0.023083 0.0611614 0.110919 0.162911 0.209863 0.254051 0.293876 0.33428 0.374965 0.416803 0.459726 0.503092 0.546338 0.589176 0.631627 0.673492 0.715098 0.756777 0.798714 0.841 0.883539 0.924072 0.909551 0.764027 0.427289 -0.051533 -0.428445 -0.533838 -0.349177 0 0 0.0299786 0.0703275 0.118788 0.169378 0.216487 0.260575 0.301278 0.340654 0.380425 0.421218 0.463218 0.506141 0.549345 0.592525 0.635352 0.677725 0.719649 0.761451 0.803368 0.845558 0.888125 0.930404 0.950626 0.856697 0.59285 0.149565 -0.281505 -0.458319 -0.348375 0 0 0.0348124 0.0767743 0.124089 0.173358 0.221562 0.266819 0.309046 0.348918 0.388191 0.427918 0.468675 0.510544 0.553061 0.595784 0.638515 0.680961 0.723104 0.765024 0.806985 0.84919 0.891836 0.934802 0.973213 0.931062 0.739685 0.352311 -0.103623 -0.359141 -0.332383 0 0 0.0381963 0.0813074 0.1275 0.175486 0.223624 0.269753 0.313055 0.354137 0.393839 0.433327 0.473461 0.514529 0.556306 0.598467 0.640816 0.683212 0.72544 0.767494 0.809568 0.851886 0.894692 0.938187 0.981784 0.987529 0.860092 0.543772 0.0965885 -0.236263 -0.29211 0 0 0.0404338 0.0841545 0.129548 0.176242 0.223779 0.270159 0.314037 0.355765 0.396113 0.435896 0.47594 0.516718 0.55815 0.599998 0.642116 0.68437 0.72666 0.768887 0.811154 0.853693 0.896798 0.940813 0.985646 1.02192 0.953193 0.71632 0.302548 -0.0869486 -0.223706 0 0 0.0416026 0.0854874 0.130293 0.176006 0.222642 0.26879 0.31294 0.355133 0.39596 0.43614 0.476399 0.517175 0.558533 0.600317 0.642387 0.684622 0.726949 0.769369 0.811927 0.854835 0.898412 0.943047 0.988963 1.03584 1.02338 0.86137 0.502286 0.0859626 -0.127722 0 0 0.0419364 0.0857529 0.130133 0.174912 0.220105 0.265308 0.309401 0.352014 0.39356 0.434444 0.475201 0.516231 0.557707 0.599601 0.641799 0.684182 0.726668 0.769273 0.812176 0.855571 0.899786 0.94518 0.992038 1.04016 1.07119 0.974388 0.689401 0.272874 -0.0109548 0 0 0.0419165 0.0854877 0.129247 0.172919 0.216594 0.260376 0.303851 0.346544 0.388587 0.430234 0.471725 0.513314 0.555163 0.59737 0.639923 0.682713 0.725629 0.768703 0.812102 0.856156 0.90116 0.947436 0.995162 1.04425 1.09422 1.05973 0.854147 0.46842 0.120213 0 0 0.0416767 0.0846411 0.127559 0.170124 0.212474 0.254865 0.297347 0.339788 0.382061 0.424264 0.466456 0.508722 0.551149 0.593843 0.636911 0.680297 0.723884 0.767666 0.81189 0.856817 0.902766 0.950015 0.998488 1.04879 1.10345 1.12014 0.988403 0.665476 0.27016 0 0 0.0411542 0.0832478 0.12518 0.166679 0.207962 0.249334 0.291138 0.333271 0.375591 0.418076 0.460749 0.503625 0.54673 0.590091 0.633788 0.677856 0.722196 0.766826 0.811956 0.857836 0.904847 0.952979 1.00235 1.05473 1.11074 1.15058 1.09794 0.855781 0.436552 0 0 0.0403998 0.0815136 0.122288 0.162864 0.203357 0.244217 0.285655 0.327678 0.37012 0.412909 0.456012 0.499423 0.543141 0.587152 0.63148 0.676166 0.721195 0.766628 0.812575 0.859509 0.907507 0.956504 1.0078 1.06265 1.11615 1.16631 1.19188 1.02067 0.608747 0 0 0.0396562 0.0796145 0.119624 0.159317 0.199379 0.239843 0.281111 0.323118 0.365706 0.408778 0.452278 0.496168 0.540417 0.585008 0.629942 0.675241 0.720933 0.767049 0.814015 0.861987 0.910876 0.961629 1.01581 1.06948 1.12184 1.19754 1.25674 1.13616 0.765259 0 0 0.039223 0.0791446 0.118057 0.157707 0.197014 0.237143 0.277954 0.319812 0.362516 0.405879 0.449733 0.494027 0.538741 0.583841 0.629304 0.675119 0.721385 0.768465 0.816493 0.865412 0.915983 0.969646 1.02351 1.07496 1.13882 1.24995 1.27955 1.18131 0.865548 0 0 0.0408334 0.0803709 0.122608 0.162673 0.20455 0.244502 0.284246 0.322857 0.363193 0.405413 0.448826 0.493214 0.53822 0.583642 0.629463 0.675855 0.723072 0.771195 0.820234 0.870862 0.924215 0.977928 1.02922 1.08878 1.18836 1.27035 1.26268 1.14967 0.843665 0 0 0.0402835 0.0847872 0.127562 0.176842 0.222604 0.268072 0.308474 0.345404 0.381464 0.41769 0.454216 0.495183 0.539095 0.584447 0.630869 0.678182 0.72639 0.7756 0.826418 0.879573 0.932796 0.984092 1.04233 1.13477 1.22465 1.24355 1.18936 0.999431 0.612658 0 0 0.0366108 0.0763174 0.131969 0.187914 0.252042 0.308321 0.358097 0.398068 0.430154 0.457775 0.484555 0.515949 0.550925 0.58998 0.635104 0.68262 0.731833 0.782856 0.835752 0.888228 0.93961 0.998459 1.08791 1.1757 1.2036 1.16726 1.02043 0.686596 0.265136 0 0 0.0158365 0.052798 0.107571 0.189198 0.270814 0.352909 0.420936 0.473108 0.510084 0.535396 0.554556 0.572789 0.593125 0.619826 0.654906 0.694543 0.741999 0.793292 0.84461 0.896053 0.957259 1.04642 1.12703 1.15722 1.12901 1.00384 0.708409 0.301385 0.0646008 0 0 -0.0212045 -0.0100616 0.0599714 0.15892 0.266259 0.366068 0.455788 0.530396 0.586737 0.625356 0.649532 0.664781 0.677263 0.691514 0.710186 0.735327 0.770364 0.809007 0.856505 0.920416 1.00801 1.07862 1.10704 1.0812 0.966301 0.697181 0.315725 0.0759619 0.00724359 0 0 -0.0961934 -0.0879406 0.0150575 0.133533 0.246029 0.353836 0.45023 0.532403 0.603451 0.663774 0.710998 0.745403 0.769031 0.786103 0.79981 0.814516 0.832633 0.857579 0.902636 0.972784 1.03709 1.05731 1.02834 0.913566 0.658216 0.305549 0.0790405 0.00863247 0.000296982 0 0 -0.186751 -0.11649 0.0184473 0.110897 0.228017 0.327126 0.416144 0.497397 0.573184 0.643547 0.705708 0.757617 0.802584 0.839978 0.872826 0.902069 0.93092 0.964691 1.0068 1.04234 1.04299 0.998044 0.86463 0.602605 0.274901 0.0728592 0.0085391 0.000339714 2.8894e-06 0 0 -0.202673 -0.0216728 -0.0174997 0.102732 0.188664 0.270922 0.349801 0.427831 0.508007 0.591872 0.679126 0.767716 0.856868 0.936862 0.997687 1.05087 1.10642 1.1589 1.19608 1.19489 1.11901 0.915873 0.581697 0.242197 0.0605697 0.00703719 0.000295076 2.88578e-06 1.06743e-08 0 0 0 0 0 0 0 0 0 0 0 0 0 0 0 0 0 0 0 0 0 0 0 0 0 0 0 0 0 0 0 0
				</DataArray>
				<DataArray Name="VitesseY" type="Float32" format="ascii">
 0 0 0 0 0 0 0 0 0 0 0 0 0 0 0 0 0 0 0 0 0 0 0 0 0 0 0 0 0 0 0 -0.0490673 0.134314 0.135466 0.1015 0.0497502 0.012533 0.0039061 0.00817394 0.0150931 0.0230886 0.0299833 0.0348163 0.0382003 0.0404379 0.0416062 0.0419396 0.0419189 0.0416795 0.04115 0.0404056 0.0397481 0.0418435 0.0485351 0.0608443 0.0753411 0.0810406 0.0769253 0.0673333 0.0562764 0.0443605 0 -0.141112 0.119682 0.205953 0.177157 0.12031 0.0656256 0.0484512 0.0491431 0.053616 0.0611715 0.0703348 0.0767788 0.0813114 0.0841588 0.0854918 0.0857568 0.0854917 0.0846418 0.0832522 0.0814858 0.0798836 0.0831941 0.0951498 0.118097 0.146447 0.159447 0.153058 0.135746 0.114977 0.0896261 0 -0.152587 0.0881229 0.252946 0.241487 0.199198 0.142949 0.108028 0.101665 0.104666 0.110939 0.118799 0.124093 0.127502 0.12955 0.130296 0.130137 0.12925 0.127563 0.125173 0.122305 0.119719 0.123151 0.138455 0.169644 0.210562 0.233807 0.227831 0.205447 0.176093 0.137793 0 -0.122619 0.0715881 0.257934 0.269298 0.241441 0.194322 0.15898 0.154646 0.158144 0.162933 0.169393 0.173365 0.175488 0.176243 0.176008 0.174913 0.172921 0.170125 0.166682 0.162846 0.159457 0.161775 0.178448 0.215116 0.266623 0.30295 0.301395 0.276428 0.239635 0.189054 0 -0.0519767 0.0978878 0.256385 0.284557 0.278065 0.25091 0.21604 0.2045 0.205142 0.209887 0.216504 0.221573 0.22363 0.223783 0.222644 0.220107 0.216595 0.212475 0.207959 0.203363 0.199399 0.199516 0.215786 0.255052 0.314288 0.36565 0.372988 0.348114 0.305323 0.243707 0 0.04404 0.160133 0.28539 0.310485 0.302689 0.286257 0.261713 0.25059 0.250533 0.254072 0.260592 0.266831 0.269761 0.270165 0.268794 0.26531 0.260377 0.254865 0.249334 0.244215 0.239884 0.238418 0.252505 0.29036 0.353874 0.42002 0.440955 0.419326 0.37283 0.302425 0 0.131049 0.211086 0.303835 0.331318 0.331648 0.321977 0.301888 0.28963 0.289626 0.293892 0.301294 0.309059 0.313065 0.314045 0.312945 0.309404 0.303852 0.297347 0.291137 0.285656 0.281136 0.278618 0.28896 0.322382 0.386365 0.464243 0.503282 0.488568 0.44159 0.366095 0 0.216454 0.272894 0.337427 0.359865 0.361584 0.355241 0.342456 0.331903 0.331489 0.334293 0.340667 0.348931 0.354148 0.355774 0.355139 0.352017 0.346545 0.339787 0.33327 0.327679 0.323138 0.320068 0.32534 0.352709 0.413477 0.49775 0.557426 0.553594 0.510517 0.435567 0 0.285433 0.327404 0.370635 0.388808 0.396571 0.393 0.384622 0.374637 0.373026 0.374974 0.380437 0.388203 0.393849 0.396122 0.395967 0.393564 0.388588 0.38206 0.37559 0.37012 0.365715 0.362587 0.363872 0.384423 0.437547 0.522265 0.600735 0.614553 0.579611 0.511355 0 0.346102 0.379039 0.406156 0.41866 0.428647 0.42902 0.42473 0.417817 0.415535 0.41681 0.421228 0.427929 0.433337 0.435903 0.436145 0.434447 0.430234 0.424262 0.418075 0.412908 0.408781 0.405897 0.405644 0.418854 0.4609 0.54073 0.63196 0.669085 0.646457 0.593211 0 0.399703 0.4255 0.442499 0.451574 0.461593 0.465975 0.464167 0.460624 0.458749 0.459733 0.463227 0.468685 0.473469 0.475946 0.476402 0.475203 0.471724 0.466455 0.460748 0.456011 0.452278 0.449739 0.448883 0.454572 0.485584 0.556682 0.652326 0.71337 0.706972 0.67965 0 0.448593 0.468638 0.479272 0.486182 0.494743 0.501365 0.50253 0.501886 0.501825 0.503098 0.506149 0.510553 0.514534 0.516721 0.517178 0.516231 0.513313 0.50872 0.503623 0.499422 0.496167 0.494028 0.493221 0.495229 0.516208 0.573456 0.66584 0.746378 0.758147 0.767928 0 0.494233 0.509579 0.516746 0.522368 0.529256 0.53648 0.54032 0.54226 0.544082 0.546344 0.549352 0.553068 0.55631 0.558153 0.558534 0.557707 0.555161 0.551147 0.546729 0.54314 0.540416 0.53874 0.538219 0.5391 0.550984 0.593291 0.677599 0.769401 0.802799 0.856958 0 0.537793 0.549341 0.554786 0.559535 0.565106 0.571874 0.577899 0.582196 0.585885 0.589181 0.59253 0.595788 0.59847 0.6 0.600317 0.599601 0.597369 0.593841 0.59009 0.587152 0.585008 0.583839 0.583641 0.584445 0.589983 0.619854 0.691582 0.786222 0.840056 0.936894 0 0.580449 0.588774 0.593288 0.597489 0.602321 0.608536 0.615639 0.622026 0.627194 0.631632 0.635356 0.638518 0.640818 0.642117 0.642388 0.641799 0.639921 0.636909 0.633786 0.631479 0.629941 0.629304 0.629462 0.630867 0.635102 0.654907 0.710195 0.799839 0.87285 0.997696 0 0.622937 0.628326 0.632276 0.636314 0.641035 0.646975 0.654303 0.661995 0.668288 0.673497 0.677728 0.680963 0.683213 0.684371 0.684622 0.684181 0.682711 0.680295 0.677855 0.676165 0.67524 0.675118 0.675854 0.678181 0.682619 0.694541 0.735327 0.814517 0.902075 1.05087 0 0.665603 0.66841 0.672013 0.676266 0.681251 0.687226 0.694487 0.70257 0.709471 0.715102 0.719652 0.723105 0.725441 0.72666 0.726948 0.726667 0.725628 0.723882 0.722195 0.721195 0.720933 0.721384 0.723072 0.726389 0.731832 0.741998 0.770363 0.832631 0.930919 1.10642 0 0.708705 0.709447 0.712854 0.717529 0.722939 0.729055 0.736116 0.743997 0.751007 0.756781 0.761454 0.765026 0.767495 0.768887 0.769369 0.769273 0.768703 0.767665 0.766826 0.766628 0.767049 0.768465 0.771194 0.775599 0.782855 0.793291 0.809006 0.857578 0.964689 1.1589 0 0.752612 0.751672 0.755137 0.760238 0.765974 0.772116 0.778819 0.786215 0.793034 0.798721 0.803371 0.806987 0.809569 0.811154 0.811927 0.812176 0.812102 0.81189 0.811956 0.812575 0.814015 0.816493 0.820233 0.826418 0.835751 0.844609 0.856504 0.902636 1.00679 1.19608 0 0.797295 0.795117 0.798789 0.804232 0.810148 0.816119 0.822386 0.829131 0.835567 0.841025 0.845568 0.849194 0.851887 0.853694 0.854835 0.855571 0.856156 0.856818 0.857836 0.859509 0.861988 0.865412 0.870862 0.879573 0.888228 0.896053 0.920415 0.972783 1.04234 1.19489 0 0.834472 0.831448 0.836784 0.844117 0.85179 0.859199 0.865757 0.872242 0.878366 0.883672 0.88817 0.891848 0.894695 0.896798 0.898412 0.899786 0.90116 0.902766 0.904848 0.907507 0.910876 0.915983 0.924214 0.932796 0.939609 0.957258 1.00801 1.03709 1.04299 1.11901 0 0.783901 0.782649 0.791832 0.806805 0.826239 0.848668 0.873761 0.896863 0.91455 0.924897 0.930619 0.934852 0.938196 0.940814 0.943047 0.94518 0.947436 0.950016 0.95298 0.956505 0.961629 0.969646 0.977928 0.984091 0.998458 1.04642 1.07862 1.05731 0.99804 0.915867 0 0.611334 0.608532 0.621483 0.64121 0.670376 0.710821 0.758531 0.811927 0.865549 0.914457 0.95233 0.973617 0.981832 0.985654 0.988964 0.992038 0.995163 0.998489 1.00235 1.0078 1.01581 1.02351 1.02922 1.04233 1.08791 1.12702 1.10704 1.02834 0.864625 0.581691 0 0.264202 0.263149 0.268879 0.287961 0.324749 0.383502 0.466899 0.565195 0.671064 0.77219 0.859914 0.932247 0.987924 1.02201 1.03585 1.04016 1.04425 1.04879 1.05473 1.06265 1.06949 1.07496 1.08878 1.13477 1.1757 1.15722 1.0812 0.913563 0.602602 0.242195 0 -0.180712 -0.19428 -0.201892 -0.204405 -0.178603 -0.115144 -0.0161993 0.11744 0.27297 0.437229 0.597285 0.741431 0.860689 0.953376 1.02343 1.0712 1.09422 1.10345 1.11074 1.11615 1.12184 1.13882 1.18836 1.22465 1.2036 1.12901 0.966298 0.658213 0.274899 0.0605688 0 -0.520816 -0.535903 -0.573432 -0.602014 -0.595076 -0.557942 -0.483347 -0.371839 -0.22353 -0.0447382 0.152883 0.353844 0.544393 0.716547 0.861438 0.974403 1.05973 1.12014 1.15058 1.16631 1.19754 1.24995 1.27035 1.24354 1.16726 1.00384 0.697179 0.305548 0.0728586 0.00703708 0 -0.612439 -0.633173 -0.704054 -0.742912 -0.747633 -0.733191 -0.695972 -0.631869 -0.54287 -0.427132 -0.280739 -0.103165 0.0968453 0.302667 0.502334 0.689415 0.854148 0.988401 1.09794 1.19188 1.25674 1.27955 1.26268 1.18936 1.02043 0.708409 0.315725 0.0790404 0.00853906 0.000295071 0 -0.421365 -0.494649 -0.641469 -0.624684 -0.637597 -0.648803 -0.643268 -0.62472 -0.589758 -0.535355 -0.459028 -0.359422 -0.236349 -0.0869631 0.0859627 0.272874 0.468418 0.665473 0.855778 1.02066 1.13615 1.18131 1.14967 0.999432 0.686598 0.301386 0.0759624 0.0086325 0.000339714 2.88575e-06 0 0.239759 -0.250665 -0.332885 -0.274464 -0.330964 -0.319027 -0.328905 -0.337033 -0.344658 -0.350281 -0.348895 -0.332609 -0.292215 -0.223752 -0.12774 -0.0109613 0.12021 0.270156 0.436549 0.608744 0.765256 0.865547 0.843666 0.612661 0.265139 0.0646016 0.0072437 0.000296986 2.88943e-06 1.06743e-08 0 4.55644 0 0 0 0 0 0 0 0 0 0 0 0 0 0 0 0 0 0 0 0 0 0 0 0 0 0 0 0 0 0
				</DataArray>
			</PointData>
			<CellData Scalars="Density">
				<DataArray Name="Density" type="Float32" format="ascii">