<?xml version="1.0"?>
<VTKFile type="PolyData">
	<PolyData>
		<Piece NumberOfPoints="961" NumberOfPolys="900">
			<Points>
				<DataArray type="Float32" NumberOfComponents="3" format="ascii">
 0 0 0 0.04 0 0 0.08 0 0 0.12 0 0 0.16 0 0 0.2 0 0 0.24 0 0 0.28 0 0 0.32 0 0 0.36 0 0 0.4 0 0 0.44 0 0 0.48 0 0 0.52 0 0 0.56 0 0 0.6 0 0 0.64 0 0 0.68 0 0 0.72 0 0 0.76 0 0 0.8 0 0 0.84 0 0 0.88 0 0 0.92 0 0 0.96 0 0 1 0 0 1.04 0 0 1.08 0 0 1.12 0 0 1.16 0 0 1.2 0 0 0 0.04 0 0.04 0.04 0 0.08 0.04 0 0.12 0.04 0 0.16 0.04 0 0.2 0.04 0 0.24 0.04 0 0.28 0.04 0 0.32 0.04 0 0.36 0.04 0 0.4 0.04 0 0.44 0.04 0 0.48 0.04 0 0.52 0.04 0 0.56 0.04 0 0.6 0.04 0 0.64 0.04 0 0.68 0.04 0 0.72 0.04 0 0.76 0.04 0 0.8 0.04 0 0.84 0.04 0 0.88 0.04 0 0.92 0.04 0 0.96 0.04 0 1 0.04 0 1.04 0.04 0 1.08 0.04 0 1.12 0.04 0 1.16 0.04 0 1.2 0.04 0 0 0.08 0 0.04 0.08 0 0.08 0.08 0 0.12 0.08 0 0.16 0.08 0 0.2 0.08 0 0.24 0.08 0 0.28 0.08 0 0.32 0.08 0 0.36 0.08 0 0.4 0.08 0 0.44 0.08 0 0.48 0.08 0 0.52 0.08 0 0.56 0.08 0 0.6 0.08 0 0.64 0.08 0 0.68 0.08 0 0.72 0.08 0 0.76 0.08 0 0.8 0.08 0 0.84 0.08 0 0.88 0.08 0 0.92 0.08 0 0.96 0.08 0 1 0.08 0 1.04 0.08 0 1.08 0.08 0 1.12 0.08 0 1.16 0.08 0 1.2 0.08 0 0 0.12 0 0.04 0.12 0 0.08 0.12 0 0.12 0.12 0 0.16 0.12 0 0.2 0.12 0 0.24 0.12 0 0.28 0.12 0 0.32 0.12 0 0.36 0.12 0 0.4 0.12 0 0.44 0.12 0 0.48 0.12 0 0.52 0.12 0 0.56 0.12 0 0.6 0.12 0 0.64 0.12 0 0.68 0.12 0 0.72 0.12 0 0.76 0.12 0 0.8 0.12 0 0.84 0.12 0 0.88 0.12 0 0.92 0.12 0 0.96 0.12 0 1 0.12 0 1.04 0.12 0 1.08 0.12 0 1.12 0.12 0 1.16 0.12 0 1.2 0.12 0 0 0.16 0 0.04 0.16 0 0.08 0.16 0 0.12 0.16 0 0.16 0.16 0 0.2 0.16 0 0.24 0.16 0 0.28 0.16 0 0.32 0.16 0 0.36 0.16 0 0.4 0.16 0 0.44 0.16 0 0.48 0.16 0 0.52 0.16 0 0.56 0.16 0 0.6 0.16 0 0.64 0.16 0 0.68 0.16 0 0.72 0.16 0 0.76 0.16 0 0.8 0.16 0 0.84 0.16 0 0.88 0.16 0 0.92 0.16 0 0.96 0.16 0 1 0.16 0 1.04 0.16 0 1.08 0.16 0 1.12 0.16 0 1.16 0.16 0 1.2 0.16 0 0 0.2 0 0.04 0.2 0 0.08 0.2 0 0.12 0.2 0 0.16 0.2 0 0.2 0.2 0 0.24 0.2 0 0.28 0.2 0 0.32 0.2 0 0.36 0.2 0 0.4 0.2 0 0.44 0.2 0 0.48 0.2 0 0.52 0.2 0 0.56 0.2 0 0.6 0.2 0 0.64 0.2 0 0.68 0.2 0 0.72 0.2 0 0.76 0.2 0 0.8 0.2 0 0.84 0.2 0 0.88 0.2 0 0.92 0.2 0 0.96 0.2 0 1 0.2 0 1.04 0.2 0 1.08 0.2 0 1.12 0.2 0 1.16 0.2 0 1.2 0.2 0 0 0.24 0 0.04 0.24 0 0.08 0.24 0 0.12 0.24 0 0.16 0.24 0 0.2 0.24 0 0.24 0.24 0 0.28 0.24 0 0.32 0.24 0 0.36 0.24 0 0.4 0.24 0 0.44 0.24 0 0.48 0.24 0 0.52 0.24 0 0.56 0.24 0 0.6 0.24 0 0.64 0.24 0 0.68 0.24 0 0.72 0.24 0 0.76 0.24 0 0.8 0.24 0 0.84 0.24 0 0.88 0.24 0 0.92 0.24 0 0.96 0.24 0 1 0.24 0 1.04 0.24 0 1.08 0.24 0 1.12 0.24 0 1.16 0.24 0 1.2 0.24 0 0 0.28 0 0.04 0.28 0 0.08 0.28 0 0.12 0.28 0 0.16 0.28 0 0.2 0.28 0 0.24 0.28 0 0.28 0.28 0 0.32 0.28 0 0.36 0.28 0 0.4 0.28 0 0.44 0.28 0 0.48 0.28 0 0.52 0.28 0 0.56 0.28 0 0.6 0.28 0 0.64 0.28 0 0.68 0.28 0 0.72 0.28 0 0.76 0.28 0 0.8 0.28 0 0.84 0.28 0 0.88 0.28 0 0.92 0.28 0 0.96 0.28 0 1 0.28 0 1.04 0.28 0 1.08 0.28 0 1.12 0.28 0 1.16 0.28 0 1.2 0.28 0 0 0.32 0 0.04 0.32 0 0.08 0.32 0 0.12 0.32 0 0.16 0.32 0 0.2 0.32 0 0.24 0.32 0 0.28 0.32 0 0.32 0.32 0 0.36 0.32 0 0.4 0.32 0 0.44 0.32 0 0.48 0.32 0 0.52 0.32 0 0.56 0.32 0 0.6 0.32 0 0.64 0.32 0 0.68 0.32 0 0.72 0.32 0 0.76 0.32 0 0.8 0.32 0 0.84 0.32 0 0.88 0.32 0 0.92 0.32 0 0.96 0.32 0 1 0.32 0 1.04 0.32 0 1.08 0.32 0 1.12 0.32 0 1.16 0.32 0 1.2 0.32 0 0 0.36 0 0.04 0.36 0 0.08 0.36 0 0.12 0.36 0 0.16 0.36 0 0.2 0.36 0 0.24 0.36 0 0.28 0.36 0 0.32 0.36 0 0.36 0.36 0 0.4 0.36 0 0.44 0.36 0 0.48 0.36 0 0.52 0.36 0 0.56 0.36 0 0.6 0.36 0 0.64 0.36 0 0.68 0.36 0 0.72 0.36 0 0.76 0.36 0 0.8 0.36 0 0.84 0.36 0 0.88 0.36 0 0.92 0.36 0 0.96 0.36 0 1 0.36 0 1.04 0.36 0 1.08 0.36 0 1.12 0.36 0 1.16 0.36 0 1.2 0.36 0 0 0.4 0 0.04 0.4 0 0.08 0.4 0 0.12 0.4 0 0.16 0.4 0 0.2 0.4 0 0.24 0.4 0 0.28 0.4 0 0.32 0.4 0 0.36 0.4 0 0.4 0.4 0 0.44 0.4 0 0.48 0.4 0 0.52 0.4 0 0.56 0.4 0 0.6 0.4 0 0.64 0.4 0 0.68 0.4 0 0.72 0.4 0 0.76 0.4 0 0.8 0.4 0 0.84 0.4 0 0.88 0.4 0 0.92 0.4 0 0.96 0.4 0 1 0.4 0 1.04 0.4 0 1.08 0.4 0 1.12 0.4 0 1.16 0.4 0 1.2 0.4 0 0 0.44 0 0.04 0.44 0 0.08 0.44 0 0.12 0.44 0 0.16 0.44 0 0.2 0.44 0 0.24 0.44 0 0.28 0.44 0 0.32 0.44 0 0.36 0.44 0 0.4 0.44 0 0.44 0.44 0 0.48 0.44 0 0.52 0.44 0 0.56 0.44 0 0.6 0.44 0 0.64 0.44 0 0.68 0.44 0 0.72 0.44 0 0.76 0.44 0 0.8 0.44 0 0.84 0.44 0 0.88 0.44 0 0.92 0.44 0 0.96 0.44 0 1 0.44 0 1.04 0.44 0 1.08 0.44 0 1.12 0.44 0 1.16 0.44 0 1.2 0.44 0 0 0.48 0 0.04 0.48 0 0.08 0.48 0 0.12 0.48 0 0.16 0.48 0 0.2 0.48 0 0.24 0.48 0 0.28 0.48 0 0.32 0.48 0 0.36 0.48 0 0.4 0.48 0 0.44 0.48 0 0.48 0.48 0 0.52 0.48 0 0.56 0.48 0 0.6 0.48 0 0.64 0.48 0 0.68 0.48 0 0.72 0.48 0 0.76 0.48 0 0.8 0.48 0 0.84 0.48 0 0.88 0.48 0 0.92 0.48 0 0.96 0.48 0 1 0.48 0 1.04 0.48 0 1.08 0.48 0 1.12 0.48 0 1.16 0.48 0 1.2 0.48 0 0 0.52 0 0.04 0.52 0 0.08 0.52 0 0.12 0.52 0 0.16 0.52 0 0.2 0.52 0 0.24 0.52 0 0.28 0.52 0 0.32 0.52 0 0.36 0.52 0 0.4 0.52 0 0.44 0.52 0 0.48 0.52 0 0.52 0.52 0 0.56 0.52 0 0.6 0.52 0 0.64 0.52 0 0.68 0.52 0 0.72 0.52 0 0.76 0.52 0 0.8 0.52 0 0.84 0.52 0 0.88 0.52 0 0.92 0.52 0 0.96 0.52 0 1 0.52 0 1.04 0.52 0 1.08 0.52 0 1.12 0.52 0 1.16 0.52 0 1.2 0.52 0 0 0.56 0 0.04 0.56 0 0.08 0.56 0 0.12 0.56 0 0.16 0.56 0 0.2 0.56 0 0.24 0.56 0 0.28 0.56 0 0.32 0.56 0 0.36 0.56 0 0.4 0.56 0 0.44 0.56 0 0.48 0.56 0 0.52 0.56 0 0.56 0.56 0 0.6 0.56 0 0.64 0.56 0 0.68 0.56 0 0.72 0.56 0 0.76 0.56 0 0.8 0.56 0 0.84 0.56 0 0.88 0.56 0 0.92 0.56 0 0.96 0.56 0 1 0.56 0 1.04 0.56 0 1.08 0.56 0 1.12 0.56 0 1.16 0.56 0 1.2 0.56 0 0 0.6 0 0.04 0.6 0 0.08 0.6 0 0.12 0.6 0 0.16 0.6 0 0.2 0.6 0 0.24 0.6 0 0.28 0.6 0 0.32 0.6 0 0.36 0.6 0 0.4 0.6 0 0.44 0.6 0 0.48 0.6 0 0.52 0.6 0 0.56 0.6 0 0.6 0.6 0 0.64 0.6 0 0.68 0.6 0 0.72 0.6 0 0.76 0.6 0 0.8 0.6 0 0.84 0.6 0 0.88 0.6 0 0.92 0.6 0 0.96 0.6 0 1 0.6 0 1.04 0.6 0 1.08 0.6 0 1.12 0.6 0 1.16 0.6 0 1.2 0.6 0 0 0.64 0 0.04 0.64 0 0.08 0.64 0 0.12 0.64 0 0.16 0.64 0 0.2 0.64 0 0.24 0.64 0 0.28 0.64 0 0.32 0.64 0 0.36 0.64 0 0.4 0.64 0 0.44 0.64 0 0.48 0.64 0 0.52 0.64 0 0.56 0.64 0 0.6 0.64 0 0.64 0.64 0 0.68 0.64 0 0.72 0.64 0 0.76 0.64 0 0.8 0.64 0 0.84 0.64 0 0.88 0.64 0 0.92 0.64 0 0.96 0.64 0 1 0.64 0 1.04 0.64 0 1.08 0.64 0 1.12 0.64 0 1.16 0.64 0 1.2 0.64 0 0 0.68 0 0.04 0.68 0 0.08 0.68 0 0.12 0.68 0 0.16 0.68 0 0.2 0.68 0 0.24 0.68 0 0.28 0.68 0 0.32 0.68 0 0.36 0.68 0 0.4 0.68 0 0.44 0.68 0 0.48 0.68 0 0.52 0.68 0 0.56 0.68 0 0.6 0.68 0 0.64 0.68 0 0.68 0.68 0 0.72 0.68 0 0.76 0.68 0 0.8 0.68 0 0.84 0.68 0 0.88 0.68 0 0.92 0.68 0 0.96 0.68 0 1 0.68 0 1.04 0.68 0 1.08 0.68 0 1.12 0.68 0 1.16 0.68 0 1.2 0.68 0 0 0.72 0 0.04 0.72 0 0.08 0.72 0 0.12 0.72 0 0.16 0.72 0 0.2 0.72 0 0.24 0.72 0 0.28 0.72 0 0.32 0.72 0 0.36 0.72 0 0.4 0.72 0 0.44 0.72 0 0.48 0.72 0 0.52 0.72 0 0.56 0.72 0 0.6 0.72 0 0.64 0.72 0 0.68 0.72 0 0.72 0.72 0 0.76 0.72 0 0.8 0.72 0 0.84 0.72 0 0.88 0.72 0 0.92 0.72 0 0.96 0.72 0 1 0.72 0 1.04 0.72 0 1.08 0.72 0 1.12 0.72 0 1.16 0.72 0 1.2 0.72 0 0 0.76 0 0.04 0.76 0 0.08 0.76 0 0.12 0.76 0 0.16 0.76 0 0.2 0.76 0 0.24 0.76 0 0.28 0.76 0 0.32 0.76 0 0.36 0.76 0 0.4 0.76 0 0.44 0.76 0 0.48 0.76 0 0.52 0.76 0 0.56 0.76 0 0.6 0.76 0 0.64 0.76 0 0.68 0.76 0 0.72 0.76 0 0.76 0.76 0 0.8 0.76 0 0.84 0.76 0 0.88 0.76 0 0.92 0.76 0 0.96 0.76 0 1 0.76 0 1.04 0.76 0 1.08 0.76 0 1.12 0.76 0 1.16 0.76 0 1.2 0.76 0 0 0.8 0 0.04 0.8 0 0.08 0.8 0 0.12 0.8 0 0.16 0.8 0 0.2 0.8 0 0.24 0.8 0 0.28 0.8 0 0.32 0.8 0 0.36 0.8 0 0.4 0.8 0 0.44 0.8 0 0.48 0.8 0 0.52 0.8 0 0.56 0.8 0 0.6 0.8 0 0.64 0.8 0 0.68 0.8 0 0.72 0.8 0 0.76 0.8 0 0.8 0.8 0 0.84 0.8 0 0.88 0.8 0 0.92 0.8 0 0.96 0.8 0 1 0.8 0 1.04 0.8 0 1.08 0.8 0 1.12 0.8 0 1.16 0.8 0 1.2 0.8 0 0 0.84 0 0.04 0.84 0 0.08 0.84 0 0.12 0.84 0 0.16 0.84 0 0.2 0.84 0 0.24 0.84 0 0.28 0.84 0 0.32 0.84 0 0.36 0.84 0 0.4 0.84 0 0.44 0.84 0 0.48 0.84 0 0.52 0.84 0 0.56 0.84 0 0.6 0.84 0 0.64 0.84 0 0.68 0.84 0 0.72 0.84 0 0.76 0.84 0 0.8 0.84 0 0.84 0.84 0 0.88 0.84 0 0.92 0.84 0 0.96 0.84 0 1 0.84 0 1.04 0.84 0 1.08 0.84 0 1.12 0.84 0 1.16 0.84 0 1.2 0.84 0 0 0.88 0 0.04 0.88 0 0.08 0.88 0 0.12 0.88 0 0.16 0.88 0 0.2 0.88 0 0.24 0.88 0 0.28 0.88 0 0.32 0.88 0 0.36 0.88 0 0.4 0.88 0 0.44 0.88 0 0.48 0.88 0 0.52 0.88 0 0.56 0.88 0 0.6 0.88 0 0.64 0.88 0 0.68 0.88 0 0.72 0.88 0 0.76 0.88 0 0.8 0.88 0 0.84 0.88 0 0.88 0.88 0 0.92 0.88 0 0.96 0.88 0 1 0.88 0 1.04 0.88 0 1.08 0.88 0 1.12 0.88 0 1.16 0.88 0 1.2 0.88 0 0 0.92 0 0.04 0.92 0 0.08 0.92 0 0.12 0.92 0 0.16 0.92 0 0.2 0.92 0 0.24 0.92 0 0.28 0.92 0 0.32 0.92 0 0.36 0.92 0 0.4 0.92 0 0.44 0.92 0 0.48 0.92 0 0.52 0.92 0 0.56 0.92 0 0.6 0.92 0 0.64 0.92 0 0.68 0.92 0 0.72 0.92 0 0.76 0.92 0 0.8 0.92 0 0.84 0.92 0 0.88 0.92 0 0.92 0.92 0 0.96 0.92 0 1 0.92 0 1.04 0.92 0 1.08 0.92 0 1.12 0.92 0 1.16 0.92 0 1.2 0.92 0 0 0.96 0 0.04 0.96 0 0.08 0.96 0 0.12 0.96 0 0.16 0.96 0 0.2 0.96 0 0.24 0.96 0 0.28 0.96 0 0.32 0.96 0 0.36 0.96 0 0.4 0.96 0 0.44 0.96 0 0.48 0.96 0 0.52 0.96 0 0.56 0.96 0 0.6 0.96 0 0.64 0.96 0 0.68 0.96 0 0.72 0.96 0 0.76 0.96 0 0.8 0.96 0 0.84 0.96 0 0.88 0.96 0 0.92 0.96 0 0.96 0.96 0 1 0.96 0 1.04 0.96 0 1.08 0.96 0 1.12 0.96 0 1.16 0.96 0 1.2 0.96 0 0 1 0 0.04 1 0 0.08 1 0 0.12 1 0 0.16 1 0 0.2 1 0 0.24 1 0 0.28 1 0 0.32 1 0 0.36 1 0 0.4 1 0 0.44 1 0 0.48 1 0 0.52 1 0 0.56 1 0 0.6 1 0 0.64 1 0 0.68 1 0 0.72 1 0 0.76 1 0 0.8 1 0 0.84 1 0 0.88 1 0 0.92 1 0 0.96 1 0 1 1 0 1.04 1 0 1.08 1 0 1.12 1 0 1.16 1 0 1.2 1 0 0 1.04 0 0.04 1.04 0 0.08 1.04 0 0.12 1.04 0 0.16 1.04 0 0.2 1.04 0 0.24 1.04 0 0.28 1.04 0 0.32 1.04 0 0.36 1.04 0 0.4 1.04 0 0.44 1.04 0 0.48 1.04 0 0.52 1.04 0 0.56 1.04 0 0.6 1.04 0 0.64 1.04 0 0.68 1.04 0 0.72 1.04 0 0.76 1.04 0 0.8 1.04 0 0.84 1.04 0 0.88 1.04 0 0.92 1.04 0 0.96 1.04 0 1 1.04 0 1.04 1.04 0 1.08 1.04 0 1.12 1.04 0 1.16 1.04 0 1.2 1.04 0 0 1.08 0 0.04 1.08 0 0.08 1.08 0 0.12 1.08 0 0.16 1.08 0 0.2 1.08 0 0.24 1.08 0 0.28 1.08 0 0.32 1.08 0 0.36 1.08 0 0.4 1.08 0 0.44 1.08 0 0.48 1.08 0 0.52 1.08 0 0.56 1.08 0 0.6 1.08 0 0.64 1.08 0 0.68 1.08 0 0.72 1.08 0 0.76 1.08 0 0.8 1.08 0 0.84 1.08 0 0.88 1.08 0 0.92 1.08 0 0.96 1.08 0 1 1.08 0 1.04 1.08 0 1.08 1.08 0 1.12 1.08 0 1.16 1.08 0 1.2 1.08 0 0 1.12 0 
[...]
			<PointData Scalars="VitesseX">
				<DataArray Name="VitesseX" type="Float32" format="ascii">
 0 -0.091353 -0.156086 -0.0950159 0.0339683 0.186638 0.278221 0.286131 0.237188 0.162757 0.0782074 -0.043243 -0.371056 -1.04701 -1.72389 -2.06978 -2.11688 -1.93658 -1.76995 -1.61306 -1.46227 -1.31599 -1.17205 -1.02886 -0.885743 -0.742146 -0.598588 -0.45528 -0.310857 -0.157691 0 0 0.0335612 -0.00262582 0.00176043 0.0770952 0.178445 0.245666 0.236719 0.188335 0.124986 0.0522462 -0.0628786 -0.379237 -1.03766 -1.70632 -2.05697 -2.11295 -1.93639 -1.76957 -1.61261 -1.46179 -1.31556 -1.17174 -1.02871 -0.885799 -0.742426 -0.599051 -0.455878 -0.311433 -0.157969 0 0 -0.0484598 -0.0706188 -0.0885846 -0.0844613 -0.0543494 -0.00631284 0.0313132 0.0309294 0.00797904 -0.033252 -0.127606 -0.409575 -1.0145 -1.65621 -2.01951 -2.09902 -1.93608 -1.76879 -1.6116 -1.46064 -1.31439 -1.17072 -1.02795 -0.885321 -0.742217 -0.599048 -0.456077 -0.311776 -0.158277 0 0 -0.136956 -0.231751 -0.291132 -0.317857 -0.32418 -0.287346 -0.22408 -0.17542 -0.150712 -0.157898 -0.227965 -0.461974 -0.982087 -1.57731 -1.95633 -2.068 -1.93735 -1.76874 -1.61114 -1.4598 -1.31338 -1.16982 -1.02728 -0.884913 -0.742018 -0.598956 -0.456113 -0.312084 -0.158776 0 0 -0.192126 -0.329434 -0.421218 -0.482412 -0.510466 -0.498784 -0.433575 -0.357704 -0.308716 -0.295183 -0.349949 -0.535773 -0.948339 -1.47476 -1.86302 -2.012 -1.93922 -1.77095 -1.61262 -1.46054 -1.31364 -1.1699 -1.02738 -0.885082 -0.742237 -0.599109 -0.456264 -0.312574 -0.159648 0 0 -0.208053 -0.357987 -0.467215 -0.556291 -0.617935 -0.640821 -0.610673 -0.532603 -0.463442 -0.438727 -0.482024 -0.629797 -0.923051 -1.35656 -1.738 -1.92424 -1.93263 -1.77521 -1.61544 -1.46257 -1.31492 -1.1708 -1.02813 -0.885779 -0.742904 -0.599598 -0.45662 -0.313224 -0.160815 0 0 -0.157853 -0.308881 -0.444702 -0.55823 -0.650128 -0.716104 -0.735916 -0.701075 -0.634683 -0.596677 -0.623804 -0.736042 -0.921652 -1.23632 -1.58107 -1.81324 -1.89236 -1.78036 -1.6195 -1.46561 -1.31693 -1.17224 -1.02933 -0.886864 -0.743928 -0.600362 -0.457142 -0.313901 -0.162112 0 0 -0.0760008 -0.170221 -0.306627 -0.473688 -0.627199 -0.736166 -0.808289 -0.834789 -0.814408 -0.782074 -0.787306 -0.847945 -0.958801 -1.1261 -1.409 -1.67144 -1.80304 -1.77859 -1.62468 -1.46914 -1.31941 -1.17398 -1.03074 -0.888135 -0.745178 -0.601336 -0.457752 -0.314463 -0.163365 0 0 -0.0321426 -0.0922106 -0.202573 -0.351557 -0.534419 -0.711174 -0.837361 -0.923087 -0.966782 -0.970902 -0.967415 -0.982093 -1.01583 -1.06793 -1.23708 -1.48957 -1.67555 -1.74242 -1.62925 -1.47279 -1.32193 -1.17564 -1.03205 -0.889376 -0.746499 -0.602462 -0.458413 -0.314872 -0.16446 0 0 -0.0204578 -0.0662007 -0.158076 -0.291544 -0.451678 -0.64171 -0.831415 -0.97117 -1.07242 -1.13185 -1.13911 -1.12173 -1.09061 -1.06902 -1.09102 -1.28749 -1.51629 -1.6439 -1.62423 -1.47588 -1.32371 -1.17671 -1.03292 -0.890354 -0.74772 -0.603681 -0.459161 -0.315189 -0.165385 0 0 -0.0254501 -0.071816 -0.15345 -0.27118 -0.415619 -0.582857 -0.776123 -0.976212 -1.13089 -1.23087 -1.27159 -1.24703 -1.17674 -1.08943 -1.02524 -1.08825 -1.31069 -1.49982 -1.57821 -1.47576 -1.32436 -1.17684 -1.03304 -0.890847 -0.748693 -0.604935 -0.460064 -0.315534 -0.166149 0 0 -0.0419494 -0.0979966 -0.177475 -0.279726 -0.404964 -0.551717 -0.718438 -0.907281 -1.10371 -1.26228 -1.33582 -1.32088 -1.25235 -1.12732 -1.003 -0.940646 -1.08403 -1.31669 -1.46044 -1.46368 -1.32326 -1.17575 -1.03219 -0.890621 -0.749246 -0.60614 -0.46118 -0.316058 -0.166758 0 0 -0.0583459 -0.124694 -0.205733 -0.301512 -0.408084 -0.527507 -0.666492 -0.819948 -0.989621 -1.15542 -1.28331 -1.32892 -1.28374 -1.16459 -0.989281 -0.872299 -0.87179 -1.08318 -1.296 -1.39781 -1.31793 -1.1731 -1.02997 -0.889393 -0.749188 -0.60715 -0.462504 -0.316892 -0.167291 0 0 -0.0619475 -0.130713 -0.211147 -0.302381 -0.398719 -0.4942 -0.59802 -0.720404 -0.849436 -0.982601 -1.11636 -1.21377 -1.2068 -1.14474 -0.990985 -0.82811 -0.729444 -0.835493 -1.08181 -1.25641 -1.29268 -1.16731 -1.02604 -0.886819 -0.74825 -0.607767 -0.463947 -0.318095 -0.167841 0 0 -0.0383033 -0.0854206 -0.148709 -0.229077 -0.323528 -0.421336 -0.514089 -0.601697 -0.702088 -0.810578 -0.914225 -1.00209 -1.04415 -1.00735 -0.947734 -0.787971 -0.65545 -0.619216 -0.821318 -1.06573 -1.19998 -1.1555 -1.01989 -0.882616 -0.746082 -0.60774 -0.465315 -0.31966 -0.168545 0 0 -0.00332139 -0.0172225 -0.0490153 -0.102822 -0.17851 -0.270719 -0.368724 -0.465562 -0.552569 -0.636545 -0.726357 -0.793177 -0.839184 -0.829361 -0.781212 -0.722633 -0.587911 -0.485891 -0.5561 -0.818891 -1.03348 -1.11073 -1.01003 -0.876431 -0.742389 -0.606736 -0.466359 -0.321482 -0.169512 0 0 0.0228005 0.0360738 0.0344666 0.0117375 -0.0284696 -0.0897187 -0.17251 -0.267851 -0.366332 -0.463597 -0.546218 -0.611225 -0.652735 -0.662492 -0.61158 -0.55074 -0.493687 -0.390687 -0.352749 -0.531855 -0.814302 -0.986684 -0.989123 -0.867629 -0.736829 -0.604367 -0.466794 -0.323398 -0.170865 0 0 0.0332863 0.059732 0.0764345 0.078357 0.0743017 0.050052 0.00857526 -0.0523041 -0.139231 -0.24011 -0.340009 -0.430361 -0.487946 -0.517002 -0.494105 -0.403834 -0.320398 -0.277117 -0.210359 -0.276638 -0.532392 -0.795925 -0.917436 -0.853325 -0.729028 -0.600296 -0.466337 -0.325179 -0.172722 0 0 0.0285164 0.0586228 0.0748857 0.0968203 0.114958 0.12211 0.12657 0.108591 0.0625486 -0.00597783 -0.0983171 -0.198195 -0.287245 -0.355667 -0.374751 -0.344194 -0.220656 -0.102977 -0.0736711 -0.0850696 -0.247895 -0.54011 -0.762777 -0.81758 -0.717576 -0.594161 -0.464565 -0.326523 -0.175165 0 0 0.0224259 0.0439748 0.0575407 0.0834675 0.108415 0.139557 0.174415 0.190588 0.185987 0.160039 0.112331 0.0475668 -0.0376798 -0.126526 -0.197015 -0.234595 -0.196657 -0.0619707 0.0810729 0.0851673 -0.0154927 -0.251233 -0.538904 -0.710613 -0.697931 -0.585205 -0.461001 -0.327105 -0.178244 0 0 0.0185765 0.0272672 0.0463888 0.0675103 0.0939572 0.136771 0.182396 0.212464 0.22947 0.234997 0.235509 0.222977 0.185526 0.127692 0.0503003 -0.0264345 -0.0733573 -0.0602694 0.0837668 0.218898 0.183535 0.00897403 -0.266199 -0.520733 -0.635026 -0.570699 -0.45493 -0.326569 -0.182088 0 0 0.0133116 0.0126081 0.0389131 0.050558 0.0865479 0.138725 0.181254 0.206207 0.227571 0.250354 0.276023 0.300543 0.316763 0.315335 0.281014 0.224666 0.152083 0.0908775 0.0816148 0.202618 0.311975 0.238921 0.00410425 -0.2764 -0.483286 -0.535065 -0.443805 -0.324218 -0.186623 0 0 0.00156058 0.00566995 0.0236685 0.0360206 0.0858078 0.142014 0.177301 0.197456 0.217062 0.24245 0.276766 0.317341 0.36019 0.397264 0.418909 0.417178 0.380521 0.321083 0.253006 0.217846 0.300597 0.370144 0.260274 -0.012546 -0.269768 -0.423163 -0.42017 -0.317719 -0.191882 0 0 -0.0112046 0.00613733 0.00163079 0.0287745 0.0889542 0.140088 0.167615 0.184682 0.205136 0.233697 0.270939 0.314671 0.362973 0.413039 0.461834 0.501217 0.521607 0.511561 0.468737 0.402721 0.343008 0.378064 0.403037 0.256076 -0.0241763 -0.240757 -0.339419 -0.299253 -0.194932 0 0 -0.0200028 -0.000300717 -0.0194318 0.0270522 0.0880778 0.130553 0.152032 0.167931 0.190406 0.22268 0.263267 0.308957 0.357198 0.406847 0.457961 0.510385 0.56191 0.599564 0.611829 0.589813 0.528809 0.453481 0.435419 0.414836 0.241145 -0.018643 -0.186462 -0.236556 -0.185967 0 0 -0.0226946 -0.0207258 -0.0347917 0.0214821 0.0794414 0.114663 0.131724 0.147394 0.172044 0.207158 0.249867 0.296462 0.344547 0.393174 0.442517 0.493015 0.545844 0.600247 0.654437 0.680496 0.684608 0.626171 0.540748 0.473664 0.410741 0.227679 0.0129403 -0.11014 -0.142492 0 0 -0.0313776 -0.0461427 -0.0470941 0.0120007 0.064018 0.0934401 0.106612 0.122319 0.14853 0.185345 0.228738 0.274891 0.321816 0.369062 0.41679 0.465469 0.515723 0.56842 0.623891 0.682015 0.725496 0.748364 0.692917 0.600305 0.493349 0.395806 0.218014 0.0686535 -0.0488107 0 0 -0.0534672 -0.071472 -0.056745 -0.00141662 0.0387045 0.0628156 0.0727504 0.0885024 0.116163 0.153828 0.19666 0.241294 0.2863 0.331457 0.377067 0.423651 0.47182 0.522243 0.575518 0.632268 0.691824 0.74631 0.782613 0.729222 0.625665 0.484933 0.368501 0.196422 0.127314 0 0 -0.0648201 -0.141495 -0.0525406 -0.019852 0.0163016 0.0228442 0.023574 0.0329015 0.0605085 0.0976912 0.139097 0.1818 0.224547 0.267125 0.309796 0.353756 0.399857 0.44878 0.501095 0.557246 0.617687 0.681683 0.743163 0.793752 0.739026 0.615215 0.438709 0.320954 0.11968 0 0 -0.365624 -0.129783 -0.0800218 -0.0177398 0.00441515 -0.00229083 -0.0160066 -0.0137356 -0.00107043 0.0190567 0.0434228 0.0700654 0.0984247 0.128808 0.161771 0.197348 0.236186 0.279077 0.326823 0.380254 0.440279 0.507996 0.584069 0.662829 0.741339 0.720411 0.573957 0.359061 0.257408 0 0 0 0 0 0 0 0 0 0 0 0 0 0 0 0 0 0 0 0 0 0 0 0 0 0 0 0 0 0 0 0
				</DataArray>
				<DataArray Name="VitesseY" type="Float32" format="ascii">
 0 0 0 0 0 0 0 0 0 0 0 0 0 0 0 0 0 0 0 0 0 0 0 0 0 0 0 0 0 0 0 -0.117176 0.00597414 -0.0742944 -0.160967 -0.213815 -0.211046 -0.11896 -0.05206 -0.0250203 -0.0186602 -0.0287384 -0.0458861 -0.0563377 -0.0406451 -0.00710026 0.0203098 0.033488 0.0347882 0.0319452 0.0302774 0.0291105 0.0281579 0.027227 0.0261445 0.0246524 0.0226323 0.0200119 0.0163572 0.0102816 0.00279523 0 -0.208841 -0.056982 -0.122547 -0.269304 -0.355494 -0.372119 -0.244982 -0.12804 -0.0767427 -0.0652394 -0.0786967 -0.105879 -0.122867 -0.0909226 -0.0242086 0.0333672 0.0639224 0.0693577 0.0637484 0.0605468 0.058331 0.0565232 0.0547607 0.0526458 0.0497068 0.0457532 0.0405957 0.0332408 0.0205949 0.00528107 0 -0.173921 -0.0772396 -0.156152 -0.329614 -0.444951 -0.479648 -0.39705 -0.253502 -0.180772 -0.154634 -0.163256 -0.190006 -0.206865 -0.159427 -0.0596449 0.0336208 0.0880321 0.101827 0.095205 0.0907484 0.0876451 0.0851549 0.082701 0.0797059 0.075456 0.0696202 0.0619034 0.0507905 0.0313738 0.00783518 0 -0.0720072 -0.0226377 -0.150999 -0.357074 -0.504228 -0.5628 -0.541374 -0.420408 -0.326938 -0.284818 -0.278876 -0.297114 -0.308384 -0.249243 -0.118241 0.0156859 0.100988 0.130122 0.126831 0.12082 0.117044 0.114084 0.111148 0.107463 0.102042 0.0944098 0.0841798 0.0693554 0.0432263 0.0108685 0 0.0673185 0.0633762 -0.124614 -0.358462 -0.531053 -0.62732 -0.65117 -0.596733 -0.504057 -0.442528 -0.418599 -0.419903 -0.419935 -0.356063 -0.201504 -0.0280836 0.0958778 0.150708 0.158283 0.150779 0.146661 0.143389 0.140192 0.13601 0.129578 0.120253 0.107598 0.0892145 0.0566855 0.0147756 0 0.175471 0.143297 -0.0815147 -0.33659 -0.533289 -0.659327 -0.723489 -0.736526 -0.690857 -0.625684 -0.579937 -0.555188 -0.532375 -0.468425 -0.308768 -0.104671 0.0621097 0.155754 0.185107 0.181303 0.176724 0.173356 0.170042 0.165539 0.158238 0.147331 0.132356 0.110626 0.0722222 0.0200905 0 0.203778 0.166472 -0.0423628 -0.288787 -0.490415 -0.652329 -0.759609 -0.823635 -0.843284 -0.816731 -0.761653 -0.708743 -0.650458 -0.575462 -0.428387 -0.208747 0.00380603 0.14568 0.204664 0.212778 0.207459 0.204284 0.201014 0.196284 0.188231 0.175864 0.158687 0.13384 0.0901485 0.0272111 0 0.163551 0.124918 -0.0373414 -0.24116 -0.421151 -0.592514 -0.751709 -0.865129 -0.94229 -0.974932 -0.951414 -0.877201 -0.78699 -0.675818 -0.542813 -0.331696 -0.0889586 0.101451 0.206646 0.240412 0.239659 0.23641 0.233247 0.228392 0.219708 0.205998 0.18673 0.158959 0.110538 0.0362888 0 0.0860597 0.0520448 -0.0635956 -0.221738 -0.374015 -0.521303 -0.693653 -0.863115 -0.996023 -1.08236 -1.11222 -1.05348 -0.931056 -0.790094 -0.640069 -0.455543 -0.20935 0.0304022 0.191822 0.261014 0.273325 0.269775 0.266809 0.261864 0.252658 0.237729 0.216483 0.185949 0.133301 0.0473567 0 -0.0108009 -0.0339136 -0.117051 -0.232796 -0.358572 -0.490442 -0.639915 -0.822011 -1.00433 -1.14248 -1.2213 -1.20233 -1.07334 -0.906759 -0.733671 -0.564504 -0.337929 -0.0751397 0.139391 0.262027 0.303406 0.305234 0.301719 0.296626 0.286984 0.270976 0.247884 0.214745 0.158346 0.0604905 0 -0.125041 -0.142326 -0.200758 -0.289667 -0.392881 -0.505882 -0.637369 -0.798616 -0.975342 -1.14906 -1.26112 -1.29118 -1.19374 -1.01664 -0.834128 -0.649396 -0.456584 -0.202657 0.0583163 0.241651 0.324326 0.341691 0.337978 0.332706 0.322622 0.305697 0.280916 0.245357 0.185644 0.0758859 0 -0.309603 -0.320307 -0.36019 -0.424346 -0.50331 -0.591298 -0.692228 -0.819385 -0.960008 -1.10637 -1.2272 -1.29061 -1.25814 -1.10397 -0.907043 -0.724111 -0.545999 -0.32559 -0.0550875 0.18207 0.32428 0.374231 0.3766 0.370116 0.359663 0.341937 0.315662 0.277901 0.215275 0.093861 0 -0.696222 -0.694174 -0.694052 -0.699647 -0.718079 -0.754997 -0.807147 -0.869143 -0.958129 -1.05266 -1.14654 -1.21028 -1.22362 -1.13152 -0.948345 -0.762736 -0.599579 -0.423951 -0.178973 0.0929844 0.29678 0.393514 0.415704 0.409389 0.398263 0.379869 0.352295 0.312554 0.247347 0.114908 0 -1.28716 -1.26986 -1.22416 -1.15788 -1.08195 -1.00947 -0.958557 -0.947055 -0.959652 -0.991265 -1.04714 -1.1038 -1.12003 -1.06052 -0.929306 -0.768566 -0.617684 -0.471222 -0.282396 -0.0201079 0.231522 0.392983 0.450814 0.451534 0.438888 0.419728 0.391037 0.349517 0.28187 0.139652 0 -1.78822 -1.76508 -1.70301 -1.60595 -1.48169 -1.34412 -1.20515 -1.07311 -0.981999 -0.946749 -0.933692 -0.938701 -0.96071 -0.952716 -0.861584 -0.706859 -0.58016 -0.479096 -0.342324 -0.127745 0.140083 0.356969 0.468379 0.494077 0.482262 0.461941 0.432115 0.389019 0.319013 0.168458 0 -2.01299 -1.99256 -1.94027 -1.86062 -1.7558 -1.62711 -1.47249 -1.30176 -1.13016 -0.971494 -0.868773 -0.81913 -0.788149 -0.773181 -0.750051 -0.654426 -0.493434 -0.396549 -0.333946 -0.196732 0.0365218 0.290244 0.464694 0.531893 0.528868 0.50695 0.475838 0.431292 0.359358 0.201283 0 -1.99507 -1.98482 -1.96032 -1.91755 -1.85256 -1.76166 -1.64503 -1.51232 -1.35123 -1.1648 -0.973526 -0.802515 -0.6922 -0.6321 -0.590867 -0.54319 -0.438153 -0.288015 -0.235378 -0.194469 -0.0379744 0.20136 0.423683 0.547427 0.576436 0.555673 0.52261 0.476579 0.403172 0.23845 0 -1.81725 -1.80585 -1.78358 -1.7631 -1.74699 -1.72843 -1.69371 -1.61681 -1.49955 -1.36496 -1.20051 -1.00423 -0.799483 -0.616565 -0.489924 -0.41253 -0.343775 -0.233199 -0.0882502 -0.0787843 -0.0561646 0.121416 0.354634 0.536561 0.613907 0.607102 0.572977 0.525174 0.450715 0.280373 0 -1.65048 -1.63405 -1.60668 -1.58591 -1.57066 -1.56591 -1.56432 -1.55569 -1.53018 -1.46537 -1.35919 -1.22952 -1.05786 -0.843899 -0.615619 -0.410382 -0.268657 -0.159001 -0.0364637 0.0846549 0.0712899 0.0891775 0.276781 0.48879 0.623911 0.660001 0.626888 0.577354 0.502222 0.327577 0 -1.48862 -1.46686 -1.43624 -1.41683 -1.40509 -1.40527 -1.40302 -1.39761 -1.39593 -1.39926 -1.39541 -1.34546 -1.2414 -1.09889 -0.904417 -0.660951 -0.403056 -0.191131 -0.03438 0.115011 0.220979 0.196393 0.225356 0.417958 0.600146 0.685939 0.684021 0.633409 0.557917 0.380701 0 -1.32693 -1.30105 -1.26958 -1.25234 -1.24911 -1.25269 -1.24912 -1.24565 -1.24985 -1.26111 -1.27454 -1.28592 -1.28145 -1.2273 -1.10885 -0.940469 -0.715408 -0.440964 -0.178953 0.0278624 0.20646 0.315121 0.300178 0.349507 0.537082 0.689145 0.72745 0.692577 0.618079 0.44055 0 -1.16462 -1.1356 -1.10733 -1.09378 -1.1006 -1.10431 -1.10172 -1.10362 -1.1132 -1.12748 -1.14208 -1.1541 -1.16132 -1.16231 -1.14834 -1.08108 -0.941339 -0.745623 -0.487643 -0.205953 0.0401303 0.254475 0.372864 0.379748 0.457831 0.629915 0.750041 0.746895 0.681927 0.508163 0 -1.00279 -0.966291 -0.949692 -0.94186 -0.955509 -0.958974 -0.9612 -0.969334 -0.983272 -0.998909 -1.01265 -1.02256 -1.02778 -1.02903 -1.02643 -1.01834 -0.991771 -0.905194 -0.742455 -0.51499 -0.242435 0.0223497 0.269924 0.405028 0.437071 0.543015 0.694318 0.78313 0.743342 0.58417 0 -0.837994 -0.791824 -0.794554 -0.79402 -0.811699 -0.817718 -0.825699 -0.839264 -0.855879 -0.871556 -0.883715 -0.891397 -0.894727 -0.89474 -0.891958 -0.886231 -0.87716 -0.862137 -0.82085 -0.706151 -0.512468 -0.266527 -0.00397737 0.261073 0.415992 0.474632 0.601238 0.729655 0.793886 0.662897 0 -0.65993 -0.618277 -0.641648 -0.649036 -0.671079 -0.68038 -0.693244 -0.710347 -0.726925 -0.740893 -0.750825 -0.756538 -0.758997 -0.758895 -0.756534 -0.752006 -0.745357 -0.736418 -0.723888 -0.702798 -0.636414 -0.481785 -0.2667 -0.0209604 0.243228 0.411301 0.49377 0.625972 0.739143 0.741377 0 -0.457601 -0.445861 -0.488626 -0.505161 -0.535339 -0.546306 -0.562164 -0.578727 -0.593564 -0.605054 -0.612469 -0.616695 -0.618476 -0.618623 -0.617459 -0.614961 -0.611101 -0.60571 -0.598467 -0.588648 -0.573412 -0.536684 -0.423481 -0.240169 -0.0177084 0.228374 0.396022 0.485074 0.615299 0.720444 0 -0.232056 -0.266425 -0.345256 -0.369252 -0.402679 -0.413591 -0.431213 -0.445591 -0.457338 -0.465947 -0.470959 -0.473244 -0.474064 -0.474094 -0.473694 -0.472921 -0.471753 -0.469969 -0.467222 -0.462957 -0.456414 -0.444939 -0.420954 -0.339792 -0.186472 0.0131365 0.218197 0.368568 0.438749 0.57398 0 0.00925792 -0.0569132 -0.223403 -0.248966 -0.274082 -0.283301 -0.29727 -0.310031 -0.319464 -0.326329 -0.328292 -0.328477 -0.327866 -0.327071 -0.326564 -0.32651 -0.326894 -0.327561 -0.328135 -0.328215 -0.327322 -0.324743 -0.318117 -0.299535 -0.236724 -0.110198 0.0686787 0.196455 0.320974 0.359071 0 0.620569 0.043384 -0.176707 -0.106725 -0.163102 -0.13753 -0.15165 -0.158265 -0.172375 -0.174421 -0.176399 -0.176323 -0.175323 -0.174051 -0.173045 -0.172603 -0.172882 -0.173997 -0.175966 -0.17875 -0.182414 -0.186839 -0.192024 -0.195028 -0.186041 -0.142542 -0.0488314 0.127316 0.119685 0.257412 0 5.28353 0 0 0 0 0 0 0 0 0 0 0 0 0 0 0 0 0 0 0 0 0 0 0 0 0 0 0 0 0 0
				</DataArray>
			</PointData>
			<CellData Scalars="Density">
				<DataArray Name="Density" type="Float32" format="ascii">