<?xml version="1.0"?>
<VTKFile type="PolyData">
	<PolyData>
		<Piece NumberOfPoints="961" NumberOfPolys="900">
			<Points>
				<DataArray type="Float32" NumberOfComponents="3" format="ascii">
 0 0 0 0.04 0 0 0.08 0 0 0.12 0 0 0.16 0 0 0.2 0 0 0.24 0 0 0.28 0 0 0.32 0 0 0.36 0 0 0.4 0 0 0.44 0 0 0.48 0 0 0.52 0 0 0.56 0 0 0.6 0 0 0.64 0 0 0.68 0 0 0.72 0 0 0.76 0 0 0.8 0 0 0.84 0 0 0.88 0 0 0.92 0 0 0.96 0 0 1 0 0 1.04 0 0 1.08 0 0 1.12 0 0 1.16 0 0 1.2 0 0 0 0.04 0 0.04 0.04 0 0.08 0.04 0 0.12 0.04 0 0.16 0.04 0 0.2 0.04 0 0.24 0.04 0 0.28 0.04 0 0.32 0.04 0 0.36 0.04 0 0.4 0.04 0 0.44 0.04 0 0.48 0.04 0 0.52 0.04 0 0.56 0.04 0 0.6 0.04 0 0.64 0.04 0 0.68 0.04 0 0.72 0.04 0 0.76 0.04 0 0.8 0.04 0 0.84 0.04 0 0.88 0.04 0 0.92 0.04 0 0.96 0.04 0 1 0.04 0 1.04 0.04 0 1.08 0.04 0 1.12 0.04 0 1.16 0.04 0 1.2 0.04 0 0 0.08 0 0.04 0.08 0 0.08 0.08 0 0.12 0.08 0 0.16 0.08 0 0.2 0.08 0 0.24 0.08 0 0.28 0.08 0 0.32 0.08 0 0.36 0.08 0 0.4 0.08 0 0.44 0.08 0 0.48 0.08 0 0.52 0.08 0 0.56 0.08 0 0.6 0.08 0 0.64 0.08 0 0.68 0.08 0 0.72 0.08 0 0.76 0.08 0 0.8 0.08 0 0.84 0.08 0 0.88 0.08 0 0.92 0.08 0 0.96 0.08 0 1 0.08 0 1.04 0.08 0 1.08 0.08 0 1.12 0.08 0 1.16 0.08 0 1.2 0.08 0 0 0.12 0 0.04 0.12 0 0.08 0.12 0 0.12 0.12 0 0.16 0.12 0 0.2 0.12 0 0.24 0.12 0 0.28 0.12 0 0.32 0.12 0 0.36 0.12 0 0.4 0.12 0 0.44 0.12 0 0.48 0.12 0 0.52 0.12 0 0.56 0.12 0 0.6 0.12 0 0.64 0.12 0 0.68 0.12 0 0.72 0.12 0 0.76 0.12 0 0.8 0.12 0 0.84 0.12 0 0.88 0.12 0 0.92 0.12 0 0.96 0.12 0 1 0.12 0 1.04 0.12 0 1.08 0.12 0 1.12 0.12 0 1.16 0.12 0 1.2 0.12 0 0 0.16 0 0.04 0.16 0 0.08 0.16 0 0.12 0.16 0 0.16 0.16 0 0.2 0.16 0 0.24 0.16 0 0.28 0.16 0 0.32 0.16 0 0.36 0.16 0 0.4 0.16 0 0.44 0.16 0 0.48 0.16 0 0.52 0.16 0 0.56 0.16 0 0.6 0.16 0 0.64 0.16 0 0.68 0.16 0 0.72 0.16 0 0.76 0.16 0 0.8 0.16 0 0.84 0.16 0 0.88 0.16 0 0.92 0.16 0 0.96 0.16 0 1 0.16 0 1.04 0.16 0 1.08 0.16 0 1.12 0.16 0 1.16 0.16 0 1.2 0.16 0 0 0.2 0 0.04 0.2 0 0.08 0.2 0 0.12 0.2 0 0.16 0.2 0 0.2 0.2 0 0.24 0.2 0 0.28 0.2 0 0.32 0.2 0 0.36 0.2 0 0.4 0.2 0 0.44 0.2 0 0.48 0.2 0 0.52 0.2 0 0.56 0.2 0 0.6 0.2 0 0.64 0.2 0 0.68 0.2 0 0.72 0.2 0 0.76 0.2 0 0.8 0.2 0 0.84 0.2 0 0.88 0.2 0 0.92 0.2 0 0.96 0.2 0 1 0.2 0 1.04 0.2 0 1.08 0.2 0 1.12 0.2 0 1.16 0.2 0 1.2 0.2 0 0 0.24 0 0.04 0.24 0 0.08 0.24 0 0.12 0.24 0 0.16 0.24 0 0.2 0.24 0 0.24 0.24 0 0.28 0.24 0 0.32 0.24 0 0.36 0.24 0 0.4 0.24 0 0.44 0.24 0 0.48 0.24 0 0.52 0.24 0 0.56 0.24 0 0.6 0.24 0 0.64 0.24 0 0.68 0.24 0 0.72 0.24 0 0.76 0.24 0 0.8 0.24 0 0.84 0.24 0 0.88 0.24 0 0.92 0.24 0 0.96 0.24 0 1 0.24 0 1.04 0.24 0 1.08 0.24 0 1.12 0.24 0 1.16 0.24 0 1.2 0.24 0 0 0.28 0 0.04 0.28 0 0.08 0.28 0 0.12 0.28 0 0.16 0.28 0 0.2 0.28 0 0.24 0.28 0 0.28 0.28 0 0.32 0.28 0 0.36 0.28 0 0.4 0.28 0 0.44 0.28 0 0.48 0.28 0 0.52 0.28 0 0.56 0.28 0 0.6 0.28 0 0.64 0.28 0 0.68 0.28 0 0.72 0.28 0 0.76 0.28 0 0.8 0.28 0 0.84 0.28 0 0.88 0.28 0 0.92 0.28 0 0.96 0.28 0 1 0.28 0 1.04 0.28 0 1.08 0.28 0 1.12 0.28 0 1.16 0.28 0 1.2 0.28 0 0 0.32 0 0.04 0.32 0 0.08 0.32 0 0.12 0.32 0 0.16 0.32 0 0.2 0.32 0 0.24 0.32 0 0.28 0.32 0 0.32 0.32 0 0.36 0.32 0 0.4 0.32 0 0.44 0.32 0 0.48 0.32 0 0.52 0.32 0 0.56 0.32 0 0.6 0.32 0 0.64 0.32 0 0.68 0.32 0 0.72 0.32 0 0.76 0.32 0 0.8 0.32 0 0.84 0.32 0 0.88 0.32 0 0.92 0.32 0 0.96 0.32 0 1 0.32 0 1.04 0.32 0 1.08 0.32 0 1.12 0.32 0 1.16 0.32 0 1.2 0.32 0 0 0.36 0 0.04 0.36 0 0.08 0.36 0 0.12 0.36 0 0.16 0.36 0 0.2 0.36 0 0.24 0.36 0 0.28 0.36 0 0.32 0.36 0 0.36 0.36 0 0.4 0.36 0 0.44 0.36 0 0.48 0.36 0 0.52 0.36 0 0.56 0.36 0 0.6 0.36 0 0.64 0.36 0 0.68 0.36 0 0.72 0.36 0 0.76 0.36 0 0.8 0.36 0 0.84 0.36 0 0.88 0.36 0 0.92 0.36 0 0.96 0.36 0 1 0.36 0 1.04 0.36 0 1.08 0.36 0 1.12 0.36 0 1.16 0.36 0 1.2 0.36 0 0 0.4 0 0.04 0.4 0 0.08 0.4 0 0.12 0.4 0 0.16 0.4 0 0.2 0.4 0 0.24 0.4 0 0.28 0.4 0 0.32 0.4 0 0.36 0.4 0 0.4 0.4 0 0.44 0.4 0 0.48 0.4 0 0.52 0.4 0 0.56 0.4 0 0.6 0.4 0 0.64 0.4 0 0.68 0.4 0 0.72 0.4 0 0.76 0.4 0 0.8 0.4 0 0.84 0.4 0 0.88 0.4 0 0.92 0.4 0 0.96 0.4 0 1 0.4 0 1.04 0.4 0 1.08 0.4 0 1.12 0.4 0 1.16 0.4 0 1.2 0.4 0 0 0.44 0 0.04 0.44 0 0.08 0.44 0 0.12 0.44 0 0.16 0.44 0 0.2 0.44 0 0.24 0.44 0 0.28 0.44 0 0.32 0.44 0 0.36 0.44 0 0.4 0.44 0 0.44 0.44 0 0.48 0.44 0 0.52 0.44 0 0.56 0.44 0 0.6 0.44 0 0.64 0.44 0 0.68 0.44 0 0.72 0.44 0 0.76 0.44 0 0.8 0.44 0 0.84 0.44 0 0.88 0.44 0 0.92 0.44 0 0.96 0.44 0 1 0.44 0 1.04 0.44 0 1.08 0.44 0 1.12 0.44 0 1.16 0.44 0 1.2 0.44 0 0 0.48 0 0.04 0.48 0 0.08 0.48 0 0.12 0.48 0 0.16 0.48 0 0.2 0.48 0 0.24 0.48 0 0.28 0.48 0 0.32 0.48 0 0.36 0.48 0 0.4 0.48 0 0.44 0.48 0 0.48 0.48 0 0.52 0.48 0 0.56 0.48 0 0.6 0.48 0 0.64 0.48 0 0.68 0.48 0 0.72 0.48 0 0.76 0.48 0 0.8 0.48 0 0.84 0.48 0 0.88 0.48 0 0.92 0.48 0 0.96 0.48 0 1 0.48 0 1.04 0.48 0 1.08 0.48 0 1.12 0.48 0 1.16 0.48 0 1.2 0.48 0 0 0.52 0 0.04 0.52 0 0.08 0.52 0 0.12 0.52 0 0.16 0.52 0 0.2 0.52 0 0.24 0.52 0 0.28 0.52 0 0.32 0.52 0 0.36 0.52 0 0.4 0.52 0 0.44 0.52 0 0.48 0.52 0 0.52 0.52 0 0.56 0.52 0 0.6 0.52 0 0.64 0.52 0 0.68 0.52 0 0.72 0.52 0 0.76 0.52 0 0.8 0.52 0 0.84 0.52 0 0.88 0.52 0 0.92 0.52 0 0.96 0.52 0 1 0.52 0 1.04 0.52 0 1.08 0.52 0 1.12 0.52 0 1.16 0.52 0 1.2 0.52 0 0 0.56 0 0.04 0.56 0 0.08 0.56 0 0.12 0.56 0 0.16 0.56 0 0.2 0.56 0 0.24 0.56 0 0.28 0.56 0 0.32 0.56 0 0.36 0.56 0 0.4 0.56 0 0.44 0.56 0 0.48 0.56 0 0.52 0.56 0 0.56 0.56 0 0.6 0.56 0 0.64 0.56 0 0.68 0.56 0 0.72 0.56 0 0.76 0.56 0 0.8 0.56 0 0.84 0.56 0 0.88 0.56 0 0.92 0.56 0 0.96 0.56 0 1 0.56 0 1.04 0.56 0 1.08 0.56 0 1.12 0.56 0 1.16 0.56 0 1.2 0.56 0 0 0.6 0 0.04 0.6 0 0.08 0.6 0 0.12 0.6 0 0.16 0.6 0 0.2 0.6 0 0.24 0.6 0 0.28 0.6 0 0.32 0.6 0 0.36 0.6 0 0.4 0.6 0 0.44 0.6 0 0.48 0.6 0 0.52 0.6 0 0.56 0.6 0 0.6 0.6 0 0.64 0.6 0 0.68 0.6 0 0.72 0.6 0 0.76 0.6 0 0.8 0.6 0 0.84 0.6 0 0.88 0.6 0 0.92 0.6 0 0.96 0.6 0 1 0.6 0 1.04 0.6 0 1.08 0.6 0 1.12 0.6 0 1.16 0.6 0 1.2 0.6 0 0 0.64 0 0.04 0.64 0 0.08 0.64 0 0.12 0.64 0 0.16 0.64 0 0.2 0.64 0 0.24 0.64 0 0.28 0.64 0 0.32 0.64 0 0.36 0.64 0 0.4 0.64 0 0.44 0.64 0 0.48 0.64 0 0.52 0.64 0 0.56 0.64 0 0.6 0.64 0 0.64 0.64 0 0.68 0.64 0 0.72 0.64 0 0.76 0.64 0 0.8 0.64 0 0.84 0.64 0 0.88 0.64 0 0.92 0.64 0 0.96 0.64 0 1 0.64 0 1.04 0.64 0 1.08 0.64 0 1.12 0.64 0 1.16 0.64 0 1.2 0.64 0 0 0.68 0 0.04 0.68 0 0.08 0.68 0 0.12 0.68 0 0.16 0.68 0 0.2 0.68 0 0.24 0.68 0 0.28 0.68 0 0.32 0.68 0 0.36 0.68 0 0.4 0.68 0 0.44 0.68 0 0.48 0.68 0 0.52 0.68 0 0.56 0.68 0 0.6 0.68 0 0.64 0.68 0 0.68 0.68 0 0.72 0.68 0 0.76 0.68 0 0.8 0.68 0 0.84 0.68 0 0.88 0.68 0 0.92 0.68 0 0.96 0.68 0 1 0.68 0 1.04 0.68 0 1.08 0.68 0 1.12 0.68 0 1.16 0.68 0 1.2 0.68 0 0 0.72 0 0.04 0.72 0 0.08 0.72 0 0.12 0.72 0 0.16 0.72 0 0.2 0.72 0 0.24 0.72 0 0.28 0.72 0 0.32 0.72 0 0.36 0.72 0 0.4 0.72 0 0.44 0.72 0 0.48 0.72 0 0.52 0.72 0 0.56 0.72 0 0.6 0.72 0 0.64 0.72 0 0.68 0.72 0 0.72 0.72 0 0.76 0.72 0 0.8 0.72 0 0.84 0.72 0 0.88 0.72 0 0.92 0.72 0 0.96 0.72 0 1 0.72 0 1.04 0.72 0 1.08 0.72 0 1.12 0.72 0 1.16 0.72 0 1.2 0.72 0 0 0.76 0 0.04 0.76 0 0.08 0.76 0 0.12 0.76 0 0.16 0.76 0 0.2 0.76 0 0.24 0.76 0 0.28 0.76 0 0.32 0.76 0 0.36 0.76 0 0.4 0.76 0 0.44 0.76 0 0.48 0.76 0 0.52 0.76 0 0.56 0.76 0 0.6 0.76 0 0.64 0.76 0 0.68 0.76 0 0.72 0.76 0 0.76 0.76 0 0.8 0.76 0 0.84 0.76 0 0.88 0.76 0 0.92 0.76 0 0.96 0.76 0 1 0.76 0 1.04 0.76 0 1.08 0.76 0 1.12 0.76 0 1.16 0.76 0 1.2 0.76 0 0 0.8 0 0.04 0.8 0 0.08 0.8 0 0.12 0.8 0 0.16 0.8 0 0.2 0.8 0 0.24 0.8 0 0.28 0.8 0 0.32 0.8 0 0.36 0.8 0 0.4 0.8 0 0.44 0.8 0 0.48 0.8 0 0.52 0.8 0 0.56 0.8 0 0.6 0.8 0 0.64 0.8 0 0.68 0.8 0 0.72 0.8 0 0.76 0.8 0 0.8 0.8 0 0.84 0.8 0 0.88 0.8 0 0.92 0.8 0 0.96 0.8 0 1 0.8 0 1.04 0.8 0 1.08 0.8 0 1.12 0.8 0 1.16 0.8 0 1.2 0.8 0 0 0.84 0 0.04 0.84 0 0.08 0.84 0 0.12 0.84 0 0.16 0.84 0 0.2 0.84 0 0.24 0.84 0 0.28 0.84 0 0.32 0.84 0 0.36 0.84 0 0.4 0.84 0 0.44 0.84 0 0.48 0.84 0 0.52 0.84 0 0.56 0.84 0 0.6 0.84 0 0.64 0.84 0 0.68 0.84 0 0.72 0.84 0 0.76 0.84 0 0.8 0.84 0 0.84 0.84 0 0.88 0.84 0 0.92 0.84 0 0.96 0.84 0 1 0.84 0 1.04 0.84 0 1.08 0.84 0 1.12 0.84 0 1.16 0.84 0 1.2 0.84 0 0 0.88 0 0.04 0.88 0 0.08 0.88 0 0.12 0.88 0 0.16 0.88 0 0.2 0.88 0 0.24 0.88 0 0.28 0.88 0 0.32 0.88 0 0.36 0.88 0 0.4 0.88 0 0.44 0.88 0 0.48 0.88 0 0.52 0.88 0 0.56 0.88 0 0.6 0.88 0 0.64 0.88 0 0.68 0.88 0 0.72 0.88 0 0.76 0.88 0 0.8 0.88 0 0.84 0.88 0 0.88 0.88 0 0.92 0.88 0 0.96 0.88 0 1 0.88 0 1.04 0.88 0 1.08 0.88 0 1.12 0.88 0 1.16 0.88 0 1.2 0.88 0 0 0.92 0 0.04 0.92 0 0.08 0.92 0 0.12 0.92 0 0.16 0.92 0 0.2 0.92 0 0.24 0.92 0 0.28 0.92 0 0.32 0.92 0 0.36 0.92 0 0.4 0.92 0 0.44 0.92 0 0.48 0.92 0 0.52 0.92 0 0.56 0.92 0 0.6 0.92 0 0.64 0.92 0 0.68 0.92 0 0.72 0.92 0 0.76 0.92 0 0.8 0.92 0 0.84 0.92 0 0.88 0.92 0 0.92 0.92 0 0.96 0.92 0 1 0.92 0 1.04 0.92 0 1.08 0.92 0 1.12 0.92 0 1.16 0.92 0 1.2 0.92 0 0 0.96 0 0.04 0.96 0 0.08 0.96 0 0.12 0.96 0 0.16 0.96 0 0.2 0.96 0 0.24 0.96 0 0.28 0.96 0 0.32 0.96 0 0.36 0.96 0 0.4 0.96 0 0.44 0.96 0 0.48 0.96 0 0.52 0.96 0 0.56 0.96 0 0.6 0.96 0 0.64 0.96 0 0.68 0.96 0 0.72 0.96 0 0.76 0.96 0 0.8 0.96 0 0.84 0.96 0 0.88 0.96 0 0.92 0.96 0 0.96 0.96 0 1 0.96 0 1.04 0.96 0 1.08 0.96 0 1.12 0.96 0 1.16 0.96 0 1.2 0.96 0 0 1 0 0.04 1 0 0.08 1 0 0.12 1 0 0.16 1 0 0.2 1 0 0.24 1 0 0.28 1 0 0.32 1 0 0.36 1 0 0.4 1 0 0.44 1 0 0.48 1 0 0.52 1 0 0.56 1 0 0.6 1 0 0.64 1 0 0.68 1 0 0.72 1 0 0.76 1 0 0.8 1 0 0.84 1 0 0.88 1 0 0.92 1 0 0.96 1 0 1 1 0 1.04 1 0 1.08 1 0 1.12 1 0 1.16 1 0 1.2 1 0 0 1.04 0 0.04 1.04 0 0.08 1.04 0 0.12 1.04 0 0.16 1.04 0 0.2 1.04 0 0.24 1.04 0 0.28 1.04 0 0.32 1.04 0 0.36 1.04 0 0.4 1.04 0 0.44 1.04 0 0.48 1.04 0 0.52 1.04 0 0.56 1.04 0 0.6 1.04 0 0.64 1.04 0 0.68 1.04 0 0.72 1.04 0 0.76 1.04 0 0.8 1.04 0 0.84 1.04 0 0.88 1.04 0 0.92 1.04 0 0.96 1.04 0 1 1.04 0 1.04 1.04 0 1.08 1.04 0 1.12 1.04 0 1.16 1.04 0 1.2 1.04 0 0 1.08 0 0.04 1.08 0 0.08 1.08 0 0.12 1.08 0 0.16 1.08 0 0.2 1.08 0 0.24 1.08 0 0.28 1.08 0 0.32 1.08 0 0.36 1.08 0 0.4 1.08 0 0.44 1.08 0 0.48 1.08 0 0.52 1.08 0 0.56 1.08 0 0.6 1.08 0 0.64 1.08 0 0.68 1.08 0 0.72 1.08 0 0.76 1.08 0 0.8 1.08 0 0.84 1.08 0 0.88 1.08 0 0.92 1.08 0 0.96 1.08 0 1 1.08 0 1.04 1.08 0 1.08 1.08 0 1.12 1.08 0 1.16 1.08 0 1.2 1.08 0 0 1.12 0 
[...]
			<PointData Scalars="VitesseX">
				<DataArray Name="VitesseX" type="Float32" format="ascii">
 0 -0.0473541 -0.081709 -0.0093218 0.130075 0.279809 0.378391 0.417529 0.395135 0.361491 0.331735 0.314497 0.32316 0.353012 0.399183 0.455008 0.514038 0.573107 0.627153 0.681221 0.724873 0.776584 0.795328 0.731831 0.469933 0.0313424 -0.250966 -0.258323 -0.1715 -0.0844347 0 0 0.0625079 0.0713974 0.115974 0.197742 0.287893 0.363708 0.369409 0.335898 0.298755 0.279417 0.281044 0.298518 0.335096 0.387086 0.44657 0.508417 0.569728 0.624913 0.679184 0.722534 0.773872 0.792663 0.729801 0.469535 0.0324237 -0.250329 -0.258656 -0.171697 -0.0844999 0 0 0.00254158 0.00755446 0.0075912 0.0160947 0.0426615 0.0702334 0.103697 0.131595 0.150875 0.167384 0.192244 0.232577 0.287452 0.353177 0.422146 0.491292 0.557759 0.615877 0.671296 0.714659 0.765863 0.785492 0.725056 0.470212 0.0377196 -0.246874 -0.258791 -0.171919 -0.0845946 0 0 -0.0745069 -0.110306 -0.1181 -0.123829 -0.13159 -0.128268 -0.100853 -0.0491011 -0.000601411 0.0463568 0.0991504 0.159956 0.227835 0.301966 0.379453 0.456231 0.529563 0.592539 0.651238 0.696809 0.749848 0.772262 0.71681 0.472194 0.0483089 -0.239787 -0.258737 -0.172273 -0.0847801 0 0 -0.112872 -0.163877 -0.179301 -0.1921 -0.204972 -0.206519 -0.177277 -0.129271 -0.0730793 -0.0186109 0.0405061 0.104507 0.171963 0.243434 0.320708 0.401872 0.480094 0.54843 0.612586 0.663418 0.721275 0.74948 0.702402 0.474327 0.0654122 -0.227347 -0.258053 -0.172814 -0.0850984 0 0 -0.109286 -0.168127 -0.193223 -0.202019 -0.207535 -0.203594 -0.18435 -0.147383 -0.100583 -0.0451935 0.0119274 0.0704637 0.131254 0.194519 0.263471 0.338716 0.41486 0.486537 0.555249 0.61259 0.676657 0.713106 0.677947 0.474529 0.090536 -0.206363 -0.255216 -0.173456 -0.085525 0 0 -0.0827992 -0.137883 -0.152858 -0.143377 -0.129997 -0.129673 -0.129074 -0.118229 -0.0862577 -0.0410266 0.00761249 0.0580892 0.10886 0.160596 0.217778 0.28194 0.348997 0.41679 0.484501 0.546901 0.615112 0.659358 0.638604 0.469088 0.124925 -0.171914 -0.246285 -0.173839 -0.085968 0 0 -0.0282323 -0.0509305 -0.0561178 -0.0392911 -0.0244317 -0.0160225 -0.0233713 -0.0343026 -0.0324717 -0.00925204 0.025405 0.0635095 0.102798 0.142481 0.185155 0.234876 0.291454 0.35136 0.412291 0.47402 0.539204 0.586343 0.579907 0.452734 0.166931 -0.117416 -0.2225 -0.172725 -0.0861476 0 0 0.048278 0.0771331 0.0743211 0.0667395 0.0626357 0.0691415 0.0742162 0.0630597 0.0493215 0.0461765 0.0597901 0.0811698 0.107527 0.134624 0.16433 0.198891 0.242953 0.293365 0.34777 0.405214 0.457236 0.497904 0.500639 0.419487 0.210718 -0.03912 -0.171095 -0.163345 -0.0851635 0 0 0.0817805 0.139957 0.150526 0.136537 0.120959 0.112549 0.118437 0.125876 0.115344 0.0991741 0.0917316 0.0989109 0.112533 0.130742 0.148448 0.171417 0.202525 0.242288 0.290993 0.342853 0.381111 0.406247 0.408239 0.366649 0.244268 0.0582641 -0.0845658 -0.125815 -0.0788122 0 0 0.081377 0.141165 0.155761 0.144241 0.126884 0.11303 0.110035 0.117552 0.126001 0.121405 0.109913 0.101458 0.103824 0.114945 0.129778 0.146418 0.16628 0.1966 0.239101 0.282757 0.313232 0.323795 0.317546 0.298868 0.25284 0.155434 0.0327083 -0.043722 -0.0469389 0 0 0.0729959 0.122619 0.136053 0.123415 0.102436 0.0828931 0.0714379 0.0732388 0.0829924 0.0907734 0.0878262 0.0782117 0.0722142 0.0758641 0.0898232 0.109184 0.127188 0.153863 0.188186 0.222024 0.248299 0.252876 0.236849 0.225076 0.231796 0.220901 0.158122 0.07735 0.0323654 0 0 0.0534361 0.0864866 0.0928415 0.0746502 0.0481341 0.0246809 0.00921472 0.00541815 0.012922 0.0242815 0.0327969 0.033618 0.0257619 0.0190658 0.0259463 0.042547 0.0704309 0.100184 0.129496 0.1573 0.178877 0.185708 0.170387 0.147744 0.188708 0.240144 0.241949 0.200008 0.148745 0 0 0.0273545 0.0423448 0.0341234 0.00688814 -0.0242712 -0.0494902 -0.064451 -0.0682472 -0.0640485 -0.0544764 -0.0428181 -0.0346557 -0.0337628 -0.0374227 -0.0436536 -0.0369282 -0.0139881 0.0195465 0.0508487 0.0784581 0.0963721 0.108267 0.11051 0.0888432 0.129265 0.219975 0.261436 0.255976 0.233144 0 0 0.0025517 -0.00521237 -0.0295379 -0.0656147 -0.102783 -0.129352 -0.1402 -0.139071 -0.132709 -0.127358 -0.12179 -0.115487 -0.109395 -0.111054 -0.116835 -0.119843 -0.111575 -0.089013 -0.0561756 -0.0275125 -0.00640613 0.00832162 0.0363655 0.0542472 0.0800017 0.160181 0.223812 0.236108 0.236788 0 0 -0.0197239 -0.0495837 -0.094859 -0.146873 -0.188321 -0.209514 -0.21292 -0.204781 -0.192831 -0.185717 -0.187903 -0.190076 -0.192682 -0.197256 -0.204693 -0.213897 -0.220013 -0.214968 -0.195297 -0.167471 -0.137012 -0.104879 -0.0666028 0.00329458 0.0440045 0.0837499 0.130397 0.152753 0.178804 0 0 -0.0369999 -0.0836913 -0.140745 -0.196423 -0.236125 -0.257365 -0.263159 -0.25669 -0.243802 -0.232965 -0.233679 -0.248169 -0.26514 -0.28212 -0.302966 -0.328824 -0.352879 -0.367551 -0.370419 -0.3523 -0.311264 -0.254573 -0.191199 -0.104282 -0.0236857 0.00258015 0.0118932 0.0346435 0.0897362 0 0 -0.049207 -0.102163 -0.158088 -0.20669 -0.24333 -0.265144 -0.2741 -0.27444 -0.270261 -0.265218 -0.266359 -0.282484 -0.313949 -0.352413 -0.398395 -0.452799 -0.511329 -0.563126 -0.59059 -0.585921 -0.545246 -0.465314 -0.356041 -0.258228 -0.156088 -0.108453 -0.105266 -0.0798962 -0.00513542 0 0 -0.0574327 -0.111107 -0.158284 -0.200786 -0.233572 -0.253877 -0.263852 -0.267965 -0.26975 -0.272954 -0.28191 -0.3012 -0.339696 -0.399695 -0.475869 -0.569402 -0.67478 -0.771627 -0.830967 -0.84273 -0.8018 -0.714602 -0.58141 -0.449967 -0.347126 -0.26914 -0.223207 -0.167388 -0.096726 0 0 -0.0640743 -0.112201 -0.149543 -0.179143 -0.202465 -0.219952 -0.231711 -0.2398 -0.248203 -0.260707 -0.277485 -0.30702 -0.353948 -0.423883 -0.528304 -0.663502 -0.815957 -0.951751 -1.03437 -1.05364 -1.01195 -0.922769 -0.794513 -0.658646 -0.541818 -0.433678 -0.326719 -0.229934 -0.1669 0 0 -0.0658409 -0.106706 -0.127068 -0.138977 -0.15006 -0.165572 -0.182099 -0.194646 -0.209441 -0.231436 -0.262848 -0.302418 -0.355626 -0.437173 -0.558726 -0.725397 -0.913084 -1.07027 -1.16102 -1.1817 -1.13337 -1.04744 -0.936514 -0.806522 -0.6757 -0.542924 -0.400968 -0.277846 -0.198425 0 0 -0.0602734 -0.0890549 -0.0899412 -0.0843705 -0.0833571 -0.0974915 -0.124565 -0.153792 -0.181869 -0.213215 -0.250442 -0.295512 -0.353948 -0.438889 -0.571968 -0.758269 -0.96259 -1.12281 -1.20982 -1.22356 -1.17142 -1.09356 -0.998338 -0.878577 -0.741922 -0.595901 -0.445185 -0.307068 -0.199485 0 0 -0.0403439 -0.0530682 -0.0380033 -0.0204734 -0.0187612 -0.0392053 -0.0792935 -0.127021 -0.173736 -0.214421 -0.255043 -0.301918 -0.359337 -0.441723 -0.569508 -0.766188 -0.976818 -1.13558 -1.21217 -1.21673 -1.16721 -1.09271 -1.00867 -0.896412 -0.761013 -0.613872 -0.462777 -0.315185 -0.183384 0 0 -0.00327197 0.00536514 0.0233381 0.0322157 0.0228387 -0.0057591 -0.0546581 -0.119693 -0.182008 -0.233886 -0.276523 -0.319039 -0.374025 -0.447731 -0.561821 -0.74719 -0.952881 -1.09694 -1.15438 -1.15424 -1.11446 -1.05181 -0.98276 -0.885831 -0.757696 -0.614504 -0.464142 -0.31001 -0.160009 0 0 0.0363345 0.0585098 0.065457 0.0605064 0.0397997 0.00141475 -0.0539864 -0.128869 -0.213175 -0.28038 -0.322095 -0.351939 -0.390804 -0.452745 -0.555332 -0.721111 -0.907521 -1.03277 -1.07103 -1.05756 -1.01598 -0.967057 -0.914367 -0.842062 -0.739201 -0.603731 -0.455934 -0.299819 -0.143481 0 0 0.0548569 0.0820991 0.0768831 0.0625688 0.0333564 -0.00926694 -0.0686985 -0.152537 -0.251993 -0.335402 -0.384775 -0.40871 -0.420455 -0.456696 -0.559938 -0.721729 -0.880752 -0.978815 -0.995145 -0.956488 -0.904792 -0.862452 -0.823526 -0.776985 -0.696181 -0.58426 -0.444952 -0.29636 -0.140079 0 0 0.0543228 0.0699353 0.0539804 0.0268573 -0.00370292 -0.0434145 -0.0945116 -0.169005 -0.265746 -0.362071 -0.431388 -0.469352 -0.479279 -0.492425 -0.584095 -0.756476 -0.897035 -0.953781 -0.94367 -0.878329 -0.819392 -0.776827 -0.738629 -0.697384 -0.637709 -0.550806 -0.43759 -0.300022 -0.153826 0 0 0.0108296 0.00555465 -0.0270432 -0.0382374 -0.0539945 -0.0724694 -0.0998047 -0.147595 -0.23065 -0.334528 -0.435077 -0.509958 -0.556431 -0.590388 -0.669444 -0.811566 -0.919514 -0.950381 -0.920969 -0.841276 -0.767454 -0.711095 -0.662456 -0.616914 -0.570082 -0.506632 -0.419513 -0.304032 -0.18258 0 0 -0.0537684 -0.122631 -0.0880687 -0.0794321 -0.0776195 -0.083798 -0.0898602 -0.108203 -0.148203 -0.239088 -0.370481 -0.519215 -0.644462 -0.741227 -0.840441 -0.939624 -0.994421 -0.995636 -0.942797 -0.840908 -0.737323 -0.653345 -0.58701 -0.534604 -0.490087 -0.437562 -0.377467 -0.316588 -0.161902 0 0 -0.380299 -0.165556 -0.108901 -0.0771648 -0.0731849 -0.0818097 -0.0886834 -0.0799095 -0.0797546 -0.121597 -0.244907 -0.445853 -0.681355 -0.898918 -1.06715 -1.1671 -1.19645 -1.14596 -1.00776 -0.830694 -0.668435 -0.539744 -0.445802 -0.380906 -0.336585 -0.298539 -0.254706 -0.208723 -0.184771 0 0 0 0 0 0 0 0 0 0 0 0 0 0 0 0 0 0 0 0 0 0 0 0 0 0 0 0 0 0 0 0
				</DataArray>
				<DataArray Name="VitesseY" type="Float32" format="ascii">
 0 0 0 0 0 0 0 0 0 0 0 0 0 0 0 0 0 0 0 0 0 0 0 0 0 0 0 0 0 0 0 -0.0313699 0.0799813 0.00930401 -0.0624581 -0.0950113 -0.0810884 -0.0294051 0.0485162 0.0713487 0.0634346 0.0497914 0.0299973 0.007868 -0.0113117 -0.0259977 -0.0302612 -0.030513 -0.0292178 -0.0262468 -0.0220191 -0.0172831 -0.0131194 -0.00939246 -0.00598261 -0.00324378 -0.00144136 -0.00159034 -0.00306767 -0.00460954 -0.00495899 0 -0.0540753 0.101467 0.0377522 -0.0717906 -0.112168 -0.116881 -0.0329485 0.0768482 0.112682 0.103898 0.0762396 0.041311 0.00248762 -0.0346145 -0.0598615 -0.0663105 -0.0655858 -0.0613673 -0.0537897 -0.0439746 -0.0343379 -0.0263872 -0.0193291 -0.0129952 -0.00774266 -0.00384421 -0.0035513 -0.00623841 -0.00926442 -0.00994 0 0.0233397 0.159775 0.0739814 -0.0364247 -0.0866427 -0.0973986 -0.0195594 0.0666042 0.107158 0.105664 0.0749428 0.0287538 -0.0225032 -0.0699213 -0.104251 -0.110448 -0.107667 -0.0986963 -0.0843675 -0.0671782 -0.0525575 -0.0410531 -0.0311586 -0.0224673 -0.0149791 -0.00829869 -0.00626827 -0.00945595 -0.0138685 -0.0149069 0 0.169984 0.264166 0.120179 0.00429474 -0.0450591 -0.0547656 -0.00021767 0.054365 0.083488 0.0883169 0.0548136 0.00098286 -0.056556 -0.109256 -0.150896 -0.160755 -0.156178 -0.141702 -0.119749 -0.0946854 -0.0746714 -0.059583 -0.0474558 -0.0370663 -0.0274773 -0.0167587 -0.0106006 -0.0128275 -0.0183567 -0.019851 0 0.341736 0.378401 0.179573 0.0492745 -0.0048245 -0.0129281 0.0191267 0.0502189 0.0661894 0.0662103 0.0302152 -0.0271555 -0.0883475 -0.14458 -0.190718 -0.209202 -0.205548 -0.188554 -0.16035 -0.128434 -0.103079 -0.0845935 -0.0714155 -0.0606688 -0.0493709 -0.0329331 -0.0188303 -0.0170822 -0.0227509 -0.0247158 0 0.486573 0.489767 0.246228 0.0865161 0.0210708 0.0168581 0.0486621 0.0643967 0.0676129 0.0494148 0.00937556 -0.0496253 -0.1125 -0.171465 -0.219461 -0.248352 -0.248497 -0.232941 -0.20237 -0.167073 -0.137727 -0.117018 -0.105157 -0.0970546 -0.0859518 -0.0627643 -0.0356988 -0.024392 -0.0272804 -0.0294087 0 0.579621 0.572053 0.30601 0.111094 0.0338914 0.0394778 0.080844 0.102252 0.0933427 0.0529076 0.000451669 -0.0622776 -0.126689 -0.186883 -0.236579 -0.27323 -0.281501 -0.269479 -0.24061 -0.205001 -0.174707 -0.154679 -0.147951 -0.147342 -0.141034 -0.113384 -0.0696341 -0.0398175 -0.0330297 -0.0340888 0 0.612519 0.583357 0.352966 0.136264 0.063403 0.0630137 0.105747 0.143164 0.137623 0.0838153 0.0116703 -0.0596333 -0.128406 -0.190191 -0.242637 -0.282811 -0.302184 -0.296478 -0.272767 -0.237756 -0.208166 -0.193368 -0.19443 -0.206659 -0.212251 -0.188487 -0.131374 -0.0755695 -0.0468311 -0.0399047 0 0.583785 0.546346 0.367213 0.1786 0.106587 0.103151 0.131209 0.169833 0.178179 0.130158 0.0470149 -0.0398359 -0.116611 -0.183063 -0.237517 -0.280284 -0.310173 -0.313282 -0.297507 -0.26598 -0.237548 -0.229269 -0.236081 -0.261849 -0.287811 -0.280672 -0.225061 -0.148534 -0.08435 -0.0516458 0 0.536645 0.494487 0.3654 0.219329 0.15553 0.151007 0.168869 0.192703 0.203039 0.170095 0.0896661 -0.00303878 -0.0923395 -0.16694 -0.226733 -0.272667 -0.306426 -0.321728 -0.314974 -0.292189 -0.267358 -0.261708 -0.271079 -0.302546 -0.346164 -0.366531 -0.337995 -0.261758 -0.168912 -0.0912538 0 0.490272 0.450631 0.363883 0.256971 0.206083 0.202511 0.214417 0.224242 0.224905 0.192125 0.125139 0.0359402 -0.0562202 -0.143285 -0.213972 -0.266965 -0.302132 -0.325447 -0.328433 -0.316652 -0.299935 -0.294524 -0.303215 -0.33017 -0.377454 -0.423281 -0.433621 -0.394329 -0.307904 -0.194045 0 0.45109 0.427334 0.368534 0.296406 0.261556 0.258273 0.264655 0.263786 0.248945 0.211604 0.147162 0.0657618 -0.0219259 -0.11192 -0.196144 -0.261159 -0.308664 -0.334225 -0.345545 -0.344203 -0.336503 -0.33263 -0.340653 -0.3568 -0.393959 -0.447123 -0.487002 -0.49882 -0.477101 -0.380453 0 0.435893 0.425427 0.386263 0.344148 0.322646 0.318184 0.316447 0.30399 0.277432 0.231348 0.163927 0.0847783 0.00281005 -0.0843943 -0.170965 -0.253764 -0.318102 -0.358148 -0.377462 -0.384867 -0.382174 -0.380805 -0.389687 -0.399788 -0.40904 -0.441165 -0.497101 -0.557769 -0.621901 -0.625035 0 0.450385 0.444296 0.423312 0.40285 0.390249 0.381241 0.366889 0.340733 0.303283 0.252715 0.183753 0.100732 0.0179334 -0.0643764 -0.153016 -0.242465 -0.324798 -0.390265 -0.430042 -0.447203 -0.454319 -0.454886 -0.457092 -0.46309 -0.454103 -0.449936 -0.494145 -0.589932 -0.726384 -0.862164 0 0.487765 0.486666 0.481227 0.47679 0.466593 0.445133 0.4115 0.369541 0.323454 0.271322 0.205821 0.122193 0.0358544 -0.0523219 -0.141829 -0.236555 -0.334024 -0.425447 -0.498074 -0.543574 -0.567167 -0.574546 -0.56666 -0.558674 -0.548771 -0.537167 -0.557393 -0.649889 -0.823439 -1.04543 0 0.545044 0.548787 0.557905 0.564497 0.54793 0.505861 0.452891 0.395692 0.339366 0.283752 0.225068 0.151946 0.0583067 -0.0353359 -0.131518 -0.234135 -0.349721 -0.470567 -0.581636 -0.670026 -0.724714 -0.750383 -0.752079 -0.724643 -0.698817 -0.698885 -0.724154 -0.781935 -0.919873 -1.15169 0 0.617839 0.624876 0.643991 0.653779 0.625391 0.566044 0.495352 0.424498 0.358796 0.298989 0.241669 0.176203 0.092071 -0.0067125 -0.112329 -0.229876 -0.364568 -0.521398 -0.678943 -0.812974 -0.903422 -0.946291 -0.955269 -0.924733 -0.877858 -0.855352 -0.87118 -0.89466 -0.976774 -1.18326 0 0.702462 0.708682 0.72914 0.73417 0.697859 0.623592 0.538104 0.456603 0.383813 0.319788 0.260998 0.202056 0.128198 0.0333107 -0.0823236 -0.213394 -0.37134 -0.564584 -0.768394 -0.94171 -1.05306 -1.10067 -1.11021 -1.06951 -1.00566 -0.954517 -0.933213 -0.931135 -0.981135 -1.13804 0 0.799506 0.796889 0.805791 0.804959 0.760293 0.676293 0.580422 0.490049 0.41212 0.347596 0.290893 0.234381 0.164375 0.0727066 -0.0419036 -0.183911 -0.363785 -0.585894 -0.821458 -1.01999 -1.14153 -1.18687 -1.18754 -1.13042 -1.04888 -0.975795 -0.928222 -0.907639 -0.933399 -1.00421 0 0.904667 0.884936 0.872397 0.86149 0.811561 0.722881 0.624066 0.52649 0.446337 0.384468 0.330464 0.270723 0.199848 0.110745 -0.00234386 -0.1475 -0.337791 -0.573992 -0.831596 -1.03974 -1.16341 -1.20282 -1.19523 -1.13415 -1.041 -0.943323 -0.867804 -0.832735 -0.834688 -0.827726 0 1.01559 0.971453 0.922318 0.897213 0.842361 0.758892 0.671041 0.574689 0.490336 0.425025 0.367963 0.306681 0.232803 0.142241 0.0319492 -0.108113 -0.290831 -0.531951 -0.792385 -1.0014 -1.12094 -1.15792 -1.15363 -1.1013 -1.00546 -0.895691 -0.811794 -0.761336 -0.732833 -0.666044 0 1.10777 1.04849 0.953704 0.919146 0.868367 0.798699 0.727941 0.637996 0.541451 0.461936 0.395193 0.330096 0.256683 0.166343 0.0567921 -0.0649982 -0.231007 -0.455396 -0.709211 -0.917533 -1.04054 -1.08489 -1.08365 -1.0436 -0.959507 -0.856343 -0.77197 -0.707391 -0.650766 -0.538119 0 1.17919 1.11318 0.984584 0.939891 0.893206 0.835764 0.776116 0.697432 0.59423 0.492353 0.405715 0.331247 0.261152 0.184562 0.0856861 -0.0307685 -0.164438 -0.348079 -0.584243 -0.795832 -0.9349 -0.995124 -1.00481 -0.978179 -0.910111 -0.820082 -0.735712 -0.660385 -0.585751 -0.444878 0 1.19804 1.12803 0.986252 0.933874 0.887191 0.833321 0.77651 0.705664 0.607456 0.499174 0.403033 0.318921 0.242964 0.178668 0.118714 0.034572 -0.0944536 -0.255541 -0.453788 -0.663965 -0.808324 -0.87795 -0.895066 -0.884303 -0.840561 -0.775195 -0.696116 -0.616052 -0.533959 -0.380508 0 1.14797 1.07106 0.919765 0.848244 0.785928 0.725928 0.664797 0.605638 0.533115 0.453613 0.382734 0.318149 0.248546 0.179236 0.129758 0.0808219 -0.009452 -0.158837 -0.357399 -0.548775 -0.67905 -0.743458 -0.761498 -0.757669 -0.738763 -0.695773 -0.637477 -0.569884 -0.489849 -0.336506 0 0.953323 0.858055 0.690166 0.587209 0.498835 0.428649 0.373014 0.339191 0.320965 0.313404 0.319367 0.3194 0.30221 0.256371 0.1833 0.105116 0.0167956 -0.10786 -0.27906 -0.442002 -0.547731 -0.598414 -0.615267 -0.615334 -0.604152 -0.584431 -0.550863 -0.506686 -0.43772 -0.29866 0 0.585199 0.462744 0.320006 0.20382 0.10867 0.0595015 0.0257195 0.0234056 0.0510438 0.112133 0.195786 0.281627 0.321304 0.311773 0.248269 0.137493 0.0129791 -0.108561 -0.229251 -0.332492 -0.405228 -0.44795 -0.464431 -0.465179 -0.456275 -0.445179 -0.437788 -0.419662 -0.377648 -0.254901 0 0.234765 0.215726 0.0397609 -0.047642 -0.0948943 -0.107802 -0.127385 -0.123059 -0.0999684 -0.037984 0.0676302 0.194007 0.292779 0.312576 0.262762 0.157061 0.0279984 -0.0880601 -0.1735 -0.233929 -0.28097 -0.309372 -0.316653 -0.310885 -0.300325 -0.296606 -0.300121 -0.304138 -0.316709 -0.208896 0 0.648733 0.113958 -0.0629806 -0.047715 -0.0858681 -0.0631097 -0.0799539 -0.081459 -0.0961825 -0.0654179 -0.000203594 0.112561 0.224875 0.277619 0.253599 0.177331 0.0822639 -0.0124904 -0.102479 -0.170541 -0.200168 -0.200331 -0.183868 -0.160435 -0.14384 -0.140322 -0.153916 -0.182636 -0.161946 -0.184845 0 5.51356 0 0 0 0 0 0 0 0 0 0 0 0 0 0 0 0 0 0 0 0 0 0 0 0 0 0 0 0 0 0
				</DataArray>
			</PointData>
			<CellData Scalars="Density">
				<DataArray Name="Density" type="Float32" format="ascii">