<?xml version="1.0"?>
<VTKFile type="PolyData">
	<PolyData>
		<Piece NumberOfPoints="961" NumberOfPolys="900">
			<Points>
				<DataArray type="Float32" NumberOfComponents="3" format="ascii">
 0 0 0 0.04 0 0 0.08 0 0 0.12 0 0 0.16 0 0 0.2 0 0 0.24 0 0 0.28 0 0 0.32 0 0 0.36 0 0 0.4 0 0 0.44 0 0 0.48 0 0 0.52 0 0 0.56 0 0 0.6 0 0 0.64 0 0 0.68 0 0 0.72 0 0 0.76 0 0 0.8 0 0 0.84 0 0 0.88 0 0 0.92 0 0 0.96 0 0 1 0 0 1.04 0 0 1.08 0 0 1.12 0 0 1.16 0 0 1.2 0 0 0 0.04 0 0.04 0.04 0 0.08 0.04 0 0.12 0.04 0 0.16 0.04 0 0.2 0.04 0 0.24 0.04 0 0.28 0.04 0 0.32 0.04 0 0.36 0.04 0 0.4 0.04 0 0.44 0.04 0 0.48 0.04 0 0.52 0.04 0 0.56 0.04 0 0.6 0.04 0 0.64 0.04 0 0.68 0.04 0 0.72 0.04 0 0.76 0.04 0 0.8 0.04 0 0.84 0.04 0 0.88 0.04 0 0.92 0.04 0 0.96 0.04 0 1 0.04 0 1.04 0.04 0 1.08 0.04 0 1.12 0.04 0 1.16 0.04 0 1.2 0.04 0 0 0.08 0 0.04 0.08 0 0.08 0.08 0 0.12 0.08 0 0.16 0.08 0 0.2 0.08 0 0.24 0.08 0 0.28 0.08 0 0.32 0.08 0 0.36 0.08 0 0.4 0.08 0 0.44 0.08 0 0.48 0.08 0 0.52 0.08 0 0.56 0.08 0 0.6 0.08 0 0.64 0.08 0 0.68 0.08 0 0.72 0.08 0 0.76 0.08 0 0.8 0.08 0 0.84 0.08 0 0.88 0.08 0 0.92 0.08 0 0.96 0.08 0 1 0.08 0 1.04 0.08 0 1.08 0.08 0 1.12 0.08 0 1.16 0.08 0 1.2 0.08 0 0 0.12 0 0.04 0.12 0 0.08 0.12 0 0.12 0.12 0 0.16 0.12 0 0.2 0.12 0 0.24 0.12 0 0.28 0.12 0 0.32 0.12 0 0.36 0.12 0 0.4 0.12 0 0.44 0.12 0 0.48 0.12 0 0.52 0.12 0 0.56 0.12 0 0.6 0.12 0 0.64 0.12 0 0.68 0.12 0 0.72 0.12 0 0.76 0.12 0 0.8 0.12 0 0.84 0.12 0 0.88 0.12 0 0.92 0.12 0 0.96 0.12 0 1 0.12 0 1.04 0.12 0 1.08 0.12 0 1.12 0.12 0 1.16 0.12 0 1.2 0.12 0 0 0.16 0 0.04 0.16 0 0.08 0.16 0 0.12 0.16 0 0.16 0.16 0 0.2 0.16 0 0.24 0.16 0 0.28 0.16 0 0.32 0.16 0 0.36 0.16 0 0.4 0.16 0 0.44 0.16 0 0.48 0.16 0 0.52 0.16 0 0.56 0.16 0 0.6 0.16 0 0.64 0.16 0 0.68 0.16 0 0.72 0.16 0 0.76 0.16 0 0.8 0.16 0 0.84 0.16 0 0.88 0.16 0 0.92 0.16 0 0.96 0.16 0 1 0.16 0 1.04 0.16 0 1.08 0.16 0 1.12 0.16 0 1.16 0.16 0 1.2 0.16 0 0 0.2 0 0.04 0.2 0 0.08 0.2 0 0.12 0.2 0 0.16 0.2 0 0.2 0.2 0 0.24 0.2 0 0.28 0.2 0 0.32 0.2 0 0.36 0.2 0 0.4 0.2 0 0.44 0.2 0 0.48 0.2 0 0.52 0.2 0 0.56 0.2 0 0.6 0.2 0 0.64 0.2 0 0.68 0.2 0 0.72 0.2 0 0.76 0.2 0 0.8 0.2 0 0.84 0.2 0 0.88 0.2 0 0.92 0.2 0 0.96 0.2 0 1 0.2 0 1.04 0.2 0 1.08 0.2 0 1.12 0.2 0 1.16 0.2 0 1.2 0.2 0 0 0.24 0 0.04 0.24 0 0.08 0.24 0 0.12 0.24 0 0.16 0.24 0 0.2 0.24 0 0.24 0.24 0 0.28 0.24 0 0.32 0.24 0 0.36 0.24 0 0.4 0.24 0 0.44 0.24 0 0.48 0.24 0 0.52 0.24 0 0.56 0.24 0 0.6 0.24 0 0.64 0.24 0 0.68 0.24 0 0.72 0.24 0 0.76 0.24 0 0.8 0.24 0 0.84 0.24 0 0.88 0.24 0 0.92 0.24 0 0.96 0.24 0 1 0.24 0 1.04 0.24 0 1.08 0.24 0 1.12 0.24 0 1.16 0.24 0 1.2 0.24 0 0 0.28 0 0.04 0.28 0 0.08 0.28 0 0.12 0.28 0 0.16 0.28 0 0.2 0.28 0 0.24 0.28 0 0.28 0.28 0 0.32 0.28 0 0.36 0.28 0 0.4 0.28 0 0.44 0.28 0 0.48 0.28 0 0.52 0.28 0 0.56 0.28 0 0.6 0.28 0 0.64 0.28 0 0.68 0.28 0 0.72 0.28 0 0.76 0.28 0 0.8 0.28 0 0.84 0.28 0 0.88 0.28 0 0.92 0.28 0 0.96 0.28 0 1 0.28 0 1.04 0.28 0 1.08 0.28 0 1.12 0.28 0 1.16 0.28 0 1.2 0.28 0 0 0.32 0 0.04 0.32 0 0.08 0.32 0 0.12 0.32 0 0.16 0.32 0 0.2 0.32 0 0.24 0.32 0 0.28 0.32 0 0.32 0.32 0 0.36 0.32 0 0.4 0.32 0 0.44 0.32 0 0.48 0.32 0 0.52 0.32 0 0.56 0.32 0 0.6 0.32 0 0.64 0.32 0 0.68 0.32 0 0.72 0.32 0 0.76 0.32 0 0.8 0.32 0 0.84 0.32 0 0.88 0.32 0 0.92 0.32 0 0.96 0.32 0 1 0.32 0 1.04 0.32 0 1.08 0.32 0 1.12 0.32 0 1.16 0.32 0 1.2 0.32 0 0 0.36 0 0.04 0.36 0 0.08 0.36 0 0.12 0.36 0 0.16 0.36 0 0.2 0.36 0 0.24 0.36 0 0.28 0.36 0 0.32 0.36 0 0.36 0.36 0 0.4 0.36 0 0.44 0.36 0 0.48 0.36 0 0.52 0.36 0 0.56 0.36 0 0.6 0.36 0 0.64 0.36 0 0.68 0.36 0 0.72 0.36 0 0.76 0.36 0 0.8 0.36 0 0.84 0.36 0 0.88 0.36 0 0.92 0.36 0 0.96 0.36 0 1 0.36 0 1.04 0.36 0 1.08 0.36 0 1.12 0.36 0 1.16 0.36 0 1.2 0.36 0 0 0.4 0 0.04 0.4 0 0.08 0.4 0 0.12 0.4 0 0.16 0.4 0 0.2 0.4 0 0.24 0.4 0 0.28 0.4 0 0.32 0.4 0 0.36 0.4 0 0.4 0.4 0 0.44 0.4 0 0.48 0.4 0 0.52 0.4 0 0.56 0.4 0 0.6 0.4 0 0.64 0.4 0 0.68 0.4 0 0.72 0.4 0 0.76 0.4 0 0.8 0.4 0 0.84 0.4 0 0.88 0.4 0 0.92 0.4 0 0.96 0.4 0 1 0.4 0 1.04 0.4 0 1.08 0.4 0 1.12 0.4 0 1.16 0.4 0 1.2 0.4 0 0 0.44 0 0.04 0.44 0 0.08 0.44 0 0.12 0.44 0 0.16 0.44 0 0.2 0.44 0 0.24 0.44 0 0.28 0.44 0 0.32 0.44 0 0.36 0.44 0 0.4 0.44 0 0.44 0.44 0 0.48 0.44 0 0.52 0.44 0 0.56 0.44 0 0.6 0.44 0 0.64 0.44 0 0.68 0.44 0 0.72 0.44 0 0.76 0.44 0 0.8 0.44 0 0.84 0.44 0 0.88 0.44 0 0.92 0.44 0 0.96 0.44 0 1 0.44 0 1.04 0.44 0 1.08 0.44 0 1.12 0.44 0 1.16 0.44 0 1.2 0.44 0 0 0.48 0 0.04 0.48 0 0.08 0.48 0 0.12 0.48 0 0.16 0.48 0 0.2 0.48 0 0.24 0.48 0 0.28 0.48 0 0.32 0.48 0 0.36 0.48 0 0.4 0.48 0 0.44 0.48 0 0.48 0.48 0 0.52 0.48 0 0.56 0.48 0 0.6 0.48 0 0.64 0.48 0 0.68 0.48 0 0.72 0.48 0 0.76 0.48 0 0.8 0.48 0 0.84 0.48 0 0.88 0.48 0 0.92 0.48 0 0.96 0.48 0 1 0.48 0 1.04 0.48 0 1.08 0.48 0 1.12 0.48 0 1.16 0.48 0 1.2 0.48 0 0 0.52 0 0.04 0.52 0 0.08 0.52 0 0.12 0.52 0 0.16 0.52 0 0.2 0.52 0 0.24 0.52 0 0.28 0.52 0 0.32 0.52 0 0.36 0.52 0 0.4 0.52 0 0.44 0.52 0 0.48 0.52 0 0.52 0.52 0 0.56 0.52 0 0.6 0.52 0 0.64 0.52 0 0.68 0.52 0 0.72 0.52 0 0.76 0.52 0 0.8 0.52 0 0.84 0.52 0 0.88 0.52 0 0.92 0.52 0 0.96 0.52 0 1 0.52 0 1.04 0.52 0 1.08 0.52 0 1.12 0.52 0 1.16 0.52 0 1.2 0.52 0 0 0.56 0 0.04 0.56 0 0.08 0.56 0 0.12 0.56 0 0.16 0.56 0 0.2 0.56 0 0.24 0.56 0 0.28 0.56 0 0.32 0.56 0 0.36 0.56 0 0.4 0.56 0 0.44 0.56 0 0.48 0.56 0 0.52 0.56 0 0.56 0.56 0 0.6 0.56 0 0.64 0.56 0 0.68 0.56 0 0.72 0.56 0 0.76 0.56 0 0.8 0.56 0 0.84 0.56 0 0.88 0.56 0 0.92 0.56 0 0.96 0.56 0 1 0.56 0 1.04 0.56 0 1.08 0.56 0 1.12 0.56 0 1.16 0.56 0 1.2 0.56 0 0 0.6 0 0.04 0.6 0 0.08 0.6 0 0.12 0.6 0 0.16 0.6 0 0.2 0.6 0 0.24 0.6 0 0.28 0.6 0 0.32 0.6 0 0.36 0.6 0 0.4 0.6 0 0.44 0.6 0 0.48 0.6 0 0.52 0.6 0 0.56 0.6 0 0.6 0.6 0 0.64 0.6 0 0.68 0.6 0 0.72 0.6 0 0.76 0.6 0 0.8 0.6 0 0.84 0.6 0 0.88 0.6 0 0.92 0.6 0 0.96 0.6 0 1 0.6 0 1.04 0.6 0 1.08 0.6 0 1.12 0.6 0 1.16 0.6 0 1.2 0.6 0 0 0.64 0 0.04 0.64 0 0.08 0.64 0 0.12 0.64 0 0.16 0.64 0 0.2 0.64 0 0.24 0.64 0 0.28 0.64 0 0.32 0.64 0 0.36 0.64 0 0.4 0.64 0 0.44 0.64 0 0.48 0.64 0 0.52 0.64 0 0.56 0.64 0 0.6 0.64 0 0.64 0.64 0 0.68 0.64 0 0.72 0.64 0 0.76 0.64 0 0.8 0.64 0 0.84 0.64 0 0.88 0.64 0 0.92 0.64 0 0.96 0.64 0 1 0.64 0 1.04 0.64 0 1.08 0.64 0 1.12 0.64 0 1.16 0.64 0 1.2 0.64 0 0 0.68 0 0.04 0.68 0 0.08 0.68 0 0.12 0.68 0 0.16 0.68 0 0.2 0.68 0 0.24 0.68 0 0.28 0.68 0 0.32 0.68 0 0.36 0.68 0 0.4 0.68 0 0.44 0.68 0 0.48 0.68 0 0.52 0.68 0 0.56 0.68 0 0.6 0.68 0 0.64 0.68 0 0.68 0.68 0 0.72 0.68 0 0.76 0.68 0 0.8 0.68 0 0.84 0.68 0 0.88 0.68 0 0.92 0.68 0 0.96 0.68 0 1 0.68 0 1.04 0.68 0 1.08 0.68 0 1.12 0.68 0 1.16 0.68 0 1.2 0.68 0 0 0.72 0 0.04 0.72 0 0.08 0.72 0 0.12 0.72 0 0.16 0.72 0 0.2 0.72 0 0.24 0.72 0 0.28 0.72 0 0.32 0.72 0 0.36 0.72 0 0.4 0.72 0 0.44 0.72 0 0.48 0.72 0 0.52 0.72 0 0.56 0.72 0 0.6 0.72 0 0.64 0.72 0 0.68 0.72 0 0.72 0.72 0 0.76 0.72 0 0.8 0.72 0 0.84 0.72 0 0.88 0.72 0 0.92 0.72 0 0.96 0.72 0 1 0.72 0 1.04 0.72 0 1.08 0.72 0 1.12 0.72 0 1.16 0.72 0 1.2 0.72 0 0 0.76 0 0.04 0.76 0 0.08 0.76 0 0.12 0.76 0 0.16 0.76 0 0.2 0.76 0 0.24 0.76 0 0.28 0.76 0 0.32 0.76 0 0.36 0.76 0 0.4 0.76 0 0.44 0.76 0 0.48 0.76 0 0.52 0.76 0 0.56 0.76 0 0.6 0.76 0 0.64 0.76 0 0.68 0.76 0 0.72 0.76 0 0.76 0.76 0 0.8 0.76 0 0.84 0.76 0 0.88 0.76 0 0.92 0.76 0 0.96 0.76 0 1 0.76 0 1.04 0.76 0 1.08 0.76 0 1.12 0.76 0 1.16 0.76 0 1.2 0.76 0 0 0.8 0 0.04 0.8 0 0.08 0.8 0 0.12 0.8 0 0.16 0.8 0 0.2 0.8 0 0.24 0.8 0 0.28 0.8 0 0.32 0.8 0 0.36 0.8 0 0.4 0.8 0 0.44 0.8 0 0.48 0.8 0 0.52 0.8 0 0.56 0.8 0 0.6 0.8 0 0.64 0.8 0 0.68 0.8 0 0.72 0.8 0 0.76 0.8 0 0.8 0.8 0 0.84 0.8 0 0.88 0.8 0 0.92 0.8 0 0.96 0.8 0 1 0.8 0 1.04 0.8 0 1.08 0.8 0 1.12 0.8 0 1.16 0.8 0 1.2 0.8 0 0 0.84 0 0.04 0.84 0 0.08 0.84 0 0.12 0.84 0 0.16 0.84 0 0.2 0.84 0 0.24 0.84 0 0.28 0.84 0 0.32 0.84 0 0.36 0.84 0 0.4 0.84 0 0.44 0.84 0 0.48 0.84 0 0.52 0.84 0 0.56 0.84 0 0.6 0.84 0 0.64 0.84 0 0.68 0.84 0 0.72 0.84 0 0.76 0.84 0 0.8 0.84 0 0.84 0.84 0 0.88 0.84 0 0.92 0.84 0 0.96 0.84 0 1 0.84 0 1.04 0.84 0 1.08 0.84 0 1.12 0.84 0 1.16 0.84 0 1.2 0.84 0 0 0.88 0 0.04 0.88 0 0.08 0.88 0 0.12 0.88 0 0.16 0.88 0 0.2 0.88 0 0.24 0.88 0 0.28 0.88 0 0.32 0.88 0 0.36 0.88 0 0.4 0.88 0 0.44 0.88 0 0.48 0.88 0 0.52 0.88 0 0.56 0.88 0 0.6 0.88 0 0.64 0.88 0 0.68 0.88 0 0.72 0.88 0 0.76 0.88 0 0.8 0.88 0 0.84 0.88 0 0.88 0.88 0 0.92 0.88 0 0.96 0.88 0 1 0.88 0 1.04 0.88 0 1.08 0.88 0 1.12 0.88 0 1.16 0.88 0 1.2 0.88 0 0 0.92 0 0.04 0.92 0 0.08 0.92 0 0.12 0.92 0 0.16 0.92 0 0.2 0.92 0 0.24 0.92 0 0.28 0.92 0 0.32 0.92 0 0.36 0.92 0 0.4 0.92 0 0.44 0.92 0 0.48 0.92 0 0.52 0.92 0 0.56 0.92 0 0.6 0.92 0 0.64 0.92 0 0.68 0.92 0 0.72 0.92 0 0.76 0.92 0 0.8 0.92 0 0.84 0.92 0 0.88 0.92 0 0.92 0.92 0 0.96 0.92 0 1 0.92 0 1.04 0.92 0 1.08 0.92 0 1.12 0.92 0 1.16 0.92 0 1.2 0.92 0 0 0.96 0 0.04 0.96 0 0.08 0.96 0 0.12 0.96 0 0.16 0.96 0 0.2 0.96 0 0.24 0.96 0 0.28 0.96 0 0.32 0.96 0 0.36 0.96 0 0.4 0.96 0 0.44 0.96 0 0.48 0.96 0 0.52 0.96 0 0.56 0.96 0 0.6 0.96 0 0.64 0.96 0 0.68 0.96 0 0.72 0.96 0 0.76 0.96 0 0.8 0.96 0 0.84 0.96 0 0.88 0.96 0 0.92 0.96 0 0.96 0.96 0 1 0.96 0 1.04 0.96 0 1.08 0.96 0 1.12 0.96 0 1.16 0.96 0 1.2 0.96 0 0 1 0 0.04 1 0 0.08 1 0 0.12 1 0 0.16 1 0 0.2 1 0 0.24 1 0 0.28 1 0 0.32 1 0 0.36 1 0 0.4 1 0 0.44 1 0 0.48 1 0 0.52 1 0 0.56 1 0 0.6 1 0 0.64 1 0 0.68 1 0 0.72 1 0 0.76 1 0 0.8 1 0 0.84 1 0 0.88 1 0 0.92 1 0 0.96 1 0 1 1 0 1.04 1 0 1.08 1 0 1.12 1 0 1.16 1 0 1.2 1 0 0 1.04 0 0.04 1.04 0 0.08 1.04 0 0.12 1.04 0 0.16 1.04 0 0.2 1.04 0 0.24 1.04 0 0.28 1.04 0 0.32 1.04 0 0.36 1.04 0 0.4 1.04 0 0.44 1.04 0 0.48 1.04 0 0.52 1.04 0 0.56 1.04 0 0.6 1.04 0 0.64 1.04 0 0.68 1.04 0 0.72 1.04 0 0.76 1.04 0 0.8 1.04 0 0.84 1.04 0 0.88 1.04 0 0.92 1.04 0 0.96 1.04 0 1 1.04 0 1.04 1.04 0 1.08 1.04 0 1.12 1.04 0 1.16 1.04 0 1.2 1.04 0 0 1.08 0 0.04 1.08 0 0.08 1.08 0 0.12 1.08 0 0.16 1.08 0 0.2 1.08 0 0.24 1.08 0 0.28 1.08 0 0.32 1.08 0 0.36 1.08 0 0.4 1.08 0 0.44 1.08 0 0.48 1.08 0 0.52 1.08 0 0.56 1.08 0 0.6 1.08 0 0.64 1.08 0 0.68 1.08 0 0.72 1.08 0 0.76 1.08 0 0.8 1.08 0 0.84 1.08 0 0.88 1.08 0 0.92 1.08 0 0.96 1.08 0 1 1.08 0 1.04 1.08 0 1.08 1.08 0 1.12 1.08 0 1.16 1.08 0 1.2 1.08 0 0 1.12 0 
[...]
			<PointData Scalars="VitesseX">
				<DataArray Name="VitesseX" type="Float32" format="ascii">
 0 -0.0435276 -0.13174 -0.149146 -0.128298 -0.0599793 0.0193983 0.105754 0.184467 0.251537 0.308788 0.358926 0.404069 0.445547 0.484283 0.519259 0.534511 0.470953 0.315355 0.014025 -0.436615 -0.912637 -1.26663 -1.43492 -1.43436 -1.26944 -1.01889 -0.750065 -0.499242 -0.266287 0 0 0.121056 0.110641 0.0712149 0.0521439 0.0807542 0.131646 0.186874 0.240507 0.293328 0.341659 0.38514 0.424745 0.461701 0.496688 0.528681 0.542381 0.479521 0.326272 0.0303938 -0.415351 -0.891713 -1.24989 -1.42349 -1.42788 -1.2673 -1.01856 -0.750306 -0.499571 -0.26675 0 0 0.118906 0.197545 0.232109 0.238153 0.239634 0.251584 0.278253 0.305835 0.337073 0.369877 0.402822 0.435687 0.468696 0.501698 0.533032 0.549761 0.496181 0.355095 0.0789212 -0.349669 -0.825666 -1.1968 -1.38746 -1.40733 -1.26038 -1.01712 -0.749952 -0.498881 -0.26681 0 0 0.0926089 0.167786 0.224972 0.247657 0.263513 0.279209 0.302546 0.328688 0.353295 0.381085 0.41002 0.440753 0.472668 0.505144 0.536653 0.557721 0.51997 0.397501 0.1517 -0.248639 -0.722409 -1.11386 -1.33172 -1.37579 -1.25093 -1.01658 -0.750593 -0.498026 -0.266455 0 0 0.0463308 0.114514 0.185046 0.222784 0.255554 0.277325 0.298321 0.329998 0.356597 0.388369 0.417676 0.447379 0.477877 0.509347 0.540703 0.565748 0.547924 0.448377 0.240268 -0.12025 -0.585136 -1.0016 -1.25667 -1.33213 -1.2384 -1.01731 -0.753048 -0.497771 -0.265782 0 0 0.0129771 0.0593721 0.12349 0.184045 0.229606 0.261544 0.286926 0.323147 0.351686 0.386418 0.4191 0.451638 0.483161 0.514539 0.545742 0.57383 0.576008 0.502972 0.336362 0.0262648 -0.41646 -0.857147 -1.15828 -1.273 -1.21951 -1.01826 -0.757563 -0.498443 -0.264908 0 0 0.0021684 0.0394342 0.0869749 0.146474 0.189735 0.233948 0.269261 0.308307 0.342542 0.380441 0.415578 0.450392 0.484412 0.517936 0.550916 0.581868 0.599694 0.557646 0.432344 0.17999 -0.221855 -0.677894 -1.02959 -1.19527 -1.1889 -1.01748 -0.763966 -0.500327 -0.263806 0 0 0.00377688 0.0387901 0.0831243 0.136045 0.175671 0.219492 0.255548 0.293599 0.330932 0.370823 0.409608 0.44741 0.483726 0.519551 0.554944 0.589099 0.616812 0.607414 0.521233 0.329184 -0.012877 -0.464161 -0.864731 -1.09431 -1.14013 -1.01189 -0.771571 -0.503806 -0.262539 0 0 0.0102337 0.0423153 0.0872333 0.13575 0.177074 0.218634 0.254174 0.290922 0.328012 0.366481 0.405507 0.444843 0.48334 0.521048 0.558214 0.594566 0.627806 0.6442 0.597632 0.463046 0.19265 -0.222359 -0.661191 -0.96195 -1.06762 -0.996079 -0.779087 -0.509426 -0.261347 0 0 0.0175349 0.0496466 0.0941329 0.139959 0.181595 0.221541 0.257089 0.292873 0.329414 0.367012 0.405584 0.44486 0.484043 0.522847 0.561253 0.599022 0.635166 0.664788 0.657683 0.573737 0.377929 0.0292823 -0.41868 -0.789696 -0.967833 -0.961783 -0.783621 -0.517813 -0.260717 0 0 0.0244882 0.0588641 0.10216 0.146814 0.188797 0.227973 0.263775 0.298652 0.33416 0.370564 0.40822 0.446956 0.486182 0.525367 0.564264 0.602765 0.640346 0.675079 0.695962 0.658915 0.531289 0.264887 -0.147049 -0.572179 -0.836716 -0.899959 -0.779996 -0.529171 -0.261417 0 0 0.0296115 0.0664261 0.108881 0.153035 0.195678 0.235552 0.272566 0.307394 0.341966 0.377243 0.413614 0.451269 0.489789 0.5286 0.567447 0.606038 0.644127 0.681044 0.71337 0.718008 0.647439 0.464505 0.12671 -0.312754 -0.663829 -0.806178 -0.75983 -0.541427 -0.264538 0 0 0.0333423 0.0717174 0.113438 0.156606 0.199714 0.240565 0.278983 0.315091 0.349941 0.384766 0.420179 0.456675 0.494151 0.532181 0.57043 0.608758 0.646914 0.684573 0.720601 0.748436 0.728818 0.618718 0.369804 -0.0270065 -0.441808 -0.680038 -0.711163 -0.549263 -0.271505 0 0 0.0359597 0.0753801 0.116513 0.158726 0.201407 0.242837 0.28196 0.319012 0.354602 0.38954 0.424703 0.460676 0.49752 0.534951 0.572734 0.610703 0.648737 0.686616 0.723987 0.758876 0.777337 0.726884 0.565496 0.247966 -0.176838 -0.512402 -0.627393 -0.543969 -0.282909 0 0 0.0375709 0.0774619 0.118224 0.159534 0.201588 0.243048 0.282506 0.320022 0.356129 0.391546 0.426881 0.462737 0.499322 0.536468 0.573983 0.611742 0.649636 0.687576 0.725405 0.7626 0.796076 0.796372 0.707709 0.482053 0.106108 -0.294708 -0.508556 -0.511789 -0.295524 0 0 0.0382586 0.0782917 0.118706 0.159515 0.20078 0.241839 0.281387 0.319187 0.355726 0.391499 0.42714 0.463116 0.499673 0.536753 0.574207 0.611915 0.649791 0.687771 0.725818 0.763852 0.801029 0.830433 0.802358 0.663416 0.367159 -0.036411 -0.351553 -0.441543 -0.301284 0 0 0.0386202 0.078702 0.118976 0.159039 0.199138 0.239084 0.278297 0.316254 0.353258 0.389656 0.425833 0.462174 0.49889 0.536047 0.573574 0.611381 0.649383 0.687497 0.725726 0.764189 0.802792 0.840142 0.85858 0.789642 0.585127 0.229064 -0.148728 -0.33231 -0.287759 0 0 0.0402394 0.081507 0.12177 0.160817 0.198803 0.236819 0.274543 0.311946 0.348928 0.385727 0.422491 0.459371 0.496487 0.533916 0.571695 0.609796 0.648125 0.686592 0.725227 0.764132 0.803521 0.843252 0.880563 0.871865 0.749785 0.469697 0.0899009 -0.188636 -0.237483 0 0 0.0443599 0.0886425 0.131489 0.171272 0.209112 0.244529 0.278081 0.310502 0.345233 0.381114 0.417878 0.455144 0.492724 0.530598 0.568782 0.607314 0.646135 0.685157 0.724357 0.763941 0.804141 0.845068 0.886102 0.917207 0.86267 0.671737 0.330229 -0.010512 -0.146126 0 0 0.0507389 0.10122 0.148574 0.193159 0.232982 0.268784 0.299784 0.3277 0.355212 0.382718 0.415266 0.451183 0.488728 0.527027 0.565724 0.604776 0.644163 0.68378 0.723667 0.764014 0.80498 0.846819 0.889549 0.932079 0.937456 0.824567 0.551099 0.192969 -0.024118 0 0 0.0590145 0.116788 0.173024 0.224608 0.272083 0.312192 0.34519 0.370504 0.390244 0.407566 0.428454 0.45367 0.487196 0.524514 0.563394 0.602889 0.642756 0.682949 0.723525 0.764531 0.806295 0.849051 0.892812 0.937384 0.978468 0.93051 0.740488 0.408468 0.117237 0 0 0.0634747 0.128528 0.192648 0.257873 0.318766 0.372777 0.414533 0.442874 0.458548 0.465967 0.471315 0.480218 0.498734 0.526299 0.562656 0.601767 0.642019 0.68276 0.723878 0.76567 0.808377 0.852015 0.896686 0.943567 0.993825 1.00017 0.889079 0.620061 0.279139 0 0 0.0606059 0.123116 0.191397 0.264066 0.342196 0.418776 0.486351 0.534721 0.559133 0.562976 0.555111 0.544987 0.541196 0.549287 0.570466 0.603412 0.642348 0.683172 0.725011 0.767764 0.811398 0.85595 0.902348 0.951539 1.00016 1.03929 1.00351 0.812236 0.456053 0 0 0.0478321 0.100667 0.161653 0.235704 0.321459 0.416043 0.509555 0.591998 0.652162 0.679424 0.6757 0.654187 0.62821 0.610826 0.607252 0.620951 0.647525 0.685435 0.727431 0.771009 0.81559 0.861833 0.910559 0.958788 1.00608 1.07009 1.08915 0.957306 0.626823 0 0 0.0303462 0.0665465 0.111131 0.176187 0.268004 0.373326 0.481647 0.584241 0.674745 0.743559 0.780607 0.78163 0.755834 0.718945 0.68956 0.675538 0.679185 0.700626 0.733831 0.77603 0.821875 0.870289 0.918188 0.964913 1.02195 1.11519 1.12805 1.0296 0.752498 0 0 0.0188024 0.0305836 0.0492706 0.114671 0.205613 0.313334 0.427579 0.5387 0.641316 0.728822 0.800759 0.848364 0.863439 0.848801 0.813458 0.777723 0.755753 0.750392 0.763287 0.792694 0.83291 0.878624 0.924629 0.980662 1.06787 1.13294 1.12337 1.0228 0.769143 0 0 0.0121949 -0.00577554 0.0100626 0.0747295 0.161002 0.262207 0.367108 0.471636 0.572996 0.667624 0.754367 0.826765 0.881742 0.914561 0.919236 0.901366 0.871426 0.846533 0.836752 0.841315 0.861467 0.892684 0.944034 1.02616 1.09425 1.10928 1.06283 0.904658 0.590808 0 0 -0.00571049 -0.037001 -0.00482704 0.0509531 0.13539 0.226234 0.316135 0.404573 0.492289 0.579966 0.666804 0.749318 0.825457 0.888789 0.93389 0.961523 0.966527 0.957003 0.940648 0.928223 0.927291 0.944284 0.995312 1.05955 1.07689 1.03972 0.905744 0.618171 0.259358 0 0 -0.0331532 -0.0682203 -0.00763752 0.0343157 0.119482 0.196474 0.272101 0.345812 0.418353 0.49191 0.568392 0.648543 0.7305 0.809192 0.88045 0.939201 0.976791 1.00047 1.01541 1.02471 1.036 1.05737 1.08505 1.08671 1.04069 0.900033 0.6131 0.259415 0.0601201 0 0 -0.17951 -0.0598834 -0.0306709 0.0277041 0.0758893 0.13906 0.199831 0.258697 0.317482 0.378274 0.443784 0.516629 0.59897 0.691798 0.793507 0.898985 0.999421 1.08819 1.14716 1.18863 1.23117 1.26451 1.26775 1.20388 1.00751 0.652031 0.264772 0.0603375 0.00594196 0 0 0 0 0 0 0 0 0 0 0 0 0 0 0 0 0 0 0 0 0 0 0 0 0 0 0 0 0 0 0 0
				</DataArray>
				<DataArray Name="VitesseY" type="Float32" format="ascii">
 0 0 0 0 0 0 0 0 0 0 0 0 0 0 0 0 0 0 0 0 0 0 0 0 0 0 0 0 0 0 0 -0.0434893 0.121046 0.118892 0.0925929 0.0463264 0.012977 0.00216675 0.00377696 0.0102359 0.0175395 0.024492 0.0296147 0.0333441 0.0359629 0.0375812 0.0384075 0.0401659 0.0456143 0.056204 0.0729548 0.0934821 0.106578 0.106232 0.0969629 0.0815444 0.0652361 0.0533091 0.045091 0.038063 0.0272883 0 -0.131753 0.110578 0.19751 0.16777 0.114519 0.0593818 0.0394465 0.0388018 0.0423259 0.0496563 0.0588716 0.0664292 0.0717203 0.0753805 0.0774905 0.0785394 0.0812521 0.0909043 0.110175 0.141063 0.18044 0.208083 0.209645 0.193089 0.164428 0.132753 0.108899 0.0922604 0.0781365 0.0552879 0 -0.149146 0.0711608 0.23209 0.224957 0.18504 0.123493 0.0869908 0.0831447 0.0872537 0.0941507 0.102171 0.108885 0.113437 0.116519 0.11825 0.119035 0.12156 0.133463 0.158575 0.199625 0.254982 0.29969 0.307688 0.287468 0.249096 0.203898 0.168179 0.142694 0.120944 0.0856832 0 -0.128326 0.0520825 0.238104 0.24763 0.222767 0.184038 0.146484 0.136064 0.135772 0.13998 0.146831 0.153042 0.156608 0.158729 0.159578 0.15983 0.161423 0.172993 0.20015 0.246933 0.314307 0.377941 0.398533 0.378865 0.335214 0.279053 0.231312 0.196326 0.166493 0.118663 0 -0.0600117 0.0807037 0.239595 0.2635 0.255548 0.229609 0.189755 0.175699 0.177099 0.181617 0.188815 0.195689 0.199719 0.201417 0.201631 0.201062 0.200883 0.209422 0.235086 0.283325 0.357408 0.439283 0.47963 0.467076 0.42253 0.358122 0.298245 0.252869 0.214377 0.154125 0 0.0193624 0.131601 0.251541 0.279183 0.277306 0.261536 0.233953 0.219508 0.218652 0.221561 0.22799 0.235563 0.240574 0.242847 0.243093 0.242043 0.240217 0.243371 0.264558 0.31043 0.385208 0.480556 0.547201 0.549746 0.50908 0.440748 0.369262 0.312421 0.264512 0.19221 0 0.105708 0.186838 0.278226 0.302527 0.298306 0.286918 0.269264 0.255562 0.254189 0.257105 0.263789 0.272579 0.278992 0.281972 0.282539 0.281528 0.278962 0.277888 0.292138 0.331031 0.400771 0.501206 0.595237 0.622853 0.591554 0.525257 0.444785 0.375536 0.317283 0.233368 0 0.184418 0.240477 0.305821 0.32867 0.329982 0.323137 0.308303 0.293606 0.290932 0.292884 0.298664 0.307406 0.315102 0.319022 0.320046 0.319269 0.316613 0.313568 0.319143 0.348145 0.408678 0.504852 0.618049 0.680927 0.667809 0.6097 0.524814 0.443045 0.373449 0.278305 0 0.251489 0.2933 0.337068 0.353285 0.356584 0.351676 0.342535 0.330933 0.328019 0.329422 0.33417 0.341977 0.349951 0.354612 0.356145 0.355769 0.353424 0.349629 0.348276 0.366161 0.41371 0.498323 0.616014 0.716343 0.734915 0.690679 0.607922 0.515682 0.434036 0.32793 0 0.308743 0.341635 0.369875 0.38108 0.388357 0.386405 0.380431 0.370819 0.366484 0.367018 0.370572 0.377253 0.384776 0.389548 0.391557 0.391521 0.389725 0.38601 0.38224 0.388153 0.420102 0.488574 0.597904 0.721627 0.783809 0.761662 0.689806 0.593363 0.500123 0.383395 0 0.358884 0.385119 0.402821 0.410019 0.417671 0.419089 0.415567 0.409602 0.405509 0.405589 0.408228 0.413623 0.420188 0.42471 0.426888 0.42715 0.425859 0.422586 0.418222 0.41674 0.433691 0.482612 0.573421 0.701374 0.805408 0.821289 0.768 0.674269 0.572417 0.446102 0 0.404037 0.424734 0.435693 0.440761 0.447386 0.451635 0.450388 0.447408 0.444847 0.444865 0.446963 0.451278 0.456682 0.460681 0.46274 0.46312 0.462182 0.459397 0.455235 0.451585 0.455515 0.484835 0.55355 0.666482 0.796838 0.860114 0.834693 0.753423 0.65044 0.517616 0 0.44557 0.46174 0.468753 0.472725 0.477928 0.483194 0.484429 0.483738 0.48335 0.484052 0.48619 0.489797 0.494157 0.497524 0.499324 0.499675 0.498892 0.496492 0.492745 0.488808 0.487555 0.50022 0.544605 0.633702 0.762803 0.870185 0.886091 0.827722 0.731417 0.599386 0 0.484619 0.497038 0.502031 0.50545 0.509607 0.514728 0.518051 0.519618 0.521086 0.522868 0.525379 0.528608 0.532186 0.534954 0.53647 0.536753 0.536047 0.533916 0.5306 0.527038 0.524577 0.526584 0.550298 0.612842 0.721748 0.85219 0.916839 0.889944 0.809653 0.691978 0 0.521851 0.531168 0.535237 0.538428 0.542024 0.54665 0.551455 0.555238 0.558358 0.561319 0.564293 0.567459 0.570436 0.572736 0.573984 0.574207 0.573573 0.571694 0.568781 0.565724 0.563396 0.562687 0.570671 0.607884 0.690611 0.814606 0.920421 0.93448 0.880676 0.793588 0 0.555189 0.56193 0.565887 0.569624 0.573679 0.578619 0.58454 0.590423 0.595172 0.599271 0.602859 0.60607 0.608769 0.610706 0.611743 0.611915 0.611381 0.609794 0.607312 0.604775 0.602887 0.601765 0.603423 0.621068 0.675829 0.778156 0.901834 0.961797 0.939308 0.899022 0 0.559407 0.564847 0.572762 0.582666 0.593338 0.603759 0.613747 0.623164 0.630568 0.636223 0.640703 0.644234 0.646943 0.648744 0.649637 0.64979 0.649382 0.648124 0.646133 0.644162 0.642755 0.642016 0.642344 0.64753 0.679252 0.755875 0.871538 0.966645 0.976835 0.999438 0 0.480083 0.485808 0.499601 0.520454 0.546956 0.577351 0.608947 0.637298 0.657296 0.669088 0.676586 0.68148 0.684678 0.686638 0.687579 0.687771 0.687497 0.686592 0.685156 0.68378 0.682948 0.682759 0.68317 0.685432 0.700628 0.750416 0.846568 0.957044 1.00049 1.0882 0 0.305031 0.311736 0.334463 0.369272 0.41383 0.465648 0.521545 0.578874 0.632519 0.675948 0.70254 0.715001 0.721049 0.724075 0.725418 0.725819 0.725725 0.725226 0.724357 0.723666 0.723525 0.723877 0.72501 0.72743 0.733829 0.763288 0.836758 0.940652 1.01542 1.14716 0 -0.0134429 -0.00383306 0.0288368 0.0807947 0.149418 0.232277 0.325902 0.424601 0.520547 0.605329 0.675158 0.725001 0.750338 0.759241 0.762668 0.763856 0.764188 0.764131 0.763941 0.764014 0.764531 0.76567 0.767764 0.771009 0.776029 0.792692 0.841314 0.928222 1.02471 1.18863 0 -0.450087 -0.440965 -0.403585 -0.344393 -0.262335 -0.155576 -0.0256398 0.122426 0.27802 0.426952 0.556731 0.659387 0.73392 0.778965 0.796348 0.801073 0.802793 0.80352 0.80414 0.80498 0.806295 0.808377 0.811398 0.81559 0.821875 0.832909 0.861465 0.92729 1.036 1.23117 0 -0.870356 -0.862651 -0.83071 -0.780442 -0.710177 -0.614306 -0.485635 -0.321157 -0.12405 0.0904888 0.29909 0.481875 0.62648 0.729944 0.797467 0.830666 0.840167 0.843253 0.845067 0.846819 0.849051 0.852015 0.85595 0.861833 0.870288 0.878623 0.892683 0.944283 1.05737 1.26451 0 -1.15274 -1.14646 -1.11868 -1.08293 -1.03815 -0.976697 -0.886267 -0.757062 -0.583513 -0.365305 -0.113408 0.145591 0.379484 0.569767 0.709266 0.802885 0.858722 0.880582 0.886103 0.88955 0.892812 0.896687 0.902348 0.910559 0.918187 0.924628 0.944033 0.99531 1.08505 1.26775 0 -1.26668 -1.25419 -1.22198 -1.19385 -1.17438 -1.15098 -1.10755 -1.0329 -0.919412 -0.759838 -0.551715 -0.299509 -0.0193268 0.252168 0.483959 0.664108 0.789852 0.871925 0.917218 0.93208 0.937385 0.943568 0.951539 0.958788 0.964912 0.980661 1.02616 1.05955 1.08671 1.20388 0 -1.23281 -1.20371 -1.15729 -1.13986 -1.14366 -1.14783 -1.14097 -1.11126 -1.05139 -0.959091 -0.83085 -0.659415 -0.438711 -0.174804 0.107378 0.36778 0.585377 0.749857 0.862687 0.93746 0.978469 0.993825 1.00016 1.00608 1.02194 1.06787 1.09425 1.07689 1.04068 1.00751 0 -1.0235 -0.974337 -0.943373 -0.946655 -0.965014 -0.984914 -1.00032 -1.00458 -0.994415 -0.962506 -0.901513 -0.807392 -0.680456 -0.51236 -0.294565 -0.0361935 0.229208 0.469751 0.671755 0.82457 0.93051 1.00017 1.03929 1.07009 1.11519 1.13294 1.10928 1.03972 0.900031 0.652027 0 -0.690144 -0.657419 -0.695725 -0.698776 -0.722744 -0.747164 -0.762938 -0.775217 -0.783755 -0.787729 -0.783134 -0.76198 -0.712535 -0.628141 -0.508851 -0.351649 -0.148749 0.0899116 0.330236 0.551098 0.740485 0.889076 1.00351 1.08915 1.12805 1.12337 1.06283 0.905742 0.613097 0.26477 0 -0.246689 -0.345392 -0.459036 -0.452492 -0.486937 -0.498366 -0.505348 -0.511181 -0.515973 -0.522492 -0.532104 -0.543149 -0.550243 -0.544511 -0.512061 -0.441675 -0.332362 -0.188652 -0.0105189 0.192964 0.408465 0.620057 0.812233 0.957304 1.0296 1.0228 0.904657 0.61817 0.259415 0.0603372 0 0.398936 -0.117334 -0.248952 -0.244107 -0.283606 -0.266412 -0.275367 -0.271619 -0.267313 -0.264411 -0.263573 -0.265662 -0.272054 -0.283166 -0.295645 -0.301342 -0.287784 -0.237494 -0.146132 -0.0241217 0.117234 0.279136 0.456051 0.62682 0.752496 0.769142 0.590809 0.259359 0.0601202 0.00594196 0 4.87106 0 0 0 0 0 0 0 0 0 0 0 0 0 0 0 0 0 0 0 0 0 0 0 0 0 0 0 0 0 0
				</DataArray>
			</PointData>
			<CellData Scalars="Density">
				<DataArray Name="Density" type="Float32" format="ascii">