<?xml version="1.0"?>
<VTKFile type="PolyData">
	<PolyData>
		<Piece NumberOfPoints="961" NumberOfPolys="900">
			<Points>
				<DataArray type="Float32" NumberOfComponents="3" format="ascii">
 0 0 0 0.04 0 0 0.08 0 0 0.12 0 0 0.16 0 0 0.2 0 0 0.24 0 0 0.28 0 0 0.32 0 0 0.36 0 0 0.4 0 0 0.44 0 0 0.48 0 0 0.52 0 0 0.56 0 0 0.6 0 0 0.64 0 0 0.68 0 0 0.72 0 0 0.76 0 0 0.8 0 0 0.84 0 0 0.88 0 0 0.92 0 0 0.96 0 0 1 0 0 1.04 0 0 1.08 0 0 1.12 0 0 1.16 0 0 1.2 0 0 0 0.04 0 0.04 0.04 0 0.08 0.04 0 0.12 0.04 0 0.16 0.04 0 0.2 0.04 0 0.24 0.04 0 0.28 0.04 0 0.32 0.04 0 0.36 0.04 0 0.4 0.04 0 0.44 0.04 0 0.48 0.04 0 0.52 0.04 0 0.56 0.04 0 0.6 0.04 0 0.64 0.04 0 0.68 0.04 0 0.72 0.04 0 0.76 0.04 0 0.8 0.04 0 0.84 0.04 0 0.88 0.04 0 0.92 0.04 0 0.96 0.04 0 1 0.04 0 1.04 0.04 0 1.08 0.04 0 1.12 0.04 0 1.16 0.04 0 1.2 0.04 0 0 0.08 0 0.04 0.08 0 0.08 0.08 0 0.12 0.08 0 0.16 0.08 0 0.2 0.08 0 0.24 0.08 0 0.28 0.08 0 0.32 0.08 0 0.36 0.08 0 0.4 0.08 0 0.44 0.08 0 0.48 0.08 0 0.52 0.08 0 0.56 0.08 0 0.6 0.08 0 0.64 0.08 0 0.68 0.08 0 0.72 0.08 0 0.76 0.08 0 0.8 0.08 0 0.84 0.08 0 0.88 0.08 0 0.92 0.08 0 0.96 0.08 0 1 0.08 0 1.04 0.08 0 1.08 0.08 0 1.12 0.08 0 1.16 0.08 0 1.2 0.08 0 0 0.12 0 0.04 0.12 0 0.08 0.12 0 0.12 0.12 0 0.16 0.12 0 0.2 0.12 0 0.24 0.12 0 0.28 0.12 0 0.32 0.12 0 0.36 0.12 0 0.4 0.12 0 0.44 0.12 0 0.48 0.12 0 0.52 0.12 0 0.56 0.12 0 0.6 0.12 0 0.64 0.12 0 0.68 0.12 0 0.72 0.12 0 0.76 0.12 0 0.8 0.12 0 0.84 0.12 0 0.88 0.12 0 0.92 0.12 0 0.96 0.12 0 1 0.12 0 1.04 0.12 0 1.08 0.12 0 1.12 0.12 0 1.16 0.12 0 1.2 0.12 0 0 0.16 0 0.04 0.16 0 0.08 0.16 0 0.12 0.16 0 0.16 0.16 0 0.2 0.16 0 0.24 0.16 0 0.28 0.16 0 0.32 0.16 0 0.36 0.16 0 0.4 0.16 0 0.44 0.16 0 0.48 0.16 0 0.52 0.16 0 0.56 0.16 0 0.6 0.16 0 0.64 0.16 0 0.68 0.16 0 0.72 0.16 0 0.76 0.16 0 0.8 0.16 0 0.84 0.16 0 0.88 0.16 0 0.92 0.16 0 0.96 0.16 0 1 0.16 0 1.04 0.16 0 1.08 0.16 0 1.12 0.16 0 1.16 0.16 0 1.2 0.16 0 0 0.2 0 0.04 0.2 0 0.08 0.2 0 0.12 0.2 0 0.16 0.2 0 0.2 0.2 0 0.24 0.2 0 0.28 0.2 0 0.32 0.2 0 0.36 0.2 0 0.4 0.2 0 0.44 0.2 0 0.48 0.2 0 0.52 0.2 0 0.56 0.2 0 0.6 0.2 0 0.64 0.2 0 0.68 0.2 0 0.72 0.2 0 0.76 0.2 0 0.8 0.2 0 0.84 0.2 0 0.88 0.2 0 0.92 0.2 0 0.96 0.2 0 1 0.2 0 1.04 0.2 0 1.08 0.2 0 1.12 0.2 0 1.16 0.2 0 1.2 0.2 0 0 0.24 0 0.04 0.24 0 0.08 0.24 0 0.12 0.24 0 0.16 0.24 0 0.2 0.24 0 0.24 0.24 0 0.28 0.24 0 0.32 0.24 0 0.36 0.24 0 0.4 0.24 0 0.44 0.24 0 0.48 0.24 0 0.52 0.24 0 0.56 0.24 0 0.6 0.24 0 0.64 0.24 0 0.68 0.24 0 0.72 0.24 0 0.76 0.24 0 0.8 0.24 0 0.84 0.24 0 0.88 0.24 0 0.92 0.24 0 0.96 0.24 0 1 0.24 0 1.04 0.24 0 1.08 0.24 0 1.12 0.24 0 1.16 0.24 0 1.2 0.24 0 0 0.28 0 0.04 0.28 0 0.08 0.28 0 0.12 0.28 0 0.16 0.28 0 0.2 0.28 0 0.24 0.28 0 0.28 0.28 0 0.32 0.28 0 0.36 0.28 0 0.4 0.28 0 0.44 0.28 0 0.48 0.28 0 0.52 0.28 0 0.56 0.28 0 0.6 0.28 0 0.64 0.28 0 0.68 0.28 0 0.72 0.28 0 0.76 0.28 0 0.8 0.28 0 0.84 0.28 0 0.88 0.28 0 0.92 0.28 0 0.96 0.28 0 1 0.28 0 1.04 0.28 0 1.08 0.28 0 1.12 0.28 0 1.16 0.28 0 1.2 0.28 0 0 0.32 0 0.04 0.32 0 0.08 0.32 0 0.12 0.32 0 0.16 0.32 0 0.2 0.32 0 0.24 0.32 0 0.28 0.32 0 0.32 0.32 0 0.36 0.32 0 0.4 0.32 0 0.44 0.32 0 0.48 0.32 0 0.52 0.32 0 0.56 0.32 0 0.6 0.32 0 0.64 0.32 0 0.68 0.32 0 0.72 0.32 0 0.76 0.32 0 0.8 0.32 0 0.84 0.32 0 0.88 0.32 0 0.92 0.32 0 0.96 0.32 0 1 0.32 0 1.04 0.32 0 1.08 0.32 0 1.12 0.32 0 1.16 0.32 0 1.2 0.32 0 0 0.36 0 0.04 0.36 0 0.08 0.36 0 0.12 0.36 0 0.16 0.36 0 0.2 0.36 0 0.24 0.36 0 0.28 0.36 0 0.32 0.36 0 0.36 0.36 0 0.4 0.36 0 0.44 0.36 0 0.48 0.36 0 0.52 0.36 0 0.56 0.36 0 0.6 0.36 0 0.64 0.36 0 0.68 0.36 0 0.72 0.36 0 0.76 0.36 0 0.8 0.36 0 0.84 0.36 0 0.88 0.36 0 0.92 0.36 0 0.96 0.36 0 1 0.36 0 1.04 0.36 0 1.08 0.36 0 1.12 0.36 0 1.16 0.36 0 1.2 0.36 0 0 0.4 0 0.04 0.4 0 0.08 0.4 0 0.12 0.4 0 0.16 0.4 0 0.2 0.4 0 0.24 0.4 0 0.28 0.4 0 0.32 0.4 0 0.36 0.4 0 0.4 0.4 0 0.44 0.4 0 0.48 0.4 0 0.52 0.4 0 0.56 0.4 0 0.6 0.4 0 0.64 0.4 0 0.68 0.4 0 0.72 0.4 0 0.76 0.4 0 0.8 0.4 0 0.84 0.4 0 0.88 0.4 0 0.92 0.4 0 0.96 0.4 0 1 0.4 0 1.04 0.4 0 1.08 0.4 0 1.12 0.4 0 1.16 0.4 0 1.2 0.4 0 0 0.44 0 0.04 0.44 0 0.08 0.44 0 0.12 0.44 0 0.16 0.44 0 0.2 0.44 0 0.24 0.44 0 0.28 0.44 0 0.32 0.44 0 0.36 0.44 0 0.4 0.44 0 0.44 0.44 0 0.48 0.44 0 0.52 0.44 0 0.56 0.44 0 0.6 0.44 0 0.64 0.44 0 0.68 0.44 0 0.72 0.44 0 0.76 0.44 0 0.8 0.44 0 0.84 0.44 0 0.88 0.44 0 0.92 0.44 0 0.96 0.44 0 1 0.44 0 1.04 0.44 0 1.08 0.44 0 1.12 0.44 0 1.16 0.44 0 1.2 0.44 0 0 0.48 0 0.04 0.48 0 0.08 0.48 0 0.12 0.48 0 0.16 0.48 0 0.2 0.48 0 0.24 0.48 0 0.28 0.48 0 0.32 0.48 0 0.36 0.48 0 0.4 0.48 0 0.44 0.48 0 0.48 0.48 0 0.52 0.48 0 0.56 0.48 0 0.6 0.48 0 0.64 0.48 0 0.68 0.48 0 0.72 0.48 0 0.76 0.48 0 0.8 0.48 0 0.84 0.48 0 0.88 0.48 0 0.92 0.48 0 0.96 0.48 0 1 0.48 0 1.04 0.48 0 1.08 0.48 0 1.12 0.48 0 1.16 0.48 0 1.2 0.48 0 0 0.52 0 0.04 0.52 0 0.08 0.52 0 0.12 0.52 0 0.16 0.52 0 0.2 0.52 0 0.24 0.52 0 0.28 0.52 0 0.32 0.52 0 0.36 0.52 0 0.4 0.52 0 0.44 0.52 0 0.48 0.52 0 0.52 0.52 0 0.56 0.52 0 0.6 0.52 0 0.64 0.52 0 0.68 0.52 0 0.72 0.52 0 0.76 0.52 0 0.8 0.52 0 0.84 0.52 0 0.88 0.52 0 0.92 0.52 0 0.96 0.52 0 1 0.52 0 1.04 0.52 0 1.08 0.52 0 1.12 0.52 0 1.16 0.52 0 1.2 0.52 0 0 0.56 0 0.04 0.56 0 0.08 0.56 0 0.12 0.56 0 0.16 0.56 0 0.2 0.56 0 0.24 0.56 0 0.28 0.56 0 0.32 0.56 0 0.36 0.56 0 0.4 0.56 0 0.44 0.56 0 0.48 0.56 0 0.52 0.56 0 0.56 0.56 0 0.6 0.56 0 0.64 0.56 0 0.68 0.56 0 0.72 0.56 0 0.76 0.56 0 0.8 0.56 0 0.84 0.56 0 0.88 0.56 0 0.92 0.56 0 0.96 0.56 0 1 0.56 0 1.04 0.56 0 1.08 0.56 0 1.12 0.56 0 1.16 0.56 0 1.2 0.56 0 0 0.6 0 0.04 0.6 0 0.08 0.6 0 0.12 0.6 0 0.16 0.6 0 0.2 0.6 0 0.24 0.6 0 0.28 0.6 0 0.32 0.6 0 0.36 0.6 0 0.4 0.6 0 0.44 0.6 0 0.48 0.6 0 0.52 0.6 0 0.56 0.6 0 0.6 0.6 0 0.64 0.6 0 0.68 0.6 0 0.72 0.6 0 0.76 0.6 0 0.8 0.6 0 0.84 0.6 0 0.88 0.6 0 0.92 0.6 0 0.96 0.6 0 1 0.6 0 1.04 0.6 0 1.08 0.6 0 1.12 0.6 0 1.16 0.6 0 1.2 0.6 0 0 0.64 0 0.04 0.64 0 0.08 0.64 0 0.12 0.64 0 0.16 0.64 0 0.2 0.64 0 0.24 0.64 0 0.28 0.64 0 0.32 0.64 0 0.36 0.64 0 0.4 0.64 0 0.44 0.64 0 0.48 0.64 0 0.52 0.64 0 0.56 0.64 0 0.6 0.64 0 0.64 0.64 0 0.68 0.64 0 0.72 0.64 0 0.76 0.64 0 0.8 0.64 0 0.84 0.64 0 0.88 0.64 0 0.92 0.64 0 0.96 0.64 0 1 0.64 0 1.04 0.64 0 1.08 0.64 0 1.12 0.64 0 1.16 0.64 0 1.2 0.64 0 0 0.68 0 0.04 0.68 0 0.08 0.68 0 0.12 0.68 0 0.16 0.68 0 0.2 0.68 0 0.24 0.68 0 0.28 0.68 0 0.32 0.68 0 0.36 0.68 0 0.4 0.68 0 0.44 0.68 0 0.48 0.68 0 0.52 0.68 0 0.56 0.68 0 0.6 0.68 0 0.64 0.68 0 0.68 0.68 0 0.72 0.68 0 0.76 0.68 0 0.8 0.68 0 0.84 0.68 0 0.88 0.68 0 0.92 0.68 0 0.96 0.68 0 1 0.68 0 1.04 0.68 0 1.08 0.68 0 1.12 0.68 0 1.16 0.68 0 1.2 0.68 0 0 0.72 0 0.04 0.72 0 0.08 0.72 0 0.12 0.72 0 0.16 0.72 0 0.2 0.72 0 0.24 0.72 0 0.28 0.72 0 0.32 0.72 0 0.36 0.72 0 0.4 0.72 0 0.44 0.72 0 0.48 0.72 0 0.52 0.72 0 0.56 0.72 0 0.6 0.72 0 0.64 0.72 0 0.68 0.72 0 0.72 0.72 0 0.76 0.72 0 0.8 0.72 0 0.84 0.72 0 0.88 0.72 0 0.92 0.72 0 0.96 0.72 0 1 0.72 0 1.04 0.72 0 1.08 0.72 0 1.12 0.72 0 1.16 0.72 0 1.2 0.72 0 0 0.76 0 0.04 0.76 0 0.08 0.76 0 0.12 0.76 0 0.16 0.76 0 0.2 0.76 0 0.24 0.76 0 0.28 0.76 0 0.32 0.76 0 0.36 0.76 0 0.4 0.76 0 0.44 0.76 0 0.48 0.76 0 0.52 0.76 0 0.56 0.76 0 0.6 0.76 0 0.64 0.76 0 0.68 0.76 0 0.72 0.76 0 0.76 0.76 0 0.8 0.76 0 0.84 0.76 0 0.88 0.76 0 0.92 0.76 0 0.96 0.76 0 1 0.76 0 1.04 0.76 0 1.08 0.76 0 1.12 0.76 0 1.16 0.76 0 1.2 0.76 0 0 0.8 0 0.04 0.8 0 0.08 0.8 0 0.12 0.8 0 0.16 0.8 0 0.2 0.8 0 0.24 0.8 0 0.28 0.8 0 0.32 0.8 0 0.36 0.8 0 0.4 0.8 0 0.44 0.8 0 0.48 0.8 0 0.52 0.8 0 0.56 0.8 0 0.6 0.8 0 0.64 0.8 0 0.68 0.8 0 0.72 0.8 0 0.76 0.8 0 0.8 0.8 0 0.84 0.8 0 0.88 0.8 0 0.92 0.8 0 0.96 0.8 0 1 0.8 0 1.04 0.8 0 1.08 0.8 0 1.12 0.8 0 1.16 0.8 0 1.2 0.8 0 0 0.84 0 0.04 0.84 0 0.08 0.84 0 0.12 0.84 0 0.16 0.84 0 0.2 0.84 0 0.24 0.84 0 0.28 0.84 0 0.32 0.84 0 0.36 0.84 0 0.4 0.84 0 0.44 0.84 0 0.48 0.84 0 0.52 0.84 0 0.56 0.84 0 0.6 0.84 0 0.64 0.84 0 0.68 0.84 0 0.72 0.84 0 0.76 0.84 0 0.8 0.84 0 0.84 0.84 0 0.88 0.84 0 0.92 0.84 0 0.96 0.84 0 1 0.84 0 1.04 0.84 0 1.08 0.84 0 1.12 0.84 0 1.16 0.84 0 1.2 0.84 0 0 0.88 0 0.04 0.88 0 0.08 0.88 0 0.12 0.88 0 0.16 0.88 0 0.2 0.88 0 0.24 0.88 0 0.28 0.88 0 0.32 0.88 0 0.36 0.88 0 0.4 0.88 0 0.44 0.88 0 0.48 0.88 0 0.52 0.88 0 0.56 0.88 0 0.6 0.88 0 0.64 0.88 0 0.68 0.88 0 0.72 0.88 0 0.76 0.88 0 0.8 0.88 0 0.84 0.88 0 0.88 0.88 0 0.92 0.88 0 0.96 0.88 0 1 0.88 0 1.04 0.88 0 1.08 0.88 0 1.12 0.88 0 1.16 0.88 0 1.2 0.88 0 0 0.92 0 0.04 0.92 0 0.08 0.92 0 0.12 0.92 0 0.16 0.92 0 0.2 0.92 0 0.24 0.92 0 0.28 0.92 0 0.32 0.92 0 0.36 0.92 0 0.4 0.92 0 0.44 0.92 0 0.48 0.92 0 0.52 0.92 0 0.56 0.92 0 0.6 0.92 0 0.64 0.92 0 0.68 0.92 0 0.72 0.92 0 0.76 0.92 0 0.8 0.92 0 0.84 0.92 0 0.88 0.92 0 0.92 0.92 0 0.96 0.92 0 1 0.92 0 1.04 0.92 0 1.08 0.92 0 1.12 0.92 0 1.16 0.92 0 1.2 0.92 0 0 0.96 0 0.04 0.96 0 0.08 0.96 0 0.12 0.96 0 0.16 0.96 0 0.2 0.96 0 0.24 0.96 0 0.28 0.96 0 0.32 0.96 0 0.36 0.96 0 0.4 0.96 0 0.44 0.96 0 0.48 0.96 0 0.52 0.96 0 0.56 0.96 0 0.6 0.96 0 0.64 0.96 0 0.68 0.96 0 0.72 0.96 0 0.76 0.96 0 0.8 0.96 0 0.84 0.96 0 0.88 0.96 0 0.92 0.96 0 0.96 0.96 0 1 0.96 0 1.04 0.96 0 1.08 0.96 0 1.12 0.96 0 1.16 0.96 0 1.2 0.96 0 0 1 0 0.04 1 0 0.08 1 0 0.12 1 0 0.16 1 0 0.2 1 0 0.24 1 0 0.28 1 0 0.32 1 0 0.36 1 0 0.4 1 0 0.44 1 0 0.48 1 0 0.52 1 0 0.56 1 0 0.6 1 0 0.64 1 0 0.68 1 0 0.72 1 0 0.76 1 0 0.8 1 0 0.84 1 0 0.88 1 0 0.92 1 0 0.96 1 0 1 1 0 1.04 1 0 1.08 1 0 1.12 1 0 1.16 1 0 1.2 1 0 0 1.04 0 0.04 1.04 0 0.08 1.04 0 0.12 1.04 0 0.16 1.04 0 0.2 1.04 0 0.24 1.04 0 0.28 1.04 0 0.32 1.04 0 0.36 1.04 0 0.4 1.04 0 0.44 1.04 0 0.48 1.04 0 0.52 1.04 0 0.56 1.04 0 0.6 1.04 0 0.64 1.04 0 0.68 1.04 0 0.72 1.04 0 0.76 1.04 0 0.8 1.04 0 0.84 1.04 0 0.88 1.04 0 0.92 1.04 0 0.96 1.04 0 1 1.04 0 1.04 1.04 0 1.08 1.04 0 1.12 1.04 0 1.16 1.04 0 1.2 1.04 0 0 1.08 0 0.04 1.08 0 0.08 1.08 0 0.12 1.08 0 0.16 1.08 0 0.2 1.08 0 0.24 1.08 0 0.28 1.08 0 0.32 1.08 0 0.36 1.08 0 0.4 1.08 0 0.44 1.08 0 0.48 1.08 0 0.52 1.08 0 0.56 1.08 0 0.6 1.08 0 0.64 1.08 0 0.68 1.08 0 0.72 1.08 0 0.76 1.08 0 0.8 1.08 0 0.84 1.08 0 0.88 1.08 0 0.92 1.08 0 0.96 1.08 0 1 1.08 0 1.04 1.08 0 1.08 1.08 0 1.12 1.08 0 1.16 1.08 0 1.2 1.08 0 0 1.12 0 
[...]
			<PointData Scalars="VitesseX">
				<DataArray Name="VitesseX" type="Float32" format="ascii">
 0 -0.693938 3.03468 2.34881 5.21316 9.95727 8.53029 4.35899 0.525867 0.00259172 3.13903e-08 -1.01989e-12 1.07753e-12 -9.57117e-17 -1.07755e-12 1.07755e-12 7.87985e-31 -1.07755e-12 1.07755e-12 9.5712e-17 -1.07765e-12 1.07732e-12 -1.07732e-12 -1.31395e-19 1.07755e-12 9.57118e-17 -1.07774e-12 1.07756e-12 -3.63665e-12 3.63665e-12 0 0 1.56495 4.72418 2.49905 6.12125 9.74114 8.08221 3.85752 0.415089 0.00187832 2.30024e-08 -1.02772e-12 1.07733e-12 -2.46349e-17 -1.07739e-12 1.07743e-12 3.61271e-17 -1.07747e-12 1.07742e-12 -1.05796e-17 -1.07749e-12 1.07735e-12 -1.07725e-12 -2.45005e-16 1.07749e-12 -3.5726e-17 -1.07734e-12 1.07754e-12 -3.63659e-12 3.63637e-12 0 0 2.05557 3.21535 3.04593 8.11383 9.17739 6.94384 2.5986 0.200335 0.000712754 9.45449e-09 3.1453e-14 -1.27974e-12 1.81836e-12 -2.35699e-12 1.81817e-12 5.38675e-13 -2.35683e-12 2.35689e-12 -5.38749e-13 -1.81819e-12 2.35693e-12 -5.38669e-13 -2.05389e-16 -1.27949e-12 -8.35819e-17 1.27985e-12 5.38089e-13 -3.63617e-12 1.81834e-12 0 0 1.34983 2.18869 5.56476 8.40689 7.78162 4.72462 1.15761 0.0561746 0.000132923 2.23628e-09 -1.26636e-12 3.61547e-16 -3.71868e-16 1.0349e-16 1.27957e-12 -1.27949e-12 1.61279e-16 -5.37767e-17 1.27932e-12 -1.27954e-12 1.81765e-12 -1.81754e-12 -3.16956e-16 1.24186e-17 4.03146e-16 -1.1116e-15 5.99548e-16 -1.81816e-12 1.81855e-12 0 0 1.56904 3.64747 6.21125 6.84589 5.1885 2.11164 0.315016 0.00843397 1.02194e-05 2.93595e-10 3.24079e-15 3.70015e-16 -7.61036e-16 5.36545e-16 1.81796e-12 -1.81826e-12 4.83284e-16 -1.37389e-16 1.81803e-12 -1.81815e-12 -5.88881e-16 6.70653e-16 -1.81852e-12 1.81818e-12 3.52041e-16 -9.98613e-16 -1.81732e-12 -3.25367e-16 1.81847e-12 0 0 1.84589 3.72472 4.8044 4.16519 2.21277 0.557564 0.0437361 0.000519244 2.45943e-07 1.92322e-11 1.81816e-12 -3.636e-12 3.63608e-12 -3.63603e-12 1.81788e-12 1.81826e-12 -3.63623e-12 1.81817e-12 -4.32212e-17 -1.81813e-12 1.81851e-12 -5.71132e-16 5.4707e-16 -1.81875e-12 2.06517e-16 1.81799e-12 -4.73076e-16 -1.81839e-12 8.70603e-16 0 0 1.47596 2.48599 2.46372 1.55271 0.507327 0.0661122 0.00226288 8.48951e-06 2.12937e-09 2.24399e-12 -2.64763e-17 -3.63591e-12 1.81807e-12 6.8799e-17 -4.25668e-16 6.45431e-16 -1.81831e-12 3.07324e-17 1.81797e-12 2.6817e-17 -4.56587e-16 9.56135e-17 7.76541e-16 -1.81879e-12 -4.63263e-16 1.81851e-12 -1.05737e-11 1.05728e-11 -1.81798e-12 0 0 0.643464 0.89449 0.657127 0.242686 0.0400623 0.00223241 2.30244e-05 2.41386e-08 1.84731e-11 1.82168e-12 -4.51117e-12 2.69364e-12 -1.81817e-12 1.81801e-12 -2.28142e-16 -1.81824e-12 1.81859e-12 -1.81865e-12 1.81874e-12 -1.73856e-15 6.35917e-16 -5.31948e-12 3.50187e-12 1.81863e-12 -1.18771e-15 -1.05724e-11 3.38648e-16 -8.38182e-16 1.05731e-11 0 0 0.0964432 0.0933079 0.0389301 0.00734888 0.000501905 8.44348e-06 2.40602e-08 5.71441e-11 -3.58836e-12 1.81783e-12 -2.69339e-12 2.69314e-12 -1.81771e-12 1.81786e-12 -1.81799e-12 1.8173e-12 9.81386e-16 -7.1044e-16 -7.13782e-12 7.13678e-12 -1.0572e-11 5.25313e-12 3.50182e-12 1.81853e-12 -2.09721e-16 -1.05736e-11 -2.45776e-16 4.2622e-16 1.05716e-11 0 0 0.000576487 0.000433076 0.000110817 9.70158e-06 2.41674e-07 2.09313e-09 1.83847e-11 4.66256e-14 -5.62783e-16 -1.81708e-12 1.81803e-12 -1.81833e-12 1.81835e-12 -5.3203e-12 5.31993e-12 6.51852e-17 -1.81862e-12 3.63583e-12 -7.13721e-12 -5.25322e-12 2.31945e-16 1.0572e-11 -1.81683e-12 -4.77399e-16 2.57101e-16 1.81778e-12 -1.05739e-11 6.82704e-16 8.75335e-12 0 0 6.69631e-09 5.33405e-09 1.67888e-09 2.55946e-10 1.8388e-11 2.23531e-12 -1.81355e-12 -1.81812e-12 1.81707e-12 -1.817e-12 1.81772e-12 -1.81773e-12 3.63497e-12 -7.13758e-12 5.31901e-12 -1.81624e-12 -1.95341e-15 1.81872e-12 -4.7898e-16 -1.23905e-11 1.23908e-11 -1.81783e-12 1.8178e-12 -1.81733e-12 2.02942e-23 1.17092e-17 3.63644e-12 -1.42111e-11 1.23925e-11 0 0 7.82995e-15 1.04703e-14 -1.27248e-12 2.87285e-15 1.81804e-12 -1.17817e-16 -4.51154e-12 2.69379e-12 -1.81832e-12 1.81816e-12 -2.27701e-16 -1.81849e-12 3.63592e-12 -7.13784e-12 3.50046e-12 1.82015e-12 -1.81968e-12 7.93086e-16 -2.04222e-15 2.51572e-15 1.81717e-12 -1.81771e-12 1.81748e-12 -1.81692e-12 1.31051e-16 -2.67664e-15 3.63739e-12 -3.63723e-12 -8.75335e-12 0 0 -1.92543e-16 -1.2794e-12 -3.11978e-16 3.077e-16 -8.42487e-16 6.59041e-16 -2.69391e-12 2.69345e-12 -1.81802e-12 1.81816e-12 -1.81894e-12 1.81872e-12 -1.05731e-11 5.25318e-12 5.31885e-12 -1.05722e-11 1.05729e-11 -1.23919e-11 1.23914e-11 9.85268e-16 -1.05729e-11 1.05717e-11 -1.23907e-11 1.23916e-11 9.81317e-16 -4.06391e-15 -3.15862e-11 3.15868e-11 -1.05736e-11 0 0 -3.15821e-16 -1.81797e-12 -3.71851e-16 -1.3127e-17 -4.49374e-17 -1.81806e-12 1.81811e-12 -1.8186e-12 1.8186e-12 -1.24167e-15 6.54059e-16 -1.05727e-11 -2.22165e-15 1.05751e-11 -6.68068e-16 -1.05722e-11 -1.22295e-15 1.14222e-15 1.05727e-11 -4.68503e-16 -1.05724e-11 1.05708e-11 -1.0571e-11 -7.41745e-16 7.42776e-16 1.23864e-11 -3.34031e-11 3.34017e-11 -1.23881e-11 0 0 -7.93398e-17 -1.27943e-12 -5.52455e-16 2.11365e-16 1.10154e-17 -3.07559e-17 -1.81822e-12 1.81804e-12 -5.32015e-12 7.13686e-12 -7.13675e-12 -5.25334e-12 1.05713e-11 -1.81619e-12 -1.15907e-15 1.81946e-12 -1.05746e-11 1.31489e-15 8.75423e-12 1.8169e-12 1.8342e-15 -1.82183e-12 -8.75229e-12 -6.6034e-16 -6.02368e-16 -2.68619e-15 1.23939e-11 -1.2394e-11 5.43385e-15 0 0 -3.41358e-17 -1.81834e-12 2.35684e-12 -1.81836e-12 -1.81806e-12 3.63584e-12 -3.63595e-12 1.81786e-12 -5.32021e-12 5.31872e-12 -7.13743e-12 8.95675e-12 -3.63639e-12 -3.64914e-16 9.64743e-24 -3.78812e-16 1.81853e-12 -1.05729e-11 8.75417e-12 -8.75594e-12 1.05756e-11 -1.23939e-11 1.81885e-12 1.23883e-11 4.98591e-16 -2.47797e-11 2.47814e-11 -2.47811e-11 2.47838e-11 0 0 -1.18209e-16 -5.38872e-13 -1.27939e-12 1.81749e-12 -1.81748e-12 -6.56915e-16 -1.81814e-12 1.81783e-12 5.06258e-16 -1.81922e-12 1.81835e-12 -1.0573e-11 1.05738e-11 -1.81942e-12 3.75036e-16 1.81841e-12 -1.81849e-12 1.81769e-12 -1.81811e-12 -8.75783e-12 3.27271e-15 -8.36634e-16 1.23917e-11 -1.23937e-11 6.2181e-16 -1.31893e-15 1.23934e-11 -1.23939e-11 3.58079e-15 0 0 2.20408e-18 -1.27972e-12 2.85544e-16 -6.31774e-16 4.44432e-16 -1.81827e-12 1.8175e-12 1.16458e-16 -1.81862e-12 2.67375e-16 1.81753e-12 -1.0572e-11 -1.25792e-15 1.05739e-11 -1.81966e-12 1.82022e-12 -1.81906e-12 1.81703e-12 -1.23919e-11 1.42082e-11 -2.47823e-11 2.4784e-11 -1.23914e-11 2.27253e-15 -3.71166e-15 1.23899e-11 -3.34032e-11 3.34028e-11 -1.23872e-11 0 0 -1.02355e-16 -1.27954e-12 1.79078e-16 -2.86916e-16 -1.81831e-12 2.67145e-16 1.81718e-12 7.61296e-16 -2.33217e-15 -1.81645e-12 -1.40427e-15 -8.75322e-12 -1.02102e-15 4.70601e-16 1.05727e-11 -1.81857e-12 1.8185e-12 -1.05748e-11 8.00325e-16 -2.10146e-11 2.10143e-11 -1.82154e-15 3.447e-15 -3.45611e-17 -3.02467e-15 1.23925e-11 -3.34083e-11 2.10174e-11 -6.13199e-17 0 0 6.71437e-14 -5.38671e-13 -1.27967e-12 1.81819e-12 -3.63655e-12 1.81839e-12 -1.81887e-12 -3.50181e-12 7.13738e-12 -3.63653e-12 -8.16585e-16 -8.75311e-12 1.05732e-11 -1.2392e-11 1.23909e-11 -1.81849e-12 -8.75606e-12 7.22612e-16 -1.91376e-15 -2.10123e-11 2.10143e-11 -1.70895e-15 3.65161e-15 -3.87222e-15 7.54808e-16 9.97518e-16 1.23892e-11 -2.47804e-11 1.23912e-11 0 0 6.7183e-14 -1.81812e-12 2.35653e-12 -1.81791e-12 -1.81851e-12 3.63652e-12 -3.638e-12 -3.50071e-12 -5.2531e-12 8.75344e-12 6.36936e-16 3.6373e-12 -3.63733e-12 1.81745e-12 -1.23915e-11 1.23897e-11 -1.05721e-11 -2.10133e-11 2.10118e-11 9.05678e-16 5.98194e-16 1.23891e-11 -2.47802e-11 2.47805e-11 2.98198e-16 -2.47799e-11 2.47808e-11 -1.23892e-11 1.23923e-11 0 0 -1.09581e-16 -1.27932e-12 1.8172e-12 -3.63542e-12 1.81813e-12 -9.29458e-16 -1.21926e-15 -1.05717e-11 1.11512e-16 8.75352e-12 1.81994e-12 -1.05736e-11 1.05727e-11 -1.02135e-15 -1.05721e-11 -3.80837e-15 1.92642e-15 -2.10136e-11 2.10143e-11 -2.1578e-15 3.09067e-15 -6.03153e-15 5.29056e-15 -9.82415e-16 2.06377e-16 1.26326e-15 1.23881e-11 -1.23877e-11 1.23919e-11 0 0 5.89071e-17 5.38681e-13 -1.81902e-12 7.67457e-16 -2.06613e-16 -9.00525e-16 -5.31973e-12 -5.2532e-12 1.05728e-11 -1.8185e-12 1.81847e-12 -1.05729e-11 1.05716e-11 -1.81836e-12 -8.7531e-12 -1.99531e-15 -6.83497e-16 -1.65529e-16 1.04705e-15 1.23883e-11 -2.47801e-11 1.23917e-11 -5.67824e-16 2.15513e-15 -3.54802e-15 1.23933e-11 -1.23916e-11 -1.23905e-11 2.47809e-11 0 0 -1.20466e-16 1.07748e-12 -3.63681e-12 1.81857e-12 -1.82608e-16 -2.83129e-17 -7.13909e-12 7.13872e-12 -1.81887e-12 1.81797e-12 -1.8182e-12 -8.75499e-12 1.05726e-11 -1.23933e-11 1.82089e-12 1.23899e-11 -1.23909e-11 -8.47572e-16 2.04629e-15 -5.6256e-15 4.14732e-15 -5.68205e-16 1.90653e-19 2.11292e-15 -3.32631e-15 -3.7645e-16 -2.57101e-15 3.42858e-15 -2.10171e-11 0 0 -4.25234e-16 -1.27915e-12 -7.76758e-16 -1.8175e-12 1.81802e-12 -1.81804e-12 1.81743e-12 -1.81794e-12 1.30066e-16 1.81674e-12 -1.81688e-12 -8.75595e-12 9.59225e-16 -2.88584e-15 1.23906e-11 -1.23889e-11 8.17452e-16 -3.37983e-17 -2.40053e-15 -5.7124e-16 3.01418e-15 -2.15589e-15 2.11369e-15 -2.48118e-15 3.71438e-16 -2.36608e-15 -2.10175e-11 3.34058e-11 -3.34012e-11 0 0 -6.16566e-16 -3.63599e-12 3.63605e-12 -3.63621e-12 -3.41449e-16 -3.89491e-16 3.63647e-12 -3.6361e-12 -2.54116e-16 1.63278e-17 3.81506e-16 3.63618e-12 -2.47838e-11 2.47806e-11 -2.80773e-15 -2.47774e-11 2.4781e-11 -2.47818e-11 2.47793e-11 1.6954e-15 -2.47809e-11 2.47811e-11 -2.4781e-11 2.47797e-11 -2.44704e-15 1.43544e-15 -6.68106e-11 6.68062e-11 3.8897e-15 0 0 -3.50753e-16 -1.27912e-12 -1.29514e-15 1.19898e-15 -1.81891e-12 1.81803e-12 -1.05736e-11 1.05737e-11 -1.81825e-12 -1.42245e-17 -2.14524e-15 3.63817e-12 -1.23955e-11 1.85913e-15 -2.38607e-18 -1.72206e-15 1.23921e-11 -1.23897e-11 -5.36879e-16 1.92914e-16 1.68089e-15 1.23868e-11 -2.47801e-11 2.47805e-11 -2.25831e-15 -3.34089e-11 7.95288e-15 -5.10229e-15 3.34074e-11 0 0 2.32563e-17 5.38249e-13 -3.63711e-12 1.81921e-12 -1.08696e-15 -1.05725e-11 1.48603e-17 -1.64655e-15 1.05748e-11 -5.15241e-16 -3.39038e-15 -3.15856e-11 3.34019e-11 -1.23877e-11 2.86399e-17 1.23887e-11 -3.34037e-11 3.34036e-11 -1.23877e-11 -1.93261e-15 1.23922e-11 -1.23915e-11 -6.38289e-15 -2.10101e-11 -1.0569e-15 -1.77179e-15 -2.02772e-15 6.05705e-15 -6.9672e-15 0 0 5.63585e-17 -8.17059e-16 -1.81752e-12 -4.60485e-16 1.81736e-12 -1.05729e-11 8.19506e-16 -1.77122e-15 1.55265e-15 1.05713e-11 -4.80995e-16 -3.1588e-11 3.34023e-11 -1.23868e-11 -3.20296e-16 1.23882e-11 -3.34032e-11 2.10125e-11 3.16695e-15 1.23899e-11 -1.23908e-11 -1.23909e-11 2.4776e-11 -3.34049e-11 1.00443e-15 3.43628e-15 -6.05705e-15 3.45085e-15 -4.2734e-15 0 0 -3.38159e-16 -1.81821e-12 1.81809e-12 -1.81832e-12 -4.4989e-16 1.81725e-12 -1.05719e-11 1.05708e-11 -1.2389e-11 1.23893e-11 -1.23905e-11 1.42058e-11 -1.23912e-11 4.54376e-15 -2.94273e-16 -4.85367e-15 1.23958e-11 -2.47848e-11 1.23939e-11 1.23915e-11 -1.23913e-11 -4.20562e-15 -2.10147e-11 3.34041e-11 -2.60423e-15 -3.34007e-11 -5.14689e-15 2.62831e-15 3.34095e-11 0 0 0 0 0 0 0 0 0 0 0 0 0 0 0 0 0 0 0 0 0 0 0 0 0 0 0 0 0 0 0 0
				</DataArray>
				<DataArray Name="VitesseY" type="Float32" format="ascii">