<?xml version="1.0"?>
<VTKFile type="PolyData">
	<PolyData>
		<Piece NumberOfPoints="961" NumberOfPolys="900">
			<Points>
				<DataArray type="Float32" NumberOfComponents="3" format="ascii">
 0 0 0 0.04 0 0 0.08 0 0 0.12 0 0 0.16 0 0 0.2 0 0 0.24 0 0 0.28 0 0 0.32 0 0 0.36 0 0 0.4 0 0 0.44 0 0 0.48 0 0 0.52 0 0 0.56 0 0 0.6 0 0 0.64 0 0 0.68 0 0 0.72 0 0 0.76 0 0 0.8 0 0 0.84 0 0 0.88 0 0 0.92 0 0 0.96 0 0 1 0 0 1.04 0 0 1.08 0 0 1.12 0 0 1.16 0 0 1.2 0 0 0 0.04 0 0.04 0.04 0 0.08 0.04 0 0.12 0.04 0 0.16 0.04 0 0.2 0.04 0 0.24 0.04 0 0.28 0.04 0 0.32 0.04 0 0.36 0.04 0 0.4 0.04 0 0.44 0.04 0 0.48 0.04 0 0.52 0.04 0 0.56 0.04 0 0.6 0.04 0 0.64 0.04 0 0.68 0.04 0 0.72 0.04 0 0.76 0.04 0 0.8 0.04 0 0.84 0.04 0 0.88 0.04 0 0.92 0.04 0 0.96 0.04 0 1 0.04 0 1.04 0.04 0 1.08 0.04 0 1.12 0.04 0 1.16 0.04 0 1.2 0.04 0 0 0.08 0 0.04 0.08 0 0.08 0.08 0 0.12 0.08 0 0.16 0.08 0 0.2 0.08 0 0.24 0.08 0 0.28 0.08 0 0.32 0.08 0 0.36 0.08 0 0.4 0.08 0 0.44 0.08 0 0.48 0.08 0 0.52 0.08 0 0.56 0.08 0 0.6 0.08 0 0.64 0.08 0 0.68 0.08 0 0.72 0.08 0 0.76 0.08 0 0.8 0.08 0 0.84 0.08 0 0.88 0.08 0 0.92 0.08 0 0.96 0.08 0 1 0.08 0 1.04 0.08 0 1.08 0.08 0 1.12 0.08 0 1.16 0.08 0 1.2 0.08 0 0 0.12 0 0.04 0.12 0 0.08 0.12 0 0.12 0.12 0 0.16 0.12 0 0.2 0.12 0 0.24 0.12 0 0.28 0.12 0 0.32 0.12 0 0.36 0.12 0 0.4 0.12 0 0.44 0.12 0 0.48 0.12 0 0.52 0.12 0 0.56 0.12 0 0.6 0.12 0 0.64 0.12 0 0.68 0.12 0 0.72 0.12 0 0.76 0.12 0 0.8 0.12 0 0.84 0.12 0 0.88 0.12 0 0.92 0.12 0 0.96 0.12 0 1 0.12 0 1.04 0.12 0 1.08 0.12 0 1.12 0.12 0 1.16 0.12 0 1.2 0.12 0 0 0.16 0 0.04 0.16 0 0.08 0.16 0 0.12 0.16 0 0.16 0.16 0 0.2 0.16 0 0.24 0.16 0 0.28 0.16 0 0.32 0.16 0 0.36 0.16 0 0.4 0.16 0 0.44 0.16 0 0.48 0.16 0 0.52 0.16 0 0.56 0.16 0 0.6 0.16 0 0.64 0.16 0 0.68 0.16 0 0.72 0.16 0 0.76 0.16 0 0.8 0.16 0 0.84 0.16 0 0.88 0.16 0 0.92 0.16 0 0.96 0.16 0 1 0.16 0 1.04 0.16 0 1.08 0.16 0 1.12 0.16 0 1.16 0.16 0 1.2 0.16 0 0 0.2 0 0.04 0.2 0 0.08 0.2 0 0.12 0.2 0 0.16 0.2 0 0.2 0.2 0 0.24 0.2 0 0.28 0.2 0 0.32 0.2 0 0.36 0.2 0 0.4 0.2 0 0.44 0.2 0 0.48 0.2 0 0.52 0.2 0 0.56 0.2 0 0.6 0.2 0 0.64 0.2 0 0.68 0.2 0 0.72 0.2 0 0.76 0.2 0 0.8 0.2 0 0.84 0.2 0 0.88 0.2 0 0.92 0.2 0 0.96 0.2 0 1 0.2 0 1.04 0.2 0 1.08 0.2 0 1.12 0.2 0 1.16 0.2 0 1.2 0.2 0 0 0.24 0 0.04 0.24 0 0.08 0.24 0 0.12 0.24 0 0.16 0.24 0 0.2 0.24 0 0.24 0.24 0 0.28 0.24 0 0.32 0.24 0 0.36 0.24 0 0.4 0.24 0 0.44 0.24 0 0.48 0.24 0 0.52 0.24 0 0.56 0.24 0 0.6 0.24 0 0.64 0.24 0 0.68 0.24 0 0.72 0.24 0 0.76 0.24 0 0.8 0.24 0 0.84 0.24 0 0.88 0.24 0 0.92 0.24 0 0.96 0.24 0 1 0.24 0 1.04 0.24 0 1.08 0.24 0 1.12 0.24 0 1.16 0.24 0 1.2 0.24 0 0 0.28 0 0.04 0.28 0 0.08 0.28 0 0.12 0.28 0 0.16 0.28 0 0.2 0.28 0 0.24 0.28 0 0.28 0.28 0 0.32 0.28 0 0.36 0.28 0 0.4 0.28 0 0.44 0.28 0 0.48 0.28 0 0.52 0.28 0 0.56 0.28 0 0.6 0.28 0 0.64 0.28 0 0.68 0.28 0 0.72 0.28 0 0.76 0.28 0 0.8 0.28 0 0.84 0.28 0 0.88 0.28 0 0.92 0.28 0 0.96 0.28 0 1 0.28 0 1.04 0.28 0 1.08 0.28 0 1.12 0.28 0 1.16 0.28 0 1.2 0.28 0 0 0.32 0 0.04 0.32 0 0.08 0.32 0 0.12 0.32 0 0.16 0.32 0 0.2 0.32 0 0.24 0.32 0 0.28 0.32 0 0.32 0.32 0 0.36 0.32 0 0.4 0.32 0 0.44 0.32 0 0.48 0.32 0 0.52 0.32 0 0.56 0.32 0 0.6 0.32 0 0.64 0.32 0 0.68 0.32 0 0.72 0.32 0 0.76 0.32 0 0.8 0.32 0 0.84 0.32 0 0.88 0.32 0 0.92 0.32 0 0.96 0.32 0 1 0.32 0 1.04 0.32 0 1.08 0.32 0 1.12 0.32 0 1.16 0.32 0 1.2 0.32 0 0 0.36 0 0.04 0.36 0 0.08 0.36 0 0.12 0.36 0 0.16 0.36 0 0.2 0.36 0 0.24 0.36 0 0.28 0.36 0 0.32 0.36 0 0.36 0.36 0 0.4 0.36 0 0.44 0.36 0 0.48 0.36 0 0.52 0.36 0 0.56 0.36 0 0.6 0.36 0 0.64 0.36 0 0.68 0.36 0 0.72 0.36 0 0.76 0.36 0 0.8 0.36 0 0.84 0.36 0 0.88 0.36 0 0.92 0.36 0 0.96 0.36 0 1 0.36 0 1.04 0.36 0 1.08 0.36 0 1.12 0.36 0 1.16 0.36 0 1.2 0.36 0 0 0.4 0 0.04 0.4 0 0.08 0.4 0 0.12 0.4 0 0.16 0.4 0 0.2 0.4 0 0.24 0.4 0 0.28 0.4 0 0.32 0.4 0 0.36 0.4 0 0.4 0.4 0 0.44 0.4 0 0.48 0.4 0 0.52 0.4 0 0.56 0.4 0 0.6 0.4 0 0.64 0.4 0 0.68 0.4 0 0.72 0.4 0 0.76 0.4 0 0.8 0.4 0 0.84 0.4 0 0.88 0.4 0 0.92 0.4 0 0.96 0.4 0 1 0.4 0 1.04 0.4 0 1.08 0.4 0 1.12 0.4 0 1.16 0.4 0 1.2 0.4 0 0 0.44 0 0.04 0.44 0 0.08 0.44 0 0.12 0.44 0 0.16 0.44 0 0.2 0.44 0 0.24 0.44 0 0.28 0.44 0 0.32 0.44 0 0.36 0.44 0 0.4 0.44 0 0.44 0.44 0 0.48 0.44 0 0.52 0.44 0 0.56 0.44 0 0.6 0.44 0 0.64 0.44 0 0.68 0.44 0 0.72 0.44 0 0.76 0.44 0 0.8 0.44 0 0.84 0.44 0 0.88 0.44 0 0.92 0.44 0 0.96 0.44 0 1 0.44 0 1.04 0.44 0 1.08 0.44 0 1.12 0.44 0 1.16 0.44 0 1.2 0.44 0 0 0.48 0 0.04 0.48 0 0.08 0.48 0 0.12 0.48 0 0.16 0.48 0 0.2 0.48 0 0.24 0.48 0 0.28 0.48 0 0.32 0.48 0 0.36 0.48 0 0.4 0.48 0 0.44 0.48 0 0.48 0.48 0 0.52 0.48 0 0.56 0.48 0 0.6 0.48 0 0.64 0.48 0 0.68 0.48 0 0.72 0.48 0 0.76 0.48 0 0.8 0.48 0 0.84 0.48 0 0.88 0.48 0 0.92 0.48 0 0.96 0.48 0 1 0.48 0 1.04 0.48 0 1.08 0.48 0 1.12 0.48 0 1.16 0.48 0 1.2 0.48 0 0 0.52 0 0.04 0.52 0 0.08 0.52 0 0.12 0.52 0 0.16 0.52 0 0.2 0.52 0 0.24 0.52 0 0.28 0.52 0 0.32 0.52 0 0.36 0.52 0 0.4 0.52 0 0.44 0.52 0 0.48 0.52 0 0.52 0.52 0 0.56 0.52 0 0.6 0.52 0 0.64 0.52 0 0.68 0.52 0 0.72 0.52 0 0.76 0.52 0 0.8 0.52 0 0.84 0.52 0 0.88 0.52 0 0.92 0.52 0 0.96 0.52 0 1 0.52 0 1.04 0.52 0 1.08 0.52 0 1.12 0.52 0 1.16 0.52 0 1.2 0.52 0 0 0.56 0 0.04 0.56 0 0.08 0.56 0 0.12 0.56 0 0.16 0.56 0 0.2 0.56 0 0.24 0.56 0 0.28 0.56 0 0.32 0.56 0 0.36 0.56 0 0.4 0.56 0 0.44 0.56 0 0.48 0.56 0 0.52 0.56 0 0.56 0.56 0 0.6 0.56 0 0.64 0.56 0 0.68 0.56 0 0.72 0.56 0 0.76 0.56 0 0.8 0.56 0 0.84 0.56 0 0.88 0.56 0 0.92 0.56 0 0.96 0.56 0 1 0.56 0 1.04 0.56 0 1.08 0.56 0 1.12 0.56 0 1.16 0.56 0 1.2 0.56 0 0 0.6 0 0.04 0.6 0 0.08 0.6 0 0.12 0.6 0 0.16 0.6 0 0.2 0.6 0 0.24 0.6 0 0.28 0.6 0 0.32 0.6 0 0.36 0.6 0 0.4 0.6 0 0.44 0.6 0 0.48 0.6 0 0.52 0.6 0 0.56 0.6 0 0.6 0.6 0 0.64 0.6 0 0.68 0.6 0 0.72 0.6 0 0.76 0.6 0 0.8 0.6 0 0.84 0.6 0 0.88 0.6 0 0.92 0.6 0 0.96 0.6 0 1 0.6 0 1.04 0.6 0 1.08 0.6 0 1.12 0.6 0 1.16 0.6 0 1.2 0.6 0 0 0.64 0 0.04 0.64 0 0.08 0.64 0 0.12 0.64 0 0.16 0.64 0 0.2 0.64 0 0.24 0.64 0 0.28 0.64 0 0.32 0.64 0 0.36 0.64 0 0.4 0.64 0 0.44 0.64 0 0.48 0.64 0 0.52 0.64 0 0.56 0.64 0 0.6 0.64 0 0.64 0.64 0 0.68 0.64 0 0.72 0.64 0 0.76 0.64 0 0.8 0.64 0 0.84 0.64 0 0.88 0.64 0 0.92 0.64 0 0.96 0.64 0 1 0.64 0 1.04 0.64 0 1.08 0.64 0 1.12 0.64 0 1.16 0.64 0 1.2 0.64 0 0 0.68 0 0.04 0.68 0 0.08 0.68 0 0.12 0.68 0 0.16 0.68 0 0.2 0.68 0 0.24 0.68 0 0.28 0.68 0 0.32 0.68 0 0.36 0.68 0 0.4 0.68 0 0.44 0.68 0 0.48 0.68 0 0.52 0.68 0 0.56 0.68 0 0.6 0.68 0 0.64 0.68 0 0.68 0.68 0 0.72 0.68 0 0.76 0.68 0 0.8 0.68 0 0.84 0.68 0 0.88 0.68 0 0.92 0.68 0 0.96 0.68 0 1 0.68 0 1.04 0.68 0 1.08 0.68 0 1.12 0.68 0 1.16 0.68 0 1.2 0.68 0 0 0.72 0 0.04 0.72 0 0.08 0.72 0 0.12 0.72 0 0.16 0.72 0 0.2 0.72 0 0.24 0.72 0 0.28 0.72 0 0.32 0.72 0 0.36 0.72 0 0.4 0.72 0 0.44 0.72 0 0.48 0.72 0 0.52 0.72 0 0.56 0.72 0 0.6 0.72 0 0.64 0.72 0 0.68 0.72 0 0.72 0.72 0 0.76 0.72 0 0.8 0.72 0 0.84 0.72 0 0.88 0.72 0 0.92 0.72 0 0.96 0.72 0 1 0.72 0 1.04 0.72 0 1.08 0.72 0 1.12 0.72 0 1.16 0.72 0 1.2 0.72 0 0 0.76 0 0.04 0.76 0 0.08 0.76 0 0.12 0.76 0 0.16 0.76 0 0.2 0.76 0 0.24 0.76 0 0.28 0.76 0 0.32 0.76 0 0.36 0.76 0 0.4 0.76 0 0.44 0.76 0 0.48 0.76 0 0.52 0.76 0 0.56 0.76 0 0.6 0.76 0 0.64 0.76 0 0.68 0.76 0 0.72 0.76 0 0.76 0.76 0 0.8 0.76 0 0.84 0.76 0 0.88 0.76 0 0.92 0.76 0 0.96 0.76 0 1 0.76 0 1.04 0.76 0 1.08 0.76 0 1.12 0.76 0 1.16 0.76 0 1.2 0.76 0 0 0.8 0 0.04 0.8 0 0.08 0.8 0 0.12 0.8 0 0.16 0.8 0 0.2 0.8 0 0.24 0.8 0 0.28 0.8 0 0.32 0.8 0 0.36 0.8 0 0.4 0.8 0 0.44 0.8 0 0.48 0.8 0 0.52 0.8 0 0.56 0.8 0 0.6 0.8 0 0.64 0.8 0 0.68 0.8 0 0.72 0.8 0 0.76 0.8 0 0.8 0.8 0 0.84 0.8 0 0.88 0.8 0 0.92 0.8 0 0.96 0.8 0 1 0.8 0 1.04 0.8 0 1.08 0.8 0 1.12 0.8 0 1.16 0.8 0 1.2 0.8 0 0 0.84 0 0.04 0.84 0 0.08 0.84 0 0.12 0.84 0 0.16 0.84 0 0.2 0.84 0 0.24 0.84 0 0.28 0.84 0 0.32 0.84 0 0.36 0.84 0 0.4 0.84 0 0.44 0.84 0 0.48 0.84 0 0.52 0.84 0 0.56 0.84 0 0.6 0.84 0 0.64 0.84 0 0.68 0.84 0 0.72 0.84 0 0.76 0.84 0 0.8 0.84 0 0.84 0.84 0 0.88 0.84 0 0.92 0.84 0 0.96 0.84 0 1 0.84 0 1.04 0.84 0 1.08 0.84 0 1.12 0.84 0 1.16 0.84 0 1.2 0.84 0 0 0.88 0 0.04 0.88 0 0.08 0.88 0 0.12 0.88 0 0.16 0.88 0 0.2 0.88 0 0.24 0.88 0 0.28 0.88 0 0.32 0.88 0 0.36 0.88 0 0.4 0.88 0 0.44 0.88 0 0.48 0.88 0 0.52 0.88 0 0.56 0.88 0 0.6 0.88 0 0.64 0.88 0 0.68 0.88 0 0.72 0.88 0 0.76 0.88 0 0.8 0.88 0 0.84 0.88 0 0.88 0.88 0 0.92 0.88 0 0.96 0.88 0 1 0.88 0 1.04 0.88 0 1.08 0.88 0 1.12 0.88 0 1.16 0.88 0 1.2 0.88 0 0 0.92 0 0.04 0.92 0 0.08 0.92 0 0.12 0.92 0 0.16 0.92 0 0.2 0.92 0 0.24 0.92 0 0.28 0.92 0 0.32 0.92 0 0.36 0.92 0 0.4 0.92 0 0.44 0.92 0 0.48 0.92 0 0.52 0.92 0 0.56 0.92 0 0.6 0.92 0 0.64 0.92 0 0.68 0.92 0 0.72 0.92 0 0.76 0.92 0 0.8 0.92 0 0.84 0.92 0 0.88 0.92 0 0.92 0.92 0 0.96 0.92 0 1 0.92 0 1.04 0.92 0 1.08 0.92 0 1.12 0.92 0 1.16 0.92 0 1.2 0.92 0 0 0.96 0 0.04 0.96 0 0.08 0.96 0 0.12 0.96 0 0.16 0.96 0 0.2 0.96 0 0.24 0.96 0 0.28 0.96 0 0.32 0.96 0 0.36 0.96 0 0.4 0.96 0 0.44 0.96 0 0.48 0.96 0 0.52 0.96 0 0.56 0.96 0 0.6 0.96 0 0.64 0.96 0 0.68 0.96 0 0.72 0.96 0 0.76 0.96 0 0.8 0.96 0 0.84 0.96 0 0.88 0.96 0 0.92 0.96 0 0.96 0.96 0 1 0.96 0 1.04 0.96 0 1.08 0.96 0 1.12 0.96 0 1.16 0.96 0 1.2 0.96 0 0 1 0 0.04 1 0 0.08 1 0 0.12 1 0 0.16 1 0 0.2 1 0 0.24 1 0 0.28 1 0 0.32 1 0 0.36 1 0 0.4 1 0 0.44 1 0 0.48 1 0 0.52 1 0 0.56 1 0 0.6 1 0 0.64 1 0 0.68 1 0 0.72 1 0 0.76 1 0 0.8 1 0 0.84 1 0 0.88 1 0 0.92 1 0 0.96 1 0 1 1 0 1.04 1 0 1.08 1 0 1.12 1 0 1.16 1 0 1.2 1 0 0 1.04 0 0.04 1.04 0 0.08 1.04 0 0.12 1.04 0 0.16 1.04 0 0.2 1.04 0 0.24 1.04 0 0.28 1.04 0 0.32 1.04 0 0.36 1.04 0 0.4 1.04 0 0.44 1.04 0 0.48 1.04 0 0.52 1.04 0 0.56 1.04 0 0.6 1.04 0 0.64 1.04 0 0.68 1.04 0 0.72 1.04 0 0.76 1.04 0 0.8 1.04 0 0.84 1.04 0 0.88 1.04 0 0.92 1.04 0 0.96 1.04 0 1 1.04 0 1.04 1.04 0 1.08 1.04 0 1.12 1.04 0 1.16 1.04 0 1.2 1.04 0 0 1.08 0 0.04 1.08 0 0.08 1.08 0 0.12 1.08 0 0.16 1.08 0 0.2 1.08 0 0.24 1.08 0 0.28 1.08 0 0.32 1.08 0 0.36 1.08 0 0.4 1.08 0 0.44 1.08 0 0.48 1.08 0 0.52 1.08 0 0.56 1.08 0 0.6 1.08 0 0.64 1.08 0 0.68 1.08 0 0.72 1.08 0 0.76 1.08 0 0.8 1.08 0 0.84 1.08 0 0.88 1.08 0 0.92 1.08 0 0.96 1.08 0 1 1.08 0 1.04 1.08 0 1.08 1.08 0 1.12 1.08 0 1.16 1.08 0 1.2 1.08 0 0 1.12 0 
[...]
			<PointData Scalars="VitesseX">
				<DataArray Name="VitesseX" type="Float32" format="ascii">
 0 -0.0652118 -0.111491 -0.0390814 0.101558 0.258221 0.361511 0.382173 0.339649 0.285007 0.234114 0.204107 0.198548 0.212674 0.23514 0.254083 0.214915 -0.160998 -0.745791 -1.10576 -1.15958 -1.03244 -0.918844 -0.807953 -0.697752 -0.587271 -0.475128 -0.360473 -0.243154 -0.122171 0 0 0.0557576 0.0442504 0.0719756 0.157506 0.259258 0.328532 0.324944 0.283317 0.23641 0.202218 0.184127 0.18612 0.203491 0.228425 0.249102 0.21284 -0.155309 -0.736518 -1.10016 -1.15908 -1.03258 -0.919007 -0.808219 -0.698142 -0.5878 -0.475785 -0.361149 -0.243643 -0.122373 0 0 -0.0219838 -0.0254212 -0.0325688 -0.0270045 -0.00107515 0.0385364 0.0773512 0.0977918 0.104984 0.110661 0.123847 0.14493 0.174666 0.207202 0.232963 0.20499 -0.139927 -0.709147 -1.08312 -1.15668 -1.03261 -0.918838 -0.808122 -0.698185 -0.588042 -0.476246 -0.361704 -0.244072 -0.122662 0 0 -0.104699 -0.169078 -0.196811 -0.208257 -0.21503 -0.193913 -0.143323 -0.0880085 -0.0401965 0.00185294 0.0423149 0.0843811 0.126752 0.168433 0.201828 0.186289 -0.120022 -0.665416 -1.05412 -1.1507 -1.033 -0.918829 -0.808092 -0.698246 -0.588268 -0.476672 -0.362241 -0.244553 -0.122977 0 0 -0.146997 -0.232094 -0.272711 -0.298759 -0.316653 -0.315647 -0.271881 -0.206706 -0.143676 -0.0879097 -0.0363235 0.0139013 0.0635141 0.111337 0.151601 0.149475 -0.103737 -0.608762 -1.01132 -1.13745 -1.03418 -0.919348 -0.808425 -0.698538 -0.588618 -0.477193 -0.362941 -0.24524 -0.123365 0 0 -0.143245 -0.233967 -0.284625 -0.315362 -0.336102 -0.346977 -0.332373 -0.282653 -0.219806 -0.158828 -0.105121 -0.0551377 -0.00653204 0.0404664 0.0825455 0.0913502 -0.0988601 -0.54317 -0.950515 -1.10995 -1.03676 -0.920394 -0.809127 -0.69908 -0.589114 -0.477834 -0.363806 -0.246153 -0.123912 0 0 -0.0986222 -0.175365 -0.232305 -0.272425 -0.300126 -0.321152 -0.330491 -0.316306 -0.274606 -0.219868 -0.16607 -0.119121 -0.0757585 -0.0345483 0.0015941 0.0122956 -0.112369 -0.474304 -0.867203 -1.05966 -1.03971 -0.921974 -0.810182 -0.699839 -0.589738 -0.478573 -0.364802 -0.247297 -0.124731 0 0 -0.0151444 -0.039638 -0.0924448 -0.159876 -0.219505 -0.259967 -0.287768 -0.304936 -0.301239 -0.269319 -0.224015 -0.180273 -0.142574 -0.109154 -0.0822163 -0.0801365 -0.151773 -0.410688 -0.761023 -0.98371 -1.0317 -0.923582 -0.811454 -0.700732 -0.59044 -0.479365 -0.365899 -0.24866 -0.125815 0 0 0.0380789 0.0461585 0.00537254 -0.0641286 -0.14227 -0.207172 -0.25147 -0.282664 -0.302963 -0.303862 -0.279694 -0.243775 -0.210557 -0.184439 -0.168373 -0.174948 -0.219559 -0.365261 -0.64027 -0.885354 -0.989163 -0.924836 -0.812786 -0.701692 -0.591163 -0.480154 -0.367035 -0.25016 -0.12706 0 0 0.045788 0.0640489 0.0338972 -0.0275638 -0.102998 -0.179855 -0.238299 -0.276969 -0.308378 -0.330611 -0.333366 -0.314369 -0.286481 -0.264839 -0.258304 -0.270956 -0.307947 -0.357868 -0.525064 -0.756835 -0.901118 -0.917396 -0.813466 -0.702591 -0.59181 -0.480863 -0.368122 -0.251687 -0.128312 0 0 0.0375347 0.0487672 0.0213783 -0.0351077 -0.104405 -0.179055 -0.251066 -0.306297 -0.344249 -0.373863 -0.393754 -0.395254 -0.377267 -0.356801 -0.353855 -0.374313 -0.399649 -0.404375 -0.437737 -0.605796 -0.78152 -0.867929 -0.81195 -0.70322 -0.592299 -0.481412 -0.369065 -0.253155 -0.129486 0 0 0.0160687 0.0118741 -0.0205506 -0.0747851 -0.141827 -0.213179 -0.285194 -0.352384 -0.405477 -0.444662 -0.475 -0.493952 -0.494679 -0.476287 -0.461328 -0.474641 -0.493031 -0.484484 -0.426381 -0.461651 -0.630137 -0.762079 -0.793933 -0.70201 -0.592589 -0.481721 -0.369809 -0.25453 -0.130582 0 0 -0.0103199 -0.0324555 -0.074904 -0.134478 -0.200277 -0.267392 -0.334568 -0.401386 -0.465195 -0.520255 -0.564004 -0.598485 -0.619207 -0.624515 -0.608787 -0.592757 -0.590387 -0.56651 -0.478841 -0.379164 -0.45923 -0.620367 -0.721145 -0.694935 -0.592161 -0.481734 -0.370331 -0.255823 -0.131658 0 0 -0.0331206 -0.0739658 -0.128224 -0.193556 -0.262074 -0.326931 -0.388038 -0.447057 -0.509819 -0.578113 -0.643 -0.696368 -0.73953 -0.766353 -0.772396 -0.746185 -0.696775 -0.653584 -0.549861 -0.38706 -0.319344 -0.447111 -0.592321 -0.656173 -0.588383 -0.481568 -0.370593 -0.257007 -0.132759 0 0 -0.0505603 -0.106 -0.170447 -0.242217 -0.312936 -0.376541 -0.431756 -0.484301 -0.53835 -0.606232 -0.687539 -0.766724 -0.837373 -0.890916 -0.915506 -0.895563 -0.832571 -0.737687 -0.629883 -0.44573 -0.273968 -0.272897 -0.427016 -0.552746 -0.570108 -0.479626 -0.370617 -0.258039 -0.133955 0 0 -0.0630114 -0.126902 -0.196375 -0.270074 -0.340661 -0.402611 -0.456448 -0.50424 -0.553918 -0.610697 -0.691732 -0.796407 -0.891573 -0.967888 -1.01376 -1.01559 -0.957824 -0.840208 -0.686455 -0.528058 -0.315711 -0.16722 -0.239213 -0.40027 -0.500228 -0.471222 -0.369966 -0.258819 -0.135262 0 0 -0.0705385 -0.138262 -0.202868 -0.267415 -0.329995 -0.388952 -0.44388 -0.496541 -0.547205 -0.599958 -0.66585 -0.755476 -0.874458 -0.985781 -1.05801 -1.08517 -1.03793 -0.920259 -0.751362 -0.587143 -0.403606 -0.169115 -0.0853089 -0.212531 -0.367341 -0.431192 -0.365917 -0.259228 -0.136621 0 0 -0.0690313 -0.132782 -0.188379 -0.23593 -0.284916 -0.3384 -0.394407 -0.450202 -0.50677 -0.565096 -0.623068 -0.69515 -0.787358 -0.898888 -1.00374 -1.06886 -1.0623 -0.963227 -0.81325 -0.632144 -0.468762 -0.261016 -0.0278204 -0.0301785 -0.189615 -0.326736 -0.345757 -0.257616 -0.137953 0 0 -0.0484385 -0.0962348 -0.134142 -0.168393 -0.205316 -0.253051 -0.313527 -0.376489 -0.436853 -0.494398 -0.552439 -0.614223 -0.691803 -0.786291 -0.873159 -0.94296 -0.973072 -0.946271 -0.837983 -0.681618 -0.500835 -0.353056 -0.0893368 0.0840949 0.00749925 -0.165341 -0.273816 -0.248307 -0.138521 0 0 -0.0207619 -0.0447576 -0.0609822 -0.0850208 -0.105599 -0.142327 -0.19586 -0.259177 -0.323953 -0.391014 -0.461184 -0.529226 -0.58465 -0.654722 -0.724149 -0.795402 -0.837079 -0.84454 -0.789555 -0.703962 -0.540401 -0.373471 -0.222517 0.0868939 0.160534 0.0324253 -0.134926 -0.204309 -0.135128 0 0 -0.00648276 -0.00538894 -0.0120659 -0.0173623 -0.0209514 -0.0398662 -0.0673113 -0.106232 -0.163171 -0.239857 -0.326463 -0.416354 -0.489648 -0.535094 -0.581783 -0.643091 -0.693737 -0.724241 -0.708795 -0.640197 -0.558299 -0.389837 -0.27714 -0.0291642 0.218213 0.210923 0.0539683 -0.0927212 -0.111496 0 0 -0.00569831 0.0115178 0.00202795 0.0193254 0.0243458 0.0214376 0.0271637 0.0244732 -0.00334466 -0.0612359 -0.148657 -0.250769 -0.353529 -0.43195 -0.486234 -0.505711 -0.547975 -0.595727 -0.619789 -0.57148 -0.503242 -0.413734 -0.25881 -0.157766 0.168484 0.304318 0.247788 0.0811258 -0.0285246 0 0 -0.00781297 0.00687549 -0.000913149 0.0298033 0.0314205 0.03798 0.0665167 0.0980056 0.107886 0.0802131 0.0204165 -0.0634128 -0.16491 -0.272135 -0.365919 -0.422489 -0.44528 -0.452345 -0.490501 -0.519191 -0.460341 -0.381662 -0.249951 -0.176231 0.0284081 0.305296 0.361576 0.273253 0.121748 0 0 -0.009025 -0.00477502 -0.00458364 0.0232023 0.0171423 0.0329066 0.0738221 0.121279 0.150834 0.147135 0.128031 0.0855501 0.0175871 -0.0728965 -0.176805 -0.283098 -0.352997 -0.384433 -0.379832 -0.390186 -0.402522 -0.36805 -0.269092 -0.132795 -0.062341 0.199181 0.381999 0.380697 0.276551 0 0 -0.013597 -0.0192501 -0.00847838 0.00902051 0.00329052 0.0275219 0.0722035 0.116412 0.143012 0.155428 0.162434 0.154785 0.139414 0.0971463 0.0214469 -0.0787148 -0.185444 -0.281586 -0.318262 -0.320906 -0.308643 -0.29656 -0.275715 -0.157555 -0.0748045 0.0588489 0.296742 0.378452 0.315447 0 0 -0.0195148 -0.0402406 -0.0147733 -0.0126001 -0.0104101 0.0187719 0.0647333 0.102806 0.122111 0.13135 0.141612 0.159202 0.179827 0.183283 0.16511 0.109148 0.0164869 -0.0930512 -0.197217 -0.257491 -0.267467 -0.24619 -0.223903 -0.192277 -0.101874 -0.0525041 0.123459 0.26116 0.250035 0 0 -0.0308782 -0.0576658 -0.0314254 -0.0341164 -0.0267031 0.0069859 0.047702 0.078772 0.0909106 0.0976601 0.109306 0.130264 0.158761 0.190977 0.216987 0.21399 0.177361 0.0996695 -0.00916484 -0.116942 -0.198698 -0.222298 -0.213061 -0.194596 -0.164388 -0.13163 -0.101876 0.0598269 0.090134 0 0 -0.0562177 -0.0566494 -0.0667539 -0.0511655 -0.0388447 -0.009096 0.0204463 0.0388234 0.0428287 0.0470458 0.0607914 0.0851379 0.11657 0.151425 0.186599 0.220574 0.237747 0.22014 0.158051 0.0571863 -0.0583219 -0.153158 -0.204502 -0.220525 -0.234295 -0.250056 -0.26393 -0.192433 -0.0531469 0 0 -0.0610409 -0.129995 -0.0910388 -0.0774079 -0.0397078 -0.0212887 0.00197517 0.00308435 -0.00573201 -0.01147 -0.00301868 0.0159582 0.0426666 0.0745302 0.109343 0.145048 0.180087 0.21096 0.215331 0.174837 0.0823651 -0.0442231 -0.162447 -0.248117 -0.309827 -0.359677 -0.392612 -0.334889 -0.174852 0 0 -0.370854 -0.176181 -0.11552 -0.0702979 -0.0526536 -0.0167082 -0.00349569 -0.0135007 -0.0338969 -0.0440951 -0.042741 -0.0325018 -0.0176091 -0.000650962 0.0177374 0.037443 0.058513 0.0804985 0.101413 0.109783 0.0770696 -0.032474 -0.210898 -0.37381 -0.454374 -0.467153 -0.435858 -0.358754 -0.278402 0 0 0 0 0 0 0 0 0 0 0 0 0 0 0 0 0 0 0 0 0 0 0 0 0 0 0 0 0 0 0 0
				</DataArray>
				<DataArray Name="VitesseY" type="Float32" format="ascii">
 0 0 0 0 0 0 0 0 0 0 0 0 0 0 0 0 0 0 0 0 0 0 0 0 0 0 0 0 0 0 0 -0.0692763 0.0553479 -0.0209751 -0.102656 -0.147126 -0.13487 -0.0611248 0.0204966 0.0397754 0.0372991 0.022594 -0.000715189 -0.0231897 -0.0373753 -0.0424396 -0.0409258 -0.0349011 -0.0208699 -0.00114781 0.0142062 0.0200321 0.0202778 0.0191981 0.017914 0.0162823 0.0141469 0.0111476 0.00655684 0.00127223 -0.00193892 0 -0.113896 0.04274 -0.0168636 -0.150841 -0.213582 -0.219613 -0.108713 0.00928276 0.0482106 0.0439741 0.0190186 -0.0187693 -0.0560556 -0.081174 -0.0893204 -0.0851326 -0.0721668 -0.0442703 -0.00482534 0.0265683 0.0394185 0.0407427 0.0385975 0.0360792 0.0328452 0.0285687 0.0225305 0.0131695 0.00245566 -0.00387187 0 -0.0418525 0.0737593 -0.00363516 -0.152875 -0.229427 -0.246729 -0.166122 -0.0466673 0.00409337 0.00811218 -0.018747 -0.0618323 -0.104811 -0.135237 -0.144364 -0.135965 -0.11458 -0.0734295 -0.0143805 0.0346136 0.0573412 0.0614106 0.0581833 0.0544928 0.049711 0.0433963 0.0344075 0.0202316 0.00392353 -0.00559631 0 0.0935185 0.166227 0.0296281 -0.141625 -0.227234 -0.248435 -0.210927 -0.120783 -0.067275 -0.0570557 -0.0781702 -0.122643 -0.16633 -0.198336 -0.208742 -0.195316 -0.165866 -0.112831 -0.0346573 0.034821 0.0727077 0.0820783 0.0779604 0.0732081 0.0669736 0.0587352 0.0469193 0.0280185 0.00580497 -0.00720362 0 0.251369 0.274668 0.07317 -0.11793 -0.218466 -0.243178 -0.231245 -0.184197 -0.144666 -0.132322 -0.147663 -0.188162 -0.233058 -0.265346 -0.278681 -0.263093 -0.228503 -0.166936 -0.0712236 0.0236706 0.0839144 0.101922 0.0979445 0.0922504 0.084665 0.0745972 0.0601235 0.0367321 0.00823091 -0.00872578 0 0.379433 0.364583 0.126833 -0.0882062 -0.20197 -0.236313 -0.231849 -0.21514 -0.204724 -0.20501 -0.220357 -0.254869 -0.298101 -0.331788 -0.347446 -0.335862 -0.301281 -0.236769 -0.127375 -0.00264717 0.0868446 0.118709 0.118598 0.111676 0.102832 0.0911002 0.0741936 0.0466836 0.0115252 -0.00997584 0 0.433226 0.400577 0.168084 -0.044112 -0.163501 -0.2131 -0.219965 -0.217216 -0.228209 -0.256827 -0.287195 -0.321681 -0.36063 -0.394675 -0.41275 -0.40814 -0.377444 -0.317346 -0.202937 -0.0528016 0.067409 0.125671 0.139335 0.131367 0.121617 0.108394 0.0893211 0.0581785 0.016145 -0.0105754 0 0.413241 0.373385 0.187359 0.00547363 -0.101602 -0.163526 -0.191451 -0.202143 -0.224819 -0.275792 -0.333911 -0.38286 -0.422248 -0.454564 -0.474269 -0.477217 -0.450397 -0.399763 -0.294224 -0.131631 0.0237145 0.122666 0.156539 0.15189 0.141209 0.126624 0.105689 0.0715051 0.0225909 -0.0100514 0 0.357882 0.320227 0.189314 0.0491114 -0.0402927 -0.0982957 -0.143258 -0.17744 -0.2116 -0.271713 -0.352994 -0.427927 -0.481591 -0.514299 -0.534738 -0.541023 -0.521085 -0.475248 -0.387763 -0.232054 -0.0467855 0.0964052 0.161045 0.173217 0.161542 0.145977 0.123503 0.0869099 0.0313046 -0.00806511 0 0.299177 0.270307 0.184238 0.0857144 0.0142001 -0.0361723 -0.0834934 -0.138451 -0.190912 -0.260708 -0.354403 -0.452537 -0.531086 -0.578415 -0.597292 -0.602028 -0.588943 -0.543376 -0.4716 -0.339323 -0.146602 0.033546 0.149137 0.190395 0.183052 0.166669 0.142902 0.104499 0.0425933 -0.00452556 0 0.253031 0.236844 0.184318 0.118327 0.0641331 0.0206002 -0.0257526 -0.0861572 -0.158232 -0.244087 -0.349889 -0.462253 -0.566892 -0.639457 -0.673277 -0.670878 -0.652902 -0.607849 -0.539796 -0.437083 -0.265708 -0.058594 0.10732 0.187834 0.204909 0.188723 0.163922 0.124179 0.0566344 0.000531299 0 0.232404 0.224385 0.195196 0.153484 0.112545 0.0731131 0.0259053 -0.0360258 -0.115833 -0.216913 -0.337533 -0.465145 -0.587976 -0.690633 -0.75037 -0.767445 -0.725983 -0.672625 -0.599443 -0.518015 -0.379527 -0.175828 0.0259741 0.165484 0.219597 0.21176 0.186486 0.145687 0.0734531 0.00713666 0 0.236948 0.23359 0.218709 0.195084 0.162687 0.121793 0.0708586 0.00505491 -0.0786848 -0.181917 -0.313209 -0.457328 -0.599546 -0.726342 -0.817825 -0.862648 -0.829043 -0.752 -0.658977 -0.568181 -0.468463 -0.299299 -0.0841781 0.103343 0.207311 0.234009 0.210524 0.168684 0.0930599 0.0153759 0 0.261156 0.259817 0.254578 0.242467 0.214462 0.168607 0.107839 0.0345662 -0.0530183 -0.155974 -0.279577 -0.436607 -0.598416 -0.745717 -0.868746 -0.935547 -0.935257 -0.846379 -0.735248 -0.615374 -0.522321 -0.404023 -0.209597 0.0035493 0.167743 0.240019 0.23469 0.193265 0.115254 0.025377 0 0.298083 0.297565 0.296265 0.292001 0.265022 0.209245 0.137182 0.0519208 -0.0419922 -0.146793 -0.26168 -0.406246 -0.57828 -0.749498 -0.889494 -0.977899 -1.01227 -0.942025 -0.823102 -0.677844 -0.547681 -0.466604 -0.328676 -0.118204 0.0850827 0.215794 0.25524 0.218988 0.139916 0.03736 0 0.338764 0.335758 0.333014 0.32979 0.299971 0.236056 0.151546 0.055734 -0.0487443 -0.157613 -0.272294 -0.394817 -0.548525 -0.717238 -0.868247 -0.982973 -1.04397 -1.01139 -0.887844 -0.747331 -0.603926 -0.488404 -0.402772 -0.242878 -0.0302988 0.153936 0.247738 0.244595 0.167045 0.0516021 0 0.294288 0.291244 0.293616 0.297687 0.274165 0.213192 0.127573 0.025215 -0.0827347 -0.191935 -0.302148 -0.408656 -0.522962 -0.656658 -0.803224 -0.931143 -1.00572 -1.02013 -0.92063 -0.797789 -0.658686 -0.516834 -0.435854 -0.33704 -0.153003 0.0525332 0.206207 0.257591 0.195311 0.0683476 0 -0.0703094 -0.0620855 -0.0413449 -0.00195781 0.0171661 0.00382433 -0.0269327 -0.0798924 -0.152296 -0.235261 -0.323767 -0.407777 -0.498313 -0.595683 -0.711308 -0.821747 -0.8976 -0.937695 -0.91286 -0.810561 -0.696563 -0.570518 -0.436405 -0.377221 -0.265566 -0.0690961 0.122686 0.236621 0.22143 0.0871603 0 -0.632572 -0.609049 -0.576527 -0.519561 -0.469634 -0.427516 -0.384415 -0.350527 -0.323915 -0.303613 -0.313128 -0.369119 -0.441273 -0.524881 -0.596142 -0.662283 -0.742487 -0.796836 -0.815326 -0.764897 -0.689782 -0.603726 -0.475123 -0.373707 -0.314187 -0.184115 0.00700293 0.171048 0.223464 0.105871 0 -0.983732 -0.951068 -0.921185 -0.879413 -0.845162 -0.801644 -0.748744 -0.681709 -0.594634 -0.49126 -0.38588 -0.313455 -0.311047 -0.361543 -0.440293 -0.512744 -0.566234 -0.625167 -0.671903 -0.687924 -0.624557 -0.564203 -0.509198 -0.382273 -0.31974 -0.254795 -0.108921 0.0667296 0.181279 0.113104 0 -1.04347 -0.999664 -0.983309 -0.964743 -0.957055 -0.940238 -0.91828 -0.874173 -0.800211 -0.698147 -0.569345 -0.425024 -0.29522 -0.226439 -0.238707 -0.316214 -0.401739 -0.450044 -0.491059 -0.53681 -0.548508 -0.491253 -0.456468 -0.398976 -0.306889 -0.267586 -0.196237 -0.0536778 0.0870898 0.0797818 0 -0.901688 -0.856552 -0.853892 -0.843446 -0.851814 -0.862428 -0.877578 -0.882951 -0.864172 -0.806091 -0.71291 -0.600044 -0.457223 -0.300661 -0.173595 -0.122529 -0.163774 -0.273156 -0.344984 -0.357209 -0.386429 -0.413309 -0.378761 -0.364811 -0.294654 -0.247029 -0.22295 -0.15177 -0.0418677 -0.0303405 0 -0.765563 -0.722511 -0.730477 -0.723907 -0.739257 -0.751731 -0.76405 -0.768911 -0.767797 -0.766864 -0.755716 -0.703734 -0.610628 -0.483732 -0.322084 -0.155406 -0.0366516 -0.0106505 -0.0975459 -0.229936 -0.269599 -0.250556 -0.24925 -0.271205 -0.275862 -0.223651 -0.213956 -0.205002 -0.161907 -0.209802 0 -0.624941 -0.590597 -0.608965 -0.609034 -0.632866 -0.646883 -0.656673 -0.659927 -0.660843 -0.664925 -0.67276 -0.680639 -0.668114 -0.60499 -0.491252 -0.337323 -0.153918 0.0110425 0.104069 0.0904346 -0.0355277 -0.15872 -0.171607 -0.130736 -0.15895 -0.193234 -0.195325 -0.221133 -0.248282 -0.373603 0 -0.475592 -0.457594 -0.488187 -0.498478 -0.529734 -0.544127 -0.551538 -0.553642 -0.55577 -0.562084 -0.572301 -0.583176 -0.590846 -0.591126 -0.562818 -0.475575 -0.335324 -0.15499 0.0371026 0.177888 0.225607 0.168499 0.026829 -0.0614063 -0.0741716 -0.102267 -0.164989 -0.234854 -0.310132 -0.454493 0 -0.308744 -0.322526 -0.367585 -0.389315 -0.426984 -0.439961 -0.447343 -0.448154 -0.451421 -0.459377 -0.470263 -0.480206 -0.487336 -0.49109 -0.49015 -0.479422 -0.428961 -0.314401 -0.147996 0.0508634 0.223207 0.310347 0.307439 0.199097 0.0589255 -0.0525477 -0.1318 -0.250334 -0.359891 -0.467301 0 -0.124534 -0.183917 -0.247919 -0.279705 -0.325608 -0.333237 -0.33943 -0.339873 -0.344967 -0.354525 -0.365468 -0.374577 -0.38016 -0.382385 -0.382787 -0.38138 -0.375737 -0.351269 -0.272087 -0.127944 0.0637218 0.25549 0.365679 0.383907 0.297305 0.12354 -0.101938 -0.264032 -0.392719 -0.435935 0 0.030955 0.0200225 -0.136721 -0.182896 -0.2243 -0.228188 -0.227752 -0.226308 -0.230526 -0.241486 -0.252552 -0.262133 -0.26715 -0.269566 -0.270086 -0.269525 -0.268192 -0.264751 -0.253357 -0.205906 -0.0906595 0.085556 0.277371 0.382922 0.379409 0.261458 0.0598783 -0.192445 -0.334924 -0.358788 0 0.641773 0.0815391 -0.0946822 -0.0825117 -0.142655 -0.109341 -0.126198 -0.107041 -0.112292 -0.118569 -0.130689 -0.135956 -0.140221 -0.142007 -0.142628 -0.142705 -0.142624 -0.142554 -0.141863 -0.137484 -0.112676 -0.0280933 0.123485 0.278197 0.31623 0.250216 0.0901538 -0.0531475 -0.174853 -0.278411 0 5.40059 0 0 0 0 0 0 0 0 0 0 0 0 0 0 0 0 0 0 0 0 0 0 0 0 0 0 0 0 0 0
				</DataArray>
			</PointData>
			<CellData Scalars="Density">
				<DataArray Name="Density" type="Float32" format="ascii">