<?xml version="1.0"?>
<VTKFile type="PolyData">
	<PolyData>
		<Piece NumberOfPoints="961" NumberOfPolys="900">
			<Points>
				<DataArray type="Float32" NumberOfComponents="3" format="ascii">
 0 0 0 0.04 0 0 0.08 0 0 0.12 0 0 0.16 0 0 0.2 0 0 0.24 0 0 0.28 0 0 0.32 0 0 0.36 0 0 0.4 0 0 0.44 0 0 0.48 0 0 0.52 0 0 0.56 0 0 0.6 0 0 0.64 0 0 0.68 0 0 0.72 0 0 0.76 0 0 0.8 0 0 0.84 0 0 0.88 0 0 0.92 0 0 0.96 0 0 1 0 0 1.04 0 0 1.08 0 0 1.12 0 0 1.16 0 0 1.2 0 0 0 0.04 0 0.04 0.04 0 0.08 0.04 0 0.12 0.04 0 0.16 0.04 0 0.2 0.04 0 0.24 0.04 0 0.28 0.04 0 0.32 0.04 0 0.36 0.04 0 0.4 0.04 0 0.44 0.04 0 0.48 0.04 0 0.52 0.04 0 0.56 0.04 0 0.6 0.04 0 0.64 0.04 0 0.68 0.04 0 0.72 0.04 0 0.76 0.04 0 0.8 0.04 0 0.84 0.04 0 0.88 0.04 0 0.92 0.04 0 0.96 0.04 0 1 0.04 0 1.04 0.04 0 1.08 0.04 0 1.12 0.04 0 1.16 0.04 0 1.2 0.04 0 0 0.08 0 0.04 0.08 0 0.08 0.08 0 0.12 0.08 0 0.16 0.08 0 0.2 0.08 0 0.24 0.08 0 0.28 0.08 0 0.32 0.08 0 0.36 0.08 0 0.4 0.08 0 0.44 0.08 0 0.48 0.08 0 0.52 0.08 0 0.56 0.08 0 0.6 0.08 0 0.64 0.08 0 0.68 0.08 0 0.72 0.08 0 0.76 0.08 0 0.8 0.08 0 0.84 0.08 0 0.88 0.08 0 0.92 0.08 0 0.96 0.08 0 1 0.08 0 1.04 0.08 0 1.08 0.08 0 1.12 0.08 0 1.16 0.08 0 1.2 0.08 0 0 0.12 0 0.04 0.12 0 0.08 0.12 0 0.12 0.12 0 0.16 0.12 0 0.2 0.12 0 0.24 0.12 0 0.28 0.12 0 0.32 0.12 0 0.36 0.12 0 0.4 0.12 0 0.44 0.12 0 0.48 0.12 0 0.52 0.12 0 0.56 0.12 0 0.6 0.12 0 0.64 0.12 0 0.68 0.12 0 0.72 0.12 0 0.76 0.12 0 0.8 0.12 0 0.84 0.12 0 0.88 0.12 0 0.92 0.12 0 0.96 0.12 0 1 0.12 0 1.04 0.12 0 1.08 0.12 0 1.12 0.12 0 1.16 0.12 0 1.2 0.12 0 0 0.16 0 0.04 0.16 0 0.08 0.16 0 0.12 0.16 0 0.16 0.16 0 0.2 0.16 0 0.24 0.16 0 0.28 0.16 0 0.32 0.16 0 0.36 0.16 0 0.4 0.16 0 0.44 0.16 0 0.48 0.16 0 0.52 0.16 0 0.56 0.16 0 0.6 0.16 0 0.64 0.16 0 0.68 0.16 0 0.72 0.16 0 0.76 0.16 0 0.8 0.16 0 0.84 0.16 0 0.88 0.16 0 0.92 0.16 0 0.96 0.16 0 1 0.16 0 1.04 0.16 0 1.08 0.16 0 1.12 0.16 0 1.16 0.16 0 1.2 0.16 0 0 0.2 0 0.04 0.2 0 0.08 0.2 0 0.12 0.2 0 0.16 0.2 0 0.2 0.2 0 0.24 0.2 0 0.28 0.2 0 0.32 0.2 0 0.36 0.2 0 0.4 0.2 0 0.44 0.2 0 0.48 0.2 0 0.52 0.2 0 0.56 0.2 0 0.6 0.2 0 0.64 0.2 0 0.68 0.2 0 0.72 0.2 0 0.76 0.2 0 0.8 0.2 0 0.84 0.2 0 0.88 0.2 0 0.92 0.2 0 0.96 0.2 0 1 0.2 0 1.04 0.2 0 1.08 0.2 0 1.12 0.2 0 1.16 0.2 0 1.2 0.2 0 0 0.24 0 0.04 0.24 0 0.08 0.24 0 0.12 0.24 0 0.16 0.24 0 0.2 0.24 0 0.24 0.24 0 0.28 0.24 0 0.32 0.24 0 0.36 0.24 0 0.4 0.24 0 0.44 0.24 0 0.48 0.24 0 0.52 0.24 0 0.56 0.24 0 0.6 0.24 0 0.64 0.24 0 0.68 0.24 0 0.72 0.24 0 0.76 0.24 0 0.8 0.24 0 0.84 0.24 0 0.88 0.24 0 0.92 0.24 0 0.96 0.24 0 1 0.24 0 1.04 0.24 0 1.08 0.24 0 1.12 0.24 0 1.16 0.24 0 1.2 0.24 0 0 0.28 0 0.04 0.28 0 0.08 0.28 0 0.12 0.28 0 0.16 0.28 0 0.2 0.28 0 0.24 0.28 0 0.28 0.28 0 0.32 0.28 0 0.36 0.28 0 0.4 0.28 0 0.44 0.28 0 0.48 0.28 0 0.52 0.28 0 0.56 0.28 0 0.6 0.28 0 0.64 0.28 0 0.68 0.28 0 0.72 0.28 0 0.76 0.28 0 0.8 0.28 0 0.84 0.28 0 0.88 0.28 0 0.92 0.28 0 0.96 0.28 0 1 0.28 0 1.04 0.28 0 1.08 0.28 0 1.12 0.28 0 1.16 0.28 0 1.2 0.28 0 0 0.32 0 0.04 0.32 0 0.08 0.32 0 0.12 0.32 0 0.16 0.32 0 0.2 0.32 0 0.24 0.32 0 0.28 0.32 0 0.32 0.32 0 0.36 0.32 0 0.4 0.32 0 0.44 0.32 0 0.48 0.32 0 0.52 0.32 0 0.56 0.32 0 0.6 0.32 0 0.64 0.32 0 0.68 0.32 0 0.72 0.32 0 0.76 0.32 0 0.8 0.32 0 0.84 0.32 0 0.88 0.32 0 0.92 0.32 0 0.96 0.32 0 1 0.32 0 1.04 0.32 0 1.08 0.32 0 1.12 0.32 0 1.16 0.32 0 1.2 0.32 0 0 0.36 0 0.04 0.36 0 0.08 0.36 0 0.12 0.36 0 0.16 0.36 0 0.2 0.36 0 0.24 0.36 0 0.28 0.36 0 0.32 0.36 0 0.36 0.36 0 0.4 0.36 0 0.44 0.36 0 0.48 0.36 0 0.52 0.36 0 0.56 0.36 0 0.6 0.36 0 0.64 0.36 0 0.68 0.36 0 0.72 0.36 0 0.76 0.36 0 0.8 0.36 0 0.84 0.36 0 0.88 0.36 0 0.92 0.36 0 0.96 0.36 0 1 0.36 0 1.04 0.36 0 1.08 0.36 0 1.12 0.36 0 1.16 0.36 0 1.2 0.36 0 0 0.4 0 0.04 0.4 0 0.08 0.4 0 0.12 0.4 0 0.16 0.4 0 0.2 0.4 0 0.24 0.4 0 0.28 0.4 0 0.32 0.4 0 0.36 0.4 0 0.4 0.4 0 0.44 0.4 0 0.48 0.4 0 0.52 0.4 0 0.56 0.4 0 0.6 0.4 0 0.64 0.4 0 0.68 0.4 0 0.72 0.4 0 0.76 0.4 0 0.8 0.4 0 0.84 0.4 0 0.88 0.4 0 0.92 0.4 0 0.96 0.4 0 1 0.4 0 1.04 0.4 0 1.08 0.4 0 1.12 0.4 0 1.16 0.4 0 1.2 0.4 0 0 0.44 0 0.04 0.44 0 0.08 0.44 0 0.12 0.44 0 0.16 0.44 0 0.2 0.44 0 0.24 0.44 0 0.28 0.44 0 0.32 0.44 0 0.36 0.44 0 0.4 0.44 0 0.44 0.44 0 0.48 0.44 0 0.52 0.44 0 0.56 0.44 0 0.6 0.44 0 0.64 0.44 0 0.68 0.44 0 0.72 0.44 0 0.76 0.44 0 0.8 0.44 0 0.84 0.44 0 0.88 0.44 0 0.92 0.44 0 0.96 0.44 0 1 0.44 0 1.04 0.44 0 1.08 0.44 0 1.12 0.44 0 1.16 0.44 0 1.2 0.44 0 0 0.48 0 0.04 0.48 0 0.08 0.48 0 0.12 0.48 0 0.16 0.48 0 0.2 0.48 0 0.24 0.48 0 0.28 0.48 0 0.32 0.48 0 0.36 0.48 0 0.4 0.48 0 0.44 0.48 0 0.48 0.48 0 0.52 0.48 0 0.56 0.48 0 0.6 0.48 0 0.64 0.48 0 0.68 0.48 0 0.72 0.48 0 0.76 0.48 0 0.8 0.48 0 0.84 0.48 0 0.88 0.48 0 0.92 0.48 0 0.96 0.48 0 1 0.48 0 1.04 0.48 0 1.08 0.48 0 1.12 0.48 0 1.16 0.48 0 1.2 0.48 0 0 0.52 0 0.04 0.52 0 0.08 0.52 0 0.12 0.52 0 0.16 0.52 0 0.2 0.52 0 0.24 0.52 0 0.28 0.52 0 0.32 0.52 0 0.36 0.52 0 0.4 0.52 0 0.44 0.52 0 0.48 0.52 0 0.52 0.52 0 0.56 0.52 0 0.6 0.52 0 0.64 0.52 0 0.68 0.52 0 0.72 0.52 0 0.76 0.52 0 0.8 0.52 0 0.84 0.52 0 0.88 0.52 0 0.92 0.52 0 0.96 0.52 0 1 0.52 0 1.04 0.52 0 1.08 0.52 0 1.12 0.52 0 1.16 0.52 0 1.2 0.52 0 0 0.56 0 0.04 0.56 0 0.08 0.56 0 0.12 0.56 0 0.16 0.56 0 0.2 0.56 0 0.24 0.56 0 0.28 0.56 0 0.32 0.56 0 0.36 0.56 0 0.4 0.56 0 0.44 0.56 0 0.48 0.56 0 0.52 0.56 0 0.56 0.56 0 0.6 0.56 0 0.64 0.56 0 0.68 0.56 0 0.72 0.56 0 0.76 0.56 0 0.8 0.56 0 0.84 0.56 0 0.88 0.56 0 0.92 0.56 0 0.96 0.56 0 1 0.56 0 1.04 0.56 0 1.08 0.56 0 1.12 0.56 0 1.16 0.56 0 1.2 0.56 0 0 0.6 0 0.04 0.6 0 0.08 0.6 0 0.12 0.6 0 0.16 0.6 0 0.2 0.6 0 0.24 0.6 0 0.28 0.6 0 0.32 0.6 0 0.36 0.6 0 0.4 0.6 0 0.44 0.6 0 0.48 0.6 0 0.52 0.6 0 0.56 0.6 0 0.6 0.6 0 0.64 0.6 0 0.68 0.6 0 0.72 0.6 0 0.76 0.6 0 0.8 0.6 0 0.84 0.6 0 0.88 0.6 0 0.92 0.6 0 0.96 0.6 0 1 0.6 0 1.04 0.6 0 1.08 0.6 0 1.12 0.6 0 1.16 0.6 0 1.2 0.6 0 0 0.64 0 0.04 0.64 0 0.08 0.64 0 0.12 0.64 0 0.16 0.64 0 0.2 0.64 0 0.24 0.64 0 0.28 0.64 0 0.32 0.64 0 0.36 0.64 0 0.4 0.64 0 0.44 0.64 0 0.48 0.64 0 0.52 0.64 0 0.56 0.64 0 0.6 0.64 0 0.64 0.64 0 0.68 0.64 0 0.72 0.64 0 0.76 0.64 0 0.8 0.64 0 0.84 0.64 0 0.88 0.64 0 0.92 0.64 0 0.96 0.64 0 1 0.64 0 1.04 0.64 0 1.08 0.64 0 1.12 0.64 0 1.16 0.64 0 1.2 0.64 0 0 0.68 0 0.04 0.68 0 0.08 0.68 0 0.12 0.68 0 0.16 0.68 0 0.2 0.68 0 0.24 0.68 0 0.28 0.68 0 0.32 0.68 0 0.36 0.68 0 0.4 0.68 0 0.44 0.68 0 0.48 0.68 0 0.52 0.68 0 0.56 0.68 0 0.6 0.68 0 0.64 0.68 0 0.68 0.68 0 0.72 0.68 0 0.76 0.68 0 0.8 0.68 0 0.84 0.68 0 0.88 0.68 0 0.92 0.68 0 0.96 0.68 0 1 0.68 0 1.04 0.68 0 1.08 0.68 0 1.12 0.68 0 1.16 0.68 0 1.2 0.68 0 0 0.72 0 0.04 0.72 0 0.08 0.72 0 0.12 0.72 0 0.16 0.72 0 0.2 0.72 0 0.24 0.72 0 0.28 0.72 0 0.32 0.72 0 0.36 0.72 0 0.4 0.72 0 0.44 0.72 0 0.48 0.72 0 0.52 0.72 0 0.56 0.72 0 0.6 0.72 0 0.64 0.72 0 0.68 0.72 0 0.72 0.72 0 0.76 0.72 0 0.8 0.72 0 0.84 0.72 0 0.88 0.72 0 0.92 0.72 0 0.96 0.72 0 1 0.72 0 1.04 0.72 0 1.08 0.72 0 1.12 0.72 0 1.16 0.72 0 1.2 0.72 0 0 0.76 0 0.04 0.76 0 0.08 0.76 0 0.12 0.76 0 0.16 0.76 0 0.2 0.76 0 0.24 0.76 0 0.28 0.76 0 0.32 0.76 0 0.36 0.76 0 0.4 0.76 0 0.44 0.76 0 0.48 0.76 0 0.52 0.76 0 0.56 0.76 0 0.6 0.76 0 0.64 0.76 0 0.68 0.76 0 0.72 0.76 0 0.76 0.76 0 0.8 0.76 0 0.84 0.76 0 0.88 0.76 0 0.92 0.76 0 0.96 0.76 0 1 0.76 0 1.04 0.76 0 1.08 0.76 0 1.12 0.76 0 1.16 0.76 0 1.2 0.76 0 0 0.8 0 0.04 0.8 0 0.08 0.8 0 0.12 0.8 0 0.16 0.8 0 0.2 0.8 0 0.24 0.8 0 0.28 0.8 0 0.32 0.8 0 0.36 0.8 0 0.4 0.8 0 0.44 0.8 0 0.48 0.8 0 0.52 0.8 0 0.56 0.8 0 0.6 0.8 0 0.64 0.8 0 0.68 0.8 0 0.72 0.8 0 0.76 0.8 0 0.8 0.8 0 0.84 0.8 0 0.88 0.8 0 0.92 0.8 0 0.96 0.8 0 1 0.8 0 1.04 0.8 0 1.08 0.8 0 1.12 0.8 0 1.16 0.8 0 1.2 0.8 0 0 0.84 0 0.04 0.84 0 0.08 0.84 0 0.12 0.84 0 0.16 0.84 0 0.2 0.84 0 0.24 0.84 0 0.28 0.84 0 0.32 0.84 0 0.36 0.84 0 0.4 0.84 0 0.44 0.84 0 0.48 0.84 0 0.52 0.84 0 0.56 0.84 0 0.6 0.84 0 0.64 0.84 0 0.68 0.84 0 0.72 0.84 0 0.76 0.84 0 0.8 0.84 0 0.84 0.84 0 0.88 0.84 0 0.92 0.84 0 0.96 0.84 0 1 0.84 0 1.04 0.84 0 1.08 0.84 0 1.12 0.84 0 1.16 0.84 0 1.2 0.84 0 0 0.88 0 0.04 0.88 0 0.08 0.88 0 0.12 0.88 0 0.16 0.88 0 0.2 0.88 0 0.24 0.88 0 0.28 0.88 0 0.32 0.88 0 0.36 0.88 0 0.4 0.88 0 0.44 0.88 0 0.48 0.88 0 0.52 0.88 0 0.56 0.88 0 0.6 0.88 0 0.64 0.88 0 0.68 0.88 0 0.72 0.88 0 0.76 0.88 0 0.8 0.88 0 0.84 0.88 0 0.88 0.88 0 0.92 0.88 0 0.96 0.88 0 1 0.88 0 1.04 0.88 0 1.08 0.88 0 1.12 0.88 0 1.16 0.88 0 1.2 0.88 0 0 0.92 0 0.04 0.92 0 0.08 0.92 0 0.12 0.92 0 0.16 0.92 0 0.2 0.92 0 0.24 0.92 0 0.28 0.92 0 0.32 0.92 0 0.36 0.92 0 0.4 0.92 0 0.44 0.92 0 0.48 0.92 0 0.52 0.92 0 0.56 0.92 0 0.6 0.92 0 0.64 0.92 0 0.68 0.92 0 0.72 0.92 0 0.76 0.92 0 0.8 0.92 0 0.84 0.92 0 0.88 0.92 0 0.92 0.92 0 0.96 0.92 0 1 0.92 0 1.04 0.92 0 1.08 0.92 0 1.12 0.92 0 1.16 0.92 0 1.2 0.92 0 0 0.96 0 0.04 0.96 0 0.08 0.96 0 0.12 0.96 0 0.16 0.96 0 0.2 0.96 0 0.24 0.96 0 0.28 0.96 0 0.32 0.96 0 0.36 0.96 0 0.4 0.96 0 0.44 0.96 0 0.48 0.96 0 0.52 0.96 0 0.56 0.96 0 0.6 0.96 0 0.64 0.96 0 0.68 0.96 0 0.72 0.96 0 0.76 0.96 0 0.8 0.96 0 0.84 0.96 0 0.88 0.96 0 0.92 0.96 0 0.96 0.96 0 1 0.96 0 1.04 0.96 0 1.08 0.96 0 1.12 0.96 0 1.16 0.96 0 1.2 0.96 0 0 1 0 0.04 1 0 0.08 1 0 0.12 1 0 0.16 1 0 0.2 1 0 0.24 1 0 0.28 1 0 0.32 1 0 0.36 1 0 0.4 1 0 0.44 1 0 0.48 1 0 0.52 1 0 0.56 1 0 0.6 1 0 0.64 1 0 0.68 1 0 0.72 1 0 0.76 1 0 0.8 1 0 0.84 1 0 0.88 1 0 0.92 1 0 0.96 1 0 1 1 0 1.04 1 0 1.08 1 0 1.12 1 0 1.16 1 0 1.2 1 0 0 1.04 0 0.04 1.04 0 0.08 1.04 0 0.12 1.04 0 0.16 1.04 0 0.2 1.04 0 0.24 1.04 0 0.28 1.04 0 0.32 1.04 0 0.36 1.04 0 0.4 1.04 0 0.44 1.04 0 0.48 1.04 0 0.52 1.04 0 0.56 1.04 0 0.6 1.04 0 0.64 1.04 0 0.68 1.04 0 0.72 1.04 0 0.76 1.04 0 0.8 1.04 0 0.84 1.04 0 0.88 1.04 0 0.92 1.04 0 0.96 1.04 0 1 1.04 0 1.04 1.04 0 1.08 1.04 0 1.12 1.04 0 1.16 1.04 0 1.2 1.04 0 0 1.08 0 0.04 1.08 0 0.08 1.08 0 0.12 1.08 0 0.16 1.08 0 0.2 1.08 0 0.24 1.08 0 0.28 1.08 0 0.32 1.08 0 0.36 1.08 0 0.4 1.08 0 0.44 1.08 0 0.48 1.08 0 0.52 1.08 0 0.56 1.08 0 0.6 1.08 0 0.64 1.08 0 0.68 1.08 0 0.72 1.08 0 0.76 1.08 0 0.8 1.08 0 0.84 1.08 0 0.88 1.08 0 0.92 1.08 0 0.96 1.08 0 1 1.08 0 1.04 1.08 0 1.08 1.08 0 1.12 1.08 0 1.16 1.08 0 1.2 1.08 0 0 1.12 0 
[...]
			<PointData Scalars="VitesseX">
				<DataArray Name="VitesseX" type="Float32" format="ascii">
 0 -0.0426134 -0.075904 -0.00841139 0.12543 0.268787 0.362558 0.407328 0.392319 0.363715 0.339269 0.32533 0.333781 0.362673 0.408919 0.468282 0.532661 0.59736 0.659911 0.721332 0.77789 0.831544 0.876354 0.925975 0.959901 0.945086 0.814864 0.490018 0.106132 -0.0487139 0 0 0.0608581 0.0738601 0.120664 0.20033 0.286795 0.362882 0.37022 0.339107 0.303436 0.285041 0.287481 0.305491 0.34081 0.393429 0.456962 0.524919 0.592367 0.656882 0.719278 0.775824 0.828894 0.873259 0.922595 0.956635 0.942157 0.812759 0.489416 0.106708 -0.0484353 0 0 0.00974945 0.0167465 0.0205096 0.0310068 0.0591027 0.0865687 0.118375 0.142906 0.160828 0.17533 0.197221 0.233492 0.285793 0.352213 0.426608 0.502459 0.576442 0.645422 0.710329 0.767296 0.819808 0.863847 0.913197 0.948189 0.935116 0.808565 0.489571 0.109507 -0.0472773 0 0 -0.0622701 -0.0912524 -0.0972022 -0.101424 -0.107903 -0.107177 -0.085727 -0.0364025 0.00928918 0.0531238 0.10186 0.159473 0.224857 0.298032 0.378084 0.460901 0.541937 0.616609 0.68557 0.744839 0.799055 0.844582 0.895677 0.93348 0.923498 0.802688 0.491862 0.116138 -0.0445252 0 0 -0.102887 -0.146579 -0.1588 -0.171189 -0.183576 -0.185345 -0.15622 -0.110754 -0.0575499 -0.0066607 0.0493324 0.110942 0.176512 0.245591 0.321054 0.403118 0.486713 0.565482 0.638413 0.702097 0.760866 0.81048 0.865937 0.909219 0.904574 0.793559 0.496919 0.128928 -0.0386629 0 0 -0.102463 -0.153608 -0.17511 -0.182365 -0.187025 -0.17874 -0.157756 -0.120948 -0.0765127 -0.0233813 0.0316028 0.0885923 0.148527 0.209139 0.274897 0.348305 0.424433 0.499854 0.573118 0.64082 0.704258 0.759046 0.820417 0.871088 0.873824 0.777542 0.504382 0.151343 -0.0263388 0 0 -0.082434 -0.133299 -0.143197 -0.131147 -0.113266 -0.109547 -0.102308 -0.0871149 -0.0531272 -0.00835234 0.0405019 0.0903611 0.141433 0.192828 0.245681 0.306027 0.371138 0.436967 0.503007 0.568302 0.632745 0.691616 0.757982 0.814481 0.825188 0.747914 0.511246 0.187435 -0.000711876 0 0 -0.0360768 -0.0663339 -0.0683362 -0.0380352 -0.0084306 0.010298 0.00651559 0.00229684 0.0103698 0.0368951 0.0726656 0.113007 0.152229 0.192669 0.233456 0.278356 0.329729 0.384359 0.441236 0.498601 0.556033 0.614557 0.681525 0.736338 0.752248 0.696264 0.510323 0.23826 0.0481294 0 0 0.0319244 0.0497051 0.0546847 0.0702357 0.0860487 0.108245 0.125149 0.117017 0.107214 0.107679 0.124439 0.147994 0.176749 0.204131 0.232567 0.262671 0.300262 0.342923 0.390231 0.438422 0.486843 0.541384 0.598054 0.640681 0.655017 0.617549 0.491078 0.295266 0.125927 0 0 0.0835663 0.144467 0.161437 0.159011 0.15904 0.166346 0.183357 0.1997 0.19393 0.180222 0.172647 0.180128 0.194352 0.213523 0.232773 0.252662 0.277984 0.310157 0.3479 0.387942 0.431605 0.480175 0.520037 0.545133 0.547784 0.519599 0.444532 0.329576 0.216864 0 0 0.0884606 0.15929 0.184307 0.182332 0.176519 0.174317 0.182747 0.197119 0.210288 0.210456 0.202381 0.19386 0.194888 0.2042 0.219356 0.236743 0.254403 0.27921 0.309746 0.345099 0.386168 0.426776 0.454853 0.462898 0.44909 0.416287 0.370158 0.314733 0.264409 0 0 0.0843719 0.149097 0.174787 0.173492 0.164011 0.15597 0.154771 0.164445 0.177122 0.185355 0.18266 0.172322 0.162138 0.160456 0.170702 0.189842 0.212988 0.238825 0.268248 0.303204 0.341656 0.37477 0.395016 0.391612 0.359968 0.311977 0.272995 0.247376 0.243983 0 0 0.0711986 0.121377 0.143626 0.139049 0.124071 0.109175 0.100698 0.102293 0.112024 0.121765 0.125098 0.118361 0.102804 0.0886204 0.0875466 0.102408 0.131351 0.165871 0.203481 0.24351 0.282235 0.312018 0.324262 0.313616 0.269599 0.204314 0.160527 0.143377 0.173448 0 0 0.0488492 0.0831669 0.0940719 0.0817408 0.0606767 0.041741 0.029836 0.0276722 0.0322455 0.0384325 0.0402736 0.0331326 0.0184094 0.00129791 -0.0129987 -0.0132217 0.00694036 0.0450652 0.0921663 0.140164 0.182871 0.212229 0.219457 0.201322 0.154186 0.0897392 0.0455094 0.0362946 0.0844566 0 0 0.0247593 0.0397601 0.0346515 0.0120939 -0.0151312 -0.0360596 -0.0457156 -0.0463573 -0.0444412 -0.046151 -0.0546774 -0.0706105 -0.0898068 -0.114954 -0.138411 -0.151053 -0.145313 -0.115869 -0.0697151 -0.0199951 0.0226703 0.0499697 0.0553486 0.0370864 0.0029494 -0.035641 -0.0617166 -0.0526239 -0.000146974 0 0 0.00188563 -0.0070289 -0.0318869 -0.0683186 -0.102305 -0.120572 -0.121936 -0.115015 -0.109404 -0.1172 -0.14197 -0.172651 -0.209782 -0.251781 -0.29088 -0.314757 -0.318849 -0.303979 -0.274537 -0.239131 -0.208483 -0.187045 -0.176313 -0.177483 -0.179306 -0.17565 -0.159323 -0.118411 -0.0773171 0 0 -0.0196861 -0.0502601 -0.0957511 -0.144643 -0.179217 -0.192804 -0.190111 -0.178097 -0.16865 -0.175448 -0.208919 -0.259057 -0.321082 -0.388656 -0.449279 -0.493875 -0.516945 -0.521812 -0.521315 -0.518906 -0.508013 -0.485109 -0.454921 -0.419833 -0.372889 -0.312917 -0.240254 -0.168248 -0.135649 0 0 -0.0346485 -0.079098 -0.132425 -0.180872 -0.211634 -0.2243 -0.22387 -0.216861 -0.211177 -0.221515 -0.255641 -0.320012 -0.410118 -0.503435 -0.586466 -0.651156 -0.692637 -0.720393 -0.747735 -0.76694 -0.768235 -0.740774 -0.690394 -0.614288 -0.522034 -0.416391 -0.30418 -0.21103 -0.163273 0 0 -0.0447373 -0.0937424 -0.14459 -0.186593 -0.214309 -0.226486 -0.227515 -0.224062 -0.224523 -0.243125 -0.284732 -0.35856 -0.466517 -0.58427 -0.687905 -0.766887 -0.819917 -0.870198 -0.919052 -0.94793 -0.951511 -0.911097 -0.835049 -0.729167 -0.609987 -0.481067 -0.351872 -0.242545 -0.167372 0 0 -0.0520401 -0.100955 -0.144177 -0.180757 -0.205167 -0.216207 -0.217611 -0.215407 -0.217729 -0.241039 -0.289292 -0.375857 -0.497553 -0.629711 -0.749842 -0.839469 -0.907883 -0.976964 -1.03244 -1.05934 -1.05531 -0.993445 -0.900035 -0.781625 -0.650993 -0.513152 -0.378101 -0.257381 -0.159325 0 0 -0.0578945 -0.102621 -0.136598 -0.162107 -0.179339 -0.188675 -0.190855 -0.189856 -0.195786 -0.223962 -0.279238 -0.373642 -0.507848 -0.651975 -0.781851 -0.882906 -0.969225 -1.0457 -1.09655 -1.11725 -1.09413 -1.01896 -0.917798 -0.795631 -0.662156 -0.522395 -0.385902 -0.258848 -0.144541 0 0 -0.0617157 -0.0999756 -0.119553 -0.129287 -0.136647 -0.144254 -0.150287 -0.154519 -0.164704 -0.193736 -0.25598 -0.361722 -0.507124 -0.661176 -0.799877 -0.910628 -1.00518 -1.07999 -1.12318 -1.13422 -1.09946 -1.01886 -0.913604 -0.791761 -0.659433 -0.521017 -0.384437 -0.252524 -0.131121 0 0 -0.0606012 -0.0898568 -0.0919422 -0.085395 -0.0809244 -0.0877439 -0.104471 -0.12308 -0.142188 -0.178024 -0.242101 -0.352658 -0.51078 -0.674903 -0.816049 -0.926897 -1.01712 -1.08389 -1.10767 -1.08928 -1.05394 -0.982407 -0.890391 -0.773703 -0.64617 -0.512696 -0.376833 -0.245066 -0.124872 0 0 -0.0501666 -0.0676032 -0.0548652 -0.0352317 -0.0259379 -0.0357075 -0.0635735 -0.098205 -0.131717 -0.175136 -0.244209 -0.360129 -0.526551 -0.701574 -0.839106 -0.928775 -0.983873 -1.00696 -1.00617 -0.987559 -0.962457 -0.916661 -0.845217 -0.747173 -0.629145 -0.50176 -0.370527 -0.243157 -0.126528 0 0 -0.0272955 -0.0319541 -0.0113039 0.00939223 0.0127263 -0.00566208 -0.0425112 -0.0891453 -0.133802 -0.185825 -0.266384 -0.394565 -0.569626 -0.743853 -0.866885 -0.931665 -0.947851 -0.932054 -0.91113 -0.89007 -0.867208 -0.833849 -0.783995 -0.710222 -0.612766 -0.494623 -0.369652 -0.247306 -0.134953 0 0 0.00251788 0.0162497 0.034012 0.0461654 0.0355874 0.00510932 -0.0416277 -0.0964523 -0.156813 -0.225908 -0.320898 -0.463651 -0.653931 -0.816019 -0.908081 -0.942504 -0.915486 -0.865953 -0.836143 -0.811105 -0.786375 -0.757303 -0.717269 -0.663356 -0.586592 -0.489889 -0.37573 -0.259142 -0.139618 0 0 0.03356 0.053846 0.0725501 0.0686663 0.0458913 0.00348674 -0.0552497 -0.1324 -0.219585 -0.311591 -0.418963 -0.571677 -0.763131 -0.904732 -0.96007 -0.963024 -0.8929 -0.826934 -0.784562 -0.750909 -0.719101 -0.687301 -0.652693 -0.609619 -0.554538 -0.479196 -0.382307 -0.268994 -0.145751 0 0 0.0528428 0.0997456 0.094077 0.0743756 0.0431248 -0.0105879 -0.09162 -0.20042 -0.324773 -0.4435 -0.566314 -0.718547 -0.880413 -0.977904 -1.0044 -0.980015 -0.891743 -0.814598 -0.754171 -0.703457 -0.660239 -0.622698 -0.589476 -0.555082 -0.511304 -0.45918 -0.379739 -0.272111 -0.160843 0 0 0.201714 0.148195 0.0789449 0.0604377 0.0219472 -0.0420648 -0.134321 -0.264074 -0.425476 -0.595659 -0.756507 -0.911381 -1.02842 -1.08168 -1.08736 -1.03897 -0.93341 -0.824676 -0.733761 -0.659491 -0.601812 -0.557212 -0.521406 -0.4864 -0.446962 -0.398921 -0.340521 -0.282136 -0.138411 0 0 -0.291562 -0.0166557 0.0470309 0.0282562 -0.00838016 -0.0589844 -0.142859 -0.276616 -0.463929 -0.680755 -0.899083 -1.08522 -1.20556 -1.2519 -1.23022 -1.11218 -0.939246 -0.779475 -0.648785 -0.548037 -0.47358 -0.418974 -0.377717 -0.339016 -0.296104 -0.252157 -0.216263 -0.180354 -0.153839 0 0 0 0 0 0 0 0 0 0 0 0 0 0 0 0 0 0 0 0 0 0 0 0 0 0 0 0 0 0 0 0
				</DataArray>
				<DataArray Name="VitesseY" type="Float32" format="ascii">
 0 0 0 0 0 0 0 0 0 0 0 0 0 0 0 0 0 0 0 0 0 0 0 0 0 0 0 0 0 0 0 -0.0206346 0.0835568 0.0178888 -0.0509645 -0.0813018 -0.0671779 -0.0210996 0.0507246 0.0773909 0.0690294 0.0561515 0.0377582 0.0178651 -0.000614645 -0.0176985 -0.0249731 -0.0264226 -0.0259842 -0.0246446 -0.0222234 -0.0189852 -0.0154054 -0.0123432 -0.00959841 -0.00724599 -0.00637469 -0.00708136 -0.00827006 -0.00749329 -0.00575182 0 -0.0389318 0.112432 0.0501589 -0.0526337 -0.0886385 -0.0929873 -0.0172654 0.0895849 0.127065 0.119216 0.092189 0.0597375 0.0239344 -0.0133542 -0.0444267 -0.0567921 -0.0579882 -0.0564125 -0.0520527 -0.0454819 -0.0375351 -0.0302607 -0.0245564 -0.0197036 -0.015639 -0.0144441 -0.0161521 -0.0184086 -0.0160117 -0.011692 0 0.0324765 0.174611 0.0910759 -0.0102986 -0.0560111 -0.0659951 0.00907795 0.091598 0.133084 0.13152 0.103703 0.0599787 0.0112637 -0.0372252 -0.0808787 -0.0968654 -0.0974736 -0.0931866 -0.0841 -0.0713397 -0.0568853 -0.0457757 -0.0377479 -0.0316422 -0.0269068 -0.0260739 -0.0290473 -0.0319969 -0.0266252 -0.0181487 0 0.176047 0.277128 0.142277 0.0377884 -0.00656829 -0.015371 0.0405441 0.0909268 0.120383 0.127031 0.0952091 0.0453361 -0.0116437 -0.0660341 -0.116364 -0.140087 -0.141766 -0.135644 -0.121312 -0.101271 -0.0799701 -0.0646314 -0.0543686 -0.04765 -0.043412 -0.0438689 -0.0484852 -0.0517107 -0.0413275 -0.0259729 0 0.349069 0.390455 0.204901 0.0898131 0.0421062 0.0337505 0.065772 0.0962607 0.113676 0.116663 0.082419 0.027591 -0.0324076 -0.0914718 -0.144262 -0.177613 -0.183747 -0.17793 -0.161009 -0.13587 -0.108705 -0.0891447 -0.0767865 -0.0698602 -0.067863 -0.0706125 -0.0787877 -0.0823498 -0.0644235 -0.0371777 0 0.501108 0.504528 0.274064 0.133185 0.0746162 0.0688382 0.0988951 0.115144 0.122473 0.109213 0.0709506 0.01372 -0.0486599 -0.109647 -0.16273 -0.20426 -0.2174 -0.213563 -0.197449 -0.170813 -0.141026 -0.119113 -0.105243 -0.0990594 -0.100705 -0.108798 -0.124986 -0.131407 -0.104816 -0.0579487 0 0.603634 0.601892 0.339256 0.160937 0.0854737 0.0908739 0.134671 0.155247 0.150474 0.117254 0.0687646 0.00705692 -0.0572607 -0.119038 -0.172684 -0.217583 -0.24071 -0.240195 -0.226901 -0.200865 -0.170967 -0.150485 -0.136979 -0.13311 -0.138412 -0.158345 -0.190097 -0.206692 -0.177099 -0.105432 0 0.655843 0.63532 0.39971 0.178853 0.102408 0.108941 0.155068 0.200656 0.195238 0.150844 0.0834766 0.0132685 -0.0560409 -0.119127 -0.174105 -0.220108 -0.252418 -0.258971 -0.249336 -0.225849 -0.196571 -0.178045 -0.167445 -0.1659 -0.177973 -0.213861 -0.268983 -0.309421 -0.294095 -0.209207 0 0.644258 0.612905 0.424982 0.212793 0.136262 0.139176 0.174559 0.225206 0.239055 0.197729 0.122212 0.0355184 -0.043091 -0.111746 -0.170346 -0.217714 -0.25687 -0.272938 -0.268671 -0.250508 -0.222114 -0.202517 -0.194696 -0.197329 -0.21837 -0.268054 -0.344892 -0.424523 -0.453144 -0.394089 0 0.602166 0.56455 0.423034 0.254095 0.179971 0.18125 0.205964 0.245536 0.263451 0.238222 0.165058 0.0726519 -0.0190555 -0.0990538 -0.166493 -0.221246 -0.263858 -0.292176 -0.295703 -0.28468 -0.258367 -0.236452 -0.23125 -0.237449 -0.264089 -0.321907 -0.413607 -0.527661 -0.631832 -0.644537 0 0.559143 0.516127 0.417341 0.290226 0.227912 0.228165 0.247563 0.272907 0.285312 0.260901 0.19825 0.109203 0.0120716 -0.0827864 -0.167169 -0.238001 -0.289794 -0.324753 -0.339533 -0.33482 -0.317116 -0.296048 -0.290823 -0.301001 -0.332724 -0.392558 -0.490581 -0.626838 -0.796333 -0.906918 0 0.517391 0.483983 0.415966 0.324903 0.279434 0.280682 0.29556 0.309714 0.30909 0.281044 0.22026 0.135156 0.0390244 -0.065743 -0.169636 -0.259599 -0.332383 -0.38044 -0.408401 -0.414184 -0.407045 -0.393543 -0.391422 -0.407058 -0.447012 -0.513726 -0.612431 -0.751528 -0.942937 -1.11715 0 0.489822 0.473127 0.423782 0.364717 0.336625 0.337957 0.348886 0.350753 0.337786 0.301421 0.236355 0.151835 0.0543355 -0.0541634 -0.169415 -0.284201 -0.38589 -0.463649 -0.508778 -0.529843 -0.533556 -0.532806 -0.539032 -0.561667 -0.612069 -0.693421 -0.78703 -0.895909 -1.04922 -1.23665 0 0.490287 0.48068 0.448134 0.414903 0.400417 0.400394 0.401547 0.391618 0.367324 0.32328 0.254533 0.16424 0.063844 -0.0490529 -0.175695 -0.311558 -0.44181 -0.548542 -0.619652 -0.656018 -0.671672 -0.680993 -0.697473 -0.727913 -0.774036 -0.843419 -0.919181 -0.984715 -1.09225 -1.27324 0 0.515285 0.510255 0.493406 0.480019 0.472972 0.465938 0.45036 0.424716 0.391702 0.345594 0.277235 0.183563 0.0764926 -0.0452268 -0.183845 -0.338053 -0.491343 -0.621223 -0.714544 -0.769076 -0.796494 -0.813931 -0.832075 -0.855746 -0.883368 -0.92041 -0.965236 -1.0047 -1.08797 -1.23742 0 0.562137 0.562264 0.561464 0.562604 0.554628 0.529918 0.492604 0.45135 0.408999 0.361702 0.300826 0.212804 0.0984852 -0.0321045 -0.183818 -0.351307 -0.526114 -0.676427 -0.784606 -0.851787 -0.892257 -0.919083 -0.935047 -0.936306 -0.936888 -0.943937 -0.959326 -0.971684 -1.03243 -1.11228 0 0.626642 0.632676 0.646761 0.656311 0.637577 0.589921 0.533229 0.477134 0.425205 0.376076 0.320807 0.244314 0.134832 -0.00434147 -0.165737 -0.346289 -0.539885 -0.709104 -0.829078 -0.912207 -0.970424 -1.00407 -1.0157 -0.978311 -0.941009 -0.904978 -0.881846 -0.880752 -0.925409 -0.935812 0 0.705196 0.714751 0.73884 0.74907 0.715129 0.648158 0.574303 0.505777 0.44586 0.393234 0.340711 0.275227 0.176722 0.0406646 -0.128418 -0.32139 -0.536524 -0.725969 -0.869985 -0.97244 -1.03836 -1.07095 -1.07263 -0.992565 -0.916092 -0.850714 -0.812236 -0.801041 -0.814216 -0.772956 0 0.794437 0.804247 0.829737 0.833719 0.788837 0.704661 0.615353 0.535562 0.469206 0.415134 0.365328 0.307218 0.220927 0.0938373 -0.0748067 -0.282568 -0.526311 -0.744718 -0.91069 -1.02099 -1.08323 -1.10844 -1.09096 -0.989216 -0.895122 -0.820757 -0.770332 -0.741804 -0.724149 -0.64186 0 0.893924 0.896641 0.912857 0.910523 0.855389 0.758177 0.656258 0.566479 0.495056 0.440222 0.392615 0.34197 0.266903 0.149255 -0.0173291 -0.238647 -0.514694 -0.758482 -0.935315 -1.04464 -1.10173 -1.11813 -1.07252 -0.971707 -0.876222 -0.7987 -0.739733 -0.693851 -0.65172 -0.541968 0 1.00387 0.990017 0.986547 0.972497 0.909806 0.806551 0.698649 0.600689 0.523409 0.467728 0.425149 0.38066 0.312648 0.201242 0.0343969 -0.19902 -0.498781 -0.757248 -0.937647 -1.04042 -1.08045 -1.08643 -1.04148 -0.950422 -0.856451 -0.777153 -0.711271 -0.65364 -0.596229 -0.469039 0 1.119 1.08095 1.04626 1.01869 0.949991 0.848385 0.745943 0.643657 0.560246 0.504662 0.464186 0.419603 0.353267 0.242985 0.0718892 -0.16996 -0.474035 -0.730273 -0.900936 -0.984585 -1.01097 -1.0118 -0.974889 -0.90932 -0.827147 -0.751332 -0.682215 -0.618337 -0.553444 -0.415775 0 1.23024 1.1704 1.09112 1.04708 0.975333 0.884558 0.797159 0.700792 0.613655 0.55106 0.501539 0.451209 0.379164 0.265255 0.0892579 -0.155004 -0.443945 -0.683441 -0.830759 -0.896082 -0.914036 -0.909817 -0.88653 -0.841016 -0.780313 -0.71382 -0.649495 -0.586473 -0.518834 -0.375613 0 1.32034 1.24816 1.11951 1.06162 0.997269 0.924093 0.855612 0.773714 0.678393 0.594936 0.529674 0.466349 0.383456 0.258599 0.0794043 -0.156034 -0.414611 -0.615721 -0.730633 -0.782098 -0.795282 -0.790623 -0.772074 -0.745485 -0.708234 -0.661481 -0.6082 -0.553621 -0.485018 -0.337943 0 1.38538 1.30398 1.1484 1.08277 1.03257 0.979015 0.921769 0.844934 0.737632 0.629677 0.538249 0.45486 0.356253 0.220546 0.0441043 -0.163112 -0.371581 -0.525406 -0.613117 -0.653278 -0.663633 -0.6602 -0.645742 -0.628678 -0.612087 -0.586059 -0.55386 -0.510788 -0.44651 -0.295623 0 1.41316 1.32827 1.16893 1.10204 1.05935 1.01424 0.959942 0.884686 0.771449 0.641663 0.52399 0.411369 0.290284 0.152163 -0.000884558 -0.166203 -0.315771 -0.422231 -0.485789 -0.516293 -0.524552 -0.522654 -0.513495 -0.501891 -0.494733 -0.4898 -0.4791 -0.45901 -0.398826 -0.252017 0 1.36653 1.27963 1.14171 1.08793 1.04169 0.995143 0.937947 0.86403 0.752805 0.616892 0.482105 0.350367 0.217815 0.0852633 -0.0406171 -0.153338 -0.243002 -0.309459 -0.356979 -0.381853 -0.388448 -0.386152 -0.377855 -0.37114 -0.369974 -0.375786 -0.382318 -0.37981 -0.340597 -0.216343 0 1.02247 1.07464 1.05977 0.985614 0.901187 0.847084 0.786051 0.722701 0.637871 0.532242 0.416906 0.293631 0.164883 0.0488307 -0.045881 -0.117245 -0.170152 -0.214047 -0.245991 -0.260187 -0.261002 -0.253897 -0.246 -0.243858 -0.2477 -0.259297 -0.269083 -0.272169 -0.282222 -0.180485 0 0.799699 0.389079 0.832298 0.611309 0.544615 0.502074 0.446501 0.42741 0.400782 0.374884 0.324664 0.252725 0.165398 0.0775567 -0.0049437 -0.0799379 -0.136489 -0.163577 -0.16756 -0.159687 -0.145345 -0.132113 -0.125758 -0.127119 -0.135264 -0.139768 -0.145795 -0.160888 -0.138442 -0.153907 0 5.53873 0 0 0 0 0 0 0 0 0 0 0 0 0 0 0 0 0 0 0 0 0 0 0 0 0 0 0 0 0 0
				</DataArray>
			</PointData>
			<CellData Scalars="Density">
				<DataArray Name="Density" type="Float32" format="ascii">