<?xml version="1.0"?>
<VTKFile type="PolyData">
	<PolyData>
		<Piece NumberOfPoints="961" NumberOfPolys="900">
			<Points>
				<DataArray type="Float32" NumberOfComponents="3" format="ascii">
 0 0 0 0.04 0 0 0.08 0 0 0.12 0 0 0.16 0 0 0.2 0 0 0.24 0 0 0.28 0 0 0.32 0 0 0.36 0 0 0.4 0 0 0.44 0 0 0.48 0 0 0.52 0 0 0.56 0 0 0.6 0 0 0.64 0 0 0.68 0 0 0.72 0 0 0.76 0 0 0.8 0 0 0.84 0 0 0.88 0 0 0.92 0 0 0.96 0 0 1 0 0 1.04 0 0 1.08 0 0 1.12 0 0 1.16 0 0 1.2 0 0 0 0.04 0 0.04 0.04 0 0.08 0.04 0 0.12 0.04 0 0.16 0.04 0 0.2 0.04 0 0.24 0.04 0 0.28 0.04 0 0.32 0.04 0 0.36 0.04 0 0.4 0.04 0 0.44 0.04 0 0.48 0.04 0 0.52 0.04 0 0.56 0.04 0 0.6 0.04 0 0.64 0.04 0 0.68 0.04 0 0.72 0.04 0 0.76 0.04 0 0.8 0.04 0 0.84 0.04 0 0.88 0.04 0 0.92 0.04 0 0.96 0.04 0 1 0.04 0 1.04 0.04 0 1.08 0.04 0 1.12 0.04 0 1.16 0.04 0 1.2 0.04 0 0 0.08 0 0.04 0.08 0 0.08 0.08 0 0.12 0.08 0 0.16 0.08 0 0.2 0.08 0 0.24 0.08 0 0.28 0.08 0 0.32 0.08 0 0.36 0.08 0 0.4 0.08 0 0.44 0.08 0 0.48 0.08 0 0.52 0.08 0 0.56 0.08 0 0.6 0.08 0 0.64 0.08 0 0.68 0.08 0 0.72 0.08 0 0.76 0.08 0 0.8 0.08 0 0.84 0.08 0 0.88 0.08 0 0.92 0.08 0 0.96 0.08 0 1 0.08 0 1.04 0.08 0 1.08 0.08 0 1.12 0.08 0 1.16 0.08 0 1.2 0.08 0 0 0.12 0 0.04 0.12 0 0.08 0.12 0 0.12 0.12 0 0.16 0.12 0 0.2 0.12 0 0.24 0.12 0 0.28 0.12 0 0.32 0.12 0 0.36 0.12 0 0.4 0.12 0 0.44 0.12 0 0.48 0.12 0 0.52 0.12 0 0.56 0.12 0 0.6 0.12 0 0.64 0.12 0 0.68 0.12 0 0.72 0.12 0 0.76 0.12 0 0.8 0.12 0 0.84 0.12 0 0.88 0.12 0 0.92 0.12 0 0.96 0.12 0 1 0.12 0 1.04 0.12 0 1.08 0.12 0 1.12 0.12 0 1.16 0.12 0 1.2 0.12 0 0 0.16 0 0.04 0.16 0 0.08 0.16 0 0.12 0.16 0 0.16 0.16 0 0.2 0.16 0 0.24 0.16 0 0.28 0.16 0 0.32 0.16 0 0.36 0.16 0 0.4 0.16 0 0.44 0.16 0 0.48 0.16 0 0.52 0.16 0 0.56 0.16 0 0.6 0.16 0 0.64 0.16 0 0.68 0.16 0 0.72 0.16 0 0.76 0.16 0 0.8 0.16 0 0.84 0.16 0 0.88 0.16 0 0.92 0.16 0 0.96 0.16 0 1 0.16 0 1.04 0.16 0 1.08 0.16 0 1.12 0.16 0 1.16 0.16 0 1.2 0.16 0 0 0.2 0 0.04 0.2 0 0.08 0.2 0 0.12 0.2 0 0.16 0.2 0 0.2 0.2 0 0.24 0.2 0 0.28 0.2 0 0.32 0.2 0 0.36 0.2 0 0.4 0.2 0 0.44 0.2 0 0.48 0.2 0 0.52 0.2 0 0.56 0.2 0 0.6 0.2 0 0.64 0.2 0 0.68 0.2 0 0.72 0.2 0 0.76 0.2 0 0.8 0.2 0 0.84 0.2 0 0.88 0.2 0 0.92 0.2 0 0.96 0.2 0 1 0.2 0 1.04 0.2 0 1.08 0.2 0 1.12 0.2 0 1.16 0.2 0 1.2 0.2 0 0 0.24 0 0.04 0.24 0 0.08 0.24 0 0.12 0.24 0 0.16 0.24 0 0.2 0.24 0 0.24 0.24 0 0.28 0.24 0 0.32 0.24 0 0.36 0.24 0 0.4 0.24 0 0.44 0.24 0 0.48 0.24 0 0.52 0.24 0 0.56 0.24 0 0.6 0.24 0 0.64 0.24 0 0.68 0.24 0 0.72 0.24 0 0.76 0.24 0 0.8 0.24 0 0.84 0.24 0 0.88 0.24 0 0.92 0.24 0 0.96 0.24 0 1 0.24 0 1.04 0.24 0 1.08 0.24 0 1.12 0.24 0 1.16 0.24 0 1.2 0.24 0 0 0.28 0 0.04 0.28 0 0.08 0.28 0 0.12 0.28 0 0.16 0.28 0 0.2 0.28 0 0.24 0.28 0 0.28 0.28 0 0.32 0.28 0 0.36 0.28 0 0.4 0.28 0 0.44 0.28 0 0.48 0.28 0 0.52 0.28 0 0.56 0.28 0 0.6 0.28 0 0.64 0.28 0 0.68 0.28 0 0.72 0.28 0 0.76 0.28 0 0.8 0.28 0 0.84 0.28 0 0.88 0.28 0 0.92 0.28 0 0.96 0.28 0 1 0.28 0 1.04 0.28 0 1.08 0.28 0 1.12 0.28 0 1.16 0.28 0 1.2 0.28 0 0 0.32 0 0.04 0.32 0 0.08 0.32 0 0.12 0.32 0 0.16 0.32 0 0.2 0.32 0 0.24 0.32 0 0.28 0.32 0 0.32 0.32 0 0.36 0.32 0 0.4 0.32 0 0.44 0.32 0 0.48 0.32 0 0.52 0.32 0 0.56 0.32 0 0.6 0.32 0 0.64 0.32 0 0.68 0.32 0 0.72 0.32 0 0.76 0.32 0 0.8 0.32 0 0.84 0.32 0 0.88 0.32 0 0.92 0.32 0 0.96 0.32 0 1 0.32 0 1.04 0.32 0 1.08 0.32 0 1.12 0.32 0 1.16 0.32 0 1.2 0.32 0 0 0.36 0 0.04 0.36 0 0.08 0.36 0 0.12 0.36 0 0.16 0.36 0 0.2 0.36 0 0.24 0.36 0 0.28 0.36 0 0.32 0.36 0 0.36 0.36 0 0.4 0.36 0 0.44 0.36 0 0.48 0.36 0 0.52 0.36 0 0.56 0.36 0 0.6 0.36 0 0.64 0.36 0 0.68 0.36 0 0.72 0.36 0 0.76 0.36 0 0.8 0.36 0 0.84 0.36 0 0.88 0.36 0 0.92 0.36 0 0.96 0.36 0 1 0.36 0 1.04 0.36 0 1.08 0.36 0 1.12 0.36 0 1.16 0.36 0 1.2 0.36 0 0 0.4 0 0.04 0.4 0 0.08 0.4 0 0.12 0.4 0 0.16 0.4 0 0.2 0.4 0 0.24 0.4 0 0.28 0.4 0 0.32 0.4 0 0.36 0.4 0 0.4 0.4 0 0.44 0.4 0 0.48 0.4 0 0.52 0.4 0 0.56 0.4 0 0.6 0.4 0 0.64 0.4 0 0.68 0.4 0 0.72 0.4 0 0.76 0.4 0 0.8 0.4 0 0.84 0.4 0 0.88 0.4 0 0.92 0.4 0 0.96 0.4 0 1 0.4 0 1.04 0.4 0 1.08 0.4 0 1.12 0.4 0 1.16 0.4 0 1.2 0.4 0 0 0.44 0 0.04 0.44 0 0.08 0.44 0 0.12 0.44 0 0.16 0.44 0 0.2 0.44 0 0.24 0.44 0 0.28 0.44 0 0.32 0.44 0 0.36 0.44 0 0.4 0.44 0 0.44 0.44 0 0.48 0.44 0 0.52 0.44 0 0.56 0.44 0 0.6 0.44 0 0.64 0.44 0 0.68 0.44 0 0.72 0.44 0 0.76 0.44 0 0.8 0.44 0 0.84 0.44 0 0.88 0.44 0 0.92 0.44 0 0.96 0.44 0 1 0.44 0 1.04 0.44 0 1.08 0.44 0 1.12 0.44 0 1.16 0.44 0 1.2 0.44 0 0 0.48 0 0.04 0.48 0 0.08 0.48 0 0.12 0.48 0 0.16 0.48 0 0.2 0.48 0 0.24 0.48 0 0.28 0.48 0 0.32 0.48 0 0.36 0.48 0 0.4 0.48 0 0.44 0.48 0 0.48 0.48 0 0.52 0.48 0 0.56 0.48 0 0.6 0.48 0 0.64 0.48 0 0.68 0.48 0 0.72 0.48 0 0.76 0.48 0 0.8 0.48 0 0.84 0.48 0 0.88 0.48 0 0.92 0.48 0 0.96 0.48 0 1 0.48 0 1.04 0.48 0 1.08 0.48 0 1.12 0.48 0 1.16 0.48 0 1.2 0.48 0 0 0.52 0 0.04 0.52 0 0.08 0.52 0 0.12 0.52 0 0.16 0.52 0 0.2 0.52 0 0.24 0.52 0 0.28 0.52 0 0.32 0.52 0 0.36 0.52 0 0.4 0.52 0 0.44 0.52 0 0.48 0.52 0 0.52 0.52 0 0.56 0.52 0 0.6 0.52 0 0.64 0.52 0 0.68 0.52 0 0.72 0.52 0 0.76 0.52 0 0.8 0.52 0 0.84 0.52 0 0.88 0.52 0 0.92 0.52 0 0.96 0.52 0 1 0.52 0 1.04 0.52 0 1.08 0.52 0 1.12 0.52 0 1.16 0.52 0 1.2 0.52 0 0 0.56 0 0.04 0.56 0 0.08 0.56 0 0.12 0.56 0 0.16 0.56 0 0.2 0.56 0 0.24 0.56 0 0.28 0.56 0 0.32 0.56 0 0.36 0.56 0 0.4 0.56 0 0.44 0.56 0 0.48 0.56 0 0.52 0.56 0 0.56 0.56 0 0.6 0.56 0 0.64 0.56 0 0.68 0.56 0 0.72 0.56 0 0.76 0.56 0 0.8 0.56 0 0.84 0.56 0 0.88 0.56 0 0.92 0.56 0 0.96 0.56 0 1 0.56 0 1.04 0.56 0 1.08 0.56 0 1.12 0.56 0 1.16 0.56 0 1.2 0.56 0 0 0.6 0 0.04 0.6 0 0.08 0.6 0 0.12 0.6 0 0.16 0.6 0 0.2 0.6 0 0.24 0.6 0 0.28 0.6 0 0.32 0.6 0 0.36 0.6 0 0.4 0.6 0 0.44 0.6 0 0.48 0.6 0 0.52 0.6 0 0.56 0.6 0 0.6 0.6 0 0.64 0.6 0 0.68 0.6 0 0.72 0.6 0 0.76 0.6 0 0.8 0.6 0 0.84 0.6 0 0.88 0.6 0 0.92 0.6 0 0.96 0.6 0 1 0.6 0 1.04 0.6 0 1.08 0.6 0 1.12 0.6 0 1.16 0.6 0 1.2 0.6 0 0 0.64 0 0.04 0.64 0 0.08 0.64 0 0.12 0.64 0 0.16 0.64 0 0.2 0.64 0 0.24 0.64 0 0.28 0.64 0 0.32 0.64 0 0.36 0.64 0 0.4 0.64 0 0.44 0.64 0 0.48 0.64 0 0.52 0.64 0 0.56 0.64 0 0.6 0.64 0 0.64 0.64 0 0.68 0.64 0 0.72 0.64 0 0.76 0.64 0 0.8 0.64 0 0.84 0.64 0 0.88 0.64 0 0.92 0.64 0 0.96 0.64 0 1 0.64 0 1.04 0.64 0 1.08 0.64 0 1.12 0.64 0 1.16 0.64 0 1.2 0.64 0 0 0.68 0 0.04 0.68 0 0.08 0.68 0 0.12 0.68 0 0.16 0.68 0 0.2 0.68 0 0.24 0.68 0 0.28 0.68 0 0.32 0.68 0 0.36 0.68 0 0.4 0.68 0 0.44 0.68 0 0.48 0.68 0 0.52 0.68 0 0.56 0.68 0 0.6 0.68 0 0.64 0.68 0 0.68 0.68 0 0.72 0.68 0 0.76 0.68 0 0.8 0.68 0 0.84 0.68 0 0.88 0.68 0 0.92 0.68 0 0.96 0.68 0 1 0.68 0 1.04 0.68 0 1.08 0.68 0 1.12 0.68 0 1.16 0.68 0 1.2 0.68 0 0 0.72 0 0.04 0.72 0 0.08 0.72 0 0.12 0.72 0 0.16 0.72 0 0.2 0.72 0 0.24 0.72 0 0.28 0.72 0 0.32 0.72 0 0.36 0.72 0 0.4 0.72 0 0.44 0.72 0 0.48 0.72 0 0.52 0.72 0 0.56 0.72 0 0.6 0.72 0 0.64 0.72 0 0.68 0.72 0 0.72 0.72 0 0.76 0.72 0 0.8 0.72 0 0.84 0.72 0 0.88 0.72 0 0.92 0.72 0 0.96 0.72 0 1 0.72 0 1.04 0.72 0 1.08 0.72 0 1.12 0.72 0 1.16 0.72 0 1.2 0.72 0 0 0.76 0 0.04 0.76 0 0.08 0.76 0 0.12 0.76 0 0.16 0.76 0 0.2 0.76 0 0.24 0.76 0 0.28 0.76 0 0.32 0.76 0 0.36 0.76 0 0.4 0.76 0 0.44 0.76 0 0.48 0.76 0 0.52 0.76 0 0.56 0.76 0 0.6 0.76 0 0.64 0.76 0 0.68 0.76 0 0.72 0.76 0 0.76 0.76 0 0.8 0.76 0 0.84 0.76 0 0.88 0.76 0 0.92 0.76 0 0.96 0.76 0 1 0.76 0 1.04 0.76 0 1.08 0.76 0 1.12 0.76 0 1.16 0.76 0 1.2 0.76 0 0 0.8 0 0.04 0.8 0 0.08 0.8 0 0.12 0.8 0 0.16 0.8 0 0.2 0.8 0 0.24 0.8 0 0.28 0.8 0 0.32 0.8 0 0.36 0.8 0 0.4 0.8 0 0.44 0.8 0 0.48 0.8 0 0.52 0.8 0 0.56 0.8 0 0.6 0.8 0 0.64 0.8 0 0.68 0.8 0 0.72 0.8 0 0.76 0.8 0 0.8 0.8 0 0.84 0.8 0 0.88 0.8 0 0.92 0.8 0 0.96 0.8 0 1 0.8 0 1.04 0.8 0 1.08 0.8 0 1.12 0.8 0 1.16 0.8 0 1.2 0.8 0 0 0.84 0 0.04 0.84 0 0.08 0.84 0 0.12 0.84 0 0.16 0.84 0 0.2 0.84 0 0.24 0.84 0 0.28 0.84 0 0.32 0.84 0 0.36 0.84 0 0.4 0.84 0 0.44 0.84 0 0.48 0.84 0 0.52 0.84 0 0.56 0.84 0 0.6 0.84 0 0.64 0.84 0 0.68 0.84 0 0.72 0.84 0 0.76 0.84 0 0.8 0.84 0 0.84 0.84 0 0.88 0.84 0 0.92 0.84 0 0.96 0.84 0 1 0.84 0 1.04 0.84 0 1.08 0.84 0 1.12 0.84 0 1.16 0.84 0 1.2 0.84 0 0 0.88 0 0.04 0.88 0 0.08 0.88 0 0.12 0.88 0 0.16 0.88 0 0.2 0.88 0 0.24 0.88 0 0.28 0.88 0 0.32 0.88 0 0.36 0.88 0 0.4 0.88 0 0.44 0.88 0 0.48 0.88 0 0.52 0.88 0 0.56 0.88 0 0.6 0.88 0 0.64 0.88 0 0.68 0.88 0 0.72 0.88 0 0.76 0.88 0 0.8 0.88 0 0.84 0.88 0 0.88 0.88 0 0.92 0.88 0 0.96 0.88 0 1 0.88 0 1.04 0.88 0 1.08 0.88 0 1.12 0.88 0 1.16 0.88 0 1.2 0.88 0 0 0.92 0 0.04 0.92 0 0.08 0.92 0 0.12 0.92 0 0.16 0.92 0 0.2 0.92 0 0.24 0.92 0 0.28 0.92 0 0.32 0.92 0 0.36 0.92 0 0.4 0.92 0 0.44 0.92 0 0.48 0.92 0 0.52 0.92 0 0.56 0.92 0 0.6 0.92 0 0.64 0.92 0 0.68 0.92 0 0.72 0.92 0 0.76 0.92 0 0.8 0.92 0 0.84 0.92 0 0.88 0.92 0 0.92 0.92 0 0.96 0.92 0 1 0.92 0 1.04 0.92 0 1.08 0.92 0 1.12 0.92 0 1.16 0.92 0 1.2 0.92 0 0 0.96 0 0.04 0.96 0 0.08 0.96 0 0.12 0.96 0 0.16 0.96 0 0.2 0.96 0 0.24 0.96 0 0.28 0.96 0 0.32 0.96 0 0.36 0.96 0 0.4 0.96 0 0.44 0.96 0 0.48 0.96 0 0.52 0.96 0 0.56 0.96 0 0.6 0.96 0 0.64 0.96 0 0.68 0.96 0 0.72 0.96 0 0.76 0.96 0 0.8 0.96 0 0.84 0.96 0 0.88 0.96 0 0.92 0.96 0 0.96 0.96 0 1 0.96 0 1.04 0.96 0 1.08 0.96 0 1.12 0.96 0 1.16 0.96 0 1.2 0.96 0 0 1 0 0.04 1 0 0.08 1 0 0.12 1 0 0.16 1 0 0.2 1 0 0.24 1 0 0.28 1 0 0.32 1 0 0.36 1 0 0.4 1 0 0.44 1 0 0.48 1 0 0.52 1 0 0.56 1 0 0.6 1 0 0.64 1 0 0.68 1 0 0.72 1 0 0.76 1 0 0.8 1 0 0.84 1 0 0.88 1 0 0.92 1 0 0.96 1 0 1 1 0 1.04 1 0 1.08 1 0 1.12 1 0 1.16 1 0 1.2 1 0 0 1.04 0 0.04 1.04 0 0.08 1.04 0 0.12 1.04 0 0.16 1.04 0 0.2 1.04 0 0.24 1.04 0 0.28 1.04 0 0.32 1.04 0 0.36 1.04 0 0.4 1.04 0 0.44 1.04 0 0.48 1.04 0 0.52 1.04 0 0.56 1.04 0 0.6 1.04 0 0.64 1.04 0 0.68 1.04 0 0.72 1.04 0 0.76 1.04 0 0.8 1.04 0 0.84 1.04 0 0.88 1.04 0 0.92 1.04 0 0.96 1.04 0 1 1.04 0 1.04 1.04 0 1.08 1.04 0 1.12 1.04 0 1.16 1.04 0 1.2 1.04 0 0 1.08 0 0.04 1.08 0 0.08 1.08 0 0.12 1.08 0 0.16 1.08 0 0.2 1.08 0 0.24 1.08 0 0.28 1.08 0 0.32 1.08 0 0.36 1.08 0 0.4 1.08 0 0.44 1.08 0 0.48 1.08 0 0.52 1.08 0 0.56 1.08 0 0.6 1.08 0 0.64 1.08 0 0.68 1.08 0 0.72 1.08 0 0.76 1.08 0 0.8 1.08 0 0.84 1.08 0 0.88 1.08 0 0.92 1.08 0 0.96 1.08 0 1 1.08 0 1.04 1.08 0 1.08 1.08 0 1.12 1.08 0 1.16 1.08 0 1.2 1.08 0 0 1.12 0 
[...]
			<PointData Scalars="VitesseX">
				<DataArray Name="VitesseX" type="Float32" format="ascii">
 0 0.0194751 -0.125741 -0.146808 0.0388823 0.317421 0.477908 0.645858 0.821776 0.97197 1.12854 1.28778 1.44362 1.60301 1.76673 1.9391 2.11886 2.28995 2.63461 2.90068 2.76962 2.23671 1.18354 0.185368 0.00185425 1.04338e-07 1.67784e-14 1.07753e-12 -3.6355e-12 3.6355e-12 0 0 0.318376 0.443174 0.335393 0.339946 0.526453 0.607274 0.731446 0.878912 1.01129 1.15312 1.30051 1.44738 1.60018 1.75937 1.93015 2.10875 2.28074 2.63266 2.8864 2.74919 2.20762 1.14942 0.172486 0.00160887 8.65632e-08 -9.88989e-14 1.07733e-12 -3.63545e-12 3.63246e-12 0 0 0.26244 0.520362 0.531823 0.577519 0.726559 0.736205 0.827511 0.936679 1.05286 1.1825 1.32074 1.46236 1.6119 1.7678 1.93807 2.11142 2.2843 2.65355 2.86963 2.71088 2.13412 1.05207 0.138175 0.00104442 4.99847e-08 1.96699e-12 5.3116e-13 -3.62896e-12 1.81415e-12 0 0 0.183056 0.376864 0.483317 0.669469 0.757186 0.794706 0.911512 0.995931 1.10474 1.22243 1.35057 1.48619 1.63119 1.78196 1.95087 2.11651 2.29744 2.6901 2.84604 2.65017 2.01218 0.896172 0.0932804 0.000497516 2.08091e-08 3.72133e-13 -5.58139e-15 -1.81175e-12 1.81386e-12 0 0 0.113259 0.298641 0.46629 0.647102 0.717759 0.842385 0.961579 1.04752 1.15633 1.26742 1.38822 1.51739 1.6567 1.80219 1.96902 2.12482 2.32721 2.73304 2.80944 2.55691 1.83153 0.690522 0.051045 0.000168547 6.60528e-09 1.55292e-13 -1.8154e-12 -1.81955e-15 1.81229e-12 0 0 0.100662 0.275098 0.434853 0.584442 0.713462 0.863224 0.969443 1.07951 1.19287 1.30645 1.42364 1.55098 1.68471 1.82769 1.99054 2.13623 2.38283 2.76332 2.75361 2.41574 1.58001 0.458984 0.0215216 3.89527e-05 1.66689e-09 1.85592e-12 9.49591e-15 -1.82975e-12 1.1715e-14 0 0 0.106383 0.246484 0.403909 0.573406 0.722285 0.855507 0.968732 1.09095 1.21466 1.33082 1.44898 1.57797 1.70686 1.85516 2.0081 2.15329 2.47451 2.7593 2.66465 2.21015 1.24767 0.248958 0.00663443 5.83307e-06 3.24398e-10 1.81372e-12 -1.0564e-11 1.05674e-11 -1.81263e-12 0 0 0.107175 0.238606 0.400692 0.562903 0.708158 0.839746 0.964591 1.0939 1.2208 1.33975 1.46667 1.59289 1.72399 1.88053 2.01657 2.18996 2.57697 2.7103 2.52368 1.91764 0.847588 0.104229 0.00140624 5.4656e-07 4.43016e-11 -1.05784e-11 6.98382e-15 -2.07679e-15 1.05682e-11 0 0 0.106171 0.235233 0.385632 0.535536 0.685822 0.823559 0.956782 1.08988 1.21491 1.34299 1.47258 1.59738 1.74401 1.89272 2.0212 2.27659 2.62914 2.61732 2.30311 1.51005 0.453272 0.0306647 0.000186678 3.51828e-08 4.02294e-12 -1.05696e-11 2.02389e-15 -1.88974e-15 1.05627e-11 0 0 0.105597 0.227891 0.365514 0.510647 0.659435 0.802524 0.940368 1.07265 1.20584 1.34109 1.46701 1.60496 1.76168 1.88924 2.05029 2.41609 2.59433 2.46318 1.96679 0.991156 0.177281 0.00585515 1.36695e-05 2.16324e-09 2.74099e-13 1.81607e-12 -1.05701e-11 -1.65471e-17 8.74127e-12 0 0 0.106845 0.225063 0.354197 0.491538 0.633424 0.775526 0.915036 1.05493 1.19499 1.32679 1.46438 1.62222 1.75877 1.8887 2.15993 2.4847 2.4821 2.20497 1.47425 0.481562 0.0460564 0.000656808 5.06459e-07 1.1761e-10 2.06609e-14 -8.07628e-15 3.63474e-12 -1.42183e-11 1.24036e-11 0 0 0.10766 0.223572 0.347058 0.478318 0.615276 0.755104 0.89747 1.03946 1.17769 1.32038 1.47762 1.6217 1.74726 1.95281 2.31242 2.42555 2.28399 1.78358 0.851485 0.158838 0.00708832 3.59284e-05 1.23576e-08 2.22929e-12 7.53794e-15 -3.19291e-14 3.65337e-12 -3.64511e-12 -8.73796e-12 0 0 0.108304 0.223079 0.343704 0.471332 0.605591 0.744987 0.886534 1.02853 1.17526 1.33118 1.47778 1.60793 1.78854 2.12372 2.31606 2.26338 1.93064 1.16091 0.331271 0.0314212 0.000564138 8.14126e-07 3.42998e-10 1.24881e-11 6.81865e-15 -2.78059e-14 -3.1596e-11 3.15922e-11 -1.05457e-11 0 0 0.109643 0.224056 0.34353 0.469515 0.602414 0.74093 0.883638 1.03182 1.1852 1.3303 1.46789 1.64806 1.95549 2.17502 2.18165 1.95801 1.34738 0.508297 0.0788944 0.00321971 1.77881e-05 1.04907e-08 -3.74762e-12 -8.03332e-15 7.89892e-17 1.23709e-11 -3.3431e-11 3.33981e-11 -1.23366e-11 0 0 0.111818 0.227005 0.346397 0.472294 0.605521 0.745648 0.891399 1.03995 1.18407 1.33167 1.52668 1.81361 2.01995 2.0589 1.89921 1.41009 0.63436 0.135247 0.00951415 0.00013422 1.93802e-07 1.70255e-10 -8.64147e-12 -2.21377e-14 -1.54635e-14 9.94872e-15 1.23836e-11 -1.23912e-11 2.83458e-14 0 0 0.115753 0.233893 0.356077 0.483951 0.618108 0.757804 0.900762 1.04728 1.21176 1.42946 1.68393 1.85741 1.90438 1.77791 1.36871 0.680485 0.176835 0.0178209 0.000467956 1.65414e-06 1.67863e-09 -1.07254e-11 1.81883e-12 1.23608e-11 -2.94561e-14 -2.47207e-11 2.47537e-11 -2.47536e-11 2.4781e-11 0 0 0.120702 0.243168 0.369492 0.500074 0.635831 0.779536 0.937972 1.12563 1.34509 1.54443 1.68644 1.72141 1.60553 1.24262 0.643736 0.187234 0.0235513 0.000918645 6.21979e-06 8.42364e-09 1.46136e-11 7.62871e-15 1.23976e-11 -1.23995e-11 -1.44484e-14 5.78306e-15 1.23817e-11 -1.2395e-11 3.65493e-14 0 0 0.126566 0.25672 0.39291 0.536864 0.693081 0.866014 1.04948 1.22802 1.38448 1.49595 1.50837 1.38491 1.04689 0.53847 0.164078 0.0230835 0.00113197 1.16153e-05 2.33562e-08 7.25355e-11 -2.47025e-11 2.47836e-11 -1.23858e-11 1.83442e-15 -1.09414e-14 1.23721e-11 -3.34248e-11 3.34005e-11 -1.23268e-11 0 0 0.144231 0.293107 0.446396 0.603749 0.763106 0.919784 1.07084 1.20005 1.27176 1.25827 1.11509 0.797124 0.391224 0.117687 0.0168587 0.00090727 1.15954e-05 3.30459e-08 1.13253e-10 -2.08301e-11 2.10527e-11 -2.09869e-14 2.4395e-14 -1.09846e-14 -1.00217e-14 1.23791e-11 -3.34252e-11 2.10311e-11 2.78721e-14 0 0 0.154689 0.308336 0.459897 0.609021 0.751685 0.876881 0.970805 1.00733 0.963133 0.801555 0.523118 0.2378 0.0657707 0.00880541 0.000458361 6.18951e-06 2.32502e-08 1.13048e-10 2.95052e-13 -2.10273e-11 2.10607e-11 -2.86757e-14 3.19325e-14 -3.2501e-14 4.95217e-15 4.95781e-15 1.23865e-11 -2.47691e-11 1.23796e-11 0 0 0.148305 0.290329 0.423129 0.542174 0.637847 0.696507 0.699653 0.628548 0.474323 0.274919 0.110847 0.0258597 0.0029721 0.000131163 1.64054e-06 8.35766e-09 4.74865e-11 -2.08177e-11 2.10053e-11 1.59938e-14 8.2532e-15 1.23765e-11 -2.47533e-11 2.47293e-11 2.27445e-15 -2.47307e-11 2.47496e-11 -1.23567e-11 1.23858e-11 0 0 0.117471 0.22241 0.309438 0.370787 0.395679 0.375514 0.307555 0.205521 0.102502 0.0329862 0.00596701 0.000527963 1.74089e-05 1.90825e-07 1.63176e-09 1.44483e-11 9.39374e-14 -2.10367e-11 2.10351e-11 -2.29183e-14 1.86324e-14 -1.81188e-14 3.57379e-14 -3.50956e-14 -1.54943e-15 2.31554e-14 1.2365e-11 -1.23547e-11 1.23968e-11 0 0 0.0591222 0.106276 0.135439 0.14269 0.127758 0.093788 0.051841 0.0194535 0.00450131 0.000580725 3.42368e-05 7.93802e-07 1.01632e-08 1.67157e-10 -7.10305e-12 -9.9731e-15 1.16525e-14 -3.8127e-15 2.49577e-15 1.23624e-11 -2.47508e-11 1.23894e-11 -2.98802e-15 4.57353e-15 -2.35008e-14 1.24001e-11 -1.23787e-11 -1.2392e-11 2.4762e-11 0 0 0.0122373 0.0202691 0.0217895 0.0172441 0.00986114 0.00390459 0.00101734 0.000157373 1.26028e-05 4.82007e-07 1.16633e-08 3.33416e-10 1.71873e-11 -1.22942e-11 1.8242e-12 1.23745e-11 -1.23803e-11 -6.27031e-15 4.80207e-15 -2.00523e-14 2.60503e-14 -1.86122e-14 7.81208e-15 4.35091e-15 -2.30753e-14 6.00698e-15 -9.8551e-15 -4.63666e-15 -2.10454e-11 0 0 0.000215485 0.000282996 0.000205265 9.37008e-05 2.69751e-05 4.69188e-06 4.76179e-07 3.10355e-08 1.93254e-09 1.13384e-10 2.02404e-12 -8.66159e-12 1.25727e-14 -2.7702e-14 1.24008e-11 -1.23836e-11 -4.33333e-15 1.51636e-14 -3.06108e-14 -8.08373e-15 3.87369e-14 -3.03556e-14 3.0133e-14 -3.98058e-14 2.26299e-14 -2.40371e-14 -2.10491e-11 3.34117e-11 -3.33782e-11 0 0 1.56467e-08 1.72796e-08 9.95241e-09 3.78721e-09 1.09679e-09 2.43284e-10 4.03991e-11 -1.33293e-13 2.52159e-13 1.45164e-14 -7.06319e-16 3.62116e-12 -2.47731e-11 2.47283e-11 1.37592e-14 -2.47417e-11 2.47586e-11 -2.47597e-11 2.47377e-11 -1.72546e-14 -2.47203e-11 2.47464e-11 -2.47464e-11 2.47383e-11 -6.89643e-15 -9.3126e-15 -6.68234e-11 6.68226e-11 3.0954e-14 0 0 1.16058e-13 -1.10303e-12 1.35095e-13 7.88494e-14 -1.79948e-12 1.83022e-12 -1.0572e-11 1.05703e-11 -1.8145e-12 3.61551e-15 -2.67812e-14 3.65064e-12 -1.24105e-11 -1.07758e-14 8.18818e-15 5.37996e-15 1.23814e-11 -1.23745e-11 -6.73828e-15 -1.11652e-14 2.36271e-14 1.23575e-11 -2.47512e-11 2.47587e-11 -4.20814e-14 -3.34092e-11 5.03695e-14 -4.67208e-14 3.34513e-11 0 0 2.04229e-16 5.32595e-13 -3.63209e-12 1.81941e-12 -1.4496e-14 -1.05704e-11 7.44723e-15 -5.22604e-15 1.05745e-11 -4.72432e-15 -2.36626e-14 -3.15978e-11 3.34016e-11 -1.23694e-11 6.26198e-15 1.23618e-11 -3.34151e-11 3.34286e-11 -1.23723e-11 -1.81028e-14 1.23998e-11 -1.23854e-11 -3.34478e-14 -2.10283e-11 -1.47112e-14 3.73878e-14 -4.22778e-14 3.51465e-14 -4.11743e-14 0 0 5.38897e-17 -6.93273e-15 -1.8121e-12 -4.77245e-16 1.80236e-12 -1.05635e-11 2.00743e-15 -4.55911e-15 3.61523e-15 1.05528e-11 1.06234e-14 -3.16442e-11 3.34191e-11 -1.23615e-11 6.1406e-15 1.23484e-11 -3.34128e-11 2.10563e-11 1.15543e-14 1.23736e-11 -1.23746e-11 -1.23921e-11 2.47294e-11 -3.34141e-11 7.65525e-15 1.94763e-14 -3.51465e-14 3.28477e-14 -3.3634e-14 0 0 -3.50452e-13 -1.81577e-12 1.81366e-12 -1.81786e-12 -8.76473e-15 1.82041e-12 -1.05706e-11 1.05628e-11 -1.23834e-11 1.23839e-11 -1.23889e-11 1.41849e-11 -1.2395e-11 2.8245e-14 6.73417e-15 -3.8085e-14 1.24059e-11 -2.4777e-11 1.23964e-11 1.24073e-11 -1.23953e-11 -4.35091e-14 -2.10392e-11 3.34381e-11 -2.45336e-14 -3.33973e-11 -2.90461e-14 3.19889e-14 3.34207e-11 0 0 0 0 0 0 0 0 0 0 0 0 0 0 0 0 0 0 0 0 0 0 0 0 0 0 0 0 0 0 0 0
				</DataArray>
				<DataArray Name="VitesseY" type="Float32" format="ascii">
 0 0 0 0 0 0 0 0 0 0 0 0 0 0 0 0 0 0 0 0 0 0 0 0 0 0 0 0 0 0 0 0.0195168 0.31832 0.262391 0.18303 0.113251 0.10067 0.106396 0.107185 0.106177 0.105603 0.106851 0.107665 0.108309 0.109647 0.11182 0.11575 0.120699 0.126564 0.144231 0.154691 0.148307 0.117473 0.0591236 0.0122378 0.000215501 1.56487e-08 1.16079e-13 2.04229e-16 5.39184e-17 -2.93869e-15 0 -0.125719 0.443126 0.520327 0.376842 0.298657 0.275146 0.246522 0.238624 0.235235 0.227892 0.225069 0.223577 0.223084 0.224059 0.227004 0.233889 0.243163 0.256718 0.293109 0.308339 0.290332 0.222413 0.106279 0.0202698 0.000283015 1.72818e-08 -1.10301e-12 5.32595e-13 -6.93267e-15 -1.81576e-12 0 -0.146862 0.335323 0.531788 0.483306 0.466313 0.434894 0.403947 0.400712 0.385632 0.36551 0.354197 0.347059 0.343705 0.34353 0.346395 0.356073 0.369489 0.392909 0.446399 0.459901 0.423134 0.309443 0.135442 0.0217902 0.000205279 9.95352e-09 1.35116e-13 -3.63209e-12 -1.8121e-12 1.81366e-12 0 0.0387906 0.339873 0.577473 0.669455 0.647125 0.584485 0.573453 0.562937 0.535549 0.510649 0.491537 0.478315 0.471328 0.469512 0.472291 0.483949 0.500073 0.536866 0.603753 0.609026 0.54218 0.370793 0.142693 0.0172447 9.37067e-05 3.78757e-09 7.88587e-14 1.81941e-12 -4.77245e-16 -1.81786e-12 0 0.317341 0.526415 0.726565 0.757195 0.717773 0.713486 0.722314 0.708185 0.685842 0.659444 0.633425 0.615272 0.605586 0.602409 0.605517 0.618105 0.63583 0.693084 0.763111 0.751691 0.637852 0.395684 0.12776 0.00986141 2.69766e-05 1.09688e-09 -1.79948e-12 -1.4496e-14 1.80236e-12 -8.76473e-15 0 0.477825 0.607238 0.736215 0.794695 0.842379 0.863234 0.855529 0.839771 0.823581 0.802537 0.77553 0.755102 0.744984 0.740926 0.745644 0.757801 0.779536 0.866017 0.919788 0.876886 0.696512 0.375517 0.093789 0.00390467 4.6921e-06 2.43299e-10 1.83022e-12 -1.05704e-11 -1.05635e-11 1.82041e-12 0 0.645792 0.731431 0.827537 0.911515 0.961569 0.969447 0.968751 0.964613 0.956802 0.94038 0.915039 0.89747 0.886533 0.883636 0.891396 0.900759 0.937971 1.04948 1.07084 0.970808 0.699655 0.307556 0.0518411 0.00101735 4.76195e-07 4.04009e-11 -1.0572e-11 7.44723e-15 2.00743e-15 -1.05706e-11 0 0.82172 0.878904 0.936699 0.995951 1.04751 1.07951 1.09096 1.09392 1.0899 1.07266 1.05493 1.03947 1.02853 1.03182 1.03995 1.04728 1.12563 1.22802 1.20005 1.00733 0.628549 0.20552 0.0194535 0.000157374 3.10361e-08 -1.3316e-13 1.05703e-11 -5.22604e-15 -4.55911e-15 1.05628e-11 0 0.971921 1.01128 1.05287 1.10477 1.15634 1.19288 1.21468 1.22082 1.21492 1.20585 1.19499 1.17769 1.17527 1.18521 1.18408 1.21176 1.34509 1.38448 1.27176 0.963131 0.474321 0.102501 0.00450125 1.26026e-05 1.93254e-09 2.5218e-13 -1.8145e-12 1.05745e-11 3.61523e-15 -1.23834e-11 0 1.1285 1.15311 1.18251 1.22245 1.26743 1.30646 1.33083 1.33976 1.34299 1.3411 1.32679 1.32038 1.33118 1.3303 1.33167 1.42946 1.54443 1.49595 1.25827 0.801553 0.274916 0.0329857 0.000580712 4.81994e-07 1.13383e-10 1.45164e-14 3.61551e-15 -4.72432e-15 1.05528e-11 1.23839e-11 0 1.28776 1.3005 1.32074 1.35058 1.38823 1.42365 1.44899 1.46668 1.47259 1.46701 1.46439 1.47762 1.47778 1.46789 1.52668 1.68393 1.68644 1.50837 1.11509 0.523116 0.110846 0.0059669 3.42357e-05 1.16629e-08 2.02397e-12 -7.06319e-16 -2.67812e-14 -2.36626e-14 1.06234e-14 -1.23889e-11 0 1.44361 1.44738 1.46236 1.4862 1.5174 1.55099 1.57799 1.5929 1.59738 1.60496 1.62223 1.62171 1.60793 1.64806 1.8136 1.85741 1.7214 1.38491 0.79712 0.237799 0.0258594 0.000527951 7.93774e-07 3.33404e-10 -8.66161e-12 3.62116e-12 3.65064e-12 -3.15978e-11 -3.16442e-11 1.41849e-11 0 1.60301 1.60018 1.6119 1.63119 1.6567 1.68472 1.70688 1.724 1.74402 1.76168 1.75877 1.74726 1.78854 1.95549 2.01995 1.90438 1.60553 1.04689 0.391222 0.0657701 0.00297205 1.74085e-05 1.01628e-08 1.71871e-11 1.25724e-14 -2.47731e-11 -1.24105e-11 3.34016e-11 3.34191e-11 -1.2395e-11 0 1.76673 1.75937 1.76779 1.78196 1.80219 1.8277 1.85517 1.88054 1.89272 1.88925 1.88871 1.95282 2.12372 2.17502 2.0589 1.77791 1.24262 0.538467 0.117686 0.00880528 0.00013116 1.90818e-07 1.67153e-10 -1.22943e-11 -2.7702e-14 2.47283e-11 -1.07758e-14 -1.23694e-11 -1.23615e-11 2.8245e-14 0 1.93911 1.93015 1.93807 1.95087 1.96902 1.99054 2.00811 2.01658 2.0212 2.0503 2.15993 2.31243 2.31607 2.18165 1.89921 1.36871 0.643734 0.164077 0.0168586 0.000458353 1.64049e-06 1.63172e-09 -7.10314e-12 1.8242e-12 1.24008e-11 1.37592e-14 8.18818e-15 6.26198e-15 6.1406e-15 6.73417e-15 0 2.11887 2.10876 2.11142 2.11651 2.12483 2.13624 2.1533 2.18997 2.27659 2.41609 2.4847 2.42555 2.26338 1.95802 1.41009 0.680485 0.187234 0.0230834 0.000907263 6.18938e-06 8.35745e-09 1.44479e-11 -9.97304e-15 1.23745e-11 -1.23836e-11 -2.47417e-11 5.37996e-15 1.23618e-11 1.23484e-11 -3.8085e-14 0 2.28997 2.28075 2.28431 2.29745 2.32721 2.38284 2.47452 2.57697 2.62915 2.59434 2.4821 2.28399 1.93064 1.34739 0.634362 0.176836 0.0235513 0.00113197 1.15954e-05 2.32499e-08 4.74853e-11 9.39167e-14 1.16525e-14 -1.23803e-11 -4.33333e-15 2.47586e-11 1.23814e-11 -3.34151e-11 -3.34128e-11 1.24059e-11 0 2.63462 2.63267 2.65356 2.6901 2.73304 2.76332 2.7593 2.7103 2.61732 2.46319 2.20497 1.78358 1.16091 0.508303 0.135248 0.0178211 0.000918652 1.16153e-05 3.30459e-08 1.13048e-10 -2.08177e-11 -2.10367e-11 -3.8127e-15 -6.27031e-15 1.51636e-14 -2.47597e-11 -1.23745e-11 3.34286e-11 2.10563e-11 -2.4777e-11 0 2.90068 2.8864 2.86963 2.84603 2.80944 2.75361 2.66465 2.52368 2.30312 1.9668 1.47425 0.851488 0.331276 0.0788953 0.0095143 0.000467964 6.21992e-06 2.33565e-08 1.13254e-10 2.95052e-13 2.10053e-11 2.10351e-11 2.49577e-15 4.80207e-15 -3.06108e-14 2.47377e-11 -6.73828e-15 -1.23723e-11 1.15543e-14 1.23964e-11 0 2.76961 2.74918 2.71087 2.65017 2.55691 2.41574 2.21015 1.91765 1.51005 0.991162 0.481567 0.158839 0.0314216 0.00321977 0.000134222 1.65419e-06 8.42385e-09 7.25366e-11 -2.08301e-11 -2.10273e-11 1.59938e-14 -2.29183e-14 1.23624e-11 -2.00523e-14 -8.08373e-15 -1.72546e-14 -1.11652e-14 -1.81028e-14 1.23736e-11 1.24073e-11 0 2.2367 2.20761 2.13411 2.01217 1.83152 1.58001 1.24767 0.84759 0.453276 0.177283 0.0460571 0.00708846 0.00056415 1.77885e-05 1.93809e-07 1.67867e-09 1.46141e-11 -2.47025e-11 2.10527e-11 2.10607e-11 8.2532e-15 1.86324e-14 -2.47508e-11 2.60503e-14 3.87369e-14 -2.47203e-11 2.36271e-14 1.23998e-11 -1.23746e-11 -1.23953e-11 0 1.18353 1.14941 1.05205 0.896162 0.690515 0.458981 0.248958 0.104229 0.030665 0.00585524 0.000656823 3.59295e-05 8.14155e-07 1.04911e-08 1.70259e-10 -1.07254e-11 7.62865e-15 2.47836e-11 -2.09869e-14 -2.86757e-14 1.23765e-11 -1.81188e-14 1.23894e-11 -1.86122e-14 -3.03556e-14 2.47464e-11 1.23575e-11 -1.23854e-11 -1.23921e-11 -4.35091e-14 0 0.185363 0.17248 0.138171 0.0932778 0.0510438 0.0215212 0.00663433 0.00140623 0.000186679 1.36696e-05 5.06473e-07 1.23579e-08 3.43009e-10 -3.74736e-12 -8.64145e-12 1.81883e-12 1.23976e-11 -1.23858e-11 2.4395e-14 3.19325e-14 -2.47533e-11 3.57379e-14 -2.98802e-15 7.81208e-15 3.0133e-14 -2.47464e-11 -2.47512e-11 -3.34478e-14 2.47294e-11 -2.10392e-11 0 0.00185412 0.00160876 0.00104435 0.000497484 0.000168536 3.89506e-05 5.8328e-06 5.46543e-07 3.51822e-08 2.16324e-09 1.17611e-10 2.22938e-12 1.24881e-11 -8.03306e-15 -2.21377e-14 1.23608e-11 -1.23995e-11 1.83442e-15 -1.09846e-14 -3.2501e-14 2.47293e-11 -3.50956e-14 4.57353e-15 4.35091e-15 -3.98058e-14 2.47383e-11 2.47587e-11 -2.10283e-11 -3.34141e-11 3.34381e-11 0 1.04325e-07 8.65529e-08 4.99791e-08 2.0807e-08 6.60472e-09 1.66677e-09 3.24379e-10 4.42995e-11 4.02276e-12 2.74078e-13 2.06609e-14 7.53794e-15 6.81865e-15 7.89892e-17 -1.54635e-14 -2.94561e-14 -1.44484e-14 -1.09414e-14 -1.00217e-14 4.95217e-15 2.27445e-15 -1.54943e-15 -2.35008e-14 -2.30753e-14 2.26299e-14 -6.89643e-15 -4.20814e-14 -1.47112e-14 7.65525e-15 -2.45336e-14 0 1.66382e-14 -9.90178e-14 1.96691e-12 3.72084e-13 1.55272e-13 1.85592e-12 1.81372e-12 -1.05784e-11 -1.05696e-11 1.81607e-12 -8.07628e-15 -3.19291e-14 -2.78059e-14 1.23709e-11 9.94872e-15 -2.47207e-11 5.78306e-15 1.23721e-11 1.23791e-11 4.95781e-15 -2.47307e-11 2.31554e-14 1.24001e-11 6.00698e-15 -2.40371e-14 -9.3126e-15 -3.34092e-11 3.73878e-14 1.94763e-14 -3.33973e-11 0 1.07753e-12 1.07733e-12 5.3116e-13 -5.58139e-15 -1.8154e-12 9.49591e-15 -1.0564e-11 6.98382e-15 2.02389e-15 -1.05701e-11 3.63474e-12 3.65337e-12 -3.1596e-11 -3.3431e-11 1.23836e-11 2.47537e-11 1.23817e-11 -3.34248e-11 -3.34252e-11 1.23865e-11 2.47496e-11 1.2365e-11 -1.23787e-11 -9.8551e-15 -2.10491e-11 -6.68234e-11 5.03695e-14 -4.22778e-14 -3.51465e-14 -2.90461e-14 0 -3.6355e-12 -3.63545e-12 -3.62896e-12 -1.81175e-12 -1.81955e-15 -1.82975e-12 1.05674e-11 -2.07679e-15 -1.88974e-15 -1.65471e-17 -1.42183e-11 -3.64511e-12 3.15922e-11 3.33981e-11 -1.23912e-11 -2.47536e-11 -1.2395e-11 3.34005e-11 2.10311e-11 -2.47691e-11 -1.23567e-11 -1.23547e-11 -1.2392e-11 -4.63666e-15 3.34117e-11 6.68226e-11 -4.67208e-14 3.51465e-14 3.28477e-14 3.19889e-14 0 4.33053e-12 3.97997e-12 1.81415e-12 1.81386e-12 1.81229e-12 1.1715e-14 -1.81263e-12 1.05682e-11 1.05627e-11 8.74127e-12 1.24036e-11 -8.73796e-12 -1.05457e-11 -1.23366e-11 2.83458e-14 2.4781e-11 3.65493e-14 -1.23268e-11 2.78721e-14 1.23796e-11 1.23858e-11 1.23968e-11 2.4762e-11 -2.10454e-11 -3.33782e-11 3.0954e-14 3.34513e-11 -4.11743e-14 -3.3634e-14 3.34207e-11 0 2.75889e-06 0 0 0 0 0 0 0 0 0 0 0 0 0 0 0 0 0 0 0 0 0 0 0 0 0 0 0 0 0 0
				</DataArray>
			</PointData>
			<CellData Scalars="Density">
				<DataArray Name="Density" type="Float32" format="ascii">