<?xml version="1.0"?>
<VTKFile type="PolyData">
	<PolyData>
		<Piece NumberOfPoints="961" NumberOfPolys="900">
			<Points>
				<DataArray type="Float32" NumberOfComponents="3" format="ascii">
 0 0 0 0.04 0 0 0.08 0 0 0.12 0 0 0.16 0 0 0.2 0 0 0.24 0 0 0.28 0 0 0.32 0 0 0.36 0 0 0.4 0 0 0.44 0 0 0.48 0 0 0.52 0 0 0.56 0 0 0.6 0 0 0.64 0 0 0.68 0 0 0.72 0 0 0.76 0 0 0.8 0 0 0.84 0 0 0.88 0 0 0.92 0 0 0.96 0 0 1 0 0 1.04 0 0 1.08 0 0 1.12 0 0 1.16 0 0 1.2 0 0 0 0.04 0 0.04 0.04 0 0.08 0.04 0 0.12 0.04 0 0.16 0.04 0 0.2 0.04 0 0.24 0.04 0 0.28 0.04 0 0.32 0.04 0 0.36 0.04 0 0.4 0.04 0 0.44 0.04 0 0.48 0.04 0 0.52 0.04 0 0.56 0.04 0 0.6 0.04 0 0.64 0.04 0 0.68 0.04 0 0.72 0.04 0 0.76 0.04 0 0.8 0.04 0 0.84 0.04 0 0.88 0.04 0 0.92 0.04 0 0.96 0.04 0 1 0.04 0 1.04 0.04 0 1.08 0.04 0 1.12 0.04 0 1.16 0.04 0 1.2 0.04 0 0 0.08 0 0.04 0.08 0 0.08 0.08 0 0.12 0.08 0 0.16 0.08 0 0.2 0.08 0 0.24 0.08 0 0.28 0.08 0 0.32 0.08 0 0.36 0.08 0 0.4 0.08 0 0.44 0.08 0 0.48 0.08 0 0.52 0.08 0 0.56 0.08 0 0.6 0.08 0 0.64 0.08 0 0.68 0.08 0 0.72 0.08 0 0.76 0.08 0 0.8 0.08 0 0.84 0.08 0 0.88 0.08 0 0.92 0.08 0 0.96 0.08 0 1 0.08 0 1.04 0.08 0 1.08 0.08 0 1.12 0.08 0 1.16 0.08 0 1.2 0.08 0 0 0.12 0 0.04 0.12 0 0.08 0.12 0 0.12 0.12 0 0.16 0.12 0 0.2 0.12 0 0.24 0.12 0 0.28 0.12 0 0.32 0.12 0 0.36 0.12 0 0.4 0.12 0 0.44 0.12 0 0.48 0.12 0 0.52 0.12 0 0.56 0.12 0 0.6 0.12 0 0.64 0.12 0 0.68 0.12 0 0.72 0.12 0 0.76 0.12 0 0.8 0.12 0 0.84 0.12 0 0.88 0.12 0 0.92 0.12 0 0.96 0.12 0 1 0.12 0 1.04 0.12 0 1.08 0.12 0 1.12 0.12 0 1.16 0.12 0 1.2 0.12 0 0 0.16 0 0.04 0.16 0 0.08 0.16 0 0.12 0.16 0 0.16 0.16 0 0.2 0.16 0 0.24 0.16 0 0.28 0.16 0 0.32 0.16 0 0.36 0.16 0 0.4 0.16 0 0.44 0.16 0 0.48 0.16 0 0.52 0.16 0 0.56 0.16 0 0.6 0.16 0 0.64 0.16 0 0.68 0.16 0 0.72 0.16 0 0.76 0.16 0 0.8 0.16 0 0.84 0.16 0 0.88 0.16 0 0.92 0.16 0 0.96 0.16 0 1 0.16 0 1.04 0.16 0 1.08 0.16 0 1.12 0.16 0 1.16 0.16 0 1.2 0.16 0 0 0.2 0 0.04 0.2 0 0.08 0.2 0 0.12 0.2 0 0.16 0.2 0 0.2 0.2 0 0.24 0.2 0 0.28 0.2 0 0.32 0.2 0 0.36 0.2 0 0.4 0.2 0 0.44 0.2 0 0.48 0.2 0 0.52 0.2 0 0.56 0.2 0 0.6 0.2 0 0.64 0.2 0 0.68 0.2 0 0.72 0.2 0 0.76 0.2 0 0.8 0.2 0 0.84 0.2 0 0.88 0.2 0 0.92 0.2 0 0.96 0.2 0 1 0.2 0 1.04 0.2 0 1.08 0.2 0 1.12 0.2 0 1.16 0.2 0 1.2 0.2 0 0 0.24 0 0.04 0.24 0 0.08 0.24 0 0.12 0.24 0 0.16 0.24 0 0.2 0.24 0 0.24 0.24 0 0.28 0.24 0 0.32 0.24 0 0.36 0.24 0 0.4 0.24 0 0.44 0.24 0 0.48 0.24 0 0.52 0.24 0 0.56 0.24 0 0.6 0.24 0 0.64 0.24 0 0.68 0.24 0 0.72 0.24 0 0.76 0.24 0 0.8 0.24 0 0.84 0.24 0 0.88 0.24 0 0.92 0.24 0 0.96 0.24 0 1 0.24 0 1.04 0.24 0 1.08 0.24 0 1.12 0.24 0 1.16 0.24 0 1.2 0.24 0 0 0.28 0 0.04 0.28 0 0.08 0.28 0 0.12 0.28 0 0.16 0.28 0 0.2 0.28 0 0.24 0.28 0 0.28 0.28 0 0.32 0.28 0 0.36 0.28 0 0.4 0.28 0 0.44 0.28 0 0.48 0.28 0 0.52 0.28 0 0.56 0.28 0 0.6 0.28 0 0.64 0.28 0 0.68 0.28 0 0.72 0.28 0 0.76 0.28 0 0.8 0.28 0 0.84 0.28 0 0.88 0.28 0 0.92 0.28 0 0.96 0.28 0 1 0.28 0 1.04 0.28 0 1.08 0.28 0 1.12 0.28 0 1.16 0.28 0 1.2 0.28 0 0 0.32 0 0.04 0.32 0 0.08 0.32 0 0.12 0.32 0 0.16 0.32 0 0.2 0.32 0 0.24 0.32 0 0.28 0.32 0 0.32 0.32 0 0.36 0.32 0 0.4 0.32 0 0.44 0.32 0 0.48 0.32 0 0.52 0.32 0 0.56 0.32 0 0.6 0.32 0 0.64 0.32 0 0.68 0.32 0 0.72 0.32 0 0.76 0.32 0 0.8 0.32 0 0.84 0.32 0 0.88 0.32 0 0.92 0.32 0 0.96 0.32 0 1 0.32 0 1.04 0.32 0 1.08 0.32 0 1.12 0.32 0 1.16 0.32 0 1.2 0.32 0 0 0.36 0 0.04 0.36 0 0.08 0.36 0 0.12 0.36 0 0.16 0.36 0 0.2 0.36 0 0.24 0.36 0 0.28 0.36 0 0.32 0.36 0 0.36 0.36 0 0.4 0.36 0 0.44 0.36 0 0.48 0.36 0 0.52 0.36 0 0.56 0.36 0 0.6 0.36 0 0.64 0.36 0 0.68 0.36 0 0.72 0.36 0 0.76 0.36 0 0.8 0.36 0 0.84 0.36 0 0.88 0.36 0 0.92 0.36 0 0.96 0.36 0 1 0.36 0 1.04 0.36 0 1.08 0.36 0 1.12 0.36 0 1.16 0.36 0 1.2 0.36 0 0 0.4 0 0.04 0.4 0 0.08 0.4 0 0.12 0.4 0 0.16 0.4 0 0.2 0.4 0 0.24 0.4 0 0.28 0.4 0 0.32 0.4 0 0.36 0.4 0 0.4 0.4 0 0.44 0.4 0 0.48 0.4 0 0.52 0.4 0 0.56 0.4 0 0.6 0.4 0 0.64 0.4 0 0.68 0.4 0 0.72 0.4 0 0.76 0.4 0 0.8 0.4 0 0.84 0.4 0 0.88 0.4 0 0.92 0.4 0 0.96 0.4 0 1 0.4 0 1.04 0.4 0 1.08 0.4 0 1.12 0.4 0 1.16 0.4 0 1.2 0.4 0 0 0.44 0 0.04 0.44 0 0.08 0.44 0 0.12 0.44 0 0.16 0.44 0 0.2 0.44 0 0.24 0.44 0 0.28 0.44 0 0.32 0.44 0 0.36 0.44 0 0.4 0.44 0 0.44 0.44 0 0.48 0.44 0 0.52 0.44 0 0.56 0.44 0 0.6 0.44 0 0.64 0.44 0 0.68 0.44 0 0.72 0.44 0 0.76 0.44 0 0.8 0.44 0 0.84 0.44 0 0.88 0.44 0 0.92 0.44 0 0.96 0.44 0 1 0.44 0 1.04 0.44 0 1.08 0.44 0 1.12 0.44 0 1.16 0.44 0 1.2 0.44 0 0 0.48 0 0.04 0.48 0 0.08 0.48 0 0.12 0.48 0 0.16 0.48 0 0.2 0.48 0 0.24 0.48 0 0.28 0.48 0 0.32 0.48 0 0.36 0.48 0 0.4 0.48 0 0.44 0.48 0 0.48 0.48 0 0.52 0.48 0 0.56 0.48 0 0.6 0.48 0 0.64 0.48 0 0.68 0.48 0 0.72 0.48 0 0.76 0.48 0 0.8 0.48 0 0.84 0.48 0 0.88 0.48 0 0.92 0.48 0 0.96 0.48 0 1 0.48 0 1.04 0.48 0 1.08 0.48 0 1.12 0.48 0 1.16 0.48 0 1.2 0.48 0 0 0.52 0 0.04 0.52 0 0.08 0.52 0 0.12 0.52 0 0.16 0.52 0 0.2 0.52 0 0.24 0.52 0 0.28 0.52 0 0.32 0.52 0 0.36 0.52 0 0.4 0.52 0 0.44 0.52 0 0.48 0.52 0 0.52 0.52 0 0.56 0.52 0 0.6 0.52 0 0.64 0.52 0 0.68 0.52 0 0.72 0.52 0 0.76 0.52 0 0.8 0.52 0 0.84 0.52 0 0.88 0.52 0 0.92 0.52 0 0.96 0.52 0 1 0.52 0 1.04 0.52 0 1.08 0.52 0 1.12 0.52 0 1.16 0.52 0 1.2 0.52 0 0 0.56 0 0.04 0.56 0 0.08 0.56 0 0.12 0.56 0 0.16 0.56 0 0.2 0.56 0 0.24 0.56 0 0.28 0.56 0 0.32 0.56 0 0.36 0.56 0 0.4 0.56 0 0.44 0.56 0 0.48 0.56 0 0.52 0.56 0 0.56 0.56 0 0.6 0.56 0 0.64 0.56 0 0.68 0.56 0 0.72 0.56 0 0.76 0.56 0 0.8 0.56 0 0.84 0.56 0 0.88 0.56 0 0.92 0.56 0 0.96 0.56 0 1 0.56 0 1.04 0.56 0 1.08 0.56 0 1.12 0.56 0 1.16 0.56 0 1.2 0.56 0 0 0.6 0 0.04 0.6 0 0.08 0.6 0 0.12 0.6 0 0.16 0.6 0 0.2 0.6 0 0.24 0.6 0 0.28 0.6 0 0.32 0.6 0 0.36 0.6 0 0.4 0.6 0 0.44 0.6 0 0.48 0.6 0 0.52 0.6 0 0.56 0.6 0 0.6 0.6 0 0.64 0.6 0 0.68 0.6 0 0.72 0.6 0 0.76 0.6 0 0.8 0.6 0 0.84 0.6 0 0.88 0.6 0 0.92 0.6 0 0.96 0.6 0 1 0.6 0 1.04 0.6 0 1.08 0.6 0 1.12 0.6 0 1.16 0.6 0 1.2 0.6 0 0 0.64 0 0.04 0.64 0 0.08 0.64 0 0.12 0.64 0 0.16 0.64 0 0.2 0.64 0 0.24 0.64 0 0.28 0.64 0 0.32 0.64 0 0.36 0.64 0 0.4 0.64 0 0.44 0.64 0 0.48 0.64 0 0.52 0.64 0 0.56 0.64 0 0.6 0.64 0 0.64 0.64 0 0.68 0.64 0 0.72 0.64 0 0.76 0.64 0 0.8 0.64 0 0.84 0.64 0 0.88 0.64 0 0.92 0.64 0 0.96 0.64 0 1 0.64 0 1.04 0.64 0 1.08 0.64 0 1.12 0.64 0 1.16 0.64 0 1.2 0.64 0 0 0.68 0 0.04 0.68 0 0.08 0.68 0 0.12 0.68 0 0.16 0.68 0 0.2 0.68 0 0.24 0.68 0 0.28 0.68 0 0.32 0.68 0 0.36 0.68 0 0.4 0.68 0 0.44 0.68 0 0.48 0.68 0 0.52 0.68 0 0.56 0.68 0 0.6 0.68 0 0.64 0.68 0 0.68 0.68 0 0.72 0.68 0 0.76 0.68 0 0.8 0.68 0 0.84 0.68 0 0.88 0.68 0 0.92 0.68 0 0.96 0.68 0 1 0.68 0 1.04 0.68 0 1.08 0.68 0 1.12 0.68 0 1.16 0.68 0 1.2 0.68 0 0 0.72 0 0.04 0.72 0 0.08 0.72 0 0.12 0.72 0 0.16 0.72 0 0.2 0.72 0 0.24 0.72 0 0.28 0.72 0 0.32 0.72 0 0.36 0.72 0 0.4 0.72 0 0.44 0.72 0 0.48 0.72 0 0.52 0.72 0 0.56 0.72 0 0.6 0.72 0 0.64 0.72 0 0.68 0.72 0 0.72 0.72 0 0.76 0.72 0 0.8 0.72 0 0.84 0.72 0 0.88 0.72 0 0.92 0.72 0 0.96 0.72 0 1 0.72 0 1.04 0.72 0 1.08 0.72 0 1.12 0.72 0 1.16 0.72 0 1.2 0.72 0 0 0.76 0 0.04 0.76 0 0.08 0.76 0 0.12 0.76 0 0.16 0.76 0 0.2 0.76 0 0.24 0.76 0 0.28 0.76 0 0.32 0.76 0 0.36 0.76 0 0.4 0.76 0 0.44 0.76 0 0.48 0.76 0 0.52 0.76 0 0.56 0.76 0 0.6 0.76 0 0.64 0.76 0 0.68 0.76 0 0.72 0.76 0 0.76 0.76 0 0.8 0.76 0 0.84 0.76 0 0.88 0.76 0 0.92 0.76 0 0.96 0.76 0 1 0.76 0 1.04 0.76 0 1.08 0.76 0 1.12 0.76 0 1.16 0.76 0 1.2 0.76 0 0 0.8 0 0.04 0.8 0 0.08 0.8 0 0.12 0.8 0 0.16 0.8 0 0.2 0.8 0 0.24 0.8 0 0.28 0.8 0 0.32 0.8 0 0.36 0.8 0 0.4 0.8 0 0.44 0.8 0 0.48 0.8 0 0.52 0.8 0 0.56 0.8 0 0.6 0.8 0 0.64 0.8 0 0.68 0.8 0 0.72 0.8 0 0.76 0.8 0 0.8 0.8 0 0.84 0.8 0 0.88 0.8 0 0.92 0.8 0 0.96 0.8 0 1 0.8 0 1.04 0.8 0 1.08 0.8 0 1.12 0.8 0 1.16 0.8 0 1.2 0.8 0 0 0.84 0 0.04 0.84 0 0.08 0.84 0 0.12 0.84 0 0.16 0.84 0 0.2 0.84 0 0.24 0.84 0 0.28 0.84 0 0.32 0.84 0 0.36 0.84 0 0.4 0.84 0 0.44 0.84 0 0.48 0.84 0 0.52 0.84 0 0.56 0.84 0 0.6 0.84 0 0.64 0.84 0 0.68 0.84 0 0.72 0.84 0 0.76 0.84 0 0.8 0.84 0 0.84 0.84 0 0.88 0.84 0 0.92 0.84 0 0.96 0.84 0 1 0.84 0 1.04 0.84 0 1.08 0.84 0 1.12 0.84 0 1.16 0.84 0 1.2 0.84 0 0 0.88 0 0.04 0.88 0 0.08 0.88 0 0.12 0.88 0 0.16 0.88 0 0.2 0.88 0 0.24 0.88 0 0.28 0.88 0 0.32 0.88 0 0.36 0.88 0 0.4 0.88 0 0.44 0.88 0 0.48 0.88 0 0.52 0.88 0 0.56 0.88 0 0.6 0.88 0 0.64 0.88 0 0.68 0.88 0 0.72 0.88 0 0.76 0.88 0 0.8 0.88 0 0.84 0.88 0 0.88 0.88 0 0.92 0.88 0 0.96 0.88 0 1 0.88 0 1.04 0.88 0 1.08 0.88 0 1.12 0.88 0 1.16 0.88 0 1.2 0.88 0 0 0.92 0 0.04 0.92 0 0.08 0.92 0 0.12 0.92 0 0.16 0.92 0 0.2 0.92 0 0.24 0.92 0 0.28 0.92 0 0.32 0.92 0 0.36 0.92 0 0.4 0.92 0 0.44 0.92 0 0.48 0.92 0 0.52 0.92 0 0.56 0.92 0 0.6 0.92 0 0.64 0.92 0 0.68 0.92 0 0.72 0.92 0 0.76 0.92 0 0.8 0.92 0 0.84 0.92 0 0.88 0.92 0 0.92 0.92 0 0.96 0.92 0 1 0.92 0 1.04 0.92 0 1.08 0.92 0 1.12 0.92 0 1.16 0.92 0 1.2 0.92 0 0 0.96 0 0.04 0.96 0 0.08 0.96 0 0.12 0.96 0 0.16 0.96 0 0.2 0.96 0 0.24 0.96 0 0.28 0.96 0 0.32 0.96 0 0.36 0.96 0 0.4 0.96 0 0.44 0.96 0 0.48 0.96 0 0.52 0.96 0 0.56 0.96 0 0.6 0.96 0 0.64 0.96 0 0.68 0.96 0 0.72 0.96 0 0.76 0.96 0 0.8 0.96 0 0.84 0.96 0 0.88 0.96 0 0.92 0.96 0 0.96 0.96 0 1 0.96 0 1.04 0.96 0 1.08 0.96 0 1.12 0.96 0 1.16 0.96 0 1.2 0.96 0 0 1 0 0.04 1 0 0.08 1 0 0.12 1 0 0.16 1 0 0.2 1 0 0.24 1 0 0.28 1 0 0.32 1 0 0.36 1 0 0.4 1 0 0.44 1 0 0.48 1 0 0.52 1 0 0.56 1 0 0.6 1 0 0.64 1 0 0.68 1 0 0.72 1 0 0.76 1 0 0.8 1 0 0.84 1 0 0.88 1 0 0.92 1 0 0.96 1 0 1 1 0 1.04 1 0 1.08 1 0 1.12 1 0 1.16 1 0 1.2 1 0 0 1.04 0 0.04 1.04 0 0.08 1.04 0 0.12 1.04 0 0.16 1.04 0 0.2 1.04 0 0.24 1.04 0 0.28 1.04 0 0.32 1.04 0 0.36 1.04 0 0.4 1.04 0 0.44 1.04 0 0.48 1.04 0 0.52 1.04 0 0.56 1.04 0 0.6 1.04 0 0.64 1.04 0 0.68 1.04 0 0.72 1.04 0 0.76 1.04 0 0.8 1.04 0 0.84 1.04 0 0.88 1.04 0 0.92 1.04 0 0.96 1.04 0 1 1.04 0 1.04 1.04 0 1.08 1.04 0 1.12 1.04 0 1.16 1.04 0 1.2 1.04 0 0 1.08 0 0.04 1.08 0 0.08 1.08 0 0.12 1.08 0 0.16 1.08 0 0.2 1.08 0 0.24 1.08 0 0.28 1.08 0 0.32 1.08 0 0.36 1.08 0 0.4 1.08 0 0.44 1.08 0 0.48 1.08 0 0.52 1.08 0 0.56 1.08 0 0.6 1.08 0 0.64 1.08 0 0.68 1.08 0 0.72 1.08 0 0.76 1.08 0 0.8 1.08 0 0.84 1.08 0 0.88 1.08 0 0.92 1.08 0 0.96 1.08 0 1 1.08 0 1.04 1.08 0 1.08 1.08 0 1.12 1.08 0 1.16 1.08 0 1.2 1.08 0 0 1.12 0 
[...]
			<PointData Scalars="VitesseX">
				<DataArray Name="VitesseX" type="Float32" format="ascii">
 0 -0.0518193 -0.158546 -0.152661 -0.117185 -0.0307914 0.0767724 0.179595 0.263854 0.341555 0.406673 0.466831 0.522363 0.575368 0.626918 0.678258 0.729775 0.781734 0.83455 0.888493 0.943659 1.00006 1.05776 1.11722 1.17952 1.14399 0.908802 0.43598 -0.0537648 -0.25684 0 0 0.143324 0.133127 0.118156 0.103254 0.132393 0.195512 0.259259 0.321104 0.383682 0.43949 0.491755 0.541326 0.589427 0.637061 0.684842 0.733241 0.782715 0.833552 0.885936 0.939979 0.995727 1.0532 1.11275 1.17553 1.1441 0.91369 0.444922 -0.0457598 -0.252816 0 0 0.137211 0.235049 0.28716 0.292535 0.29279 0.32468 0.351168 0.385923 0.424994 0.465622 0.50807 0.55206 0.59727 0.643277 0.690052 0.737833 0.786957 0.837722 0.890226 0.944422 1.00025 1.05766 1.11694 1.1797 1.15729 0.937873 0.477178 -0.0181395 -0.23844 0 0 0.097245 0.216813 0.267581 0.289312 0.326195 0.355736 0.378812 0.412701 0.444989 0.481271 0.520159 0.561745 0.604965 0.649668 0.695825 0.743547 0.792895 0.8439 0.896497 0.950618 1.00619 1.06321 1.12197 1.1843 1.17577 0.973245 0.526357 0.0259396 -0.215087 0 0 0.0478106 0.14292 0.211921 0.262574 0.325822 0.346705 0.380403 0.420304 0.457969 0.495476 0.533775 0.573142 0.614157 0.65743 0.702973 0.750554 0.799973 0.851004 0.903431 0.957177 1.01221 1.06861 1.12666 1.18795 1.19707 1.01621 0.589988 0.0851219 -0.181959 0 0 0.0179179 0.0787049 0.157206 0.222521 0.295468 0.325513 0.372098 0.414633 0.457879 0.500466 0.54234 0.583361 0.624581 0.667114 0.711938 0.759109 0.808215 0.858844 0.910743 0.963833 1.01812 1.07379 1.13112 1.19121 1.21884 1.06451 0.666493 0.159249 -0.137779 0 0 0.0119727 0.0642075 0.135033 0.193214 0.260801 0.303178 0.355537 0.403949 0.452436 0.498724 0.54431 0.588834 0.632946 0.677197 0.722406 0.769269 0.817779 0.867628 0.918634 0.970787 1.02419 1.07906 1.13568 1.19467 1.23883 1.11582 0.754087 0.247662 -0.0817054 0 0 0.0166177 0.065108 0.130409 0.18917 0.251973 0.298084 0.348721 0.397187 0.446349 0.495825 0.544687 0.592184 0.639056 0.685547 0.732156 0.779428 0.8277 0.876913 0.92703 0.978174 1.03059 1.08462 1.14059 1.19885 1.25485 1.16816 0.850161 0.350006 -0.0147292 0 0 0.0238254 0.0705088 0.133059 0.193815 0.252096 0.300847 0.349854 0.397662 0.446162 0.495792 0.545663 0.595101 0.643966 0.692138 0.739827 0.78762 0.835913 0.884835 0.934494 0.985092 1.03694 1.09039 1.14588 1.20384 1.26529 1.22007 0.950898 0.466186 0.0618271 0 0 0.0323439 0.0795811 0.139012 0.198897 0.255633 0.30596 0.354461 0.401431 0.44934 0.498362 0.54817 0.598199 0.647954 0.697204 0.745782 0.794057 0.842462 0.891257 0.940677 0.990999 1.0426 1.09588 1.15131 1.20923 1.27137 1.26926 1.05066 0.594692 0.150772 0 0 0.038543 0.0873874 0.144355 0.203106 0.259776 0.31216 0.361171 0.408262 0.455355 0.503276 0.552226 0.601755 0.651437 0.700946 0.750046 0.798741 0.847346 0.896203 0.945597 0.995894 1.04752 1.10091 1.15658 1.21477 1.27651 1.31058 1.14442 0.733406 0.255539 0 0 0.0427784 0.0924525 0.147319 0.204485 0.261323 0.315057 0.365558 0.413561 0.460601 0.507916 0.556064 0.604914 0.65413 0.703473 0.752735 0.80173 0.850628 0.899696 0.949275 0.999791 1.05168 1.10552 1.16164 1.22035 1.28325 1.33786 1.23084 0.880437 0.375994 0 0 0.0455152 0.095705 0.148912 0.204464 0.260756 0.315069 0.366272 0.415082 0.462604 0.509986 0.557929 0.606498 0.655476 0.704683 0.753957 0.803222 0.852456 0.901856 0.951833 1.00277 1.05522 1.10982 1.16652 1.2262 1.29102 1.35027 1.31182 1.03045 0.509924 0 0 0.0471025 0.0973325 0.149374 0.203193 0.258337 0.312582 0.364377 0.413953 0.462135 0.509859 0.557908 0.606494 0.655496 0.704736 0.754076 0.803506 0.853087 0.902987 0.953513 1.0051 1.0585 1.11395 1.1714 1.2328 1.298 1.35519 1.38899 1.17286 0.652833 0 0 0.0476513 0.0977346 0.148923 0.201096 0.254283 0.307522 0.359366 0.409638 0.4588 0.507344 0.555892 0.604774 0.654049 0.703607 0.753299 0.803044 0.852992 0.903473 0.954686 1.00729 1.06182 1.11802 1.17684 1.2404 1.30342 1.36746 1.45359 1.29736 0.797431 0 0 0.0476836 0.0974418 0.147729 0.198371 0.249487 0.300992 0.352191 0.402643 0.452522 0.502009 0.551355 0.600824 0.650629 0.700812 0.751176 0.801651 0.852382 0.903586 0.955811 1.00971 1.06522 1.12239 1.18373 1.24746 1.30856 1.39509 1.50295 1.38502 0.92731 0 0 0.0474533 0.0965207 0.145803 0.195036 0.244437 0.29425 0.344393 0.394614 0.444823 0.495 0.545174 0.595417 0.64591 0.696798 0.74806 0.799569 0.851306 0.903712 0.957367 1.01249 1.06881 1.12817 1.19189 1.25263 1.31951 1.44765 1.52117 1.41694 1.01431 0 0 0.0469156 0.0950614 0.143197 0.191156 0.239257 0.287989 0.337466 0.387459 0.437788 0.488372 0.539182 0.590234 0.641546 0.693259 0.745439 0.797896 0.850804 0.904541 0.959544 1.01552 1.07362 1.13639 1.19816 1.25868 1.35309 1.4907 1.50445 1.38667 1.00564 0 0 0.0461792 0.0932408 0.140172 0.187103 0.234425 0.282525 0.331622 0.38154 0.43205 0.483045 0.534447 0.586206 0.638336 0.690874 0.743815 0.79722 0.85123 0.906253 0.96217 1.0197 1.0814 1.1441 1.20307 1.27904 1.41468 1.48546 1.44902 1.26645 0.826914 0 0 0.0454286 0.0914855 0.137494 0.183716 0.230508 0.278234 0.32714 0.377085 0.427802 0.479163 0.531072 0.583459 0.636291 0.689541 0.743267 0.797546 0.852681 0.908685 0.966117 1.02717 1.09017 1.14911 1.21636 1.33544 1.4381 1.43757 1.33184 1.0223 0.483069 0 0 0.0448737 0.0901683 0.135529 0.181315 0.227854 0.275432 0.324282 0.374306 0.425235 0.476922 0.529251 0.582139 0.635515 0.689354 0.74377 0.799038 0.85521 0.91285 0.973694 1.03652 1.09572 1.15945 1.26372 1.38143 1.40542 1.34053 1.11306 0.64198 0.178334 0 0 0.0445554 0.0893682 0.134405 0.180052 0.226585 0.27421 0.323095 0.373217 0.424338 0.47626 0.528868 0.582077 0.635869 0.690377 0.745758 0.802137 0.860149 0.921022 0.983348 1.04268 1.10558 1.20177 1.32138 1.36224 1.32225 1.15122 0.754451 0.265043 0.0388258 0 0 0.0444798 0.0890975 0.134111 0.179814 0.226461 0.274197 0.32316 0.373366 0.424634 0.476775 0.529717 0.583445 0.637995 0.693456 0.75008 0.808489 0.869341 0.930822 0.990159 1.05394 1.14766 1.26258 1.3115 1.28742 1.15316 0.818234 0.340194 0.0659354 0.00417071 0 0 0.0445432 0.0892943 0.134404 0.180419 0.227359 0.275427 0.324673 0.375133 0.426727 0.479324 0.532857 0.587325 0.642834 0.699694 0.758346 0.818816 0.879163 0.938641 1.00504 1.10036 1.20643 1.25591 1.24056 1.12834 0.83842 0.389747 0.0916907 0.00802628 0.00017834 0 0 0.0452941 0.0897466 0.136167 0.182343 0.230138 0.278715 0.328468 0.379415 0.431534 0.484726 0.538976 0.594444 0.65138 0.709873 0.769381 0.828679 0.889099 0.960465 1.05905 1.1513 1.19664 1.18364 1.0823 0.821482 0.407239 0.108772 0.0119546 0.000388056 2.15932e-06 0 0 0.0427396 0.0937189 0.135985 0.189926 0.238671 0.289558 0.339189 0.388722 0.440446 0.493764 0.548706 0.605217 0.662897 0.721081 0.779941 0.843561 0.922571 1.01943 1.09472 1.13302 1.11697 1.0174 0.77249 0.392453 0.112849 0.0143423 0.000599917 4.98075e-06 1.15281e-08 0 0 0.0427397 0.0737205 0.144454 0.194026 0.25929 0.315783 0.368113 0.417548 0.467322 0.517589 0.568032 0.619322 0.675536 0.736016 0.805462 0.890783 0.975058 1.03512 1.06277 1.0394 0.933651 0.694697 0.349255 0.103389 0.0141475 0.000688217 7.45973e-06 2.15819e-08 1.15002e-10 0 0 0.00387131 0.0631291 0.0931282 0.207623 0.284761 0.356366 0.41725 0.47071 0.52008 0.566784 0.612061 0.659225 0.714232 0.77896 0.8555 0.927042 0.973452 0.985619 0.9493 0.829859 0.590809 0.284783 0.0832708 0.0114999 0.000594683 7.44936e-06 2.66605e-08 1.24509e-10 2.71288e-13 0 0 -0.0827676 -0.111473 0.101904 0.20585 0.308339 0.389671 0.459406 0.522235 0.58057 0.636141 0.690702 0.746413 0.804643 0.863361 0.911222 0.93141 0.922046 0.857781 0.711052 0.46741 0.209708 0.0578198 0.00757955 0.000382124 4.96038e-06 2.14964e-08 1.24188e-10 5.34972e-13 -9.48014e-14 0 0 -0.308602 -0.0413205 0.116201 0.251217 0.360479 0.45115 0.531364 0.60578 0.680222 0.753847 0.826846 0.898013 0.963053 1.01191 1.02671 0.987724 0.860754 0.634212 0.355966 0.139596 0.0334889 0.0039076 0.000175042 2.14465e-06 1.14339e-08 4.7735e-11 2.87098e-13 9.47456e-14 3.34315e-11 0 0 0 0 0 0 0 0 0 0 0 0 0 0 0 0 0 0 0 0 0 0 0 0 0 0 0 0 0 0 0 0
				</DataArray>
				<DataArray Name="VitesseY" type="Float32" format="ascii">
 0 0 0 0 0 0 0 0 0 0 0 0 0 0 0 0 0 0 0 0 0 0 0 0 0 0 0 0 0 0 0 -0.0517716 0.143315 0.137208 0.097247 0.0478109 0.0179177 0.0119732 0.0166196 0.0238305 0.0323499 0.0385476 0.0427826 0.0455196 0.0471066 0.0476549 0.0476869 0.0474562 0.0469181 0.046181 0.0454296 0.0448739 0.0445561 0.0444736 0.0445513 0.0452674 0.048934 0.0567502 0.0654609 0.0687113 0.0766695 0 -0.158545 0.133061 0.234998 0.216777 0.142898 0.0787064 0.0642245 0.0651242 0.070523 0.0795921 0.0873935 0.0924565 0.095709 0.0973368 0.097739 0.0974462 0.0965249 0.095065 0.0932433 0.0914866 0.0901687 0.0893665 0.0890989 0.0892182 0.0905184 0.0974115 0.112551 0.129791 0.13804 0.152641 0 -0.15268 0.118092 0.287136 0.267568 0.211925 0.157225 0.135059 0.130435 0.133083 0.139028 0.144361 0.147321 0.148913 0.149376 0.148926 0.147733 0.145807 0.143201 0.140174 0.137495 0.135529 0.134406 0.134102 0.134392 0.136289 0.145841 0.167169 0.192984 0.206651 0.229252 0 -0.11722 0.103197 0.292505 0.289299 0.262563 0.22252 0.193232 0.189197 0.193841 0.198919 0.203117 0.204489 0.204466 0.203194 0.201097 0.198373 0.195039 0.191158 0.187105 0.183716 0.181315 0.180051 0.179812 0.180377 0.182841 0.194286 0.220453 0.254147 0.273971 0.306756 0 -0.0308307 0.132335 0.292738 0.32616 0.325806 0.29547 0.260824 0.252003 0.252124 0.255656 0.259791 0.261332 0.260761 0.258338 0.254284 0.249489 0.244438 0.239258 0.234426 0.230508 0.227854 0.226584 0.226459 0.227353 0.230318 0.242774 0.272117 0.312804 0.339492 0.384444 0 0.0767217 0.195467 0.324649 0.355722 0.346702 0.325516 0.303193 0.298104 0.300868 0.305979 0.312175 0.315067 0.315077 0.312587 0.307524 0.300993 0.29425 0.287989 0.282525 0.278234 0.275432 0.27421 0.274196 0.275425 0.278842 0.291299 0.322041 0.368662 0.402991 0.461116 0 0.179538 0.259222 0.351152 0.378797 0.380392 0.372093 0.355543 0.348734 0.349869 0.354477 0.361186 0.36557 0.366282 0.364384 0.359369 0.352192 0.344392 0.337465 0.331621 0.327139 0.324281 0.323095 0.32316 0.324674 0.328523 0.339842 0.370432 0.421679 0.464567 0.53516 0 0.2638 0.321073 0.385919 0.41269 0.420291 0.414625 0.403948 0.397195 0.397673 0.401444 0.408276 0.413573 0.415092 0.413961 0.409642 0.402643 0.394613 0.387458 0.381539 0.377083 0.374305 0.373216 0.373366 0.375134 0.379429 0.388864 0.418199 0.472125 0.524016 0.607132 0 0.341507 0.383658 0.424999 0.444988 0.457959 0.45787 0.45243 0.446353 0.446169 0.44935 0.455368 0.460612 0.462614 0.462142 0.458804 0.452522 0.444822 0.437786 0.432049 0.4278 0.425234 0.424336 0.424632 0.426727 0.431535 0.440462 0.467457 0.520492 0.581135 0.680656 0 0.406629 0.439472 0.465627 0.481276 0.49547 0.500455 0.498717 0.495826 0.495798 0.498372 0.503288 0.507925 0.509993 0.509864 0.507347 0.502008 0.494998 0.488371 0.483044 0.479161 0.47692 0.476259 0.476774 0.479323 0.484724 0.493764 0.517617 0.566887 0.636299 0.753984 0 0.466793 0.491741 0.508073 0.520165 0.533775 0.542331 0.544304 0.544687 0.545669 0.548179 0.552236 0.556072 0.557934 0.557912 0.555893 0.551354 0.545172 0.53918 0.534445 0.53107 0.52925 0.528867 0.529716 0.532855 0.538975 0.548705 0.568037 0.612082 0.690735 0.826885 0 0.52233 0.541314 0.552059 0.56175 0.573147 0.583355 0.58883 0.592186 0.595107 0.598207 0.601763 0.60492 0.606502 0.606497 0.604774 0.600822 0.595415 0.590232 0.586204 0.583458 0.582137 0.582076 0.583443 0.587323 0.594443 0.605217 0.619322 0.659226 0.746415 0.898023 0 0.575342 0.589418 0.597267 0.604968 0.614162 0.624579 0.632944 0.639058 0.643972 0.647961 0.651443 0.654134 0.655478 0.655498 0.654048 0.650627 0.645908 0.641544 0.638335 0.636289 0.635513 0.635867 0.637993 0.642833 0.651379 0.662896 0.675536 0.714232 0.804643 0.963055 0 0.626897 0.637054 0.643274 0.649669 0.657433 0.667115 0.677197 0.685551 0.692143 0.697209 0.70095 0.703475 0.704685 0.704737 0.703606 0.70081 0.696796 0.693258 0.690872 0.68954 0.689353 0.690376 0.693455 0.699693 0.709872 0.72108 0.736016 0.77896 0.863362 1.01191 0 0.678243 0.684837 0.690049 0.695825 0.702974 0.711939 0.722407 0.732161 0.739832 0.745786 0.750049 0.752736 0.753958 0.754076 0.753299 0.751174 0.748059 0.745437 0.743814 0.743266 0.743769 0.745757 0.750079 0.758345 0.769381 0.779941 0.805462 0.8555 0.911221 1.02671 0 0.729764 0.733237 0.73783 0.743545 0.750553 0.759108 0.769269 0.779432 0.787626 0.794061 0.798743 0.801731 0.803223 0.803506 0.803044 0.801651 0.799568 0.797895 0.797219 0.797545 0.799037 0.802137 0.808489 0.818816 0.828679 0.84356 0.890783 0.927041 0.931408 0.987721 0 0.781727 0.782713 0.786955 0.792893 0.799971 0.808213 0.817778 0.827703 0.835918 0.842465 0.847348 0.850629 0.852457 0.853088 0.852992 0.852382 0.851306 0.850804 0.85123 0.852681 0.85521 0.860149 0.86934 0.879162 0.889098 0.922571 0.975057 0.97345 0.922044 0.860749 0 0.834547 0.833551 0.837721 0.843897 0.851 0.858841 0.867626 0.876916 0.88484 0.891261 0.896205 0.899697 0.901857 0.902988 0.903473 0.903586 0.903713 0.904542 0.906254 0.908685 0.91285 0.921021 0.930821 0.93864 0.960464 1.01943 1.03512 0.985618 0.857777 0.634206 0 0.888492 0.885936 0.890224 0.896494 0.903427 0.910739 0.918632 0.927032 0.934498 0.940681 0.945599 0.949276 0.951834 0.953513 0.954686 0.955811 0.957368 0.959545 0.962171 0.966117 0.973693 0.983347 0.990158 1.00503 1.05905 1.09472 1.06277 0.949298 0.711048 0.355962 0 0.943658 0.939978 0.944419 0.950614 0.957172 0.963829 0.970784 0.978175 0.985095 0.991003 0.995897 0.999793 1.00277 1.0051 1.00729 1.00971 1.01249 1.01552 1.0197 1.02717 1.03652 1.04268 1.05394 1.10036 1.1513 1.13302 1.0394 0.829855 0.467406 0.139593 0 1.00005 0.995722 1.00024 1.00618 1.0122 1.01812 1.02418 1.03059 1.03694 1.04261 1.04752 1.05168 1.05523 1.0585 1.06182 1.06522 1.06881 1.07362 1.0814 1.09017 1.09572 1.10558 1.14766 1.20643 1.19664 1.11697 0.933646 0.590805 0.209705 0.0334881 0 1.05774 1.05318 1.05764 1.0632 1.0686 1.07378 1.07905 1.08462 1.0904 1.09589 1.10092 1.10552 1.10982 1.11395 1.11803 1.12239 1.12817 1.13639 1.1441 1.14911 1.15945 1.20177 1.26258 1.2559 1.18364 1.0174 0.694693 0.28478 0.0578188 0.00390748 0 1.11702 1.11253 1.11678 1.12188 1.12662 1.13112 1.13568 1.14059 1.14589 1.15131 1.15659 1.16165 1.16652 1.1714 1.17684 1.18373 1.19189 1.19816 1.20306 1.21636 1.26372 1.32138 1.3115 1.24056 1.08229 0.772486 0.349253 0.0832697 0.00757937 0.000175035 0 1.1788 1.17535 1.17909 1.18365 1.18795 1.19118 1.19479 1.19892 1.20386 1.20923 1.21477 1.22036 1.2262 1.2328 1.2404 1.24746 1.25263 1.25868 1.27904 1.33544 1.38143 1.36224 1.28742 1.12834 0.82148 0.392451 0.103388 0.0114998 0.000382113 2.14455e-06 0 1.20811 1.20066 1.2042 1.20836 1.21445 1.2278 1.24191 1.25569 1.26543 1.27137 1.27651 1.28325 1.29102 1.298 1.30342 1.30856 1.31951 1.35309 1.41468 1.4381 1.40542 1.32225 1.15316 0.83842 0.407239 0.112849 0.0141474 0.000594673 4.96022e-06 1.14334e-08 0 1.06808 1.06684 1.05355 1.04845 1.06032 1.08251 1.12321 1.17063 1.22079 1.26948 1.31063 1.33787 1.35027 1.35519 1.36746 1.39509 1.44765 1.4907 1.48546 1.43757 1.34053 1.15123 0.818236 0.389748 0.108772 0.0143423 0.000688217 7.44929e-06 2.14959e-08 4.77322e-11 0 0.758169 0.722684 0.690053 0.650878 0.643168 0.69336 0.763934 0.853397 0.951886 1.05101 1.14451 1.23086 1.31182 1.38899 1.45359 1.50295 1.52117 1.50445 1.44902 1.33184 1.11306 0.754455 0.340197 0.0916918 0.0119548 0.000599927 7.4598e-06 2.66605e-08 1.24187e-10 2.87119e-13 0 0.349131 0.368407 0.176167 0.0852334 0.128865 0.174035 0.252745 0.351973 0.466888 0.594922 0.733475 0.880453 1.03045 1.17286 1.29736 1.38502 1.41694 1.38668 1.26645 1.0223 0.641985 0.265046 0.0659366 0.00802648 0.000388067 4.98091e-06 2.15824e-08 1.2451e-10 5.34972e-13 9.47456e-14 0 0.453583 0.0393964 -0.279692 -0.185329 -0.188247 -0.140099 -0.0825192 -0.0150521 0.0617843 0.15078 0.255544 0.375995 0.509924 0.652831 0.797429 0.927308 1.01431 1.00564 0.826918 0.483073 0.178337 0.0388267 0.00417084 0.000178348 2.15942e-06 1.15285e-08 1.15005e-10 2.71267e-13 -9.48014e-14 3.34315e-11 0 3.62076 0 0 0 0 0 0 0 0 0 0 0 0 0 0 0 0 0 0 0 0 0 0 0 0 0 0 0 0 0 0
				</DataArray>
			</PointData>
			<CellData Scalars="Density">
				<DataArray Name="Density" type="Float32" format="ascii">