<?xml version="1.0"?>
<VTKFile type="PolyData">
	<PolyData>
		<Piece NumberOfPoints="961" NumberOfPolys="900">
			<Points>
				<DataArray type="Float32" NumberOfComponents="3" format="ascii">
 0 0 0 0.04 0 0 0.08 0 0 0.12 0 0 0.16 0 0 0.2 0 0 0.24 0 0 0.28 0 0 0.32 0 0 0.36 0 0 0.4 0 0 0.44 0 0 0.48 0 0 0.52 0 0 0.56 0 0 0.6 0 0 0.64 0 0 0.68 0 0 0.72 0 0 0.76 0 0 0.8 0 0 0.84 0 0 0.88 0 0 0.92 0 0 0.96 0 0 1 0 0 1.04 0 0 1.08 0 0 1.12 0 0 1.16 0 0 1.2 0 0 0 0.04 0 0.04 0.04 0 0.08 0.04 0 0.12 0.04 0 0.16 0.04 0 0.2 0.04 0 0.24 0.04 0 0.28 0.04 0 0.32 0.04 0 0.36 0.04 0 0.4 0.04 0 0.44 0.04 0 0.48 0.04 0 0.52 0.04 0 0.56 0.04 0 0.6 0.04 0 0.64 0.04 0 0.68 0.04 0 0.72 0.04 0 0.76 0.04 0 0.8 0.04 0 0.84 0.04 0 0.88 0.04 0 0.92 0.04 0 0.96 0.04 0 1 0.04 0 1.04 0.04 0 1.08 0.04 0 1.12 0.04 0 1.16 0.04 0 1.2 0.04 0 0 0.08 0 0.04 0.08 0 0.08 0.08 0 0.12 0.08 0 0.16 0.08 0 0.2 0.08 0 0.24 0.08 0 0.28 0.08 0 0.32 0.08 0 0.36 0.08 0 0.4 0.08 0 0.44 0.08 0 0.48 0.08 0 0.52 0.08 0 0.56 0.08 0 0.6 0.08 0 0.64 0.08 0 0.68 0.08 0 0.72 0.08 0 0.76 0.08 0 0.8 0.08 0 0.84 0.08 0 0.88 0.08 0 0.92 0.08 0 0.96 0.08 0 1 0.08 0 1.04 0.08 0 1.08 0.08 0 1.12 0.08 0 1.16 0.08 0 1.2 0.08 0 0 0.12 0 0.04 0.12 0 0.08 0.12 0 0.12 0.12 0 0.16 0.12 0 0.2 0.12 0 0.24 0.12 0 0.28 0.12 0 0.32 0.12 0 0.36 0.12 0 0.4 0.12 0 0.44 0.12 0 0.48 0.12 0 0.52 0.12 0 0.56 0.12 0 0.6 0.12 0 0.64 0.12 0 0.68 0.12 0 0.72 0.12 0 0.76 0.12 0 0.8 0.12 0 0.84 0.12 0 0.88 0.12 0 0.92 0.12 0 0.96 0.12 0 1 0.12 0 1.04 0.12 0 1.08 0.12 0 1.12 0.12 0 1.16 0.12 0 1.2 0.12 0 0 0.16 0 0.04 0.16 0 0.08 0.16 0 0.12 0.16 0 0.16 0.16 0 0.2 0.16 0 0.24 0.16 0 0.28 0.16 0 0.32 0.16 0 0.36 0.16 0 0.4 0.16 0 0.44 0.16 0 0.48 0.16 0 0.52 0.16 0 0.56 0.16 0 0.6 0.16 0 0.64 0.16 0 0.68 0.16 0 0.72 0.16 0 0.76 0.16 0 0.8 0.16 0 0.84 0.16 0 0.88 0.16 0 0.92 0.16 0 0.96 0.16 0 1 0.16 0 1.04 0.16 0 1.08 0.16 0 1.12 0.16 0 1.16 0.16 0 1.2 0.16 0 0 0.2 0 0.04 0.2 0 0.08 0.2 0 0.12 0.2 0 0.16 0.2 0 0.2 0.2 0 0.24 0.2 0 0.28 0.2 0 0.32 0.2 0 0.36 0.2 0 0.4 0.2 0 0.44 0.2 0 0.48 0.2 0 0.52 0.2 0 0.56 0.2 0 0.6 0.2 0 0.64 0.2 0 0.68 0.2 0 0.72 0.2 0 0.76 0.2 0 0.8 0.2 0 0.84 0.2 0 0.88 0.2 0 0.92 0.2 0 0.96 0.2 0 1 0.2 0 1.04 0.2 0 1.08 0.2 0 1.12 0.2 0 1.16 0.2 0 1.2 0.2 0 0 0.24 0 0.04 0.24 0 0.08 0.24 0 0.12 0.24 0 0.16 0.24 0 0.2 0.24 0 0.24 0.24 0 0.28 0.24 0 0.32 0.24 0 0.36 0.24 0 0.4 0.24 0 0.44 0.24 0 0.48 0.24 0 0.52 0.24 0 0.56 0.24 0 0.6 0.24 0 0.64 0.24 0 0.68 0.24 0 0.72 0.24 0 0.76 0.24 0 0.8 0.24 0 0.84 0.24 0 0.88 0.24 0 0.92 0.24 0 0.96 0.24 0 1 0.24 0 1.04 0.24 0 1.08 0.24 0 1.12 0.24 0 1.16 0.24 0 1.2 0.24 0 0 0.28 0 0.04 0.28 0 0.08 0.28 0 0.12 0.28 0 0.16 0.28 0 0.2 0.28 0 0.24 0.28 0 0.28 0.28 0 0.32 0.28 0 0.36 0.28 0 0.4 0.28 0 0.44 0.28 0 0.48 0.28 0 0.52 0.28 0 0.56 0.28 0 0.6 0.28 0 0.64 0.28 0 0.68 0.28 0 0.72 0.28 0 0.76 0.28 0 0.8 0.28 0 0.84 0.28 0 0.88 0.28 0 0.92 0.28 0 0.96 0.28 0 1 0.28 0 1.04 0.28 0 1.08 0.28 0 1.12 0.28 0 1.16 0.28 0 1.2 0.28 0 0 0.32 0 0.04 0.32 0 0.08 0.32 0 0.12 0.32 0 0.16 0.32 0 0.2 0.32 0 0.24 0.32 0 0.28 0.32 0 0.32 0.32 0 0.36 0.32 0 0.4 0.32 0 0.44 0.32 0 0.48 0.32 0 0.52 0.32 0 0.56 0.32 0 0.6 0.32 0 0.64 0.32 0 0.68 0.32 0 0.72 0.32 0 0.76 0.32 0 0.8 0.32 0 0.84 0.32 0 0.88 0.32 0 0.92 0.32 0 0.96 0.32 0 1 0.32 0 1.04 0.32 0 1.08 0.32 0 1.12 0.32 0 1.16 0.32 0 1.2 0.32 0 0 0.36 0 0.04 0.36 0 0.08 0.36 0 0.12 0.36 0 0.16 0.36 0 0.2 0.36 0 0.24 0.36 0 0.28 0.36 0 0.32 0.36 0 0.36 0.36 0 0.4 0.36 0 0.44 0.36 0 0.48 0.36 0 0.52 0.36 0 0.56 0.36 0 0.6 0.36 0 0.64 0.36 0 0.68 0.36 0 0.72 0.36 0 0.76 0.36 0 0.8 0.36 0 0.84 0.36 0 0.88 0.36 0 0.92 0.36 0 0.96 0.36 0 1 0.36 0 1.04 0.36 0 1.08 0.36 0 1.12 0.36 0 1.16 0.36 0 1.2 0.36 0 0 0.4 0 0.04 0.4 0 0.08 0.4 0 0.12 0.4 0 0.16 0.4 0 0.2 0.4 0 0.24 0.4 0 0.28 0.4 0 0.32 0.4 0 0.36 0.4 0 0.4 0.4 0 0.44 0.4 0 0.48 0.4 0 0.52 0.4 0 0.56 0.4 0 0.6 0.4 0 0.64 0.4 0 0.68 0.4 0 0.72 0.4 0 0.76 0.4 0 0.8 0.4 0 0.84 0.4 0 0.88 0.4 0 0.92 0.4 0 0.96 0.4 0 1 0.4 0 1.04 0.4 0 1.08 0.4 0 1.12 0.4 0 1.16 0.4 0 1.2 0.4 0 0 0.44 0 0.04 0.44 0 0.08 0.44 0 0.12 0.44 0 0.16 0.44 0 0.2 0.44 0 0.24 0.44 0 0.28 0.44 0 0.32 0.44 0 0.36 0.44 0 0.4 0.44 0 0.44 0.44 0 0.48 0.44 0 0.52 0.44 0 0.56 0.44 0 0.6 0.44 0 0.64 0.44 0 0.68 0.44 0 0.72 0.44 0 0.76 0.44 0 0.8 0.44 0 0.84 0.44 0 0.88 0.44 0 0.92 0.44 0 0.96 0.44 0 1 0.44 0 1.04 0.44 0 1.08 0.44 0 1.12 0.44 0 1.16 0.44 0 1.2 0.44 0 0 0.48 0 0.04 0.48 0 0.08 0.48 0 0.12 0.48 0 0.16 0.48 0 0.2 0.48 0 0.24 0.48 0 0.28 0.48 0 0.32 0.48 0 0.36 0.48 0 0.4 0.48 0 0.44 0.48 0 0.48 0.48 0 0.52 0.48 0 0.56 0.48 0 0.6 0.48 0 0.64 0.48 0 0.68 0.48 0 0.72 0.48 0 0.76 0.48 0 0.8 0.48 0 0.84 0.48 0 0.88 0.48 0 0.92 0.48 0 0.96 0.48 0 1 0.48 0 1.04 0.48 0 1.08 0.48 0 1.12 0.48 0 1.16 0.48 0 1.2 0.48 0 0 0.52 0 0.04 0.52 0 0.08 0.52 0 0.12 0.52 0 0.16 0.52 0 0.2 0.52 0 0.24 0.52 0 0.28 0.52 0 0.32 0.52 0 0.36 0.52 0 0.4 0.52 0 0.44 0.52 0 0.48 0.52 0 0.52 0.52 0 0.56 0.52 0 0.6 0.52 0 0.64 0.52 0 0.68 0.52 0 0.72 0.52 0 0.76 0.52 0 0.8 0.52 0 0.84 0.52 0 0.88 0.52 0 0.92 0.52 0 0.96 0.52 0 1 0.52 0 1.04 0.52 0 1.08 0.52 0 1.12 0.52 0 1.16 0.52 0 1.2 0.52 0 0 0.56 0 0.04 0.56 0 0.08 0.56 0 0.12 0.56 0 0.16 0.56 0 0.2 0.56 0 0.24 0.56 0 0.28 0.56 0 0.32 0.56 0 0.36 0.56 0 0.4 0.56 0 0.44 0.56 0 0.48 0.56 0 0.52 0.56 0 0.56 0.56 0 0.6 0.56 0 0.64 0.56 0 0.68 0.56 0 0.72 0.56 0 0.76 0.56 0 0.8 0.56 0 0.84 0.56 0 0.88 0.56 0 0.92 0.56 0 0.96 0.56 0 1 0.56 0 1.04 0.56 0 1.08 0.56 0 1.12 0.56 0 1.16 0.56 0 1.2 0.56 0 0 0.6 0 0.04 0.6 0 0.08 0.6 0 0.12 0.6 0 0.16 0.6 0 0.2 0.6 0 0.24 0.6 0 0.28 0.6 0 0.32 0.6 0 0.36 0.6 0 0.4 0.6 0 0.44 0.6 0 0.48 0.6 0 0.52 0.6 0 0.56 0.6 0 0.6 0.6 0 0.64 0.6 0 0.68 0.6 0 0.72 0.6 0 0.76 0.6 0 0.8 0.6 0 0.84 0.6 0 0.88 0.6 0 0.92 0.6 0 0.96 0.6 0 1 0.6 0 1.04 0.6 0 1.08 0.6 0 1.12 0.6 0 1.16 0.6 0 1.2 0.6 0 0 0.64 0 0.04 0.64 0 0.08 0.64 0 0.12 0.64 0 0.16 0.64 0 0.2 0.64 0 0.24 0.64 0 0.28 0.64 0 0.32 0.64 0 0.36 0.64 0 0.4 0.64 0 0.44 0.64 0 0.48 0.64 0 0.52 0.64 0 0.56 0.64 0 0.6 0.64 0 0.64 0.64 0 0.68 0.64 0 0.72 0.64 0 0.76 0.64 0 0.8 0.64 0 0.84 0.64 0 0.88 0.64 0 0.92 0.64 0 0.96 0.64 0 1 0.64 0 1.04 0.64 0 1.08 0.64 0 1.12 0.64 0 1.16 0.64 0 1.2 0.64 0 0 0.68 0 0.04 0.68 0 0.08 0.68 0 0.12 0.68 0 0.16 0.68 0 0.2 0.68 0 0.24 0.68 0 0.28 0.68 0 0.32 0.68 0 0.36 0.68 0 0.4 0.68 0 0.44 0.68 0 0.48 0.68 0 0.52 0.68 0 0.56 0.68 0 0.6 0.68 0 0.64 0.68 0 0.68 0.68 0 0.72 0.68 0 0.76 0.68 0 0.8 0.68 0 0.84 0.68 0 0.88 0.68 0 0.92 0.68 0 0.96 0.68 0 1 0.68 0 1.04 0.68 0 1.08 0.68 0 1.12 0.68 0 1.16 0.68 0 1.2 0.68 0 0 0.72 0 0.04 0.72 0 0.08 0.72 0 0.12 0.72 0 0.16 0.72 0 0.2 0.72 0 0.24 0.72 0 0.28 0.72 0 0.32 0.72 0 0.36 0.72 0 0.4 0.72 0 0.44 0.72 0 0.48 0.72 0 0.52 0.72 0 0.56 0.72 0 0.6 0.72 0 0.64 0.72 0 0.68 0.72 0 0.72 0.72 0 0.76 0.72 0 0.8 0.72 0 0.84 0.72 0 0.88 0.72 0 0.92 0.72 0 0.96 0.72 0 1 0.72 0 1.04 0.72 0 1.08 0.72 0 1.12 0.72 0 1.16 0.72 0 1.2 0.72 0 0 0.76 0 0.04 0.76 0 0.08 0.76 0 0.12 0.76 0 0.16 0.76 0 0.2 0.76 0 0.24 0.76 0 0.28 0.76 0 0.32 0.76 0 0.36 0.76 0 0.4 0.76 0 0.44 0.76 0 0.48 0.76 0 0.52 0.76 0 0.56 0.76 0 0.6 0.76 0 0.64 0.76 0 0.68 0.76 0 0.72 0.76 0 0.76 0.76 0 0.8 0.76 0 0.84 0.76 0 0.88 0.76 0 0.92 0.76 0 0.96 0.76 0 1 0.76 0 1.04 0.76 0 1.08 0.76 0 1.12 0.76 0 1.16 0.76 0 1.2 0.76 0 0 0.8 0 0.04 0.8 0 0.08 0.8 0 0.12 0.8 0 0.16 0.8 0 0.2 0.8 0 0.24 0.8 0 0.28 0.8 0 0.32 0.8 0 0.36 0.8 0 0.4 0.8 0 0.44 0.8 0 0.48 0.8 0 0.52 0.8 0 0.56 0.8 0 0.6 0.8 0 0.64 0.8 0 0.68 0.8 0 0.72 0.8 0 0.76 0.8 0 0.8 0.8 0 0.84 0.8 0 0.88 0.8 0 0.92 0.8 0 0.96 0.8 0 1 0.8 0 1.04 0.8 0 1.08 0.8 0 1.12 0.8 0 1.16 0.8 0 1.2 0.8 0 0 0.84 0 0.04 0.84 0 0.08 0.84 0 0.12 0.84 0 0.16 0.84 0 0.2 0.84 0 0.24 0.84 0 0.28 0.84 0 0.32 0.84 0 0.36 0.84 0 0.4 0.84 0 0.44 0.84 0 0.48 0.84 0 0.52 0.84 0 0.56 0.84 0 0.6 0.84 0 0.64 0.84 0 0.68 0.84 0 0.72 0.84 0 0.76 0.84 0 0.8 0.84 0 0.84 0.84 0 0.88 0.84 0 0.92 0.84 0 0.96 0.84 0 1 0.84 0 1.04 0.84 0 1.08 0.84 0 1.12 0.84 0 1.16 0.84 0 1.2 0.84 0 0 0.88 0 0.04 0.88 0 0.08 0.88 0 0.12 0.88 0 0.16 0.88 0 0.2 0.88 0 0.24 0.88 0 0.28 0.88 0 0.32 0.88 0 0.36 0.88 0 0.4 0.88 0 0.44 0.88 0 0.48 0.88 0 0.52 0.88 0 0.56 0.88 0 0.6 0.88 0 0.64 0.88 0 0.68 0.88 0 0.72 0.88 0 0.76 0.88 0 0.8 0.88 0 0.84 0.88 0 0.88 0.88 0 0.92 0.88 0 0.96 0.88 0 1 0.88 0 1.04 0.88 0 1.08 0.88 0 1.12 0.88 0 1.16 0.88 0 1.2 0.88 0 0 0.92 0 0.04 0.92 0 0.08 0.92 0 0.12 0.92 0 0.16 0.92 0 0.2 0.92 0 0.24 0.92 0 0.28 0.92 0 0.32 0.92 0 0.36 0.92 0 0.4 0.92 0 0.44 0.92 0 0.48 0.92 0 0.52 0.92 0 0.56 0.92 0 0.6 0.92 0 0.64 0.92 0 0.68 0.92 0 0.72 0.92 0 0.76 0.92 0 0.8 0.92 0 0.84 0.92 0 0.88 0.92 0 0.92 0.92 0 0.96 0.92 0 1 0.92 0 1.04 0.92 0 1.08 0.92 0 1.12 0.92 0 1.16 0.92 0 1.2 0.92 0 0 0.96 0 0.04 0.96 0 0.08 0.96 0 0.12 0.96 0 0.16 0.96 0 0.2 0.96 0 0.24 0.96 0 0.28 0.96 0 0.32 0.96 0 0.36 0.96 0 0.4 0.96 0 0.44 0.96 0 0.48 0.96 0 0.52 0.96 0 0.56 0.96 0 0.6 0.96 0 0.64 0.96 0 0.68 0.96 0 0.72 0.96 0 0.76 0.96 0 0.8 0.96 0 0.84 0.96 0 0.88 0.96 0 0.92 0.96 0 0.96 0.96 0 1 0.96 0 1.04 0.96 0 1.08 0.96 0 1.12 0.96 0 1.16 0.96 0 1.2 0.96 0 0 1 0 0.04 1 0 0.08 1 0 0.12 1 0 0.16 1 0 0.2 1 0 0.24 1 0 0.28 1 0 0.32 1 0 0.36 1 0 0.4 1 0 0.44 1 0 0.48 1 0 0.52 1 0 0.56 1 0 0.6 1 0 0.64 1 0 0.68 1 0 0.72 1 0 0.76 1 0 0.8 1 0 0.84 1 0 0.88 1 0 0.92 1 0 0.96 1 0 1 1 0 1.04 1 0 1.08 1 0 1.12 1 0 1.16 1 0 1.2 1 0 0 1.04 0 0.04 1.04 0 0.08 1.04 0 0.12 1.04 0 0.16 1.04 0 0.2 1.04 0 0.24 1.04 0 0.28 1.04 0 0.32 1.04 0 0.36 1.04 0 0.4 1.04 0 0.44 1.04 0 0.48 1.04 0 0.52 1.04 0 0.56 1.04 0 0.6 1.04 0 0.64 1.04 0 0.68 1.04 0 0.72 1.04 0 0.76 1.04 0 0.8 1.04 0 0.84 1.04 0 0.88 1.04 0 0.92 1.04 0 0.96 1.04 0 1 1.04 0 1.04 1.04 0 1.08 1.04 0 1.12 1.04 0 1.16 1.04 0 1.2 1.04 0 0 1.08 0 0.04 1.08 0 0.08 1.08 0 0.12 1.08 0 0.16 1.08 0 0.2 1.08 0 0.24 1.08 0 0.28 1.08 0 0.32 1.08 0 0.36 1.08 0 0.4 1.08 0 0.44 1.08 0 0.48 1.08 0 0.52 1.08 0 0.56 1.08 0 0.6 1.08 0 0.64 1.08 0 0.68 1.08 0 0.72 1.08 0 0.76 1.08 0 0.8 1.08 0 0.84 1.08 0 0.88 1.08 0 0.92 1.08 0 0.96 1.08 0 1 1.08 0 1.04 1.08 0 1.08 1.08 0 1.12 1.08 0 1.16 1.08 0 1.2 1.08 0 0 1.12 0 
[...]
			<PointData Scalars="VitesseX">
				<DataArray Name="VitesseX" type="Float32" format="ascii">
 0 -0.0419465 -0.0751796 -0.00856906 0.12413 0.266483 0.359522 0.405212 0.391726 0.363554 0.339976 0.325674 0.333707 0.361802 0.407833 0.467725 0.532538 0.597439 0.661287 0.723827 0.781727 0.83726 0.884949 0.931189 0.978297 0.986307 0.922432 0.690174 0.302936 0.0239099 0 0 0.0603562 0.0739322 0.120919 0.200367 0.286251 0.362472 0.370252 0.339487 0.30429 0.285296 0.287616 0.304674 0.339276 0.391738 0.45594 0.524471 0.592059 0.65809 0.721744 0.779748 0.834679 0.881845 0.927735 0.974837 0.98315 0.919826 0.688779 0.303106 0.0244328 0 0 0.0107021 0.0178817 0.0223274 0.0330356 0.0615246 0.0891622 0.120951 0.145075 0.162421 0.17665 0.197216 0.232384 0.283209 0.349194 0.424515 0.501279 0.575351 0.646152 0.712585 0.771251 0.825536 0.872204 0.917936 0.965695 0.975355 0.914018 0.686664 0.304992 0.0265581 0 0 -0.0604202 -0.0885261 -0.0945298 -0.0984113 -0.104715 -0.104138 -0.0835469 -0.03455 0.010787 0.0539748 0.101852 0.157965 0.222449 0.294879 0.375285 0.458776 0.539968 0.616403 0.687145 0.748191 0.804079 0.8521 0.899355 0.949513 0.962299 0.905039 0.68489 0.310407 0.0315634 0 0 -0.101559 -0.144509 -0.156504 -0.1692 -0.181429 -0.183149 -0.153777 -0.10875 -0.0556942 -0.00564436 0.0500218 0.110714 0.175288 0.244057 0.319118 0.400988 0.484351 0.564299 0.639055 0.704079 0.76442 0.816393 0.867673 0.922709 0.941075 0.890641 0.683066 0.321299 0.0417013 0 0 -0.101838 -0.15226 -0.173745 -0.181068 -0.185891 -0.176815 -0.155531 -0.118322 -0.0743192 -0.0212102 0.0329526 0.0901993 0.149649 0.209812 0.275128 0.347964 0.42364 0.499097 0.573268 0.641415 0.706296 0.762968 0.819669 0.881076 0.907031 0.866313 0.678896 0.339709 0.0609666 0 0 -0.0830424 -0.133716 -0.143693 -0.132274 -0.114423 -0.110329 -0.101642 -0.0854146 -0.0507508 -0.0058908 0.0434007 0.0929826 0.144918 0.196154 0.248753 0.308457 0.372938 0.438601 0.504491 0.569026 0.634076 0.693609 0.755191 0.821246 0.85379 0.824636 0.666543 0.366226 0.0957971 0 0 -0.038245 -0.0702941 -0.0727686 -0.041908 -0.0112463 0.00835946 0.00535353 0.00257694 0.0124184 0.0397864 0.0763593 0.117364 0.15718 0.198574 0.239248 0.284093 0.334839 0.389159 0.445037 0.501646 0.558426 0.615584 0.678751 0.74176 0.775596 0.756953 0.636208 0.396218 0.152406 0 0 0.0278338 0.0419591 0.0469116 0.0653306 0.0834659 0.107335 0.12512 0.11773 0.108679 0.111023 0.12822 0.153267 0.182502 0.211507 0.24045 0.271126 0.308646 0.351063 0.39692 0.444744 0.491451 0.542835 0.599685 0.647324 0.674296 0.660445 0.577486 0.412901 0.227127 0 0 0.0821289 0.141798 0.158544 0.157156 0.158676 0.167215 0.185081 0.201536 0.196685 0.182927 0.176583 0.183541 0.199071 0.218989 0.240908 0.261761 0.288115 0.320369 0.357481 0.397562 0.438203 0.484072 0.527292 0.556958 0.566017 0.547292 0.488861 0.392711 0.284125 0 0 0.0885035 0.159904 0.185386 0.183765 0.178531 0.176681 0.184835 0.198618 0.210483 0.210828 0.202226 0.194197 0.194881 0.205101 0.221908 0.24224 0.262825 0.289058 0.320563 0.355722 0.394352 0.434224 0.465754 0.479066 0.467867 0.432091 0.379047 0.324333 0.282104 0 0 0.085062 0.151147 0.177767 0.177109 0.168058 0.160122 0.158433 0.166304 0.176587 0.181857 0.177221 0.16536 0.153674 0.152992 0.164555 0.186927 0.21382 0.243295 0.275685 0.311318 0.349831 0.38373 0.40652 0.405961 0.375022 0.316137 0.256701 0.218744 0.222981 0 0 0.0729635 0.125219 0.148901 0.145541 0.13116 0.115879 0.105802 0.105005 0.11024 0.114842 0.113333 0.101612 0.0850392 0.0714325 0.0715681 0.0881376 0.120095 0.159126 0.20084 0.243701 0.284465 0.316424 0.329477 0.317741 0.271273 0.195382 0.131501 0.101185 0.133571 0 0 0.0515578 0.088141 0.101542 0.0907493 0.0701901 0.0504842 0.0362829 0.0299088 0.0290172 0.0278544 0.0214811 0.00875154 -0.00888522 -0.0273252 -0.0412393 -0.0390346 -0.0154316 0.0263292 0.0770578 0.128249 0.173144 0.203899 0.210547 0.187922 0.135111 0.0662437 0.0133774 7.27525e-05 0.0437412 0 0 0.027908 0.0458922 0.0434554 0.0227806 -0.0041311 -0.0260945 -0.038702 -0.0444413 -0.0501178 -0.061156 -0.0789297 -0.100756 -0.126284 -0.155191 -0.177107 -0.18517 -0.174022 -0.141022 -0.0934005 -0.0433978 -0.000918183 0.0249023 0.0273296 0.00355645 -0.036488 -0.0738731 -0.0941044 -0.0777916 -0.0377083 0 0 0.00531312 1.444e-05 -0.0218178 -0.0560066 -0.0895636 -0.109683 -0.114188 -0.112707 -0.116005 -0.136089 -0.169873 -0.208416 -0.254053 -0.299104 -0.335398 -0.35283 -0.351384 -0.333562 -0.305528 -0.274191 -0.248156 -0.231823 -0.226692 -0.232141 -0.23593 -0.220388 -0.185627 -0.134809 -0.105827 0 0 -0.0167286 -0.0443754 -0.0875539 -0.135218 -0.169961 -0.184061 -0.183217 -0.176057 -0.175319 -0.196564 -0.239068 -0.300607 -0.369899 -0.436911 -0.491304 -0.527667 -0.54387 -0.546903 -0.547655 -0.548776 -0.543326 -0.526738 -0.502821 -0.470197 -0.418142 -0.344708 -0.257407 -0.180603 -0.148217 0 0 -0.032372 -0.0749243 -0.127384 -0.17616 -0.206877 -0.219325 -0.219754 -0.216237 -0.219046 -0.242429 -0.287659 -0.365626 -0.460451 -0.548588 -0.620952 -0.673153 -0.704377 -0.727919 -0.755662 -0.777213 -0.782298 -0.761501 -0.714803 -0.641015 -0.542234 -0.430004 -0.31419 -0.218543 -0.162288 0 0 -0.0427835 -0.0908347 -0.14214 -0.184304 -0.211475 -0.223212 -0.224551 -0.223913 -0.23285 -0.264039 -0.317825 -0.405473 -0.516606 -0.62414 -0.712588 -0.77417 -0.81574 -0.862102 -0.910358 -0.94034 -0.945466 -0.910337 -0.836912 -0.731848 -0.610492 -0.480823 -0.352759 -0.242473 -0.16031 0 0 -0.050034 -0.0986501 -0.142708 -0.17986 -0.204339 -0.214841 -0.216012 -0.215679 -0.225696 -0.260715 -0.322323 -0.423218 -0.545586 -0.664342 -0.764719 -0.83423 -0.892516 -0.959194 -1.01406 -1.04094 -1.0377 -0.978387 -0.888341 -0.768969 -0.638556 -0.502863 -0.370411 -0.250608 -0.1495 0 0 -0.0557598 -0.101143 -0.13667 -0.163901 -0.181988 -0.190729 -0.192061 -0.191723 -0.203388 -0.243236 -0.311907 -0.420758 -0.554217 -0.681781 -0.788299 -0.868855 -0.947413 -1.02241 -1.07438 -1.09593 -1.07271 -0.998123 -0.899533 -0.775981 -0.643728 -0.507032 -0.373785 -0.248977 -0.135748 0 0 -0.0604152 -0.0994684 -0.121798 -0.134326 -0.143159 -0.150243 -0.154128 -0.156603 -0.170579 -0.211551 -0.287858 -0.409053 -0.552225 -0.68771 -0.799973 -0.890377 -0.977649 -1.05186 -1.09965 -1.11264 -1.07647 -0.99586 -0.890684 -0.768714 -0.638259 -0.5035 -0.370138 -0.241624 -0.125574 0 0 -0.0606351 -0.0918059 -0.097366 -0.0935781 -0.0910626 -0.096973 -0.109548 -0.124542 -0.145274 -0.190773 -0.269879 -0.399181 -0.556035 -0.698295 -0.811275 -0.901174 -0.985957 -1.05134 -1.0765 -1.062 -1.02698 -0.955507 -0.864508 -0.749326 -0.624145 -0.494112 -0.362909 -0.23669 -0.122261 0 0 -0.0537194 -0.0739098 -0.0634911 -0.0456785 -0.035324 -0.0430472 -0.0678279 -0.0992085 -0.132385 -0.184276 -0.269766 -0.405877 -0.57387 -0.723898 -0.830884 -0.897609 -0.946889 -0.972236 -0.975692 -0.961629 -0.936258 -0.890562 -0.819913 -0.724158 -0.609181 -0.485477 -0.359359 -0.237264 -0.125879 0 0 -0.0345525 -0.0430644 -0.0234295 -0.00183041 0.00443981 -0.0107003 -0.0440258 -0.0875561 -0.132778 -0.191844 -0.290129 -0.4412 -0.618599 -0.765744 -0.858436 -0.900469 -0.909523 -0.901496 -0.887885 -0.869926 -0.847472 -0.812782 -0.762297 -0.690075 -0.595602 -0.481291 -0.360829 -0.2438 -0.134787 0 0 -0.0072253 0.000861614 0.0191507 0.0350924 0.0290062 0.00264149 -0.0413304 -0.0920439 -0.150409 -0.227407 -0.346226 -0.518123 -0.705079 -0.835216 -0.899643 -0.914255 -0.873494 -0.840487 -0.817627 -0.795076 -0.771098 -0.74123 -0.700583 -0.64705 -0.572866 -0.479154 -0.369173 -0.256385 -0.138565 0 0 0.0246136 0.0402841 0.0596859 0.0616773 0.0424953 0.00274653 -0.0518058 -0.12228 -0.206792 -0.311206 -0.449999 -0.637156 -0.817294 -0.919935 -0.951465 -0.929158 -0.853236 -0.803426 -0.767583 -0.736369 -0.705856 -0.674974 -0.640897 -0.598151 -0.544226 -0.470654 -0.376034 -0.265187 -0.142142 0 0 0.0487193 0.0934786 0.0954965 0.0740522 0.0445439 -0.00651518 -0.0845259 -0.189847 -0.31616 -0.45254 -0.608816 -0.787346 -0.927542 -0.988779 -0.997978 -0.942595 -0.854772 -0.788789 -0.733975 -0.68745 -0.6476 -0.613119 -0.581948 -0.547483 -0.503419 -0.452555 -0.374159 -0.267222 -0.155831 0 0 0.229738 0.179027 0.0886399 0.0761243 0.0368493 -0.0320636 -0.133946 -0.276882 -0.452288 -0.638965 -0.819582 -0.971439 -1.06065 -1.08978 -1.07884 -1.00011 -0.887746 -0.789345 -0.706545 -0.640208 -0.588966 -0.549342 -0.515828 -0.480155 -0.439624 -0.39187 -0.334184 -0.276467 -0.135449 0 0 -0.266017 -0.00444276 0.0964203 0.0717804 0.0213481 -0.0462187 -0.154052 -0.318899 -0.535954 -0.769971 -0.985043 -1.14506 -1.22989 -1.25041 -1.18966 -1.03985 -0.870345 -0.725818 -0.61011 -0.522558 -0.45779 -0.409892 -0.371518 -0.332287 -0.28749 -0.243709 -0.210883 -0.177103 -0.151164 0 0 0 0 0 0 0 0 0 0 0 0 0 0 0 0 0 0 0 0 0 0 0 0 0 0 0 0 0 0 0 0
				</DataArray>
				<DataArray Name="VitesseY" type="Float32" format="ascii">
 0 0 0 0 0 0 0 0 0 0 0 0 0 0 0 0 0 0 0 0 0 0 0 0 0 0 0 0 0 0 0 -0.0190758 0.0837806 0.0189799 -0.0494495 -0.079513 -0.0654265 -0.0203129 0.0504051 0.0774705 0.0693693 0.0566106 0.0386691 0.0191792 0.00065874 -0.0167588 -0.0244396 -0.02595 -0.025524 -0.0242825 -0.0220172 -0.0189885 -0.0155707 -0.0126383 -0.0100526 -0.00772073 -0.00676993 -0.00730216 -0.0087256 -0.00849464 -0.00639344 0 -0.0368954 0.11362 0.0514832 -0.0502972 -0.0857188 -0.0902263 -0.015863 0.0900704 0.128051 0.120211 0.0938513 0.061798 0.0265593 -0.0100829 -0.0421448 -0.0556828 -0.0570852 -0.05558 -0.0515319 -0.0453372 -0.0377334 -0.0304714 -0.0249758 -0.0204183 -0.0164549 -0.0152149 -0.0166158 -0.0196525 -0.0185501 -0.0132643 0 0.0333257 0.176045 0.0929546 -0.00728885 -0.052472 -0.0624832 0.0116403 0.0936096 0.135062 0.133832 0.106362 0.0636517 0.0157769 -0.0327006 -0.0771896 -0.0949029 -0.0960474 -0.0921385 -0.0836696 -0.0715266 -0.0572794 -0.0459823 -0.0380876 -0.0323361 -0.0278649 -0.0272456 -0.0299055 -0.0346205 -0.0316784 -0.0212991 0 0.175805 0.278227 0.144682 0.0418317 -0.00220336 -0.0112277 0.0445292 0.0940599 0.123544 0.130337 0.0992866 0.0501519 -0.00591074 -0.0597891 -0.110943 -0.136692 -0.139597 -0.134354 -0.121131 -0.101969 -0.0805815 -0.0648382 -0.0544867 -0.0480556 -0.0443117 -0.0452444 -0.0500037 -0.0565745 -0.0505022 -0.0320628 0 0.348931 0.391096 0.207919 0.0947396 0.0475838 0.0386487 0.0701113 0.100268 0.117838 0.121251 0.0874516 0.0333933 -0.0261872 -0.0846187 -0.137488 -0.172845 -0.180599 -0.175933 -0.160621 -0.136708 -0.109526 -0.0892231 -0.0765426 -0.0696576 -0.068313 -0.0715637 -0.0809137 -0.0905327 -0.080392 -0.0493945 0 0.502142 0.505429 0.277316 0.139376 0.0812062 0.0743617 0.103226 0.119183 0.126866 0.114539 0.0765398 0.0201523 -0.0416797 -0.102807 -0.155739 -0.198386 -0.21359 -0.210712 -0.196222 -0.171054 -0.14141 -0.118627 -0.104385 -0.0980715 -0.0995779 -0.107803 -0.126666 -0.143799 -0.131421 -0.0831224 0 0.606651 0.6048 0.343363 0.16807 0.0924428 0.0962635 0.138992 0.158507 0.154042 0.121967 0.0743841 0.0127396 -0.0512788 -0.113074 -0.166924 -0.212148 -0.237002 -0.237217 -0.225224 -0.20061 -0.170379 -0.148945 -0.135408 -0.130859 -0.134498 -0.152627 -0.188806 -0.223233 -0.217669 -0.154732 0 0.661624 0.642744 0.405797 0.185475 0.107478 0.113674 0.158576 0.203614 0.197485 0.154038 0.0872551 0.0169681 -0.0528836 -0.116198 -0.171501 -0.217702 -0.250879 -0.258246 -0.24932 -0.226815 -0.196532 -0.176514 -0.165699 -0.162541 -0.170643 -0.202361 -0.261491 -0.327875 -0.348774 -0.29379 0 0.653585 0.623108 0.433931 0.217723 0.13968 0.142398 0.177025 0.227807 0.240289 0.199145 0.123488 0.0361239 -0.0441131 -0.114292 -0.174157 -0.222099 -0.261878 -0.279095 -0.274961 -0.256911 -0.227202 -0.204661 -0.194719 -0.195525 -0.211273 -0.255732 -0.335795 -0.440457 -0.520346 -0.510142 0 0.612388 0.575963 0.432128 0.259163 0.182318 0.183486 0.20778 0.247269 0.264678 0.237499 0.163955 0.0689251 -0.0256832 -0.108897 -0.179864 -0.237962 -0.282337 -0.311333 -0.314725 -0.303093 -0.276508 -0.250632 -0.241075 -0.243669 -0.265818 -0.320749 -0.416618 -0.55052 -0.703474 -0.774157 0 0.570033 0.526834 0.425905 0.294857 0.229823 0.229717 0.248633 0.274904 0.285888 0.260216 0.19382 0.101046 -0.00100863 -0.101401 -0.190444 -0.264232 -0.317919 -0.35444 -0.370204 -0.365669 -0.348169 -0.324551 -0.315943 -0.323886 -0.355703 -0.419409 -0.524692 -0.675252 -0.873326 -1.02094 0 0.528078 0.493208 0.423358 0.328895 0.280427 0.281539 0.296555 0.311233 0.310698 0.279869 0.214994 0.123183 0.0194067 -0.0909715 -0.199315 -0.294358 -0.372673 -0.424587 -0.454057 -0.46038 -0.453376 -0.439575 -0.436421 -0.451799 -0.496783 -0.576052 -0.686055 -0.828038 -1.01228 -1.19242 0 0.498767 0.480703 0.429688 0.367155 0.337199 0.338503 0.350086 0.353446 0.339847 0.301392 0.230836 0.137772 0.0319385 -0.0836628 -0.206188 -0.327951 -0.434146 -0.513652 -0.558816 -0.578335 -0.580355 -0.578724 -0.586002 -0.611596 -0.66543 -0.753083 -0.852901 -0.953863 -1.08942 -1.2695 0 0.496874 0.486429 0.45204 0.41602 0.400295 0.401333 0.404361 0.39545 0.371588 0.324551 0.249517 0.151057 0.041409 -0.0815643 -0.217681 -0.359094 -0.490062 -0.593652 -0.659811 -0.69128 -0.702625 -0.708592 -0.722551 -0.753255 -0.800381 -0.86888 -0.94263 -1.004 -1.10666 -1.27635 0 0.519463 0.513746 0.494829 0.479516 0.472447 0.467267 0.454755 0.431217 0.397898 0.349023 0.27358 0.17155 0.0551212 -0.0780348 -0.225458 -0.383365 -0.533744 -0.655826 -0.739379 -0.784637 -0.8043 -0.816043 -0.830227 -0.851833 -0.879825 -0.917175 -0.9637 -1.00258 -1.08092 -1.19813 0 0.564137 0.563577 0.560644 0.560544 0.553807 0.532333 0.497743 0.458902 0.417632 0.368133 0.300697 0.203605 0.078931 -0.0623947 -0.22103 -0.390991 -0.559903 -0.698552 -0.792094 -0.846872 -0.879106 -0.900496 -0.911973 -0.908911 -0.910407 -0.919638 -0.927173 -0.936846 -0.996537 -1.04144 0 0.626993 0.632275 0.644741 0.653709 0.637305 0.592394 0.538382 0.484751 0.434399 0.384235 0.324519 0.239233 0.118134 -0.0308808 -0.197417 -0.38009 -0.56688 -0.720315 -0.824766 -0.897227 -0.949605 -0.978248 -0.986483 -0.94353 -0.903943 -0.863742 -0.842513 -0.843699 -0.879328 -0.866144 0 0.703918 0.71356 0.73687 0.747745 0.715297 0.65047 0.579038 0.51304 0.455366 0.403164 0.347623 0.274413 0.164568 0.0179648 -0.156138 -0.352377 -0.560555 -0.733066 -0.862079 -0.955369 -1.01609 -1.04434 -1.04128 -0.959263 -0.886579 -0.825428 -0.788655 -0.775148 -0.778645 -0.718725 0 0.791496 0.80229 0.829424 0.834323 0.789827 0.706895 0.619962 0.542681 0.478546 0.425217 0.374063 0.310366 0.213294 0.0749823 -0.100819 -0.314793 -0.552009 -0.752537 -0.902265 -1.00336 -1.06187 -1.08557 -1.06048 -0.95953 -0.872135 -0.802516 -0.753512 -0.721654 -0.696716 -0.602692 0 0.889374 0.894892 0.914296 0.913175 0.858163 0.760979 0.660449 0.572668 0.503291 0.450313 0.402484 0.347342 0.262757 0.133362 -0.0434266 -0.275036 -0.544643 -0.76822 -0.927582 -1.02689 -1.08125 -1.09714 -1.04557 -0.946341 -0.856269 -0.782814 -0.725275 -0.677826 -0.632161 -0.516115 0 0.99749 0.988657 0.991394 0.979401 0.915779 0.810626 0.701966 0.605367 0.530492 0.476843 0.433979 0.386392 0.310341 0.186945 0.00743373 -0.240605 -0.534448 -0.770897 -0.930874 -1.02255 -1.05957 -1.0643 -1.015 -0.924485 -0.836931 -0.761944 -0.698077 -0.640943 -0.583176 -0.452998 0 1.11262 1.08068 1.05453 1.02911 0.959186 0.853917 0.7478 0.645567 0.563629 0.509117 0.46985 0.425151 0.352048 0.22875 0.0428984 -0.217045 -0.515437 -0.74951 -0.899322 -0.969508 -0.989757 -0.988534 -0.94791 -0.883257 -0.806179 -0.73527 -0.669713 -0.608426 -0.545205 -0.406386 0 1.22706 1.17094 1.10411 1.06271 0.988067 0.891439 0.798411 0.698915 0.612334 0.552492 0.50661 0.456355 0.378018 0.250053 0.0564509 -0.208358 -0.490803 -0.706423 -0.831785 -0.883823 -0.895714 -0.886999 -0.860615 -0.815689 -0.758579 -0.697081 -0.637601 -0.578776 -0.51308 -0.369241 0 1.32501 1.25516 1.13723 1.07989 1.00984 0.928699 0.853112 0.766621 0.674655 0.597944 0.536237 0.471823 0.379788 0.239801 0.0422622 -0.213218 -0.464287 -0.640549 -0.731852 -0.768918 -0.775523 -0.767446 -0.747607 -0.722406 -0.687981 -0.64512 -0.596647 -0.545971 -0.478723 -0.331106 0 1.39975 1.31791 1.16339 1.09562 1.03842 0.979027 0.92012 0.842631 0.73655 0.634275 0.546838 0.460473 0.349748 0.195979 0.00120586 -0.219691 -0.415004 -0.544219 -0.612878 -0.640348 -0.644979 -0.638835 -0.623605 -0.608655 -0.594906 -0.572308 -0.54348 -0.50283 -0.439088 -0.28691 0 1.43144 1.34701 1.18771 1.11948 1.07655 1.03081 0.975388 0.897983 0.782302 0.651458 0.531825 0.412871 0.278493 0.124951 -0.0433447 -0.2119 -0.346677 -0.434275 -0.48457 -0.505487 -0.509038 -0.504897 -0.494698 -0.485602 -0.481355 -0.478994 -0.470514 -0.452328 -0.391721 -0.243511 0 1.38028 1.29773 1.1638 1.1188 1.08104 1.03824 0.98401 0.906811 0.785213 0.635413 0.484989 0.336795 0.192458 0.0542688 -0.073125 -0.180121 -0.260141 -0.318863 -0.357207 -0.373627 -0.376131 -0.37165 -0.363859 -0.359965 -0.361095 -0.369175 -0.376017 -0.374214 -0.334231 -0.210934 0 1.01516 1.09606 1.11613 1.06145 0.989896 0.950783 0.895046 0.823235 0.711874 0.566594 0.412269 0.261266 0.126201 0.0168617 -0.0697018 -0.13359 -0.181953 -0.221295 -0.245543 -0.253157 -0.25095 -0.242927 -0.237625 -0.237952 -0.24416 -0.256547 -0.265262 -0.267261 -0.276542 -0.17722 0 0.850251 0.476924 0.92398 0.69618 0.669267 0.635271 0.585332 0.55274 0.494201 0.418981 0.322276 0.222437 0.126584 0.0393304 -0.0399403 -0.105751 -0.147645 -0.162096 -0.160345 -0.150051 -0.136754 -0.126666 -0.123177 -0.126415 -0.135064 -0.138699 -0.142182 -0.155876 -0.135476 -0.151227 0 5.54643 0 0 0 0 0 0 0 0 0 0 0 0 0 0 0 0 0 0 0 0 0 0 0 0 0 0 0 0 0 0
				</DataArray>
			</PointData>
			<CellData Scalars="Density">
				<DataArray Name="Density" type="Float32" format="ascii">