<?xml version="1.0"?>
<VTKFile type="PolyData">
	<PolyData>
		<Piece NumberOfPoints="961" NumberOfPolys="900">
			<Points>
				<DataArray type="Float32" NumberOfComponents="3" format="ascii">
 0 0 0 0.04 0 0 0.08 0 0 0.12 0 0 0.16 0 0 0.2 0 0 0.24 0 0 0.28 0 0 0.32 0 0 0.36 0 0 0.4 0 0 0.44 0 0 0.48 0 0 0.52 0 0 0.56 0 0 0.6 0 0 0.64 0 0 0.68 0 0 0.72 0 0 0.76 0 0 0.8 0 0 0.84 0 0 0.88 0 0 0.92 0 0 0.96 0 0 1 0 0 1.04 0 0 1.08 0 0 1.12 0 0 1.16 0 0 1.2 0 0 0 0.04 0 0.04 0.04 0 0.08 0.04 0 0.12 0.04 0 0.16 0.04 0 0.2 0.04 0 0.24 0.04 0 0.28 0.04 0 0.32 0.04 0 0.36 0.04 0 0.4 0.04 0 0.44 0.04 0 0.48 0.04 0 0.52 0.04 0 0.56 0.04 0 0.6 0.04 0 0.64 0.04 0 0.68 0.04 0 0.72 0.04 0 0.76 0.04 0 0.8 0.04 0 0.84 0.04 0 0.88 0.04 0 0.92 0.04 0 0.96 0.04 0 1 0.04 0 1.04 0.04 0 1.08 0.04 0 1.12 0.04 0 1.16 0.04 0 1.2 0.04 0 0 0.08 0 0.04 0.08 0 0.08 0.08 0 0.12 0.08 0 0.16 0.08 0 0.2 0.08 0 0.24 0.08 0 0.28 0.08 0 0.32 0.08 0 0.36 0.08 0 0.4 0.08 0 0.44 0.08 0 0.48 0.08 0 0.52 0.08 0 0.56 0.08 0 0.6 0.08 0 0.64 0.08 0 0.68 0.08 0 0.72 0.08 0 0.76 0.08 0 0.8 0.08 0 0.84 0.08 0 0.88 0.08 0 0.92 0.08 0 0.96 0.08 0 1 0.08 0 1.04 0.08 0 1.08 0.08 0 1.12 0.08 0 1.16 0.08 0 1.2 0.08 0 0 0.12 0 0.04 0.12 0 0.08 0.12 0 0.12 0.12 0 0.16 0.12 0 0.2 0.12 0 0.24 0.12 0 0.28 0.12 0 0.32 0.12 0 0.36 0.12 0 0.4 0.12 0 0.44 0.12 0 0.48 0.12 0 0.52 0.12 0 0.56 0.12 0 0.6 0.12 0 0.64 0.12 0 0.68 0.12 0 0.72 0.12 0 0.76 0.12 0 0.8 0.12 0 0.84 0.12 0 0.88 0.12 0 0.92 0.12 0 0.96 0.12 0 1 0.12 0 1.04 0.12 0 1.08 0.12 0 1.12 0.12 0 1.16 0.12 0 1.2 0.12 0 0 0.16 0 0.04 0.16 0 0.08 0.16 0 0.12 0.16 0 0.16 0.16 0 0.2 0.16 0 0.24 0.16 0 0.28 0.16 0 0.32 0.16 0 0.36 0.16 0 0.4 0.16 0 0.44 0.16 0 0.48 0.16 0 0.52 0.16 0 0.56 0.16 0 0.6 0.16 0 0.64 0.16 0 0.68 0.16 0 0.72 0.16 0 0.76 0.16 0 0.8 0.16 0 0.84 0.16 0 0.88 0.16 0 0.92 0.16 0 0.96 0.16 0 1 0.16 0 1.04 0.16 0 1.08 0.16 0 1.12 0.16 0 1.16 0.16 0 1.2 0.16 0 0 0.2 0 0.04 0.2 0 0.08 0.2 0 0.12 0.2 0 0.16 0.2 0 0.2 0.2 0 0.24 0.2 0 0.28 0.2 0 0.32 0.2 0 0.36 0.2 0 0.4 0.2 0 0.44 0.2 0 0.48 0.2 0 0.52 0.2 0 0.56 0.2 0 0.6 0.2 0 0.64 0.2 0 0.68 0.2 0 0.72 0.2 0 0.76 0.2 0 0.8 0.2 0 0.84 0.2 0 0.88 0.2 0 0.92 0.2 0 0.96 0.2 0 1 0.2 0 1.04 0.2 0 1.08 0.2 0 1.12 0.2 0 1.16 0.2 0 1.2 0.2 0 0 0.24 0 0.04 0.24 0 0.08 0.24 0 0.12 0.24 0 0.16 0.24 0 0.2 0.24 0 0.24 0.24 0 0.28 0.24 0 0.32 0.24 0 0.36 0.24 0 0.4 0.24 0 0.44 0.24 0 0.48 0.24 0 0.52 0.24 0 0.56 0.24 0 0.6 0.24 0 0.64 0.24 0 0.68 0.24 0 0.72 0.24 0 0.76 0.24 0 0.8 0.24 0 0.84 0.24 0 0.88 0.24 0 0.92 0.24 0 0.96 0.24 0 1 0.24 0 1.04 0.24 0 1.08 0.24 0 1.12 0.24 0 1.16 0.24 0 1.2 0.24 0 0 0.28 0 0.04 0.28 0 0.08 0.28 0 0.12 0.28 0 0.16 0.28 0 0.2 0.28 0 0.24 0.28 0 0.28 0.28 0 0.32 0.28 0 0.36 0.28 0 0.4 0.28 0 0.44 0.28 0 0.48 0.28 0 0.52 0.28 0 0.56 0.28 0 0.6 0.28 0 0.64 0.28 0 0.68 0.28 0 0.72 0.28 0 0.76 0.28 0 0.8 0.28 0 0.84 0.28 0 0.88 0.28 0 0.92 0.28 0 0.96 0.28 0 1 0.28 0 1.04 0.28 0 1.08 0.28 0 1.12 0.28 0 1.16 0.28 0 1.2 0.28 0 0 0.32 0 0.04 0.32 0 0.08 0.32 0 0.12 0.32 0 0.16 0.32 0 0.2 0.32 0 0.24 0.32 0 0.28 0.32 0 0.32 0.32 0 0.36 0.32 0 0.4 0.32 0 0.44 0.32 0 0.48 0.32 0 0.52 0.32 0 0.56 0.32 0 0.6 0.32 0 0.64 0.32 0 0.68 0.32 0 0.72 0.32 0 0.76 0.32 0 0.8 0.32 0 0.84 0.32 0 0.88 0.32 0 0.92 0.32 0 0.96 0.32 0 1 0.32 0 1.04 0.32 0 1.08 0.32 0 1.12 0.32 0 1.16 0.32 0 1.2 0.32 0 0 0.36 0 0.04 0.36 0 0.08 0.36 0 0.12 0.36 0 0.16 0.36 0 0.2 0.36 0 0.24 0.36 0 0.28 0.36 0 0.32 0.36 0 0.36 0.36 0 0.4 0.36 0 0.44 0.36 0 0.48 0.36 0 0.52 0.36 0 0.56 0.36 0 0.6 0.36 0 0.64 0.36 0 0.68 0.36 0 0.72 0.36 0 0.76 0.36 0 0.8 0.36 0 0.84 0.36 0 0.88 0.36 0 0.92 0.36 0 0.96 0.36 0 1 0.36 0 1.04 0.36 0 1.08 0.36 0 1.12 0.36 0 1.16 0.36 0 1.2 0.36 0 0 0.4 0 0.04 0.4 0 0.08 0.4 0 0.12 0.4 0 0.16 0.4 0 0.2 0.4 0 0.24 0.4 0 0.28 0.4 0 0.32 0.4 0 0.36 0.4 0 0.4 0.4 0 0.44 0.4 0 0.48 0.4 0 0.52 0.4 0 0.56 0.4 0 0.6 0.4 0 0.64 0.4 0 0.68 0.4 0 0.72 0.4 0 0.76 0.4 0 0.8 0.4 0 0.84 0.4 0 0.88 0.4 0 0.92 0.4 0 0.96 0.4 0 1 0.4 0 1.04 0.4 0 1.08 0.4 0 1.12 0.4 0 1.16 0.4 0 1.2 0.4 0 0 0.44 0 0.04 0.44 0 0.08 0.44 0 0.12 0.44 0 0.16 0.44 0 0.2 0.44 0 0.24 0.44 0 0.28 0.44 0 0.32 0.44 0 0.36 0.44 0 0.4 0.44 0 0.44 0.44 0 0.48 0.44 0 0.52 0.44 0 0.56 0.44 0 0.6 0.44 0 0.64 0.44 0 0.68 0.44 0 0.72 0.44 0 0.76 0.44 0 0.8 0.44 0 0.84 0.44 0 0.88 0.44 0 0.92 0.44 0 0.96 0.44 0 1 0.44 0 1.04 0.44 0 1.08 0.44 0 1.12 0.44 0 1.16 0.44 0 1.2 0.44 0 0 0.48 0 0.04 0.48 0 0.08 0.48 0 0.12 0.48 0 0.16 0.48 0 0.2 0.48 0 0.24 0.48 0 0.28 0.48 0 0.32 0.48 0 0.36 0.48 0 0.4 0.48 0 0.44 0.48 0 0.48 0.48 0 0.52 0.48 0 0.56 0.48 0 0.6 0.48 0 0.64 0.48 0 0.68 0.48 0 0.72 0.48 0 0.76 0.48 0 0.8 0.48 0 0.84 0.48 0 0.88 0.48 0 0.92 0.48 0 0.96 0.48 0 1 0.48 0 1.04 0.48 0 1.08 0.48 0 1.12 0.48 0 1.16 0.48 0 1.2 0.48 0 0 0.52 0 0.04 0.52 0 0.08 0.52 0 0.12 0.52 0 0.16 0.52 0 0.2 0.52 0 0.24 0.52 0 0.28 0.52 0 0.32 0.52 0 0.36 0.52 0 0.4 0.52 0 0.44 0.52 0 0.48 0.52 0 0.52 0.52 0 0.56 0.52 0 0.6 0.52 0 0.64 0.52 0 0.68 0.52 0 0.72 0.52 0 0.76 0.52 0 0.8 0.52 0 0.84 0.52 0 0.88 0.52 0 0.92 0.52 0 0.96 0.52 0 1 0.52 0 1.04 0.52 0 1.08 0.52 0 1.12 0.52 0 1.16 0.52 0 1.2 0.52 0 0 0.56 0 0.04 0.56 0 0.08 0.56 0 0.12 0.56 0 0.16 0.56 0 0.2 0.56 0 0.24 0.56 0 0.28 0.56 0 0.32 0.56 0 0.36 0.56 0 0.4 0.56 0 0.44 0.56 0 0.48 0.56 0 0.52 0.56 0 0.56 0.56 0 0.6 0.56 0 0.64 0.56 0 0.68 0.56 0 0.72 0.56 0 0.76 0.56 0 0.8 0.56 0 0.84 0.56 0 0.88 0.56 0 0.92 0.56 0 0.96 0.56 0 1 0.56 0 1.04 0.56 0 1.08 0.56 0 1.12 0.56 0 1.16 0.56 0 1.2 0.56 0 0 0.6 0 0.04 0.6 0 0.08 0.6 0 0.12 0.6 0 0.16 0.6 0 0.2 0.6 0 0.24 0.6 0 0.28 0.6 0 0.32 0.6 0 0.36 0.6 0 0.4 0.6 0 0.44 0.6 0 0.48 0.6 0 0.52 0.6 0 0.56 0.6 0 0.6 0.6 0 0.64 0.6 0 0.68 0.6 0 0.72 0.6 0 0.76 0.6 0 0.8 0.6 0 0.84 0.6 0 0.88 0.6 0 0.92 0.6 0 0.96 0.6 0 1 0.6 0 1.04 0.6 0 1.08 0.6 0 1.12 0.6 0 1.16 0.6 0 1.2 0.6 0 0 0.64 0 0.04 0.64 0 0.08 0.64 0 0.12 0.64 0 0.16 0.64 0 0.2 0.64 0 0.24 0.64 0 0.28 0.64 0 0.32 0.64 0 0.36 0.64 0 0.4 0.64 0 0.44 0.64 0 0.48 0.64 0 0.52 0.64 0 0.56 0.64 0 0.6 0.64 0 0.64 0.64 0 0.68 0.64 0 0.72 0.64 0 0.76 0.64 0 0.8 0.64 0 0.84 0.64 0 0.88 0.64 0 0.92 0.64 0 0.96 0.64 0 1 0.64 0 1.04 0.64 0 1.08 0.64 0 1.12 0.64 0 1.16 0.64 0 1.2 0.64 0 0 0.68 0 0.04 0.68 0 0.08 0.68 0 0.12 0.68 0 0.16 0.68 0 0.2 0.68 0 0.24 0.68 0 0.28 0.68 0 0.32 0.68 0 0.36 0.68 0 0.4 0.68 0 0.44 0.68 0 0.48 0.68 0 0.52 0.68 0 0.56 0.68 0 0.6 0.68 0 0.64 0.68 0 0.68 0.68 0 0.72 0.68 0 0.76 0.68 0 0.8 0.68 0 0.84 0.68 0 0.88 0.68 0 0.92 0.68 0 0.96 0.68 0 1 0.68 0 1.04 0.68 0 1.08 0.68 0 1.12 0.68 0 1.16 0.68 0 1.2 0.68 0 0 0.72 0 0.04 0.72 0 0.08 0.72 0 0.12 0.72 0 0.16 0.72 0 0.2 0.72 0 0.24 0.72 0 0.28 0.72 0 0.32 0.72 0 0.36 0.72 0 0.4 0.72 0 0.44 0.72 0 0.48 0.72 0 0.52 0.72 0 0.56 0.72 0 0.6 0.72 0 0.64 0.72 0 0.68 0.72 0 0.72 0.72 0 0.76 0.72 0 0.8 0.72 0 0.84 0.72 0 0.88 0.72 0 0.92 0.72 0 0.96 0.72 0 1 0.72 0 1.04 0.72 0 1.08 0.72 0 1.12 0.72 0 1.16 0.72 0 1.2 0.72 0 0 0.76 0 0.04 0.76 0 0.08 0.76 0 0.12 0.76 0 0.16 0.76 0 0.2 0.76 0 0.24 0.76 0 0.28 0.76 0 0.32 0.76 0 0.36 0.76 0 0.4 0.76 0 0.44 0.76 0 0.48 0.76 0 0.52 0.76 0 0.56 0.76 0 0.6 0.76 0 0.64 0.76 0 0.68 0.76 0 0.72 0.76 0 0.76 0.76 0 0.8 0.76 0 0.84 0.76 0 0.88 0.76 0 0.92 0.76 0 0.96 0.76 0 1 0.76 0 1.04 0.76 0 1.08 0.76 0 1.12 0.76 0 1.16 0.76 0 1.2 0.76 0 0 0.8 0 0.04 0.8 0 0.08 0.8 0 0.12 0.8 0 0.16 0.8 0 0.2 0.8 0 0.24 0.8 0 0.28 0.8 0 0.32 0.8 0 0.36 0.8 0 0.4 0.8 0 0.44 0.8 0 0.48 0.8 0 0.52 0.8 0 0.56 0.8 0 0.6 0.8 0 0.64 0.8 0 0.68 0.8 0 0.72 0.8 0 0.76 0.8 0 0.8 0.8 0 0.84 0.8 0 0.88 0.8 0 0.92 0.8 0 0.96 0.8 0 1 0.8 0 1.04 0.8 0 1.08 0.8 0 1.12 0.8 0 1.16 0.8 0 1.2 0.8 0 0 0.84 0 0.04 0.84 0 0.08 0.84 0 0.12 0.84 0 0.16 0.84 0 0.2 0.84 0 0.24 0.84 0 0.28 0.84 0 0.32 0.84 0 0.36 0.84 0 0.4 0.84 0 0.44 0.84 0 0.48 0.84 0 0.52 0.84 0 0.56 0.84 0 0.6 0.84 0 0.64 0.84 0 0.68 0.84 0 0.72 0.84 0 0.76 0.84 0 0.8 0.84 0 0.84 0.84 0 0.88 0.84 0 0.92 0.84 0 0.96 0.84 0 1 0.84 0 1.04 0.84 0 1.08 0.84 0 1.12 0.84 0 1.16 0.84 0 1.2 0.84 0 0 0.88 0 0.04 0.88 0 0.08 0.88 0 0.12 0.88 0 0.16 0.88 0 0.2 0.88 0 0.24 0.88 0 0.28 0.88 0 0.32 0.88 0 0.36 0.88 0 0.4 0.88 0 0.44 0.88 0 0.48 0.88 0 0.52 0.88 0 0.56 0.88 0 0.6 0.88 0 0.64 0.88 0 0.68 0.88 0 0.72 0.88 0 0.76 0.88 0 0.8 0.88 0 0.84 0.88 0 0.88 0.88 0 0.92 0.88 0 0.96 0.88 0 1 0.88 0 1.04 0.88 0 1.08 0.88 0 1.12 0.88 0 1.16 0.88 0 1.2 0.88 0 0 0.92 0 0.04 0.92 0 0.08 0.92 0 0.12 0.92 0 0.16 0.92 0 0.2 0.92 0 0.24 0.92 0 0.28 0.92 0 0.32 0.92 0 0.36 0.92 0 0.4 0.92 0 0.44 0.92 0 0.48 0.92 0 0.52 0.92 0 0.56 0.92 0 0.6 0.92 0 0.64 0.92 0 0.68 0.92 0 0.72 0.92 0 0.76 0.92 0 0.8 0.92 0 0.84 0.92 0 0.88 0.92 0 0.92 0.92 0 0.96 0.92 0 1 0.92 0 1.04 0.92 0 1.08 0.92 0 1.12 0.92 0 1.16 0.92 0 1.2 0.92 0 0 0.96 0 0.04 0.96 0 0.08 0.96 0 0.12 0.96 0 0.16 0.96 0 0.2 0.96 0 0.24 0.96 0 0.28 0.96 0 0.32 0.96 0 0.36 0.96 0 0.4 0.96 0 0.44 0.96 0 0.48 0.96 0 0.52 0.96 0 0.56 0.96 0 0.6 0.96 0 0.64 0.96 0 0.68 0.96 0 0.72 0.96 0 0.76 0.96 0 0.8 0.96 0 0.84 0.96 0 0.88 0.96 0 0.92 0.96 0 0.96 0.96 0 1 0.96 0 1.04 0.96 0 1.08 0.96 0 1.12 0.96 0 1.16 0.96 0 1.2 0.96 0 0 1 0 0.04 1 0 0.08 1 0 0.12 1 0 0.16 1 0 0.2 1 0 0.24 1 0 0.28 1 0 0.32 1 0 0.36 1 0 0.4 1 0 0.44 1 0 0.48 1 0 0.52 1 0 0.56 1 0 0.6 1 0 0.64 1 0 0.68 1 0 0.72 1 0 0.76 1 0 0.8 1 0 0.84 1 0 0.88 1 0 0.92 1 0 0.96 1 0 1 1 0 1.04 1 0 1.08 1 0 1.12 1 0 1.16 1 0 1.2 1 0 0 1.04 0 0.04 1.04 0 0.08 1.04 0 0.12 1.04 0 0.16 1.04 0 0.2 1.04 0 0.24 1.04 0 0.28 1.04 0 0.32 1.04 0 0.36 1.04 0 0.4 1.04 0 0.44 1.04 0 0.48 1.04 0 0.52 1.04 0 0.56 1.04 0 0.6 1.04 0 0.64 1.04 0 0.68 1.04 0 0.72 1.04 0 0.76 1.04 0 0.8 1.04 0 0.84 1.04 0 0.88 1.04 0 0.92 1.04 0 0.96 1.04 0 1 1.04 0 1.04 1.04 0 1.08 1.04 0 1.12 1.04 0 1.16 1.04 0 1.2 1.04 0 0 1.08 0 0.04 1.08 0 0.08 1.08 0 0.12 1.08 0 0.16 1.08 0 0.2 1.08 0 0.24 1.08 0 0.28 1.08 0 0.32 1.08 0 0.36 1.08 0 0.4 1.08 0 0.44 1.08 0 0.48 1.08 0 0.52 1.08 0 0.56 1.08 0 0.6 1.08 0 0.64 1.08 0 0.68 1.08 0 0.72 1.08 0 0.76 1.08 0 0.8 1.08 0 0.84 1.08 0 0.88 1.08 0 0.92 1.08 0 0.96 1.08 0 1 1.08 0 1.04 1.08 0 1.08 1.08 0 1.12 1.08 0 1.16 1.08 0 1.2 1.08 0 0 1.12 0 
[...]
			<PointData Scalars="VitesseX">
				<DataArray Name="VitesseX" type="Float32" format="ascii">
 0 -0.0623689 -0.106184 -0.0339176 0.106594 0.261011 0.363804 0.38626 0.346129 0.294527 0.247314 0.220616 0.220394 0.241939 0.275387 0.311993 0.345692 0.355438 0.166045 -0.343011 -0.790637 -0.941124 -0.851262 -0.747052 -0.644994 -0.542366 -0.438558 -0.332739 -0.224135 -0.111517 0 0 0.0575487 0.0493683 0.0806163 0.164404 0.262441 0.331562 0.329432 0.287157 0.241983 0.211646 0.198862 0.20673 0.232281 0.268589 0.307282 0.342288 0.353191 0.168509 -0.336277 -0.785525 -0.939479 -0.851639 -0.747435 -0.645481 -0.542955 -0.439205 -0.333342 -0.22456 -0.111708 0 0 -0.0186433 -0.0210547 -0.0285809 -0.0244224 -0.000586025 0.0343065 0.0705566 0.0950238 0.105783 0.115507 0.134258 0.163054 0.202347 0.247506 0.292072 0.330781 0.34526 0.174562 -0.316423 -0.769503 -0.933435 -0.851959 -0.747533 -0.645688 -0.543307 -0.43967 -0.333827 -0.224987 -0.112027 0 0 -0.100139 -0.158928 -0.18133 -0.192002 -0.200591 -0.186329 -0.142055 -0.0882962 -0.0388753 0.00595997 0.0520412 0.101895 0.154489 0.209084 0.261843 0.306565 0.327426 0.179513 -0.285755 -0.741974 -0.921706 -0.852704 -0.747705 -0.645918 -0.543661 -0.440118 -0.334342 -0.22551 -0.112405 0 0 -0.140196 -0.216969 -0.250216 -0.27197 -0.28896 -0.290082 -0.253861 -0.194413 -0.133 -0.0760677 -0.0210743 0.0353243 0.0933529 0.153801 0.213022 0.263996 0.293742 0.176238 -0.248057 -0.701541 -0.901419 -0.854184 -0.748164 -0.646338 -0.544145 -0.440674 -0.335021 -0.226199 -0.112848 0 0 -0.133784 -0.217174 -0.260433 -0.284739 -0.300804 -0.308496 -0.294288 -0.251675 -0.194876 -0.135595 -0.0796036 -0.0252519 0.0301785 0.0877602 0.147694 0.203377 0.241211 0.158674 -0.20725 -0.645716 -0.86759 -0.856052 -0.748948 -0.646947 -0.544763 -0.441336 -0.33583 -0.227038 -0.113381 0 0 -0.0932964 -0.162928 -0.20893 -0.233888 -0.250969 -0.266887 -0.274853 -0.26399 -0.229127 -0.179366 -0.12685 -0.0769717 -0.0278309 0.0222836 0.0754354 0.129686 0.170206 0.122291 -0.168281 -0.572321 -0.816494 -0.853252 -0.749906 -0.647709 -0.545491 -0.442088 -0.336741 -0.228035 -0.114085 0 0 -0.0147192 -0.0338275 -0.0724918 -0.120335 -0.161952 -0.191047 -0.213716 -0.230999 -0.231277 -0.205408 -0.165071 -0.12223 -0.080453 -0.0388602 0.00512235 0.0513784 0.0853469 0.0643321 -0.138025 -0.482685 -0.747089 -0.832483 -0.750663 -0.648577 -0.546297 -0.442907 -0.337745 -0.229212 -0.115039 0 0 0.0467231 0.0633522 0.0307898 -0.0261804 -0.0866016 -0.13332 -0.165616 -0.191183 -0.210421 -0.214355 -0.19584 -0.164259 -0.130493 -0.0968404 -0.0626308 -0.0275049 -0.0040498 -0.0139 -0.126672 -0.387199 -0.652313 -0.779723 -0.74977 -0.649445 -0.547131 -0.443779 -0.338826 -0.230549 -0.116274 0 0 0.055531 0.084334 0.0640691 0.0134658 -0.048405 -0.107332 -0.146684 -0.172391 -0.198009 -0.218371 -0.223272 -0.209109 -0.183055 -0.155927 -0.130431 -0.107987 -0.0936085 -0.104696 -0.146661 -0.300519 -0.530733 -0.690831 -0.732121 -0.649145 -0.547906 -0.444676 -0.339945 -0.231974 -0.117672 0 0 0.0490187 0.0706867 0.0524444 0.00622122 -0.0503752 -0.109485 -0.162896 -0.198474 -0.221737 -0.244036 -0.261393 -0.263706 -0.248348 -0.224068 -0.203464 -0.18995 -0.187036 -0.198903 -0.205009 -0.244313 -0.396899 -0.572591 -0.668971 -0.643557 -0.548242 -0.445489 -0.341008 -0.233379 -0.119087 0 0 0.029018 0.0357455 0.0121386 -0.0339091 -0.0909472 -0.149329 -0.204633 -0.251555 -0.283461 -0.306152 -0.3257 -0.339378 -0.337709 -0.317067 -0.289522 -0.276059 -0.281883 -0.292854 -0.289577 -0.250267 -0.277894 -0.424738 -0.558479 -0.610312 -0.545719 -0.446042 -0.341927 -0.234674 -0.120422 0 0 0.00181406 -0.00998468 -0.0435493 -0.0954911 -0.152788 -0.2093 -0.262291 -0.309948 -0.350894 -0.382837 -0.407773 -0.427594 -0.439894 -0.436806 -0.415859 -0.390642 -0.38332 -0.387447 -0.374692 -0.314319 -0.220117 -0.269912 -0.414567 -0.520402 -0.529389 -0.444839 -0.342641 -0.235841 -0.121647 0 0 -0.0230166 -0.054639 -0.102022 -0.160232 -0.220912 -0.27602 -0.323813 -0.366118 -0.407493 -0.450473 -0.488143 -0.518285 -0.542719 -0.557406 -0.559621 -0.5418 -0.514069 -0.488208 -0.459718 -0.396088 -0.239982 -0.15861 -0.246138 -0.384792 -0.466213 -0.436998 -0.342409 -0.236859 -0.12274 0 0 -0.0421685 -0.0908902 -0.149642 -0.216295 -0.280152 -0.334061 -0.377341 -0.4142 -0.449742 -0.492827 -0.545892 -0.596303 -0.637505 -0.672154 -0.69324 -0.698687 -0.671381 -0.614166 -0.550231 -0.469207 -0.312894 -0.1344 -0.0994056 -0.216343 -0.344902 -0.397491 -0.338627 -0.237474 -0.123717 0 0 -0.0561721 -0.115631 -0.182858 -0.253603 -0.317486 -0.369955 -0.411339 -0.444482 -0.476362 -0.514495 -0.570371 -0.639313 -0.706803 -0.766417 -0.812115 -0.832694 -0.81495 -0.758282 -0.66295 -0.525411 -0.391891 -0.193481 -0.0292732 -0.0471925 -0.18281 -0.297191 -0.316319 -0.235828 -0.124493 0 0 -0.0660725 -0.12944 -0.191713 -0.253363 -0.312537 -0.363892 -0.407677 -0.445897 -0.480486 -0.51785 -0.567325 -0.645127 -0.737467 -0.820251 -0.89051 -0.93044 -0.933345 -0.880825 -0.768446 -0.602484 -0.441922 -0.287856 -0.0573224 0.0641401 -0.00170574 -0.145371 -0.240958 -0.224316 -0.124029 0 0 -0.0700826 -0.129972 -0.18218 -0.231188 -0.276868 -0.321631 -0.365007 -0.407942 -0.453439 -0.500155 -0.552888 -0.616457 -0.706103 -0.820581 -0.918314 -0.980313 -1.00086 -0.957956 -0.848049 -0.689701 -0.498636 -0.33767 -0.167232 0.0788463 0.139432 0.0392484 -0.103071 -0.173131 -0.118468 0 0 -0.0653948 -0.117782 -0.153431 -0.182188 -0.212621 -0.251928 -0.299519 -0.350149 -0.402701 -0.459539 -0.515803 -0.577389 -0.656854 -0.750289 -0.856434 -0.949794 -0.999042 -0.987296 -0.889211 -0.749958 -0.575168 -0.377745 -0.238295 -0.0144026 0.194712 0.202823 0.0793163 -0.055179 -0.085922 0 0 -0.0429327 -0.0797237 -0.102339 -0.115992 -0.13716 -0.174158 -0.229485 -0.292732 -0.351543 -0.404896 -0.457948 -0.516801 -0.588502 -0.67369 -0.762141 -0.843975 -0.897797 -0.917183 -0.884716 -0.776789 -0.633591 -0.450557 -0.254088 -0.138985 0.150117 0.288863 0.258104 0.118462 0.00970329 0 0 -0.0135796 -0.0343826 -0.0449698 -0.0579527 -0.0707316 -0.0999594 -0.151947 -0.218225 -0.284005 -0.342191 -0.398322 -0.455616 -0.5062 -0.575182 -0.647419 -0.720828 -0.776883 -0.804077 -0.8015 -0.755826 -0.650588 -0.506794 -0.313175 -0.173104 0.0163601 0.285984 0.361215 0.298062 0.164693 0 0 -0.00115986 -0.0110034 -0.0111999 -0.0187934 -0.0172509 -0.0340431 -0.0681697 -0.115206 -0.172436 -0.241398 -0.315715 -0.385978 -0.441485 -0.479243 -0.526792 -0.592126 -0.648225 -0.688442 -0.706678 -0.688145 -0.619559 -0.526584 -0.395143 -0.177993 -0.0869406 0.184235 0.377283 0.38888 0.301455 0 0 -0.00583837 -0.00268448 -0.00108199 0.00482569 0.0197865 0.0101024 0.000153972 -0.0127126 -0.0424105 -0.0992725 -0.181465 -0.274777 -0.361702 -0.41429 -0.444965 -0.466111 -0.51551 -0.577274 -0.602716 -0.605208 -0.58413 -0.502588 -0.423735 -0.252081 -0.112828 0.0434927 0.298064 0.375949 0.326542 0 0 -0.0149768 -0.00278559 -0.012197 0.0125765 0.0287176 0.0229388 0.0312613 0.0522045 0.0613833 0.03165 -0.0325831 -0.123589 -0.225155 -0.320555 -0.381695 -0.405971 -0.410986 -0.433901 -0.488912 -0.530858 -0.531645 -0.480766 -0.408724 -0.345565 -0.150235 -0.0608497 0.134956 0.268814 0.254428 0 0 -0.0224364 -0.0112372 -0.0244319 0.00507408 0.0118979 0.0118817 0.0353782 0.0733081 0.106005 0.103238 0.0737196 0.0159958 -0.0668162 -0.167268 -0.265294 -0.342749 -0.366189 -0.365029 -0.368371 -0.40011 -0.443178 -0.47033 -0.418827 -0.381328 -0.276516 -0.153701 -0.068372 0.0922385 0.125176 0 0 -0.0271614 -0.0323142 -0.0329459 -0.0123249 -0.00825837 -0.00345782 0.0252838 0.0644326 0.0982789 0.113667 0.11142 0.0912422 0.0534667 -0.0104272 -0.101919 -0.204835 -0.29323 -0.333629 -0.333698 -0.317967 -0.330017 -0.378582 -0.419385 -0.430573 -0.417427 -0.323326 -0.250228 -0.126838 -0.00998656 0 0 -0.0284223 -0.0533755 -0.0404273 -0.0335522 -0.031231 -0.0191552 0.00747074 0.0438236 0.0697246 0.0802864 0.0853438 0.0943148 0.0983434 0.0844939 0.0392692 -0.0404454 -0.146177 -0.243309 -0.30422 -0.314774 -0.303653 -0.301063 -0.35657 -0.449885 -0.523169 -0.500342 -0.4075 -0.287943 -0.137749 0 0 -0.0468995 -0.0606783 -0.0733782 -0.0536555 -0.0505412 -0.033493 -0.0111449 0.0149483 0.0273559 0.0280021 0.029925 0.0422392 0.0635449 0.0892469 0.0977924 0.0721517 0.00284099 -0.100037 -0.207204 -0.285722 -0.319332 -0.330898 -0.360852 -0.441272 -0.552511 -0.583304 -0.499676 -0.374715 -0.204136 0 0 -0.0605623 -0.128959 -0.0996925 -0.0822493 -0.0571815 -0.0461412 -0.017629 -0.00449194 -0.00689196 -0.0195738 -0.0250845 -0.0195115 -0.00326973 0.0192491 0.0439888 0.0651148 0.0584314 0.00632898 -0.0913901 -0.213344 -0.317899 -0.392748 -0.446857 -0.507208 -0.56796 -0.578821 -0.516237 -0.404454 -0.223867 0 0 -0.373717 -0.169859 -0.112228 -0.0864714 -0.0760779 -0.0395796 -0.0161113 -0.00853972 -0.0238669 -0.0428482 -0.0544341 -0.053828 -0.0448231 -0.0314219 -0.0162334 -0.00167083 0.00842841 -0.00602023 -0.0709578 -0.207159 -0.394309 -0.563047 -0.663059 -0.691388 -0.666391 -0.576127 -0.438233 -0.338754 -0.299981 0 0 0 0 0 0 0 0 0 0 0 0 0 0 0 0 0 0 0 0 0 0 0 0 0 0 0 0 0 0 0 0
				</DataArray>
				<DataArray Name="VitesseY" type="Float32" format="ascii">
 0 0 0 0 0 0 0 0 0 0 0 0 0 0 0 0 0 0 0 0 0 0 0 0 0 0 0 0 0 0 0 -0.0604476 0.0627252 -0.0133029 -0.0928502 -0.134188 -0.120956 -0.0534384 0.0305916 0.0493067 0.0448008 0.0301555 0.00683379 -0.016733 -0.0322693 -0.0388179 -0.0379841 -0.0342475 -0.0284133 -0.0186313 -0.00392431 0.00938374 0.0161042 0.0170548 0.0154818 0.0137149 0.0114005 0.00817127 0.00349697 -0.000738665 -0.0029966 0 -0.0983895 0.0591725 -0.00173041 -0.130777 -0.186877 -0.192725 -0.088183 0.0287864 0.0663056 0.0595131 0.033325 -0.00495044 -0.0441128 -0.0718692 -0.0824284 -0.0796568 -0.0706455 -0.0577497 -0.0381361 -0.0094016 0.0173811 0.0317371 0.0342616 0.0311712 0.027709 0.0231045 0.0165799 0.00701659 -0.00154384 -0.00599542 0 -0.021817 0.0986869 0.017289 -0.122617 -0.191327 -0.206359 -0.126413 -0.0162477 0.0303179 0.0324188 0.00293963 -0.04241 -0.0882858 -0.122312 -0.134377 -0.128212 -0.11167 -0.0900068 -0.0606734 -0.0187839 0.0221744 0.04623 0.0516004 0.0470969 0.041996 0.0351582 0.025352 0.0108088 -0.00215783 -0.00882488 0 0.118301 0.19604 0.0527407 -0.105254 -0.179234 -0.195875 -0.153126 -0.0730658 -0.0291648 -0.0220693 -0.0477129 -0.0963771 -0.144271 -0.180703 -0.195166 -0.184768 -0.159901 -0.128844 -0.0902809 -0.0358382 0.0211078 0.0584765 0.0687918 0.06326 0.0566274 0.0476769 0.0347443 0.0152306 -0.0023845 -0.0114411 0 0.278228 0.307227 0.0989499 -0.0778524 -0.163667 -0.181601 -0.161899 -0.118184 -0.0895782 -0.0836394 -0.106298 -0.153115 -0.202918 -0.240814 -0.259421 -0.248237 -0.216572 -0.17743 -0.131662 -0.0653902 0.0105566 0.0664607 0.0851134 0.0797774 0.0716599 0.0607345 0.0448912 0.0204649 -0.0021992 -0.0139274 0 0.409374 0.400439 0.156071 -0.0486768 -0.146758 -0.168755 -0.154756 -0.135352 -0.129978 -0.139205 -0.164638 -0.208593 -0.25787 -0.297619 -0.319654 -0.313914 -0.279839 -0.236091 -0.187012 -0.111533 -0.0148801 0.063488 0.0963724 0.0968184 0.0870763 0.0743686 0.0558526 0.0267407 -0.00147192 -0.0162997 0 0.472336 0.4428 0.199745 -0.0106111 -0.115337 -0.145084 -0.137298 -0.126412 -0.13711 -0.171846 -0.213429 -0.259517 -0.307636 -0.348786 -0.373066 -0.37554 -0.345084 -0.30138 -0.253567 -0.175513 -0.061792 0.0423109 0.0996556 0.113536 0.102922 0.0886796 0.0677527 0.0343943 0.000115318 -0.0183753 0 0.460026 0.420243 0.221941 0.0352866 -0.0598629 -0.10237 -0.108425 -0.104985 -0.12092 -0.174544 -0.239859 -0.300483 -0.35173 -0.393487 -0.421123 -0.429696 -0.408987 -0.367611 -0.323747 -0.253595 -0.132613 -0.00105428 0.0922216 0.126488 0.119505 0.103801 0.0808048 0.0437133 0.00298473 -0.0197413 0 0.40744 0.36756 0.226029 0.0806639 -0.00132353 -0.0427815 -0.0669988 -0.0799546 -0.100619 -0.15707 -0.241675 -0.323147 -0.388472 -0.434144 -0.464166 -0.478114 -0.468011 -0.433594 -0.39028 -0.332528 -0.221955 -0.0716404 0.0577195 0.122933 0.135997 0.119874 0.0952221 0.055001 0.00760112 -0.019936 0 0.350204 0.31684 0.222868 0.118654 0.0535419 0.0163098 -0.0131201 -0.046958 -0.0792981 -0.137907 -0.228705 -0.3274 -0.413641 -0.473094 -0.506312 -0.522872 -0.522229 -0.497141 -0.453132 -0.40199 -0.315342 -0.167082 -0.00961141 0.102617 0.146031 0.136871 0.111138 0.0685294 0.0143598 -0.0186568 0 0.302733 0.282828 0.224817 0.154681 0.105343 0.0732029 0.0416669 0.000158546 -0.0521948 -0.120139 -0.214543 -0.32159 -0.42565 -0.5072 -0.555294 -0.573383 -0.574284 -0.555615 -0.514542 -0.460916 -0.39455 -0.27559 -0.105852 0.0474068 0.132639 0.153151 0.128608 0.0844044 0.0234866 -0.0158372 0 0.279867 0.271133 0.237732 0.194518 0.158648 0.12845 0.0946018 0.0472818 -0.014841 -0.0974586 -0.199136 -0.314123 -0.428069 -0.5315 -0.604015 -0.638569 -0.638341 -0.617566 -0.573552 -0.515523 -0.459426 -0.371721 -0.219013 -0.0433703 0.0937302 0.154357 0.146633 0.102517 0.0350784 -0.0115629 0 0.286097 0.281928 0.265803 0.24254 0.214938 0.183474 0.142898 0.0896774 0.0200036 -0.0661363 -0.176685 -0.3018 -0.427017 -0.544151 -0.642598 -0.703003 -0.725427 -0.6912 -0.645155 -0.572036 -0.500286 -0.435464 -0.32682 -0.1574 0.0150113 0.127163 0.16056 0.122002 0.0491894 -0.00595274 0 0.314365 0.313709 0.30913 0.299293 0.276321 0.23816 0.187008 0.123569 0.0489875 -0.0389789 -0.144896 -0.278787 -0.4169 -0.550613 -0.668055 -0.758323 -0.805434 -0.791013 -0.723643 -0.645269 -0.547048 -0.469116 -0.398969 -0.270775 -0.0957326 0.0631658 0.146879 0.141261 0.0656797 0.000940764 0 0.359655 0.360863 0.363742 0.363592 0.340631 0.291186 0.226809 0.151471 0.0692631 -0.0193349 -0.118736 -0.242773 -0.394828 -0.543411 -0.682077 -0.798336 -0.86677 -0.884722 -0.818425 -0.727395 -0.609762 -0.495215 -0.432292 -0.358724 -0.213582 -0.0376519 0.0978078 0.1446 0.0834035 0.00909233 0 0.418249 0.417708 0.42215 0.425914 0.400171 0.340537 0.263117 0.176754 0.0856153 -0.00762574 -0.104221 -0.214758 -0.356377 -0.521763 -0.680465 -0.811886 -0.903226 -0.946613 -0.903433 -0.799389 -0.680326 -0.552725 -0.443208 -0.391883 -0.312853 -0.158128 0.00902084 0.113103 0.0968468 0.0176199 0 0.483924 0.477651 0.474468 0.474758 0.445707 0.378867 0.293548 0.19784 0.0993438 -0.000234742 -0.101332 -0.205167 -0.329425 -0.482867 -0.645615 -0.791544 -0.90664 -0.968878 -0.953302 -0.854277 -0.737873 -0.616523 -0.482644 -0.396403 -0.353659 -0.264871 -0.109195 0.0368391 0.0840994 0.023027 0 0.532409 0.517012 0.498159 0.490783 0.45713 0.389875 0.304845 0.204101 0.0981633 -0.00552822 -0.109183 -0.212017 -0.31913 -0.43875 -0.584748 -0.732148 -0.855145 -0.92899 -0.95446 -0.877663 -0.769796 -0.660791 -0.549553 -0.412842 -0.356849 -0.322687 -0.221671 -0.0743899 0.0270641 0.0058632 0 0.428354 0.409345 0.375506 0.374461 0.350574 0.299283 0.237741 0.157318 0.0631841 -0.031291 -0.124487 -0.214243 -0.302873 -0.400107 -0.514581 -0.638858 -0.747717 -0.828493 -0.867939 -0.855003 -0.772055 -0.680929 -0.586462 -0.46881 -0.356576 -0.3285 -0.29537 -0.192703 -0.0760262 -0.0608348 0 -0.00736399 -0.0133641 -0.051403 -0.0388462 -0.0384973 -0.0482487 -0.0512708 -0.0616741 -0.080366 -0.0970363 -0.1257 -0.187595 -0.271053 -0.355251 -0.426865 -0.502135 -0.595078 -0.678418 -0.734396 -0.760912 -0.73883 -0.668511 -0.590955 -0.519578 -0.388143 -0.313783 -0.311626 -0.279324 -0.204766 -0.199146 0 -0.533741 -0.51156 -0.528604 -0.511589 -0.503402 -0.482718 -0.448428 -0.404869 -0.348598 -0.277146 -0.199631 -0.149769 -0.156499 -0.218797 -0.30694 -0.370274 -0.422183 -0.494146 -0.568616 -0.623089 -0.638184 -0.611225 -0.571785 -0.524067 -0.436398 -0.32373 -0.302381 -0.318002 -0.314678 -0.389677 0 -0.765989 -0.729861 -0.734757 -0.721316 -0.724087 -0.705086 -0.681408 -0.648479 -0.587708 -0.494464 -0.372916 -0.240598 -0.130377 -0.0812252 -0.106913 -0.200244 -0.281098 -0.319097 -0.372363 -0.449043 -0.498646 -0.516997 -0.498083 -0.476718 -0.467416 -0.375163 -0.299264 -0.330435 -0.392004 -0.561519 0 -0.700176 -0.664069 -0.6729 -0.669692 -0.689704 -0.696929 -0.708965 -0.709779 -0.684332 -0.619723 -0.522877 -0.404116 -0.25992 -0.117032 -0.0179452 0.00656696 -0.0598496 -0.176857 -0.227532 -0.241316 -0.314711 -0.394891 -0.418715 -0.403671 -0.417086 -0.418705 -0.355385 -0.360653 -0.44705 -0.663136 0 -0.565271 -0.538719 -0.558006 -0.561703 -0.585913 -0.597005 -0.610322 -0.616211 -0.61487 -0.608271 -0.580925 -0.51297 -0.410913 -0.276077 -0.117225 0.0219397 0.0981118 0.0862427 -0.026093 -0.142267 -0.164722 -0.173003 -0.254234 -0.345844 -0.379534 -0.4299 -0.449604 -0.441144 -0.507482 -0.691873 0 -0.42644 -0.414484 -0.446906 -0.458837 -0.485911 -0.501782 -0.51432 -0.517706 -0.516522 -0.516618 -0.51983 -0.51893 -0.48676 -0.405287 -0.280532 -0.119366 0.0494723 0.168661 0.205932 0.147247 0.0102583 -0.0861205 -0.109061 -0.149624 -0.277399 -0.417705 -0.52333 -0.552617 -0.56818 -0.66682 0 -0.271504 -0.286115 -0.331865 -0.355272 -0.387543 -0.405577 -0.418519 -0.418564 -0.417396 -0.419176 -0.426157 -0.435629 -0.442714 -0.433325 -0.378462 -0.266654 -0.110579 0.0731056 0.22455 0.299108 0.288128 0.181452 0.0422835 -0.0601018 -0.153059 -0.323545 -0.500695 -0.583604 -0.579062 -0.576377 0 -0.0959924 -0.156581 -0.214753 -0.24879 -0.29483 -0.307476 -0.317763 -0.316771 -0.316111 -0.319165 -0.327637 -0.33844 -0.347445 -0.351764 -0.348683 -0.319575 -0.23237 -0.0866719 0.0991423 0.272425 0.368666 0.380625 0.298155 0.134141 -0.0685856 -0.250192 -0.407579 -0.499831 -0.516401 -0.438365 0 0.0442528 0.0354698 -0.111439 -0.154834 -0.204207 -0.212827 -0.217556 -0.214063 -0.20949 -0.21338 -0.223083 -0.234415 -0.242219 -0.247468 -0.249426 -0.247228 -0.232807 -0.174695 -0.0494657 0.128674 0.306684 0.393291 0.377868 0.269256 0.0919689 -0.127043 -0.288022 -0.374777 -0.404516 -0.338821 0 0.644957 0.0918505 -0.0786643 -0.0678818 -0.119158 -0.103096 -0.129187 -0.102643 -0.101697 -0.101456 -0.11206 -0.119364 -0.126725 -0.130272 -0.132208 -0.132716 -0.131264 -0.124167 -0.0886387 0.0112926 0.16942 0.305241 0.32808 0.254564 0.124957 -0.0101172 -0.137771 -0.204141 -0.223873 -0.299999 0 5.43255 0 0 0 0 0 0 0 0 0 0 0 0 0 0 0 0 0 0 0 0 0 0 0 0 0 0 0 0 0 0
				</DataArray>
			</PointData>
			<CellData Scalars="Density">
				<DataArray Name="Density" type="Float32" format="ascii">