<?xml version="1.0"?>
<VTKFile type="PolyData">
	<PolyData>
		<Piece NumberOfPoints="961" NumberOfPolys="900">
			<Points>
				<DataArray type="Float32" NumberOfComponents="3" format="ascii">
 0 0 0 0.04 0 0 0.08 0 0 0.12 0 0 0.16 0 0 0.2 0 0 0.24 0 0 0.28 0 0 0.32 0 0 0.36 0 0 0.4 0 0 0.44 0 0 0.48 0 0 0.52 0 0 0.56 0 0 0.6 0 0 0.64 0 0 0.68 0 0 0.72 0 0 0.76 0 0 0.8 0 0 0.84 0 0 0.88 0 0 0.92 0 0 0.96 0 0 1 0 0 1.04 0 0 1.08 0 0 1.12 0 0 1.16 0 0 1.2 0 0 0 0.04 0 0.04 0.04 0 0.08 0.04 0 0.12 0.04 0 0.16 0.04 0 0.2 0.04 0 0.24 0.04 0 0.28 0.04 0 0.32 0.04 0 0.36 0.04 0 0.4 0.04 0 0.44 0.04 0 0.48 0.04 0 0.52 0.04 0 0.56 0.04 0 0.6 0.04 0 0.64 0.04 0 0.68 0.04 0 0.72 0.04 0 0.76 0.04 0 0.8 0.04 0 0.84 0.04 0 0.88 0.04 0 0.92 0.04 0 0.96 0.04 0 1 0.04 0 1.04 0.04 0 1.08 0.04 0 1.12 0.04 0 1.16 0.04 0 1.2 0.04 0 0 0.08 0 0.04 0.08 0 0.08 0.08 0 0.12 0.08 0 0.16 0.08 0 0.2 0.08 0 0.24 0.08 0 0.28 0.08 0 0.32 0.08 0 0.36 0.08 0 0.4 0.08 0 0.44 0.08 0 0.48 0.08 0 0.52 0.08 0 0.56 0.08 0 0.6 0.08 0 0.64 0.08 0 0.68 0.08 0 0.72 0.08 0 0.76 0.08 0 0.8 0.08 0 0.84 0.08 0 0.88 0.08 0 0.92 0.08 0 0.96 0.08 0 1 0.08 0 1.04 0.08 0 1.08 0.08 0 1.12 0.08 0 1.16 0.08 0 1.2 0.08 0 0 0.12 0 0.04 0.12 0 0.08 0.12 0 0.12 0.12 0 0.16 0.12 0 0.2 0.12 0 0.24 0.12 0 0.28 0.12 0 0.32 0.12 0 0.36 0.12 0 0.4 0.12 0 0.44 0.12 0 0.48 0.12 0 0.52 0.12 0 0.56 0.12 0 0.6 0.12 0 0.64 0.12 0 0.68 0.12 0 0.72 0.12 0 0.76 0.12 0 0.8 0.12 0 0.84 0.12 0 0.88 0.12 0 0.92 0.12 0 0.96 0.12 0 1 0.12 0 1.04 0.12 0 1.08 0.12 0 1.12 0.12 0 1.16 0.12 0 1.2 0.12 0 0 0.16 0 0.04 0.16 0 0.08 0.16 0 0.12 0.16 0 0.16 0.16 0 0.2 0.16 0 0.24 0.16 0 0.28 0.16 0 0.32 0.16 0 0.36 0.16 0 0.4 0.16 0 0.44 0.16 0 0.48 0.16 0 0.52 0.16 0 0.56 0.16 0 0.6 0.16 0 0.64 0.16 0 0.68 0.16 0 0.72 0.16 0 0.76 0.16 0 0.8 0.16 0 0.84 0.16 0 0.88 0.16 0 0.92 0.16 0 0.96 0.16 0 1 0.16 0 1.04 0.16 0 1.08 0.16 0 1.12 0.16 0 1.16 0.16 0 1.2 0.16 0 0 0.2 0 0.04 0.2 0 0.08 0.2 0 0.12 0.2 0 0.16 0.2 0 0.2 0.2 0 0.24 0.2 0 0.28 0.2 0 0.32 0.2 0 0.36 0.2 0 0.4 0.2 0 0.44 0.2 0 0.48 0.2 0 0.52 0.2 0 0.56 0.2 0 0.6 0.2 0 0.64 0.2 0 0.68 0.2 0 0.72 0.2 0 0.76 0.2 0 0.8 0.2 0 0.84 0.2 0 0.88 0.2 0 0.92 0.2 0 0.96 0.2 0 1 0.2 0 1.04 0.2 0 1.08 0.2 0 1.12 0.2 0 1.16 0.2 0 1.2 0.2 0 0 0.24 0 0.04 0.24 0 0.08 0.24 0 0.12 0.24 0 0.16 0.24 0 0.2 0.24 0 0.24 0.24 0 0.28 0.24 0 0.32 0.24 0 0.36 0.24 0 0.4 0.24 0 0.44 0.24 0 0.48 0.24 0 0.52 0.24 0 0.56 0.24 0 0.6 0.24 0 0.64 0.24 0 0.68 0.24 0 0.72 0.24 0 0.76 0.24 0 0.8 0.24 0 0.84 0.24 0 0.88 0.24 0 0.92 0.24 0 0.96 0.24 0 1 0.24 0 1.04 0.24 0 1.08 0.24 0 1.12 0.24 0 1.16 0.24 0 1.2 0.24 0 0 0.28 0 0.04 0.28 0 0.08 0.28 0 0.12 0.28 0 0.16 0.28 0 0.2 0.28 0 0.24 0.28 0 0.28 0.28 0 0.32 0.28 0 0.36 0.28 0 0.4 0.28 0 0.44 0.28 0 0.48 0.28 0 0.52 0.28 0 0.56 0.28 0 0.6 0.28 0 0.64 0.28 0 0.68 0.28 0 0.72 0.28 0 0.76 0.28 0 0.8 0.28 0 0.84 0.28 0 0.88 0.28 0 0.92 0.28 0 0.96 0.28 0 1 0.28 0 1.04 0.28 0 1.08 0.28 0 1.12 0.28 0 1.16 0.28 0 1.2 0.28 0 0 0.32 0 0.04 0.32 0 0.08 0.32 0 0.12 0.32 0 0.16 0.32 0 0.2 0.32 0 0.24 0.32 0 0.28 0.32 0 0.32 0.32 0 0.36 0.32 0 0.4 0.32 0 0.44 0.32 0 0.48 0.32 0 0.52 0.32 0 0.56 0.32 0 0.6 0.32 0 0.64 0.32 0 0.68 0.32 0 0.72 0.32 0 0.76 0.32 0 0.8 0.32 0 0.84 0.32 0 0.88 0.32 0 0.92 0.32 0 0.96 0.32 0 1 0.32 0 1.04 0.32 0 1.08 0.32 0 1.12 0.32 0 1.16 0.32 0 1.2 0.32 0 0 0.36 0 0.04 0.36 0 0.08 0.36 0 0.12 0.36 0 0.16 0.36 0 0.2 0.36 0 0.24 0.36 0 0.28 0.36 0 0.32 0.36 0 0.36 0.36 0 0.4 0.36 0 0.44 0.36 0 0.48 0.36 0 0.52 0.36 0 0.56 0.36 0 0.6 0.36 0 0.64 0.36 0 0.68 0.36 0 0.72 0.36 0 0.76 0.36 0 0.8 0.36 0 0.84 0.36 0 0.88 0.36 0 0.92 0.36 0 0.96 0.36 0 1 0.36 0 1.04 0.36 0 1.08 0.36 0 1.12 0.36 0 1.16 0.36 0 1.2 0.36 0 0 0.4 0 0.04 0.4 0 0.08 0.4 0 0.12 0.4 0 0.16 0.4 0 0.2 0.4 0 0.24 0.4 0 0.28 0.4 0 0.32 0.4 0 0.36 0.4 0 0.4 0.4 0 0.44 0.4 0 0.48 0.4 0 0.52 0.4 0 0.56 0.4 0 0.6 0.4 0 0.64 0.4 0 0.68 0.4 0 0.72 0.4 0 0.76 0.4 0 0.8 0.4 0 0.84 0.4 0 0.88 0.4 0 0.92 0.4 0 0.96 0.4 0 1 0.4 0 1.04 0.4 0 1.08 0.4 0 1.12 0.4 0 1.16 0.4 0 1.2 0.4 0 0 0.44 0 0.04 0.44 0 0.08 0.44 0 0.12 0.44 0 0.16 0.44 0 0.2 0.44 0 0.24 0.44 0 0.28 0.44 0 0.32 0.44 0 0.36 0.44 0 0.4 0.44 0 0.44 0.44 0 0.48 0.44 0 0.52 0.44 0 0.56 0.44 0 0.6 0.44 0 0.64 0.44 0 0.68 0.44 0 0.72 0.44 0 0.76 0.44 0 0.8 0.44 0 0.84 0.44 0 0.88 0.44 0 0.92 0.44 0 0.96 0.44 0 1 0.44 0 1.04 0.44 0 1.08 0.44 0 1.12 0.44 0 1.16 0.44 0 1.2 0.44 0 0 0.48 0 0.04 0.48 0 0.08 0.48 0 0.12 0.48 0 0.16 0.48 0 0.2 0.48 0 0.24 0.48 0 0.28 0.48 0 0.32 0.48 0 0.36 0.48 0 0.4 0.48 0 0.44 0.48 0 0.48 0.48 0 0.52 0.48 0 0.56 0.48 0 0.6 0.48 0 0.64 0.48 0 0.68 0.48 0 0.72 0.48 0 0.76 0.48 0 0.8 0.48 0 0.84 0.48 0 0.88 0.48 0 0.92 0.48 0 0.96 0.48 0 1 0.48 0 1.04 0.48 0 1.08 0.48 0 1.12 0.48 0 1.16 0.48 0 1.2 0.48 0 0 0.52 0 0.04 0.52 0 0.08 0.52 0 0.12 0.52 0 0.16 0.52 0 0.2 0.52 0 0.24 0.52 0 0.28 0.52 0 0.32 0.52 0 0.36 0.52 0 0.4 0.52 0 0.44 0.52 0 0.48 0.52 0 0.52 0.52 0 0.56 0.52 0 0.6 0.52 0 0.64 0.52 0 0.68 0.52 0 0.72 0.52 0 0.76 0.52 0 0.8 0.52 0 0.84 0.52 0 0.88 0.52 0 0.92 0.52 0 0.96 0.52 0 1 0.52 0 1.04 0.52 0 1.08 0.52 0 1.12 0.52 0 1.16 0.52 0 1.2 0.52 0 0 0.56 0 0.04 0.56 0 0.08 0.56 0 0.12 0.56 0 0.16 0.56 0 0.2 0.56 0 0.24 0.56 0 0.28 0.56 0 0.32 0.56 0 0.36 0.56 0 0.4 0.56 0 0.44 0.56 0 0.48 0.56 0 0.52 0.56 0 0.56 0.56 0 0.6 0.56 0 0.64 0.56 0 0.68 0.56 0 0.72 0.56 0 0.76 0.56 0 0.8 0.56 0 0.84 0.56 0 0.88 0.56 0 0.92 0.56 0 0.96 0.56 0 1 0.56 0 1.04 0.56 0 1.08 0.56 0 1.12 0.56 0 1.16 0.56 0 1.2 0.56 0 0 0.6 0 0.04 0.6 0 0.08 0.6 0 0.12 0.6 0 0.16 0.6 0 0.2 0.6 0 0.24 0.6 0 0.28 0.6 0 0.32 0.6 0 0.36 0.6 0 0.4 0.6 0 0.44 0.6 0 0.48 0.6 0 0.52 0.6 0 0.56 0.6 0 0.6 0.6 0 0.64 0.6 0 0.68 0.6 0 0.72 0.6 0 0.76 0.6 0 0.8 0.6 0 0.84 0.6 0 0.88 0.6 0 0.92 0.6 0 0.96 0.6 0 1 0.6 0 1.04 0.6 0 1.08 0.6 0 1.12 0.6 0 1.16 0.6 0 1.2 0.6 0 0 0.64 0 0.04 0.64 0 0.08 0.64 0 0.12 0.64 0 0.16 0.64 0 0.2 0.64 0 0.24 0.64 0 0.28 0.64 0 0.32 0.64 0 0.36 0.64 0 0.4 0.64 0 0.44 0.64 0 0.48 0.64 0 0.52 0.64 0 0.56 0.64 0 0.6 0.64 0 0.64 0.64 0 0.68 0.64 0 0.72 0.64 0 0.76 0.64 0 0.8 0.64 0 0.84 0.64 0 0.88 0.64 0 0.92 0.64 0 0.96 0.64 0 1 0.64 0 1.04 0.64 0 1.08 0.64 0 1.12 0.64 0 1.16 0.64 0 1.2 0.64 0 0 0.68 0 0.04 0.68 0 0.08 0.68 0 0.12 0.68 0 0.16 0.68 0 0.2 0.68 0 0.24 0.68 0 0.28 0.68 0 0.32 0.68 0 0.36 0.68 0 0.4 0.68 0 0.44 0.68 0 0.48 0.68 0 0.52 0.68 0 0.56 0.68 0 0.6 0.68 0 0.64 0.68 0 0.68 0.68 0 0.72 0.68 0 0.76 0.68 0 0.8 0.68 0 0.84 0.68 0 0.88 0.68 0 0.92 0.68 0 0.96 0.68 0 1 0.68 0 1.04 0.68 0 1.08 0.68 0 1.12 0.68 0 1.16 0.68 0 1.2 0.68 0 0 0.72 0 0.04 0.72 0 0.08 0.72 0 0.12 0.72 0 0.16 0.72 0 0.2 0.72 0 0.24 0.72 0 0.28 0.72 0 0.32 0.72 0 0.36 0.72 0 0.4 0.72 0 0.44 0.72 0 0.48 0.72 0 0.52 0.72 0 0.56 0.72 0 0.6 0.72 0 0.64 0.72 0 0.68 0.72 0 0.72 0.72 0 0.76 0.72 0 0.8 0.72 0 0.84 0.72 0 0.88 0.72 0 0.92 0.72 0 0.96 0.72 0 1 0.72 0 1.04 0.72 0 1.08 0.72 0 1.12 0.72 0 1.16 0.72 0 1.2 0.72 0 0 0.76 0 0.04 0.76 0 0.08 0.76 0 0.12 0.76 0 0.16 0.76 0 0.2 0.76 0 0.24 0.76 0 0.28 0.76 0 0.32 0.76 0 0.36 0.76 0 0.4 0.76 0 0.44 0.76 0 0.48 0.76 0 0.52 0.76 0 0.56 0.76 0 0.6 0.76 0 0.64 0.76 0 0.68 0.76 0 0.72 0.76 0 0.76 0.76 0 0.8 0.76 0 0.84 0.76 0 0.88 0.76 0 0.92 0.76 0 0.96 0.76 0 1 0.76 0 1.04 0.76 0 1.08 0.76 0 1.12 0.76 0 1.16 0.76 0 1.2 0.76 0 0 0.8 0 0.04 0.8 0 0.08 0.8 0 0.12 0.8 0 0.16 0.8 0 0.2 0.8 0 0.24 0.8 0 0.28 0.8 0 0.32 0.8 0 0.36 0.8 0 0.4 0.8 0 0.44 0.8 0 0.48 0.8 0 0.52 0.8 0 0.56 0.8 0 0.6 0.8 0 0.64 0.8 0 0.68 0.8 0 0.72 0.8 0 0.76 0.8 0 0.8 0.8 0 0.84 0.8 0 0.88 0.8 0 0.92 0.8 0 0.96 0.8 0 1 0.8 0 1.04 0.8 0 1.08 0.8 0 1.12 0.8 0 1.16 0.8 0 1.2 0.8 0 0 0.84 0 0.04 0.84 0 0.08 0.84 0 0.12 0.84 0 0.16 0.84 0 0.2 0.84 0 0.24 0.84 0 0.28 0.84 0 0.32 0.84 0 0.36 0.84 0 0.4 0.84 0 0.44 0.84 0 0.48 0.84 0 0.52 0.84 0 0.56 0.84 0 0.6 0.84 0 0.64 0.84 0 0.68 0.84 0 0.72 0.84 0 0.76 0.84 0 0.8 0.84 0 0.84 0.84 0 0.88 0.84 0 0.92 0.84 0 0.96 0.84 0 1 0.84 0 1.04 0.84 0 1.08 0.84 0 1.12 0.84 0 1.16 0.84 0 1.2 0.84 0 0 0.88 0 0.04 0.88 0 0.08 0.88 0 0.12 0.88 0 0.16 0.88 0 0.2 0.88 0 0.24 0.88 0 0.28 0.88 0 0.32 0.88 0 0.36 0.88 0 0.4 0.88 0 0.44 0.88 0 0.48 0.88 0 0.52 0.88 0 0.56 0.88 0 0.6 0.88 0 0.64 0.88 0 0.68 0.88 0 0.72 0.88 0 0.76 0.88 0 0.8 0.88 0 0.84 0.88 0 0.88 0.88 0 0.92 0.88 0 0.96 0.88 0 1 0.88 0 1.04 0.88 0 1.08 0.88 0 1.12 0.88 0 1.16 0.88 0 1.2 0.88 0 0 0.92 0 0.04 0.92 0 0.08 0.92 0 0.12 0.92 0 0.16 0.92 0 0.2 0.92 0 0.24 0.92 0 0.28 0.92 0 0.32 0.92 0 0.36 0.92 0 0.4 0.92 0 0.44 0.92 0 0.48 0.92 0 0.52 0.92 0 0.56 0.92 0 0.6 0.92 0 0.64 0.92 0 0.68 0.92 0 0.72 0.92 0 0.76 0.92 0 0.8 0.92 0 0.84 0.92 0 0.88 0.92 0 0.92 0.92 0 0.96 0.92 0 1 0.92 0 1.04 0.92 0 1.08 0.92 0 1.12 0.92 0 1.16 0.92 0 1.2 0.92 0 0 0.96 0 0.04 0.96 0 0.08 0.96 0 0.12 0.96 0 0.16 0.96 0 0.2 0.96 0 0.24 0.96 0 0.28 0.96 0 0.32 0.96 0 0.36 0.96 0 0.4 0.96 0 0.44 0.96 0 0.48 0.96 0 0.52 0.96 0 0.56 0.96 0 0.6 0.96 0 0.64 0.96 0 0.68 0.96 0 0.72 0.96 0 0.76 0.96 0 0.8 0.96 0 0.84 0.96 0 0.88 0.96 0 0.92 0.96 0 0.96 0.96 0 1 0.96 0 1.04 0.96 0 1.08 0.96 0 1.12 0.96 0 1.16 0.96 0 1.2 0.96 0 0 1 0 0.04 1 0 0.08 1 0 0.12 1 0 0.16 1 0 0.2 1 0 0.24 1 0 0.28 1 0 0.32 1 0 0.36 1 0 0.4 1 0 0.44 1 0 0.48 1 0 0.52 1 0 0.56 1 0 0.6 1 0 0.64 1 0 0.68 1 0 0.72 1 0 0.76 1 0 0.8 1 0 0.84 1 0 0.88 1 0 0.92 1 0 0.96 1 0 1 1 0 1.04 1 0 1.08 1 0 1.12 1 0 1.16 1 0 1.2 1 0 0 1.04 0 0.04 1.04 0 0.08 1.04 0 0.12 1.04 0 0.16 1.04 0 0.2 1.04 0 0.24 1.04 0 0.28 1.04 0 0.32 1.04 0 0.36 1.04 0 0.4 1.04 0 0.44 1.04 0 0.48 1.04 0 0.52 1.04 0 0.56 1.04 0 0.6 1.04 0 0.64 1.04 0 0.68 1.04 0 0.72 1.04 0 0.76 1.04 0 0.8 1.04 0 0.84 1.04 0 0.88 1.04 0 0.92 1.04 0 0.96 1.04 0 1 1.04 0 1.04 1.04 0 1.08 1.04 0 1.12 1.04 0 1.16 1.04 0 1.2 1.04 0 0 1.08 0 0.04 1.08 0 0.08 1.08 0 0.12 1.08 0 0.16 1.08 0 0.2 1.08 0 0.24 1.08 0 0.28 1.08 0 0.32 1.08 0 0.36 1.08 0 0.4 1.08 0 0.44 1.08 0 0.48 1.08 0 0.52 1.08 0 0.56 1.08 0 0.6 1.08 0 0.64 1.08 0 0.68 1.08 0 0.72 1.08 0 0.76 1.08 0 0.8 1.08 0 0.84 1.08 0 0.88 1.08 0 0.92 1.08 0 0.96 1.08 0 1 1.08 0 1.04 1.08 0 1.08 1.08 0 1.12 1.08 0 1.16 1.08 0 1.2 1.08 0 0 1.12 0 
[...]
			<PointData Scalars="VitesseX">
				<DataArray Name="VitesseX" type="Float32" format="ascii">
 0 -0.0434946 -0.0767385 -0.00659684 0.129529 0.276111 0.371366 0.414798 0.396442 0.365964 0.339003 0.32323 0.331747 0.361591 0.409227 0.468288 0.530322 0.593196 0.654683 0.711795 0.767288 0.813712 0.861143 0.902572 0.897237 0.785008 0.471372 0.0659249 -0.122159 -0.0791984 0 0 0.0620116 0.0745747 0.120994 0.202256 0.289903 0.366709 0.373005 0.341307 0.304158 0.284967 0.286804 0.304369 0.34088 0.39484 0.458071 0.523335 0.588789 0.651988 0.709784 0.765069 0.811026 0.858064 0.899447 0.89438 0.782909 0.470772 0.0665655 -0.121834 -0.0792547 0 0 0.00806163 0.0146675 0.0179074 0.0277018 0.0559694 0.0829191 0.115769 0.140819 0.159381 0.173812 0.196224 0.233907 0.287853 0.355866 0.429911 0.502735 0.574194 0.641495 0.701201 0.756601 0.802274 0.849127 0.891112 0.887266 0.778632 0.471138 0.0699731 -0.120266 -0.0793153 0 0 -0.0660604 -0.0965968 -0.102947 -0.107053 -0.114183 -0.112037 -0.0891974 -0.0387661 0.00716314 0.0520173 0.101395 0.160218 0.22706 0.302141 0.382951 0.463532 0.54153 0.614566 0.677822 0.735586 0.783078 0.831614 0.876086 0.875126 0.772267 0.473561 0.077564 -0.116738 -0.0793532 0 0 -0.105781 -0.151551 -0.164039 -0.176379 -0.188404 -0.19041 -0.161006 -0.11514 -0.0609302 -0.00953421 0.0476589 0.109331 0.176268 0.247223 0.324502 0.4062 0.487798 0.565338 0.633023 0.695888 0.747965 0.800968 0.850781 0.855119 0.761944 0.478132 0.0914018 -0.109657 -0.0792686 0 0 -0.104342 -0.15738 -0.179641 -0.18671 -0.191476 -0.184259 -0.163966 -0.12736 -0.0824493 -0.0287781 0.0265145 0.0843047 0.144002 0.206614 0.274017 0.347605 0.423528 0.499475 0.569935 0.637531 0.69497 0.753998 0.81099 0.823227 0.743935 0.484026 0.114384 -0.0955225 -0.0786724 0 0 -0.0819685 -0.133944 -0.144456 -0.132175 -0.114826 -0.111978 -0.107263 -0.0936649 -0.0610632 -0.0162633 0.0319774 0.0821882 0.133279 0.184289 0.238723 0.299786 0.365743 0.432487 0.498714 0.565371 0.626493 0.690757 0.753133 0.774232 0.712461 0.488204 0.149693 -0.0682982 -0.0751644 0 0 -0.0328131 -0.0600287 -0.0622374 -0.0346554 -0.00862953 0.00738335 0.00272309 -0.00463457 0.00130157 0.0257394 0.0613995 0.0998328 0.139617 0.178843 0.219522 0.265387 0.318352 0.37451 0.433021 0.491604 0.550348 0.615273 0.676518 0.703045 0.66067 0.484691 0.197972 -0.0193165 -0.0603926 0 0 0.0387774 0.061962 0.0656044 0.074057 0.0838846 0.101897 0.11534 0.106796 0.0948033 0.0941454 0.108762 0.131772 0.158347 0.185338 0.212096 0.243505 0.282034 0.326857 0.376494 0.42609 0.479742 0.537535 0.585693 0.610079 0.584899 0.465889 0.253295 0.0577006 -0.0178529 0 0 0.0846259 0.14624 0.162123 0.156386 0.152055 0.154964 0.169372 0.183261 0.176759 0.161906 0.154247 0.161405 0.174189 0.192588 0.209004 0.228887 0.254048 0.288146 0.327722 0.371315 0.421643 0.466208 0.496576 0.508803 0.492514 0.426551 0.299533 0.15576 0.0644371 0 0 0.0871491 0.15542 0.178058 0.173806 0.165 0.16022 0.166251 0.180029 0.192888 0.192355 0.184171 0.174312 0.176797 0.183971 0.19921 0.212822 0.229568 0.253968 0.284694 0.325217 0.370035 0.404033 0.420662 0.417556 0.398944 0.368441 0.314424 0.239982 0.171815 0 0 0.0816964 0.142461 0.164946 0.160883 0.148634 0.137825 0.134973 0.14419 0.157932 0.168963 0.166906 0.159328 0.149348 0.15044 0.160306 0.176384 0.195733 0.217112 0.244382 0.281356 0.319062 0.346612 0.355932 0.341857 0.313559 0.29731 0.288407 0.264129 0.238961 0 0 0.0662177 0.111496 0.129293 0.121045 0.103275 0.0867966 0.077642 0.0798974 0.092592 0.105731 0.116203 0.114373 0.104114 0.093249 0.0913638 0.10561 0.130715 0.159356 0.192038 0.227827 0.261181 0.28441 0.291043 0.276025 0.238346 0.217816 0.222285 0.22347 0.231719 0 0 0.0424475 0.0707265 0.0760306 0.0594454 0.0357381 0.0161775 0.00538446 0.00546741 0.013588 0.0270202 0.0379654 0.0428165 0.0375923 0.0233399 0.0114238 0.0115508 0.0292428 0.0630256 0.103258 0.143893 0.178845 0.200773 0.207689 0.197878 0.163137 0.130502 0.12682 0.133633 0.169691 0 0 0.0177349 0.0256084 0.0142588 -0.0122485 -0.0418064 -0.0633325 -0.0709966 -0.0677172 -0.0592768 -0.0522137 -0.0473511 -0.0469325 -0.0555518 -0.0701996 -0.0877032 -0.10126 -0.0999638 -0.0759434 -0.0353531 0.0089794 0.0477009 0.0730647 0.0819297 0.0805326 0.0639944 0.0338543 0.0189213 0.0269451 0.0836116 0 0 -0.00533697 -0.0214401 -0.0534132 -0.094697 -0.130547 -0.148158 -0.147701 -0.136467 -0.123131 -0.117398 -0.123442 -0.138768 -0.158891 -0.184163 -0.216187 -0.243439 -0.255938 -0.249591 -0.222028 -0.184099 -0.148517 -0.118586 -0.0986159 -0.0851828 -0.0732049 -0.0771564 -0.0858554 -0.0658936 -0.00269942 0 0 -0.0254837 -0.0617544 -0.111923 -0.163597 -0.199113 -0.213874 -0.211687 -0.197754 -0.180804 -0.171227 -0.182734 -0.214399 -0.254067 -0.305049 -0.362001 -0.414139 -0.447948 -0.459151 -0.457579 -0.446127 -0.423493 -0.386258 -0.338542 -0.293938 -0.250023 -0.214215 -0.185036 -0.135267 -0.083732 0 0 -0.0393786 -0.0870971 -0.141933 -0.190291 -0.222174 -0.237071 -0.238302 -0.230947 -0.219779 -0.213883 -0.225205 -0.265584 -0.329815 -0.411302 -0.499796 -0.58262 -0.646553 -0.68731 -0.7142 -0.726234 -0.714224 -0.66907 -0.603471 -0.518364 -0.438984 -0.356701 -0.270082 -0.187767 -0.145456 0 0 -0.0488293 -0.0997813 -0.149659 -0.191715 -0.221254 -0.235665 -0.238572 -0.234511 -0.230451 -0.231341 -0.252497 -0.297615 -0.377619 -0.489896 -0.61102 -0.72206 -0.807951 -0.87327 -0.922168 -0.944484 -0.937599 -0.886158 -0.800263 -0.690571 -0.579901 -0.4614 -0.336743 -0.232161 -0.174057 0 0 -0.0561653 -0.105321 -0.14697 -0.182055 -0.206463 -0.219358 -0.223096 -0.221997 -0.221733 -0.229243 -0.256295 -0.310902 -0.405287 -0.537485 -0.685967 -0.820688 -0.924255 -1.00506 -1.06051 -1.08391 -1.07247 -1.00977 -0.906252 -0.787082 -0.65961 -0.52178 -0.383446 -0.263541 -0.177158 0 0 -0.0617809 -0.105349 -0.135621 -0.157152 -0.172554 -0.183375 -0.188965 -0.191393 -0.19653 -0.210682 -0.245606 -0.308052 -0.414349 -0.564548 -0.730162 -0.882142 -1.00007 -1.0857 -1.13606 -1.15218 -1.12643 -1.05589 -0.947252 -0.826088 -0.692893 -0.548474 -0.406705 -0.276429 -0.166241 0 0 -0.0632917 -0.0995868 -0.112956 -0.117255 -0.121592 -0.130743 -0.143049 -0.153975 -0.164835 -0.184023 -0.225844 -0.297062 -0.413937 -0.576326 -0.757227 -0.919646 -1.04388 -1.12728 -1.16642 -1.17132 -1.13551 -1.06141 -0.953312 -0.83252 -0.698883 -0.554489 -0.411907 -0.275886 -0.148379 0 0 -0.0577666 -0.0827991 -0.0783182 -0.0670239 -0.0597717 -0.0699357 -0.0950136 -0.121754 -0.146062 -0.176819 -0.221129 -0.29355 -0.415412 -0.590294 -0.778189 -0.941241 -1.0614 -1.13883 -1.16334 -1.14127 -1.099 -1.03284 -0.93969 -0.8216 -0.690622 -0.550766 -0.407959 -0.267127 -0.134225 0 0 -0.0396422 -0.0511834 -0.0343192 -0.0123619 -0.00725886 -0.0220587 -0.0566171 -0.0999908 -0.140844 -0.180011 -0.229687 -0.306332 -0.428092 -0.608852 -0.801761 -0.94821 -1.03951 -1.07453 -1.07353 -1.04566 -1.01316 -0.967698 -0.896416 -0.795459 -0.672697 -0.539188 -0.398233 -0.25925 -0.129572 0 0 -0.00957502 -0.0045113 0.0181975 0.0326015 0.0281165 0.0017136 -0.0427993 -0.0973087 -0.150088 -0.201182 -0.258325 -0.33948 -0.464326 -0.642321 -0.824107 -0.947995 -1.00465 -1.00097 -0.968002 -0.936224 -0.908397 -0.876534 -0.829307 -0.753854 -0.651662 -0.526121 -0.392072 -0.258213 -0.134059 0 0 0.0245042 0.0483228 0.0611316 0.0640821 0.0448433 0.0068751 -0.0466689 -0.11382 -0.188068 -0.25462 -0.315265 -0.393461 -0.525825 -0.708769 -0.865421 -0.953266 -0.979179 -0.935264 -0.881913 -0.847287 -0.818858 -0.790334 -0.753063 -0.699546 -0.61833 -0.515403 -0.392522 -0.265986 -0.139706 0 0 0.0505437 0.0786257 0.0855636 0.0730489 0.0460007 -0.00143567 -0.0686528 -0.159746 -0.259104 -0.34213 -0.406386 -0.478939 -0.607797 -0.791294 -0.927104 -0.975784 -0.967215 -0.891359 -0.825351 -0.783059 -0.748042 -0.71453 -0.679217 -0.635487 -0.577953 -0.498413 -0.396714 -0.276684 -0.151249 0 0 0.0582365 0.0944642 0.0801402 0.0604494 0.0244807 -0.0303464 -0.10813 -0.210633 -0.333173 -0.44122 -0.523345 -0.603614 -0.725725 -0.880125 -0.976623 -0.999999 -0.966611 -0.878476 -0.800676 -0.740403 -0.690144 -0.646637 -0.608206 -0.571585 -0.528192 -0.472494 -0.391183 -0.281804 -0.170815 0 0 0.103747 0.0582143 0.0294808 0.00791019 -0.0215859 -0.0657784 -0.128671 -0.223821 -0.35203 -0.501302 -0.640932 -0.76998 -0.904252 -1.01567 -1.06715 -1.0676 -1.01347 -0.907052 -0.797908 -0.707587 -0.63524 -0.579158 -0.535514 -0.498732 -0.460689 -0.411948 -0.352857 -0.293738 -0.146003 0 0 -0.34578 -0.0884627 -0.0482172 -0.0421703 -0.0494028 -0.0748451 -0.116734 -0.183429 -0.301853 -0.476877 -0.688784 -0.907058 -1.09241 -1.2082 -1.2487 -1.2129 -1.08372 -0.907334 -0.745855 -0.615212 -0.515982 -0.443646 -0.391732 -0.351164 -0.311494 -0.269219 -0.228125 -0.188107 -0.161346 0 0 0 0 0 0 0 0 0 0 0 0 0 0 0 0 0 0 0 0 0 0 0 0 0 0 0 0 0 0 0 0
				</DataArray>
				<DataArray Name="VitesseY" type="Float32" format="ascii">
 0 0 0 0 0 0 0 0 0 0 0 0 0 0 0 0 0 0 0 0 0 0 0 0 0 0 0 0 0 0 0 -0.023833 0.0827016 0.015367 -0.054664 -0.0856192 -0.0716066 -0.0235559 0.050504 0.0759777 0.0678396 0.0545146 0.0357297 0.0148096 -0.00429085 -0.0207129 -0.0267785 -0.0277376 -0.0272009 -0.0254662 -0.022513 -0.0187505 -0.014856 -0.0115435 -0.00857985 -0.0062713 -0.00550177 -0.00630865 -0.00648155 -0.00574932 -0.00523103 0 -0.0435137 0.109721 0.0465627 -0.0582582 -0.0959373 -0.100144 -0.021798 0.0863386 0.123373 0.11514 0.0880927 0.0542364 0.0174064 -0.0203607 -0.0498511 -0.060086 -0.0604124 -0.0582982 -0.0530794 -0.0455562 -0.0369101 -0.0294507 -0.023281 -0.017939 -0.0138451 -0.0126582 -0.0142707 -0.0139965 -0.011794 -0.0104448 0 0.0307737 0.170822 0.0866689 -0.0179759 -0.0648472 -0.0753105 0.00107615 0.0846599 0.125886 0.124426 0.0953618 0.0509977 0.000640808 -0.0480919 -0.0889723 -0.101383 -0.100828 -0.0952939 -0.0847661 -0.0706429 -0.0559235 -0.0449021 -0.0364378 -0.0295493 -0.0244456 -0.0231515 -0.0253448 -0.023522 -0.0184554 -0.0156592 0 0.175776 0.27488 0.136243 0.0285095 -0.0176717 -0.0264516 0.029078 0.0807678 0.109969 0.116016 0.0833716 0.0318212 -0.025349 -0.0796984 -0.127798 -0.146869 -0.146683 -0.138318 -0.121602 -0.0997112 -0.0788117 -0.0638494 -0.053375 -0.0457549 -0.0406289 -0.0396718 -0.041899 -0.036903 -0.0264975 -0.021034 0 0.349493 0.388539 0.198672 0.0781562 0.029033 0.0207507 0.0531579 0.083648 0.100456 0.102292 0.0672255 0.0110015 -0.0495699 -0.107703 -0.158967 -0.188016 -0.19113 -0.182326 -0.161902 -0.133996 -0.107358 -0.0887008 -0.0764139 -0.0690246 -0.065538 -0.0661565 -0.068236 -0.057852 -0.0378269 -0.0268998 0 0.498802 0.502918 0.266734 0.120056 0.0591906 0.0547872 0.0858609 0.101908 0.107877 0.0926205 0.0534956 -0.00431737 -0.067397 -0.127878 -0.179791 -0.218444 -0.227404 -0.220612 -0.200282 -0.170039 -0.140723 -0.119636 -0.105979 -0.100398 -0.1016 -0.106772 -0.11056 -0.0935175 -0.0579507 -0.035299 0 0.598693 0.595273 0.331039 0.145835 0.070474 0.0769764 0.121116 0.142726 0.136293 0.100566 0.0506008 -0.0115616 -0.0758749 -0.137692 -0.190689 -0.234046 -0.252955 -0.249584 -0.23203 -0.202403 -0.173597 -0.152889 -0.139694 -0.138602 -0.147126 -0.164218 -0.174422 -0.1543 -0.0986527 -0.0522509 0 0.644179 0.621197 0.386605 0.166075 0.0913096 0.0968544 0.143533 0.187259 0.182769 0.134845 0.0660044 -0.00450343 -0.0733357 -0.136306 -0.191167 -0.236215 -0.265258 -0.268725 -0.255985 -0.229248 -0.200679 -0.182175 -0.173119 -0.176317 -0.197763 -0.233808 -0.259486 -0.247169 -0.178549 -0.0955924 0 0.626689 0.59255 0.407659 0.202788 0.128612 0.130562 0.164849 0.213489 0.226143 0.183718 0.105785 0.0194559 -0.0578947 -0.12526 -0.18258 -0.228787 -0.265765 -0.278793 -0.272582 -0.251935 -0.223072 -0.206488 -0.203049 -0.212392 -0.244916 -0.299041 -0.35071 -0.364824 -0.30946 -0.20156 0 0.581799 0.542664 0.404792 0.243902 0.174112 0.174224 0.198542 0.234287 0.251579 0.225186 0.15063 0.0597775 -0.0298368 -0.106173 -0.169819 -0.220326 -0.260131 -0.284398 -0.28538 -0.273154 -0.247044 -0.232431 -0.232894 -0.246993 -0.284673 -0.347383 -0.422427 -0.478353 -0.478313 -0.391769 0 0.537668 0.494839 0.400354 0.280069 0.222431 0.222677 0.240714 0.262791 0.273226 0.248041 0.186708 0.0996533 0.00863027 -0.0808444 -0.156628 -0.218368 -0.263294 -0.294667 -0.307824 -0.301841 -0.284138 -0.270989 -0.272714 -0.28883 -0.32412 -0.384358 -0.469833 -0.563592 -0.645886 -0.64521 0 0.495832 0.46562 0.400459 0.316026 0.275141 0.275456 0.289465 0.29958 0.296189 0.268233 0.208579 0.130736 0.0421649 -0.0511154 -0.143183 -0.223728 -0.286973 -0.326817 -0.348718 -0.35151 -0.343657 -0.333163 -0.336312 -0.35447 -0.385843 -0.435754 -0.517292 -0.63414 -0.786795 -0.9007 0 0.471868 0.457639 0.411477 0.358389 0.3335 0.333977 0.341234 0.3398 0.324246 0.286367 0.226158 0.148561 0.0649965 -0.028558 -0.131323 -0.231625 -0.317916 -0.382699 -0.419711 -0.437568 -0.440704 -0.439153 -0.443221 -0.461793 -0.49801 -0.547129 -0.616218 -0.732455 -0.913893 -1.10248 0 0.47698 0.468833 0.440149 0.41199 0.398875 0.39641 0.393408 0.37823 0.350739 0.308263 0.242961 0.163187 0.0780645 -0.0185141 -0.125534 -0.241167 -0.356481 -0.455272 -0.52423 -0.562426 -0.582033 -0.593646 -0.606736 -0.627246 -0.663085 -0.720512 -0.785468 -0.870468 -1.01555 -1.2165 0 0.506574 0.502855 0.490354 0.480681 0.473261 0.461717 0.439634 0.409315 0.373252 0.326579 0.264935 0.182899 0.0899182 -0.011753 -0.126356 -0.259206 -0.401907 -0.533192 -0.636653 -0.703741 -0.742193 -0.76725 -0.789219 -0.809248 -0.82973 -0.867134 -0.918351 -0.964097 -1.06038 -1.24998 0 0.557524 0.559137 0.562374 0.565828 0.555358 0.524189 0.481385 0.434495 0.388139 0.341076 0.285558 0.209185 0.110564 0.0017313 -0.126402 -0.275364 -0.444248 -0.606774 -0.73863 -0.831124 -0.888272 -0.922989 -0.942519 -0.946162 -0.942795 -0.945203 -0.964591 -0.986159 -1.05672 -1.20895 0 0.625632 0.632563 0.648992 0.659287 0.636262 0.583947 0.522135 0.461125 0.404883 0.353173 0.301108 0.235762 0.143557 0.0263531 -0.113258 -0.278734 -0.469918 -0.663022 -0.816976 -0.927414 -0.998894 -1.03883 -1.05474 -1.02928 -0.991891 -0.964663 -0.952933 -0.952296 -1.0025 -1.07964 0 0.706818 0.715931 0.740516 0.748745 0.712749 0.642355 0.563993 0.490568 0.425993 0.370371 0.319306 0.261423 0.179014 0.0663845 -0.0822106 -0.261626 -0.474104 -0.694021 -0.873113 -0.999244 -1.07583 -1.11472 -1.12364 -1.05602 -0.983397 -0.91918 -0.877311 -0.865677 -0.897624 -0.902414 0 0.798624 0.805504 0.826779 0.82946 0.784294 0.698433 0.605208 0.52136 0.45101 0.393338 0.341696 0.288286 0.217122 0.112644 -0.0344441 -0.22536 -0.462801 -0.711795 -0.913849 -1.04804 -1.12111 -1.15014 -1.14481 -1.0545 -0.950945 -0.866346 -0.811306 -0.78842 -0.788625 -0.740056 0 0.901554 0.897664 0.905658 0.900287 0.845668 0.750015 0.647177 0.554179 0.478578 0.419785 0.370716 0.322581 0.258393 0.161159 0.0183923 -0.179195 -0.441299 -0.718374 -0.932661 -1.06864 -1.13522 -1.15422 -1.12431 -1.02941 -0.922071 -0.834627 -0.771725 -0.730849 -0.700321 -0.610073 0 1.0128 0.988262 0.971797 0.954272 0.894139 0.795878 0.691536 0.591308 0.510448 0.453031 0.40931 0.36268 0.300066 0.207089 0.0673436 -0.133609 -0.412276 -0.703995 -0.925506 -1.05848 -1.11185 -1.1208 -1.08526 -1.00053 -0.897318 -0.809551 -0.740211 -0.683645 -0.630088 -0.512027 0 1.12691 1.07876 1.02449 0.992033 0.926244 0.83352 0.740505 0.640799 0.556072 0.497249 0.449976 0.399776 0.335953 0.243932 0.105002 -0.0952865 -0.372914 -0.659861 -0.87806 -1.00201 -1.04823 -1.05428 -1.02508 -0.960179 -0.869528 -0.784232 -0.709531 -0.642653 -0.575924 -0.440986 0 1.22633 1.16073 1.05686 1.01001 0.947123 0.869596 0.795248 0.706937 0.615725 0.542028 0.482423 0.426742 0.358637 0.264368 0.125851 -0.0684397 -0.328153 -0.600958 -0.79868 -0.903507 -0.943984 -0.949825 -0.93598 -0.892234 -0.825623 -0.749628 -0.676208 -0.60565 -0.53345 -0.390041 0 1.29909 1.22552 1.0846 1.02909 0.977801 0.919197 0.859388 0.781007 0.678134 0.579915 0.501571 0.433303 0.361529 0.26608 0.129033 -0.0572675 -0.286231 -0.521774 -0.695066 -0.788868 -0.825889 -0.831406 -0.820082 -0.79387 -0.752083 -0.697777 -0.634238 -0.570275 -0.497482 -0.350289 0 1.34495 1.26543 1.11258 1.05055 1.00485 0.955556 0.900243 0.826992 0.720258 0.603367 0.502403 0.417265 0.33604 0.241105 0.112252 -0.0510866 -0.249977 -0.445464 -0.585175 -0.662918 -0.694912 -0.699904 -0.690469 -0.67236 -0.65104 -0.617833 -0.577406 -0.527774 -0.460341 -0.311175 0 1.34756 1.26333 1.10679 1.03967 0.99135 0.941294 0.883849 0.812353 0.710393 0.592619 0.485698 0.388586 0.294345 0.192567 0.0755527 -0.0599492 -0.217325 -0.365487 -0.468567 -0.526287 -0.551155 -0.55643 -0.552082 -0.539403 -0.526284 -0.515416 -0.498376 -0.47243 -0.411963 -0.26918 0 1.28222 1.18024 1.0268 0.94217 0.868093 0.807841 0.742811 0.680624 0.60615 0.523203 0.443961 0.365006 0.271969 0.160592 0.0392054 -0.0777468 -0.186501 -0.275776 -0.342737 -0.388218 -0.409813 -0.413949 -0.409229 -0.398922 -0.392414 -0.392712 -0.396796 -0.391281 -0.352981 -0.228259 0 0.94776 0.93157 0.794827 0.66772 0.564093 0.493688 0.436387 0.403987 0.385888 0.379259 0.369827 0.332885 0.255569 0.14519 0.0298751 -0.0670301 -0.138341 -0.191332 -0.235968 -0.267032 -0.278913 -0.277591 -0.268124 -0.259949 -0.258662 -0.266138 -0.276774 -0.28189 -0.293843 -0.188259 0 0.708527 0.2234 0.41003 0.275135 0.178676 0.158995 0.121389 0.129284 0.147149 0.206641 0.262814 0.280257 0.240902 0.164492 0.0754787 -0.00936504 -0.088451 -0.148177 -0.175313 -0.177775 -0.166748 -0.149089 -0.134989 -0.130169 -0.134439 -0.139901 -0.151309 -0.170863 -0.14604 -0.16142 0 5.52871 0 0 0 0 0 0 0 0 0 0 0 0 0 0 0 0 0 0 0 0 0 0 0 0 0 0 0 0 0 0
				</DataArray>
			</PointData>
			<CellData Scalars="Density">
				<DataArray Name="Density" type="Float32" format="ascii">