<?xml version="1.0"?>
<VTKFile type="PolyData">
	<PolyData>
		<Piece NumberOfPoints="961" NumberOfPolys="900">
			<Points>
				<DataArray type="Float32" NumberOfComponents="3" format="ascii">
 0 0 0 0.04 0 0 0.08 0 0 0.12 0 0 0.16 0 0 0.2 0 0 0.24 0 0 0.28 0 0 0.32 0 0 0.36 0 0 0.4 0 0 0.44 0 0 0.48 0 0 0.52 0 0 0.56 0 0 0.6 0 0 0.64 0 0 0.68 0 0 0.72 0 0 0.76 0 0 0.8 0 0 0.84 0 0 0.88 0 0 0.92 0 0 0.96 0 0 1 0 0 1.04 0 0 1.08 0 0 1.12 0 0 1.16 0 0 1.2 0 0 0 0.04 0 0.04 0.04 0 0.08 0.04 0 0.12 0.04 0 0.16 0.04 0 0.2 0.04 0 0.24 0.04 0 0.28 0.04 0 0.32 0.04 0 0.36 0.04 0 0.4 0.04 0 0.44 0.04 0 0.48 0.04 0 0.52 0.04 0 0.56 0.04 0 0.6 0.04 0 0.64 0.04 0 0.68 0.04 0 0.72 0.04 0 0.76 0.04 0 0.8 0.04 0 0.84 0.04 0 0.88 0.04 0 0.92 0.04 0 0.96 0.04 0 1 0.04 0 1.04 0.04 0 1.08 0.04 0 1.12 0.04 0 1.16 0.04 0 1.2 0.04 0 0 0.08 0 0.04 0.08 0 0.08 0.08 0 0.12 0.08 0 0.16 0.08 0 0.2 0.08 0 0.24 0.08 0 0.28 0.08 0 0.32 0.08 0 0.36 0.08 0 0.4 0.08 0 0.44 0.08 0 0.48 0.08 0 0.52 0.08 0 0.56 0.08 0 0.6 0.08 0 0.64 0.08 0 0.68 0.08 0 0.72 0.08 0 0.76 0.08 0 0.8 0.08 0 0.84 0.08 0 0.88 0.08 0 0.92 0.08 0 0.96 0.08 0 1 0.08 0 1.04 0.08 0 1.08 0.08 0 1.12 0.08 0 1.16 0.08 0 1.2 0.08 0 0 0.12 0 0.04 0.12 0 0.08 0.12 0 0.12 0.12 0 0.16 0.12 0 0.2 0.12 0 0.24 0.12 0 0.28 0.12 0 0.32 0.12 0 0.36 0.12 0 0.4 0.12 0 0.44 0.12 0 0.48 0.12 0 0.52 0.12 0 0.56 0.12 0 0.6 0.12 0 0.64 0.12 0 0.68 0.12 0 0.72 0.12 0 0.76 0.12 0 0.8 0.12 0 0.84 0.12 0 0.88 0.12 0 0.92 0.12 0 0.96 0.12 0 1 0.12 0 1.04 0.12 0 1.08 0.12 0 1.12 0.12 0 1.16 0.12 0 1.2 0.12 0 0 0.16 0 0.04 0.16 0 0.08 0.16 0 0.12 0.16 0 0.16 0.16 0 0.2 0.16 0 0.24 0.16 0 0.28 0.16 0 0.32 0.16 0 0.36 0.16 0 0.4 0.16 0 0.44 0.16 0 0.48 0.16 0 0.52 0.16 0 0.56 0.16 0 0.6 0.16 0 0.64 0.16 0 0.68 0.16 0 0.72 0.16 0 0.76 0.16 0 0.8 0.16 0 0.84 0.16 0 0.88 0.16 0 0.92 0.16 0 0.96 0.16 0 1 0.16 0 1.04 0.16 0 1.08 0.16 0 1.12 0.16 0 1.16 0.16 0 1.2 0.16 0 0 0.2 0 0.04 0.2 0 0.08 0.2 0 0.12 0.2 0 0.16 0.2 0 0.2 0.2 0 0.24 0.2 0 0.28 0.2 0 0.32 0.2 0 0.36 0.2 0 0.4 0.2 0 0.44 0.2 0 0.48 0.2 0 0.52 0.2 0 0.56 0.2 0 0.6 0.2 0 0.64 0.2 0 0.68 0.2 0 0.72 0.2 0 0.76 0.2 0 0.8 0.2 0 0.84 0.2 0 0.88 0.2 0 0.92 0.2 0 0.96 0.2 0 1 0.2 0 1.04 0.2 0 1.08 0.2 0 1.12 0.2 0 1.16 0.2 0 1.2 0.2 0 0 0.24 0 0.04 0.24 0 0.08 0.24 0 0.12 0.24 0 0.16 0.24 0 0.2 0.24 0 0.24 0.24 0 0.28 0.24 0 0.32 0.24 0 0.36 0.24 0 0.4 0.24 0 0.44 0.24 0 0.48 0.24 0 0.52 0.24 0 0.56 0.24 0 0.6 0.24 0 0.64 0.24 0 0.68 0.24 0 0.72 0.24 0 0.76 0.24 0 0.8 0.24 0 0.84 0.24 0 0.88 0.24 0 0.92 0.24 0 0.96 0.24 0 1 0.24 0 1.04 0.24 0 1.08 0.24 0 1.12 0.24 0 1.16 0.24 0 1.2 0.24 0 0 0.28 0 0.04 0.28 0 0.08 0.28 0 0.12 0.28 0 0.16 0.28 0 0.2 0.28 0 0.24 0.28 0 0.28 0.28 0 0.32 0.28 0 0.36 0.28 0 0.4 0.28 0 0.44 0.28 0 0.48 0.28 0 0.52 0.28 0 0.56 0.28 0 0.6 0.28 0 0.64 0.28 0 0.68 0.28 0 0.72 0.28 0 0.76 0.28 0 0.8 0.28 0 0.84 0.28 0 0.88 0.28 0 0.92 0.28 0 0.96 0.28 0 1 0.28 0 1.04 0.28 0 1.08 0.28 0 1.12 0.28 0 1.16 0.28 0 1.2 0.28 0 0 0.32 0 0.04 0.32 0 0.08 0.32 0 0.12 0.32 0 0.16 0.32 0 0.2 0.32 0 0.24 0.32 0 0.28 0.32 0 0.32 0.32 0 0.36 0.32 0 0.4 0.32 0 0.44 0.32 0 0.48 0.32 0 0.52 0.32 0 0.56 0.32 0 0.6 0.32 0 0.64 0.32 0 0.68 0.32 0 0.72 0.32 0 0.76 0.32 0 0.8 0.32 0 0.84 0.32 0 0.88 0.32 0 0.92 0.32 0 0.96 0.32 0 1 0.32 0 1.04 0.32 0 1.08 0.32 0 1.12 0.32 0 1.16 0.32 0 1.2 0.32 0 0 0.36 0 0.04 0.36 0 0.08 0.36 0 0.12 0.36 0 0.16 0.36 0 0.2 0.36 0 0.24 0.36 0 0.28 0.36 0 0.32 0.36 0 0.36 0.36 0 0.4 0.36 0 0.44 0.36 0 0.48 0.36 0 0.52 0.36 0 0.56 0.36 0 0.6 0.36 0 0.64 0.36 0 0.68 0.36 0 0.72 0.36 0 0.76 0.36 0 0.8 0.36 0 0.84 0.36 0 0.88 0.36 0 0.92 0.36 0 0.96 0.36 0 1 0.36 0 1.04 0.36 0 1.08 0.36 0 1.12 0.36 0 1.16 0.36 0 1.2 0.36 0 0 0.4 0 0.04 0.4 0 0.08 0.4 0 0.12 0.4 0 0.16 0.4 0 0.2 0.4 0 0.24 0.4 0 0.28 0.4 0 0.32 0.4 0 0.36 0.4 0 0.4 0.4 0 0.44 0.4 0 0.48 0.4 0 0.52 0.4 0 0.56 0.4 0 0.6 0.4 0 0.64 0.4 0 0.68 0.4 0 0.72 0.4 0 0.76 0.4 0 0.8 0.4 0 0.84 0.4 0 0.88 0.4 0 0.92 0.4 0 0.96 0.4 0 1 0.4 0 1.04 0.4 0 1.08 0.4 0 1.12 0.4 0 1.16 0.4 0 1.2 0.4 0 0 0.44 0 0.04 0.44 0 0.08 0.44 0 0.12 0.44 0 0.16 0.44 0 0.2 0.44 0 0.24 0.44 0 0.28 0.44 0 0.32 0.44 0 0.36 0.44 0 0.4 0.44 0 0.44 0.44 0 0.48 0.44 0 0.52 0.44 0 0.56 0.44 0 0.6 0.44 0 0.64 0.44 0 0.68 0.44 0 0.72 0.44 0 0.76 0.44 0 0.8 0.44 0 0.84 0.44 0 0.88 0.44 0 0.92 0.44 0 0.96 0.44 0 1 0.44 0 1.04 0.44 0 1.08 0.44 0 1.12 0.44 0 1.16 0.44 0 1.2 0.44 0 0 0.48 0 0.04 0.48 0 0.08 0.48 0 0.12 0.48 0 0.16 0.48 0 0.2 0.48 0 0.24 0.48 0 0.28 0.48 0 0.32 0.48 0 0.36 0.48 0 0.4 0.48 0 0.44 0.48 0 0.48 0.48 0 0.52 0.48 0 0.56 0.48 0 0.6 0.48 0 0.64 0.48 0 0.68 0.48 0 0.72 0.48 0 0.76 0.48 0 0.8 0.48 0 0.84 0.48 0 0.88 0.48 0 0.92 0.48 0 0.96 0.48 0 1 0.48 0 1.04 0.48 0 1.08 0.48 0 1.12 0.48 0 1.16 0.48 0 1.2 0.48 0 0 0.52 0 0.04 0.52 0 0.08 0.52 0 0.12 0.52 0 0.16 0.52 0 0.2 0.52 0 0.24 0.52 0 0.28 0.52 0 0.32 0.52 0 0.36 0.52 0 0.4 0.52 0 0.44 0.52 0 0.48 0.52 0 0.52 0.52 0 0.56 0.52 0 0.6 0.52 0 0.64 0.52 0 0.68 0.52 0 0.72 0.52 0 0.76 0.52 0 0.8 0.52 0 0.84 0.52 0 0.88 0.52 0 0.92 0.52 0 0.96 0.52 0 1 0.52 0 1.04 0.52 0 1.08 0.52 0 1.12 0.52 0 1.16 0.52 0 1.2 0.52 0 0 0.56 0 0.04 0.56 0 0.08 0.56 0 0.12 0.56 0 0.16 0.56 0 0.2 0.56 0 0.24 0.56 0 0.28 0.56 0 0.32 0.56 0 0.36 0.56 0 0.4 0.56 0 0.44 0.56 0 0.48 0.56 0 0.52 0.56 0 0.56 0.56 0 0.6 0.56 0 0.64 0.56 0 0.68 0.56 0 0.72 0.56 0 0.76 0.56 0 0.8 0.56 0 0.84 0.56 0 0.88 0.56 0 0.92 0.56 0 0.96 0.56 0 1 0.56 0 1.04 0.56 0 1.08 0.56 0 1.12 0.56 0 1.16 0.56 0 1.2 0.56 0 0 0.6 0 0.04 0.6 0 0.08 0.6 0 0.12 0.6 0 0.16 0.6 0 0.2 0.6 0 0.24 0.6 0 0.28 0.6 0 0.32 0.6 0 0.36 0.6 0 0.4 0.6 0 0.44 0.6 0 0.48 0.6 0 0.52 0.6 0 0.56 0.6 0 0.6 0.6 0 0.64 0.6 0 0.68 0.6 0 0.72 0.6 0 0.76 0.6 0 0.8 0.6 0 0.84 0.6 0 0.88 0.6 0 0.92 0.6 0 0.96 0.6 0 1 0.6 0 1.04 0.6 0 1.08 0.6 0 1.12 0.6 0 1.16 0.6 0 1.2 0.6 0 0 0.64 0 0.04 0.64 0 0.08 0.64 0 0.12 0.64 0 0.16 0.64 0 0.2 0.64 0 0.24 0.64 0 0.28 0.64 0 0.32 0.64 0 0.36 0.64 0 0.4 0.64 0 0.44 0.64 0 0.48 0.64 0 0.52 0.64 0 0.56 0.64 0 0.6 0.64 0 0.64 0.64 0 0.68 0.64 0 0.72 0.64 0 0.76 0.64 0 0.8 0.64 0 0.84 0.64 0 0.88 0.64 0 0.92 0.64 0 0.96 0.64 0 1 0.64 0 1.04 0.64 0 1.08 0.64 0 1.12 0.64 0 1.16 0.64 0 1.2 0.64 0 0 0.68 0 0.04 0.68 0 0.08 0.68 0 0.12 0.68 0 0.16 0.68 0 0.2 0.68 0 0.24 0.68 0 0.28 0.68 0 0.32 0.68 0 0.36 0.68 0 0.4 0.68 0 0.44 0.68 0 0.48 0.68 0 0.52 0.68 0 0.56 0.68 0 0.6 0.68 0 0.64 0.68 0 0.68 0.68 0 0.72 0.68 0 0.76 0.68 0 0.8 0.68 0 0.84 0.68 0 0.88 0.68 0 0.92 0.68 0 0.96 0.68 0 1 0.68 0 1.04 0.68 0 1.08 0.68 0 1.12 0.68 0 1.16 0.68 0 1.2 0.68 0 0 0.72 0 0.04 0.72 0 0.08 0.72 0 0.12 0.72 0 0.16 0.72 0 0.2 0.72 0 0.24 0.72 0 0.28 0.72 0 0.32 0.72 0 0.36 0.72 0 0.4 0.72 0 0.44 0.72 0 0.48 0.72 0 0.52 0.72 0 0.56 0.72 0 0.6 0.72 0 0.64 0.72 0 0.68 0.72 0 0.72 0.72 0 0.76 0.72 0 0.8 0.72 0 0.84 0.72 0 0.88 0.72 0 0.92 0.72 0 0.96 0.72 0 1 0.72 0 1.04 0.72 0 1.08 0.72 0 1.12 0.72 0 1.16 0.72 0 1.2 0.72 0 0 0.76 0 0.04 0.76 0 0.08 0.76 0 0.12 0.76 0 0.16 0.76 0 0.2 0.76 0 0.24 0.76 0 0.28 0.76 0 0.32 0.76 0 0.36 0.76 0 0.4 0.76 0 0.44 0.76 0 0.48 0.76 0 0.52 0.76 0 0.56 0.76 0 0.6 0.76 0 0.64 0.76 0 0.68 0.76 0 0.72 0.76 0 0.76 0.76 0 0.8 0.76 0 0.84 0.76 0 0.88 0.76 0 0.92 0.76 0 0.96 0.76 0 1 0.76 0 1.04 0.76 0 1.08 0.76 0 1.12 0.76 0 1.16 0.76 0 1.2 0.76 0 0 0.8 0 0.04 0.8 0 0.08 0.8 0 0.12 0.8 0 0.16 0.8 0 0.2 0.8 0 0.24 0.8 0 0.28 0.8 0 0.32 0.8 0 0.36 0.8 0 0.4 0.8 0 0.44 0.8 0 0.48 0.8 0 0.52 0.8 0 0.56 0.8 0 0.6 0.8 0 0.64 0.8 0 0.68 0.8 0 0.72 0.8 0 0.76 0.8 0 0.8 0.8 0 0.84 0.8 0 0.88 0.8 0 0.92 0.8 0 0.96 0.8 0 1 0.8 0 1.04 0.8 0 1.08 0.8 0 1.12 0.8 0 1.16 0.8 0 1.2 0.8 0 0 0.84 0 0.04 0.84 0 0.08 0.84 0 0.12 0.84 0 0.16 0.84 0 0.2 0.84 0 0.24 0.84 0 0.28 0.84 0 0.32 0.84 0 0.36 0.84 0 0.4 0.84 0 0.44 0.84 0 0.48 0.84 0 0.52 0.84 0 0.56 0.84 0 0.6 0.84 0 0.64 0.84 0 0.68 0.84 0 0.72 0.84 0 0.76 0.84 0 0.8 0.84 0 0.84 0.84 0 0.88 0.84 0 0.92 0.84 0 0.96 0.84 0 1 0.84 0 1.04 0.84 0 1.08 0.84 0 1.12 0.84 0 1.16 0.84 0 1.2 0.84 0 0 0.88 0 0.04 0.88 0 0.08 0.88 0 0.12 0.88 0 0.16 0.88 0 0.2 0.88 0 0.24 0.88 0 0.28 0.88 0 0.32 0.88 0 0.36 0.88 0 0.4 0.88 0 0.44 0.88 0 0.48 0.88 0 0.52 0.88 0 0.56 0.88 0 0.6 0.88 0 0.64 0.88 0 0.68 0.88 0 0.72 0.88 0 0.76 0.88 0 0.8 0.88 0 0.84 0.88 0 0.88 0.88 0 0.92 0.88 0 0.96 0.88 0 1 0.88 0 1.04 0.88 0 1.08 0.88 0 1.12 0.88 0 1.16 0.88 0 1.2 0.88 0 0 0.92 0 0.04 0.92 0 0.08 0.92 0 0.12 0.92 0 0.16 0.92 0 0.2 0.92 0 0.24 0.92 0 0.28 0.92 0 0.32 0.92 0 0.36 0.92 0 0.4 0.92 0 0.44 0.92 0 0.48 0.92 0 0.52 0.92 0 0.56 0.92 0 0.6 0.92 0 0.64 0.92 0 0.68 0.92 0 0.72 0.92 0 0.76 0.92 0 0.8 0.92 0 0.84 0.92 0 0.88 0.92 0 0.92 0.92 0 0.96 0.92 0 1 0.92 0 1.04 0.92 0 1.08 0.92 0 1.12 0.92 0 1.16 0.92 0 1.2 0.92 0 0 0.96 0 0.04 0.96 0 0.08 0.96 0 0.12 0.96 0 0.16 0.96 0 0.2 0.96 0 0.24 0.96 0 0.28 0.96 0 0.32 0.96 0 0.36 0.96 0 0.4 0.96 0 0.44 0.96 0 0.48 0.96 0 0.52 0.96 0 0.56 0.96 0 0.6 0.96 0 0.64 0.96 0 0.68 0.96 0 0.72 0.96 0 0.76 0.96 0 0.8 0.96 0 0.84 0.96 0 0.88 0.96 0 0.92 0.96 0 0.96 0.96 0 1 0.96 0 1.04 0.96 0 1.08 0.96 0 1.12 0.96 0 1.16 0.96 0 1.2 0.96 0 0 1 0 0.04 1 0 0.08 1 0 0.12 1 0 0.16 1 0 0.2 1 0 0.24 1 0 0.28 1 0 0.32 1 0 0.36 1 0 0.4 1 0 0.44 1 0 0.48 1 0 0.52 1 0 0.56 1 0 0.6 1 0 0.64 1 0 0.68 1 0 0.72 1 0 0.76 1 0 0.8 1 0 0.84 1 0 0.88 1 0 0.92 1 0 0.96 1 0 1 1 0 1.04 1 0 1.08 1 0 1.12 1 0 1.16 1 0 1.2 1 0 0 1.04 0 0.04 1.04 0 0.08 1.04 0 0.12 1.04 0 0.16 1.04 0 0.2 1.04 0 0.24 1.04 0 0.28 1.04 0 0.32 1.04 0 0.36 1.04 0 0.4 1.04 0 0.44 1.04 0 0.48 1.04 0 0.52 1.04 0 0.56 1.04 0 0.6 1.04 0 0.64 1.04 0 0.68 1.04 0 0.72 1.04 0 0.76 1.04 0 0.8 1.04 0 0.84 1.04 0 0.88 1.04 0 0.92 1.04 0 0.96 1.04 0 1 1.04 0 1.04 1.04 0 1.08 1.04 0 1.12 1.04 0 1.16 1.04 0 1.2 1.04 0 0 1.08 0 0.04 1.08 0 0.08 1.08 0 0.12 1.08 0 0.16 1.08 0 0.2 1.08 0 0.24 1.08 0 0.28 1.08 0 0.32 1.08 0 0.36 1.08 0 0.4 1.08 0 0.44 1.08 0 0.48 1.08 0 0.52 1.08 0 0.56 1.08 0 0.6 1.08 0 0.64 1.08 0 0.68 1.08 0 0.72 1.08 0 0.76 1.08 0 0.8 1.08 0 0.84 1.08 0 0.88 1.08 0 0.92 1.08 0 0.96 1.08 0 1 1.08 0 1.04 1.08 0 1.08 1.08 0 1.12 1.08 0 1.16 1.08 0 1.2 1.08 0 0 1.12 0 
[...]
			<PointData Scalars="VitesseX">
				<DataArray Name="VitesseX" type="Float32" format="ascii">
 0 -0.0305509 -0.0604401 -0.00309215 0.115588 0.242884 0.326424 0.378645 0.389376 0.387046 0.38922 0.391076 0.401908 0.422616 0.454434 0.497452 0.547364 0.601436 0.658165 0.716777 0.776318 0.835993 0.895007 0.952339 1.00818 1.06853 1.07683 1.01019 0.784755 0.402632 0 0 0.0608103 0.081825 0.130246 0.198228 0.267294 0.336042 0.353967 0.340238 0.324488 0.319587 0.33054 0.350307 0.37989 0.4214 0.473794 0.531323 0.591067 0.652152 0.713787 0.775002 0.835152 0.893515 0.949872 1.00467 1.06396 1.07119 1.00428 0.779519 0.400567 0 0 0.016764 0.0300092 0.0335633 0.0338125 0.0508188 0.0695072 0.0964644 0.125891 0.152356 0.17528 0.200321 0.236248 0.284042 0.344967 0.416529 0.491425 0.564517 0.634783 0.702785 0.767771 0.828965 0.886116 0.940541 0.993326 1.05032 1.05487 0.987182 0.764778 0.395254 0 0 -0.0471199 -0.0763697 -0.0957995 -0.111406 -0.123626 -0.131414 -0.119597 -0.0771671 -0.0315977 0.0133182 0.0646658 0.124427 0.193208 0.268319 0.349071 0.433034 0.517074 0.598415 0.674441 0.744038 0.807028 0.86433 0.917629 0.968926 1.023 1.02413 0.954906 0.737284 0.38529 0 0 -0.098943 -0.155761 -0.191887 -0.218799 -0.23658 -0.237353 -0.211318 -0.172946 -0.127178 -0.0764048 -0.015562 0.0540911 0.129858 0.208365 0.288879 0.372827 0.458141 0.542358 0.623221 0.697973 0.764197 0.823001 0.876175 0.925669 0.973594 0.971744 0.899814 0.690953 0.368382 0 0 -0.122883 -0.20195 -0.253751 -0.284661 -0.29638 -0.285727 -0.260962 -0.226441 -0.183216 -0.128441 -0.0645301 0.00724572 0.0848557 0.163597 0.242145 0.322409 0.404654 0.485245 0.562926 0.636161 0.703324 0.763091 0.814826 0.86139 0.897184 0.889913 0.813552 0.620325 0.342183 0 0 -0.131134 -0.222634 -0.279586 -0.310683 -0.321932 -0.31786 -0.296599 -0.266649 -0.223473 -0.167854 -0.104013 -0.0325166 0.044357 0.123189 0.200752 0.276931 0.354199 0.429936 0.503357 0.57189 0.633854 0.688266 0.734057 0.773667 0.793018 0.773427 0.690075 0.523468 0.305948 0 0 -0.121646 -0.218848 -0.274639 -0.304202 -0.320093 -0.324036 -0.315875 -0.291211 -0.253509 -0.204115 -0.143491 -0.0743295 -0.00032668 0.0766511 0.154043 0.228288 0.301365 0.372575 0.440837 0.504393 0.560631 0.605731 0.641456 0.664173 0.661025 0.62504 0.539567 0.413592 0.259968 0 0 -0.0929825 -0.179207 -0.235724 -0.268107 -0.298877 -0.316264 -0.318025 -0.307184 -0.2795 -0.238903 -0.187854 -0.126392 -0.0584331 0.0146608 0.0914675 0.166 0.238112 0.307844 0.371451 0.428954 0.479017 0.517272 0.541466 0.544075 0.524361 0.480245 0.412837 0.322524 0.205059 0 0 -0.0450347 -0.0999979 -0.161706 -0.211568 -0.261405 -0.30239 -0.323717 -0.324207 -0.309562 -0.284047 -0.245797 -0.195493 -0.134412 -0.0661768 0.00851005 0.0849356 0.158944 0.229495 0.292352 0.345644 0.388973 0.421475 0.436182 0.429563 0.405856 0.369729 0.320943 0.245967 0.145032 0 0 -0.0247963 -0.0621687 -0.123295 -0.188167 -0.247209 -0.302442 -0.345684 -0.369337 -0.37204 -0.352993 -0.319856 -0.276509 -0.223632 -0.162081 -0.0915538 -0.0148247 0.061803 0.134825 0.200856 0.254453 0.293324 0.320035 0.329947 0.322073 0.302695 0.27605 0.235871 0.167434 0.0794281 0 0 -0.0244127 -0.0566198 -0.113753 -0.180826 -0.246054 -0.307364 -0.362154 -0.403259 -0.423077 -0.422172 -0.401733 -0.366853 -0.320898 -0.265013 -0.199664 -0.126989 -0.050337 0.0256487 0.0938205 0.149405 0.189222 0.211748 0.219439 0.214985 0.202544 0.180531 0.1389 0.0838583 0.00613643 0 0 -0.0213685 -0.0522 -0.107205 -0.177978 -0.252563 -0.32498 -0.390834 -0.441762 -0.473651 -0.484333 -0.475816 -0.45179 -0.414389 -0.364554 -0.304501 -0.237687 -0.166834 -0.0963856 -0.0303607 0.0243274 0.0626246 0.0840682 0.09084 0.0878402 0.0774577 0.0574507 0.0324615 0.00201246 -0.0575493 0 0 -0.0192216 -0.0533753 -0.109338 -0.186996 -0.273886 -0.358192 -0.432452 -0.489366 -0.526048 -0.543116 -0.544578 -0.530931 -0.503536 -0.462595 -0.410885 -0.35158 -0.292347 -0.23417 -0.178248 -0.131397 -0.098604 -0.0796486 -0.0727252 -0.0723188 -0.0693885 -0.070287 -0.0728337 -0.074126 -0.0928572 0 0 -0.0237967 -0.0626441 -0.125127 -0.212021 -0.308884 -0.402124 -0.481731 -0.540318 -0.577263 -0.597388 -0.604832 -0.601213 -0.583936 -0.554503 -0.514535 -0.470074 -0.425371 -0.38195 -0.342623 -0.308632 -0.282144 -0.261811 -0.245751 -0.22564 -0.205241 -0.190812 -0.164463 -0.131502 -0.103457 0 0 -0.0337397 -0.08151 -0.154614 -0.250485 -0.353984 -0.447985 -0.52257 -0.576511 -0.614678 -0.639525 -0.652851 -0.6558 -0.648798 -0.628585 -0.59969 -0.567774 -0.533633 -0.502642 -0.477205 -0.45681 -0.436705 -0.414349 -0.389807 -0.358332 -0.324944 -0.283834 -0.225295 -0.161807 -0.105406 0 0 -0.0468336 -0.108996 -0.195465 -0.300818 -0.409622 -0.496724 -0.55778 -0.602303 -0.636866 -0.664147 -0.68178 -0.689722 -0.68912 -0.676391 -0.654831 -0.628976 -0.602022 -0.582549 -0.572127 -0.565271 -0.55505 -0.536096 -0.506489 -0.464339 -0.409888 -0.337583 -0.255073 -0.174549 -0.102765 0 0 -0.0626158 -0.14179 -0.243689 -0.35687 -0.455247 -0.527761 -0.581392 -0.619118 -0.646618 -0.669646 -0.688435 -0.699282 -0.701474 -0.693947 -0.673927 -0.652105 -0.635824 -0.63059 -0.638646 -0.647853 -0.647908 -0.632486 -0.595807 -0.534417 -0.453409 -0.360708 -0.267548 -0.17926 -0.0998 0 0 -0.0720085 -0.161164 -0.265798 -0.36606 -0.449987 -0.517849 -0.571746 -0.610605 -0.637991 -0.658211 -0.674384 -0.686329 -0.690831 -0.685569 -0.667822 -0.650417 -0.647234 -0.662893 -0.695314 -0.720878 -0.726586 -0.707398 -0.651303 -0.566763 -0.469537 -0.370054 -0.272645 -0.18115 -0.0971741 0 0 -0.0725527 -0.159981 -0.259716 -0.352783 -0.428693 -0.492234 -0.547463 -0.590821 -0.618815 -0.634938 -0.646094 -0.653662 -0.65506 -0.649103 -0.637531 -0.630347 -0.645731 -0.692845 -0.746366 -0.780888 -0.78865 -0.75179 -0.673667 -0.577006 -0.475414 -0.374004 -0.275515 -0.182472 -0.0958747 0 0 -0.0690356 -0.149319 -0.238789 -0.322636 -0.39309 -0.455009 -0.512205 -0.559749 -0.591752 -0.607167 -0.612368 -0.60911 -0.600794 -0.591255 -0.580973 -0.594353 -0.641532 -0.7166 -0.782682 -0.818162 -0.820641 -0.765745 -0.678095 -0.578612 -0.477107 -0.376593 -0.278848 -0.185362 -0.0961968 0 0 -0.0639366 -0.132484 -0.20599 -0.280254 -0.346149 -0.407997 -0.46892 -0.52161 -0.55837 -0.576346 -0.578621 -0.563439 -0.538905 -0.521256 -0.517391 -0.555028 -0.634251 -0.726241 -0.79985 -0.832963 -0.818385 -0.752413 -0.666806 -0.575744 -0.478815 -0.381139 -0.284387 -0.19011 -0.0988899 0 0 -0.0597516 -0.115272 -0.169983 -0.229756 -0.291099 -0.353133 -0.419179 -0.479314 -0.518896 -0.540485 -0.546443 -0.524688 -0.483529 -0.457267 -0.466408 -0.5278 -0.625033 -0.719595 -0.779505 -0.796613 -0.775156 -0.728429 -0.656862 -0.571592 -0.482309 -0.387969 -0.291321 -0.196524 -0.103621 0 0 -0.0588304 -0.102717 -0.137594 -0.178023 -0.229954 -0.294319 -0.367022 -0.438936 -0.495846 -0.524625 -0.528662 -0.497324 -0.442264 -0.412913 -0.442671 -0.522854 -0.631252 -0.718153 -0.755615 -0.759442 -0.734337 -0.694146 -0.639544 -0.567281 -0.484657 -0.39582 -0.299571 -0.20473 -0.110993 0 0 -0.0563144 -0.0884871 -0.104772 -0.123933 -0.166567 -0.233679 -0.326015 -0.428053 -0.497309 -0.523208 -0.521171 -0.481747 -0.418992 -0.399154 -0.454863 -0.557984 -0.653294 -0.710093 -0.725865 -0.71839 -0.694231 -0.659411 -0.615051 -0.556487 -0.485449 -0.401603 -0.308938 -0.212637 -0.116668 0 0 -0.0495083 -0.0694404 -0.0744505 -0.0838014 -0.120101 -0.201585 -0.322318 -0.435842 -0.507063 -0.532257 -0.528111 -0.482512 -0.430276 -0.437918 -0.515265 -0.602742 -0.664672 -0.689622 -0.69357 -0.679559 -0.656925 -0.624256 -0.585038 -0.537772 -0.476798 -0.404136 -0.316975 -0.220906 -0.119707 0 0 -0.0344105 -0.0599887 -0.0497557 -0.0598409 -0.103601 -0.200036 -0.330297 -0.449317 -0.521842 -0.553396 -0.550193 -0.509052 -0.483505 -0.520329 -0.587475 -0.638908 -0.662823 -0.668422 -0.658902 -0.642938 -0.620673 -0.589111 -0.552915 -0.510396 -0.459081 -0.396732 -0.322147 -0.228906 -0.117247 0 0 -0.0476382 -0.0416765 -0.0537829 -0.0429498 -0.0951407 -0.203326 -0.33867 -0.4579 -0.542152 -0.586033 -0.587684 -0.571965 -0.579468 -0.622575 -0.649883 -0.657008 -0.652724 -0.640853 -0.623879 -0.606228 -0.581913 -0.549378 -0.511854 -0.470061 -0.425769 -0.379041 -0.323343 -0.231824 -0.12933 0 0 -0.0400596 -0.138248 -0.0256825 -0.0198267 -0.0767136 -0.18926 -0.339671 -0.481515 -0.588064 -0.649973 -0.677686 -0.690208 -0.709241 -0.702333 -0.681427 -0.655658 -0.629137 -0.602806 -0.578158 -0.554834 -0.525023 -0.487109 -0.442949 -0.39973 -0.359556 -0.32128 -0.28047 -0.23999 -0.122844 0 0 -0.420984 -0.0741165 0.0304798 0.0371773 -0.0212935 -0.140976 -0.289115 -0.444085 -0.589801 -0.708698 -0.781387 -0.802298 -0.74079 -0.670146 -0.60504 -0.549377 -0.50438 -0.46692 -0.435014 -0.406395 -0.373921 -0.334424 -0.29089 -0.24862 -0.212192 -0.18563 -0.172144 -0.157663 -0.138565 0 0 0 0 0 0 0 0 0 0 0 0 0 0 0 0 0 0 0 0 0 0 0 0 0 0 0 0 0 0 0 0
				</DataArray>
				<DataArray Name="VitesseY" type="Float32" format="ascii">
 0 0 0 0 0 0 0 0 0 0 0 0 0 0 0 0 0 0 0 0 0 0 0 0 0 0 0 0 0 0 0 -0.0696005 0.0246608 -0.0302533 -0.0898005 -0.111077 -0.0991987 -0.0666573 -0.0166989 0.0067243 -0.00136604 -0.00861027 -0.0170537 -0.026931 -0.037442 -0.0499273 -0.0565736 -0.0536132 -0.0473713 -0.039648 -0.0319156 -0.0252014 -0.0198257 -0.0151682 -0.0124259 -0.0105358 -0.00982744 -0.0109725 -0.0139891 -0.018689 -0.0226765 0 -0.137745 0.000827322 -0.0550584 -0.131249 -0.151759 -0.157983 -0.108211 -0.0326749 -0.00544706 -0.0121026 -0.0278091 -0.045709 -0.0660292 -0.0885681 -0.114515 -0.128226 -0.121951 -0.108049 -0.0906518 -0.0727641 -0.0565322 -0.0423466 -0.0307612 -0.0248326 -0.020453 -0.0205165 -0.0237765 -0.0316192 -0.0433326 -0.0547821 0 -0.12903 0.00844579 -0.0608234 -0.123417 -0.157198 -0.169552 -0.119115 -0.0718371 -0.04912 -0.0509684 -0.0664837 -0.0926582 -0.123821 -0.156444 -0.192746 -0.213323 -0.206924 -0.18943 -0.163098 -0.132343 -0.101735 -0.0733302 -0.0512384 -0.039383 -0.0325496 -0.034747 -0.0430081 -0.0593074 -0.0827427 -0.106263 0 -0.0456101 0.0573578 -0.0373971 -0.104183 -0.145937 -0.161886 -0.128345 -0.109647 -0.100448 -0.0981101 -0.1212 -0.155175 -0.194849 -0.233699 -0.272645 -0.299328 -0.296062 -0.280125 -0.252112 -0.215159 -0.172229 -0.125622 -0.0887403 -0.0651045 -0.0561452 -0.0626081 -0.0799327 -0.109459 -0.149684 -0.189468 0 0.0841368 0.136019 0.00676005 -0.0724538 -0.130741 -0.15732 -0.150884 -0.144437 -0.143327 -0.147147 -0.177794 -0.220453 -0.265814 -0.310621 -0.348764 -0.379637 -0.382982 -0.369575 -0.342973 -0.305119 -0.258224 -0.204205 -0.157589 -0.123559 -0.115382 -0.124753 -0.151025 -0.197224 -0.257287 -0.314658 0 0.22903 0.231942 0.0688965 -0.0369681 -0.113998 -0.158803 -0.169972 -0.174325 -0.177076 -0.194335 -0.231897 -0.280898 -0.332271 -0.381854 -0.421138 -0.452872 -0.465903 -0.454863 -0.431723 -0.396225 -0.349465 -0.294547 -0.244767 -0.210702 -0.208459 -0.223911 -0.263032 -0.327385 -0.408379 -0.47611 0 0.35773 0.343053 0.134497 -0.000201889 -0.0984423 -0.153208 -0.178446 -0.193032 -0.205077 -0.233718 -0.278542 -0.334566 -0.391492 -0.443782 -0.486464 -0.51798 -0.538459 -0.531654 -0.512862 -0.482182 -0.440768 -0.390722 -0.345294 -0.322558 -0.329798 -0.355486 -0.404505 -0.477154 -0.577852 -0.642375 0 0.460236 0.442561 0.206701 0.0302864 -0.0741488 -0.134991 -0.174235 -0.196028 -0.223164 -0.259733 -0.313818 -0.376007 -0.438651 -0.494176 -0.539868 -0.57192 -0.594466 -0.594941 -0.580112 -0.553557 -0.518822 -0.477563 -0.441692 -0.436911 -0.450766 -0.482285 -0.533033 -0.605804 -0.719767 -0.792351 0 0.527858 0.50049 0.278542 0.0672415 -0.0349685 -0.0959442 -0.15012 -0.184166 -0.224689 -0.270852 -0.330915 -0.401566 -0.470502 -0.531237 -0.580359 -0.615028 -0.635378 -0.640363 -0.627856 -0.605588 -0.575764 -0.540156 -0.514748 -0.517902 -0.5338 -0.565969 -0.617177 -0.693103 -0.810388 -0.909866 0 0.561885 0.523942 0.335815 0.123643 0.0177342 -0.0407156 -0.100528 -0.151478 -0.2057 -0.264049 -0.334403 -0.41185 -0.486567 -0.552964 -0.608429 -0.648173 -0.669275 -0.673059 -0.659418 -0.637065 -0.61024 -0.57758 -0.556514 -0.556779 -0.570186 -0.602242 -0.655155 -0.729636 -0.848653 -0.980306 0 0.583683 0.538901 0.378917 0.189361 0.0789322 0.0233521 -0.0362039 -0.0945283 -0.163226 -0.238069 -0.322487 -0.408077 -0.488339 -0.560902 -0.622892 -0.670291 -0.696566 -0.70032 -0.684614 -0.656674 -0.624785 -0.592521 -0.571207 -0.564976 -0.573506 -0.601943 -0.649701 -0.720715 -0.850319 -0.999346 0 0.605458 0.550291 0.418761 0.25232 0.148752 0.095669 0.0406844 -0.0227287 -0.101807 -0.192828 -0.290757 -0.387466 -0.47577 -0.555866 -0.625709 -0.679972 -0.712989 -0.719737 -0.703534 -0.668093 -0.623913 -0.583363 -0.553464 -0.537342 -0.535765 -0.553762 -0.602259 -0.692076 -0.834938 -0.935594 0 0.617135 0.565981 0.4557 0.316249 0.22815 0.180793 0.129949 0.0610096 -0.0295657 -0.134044 -0.244 -0.349444 -0.448322 -0.537508 -0.615582 -0.678664 -0.71649 -0.726519 -0.7116 -0.672239 -0.617542 -0.559931 -0.511244 -0.480025 -0.47193 -0.501658 -0.57572 -0.687009 -0.805162 -0.813921 0 0.624314 0.586521 0.494003 0.385348 0.317709 0.277828 0.229769 0.15171 0.0488904 -0.0677617 -0.186748 -0.298506 -0.403897 -0.503058 -0.591414 -0.661518 -0.705125 -0.718408 -0.706313 -0.666992 -0.607277 -0.542142 -0.484456 -0.450988 -0.454821 -0.509973 -0.599058 -0.68946 -0.751249 -0.714168 0 0.638284 0.611509 0.538779 0.462541 0.41625 0.382032 0.331669 0.24266 0.129583 0.00411524 -0.120045 -0.236189 -0.346059 -0.453365 -0.552811 -0.632592 -0.681761 -0.696839 -0.687332 -0.653846 -0.596664 -0.53982 -0.497694 -0.480653 -0.508919 -0.572292 -0.632573 -0.680028 -0.70207 -0.625813 0 0.662723 0.644284 0.595091 0.549858 0.520873 0.489793 0.424286 0.325249 0.207778 0.0812162 -0.045017 -0.164481 -0.278449 -0.393178 -0.505597 -0.597535 -0.652972 -0.671221 -0.667158 -0.645487 -0.609511 -0.57634 -0.556378 -0.556806 -0.595046 -0.630295 -0.653325 -0.66263 -0.659205 -0.555286 0 0.698778 0.689651 0.666714 0.648729 0.630461 0.585013 0.503036 0.398165 0.280222 0.157567 0.0341133 -0.0874907 -0.205719 -0.328659 -0.456321 -0.558342 -0.621306 -0.650793 -0.659955 -0.656887 -0.654117 -0.649621 -0.642862 -0.65103 -0.666292 -0.668296 -0.660506 -0.646524 -0.622881 -0.501242 0 0.746566 0.748 0.751166 0.752581 0.730738 0.6644 0.573552 0.466282 0.348856 0.229402 0.110592 -0.00944295 -0.13109 -0.264795 -0.40677 -0.52142 -0.596159 -0.640543 -0.669326 -0.697777 -0.721346 -0.731385 -0.724329 -0.719432 -0.704805 -0.681761 -0.657138 -0.629876 -0.592777 -0.459633 0 0.803168 0.81482 0.839718 0.851312 0.815928 0.73449 0.634435 0.52564 0.411695 0.29612 0.180691 0.0634404 -0.0608516 -0.202112 -0.36011 -0.489793 -0.579739 -0.641011 -0.694509 -0.743478 -0.779055 -0.79596 -0.772482 -0.746421 -0.714892 -0.681117 -0.646914 -0.612451 -0.567234 -0.426224 0 0.8686 0.886704 0.925356 0.940519 0.892768 0.795599 0.688441 0.576707 0.464319 0.352506 0.240626 0.125298 -0.000230274 -0.147657 -0.318893 -0.462553 -0.566262 -0.644427 -0.71337 -0.77198 -0.808917 -0.823284 -0.785415 -0.747718 -0.706784 -0.668329 -0.631627 -0.594932 -0.544266 -0.397417 0 0.945417 0.965279 1.00615 1.01866 0.959928 0.849471 0.73478 0.619673 0.505253 0.394217 0.285765 0.172189 0.044939 -0.108266 -0.28625 -0.437308 -0.550276 -0.6384 -0.715111 -0.776425 -0.80819 -0.808258 -0.764929 -0.72473 -0.684891 -0.647388 -0.6113 -0.573213 -0.51684 -0.366344 0 1.03398 1.05023 1.08425 1.08702 1.01698 0.895481 0.771352 0.650706 0.531945 0.419259 0.313585 0.202862 0.0731281 -0.0836349 -0.26061 -0.408745 -0.525168 -0.618118 -0.692343 -0.740207 -0.757379 -0.744831 -0.720458 -0.686356 -0.651889 -0.61754 -0.582971 -0.543141 -0.481162 -0.328559 0 1.12853 1.13572 1.15468 1.14385 1.05854 0.928939 0.795233 0.660793 0.538872 0.43006 0.326718 0.215831 0.0870846 -0.0703651 -0.238755 -0.379063 -0.490552 -0.577369 -0.638339 -0.666751 -0.672743 -0.661879 -0.651946 -0.634903 -0.610322 -0.580514 -0.548547 -0.507465 -0.438723 -0.286683 0 1.18079 1.16562 1.1627 1.13938 1.05647 0.927876 0.788573 0.650474 0.528202 0.420864 0.319954 0.214048 0.0915713 -0.0616293 -0.213163 -0.340388 -0.442761 -0.519228 -0.559863 -0.57303 -0.576314 -0.573228 -0.569327 -0.564809 -0.55381 -0.535283 -0.50771 -0.467459 -0.396908 -0.245813 0 1.18902 1.15184 1.12348 1.08993 1.00265 0.879795 0.75051 0.613493 0.487947 0.383174 0.29258 0.203543 0.090616 -0.0495913 -0.180931 -0.296784 -0.388891 -0.444236 -0.465873 -0.473883 -0.476268 -0.478345 -0.481408 -0.483234 -0.483927 -0.475226 -0.457395 -0.424263 -0.357887 -0.210467 0 1.12076 1.07586 1.00454 0.947915 0.858688 0.751585 0.646597 0.521532 0.402501 0.318967 0.25428 0.188909 0.0847276 -0.0407925 -0.155783 -0.255575 -0.324622 -0.356053 -0.368848 -0.373974 -0.377033 -0.381414 -0.387845 -0.395442 -0.400948 -0.403345 -0.395908 -0.378134 -0.320474 -0.184626 0 0.978418 0.903805 0.788975 0.695595 0.599597 0.530418 0.456985 0.365106 0.283522 0.241821 0.212425 0.162426 0.0647781 -0.0345297 -0.131202 -0.207412 -0.248068 -0.265701 -0.272949 -0.276596 -0.27989 -0.285101 -0.291588 -0.299425 -0.308652 -0.316644 -0.321767 -0.322939 -0.279984 -0.171736 0 0.737129 0.758012 0.501346 0.334032 0.304054 0.266843 0.237157 0.201738 0.168912 0.164006 0.160703 0.113133 0.0409132 -0.0368518 -0.108345 -0.152138 -0.171561 -0.179288 -0.182158 -0.18377 -0.186468 -0.190873 -0.196895 -0.204825 -0.212617 -0.220808 -0.228756 -0.231661 -0.239835 -0.157503 0 1.0315 0.590592 0.0318307 0.109143 0.0810485 0.0850914 0.0963511 0.0981551 0.0955242 0.101802 0.0895393 0.0441878 -0.0198744 -0.0706242 -0.0929162 -0.0996323 -0.101235 -0.0996278 -0.0977319 -0.096536 -0.0967787 -0.0993541 -0.10405 -0.111347 -0.116917 -0.119834 -0.117272 -0.129333 -0.122813 -0.138555 0 5.79362 0 0 0 0 0 0 0 0 0 0 0 0 0 0 0 0 0 0 0 0 0 0 0 0 0 0 0 0 0 0
				</DataArray>
			</PointData>
			<CellData Scalars="Density">
				<DataArray Name="Density" type="Float32" format="ascii">