<?xml version="1.0"?>
<VTKFile type="PolyData">
	<PolyData>
		<Piece NumberOfPoints="961" NumberOfPolys="900">
			<Points>
				<DataArray type="Float32" NumberOfComponents="3" format="ascii">
 0 0 0 0.04 0 0 0.08 0 0 0.12 0 0 0.16 0 0 0.2 0 0 0.24 0 0 0.28 0 0 0.32 0 0 0.36 0 0 0.4 0 0 0.44 0 0 0.48 0 0 0.52 0 0 0.56 0 0 0.6 0 0 0.64 0 0 0.68 0 0 0.72 0 0 0.76 0 0 0.8 0 0 0.84 0 0 0.88 0 0 0.92 0 0 0.96 0 0 1 0 0 1.04 0 0 1.08 0 0 1.12 0 0 1.16 0 0 1.2 0 0 0 0.04 0 0.04 0.04 0 0.08 0.04 0 0.12 0.04 0 0.16 0.04 0 0.2 0.04 0 0.24 0.04 0 0.28 0.04 0 0.32 0.04 0 0.36 0.04 0 0.4 0.04 0 0.44 0.04 0 0.48 0.04 0 0.52 0.04 0 0.56 0.04 0 0.6 0.04 0 0.64 0.04 0 0.68 0.04 0 0.72 0.04 0 0.76 0.04 0 0.8 0.04 0 0.84 0.04 0 0.88 0.04 0 0.92 0.04 0 0.96 0.04 0 1 0.04 0 1.04 0.04 0 1.08 0.04 0 1.12 0.04 0 1.16 0.04 0 1.2 0.04 0 0 0.08 0 0.04 0.08 0 0.08 0.08 0 0.12 0.08 0 0.16 0.08 0 0.2 0.08 0 0.24 0.08 0 0.28 0.08 0 0.32 0.08 0 0.36 0.08 0 0.4 0.08 0 0.44 0.08 0 0.48 0.08 0 0.52 0.08 0 0.56 0.08 0 0.6 0.08 0 0.64 0.08 0 0.68 0.08 0 0.72 0.08 0 0.76 0.08 0 0.8 0.08 0 0.84 0.08 0 0.88 0.08 0 0.92 0.08 0 0.96 0.08 0 1 0.08 0 1.04 0.08 0 1.08 0.08 0 1.12 0.08 0 1.16 0.08 0 1.2 0.08 0 0 0.12 0 0.04 0.12 0 0.08 0.12 0 0.12 0.12 0 0.16 0.12 0 0.2 0.12 0 0.24 0.12 0 0.28 0.12 0 0.32 0.12 0 0.36 0.12 0 0.4 0.12 0 0.44 0.12 0 0.48 0.12 0 0.52 0.12 0 0.56 0.12 0 0.6 0.12 0 0.64 0.12 0 0.68 0.12 0 0.72 0.12 0 0.76 0.12 0 0.8 0.12 0 0.84 0.12 0 0.88 0.12 0 0.92 0.12 0 0.96 0.12 0 1 0.12 0 1.04 0.12 0 1.08 0.12 0 1.12 0.12 0 1.16 0.12 0 1.2 0.12 0 0 0.16 0 0.04 0.16 0 0.08 0.16 0 0.12 0.16 0 0.16 0.16 0 0.2 0.16 0 0.24 0.16 0 0.28 0.16 0 0.32 0.16 0 0.36 0.16 0 0.4 0.16 0 0.44 0.16 0 0.48 0.16 0 0.52 0.16 0 0.56 0.16 0 0.6 0.16 0 0.64 0.16 0 0.68 0.16 0 0.72 0.16 0 0.76 0.16 0 0.8 0.16 0 0.84 0.16 0 0.88 0.16 0 0.92 0.16 0 0.96 0.16 0 1 0.16 0 1.04 0.16 0 1.08 0.16 0 1.12 0.16 0 1.16 0.16 0 1.2 0.16 0 0 0.2 0 0.04 0.2 0 0.08 0.2 0 0.12 0.2 0 0.16 0.2 0 0.2 0.2 0 0.24 0.2 0 0.28 0.2 0 0.32 0.2 0 0.36 0.2 0 0.4 0.2 0 0.44 0.2 0 0.48 0.2 0 0.52 0.2 0 0.56 0.2 0 0.6 0.2 0 0.64 0.2 0 0.68 0.2 0 0.72 0.2 0 0.76 0.2 0 0.8 0.2 0 0.84 0.2 0 0.88 0.2 0 0.92 0.2 0 0.96 0.2 0 1 0.2 0 1.04 0.2 0 1.08 0.2 0 1.12 0.2 0 1.16 0.2 0 1.2 0.2 0 0 0.24 0 0.04 0.24 0 0.08 0.24 0 0.12 0.24 0 0.16 0.24 0 0.2 0.24 0 0.24 0.24 0 0.28 0.24 0 0.32 0.24 0 0.36 0.24 0 0.4 0.24 0 0.44 0.24 0 0.48 0.24 0 0.52 0.24 0 0.56 0.24 0 0.6 0.24 0 0.64 0.24 0 0.68 0.24 0 0.72 0.24 0 0.76 0.24 0 0.8 0.24 0 0.84 0.24 0 0.88 0.24 0 0.92 0.24 0 0.96 0.24 0 1 0.24 0 1.04 0.24 0 1.08 0.24 0 1.12 0.24 0 1.16 0.24 0 1.2 0.24 0 0 0.28 0 0.04 0.28 0 0.08 0.28 0 0.12 0.28 0 0.16 0.28 0 0.2 0.28 0 0.24 0.28 0 0.28 0.28 0 0.32 0.28 0 0.36 0.28 0 0.4 0.28 0 0.44 0.28 0 0.48 0.28 0 0.52 0.28 0 0.56 0.28 0 0.6 0.28 0 0.64 0.28 0 0.68 0.28 0 0.72 0.28 0 0.76 0.28 0 0.8 0.28 0 0.84 0.28 0 0.88 0.28 0 0.92 0.28 0 0.96 0.28 0 1 0.28 0 1.04 0.28 0 1.08 0.28 0 1.12 0.28 0 1.16 0.28 0 1.2 0.28 0 0 0.32 0 0.04 0.32 0 0.08 0.32 0 0.12 0.32 0 0.16 0.32 0 0.2 0.32 0 0.24 0.32 0 0.28 0.32 0 0.32 0.32 0 0.36 0.32 0 0.4 0.32 0 0.44 0.32 0 0.48 0.32 0 0.52 0.32 0 0.56 0.32 0 0.6 0.32 0 0.64 0.32 0 0.68 0.32 0 0.72 0.32 0 0.76 0.32 0 0.8 0.32 0 0.84 0.32 0 0.88 0.32 0 0.92 0.32 0 0.96 0.32 0 1 0.32 0 1.04 0.32 0 1.08 0.32 0 1.12 0.32 0 1.16 0.32 0 1.2 0.32 0 0 0.36 0 0.04 0.36 0 0.08 0.36 0 0.12 0.36 0 0.16 0.36 0 0.2 0.36 0 0.24 0.36 0 0.28 0.36 0 0.32 0.36 0 0.36 0.36 0 0.4 0.36 0 0.44 0.36 0 0.48 0.36 0 0.52 0.36 0 0.56 0.36 0 0.6 0.36 0 0.64 0.36 0 0.68 0.36 0 0.72 0.36 0 0.76 0.36 0 0.8 0.36 0 0.84 0.36 0 0.88 0.36 0 0.92 0.36 0 0.96 0.36 0 1 0.36 0 1.04 0.36 0 1.08 0.36 0 1.12 0.36 0 1.16 0.36 0 1.2 0.36 0 0 0.4 0 0.04 0.4 0 0.08 0.4 0 0.12 0.4 0 0.16 0.4 0 0.2 0.4 0 0.24 0.4 0 0.28 0.4 0 0.32 0.4 0 0.36 0.4 0 0.4 0.4 0 0.44 0.4 0 0.48 0.4 0 0.52 0.4 0 0.56 0.4 0 0.6 0.4 0 0.64 0.4 0 0.68 0.4 0 0.72 0.4 0 0.76 0.4 0 0.8 0.4 0 0.84 0.4 0 0.88 0.4 0 0.92 0.4 0 0.96 0.4 0 1 0.4 0 1.04 0.4 0 1.08 0.4 0 1.12 0.4 0 1.16 0.4 0 1.2 0.4 0 0 0.44 0 0.04 0.44 0 0.08 0.44 0 0.12 0.44 0 0.16 0.44 0 0.2 0.44 0 0.24 0.44 0 0.28 0.44 0 0.32 0.44 0 0.36 0.44 0 0.4 0.44 0 0.44 0.44 0 0.48 0.44 0 0.52 0.44 0 0.56 0.44 0 0.6 0.44 0 0.64 0.44 0 0.68 0.44 0 0.72 0.44 0 0.76 0.44 0 0.8 0.44 0 0.84 0.44 0 0.88 0.44 0 0.92 0.44 0 0.96 0.44 0 1 0.44 0 1.04 0.44 0 1.08 0.44 0 1.12 0.44 0 1.16 0.44 0 1.2 0.44 0 0 0.48 0 0.04 0.48 0 0.08 0.48 0 0.12 0.48 0 0.16 0.48 0 0.2 0.48 0 0.24 0.48 0 0.28 0.48 0 0.32 0.48 0 0.36 0.48 0 0.4 0.48 0 0.44 0.48 0 0.48 0.48 0 0.52 0.48 0 0.56 0.48 0 0.6 0.48 0 0.64 0.48 0 0.68 0.48 0 0.72 0.48 0 0.76 0.48 0 0.8 0.48 0 0.84 0.48 0 0.88 0.48 0 0.92 0.48 0 0.96 0.48 0 1 0.48 0 1.04 0.48 0 1.08 0.48 0 1.12 0.48 0 1.16 0.48 0 1.2 0.48 0 0 0.52 0 0.04 0.52 0 0.08 0.52 0 0.12 0.52 0 0.16 0.52 0 0.2 0.52 0 0.24 0.52 0 0.28 0.52 0 0.32 0.52 0 0.36 0.52 0 0.4 0.52 0 0.44 0.52 0 0.48 0.52 0 0.52 0.52 0 0.56 0.52 0 0.6 0.52 0 0.64 0.52 0 0.68 0.52 0 0.72 0.52 0 0.76 0.52 0 0.8 0.52 0 0.84 0.52 0 0.88 0.52 0 0.92 0.52 0 0.96 0.52 0 1 0.52 0 1.04 0.52 0 1.08 0.52 0 1.12 0.52 0 1.16 0.52 0 1.2 0.52 0 0 0.56 0 0.04 0.56 0 0.08 0.56 0 0.12 0.56 0 0.16 0.56 0 0.2 0.56 0 0.24 0.56 0 0.28 0.56 0 0.32 0.56 0 0.36 0.56 0 0.4 0.56 0 0.44 0.56 0 0.48 0.56 0 0.52 0.56 0 0.56 0.56 0 0.6 0.56 0 0.64 0.56 0 0.68 0.56 0 0.72 0.56 0 0.76 0.56 0 0.8 0.56 0 0.84 0.56 0 0.88 0.56 0 0.92 0.56 0 0.96 0.56 0 1 0.56 0 1.04 0.56 0 1.08 0.56 0 1.12 0.56 0 1.16 0.56 0 1.2 0.56 0 0 0.6 0 0.04 0.6 0 0.08 0.6 0 0.12 0.6 0 0.16 0.6 0 0.2 0.6 0 0.24 0.6 0 0.28 0.6 0 0.32 0.6 0 0.36 0.6 0 0.4 0.6 0 0.44 0.6 0 0.48 0.6 0 0.52 0.6 0 0.56 0.6 0 0.6 0.6 0 0.64 0.6 0 0.68 0.6 0 0.72 0.6 0 0.76 0.6 0 0.8 0.6 0 0.84 0.6 0 0.88 0.6 0 0.92 0.6 0 0.96 0.6 0 1 0.6 0 1.04 0.6 0 1.08 0.6 0 1.12 0.6 0 1.16 0.6 0 1.2 0.6 0 0 0.64 0 0.04 0.64 0 0.08 0.64 0 0.12 0.64 0 0.16 0.64 0 0.2 0.64 0 0.24 0.64 0 0.28 0.64 0 0.32 0.64 0 0.36 0.64 0 0.4 0.64 0 0.44 0.64 0 0.48 0.64 0 0.52 0.64 0 0.56 0.64 0 0.6 0.64 0 0.64 0.64 0 0.68 0.64 0 0.72 0.64 0 0.76 0.64 0 0.8 0.64 0 0.84 0.64 0 0.88 0.64 0 0.92 0.64 0 0.96 0.64 0 1 0.64 0 1.04 0.64 0 1.08 0.64 0 1.12 0.64 0 1.16 0.64 0 1.2 0.64 0 0 0.68 0 0.04 0.68 0 0.08 0.68 0 0.12 0.68 0 0.16 0.68 0 0.2 0.68 0 0.24 0.68 0 0.28 0.68 0 0.32 0.68 0 0.36 0.68 0 0.4 0.68 0 0.44 0.68 0 0.48 0.68 0 0.52 0.68 0 0.56 0.68 0 0.6 0.68 0 0.64 0.68 0 0.68 0.68 0 0.72 0.68 0 0.76 0.68 0 0.8 0.68 0 0.84 0.68 0 0.88 0.68 0 0.92 0.68 0 0.96 0.68 0 1 0.68 0 1.04 0.68 0 1.08 0.68 0 1.12 0.68 0 1.16 0.68 0 1.2 0.68 0 0 0.72 0 0.04 0.72 0 0.08 0.72 0 0.12 0.72 0 0.16 0.72 0 0.2 0.72 0 0.24 0.72 0 0.28 0.72 0 0.32 0.72 0 0.36 0.72 0 0.4 0.72 0 0.44 0.72 0 0.48 0.72 0 0.52 0.72 0 0.56 0.72 0 0.6 0.72 0 0.64 0.72 0 0.68 0.72 0 0.72 0.72 0 0.76 0.72 0 0.8 0.72 0 0.84 0.72 0 0.88 0.72 0 0.92 0.72 0 0.96 0.72 0 1 0.72 0 1.04 0.72 0 1.08 0.72 0 1.12 0.72 0 1.16 0.72 0 1.2 0.72 0 0 0.76 0 0.04 0.76 0 0.08 0.76 0 0.12 0.76 0 0.16 0.76 0 0.2 0.76 0 0.24 0.76 0 0.28 0.76 0 0.32 0.76 0 0.36 0.76 0 0.4 0.76 0 0.44 0.76 0 0.48 0.76 0 0.52 0.76 0 0.56 0.76 0 0.6 0.76 0 0.64 0.76 0 0.68 0.76 0 0.72 0.76 0 0.76 0.76 0 0.8 0.76 0 0.84 0.76 0 0.88 0.76 0 0.92 0.76 0 0.96 0.76 0 1 0.76 0 1.04 0.76 0 1.08 0.76 0 1.12 0.76 0 1.16 0.76 0 1.2 0.76 0 0 0.8 0 0.04 0.8 0 0.08 0.8 0 0.12 0.8 0 0.16 0.8 0 0.2 0.8 0 0.24 0.8 0 0.28 0.8 0 0.32 0.8 0 0.36 0.8 0 0.4 0.8 0 0.44 0.8 0 0.48 0.8 0 0.52 0.8 0 0.56 0.8 0 0.6 0.8 0 0.64 0.8 0 0.68 0.8 0 0.72 0.8 0 0.76 0.8 0 0.8 0.8 0 0.84 0.8 0 0.88 0.8 0 0.92 0.8 0 0.96 0.8 0 1 0.8 0 1.04 0.8 0 1.08 0.8 0 1.12 0.8 0 1.16 0.8 0 1.2 0.8 0 0 0.84 0 0.04 0.84 0 0.08 0.84 0 0.12 0.84 0 0.16 0.84 0 0.2 0.84 0 0.24 0.84 0 0.28 0.84 0 0.32 0.84 0 0.36 0.84 0 0.4 0.84 0 0.44 0.84 0 0.48 0.84 0 0.52 0.84 0 0.56 0.84 0 0.6 0.84 0 0.64 0.84 0 0.68 0.84 0 0.72 0.84 0 0.76 0.84 0 0.8 0.84 0 0.84 0.84 0 0.88 0.84 0 0.92 0.84 0 0.96 0.84 0 1 0.84 0 1.04 0.84 0 1.08 0.84 0 1.12 0.84 0 1.16 0.84 0 1.2 0.84 0 0 0.88 0 0.04 0.88 0 0.08 0.88 0 0.12 0.88 0 0.16 0.88 0 0.2 0.88 0 0.24 0.88 0 0.28 0.88 0 0.32 0.88 0 0.36 0.88 0 0.4 0.88 0 0.44 0.88 0 0.48 0.88 0 0.52 0.88 0 0.56 0.88 0 0.6 0.88 0 0.64 0.88 0 0.68 0.88 0 0.72 0.88 0 0.76 0.88 0 0.8 0.88 0 0.84 0.88 0 0.88 0.88 0 0.92 0.88 0 0.96 0.88 0 1 0.88 0 1.04 0.88 0 1.08 0.88 0 1.12 0.88 0 1.16 0.88 0 1.2 0.88 0 0 0.92 0 0.04 0.92 0 0.08 0.92 0 0.12 0.92 0 0.16 0.92 0 0.2 0.92 0 0.24 0.92 0 0.28 0.92 0 0.32 0.92 0 0.36 0.92 0 0.4 0.92 0 0.44 0.92 0 0.48 0.92 0 0.52 0.92 0 0.56 0.92 0 0.6 0.92 0 0.64 0.92 0 0.68 0.92 0 0.72 0.92 0 0.76 0.92 0 0.8 0.92 0 0.84 0.92 0 0.88 0.92 0 0.92 0.92 0 0.96 0.92 0 1 0.92 0 1.04 0.92 0 1.08 0.92 0 1.12 0.92 0 1.16 0.92 0 1.2 0.92 0 0 0.96 0 0.04 0.96 0 0.08 0.96 0 0.12 0.96 0 0.16 0.96 0 0.2 0.96 0 0.24 0.96 0 0.28 0.96 0 0.32 0.96 0 0.36 0.96 0 0.4 0.96 0 0.44 0.96 0 0.48 0.96 0 0.52 0.96 0 0.56 0.96 0 0.6 0.96 0 0.64 0.96 0 0.68 0.96 0 0.72 0.96 0 0.76 0.96 0 0.8 0.96 0 0.84 0.96 0 0.88 0.96 0 0.92 0.96 0 0.96 0.96 0 1 0.96 0 1.04 0.96 0 1.08 0.96 0 1.12 0.96 0 1.16 0.96 0 1.2 0.96 0 0 1 0 0.04 1 0 0.08 1 0 0.12 1 0 0.16 1 0 0.2 1 0 0.24 1 0 0.28 1 0 0.32 1 0 0.36 1 0 0.4 1 0 0.44 1 0 0.48 1 0 0.52 1 0 0.56 1 0 0.6 1 0 0.64 1 0 0.68 1 0 0.72 1 0 0.76 1 0 0.8 1 0 0.84 1 0 0.88 1 0 0.92 1 0 0.96 1 0 1 1 0 1.04 1 0 1.08 1 0 1.12 1 0 1.16 1 0 1.2 1 0 0 1.04 0 0.04 1.04 0 0.08 1.04 0 0.12 1.04 0 0.16 1.04 0 0.2 1.04 0 0.24 1.04 0 0.28 1.04 0 0.32 1.04 0 0.36 1.04 0 0.4 1.04 0 0.44 1.04 0 0.48 1.04 0 0.52 1.04 0 0.56 1.04 0 0.6 1.04 0 0.64 1.04 0 0.68 1.04 0 0.72 1.04 0 0.76 1.04 0 0.8 1.04 0 0.84 1.04 0 0.88 1.04 0 0.92 1.04 0 0.96 1.04 0 1 1.04 0 1.04 1.04 0 1.08 1.04 0 1.12 1.04 0 1.16 1.04 0 1.2 1.04 0 0 1.08 0 0.04 1.08 0 0.08 1.08 0 0.12 1.08 0 0.16 1.08 0 0.2 1.08 0 0.24 1.08 0 0.28 1.08 0 0.32 1.08 0 0.36 1.08 0 0.4 1.08 0 0.44 1.08 0 0.48 1.08 0 0.52 1.08 0 0.56 1.08 0 0.6 1.08 0 0.64 1.08 0 0.68 1.08 0 0.72 1.08 0 0.76 1.08 0 0.8 1.08 0 0.84 1.08 0 0.88 1.08 0 0.92 1.08 0 0.96 1.08 0 1 1.08 0 1.04 1.08 0 1.08 1.08 0 1.12 1.08 0 1.16 1.08 0 1.2 1.08 0 0 1.12 0 
[...]
			<PointData Scalars="VitesseX">
				<DataArray Name="VitesseX" type="Float32" format="ascii">
 0 -0.0619043 -0.148549 -0.158359 -0.112827 -0.0059856 0.122455 0.220697 0.320459 0.399895 0.4731 0.540294 0.604053 0.665843 0.726948 0.788214 0.849945 0.912608 0.976518 1.04176 1.10843 1.17672 1.2469 1.3194 1.39471 1.47409 1.55717 1.53752 1.21279 0.584262 0 0 0.149281 0.176421 0.145394 0.120969 0.171258 0.245252 0.300371 0.377591 0.442655 0.505259 0.564423 0.621823 0.678568 0.735372 0.79285 0.851527 0.91176 0.973762 1.03767 1.1036 1.17165 1.24199 1.3149 1.39071 1.4706 1.55352 1.53859 1.21762 0.589844 0 0 0.140645 0.270304 0.321887 0.31293 0.338766 0.374948 0.392919 0.440922 0.483295 0.530399 0.580801 0.633217 0.68714 0.742295 0.798727 0.856746 0.916698 0.978671 1.04261 1.1085 1.17636 1.24636 1.31874 1.39388 1.47306 1.55372 1.55023 1.23944 0.611319 0 0 0.100429 0.235924 0.290587 0.3232 0.369426 0.403287 0.427276 0.47053 0.507237 0.549491 0.595952 0.645066 0.696615 0.750394 0.806228 0.864129 0.924053 0.985867 1.04948 1.11489 1.18216 1.25151 1.32315 1.39752 1.47603 1.55402 1.56985 1.27574 0.646709 0 0 0.0446303 0.163988 0.229346 0.304296 0.360774 0.395879 0.435121 0.482508 0.524545 0.568137 0.613011 0.659087 0.708296 0.76065 0.815725 0.873217 0.932743 0.99402 1.05693 1.12151 1.18795 1.25651 1.32742 1.40128 1.4795 1.55547 1.59578 1.32461 0.695291 0 0 0.0186259 0.104397 0.17865 0.261803 0.327988 0.377022 0.428598 0.47929 0.528968 0.577836 0.625748 0.673312 0.722044 0.77327 0.82741 0.884044 0.942647 1.00294 1.06481 1.12835 1.19381 1.26158 1.33188 1.40556 1.48373 1.55898 1.62615 1.38383 0.756381 0 0 0.021097 0.082912 0.158879 0.234899 0.302669 0.358519 0.415008 0.471673 0.526825 0.5801 0.63227 0.683574 0.7348 0.786867 0.840732 0.896503 0.953893 1.0128 1.07331 1.13564 1.20009 1.2671 1.33691 1.41074 1.48881 1.5651 1.65916 1.45056 0.82863 0 0 0.0277245 0.0810367 0.158758 0.232024 0.298304 0.354622 0.411365 0.468038 0.524546 0.580802 0.636418 0.690974 0.744691 0.798311 0.852655 0.908177 0.964885 1.02283 1.08222 1.14341 1.20692 1.27327 1.34277 1.41699 1.49464 1.57365 1.69383 1.5206 0.909538 0 0 0.0341987 0.089103 0.162813 0.234944 0.299024 0.357226 0.413945 0.469392 0.525603 0.582672 0.639785 0.696354 0.752054 0.806955 0.86192 0.91746 0.973841 1.03127 1.09013 1.15081 1.21395 1.27995 1.34945 1.42426 1.50082 1.58661 1.72838 1.58698 0.99449 0 0 0.0417818 0.098465 0.166945 0.23699 0.301907 0.362064 0.418738 0.473719 0.529539 0.586115 0.643237 0.700308 0.75702 0.813029 0.868625 0.924429 0.980762 1.03805 1.09674 1.15734 1.22062 1.28666 1.35683 1.43216 1.50711 1.60798 1.75931 1.63941 1.07641 0 0 0.0471949 0.104551 0.169661 0.237531 0.303405 0.365294 0.423011 0.47881 0.534039 0.589896 0.646405 0.703204 0.760063 0.816638 0.872865 0.929095 0.985675 1.04318 1.10202 1.16304 1.22675 1.29323 1.36486 1.43967 1.51471 1.64376 1.77784 1.66612 1.14525 0 0 0.0506282 0.107956 0.170534 0.236401 0.302295 0.364902 0.423983 0.480359 0.535869 0.591618 0.647929 0.7046 0.761413 0.818195 0.87496 0.931666 0.988796 1.04676 1.10616 1.16806 1.23233 1.30001 1.37345 1.44594 1.5282 1.69178 1.77491 1.65948 1.17861 0 0 0.0527534 0.109911 0.170355 0.233704 0.298357 0.361488 0.421553 0.479048 0.535183 0.591228 0.647642 0.704432 0.761371 0.818361 0.875366 0.932657 0.990481 1.04909 1.10961 1.17254 1.23765 1.30769 1.3812 1.4519 1.55714 1.72914 1.74912 1.60878 1.13796 0 0 0.053647 0.110489 0.169392 0.230183 0.292577 0.35485 0.41525 0.473859 0.531241 0.588066 0.644991 0.702268 0.759804 0.817308 0.874811 0.932684 0.99115 1.05087 1.11285 1.17665 1.24358 1.31642 1.38689 1.46309 1.61104 1.73226 1.69943 1.49625 0.977289 0 0 0.053758 0.110264 0.167864 0.226489 0.2862 0.346469 0.406372 0.465461 0.523881 0.581778 0.639557 0.697631 0.756024 0.814523 0.873146 0.931925 0.991445 1.05284 1.116 1.18102 1.25144 1.32371 1.3921 1.49355 1.6623 1.70036 1.6107 1.30277 0.68841 0 0 0.0535856 0.109378 0.165731 0.222524 0.280044 0.338405 0.397195 0.456124 0.515024 0.573855 0.632642 0.691562 0.750893 0.810669 0.870524 0.930717 0.992197 1.05514 1.11924 1.18737 1.2604 1.32837 1.40596 1.55631 1.66656 1.63871 1.45948 1.00596 0.35533 0 0 0.0531283 0.107922 0.162955 0.2182 0.274156 0.331254 0.389363 0.448128 0.507321 0.566788 0.626455 0.686368 0.746718 0.807481 0.868662 0.930711 0.993724 1.05755 1.12427 1.19677 1.26612 1.33508 1.45003 1.60421 1.62556 1.52909 1.21571 0.617466 0.125844 0 0 0.0524669 0.106119 0.159872 0.214003 0.26899 0.325328 0.383036 0.441751 0.501217 0.561244 0.621714 0.682591 0.743902 0.805794 0.86844 0.931695 0.9956 1.06174 1.13335 1.20403 1.27073 1.36319 1.52155 1.59023 1.5437 1.33575 0.851594 0.264972 0.0276928 0 0 0.0518223 0.1045 0.157323 0.210719 0.265141 0.321061 0.378576 0.437356 0.497094 0.5576 0.618734 0.680423 0.742721 0.80567 0.869174 0.933355 0.999577 1.07057 1.14183 1.20838 1.28994 1.43485 1.53674 1.52618 1.39011 1.01725 0.428748 0.0734517 0.00333963 0 0 0.0514155 0.103399 0.155663 0.208711 0.262948 0.318718 0.376186 0.435096 0.49509 0.555986 0.617649 0.679986 0.742945 0.806579 0.871125 0.937836 1.00861 1.07968 1.14665 1.22413 1.35541 1.47403 1.48877 1.39916 1.11402 0.577781 0.139449 0.01122 0.000185859 0 0 0.0512772 0.10292 0.155024 0.208055 0.26235 0.318166 0.375665 0.434678 0.49487 0.556044 0.618095 0.680967 0.744708 0.809682 0.876996 0.947612 1.01791 1.08542 1.16283 1.28636 1.40735 1.43854 1.37744 1.15482 0.686851 0.209893 0.0255527 0.000814502 3.63036e-06 0 0 0.0513566 0.10298 0.155195 0.208421 0.262946 0.318972 0.376631 0.435849 0.496384 0.558047 0.620748 0.684584 0.750016 0.817748 0.887767 0.956994 1.0253 1.1057 1.22701 1.34032 1.37904 1.33473 1.15286 0.746272 0.268322 0.043645 0.00220503 2.06212e-05 3.04972e-08 0 0 0.0517611 0.103718 0.156458 0.210324 0.265494 0.322092 0.380215 0.439877 0.500962 0.563374 0.627244 0.692907 0.760499 0.829265 0.897505 0.96767 1.05426 1.17473 1.27355 1.3124 1.27604 1.11762 0.757266 0.302335 0.0597977 0.00416538 6.71106e-05 1.64177e-07 3.5608e-10 0 0 0.0525815 0.105402 0.159191 0.214194 0.270461 0.328031 0.386988 0.447432 0.509431 0.573061 0.638364 0.705033 0.772321 0.840539 0.915384 1.01097 1.1245 1.20568 1.23885 1.20316 1.05461 0.725381 0.306372 0.0684781 0.0059163 0.000138939 5.4822e-07 1.21874e-09 -1.86705e-11 0 0 0.0538018 0.107965 0.163269 0.219843 0.277628 0.33658 0.396764 0.458299 0.52125 0.585523 0.650916 0.717816 0.789175 0.872583 0.974477 1.06904 1.13434 1.15688 1.11541 0.965883 0.65615 0.281264 0.0669346 0.00657382 0.00019618 1.1118e-06 2.83103e-09 4.10681e-11 -3.32192e-11 0 0 0.0552962 0.111406 0.168347 0.226826 0.286298 0.346679 0.40796 0.470251 0.533854 0.599615 0.669749 0.748654 0.839901 0.930163 1.00404 1.05616 1.06372 1.01 0.851174 0.555232 0.233312 0.056 0.00579361 0.000195574 1.40067e-06 4.3638e-09 -5.08515e-11 6.68175e-11 1.55959e-13 0 0 0.0577756 0.113601 0.174299 0.233922 0.295285 0.357402 0.420796 0.486546 0.556447 0.633123 0.716055 0.79723 0.869209 0.930087 0.963332 0.95499 0.882428 0.709748 0.431456 0.172756 0.0394766 0.00401253 0.000137765 1.10879e-06 4.35524e-09 -1.31888e-11 1.69284e-13 -1.29127e-13 3.35603e-11 0 0 0.0471195 0.126025 0.174556 0.24827 0.314651 0.380864 0.448294 0.518804 0.593505 0.66854 0.736971 0.797257 0.839994 0.853505 0.824129 0.728395 0.543369 0.299073 0.110426 0.0226139 0.00210634 6.6315e-05 5.44967e-07 2.81469e-09 1.59046e-11 1.55121e-13 -9.07009e-14 6.83627e-14 -7.59936e-14 0 0 0.0571257 0.0379054 0.190749 0.276357 0.355086 0.428035 0.498967 0.56785 0.631506 0.684546 0.724347 0.742829 0.729385 0.670324 0.548538 0.364563 0.177683 0.0574039 0.00988939 0.000778498 2.03468e-05 1.62412e-07 1.23265e-09 -2.56833e-11 6.32822e-14 7.02871e-14 -6.83624e-14 8.15961e-14 -8.24414e-14 0 0 -0.319108 0.0719937 0.218673 0.330689 0.422862 0.506487 0.583721 0.651847 0.70452 0.732569 0.724276 0.662757 0.54086 0.375698 0.207547 0.0855571 0.0219832 0.00299121 0.000178901 3.5768e-06 2.99194e-08 3.2756e-10 -1.88454e-11 3.35366e-11 -3.27454e-14 -3.33761e-11 -6.0777e-14 8.07964e-14 3.34285e-11 0 0 0 0 0 0 0 0 0 0 0 0 0 0 0 0 0 0 0 0 0 0 0 0 0 0 0 0 0 0 0 0
				</DataArray>
				<DataArray Name="VitesseY" type="Float32" format="ascii">
 0 0 0 0 0 0 0 0 0 0 0 0 0 0 0 0 0 0 0 0 0 0 0 0 0 0 0 0 0 0 0 -0.0618755 0.149249 0.140606 0.100403 0.0446249 0.018628 0.0210995 0.0277298 0.0342058 0.0417877 0.0471997 0.0506327 0.052758 0.0536512 0.0537619 0.0535892 0.0531314 0.0524693 0.0518235 0.0514158 0.0512769 0.051356 0.0517603 0.0525809 0.053796 0.0553596 0.0571581 0.0617205 0.071176 0.0883384 0 -0.148533 0.176381 0.270294 0.23592 0.163988 0.104408 0.082928 0.0810543 0.0891192 0.0984749 0.104556 0.10796 0.109916 0.110493 0.110269 0.109383 0.107926 0.106122 0.104501 0.103399 0.102919 0.102979 0.103717 0.105401 0.107966 0.111236 0.114973 0.124074 0.143032 0.174416 0 -0.15838 0.145321 0.321843 0.290558 0.229331 0.17866 0.158906 0.158787 0.162836 0.166958 0.169666 0.170535 0.170356 0.169395 0.167869 0.165736 0.16296 0.159875 0.157324 0.155663 0.155023 0.155194 0.156457 0.159189 0.163261 0.168384 0.174109 0.187404 0.214849 0.259407 0 -0.112864 0.120903 0.312884 0.323176 0.30428 0.261811 0.23493 0.232057 0.234973 0.23701 0.237541 0.236404 0.233704 0.230183 0.226491 0.222527 0.218202 0.214005 0.210719 0.208711 0.208054 0.20842 0.210323 0.214193 0.219842 0.226821 0.234353 0.251312 0.286397 0.343587 0 -0.00602996 0.171204 0.338735 0.369419 0.360775 0.328003 0.302696 0.298331 0.299049 0.301927 0.303419 0.302303 0.29836 0.292578 0.286201 0.280045 0.274156 0.26899 0.265141 0.262948 0.262349 0.262945 0.265493 0.270461 0.277627 0.286302 0.295437 0.315721 0.357656 0.426607 0 0.122394 0.245202 0.374916 0.403265 0.395865 0.377022 0.358535 0.354643 0.357248 0.362083 0.365308 0.364913 0.361495 0.354853 0.34647 0.338405 0.331253 0.325327 0.32106 0.318717 0.318165 0.318971 0.322092 0.328031 0.33658 0.346684 0.357431 0.381073 0.428645 0.507461 0 0.220637 0.300336 0.392908 0.427262 0.435111 0.428596 0.415016 0.411379 0.41396 0.418754 0.423025 0.423995 0.421562 0.415255 0.406373 0.397194 0.389361 0.383034 0.378574 0.376185 0.375663 0.376629 0.380214 0.386988 0.396765 0.407962 0.420799 0.448317 0.499104 0.583949 0 0.320402 0.377562 0.440926 0.470525 0.482497 0.479282 0.471672 0.468047 0.469403 0.473733 0.478824 0.480371 0.479057 0.473864 0.465462 0.456122 0.448126 0.441749 0.437353 0.435093 0.434676 0.435847 0.439876 0.447431 0.4583 0.470252 0.486546 0.518808 0.567878 0.651896 0 0.399845 0.442633 0.483302 0.50724 0.524535 0.528958 0.526821 0.524551 0.525613 0.529552 0.534052 0.535879 0.535191 0.531245 0.523881 0.515023 0.507319 0.501214 0.497092 0.495087 0.494867 0.496381 0.50096 0.50943 0.52125 0.533854 0.556448 0.593508 0.631513 0.704532 0 0.473057 0.505242 0.530405 0.549498 0.568133 0.577826 0.580095 0.580805 0.582681 0.586126 0.589906 0.591626 0.591234 0.588068 0.581777 0.573853 0.566786 0.561242 0.557598 0.555984 0.556041 0.558045 0.563372 0.573061 0.585523 0.599616 0.633124 0.668541 0.684548 0.732572 0 0.540255 0.56441 0.580803 0.59596 0.613014 0.62574 0.632266 0.63642 0.639793 0.643246 0.646412 0.647935 0.647646 0.644992 0.639556 0.63264 0.626454 0.621712 0.618733 0.617647 0.618093 0.620746 0.627242 0.638363 0.650915 0.669749 0.716056 0.736972 0.724348 0.724277 0 0.604021 0.621812 0.633215 0.645072 0.659092 0.673309 0.683572 0.690978 0.69636 0.700315 0.70321 0.704604 0.704434 0.702268 0.697629 0.691559 0.686366 0.68259 0.680421 0.679985 0.680966 0.684583 0.692906 0.705032 0.717816 0.748655 0.79723 0.797257 0.742828 0.662755 0 0.665817 0.678559 0.687136 0.696618 0.7083 0.722044 0.734801 0.744696 0.75206 0.757025 0.760067 0.761415 0.761372 0.759804 0.756022 0.750891 0.746716 0.743901 0.74272 0.742944 0.744708 0.750016 0.760498 0.77232 0.789175 0.839901 0.869209 0.839994 0.729384 0.540857 0 0.726929 0.735365 0.742291 0.750394 0.760652 0.773271 0.786869 0.798317 0.806961 0.813033 0.816641 0.818197 0.818362 0.817308 0.814522 0.810668 0.80748 0.805793 0.805669 0.806578 0.809682 0.817748 0.829264 0.840539 0.872582 0.930163 0.930086 0.853504 0.670322 0.375694 0 0.7882 0.792845 0.798724 0.806227 0.815725 0.82741 0.840733 0.852661 0.861926 0.868629 0.872867 0.874961 0.875367 0.874811 0.873146 0.870523 0.868662 0.868439 0.869174 0.871125 0.876996 0.887767 0.897505 0.915384 0.974478 1.00404 0.96333 0.824127 0.548534 0.207544 0 0.849936 0.851523 0.856743 0.864126 0.873214 0.884043 0.896504 0.908182 0.917466 0.924433 0.929097 0.931667 0.932658 0.932685 0.931926 0.930717 0.930711 0.931695 0.933355 0.937835 0.947612 0.956993 0.967668 1.01097 1.06904 1.05616 0.954989 0.728391 0.36456 0.0855555 0 0.912603 0.911757 0.916696 0.924049 0.932739 0.942644 0.953892 0.96489 0.973846 0.980766 0.985677 0.988797 0.990482 0.991151 0.991446 0.992198 0.993724 0.9956 0.999576 1.00861 1.01791 1.0253 1.05426 1.1245 1.13434 1.06372 0.882425 0.543365 0.17768 0.0219826 0 0.976515 0.97376 0.978667 0.985862 0.994015 1.00293 1.0128 1.02283 1.03128 1.03805 1.04318 1.04676 1.04909 1.05087 1.05284 1.05514 1.05755 1.06174 1.07057 1.07968 1.08542 1.1057 1.17473 1.20568 1.15688 1.01 0.709744 0.299069 0.0574027 0.00299111 0 1.04176 1.03767 1.04261 1.04948 1.05692 1.0648 1.07331 1.08222 1.09014 1.09674 1.10202 1.10616 1.10961 1.11285 1.116 1.11924 1.12427 1.13335 1.14183 1.14665 1.16283 1.22701 1.27355 1.23884 1.1154 0.85117 0.431452 0.110424 0.00988911 0.000178893 0 1.10843 1.10359 1.1085 1.11488 1.12151 1.12834 1.13564 1.14341 1.15082 1.15734 1.16304 1.16806 1.17254 1.17665 1.18102 1.18737 1.19677 1.20403 1.20838 1.22413 1.28636 1.34031 1.31239 1.20315 0.965879 0.555227 0.172754 0.0226135 0.000778469 3.57659e-06 0 1.17672 1.17164 1.17635 1.18216 1.18795 1.19381 1.20009 1.20692 1.21396 1.22062 1.22675 1.23233 1.23765 1.24358 1.25144 1.2604 1.26612 1.27073 1.28994 1.35541 1.40735 1.37904 1.27604 1.0546 0.656146 0.233309 0.0394759 0.00210629 2.03459e-05 2.99177e-08 0 1.2469 1.24199 1.24635 1.25151 1.25651 1.26158 1.2671 1.27328 1.27995 1.28666 1.29324 1.30001 1.30769 1.31642 1.32371 1.32837 1.33509 1.36319 1.43485 1.47403 1.43854 1.33473 1.11762 0.725379 0.281262 0.0559993 0.00401243 6.63124e-05 1.62404e-07 3.27544e-10 0 1.3194 1.3149 1.31874 1.32314 1.32742 1.33188 1.33691 1.34277 1.34946 1.35683 1.36486 1.37346 1.3812 1.38689 1.3921 1.40596 1.45003 1.52155 1.53675 1.48877 1.37744 1.15285 0.757264 0.306372 0.0669344 0.00579355 0.000137762 5.44941e-07 1.23259e-09 -1.88455e-11 0 1.39469 1.3907 1.39387 1.39751 1.40128 1.40556 1.41074 1.41699 1.42426 1.43216 1.43967 1.44594 1.4519 1.46309 1.49355 1.55631 1.60421 1.59023 1.52618 1.39916 1.15482 0.746274 0.302336 0.0684782 0.00657382 0.000195572 1.10877e-06 2.81461e-09 -2.56839e-11 3.35366e-11 0 1.4741 1.47049 1.47297 1.47603 1.47945 1.48373 1.48882 1.49465 1.50083 1.50711 1.51472 1.52821 1.55714 1.61104 1.6623 1.66657 1.62556 1.5437 1.39011 1.11402 0.686855 0.268324 0.0597983 0.00591636 0.000196181 1.40067e-06 4.35521e-09 1.59043e-11 6.32618e-14 -3.27454e-14 0 1.55498 1.55283 1.5532 1.55366 1.556 1.55915 1.56512 1.57365 1.58661 1.60799 1.64376 1.69179 1.72914 1.73226 1.70036 1.63871 1.5291 1.33576 1.01726 0.577786 0.209895 0.0436458 0.00416548 0.000138943 1.11182e-06 4.36383e-09 -1.31888e-11 1.55121e-13 7.02871e-14 -3.33761e-11 0 1.60905 1.59349 1.58905 1.59216 1.60079 1.62736 1.65939 1.69387 1.72839 1.75931 1.77785 1.77491 1.74913 1.69943 1.6107 1.45948 1.21571 0.851601 0.428753 0.139451 0.0255532 0.00220509 6.71132e-05 5.48245e-07 2.83111e-09 -5.08512e-11 1.69284e-13 -9.07009e-14 -6.83624e-14 -6.0777e-14 0 1.40672 1.41421 1.34617 1.2944 1.33318 1.38572 1.45091 1.52069 1.587 1.63942 1.66612 1.65948 1.60878 1.49625 1.30278 1.00597 0.617472 0.264976 0.0734533 0.0112204 0.000814533 2.06222e-05 1.64185e-07 1.21879e-09 4.10688e-11 6.68175e-11 -1.29127e-13 6.83627e-14 8.15961e-14 8.07964e-14 0 1.29902 0.947532 0.601268 0.664857 0.69707 0.756946 0.828827 0.909579 0.994499 1.07641 1.14525 1.17861 1.13796 0.977294 0.688416 0.355334 0.125847 0.0276936 0.00333975 0.000185867 3.63058e-06 3.0499e-08 3.56096e-10 -1.86704e-11 -3.32192e-11 1.55959e-13 3.35603e-11 -7.59936e-14 -8.24414e-14 3.34285e-11 0 2.40051 0 0 0 0 0 0 0 0 0 0 0 0 0 0 0 0 0 0 0 0 0 0 0 0 0 0 0 0 0 0
				</DataArray>
			</PointData>
			<CellData Scalars="Density">
				<DataArray Name="Density" type="Float32" format="ascii">