<?xml version="1.0"?>
<VTKFile type="PolyData">
	<PolyData>
		<Piece NumberOfPoints="961" NumberOfPolys="900">
			<Points>
				<DataArray type="Float32" NumberOfComponents="3" format="ascii">
 0 0 0 0.04 0 0 0.08 0 0 0.12 0 0 0.16 0 0 0.2 0 0 0.24 0 0 0.28 0 0 0.32 0 0 0.36 0 0 0.4 0 0 0.44 0 0 0.48 0 0 0.52 0 0 0.56 0 0 0.6 0 0 0.64 0 0 0.68 0 0 0.72 0 0 0.76 0 0 0.8 0 0 0.84 0 0 0.88 0 0 0.92 0 0 0.96 0 0 1 0 0 1.04 0 0 1.08 0 0 1.12 0 0 1.16 0 0 1.2 0 0 0 0.04 0 0.04 0.04 0 0.08 0.04 0 0.12 0.04 0 0.16 0.04 0 0.2 0.04 0 0.24 0.04 0 0.28 0.04 0 0.32 0.04 0 0.36 0.04 0 0.4 0.04 0 0.44 0.04 0 0.48 0.04 0 0.52 0.04 0 0.56 0.04 0 0.6 0.04 0 0.64 0.04 0 0.68 0.04 0 0.72 0.04 0 0.76 0.04 0 0.8 0.04 0 0.84 0.04 0 0.88 0.04 0 0.92 0.04 0 0.96 0.04 0 1 0.04 0 1.04 0.04 0 1.08 0.04 0 1.12 0.04 0 1.16 0.04 0 1.2 0.04 0 0 0.08 0 0.04 0.08 0 0.08 0.08 0 0.12 0.08 0 0.16 0.08 0 0.2 0.08 0 0.24 0.08 0 0.28 0.08 0 0.32 0.08 0 0.36 0.08 0 0.4 0.08 0 0.44 0.08 0 0.48 0.08 0 0.52 0.08 0 0.56 0.08 0 0.6 0.08 0 0.64 0.08 0 0.68 0.08 0 0.72 0.08 0 0.76 0.08 0 0.8 0.08 0 0.84 0.08 0 0.88 0.08 0 0.92 0.08 0 0.96 0.08 0 1 0.08 0 1.04 0.08 0 1.08 0.08 0 1.12 0.08 0 1.16 0.08 0 1.2 0.08 0 0 0.12 0 0.04 0.12 0 0.08 0.12 0 0.12 0.12 0 0.16 0.12 0 0.2 0.12 0 0.24 0.12 0 0.28 0.12 0 0.32 0.12 0 0.36 0.12 0 0.4 0.12 0 0.44 0.12 0 0.48 0.12 0 0.52 0.12 0 0.56 0.12 0 0.6 0.12 0 0.64 0.12 0 0.68 0.12 0 0.72 0.12 0 0.76 0.12 0 0.8 0.12 0 0.84 0.12 0 0.88 0.12 0 0.92 0.12 0 0.96 0.12 0 1 0.12 0 1.04 0.12 0 1.08 0.12 0 1.12 0.12 0 1.16 0.12 0 1.2 0.12 0 0 0.16 0 0.04 0.16 0 0.08 0.16 0 0.12 0.16 0 0.16 0.16 0 0.2 0.16 0 0.24 0.16 0 0.28 0.16 0 0.32 0.16 0 0.36 0.16 0 0.4 0.16 0 0.44 0.16 0 0.48 0.16 0 0.52 0.16 0 0.56 0.16 0 0.6 0.16 0 0.64 0.16 0 0.68 0.16 0 0.72 0.16 0 0.76 0.16 0 0.8 0.16 0 0.84 0.16 0 0.88 0.16 0 0.92 0.16 0 0.96 0.16 0 1 0.16 0 1.04 0.16 0 1.08 0.16 0 1.12 0.16 0 1.16 0.16 0 1.2 0.16 0 0 0.2 0 0.04 0.2 0 0.08 0.2 0 0.12 0.2 0 0.16 0.2 0 0.2 0.2 0 0.24 0.2 0 0.28 0.2 0 0.32 0.2 0 0.36 0.2 0 0.4 0.2 0 0.44 0.2 0 0.48 0.2 0 0.52 0.2 0 0.56 0.2 0 0.6 0.2 0 0.64 0.2 0 0.68 0.2 0 0.72 0.2 0 0.76 0.2 0 0.8 0.2 0 0.84 0.2 0 0.88 0.2 0 0.92 0.2 0 0.96 0.2 0 1 0.2 0 1.04 0.2 0 1.08 0.2 0 1.12 0.2 0 1.16 0.2 0 1.2 0.2 0 0 0.24 0 0.04 0.24 0 0.08 0.24 0 0.12 0.24 0 0.16 0.24 0 0.2 0.24 0 0.24 0.24 0 0.28 0.24 0 0.32 0.24 0 0.36 0.24 0 0.4 0.24 0 0.44 0.24 0 0.48 0.24 0 0.52 0.24 0 0.56 0.24 0 0.6 0.24 0 0.64 0.24 0 0.68 0.24 0 0.72 0.24 0 0.76 0.24 0 0.8 0.24 0 0.84 0.24 0 0.88 0.24 0 0.92 0.24 0 0.96 0.24 0 1 0.24 0 1.04 0.24 0 1.08 0.24 0 1.12 0.24 0 1.16 0.24 0 1.2 0.24 0 0 0.28 0 0.04 0.28 0 0.08 0.28 0 0.12 0.28 0 0.16 0.28 0 0.2 0.28 0 0.24 0.28 0 0.28 0.28 0 0.32 0.28 0 0.36 0.28 0 0.4 0.28 0 0.44 0.28 0 0.48 0.28 0 0.52 0.28 0 0.56 0.28 0 0.6 0.28 0 0.64 0.28 0 0.68 0.28 0 0.72 0.28 0 0.76 0.28 0 0.8 0.28 0 0.84 0.28 0 0.88 0.28 0 0.92 0.28 0 0.96 0.28 0 1 0.28 0 1.04 0.28 0 1.08 0.28 0 1.12 0.28 0 1.16 0.28 0 1.2 0.28 0 0 0.32 0 0.04 0.32 0 0.08 0.32 0 0.12 0.32 0 0.16 0.32 0 0.2 0.32 0 0.24 0.32 0 0.28 0.32 0 0.32 0.32 0 0.36 0.32 0 0.4 0.32 0 0.44 0.32 0 0.48 0.32 0 0.52 0.32 0 0.56 0.32 0 0.6 0.32 0 0.64 0.32 0 0.68 0.32 0 0.72 0.32 0 0.76 0.32 0 0.8 0.32 0 0.84 0.32 0 0.88 0.32 0 0.92 0.32 0 0.96 0.32 0 1 0.32 0 1.04 0.32 0 1.08 0.32 0 1.12 0.32 0 1.16 0.32 0 1.2 0.32 0 0 0.36 0 0.04 0.36 0 0.08 0.36 0 0.12 0.36 0 0.16 0.36 0 0.2 0.36 0 0.24 0.36 0 0.28 0.36 0 0.32 0.36 0 0.36 0.36 0 0.4 0.36 0 0.44 0.36 0 0.48 0.36 0 0.52 0.36 0 0.56 0.36 0 0.6 0.36 0 0.64 0.36 0 0.68 0.36 0 0.72 0.36 0 0.76 0.36 0 0.8 0.36 0 0.84 0.36 0 0.88 0.36 0 0.92 0.36 0 0.96 0.36 0 1 0.36 0 1.04 0.36 0 1.08 0.36 0 1.12 0.36 0 1.16 0.36 0 1.2 0.36 0 0 0.4 0 0.04 0.4 0 0.08 0.4 0 0.12 0.4 0 0.16 0.4 0 0.2 0.4 0 0.24 0.4 0 0.28 0.4 0 0.32 0.4 0 0.36 0.4 0 0.4 0.4 0 0.44 0.4 0 0.48 0.4 0 0.52 0.4 0 0.56 0.4 0 0.6 0.4 0 0.64 0.4 0 0.68 0.4 0 0.72 0.4 0 0.76 0.4 0 0.8 0.4 0 0.84 0.4 0 0.88 0.4 0 0.92 0.4 0 0.96 0.4 0 1 0.4 0 1.04 0.4 0 1.08 0.4 0 1.12 0.4 0 1.16 0.4 0 1.2 0.4 0 0 0.44 0 0.04 0.44 0 0.08 0.44 0 0.12 0.44 0 0.16 0.44 0 0.2 0.44 0 0.24 0.44 0 0.28 0.44 0 0.32 0.44 0 0.36 0.44 0 0.4 0.44 0 0.44 0.44 0 0.48 0.44 0 0.52 0.44 0 0.56 0.44 0 0.6 0.44 0 0.64 0.44 0 0.68 0.44 0 0.72 0.44 0 0.76 0.44 0 0.8 0.44 0 0.84 0.44 0 0.88 0.44 0 0.92 0.44 0 0.96 0.44 0 1 0.44 0 1.04 0.44 0 1.08 0.44 0 1.12 0.44 0 1.16 0.44 0 1.2 0.44 0 0 0.48 0 0.04 0.48 0 0.08 0.48 0 0.12 0.48 0 0.16 0.48 0 0.2 0.48 0 0.24 0.48 0 0.28 0.48 0 0.32 0.48 0 0.36 0.48 0 0.4 0.48 0 0.44 0.48 0 0.48 0.48 0 0.52 0.48 0 0.56 0.48 0 0.6 0.48 0 0.64 0.48 0 0.68 0.48 0 0.72 0.48 0 0.76 0.48 0 0.8 0.48 0 0.84 0.48 0 0.88 0.48 0 0.92 0.48 0 0.96 0.48 0 1 0.48 0 1.04 0.48 0 1.08 0.48 0 1.12 0.48 0 1.16 0.48 0 1.2 0.48 0 0 0.52 0 0.04 0.52 0 0.08 0.52 0 0.12 0.52 0 0.16 0.52 0 0.2 0.52 0 0.24 0.52 0 0.28 0.52 0 0.32 0.52 0 0.36 0.52 0 0.4 0.52 0 0.44 0.52 0 0.48 0.52 0 0.52 0.52 0 0.56 0.52 0 0.6 0.52 0 0.64 0.52 0 0.68 0.52 0 0.72 0.52 0 0.76 0.52 0 0.8 0.52 0 0.84 0.52 0 0.88 0.52 0 0.92 0.52 0 0.96 0.52 0 1 0.52 0 1.04 0.52 0 1.08 0.52 0 1.12 0.52 0 1.16 0.52 0 1.2 0.52 0 0 0.56 0 0.04 0.56 0 0.08 0.56 0 0.12 0.56 0 0.16 0.56 0 0.2 0.56 0 0.24 0.56 0 0.28 0.56 0 0.32 0.56 0 0.36 0.56 0 0.4 0.56 0 0.44 0.56 0 0.48 0.56 0 0.52 0.56 0 0.56 0.56 0 0.6 0.56 0 0.64 0.56 0 0.68 0.56 0 0.72 0.56 0 0.76 0.56 0 0.8 0.56 0 0.84 0.56 0 0.88 0.56 0 0.92 0.56 0 0.96 0.56 0 1 0.56 0 1.04 0.56 0 1.08 0.56 0 1.12 0.56 0 1.16 0.56 0 1.2 0.56 0 0 0.6 0 0.04 0.6 0 0.08 0.6 0 0.12 0.6 0 0.16 0.6 0 0.2 0.6 0 0.24 0.6 0 0.28 0.6 0 0.32 0.6 0 0.36 0.6 0 0.4 0.6 0 0.44 0.6 0 0.48 0.6 0 0.52 0.6 0 0.56 0.6 0 0.6 0.6 0 0.64 0.6 0 0.68 0.6 0 0.72 0.6 0 0.76 0.6 0 0.8 0.6 0 0.84 0.6 0 0.88 0.6 0 0.92 0.6 0 0.96 0.6 0 1 0.6 0 1.04 0.6 0 1.08 0.6 0 1.12 0.6 0 1.16 0.6 0 1.2 0.6 0 0 0.64 0 0.04 0.64 0 0.08 0.64 0 0.12 0.64 0 0.16 0.64 0 0.2 0.64 0 0.24 0.64 0 0.28 0.64 0 0.32 0.64 0 0.36 0.64 0 0.4 0.64 0 0.44 0.64 0 0.48 0.64 0 0.52 0.64 0 0.56 0.64 0 0.6 0.64 0 0.64 0.64 0 0.68 0.64 0 0.72 0.64 0 0.76 0.64 0 0.8 0.64 0 0.84 0.64 0 0.88 0.64 0 0.92 0.64 0 0.96 0.64 0 1 0.64 0 1.04 0.64 0 1.08 0.64 0 1.12 0.64 0 1.16 0.64 0 1.2 0.64 0 0 0.68 0 0.04 0.68 0 0.08 0.68 0 0.12 0.68 0 0.16 0.68 0 0.2 0.68 0 0.24 0.68 0 0.28 0.68 0 0.32 0.68 0 0.36 0.68 0 0.4 0.68 0 0.44 0.68 0 0.48 0.68 0 0.52 0.68 0 0.56 0.68 0 0.6 0.68 0 0.64 0.68 0 0.68 0.68 0 0.72 0.68 0 0.76 0.68 0 0.8 0.68 0 0.84 0.68 0 0.88 0.68 0 0.92 0.68 0 0.96 0.68 0 1 0.68 0 1.04 0.68 0 1.08 0.68 0 1.12 0.68 0 1.16 0.68 0 1.2 0.68 0 0 0.72 0 0.04 0.72 0 0.08 0.72 0 0.12 0.72 0 0.16 0.72 0 0.2 0.72 0 0.24 0.72 0 0.28 0.72 0 0.32 0.72 0 0.36 0.72 0 0.4 0.72 0 0.44 0.72 0 0.48 0.72 0 0.52 0.72 0 0.56 0.72 0 0.6 0.72 0 0.64 0.72 0 0.68 0.72 0 0.72 0.72 0 0.76 0.72 0 0.8 0.72 0 0.84 0.72 0 0.88 0.72 0 0.92 0.72 0 0.96 0.72 0 1 0.72 0 1.04 0.72 0 1.08 0.72 0 1.12 0.72 0 1.16 0.72 0 1.2 0.72 0 0 0.76 0 0.04 0.76 0 0.08 0.76 0 0.12 0.76 0 0.16 0.76 0 0.2 0.76 0 0.24 0.76 0 0.28 0.76 0 0.32 0.76 0 0.36 0.76 0 0.4 0.76 0 0.44 0.76 0 0.48 0.76 0 0.52 0.76 0 0.56 0.76 0 0.6 0.76 0 0.64 0.76 0 0.68 0.76 0 0.72 0.76 0 0.76 0.76 0 0.8 0.76 0 0.84 0.76 0 0.88 0.76 0 0.92 0.76 0 0.96 0.76 0 1 0.76 0 1.04 0.76 0 1.08 0.76 0 1.12 0.76 0 1.16 0.76 0 1.2 0.76 0 0 0.8 0 0.04 0.8 0 0.08 0.8 0 0.12 0.8 0 0.16 0.8 0 0.2 0.8 0 0.24 0.8 0 0.28 0.8 0 0.32 0.8 0 0.36 0.8 0 0.4 0.8 0 0.44 0.8 0 0.48 0.8 0 0.52 0.8 0 0.56 0.8 0 0.6 0.8 0 0.64 0.8 0 0.68 0.8 0 0.72 0.8 0 0.76 0.8 0 0.8 0.8 0 0.84 0.8 0 0.88 0.8 0 0.92 0.8 0 0.96 0.8 0 1 0.8 0 1.04 0.8 0 1.08 0.8 0 1.12 0.8 0 1.16 0.8 0 1.2 0.8 0 0 0.84 0 0.04 0.84 0 0.08 0.84 0 0.12 0.84 0 0.16 0.84 0 0.2 0.84 0 0.24 0.84 0 0.28 0.84 0 0.32 0.84 0 0.36 0.84 0 0.4 0.84 0 0.44 0.84 0 0.48 0.84 0 0.52 0.84 0 0.56 0.84 0 0.6 0.84 0 0.64 0.84 0 0.68 0.84 0 0.72 0.84 0 0.76 0.84 0 0.8 0.84 0 0.84 0.84 0 0.88 0.84 0 0.92 0.84 0 0.96 0.84 0 1 0.84 0 1.04 0.84 0 1.08 0.84 0 1.12 0.84 0 1.16 0.84 0 1.2 0.84 0 0 0.88 0 0.04 0.88 0 0.08 0.88 0 0.12 0.88 0 0.16 0.88 0 0.2 0.88 0 0.24 0.88 0 0.28 0.88 0 0.32 0.88 0 0.36 0.88 0 0.4 0.88 0 0.44 0.88 0 0.48 0.88 0 0.52 0.88 0 0.56 0.88 0 0.6 0.88 0 0.64 0.88 0 0.68 0.88 0 0.72 0.88 0 0.76 0.88 0 0.8 0.88 0 0.84 0.88 0 0.88 0.88 0 0.92 0.88 0 0.96 0.88 0 1 0.88 0 1.04 0.88 0 1.08 0.88 0 1.12 0.88 0 1.16 0.88 0 1.2 0.88 0 0 0.92 0 0.04 0.92 0 0.08 0.92 0 0.12 0.92 0 0.16 0.92 0 0.2 0.92 0 0.24 0.92 0 0.28 0.92 0 0.32 0.92 0 0.36 0.92 0 0.4 0.92 0 0.44 0.92 0 0.48 0.92 0 0.52 0.92 0 0.56 0.92 0 0.6 0.92 0 0.64 0.92 0 0.68 0.92 0 0.72 0.92 0 0.76 0.92 0 0.8 0.92 0 0.84 0.92 0 0.88 0.92 0 0.92 0.92 0 0.96 0.92 0 1 0.92 0 1.04 0.92 0 1.08 0.92 0 1.12 0.92 0 1.16 0.92 0 1.2 0.92 0 0 0.96 0 0.04 0.96 0 0.08 0.96 0 0.12 0.96 0 0.16 0.96 0 0.2 0.96 0 0.24 0.96 0 0.28 0.96 0 0.32 0.96 0 0.36 0.96 0 0.4 0.96 0 0.44 0.96 0 0.48 0.96 0 0.52 0.96 0 0.56 0.96 0 0.6 0.96 0 0.64 0.96 0 0.68 0.96 0 0.72 0.96 0 0.76 0.96 0 0.8 0.96 0 0.84 0.96 0 0.88 0.96 0 0.92 0.96 0 0.96 0.96 0 1 0.96 0 1.04 0.96 0 1.08 0.96 0 1.12 0.96 0 1.16 0.96 0 1.2 0.96 0 0 1 0 0.04 1 0 0.08 1 0 0.12 1 0 0.16 1 0 0.2 1 0 0.24 1 0 0.28 1 0 0.32 1 0 0.36 1 0 0.4 1 0 0.44 1 0 0.48 1 0 0.52 1 0 0.56 1 0 0.6 1 0 0.64 1 0 0.68 1 0 0.72 1 0 0.76 1 0 0.8 1 0 0.84 1 0 0.88 1 0 0.92 1 0 0.96 1 0 1 1 0 1.04 1 0 1.08 1 0 1.12 1 0 1.16 1 0 1.2 1 0 0 1.04 0 0.04 1.04 0 0.08 1.04 0 0.12 1.04 0 0.16 1.04 0 0.2 1.04 0 0.24 1.04 0 0.28 1.04 0 0.32 1.04 0 0.36 1.04 0 0.4 1.04 0 0.44 1.04 0 0.48 1.04 0 0.52 1.04 0 0.56 1.04 0 0.6 1.04 0 0.64 1.04 0 0.68 1.04 0 0.72 1.04 0 0.76 1.04 0 0.8 1.04 0 0.84 1.04 0 0.88 1.04 0 0.92 1.04 0 0.96 1.04 0 1 1.04 0 1.04 1.04 0 1.08 1.04 0 1.12 1.04 0 1.16 1.04 0 1.2 1.04 0 0 1.08 0 0.04 1.08 0 0.08 1.08 0 0.12 1.08 0 0.16 1.08 0 0.2 1.08 0 0.24 1.08 0 0.28 1.08 0 0.32 1.08 0 0.36 1.08 0 0.4 1.08 0 0.44 1.08 0 0.48 1.08 0 0.52 1.08 0 0.56 1.08 0 0.6 1.08 0 0.64 1.08 0 0.68 1.08 0 0.72 1.08 0 0.76 1.08 0 0.8 1.08 0 0.84 1.08 0 0.88 1.08 0 0.92 1.08 0 0.96 1.08 0 1 1.08 0 1.04 1.08 0 1.08 1.08 0 1.12 1.08 0 1.16 1.08 0 1.2 1.08 0 0 1.12 0 
[...]
			<PointData Scalars="VitesseX">
				<DataArray Name="VitesseX" type="Float32" format="ascii">
 0 0.0128368 -0.227963 -0.144848 -0.0331367 0.240996 0.293538 0.503276 0.617591 0.745935 0.86785 0.986772 1.10592 1.22554 1.34705 1.47122 1.59841 1.72845 1.8692 2.00692 2.18741 2.50852 2.54666 2.31707 1.67161 0.650122 0.0468283 9.66618e-05 1.63733e-09 3.65784e-12 0 0 0.253958 0.28257 0.288458 0.250819 0.431041 0.425372 0.589823 0.676813 0.786755 0.895694 1.00473 1.11585 1.22895 1.34537 1.46595 1.59102 1.7205 1.86161 1.99918 2.18333 2.50331 2.53445 2.29945 1.6471 0.626762 0.0430041 8.26542e-05 1.44072e-09 3.65276e-12 0 0 0.218741 0.415737 0.482389 0.457736 0.598574 0.578782 0.676854 0.737725 0.825599 0.922848 1.02407 1.13039 1.24029 1.35451 1.47361 1.59734 1.72612 1.86599 2.00009 2.19284 2.50599 2.51652 2.26057 1.58037 0.559862 0.0331082 5.146e-05 9.81089e-10 1.8287e-12 0 0 0.181114 0.329803 0.431917 0.500926 0.622484 0.646519 0.724438 0.791774 0.868388 0.956532 1.05023 1.15126 1.25761 1.36893 1.48551 1.60658 1.73417 1.872 2.00336 2.21487 2.51087 2.49103 2.19726 1.47024 0.456974 0.0209751 2.30458e-05 5.15617e-10 1.82213e-12 0 0 0.100684 0.247251 0.371976 0.504097 0.59465 0.663794 0.756427 0.832125 0.910277 0.993738 1.08212 1.17795 1.28015 1.38764 1.50092 1.61856 1.74527 1.88021 2.01096 2.25345 2.51094 2.45203 2.10321 1.31167 0.331845 0.0106231 7.29344e-06 2.06212e-10 1.81484e-12 0 0 0.0575461 0.201402 0.328097 0.477649 0.56433 0.667558 0.766366 0.849929 0.93846 1.02487 1.11336 1.20705 1.30618 1.40973 1.51936 1.63349 1.76014 1.89039 2.02524 2.30779 2.49725 2.3931 1.96908 1.09915 0.207309 0.00414726 1.60265e-06 5.89103e-11 1.53564e-14 0 0 0.0639611 0.190568 0.318941 0.450262 0.560735 0.669852 0.763541 0.856974 0.954245 1.04594 1.13649 1.23099 1.32863 1.43074 1.53792 1.65026 1.77797 1.90062 2.05168 2.36445 2.4655 2.30489 1.7815 0.835294 0.106809 0.00118948 2.45579e-07 2.34958e-11 -1.81271e-12 0 0 0.0789626 0.190281 0.31553 0.442938 0.560485 0.662392 0.759751 0.861374 0.960861 1.0559 1.15114 1.24715 1.34444 1.44726 1.55255 1.66745 1.79417 1.91024 2.10082 2.40297 2.41249 2.17195 1.52462 0.544439 0.0421634 0.000234689 2.87926e-08 2.0191e-12 1.05658e-11 0 0 0.0840102 0.185689 0.307277 0.433076 0.550599 0.655069 0.758168 0.861454 0.960268 1.05814 1.15737 1.25458 1.35496 1.45834 1.56379 1.68551 1.80456 1.92496 2.18378 2.40019 2.3299 1.9751 1.18644 0.283367 0.0119273 2.93593e-05 3.10461e-09 2.56265e-13 1.05603e-11 0 0 0.0860909 0.184966 0.297866 0.417397 0.535429 0.646112 0.752066 0.854621 0.955534 1.05727 1.15671 1.25704 1.36077 1.46337 1.57558 1.7004 1.80907 1.96284 2.2687 2.35189 2.1965 1.69242 0.780416 0.111522 0.0022687 2.15636e-06 2.86023e-10 3.16333e-14 8.73801e-12 0 0 0.0866254 0.182432 0.288496 0.401116 0.51687 0.62948 0.737439 0.842289 0.947119 1.05045 1.15284 1.25755 1.36081 1.46748 1.59102 1.70523 1.81763 2.05122 2.29423 2.26289 1.98439 1.29677 0.393591 0.0300378 0.000262888 9.6525e-08 2.3125e-11 -1.42177e-11 1.24076e-11 0 0 0.0869039 0.18118 0.281901 0.388345 0.498383 0.608417 0.718173 0.826632 0.933087 1.03958 1.14783 1.25351 1.35918 1.47854 1.59983 1.70403 1.86219 2.15786 2.24472 2.11186 1.65798 0.80331 0.141253 0.00506931 1.59464e-05 3.95148e-09 4.54919e-12 -3.65235e-12 -8.73058e-12 0 0 0.0871323 0.179995 0.277127 0.378918 0.48461 0.592775 0.701966 0.810973 0.920171 1.03068 1.13977 1.24833 1.36595 1.49039 1.59687 1.72091 1.97956 2.17277 2.13312 1.85534 1.18186 0.355902 0.0324313 0.000479836 4.63682e-07 1.66067e-10 -3.15572e-11 3.15909e-11 -1.0533e-11 0 0 0.087371 0.178981 0.273655 0.372274 0.475423 0.582269 0.69123 0.801622 0.912971 1.0236 1.1352 1.25361 1.37828 1.48816 1.60191 1.81243 2.06263 2.09352 1.93213 1.43896 0.620044 0.103984 0.00422919 2.06209e-05 9.30713e-09 1.67236e-11 -3.34393e-11 3.34021e-11 -1.23231e-11 0 0 0.0876654 0.178506 0.271782 0.368845 0.470589 0.576694 0.685821 0.79676 0.908485 1.02213 1.14172 1.26513 1.37698 1.49061 1.67597 1.93412 2.01838 1.92698 1.57287 0.853035 0.213267 0.0172969 0.000266011 3.56351e-07 2.27263e-10 1.07059e-13 1.2381e-11 -1.23884e-11 3.09481e-14 0 0 0.0882814 0.178826 0.271759 0.36846 0.469742 0.575406 0.684354 0.795908 0.910546 1.03039 1.15124 1.26447 1.38314 1.56315 1.80726 1.91734 1.87086 1.61029 1.00691 0.32745 0.0425508 0.00141301 6.09513e-06 4.39924e-09 3.41571e-12 -2.47003e-11 2.47529e-11 -2.47528e-11 2.47796e-11 0 0 0.0895061 0.180555 0.273857 0.370827 0.472247 0.578286 0.688639 0.803101 0.921018 1.03863 1.15374 1.28249 1.46972 1.68895 1.8005 1.77944 1.57601 1.06884 0.412723 0.0733243 0.00408307 4.21229e-05 5.24198e-08 5.17868e-11 2.66107e-14 9.19655e-15 1.23833e-11 -1.24001e-11 4.68253e-14 0 0 0.0917115 0.184691 0.280106 0.379075 0.482191 0.589804 0.701493 0.815788 0.931292 1.05199 1.19718 1.39218 1.57308 1.6733 1.66013 1.48669 1.04771 0.447574 0.0970321 0.00762655 0.00014344 3.64714e-07 5.01755e-10 5.41878e-13 -1.08526e-14 1.23662e-11 -3.34327e-11 3.34003e-11 -1.23088e-11 0 0 0.0951685 0.191491 0.290517 0.39258 0.497657 0.606004 0.718223 0.837098 0.971101 1.13465 1.31087 1.45107 1.53378 1.51524 1.35127 0.956249 0.426984 0.103806 0.0101269 0.000281416 1.27763e-06 2.10661e-09 3.67323e-12 -8.91365e-15 -1.0007e-14 1.23733e-11 -3.34332e-11 2.10395e-11 3.6653e-14 0 0 0.0987693 0.199166 0.30279 0.40962 0.52058 0.638583 0.768861 0.915537 1.0675 1.20553 1.31876 1.37496 1.34287 1.17259 0.806827 0.359509 0.0915101 0.00998288 0.000347888 2.33539e-06 4.94371e-09 1.29979e-11 6.52452e-14 -4.33944e-14 4.9663e-15 8.37104e-15 1.23875e-11 -2.47648e-11 1.23772e-11 0 0 0.106213 0.216026 0.330862 0.451052 0.576484 0.706282 0.836805 0.961667 1.07737 1.16351 1.19132 1.13649 0.951509 0.615319 0.263725 0.0657836 0.0073326 0.000279201 2.33211e-06 6.55302e-09 2.43319e-11 1.24227e-11 -2.47421e-11 2.47108e-11 2.27403e-15 -2.47121e-11 2.47413e-11 -1.23508e-11 1.23874e-11 0 0 0.11916 0.239365 0.359656 0.479941 0.599345 0.717244 0.828124 0.918636 0.974184 0.972639 0.890089 0.693915 0.407819 0.162577 0.0369275 0.00386794 0.000141537 1.27194e-06 4.92115e-09 2.42549e-11 9.63254e-14 -2.12848e-14 4.32554e-14 -4.6007e-14 -1.53474e-15 3.00182e-14 1.23591e-11 -1.23488e-11 1.23984e-11 0 0 0.120641 0.239269 0.35458 0.46517 0.567513 0.65654 0.720255 0.74458 0.714319 0.607852 0.424968 0.221621 0.077627 0.0148751 0.00133653 4.14766e-05 3.61512e-07 2.08792e-09 1.29724e-11 1.24139e-11 -2.47423e-11 1.2387e-11 -2.98974e-15 4.57761e-15 -3.03506e-14 1.24045e-11 -1.23729e-11 -1.23945e-11 2.47587e-11 0 0 0.109052 0.211628 0.305195 0.386505 0.449479 0.484495 0.480688 0.428249 0.326535 0.199336 0.0890193 0.0246975 0.00370674 0.000253851 5.99733e-06 5.15259e-08 4.95597e-10 3.60226e-12 2.40955e-14 -2.05328e-14 3.35386e-14 -2.67131e-14 1.18617e-14 4.35498e-15 -2.99105e-14 1.22153e-14 -5.18091e-15 -2.59657e-14 -2.10386e-11 0 0 0.0762182 0.142872 0.195816 0.230092 0.239975 0.222675 0.179538 0.120077 0.0606617 0.0203788 0.0040869 0.000436656 1.98968e-05 3.48076e-07 4.27884e-09 5.08334e-11 5.23691e-13 2.53219e-14 -4.15042e-14 -8.08382e-15 4.96483e-14 -3.84833e-14 3.82607e-14 -5.07173e-14 2.95087e-14 -3.4999e-14 -2.10445e-11 3.33861e-11 -3.33526e-11 0 0 0.0293503 0.052496 0.0659875 0.0680246 0.0586715 0.0406344 0.0210431 0.00749437 0.00171977 0.000228809 1.49786e-05 4.45482e-07 8.84289e-09 2.45369e-10 3.38079e-12 -2.46822e-11 2.47538e-11 -2.47548e-11 2.47191e-11 -1.72543e-14 -2.47018e-11 2.47347e-11 -2.47347e-11 2.47266e-11 -6.9066e-15 -1.96179e-14 -6.68222e-11 6.68137e-11 5.98611e-14 0 0 0.00345112 0.00547694 0.00545428 0.00388911 0.00200362 0.000726438 0.000173235 2.47705e-05 1.95845e-06 8.88612e-08 3.6292e-09 1.61306e-10 -8.237e-12 7.58856e-14 1.00045e-14 8.7935e-15 1.23824e-11 -1.23755e-11 -1.01515e-14 -1.11648e-14 3.049e-14 1.23482e-11 -2.47401e-11 2.47441e-11 -4.54952e-14 -3.34104e-11 6.13303e-14 -6.44003e-14 3.34755e-11 0 0 1.22523e-05 1.52386e-05 1.01768e-05 4.22366e-06 1.11686e-06 1.9018e-07 2.30286e-08 2.54762e-09 2.69922e-10 1.77943e-11 7.78837e-13 -3.15646e-11 3.34023e-11 -1.23599e-11 1.02948e-14 1.23485e-11 -3.34163e-11 3.34297e-11 -1.23596e-11 -2.83974e-14 1.24076e-11 -1.23865e-11 -3.00279e-14 -2.10524e-11 -1.13293e-14 4.82699e-14 -5.32191e-14 4.36015e-14 -5.11752e-14 0 0 1.91266e-10 2.59639e-10 2.01563e-10 1.06915e-10 4.02555e-11 -1.21158e-12 1.56086e-12 1.9956e-13 2.60186e-14 1.05539e-11 8.84921e-15 -3.16577e-11 3.34245e-11 -1.23522e-11 1.01735e-14 1.23317e-11 -3.34152e-11 2.10674e-11 1.90384e-14 1.23609e-11 -1.23619e-11 -1.23946e-11 2.47144e-11 -3.34241e-11 1.02615e-14 3.21046e-14 -4.36015e-14 4.37889e-14 -4.45769e-14 0 0 -7.1893e-13 -1.813e-12 1.81627e-12 -1.81651e-12 -1.00824e-14 1.82029e-12 -1.05682e-11 1.05604e-11 -1.23817e-11 1.23819e-11 -1.2392e-11 1.4184e-11 -1.23961e-11 3.21108e-14 1.01665e-14 -4.84194e-14 1.24096e-11 -2.47727e-11 1.23953e-11 1.24089e-11 -1.23969e-11 -4.50435e-14 -2.10639e-11 3.34522e-11 -2.59342e-14 -3.33942e-11 -3.59587e-14 4.29318e-14 3.34219e-11 0 0 0 0 0 0 0 0 0 0 0 0 0 0 0 0 0 0 0 0 0 0 0 0 0 0 0 0 0 0 0 0
				</DataArray>
				<DataArray Name="VitesseY" type="Float32" format="ascii">
 0 0 0 0 0 0 0 0 0 0 0 0 0 0 0 0 0 0 0 0 0 0 0 0 0 0 0 0 0 0 0 0.0128954 0.253931 0.218712 0.181101 0.100686 0.0575519 0.0639699 0.0789743 0.0840176 0.0860965 0.0866321 0.0869117 0.08714 0.0873781 0.0876715 0.0882854 0.0895076 0.0917111 0.0951672 0.0987682 0.106212 0.119161 0.120642 0.109053 0.0762196 0.0293512 0.00345129 1.22537e-05 1.91291e-10 -8.43902e-16 0 -0.227959 0.282509 0.415695 0.329765 0.247239 0.201432 0.190602 0.190304 0.185699 0.18497 0.182438 0.18119 0.180006 0.17899 0.178513 0.178831 0.180557 0.184691 0.191489 0.199165 0.216025 0.239366 0.239271 0.21163 0.142875 0.0524975 0.00547722 1.52402e-05 2.59671e-10 -1.81294e-12 0 -0.144889 0.288387 0.482356 0.431908 0.371988 0.328138 0.318983 0.31556 0.30729 0.297866 0.288499 0.281907 0.277136 0.273663 0.271788 0.271763 0.273859 0.280106 0.290516 0.302789 0.330862 0.359659 0.354583 0.305199 0.19582 0.0659893 0.00545456 1.01778e-05 2.01587e-10 1.81627e-12 0 -0.0332017 0.250753 0.457692 0.500905 0.504109 0.477686 0.450304 0.442974 0.433099 0.417404 0.401119 0.388349 0.378923 0.372278 0.368848 0.368462 0.370828 0.379075 0.392579 0.409619 0.451052 0.479945 0.465174 0.38651 0.230097 0.0680262 0.00388929 4.22407e-06 1.06927e-10 -1.81651e-12 0 0.240914 0.430994 0.598565 0.622483 0.59466 0.564352 0.560765 0.560514 0.550622 0.535445 0.516878 0.498387 0.484612 0.475424 0.47059 0.469742 0.472247 0.482191 0.497657 0.52058 0.576486 0.599348 0.567518 0.449484 0.239979 0.0586728 0.00200371 1.11696e-06 4.02595e-11 -1.00827e-14 0 0.293459 0.425329 0.578777 0.646506 0.663789 0.667567 0.66987 0.662414 0.655091 0.64613 0.629491 0.608421 0.592776 0.58227 0.576693 0.575404 0.578285 0.589803 0.606003 0.638584 0.706285 0.717248 0.656545 0.4845 0.222678 0.040635 0.000726463 1.90194e-07 -1.21078e-12 1.82029e-12 0 0.503213 0.589804 0.676877 0.724441 0.756416 0.766365 0.763552 0.759769 0.758186 0.752082 0.737449 0.718175 0.701966 0.691229 0.685819 0.684352 0.688636 0.70149 0.718222 0.768862 0.836808 0.828127 0.72026 0.480691 0.17954 0.0210433 0.000173239 2.30299e-08 1.56101e-12 -1.05682e-11 0 0.617533 0.676797 0.737743 0.791783 0.832116 0.849924 0.856983 0.861388 0.861469 0.854633 0.842295 0.826633 0.810973 0.80162 0.796757 0.795906 0.803098 0.815785 0.837097 0.91554 0.96167 0.918639 0.744582 0.42825 0.120077 0.00749438 2.47708e-05 2.5477e-09 1.99571e-13 1.05604e-11 0 0.745888 0.786746 0.825613 0.868407 0.910275 0.938457 0.954251 0.960872 0.960279 0.955542 0.947121 0.933085 0.920169 0.912969 0.908483 0.910544 0.921015 0.93129 0.9711 1.0675 1.07737 0.974186 0.714319 0.326534 0.0606612 0.00171975 1.95844e-06 2.69926e-10 2.60234e-14 -1.23817e-11 0 0.867812 0.895686 0.922855 0.956548 0.993745 1.02488 1.04594 1.05591 1.05814 1.05727 1.05045 1.03958 1.03068 1.0236 1.02213 1.03039 1.03863 1.05199 1.13465 1.20553 1.16351 0.972637 0.607849 0.199334 0.0203785 0.000228804 8.88596e-08 1.77944e-11 1.05539e-11 1.23819e-11 0 0.986743 1.00472 1.02408 1.05024 1.08213 1.11336 1.1365 1.15115 1.15737 1.15671 1.15284 1.14783 1.13977 1.1352 1.14172 1.15124 1.15374 1.19718 1.31086 1.31875 1.19131 0.890087 0.424965 0.089018 0.00408681 1.49781e-05 3.6291e-09 7.788e-13 8.84921e-15 -1.2392e-11 0 1.10591 1.11584 1.13039 1.15127 1.17796 1.20706 1.231 1.24715 1.25458 1.25704 1.25755 1.25351 1.24833 1.25361 1.26513 1.26447 1.28249 1.39218 1.45107 1.37496 1.13649 0.693912 0.221618 0.0246971 0.000436641 4.45462e-07 1.613e-10 -3.15646e-11 -3.16577e-11 1.4184e-11 0 1.22553 1.22895 1.24029 1.25761 1.28016 1.30618 1.32864 1.34445 1.35496 1.36077 1.36081 1.35919 1.36595 1.37828 1.37698 1.38314 1.46972 1.57308 1.53378 1.34287 0.951505 0.407816 0.0776259 0.00370665 1.9896e-05 8.84249e-09 -8.23714e-12 3.34023e-11 3.34245e-11 -1.23961e-11 0 1.34705 1.34537 1.35451 1.36893 1.38764 1.40974 1.43075 1.44727 1.45835 1.46337 1.46749 1.47854 1.4904 1.48816 1.49061 1.56316 1.68894 1.6733 1.51524 1.17259 0.615314 0.162575 0.0148747 0.000253843 3.4806e-07 2.4536e-10 7.5875e-14 -1.23599e-11 -1.23522e-11 3.21108e-14 0 1.47122 1.46595 1.47361 1.4855 1.50092 1.51936 1.53793 1.55256 1.5638 1.57558 1.59102 1.59983 1.59687 1.60191 1.67597 1.80726 1.8005 1.66013 1.35127 0.806822 0.263723 0.0369269 0.00133649 5.99706e-06 4.27867e-09 3.38062e-12 1.00045e-14 1.02948e-14 1.01735e-14 1.01665e-14 0 1.59841 1.59102 1.59733 1.60657 1.61856 1.63349 1.65027 1.66746 1.68552 1.70041 1.70523 1.70404 1.72091 1.81243 1.93412 1.91734 1.77944 1.48669 0.956246 0.359505 0.065783 0.00386788 4.14753e-05 5.15236e-08 5.08303e-11 -2.46822e-11 8.7935e-15 1.23485e-11 1.23317e-11 -4.84194e-14 0 1.72845 1.7205 1.72611 1.73416 1.74527 1.76014 1.77798 1.79418 1.80457 1.80908 1.81763 1.86219 1.97956 2.06263 2.01838 1.87086 1.57601 1.04771 0.426983 0.0915096 0.00733249 0.000141534 3.61501e-07 4.95579e-10 5.2363e-13 2.47538e-11 1.23824e-11 -3.34163e-11 -3.34152e-11 1.24096e-11 0 1.8692 1.86161 1.86598 1.87199 1.88021 1.89039 1.90063 1.91025 1.92497 1.96285 2.05122 2.15787 2.17277 2.09352 1.92698 1.61029 1.06884 0.447573 0.103806 0.00998288 0.000279198 1.27191e-06 2.08787e-09 3.60218e-12 2.53218e-14 -2.47548e-11 -1.23755e-11 3.34297e-11 2.10674e-11 -2.47727e-11 0 2.00692 1.99918 2.00009 2.00336 2.01096 2.02525 2.05168 2.10083 2.18378 2.26871 2.29423 2.24472 2.13312 1.93214 1.57287 1.00691 0.412725 0.0970324 0.0101269 0.000347888 2.33211e-06 4.92109e-09 1.29721e-11 2.41059e-14 -4.15042e-14 2.47191e-11 -1.01515e-14 -1.23596e-11 1.90384e-14 1.23953e-11 0 2.18741 2.18333 2.19285 2.21487 2.25346 2.30779 2.36445 2.40297 2.40019 2.3519 2.26289 2.11187 1.85534 1.43896 0.85304 0.327453 0.073325 0.00762666 0.000281418 2.33539e-06 6.55302e-09 2.42549e-11 1.24139e-11 -2.05328e-14 -8.08382e-15 -1.72543e-14 -1.11648e-14 -2.83974e-14 1.23609e-11 1.24089e-11 0 2.50853 2.50331 2.50599 2.51087 2.51094 2.49725 2.4655 2.41249 2.32991 2.1965 1.9844 1.65799 1.18186 0.62005 0.21327 0.0425515 0.00408314 0.000143443 1.27766e-06 4.94378e-09 2.4332e-11 9.63254e-14 -2.47423e-11 3.35386e-14 4.96483e-14 -2.47018e-11 3.049e-14 1.24076e-11 -1.23619e-11 -1.23969e-11 0 2.54666 2.53445 2.51652 2.49103 2.45203 2.3931 2.30489 2.17195 1.9751 1.69243 1.29678 0.803316 0.355907 0.103986 0.0172973 0.00141305 4.21242e-05 3.64725e-07 2.10666e-09 1.29981e-11 1.24227e-11 -2.12848e-14 1.2387e-11 -2.67131e-14 -3.84833e-14 2.47347e-11 1.23482e-11 -1.23865e-11 -1.23946e-11 -4.50435e-14 0 2.31707 2.29944 2.26057 2.19726 2.10321 1.96908 1.7815 1.52462 1.18644 0.780421 0.393596 0.141255 0.032432 0.0042293 0.00026602 6.09541e-06 5.24222e-08 5.01773e-10 3.67329e-12 6.52347e-14 -2.47421e-11 4.32554e-14 -2.98974e-15 1.18617e-14 3.82607e-14 -2.47347e-11 -2.47401e-11 -3.00279e-14 2.47144e-11 -2.10639e-11 0 1.6716 1.64709 1.58036 1.47023 1.31167 1.09915 0.835292 0.54444 0.283369 0.111524 0.0300383 0.00506944 0.000479852 2.06217e-05 3.56368e-07 4.39942e-09 5.17899e-11 5.41939e-13 -8.91352e-15 -4.33944e-14 2.47108e-11 -4.6007e-14 4.57761e-15 4.35498e-15 -5.07173e-14 2.47266e-11 2.47441e-11 -2.10524e-11 -3.34241e-11 3.34522e-11 0 0.65011 0.62675 0.559851 0.456966 0.331839 0.207306 0.106808 0.0421633 0.0119273 0.00226873 0.000262895 1.5947e-05 4.63703e-07 9.30756e-09 2.27273e-10 3.41592e-12 2.66315e-14 -1.08523e-14 -1.0007e-14 4.9663e-15 2.27403e-15 -1.53474e-15 -3.03506e-14 -2.99105e-14 2.95087e-14 -6.9066e-15 -4.54952e-14 -1.13293e-14 1.02615e-14 -2.59342e-14 0 0.046826 0.043002 0.0331066 0.0209741 0.0106226 0.00414711 0.00118945 0.000234684 2.9359e-05 2.15636e-06 9.65269e-08 3.95159e-09 1.66073e-10 1.67238e-11 1.0707e-13 -2.47003e-11 9.19655e-15 1.23662e-11 1.23733e-11 8.37104e-15 -2.47121e-11 3.00182e-14 1.24045e-11 1.22153e-14 -3.4999e-14 -1.96179e-14 -3.34104e-11 4.82699e-14 3.21046e-14 -3.33942e-11 0 9.66517e-05 8.26456e-05 5.14548e-05 2.30435e-05 7.29277e-06 1.60251e-06 2.45562e-07 2.87912e-08 3.10452e-09 2.86019e-10 2.3125e-11 4.54922e-12 -3.15572e-11 -3.34393e-11 1.2381e-11 2.47529e-11 1.23833e-11 -3.34327e-11 -3.34332e-11 1.23875e-11 2.47413e-11 1.23591e-11 -1.23729e-11 -5.18091e-15 -2.10445e-11 -6.68222e-11 6.13303e-14 -5.32191e-14 -4.36015e-14 -3.59587e-14 0 1.63713e-09 1.44055e-09 9.80974e-10 5.15559e-10 2.0619e-10 5.89044e-11 2.34947e-11 2.01893e-12 2.56244e-13 3.16285e-14 -1.42177e-11 -3.65235e-12 3.15909e-11 3.34021e-11 -1.23884e-11 -2.47528e-11 -1.24001e-11 3.34003e-11 2.10395e-11 -2.47648e-11 -1.23508e-11 -1.23488e-11 -1.23945e-11 -2.59657e-14 3.33861e-11 6.68137e-11 -6.44003e-14 4.36015e-14 4.37889e-14 4.29318e-14 0 5.09384e-12 4.37079e-12 1.82873e-12 1.82213e-12 1.81484e-12 1.53567e-14 -1.81271e-12 1.05658e-11 1.05603e-11 8.73801e-12 1.24076e-11 -8.73058e-12 -1.0533e-11 -1.23231e-11 3.09481e-14 2.47796e-11 4.68253e-14 -1.23088e-11 3.6653e-14 1.23772e-11 1.23874e-11 1.23984e-11 2.47587e-11 -2.10386e-11 -3.33526e-11 5.98611e-14 3.34755e-11 -5.11752e-14 -4.45769e-14 3.34219e-11 0 3.51086e-06 0 0 0 0 0 0 0 0 0 0 0 0 0 0 0 0 0 0 0 0 0 0 0 0 0 0 0 0 0 0
				</DataArray>
			</PointData>
			<CellData Scalars="Density">
				<DataArray Name="Density" type="Float32" format="ascii">