<?xml version="1.0"?>
<VTKFile type="PolyData">
	<PolyData>
		<Piece NumberOfPoints="961" NumberOfPolys="900">
			<Points>
				<DataArray type="Float32" NumberOfComponents="3" format="ascii">
 0 0 0 0.04 0 0 0.08 0 0 0.12 0 0 0.16 0 0 0.2 0 0 0.24 0 0 0.28 0 0 0.32 0 0 0.36 0 0 0.4 0 0 0.44 0 0 0.48 0 0 0.52 0 0 0.56 0 0 0.6 0 0 0.64 0 0 0.68 0 0 0.72 0 0 0.76 0 0 0.8 0 0 0.84 0 0 0.88 0 0 0.92 0 0 0.96 0 0 1 0 0 1.04 0 0 1.08 0 0 1.12 0 0 1.16 0 0 1.2 0 0 0 0.04 0 0.04 0.04 0 0.08 0.04 0 0.12 0.04 0 0.16 0.04 0 0.2 0.04 0 0.24 0.04 0 0.28 0.04 0 0.32 0.04 0 0.36 0.04 0 0.4 0.04 0 0.44 0.04 0 0.48 0.04 0 0.52 0.04 0 0.56 0.04 0 0.6 0.04 0 0.64 0.04 0 0.68 0.04 0 0.72 0.04 0 0.76 0.04 0 0.8 0.04 0 0.84 0.04 0 0.88 0.04 0 0.92 0.04 0 0.96 0.04 0 1 0.04 0 1.04 0.04 0 1.08 0.04 0 1.12 0.04 0 1.16 0.04 0 1.2 0.04 0 0 0.08 0 0.04 0.08 0 0.08 0.08 0 0.12 0.08 0 0.16 0.08 0 0.2 0.08 0 0.24 0.08 0 0.28 0.08 0 0.32 0.08 0 0.36 0.08 0 0.4 0.08 0 0.44 0.08 0 0.48 0.08 0 0.52 0.08 0 0.56 0.08 0 0.6 0.08 0 0.64 0.08 0 0.68 0.08 0 0.72 0.08 0 0.76 0.08 0 0.8 0.08 0 0.84 0.08 0 0.88 0.08 0 0.92 0.08 0 0.96 0.08 0 1 0.08 0 1.04 0.08 0 1.08 0.08 0 1.12 0.08 0 1.16 0.08 0 1.2 0.08 0 0 0.12 0 0.04 0.12 0 0.08 0.12 0 0.12 0.12 0 0.16 0.12 0 0.2 0.12 0 0.24 0.12 0 0.28 0.12 0 0.32 0.12 0 0.36 0.12 0 0.4 0.12 0 0.44 0.12 0 0.48 0.12 0 0.52 0.12 0 0.56 0.12 0 0.6 0.12 0 0.64 0.12 0 0.68 0.12 0 0.72 0.12 0 0.76 0.12 0 0.8 0.12 0 0.84 0.12 0 0.88 0.12 0 0.92 0.12 0 0.96 0.12 0 1 0.12 0 1.04 0.12 0 1.08 0.12 0 1.12 0.12 0 1.16 0.12 0 1.2 0.12 0 0 0.16 0 0.04 0.16 0 0.08 0.16 0 0.12 0.16 0 0.16 0.16 0 0.2 0.16 0 0.24 0.16 0 0.28 0.16 0 0.32 0.16 0 0.36 0.16 0 0.4 0.16 0 0.44 0.16 0 0.48 0.16 0 0.52 0.16 0 0.56 0.16 0 0.6 0.16 0 0.64 0.16 0 0.68 0.16 0 0.72 0.16 0 0.76 0.16 0 0.8 0.16 0 0.84 0.16 0 0.88 0.16 0 0.92 0.16 0 0.96 0.16 0 1 0.16 0 1.04 0.16 0 1.08 0.16 0 1.12 0.16 0 1.16 0.16 0 1.2 0.16 0 0 0.2 0 0.04 0.2 0 0.08 0.2 0 0.12 0.2 0 0.16 0.2 0 0.2 0.2 0 0.24 0.2 0 0.28 0.2 0 0.32 0.2 0 0.36 0.2 0 0.4 0.2 0 0.44 0.2 0 0.48 0.2 0 0.52 0.2 0 0.56 0.2 0 0.6 0.2 0 0.64 0.2 0 0.68 0.2 0 0.72 0.2 0 0.76 0.2 0 0.8 0.2 0 0.84 0.2 0 0.88 0.2 0 0.92 0.2 0 0.96 0.2 0 1 0.2 0 1.04 0.2 0 1.08 0.2 0 1.12 0.2 0 1.16 0.2 0 1.2 0.2 0 0 0.24 0 0.04 0.24 0 0.08 0.24 0 0.12 0.24 0 0.16 0.24 0 0.2 0.24 0 0.24 0.24 0 0.28 0.24 0 0.32 0.24 0 0.36 0.24 0 0.4 0.24 0 0.44 0.24 0 0.48 0.24 0 0.52 0.24 0 0.56 0.24 0 0.6 0.24 0 0.64 0.24 0 0.68 0.24 0 0.72 0.24 0 0.76 0.24 0 0.8 0.24 0 0.84 0.24 0 0.88 0.24 0 0.92 0.24 0 0.96 0.24 0 1 0.24 0 1.04 0.24 0 1.08 0.24 0 1.12 0.24 0 1.16 0.24 0 1.2 0.24 0 0 0.28 0 0.04 0.28 0 0.08 0.28 0 0.12 0.28 0 0.16 0.28 0 0.2 0.28 0 0.24 0.28 0 0.28 0.28 0 0.32 0.28 0 0.36 0.28 0 0.4 0.28 0 0.44 0.28 0 0.48 0.28 0 0.52 0.28 0 0.56 0.28 0 0.6 0.28 0 0.64 0.28 0 0.68 0.28 0 0.72 0.28 0 0.76 0.28 0 0.8 0.28 0 0.84 0.28 0 0.88 0.28 0 0.92 0.28 0 0.96 0.28 0 1 0.28 0 1.04 0.28 0 1.08 0.28 0 1.12 0.28 0 1.16 0.28 0 1.2 0.28 0 0 0.32 0 0.04 0.32 0 0.08 0.32 0 0.12 0.32 0 0.16 0.32 0 0.2 0.32 0 0.24 0.32 0 0.28 0.32 0 0.32 0.32 0 0.36 0.32 0 0.4 0.32 0 0.44 0.32 0 0.48 0.32 0 0.52 0.32 0 0.56 0.32 0 0.6 0.32 0 0.64 0.32 0 0.68 0.32 0 0.72 0.32 0 0.76 0.32 0 0.8 0.32 0 0.84 0.32 0 0.88 0.32 0 0.92 0.32 0 0.96 0.32 0 1 0.32 0 1.04 0.32 0 1.08 0.32 0 1.12 0.32 0 1.16 0.32 0 1.2 0.32 0 0 0.36 0 0.04 0.36 0 0.08 0.36 0 0.12 0.36 0 0.16 0.36 0 0.2 0.36 0 0.24 0.36 0 0.28 0.36 0 0.32 0.36 0 0.36 0.36 0 0.4 0.36 0 0.44 0.36 0 0.48 0.36 0 0.52 0.36 0 0.56 0.36 0 0.6 0.36 0 0.64 0.36 0 0.68 0.36 0 0.72 0.36 0 0.76 0.36 0 0.8 0.36 0 0.84 0.36 0 0.88 0.36 0 0.92 0.36 0 0.96 0.36 0 1 0.36 0 1.04 0.36 0 1.08 0.36 0 1.12 0.36 0 1.16 0.36 0 1.2 0.36 0 0 0.4 0 0.04 0.4 0 0.08 0.4 0 0.12 0.4 0 0.16 0.4 0 0.2 0.4 0 0.24 0.4 0 0.28 0.4 0 0.32 0.4 0 0.36 0.4 0 0.4 0.4 0 0.44 0.4 0 0.48 0.4 0 0.52 0.4 0 0.56 0.4 0 0.6 0.4 0 0.64 0.4 0 0.68 0.4 0 0.72 0.4 0 0.76 0.4 0 0.8 0.4 0 0.84 0.4 0 0.88 0.4 0 0.92 0.4 0 0.96 0.4 0 1 0.4 0 1.04 0.4 0 1.08 0.4 0 1.12 0.4 0 1.16 0.4 0 1.2 0.4 0 0 0.44 0 0.04 0.44 0 0.08 0.44 0 0.12 0.44 0 0.16 0.44 0 0.2 0.44 0 0.24 0.44 0 0.28 0.44 0 0.32 0.44 0 0.36 0.44 0 0.4 0.44 0 0.44 0.44 0 0.48 0.44 0 0.52 0.44 0 0.56 0.44 0 0.6 0.44 0 0.64 0.44 0 0.68 0.44 0 0.72 0.44 0 0.76 0.44 0 0.8 0.44 0 0.84 0.44 0 0.88 0.44 0 0.92 0.44 0 0.96 0.44 0 1 0.44 0 1.04 0.44 0 1.08 0.44 0 1.12 0.44 0 1.16 0.44 0 1.2 0.44 0 0 0.48 0 0.04 0.48 0 0.08 0.48 0 0.12 0.48 0 0.16 0.48 0 0.2 0.48 0 0.24 0.48 0 0.28 0.48 0 0.32 0.48 0 0.36 0.48 0 0.4 0.48 0 0.44 0.48 0 0.48 0.48 0 0.52 0.48 0 0.56 0.48 0 0.6 0.48 0 0.64 0.48 0 0.68 0.48 0 0.72 0.48 0 0.76 0.48 0 0.8 0.48 0 0.84 0.48 0 0.88 0.48 0 0.92 0.48 0 0.96 0.48 0 1 0.48 0 1.04 0.48 0 1.08 0.48 0 1.12 0.48 0 1.16 0.48 0 1.2 0.48 0 0 0.52 0 0.04 0.52 0 0.08 0.52 0 0.12 0.52 0 0.16 0.52 0 0.2 0.52 0 0.24 0.52 0 0.28 0.52 0 0.32 0.52 0 0.36 0.52 0 0.4 0.52 0 0.44 0.52 0 0.48 0.52 0 0.52 0.52 0 0.56 0.52 0 0.6 0.52 0 0.64 0.52 0 0.68 0.52 0 0.72 0.52 0 0.76 0.52 0 0.8 0.52 0 0.84 0.52 0 0.88 0.52 0 0.92 0.52 0 0.96 0.52 0 1 0.52 0 1.04 0.52 0 1.08 0.52 0 1.12 0.52 0 1.16 0.52 0 1.2 0.52 0 0 0.56 0 0.04 0.56 0 0.08 0.56 0 0.12 0.56 0 0.16 0.56 0 0.2 0.56 0 0.24 0.56 0 0.28 0.56 0 0.32 0.56 0 0.36 0.56 0 0.4 0.56 0 0.44 0.56 0 0.48 0.56 0 0.52 0.56 0 0.56 0.56 0 0.6 0.56 0 0.64 0.56 0 0.68 0.56 0 0.72 0.56 0 0.76 0.56 0 0.8 0.56 0 0.84 0.56 0 0.88 0.56 0 0.92 0.56 0 0.96 0.56 0 1 0.56 0 1.04 0.56 0 1.08 0.56 0 1.12 0.56 0 1.16 0.56 0 1.2 0.56 0 0 0.6 0 0.04 0.6 0 0.08 0.6 0 0.12 0.6 0 0.16 0.6 0 0.2 0.6 0 0.24 0.6 0 0.28 0.6 0 0.32 0.6 0 0.36 0.6 0 0.4 0.6 0 0.44 0.6 0 0.48 0.6 0 0.52 0.6 0 0.56 0.6 0 0.6 0.6 0 0.64 0.6 0 0.68 0.6 0 0.72 0.6 0 0.76 0.6 0 0.8 0.6 0 0.84 0.6 0 0.88 0.6 0 0.92 0.6 0 0.96 0.6 0 1 0.6 0 1.04 0.6 0 1.08 0.6 0 1.12 0.6 0 1.16 0.6 0 1.2 0.6 0 0 0.64 0 0.04 0.64 0 0.08 0.64 0 0.12 0.64 0 0.16 0.64 0 0.2 0.64 0 0.24 0.64 0 0.28 0.64 0 0.32 0.64 0 0.36 0.64 0 0.4 0.64 0 0.44 0.64 0 0.48 0.64 0 0.52 0.64 0 0.56 0.64 0 0.6 0.64 0 0.64 0.64 0 0.68 0.64 0 0.72 0.64 0 0.76 0.64 0 0.8 0.64 0 0.84 0.64 0 0.88 0.64 0 0.92 0.64 0 0.96 0.64 0 1 0.64 0 1.04 0.64 0 1.08 0.64 0 1.12 0.64 0 1.16 0.64 0 1.2 0.64 0 0 0.68 0 0.04 0.68 0 0.08 0.68 0 0.12 0.68 0 0.16 0.68 0 0.2 0.68 0 0.24 0.68 0 0.28 0.68 0 0.32 0.68 0 0.36 0.68 0 0.4 0.68 0 0.44 0.68 0 0.48 0.68 0 0.52 0.68 0 0.56 0.68 0 0.6 0.68 0 0.64 0.68 0 0.68 0.68 0 0.72 0.68 0 0.76 0.68 0 0.8 0.68 0 0.84 0.68 0 0.88 0.68 0 0.92 0.68 0 0.96 0.68 0 1 0.68 0 1.04 0.68 0 1.08 0.68 0 1.12 0.68 0 1.16 0.68 0 1.2 0.68 0 0 0.72 0 0.04 0.72 0 0.08 0.72 0 0.12 0.72 0 0.16 0.72 0 0.2 0.72 0 0.24 0.72 0 0.28 0.72 0 0.32 0.72 0 0.36 0.72 0 0.4 0.72 0 0.44 0.72 0 0.48 0.72 0 0.52 0.72 0 0.56 0.72 0 0.6 0.72 0 0.64 0.72 0 0.68 0.72 0 0.72 0.72 0 0.76 0.72 0 0.8 0.72 0 0.84 0.72 0 0.88 0.72 0 0.92 0.72 0 0.96 0.72 0 1 0.72 0 1.04 0.72 0 1.08 0.72 0 1.12 0.72 0 1.16 0.72 0 1.2 0.72 0 0 0.76 0 0.04 0.76 0 0.08 0.76 0 0.12 0.76 0 0.16 0.76 0 0.2 0.76 0 0.24 0.76 0 0.28 0.76 0 0.32 0.76 0 0.36 0.76 0 0.4 0.76 0 0.44 0.76 0 0.48 0.76 0 0.52 0.76 0 0.56 0.76 0 0.6 0.76 0 0.64 0.76 0 0.68 0.76 0 0.72 0.76 0 0.76 0.76 0 0.8 0.76 0 0.84 0.76 0 0.88 0.76 0 0.92 0.76 0 0.96 0.76 0 1 0.76 0 1.04 0.76 0 1.08 0.76 0 1.12 0.76 0 1.16 0.76 0 1.2 0.76 0 0 0.8 0 0.04 0.8 0 0.08 0.8 0 0.12 0.8 0 0.16 0.8 0 0.2 0.8 0 0.24 0.8 0 0.28 0.8 0 0.32 0.8 0 0.36 0.8 0 0.4 0.8 0 0.44 0.8 0 0.48 0.8 0 0.52 0.8 0 0.56 0.8 0 0.6 0.8 0 0.64 0.8 0 0.68 0.8 0 0.72 0.8 0 0.76 0.8 0 0.8 0.8 0 0.84 0.8 0 0.88 0.8 0 0.92 0.8 0 0.96 0.8 0 1 0.8 0 1.04 0.8 0 1.08 0.8 0 1.12 0.8 0 1.16 0.8 0 1.2 0.8 0 0 0.84 0 0.04 0.84 0 0.08 0.84 0 0.12 0.84 0 0.16 0.84 0 0.2 0.84 0 0.24 0.84 0 0.28 0.84 0 0.32 0.84 0 0.36 0.84 0 0.4 0.84 0 0.44 0.84 0 0.48 0.84 0 0.52 0.84 0 0.56 0.84 0 0.6 0.84 0 0.64 0.84 0 0.68 0.84 0 0.72 0.84 0 0.76 0.84 0 0.8 0.84 0 0.84 0.84 0 0.88 0.84 0 0.92 0.84 0 0.96 0.84 0 1 0.84 0 1.04 0.84 0 1.08 0.84 0 1.12 0.84 0 1.16 0.84 0 1.2 0.84 0 0 0.88 0 0.04 0.88 0 0.08 0.88 0 0.12 0.88 0 0.16 0.88 0 0.2 0.88 0 0.24 0.88 0 0.28 0.88 0 0.32 0.88 0 0.36 0.88 0 0.4 0.88 0 0.44 0.88 0 0.48 0.88 0 0.52 0.88 0 0.56 0.88 0 0.6 0.88 0 0.64 0.88 0 0.68 0.88 0 0.72 0.88 0 0.76 0.88 0 0.8 0.88 0 0.84 0.88 0 0.88 0.88 0 0.92 0.88 0 0.96 0.88 0 1 0.88 0 1.04 0.88 0 1.08 0.88 0 1.12 0.88 0 1.16 0.88 0 1.2 0.88 0 0 0.92 0 0.04 0.92 0 0.08 0.92 0 0.12 0.92 0 0.16 0.92 0 0.2 0.92 0 0.24 0.92 0 0.28 0.92 0 0.32 0.92 0 0.36 0.92 0 0.4 0.92 0 0.44 0.92 0 0.48 0.92 0 0.52 0.92 0 0.56 0.92 0 0.6 0.92 0 0.64 0.92 0 0.68 0.92 0 0.72 0.92 0 0.76 0.92 0 0.8 0.92 0 0.84 0.92 0 0.88 0.92 0 0.92 0.92 0 0.96 0.92 0 1 0.92 0 1.04 0.92 0 1.08 0.92 0 1.12 0.92 0 1.16 0.92 0 1.2 0.92 0 0 0.96 0 0.04 0.96 0 0.08 0.96 0 0.12 0.96 0 0.16 0.96 0 0.2 0.96 0 0.24 0.96 0 0.28 0.96 0 0.32 0.96 0 0.36 0.96 0 0.4 0.96 0 0.44 0.96 0 0.48 0.96 0 0.52 0.96 0 0.56 0.96 0 0.6 0.96 0 0.64 0.96 0 0.68 0.96 0 0.72 0.96 0 0.76 0.96 0 0.8 0.96 0 0.84 0.96 0 0.88 0.96 0 0.92 0.96 0 0.96 0.96 0 1 0.96 0 1.04 0.96 0 1.08 0.96 0 1.12 0.96 0 1.16 0.96 0 1.2 0.96 0 0 1 0 0.04 1 0 0.08 1 0 0.12 1 0 0.16 1 0 0.2 1 0 0.24 1 0 0.28 1 0 0.32 1 0 0.36 1 0 0.4 1 0 0.44 1 0 0.48 1 0 0.52 1 0 0.56 1 0 0.6 1 0 0.64 1 0 0.68 1 0 0.72 1 0 0.76 1 0 0.8 1 0 0.84 1 0 0.88 1 0 0.92 1 0 0.96 1 0 1 1 0 1.04 1 0 1.08 1 0 1.12 1 0 1.16 1 0 1.2 1 0 0 1.04 0 0.04 1.04 0 0.08 1.04 0 0.12 1.04 0 0.16 1.04 0 0.2 1.04 0 0.24 1.04 0 0.28 1.04 0 0.32 1.04 0 0.36 1.04 0 0.4 1.04 0 0.44 1.04 0 0.48 1.04 0 0.52 1.04 0 0.56 1.04 0 0.6 1.04 0 0.64 1.04 0 0.68 1.04 0 0.72 1.04 0 0.76 1.04 0 0.8 1.04 0 0.84 1.04 0 0.88 1.04 0 0.92 1.04 0 0.96 1.04 0 1 1.04 0 1.04 1.04 0 1.08 1.04 0 1.12 1.04 0 1.16 1.04 0 1.2 1.04 0 0 1.08 0 0.04 1.08 0 0.08 1.08 0 0.12 1.08 0 0.16 1.08 0 0.2 1.08 0 0.24 1.08 0 0.28 1.08 0 0.32 1.08 0 0.36 1.08 0 0.4 1.08 0 0.44 1.08 0 0.48 1.08 0 0.52 1.08 0 0.56 1.08 0 0.6 1.08 0 0.64 1.08 0 0.68 1.08 0 0.72 1.08 0 0.76 1.08 0 0.8 1.08 0 0.84 1.08 0 0.88 1.08 0 0.92 1.08 0 0.96 1.08 0 1 1.08 0 1.04 1.08 0 1.08 1.08 0 1.12 1.08 0 1.16 1.08 0 1.2 1.08 0 0 1.12 0 
[...]
			<PointData Scalars="VitesseX">
				<DataArray Name="VitesseX" type="Float32" format="ascii">
 0 -0.0608151 -0.103196 -0.0307393 0.109892 0.263704 0.366034 0.390049 0.351502 0.301933 0.256539 0.23101 0.232509 0.256091 0.292719 0.33398 0.374898 0.410533 0.387536 0.100503 -0.423342 -0.766525 -0.825812 -0.720529 -0.621389 -0.522599 -0.42274 -0.320576 -0.215353 -0.106834 0 0 0.0584239 0.0521573 0.0853769 0.168537 0.265007 0.334682 0.333408 0.291637 0.24733 0.218793 0.208179 0.217836 0.245992 0.285734 0.329223 0.371639 0.407864 0.386439 0.104016 -0.417384 -0.762969 -0.825714 -0.720982 -0.621905 -0.5232 -0.423378 -0.321151 -0.215742 -0.106996 0 0 -0.0165405 -0.0181615 -0.0255322 -0.0213722 0.00204046 0.0350388 0.0705261 0.0963774 0.10892 0.120116 0.140781 0.172408 0.214917 0.264146 0.314012 0.360496 0.398685 0.382116 0.113946 -0.399133 -0.751396 -0.824196 -0.72123 -0.622152 -0.523562 -0.423833 -0.321622 -0.216166 -0.10727 0 0 -0.0976318 -0.153652 -0.173522 -0.183777 -0.192647 -0.18096 -0.139524 -0.0860267 -0.0362563 0.00964872 0.0576747 0.110348 0.166491 0.22527 0.283511 0.336357 0.378637 0.370738 0.126877 -0.369394 -0.731281 -0.82054 -0.72159 -0.622417 -0.523903 -0.424266 -0.322151 -0.216724 -0.107631 0 0 -0.136933 -0.209961 -0.240328 -0.260348 -0.27696 -0.278341 -0.244432 -0.187527 -0.126663 -0.0695114 -0.0130838 0.0453364 0.105936 0.170038 0.234641 0.293556 0.342079 0.346457 0.137214 -0.329582 -0.701142 -0.812586 -0.722302 -0.622863 -0.524362 -0.424806 -0.322852 -0.217456 -0.108078 0 0 -0.130015 -0.210343 -0.250592 -0.272443 -0.286396 -0.292612 -0.277914 -0.237252 -0.18294 -0.124082 -0.0673735 -0.0115172 0.0457655 0.105979 0.170134 0.233239 0.287288 0.305318 0.139335 -0.281503 -0.657997 -0.796001 -0.723492 -0.623495 -0.524943 -0.425437 -0.32367 -0.218322 -0.108583 0 0 -0.0915322 -0.158988 -0.200478 -0.218868 -0.231176 -0.244587 -0.251943 -0.241877 -0.208707 -0.160705 -0.108609 -0.0580414 -0.00752488 0.0445866 0.101392 0.161662 0.216996 0.245335 0.12802 -0.22821 -0.597457 -0.763965 -0.724793 -0.624261 -0.52562 -0.426127 -0.324568 -0.21933 -0.109189 0 0 -0.0162156 -0.0342606 -0.0668734 -0.105748 -0.139382 -0.163411 -0.18364 -0.200715 -0.201692 -0.177237 -0.138621 -0.0964018 -0.0540914 -0.0108798 0.036196 0.0881578 0.137838 0.167631 0.0983402 -0.174705 -0.516129 -0.708572 -0.722314 -0.624926 -0.526373 -0.426862 -0.325538 -0.220503 -0.109998 0 0 0.0494122 0.0690937 0.0398026 -0.0114262 -0.0641894 -0.103167 -0.130336 -0.153466 -0.171996 -0.176378 -0.159767 -0.130071 -0.09681 -0.0620286 -0.0252063 0.0161363 0.0574925 0.0786635 0.0471931 -0.130191 -0.415002 -0.629789 -0.69934 -0.624923 -0.527148 -0.427637 -0.326575 -0.221835 -0.111113 0 0 0.059333 0.0923609 0.0764424 0.0304827 -0.0251257 -0.0767285 -0.108721 -0.129557 -0.15285 -0.172339 -0.177469 -0.1651 -0.140174 -0.112793 -0.0848648 -0.0546841 -0.0239161 -0.0122341 -0.0256795 -0.108663 -0.30797 -0.524085 -0.63766 -0.620063 -0.527501 -0.428427 -0.327657 -0.223287 -0.112468 0 0 0.0537019 0.0802043 0.0657963 0.0241762 -0.0271918 -0.0796656 -0.125479 -0.153554 -0.171544 -0.191408 -0.207817 -0.210127 -0.196281 -0.171818 -0.14837 -0.125951 -0.108793 -0.102973 -0.114711 -0.124386 -0.215359 -0.391671 -0.536182 -0.589015 -0.525351 -0.429094 -0.328682 -0.224752 -0.113927 0 0 0.0350016 0.046592 0.0273641 -0.0151271 -0.0676955 -0.120849 -0.1695 -0.208601 -0.232736 -0.249572 -0.265482 -0.277524 -0.275316 -0.25486 -0.225147 -0.204552 -0.19418 -0.196832 -0.20387 -0.186365 -0.167607 -0.252705 -0.403631 -0.505796 -0.510678 -0.428115 -0.329504 -0.226099 -0.115369 0 0 0.00784003 0.00125528 -0.0283298 -0.076625 -0.1304 -0.182306 -0.229672 -0.270079 -0.30264 -0.326253 -0.344381 -0.35883 -0.368275 -0.3642 -0.341669 -0.309346 -0.29312 -0.291783 -0.288909 -0.273631 -0.18378 -0.146846 -0.246309 -0.378603 -0.452545 -0.420614 -0.329471 -0.227183 -0.116739 0 0 -0.017868 -0.0449375 -0.0885725 -0.143636 -0.200616 -0.251668 -0.293973 -0.329905 -0.363481 -0.396934 -0.424781 -0.446693 -0.463953 -0.474271 -0.471436 -0.452559 -0.423205 -0.398509 -0.379252 -0.354928 -0.249749 -0.113439 -0.103791 -0.220036 -0.337644 -0.383412 -0.325547 -0.227724 -0.117949 0 0 -0.0379914 -0.0832598 -0.139146 -0.202938 -0.263836 -0.313587 -0.35175 -0.382089 -0.410465 -0.444996 -0.487221 -0.525444 -0.555848 -0.580621 -0.59575 -0.599178 -0.579184 -0.538017 -0.486917 -0.42357 -0.330332 -0.153672 -0.0275935 -0.0567675 -0.183986 -0.287314 -0.302985 -0.225748 -0.118815 0 0 -0.0530464 -0.110221 -0.176741 -0.246136 -0.307023 -0.354969 -0.390831 -0.417732 -0.442495 -0.47268 -0.517818 -0.574244 -0.628388 -0.673639 -0.710921 -0.730904 -0.72814 -0.687996 -0.616936 -0.502664 -0.382989 -0.241004 -0.0374391 0.0549846 -0.0104789 -0.141391 -0.228491 -0.212738 -0.118247 0 0 -0.0638156 -0.126672 -0.187959 -0.24872 -0.305426 -0.353255 -0.392004 -0.424315 -0.452313 -0.482178 -0.524021 -0.589832 -0.664743 -0.735912 -0.79873 -0.840387 -0.851128 -0.819663 -0.73752 -0.605167 -0.434665 -0.297421 -0.126793 0.0796252 0.126472 0.0355972 -0.0933442 -0.158668 -0.111352 0 0 -0.0698397 -0.128626 -0.181256 -0.230245 -0.275885 -0.317709 -0.356087 -0.39259 -0.43052 -0.470066 -0.515497 -0.571568 -0.658431 -0.758698 -0.84237 -0.903163 -0.933733 -0.915837 -0.830207 -0.695467 -0.515411 -0.333966 -0.203631 0.00925734 0.183505 0.191667 0.0834803 -0.0402566 -0.0734534 0 0 -0.0680062 -0.119526 -0.15524 -0.186096 -0.215937 -0.251375 -0.29219 -0.33534 -0.382846 -0.43518 -0.487218 -0.549385 -0.622858 -0.713071 -0.820359 -0.916304 -0.965188 -0.961657 -0.884068 -0.756837 -0.597234 -0.403663 -0.226381 -0.103996 0.149851 0.274724 0.252977 0.130127 0.0267804 0 0 -0.0513972 -0.0894699 -0.10909 -0.121305 -0.139727 -0.173991 -0.224274 -0.281341 -0.33596 -0.388803 -0.444828 -0.502946 -0.574069 -0.656989 -0.751781 -0.838681 -0.900202 -0.926741 -0.897357 -0.788884 -0.650844 -0.48322 -0.277262 -0.14373 0.0333495 0.272792 0.349416 0.299079 0.180486 0 0 -0.0172778 -0.0394172 -0.0530145 -0.0604575 -0.0751725 -0.106953 -0.161665 -0.231749 -0.29703 -0.350492 -0.39865 -0.448606 -0.508464 -0.584004 -0.664569 -0.736982 -0.796005 -0.826564 -0.826867 -0.782271 -0.675708 -0.542471 -0.371362 -0.151743 -0.0629754 0.180076 0.362302 0.378046 0.303864 0 0 0.00513745 -0.00765344 -0.0150453 -0.0248523 -0.0318134 -0.0533892 -0.0997072 -0.163971 -0.23285 -0.296882 -0.35301 -0.40618 -0.446969 -0.493528 -0.559514 -0.623274 -0.67876 -0.719595 -0.735396 -0.719595 -0.667816 -0.564562 -0.431463 -0.238743 -0.0901871 0.0505037 0.285709 0.357971 0.318198 0 0 0.00264315 -0.00542539 -0.00119854 -0.00798065 -0.000359115 -0.0103458 -0.0369159 -0.0748 -0.125925 -0.191939 -0.270518 -0.347257 -0.400905 -0.432718 -0.456032 -0.502453 -0.567644 -0.609855 -0.634994 -0.649902 -0.631963 -0.562987 -0.463529 -0.355764 -0.136797 -0.0447624 0.125891 0.250531 0.238961 0 0 -0.00976233 -0.00898407 -0.00935531 -0.000944412 0.0197647 0.0150393 0.00816923 0.00584901 -0.0120283 -0.0589901 -0.136628 -0.232803 -0.324718 -0.388406 -0.41182 -0.415621 -0.43684 -0.492048 -0.550614 -0.565623 -0.565274 -0.561155 -0.497618 -0.43474 -0.281514 -0.141871 -0.054543 0.0702142 0.116019 0 0 -0.0215614 -0.0131382 -0.0245864 -0.00428667 0.014259 0.012153 0.0221017 0.0440889 0.0602632 0.0465976 -0.00615382 -0.0885912 -0.191361 -0.290423 -0.365891 -0.387706 -0.381949 -0.381112 -0.41404 -0.468928 -0.516289 -0.534661 -0.532316 -0.507315 -0.474237 -0.315387 -0.232056 -0.127767 -0.01535 0 0 -0.028584 -0.0291911 -0.0371786 -0.018735 -0.00667152 -0.00719559 0.0111174 0.0439268 0.0791407 0.0906336 0.0690218 0.0216357 -0.0499697 -0.144885 -0.248041 -0.331628 -0.36652 -0.360993 -0.339771 -0.35338 -0.410923 -0.485411 -0.558533 -0.593166 -0.6159 -0.522812 -0.384946 -0.277353 -0.136384 0 0 -0.0295238 -0.0488071 -0.0445423 -0.0385825 -0.0311609 -0.025393 -0.00819554 0.0239334 0.0545643 0.0697 0.0730822 0.0628698 0.0368712 -0.0169137 -0.0991867 -0.203145 -0.295263 -0.347956 -0.352091 -0.335934 -0.334236 -0.397815 -0.538345 -0.645679 -0.680664 -0.627561 -0.488127 -0.355296 -0.220105 0 0 -0.046248 -0.0606641 -0.0766903 -0.0580775 -0.0535059 -0.0408997 -0.0243889 0.000805947 0.0181343 0.0214702 0.0194688 0.0245464 0.0361941 0.0361257 0.0060653 -0.0659855 -0.168985 -0.270899 -0.342003 -0.366158 -0.373521 -0.40593 -0.503614 -0.630062 -0.679295 -0.643298 -0.525321 -0.39156 -0.238249 0 0 -0.0612183 -0.12912 -0.101546 -0.0849359 -0.0639703 -0.0554992 -0.0286362 -0.0123694 -0.00804635 -0.0194163 -0.0299129 -0.0312572 -0.0211585 -0.00594609 0.00376318 -0.0111811 -0.0708484 -0.172488 -0.29003 -0.386471 -0.455038 -0.507007 -0.571559 -0.632612 -0.640358 -0.595874 -0.51746 -0.408001 -0.215412 0 0 -0.375082 -0.166009 -0.110006 -0.0911243 -0.0828103 -0.0510137 -0.0275561 -0.0111608 -0.0186052 -0.0381992 -0.0552971 -0.060355 -0.0553829 -0.0447054 -0.0327515 -0.0269649 -0.0503962 -0.131399 -0.283157 -0.475546 -0.643365 -0.746608 -0.782957 -0.768211 -0.672486 -0.521217 -0.39501 -0.320461 -0.28734 0 0 0 0 0 0 0 0 0 0 0 0 0 0 0 0 0 0 0 0 0 0 0 0 0 0 0 0 0 0 0 0
				</DataArray>
				<DataArray Name="VitesseY" type="Float32" format="ascii">
 0 0 0 0 0 0 0 0 0 0 0 0 0 0 0 0 0 0 0 0 0 0 0 0 0 0 0 0 0 0 0 -0.0567259 0.0655331 -0.0104443 -0.0888125 -0.128676 -0.115262 -0.0502381 0.033996 0.0527813 0.0475113 0.0329786 0.00994187 -0.0138789 -0.030006 -0.037393 -0.0369243 -0.033674 -0.028526 -0.0219449 -0.0115929 0.00164049 0.0117591 0.0153989 0.014395 0.0125377 0.010141 0.00676987 0.00221363 -0.00155195 -0.00341102 0 -0.0921872 0.0655528 0.00389415 -0.122631 -0.175811 -0.181597 -0.0800114 0.0361456 0.0730068 0.0654697 0.038849 0.000741406 -0.0388901 -0.0679088 -0.079787 -0.0777869 -0.0697276 -0.058042 -0.0441469 -0.0239845 0.00201426 0.0226382 0.0305747 0.0289927 0.0253266 0.0205711 0.0137666 0.00447004 -0.00314063 -0.00683598 0 -0.0144114 0.108365 0.0251039 -0.110257 -0.175687 -0.189888 -0.109937 -0.00436323 0.0405455 0.0419844 0.011667 -0.0342358 -0.0812585 -0.116912 -0.130719 -0.125771 -0.110681 -0.0905069 -0.0683215 -0.0389898 -0.00074607 0.0313549 0.045069 0.0439123 0.0384263 0.0313513 0.0210911 0.0069513 -0.00457106 -0.0101352 0 0.127394 0.207419 0.0614784 -0.0899632 -0.159388 -0.174412 -0.129428 -0.053916 -0.0139552 -0.0078411 -0.0352346 -0.0853952 -0.134861 -0.173435 -0.190247 -0.181629 -0.15878 -0.129161 -0.0982376 -0.0602593 -0.00977367 0.035729 0.0578872 0.059162 0.0518381 0.0425556 0.0289872 0.00996157 -0.00565572 -0.0132007 0 0.2886 0.319487 0.109186 -0.0606197 -0.140567 -0.156406 -0.133635 -0.0921826 -0.067206 -0.0637419 -0.0894346 -0.138517 -0.190223 -0.230653 -0.252208 -0.243817 -0.214671 -0.176366 -0.138162 -0.0926603 -0.029647 0.0321846 0.0677022 0.0744949 0.0656174 0.0543122 0.0376827 0.0137172 -0.0063413 -0.0160789 0 0.421328 0.41488 0.168148 -0.0313596 -0.123301 -0.141212 -0.123184 -0.104155 -0.100241 -0.112566 -0.14201 -0.189506 -0.241152 -0.283706 -0.308907 -0.306695 -0.275935 -0.231816 -0.189747 -0.139789 -0.0655882 0.0161498 0.0722294 0.0890192 0.0798164 0.0666573 0.0472444 0.0183854 -0.00657031 -0.0188552 0 0.489003 0.461611 0.213624 0.00384243 -0.0949617 -0.117464 -0.103675 -0.0904939 -0.101493 -0.138409 -0.183758 -0.234397 -0.285933 -0.330039 -0.357686 -0.363967 -0.337234 -0.292221 -0.249997 -0.201363 -0.121129 -0.0180565 0.0647989 0.0985883 0.0945545 0.0796302 0.0577804 0.0242485 -0.00611505 -0.0214538 0 0.481644 0.442294 0.237912 0.0479513 -0.0426148 -0.0773966 -0.0750071 -0.066397 -0.0802987 -0.13529 -0.203013 -0.267556 -0.323199 -0.368571 -0.399764 -0.412288 -0.395028 -0.353976 -0.312211 -0.271211 -0.194227 -0.076535 0.0343186 0.095392 0.108992 0.0933175 0.0694293 0.0316675 -0.00460875 -0.0235361 0 0.431083 0.390599 0.24335 0.094144 0.0145919 -0.0201796 -0.0361084 -0.0408708 -0.0570106 -0.1126 -0.198724 -0.281833 -0.351271 -0.401277 -0.435394 -0.45305 -0.446946 -0.415285 -0.373393 -0.337409 -0.276342 -0.159058 -0.0233119 0.0774232 0.117027 0.107666 0.0822835 0.0410271 -0.00159782 -0.0246365 0 0.375443 0.339474 0.241218 0.132831 0.0695995 0.0376646 0.0156122 -0.00982349 -0.0347614 -0.0901804 -0.180085 -0.278998 -0.366638 -0.430525 -0.468809 -0.48937 -0.49381 -0.472631 -0.43477 -0.395636 -0.350151 -0.255329 -0.1099 0.0266364 0.103656 0.121336 0.0964642 0.0525604 0.00334447 -0.0243695 0 0.327219 0.305141 0.243501 0.170153 0.122133 0.094598 0.0693003 0.0354066 -0.00946187 -0.071443 -0.162031 -0.267103 -0.369952 -0.453987 -0.507275 -0.530577 -0.538039 -0.526042 -0.494333 -0.44973 -0.408549 -0.344841 -0.216361 -0.0580351 0.06629 0.121043 0.11108 0.0664024 0.0104803 -0.0225773 0 0.302573 0.292828 0.256595 0.211373 0.177111 0.150808 0.122665 0.0814116 0.0259817 -0.0500741 -0.145189 -0.255337 -0.36556 -0.467754 -0.543679 -0.58388 -0.592867 -0.581305 -0.551749 -0.503702 -0.458847 -0.412376 -0.319817 -0.168047 -0.00969522 0.0930822 0.122153 0.0818754 0.0198497 -0.019301 0 0.307844 0.303255 0.285265 0.261235 0.235325 0.20775 0.171911 0.123982 0.0599477 -0.0199547 -0.123549 -0.24114 -0.359542 -0.471882 -0.569344 -0.634879 -0.664709 -0.650797 -0.62086 -0.567698 -0.500261 -0.45129 -0.396155 -0.279273 -0.117253 0.0292229 0.106753 0.0972117 0.0312172 -0.0147127 0 0.336609 0.335644 0.330514 0.320495 0.29935 0.264821 0.217824 0.158756 0.0895755 0.00726661 -0.0924716 -0.217897 -0.346853 -0.471804 -0.583754 -0.676076 -0.730031 -0.744394 -0.697415 -0.642586 -0.559552 -0.475136 -0.428455 -0.367231 -0.234479 -0.0701215 0.055506 0.0979857 0.0426507 -0.00912808 0 0.383492 0.385166 0.388691 0.389248 0.367539 0.320713 0.259894 0.188886 0.111399 0.028794 -0.0645525 -0.181718 -0.3222 -0.459815 -0.591579 -0.70455 -0.785871 -0.82356 -0.791067 -0.721774 -0.632921 -0.523508 -0.437716 -0.400127 -0.331416 -0.189905 -0.0344332 0.0631799 0.0487071 -0.00393771 0 0.444666 0.445559 0.452617 0.457635 0.432423 0.374473 0.300081 0.217471 0.131601 0.0447163 -0.044613 -0.147899 -0.280744 -0.436714 -0.584813 -0.717189 -0.822334 -0.877658 -0.87975 -0.800202 -0.699738 -0.588529 -0.467673 -0.40114 -0.372638 -0.294685 -0.152695 -0.017069 0.0281837 -0.00375784 0 0.516062 0.511338 0.512217 0.514775 0.486609 0.420663 0.337261 0.245646 0.152784 0.0610746 -0.0305566 -0.126576 -0.246566 -0.395985 -0.558097 -0.708531 -0.82894 -0.904028 -0.92787 -0.85937 -0.755838 -0.645473 -0.531806 -0.410669 -0.371359 -0.350323 -0.263879 -0.131015 -0.0378191 -0.0306074 0 0.593053 0.577292 0.560278 0.555268 0.521707 0.452486 0.367268 0.269302 0.171057 0.0752008 -0.0223144 -0.120926 -0.229565 -0.356575 -0.510302 -0.661305 -0.79408 -0.88831 -0.931398 -0.886417 -0.790069 -0.687216 -0.586601 -0.464111 -0.364372 -0.352278 -0.333653 -0.247995 -0.147607 -0.113945 0 0.62863 0.602139 0.561517 0.549069 0.512879 0.448201 0.37118 0.275913 0.170589 0.0695717 -0.0272854 -0.124015 -0.219861 -0.324563 -0.448948 -0.58624 -0.713686 -0.809634 -0.860439 -0.868903 -0.797578 -0.70795 -0.613908 -0.531322 -0.396267 -0.331921 -0.345341 -0.330723 -0.275311 -0.269178 0 0.482217 0.452524 0.386235 0.375513 0.346432 0.299377 0.252539 0.190707 0.114986 0.0406785 -0.0356871 -0.118918 -0.202994 -0.287325 -0.378499 -0.485737 -0.59051 -0.678973 -0.740565 -0.772615 -0.760948 -0.698759 -0.630506 -0.553523 -0.455652 -0.343078 -0.332185 -0.3623 -0.379976 -0.46695 0 0.00753438 -0.00195146 -0.0675199 -0.0749257 -0.0887609 -0.0994374 -0.0952515 -0.0891977 -0.085176 -0.0725476 -0.0612235 -0.0811184 -0.144342 -0.229429 -0.297833 -0.350822 -0.424375 -0.510711 -0.588998 -0.638962 -0.663798 -0.656034 -0.617308 -0.555329 -0.50921 -0.402669 -0.330192 -0.371394 -0.452647 -0.63991 0 -0.479017 -0.457844 -0.489428 -0.487889 -0.497808 -0.48708 -0.463033 -0.42715 -0.369772 -0.287051 -0.187864 -0.09653 -0.0515466 -0.0693786 -0.149831 -0.233207 -0.27422 -0.322739 -0.402997 -0.476756 -0.534193 -0.55745 -0.559394 -0.552413 -0.529183 -0.481641 -0.393511 -0.404306 -0.506491 -0.746041 0 -0.644471 -0.614563 -0.627913 -0.625189 -0.643651 -0.637112 -0.627312 -0.607501 -0.559041 -0.477042 -0.365821 -0.231303 -0.0964141 -0.00290954 0.0229427 -0.0289816 -0.135772 -0.192258 -0.210985 -0.277951 -0.371854 -0.424992 -0.45767 -0.495733 -0.529852 -0.556779 -0.536679 -0.502234 -0.571332 -0.783332 0 -0.538845 -0.517807 -0.536638 -0.540971 -0.565999 -0.575406 -0.589657 -0.596848 -0.58984 -0.555287 -0.480553 -0.376003 -0.245447 -0.0958005 0.0327906 0.101456 0.0940539 -0.0011137 -0.107351 -0.133685 -0.144857 -0.24157 -0.356149 -0.431896 -0.504674 -0.592272 -0.645379 -0.629638 -0.632625 -0.768756 0 -0.402051 -0.395205 -0.42745 -0.439951 -0.466451 -0.481407 -0.496183 -0.501298 -0.499641 -0.495615 -0.48624 -0.448287 -0.366744 -0.249045 -0.0980331 0.0582256 0.166058 0.199257 0.147372 0.0257238 -0.0625208 -0.0853136 -0.135382 -0.283372 -0.474539 -0.615209 -0.680454 -0.679382 -0.640547 -0.672946 0 -0.253319 -0.269925 -0.315744 -0.339925 -0.370259 -0.389053 -0.404413 -0.405995 -0.404255 -0.403087 -0.405879 -0.410524 -0.400626 -0.346055 -0.23915 -0.0911315 0.0817621 0.221049 0.288421 0.27543 0.17566 0.0482253 -0.0438543 -0.140733 -0.315932 -0.523332 -0.627796 -0.643557 -0.596144 -0.52147 0 -0.0848148 -0.144108 -0.200157 -0.235708 -0.280596 -0.294942 -0.308188 -0.308296 -0.306262 -0.30578 -0.311341 -0.321009 -0.329578 -0.329483 -0.29944 -0.210979 -0.0682298 0.111332 0.272307 0.359196 0.36647 0.285062 0.12395 -0.0552117 -0.232099 -0.385086 -0.488317 -0.525507 -0.517652 -0.395169 0 0.0491006 0.0420775 -0.100604 -0.144307 -0.193714 -0.203026 -0.212052 -0.210175 -0.203207 -0.203048 -0.210277 -0.221314 -0.230036 -0.236112 -0.236194 -0.22054 -0.157669 -0.0303578 0.14494 0.310658 0.383722 0.360263 0.250695 0.0693252 -0.128443 -0.27762 -0.355397 -0.391632 -0.408068 -0.320544 0 0.645977 0.095835 -0.0750118 -0.0619348 -0.108521 -0.0981881 -0.127555 -0.102334 -0.100468 -0.0951038 -0.103033 -0.110716 -0.119479 -0.123937 -0.126519 -0.126197 -0.118115 -0.0763115 0.0299114 0.187455 0.308803 0.3199 0.238743 0.115402 -0.0157274 -0.136521 -0.22013 -0.238262 -0.215425 -0.287365 0 5.44645 0 0 0 0 0 0 0 0 0 0 0 0 0 0 0 0 0 0 0 0 0 0 0 0 0 0 0 0 0 0
				</DataArray>
			</PointData>
			<CellData Scalars="Density">
				<DataArray Name="Density" type="Float32" format="ascii">