<?xml version="1.0"?>
<VTKFile type="PolyData">
	<PolyData>
		<Piece NumberOfPoints="961" NumberOfPolys="900">
			<Points>
				<DataArray type="Float32" NumberOfComponents="3" format="ascii">
 0 0 0 0.04 0 0 0.08 0 0 0.12 0 0 0.16 0 0 0.2 0 0 0.24 0 0 0.28 0 0 0.32 0 0 0.36 0 0 0.4 0 0 0.44 0 0 0.48 0 0 0.52 0 0 0.56 0 0 0.6 0 0 0.64 0 0 0.68 0 0 0.72 0 0 0.76 0 0 0.8 0 0 0.84 0 0 0.88 0 0 0.92 0 0 0.96 0 0 1 0 0 1.04 0 0 1.08 0 0 1.12 0 0 1.16 0 0 1.2 0 0 0 0.04 0 0.04 0.04 0 0.08 0.04 0 0.12 0.04 0 0.16 0.04 0 0.2 0.04 0 0.24 0.04 0 0.28 0.04 0 0.32 0.04 0 0.36 0.04 0 0.4 0.04 0 0.44 0.04 0 0.48 0.04 0 0.52 0.04 0 0.56 0.04 0 0.6 0.04 0 0.64 0.04 0 0.68 0.04 0 0.72 0.04 0 0.76 0.04 0 0.8 0.04 0 0.84 0.04 0 0.88 0.04 0 0.92 0.04 0 0.96 0.04 0 1 0.04 0 1.04 0.04 0 1.08 0.04 0 1.12 0.04 0 1.16 0.04 0 1.2 0.04 0 0 0.08 0 0.04 0.08 0 0.08 0.08 0 0.12 0.08 0 0.16 0.08 0 0.2 0.08 0 0.24 0.08 0 0.28 0.08 0 0.32 0.08 0 0.36 0.08 0 0.4 0.08 0 0.44 0.08 0 0.48 0.08 0 0.52 0.08 0 0.56 0.08 0 0.6 0.08 0 0.64 0.08 0 0.68 0.08 0 0.72 0.08 0 0.76 0.08 0 0.8 0.08 0 0.84 0.08 0 0.88 0.08 0 0.92 0.08 0 0.96 0.08 0 1 0.08 0 1.04 0.08 0 1.08 0.08 0 1.12 0.08 0 1.16 0.08 0 1.2 0.08 0 0 0.12 0 0.04 0.12 0 0.08 0.12 0 0.12 0.12 0 0.16 0.12 0 0.2 0.12 0 0.24 0.12 0 0.28 0.12 0 0.32 0.12 0 0.36 0.12 0 0.4 0.12 0 0.44 0.12 0 0.48 0.12 0 0.52 0.12 0 0.56 0.12 0 0.6 0.12 0 0.64 0.12 0 0.68 0.12 0 0.72 0.12 0 0.76 0.12 0 0.8 0.12 0 0.84 0.12 0 0.88 0.12 0 0.92 0.12 0 0.96 0.12 0 1 0.12 0 1.04 0.12 0 1.08 0.12 0 1.12 0.12 0 1.16 0.12 0 1.2 0.12 0 0 0.16 0 0.04 0.16 0 0.08 0.16 0 0.12 0.16 0 0.16 0.16 0 0.2 0.16 0 0.24 0.16 0 0.28 0.16 0 0.32 0.16 0 0.36 0.16 0 0.4 0.16 0 0.44 0.16 0 0.48 0.16 0 0.52 0.16 0 0.56 0.16 0 0.6 0.16 0 0.64 0.16 0 0.68 0.16 0 0.72 0.16 0 0.76 0.16 0 0.8 0.16 0 0.84 0.16 0 0.88 0.16 0 0.92 0.16 0 0.96 0.16 0 1 0.16 0 1.04 0.16 0 1.08 0.16 0 1.12 0.16 0 1.16 0.16 0 1.2 0.16 0 0 0.2 0 0.04 0.2 0 0.08 0.2 0 0.12 0.2 0 0.16 0.2 0 0.2 0.2 0 0.24 0.2 0 0.28 0.2 0 0.32 0.2 0 0.36 0.2 0 0.4 0.2 0 0.44 0.2 0 0.48 0.2 0 0.52 0.2 0 0.56 0.2 0 0.6 0.2 0 0.64 0.2 0 0.68 0.2 0 0.72 0.2 0 0.76 0.2 0 0.8 0.2 0 0.84 0.2 0 0.88 0.2 0 0.92 0.2 0 0.96 0.2 0 1 0.2 0 1.04 0.2 0 1.08 0.2 0 1.12 0.2 0 1.16 0.2 0 1.2 0.2 0 0 0.24 0 0.04 0.24 0 0.08 0.24 0 0.12 0.24 0 0.16 0.24 0 0.2 0.24 0 0.24 0.24 0 0.28 0.24 0 0.32 0.24 0 0.36 0.24 0 0.4 0.24 0 0.44 0.24 0 0.48 0.24 0 0.52 0.24 0 0.56 0.24 0 0.6 0.24 0 0.64 0.24 0 0.68 0.24 0 0.72 0.24 0 0.76 0.24 0 0.8 0.24 0 0.84 0.24 0 0.88 0.24 0 0.92 0.24 0 0.96 0.24 0 1 0.24 0 1.04 0.24 0 1.08 0.24 0 1.12 0.24 0 1.16 0.24 0 1.2 0.24 0 0 0.28 0 0.04 0.28 0 0.08 0.28 0 0.12 0.28 0 0.16 0.28 0 0.2 0.28 0 0.24 0.28 0 0.28 0.28 0 0.32 0.28 0 0.36 0.28 0 0.4 0.28 0 0.44 0.28 0 0.48 0.28 0 0.52 0.28 0 0.56 0.28 0 0.6 0.28 0 0.64 0.28 0 0.68 0.28 0 0.72 0.28 0 0.76 0.28 0 0.8 0.28 0 0.84 0.28 0 0.88 0.28 0 0.92 0.28 0 0.96 0.28 0 1 0.28 0 1.04 0.28 0 1.08 0.28 0 1.12 0.28 0 1.16 0.28 0 1.2 0.28 0 0 0.32 0 0.04 0.32 0 0.08 0.32 0 0.12 0.32 0 0.16 0.32 0 0.2 0.32 0 0.24 0.32 0 0.28 0.32 0 0.32 0.32 0 0.36 0.32 0 0.4 0.32 0 0.44 0.32 0 0.48 0.32 0 0.52 0.32 0 0.56 0.32 0 0.6 0.32 0 0.64 0.32 0 0.68 0.32 0 0.72 0.32 0 0.76 0.32 0 0.8 0.32 0 0.84 0.32 0 0.88 0.32 0 0.92 0.32 0 0.96 0.32 0 1 0.32 0 1.04 0.32 0 1.08 0.32 0 1.12 0.32 0 1.16 0.32 0 1.2 0.32 0 0 0.36 0 0.04 0.36 0 0.08 0.36 0 0.12 0.36 0 0.16 0.36 0 0.2 0.36 0 0.24 0.36 0 0.28 0.36 0 0.32 0.36 0 0.36 0.36 0 0.4 0.36 0 0.44 0.36 0 0.48 0.36 0 0.52 0.36 0 0.56 0.36 0 0.6 0.36 0 0.64 0.36 0 0.68 0.36 0 0.72 0.36 0 0.76 0.36 0 0.8 0.36 0 0.84 0.36 0 0.88 0.36 0 0.92 0.36 0 0.96 0.36 0 1 0.36 0 1.04 0.36 0 1.08 0.36 0 1.12 0.36 0 1.16 0.36 0 1.2 0.36 0 0 0.4 0 0.04 0.4 0 0.08 0.4 0 0.12 0.4 0 0.16 0.4 0 0.2 0.4 0 0.24 0.4 0 0.28 0.4 0 0.32 0.4 0 0.36 0.4 0 0.4 0.4 0 0.44 0.4 0 0.48 0.4 0 0.52 0.4 0 0.56 0.4 0 0.6 0.4 0 0.64 0.4 0 0.68 0.4 0 0.72 0.4 0 0.76 0.4 0 0.8 0.4 0 0.84 0.4 0 0.88 0.4 0 0.92 0.4 0 0.96 0.4 0 1 0.4 0 1.04 0.4 0 1.08 0.4 0 1.12 0.4 0 1.16 0.4 0 1.2 0.4 0 0 0.44 0 0.04 0.44 0 0.08 0.44 0 0.12 0.44 0 0.16 0.44 0 0.2 0.44 0 0.24 0.44 0 0.28 0.44 0 0.32 0.44 0 0.36 0.44 0 0.4 0.44 0 0.44 0.44 0 0.48 0.44 0 0.52 0.44 0 0.56 0.44 0 0.6 0.44 0 0.64 0.44 0 0.68 0.44 0 0.72 0.44 0 0.76 0.44 0 0.8 0.44 0 0.84 0.44 0 0.88 0.44 0 0.92 0.44 0 0.96 0.44 0 1 0.44 0 1.04 0.44 0 1.08 0.44 0 1.12 0.44 0 1.16 0.44 0 1.2 0.44 0 0 0.48 0 0.04 0.48 0 0.08 0.48 0 0.12 0.48 0 0.16 0.48 0 0.2 0.48 0 0.24 0.48 0 0.28 0.48 0 0.32 0.48 0 0.36 0.48 0 0.4 0.48 0 0.44 0.48 0 0.48 0.48 0 0.52 0.48 0 0.56 0.48 0 0.6 0.48 0 0.64 0.48 0 0.68 0.48 0 0.72 0.48 0 0.76 0.48 0 0.8 0.48 0 0.84 0.48 0 0.88 0.48 0 0.92 0.48 0 0.96 0.48 0 1 0.48 0 1.04 0.48 0 1.08 0.48 0 1.12 0.48 0 1.16 0.48 0 1.2 0.48 0 0 0.52 0 0.04 0.52 0 0.08 0.52 0 0.12 0.52 0 0.16 0.52 0 0.2 0.52 0 0.24 0.52 0 0.28 0.52 0 0.32 0.52 0 0.36 0.52 0 0.4 0.52 0 0.44 0.52 0 0.48 0.52 0 0.52 0.52 0 0.56 0.52 0 0.6 0.52 0 0.64 0.52 0 0.68 0.52 0 0.72 0.52 0 0.76 0.52 0 0.8 0.52 0 0.84 0.52 0 0.88 0.52 0 0.92 0.52 0 0.96 0.52 0 1 0.52 0 1.04 0.52 0 1.08 0.52 0 1.12 0.52 0 1.16 0.52 0 1.2 0.52 0 0 0.56 0 0.04 0.56 0 0.08 0.56 0 0.12 0.56 0 0.16 0.56 0 0.2 0.56 0 0.24 0.56 0 0.28 0.56 0 0.32 0.56 0 0.36 0.56 0 0.4 0.56 0 0.44 0.56 0 0.48 0.56 0 0.52 0.56 0 0.56 0.56 0 0.6 0.56 0 0.64 0.56 0 0.68 0.56 0 0.72 0.56 0 0.76 0.56 0 0.8 0.56 0 0.84 0.56 0 0.88 0.56 0 0.92 0.56 0 0.96 0.56 0 1 0.56 0 1.04 0.56 0 1.08 0.56 0 1.12 0.56 0 1.16 0.56 0 1.2 0.56 0 0 0.6 0 0.04 0.6 0 0.08 0.6 0 0.12 0.6 0 0.16 0.6 0 0.2 0.6 0 0.24 0.6 0 0.28 0.6 0 0.32 0.6 0 0.36 0.6 0 0.4 0.6 0 0.44 0.6 0 0.48 0.6 0 0.52 0.6 0 0.56 0.6 0 0.6 0.6 0 0.64 0.6 0 0.68 0.6 0 0.72 0.6 0 0.76 0.6 0 0.8 0.6 0 0.84 0.6 0 0.88 0.6 0 0.92 0.6 0 0.96 0.6 0 1 0.6 0 1.04 0.6 0 1.08 0.6 0 1.12 0.6 0 1.16 0.6 0 1.2 0.6 0 0 0.64 0 0.04 0.64 0 0.08 0.64 0 0.12 0.64 0 0.16 0.64 0 0.2 0.64 0 0.24 0.64 0 0.28 0.64 0 0.32 0.64 0 0.36 0.64 0 0.4 0.64 0 0.44 0.64 0 0.48 0.64 0 0.52 0.64 0 0.56 0.64 0 0.6 0.64 0 0.64 0.64 0 0.68 0.64 0 0.72 0.64 0 0.76 0.64 0 0.8 0.64 0 0.84 0.64 0 0.88 0.64 0 0.92 0.64 0 0.96 0.64 0 1 0.64 0 1.04 0.64 0 1.08 0.64 0 1.12 0.64 0 1.16 0.64 0 1.2 0.64 0 0 0.68 0 0.04 0.68 0 0.08 0.68 0 0.12 0.68 0 0.16 0.68 0 0.2 0.68 0 0.24 0.68 0 0.28 0.68 0 0.32 0.68 0 0.36 0.68 0 0.4 0.68 0 0.44 0.68 0 0.48 0.68 0 0.52 0.68 0 0.56 0.68 0 0.6 0.68 0 0.64 0.68 0 0.68 0.68 0 0.72 0.68 0 0.76 0.68 0 0.8 0.68 0 0.84 0.68 0 0.88 0.68 0 0.92 0.68 0 0.96 0.68 0 1 0.68 0 1.04 0.68 0 1.08 0.68 0 1.12 0.68 0 1.16 0.68 0 1.2 0.68 0 0 0.72 0 0.04 0.72 0 0.08 0.72 0 0.12 0.72 0 0.16 0.72 0 0.2 0.72 0 0.24 0.72 0 0.28 0.72 0 0.32 0.72 0 0.36 0.72 0 0.4 0.72 0 0.44 0.72 0 0.48 0.72 0 0.52 0.72 0 0.56 0.72 0 0.6 0.72 0 0.64 0.72 0 0.68 0.72 0 0.72 0.72 0 0.76 0.72 0 0.8 0.72 0 0.84 0.72 0 0.88 0.72 0 0.92 0.72 0 0.96 0.72 0 1 0.72 0 1.04 0.72 0 1.08 0.72 0 1.12 0.72 0 1.16 0.72 0 1.2 0.72 0 0 0.76 0 0.04 0.76 0 0.08 0.76 0 0.12 0.76 0 0.16 0.76 0 0.2 0.76 0 0.24 0.76 0 0.28 0.76 0 0.32 0.76 0 0.36 0.76 0 0.4 0.76 0 0.44 0.76 0 0.48 0.76 0 0.52 0.76 0 0.56 0.76 0 0.6 0.76 0 0.64 0.76 0 0.68 0.76 0 0.72 0.76 0 0.76 0.76 0 0.8 0.76 0 0.84 0.76 0 0.88 0.76 0 0.92 0.76 0 0.96 0.76 0 1 0.76 0 1.04 0.76 0 1.08 0.76 0 1.12 0.76 0 1.16 0.76 0 1.2 0.76 0 0 0.8 0 0.04 0.8 0 0.08 0.8 0 0.12 0.8 0 0.16 0.8 0 0.2 0.8 0 0.24 0.8 0 0.28 0.8 0 0.32 0.8 0 0.36 0.8 0 0.4 0.8 0 0.44 0.8 0 0.48 0.8 0 0.52 0.8 0 0.56 0.8 0 0.6 0.8 0 0.64 0.8 0 0.68 0.8 0 0.72 0.8 0 0.76 0.8 0 0.8 0.8 0 0.84 0.8 0 0.88 0.8 0 0.92 0.8 0 0.96 0.8 0 1 0.8 0 1.04 0.8 0 1.08 0.8 0 1.12 0.8 0 1.16 0.8 0 1.2 0.8 0 0 0.84 0 0.04 0.84 0 0.08 0.84 0 0.12 0.84 0 0.16 0.84 0 0.2 0.84 0 0.24 0.84 0 0.28 0.84 0 0.32 0.84 0 0.36 0.84 0 0.4 0.84 0 0.44 0.84 0 0.48 0.84 0 0.52 0.84 0 0.56 0.84 0 0.6 0.84 0 0.64 0.84 0 0.68 0.84 0 0.72 0.84 0 0.76 0.84 0 0.8 0.84 0 0.84 0.84 0 0.88 0.84 0 0.92 0.84 0 0.96 0.84 0 1 0.84 0 1.04 0.84 0 1.08 0.84 0 1.12 0.84 0 1.16 0.84 0 1.2 0.84 0 0 0.88 0 0.04 0.88 0 0.08 0.88 0 0.12 0.88 0 0.16 0.88 0 0.2 0.88 0 0.24 0.88 0 0.28 0.88 0 0.32 0.88 0 0.36 0.88 0 0.4 0.88 0 0.44 0.88 0 0.48 0.88 0 0.52 0.88 0 0.56 0.88 0 0.6 0.88 0 0.64 0.88 0 0.68 0.88 0 0.72 0.88 0 0.76 0.88 0 0.8 0.88 0 0.84 0.88 0 0.88 0.88 0 0.92 0.88 0 0.96 0.88 0 1 0.88 0 1.04 0.88 0 1.08 0.88 0 1.12 0.88 0 1.16 0.88 0 1.2 0.88 0 0 0.92 0 0.04 0.92 0 0.08 0.92 0 0.12 0.92 0 0.16 0.92 0 0.2 0.92 0 0.24 0.92 0 0.28 0.92 0 0.32 0.92 0 0.36 0.92 0 0.4 0.92 0 0.44 0.92 0 0.48 0.92 0 0.52 0.92 0 0.56 0.92 0 0.6 0.92 0 0.64 0.92 0 0.68 0.92 0 0.72 0.92 0 0.76 0.92 0 0.8 0.92 0 0.84 0.92 0 0.88 0.92 0 0.92 0.92 0 0.96 0.92 0 1 0.92 0 1.04 0.92 0 1.08 0.92 0 1.12 0.92 0 1.16 0.92 0 1.2 0.92 0 0 0.96 0 0.04 0.96 0 0.08 0.96 0 0.12 0.96 0 0.16 0.96 0 0.2 0.96 0 0.24 0.96 0 0.28 0.96 0 0.32 0.96 0 0.36 0.96 0 0.4 0.96 0 0.44 0.96 0 0.48 0.96 0 0.52 0.96 0 0.56 0.96 0 0.6 0.96 0 0.64 0.96 0 0.68 0.96 0 0.72 0.96 0 0.76 0.96 0 0.8 0.96 0 0.84 0.96 0 0.88 0.96 0 0.92 0.96 0 0.96 0.96 0 1 0.96 0 1.04 0.96 0 1.08 0.96 0 1.12 0.96 0 1.16 0.96 0 1.2 0.96 0 0 1 0 0.04 1 0 0.08 1 0 0.12 1 0 0.16 1 0 0.2 1 0 0.24 1 0 0.28 1 0 0.32 1 0 0.36 1 0 0.4 1 0 0.44 1 0 0.48 1 0 0.52 1 0 0.56 1 0 0.6 1 0 0.64 1 0 0.68 1 0 0.72 1 0 0.76 1 0 0.8 1 0 0.84 1 0 0.88 1 0 0.92 1 0 0.96 1 0 1 1 0 1.04 1 0 1.08 1 0 1.12 1 0 1.16 1 0 1.2 1 0 0 1.04 0 0.04 1.04 0 0.08 1.04 0 0.12 1.04 0 0.16 1.04 0 0.2 1.04 0 0.24 1.04 0 0.28 1.04 0 0.32 1.04 0 0.36 1.04 0 0.4 1.04 0 0.44 1.04 0 0.48 1.04 0 0.52 1.04 0 0.56 1.04 0 0.6 1.04 0 0.64 1.04 0 0.68 1.04 0 0.72 1.04 0 0.76 1.04 0 0.8 1.04 0 0.84 1.04 0 0.88 1.04 0 0.92 1.04 0 0.96 1.04 0 1 1.04 0 1.04 1.04 0 1.08 1.04 0 1.12 1.04 0 1.16 1.04 0 1.2 1.04 0 0 1.08 0 0.04 1.08 0 0.08 1.08 0 0.12 1.08 0 0.16 1.08 0 0.2 1.08 0 0.24 1.08 0 0.28 1.08 0 0.32 1.08 0 0.36 1.08 0 0.4 1.08 0 0.44 1.08 0 0.48 1.08 0 0.52 1.08 0 0.56 1.08 0 0.6 1.08 0 0.64 1.08 0 0.68 1.08 0 0.72 1.08 0 0.76 1.08 0 0.8 1.08 0 0.84 1.08 0 0.88 1.08 0 0.92 1.08 0 0.96 1.08 0 1 1.08 0 1.04 1.08 0 1.08 1.08 0 1.12 1.08 0 1.16 1.08 0 1.2 1.08 0 0 1.12 0 
[...]
			<PointData Scalars="VitesseX">
				<DataArray Name="VitesseX" type="Float32" format="ascii">
 0 -0.0545307 -0.171004 -0.152561 -0.100408 0.0912074 0.202339 0.327343 0.44217 0.535746 0.627154 0.714074 0.798343 0.882514 0.967187 1.0525 1.13899 1.22744 1.31798 1.41094 1.50671 1.60718 1.71283 1.81983 2.00349 2.19708 2.15446 1.88793 1.25484 0.383769 0 0 0.182028 0.233224 0.20849 0.170577 0.274742 0.324416 0.410292 0.501814 0.578264 0.657916 0.736038 0.81336 0.891731 0.971526 1.05297 1.1365 1.22283 1.31211 1.40467 1.50063 1.60169 1.70771 1.8152 2.00215 2.19128 2.14553 1.87471 1.23676 0.369383 0 0 0.171898 0.344221 0.377488 0.373909 0.445302 0.45949 0.505088 0.562846 0.616736 0.683482 0.753598 0.826294 0.901838 0.979675 1.05995 1.14292 1.22887 1.31772 1.4098 1.50505 1.60541 1.70974 1.81652 2.01123 2.18609 2.13033 1.84317 1.18575 0.328407 0 0 0.129699 0.277727 0.339366 0.396001 0.477522 0.496708 0.551433 0.598129 0.649391 0.70996 0.773653 0.842251 0.915127 0.991319 1.07058 1.15261 1.2375 1.32525 1.41624 1.51038 1.61 1.71256 1.82059 2.02847 2.17955 2.10772 1.7919 1.10145 0.266854 0 0 0.0653153 0.185957 0.291357 0.383056 0.461807 0.494099 0.569577 0.619988 0.678827 0.737287 0.797047 0.862161 0.932241 1.00638 1.08395 1.16438 1.24762 1.3338 1.42334 1.51637 1.61565 1.71659 1.82919 2.05254 2.16895 2.07467 1.71644 0.981467 0.194675 0 0 0.0377841 0.136892 0.243679 0.346293 0.422244 0.485111 0.566076 0.627047 0.693939 0.756597 0.819132 0.884112 0.95244 1.02456 1.09986 1.17809 1.25922 1.34355 1.43146 1.52361 1.62285 1.72198 1.84442 2.07965 2.15148 2.02647 1.61049 0.824702 0.124575 0 0 0.0367762 0.124212 0.224869 0.327676 0.402907 0.482361 0.558477 0.627385 0.6991 0.767956 0.835358 0.902684 0.971571 1.04314 1.11685 1.19312 1.27206 1.35453 1.4408 1.53254 1.63152 1.72883 1.86973 2.10274 2.12473 1.95625 1.46602 0.636091 0.0666394 0 0 0.0458319 0.127778 0.224108 0.323157 0.403139 0.483129 0.555338 0.6281 0.702196 0.774813 0.846234 0.916096 0.986327 1.05772 1.13085 1.20622 1.2841 1.36568 1.45086 1.54319 1.64089 1.73807 1.90994 2.11162 2.08568 1.85436 1.27472 0.430861 0.0282069 0 0 0.0548102 0.133108 0.22557 0.319187 0.403941 0.482979 0.556563 0.631097 0.705022 0.778606 0.851965 0.924418 0.996045 1.06798 1.14141 1.21635 1.29413 1.37545 1.4608 1.55499 1.64945 1.75305 1.96482 2.09896 2.02515 1.71122 1.02935 0.242937 0.00896422 0 0 0.0611864 0.136773 0.224026 0.315372 0.402442 0.482344 0.5582 0.632661 0.706307 0.780251 0.854333 0.928081 1.00103 1.07431 1.14831 1.22361 1.30222 1.38359 1.47098 1.56629 1.65656 1.78215 2.01316 2.06415 1.9331 1.5118 0.733702 0.109171 0.00202806 0 0 0.0645221 0.138792 0.221762 0.309541 0.396099 0.478232 0.556335 0.631287 0.705438 0.780013 0.854555 0.928462 1.00257 1.07715 1.1519 1.22879 1.30832 1.39074 1.48229 1.57462 1.6659 1.83729 2.02994 2.00806 1.7921 1.23941 0.428863 0.0359055 0.000302264 0 0 0.0664122 0.139499 0.217952 0.301256 0.386352 0.469435 0.549098 0.625727 0.701253 0.776797 0.852078 0.927143 1.00224 1.07731 1.15366 1.23248 1.31267 1.39887 1.49319 1.57969 1.68925 1.91007 2.00479 1.91684 1.58294 0.888167 0.190644 0.00801138 2.65085e-05 0 0 0.0672733 0.139381 0.214896 0.293841 0.375252 0.456879 0.537063 0.615591 0.692794 0.769386 0.846202 0.923318 0.999603 1.07617 1.15483 1.23457 1.31732 1.40993 1.49944 1.58689 1.74744 1.94581 1.94383 1.76802 1.27999 0.503968 0.0603057 0.00112601 1.25981e-06 0 0 0.0674002 0.138651 0.211992 0.287677 0.365577 0.444569 0.523814 0.602913 0.681333 0.759497 0.837993 0.916547 0.995106 1.07479 1.15507 1.23653 1.32611 1.41918 1.50234 1.61573 1.83221 1.92026 1.84087 1.53074 0.871716 0.206007 0.0121368 8.68858e-05 3.80248e-08 0 0 0.0672412 0.137363 0.208858 0.282021 0.357384 0.434692 0.513204 0.592314 0.671738 0.751265 0.830746 0.910895 0.992124 1.07351 1.15528 1.24302 1.33751 1.42195 1.51458 1.69542 1.85834 1.84507 1.66145 1.17011 0.439144 0.0561728 0.00141887 3.14333e-06 1.29011e-09 0 0 0.0668145 0.135793 0.205748 0.27722 0.350901 0.427068 0.505144 0.584504 0.664661 0.745214 0.826356 0.908411 0.990695 1.0733 1.16045 1.25483 1.34134 1.42734 1.57219 1.77012 1.81074 1.70799 1.36055 0.693424 0.149165 0.00892479 8.06904e-05 5.88142e-08 6.1737e-11 0 0 0.0664767 0.134544 0.203446 0.27393 0.346715 0.422263 0.500135 0.579631 0.660337 0.742037 0.824557 0.907392 0.990862 1.07838 1.17199 1.25972 1.34483 1.4707 1.66919 1.75254 1.69989 1.45764 0.903514 0.276352 0.0303526 0.000729546 1.83215e-06 1.21305e-09 7.59511e-13 0 0 0.0664239 0.133965 0.202407 0.272579 0.345119 0.42044 0.498286 0.57803 0.6592 0.74142 0.824421 0.908808 0.997084 1.08959 1.17748 1.26396 1.3835 1.57151 1.67676 1.65865 1.4862 1.0379 0.40616 0.0676623 0.00318074 2.35765e-05 2.1343e-08 5.51742e-11 -1.22671e-11 0 0 0.0666438 0.134088 0.202561 0.272845 0.345493 0.420849 0.498768 0.578683 0.660147 0.743201 0.828543 0.917292 1.00815 1.09573 1.18513 1.30689 1.48367 1.59237 1.59487 1.46574 1.09838 0.506558 0.111854 0.00842306 0.000137282 2.64559e-07 2.88594e-10 2.13193e-11 4.80856e-14 0 0 0.0673518 0.135231 0.204313 0.275259 0.348466 0.424199 0.50247 0.583078 0.666048 0.751678 0.839767 0.928537 1.01618 1.11123 1.24112 1.40395 1.5031 1.51435 1.40921 1.09655 0.559094 0.148584 0.015546 0.000438127 1.79889e-06 2.36016e-09 1.55313e-11 -2.47473e-11 1.23753e-11 0 0 0.0686397 0.137789 0.20835 0.280816 0.355412 0.432358 0.511867 0.594018 0.678595 0.764829 0.851869 0.942082 1.04737 1.18682 1.3254 1.40957 1.41932 1.32371 1.04328 0.559154 0.166506 0.0216464 0.000881699 6.48003e-06 1.05846e-08 -2.69133e-12 2.47527e-11 -1.23369e-11 1.23913e-11 0 0 0.070589 0.141836 0.214771 0.289654 0.366425 0.445114 0.525828 0.608545 0.693319 0.781815 0.879948 0.998793 1.13196 1.24036 1.30952 1.30924 1.21128 0.945979 0.510971 0.16121 0.0237659 0.00122114 1.33919e-05 3.01575e-08 8.35983e-11 1.7839e-13 1.23451e-11 -1.23341e-11 1.23978e-11 0 0 0.0729577 0.146759 0.222509 0.300036 0.379031 0.459658 0.542798 0.630422 0.726316 0.835893 0.953168 1.06018 1.14651 1.19553 1.18105 1.07051 0.809398 0.424479 0.13533 0.0209114 0.00121364 1.69138e-05 5.16153e-08 1.80554e-10 3.441e-13 1.24118e-11 -1.23682e-11 -1.23922e-11 2.47402e-11 0 0 0.0756771 0.15287 0.232521 0.314449 0.399078 0.487951 0.583215 0.683753 0.785638 0.882246 0.96953 1.03799 1.06295 1.0285 0.898326 0.639045 0.314902 0.0968798 0.0145996 0.000867105 1.3348e-05 5.15121e-08 2.31949e-10 6.52154e-13 -3.82961e-14 2.27839e-14 -3.813e-15 -6.86487e-14 -2.10237e-11 0 0 0.0826102 0.16738 0.254329 0.343199 0.433678 0.525036 0.615799 0.704187 0.788752 0.859714 0.903039 0.904427 0.844851 0.693855 0.448764 0.202653 0.0567461 0.00778388 0.000428275 6.44034e-06 2.99645e-08 1.7997e-10 6.99353e-13 -6.57714e-14 4.05483e-14 -4.71127e-14 -2.10487e-11 3.33328e-11 -3.3294e-11 0 0 0.0885459 0.176891 0.264529 0.3518 0.438345 0.522792 0.601504 0.669083 0.718672 0.736834 0.713089 0.626693 0.466597 0.266413 0.106987 0.0252273 0.00293903 0.00013407 1.78241e-06 1.0462e-08 5.84389e-11 2.50965e-11 -2.47135e-11 2.4708e-11 -6.92955e-15 -3.12932e-14 -6.68265e-11 6.67941e-11 1.12988e-13 0 0 0.0870792 0.172124 0.25416 0.332568 0.405412 0.468733 0.51689 0.542672 0.536812 0.487734 0.387743 0.252361 0.124736 0.0410171 0.00755248 0.000683276 2.30739e-05 2.60483e-07 2.32272e-09 2.17628e-11 1.78833e-13 1.23333e-11 -2.47218e-11 2.47252e-11 -5.58144e-14 -3.3413e-11 7.89343e-14 -9.9454e-14 3.35241e-11 0 0 0.0753025 0.145828 0.210049 0.265905 0.30968 0.336073 0.339092 0.313089 0.256186 0.178227 0.0989256 0.0388514 0.00936004 0.00125306 7.69442e-05 1.79159e-06 2.07484e-08 3.49757e-10 -9.24114e-12 -1.27684e-14 1.24157e-11 -1.23836e-11 -2.94062e-14 -2.10819e-11 -1.07913e-14 6.57008e-14 -7.07456e-14 5.46714e-14 -6.22702e-14 0 0 0.0482757 0.0905369 0.124061 0.146001 0.153486 0.145161 0.121987 0.0880512 0.0509334 0.0211847 0.00574738 0.000942943 8.02605e-05 3.02604e-06 5.64963e-08 1.19613e-09 -1.21294e-11 2.13363e-11 3.26094e-14 1.23451e-11 -1.23469e-11 -1.23924e-11 2.46674e-11 -3.34221e-11 1.277e-14 5.40721e-14 -5.46713e-14 6.13152e-14 -6.21284e-14 0 0 0.0156826 0.0283993 0.035871 0.0372262 0.0324911 0.0232098 0.0128158 0.00512594 0.00141014 0.000245866 2.38403e-05 1.18372e-06 3.55323e-08 1.21843e-09 3.56378e-11 6.0611e-13 1.24312e-11 -2.47651e-11 1.23947e-11 1.24094e-11 -1.24019e-11 -5.29979e-14 -2.11123e-11 3.34888e-11 -2.98284e-14 -3.33858e-11 -4.70537e-14 6.04833e-14 3.34245e-11 0 0 0 0 0 0 0 0 0 0 0 0 0 0 0 0 0 0 0 0 0 0 0 0 0 0 0 0 0 0 0 0
				</DataArray>
				<DataArray Name="VitesseY" type="Float32" format="ascii">
 0 0 0 0 0 0 0 0 0 0 0 0 0 0 0 0 0 0 0 0 0 0 0 0 0 0 0 0 0 0 0 -0.054464 0.182022 0.171875 0.129678 0.0653141 0.0377918 0.0367826 0.0458414 0.0548181 0.061192 0.0645269 0.0664168 0.067278 0.0674047 0.0672453 0.0668177 0.0664784 0.0664247 0.0666436 0.0673508 0.0686386 0.0705883 0.0729575 0.0756772 0.0826104 0.0885463 0.0870797 0.0753033 0.0482757 0.0157937 0 -0.171027 0.23315 0.344183 0.277699 0.185944 0.136903 0.124231 0.127798 0.133121 0.136778 0.138794 0.139503 0.139386 0.138657 0.137369 0.135797 0.134546 0.133965 0.134088 0.13523 0.137788 0.141835 0.146759 0.15287 0.16738 0.176892 0.172125 0.145829 0.0905417 0.0284056 0 -0.152586 0.208425 0.377453 0.339345 0.29135 0.243704 0.224906 0.22414 0.22559 0.224033 0.221761 0.217951 0.214899 0.211996 0.208862 0.20575 0.203446 0.202408 0.20256 0.204313 0.208349 0.214771 0.222509 0.232522 0.254329 0.264531 0.254162 0.210051 0.124063 0.0358719 0 -0.100446 0.170512 0.37386 0.395974 0.383049 0.346319 0.327715 0.323191 0.319212 0.315385 0.309543 0.301254 0.293841 0.287678 0.282021 0.277219 0.273929 0.272579 0.272845 0.275259 0.280817 0.289655 0.300037 0.31445 0.3432 0.351802 0.332571 0.265908 0.146004 0.0372271 0 0.0911377 0.274685 0.445277 0.477519 0.461811 0.422261 0.402932 0.403164 0.403964 0.402459 0.396108 0.386354 0.375251 0.365576 0.357382 0.350899 0.346713 0.345118 0.345493 0.348467 0.355413 0.366426 0.379032 0.399078 0.433679 0.438348 0.405416 0.309684 0.153489 0.0324919 0 0.202262 0.324364 0.459462 0.49668 0.494086 0.485114 0.482378 0.483149 0.482998 0.482361 0.478245 0.469442 0.45688 0.444567 0.43469 0.427065 0.42226 0.420438 0.420849 0.424199 0.43236 0.445116 0.459659 0.487952 0.525038 0.522795 0.468737 0.336077 0.145163 0.0232102 0 0.327278 0.410261 0.505093 0.551426 0.569568 0.566074 0.558484 0.555351 0.556579 0.558216 0.556349 0.549107 0.537065 0.523813 0.513201 0.505141 0.500132 0.498284 0.498767 0.50247 0.511868 0.525829 0.542798 0.583216 0.615801 0.601507 0.516894 0.339095 0.121989 0.0128159 0 0.442108 0.501786 0.562854 0.598128 0.619974 0.627038 0.627386 0.62811 0.631112 0.632675 0.6313 0.625735 0.615593 0.602912 0.592312 0.584502 0.579628 0.578028 0.578681 0.583077 0.594017 0.608545 0.630422 0.683755 0.704189 0.669086 0.542674 0.313091 0.0880517 0.00512598 0 0.535693 0.578243 0.616743 0.649397 0.678817 0.693927 0.699099 0.702205 0.705035 0.706319 0.705448 0.701259 0.692796 0.681332 0.671737 0.664659 0.660335 0.659199 0.660145 0.666046 0.678594 0.693319 0.726317 0.78564 0.788754 0.718674 0.536813 0.256186 0.0509333 0.00141014 0 0.627107 0.6579 0.683485 0.709971 0.737285 0.756589 0.767957 0.77482 0.778616 0.780261 0.78002 0.776801 0.769386 0.759495 0.751264 0.745213 0.742036 0.741418 0.743199 0.751676 0.764827 0.781814 0.835894 0.882248 0.859715 0.736835 0.487733 0.178226 0.0211845 0.000245863 0 0.714035 0.736024 0.753596 0.77366 0.797051 0.81913 0.835361 0.846241 0.851973 0.85434 0.85456 0.85208 0.846202 0.837991 0.830744 0.826355 0.824556 0.82442 0.828541 0.839765 0.851867 0.879947 0.953169 0.969531 0.903038 0.713088 0.387741 0.0989246 0.00574728 2.38396e-05 0 0.798312 0.813348 0.82629 0.842255 0.862166 0.884113 0.902689 0.916104 0.924425 0.928086 0.928465 0.927145 0.923318 0.916545 0.910894 0.90841 0.907391 0.908806 0.91729 0.928535 0.94208 0.998794 1.06018 1.03799 0.904425 0.62669 0.252359 0.0388507 0.000942915 1.18367e-06 0 0.882491 0.891722 0.901833 0.915127 0.932244 0.952443 0.971576 0.986336 0.996052 1.00103 1.00258 1.00224 0.999603 0.995105 0.992123 0.990694 0.990861 0.997083 1.00814 1.01618 1.04737 1.13196 1.14651 1.06295 0.844849 0.466594 0.124734 0.00935979 8.0257e-05 3.55305e-08 0 0.967171 0.97152 0.979672 0.991318 1.00638 1.02456 1.04314 1.05773 1.06799 1.07431 1.07715 1.07731 1.07617 1.07479 1.0735 1.07329 1.07838 1.08959 1.09573 1.11123 1.18682 1.24035 1.19553 1.0285 0.693851 0.26641 0.0410162 0.00125302 3.02587e-06 1.21837e-09 0 1.05249 1.05296 1.05994 1.07057 1.08395 1.09986 1.11686 1.13086 1.14141 1.14831 1.1519 1.15366 1.15483 1.15507 1.15528 1.16045 1.17199 1.17748 1.18512 1.24112 1.3254 1.30952 1.18105 0.898321 0.44876 0.106985 0.00755226 7.69404e-05 5.64929e-08 3.56356e-11 0 1.13899 1.1365 1.14292 1.15261 1.16438 1.17809 1.19313 1.20623 1.21636 1.22361 1.22879 1.23248 1.23457 1.23654 1.24302 1.25483 1.25972 1.26396 1.30689 1.40395 1.40957 1.30924 1.0705 0.63904 0.20265 0.0252267 0.000683248 1.79149e-06 1.19607e-09 6.06039e-13 0 1.22744 1.22283 1.22887 1.23749 1.24762 1.25921 1.27206 1.28411 1.29413 1.30223 1.30832 1.31267 1.31732 1.32611 1.33751 1.34134 1.34483 1.3835 1.48367 1.5031 1.41931 1.21127 0.809393 0.314899 0.0567452 0.00293894 2.30727e-05 2.07471e-08 -1.21307e-11 1.24312e-11 0 1.31798 1.31211 1.31772 1.32525 1.33379 1.34355 1.35454 1.36569 1.37546 1.38359 1.39074 1.39887 1.40993 1.41918 1.42195 1.42734 1.4707 1.57151 1.59237 1.51435 1.32371 0.945975 0.424475 0.0968786 0.00778373 0.000134065 2.60469e-07 3.4974e-10 2.13363e-11 -2.47651e-11 0 1.41095 1.40467 1.4098 1.41623 1.42334 1.43146 1.4408 1.45086 1.46081 1.47099 1.48229 1.49319 1.49944 1.50234 1.51459 1.57219 1.66919 1.67676 1.59487 1.40921 1.04328 0.510968 0.135328 0.0145994 0.000428264 1.78233e-06 2.32261e-09 -9.24125e-12 3.26092e-14 1.23947e-11 0 1.50672 1.50063 1.50505 1.51038 1.51637 1.52361 1.53254 1.54319 1.55499 1.5663 1.57463 1.57969 1.58689 1.61573 1.69543 1.77012 1.75254 1.65865 1.46574 1.09655 0.559153 0.16121 0.0209112 0.000867089 6.44014e-06 1.04616e-08 2.1762e-11 -1.27684e-14 1.23451e-11 1.24094e-11 0 1.60718 1.60169 1.6054 1.61 1.61564 1.62285 1.63152 1.64089 1.64946 1.65656 1.66591 1.68926 1.74745 1.83221 1.85834 1.81074 1.69989 1.4862 1.09838 0.559094 0.166506 0.0237659 0.00121364 1.33478e-05 2.99636e-08 5.84365e-11 1.78822e-13 1.24157e-11 -1.23469e-11 -1.24019e-11 0 1.71283 1.70771 1.70974 1.71256 1.71659 1.72198 1.72883 1.73808 1.75305 1.78215 1.83729 1.91007 1.94581 1.92026 1.84507 1.70799 1.45764 1.0379 0.50656 0.148586 0.0216465 0.00122114 1.69138e-05 5.15119e-08 1.79968e-10 2.50964e-11 1.23333e-11 -1.23836e-11 -1.23924e-11 -5.29979e-14 0 1.81983 1.8152 1.81652 1.82059 1.82919 1.84443 1.86973 1.90995 1.96482 2.01317 2.02995 2.00479 1.94383 1.84088 1.66146 1.36056 0.903519 0.406163 0.111855 0.0155462 0.000881715 1.33921e-05 5.16155e-08 2.31949e-10 6.99332e-13 -2.47135e-11 -2.47218e-11 -2.94062e-14 2.46674e-11 -2.11123e-11 0 2.0035 2.00216 2.01123 2.02848 2.05254 2.07965 2.10274 2.11163 2.09896 2.06415 2.00806 1.91685 1.76803 1.53074 1.17012 0.69343 0.276354 0.0676634 0.00842323 0.000438138 6.48022e-06 3.01583e-08 1.80557e-10 6.52175e-13 -6.57714e-14 2.4708e-11 2.47252e-11 -2.10819e-11 -3.34221e-11 3.34888e-11 0 2.19708 2.19128 2.18609 2.17955 2.16895 2.15148 2.12473 2.08568 2.02516 1.9331 1.7921 1.58294 1.27999 0.871723 0.43915 0.149168 0.0303533 0.00318083 0.000137287 1.79896e-06 1.0585e-08 8.36008e-11 3.44142e-13 -3.82961e-14 4.05483e-14 -6.92955e-15 -5.58144e-14 -1.07913e-14 1.277e-14 -2.98284e-14 0 2.15446 2.14553 2.13033 2.10772 2.07467 2.02647 1.95625 1.85436 1.71122 1.51181 1.23942 0.888173 0.503974 0.206009 0.0561741 0.00892506 0.000729576 2.35777e-05 2.64574e-07 2.36027e-09 -2.6905e-12 1.78399e-13 1.24118e-11 2.27839e-14 -4.71127e-14 -3.12932e-14 -3.3413e-11 6.57008e-14 5.40721e-14 -3.33858e-11 0 1.88793 1.87471 1.84317 1.79189 1.71643 1.61049 1.46602 1.27472 1.02936 0.733706 0.428867 0.190647 0.060307 0.0121371 0.00141892 8.06944e-05 1.83226e-06 2.13444e-08 2.88612e-10 1.55314e-11 2.47527e-11 1.23451e-11 -1.23682e-11 -3.813e-15 -2.10487e-11 -6.68265e-11 7.89343e-14 -7.07456e-14 -5.46713e-14 -4.70537e-14 0 1.25484 1.23676 1.18575 1.10144 0.981461 0.824698 0.636089 0.43086 0.242937 0.109172 0.035906 0.00801156 0.00112605 8.68897e-05 3.14351e-06 5.88177e-08 1.21312e-09 5.51753e-11 2.13193e-11 -2.47473e-11 -1.23369e-11 -1.23341e-11 -1.23922e-11 -6.86487e-14 3.33328e-11 6.67941e-11 -9.9454e-14 5.46714e-14 6.13152e-14 6.04833e-14 0 0.38392 0.36948 0.328396 0.266849 0.194671 0.124573 0.0666385 0.0282066 0.00896419 0.00202807 0.000302269 2.65093e-05 1.25986e-06 3.80267e-08 1.29017e-09 6.17394e-11 7.59583e-13 -1.22671e-11 4.80856e-14 1.23753e-11 1.23913e-11 1.23978e-11 2.47402e-11 -2.10237e-11 -3.3294e-11 1.12988e-13 3.35241e-11 -6.22702e-14 -6.21284e-14 3.34245e-11 0 0.0130298 1.22278e-07 0 0 0 0 0 0 0 0 0 0 0 0 0 0 0 0 0 0 0 0 0 0 0 0 0 0 0 0 0
				</DataArray>
			</PointData>
			<CellData Scalars="Density">
				<DataArray Name="Density" type="Float32" format="ascii">