<?xml version="1.0"?>
<VTKFile type="PolyData">
	<PolyData>
		<Piece NumberOfPoints="961" NumberOfPolys="900">
			<Points>
				<DataArray type="Float32" NumberOfComponents="3" format="ascii">
 0 0 0 0.04 0 0 0.08 0 0 0.12 0 0 0.16 0 0 0.2 0 0 0.24 0 0 0.28 0 0 0.32 0 0 0.36 0 0 0.4 0 0 0.44 0 0 0.48 0 0 0.52 0 0 0.56 0 0 0.6 0 0 0.64 0 0 0.68 0 0 0.72 0 0 0.76 0 0 0.8 0 0 0.84 0 0 0.88 0 0 0.92 0 0 0.96 0 0 1 0 0 1.04 0 0 1.08 0 0 1.12 0 0 1.16 0 0 1.2 0 0 0 0.04 0 0.04 0.04 0 0.08 0.04 0 0.12 0.04 0 0.16 0.04 0 0.2 0.04 0 0.24 0.04 0 0.28 0.04 0 0.32 0.04 0 0.36 0.04 0 0.4 0.04 0 0.44 0.04 0 0.48 0.04 0 0.52 0.04 0 0.56 0.04 0 0.6 0.04 0 0.64 0.04 0 0.68 0.04 0 0.72 0.04 0 0.76 0.04 0 0.8 0.04 0 0.84 0.04 0 0.88 0.04 0 0.92 0.04 0 0.96 0.04 0 1 0.04 0 1.04 0.04 0 1.08 0.04 0 1.12 0.04 0 1.16 0.04 0 1.2 0.04 0 0 0.08 0 0.04 0.08 0 0.08 0.08 0 0.12 0.08 0 0.16 0.08 0 0.2 0.08 0 0.24 0.08 0 0.28 0.08 0 0.32 0.08 0 0.36 0.08 0 0.4 0.08 0 0.44 0.08 0 0.48 0.08 0 0.52 0.08 0 0.56 0.08 0 0.6 0.08 0 0.64 0.08 0 0.68 0.08 0 0.72 0.08 0 0.76 0.08 0 0.8 0.08 0 0.84 0.08 0 0.88 0.08 0 0.92 0.08 0 0.96 0.08 0 1 0.08 0 1.04 0.08 0 1.08 0.08 0 1.12 0.08 0 1.16 0.08 0 1.2 0.08 0 0 0.12 0 0.04 0.12 0 0.08 0.12 0 0.12 0.12 0 0.16 0.12 0 0.2 0.12 0 0.24 0.12 0 0.28 0.12 0 0.32 0.12 0 0.36 0.12 0 0.4 0.12 0 0.44 0.12 0 0.48 0.12 0 0.52 0.12 0 0.56 0.12 0 0.6 0.12 0 0.64 0.12 0 0.68 0.12 0 0.72 0.12 0 0.76 0.12 0 0.8 0.12 0 0.84 0.12 0 0.88 0.12 0 0.92 0.12 0 0.96 0.12 0 1 0.12 0 1.04 0.12 0 1.08 0.12 0 1.12 0.12 0 1.16 0.12 0 1.2 0.12 0 0 0.16 0 0.04 0.16 0 0.08 0.16 0 0.12 0.16 0 0.16 0.16 0 0.2 0.16 0 0.24 0.16 0 0.28 0.16 0 0.32 0.16 0 0.36 0.16 0 0.4 0.16 0 0.44 0.16 0 0.48 0.16 0 0.52 0.16 0 0.56 0.16 0 0.6 0.16 0 0.64 0.16 0 0.68 0.16 0 0.72 0.16 0 0.76 0.16 0 0.8 0.16 0 0.84 0.16 0 0.88 0.16 0 0.92 0.16 0 0.96 0.16 0 1 0.16 0 1.04 0.16 0 1.08 0.16 0 1.12 0.16 0 1.16 0.16 0 1.2 0.16 0 0 0.2 0 0.04 0.2 0 0.08 0.2 0 0.12 0.2 0 0.16 0.2 0 0.2 0.2 0 0.24 0.2 0 0.28 0.2 0 0.32 0.2 0 0.36 0.2 0 0.4 0.2 0 0.44 0.2 0 0.48 0.2 0 0.52 0.2 0 0.56 0.2 0 0.6 0.2 0 0.64 0.2 0 0.68 0.2 0 0.72 0.2 0 0.76 0.2 0 0.8 0.2 0 0.84 0.2 0 0.88 0.2 0 0.92 0.2 0 0.96 0.2 0 1 0.2 0 1.04 0.2 0 1.08 0.2 0 1.12 0.2 0 1.16 0.2 0 1.2 0.2 0 0 0.24 0 0.04 0.24 0 0.08 0.24 0 0.12 0.24 0 0.16 0.24 0 0.2 0.24 0 0.24 0.24 0 0.28 0.24 0 0.32 0.24 0 0.36 0.24 0 0.4 0.24 0 0.44 0.24 0 0.48 0.24 0 0.52 0.24 0 0.56 0.24 0 0.6 0.24 0 0.64 0.24 0 0.68 0.24 0 0.72 0.24 0 0.76 0.24 0 0.8 0.24 0 0.84 0.24 0 0.88 0.24 0 0.92 0.24 0 0.96 0.24 0 1 0.24 0 1.04 0.24 0 1.08 0.24 0 1.12 0.24 0 1.16 0.24 0 1.2 0.24 0 0 0.28 0 0.04 0.28 0 0.08 0.28 0 0.12 0.28 0 0.16 0.28 0 0.2 0.28 0 0.24 0.28 0 0.28 0.28 0 0.32 0.28 0 0.36 0.28 0 0.4 0.28 0 0.44 0.28 0 0.48 0.28 0 0.52 0.28 0 0.56 0.28 0 0.6 0.28 0 0.64 0.28 0 0.68 0.28 0 0.72 0.28 0 0.76 0.28 0 0.8 0.28 0 0.84 0.28 0 0.88 0.28 0 0.92 0.28 0 0.96 0.28 0 1 0.28 0 1.04 0.28 0 1.08 0.28 0 1.12 0.28 0 1.16 0.28 0 1.2 0.28 0 0 0.32 0 0.04 0.32 0 0.08 0.32 0 0.12 0.32 0 0.16 0.32 0 0.2 0.32 0 0.24 0.32 0 0.28 0.32 0 0.32 0.32 0 0.36 0.32 0 0.4 0.32 0 0.44 0.32 0 0.48 0.32 0 0.52 0.32 0 0.56 0.32 0 0.6 0.32 0 0.64 0.32 0 0.68 0.32 0 0.72 0.32 0 0.76 0.32 0 0.8 0.32 0 0.84 0.32 0 0.88 0.32 0 0.92 0.32 0 0.96 0.32 0 1 0.32 0 1.04 0.32 0 1.08 0.32 0 1.12 0.32 0 1.16 0.32 0 1.2 0.32 0 0 0.36 0 0.04 0.36 0 0.08 0.36 0 0.12 0.36 0 0.16 0.36 0 0.2 0.36 0 0.24 0.36 0 0.28 0.36 0 0.32 0.36 0 0.36 0.36 0 0.4 0.36 0 0.44 0.36 0 0.48 0.36 0 0.52 0.36 0 0.56 0.36 0 0.6 0.36 0 0.64 0.36 0 0.68 0.36 0 0.72 0.36 0 0.76 0.36 0 0.8 0.36 0 0.84 0.36 0 0.88 0.36 0 0.92 0.36 0 0.96 0.36 0 1 0.36 0 1.04 0.36 0 1.08 0.36 0 1.12 0.36 0 1.16 0.36 0 1.2 0.36 0 0 0.4 0 0.04 0.4 0 0.08 0.4 0 0.12 0.4 0 0.16 0.4 0 0.2 0.4 0 0.24 0.4 0 0.28 0.4 0 0.32 0.4 0 0.36 0.4 0 0.4 0.4 0 0.44 0.4 0 0.48 0.4 0 0.52 0.4 0 0.56 0.4 0 0.6 0.4 0 0.64 0.4 0 0.68 0.4 0 0.72 0.4 0 0.76 0.4 0 0.8 0.4 0 0.84 0.4 0 0.88 0.4 0 0.92 0.4 0 0.96 0.4 0 1 0.4 0 1.04 0.4 0 1.08 0.4 0 1.12 0.4 0 1.16 0.4 0 1.2 0.4 0 0 0.44 0 0.04 0.44 0 0.08 0.44 0 0.12 0.44 0 0.16 0.44 0 0.2 0.44 0 0.24 0.44 0 0.28 0.44 0 0.32 0.44 0 0.36 0.44 0 0.4 0.44 0 0.44 0.44 0 0.48 0.44 0 0.52 0.44 0 0.56 0.44 0 0.6 0.44 0 0.64 0.44 0 0.68 0.44 0 0.72 0.44 0 0.76 0.44 0 0.8 0.44 0 0.84 0.44 0 0.88 0.44 0 0.92 0.44 0 0.96 0.44 0 1 0.44 0 1.04 0.44 0 1.08 0.44 0 1.12 0.44 0 1.16 0.44 0 1.2 0.44 0 0 0.48 0 0.04 0.48 0 0.08 0.48 0 0.12 0.48 0 0.16 0.48 0 0.2 0.48 0 0.24 0.48 0 0.28 0.48 0 0.32 0.48 0 0.36 0.48 0 0.4 0.48 0 0.44 0.48 0 0.48 0.48 0 0.52 0.48 0 0.56 0.48 0 0.6 0.48 0 0.64 0.48 0 0.68 0.48 0 0.72 0.48 0 0.76 0.48 0 0.8 0.48 0 0.84 0.48 0 0.88 0.48 0 0.92 0.48 0 0.96 0.48 0 1 0.48 0 1.04 0.48 0 1.08 0.48 0 1.12 0.48 0 1.16 0.48 0 1.2 0.48 0 0 0.52 0 0.04 0.52 0 0.08 0.52 0 0.12 0.52 0 0.16 0.52 0 0.2 0.52 0 0.24 0.52 0 0.28 0.52 0 0.32 0.52 0 0.36 0.52 0 0.4 0.52 0 0.44 0.52 0 0.48 0.52 0 0.52 0.52 0 0.56 0.52 0 0.6 0.52 0 0.64 0.52 0 0.68 0.52 0 0.72 0.52 0 0.76 0.52 0 0.8 0.52 0 0.84 0.52 0 0.88 0.52 0 0.92 0.52 0 0.96 0.52 0 1 0.52 0 1.04 0.52 0 1.08 0.52 0 1.12 0.52 0 1.16 0.52 0 1.2 0.52 0 0 0.56 0 0.04 0.56 0 0.08 0.56 0 0.12 0.56 0 0.16 0.56 0 0.2 0.56 0 0.24 0.56 0 0.28 0.56 0 0.32 0.56 0 0.36 0.56 0 0.4 0.56 0 0.44 0.56 0 0.48 0.56 0 0.52 0.56 0 0.56 0.56 0 0.6 0.56 0 0.64 0.56 0 0.68 0.56 0 0.72 0.56 0 0.76 0.56 0 0.8 0.56 0 0.84 0.56 0 0.88 0.56 0 0.92 0.56 0 0.96 0.56 0 1 0.56 0 1.04 0.56 0 1.08 0.56 0 1.12 0.56 0 1.16 0.56 0 1.2 0.56 0 0 0.6 0 0.04 0.6 0 0.08 0.6 0 0.12 0.6 0 0.16 0.6 0 0.2 0.6 0 0.24 0.6 0 0.28 0.6 0 0.32 0.6 0 0.36 0.6 0 0.4 0.6 0 0.44 0.6 0 0.48 0.6 0 0.52 0.6 0 0.56 0.6 0 0.6 0.6 0 0.64 0.6 0 0.68 0.6 0 0.72 0.6 0 0.76 0.6 0 0.8 0.6 0 0.84 0.6 0 0.88 0.6 0 0.92 0.6 0 0.96 0.6 0 1 0.6 0 1.04 0.6 0 1.08 0.6 0 1.12 0.6 0 1.16 0.6 0 1.2 0.6 0 0 0.64 0 0.04 0.64 0 0.08 0.64 0 0.12 0.64 0 0.16 0.64 0 0.2 0.64 0 0.24 0.64 0 0.28 0.64 0 0.32 0.64 0 0.36 0.64 0 0.4 0.64 0 0.44 0.64 0 0.48 0.64 0 0.52 0.64 0 0.56 0.64 0 0.6 0.64 0 0.64 0.64 0 0.68 0.64 0 0.72 0.64 0 0.76 0.64 0 0.8 0.64 0 0.84 0.64 0 0.88 0.64 0 0.92 0.64 0 0.96 0.64 0 1 0.64 0 1.04 0.64 0 1.08 0.64 0 1.12 0.64 0 1.16 0.64 0 1.2 0.64 0 0 0.68 0 0.04 0.68 0 0.08 0.68 0 0.12 0.68 0 0.16 0.68 0 0.2 0.68 0 0.24 0.68 0 0.28 0.68 0 0.32 0.68 0 0.36 0.68 0 0.4 0.68 0 0.44 0.68 0 0.48 0.68 0 0.52 0.68 0 0.56 0.68 0 0.6 0.68 0 0.64 0.68 0 0.68 0.68 0 0.72 0.68 0 0.76 0.68 0 0.8 0.68 0 0.84 0.68 0 0.88 0.68 0 0.92 0.68 0 0.96 0.68 0 1 0.68 0 1.04 0.68 0 1.08 0.68 0 1.12 0.68 0 1.16 0.68 0 1.2 0.68 0 0 0.72 0 0.04 0.72 0 0.08 0.72 0 0.12 0.72 0 0.16 0.72 0 0.2 0.72 0 0.24 0.72 0 0.28 0.72 0 0.32 0.72 0 0.36 0.72 0 0.4 0.72 0 0.44 0.72 0 0.48 0.72 0 0.52 0.72 0 0.56 0.72 0 0.6 0.72 0 0.64 0.72 0 0.68 0.72 0 0.72 0.72 0 0.76 0.72 0 0.8 0.72 0 0.84 0.72 0 0.88 0.72 0 0.92 0.72 0 0.96 0.72 0 1 0.72 0 1.04 0.72 0 1.08 0.72 0 1.12 0.72 0 1.16 0.72 0 1.2 0.72 0 0 0.76 0 0.04 0.76 0 0.08 0.76 0 0.12 0.76 0 0.16 0.76 0 0.2 0.76 0 0.24 0.76 0 0.28 0.76 0 0.32 0.76 0 0.36 0.76 0 0.4 0.76 0 0.44 0.76 0 0.48 0.76 0 0.52 0.76 0 0.56 0.76 0 0.6 0.76 0 0.64 0.76 0 0.68 0.76 0 0.72 0.76 0 0.76 0.76 0 0.8 0.76 0 0.84 0.76 0 0.88 0.76 0 0.92 0.76 0 0.96 0.76 0 1 0.76 0 1.04 0.76 0 1.08 0.76 0 1.12 0.76 0 1.16 0.76 0 1.2 0.76 0 0 0.8 0 0.04 0.8 0 0.08 0.8 0 0.12 0.8 0 0.16 0.8 0 0.2 0.8 0 0.24 0.8 0 0.28 0.8 0 0.32 0.8 0 0.36 0.8 0 0.4 0.8 0 0.44 0.8 0 0.48 0.8 0 0.52 0.8 0 0.56 0.8 0 0.6 0.8 0 0.64 0.8 0 0.68 0.8 0 0.72 0.8 0 0.76 0.8 0 0.8 0.8 0 0.84 0.8 0 0.88 0.8 0 0.92 0.8 0 0.96 0.8 0 1 0.8 0 1.04 0.8 0 1.08 0.8 0 1.12 0.8 0 1.16 0.8 0 1.2 0.8 0 0 0.84 0 0.04 0.84 0 0.08 0.84 0 0.12 0.84 0 0.16 0.84 0 0.2 0.84 0 0.24 0.84 0 0.28 0.84 0 0.32 0.84 0 0.36 0.84 0 0.4 0.84 0 0.44 0.84 0 0.48 0.84 0 0.52 0.84 0 0.56 0.84 0 0.6 0.84 0 0.64 0.84 0 0.68 0.84 0 0.72 0.84 0 0.76 0.84 0 0.8 0.84 0 0.84 0.84 0 0.88 0.84 0 0.92 0.84 0 0.96 0.84 0 1 0.84 0 1.04 0.84 0 1.08 0.84 0 1.12 0.84 0 1.16 0.84 0 1.2 0.84 0 0 0.88 0 0.04 0.88 0 0.08 0.88 0 0.12 0.88 0 0.16 0.88 0 0.2 0.88 0 0.24 0.88 0 0.28 0.88 0 0.32 0.88 0 0.36 0.88 0 0.4 0.88 0 0.44 0.88 0 0.48 0.88 0 0.52 0.88 0 0.56 0.88 0 0.6 0.88 0 0.64 0.88 0 0.68 0.88 0 0.72 0.88 0 0.76 0.88 0 0.8 0.88 0 0.84 0.88 0 0.88 0.88 0 0.92 0.88 0 0.96 0.88 0 1 0.88 0 1.04 0.88 0 1.08 0.88 0 1.12 0.88 0 1.16 0.88 0 1.2 0.88 0 0 0.92 0 0.04 0.92 0 0.08 0.92 0 0.12 0.92 0 0.16 0.92 0 0.2 0.92 0 0.24 0.92 0 0.28 0.92 0 0.32 0.92 0 0.36 0.92 0 0.4 0.92 0 0.44 0.92 0 0.48 0.92 0 0.52 0.92 0 0.56 0.92 0 0.6 0.92 0 0.64 0.92 0 0.68 0.92 0 0.72 0.92 0 0.76 0.92 0 0.8 0.92 0 0.84 0.92 0 0.88 0.92 0 0.92 0.92 0 0.96 0.92 0 1 0.92 0 1.04 0.92 0 1.08 0.92 0 1.12 0.92 0 1.16 0.92 0 1.2 0.92 0 0 0.96 0 0.04 0.96 0 0.08 0.96 0 0.12 0.96 0 0.16 0.96 0 0.2 0.96 0 0.24 0.96 0 0.28 0.96 0 0.32 0.96 0 0.36 0.96 0 0.4 0.96 0 0.44 0.96 0 0.48 0.96 0 0.52 0.96 0 0.56 0.96 0 0.6 0.96 0 0.64 0.96 0 0.68 0.96 0 0.72 0.96 0 0.76 0.96 0 0.8 0.96 0 0.84 0.96 0 0.88 0.96 0 0.92 0.96 0 0.96 0.96 0 1 0.96 0 1.04 0.96 0 1.08 0.96 0 1.12 0.96 0 1.16 0.96 0 1.2 0.96 0 0 1 0 0.04 1 0 0.08 1 0 0.12 1 0 0.16 1 0 0.2 1 0 0.24 1 0 0.28 1 0 0.32 1 0 0.36 1 0 0.4 1 0 0.44 1 0 0.48 1 0 0.52 1 0 0.56 1 0 0.6 1 0 0.64 1 0 0.68 1 0 0.72 1 0 0.76 1 0 0.8 1 0 0.84 1 0 0.88 1 0 0.92 1 0 0.96 1 0 1 1 0 1.04 1 0 1.08 1 0 1.12 1 0 1.16 1 0 1.2 1 0 0 1.04 0 0.04 1.04 0 0.08 1.04 0 0.12 1.04 0 0.16 1.04 0 0.2 1.04 0 0.24 1.04 0 0.28 1.04 0 0.32 1.04 0 0.36 1.04 0 0.4 1.04 0 0.44 1.04 0 0.48 1.04 0 0.52 1.04 0 0.56 1.04 0 0.6 1.04 0 0.64 1.04 0 0.68 1.04 0 0.72 1.04 0 0.76 1.04 0 0.8 1.04 0 0.84 1.04 0 0.88 1.04 0 0.92 1.04 0 0.96 1.04 0 1 1.04 0 1.04 1.04 0 1.08 1.04 0 1.12 1.04 0 1.16 1.04 0 1.2 1.04 0 0 1.08 0 0.04 1.08 0 0.08 1.08 0 0.12 1.08 0 0.16 1.08 0 0.2 1.08 0 0.24 1.08 0 0.28 1.08 0 0.32 1.08 0 0.36 1.08 0 0.4 1.08 0 0.44 1.08 0 0.48 1.08 0 0.52 1.08 0 0.56 1.08 0 0.6 1.08 0 0.64 1.08 0 0.68 1.08 0 0.72 1.08 0 0.76 1.08 0 0.8 1.08 0 0.84 1.08 0 0.88 1.08 0 0.92 1.08 0 0.96 1.08 0 1 1.08 0 1.04 1.08 0 1.08 1.08 0 1.12 1.08 0 1.16 1.08 0 1.2 1.08 0 0 1.12 0 
[...]
			<PointData Scalars="VitesseX">
				<DataArray Name="VitesseX" type="Float32" format="ascii">
 0 -0.0697865 -0.142279 -0.155851 -0.121521 -0.0364839 0.0704333 0.167708 0.253428 0.328925 0.392899 0.451486 0.505513 0.556765 0.60648 0.655757 0.705163 0.754951 0.805508 0.857145 0.909962 0.963971 1.01932 1.07702 1.09874 0.95734 0.592439 0.0698343 -0.310682 -0.359516 0 0 0.121354 0.145986 0.109106 0.0944434 0.126487 0.188008 0.248355 0.309979 0.371147 0.425654 0.476637 0.524734 0.571095 0.616928 0.662759 0.70906 0.75633 0.804889 0.854944 0.906582 0.959852 1.01488 1.07252 1.09698 0.95983 0.600702 0.0807785 -0.303756 -0.357171 0 0 0.119839 0.247163 0.274736 0.283679 0.28847 0.312796 0.342088 0.374185 0.413209 0.451837 0.493144 0.535376 0.578751 0.622978 0.667832 0.713522 0.760421 0.808886 0.859063 0.910874 0.964261 1.01926 1.07661 1.10698 0.979653 0.633846 0.117669 -0.280214 -0.348072 0 0 0.0873802 0.221959 0.254811 0.283213 0.318271 0.342268 0.37026 0.400346 0.432461 0.466749 0.504573 0.544424 0.586049 0.629034 0.673242 0.71885 0.765998 0.814775 0.86513 0.916942 0.97016 1.02482 1.08153 1.11991 1.00795 0.683091 0.174063 -0.242392 -0.333115 0 0 0.0413388 0.147051 0.20372 0.259008 0.315454 0.33673 0.369062 0.40757 0.443771 0.48016 0.517379 0.555226 0.594764 0.636282 0.679836 0.725347 0.772665 0.821576 0.871859 0.923404 0.976176 1.03025 1.08609 1.13271 1.04124 0.744302 0.247464 -0.19043 -0.311205 0 0 0.0144441 0.0814732 0.148712 0.218747 0.285137 0.316549 0.358863 0.402505 0.442443 0.484274 0.525032 0.564653 0.604461 0.645294 0.688167 0.733341 0.780475 0.829104 0.878965 0.929964 0.982074 1.03543 1.09042 1.14345 1.07772 0.814626 0.33573 -0.122712 -0.280453 0 0 0.00961324 0.061415 0.12676 0.187746 0.249676 0.292596 0.343052 0.391068 0.436248 0.481963 0.526065 0.569108 0.611799 0.6545 0.697924 0.742934 0.789594 0.837561 0.886652 0.936814 0.988088 1.04066 1.09488 1.15102 1.11589 0.89076 0.436319 -0.0379303 -0.238593 0 0 0.0147429 0.0602721 0.124667 0.18145 0.240801 0.286737 0.336131 0.3825 0.429521 0.478204 0.525541 0.571567 0.616994 0.661996 0.707056 0.75267 0.799176 0.846597 0.894891 0.944105 0.994417 1.04615 1.09962 1.15603 1.15361 0.968653 0.548087 0.0632741 -0.183393 0 0 0.0222533 0.0659663 0.127618 0.184655 0.242017 0.289321 0.336578 0.382296 0.429408 0.477681 0.525921 0.573866 0.62126 0.66802 0.714272 0.760524 0.807145 0.854366 0.902249 0.950933 1.00066 1.0518 1.10471 1.16015 1.18726 1.04422 0.668369 0.179505 -0.113536 0 0 0.0303418 0.0750668 0.133409 0.190426 0.245793 0.293894 0.340781 0.386032 0.432481 0.479928 0.528125 0.576618 0.624944 0.672779 0.719977 0.766733 0.81355 0.860694 0.908348 0.956741 1.0062 1.05711 1.10987 1.16483 1.21247 1.11485 0.793347 0.308626 -0.0303658 0 0 0.0366771 0.0834931 0.138928 0.195397 0.25038 0.300577 0.347907 0.393037 0.438516 0.484784 0.532129 0.580174 0.628433 0.676514 0.724155 0.771369 0.818406 0.865606 0.913217 0.961536 1.01097 1.06191 1.11483 1.17005 1.2274 1.17918 0.917319 0.450136 0.0627924 0 0 0.0409921 0.0889766 0.142307 0.197496 0.252617 0.304364 0.352991 0.399197 0.444493 0.490025 0.536486 0.583758 0.631417 0.679229 0.726957 0.774445 0.82174 0.869124 0.916862 0.965333 1.01496 1.06619 1.11953 1.1752 1.23465 1.23563 1.03311 0.601682 0.168978 0 0 0.0439268 0.0925436 0.144214 0.19799 0.252535 0.304936 0.354359 0.401455 0.447199 0.492784 0.538967 0.585842 0.633159 0.680732 0.728415 0.776088 0.823674 0.871326 0.919366 0.9682 1.01825 1.07008 1.12403 1.18029 1.24037 1.27811 1.13598 0.76059 0.292403 0 0 0.045664 0.0944104 0.14499 0.19729 0.250808 0.30325 0.353218 0.400947 0.447259 0.493173 0.539411 0.586219 0.633479 0.681037 0.728733 0.776511 0.824394 0.872433 0.920959 0.970325 1.02108 1.07379 1.12842 1.18562 1.24767 1.30099 1.22751 0.923632 0.431469 0 0 0.0463089 0.0950118 0.144793 0.195612 0.247354 0.299018 0.349138 0.397581 0.444825 0.491441 0.538075 0.58508 0.632522 0.680277 0.7282 0.776197 0.824316 0.872844 0.921971 0.972099 1.02388 1.0775 1.13287 1.19179 1.25494 1.30912 1.31242 1.08063 0.58113 0 0 0.0463908 0.0948516 0.143843 0.193181 0.242959 0.293064 0.342689 0.39138 0.439362 0.486881 0.534256 0.581794 0.629668 0.677914 0.726388 0.774942 0.823688 0.872835 0.922736 0.973929 1.02685 1.08125 1.13796 1.19923 1.26036 1.31904 1.38627 1.21871 0.734625 0 0 0.0462291 0.0940863 0.142112 0.19009 0.238185 0.286597 0.335193 0.383705 0.43206 0.480314 0.528523 0.576789 0.625279 0.674159 0.723373 0.772821 0.822483 0.872611 0.923651 0.976158 1.03003 1.08541 1.14472 1.20644 1.26533 1.34446 1.44224 1.31992 0.875313 0 0 0.0457589 0.0927318 0.139688 0.186424 0.233194 0.280404 0.328225 0.376443 0.424897 0.47355 0.522384 0.571422 0.62069 0.67031 0.72039 0.770791 0.821476 0.87277 0.925169 0.978812 1.03354 1.09124 1.15296 1.21167 1.27565 1.39601 1.46622 1.36284 0.974569 0 0 0.0450493 0.0909741 0.136757 0.182413 0.228302 0.274834 0.322227 0.370338 0.41896 0.467999 0.517392 0.567109 0.617152 0.667575 0.718416 0.769625 0.821319 0.873782 0.927372 0.981881 1.03863 1.09968 1.15918 1.21794 1.30898 1.44 1.45349 1.34085 0.978447 0 0 0.0442576 0.0891381 0.133931 0.178827 0.224142 0.27026 0.31743 0.365543 0.414355 0.463745 0.51363 0.563951 0.614692 0.665835 0.717386 0.769412 0.822063 0.875702 0.930219 0.986593 1.04691 1.10711 1.16441 1.23997 1.36989 1.43472 1.40014 1.2265 0.80949 0 0 0.0436283 0.0876843 0.131746 0.176115 0.221109 0.267028 0.314114 0.362287 0.411292 0.460998 0.511308 0.562145 0.61345 0.665186 0.717363 0.770186 0.823934 0.87859 0.934985 0.994863 1.05526 1.11234 1.18041 1.29837 1.38862 1.38579 1.28161 0.981513 0.465674 0 0 0.0432132 0.0867066 0.130331 0.174471 0.21939 0.265309 0.312405 0.360665 0.409871 0.459849 0.510479 0.561669 0.613352 0.665562 0.718519 0.772382 0.827252 0.883909 0.943602 1.00372 1.06092 1.12605 1.23341 1.33524 1.35216 1.28395 1.05572 0.597063 0.165467 0 0 0.0430614 0.0862308 0.129767 0.173888 0.218902 0.264917 0.312082 0.360423 0.409766 0.459908 0.510761 0.562297 0.614537 0.667586 0.721554 0.77668 0.833683 0.893225 0.95267 1.01006 1.075 1.17653 1.27947 1.30869 1.26198 1.08267 0.686556 0.232911 0.0336303 0 0 0.0430111 0.0863625 0.129747 0.174134 0.219222 0.265467 0.312831 0.361365 0.410951 0.461442 0.512779 0.564955 0.618004 0.672064 0.727457 0.784708 0.843821 0.902342 0.960078 1.02699 1.12706 1.22389 1.25852 1.22443 1.07653 0.732499 0.287002 0.0530912 0.00324677 0 0 0.0439114 0.0858877 0.132198 0.17603 0.222486 0.26895 0.31645 0.364961 0.414657 0.465522 0.517451 0.570385 0.624468 0.680018 0.737198 0.795395 0.853027 0.911772 0.983007 1.08325 1.16878 1.2032 1.17497 1.04491 0.738523 0.317492 0.0695854 0.00564159 0.000115968 0 0 0.0390085 0.0892841 0.129293 0.186113 0.233885 0.285122 0.333807 0.381414 0.428504 0.475829 0.52659 0.579766 0.634798 0.691218 0.748086 0.805182 0.86677 0.944818 1.04177 1.11305 1.14288 1.11483 0.991852 0.709594 0.320202 0.0780929 0.00766914 0.000219467 1.10686e-06 0 0 0.0342552 0.0617039 0.134654 0.186636 0.259576 0.319771 0.374085 0.422327 0.466643 0.509896 0.555944 0.603827 0.651861 0.70386 0.761563 0.828219 0.912259 0.997477 1.05513 1.07654 1.04353 0.918739 0.649865 0.296249 0.0763417 0.00840211 0.000297139 2.08614e-06 5.59896e-09 0 0 -0.00802 0.0377462 0.0730974 0.198308 0.28222 0.361537 0.427295 0.48198 0.52968 0.57354 0.615335 0.655673 0.696285 0.744288 0.804415 0.878752 0.952061 0.996724 1.0047 0.960631 0.825663 0.56308 0.250777 0.0651711 0.00750207 0.000296129 2.56533e-06 8.26514e-09 3.3727e-11 0 0 -0.123238 -0.13038 0.0854082 0.19092 0.300706 0.387482 0.459949 0.523333 0.581319 0.635591 0.686783 0.736255 0.786385 0.839808 0.895985 0.943942 0.962839 0.950484 0.87971 0.719494 0.456559 0.192598 0.0479975 0.00542093 0.000217418 2.08072e-06 8.24886e-09 4.19605e-11 4.58059e-14 0 0 -0.286733 -0.0435214 0.0867816 0.222555 0.333678 0.42841 0.514873 0.595116 0.668459 0.73659 0.806625 0.876355 0.944927 1.00875 1.05804 1.07399 1.03445 0.901947 0.660469 0.361524 0.134966 0.0298073 0.00308918 0.000114442 1.10083e-06 5.49985e-09 3.36525e-11 2.376e-13 3.34333e-11 0 0 0 0 0 0 0 0 0 0 0 0 0 0 0 0 0 0 0 0 0 0 0 0 0 0 0 0 0 0 0 0
				</DataArray>
				<DataArray Name="VitesseY" type="Float32" format="ascii">
 0 0 0 0 0 0 0 0 0 0 0 0 0 0 0 0 0 0 0 0 0 0 0 0 0 0 0 0 0 0 0 -0.0697488 0.121337 0.11982 0.0873655 0.0413326 0.014442 0.0096124 0.0147445 0.0222582 0.0303479 0.0366818 0.0409961 0.043931 0.0456681 0.0463125 0.0463942 0.0462321 0.0457614 0.0450511 0.0442588 0.0436279 0.0432156 0.0430364 0.043125 0.0453075 0.0513676 0.0609243 0.0686506 0.0689283 0.0707013 0 -0.142272 0.145934 0.247135 0.221945 0.147045 0.0814794 0.0614312 0.0602873 0.0659804 0.0750779 0.0834991 0.0889806 0.0925476 0.0944148 0.0950162 0.0948559 0.0940904 0.0927354 0.0909767 0.0891391 0.0876854 0.0867015 0.0862273 0.0863156 0.0901854 0.1015 0.120241 0.136108 0.138488 0.141249 0 -0.155871 0.109036 0.274701 0.254785 0.203714 0.148726 0.126786 0.124693 0.127641 0.133426 0.138935 0.14231 0.144215 0.144992 0.144796 0.143847 0.142116 0.139692 0.136759 0.133933 0.131745 0.130332 0.129735 0.129866 0.134901 0.15036 0.177239 0.202173 0.207759 0.213383 0 -0.121552 0.0943863 0.283648 0.283199 0.258995 0.218743 0.187762 0.181476 0.184682 0.190449 0.195409 0.197501 0.197992 0.19729 0.195613 0.193184 0.190093 0.186426 0.182415 0.178828 0.176115 0.174468 0.173882 0.174104 0.17959 0.197844 0.231775 0.265825 0.276213 0.287704 0 -0.036522 0.12643 0.288423 0.318245 0.315443 0.285144 0.249702 0.240831 0.242044 0.245815 0.250396 0.252626 0.25254 0.25081 0.247354 0.24296 0.238186 0.233196 0.228303 0.224142 0.221109 0.21939 0.218892 0.219261 0.224299 0.244054 0.283701 0.326361 0.343023 0.364078 0 0.0703844 0.187963 0.312763 0.34225 0.33672 0.316548 0.292608 0.286757 0.289341 0.293914 0.300592 0.304375 0.304945 0.303255 0.29902 0.293065 0.286597 0.280404 0.274834 0.27026 0.267028 0.265308 0.264916 0.265476 0.269673 0.289704 0.333017 0.383325 0.407323 0.442047 0 0.167652 0.248318 0.34207 0.370245 0.369052 0.358858 0.343058 0.336145 0.336594 0.340797 0.347922 0.353003 0.354369 0.353225 0.349142 0.34269 0.335193 0.328224 0.322226 0.31743 0.314114 0.312404 0.312082 0.312844 0.316756 0.33582 0.37981 0.43637 0.468544 0.520484 0 0.253375 0.30995 0.374181 0.400334 0.407557 0.402497 0.391067 0.382508 0.382306 0.386045 0.39305 0.399209 0.401465 0.400955 0.397586 0.391381 0.383704 0.376441 0.370337 0.365542 0.362286 0.360664 0.360423 0.361374 0.365061 0.382126 0.424353 0.485342 0.526642 0.597228 0 0.328876 0.371123 0.413213 0.432461 0.443761 0.442435 0.436242 0.429524 0.429416 0.432491 0.438529 0.444505 0.447208 0.447267 0.444829 0.439363 0.432058 0.424896 0.418958 0.414353 0.41129 0.40987 0.409766 0.410953 0.414679 0.428701 0.467266 0.5308 0.582489 0.669197 0 0.392856 0.425635 0.451842 0.466753 0.480154 0.484263 0.481955 0.478204 0.477687 0.479937 0.484796 0.490035 0.492792 0.493179 0.491444 0.486881 0.480312 0.473548 0.467997 0.463743 0.460997 0.459847 0.459906 0.461442 0.465523 0.475862 0.510035 0.573866 0.635973 0.736836 0 0.451448 0.476622 0.493147 0.504578 0.517379 0.525022 0.526058 0.525541 0.525926 0.528133 0.53214 0.536494 0.538973 0.539415 0.538077 0.534256 0.528521 0.522383 0.517391 0.513628 0.511307 0.510477 0.51076 0.512778 0.517449 0.526589 0.555964 0.615417 0.686892 0.806698 0 0.50548 0.524722 0.535376 0.544428 0.55523 0.564648 0.569103 0.571568 0.573871 0.576626 0.580183 0.583764 0.585846 0.586222 0.585081 0.581793 0.576787 0.57142 0.567107 0.563949 0.562143 0.561667 0.562296 0.564953 0.570383 0.579765 0.60383 0.655691 0.736279 0.876378 0 0.556738 0.571086 0.578748 0.586052 0.594769 0.604459 0.611797 0.616996 0.621265 0.62495 0.628439 0.631422 0.633162 0.633481 0.632522 0.629666 0.625277 0.620689 0.617151 0.614691 0.613449 0.613351 0.614536 0.618003 0.624467 0.634797 0.651861 0.696286 0.786386 0.944933 0 0.606458 0.616921 0.622974 0.629035 0.636285 0.645295 0.654499 0.662 0.668025 0.672784 0.676518 0.679232 0.680734 0.681038 0.680277 0.677913 0.674157 0.670308 0.667574 0.665834 0.665184 0.66556 0.667585 0.672063 0.680017 0.691217 0.70386 0.744287 0.839807 1.00875 0 0.655741 0.662754 0.667828 0.673241 0.679837 0.688168 0.697925 0.707061 0.714278 0.719982 0.724159 0.726959 0.728416 0.728733 0.7282 0.726387 0.723372 0.720389 0.718415 0.717385 0.717362 0.718518 0.721553 0.727456 0.737198 0.748086 0.761563 0.804415 0.895985 1.05804 0 0.705152 0.709056 0.71352 0.718848 0.725346 0.733341 0.742934 0.752674 0.760529 0.766737 0.771372 0.774446 0.776088 0.776511 0.776197 0.774942 0.77282 0.77079 0.769625 0.769411 0.770185 0.772382 0.776679 0.784708 0.795394 0.805181 0.828218 0.878752 0.943941 1.07399 0 0.754944 0.756328 0.760419 0.765996 0.772663 0.780474 0.789593 0.799179 0.807149 0.813554 0.818408 0.821741 0.823674 0.824394 0.824316 0.823687 0.822483 0.821476 0.821319 0.822063 0.823933 0.827251 0.833683 0.843821 0.853026 0.866769 0.912259 0.952061 0.962838 1.03445 0 0.805504 0.804888 0.808884 0.814772 0.821573 0.829102 0.837559 0.846599 0.854371 0.860697 0.865609 0.869126 0.871327 0.872433 0.872844 0.872835 0.872612 0.87277 0.873782 0.875702 0.87859 0.883908 0.893225 0.902341 0.911771 0.944818 0.997477 0.996723 0.950482 0.901942 0 0.857143 0.854943 0.859062 0.865127 0.871855 0.878961 0.88665 0.894892 0.902253 0.908351 0.91322 0.916864 0.919366 0.920959 0.921971 0.922736 0.923652 0.925169 0.927373 0.93022 0.934985 0.943601 0.95267 0.960077 0.983006 1.04177 1.05512 1.00469 0.879708 0.660463 0 0.909959 0.90658 0.910871 0.916937 0.923399 0.92996 0.936812 0.944106 0.950936 0.956744 0.961539 0.965334 0.968201 0.970326 0.9721 0.97393 0.976158 0.978813 0.981882 0.986593 0.994863 1.00372 1.01006 1.02699 1.08325 1.11305 1.07654 0.960628 0.71949 0.36152 0 0.963959 0.959838 0.964249 0.97015 0.976167 0.982068 0.988084 0.994418 1.00067 1.0062 1.01097 1.01496 1.01825 1.02108 1.02388 1.02686 1.03003 1.03354 1.03863 1.04691 1.05526 1.06092 1.075 1.12706 1.16877 1.14288 1.04352 0.825659 0.456555 0.134963 0 1.01921 1.01479 1.01919 1.02477 1.03023 1.03542 1.04066 1.04615 1.0518 1.05711 1.06191 1.0662 1.07008 1.07379 1.0775 1.08125 1.08541 1.09124 1.09968 1.10711 1.11234 1.12605 1.17652 1.22389 1.2032 1.11483 0.918735 0.563076 0.192596 0.0298066 0 1.07625 1.07174 1.07607 1.08128 1.08605 1.09053 1.09494 1.09966 1.10473 1.10988 1.11483 1.11954 1.12404 1.12842 1.13287 1.13797 1.14472 1.15296 1.15918 1.16441 1.18041 1.23341 1.27947 1.25851 1.17497 0.991849 0.649861 0.250775 0.0479966 0.00308909 0 1.12883 1.12596 1.12955 1.13496 1.1414 1.14664 1.1521 1.15628 1.16021 1.16485 1.17005 1.1752 1.18029 1.18562 1.19179 1.19923 1.20645 1.21167 1.21794 1.23997 1.29837 1.33524 1.30869 1.22442 1.04491 0.709592 0.296247 0.0651704 0.00542082 0.000114438 0 1.06813 1.05933 1.06246 1.06674 1.076 1.09755 1.12451 1.15702 1.18835 1.21273 1.22744 1.23465 1.24038 1.24768 1.25494 1.26036 1.26533 1.27565 1.30898 1.36989 1.38862 1.35215 1.26198 1.07653 0.738522 0.320201 0.0763414 0.00750197 0.000217412 1.10078e-06 0 0.835309 0.831706 0.811916 0.803963 0.817622 0.848443 0.90636 0.974355 1.04601 1.11546 1.17936 1.23568 1.27812 1.30099 1.30912 1.31904 1.34446 1.39601 1.44 1.43472 1.38579 1.28395 1.08267 0.7325 0.317492 0.0780931 0.00840211 0.000296126 2.08067e-06 5.49968e-09 0 0.45459 0.41517 0.376421 0.324728 0.318066 0.374227 0.451653 0.5537 0.67038 0.794054 0.91757 1.03317 1.13599 1.22751 1.31242 1.38627 1.44224 1.46622 1.45349 1.40014 1.28162 1.05572 0.68656 0.287005 0.0695861 0.00766922 0.000297141 2.56533e-06 8.24878e-09 3.36514e-11 0 0.0968197 0.0966537 -0.118582 -0.186037 -0.146727 -0.107813 -0.0326313 0.0654798 0.180415 0.30898 0.450266 0.601721 0.760598 0.923632 1.08063 1.2187 1.31992 1.36284 1.34085 1.22651 0.981517 0.597068 0.232914 0.0530921 0.00564171 0.000219473 2.08619e-06 8.26521e-09 4.19605e-11 2.376e-13 0 0.281141 -0.13052 -0.397885 -0.304785 -0.322724 -0.285129 -0.241025 -0.184646 -0.113985 -0.0304692 0.0627783 0.168976 0.292401 0.431467 0.581127 0.734622 0.875311 0.974568 0.978448 0.809494 0.46568 0.165469 0.033631 0.00324687 0.000115973 1.10691e-06 5.59913e-09 3.3728e-11 4.58059e-14 3.34333e-11 0 3.87699 0 0 0 0 0 0 0 0 0 0 0 0 0 0 0 0 0 0 0 0 0 0 0 0 0 0 0 0 0 0
				</DataArray>
			</PointData>
			<CellData Scalars="Density">
				<DataArray Name="Density" type="Float32" format="ascii">