<?xml version="1.0"?>
<VTKFile type="PolyData">
	<PolyData>
		<Piece NumberOfPoints="961" NumberOfPolys="900">
			<Points>
				<DataArray type="Float32" NumberOfComponents="3" format="ascii">
 0 0 0 0.04 0 0 0.08 0 0 0.12 0 0 0.16 0 0 0.2 0 0 0.24 0 0 0.28 0 0 0.32 0 0 0.36 0 0 0.4 0 0 0.44 0 0 0.48 0 0 0.52 0 0 0.56 0 0 0.6 0 0 0.64 0 0 0.68 0 0 0.72 0 0 0.76 0 0 0.8 0 0 0.84 0 0 0.88 0 0 0.92 0 0 0.96 0 0 1 0 0 1.04 0 0 1.08 0 0 1.12 0 0 1.16 0 0 1.2 0 0 0 0.04 0 0.04 0.04 0 0.08 0.04 0 0.12 0.04 0 0.16 0.04 0 0.2 0.04 0 0.24 0.04 0 0.28 0.04 0 0.32 0.04 0 0.36 0.04 0 0.4 0.04 0 0.44 0.04 0 0.48 0.04 0 0.52 0.04 0 0.56 0.04 0 0.6 0.04 0 0.64 0.04 0 0.68 0.04 0 0.72 0.04 0 0.76 0.04 0 0.8 0.04 0 0.84 0.04 0 0.88 0.04 0 0.92 0.04 0 0.96 0.04 0 1 0.04 0 1.04 0.04 0 1.08 0.04 0 1.12 0.04 0 1.16 0.04 0 1.2 0.04 0 0 0.08 0 0.04 0.08 0 0.08 0.08 0 0.12 0.08 0 0.16 0.08 0 0.2 0.08 0 0.24 0.08 0 0.28 0.08 0 0.32 0.08 0 0.36 0.08 0 0.4 0.08 0 0.44 0.08 0 0.48 0.08 0 0.52 0.08 0 0.56 0.08 0 0.6 0.08 0 0.64 0.08 0 0.68 0.08 0 0.72 0.08 0 0.76 0.08 0 0.8 0.08 0 0.84 0.08 0 0.88 0.08 0 0.92 0.08 0 0.96 0.08 0 1 0.08 0 1.04 0.08 0 1.08 0.08 0 1.12 0.08 0 1.16 0.08 0 1.2 0.08 0 0 0.12 0 0.04 0.12 0 0.08 0.12 0 0.12 0.12 0 0.16 0.12 0 0.2 0.12 0 0.24 0.12 0 0.28 0.12 0 0.32 0.12 0 0.36 0.12 0 0.4 0.12 0 0.44 0.12 0 0.48 0.12 0 0.52 0.12 0 0.56 0.12 0 0.6 0.12 0 0.64 0.12 0 0.68 0.12 0 0.72 0.12 0 0.76 0.12 0 0.8 0.12 0 0.84 0.12 0 0.88 0.12 0 0.92 0.12 0 0.96 0.12 0 1 0.12 0 1.04 0.12 0 1.08 0.12 0 1.12 0.12 0 1.16 0.12 0 1.2 0.12 0 0 0.16 0 0.04 0.16 0 0.08 0.16 0 0.12 0.16 0 0.16 0.16 0 0.2 0.16 0 0.24 0.16 0 0.28 0.16 0 0.32 0.16 0 0.36 0.16 0 0.4 0.16 0 0.44 0.16 0 0.48 0.16 0 0.52 0.16 0 0.56 0.16 0 0.6 0.16 0 0.64 0.16 0 0.68 0.16 0 0.72 0.16 0 0.76 0.16 0 0.8 0.16 0 0.84 0.16 0 0.88 0.16 0 0.92 0.16 0 0.96 0.16 0 1 0.16 0 1.04 0.16 0 1.08 0.16 0 1.12 0.16 0 1.16 0.16 0 1.2 0.16 0 0 0.2 0 0.04 0.2 0 0.08 0.2 0 0.12 0.2 0 0.16 0.2 0 0.2 0.2 0 0.24 0.2 0 0.28 0.2 0 0.32 0.2 0 0.36 0.2 0 0.4 0.2 0 0.44 0.2 0 0.48 0.2 0 0.52 0.2 0 0.56 0.2 0 0.6 0.2 0 0.64 0.2 0 0.68 0.2 0 0.72 0.2 0 0.76 0.2 0 0.8 0.2 0 0.84 0.2 0 0.88 0.2 0 0.92 0.2 0 0.96 0.2 0 1 0.2 0 1.04 0.2 0 1.08 0.2 0 1.12 0.2 0 1.16 0.2 0 1.2 0.2 0 0 0.24 0 0.04 0.24 0 0.08 0.24 0 0.12 0.24 0 0.16 0.24 0 0.2 0.24 0 0.24 0.24 0 0.28 0.24 0 0.32 0.24 0 0.36 0.24 0 0.4 0.24 0 0.44 0.24 0 0.48 0.24 0 0.52 0.24 0 0.56 0.24 0 0.6 0.24 0 0.64 0.24 0 0.68 0.24 0 0.72 0.24 0 0.76 0.24 0 0.8 0.24 0 0.84 0.24 0 0.88 0.24 0 0.92 0.24 0 0.96 0.24 0 1 0.24 0 1.04 0.24 0 1.08 0.24 0 1.12 0.24 0 1.16 0.24 0 1.2 0.24 0 0 0.28 0 0.04 0.28 0 0.08 0.28 0 0.12 0.28 0 0.16 0.28 0 0.2 0.28 0 0.24 0.28 0 0.28 0.28 0 0.32 0.28 0 0.36 0.28 0 0.4 0.28 0 0.44 0.28 0 0.48 0.28 0 0.52 0.28 0 0.56 0.28 0 0.6 0.28 0 0.64 0.28 0 0.68 0.28 0 0.72 0.28 0 0.76 0.28 0 0.8 0.28 0 0.84 0.28 0 0.88 0.28 0 0.92 0.28 0 0.96 0.28 0 1 0.28 0 1.04 0.28 0 1.08 0.28 0 1.12 0.28 0 1.16 0.28 0 1.2 0.28 0 0 0.32 0 0.04 0.32 0 0.08 0.32 0 0.12 0.32 0 0.16 0.32 0 0.2 0.32 0 0.24 0.32 0 0.28 0.32 0 0.32 0.32 0 0.36 0.32 0 0.4 0.32 0 0.44 0.32 0 0.48 0.32 0 0.52 0.32 0 0.56 0.32 0 0.6 0.32 0 0.64 0.32 0 0.68 0.32 0 0.72 0.32 0 0.76 0.32 0 0.8 0.32 0 0.84 0.32 0 0.88 0.32 0 0.92 0.32 0 0.96 0.32 0 1 0.32 0 1.04 0.32 0 1.08 0.32 0 1.12 0.32 0 1.16 0.32 0 1.2 0.32 0 0 0.36 0 0.04 0.36 0 0.08 0.36 0 0.12 0.36 0 0.16 0.36 0 0.2 0.36 0 0.24 0.36 0 0.28 0.36 0 0.32 0.36 0 0.36 0.36 0 0.4 0.36 0 0.44 0.36 0 0.48 0.36 0 0.52 0.36 0 0.56 0.36 0 0.6 0.36 0 0.64 0.36 0 0.68 0.36 0 0.72 0.36 0 0.76 0.36 0 0.8 0.36 0 0.84 0.36 0 0.88 0.36 0 0.92 0.36 0 0.96 0.36 0 1 0.36 0 1.04 0.36 0 1.08 0.36 0 1.12 0.36 0 1.16 0.36 0 1.2 0.36 0 0 0.4 0 0.04 0.4 0 0.08 0.4 0 0.12 0.4 0 0.16 0.4 0 0.2 0.4 0 0.24 0.4 0 0.28 0.4 0 0.32 0.4 0 0.36 0.4 0 0.4 0.4 0 0.44 0.4 0 0.48 0.4 0 0.52 0.4 0 0.56 0.4 0 0.6 0.4 0 0.64 0.4 0 0.68 0.4 0 0.72 0.4 0 0.76 0.4 0 0.8 0.4 0 0.84 0.4 0 0.88 0.4 0 0.92 0.4 0 0.96 0.4 0 1 0.4 0 1.04 0.4 0 1.08 0.4 0 1.12 0.4 0 1.16 0.4 0 1.2 0.4 0 0 0.44 0 0.04 0.44 0 0.08 0.44 0 0.12 0.44 0 0.16 0.44 0 0.2 0.44 0 0.24 0.44 0 0.28 0.44 0 0.32 0.44 0 0.36 0.44 0 0.4 0.44 0 0.44 0.44 0 0.48 0.44 0 0.52 0.44 0 0.56 0.44 0 0.6 0.44 0 0.64 0.44 0 0.68 0.44 0 0.72 0.44 0 0.76 0.44 0 0.8 0.44 0 0.84 0.44 0 0.88 0.44 0 0.92 0.44 0 0.96 0.44 0 1 0.44 0 1.04 0.44 0 1.08 0.44 0 1.12 0.44 0 1.16 0.44 0 1.2 0.44 0 0 0.48 0 0.04 0.48 0 0.08 0.48 0 0.12 0.48 0 0.16 0.48 0 0.2 0.48 0 0.24 0.48 0 0.28 0.48 0 0.32 0.48 0 0.36 0.48 0 0.4 0.48 0 0.44 0.48 0 0.48 0.48 0 0.52 0.48 0 0.56 0.48 0 0.6 0.48 0 0.64 0.48 0 0.68 0.48 0 0.72 0.48 0 0.76 0.48 0 0.8 0.48 0 0.84 0.48 0 0.88 0.48 0 0.92 0.48 0 0.96 0.48 0 1 0.48 0 1.04 0.48 0 1.08 0.48 0 1.12 0.48 0 1.16 0.48 0 1.2 0.48 0 0 0.52 0 0.04 0.52 0 0.08 0.52 0 0.12 0.52 0 0.16 0.52 0 0.2 0.52 0 0.24 0.52 0 0.28 0.52 0 0.32 0.52 0 0.36 0.52 0 0.4 0.52 0 0.44 0.52 0 0.48 0.52 0 0.52 0.52 0 0.56 0.52 0 0.6 0.52 0 0.64 0.52 0 0.68 0.52 0 0.72 0.52 0 0.76 0.52 0 0.8 0.52 0 0.84 0.52 0 0.88 0.52 0 0.92 0.52 0 0.96 0.52 0 1 0.52 0 1.04 0.52 0 1.08 0.52 0 1.12 0.52 0 1.16 0.52 0 1.2 0.52 0 0 0.56 0 0.04 0.56 0 0.08 0.56 0 0.12 0.56 0 0.16 0.56 0 0.2 0.56 0 0.24 0.56 0 0.28 0.56 0 0.32 0.56 0 0.36 0.56 0 0.4 0.56 0 0.44 0.56 0 0.48 0.56 0 0.52 0.56 0 0.56 0.56 0 0.6 0.56 0 0.64 0.56 0 0.68 0.56 0 0.72 0.56 0 0.76 0.56 0 0.8 0.56 0 0.84 0.56 0 0.88 0.56 0 0.92 0.56 0 0.96 0.56 0 1 0.56 0 1.04 0.56 0 1.08 0.56 0 1.12 0.56 0 1.16 0.56 0 1.2 0.56 0 0 0.6 0 0.04 0.6 0 0.08 0.6 0 0.12 0.6 0 0.16 0.6 0 0.2 0.6 0 0.24 0.6 0 0.28 0.6 0 0.32 0.6 0 0.36 0.6 0 0.4 0.6 0 0.44 0.6 0 0.48 0.6 0 0.52 0.6 0 0.56 0.6 0 0.6 0.6 0 0.64 0.6 0 0.68 0.6 0 0.72 0.6 0 0.76 0.6 0 0.8 0.6 0 0.84 0.6 0 0.88 0.6 0 0.92 0.6 0 0.96 0.6 0 1 0.6 0 1.04 0.6 0 1.08 0.6 0 1.12 0.6 0 1.16 0.6 0 1.2 0.6 0 0 0.64 0 0.04 0.64 0 0.08 0.64 0 0.12 0.64 0 0.16 0.64 0 0.2 0.64 0 0.24 0.64 0 0.28 0.64 0 0.32 0.64 0 0.36 0.64 0 0.4 0.64 0 0.44 0.64 0 0.48 0.64 0 0.52 0.64 0 0.56 0.64 0 0.6 0.64 0 0.64 0.64 0 0.68 0.64 0 0.72 0.64 0 0.76 0.64 0 0.8 0.64 0 0.84 0.64 0 0.88 0.64 0 0.92 0.64 0 0.96 0.64 0 1 0.64 0 1.04 0.64 0 1.08 0.64 0 1.12 0.64 0 1.16 0.64 0 1.2 0.64 0 0 0.68 0 0.04 0.68 0 0.08 0.68 0 0.12 0.68 0 0.16 0.68 0 0.2 0.68 0 0.24 0.68 0 0.28 0.68 0 0.32 0.68 0 0.36 0.68 0 0.4 0.68 0 0.44 0.68 0 0.48 0.68 0 0.52 0.68 0 0.56 0.68 0 0.6 0.68 0 0.64 0.68 0 0.68 0.68 0 0.72 0.68 0 0.76 0.68 0 0.8 0.68 0 0.84 0.68 0 0.88 0.68 0 0.92 0.68 0 0.96 0.68 0 1 0.68 0 1.04 0.68 0 1.08 0.68 0 1.12 0.68 0 1.16 0.68 0 1.2 0.68 0 0 0.72 0 0.04 0.72 0 0.08 0.72 0 0.12 0.72 0 0.16 0.72 0 0.2 0.72 0 0.24 0.72 0 0.28 0.72 0 0.32 0.72 0 0.36 0.72 0 0.4 0.72 0 0.44 0.72 0 0.48 0.72 0 0.52 0.72 0 0.56 0.72 0 0.6 0.72 0 0.64 0.72 0 0.68 0.72 0 0.72 0.72 0 0.76 0.72 0 0.8 0.72 0 0.84 0.72 0 0.88 0.72 0 0.92 0.72 0 0.96 0.72 0 1 0.72 0 1.04 0.72 0 1.08 0.72 0 1.12 0.72 0 1.16 0.72 0 1.2 0.72 0 0 0.76 0 0.04 0.76 0 0.08 0.76 0 0.12 0.76 0 0.16 0.76 0 0.2 0.76 0 0.24 0.76 0 0.28 0.76 0 0.32 0.76 0 0.36 0.76 0 0.4 0.76 0 0.44 0.76 0 0.48 0.76 0 0.52 0.76 0 0.56 0.76 0 0.6 0.76 0 0.64 0.76 0 0.68 0.76 0 0.72 0.76 0 0.76 0.76 0 0.8 0.76 0 0.84 0.76 0 0.88 0.76 0 0.92 0.76 0 0.96 0.76 0 1 0.76 0 1.04 0.76 0 1.08 0.76 0 1.12 0.76 0 1.16 0.76 0 1.2 0.76 0 0 0.8 0 0.04 0.8 0 0.08 0.8 0 0.12 0.8 0 0.16 0.8 0 0.2 0.8 0 0.24 0.8 0 0.28 0.8 0 0.32 0.8 0 0.36 0.8 0 0.4 0.8 0 0.44 0.8 0 0.48 0.8 0 0.52 0.8 0 0.56 0.8 0 0.6 0.8 0 0.64 0.8 0 0.68 0.8 0 0.72 0.8 0 0.76 0.8 0 0.8 0.8 0 0.84 0.8 0 0.88 0.8 0 0.92 0.8 0 0.96 0.8 0 1 0.8 0 1.04 0.8 0 1.08 0.8 0 1.12 0.8 0 1.16 0.8 0 1.2 0.8 0 0 0.84 0 0.04 0.84 0 0.08 0.84 0 0.12 0.84 0 0.16 0.84 0 0.2 0.84 0 0.24 0.84 0 0.28 0.84 0 0.32 0.84 0 0.36 0.84 0 0.4 0.84 0 0.44 0.84 0 0.48 0.84 0 0.52 0.84 0 0.56 0.84 0 0.6 0.84 0 0.64 0.84 0 0.68 0.84 0 0.72 0.84 0 0.76 0.84 0 0.8 0.84 0 0.84 0.84 0 0.88 0.84 0 0.92 0.84 0 0.96 0.84 0 1 0.84 0 1.04 0.84 0 1.08 0.84 0 1.12 0.84 0 1.16 0.84 0 1.2 0.84 0 0 0.88 0 0.04 0.88 0 0.08 0.88 0 0.12 0.88 0 0.16 0.88 0 0.2 0.88 0 0.24 0.88 0 0.28 0.88 0 0.32 0.88 0 0.36 0.88 0 0.4 0.88 0 0.44 0.88 0 0.48 0.88 0 0.52 0.88 0 0.56 0.88 0 0.6 0.88 0 0.64 0.88 0 0.68 0.88 0 0.72 0.88 0 0.76 0.88 0 0.8 0.88 0 0.84 0.88 0 0.88 0.88 0 0.92 0.88 0 0.96 0.88 0 1 0.88 0 1.04 0.88 0 1.08 0.88 0 1.12 0.88 0 1.16 0.88 0 1.2 0.88 0 0 0.92 0 0.04 0.92 0 0.08 0.92 0 0.12 0.92 0 0.16 0.92 0 0.2 0.92 0 0.24 0.92 0 0.28 0.92 0 0.32 0.92 0 0.36 0.92 0 0.4 0.92 0 0.44 0.92 0 0.48 0.92 0 0.52 0.92 0 0.56 0.92 0 0.6 0.92 0 0.64 0.92 0 0.68 0.92 0 0.72 0.92 0 0.76 0.92 0 0.8 0.92 0 0.84 0.92 0 0.88 0.92 0 0.92 0.92 0 0.96 0.92 0 1 0.92 0 1.04 0.92 0 1.08 0.92 0 1.12 0.92 0 1.16 0.92 0 1.2 0.92 0 0 0.96 0 0.04 0.96 0 0.08 0.96 0 0.12 0.96 0 0.16 0.96 0 0.2 0.96 0 0.24 0.96 0 0.28 0.96 0 0.32 0.96 0 0.36 0.96 0 0.4 0.96 0 0.44 0.96 0 0.48 0.96 0 0.52 0.96 0 0.56 0.96 0 0.6 0.96 0 0.64 0.96 0 0.68 0.96 0 0.72 0.96 0 0.76 0.96 0 0.8 0.96 0 0.84 0.96 0 0.88 0.96 0 0.92 0.96 0 0.96 0.96 0 1 0.96 0 1.04 0.96 0 1.08 0.96 0 1.12 0.96 0 1.16 0.96 0 1.2 0.96 0 0 1 0 0.04 1 0 0.08 1 0 0.12 1 0 0.16 1 0 0.2 1 0 0.24 1 0 0.28 1 0 0.32 1 0 0.36 1 0 0.4 1 0 0.44 1 0 0.48 1 0 0.52 1 0 0.56 1 0 0.6 1 0 0.64 1 0 0.68 1 0 0.72 1 0 0.76 1 0 0.8 1 0 0.84 1 0 0.88 1 0 0.92 1 0 0.96 1 0 1 1 0 1.04 1 0 1.08 1 0 1.12 1 0 1.16 1 0 1.2 1 0 0 1.04 0 0.04 1.04 0 0.08 1.04 0 0.12 1.04 0 0.16 1.04 0 0.2 1.04 0 0.24 1.04 0 0.28 1.04 0 0.32 1.04 0 0.36 1.04 0 0.4 1.04 0 0.44 1.04 0 0.48 1.04 0 0.52 1.04 0 0.56 1.04 0 0.6 1.04 0 0.64 1.04 0 0.68 1.04 0 0.72 1.04 0 0.76 1.04 0 0.8 1.04 0 0.84 1.04 0 0.88 1.04 0 0.92 1.04 0 0.96 1.04 0 1 1.04 0 1.04 1.04 0 1.08 1.04 0 1.12 1.04 0 1.16 1.04 0 1.2 1.04 0 0 1.08 0 0.04 1.08 0 0.08 1.08 0 0.12 1.08 0 0.16 1.08 0 0.2 1.08 0 0.24 1.08 0 0.28 1.08 0 0.32 1.08 0 0.36 1.08 0 0.4 1.08 0 0.44 1.08 0 0.48 1.08 0 0.52 1.08 0 0.56 1.08 0 0.6 1.08 0 0.64 1.08 0 0.68 1.08 0 0.72 1.08 0 0.76 1.08 0 0.8 1.08 0 0.84 1.08 0 0.88 1.08 0 0.92 1.08 0 0.96 1.08 0 1 1.08 0 1.04 1.08 0 1.08 1.08 0 1.12 1.08 0 1.16 1.08 0 1.2 1.08 0 0 1.12 0 
[...]
			<PointData Scalars="VitesseX">
				<DataArray Name="VitesseX" type="Float32" format="ascii">
 0 -0.265844 -0.471723 -0.558807 -0.60013 -0.656964 -0.829886 -1.14738 -1.56977 -2.02474 -2.42315 -2.70883 -2.85621 -2.8504 -2.74394 -2.58719 -2.41458 -2.23464 -2.05132 -1.86864 -1.68923 -1.51436 -1.34486 -1.18072 -1.02005 -0.859544 -0.695545 -0.527375 -0.356668 -0.182595 0 0 -0.155594 -0.36507 -0.52279 -0.627378 -0.730904 -0.907577 -1.21022 -1.60726 -2.0375 -2.42003 -2.69841 -2.8457 -2.84599 -2.74183 -2.58557 -2.41311 -2.23349 -2.05045 -1.86785 -1.68841 -1.51348 -1.34398 -1.17995 -1.01953 -0.859395 -0.695779 -0.527917 -0.357364 -0.182946 0 0 -0.258985 -0.476865 -0.684667 -0.867352 -1.03418 -1.20531 -1.42691 -1.72981 -2.08508 -2.42016 -2.6758 -2.81949 -2.83544 -2.73931 -2.58436 -2.41159 -2.23182 -2.0487 -1.86594 -1.68626 -1.51113 -1.34153 -1.17761 -1.01762 -0.858183 -0.695347 -0.528073 -0.357815 -0.183193 0 0 -0.354394 -0.643211 -0.888084 -1.11615 -1.32157 -1.49707 -1.66986 -1.8774 -2.13492 -2.40516 -2.62869 -2.76705 -2.80971 -2.73086 -2.58328 -2.41076 -2.23104 -2.04781 -1.86477 -1.6846 -1.50897 -1.33901 -1.17501 -1.01536 -0.85668 -0.694785 -0.528207 -0.358236 -0.183466 0 0 -0.410124 -0.746423 -1.02874 -1.2801 -1.5016 -1.67651 -1.81384 -1.95578 -2.13206 -2.34431 -2.54199 -2.68464 -2.75553 -2.70972 -2.57987 -2.41121 -2.23173 -2.04908 -1.86587 -1.68511 -1.50865 -1.33786 -1.1733 -1.01363 -0.855481 -0.694471 -0.528589 -0.358928 -0.183981 0 0 -0.423132 -0.787639 -1.09632 -1.36819 -1.60151 -1.77889 -1.89325 -1.98319 -2.09337 -2.23868 -2.41379 -2.56671 -2.65712 -2.66956 -2.56925 -2.41007 -2.23295 -2.05148 -1.86849 -1.68723 -1.50984 -1.33796 -1.17245 -1.01243 -0.854615 -0.694461 -0.529294 -0.359882 -0.184573 0 0 -0.352519 -0.699217 -1.02733 -1.32742 -1.59447 -1.7961 -1.90997 -1.96491 -2.01543 -2.10353 -2.24295 -2.4003 -2.52499 -2.59104 -2.54039 -2.40348 -2.23298 -2.05327 -1.87169 -1.69029 -1.51199 -1.33887 -1.17222 -1.01157 -0.853917 -0.694582 -0.5302 -0.361012 -0.185083 0 0 -0.228284 -0.498329 -0.805154 -1.11385 -1.40893 -1.65836 -1.8194 -1.88454 -1.90838 -1.94816 -2.04067 -2.19568 -2.35288 -2.45443 -2.48283 -2.38615 -2.22694 -2.05263 -1.87351 -1.69323 -1.51459 -1.34029 -1.17231 -1.01082 -0.853169 -0.694652 -0.531193 -0.36229 -0.185542 0 0 -0.115282 -0.285639 -0.52382 -0.793243 -1.07187 -1.34849 -1.56766 -1.69022 -1.73588 -1.76272 -1.82076 -1.94922 -2.12545 -2.28053 -2.3679 -2.34247 -2.21223 -2.0463 -1.87192 -1.69439 -1.5166 -1.34173 -1.17244 -1.0099 -0.852165 -0.694481 -0.532162 -0.363759 -0.186063 0 0 -0.0328563 -0.113619 -0.267675 -0.474214 -0.702599 -0.940137 -1.17322 -1.35469 -1.45323 -1.50542 -1.56272 -1.66645 -1.84861 -2.04787 -2.19193 -2.25335 -2.17861 -2.03057 -1.86431 -1.692 -1.51682 -1.3424 -1.17229 -1.00865 -0.850669 -0.693866 -0.532984 -0.365439 -0.186813 0 0 0.0260192 0.0142068 -0.0595362 -0.191216 -0.359228 -0.545977 -0.741832 -0.924111 -1.06545 -1.15392 -1.23275 -1.33975 -1.51432 -1.75031 -1.96161 -2.08827 -2.11057 -1.99987 -1.84723 -1.68338 -1.51393 -1.34175 -1.17156 -1.00697 -0.848512 -0.692605 -0.533495 -0.367289 -0.187952 0 0 0.0711189 0.111859 0.103223 0.0407364 -0.0670094 -0.202817 -0.351463 -0.504714 -0.640268 -0.747502 -0.832277 -0.95013 -1.12286 -1.37879 -1.65678 -1.86545 -1.96988 -1.94121 -1.81635 -1.66554 -1.50515 -1.33867 -1.16998 -1.0048 -0.845677 -0.690514 -0.533483 -0.369187 -0.189635 0 0 0.104124 0.184086 0.225401 0.218612 0.168857 0.0828548 -0.02926 -0.148182 -0.259105 -0.349305 -0.425251 -0.516436 -0.680965 -0.932575 -1.26348 -1.56377 -1.75765 -1.82781 -1.76161 -1.63458 -1.4879 -1.33071 -1.1669 -1.00215 -0.842261 -0.68751 -0.53268 -0.370901 -0.192011 0 0 0.121962 0.226023 0.302284 0.337857 0.337181 0.299169 0.23212 0.144822 0.0524807 -0.0212013 -0.072441 -0.117446 -0.220406 -0.439711 -0.776648 -1.16476 -1.46862 -1.63721 -1.66646 -1.58282 -1.45862 -1.31547 -1.16055 -0.998873 -0.838474 -0.683682 -0.530837 -0.372117 -0.195025 0 0 0.121674 0.235128 0.330597 0.393156 0.428616 0.434378 0.417525 0.371184 0.308008 0.244943 0.204427 0.18637 0.163454 0.0448226 -0.239413 -0.657223 -1.0775 -1.36939 -1.50003 -1.50031 -1.41131 -1.28999 -1.14848 -0.994298 -0.834794 -0.679322 -0.52784 -0.37251 -0.19855 0 0 0.10751 0.209201 0.303418 0.384611 0.454432 0.493412 0.509914 0.505032 0.49018 0.459857 0.43218 0.42267 0.428495 0.411224 0.266156 -0.0859917 -0.566805 -0.99375 -1.26001 -1.35849 -1.33891 -1.24958 -1.12844 -0.986158 -0.831343 -0.67499 -0.52384 -0.371814 -0.202338 0 0 0.0909379 0.179317 0.263189 0.341297 0.41163 0.470059 0.52086 0.55402 0.579085 0.587796 0.599062 0.612202 0.634137 0.655855 0.626192 0.436815 0.0224941 -0.495766 -0.909836 -1.14469 -1.21797 -1.18837 -1.09691 -0.972424 -0.827075 -0.671414 -0.519324 -0.369823 -0.206178 0 0 0.0753743 0.150582 0.220605 0.288959 0.351014 0.408542 0.462772 0.514988 0.568473 0.62289 0.681422 0.72872 0.780869 0.837002 0.862508 0.803925 0.557731 0.0915824 -0.436589 -0.823555 -1.02742 -1.08426 -1.04803 -0.950721 -0.819841 -0.669138 -0.515153 -0.366667 -0.209754 0 0 0.062533 0.124564 0.182077 0.239904 0.291892 0.341007 0.38895 0.440406 0.49849 0.569165 0.655185 0.753998 0.857083 0.939876 1.01684 1.03789 0.939436 0.633197 0.131832 -0.382634 -0.734828 -0.912943 -0.958585 -0.914716 -0.807769 -0.667436 -0.512489 -0.363006 -0.212687 0 0 0.0522272 0.100246 0.149603 0.195968 0.240273 0.282778 0.322796 0.366782 0.422657 0.494527 0.582273 0.690132 0.820228 0.96231 1.08524 1.16465 1.17066 1.03022 0.671088 0.156411 -0.328364 -0.646409 -0.803831 -0.839571 -0.784437 -0.664275 -0.512434 -0.360139 -0.214795 0 0 0.0427291 0.0784918 0.121113 0.158222 0.200991 0.238242 0.269916 0.307025 0.35773 0.42501 0.509543 0.611729 0.733315 0.882308 1.05006 1.19761 1.27023 1.25867 1.07936 0.682146 0.177358 -0.271481 -0.560642 -0.700449 -0.724474 -0.652782 -0.514892 -0.35954 -0.216332 0 0 0.0309768 0.0607639 0.0934728 0.129918 0.175058 0.205718 0.230867 0.263774 0.310844 0.373398 0.450344 0.541944 0.650695 0.779754 0.936891 1.11811 1.26858 1.33183 1.30447 1.09251 0.679923 0.20154 -0.213021 -0.479204 -0.601361 -0.609072 -0.514107 -0.362675 -0.217889 0 0 0.0181245 0.0459761 0.06672 0.113653 0.157626 0.181246 0.20314 0.235246 0.280833 0.339602 0.409661 0.490211 0.583004 0.691823 0.821671 0.980853 1.16221 1.30216 1.35505 1.31401 1.08144 0.674103 0.229506 -0.156454 -0.402449 -0.503497 -0.488242 -0.367435 -0.220296 0 0 0.00752632 0.0243412 0.0460163 0.105416 0.142504 0.161181 0.182852 0.216502 0.262578 0.319129 0.383676 0.45505 0.534078 0.623671 0.728319 0.854323 1.0097 1.18173 1.30662 1.3492 1.29785 1.05881 0.66976 0.256964 -0.10471 -0.328526 -0.403196 -0.357513 -0.222183 0 0 0.000693285 -0.00621807 0.0368785 0.097501 0.12656 0.142596 0.165634 0.201776 0.249378 0.30499 0.365644 0.430183 0.498961 0.573834 0.658135 0.756485 0.875533 1.02209 1.17951 1.29012 1.32389 1.26757 1.03381 0.667281 0.278646 -0.0585875 -0.252972 -0.295668 -0.214937 0 0 -0.00835512 -0.0364331 0.0361336 0.0813788 0.107756 0.123588 0.148635 0.187385 0.236488 0.291394 0.348951 0.40816 0.469451 0.534205 0.604489 0.683228 0.774785 0.885155 1.01941 1.16072 1.25966 1.28675 1.23056 1.00807 0.663613 0.290884 -0.0152225 -0.167745 -0.167168 0 0 -0.0374471 -0.0553061 0.0204053 0.0598342 0.0858641 0.103025 0.129907 0.17049 0.220084 0.273798 0.328642 0.38367 0.439287 0.496546 0.557074 0.62306 0.696971 0.782131 0.883559 1.00483 1.13043 1.21924 1.24141 1.18759 0.978833 0.652936 0.294206 0.0364602 -0.0592186 0 0 -0.0726455 -0.0616811 -0.00467463 0.037887 0.0605388 0.0774977 0.105736 0.146539 0.195195 0.246843 0.298775 0.350344 0.401904 0.45411 0.508125 0.565457 0.62796 0.698016 0.778468 0.872704 0.982144 1.09293 1.17203 1.18823 1.13455 0.937073 0.633209 0.287702 0.119496 0 0 -0.0989618 -0.10702 -0.0207561 0.0130121 0.0268208 0.0356509 0.0644081 0.103441 0.150352 0.199068 0.246989 0.294699 0.342677 0.391503 0.442027 0.495252 0.552307 0.614515 0.683566 0.761861 0.852541 0.956601 1.06144 1.13567 1.14433 1.07657 0.891031 0.634022 0.273067 0 0 -0.344831 -0.0930786 -0.0355951 -0.00264369 -0.00293709 -0.00187917 0.00628161 0.0297364 0.0600201 0.09359 0.129031 0.165501 0.203543 0.24409 0.288115 0.336618 0.390591 0.451088 0.519478 0.597778 0.688929 0.796866 0.924529 1.06601 1.18468 1.21434 1.12254 0.90878 0.729024 0 0 0 0 0 0 0 0 0 0 0 0 0 0 0 0 0 0 0 0 0 0 0 0 0 0 0 0 0 0 0 0
				</DataArray>
				<DataArray Name="VitesseY" type="Float32" format="ascii">
 0 0 0 0 0 0 0 0 0 0 0 0 0 0 0 0 0 0 0 0 0 0 0 0 0 0 0 0 0 0 0 -0.301034 -0.20437 -0.314766 -0.393511 -0.436979 -0.405199 -0.273123 -0.145885 -0.0503634 0.0179774 0.0697292 0.106626 0.125602 0.124157 0.108357 0.0912334 0.0752458 0.0618519 0.0513701 0.0437825 0.0387435 0.0356438 0.033735 0.0322953 0.0308585 0.0289879 0.0263838 0.0227955 0.0170951 0.00717646 0 -0.567706 -0.451358 -0.572619 -0.714362 -0.791854 -0.763976 -0.570382 -0.339283 -0.150726 -0.00531302 0.106186 0.186291 0.230666 0.238347 0.212158 0.180589 0.150128 0.124041 0.103349 0.0882024 0.0780722 0.0718271 0.0679898 0.0651184 0.0622782 0.0586587 0.0535501 0.0462747 0.0345088 0.0139851 0 -0.691669 -0.646648 -0.801647 -0.971025 -1.07331 -1.0703 -0.885111 -0.595004 -0.327811 -0.0990367 0.0844255 0.219901 0.30332 0.333433 0.307648 0.26659 0.224205 0.186718 0.156408 0.133904 0.118649 0.109156 0.10332 0.0990053 0.0947788 0.0894305 0.0818574 0.0709775 0.0530299 0.0212553 0 -0.743359 -0.763437 -0.985934 -1.18736 -1.3072 -1.33555 -1.18368 -0.880328 -0.557485 -0.256658 0.000988452 0.199444 0.331223 0.393425 0.392473 0.349301 0.297812 0.250461 0.211353 0.181662 0.161165 0.148214 0.14022 0.134372 0.128698 0.121601 0.111591 0.0971497 0.0731537 0.0296642 0 -0.760703 -0.838343 -1.12623 -1.3651 -1.50553 -1.56106 -1.45191 -1.16801 -0.805875 -0.453756 -0.135669 0.128023 0.317182 0.426127 0.462439 0.427143 0.371178 0.316341 0.269135 0.2324 0.206415 0.18964 0.179167 0.17158 0.16432 0.155412 0.142978 0.125059 0.0953389 0.0397996 0 -0.818594 -0.916027 -1.23701 -1.50053 -1.65623 -1.72975 -1.67205 -1.4313 -1.05963 -0.66948 -0.30413 0.0142389 0.263141 0.423836 0.499017 0.498611 0.445962 0.385366 0.330822 0.287102 0.255191 0.234036 0.220607 0.210956 0.201889 0.191065 0.176197 0.154903 0.119826 0.0520208 0 -0.98017 -1.06534 -1.34736 -1.60572 -1.75159 -1.82507 -1.80909 -1.6325 -1.29341 -0.884812 -0.485342 -0.12792 0.172384 0.392938 0.517459 0.559122 0.520612 0.458035 0.397769 0.346751 0.308294 0.281907 0.264795 0.252612 0.24144 0.228547 0.21124 0.186674 0.146558 0.066478 0 -1.25516 -1.31145 -1.50773 -1.7112 -1.82303 -1.86585 -1.85112 -1.73007 -1.46438 -1.07279 -0.660178 -0.277668 0.0586336 0.329006 0.508561 0.592652 0.593151 0.536668 0.470791 0.412621 0.366683 0.333903 0.312016 0.296566 0.28287 0.267714 0.247957 0.220238 0.17537 0.0832768 0 -1.60624 -1.63411 -1.73818 -1.85357 -1.90807 -1.90045 -1.84722 -1.74109 -1.53062 -1.20314 -0.80242 -0.409799 -0.0609429 0.243471 0.477931 0.613319 0.657102 0.618395 0.551511 0.48611 0.431645 0.390976 0.362855 0.343063 0.326215 0.308475 0.286236 0.255511 0.206152 0.102641 0 -1.98761 -1.99242 -2.02414 -2.04676 -2.03102 -1.96451 -1.86196 -1.72687 -1.53328 -1.25447 -0.892928 -0.508045 -0.154492 0.156944 0.424256 0.613475 0.706167 0.703477 0.641403 0.569145 0.505016 0.454616 0.418356 0.392707 0.371838 0.350967 0.326114 0.292558 0.23903 0.124824 0 -2.33588 -2.32776 -2.31529 -2.27856 -2.19968 -2.07572 -1.92227 -1.74716 -1.54067 -1.27233 -0.941509 -0.571149 -0.213108 0.0977649 0.372257 0.598773 0.739068 0.784433 0.739086 0.664356 0.589351 0.52707 0.480243 0.446633 0.420449 0.395633 0.367817 0.331565 0.274378 0.150048 0 -2.59744 -2.58374 -2.55015 -2.48465 -2.37981 -2.2344 -2.04697 -1.82936 -1.59425 -1.3266 -1.00061 -0.630789 -0.256703 0.0686807 0.342882 0.584965 0.76459 0.8617 0.849161 0.772422 0.688228 0.61145 0.551056 0.506687 0.473166 0.443234 0.411787 0.372779 0.312484 0.178736 0 -2.73888 -2.72443 -2.68603 -2.61762 -2.51865 -2.38377 -2.20242 -1.98594 -1.7312 -1.44185 -1.11772 -0.747938 -0.347551 0.031544 0.332524 0.57805 0.788093 0.917121 0.962849 0.900173 0.804237 0.711919 0.634233 0.575435 0.531633 0.494938 0.458704 0.416504 0.353572 0.211403 0 -2.73013 -2.72153 -2.70075 -2.66102 -2.58938 -2.47247 -2.32647 -2.14801 -1.91933 -1.64663 -1.32214 -0.950307 -0.539482 -0.107512 0.28046 0.572675 0.798136 0.972177 1.06092 1.04607 0.944402 0.83271 0.734239 0.656324 0.598244 0.552223 0.509515 0.463205 0.397838 0.248521 0 -2.62105 -2.61561 -2.60331 -2.58077 -2.542 -2.4834 -2.38989 -2.24574 -2.07359 -1.85814 -1.58715 -1.2523 -0.845693 -0.392966 0.0753442 0.481674 0.779969 0.993149 1.13109 1.17946 1.11205 0.981446 0.85652 0.753924 0.676207 0.616965 0.565542 0.513607 0.445562 0.290517 0 -2.45762 -2.45282 -2.44156 -2.42493 -2.40373 -2.37509 -2.32955 -2.26273 -2.15459 -1.99616 -1.80349 -1.54919 -1.22278 -0.806093 -0.319255 0.19272 0.626956 0.944186 1.14832 1.25423 1.26218 1.15975 1.00923 0.874395 0.769873 0.691817 0.628492 0.568704 0.497175 0.337891 0 -2.28243 -2.27674 -2.2626 -2.24512 -2.22546 -2.2014 -2.17654 -2.14905 -2.10692 -2.04033 -1.91875 -1.74912 -1.52323 -1.21705 -0.808449 -0.304052 0.246458 0.714866 1.05689 1.25661 1.33408 1.30907 1.18735 1.0254 0.885494 0.780745 0.700443 0.629903 0.553347 0.391265 0 -2.10233 -2.09384 -2.0771 -2.05681 -2.03318 -2.01107 -1.99235 -1.97484 -1.95961 -1.93953 -1.90314 -1.82707 -1.68718 -1.48955 -1.20887 -0.821127 -0.319415 0.252359 0.752404 1.11912 1.31928 1.37223 1.32554 1.19487 1.02946 0.889327 0.784388 0.699222 0.615088 0.451449 0 -1.91956 -1.90856 -1.88855 -1.86314 -1.83672 -1.81706 -1.80066 -1.79044 -1.78659 -1.78455 -1.77778 -1.75567 -1.70582 -1.59961 -1.42974 -1.17885 -0.816925 -0.334818 0.233182 0.751777 1.13919 1.34252 1.37795 1.31852 1.18533 1.02232 0.885065 0.779223 0.683893 0.519677 0 -1.73483 -1.72185 -1.69648 -1.66652 -1.64226 -1.62413 -1.61137 -1.60879 -1.61512 -1.6246 -1.62897 -1.62484 -1.6056 -1.56231 -1.4788 -1.33428 -1.11462 -0.784062 -0.333239 0.2118 0.729636 1.12755 1.33506 1.36062 1.29531 1.16288 1.00582 0.873176 0.762054 0.597888 0 -1.54913 -1.5338 -1.50105 -1.4725 -1.45176 -1.43554 -1.42831 -1.43386 -1.44815 -1.46439 -1.47597 -1.47938 -1.47309 -1.45197 -1.41044 -1.34021 -1.21699 -1.02271 -0.723519 -0.308781 0.203512 0.70382 1.09904 1.30792 1.32877 1.26156 1.13109 0.982431 0.852658 0.688991 0 -1.36314 -1.34255 -1.3064 -1.28446 -1.26741 -1.2552 -1.25601 -1.26873 -1.2872 -1.30503 -1.31902 -1.32629 -1.32608 -1.31697 -1.29522 -1.25715 -1.19707 -1.09141 -0.917083 -0.646026 -0.265443 0.212181 0.684384 1.06634 1.27166 1.2885 1.21981 1.0931 0.956669 0.796901 0 -1.17623 -1.14543 -1.11671 -1.10286 -1.09144 -1.08787 -1.09659 -1.11395 -1.13278 -1.14859 -1.16021 -1.16727 -1.1694 -1.16658 -1.15647 -1.13712 -1.10568 -1.05656 -0.965867 -0.808807 -0.562684 -0.211749 0.233246 0.67356 1.03653 1.23194 1.2419 1.17216 1.06148 0.924549 0 -0.986482 -0.94421 -0.936255 -0.928406 -0.926015 -0.933884 -0.949337 -0.968305 -0.985163 -0.997398 -1.00482 -1.00828 -1.0086 -1.00694 -1.00275 -0.994212 -0.979717 -0.957175 -0.920402 -0.844307 -0.703682 -0.480788 -0.156409 0.258069 0.668464 1.00889 1.18797 1.18833 1.13569 1.06602 0 -0.785533 -0.743958 -0.762212 -0.75923 -0.771854 -0.789934 -0.809481 -0.827868 -0.841344 -0.849569 -0.853141 -0.853205 -0.850966 -0.847054 -0.842518 -0.837909 -0.832455 -0.824178 -0.811213 -0.787248 -0.726787 -0.602912 -0.403228 -0.104838 0.278906 0.663921 0.979035 1.13463 1.14435 1.18468 0 -0.561526 -0.546901 -0.589047 -0.594269 -0.626581 -0.648481 -0.668937 -0.685278 -0.695549 -0.700799 -0.701922 -0.700495 -0.696812 -0.691732 -0.685921 -0.680124 -0.675217 -0.671952 -0.669461 -0.665723 -0.653866 -0.609953 -0.504095 -0.328825 -0.0586647 0.290924 0.653002 0.93711 1.07658 1.21434 0 -0.315112 -0.343423 -0.41642 -0.436623 -0.484432 -0.499672 -0.518833 -0.532499 -0.539969 -0.543832 -0.544923 -0.543945 -0.541379 -0.537606 -0.532863 -0.527451 -0.521874 -0.516921 -0.513669 -0.513217 -0.51539 -0.514477 -0.488507 -0.403374 -0.253063 -0.0152519 0.294204 0.633217 0.891035 1.12253 0 -0.0386016 -0.116433 -0.264095 -0.289595 -0.325826 -0.340559 -0.358485 -0.369537 -0.374777 -0.377868 -0.378883 -0.378925 -0.378414 -0.377511 -0.376181 -0.374192 -0.371333 -0.367628 -0.363632 -0.360535 -0.359791 -0.362819 -0.367527 -0.357578 -0.295709 -0.167767 0.0364515 0.287698 0.634021 0.908777 0 0.591459 0.0221699 -0.200388 -0.129168 -0.16843 -0.171416 -0.190299 -0.190098 -0.196822 -0.197322 -0.196977 -0.196775 -0.197189 -0.198486 -0.200707 -0.203622 -0.206923 -0.210187 -0.212948 -0.214949 -0.216422 -0.21794 -0.220324 -0.2222 -0.214948 -0.167174 -0.0592235 0.119493 0.273065 0.729023 0 5.19393 0 0 0 0 0 0 0 0 0 0 0 0 0 0 0 0 0 0 0 0 0 0 0 0 0 0 0 0 0 0
				</DataArray>
			</PointData>
			<CellData Scalars="Density">
				<DataArray Name="Density" type="Float32" format="ascii">