<?xml version="1.0"?>
<VTKFile type="PolyData">
	<PolyData>
		<Piece NumberOfPoints="961" NumberOfPolys="900">
			<Points>
				<DataArray type="Float32" NumberOfComponents="3" format="ascii">
 0 0 0 0.04 0 0 0.08 0 0 0.12 0 0 0.16 0 0 0.2 0 0 0.24 0 0 0.28 0 0 0.32 0 0 0.36 0 0 0.4 0 0 0.44 0 0 0.48 0 0 0.52 0 0 0.56 0 0 0.6 0 0 0.64 0 0 0.68 0 0 0.72 0 0 0.76 0 0 0.8 0 0 0.84 0 0 0.88 0 0 0.92 0 0 0.96 0 0 1 0 0 1.04 0 0 1.08 0 0 1.12 0 0 1.16 0 0 1.2 0 0 0 0.04 0 0.04 0.04 0 0.08 0.04 0 0.12 0.04 0 0.16 0.04 0 0.2 0.04 0 0.24 0.04 0 0.28 0.04 0 0.32 0.04 0 0.36 0.04 0 0.4 0.04 0 0.44 0.04 0 0.48 0.04 0 0.52 0.04 0 0.56 0.04 0 0.6 0.04 0 0.64 0.04 0 0.68 0.04 0 0.72 0.04 0 0.76 0.04 0 0.8 0.04 0 0.84 0.04 0 0.88 0.04 0 0.92 0.04 0 0.96 0.04 0 1 0.04 0 1.04 0.04 0 1.08 0.04 0 1.12 0.04 0 1.16 0.04 0 1.2 0.04 0 0 0.08 0 0.04 0.08 0 0.08 0.08 0 0.12 0.08 0 0.16 0.08 0 0.2 0.08 0 0.24 0.08 0 0.28 0.08 0 0.32 0.08 0 0.36 0.08 0 0.4 0.08 0 0.44 0.08 0 0.48 0.08 0 0.52 0.08 0 0.56 0.08 0 0.6 0.08 0 0.64 0.08 0 0.68 0.08 0 0.72 0.08 0 0.76 0.08 0 0.8 0.08 0 0.84 0.08 0 0.88 0.08 0 0.92 0.08 0 0.96 0.08 0 1 0.08 0 1.04 0.08 0 1.08 0.08 0 1.12 0.08 0 1.16 0.08 0 1.2 0.08 0 0 0.12 0 0.04 0.12 0 0.08 0.12 0 0.12 0.12 0 0.16 0.12 0 0.2 0.12 0 0.24 0.12 0 0.28 0.12 0 0.32 0.12 0 0.36 0.12 0 0.4 0.12 0 0.44 0.12 0 0.48 0.12 0 0.52 0.12 0 0.56 0.12 0 0.6 0.12 0 0.64 0.12 0 0.68 0.12 0 0.72 0.12 0 0.76 0.12 0 0.8 0.12 0 0.84 0.12 0 0.88 0.12 0 0.92 0.12 0 0.96 0.12 0 1 0.12 0 1.04 0.12 0 1.08 0.12 0 1.12 0.12 0 1.16 0.12 0 1.2 0.12 0 0 0.16 0 0.04 0.16 0 0.08 0.16 0 0.12 0.16 0 0.16 0.16 0 0.2 0.16 0 0.24 0.16 0 0.28 0.16 0 0.32 0.16 0 0.36 0.16 0 0.4 0.16 0 0.44 0.16 0 0.48 0.16 0 0.52 0.16 0 0.56 0.16 0 0.6 0.16 0 0.64 0.16 0 0.68 0.16 0 0.72 0.16 0 0.76 0.16 0 0.8 0.16 0 0.84 0.16 0 0.88 0.16 0 0.92 0.16 0 0.96 0.16 0 1 0.16 0 1.04 0.16 0 1.08 0.16 0 1.12 0.16 0 1.16 0.16 0 1.2 0.16 0 0 0.2 0 0.04 0.2 0 0.08 0.2 0 0.12 0.2 0 0.16 0.2 0 0.2 0.2 0 0.24 0.2 0 0.28 0.2 0 0.32 0.2 0 0.36 0.2 0 0.4 0.2 0 0.44 0.2 0 0.48 0.2 0 0.52 0.2 0 0.56 0.2 0 0.6 0.2 0 0.64 0.2 0 0.68 0.2 0 0.72 0.2 0 0.76 0.2 0 0.8 0.2 0 0.84 0.2 0 0.88 0.2 0 0.92 0.2 0 0.96 0.2 0 1 0.2 0 1.04 0.2 0 1.08 0.2 0 1.12 0.2 0 1.16 0.2 0 1.2 0.2 0 0 0.24 0 0.04 0.24 0 0.08 0.24 0 0.12 0.24 0 0.16 0.24 0 0.2 0.24 0 0.24 0.24 0 0.28 0.24 0 0.32 0.24 0 0.36 0.24 0 0.4 0.24 0 0.44 0.24 0 0.48 0.24 0 0.52 0.24 0 0.56 0.24 0 0.6 0.24 0 0.64 0.24 0 0.68 0.24 0 0.72 0.24 0 0.76 0.24 0 0.8 0.24 0 0.84 0.24 0 0.88 0.24 0 0.92 0.24 0 0.96 0.24 0 1 0.24 0 1.04 0.24 0 1.08 0.24 0 1.12 0.24 0 1.16 0.24 0 1.2 0.24 0 0 0.28 0 0.04 0.28 0 0.08 0.28 0 0.12 0.28 0 0.16 0.28 0 0.2 0.28 0 0.24 0.28 0 0.28 0.28 0 0.32 0.28 0 0.36 0.28 0 0.4 0.28 0 0.44 0.28 0 0.48 0.28 0 0.52 0.28 0 0.56 0.28 0 0.6 0.28 0 0.64 0.28 0 0.68 0.28 0 0.72 0.28 0 0.76 0.28 0 0.8 0.28 0 0.84 0.28 0 0.88 0.28 0 0.92 0.28 0 0.96 0.28 0 1 0.28 0 1.04 0.28 0 1.08 0.28 0 1.12 0.28 0 1.16 0.28 0 1.2 0.28 0 0 0.32 0 0.04 0.32 0 0.08 0.32 0 0.12 0.32 0 0.16 0.32 0 0.2 0.32 0 0.24 0.32 0 0.28 0.32 0 0.32 0.32 0 0.36 0.32 0 0.4 0.32 0 0.44 0.32 0 0.48 0.32 0 0.52 0.32 0 0.56 0.32 0 0.6 0.32 0 0.64 0.32 0 0.68 0.32 0 0.72 0.32 0 0.76 0.32 0 0.8 0.32 0 0.84 0.32 0 0.88 0.32 0 0.92 0.32 0 0.96 0.32 0 1 0.32 0 1.04 0.32 0 1.08 0.32 0 1.12 0.32 0 1.16 0.32 0 1.2 0.32 0 0 0.36 0 0.04 0.36 0 0.08 0.36 0 0.12 0.36 0 0.16 0.36 0 0.2 0.36 0 0.24 0.36 0 0.28 0.36 0 0.32 0.36 0 0.36 0.36 0 0.4 0.36 0 0.44 0.36 0 0.48 0.36 0 0.52 0.36 0 0.56 0.36 0 0.6 0.36 0 0.64 0.36 0 0.68 0.36 0 0.72 0.36 0 0.76 0.36 0 0.8 0.36 0 0.84 0.36 0 0.88 0.36 0 0.92 0.36 0 0.96 0.36 0 1 0.36 0 1.04 0.36 0 1.08 0.36 0 1.12 0.36 0 1.16 0.36 0 1.2 0.36 0 0 0.4 0 0.04 0.4 0 0.08 0.4 0 0.12 0.4 0 0.16 0.4 0 0.2 0.4 0 0.24 0.4 0 0.28 0.4 0 0.32 0.4 0 0.36 0.4 0 0.4 0.4 0 0.44 0.4 0 0.48 0.4 0 0.52 0.4 0 0.56 0.4 0 0.6 0.4 0 0.64 0.4 0 0.68 0.4 0 0.72 0.4 0 0.76 0.4 0 0.8 0.4 0 0.84 0.4 0 0.88 0.4 0 0.92 0.4 0 0.96 0.4 0 1 0.4 0 1.04 0.4 0 1.08 0.4 0 1.12 0.4 0 1.16 0.4 0 1.2 0.4 0 0 0.44 0 0.04 0.44 0 0.08 0.44 0 0.12 0.44 0 0.16 0.44 0 0.2 0.44 0 0.24 0.44 0 0.28 0.44 0 0.32 0.44 0 0.36 0.44 0 0.4 0.44 0 0.44 0.44 0 0.48 0.44 0 0.52 0.44 0 0.56 0.44 0 0.6 0.44 0 0.64 0.44 0 0.68 0.44 0 0.72 0.44 0 0.76 0.44 0 0.8 0.44 0 0.84 0.44 0 0.88 0.44 0 0.92 0.44 0 0.96 0.44 0 1 0.44 0 1.04 0.44 0 1.08 0.44 0 1.12 0.44 0 1.16 0.44 0 1.2 0.44 0 0 0.48 0 0.04 0.48 0 0.08 0.48 0 0.12 0.48 0 0.16 0.48 0 0.2 0.48 0 0.24 0.48 0 0.28 0.48 0 0.32 0.48 0 0.36 0.48 0 0.4 0.48 0 0.44 0.48 0 0.48 0.48 0 0.52 0.48 0 0.56 0.48 0 0.6 0.48 0 0.64 0.48 0 0.68 0.48 0 0.72 0.48 0 0.76 0.48 0 0.8 0.48 0 0.84 0.48 0 0.88 0.48 0 0.92 0.48 0 0.96 0.48 0 1 0.48 0 1.04 0.48 0 1.08 0.48 0 1.12 0.48 0 1.16 0.48 0 1.2 0.48 0 0 0.52 0 0.04 0.52 0 0.08 0.52 0 0.12 0.52 0 0.16 0.52 0 0.2 0.52 0 0.24 0.52 0 0.28 0.52 0 0.32 0.52 0 0.36 0.52 0 0.4 0.52 0 0.44 0.52 0 0.48 0.52 0 0.52 0.52 0 0.56 0.52 0 0.6 0.52 0 0.64 0.52 0 0.68 0.52 0 0.72 0.52 0 0.76 0.52 0 0.8 0.52 0 0.84 0.52 0 0.88 0.52 0 0.92 0.52 0 0.96 0.52 0 1 0.52 0 1.04 0.52 0 1.08 0.52 0 1.12 0.52 0 1.16 0.52 0 1.2 0.52 0 0 0.56 0 0.04 0.56 0 0.08 0.56 0 0.12 0.56 0 0.16 0.56 0 0.2 0.56 0 0.24 0.56 0 0.28 0.56 0 0.32 0.56 0 0.36 0.56 0 0.4 0.56 0 0.44 0.56 0 0.48 0.56 0 0.52 0.56 0 0.56 0.56 0 0.6 0.56 0 0.64 0.56 0 0.68 0.56 0 0.72 0.56 0 0.76 0.56 0 0.8 0.56 0 0.84 0.56 0 0.88 0.56 0 0.92 0.56 0 0.96 0.56 0 1 0.56 0 1.04 0.56 0 1.08 0.56 0 1.12 0.56 0 1.16 0.56 0 1.2 0.56 0 0 0.6 0 0.04 0.6 0 0.08 0.6 0 0.12 0.6 0 0.16 0.6 0 0.2 0.6 0 0.24 0.6 0 0.28 0.6 0 0.32 0.6 0 0.36 0.6 0 0.4 0.6 0 0.44 0.6 0 0.48 0.6 0 0.52 0.6 0 0.56 0.6 0 0.6 0.6 0 0.64 0.6 0 0.68 0.6 0 0.72 0.6 0 0.76 0.6 0 0.8 0.6 0 0.84 0.6 0 0.88 0.6 0 0.92 0.6 0 0.96 0.6 0 1 0.6 0 1.04 0.6 0 1.08 0.6 0 1.12 0.6 0 1.16 0.6 0 1.2 0.6 0 0 0.64 0 0.04 0.64 0 0.08 0.64 0 0.12 0.64 0 0.16 0.64 0 0.2 0.64 0 0.24 0.64 0 0.28 0.64 0 0.32 0.64 0 0.36 0.64 0 0.4 0.64 0 0.44 0.64 0 0.48 0.64 0 0.52 0.64 0 0.56 0.64 0 0.6 0.64 0 0.64 0.64 0 0.68 0.64 0 0.72 0.64 0 0.76 0.64 0 0.8 0.64 0 0.84 0.64 0 0.88 0.64 0 0.92 0.64 0 0.96 0.64 0 1 0.64 0 1.04 0.64 0 1.08 0.64 0 1.12 0.64 0 1.16 0.64 0 1.2 0.64 0 0 0.68 0 0.04 0.68 0 0.08 0.68 0 0.12 0.68 0 0.16 0.68 0 0.2 0.68 0 0.24 0.68 0 0.28 0.68 0 0.32 0.68 0 0.36 0.68 0 0.4 0.68 0 0.44 0.68 0 0.48 0.68 0 0.52 0.68 0 0.56 0.68 0 0.6 0.68 0 0.64 0.68 0 0.68 0.68 0 0.72 0.68 0 0.76 0.68 0 0.8 0.68 0 0.84 0.68 0 0.88 0.68 0 0.92 0.68 0 0.96 0.68 0 1 0.68 0 1.04 0.68 0 1.08 0.68 0 1.12 0.68 0 1.16 0.68 0 1.2 0.68 0 0 0.72 0 0.04 0.72 0 0.08 0.72 0 0.12 0.72 0 0.16 0.72 0 0.2 0.72 0 0.24 0.72 0 0.28 0.72 0 0.32 0.72 0 0.36 0.72 0 0.4 0.72 0 0.44 0.72 0 0.48 0.72 0 0.52 0.72 0 0.56 0.72 0 0.6 0.72 0 0.64 0.72 0 0.68 0.72 0 0.72 0.72 0 0.76 0.72 0 0.8 0.72 0 0.84 0.72 0 0.88 0.72 0 0.92 0.72 0 0.96 0.72 0 1 0.72 0 1.04 0.72 0 1.08 0.72 0 1.12 0.72 0 1.16 0.72 0 1.2 0.72 0 0 0.76 0 0.04 0.76 0 0.08 0.76 0 0.12 0.76 0 0.16 0.76 0 0.2 0.76 0 0.24 0.76 0 0.28 0.76 0 0.32 0.76 0 0.36 0.76 0 0.4 0.76 0 0.44 0.76 0 0.48 0.76 0 0.52 0.76 0 0.56 0.76 0 0.6 0.76 0 0.64 0.76 0 0.68 0.76 0 0.72 0.76 0 0.76 0.76 0 0.8 0.76 0 0.84 0.76 0 0.88 0.76 0 0.92 0.76 0 0.96 0.76 0 1 0.76 0 1.04 0.76 0 1.08 0.76 0 1.12 0.76 0 1.16 0.76 0 1.2 0.76 0 0 0.8 0 0.04 0.8 0 0.08 0.8 0 0.12 0.8 0 0.16 0.8 0 0.2 0.8 0 0.24 0.8 0 0.28 0.8 0 0.32 0.8 0 0.36 0.8 0 0.4 0.8 0 0.44 0.8 0 0.48 0.8 0 0.52 0.8 0 0.56 0.8 0 0.6 0.8 0 0.64 0.8 0 0.68 0.8 0 0.72 0.8 0 0.76 0.8 0 0.8 0.8 0 0.84 0.8 0 0.88 0.8 0 0.92 0.8 0 0.96 0.8 0 1 0.8 0 1.04 0.8 0 1.08 0.8 0 1.12 0.8 0 1.16 0.8 0 1.2 0.8 0 0 0.84 0 0.04 0.84 0 0.08 0.84 0 0.12 0.84 0 0.16 0.84 0 0.2 0.84 0 0.24 0.84 0 0.28 0.84 0 0.32 0.84 0 0.36 0.84 0 0.4 0.84 0 0.44 0.84 0 0.48 0.84 0 0.52 0.84 0 0.56 0.84 0 0.6 0.84 0 0.64 0.84 0 0.68 0.84 0 0.72 0.84 0 0.76 0.84 0 0.8 0.84 0 0.84 0.84 0 0.88 0.84 0 0.92 0.84 0 0.96 0.84 0 1 0.84 0 1.04 0.84 0 1.08 0.84 0 1.12 0.84 0 1.16 0.84 0 1.2 0.84 0 0 0.88 0 0.04 0.88 0 0.08 0.88 0 0.12 0.88 0 0.16 0.88 0 0.2 0.88 0 0.24 0.88 0 0.28 0.88 0 0.32 0.88 0 0.36 0.88 0 0.4 0.88 0 0.44 0.88 0 0.48 0.88 0 0.52 0.88 0 0.56 0.88 0 0.6 0.88 0 0.64 0.88 0 0.68 0.88 0 0.72 0.88 0 0.76 0.88 0 0.8 0.88 0 0.84 0.88 0 0.88 0.88 0 0.92 0.88 0 0.96 0.88 0 1 0.88 0 1.04 0.88 0 1.08 0.88 0 1.12 0.88 0 1.16 0.88 0 1.2 0.88 0 0 0.92 0 0.04 0.92 0 0.08 0.92 0 0.12 0.92 0 0.16 0.92 0 0.2 0.92 0 0.24 0.92 0 0.28 0.92 0 0.32 0.92 0 0.36 0.92 0 0.4 0.92 0 0.44 0.92 0 0.48 0.92 0 0.52 0.92 0 0.56 0.92 0 0.6 0.92 0 0.64 0.92 0 0.68 0.92 0 0.72 0.92 0 0.76 0.92 0 0.8 0.92 0 0.84 0.92 0 0.88 0.92 0 0.92 0.92 0 0.96 0.92 0 1 0.92 0 1.04 0.92 0 1.08 0.92 0 1.12 0.92 0 1.16 0.92 0 1.2 0.92 0 0 0.96 0 0.04 0.96 0 0.08 0.96 0 0.12 0.96 0 0.16 0.96 0 0.2 0.96 0 0.24 0.96 0 0.28 0.96 0 0.32 0.96 0 0.36 0.96 0 0.4 0.96 0 0.44 0.96 0 0.48 0.96 0 0.52 0.96 0 0.56 0.96 0 0.6 0.96 0 0.64 0.96 0 0.68 0.96 0 0.72 0.96 0 0.76 0.96 0 0.8 0.96 0 0.84 0.96 0 0.88 0.96 0 0.92 0.96 0 0.96 0.96 0 1 0.96 0 1.04 0.96 0 1.08 0.96 0 1.12 0.96 0 1.16 0.96 0 1.2 0.96 0 0 1 0 0.04 1 0 0.08 1 0 0.12 1 0 0.16 1 0 0.2 1 0 0.24 1 0 0.28 1 0 0.32 1 0 0.36 1 0 0.4 1 0 0.44 1 0 0.48 1 0 0.52 1 0 0.56 1 0 0.6 1 0 0.64 1 0 0.68 1 0 0.72 1 0 0.76 1 0 0.8 1 0 0.84 1 0 0.88 1 0 0.92 1 0 0.96 1 0 1 1 0 1.04 1 0 1.08 1 0 1.12 1 0 1.16 1 0 1.2 1 0 0 1.04 0 0.04 1.04 0 0.08 1.04 0 0.12 1.04 0 0.16 1.04 0 0.2 1.04 0 0.24 1.04 0 0.28 1.04 0 0.32 1.04 0 0.36 1.04 0 0.4 1.04 0 0.44 1.04 0 0.48 1.04 0 0.52 1.04 0 0.56 1.04 0 0.6 1.04 0 0.64 1.04 0 0.68 1.04 0 0.72 1.04 0 0.76 1.04 0 0.8 1.04 0 0.84 1.04 0 0.88 1.04 0 0.92 1.04 0 0.96 1.04 0 1 1.04 0 1.04 1.04 0 1.08 1.04 0 1.12 1.04 0 1.16 1.04 0 1.2 1.04 0 0 1.08 0 0.04 1.08 0 0.08 1.08 0 0.12 1.08 0 0.16 1.08 0 0.2 1.08 0 0.24 1.08 0 0.28 1.08 0 0.32 1.08 0 0.36 1.08 0 0.4 1.08 0 0.44 1.08 0 0.48 1.08 0 0.52 1.08 0 0.56 1.08 0 0.6 1.08 0 0.64 1.08 0 0.68 1.08 0 0.72 1.08 0 0.76 1.08 0 0.8 1.08 0 0.84 1.08 0 0.88 1.08 0 0.92 1.08 0 0.96 1.08 0 1 1.08 0 1.04 1.08 0 1.08 1.08 0 1.12 1.08 0 1.16 1.08 0 1.2 1.08 0 0 1.12 0 
[...]
			<PointData Scalars="VitesseX">
				<DataArray Name="VitesseX" type="Float32" format="ascii">
 0 -0.0540553 -0.0913232 -0.0181727 0.122945 0.27518 0.375994 0.407596 0.377231 0.33648 0.29936 0.278515 0.284751 0.313352 0.35721 0.40804 0.459856 0.512511 0.556164 0.607492 0.618839 0.499178 0.117298 -0.333803 -0.520479 -0.466906 -0.375448 -0.283189 -0.189069 -0.0935652 0 0 0.0613144 0.0629014 0.103099 0.185213 0.277833 0.350758 0.353308 0.315815 0.27578 0.253404 0.250312 0.265234 0.299693 0.348291 0.401836 0.455955 0.510067 0.554123 0.60524 0.61673 0.498627 0.119591 -0.3313 -0.519792 -0.467556 -0.376045 -0.28366 -0.189321 -0.0936455 0 0 -0.00678342 -0.00471122 -0.0094007 -0.00358579 0.0207542 0.0495976 0.083907 0.112533 0.130118 0.145562 0.170712 0.20954 0.261183 0.32123 0.383261 0.443168 0.500793 0.546562 0.597797 0.610409 0.497596 0.12758 -0.322232 -0.516082 -0.468094 -0.376504 -0.284065 -0.189595 -0.0937695 0 0 -0.0865577 -0.131907 -0.144131 -0.152223 -0.161078 -0.155166 -0.121848 -0.0686223 -0.0184349 0.0294519 0.0821239 0.141613 0.206734 0.276572 0.347414 0.415365 0.478292 0.528088 0.581386 0.597509 0.494368 0.140701 -0.305958 -0.508592 -0.46867 -0.376986 -0.284598 -0.190043 -0.0940401 0 0 -0.124433 -0.18496 -0.206703 -0.222286 -0.23683 -0.238348 -0.208254 -0.157467 -0.0986991 -0.0417218 0.0176358 0.0809996 0.147013 0.218253 0.293717 0.36786 0.436347 0.49271 0.550657 0.573766 0.485451 0.157321 -0.281211 -0.495467 -0.469306 -0.377622 -0.28536 -0.190711 -0.0944844 0 0 -0.118305 -0.187503 -0.21896 -0.23274 -0.241144 -0.241946 -0.225097 -0.187195 -0.138297 -0.0811535 -0.0231109 0.0353703 0.0963935 0.160578 0.230747 0.30519 0.376762 0.439877 0.502622 0.535314 0.466713 0.175346 -0.245817 -0.47318 -0.469562 -0.378364 -0.286271 -0.191508 -0.0949844 0 0 -0.0864002 -0.146997 -0.17349 -0.174086 -0.171108 -0.176663 -0.180365 -0.171604 -0.140055 -0.0945518 -0.0448572 0.00653577 0.0583578 0.112729 0.173033 0.239771 0.307619 0.374154 0.437732 0.479458 0.434123 0.191461 -0.19674 -0.437392 -0.466332 -0.379087 -0.287247 -0.192372 -0.0954785 0 0 -0.0231532 -0.0420955 -0.0569474 -0.0643523 -0.0715807 -0.0776841 -0.0905719 -0.104812 -0.106088 -0.0836176 -0.0480876 -0.00856817 0.0327186 0.0756832 0.123994 0.179557 0.240622 0.303704 0.361112 0.406328 0.384374 0.201504 -0.133537 -0.383357 -0.451509 -0.379306 -0.288214 -0.193301 -0.0959825 0 0 0.0538005 0.0814524 0.0651036 0.034824 0.00789668 -0.00622617 -0.0159019 -0.0322856 -0.0479695 -0.0520604 -0.0389584 -0.0146823 0.0145682 0.0473654 0.082957 0.126602 0.179203 0.235248 0.283929 0.32139 0.316132 0.198459 -0.0602108 -0.305431 -0.411931 -0.37689 -0.288951 -0.194328 -0.0965887 0 0 0.0718539 0.119295 0.117826 0.0889459 0.0545876 0.0265666 0.0163918 0.0108121 -0.00589997 -0.0234857 -0.0284447 -0.0198959 -0.00118523 0.0217516 0.0473552 0.0798896 0.122264 0.16815 0.210453 0.234979 0.233774 0.175324 0.0110171 -0.202044 -0.336934 -0.359497 -0.288091 -0.195347 -0.0973564 0 0 0.0691982 0.113355 0.113738 0.0880034 0.0545118 0.023425 0.00142144 -0.00511917 -0.00762901 -0.0191903 -0.033744 -0.0388558 -0.030423 -0.0125955 0.0107905 0.0361812 0.0666686 0.102011 0.13716 0.152866 0.146793 0.12877 0.0607626 -0.0829939 -0.227854 -0.302094 -0.278949 -0.19541 -0.0981527 0 0 0.0559562 0.0867251 0.0843088 0.0564521 0.0200596 -0.0156618 -0.0435465 -0.0592861 -0.0622198 -0.0637072 -0.0716503 -0.0807698 -0.0820406 -0.0688574 -0.0434587 -0.0158528 0.00802283 0.0358598 0.0620392 0.0730429 0.0635255 0.0625286 0.0692097 0.0252761 -0.0914183 -0.196746 -0.237404 -0.190116 -0.0981215 0 0 0.031559 0.0451483 0.0329847 -0.00104822 -0.0416716 -0.0782237 -0.107979 -0.12676 -0.135219 -0.136983 -0.136713 -0.140639 -0.146976 -0.145695 -0.127714 -0.0978791 -0.0659435 -0.0393273 -0.0180455 -0.00724369 -0.0106179 -0.0211683 0.0399738 0.0865371 0.0473293 -0.056502 -0.142245 -0.158319 -0.0939269 0 0 0.00413719 -0.00231584 -0.0298863 -0.0718159 -0.115321 -0.152716 -0.17892 -0.196064 -0.207043 -0.21324 -0.216072 -0.217087 -0.219177 -0.22075 -0.218566 -0.202856 -0.170251 -0.137082 -0.114303 -0.0977101 -0.0837651 -0.088863 -0.0262872 0.091528 0.139679 0.0955117 -0.00344618 -0.0731895 -0.0672756 0 0 -0.0187988 -0.0478867 -0.0895812 -0.14048 -0.190139 -0.226836 -0.248947 -0.259912 -0.266958 -0.277516 -0.288896 -0.296216 -0.299024 -0.303943 -0.308437 -0.305828 -0.292263 -0.263789 -0.234807 -0.209045 -0.177217 -0.135988 -0.0892395 0.0436264 0.166467 0.203583 0.153463 0.0621185 0.00961563 0 0 -0.038042 -0.0835766 -0.143237 -0.207159 -0.257883 -0.290572 -0.307639 -0.314129 -0.316305 -0.322732 -0.340615 -0.360052 -0.376584 -0.389118 -0.399741 -0.407794 -0.408034 -0.399598 -0.375801 -0.337709 -0.29288 -0.198358 -0.113057 -0.0261913 0.132942 0.243732 0.265411 0.212314 0.135934 0 0 -0.0514887 -0.108642 -0.170292 -0.228033 -0.275691 -0.310164 -0.331926 -0.343553 -0.348984 -0.353949 -0.369201 -0.400029 -0.433681 -0.463189 -0.486727 -0.507943 -0.525866 -0.531954 -0.515742 -0.474256 -0.405194 -0.290497 -0.143138 -0.0532445 0.0594873 0.219498 0.30331 0.29858 0.24776 0 0 -0.0615855 -0.11954 -0.173287 -0.223873 -0.267356 -0.299774 -0.322437 -0.338447 -0.351677 -0.365501 -0.383579 -0.415199 -0.462661 -0.510651 -0.556981 -0.599935 -0.636318 -0.655986 -0.650821 -0.607126 -0.509302 -0.383932 -0.220535 -0.0638515 0.0120042 0.140532 0.273301 0.295243 0.272233 0 0 -0.0677275 -0.12076 -0.164249 -0.20168 -0.234202 -0.261879 -0.284231 -0.304872 -0.327654 -0.353125 -0.381985 -0.416896 -0.465097 -0.529923 -0.598231 -0.666026 -0.725978 -0.762094 -0.767276 -0.719046 -0.614082 -0.472487 -0.319101 -0.133297 -0.0115438 0.0627016 0.168231 0.214093 0.217484 0 0 -0.0683847 -0.113297 -0.138165 -0.157098 -0.175491 -0.198271 -0.224384 -0.251836 -0.283158 -0.320567 -0.361539 -0.406498 -0.459749 -0.524863 -0.608533 -0.697216 -0.775078 -0.82916 -0.846933 -0.811603 -0.718673 -0.577516 -0.426053 -0.266569 -0.0908156 -0.0138966 0.0249082 0.0758491 0.116958 0 0 -0.0577648 -0.0864842 -0.0914635 -0.0929834 -0.0995406 -0.121683 -0.159987 -0.203328 -0.244992 -0.288844 -0.336816 -0.389257 -0.444708 -0.513024 -0.593966 -0.685778 -0.775802 -0.847497 -0.882916 -0.882117 -0.82643 -0.714945 -0.571488 -0.425077 -0.270707 -0.145295 -0.119877 -0.0814534 0.00374535 0 0 -0.0256759 -0.0355303 -0.0286018 -0.0243424 -0.0332462 -0.0616266 -0.110881 -0.173576 -0.23295 -0.281585 -0.324878 -0.370491 -0.429312 -0.490534 -0.562834 -0.647164 -0.733051 -0.805959 -0.87124 -0.917456 -0.928332 -0.873091 -0.763597 -0.623665 -0.487378 -0.35152 -0.26937 -0.206025 -0.107416 0 0 0.0223039 0.0278825 0.0235836 0.019101 0.00366685 -0.0282903 -0.0819157 -0.158376 -0.237938 -0.296338 -0.333181 -0.36464 -0.404296 -0.465812 -0.531647 -0.585013 -0.653044 -0.734621 -0.836939 -0.931334 -0.993199 -0.996719 -0.926457 -0.804969 -0.666929 -0.540973 -0.398735 -0.284092 -0.194275 0 0 0.0436744 0.0532087 0.0426275 0.0283699 0.00807595 -0.0199661 -0.0671824 -0.143537 -0.233017 -0.307341 -0.35464 -0.382637 -0.396195 -0.420401 -0.471967 -0.5306 -0.577883 -0.645096 -0.770374 -0.916462 -1.01791 -1.04449 -1.00149 -0.896225 -0.771496 -0.64732 -0.478992 -0.33207 -0.234611 0 0 0.0298317 0.0322188 0.0210581 0.00689301 -0.00781663 -0.0223115 -0.0544168 -0.111135 -0.189188 -0.27142 -0.344048 -0.395323 -0.414848 -0.412429 -0.41612 -0.449575 -0.503895 -0.583885 -0.694992 -0.862751 -1.00207 -1.03734 -1.00197 -0.910733 -0.80364 -0.677749 -0.517211 -0.358853 -0.23449 0 0 -0.00672207 -0.0137766 -0.0224895 -0.0279398 -0.0285941 -0.0272917 -0.0390329 -0.0685158 -0.115542 -0.183727 -0.26972 -0.356955 -0.418885 -0.43943 -0.428605 -0.412419 -0.431549 -0.513683 -0.645834 -0.81069 -0.938658 -0.972565 -0.949838 -0.880966 -0.787613 -0.672163 -0.52923 -0.367647 -0.212119 0 0 -0.0280603 -0.0451767 -0.0502362 -0.0556998 -0.0453581 -0.0391616 -0.040557 -0.0435778 -0.0538508 -0.092334 -0.165835 -0.268766 -0.372272 -0.44174 -0.463469 -0.449855 -0.434319 -0.472467 -0.620448 -0.784303 -0.878105 -0.892638 -0.85394 -0.793558 -0.726965 -0.63846 -0.524828 -0.366208 -0.19605 0 0 -0.0482469 -0.0645342 -0.081564 -0.0743552 -0.0660339 -0.056535 -0.0523187 -0.0423745 -0.0335939 -0.0417102 -0.0898953 -0.176001 -0.288389 -0.398161 -0.472959 -0.504329 -0.505336 -0.529678 -0.639935 -0.774293 -0.841985 -0.834125 -0.772889 -0.709212 -0.649087 -0.584925 -0.493606 -0.360561 -0.190927 0 0 -0.0658512 -0.137744 -0.0995085 -0.0889081 -0.0799539 -0.0745135 -0.0608452 -0.0500839 -0.0309167 -0.0266877 -0.0529401 -0.112242 -0.204806 -0.329729 -0.46022 -0.557922 -0.621051 -0.679023 -0.758361 -0.829288 -0.847375 -0.809597 -0.726763 -0.640362 -0.568721 -0.504157 -0.439407 -0.358648 -0.167142 0 0 -0.3788 -0.163273 -0.106001 -0.0871632 -0.0842262 -0.078988 -0.0706981 -0.0432249 -0.02294 -0.0220849 -0.0431405 -0.0752753 -0.125503 -0.222448 -0.387816 -0.59718 -0.791059 -0.934129 -1.01824 -1.04357 -0.996722 -0.86087 -0.684536 -0.527246 -0.414717 -0.343698 -0.296809 -0.253011 -0.226831 0 0 0 0 0 0 0 0 0 0 0 0 0 0 0 0 0 0 0 0 0 0 0 0 0 0 0 0 0 0 0 0
				</DataArray>
				<DataArray Name="VitesseY" type="Float32" format="ascii">
 0 0 0 0 0 0 0 0 0 0 0 0 0 0 0 0 0 0 0 0 0 0 0 0 0 0 0 0 0 0 0 -0.0433716 0.0740128 -0.000394203 -0.0750383 -0.110331 -0.0966015 -0.0390091 0.043003 0.0630139 0.0558543 0.0418365 0.0203617 -0.00321917 -0.0215404 -0.0328069 -0.0342251 -0.0331281 -0.0296905 -0.0246054 -0.0192222 -0.0141644 -0.0085573 -0.00158362 0.00478199 0.00781033 0.00623698 0.002447 -0.00115004 -0.00356871 -0.00440956 0 -0.0717674 0.0858147 0.0220902 -0.0951379 -0.140264 -0.145606 -0.0536889 0.0589854 0.094101 0.0852996 0.0574438 0.0209629 -0.0194474 -0.0532135 -0.0718096 -0.0733876 -0.0695755 -0.0610996 -0.0496988 -0.0384301 -0.028384 -0.0175918 -0.0041039 0.00885508 0.0154553 0.0126365 0.00497744 -0.00230778 -0.00718919 -0.00889684 0 0.00752774 0.137769 0.0512409 -0.0695688 -0.125736 -0.137723 -0.0583331 0.0341385 0.0752802 0.0744956 0.0429617 -0.00434556 -0.0545342 -0.0971563 -0.120217 -0.120205 -0.111928 -0.0963228 -0.0767995 -0.0590336 -0.0438843 -0.0283373 -0.00897413 0.0111289 0.0225578 0.0193803 0.00781875 -0.00324222 -0.0106801 -0.013359 0 0.153248 0.240804 0.0918776 -0.0384814 -0.0953755 -0.106829 -0.0557047 0.0061221 0.0374396 0.0415406 0.00917214 -0.0444916 -0.0993933 -0.146063 -0.175027 -0.174318 -0.160926 -0.137404 -0.108722 -0.0839407 -0.0636622 -0.0437094 -0.018832 0.00971289 0.0282308 0.0265014 0.0111224 -0.00386558 -0.0139792 -0.0176758 0 0.320014 0.354559 0.145776 -0.00133747 -0.0653446 -0.0760211 -0.0463612 -0.0121506 0.00508401 0.00446613 -0.029629 -0.0850278 -0.142828 -0.192503 -0.227018 -0.230682 -0.215083 -0.184594 -0.147529 -0.116114 -0.0914924 -0.0681482 -0.0379677 0.00129903 0.0305487 0.0337773 0.0150875 -0.00402975 -0.0169743 -0.0217454 0 0.458803 0.458549 0.209684 0.0306578 -0.0450605 -0.0529635 -0.0252383 -0.00853798 -0.00720637 -0.0256891 -0.0639553 -0.12052 -0.179392 -0.231686 -0.269391 -0.282138 -0.26823 -0.235022 -0.192272 -0.156358 -0.129922 -0.105765 -0.071495 -0.019555 0.025172 0.0389122 0.0198937 -0.00354587 -0.0195803 -0.0255803 0 0.541301 0.523832 0.262301 0.0575643 -0.0259176 -0.0300805 0.00145433 0.0192507 0.00844746 -0.0336431 -0.0858666 -0.146102 -0.206776 -0.260418 -0.301149 -0.322973 -0.314628 -0.283319 -0.238895 -0.202168 -0.17803 -0.157424 -0.123196 -0.0595637 0.00564454 0.0378669 0.0252938 -0.00234208 -0.0217955 -0.0292897 0 0.553813 0.518932 0.296759 0.0925318 0.014863 0.00118714 0.0283806 0.0529342 0.0435011 -0.0135831 -0.0860908 -0.156866 -0.222251 -0.278769 -0.322345 -0.350586 -0.35202 -0.32662 -0.285798 -0.248791 -0.229039 -0.21831 -0.191781 -0.123623 -0.0361366 0.0235345 0.0298173 -0.000527195 -0.0235695 -0.0329002 0 0.512849 0.472543 0.306279 0.139008 0.0656369 0.0497948 0.0600237 0.0793089 0.0771626 0.0234531 -0.063709 -0.149535 -0.225673 -0.287182 -0.334281 -0.366323 -0.37957 -0.364256 -0.330393 -0.294147 -0.275837 -0.275807 -0.267049 -0.209003 -0.107796 -0.0171361 0.021479 0.000576566 -0.024838 -0.0362324 0 0.462482 0.419906 0.305491 0.179029 0.118464 0.102985 0.104125 0.105543 0.101408 0.056411 -0.0296362 -0.126742 -0.215905 -0.288142 -0.340954 -0.37609 -0.396932 -0.395063 -0.371292 -0.339194 -0.319069 -0.320544 -0.329572 -0.300473 -0.206493 -0.0918221 -0.0133606 -0.0039034 -0.0262711 -0.0390518 0 0.41353 0.381902 0.306812 0.217973 0.171269 0.158261 0.154022 0.143823 0.123237 0.077958 -0.000376332 -0.0974421 -0.195221 -0.281722 -0.34688 -0.387903 -0.410376 -0.419878 -0.408197 -0.384059 -0.362795 -0.356134 -0.368723 -0.371781 -0.313846 -0.197445 -0.08765 -0.0322858 -0.0320528 -0.0418584 0 0.380698 0.365566 0.317111 0.260515 0.228899 0.215938 0.206601 0.186626 0.152759 0.0972654 0.0196328 -0.0739025 -0.171267 -0.267152 -0.347307 -0.402986 -0.434254 -0.445347 -0.444282 -0.428897 -0.409266 -0.391175 -0.39518 -0.411583 -0.394589 -0.314127 -0.195485 -0.101338 -0.0606535 -0.0479532 0 0.378222 0.370759 0.34316 0.312565 0.290876 0.276172 0.25832 0.228651 0.183668 0.121736 0.0388857 -0.0562534 -0.152966 -0.24813 -0.337809 -0.41371 -0.463208 -0.486059 -0.485027 -0.477197 -0.460879 -0.43963 -0.414412 -0.4155 -0.427782 -0.401194 -0.317151 -0.209858 -0.133106 -0.0758864 0 0.40236 0.399378 0.388261 0.374881 0.359509 0.338473 0.307365 0.264515 0.211967 0.147261 0.0642815 -0.0364952 -0.135681 -0.232816 -0.327777 -0.415506 -0.486518 -0.528468 -0.543441 -0.534346 -0.517797 -0.496667 -0.456103 -0.414324 -0.419431 -0.434181 -0.408362 -0.335614 -0.255285 -0.160829 0 0.447459 0.449134 0.450983 0.451329 0.435493 0.400092 0.351843 0.295275 0.23384 0.16798 0.0918731 -0.00525077 -0.112126 -0.217203 -0.319539 -0.415244 -0.500729 -0.567244 -0.604403 -0.608827 -0.588195 -0.556421 -0.515808 -0.446219 -0.402551 -0.422741 -0.444586 -0.432681 -0.401624 -0.326173 0 0.510038 0.514353 0.526621 0.53461 0.511336 0.459815 0.395474 0.325181 0.254889 0.186235 0.115565 0.032063 -0.0783279 -0.194102 -0.305993 -0.413335 -0.512596 -0.601003 -0.661872 -0.68846 -0.671454 -0.621336 -0.563622 -0.502033 -0.420161 -0.395543 -0.43641 -0.48128 -0.521411 -0.548496 0 0.587338 0.590548 0.605126 0.611027 0.582034 0.517891 0.440025 0.358696 0.28129 0.208753 0.138849 0.0620607 -0.0370312 -0.157226 -0.282887 -0.402775 -0.521518 -0.62828 -0.712468 -0.757204 -0.750719 -0.69948 -0.618891 -0.552303 -0.473558 -0.404147 -0.417428 -0.490169 -0.599349 -0.760843 0 0.675558 0.67142 0.676669 0.67818 0.643535 0.570589 0.483 0.394097 0.312594 0.237309 0.16502 0.0894269 -0.000505526 -0.112772 -0.246358 -0.383143 -0.517536 -0.640673 -0.743098 -0.805363 -0.817506 -0.774084 -0.699448 -0.615192 -0.557993 -0.48574 -0.449807 -0.513971 -0.665272 -0.918196 0 0.772908 0.75162 0.733859 0.727199 0.688428 0.61303 0.525025 0.431003 0.345107 0.269126 0.19634 0.119696 0.0310699 -0.0765179 -0.205393 -0.350195 -0.492126 -0.629279 -0.746024 -0.822196 -0.854005 -0.841172 -0.806255 -0.738874 -0.672392 -0.626963 -0.599719 -0.623473 -0.747949 -1.00986 0 0.869005 0.829831 0.779297 0.763743 0.722123 0.650148 0.569298 0.472081 0.378833 0.299814 0.225252 0.14447 0.0557732 -0.0481668 -0.16986 -0.303549 -0.445762 -0.583454 -0.699472 -0.792147 -0.860288 -0.893587 -0.907608 -0.894561 -0.841886 -0.793964 -0.770597 -0.761913 -0.821577 -1.03853 0 0.94467 0.893174 0.801193 0.774294 0.730964 0.668213 0.601916 0.515245 0.412822 0.317317 0.231775 0.150337 0.0690084 -0.0221318 -0.131613 -0.254153 -0.37682 -0.492513 -0.600234 -0.705685 -0.813763 -0.912922 -0.977521 -1.00338 -0.988806 -0.927291 -0.869503 -0.834505 -0.842545 -0.995269 0 0.93723 0.884727 0.770087 0.73222 0.684333 0.626177 0.568966 0.497287 0.404709 0.31071 0.224821 0.143911 0.0648793 -0.00320456 -0.0768836 -0.176633 -0.278525 -0.369136 -0.461929 -0.573174 -0.709026 -0.865998 -0.987695 -1.03425 -1.0287 -0.965997 -0.887289 -0.830449 -0.807329 -0.861006 0 0.77627 0.723426 0.584988 0.526147 0.466188 0.409321 0.365066 0.32684 0.281743 0.236488 0.198914 0.154229 0.0890266 0.00926707 -0.0446293 -0.0729228 -0.128727 -0.222966 -0.315713 -0.419341 -0.5711 -0.761499 -0.921193 -0.996471 -0.997291 -0.946033 -0.851347 -0.771544 -0.726017 -0.68468 0 0.368717 0.316703 0.186092 0.113645 0.0478992 0.00704274 -0.0132623 -0.00853325 0.0136718 0.0517175 0.105216 0.150098 0.161515 0.130254 0.0565853 -0.00731532 -0.0273325 -0.0491663 -0.137559 -0.271531 -0.422624 -0.623799 -0.805728 -0.894722 -0.90846 -0.879232 -0.79268 -0.708637 -0.640244 -0.527431 0 -0.0700307 -0.104824 -0.179679 -0.225245 -0.272235 -0.290216 -0.294828 -0.278937 -0.238248 -0.165181 -0.0597947 0.0637887 0.16445 0.209923 0.201589 0.139817 0.0635821 0.0243543 0.00033341 -0.0900179 -0.276153 -0.489766 -0.667533 -0.772078 -0.803911 -0.787389 -0.726594 -0.648984 -0.568871 -0.414937 0 -0.184939 -0.213425 -0.260012 -0.287602 -0.319457 -0.33704 -0.350298 -0.352234 -0.335703 -0.284419 -0.193596 -0.0701184 0.0739577 0.19797 0.264138 0.272941 0.224685 0.137539 0.0648083 -0.0110703 -0.146925 -0.355497 -0.543442 -0.647991 -0.677839 -0.672269 -0.638684 -0.585134 -0.504409 -0.343948 0 -0.0561995 -0.113232 -0.161058 -0.200949 -0.23985 -0.253338 -0.271529 -0.278512 -0.279694 -0.268452 -0.23301 -0.157804 -0.0452509 0.0960957 0.231092 0.309981 0.325462 0.279205 0.164315 0.0205664 -0.122582 -0.272119 -0.40101 -0.480434 -0.517992 -0.529669 -0.525069 -0.493767 -0.439606 -0.297017 0 0.0626114 0.0658663 -0.0731908 -0.124921 -0.162172 -0.165438 -0.18591 -0.192546 -0.190625 -0.183522 -0.173262 -0.156431 -0.106899 -0.0106516 0.126856 0.262102 0.324036 0.305005 0.213462 0.0696743 -0.0879492 -0.209988 -0.285968 -0.3331 -0.359462 -0.367973 -0.366392 -0.360685 -0.358756 -0.253167 0 0.647811 0.105855 -0.0719091 -0.0511029 -0.0890833 -0.0772092 -0.103594 -0.0981484 -0.107486 -0.089153 -0.0833296 -0.081183 -0.0781796 -0.0438913 0.0419452 0.170085 0.269259 0.279967 0.216248 0.112749 -0.000115974 -0.110089 -0.195769 -0.235262 -0.234782 -0.212238 -0.196098 -0.190961 -0.167175 -0.226885 0 5.48681 0 0 0 0 0 0 0 0 0 0 0 0 0 0 0 0 0 0 0 0 0 0 0 0 0 0 0 0 0 0
				</DataArray>
			</PointData>
			<CellData Scalars="Density">
				<DataArray Name="Density" type="Float32" format="ascii">