<?xml version="1.0"?>
<VTKFile type="PolyData">
	<PolyData>
		<Piece NumberOfPoints="1206" NumberOfPolys="1000">
			<Points>
				<DataArray type="Float32" NumberOfComponents="3" format="ascii">
 0 0 0 0.02 0 0 0.04 0 0 0.06 0 0 0.08 0 0 0.1 0 0 0 0.005 0 0.02 0.005 0 0.04 0.005 0 0.06 0.005 0 0.08 0.005 0 0.1 0.005 0 0 0.01 0 0.02 0.01 0 0.04 0.01 0 0.06 0.01 0 0.08 0.01 0 0.1 0.01 0 0 0.015 0 0.02 0.015 0 0.04 0.015 0 0.06 0.015 0 0.08 0.015 0 0.1 0.015 0 0 0.02 0 0.02 0.02 0 0.04 0.02 0 0.06 0.02 0 0.08 0.02 0 0.1 0.02 0 0 0.025 0 0.02 0.025 0 0.04 0.025 0 0.06 0.025 0 0.08 0.025 0 0.1 0.025 0 0 0.03 0 0.02 0.03 0 0.04 0.03 0 0.06 0.03 0 0.08 0.03 0 0.1 0.03 0 0 0.035 0 0.02 0.035 0 0.04 0.035 0 0.06 0.035 0 0.08 0.035 0 0.1 0.035 0 0 0.04 0 0.02 0.04 0 0.04 0.04 0 0.06 0.04 0 0.08 0.04 0 0.1 0.04 0 0 0.045 0 0.02 0.045 0 0.04 0.045 0 0.06 0.045 0 0.08 0.045 0 0.1 0.045 0 0 0.05 0 0.02 0.05 0 0.04 0.05 0 0.06 0.05 0 0.08 0.05 0 0.1 0.05 0 0 0.055 0 0.02 0.055 0 0.04 0.055 0 0.06 0.055 0 0.08 0.055 0 0.1 0.055 0 0 0.06 0 0.02 0.06 0 0.04 0.06 0 0.06 0.06 0 0.08 0.06 0 0.1 0.06 0 0 0.065 0 0.02 0.065 0 0.04 0.065 0 0.06 0.065 0 0.08 0.065 0 0.1 0.065 0 0 0.07 0 0.02 0.07 0 0.04 0.07 0 0.06 0.07 0 0.08 0.07 0 0.1 0.07 0 0 0.075 0 0.02 0.075 0 0.04 0.075 0 0.06 0.075 0 0.08 0.075 0 0.1 0.075 0 0 0.08 0 0.02 0.08 0 0.04 0.08 0 0.06 0.08 0 0.08 0.08 0 0.1 0.08 0 0 0.085 0 0.02 0.085 0 0.04 0.085 0 0.06 0.085 0 0.08 0.085 0 0.1 0.085 0 0 0.09 0 0.02 0.09 0 0.04 0.09 0 0.06 0.09 0 0.08 0.09 0 0.1 0.09 0 0 0.095 0 0.02 0.095 0 0.04 0.095 0 0.06 0.095 0 0.08 0.095 0 0.1 0.095 0 0 0.1 0 0.02 0.1 0 0.04 0.1 0 0.06 0.1 0 0.08 0.1 0 0.1 0.1 0 0 0.105 0 0.02 0.105 0 0.04 0.105 0 0.06 0.105 0 0.08 0.105 0 0.1 0.105 0 0 0.11 0 0.02 0.11 0 0.04 0.11 0 0.06 0.11 0 0.08 0.11 0 0.1 0.11 0 0 0.115 0 0.02 0.115 0 0.04 0.115 0 0.06 0.115 0 0.08 0.115 0 0.1 0.115 0 0 0.12 0 0.02 0.12 0 0.04 0.12 0 0.06 0.12 0 0.08 0.12 0 0.1 0.12 0 0 0.125 0 0.02 0.125 0 0.04 0.125 0 0.06 0.125 0 0.08 0.125 0 0.1 0.125 0 0 0.13 0 0.02 0.13 0 0.04 0.13 0 0.06 0.13 0 0.08 0.13 0 0.1 0.13 0 0 0.135 0 0.02 0.135 0 0.04 0.135 0 0.06 0.135 0 0.08 0.135 0 0.1 0.135 0 0 0.14 0 0.02 0.14 0 0.04 0.14 0 0.06 0.14 0 0.08 0.14 0 0.1 0.14 0 0 0.145 0 0.02 0.145 0 0.04 0.145 0 0.06 0.145 0 0.08 0.145 0 0.1 0.145 0 0 0.15 0 0.02 0.15 0 0.04 0.15 0 0.06 0.15 0 0.08 0.15 0 0.1 0.15 0 0 0.155 0 0.02 0.155 0 0.04 0.155 0 0.06 0.155 0 0.08 0.155 0 0.1 0.155 0 0 0.16 0 0.02 0.16 0 0.04 0.16 0 0.06 0.16 0 0.08 0.16 0 0.1 0.16 0 0 0.165 0 0.02 0.165 0 0.04 0.165 0 0.06 0.165 0 0.08 0.165 0 0.1 0.165 0 0 0.17 0 0.02 0.17 0 0.04 0.17 0 0.06 0.17 0 0.08 0.17 0 0.1 0.17 0 0 0.175 0 0.02 0.175 0 0.04 0.175 0 0.06 0.175 0 0.08 0.175 0 0.1 0.175 0 0 0.18 0 0.02 0.18 0 0.04 0.18 0 0.06 0.18 0 0.08 0.18 0 0.1 0.18 0 0 0.185 0 0.02 0.185 0 0.04 0.185 0 0.06 0.185 0 0.08 0.185 0 0.1 0.185 0 0 0.19 0 0.02 0.19 0 0.04 0.19 0 0.06 0.19 0 0.08 0.19 0 0.1 0.19 0 0 0.195 0 0.02 0.195 0 0.04 0.195 0 0.06 0.195 0 0.08 0.195 0 0.1 0.195 0 0 0.2 0 0.02 0.2 0 0.04 0.2 0 0.06 0.2 0 0.08 0.2 0 0.1 0.2 0 0 0.205 0 0.02 0.205 0 0.04 0.205 0 0.06 0.205 0 0.08 0.205 0 0.1 0.205 0 0 0.21 0 0.02 0.21 0 0.04 0.21 0 0.06 0.21 0 0.08 0.21 0 0.1 0.21 0 0 0.215 0 0.02 0.215 0 0.04 0.215 0 0.06 0.215 0 0.08 0.215 0 0.1 0.215 0 0 0.22 0 0.02 0.22 0 0.04 0.22 0 0.06 0.22 0 0.08 0.22 0 0.1 0.22 0 0 0.225 0 0.02 0.225 0 0.04 0.225 0 0.06 0.225 0 0.08 0.225 0 0.1 0.225 0 0 0.23 0 0.02 0.23 0 0.04 0.23 0 0.06 0.23 0 0.08 0.23 0 0.1 0.23 0 0 0.235 0 0.02 0.235 0 0.04 0.235 0 0.06 0.235 0 0.08 0.235 0 0.1 0.235 0 0 0.24 0 0.02 0.24 0 0.04 0.24 0 0.06 0.24 0 0.08 0.24 0 0.1 0.24 0 0 0.245 0 0.02 0.245 0 0.04 0.245 0 0.06 0.245 0 0.08 0.245 0 0.1 0.245 0 0 0.25 0 0.02 0.25 0 0.04 0.25 0 0.06 0.25 0 0.08 0.25 0 0.1 0.25 0 0 0.255 0 0.02 0.255 0 0.04 0.255 0 0.06 0.255 0 0.08 0.255 0 0.1 0.255 0 0 0.26 0 0.02 0.26 0 0.04 0.26 0 0.06 0.26 0 0.08 0.26 0 0.1 0.26 0 0 0.265 0 0.02 0.265 0 0.04 0.265 0 0.06 0.265 0 0.08 0.265 0 0.1 0.265 0 0 0.27 0 0.02 0.27 0 0.04 0.27 0 0.06 0.27 0 0.08 0.27 0 0.1 0.27 0 0 0.275 0 0.02 0.275 0 0.04 0.275 0 0.06 0.275 0 0.08 0.275 0 0.1 0.275 0 0 0.28 0 0.02 0.28 0 0.04 0.28 0 0.06 0.28 0 0.08 0.28 0 0.1 0.28 0 0 0.285 0 0.02 0.285 0 0.04 0.285 0 0.06 0.285 0 0.08 0.285 0 0.1 0.285 0 0 0.29 0 0.02 0.29 0 0.04 0.29 0 0.06 0.29 0 0.08 0.29 0 0.1 0.29 0 0 0.295 0 0.02 0.295 0 0.04 0.295 0 0.06 0.295 0 0.08 0.295 0 0.1 0.295 0 0 0.3 0 0.02 0.3 0 0.04 0.3 0 0.06 0.3 0 0.08 0.3 0 0.1 0.3 0 0 0.305 0 0.02 0.305 0 0.04 0.305 0 0.06 0.305 0 0.08 0.305 0 0.1 0.305 0 0 0.31 0 0.02 0.31 0 0.04 0.31 0 0.06 0.31 0 0.08 0.31 0 0.1 0.31 0 0 0.315 0 0.02 0.315 0 0.04 0.315 0 0.06 0.315 0 0.08 0.315 0 0.1 0.315 0 0 0.32 0 0.02 0.32 0 0.04 0.32 0 0.06 0.32 0 0.08 0.32 0 0.1 0.32 0 0 0.325 0 0.02 0.325 0 0.04 0.325 0 0.06 0.325 0 0.08 0.325 0 0.1 0.325 0 0 0.33 0 0.02 0.33 0 0.04 0.33 0 0.06 0.33 0 0.08 0.33 0 0.1 0.33 0 0 0.335 0 0.02 0.335 0 0.04 0.335 0 0.06 0.335 0 0.08 0.335 0 0.1 0.335 0 0 0.34 0 0.02 0.34 0 0.04 0.34 0 0.06 0.34 0 0.08 0.34 0 0.1 0.34 0 0 0.345 0 0.02 0.345 0 0.04 0.345 0 0.06 0.345 0 0.08 0.345 0 0.1 0.345 0 0 0.35 0 0.02 0.35 0 0.04 0.35 0 0.06 0.35 0 0.08 0.35 0 0.1 0.35 0 0 0.355 0 0.02 0.355 0 0.04 0.355 0 0.06 0.355 0 0.08 0.355 0 0.1 0.355 0 0 0.36 0 0.02 0.36 0 0.04 0.36 0 0.06 0.36 0 0.08 0.36 0 0.1 0.36 0 0 0.365 0 0.02 0.365 0 0.04 0.365 0 0.06 0.365 0 0.08 0.365 0 0.1 0.365 0 0 0.37 0 0.02 0.37 0 0.04 0.37 0 0.06 0.37 0 0.08 0.37 0 0.1 0.37 0 0 0.375 0 0.02 0.375 0 0.04 0.375 0 0.06 0.375 0 0.08 0.375 0 0.1 0.375 0 0 0.38 0 0.02 0.38 0 0.04 0.38 0 0.06 0.38 0 0.08 0.38 0 0.1 0.38 0 0 0.385 0 0.02 0.385 0 0.04 0.385 0 0.06 0.385 0 0.08 0.385 0 0.1 0.385 0 0 0.39 0 0.02 0.39 0 0.04 0.39 0 0.06 0.39 0 0.08 0.39 0 0.1 0.39 0 0 0.395 0 0.02 0.395 0 0.04 0.395 0 0.06 0.395 0 0.08 0.395 0 0.1 0.395 0 0 0.4 0 0.02 0.4 0 0.04 0.4 0 0.06 0.4 0 0.08 0.4 0 0.1 0.4 0 0 0.405 0 0.02 0.405 0 0.04 0.405 0 0.06 0.405 0 0.08 0.405 0 0.1 0.405 0 0 0.41 0 0.02 0.41 0 0.04 0.41 0 0.06 0.41 0 0.08 0.41 0 0.1 0.41 0 0 0.415 0 0.02 0.415 0 0.04 0.415 0 0.06 0.415 0 0.08 0.415 0 0.1 0.415 0 0 0.42 0 0.02 0.42 0 0.04 0.42 0 0.06 0.42 0 0.08 0.42 0 0.1 0.42 0 0 0.425 0 0.02 0.425 0 0.04 0.425 0 0.06 0.425 0 0.08 0.425 0 0.1 0.425 0 0 0.43 0 0.02 0.43 0 0.04 0.43 0 0.06 0.43 0 0.08 0.43 0 0.1 0.43 0 0 0.435 0 0.02 0.435 0 0.04 0.435 0 0.06 0.435 0 0.08 0.435 0 0.1 0.435 0 0 0.44 0 0.02 0.44 0 0.04 0.44 0 0.06 0.44 0 0.08 0.44 0 0.1 0.44 0 0 0.445 0 0.02 0.445 0 0.04 0.445 0 0.06 0.445 0 0.08 0.445 0 0.1 0.445 0 0 0.45 0 0.02 0.45 0 0.04 0.45 0 0.06 0.45 0 0.08 0.45 0 0.1 0.45 0 0 0.455 0 0.02 0.455 0 0.04 0.455 0 0.06 0.455 0 0.08 0.455 0 0.1 0.455 0 0 0.46 0 0.02 0.46 0 0.04 0.46 0 0.06 0.46 0 0.08 0.46 0 0.1 0.46 0 0 0.465 0 0.02 0.465 0 0.04 0.465 0 0.06 0.465 0 0.08 0.465 0 0.1 0.465 0 0 0.47 0 0.02 0.47 0 0.04 0.47 0 0.06 0.47 0 0.08 0.47 0 0.1 0.47 0 0 0.475 0 0.02 0.475 0 0.04 0.475 0 0.06 0.475 0 0.08 0.475 0 0.1 0.475 0 0 0.48 0 0.02 0.48 0 0.04 0.48 0 0.06 0.48 0 0.08 0.48 0 0.1 0.48 0 0 0.485 0 0.02 0.485 0 0.04 0.485 0 0.06 0.485 0 0.08 0.485 0 0.1 0.485 0 0 0.49 0 0.02 0.49 0 0.04 0.49 0 0.06 0.49 0 0.08 0.49 0 0.1 0.49 0 0 0.495 0 0.02 0.495 0 0.04 0.495 0 0.06 0.495 0 0.08 0.495 0 0.1 0.495 0 0 0.5 0 0.02 0.5 0 0.04 0.5 0 0.06 0.5 0 0.08 0.5 0 0.1 0.5 0 0 0.505 0 0.02 0.505 0 0.04 0.505 0 0.06 0.505 0 0.08 0.505 0 0.1 0.505 0 0 0.51 0 0.02 0.51 0 0.04 0.51 0 0.06 0.51 0 0.08 0.51 0 0.1 0.51 0 0 0.515 0 0.02 0.515 0 0.04 0.515 0 0.06 0.515 0 0.08 0.515 0 0.1 0.515 0 0 0.52 0 0.02 0.52 0 0.04 0.52 0 0.06 0.52 0 0.08 0.52 0 0.1 0.52 0 0 0.525 0 0.02 0.525 0 0.04 0.525 0 0.06 0.525 0 0.08 0.525 0 0.1 0.525 0 0 0.53 0 0.02 0.53 0 0.04 0.53 0 0.06 0.53 0 0.08 0.53 0 0.1 0.53 0 0 0.535 0 0.02 0.535 0 0.04 0.535 0 0.06 0.535 0 0.08 0.535 0 0.1 0.535 0 0 0.54 0 0.02 0.54 0 0.04 0.54 0 0.06 0.54 0 0.08 0.54 0 0.1 0.54 0 0 0.545 0 0.02 0.545 0 0.04 0.545 0 0.06 0.545 0 0.08 0.545 0 0.1 0.545 0 0 0.55 0 0.02 0.55 0 0.04 0.55 0 0.06 0.55 0 0.08 0.55 0 0.1 0.55 0 0 0.555 0 0.02 0.555 0 0.04 0.555 0 0.06 0.555 0 0.08 0.555 0 0.1 0.555 0 0 0.56 0 0.02 0.56 0 0.04 0.56 0 0.06 0.56 0 0.08 0.56 0 0.1 0.56 0 0 0.565 0 0.02 0.565 0 0.04 0.565 0 0.06 0.565 0 0.08 0.565 0 0.1 0.565 0 0 0.57 0 0.02 0.57 0 0.04 0.57 0 0.06 0.57 0 0.08 0.57 0 0.1 0.57 0 0 0.575 0 0.02 0.575 0 0.04 0.575 0 0.06 0.575 0 0.08 0.575 0 0.1 0.575 0 0 0.58 0 0.02 0.58 0 0.04 0.58 0 0.06 0.58 0 0.08 0.58 0 0.1 0.58 0 0 0.585 0 0.02 0.585 0 0.04 0.585 0 0.06 0.585 0 0.08 0.585 0 0.1 0.585 0 0 0.59 0 0.02 0.59 0 0.04 0.59 0 0.06 0.59 0 0.08 0.59 0 0.1 0.59 0 0 0.595 0 0.02 0.595 0 0.04 0.595 0 0.06 0.595 0 0.08 0.595 0 0.1 0.595 0 0 0.6 0 0.02 0.6 0 0.04 0.6 0 0.06 0.6 0 0.08 0.6 0 0.1 0.6 0 0 0.605 0 0.02 0.605 0 0.04 0.605 0 0.06 0.605 0 0.08 0.605 0 0.1 0.605 0 0 0.61 0 0.02 0.61 0 0.04 0.61 0 0.06 0.61 0 0.08 0.61 0 0.1 0.61 0 0 0.615 0 0.02 0.615 0 0.04 0.615 0 0.06 0.615 0 0.08 0.615 0 0.1 0.615 0 0 0.62 0 0.02 0.62 0 0.04 0.62 0 0.06 0.62 0 0.08 0.62 0 0.1 0.62 0 0 0.625 0 0.02 0.625 0 0.04 0.625 0 0.06 0.625 0 0.08 0.625 0 0.1 0.625 0 0 0.63 0 0.02 0.63 0 0.04 0.63 0 0.06 0.63 0 0.08 0.63 0 0.1 0.63 0 0 0.635 0 0.02 0.635 0 0.04 0.635 0 0.06 0.635 0 0.08 0.635 0 0.1 0.635 0 0 0.64 0 0.02 0.64 0 0.04 0.64 0 0.06 0.64 0 0.08 0.64 0 0.1 0.64 0 0 0.645 0 0.02 0.645 0 0.04 0.645 0 0.06 0.645 0 0.08 0.645 0 0.1 0.645 0 0 0.65 0 0.02 0.65 0 0.04 0.65 0 0.06 0.65 0 0.08 0.65 0 0.1 0.65 0 0 0.655 0 0.02 0.655 0 0.04 0.655 0 0.06 0.655 0 0.08 0.655 0 0.1 0.655 0 0 0.66 0 0.02 0.66 0 0.04 0.66 0 0.06 0.66 0 0.08 0.66 0 0.1 0.66 0 0 0.665 0 0.02 0.665 0 0.04 0.665 0 0.06 0.665 0 0.08 0.665 0 0.1 0.665 0 0 0.67 0 0.02 0.67 0 0.04 0.67 0 0.06 0.67 0 0.08 0.67 0 0.1 0.67 0 0 0.675 0 0.02 0.675 0 0.04 0.675 0 0.06 0.675 0 0.08 0.675 0 0.1 0.675 0 0 0.68 0 0.02 0.68 0 0.04 0.68 0 0.06 0.68 0 0.08 0.68 0 0.1 0.68 0 0 0.685 0 0.02 0.685 0 0.04 0.685 0 0.06 0.685 0 0.08 0.685 0 0.1 0.685 0 0 0.69 0 0.02 0.69 0 0.04 0.69 0 0.06 0.69 0 0.08 0.69 0 0.1 
[...]
			<PointData Scalars="VitesseX">
				<DataArray Name="VitesseX" type="Float32" format="ascii">
 0 1.12216e-14 5.32502e-14 3.53062e-14 2.23196e-14 0 0 1.79581e-14 4.08478e-14 4.48855e-14 1.38235e-14 0 0 2.24593e-14 3.37199e-14 4.11909e-14 1.22454e-14 0 0 2.43873e-14 3.48742e-14 2.1407e-14 2.12836e-14 0 0 3.56689e-14 1.95093e-14 1.99445e-14 1.40343e-14 0 0 3.67971e-14 1.35317e-14 1.55027e-14 8.66138e-15 0 0 1.84971e-14 3.21878e-14 -7.217e-15 1.76573e-14 0 0 1.16106e-14 3.5911e-14 -9.30179e-15 2.05174e-14 0 0 1.84574e-14 3.13841e-14 -9.65211e-15 3.27374e-14 0 0 3.61956e-14 1.56191e-14 6.77219e-15 2.58365e-14 0 0 2.10542e-14 3.88139e-14 -3.01983e-15 2.46262e-14 0 0 2.49857e-15 4.81588e-14 1.17959e-14 1.9086e-15 0 0 -1.20321e-14 4.7471e-14 2.79517e-14 -1.64361e-14 0 0 -9.50678e-15 4.48183e-14 2.58242e-14 -1.16818e-14 0 0 9.09516e-15 2.84375e-14 4.18493e-14 -1.77427e-14 0 0 -5.37295e-15 5.09719e-14 2.30888e-14 1.00185e-14 0 0 1.80868e-14 9.84662e-17 8.77545e-14 -7.91418e-15 0 0 2.7807e-14 -1.03609e-15 7.67657e-14 1.8884e-14 0 0 2.38419e-14 4.18451e-14 -9.06848e-15 1.08088e-13 0 0 1.86267e-14 4.78996e-14 2.46357e-15 1.11494e-13 0 0 -2.2023e-14 1.14608e-13 -3.15592e-14 1.16141e-13 0 0 -2.35835e-14 1.4046e-13 -6.81955e-14 1.57206e-13 0 0 5.22749e-14 2.82102e-14 6.91165e-14 6.1279e-14 0 0 9.45751e-14 -2.39377e-14 1.63985e-13 -4.04259e-14 0 0 2.1016e-14 1.11418e-13 4.52576e-14 9.46104e-15 0 0 -3.2055e-14 2.10097e-13 -5.84989e-14 5.96007e-14 0 0 4.07424e-14 1.11533e-13 2.72538e-14 -2.08611e-14 0 0 8.20515e-14 8.5605e-14 2.33532e-14 -3.97736e-14 0 0 7.01073e-14 1.08564e-13 6.28944e-15 -4.80611e-14 0 0 5.30393e-14 8.85893e-14 6.2884e-14 -9.30772e-14 0 0 7.05739e-14 4.83074e-14 9.92783e-14 -1.03218e-13 0 0 6.72221e-14 5.16528e-14 7.77925e-14 -6.71992e-14 0 0 3.50212e-14 9.78899e-14 1.351e-14 8.25338e-15 0 0 6.66658e-14 3.29151e-14 9.27443e-14 -1.15037e-14 0 0 8.91707e-15 1.05544e-13 2.03919e-14 6.63572e-14 0 0 -1.12656e-15 1.1303e-13 1.73525e-14 4.98799e-14 0 0 6.26499e-14 1.66893e-14 1.0955e-13 -1.56442e-14 0 0 7.60272e-14 2.38227e-14 8.85643e-14 3.04971e-14 0 0 7.45812e-14 5.04503e-14 6.84935e-14 4.32931e-14 0 0 5.19838e-14 8.21765e-14 3.39683e-14 7.42408e-14 0 0 7.24378e-14 8.11362e-14 3.80896e-14 7.05997e-14 0 0 9.65774e-14 8.52826e-14 5.07755e-14 1.6835e-14 0 0 8.09882e-14 8.07328e-14 8.10403e-14 -3.09839e-14 0 0 5.30691e-14 6.29068e-14 1.068e-13 -2.41049e-14 0 0 4.34522e-14 5.17568e-14 1.21894e-13 -1.4902e-14 0 0 -3.92228e-15 1.23468e-13 5.99076e-14 2.82356e-14 0 0 3.08078e-14 6.22079e-14 1.04906e-13 2.55368e-14 0 0 5.79202e-14 -3.33447e-14 2.44191e-13 -5.43564e-14 0 0 -6.13668e-14 1.01075e-13 1.58901e-13 -1.02035e-14 0 0 -1.11737e-13 2.01721e-13 4.42997e-14 6.67735e-14 0 0 -1.21324e-13 2.4358e-13 2.26643e-14 9.52449e-14 0 0 -5.75708e-14 1.9627e-13 2.99206e-14 1.22978e-13 0 0 1.34658e-13 -1.16532e-13 3.73701e-13 -9.66574e-14 0 0 6.02149e-14 -2.88742e-14 3.10092e-13 -5.54945e-14 0 0 -9.53467e-14 2.71914e-13 -8.63695e-14 2.41781e-13 0 0 -3.25315e-14 1.69e-13 2.96859e-14 1.55454e-13 0 0 -6.78991e-14 1.87572e-13 6.4583e-14 1.03507e-13 0 0 -6.14821e-14 2.10009e-13 1.76497e-14 1.51532e-13 0 0 6.08594e-15 1.51374e-13 7.40238e-14 1.35466e-13 0 0 1.10738e-14 1.50189e-13 1.23822e-13 6.32356e-14 0 0 -8.15517e-15 2.04799e-13 4.88491e-14 7.64029e-14 0 0 4.37788e-14 1.44771e-13 8.72273e-14 -5.4491e-15 0 0 8.08759e-14 3.29391e-14 2.30547e-13 -1.5449e-13 0 0 7.77438e-14 9.83505e-14 4.80743e-14 3.19279e-15 0 0 1.42982e-13 1.05718e-13 -4.99644e-14 8.49052e-14 0 0 1.62211e-13 9.64258e-14 3.5091e-14 1.86928e-15 0 0 9.21645e-14 1.83962e-13 4.25634e-14 9.33676e-15 0 0 5.41199e-14 2.16784e-13 1.75607e-14 1.35295e-13 0 0 -1.01278e-14 2.87682e-13 -4.82348e-14 3.10799e-13 0 0 9.54601e-14 1.05402e-13 1.80721e-13 2.5318e-13 0 0 1.96746e-13 -8.03443e-14 4.33789e-13 8.84518e-14 0 0 2.50568e-14 1.69093e-13 2.70376e-13 1.37559e-13 0 0 -6.94165e-14 3.85823e-13 3.5058e-14 2.68895e-13 0 0 -9.33438e-14 3.98802e-13 7.61164e-14 2.44344e-13 0 0 -6.33999e-14 1.8819e-13 4.18585e-13 7.31213e-14 0 0 8.25635e-15 6.70516e-14 5.84904e-13 9.44521e-14 0 0 -1.0917e-13 3.35623e-13 2.76524e-13 3.79409e-13 0 0 -2.45936e-13 5.95491e-13 3.90348e-14 3.84806e-13 0 0 -1.65681e-14 3.33628e-13 3.48969e-13 9.55763e-15 0 0 2.32048e-13 6.06071e-14 5.01769e-13 -1.90478e-15 0 0 -7.59639e-14 4.64147e-13 9.12108e-14 4.04423e-13 0 0 -2.2635e-13 5.02202e-13 3.47275e-13 2.11295e-13 0 0 2.22125e-13 -3.85535e-14 1.11421e-12 -3.79215e-13 0 0 1.65157e-13 5.04933e-13 6.15831e-13 -2.3522e-13 0 0 -1.0406e-13 1.4575e-12 -4.66359e-13 3.14527e-13 0 0 2.42447e-13 1.15298e-12 -4.43594e-13 3.86944e-13 0 0 9.90505e-13 1.91945e-13 3.68292e-13 -4.5998e-14 0 0 9.4815e-13 7.90736e-14 8.47492e-13 -4.6599e-13 0 0 5.85354e-13 4.6858e-13 6.57968e-13 -3.59993e-13 0 0 1.1168e-13 1.04913e-12 2.44497e-13 -9.47436e-14 0 0 -1.97382e-13 1.35536e-12 2.22903e-14 1.03822e-13 0 0 -1.48264e-13 1.29685e-12 8.32272e-14 1.93443e-14 0 0 1.49474e-13 8.80016e-13 3.54668e-13 -9.06649e-14 0 0 8.85678e-13 -6.62883e-14 6.3652e-13 4.47194e-14 0 0 1.17157e-12 -4.2326e-13 6.2314e-13 4.09156e-13 0 0 1.03581e-12 -2.50588e-13 4.51881e-13 4.76942e-13 0 0 6.90582e-13 1.68251e-13 3.48942e-13 3.57923e-13 0 0 1.5111e-13 6.65929e-13 2.14364e-13 7.96759e-14 0 0 -2.7607e-13 1.04529e-12 -2.83593e-14 1.45284e-14 0 0 -2.68972e-13 1.03605e-12 -1.58478e-13 4.34317e-14 0 0 1.20506e-13 6.089e-13 -3.34704e-14 1.37283e-13 0 0 7.74558e-13 -1.4882e-13 2.64702e-13 3.05092e-13 0 0 9.47951e-13 -3.68802e-13 3.83495e-13 3.37806e-13 0 0 7.9639e-13 -2.58016e-13 3.54153e-13 3.46542e-13 0 0 2.82552e-13 5.58542e-14 3.55513e-13 2.84597e-13 0 0 -2.93344e-13 2.7435e-13 4.75753e-13 4.09208e-14 0 0 -4.32893e-13 2.79186e-13 6.41898e-13 -2.15926e-13 0 0 -3.13052e-13 1.65077e-13 6.37689e-13 -2.12088e-13 0 0 -6.9599e-14 6.42756e-14 5.72775e-13 -1.33879e-13 0 0 6.99055e-14 6.05384e-14 4.66908e-13 1.46034e-14 0 0 1.521e-13 6.75278e-14 3.31161e-13 1.92927e-13 0 0 1.89142e-13 6.99551e-14 2.55859e-13 2.95797e-13 0 0 1.72709e-13 8.80954e-14 2.46567e-13 2.74382e-13 0 0 1.11471e-13 1.56822e-13 2.08904e-13 2.78253e-13 0 0 3.5648e-14 1.88848e-13 1.94665e-13 3.5594e-13 0 0 3.1613e-14 1.54136e-13 2.48791e-13 3.88865e-13 0 0 5.45729e-15 1.70606e-13 2.2972e-13 4.27082e-13 0 0 1.75758e-14 1.45572e-13 2.59683e-13 4.12129e-13 0 0 7.27604e-14 1.03258e-13 2.95785e-13 3.75257e-13 0 0 8.09804e-14 1.24809e-13 2.60623e-13 3.29007e-13 0 0 9.79802e-14 1.68572e-13 2.1489e-13 2.40697e-13 0 0 1.41752e-13 1.86752e-13 1.93141e-13 1.21684e-13 0 0 1.57809e-13 2.0449e-13 1.43542e-13 1.15726e-13 0 0 1.30801e-13 2.50402e-13 1.05576e-13 1.04161e-13 0 0 1.23e-13 2.24875e-13 1.54078e-13 -1.64513e-14 0 0 1.33218e-13 1.72348e-13 1.56812e-13 2.23561e-14 0 0 1.10823e-13 1.73491e-13 1.3906e-13 2.1776e-14 0 0 4.73272e-14 2.35495e-13 6.38758e-14 1.21957e-14 0 0 -2.87076e-15 2.59475e-13 7.92339e-14 5.95304e-14 0 0 5.26103e-15 2.35589e-13 2.00663e-13 5.10775e-14 0 0 8.99324e-14 1.68479e-13 3.44546e-13 2.27453e-14 0 0 1.24834e-13 1.5958e-13 4.2714e-13 2.11529e-14 0 0 2.65119e-14 4.39501e-13 2.07071e-13 2.56673e-13 0 0 1.8608e-13 3.35203e-13 4.20348e-13 1.08946e-13 0 0 2.02884e-13 3.98511e-13 4.43127e-13 9.85964e-14 0 0 1.96964e-13 4.96276e-13 3.5745e-13 1.69187e-13 0 0 2.53139e-13 4.85624e-13 3.68891e-13 1.87753e-13 0 0 2.00521e-13 5.99416e-13 3.06679e-13 2.60786e-13 0 0 3.62547e-13 4.14512e-13 4.73033e-13 1.69359e-13 0 0 4.08186e-13 4.40078e-13 3.55643e-13 3.11757e-13 0 0 3.45985e-13 5.34133e-13 2.75612e-13 3.59766e-13 0 0 4.91345e-13 2.53754e-13 6.13616e-13 1.11908e-13 0 0 3.75681e-13 4.55232e-13 4.31512e-13 1.6755e-13 0 0 2.87621e-13 5.85754e-13 2.68636e-13 2.61982e-13 0 0 4.58214e-13 3.05137e-13 4.61181e-13 2.24528e-13 0 0 3.71717e-13 4.91925e-13 1.69003e-13 4.1479e-13 0 0 4.45289e-13 4.05355e-13 1.94012e-13 3.62952e-13 0 0 4.40039e-13 4.13171e-13 2.07595e-13 3.03904e-13 0 0 3.42588e-13 5.71044e-13 7.26034e-14 3.46367e-13 0 0 4.26263e-13 4.09798e-13 2.38226e-13 2.71153e-13 0 0 2.91596e-13 5.72337e-13 3.8999e-14 4.35769e-13 0 0 3.7909e-13 4.129e-13 1.48229e-13 3.7327e-13 0 0 4.01069e-13 3.87518e-13 1.50817e-13 3.33894e-13 0 0 3.75701e-13 4.48354e-13 1.06034e-13 2.82888e-13 0 0 4.47685e-13 4.07498e-13 1.44152e-13 1.67304e-13 0 0 5.00286e-13 3.69545e-13 2.03187e-13 1.39443e-13 0 0 5.34512e-13 2.89369e-13 4.60372e-13 -7.12324e-14 0 0 3.4983e-13 5.95981e-13 2.74898e-13 -4.85025e-14 0 0 3.07927e-13 6.18908e-13 3.10866e-13 1.07577e-13 0 0 2.41257e-13 6.64275e-13 2.61892e-13 4.23942e-13 0 0 3.47052e-13 4.19754e-13 4.68287e-13 4.04864e-13 0 0 2.65416e-13 4.83391e-13 5.34461e-13 2.50841e-13 0 0 2.59647e-13 5.19443e-13 6.10747e-13 8.88344e-14 0 0 5.71698e-13 4.31484e-14 1.05831e-12 -1.69079e-13 0 0 3.14364e-13 4.37427e-13 5.28136e-13 3.5636e-13 0 0 5.37961e-14 8.20966e-13 1.1716e-13 6.09514e-13 0 0 2.82597e-15 7.11993e-13 4.41288e-13 1.57555e-13 0 0 1.36064e-13 5.02946e-13 4.66039e-13 2.01368e-13 0 0 5.21789e-13 -4.89521e-14 7.90896e-13 1.94764e-13 0 0 2.87001e-13 7.48176e-14 8.36041e-13 2.62318e-13 0 0 2.33836e-14 4.6527e-13 5.42743e-13 4.71361e-13 0 0 1.37758e-13 3.47705e-13 6.48342e-13 4.49723e-13 0 0 3.36184e-14 5.40827e-13 3.5269e-13 6.97114e-13 0 0 3.52314e-13 1.24995e-13 5.25891e-13 6.81045e-13 0 0 2.2745e-13 2.07273e-13 4.11693e-13 6.94294e-13 0 0 8.49632e-14 4.14984e-13 1.65252e-13 7.46485e-13 0 0 3.60567e-13 1.13393e-13 4.31598e-13 4.2226e-13 0 0 1.22986e-13 5.50286e-13 1.0126e-13 3.53738e-13 0 0 1.61231e-13 3.91695e-13 3.99451e-13 -1.88401e-14 0 0 2.913e-13 1.63932e-13 5.95226e-13 -1.13523e-13 0 0 2.92373e-13 2.57063e-13 3.32034e-13 9.23469e-14 0 0 2.69035e-13 2.89777e-13 2.56419e-13 1.2719e-13 0 0 1.56575e-13 5.44211e-13 5.37654e-14 8.62308e-14 0 0 2.34346e-13 3.63658e-13 4.19266e-13 -3.17105e-13 0 0 1.00584e-13 5.2886e-13 2.63087e-13 2.32663e-14 0 0 3.24148e-13 2.968e-13 3.10318e-13 3.10852e-13 0 0 6.35618e-13 -1.06242e-13 5.0301e-13 3.33283e-13 0 0 3.24687e-13 3.52324e-13 -2.41459e-14 6.48135e-13 0 0 4.03505e-13 1.1916e-13 2.24451e-13 5.55109e-13 0 0 4.24026e-13 3.4341e-14 3.50968e-13 5.49185e-13 0 0 4.38133e-13 2.00846e-13 -3.54971e-15 7.90723e-13 0 0 8.91461e-13 -3.86758e-13 4.7312e-13 5.09906e-13 0 0 7.00856e-13 -2.21443e-13 5.47459e-13 4.58545e-13 0 0 3.77857e-13 3.09731e-13 -9.94266e-15 8.77208e-13 0 0 4.93759e-13 2.58199e-13 -6.50093e-14 9.61001e-13 0 0 7.34704e-13 1.7999e-13 -2.00321e-13 1.13015e-12 0 0 9.96368e-13 -3.49917e-14 -6.21852e-14 9.66609e-13 0 0 5.68684e-13 5.91943e-13 -4.65948e-13 1.00925e-12 0 0 4.21666e-13 6.10606e-13 -5.27807e-13 1.19498e-12 0 0 7.23787e-13 -7.41083e-14 3.19878e-14 1.01861e-12 0 0 7.1687e-13 -5.82084e-14 -2.99239e-14 1.05426e-12 0
				</DataArray>
				<DataArray Name="VitesseY" type="Float32" format="ascii">