<?xml version="1.0"?>
<VTKFile type="PolyData">
	<PolyData>
		<Piece NumberOfPoints="1206" NumberOfPolys="1000">
			<Points>
				<DataArray type="Float32" NumberOfComponents="3" format="ascii">
 0 0 0 0.02 0 0 0.04 0 0 0.06 0 0 0.08 0 0 0.1 0 0 0 0.005 0 0.02 0.005 0 0.04 0.005 0 0.06 0.005 0 0.08 0.005 0 0.1 0.005 0 0 0.01 0 0.02 0.01 0 0.04 0.01 0 0.06 0.01 0 0.08 0.01 0 0.1 0.01 0 0 0.015 0 0.02 0.015 0 0.04 0.015 0 0.06 0.015 0 0.08 0.015 0 0.1 0.015 0 0 0.02 0 0.02 0.02 0 0.04 0.02 0 0.06 0.02 0 0.08 0.02 0 0.1 0.02 0 0 0.025 0 0.02 0.025 0 0.04 0.025 0 0.06 0.025 0 0.08 0.025 0 0.1 0.025 0 0 0.03 0 0.02 0.03 0 0.04 0.03 0 0.06 0.03 0 0.08 0.03 0 0.1 0.03 0 0 0.035 0 0.02 0.035 0 0.04 0.035 0 0.06 0.035 0 0.08 0.035 0 0.1 0.035 0 0 0.04 0 0.02 0.04 0 0.04 0.04 0 0.06 0.04 0 0.08 0.04 0 0.1 0.04 0 0 0.045 0 0.02 0.045 0 0.04 0.045 0 0.06 0.045 0 0.08 0.045 0 0.1 0.045 0 0 0.05 0 0.02 0.05 0 0.04 0.05 0 0.06 0.05 0 0.08 0.05 0 0.1 0.05 0 0 0.055 0 0.02 0.055 0 0.04 0.055 0 0.06 0.055 0 0.08 0.055 0 0.1 0.055 0 0 0.06 0 0.02 0.06 0 0.04 0.06 0 0.06 0.06 0 0.08 0.06 0 0.1 0.06 0 0 0.065 0 0.02 0.065 0 0.04 0.065 0 0.06 0.065 0 0.08 0.065 0 0.1 0.065 0 0 0.07 0 0.02 0.07 0 0.04 0.07 0 0.06 0.07 0 0.08 0.07 0 0.1 0.07 0 0 0.075 0 0.02 0.075 0 0.04 0.075 0 0.06 0.075 0 0.08 0.075 0 0.1 0.075 0 0 0.08 0 0.02 0.08 0 0.04 0.08 0 0.06 0.08 0 0.08 0.08 0 0.1 0.08 0 0 0.085 0 0.02 0.085 0 0.04 0.085 0 0.06 0.085 0 0.08 0.085 0 0.1 0.085 0 0 0.09 0 0.02 0.09 0 0.04 0.09 0 0.06 0.09 0 0.08 0.09 0 0.1 0.09 0 0 0.095 0 0.02 0.095 0 0.04 0.095 0 0.06 0.095 0 0.08 0.095 0 0.1 0.095 0 0 0.1 0 0.02 0.1 0 0.04 0.1 0 0.06 0.1 0 0.08 0.1 0 0.1 0.1 0 0 0.105 0 0.02 0.105 0 0.04 0.105 0 0.06 0.105 0 0.08 0.105 0 0.1 0.105 0 0 0.11 0 0.02 0.11 0 0.04 0.11 0 0.06 0.11 0 0.08 0.11 0 0.1 0.11 0 0 0.115 0 0.02 0.115 0 0.04 0.115 0 0.06 0.115 0 0.08 0.115 0 0.1 0.115 0 0 0.12 0 0.02 0.12 0 0.04 0.12 0 0.06 0.12 0 0.08 0.12 0 0.1 0.12 0 0 0.125 0 0.02 0.125 0 0.04 0.125 0 0.06 0.125 0 0.08 0.125 0 0.1 0.125 0 0 0.13 0 0.02 0.13 0 0.04 0.13 0 0.06 0.13 0 0.08 0.13 0 0.1 0.13 0 0 0.135 0 0.02 0.135 0 0.04 0.135 0 0.06 0.135 0 0.08 0.135 0 0.1 0.135 0 0 0.14 0 0.02 0.14 0 0.04 0.14 0 0.06 0.14 0 0.08 0.14 0 0.1 0.14 0 0 0.145 0 0.02 0.145 0 0.04 0.145 0 0.06 0.145 0 0.08 0.145 0 0.1 0.145 0 0 0.15 0 0.02 0.15 0 0.04 0.15 0 0.06 0.15 0 0.08 0.15 0 0.1 0.15 0 0 0.155 0 0.02 0.155 0 0.04 0.155 0 0.06 0.155 0 0.08 0.155 0 0.1 0.155 0 0 0.16 0 0.02 0.16 0 0.04 0.16 0 0.06 0.16 0 0.08 0.16 0 0.1 0.16 0 0 0.165 0 0.02 0.165 0 0.04 0.165 0 0.06 0.165 0 0.08 0.165 0 0.1 0.165 0 0 0.17 0 0.02 0.17 0 0.04 0.17 0 0.06 0.17 0 0.08 0.17 0 0.1 0.17 0 0 0.175 0 0.02 0.175 0 0.04 0.175 0 0.06 0.175 0 0.08 0.175 0 0.1 0.175 0 0 0.18 0 0.02 0.18 0 0.04 0.18 0 0.06 0.18 0 0.08 0.18 0 0.1 0.18 0 0 0.185 0 0.02 0.185 0 0.04 0.185 0 0.06 0.185 0 0.08 0.185 0 0.1 0.185 0 0 0.19 0 0.02 0.19 0 0.04 0.19 0 0.06 0.19 0 0.08 0.19 0 0.1 0.19 0 0 0.195 0 0.02 0.195 0 0.04 0.195 0 0.06 0.195 0 0.08 0.195 0 0.1 0.195 0 0 0.2 0 0.02 0.2 0 0.04 0.2 0 0.06 0.2 0 0.08 0.2 0 0.1 0.2 0 0 0.205 0 0.02 0.205 0 0.04 0.205 0 0.06 0.205 0 0.08 0.205 0 0.1 0.205 0 0 0.21 0 0.02 0.21 0 0.04 0.21 0 0.06 0.21 0 0.08 0.21 0 0.1 0.21 0 0 0.215 0 0.02 0.215 0 0.04 0.215 0 0.06 0.215 0 0.08 0.215 0 0.1 0.215 0 0 0.22 0 0.02 0.22 0 0.04 0.22 0 0.06 0.22 0 0.08 0.22 0 0.1 0.22 0 0 0.225 0 0.02 0.225 0 0.04 0.225 0 0.06 0.225 0 0.08 0.225 0 0.1 0.225 0 0 0.23 0 0.02 0.23 0 0.04 0.23 0 0.06 0.23 0 0.08 0.23 0 0.1 0.23 0 0 0.235 0 0.02 0.235 0 0.04 0.235 0 0.06 0.235 0 0.08 0.235 0 0.1 0.235 0 0 0.24 0 0.02 0.24 0 0.04 0.24 0 0.06 0.24 0 0.08 0.24 0 0.1 0.24 0 0 0.245 0 0.02 0.245 0 0.04 0.245 0 0.06 0.245 0 0.08 0.245 0 0.1 0.245 0 0 0.25 0 0.02 0.25 0 0.04 0.25 0 0.06 0.25 0 0.08 0.25 0 0.1 0.25 0 0 0.255 0 0.02 0.255 0 0.04 0.255 0 0.06 0.255 0 0.08 0.255 0 0.1 0.255 0 0 0.26 0 0.02 0.26 0 0.04 0.26 0 0.06 0.26 0 0.08 0.26 0 0.1 0.26 0 0 0.265 0 0.02 0.265 0 0.04 0.265 0 0.06 0.265 0 0.08 0.265 0 0.1 0.265 0 0 0.27 0 0.02 0.27 0 0.04 0.27 0 0.06 0.27 0 0.08 0.27 0 0.1 0.27 0 0 0.275 0 0.02 0.275 0 0.04 0.275 0 0.06 0.275 0 0.08 0.275 0 0.1 0.275 0 0 0.28 0 0.02 0.28 0 0.04 0.28 0 0.06 0.28 0 0.08 0.28 0 0.1 0.28 0 0 0.285 0 0.02 0.285 0 0.04 0.285 0 0.06 0.285 0 0.08 0.285 0 0.1 0.285 0 0 0.29 0 0.02 0.29 0 0.04 0.29 0 0.06 0.29 0 0.08 0.29 0 0.1 0.29 0 0 0.295 0 0.02 0.295 0 0.04 0.295 0 0.06 0.295 0 0.08 0.295 0 0.1 0.295 0 0 0.3 0 0.02 0.3 0 0.04 0.3 0 0.06 0.3 0 0.08 0.3 0 0.1 0.3 0 0 0.305 0 0.02 0.305 0 0.04 0.305 0 0.06 0.305 0 0.08 0.305 0 0.1 0.305 0 0 0.31 0 0.02 0.31 0 0.04 0.31 0 0.06 0.31 0 0.08 0.31 0 0.1 0.31 0 0 0.315 0 0.02 0.315 0 0.04 0.315 0 0.06 0.315 0 0.08 0.315 0 0.1 0.315 0 0 0.32 0 0.02 0.32 0 0.04 0.32 0 0.06 0.32 0 0.08 0.32 0 0.1 0.32 0 0 0.325 0 0.02 0.325 0 0.04 0.325 0 0.06 0.325 0 0.08 0.325 0 0.1 0.325 0 0 0.33 0 0.02 0.33 0 0.04 0.33 0 0.06 0.33 0 0.08 0.33 0 0.1 0.33 0 0 0.335 0 0.02 0.335 0 0.04 0.335 0 0.06 0.335 0 0.08 0.335 0 0.1 0.335 0 0 0.34 0 0.02 0.34 0 0.04 0.34 0 0.06 0.34 0 0.08 0.34 0 0.1 0.34 0 0 0.345 0 0.02 0.345 0 0.04 0.345 0 0.06 0.345 0 0.08 0.345 0 0.1 0.345 0 0 0.35 0 0.02 0.35 0 0.04 0.35 0 0.06 0.35 0 0.08 0.35 0 0.1 0.35 0 0 0.355 0 0.02 0.355 0 0.04 0.355 0 0.06 0.355 0 0.08 0.355 0 0.1 0.355 0 0 0.36 0 0.02 0.36 0 0.04 0.36 0 0.06 0.36 0 0.08 0.36 0 0.1 0.36 0 0 0.365 0 0.02 0.365 0 0.04 0.365 0 0.06 0.365 0 0.08 0.365 0 0.1 0.365 0 0 0.37 0 0.02 0.37 0 0.04 0.37 0 0.06 0.37 0 0.08 0.37 0 0.1 0.37 0 0 0.375 0 0.02 0.375 0 0.04 0.375 0 0.06 0.375 0 0.08 0.375 0 0.1 0.375 0 0 0.38 0 0.02 0.38 0 0.04 0.38 0 0.06 0.38 0 0.08 0.38 0 0.1 0.38 0 0 0.385 0 0.02 0.385 0 0.04 0.385 0 0.06 0.385 0 0.08 0.385 0 0.1 0.385 0 0 0.39 0 0.02 0.39 0 0.04 0.39 0 0.06 0.39 0 0.08 0.39 0 0.1 0.39 0 0 0.395 0 0.02 0.395 0 0.04 0.395 0 0.06 0.395 0 0.08 0.395 0 0.1 0.395 0 0 0.4 0 0.02 0.4 0 0.04 0.4 0 0.06 0.4 0 0.08 0.4 0 0.1 0.4 0 0 0.405 0 0.02 0.405 0 0.04 0.405 0 0.06 0.405 0 0.08 0.405 0 0.1 0.405 0 0 0.41 0 0.02 0.41 0 0.04 0.41 0 0.06 0.41 0 0.08 0.41 0 0.1 0.41 0 0 0.415 0 0.02 0.415 0 0.04 0.415 0 0.06 0.415 0 0.08 0.415 0 0.1 0.415 0 0 0.42 0 0.02 0.42 0 0.04 0.42 0 0.06 0.42 0 0.08 0.42 0 0.1 0.42 0 0 0.425 0 0.02 0.425 0 0.04 0.425 0 0.06 0.425 0 0.08 0.425 0 0.1 0.425 0 0 0.43 0 0.02 0.43 0 0.04 0.43 0 0.06 0.43 0 0.08 0.43 0 0.1 0.43 0 0 0.435 0 0.02 0.435 0 0.04 0.435 0 0.06 0.435 0 0.08 0.435 0 0.1 0.435 0 0 0.44 0 0.02 0.44 0 0.04 0.44 0 0.06 0.44 0 0.08 0.44 0 0.1 0.44 0 0 0.445 0 0.02 0.445 0 0.04 0.445 0 0.06 0.445 0 0.08 0.445 0 0.1 0.445 0 0 0.45 0 0.02 0.45 0 0.04 0.45 0 0.06 0.45 0 0.08 0.45 0 0.1 0.45 0 0 0.455 0 0.02 0.455 0 0.04 0.455 0 0.06 0.455 0 0.08 0.455 0 0.1 0.455 0 0 0.46 0 0.02 0.46 0 0.04 0.46 0 0.06 0.46 0 0.08 0.46 0 0.1 0.46 0 0 0.465 0 0.02 0.465 0 0.04 0.465 0 0.06 0.465 0 0.08 0.465 0 0.1 0.465 0 0 0.47 0 0.02 0.47 0 0.04 0.47 0 0.06 0.47 0 0.08 0.47 0 0.1 0.47 0 0 0.475 0 0.02 0.475 0 0.04 0.475 0 0.06 0.475 0 0.08 0.475 0 0.1 0.475 0 0 0.48 0 0.02 0.48 0 0.04 0.48 0 0.06 0.48 0 0.08 0.48 0 0.1 0.48 0 0 0.485 0 0.02 0.485 0 0.04 0.485 0 0.06 0.485 0 0.08 0.485 0 0.1 0.485 0 0 0.49 0 0.02 0.49 0 0.04 0.49 0 0.06 0.49 0 0.08 0.49 0 0.1 0.49 0 0 0.495 0 0.02 0.495 0 0.04 0.495 0 0.06 0.495 0 0.08 0.495 0 0.1 0.495 0 0 0.5 0 0.02 0.5 0 0.04 0.5 0 0.06 0.5 0 0.08 0.5 0 0.1 0.5 0 0 0.505 0 0.02 0.505 0 0.04 0.505 0 0.06 0.505 0 0.08 0.505 0 0.1 0.505 0 0 0.51 0 0.02 0.51 0 0.04 0.51 0 0.06 0.51 0 0.08 0.51 0 0.1 0.51 0 0 0.515 0 0.02 0.515 0 0.04 0.515 0 0.06 0.515 0 0.08 0.515 0 0.1 0.515 0 0 0.52 0 0.02 0.52 0 0.04 0.52 0 0.06 0.52 0 0.08 0.52 0 0.1 0.52 0 0 0.525 0 0.02 0.525 0 0.04 0.525 0 0.06 0.525 0 0.08 0.525 0 0.1 0.525 0 0 0.53 0 0.02 0.53 0 0.04 0.53 0 0.06 0.53 0 0.08 0.53 0 0.1 0.53 0 0 0.535 0 0.02 0.535 0 0.04 0.535 0 0.06 0.535 0 0.08 0.535 0 0.1 0.535 0 0 0.54 0 0.02 0.54 0 0.04 0.54 0 0.06 0.54 0 0.08 0.54 0 0.1 0.54 0 0 0.545 0 0.02 0.545 0 0.04 0.545 0 0.06 0.545 0 0.08 0.545 0 0.1 0.545 0 0 0.55 0 0.02 0.55 0 0.04 0.55 0 0.06 0.55 0 0.08 0.55 0 0.1 0.55 0 0 0.555 0 0.02 0.555 0 0.04 0.555 0 0.06 0.555 0 0.08 0.555 0 0.1 0.555 0 0 0.56 0 0.02 0.56 0 0.04 0.56 0 0.06 0.56 0 0.08 0.56 0 0.1 0.56 0 0 0.565 0 0.02 0.565 0 0.04 0.565 0 0.06 0.565 0 0.08 0.565 0 0.1 0.565 0 0 0.57 0 0.02 0.57 0 0.04 0.57 0 0.06 0.57 0 0.08 0.57 0 0.1 0.57 0 0 0.575 0 0.02 0.575 0 0.04 0.575 0 0.06 0.575 0 0.08 0.575 0 0.1 0.575 0 0 0.58 0 0.02 0.58 0 0.04 0.58 0 0.06 0.58 0 0.08 0.58 0 0.1 0.58 0 0 0.585 0 0.02 0.585 0 0.04 0.585 0 0.06 0.585 0 0.08 0.585 0 0.1 0.585 0 0 0.59 0 0.02 0.59 0 0.04 0.59 0 0.06 0.59 0 0.08 0.59 0 0.1 0.59 0 0 0.595 0 0.02 0.595 0 0.04 0.595 0 0.06 0.595 0 0.08 0.595 0 0.1 0.595 0 0 0.6 0 0.02 0.6 0 0.04 0.6 0 0.06 0.6 0 0.08 0.6 0 0.1 0.6 0 0 0.605 0 0.02 0.605 0 0.04 0.605 0 0.06 0.605 0 0.08 0.605 0 0.1 0.605 0 0 0.61 0 0.02 0.61 0 0.04 0.61 0 0.06 0.61 0 0.08 0.61 0 0.1 0.61 0 0 0.615 0 0.02 0.615 0 0.04 0.615 0 0.06 0.615 0 0.08 0.615 0 0.1 0.615 0 0 0.62 0 0.02 0.62 0 0.04 0.62 0 0.06 0.62 0 0.08 0.62 0 0.1 0.62 0 0 0.625 0 0.02 0.625 0 0.04 0.625 0 0.06 0.625 0 0.08 0.625 0 0.1 0.625 0 0 0.63 0 0.02 0.63 0 0.04 0.63 0 0.06 0.63 0 0.08 0.63 0 0.1 0.63 0 0 0.635 0 0.02 0.635 0 0.04 0.635 0 0.06 0.635 0 0.08 0.635 0 0.1 0.635 0 0 0.64 0 0.02 0.64 0 0.04 0.64 0 0.06 0.64 0 0.08 0.64 0 0.1 0.64 0 0 0.645 0 0.02 0.645 0 0.04 0.645 0 0.06 0.645 0 0.08 0.645 0 0.1 0.645 0 0 0.65 0 0.02 0.65 0 0.04 0.65 0 0.06 0.65 0 0.08 0.65 0 0.1 0.65 0 0 0.655 0 0.02 0.655 0 0.04 0.655 0 0.06 0.655 0 0.08 0.655 0 0.1 0.655 0 0 0.66 0 0.02 0.66 0 0.04 0.66 0 0.06 0.66 0 0.08 0.66 0 0.1 0.66 0 0 0.665 0 0.02 0.665 0 0.04 0.665 0 0.06 0.665 0 0.08 0.665 0 0.1 0.665 0 0 0.67 0 0.02 0.67 0 0.04 0.67 0 0.06 0.67 0 0.08 0.67 0 0.1 0.67 0 0 0.675 0 0.02 0.675 0 0.04 0.675 0 0.06 0.675 0 0.08 0.675 0 0.1 0.675 0 0 0.68 0 0.02 0.68 0 0.04 0.68 0 0.06 0.68 0 0.08 0.68 0 0.1 0.68 0 0 0.685 0 0.02 0.685 0 0.04 0.685 0 0.06 0.685 0 0.08 0.685 0 0.1 0.685 0 0 0.69 0 0.02 0.69 0 0.04 0.69 0 0.06 0.69 0 0.08 0.69 0 0.1 
[...]
			<PointData Scalars="VitesseX">
				<DataArray Name="VitesseX" type="Float32" format="ascii">
 0 3.71328e-14 1.23459e-14 1.23385e-14 5.16491e-14 0 0 2.57926e-14 2.50919e-14 1.0359e-14 4.32169e-14 0 0 2.44165e-14 2.02422e-14 3.35838e-14 1.14923e-14 0 0 6.19601e-15 4.50527e-14 2.4653e-14 1.79191e-15 0 0 4.95551e-16 6.12835e-14 5.76311e-15 7.61839e-15 0 0 4.76796e-14 1.05571e-14 3.32348e-14 -7.00562e-15 0 0 6.17429e-14 9.91027e-16 3.68742e-14 -1.71288e-14 0 0 4.61895e-14 1.99502e-14 2.25403e-14 -1.64323e-14 0 0 3.78793e-14 3.52183e-14 -3.51102e-15 5.03965e-15 0 0 2.95711e-14 4.88723e-14 -2.6935e-14 3.41407e-14 0 0 5.84357e-15 8.55475e-14 -5.55701e-14 5.36543e-14 0 0 2.9434e-14 5.10528e-14 5.50541e-15 -4.41688e-15 0 0 2.27393e-14 5.88541e-14 2.18046e-14 -2.534e-14 0 0 2.57541e-14 6.83907e-14 8.72939e-15 -1.10312e-15 0 0 3.87803e-14 4.83915e-14 3.38574e-14 -5.99631e-15 0 0 5.51773e-15 8.58827e-14 6.19517e-15 1.94391e-14 0 0 3.27767e-14 3.88388e-14 5.27632e-14 2.0921e-15 0 0 1.10714e-14 6.25916e-14 2.67951e-14 2.54696e-14 0 0 8.86569e-15 4.70473e-14 4.38494e-14 2.47453e-14 0 0 4.47619e-14 -7.48546e-15 1.0119e-13 -7.00723e-15 0 0 4.75304e-14 1.42258e-14 8.14988e-14 7.04207e-15 0 0 5.01519e-14 4.15942e-14 5.81189e-14 4.1031e-14 0 0 6.46839e-14 4.38662e-14 5.05644e-14 7.89995e-14 0 0 7.14037e-14 5.38353e-14 4.12175e-14 8.67546e-14 0 0 4.63304e-14 1.03146e-13 6.6353e-15 9.43049e-14 0 0 5.5358e-14 8.05225e-14 3.57601e-14 8.03644e-14 0 0 8.07989e-14 5.78799e-14 4.89028e-14 6.75975e-14 0 0 7.39132e-14 1.12525e-13 -2.30869e-15 7.23861e-14 0 0 4.99579e-14 1.34966e-13 1.35478e-14 3.87963e-14 0 0 3.27843e-14 1.17268e-13 4.34756e-14 9.87876e-15 0 0 7.64462e-14 3.85459e-14 1.12543e-13 -7.35123e-14 0 0 6.61481e-14 5.52441e-14 7.49763e-14 -6.44074e-14 0 0 3.2868e-14 1.0771e-13 -2.20491e-14 4.18183e-14 0 0 7.45039e-14 2.92836e-14 4.04819e-14 3.49367e-14 0 0 9.27431e-14 -7.9423e-15 7.21773e-14 1.32401e-14 0 0 1.30906e-13 -4.62007e-14 6.83991e-14 3.3105e-14 0 0 1.02188e-13 2.50063e-14 -2.37532e-14 8.72366e-14 0 0 8.2061e-14 4.36327e-14 -1.26726e-14 3.52367e-14 0 0 6.4168e-15 1.23971e-13 -8.09342e-14 1.20237e-13 0 0 -2.41718e-14 1.61808e-13 -1.2359e-13 1.9946e-13 0 0 1.35726e-13 -2.32085e-14 6.04915e-14 8.26292e-14 0 0 1.77444e-13 3.15567e-15 6.59019e-14 4.44346e-14 0 0 2.70473e-13 -3.5667e-14 9.17411e-14 6.07779e-15 0 0 3.27722e-13 -6.56656e-14 1.42113e-13 -4.36802e-14 0 0 2.09985e-13 7.41562e-14 8.68919e-14 -5.67121e-14 0 0 1.83503e-13 8.26604e-14 8.06425e-14 -3.66677e-15 0 0 1.28949e-13 1.66379e-13 -6.01146e-14 1.62218e-13 0 0 1.29015e-13 1.46255e-13 -7.88666e-14 2.11856e-13 0 0 1.98317e-13 -6.66291e-15 6.40535e-14 1.81948e-13 0 0 2.7614e-13 -2.06914e-13 2.89032e-13 6.07457e-14 0 0 3.02797e-13 -2.96637e-13 3.95558e-13 -3.547e-14 0 0 1.77748e-13 -5.41861e-14 1.27436e-13 1.06632e-13 0 0 2.37309e-13 -1.18649e-13 1.70817e-13 5.48308e-14 0 0 1.93404e-13 -3.88372e-14 3.07834e-14 1.42747e-13 0 0 1.14797e-13 1.18922e-13 -1.99995e-13 2.88934e-13 0 0 2.26896e-13 -1.06431e-13 4.23797e-14 1.13803e-13 0 0 1.08018e-13 3.21858e-14 -4.64974e-14 1.41488e-13 0 0 1.00372e-13 6.53303e-14 -4.59292e-14 1.4553e-13 0 0 1.39307e-13 9.98893e-15 3.50845e-14 1.18207e-13 0 0 1.1055e-13 1.09472e-14 8.31949e-14 6.1942e-14 0 0 1.06387e-13 1.46098e-14 7.84853e-14 6.59939e-14 0 0 1.23028e-13 8.72826e-14 -5.07666e-14 1.46766e-13 0 0 2.24717e-13 -5.90613e-15 8.03937e-14 -3.80103e-14 0 0 1.56862e-13 1.02933e-13 -9.80025e-15 -3.10933e-14 0 0 1.19911e-13 1.25063e-13 3.92915e-14 -1.12703e-13 0 0 1.68787e-13 4.74934e-14 1.55027e-13 -2.15312e-13 0 0 6.72835e-14 2.5373e-13 -1.39195e-13 3.84835e-14 0 0 9.10337e-14 2.10677e-13 -5.41824e-14 -3.3452e-14 0 0 1.70291e-13 1.32521e-13 2.32684e-14 -5.7851e-14 0 0 1.84808e-13 1.68006e-13 -1.02686e-13 1.61941e-13 0 0 3.36728e-13 -7.94368e-14 1.09271e-13 1.31218e-13 0 0 2.83212e-13 3.35861e-14 1.96564e-14 2.1869e-13 0 0 2.77123e-13 1.18044e-13 5.36638e-15 1.97942e-13 0 0 2.34761e-13 2.65255e-13 -1.81922e-13 3.33851e-13 0 0 3.79419e-13 8.04838e-14 -6.18681e-14 3.30981e-13 0 0 3.9141e-13 -3.96327e-14 1.95407e-13 2.09176e-13 0 0 5.98832e-14 3.7761e-13 -9.3094e-14 4.4651e-13 0 0 3.88473e-13 -1.3525e-13 3.47972e-13 2.98055e-13 0 0 2.19213e-13 7.72796e-14 2.76556e-13 3.49378e-13 0 0 2.845e-13 1.69338e-14 4.54785e-13 7.86109e-14 0 0 4.23318e-13 1.38889e-13 1.70826e-13 1.48723e-13 0 0 -3.19262e-15 8.30194e-13 -3.72129e-13 4.3306e-13 0 0 2.40912e-13 1.39546e-13 6.82818e-13 -2.83649e-13 0 0 6.32197e-14 4.11937e-13 5.0944e-13 -8.9033e-14 0 0 -1.80632e-13 1.19519e-12 -2.77227e-13 4.87347e-13 0 0 3.83202e-13 6.74654e-13 1.9832e-13 1.93615e-13 0 0 8.81559e-13 1.71525e-14 6.87693e-13 4.18577e-14 0 0 7.14737e-13 3.42519e-13 4.2596e-13 1.79047e-13 0 0 4.17539e-13 7.60751e-13 3.42098e-13 -2.45003e-14 0 0 1.00352e-13 8.25223e-13 7.07959e-13 -5.34677e-13 0 0 -1.7671e-13 8.56838e-13 7.24517e-13 -4.85541e-13 0 0 -1.89769e-13 8.87259e-13 5.20074e-13 -1.69266e-13 0 0 2.07146e-13 5.21956e-13 4.5735e-13 1.26472e-13 0 0 6.61023e-13 2.25202e-13 2.93783e-13 3.33564e-13 0 0 6.49063e-13 3.41652e-13 2.21066e-14 4.28247e-13 0 0 6.07153e-13 2.99558e-13 5.57679e-14 2.5909e-13 0 0 4.73126e-13 1.19334e-13 3.6773e-13 -1.27116e-13 0 0 4.16258e-13 7.23067e-14 4.73324e-13 -1.51863e-13 0 0 5.28426e-13 -7.42666e-14 4.21213e-13 4.67034e-14 0 0 6.36159e-13 -2.26215e-13 2.90364e-13 3.6742e-13 0 0 4.97143e-13 -9.38514e-14 -1.22176e-13 8.06574e-13 0 0 1.15049e-13 2.37182e-13 -5.27837e-13 1.05874e-12 0 0 -2.42877e-13 3.9358e-13 -5.20999e-13 9.92518e-13 0 0 -2.99568e-13 3.23795e-13 -3.06983e-13 6.89829e-13 0 0 -1.69262e-14 -3.70947e-14 7.42524e-14 3.45915e-13 0 0 3.93284e-13 -3.4322e-13 2.78652e-13 2.4326e-13 0 0 4.72087e-13 -3.50144e-13 2.9307e-13 2.31571e-13 0 0 3.80821e-13 -2.3852e-13 3.06331e-13 1.8926e-13 0 0 2.1236e-13 -1.62382e-13 3.70291e-13 1.0085e-13 0 0 9.90635e-14 -1.24287e-13 4.01046e-13 1.15759e-13 0 0 6.30079e-14 -8.45403e-14 3.97254e-13 1.31115e-13 0 0 3.30548e-14 -3.17403e-14 3.53588e-13 1.8053e-13 0 0 2.70801e-14 -1.90717e-14 3.48563e-13 1.82421e-13 0 0 2.08853e-14 -6.26561e-15 3.81614e-13 1.12874e-13 0 0 5.46907e-15 5.57626e-14 3.34103e-13 1.52562e-13 0 0 3.7643e-15 1.08475e-13 2.61443e-13 1.46449e-13 0 0 3.89575e-14 1.05681e-13 2.35911e-13 1.26395e-13 0 0 1.05768e-13 7.03945e-14 2.36123e-13 1.17151e-13 0 0 1.8013e-13 1.6236e-14 2.15893e-13 6.24368e-14 0 0 1.77223e-13 5.86115e-14 1.32811e-13 -6.02403e-16 0 0 1.53206e-13 1.51245e-13 -2.82142e-14 -3.06742e-14 0 0 1.56026e-13 1.39051e-13 -5.25061e-14 -3.97763e-14 0 0 1.47235e-13 1.11558e-13 -1.04312e-14 -8.27432e-14 0 0 9.8242e-14 1.30866e-13 3.40797e-14 -1.45789e-13 0 0 2.26848e-14 2.12147e-13 1.52317e-14 -1.04697e-13 0 0 4.33473e-14 2.11295e-13 -4.52668e-15 1.91484e-14 0 0 1.06589e-13 1.30983e-13 1.15712e-13 -1.84964e-14 0 0 1.56143e-13 1.17991e-13 1.81209e-13 -3.93939e-14 0 0 1.67026e-13 1.12317e-13 2.44584e-13 -3.51487e-14 0 0 1.3143e-13 1.75951e-13 2.51438e-13 6.80727e-14 0 0 1.62496e-13 1.81302e-13 2.40358e-13 1.35623e-13 0 0 2.74251e-13 5.66915e-14 3.53304e-13 4.05621e-14 0 0 3.12211e-13 5.55524e-14 3.48481e-13 1.06339e-14 0 0 2.90951e-13 1.46902e-13 2.57262e-13 3.74891e-14 0 0 2.12076e-13 2.7821e-13 1.56338e-13 1.49813e-13 0 0 2.2128e-13 2.32631e-13 3.28903e-13 7.08006e-14 0 0 2.57419e-13 1.98817e-13 4.29256e-13 5.7125e-14 0 0 2.88559e-13 1.89718e-13 4.14522e-13 1.43371e-13 0 0 3.68668e-13 8.85098e-14 5.16511e-13 1.34491e-13 0 0 3.50695e-13 2.24681e-13 3.23388e-13 2.30837e-13 0 0 3.35516e-13 3.64054e-13 1.25713e-13 2.88842e-13 0 0 4.1013e-13 3.14926e-13 1.6893e-13 2.45359e-13 0 0 4.09291e-13 3.5511e-13 2.03614e-13 1.60315e-13 0 0 4.42567e-13 3.07192e-13 3.32664e-13 -1.56868e-14 0 0 4.91318e-13 2.87493e-13 2.49872e-13 9.25433e-14 0 0 3.38018e-13 5.77294e-13 -1.66358e-13 4.54345e-13 0 0 4.34168e-13 3.43177e-13 7.40364e-14 2.72972e-13 0 0 5.63363e-13 7.20078e-14 3.70395e-13 1.03009e-14 0 0 5.3664e-13 1.61266e-13 2.19935e-13 6.5998e-14 0 0 3.78508e-13 4.56886e-13 -1.78134e-13 3.54668e-13 0 0 2.95913e-13 6.21474e-13 -3.78415e-13 5.09113e-13 0 0 6.6382e-13 4.15638e-14 2.1238e-13 1.48172e-13 0 0 6.93816e-13 -2.14664e-14 2.79994e-13 5.85009e-14 0 0 4.21777e-13 3.0248e-13 1.63203e-13 -8.29455e-14 0 0 1.80868e-13 5.83498e-13 4.91523e-14 -9.17999e-14 0 0 3.32084e-13 4.30573e-13 8.22167e-14 1.24063e-13 0 0 6.52325e-13 -2.70469e-14 4.15795e-13 1.55415e-13 0 0 4.62092e-13 8.75952e-14 4.42284e-13 2.68862e-13 0 0 9.38731e-14 4.18738e-13 4.69016e-13 1.54802e-13 0 0 -1.83997e-13 8.36489e-13 -1.06076e-14 5.34088e-13 0 0 -9.08562e-14 6.80226e-13 1.26911e-13 5.62834e-13 0 0 3.63994e-13 -1.10554e-13 1.15367e-12 -3.02476e-13 0 0 6.37073e-13 -4.72917e-13 1.49659e-12 -6.40638e-13 0 0 3.25874e-13 -2.90761e-14 1.02086e-12 -2.73046e-13 0 0 -3.81677e-13 9.19152e-13 4.43833e-14 5.03707e-13 0 0 -5.20597e-13 1.01783e-12 -6.67638e-14 6.19705e-13 0 0 8.33348e-14 1.25971e-13 6.21223e-13 2.38741e-13 0 0 4.01034e-13 -2.42734e-13 6.97143e-13 4.33242e-13 0 0 3.59099e-13 -2.55547e-13 7.75435e-13 4.89006e-13 0 0 2.91828e-13 -1.85545e-13 8.92894e-13 3.3965e-13 0 0 1.44371e-13 3.12041e-14 7.67183e-13 4.05911e-13 0 0 -4.59728e-14 2.54807e-13 5.37596e-13 5.38057e-13 0 0 -1.50269e-13 4.4171e-13 2.36232e-13 7.2791e-13 0 0 2.00443e-13 -5.21385e-14 5.29986e-13 5.67204e-13 0 0 4.17979e-13 -2.886e-13 5.81456e-13 4.25008e-13 0 0 2.44144e-13 1.54206e-14 4.10023e-13 2.78177e-13 0 0 5.85415e-14 2.56119e-13 2.38284e-13 2.93556e-13 0 0 2.7141e-14 3.52509e-13 7.22862e-14 3.72607e-13 0 0 3.78497e-13 -3.82641e-14 3.78739e-13 1.36899e-13 0 0 4.62856e-13 -4.13438e-14 3.6739e-13 1.76412e-14 0 0 3.46565e-13 1.08026e-13 3.27722e-13 -8.20872e-14 0 0 1.52454e-13 2.83509e-13 1.20959e-13 2.65696e-13 0 0 -9.8585e-14 6.42861e-13 -1.66723e-13 5.51593e-13 0 0 2.52674e-13 1.64997e-13 2.32208e-13 3.60518e-13 0 0 5.63116e-13 -1.90356e-13 3.74127e-13 4.21768e-13 0 0 3.82308e-13 1.90114e-13 -9.41675e-14 6.5398e-13 0 0 3.35832e-13 3.14376e-13 -2.25143e-13 5.80998e-13 0 0 3.81418e-13 2.54756e-13 7.13253e-15 2.08602e-13 0 0 5.37106e-13 1.10674e-13 2.83111e-13 -1.91098e-13 0 0 7.6844e-13 -1.24021e-13 4.6519e-13 -2.30581e-13 0 0 6.26017e-13 1.608e-13 -1.19418e-13 4.12379e-13 0 0 4.45887e-13 5.02862e-13 -5.12534e-13 6.65047e-13 0 0 5.92285e-13 2.89772e-13 -2.00864e-13 3.90258e-13 0 0 7.82013e-13 -2.38017e-13 2.793e-13 2.68688e-13 0 0 5.08034e-13 6.59927e-14 1.05562e-13 3.9699e-13 0 0 9.4281e-14 9.31989e-13 -8.01516e-13 9.12993e-13 0 0 5.18665e-13 4.4943e-13 -5.96402e-13 9.12779e-13 0 0 1.05024e-12 -2.7455e-13 -2.29622e-14 6.25657e-13 0 0 9.41395e-13 -1.18289e-13 -7.89825e-14 6.96839e-13 0 0 2.04417e-13 9.13156e-13 -7.49738e-13 1.0545e-12 0 0 -4.02407e-13 1.76094e-12 -1.33664e-12 1.34367e-12 0
				</DataArray>
				<DataArray Name="VitesseY" type="Float32" format="ascii">