<?xml version="1.0"?>
<VTKFile type="PolyData">
	<PolyData>
		<Piece NumberOfPoints="1206" NumberOfPolys="1000">
			<Points>
				<DataArray type="Float32" NumberOfComponents="3" format="ascii">
 0 0 0 0.02 0 0 0.04 0 0 0.06 0 0 0.08 0 0 0.1 0 0 0 0.005 0 0.02 0.005 0 0.04 0.005 0 0.06 0.005 0 0.08 0.005 0 0.1 0.005 0 0 0.01 0 0.02 0.01 0 0.04 0.01 0 0.06 0.01 0 0.08 0.01 0 0.1 0.01 0 0 0.015 0 0.02 0.015 0 0.04 0.015 0 0.06 0.015 0 0.08 0.015 0 0.1 0.015 0 0 0.02 0 0.02 0.02 0 0.04 0.02 0 0.06 0.02 0 0.08 0.02 0 0.1 0.02 0 0 0.025 0 0.02 0.025 0 0.04 0.025 0 0.06 0.025 0 0.08 0.025 0 0.1 0.025 0 0 0.03 0 0.02 0.03 0 0.04 0.03 0 0.06 0.03 0 0.08 0.03 0 0.1 0.03 0 0 0.035 0 0.02 0.035 0 0.04 0.035 0 0.06 0.035 0 0.08 0.035 0 0.1 0.035 0 0 0.04 0 0.02 0.04 0 0.04 0.04 0 0.06 0.04 0 0.08 0.04 0 0.1 0.04 0 0 0.045 0 0.02 0.045 0 0.04 0.045 0 0.06 0.045 0 0.08 0.045 0 0.1 0.045 0 0 0.05 0 0.02 0.05 0 0.04 0.05 0 0.06 0.05 0 0.08 0.05 0 0.1 0.05 0 0 0.055 0 0.02 0.055 0 0.04 0.055 0 0.06 0.055 0 0.08 0.055 0 0.1 0.055 0 0 0.06 0 0.02 0.06 0 0.04 0.06 0 0.06 0.06 0 0.08 0.06 0 0.1 0.06 0 0 0.065 0 0.02 0.065 0 0.04 0.065 0 0.06 0.065 0 0.08 0.065 0 0.1 0.065 0 0 0.07 0 0.02 0.07 0 0.04 0.07 0 0.06 0.07 0 0.08 0.07 0 0.1 0.07 0 0 0.075 0 0.02 0.075 0 0.04 0.075 0 0.06 0.075 0 0.08 0.075 0 0.1 0.075 0 0 0.08 0 0.02 0.08 0 0.04 0.08 0 0.06 0.08 0 0.08 0.08 0 0.1 0.08 0 0 0.085 0 0.02 0.085 0 0.04 0.085 0 0.06 0.085 0 0.08 0.085 0 0.1 0.085 0 0 0.09 0 0.02 0.09 0 0.04 0.09 0 0.06 0.09 0 0.08 0.09 0 0.1 0.09 0 0 0.095 0 0.02 0.095 0 0.04 0.095 0 0.06 0.095 0 0.08 0.095 0 0.1 0.095 0 0 0.1 0 0.02 0.1 0 0.04 0.1 0 0.06 0.1 0 0.08 0.1 0 0.1 0.1 0 0 0.105 0 0.02 0.105 0 0.04 0.105 0 0.06 0.105 0 0.08 0.105 0 0.1 0.105 0 0 0.11 0 0.02 0.11 0 0.04 0.11 0 0.06 0.11 0 0.08 0.11 0 0.1 0.11 0 0 0.115 0 0.02 0.115 0 0.04 0.115 0 0.06 0.115 0 0.08 0.115 0 0.1 0.115 0 0 0.12 0 0.02 0.12 0 0.04 0.12 0 0.06 0.12 0 0.08 0.12 0 0.1 0.12 0 0 0.125 0 0.02 0.125 0 0.04 0.125 0 0.06 0.125 0 0.08 0.125 0 0.1 0.125 0 0 0.13 0 0.02 0.13 0 0.04 0.13 0 0.06 0.13 0 0.08 0.13 0 0.1 0.13 0 0 0.135 0 0.02 0.135 0 0.04 0.135 0 0.06 0.135 0 0.08 0.135 0 0.1 0.135 0 0 0.14 0 0.02 0.14 0 0.04 0.14 0 0.06 0.14 0 0.08 0.14 0 0.1 0.14 0 0 0.145 0 0.02 0.145 0 0.04 0.145 0 0.06 0.145 0 0.08 0.145 0 0.1 0.145 0 0 0.15 0 0.02 0.15 0 0.04 0.15 0 0.06 0.15 0 0.08 0.15 0 0.1 0.15 0 0 0.155 0 0.02 0.155 0 0.04 0.155 0 0.06 0.155 0 0.08 0.155 0 0.1 0.155 0 0 0.16 0 0.02 0.16 0 0.04 0.16 0 0.06 0.16 0 0.08 0.16 0 0.1 0.16 0 0 0.165 0 0.02 0.165 0 0.04 0.165 0 0.06 0.165 0 0.08 0.165 0 0.1 0.165 0 0 0.17 0 0.02 0.17 0 0.04 0.17 0 0.06 0.17 0 0.08 0.17 0 0.1 0.17 0 0 0.175 0 0.02 0.175 0 0.04 0.175 0 0.06 0.175 0 0.08 0.175 0 0.1 0.175 0 0 0.18 0 0.02 0.18 0 0.04 0.18 0 0.06 0.18 0 0.08 0.18 0 0.1 0.18 0 0 0.185 0 0.02 0.185 0 0.04 0.185 0 0.06 0.185 0 0.08 0.185 0 0.1 0.185 0 0 0.19 0 0.02 0.19 0 0.04 0.19 0 0.06 0.19 0 0.08 0.19 0 0.1 0.19 0 0 0.195 0 0.02 0.195 0 0.04 0.195 0 0.06 0.195 0 0.08 0.195 0 0.1 0.195 0 0 0.2 0 0.02 0.2 0 0.04 0.2 0 0.06 0.2 0 0.08 0.2 0 0.1 0.2 0 0 0.205 0 0.02 0.205 0 0.04 0.205 0 0.06 0.205 0 0.08 0.205 0 0.1 0.205 0 0 0.21 0 0.02 0.21 0 0.04 0.21 0 0.06 0.21 0 0.08 0.21 0 0.1 0.21 0 0 0.215 0 0.02 0.215 0 0.04 0.215 0 0.06 0.215 0 0.08 0.215 0 0.1 0.215 0 0 0.22 0 0.02 0.22 0 0.04 0.22 0 0.06 0.22 0 0.08 0.22 0 0.1 0.22 0 0 0.225 0 0.02 0.225 0 0.04 0.225 0 0.06 0.225 0 0.08 0.225 0 0.1 0.225 0 0 0.23 0 0.02 0.23 0 0.04 0.23 0 0.06 0.23 0 0.08 0.23 0 0.1 0.23 0 0 0.235 0 0.02 0.235 0 0.04 0.235 0 0.06 0.235 0 0.08 0.235 0 0.1 0.235 0 0 0.24 0 0.02 0.24 0 0.04 0.24 0 0.06 0.24 0 0.08 0.24 0 0.1 0.24 0 0 0.245 0 0.02 0.245 0 0.04 0.245 0 0.06 0.245 0 0.08 0.245 0 0.1 0.245 0 0 0.25 0 0.02 0.25 0 0.04 0.25 0 0.06 0.25 0 0.08 0.25 0 0.1 0.25 0 0 0.255 0 0.02 0.255 0 0.04 0.255 0 0.06 0.255 0 0.08 0.255 0 0.1 0.255 0 0 0.26 0 0.02 0.26 0 0.04 0.26 0 0.06 0.26 0 0.08 0.26 0 0.1 0.26 0 0 0.265 0 0.02 0.265 0 0.04 0.265 0 0.06 0.265 0 0.08 0.265 0 0.1 0.265 0 0 0.27 0 0.02 0.27 0 0.04 0.27 0 0.06 0.27 0 0.08 0.27 0 0.1 0.27 0 0 0.275 0 0.02 0.275 0 0.04 0.275 0 0.06 0.275 0 0.08 0.275 0 0.1 0.275 0 0 0.28 0 0.02 0.28 0 0.04 0.28 0 0.06 0.28 0 0.08 0.28 0 0.1 0.28 0 0 0.285 0 0.02 0.285 0 0.04 0.285 0 0.06 0.285 0 0.08 0.285 0 0.1 0.285 0 0 0.29 0 0.02 0.29 0 0.04 0.29 0 0.06 0.29 0 0.08 0.29 0 0.1 0.29 0 0 0.295 0 0.02 0.295 0 0.04 0.295 0 0.06 0.295 0 0.08 0.295 0 0.1 0.295 0 0 0.3 0 0.02 0.3 0 0.04 0.3 0 0.06 0.3 0 0.08 0.3 0 0.1 0.3 0 0 0.305 0 0.02 0.305 0 0.04 0.305 0 0.06 0.305 0 0.08 0.305 0 0.1 0.305 0 0 0.31 0 0.02 0.31 0 0.04 0.31 0 0.06 0.31 0 0.08 0.31 0 0.1 0.31 0 0 0.315 0 0.02 0.315 0 0.04 0.315 0 0.06 0.315 0 0.08 0.315 0 0.1 0.315 0 0 0.32 0 0.02 0.32 0 0.04 0.32 0 0.06 0.32 0 0.08 0.32 0 0.1 0.32 0 0 0.325 0 0.02 0.325 0 0.04 0.325 0 0.06 0.325 0 0.08 0.325 0 0.1 0.325 0 0 0.33 0 0.02 0.33 0 0.04 0.33 0 0.06 0.33 0 0.08 0.33 0 0.1 0.33 0 0 0.335 0 0.02 0.335 0 0.04 0.335 0 0.06 0.335 0 0.08 0.335 0 0.1 0.335 0 0 0.34 0 0.02 0.34 0 0.04 0.34 0 0.06 0.34 0 0.08 0.34 0 0.1 0.34 0 0 0.345 0 0.02 0.345 0 0.04 0.345 0 0.06 0.345 0 0.08 0.345 0 0.1 0.345 0 0 0.35 0 0.02 0.35 0 0.04 0.35 0 0.06 0.35 0 0.08 0.35 0 0.1 0.35 0 0 0.355 0 0.02 0.355 0 0.04 0.355 0 0.06 0.355 0 0.08 0.355 0 0.1 0.355 0 0 0.36 0 0.02 0.36 0 0.04 0.36 0 0.06 0.36 0 0.08 0.36 0 0.1 0.36 0 0 0.365 0 0.02 0.365 0 0.04 0.365 0 0.06 0.365 0 0.08 0.365 0 0.1 0.365 0 0 0.37 0 0.02 0.37 0 0.04 0.37 0 0.06 0.37 0 0.08 0.37 0 0.1 0.37 0 0 0.375 0 0.02 0.375 0 0.04 0.375 0 0.06 0.375 0 0.08 0.375 0 0.1 0.375 0 0 0.38 0 0.02 0.38 0 0.04 0.38 0 0.06 0.38 0 0.08 0.38 0 0.1 0.38 0 0 0.385 0 0.02 0.385 0 0.04 0.385 0 0.06 0.385 0 0.08 0.385 0 0.1 0.385 0 0 0.39 0 0.02 0.39 0 0.04 0.39 0 0.06 0.39 0 0.08 0.39 0 0.1 0.39 0 0 0.395 0 0.02 0.395 0 0.04 0.395 0 0.06 0.395 0 0.08 0.395 0 0.1 0.395 0 0 0.4 0 0.02 0.4 0 0.04 0.4 0 0.06 0.4 0 0.08 0.4 0 0.1 0.4 0 0 0.405 0 0.02 0.405 0 0.04 0.405 0 0.06 0.405 0 0.08 0.405 0 0.1 0.405 0 0 0.41 0 0.02 0.41 0 0.04 0.41 0 0.06 0.41 0 0.08 0.41 0 0.1 0.41 0 0 0.415 0 0.02 0.415 0 0.04 0.415 0 0.06 0.415 0 0.08 0.415 0 0.1 0.415 0 0 0.42 0 0.02 0.42 0 0.04 0.42 0 0.06 0.42 0 0.08 0.42 0 0.1 0.42 0 0 0.425 0 0.02 0.425 0 0.04 0.425 0 0.06 0.425 0 0.08 0.425 0 0.1 0.425 0 0 0.43 0 0.02 0.43 0 0.04 0.43 0 0.06 0.43 0 0.08 0.43 0 0.1 0.43 0 0 0.435 0 0.02 0.435 0 0.04 0.435 0 0.06 0.435 0 0.08 0.435 0 0.1 0.435 0 0 0.44 0 0.02 0.44 0 0.04 0.44 0 0.06 0.44 0 0.08 0.44 0 0.1 0.44 0 0 0.445 0 0.02 0.445 0 0.04 0.445 0 0.06 0.445 0 0.08 0.445 0 0.1 0.445 0 0 0.45 0 0.02 0.45 0 0.04 0.45 0 0.06 0.45 0 0.08 0.45 0 0.1 0.45 0 0 0.455 0 0.02 0.455 0 0.04 0.455 0 0.06 0.455 0 0.08 0.455 0 0.1 0.455 0 0 0.46 0 0.02 0.46 0 0.04 0.46 0 0.06 0.46 0 0.08 0.46 0 0.1 0.46 0 0 0.465 0 0.02 0.465 0 0.04 0.465 0 0.06 0.465 0 0.08 0.465 0 0.1 0.465 0 0 0.47 0 0.02 0.47 0 0.04 0.47 0 0.06 0.47 0 0.08 0.47 0 0.1 0.47 0 0 0.475 0 0.02 0.475 0 0.04 0.475 0 0.06 0.475 0 0.08 0.475 0 0.1 0.475 0 0 0.48 0 0.02 0.48 0 0.04 0.48 0 0.06 0.48 0 0.08 0.48 0 0.1 0.48 0 0 0.485 0 0.02 0.485 0 0.04 0.485 0 0.06 0.485 0 0.08 0.485 0 0.1 0.485 0 0 0.49 0 0.02 0.49 0 0.04 0.49 0 0.06 0.49 0 0.08 0.49 0 0.1 0.49 0 0 0.495 0 0.02 0.495 0 0.04 0.495 0 0.06 0.495 0 0.08 0.495 0 0.1 0.495 0 0 0.5 0 0.02 0.5 0 0.04 0.5 0 0.06 0.5 0 0.08 0.5 0 0.1 0.5 0 0 0.505 0 0.02 0.505 0 0.04 0.505 0 0.06 0.505 0 0.08 0.505 0 0.1 0.505 0 0 0.51 0 0.02 0.51 0 0.04 0.51 0 0.06 0.51 0 0.08 0.51 0 0.1 0.51 0 0 0.515 0 0.02 0.515 0 0.04 0.515 0 0.06 0.515 0 0.08 0.515 0 0.1 0.515 0 0 0.52 0 0.02 0.52 0 0.04 0.52 0 0.06 0.52 0 0.08 0.52 0 0.1 0.52 0 0 0.525 0 0.02 0.525 0 0.04 0.525 0 0.06 0.525 0 0.08 0.525 0 0.1 0.525 0 0 0.53 0 0.02 0.53 0 0.04 0.53 0 0.06 0.53 0 0.08 0.53 0 0.1 0.53 0 0 0.535 0 0.02 0.535 0 0.04 0.535 0 0.06 0.535 0 0.08 0.535 0 0.1 0.535 0 0 0.54 0 0.02 0.54 0 0.04 0.54 0 0.06 0.54 0 0.08 0.54 0 0.1 0.54 0 0 0.545 0 0.02 0.545 0 0.04 0.545 0 0.06 0.545 0 0.08 0.545 0 0.1 0.545 0 0 0.55 0 0.02 0.55 0 0.04 0.55 0 0.06 0.55 0 0.08 0.55 0 0.1 0.55 0 0 0.555 0 0.02 0.555 0 0.04 0.555 0 0.06 0.555 0 0.08 0.555 0 0.1 0.555 0 0 0.56 0 0.02 0.56 0 0.04 0.56 0 0.06 0.56 0 0.08 0.56 0 0.1 0.56 0 0 0.565 0 0.02 0.565 0 0.04 0.565 0 0.06 0.565 0 0.08 0.565 0 0.1 0.565 0 0 0.57 0 0.02 0.57 0 0.04 0.57 0 0.06 0.57 0 0.08 0.57 0 0.1 0.57 0 0 0.575 0 0.02 0.575 0 0.04 0.575 0 0.06 0.575 0 0.08 0.575 0 0.1 0.575 0 0 0.58 0 0.02 0.58 0 0.04 0.58 0 0.06 0.58 0 0.08 0.58 0 0.1 0.58 0 0 0.585 0 0.02 0.585 0 0.04 0.585 0 0.06 0.585 0 0.08 0.585 0 0.1 0.585 0 0 0.59 0 0.02 0.59 0 0.04 0.59 0 0.06 0.59 0 0.08 0.59 0 0.1 0.59 0 0 0.595 0 0.02 0.595 0 0.04 0.595 0 0.06 0.595 0 0.08 0.595 0 0.1 0.595 0 0 0.6 0 0.02 0.6 0 0.04 0.6 0 0.06 0.6 0 0.08 0.6 0 0.1 0.6 0 0 0.605 0 0.02 0.605 0 0.04 0.605 0 0.06 0.605 0 0.08 0.605 0 0.1 0.605 0 0 0.61 0 0.02 0.61 0 0.04 0.61 0 0.06 0.61 0 0.08 0.61 0 0.1 0.61 0 0 0.615 0 0.02 0.615 0 0.04 0.615 0 0.06 0.615 0 0.08 0.615 0 0.1 0.615 0 0 0.62 0 0.02 0.62 0 0.04 0.62 0 0.06 0.62 0 0.08 0.62 0 0.1 0.62 0 0 0.625 0 0.02 0.625 0 0.04 0.625 0 0.06 0.625 0 0.08 0.625 0 0.1 0.625 0 0 0.63 0 0.02 0.63 0 0.04 0.63 0 0.06 0.63 0 0.08 0.63 0 0.1 0.63 0 0 0.635 0 0.02 0.635 0 0.04 0.635 0 0.06 0.635 0 0.08 0.635 0 0.1 0.635 0 0 0.64 0 0.02 0.64 0 0.04 0.64 0 0.06 0.64 0 0.08 0.64 0 0.1 0.64 0 0 0.645 0 0.02 0.645 0 0.04 0.645 0 0.06 0.645 0 0.08 0.645 0 0.1 0.645 0 0 0.65 0 0.02 0.65 0 0.04 0.65 0 0.06 0.65 0 0.08 0.65 0 0.1 0.65 0 0 0.655 0 0.02 0.655 0 0.04 0.655 0 0.06 0.655 0 0.08 0.655 0 0.1 0.655 0 0 0.66 0 0.02 0.66 0 0.04 0.66 0 0.06 0.66 0 0.08 0.66 0 0.1 0.66 0 0 0.665 0 0.02 0.665 0 0.04 0.665 0 0.06 0.665 0 0.08 0.665 0 0.1 0.665 0 0 0.67 0 0.02 0.67 0 0.04 0.67 0 0.06 0.67 0 0.08 0.67 0 0.1 0.67 0 0 0.675 0 0.02 0.675 0 0.04 0.675 0 0.06 0.675 0 0.08 0.675 0 0.1 0.675 0 0 0.68 0 0.02 0.68 0 0.04 0.68 0 0.06 0.68 0 0.08 0.68 0 0.1 0.68 0 0 0.685 0 0.02 0.685 0 0.04 0.685 0 0.06 0.685 0 0.08 0.685 0 0.1 0.685 0 0 0.69 0 0.02 0.69 0 0.04 0.69 0 0.06 0.69 0 0.08 0.69 0 0.1 
[...]
			<PointData Scalars="VitesseX">
				<DataArray Name="VitesseX" type="Float32" format="ascii">
 0 -3.05824e-15 -6.6325e-15 9.97919e-15 3.22731e-14 0 0 -3.38353e-15 -6.849e-15 1.47653e-14 2.80735e-14 0 0 -2.41063e-15 -6.03078e-15 2.03255e-14 2.25411e-14 0 0 -8.64048e-15 8.02029e-15 1.2089e-14 2.52704e-14 0 0 -8.40287e-15 1.19239e-14 1.39284e-14 2.38093e-14 0 0 8.75718e-15 -1.15452e-14 4.09483e-14 9.75387e-15 0 0 8.32332e-15 -1.21314e-14 5.16885e-14 -1.96469e-15 0 0 6.43852e-16 2.56161e-15 4.36076e-14 4.26063e-15 0 0 4.85784e-15 1.18493e-15 4.75883e-14 1.02672e-14 0 0 3.72872e-15 1.52082e-14 2.64024e-14 2.96639e-14 0 0 6.59027e-15 2.31715e-14 5.119e-15 4.91549e-14 0 0 2.21242e-14 -8.24358e-15 3.48051e-14 3.36853e-14 0 0 7.76521e-15 -4.39228e-15 5.05585e-14 1.54853e-14 0 0 -9.39581e-15 1.7035e-14 4.5336e-14 -4.36719e-15 0 0 -1.29302e-15 1.76385e-14 2.18009e-14 5.3717e-15 0 0 -8.49862e-15 2.9424e-14 4.34508e-15 4.22248e-15 0 0 -2.51048e-15 6.65812e-15 4.96832e-14 -6.43458e-14 0 0 6.31825e-15 -6.76479e-15 5.26905e-14 -8.15308e-14 0 0 5.93725e-15 -1.19088e-14 2.57183e-14 -4.94837e-14 0 0 -2.3195e-14 2.14691e-14 -1.73937e-14 -1.00579e-14 0 0 9.60785e-15 -4.6551e-14 5.74605e-14 -5.00288e-14 0 0 2.75394e-14 -8.02317e-14 8.46917e-14 -6.87743e-14 0 0 -7.87111e-15 -7.80006e-15 -7.85446e-15 1.98342e-16 0 0 -2.98462e-14 3.5629e-14 -6.95355e-14 6.90368e-14 0 0 -3.25595e-14 4.05172e-14 -7.57234e-14 9.04003e-14 0 0 4.05714e-15 -1.85784e-14 5.91302e-15 3.77515e-14 0 0 2.12722e-14 -5.06941e-14 4.87032e-14 2.02411e-14 0 0 -1.36721e-14 1.83561e-15 -9.05268e-15 7.62484e-14 0 0 -8.63443e-15 -3.09649e-15 1.33157e-14 7.38379e-14 0 0 -4.87114e-15 -1.42904e-14 8.03466e-14 2.80986e-14 0 0 -3.92189e-14 3.1259e-14 9.19672e-14 -9.65341e-16 0 0 -2.94786e-14 5.23681e-14 6.34733e-14 1.44941e-14 0 0 2.56449e-15 4.80071e-14 4.66132e-14 4.17827e-14 0 0 5.04621e-14 -1.29542e-15 7.00725e-14 5.75492e-14 0 0 2.02652e-14 6.14195e-14 -3.42165e-14 1.63953e-13 0 0 5.93336e-14 -3.58953e-14 4.44791e-14 1.36443e-13 0 0 2.60168e-14 -2.19659e-14 7.36005e-14 9.03257e-14 0 0 -2.11892e-14 3.48128e-14 5.58611e-14 7.00528e-14 0 0 -9.32226e-15 1.83784e-14 2.0621e-14 1.12973e-13 0 0 -2.28064e-15 2.21513e-14 -1.69011e-14 1.33244e-13 0 0 6.2046e-15 2.83648e-14 -1.78061e-15 8.16231e-14 0 0 2.45121e-14 1.83418e-14 2.51547e-14 4.76913e-14 0 0 8.35767e-14 -8.10257e-14 1.52694e-13 -4.50996e-14 0 0 1.93141e-14 -8.72501e-15 1.0194e-13 -4.07465e-14 0 0 4.99978e-14 -2.77529e-14 9.11312e-14 -3.95318e-14 0 0 7.08094e-14 -4.28875e-15 3.6411e-15 3.3593e-14 0 0 7.02556e-14 2.07147e-14 -1.30218e-13 1.92002e-13 0 0 5.37764e-14 1.17833e-14 -1.44611e-13 2.55677e-13 0 0 4.8488e-14 -4.14675e-14 -5.89236e-14 2.11712e-13 0 0 2.06046e-13 -3.0645e-13 2.51352e-13 1.50138e-15 0 0 2.56941e-13 -3.36347e-13 3.27948e-13 -1.15645e-13 0 0 1.76139e-13 -1.26658e-13 1.32856e-13 -3.97862e-14 0 0 1.44293e-13 -9.82942e-15 1.0412e-14 5.31891e-14 0 0 8.27715e-14 9.62547e-14 -4.50795e-14 6.08683e-14 0 0 5.54968e-14 1.21759e-13 1.75289e-14 -2.90361e-14 0 0 2.43527e-13 -1.12117e-13 2.26183e-13 -1.31623e-13 0 0 2.07492e-13 4.25639e-15 1.13871e-13 -7.03876e-15 0 0 8.49262e-14 1.57315e-13 2.0204e-14 1.12572e-13 0 0 9.95008e-14 5.23354e-14 1.45184e-13 1.15897e-13 0 0 1.75909e-13 -6.69956e-14 2.1154e-13 1.51098e-13 0 0 1.78708e-13 -9.06368e-14 2.43766e-13 1.49147e-13 0 0 4.3962e-14 5.6072e-14 1.98117e-13 1.55392e-13 0 0 8.10085e-14 2.4658e-14 2.48721e-13 8.40948e-14 0 0 9.87185e-14 6.02453e-14 1.39721e-13 9.75849e-14 0 0 9.7776e-14 5.62726e-14 1.46553e-13 5.9907e-14 0 0 1.72227e-14 8.26919e-14 2.2067e-13 7.40269e-14 0 0 -1.55255e-13 2.39233e-13 8.99509e-14 2.58822e-13 0 0 -9.36464e-14 9.71479e-14 2.00659e-13 2.04791e-13 0 0 -7.99086e-15 5.19589e-14 1.35238e-13 2.13819e-13 0 0 2.81757e-14 9.16188e-14 -1.55127e-14 2.25248e-13 0 0 2.84619e-13 -1.72322e-13 1.60901e-13 6.94141e-15 0 0 4.03357e-13 -1.74086e-13 9.40566e-14 6.60191e-14 0 0 2.8498e-13 2.90246e-14 1.99905e-14 9.7327e-14 0 0 6.21195e-14 2.55559e-13 -5.52455e-14 8.747e-14 0 0 1.8777e-13 2.06007e-14 7.44326e-14 1.29708e-13 0 0 4.75631e-13 -2.53466e-13 1.78763e-13 2.28593e-13 0 0 3.94694e-13 -3.10022e-15 -1.00278e-14 2.84677e-13 0 0 3.09001e-13 1.37238e-13 -7.13639e-14 1.56423e-13 0 0 4.04472e-13 -1.28262e-14 1.86505e-14 -3.52106e-14 0 0 5.36332e-13 -1.97799e-13 6.90788e-14 -2.82901e-14 0 0 5.817e-13 -3.68951e-13 1.74998e-13 -1.64711e-14 0 0 4.34105e-13 -2.18799e-13 -2.44139e-14 1.22422e-13 0 0 1.75034e-13 1.18201e-13 -4.58839e-13 3.5807e-13 0 0 -5.65333e-14 2.06158e-13 -4.12622e-13 2.97635e-13 0 0 -8.40774e-14 4.44209e-14 -1.38768e-13 1.42543e-13 0 0 -1.56596e-13 -1.60132e-13 2.33303e-13 -1.03451e-14 0 0 -3.34878e-13 -6.94353e-14 2.22562e-13 7.11991e-14 0 0 -3.4659e-13 -1.60881e-14 6.46086e-14 2.13981e-13 0 0 -1.4316e-13 -2.56721e-13 7.33959e-14 3.16312e-13 0 0 7.53561e-14 -5.51218e-13 1.32284e-13 3.84904e-13 0 0 3.29007e-14 -5.13679e-13 -2.80733e-16 5.31758e-13 0 0 -1.69117e-13 -2.95119e-13 -1.99118e-13 6.13193e-13 0 0 -2.44651e-13 -2.34418e-13 -1.72758e-13 5.70106e-13 0 0 -1.05478e-13 -4.03936e-13 1.20432e-14 4.17153e-13 0 0 -4.75245e-14 -6.02245e-13 3.52709e-13 1.60316e-13 0 0 -1.21518e-13 -5.71888e-13 5.86707e-13 -2.13979e-13 0 0 -2.81549e-13 -4.44655e-13 6.44078e-13 -5.23493e-13 0 0 -5.03662e-13 -1.96008e-13 5.68698e-13 -5.41726e-13 0 0 -6.30474e-13 1.40862e-13 2.56388e-13 -3.50548e-13 0 0 -5.67537e-13 2.41983e-13 -8.23422e-14 4.65031e-14 0 0 -4.4312e-13 2.9251e-13 -2.99107e-13 4.03745e-13 0 0 -3.28974e-13 3.75171e-13 -3.57684e-13 4.858e-13 0 0 -2.27964e-13 4.00144e-13 -2.50387e-13 3.68069e-13 0 0 -6.43718e-14 3.22178e-13 6.11414e-14 4.09234e-14 0 0 2.10934e-13 1.97113e-14 5.61089e-13 -3.47706e-13 0 0 3.73401e-13 -2.85459e-13 8.86535e-13 -4.32583e-13 0 0 3.84837e-13 -3.00832e-13 8.60625e-13 -3.43744e-13 0 0 3.07105e-13 -1.58331e-13 6.92894e-13 -1.28273e-13 0 0 1.36187e-13 1.93772e-13 4.38762e-13 1.15749e-13 0 0 4.37325e-14 4.37284e-13 2.30525e-13 2.32215e-13 0 0 3.19356e-14 5.51907e-13 -1.82671e-14 4.04465e-13 0 0 6.78805e-14 6.11469e-13 -1.43003e-13 4.71377e-13 0 0 1.9583e-13 5.40511e-13 -9.83274e-14 4.18526e-13 0 0 3.54208e-13 3.76959e-13 -3.63962e-14 3.76377e-13 0 0 4.36071e-13 3.06271e-13 -1.16992e-14 3.27952e-13 0 0 4.95141e-13 2.08408e-13 1.1027e-13 2.08389e-13 0 0 4.88009e-13 2.08948e-13 1.35965e-13 1.82096e-13 0 0 3.71284e-13 3.59991e-13 6.01002e-14 1.98783e-13 0 0 2.19831e-13 4.14603e-13 1.054e-13 9.86904e-14 0 0 1.82015e-13 4.00707e-13 1.72203e-13 4.24706e-14 0 0 1.42389e-13 4.18505e-13 1.18843e-13 7.17175e-14 0 0 1.48739e-13 3.95812e-13 9.56112e-14 6.20241e-14 0 0 1.41271e-13 3.44692e-13 1.219e-13 4.4138e-14 0 0 1.21893e-13 2.89492e-13 1.41598e-13 2.53348e-14 0 0 1.31144e-13 2.31125e-13 1.49594e-13 2.0554e-14 0 0 1.25032e-13 2.13379e-13 1.47478e-13 5.99772e-14 0 0 1.23626e-13 1.74711e-13 1.58448e-13 5.72401e-14 0 0 1.29299e-13 1.57483e-13 1.2108e-13 5.46676e-14 0 0 1.33782e-13 9.70828e-14 1.60505e-13 7.15619e-16 0 0 1.49036e-13 7.77306e-14 1.50435e-13 -5.65409e-15 0 0 1.20733e-13 1.35943e-13 1.13052e-13 6.30549e-14 0 0 8.90462e-14 1.28097e-13 1.72027e-13 3.22411e-14 0 0 7.60195e-14 1.22008e-13 2.06636e-13 -3.94426e-14 0 0 5.62903e-14 1.4054e-13 1.83489e-13 -3.38634e-14 0 0 5.79815e-14 1.14801e-13 2.11528e-13 -8.80499e-15 0 0 4.02555e-14 8.3289e-14 2.31944e-13 5.07673e-14 0 0 3.32725e-14 3.08111e-14 2.73238e-13 1.8072e-14 0 0 3.15112e-14 -3.78934e-14 3.34325e-13 -1.79108e-14 0 0 -7.39886e-15 1.73049e-14 2.32535e-13 7.47559e-14 0 0 -4.02631e-14 6.78479e-15 1.83441e-13 8.92717e-14 0 0 -6.30009e-14 -1.82848e-14 1.87138e-13 9.88614e-14 0 0 -5.7209e-14 -2.12005e-14 1.53464e-13 1.47261e-13 0 0 -1.00437e-14 -1.76506e-14 4.85696e-14 1.92678e-13 0 0 2.43049e-14 -2.00655e-14 1.92503e-14 1.80235e-13 0 0 9.28028e-16 -9.11471e-15 1.91328e-13 9.65861e-14 0 0 -2.16738e-14 1.16921e-13 1.47608e-13 2.9535e-13 0 0 -7.72544e-15 1.79339e-13 2.13675e-13 3.20438e-13 0 0 2.07051e-14 1.82574e-13 3.7723e-13 1.41332e-13 0 0 3.83021e-14 1.59397e-13 5.5049e-13 9.79435e-14 0 0 3.08226e-14 2.11594e-13 5.5576e-13 1.89988e-13 0 0 4.77115e-14 2.81414e-13 4.79163e-13 2.80492e-13 0 0 1.0475e-13 2.61983e-13 5.33679e-13 2.40127e-13 0 0 8.58688e-14 3.2313e-13 4.93246e-13 2.73765e-13 0 0 1.10108e-13 3.2982e-13 4.64172e-13 3.35641e-13 0 0 1.54321e-13 3.00478e-13 4.66805e-13 3.18376e-13 0 0 1.55043e-13 3.30373e-13 4.2026e-13 3.42309e-13 0 0 2.54798e-13 2.77777e-13 3.49979e-13 4.75393e-13 0 0 3.12813e-13 2.53844e-13 4.26812e-13 3.18835e-13 0 0 2.95571e-13 2.4746e-13 6.54154e-13 4.97163e-14 0 0 1.942e-13 4.53132e-13 4.65146e-13 1.90319e-13 0 0 2.06626e-13 5.09713e-13 3.97351e-13 1.69319e-13 0 0 3.15791e-13 3.78503e-13 6.03713e-13 4.85401e-14 0 0 3.48723e-13 3.4683e-13 7.69982e-13 -1.35755e-13 0 0 2.94595e-13 4.57694e-13 7.03881e-13 -1.3124e-13 0 0 2.10351e-13 6.26215e-13 4.62218e-13 2.144e-13 0 0 2.5973e-13 5.98267e-13 5.176e-13 2.09555e-13 0 0 3.85491e-13 5.04334e-13 5.94407e-13 1.74134e-13 0 0 4.13708e-13 5.81798e-13 4.48142e-13 3.10182e-13 0 0 4.79661e-13 6.21615e-13 3.76745e-13 3.33256e-13 0 0 4.44015e-13 6.94765e-13 3.75246e-13 3.15984e-13 0 0 3.85308e-13 7.46722e-13 4.0652e-13 2.66475e-13 0 0 4.44682e-13 6.29759e-13 5.44167e-13 1.41616e-13 0 0 4.69706e-13 6.32823e-13 4.76938e-13 7.65244e-14 0 0 4.87518e-13 6.62886e-13 5.09017e-13 -7.14682e-14 0 0 3.34517e-13 8.71966e-13 3.34604e-13 3.97097e-14 0 0 3.48119e-13 7.90487e-13 3.33854e-13 1.30766e-13 0 0 3.83558e-13 6.64864e-13 4.78551e-13 4.14309e-14 0 0 3.2519e-13 6.8039e-13 3.32183e-13 2.25109e-13 0 0 3.4017e-13 6.38984e-13 3.67766e-13 2.39733e-13 0 0 2.24007e-13 8.41583e-13 2.21056e-13 3.37919e-13 0 0 2.26161e-13 7.72272e-13 2.57689e-13 4.6492e-13 0 0 3.51773e-13 4.20228e-13 6.71275e-13 2.30103e-13 0 0 1.73162e-13 5.66303e-13 6.45473e-13 1.8686e-13 0 0 1.0198e-13 6.48582e-13 5.03553e-13 3.70933e-13 0 0 1.89498e-13 5.37103e-13 5.54639e-13 3.62567e-13 0 0 2.4726e-13 4.73553e-13 7.85163e-13 1.5289e-13 0 0 1.92901e-13 5.37333e-13 8.68451e-13 5.51419e-14 0 0 -2.66838e-14 8.43963e-13 5.43246e-13 1.84798e-13 0 0 1.13358e-13 6.46831e-13 5.63143e-13 2.1527e-13 0 0 2.94262e-13 3.03656e-13 9.2703e-13 -4.92573e-14 0 0 1.86858e-13 3.72578e-13 9.23078e-13 -9.27938e-14 0 0 1.00832e-13 5.54294e-13 5.07886e-13 3.77581e-13 0 0 1.26512e-13 4.44023e-13 6.31439e-13 4.34966e-13 0 0 1.22133e-13 3.14456e-13 1.03885e-12 1.05314e-13 0 0 -5.15939e-14 5.75228e-13 7.67017e-13 2.36002e-13 0 0 -9.79927e-14 7.21961e-13 5.52584e-13 3.14213e-13 0 0 6.89295e-14 5.81586e-13 6.96624e-13 1.83817e-13 0 0 2.48346e-13 3.56564e-13 9.7163e-13 -6.36277e-14 0 0 1.67518e-13 4.11257e-13 9.79639e-13 -8.73615e-14 0 0 -3.77762e-13 1.223e-12 2.5722e-13 2.66456e-13 0 0 -7.0583e-13 1.77144e-12 -1.87403e-13 3.87654e-13 0
				</DataArray>
				<DataArray Name="VitesseY" type="Float32" format="ascii">