<?xml version="1.0"?>
<VTKFile type="PolyData">
	<PolyData>
		<Piece NumberOfPoints="1206" NumberOfPolys="1000">
			<Points>
				<DataArray type="Float32" NumberOfComponents="3" format="ascii">
 0 0 0 0.02 0 0 0.04 0 0 0.06 0 0 0.08 0 0 0.1 0 0 0 0.005 0 0.02 0.005 0 0.04 0.005 0 0.06 0.005 0 0.08 0.005 0 0.1 0.005 0 0 0.01 0 0.02 0.01 0 0.04 0.01 0 0.06 0.01 0 0.08 0.01 0 0.1 0.01 0 0 0.015 0 0.02 0.015 0 0.04 0.015 0 0.06 0.015 0 0.08 0.015 0 0.1 0.015 0 0 0.02 0 0.02 0.02 0 0.04 0.02 0 0.06 0.02 0 0.08 0.02 0 0.1 0.02 0 0 0.025 0 0.02 0.025 0 0.04 0.025 0 0.06 0.025 0 0.08 0.025 0 0.1 0.025 0 0 0.03 0 0.02 0.03 0 0.04 0.03 0 0.06 0.03 0 0.08 0.03 0 0.1 0.03 0 0 0.035 0 0.02 0.035 0 0.04 0.035 0 0.06 0.035 0 0.08 0.035 0 0.1 0.035 0 0 0.04 0 0.02 0.04 0 0.04 0.04 0 0.06 0.04 0 0.08 0.04 0 0.1 0.04 0 0 0.045 0 0.02 0.045 0 0.04 0.045 0 0.06 0.045 0 0.08 0.045 0 0.1 0.045 0 0 0.05 0 0.02 0.05 0 0.04 0.05 0 0.06 0.05 0 0.08 0.05 0 0.1 0.05 0 0 0.055 0 0.02 0.055 0 0.04 0.055 0 0.06 0.055 0 0.08 0.055 0 0.1 0.055 0 0 0.06 0 0.02 0.06 0 0.04 0.06 0 0.06 0.06 0 0.08 0.06 0 0.1 0.06 0 0 0.065 0 0.02 0.065 0 0.04 0.065 0 0.06 0.065 0 0.08 0.065 0 0.1 0.065 0 0 0.07 0 0.02 0.07 0 0.04 0.07 0 0.06 0.07 0 0.08 0.07 0 0.1 0.07 0 0 0.075 0 0.02 0.075 0 0.04 0.075 0 0.06 0.075 0 0.08 0.075 0 0.1 0.075 0 0 0.08 0 0.02 0.08 0 0.04 0.08 0 0.06 0.08 0 0.08 0.08 0 0.1 0.08 0 0 0.085 0 0.02 0.085 0 0.04 0.085 0 0.06 0.085 0 0.08 0.085 0 0.1 0.085 0 0 0.09 0 0.02 0.09 0 0.04 0.09 0 0.06 0.09 0 0.08 0.09 0 0.1 0.09 0 0 0.095 0 0.02 0.095 0 0.04 0.095 0 0.06 0.095 0 0.08 0.095 0 0.1 0.095 0 0 0.1 0 0.02 0.1 0 0.04 0.1 0 0.06 0.1 0 0.08 0.1 0 0.1 0.1 0 0 0.105 0 0.02 0.105 0 0.04 0.105 0 0.06 0.105 0 0.08 0.105 0 0.1 0.105 0 0 0.11 0 0.02 0.11 0 0.04 0.11 0 0.06 0.11 0 0.08 0.11 0 0.1 0.11 0 0 0.115 0 0.02 0.115 0 0.04 0.115 0 0.06 0.115 0 0.08 0.115 0 0.1 0.115 0 0 0.12 0 0.02 0.12 0 0.04 0.12 0 0.06 0.12 0 0.08 0.12 0 0.1 0.12 0 0 0.125 0 0.02 0.125 0 0.04 0.125 0 0.06 0.125 0 0.08 0.125 0 0.1 0.125 0 0 0.13 0 0.02 0.13 0 0.04 0.13 0 0.06 0.13 0 0.08 0.13 0 0.1 0.13 0 0 0.135 0 0.02 0.135 0 0.04 0.135 0 0.06 0.135 0 0.08 0.135 0 0.1 0.135 0 0 0.14 0 0.02 0.14 0 0.04 0.14 0 0.06 0.14 0 0.08 0.14 0 0.1 0.14 0 0 0.145 0 0.02 0.145 0 0.04 0.145 0 0.06 0.145 0 0.08 0.145 0 0.1 0.145 0 0 0.15 0 0.02 0.15 0 0.04 0.15 0 0.06 0.15 0 0.08 0.15 0 0.1 0.15 0 0 0.155 0 0.02 0.155 0 0.04 0.155 0 0.06 0.155 0 0.08 0.155 0 0.1 0.155 0 0 0.16 0 0.02 0.16 0 0.04 0.16 0 0.06 0.16 0 0.08 0.16 0 0.1 0.16 0 0 0.165 0 0.02 0.165 0 0.04 0.165 0 0.06 0.165 0 0.08 0.165 0 0.1 0.165 0 0 0.17 0 0.02 0.17 0 0.04 0.17 0 0.06 0.17 0 0.08 0.17 0 0.1 0.17 0 0 0.175 0 0.02 0.175 0 0.04 0.175 0 0.06 0.175 0 0.08 0.175 0 0.1 0.175 0 0 0.18 0 0.02 0.18 0 0.04 0.18 0 0.06 0.18 0 0.08 0.18 0 0.1 0.18 0 0 0.185 0 0.02 0.185 0 0.04 0.185 0 0.06 0.185 0 0.08 0.185 0 0.1 0.185 0 0 0.19 0 0.02 0.19 0 0.04 0.19 0 0.06 0.19 0 0.08 0.19 0 0.1 0.19 0 0 0.195 0 0.02 0.195 0 0.04 0.195 0 0.06 0.195 0 0.08 0.195 0 0.1 0.195 0 0 0.2 0 0.02 0.2 0 0.04 0.2 0 0.06 0.2 0 0.08 0.2 0 0.1 0.2 0 0 0.205 0 0.02 0.205 0 0.04 0.205 0 0.06 0.205 0 0.08 0.205 0 0.1 0.205 0 0 0.21 0 0.02 0.21 0 0.04 0.21 0 0.06 0.21 0 0.08 0.21 0 0.1 0.21 0 0 0.215 0 0.02 0.215 0 0.04 0.215 0 0.06 0.215 0 0.08 0.215 0 0.1 0.215 0 0 0.22 0 0.02 0.22 0 0.04 0.22 0 0.06 0.22 0 0.08 0.22 0 0.1 0.22 0 0 0.225 0 0.02 0.225 0 0.04 0.225 0 0.06 0.225 0 0.08 0.225 0 0.1 0.225 0 0 0.23 0 0.02 0.23 0 0.04 0.23 0 0.06 0.23 0 0.08 0.23 0 0.1 0.23 0 0 0.235 0 0.02 0.235 0 0.04 0.235 0 0.06 0.235 0 0.08 0.235 0 0.1 0.235 0 0 0.24 0 0.02 0.24 0 0.04 0.24 0 0.06 0.24 0 0.08 0.24 0 0.1 0.24 0 0 0.245 0 0.02 0.245 0 0.04 0.245 0 0.06 0.245 0 0.08 0.245 0 0.1 0.245 0 0 0.25 0 0.02 0.25 0 0.04 0.25 0 0.06 0.25 0 0.08 0.25 0 0.1 0.25 0 0 0.255 0 0.02 0.255 0 0.04 0.255 0 0.06 0.255 0 0.08 0.255 0 0.1 0.255 0 0 0.26 0 0.02 0.26 0 0.04 0.26 0 0.06 0.26 0 0.08 0.26 0 0.1 0.26 0 0 0.265 0 0.02 0.265 0 0.04 0.265 0 0.06 0.265 0 0.08 0.265 0 0.1 0.265 0 0 0.27 0 0.02 0.27 0 0.04 0.27 0 0.06 0.27 0 0.08 0.27 0 0.1 0.27 0 0 0.275 0 0.02 0.275 0 0.04 0.275 0 0.06 0.275 0 0.08 0.275 0 0.1 0.275 0 0 0.28 0 0.02 0.28 0 0.04 0.28 0 0.06 0.28 0 0.08 0.28 0 0.1 0.28 0 0 0.285 0 0.02 0.285 0 0.04 0.285 0 0.06 0.285 0 0.08 0.285 0 0.1 0.285 0 0 0.29 0 0.02 0.29 0 0.04 0.29 0 0.06 0.29 0 0.08 0.29 0 0.1 0.29 0 0 0.295 0 0.02 0.295 0 0.04 0.295 0 0.06 0.295 0 0.08 0.295 0 0.1 0.295 0 0 0.3 0 0.02 0.3 0 0.04 0.3 0 0.06 0.3 0 0.08 0.3 0 0.1 0.3 0 0 0.305 0 0.02 0.305 0 0.04 0.305 0 0.06 0.305 0 0.08 0.305 0 0.1 0.305 0 0 0.31 0 0.02 0.31 0 0.04 0.31 0 0.06 0.31 0 0.08 0.31 0 0.1 0.31 0 0 0.315 0 0.02 0.315 0 0.04 0.315 0 0.06 0.315 0 0.08 0.315 0 0.1 0.315 0 0 0.32 0 0.02 0.32 0 0.04 0.32 0 0.06 0.32 0 0.08 0.32 0 0.1 0.32 0 0 0.325 0 0.02 0.325 0 0.04 0.325 0 0.06 0.325 0 0.08 0.325 0 0.1 0.325 0 0 0.33 0 0.02 0.33 0 0.04 0.33 0 0.06 0.33 0 0.08 0.33 0 0.1 0.33 0 0 0.335 0 0.02 0.335 0 0.04 0.335 0 0.06 0.335 0 0.08 0.335 0 0.1 0.335 0 0 0.34 0 0.02 0.34 0 0.04 0.34 0 0.06 0.34 0 0.08 0.34 0 0.1 0.34 0 0 0.345 0 0.02 0.345 0 0.04 0.345 0 0.06 0.345 0 0.08 0.345 0 0.1 0.345 0 0 0.35 0 0.02 0.35 0 0.04 0.35 0 0.06 0.35 0 0.08 0.35 0 0.1 0.35 0 0 0.355 0 0.02 0.355 0 0.04 0.355 0 0.06 0.355 0 0.08 0.355 0 0.1 0.355 0 0 0.36 0 0.02 0.36 0 0.04 0.36 0 0.06 0.36 0 0.08 0.36 0 0.1 0.36 0 0 0.365 0 0.02 0.365 0 0.04 0.365 0 0.06 0.365 0 0.08 0.365 0 0.1 0.365 0 0 0.37 0 0.02 0.37 0 0.04 0.37 0 0.06 0.37 0 0.08 0.37 0 0.1 0.37 0 0 0.375 0 0.02 0.375 0 0.04 0.375 0 0.06 0.375 0 0.08 0.375 0 0.1 0.375 0 0 0.38 0 0.02 0.38 0 0.04 0.38 0 0.06 0.38 0 0.08 0.38 0 0.1 0.38 0 0 0.385 0 0.02 0.385 0 0.04 0.385 0 0.06 0.385 0 0.08 0.385 0 0.1 0.385 0 0 0.39 0 0.02 0.39 0 0.04 0.39 0 0.06 0.39 0 0.08 0.39 0 0.1 0.39 0 0 0.395 0 0.02 0.395 0 0.04 0.395 0 0.06 0.395 0 0.08 0.395 0 0.1 0.395 0 0 0.4 0 0.02 0.4 0 0.04 0.4 0 0.06 0.4 0 0.08 0.4 0 0.1 0.4 0 0 0.405 0 0.02 0.405 0 0.04 0.405 0 0.06 0.405 0 0.08 0.405 0 0.1 0.405 0 0 0.41 0 0.02 0.41 0 0.04 0.41 0 0.06 0.41 0 0.08 0.41 0 0.1 0.41 0 0 0.415 0 0.02 0.415 0 0.04 0.415 0 0.06 0.415 0 0.08 0.415 0 0.1 0.415 0 0 0.42 0 0.02 0.42 0 0.04 0.42 0 0.06 0.42 0 0.08 0.42 0 0.1 0.42 0 0 0.425 0 0.02 0.425 0 0.04 0.425 0 0.06 0.425 0 0.08 0.425 0 0.1 0.425 0 0 0.43 0 0.02 0.43 0 0.04 0.43 0 0.06 0.43 0 0.08 0.43 0 0.1 0.43 0 0 0.435 0 0.02 0.435 0 0.04 0.435 0 0.06 0.435 0 0.08 0.435 0 0.1 0.435 0 0 0.44 0 0.02 0.44 0 0.04 0.44 0 0.06 0.44 0 0.08 0.44 0 0.1 0.44 0 0 0.445 0 0.02 0.445 0 0.04 0.445 0 0.06 0.445 0 0.08 0.445 0 0.1 0.445 0 0 0.45 0 0.02 0.45 0 0.04 0.45 0 0.06 0.45 0 0.08 0.45 0 0.1 0.45 0 0 0.455 0 0.02 0.455 0 0.04 0.455 0 0.06 0.455 0 0.08 0.455 0 0.1 0.455 0 0 0.46 0 0.02 0.46 0 0.04 0.46 0 0.06 0.46 0 0.08 0.46 0 0.1 0.46 0 0 0.465 0 0.02 0.465 0 0.04 0.465 0 0.06 0.465 0 0.08 0.465 0 0.1 0.465 0 0 0.47 0 0.02 0.47 0 0.04 0.47 0 0.06 0.47 0 0.08 0.47 0 0.1 0.47 0 0 0.475 0 0.02 0.475 0 0.04 0.475 0 0.06 0.475 0 0.08 0.475 0 0.1 0.475 0 0 0.48 0 0.02 0.48 0 0.04 0.48 0 0.06 0.48 0 0.08 0.48 0 0.1 0.48 0 0 0.485 0 0.02 0.485 0 0.04 0.485 0 0.06 0.485 0 0.08 0.485 0 0.1 0.485 0 0 0.49 0 0.02 0.49 0 0.04 0.49 0 0.06 0.49 0 0.08 0.49 0 0.1 0.49 0 0 0.495 0 0.02 0.495 0 0.04 0.495 0 0.06 0.495 0 0.08 0.495 0 0.1 0.495 0 0 0.5 0 0.02 0.5 0 0.04 0.5 0 0.06 0.5 0 0.08 0.5 0 0.1 0.5 0 0 0.505 0 0.02 0.505 0 0.04 0.505 0 0.06 0.505 0 0.08 0.505 0 0.1 0.505 0 0 0.51 0 0.02 0.51 0 0.04 0.51 0 0.06 0.51 0 0.08 0.51 0 0.1 0.51 0 0 0.515 0 0.02 0.515 0 0.04 0.515 0 0.06 0.515 0 0.08 0.515 0 0.1 0.515 0 0 0.52 0 0.02 0.52 0 0.04 0.52 0 0.06 0.52 0 0.08 0.52 0 0.1 0.52 0 0 0.525 0 0.02 0.525 0 0.04 0.525 0 0.06 0.525 0 0.08 0.525 0 0.1 0.525 0 0 0.53 0 0.02 0.53 0 0.04 0.53 0 0.06 0.53 0 0.08 0.53 0 0.1 0.53 0 0 0.535 0 0.02 0.535 0 0.04 0.535 0 0.06 0.535 0 0.08 0.535 0 0.1 0.535 0 0 0.54 0 0.02 0.54 0 0.04 0.54 0 0.06 0.54 0 0.08 0.54 0 0.1 0.54 0 0 0.545 0 0.02 0.545 0 0.04 0.545 0 0.06 0.545 0 0.08 0.545 0 0.1 0.545 0 0 0.55 0 0.02 0.55 0 0.04 0.55 0 0.06 0.55 0 0.08 0.55 0 0.1 0.55 0 0 0.555 0 0.02 0.555 0 0.04 0.555 0 0.06 0.555 0 0.08 0.555 0 0.1 0.555 0 0 0.56 0 0.02 0.56 0 0.04 0.56 0 0.06 0.56 0 0.08 0.56 0 0.1 0.56 0 0 0.565 0 0.02 0.565 0 0.04 0.565 0 0.06 0.565 0 0.08 0.565 0 0.1 0.565 0 0 0.57 0 0.02 0.57 0 0.04 0.57 0 0.06 0.57 0 0.08 0.57 0 0.1 0.57 0 0 0.575 0 0.02 0.575 0 0.04 0.575 0 0.06 0.575 0 0.08 0.575 0 0.1 0.575 0 0 0.58 0 0.02 0.58 0 0.04 0.58 0 0.06 0.58 0 0.08 0.58 0 0.1 0.58 0 0 0.585 0 0.02 0.585 0 0.04 0.585 0 0.06 0.585 0 0.08 0.585 0 0.1 0.585 0 0 0.59 0 0.02 0.59 0 0.04 0.59 0 0.06 0.59 0 0.08 0.59 0 0.1 0.59 0 0 0.595 0 0.02 0.595 0 0.04 0.595 0 0.06 0.595 0 0.08 0.595 0 0.1 0.595 0 0 0.6 0 0.02 0.6 0 0.04 0.6 0 0.06 0.6 0 0.08 0.6 0 0.1 0.6 0 0 0.605 0 0.02 0.605 0 0.04 0.605 0 0.06 0.605 0 0.08 0.605 0 0.1 0.605 0 0 0.61 0 0.02 0.61 0 0.04 0.61 0 0.06 0.61 0 0.08 0.61 0 0.1 0.61 0 0 0.615 0 0.02 0.615 0 0.04 0.615 0 0.06 0.615 0 0.08 0.615 0 0.1 0.615 0 0 0.62 0 0.02 0.62 0 0.04 0.62 0 0.06 0.62 0 0.08 0.62 0 0.1 0.62 0 0 0.625 0 0.02 0.625 0 0.04 0.625 0 0.06 0.625 0 0.08 0.625 0 0.1 0.625 0 0 0.63 0 0.02 0.63 0 0.04 0.63 0 0.06 0.63 0 0.08 0.63 0 0.1 0.63 0 0 0.635 0 0.02 0.635 0 0.04 0.635 0 0.06 0.635 0 0.08 0.635 0 0.1 0.635 0 0 0.64 0 0.02 0.64 0 0.04 0.64 0 0.06 0.64 0 0.08 0.64 0 0.1 0.64 0 0 0.645 0 0.02 0.645 0 0.04 0.645 0 0.06 0.645 0 0.08 0.645 0 0.1 0.645 0 0 0.65 0 0.02 0.65 0 0.04 0.65 0 0.06 0.65 0 0.08 0.65 0 0.1 0.65 0 0 0.655 0 0.02 0.655 0 0.04 0.655 0 0.06 0.655 0 0.08 0.655 0 0.1 0.655 0 0 0.66 0 0.02 0.66 0 0.04 0.66 0 0.06 0.66 0 0.08 0.66 0 0.1 0.66 0 0 0.665 0 0.02 0.665 0 0.04 0.665 0 0.06 0.665 0 0.08 0.665 0 0.1 0.665 0 0 0.67 0 0.02 0.67 0 0.04 0.67 0 0.06 0.67 0 0.08 0.67 0 0.1 0.67 0 0 0.675 0 0.02 0.675 0 0.04 0.675 0 0.06 0.675 0 0.08 0.675 0 0.1 0.675 0 0 0.68 0 0.02 0.68 0 0.04 0.68 0 0.06 0.68 0 0.08 0.68 0 0.1 0.68 0 0 0.685 0 0.02 0.685 0 0.04 0.685 0 0.06 0.685 0 0.08 0.685 0 0.1 0.685 0 0 0.69 0 0.02 0.69 0 0.04 0.69 0 0.06 0.69 0 0.08 0.69 0 0.1 
[...]
			<PointData Scalars="VitesseX">
				<DataArray Name="VitesseX" type="Float32" format="ascii">
 0 -8.07754e-15 -8.79505e-15 1.27981e-14 -9.75507e-15 0 0 -8.27733e-15 -9.55826e-15 1.33438e-14 -8.45578e-15 0 0 -1.03073e-14 -3.88992e-15 1.07674e-15 3.2372e-15 0 0 -1.27887e-16 -1.63525e-14 6.20768e-15 2.13902e-15 0 0 1.32338e-15 -1.39945e-14 -1.04599e-15 7.93659e-15 0 0 -9.4705e-15 1.00582e-14 -3.24309e-14 2.83296e-14 0 0 -7.24645e-15 9.53446e-15 -2.92265e-14 1.92461e-14 0 0 8.27672e-15 -1.87936e-14 1.07275e-14 -1.20838e-14 0 0 1.34958e-14 -2.86485e-14 2.86321e-14 -2.55118e-14 0 0 -6.81883e-15 9.20289e-15 -7.62646e-15 -3.93611e-15 0 0 -1.12585e-14 1.60876e-14 -4.30886e-15 -1.27739e-14 0 0 -1.47231e-14 1.59077e-14 1.75929e-15 -2.47746e-14 0 0 -2.04998e-14 2.12874e-14 -1.66388e-14 -1.1713e-14 0 0 -2.62176e-15 2.59739e-16 -1.273e-14 -2.28054e-14 0 0 -1.76262e-14 1.70251e-14 -2.47198e-14 -3.37847e-14 0 0 -1.53196e-14 -1.57954e-14 1.63543e-14 -5.09342e-14 0 0 -2.12547e-14 -1.23911e-14 -1.69519e-14 5.84842e-15 0 0 -3.4527e-14 1.13592e-14 -6.76573e-14 4.5754e-14 0 0 -3.20047e-14 5.04295e-15 -6.43694e-14 4.44942e-14 0 0 -2.13238e-14 -2.81634e-14 -1.25641e-14 2.21714e-14 0 0 -1.05671e-14 -5.8347e-14 1.63262e-14 1.20852e-14 0 0 -4.77232e-14 1.06267e-14 -4.88397e-14 4.11756e-14 0 0 -1.25342e-14 -4.29389e-14 2.82762e-14 -2.4511e-14 0 0 9.05863e-15 -7.641e-14 5.56354e-14 -2.52599e-14 0 0 -2.67202e-14 -2.38124e-14 1.85202e-14 3.32139e-15 0 0 -1.43654e-14 -4.90139e-14 5.49345e-14 -9.27927e-15 0 0 -6.13684e-15 -2.99457e-14 1.3116e-14 3.21833e-14 0 0 -1.55715e-14 8.37398e-15 -1.37198e-14 2.1218e-14 0 0 -4.28627e-14 2.5052e-14 1.66918e-15 -1.26545e-14 0 0 -3.30843e-14 -1.19501e-14 3.22577e-14 -1.6695e-14 0 0 -5.48977e-15 -5.59716e-14 3.50697e-14 1.70572e-14 0 0 8.79941e-15 -8.42689e-14 4.92133e-14 -2.11715e-15 0 0 -1.16007e-14 -5.90665e-14 1.22441e-14 -5.59451e-17 0 0 -3.37645e-14 -2.73e-14 -6.62771e-14 7.19569e-14 0 0 -7.80298e-15 -7.30958e-14 -1.87236e-14 3.26529e-14 0 0 -2.05404e-14 -3.10567e-14 -1.613e-14 -5.13936e-15 0 0 -2.27261e-15 -2.73769e-14 -1.87632e-14 9.77019e-15 0 0 3.15317e-14 -5.53511e-14 -1.54576e-14 1.65831e-14 0 0 2.89807e-14 -4.54122e-14 -1.94978e-15 -2.32012e-14 0 0 -2.41469e-15 2.26284e-14 -6.96526e-14 2.62808e-14 0 0 2.18498e-14 4.97689e-14 -1.52017e-13 1.09107e-13 0 0 6.59723e-14 1.65091e-14 -8.91148e-14 2.59672e-14 0 0 6.27956e-14 1.81839e-14 -9.25429e-14 2.19504e-14 0 0 5.39304e-14 4.30978e-15 -1.18217e-13 9.68463e-14 0 0 7.59034e-14 -6.19685e-14 1.4356e-15 3.4329e-14 0 0 1.26097e-13 -1.2089e-13 1.40125e-13 -9.97696e-14 0 0 4.8704e-14 -3.46688e-15 1.18659e-13 -1.42212e-13 0 0 7.53787e-15 8.73372e-14 -3.49604e-15 -2.7958e-14 0 0 7.1476e-14 3.75369e-14 -2.27071e-14 1.57788e-14 0 0 -2.97409e-15 1.34483e-13 -1.08675e-13 4.0423e-14 0 0 -1.16206e-14 1.83956e-13 -2.23947e-13 9.06129e-14 0 0 6.1204e-14 8.14454e-14 -1.32576e-13 1.04974e-14 0 0 8.77366e-14 -9.9119e-19 1.33763e-14 -6.18144e-14 0 0 1.70578e-13 -1.36123e-13 1.43873e-13 -7.86309e-14 0 0 1.03717e-13 -8.14852e-14 5.87025e-14 2.66554e-14 0 0 -1.11904e-13 2.2189e-13 -2.34075e-13 2.26413e-13 0 0 -2.72487e-14 8.36441e-14 -4.86553e-14 6.67259e-14 0 0 1.10817e-13 -8.52377e-14 1.14783e-13 -7.60634e-14 0 0 6.90507e-14 1.83328e-14 5.62962e-15 -4.46439e-14 0 0 7.65145e-15 1.40826e-13 -1.09913e-13 -2.03377e-14 0 0 -4.00616e-15 2.21871e-13 -2.18259e-13 4.35477e-14 0 0 1.00969e-13 1.05254e-13 -1.07004e-13 2.20945e-14 0 0 3.87704e-14 1.30007e-13 -6.13835e-14 1.26574e-14 0 0 2.74406e-14 4.85032e-14 4.66261e-15 -5.65795e-14 0 0 8.95784e-14 2.43044e-14 -1.09735e-13 -1.92358e-14 0 0 1.40522e-13 1.92153e-14 -1.39645e-13 -7.71407e-14 0 0 3.39852e-13 -1.66146e-13 4.70968e-14 -2.9133e-13 0 0 2.68723e-13 1.0506e-13 -2.34364e-13 -1.50486e-13 0 0 2.12732e-13 2.60678e-13 -3.98254e-13 3.08201e-14 0 0 2.62789e-13 2.66444e-14 -1.29752e-13 -4.01467e-14 0 0 4.81636e-14 9.70095e-14 -8.50443e-14 -4.71034e-14 0 0 -6.56784e-14 1.75145e-13 -1.27985e-13 -3.29732e-15 0 0 4.2029e-14 1.44417e-13 -2.16411e-13 6.76322e-14 0 0 1.81107e-13 1.58796e-13 -3.61341e-13 7.53168e-14 0 0 2.11431e-13 1.05312e-13 -2.98029e-13 -8.71757e-14 0 0 1.1418e-13 1.4961e-13 -2.62464e-13 -1.41586e-13 0 0 1.11865e-13 9.14095e-14 -2.22284e-13 -4.20967e-14 0 0 1.69454e-13 -1.64657e-14 -2.25581e-13 1.10585e-13 0 0 1.46291e-13 -2.89625e-14 -3.58623e-13 3.08976e-13 0 0 5.98474e-14 2.79843e-14 -4.2811e-13 2.78231e-13 0 0 -7.54396e-14 4.04443e-14 -3.89173e-13 1.78852e-13 0 0 -2.05919e-13 6.8669e-14 -2.54999e-13 -6.97371e-15 0 0 -3.00077e-13 6.92983e-14 -1.38233e-13 -1.45973e-13 0 0 -4.13637e-13 -8.04042e-14 9.6522e-14 -3.2604e-13 0 0 -3.73294e-13 -2.7836e-13 4.08082e-13 -5.26074e-13 0 0 -3.2542e-13 -2.85802e-13 3.38863e-13 -4.52605e-13 0 0 -2.5063e-13 -1.91923e-13 8.87001e-14 -2.32142e-13 0 0 -1.3657e-13 -1.61375e-13 -1.98996e-13 3.78674e-14 0 0 -1.30401e-13 -1.21621e-13 -5.31894e-13 3.28976e-13 0 0 -2.52303e-13 1.40503e-14 -6.94408e-13 3.37606e-13 0 0 -3.78615e-13 6.77648e-14 -6.7563e-13 2.52716e-13 0 0 -3.37291e-13 -5.12861e-14 -5.10414e-13 7.60943e-14 0 0 -1.21213e-13 -4.23887e-13 -1.4988e-13 -1.56038e-13 0 0 -7.18613e-15 -6.74656e-13 1.66318e-13 -3.58592e-13 0 0 -3.67293e-14 -6.75945e-13 1.89498e-13 -3.90521e-13 0 0 -2.17846e-13 -5.4741e-13 1.17353e-13 -3.45771e-13 0 0 -6.2578e-13 -2.39267e-13 6.3691e-15 -2.82938e-13 0 0 -1.09676e-12 1.43001e-13 -1.18381e-13 -2.31123e-13 0 0 -1.17538e-12 2.02634e-13 -1.81209e-13 -1.85854e-13 0 0 -1.11045e-12 1.3272e-13 -1.71834e-13 -1.29916e-13 0 0 -9.58204e-13 -2.9901e-14 -9.65078e-14 -9.15134e-14 0 0 -7.55681e-13 -2.4371e-13 6.2859e-15 -1.08192e-13 0 0 -5.26998e-13 -3.58829e-13 2.2492e-14 -1.36874e-13 0 0 -2.47738e-13 -4.53411e-13 5.22324e-14 -1.60612e-13 0 0 -9.49854e-15 -5.8014e-13 9.59821e-14 -1.54832e-13 0 0 4.11204e-14 -5.72438e-13 3.59224e-14 -4.44401e-14 0 0 -1.39034e-15 -4.80072e-13 -5.09442e-14 7.35342e-14 0 0 -1.00603e-13 -2.88394e-13 -8.37392e-14 9.17166e-14 0 0 -1.34951e-13 -7.61908e-14 -1.43704e-13 1.18601e-13 0 0 -1.18751e-13 1.69784e-15 -1.70947e-13 1.30829e-13 0 0 -5.94143e-14 -8.64934e-15 -1.06291e-13 9.74712e-14 0 0 3.48793e-14 -3.27779e-14 -2.67785e-14 1.41975e-13 0 0 1.40852e-13 -8.65076e-14 3.75916e-14 2.31799e-13 0 0 1.89047e-13 -9.75031e-14 4.40257e-14 2.4021e-13 0 0 2.00976e-13 -7.73359e-14 5.2922e-14 2.35428e-13 0 0 1.94835e-13 -5.55619e-14 6.46377e-14 2.87672e-13 0 0 1.70201e-13 -3.36893e-14 8.11492e-14 3.57213e-13 0 0 1.61651e-13 -4.53768e-14 1.72299e-13 3.14474e-13 0 0 1.72942e-13 -5.38497e-14 2.34352e-13 2.32261e-13 0 0 1.88918e-13 -3.64132e-14 2.3404e-13 1.56427e-13 0 0 1.84343e-13 3.26839e-14 1.66541e-13 1.33762e-13 0 0 1.81626e-13 7.8723e-14 1.24644e-13 1.21065e-13 0 0 1.66097e-13 9.30832e-14 1.53211e-13 5.89152e-14 0 0 1.18191e-13 1.54339e-13 1.00015e-13 7.67829e-14 0 0 1.05747e-13 1.65988e-13 8.66503e-14 6.28207e-14 0 0 1.163e-13 1.33124e-13 1.15078e-13 3.13059e-14 0 0 1.11827e-13 5.80312e-14 1.61477e-13 4.61336e-15 0 0 7.87886e-14 2.79795e-14 1.42472e-13 -6.99884e-16 0 0 6.0425e-14 5.13315e-15 1.10153e-13 1.14014e-14 0 0 3.79336e-14 -2.6763e-14 1.38805e-13 -2.5013e-14 0 0 1.24305e-14 -3.23811e-14 1.30023e-13 -6.91111e-14 0 0 1.89443e-14 -4.21286e-14 5.30701e-14 -5.23003e-14 0 0 4.02309e-14 -3.58277e-14 3.75324e-15 -1.41221e-14 0 0 2.46312e-14 2.91588e-15 -6.5256e-14 1.08608e-14 0 0 1.58853e-14 3.94196e-15 -5.58086e-14 -3.75196e-14 0 0 5.04431e-15 -1.31183e-14 -8.23448e-15 -1.4746e-13 0 0 -7.05181e-15 -1.65657e-14 -4.32269e-14 -1.15111e-13 0 0 -1.31018e-14 -4.01011e-14 -3.20859e-14 -1.55493e-13 0 0 -3.96128e-14 -1.98521e-14 -7.49964e-14 -9.74723e-14 0 0 -8.20244e-14 3.61661e-14 -1.38323e-13 4.64023e-14 0 0 -1.29558e-13 7.18645e-14 -1.66492e-13 6.63411e-14 0 0 -1.5516e-13 7.58262e-14 -2.10535e-13 6.53454e-14 0 0 -1.33406e-13 1.64086e-14 -1.77188e-13 1.32788e-13 0 0 -9.86417e-14 -9.53132e-14 -1.00637e-13 1.6045e-13 0 0 -6.19894e-14 -1.79506e-13 -3.89667e-14 1.21986e-13 0 0 -6.15719e-14 -1.79752e-13 -4.57055e-14 7.3795e-15 0 0 -6.80439e-14 -1.47404e-13 -6.50746e-14 -9.14854e-14 0 0 -4.0942e-14 -1.18311e-13 -1.04983e-13 -1.67409e-13 0 0 -8.74437e-15 -6.34899e-14 -2.19745e-13 -3.74171e-13 0 0 1.07671e-14 -4.94871e-14 -2.53301e-13 -3.20684e-13 0 0 1.32436e-14 -2.7946e-14 -1.92973e-13 9.20646e-15 0 0 9.06481e-15 -3.64983e-14 1.32198e-14 3.40297e-13 0 0 3.08749e-14 -4.87297e-14 2.20279e-13 2.62806e-13 0 0 5.50048e-14 3.05596e-14 1.91999e-13 1.01378e-13 0 0 6.71487e-14 9.76649e-14 1.07919e-13 1.10613e-13 0 0 4.62233e-14 1.8478e-13 3.49832e-14 1.33029e-13 0 0 6.20702e-14 1.34575e-13 1.41374e-13 3.53845e-15 0 0 9.80068e-14 6.89691e-14 2.45957e-13 -9.77987e-15 0 0 4.44689e-14 1.67301e-13 1.50249e-13 7.53273e-14 0 0 -2.82203e-14 2.58613e-13 -1.28113e-14 2.6787e-13 0 0 3.68988e-15 2.01349e-13 2.58136e-14 3.0551e-13 0 0 -3.58113e-14 2.86498e-13 1.13835e-14 2.04659e-13 0 0 -2.04376e-14 2.45549e-13 8.75335e-14 1.14196e-13 0 0 1.22864e-13 7.48261e-15 3.03921e-13 4.67728e-14 0 0 1.12276e-13 5.1536e-14 3.05359e-13 -5.29198e-14 0 0 7.89962e-14 1.3057e-13 3.17235e-13 -1.66834e-13 0 0 8.63713e-14 1.04027e-13 3.82449e-13 -2.24971e-13 0 0 7.82575e-14 9.81613e-14 3.45415e-13 -1.36959e-13 0 0 1.18548e-13 7.67793e-14 3.30707e-13 -1.91436e-14 0 0 1.59786e-13 5.89621e-14 3.55167e-13 1.81021e-14 0 0 1.62074e-13 5.66392e-14 3.44511e-13 6.73533e-14 0 0 9.56135e-14 1.59266e-13 2.78723e-13 9.31845e-14 0 0 -1.12305e-14 3.735e-13 8.61372e-14 2.47925e-13 0 0 5.35142e-14 3.17556e-13 7.8461e-14 3.34689e-13 0 0 2.62259e-13 -1.17043e-14 3.81497e-13 1.47817e-13 0 0 2.34949e-13 8.29223e-14 2.96654e-13 2.04866e-13 0 0 1.20094e-13 3.59547e-13 -1.43875e-14 4.61084e-13 0 0 1.42842e-13 3.24185e-13 3.36591e-14 4.76789e-13 0 0 2.05164e-13 2.0302e-13 2.2669e-13 2.99838e-13 0 0 1.53399e-13 2.77422e-13 2.30525e-13 1.40177e-13 0 0 2.25722e-13 4.35436e-14 6.29826e-13 -1.87923e-13 0 0 1.04727e-13 2.88108e-13 4.45899e-13 -2.15397e-14 0 0 1.71596e-13 3.21455e-13 3.7976e-13 9.48207e-14 0 0 1.25558e-13 3.61475e-13 4.26627e-13 4.20728e-14 0 0 4.59477e-15 5.10412e-13 2.86424e-13 9.20326e-14 0 0 1.58197e-13 2.59645e-13 2.90051e-13 1.97114e-13 0 0 4.19556e-14 3.78033e-13 2.09948e-13 1.94533e-13 0 0 1.0752e-13 2.05527e-13 5.11913e-13 1.49583e-14 0 0 2.06381e-13 1.4206e-13 5.20678e-13 7.47855e-14 0 0 1.20023e-13 3.88587e-13 2.51647e-13 1.76305e-13 0 0 8.62586e-14 3.9949e-13 1.47584e-13 2.26726e-13 0 0 1.74346e-13 1.8633e-13 2.5874e-13 2.04443e-13 0 0 1.07964e-13 2.99626e-13 5.48029e-14 4.07293e-13 0 0 1.5328e-13 3.77511e-13 -6.2503e-14 4.58403e-13 0 0 4.61244e-13 -9.39876e-14 4.41909e-13 1.55685e-13 0 0 4.09221e-13 -8.15874e-14 6.0354e-13 -1.05551e-13 0 0 2.75451e-13 9.0928e-14 5.52022e-13 -3.25196e-13 0 0 2.69724e-13 4.8066e-14 4.05953e-13 -8.49756e-14 0 0 2.047e-13 3.1724e-13 -1.86885e-13 4.89789e-13 0 0 4.5825e-13 1.47247e-13 -3.51359e-13 6.77837e-13 0 0 6.45759e-13 -3.17342e-14 -3.85385e-13 7.78867e-13 0
				</DataArray>
				<DataArray Name="VitesseY" type="Float32" format="ascii">