<?xml version="1.0"?>
<VTKFile type="PolyData">
	<PolyData>
		<Piece NumberOfPoints="1206" NumberOfPolys="1000">
			<Points>
				<DataArray type="Float32" NumberOfComponents="3" format="ascii">
 0 0 0 0.02 0 0 0.04 0 0 0.06 0 0 0.08 0 0 0.1 0 0 0 0.005 0 0.02 0.005 0 0.04 0.005 0 0.06 0.005 0 0.08 0.005 0 0.1 0.005 0 0 0.01 0 0.02 0.01 0 0.04 0.01 0 0.06 0.01 0 0.08 0.01 0 0.1 0.01 0 0 0.015 0 0.02 0.015 0 0.04 0.015 0 0.06 0.015 0 0.08 0.015 0 0.1 0.015 0 0 0.02 0 0.02 0.02 0 0.04 0.02 0 0.06 0.02 0 0.08 0.02 0 0.1 0.02 0 0 0.025 0 0.02 0.025 0 0.04 0.025 0 0.06 0.025 0 0.08 0.025 0 0.1 0.025 0 0 0.03 0 0.02 0.03 0 0.04 0.03 0 0.06 0.03 0 0.08 0.03 0 0.1 0.03 0 0 0.035 0 0.02 0.035 0 0.04 0.035 0 0.06 0.035 0 0.08 0.035 0 0.1 0.035 0 0 0.04 0 0.02 0.04 0 0.04 0.04 0 0.06 0.04 0 0.08 0.04 0 0.1 0.04 0 0 0.045 0 0.02 0.045 0 0.04 0.045 0 0.06 0.045 0 0.08 0.045 0 0.1 0.045 0 0 0.05 0 0.02 0.05 0 0.04 0.05 0 0.06 0.05 0 0.08 0.05 0 0.1 0.05 0 0 0.055 0 0.02 0.055 0 0.04 0.055 0 0.06 0.055 0 0.08 0.055 0 0.1 0.055 0 0 0.06 0 0.02 0.06 0 0.04 0.06 0 0.06 0.06 0 0.08 0.06 0 0.1 0.06 0 0 0.065 0 0.02 0.065 0 0.04 0.065 0 0.06 0.065 0 0.08 0.065 0 0.1 0.065 0 0 0.07 0 0.02 0.07 0 0.04 0.07 0 0.06 0.07 0 0.08 0.07 0 0.1 0.07 0 0 0.075 0 0.02 0.075 0 0.04 0.075 0 0.06 0.075 0 0.08 0.075 0 0.1 0.075 0 0 0.08 0 0.02 0.08 0 0.04 0.08 0 0.06 0.08 0 0.08 0.08 0 0.1 0.08 0 0 0.085 0 0.02 0.085 0 0.04 0.085 0 0.06 0.085 0 0.08 0.085 0 0.1 0.085 0 0 0.09 0 0.02 0.09 0 0.04 0.09 0 0.06 0.09 0 0.08 0.09 0 0.1 0.09 0 0 0.095 0 0.02 0.095 0 0.04 0.095 0 0.06 0.095 0 0.08 0.095 0 0.1 0.095 0 0 0.1 0 0.02 0.1 0 0.04 0.1 0 0.06 0.1 0 0.08 0.1 0 0.1 0.1 0 0 0.105 0 0.02 0.105 0 0.04 0.105 0 0.06 0.105 0 0.08 0.105 0 0.1 0.105 0 0 0.11 0 0.02 0.11 0 0.04 0.11 0 0.06 0.11 0 0.08 0.11 0 0.1 0.11 0 0 0.115 0 0.02 0.115 0 0.04 0.115 0 0.06 0.115 0 0.08 0.115 0 0.1 0.115 0 0 0.12 0 0.02 0.12 0 0.04 0.12 0 0.06 0.12 0 0.08 0.12 0 0.1 0.12 0 0 0.125 0 0.02 0.125 0 0.04 0.125 0 0.06 0.125 0 0.08 0.125 0 0.1 0.125 0 0 0.13 0 0.02 0.13 0 0.04 0.13 0 0.06 0.13 0 0.08 0.13 0 0.1 0.13 0 0 0.135 0 0.02 0.135 0 0.04 0.135 0 0.06 0.135 0 0.08 0.135 0 0.1 0.135 0 0 0.14 0 0.02 0.14 0 0.04 0.14 0 0.06 0.14 0 0.08 0.14 0 0.1 0.14 0 0 0.145 0 0.02 0.145 0 0.04 0.145 0 0.06 0.145 0 0.08 0.145 0 0.1 0.145 0 0 0.15 0 0.02 0.15 0 0.04 0.15 0 0.06 0.15 0 0.08 0.15 0 0.1 0.15 0 0 0.155 0 0.02 0.155 0 0.04 0.155 0 0.06 0.155 0 0.08 0.155 0 0.1 0.155 0 0 0.16 0 0.02 0.16 0 0.04 0.16 0 0.06 0.16 0 0.08 0.16 0 0.1 0.16 0 0 0.165 0 0.02 0.165 0 0.04 0.165 0 0.06 0.165 0 0.08 0.165 0 0.1 0.165 0 0 0.17 0 0.02 0.17 0 0.04 0.17 0 0.06 0.17 0 0.08 0.17 0 0.1 0.17 0 0 0.175 0 0.02 0.175 0 0.04 0.175 0 0.06 0.175 0 0.08 0.175 0 0.1 0.175 0 0 0.18 0 0.02 0.18 0 0.04 0.18 0 0.06 0.18 0 0.08 0.18 0 0.1 0.18 0 0 0.185 0 0.02 0.185 0 0.04 0.185 0 0.06 0.185 0 0.08 0.185 0 0.1 0.185 0 0 0.19 0 0.02 0.19 0 0.04 0.19 0 0.06 0.19 0 0.08 0.19 0 0.1 0.19 0 0 0.195 0 0.02 0.195 0 0.04 0.195 0 0.06 0.195 0 0.08 0.195 0 0.1 0.195 0 0 0.2 0 0.02 0.2 0 0.04 0.2 0 0.06 0.2 0 0.08 0.2 0 0.1 0.2 0 0 0.205 0 0.02 0.205 0 0.04 0.205 0 0.06 0.205 0 0.08 0.205 0 0.1 0.205 0 0 0.21 0 0.02 0.21 0 0.04 0.21 0 0.06 0.21 0 0.08 0.21 0 0.1 0.21 0 0 0.215 0 0.02 0.215 0 0.04 0.215 0 0.06 0.215 0 0.08 0.215 0 0.1 0.215 0 0 0.22 0 0.02 0.22 0 0.04 0.22 0 0.06 0.22 0 0.08 0.22 0 0.1 0.22 0 0 0.225 0 0.02 0.225 0 0.04 0.225 0 0.06 0.225 0 0.08 0.225 0 0.1 0.225 0 0 0.23 0 0.02 0.23 0 0.04 0.23 0 0.06 0.23 0 0.08 0.23 0 0.1 0.23 0 0 0.235 0 0.02 0.235 0 0.04 0.235 0 0.06 0.235 0 0.08 0.235 0 0.1 0.235 0 0 0.24 0 0.02 0.24 0 0.04 0.24 0 0.06 0.24 0 0.08 0.24 0 0.1 0.24 0 0 0.245 0 0.02 0.245 0 0.04 0.245 0 0.06 0.245 0 0.08 0.245 0 0.1 0.245 0 0 0.25 0 0.02 0.25 0 0.04 0.25 0 0.06 0.25 0 0.08 0.25 0 0.1 0.25 0 0 0.255 0 0.02 0.255 0 0.04 0.255 0 0.06 0.255 0 0.08 0.255 0 0.1 0.255 0 0 0.26 0 0.02 0.26 0 0.04 0.26 0 0.06 0.26 0 0.08 0.26 0 0.1 0.26 0 0 0.265 0 0.02 0.265 0 0.04 0.265 0 0.06 0.265 0 0.08 0.265 0 0.1 0.265 0 0 0.27 0 0.02 0.27 0 0.04 0.27 0 0.06 0.27 0 0.08 0.27 0 0.1 0.27 0 0 0.275 0 0.02 0.275 0 0.04 0.275 0 0.06 0.275 0 0.08 0.275 0 0.1 0.275 0 0 0.28 0 0.02 0.28 0 0.04 0.28 0 0.06 0.28 0 0.08 0.28 0 0.1 0.28 0 0 0.285 0 0.02 0.285 0 0.04 0.285 0 0.06 0.285 0 0.08 0.285 0 0.1 0.285 0 0 0.29 0 0.02 0.29 0 0.04 0.29 0 0.06 0.29 0 0.08 0.29 0 0.1 0.29 0 0 0.295 0 0.02 0.295 0 0.04 0.295 0 0.06 0.295 0 0.08 0.295 0 0.1 0.295 0 0 0.3 0 0.02 0.3 0 0.04 0.3 0 0.06 0.3 0 0.08 0.3 0 0.1 0.3 0 0 0.305 0 0.02 0.305 0 0.04 0.305 0 0.06 0.305 0 0.08 0.305 0 0.1 0.305 0 0 0.31 0 0.02 0.31 0 0.04 0.31 0 0.06 0.31 0 0.08 0.31 0 0.1 0.31 0 0 0.315 0 0.02 0.315 0 0.04 0.315 0 0.06 0.315 0 0.08 0.315 0 0.1 0.315 0 0 0.32 0 0.02 0.32 0 0.04 0.32 0 0.06 0.32 0 0.08 0.32 0 0.1 0.32 0 0 0.325 0 0.02 0.325 0 0.04 0.325 0 0.06 0.325 0 0.08 0.325 0 0.1 0.325 0 0 0.33 0 0.02 0.33 0 0.04 0.33 0 0.06 0.33 0 0.08 0.33 0 0.1 0.33 0 0 0.335 0 0.02 0.335 0 0.04 0.335 0 0.06 0.335 0 0.08 0.335 0 0.1 0.335 0 0 0.34 0 0.02 0.34 0 0.04 0.34 0 0.06 0.34 0 0.08 0.34 0 0.1 0.34 0 0 0.345 0 0.02 0.345 0 0.04 0.345 0 0.06 0.345 0 0.08 0.345 0 0.1 0.345 0 0 0.35 0 0.02 0.35 0 0.04 0.35 0 0.06 0.35 0 0.08 0.35 0 0.1 0.35 0 0 0.355 0 0.02 0.355 0 0.04 0.355 0 0.06 0.355 0 0.08 0.355 0 0.1 0.355 0 0 0.36 0 0.02 0.36 0 0.04 0.36 0 0.06 0.36 0 0.08 0.36 0 0.1 0.36 0 0 0.365 0 0.02 0.365 0 0.04 0.365 0 0.06 0.365 0 0.08 0.365 0 0.1 0.365 0 0 0.37 0 0.02 0.37 0 0.04 0.37 0 0.06 0.37 0 0.08 0.37 0 0.1 0.37 0 0 0.375 0 0.02 0.375 0 0.04 0.375 0 0.06 0.375 0 0.08 0.375 0 0.1 0.375 0 0 0.38 0 0.02 0.38 0 0.04 0.38 0 0.06 0.38 0 0.08 0.38 0 0.1 0.38 0 0 0.385 0 0.02 0.385 0 0.04 0.385 0 0.06 0.385 0 0.08 0.385 0 0.1 0.385 0 0 0.39 0 0.02 0.39 0 0.04 0.39 0 0.06 0.39 0 0.08 0.39 0 0.1 0.39 0 0 0.395 0 0.02 0.395 0 0.04 0.395 0 0.06 0.395 0 0.08 0.395 0 0.1 0.395 0 0 0.4 0 0.02 0.4 0 0.04 0.4 0 0.06 0.4 0 0.08 0.4 0 0.1 0.4 0 0 0.405 0 0.02 0.405 0 0.04 0.405 0 0.06 0.405 0 0.08 0.405 0 0.1 0.405 0 0 0.41 0 0.02 0.41 0 0.04 0.41 0 0.06 0.41 0 0.08 0.41 0 0.1 0.41 0 0 0.415 0 0.02 0.415 0 0.04 0.415 0 0.06 0.415 0 0.08 0.415 0 0.1 0.415 0 0 0.42 0 0.02 0.42 0 0.04 0.42 0 0.06 0.42 0 0.08 0.42 0 0.1 0.42 0 0 0.425 0 0.02 0.425 0 0.04 0.425 0 0.06 0.425 0 0.08 0.425 0 0.1 0.425 0 0 0.43 0 0.02 0.43 0 0.04 0.43 0 0.06 0.43 0 0.08 0.43 0 0.1 0.43 0 0 0.435 0 0.02 0.435 0 0.04 0.435 0 0.06 0.435 0 0.08 0.435 0 0.1 0.435 0 0 0.44 0 0.02 0.44 0 0.04 0.44 0 0.06 0.44 0 0.08 0.44 0 0.1 0.44 0 0 0.445 0 0.02 0.445 0 0.04 0.445 0 0.06 0.445 0 0.08 0.445 0 0.1 0.445 0 0 0.45 0 0.02 0.45 0 0.04 0.45 0 0.06 0.45 0 0.08 0.45 0 0.1 0.45 0 0 0.455 0 0.02 0.455 0 0.04 0.455 0 0.06 0.455 0 0.08 0.455 0 0.1 0.455 0 0 0.46 0 0.02 0.46 0 0.04 0.46 0 0.06 0.46 0 0.08 0.46 0 0.1 0.46 0 0 0.465 0 0.02 0.465 0 0.04 0.465 0 0.06 0.465 0 0.08 0.465 0 0.1 0.465 0 0 0.47 0 0.02 0.47 0 0.04 0.47 0 0.06 0.47 0 0.08 0.47 0 0.1 0.47 0 0 0.475 0 0.02 0.475 0 0.04 0.475 0 0.06 0.475 0 0.08 0.475 0 0.1 0.475 0 0 0.48 0 0.02 0.48 0 0.04 0.48 0 0.06 0.48 0 0.08 0.48 0 0.1 0.48 0 0 0.485 0 0.02 0.485 0 0.04 0.485 0 0.06 0.485 0 0.08 0.485 0 0.1 0.485 0 0 0.49 0 0.02 0.49 0 0.04 0.49 0 0.06 0.49 0 0.08 0.49 0 0.1 0.49 0 0 0.495 0 0.02 0.495 0 0.04 0.495 0 0.06 0.495 0 0.08 0.495 0 0.1 0.495 0 0 0.5 0 0.02 0.5 0 0.04 0.5 0 0.06 0.5 0 0.08 0.5 0 0.1 0.5 0 0 0.505 0 0.02 0.505 0 0.04 0.505 0 0.06 0.505 0 0.08 0.505 0 0.1 0.505 0 0 0.51 0 0.02 0.51 0 0.04 0.51 0 0.06 0.51 0 0.08 0.51 0 0.1 0.51 0 0 0.515 0 0.02 0.515 0 0.04 0.515 0 0.06 0.515 0 0.08 0.515 0 0.1 0.515 0 0 0.52 0 0.02 0.52 0 0.04 0.52 0 0.06 0.52 0 0.08 0.52 0 0.1 0.52 0 0 0.525 0 0.02 0.525 0 0.04 0.525 0 0.06 0.525 0 0.08 0.525 0 0.1 0.525 0 0 0.53 0 0.02 0.53 0 0.04 0.53 0 0.06 0.53 0 0.08 0.53 0 0.1 0.53 0 0 0.535 0 0.02 0.535 0 0.04 0.535 0 0.06 0.535 0 0.08 0.535 0 0.1 0.535 0 0 0.54 0 0.02 0.54 0 0.04 0.54 0 0.06 0.54 0 0.08 0.54 0 0.1 0.54 0 0 0.545 0 0.02 0.545 0 0.04 0.545 0 0.06 0.545 0 0.08 0.545 0 0.1 0.545 0 0 0.55 0 0.02 0.55 0 0.04 0.55 0 0.06 0.55 0 0.08 0.55 0 0.1 0.55 0 0 0.555 0 0.02 0.555 0 0.04 0.555 0 0.06 0.555 0 0.08 0.555 0 0.1 0.555 0 0 0.56 0 0.02 0.56 0 0.04 0.56 0 0.06 0.56 0 0.08 0.56 0 0.1 0.56 0 0 0.565 0 0.02 0.565 0 0.04 0.565 0 0.06 0.565 0 0.08 0.565 0 0.1 0.565 0 0 0.57 0 0.02 0.57 0 0.04 0.57 0 0.06 0.57 0 0.08 0.57 0 0.1 0.57 0 0 0.575 0 0.02 0.575 0 0.04 0.575 0 0.06 0.575 0 0.08 0.575 0 0.1 0.575 0 0 0.58 0 0.02 0.58 0 0.04 0.58 0 0.06 0.58 0 0.08 0.58 0 0.1 0.58 0 0 0.585 0 0.02 0.585 0 0.04 0.585 0 0.06 0.585 0 0.08 0.585 0 0.1 0.585 0 0 0.59 0 0.02 0.59 0 0.04 0.59 0 0.06 0.59 0 0.08 0.59 0 0.1 0.59 0 0 0.595 0 0.02 0.595 0 0.04 0.595 0 0.06 0.595 0 0.08 0.595 0 0.1 0.595 0 0 0.6 0 0.02 0.6 0 0.04 0.6 0 0.06 0.6 0 0.08 0.6 0 0.1 0.6 0 0 0.605 0 0.02 0.605 0 0.04 0.605 0 0.06 0.605 0 0.08 0.605 0 0.1 0.605 0 0 0.61 0 0.02 0.61 0 0.04 0.61 0 0.06 0.61 0 0.08 0.61 0 0.1 0.61 0 0 0.615 0 0.02 0.615 0 0.04 0.615 0 0.06 0.615 0 0.08 0.615 0 0.1 0.615 0 0 0.62 0 0.02 0.62 0 0.04 0.62 0 0.06 0.62 0 0.08 0.62 0 0.1 0.62 0 0 0.625 0 0.02 0.625 0 0.04 0.625 0 0.06 0.625 0 0.08 0.625 0 0.1 0.625 0 0 0.63 0 0.02 0.63 0 0.04 0.63 0 0.06 0.63 0 0.08 0.63 0 0.1 0.63 0 0 0.635 0 0.02 0.635 0 0.04 0.635 0 0.06 0.635 0 0.08 0.635 0 0.1 0.635 0 0 0.64 0 0.02 0.64 0 0.04 0.64 0 0.06 0.64 0 0.08 0.64 0 0.1 0.64 0 0 0.645 0 0.02 0.645 0 0.04 0.645 0 0.06 0.645 0 0.08 0.645 0 0.1 0.645 0 0 0.65 0 0.02 0.65 0 0.04 0.65 0 0.06 0.65 0 0.08 0.65 0 0.1 0.65 0 0 0.655 0 0.02 0.655 0 0.04 0.655 0 0.06 0.655 0 0.08 0.655 0 0.1 0.655 0 0 0.66 0 0.02 0.66 0 0.04 0.66 0 0.06 0.66 0 0.08 0.66 0 0.1 0.66 0 0 0.665 0 0.02 0.665 0 0.04 0.665 0 0.06 0.665 0 0.08 0.665 0 0.1 0.665 0 0 0.67 0 0.02 0.67 0 0.04 0.67 0 0.06 0.67 0 0.08 0.67 0 0.1 0.67 0 0 0.675 0 0.02 0.675 0 0.04 0.675 0 0.06 0.675 0 0.08 0.675 0 0.1 0.675 0 0 0.68 0 0.02 0.68 0 0.04 0.68 0 0.06 0.68 0 0.08 0.68 0 0.1 0.68 0 0 0.685 0 0.02 0.685 0 0.04 0.685 0 0.06 0.685 0 0.08 0.685 0 0.1 0.685 0 0 0.69 0 0.02 0.69 0 0.04 0.69 0 0.06 0.69 0 0.08 0.69 0 0.1 
[...]
			<PointData Scalars="VitesseX">
				<DataArray Name="VitesseX" type="Float32" format="ascii">
 0 2.5986e-15 5.31061e-14 4.50511e-14 -1.88771e-16 0 0 1.34331e-14 4.31994e-14 4.37626e-14 2.95734e-15 0 0 1.99534e-14 4.13987e-14 2.45426e-14 1.95586e-14 0 0 3.39138e-14 1.44311e-14 3.64163e-14 1.57408e-14 0 0 3.37729e-14 3.28426e-15 3.90668e-14 1.61943e-14 0 0 1.07473e-14 3.00135e-14 7.54693e-15 3.63116e-14 0 0 -2.77564e-16 4.28777e-14 -6.6455e-15 4.29342e-14 0 0 1.68364e-15 3.58515e-14 6.7886e-15 3.25528e-14 0 0 8.25107e-15 2.28082e-14 2.38406e-14 2.17094e-14 0 0 9.75075e-15 1.28149e-14 3.50518e-14 1.02271e-14 0 0 1.31855e-14 -7.49121e-15 6.75081e-14 -1.85515e-14 0 0 -1.9299e-15 1.14753e-14 4.96495e-14 -8.83767e-15 0 0 2.2967e-14 -2.56739e-14 7.86239e-14 -2.20242e-14 0 0 1.45511e-15 1.75002e-14 3.4898e-14 5.64011e-15 0 0 -2.91576e-14 7.5884e-14 -2.57597e-14 4.82779e-14 0 0 7.68623e-16 2.61951e-14 2.43947e-14 3.24322e-14 0 0 1.05357e-14 1.68462e-14 4.11194e-14 4.2288e-14 0 0 1.64461e-14 2.54395e-14 5.52803e-14 4.73219e-14 0 0 2.00373e-15 5.61088e-14 5.74372e-14 5.26709e-14 0 0 1.99535e-14 4.43146e-14 7.12079e-14 5.3083e-14 0 0 4.50279e-15 1.01986e-13 -1.03353e-14 1.04132e-13 0 0 -1.83435e-14 1.42254e-13 -3.59226e-14 8.4352e-14 0 0 1.38469e-14 8.21693e-14 6.5101e-14 -3.54993e-14 0 0 5.3571e-14 1.32382e-14 1.53512e-13 -1.03637e-13 0 0 3.82618e-14 3.50327e-14 1.33434e-13 -8.22998e-14 0 0 -1.19348e-15 1.19527e-13 1.99358e-14 -1.33784e-14 0 0 2.78775e-14 1.03595e-13 1.00654e-14 -2.01208e-14 0 0 3.1752e-14 9.88836e-14 1.69254e-14 -4.03555e-14 0 0 3.84492e-14 6.34012e-14 6.78808e-14 -8.55765e-14 0 0 5.30785e-14 3.57055e-14 6.74088e-14 -5.64616e-14 0 0 3.78071e-14 4.52768e-14 4.00731e-14 -4.56191e-15 0 0 1.98918e-14 7.10299e-14 5.29416e-14 -3.40842e-14 0 0 6.69794e-15 1.11892e-13 1.20479e-14 8.9542e-15 0 0 2.38897e-14 7.35365e-14 7.35428e-14 -2.69207e-14 0 0 -1.78495e-14 1.50041e-13 3.76058e-14 -2.59136e-14 0 0 -1.12968e-14 1.65996e-13 2.69163e-14 1.84775e-14 0 0 3.92158e-14 9.45989e-14 9.34112e-14 2.08285e-14 0 0 4.69848e-14 8.4868e-14 8.39459e-14 8.72772e-14 0 0 9.6592e-14 1.02584e-14 1.36885e-13 1.00966e-13 0 0 7.72664e-14 6.38673e-14 6.17662e-14 1.3582e-13 0 0 2.11647e-14 1.10826e-13 3.63901e-14 1.26127e-13 0 0 -4.1777e-14 1.15901e-13 1.0319e-13 3.76353e-14 0 0 -9.7546e-14 1.46259e-13 1.38596e-13 -4.20545e-14 0 0 -5.14822e-14 1.30566e-13 9.5137e-14 -2.96455e-14 0 0 -2.55133e-14 1.324e-13 3.54628e-14 2.03072e-14 0 0 4.86702e-15 1.91922e-14 2.0092e-13 -8.45897e-14 0 0 9.15329e-14 -1.6253e-13 3.87724e-13 -1.81889e-13 0 0 1.17637e-14 -4.16958e-14 2.62303e-13 -8.46592e-14 0 0 -1.24464e-13 1.6819e-13 1.40791e-13 -4.51287e-14 0 0 -2.38106e-13 3.41782e-13 1.50038e-14 1.84478e-14 0 0 -2.34754e-13 3.63476e-13 -6.48993e-14 9.49507e-14 0 0 -1.27449e-13 2.07944e-13 1.03159e-13 -3.52263e-15 0 0 -9.2226e-14 1.7822e-13 1.09337e-13 4.61099e-14 0 0 6.84121e-15 2.21881e-14 2.48931e-13 1.91702e-14 0 0 -8.69849e-14 1.33942e-13 2.36403e-13 9.61461e-15 0 0 -1.98927e-13 3.12296e-13 1.14868e-13 7.63589e-14 0 0 -6.0788e-14 1.18443e-13 2.58227e-13 3.84476e-14 0 0 -3.52568e-14 9.54228e-14 1.98392e-13 1.45966e-13 0 0 -8.81093e-14 2.26064e-13 2.96354e-14 2.06686e-13 0 0 -6.01167e-14 2.00702e-13 7.61954e-14 8.72246e-14 0 0 -4.83439e-14 1.624e-13 1.99582e-13 -6.64194e-14 0 0 -1.19404e-14 1.05582e-13 2.85663e-13 -1.37859e-13 0 0 8.52991e-14 4.65354e-14 2.3386e-13 -3.09804e-14 0 0 8.43006e-14 1.73508e-13 4.98917e-14 1.19561e-13 0 0 1.4406e-14 3.04318e-13 -5.63227e-14 2.29299e-13 0 0 -1.06336e-14 2.79567e-13 2.30624e-14 2.44798e-13 0 0 8.93987e-14 6.85373e-14 3.1483e-13 1.18803e-13 0 0 -1.37105e-14 2.57849e-13 1.80826e-13 2.31147e-13 0 0 -1.06755e-13 4.64299e-13 3.3009e-15 3.21281e-13 0 0 -3.54956e-14 3.03381e-13 2.37502e-13 1.08023e-13 0 0 -9.7072e-14 3.4997e-13 2.50475e-13 6.81911e-14 0 0 -5.11456e-14 2.53483e-13 3.66625e-13 6.08705e-14 0 0 -2.57832e-13 3.49129e-13 4.19988e-13 1.12002e-13 0 0 -3.91636e-13 3.57846e-13 5.45117e-13 1.08291e-13 0 0 -3.08114e-13 2.8885e-13 5.35408e-13 2.09327e-13 0 0 -1.85232e-13 2.20751e-13 4.42443e-13 2.21428e-13 0 0 -1.20596e-13 1.87977e-13 4.94327e-13 -3.51354e-15 0 0 -4.04444e-13 7.31208e-13 -3.47124e-14 3.19584e-13 0 0 -9.07986e-14 2.93909e-13 2.7561e-13 3.01688e-13 0 0 -2.24366e-13 3.91024e-13 3.37174e-13 2.74443e-13 0 0 -4.98399e-13 8.30605e-13 1.69451e-13 2.35325e-13 0 0 1.16769e-13 1.89326e-13 7.30355e-13 -1.73821e-13 0 0 4.02863e-13 1.83238e-13 4.92098e-13 -3.76753e-15 0 0 3.04067e-13 4.61762e-13 2.83311e-15 3.96143e-13 0 0 4.87275e-13 3.26178e-13 1.05349e-13 3.1424e-13 0 0 4.69826e-13 3.02738e-13 3.46345e-13 -2.44438e-14 0 0 3.24656e-13 5.96986e-13 2.06575e-13 -2.00925e-13 0 0 2.45424e-13 6.47015e-13 2.79404e-13 -4.29496e-13 0 0 3.47453e-13 5.03811e-13 4.11562e-13 -3.86666e-13 0 0 3.8505e-13 4.99988e-13 3.78191e-13 -2.23204e-13 0 0 2.37819e-13 7.79594e-13 1.01322e-13 1.48307e-13 0 0 2.96414e-13 8.10717e-13 -2.17779e-13 5.60044e-13 0 0 4.66597e-13 6.99561e-13 -2.24277e-13 6.46853e-13 0 0 6.30894e-13 5.11598e-13 -4.63425e-14 5.06443e-13 0 0 8.36224e-13 1.35903e-13 3.65552e-13 1.60523e-13 0 0 8.16434e-13 -9.3569e-14 7.072e-13 -9.09036e-14 0 0 7.42787e-13 -1.07098e-13 7.61111e-13 -9.48349e-14 0 0 5.92534e-13 2.04236e-15 6.34468e-13 4.98949e-14 0 0 3.36602e-13 3.39183e-13 3.37235e-13 2.68406e-13 0 0 -7.62148e-14 9.17739e-13 -1.11319e-13 4.12902e-13 0 0 -3.20429e-13 1.23751e-12 -3.24028e-13 3.96532e-13 0 0 -3.04241e-13 1.20497e-12 -2.27283e-13 1.93207e-13 0 0 -1.6885e-14 8.03405e-13 1.67657e-13 -1.91054e-13 0 0 4.88561e-13 9.916e-14 7.62727e-13 -4.4559e-13 0 0 6.91995e-13 -1.17978e-13 8.60976e-13 -4.30223e-13 0 0 6.89074e-13 -8.06799e-14 7.78786e-13 -3.04719e-13 0 0 4.89246e-13 1.03742e-13 6.54233e-13 -1.85235e-13 0 0 1.11132e-13 2.61554e-13 6.48119e-13 -1.91306e-13 0 0 -1.37377e-13 3.35313e-13 6.79865e-13 -2.25477e-13 0 0 -2.10373e-13 3.57206e-13 6.51312e-13 -1.77695e-13 0 0 -1.95096e-13 3.51856e-13 5.67113e-13 -8.97613e-14 0 0 -1.39175e-13 3.85247e-13 3.75014e-13 9.9271e-14 0 0 -3.30118e-14 4.00458e-13 1.90894e-13 2.36641e-13 0 0 3.9921e-14 3.91363e-13 1.51177e-13 2.44887e-13 0 0 8.44402e-14 4.05717e-13 8.10906e-14 2.83649e-13 0 0 1.31534e-13 3.61194e-13 1.2489e-13 2.66377e-13 0 0 1.30333e-13 3.20916e-13 1.79724e-13 2.72795e-13 0 0 1.1512e-13 2.98862e-13 1.69912e-13 3.56594e-13 0 0 1.19276e-13 2.22761e-13 2.37778e-13 3.73334e-13 0 0 9.43884e-14 1.7977e-13 3.07919e-13 3.85548e-13 0 0 8.21559e-14 1.37399e-13 3.25644e-13 4.37713e-13 0 0 8.55011e-14 1.53903e-13 2.72821e-13 4.45337e-13 0 0 1.1298e-13 1.52491e-13 2.3909e-13 4.22846e-13 0 0 1.30771e-13 1.18712e-13 2.80277e-13 3.48715e-13 0 0 1.05759e-13 1.66943e-13 2.62094e-13 2.4852e-13 0 0 8.49478e-14 2.03974e-13 2.69198e-13 1.34197e-13 0 0 8.83229e-14 2.29994e-13 2.63689e-13 4.58684e-14 0 0 8.54073e-14 2.75696e-13 1.87188e-13 6.99442e-14 0 0 8.05931e-14 2.84218e-13 2.03879e-13 2.66993e-14 0 0 5.23228e-14 3.04909e-13 2.48556e-13 -7.01772e-14 0 0 5.11184e-14 2.74062e-13 3.32177e-13 -4.15905e-14 0 0 9.48889e-14 2.41569e-13 2.93798e-13 8.65282e-14 0 0 1.12844e-13 2.90706e-13 2.36055e-13 1.74633e-13 0 0 9.84068e-14 3.10972e-13 3.31214e-13 2.50333e-13 0 0 1.35513e-13 3.62925e-13 3.00404e-13 3.97133e-13 0 0 2.16424e-13 3.56053e-13 3.53078e-13 3.71696e-13 0 0 1.99127e-13 5.09918e-13 3.51721e-13 2.55565e-13 0 0 1.98949e-13 6.25563e-13 3.59227e-13 1.91797e-13 0 0 2.64402e-13 5.62646e-13 4.59273e-13 1.93479e-13 0 0 2.65766e-13 5.86831e-13 4.67486e-13 1.87989e-13 0 0 2.90038e-13 5.36172e-13 5.44843e-13 1.1423e-13 0 0 3.74449e-13 3.943e-13 6.65974e-13 1.23607e-14 0 0 2.78261e-13 5.45433e-13 4.72923e-13 1.15407e-13 0 0 1.9043e-13 7.0725e-13 2.75311e-13 2.66971e-13 0 0 3.35361e-13 4.91802e-13 4.56195e-13 1.64794e-13 0 0 3.98407e-13 4.08424e-13 5.13131e-13 1.52033e-13 0 0 3.17395e-13 4.93809e-13 4.3807e-13 1.91903e-13 0 0 2.85708e-13 5.17906e-13 3.26745e-13 3.74383e-13 0 0 2.95889e-13 5.02247e-13 3.00715e-13 4.75086e-13 0 0 3.7439e-13 3.65334e-13 4.4075e-13 3.18142e-13 0 0 4.04335e-13 3.07496e-13 4.86151e-13 1.99087e-13 0 0 2.1612e-13 5.92521e-13 2.14506e-13 3.55479e-13 0 0 2.18676e-13 6.06608e-13 1.62648e-13 4.0698e-13 0 0 3.69195e-13 4.24052e-13 3.03904e-13 3.4364e-13 0 0 4.52697e-13 3.60609e-13 4.11595e-13 3.93006e-13 0 0 4.07391e-13 4.57813e-13 4.9245e-13 3.04597e-13 0 0 2.70143e-13 7.29518e-13 3.18009e-13 3.34709e-13 0 0 2.4511e-13 8.1373e-13 2.24879e-13 4.42103e-13 0 0 3.15178e-13 7.09142e-13 3.77532e-13 3.67254e-13 0 0 4.65618e-13 4.68873e-13 6.59397e-13 1.91635e-13 0 0 6.26967e-13 2.0797e-13 8.77101e-13 5.20481e-14 0 0 3.49426e-13 6.56676e-13 5.00293e-13 2.2423e-13 0 0 2.15882e-13 9.21447e-13 2.90175e-13 3.25012e-13 0 0 5.68649e-13 4.2077e-13 7.00123e-13 1.71297e-13 0 0 6.0431e-13 4.42903e-13 5.08315e-13 3.79473e-13 0 0 3.71741e-13 8.18898e-13 1.26605e-13 6.40536e-13 0 0 3.1317e-13 7.71537e-13 4.40419e-13 3.20638e-13 0 0 3.19085e-13 6.87291e-13 6.3492e-13 1.16572e-13 0 0 3.0497e-13 7.16557e-13 5.59291e-13 2.34059e-13 0 0 3.17967e-13 6.03371e-13 6.21822e-13 2.75824e-13 0 0 1.7158e-13 6.70656e-13 5.343e-13 4.59538e-13 0 0 1.61242e-13 6.66418e-13 4.9247e-13 5.88671e-13 0 0 3.59149e-13 4.22213e-13 5.89563e-13 6.31956e-13 0 0 2.65103e-13 4.63792e-13 5.65344e-13 6.62163e-13 0 0 6.81441e-14 7.97406e-13 3.13089e-13 6.61961e-13 0 0 2.80464e-13 6.09481e-13 3.81363e-13 5.2729e-13 0 0 5.69263e-13 1.48816e-13 7.86959e-13 2.10254e-13 0 0 3.15916e-13 3.9097e-13 7.45887e-13 3.69326e-14 0 0 2.57741e-13 4.01962e-13 7.60697e-13 -8.9244e-14 0 0 2.30404e-13 5.17074e-13 5.59982e-13 4.06321e-14 0 0 1.54472e-13 7.18197e-13 3.90338e-13 1.26872e-13 0 0 4.42115e-13 4.05735e-13 6.05502e-13 -9.83995e-14 0 0 4.09939e-13 4.08087e-13 6.62572e-13 -2.81009e-13 0 0 2.62789e-13 5.03358e-13 7.01894e-13 -3.36444e-13 0 0 1.08784e-13 7.56375e-13 3.12446e-13 5.62085e-14 0 0 3.74728e-13 5.13775e-13 2.17094e-13 3.73064e-13 0 0 7.16971e-13 4.96748e-14 5.99769e-13 2.65516e-13 0 0 4.85985e-13 3.20981e-13 4.29092e-13 4.05691e-13 0 0 2.00583e-13 6.96042e-13 3.96868e-14 7.15568e-13 0 0 2.7645e-14 9.16927e-13 -1.50632e-13 8.71042e-13 0 0 1.32933e-13 4.55573e-13 4.31565e-13 6.58812e-13 0 0 4.4156e-13 -1.44327e-13 1.04706e-12 4.05986e-13 0 0 5.05938e-13 9.20013e-14 6.82659e-13 5.8803e-13 0 0 1.40811e-13 8.21598e-13 1.49679e-14 8.41859e-13 0 0 3.00129e-13 6.04541e-13 3.06851e-13 5.35435e-13 0 0 7.14632e-13 -1.35054e-14 8.7079e-13 1.96574e-13 0 0 4.96166e-13 3.05989e-13 6.5223e-13 2.29669e-13 0 0 -9.57798e-14 1.18858e-12 -2.28286e-13 8.39111e-13 0 0 5.84431e-14 9.06226e-13 -1.22416e-13 9.58126e-13 0 0 8.38879e-13 -4.1647e-13 1.00812e-12 3.87565e-13 0 0 1.05715e-12 -8.48012e-13 1.29944e-12 3.55878e-13 0
				</DataArray>
				<DataArray Name="VitesseY" type="Float32" format="ascii">