<?xml version="1.0"?>
<VTKFile type="PolyData">
	<PolyData>
		<Piece NumberOfPoints="1206" NumberOfPolys="1000">
			<Points>
				<DataArray type="Float32" NumberOfComponents="3" format="ascii">
 0 0 0 0.02 0 0 0.04 0 0 0.06 0 0 0.08 0 0 0.1 0 0 0 0.005 0 0.02 0.005 0 0.04 0.005 0 0.06 0.005 0 0.08 0.005 0 0.1 0.005 0 0 0.01 0 0.02 0.01 0 0.04 0.01 0 0.06 0.01 0 0.08 0.01 0 0.1 0.01 0 0 0.015 0 0.02 0.015 0 0.04 0.015 0 0.06 0.015 0 0.08 0.015 0 0.1 0.015 0 0 0.02 0 0.02 0.02 0 0.04 0.02 0 0.06 0.02 0 0.08 0.02 0 0.1 0.02 0 0 0.025 0 0.02 0.025 0 0.04 0.025 0 0.06 0.025 0 0.08 0.025 0 0.1 0.025 0 0 0.03 0 0.02 0.03 0 0.04 0.03 0 0.06 0.03 0 0.08 0.03 0 0.1 0.03 0 0 0.035 0 0.02 0.035 0 0.04 0.035 0 0.06 0.035 0 0.08 0.035 0 0.1 0.035 0 0 0.04 0 0.02 0.04 0 0.04 0.04 0 0.06 0.04 0 0.08 0.04 0 0.1 0.04 0 0 0.045 0 0.02 0.045 0 0.04 0.045 0 0.06 0.045 0 0.08 0.045 0 0.1 0.045 0 0 0.05 0 0.02 0.05 0 0.04 0.05 0 0.06 0.05 0 0.08 0.05 0 0.1 0.05 0 0 0.055 0 0.02 0.055 0 0.04 0.055 0 0.06 0.055 0 0.08 0.055 0 0.1 0.055 0 0 0.06 0 0.02 0.06 0 0.04 0.06 0 0.06 0.06 0 0.08 0.06 0 0.1 0.06 0 0 0.065 0 0.02 0.065 0 0.04 0.065 0 0.06 0.065 0 0.08 0.065 0 0.1 0.065 0 0 0.07 0 0.02 0.07 0 0.04 0.07 0 0.06 0.07 0 0.08 0.07 0 0.1 0.07 0 0 0.075 0 0.02 0.075 0 0.04 0.075 0 0.06 0.075 0 0.08 0.075 0 0.1 0.075 0 0 0.08 0 0.02 0.08 0 0.04 0.08 0 0.06 0.08 0 0.08 0.08 0 0.1 0.08 0 0 0.085 0 0.02 0.085 0 0.04 0.085 0 0.06 0.085 0 0.08 0.085 0 0.1 0.085 0 0 0.09 0 0.02 0.09 0 0.04 0.09 0 0.06 0.09 0 0.08 0.09 0 0.1 0.09 0 0 0.095 0 0.02 0.095 0 0.04 0.095 0 0.06 0.095 0 0.08 0.095 0 0.1 0.095 0 0 0.1 0 0.02 0.1 0 0.04 0.1 0 0.06 0.1 0 0.08 0.1 0 0.1 0.1 0 0 0.105 0 0.02 0.105 0 0.04 0.105 0 0.06 0.105 0 0.08 0.105 0 0.1 0.105 0 0 0.11 0 0.02 0.11 0 0.04 0.11 0 0.06 0.11 0 0.08 0.11 0 0.1 0.11 0 0 0.115 0 0.02 0.115 0 0.04 0.115 0 0.06 0.115 0 0.08 0.115 0 0.1 0.115 0 0 0.12 0 0.02 0.12 0 0.04 0.12 0 0.06 0.12 0 0.08 0.12 0 0.1 0.12 0 0 0.125 0 0.02 0.125 0 0.04 0.125 0 0.06 0.125 0 0.08 0.125 0 0.1 0.125 0 0 0.13 0 0.02 0.13 0 0.04 0.13 0 0.06 0.13 0 0.08 0.13 0 0.1 0.13 0 0 0.135 0 0.02 0.135 0 0.04 0.135 0 0.06 0.135 0 0.08 0.135 0 0.1 0.135 0 0 0.14 0 0.02 0.14 0 0.04 0.14 0 0.06 0.14 0 0.08 0.14 0 0.1 0.14 0 0 0.145 0 0.02 0.145 0 0.04 0.145 0 0.06 0.145 0 0.08 0.145 0 0.1 0.145 0 0 0.15 0 0.02 0.15 0 0.04 0.15 0 0.06 0.15 0 0.08 0.15 0 0.1 0.15 0 0 0.155 0 0.02 0.155 0 0.04 0.155 0 0.06 0.155 0 0.08 0.155 0 0.1 0.155 0 0 0.16 0 0.02 0.16 0 0.04 0.16 0 0.06 0.16 0 0.08 0.16 0 0.1 0.16 0 0 0.165 0 0.02 0.165 0 0.04 0.165 0 0.06 0.165 0 0.08 0.165 0 0.1 0.165 0 0 0.17 0 0.02 0.17 0 0.04 0.17 0 0.06 0.17 0 0.08 0.17 0 0.1 0.17 0 0 0.175 0 0.02 0.175 0 0.04 0.175 0 0.06 0.175 0 0.08 0.175 0 0.1 0.175 0 0 0.18 0 0.02 0.18 0 0.04 0.18 0 0.06 0.18 0 0.08 0.18 0 0.1 0.18 0 0 0.185 0 0.02 0.185 0 0.04 0.185 0 0.06 0.185 0 0.08 0.185 0 0.1 0.185 0 0 0.19 0 0.02 0.19 0 0.04 0.19 0 0.06 0.19 0 0.08 0.19 0 0.1 0.19 0 0 0.195 0 0.02 0.195 0 0.04 0.195 0 0.06 0.195 0 0.08 0.195 0 0.1 0.195 0 0 0.2 0 0.02 0.2 0 0.04 0.2 0 0.06 0.2 0 0.08 0.2 0 0.1 0.2 0 0 0.205 0 0.02 0.205 0 0.04 0.205 0 0.06 0.205 0 0.08 0.205 0 0.1 0.205 0 0 0.21 0 0.02 0.21 0 0.04 0.21 0 0.06 0.21 0 0.08 0.21 0 0.1 0.21 0 0 0.215 0 0.02 0.215 0 0.04 0.215 0 0.06 0.215 0 0.08 0.215 0 0.1 0.215 0 0 0.22 0 0.02 0.22 0 0.04 0.22 0 0.06 0.22 0 0.08 0.22 0 0.1 0.22 0 0 0.225 0 0.02 0.225 0 0.04 0.225 0 0.06 0.225 0 0.08 0.225 0 0.1 0.225 0 0 0.23 0 0.02 0.23 0 0.04 0.23 0 0.06 0.23 0 0.08 0.23 0 0.1 0.23 0 0 0.235 0 0.02 0.235 0 0.04 0.235 0 0.06 0.235 0 0.08 0.235 0 0.1 0.235 0 0 0.24 0 0.02 0.24 0 0.04 0.24 0 0.06 0.24 0 0.08 0.24 0 0.1 0.24 0 0 0.245 0 0.02 0.245 0 0.04 0.245 0 0.06 0.245 0 0.08 0.245 0 0.1 0.245 0 0 0.25 0 0.02 0.25 0 0.04 0.25 0 0.06 0.25 0 0.08 0.25 0 0.1 0.25 0 0 0.255 0 0.02 0.255 0 0.04 0.255 0 0.06 0.255 0 0.08 0.255 0 0.1 0.255 0 0 0.26 0 0.02 0.26 0 0.04 0.26 0 0.06 0.26 0 0.08 0.26 0 0.1 0.26 0 0 0.265 0 0.02 0.265 0 0.04 0.265 0 0.06 0.265 0 0.08 0.265 0 0.1 0.265 0 0 0.27 0 0.02 0.27 0 0.04 0.27 0 0.06 0.27 0 0.08 0.27 0 0.1 0.27 0 0 0.275 0 0.02 0.275 0 0.04 0.275 0 0.06 0.275 0 0.08 0.275 0 0.1 0.275 0 0 0.28 0 0.02 0.28 0 0.04 0.28 0 0.06 0.28 0 0.08 0.28 0 0.1 0.28 0 0 0.285 0 0.02 0.285 0 0.04 0.285 0 0.06 0.285 0 0.08 0.285 0 0.1 0.285 0 0 0.29 0 0.02 0.29 0 0.04 0.29 0 0.06 0.29 0 0.08 0.29 0 0.1 0.29 0 0 0.295 0 0.02 0.295 0 0.04 0.295 0 0.06 0.295 0 0.08 0.295 0 0.1 0.295 0 0 0.3 0 0.02 0.3 0 0.04 0.3 0 0.06 0.3 0 0.08 0.3 0 0.1 0.3 0 0 0.305 0 0.02 0.305 0 0.04 0.305 0 0.06 0.305 0 0.08 0.305 0 0.1 0.305 0 0 0.31 0 0.02 0.31 0 0.04 0.31 0 0.06 0.31 0 0.08 0.31 0 0.1 0.31 0 0 0.315 0 0.02 0.315 0 0.04 0.315 0 0.06 0.315 0 0.08 0.315 0 0.1 0.315 0 0 0.32 0 0.02 0.32 0 0.04 0.32 0 0.06 0.32 0 0.08 0.32 0 0.1 0.32 0 0 0.325 0 0.02 0.325 0 0.04 0.325 0 0.06 0.325 0 0.08 0.325 0 0.1 0.325 0 0 0.33 0 0.02 0.33 0 0.04 0.33 0 0.06 0.33 0 0.08 0.33 0 0.1 0.33 0 0 0.335 0 0.02 0.335 0 0.04 0.335 0 0.06 0.335 0 0.08 0.335 0 0.1 0.335 0 0 0.34 0 0.02 0.34 0 0.04 0.34 0 0.06 0.34 0 0.08 0.34 0 0.1 0.34 0 0 0.345 0 0.02 0.345 0 0.04 0.345 0 0.06 0.345 0 0.08 0.345 0 0.1 0.345 0 0 0.35 0 0.02 0.35 0 0.04 0.35 0 0.06 0.35 0 0.08 0.35 0 0.1 0.35 0 0 0.355 0 0.02 0.355 0 0.04 0.355 0 0.06 0.355 0 0.08 0.355 0 0.1 0.355 0 0 0.36 0 0.02 0.36 0 0.04 0.36 0 0.06 0.36 0 0.08 0.36 0 0.1 0.36 0 0 0.365 0 0.02 0.365 0 0.04 0.365 0 0.06 0.365 0 0.08 0.365 0 0.1 0.365 0 0 0.37 0 0.02 0.37 0 0.04 0.37 0 0.06 0.37 0 0.08 0.37 0 0.1 0.37 0 0 0.375 0 0.02 0.375 0 0.04 0.375 0 0.06 0.375 0 0.08 0.375 0 0.1 0.375 0 0 0.38 0 0.02 0.38 0 0.04 0.38 0 0.06 0.38 0 0.08 0.38 0 0.1 0.38 0 0 0.385 0 0.02 0.385 0 0.04 0.385 0 0.06 0.385 0 0.08 0.385 0 0.1 0.385 0 0 0.39 0 0.02 0.39 0 0.04 0.39 0 0.06 0.39 0 0.08 0.39 0 0.1 0.39 0 0 0.395 0 0.02 0.395 0 0.04 0.395 0 0.06 0.395 0 0.08 0.395 0 0.1 0.395 0 0 0.4 0 0.02 0.4 0 0.04 0.4 0 0.06 0.4 0 0.08 0.4 0 0.1 0.4 0 0 0.405 0 0.02 0.405 0 0.04 0.405 0 0.06 0.405 0 0.08 0.405 0 0.1 0.405 0 0 0.41 0 0.02 0.41 0 0.04 0.41 0 0.06 0.41 0 0.08 0.41 0 0.1 0.41 0 0 0.415 0 0.02 0.415 0 0.04 0.415 0 0.06 0.415 0 0.08 0.415 0 0.1 0.415 0 0 0.42 0 0.02 0.42 0 0.04 0.42 0 0.06 0.42 0 0.08 0.42 0 0.1 0.42 0 0 0.425 0 0.02 0.425 0 0.04 0.425 0 0.06 0.425 0 0.08 0.425 0 0.1 0.425 0 0 0.43 0 0.02 0.43 0 0.04 0.43 0 0.06 0.43 0 0.08 0.43 0 0.1 0.43 0 0 0.435 0 0.02 0.435 0 0.04 0.435 0 0.06 0.435 0 0.08 0.435 0 0.1 0.435 0 0 0.44 0 0.02 0.44 0 0.04 0.44 0 0.06 0.44 0 0.08 0.44 0 0.1 0.44 0 0 0.445 0 0.02 0.445 0 0.04 0.445 0 0.06 0.445 0 0.08 0.445 0 0.1 0.445 0 0 0.45 0 0.02 0.45 0 0.04 0.45 0 0.06 0.45 0 0.08 0.45 0 0.1 0.45 0 0 0.455 0 0.02 0.455 0 0.04 0.455 0 0.06 0.455 0 0.08 0.455 0 0.1 0.455 0 0 0.46 0 0.02 0.46 0 0.04 0.46 0 0.06 0.46 0 0.08 0.46 0 0.1 0.46 0 0 0.465 0 0.02 0.465 0 0.04 0.465 0 0.06 0.465 0 0.08 0.465 0 0.1 0.465 0 0 0.47 0 0.02 0.47 0 0.04 0.47 0 0.06 0.47 0 0.08 0.47 0 0.1 0.47 0 0 0.475 0 0.02 0.475 0 0.04 0.475 0 0.06 0.475 0 0.08 0.475 0 0.1 0.475 0 0 0.48 0 0.02 0.48 0 0.04 0.48 0 0.06 0.48 0 0.08 0.48 0 0.1 0.48 0 0 0.485 0 0.02 0.485 0 0.04 0.485 0 0.06 0.485 0 0.08 0.485 0 0.1 0.485 0 0 0.49 0 0.02 0.49 0 0.04 0.49 0 0.06 0.49 0 0.08 0.49 0 0.1 0.49 0 0 0.495 0 0.02 0.495 0 0.04 0.495 0 0.06 0.495 0 0.08 0.495 0 0.1 0.495 0 0 0.5 0 0.02 0.5 0 0.04 0.5 0 0.06 0.5 0 0.08 0.5 0 0.1 0.5 0 0 0.505 0 0.02 0.505 0 0.04 0.505 0 0.06 0.505 0 0.08 0.505 0 0.1 0.505 0 0 0.51 0 0.02 0.51 0 0.04 0.51 0 0.06 0.51 0 0.08 0.51 0 0.1 0.51 0 0 0.515 0 0.02 0.515 0 0.04 0.515 0 0.06 0.515 0 0.08 0.515 0 0.1 0.515 0 0 0.52 0 0.02 0.52 0 0.04 0.52 0 0.06 0.52 0 0.08 0.52 0 0.1 0.52 0 0 0.525 0 0.02 0.525 0 0.04 0.525 0 0.06 0.525 0 0.08 0.525 0 0.1 0.525 0 0 0.53 0 0.02 0.53 0 0.04 0.53 0 0.06 0.53 0 0.08 0.53 0 0.1 0.53 0 0 0.535 0 0.02 0.535 0 0.04 0.535 0 0.06 0.535 0 0.08 0.535 0 0.1 0.535 0 0 0.54 0 0.02 0.54 0 0.04 0.54 0 0.06 0.54 0 0.08 0.54 0 0.1 0.54 0 0 0.545 0 0.02 0.545 0 0.04 0.545 0 0.06 0.545 0 0.08 0.545 0 0.1 0.545 0 0 0.55 0 0.02 0.55 0 0.04 0.55 0 0.06 0.55 0 0.08 0.55 0 0.1 0.55 0 0 0.555 0 0.02 0.555 0 0.04 0.555 0 0.06 0.555 0 0.08 0.555 0 0.1 0.555 0 0 0.56 0 0.02 0.56 0 0.04 0.56 0 0.06 0.56 0 0.08 0.56 0 0.1 0.56 0 0 0.565 0 0.02 0.565 0 0.04 0.565 0 0.06 0.565 0 0.08 0.565 0 0.1 0.565 0 0 0.57 0 0.02 0.57 0 0.04 0.57 0 0.06 0.57 0 0.08 0.57 0 0.1 0.57 0 0 0.575 0 0.02 0.575 0 0.04 0.575 0 0.06 0.575 0 0.08 0.575 0 0.1 0.575 0 0 0.58 0 0.02 0.58 0 0.04 0.58 0 0.06 0.58 0 0.08 0.58 0 0.1 0.58 0 0 0.585 0 0.02 0.585 0 0.04 0.585 0 0.06 0.585 0 0.08 0.585 0 0.1 0.585 0 0 0.59 0 0.02 0.59 0 0.04 0.59 0 0.06 0.59 0 0.08 0.59 0 0.1 0.59 0 0 0.595 0 0.02 0.595 0 0.04 0.595 0 0.06 0.595 0 0.08 0.595 0 0.1 0.595 0 0 0.6 0 0.02 0.6 0 0.04 0.6 0 0.06 0.6 0 0.08 0.6 0 0.1 0.6 0 0 0.605 0 0.02 0.605 0 0.04 0.605 0 0.06 0.605 0 0.08 0.605 0 0.1 0.605 0 0 0.61 0 0.02 0.61 0 0.04 0.61 0 0.06 0.61 0 0.08 0.61 0 0.1 0.61 0 0 0.615 0 0.02 0.615 0 0.04 0.615 0 0.06 0.615 0 0.08 0.615 0 0.1 0.615 0 0 0.62 0 0.02 0.62 0 0.04 0.62 0 0.06 0.62 0 0.08 0.62 0 0.1 0.62 0 0 0.625 0 0.02 0.625 0 0.04 0.625 0 0.06 0.625 0 0.08 0.625 0 0.1 0.625 0 0 0.63 0 0.02 0.63 0 0.04 0.63 0 0.06 0.63 0 0.08 0.63 0 0.1 0.63 0 0 0.635 0 0.02 0.635 0 0.04 0.635 0 0.06 0.635 0 0.08 0.635 0 0.1 0.635 0 0 0.64 0 0.02 0.64 0 0.04 0.64 0 0.06 0.64 0 0.08 0.64 0 0.1 0.64 0 0 0.645 0 0.02 0.645 0 0.04 0.645 0 0.06 0.645 0 0.08 0.645 0 0.1 0.645 0 0 0.65 0 0.02 0.65 0 0.04 0.65 0 0.06 0.65 0 0.08 0.65 0 0.1 0.65 0 0 0.655 0 0.02 0.655 0 0.04 0.655 0 0.06 0.655 0 0.08 0.655 0 0.1 0.655 0 0 0.66 0 0.02 0.66 0 0.04 0.66 0 0.06 0.66 0 0.08 0.66 0 0.1 0.66 0 0 0.665 0 0.02 0.665 0 0.04 0.665 0 0.06 0.665 0 0.08 0.665 0 0.1 0.665 0 0 0.67 0 0.02 0.67 0 0.04 0.67 0 0.06 0.67 0 0.08 0.67 0 0.1 0.67 0 0 0.675 0 0.02 0.675 0 0.04 0.675 0 0.06 0.675 0 0.08 0.675 0 0.1 0.675 0 0 0.68 0 0.02 0.68 0 0.04 0.68 0 0.06 0.68 0 0.08 0.68 0 0.1 0.68 0 0 0.685 0 0.02 0.685 0 0.04 0.685 0 0.06 0.685 0 0.08 0.685 0 0.1 0.685 0 0 0.69 0 0.02 0.69 0 0.04 0.69 0 0.06 0.69 0 0.08 0.69 0 0.1 
[...]
			<PointData Scalars="VitesseX">
				<DataArray Name="VitesseX" type="Float32" format="ascii">
 0 -1.20497e-14 -1.16741e-14 1.04499e-14 2.15561e-14 0 0 -8.43375e-15 -1.55876e-14 1.28772e-14 1.97191e-14 0 0 -7.70816e-15 -1.15851e-14 8.13596e-15 1.98366e-14 0 0 -3.42559e-15 -1.39717e-14 1.22157e-14 1.64096e-14 0 0 4.35725e-15 -1.91857e-14 1.49323e-14 1.84482e-14 0 0 7.18767e-15 -1.39374e-14 1.07931e-14 1.95984e-14 0 0 3.1057e-15 2.43582e-15 4.49871e-15 1.45107e-14 0 0 4.5597e-15 8.51169e-15 8.86097e-15 6.02771e-15 0 0 1.87699e-14 2.72749e-15 9.3147e-15 8.90156e-15 0 0 1.94373e-14 2.45113e-14 -1.97742e-14 3.10021e-14 0 0 2.88507e-15 5.21696e-14 -3.11665e-14 2.99519e-14 0 0 5.01149e-15 2.7969e-14 1.73248e-14 -1.33025e-14 0 0 4.73597e-16 2.0964e-14 3.45961e-14 -2.84552e-14 0 0 7.8242e-15 1.02456e-14 3.17425e-14 -2.36944e-14 0 0 3.23803e-14 -4.0005e-14 6.76375e-14 -4.0249e-14 0 0 2.23996e-14 -3.90167e-14 5.44731e-14 -3.62989e-14 0 0 7.58433e-15 -1.9043e-14 1.63811e-14 -1.70594e-14 0 0 3.06154e-14 -5.77762e-14 4.24239e-14 -3.12909e-14 0 0 6.50739e-15 -1.37033e-14 -1.42981e-14 9.95111e-15 0 0 -4.11903e-15 9.07792e-15 -5.2991e-14 4.51768e-14 0 0 3.19946e-14 -4.46614e-14 -4.36216e-14 6.65027e-14 0 0 3.10801e-14 -5.00228e-14 -5.36533e-14 8.09486e-14 0 0 1.96927e-14 -6.26576e-14 -3.42286e-15 2.29717e-14 0 0 -4.26952e-16 -4.41028e-14 3.31284e-15 7.03295e-15 0 0 -2.32893e-14 2.97848e-15 -4.15805e-14 4.19688e-14 0 0 -2.30048e-14 1.03543e-14 -2.90301e-14 3.82888e-14 0 0 -7.51738e-15 -1.15402e-15 9.56636e-15 1.59073e-14 0 0 -6.86972e-15 -3.42628e-15 1.3999e-14 2.41898e-14 0 0 -2.32029e-14 1.58735e-14 9.67642e-15 2.99409e-14 0 0 -9.17809e-15 -2.06414e-14 8.30386e-14 -2.17908e-14 0 0 8.24603e-15 -5.86211e-14 1.36591e-13 -5.02321e-14 0 0 -2.66956e-14 1.07042e-14 4.57518e-14 1.50878e-14 0 0 -1.75942e-14 -1.0823e-14 5.50414e-14 1.93051e-14 0 0 1.81843e-14 -7.95387e-14 1.20187e-13 -1.26763e-14 0 0 -2.26575e-14 -1.5361e-14 7.41696e-14 6.19762e-15 0 0 -3.83859e-14 2.37057e-14 3.81568e-14 3.19222e-14 0 0 7.01694e-15 -4.43467e-14 7.01385e-14 5.72453e-14 0 0 4.47151e-17 -1.05434e-14 3.52885e-15 1.12159e-13 0 0 1.21785e-14 2.19153e-16 -2.52026e-14 1.13269e-13 0 0 3.83554e-14 -5.26056e-14 2.66731e-14 8.1508e-14 0 0 4.20017e-14 -6.08046e-14 4.60311e-14 5.86616e-14 0 0 5.04869e-14 -4.05301e-14 3.29352e-14 5.26133e-14 0 0 2.10357e-14 4.88484e-14 -5.30806e-14 7.49316e-14 0 0 2.57552e-14 3.81893e-14 -1.35905e-14 2.48097e-14 0 0 8.08853e-14 -4.46084e-14 8.46956e-14 -4.38473e-14 0 0 5.62363e-14 4.39823e-14 -4.48147e-14 2.88267e-14 0 0 5.75948e-14 8.16414e-14 -1.74447e-13 1.52977e-13 0 0 7.79952e-14 3.02314e-14 -1.33467e-13 1.65341e-13 0 0 1.01195e-13 -3.6409e-14 -8.82379e-15 8.12098e-14 0 0 1.09003e-13 -3.92883e-14 -1.36679e-15 7.72433e-14 0 0 7.43138e-14 2.60998e-14 -5.65692e-14 1.07757e-13 0 0 1.62591e-13 -8.02964e-14 5.3859e-14 3.12817e-14 0 0 2.12882e-13 -1.01146e-13 7.733e-14 -2.11504e-14 0 0 3.00496e-13 -1.59659e-13 1.38631e-13 -6.77447e-14 0 0 8.95726e-14 1.17226e-13 -2.1284e-14 2.24517e-14 0 0 5.05921e-16 2.0734e-13 5.54391e-15 -5.42024e-15 0 0 2.29714e-13 -4.02836e-14 1.64928e-13 1.66135e-14 0 0 1.84337e-13 6.79008e-14 2.44245e-14 2.10894e-13 0 0 1.92974e-13 2.86331e-14 1.11759e-13 1.85522e-13 0 0 9.85104e-14 6.15033e-14 2.07668e-13 5.81694e-14 0 0 -2.66277e-14 2.37968e-13 1.08154e-13 2.09727e-14 0 0 1.37247e-13 1.09285e-13 1.37278e-13 -2.32804e-14 0 0 2.71238e-13 -2.8841e-14 2.16778e-13 -7.87371e-14 0 0 2.01536e-13 9.83027e-14 1.20106e-13 1.70975e-14 0 0 1.05431e-13 1.66876e-13 9.97622e-14 1.0087e-13 0 0 5.15013e-14 1.68189e-13 7.86003e-14 1.90124e-13 0 0 1.63271e-13 -2.1124e-14 1.43921e-13 1.53532e-13 0 0 1.21703e-13 7.41546e-14 -2.17036e-14 1.37074e-13 0 0 6.81159e-14 2.59356e-13 -2.29671e-13 1.4664e-13 0 0 3.7998e-13 -6.15554e-14 -2.39927e-14 4.1558e-14 0 0 5.35065e-13 -1.81647e-13 3.54009e-14 7.9029e-14 0 0 3.70838e-13 -6.23205e-14 7.21248e-15 1.17741e-13 0 0 1.26737e-13 1.37816e-13 -9.71267e-14 1.96056e-13 0 0 9.12461e-14 2.38288e-13 -2.63153e-13 2.8471e-13 0 0 2.97276e-13 5.2294e-14 -1.27401e-13 1.38564e-13 0 0 4.43267e-13 -3.76202e-14 9.9871e-15 -1.55752e-14 0 0 4.57276e-13 -1.73513e-14 3.01848e-15 -6.99089e-14 0 0 3.81098e-13 1.39635e-13 -2.41036e-13 1.07232e-13 0 0 3.30916e-13 1.85686e-13 -4.67665e-13 2.50909e-13 0 0 4.20059e-13 -2.27313e-14 -3.06368e-13 1.61908e-13 0 0 4.3145e-13 -3.46667e-13 4.78062e-14 -2.53659e-14 0 0 2.83365e-13 -2.80503e-13 7.15314e-14 -7.1985e-14 0 0 1.07867e-14 -3.16104e-14 -8.2119e-14 -1.27542e-14 0 0 -2.5659e-13 3.88475e-14 -5.43583e-15 -6.67244e-14 0 0 -2.5095e-13 -9.81393e-14 2.12025e-13 -2.18293e-13 0 0 -2.27061e-13 -2.79278e-13 4.00303e-13 -1.81055e-13 0 0 -2.79176e-13 -2.17156e-13 2.41849e-13 3.36855e-15 0 0 -4.98974e-13 8.78341e-14 -1.72689e-13 3.70765e-13 0 0 -6.37063e-13 3.1216e-13 -4.95705e-13 5.93083e-13 0 0 -5.23146e-13 1.85772e-13 -4.44684e-13 5.36348e-13 0 0 -1.17399e-13 -3.08328e-13 -1.48975e-13 3.49562e-13 0 0 2.01447e-13 -7.57913e-13 6.75286e-14 2.93676e-13 0 0 2.18054e-13 -8.34106e-13 9.59634e-14 2.91032e-13 0 0 6.45043e-14 -7.47215e-13 8.84455e-14 2.6427e-13 0 0 -2.64525e-13 -5.29679e-13 6.79521e-14 2.0973e-13 0 0 -6.36155e-13 -2.82303e-13 9.0578e-14 1.0378e-13 0 0 -8.25448e-13 -9.7619e-14 1.73202e-13 -5.48502e-14 0 0 -8.84057e-13 -2.4839e-14 2.52886e-13 -2.98259e-13 0 0 -9.08367e-13 -1.87417e-14 3.04492e-13 -4.63328e-13 0 0 -8.3931e-13 -5.90019e-15 2.94012e-13 -4.78892e-13 0 0 -6.45514e-13 -4.80562e-14 1.54845e-13 -3.65914e-13 0 0 -3.21938e-13 -1.26756e-13 -1.37958e-13 -3.52623e-14 0 0 -6.40679e-14 -1.45617e-13 -2.76716e-13 3.12734e-13 0 0 -4.38094e-16 -1.24146e-13 -2.60774e-13 3.82727e-13 0 0 -1.26925e-14 -7.24144e-14 -1.59933e-13 3.15556e-13 0 0 -3.26903e-14 -3.84187e-15 1.03931e-13 3.9743e-14 0 0 2.64715e-14 -2.15717e-14 3.97092e-13 -1.58827e-13 0 0 1.52639e-13 -6.60785e-14 4.39053e-13 -1.68371e-13 0 0 2.09243e-13 -5.42104e-14 3.78886e-13 -8.22744e-14 0 0 2.54063e-13 -5.70999e-14 3.10209e-13 1.01939e-13 0 0 2.47561e-13 1.2431e-14 1.86854e-13 3.25829e-13 0 0 2.03679e-13 1.68137e-13 -7.2086e-15 5.02033e-13 0 0 1.96615e-13 2.37737e-13 -1.08221e-13 5.60422e-13 0 0 2.05167e-13 2.63284e-13 -1.46674e-13 5.89304e-13 0 0 2.17576e-13 2.56075e-13 -7.75176e-14 5.21494e-13 0 0 2.45486e-13 2.19832e-13 5.36472e-14 3.83241e-13 0 0 3.43576e-13 1.1345e-13 1.82442e-13 2.3768e-13 0 0 3.97789e-13 8.42374e-14 2.44926e-13 1.08547e-13 0 0 3.92618e-13 1.24743e-13 1.84312e-13 1.43775e-13 0 0 3.79841e-13 1.47316e-13 1.78086e-13 1.37907e-13 0 0 3.17167e-13 2.02218e-13 1.8234e-13 7.10379e-14 0 0 2.22278e-13 3.13345e-13 1.41756e-13 -9.33797e-15 0 0 1.28008e-13 3.59613e-13 1.38558e-13 -1.18991e-14 0 0 1.31775e-13 3.19285e-13 1.73067e-13 -6.37355e-15 0 0 1.48978e-13 2.31385e-13 2.48557e-13 -1.13747e-13 0 0 1.56248e-13 1.51901e-13 3.04837e-13 -1.83558e-13 0 0 1.47741e-13 1.3421e-13 2.75633e-13 -1.31851e-13 0 0 1.09218e-13 1.89737e-13 1.44067e-13 -7.75855e-14 0 0 9.02579e-14 2.08307e-13 6.52536e-14 -7.85292e-14 0 0 1.02642e-13 1.66355e-13 8.55676e-14 -3.43739e-14 0 0 1.20998e-13 1.31296e-13 8.34232e-14 -3.82234e-14 0 0 1.26116e-13 1.45234e-13 1.552e-14 -5.78457e-14 0 0 1.19422e-13 1.32525e-13 3.0823e-15 -6.10001e-14 0 0 1.04258e-13 1.08297e-13 6.6847e-14 -1.53027e-13 0 0 8.33411e-14 1.17301e-13 5.99214e-14 -1.21756e-13 0 0 5.39707e-14 1.19225e-13 5.21353e-14 -8.86898e-14 0 0 4.43177e-14 1.24825e-13 7.26843e-15 -9.0222e-14 0 0 3.76425e-14 9.80184e-14 -3.6999e-15 -2.31131e-15 0 0 2.27865e-14 7.27793e-14 1.44622e-15 8.73075e-14 0 0 -1.23451e-15 5.82041e-14 1.03687e-14 6.30716e-14 0 0 -4.82645e-14 3.78494e-14 3.68484e-14 3.55345e-14 0 0 -5.83361e-14 8.8347e-15 2.2331e-14 1.50354e-13 0 0 -3.12e-14 -5.44855e-14 2.2523e-14 1.45316e-13 0 0 7.90137e-15 -7.78283e-14 -1.34956e-14 1.25676e-13 0 0 2.44239e-14 -1.06539e-13 1.13327e-15 1.43428e-13 0 0 4.83937e-14 -1.44113e-13 5.8673e-14 1.17968e-13 0 0 6.66145e-14 -5.47702e-14 -5.68411e-15 2.37957e-13 0 0 8.40448e-14 7.84785e-14 -2.88995e-14 1.4379e-13 0 0 7.45355e-14 1.23559e-13 1.12562e-13 -1.1741e-13 0 0 6.775e-14 1.72866e-13 2.16311e-13 1.07207e-13 0 0 4.72051e-14 3.29232e-13 1.82931e-13 4.94012e-13 0 0 1.13507e-13 2.73725e-13 3.69762e-13 3.47782e-13 0 0 1.41106e-13 2.72803e-13 4.24835e-13 2.18097e-13 0 0 1.07215e-13 3.78144e-13 3.6007e-13 2.25178e-13 0 0 1.10268e-13 4.15035e-13 3.1503e-13 2.50197e-13 0 0 1.4629e-13 3.73895e-13 3.53968e-13 2.16428e-13 0 0 2.09339e-13 2.91756e-13 4.40665e-13 1.62275e-13 0 0 2.70928e-13 2.30568e-13 4.65194e-13 2.18692e-13 0 0 1.94302e-13 3.82178e-13 2.76456e-13 3.79663e-13 0 0 1.28436e-13 5.47616e-13 9.15098e-14 4.93085e-13 0 0 2.04032e-13 4.01227e-13 3.554e-13 2.69744e-13 0 0 2.0112e-13 3.86393e-13 4.85759e-13 1.37033e-13 0 0 2.32023e-13 3.92937e-13 4.30026e-13 2.96787e-13 0 0 2.82105e-13 3.07982e-13 5.88824e-13 1.62265e-13 0 0 2.68513e-13 3.63458e-13 5.33893e-13 1.73891e-13 0 0 2.87269e-13 3.97512e-13 3.53912e-13 4.48729e-13 0 0 2.59023e-13 4.30307e-13 3.54789e-13 4.09232e-13 0 0 2.07896e-13 5.08956e-13 3.42529e-13 3.28871e-13 0 0 3.37841e-13 4.09805e-13 3.58984e-13 3.1046e-13 0 0 3.01378e-13 5.19272e-13 1.97514e-13 4.56877e-13 0 0 3.2146e-13 4.51923e-13 2.99451e-13 4.17566e-13 0 0 3.59525e-13 3.04255e-13 4.88102e-13 3.45673e-13 0 0 2.29318e-13 4.75196e-13 2.92587e-13 6.03934e-13 0 0 3.28849e-13 3.47331e-13 3.69407e-13 5.35621e-13 0 0 4.36616e-13 2.3269e-13 5.83122e-13 1.82916e-13 0 0 4.15709e-13 2.77073e-13 5.2628e-13 2.42219e-13 0 0 3.47684e-13 2.33767e-13 5.74694e-13 2.85111e-13 0 0 2.64832e-13 3.35201e-13 6.24987e-13 1.62185e-13 0 0 2.53111e-13 4.49964e-13 3.70813e-13 4.66057e-13 0 0 3.71811e-13 3.91319e-13 2.62507e-13 5.90223e-13 0 0 3.85638e-13 3.52279e-13 3.96394e-13 4.4674e-13 0 0 4.13121e-13 1.34901e-13 8.02348e-13 1.76374e-13 0 0 2.40973e-13 3.99564e-13 4.73312e-13 4.60475e-13 0 0 2.36039e-13 5.30277e-13 2.8923e-13 5.5204e-13 0 0 2.55643e-13 5.72069e-13 3.81772e-13 3.05104e-13 0 0 1.75683e-13 6.33755e-13 3.69303e-13 2.78701e-13 0 0 1.42332e-13 6.35662e-13 3.37214e-13 2.76522e-13 0 0 9.6977e-14 7.75409e-13 1.44219e-13 2.18268e-13 0 0 3.41159e-13 4.13856e-13 5.48587e-13 -2.08853e-13 0 0 3.56654e-13 3.58853e-13 5.62877e-13 -1.80854e-13 0 0 3.13864e-13 3.48368e-13 4.97959e-13 -1.41741e-14 0 0 2.332e-15 6.9198e-13 2.43735e-13 2.37853e-13 0 0 -1.4087e-13 8.16717e-13 1.65467e-13 3.03775e-13 0 0 2.41865e-13 2.30613e-13 5.63435e-13 1.00471e-13 0 0 2.77763e-13 3.14295e-13 5.46529e-13 3.02193e-14 0 0 1.08025e-13 6.65665e-13 2.8847e-13 1.35618e-13 0 0 1.84116e-13 5.41888e-13 1.63256e-13 2.79465e-13 0 0 1.50003e-13 4.99325e-13 2.63286e-13 6.42517e-14 0 0 9.33499e-14 6.59931e-13 7.62685e-14 1.48897e-13 0 0 -4.55193e-14 9.25334e-13 -2.86086e-13 3.87756e-13 0 0 -2.9091e-13 1.19772e-12 -4.44371e-13 3.99342e-13 0
				</DataArray>
				<DataArray Name="VitesseY" type="Float32" format="ascii">