<?xml version="1.0"?>
<VTKFile type="PolyData">
	<PolyData>
		<Piece NumberOfPoints="1206" NumberOfPolys="1000">
			<Points>
				<DataArray type="Float32" NumberOfComponents="3" format="ascii">
 0 0 0 0.02 0 0 0.04 0 0 0.06 0 0 0.08 0 0 0.1 0 0 0 0.005 0 0.02 0.005 0 0.04 0.005 0 0.06 0.005 0 0.08 0.005 0 0.1 0.005 0 0 0.01 0 0.02 0.01 0 0.04 0.01 0 0.06 0.01 0 0.08 0.01 0 0.1 0.01 0 0 0.015 0 0.02 0.015 0 0.04 0.015 0 0.06 0.015 0 0.08 0.015 0 0.1 0.015 0 0 0.02 0 0.02 0.02 0 0.04 0.02 0 0.06 0.02 0 0.08 0.02 0 0.1 0.02 0 0 0.025 0 0.02 0.025 0 0.04 0.025 0 0.06 0.025 0 0.08 0.025 0 0.1 0.025 0 0 0.03 0 0.02 0.03 0 0.04 0.03 0 0.06 0.03 0 0.08 0.03 0 0.1 0.03 0 0 0.035 0 0.02 0.035 0 0.04 0.035 0 0.06 0.035 0 0.08 0.035 0 0.1 0.035 0 0 0.04 0 0.02 0.04 0 0.04 0.04 0 0.06 0.04 0 0.08 0.04 0 0.1 0.04 0 0 0.045 0 0.02 0.045 0 0.04 0.045 0 0.06 0.045 0 0.08 0.045 0 0.1 0.045 0 0 0.05 0 0.02 0.05 0 0.04 0.05 0 0.06 0.05 0 0.08 0.05 0 0.1 0.05 0 0 0.055 0 0.02 0.055 0 0.04 0.055 0 0.06 0.055 0 0.08 0.055 0 0.1 0.055 0 0 0.06 0 0.02 0.06 0 0.04 0.06 0 0.06 0.06 0 0.08 0.06 0 0.1 0.06 0 0 0.065 0 0.02 0.065 0 0.04 0.065 0 0.06 0.065 0 0.08 0.065 0 0.1 0.065 0 0 0.07 0 0.02 0.07 0 0.04 0.07 0 0.06 0.07 0 0.08 0.07 0 0.1 0.07 0 0 0.075 0 0.02 0.075 0 0.04 0.075 0 0.06 0.075 0 0.08 0.075 0 0.1 0.075 0 0 0.08 0 0.02 0.08 0 0.04 0.08 0 0.06 0.08 0 0.08 0.08 0 0.1 0.08 0 0 0.085 0 0.02 0.085 0 0.04 0.085 0 0.06 0.085 0 0.08 0.085 0 0.1 0.085 0 0 0.09 0 0.02 0.09 0 0.04 0.09 0 0.06 0.09 0 0.08 0.09 0 0.1 0.09 0 0 0.095 0 0.02 0.095 0 0.04 0.095 0 0.06 0.095 0 0.08 0.095 0 0.1 0.095 0 0 0.1 0 0.02 0.1 0 0.04 0.1 0 0.06 0.1 0 0.08 0.1 0 0.1 0.1 0 0 0.105 0 0.02 0.105 0 0.04 0.105 0 0.06 0.105 0 0.08 0.105 0 0.1 0.105 0 0 0.11 0 0.02 0.11 0 0.04 0.11 0 0.06 0.11 0 0.08 0.11 0 0.1 0.11 0 0 0.115 0 0.02 0.115 0 0.04 0.115 0 0.06 0.115 0 0.08 0.115 0 0.1 0.115 0 0 0.12 0 0.02 0.12 0 0.04 0.12 0 0.06 0.12 0 0.08 0.12 0 0.1 0.12 0 0 0.125 0 0.02 0.125 0 0.04 0.125 0 0.06 0.125 0 0.08 0.125 0 0.1 0.125 0 0 0.13 0 0.02 0.13 0 0.04 0.13 0 0.06 0.13 0 0.08 0.13 0 0.1 0.13 0 0 0.135 0 0.02 0.135 0 0.04 0.135 0 0.06 0.135 0 0.08 0.135 0 0.1 0.135 0 0 0.14 0 0.02 0.14 0 0.04 0.14 0 0.06 0.14 0 0.08 0.14 0 0.1 0.14 0 0 0.145 0 0.02 0.145 0 0.04 0.145 0 0.06 0.145 0 0.08 0.145 0 0.1 0.145 0 0 0.15 0 0.02 0.15 0 0.04 0.15 0 0.06 0.15 0 0.08 0.15 0 0.1 0.15 0 0 0.155 0 0.02 0.155 0 0.04 0.155 0 0.06 0.155 0 0.08 0.155 0 0.1 0.155 0 0 0.16 0 0.02 0.16 0 0.04 0.16 0 0.06 0.16 0 0.08 0.16 0 0.1 0.16 0 0 0.165 0 0.02 0.165 0 0.04 0.165 0 0.06 0.165 0 0.08 0.165 0 0.1 0.165 0 0 0.17 0 0.02 0.17 0 0.04 0.17 0 0.06 0.17 0 0.08 0.17 0 0.1 0.17 0 0 0.175 0 0.02 0.175 0 0.04 0.175 0 0.06 0.175 0 0.08 0.175 0 0.1 0.175 0 0 0.18 0 0.02 0.18 0 0.04 0.18 0 0.06 0.18 0 0.08 0.18 0 0.1 0.18 0 0 0.185 0 0.02 0.185 0 0.04 0.185 0 0.06 0.185 0 0.08 0.185 0 0.1 0.185 0 0 0.19 0 0.02 0.19 0 0.04 0.19 0 0.06 0.19 0 0.08 0.19 0 0.1 0.19 0 0 0.195 0 0.02 0.195 0 0.04 0.195 0 0.06 0.195 0 0.08 0.195 0 0.1 0.195 0 0 0.2 0 0.02 0.2 0 0.04 0.2 0 0.06 0.2 0 0.08 0.2 0 0.1 0.2 0 0 0.205 0 0.02 0.205 0 0.04 0.205 0 0.06 0.205 0 0.08 0.205 0 0.1 0.205 0 0 0.21 0 0.02 0.21 0 0.04 0.21 0 0.06 0.21 0 0.08 0.21 0 0.1 0.21 0 0 0.215 0 0.02 0.215 0 0.04 0.215 0 0.06 0.215 0 0.08 0.215 0 0.1 0.215 0 0 0.22 0 0.02 0.22 0 0.04 0.22 0 0.06 0.22 0 0.08 0.22 0 0.1 0.22 0 0 0.225 0 0.02 0.225 0 0.04 0.225 0 0.06 0.225 0 0.08 0.225 0 0.1 0.225 0 0 0.23 0 0.02 0.23 0 0.04 0.23 0 0.06 0.23 0 0.08 0.23 0 0.1 0.23 0 0 0.235 0 0.02 0.235 0 0.04 0.235 0 0.06 0.235 0 0.08 0.235 0 0.1 0.235 0 0 0.24 0 0.02 0.24 0 0.04 0.24 0 0.06 0.24 0 0.08 0.24 0 0.1 0.24 0 0 0.245 0 0.02 0.245 0 0.04 0.245 0 0.06 0.245 0 0.08 0.245 0 0.1 0.245 0 0 0.25 0 0.02 0.25 0 0.04 0.25 0 0.06 0.25 0 0.08 0.25 0 0.1 0.25 0 0 0.255 0 0.02 0.255 0 0.04 0.255 0 0.06 0.255 0 0.08 0.255 0 0.1 0.255 0 0 0.26 0 0.02 0.26 0 0.04 0.26 0 0.06 0.26 0 0.08 0.26 0 0.1 0.26 0 0 0.265 0 0.02 0.265 0 0.04 0.265 0 0.06 0.265 0 0.08 0.265 0 0.1 0.265 0 0 0.27 0 0.02 0.27 0 0.04 0.27 0 0.06 0.27 0 0.08 0.27 0 0.1 0.27 0 0 0.275 0 0.02 0.275 0 0.04 0.275 0 0.06 0.275 0 0.08 0.275 0 0.1 0.275 0 0 0.28 0 0.02 0.28 0 0.04 0.28 0 0.06 0.28 0 0.08 0.28 0 0.1 0.28 0 0 0.285 0 0.02 0.285 0 0.04 0.285 0 0.06 0.285 0 0.08 0.285 0 0.1 0.285 0 0 0.29 0 0.02 0.29 0 0.04 0.29 0 0.06 0.29 0 0.08 0.29 0 0.1 0.29 0 0 0.295 0 0.02 0.295 0 0.04 0.295 0 0.06 0.295 0 0.08 0.295 0 0.1 0.295 0 0 0.3 0 0.02 0.3 0 0.04 0.3 0 0.06 0.3 0 0.08 0.3 0 0.1 0.3 0 0 0.305 0 0.02 0.305 0 0.04 0.305 0 0.06 0.305 0 0.08 0.305 0 0.1 0.305 0 0 0.31 0 0.02 0.31 0 0.04 0.31 0 0.06 0.31 0 0.08 0.31 0 0.1 0.31 0 0 0.315 0 0.02 0.315 0 0.04 0.315 0 0.06 0.315 0 0.08 0.315 0 0.1 0.315 0 0 0.32 0 0.02 0.32 0 0.04 0.32 0 0.06 0.32 0 0.08 0.32 0 0.1 0.32 0 0 0.325 0 0.02 0.325 0 0.04 0.325 0 0.06 0.325 0 0.08 0.325 0 0.1 0.325 0 0 0.33 0 0.02 0.33 0 0.04 0.33 0 0.06 0.33 0 0.08 0.33 0 0.1 0.33 0 0 0.335 0 0.02 0.335 0 0.04 0.335 0 0.06 0.335 0 0.08 0.335 0 0.1 0.335 0 0 0.34 0 0.02 0.34 0 0.04 0.34 0 0.06 0.34 0 0.08 0.34 0 0.1 0.34 0 0 0.345 0 0.02 0.345 0 0.04 0.345 0 0.06 0.345 0 0.08 0.345 0 0.1 0.345 0 0 0.35 0 0.02 0.35 0 0.04 0.35 0 0.06 0.35 0 0.08 0.35 0 0.1 0.35 0 0 0.355 0 0.02 0.355 0 0.04 0.355 0 0.06 0.355 0 0.08 0.355 0 0.1 0.355 0 0 0.36 0 0.02 0.36 0 0.04 0.36 0 0.06 0.36 0 0.08 0.36 0 0.1 0.36 0 0 0.365 0 0.02 0.365 0 0.04 0.365 0 0.06 0.365 0 0.08 0.365 0 0.1 0.365 0 0 0.37 0 0.02 0.37 0 0.04 0.37 0 0.06 0.37 0 0.08 0.37 0 0.1 0.37 0 0 0.375 0 0.02 0.375 0 0.04 0.375 0 0.06 0.375 0 0.08 0.375 0 0.1 0.375 0 0 0.38 0 0.02 0.38 0 0.04 0.38 0 0.06 0.38 0 0.08 0.38 0 0.1 0.38 0 0 0.385 0 0.02 0.385 0 0.04 0.385 0 0.06 0.385 0 0.08 0.385 0 0.1 0.385 0 0 0.39 0 0.02 0.39 0 0.04 0.39 0 0.06 0.39 0 0.08 0.39 0 0.1 0.39 0 0 0.395 0 0.02 0.395 0 0.04 0.395 0 0.06 0.395 0 0.08 0.395 0 0.1 0.395 0 0 0.4 0 0.02 0.4 0 0.04 0.4 0 0.06 0.4 0 0.08 0.4 0 0.1 0.4 0 0 0.405 0 0.02 0.405 0 0.04 0.405 0 0.06 0.405 0 0.08 0.405 0 0.1 0.405 0 0 0.41 0 0.02 0.41 0 0.04 0.41 0 0.06 0.41 0 0.08 0.41 0 0.1 0.41 0 0 0.415 0 0.02 0.415 0 0.04 0.415 0 0.06 0.415 0 0.08 0.415 0 0.1 0.415 0 0 0.42 0 0.02 0.42 0 0.04 0.42 0 0.06 0.42 0 0.08 0.42 0 0.1 0.42 0 0 0.425 0 0.02 0.425 0 0.04 0.425 0 0.06 0.425 0 0.08 0.425 0 0.1 0.425 0 0 0.43 0 0.02 0.43 0 0.04 0.43 0 0.06 0.43 0 0.08 0.43 0 0.1 0.43 0 0 0.435 0 0.02 0.435 0 0.04 0.435 0 0.06 0.435 0 0.08 0.435 0 0.1 0.435 0 0 0.44 0 0.02 0.44 0 0.04 0.44 0 0.06 0.44 0 0.08 0.44 0 0.1 0.44 0 0 0.445 0 0.02 0.445 0 0.04 0.445 0 0.06 0.445 0 0.08 0.445 0 0.1 0.445 0 0 0.45 0 0.02 0.45 0 0.04 0.45 0 0.06 0.45 0 0.08 0.45 0 0.1 0.45 0 0 0.455 0 0.02 0.455 0 0.04 0.455 0 0.06 0.455 0 0.08 0.455 0 0.1 0.455 0 0 0.46 0 0.02 0.46 0 0.04 0.46 0 0.06 0.46 0 0.08 0.46 0 0.1 0.46 0 0 0.465 0 0.02 0.465 0 0.04 0.465 0 0.06 0.465 0 0.08 0.465 0 0.1 0.465 0 0 0.47 0 0.02 0.47 0 0.04 0.47 0 0.06 0.47 0 0.08 0.47 0 0.1 0.47 0 0 0.475 0 0.02 0.475 0 0.04 0.475 0 0.06 0.475 0 0.08 0.475 0 0.1 0.475 0 0 0.48 0 0.02 0.48 0 0.04 0.48 0 0.06 0.48 0 0.08 0.48 0 0.1 0.48 0 0 0.485 0 0.02 0.485 0 0.04 0.485 0 0.06 0.485 0 0.08 0.485 0 0.1 0.485 0 0 0.49 0 0.02 0.49 0 0.04 0.49 0 0.06 0.49 0 0.08 0.49 0 0.1 0.49 0 0 0.495 0 0.02 0.495 0 0.04 0.495 0 0.06 0.495 0 0.08 0.495 0 0.1 0.495 0 0 0.5 0 0.02 0.5 0 0.04 0.5 0 0.06 0.5 0 0.08 0.5 0 0.1 0.5 0 0 0.505 0 0.02 0.505 0 0.04 0.505 0 0.06 0.505 0 0.08 0.505 0 0.1 0.505 0 0 0.51 0 0.02 0.51 0 0.04 0.51 0 0.06 0.51 0 0.08 0.51 0 0.1 0.51 0 0 0.515 0 0.02 0.515 0 0.04 0.515 0 0.06 0.515 0 0.08 0.515 0 0.1 0.515 0 0 0.52 0 0.02 0.52 0 0.04 0.52 0 0.06 0.52 0 0.08 0.52 0 0.1 0.52 0 0 0.525 0 0.02 0.525 0 0.04 0.525 0 0.06 0.525 0 0.08 0.525 0 0.1 0.525 0 0 0.53 0 0.02 0.53 0 0.04 0.53 0 0.06 0.53 0 0.08 0.53 0 0.1 0.53 0 0 0.535 0 0.02 0.535 0 0.04 0.535 0 0.06 0.535 0 0.08 0.535 0 0.1 0.535 0 0 0.54 0 0.02 0.54 0 0.04 0.54 0 0.06 0.54 0 0.08 0.54 0 0.1 0.54 0 0 0.545 0 0.02 0.545 0 0.04 0.545 0 0.06 0.545 0 0.08 0.545 0 0.1 0.545 0 0 0.55 0 0.02 0.55 0 0.04 0.55 0 0.06 0.55 0 0.08 0.55 0 0.1 0.55 0 0 0.555 0 0.02 0.555 0 0.04 0.555 0 0.06 0.555 0 0.08 0.555 0 0.1 0.555 0 0 0.56 0 0.02 0.56 0 0.04 0.56 0 0.06 0.56 0 0.08 0.56 0 0.1 0.56 0 0 0.565 0 0.02 0.565 0 0.04 0.565 0 0.06 0.565 0 0.08 0.565 0 0.1 0.565 0 0 0.57 0 0.02 0.57 0 0.04 0.57 0 0.06 0.57 0 0.08 0.57 0 0.1 0.57 0 0 0.575 0 0.02 0.575 0 0.04 0.575 0 0.06 0.575 0 0.08 0.575 0 0.1 0.575 0 0 0.58 0 0.02 0.58 0 0.04 0.58 0 0.06 0.58 0 0.08 0.58 0 0.1 0.58 0 0 0.585 0 0.02 0.585 0 0.04 0.585 0 0.06 0.585 0 0.08 0.585 0 0.1 0.585 0 0 0.59 0 0.02 0.59 0 0.04 0.59 0 0.06 0.59 0 0.08 0.59 0 0.1 0.59 0 0 0.595 0 0.02 0.595 0 0.04 0.595 0 0.06 0.595 0 0.08 0.595 0 0.1 0.595 0 0 0.6 0 0.02 0.6 0 0.04 0.6 0 0.06 0.6 0 0.08 0.6 0 0.1 0.6 0 0 0.605 0 0.02 0.605 0 0.04 0.605 0 0.06 0.605 0 0.08 0.605 0 0.1 0.605 0 0 0.61 0 0.02 0.61 0 0.04 0.61 0 0.06 0.61 0 0.08 0.61 0 0.1 0.61 0 0 0.615 0 0.02 0.615 0 0.04 0.615 0 0.06 0.615 0 0.08 0.615 0 0.1 0.615 0 0 0.62 0 0.02 0.62 0 0.04 0.62 0 0.06 0.62 0 0.08 0.62 0 0.1 0.62 0 0 0.625 0 0.02 0.625 0 0.04 0.625 0 0.06 0.625 0 0.08 0.625 0 0.1 0.625 0 0 0.63 0 0.02 0.63 0 0.04 0.63 0 0.06 0.63 0 0.08 0.63 0 0.1 0.63 0 0 0.635 0 0.02 0.635 0 0.04 0.635 0 0.06 0.635 0 0.08 0.635 0 0.1 0.635 0 0 0.64 0 0.02 0.64 0 0.04 0.64 0 0.06 0.64 0 0.08 0.64 0 0.1 0.64 0 0 0.645 0 0.02 0.645 0 0.04 0.645 0 0.06 0.645 0 0.08 0.645 0 0.1 0.645 0 0 0.65 0 0.02 0.65 0 0.04 0.65 0 0.06 0.65 0 0.08 0.65 0 0.1 0.65 0 0 0.655 0 0.02 0.655 0 0.04 0.655 0 0.06 0.655 0 0.08 0.655 0 0.1 0.655 0 0 0.66 0 0.02 0.66 0 0.04 0.66 0 0.06 0.66 0 0.08 0.66 0 0.1 0.66 0 0 0.665 0 0.02 0.665 0 0.04 0.665 0 0.06 0.665 0 0.08 0.665 0 0.1 0.665 0 0 0.67 0 0.02 0.67 0 0.04 0.67 0 0.06 0.67 0 0.08 0.67 0 0.1 0.67 0 0 0.675 0 0.02 0.675 0 0.04 0.675 0 0.06 0.675 0 0.08 0.675 0 0.1 0.675 0 0 0.68 0 0.02 0.68 0 0.04 0.68 0 0.06 0.68 0 0.08 0.68 0 0.1 0.68 0 0 0.685 0 0.02 0.685 0 0.04 0.685 0 0.06 0.685 0 0.08 0.685 0 0.1 0.685 0 0 0.69 0 0.02 0.69 0 0.04 0.69 0 0.06 0.69 0 0.08 0.69 0 0.1 
[...]
			<PointData Scalars="VitesseX">
				<DataArray Name="VitesseX" type="Float32" format="ascii">
 0 1.18711e-14 6.17548e-14 3.37874e-14 2.30671e-14 0 0 1.95052e-14 4.86964e-14 4.2823e-14 1.63757e-14 0 0 2.1677e-14 3.90934e-14 4.72674e-14 8.20928e-15 0 0 2.14549e-14 4.08728e-14 3.03828e-14 1.36084e-14 0 0 4.17361e-14 2.00125e-14 2.74798e-14 1.20939e-14 0 0 4.65956e-14 9.48285e-15 2.80877e-14 4.55871e-15 0 0 1.6851e-14 4.25971e-14 -4.35281e-15 2.01099e-14 0 0 9.3091e-15 4.86134e-14 -6.43103e-15 2.12644e-14 0 0 2.07765e-14 3.30443e-14 4.82738e-15 1.9253e-14 0 0 3.11216e-14 3.25283e-14 -4.89944e-15 2.86881e-14 0 0 2.67536e-14 4.43309e-14 -7.97258e-16 2.01613e-14 0 0 2.32509e-14 3.61689e-14 3.97574e-14 -1.25947e-14 0 0 -4.31258e-15 8.13557e-14 2.06645e-14 -1.99321e-14 0 0 -1.66426e-14 8.66493e-14 3.04486e-14 -3.09138e-14 0 0 -7.89996e-15 6.40724e-14 4.4114e-14 -1.15122e-14 0 0 -1.39766e-14 8.02369e-14 1.50825e-14 3.06668e-14 0 0 2.3729e-14 6.24017e-15 8.82375e-14 4.10455e-15 0 0 3.91529e-14 1.51181e-16 7.6884e-14 3.13933e-14 0 0 4.69986e-14 1.69219e-14 4.57657e-14 7.62933e-14 0 0 1.99925e-14 6.16208e-14 2.97565e-14 8.44614e-14 0 0 -1.09026e-14 1.1444e-13 1.44379e-15 8.69325e-14 0 0 3.63964e-16 1.2527e-13 -2.44394e-14 1.11557e-13 0 0 6.96706e-14 4.24796e-14 6.41692e-14 6.04731e-14 0 0 1.13454e-13 -3.00536e-14 1.63984e-13 5.90653e-15 0 0 1.69051e-14 1.21615e-13 4.31242e-14 7.29018e-14 0 0 -3.28436e-14 2.13883e-13 -2.75535e-14 9.91392e-14 0 0 4.0155e-14 1.08925e-13 8.20756e-14 -1.6172e-14 0 0 8.19425e-14 5.1128e-14 1.14045e-13 -6.75497e-14 0 0 5.26613e-14 8.74487e-14 7.80602e-14 -7.59245e-14 0 0 1.90694e-14 1.08879e-13 9.28014e-14 -1.16264e-13 0 0 4.84568e-14 6.94193e-14 1.10624e-13 -1.09863e-13 0 0 5.73186e-14 7.64709e-14 7.62078e-14 -7.24144e-14 0 0 2.44658e-14 1.17715e-13 7.08323e-15 2.06725e-14 0 0 4.23221e-14 6.67719e-14 5.06662e-14 3.85752e-14 0 0 3.19649e-14 5.51698e-14 9.96576e-14 2.79707e-14 0 0 -1.81124e-14 1.29008e-13 4.94266e-14 4.14123e-14 0 0 -1.69551e-14 1.35716e-13 3.44593e-14 5.69645e-14 0 0 3.81501e-14 3.80053e-14 1.37431e-13 3.32489e-14 0 0 2.53146e-14 9.58025e-14 7.80609e-14 5.36004e-14 0 0 3.78906e-14 1.45338e-13 -1.69611e-14 1.0136e-13 0 0 8.12775e-14 1.04402e-13 -2.78923e-15 1.00885e-13 0 0 1.68491e-13 -2.44325e-15 8.28107e-14 3.16306e-14 0 0 2.36838e-13 -1.17354e-13 2.43105e-13 -1.17195e-13 0 0 7.05971e-14 1.16103e-13 6.49801e-14 -2.76968e-14 0 0 -1.82809e-14 2.06612e-13 1.25303e-14 2.45272e-14 0 0 7.82106e-14 8.63188e-15 2.51159e-13 -1.11969e-13 0 0 9.11921e-14 -1.10939e-14 2.44667e-13 -5.3948e-14 0 0 6.42116e-14 8.81641e-15 2.23469e-13 1.02786e-14 0 0 2.24534e-14 4.88569e-14 1.81439e-13 3.14072e-14 0 0 -4.05503e-14 1.42846e-13 7.99486e-14 8.21274e-14 0 0 -9.8734e-14 2.35814e-13 2.4692e-14 1.13302e-13 0 0 -5.75561e-14 2.07768e-13 1.83747e-15 1.61947e-13 0 0 1.57073e-13 -1.30816e-13 3.2114e-13 -4.01147e-14 0 0 1.04148e-13 -5.7777e-14 2.58908e-13 -3.07038e-14 0 0 -1.35872e-13 2.91454e-13 -7.7465e-14 1.70062e-13 0 0 -1.3594e-13 2.08146e-13 6.32005e-14 8.85189e-14 0 0 -6.32641e-14 8.24318e-14 1.38922e-13 1.10305e-13 0 0 -3.89719e-14 5.58109e-14 1.45783e-13 1.57406e-13 0 0 -5.33988e-14 1.15677e-13 1.03256e-13 1.95645e-13 0 0 -4.37395e-14 1.52831e-13 8.26286e-14 1.65307e-13 0 0 -1.07571e-14 1.67785e-13 7.14632e-14 9.95243e-14 0 0 -1.29859e-14 2.19689e-13 -1.64403e-14 1.20929e-13 0 0 6.69835e-14 1.18553e-13 7.66394e-14 5.01572e-15 0 0 7.84922e-14 1.75819e-13 3.01907e-14 -2.20179e-14 0 0 1.42273e-13 1.51813e-13 1.47004e-14 -1.01269e-14 0 0 2.19212e-13 3.76226e-14 1.22841e-13 -7.59956e-14 0 0 1.40799e-13 1.16746e-13 1.36921e-13 -7.07042e-14 0 0 8.53709e-14 1.83977e-13 8.7323e-14 5.97081e-14 0 0 -7.14428e-14 3.82337e-13 -1.26814e-13 3.17306e-13 0 0 -5.62571e-15 2.94188e-13 -2.98732e-14 3.14433e-13 0 0 2.27421e-13 4.33938e-15 2.83398e-13 9.3138e-14 0 0 1.41491e-13 1.13994e-13 2.4116e-13 3.76044e-14 0 0 -1.05948e-13 4.44234e-13 -8.66325e-14 2.25726e-13 0 0 -2.09088e-13 5.53596e-13 -1.60097e-13 3.3098e-13 0 0 -9.85774e-14 2.48397e-13 2.56993e-13 1.74236e-13 0 0 9.97191e-14 -6.28621e-14 5.2289e-13 1.54579e-13 0 0 -5.07703e-15 2.3586e-13 9.97656e-14 5.407e-13 0 0 -2.63656e-13 5.92174e-13 -1.08556e-13 5.34017e-13 0 0 -1.64505e-13 4.11755e-13 2.33711e-13 8.00548e-14 0 0 1.18133e-13 1.06128e-13 4.44245e-13 1.78976e-14 0 0 -9.52322e-14 3.65876e-13 2.10737e-13 3.17705e-13 0 0 -2.35349e-13 4.47385e-13 4.33744e-13 1.12055e-13 0 0 1.47435e-13 4.68064e-14 1.08805e-12 -4.52968e-13 0 0 1.14969e-13 5.59706e-13 5.84009e-13 -2.7853e-13 0 0 -6.71393e-14 1.41453e-12 -5.12481e-13 3.59732e-13 0 0 2.87473e-13 1.10296e-12 -5.35811e-13 5.01332e-13 0 0 1.07114e-12 1.42791e-13 2.52411e-13 3.81719e-14 0 0 1.02429e-12 3.76291e-14 8.19576e-13 -5.29489e-13 0 0 5.84405e-13 4.63499e-13 6.25619e-13 -4.15345e-13 0 0 1.20927e-13 1.03983e-12 1.96579e-13 -1.05474e-13 0 0 -1.30291e-13 1.31505e-12 -6.09878e-14 1.38592e-13 0 0 -8.20377e-14 1.27891e-12 -3.28432e-14 9.12561e-14 0 0 1.77077e-13 9.08738e-13 2.2672e-13 -8.45995e-16 0 0 8.69847e-13 -6.50596e-15 5.48092e-13 1.40437e-13 0 0 1.17382e-12 -3.9855e-13 5.76839e-13 4.24337e-13 0 0 1.04738e-12 -2.29136e-13 4.66433e-13 4.22791e-13 0 0 7.32147e-13 1.93554e-13 3.15347e-13 2.92572e-13 0 0 2.36949e-13 6.49453e-13 1.33372e-13 8.38689e-14 0 0 -1.8238e-13 9.80022e-13 -1.25853e-13 6.9223e-14 0 0 -1.7913e-13 9.73451e-13 -2.29311e-13 1.03668e-13 0 0 2.01908e-13 5.52553e-13 -6.31793e-14 1.67834e-13 0 0 8.10547e-13 -1.83112e-13 2.8271e-13 2.65363e-13 0 0 9.5494e-13 -3.89434e-13 3.87755e-13 3.21629e-13 0 0 7.77139e-13 -2.65027e-13 3.45208e-13 3.43688e-13 0 0 2.21815e-13 9.97866e-14 2.95487e-13 3.1634e-13 0 0 -3.50468e-13 3.76991e-13 3.45097e-13 1.32115e-13 0 0 -4.50083e-13 3.79031e-13 4.95453e-13 -1.31867e-13 0 0 -3.20889e-13 2.38994e-13 5.22957e-13 -1.54378e-13 0 0 -8.03554e-14 1.30815e-13 4.91246e-13 -1.11939e-13 0 0 8.2062e-14 6.63392e-14 4.21377e-13 -3.09312e-14 0 0 1.67314e-13 5.37404e-14 3.3469e-13 1.12613e-13 0 0 1.72278e-13 7.54944e-14 2.70184e-13 2.20211e-13 0 0 1.41412e-13 1.23625e-13 2.39529e-13 2.58254e-13 0 0 8.29036e-14 1.83423e-13 2.18593e-13 2.8498e-13 0 0 4.90458e-14 1.91281e-13 2.24367e-13 3.01729e-13 0 0 2.54624e-14 1.70853e-13 2.79243e-13 3.17506e-13 0 0 8.58272e-15 1.36299e-13 3.55306e-13 2.78568e-13 0 0 2.33525e-14 7.86752e-14 4.39035e-13 2.44104e-13 0 0 5.71448e-14 4.51298e-14 4.37858e-13 2.76862e-13 0 0 1.02187e-13 1.10545e-13 3.20047e-13 2.91579e-13 0 0 1.01115e-13 1.79542e-13 2.28985e-13 2.65779e-13 0 0 1.00629e-13 2.79577e-13 8.02627e-14 2.60277e-13 0 0 1.15053e-13 3.24341e-13 -8.48846e-15 2.08976e-13 0 0 1.40505e-13 3.05422e-13 -6.70458e-15 1.09767e-13 0 0 1.23408e-13 3.08168e-13 2.29874e-14 -1.62702e-14 0 0 1.09336e-13 2.65329e-13 7.25574e-14 -7.21775e-14 0 0 1.26226e-13 2.23351e-13 3.96673e-14 -1.5008e-14 0 0 8.899e-14 2.72875e-13 7.27111e-15 -5.02264e-14 0 0 4.06846e-14 2.38765e-13 1.00631e-13 -9.40577e-14 0 0 3.63251e-14 2.05903e-13 1.65779e-13 5.36741e-14 0 0 6.77599e-14 2.39247e-13 1.66674e-13 1.81715e-13 0 0 1.31389e-13 2.35228e-13 2.26389e-13 2.09344e-13 0 0 4.87156e-14 4.73568e-13 7.59565e-14 2.36509e-13 0 0 1.5949e-13 3.76679e-13 3.38051e-13 9.71399e-14 0 0 1.97213e-13 4.00774e-13 3.78982e-13 1.69027e-13 0 0 2.11977e-13 4.20606e-13 3.70498e-13 1.63732e-13 0 0 2.68342e-13 3.69425e-13 3.95074e-13 1.99653e-13 0 0 2.05092e-13 5.28661e-13 2.49391e-13 2.40737e-13 0 0 3.78099e-13 2.96342e-13 4.84785e-13 5.52771e-14 0 0 4.31209e-13 3.02555e-13 4.39e-13 7.13151e-14 0 0 3.80042e-13 4.62926e-13 2.53134e-13 1.74358e-13 0 0 4.73607e-13 2.93976e-13 4.84109e-13 -3.73678e-15 0 0 3.06256e-13 5.36528e-13 2.60605e-13 1.1164e-13 0 0 3.58906e-13 4.97252e-13 2.12543e-13 1.81827e-13 0 0 5.12369e-13 2.99903e-13 3.46535e-13 5.52403e-14 0 0 3.68643e-13 5.12827e-13 1.26287e-13 1.64508e-13 0 0 4.6116e-13 3.70982e-13 2.37881e-13 1.58011e-13 0 0 4.0767e-13 4.57811e-13 1.23046e-13 2.61314e-13 0 0 3.44826e-13 5.26397e-13 1.37682e-14 3.86114e-13 0 0 4.97748e-13 2.43989e-13 1.97841e-13 3.83199e-13 0 0 3.13747e-13 4.82053e-13 -9.16921e-14 6.18836e-13 0 0 3.58187e-13 3.73753e-13 8.59479e-14 3.59536e-13 0 0 3.64809e-13 4.02733e-13 1.85291e-13 7.77347e-14 0 0 4.25167e-13 3.94555e-13 1.96474e-13 7.10222e-14 0 0 5.1515e-13 3.00344e-13 2.72343e-13 7.69771e-14 0 0 4.94303e-13 3.58649e-13 2.59427e-13 1.58463e-13 0 0 3.83549e-13 5.06785e-13 3.0802e-13 2.63272e-13 0 0 1.69046e-13 7.5004e-13 3.55616e-13 1.51457e-13 0 0 2.55777e-13 5.66355e-13 5.31189e-13 1.64556e-13 0 0 2.05727e-13 7.19905e-13 2.48962e-13 5.89236e-13 0 0 3.4191e-13 5.68094e-13 3.56429e-13 5.19398e-13 0 0 3.69363e-13 5.4524e-13 4.07749e-13 4.33571e-13 0 0 2.68825e-13 6.72248e-13 3.66075e-13 4.35254e-13 0 0 4.30814e-13 4.06045e-13 6.68086e-13 2.48456e-13 0 0 2.2528e-13 7.09855e-13 3.80917e-13 3.11839e-13 0 0 -2.76352e-14 9.36248e-13 4.54733e-14 6.51535e-13 0 0 1.77655e-13 5.19284e-13 4.31441e-13 6.07297e-13 0 0 3.87007e-13 3.21328e-13 6.67103e-13 3.79534e-13 0 0 6.11139e-13 1.114e-13 7.4196e-13 3.8255e-13 0 0 3.62214e-13 2.85881e-13 7.44747e-13 4.31035e-13 0 0 1.2357e-13 4.15481e-13 8.0686e-13 4.05545e-13 0 0 1.56769e-13 3.43711e-13 8.10416e-13 5.17159e-13 0 0 -1.13364e-13 7.87904e-13 4.3489e-13 6.40172e-13 0 0 3.06549e-13 3.08496e-13 6.82408e-13 4.6849e-13 0 0 3.97876e-13 2.27088e-13 6.73512e-13 4.45397e-13 0 0 1.29144e-13 5.62521e-13 4.12675e-13 4.94755e-13 0 0 3.22346e-13 3.55777e-13 4.8199e-13 3.83269e-13 0 0 3.38139e-13 4.08299e-13 4.40137e-13 2.59767e-13 0 0 4.63141e-13 1.82622e-13 6.6805e-13 7.53959e-14 0 0 4.41573e-13 2.12797e-13 7.11243e-13 -3.47746e-14 0 0 2.99352e-13 4.93839e-13 4.43026e-13 8.27817e-14 0 0 4.94187e-13 2.87638e-13 4.99486e-13 1.05009e-13 0 0 3.04263e-13 5.67164e-13 9.93241e-14 3.93219e-13 0 0 3.07124e-13 4.56849e-13 1.56797e-13 3.9375e-13 0 0 4.97803e-13 1.34166e-13 4.61295e-13 2.39754e-13 0 0 4.40594e-13 4.42262e-13 7.80036e-14 5.08113e-13 0 0 7.22139e-13 1.86474e-13 3.09092e-13 3.34268e-13 0 0 6.03244e-13 2.33696e-13 4.11896e-13 1.55618e-13 0 0 5.33503e-13 7.41833e-14 6.16271e-13 1.0378e-13 0 0 4.00472e-13 3.28328e-13 1.92203e-13 4.62005e-13 0 0 4.47982e-13 5.7769e-13 -1.76859e-13 6.05911e-13 0 0 8.71505e-13 6.34002e-14 2.74739e-13 3.09582e-13 0 0 3.89092e-13 7.33497e-13 -2.56895e-13 5.61121e-13 0 0 2.25386e-13 9.98388e-13 -3.77193e-13 6.13768e-13 0 0 6.79199e-13 4.13216e-13 2.31541e-14 5.72994e-13 0 0 8.38299e-13 2.77676e-13 -8.53901e-14 8.51057e-13 0 0 9.13532e-13 1.79396e-13 -1.19741e-13 1.04976e-12 0 0 4.71272e-13 8.20582e-13 -6.7036e-13 1.31325e-12 0 0 4.11977e-13 7.66304e-13 -4.75932e-13 1.02201e-12 0 0 8.70327e-13 -8.89013e-14 2.49201e-13 6.28302e-13 0 0 9.32175e-13 -1.56092e-13 1.67549e-13 7.26984e-13 0
				</DataArray>
				<DataArray Name="VitesseY" type="Float32" format="ascii">