<?xml version="1.0"?>
<VTKFile type="PolyData">
	<PolyData>
		<Piece NumberOfPoints="1206" NumberOfPolys="1000">
			<Points>
				<DataArray type="Float32" NumberOfComponents="3" format="ascii">
 0 0 0 0.02 0 0 0.04 0 0 0.06 0 0 0.08 0 0 0.1 0 0 0 0.005 0 0.02 0.005 0 0.04 0.005 0 0.06 0.005 0 0.08 0.005 0 0.1 0.005 0 0 0.01 0 0.02 0.01 0 0.04 0.01 0 0.06 0.01 0 0.08 0.01 0 0.1 0.01 0 0 0.015 0 0.02 0.015 0 0.04 0.015 0 0.06 0.015 0 0.08 0.015 0 0.1 0.015 0 0 0.02 0 0.02 0.02 0 0.04 0.02 0 0.06 0.02 0 0.08 0.02 0 0.1 0.02 0 0 0.025 0 0.02 0.025 0 0.04 0.025 0 0.06 0.025 0 0.08 0.025 0 0.1 0.025 0 0 0.03 0 0.02 0.03 0 0.04 0.03 0 0.06 0.03 0 0.08 0.03 0 0.1 0.03 0 0 0.035 0 0.02 0.035 0 0.04 0.035 0 0.06 0.035 0 0.08 0.035 0 0.1 0.035 0 0 0.04 0 0.02 0.04 0 0.04 0.04 0 0.06 0.04 0 0.08 0.04 0 0.1 0.04 0 0 0.045 0 0.02 0.045 0 0.04 0.045 0 0.06 0.045 0 0.08 0.045 0 0.1 0.045 0 0 0.05 0 0.02 0.05 0 0.04 0.05 0 0.06 0.05 0 0.08 0.05 0 0.1 0.05 0 0 0.055 0 0.02 0.055 0 0.04 0.055 0 0.06 0.055 0 0.08 0.055 0 0.1 0.055 0 0 0.06 0 0.02 0.06 0 0.04 0.06 0 0.06 0.06 0 0.08 0.06 0 0.1 0.06 0 0 0.065 0 0.02 0.065 0 0.04 0.065 0 0.06 0.065 0 0.08 0.065 0 0.1 0.065 0 0 0.07 0 0.02 0.07 0 0.04 0.07 0 0.06 0.07 0 0.08 0.07 0 0.1 0.07 0 0 0.075 0 0.02 0.075 0 0.04 0.075 0 0.06 0.075 0 0.08 0.075 0 0.1 0.075 0 0 0.08 0 0.02 0.08 0 0.04 0.08 0 0.06 0.08 0 0.08 0.08 0 0.1 0.08 0 0 0.085 0 0.02 0.085 0 0.04 0.085 0 0.06 0.085 0 0.08 0.085 0 0.1 0.085 0 0 0.09 0 0.02 0.09 0 0.04 0.09 0 0.06 0.09 0 0.08 0.09 0 0.1 0.09 0 0 0.095 0 0.02 0.095 0 0.04 0.095 0 0.06 0.095 0 0.08 0.095 0 0.1 0.095 0 0 0.1 0 0.02 0.1 0 0.04 0.1 0 0.06 0.1 0 0.08 0.1 0 0.1 0.1 0 0 0.105 0 0.02 0.105 0 0.04 0.105 0 0.06 0.105 0 0.08 0.105 0 0.1 0.105 0 0 0.11 0 0.02 0.11 0 0.04 0.11 0 0.06 0.11 0 0.08 0.11 0 0.1 0.11 0 0 0.115 0 0.02 0.115 0 0.04 0.115 0 0.06 0.115 0 0.08 0.115 0 0.1 0.115 0 0 0.12 0 0.02 0.12 0 0.04 0.12 0 0.06 0.12 0 0.08 0.12 0 0.1 0.12 0 0 0.125 0 0.02 0.125 0 0.04 0.125 0 0.06 0.125 0 0.08 0.125 0 0.1 0.125 0 0 0.13 0 0.02 0.13 0 0.04 0.13 0 0.06 0.13 0 0.08 0.13 0 0.1 0.13 0 0 0.135 0 0.02 0.135 0 0.04 0.135 0 0.06 0.135 0 0.08 0.135 0 0.1 0.135 0 0 0.14 0 0.02 0.14 0 0.04 0.14 0 0.06 0.14 0 0.08 0.14 0 0.1 0.14 0 0 0.145 0 0.02 0.145 0 0.04 0.145 0 0.06 0.145 0 0.08 0.145 0 0.1 0.145 0 0 0.15 0 0.02 0.15 0 0.04 0.15 0 0.06 0.15 0 0.08 0.15 0 0.1 0.15 0 0 0.155 0 0.02 0.155 0 0.04 0.155 0 0.06 0.155 0 0.08 0.155 0 0.1 0.155 0 0 0.16 0 0.02 0.16 0 0.04 0.16 0 0.06 0.16 0 0.08 0.16 0 0.1 0.16 0 0 0.165 0 0.02 0.165 0 0.04 0.165 0 0.06 0.165 0 0.08 0.165 0 0.1 0.165 0 0 0.17 0 0.02 0.17 0 0.04 0.17 0 0.06 0.17 0 0.08 0.17 0 0.1 0.17 0 0 0.175 0 0.02 0.175 0 0.04 0.175 0 0.06 0.175 0 0.08 0.175 0 0.1 0.175 0 0 0.18 0 0.02 0.18 0 0.04 0.18 0 0.06 0.18 0 0.08 0.18 0 0.1 0.18 0 0 0.185 0 0.02 0.185 0 0.04 0.185 0 0.06 0.185 0 0.08 0.185 0 0.1 0.185 0 0 0.19 0 0.02 0.19 0 0.04 0.19 0 0.06 0.19 0 0.08 0.19 0 0.1 0.19 0 0 0.195 0 0.02 0.195 0 0.04 0.195 0 0.06 0.195 0 0.08 0.195 0 0.1 0.195 0 0 0.2 0 0.02 0.2 0 0.04 0.2 0 0.06 0.2 0 0.08 0.2 0 0.1 0.2 0 0 0.205 0 0.02 0.205 0 0.04 0.205 0 0.06 0.205 0 0.08 0.205 0 0.1 0.205 0 0 0.21 0 0.02 0.21 0 0.04 0.21 0 0.06 0.21 0 0.08 0.21 0 0.1 0.21 0 0 0.215 0 0.02 0.215 0 0.04 0.215 0 0.06 0.215 0 0.08 0.215 0 0.1 0.215 0 0 0.22 0 0.02 0.22 0 0.04 0.22 0 0.06 0.22 0 0.08 0.22 0 0.1 0.22 0 0 0.225 0 0.02 0.225 0 0.04 0.225 0 0.06 0.225 0 0.08 0.225 0 0.1 0.225 0 0 0.23 0 0.02 0.23 0 0.04 0.23 0 0.06 0.23 0 0.08 0.23 0 0.1 0.23 0 0 0.235 0 0.02 0.235 0 0.04 0.235 0 0.06 0.235 0 0.08 0.235 0 0.1 0.235 0 0 0.24 0 0.02 0.24 0 0.04 0.24 0 0.06 0.24 0 0.08 0.24 0 0.1 0.24 0 0 0.245 0 0.02 0.245 0 0.04 0.245 0 0.06 0.245 0 0.08 0.245 0 0.1 0.245 0 0 0.25 0 0.02 0.25 0 0.04 0.25 0 0.06 0.25 0 0.08 0.25 0 0.1 0.25 0 0 0.255 0 0.02 0.255 0 0.04 0.255 0 0.06 0.255 0 0.08 0.255 0 0.1 0.255 0 0 0.26 0 0.02 0.26 0 0.04 0.26 0 0.06 0.26 0 0.08 0.26 0 0.1 0.26 0 0 0.265 0 0.02 0.265 0 0.04 0.265 0 0.06 0.265 0 0.08 0.265 0 0.1 0.265 0 0 0.27 0 0.02 0.27 0 0.04 0.27 0 0.06 0.27 0 0.08 0.27 0 0.1 0.27 0 0 0.275 0 0.02 0.275 0 0.04 0.275 0 0.06 0.275 0 0.08 0.275 0 0.1 0.275 0 0 0.28 0 0.02 0.28 0 0.04 0.28 0 0.06 0.28 0 0.08 0.28 0 0.1 0.28 0 0 0.285 0 0.02 0.285 0 0.04 0.285 0 0.06 0.285 0 0.08 0.285 0 0.1 0.285 0 0 0.29 0 0.02 0.29 0 0.04 0.29 0 0.06 0.29 0 0.08 0.29 0 0.1 0.29 0 0 0.295 0 0.02 0.295 0 0.04 0.295 0 0.06 0.295 0 0.08 0.295 0 0.1 0.295 0 0 0.3 0 0.02 0.3 0 0.04 0.3 0 0.06 0.3 0 0.08 0.3 0 0.1 0.3 0 0 0.305 0 0.02 0.305 0 0.04 0.305 0 0.06 0.305 0 0.08 0.305 0 0.1 0.305 0 0 0.31 0 0.02 0.31 0 0.04 0.31 0 0.06 0.31 0 0.08 0.31 0 0.1 0.31 0 0 0.315 0 0.02 0.315 0 0.04 0.315 0 0.06 0.315 0 0.08 0.315 0 0.1 0.315 0 0 0.32 0 0.02 0.32 0 0.04 0.32 0 0.06 0.32 0 0.08 0.32 0 0.1 0.32 0 0 0.325 0 0.02 0.325 0 0.04 0.325 0 0.06 0.325 0 0.08 0.325 0 0.1 0.325 0 0 0.33 0 0.02 0.33 0 0.04 0.33 0 0.06 0.33 0 0.08 0.33 0 0.1 0.33 0 0 0.335 0 0.02 0.335 0 0.04 0.335 0 0.06 0.335 0 0.08 0.335 0 0.1 0.335 0 0 0.34 0 0.02 0.34 0 0.04 0.34 0 0.06 0.34 0 0.08 0.34 0 0.1 0.34 0 0 0.345 0 0.02 0.345 0 0.04 0.345 0 0.06 0.345 0 0.08 0.345 0 0.1 0.345 0 0 0.35 0 0.02 0.35 0 0.04 0.35 0 0.06 0.35 0 0.08 0.35 0 0.1 0.35 0 0 0.355 0 0.02 0.355 0 0.04 0.355 0 0.06 0.355 0 0.08 0.355 0 0.1 0.355 0 0 0.36 0 0.02 0.36 0 0.04 0.36 0 0.06 0.36 0 0.08 0.36 0 0.1 0.36 0 0 0.365 0 0.02 0.365 0 0.04 0.365 0 0.06 0.365 0 0.08 0.365 0 0.1 0.365 0 0 0.37 0 0.02 0.37 0 0.04 0.37 0 0.06 0.37 0 0.08 0.37 0 0.1 0.37 0 0 0.375 0 0.02 0.375 0 0.04 0.375 0 0.06 0.375 0 0.08 0.375 0 0.1 0.375 0 0 0.38 0 0.02 0.38 0 0.04 0.38 0 0.06 0.38 0 0.08 0.38 0 0.1 0.38 0 0 0.385 0 0.02 0.385 0 0.04 0.385 0 0.06 0.385 0 0.08 0.385 0 0.1 0.385 0 0 0.39 0 0.02 0.39 0 0.04 0.39 0 0.06 0.39 0 0.08 0.39 0 0.1 0.39 0 0 0.395 0 0.02 0.395 0 0.04 0.395 0 0.06 0.395 0 0.08 0.395 0 0.1 0.395 0 0 0.4 0 0.02 0.4 0 0.04 0.4 0 0.06 0.4 0 0.08 0.4 0 0.1 0.4 0 0 0.405 0 0.02 0.405 0 0.04 0.405 0 0.06 0.405 0 0.08 0.405 0 0.1 0.405 0 0 0.41 0 0.02 0.41 0 0.04 0.41 0 0.06 0.41 0 0.08 0.41 0 0.1 0.41 0 0 0.415 0 0.02 0.415 0 0.04 0.415 0 0.06 0.415 0 0.08 0.415 0 0.1 0.415 0 0 0.42 0 0.02 0.42 0 0.04 0.42 0 0.06 0.42 0 0.08 0.42 0 0.1 0.42 0 0 0.425 0 0.02 0.425 0 0.04 0.425 0 0.06 0.425 0 0.08 0.425 0 0.1 0.425 0 0 0.43 0 0.02 0.43 0 0.04 0.43 0 0.06 0.43 0 0.08 0.43 0 0.1 0.43 0 0 0.435 0 0.02 0.435 0 0.04 0.435 0 0.06 0.435 0 0.08 0.435 0 0.1 0.435 0 0 0.44 0 0.02 0.44 0 0.04 0.44 0 0.06 0.44 0 0.08 0.44 0 0.1 0.44 0 0 0.445 0 0.02 0.445 0 0.04 0.445 0 0.06 0.445 0 0.08 0.445 0 0.1 0.445 0 0 0.45 0 0.02 0.45 0 0.04 0.45 0 0.06 0.45 0 0.08 0.45 0 0.1 0.45 0 0 0.455 0 0.02 0.455 0 0.04 0.455 0 0.06 0.455 0 0.08 0.455 0 0.1 0.455 0 0 0.46 0 0.02 0.46 0 0.04 0.46 0 0.06 0.46 0 0.08 0.46 0 0.1 0.46 0 0 0.465 0 0.02 0.465 0 0.04 0.465 0 0.06 0.465 0 0.08 0.465 0 0.1 0.465 0 0 0.47 0 0.02 0.47 0 0.04 0.47 0 0.06 0.47 0 0.08 0.47 0 0.1 0.47 0 0 0.475 0 0.02 0.475 0 0.04 0.475 0 0.06 0.475 0 0.08 0.475 0 0.1 0.475 0 0 0.48 0 0.02 0.48 0 0.04 0.48 0 0.06 0.48 0 0.08 0.48 0 0.1 0.48 0 0 0.485 0 0.02 0.485 0 0.04 0.485 0 0.06 0.485 0 0.08 0.485 0 0.1 0.485 0 0 0.49 0 0.02 0.49 0 0.04 0.49 0 0.06 0.49 0 0.08 0.49 0 0.1 0.49 0 0 0.495 0 0.02 0.495 0 0.04 0.495 0 0.06 0.495 0 0.08 0.495 0 0.1 0.495 0 0 0.5 0 0.02 0.5 0 0.04 0.5 0 0.06 0.5 0 0.08 0.5 0 0.1 0.5 0 0 0.505 0 0.02 0.505 0 0.04 0.505 0 0.06 0.505 0 0.08 0.505 0 0.1 0.505 0 0 0.51 0 0.02 0.51 0 0.04 0.51 0 0.06 0.51 0 0.08 0.51 0 0.1 0.51 0 0 0.515 0 0.02 0.515 0 0.04 0.515 0 0.06 0.515 0 0.08 0.515 0 0.1 0.515 0 0 0.52 0 0.02 0.52 0 0.04 0.52 0 0.06 0.52 0 0.08 0.52 0 0.1 0.52 0 0 0.525 0 0.02 0.525 0 0.04 0.525 0 0.06 0.525 0 0.08 0.525 0 0.1 0.525 0 0 0.53 0 0.02 0.53 0 0.04 0.53 0 0.06 0.53 0 0.08 0.53 0 0.1 0.53 0 0 0.535 0 0.02 0.535 0 0.04 0.535 0 0.06 0.535 0 0.08 0.535 0 0.1 0.535 0 0 0.54 0 0.02 0.54 0 0.04 0.54 0 0.06 0.54 0 0.08 0.54 0 0.1 0.54 0 0 0.545 0 0.02 0.545 0 0.04 0.545 0 0.06 0.545 0 0.08 0.545 0 0.1 0.545 0 0 0.55 0 0.02 0.55 0 0.04 0.55 0 0.06 0.55 0 0.08 0.55 0 0.1 0.55 0 0 0.555 0 0.02 0.555 0 0.04 0.555 0 0.06 0.555 0 0.08 0.555 0 0.1 0.555 0 0 0.56 0 0.02 0.56 0 0.04 0.56 0 0.06 0.56 0 0.08 0.56 0 0.1 0.56 0 0 0.565 0 0.02 0.565 0 0.04 0.565 0 0.06 0.565 0 0.08 0.565 0 0.1 0.565 0 0 0.57 0 0.02 0.57 0 0.04 0.57 0 0.06 0.57 0 0.08 0.57 0 0.1 0.57 0 0 0.575 0 0.02 0.575 0 0.04 0.575 0 0.06 0.575 0 0.08 0.575 0 0.1 0.575 0 0 0.58 0 0.02 0.58 0 0.04 0.58 0 0.06 0.58 0 0.08 0.58 0 0.1 0.58 0 0 0.585 0 0.02 0.585 0 0.04 0.585 0 0.06 0.585 0 0.08 0.585 0 0.1 0.585 0 0 0.59 0 0.02 0.59 0 0.04 0.59 0 0.06 0.59 0 0.08 0.59 0 0.1 0.59 0 0 0.595 0 0.02 0.595 0 0.04 0.595 0 0.06 0.595 0 0.08 0.595 0 0.1 0.595 0 0 0.6 0 0.02 0.6 0 0.04 0.6 0 0.06 0.6 0 0.08 0.6 0 0.1 0.6 0 0 0.605 0 0.02 0.605 0 0.04 0.605 0 0.06 0.605 0 0.08 0.605 0 0.1 0.605 0 0 0.61 0 0.02 0.61 0 0.04 0.61 0 0.06 0.61 0 0.08 0.61 0 0.1 0.61 0 0 0.615 0 0.02 0.615 0 0.04 0.615 0 0.06 0.615 0 0.08 0.615 0 0.1 0.615 0 0 0.62 0 0.02 0.62 0 0.04 0.62 0 0.06 0.62 0 0.08 0.62 0 0.1 0.62 0 0 0.625 0 0.02 0.625 0 0.04 0.625 0 0.06 0.625 0 0.08 0.625 0 0.1 0.625 0 0 0.63 0 0.02 0.63 0 0.04 0.63 0 0.06 0.63 0 0.08 0.63 0 0.1 0.63 0 0 0.635 0 0.02 0.635 0 0.04 0.635 0 0.06 0.635 0 0.08 0.635 0 0.1 0.635 0 0 0.64 0 0.02 0.64 0 0.04 0.64 0 0.06 0.64 0 0.08 0.64 0 0.1 0.64 0 0 0.645 0 0.02 0.645 0 0.04 0.645 0 0.06 0.645 0 0.08 0.645 0 0.1 0.645 0 0 0.65 0 0.02 0.65 0 0.04 0.65 0 0.06 0.65 0 0.08 0.65 0 0.1 0.65 0 0 0.655 0 0.02 0.655 0 0.04 0.655 0 0.06 0.655 0 0.08 0.655 0 0.1 0.655 0 0 0.66 0 0.02 0.66 0 0.04 0.66 0 0.06 0.66 0 0.08 0.66 0 0.1 0.66 0 0 0.665 0 0.02 0.665 0 0.04 0.665 0 0.06 0.665 0 0.08 0.665 0 0.1 0.665 0 0 0.67 0 0.02 0.67 0 0.04 0.67 0 0.06 0.67 0 0.08 0.67 0 0.1 0.67 0 0 0.675 0 0.02 0.675 0 0.04 0.675 0 0.06 0.675 0 0.08 0.675 0 0.1 0.675 0 0 0.68 0 0.02 0.68 0 0.04 0.68 0 0.06 0.68 0 0.08 0.68 0 0.1 0.68 0 0 0.685 0 0.02 0.685 0 0.04 0.685 0 0.06 0.685 0 0.08 0.685 0 0.1 0.685 0 0 0.69 0 0.02 0.69 0 0.04 0.69 0 0.06 0.69 0 0.08 0.69 0 0.1 
[...]
			<PointData Scalars="VitesseX">
				<DataArray Name="VitesseX" type="Float32" format="ascii">
 0 -2.84486e-14 1.28268e-14 -1.04166e-14 -6.44832e-15 0 0 -2.44354e-14 2.64423e-15 -3.25413e-15 -8.36016e-15 0 0 -1.6231e-14 -2.35258e-14 2.44215e-14 -2.3501e-14 0 0 -5.00651e-14 1.63517e-14 -3.76832e-15 -1.31551e-14 0 0 -3.4636e-14 -4.30595e-15 9.86641e-15 -2.38004e-14 0 0 2.30664e-14 -7.4562e-14 4.39674e-14 -2.78136e-14 0 0 -8.81699e-15 -1.25982e-14 -4.75619e-14 5.0773e-14 0 0 -5.55713e-14 5.91308e-14 -1.20055e-13 1.08666e-13 0 0 -3.13686e-14 1.12188e-14 -5.21174e-14 7.35963e-14 0 0 -6.7217e-15 -5.84001e-14 6.87571e-14 -1.60411e-14 0 0 -6.62832e-14 5.31888e-15 5.42157e-14 -2.91101e-14 0 0 -5.03387e-14 -2.27492e-14 8.46721e-14 -4.84622e-14 0 0 -8.39299e-14 5.47083e-14 -1.94306e-14 3.38953e-14 0 0 -4.17192e-14 1.46474e-14 3.60158e-15 3.84705e-14 0 0 -6.29322e-15 -2.8207e-14 6.34081e-14 -9.3661e-15 0 0 -8.30473e-14 1.16797e-13 -1.01842e-13 7.48423e-14 0 0 4.23114e-14 -5.44554e-14 9.07839e-15 -2.12414e-14 0 0 1.35689e-14 -2.76549e-14 -2.51939e-14 -4.37876e-14 0 0 -3.64252e-15 -4.45472e-14 -2.24079e-14 -3.49746e-14 0 0 7.05239e-15 -7.62992e-14 -2.90941e-14 -6.72981e-16 0 0 -1.28957e-13 1.36147e-13 -2.19134e-13 1.14906e-13 0 0 -1.30948e-13 1.3869e-13 -1.91951e-13 1.07611e-13 0 0 8.78635e-15 -8.6575e-14 3.92009e-14 -1.8968e-14 0 0 6.09108e-14 -1.9662e-13 1.66085e-13 -1.07405e-13 0 0 -1.2746e-13 5.65575e-14 -6.67829e-14 4.26461e-15 0 0 -2.66292e-13 2.40589e-13 -2.52262e-13 8.90264e-14 0 0 -1.03779e-13 -8.28919e-15 -5.26237e-14 -5.37546e-14 0 0 1.08176e-14 -1.50617e-13 6.47598e-14 -1.89327e-13 0 0 -9.31715e-14 1.83972e-14 -6.95561e-14 -1.7198e-13 0 0 -2.00165e-13 1.48277e-13 -2.1002e-13 -3.53929e-14 0 0 -1.09122e-13 -3.36055e-14 -7.41212e-14 -2.9509e-14 0 0 -1.36891e-13 -3.77154e-14 -1.26955e-14 -4.76191e-14 0 0 -1.60865e-13 1.46626e-14 -9.286e-15 -1.05724e-14 0 0 7.01881e-14 -2.54358e-13 2.41551e-13 -8.89409e-14 0 0 -1.15563e-13 6.56126e-14 -3.89158e-14 9.78878e-14 0 0 -2.49256e-13 2.23442e-13 -1.44705e-13 1.5113e-13 0 0 -1.88302e-13 1.01245e-13 6.34778e-15 2.22365e-14 0 0 -5.16153e-15 -1.67542e-13 2.64931e-13 -2.02449e-13 0 0 -4.55611e-14 -1.22726e-13 2.36821e-13 -2.50687e-13 0 0 -1.86973e-13 6.61119e-14 5.46602e-14 -1.34406e-13 0 0 -1.51597e-13 5.20822e-14 -1.0188e-14 -6.31075e-15 0 0 -1.53127e-13 9.66581e-14 -1.37313e-13 1.18032e-13 0 0 2.52828e-14 -1.72315e-13 4.12641e-14 2.22903e-14 0 0 -1.27251e-13 4.65598e-14 -1.83791e-13 9.97893e-14 0 0 -3.47217e-13 2.68484e-13 -3.02047e-13 5.30444e-14 0 0 -1.55497e-13 -1.6777e-13 2.01117e-13 -2.97184e-13 0 0 -1.70131e-13 -1.98817e-13 3.0533e-13 -4.18493e-13 0 0 -1.69734e-13 -1.79509e-13 3.23026e-13 -4.45893e-13 0 0 -1.07943e-13 -1.65695e-13 2.09067e-13 -3.17452e-13 0 0 -2.86761e-13 2.37407e-13 -2.75141e-13 -2.22378e-15 0 0 -4.20653e-13 4.37934e-13 -4.10983e-13 -2.21069e-15 0 0 -4.54676e-13 4.67359e-13 -3.76841e-13 -1.48408e-13 0 0 1.15824e-13 -4.06813e-13 4.76143e-13 -6.98951e-13 0 0 -1.54375e-15 -2.01977e-13 3.01654e-13 -6.21741e-13 0 0 -4.53961e-13 5.19548e-13 -3.65437e-13 -2.65355e-13 0 0 -2.1755e-13 9.71536e-14 6.28913e-14 -4.80106e-13 0 0 -3.44244e-13 2.23737e-13 -9.68363e-14 -2.83739e-13 0 0 -1.99124e-13 -1.31066e-13 2.13286e-13 -3.63795e-13 0 0 -3.275e-13 -3.45429e-14 1.2093e-13 -2.61203e-13 0 0 -5.74961e-13 4.12023e-13 -3.74785e-13 4.77332e-15 0 0 -1.9366e-13 -1.04147e-14 -9.52411e-14 -2.06846e-13 0 0 3.90456e-14 -2.23804e-13 2.62114e-14 -3.24103e-13 0 0 -5.56784e-14 -7.12314e-14 -1.60683e-13 -1.90803e-13 0 0 -3.15077e-13 3.29336e-13 -6.19487e-13 1.82789e-13 0 0 -2.2089e-13 1.9277e-13 -5.16606e-13 1.80123e-13 0 0 -1.12496e-14 -1.45846e-13 -1.04378e-13 -1.19693e-13 0 0 2.68107e-14 -1.71664e-13 -5.48997e-14 -1.5415e-13 0 0 -3.8376e-14 -1.24726e-13 -7.82628e-14 -7.06769e-14 0 0 -4.85248e-13 4.01737e-13 -3.44558e-13 8.78101e-14 0 0 -4.70771e-13 3.35827e-13 -1.67027e-13 3.16632e-14 0 0 6.61768e-14 -4.23831e-13 5.46667e-13 -3.47974e-13 0 0 -1.78693e-13 -1.44726e-14 2.12229e-13 -1.75834e-13 0 0 -4.47403e-13 3.58637e-13 -9.5477e-14 -4.55455e-14 0 0 -5.69854e-13 5.57012e-13 -2.67298e-13 -7.96467e-14 0 0 -2.03016e-13 1.48983e-13 3.98433e-14 -3.48992e-13 0 0 9.59998e-14 -2.63047e-13 4.2836e-13 -6.06878e-13 0 0 -4.75375e-13 4.9364e-13 -2.25134e-13 -1.46621e-13 0 0 -4.62521e-13 3.49902e-13 -1.87972e-13 5.34957e-14 0 0 -3.68796e-13 2.13293e-13 -3.04782e-13 3.29818e-13 0 0 -1.7954e-14 -2.35017e-13 -3.97441e-15 1.5189e-13 0 0 -2.46479e-13 1.18868e-14 -6.51195e-14 -1.79984e-15 0 0 -5.88156e-13 4.45206e-13 -3.9067e-13 5.76256e-14 0 0 2.94438e-13 -8.33741e-13 6.2833e-13 -4.94004e-13 0 0 -1.60476e-13 -2.13567e-13 3.92647e-14 -1.69537e-13 0 0 -1.08119e-12 1.0475e-12 -1.14159e-12 5.07387e-13 0 0 4.92084e-14 -4.23299e-13 -1.20484e-13 5.29909e-14 0 0 6.96275e-13 -1.19315e-12 4.77554e-13 -2.55338e-13 0 0 -1.76506e-13 -4.1883e-14 -3.46382e-13 1.02015e-13 0 0 -4.85128e-13 2.25467e-13 -4.07639e-13 1.22807e-13 0 0 -7.9493e-13 3.58739e-13 -6.97801e-13 4.92518e-13 0 0 -1.60798e-13 -7.53102e-13 3.47352e-14 2.15006e-13 0 0 4.35281e-13 -1.4734e-12 6.76422e-13 -5.07813e-14 0 0 -4.53156e-13 -8.08859e-14 -3.64569e-13 3.34842e-13 0 0 -7.36902e-13 6.1993e-13 -4.05723e-13 -2.88272e-14 0 0 -8.14232e-13 8.20543e-13 -3.72044e-13 -1.48833e-13 0 0 2.64695e-13 -6.69151e-13 4.19821e-13 -4.7723e-13 0 0 9.94774e-13 -1.51551e-12 1.06254e-12 -6.38105e-13 0 0 -2.33297e-13 -6.2697e-14 4.58306e-13 -6.30854e-13 0 0 -1.22483e-12 1.03571e-12 -6.45279e-14 -6.68445e-13 0 0 -8.0265e-13 5.53953e-13 -3.38246e-16 -5.74425e-13 0 0 1.90985e-13 -2.1758e-13 -1.12952e-13 -2.99132e-13 0 0 3.23055e-13 -5.90288e-14 -5.1195e-13 1.00047e-14 0 0 2.59762e-14 4.91423e-13 -1.01502e-12 1.685e-13 0 0 -2.55239e-13 5.77897e-13 -9.87132e-13 9.8191e-14 0 0 -2.48137e-13 3.53943e-13 -8.09332e-13 2.13509e-14 0 0 -2.06655e-13 -5.77997e-14 -5.65936e-13 -5.15049e-14 0 0 -1.87882e-13 -4.72582e-13 -3.28928e-13 -1.77509e-13 0 0 -2.08983e-13 -5.66912e-13 -3.44292e-13 -1.52877e-13 0 0 -3.11439e-13 -4.36265e-13 -5.29319e-13 -3.23654e-14 0 0 -4.1637e-13 -3.58283e-13 -5.20008e-13 -4.85566e-14 0 0 -2.8115e-13 -6.05441e-13 4.14036e-15 -3.81665e-13 0 0 -2.17007e-13 -5.45177e-13 -1.89611e-14 -2.75104e-13 0 0 -4.17036e-13 1.97376e-14 -6.11649e-13 2.21288e-13 0 0 -5.21568e-13 2.26287e-13 -7.03215e-13 3.00672e-13 0 0 -1.4818e-13 -3.47494e-13 -6.55686e-14 -1.0593e-13 0 0 1.61339e-13 -8.01653e-13 4.17204e-13 -4.7288e-13 0 0 -1.58693e-13 -3.24376e-13 -3.89186e-14 -1.82911e-13 0 0 -5.76839e-13 3.37777e-13 -7.5522e-13 3.27303e-13 0 0 -2.92208e-13 -9.3839e-14 -3.03962e-13 -4.65601e-14 0 0 -1.94866e-13 -1.48747e-13 -1.79821e-13 -3.06837e-13 0 0 -8.232e-14 -1.9396e-13 -1.19307e-13 -3.78979e-13 0 0 -6.96421e-14 -2.08256e-13 -1.03585e-13 -2.98553e-13 0 0 -6.31414e-13 6.13619e-13 -9.73072e-13 4.28741e-13 0 0 -2.01233e-13 -1.87924e-13 -1.59373e-13 2.73517e-14 0 0 -1.7588e-13 -2.72723e-13 2.27786e-14 -2.24182e-13 0 0 -4.43629e-14 -3.18705e-13 -7.15518e-14 -2.41876e-13 0 0 -6.00433e-14 -2.98777e-13 -1.8145e-13 -1.54714e-13 0 0 -7.90223e-13 6.83235e-13 -9.99102e-13 3.4963e-13 0 0 -3.08958e-13 -1.10842e-13 -1.48281e-13 -1.42587e-13 0 0 -2.70743e-13 -2.27545e-13 2.80292e-15 -3.10673e-13 0 0 -1.5846e-13 -3.48591e-13 3.20026e-14 -4.29836e-13 0 0 -1.48733e-13 -3.41302e-13 -1.29845e-13 -2.31064e-13 0 0 -8.82919e-13 7.08071e-13 -1.21205e-12 6.10087e-13 0 0 -2.77671e-13 -2.77234e-13 -2.28758e-13 5.44623e-14 0 0 -3.04195e-13 -1.89018e-13 -1.70671e-13 -1.51348e-13 0 0 -2.33666e-13 -1.14902e-13 -2.56404e-13 -3.74022e-13 0 0 -1.4597e-13 -3.79218e-13 -1.36452e-13 -5.17083e-13 0 0 -9.06905e-13 4.87504e-13 -1.02242e-12 1.82978e-13 0 0 -2.77618e-13 -4.41765e-13 -2.78684e-13 -1.37607e-14 0 0 -2.11738e-13 -4.47757e-13 -2.22259e-13 -8.88373e-14 0 0 -4.77591e-13 -8.23187e-14 -3.95604e-13 -2.51163e-13 0 0 1.60818e-13 -1.17552e-12 6.35133e-13 -9.30352e-13 0 0 -9.14667e-13 2.83165e-13 -5.91938e-13 -1.44015e-13 0 0 -1.21335e-12 7.68632e-13 -9.14652e-13 1.08114e-13 0 0 1.96746e-13 -9.37202e-13 6.62733e-13 -8.20145e-13 0 0 -2.30125e-13 -9.55601e-14 6.60928e-14 -5.0709e-13 0 0 -2.11314e-13 -2.75599e-13 1.72131e-13 -2.94584e-13 0 0 -6.07902e-13 1.41688e-13 -4.41711e-13 4.58338e-13 0 0 -1.03219e-12 5.73792e-13 -7.643e-13 6.81014e-13 0 0 2.86624e-14 -9.69897e-13 8.16031e-13 -4.72732e-13 0 0 -3.96379e-13 -2.10544e-13 2.47971e-13 -3.48601e-13 0 0 -2.75771e-13 -4.28463e-13 2.50858e-13 -4.65198e-15 0 0 -6.33543e-13 -4.67687e-14 -3.55277e-13 7.45351e-13 0 0 -8.86439e-13 1.88018e-13 -4.97124e-13 6.78608e-13 0 0 -5.19288e-13 -2.87534e-13 1.76637e-14 -8.46917e-14 0 0 -1.82152e-13 -4.73983e-13 -1.68647e-13 -3.25678e-13 0 0 -2.76154e-14 -5.59481e-13 -5.02559e-13 -1.79278e-13 0 0 -8.7569e-13 4.56626e-13 -1.25526e-12 1.33774e-13 0 0 -6.87034e-13 -2.36697e-13 -2.55969e-13 -5.57796e-13 0 0 -2.98042e-13 -9.57812e-13 5.28162e-13 -1.17338e-12 0 0 7.40578e-14 -1.15804e-12 4.6918e-13 -1.32275e-12 0 0 -4.15484e-13 -1.11934e-14 -1.14981e-12 -8.85461e-14 0 0 -9.73844e-13 9.75233e-13 -2.24308e-12 7.21718e-13 0 0 -2.6828e-13 -4.09109e-13 -4.89626e-13 -5.7086e-13 0 0 2.88962e-14 -1.18987e-12 5.39257e-13 -1.3548e-12 0 0 -2.33265e-13 -7.03203e-13 -4.16735e-14 -1.1621e-12 0 0 -6.97156e-13 3.15814e-14 -9.59983e-13 -4.50133e-13 0 0 -8.80702e-13 3.16984e-13 -1.75099e-12 6.70663e-13 0 0 2.18464e-14 -9.42046e-13 -9.45537e-13 5.85029e-13 0 0 -2.58519e-13 -5.11065e-13 -1.03745e-12 2.54038e-13 0 0 -6.25004e-13 1.093e-14 -1.08481e-12 -3.34684e-13 0 0 4.10358e-14 -1.15012e-12 3.1967e-13 -1.45436e-12 0 0 -7.01691e-13 -2.16442e-13 -3.91282e-13 -1.10831e-12 0 0 -6.01319e-13 -2.21008e-13 -6.46331e-13 -8.44082e-13 0 0 -5.22648e-13 -1.05306e-13 -1.09026e-12 -4.41939e-13 0 0 -5.24004e-13 -1.047e-14 -1.08823e-12 -5.85504e-13 0 0 5.68275e-14 -1.20085e-12 5.35906e-13 -1.48812e-12 0 0 -7.44896e-13 -3.56264e-13 -3.18552e-14 -7.56658e-13 0 0 -4.8524e-13 -4.20365e-13 -5.27915e-13 -1.99975e-13 0 0 -3.61731e-13 -1.59677e-13 -1.30527e-12 2.11993e-13 0 0 -6.07221e-13 2.23322e-13 -1.54186e-12 1.34851e-13 0 0 2.31605e-14 -1.0953e-12 1.3326e-13 -7.81017e-13 0 0 -6.69233e-13 -4.02913e-13 -9.83525e-14 -5.16503e-13 0 0 -5.37692e-13 -3.56839e-13 -4.21457e-13 -3.94103e-13 0 0 -3.66069e-13 -3.19371e-13 -8.07945e-13 -4.549e-13 0 0 -5.85345e-13 -1.38887e-13 -8.21507e-13 -7.71991e-13 0 0 5.79014e-14 -1.43222e-12 6.33948e-13 -1.65001e-12 0 0 -6.50665e-13 -3.74413e-13 -2.40848e-13 -9.93611e-13 0 0 -6.0396e-13 -5.75153e-14 -7.98242e-13 -5.31894e-13 0 0 -1.04844e-12 4.55117e-13 -1.09886e-12 -3.98544e-13 0 0 -1.27703e-12 3.2287e-13 -7.59305e-13 -5.37284e-13 0 0 2.87344e-13 -2.22993e-12 1.47159e-12 -1.58319e-12 0 0 -1.20877e-12 1.70662e-13 -7.41971e-13 -3.35797e-13 0 0 -2.00176e-12 1.73449e-12 -2.08034e-12 8.92124e-14 0 0 -3.38456e-13 -5.02932e-13 1.20468e-13 -1.44396e-12 0 0 -1.71641e-14 -9.51299e-13 6.79613e-13 -1.90982e-12 0 0 2.93559e-13 -1.49118e-12 8.86064e-13 -1.81735e-12 0 0 -1.12445e-12 7.48749e-13 -1.71629e-12 1.38995e-13 0 0 -1.35157e-12 1.13118e-12 -2.01579e-12 3.36616e-13 0 0 3.01429e-14 -1.25442e-12 8.70207e-13 -1.55469e-12 0 0 -1.71074e-13 -1.20645e-12 1.32634e-12 -1.91287e-12 0
				</DataArray>
				<DataArray Name="VitesseY" type="Float32" format="ascii">