<?xml version="1.0"?>
<VTKFile type="PolyData">
	<PolyData>
		<Piece NumberOfPoints="1206" NumberOfPolys="1000">
			<Points>
				<DataArray type="Float32" NumberOfComponents="3" format="ascii">
 0 0 0 0.02 0 0 0.04 0 0 0.06 0 0 0.08 0 0 0.1 0 0 0 0.005 0 0.02 0.005 0 0.04 0.005 0 0.06 0.005 0 0.08 0.005 0 0.1 0.005 0 0 0.01 0 0.02 0.01 0 0.04 0.01 0 0.06 0.01 0 0.08 0.01 0 0.1 0.01 0 0 0.015 0 0.02 0.015 0 0.04 0.015 0 0.06 0.015 0 0.08 0.015 0 0.1 0.015 0 0 0.02 0 0.02 0.02 0 0.04 0.02 0 0.06 0.02 0 0.08 0.02 0 0.1 0.02 0 0 0.025 0 0.02 0.025 0 0.04 0.025 0 0.06 0.025 0 0.08 0.025 0 0.1 0.025 0 0 0.03 0 0.02 0.03 0 0.04 0.03 0 0.06 0.03 0 0.08 0.03 0 0.1 0.03 0 0 0.035 0 0.02 0.035 0 0.04 0.035 0 0.06 0.035 0 0.08 0.035 0 0.1 0.035 0 0 0.04 0 0.02 0.04 0 0.04 0.04 0 0.06 0.04 0 0.08 0.04 0 0.1 0.04 0 0 0.045 0 0.02 0.045 0 0.04 0.045 0 0.06 0.045 0 0.08 0.045 0 0.1 0.045 0 0 0.05 0 0.02 0.05 0 0.04 0.05 0 0.06 0.05 0 0.08 0.05 0 0.1 0.05 0 0 0.055 0 0.02 0.055 0 0.04 0.055 0 0.06 0.055 0 0.08 0.055 0 0.1 0.055 0 0 0.06 0 0.02 0.06 0 0.04 0.06 0 0.06 0.06 0 0.08 0.06 0 0.1 0.06 0 0 0.065 0 0.02 0.065 0 0.04 0.065 0 0.06 0.065 0 0.08 0.065 0 0.1 0.065 0 0 0.07 0 0.02 0.07 0 0.04 0.07 0 0.06 0.07 0 0.08 0.07 0 0.1 0.07 0 0 0.075 0 0.02 0.075 0 0.04 0.075 0 0.06 0.075 0 0.08 0.075 0 0.1 0.075 0 0 0.08 0 0.02 0.08 0 0.04 0.08 0 0.06 0.08 0 0.08 0.08 0 0.1 0.08 0 0 0.085 0 0.02 0.085 0 0.04 0.085 0 0.06 0.085 0 0.08 0.085 0 0.1 0.085 0 0 0.09 0 0.02 0.09 0 0.04 0.09 0 0.06 0.09 0 0.08 0.09 0 0.1 0.09 0 0 0.095 0 0.02 0.095 0 0.04 0.095 0 0.06 0.095 0 0.08 0.095 0 0.1 0.095 0 0 0.1 0 0.02 0.1 0 0.04 0.1 0 0.06 0.1 0 0.08 0.1 0 0.1 0.1 0 0 0.105 0 0.02 0.105 0 0.04 0.105 0 0.06 0.105 0 0.08 0.105 0 0.1 0.105 0 0 0.11 0 0.02 0.11 0 0.04 0.11 0 0.06 0.11 0 0.08 0.11 0 0.1 0.11 0 0 0.115 0 0.02 0.115 0 0.04 0.115 0 0.06 0.115 0 0.08 0.115 0 0.1 0.115 0 0 0.12 0 0.02 0.12 0 0.04 0.12 0 0.06 0.12 0 0.08 0.12 0 0.1 0.12 0 0 0.125 0 0.02 0.125 0 0.04 0.125 0 0.06 0.125 0 0.08 0.125 0 0.1 0.125 0 0 0.13 0 0.02 0.13 0 0.04 0.13 0 0.06 0.13 0 0.08 0.13 0 0.1 0.13 0 0 0.135 0 0.02 0.135 0 0.04 0.135 0 0.06 0.135 0 0.08 0.135 0 0.1 0.135 0 0 0.14 0 0.02 0.14 0 0.04 0.14 0 0.06 0.14 0 0.08 0.14 0 0.1 0.14 0 0 0.145 0 0.02 0.145 0 0.04 0.145 0 0.06 0.145 0 0.08 0.145 0 0.1 0.145 0 0 0.15 0 0.02 0.15 0 0.04 0.15 0 0.06 0.15 0 0.08 0.15 0 0.1 0.15 0 0 0.155 0 0.02 0.155 0 0.04 0.155 0 0.06 0.155 0 0.08 0.155 0 0.1 0.155 0 0 0.16 0 0.02 0.16 0 0.04 0.16 0 0.06 0.16 0 0.08 0.16 0 0.1 0.16 0 0 0.165 0 0.02 0.165 0 0.04 0.165 0 0.06 0.165 0 0.08 0.165 0 0.1 0.165 0 0 0.17 0 0.02 0.17 0 0.04 0.17 0 0.06 0.17 0 0.08 0.17 0 0.1 0.17 0 0 0.175 0 0.02 0.175 0 0.04 0.175 0 0.06 0.175 0 0.08 0.175 0 0.1 0.175 0 0 0.18 0 0.02 0.18 0 0.04 0.18 0 0.06 0.18 0 0.08 0.18 0 0.1 0.18 0 0 0.185 0 0.02 0.185 0 0.04 0.185 0 0.06 0.185 0 0.08 0.185 0 0.1 0.185 0 0 0.19 0 0.02 0.19 0 0.04 0.19 0 0.06 0.19 0 0.08 0.19 0 0.1 0.19 0 0 0.195 0 0.02 0.195 0 0.04 0.195 0 0.06 0.195 0 0.08 0.195 0 0.1 0.195 0 0 0.2 0 0.02 0.2 0 0.04 0.2 0 0.06 0.2 0 0.08 0.2 0 0.1 0.2 0 0 0.205 0 0.02 0.205 0 0.04 0.205 0 0.06 0.205 0 0.08 0.205 0 0.1 0.205 0 0 0.21 0 0.02 0.21 0 0.04 0.21 0 0.06 0.21 0 0.08 0.21 0 0.1 0.21 0 0 0.215 0 0.02 0.215 0 0.04 0.215 0 0.06 0.215 0 0.08 0.215 0 0.1 0.215 0 0 0.22 0 0.02 0.22 0 0.04 0.22 0 0.06 0.22 0 0.08 0.22 0 0.1 0.22 0 0 0.225 0 0.02 0.225 0 0.04 0.225 0 0.06 0.225 0 0.08 0.225 0 0.1 0.225 0 0 0.23 0 0.02 0.23 0 0.04 0.23 0 0.06 0.23 0 0.08 0.23 0 0.1 0.23 0 0 0.235 0 0.02 0.235 0 0.04 0.235 0 0.06 0.235 0 0.08 0.235 0 0.1 0.235 0 0 0.24 0 0.02 0.24 0 0.04 0.24 0 0.06 0.24 0 0.08 0.24 0 0.1 0.24 0 0 0.245 0 0.02 0.245 0 0.04 0.245 0 0.06 0.245 0 0.08 0.245 0 0.1 0.245 0 0 0.25 0 0.02 0.25 0 0.04 0.25 0 0.06 0.25 0 0.08 0.25 0 0.1 0.25 0 0 0.255 0 0.02 0.255 0 0.04 0.255 0 0.06 0.255 0 0.08 0.255 0 0.1 0.255 0 0 0.26 0 0.02 0.26 0 0.04 0.26 0 0.06 0.26 0 0.08 0.26 0 0.1 0.26 0 0 0.265 0 0.02 0.265 0 0.04 0.265 0 0.06 0.265 0 0.08 0.265 0 0.1 0.265 0 0 0.27 0 0.02 0.27 0 0.04 0.27 0 0.06 0.27 0 0.08 0.27 0 0.1 0.27 0 0 0.275 0 0.02 0.275 0 0.04 0.275 0 0.06 0.275 0 0.08 0.275 0 0.1 0.275 0 0 0.28 0 0.02 0.28 0 0.04 0.28 0 0.06 0.28 0 0.08 0.28 0 0.1 0.28 0 0 0.285 0 0.02 0.285 0 0.04 0.285 0 0.06 0.285 0 0.08 0.285 0 0.1 0.285 0 0 0.29 0 0.02 0.29 0 0.04 0.29 0 0.06 0.29 0 0.08 0.29 0 0.1 0.29 0 0 0.295 0 0.02 0.295 0 0.04 0.295 0 0.06 0.295 0 0.08 0.295 0 0.1 0.295 0 0 0.3 0 0.02 0.3 0 0.04 0.3 0 0.06 0.3 0 0.08 0.3 0 0.1 0.3 0 0 0.305 0 0.02 0.305 0 0.04 0.305 0 0.06 0.305 0 0.08 0.305 0 0.1 0.305 0 0 0.31 0 0.02 0.31 0 0.04 0.31 0 0.06 0.31 0 0.08 0.31 0 0.1 0.31 0 0 0.315 0 0.02 0.315 0 0.04 0.315 0 0.06 0.315 0 0.08 0.315 0 0.1 0.315 0 0 0.32 0 0.02 0.32 0 0.04 0.32 0 0.06 0.32 0 0.08 0.32 0 0.1 0.32 0 0 0.325 0 0.02 0.325 0 0.04 0.325 0 0.06 0.325 0 0.08 0.325 0 0.1 0.325 0 0 0.33 0 0.02 0.33 0 0.04 0.33 0 0.06 0.33 0 0.08 0.33 0 0.1 0.33 0 0 0.335 0 0.02 0.335 0 0.04 0.335 0 0.06 0.335 0 0.08 0.335 0 0.1 0.335 0 0 0.34 0 0.02 0.34 0 0.04 0.34 0 0.06 0.34 0 0.08 0.34 0 0.1 0.34 0 0 0.345 0 0.02 0.345 0 0.04 0.345 0 0.06 0.345 0 0.08 0.345 0 0.1 0.345 0 0 0.35 0 0.02 0.35 0 0.04 0.35 0 0.06 0.35 0 0.08 0.35 0 0.1 0.35 0 0 0.355 0 0.02 0.355 0 0.04 0.355 0 0.06 0.355 0 0.08 0.355 0 0.1 0.355 0 0 0.36 0 0.02 0.36 0 0.04 0.36 0 0.06 0.36 0 0.08 0.36 0 0.1 0.36 0 0 0.365 0 0.02 0.365 0 0.04 0.365 0 0.06 0.365 0 0.08 0.365 0 0.1 0.365 0 0 0.37 0 0.02 0.37 0 0.04 0.37 0 0.06 0.37 0 0.08 0.37 0 0.1 0.37 0 0 0.375 0 0.02 0.375 0 0.04 0.375 0 0.06 0.375 0 0.08 0.375 0 0.1 0.375 0 0 0.38 0 0.02 0.38 0 0.04 0.38 0 0.06 0.38 0 0.08 0.38 0 0.1 0.38 0 0 0.385 0 0.02 0.385 0 0.04 0.385 0 0.06 0.385 0 0.08 0.385 0 0.1 0.385 0 0 0.39 0 0.02 0.39 0 0.04 0.39 0 0.06 0.39 0 0.08 0.39 0 0.1 0.39 0 0 0.395 0 0.02 0.395 0 0.04 0.395 0 0.06 0.395 0 0.08 0.395 0 0.1 0.395 0 0 0.4 0 0.02 0.4 0 0.04 0.4 0 0.06 0.4 0 0.08 0.4 0 0.1 0.4 0 0 0.405 0 0.02 0.405 0 0.04 0.405 0 0.06 0.405 0 0.08 0.405 0 0.1 0.405 0 0 0.41 0 0.02 0.41 0 0.04 0.41 0 0.06 0.41 0 0.08 0.41 0 0.1 0.41 0 0 0.415 0 0.02 0.415 0 0.04 0.415 0 0.06 0.415 0 0.08 0.415 0 0.1 0.415 0 0 0.42 0 0.02 0.42 0 0.04 0.42 0 0.06 0.42 0 0.08 0.42 0 0.1 0.42 0 0 0.425 0 0.02 0.425 0 0.04 0.425 0 0.06 0.425 0 0.08 0.425 0 0.1 0.425 0 0 0.43 0 0.02 0.43 0 0.04 0.43 0 0.06 0.43 0 0.08 0.43 0 0.1 0.43 0 0 0.435 0 0.02 0.435 0 0.04 0.435 0 0.06 0.435 0 0.08 0.435 0 0.1 0.435 0 0 0.44 0 0.02 0.44 0 0.04 0.44 0 0.06 0.44 0 0.08 0.44 0 0.1 0.44 0 0 0.445 0 0.02 0.445 0 0.04 0.445 0 0.06 0.445 0 0.08 0.445 0 0.1 0.445 0 0 0.45 0 0.02 0.45 0 0.04 0.45 0 0.06 0.45 0 0.08 0.45 0 0.1 0.45 0 0 0.455 0 0.02 0.455 0 0.04 0.455 0 0.06 0.455 0 0.08 0.455 0 0.1 0.455 0 0 0.46 0 0.02 0.46 0 0.04 0.46 0 0.06 0.46 0 0.08 0.46 0 0.1 0.46 0 0 0.465 0 0.02 0.465 0 0.04 0.465 0 0.06 0.465 0 0.08 0.465 0 0.1 0.465 0 0 0.47 0 0.02 0.47 0 0.04 0.47 0 0.06 0.47 0 0.08 0.47 0 0.1 0.47 0 0 0.475 0 0.02 0.475 0 0.04 0.475 0 0.06 0.475 0 0.08 0.475 0 0.1 0.475 0 0 0.48 0 0.02 0.48 0 0.04 0.48 0 0.06 0.48 0 0.08 0.48 0 0.1 0.48 0 0 0.485 0 0.02 0.485 0 0.04 0.485 0 0.06 0.485 0 0.08 0.485 0 0.1 0.485 0 0 0.49 0 0.02 0.49 0 0.04 0.49 0 0.06 0.49 0 0.08 0.49 0 0.1 0.49 0 0 0.495 0 0.02 0.495 0 0.04 0.495 0 0.06 0.495 0 0.08 0.495 0 0.1 0.495 0 0 0.5 0 0.02 0.5 0 0.04 0.5 0 0.06 0.5 0 0.08 0.5 0 0.1 0.5 0 0 0.505 0 0.02 0.505 0 0.04 0.505 0 0.06 0.505 0 0.08 0.505 0 0.1 0.505 0 0 0.51 0 0.02 0.51 0 0.04 0.51 0 0.06 0.51 0 0.08 0.51 0 0.1 0.51 0 0 0.515 0 0.02 0.515 0 0.04 0.515 0 0.06 0.515 0 0.08 0.515 0 0.1 0.515 0 0 0.52 0 0.02 0.52 0 0.04 0.52 0 0.06 0.52 0 0.08 0.52 0 0.1 0.52 0 0 0.525 0 0.02 0.525 0 0.04 0.525 0 0.06 0.525 0 0.08 0.525 0 0.1 0.525 0 0 0.53 0 0.02 0.53 0 0.04 0.53 0 0.06 0.53 0 0.08 0.53 0 0.1 0.53 0 0 0.535 0 0.02 0.535 0 0.04 0.535 0 0.06 0.535 0 0.08 0.535 0 0.1 0.535 0 0 0.54 0 0.02 0.54 0 0.04 0.54 0 0.06 0.54 0 0.08 0.54 0 0.1 0.54 0 0 0.545 0 0.02 0.545 0 0.04 0.545 0 0.06 0.545 0 0.08 0.545 0 0.1 0.545 0 0 0.55 0 0.02 0.55 0 0.04 0.55 0 0.06 0.55 0 0.08 0.55 0 0.1 0.55 0 0 0.555 0 0.02 0.555 0 0.04 0.555 0 0.06 0.555 0 0.08 0.555 0 0.1 0.555 0 0 0.56 0 0.02 0.56 0 0.04 0.56 0 0.06 0.56 0 0.08 0.56 0 0.1 0.56 0 0 0.565 0 0.02 0.565 0 0.04 0.565 0 0.06 0.565 0 0.08 0.565 0 0.1 0.565 0 0 0.57 0 0.02 0.57 0 0.04 0.57 0 0.06 0.57 0 0.08 0.57 0 0.1 0.57 0 0 0.575 0 0.02 0.575 0 0.04 0.575 0 0.06 0.575 0 0.08 0.575 0 0.1 0.575 0 0 0.58 0 0.02 0.58 0 0.04 0.58 0 0.06 0.58 0 0.08 0.58 0 0.1 0.58 0 0 0.585 0 0.02 0.585 0 0.04 0.585 0 0.06 0.585 0 0.08 0.585 0 0.1 0.585 0 0 0.59 0 0.02 0.59 0 0.04 0.59 0 0.06 0.59 0 0.08 0.59 0 0.1 0.59 0 0 0.595 0 0.02 0.595 0 0.04 0.595 0 0.06 0.595 0 0.08 0.595 0 0.1 0.595 0 0 0.6 0 0.02 0.6 0 0.04 0.6 0 0.06 0.6 0 0.08 0.6 0 0.1 0.6 0 0 0.605 0 0.02 0.605 0 0.04 0.605 0 0.06 0.605 0 0.08 0.605 0 0.1 0.605 0 0 0.61 0 0.02 0.61 0 0.04 0.61 0 0.06 0.61 0 0.08 0.61 0 0.1 0.61 0 0 0.615 0 0.02 0.615 0 0.04 0.615 0 0.06 0.615 0 0.08 0.615 0 0.1 0.615 0 0 0.62 0 0.02 0.62 0 0.04 0.62 0 0.06 0.62 0 0.08 0.62 0 0.1 0.62 0 0 0.625 0 0.02 0.625 0 0.04 0.625 0 0.06 0.625 0 0.08 0.625 0 0.1 0.625 0 0 0.63 0 0.02 0.63 0 0.04 0.63 0 0.06 0.63 0 0.08 0.63 0 0.1 0.63 0 0 0.635 0 0.02 0.635 0 0.04 0.635 0 0.06 0.635 0 0.08 0.635 0 0.1 0.635 0 0 0.64 0 0.02 0.64 0 0.04 0.64 0 0.06 0.64 0 0.08 0.64 0 0.1 0.64 0 0 0.645 0 0.02 0.645 0 0.04 0.645 0 0.06 0.645 0 0.08 0.645 0 0.1 0.645 0 0 0.65 0 0.02 0.65 0 0.04 0.65 0 0.06 0.65 0 0.08 0.65 0 0.1 0.65 0 0 0.655 0 0.02 0.655 0 0.04 0.655 0 0.06 0.655 0 0.08 0.655 0 0.1 0.655 0 0 0.66 0 0.02 0.66 0 0.04 0.66 0 0.06 0.66 0 0.08 0.66 0 0.1 0.66 0 0 0.665 0 0.02 0.665 0 0.04 0.665 0 0.06 0.665 0 0.08 0.665 0 0.1 0.665 0 0 0.67 0 0.02 0.67 0 0.04 0.67 0 0.06 0.67 0 0.08 0.67 0 0.1 0.67 0 0 0.675 0 0.02 0.675 0 0.04 0.675 0 0.06 0.675 0 0.08 0.675 0 0.1 0.675 0 0 0.68 0 0.02 0.68 0 0.04 0.68 0 0.06 0.68 0 0.08 0.68 0 0.1 0.68 0 0 0.685 0 0.02 0.685 0 0.04 0.685 0 0.06 0.685 0 0.08 0.685 0 0.1 0.685 0 0 0.69 0 0.02 0.69 0 0.04 0.69 0 0.06 0.69 0 0.08 0.69 0 0.1 
[...]
			<PointData Scalars="VitesseX">
				<DataArray Name="VitesseX" type="Float32" format="ascii">
 0 -1.05044e-14 -1.09418e-14 -2.82799e-14 2.37337e-14 0 0 -1.80795e-14 -3.45297e-15 -2.36536e-14 1.59258e-14 0 0 -8.89045e-15 -2.23224e-14 7.08796e-15 -5.89618e-15 0 0 -2.60483e-14 -5.36063e-15 -5.63733e-15 8.6343e-15 0 0 -5.31466e-14 1.6919e-14 -9.74887e-15 1.03953e-14 0 0 -3.29905e-14 -1.83704e-14 2.65695e-14 -1.86347e-14 0 0 4.15326e-15 -5.18433e-14 1.39891e-14 -1.52114e-15 0 0 2.75673e-15 -3.79224e-14 -4.11281e-14 3.88486e-14 0 0 -1.88446e-14 -3.37629e-14 -3.8925e-14 2.49901e-14 0 0 -4.36959e-14 -2.76496e-14 -3.54055e-14 2.68824e-14 0 0 -8.65715e-14 3.89056e-14 -9.01785e-14 6.34243e-14 0 0 -4.29886e-14 -3.62739e-14 1.50411e-14 -7.91106e-15 0 0 -7.35599e-14 -1.25742e-14 3.20414e-14 -4.14442e-14 0 0 -6.38436e-14 -1.75989e-16 1.32258e-14 -5.81961e-14 0 0 -2.96192e-14 -8.78878e-16 -3.16174e-14 -1.74209e-14 0 0 -8.28493e-14 8.19283e-14 -1.17221e-13 5.52069e-14 0 0 -1.92101e-14 -4.22923e-14 -9.96451e-15 1.68608e-14 0 0 -7.59608e-14 3.31143e-14 -9.9059e-14 8.02095e-14 0 0 -1.31417e-13 1.18901e-13 -1.67711e-13 8.31876e-14 0 0 -5.74428e-14 1.35635e-14 -9.42213e-14 4.38058e-14 0 0 -2.3403e-14 -3.39458e-14 -1.34917e-13 1.182e-13 0 0 -3.55244e-14 -3.77771e-14 -1.61042e-13 1.47631e-13 0 0 -9.15475e-14 -3.77105e-14 -4.4803e-14 2.87615e-14 0 0 -9.22006e-14 -5.76978e-14 6.91849e-14 -1.16741e-13 0 0 -3.60895e-14 -2.12283e-14 -4.14762e-14 -6.84258e-14 0 0 -1.04103e-14 3.6616e-15 -1.19557e-13 -2.71664e-14 0 0 -3.44069e-14 -2.79125e-14 -3.29463e-14 -1.57881e-13 0 0 -1.22089e-13 1.92725e-14 -5.94082e-14 -1.98743e-13 0 0 -1.04012e-13 -2.17851e-14 -1.03116e-13 -1.36917e-13 0 0 -7.52434e-14 -3.55845e-14 -1.31551e-13 -1.05598e-13 0 0 -3.37351e-14 -8.90209e-14 -1.79536e-14 -1.89651e-13 0 0 -2.5872e-14 -9.23488e-14 4.79547e-15 -1.35881e-13 0 0 -1.1332e-13 -3.56692e-15 -4.0893e-14 -4.29968e-14 0 0 -1.13377e-13 -8.696e-14 9.51881e-14 -9.03616e-14 0 0 -1.09656e-13 -4.39814e-14 -3.02663e-14 6.91648e-14 0 0 -3.68052e-14 -7.54609e-14 -4.65856e-14 1.34618e-13 0 0 -1.15694e-13 1.83213e-14 -2.39452e-14 1.15117e-13 0 0 -1.64922e-13 5.27933e-14 4.74154e-14 2.43127e-14 0 0 -1.55788e-13 5.69925e-14 3.37046e-14 3.15629e-14 0 0 -9.66138e-14 1.42503e-14 -3.83889e-14 1.20428e-13 0 0 -2.7591e-14 -1.47366e-13 4.6712e-14 4.17408e-14 0 0 -7.00876e-14 -1.73108e-13 6.45612e-14 -2.25864e-14 0 0 -8.56495e-14 -1.51354e-13 3.61302e-14 -6.88202e-14 0 0 -3.90405e-14 -1.2538e-13 -5.47037e-14 -2.79609e-14 0 0 -3.07081e-14 -5.79713e-14 -1.29964e-13 -1.00951e-14 0 0 -3.84178e-14 -1.17433e-13 8.32319e-14 -2.77579e-13 0 0 -2.63071e-13 5.65675e-14 4.68364e-14 -3.37454e-13 0 0 -3.09643e-13 1.54585e-14 6.11751e-14 -2.99848e-13 0 0 -1.55038e-13 -2.0149e-13 1.27659e-13 -2.54189e-13 0 0 -9.95372e-14 -2.05235e-13 -5.60336e-14 -2.73113e-14 0 0 3.43437e-14 -3.42879e-13 9.09346e-15 -2.61545e-14 0 0 -2.49039e-13 9.99974e-15 -1.03564e-13 -1.07455e-13 0 0 -3.15679e-13 -4.49119e-14 2.30723e-13 -5.37394e-13 0 0 -3.71955e-13 8.29049e-14 4.76404e-14 -4.23461e-13 0 0 -2.30862e-13 1.59104e-13 -3.35316e-13 -1.15657e-14 0 0 9.60375e-14 -2.2001e-13 -4.00849e-14 -1.44001e-13 0 0 -2.97492e-13 1.15265e-13 -1.53353e-13 -1.22952e-13 0 0 -2.63315e-13 -2.08953e-13 4.032e-13 -5.78494e-13 0 0 -2.38062e-13 -2.08396e-13 4.035e-13 -6.02064e-13 0 0 -3.23372e-13 1.3348e-13 -1.92499e-13 -8.9736e-14 0 0 -1.10847e-13 -5.46408e-14 -2.15434e-13 4.27447e-14 0 0 -1.83686e-13 1.92639e-15 -2.37212e-13 6.36472e-14 0 0 -1.06394e-13 -1.04264e-13 -9.9182e-14 -4.3979e-14 0 0 -1.13387e-13 2.84234e-14 -2.52116e-13 2.53234e-14 0 0 -1.27133e-13 5.59702e-14 -2.48332e-13 1.60688e-14 0 0 -6.96422e-14 -8.24608e-14 -1.05688e-13 -4.02612e-14 0 0 -1.88625e-13 1.11982e-14 -2.20708e-13 5.62179e-14 0 0 -4.903e-14 -1.66874e-13 -1.28738e-13 -9.21788e-16 0 0 -5.10328e-14 -1.2376e-13 -1.99151e-13 4.28076e-14 0 0 -2.931e-13 1.07229e-13 -1.41309e-13 -9.54894e-14 0 0 -1.63632e-13 -2.63289e-13 5.1421e-13 -5.61914e-13 0 0 -3.09795e-13 -3.4979e-14 2.30397e-13 -1.85173e-13 0 0 -1.63565e-13 1.64506e-14 -7.12892e-14 2.61819e-13 0 0 -9.18739e-14 -9.0936e-15 -1.51028e-13 3.82123e-13 0 0 -3.88944e-13 1.28862e-13 -1.28796e-14 1.66633e-13 0 0 -4.17339e-13 1.78114e-14 2.57636e-13 -1.2666e-13 0 0 -3.75876e-13 1.47877e-13 -2.05682e-13 1.92335e-13 0 0 -6.38496e-14 -2.2463e-13 -1.06518e-13 9.3072e-14 0 0 -3.32024e-13 -7.5e-14 -1.33334e-13 -6.6436e-14 0 0 -4.23649e-13 -2.4387e-13 1.12359e-13 -2.91813e-13 0 0 -3.05916e-13 -2.86558e-13 -4.5453e-14 -1.51381e-13 0 0 -5.3491e-13 1.30167e-13 -4.35419e-13 5.20194e-14 0 0 -2.69509e-13 -3.31476e-13 2.13071e-13 -5.81527e-13 0 0 -2.35291e-13 -2.97301e-14 -3.75871e-13 -3.37309e-13 0 0 -2.41768e-13 2.92167e-13 -9.6397e-13 2.59205e-14 0 0 -1.44348e-13 -2.14918e-13 -1.49664e-13 -4.96413e-13 0 0 -5.1035e-13 -1.78359e-13 7.59631e-14 -5.66604e-13 0 0 -3.7588e-13 -2.08251e-13 -3.07068e-13 -1.22562e-13 0 0 1.65612e-13 -6.65875e-13 -3.80676e-13 1.7726e-13 0 0 -1.09077e-13 -1.70337e-13 -5.61972e-13 -4.1558e-14 0 0 -3.84738e-13 3.16333e-15 -1.71718e-13 -6.06407e-13 0 0 -4.75211e-13 -1.70694e-13 5.74843e-14 -6.83376e-13 0 0 -1.35744e-13 -1.57398e-13 -4.82759e-13 -1.41563e-14 0 0 3.92243e-13 -7.97003e-13 -5.76558e-13 5.48002e-13 0 0 -4.14412e-13 -2.39248e-14 -3.91096e-13 1.29476e-13 0 0 -3.98845e-13 -1.92821e-13 6.94291e-13 -1.00697e-12 0 0 2.27861e-13 -7.06915e-13 5.9532e-13 -8.81038e-13 0 0 -1.00684e-12 1.22847e-12 -6.05497e-13 -3.89507e-13 0 0 -2.96321e-13 3.51678e-13 2.44613e-13 -9.0357e-13 0 0 4.97324e-13 -6.32951e-13 4.50601e-13 -8.61782e-13 0 0 2.65128e-13 -3.45789e-13 -3.78772e-14 -3.00678e-13 0 0 2.10414e-14 -1.67256e-13 -7.47174e-13 3.57545e-13 0 0 -7.04779e-14 -2.33363e-13 -7.68193e-13 3.97692e-13 0 0 -2.05634e-13 -3.16157e-13 -6.74556e-13 3.05544e-13 0 0 -3.68783e-13 -3.46794e-13 -5.11746e-13 4.39193e-14 0 0 -4.10441e-13 -4.16503e-13 -1.99955e-13 -4.16985e-13 0 0 -3.55545e-13 -5.29316e-13 -7.52663e-14 -4.77941e-13 0 0 -2.60699e-13 -3.55204e-13 -4.4832e-13 -1.02272e-13 0 0 -2.95461e-13 -1.16721e-13 -5.75653e-13 -3.34705e-14 0 0 -2.90358e-13 -2.14013e-13 -1.72608e-13 -3.17666e-13 0 0 -3.0381e-13 -1.6581e-13 -4.59205e-14 -4.38182e-13 0 0 -1.4158e-13 -1.54303e-13 -2.16132e-13 -3.49805e-13 0 0 1.51947e-14 -1.78516e-13 -4.79273e-13 -6.06931e-14 0 0 -7.7919e-14 -1.69344e-13 -4.50101e-13 -3.93468e-14 0 0 -2.87312e-13 -2.80325e-13 -2.06149e-14 -3.88242e-13 0 0 -3.44286e-13 -4.0896e-13 1.87443e-13 -5.27113e-13 0 0 -1.03606e-13 -4.72322e-13 -1.3639e-13 -2.5074e-13 0 0 -1.22065e-13 -1.34767e-13 -6.39018e-13 -2.89503e-14 0 0 -2.20303e-13 -1.53666e-13 -2.4172e-13 -4.82522e-13 0 0 -3.75414e-13 -1.82442e-13 -8.66264e-15 -5.60055e-13 0 0 -3.92309e-13 -2.09141e-13 -1.38259e-13 -2.1868e-13 0 0 -1.59367e-13 -3.6716e-13 -2.23885e-13 -1.29998e-13 0 0 -2.67094e-13 -7.83081e-14 -6.28391e-13 5.18615e-14 0 0 -3.55178e-13 -1.88197e-13 -3.13891e-13 -1.82712e-13 0 0 -5.46674e-13 -1.1724e-13 -2.46801e-13 -1.5582e-13 0 0 -6.02281e-13 -1.84498e-13 -1.9335e-13 4.99874e-15 0 0 -2.62899e-13 -3.92588e-13 -1.74724e-13 3.30657e-14 0 0 -2.82617e-13 -9.54899e-14 -5.73866e-13 7.39993e-14 0 0 -3.63405e-13 -2.74661e-13 -1.26647e-13 -4.85425e-13 0 0 -5.26914e-13 -2.49869e-13 -4.6257e-15 -5.62436e-13 0 0 -6.54375e-13 -2.1777e-13 1.76598e-14 -3.8182e-13 0 0 -3.06616e-13 -4.32824e-13 4.594e-14 -3.2017e-13 0 0 -2.31489e-13 -2.30113e-13 -4.21086e-13 3.40964e-14 0 0 -3.40767e-13 -2.63226e-13 -2.7399e-13 -1.97843e-13 0 0 -5.07093e-13 -1.05189e-13 -2.92191e-13 -3.59463e-13 0 0 -5.63359e-13 -9.03593e-14 -1.94224e-13 -3.47661e-13 0 0 -2.30545e-13 -2.10491e-13 -2.17939e-13 -3.35802e-13 0 0 -2.01785e-13 4.18579e-14 -6.92841e-13 -1.41923e-13 0 0 -4.08936e-13 -1.27511e-13 -4.46277e-13 -3.07664e-13 0 0 -3.91399e-13 -4.95808e-13 -3.01574e-13 -1.73362e-13 0 0 -2.93297e-13 -6.63199e-13 -2.81014e-13 -5.73572e-14 0 0 -2.04488e-13 -5.84409e-13 1.38057e-14 -5.99442e-13 0 0 -1.81243e-13 -7.53438e-14 -6.52465e-13 -3.7696e-13 0 0 -1.47255e-13 -1.8994e-14 -7.75866e-13 -3.34266e-13 0 0 -4.12047e-13 -2.17595e-13 -1.34744e-13 -6.6703e-13 0 0 -6.59417e-13 -3.53934e-14 -4.12207e-13 -3.56179e-14 0 0 -2.46279e-13 -4.9274e-13 -2.48719e-13 2.8234e-13 0 0 -1.9166e-13 -4.26897e-13 -4.40925e-13 4.79203e-13 0 0 -3.67704e-13 -1.72678e-13 -6.07724e-13 5.22795e-13 0 0 -6.30956e-13 -1.53084e-13 -4.7954e-13 5.61937e-13 0 0 -7.27197e-13 -7.96903e-14 -8.17102e-13 1.04894e-12 0 0 -2.64428e-13 -7.16017e-13 -1.49215e-13 5.05403e-13 0 0 -3.62251e-13 -4.17378e-13 -8.35694e-14 -9.60718e-14 0 0 -3.84982e-13 -2.06457e-13 -2.45644e-13 -2.86694e-13 0 0 -4.94025e-13 -2.03583e-13 -2.15477e-13 -2.90958e-13 0 0 -7.28233e-13 -2.69086e-13 -1.40419e-13 -1.89224e-13 0 0 -3.05052e-13 -7.2387e-13 -1.40762e-13 -2.77462e-13 0 0 -9.87079e-14 -4.6043e-13 -9.13405e-13 -1.57081e-13 0 0 -2.76713e-13 -2.04486e-13 -9.8143e-13 -4.97812e-13 0 0 -8.13759e-13 2.31325e-13 -6.7568e-13 -7.59286e-13 0 0 -8.20922e-13 3.40215e-14 -2.10405e-13 -6.07493e-13 0 0 4.16811e-14 -6.85072e-13 -1.89551e-13 -2.40842e-13 0 0 3.24287e-13 -7.87751e-13 -6.52972e-13 -7.65444e-14 0 0 -1.93021e-13 -4.51288e-13 -5.99666e-13 -9.19841e-13 0 0 -8.73534e-13 2.3487e-13 -9.20155e-13 -1.35309e-12 0 0 -8.72635e-13 1.94907e-13 -1.28137e-12 -8.25471e-13 0 0 -2.0003e-13 -3.49953e-13 -1.1861e-12 -5.15125e-13 0 0 -4.1897e-14 -4.47434e-13 -8.12225e-13 -6.68267e-13 0 0 -2.13297e-13 -6.56372e-13 -6.11847e-14 -1.19262e-12 0 0 -1.29931e-13 -8.14669e-13 -1.46078e-13 -1.02512e-12 0 0 -3.10914e-13 -5.39577e-13 -6.92599e-13 -6.54959e-13 0 0 -5.53072e-13 -2.43314e-13 -7.36253e-13 -1.12216e-12 0 0 -6.77105e-13 1.84745e-13 -1.07215e-12 -1.11708e-12 0 0 -3.29298e-13 -3.07897e-13 -7.45504e-13 -8.05187e-13 0 0 -3.01817e-14 -8.01547e-13 -5.10865e-13 -3.98162e-13 0 0 -3.80429e-13 -4.98901e-13 -6.27736e-13 -3.72608e-13 0 0 -6.09729e-13 -2.73271e-13 -4.94011e-13 -1.07865e-12 0 0 -7.54578e-13 2.69793e-13 -1.0177e-12 -1.22118e-12 0 0 -2.51147e-13 -3.46823e-13 -6.54052e-13 -1.06752e-12 0 0 1.38202e-13 -9.85904e-13 -3.53934e-13 -5.15364e-13 0 0 -2.711e-13 -6.28474e-13 -6.12663e-13 -2.01547e-13 0 0 -5.46615e-13 -4.42285e-13 -3.00227e-13 -9.53777e-13 0 0 -7.02357e-13 -7.75598e-15 -7.5107e-13 -9.48135e-13 0 0 -2.63206e-13 -5.1548e-13 -6.77979e-13 -5.95216e-13 0 0 5.2295e-14 -9.66718e-13 -4.7109e-13 -1.63339e-13 0 0 -3.64141e-13 -5.61365e-13 -6.28325e-13 -8.65613e-14 0 0 -5.96588e-13 -3.50541e-13 -5.69058e-13 -8.01543e-13 0 0 -6.26065e-13 6.20434e-14 -1.28944e-12 -8.69043e-13 0 0 -1.96249e-13 -5.20439e-13 -1.03606e-12 -8.59898e-13 0 0 1.96834e-13 -1.14741e-12 -6.72082e-13 -4.03834e-13 0 0 -4.82303e-13 -5.28413e-13 -3.88351e-13 -4.65339e-13 0 0 -6.79149e-13 -7.04465e-13 9.02311e-13 -1.81683e-12 0 0 -4.34153e-13 -5.48525e-13 -5.40987e-14 -1.23445e-12 0 0 -1.03511e-13 -4.30962e-13 -1.30141e-12 -1.3766e-13 0 0 -3.97916e-13 -4.95196e-13 -9.50215e-13 -5.30136e-13 0 0 -1.27804e-12 2.95545e-13 -1.03017e-12 -6.09504e-13 0 0 -6.00647e-13 -3.16771e-13 -7.22566e-13 -4.49797e-13 0 0 2.65578e-15 -6.3395e-13 -1.27287e-12 4.23948e-13 0 0 2.4429e-14 -9.74349e-13 -8.52931e-13 3.57579e-13 0 0 -5.27044e-13 -8.35381e-13 -2.56277e-13 -2.64044e-13 0 0 -1.2572e-12 1.57e-13 -9.74721e-13 -1.77638e-14 0
				</DataArray>
				<DataArray Name="VitesseY" type="Float32" format="ascii">