<?xml version="1.0"?>
<VTKFile type="PolyData">
	<PolyData>
		<Piece NumberOfPoints="1206" NumberOfPolys="1000">
			<Points>
				<DataArray type="Float32" NumberOfComponents="3" format="ascii">
 0 0 0 0.02 0 0 0.04 0 0 0.06 0 0 0.08 0 0 0.1 0 0 0 0.005 0 0.02 0.005 0 0.04 0.005 0 0.06 0.005 0 0.08 0.005 0 0.1 0.005 0 0 0.01 0 0.02 0.01 0 0.04 0.01 0 0.06 0.01 0 0.08 0.01 0 0.1 0.01 0 0 0.015 0 0.02 0.015 0 0.04 0.015 0 0.06 0.015 0 0.08 0.015 0 0.1 0.015 0 0 0.02 0 0.02 0.02 0 0.04 0.02 0 0.06 0.02 0 0.08 0.02 0 0.1 0.02 0 0 0.025 0 0.02 0.025 0 0.04 0.025 0 0.06 0.025 0 0.08 0.025 0 0.1 0.025 0 0 0.03 0 0.02 0.03 0 0.04 0.03 0 0.06 0.03 0 0.08 0.03 0 0.1 0.03 0 0 0.035 0 0.02 0.035 0 0.04 0.035 0 0.06 0.035 0 0.08 0.035 0 0.1 0.035 0 0 0.04 0 0.02 0.04 0 0.04 0.04 0 0.06 0.04 0 0.08 0.04 0 0.1 0.04 0 0 0.045 0 0.02 0.045 0 0.04 0.045 0 0.06 0.045 0 0.08 0.045 0 0.1 0.045 0 0 0.05 0 0.02 0.05 0 0.04 0.05 0 0.06 0.05 0 0.08 0.05 0 0.1 0.05 0 0 0.055 0 0.02 0.055 0 0.04 0.055 0 0.06 0.055 0 0.08 0.055 0 0.1 0.055 0 0 0.06 0 0.02 0.06 0 0.04 0.06 0 0.06 0.06 0 0.08 0.06 0 0.1 0.06 0 0 0.065 0 0.02 0.065 0 0.04 0.065 0 0.06 0.065 0 0.08 0.065 0 0.1 0.065 0 0 0.07 0 0.02 0.07 0 0.04 0.07 0 0.06 0.07 0 0.08 0.07 0 0.1 0.07 0 0 0.075 0 0.02 0.075 0 0.04 0.075 0 0.06 0.075 0 0.08 0.075 0 0.1 0.075 0 0 0.08 0 0.02 0.08 0 0.04 0.08 0 0.06 0.08 0 0.08 0.08 0 0.1 0.08 0 0 0.085 0 0.02 0.085 0 0.04 0.085 0 0.06 0.085 0 0.08 0.085 0 0.1 0.085 0 0 0.09 0 0.02 0.09 0 0.04 0.09 0 0.06 0.09 0 0.08 0.09 0 0.1 0.09 0 0 0.095 0 0.02 0.095 0 0.04 0.095 0 0.06 0.095 0 0.08 0.095 0 0.1 0.095 0 0 0.1 0 0.02 0.1 0 0.04 0.1 0 0.06 0.1 0 0.08 0.1 0 0.1 0.1 0 0 0.105 0 0.02 0.105 0 0.04 0.105 0 0.06 0.105 0 0.08 0.105 0 0.1 0.105 0 0 0.11 0 0.02 0.11 0 0.04 0.11 0 0.06 0.11 0 0.08 0.11 0 0.1 0.11 0 0 0.115 0 0.02 0.115 0 0.04 0.115 0 0.06 0.115 0 0.08 0.115 0 0.1 0.115 0 0 0.12 0 0.02 0.12 0 0.04 0.12 0 0.06 0.12 0 0.08 0.12 0 0.1 0.12 0 0 0.125 0 0.02 0.125 0 0.04 0.125 0 0.06 0.125 0 0.08 0.125 0 0.1 0.125 0 0 0.13 0 0.02 0.13 0 0.04 0.13 0 0.06 0.13 0 0.08 0.13 0 0.1 0.13 0 0 0.135 0 0.02 0.135 0 0.04 0.135 0 0.06 0.135 0 0.08 0.135 0 0.1 0.135 0 0 0.14 0 0.02 0.14 0 0.04 0.14 0 0.06 0.14 0 0.08 0.14 0 0.1 0.14 0 0 0.145 0 0.02 0.145 0 0.04 0.145 0 0.06 0.145 0 0.08 0.145 0 0.1 0.145 0 0 0.15 0 0.02 0.15 0 0.04 0.15 0 0.06 0.15 0 0.08 0.15 0 0.1 0.15 0 0 0.155 0 0.02 0.155 0 0.04 0.155 0 0.06 0.155 0 0.08 0.155 0 0.1 0.155 0 0 0.16 0 0.02 0.16 0 0.04 0.16 0 0.06 0.16 0 0.08 0.16 0 0.1 0.16 0 0 0.165 0 0.02 0.165 0 0.04 0.165 0 0.06 0.165 0 0.08 0.165 0 0.1 0.165 0 0 0.17 0 0.02 0.17 0 0.04 0.17 0 0.06 0.17 0 0.08 0.17 0 0.1 0.17 0 0 0.175 0 0.02 0.175 0 0.04 0.175 0 0.06 0.175 0 0.08 0.175 0 0.1 0.175 0 0 0.18 0 0.02 0.18 0 0.04 0.18 0 0.06 0.18 0 0.08 0.18 0 0.1 0.18 0 0 0.185 0 0.02 0.185 0 0.04 0.185 0 0.06 0.185 0 0.08 0.185 0 0.1 0.185 0 0 0.19 0 0.02 0.19 0 0.04 0.19 0 0.06 0.19 0 0.08 0.19 0 0.1 0.19 0 0 0.195 0 0.02 0.195 0 0.04 0.195 0 0.06 0.195 0 0.08 0.195 0 0.1 0.195 0 0 0.2 0 0.02 0.2 0 0.04 0.2 0 0.06 0.2 0 0.08 0.2 0 0.1 0.2 0 0 0.205 0 0.02 0.205 0 0.04 0.205 0 0.06 0.205 0 0.08 0.205 0 0.1 0.205 0 0 0.21 0 0.02 0.21 0 0.04 0.21 0 0.06 0.21 0 0.08 0.21 0 0.1 0.21 0 0 0.215 0 0.02 0.215 0 0.04 0.215 0 0.06 0.215 0 0.08 0.215 0 0.1 0.215 0 0 0.22 0 0.02 0.22 0 0.04 0.22 0 0.06 0.22 0 0.08 0.22 0 0.1 0.22 0 0 0.225 0 0.02 0.225 0 0.04 0.225 0 0.06 0.225 0 0.08 0.225 0 0.1 0.225 0 0 0.23 0 0.02 0.23 0 0.04 0.23 0 0.06 0.23 0 0.08 0.23 0 0.1 0.23 0 0 0.235 0 0.02 0.235 0 0.04 0.235 0 0.06 0.235 0 0.08 0.235 0 0.1 0.235 0 0 0.24 0 0.02 0.24 0 0.04 0.24 0 0.06 0.24 0 0.08 0.24 0 0.1 0.24 0 0 0.245 0 0.02 0.245 0 0.04 0.245 0 0.06 0.245 0 0.08 0.245 0 0.1 0.245 0 0 0.25 0 0.02 0.25 0 0.04 0.25 0 0.06 0.25 0 0.08 0.25 0 0.1 0.25 0 0 0.255 0 0.02 0.255 0 0.04 0.255 0 0.06 0.255 0 0.08 0.255 0 0.1 0.255 0 0 0.26 0 0.02 0.26 0 0.04 0.26 0 0.06 0.26 0 0.08 0.26 0 0.1 0.26 0 0 0.265 0 0.02 0.265 0 0.04 0.265 0 0.06 0.265 0 0.08 0.265 0 0.1 0.265 0 0 0.27 0 0.02 0.27 0 0.04 0.27 0 0.06 0.27 0 0.08 0.27 0 0.1 0.27 0 0 0.275 0 0.02 0.275 0 0.04 0.275 0 0.06 0.275 0 0.08 0.275 0 0.1 0.275 0 0 0.28 0 0.02 0.28 0 0.04 0.28 0 0.06 0.28 0 0.08 0.28 0 0.1 0.28 0 0 0.285 0 0.02 0.285 0 0.04 0.285 0 0.06 0.285 0 0.08 0.285 0 0.1 0.285 0 0 0.29 0 0.02 0.29 0 0.04 0.29 0 0.06 0.29 0 0.08 0.29 0 0.1 0.29 0 0 0.295 0 0.02 0.295 0 0.04 0.295 0 0.06 0.295 0 0.08 0.295 0 0.1 0.295 0 0 0.3 0 0.02 0.3 0 0.04 0.3 0 0.06 0.3 0 0.08 0.3 0 0.1 0.3 0 0 0.305 0 0.02 0.305 0 0.04 0.305 0 0.06 0.305 0 0.08 0.305 0 0.1 0.305 0 0 0.31 0 0.02 0.31 0 0.04 0.31 0 0.06 0.31 0 0.08 0.31 0 0.1 0.31 0 0 0.315 0 0.02 0.315 0 0.04 0.315 0 0.06 0.315 0 0.08 0.315 0 0.1 0.315 0 0 0.32 0 0.02 0.32 0 0.04 0.32 0 0.06 0.32 0 0.08 0.32 0 0.1 0.32 0 0 0.325 0 0.02 0.325 0 0.04 0.325 0 0.06 0.325 0 0.08 0.325 0 0.1 0.325 0 0 0.33 0 0.02 0.33 0 0.04 0.33 0 0.06 0.33 0 0.08 0.33 0 0.1 0.33 0 0 0.335 0 0.02 0.335 0 0.04 0.335 0 0.06 0.335 0 0.08 0.335 0 0.1 0.335 0 0 0.34 0 0.02 0.34 0 0.04 0.34 0 0.06 0.34 0 0.08 0.34 0 0.1 0.34 0 0 0.345 0 0.02 0.345 0 0.04 0.345 0 0.06 0.345 0 0.08 0.345 0 0.1 0.345 0 0 0.35 0 0.02 0.35 0 0.04 0.35 0 0.06 0.35 0 0.08 0.35 0 0.1 0.35 0 0 0.355 0 0.02 0.355 0 0.04 0.355 0 0.06 0.355 0 0.08 0.355 0 0.1 0.355 0 0 0.36 0 0.02 0.36 0 0.04 0.36 0 0.06 0.36 0 0.08 0.36 0 0.1 0.36 0 0 0.365 0 0.02 0.365 0 0.04 0.365 0 0.06 0.365 0 0.08 0.365 0 0.1 0.365 0 0 0.37 0 0.02 0.37 0 0.04 0.37 0 0.06 0.37 0 0.08 0.37 0 0.1 0.37 0 0 0.375 0 0.02 0.375 0 0.04 0.375 0 0.06 0.375 0 0.08 0.375 0 0.1 0.375 0 0 0.38 0 0.02 0.38 0 0.04 0.38 0 0.06 0.38 0 0.08 0.38 0 0.1 0.38 0 0 0.385 0 0.02 0.385 0 0.04 0.385 0 0.06 0.385 0 0.08 0.385 0 0.1 0.385 0 0 0.39 0 0.02 0.39 0 0.04 0.39 0 0.06 0.39 0 0.08 0.39 0 0.1 0.39 0 0 0.395 0 0.02 0.395 0 0.04 0.395 0 0.06 0.395 0 0.08 0.395 0 0.1 0.395 0 0 0.4 0 0.02 0.4 0 0.04 0.4 0 0.06 0.4 0 0.08 0.4 0 0.1 0.4 0 0 0.405 0 0.02 0.405 0 0.04 0.405 0 0.06 0.405 0 0.08 0.405 0 0.1 0.405 0 0 0.41 0 0.02 0.41 0 0.04 0.41 0 0.06 0.41 0 0.08 0.41 0 0.1 0.41 0 0 0.415 0 0.02 0.415 0 0.04 0.415 0 0.06 0.415 0 0.08 0.415 0 0.1 0.415 0 0 0.42 0 0.02 0.42 0 0.04 0.42 0 0.06 0.42 0 0.08 0.42 0 0.1 0.42 0 0 0.425 0 0.02 0.425 0 0.04 0.425 0 0.06 0.425 0 0.08 0.425 0 0.1 0.425 0 0 0.43 0 0.02 0.43 0 0.04 0.43 0 0.06 0.43 0 0.08 0.43 0 0.1 0.43 0 0 0.435 0 0.02 0.435 0 0.04 0.435 0 0.06 0.435 0 0.08 0.435 0 0.1 0.435 0 0 0.44 0 0.02 0.44 0 0.04 0.44 0 0.06 0.44 0 0.08 0.44 0 0.1 0.44 0 0 0.445 0 0.02 0.445 0 0.04 0.445 0 0.06 0.445 0 0.08 0.445 0 0.1 0.445 0 0 0.45 0 0.02 0.45 0 0.04 0.45 0 0.06 0.45 0 0.08 0.45 0 0.1 0.45 0 0 0.455 0 0.02 0.455 0 0.04 0.455 0 0.06 0.455 0 0.08 0.455 0 0.1 0.455 0 0 0.46 0 0.02 0.46 0 0.04 0.46 0 0.06 0.46 0 0.08 0.46 0 0.1 0.46 0 0 0.465 0 0.02 0.465 0 0.04 0.465 0 0.06 0.465 0 0.08 0.465 0 0.1 0.465 0 0 0.47 0 0.02 0.47 0 0.04 0.47 0 0.06 0.47 0 0.08 0.47 0 0.1 0.47 0 0 0.475 0 0.02 0.475 0 0.04 0.475 0 0.06 0.475 0 0.08 0.475 0 0.1 0.475 0 0 0.48 0 0.02 0.48 0 0.04 0.48 0 0.06 0.48 0 0.08 0.48 0 0.1 0.48 0 0 0.485 0 0.02 0.485 0 0.04 0.485 0 0.06 0.485 0 0.08 0.485 0 0.1 0.485 0 0 0.49 0 0.02 0.49 0 0.04 0.49 0 0.06 0.49 0 0.08 0.49 0 0.1 0.49 0 0 0.495 0 0.02 0.495 0 0.04 0.495 0 0.06 0.495 0 0.08 0.495 0 0.1 0.495 0 0 0.5 0 0.02 0.5 0 0.04 0.5 0 0.06 0.5 0 0.08 0.5 0 0.1 0.5 0 0 0.505 0 0.02 0.505 0 0.04 0.505 0 0.06 0.505 0 0.08 0.505 0 0.1 0.505 0 0 0.51 0 0.02 0.51 0 0.04 0.51 0 0.06 0.51 0 0.08 0.51 0 0.1 0.51 0 0 0.515 0 0.02 0.515 0 0.04 0.515 0 0.06 0.515 0 0.08 0.515 0 0.1 0.515 0 0 0.52 0 0.02 0.52 0 0.04 0.52 0 0.06 0.52 0 0.08 0.52 0 0.1 0.52 0 0 0.525 0 0.02 0.525 0 0.04 0.525 0 0.06 0.525 0 0.08 0.525 0 0.1 0.525 0 0 0.53 0 0.02 0.53 0 0.04 0.53 0 0.06 0.53 0 0.08 0.53 0 0.1 0.53 0 0 0.535 0 0.02 0.535 0 0.04 0.535 0 0.06 0.535 0 0.08 0.535 0 0.1 0.535 0 0 0.54 0 0.02 0.54 0 0.04 0.54 0 0.06 0.54 0 0.08 0.54 0 0.1 0.54 0 0 0.545 0 0.02 0.545 0 0.04 0.545 0 0.06 0.545 0 0.08 0.545 0 0.1 0.545 0 0 0.55 0 0.02 0.55 0 0.04 0.55 0 0.06 0.55 0 0.08 0.55 0 0.1 0.55 0 0 0.555 0 0.02 0.555 0 0.04 0.555 0 0.06 0.555 0 0.08 0.555 0 0.1 0.555 0 0 0.56 0 0.02 0.56 0 0.04 0.56 0 0.06 0.56 0 0.08 0.56 0 0.1 0.56 0 0 0.565 0 0.02 0.565 0 0.04 0.565 0 0.06 0.565 0 0.08 0.565 0 0.1 0.565 0 0 0.57 0 0.02 0.57 0 0.04 0.57 0 0.06 0.57 0 0.08 0.57 0 0.1 0.57 0 0 0.575 0 0.02 0.575 0 0.04 0.575 0 0.06 0.575 0 0.08 0.575 0 0.1 0.575 0 0 0.58 0 0.02 0.58 0 0.04 0.58 0 0.06 0.58 0 0.08 0.58 0 0.1 0.58 0 0 0.585 0 0.02 0.585 0 0.04 0.585 0 0.06 0.585 0 0.08 0.585 0 0.1 0.585 0 0 0.59 0 0.02 0.59 0 0.04 0.59 0 0.06 0.59 0 0.08 0.59 0 0.1 0.59 0 0 0.595 0 0.02 0.595 0 0.04 0.595 0 0.06 0.595 0 0.08 0.595 0 0.1 0.595 0 0 0.6 0 0.02 0.6 0 0.04 0.6 0 0.06 0.6 0 0.08 0.6 0 0.1 0.6 0 0 0.605 0 0.02 0.605 0 0.04 0.605 0 0.06 0.605 0 0.08 0.605 0 0.1 0.605 0 0 0.61 0 0.02 0.61 0 0.04 0.61 0 0.06 0.61 0 0.08 0.61 0 0.1 0.61 0 0 0.615 0 0.02 0.615 0 0.04 0.615 0 0.06 0.615 0 0.08 0.615 0 0.1 0.615 0 0 0.62 0 0.02 0.62 0 0.04 0.62 0 0.06 0.62 0 0.08 0.62 0 0.1 0.62 0 0 0.625 0 0.02 0.625 0 0.04 0.625 0 0.06 0.625 0 0.08 0.625 0 0.1 0.625 0 0 0.63 0 0.02 0.63 0 0.04 0.63 0 0.06 0.63 0 0.08 0.63 0 0.1 0.63 0 0 0.635 0 0.02 0.635 0 0.04 0.635 0 0.06 0.635 0 0.08 0.635 0 0.1 0.635 0 0 0.64 0 0.02 0.64 0 0.04 0.64 0 0.06 0.64 0 0.08 0.64 0 0.1 0.64 0 0 0.645 0 0.02 0.645 0 0.04 0.645 0 0.06 0.645 0 0.08 0.645 0 0.1 0.645 0 0 0.65 0 0.02 0.65 0 0.04 0.65 0 0.06 0.65 0 0.08 0.65 0 0.1 0.65 0 0 0.655 0 0.02 0.655 0 0.04 0.655 0 0.06 0.655 0 0.08 0.655 0 0.1 0.655 0 0 0.66 0 0.02 0.66 0 0.04 0.66 0 0.06 0.66 0 0.08 0.66 0 0.1 0.66 0 0 0.665 0 0.02 0.665 0 0.04 0.665 0 0.06 0.665 0 0.08 0.665 0 0.1 0.665 0 0 0.67 0 0.02 0.67 0 0.04 0.67 0 0.06 0.67 0 0.08 0.67 0 0.1 0.67 0 0 0.675 0 0.02 0.675 0 0.04 0.675 0 0.06 0.675 0 0.08 0.675 0 0.1 0.675 0 0 0.68 0 0.02 0.68 0 0.04 0.68 0 0.06 0.68 0 0.08 0.68 0 0.1 0.68 0 0 0.685 0 0.02 0.685 0 0.04 0.685 0 0.06 0.685 0 0.08 0.685 0 0.1 0.685 0 0 0.69 0 0.02 0.69 0 0.04 0.69 0 0.06 0.69 0 0.08 0.69 0 0.1 
[...]
			<PointData Scalars="VitesseX">
				<DataArray Name="VitesseX" type="Float32" format="ascii">
 0 -2.97131e-14 1.42631e-14 -1.2528e-14 -1.23397e-15 0 0 -2.49761e-14 2.89386e-15 -3.30411e-15 -4.94537e-15 0 0 -1.53704e-14 -2.59538e-14 2.80814e-14 -2.16656e-14 0 0 -4.94466e-14 1.46395e-14 -1.04484e-15 -1.00759e-14 0 0 -3.44499e-14 -2.82691e-15 6.17451e-15 -1.38685e-14 0 0 2.3481e-14 -7.46759e-14 4.35558e-14 -2.0376e-14 0 0 -9.16655e-15 -1.20197e-14 -4.56993e-14 5.33784e-14 0 0 -5.78512e-14 6.29147e-14 -1.22589e-13 1.17426e-13 0 0 -3.50951e-14 1.46782e-14 -5.31753e-14 8.33012e-14 0 0 -9.82785e-15 -5.71318e-14 7.0032e-14 -7.25265e-15 0 0 -6.53013e-14 2.6939e-15 5.8639e-14 -2.47244e-14 0 0 -4.92661e-14 -2.29427e-14 9.0304e-14 -4.84377e-14 0 0 -8.47676e-14 5.63139e-14 -1.28802e-14 3.45388e-14 0 0 -4.24747e-14 1.88642e-14 1.00587e-14 3.80538e-14 0 0 -7.31873e-15 -2.63048e-14 7.97822e-14 -2.74735e-14 0 0 -8.16785e-14 1.205e-13 -9.17471e-14 6.68082e-14 0 0 3.91982e-14 -3.76536e-14 -2.53379e-15 2.23671e-15 0 0 1.1303e-14 -2.45311e-14 -2.04547e-14 -2.54368e-14 0 0 -3.46944e-15 -5.2126e-14 -3.58074e-15 -2.59424e-14 0 0 7.58359e-15 -7.7354e-14 -2.28234e-14 1.73862e-14 0 0 -1.26247e-13 1.38772e-13 -2.34531e-13 1.65388e-13 0 0 -1.25808e-13 1.33419e-13 -1.89979e-13 1.39541e-13 0 0 1.47895e-14 -9.18864e-14 6.43491e-14 -3.01663e-14 0 0 6.11229e-14 -1.8482e-13 1.72714e-13 -9.83432e-14 0 0 -1.29033e-13 6.82084e-14 -5.6216e-14 2.31396e-14 0 0 -2.65106e-13 2.45347e-13 -2.38207e-13 1.09802e-13 0 0 -9.09256e-14 -1.56348e-14 -4.22637e-14 -1.76961e-14 0 0 2.36694e-14 -1.62455e-13 8.28063e-14 -1.56897e-13 0 0 -8.49428e-14 1.14062e-14 -5.59346e-14 -1.41201e-13 0 0 -1.95547e-13 1.53275e-13 -2.02709e-13 -8.97158e-15 0 0 -1.04072e-13 -2.6254e-14 -5.93212e-14 -1.73508e-14 0 0 -1.27845e-13 -2.38348e-14 -1.23205e-14 -3.25114e-14 0 0 -1.46044e-13 2.98657e-14 -1.51671e-14 1.06692e-14 0 0 9.06074e-14 -2.50307e-13 2.5094e-13 -7.28592e-14 0 0 -1.08381e-13 8.90031e-14 -4.06472e-14 1.20128e-13 0 0 -2.32076e-13 2.43201e-13 -1.28061e-13 1.13659e-13 0 0 -1.79632e-13 1.36027e-13 8.98606e-15 -3.01252e-14 0 0 -1.21525e-14 -1.28744e-13 2.5782e-13 -2.09624e-13 0 0 -3.60165e-14 -1.23266e-13 2.84017e-13 -2.78311e-13 0 0 -2.03376e-13 1.16817e-13 6.39348e-14 -1.58112e-13 0 0 -1.30596e-13 5.47109e-14 9.12811e-15 -1.47505e-14 0 0 -7.70336e-14 1.89937e-14 -8.29309e-14 1.34799e-13 0 0 4.15108e-14 -1.76321e-13 5.76726e-14 4.29558e-14 0 0 -1.3073e-13 2.69815e-14 -1.451e-13 1.27948e-13 0 0 -3.55899e-13 2.22946e-13 -2.21888e-13 8.24149e-14 0 0 -2.15833e-13 -1.18129e-13 2.58119e-13 -2.89516e-13 0 0 -2.10115e-13 -1.3409e-13 3.46307e-13 -4.1082e-13 0 0 -1.65831e-13 -1.62624e-13 3.77244e-13 -4.47651e-13 0 0 -1.05192e-13 -1.37341e-13 2.41378e-13 -3.0754e-13 0 0 -2.79155e-13 2.51911e-13 -2.50444e-13 2.89426e-14 0 0 -4.18834e-13 4.568e-13 -3.91133e-13 7.69201e-15 0 0 -4.69641e-13 5.18467e-13 -3.75623e-13 -1.48392e-13 0 0 1.09486e-13 -3.67885e-13 4.67567e-13 -6.67817e-13 0 0 -9.26358e-15 -1.74034e-13 3.15316e-13 -6.06813e-13 0 0 -4.48556e-13 5.38509e-13 -3.14801e-13 -3.07393e-13 0 0 -2.2142e-13 1.71144e-13 5.91225e-14 -5.16055e-13 0 0 -4.12848e-13 3.80135e-13 -1.7011e-13 -2.18537e-13 0 0 -2.53965e-13 -1.07616e-14 1.76203e-13 -2.69793e-13 0 0 -3.13264e-13 -2.05607e-14 1.53545e-13 -1.97134e-13 0 0 -5.38508e-13 3.99498e-13 -2.77343e-13 -3.38681e-14 0 0 -2.30593e-13 9.11261e-14 -4.6301e-14 -3.10226e-13 0 0 -1.06891e-14 -6.72589e-14 -3.82663e-14 -3.18905e-13 0 0 -1.09598e-14 -3.72088e-14 -1.53823e-13 -1.72592e-13 0 0 -2.81151e-13 3.35575e-13 -6.04181e-13 2.22752e-13 0 0 -2.07623e-13 2.43002e-13 -5.7912e-13 2.69605e-13 0 0 2.16737e-14 -1.39475e-13 -1.06934e-13 -7.44021e-14 0 0 2.54994e-14 -1.58893e-13 4.47388e-14 -2.14233e-13 0 0 -1.58473e-14 -1.72473e-13 1.55983e-13 -2.2085e-13 0 0 -4.48745e-13 3.266e-13 -1.88895e-13 4.61594e-14 0 0 -4.91748e-13 3.58274e-13 -1.69001e-13 5.31218e-14 0 0 4.74102e-14 -3.89832e-13 5.70607e-13 -3.89572e-13 0 0 -2.08551e-13 4.70792e-14 2.166e-13 -1.89087e-13 0 0 -4.48849e-13 4.09154e-13 -1.00688e-13 -4.28799e-14 0 0 -5.61329e-13 6.15618e-13 -2.57681e-13 -1.14571e-13 0 0 -2.03152e-13 2.26984e-13 1.80376e-14 -3.33502e-13 0 0 1.51571e-13 -2.87561e-13 4.62735e-13 -5.54202e-13 0 0 -4.77439e-13 4.90494e-13 -1.72738e-13 -1.03857e-13 0 0 -5.10397e-13 3.986e-13 -1.66718e-13 1.02244e-13 0 0 -3.89762e-13 2.7611e-13 -3.17781e-13 3.95995e-13 0 0 -1.2381e-14 -2.10183e-13 9.72639e-14 1.30501e-13 0 0 -3.10135e-13 6.64701e-14 1.87133e-13 -1.9876e-13 0 0 -6.41605e-13 4.72783e-13 -1.00894e-13 -2.24189e-13 0 0 3.55848e-13 -8.77118e-13 7.90374e-13 -5.78919e-13 0 0 -1.14134e-13 -2.09285e-13 8.59772e-14 -1.33458e-13 0 0 -1.09341e-12 1.09287e-12 -1.1014e-12 4.87949e-13 0 0 1.36336e-15 -3.52119e-13 -1.49021e-13 1.25182e-13 0 0 7.30181e-13 -1.2437e-12 5.11766e-13 -1.85826e-13 0 0 -1.33834e-13 -7.71333e-14 -3.46864e-13 1.9612e-13 0 0 -4.8378e-13 2.54817e-13 -4.57786e-13 2.0885e-13 0 0 -8.05615e-13 3.56312e-13 -7.14389e-13 5.37636e-13 0 0 -1.8989e-13 -7.55016e-13 4.47261e-14 2.53547e-13 0 0 4.61033e-13 -1.4728e-12 7.09661e-13 -5.18136e-14 0 0 -4.71058e-13 -6.5214e-15 -4.19725e-13 3.62889e-13 0 0 -7.86692e-13 7.04896e-13 -4.80708e-13 9.89713e-15 0 0 -8.28561e-13 8.68528e-13 -4.09495e-13 -9.50212e-14 0 0 2.29466e-13 -6.01361e-13 4.2738e-13 -4.49862e-13 0 0 9.65846e-13 -1.48957e-12 1.1975e-12 -7.39228e-13 0 0 -2.49503e-13 -4.46143e-14 5.89831e-13 -7.23136e-13 0 0 -1.24657e-12 1.12244e-12 -9.55803e-14 -6.90348e-13 0 0 -8.21244e-13 6.49748e-13 -4.83456e-14 -5.5378e-13 0 0 1.97848e-13 -1.81203e-13 -1.42707e-13 -2.60051e-13 0 0 3.36988e-13 -6.32988e-14 -4.86838e-13 5.66033e-14 0 0 2.44474e-14 4.75282e-13 -9.64505e-13 2.03639e-13 0 0 -2.54366e-13 5.72719e-13 -9.33628e-13 1.22484e-13 0 0 -2.21801e-13 2.97523e-13 -7.06815e-13 -1.51512e-14 0 0 -1.7324e-13 -1.23342e-13 -4.73652e-13 -1.23863e-13 0 0 -1.89594e-13 -4.52106e-13 -2.83517e-13 -2.86035e-13 0 0 -2.342e-13 -5.46802e-13 -3.0783e-13 -2.63623e-13 0 0 -3.36217e-13 -4.47101e-13 -4.55607e-13 -1.57416e-13 0 0 -4.24247e-13 -3.27415e-13 -4.56495e-13 -2.03496e-13 0 0 -2.93675e-13 -5.08006e-13 -1.14056e-13 -3.60068e-13 0 0 -2.02514e-13 -4.87507e-13 -8.11261e-14 -2.63615e-13 0 0 -3.92983e-13 4.9711e-14 -6.17347e-13 1.33157e-13 0 0 -4.33485e-13 1.69577e-13 -6.49038e-13 1.74545e-13 0 0 -8.67481e-14 -3.64634e-13 -5.79135e-14 -1.39041e-13 0 0 1.59467e-13 -7.36801e-13 3.14914e-13 -3.46722e-13 0 0 -1.6703e-13 -2.49174e-13 -1.2929e-13 -1.20527e-13 0 0 -6.06826e-13 4.17506e-13 -7.51725e-13 2.34098e-13 0 0 -2.74491e-13 -9.99379e-14 -2.45668e-13 -8.16301e-14 0 0 -1.5114e-13 -2.21189e-13 -8.98677e-14 -2.67119e-13 0 0 -5.62324e-14 -2.39021e-13 -5.43718e-14 -3.65027e-13 0 0 -8.85943e-14 -2.01715e-13 -6.26767e-14 -2.69213e-13 0 0 -6.79308e-13 5.90601e-13 -8.10826e-13 3.67235e-13 0 0 -1.83662e-13 -2.59635e-13 -2.17845e-15 -7.49075e-14 0 0 -1.71556e-13 -2.67896e-13 1.60884e-14 -2.0734e-13 0 0 -8.98162e-14 -2.10027e-13 -2.02847e-13 -1.23921e-13 0 0 -5.32037e-14 -2.59046e-13 -2.07427e-13 -1.16073e-13 0 0 -7.20483e-13 5.89989e-13 -8.84519e-13 3.38193e-13 0 0 -2.84161e-13 -1.57336e-13 -1.48623e-13 -3.44808e-14 0 0 -2.85924e-13 -2.02742e-13 -3.0915e-15 -2.51145e-13 0 0 -1.6334e-13 -2.95081e-13 3.93343e-14 -3.39854e-13 0 0 -1.20242e-13 -3.27864e-13 -1.27158e-14 -2.90924e-13 0 0 -7.93932e-13 6.41656e-13 -9.88539e-13 3.84664e-13 0 0 -2.63685e-13 -2.0848e-13 -2.18669e-13 -2.51723e-14 0 0 -3.01687e-13 -2.19564e-13 2.70201e-14 -3.79654e-13 0 0 -1.9544e-13 -1.88895e-13 -6.37632e-14 -4.54805e-13 0 0 -1.49344e-13 -2.94978e-13 -1.72231e-13 -3.4669e-13 0 0 -9.56387e-13 6.39408e-13 -1.08095e-12 3.64346e-13 0 0 -2.45421e-13 -3.30532e-13 -3.27539e-13 8.43004e-14 0 0 -1.09141e-13 -4.05511e-13 -1.94203e-13 -1.09997e-13 0 0 -3.98295e-13 -3.10146e-14 -4.30675e-13 -1.24154e-13 0 0 1.56783e-13 -1.09693e-12 5.16638e-13 -6.81363e-13 0 0 -9.06808e-13 2.98636e-13 -5.9041e-13 1.34902e-14 0 0 -1.14617e-12 7.68911e-13 -8.80239e-13 2.46675e-13 0 0 2.27792e-13 -8.95456e-13 6.61266e-13 -6.33415e-13 0 0 -1.68109e-13 -1.28347e-13 1.27351e-13 -2.72555e-13 0 0 -2.06794e-13 -1.88025e-13 1.88039e-13 -1.03738e-13 0 0 -6.14305e-13 3.02589e-13 -5.19068e-13 6.44871e-13 0 0 -9.76485e-13 6.0612e-13 -7.20412e-13 6.87177e-13 0 0 6.5693e-14 -9.86459e-13 1.02738e-12 -6.1461e-13 0 0 -3.95262e-13 -1.73751e-13 4.58777e-13 -3.93599e-13 0 0 -3.0749e-13 -3.15314e-13 3.1948e-13 7.25237e-14 0 0 -6.40946e-13 2.76506e-14 -3.51364e-13 9.56141e-13 0 0 -8.44398e-13 1.55086e-13 -3.58035e-13 7.78652e-13 0 0 -4.63438e-13 -2.84723e-13 1.41497e-13 -7.26204e-14 0 0 -1.05354e-13 -3.75586e-13 -1.43981e-13 -3.04485e-13 0 0 4.08777e-14 -5.20339e-13 -3.1207e-13 -3.60014e-13 0 0 -8.23955e-13 3.88568e-13 -9.68133e-13 -1.1591e-13 0 0 -5.9172e-13 -2.12679e-13 -2.61846e-13 -5.30186e-13 0 0 -2.02098e-13 -8.2089e-13 3.84056e-13 -1.03198e-12 0 0 1.56751e-13 -1.07598e-12 3.91207e-13 -1.15009e-12 0 0 -2.69841e-13 -7.88218e-14 -1.03838e-12 -5.66936e-14 0 0 -8.32944e-13 8.77724e-13 -2.11576e-12 7.78809e-13 0 0 -1.89947e-13 -3.28262e-13 -6.99819e-13 -2.13763e-13 0 0 3.71214e-14 -1.02526e-12 3.69714e-13 -1.14181e-12 0 0 -2.08289e-13 -6.59272e-13 4.96872e-14 -1.1201e-12 0 0 -6.21675e-13 2.63136e-14 -9.0068e-13 -3.22012e-13 0 0 -8.70485e-13 4.96079e-13 -1.85173e-12 8.64373e-13 0 0 6.2465e-14 -7.40639e-13 -1.02968e-12 7.29537e-13 0 0 -2.31508e-13 -3.36905e-13 -1.05793e-12 2.62217e-13 0 0 -6.13086e-13 1.60671e-13 -1.04263e-12 -4.18462e-13 0 0 -5.1761e-14 -8.68483e-13 1.36365e-13 -1.08957e-12 0 0 -7.72534e-13 3.67676e-14 -5.83283e-13 -5.57022e-13 0 0 -4.59098e-13 -1.97315e-13 -5.87231e-13 -7.27337e-13 0 0 -4.0183e-13 3.19382e-14 -1.1725e-12 -4.27971e-13 0 0 -5.09078e-13 1.72335e-13 -1.3071e-12 -2.66972e-13 0 0 -1.17689e-14 -9.43737e-13 2.0907e-13 -1.00311e-12 0 0 -8.58524e-13 2.97171e-14 -3.40397e-13 -6.25331e-13 0 0 -6.17255e-13 -7.35214e-14 -6.3891e-13 -4.45089e-13 0 0 -3.88381e-13 -1.21896e-13 -9.96021e-13 -2.3232e-13 0 0 -6.21967e-13 1.51008e-13 -1.09434e-12 -2.48018e-13 0 0 1.37417e-13 -1.30427e-12 4.23327e-13 -8.27586e-13 0 0 -4.58322e-13 -6.1776e-13 -1.24847e-13 -2.07377e-13 0 0 -5.51825e-13 -2.97682e-13 -4.4465e-13 -2.77067e-13 0 0 -4.13441e-13 -2.46114e-13 -8.15766e-13 -3.98509e-13 0 0 -5.18054e-13 -1.52847e-13 -9.17729e-13 -4.92628e-13 0 0 4.43594e-14 -1.34817e-12 5.19956e-13 -1.28858e-12 0 0 -6.99645e-13 -3.03602e-13 -3.47507e-13 -6.35577e-13 0 0 -5.79169e-13 -1.69579e-13 -6.18072e-13 -4.11183e-13 0 0 -8.80772e-13 1.5509e-13 -7.00269e-13 -4.43558e-13 0 0 -1.09799e-12 7.33945e-14 -4.04576e-13 -5.75433e-13 0 0 3.02814e-13 -2.28307e-12 1.63349e-12 -1.50671e-12 0 0 -1.2287e-12 5.80286e-14 -5.88523e-13 -2.05022e-13 0 0 -2.0363e-12 1.60709e-12 -1.89404e-12 2.00231e-13 0 0 -3.43854e-13 -5.53937e-13 2.6468e-13 -1.40753e-12 0 0 8.60022e-15 -9.64203e-13 7.95721e-13 -1.91327e-12 0 0 2.46804e-13 -1.45914e-12 1.06246e-12 -1.89967e-12 0 0 -1.15352e-12 8.6815e-13 -1.72809e-12 2.01078e-13 0 0 -1.29992e-12 1.14993e-12 -1.90031e-12 4.10314e-13 0 0 3.22485e-14 -1.25804e-12 1.063e-12 -1.53824e-12 0 0 -2.03177e-13 -1.14718e-12 1.29924e-12 -1.76544e-12 0
				</DataArray>
				<DataArray Name="VitesseY" type="Float32" format="ascii">