<?xml version="1.0"?>
<VTKFile type="PolyData">
	<PolyData>
		<Piece NumberOfPoints="1206" NumberOfPolys="1000">
			<Points>
				<DataArray type="Float32" NumberOfComponents="3" format="ascii">
 0 0 0 0.02 0 0 0.04 0 0 0.06 0 0 0.08 0 0 0.1 0 0 0 0.005 0 0.02 0.005 0 0.04 0.005 0 0.06 0.005 0 0.08 0.005 0 0.1 0.005 0 0 0.01 0 0.02 0.01 0 0.04 0.01 0 0.06 0.01 0 0.08 0.01 0 0.1 0.01 0 0 0.015 0 0.02 0.015 0 0.04 0.015 0 0.06 0.015 0 0.08 0.015 0 0.1 0.015 0 0 0.02 0 0.02 0.02 0 0.04 0.02 0 0.06 0.02 0 0.08 0.02 0 0.1 0.02 0 0 0.025 0 0.02 0.025 0 0.04 0.025 0 0.06 0.025 0 0.08 0.025 0 0.1 0.025 0 0 0.03 0 0.02 0.03 0 0.04 0.03 0 0.06 0.03 0 0.08 0.03 0 0.1 0.03 0 0 0.035 0 0.02 0.035 0 0.04 0.035 0 0.06 0.035 0 0.08 0.035 0 0.1 0.035 0 0 0.04 0 0.02 0.04 0 0.04 0.04 0 0.06 0.04 0 0.08 0.04 0 0.1 0.04 0 0 0.045 0 0.02 0.045 0 0.04 0.045 0 0.06 0.045 0 0.08 0.045 0 0.1 0.045 0 0 0.05 0 0.02 0.05 0 0.04 0.05 0 0.06 0.05 0 0.08 0.05 0 0.1 0.05 0 0 0.055 0 0.02 0.055 0 0.04 0.055 0 0.06 0.055 0 0.08 0.055 0 0.1 0.055 0 0 0.06 0 0.02 0.06 0 0.04 0.06 0 0.06 0.06 0 0.08 0.06 0 0.1 0.06 0 0 0.065 0 0.02 0.065 0 0.04 0.065 0 0.06 0.065 0 0.08 0.065 0 0.1 0.065 0 0 0.07 0 0.02 0.07 0 0.04 0.07 0 0.06 0.07 0 0.08 0.07 0 0.1 0.07 0 0 0.075 0 0.02 0.075 0 0.04 0.075 0 0.06 0.075 0 0.08 0.075 0 0.1 0.075 0 0 0.08 0 0.02 0.08 0 0.04 0.08 0 0.06 0.08 0 0.08 0.08 0 0.1 0.08 0 0 0.085 0 0.02 0.085 0 0.04 0.085 0 0.06 0.085 0 0.08 0.085 0 0.1 0.085 0 0 0.09 0 0.02 0.09 0 0.04 0.09 0 0.06 0.09 0 0.08 0.09 0 0.1 0.09 0 0 0.095 0 0.02 0.095 0 0.04 0.095 0 0.06 0.095 0 0.08 0.095 0 0.1 0.095 0 0 0.1 0 0.02 0.1 0 0.04 0.1 0 0.06 0.1 0 0.08 0.1 0 0.1 0.1 0 0 0.105 0 0.02 0.105 0 0.04 0.105 0 0.06 0.105 0 0.08 0.105 0 0.1 0.105 0 0 0.11 0 0.02 0.11 0 0.04 0.11 0 0.06 0.11 0 0.08 0.11 0 0.1 0.11 0 0 0.115 0 0.02 0.115 0 0.04 0.115 0 0.06 0.115 0 0.08 0.115 0 0.1 0.115 0 0 0.12 0 0.02 0.12 0 0.04 0.12 0 0.06 0.12 0 0.08 0.12 0 0.1 0.12 0 0 0.125 0 0.02 0.125 0 0.04 0.125 0 0.06 0.125 0 0.08 0.125 0 0.1 0.125 0 0 0.13 0 0.02 0.13 0 0.04 0.13 0 0.06 0.13 0 0.08 0.13 0 0.1 0.13 0 0 0.135 0 0.02 0.135 0 0.04 0.135 0 0.06 0.135 0 0.08 0.135 0 0.1 0.135 0 0 0.14 0 0.02 0.14 0 0.04 0.14 0 0.06 0.14 0 0.08 0.14 0 0.1 0.14 0 0 0.145 0 0.02 0.145 0 0.04 0.145 0 0.06 0.145 0 0.08 0.145 0 0.1 0.145 0 0 0.15 0 0.02 0.15 0 0.04 0.15 0 0.06 0.15 0 0.08 0.15 0 0.1 0.15 0 0 0.155 0 0.02 0.155 0 0.04 0.155 0 0.06 0.155 0 0.08 0.155 0 0.1 0.155 0 0 0.16 0 0.02 0.16 0 0.04 0.16 0 0.06 0.16 0 0.08 0.16 0 0.1 0.16 0 0 0.165 0 0.02 0.165 0 0.04 0.165 0 0.06 0.165 0 0.08 0.165 0 0.1 0.165 0 0 0.17 0 0.02 0.17 0 0.04 0.17 0 0.06 0.17 0 0.08 0.17 0 0.1 0.17 0 0 0.175 0 0.02 0.175 0 0.04 0.175 0 0.06 0.175 0 0.08 0.175 0 0.1 0.175 0 0 0.18 0 0.02 0.18 0 0.04 0.18 0 0.06 0.18 0 0.08 0.18 0 0.1 0.18 0 0 0.185 0 0.02 0.185 0 0.04 0.185 0 0.06 0.185 0 0.08 0.185 0 0.1 0.185 0 0 0.19 0 0.02 0.19 0 0.04 0.19 0 0.06 0.19 0 0.08 0.19 0 0.1 0.19 0 0 0.195 0 0.02 0.195 0 0.04 0.195 0 0.06 0.195 0 0.08 0.195 0 0.1 0.195 0 0 0.2 0 0.02 0.2 0 0.04 0.2 0 0.06 0.2 0 0.08 0.2 0 0.1 0.2 0 0 0.205 0 0.02 0.205 0 0.04 0.205 0 0.06 0.205 0 0.08 0.205 0 0.1 0.205 0 0 0.21 0 0.02 0.21 0 0.04 0.21 0 0.06 0.21 0 0.08 0.21 0 0.1 0.21 0 0 0.215 0 0.02 0.215 0 0.04 0.215 0 0.06 0.215 0 0.08 0.215 0 0.1 0.215 0 0 0.22 0 0.02 0.22 0 0.04 0.22 0 0.06 0.22 0 0.08 0.22 0 0.1 0.22 0 0 0.225 0 0.02 0.225 0 0.04 0.225 0 0.06 0.225 0 0.08 0.225 0 0.1 0.225 0 0 0.23 0 0.02 0.23 0 0.04 0.23 0 0.06 0.23 0 0.08 0.23 0 0.1 0.23 0 0 0.235 0 0.02 0.235 0 0.04 0.235 0 0.06 0.235 0 0.08 0.235 0 0.1 0.235 0 0 0.24 0 0.02 0.24 0 0.04 0.24 0 0.06 0.24 0 0.08 0.24 0 0.1 0.24 0 0 0.245 0 0.02 0.245 0 0.04 0.245 0 0.06 0.245 0 0.08 0.245 0 0.1 0.245 0 0 0.25 0 0.02 0.25 0 0.04 0.25 0 0.06 0.25 0 0.08 0.25 0 0.1 0.25 0 0 0.255 0 0.02 0.255 0 0.04 0.255 0 0.06 0.255 0 0.08 0.255 0 0.1 0.255 0 0 0.26 0 0.02 0.26 0 0.04 0.26 0 0.06 0.26 0 0.08 0.26 0 0.1 0.26 0 0 0.265 0 0.02 0.265 0 0.04 0.265 0 0.06 0.265 0 0.08 0.265 0 0.1 0.265 0 0 0.27 0 0.02 0.27 0 0.04 0.27 0 0.06 0.27 0 0.08 0.27 0 0.1 0.27 0 0 0.275 0 0.02 0.275 0 0.04 0.275 0 0.06 0.275 0 0.08 0.275 0 0.1 0.275 0 0 0.28 0 0.02 0.28 0 0.04 0.28 0 0.06 0.28 0 0.08 0.28 0 0.1 0.28 0 0 0.285 0 0.02 0.285 0 0.04 0.285 0 0.06 0.285 0 0.08 0.285 0 0.1 0.285 0 0 0.29 0 0.02 0.29 0 0.04 0.29 0 0.06 0.29 0 0.08 0.29 0 0.1 0.29 0 0 0.295 0 0.02 0.295 0 0.04 0.295 0 0.06 0.295 0 0.08 0.295 0 0.1 0.295 0 0 0.3 0 0.02 0.3 0 0.04 0.3 0 0.06 0.3 0 0.08 0.3 0 0.1 0.3 0 0 0.305 0 0.02 0.305 0 0.04 0.305 0 0.06 0.305 0 0.08 0.305 0 0.1 0.305 0 0 0.31 0 0.02 0.31 0 0.04 0.31 0 0.06 0.31 0 0.08 0.31 0 0.1 0.31 0 0 0.315 0 0.02 0.315 0 0.04 0.315 0 0.06 0.315 0 0.08 0.315 0 0.1 0.315 0 0 0.32 0 0.02 0.32 0 0.04 0.32 0 0.06 0.32 0 0.08 0.32 0 0.1 0.32 0 0 0.325 0 0.02 0.325 0 0.04 0.325 0 0.06 0.325 0 0.08 0.325 0 0.1 0.325 0 0 0.33 0 0.02 0.33 0 0.04 0.33 0 0.06 0.33 0 0.08 0.33 0 0.1 0.33 0 0 0.335 0 0.02 0.335 0 0.04 0.335 0 0.06 0.335 0 0.08 0.335 0 0.1 0.335 0 0 0.34 0 0.02 0.34 0 0.04 0.34 0 0.06 0.34 0 0.08 0.34 0 0.1 0.34 0 0 0.345 0 0.02 0.345 0 0.04 0.345 0 0.06 0.345 0 0.08 0.345 0 0.1 0.345 0 0 0.35 0 0.02 0.35 0 0.04 0.35 0 0.06 0.35 0 0.08 0.35 0 0.1 0.35 0 0 0.355 0 0.02 0.355 0 0.04 0.355 0 0.06 0.355 0 0.08 0.355 0 0.1 0.355 0 0 0.36 0 0.02 0.36 0 0.04 0.36 0 0.06 0.36 0 0.08 0.36 0 0.1 0.36 0 0 0.365 0 0.02 0.365 0 0.04 0.365 0 0.06 0.365 0 0.08 0.365 0 0.1 0.365 0 0 0.37 0 0.02 0.37 0 0.04 0.37 0 0.06 0.37 0 0.08 0.37 0 0.1 0.37 0 0 0.375 0 0.02 0.375 0 0.04 0.375 0 0.06 0.375 0 0.08 0.375 0 0.1 0.375 0 0 0.38 0 0.02 0.38 0 0.04 0.38 0 0.06 0.38 0 0.08 0.38 0 0.1 0.38 0 0 0.385 0 0.02 0.385 0 0.04 0.385 0 0.06 0.385 0 0.08 0.385 0 0.1 0.385 0 0 0.39 0 0.02 0.39 0 0.04 0.39 0 0.06 0.39 0 0.08 0.39 0 0.1 0.39 0 0 0.395 0 0.02 0.395 0 0.04 0.395 0 0.06 0.395 0 0.08 0.395 0 0.1 0.395 0 0 0.4 0 0.02 0.4 0 0.04 0.4 0 0.06 0.4 0 0.08 0.4 0 0.1 0.4 0 0 0.405 0 0.02 0.405 0 0.04 0.405 0 0.06 0.405 0 0.08 0.405 0 0.1 0.405 0 0 0.41 0 0.02 0.41 0 0.04 0.41 0 0.06 0.41 0 0.08 0.41 0 0.1 0.41 0 0 0.415 0 0.02 0.415 0 0.04 0.415 0 0.06 0.415 0 0.08 0.415 0 0.1 0.415 0 0 0.42 0 0.02 0.42 0 0.04 0.42 0 0.06 0.42 0 0.08 0.42 0 0.1 0.42 0 0 0.425 0 0.02 0.425 0 0.04 0.425 0 0.06 0.425 0 0.08 0.425 0 0.1 0.425 0 0 0.43 0 0.02 0.43 0 0.04 0.43 0 0.06 0.43 0 0.08 0.43 0 0.1 0.43 0 0 0.435 0 0.02 0.435 0 0.04 0.435 0 0.06 0.435 0 0.08 0.435 0 0.1 0.435 0 0 0.44 0 0.02 0.44 0 0.04 0.44 0 0.06 0.44 0 0.08 0.44 0 0.1 0.44 0 0 0.445 0 0.02 0.445 0 0.04 0.445 0 0.06 0.445 0 0.08 0.445 0 0.1 0.445 0 0 0.45 0 0.02 0.45 0 0.04 0.45 0 0.06 0.45 0 0.08 0.45 0 0.1 0.45 0 0 0.455 0 0.02 0.455 0 0.04 0.455 0 0.06 0.455 0 0.08 0.455 0 0.1 0.455 0 0 0.46 0 0.02 0.46 0 0.04 0.46 0 0.06 0.46 0 0.08 0.46 0 0.1 0.46 0 0 0.465 0 0.02 0.465 0 0.04 0.465 0 0.06 0.465 0 0.08 0.465 0 0.1 0.465 0 0 0.47 0 0.02 0.47 0 0.04 0.47 0 0.06 0.47 0 0.08 0.47 0 0.1 0.47 0 0 0.475 0 0.02 0.475 0 0.04 0.475 0 0.06 0.475 0 0.08 0.475 0 0.1 0.475 0 0 0.48 0 0.02 0.48 0 0.04 0.48 0 0.06 0.48 0 0.08 0.48 0 0.1 0.48 0 0 0.485 0 0.02 0.485 0 0.04 0.485 0 0.06 0.485 0 0.08 0.485 0 0.1 0.485 0 0 0.49 0 0.02 0.49 0 0.04 0.49 0 0.06 0.49 0 0.08 0.49 0 0.1 0.49 0 0 0.495 0 0.02 0.495 0 0.04 0.495 0 0.06 0.495 0 0.08 0.495 0 0.1 0.495 0 0 0.5 0 0.02 0.5 0 0.04 0.5 0 0.06 0.5 0 0.08 0.5 0 0.1 0.5 0 0 0.505 0 0.02 0.505 0 0.04 0.505 0 0.06 0.505 0 0.08 0.505 0 0.1 0.505 0 0 0.51 0 0.02 0.51 0 0.04 0.51 0 0.06 0.51 0 0.08 0.51 0 0.1 0.51 0 0 0.515 0 0.02 0.515 0 0.04 0.515 0 0.06 0.515 0 0.08 0.515 0 0.1 0.515 0 0 0.52 0 0.02 0.52 0 0.04 0.52 0 0.06 0.52 0 0.08 0.52 0 0.1 0.52 0 0 0.525 0 0.02 0.525 0 0.04 0.525 0 0.06 0.525 0 0.08 0.525 0 0.1 0.525 0 0 0.53 0 0.02 0.53 0 0.04 0.53 0 0.06 0.53 0 0.08 0.53 0 0.1 0.53 0 0 0.535 0 0.02 0.535 0 0.04 0.535 0 0.06 0.535 0 0.08 0.535 0 0.1 0.535 0 0 0.54 0 0.02 0.54 0 0.04 0.54 0 0.06 0.54 0 0.08 0.54 0 0.1 0.54 0 0 0.545 0 0.02 0.545 0 0.04 0.545 0 0.06 0.545 0 0.08 0.545 0 0.1 0.545 0 0 0.55 0 0.02 0.55 0 0.04 0.55 0 0.06 0.55 0 0.08 0.55 0 0.1 0.55 0 0 0.555 0 0.02 0.555 0 0.04 0.555 0 0.06 0.555 0 0.08 0.555 0 0.1 0.555 0 0 0.56 0 0.02 0.56 0 0.04 0.56 0 0.06 0.56 0 0.08 0.56 0 0.1 0.56 0 0 0.565 0 0.02 0.565 0 0.04 0.565 0 0.06 0.565 0 0.08 0.565 0 0.1 0.565 0 0 0.57 0 0.02 0.57 0 0.04 0.57 0 0.06 0.57 0 0.08 0.57 0 0.1 0.57 0 0 0.575 0 0.02 0.575 0 0.04 0.575 0 0.06 0.575 0 0.08 0.575 0 0.1 0.575 0 0 0.58 0 0.02 0.58 0 0.04 0.58 0 0.06 0.58 0 0.08 0.58 0 0.1 0.58 0 0 0.585 0 0.02 0.585 0 0.04 0.585 0 0.06 0.585 0 0.08 0.585 0 0.1 0.585 0 0 0.59 0 0.02 0.59 0 0.04 0.59 0 0.06 0.59 0 0.08 0.59 0 0.1 0.59 0 0 0.595 0 0.02 0.595 0 0.04 0.595 0 0.06 0.595 0 0.08 0.595 0 0.1 0.595 0 0 0.6 0 0.02 0.6 0 0.04 0.6 0 0.06 0.6 0 0.08 0.6 0 0.1 0.6 0 0 0.605 0 0.02 0.605 0 0.04 0.605 0 0.06 0.605 0 0.08 0.605 0 0.1 0.605 0 0 0.61 0 0.02 0.61 0 0.04 0.61 0 0.06 0.61 0 0.08 0.61 0 0.1 0.61 0 0 0.615 0 0.02 0.615 0 0.04 0.615 0 0.06 0.615 0 0.08 0.615 0 0.1 0.615 0 0 0.62 0 0.02 0.62 0 0.04 0.62 0 0.06 0.62 0 0.08 0.62 0 0.1 0.62 0 0 0.625 0 0.02 0.625 0 0.04 0.625 0 0.06 0.625 0 0.08 0.625 0 0.1 0.625 0 0 0.63 0 0.02 0.63 0 0.04 0.63 0 0.06 0.63 0 0.08 0.63 0 0.1 0.63 0 0 0.635 0 0.02 0.635 0 0.04 0.635 0 0.06 0.635 0 0.08 0.635 0 0.1 0.635 0 0 0.64 0 0.02 0.64 0 0.04 0.64 0 0.06 0.64 0 0.08 0.64 0 0.1 0.64 0 0 0.645 0 0.02 0.645 0 0.04 0.645 0 0.06 0.645 0 0.08 0.645 0 0.1 0.645 0 0 0.65 0 0.02 0.65 0 0.04 0.65 0 0.06 0.65 0 0.08 0.65 0 0.1 0.65 0 0 0.655 0 0.02 0.655 0 0.04 0.655 0 0.06 0.655 0 0.08 0.655 0 0.1 0.655 0 0 0.66 0 0.02 0.66 0 0.04 0.66 0 0.06 0.66 0 0.08 0.66 0 0.1 0.66 0 0 0.665 0 0.02 0.665 0 0.04 0.665 0 0.06 0.665 0 0.08 0.665 0 0.1 0.665 0 0 0.67 0 0.02 0.67 0 0.04 0.67 0 0.06 0.67 0 0.08 0.67 0 0.1 0.67 0 0 0.675 0 0.02 0.675 0 0.04 0.675 0 0.06 0.675 0 0.08 0.675 0 0.1 0.675 0 0 0.68 0 0.02 0.68 0 0.04 0.68 0 0.06 0.68 0 0.08 0.68 0 0.1 0.68 0 0 0.685 0 0.02 0.685 0 0.04 0.685 0 0.06 0.685 0 0.08 0.685 0 0.1 0.685 0 0 0.69 0 0.02 0.69 0 0.04 0.69 0 0.06 0.69 0 0.08 0.69 0 0.1 
[...]
			<PointData Scalars="VitesseX">
				<DataArray Name="VitesseX" type="Float32" format="ascii">
 0 7.61893e-15 -1.44029e-14 -1.4823e-14 -2.03061e-14 0 0 7.18552e-15 -1.42016e-14 -1.47498e-14 -2.03362e-14 0 0 4.77695e-15 -1.39363e-14 -1.54201e-14 -1.87649e-14 0 0 -2.4582e-15 -8.15479e-15 -2.12078e-14 -1.79879e-14 0 0 -5.04212e-15 -1.12831e-14 -1.80784e-14 -2.1642e-14 0 0 -7.68635e-15 -1.18961e-14 -2.10672e-14 -1.88135e-14 0 0 -1.02321e-14 -1.05275e-14 -2.92345e-14 -1.67829e-14 0 0 3.77141e-16 -3.00106e-14 -9.54394e-15 -3.7191e-14 0 0 -1.46123e-14 -1.4419e-14 -2.29544e-14 -3.15565e-14 0 0 -1.69821e-14 -2.33028e-14 -2.28023e-14 -2.50552e-14 0 0 3.34721e-15 -4.88794e-14 -2.26716e-14 -1.98979e-14 0 0 -8.85299e-16 -3.42627e-14 -4.8644e-14 -3.93967e-15 0 0 -5.01958e-15 -4.92085e-14 -8.64134e-15 -3.12688e-14 0 0 -1.54075e-14 -5.13677e-14 8.6065e-15 -2.89504e-14 0 0 -1.26596e-14 -4.70141e-14 -1.57365e-14 1.25916e-14 0 0 -1.20166e-14 -4.59362e-14 -7.84565e-15 2.31999e-15 0 0 2.81347e-16 -4.04833e-14 -8.60998e-15 -7.40734e-15 0 0 8.14796e-16 -2.04306e-14 -3.67784e-14 3.25273e-14 0 0 6.01066e-15 -3.17238e-14 -1.8611e-14 4.15579e-14 0 0 -1.67604e-15 7.19698e-16 -3.8208e-14 3.10867e-14 0 0 -4.95673e-14 8.69626e-14 -9.27628e-14 2.81374e-14 0 0 -1.81002e-14 2.91116e-14 -2.91527e-14 -5.79061e-15 0 0 -4.53955e-15 1.05849e-15 -5.34775e-16 -2.64013e-14 0 0 -2.06628e-14 3.68184e-14 -5.89278e-14 5.05908e-15 0 0 1.97387e-14 -3.32044e-14 -8.30572e-15 -2.66654e-14 0 0 3.959e-14 -1.06133e-13 7.02937e-14 -7.96567e-14 0 0 -5.69625e-14 9.51028e-15 -4.25276e-14 -1.6572e-14 0 0 -5.59676e-14 -4.78432e-15 -3.2848e-14 -3.54437e-14 0 0 -2.84402e-14 -4.59293e-14 1.28572e-14 -8.44051e-14 0 0 -8.71013e-14 3.42648e-14 -5.72557e-14 -5.70048e-14 0 0 -4.62411e-14 -5.85982e-14 5.43782e-14 -1.53546e-13 0 0 -2.64728e-14 -7.56288e-14 4.71779e-14 -1.53953e-13 0 0 -4.15219e-14 -1.68451e-14 -6.85367e-14 -4.40694e-14 0 0 -3.36855e-14 -1.98132e-14 -5.56607e-14 -5.21635e-14 0 0 -4.19592e-14 9.03886e-15 -7.4102e-14 -3.62892e-14 0 0 -2.02339e-14 -4.17139e-14 -2.99722e-14 -2.5949e-14 0 0 -1.26879e-14 -7.25887e-14 -1.42803e-14 1.15165e-14 0 0 -5.72986e-14 1.05283e-14 -7.63677e-14 5.20158e-14 0 0 -2.56352e-14 -5.48226e-15 -8.25095e-14 4.17413e-14 0 0 3.91113e-14 -1.03931e-13 6.60183e-15 -3.40879e-14 0 0 2.18167e-14 -6.09617e-14 -2.87379e-14 -8.67619e-15 0 0 -1.43864e-14 4.36937e-15 -8.66695e-14 4.52496e-14 0 0 -9.84049e-16 -2.91388e-14 5.96781e-15 -4.79034e-14 0 0 -3.6099e-14 3.72134e-14 -1.08862e-14 -6.40445e-14 0 0 -1.14887e-13 1.65463e-13 -9.39058e-14 -5.14712e-14 0 0 -4.94384e-14 1.35688e-13 -1.45061e-13 -2.89231e-14 0 0 2.66094e-14 -2.84703e-15 -3.43007e-14 -8.16238e-14 0 0 4.46155e-14 -5.81318e-14 6.63739e-14 -1.37863e-13 0 0 -4.43524e-14 9.41349e-14 -1.28107e-14 -9.64652e-14 0 0 -1.137e-13 1.42852e-13 1.9853e-14 -9.16108e-14 0 0 -8.06031e-14 5.73709e-14 5.39412e-14 -4.73333e-14 0 0 -1.33202e-13 5.4543e-14 1.60807e-14 1.79162e-14 0 0 -1.87095e-13 8.10473e-14 1.55648e-14 7.59465e-16 0 0 -2.14496e-13 2.06867e-13 -1.64767e-13 4.63885e-14 0 0 -1.29275e-13 1.08957e-13 -1.51299e-13 -1.14886e-14 0 0 3.921e-14 -2.03815e-13 1.3674e-13 -2.26223e-13 0 0 -6.74705e-14 -3.32771e-14 -4.1015e-14 -1.52584e-13 0 0 -1.16493e-13 9.37281e-14 -2.24806e-13 -1.162e-14 0 0 -7.69562e-14 -1.35123e-15 -1.58185e-13 -2.20233e-14 0 0 -1.34848e-13 -4.41164e-14 -9.08032e-14 -1.34252e-13 0 0 -8.55424e-14 -1.44593e-13 -3.90438e-14 -2.55507e-13 0 0 -2.11621e-14 -7.76493e-14 -2.09039e-13 -2.07703e-13 0 0 7.85896e-14 -9.88786e-14 -2.40669e-13 -2.01378e-13 0 0 6.6598e-14 -2.49008e-14 -2.55402e-13 -1.90472e-13 0 0 6.6892e-14 2.87271e-15 -2.02218e-13 -2.00853e-13 0 0 5.06117e-14 -3.85417e-14 -1.13054e-13 -1.98852e-13 0 0 -1.10207e-13 1.00075e-13 -2.49598e-13 -5.75663e-14 0 0 -1.34554e-13 -2.92786e-15 -1.39749e-13 -8.81558e-14 0 0 -4.46681e-14 -2.85243e-13 2.22164e-13 -2.96326e-13 0 0 -6.99775e-14 -2.229e-13 2.07466e-13 -3.97347e-13 0 0 -5.50096e-14 -7.17564e-14 -1.5274e-14 -3.41099e-13 0 0 2.4304e-15 5.5842e-14 -3.20563e-13 -2.3301e-13 0 0 -2.17097e-14 2.23569e-14 -2.71552e-13 -3.21459e-13 0 0 -7.31136e-14 -1.12733e-13 -6.55403e-14 -5.22619e-13 0 0 -1.6154e-13 -1.88603e-13 1.31633e-13 -6.46475e-13 0 0 -2.61442e-13 -1.99176e-13 1.01165e-13 -5.26887e-13 0 0 -3.11784e-13 -1.84583e-13 1.58138e-14 -3.32827e-13 0 0 -3.52326e-13 -1.23471e-13 -3.77222e-14 -7.01586e-14 0 0 -3.95161e-13 -1.12087e-13 -1.25809e-14 -3.29289e-14 0 0 -4.52646e-13 -1.25539e-13 9.16826e-14 -1.03366e-13 0 0 -4.9369e-13 -1.78802e-13 2.59809e-13 -3.0073e-13 0 0 -5.67728e-13 -1.58462e-13 2.86197e-13 -3.88308e-13 0 0 -6.71671e-13 -2.10138e-14 2.0912e-13 -3.71126e-13 0 0 -6.03411e-13 -6.44998e-15 7.07163e-14 -3.03148e-13 0 0 -4.47667e-13 -7.73359e-14 5.76255e-15 -2.5754e-13 0 0 -1.96487e-13 -2.74775e-13 -8.07148e-14 -1.93477e-13 0 0 -1.81507e-14 -3.01624e-13 -2.14487e-13 -1.13427e-13 0 0 -9.40118e-15 -2.34875e-13 -4.05036e-13 -3.71257e-14 0 0 -5.69284e-14 -1.2728e-13 -5.73582e-13 9.54325e-14 0 0 -8.98424e-14 -1.4652e-13 -5.25975e-13 9.23421e-14 0 0 -3.8124e-14 -2.84623e-13 -3.33838e-13 -3.61505e-14 0 0 9.84237e-14 -5.29732e-13 7.24583e-15 -3.40302e-13 0 0 1.16099e-13 -5.67695e-13 1.37354e-13 -6.32412e-13 0 0 3.17406e-14 -4.63363e-13 7.10665e-14 -7.18406e-13 0 0 -1.65179e-13 -2.46033e-13 -8.28689e-14 -7.69234e-13 0 0 -4.03622e-13 -4.42685e-14 -2.21991e-13 -8.21324e-13 0 0 -5.67632e-13 1.73028e-13 -3.5959e-13 -8.02909e-13 0 0 -5.88335e-13 2.39117e-13 -4.6714e-13 -7.36631e-13 0 0 -4.78976e-13 1.74179e-13 -5.43282e-13 -5.84737e-13 0 0 -2.30442e-13 1.78532e-14 -6.42888e-13 -3.66369e-13 0 0 3.56864e-14 -1.67362e-13 -7.62305e-13 -1.36744e-13 0 0 2.19704e-13 -3.39033e-13 -7.5193e-13 8.37448e-15 0 0 2.77213e-13 -4.23102e-13 -7.24886e-13 9.98968e-14 0 0 2.14992e-13 -4.25398e-13 -6.94157e-13 1.00241e-13 0 0 1.08315e-13 -4.45172e-13 -6.28098e-13 7.09308e-14 0 0 3.29709e-14 -5.42952e-13 -4.55048e-13 -3.61724e-15 0 0 -3.37724e-14 -5.74567e-13 -2.20726e-13 -1.23503e-13 0 0 -1.11936e-13 -5.15719e-13 -2.38814e-13 -8.89326e-14 0 0 -1.58909e-13 -4.37917e-13 -3.02105e-13 -2.11212e-14 0 0 -1.61686e-13 -4.08522e-13 -3.09321e-13 -8.01423e-14 0 0 -1.56426e-13 -3.57865e-13 -3.59443e-13 -7.61441e-14 0 0 -1.58291e-13 -2.69546e-13 -4.35599e-13 3.02613e-14 0 0 -1.86301e-13 -1.71624e-13 -4.49145e-13 3.60779e-14 0 0 -1.97411e-13 -1.78871e-13 -4.03869e-13 -1.28388e-14 0 0 -2.32543e-13 -1.65604e-13 -2.95375e-13 -1.01071e-13 0 0 -2.50073e-13 -1.71046e-13 -1.05349e-13 -2.00241e-13 0 0 -2.13729e-13 -1.77435e-13 -7.73008e-14 -1.70244e-13 0 0 -1.61882e-13 -1.47268e-13 -1.3374e-13 -7.79031e-14 0 0 -1.26174e-13 -1.59864e-13 -1.07838e-13 -2.6975e-14 0 0 -8.71753e-14 -1.63954e-13 -1.15272e-13 2.55007e-14 0 0 -6.27853e-14 -1.80615e-13 -8.33979e-14 3.43524e-14 0 0 -8.94863e-14 -1.92268e-13 -2.00556e-14 6.91073e-14 0 0 -1.14257e-13 -1.71942e-13 -1.55724e-14 9.05691e-14 0 0 -1.15202e-13 -1.60532e-13 4.13974e-14 3.12012e-14 0 0 -1.54597e-13 -1.19519e-13 9.37078e-14 -1.55929e-14 0 0 -1.82156e-13 -5.09281e-14 1.04362e-13 -7.18642e-14 0 0 -1.92804e-13 3.14279e-14 7.75025e-14 -3.48333e-14 0 0 -2.0249e-13 6.72829e-14 4.11704e-14 3.53609e-14 0 0 -1.71387e-13 3.53659e-14 6.44665e-14 8.77134e-15 0 0 -1.29615e-13 -9.8303e-15 8.29831e-14 -3.31636e-14 0 0 -9.92298e-14 -5.61358e-14 5.87279e-14 -3.43556e-14 0 0 -9.06899e-14 -8.03306e-14 1.49597e-14 -7.68428e-15 0 0 -1.02356e-13 -1.04247e-13 -1.20551e-14 1.59653e-14 0 0 -1.23731e-13 -1.00053e-13 -5.91419e-14 1.96565e-14 0 0 -1.29826e-13 -8.41901e-14 -8.01638e-14 -1.17411e-14 0 0 -1.00306e-13 -1.59327e-13 -7.08358e-16 -1.26046e-13 0 0 -8.12212e-14 -2.19065e-13 9.64359e-15 -1.44005e-13 0 0 -9.66121e-14 -1.8305e-13 -1.1613e-13 -2.48726e-14 0 0 -1.16195e-13 -1.23558e-13 -1.92591e-13 4.41234e-15 0 0 -1.1095e-13 -1.14598e-13 -1.76978e-13 -7.82588e-14 0 0 -9.01715e-14 -1.39527e-13 -1.20408e-13 -1.96223e-13 0 0 -6.90748e-14 -1.72403e-13 -7.74474e-14 -2.34874e-13 0 0 -6.87561e-14 -1.4672e-13 -1.28617e-13 -2.09e-13 0 0 -6.07804e-14 -1.47348e-13 -1.63395e-13 -2.02098e-13 0 0 -3.952e-14 -2.20646e-13 -1.24298e-13 -1.8624e-13 0 0 -5.64724e-14 -2.41308e-13 -1.23799e-13 -2.42909e-13 0 0 -7.15655e-14 -2.2995e-13 -1.9791e-13 -2.60879e-13 0 0 -7.08408e-14 -2.23047e-13 -2.71022e-13 -2.25642e-13 0 0 -7.24627e-14 -2.31374e-13 -3.21321e-13 -2.44267e-13 0 0 -7.57575e-14 -2.28301e-13 -3.80577e-13 -2.60056e-13 0 0 -7.82907e-14 -2.10254e-13 -4.73807e-13 -3.33437e-13 0 0 -8.28935e-14 -1.60884e-13 -5.47243e-13 -4.41829e-13 0 0 -7.54676e-14 -1.51787e-13 -5.47805e-13 -4.12088e-13 0 0 -7.26571e-14 -2.06591e-13 -4.2484e-13 -1.78572e-13 0 0 -1.03885e-13 -2.04937e-13 -3.54058e-13 2.60704e-13 0 0 -1.27633e-13 -2.76952e-13 -1.44807e-13 2.43862e-13 0 0 -1.59704e-13 -2.81522e-13 -2.49421e-14 5.34186e-14 0 0 -1.41036e-13 -1.94399e-13 -1.40291e-13 -1.29026e-13 0 0 -1.11964e-13 -2.57363e-13 -4.27146e-14 -3.82647e-13 0 0 -1.21112e-13 -3.31226e-13 3.23826e-14 -2.40609e-13 0 0 -6.57408e-14 -3.26696e-13 -1.22794e-13 -8.68041e-15 0 0 -6.01651e-14 -2.54544e-13 -2.52949e-13 -1.98991e-14 0 0 -1.72808e-13 -7.60265e-14 -4.36022e-13 1.08246e-13 0 0 -1.85876e-13 -6.01601e-14 -5.28977e-13 2.65268e-13 0 0 -1.10717e-13 -2.19864e-13 -3.4293e-13 1.05503e-13 0 0 -8.92452e-14 -2.86232e-13 -2.55138e-13 -1.23881e-15 0 0 -1.0358e-13 -2.86686e-13 -2.8531e-13 1.10782e-13 0 0 -1.36137e-13 -2.76054e-13 -2.4599e-13 8.83791e-14 0 0 -1.73301e-13 -2.58644e-13 -1.94777e-13 -7.46422e-14 0 0 -2.89735e-13 -1.37274e-13 -2.62472e-13 -3.05757e-14 0 0 -2.67844e-13 -1.56071e-13 -2.54073e-13 6.36955e-14 0 0 -1.72878e-13 -2.55479e-13 -2.01627e-13 1.43121e-13 0 0 -1.11065e-13 -3.36147e-13 -8.49649e-14 8.66609e-14 0 0 -1.85376e-13 -1.82799e-13 -2.01275e-13 1.55611e-13 0 0 -2.52107e-13 -6.1586e-14 -2.91279e-13 2.76213e-13 0 0 -1.65493e-13 -1.78051e-13 -9.10237e-14 1.66796e-13 0 0 -9.45178e-14 -2.29723e-13 7.08753e-14 3.65263e-14 0 0 -6.08496e-14 -2.24377e-13 1.11545e-13 2.5467e-14 0 0 -6.35371e-14 -1.42937e-13 5.56992e-14 4.76055e-14 0 0 -4.3478e-14 -1.00334e-13 5.2316e-14 1.71121e-14 0 0 -8.5162e-14 4.76616e-14 -1.0681e-13 6.39802e-14 0 0 -6.42957e-14 4.79635e-14 -1.2427e-13 1.2555e-13 0 0 -6.48068e-14 1.18595e-14 -8.00021e-14 1.49514e-13 0 0 3.07989e-14 -1.38729e-13 7.63991e-14 -1.32344e-14 0 0 3.44298e-14 -1.6463e-13 1.24097e-13 -6.42236e-14 0 0 4.2668e-14 -1.4815e-13 1.89206e-13 -2.52172e-13 0 0 8.02277e-14 -1.24907e-13 1.35811e-13 -3.22845e-13 0 0 1.7785e-13 -2.19863e-13 7.54031e-14 -2.58169e-13 0 0 2.74774e-13 -2.72089e-13 -6.29123e-14 6.16303e-14 0 0 -2.36857e-14 1.67659e-13 -3.7623e-13 3.37631e-13 0 0 -4.52133e-14 1.32462e-13 -1.88996e-13 1.34704e-13 0 0 1.87852e-14 -2.78646e-15 4.30571e-14 -1.46413e-13 0 0 1.13875e-13 -1.82726e-13 2.2343e-13 -3.37519e-13 0 0 2.95654e-13 -4.75075e-13 3.32715e-13 -3.81542e-13 0 0 -1.40921e-13 1.03092e-13 -1.88473e-13 -8.19788e-14 0 0 -2.64992e-13 3.60776e-13 -5.59104e-13 2.66695e-13 0 0 2.57675e-13 -3.51655e-13 -6.73129e-14 1.14299e-13 0 0 5.01375e-13 -7.9433e-13 3.95114e-13 -1.08884e-13 0 0 2.6308e-13 -4.13834e-13 9.4065e-14 5.97425e-14 0 0 6.64837e-14 -2.10361e-13 8.78838e-14 1.56279e-14 0 0 1.60847e-13 -4.98201e-13 5.61037e-13 -3.50696e-13 0
				</DataArray>
				<DataArray Name="VitesseY" type="Float32" format="ascii">