<?xml version="1.0"?>
<VTKFile type="PolyData">
	<PolyData>
		<Piece NumberOfPoints="1206" NumberOfPolys="1000">
			<Points>
				<DataArray type="Float32" NumberOfComponents="3" format="ascii">
 0 0 0 0.02 0 0 0.04 0 0 0.06 0 0 0.08 0 0 0.1 0 0 0 0.005 0 0.02 0.005 0 0.04 0.005 0 0.06 0.005 0 0.08 0.005 0 0.1 0.005 0 0 0.01 0 0.02 0.01 0 0.04 0.01 0 0.06 0.01 0 0.08 0.01 0 0.1 0.01 0 0 0.015 0 0.02 0.015 0 0.04 0.015 0 0.06 0.015 0 0.08 0.015 0 0.1 0.015 0 0 0.02 0 0.02 0.02 0 0.04 0.02 0 0.06 0.02 0 0.08 0.02 0 0.1 0.02 0 0 0.025 0 0.02 0.025 0 0.04 0.025 0 0.06 0.025 0 0.08 0.025 0 0.1 0.025 0 0 0.03 0 0.02 0.03 0 0.04 0.03 0 0.06 0.03 0 0.08 0.03 0 0.1 0.03 0 0 0.035 0 0.02 0.035 0 0.04 0.035 0 0.06 0.035 0 0.08 0.035 0 0.1 0.035 0 0 0.04 0 0.02 0.04 0 0.04 0.04 0 0.06 0.04 0 0.08 0.04 0 0.1 0.04 0 0 0.045 0 0.02 0.045 0 0.04 0.045 0 0.06 0.045 0 0.08 0.045 0 0.1 0.045 0 0 0.05 0 0.02 0.05 0 0.04 0.05 0 0.06 0.05 0 0.08 0.05 0 0.1 0.05 0 0 0.055 0 0.02 0.055 0 0.04 0.055 0 0.06 0.055 0 0.08 0.055 0 0.1 0.055 0 0 0.06 0 0.02 0.06 0 0.04 0.06 0 0.06 0.06 0 0.08 0.06 0 0.1 0.06 0 0 0.065 0 0.02 0.065 0 0.04 0.065 0 0.06 0.065 0 0.08 0.065 0 0.1 0.065 0 0 0.07 0 0.02 0.07 0 0.04 0.07 0 0.06 0.07 0 0.08 0.07 0 0.1 0.07 0 0 0.075 0 0.02 0.075 0 0.04 0.075 0 0.06 0.075 0 0.08 0.075 0 0.1 0.075 0 0 0.08 0 0.02 0.08 0 0.04 0.08 0 0.06 0.08 0 0.08 0.08 0 0.1 0.08 0 0 0.085 0 0.02 0.085 0 0.04 0.085 0 0.06 0.085 0 0.08 0.085 0 0.1 0.085 0 0 0.09 0 0.02 0.09 0 0.04 0.09 0 0.06 0.09 0 0.08 0.09 0 0.1 0.09 0 0 0.095 0 0.02 0.095 0 0.04 0.095 0 0.06 0.095 0 0.08 0.095 0 0.1 0.095 0 0 0.1 0 0.02 0.1 0 0.04 0.1 0 0.06 0.1 0 0.08 0.1 0 0.1 0.1 0 0 0.105 0 0.02 0.105 0 0.04 0.105 0 0.06 0.105 0 0.08 0.105 0 0.1 0.105 0 0 0.11 0 0.02 0.11 0 0.04 0.11 0 0.06 0.11 0 0.08 0.11 0 0.1 0.11 0 0 0.115 0 0.02 0.115 0 0.04 0.115 0 0.06 0.115 0 0.08 0.115 0 0.1 0.115 0 0 0.12 0 0.02 0.12 0 0.04 0.12 0 0.06 0.12 0 0.08 0.12 0 0.1 0.12 0 0 0.125 0 0.02 0.125 0 0.04 0.125 0 0.06 0.125 0 0.08 0.125 0 0.1 0.125 0 0 0.13 0 0.02 0.13 0 0.04 0.13 0 0.06 0.13 0 0.08 0.13 0 0.1 0.13 0 0 0.135 0 0.02 0.135 0 0.04 0.135 0 0.06 0.135 0 0.08 0.135 0 0.1 0.135 0 0 0.14 0 0.02 0.14 0 0.04 0.14 0 0.06 0.14 0 0.08 0.14 0 0.1 0.14 0 0 0.145 0 0.02 0.145 0 0.04 0.145 0 0.06 0.145 0 0.08 0.145 0 0.1 0.145 0 0 0.15 0 0.02 0.15 0 0.04 0.15 0 0.06 0.15 0 0.08 0.15 0 0.1 0.15 0 0 0.155 0 0.02 0.155 0 0.04 0.155 0 0.06 0.155 0 0.08 0.155 0 0.1 0.155 0 0 0.16 0 0.02 0.16 0 0.04 0.16 0 0.06 0.16 0 0.08 0.16 0 0.1 0.16 0 0 0.165 0 0.02 0.165 0 0.04 0.165 0 0.06 0.165 0 0.08 0.165 0 0.1 0.165 0 0 0.17 0 0.02 0.17 0 0.04 0.17 0 0.06 0.17 0 0.08 0.17 0 0.1 0.17 0 0 0.175 0 0.02 0.175 0 0.04 0.175 0 0.06 0.175 0 0.08 0.175 0 0.1 0.175 0 0 0.18 0 0.02 0.18 0 0.04 0.18 0 0.06 0.18 0 0.08 0.18 0 0.1 0.18 0 0 0.185 0 0.02 0.185 0 0.04 0.185 0 0.06 0.185 0 0.08 0.185 0 0.1 0.185 0 0 0.19 0 0.02 0.19 0 0.04 0.19 0 0.06 0.19 0 0.08 0.19 0 0.1 0.19 0 0 0.195 0 0.02 0.195 0 0.04 0.195 0 0.06 0.195 0 0.08 0.195 0 0.1 0.195 0 0 0.2 0 0.02 0.2 0 0.04 0.2 0 0.06 0.2 0 0.08 0.2 0 0.1 0.2 0 0 0.205 0 0.02 0.205 0 0.04 0.205 0 0.06 0.205 0 0.08 0.205 0 0.1 0.205 0 0 0.21 0 0.02 0.21 0 0.04 0.21 0 0.06 0.21 0 0.08 0.21 0 0.1 0.21 0 0 0.215 0 0.02 0.215 0 0.04 0.215 0 0.06 0.215 0 0.08 0.215 0 0.1 0.215 0 0 0.22 0 0.02 0.22 0 0.04 0.22 0 0.06 0.22 0 0.08 0.22 0 0.1 0.22 0 0 0.225 0 0.02 0.225 0 0.04 0.225 0 0.06 0.225 0 0.08 0.225 0 0.1 0.225 0 0 0.23 0 0.02 0.23 0 0.04 0.23 0 0.06 0.23 0 0.08 0.23 0 0.1 0.23 0 0 0.235 0 0.02 0.235 0 0.04 0.235 0 0.06 0.235 0 0.08 0.235 0 0.1 0.235 0 0 0.24 0 0.02 0.24 0 0.04 0.24 0 0.06 0.24 0 0.08 0.24 0 0.1 0.24 0 0 0.245 0 0.02 0.245 0 0.04 0.245 0 0.06 0.245 0 0.08 0.245 0 0.1 0.245 0 0 0.25 0 0.02 0.25 0 0.04 0.25 0 0.06 0.25 0 0.08 0.25 0 0.1 0.25 0 0 0.255 0 0.02 0.255 0 0.04 0.255 0 0.06 0.255 0 0.08 0.255 0 0.1 0.255 0 0 0.26 0 0.02 0.26 0 0.04 0.26 0 0.06 0.26 0 0.08 0.26 0 0.1 0.26 0 0 0.265 0 0.02 0.265 0 0.04 0.265 0 0.06 0.265 0 0.08 0.265 0 0.1 0.265 0 0 0.27 0 0.02 0.27 0 0.04 0.27 0 0.06 0.27 0 0.08 0.27 0 0.1 0.27 0 0 0.275 0 0.02 0.275 0 0.04 0.275 0 0.06 0.275 0 0.08 0.275 0 0.1 0.275 0 0 0.28 0 0.02 0.28 0 0.04 0.28 0 0.06 0.28 0 0.08 0.28 0 0.1 0.28 0 0 0.285 0 0.02 0.285 0 0.04 0.285 0 0.06 0.285 0 0.08 0.285 0 0.1 0.285 0 0 0.29 0 0.02 0.29 0 0.04 0.29 0 0.06 0.29 0 0.08 0.29 0 0.1 0.29 0 0 0.295 0 0.02 0.295 0 0.04 0.295 0 0.06 0.295 0 0.08 0.295 0 0.1 0.295 0 0 0.3 0 0.02 0.3 0 0.04 0.3 0 0.06 0.3 0 0.08 0.3 0 0.1 0.3 0 0 0.305 0 0.02 0.305 0 0.04 0.305 0 0.06 0.305 0 0.08 0.305 0 0.1 0.305 0 0 0.31 0 0.02 0.31 0 0.04 0.31 0 0.06 0.31 0 0.08 0.31 0 0.1 0.31 0 0 0.315 0 0.02 0.315 0 0.04 0.315 0 0.06 0.315 0 0.08 0.315 0 0.1 0.315 0 0 0.32 0 0.02 0.32 0 0.04 0.32 0 0.06 0.32 0 0.08 0.32 0 0.1 0.32 0 0 0.325 0 0.02 0.325 0 0.04 0.325 0 0.06 0.325 0 0.08 0.325 0 0.1 0.325 0 0 0.33 0 0.02 0.33 0 0.04 0.33 0 0.06 0.33 0 0.08 0.33 0 0.1 0.33 0 0 0.335 0 0.02 0.335 0 0.04 0.335 0 0.06 0.335 0 0.08 0.335 0 0.1 0.335 0 0 0.34 0 0.02 0.34 0 0.04 0.34 0 0.06 0.34 0 0.08 0.34 0 0.1 0.34 0 0 0.345 0 0.02 0.345 0 0.04 0.345 0 0.06 0.345 0 0.08 0.345 0 0.1 0.345 0 0 0.35 0 0.02 0.35 0 0.04 0.35 0 0.06 0.35 0 0.08 0.35 0 0.1 0.35 0 0 0.355 0 0.02 0.355 0 0.04 0.355 0 0.06 0.355 0 0.08 0.355 0 0.1 0.355 0 0 0.36 0 0.02 0.36 0 0.04 0.36 0 0.06 0.36 0 0.08 0.36 0 0.1 0.36 0 0 0.365 0 0.02 0.365 0 0.04 0.365 0 0.06 0.365 0 0.08 0.365 0 0.1 0.365 0 0 0.37 0 0.02 0.37 0 0.04 0.37 0 0.06 0.37 0 0.08 0.37 0 0.1 0.37 0 0 0.375 0 0.02 0.375 0 0.04 0.375 0 0.06 0.375 0 0.08 0.375 0 0.1 0.375 0 0 0.38 0 0.02 0.38 0 0.04 0.38 0 0.06 0.38 0 0.08 0.38 0 0.1 0.38 0 0 0.385 0 0.02 0.385 0 0.04 0.385 0 0.06 0.385 0 0.08 0.385 0 0.1 0.385 0 0 0.39 0 0.02 0.39 0 0.04 0.39 0 0.06 0.39 0 0.08 0.39 0 0.1 0.39 0 0 0.395 0 0.02 0.395 0 0.04 0.395 0 0.06 0.395 0 0.08 0.395 0 0.1 0.395 0 0 0.4 0 0.02 0.4 0 0.04 0.4 0 0.06 0.4 0 0.08 0.4 0 0.1 0.4 0 0 0.405 0 0.02 0.405 0 0.04 0.405 0 0.06 0.405 0 0.08 0.405 0 0.1 0.405 0 0 0.41 0 0.02 0.41 0 0.04 0.41 0 0.06 0.41 0 0.08 0.41 0 0.1 0.41 0 0 0.415 0 0.02 0.415 0 0.04 0.415 0 0.06 0.415 0 0.08 0.415 0 0.1 0.415 0 0 0.42 0 0.02 0.42 0 0.04 0.42 0 0.06 0.42 0 0.08 0.42 0 0.1 0.42 0 0 0.425 0 0.02 0.425 0 0.04 0.425 0 0.06 0.425 0 0.08 0.425 0 0.1 0.425 0 0 0.43 0 0.02 0.43 0 0.04 0.43 0 0.06 0.43 0 0.08 0.43 0 0.1 0.43 0 0 0.435 0 0.02 0.435 0 0.04 0.435 0 0.06 0.435 0 0.08 0.435 0 0.1 0.435 0 0 0.44 0 0.02 0.44 0 0.04 0.44 0 0.06 0.44 0 0.08 0.44 0 0.1 0.44 0 0 0.445 0 0.02 0.445 0 0.04 0.445 0 0.06 0.445 0 0.08 0.445 0 0.1 0.445 0 0 0.45 0 0.02 0.45 0 0.04 0.45 0 0.06 0.45 0 0.08 0.45 0 0.1 0.45 0 0 0.455 0 0.02 0.455 0 0.04 0.455 0 0.06 0.455 0 0.08 0.455 0 0.1 0.455 0 0 0.46 0 0.02 0.46 0 0.04 0.46 0 0.06 0.46 0 0.08 0.46 0 0.1 0.46 0 0 0.465 0 0.02 0.465 0 0.04 0.465 0 0.06 0.465 0 0.08 0.465 0 0.1 0.465 0 0 0.47 0 0.02 0.47 0 0.04 0.47 0 0.06 0.47 0 0.08 0.47 0 0.1 0.47 0 0 0.475 0 0.02 0.475 0 0.04 0.475 0 0.06 0.475 0 0.08 0.475 0 0.1 0.475 0 0 0.48 0 0.02 0.48 0 0.04 0.48 0 0.06 0.48 0 0.08 0.48 0 0.1 0.48 0 0 0.485 0 0.02 0.485 0 0.04 0.485 0 0.06 0.485 0 0.08 0.485 0 0.1 0.485 0 0 0.49 0 0.02 0.49 0 0.04 0.49 0 0.06 0.49 0 0.08 0.49 0 0.1 0.49 0 0 0.495 0 0.02 0.495 0 0.04 0.495 0 0.06 0.495 0 0.08 0.495 0 0.1 0.495 0 0 0.5 0 0.02 0.5 0 0.04 0.5 0 0.06 0.5 0 0.08 0.5 0 0.1 0.5 0 0 0.505 0 0.02 0.505 0 0.04 0.505 0 0.06 0.505 0 0.08 0.505 0 0.1 0.505 0 0 0.51 0 0.02 0.51 0 0.04 0.51 0 0.06 0.51 0 0.08 0.51 0 0.1 0.51 0 0 0.515 0 0.02 0.515 0 0.04 0.515 0 0.06 0.515 0 0.08 0.515 0 0.1 0.515 0 0 0.52 0 0.02 0.52 0 0.04 0.52 0 0.06 0.52 0 0.08 0.52 0 0.1 0.52 0 0 0.525 0 0.02 0.525 0 0.04 0.525 0 0.06 0.525 0 0.08 0.525 0 0.1 0.525 0 0 0.53 0 0.02 0.53 0 0.04 0.53 0 0.06 0.53 0 0.08 0.53 0 0.1 0.53 0 0 0.535 0 0.02 0.535 0 0.04 0.535 0 0.06 0.535 0 0.08 0.535 0 0.1 0.535 0 0 0.54 0 0.02 0.54 0 0.04 0.54 0 0.06 0.54 0 0.08 0.54 0 0.1 0.54 0 0 0.545 0 0.02 0.545 0 0.04 0.545 0 0.06 0.545 0 0.08 0.545 0 0.1 0.545 0 0 0.55 0 0.02 0.55 0 0.04 0.55 0 0.06 0.55 0 0.08 0.55 0 0.1 0.55 0 0 0.555 0 0.02 0.555 0 0.04 0.555 0 0.06 0.555 0 0.08 0.555 0 0.1 0.555 0 0 0.56 0 0.02 0.56 0 0.04 0.56 0 0.06 0.56 0 0.08 0.56 0 0.1 0.56 0 0 0.565 0 0.02 0.565 0 0.04 0.565 0 0.06 0.565 0 0.08 0.565 0 0.1 0.565 0 0 0.57 0 0.02 0.57 0 0.04 0.57 0 0.06 0.57 0 0.08 0.57 0 0.1 0.57 0 0 0.575 0 0.02 0.575 0 0.04 0.575 0 0.06 0.575 0 0.08 0.575 0 0.1 0.575 0 0 0.58 0 0.02 0.58 0 0.04 0.58 0 0.06 0.58 0 0.08 0.58 0 0.1 0.58 0 0 0.585 0 0.02 0.585 0 0.04 0.585 0 0.06 0.585 0 0.08 0.585 0 0.1 0.585 0 0 0.59 0 0.02 0.59 0 0.04 0.59 0 0.06 0.59 0 0.08 0.59 0 0.1 0.59 0 0 0.595 0 0.02 0.595 0 0.04 0.595 0 0.06 0.595 0 0.08 0.595 0 0.1 0.595 0 0 0.6 0 0.02 0.6 0 0.04 0.6 0 0.06 0.6 0 0.08 0.6 0 0.1 0.6 0 0 0.605 0 0.02 0.605 0 0.04 0.605 0 0.06 0.605 0 0.08 0.605 0 0.1 0.605 0 0 0.61 0 0.02 0.61 0 0.04 0.61 0 0.06 0.61 0 0.08 0.61 0 0.1 0.61 0 0 0.615 0 0.02 0.615 0 0.04 0.615 0 0.06 0.615 0 0.08 0.615 0 0.1 0.615 0 0 0.62 0 0.02 0.62 0 0.04 0.62 0 0.06 0.62 0 0.08 0.62 0 0.1 0.62 0 0 0.625 0 0.02 0.625 0 0.04 0.625 0 0.06 0.625 0 0.08 0.625 0 0.1 0.625 0 0 0.63 0 0.02 0.63 0 0.04 0.63 0 0.06 0.63 0 0.08 0.63 0 0.1 0.63 0 0 0.635 0 0.02 0.635 0 0.04 0.635 0 0.06 0.635 0 0.08 0.635 0 0.1 0.635 0 0 0.64 0 0.02 0.64 0 0.04 0.64 0 0.06 0.64 0 0.08 0.64 0 0.1 0.64 0 0 0.645 0 0.02 0.645 0 0.04 0.645 0 0.06 0.645 0 0.08 0.645 0 0.1 0.645 0 0 0.65 0 0.02 0.65 0 0.04 0.65 0 0.06 0.65 0 0.08 0.65 0 0.1 0.65 0 0 0.655 0 0.02 0.655 0 0.04 0.655 0 0.06 0.655 0 0.08 0.655 0 0.1 0.655 0 0 0.66 0 0.02 0.66 0 0.04 0.66 0 0.06 0.66 0 0.08 0.66 0 0.1 0.66 0 0 0.665 0 0.02 0.665 0 0.04 0.665 0 0.06 0.665 0 0.08 0.665 0 0.1 0.665 0 0 0.67 0 0.02 0.67 0 0.04 0.67 0 0.06 0.67 0 0.08 0.67 0 0.1 0.67 0 0 0.675 0 0.02 0.675 0 0.04 0.675 0 0.06 0.675 0 0.08 0.675 0 0.1 0.675 0 0 0.68 0 0.02 0.68 0 0.04 0.68 0 0.06 0.68 0 0.08 0.68 0 0.1 0.68 0 0 0.685 0 0.02 0.685 0 0.04 0.685 0 0.06 0.685 0 0.08 0.685 0 0.1 0.685 0 0 0.69 0 0.02 0.69 0 0.04 0.69 0 0.06 0.69 0 0.08 0.69 0 0.1 
[...]
			<PointData Scalars="VitesseX">
				<DataArray Name="VitesseX" type="Float32" format="ascii">
 0 2.49344e-15 -1.41304e-14 -2.15658e-14 -2.92035e-14 0 0 1.5989e-15 -1.50865e-14 -2.01446e-14 -3.05719e-14 0 0 -1.25605e-15 -1.59399e-14 -1.93022e-14 -3.04947e-14 0 0 -7.82536e-15 -1.11765e-14 -2.6275e-14 -2.37383e-14 0 0 -5.00253e-15 -1.93459e-14 -2.1939e-14 -2.7798e-14 0 0 -1.3613e-15 -3.08425e-14 -8.2592e-15 -4.25296e-14 0 0 -1.28778e-14 -1.51899e-14 -2.60396e-14 -3.34819e-14 0 0 -2.63794e-14 1.38992e-15 -4.72409e-14 -2.25508e-14 0 0 -2.28282e-14 -1.29487e-14 -3.61973e-14 -2.32533e-14 0 0 -8.75599e-15 -4.13879e-14 -1.82667e-14 -1.59048e-14 0 0 -1.20788e-14 -5.45117e-14 -5.05293e-15 -8.90351e-15 0 0 -1.89631e-14 -4.86362e-14 -2.15452e-14 1.49044e-14 0 0 -1.71128e-14 -5.25491e-14 -2.07054e-14 2.16361e-14 0 0 -7.37432e-15 -6.91658e-14 1.00133e-14 -4.72742e-15 0 0 -2.70536e-15 -5.77621e-14 3.0273e-15 -1.04262e-14 0 0 5.04594e-15 -6.00617e-14 1.55547e-14 -1.78406e-14 0 0 5.56009e-16 -4.38208e-14 2.34532e-15 2.81866e-15 0 0 6.48494e-15 -2.22865e-14 -2.75538e-14 3.84943e-14 0 0 2.58996e-14 -2.30875e-14 -7.56096e-15 4.85545e-15 0 0 -1.49447e-14 5.14392e-14 -7.28428e-14 1.50465e-14 0 0 -1.95505e-14 5.19895e-14 -7.64754e-14 7.33652e-15 0 0 2.65747e-14 -2.21713e-14 -6.05243e-15 -4.55374e-14 0 0 4.28369e-15 9.34102e-15 -5.15703e-14 -3.06108e-14 0 0 -1.56923e-14 3.2654e-14 -1.07737e-13 1.75808e-14 0 0 5.04769e-15 -2.18964e-14 -7.8693e-14 2.24479e-14 0 0 1.79724e-14 -6.8727e-14 -9.96032e-15 -3.33879e-14 0 0 1.54682e-14 -5.66425e-14 -6.2309e-15 -6.48639e-14 0 0 -2.79158e-14 1.6259e-14 -7.78515e-14 -4.53781e-14 0 0 -1.84049e-14 -1.113e-14 -8.01977e-14 -2.86935e-14 0 0 -5.7985e-15 -6.97009e-14 2.05194e-15 -9.70221e-14 0 0 -2.23749e-14 -6.15169e-14 2.8486e-14 -1.3638e-13 0 0 -1.03229e-14 -7.9049e-14 4.63443e-14 -1.26706e-13 0 0 -1.96679e-14 -4.49282e-14 -2.64671e-15 -7.18534e-14 0 0 -6.04984e-15 -4.74861e-14 -2.85351e-14 -3.2221e-14 0 0 -3.75497e-14 -1.11681e-14 -5.03403e-14 -1.5949e-14 0 0 -1.66761e-14 -4.26955e-14 -1.11654e-14 -2.87721e-14 0 0 -8.33451e-15 -4.87762e-14 -1.44943e-14 -6.44626e-15 0 0 -2.97603e-14 -1.7686e-14 -6.53383e-14 7.67592e-14 0 0 -3.77131e-14 -2.91777e-14 -1.83553e-14 7.7467e-14 0 0 -2.44051e-14 -2.94899e-14 5.72198e-15 4.25143e-14 0 0 -5.09322e-15 -5.2829e-14 5.17315e-14 -3.05953e-14 0 0 -5.30751e-14 2.09127e-14 3.01181e-14 -8.47515e-14 0 0 -5.03698e-14 6.31729e-15 5.90102e-14 -1.43027e-13 0 0 -6.45717e-14 3.92558e-15 4.7077e-14 -1.62897e-13 0 0 -5.54013e-14 3.49963e-14 -8.36295e-14 -4.28608e-14 0 0 -6.60985e-14 7.3206e-14 -1.44667e-13 3.63557e-14 0 0 -3.04379e-14 8.32447e-14 -1.25945e-13 1.88663e-14 0 0 -9.50741e-15 2.36903e-14 -3.24428e-14 -1.77077e-14 0 0 -7.15216e-14 -3.20646e-14 5.71629e-14 -3.28119e-14 0 0 -2.94961e-14 -1.9084e-13 2.01829e-13 -1.08978e-13 0 0 8.05867e-15 -2.71272e-13 2.56638e-13 -1.3352e-13 0 0 -8.1879e-15 -1.53883e-13 8.74328e-14 -6.25534e-14 0 0 -8.25846e-14 3.34192e-14 -1.4299e-13 2.27331e-14 0 0 -1.19093e-13 5.06349e-14 -1.27768e-13 -4.92905e-14 0 0 -9.2305e-14 1.50113e-14 -4.89601e-14 -1.71266e-13 0 0 -1.63121e-15 -9.4723e-14 6.10365e-14 -2.53019e-13 0 0 -2.63644e-14 -1.34664e-13 5.44169e-14 -1.95072e-13 0 0 -1.40791e-13 -6.85534e-14 -1.43611e-13 -2.09283e-14 0 0 -1.51934e-13 -1.24574e-13 -1.83051e-13 -1.87566e-14 0 0 -5.65394e-14 -2.57063e-13 -8.12702e-14 -1.45598e-13 0 0 2.72556e-14 -2.8829e-13 -7.89409e-14 -2.103e-13 0 0 1.41707e-14 -1.86205e-13 -1.69528e-13 -1.6769e-13 0 0 1.44617e-14 -1.57814e-13 -1.19018e-13 -2.06238e-13 0 0 -5.59559e-14 -1.06683e-13 -9.94946e-14 -2.07953e-13 0 0 -1.44667e-13 -1.11322e-13 -7.04943e-14 -1.67514e-13 0 0 -2.31362e-13 -1.08232e-13 -8.48616e-14 -8.80021e-14 0 0 -3.03771e-13 -7.73879e-14 -1.15979e-13 -3.04361e-14 0 0 -2.81761e-13 -1.0166e-13 -7.2358e-14 -7.84408e-14 0 0 -2.06587e-13 -1.57967e-13 -1.84226e-14 -1.36751e-13 0 0 -1.49185e-13 -1.44253e-13 -1.14039e-13 -1.74933e-13 0 0 -1.22009e-13 -1.89718e-13 -1.23518e-13 -2.35531e-13 0 0 -1.07942e-13 -2.35267e-13 -9.7213e-14 -3.44247e-13 0 0 -1.35452e-13 -2.92761e-13 9.93223e-15 -4.256e-13 0 0 -1.70325e-13 -3.25327e-13 1.30325e-14 -3.98334e-13 0 0 -2.21675e-13 -2.82365e-13 -5.28151e-14 -3.18542e-13 0 0 -2.94209e-13 -2.37753e-13 -1.28969e-13 -2.69326e-13 0 0 -3.04191e-13 -2.85679e-13 -5.53308e-14 -3.01136e-13 0 0 -3.17114e-13 -3.40347e-13 8.58094e-14 -2.78772e-13 0 0 -3.65592e-13 -3.25657e-13 1.88115e-13 -2.57112e-13 0 0 -4.56502e-13 -2.3652e-13 1.86951e-13 -2.05169e-13 0 0 -5.13283e-13 -1.70942e-13 1.80624e-13 -1.3714e-13 0 0 -4.7378e-13 -2.15083e-13 2.33607e-13 -1.63246e-13 0 0 -3.72296e-13 -3.44737e-13 3.02991e-13 -2.49878e-13 0 0 -2.54285e-13 -4.23055e-13 2.91558e-13 -2.66351e-13 0 0 -1.56248e-13 -4.04512e-13 1.67781e-13 -2.18307e-13 0 0 -9.04579e-14 -3.40608e-13 -7.36324e-14 -1.06316e-13 0 0 -3.03999e-14 -2.34028e-13 -3.68692e-13 4.70985e-14 0 0 -2.28883e-14 -1.53033e-13 -5.19559e-13 8.04385e-14 0 0 -8.73281e-15 -1.14951e-13 -5.8442e-13 7.98155e-14 0 0 4.76484e-15 -1.24016e-13 -5.55378e-13 4.93041e-14 0 0 6.48305e-15 -1.41421e-13 -5.03557e-13 -1.12595e-14 0 0 6.64937e-15 -2.18257e-13 -3.74089e-13 -1.18022e-13 0 0 1.05172e-14 -3.86848e-13 -8.09994e-14 -3.31631e-13 0 0 -4.84663e-15 -4.66344e-13 1.75891e-13 -6.57437e-13 0 0 -2.17724e-14 -4.6499e-13 2.10319e-13 -8.21542e-13 0 0 -4.49345e-14 -3.98061e-13 1.36036e-13 -8.24945e-13 0 0 -1.24382e-13 -2.31339e-13 -8.43608e-14 -7.39269e-13 0 0 -2.77476e-13 4.73723e-14 -4.2865e-13 -5.6934e-13 0 0 -3.03036e-13 1.96734e-13 -6.68818e-13 -4.39906e-13 0 0 -2.71696e-13 2.11936e-13 -8.36912e-13 -3.31107e-13 0 0 -1.25681e-13 1.27978e-13 -8.90936e-13 -2.14944e-13 0 0 2.14149e-13 -1.31558e-13 -8.31329e-13 -1.43141e-13 0 0 6.59531e-13 -5.27613e-13 -7.23552e-13 -9.0478e-14 0 0 7.55425e-13 -6.57718e-13 -6.20344e-13 -1.27628e-13 0 0 6.98039e-13 -6.46731e-13 -5.00886e-13 -2.30893e-13 0 0 5.33398e-13 -5.80758e-13 -4.41168e-13 -3.13668e-13 0 0 3.37175e-13 -4.94583e-13 -4.52669e-13 -2.88698e-13 0 0 1.78637e-13 -4.35006e-13 -4.53722e-13 -2.19732e-13 0 0 1.82305e-14 -3.40111e-13 -5.09578e-13 -7.79394e-14 0 0 -8.39911e-14 -2.84334e-13 -5.18156e-13 -5.23606e-14 0 0 -1.67498e-13 -2.65606e-13 -4.50249e-13 -1.13455e-13 0 0 -2.09693e-13 -2.14042e-13 -4.90438e-13 -7.64347e-14 0 0 -2.03693e-13 -2.08199e-13 -4.73293e-13 -7.43099e-14 0 0 -2.12491e-13 -2.0427e-13 -4.27537e-13 -1.09481e-13 0 0 -2.12243e-13 -2.41916e-13 -3.37625e-13 -1.62866e-13 0 0 -1.99252e-13 -3.16084e-13 -1.57825e-13 -3.38493e-13 0 0 -2.11935e-13 -2.91972e-13 -1.62762e-13 -3.30462e-13 0 0 -2.48632e-13 -2.26494e-13 -2.18879e-13 -2.37952e-13 0 0 -2.95103e-13 -1.33611e-13 -3.04332e-13 -1.37678e-13 0 0 -2.70893e-13 -1.80936e-13 -2.23901e-13 -1.91517e-13 0 0 -2.34185e-13 -1.77283e-13 -2.08919e-13 -1.92217e-13 0 0 -1.8807e-13 -1.67096e-13 -2.67462e-13 -8.43296e-14 0 0 -1.23857e-13 -2.79638e-13 -1.44238e-13 -6.17341e-14 0 0 -1.13907e-13 -3.01688e-13 -1.22039e-13 -1.05104e-14 0 0 -1.51557e-13 -2.08757e-13 -2.02392e-13 3.10824e-14 0 0 -2.02151e-13 -9.76013e-14 -2.15365e-13 4.60211e-14 0 0 -2.13264e-13 -7.32757e-14 -1.64664e-13 3.6974e-14 0 0 -2.42821e-13 -3.23766e-14 -1.16674e-13 -2.9838e-14 0 0 -2.72832e-13 1.81009e-14 -7.48884e-14 -5.26259e-14 0 0 -2.58497e-13 1.11047e-14 -1.93883e-14 -6.70102e-14 0 0 -1.93953e-13 -4.68596e-14 3.81956e-15 -7.39282e-14 0 0 -1.54734e-13 -9.71411e-14 -5.87482e-15 -5.1205e-14 0 0 -1.5948e-13 -7.22855e-14 -8.51866e-14 -1.55152e-15 0 0 -1.74335e-13 -2.97874e-14 -2.16065e-13 7.78279e-14 0 0 -1.54013e-13 -9.77197e-14 -1.78019e-13 6.16437e-14 0 0 -1.32832e-13 -1.311e-13 -1.90311e-13 1.36018e-15 0 0 -1.31079e-13 -1.43758e-13 -2.27952e-13 4.45812e-14 0 0 -9.01838e-14 -2.29136e-13 -1.46775e-13 8.51649e-14 0 0 -1.06705e-13 -1.78426e-13 -1.31095e-13 -4.3235e-14 0 0 -1.50147e-13 -1.2234e-13 -1.2506e-13 -2.25548e-13 0 0 -1.55511e-13 -1.09467e-13 -1.45585e-13 -1.92239e-13 0 0 -1.37736e-13 -1.11824e-13 -1.81933e-13 -1.15075e-13 0 0 -9.86332e-14 -1.65126e-13 -1.58221e-13 -1.49547e-13 0 0 -1.03652e-13 -2.06941e-13 -9.18455e-14 -2.73256e-13 0 0 -1.15988e-13 -2.07648e-13 -1.16494e-13 -2.56494e-13 0 0 -1.15927e-13 -1.82674e-13 -2.20596e-13 -1.62509e-13 0 0 -1.14468e-13 -2.08664e-13 -2.05471e-13 -2.38368e-13 0 0 -1.12045e-13 -2.37205e-13 -1.93169e-13 -3.50148e-13 0 0 -1.0746e-13 -2.93475e-13 -1.62732e-13 -3.59281e-13 0 0 -1.11709e-13 -3.22835e-13 -1.77551e-13 -2.86632e-13 0 0 -1.20415e-13 -2.64723e-13 -3.4803e-13 -2.39837e-13 0 0 -1.25927e-13 -2.65194e-13 -4.39492e-13 -3.24081e-13 0 0 -1.26848e-13 -2.66322e-13 -4.53234e-13 -4.72759e-13 0 0 -1.30213e-13 -2.81063e-13 -4.34377e-13 -5.81041e-13 0 0 -1.43573e-13 -2.97396e-13 -3.84403e-13 -5.02472e-13 0 0 -1.65018e-13 -3.08061e-13 -3.1229e-13 -2.81627e-13 0 0 -1.76965e-13 -3.71785e-13 -1.8646e-13 2.09106e-14 0 0 -1.95089e-13 -3.95278e-13 -1.99685e-13 2.15554e-13 0 0 -2.37021e-13 -3.11048e-13 -2.9817e-13 1.12621e-13 0 0 -2.50794e-13 -2.84419e-13 -2.50269e-13 -1.41255e-13 0 0 -1.15593e-13 -4.95601e-13 2.54402e-14 -2.46032e-13 0 0 -2.95242e-14 -4.88611e-13 -8.73872e-14 -4.50009e-14 0 0 -9.6283e-14 -3.53628e-13 -3.06838e-13 -2.97125e-14 0 0 -1.89316e-13 -3.59703e-13 -3.06814e-13 -1.79825e-13 0 0 -1.81984e-13 -3.7982e-13 -4.38905e-13 3.52142e-14 0 0 -1.86612e-13 -3.03257e-13 -5.41005e-13 9.266e-14 0 0 -2.59794e-13 -2.57308e-13 -5.20832e-13 1.64364e-14 0 0 -2.13176e-13 -4.09234e-13 -4.05003e-13 1.4662e-14 0 0 -1.91422e-13 -4.39124e-13 -3.75073e-13 -5.08204e-14 0 0 -3.22928e-13 -3.04219e-13 -3.91368e-13 -9.99184e-14 0 0 -3.54915e-13 -3.34151e-13 -2.96232e-13 -1.63355e-13 0 0 -2.88896e-13 -3.61039e-13 -2.83176e-13 -1.50835e-13 0 0 -2.03953e-13 -4.08689e-13 -2.82667e-13 -8.52325e-14 0 0 -2.20738e-13 -4.37056e-13 -1.47426e-13 -1.73156e-13 0 0 -3.71097e-13 -1.86511e-13 -3.11793e-13 -6.63666e-15 0 0 -3.64745e-13 -1.40185e-13 -3.69527e-13 7.35243e-14 0 0 -2.52728e-13 -2.99467e-13 -9.25281e-14 -1.23669e-13 0 0 -1.7412e-13 -3.51055e-13 -5.12646e-14 -5.96469e-14 0 0 -1.80735e-13 -2.49301e-13 -2.34105e-13 5.83232e-14 0 0 -1.33721e-13 -2.75202e-13 -1.97686e-13 -1.17996e-14 0 0 -1.84107e-13 -2.63202e-13 -8.75852e-14 -1.10731e-13 0 0 -1.73666e-13 -2.39721e-13 -8.90284e-14 -1.45611e-13 0 0 -8.80327e-14 -1.6951e-13 -2.64485e-13 -7.15851e-14 0 0 -3.13694e-14 -2.00003e-13 -1.84531e-13 -1.99914e-13 0 0 1.93558e-14 -2.25141e-13 -1.38677e-13 -2.75388e-13 0 0 3.67763e-14 -2.06589e-13 -2.44869e-13 -6.24912e-14 0 0 7.2254e-14 -2.86931e-13 -1.02888e-13 -4.8418e-14 0 0 -2.74886e-14 -1.47915e-13 -1.87291e-13 8.36859e-14 0 0 -1.22373e-13 -7.24949e-14 -1.68262e-13 6.27897e-14 0 0 -9.24665e-15 -2.59801e-13 1.22301e-14 -1.61106e-13 0 0 -9.32132e-14 -1.12254e-13 -3.70114e-13 1.55083e-13 0 0 -5.30286e-14 -1.7211e-13 -3.10612e-13 1.42317e-14 0 0 8.09126e-14 -3.89138e-13 -1.07297e-13 -2.01157e-13 0 0 -3.14682e-14 -3.0297e-13 -5.62245e-14 -2.7016e-13 0 0 -1.13231e-13 -2.16489e-13 -9.45032e-14 -1.36621e-13 0 0 -2.28917e-13 -7.21753e-16 -4.44663e-13 2.02441e-13 0 0 -3.09621e-14 -2.28925e-13 -2.37121e-13 4.86451e-14 0 0 2.06093e-13 -6.51699e-13 2.24397e-13 -2.40148e-13 0 0 -5.0414e-14 -3.6502e-13 9.83157e-14 -2.71505e-13 0 0 -3.60971e-13 5.92246e-14 5.78279e-15 -4.24416e-13 0 0 -3.94166e-13 4.27322e-14 3.04248e-13 -7.69053e-13 0
				</DataArray>
				<DataArray Name="VitesseY" type="Float32" format="ascii">