<?xml version="1.0"?>
<VTKFile type="PolyData">
	<PolyData>
		<Piece NumberOfPoints="1206" NumberOfPolys="1000">
			<Points>
				<DataArray type="Float32" NumberOfComponents="3" format="ascii">
 0 0 0 0.02 0 0 0.04 0 0 0.06 0 0 0.08 0 0 0.1 0 0 0 0.005 0 0.02 0.005 0 0.04 0.005 0 0.06 0.005 0 0.08 0.005 0 0.1 0.005 0 0 0.01 0 0.02 0.01 0 0.04 0.01 0 0.06 0.01 0 0.08 0.01 0 0.1 0.01 0 0 0.015 0 0.02 0.015 0 0.04 0.015 0 0.06 0.015 0 0.08 0.015 0 0.1 0.015 0 0 0.02 0 0.02 0.02 0 0.04 0.02 0 0.06 0.02 0 0.08 0.02 0 0.1 0.02 0 0 0.025 0 0.02 0.025 0 0.04 0.025 0 0.06 0.025 0 0.08 0.025 0 0.1 0.025 0 0 0.03 0 0.02 0.03 0 0.04 0.03 0 0.06 0.03 0 0.08 0.03 0 0.1 0.03 0 0 0.035 0 0.02 0.035 0 0.04 0.035 0 0.06 0.035 0 0.08 0.035 0 0.1 0.035 0 0 0.04 0 0.02 0.04 0 0.04 0.04 0 0.06 0.04 0 0.08 0.04 0 0.1 0.04 0 0 0.045 0 0.02 0.045 0 0.04 0.045 0 0.06 0.045 0 0.08 0.045 0 0.1 0.045 0 0 0.05 0 0.02 0.05 0 0.04 0.05 0 0.06 0.05 0 0.08 0.05 0 0.1 0.05 0 0 0.055 0 0.02 0.055 0 0.04 0.055 0 0.06 0.055 0 0.08 0.055 0 0.1 0.055 0 0 0.06 0 0.02 0.06 0 0.04 0.06 0 0.06 0.06 0 0.08 0.06 0 0.1 0.06 0 0 0.065 0 0.02 0.065 0 0.04 0.065 0 0.06 0.065 0 0.08 0.065 0 0.1 0.065 0 0 0.07 0 0.02 0.07 0 0.04 0.07 0 0.06 0.07 0 0.08 0.07 0 0.1 0.07 0 0 0.075 0 0.02 0.075 0 0.04 0.075 0 0.06 0.075 0 0.08 0.075 0 0.1 0.075 0 0 0.08 0 0.02 0.08 0 0.04 0.08 0 0.06 0.08 0 0.08 0.08 0 0.1 0.08 0 0 0.085 0 0.02 0.085 0 0.04 0.085 0 0.06 0.085 0 0.08 0.085 0 0.1 0.085 0 0 0.09 0 0.02 0.09 0 0.04 0.09 0 0.06 0.09 0 0.08 0.09 0 0.1 0.09 0 0 0.095 0 0.02 0.095 0 0.04 0.095 0 0.06 0.095 0 0.08 0.095 0 0.1 0.095 0 0 0.1 0 0.02 0.1 0 0.04 0.1 0 0.06 0.1 0 0.08 0.1 0 0.1 0.1 0 0 0.105 0 0.02 0.105 0 0.04 0.105 0 0.06 0.105 0 0.08 0.105 0 0.1 0.105 0 0 0.11 0 0.02 0.11 0 0.04 0.11 0 0.06 0.11 0 0.08 0.11 0 0.1 0.11 0 0 0.115 0 0.02 0.115 0 0.04 0.115 0 0.06 0.115 0 0.08 0.115 0 0.1 0.115 0 0 0.12 0 0.02 0.12 0 0.04 0.12 0 0.06 0.12 0 0.08 0.12 0 0.1 0.12 0 0 0.125 0 0.02 0.125 0 0.04 0.125 0 0.06 0.125 0 0.08 0.125 0 0.1 0.125 0 0 0.13 0 0.02 0.13 0 0.04 0.13 0 0.06 0.13 0 0.08 0.13 0 0.1 0.13 0 0 0.135 0 0.02 0.135 0 0.04 0.135 0 0.06 0.135 0 0.08 0.135 0 0.1 0.135 0 0 0.14 0 0.02 0.14 0 0.04 0.14 0 0.06 0.14 0 0.08 0.14 0 0.1 0.14 0 0 0.145 0 0.02 0.145 0 0.04 0.145 0 0.06 0.145 0 0.08 0.145 0 0.1 0.145 0 0 0.15 0 0.02 0.15 0 0.04 0.15 0 0.06 0.15 0 0.08 0.15 0 0.1 0.15 0 0 0.155 0 0.02 0.155 0 0.04 0.155 0 0.06 0.155 0 0.08 0.155 0 0.1 0.155 0 0 0.16 0 0.02 0.16 0 0.04 0.16 0 0.06 0.16 0 0.08 0.16 0 0.1 0.16 0 0 0.165 0 0.02 0.165 0 0.04 0.165 0 0.06 0.165 0 0.08 0.165 0 0.1 0.165 0 0 0.17 0 0.02 0.17 0 0.04 0.17 0 0.06 0.17 0 0.08 0.17 0 0.1 0.17 0 0 0.175 0 0.02 0.175 0 0.04 0.175 0 0.06 0.175 0 0.08 0.175 0 0.1 0.175 0 0 0.18 0 0.02 0.18 0 0.04 0.18 0 0.06 0.18 0 0.08 0.18 0 0.1 0.18 0 0 0.185 0 0.02 0.185 0 0.04 0.185 0 0.06 0.185 0 0.08 0.185 0 0.1 0.185 0 0 0.19 0 0.02 0.19 0 0.04 0.19 0 0.06 0.19 0 0.08 0.19 0 0.1 0.19 0 0 0.195 0 0.02 0.195 0 0.04 0.195 0 0.06 0.195 0 0.08 0.195 0 0.1 0.195 0 0 0.2 0 0.02 0.2 0 0.04 0.2 0 0.06 0.2 0 0.08 0.2 0 0.1 0.2 0 0 0.205 0 0.02 0.205 0 0.04 0.205 0 0.06 0.205 0 0.08 0.205 0 0.1 0.205 0 0 0.21 0 0.02 0.21 0 0.04 0.21 0 0.06 0.21 0 0.08 0.21 0 0.1 0.21 0 0 0.215 0 0.02 0.215 0 0.04 0.215 0 0.06 0.215 0 0.08 0.215 0 0.1 0.215 0 0 0.22 0 0.02 0.22 0 0.04 0.22 0 0.06 0.22 0 0.08 0.22 0 0.1 0.22 0 0 0.225 0 0.02 0.225 0 0.04 0.225 0 0.06 0.225 0 0.08 0.225 0 0.1 0.225 0 0 0.23 0 0.02 0.23 0 0.04 0.23 0 0.06 0.23 0 0.08 0.23 0 0.1 0.23 0 0 0.235 0 0.02 0.235 0 0.04 0.235 0 0.06 0.235 0 0.08 0.235 0 0.1 0.235 0 0 0.24 0 0.02 0.24 0 0.04 0.24 0 0.06 0.24 0 0.08 0.24 0 0.1 0.24 0 0 0.245 0 0.02 0.245 0 0.04 0.245 0 0.06 0.245 0 0.08 0.245 0 0.1 0.245 0 0 0.25 0 0.02 0.25 0 0.04 0.25 0 0.06 0.25 0 0.08 0.25 0 0.1 0.25 0 0 0.255 0 0.02 0.255 0 0.04 0.255 0 0.06 0.255 0 0.08 0.255 0 0.1 0.255 0 0 0.26 0 0.02 0.26 0 0.04 0.26 0 0.06 0.26 0 0.08 0.26 0 0.1 0.26 0 0 0.265 0 0.02 0.265 0 0.04 0.265 0 0.06 0.265 0 0.08 0.265 0 0.1 0.265 0 0 0.27 0 0.02 0.27 0 0.04 0.27 0 0.06 0.27 0 0.08 0.27 0 0.1 0.27 0 0 0.275 0 0.02 0.275 0 0.04 0.275 0 0.06 0.275 0 0.08 0.275 0 0.1 0.275 0 0 0.28 0 0.02 0.28 0 0.04 0.28 0 0.06 0.28 0 0.08 0.28 0 0.1 0.28 0 0 0.285 0 0.02 0.285 0 0.04 0.285 0 0.06 0.285 0 0.08 0.285 0 0.1 0.285 0 0 0.29 0 0.02 0.29 0 0.04 0.29 0 0.06 0.29 0 0.08 0.29 0 0.1 0.29 0 0 0.295 0 0.02 0.295 0 0.04 0.295 0 0.06 0.295 0 0.08 0.295 0 0.1 0.295 0 0 0.3 0 0.02 0.3 0 0.04 0.3 0 0.06 0.3 0 0.08 0.3 0 0.1 0.3 0 0 0.305 0 0.02 0.305 0 0.04 0.305 0 0.06 0.305 0 0.08 0.305 0 0.1 0.305 0 0 0.31 0 0.02 0.31 0 0.04 0.31 0 0.06 0.31 0 0.08 0.31 0 0.1 0.31 0 0 0.315 0 0.02 0.315 0 0.04 0.315 0 0.06 0.315 0 0.08 0.315 0 0.1 0.315 0 0 0.32 0 0.02 0.32 0 0.04 0.32 0 0.06 0.32 0 0.08 0.32 0 0.1 0.32 0 0 0.325 0 0.02 0.325 0 0.04 0.325 0 0.06 0.325 0 0.08 0.325 0 0.1 0.325 0 0 0.33 0 0.02 0.33 0 0.04 0.33 0 0.06 0.33 0 0.08 0.33 0 0.1 0.33 0 0 0.335 0 0.02 0.335 0 0.04 0.335 0 0.06 0.335 0 0.08 0.335 0 0.1 0.335 0 0 0.34 0 0.02 0.34 0 0.04 0.34 0 0.06 0.34 0 0.08 0.34 0 0.1 0.34 0 0 0.345 0 0.02 0.345 0 0.04 0.345 0 0.06 0.345 0 0.08 0.345 0 0.1 0.345 0 0 0.35 0 0.02 0.35 0 0.04 0.35 0 0.06 0.35 0 0.08 0.35 0 0.1 0.35 0 0 0.355 0 0.02 0.355 0 0.04 0.355 0 0.06 0.355 0 0.08 0.355 0 0.1 0.355 0 0 0.36 0 0.02 0.36 0 0.04 0.36 0 0.06 0.36 0 0.08 0.36 0 0.1 0.36 0 0 0.365 0 0.02 0.365 0 0.04 0.365 0 0.06 0.365 0 0.08 0.365 0 0.1 0.365 0 0 0.37 0 0.02 0.37 0 0.04 0.37 0 0.06 0.37 0 0.08 0.37 0 0.1 0.37 0 0 0.375 0 0.02 0.375 0 0.04 0.375 0 0.06 0.375 0 0.08 0.375 0 0.1 0.375 0 0 0.38 0 0.02 0.38 0 0.04 0.38 0 0.06 0.38 0 0.08 0.38 0 0.1 0.38 0 0 0.385 0 0.02 0.385 0 0.04 0.385 0 0.06 0.385 0 0.08 0.385 0 0.1 0.385 0 0 0.39 0 0.02 0.39 0 0.04 0.39 0 0.06 0.39 0 0.08 0.39 0 0.1 0.39 0 0 0.395 0 0.02 0.395 0 0.04 0.395 0 0.06 0.395 0 0.08 0.395 0 0.1 0.395 0 0 0.4 0 0.02 0.4 0 0.04 0.4 0 0.06 0.4 0 0.08 0.4 0 0.1 0.4 0 0 0.405 0 0.02 0.405 0 0.04 0.405 0 0.06 0.405 0 0.08 0.405 0 0.1 0.405 0 0 0.41 0 0.02 0.41 0 0.04 0.41 0 0.06 0.41 0 0.08 0.41 0 0.1 0.41 0 0 0.415 0 0.02 0.415 0 0.04 0.415 0 0.06 0.415 0 0.08 0.415 0 0.1 0.415 0 0 0.42 0 0.02 0.42 0 0.04 0.42 0 0.06 0.42 0 0.08 0.42 0 0.1 0.42 0 0 0.425 0 0.02 0.425 0 0.04 0.425 0 0.06 0.425 0 0.08 0.425 0 0.1 0.425 0 0 0.43 0 0.02 0.43 0 0.04 0.43 0 0.06 0.43 0 0.08 0.43 0 0.1 0.43 0 0 0.435 0 0.02 0.435 0 0.04 0.435 0 0.06 0.435 0 0.08 0.435 0 0.1 0.435 0 0 0.44 0 0.02 0.44 0 0.04 0.44 0 0.06 0.44 0 0.08 0.44 0 0.1 0.44 0 0 0.445 0 0.02 0.445 0 0.04 0.445 0 0.06 0.445 0 0.08 0.445 0 0.1 0.445 0 0 0.45 0 0.02 0.45 0 0.04 0.45 0 0.06 0.45 0 0.08 0.45 0 0.1 0.45 0 0 0.455 0 0.02 0.455 0 0.04 0.455 0 0.06 0.455 0 0.08 0.455 0 0.1 0.455 0 0 0.46 0 0.02 0.46 0 0.04 0.46 0 0.06 0.46 0 0.08 0.46 0 0.1 0.46 0 0 0.465 0 0.02 0.465 0 0.04 0.465 0 0.06 0.465 0 0.08 0.465 0 0.1 0.465 0 0 0.47 0 0.02 0.47 0 0.04 0.47 0 0.06 0.47 0 0.08 0.47 0 0.1 0.47 0 0 0.475 0 0.02 0.475 0 0.04 0.475 0 0.06 0.475 0 0.08 0.475 0 0.1 0.475 0 0 0.48 0 0.02 0.48 0 0.04 0.48 0 0.06 0.48 0 0.08 0.48 0 0.1 0.48 0 0 0.485 0 0.02 0.485 0 0.04 0.485 0 0.06 0.485 0 0.08 0.485 0 0.1 0.485 0 0 0.49 0 0.02 0.49 0 0.04 0.49 0 0.06 0.49 0 0.08 0.49 0 0.1 0.49 0 0 0.495 0 0.02 0.495 0 0.04 0.495 0 0.06 0.495 0 0.08 0.495 0 0.1 0.495 0 0 0.5 0 0.02 0.5 0 0.04 0.5 0 0.06 0.5 0 0.08 0.5 0 0.1 0.5 0 0 0.505 0 0.02 0.505 0 0.04 0.505 0 0.06 0.505 0 0.08 0.505 0 0.1 0.505 0 0 0.51 0 0.02 0.51 0 0.04 0.51 0 0.06 0.51 0 0.08 0.51 0 0.1 0.51 0 0 0.515 0 0.02 0.515 0 0.04 0.515 0 0.06 0.515 0 0.08 0.515 0 0.1 0.515 0 0 0.52 0 0.02 0.52 0 0.04 0.52 0 0.06 0.52 0 0.08 0.52 0 0.1 0.52 0 0 0.525 0 0.02 0.525 0 0.04 0.525 0 0.06 0.525 0 0.08 0.525 0 0.1 0.525 0 0 0.53 0 0.02 0.53 0 0.04 0.53 0 0.06 0.53 0 0.08 0.53 0 0.1 0.53 0 0 0.535 0 0.02 0.535 0 0.04 0.535 0 0.06 0.535 0 0.08 0.535 0 0.1 0.535 0 0 0.54 0 0.02 0.54 0 0.04 0.54 0 0.06 0.54 0 0.08 0.54 0 0.1 0.54 0 0 0.545 0 0.02 0.545 0 0.04 0.545 0 0.06 0.545 0 0.08 0.545 0 0.1 0.545 0 0 0.55 0 0.02 0.55 0 0.04 0.55 0 0.06 0.55 0 0.08 0.55 0 0.1 0.55 0 0 0.555 0 0.02 0.555 0 0.04 0.555 0 0.06 0.555 0 0.08 0.555 0 0.1 0.555 0 0 0.56 0 0.02 0.56 0 0.04 0.56 0 0.06 0.56 0 0.08 0.56 0 0.1 0.56 0 0 0.565 0 0.02 0.565 0 0.04 0.565 0 0.06 0.565 0 0.08 0.565 0 0.1 0.565 0 0 0.57 0 0.02 0.57 0 0.04 0.57 0 0.06 0.57 0 0.08 0.57 0 0.1 0.57 0 0 0.575 0 0.02 0.575 0 0.04 0.575 0 0.06 0.575 0 0.08 0.575 0 0.1 0.575 0 0 0.58 0 0.02 0.58 0 0.04 0.58 0 0.06 0.58 0 0.08 0.58 0 0.1 0.58 0 0 0.585 0 0.02 0.585 0 0.04 0.585 0 0.06 0.585 0 0.08 0.585 0 0.1 0.585 0 0 0.59 0 0.02 0.59 0 0.04 0.59 0 0.06 0.59 0 0.08 0.59 0 0.1 0.59 0 0 0.595 0 0.02 0.595 0 0.04 0.595 0 0.06 0.595 0 0.08 0.595 0 0.1 0.595 0 0 0.6 0 0.02 0.6 0 0.04 0.6 0 0.06 0.6 0 0.08 0.6 0 0.1 0.6 0 0 0.605 0 0.02 0.605 0 0.04 0.605 0 0.06 0.605 0 0.08 0.605 0 0.1 0.605 0 0 0.61 0 0.02 0.61 0 0.04 0.61 0 0.06 0.61 0 0.08 0.61 0 0.1 0.61 0 0 0.615 0 0.02 0.615 0 0.04 0.615 0 0.06 0.615 0 0.08 0.615 0 0.1 0.615 0 0 0.62 0 0.02 0.62 0 0.04 0.62 0 0.06 0.62 0 0.08 0.62 0 0.1 0.62 0 0 0.625 0 0.02 0.625 0 0.04 0.625 0 0.06 0.625 0 0.08 0.625 0 0.1 0.625 0 0 0.63 0 0.02 0.63 0 0.04 0.63 0 0.06 0.63 0 0.08 0.63 0 0.1 0.63 0 0 0.635 0 0.02 0.635 0 0.04 0.635 0 0.06 0.635 0 0.08 0.635 0 0.1 0.635 0 0 0.64 0 0.02 0.64 0 0.04 0.64 0 0.06 0.64 0 0.08 0.64 0 0.1 0.64 0 0 0.645 0 0.02 0.645 0 0.04 0.645 0 0.06 0.645 0 0.08 0.645 0 0.1 0.645 0 0 0.65 0 0.02 0.65 0 0.04 0.65 0 0.06 0.65 0 0.08 0.65 0 0.1 0.65 0 0 0.655 0 0.02 0.655 0 0.04 0.655 0 0.06 0.655 0 0.08 0.655 0 0.1 0.655 0 0 0.66 0 0.02 0.66 0 0.04 0.66 0 0.06 0.66 0 0.08 0.66 0 0.1 0.66 0 0 0.665 0 0.02 0.665 0 0.04 0.665 0 0.06 0.665 0 0.08 0.665 0 0.1 0.665 0 0 0.67 0 0.02 0.67 0 0.04 0.67 0 0.06 0.67 0 0.08 0.67 0 0.1 0.67 0 0 0.675 0 0.02 0.675 0 0.04 0.675 0 0.06 0.675 0 0.08 0.675 0 0.1 0.675 0 0 0.68 0 0.02 0.68 0 0.04 0.68 0 0.06 0.68 0 0.08 0.68 0 0.1 0.68 0 0 0.685 0 0.02 0.685 0 0.04 0.685 0 0.06 0.685 0 0.08 0.685 0 0.1 0.685 0 0 0.69 0 0.02 0.69 0 0.04 0.69 0 0.06 0.69 0 0.08 0.69 0 0.1 
[...]
			<PointData Scalars="VitesseX">
				<DataArray Name="VitesseX" type="Float32" format="ascii">
 0 5.72921e-16 6.27689e-14 4.54687e-14 2.2138e-15 0 0 1.26581e-14 4.91709e-14 4.96663e-14 2.31539e-15 0 0 2.31275e-14 4.57481e-14 3.07943e-14 1.96606e-14 0 0 3.9867e-14 2.36845e-14 3.20552e-14 2.49963e-14 0 0 3.90725e-14 9.70948e-15 3.87305e-14 2.15441e-14 0 0 1.0409e-14 3.94054e-14 8.71082e-15 3.65444e-14 0 0 -4.25728e-15 5.43106e-14 -5.83447e-15 4.43396e-14 0 0 4.16231e-15 3.44231e-14 1.54153e-14 3.32379e-14 0 0 2.3007e-14 6.39056e-15 3.94078e-14 1.98229e-14 0 0 1.03085e-14 2.81489e-14 2.06866e-14 2.93992e-14 0 0 1.79735e-14 2.16514e-14 2.9297e-14 2.00706e-14 0 0 1.71554e-14 1.81542e-14 4.40413e-14 1.78278e-15 0 0 -9.48376e-15 2.96778e-14 5.75308e-14 -8.56215e-15 0 0 -8.33158e-15 3.36193e-14 5.06645e-14 -1.55738e-15 0 0 -8.35691e-15 5.85076e-14 6.38537e-15 3.93418e-14 0 0 6.34443e-15 4.18908e-14 2.02534e-14 4.54086e-14 0 0 2.78456e-14 1.62809e-14 5.22623e-14 4.11256e-14 0 0 4.84466e-14 -1.17575e-14 8.08538e-14 5.34656e-14 0 0 2.53434e-14 4.30984e-14 2.21808e-14 1.12105e-13 0 0 1.01925e-14 8.65407e-14 -2.06034e-14 1.43087e-13 0 0 3.77725e-14 7.53959e-14 -2.12638e-14 1.25565e-13 0 0 1.66596e-14 1.17138e-13 -4.40001e-14 1.03205e-13 0 0 3.17859e-14 6.12248e-14 5.56949e-14 1.47535e-14 0 0 7.58089e-14 -1.83616e-14 1.58257e-13 -5.91682e-14 0 0 3.09328e-14 5.6305e-14 1.10411e-13 -5.74834e-14 0 0 -2.03658e-14 1.44555e-13 2.13677e-14 -2.65403e-14 0 0 1.11837e-14 1.03748e-13 3.17579e-14 -9.60046e-15 0 0 4.74988e-14 1.44743e-14 1.42432e-13 -9.48276e-14 0 0 5.23898e-15 8.26054e-14 7.17631e-14 -6.20989e-14 0 0 2.15732e-14 5.73096e-14 7.67105e-14 -2.07154e-14 0 0 2.41388e-14 1.87535e-14 1.3285e-13 -2.17515e-14 0 0 7.74649e-15 8.09121e-14 4.56919e-14 4.41931e-14 0 0 1.56086e-14 1.00827e-13 4.32564e-14 2.20029e-14 0 0 1.03917e-15 1.39491e-13 4.47339e-14 1.37086e-14 0 0 1.19153e-14 1.28215e-13 7.55357e-14 7.2656e-15 0 0 -3.0306e-14 1.76115e-13 5.09497e-14 5.86998e-14 0 0 -2.49263e-14 1.58736e-13 7.10001e-14 8.40343e-14 0 0 2.54421e-14 1.22338e-13 6.41209e-14 1.26724e-13 0 0 9.52984e-14 3.79161e-14 1.29542e-13 1.13463e-13 0 0 5.50667e-14 7.75148e-14 1.20002e-13 8.99403e-14 0 0 -1.43177e-14 1.42157e-13 4.67244e-14 1.15173e-13 0 0 1.95854e-14 2.16364e-14 1.40376e-13 6.54794e-14 0 0 -3.67539e-14 5.20604e-14 1.18092e-13 7.49211e-14 0 0 -1.67632e-13 2.25553e-13 -1.3263e-14 1.19421e-13 0 0 -1.13831e-13 1.52416e-13 6.48914e-14 4.45305e-14 0 0 -4.94854e-14 4.29341e-14 1.91905e-13 -5.40871e-14 0 0 -4.36612e-14 9.91378e-15 2.36358e-13 -8.77599e-14 0 0 -2.34925e-14 -4.54379e-14 3.71239e-13 -2.12505e-13 0 0 -1.35489e-13 1.47712e-13 2.65208e-13 -1.99664e-13 0 0 -2.61957e-13 4.06821e-13 -7.03374e-14 4.49072e-14 0 0 -2.50055e-13 4.17342e-13 -1.64613e-13 1.42828e-13 0 0 -1.62962e-13 2.84413e-13 -1.29981e-14 5.76103e-14 0 0 -1.21438e-13 2.29224e-13 3.20144e-14 9.58552e-14 0 0 -7.13694e-14 7.48858e-14 2.40446e-13 2.34126e-14 0 0 -1.55991e-13 1.4328e-13 2.7293e-13 1.16865e-14 0 0 -2.62123e-13 3.54511e-13 2.68056e-14 1.74223e-13 0 0 -1.03357e-13 1.39907e-13 2.20159e-13 5.23966e-14 0 0 -9.08427e-15 1.43508e-14 3.07787e-13 1.61024e-14 0 0 -8.81105e-14 1.5991e-13 1.28293e-13 1.1712e-13 0 0 -9.00186e-14 1.87139e-13 8.34177e-14 1.58034e-13 0 0 -8.34561e-14 1.99126e-13 4.8509e-14 1.78362e-13 0 0 -6.66995e-14 2.06006e-13 7.24073e-14 7.77918e-14 0 0 -2.4871e-14 1.87758e-13 1.33111e-13 1.04904e-14 0 0 3.44881e-14 1.56274e-13 1.39391e-13 4.87605e-14 0 0 3.14106e-14 1.87382e-13 7.1109e-14 1.41355e-13 0 0 2.38388e-14 1.65018e-13 1.34655e-13 1.67533e-13 0 0 1.68237e-13 -7.80003e-14 3.96677e-13 6.58949e-14 0 0 7.4693e-14 9.12841e-14 2.29732e-13 1.92449e-13 0 0 -3.93177e-14 3.15539e-13 5.29844e-14 2.43723e-13 0 0 -2.76318e-14 2.14905e-13 2.51111e-13 2.55381e-14 0 0 -1.71653e-13 2.98843e-13 2.43707e-13 2.06531e-14 0 0 -1.31807e-13 2.18704e-13 3.20451e-13 6.68643e-14 0 0 -2.73064e-13 3.7896e-13 2.28805e-13 2.1901e-13 0 0 -3.22541e-13 3.0271e-13 4.26377e-13 1.30339e-13 0 0 -2.72202e-13 2.44193e-13 4.24566e-13 1.44382e-13 0 0 -2.2708e-13 2.68766e-13 2.88942e-13 1.66844e-13 0 0 -1.47468e-13 1.37777e-13 5.11143e-13 -1.74782e-13 0 0 -4.41164e-13 7.24628e-13 -5.01353e-14 1.65456e-13 0 0 -1.35971e-13 3.36216e-13 1.74081e-13 2.91975e-13 0 0 -2.69853e-13 3.79433e-13 3.04973e-13 2.89965e-13 0 0 -5.2561e-13 6.96563e-13 3.5917e-13 1.07125e-13 0 0 7.38717e-14 1.32543e-14 1.01381e-12 -3.95717e-13 0 0 3.44805e-13 1.0707e-13 6.4105e-13 -1.27934e-13 0 0 2.66888e-13 4.45824e-13 2.68965e-14 3.56145e-13 0 0 4.18172e-13 4.2161e-13 -1.02307e-14 3.22208e-13 0 0 3.86241e-13 4.00063e-13 2.38998e-13 -3.34196e-14 0 0 2.70796e-13 6.10218e-13 1.69328e-13 -2.31388e-13 0 0 2.79863e-13 5.65536e-13 3.13717e-13 -4.43261e-13 0 0 4.06099e-13 4.36638e-13 3.51673e-13 -3.21822e-13 0 0 4.42818e-13 4.69963e-13 2.75827e-13 -1.48811e-13 0 0 2.84508e-13 7.71735e-13 -2.07851e-14 1.50993e-13 0 0 3.05742e-13 8.10451e-13 -3.42277e-13 5.63711e-13 0 0 4.86759e-13 6.6602e-13 -3.39627e-13 6.73161e-13 0 0 6.82964e-13 4.51201e-13 -1.6268e-13 5.48624e-13 0 0 8.85317e-13 1.05502e-13 2.25352e-13 2.38135e-13 0 0 8.57066e-13 -1.07645e-13 6.14155e-13 -8.48113e-15 0 0 7.54107e-13 -1.1048e-13 6.82564e-13 -1.6463e-14 0 0 5.71218e-13 2.93368e-14 5.63642e-13 1.0916e-13 0 0 3.30939e-13 3.88705e-13 2.64795e-13 3.33713e-13 0 0 -3.10633e-14 9.52064e-13 -2.05611e-13 5.05667e-13 0 0 -2.90601e-13 1.24611e-12 -4.37513e-13 4.90163e-13 0 0 -2.7776e-13 1.1879e-12 -3.33341e-13 2.81573e-13 0 0 -2.05162e-17 7.58479e-13 9.52287e-14 -1.2656e-13 0 0 4.92699e-13 7.50556e-14 7.18515e-13 -4.2149e-13 0 0 6.80968e-13 -1.11934e-13 8.52067e-13 -4.38718e-13 0 0 6.57311e-13 -6.5374e-14 7.81254e-13 -3.51137e-13 0 0 4.1826e-13 1.30467e-13 6.50378e-13 -2.18721e-13 0 0 7.52e-15 3.794e-13 5.70478e-13 -1.62712e-13 0 0 -2.15936e-13 4.72834e-13 5.44946e-13 -1.46801e-13 0 0 -2.74255e-13 4.63441e-13 5.45895e-13 -1.6284e-13 0 0 -2.22161e-13 3.78346e-13 5.1812e-13 -1.3053e-13 0 0 -1.18163e-13 3.3496e-13 4.51386e-13 -5.50739e-14 0 0 -6.94797e-14 3.67792e-13 3.18779e-13 5.37018e-14 0 0 -8.67092e-15 4.1285e-13 1.34144e-13 2.15929e-13 0 0 8.70615e-14 3.62216e-13 1.64999e-13 2.15872e-13 0 0 1.09763e-13 3.00611e-13 2.52712e-13 1.69898e-13 0 0 7.99958e-14 3.12618e-13 2.3032e-13 2.07781e-13 0 0 7.31584e-14 2.85149e-13 2.67891e-13 2.77656e-13 0 0 8.25931e-14 1.73413e-13 4.22858e-13 2.36209e-13 0 0 1.0224e-13 9.19839e-14 5.03763e-13 1.78162e-13 0 0 9.51681e-14 1.22149e-13 4.26761e-13 2.31386e-13 0 0 7.81885e-14 1.94836e-13 3.07112e-13 3.02412e-13 0 0 6.82714e-14 2.90398e-13 1.40497e-13 3.37949e-13 0 0 6.16249e-14 3.08517e-13 1.29588e-13 3.34166e-13 0 0 7.97083e-14 2.85044e-13 1.66402e-13 2.70257e-13 0 0 1.08862e-13 2.78686e-13 1.63573e-13 1.35568e-13 0 0 1.33969e-13 2.48765e-13 1.99537e-13 1.31689e-14 0 0 1.32058e-13 2.26986e-13 1.94491e-13 2.75281e-14 0 0 1.26888e-13 2.50096e-13 1.07852e-13 3.35433e-14 0 0 1.14754e-13 2.17922e-13 1.52514e-13 -1.46864e-14 0 0 6.66648e-14 2.4841e-13 1.74762e-13 2.51936e-14 0 0 1.02417e-13 2.60637e-13 1.7318e-13 1.00304e-13 0 0 9.39502e-14 3.2936e-13 1.30408e-13 1.64349e-13 0 0 3.70613e-14 4.39526e-13 1.14085e-13 3.07445e-13 0 0 8.17088e-14 4.09741e-13 2.75628e-13 2.01141e-13 0 0 1.77242e-13 4.63802e-13 2.80006e-13 8.68131e-14 0 0 2.22555e-13 4.90978e-13 3.19408e-13 4.84803e-14 0 0 1.84685e-13 6.01463e-13 2.58066e-13 9.40757e-14 0 0 2.72866e-13 5.44339e-13 2.77734e-13 1.07156e-13 0 0 3.27183e-13 4.7197e-13 3.54073e-13 8.4418e-14 0 0 3.2567e-13 4.5707e-13 3.73052e-13 8.37615e-14 0 0 3.38538e-13 4.26952e-13 3.69806e-13 1.18385e-13 0 0 2.38288e-13 5.42288e-13 2.86258e-13 1.18385e-13 0 0 2.07625e-13 5.92056e-13 1.96681e-13 1.9351e-13 0 0 3.23305e-13 4.33213e-13 2.72977e-13 2.66686e-13 0 0 3.74575e-13 3.34154e-13 4.21368e-13 8.1946e-14 0 0 3.18086e-13 4.30031e-13 3.35552e-13 8.07144e-14 0 0 2.16922e-13 6.15853e-13 3.05351e-14 4.20919e-13 0 0 2.14351e-13 5.71509e-13 5.75062e-14 4.87227e-13 0 0 3.65015e-13 2.79228e-13 3.86057e-13 2.82118e-13 0 0 3.1352e-13 3.14268e-13 3.78248e-13 2.43512e-13 0 0 1.55802e-13 5.53894e-13 2.1266e-13 2.651e-13 0 0 1.6208e-13 6.0222e-13 1.55811e-13 3.26139e-13 0 0 3.17581e-13 4.38126e-13 2.88793e-13 3.64521e-13 0 0 4.79972e-13 2.32024e-13 5.56253e-13 2.66549e-13 0 0 3.41646e-13 4.8075e-13 5.01406e-13 1.65518e-13 0 0 1.59891e-13 7.92788e-13 3.41566e-13 1.71087e-13 0 0 2.18737e-13 7.7693e-13 3.686e-13 3.41607e-13 0 0 3.23904e-13 7.02344e-13 4.27022e-13 4.58486e-13 0 0 4.75361e-13 4.84642e-13 6.32207e-13 3.84234e-13 0 0 6.36715e-13 3.30881e-13 6.95404e-13 3.13564e-13 0 0 3.94247e-13 7.33941e-13 2.77793e-13 6.22595e-13 0 0 1.83517e-13 1.0891e-12 -1.26407e-13 9.86408e-13 0 0 4.05164e-13 7.62282e-13 1.65965e-13 7.61416e-13 0 0 6.68725e-13 4.03403e-13 5.82286e-13 4.56364e-13 0 0 7.18148e-13 5.56214e-13 3.88117e-13 5.70503e-13 0 0 5.54482e-13 7.55117e-13 2.8778e-13 5.88744e-13 0 0 4.19968e-13 6.75431e-13 5.80274e-13 3.64909e-13 0 0 3.60033e-13 6.11038e-13 7.23032e-13 2.84078e-13 0 0 4.61661e-13 4.4188e-13 7.39325e-13 3.68621e-13 0 0 4.83304e-13 4.37848e-13 6.98505e-13 4.19817e-13 0 0 2.76546e-13 7.81968e-13 4.54555e-13 5.09596e-13 0 0 3.53029e-13 6.32377e-13 6.27293e-13 4.66756e-13 0 0 3.09393e-13 5.96616e-13 8.17185e-13 3.13412e-13 0 0 1.8436e-13 8.28696e-13 6.0535e-13 4.00891e-13 0 0 3.66793e-13 7.36753e-13 4.8011e-13 5.7177e-13 0 0 6.08866e-13 3.73326e-13 8.64451e-13 3.07785e-13 0 0 5.75766e-13 3.56626e-13 9.14613e-13 1.86991e-13 0 0 3.66758e-13 6.06012e-13 5.72071e-13 3.6393e-13 0 0 3.60735e-13 5.45375e-13 6.06581e-13 2.82432e-13 0 0 3.65819e-13 5.61481e-13 6.04248e-13 1.53046e-13 0 0 4.6111e-13 4.42311e-13 6.19699e-13 1.34667e-13 0 0 5.98615e-13 3.19274e-13 4.99694e-13 3.2025e-13 0 0 5.19082e-13 4.97928e-13 2.59989e-13 4.49253e-13 0 0 5.16968e-13 4.79866e-13 2.86558e-13 4.06972e-13 0 0 4.72699e-13 3.44931e-13 5.53006e-13 2.22018e-13 0 0 4.69807e-13 1.8154e-13 8.51992e-13 2.92925e-14 0 0 5.51539e-13 2.12675e-13 7.05976e-13 2.27079e-13 0 0 5.40899e-13 3.73531e-13 5.12177e-13 2.6636e-13 0 0 2.91514e-13 7.07336e-13 1.95569e-13 3.85491e-13 0 0 2.64854e-13 5.93464e-13 3.83664e-13 3.56095e-13 0 0 4.38306e-13 2.76912e-13 8.2889e-13 1.01918e-13 0 0 1.87886e-13 8.82241e-13 2.34801e-13 4.20595e-13 0 0 7.67357e-14 1.26269e-12 -2.06198e-13 6.29546e-13 0 0 5.14265e-13 6.74089e-13 2.37284e-13 4.24311e-13 0 0 9.20309e-13 4.63217e-14 7.46583e-13 2.48505e-13 0 0 5.06973e-13 5.76132e-13 3.63458e-13 3.76063e-13 0 0 -6.63822e-14 1.39469e-12 -4.09655e-13 8.8279e-13 0 0 1.97464e-13 9.0061e-13 -1.46034e-13 9.373e-13 0 0 9.68241e-13 -4.32578e-13 1.04433e-12 3.33552e-13 0 0 1.32396e-12 -1.05588e-12 1.63698e-12 8.2194e-14 0
				</DataArray>
				<DataArray Name="VitesseY" type="Float32" format="ascii">