<?xml version="1.0"?>
<VTKFile type="PolyData">
	<PolyData>
		<Piece NumberOfPoints="1206" NumberOfPolys="1000">
			<Points>
				<DataArray type="Float32" NumberOfComponents="3" format="ascii">
 0 0 0 0.02 0 0 0.04 0 0 0.06 0 0 0.08 0 0 0.1 0 0 0 0.005 0 0.02 0.005 0 0.04 0.005 0 0.06 0.005 0 0.08 0.005 0 0.1 0.005 0 0 0.01 0 0.02 0.01 0 0.04 0.01 0 0.06 0.01 0 0.08 0.01 0 0.1 0.01 0 0 0.015 0 0.02 0.015 0 0.04 0.015 0 0.06 0.015 0 0.08 0.015 0 0.1 0.015 0 0 0.02 0 0.02 0.02 0 0.04 0.02 0 0.06 0.02 0 0.08 0.02 0 0.1 0.02 0 0 0.025 0 0.02 0.025 0 0.04 0.025 0 0.06 0.025 0 0.08 0.025 0 0.1 0.025 0 0 0.03 0 0.02 0.03 0 0.04 0.03 0 0.06 0.03 0 0.08 0.03 0 0.1 0.03 0 0 0.035 0 0.02 0.035 0 0.04 0.035 0 0.06 0.035 0 0.08 0.035 0 0.1 0.035 0 0 0.04 0 0.02 0.04 0 0.04 0.04 0 0.06 0.04 0 0.08 0.04 0 0.1 0.04 0 0 0.045 0 0.02 0.045 0 0.04 0.045 0 0.06 0.045 0 0.08 0.045 0 0.1 0.045 0 0 0.05 0 0.02 0.05 0 0.04 0.05 0 0.06 0.05 0 0.08 0.05 0 0.1 0.05 0 0 0.055 0 0.02 0.055 0 0.04 0.055 0 0.06 0.055 0 0.08 0.055 0 0.1 0.055 0 0 0.06 0 0.02 0.06 0 0.04 0.06 0 0.06 0.06 0 0.08 0.06 0 0.1 0.06 0 0 0.065 0 0.02 0.065 0 0.04 0.065 0 0.06 0.065 0 0.08 0.065 0 0.1 0.065 0 0 0.07 0 0.02 0.07 0 0.04 0.07 0 0.06 0.07 0 0.08 0.07 0 0.1 0.07 0 0 0.075 0 0.02 0.075 0 0.04 0.075 0 0.06 0.075 0 0.08 0.075 0 0.1 0.075 0 0 0.08 0 0.02 0.08 0 0.04 0.08 0 0.06 0.08 0 0.08 0.08 0 0.1 0.08 0 0 0.085 0 0.02 0.085 0 0.04 0.085 0 0.06 0.085 0 0.08 0.085 0 0.1 0.085 0 0 0.09 0 0.02 0.09 0 0.04 0.09 0 0.06 0.09 0 0.08 0.09 0 0.1 0.09 0 0 0.095 0 0.02 0.095 0 0.04 0.095 0 0.06 0.095 0 0.08 0.095 0 0.1 0.095 0 0 0.1 0 0.02 0.1 0 0.04 0.1 0 0.06 0.1 0 0.08 0.1 0 0.1 0.1 0 0 0.105 0 0.02 0.105 0 0.04 0.105 0 0.06 0.105 0 0.08 0.105 0 0.1 0.105 0 0 0.11 0 0.02 0.11 0 0.04 0.11 0 0.06 0.11 0 0.08 0.11 0 0.1 0.11 0 0 0.115 0 0.02 0.115 0 0.04 0.115 0 0.06 0.115 0 0.08 0.115 0 0.1 0.115 0 0 0.12 0 0.02 0.12 0 0.04 0.12 0 0.06 0.12 0 0.08 0.12 0 0.1 0.12 0 0 0.125 0 0.02 0.125 0 0.04 0.125 0 0.06 0.125 0 0.08 0.125 0 0.1 0.125 0 0 0.13 0 0.02 0.13 0 0.04 0.13 0 0.06 0.13 0 0.08 0.13 0 0.1 0.13 0 0 0.135 0 0.02 0.135 0 0.04 0.135 0 0.06 0.135 0 0.08 0.135 0 0.1 0.135 0 0 0.14 0 0.02 0.14 0 0.04 0.14 0 0.06 0.14 0 0.08 0.14 0 0.1 0.14 0 0 0.145 0 0.02 0.145 0 0.04 0.145 0 0.06 0.145 0 0.08 0.145 0 0.1 0.145 0 0 0.15 0 0.02 0.15 0 0.04 0.15 0 0.06 0.15 0 0.08 0.15 0 0.1 0.15 0 0 0.155 0 0.02 0.155 0 0.04 0.155 0 0.06 0.155 0 0.08 0.155 0 0.1 0.155 0 0 0.16 0 0.02 0.16 0 0.04 0.16 0 0.06 0.16 0 0.08 0.16 0 0.1 0.16 0 0 0.165 0 0.02 0.165 0 0.04 0.165 0 0.06 0.165 0 0.08 0.165 0 0.1 0.165 0 0 0.17 0 0.02 0.17 0 0.04 0.17 0 0.06 0.17 0 0.08 0.17 0 0.1 0.17 0 0 0.175 0 0.02 0.175 0 0.04 0.175 0 0.06 0.175 0 0.08 0.175 0 0.1 0.175 0 0 0.18 0 0.02 0.18 0 0.04 0.18 0 0.06 0.18 0 0.08 0.18 0 0.1 0.18 0 0 0.185 0 0.02 0.185 0 0.04 0.185 0 0.06 0.185 0 0.08 0.185 0 0.1 0.185 0 0 0.19 0 0.02 0.19 0 0.04 0.19 0 0.06 0.19 0 0.08 0.19 0 0.1 0.19 0 0 0.195 0 0.02 0.195 0 0.04 0.195 0 0.06 0.195 0 0.08 0.195 0 0.1 0.195 0 0 0.2 0 0.02 0.2 0 0.04 0.2 0 0.06 0.2 0 0.08 0.2 0 0.1 0.2 0 0 0.205 0 0.02 0.205 0 0.04 0.205 0 0.06 0.205 0 0.08 0.205 0 0.1 0.205 0 0 0.21 0 0.02 0.21 0 0.04 0.21 0 0.06 0.21 0 0.08 0.21 0 0.1 0.21 0 0 0.215 0 0.02 0.215 0 0.04 0.215 0 0.06 0.215 0 0.08 0.215 0 0.1 0.215 0 0 0.22 0 0.02 0.22 0 0.04 0.22 0 0.06 0.22 0 0.08 0.22 0 0.1 0.22 0 0 0.225 0 0.02 0.225 0 0.04 0.225 0 0.06 0.225 0 0.08 0.225 0 0.1 0.225 0 0 0.23 0 0.02 0.23 0 0.04 0.23 0 0.06 0.23 0 0.08 0.23 0 0.1 0.23 0 0 0.235 0 0.02 0.235 0 0.04 0.235 0 0.06 0.235 0 0.08 0.235 0 0.1 0.235 0 0 0.24 0 0.02 0.24 0 0.04 0.24 0 0.06 0.24 0 0.08 0.24 0 0.1 0.24 0 0 0.245 0 0.02 0.245 0 0.04 0.245 0 0.06 0.245 0 0.08 0.245 0 0.1 0.245 0 0 0.25 0 0.02 0.25 0 0.04 0.25 0 0.06 0.25 0 0.08 0.25 0 0.1 0.25 0 0 0.255 0 0.02 0.255 0 0.04 0.255 0 0.06 0.255 0 0.08 0.255 0 0.1 0.255 0 0 0.26 0 0.02 0.26 0 0.04 0.26 0 0.06 0.26 0 0.08 0.26 0 0.1 0.26 0 0 0.265 0 0.02 0.265 0 0.04 0.265 0 0.06 0.265 0 0.08 0.265 0 0.1 0.265 0 0 0.27 0 0.02 0.27 0 0.04 0.27 0 0.06 0.27 0 0.08 0.27 0 0.1 0.27 0 0 0.275 0 0.02 0.275 0 0.04 0.275 0 0.06 0.275 0 0.08 0.275 0 0.1 0.275 0 0 0.28 0 0.02 0.28 0 0.04 0.28 0 0.06 0.28 0 0.08 0.28 0 0.1 0.28 0 0 0.285 0 0.02 0.285 0 0.04 0.285 0 0.06 0.285 0 0.08 0.285 0 0.1 0.285 0 0 0.29 0 0.02 0.29 0 0.04 0.29 0 0.06 0.29 0 0.08 0.29 0 0.1 0.29 0 0 0.295 0 0.02 0.295 0 0.04 0.295 0 0.06 0.295 0 0.08 0.295 0 0.1 0.295 0 0 0.3 0 0.02 0.3 0 0.04 0.3 0 0.06 0.3 0 0.08 0.3 0 0.1 0.3 0 0 0.305 0 0.02 0.305 0 0.04 0.305 0 0.06 0.305 0 0.08 0.305 0 0.1 0.305 0 0 0.31 0 0.02 0.31 0 0.04 0.31 0 0.06 0.31 0 0.08 0.31 0 0.1 0.31 0 0 0.315 0 0.02 0.315 0 0.04 0.315 0 0.06 0.315 0 0.08 0.315 0 0.1 0.315 0 0 0.32 0 0.02 0.32 0 0.04 0.32 0 0.06 0.32 0 0.08 0.32 0 0.1 0.32 0 0 0.325 0 0.02 0.325 0 0.04 0.325 0 0.06 0.325 0 0.08 0.325 0 0.1 0.325 0 0 0.33 0 0.02 0.33 0 0.04 0.33 0 0.06 0.33 0 0.08 0.33 0 0.1 0.33 0 0 0.335 0 0.02 0.335 0 0.04 0.335 0 0.06 0.335 0 0.08 0.335 0 0.1 0.335 0 0 0.34 0 0.02 0.34 0 0.04 0.34 0 0.06 0.34 0 0.08 0.34 0 0.1 0.34 0 0 0.345 0 0.02 0.345 0 0.04 0.345 0 0.06 0.345 0 0.08 0.345 0 0.1 0.345 0 0 0.35 0 0.02 0.35 0 0.04 0.35 0 0.06 0.35 0 0.08 0.35 0 0.1 0.35 0 0 0.355 0 0.02 0.355 0 0.04 0.355 0 0.06 0.355 0 0.08 0.355 0 0.1 0.355 0 0 0.36 0 0.02 0.36 0 0.04 0.36 0 0.06 0.36 0 0.08 0.36 0 0.1 0.36 0 0 0.365 0 0.02 0.365 0 0.04 0.365 0 0.06 0.365 0 0.08 0.365 0 0.1 0.365 0 0 0.37 0 0.02 0.37 0 0.04 0.37 0 0.06 0.37 0 0.08 0.37 0 0.1 0.37 0 0 0.375 0 0.02 0.375 0 0.04 0.375 0 0.06 0.375 0 0.08 0.375 0 0.1 0.375 0 0 0.38 0 0.02 0.38 0 0.04 0.38 0 0.06 0.38 0 0.08 0.38 0 0.1 0.38 0 0 0.385 0 0.02 0.385 0 0.04 0.385 0 0.06 0.385 0 0.08 0.385 0 0.1 0.385 0 0 0.39 0 0.02 0.39 0 0.04 0.39 0 0.06 0.39 0 0.08 0.39 0 0.1 0.39 0 0 0.395 0 0.02 0.395 0 0.04 0.395 0 0.06 0.395 0 0.08 0.395 0 0.1 0.395 0 0 0.4 0 0.02 0.4 0 0.04 0.4 0 0.06 0.4 0 0.08 0.4 0 0.1 0.4 0 0 0.405 0 0.02 0.405 0 0.04 0.405 0 0.06 0.405 0 0.08 0.405 0 0.1 0.405 0 0 0.41 0 0.02 0.41 0 0.04 0.41 0 0.06 0.41 0 0.08 0.41 0 0.1 0.41 0 0 0.415 0 0.02 0.415 0 0.04 0.415 0 0.06 0.415 0 0.08 0.415 0 0.1 0.415 0 0 0.42 0 0.02 0.42 0 0.04 0.42 0 0.06 0.42 0 0.08 0.42 0 0.1 0.42 0 0 0.425 0 0.02 0.425 0 0.04 0.425 0 0.06 0.425 0 0.08 0.425 0 0.1 0.425 0 0 0.43 0 0.02 0.43 0 0.04 0.43 0 0.06 0.43 0 0.08 0.43 0 0.1 0.43 0 0 0.435 0 0.02 0.435 0 0.04 0.435 0 0.06 0.435 0 0.08 0.435 0 0.1 0.435 0 0 0.44 0 0.02 0.44 0 0.04 0.44 0 0.06 0.44 0 0.08 0.44 0 0.1 0.44 0 0 0.445 0 0.02 0.445 0 0.04 0.445 0 0.06 0.445 0 0.08 0.445 0 0.1 0.445 0 0 0.45 0 0.02 0.45 0 0.04 0.45 0 0.06 0.45 0 0.08 0.45 0 0.1 0.45 0 0 0.455 0 0.02 0.455 0 0.04 0.455 0 0.06 0.455 0 0.08 0.455 0 0.1 0.455 0 0 0.46 0 0.02 0.46 0 0.04 0.46 0 0.06 0.46 0 0.08 0.46 0 0.1 0.46 0 0 0.465 0 0.02 0.465 0 0.04 0.465 0 0.06 0.465 0 0.08 0.465 0 0.1 0.465 0 0 0.47 0 0.02 0.47 0 0.04 0.47 0 0.06 0.47 0 0.08 0.47 0 0.1 0.47 0 0 0.475 0 0.02 0.475 0 0.04 0.475 0 0.06 0.475 0 0.08 0.475 0 0.1 0.475 0 0 0.48 0 0.02 0.48 0 0.04 0.48 0 0.06 0.48 0 0.08 0.48 0 0.1 0.48 0 0 0.485 0 0.02 0.485 0 0.04 0.485 0 0.06 0.485 0 0.08 0.485 0 0.1 0.485 0 0 0.49 0 0.02 0.49 0 0.04 0.49 0 0.06 0.49 0 0.08 0.49 0 0.1 0.49 0 0 0.495 0 0.02 0.495 0 0.04 0.495 0 0.06 0.495 0 0.08 0.495 0 0.1 0.495 0 0 0.5 0 0.02 0.5 0 0.04 0.5 0 0.06 0.5 0 0.08 0.5 0 0.1 0.5 0 0 0.505 0 0.02 0.505 0 0.04 0.505 0 0.06 0.505 0 0.08 0.505 0 0.1 0.505 0 0 0.51 0 0.02 0.51 0 0.04 0.51 0 0.06 0.51 0 0.08 0.51 0 0.1 0.51 0 0 0.515 0 0.02 0.515 0 0.04 0.515 0 0.06 0.515 0 0.08 0.515 0 0.1 0.515 0 0 0.52 0 0.02 0.52 0 0.04 0.52 0 0.06 0.52 0 0.08 0.52 0 0.1 0.52 0 0 0.525 0 0.02 0.525 0 0.04 0.525 0 0.06 0.525 0 0.08 0.525 0 0.1 0.525 0 0 0.53 0 0.02 0.53 0 0.04 0.53 0 0.06 0.53 0 0.08 0.53 0 0.1 0.53 0 0 0.535 0 0.02 0.535 0 0.04 0.535 0 0.06 0.535 0 0.08 0.535 0 0.1 0.535 0 0 0.54 0 0.02 0.54 0 0.04 0.54 0 0.06 0.54 0 0.08 0.54 0 0.1 0.54 0 0 0.545 0 0.02 0.545 0 0.04 0.545 0 0.06 0.545 0 0.08 0.545 0 0.1 0.545 0 0 0.55 0 0.02 0.55 0 0.04 0.55 0 0.06 0.55 0 0.08 0.55 0 0.1 0.55 0 0 0.555 0 0.02 0.555 0 0.04 0.555 0 0.06 0.555 0 0.08 0.555 0 0.1 0.555 0 0 0.56 0 0.02 0.56 0 0.04 0.56 0 0.06 0.56 0 0.08 0.56 0 0.1 0.56 0 0 0.565 0 0.02 0.565 0 0.04 0.565 0 0.06 0.565 0 0.08 0.565 0 0.1 0.565 0 0 0.57 0 0.02 0.57 0 0.04 0.57 0 0.06 0.57 0 0.08 0.57 0 0.1 0.57 0 0 0.575 0 0.02 0.575 0 0.04 0.575 0 0.06 0.575 0 0.08 0.575 0 0.1 0.575 0 0 0.58 0 0.02 0.58 0 0.04 0.58 0 0.06 0.58 0 0.08 0.58 0 0.1 0.58 0 0 0.585 0 0.02 0.585 0 0.04 0.585 0 0.06 0.585 0 0.08 0.585 0 0.1 0.585 0 0 0.59 0 0.02 0.59 0 0.04 0.59 0 0.06 0.59 0 0.08 0.59 0 0.1 0.59 0 0 0.595 0 0.02 0.595 0 0.04 0.595 0 0.06 0.595 0 0.08 0.595 0 0.1 0.595 0 0 0.6 0 0.02 0.6 0 0.04 0.6 0 0.06 0.6 0 0.08 0.6 0 0.1 0.6 0 0 0.605 0 0.02 0.605 0 0.04 0.605 0 0.06 0.605 0 0.08 0.605 0 0.1 0.605 0 0 0.61 0 0.02 0.61 0 0.04 0.61 0 0.06 0.61 0 0.08 0.61 0 0.1 0.61 0 0 0.615 0 0.02 0.615 0 0.04 0.615 0 0.06 0.615 0 0.08 0.615 0 0.1 0.615 0 0 0.62 0 0.02 0.62 0 0.04 0.62 0 0.06 0.62 0 0.08 0.62 0 0.1 0.62 0 0 0.625 0 0.02 0.625 0 0.04 0.625 0 0.06 0.625 0 0.08 0.625 0 0.1 0.625 0 0 0.63 0 0.02 0.63 0 0.04 0.63 0 0.06 0.63 0 0.08 0.63 0 0.1 0.63 0 0 0.635 0 0.02 0.635 0 0.04 0.635 0 0.06 0.635 0 0.08 0.635 0 0.1 0.635 0 0 0.64 0 0.02 0.64 0 0.04 0.64 0 0.06 0.64 0 0.08 0.64 0 0.1 0.64 0 0 0.645 0 0.02 0.645 0 0.04 0.645 0 0.06 0.645 0 0.08 0.645 0 0.1 0.645 0 0 0.65 0 0.02 0.65 0 0.04 0.65 0 0.06 0.65 0 0.08 0.65 0 0.1 0.65 0 0 0.655 0 0.02 0.655 0 0.04 0.655 0 0.06 0.655 0 0.08 0.655 0 0.1 0.655 0 0 0.66 0 0.02 0.66 0 0.04 0.66 0 0.06 0.66 0 0.08 0.66 0 0.1 0.66 0 0 0.665 0 0.02 0.665 0 0.04 0.665 0 0.06 0.665 0 0.08 0.665 0 0.1 0.665 0 0 0.67 0 0.02 0.67 0 0.04 0.67 0 0.06 0.67 0 0.08 0.67 0 0.1 0.67 0 0 0.675 0 0.02 0.675 0 0.04 0.675 0 0.06 0.675 0 0.08 0.675 0 0.1 0.675 0 0 0.68 0 0.02 0.68 0 0.04 0.68 0 0.06 0.68 0 0.08 0.68 0 0.1 0.68 0 0 0.685 0 0.02 0.685 0 0.04 0.685 0 0.06 0.685 0 0.08 0.685 0 0.1 0.685 0 0 0.69 0 0.02 0.69 0 0.04 0.69 0 0.06 0.69 0 0.08 0.69 0 0.1 
[...]
			<PointData Scalars="VitesseX">
				<DataArray Name="VitesseX" type="Float32" format="ascii">
 0 2.69061e-14 -1.66062e-14 1.51126e-14 1.73138e-15 0 0 2.20239e-14 -2.79074e-15 -1.27122e-15 1.77842e-14 0 0 2.09291e-14 5.6944e-15 -2.36872e-15 2.4814e-14 0 0 2.3152e-14 5.57021e-15 1.70638e-14 1.3114e-14 0 0 -3.82164e-15 4.82038e-14 1.73303e-15 1.71744e-14 0 0 -1.31779e-14 6.14814e-14 1.18408e-14 1.47728e-15 0 0 3.92053e-14 -2.94341e-15 7.24996e-14 -3.83445e-14 0 0 6.75231e-14 -1.80298e-14 7.62677e-14 -4.87466e-14 0 0 5.47126e-14 9.75197e-15 4.53479e-14 -3.55613e-14 0 0 1.89793e-14 5.73638e-14 -5.59329e-15 8.9899e-16 0 0 7.90812e-15 7.5392e-14 -3.27058e-14 2.20428e-14 0 0 3.03424e-14 4.70605e-14 -2.21252e-14 2.4571e-14 0 0 6.77167e-14 -3.51382e-15 2.4342e-14 2.27809e-15 0 0 6.27442e-14 9.39807e-15 2.49018e-14 1.98649e-15 0 0 4.57728e-14 4.31459e-14 -2.88081e-15 2.68773e-14 0 0 7.01411e-14 1.42414e-14 4.32956e-14 -1.10029e-14 0 0 3.84013e-14 6.19196e-14 1.33641e-14 -5.15129e-15 0 0 -9.49153e-15 9.97376e-14 1.6198e-15 7.67796e-15 0 0 -1.17455e-14 7.14428e-14 4.18332e-14 -2.77928e-15 0 0 5.04883e-14 -2.14001e-14 1.03449e-13 -2.09729e-14 0 0 1.32507e-13 -1.34714e-13 1.92118e-13 -6.83044e-14 0 0 1.08042e-13 -8.67122e-14 1.40746e-13 -3.91668e-14 0 0 1.1544e-14 7.21728e-14 -1.20578e-14 4.58377e-14 0 0 -4.54475e-15 1.27773e-13 -9.81108e-14 1.25669e-13 0 0 8.28418e-14 -4.67432e-15 3.07957e-14 6.92219e-14 0 0 1.68543e-13 -1.43692e-13 1.98334e-13 -3.56603e-14 0 0 8.93307e-14 1.55866e-14 3.71821e-14 8.27732e-14 0 0 -1.98311e-14 1.72983e-13 -8.57082e-14 1.78172e-13 0 0 4.81247e-14 5.73382e-14 2.04046e-14 1.34656e-13 0 0 1.3081e-13 -5.60942e-14 1.14028e-13 6.41148e-14 0 0 8.58852e-14 -1.01677e-14 8.95508e-14 3.11721e-14 0 0 4.15897e-14 5.15883e-14 2.75357e-14 2.40921e-14 0 0 3.56592e-14 5.85138e-14 3.42156e-14 -4.56011e-14 0 0 2.666e-14 9.96506e-14 -6.21676e-14 9.55783e-16 0 0 1.0665e-13 -1.58534e-14 -2.99225e-14 5.04049e-14 0 0 1.69843e-13 -1.34881e-13 7.54215e-14 1.65921e-14 0 0 1.41247e-13 -6.82991e-14 -2.83603e-14 9.9858e-14 0 0 8.39849e-14 5.96618e-14 -1.89823e-13 2.36199e-13 0 0 7.12377e-14 1.12374e-13 -2.15112e-13 2.40363e-13 0 0 9.32098e-14 6.28983e-14 -5.83265e-14 8.60164e-14 0 0 1.04739e-13 -1.21621e-14 1.29379e-13 -6.6758e-14 0 0 4.90468e-14 8.09691e-14 1.86143e-14 1.79084e-14 0 0 2.75553e-14 1.73429e-13 -1.06688e-13 1.00018e-13 0 0 2.3693e-13 -7.36196e-14 1.11056e-13 -2.71417e-14 0 0 3.62701e-13 -1.53263e-13 1.38248e-13 -2.93824e-14 0 0 2.37718e-13 1.03843e-13 -1.27778e-13 1.27433e-13 0 0 1.09213e-13 2.89156e-13 -2.94635e-13 2.46335e-13 0 0 1.23155e-13 2.47566e-13 -2.60885e-13 2.64438e-13 0 0 2.47624e-13 6.20487e-14 -1.29729e-13 2.27629e-13 0 0 4.3878e-13 -2.54297e-13 1.50049e-13 8.49746e-14 0 0 5.64569e-13 -5.66531e-13 4.87559e-13 -1.15219e-13 0 0 2.87475e-13 -2.4882e-13 2.31756e-13 -1.02447e-14 0 0 -3.22127e-14 2.6709e-13 -2.95155e-13 2.68e-13 0 0 1.18083e-13 1.33911e-13 -2.76911e-13 3.00484e-13 0 0 3.72431e-13 -1.90508e-13 -5.06903e-14 2.2313e-13 0 0 4.49424e-13 -2.45467e-13 -1.65012e-14 2.00047e-13 0 0 3.34272e-13 -1.44377e-14 -1.80385e-13 1.45733e-13 0 0 2.02069e-13 1.33173e-13 -2.73076e-13 1.03752e-13 0 0 2.15403e-13 2.94011e-14 -1.64245e-13 2.04434e-14 0 0 3.08434e-13 -1.30165e-13 -1.35568e-14 -9.23966e-14 0 0 2.86705e-13 -1.04647e-13 -4.52165e-14 -2.46921e-14 0 0 2.04393e-13 -4.41168e-14 -3.65701e-14 1.30052e-14 0 0 1.48828e-13 -3.56377e-14 6.68216e-14 -3.64981e-14 0 0 2.00776e-13 -1.7713e-13 2.85586e-13 -1.93061e-13 0 0 1.43836e-13 -1.16076e-13 2.66038e-13 -2.08004e-13 0 0 -6.41505e-15 1.38115e-13 4.50953e-14 -8.69643e-14 0 0 -8.54349e-15 2.60081e-13 -1.42658e-13 9.92628e-15 0 0 1.97072e-13 1.07918e-13 -1.80684e-13 8.01604e-14 0 0 4.16887e-13 -2.32614e-13 1.4182e-13 -1.36977e-13 0 0 2.84144e-13 -5.14126e-14 4.41747e-14 -1.55668e-13 0 0 1.73958e-13 1.95385e-13 -2.13624e-13 3.71395e-14 0 0 2.92483e-13 7.6625e-14 -1.39572e-13 1.07028e-13 0 0 5.2868e-13 -2.50142e-13 1.33022e-13 1.00393e-13 0 0 5.84795e-13 -2.67092e-13 1.9465e-13 1.16829e-13 0 0 4.50163e-13 4.21114e-14 -4.56682e-14 2.3596e-13 0 0 3.42665e-13 2.62787e-13 -2.53537e-13 3.17636e-13 0 0 4.51219e-13 1.98542e-14 9.82657e-14 2.80581e-14 0 0 6.28364e-13 -3.00906e-13 5.34879e-13 -2.30803e-13 0 0 6.48432e-13 -1.09691e-13 1.54105e-13 1.70584e-13 0 0 4.99047e-13 1.29937e-13 -1.90298e-14 3.4655e-13 0 0 3.1891e-13 1.65171e-13 3.59973e-13 1.95304e-15 0 0 3.37084e-13 3.61185e-13 1.90901e-14 2.037e-13 0 0 3.79031e-13 5.80765e-13 -5.3425e-13 7.19008e-13 0 0 4.66818e-13 1.92484e-13 5.94648e-14 4.39047e-13 0 0 3.92116e-13 -3.82164e-13 1.13964e-12 -2.26365e-13 0 0 -1.57267e-13 2.58051e-13 7.98007e-13 -1.0086e-14 0 0 -2.69977e-13 1.0205e-12 -1.05007e-13 5.64557e-13 0 0 2.10111e-13 4.7327e-13 1.76883e-13 5.19064e-13 0 0 4.48156e-13 -6.93255e-14 7.97571e-13 8.69533e-14 0 0 5.36545e-13 -2.09774e-13 1.18616e-12 -3.00223e-13 0 0 3.37024e-13 1.34558e-13 7.66164e-13 -2.20838e-13 0 0 -3.88804e-13 1.05497e-12 1.11341e-13 -1.19161e-13 0 0 -5.67636e-13 1.18398e-12 -4.95175e-14 -8.54964e-14 0 0 -2.28405e-13 8.36598e-13 -1.96589e-14 1.13209e-13 0 0 5.47527e-13 1.01658e-13 1.97552e-13 3.15244e-13 0 0 9.63254e-13 -7.22946e-13 6.51752e-13 1.73225e-13 0 0 9.28405e-13 -8.84324e-13 9.31827e-13 -4.43179e-14 0 0 5.72815e-13 -6.52774e-13 7.80512e-13 1.78056e-14 0 0 -2.49562e-13 2.07937e-13 1.67979e-13 2.88353e-13 0 0 -7.36283e-13 9.42749e-13 -9.20253e-13 9.44615e-13 0 0 -6.81365e-13 9.09902e-13 -1.15864e-12 1.23704e-12 0 0 -7.49714e-14 3.25464e-13 -9.01126e-13 1.1076e-12 0 0 8.77357e-13 -6.62783e-13 -3.69586e-13 9.05028e-13 0 0 1.12081e-12 -9.59544e-13 -1.30018e-13 8.3688e-13 0 0 9.0218e-13 -8.05126e-13 -3.84526e-14 7.09185e-13 0 0 2.4618e-13 -2.75808e-13 6.28647e-14 4.4291e-13 0 0 -1.79841e-13 -1.50902e-14 2.72141e-13 9.2735e-14 0 0 -2.29294e-13 -4.27298e-14 4.65709e-13 -6.3731e-14 0 0 -1.70083e-13 -5.84198e-14 4.64045e-13 -1.06802e-13 0 0 -6.44909e-14 -2.71504e-14 3.96177e-13 -1.15188e-13 0 0 1.04849e-14 3.74491e-15 2.9722e-13 -9.00714e-14 0 0 2.36348e-14 6.58337e-14 1.34361e-13 -4.17022e-14 0 0 2.08917e-14 9.38771e-14 5.65116e-14 -5.68822e-14 0 0 4.88372e-14 5.52431e-14 8.49782e-14 -9.692e-14 0 0 8.32023e-14 -2.20409e-14 8.23268e-14 -8.70816e-14 0 0 7.94273e-14 -2.61284e-14 4.89561e-14 -1.0591e-13 0 0 6.79499e-14 -3.20158e-14 -3.00195e-14 -5.68245e-14 0 0 8.89094e-14 -7.76498e-14 -4.62492e-14 1.71731e-14 0 0 9.18821e-14 -1.07373e-13 -3.9813e-14 -5.81367e-14 0 0 5.89748e-14 -9.49953e-14 -5.70753e-15 -1.86616e-13 0 0 3.96885e-14 -8.03539e-14 4.67426e-14 -1.54109e-13 0 0 4.27668e-14 -1.91674e-14 3.61535e-14 -1.42825e-13 0 0 9.38771e-14 4.92756e-14 -4.90649e-14 -8.18085e-14 0 0 1.3059e-13 5.08948e-14 -8.05315e-15 -2.41785e-14 0 0 8.56666e-14 1.43035e-13 -1.04696e-14 7.5367e-14 0 0 1.0738e-13 2.33589e-13 -5.75652e-14 1.28142e-13 0 0 2.49205e-13 7.66754e-14 1.52271e-13 -5.23019e-14 0 0 4.16213e-13 -1.73003e-13 3.80596e-13 -1.45961e-13 0 0 2.86569e-13 3.58257e-14 1.87037e-13 -1.26028e-14 0 0 2.00249e-13 1.73702e-13 5.48039e-14 4.85251e-14 0 0 1.60894e-13 2.37885e-13 -3.17259e-14 5.33552e-14 0 0 2.38174e-13 8.03035e-14 8.98394e-14 -1.46406e-14 0 0 4.33607e-13 -2.83544e-13 3.94716e-13 -9.3647e-14 0 0 2.66929e-13 -2.2338e-14 6.58279e-14 1.79689e-13 0 0 2.23586e-13 5.24309e-14 -1.27587e-14 2.24799e-13 0 0 1.79978e-13 1.34605e-13 -5.99853e-14 2.14739e-13 0 0 2.16017e-13 6.53907e-14 6.97149e-14 1.88527e-13 0 0 4.07936e-13 -3.13081e-13 6.25199e-13 -1.45221e-13 0 0 1.46459e-13 9.81349e-14 2.83194e-13 1.06516e-13 0 0 1.20988e-13 1.90237e-13 2.1969e-13 1.64377e-13 0 0 2.04506e-13 1.47429e-13 2.43255e-13 1.39156e-13 0 0 6.32675e-14 4.79103e-13 -1.96857e-13 4.74213e-13 0 0 4.99348e-13 -1.43128e-13 3.78877e-13 9.83537e-14 0 0 5.93117e-13 -2.42281e-13 5.22269e-13 -7.37028e-14 0 0 7.10274e-14 5.16723e-13 -8.53252e-14 3.23839e-13 0 0 1.39568e-13 3.19344e-13 2.24635e-13 1.53343e-13 0 0 2.2568e-13 2.42094e-13 1.6362e-13 1.73773e-13 0 0 4.37436e-13 -8.25601e-14 4.26441e-13 -9.18378e-14 0 0 6.08893e-13 -3.10121e-13 6.53383e-13 -3.29553e-13 0 0 1.1374e-13 6.02985e-13 -2.83553e-13 1.74878e-13 0 0 2.81051e-13 4.06323e-13 -2.76157e-14 -1.24138e-13 0 0 5.30616e-13 1.39985e-13 1.18018e-13 -1.07128e-13 0 0 5.77826e-13 1.56234e-14 2.00322e-13 -2.37198e-14 0 0 3.52062e-13 1.59504e-13 1.45818e-13 8.7823e-14 0 0 6.11156e-14 4.98599e-13 -1.3503e-13 2.90422e-13 0 0 1.31205e-13 3.01665e-13 5.94933e-14 1.23659e-13 0 0 2.84059e-13 -2.41225e-14 2.51298e-13 5.21208e-14 0 0 4.85819e-13 -3.60199e-13 4.29024e-13 5.20702e-14 0 0 2.72242e-13 -4.17934e-14 1.58853e-13 2.62528e-13 0 0 -1.97219e-13 4.96805e-13 -3.96049e-14 2.79691e-13 0 0 -4.09681e-13 6.73471e-13 3.303e-14 1.34397e-13 0 0 1.77172e-13 -3.3774e-13 9.86606e-13 -3.55905e-13 0 0 4.78921e-13 -1.03118e-12 1.61829e-12 -6.71625e-13 0 0 -5.65565e-14 -2.73405e-13 8.22058e-13 -2.66378e-13 0 0 -3.79652e-13 4.33606e-13 -1.02314e-13 3.8845e-13 0 0 -1.41633e-13 1.57573e-13 -6.63986e-15 6.52801e-13 0 0 6.67228e-14 -3.36983e-13 5.45663e-13 5.09505e-13 0 0 1.00858e-15 -3.69913e-13 6.72573e-13 4.54093e-13 0 0 -2.61859e-13 4.31378e-14 2.95863e-13 5.80116e-13 0 0 5.27517e-14 -3.81635e-13 6.44334e-13 2.27597e-13 0 0 1.99912e-13 -4.30064e-13 4.80395e-13 2.37592e-13 0 0 -6.37767e-14 1.24839e-13 -2.45701e-13 7.02044e-13 0 0 2.0708e-13 -3.73297e-13 2.22314e-13 5.15289e-13 0 0 -2.65762e-14 -1.34952e-13 9.82947e-14 4.44231e-13 0 0 4.52154e-14 -2.37825e-13 2.59762e-13 2.27433e-13 0 0 2.5377e-13 -4.71357e-13 4.18104e-13 1.40402e-13 0 0 -1.1461e-13 1.67672e-13 -2.22867e-13 4.11803e-13 0 0 2.493e-14 4.02276e-14 -1.80027e-13 3.02318e-13 0 0 1.24468e-13 -4.41434e-14 -1.32962e-13 2.47781e-13 0 0 1.54859e-13 -1.65844e-13 1.0766e-13 8.67292e-14 0 0 1.14067e-13 -2.63496e-13 3.31255e-13 -1.18449e-13 0 0 -3.27277e-13 4.1321e-13 -2.0106e-13 2.4927e-13 0 0 -9.46891e-14 1.30755e-13 7.35913e-14 2.33219e-13 0 0 6.30591e-14 3.07717e-14 1.11054e-13 2.39633e-13 0 0 1.15372e-13 7.71777e-14 4.6931e-14 2.18204e-13 0 0 1.66911e-13 -6.84369e-14 1.98694e-13 4.84192e-14 0 0 -2.71431e-13 4.99002e-13 -2.49573e-13 2.12518e-13 0 0 4.22387e-14 2.01099e-13 5.77403e-14 -1.5977e-13 0 0 4.12621e-13 -3.93237e-14 5.44309e-14 -2.0682e-13 0 0 7.43673e-13 -5.31111e-13 4.84511e-13 -5.2698e-13 0 0 4.35202e-13 -2.27553e-13 3.45943e-13 -3.79772e-13 0 0 -3.0154e-13 8.21451e-13 -7.422e-13 5.79756e-13 0 0 4.99598e-13 -4.27465e-13 3.7234e-13 2.77103e-14 0 0 1.0705e-12 -1.14531e-12 1.07743e-12 -6.17881e-13 0 0 4.11364e-13 -1.87453e-14 -7.70232e-14 -9.16648e-14 0 0 -2.61453e-13 8.38675e-13 -8.41797e-13 4.34837e-13 0 0 -2.85888e-13 7.88719e-13 -7.61648e-13 5.12694e-13 0 0 9.64607e-13 -1.11549e-12 1.06893e-12 -4.39391e-13 0 0 1.05945e-12 -1.03192e-12 9.68076e-13 -3.33756e-13 0 0 -2.68112e-13 1.22906e-12 -1.09493e-12 7.07691e-13 0 0 -7.04041e-13 1.90704e-12 -1.53531e-12 7.88787e-13 0
				</DataArray>
				<DataArray Name="VitesseY" type="Float32" format="ascii">