<?xml version="1.0"?>
<VTKFile type="PolyData">
	<PolyData>
		<Piece NumberOfPoints="1206" NumberOfPolys="1000">
			<Points>
				<DataArray type="Float32" NumberOfComponents="3" format="ascii">
 0 0 0 0.02 0 0 0.04 0 0 0.06 0 0 0.08 0 0 0.1 0 0 0 0.005 0 0.02 0.005 0 0.04 0.005 0 0.06 0.005 0 0.08 0.005 0 0.1 0.005 0 0 0.01 0 0.02 0.01 0 0.04 0.01 0 0.06 0.01 0 0.08 0.01 0 0.1 0.01 0 0 0.015 0 0.02 0.015 0 0.04 0.015 0 0.06 0.015 0 0.08 0.015 0 0.1 0.015 0 0 0.02 0 0.02 0.02 0 0.04 0.02 0 0.06 0.02 0 0.08 0.02 0 0.1 0.02 0 0 0.025 0 0.02 0.025 0 0.04 0.025 0 0.06 0.025 0 0.08 0.025 0 0.1 0.025 0 0 0.03 0 0.02 0.03 0 0.04 0.03 0 0.06 0.03 0 0.08 0.03 0 0.1 0.03 0 0 0.035 0 0.02 0.035 0 0.04 0.035 0 0.06 0.035 0 0.08 0.035 0 0.1 0.035 0 0 0.04 0 0.02 0.04 0 0.04 0.04 0 0.06 0.04 0 0.08 0.04 0 0.1 0.04 0 0 0.045 0 0.02 0.045 0 0.04 0.045 0 0.06 0.045 0 0.08 0.045 0 0.1 0.045 0 0 0.05 0 0.02 0.05 0 0.04 0.05 0 0.06 0.05 0 0.08 0.05 0 0.1 0.05 0 0 0.055 0 0.02 0.055 0 0.04 0.055 0 0.06 0.055 0 0.08 0.055 0 0.1 0.055 0 0 0.06 0 0.02 0.06 0 0.04 0.06 0 0.06 0.06 0 0.08 0.06 0 0.1 0.06 0 0 0.065 0 0.02 0.065 0 0.04 0.065 0 0.06 0.065 0 0.08 0.065 0 0.1 0.065 0 0 0.07 0 0.02 0.07 0 0.04 0.07 0 0.06 0.07 0 0.08 0.07 0 0.1 0.07 0 0 0.075 0 0.02 0.075 0 0.04 0.075 0 0.06 0.075 0 0.08 0.075 0 0.1 0.075 0 0 0.08 0 0.02 0.08 0 0.04 0.08 0 0.06 0.08 0 0.08 0.08 0 0.1 0.08 0 0 0.085 0 0.02 0.085 0 0.04 0.085 0 0.06 0.085 0 0.08 0.085 0 0.1 0.085 0 0 0.09 0 0.02 0.09 0 0.04 0.09 0 0.06 0.09 0 0.08 0.09 0 0.1 0.09 0 0 0.095 0 0.02 0.095 0 0.04 0.095 0 0.06 0.095 0 0.08 0.095 0 0.1 0.095 0 0 0.1 0 0.02 0.1 0 0.04 0.1 0 0.06 0.1 0 0.08 0.1 0 0.1 0.1 0 0 0.105 0 0.02 0.105 0 0.04 0.105 0 0.06 0.105 0 0.08 0.105 0 0.1 0.105 0 0 0.11 0 0.02 0.11 0 0.04 0.11 0 0.06 0.11 0 0.08 0.11 0 0.1 0.11 0 0 0.115 0 0.02 0.115 0 0.04 0.115 0 0.06 0.115 0 0.08 0.115 0 0.1 0.115 0 0 0.12 0 0.02 0.12 0 0.04 0.12 0 0.06 0.12 0 0.08 0.12 0 0.1 0.12 0 0 0.125 0 0.02 0.125 0 0.04 0.125 0 0.06 0.125 0 0.08 0.125 0 0.1 0.125 0 0 0.13 0 0.02 0.13 0 0.04 0.13 0 0.06 0.13 0 0.08 0.13 0 0.1 0.13 0 0 0.135 0 0.02 0.135 0 0.04 0.135 0 0.06 0.135 0 0.08 0.135 0 0.1 0.135 0 0 0.14 0 0.02 0.14 0 0.04 0.14 0 0.06 0.14 0 0.08 0.14 0 0.1 0.14 0 0 0.145 0 0.02 0.145 0 0.04 0.145 0 0.06 0.145 0 0.08 0.145 0 0.1 0.145 0 0 0.15 0 0.02 0.15 0 0.04 0.15 0 0.06 0.15 0 0.08 0.15 0 0.1 0.15 0 0 0.155 0 0.02 0.155 0 0.04 0.155 0 0.06 0.155 0 0.08 0.155 0 0.1 0.155 0 0 0.16 0 0.02 0.16 0 0.04 0.16 0 0.06 0.16 0 0.08 0.16 0 0.1 0.16 0 0 0.165 0 0.02 0.165 0 0.04 0.165 0 0.06 0.165 0 0.08 0.165 0 0.1 0.165 0 0 0.17 0 0.02 0.17 0 0.04 0.17 0 0.06 0.17 0 0.08 0.17 0 0.1 0.17 0 0 0.175 0 0.02 0.175 0 0.04 0.175 0 0.06 0.175 0 0.08 0.175 0 0.1 0.175 0 0 0.18 0 0.02 0.18 0 0.04 0.18 0 0.06 0.18 0 0.08 0.18 0 0.1 0.18 0 0 0.185 0 0.02 0.185 0 0.04 0.185 0 0.06 0.185 0 0.08 0.185 0 0.1 0.185 0 0 0.19 0 0.02 0.19 0 0.04 0.19 0 0.06 0.19 0 0.08 0.19 0 0.1 0.19 0 0 0.195 0 0.02 0.195 0 0.04 0.195 0 0.06 0.195 0 0.08 0.195 0 0.1 0.195 0 0 0.2 0 0.02 0.2 0 0.04 0.2 0 0.06 0.2 0 0.08 0.2 0 0.1 0.2 0 0 0.205 0 0.02 0.205 0 0.04 0.205 0 0.06 0.205 0 0.08 0.205 0 0.1 0.205 0 0 0.21 0 0.02 0.21 0 0.04 0.21 0 0.06 0.21 0 0.08 0.21 0 0.1 0.21 0 0 0.215 0 0.02 0.215 0 0.04 0.215 0 0.06 0.215 0 0.08 0.215 0 0.1 0.215 0 0 0.22 0 0.02 0.22 0 0.04 0.22 0 0.06 0.22 0 0.08 0.22 0 0.1 0.22 0 0 0.225 0 0.02 0.225 0 0.04 0.225 0 0.06 0.225 0 0.08 0.225 0 0.1 0.225 0 0 0.23 0 0.02 0.23 0 0.04 0.23 0 0.06 0.23 0 0.08 0.23 0 0.1 0.23 0 0 0.235 0 0.02 0.235 0 0.04 0.235 0 0.06 0.235 0 0.08 0.235 0 0.1 0.235 0 0 0.24 0 0.02 0.24 0 0.04 0.24 0 0.06 0.24 0 0.08 0.24 0 0.1 0.24 0 0 0.245 0 0.02 0.245 0 0.04 0.245 0 0.06 0.245 0 0.08 0.245 0 0.1 0.245 0 0 0.25 0 0.02 0.25 0 0.04 0.25 0 0.06 0.25 0 0.08 0.25 0 0.1 0.25 0 0 0.255 0 0.02 0.255 0 0.04 0.255 0 0.06 0.255 0 0.08 0.255 0 0.1 0.255 0 0 0.26 0 0.02 0.26 0 0.04 0.26 0 0.06 0.26 0 0.08 0.26 0 0.1 0.26 0 0 0.265 0 0.02 0.265 0 0.04 0.265 0 0.06 0.265 0 0.08 0.265 0 0.1 0.265 0 0 0.27 0 0.02 0.27 0 0.04 0.27 0 0.06 0.27 0 0.08 0.27 0 0.1 0.27 0 0 0.275 0 0.02 0.275 0 0.04 0.275 0 0.06 0.275 0 0.08 0.275 0 0.1 0.275 0 0 0.28 0 0.02 0.28 0 0.04 0.28 0 0.06 0.28 0 0.08 0.28 0 0.1 0.28 0 0 0.285 0 0.02 0.285 0 0.04 0.285 0 0.06 0.285 0 0.08 0.285 0 0.1 0.285 0 0 0.29 0 0.02 0.29 0 0.04 0.29 0 0.06 0.29 0 0.08 0.29 0 0.1 0.29 0 0 0.295 0 0.02 0.295 0 0.04 0.295 0 0.06 0.295 0 0.08 0.295 0 0.1 0.295 0 0 0.3 0 0.02 0.3 0 0.04 0.3 0 0.06 0.3 0 0.08 0.3 0 0.1 0.3 0 0 0.305 0 0.02 0.305 0 0.04 0.305 0 0.06 0.305 0 0.08 0.305 0 0.1 0.305 0 0 0.31 0 0.02 0.31 0 0.04 0.31 0 0.06 0.31 0 0.08 0.31 0 0.1 0.31 0 0 0.315 0 0.02 0.315 0 0.04 0.315 0 0.06 0.315 0 0.08 0.315 0 0.1 0.315 0 0 0.32 0 0.02 0.32 0 0.04 0.32 0 0.06 0.32 0 0.08 0.32 0 0.1 0.32 0 0 0.325 0 0.02 0.325 0 0.04 0.325 0 0.06 0.325 0 0.08 0.325 0 0.1 0.325 0 0 0.33 0 0.02 0.33 0 0.04 0.33 0 0.06 0.33 0 0.08 0.33 0 0.1 0.33 0 0 0.335 0 0.02 0.335 0 0.04 0.335 0 0.06 0.335 0 0.08 0.335 0 0.1 0.335 0 0 0.34 0 0.02 0.34 0 0.04 0.34 0 0.06 0.34 0 0.08 0.34 0 0.1 0.34 0 0 0.345 0 0.02 0.345 0 0.04 0.345 0 0.06 0.345 0 0.08 0.345 0 0.1 0.345 0 0 0.35 0 0.02 0.35 0 0.04 0.35 0 0.06 0.35 0 0.08 0.35 0 0.1 0.35 0 0 0.355 0 0.02 0.355 0 0.04 0.355 0 0.06 0.355 0 0.08 0.355 0 0.1 0.355 0 0 0.36 0 0.02 0.36 0 0.04 0.36 0 0.06 0.36 0 0.08 0.36 0 0.1 0.36 0 0 0.365 0 0.02 0.365 0 0.04 0.365 0 0.06 0.365 0 0.08 0.365 0 0.1 0.365 0 0 0.37 0 0.02 0.37 0 0.04 0.37 0 0.06 0.37 0 0.08 0.37 0 0.1 0.37 0 0 0.375 0 0.02 0.375 0 0.04 0.375 0 0.06 0.375 0 0.08 0.375 0 0.1 0.375 0 0 0.38 0 0.02 0.38 0 0.04 0.38 0 0.06 0.38 0 0.08 0.38 0 0.1 0.38 0 0 0.385 0 0.02 0.385 0 0.04 0.385 0 0.06 0.385 0 0.08 0.385 0 0.1 0.385 0 0 0.39 0 0.02 0.39 0 0.04 0.39 0 0.06 0.39 0 0.08 0.39 0 0.1 0.39 0 0 0.395 0 0.02 0.395 0 0.04 0.395 0 0.06 0.395 0 0.08 0.395 0 0.1 0.395 0 0 0.4 0 0.02 0.4 0 0.04 0.4 0 0.06 0.4 0 0.08 0.4 0 0.1 0.4 0 0 0.405 0 0.02 0.405 0 0.04 0.405 0 0.06 0.405 0 0.08 0.405 0 0.1 0.405 0 0 0.41 0 0.02 0.41 0 0.04 0.41 0 0.06 0.41 0 0.08 0.41 0 0.1 0.41 0 0 0.415 0 0.02 0.415 0 0.04 0.415 0 0.06 0.415 0 0.08 0.415 0 0.1 0.415 0 0 0.42 0 0.02 0.42 0 0.04 0.42 0 0.06 0.42 0 0.08 0.42 0 0.1 0.42 0 0 0.425 0 0.02 0.425 0 0.04 0.425 0 0.06 0.425 0 0.08 0.425 0 0.1 0.425 0 0 0.43 0 0.02 0.43 0 0.04 0.43 0 0.06 0.43 0 0.08 0.43 0 0.1 0.43 0 0 0.435 0 0.02 0.435 0 0.04 0.435 0 0.06 0.435 0 0.08 0.435 0 0.1 0.435 0 0 0.44 0 0.02 0.44 0 0.04 0.44 0 0.06 0.44 0 0.08 0.44 0 0.1 0.44 0 0 0.445 0 0.02 0.445 0 0.04 0.445 0 0.06 0.445 0 0.08 0.445 0 0.1 0.445 0 0 0.45 0 0.02 0.45 0 0.04 0.45 0 0.06 0.45 0 0.08 0.45 0 0.1 0.45 0 0 0.455 0 0.02 0.455 0 0.04 0.455 0 0.06 0.455 0 0.08 0.455 0 0.1 0.455 0 0 0.46 0 0.02 0.46 0 0.04 0.46 0 0.06 0.46 0 0.08 0.46 0 0.1 0.46 0 0 0.465 0 0.02 0.465 0 0.04 0.465 0 0.06 0.465 0 0.08 0.465 0 0.1 0.465 0 0 0.47 0 0.02 0.47 0 0.04 0.47 0 0.06 0.47 0 0.08 0.47 0 0.1 0.47 0 0 0.475 0 0.02 0.475 0 0.04 0.475 0 0.06 0.475 0 0.08 0.475 0 0.1 0.475 0 0 0.48 0 0.02 0.48 0 0.04 0.48 0 0.06 0.48 0 0.08 0.48 0 0.1 0.48 0 0 0.485 0 0.02 0.485 0 0.04 0.485 0 0.06 0.485 0 0.08 0.485 0 0.1 0.485 0 0 0.49 0 0.02 0.49 0 0.04 0.49 0 0.06 0.49 0 0.08 0.49 0 0.1 0.49 0 0 0.495 0 0.02 0.495 0 0.04 0.495 0 0.06 0.495 0 0.08 0.495 0 0.1 0.495 0 0 0.5 0 0.02 0.5 0 0.04 0.5 0 0.06 0.5 0 0.08 0.5 0 0.1 0.5 0 0 0.505 0 0.02 0.505 0 0.04 0.505 0 0.06 0.505 0 0.08 0.505 0 0.1 0.505 0 0 0.51 0 0.02 0.51 0 0.04 0.51 0 0.06 0.51 0 0.08 0.51 0 0.1 0.51 0 0 0.515 0 0.02 0.515 0 0.04 0.515 0 0.06 0.515 0 0.08 0.515 0 0.1 0.515 0 0 0.52 0 0.02 0.52 0 0.04 0.52 0 0.06 0.52 0 0.08 0.52 0 0.1 0.52 0 0 0.525 0 0.02 0.525 0 0.04 0.525 0 0.06 0.525 0 0.08 0.525 0 0.1 0.525 0 0 0.53 0 0.02 0.53 0 0.04 0.53 0 0.06 0.53 0 0.08 0.53 0 0.1 0.53 0 0 0.535 0 0.02 0.535 0 0.04 0.535 0 0.06 0.535 0 0.08 0.535 0 0.1 0.535 0 0 0.54 0 0.02 0.54 0 0.04 0.54 0 0.06 0.54 0 0.08 0.54 0 0.1 0.54 0 0 0.545 0 0.02 0.545 0 0.04 0.545 0 0.06 0.545 0 0.08 0.545 0 0.1 0.545 0 0 0.55 0 0.02 0.55 0 0.04 0.55 0 0.06 0.55 0 0.08 0.55 0 0.1 0.55 0 0 0.555 0 0.02 0.555 0 0.04 0.555 0 0.06 0.555 0 0.08 0.555 0 0.1 0.555 0 0 0.56 0 0.02 0.56 0 0.04 0.56 0 0.06 0.56 0 0.08 0.56 0 0.1 0.56 0 0 0.565 0 0.02 0.565 0 0.04 0.565 0 0.06 0.565 0 0.08 0.565 0 0.1 0.565 0 0 0.57 0 0.02 0.57 0 0.04 0.57 0 0.06 0.57 0 0.08 0.57 0 0.1 0.57 0 0 0.575 0 0.02 0.575 0 0.04 0.575 0 0.06 0.575 0 0.08 0.575 0 0.1 0.575 0 0 0.58 0 0.02 0.58 0 0.04 0.58 0 0.06 0.58 0 0.08 0.58 0 0.1 0.58 0 0 0.585 0 0.02 0.585 0 0.04 0.585 0 0.06 0.585 0 0.08 0.585 0 0.1 0.585 0 0 0.59 0 0.02 0.59 0 0.04 0.59 0 0.06 0.59 0 0.08 0.59 0 0.1 0.59 0 0 0.595 0 0.02 0.595 0 0.04 0.595 0 0.06 0.595 0 0.08 0.595 0 0.1 0.595 0 0 0.6 0 0.02 0.6 0 0.04 0.6 0 0.06 0.6 0 0.08 0.6 0 0.1 0.6 0 0 0.605 0 0.02 0.605 0 0.04 0.605 0 0.06 0.605 0 0.08 0.605 0 0.1 0.605 0 0 0.61 0 0.02 0.61 0 0.04 0.61 0 0.06 0.61 0 0.08 0.61 0 0.1 0.61 0 0 0.615 0 0.02 0.615 0 0.04 0.615 0 0.06 0.615 0 0.08 0.615 0 0.1 0.615 0 0 0.62 0 0.02 0.62 0 0.04 0.62 0 0.06 0.62 0 0.08 0.62 0 0.1 0.62 0 0 0.625 0 0.02 0.625 0 0.04 0.625 0 0.06 0.625 0 0.08 0.625 0 0.1 0.625 0 0 0.63 0 0.02 0.63 0 0.04 0.63 0 0.06 0.63 0 0.08 0.63 0 0.1 0.63 0 0 0.635 0 0.02 0.635 0 0.04 0.635 0 0.06 0.635 0 0.08 0.635 0 0.1 0.635 0 0 0.64 0 0.02 0.64 0 0.04 0.64 0 0.06 0.64 0 0.08 0.64 0 0.1 0.64 0 0 0.645 0 0.02 0.645 0 0.04 0.645 0 0.06 0.645 0 0.08 0.645 0 0.1 0.645 0 0 0.65 0 0.02 0.65 0 0.04 0.65 0 0.06 0.65 0 0.08 0.65 0 0.1 0.65 0 0 0.655 0 0.02 0.655 0 0.04 0.655 0 0.06 0.655 0 0.08 0.655 0 0.1 0.655 0 0 0.66 0 0.02 0.66 0 0.04 0.66 0 0.06 0.66 0 0.08 0.66 0 0.1 0.66 0 0 0.665 0 0.02 0.665 0 0.04 0.665 0 0.06 0.665 0 0.08 0.665 0 0.1 0.665 0 0 0.67 0 0.02 0.67 0 0.04 0.67 0 0.06 0.67 0 0.08 0.67 0 0.1 0.67 0 0 0.675 0 0.02 0.675 0 0.04 0.675 0 0.06 0.675 0 0.08 0.675 0 0.1 0.675 0 0 0.68 0 0.02 0.68 0 0.04 0.68 0 0.06 0.68 0 0.08 0.68 0 0.1 0.68 0 0 0.685 0 0.02 0.685 0 0.04 0.685 0 0.06 0.685 0 0.08 0.685 0 0.1 0.685 0 0 0.69 0 0.02 0.69 0 0.04 0.69 0 0.06 0.69 0 0.08 0.69 0 0.1 
[...]
			<PointData Scalars="VitesseX">
				<DataArray Name="VitesseX" type="Float32" format="ascii">
 0 -2.18366e-14 -1.52504e-14 -2.2494e-14 -1.29051e-14 0 0 -1.92383e-14 -1.92838e-14 -1.91572e-14 -1.48239e-14 0 0 -1.63852e-14 -2.20602e-14 -1.78252e-14 -1.6361e-14 0 0 -1.25823e-14 -2.90235e-14 -9.26404e-15 -2.27564e-14 0 0 -1.39223e-14 -2.79558e-14 -9.47408e-15 -2.50018e-14 0 0 -2.2673e-14 -1.00222e-14 -2.96744e-14 -1.16549e-14 0 0 -2.26073e-14 -9.21127e-15 -2.79906e-14 -5.49706e-15 0 0 -1.81178e-14 -1.95505e-14 -1.10744e-14 -1.42124e-14 0 0 -2.24446e-14 -1.34239e-14 -1.43974e-14 -9.23839e-15 0 0 -2.12828e-14 -1.5264e-14 -1.55024e-14 7.52834e-15 0 0 -2.01641e-14 -9.61207e-15 -2.10373e-14 1.64491e-14 0 0 -2.1909e-14 4.75922e-15 -1.93754e-14 8.89057e-15 0 0 -3.60133e-15 -2.36684e-14 3.23321e-14 -3.16282e-14 0 0 -1.35057e-14 1.19051e-15 1.08519e-14 -2.81092e-14 0 0 -1.55636e-14 1.39181e-14 -1.04558e-14 -1.1293e-14 0 0 -7.46304e-15 -1.05392e-16 7.93998e-15 -3.51054e-14 0 0 -2.64728e-14 2.93503e-14 -2.14197e-14 -2.95138e-14 0 0 -9.41007e-15 -1.0548e-14 1.56669e-14 -4.24801e-14 0 0 -1.23036e-14 -8.54853e-15 -7.97207e-15 -1.44244e-14 0 0 -4.45159e-15 -2.7074e-14 -2.11623e-14 -1.36521e-15 0 0 3.0212e-14 -9.87089e-14 6.26019e-14 -7.14817e-14 0 0 -3.19126e-15 -3.87764e-14 1.25726e-14 -5.92712e-14 0 0 4.63948e-15 -5.30898e-14 1.0397e-14 -5.28201e-14 0 0 3.87064e-15 -4.66979e-14 -1.3572e-14 -4.11551e-14 0 0 -3.66565e-14 2.4208e-14 -7.92577e-14 -2.70832e-14 0 0 -7.22477e-15 -3.95089e-14 4.97476e-15 -8.67285e-14 0 0 -7.10293e-16 -4.06602e-14 -1.50735e-15 -6.4404e-14 0 0 2.32061e-14 -4.89378e-14 -1.69352e-14 -3.06118e-14 0 0 2.29233e-14 -1.97281e-14 -7.21466e-14 2.73363e-14 0 0 1.07954e-14 -1.00607e-14 -5.58661e-14 1.36946e-14 0 0 6.26647e-14 -1.04478e-13 5.075e-14 -3.74888e-14 0 0 2.0472e-14 -5.32874e-14 7.51163e-16 2.48318e-14 0 0 -1.33823e-14 -1.6493e-14 -2.75752e-15 1.84564e-14 0 0 -3.04281e-14 1.27476e-14 -1.75723e-14 1.77979e-14 0 0 1.23136e-14 -5.42562e-14 6.20592e-14 -3.02556e-14 0 0 1.59339e-14 -4.12247e-14 6.68463e-14 -3.11357e-14 0 0 -2.56601e-14 3.50536e-14 -1.20271e-15 8.08427e-15 0 0 -7.64042e-15 1.12765e-14 2.15939e-14 -2.05559e-14 0 0 -2.50711e-14 2.37157e-14 2.78622e-14 -5.51879e-14 0 0 -4.53718e-14 3.40344e-14 -2.132e-15 -4.86292e-14 0 0 -4.30395e-14 2.46129e-15 -1.79793e-14 -9.47575e-15 0 0 8.31927e-15 -7.38879e-14 4.50734e-14 1.63508e-15 0 0 1.78907e-14 -2.69139e-14 -3.69007e-14 1.05853e-13 0 0 4.26197e-15 -4.09552e-14 -1.1193e-14 9.77547e-14 0 0 1.15742e-14 -1.61097e-13 1.01374e-13 2.58878e-14 0 0 -2.43374e-14 -2.08626e-13 1.12039e-13 2.32846e-14 0 0 -6.91384e-14 -1.40499e-13 3.34306e-14 2.40367e-14 0 0 -5.68727e-14 -9.38657e-14 -1.03136e-13 7.98139e-14 0 0 1.48124e-14 -1.61817e-13 -1.07941e-13 4.74142e-14 0 0 1.04297e-14 -9.17192e-14 -1.77989e-13 1.84874e-14 0 0 2.67692e-14 -6.08413e-14 -2.35202e-13 5.0572e-14 0 0 3.84404e-14 -1.08025e-13 -1.40228e-13 -2.73405e-14 0 0 3.83885e-14 -2.34531e-13 4.69354e-14 -1.46145e-13 0 0 2.85721e-14 -3.33034e-13 6.64584e-14 -1.20582e-13 0 0 2.39683e-14 -3.10096e-13 -9.86862e-14 -9.8978e-15 0 0 -6.57338e-14 -1.05241e-13 -3.12661e-13 9.10453e-14 0 0 -9.65208e-14 -6.98031e-14 -2.06958e-13 -1.67288e-14 0 0 5.08814e-14 -2.38889e-13 -9.51638e-15 -1.3192e-13 0 0 7.92266e-14 -2.26179e-13 -2.55601e-14 -8.3232e-14 0 0 -2.97384e-14 -1.40773e-13 -3.90161e-14 -3.95664e-14 0 0 -1.96065e-13 -2.39234e-14 -1.16221e-13 2.02015e-14 0 0 -2.30219e-13 -1.16886e-13 -7.10209e-14 4.54916e-14 0 0 -2.50081e-13 -2.38257e-13 -9.10104e-15 1.12655e-13 0 0 -2.95411e-13 -2.55204e-13 -3.55462e-14 1.75896e-13 0 0 -2.89138e-13 -2.58034e-13 -6.42222e-14 1.473e-13 0 0 -2.79911e-13 -2.33313e-13 -9.79856e-14 5.74136e-14 0 0 -2.16628e-13 -2.82793e-13 -6.96109e-14 -9.71917e-14 0 0 -1.02561e-13 -3.7653e-13 -7.76556e-14 -1.90151e-13 0 0 -1.23569e-13 -3.31666e-13 -1.94539e-13 -6.97751e-14 0 0 -2.16832e-13 -2.00234e-13 -3.99581e-13 1.48565e-13 0 0 -3.3017e-13 -2.03174e-13 -3.47171e-13 1.71912e-13 0 0 -3.54636e-13 -2.53479e-13 -2.71701e-13 1.71769e-13 0 0 -3.20131e-13 -3.70731e-13 -1.56795e-13 1.43857e-13 0 0 -2.54345e-13 -4.53408e-13 -1.85654e-13 1.74278e-13 0 0 -2.34358e-13 -4.25163e-13 -2.57095e-13 2.11561e-13 0 0 -2.61631e-13 -3.31981e-13 -4.01428e-13 1.94005e-13 0 0 -2.81653e-13 -2.15813e-13 -4.31218e-13 9.61347e-14 0 0 -2.68771e-13 -2.13038e-13 -3.81791e-13 -7.05158e-14 0 0 -2.28144e-13 -2.16325e-13 -3.08802e-13 -4.47395e-14 0 0 -1.42647e-13 -2.62375e-13 -1.94775e-13 5.69017e-14 0 0 -3.37456e-14 -3.2956e-13 -1.83889e-13 1.89084e-13 0 0 8.3948e-14 -3.4531e-13 -2.08385e-13 3.63175e-13 0 0 1.51176e-13 -3.31272e-13 -2.88115e-13 4.60184e-13 0 0 1.80627e-13 -3.05672e-13 -3.92344e-13 4.90036e-13 0 0 2.51491e-13 -3.15157e-13 -4.1233e-13 4.64462e-13 0 0 3.44873e-13 -3.55245e-13 -3.88954e-13 3.78902e-13 0 0 3.25501e-13 -3.48865e-13 -3.34313e-13 2.80879e-13 0 0 2.31164e-13 -3.08211e-13 -2.8842e-13 1.79531e-13 0 0 7.43757e-14 -2.05905e-13 -2.59513e-13 5.5365e-14 0 0 -4.7628e-14 -1.17573e-13 -2.25558e-13 -7.91673e-14 0 0 -9.24899e-14 -9.56612e-14 -1.60182e-13 -2.17542e-13 0 0 -7.77346e-14 -1.38743e-13 -4.19016e-14 -3.47922e-13 0 0 -3.46044e-14 -2.3096e-13 5.23924e-14 -3.47584e-13 0 0 -5.82988e-14 -1.86224e-13 -5.29878e-15 -2.82812e-13 0 0 -1.31432e-13 -1.5558e-14 -2.10619e-13 -1.12322e-13 0 0 -1.69332e-13 7.6337e-14 -3.73581e-13 1.42713e-14 0 0 -1.66822e-13 9.67618e-14 -4.55277e-13 4.39659e-14 0 0 -1.65894e-13 7.66014e-14 -4.74805e-13 6.99993e-14 0 0 -1.32883e-13 -1.01339e-14 -4.32092e-13 6.01668e-14 0 0 -2.38455e-14 -1.52672e-13 -3.49423e-13 2.01382e-14 0 0 1.79595e-13 -3.06228e-13 -3.40554e-13 4.24395e-14 0 0 4.58587e-13 -4.51252e-13 -4.18375e-13 1.79588e-13 0 0 6.15315e-13 -5.12815e-13 -4.45419e-13 1.98503e-13 0 0 5.97931e-13 -4.78611e-13 -4.2874e-13 1.36602e-13 0 0 4.98954e-13 -4.10083e-13 -3.69482e-13 -1.64346e-14 0 0 3.04607e-13 -3.32751e-13 -2.3969e-13 -2.40591e-13 0 0 7.75772e-14 -2.51556e-13 -5.24278e-14 -4.6392e-13 0 0 -2.38364e-14 -1.61086e-13 -4.94065e-14 -5.11253e-13 0 0 -7.89378e-14 -7.11601e-14 -1.07702e-13 -5.0224e-13 0 0 -1.02072e-13 -2.74735e-14 -1.76293e-13 -5.08651e-13 0 0 -8.10803e-14 -4.32469e-14 -1.9342e-13 -5.13797e-13 0 0 -6.0949e-14 -6.37951e-14 -2.38377e-13 -4.96632e-13 0 0 -6.38635e-14 -3.26211e-14 -3.68391e-13 -3.72732e-13 0 0 -4.74211e-14 -6.09411e-14 -4.08146e-13 -2.89179e-13 0 0 -4.1295e-14 -9.98404e-14 -4.31561e-13 -2.37135e-13 0 0 -5.27909e-14 -9.55192e-14 -4.72586e-13 -1.89291e-13 0 0 -5.33704e-14 -1.28757e-13 -4.42824e-13 -1.95134e-13 0 0 -8.59099e-14 -1.64727e-13 -3.63323e-13 -2.67652e-13 0 0 -1.0069e-13 -2.00125e-13 -2.92854e-13 -3.35856e-13 0 0 -9.62034e-14 -2.59443e-13 -2.38825e-13 -3.40881e-13 0 0 -1.14427e-13 -2.92351e-13 -2.01662e-13 -3.59556e-13 0 0 -1.67802e-13 -2.63931e-13 -1.99488e-13 -4.14766e-13 0 0 -1.93233e-13 -2.36893e-13 -2.54191e-13 -3.92124e-13 0 0 -1.99177e-13 -2.27086e-13 -3.80902e-13 -2.33286e-13 0 0 -1.9734e-13 -1.77929e-13 -4.71659e-13 -1.70694e-13 0 0 -1.46018e-13 -1.95153e-13 -4.90215e-13 -1.40176e-13 0 0 -7.06448e-14 -2.89428e-13 -4.21758e-13 -1.25638e-13 0 0 -6.03353e-14 -3.29434e-13 -3.1966e-13 -1.28724e-13 0 0 -7.22088e-14 -3.34961e-13 -2.61191e-13 -1.74115e-13 0 0 -1.27707e-13 -2.50842e-13 -2.5876e-13 -1.93126e-13 0 0 -1.57864e-13 -1.43564e-13 -3.20685e-13 -1.05876e-13 0 0 -1.33071e-13 -1.50626e-13 -3.1463e-13 -3.86067e-14 0 0 -1.36612e-13 -1.57319e-13 -2.22337e-13 -7.21544e-14 0 0 -1.56039e-13 -1.2866e-13 -1.87664e-13 -1.75328e-13 0 0 -1.56051e-13 -1.2295e-13 -1.95731e-13 -1.40251e-13 0 0 -1.52241e-13 -1.48267e-13 -1.87046e-13 -1.00048e-13 0 0 -1.38044e-13 -2.04839e-13 -9.06348e-14 -2.30288e-13 0 0 -9.08109e-14 -2.82979e-13 -6.43026e-14 -2.50328e-13 0 0 -8.79652e-14 -2.44568e-13 -1.5598e-13 -1.4087e-13 0 0 -1.20026e-13 -1.92603e-13 -2.61377e-13 -6.04905e-14 0 0 -1.33848e-13 -1.58522e-13 -3.04377e-13 -6.18902e-14 0 0 -1.14667e-13 -1.61298e-13 -2.80309e-13 -1.08764e-13 0 0 -6.07383e-14 -2.26835e-13 -2.46051e-13 -9.22324e-14 0 0 -6.00928e-14 -2.48464e-13 -2.10138e-13 -1.08623e-13 0 0 -8.66315e-14 -1.94686e-13 -2.07471e-13 -2.1412e-13 0 0 -1.15879e-13 -1.42703e-13 -2.05928e-13 -2.18113e-13 0 0 -1.17664e-13 -1.72788e-13 -2.08217e-13 -1.64096e-13 0 0 -1.24597e-13 -1.61256e-13 -2.49872e-13 -8.75e-14 0 0 -1.47234e-13 -1.24174e-13 -2.84067e-13 6.85317e-15 0 0 -1.37039e-13 -2.00465e-13 -2.06784e-13 -1.48082e-14 0 0 -1.50044e-13 -2.91964e-13 -1.97544e-13 2.26869e-14 0 0 -1.96236e-13 -2.69491e-13 -2.66918e-13 -1.32867e-15 0 0 -2.07464e-13 -2.82673e-13 -2.80763e-13 -9.06799e-14 0 0 -1.92176e-13 -3.53414e-13 -2.67405e-13 -1.83955e-13 0 0 -1.98878e-13 -3.41262e-13 -3.25678e-13 -2.50818e-13 0 0 -2.33059e-13 -2.97e-13 -4.15722e-13 -3.01596e-13 0 0 -2.29928e-13 -3.19258e-13 -4.47849e-13 -3.13627e-13 0 0 -2.25064e-13 -3.21463e-13 -4.85228e-13 -2.96119e-13 0 0 -2.0802e-13 -3.63692e-13 -4.05987e-13 -2.25723e-13 0 0 -2.07428e-13 -3.772e-13 -3.19911e-13 -1.59192e-13 0 0 -2.26828e-13 -3.75888e-13 -2.39854e-13 -9.21988e-14 0 0 -2.34303e-13 -4.29178e-13 -1.99042e-13 8.86082e-14 0 0 -2.60567e-13 -3.70646e-13 -2.4772e-13 1.81229e-13 0 0 -2.44888e-13 -3.24052e-13 -2.64687e-13 1.60469e-13 0 0 -2.30602e-13 -3.22838e-13 -2.56205e-13 9.33936e-14 0 0 -2.28455e-13 -2.97147e-13 -1.39187e-13 -3.21905e-13 0 0 -1.5823e-13 -3.46023e-13 -2.18072e-14 -5.12363e-13 0 0 -1.44174e-13 -3.22136e-13 -1.66655e-13 -3.52309e-13 0 0 -1.69212e-13 -3.00782e-13 -3.08232e-13 -2.43455e-13 0 0 -1.39468e-13 -3.94511e-13 -3.53488e-13 -1.51523e-13 0 0 -2.37361e-13 -3.82253e-13 -4.01951e-13 -1.91923e-13 0 0 -3.37665e-13 -2.8814e-13 -4.76612e-13 -2.68535e-13 0 0 -3.27079e-13 -2.70073e-13 -5.15456e-13 -3.52101e-13 0 0 -2.87682e-13 -4.0513e-13 -3.1385e-13 -5.1992e-13 0 0 -2.47246e-13 -4.87899e-13 -2.08354e-13 -5.83358e-13 0 0 -2.3358e-13 -4.55441e-13 -3.78398e-13 -4.26367e-13 0 0 -2.83971e-13 -3.72029e-13 -5.43648e-13 -2.85098e-13 0 0 -2.91698e-13 -4.03068e-13 -4.83304e-13 -3.09938e-13 0 0 -2.77098e-13 -4.1148e-13 -5.33906e-13 -1.83791e-13 0 0 -3.2335e-13 -2.98995e-13 -6.59524e-13 -7.93504e-14 0 0 -1.99422e-13 -4.72386e-13 -4.43782e-13 -2.0937e-13 0 0 -1.73331e-13 -5.40766e-13 -3.51286e-13 -2.07899e-13 0 0 -2.15526e-13 -5.0526e-13 -3.18259e-13 -2.66896e-13 0 0 -2.42514e-13 -4.19985e-13 -3.40105e-13 -2.89391e-13 0 0 -2.48478e-13 -3.58749e-13 -4.29971e-13 -1.13432e-13 0 0 -2.47474e-13 -3.46855e-13 -4.58435e-13 -1.02281e-13 0 0 -3.05086e-13 -2.6266e-13 -4.60647e-13 -1.57482e-13 0 0 -2.84673e-13 -2.38997e-13 -4.76077e-13 -1.17142e-13 0 0 -2.07888e-13 -3.15405e-13 -4.39724e-13 -8.10354e-14 0 0 -1.98132e-13 -3.63446e-13 -3.48999e-13 -9.50273e-14 0 0 -1.89425e-13 -3.94988e-13 -2.18514e-13 -2.65524e-13 0 0 -2.30287e-13 -3.58524e-13 -2.32437e-13 -2.53613e-13 0 0 -3.19986e-13 -2.37149e-13 -3.92682e-13 -6.79422e-14 0 0 -3.373e-13 -1.81818e-13 -4.81256e-13 3.32168e-15 0 0 -2.37986e-13 -3.55544e-13 -2.94467e-13 -1.78274e-13 0 0 -2.0705e-13 -4.90076e-13 -1.41491e-13 -2.80259e-13 0 0 -3.88795e-13 -2.48516e-13 -3.49629e-13 -2.16761e-13 0 0 -4.54826e-13 -3.16006e-13 -1.1608e-13 -4.70394e-13 0 0 -4.97494e-13 -4.23702e-13 -2.24148e-16 -5.14997e-13 0 0 -4.33517e-13 -3.09281e-13 -6.2695e-13 4.72092e-14 0 0 -2.94676e-13 -3.18681e-13 -1.02044e-12 4.43201e-13 0
				</DataArray>
				<DataArray Name="VitesseY" type="Float32" format="ascii">