<?xml version="1.0"?>
<VTKFile type="PolyData">
	<PolyData>
		<Piece NumberOfPoints="1206" NumberOfPolys="1000">
			<Points>
				<DataArray type="Float32" NumberOfComponents="3" format="ascii">
 0 0 0 0.02 0 0 0.04 0 0 0.06 0 0 0.08 0 0 0.1 0 0 0 0.005 0 0.02 0.005 0 0.04 0.005 0 0.06 0.005 0 0.08 0.005 0 0.1 0.005 0 0 0.01 0 0.02 0.01 0 0.04 0.01 0 0.06 0.01 0 0.08 0.01 0 0.1 0.01 0 0 0.015 0 0.02 0.015 0 0.04 0.015 0 0.06 0.015 0 0.08 0.015 0 0.1 0.015 0 0 0.02 0 0.02 0.02 0 0.04 0.02 0 0.06 0.02 0 0.08 0.02 0 0.1 0.02 0 0 0.025 0 0.02 0.025 0 0.04 0.025 0 0.06 0.025 0 0.08 0.025 0 0.1 0.025 0 0 0.03 0 0.02 0.03 0 0.04 0.03 0 0.06 0.03 0 0.08 0.03 0 0.1 0.03 0 0 0.035 0 0.02 0.035 0 0.04 0.035 0 0.06 0.035 0 0.08 0.035 0 0.1 0.035 0 0 0.04 0 0.02 0.04 0 0.04 0.04 0 0.06 0.04 0 0.08 0.04 0 0.1 0.04 0 0 0.045 0 0.02 0.045 0 0.04 0.045 0 0.06 0.045 0 0.08 0.045 0 0.1 0.045 0 0 0.05 0 0.02 0.05 0 0.04 0.05 0 0.06 0.05 0 0.08 0.05 0 0.1 0.05 0 0 0.055 0 0.02 0.055 0 0.04 0.055 0 0.06 0.055 0 0.08 0.055 0 0.1 0.055 0 0 0.06 0 0.02 0.06 0 0.04 0.06 0 0.06 0.06 0 0.08 0.06 0 0.1 0.06 0 0 0.065 0 0.02 0.065 0 0.04 0.065 0 0.06 0.065 0 0.08 0.065 0 0.1 0.065 0 0 0.07 0 0.02 0.07 0 0.04 0.07 0 0.06 0.07 0 0.08 0.07 0 0.1 0.07 0 0 0.075 0 0.02 0.075 0 0.04 0.075 0 0.06 0.075 0 0.08 0.075 0 0.1 0.075 0 0 0.08 0 0.02 0.08 0 0.04 0.08 0 0.06 0.08 0 0.08 0.08 0 0.1 0.08 0 0 0.085 0 0.02 0.085 0 0.04 0.085 0 0.06 0.085 0 0.08 0.085 0 0.1 0.085 0 0 0.09 0 0.02 0.09 0 0.04 0.09 0 0.06 0.09 0 0.08 0.09 0 0.1 0.09 0 0 0.095 0 0.02 0.095 0 0.04 0.095 0 0.06 0.095 0 0.08 0.095 0 0.1 0.095 0 0 0.1 0 0.02 0.1 0 0.04 0.1 0 0.06 0.1 0 0.08 0.1 0 0.1 0.1 0 0 0.105 0 0.02 0.105 0 0.04 0.105 0 0.06 0.105 0 0.08 0.105 0 0.1 0.105 0 0 0.11 0 0.02 0.11 0 0.04 0.11 0 0.06 0.11 0 0.08 0.11 0 0.1 0.11 0 0 0.115 0 0.02 0.115 0 0.04 0.115 0 0.06 0.115 0 0.08 0.115 0 0.1 0.115 0 0 0.12 0 0.02 0.12 0 0.04 0.12 0 0.06 0.12 0 0.08 0.12 0 0.1 0.12 0 0 0.125 0 0.02 0.125 0 0.04 0.125 0 0.06 0.125 0 0.08 0.125 0 0.1 0.125 0 0 0.13 0 0.02 0.13 0 0.04 0.13 0 0.06 0.13 0 0.08 0.13 0 0.1 0.13 0 0 0.135 0 0.02 0.135 0 0.04 0.135 0 0.06 0.135 0 0.08 0.135 0 0.1 0.135 0 0 0.14 0 0.02 0.14 0 0.04 0.14 0 0.06 0.14 0 0.08 0.14 0 0.1 0.14 0 0 0.145 0 0.02 0.145 0 0.04 0.145 0 0.06 0.145 0 0.08 0.145 0 0.1 0.145 0 0 0.15 0 0.02 0.15 0 0.04 0.15 0 0.06 0.15 0 0.08 0.15 0 0.1 0.15 0 0 0.155 0 0.02 0.155 0 0.04 0.155 0 0.06 0.155 0 0.08 0.155 0 0.1 0.155 0 0 0.16 0 0.02 0.16 0 0.04 0.16 0 0.06 0.16 0 0.08 0.16 0 0.1 0.16 0 0 0.165 0 0.02 0.165 0 0.04 0.165 0 0.06 0.165 0 0.08 0.165 0 0.1 0.165 0 0 0.17 0 0.02 0.17 0 0.04 0.17 0 0.06 0.17 0 0.08 0.17 0 0.1 0.17 0 0 0.175 0 0.02 0.175 0 0.04 0.175 0 0.06 0.175 0 0.08 0.175 0 0.1 0.175 0 0 0.18 0 0.02 0.18 0 0.04 0.18 0 0.06 0.18 0 0.08 0.18 0 0.1 0.18 0 0 0.185 0 0.02 0.185 0 0.04 0.185 0 0.06 0.185 0 0.08 0.185 0 0.1 0.185 0 0 0.19 0 0.02 0.19 0 0.04 0.19 0 0.06 0.19 0 0.08 0.19 0 0.1 0.19 0 0 0.195 0 0.02 0.195 0 0.04 0.195 0 0.06 0.195 0 0.08 0.195 0 0.1 0.195 0 0 0.2 0 0.02 0.2 0 0.04 0.2 0 0.06 0.2 0 0.08 0.2 0 0.1 0.2 0 0 0.205 0 0.02 0.205 0 0.04 0.205 0 0.06 0.205 0 0.08 0.205 0 0.1 0.205 0 0 0.21 0 0.02 0.21 0 0.04 0.21 0 0.06 0.21 0 0.08 0.21 0 0.1 0.21 0 0 0.215 0 0.02 0.215 0 0.04 0.215 0 0.06 0.215 0 0.08 0.215 0 0.1 0.215 0 0 0.22 0 0.02 0.22 0 0.04 0.22 0 0.06 0.22 0 0.08 0.22 0 0.1 0.22 0 0 0.225 0 0.02 0.225 0 0.04 0.225 0 0.06 0.225 0 0.08 0.225 0 0.1 0.225 0 0 0.23 0 0.02 0.23 0 0.04 0.23 0 0.06 0.23 0 0.08 0.23 0 0.1 0.23 0 0 0.235 0 0.02 0.235 0 0.04 0.235 0 0.06 0.235 0 0.08 0.235 0 0.1 0.235 0 0 0.24 0 0.02 0.24 0 0.04 0.24 0 0.06 0.24 0 0.08 0.24 0 0.1 0.24 0 0 0.245 0 0.02 0.245 0 0.04 0.245 0 0.06 0.245 0 0.08 0.245 0 0.1 0.245 0 0 0.25 0 0.02 0.25 0 0.04 0.25 0 0.06 0.25 0 0.08 0.25 0 0.1 0.25 0 0 0.255 0 0.02 0.255 0 0.04 0.255 0 0.06 0.255 0 0.08 0.255 0 0.1 0.255 0 0 0.26 0 0.02 0.26 0 0.04 0.26 0 0.06 0.26 0 0.08 0.26 0 0.1 0.26 0 0 0.265 0 0.02 0.265 0 0.04 0.265 0 0.06 0.265 0 0.08 0.265 0 0.1 0.265 0 0 0.27 0 0.02 0.27 0 0.04 0.27 0 0.06 0.27 0 0.08 0.27 0 0.1 0.27 0 0 0.275 0 0.02 0.275 0 0.04 0.275 0 0.06 0.275 0 0.08 0.275 0 0.1 0.275 0 0 0.28 0 0.02 0.28 0 0.04 0.28 0 0.06 0.28 0 0.08 0.28 0 0.1 0.28 0 0 0.285 0 0.02 0.285 0 0.04 0.285 0 0.06 0.285 0 0.08 0.285 0 0.1 0.285 0 0 0.29 0 0.02 0.29 0 0.04 0.29 0 0.06 0.29 0 0.08 0.29 0 0.1 0.29 0 0 0.295 0 0.02 0.295 0 0.04 0.295 0 0.06 0.295 0 0.08 0.295 0 0.1 0.295 0 0 0.3 0 0.02 0.3 0 0.04 0.3 0 0.06 0.3 0 0.08 0.3 0 0.1 0.3 0 0 0.305 0 0.02 0.305 0 0.04 0.305 0 0.06 0.305 0 0.08 0.305 0 0.1 0.305 0 0 0.31 0 0.02 0.31 0 0.04 0.31 0 0.06 0.31 0 0.08 0.31 0 0.1 0.31 0 0 0.315 0 0.02 0.315 0 0.04 0.315 0 0.06 0.315 0 0.08 0.315 0 0.1 0.315 0 0 0.32 0 0.02 0.32 0 0.04 0.32 0 0.06 0.32 0 0.08 0.32 0 0.1 0.32 0 0 0.325 0 0.02 0.325 0 0.04 0.325 0 0.06 0.325 0 0.08 0.325 0 0.1 0.325 0 0 0.33 0 0.02 0.33 0 0.04 0.33 0 0.06 0.33 0 0.08 0.33 0 0.1 0.33 0 0 0.335 0 0.02 0.335 0 0.04 0.335 0 0.06 0.335 0 0.08 0.335 0 0.1 0.335 0 0 0.34 0 0.02 0.34 0 0.04 0.34 0 0.06 0.34 0 0.08 0.34 0 0.1 0.34 0 0 0.345 0 0.02 0.345 0 0.04 0.345 0 0.06 0.345 0 0.08 0.345 0 0.1 0.345 0 0 0.35 0 0.02 0.35 0 0.04 0.35 0 0.06 0.35 0 0.08 0.35 0 0.1 0.35 0 0 0.355 0 0.02 0.355 0 0.04 0.355 0 0.06 0.355 0 0.08 0.355 0 0.1 0.355 0 0 0.36 0 0.02 0.36 0 0.04 0.36 0 0.06 0.36 0 0.08 0.36 0 0.1 0.36 0 0 0.365 0 0.02 0.365 0 0.04 0.365 0 0.06 0.365 0 0.08 0.365 0 0.1 0.365 0 0 0.37 0 0.02 0.37 0 0.04 0.37 0 0.06 0.37 0 0.08 0.37 0 0.1 0.37 0 0 0.375 0 0.02 0.375 0 0.04 0.375 0 0.06 0.375 0 0.08 0.375 0 0.1 0.375 0 0 0.38 0 0.02 0.38 0 0.04 0.38 0 0.06 0.38 0 0.08 0.38 0 0.1 0.38 0 0 0.385 0 0.02 0.385 0 0.04 0.385 0 0.06 0.385 0 0.08 0.385 0 0.1 0.385 0 0 0.39 0 0.02 0.39 0 0.04 0.39 0 0.06 0.39 0 0.08 0.39 0 0.1 0.39 0 0 0.395 0 0.02 0.395 0 0.04 0.395 0 0.06 0.395 0 0.08 0.395 0 0.1 0.395 0 0 0.4 0 0.02 0.4 0 0.04 0.4 0 0.06 0.4 0 0.08 0.4 0 0.1 0.4 0 0 0.405 0 0.02 0.405 0 0.04 0.405 0 0.06 0.405 0 0.08 0.405 0 0.1 0.405 0 0 0.41 0 0.02 0.41 0 0.04 0.41 0 0.06 0.41 0 0.08 0.41 0 0.1 0.41 0 0 0.415 0 0.02 0.415 0 0.04 0.415 0 0.06 0.415 0 0.08 0.415 0 0.1 0.415 0 0 0.42 0 0.02 0.42 0 0.04 0.42 0 0.06 0.42 0 0.08 0.42 0 0.1 0.42 0 0 0.425 0 0.02 0.425 0 0.04 0.425 0 0.06 0.425 0 0.08 0.425 0 0.1 0.425 0 0 0.43 0 0.02 0.43 0 0.04 0.43 0 0.06 0.43 0 0.08 0.43 0 0.1 0.43 0 0 0.435 0 0.02 0.435 0 0.04 0.435 0 0.06 0.435 0 0.08 0.435 0 0.1 0.435 0 0 0.44 0 0.02 0.44 0 0.04 0.44 0 0.06 0.44 0 0.08 0.44 0 0.1 0.44 0 0 0.445 0 0.02 0.445 0 0.04 0.445 0 0.06 0.445 0 0.08 0.445 0 0.1 0.445 0 0 0.45 0 0.02 0.45 0 0.04 0.45 0 0.06 0.45 0 0.08 0.45 0 0.1 0.45 0 0 0.455 0 0.02 0.455 0 0.04 0.455 0 0.06 0.455 0 0.08 0.455 0 0.1 0.455 0 0 0.46 0 0.02 0.46 0 0.04 0.46 0 0.06 0.46 0 0.08 0.46 0 0.1 0.46 0 0 0.465 0 0.02 0.465 0 0.04 0.465 0 0.06 0.465 0 0.08 0.465 0 0.1 0.465 0 0 0.47 0 0.02 0.47 0 0.04 0.47 0 0.06 0.47 0 0.08 0.47 0 0.1 0.47 0 0 0.475 0 0.02 0.475 0 0.04 0.475 0 0.06 0.475 0 0.08 0.475 0 0.1 0.475 0 0 0.48 0 0.02 0.48 0 0.04 0.48 0 0.06 0.48 0 0.08 0.48 0 0.1 0.48 0 0 0.485 0 0.02 0.485 0 0.04 0.485 0 0.06 0.485 0 0.08 0.485 0 0.1 0.485 0 0 0.49 0 0.02 0.49 0 0.04 0.49 0 0.06 0.49 0 0.08 0.49 0 0.1 0.49 0 0 0.495 0 0.02 0.495 0 0.04 0.495 0 0.06 0.495 0 0.08 0.495 0 0.1 0.495 0 0 0.5 0 0.02 0.5 0 0.04 0.5 0 0.06 0.5 0 0.08 0.5 0 0.1 0.5 0 0 0.505 0 0.02 0.505 0 0.04 0.505 0 0.06 0.505 0 0.08 0.505 0 0.1 0.505 0 0 0.51 0 0.02 0.51 0 0.04 0.51 0 0.06 0.51 0 0.08 0.51 0 0.1 0.51 0 0 0.515 0 0.02 0.515 0 0.04 0.515 0 0.06 0.515 0 0.08 0.515 0 0.1 0.515 0 0 0.52 0 0.02 0.52 0 0.04 0.52 0 0.06 0.52 0 0.08 0.52 0 0.1 0.52 0 0 0.525 0 0.02 0.525 0 0.04 0.525 0 0.06 0.525 0 0.08 0.525 0 0.1 0.525 0 0 0.53 0 0.02 0.53 0 0.04 0.53 0 0.06 0.53 0 0.08 0.53 0 0.1 0.53 0 0 0.535 0 0.02 0.535 0 0.04 0.535 0 0.06 0.535 0 0.08 0.535 0 0.1 0.535 0 0 0.54 0 0.02 0.54 0 0.04 0.54 0 0.06 0.54 0 0.08 0.54 0 0.1 0.54 0 0 0.545 0 0.02 0.545 0 0.04 0.545 0 0.06 0.545 0 0.08 0.545 0 0.1 0.545 0 0 0.55 0 0.02 0.55 0 0.04 0.55 0 0.06 0.55 0 0.08 0.55 0 0.1 0.55 0 0 0.555 0 0.02 0.555 0 0.04 0.555 0 0.06 0.555 0 0.08 0.555 0 0.1 0.555 0 0 0.56 0 0.02 0.56 0 0.04 0.56 0 0.06 0.56 0 0.08 0.56 0 0.1 0.56 0 0 0.565 0 0.02 0.565 0 0.04 0.565 0 0.06 0.565 0 0.08 0.565 0 0.1 0.565 0 0 0.57 0 0.02 0.57 0 0.04 0.57 0 0.06 0.57 0 0.08 0.57 0 0.1 0.57 0 0 0.575 0 0.02 0.575 0 0.04 0.575 0 0.06 0.575 0 0.08 0.575 0 0.1 0.575 0 0 0.58 0 0.02 0.58 0 0.04 0.58 0 0.06 0.58 0 0.08 0.58 0 0.1 0.58 0 0 0.585 0 0.02 0.585 0 0.04 0.585 0 0.06 0.585 0 0.08 0.585 0 0.1 0.585 0 0 0.59 0 0.02 0.59 0 0.04 0.59 0 0.06 0.59 0 0.08 0.59 0 0.1 0.59 0 0 0.595 0 0.02 0.595 0 0.04 0.595 0 0.06 0.595 0 0.08 0.595 0 0.1 0.595 0 0 0.6 0 0.02 0.6 0 0.04 0.6 0 0.06 0.6 0 0.08 0.6 0 0.1 0.6 0 0 0.605 0 0.02 0.605 0 0.04 0.605 0 0.06 0.605 0 0.08 0.605 0 0.1 0.605 0 0 0.61 0 0.02 0.61 0 0.04 0.61 0 0.06 0.61 0 0.08 0.61 0 0.1 0.61 0 0 0.615 0 0.02 0.615 0 0.04 0.615 0 0.06 0.615 0 0.08 0.615 0 0.1 0.615 0 0 0.62 0 0.02 0.62 0 0.04 0.62 0 0.06 0.62 0 0.08 0.62 0 0.1 0.62 0 0 0.625 0 0.02 0.625 0 0.04 0.625 0 0.06 0.625 0 0.08 0.625 0 0.1 0.625 0 0 0.63 0 0.02 0.63 0 0.04 0.63 0 0.06 0.63 0 0.08 0.63 0 0.1 0.63 0 0 0.635 0 0.02 0.635 0 0.04 0.635 0 0.06 0.635 0 0.08 0.635 0 0.1 0.635 0 0 0.64 0 0.02 0.64 0 0.04 0.64 0 0.06 0.64 0 0.08 0.64 0 0.1 0.64 0 0 0.645 0 0.02 0.645 0 0.04 0.645 0 0.06 0.645 0 0.08 0.645 0 0.1 0.645 0 0 0.65 0 0.02 0.65 0 0.04 0.65 0 0.06 0.65 0 0.08 0.65 0 0.1 0.65 0 0 0.655 0 0.02 0.655 0 0.04 0.655 0 0.06 0.655 0 0.08 0.655 0 0.1 0.655 0 0 0.66 0 0.02 0.66 0 0.04 0.66 0 0.06 0.66 0 0.08 0.66 0 0.1 0.66 0 0 0.665 0 0.02 0.665 0 0.04 0.665 0 0.06 0.665 0 0.08 0.665 0 0.1 0.665 0 0 0.67 0 0.02 0.67 0 0.04 0.67 0 0.06 0.67 0 0.08 0.67 0 0.1 0.67 0 0 0.675 0 0.02 0.675 0 0.04 0.675 0 0.06 0.675 0 0.08 0.675 0 0.1 0.675 0 0 0.68 0 0.02 0.68 0 0.04 0.68 0 0.06 0.68 0 0.08 0.68 0 0.1 0.68 0 0 0.685 0 0.02 0.685 0 0.04 0.685 0 0.06 0.685 0 0.08 0.685 0 0.1 0.685 0 0 0.69 0 0.02 0.69 0 0.04 0.69 0 0.06 0.69 0 0.08 0.69 0 0.1 
[...]
			<PointData Scalars="VitesseX">
				<DataArray Name="VitesseX" type="Float32" format="ascii">
 0 2.04845e-14 1.25807e-14 3.42753e-14 4.17175e-15 0 0 1.16848e-14 2.23391e-14 2.83395e-14 9.26211e-15 0 0 7.12031e-16 3.41844e-14 2.09388e-14 1.81817e-14 0 0 1.11062e-14 1.4993e-14 4.32246e-14 7.8445e-15 0 0 1.13054e-14 1.66393e-14 4.14522e-14 1.22604e-14 0 0 -5.93445e-15 4.50652e-14 1.06272e-14 3.69303e-14 0 0 -2.43828e-15 2.74606e-14 3.16813e-14 2.84855e-14 0 0 2.17056e-15 7.47594e-15 5.42103e-14 1.22475e-14 0 0 -5.08731e-15 1.21003e-14 4.30308e-14 2.00243e-14 0 0 -1.38011e-14 1.58927e-14 4.2453e-14 2.09997e-14 0 0 -2.3991e-15 -4.38595e-15 7.25203e-14 -5.48494e-15 0 0 -6.83758e-15 1.21402e-14 4.42587e-14 1.77785e-14 0 0 2.49448e-14 -2.38023e-14 6.30965e-14 1.5111e-14 0 0 2.08167e-14 5.16724e-15 2.49037e-14 4.06124e-14 0 0 -1.07443e-14 5.80626e-14 -5.27768e-15 5.01242e-14 0 0 7.03228e-15 2.43982e-14 5.10656e-14 1.16014e-14 0 0 -1.85578e-15 5.00542e-14 2.25859e-14 4.01727e-14 0 0 -8.83253e-15 7.24724e-14 -3.98378e-16 6.5823e-14 0 0 1.30881e-14 3.3669e-14 5.51497e-14 2.25005e-14 0 0 1.45414e-14 3.42399e-14 8.15814e-14 -2.22774e-14 0 0 6.28136e-15 5.35689e-14 8.10481e-14 -3.58232e-14 0 0 2.0421e-14 4.73904e-14 6.80591e-14 -2.14907e-14 0 0 -3.41351e-15 7.28158e-14 3.3907e-14 -6.7973e-15 0 0 -2.32705e-14 9.11707e-14 1.76822e-14 -1.69529e-14 0 0 3.00367e-14 2.69859e-14 6.30413e-14 -4.7543e-14 0 0 5.06762e-14 -1.22429e-15 8.22487e-14 -5.27325e-14 0 0 8.025e-15 4.81389e-14 2.2497e-14 1.49859e-14 0 0 1.81049e-15 4.09958e-14 2.38135e-14 4.61807e-14 0 0 3.18858e-14 -9.27933e-15 6.84224e-14 1.50204e-14 0 0 2.48359e-14 4.6415e-15 5.81799e-14 1.70602e-14 0 0 9.82918e-15 4.43854e-14 2.31919e-14 4.82055e-14 0 0 1.157e-14 2.9941e-14 6.08107e-14 7.02763e-15 0 0 -2.32488e-14 1.00986e-13 7.99642e-15 1.17082e-14 0 0 -2.30347e-14 1.46594e-13 -1.76441e-14 3.75702e-14 0 0 4.8488e-15 1.15295e-13 5.11403e-14 2.67189e-14 0 0 1.03402e-14 1.1236e-13 7.71666e-14 3.77328e-14 0 0 2.48515e-14 1.07389e-13 7.93522e-14 8.12436e-14 0 0 3.80397e-14 1.15761e-13 2.91524e-14 1.77332e-13 0 0 7.01637e-14 3.46023e-14 1.18922e-13 1.3622e-13 0 0 -1.47634e-14 8.93367e-14 1.12171e-13 1.06758e-13 0 0 -5.51661e-14 1.00186e-13 1.0386e-13 8.91473e-14 0 0 -4.33114e-14 7.12887e-14 1.1613e-13 7.04238e-14 0 0 -5.00594e-14 9.71435e-14 8.51824e-14 6.57009e-14 0 0 -9.12153e-14 1.41711e-13 6.58087e-14 3.29326e-14 0 0 -1.3202e-13 1.67253e-13 2.02786e-14 7.41698e-14 0 0 -9.89222e-15 -8.26606e-15 1.55466e-13 6.54752e-15 0 0 4.27183e-14 -7.28716e-14 2.24002e-13 -5.56063e-14 0 0 -6.40939e-15 4.53813e-14 7.54264e-14 3.93359e-14 0 0 -3.96401e-14 1.27414e-13 -1.42975e-15 7.77437e-14 0 0 -5.80631e-14 1.29483e-13 7.93306e-14 -4.45666e-15 0 0 -3.94295e-14 8.45715e-14 2.16137e-13 -1.18914e-13 0 0 -1.54014e-14 6.52139e-14 2.17462e-13 -5.8071e-14 0 0 -1.89888e-13 3.3677e-13 -8.04606e-14 2.24703e-13 0 0 -1.86671e-13 3.19092e-13 -3.4275e-14 2.1335e-13 0 0 3.82625e-15 3.13862e-14 2.88154e-13 -2.93766e-14 0 0 -3.65365e-14 1.26321e-13 1.70723e-13 6.16842e-14 0 0 1.39942e-14 1.04999e-13 1.40917e-13 1.0573e-13 0 0 4.02926e-14 7.25438e-14 1.95728e-13 4.83294e-14 0 0 -8.77743e-14 2.36242e-13 8.5995e-14 1.13413e-13 0 0 -7.38974e-14 1.94488e-13 1.67129e-13 5.18343e-14 0 0 2.146e-14 4.90085e-14 3.08142e-13 6.09462e-15 0 0 7.67456e-14 8.21931e-14 2.0255e-13 1.41876e-13 0 0 2.04031e-14 2.33135e-13 7.53493e-14 2.49435e-13 0 0 -4.25334e-14 2.20679e-13 2.41006e-13 1.83284e-13 0 0 -1.00798e-13 2.59785e-13 2.86871e-13 1.84472e-13 0 0 -5.32329e-14 2.52576e-13 2.585e-13 2.56057e-13 0 0 9.13949e-14 9.7016e-14 3.43908e-13 2.15427e-13 0 0 3.20606e-14 1.81825e-13 3.01718e-13 1.47998e-13 0 0 -3.45357e-14 2.30361e-13 3.70105e-13 2.2014e-15 0 0 -9.16194e-14 3.525e-13 2.87588e-13 5.43863e-14 0 0 -2.22441e-13 5.34756e-13 1.3103e-13 2.39345e-13 0 0 -2.13379e-13 3.1937e-13 4.2235e-13 1.32003e-13 0 0 -1.05466e-13 1.09283e-13 6.35629e-13 2.37521e-14 0 0 -1.10557e-14 4.64036e-14 5.47474e-13 7.07814e-14 0 0 -1.13441e-13 2.75834e-13 2.48797e-13 1.82459e-13 0 0 -2.34111e-13 4.36311e-13 2.02115e-13 1.58519e-13 0 0 -6.66674e-14 1.33503e-13 4.7383e-13 1.10568e-13 0 0 2.14897e-14 1.68545e-14 4.81709e-13 2.28936e-13 0 0 -1.29508e-13 2.21804e-13 3.99249e-13 2.16414e-13 0 0 -3.49459e-13 6.929e-13 8.29495e-14 2.8307e-13 0 0 -3.74841e-14 4.84934e-13 1.91634e-13 1.61934e-13 0 0 4.16516e-13 -2.5896e-14 5.04268e-13 -8.1445e-14 0 0 3.72926e-13 1.88979e-13 1.76215e-13 1.69139e-13 0 0 2.35906e-13 5.1785e-13 -4.28861e-13 7.00555e-13 0 0 5.17234e-13 1.29254e-13 -1.1677e-13 5.52088e-13 0 0 6.89036e-13 -5.25524e-13 7.4768e-13 -6.96228e-15 0 0 4.22105e-13 -3.75089e-13 8.50999e-13 -3.06725e-13 0 0 -1.47919e-13 2.25846e-13 5.63485e-13 -2.23393e-13 0 0 -3.61612e-13 7.59063e-13 4.71085e-14 2.8605e-14 0 0 -2.09555e-13 7.73096e-13 -1.81603e-13 2.31026e-13 0 0 2.01714e-13 4.90798e-13 -9.93431e-14 2.44018e-13 0 0 5.47402e-13 1.2631e-13 8.2223e-15 2.87865e-13 0 0 8.20252e-13 -1.82787e-13 8.73851e-14 4.23639e-13 0 0 9.08202e-13 -2.08334e-13 5.97447e-14 5.52248e-13 0 0 7.84581e-13 -4.81521e-14 -4.12541e-14 5.79374e-13 0 0 5.10772e-13 2.2806e-13 -1.1045e-14 4.64874e-13 0 0 2.09361e-13 3.88426e-13 2.67789e-13 8.14329e-14 0 0 9.6999e-14 4.74678e-13 4.98196e-13 -2.46115e-13 0 0 6.29966e-14 5.19356e-13 4.9422e-13 -2.55612e-13 0 0 1.06013e-13 4.74103e-13 3.87464e-13 -5.85687e-14 0 0 2.0851e-13 4.19909e-13 8.14624e-14 3.66097e-13 0 0 2.21934e-13 4.98957e-13 -5.41797e-14 5.01816e-13 0 0 1.08578e-13 6.5307e-13 5.35801e-14 3.81192e-13 0 0 -3.9643e-14 7.26063e-13 3.16373e-13 -1.59053e-14 0 0 -8.98105e-14 7.17896e-13 7.28154e-13 -5.7854e-13 0 0 -4.08675e-14 6.11044e-13 8.32145e-13 -7.03168e-13 0 0 1.13476e-13 4.83147e-13 7.89796e-13 -6.54723e-13 0 0 2.95671e-13 3.99509e-13 6.85794e-13 -5.04675e-13 0 0 4.07078e-13 3.41904e-13 4.95029e-13 -2.09999e-13 0 0 4.1671e-13 2.88805e-13 4.36946e-13 -6.07911e-14 0 0 3.38446e-13 3.0695e-13 3.64595e-13 8.42127e-14 0 0 2.03403e-13 3.87175e-13 2.4938e-13 2.26358e-13 0 0 8.64517e-14 4.33302e-13 2.68954e-13 2.71585e-13 0 0 -1.15154e-14 5.12489e-13 2.55374e-13 2.12813e-13 0 0 -5.97892e-14 5.66767e-13 2.1309e-13 1.6286e-13 0 0 -4.618e-14 5.27256e-13 2.58129e-13 1.06768e-13 0 0 7.2073e-15 4.95709e-13 2.39421e-13 9.0417e-14 0 0 1.09703e-13 4.46968e-13 1.74923e-13 1.48598e-13 0 0 1.97495e-13 3.24622e-13 2.22041e-13 1.53204e-13 0 0 1.99029e-13 2.581e-13 3.16903e-13 9.17564e-14 0 0 1.66837e-13 2.43576e-13 3.19036e-13 1.3256e-13 0 0 1.48845e-13 2.24047e-13 2.75612e-13 2.99207e-13 0 0 1.3632e-13 1.8692e-13 2.89567e-13 3.34463e-13 0 0 1.33536e-13 1.10096e-13 3.72244e-13 3.02516e-13 0 0 1.23174e-13 1.04403e-13 3.71741e-13 2.94629e-13 0 0 9.52586e-14 1.30388e-13 3.56053e-13 2.78273e-13 0 0 9.08369e-14 1.41038e-13 3.38191e-13 2.19634e-13 0 0 8.40293e-14 1.77634e-13 2.82479e-13 1.82289e-13 0 0 8.80368e-14 2.16219e-13 2.23553e-13 1.84297e-13 0 0 1.02309e-13 2.26642e-13 2.38092e-13 1.47425e-13 0 0 1.10994e-13 2.09905e-13 3.2354e-13 8.2019e-14 0 0 1.20577e-13 2.49094e-13 2.84359e-13 7.50858e-14 0 0 1.51803e-13 2.84269e-13 2.30569e-13 1.24894e-13 0 0 1.49649e-13 2.83501e-13 2.77121e-13 8.78432e-14 0 0 1.48691e-13 3.0114e-13 2.43978e-13 1.69819e-13 0 0 1.45131e-13 2.72426e-13 3.46564e-13 1.72763e-13 0 0 1.73727e-13 2.60205e-13 3.93613e-13 1.49668e-13 0 0 2.17041e-13 3.13649e-13 3.19243e-13 1.89576e-13 0 0 1.79295e-13 3.69993e-13 4.13958e-13 1.35862e-13 0 0 1.74212e-13 4.02018e-13 4.1089e-13 2.57206e-13 0 0 2.2389e-13 4.23489e-13 4.60418e-13 1.62723e-13 0 0 2.20179e-13 5.10796e-13 4.22022e-13 1.5363e-13 0 0 2.18106e-13 5.47657e-13 3.88823e-13 2.13343e-13 0 0 2.08283e-13 5.63401e-13 3.67541e-13 2.21094e-13 0 0 2.2961e-13 5.04955e-13 4.44196e-13 1.3624e-13 0 0 2.9017e-13 3.43103e-13 6.48945e-13 3.91033e-14 0 0 2.20275e-13 4.61523e-13 4.95604e-13 2.43287e-13 0 0 1.70432e-13 5.29175e-13 3.85966e-13 4.16791e-13 0 0 1.93064e-13 4.85796e-13 4.11806e-13 4.09399e-13 0 0 2.49887e-13 3.83031e-13 5.37986e-13 2.81732e-13 0 0 3.26289e-13 2.27622e-13 7.49353e-13 1.35869e-13 0 0 2.07762e-13 4.48979e-13 5.70278e-13 2.18417e-13 0 0 1.84811e-13 5.56212e-13 4.59992e-13 3.42679e-13 0 0 2.63553e-13 4.62386e-13 5.79196e-13 3.16013e-13 0 0 3.09344e-13 4.16758e-13 6.45875e-13 2.83893e-13 0 0 2.62408e-13 5.53592e-13 5.16063e-13 4.95484e-13 0 0 1.40511e-13 7.95747e-13 2.68885e-13 7.82442e-13 0 0 2.36682e-13 7.44189e-13 2.67184e-13 7.91438e-13 0 0 3.67004e-13 5.72545e-13 5.7845e-13 4.40564e-13 0 0 5.4161e-13 3.33408e-13 9.22069e-13 7.79174e-14 0 0 5.34415e-13 4.80566e-13 7.28604e-13 1.54858e-13 0 0 4.64222e-13 6.35261e-13 5.28635e-13 2.48376e-13 0 0 4.60962e-13 5.93654e-13 5.03836e-13 3.63072e-13 0 0 3.42319e-13 8.46602e-13 1.77696e-13 6.86564e-13 0 0 5.28655e-13 5.9153e-13 4.29803e-13 5.03687e-13 0 0 5.23853e-13 6.43249e-13 3.93688e-13 4.87207e-13 0 0 5.11309e-13 7.19666e-13 4.10562e-13 4.23964e-13 0 0 5.5352e-13 4.71841e-13 8.75545e-13 1.03961e-13 0 0 2.11915e-13 8.97317e-13 4.89898e-13 4.30842e-13 0 0 4.03104e-13 6.98783e-13 5.83475e-13 3.79682e-13 0 0 4.34978e-13 6.81835e-13 5.98831e-13 3.47228e-13 0 0 3.44646e-13 7.22073e-13 4.69862e-13 5.84805e-13 0 0 5.1026e-13 3.61279e-13 7.81315e-13 4.15803e-13 0 0 2.1793e-13 8.52918e-13 4.45981e-13 4.4773e-13 0 0 3.07979e-13 8.32256e-13 3.64286e-13 5.2926e-13 0 0 4.40488e-13 5.86642e-13 5.7155e-13 4.09412e-13 0 0 3.44999e-13 5.95054e-13 7.19933e-13 2.32408e-13 0 0 4.77048e-13 3.75341e-13 9.25156e-13 6.08064e-14 0 0 3.84403e-13 5.60238e-13 7.88566e-13 2.82101e-14 0 0 1.87656e-13 8.59394e-13 5.72105e-13 3.93497e-14 0 0 2.20177e-13 8.4867e-13 4.74085e-13 9.99206e-14 0 0 3.16483e-13 6.69529e-13 6.23136e-13 5.6791e-14 0 0 4.04719e-13 4.19167e-13 1.00754e-12 -2.21194e-13 0 0 3.36138e-13 5.3397e-13 9.17786e-13 -2.28748e-13 0 0 2.56752e-13 6.90234e-13 5.81341e-13 8.37148e-14 0 0 2.24947e-13 7.7762e-13 2.44244e-13 4.14256e-13 0 0 3.5487e-13 6.19869e-13 4.41479e-13 2.26371e-13 0 0 5.73273e-13 3.17388e-13 8.07508e-13 1.10615e-13 0 0 2.03772e-13 8.55438e-13 3.11442e-13 4.81348e-13 0 0 -1.43281e-13 1.19531e-12 -2.19685e-14 6.88845e-13 0 0 1.73101e-13 6.07174e-13 5.30286e-13 3.67263e-13 0 0 2.98075e-13 4.40958e-13 7.12249e-13 3.34629e-13 0 0 1.90862e-13 5.87927e-13 5.15187e-13 5.67072e-13 0 0 1.6901e-13 6.19899e-13 5.88067e-13 3.5719e-13 0 0 2.79335e-13 3.58852e-13 1.06795e-12 -5.96481e-14 0 0 1.73782e-13 3.38692e-13 1.31314e-12 -2.36269e-13 0 0 -1.27644e-13 6.06335e-13 1.16097e-12 -1.83322e-13 0 0 -1.84705e-13 7.65837e-13 8.50499e-13 -4.2586e-14 0 0 1.63104e-14 6.87607e-13 6.06903e-13 2.20643e-13 0 0 4.73042e-13 3.99071e-14 1.28943e-12 -1.70407e-13 0 0 6.64968e-13 -2.26865e-13 1.73728e-12 -5.47747e-13 0
				</DataArray>
				<DataArray Name="VitesseY" type="Float32" format="ascii">