<?xml version="1.0"?>
<VTKFile type="PolyData">
	<PolyData>
		<Piece NumberOfPoints="1206" NumberOfPolys="1000">
			<Points>
				<DataArray type="Float32" NumberOfComponents="3" format="ascii">
 0 0 0 0.02 0 0 0.04 0 0 0.06 0 0 0.08 0 0 0.1 0 0 0 0.005 0 0.02 0.005 0 0.04 0.005 0 0.06 0.005 0 0.08 0.005 0 0.1 0.005 0 0 0.01 0 0.02 0.01 0 0.04 0.01 0 0.06 0.01 0 0.08 0.01 0 0.1 0.01 0 0 0.015 0 0.02 0.015 0 0.04 0.015 0 0.06 0.015 0 0.08 0.015 0 0.1 0.015 0 0 0.02 0 0.02 0.02 0 0.04 0.02 0 0.06 0.02 0 0.08 0.02 0 0.1 0.02 0 0 0.025 0 0.02 0.025 0 0.04 0.025 0 0.06 0.025 0 0.08 0.025 0 0.1 0.025 0 0 0.03 0 0.02 0.03 0 0.04 0.03 0 0.06 0.03 0 0.08 0.03 0 0.1 0.03 0 0 0.035 0 0.02 0.035 0 0.04 0.035 0 0.06 0.035 0 0.08 0.035 0 0.1 0.035 0 0 0.04 0 0.02 0.04 0 0.04 0.04 0 0.06 0.04 0 0.08 0.04 0 0.1 0.04 0 0 0.045 0 0.02 0.045 0 0.04 0.045 0 0.06 0.045 0 0.08 0.045 0 0.1 0.045 0 0 0.05 0 0.02 0.05 0 0.04 0.05 0 0.06 0.05 0 0.08 0.05 0 0.1 0.05 0 0 0.055 0 0.02 0.055 0 0.04 0.055 0 0.06 0.055 0 0.08 0.055 0 0.1 0.055 0 0 0.06 0 0.02 0.06 0 0.04 0.06 0 0.06 0.06 0 0.08 0.06 0 0.1 0.06 0 0 0.065 0 0.02 0.065 0 0.04 0.065 0 0.06 0.065 0 0.08 0.065 0 0.1 0.065 0 0 0.07 0 0.02 0.07 0 0.04 0.07 0 0.06 0.07 0 0.08 0.07 0 0.1 0.07 0 0 0.075 0 0.02 0.075 0 0.04 0.075 0 0.06 0.075 0 0.08 0.075 0 0.1 0.075 0 0 0.08 0 0.02 0.08 0 0.04 0.08 0 0.06 0.08 0 0.08 0.08 0 0.1 0.08 0 0 0.085 0 0.02 0.085 0 0.04 0.085 0 0.06 0.085 0 0.08 0.085 0 0.1 0.085 0 0 0.09 0 0.02 0.09 0 0.04 0.09 0 0.06 0.09 0 0.08 0.09 0 0.1 0.09 0 0 0.095 0 0.02 0.095 0 0.04 0.095 0 0.06 0.095 0 0.08 0.095 0 0.1 0.095 0 0 0.1 0 0.02 0.1 0 0.04 0.1 0 0.06 0.1 0 0.08 0.1 0 0.1 0.1 0 0 0.105 0 0.02 0.105 0 0.04 0.105 0 0.06 0.105 0 0.08 0.105 0 0.1 0.105 0 0 0.11 0 0.02 0.11 0 0.04 0.11 0 0.06 0.11 0 0.08 0.11 0 0.1 0.11 0 0 0.115 0 0.02 0.115 0 0.04 0.115 0 0.06 0.115 0 0.08 0.115 0 0.1 0.115 0 0 0.12 0 0.02 0.12 0 0.04 0.12 0 0.06 0.12 0 0.08 0.12 0 0.1 0.12 0 0 0.125 0 0.02 0.125 0 0.04 0.125 0 0.06 0.125 0 0.08 0.125 0 0.1 0.125 0 0 0.13 0 0.02 0.13 0 0.04 0.13 0 0.06 0.13 0 0.08 0.13 0 0.1 0.13 0 0 0.135 0 0.02 0.135 0 0.04 0.135 0 0.06 0.135 0 0.08 0.135 0 0.1 0.135 0 0 0.14 0 0.02 0.14 0 0.04 0.14 0 0.06 0.14 0 0.08 0.14 0 0.1 0.14 0 0 0.145 0 0.02 0.145 0 0.04 0.145 0 0.06 0.145 0 0.08 0.145 0 0.1 0.145 0 0 0.15 0 0.02 0.15 0 0.04 0.15 0 0.06 0.15 0 0.08 0.15 0 0.1 0.15 0 0 0.155 0 0.02 0.155 0 0.04 0.155 0 0.06 0.155 0 0.08 0.155 0 0.1 0.155 0 0 0.16 0 0.02 0.16 0 0.04 0.16 0 0.06 0.16 0 0.08 0.16 0 0.1 0.16 0 0 0.165 0 0.02 0.165 0 0.04 0.165 0 0.06 0.165 0 0.08 0.165 0 0.1 0.165 0 0 0.17 0 0.02 0.17 0 0.04 0.17 0 0.06 0.17 0 0.08 0.17 0 0.1 0.17 0 0 0.175 0 0.02 0.175 0 0.04 0.175 0 0.06 0.175 0 0.08 0.175 0 0.1 0.175 0 0 0.18 0 0.02 0.18 0 0.04 0.18 0 0.06 0.18 0 0.08 0.18 0 0.1 0.18 0 0 0.185 0 0.02 0.185 0 0.04 0.185 0 0.06 0.185 0 0.08 0.185 0 0.1 0.185 0 0 0.19 0 0.02 0.19 0 0.04 0.19 0 0.06 0.19 0 0.08 0.19 0 0.1 0.19 0 0 0.195 0 0.02 0.195 0 0.04 0.195 0 0.06 0.195 0 0.08 0.195 0 0.1 0.195 0 0 0.2 0 0.02 0.2 0 0.04 0.2 0 0.06 0.2 0 0.08 0.2 0 0.1 0.2 0 0 0.205 0 0.02 0.205 0 0.04 0.205 0 0.06 0.205 0 0.08 0.205 0 0.1 0.205 0 0 0.21 0 0.02 0.21 0 0.04 0.21 0 0.06 0.21 0 0.08 0.21 0 0.1 0.21 0 0 0.215 0 0.02 0.215 0 0.04 0.215 0 0.06 0.215 0 0.08 0.215 0 0.1 0.215 0 0 0.22 0 0.02 0.22 0 0.04 0.22 0 0.06 0.22 0 0.08 0.22 0 0.1 0.22 0 0 0.225 0 0.02 0.225 0 0.04 0.225 0 0.06 0.225 0 0.08 0.225 0 0.1 0.225 0 0 0.23 0 0.02 0.23 0 0.04 0.23 0 0.06 0.23 0 0.08 0.23 0 0.1 0.23 0 0 0.235 0 0.02 0.235 0 0.04 0.235 0 0.06 0.235 0 0.08 0.235 0 0.1 0.235 0 0 0.24 0 0.02 0.24 0 0.04 0.24 0 0.06 0.24 0 0.08 0.24 0 0.1 0.24 0 0 0.245 0 0.02 0.245 0 0.04 0.245 0 0.06 0.245 0 0.08 0.245 0 0.1 0.245 0 0 0.25 0 0.02 0.25 0 0.04 0.25 0 0.06 0.25 0 0.08 0.25 0 0.1 0.25 0 0 0.255 0 0.02 0.255 0 0.04 0.255 0 0.06 0.255 0 0.08 0.255 0 0.1 0.255 0 0 0.26 0 0.02 0.26 0 0.04 0.26 0 0.06 0.26 0 0.08 0.26 0 0.1 0.26 0 0 0.265 0 0.02 0.265 0 0.04 0.265 0 0.06 0.265 0 0.08 0.265 0 0.1 0.265 0 0 0.27 0 0.02 0.27 0 0.04 0.27 0 0.06 0.27 0 0.08 0.27 0 0.1 0.27 0 0 0.275 0 0.02 0.275 0 0.04 0.275 0 0.06 0.275 0 0.08 0.275 0 0.1 0.275 0 0 0.28 0 0.02 0.28 0 0.04 0.28 0 0.06 0.28 0 0.08 0.28 0 0.1 0.28 0 0 0.285 0 0.02 0.285 0 0.04 0.285 0 0.06 0.285 0 0.08 0.285 0 0.1 0.285 0 0 0.29 0 0.02 0.29 0 0.04 0.29 0 0.06 0.29 0 0.08 0.29 0 0.1 0.29 0 0 0.295 0 0.02 0.295 0 0.04 0.295 0 0.06 0.295 0 0.08 0.295 0 0.1 0.295 0 0 0.3 0 0.02 0.3 0 0.04 0.3 0 0.06 0.3 0 0.08 0.3 0 0.1 0.3 0 0 0.305 0 0.02 0.305 0 0.04 0.305 0 0.06 0.305 0 0.08 0.305 0 0.1 0.305 0 0 0.31 0 0.02 0.31 0 0.04 0.31 0 0.06 0.31 0 0.08 0.31 0 0.1 0.31 0 0 0.315 0 0.02 0.315 0 0.04 0.315 0 0.06 0.315 0 0.08 0.315 0 0.1 0.315 0 0 0.32 0 0.02 0.32 0 0.04 0.32 0 0.06 0.32 0 0.08 0.32 0 0.1 0.32 0 0 0.325 0 0.02 0.325 0 0.04 0.325 0 0.06 0.325 0 0.08 0.325 0 0.1 0.325 0 0 0.33 0 0.02 0.33 0 0.04 0.33 0 0.06 0.33 0 0.08 0.33 0 0.1 0.33 0 0 0.335 0 0.02 0.335 0 0.04 0.335 0 0.06 0.335 0 0.08 0.335 0 0.1 0.335 0 0 0.34 0 0.02 0.34 0 0.04 0.34 0 0.06 0.34 0 0.08 0.34 0 0.1 0.34 0 0 0.345 0 0.02 0.345 0 0.04 0.345 0 0.06 0.345 0 0.08 0.345 0 0.1 0.345 0 0 0.35 0 0.02 0.35 0 0.04 0.35 0 0.06 0.35 0 0.08 0.35 0 0.1 0.35 0 0 0.355 0 0.02 0.355 0 0.04 0.355 0 0.06 0.355 0 0.08 0.355 0 0.1 0.355 0 0 0.36 0 0.02 0.36 0 0.04 0.36 0 0.06 0.36 0 0.08 0.36 0 0.1 0.36 0 0 0.365 0 0.02 0.365 0 0.04 0.365 0 0.06 0.365 0 0.08 0.365 0 0.1 0.365 0 0 0.37 0 0.02 0.37 0 0.04 0.37 0 0.06 0.37 0 0.08 0.37 0 0.1 0.37 0 0 0.375 0 0.02 0.375 0 0.04 0.375 0 0.06 0.375 0 0.08 0.375 0 0.1 0.375 0 0 0.38 0 0.02 0.38 0 0.04 0.38 0 0.06 0.38 0 0.08 0.38 0 0.1 0.38 0 0 0.385 0 0.02 0.385 0 0.04 0.385 0 0.06 0.385 0 0.08 0.385 0 0.1 0.385 0 0 0.39 0 0.02 0.39 0 0.04 0.39 0 0.06 0.39 0 0.08 0.39 0 0.1 0.39 0 0 0.395 0 0.02 0.395 0 0.04 0.395 0 0.06 0.395 0 0.08 0.395 0 0.1 0.395 0 0 0.4 0 0.02 0.4 0 0.04 0.4 0 0.06 0.4 0 0.08 0.4 0 0.1 0.4 0 0 0.405 0 0.02 0.405 0 0.04 0.405 0 0.06 0.405 0 0.08 0.405 0 0.1 0.405 0 0 0.41 0 0.02 0.41 0 0.04 0.41 0 0.06 0.41 0 0.08 0.41 0 0.1 0.41 0 0 0.415 0 0.02 0.415 0 0.04 0.415 0 0.06 0.415 0 0.08 0.415 0 0.1 0.415 0 0 0.42 0 0.02 0.42 0 0.04 0.42 0 0.06 0.42 0 0.08 0.42 0 0.1 0.42 0 0 0.425 0 0.02 0.425 0 0.04 0.425 0 0.06 0.425 0 0.08 0.425 0 0.1 0.425 0 0 0.43 0 0.02 0.43 0 0.04 0.43 0 0.06 0.43 0 0.08 0.43 0 0.1 0.43 0 0 0.435 0 0.02 0.435 0 0.04 0.435 0 0.06 0.435 0 0.08 0.435 0 0.1 0.435 0 0 0.44 0 0.02 0.44 0 0.04 0.44 0 0.06 0.44 0 0.08 0.44 0 0.1 0.44 0 0 0.445 0 0.02 0.445 0 0.04 0.445 0 0.06 0.445 0 0.08 0.445 0 0.1 0.445 0 0 0.45 0 0.02 0.45 0 0.04 0.45 0 0.06 0.45 0 0.08 0.45 0 0.1 0.45 0 0 0.455 0 0.02 0.455 0 0.04 0.455 0 0.06 0.455 0 0.08 0.455 0 0.1 0.455 0 0 0.46 0 0.02 0.46 0 0.04 0.46 0 0.06 0.46 0 0.08 0.46 0 0.1 0.46 0 0 0.465 0 0.02 0.465 0 0.04 0.465 0 0.06 0.465 0 0.08 0.465 0 0.1 0.465 0 0 0.47 0 0.02 0.47 0 0.04 0.47 0 0.06 0.47 0 0.08 0.47 0 0.1 0.47 0 0 0.475 0 0.02 0.475 0 0.04 0.475 0 0.06 0.475 0 0.08 0.475 0 0.1 0.475 0 0 0.48 0 0.02 0.48 0 0.04 0.48 0 0.06 0.48 0 0.08 0.48 0 0.1 0.48 0 0 0.485 0 0.02 0.485 0 0.04 0.485 0 0.06 0.485 0 0.08 0.485 0 0.1 0.485 0 0 0.49 0 0.02 0.49 0 0.04 0.49 0 0.06 0.49 0 0.08 0.49 0 0.1 0.49 0 0 0.495 0 0.02 0.495 0 0.04 0.495 0 0.06 0.495 0 0.08 0.495 0 0.1 0.495 0 0 0.5 0 0.02 0.5 0 0.04 0.5 0 0.06 0.5 0 0.08 0.5 0 0.1 0.5 0 0 0.505 0 0.02 0.505 0 0.04 0.505 0 0.06 0.505 0 0.08 0.505 0 0.1 0.505 0 0 0.51 0 0.02 0.51 0 0.04 0.51 0 0.06 0.51 0 0.08 0.51 0 0.1 0.51 0 0 0.515 0 0.02 0.515 0 0.04 0.515 0 0.06 0.515 0 0.08 0.515 0 0.1 0.515 0 0 0.52 0 0.02 0.52 0 0.04 0.52 0 0.06 0.52 0 0.08 0.52 0 0.1 0.52 0 0 0.525 0 0.02 0.525 0 0.04 0.525 0 0.06 0.525 0 0.08 0.525 0 0.1 0.525 0 0 0.53 0 0.02 0.53 0 0.04 0.53 0 0.06 0.53 0 0.08 0.53 0 0.1 0.53 0 0 0.535 0 0.02 0.535 0 0.04 0.535 0 0.06 0.535 0 0.08 0.535 0 0.1 0.535 0 0 0.54 0 0.02 0.54 0 0.04 0.54 0 0.06 0.54 0 0.08 0.54 0 0.1 0.54 0 0 0.545 0 0.02 0.545 0 0.04 0.545 0 0.06 0.545 0 0.08 0.545 0 0.1 0.545 0 0 0.55 0 0.02 0.55 0 0.04 0.55 0 0.06 0.55 0 0.08 0.55 0 0.1 0.55 0 0 0.555 0 0.02 0.555 0 0.04 0.555 0 0.06 0.555 0 0.08 0.555 0 0.1 0.555 0 0 0.56 0 0.02 0.56 0 0.04 0.56 0 0.06 0.56 0 0.08 0.56 0 0.1 0.56 0 0 0.565 0 0.02 0.565 0 0.04 0.565 0 0.06 0.565 0 0.08 0.565 0 0.1 0.565 0 0 0.57 0 0.02 0.57 0 0.04 0.57 0 0.06 0.57 0 0.08 0.57 0 0.1 0.57 0 0 0.575 0 0.02 0.575 0 0.04 0.575 0 0.06 0.575 0 0.08 0.575 0 0.1 0.575 0 0 0.58 0 0.02 0.58 0 0.04 0.58 0 0.06 0.58 0 0.08 0.58 0 0.1 0.58 0 0 0.585 0 0.02 0.585 0 0.04 0.585 0 0.06 0.585 0 0.08 0.585 0 0.1 0.585 0 0 0.59 0 0.02 0.59 0 0.04 0.59 0 0.06 0.59 0 0.08 0.59 0 0.1 0.59 0 0 0.595 0 0.02 0.595 0 0.04 0.595 0 0.06 0.595 0 0.08 0.595 0 0.1 0.595 0 0 0.6 0 0.02 0.6 0 0.04 0.6 0 0.06 0.6 0 0.08 0.6 0 0.1 0.6 0 0 0.605 0 0.02 0.605 0 0.04 0.605 0 0.06 0.605 0 0.08 0.605 0 0.1 0.605 0 0 0.61 0 0.02 0.61 0 0.04 0.61 0 0.06 0.61 0 0.08 0.61 0 0.1 0.61 0 0 0.615 0 0.02 0.615 0 0.04 0.615 0 0.06 0.615 0 0.08 0.615 0 0.1 0.615 0 0 0.62 0 0.02 0.62 0 0.04 0.62 0 0.06 0.62 0 0.08 0.62 0 0.1 0.62 0 0 0.625 0 0.02 0.625 0 0.04 0.625 0 0.06 0.625 0 0.08 0.625 0 0.1 0.625 0 0 0.63 0 0.02 0.63 0 0.04 0.63 0 0.06 0.63 0 0.08 0.63 0 0.1 0.63 0 0 0.635 0 0.02 0.635 0 0.04 0.635 0 0.06 0.635 0 0.08 0.635 0 0.1 0.635 0 0 0.64 0 0.02 0.64 0 0.04 0.64 0 0.06 0.64 0 0.08 0.64 0 0.1 0.64 0 0 0.645 0 0.02 0.645 0 0.04 0.645 0 0.06 0.645 0 0.08 0.645 0 0.1 0.645 0 0 0.65 0 0.02 0.65 0 0.04 0.65 0 0.06 0.65 0 0.08 0.65 0 0.1 0.65 0 0 0.655 0 0.02 0.655 0 0.04 0.655 0 0.06 0.655 0 0.08 0.655 0 0.1 0.655 0 0 0.66 0 0.02 0.66 0 0.04 0.66 0 0.06 0.66 0 0.08 0.66 0 0.1 0.66 0 0 0.665 0 0.02 0.665 0 0.04 0.665 0 0.06 0.665 0 0.08 0.665 0 0.1 0.665 0 0 0.67 0 0.02 0.67 0 0.04 0.67 0 0.06 0.67 0 0.08 0.67 0 0.1 0.67 0 0 0.675 0 0.02 0.675 0 0.04 0.675 0 0.06 0.675 0 0.08 0.675 0 0.1 0.675 0 0 0.68 0 0.02 0.68 0 0.04 0.68 0 0.06 0.68 0 0.08 0.68 0 0.1 0.68 0 0 0.685 0 0.02 0.685 0 0.04 0.685 0 0.06 0.685 0 0.08 0.685 0 0.1 0.685 0 0 0.69 0 0.02 0.69 0 0.04 0.69 0 0.06 0.69 0 0.08 0.69 0 0.1 
[...]
			<PointData Scalars="VitesseX">
				<DataArray Name="VitesseX" type="Float32" format="ascii">
 0 -1.7867e-15 -6.60663e-15 9.00125e-15 2.68251e-14 0 0 -1.84796e-15 -6.86301e-15 1.05734e-14 2.5587e-14 0 0 -2.77515e-15 -6.30187e-15 1.23716e-14 2.49851e-14 0 0 -1.20984e-14 5.48999e-15 6.48073e-15 2.67911e-14 0 0 -1.47587e-14 1.06303e-14 9.9219e-15 2.06976e-14 0 0 -3.74197e-15 -2.54255e-15 3.24749e-14 6.33796e-15 0 0 8.72593e-16 -9.98704e-15 5.17568e-14 -5.54716e-15 0 0 7.44883e-16 -1.98826e-15 4.64542e-14 2.881e-15 0 0 1.31523e-14 -4.6474e-15 4.4344e-14 1.34837e-14 0 0 9.6771e-15 1.52717e-14 1.84086e-14 3.84052e-14 0 0 -4.6877e-15 5.22422e-14 -2.18386e-14 6.23998e-14 0 0 1.41247e-14 2.8285e-14 2.1202e-14 1.43587e-14 0 0 1.70117e-15 3.97274e-14 3.38238e-14 -1.09026e-14 0 0 2.34876e-15 2.68919e-14 4.36667e-14 -6.44175e-15 0 0 2.75158e-14 -1.89613e-14 6.96805e-14 -6.6504e-15 0 0 1.99904e-14 -6.52306e-15 5.8609e-14 -1.4439e-14 0 0 -7.0583e-16 3.37612e-14 1.47749e-14 -1.49835e-16 0 0 1.44452e-14 7.38958e-15 2.49732e-14 -1.633e-14 0 0 3.00462e-14 -1.52775e-14 2.71332e-14 -2.30741e-14 0 0 1.46479e-14 1.55016e-14 -1.97958e-14 1.02362e-14 0 0 3.81929e-14 -3.0882e-14 3.99292e-14 -4.58399e-14 0 0 4.79088e-14 -5.18824e-14 4.55686e-14 -5.04781e-14 0 0 8.92695e-15 7.32226e-15 -4.72676e-14 4.06948e-14 0 0 -3.26922e-14 6.17324e-14 -1.18192e-13 1.29169e-13 0 0 -1.96405e-14 1.56451e-14 -5.03251e-14 9.26001e-14 0 0 -1.05762e-14 -1.38458e-14 7.60979e-15 4.14978e-14 0 0 -2.1645e-14 -9.57858e-15 1.60101e-14 3.32143e-14 0 0 -5.00459e-15 -4.42286e-14 6.76566e-14 6.89907e-15 0 0 -2.11375e-14 -2.82952e-14 6.47588e-14 3.41938e-14 0 0 -1.17734e-14 -3.73331e-14 8.57974e-14 2.22515e-14 0 0 2.25077e-14 -4.37314e-14 9.72502e-14 6.34728e-16 0 0 2.63809e-14 -1.41443e-14 6.56026e-14 3.35969e-14 0 0 5.3855e-15 4.13097e-14 -1.49255e-15 9.60454e-14 0 0 1.51602e-14 3.2004e-14 1.21741e-14 9.66935e-14 0 0 2.48159e-14 -4.93816e-15 7.06844e-14 5.57371e-14 0 0 3.46271e-14 -3.74903e-14 1.01073e-13 4.69054e-14 0 0 1.02409e-14 -1.96168e-14 8.68883e-14 8.04264e-14 0 0 -1.73623e-14 2.30776e-14 4.76909e-14 1.29499e-13 0 0 -1.703e-14 4.24508e-14 2.84376e-14 1.36694e-13 0 0 8.48104e-15 1.75898e-14 4.62141e-14 9.84796e-14 0 0 2.75547e-14 5.5958e-15 1.27355e-14 1.1787e-13 0 0 4.42233e-14 -1.68007e-14 1.16975e-14 1.09335e-13 0 0 3.53774e-14 5.30749e-16 3.87711e-14 5.21645e-14 0 0 3.68422e-14 1.60401e-14 6.00514e-14 1.04431e-14 0 0 1.059e-13 -7.12633e-14 1.36403e-13 -4.00151e-14 0 0 7.19062e-14 1.81276e-14 1.55546e-14 3.66469e-14 0 0 -1.04644e-14 1.77908e-13 -1.78054e-13 1.94468e-13 0 0 1.69927e-14 1.21164e-13 -1.2609e-13 2.02578e-13 0 0 9.58983e-14 -3.73929e-14 7.91237e-14 4.83143e-14 0 0 1.47291e-13 -1.05945e-13 1.49287e-13 -1.76951e-14 0 0 2.29321e-13 -1.80195e-13 1.88593e-13 -5.03464e-14 0 0 1.89893e-13 -8.90388e-14 1.15808e-13 -3.97205e-14 0 0 1.39006e-13 2.51624e-14 -2.59683e-14 6.82541e-14 0 0 1.37785e-13 2.85493e-14 -1.52776e-14 6.954e-14 0 0 1.53382e-13 3.03095e-14 1.78287e-14 3.52214e-14 0 0 1.69838e-13 -7.63097e-15 1.09755e-13 1.69285e-14 0 0 6.43987e-14 9.78321e-14 1.24369e-13 3.04073e-14 0 0 1.33763e-13 5.31595e-14 1.70902e-13 4.02746e-14 0 0 2.56586e-13 -9.09646e-14 3.18605e-13 7.53882e-15 0 0 2.27157e-13 -1.52059e-14 2.73474e-13 9.70747e-14 0 0 5.30789e-14 1.66418e-13 1.71741e-13 2.18516e-13 0 0 -4.56696e-14 2.51604e-13 1.6372e-13 2.43629e-13 0 0 7.2996e-14 1.32976e-13 2.29262e-13 2.11669e-13 0 0 1.30896e-13 8.00575e-14 2.36902e-13 1.77739e-13 0 0 1.83967e-13 2.74446e-14 3.13055e-13 5.97908e-14 0 0 1.37166e-13 7.15937e-14 3.31658e-13 1.38234e-14 0 0 -3.26718e-14 2.50156e-13 2.30769e-13 1.13029e-13 0 0 3.7038e-14 8.09921e-14 3.62206e-13 1.16679e-13 0 0 1.26306e-13 -2.54737e-14 3.27201e-13 1.84883e-13 0 0 2.01556e-13 -2.71443e-14 2.14269e-13 1.64514e-13 0 0 3.73107e-13 -1.409e-13 1.88503e-13 8.57702e-14 0 0 3.78559e-13 1.05406e-14 -6.88e-14 2.47503e-13 0 0 3.20615e-13 1.14367e-13 -9.75525e-14 2.42996e-13 0 0 2.20319e-13 1.46518e-13 -2.26587e-14 1.98348e-13 0 0 3.38142e-13 -1.33917e-14 7.28945e-14 2.34861e-13 0 0 4.77993e-13 -1.12891e-13 8.92423e-14 2.99736e-13 0 0 4.11309e-13 6.56103e-14 -6.51508e-15 2.5713e-13 0 0 3.67943e-13 1.35682e-13 2.69836e-14 7.11569e-14 0 0 4.4899e-13 2.84847e-15 9.20758e-14 -9.6776e-14 0 0 5.31236e-13 -1.4553e-13 9.5377e-14 -2.64215e-14 0 0 5.70304e-13 -3.17728e-13 2.08854e-13 2.08173e-15 0 0 4.71832e-13 -2.88035e-13 8.6875e-14 1.24853e-13 0 0 2.39958e-13 -4.6455e-14 -1.94183e-13 2.95645e-13 0 0 6.36468e-15 6.81435e-14 -1.57078e-13 2.53744e-13 0 0 -7.54393e-14 -5.81535e-14 8.2092e-14 1.13183e-13 0 0 -2.01303e-13 -1.31265e-13 3.40277e-13 5.68741e-14 0 0 -4.19475e-13 5.29916e-14 1.9986e-13 2.04057e-13 0 0 -4.36103e-13 1.42794e-13 -2.654e-14 3.90153e-13 0 0 -1.88229e-13 -1.46519e-13 4.98133e-14 3.99501e-13 0 0 1.10124e-13 -5.01404e-13 1.42384e-13 4.24042e-13 0 0 1.00556e-13 -4.76149e-13 -7.06459e-15 5.76017e-13 0 0 -6.58718e-14 -3.3467e-13 -1.68983e-13 6.81082e-13 0 0 -1.50551e-13 -3.09831e-13 -1.55673e-13 6.71708e-13 0 0 -4.39001e-14 -4.30254e-13 -3.51343e-14 5.59716e-13 0 0 6.94383e-15 -5.31827e-13 2.35428e-13 2.91808e-13 0 0 -5.74538e-14 -4.93017e-13 5.26225e-13 -1.82977e-13 0 0 -1.86784e-13 -3.82267e-13 5.7164e-13 -5.0487e-13 0 0 -3.83028e-13 -1.48899e-13 4.79288e-13 -5.18381e-13 0 0 -5.44544e-13 1.66536e-13 2.03151e-13 -3.43691e-13 0 0 -4.79247e-13 2.82846e-13 -1.10784e-13 3.095e-14 0 0 -3.60631e-13 3.66145e-13 -3.25687e-13 3.88638e-13 0 0 -2.6868e-13 4.57715e-13 -3.6919e-13 4.95495e-13 0 0 -1.94005e-13 5.00572e-13 -2.82209e-13 4.03035e-13 0 0 -4.5913e-14 4.24565e-13 2.62904e-14 1.03031e-13 0 0 2.46935e-13 1.01855e-13 5.63947e-13 -2.99972e-13 0 0 4.40655e-13 -2.17149e-13 8.62859e-13 -4.08168e-13 0 0 4.49783e-13 -2.39918e-13 8.40516e-13 -3.48973e-13 0 0 3.67235e-13 -1.15446e-13 6.9005e-13 -1.82353e-13 0 0 1.84486e-13 2.01511e-13 4.22968e-13 3.79203e-14 0 0 4.64747e-14 5.60895e-13 4.44196e-14 2.93152e-13 0 0 2.3778e-14 6.33646e-13 -6.45628e-14 3.95816e-13 0 0 6.14902e-14 6.01383e-13 -1.32729e-14 3.40788e-13 0 0 1.80065e-13 5.13314e-13 1.18529e-15 3.45386e-13 0 0 3.24891e-13 4.02232e-13 3.75591e-15 3.73928e-13 0 0 4.51249e-13 2.74371e-13 2.63023e-14 3.58085e-13 0 0 5.07641e-13 1.97911e-13 1.40362e-13 2.50652e-13 0 0 5.00873e-13 2.04838e-13 1.96723e-13 1.69226e-13 0 0 4.13384e-13 2.96986e-13 1.50744e-13 1.76321e-13 0 0 2.49699e-13 4.16682e-13 1.73965e-13 1.14201e-13 0 0 1.42408e-13 4.55903e-13 2.08202e-13 6.33795e-14 0 0 1.02642e-13 4.5253e-13 2.27666e-13 9.1766e-15 0 0 1.01218e-13 4.06116e-13 2.63339e-13 -5.42671e-14 0 0 1.23886e-13 3.35062e-13 2.82968e-13 -7.72848e-14 0 0 1.31026e-13 2.69603e-13 3.15478e-13 -1.31194e-13 0 0 1.26094e-13 2.39036e-13 2.9864e-13 -1.27013e-13 0 0 1.45583e-13 2.32127e-13 2.208e-13 -6.9673e-14 0 0 1.34054e-13 2.60611e-13 1.14155e-13 1.79437e-14 0 0 1.30758e-13 2.33753e-13 9.3125e-14 9.84937e-14 0 0 1.44579e-13 1.8515e-13 1.23085e-13 6.47618e-14 0 0 1.35307e-13 1.6323e-13 1.97412e-13 -3.01648e-14 0 0 1.408e-13 1.52259e-13 1.80572e-13 4.85947e-15 0 0 1.4372e-13 1.55826e-13 1.27402e-13 6.50366e-14 0 0 1.3927e-13 1.53991e-13 1.36704e-13 5.11941e-14 0 0 1.38711e-13 1.5023e-13 1.56525e-13 2.11581e-14 0 0 1.31624e-13 1.5382e-13 1.64049e-13 4.6391e-14 0 0 1.1704e-13 1.59044e-13 1.23656e-13 1.58622e-13 0 0 1.01087e-13 1.44754e-13 1.37999e-13 1.47219e-13 0 0 8.17993e-14 1.19317e-13 1.51349e-13 1.41991e-13 0 0 4.40943e-14 1.47214e-13 6.05037e-14 2.09528e-13 0 0 2.12728e-14 1.46146e-13 4.91779e-14 1.64231e-13 0 0 -5.00811e-15 8.85419e-14 1.11167e-13 1.54469e-13 0 0 2.95028e-15 4.18949e-15 1.62298e-13 1.80383e-13 0 0 5.8419e-14 -2.67069e-14 1.89655e-13 1.43186e-13 0 0 5.2956e-14 2.159e-14 2.32463e-13 6.16812e-14 0 0 2.02301e-14 1.20618e-13 2.8461e-13 6.4022e-14 0 0 1.24078e-14 2.71633e-13 1.93484e-13 2.66342e-13 0 0 4.69858e-14 2.55776e-13 3.51022e-13 2.07575e-13 0 0 1.05687e-13 1.74288e-13 5.836e-13 3.83166e-14 0 0 1.50948e-13 1.63443e-13 6.30177e-13 8.63379e-14 0 0 1.24856e-13 2.80285e-13 5.28278e-13 3.03786e-13 0 0 7.9015e-14 3.98678e-13 4.58758e-13 4.36232e-13 0 0 1.31032e-13 3.33459e-13 5.84372e-13 4.16811e-13 0 0 1.55284e-13 3.06801e-13 6.47805e-13 4.07223e-13 0 0 1.28615e-13 3.87549e-13 5.98887e-13 3.50166e-13 0 0 8.43344e-14 5.16341e-13 4.92229e-13 3.97249e-13 0 0 1.52226e-13 4.50715e-13 5.46226e-13 3.93357e-13 0 0 2.31586e-13 3.77273e-13 6.26741e-13 2.51726e-13 0 0 2.91264e-13 3.10781e-13 7.00907e-13 1.95193e-13 0 0 3.1258e-13 3.44674e-13 6.40395e-13 2.53031e-13 0 0 1.91981e-13 5.94864e-13 3.8363e-13 4.118e-13 0 0 2.20762e-13 6.02985e-13 3.3663e-13 4.75343e-13 0 0 3.76045e-13 4.36186e-13 5.59308e-13 2.78852e-13 0 0 3.75036e-13 4.66841e-13 6.91506e-13 9.69474e-14 0 0 3.53506e-13 5.78916e-13 5.77071e-13 1.90304e-13 0 0 3.29368e-13 6.66857e-13 4.94465e-13 2.73305e-13 0 0 4.26019e-13 5.11895e-13 6.53077e-13 1.21438e-13 0 0 4.4457e-13 5.29433e-13 5.01494e-13 2.85174e-13 0 0 4.00654e-13 6.17311e-13 3.90715e-13 4.37989e-13 0 0 5.0348e-13 4.56168e-13 6.04242e-13 2.43619e-13 0 0 3.82178e-13 6.16785e-13 4.56506e-13 3.32067e-13 0 0 4.22777e-13 5.4809e-13 4.17083e-13 4.445e-13 0 0 4.52749e-13 4.56795e-13 5.74301e-13 2.20306e-13 0 0 4.06716e-13 4.77228e-13 6.81411e-13 -3.91774e-14 0 0 4.26e-13 4.60914e-13 5.53756e-13 2.21615e-13 0 0 4.49711e-13 2.73926e-13 6.60883e-13 4.29548e-13 0 0 3.86129e-13 3.57312e-13 6.37699e-13 3.79933e-13 0 0 5.32811e-13 3.42931e-13 6.75478e-13 2.14061e-13 0 0 5.56836e-13 3.91373e-13 6.19791e-13 2.29509e-13 0 0 1.88859e-13 9.3902e-13 1.65346e-13 4.58658e-13 0 0 4.17453e-13 5.31225e-13 5.06924e-13 3.99171e-13 0 0 4.80753e-13 3.58709e-13 7.25847e-13 2.84657e-13 0 0 2.9298e-13 6.30462e-13 5.60569e-13 2.48308e-13 0 0 3.41413e-13 6.1087e-13 4.14213e-13 4.43178e-13 0 0 5.10492e-13 3.87183e-13 4.44925e-13 5.70794e-13 0 0 4.82828e-13 3.74248e-13 4.74724e-13 5.66339e-13 0 0 1.98882e-13 7.82164e-13 2.63666e-13 5.66715e-13 0 0 7.70405e-14 9.0045e-13 3.47432e-13 3.41977e-13 0 0 7.52212e-14 8.33284e-13 4.51511e-13 9.15454e-14 0 0 2.47601e-13 6.0078e-13 6.40576e-13 -2.02876e-13 0 0 5.22195e-13 2.94618e-13 7.97812e-13 -2.41246e-13 0 0 5.52194e-13 2.9885e-13 6.3044e-13 -1.58207e-14 0 0 1.27181e-13 7.72218e-13 2.02601e-13 3.10252e-13 0 0 1.36279e-14 8.23178e-13 2.24643e-13 3.84151e-13 0 0 1.96519e-13 3.83632e-13 8.81577e-13 -1.11762e-13 0 0 -2.30001e-15 5.38661e-13 7.74566e-13 -1.2032e-13 0 0 -8.08472e-15 6.36876e-13 5.5674e-13 -4.02463e-14 0 0 7.15872e-14 5.13024e-13 8.42317e-13 -2.84609e-13 0 0 5.41125e-14 5.0064e-13 1.02153e-12 -3.91393e-13 0 0 -2.49842e-14 6.35451e-13 7.86693e-13 -1.56039e-13 0 0 -2.77952e-13 1.0392e-12 2.99105e-13 1.5496e-13 0 0 -3.79066e-13 1.24253e-12 1.06938e-13 2.00004e-13 0
				</DataArray>
				<DataArray Name="VitesseY" type="Float32" format="ascii">