<?xml version="1.0"?>
<VTKFile type="PolyData">
	<PolyData>
		<Piece NumberOfPoints="1206" NumberOfPolys="1000">
			<Points>
				<DataArray type="Float32" NumberOfComponents="3" format="ascii">
 0 0 0 0.02 0 0 0.04 0 0 0.06 0 0 0.08 0 0 0.1 0 0 0 0.005 0 0.02 0.005 0 0.04 0.005 0 0.06 0.005 0 0.08 0.005 0 0.1 0.005 0 0 0.01 0 0.02 0.01 0 0.04 0.01 0 0.06 0.01 0 0.08 0.01 0 0.1 0.01 0 0 0.015 0 0.02 0.015 0 0.04 0.015 0 0.06 0.015 0 0.08 0.015 0 0.1 0.015 0 0 0.02 0 0.02 0.02 0 0.04 0.02 0 0.06 0.02 0 0.08 0.02 0 0.1 0.02 0 0 0.025 0 0.02 0.025 0 0.04 0.025 0 0.06 0.025 0 0.08 0.025 0 0.1 0.025 0 0 0.03 0 0.02 0.03 0 0.04 0.03 0 0.06 0.03 0 0.08 0.03 0 0.1 0.03 0 0 0.035 0 0.02 0.035 0 0.04 0.035 0 0.06 0.035 0 0.08 0.035 0 0.1 0.035 0 0 0.04 0 0.02 0.04 0 0.04 0.04 0 0.06 0.04 0 0.08 0.04 0 0.1 0.04 0 0 0.045 0 0.02 0.045 0 0.04 0.045 0 0.06 0.045 0 0.08 0.045 0 0.1 0.045 0 0 0.05 0 0.02 0.05 0 0.04 0.05 0 0.06 0.05 0 0.08 0.05 0 0.1 0.05 0 0 0.055 0 0.02 0.055 0 0.04 0.055 0 0.06 0.055 0 0.08 0.055 0 0.1 0.055 0 0 0.06 0 0.02 0.06 0 0.04 0.06 0 0.06 0.06 0 0.08 0.06 0 0.1 0.06 0 0 0.065 0 0.02 0.065 0 0.04 0.065 0 0.06 0.065 0 0.08 0.065 0 0.1 0.065 0 0 0.07 0 0.02 0.07 0 0.04 0.07 0 0.06 0.07 0 0.08 0.07 0 0.1 0.07 0 0 0.075 0 0.02 0.075 0 0.04 0.075 0 0.06 0.075 0 0.08 0.075 0 0.1 0.075 0 0 0.08 0 0.02 0.08 0 0.04 0.08 0 0.06 0.08 0 0.08 0.08 0 0.1 0.08 0 0 0.085 0 0.02 0.085 0 0.04 0.085 0 0.06 0.085 0 0.08 0.085 0 0.1 0.085 0 0 0.09 0 0.02 0.09 0 0.04 0.09 0 0.06 0.09 0 0.08 0.09 0 0.1 0.09 0 0 0.095 0 0.02 0.095 0 0.04 0.095 0 0.06 0.095 0 0.08 0.095 0 0.1 0.095 0 0 0.1 0 0.02 0.1 0 0.04 0.1 0 0.06 0.1 0 0.08 0.1 0 0.1 0.1 0 0 0.105 0 0.02 0.105 0 0.04 0.105 0 0.06 0.105 0 0.08 0.105 0 0.1 0.105 0 0 0.11 0 0.02 0.11 0 0.04 0.11 0 0.06 0.11 0 0.08 0.11 0 0.1 0.11 0 0 0.115 0 0.02 0.115 0 0.04 0.115 0 0.06 0.115 0 0.08 0.115 0 0.1 0.115 0 0 0.12 0 0.02 0.12 0 0.04 0.12 0 0.06 0.12 0 0.08 0.12 0 0.1 0.12 0 0 0.125 0 0.02 0.125 0 0.04 0.125 0 0.06 0.125 0 0.08 0.125 0 0.1 0.125 0 0 0.13 0 0.02 0.13 0 0.04 0.13 0 0.06 0.13 0 0.08 0.13 0 0.1 0.13 0 0 0.135 0 0.02 0.135 0 0.04 0.135 0 0.06 0.135 0 0.08 0.135 0 0.1 0.135 0 0 0.14 0 0.02 0.14 0 0.04 0.14 0 0.06 0.14 0 0.08 0.14 0 0.1 0.14 0 0 0.145 0 0.02 0.145 0 0.04 0.145 0 0.06 0.145 0 0.08 0.145 0 0.1 0.145 0 0 0.15 0 0.02 0.15 0 0.04 0.15 0 0.06 0.15 0 0.08 0.15 0 0.1 0.15 0 0 0.155 0 0.02 0.155 0 0.04 0.155 0 0.06 0.155 0 0.08 0.155 0 0.1 0.155 0 0 0.16 0 0.02 0.16 0 0.04 0.16 0 0.06 0.16 0 0.08 0.16 0 0.1 0.16 0 0 0.165 0 0.02 0.165 0 0.04 0.165 0 0.06 0.165 0 0.08 0.165 0 0.1 0.165 0 0 0.17 0 0.02 0.17 0 0.04 0.17 0 0.06 0.17 0 0.08 0.17 0 0.1 0.17 0 0 0.175 0 0.02 0.175 0 0.04 0.175 0 0.06 0.175 0 0.08 0.175 0 0.1 0.175 0 0 0.18 0 0.02 0.18 0 0.04 0.18 0 0.06 0.18 0 0.08 0.18 0 0.1 0.18 0 0 0.185 0 0.02 0.185 0 0.04 0.185 0 0.06 0.185 0 0.08 0.185 0 0.1 0.185 0 0 0.19 0 0.02 0.19 0 0.04 0.19 0 0.06 0.19 0 0.08 0.19 0 0.1 0.19 0 0 0.195 0 0.02 0.195 0 0.04 0.195 0 0.06 0.195 0 0.08 0.195 0 0.1 0.195 0 0 0.2 0 0.02 0.2 0 0.04 0.2 0 0.06 0.2 0 0.08 0.2 0 0.1 0.2 0 0 0.205 0 0.02 0.205 0 0.04 0.205 0 0.06 0.205 0 0.08 0.205 0 0.1 0.205 0 0 0.21 0 0.02 0.21 0 0.04 0.21 0 0.06 0.21 0 0.08 0.21 0 0.1 0.21 0 0 0.215 0 0.02 0.215 0 0.04 0.215 0 0.06 0.215 0 0.08 0.215 0 0.1 0.215 0 0 0.22 0 0.02 0.22 0 0.04 0.22 0 0.06 0.22 0 0.08 0.22 0 0.1 0.22 0 0 0.225 0 0.02 0.225 0 0.04 0.225 0 0.06 0.225 0 0.08 0.225 0 0.1 0.225 0 0 0.23 0 0.02 0.23 0 0.04 0.23 0 0.06 0.23 0 0.08 0.23 0 0.1 0.23 0 0 0.235 0 0.02 0.235 0 0.04 0.235 0 0.06 0.235 0 0.08 0.235 0 0.1 0.235 0 0 0.24 0 0.02 0.24 0 0.04 0.24 0 0.06 0.24 0 0.08 0.24 0 0.1 0.24 0 0 0.245 0 0.02 0.245 0 0.04 0.245 0 0.06 0.245 0 0.08 0.245 0 0.1 0.245 0 0 0.25 0 0.02 0.25 0 0.04 0.25 0 0.06 0.25 0 0.08 0.25 0 0.1 0.25 0 0 0.255 0 0.02 0.255 0 0.04 0.255 0 0.06 0.255 0 0.08 0.255 0 0.1 0.255 0 0 0.26 0 0.02 0.26 0 0.04 0.26 0 0.06 0.26 0 0.08 0.26 0 0.1 0.26 0 0 0.265 0 0.02 0.265 0 0.04 0.265 0 0.06 0.265 0 0.08 0.265 0 0.1 0.265 0 0 0.27 0 0.02 0.27 0 0.04 0.27 0 0.06 0.27 0 0.08 0.27 0 0.1 0.27 0 0 0.275 0 0.02 0.275 0 0.04 0.275 0 0.06 0.275 0 0.08 0.275 0 0.1 0.275 0 0 0.28 0 0.02 0.28 0 0.04 0.28 0 0.06 0.28 0 0.08 0.28 0 0.1 0.28 0 0 0.285 0 0.02 0.285 0 0.04 0.285 0 0.06 0.285 0 0.08 0.285 0 0.1 0.285 0 0 0.29 0 0.02 0.29 0 0.04 0.29 0 0.06 0.29 0 0.08 0.29 0 0.1 0.29 0 0 0.295 0 0.02 0.295 0 0.04 0.295 0 0.06 0.295 0 0.08 0.295 0 0.1 0.295 0 0 0.3 0 0.02 0.3 0 0.04 0.3 0 0.06 0.3 0 0.08 0.3 0 0.1 0.3 0 0 0.305 0 0.02 0.305 0 0.04 0.305 0 0.06 0.305 0 0.08 0.305 0 0.1 0.305 0 0 0.31 0 0.02 0.31 0 0.04 0.31 0 0.06 0.31 0 0.08 0.31 0 0.1 0.31 0 0 0.315 0 0.02 0.315 0 0.04 0.315 0 0.06 0.315 0 0.08 0.315 0 0.1 0.315 0 0 0.32 0 0.02 0.32 0 0.04 0.32 0 0.06 0.32 0 0.08 0.32 0 0.1 0.32 0 0 0.325 0 0.02 0.325 0 0.04 0.325 0 0.06 0.325 0 0.08 0.325 0 0.1 0.325 0 0 0.33 0 0.02 0.33 0 0.04 0.33 0 0.06 0.33 0 0.08 0.33 0 0.1 0.33 0 0 0.335 0 0.02 0.335 0 0.04 0.335 0 0.06 0.335 0 0.08 0.335 0 0.1 0.335 0 0 0.34 0 0.02 0.34 0 0.04 0.34 0 0.06 0.34 0 0.08 0.34 0 0.1 0.34 0 0 0.345 0 0.02 0.345 0 0.04 0.345 0 0.06 0.345 0 0.08 0.345 0 0.1 0.345 0 0 0.35 0 0.02 0.35 0 0.04 0.35 0 0.06 0.35 0 0.08 0.35 0 0.1 0.35 0 0 0.355 0 0.02 0.355 0 0.04 0.355 0 0.06 0.355 0 0.08 0.355 0 0.1 0.355 0 0 0.36 0 0.02 0.36 0 0.04 0.36 0 0.06 0.36 0 0.08 0.36 0 0.1 0.36 0 0 0.365 0 0.02 0.365 0 0.04 0.365 0 0.06 0.365 0 0.08 0.365 0 0.1 0.365 0 0 0.37 0 0.02 0.37 0 0.04 0.37 0 0.06 0.37 0 0.08 0.37 0 0.1 0.37 0 0 0.375 0 0.02 0.375 0 0.04 0.375 0 0.06 0.375 0 0.08 0.375 0 0.1 0.375 0 0 0.38 0 0.02 0.38 0 0.04 0.38 0 0.06 0.38 0 0.08 0.38 0 0.1 0.38 0 0 0.385 0 0.02 0.385 0 0.04 0.385 0 0.06 0.385 0 0.08 0.385 0 0.1 0.385 0 0 0.39 0 0.02 0.39 0 0.04 0.39 0 0.06 0.39 0 0.08 0.39 0 0.1 0.39 0 0 0.395 0 0.02 0.395 0 0.04 0.395 0 0.06 0.395 0 0.08 0.395 0 0.1 0.395 0 0 0.4 0 0.02 0.4 0 0.04 0.4 0 0.06 0.4 0 0.08 0.4 0 0.1 0.4 0 0 0.405 0 0.02 0.405 0 0.04 0.405 0 0.06 0.405 0 0.08 0.405 0 0.1 0.405 0 0 0.41 0 0.02 0.41 0 0.04 0.41 0 0.06 0.41 0 0.08 0.41 0 0.1 0.41 0 0 0.415 0 0.02 0.415 0 0.04 0.415 0 0.06 0.415 0 0.08 0.415 0 0.1 0.415 0 0 0.42 0 0.02 0.42 0 0.04 0.42 0 0.06 0.42 0 0.08 0.42 0 0.1 0.42 0 0 0.425 0 0.02 0.425 0 0.04 0.425 0 0.06 0.425 0 0.08 0.425 0 0.1 0.425 0 0 0.43 0 0.02 0.43 0 0.04 0.43 0 0.06 0.43 0 0.08 0.43 0 0.1 0.43 0 0 0.435 0 0.02 0.435 0 0.04 0.435 0 0.06 0.435 0 0.08 0.435 0 0.1 0.435 0 0 0.44 0 0.02 0.44 0 0.04 0.44 0 0.06 0.44 0 0.08 0.44 0 0.1 0.44 0 0 0.445 0 0.02 0.445 0 0.04 0.445 0 0.06 0.445 0 0.08 0.445 0 0.1 0.445 0 0 0.45 0 0.02 0.45 0 0.04 0.45 0 0.06 0.45 0 0.08 0.45 0 0.1 0.45 0 0 0.455 0 0.02 0.455 0 0.04 0.455 0 0.06 0.455 0 0.08 0.455 0 0.1 0.455 0 0 0.46 0 0.02 0.46 0 0.04 0.46 0 0.06 0.46 0 0.08 0.46 0 0.1 0.46 0 0 0.465 0 0.02 0.465 0 0.04 0.465 0 0.06 0.465 0 0.08 0.465 0 0.1 0.465 0 0 0.47 0 0.02 0.47 0 0.04 0.47 0 0.06 0.47 0 0.08 0.47 0 0.1 0.47 0 0 0.475 0 0.02 0.475 0 0.04 0.475 0 0.06 0.475 0 0.08 0.475 0 0.1 0.475 0 0 0.48 0 0.02 0.48 0 0.04 0.48 0 0.06 0.48 0 0.08 0.48 0 0.1 0.48 0 0 0.485 0 0.02 0.485 0 0.04 0.485 0 0.06 0.485 0 0.08 0.485 0 0.1 0.485 0 0 0.49 0 0.02 0.49 0 0.04 0.49 0 0.06 0.49 0 0.08 0.49 0 0.1 0.49 0 0 0.495 0 0.02 0.495 0 0.04 0.495 0 0.06 0.495 0 0.08 0.495 0 0.1 0.495 0 0 0.5 0 0.02 0.5 0 0.04 0.5 0 0.06 0.5 0 0.08 0.5 0 0.1 0.5 0 0 0.505 0 0.02 0.505 0 0.04 0.505 0 0.06 0.505 0 0.08 0.505 0 0.1 0.505 0 0 0.51 0 0.02 0.51 0 0.04 0.51 0 0.06 0.51 0 0.08 0.51 0 0.1 0.51 0 0 0.515 0 0.02 0.515 0 0.04 0.515 0 0.06 0.515 0 0.08 0.515 0 0.1 0.515 0 0 0.52 0 0.02 0.52 0 0.04 0.52 0 0.06 0.52 0 0.08 0.52 0 0.1 0.52 0 0 0.525 0 0.02 0.525 0 0.04 0.525 0 0.06 0.525 0 0.08 0.525 0 0.1 0.525 0 0 0.53 0 0.02 0.53 0 0.04 0.53 0 0.06 0.53 0 0.08 0.53 0 0.1 0.53 0 0 0.535 0 0.02 0.535 0 0.04 0.535 0 0.06 0.535 0 0.08 0.535 0 0.1 0.535 0 0 0.54 0 0.02 0.54 0 0.04 0.54 0 0.06 0.54 0 0.08 0.54 0 0.1 0.54 0 0 0.545 0 0.02 0.545 0 0.04 0.545 0 0.06 0.545 0 0.08 0.545 0 0.1 0.545 0 0 0.55 0 0.02 0.55 0 0.04 0.55 0 0.06 0.55 0 0.08 0.55 0 0.1 0.55 0 0 0.555 0 0.02 0.555 0 0.04 0.555 0 0.06 0.555 0 0.08 0.555 0 0.1 0.555 0 0 0.56 0 0.02 0.56 0 0.04 0.56 0 0.06 0.56 0 0.08 0.56 0 0.1 0.56 0 0 0.565 0 0.02 0.565 0 0.04 0.565 0 0.06 0.565 0 0.08 0.565 0 0.1 0.565 0 0 0.57 0 0.02 0.57 0 0.04 0.57 0 0.06 0.57 0 0.08 0.57 0 0.1 0.57 0 0 0.575 0 0.02 0.575 0 0.04 0.575 0 0.06 0.575 0 0.08 0.575 0 0.1 0.575 0 0 0.58 0 0.02 0.58 0 0.04 0.58 0 0.06 0.58 0 0.08 0.58 0 0.1 0.58 0 0 0.585 0 0.02 0.585 0 0.04 0.585 0 0.06 0.585 0 0.08 0.585 0 0.1 0.585 0 0 0.59 0 0.02 0.59 0 0.04 0.59 0 0.06 0.59 0 0.08 0.59 0 0.1 0.59 0 0 0.595 0 0.02 0.595 0 0.04 0.595 0 0.06 0.595 0 0.08 0.595 0 0.1 0.595 0 0 0.6 0 0.02 0.6 0 0.04 0.6 0 0.06 0.6 0 0.08 0.6 0 0.1 0.6 0 0 0.605 0 0.02 0.605 0 0.04 0.605 0 0.06 0.605 0 0.08 0.605 0 0.1 0.605 0 0 0.61 0 0.02 0.61 0 0.04 0.61 0 0.06 0.61 0 0.08 0.61 0 0.1 0.61 0 0 0.615 0 0.02 0.615 0 0.04 0.615 0 0.06 0.615 0 0.08 0.615 0 0.1 0.615 0 0 0.62 0 0.02 0.62 0 0.04 0.62 0 0.06 0.62 0 0.08 0.62 0 0.1 0.62 0 0 0.625 0 0.02 0.625 0 0.04 0.625 0 0.06 0.625 0 0.08 0.625 0 0.1 0.625 0 0 0.63 0 0.02 0.63 0 0.04 0.63 0 0.06 0.63 0 0.08 0.63 0 0.1 0.63 0 0 0.635 0 0.02 0.635 0 0.04 0.635 0 0.06 0.635 0 0.08 0.635 0 0.1 0.635 0 0 0.64 0 0.02 0.64 0 0.04 0.64 0 0.06 0.64 0 0.08 0.64 0 0.1 0.64 0 0 0.645 0 0.02 0.645 0 0.04 0.645 0 0.06 0.645 0 0.08 0.645 0 0.1 0.645 0 0 0.65 0 0.02 0.65 0 0.04 0.65 0 0.06 0.65 0 0.08 0.65 0 0.1 0.65 0 0 0.655 0 0.02 0.655 0 0.04 0.655 0 0.06 0.655 0 0.08 0.655 0 0.1 0.655 0 0 0.66 0 0.02 0.66 0 0.04 0.66 0 0.06 0.66 0 0.08 0.66 0 0.1 0.66 0 0 0.665 0 0.02 0.665 0 0.04 0.665 0 0.06 0.665 0 0.08 0.665 0 0.1 0.665 0 0 0.67 0 0.02 0.67 0 0.04 0.67 0 0.06 0.67 0 0.08 0.67 0 0.1 0.67 0 0 0.675 0 0.02 0.675 0 0.04 0.675 0 0.06 0.675 0 0.08 0.675 0 0.1 0.675 0 0 0.68 0 0.02 0.68 0 0.04 0.68 0 0.06 0.68 0 0.08 0.68 0 0.1 0.68 0 0 0.685 0 0.02 0.685 0 0.04 0.685 0 0.06 0.685 0 0.08 0.685 0 0.1 0.685 0 0 0.69 0 0.02 0.69 0 0.04 0.69 0 0.06 0.69 0 0.08 0.69 0 0.1 
[...]
			<PointData Scalars="VitesseX">
				<DataArray Name="VitesseX" type="Float32" format="ascii">
 0 -2.70453e-14 3.01297e-15 9.67847e-15 -2.43693e-14 0 0 -1.92079e-14 -8.31529e-15 2.04897e-14 -3.26015e-14 0 0 -1.8883e-14 -8.47051e-16 7.10768e-15 -2.65059e-14 0 0 -7.28454e-15 -5.26852e-15 -6.92664e-15 -1.21535e-14 0 0 1.84802e-14 -4.19346e-14 1.29634e-14 -8.8083e-15 0 0 9.30414e-15 -3.32972e-14 1.15514e-14 5.35599e-15 0 0 -3.25333e-14 2.6065e-14 -1.90121e-14 2.73008e-14 0 0 -5.46309e-14 5.20746e-14 -1.37069e-14 2.41103e-14 0 0 -3.29505e-14 2.44846e-14 2.09936e-14 1.14089e-14 0 0 9.48075e-15 -2.55689e-14 6.64115e-14 -1.1136e-14 0 0 3.72386e-14 -5.60579e-14 9.29273e-14 -2.8917e-14 0 0 9.81777e-15 4.83118e-15 2.17756e-14 1.39754e-14 0 0 3.61599e-15 2.27921e-14 2.40412e-15 2.47144e-14 0 0 1.16162e-14 -2.07027e-15 2.26938e-14 1.45793e-14 0 0 2.4875e-14 -3.45558e-14 2.91257e-14 6.38667e-15 0 0 3.72308e-14 -4.99982e-14 2.95284e-14 -1.3901e-14 0 0 6.42205e-15 6.83248e-15 -2.19735e-14 -1.13505e-14 0 0 5.76138e-14 -5.85637e-14 1.58759e-14 -2.30406e-14 0 0 9.05737e-14 -1.09517e-13 7.6104e-14 -5.25899e-14 0 0 1.21383e-14 -1.16997e-14 3.61283e-14 -6.37646e-14 0 0 -5.71937e-14 7.28577e-14 -2.62852e-14 -4.12861e-14 0 0 -5.06409e-14 5.66802e-14 -2.72854e-14 -3.62794e-14 0 0 1.13695e-14 -5.02527e-14 4.2584e-14 -5.35399e-14 0 0 -2.82491e-15 -4.0345e-14 7.28171e-15 -1.42381e-14 0 0 -7.77879e-14 2.90515e-14 -3.30574e-14 -3.21635e-15 0 0 -1.11e-13 3.21233e-14 -1.18833e-14 -2.05844e-14 0 0 -6.61862e-14 -3.24043e-14 9.32366e-15 -5.51839e-15 0 0 -4.44469e-15 -1.14005e-13 4.98358e-14 6.85361e-15 0 0 -6.27526e-14 -1.42533e-14 -5.15107e-14 7.26916e-14 0 0 -1.05665e-13 6.3259e-14 -7.96197e-14 3.85828e-14 0 0 -1.23157e-13 1.02987e-13 -8.01076e-14 3.04333e-15 0 0 -8.17119e-14 3.1184e-14 -2.57418e-14 1.44541e-14 0 0 -1.02679e-14 -8.58136e-14 9.6075e-14 -2.56787e-14 0 0 -3.26514e-14 -5.52777e-14 1.13522e-13 -6.7967e-14 0 0 -1.05914e-13 6.7616e-14 -5.92092e-15 -5.14283e-15 0 0 -1.50227e-13 1.57939e-13 -9.63228e-14 3.5622e-15 0 0 -3.12383e-14 8.79545e-15 1.41025e-14 -7.25463e-14 0 0 2.84416e-14 -9.30995e-14 9.53734e-14 -6.26151e-14 0 0 4.3553e-14 -1.60026e-13 2.10305e-13 -1.46218e-13 0 0 -3.98432e-14 -3.39398e-14 1.07527e-13 -1.39863e-13 0 0 -1.25639e-13 1.27774e-13 -7.84706e-14 -5.79443e-14 0 0 -4.94764e-14 2.35743e-14 1.10648e-14 -1.15594e-13 0 0 -9.45754e-14 4.0622e-14 2.3253e-14 -1.10065e-13 0 0 -2.52906e-13 2.25416e-13 -1.67183e-13 6.46508e-14 0 0 -2.24028e-13 1.49805e-13 -1.3607e-13 7.49613e-14 0 0 -9.05353e-14 -4.89167e-14 2.87136e-14 -5.8637e-14 0 0 7.43644e-14 -2.49073e-13 1.73907e-13 -1.45244e-13 0 0 8.80547e-14 -2.00393e-13 1.07361e-13 -1.60341e-13 0 0 -7.76524e-14 5.94452e-14 -5.71733e-14 -1.64799e-13 0 0 -2.77848e-13 3.26029e-13 -1.60874e-13 -1.95769e-13 0 0 -3.83491e-13 5.37414e-13 -3.36505e-13 -1.0219e-13 0 0 -8.33493e-14 2.13284e-13 -2.06985e-13 -6.78092e-14 0 0 1.20642e-13 -3.59693e-14 -4.91134e-14 -1.78998e-13 0 0 1.22837e-13 -1.01211e-13 1.21093e-13 -3.77427e-13 0 0 -9.16557e-14 3.8474e-14 1.11131e-13 -4.00498e-13 0 0 -3.04035e-13 2.36181e-13 -5.87818e-14 -2.79355e-13 0 0 -7.31205e-14 -3.43998e-14 7.14801e-14 -3.14107e-13 0 0 -5.8882e-14 7.90103e-14 -1.73153e-13 -1.601e-13 0 0 -4.23377e-14 1.11266e-13 -3.28269e-13 -4.98539e-15 0 0 -4.88153e-14 1.19839e-14 -1.8339e-13 -9.50001e-14 0 0 -1.41974e-13 4.33953e-14 -1.08674e-13 -1.76266e-13 0 0 4.26291e-14 -2.27531e-13 4.60798e-14 -2.10475e-13 0 0 -1.81636e-14 -6.20566e-14 -2.21834e-13 -3.00554e-14 0 0 -1.24314e-13 1.27594e-13 -4.08532e-13 8.87217e-14 0 0 -8.66242e-14 4.76766e-14 -3.18531e-13 8.06624e-14 0 0 -3.89579e-14 -4.14646e-14 -1.89897e-13 5.11415e-14 0 0 2.10512e-14 -1.62093e-13 1.21689e-13 -1.66398e-13 0 0 -1.69173e-13 1.4793e-13 1.47246e-14 -1.66848e-13 0 0 -2.4102e-13 3.71311e-13 -3.01563e-13 8.22734e-14 0 0 -6.03047e-14 1.53877e-13 -1.87188e-13 8.962e-14 0 0 -2.51892e-14 1.10924e-13 -1.0712e-13 1.15403e-14 0 0 -1.65231e-14 1.03175e-13 -2.96622e-14 -1.48811e-13 0 0 -1.34621e-13 2.80739e-13 -8.04393e-14 -3.23101e-13 0 0 -8.76556e-14 2.76709e-13 -1.27109e-13 -3.08644e-13 0 0 5.76319e-14 9.40544e-14 -1.31344e-14 -2.91314e-13 0 0 1.25999e-13 -2.2473e-14 1.17109e-13 -3.769e-13 0 0 4.32033e-14 9.34426e-14 3.58124e-14 -2.82959e-13 0 0 -2.32574e-13 5.5902e-13 -4.0228e-13 1.05474e-13 0 0 4.61789e-14 2.38893e-13 -1.36921e-13 7.55127e-14 0 0 9.90421e-14 1.33447e-13 -3.59947e-14 1.05279e-13 0 0 -1.8985e-14 3.27755e-13 -3.09913e-13 3.35502e-13 0 0 2.16068e-13 -9.18094e-14 6.97148e-14 9.14264e-14 0 0 2.00401e-14 -1.35274e-13 3.23615e-13 -1.01891e-13 0 0 -6.4159e-14 -1.62905e-13 3.30151e-13 4.04064e-14 0 0 -1.48251e-14 -1.11031e-13 4.63948e-14 3.93317e-13 0 0 -7.54826e-14 -4.65941e-15 -1.08596e-13 4.70584e-13 0 0 3.1772e-13 -4.82998e-13 1.2908e-13 3.24153e-13 0 0 1.19056e-13 -3.94351e-13 2.07732e-14 3.82731e-13 0 0 -7.33729e-13 2.98349e-13 -2.12339e-13 3.09599e-13 0 0 -4.30615e-13 2.76938e-14 -1.16029e-13 4.81541e-13 0 0 1.68248e-13 -5.56367e-13 1.06207e-13 6.70286e-13 0 0 2.29376e-13 -5.31069e-13 1.48586e-13 5.17828e-13 0 0 -1.20325e-13 -1.6537e-13 1.67108e-13 1.72136e-13 0 0 -9.07936e-13 5.38137e-13 1.62842e-13 -2.26776e-13 0 0 -9.57703e-13 5.57766e-13 8.71345e-14 -2.46517e-13 0 0 -2.45482e-13 -3.66424e-14 2.8051e-13 -2.01009e-13 0 0 3.76721e-13 -3.39362e-13 3.48558e-13 -2.0889e-13 0 0 2.43256e-13 -8.76582e-14 7.43609e-14 -1.14217e-13 0 0 2.08635e-13 -1.98426e-13 -1.74696e-13 1.4981e-13 0 0 1.6384e-13 -3.70941e-13 -1.64997e-13 2.80864e-13 0 0 -9.98062e-14 -2.58285e-13 -1.43244e-13 1.90471e-13 0 0 -3.14589e-13 1.10588e-15 -1.83169e-13 1.40916e-13 0 0 -3.19453e-13 2.24092e-13 -3.99032e-13 2.65797e-13 0 0 -2.6744e-13 4.98587e-13 -7.59576e-13 2.56122e-13 0 0 -2.37646e-13 6.73845e-13 -7.7723e-13 6.01944e-14 0 0 -1.95563e-13 6.26973e-13 -5.94119e-13 -3.7181e-13 0 0 -9.93319e-14 4.10303e-13 -2.21904e-13 -6.41496e-13 0 0 -4.6848e-14 7.63984e-14 -1.22666e-13 -5.95422e-13 0 0 -3.18592e-14 -2.31118e-13 -1.71332e-13 -4.32047e-13 0 0 -6.30464e-14 -3.22837e-13 -2.49816e-13 -2.36495e-13 0 0 -1.568e-13 -3.46952e-13 -3.6179e-13 -1.32225e-13 0 0 -1.88939e-13 -4.5795e-13 -2.21975e-13 -2.30179e-13 0 0 -1.88159e-13 -5.29104e-13 -1.42724e-13 -2.31869e-13 0 0 -2.26111e-13 -3.94648e-13 -3.18866e-13 1.61724e-14 0 0 -2.81967e-13 -2.75756e-13 -2.75214e-13 4.03581e-14 0 0 -1.36806e-13 -3.91523e-13 -2.73145e-14 -9.10255e-14 0 0 -1.08643e-13 -2.65027e-13 -1.75954e-13 3.63812e-14 0 0 -2.16443e-13 -5.88553e-14 -2.46213e-13 7.52064e-14 0 0 -1.23703e-13 -1.52384e-13 -4.04853e-14 -6.79478e-14 0 0 -3.10716e-14 -1.57918e-13 -4.60095e-14 -5.21398e-14 0 0 -1.37506e-14 -1.48949e-13 -2.65454e-14 -9.32898e-14 0 0 -1.38725e-13 4.22451e-14 -1.52407e-13 -9.72906e-14 0 0 -3.07854e-13 3.89744e-13 -5.12762e-13 1.07256e-13 0 0 -7.09287e-15 8.22229e-15 -2.08069e-13 -4.90163e-14 0 0 1.72512e-13 -2.56188e-13 2.86727e-14 -1.64447e-13 0 0 1.30225e-13 -2.07729e-13 1.43092e-14 -1.3991e-13 0 0 -4.34515e-14 -2.43815e-15 -1.13093e-13 -1.03227e-13 0 0 -2.83736e-13 3.26302e-13 -4.26107e-13 6.9031e-14 0 0 -6.76977e-14 -4.68479e-15 -1.95391e-13 1.02639e-14 0 0 1.46193e-13 -2.3416e-13 -1.09149e-13 -1.55407e-14 0 0 1.68929e-13 -2.47044e-13 -1.4186e-13 -1.12717e-14 0 0 -6.08395e-14 -2.33699e-14 -2.38114e-13 1.50831e-16 0 0 -2.89201e-13 2.66572e-13 -4.72832e-13 1.20939e-13 0 0 -7.32523e-14 -9.06817e-14 -2.43841e-13 -2.75309e-15 0 0 1.69425e-14 -2.4115e-13 -2.67474e-13 -9.06058e-16 0 0 -1.12654e-14 -3.74111e-13 -1.28497e-13 -7.28847e-14 0 0 -2.48037e-13 -1.70411e-13 -1.7784e-13 -1.31757e-13 0 0 -3.87675e-13 8.34974e-14 -3.86533e-13 -1.17129e-13 0 0 -1.86705e-13 -1.93721e-13 -1.55295e-13 -2.60583e-13 0 0 -2.64084e-13 -6.54226e-14 -3.2058e-13 -9.19931e-14 0 0 -3.04493e-13 -7.36192e-14 -2.63064e-13 -5.96043e-14 0 0 -1.65076e-13 -4.09276e-13 2.85755e-13 -4.39195e-13 0 0 -5.40453e-13 1.67451e-13 -1.99583e-13 -1.14585e-13 0 0 -7.13036e-13 4.29225e-13 -3.82675e-13 4.23325e-14 0 0 -1.76216e-13 -3.95668e-13 4.95729e-13 -4.3654e-13 0 0 1.17528e-13 -5.69709e-13 4.86418e-13 -3.14064e-13 0 0 -1.36648e-13 -9.13734e-16 2.55609e-14 -9.79542e-14 0 0 -5.25143e-13 5.99224e-13 -3.69344e-13 1.19868e-13 0 0 -4.35341e-13 4.15798e-13 -1.49124e-13 1.61853e-13 0 0 8.61078e-14 -5.95894e-13 9.66082e-13 -4.64838e-13 0 0 1.34737e-14 -6.06857e-13 9.67272e-13 -5.75922e-13 0 0 -3.44818e-13 -2.93556e-14 2.68924e-13 -1.60263e-13 0 0 -4.65446e-13 2.64083e-13 -3.02081e-13 3.20387e-13 0 0 -4.25758e-13 1.95458e-13 -4.37994e-13 4.04285e-13 0 0 -9.57627e-14 -3.10853e-13 -8.44568e-14 8.76464e-14 0 0 1.11135e-14 -4.58757e-13 -2.10987e-15 -4.42144e-14 0 0 -3.78041e-13 2.80489e-14 -3.07832e-13 -2.02707e-14 0 0 -7.44233e-13 3.08637e-13 -4.05897e-13 -9.71816e-14 0 0 -4.04953e-13 -2.79428e-13 6.16307e-14 -4.51747e-13 0 0 3.18627e-13 -1.18957e-12 5.09811e-13 -7.2141e-13 0 0 3.06021e-13 -1.22267e-12 3.14997e-13 -6.81611e-13 0 0 -7.99562e-13 3.7472e-13 -1.04406e-12 -1.63545e-13 0 0 -1.32355e-12 1.13737e-12 -1.57709e-12 1.91597e-13 0 0 -4.16245e-13 -1.10242e-13 -5.67709e-13 9.8575e-14 0 0 4.22117e-13 -1.27717e-12 4.77384e-13 -2.95955e-13 0 0 1.74703e-13 -1.06258e-12 5.20835e-13 -4.59426e-13 0 0 -4.81305e-13 -1.18536e-13 -4.43025e-13 7.91206e-14 0 0 -6.29061e-13 2.15215e-13 -1.25561e-12 6.67082e-13 0 0 -2.90152e-13 -2.78986e-13 -1.14196e-12 7.20314e-13 0 0 -3.43149e-13 -1.72044e-13 -1.16376e-12 6.36841e-13 0 0 -3.94162e-13 -2.38939e-13 -8.24388e-13 2.70697e-13 0 0 -3.52065e-14 -9.32336e-13 -2.56733e-14 -2.61662e-13 0 0 -8.79425e-14 -7.01317e-13 -2.84307e-13 -3.35011e-13 0 0 -3.52311e-13 -3.31788e-13 -4.48397e-13 -5.82367e-13 0 0 -7.48033e-13 3.35409e-13 -9.6486e-13 -3.88562e-13 0 0 -6.07829e-13 6.44472e-14 -7.7634e-13 -2.63327e-13 0 0 8.08129e-14 -1.09771e-12 2.23115e-13 -6.36446e-13 0 0 1.29744e-13 -1.02459e-12 -8.16029e-15 -3.35542e-13 0 0 -3.09317e-13 -4.01819e-13 -3.52194e-13 -1.5314e-13 0 0 -8.24128e-13 3.11702e-13 -7.02412e-13 -2.15367e-14 0 0 -6.61171e-13 1.55467e-14 -5.19476e-13 6.56464e-14 0 0 -1.51839e-14 -9.55035e-13 1.28216e-13 -2.82007e-13 0 0 1.43364e-13 -1.12136e-12 7.76588e-14 -4.09948e-13 0 0 -3.7718e-13 -4.3486e-13 -3.09192e-13 -3.67449e-13 0 0 -7.96605e-13 2.5411e-13 -7.61696e-13 -2.11013e-13 0 0 -4.30504e-13 -1.67918e-13 -4.67606e-13 -3.35065e-13 0 0 1.31561e-13 -9.52208e-13 1.56361e-13 -6.17884e-13 0 0 -4.22268e-14 -7.23665e-13 -5.65272e-14 -5.46226e-13 0 0 -9.45395e-13 2.20298e-13 -3.69847e-13 -6.23862e-13 0 0 -1.4409e-12 9.40324e-13 -9.36002e-13 -2.97882e-13 0 0 -6.11646e-13 -1.39107e-13 -2.29103e-13 -5.51016e-13 0 0 -7.08048e-16 -1.03838e-12 6.03964e-13 -1.08123e-12 0 0 -9.73685e-13 3.74457e-13 -5.22676e-13 -4.48502e-13 0 0 -1.52763e-12 9.65794e-13 -7.29791e-13 -3.22007e-13 0 0 -6.23854e-13 -3.29695e-13 4.84006e-13 -9.47924e-13 0 0 4.75082e-13 -1.6854e-12 1.41169e-12 -1.48575e-12 0 0 2.73586e-14 -8.71678e-13 7.85749e-13 -1.46011e-12 0 0 -1.35189e-12 1.17912e-12 -7.87652e-13 -7.83231e-13 0 0 -1.3128e-12 1.0321e-12 -6.82285e-13 -8.84343e-13 0 0 -1.96419e-14 -8.05919e-13 6.77265e-13 -1.49153e-12 0 0 7.19316e-13 -1.75297e-12 1.24869e-12 -1.5919e-12 0
				</DataArray>
				<DataArray Name="VitesseY" type="Float32" format="ascii">