<?xml version="1.0"?>
<VTKFile type="PolyData">
	<PolyData>
		<Piece NumberOfPoints="1206" NumberOfPolys="1000">
			<Points>
				<DataArray type="Float32" NumberOfComponents="3" format="ascii">
 0 0 0 0.02 0 0 0.04 0 0 0.06 0 0 0.08 0 0 0.1 0 0 0 0.005 0 0.02 0.005 0 0.04 0.005 0 0.06 0.005 0 0.08 0.005 0 0.1 0.005 0 0 0.01 0 0.02 0.01 0 0.04 0.01 0 0.06 0.01 0 0.08 0.01 0 0.1 0.01 0 0 0.015 0 0.02 0.015 0 0.04 0.015 0 0.06 0.015 0 0.08 0.015 0 0.1 0.015 0 0 0.02 0 0.02 0.02 0 0.04 0.02 0 0.06 0.02 0 0.08 0.02 0 0.1 0.02 0 0 0.025 0 0.02 0.025 0 0.04 0.025 0 0.06 0.025 0 0.08 0.025 0 0.1 0.025 0 0 0.03 0 0.02 0.03 0 0.04 0.03 0 0.06 0.03 0 0.08 0.03 0 0.1 0.03 0 0 0.035 0 0.02 0.035 0 0.04 0.035 0 0.06 0.035 0 0.08 0.035 0 0.1 0.035 0 0 0.04 0 0.02 0.04 0 0.04 0.04 0 0.06 0.04 0 0.08 0.04 0 0.1 0.04 0 0 0.045 0 0.02 0.045 0 0.04 0.045 0 0.06 0.045 0 0.08 0.045 0 0.1 0.045 0 0 0.05 0 0.02 0.05 0 0.04 0.05 0 0.06 0.05 0 0.08 0.05 0 0.1 0.05 0 0 0.055 0 0.02 0.055 0 0.04 0.055 0 0.06 0.055 0 0.08 0.055 0 0.1 0.055 0 0 0.06 0 0.02 0.06 0 0.04 0.06 0 0.06 0.06 0 0.08 0.06 0 0.1 0.06 0 0 0.065 0 0.02 0.065 0 0.04 0.065 0 0.06 0.065 0 0.08 0.065 0 0.1 0.065 0 0 0.07 0 0.02 0.07 0 0.04 0.07 0 0.06 0.07 0 0.08 0.07 0 0.1 0.07 0 0 0.075 0 0.02 0.075 0 0.04 0.075 0 0.06 0.075 0 0.08 0.075 0 0.1 0.075 0 0 0.08 0 0.02 0.08 0 0.04 0.08 0 0.06 0.08 0 0.08 0.08 0 0.1 0.08 0 0 0.085 0 0.02 0.085 0 0.04 0.085 0 0.06 0.085 0 0.08 0.085 0 0.1 0.085 0 0 0.09 0 0.02 0.09 0 0.04 0.09 0 0.06 0.09 0 0.08 0.09 0 0.1 0.09 0 0 0.095 0 0.02 0.095 0 0.04 0.095 0 0.06 0.095 0 0.08 0.095 0 0.1 0.095 0 0 0.1 0 0.02 0.1 0 0.04 0.1 0 0.06 0.1 0 0.08 0.1 0 0.1 0.1 0 0 0.105 0 0.02 0.105 0 0.04 0.105 0 0.06 0.105 0 0.08 0.105 0 0.1 0.105 0 0 0.11 0 0.02 0.11 0 0.04 0.11 0 0.06 0.11 0 0.08 0.11 0 0.1 0.11 0 0 0.115 0 0.02 0.115 0 0.04 0.115 0 0.06 0.115 0 0.08 0.115 0 0.1 0.115 0 0 0.12 0 0.02 0.12 0 0.04 0.12 0 0.06 0.12 0 0.08 0.12 0 0.1 0.12 0 0 0.125 0 0.02 0.125 0 0.04 0.125 0 0.06 0.125 0 0.08 0.125 0 0.1 0.125 0 0 0.13 0 0.02 0.13 0 0.04 0.13 0 0.06 0.13 0 0.08 0.13 0 0.1 0.13 0 0 0.135 0 0.02 0.135 0 0.04 0.135 0 0.06 0.135 0 0.08 0.135 0 0.1 0.135 0 0 0.14 0 0.02 0.14 0 0.04 0.14 0 0.06 0.14 0 0.08 0.14 0 0.1 0.14 0 0 0.145 0 0.02 0.145 0 0.04 0.145 0 0.06 0.145 0 0.08 0.145 0 0.1 0.145 0 0 0.15 0 0.02 0.15 0 0.04 0.15 0 0.06 0.15 0 0.08 0.15 0 0.1 0.15 0 0 0.155 0 0.02 0.155 0 0.04 0.155 0 0.06 0.155 0 0.08 0.155 0 0.1 0.155 0 0 0.16 0 0.02 0.16 0 0.04 0.16 0 0.06 0.16 0 0.08 0.16 0 0.1 0.16 0 0 0.165 0 0.02 0.165 0 0.04 0.165 0 0.06 0.165 0 0.08 0.165 0 0.1 0.165 0 0 0.17 0 0.02 0.17 0 0.04 0.17 0 0.06 0.17 0 0.08 0.17 0 0.1 0.17 0 0 0.175 0 0.02 0.175 0 0.04 0.175 0 0.06 0.175 0 0.08 0.175 0 0.1 0.175 0 0 0.18 0 0.02 0.18 0 0.04 0.18 0 0.06 0.18 0 0.08 0.18 0 0.1 0.18 0 0 0.185 0 0.02 0.185 0 0.04 0.185 0 0.06 0.185 0 0.08 0.185 0 0.1 0.185 0 0 0.19 0 0.02 0.19 0 0.04 0.19 0 0.06 0.19 0 0.08 0.19 0 0.1 0.19 0 0 0.195 0 0.02 0.195 0 0.04 0.195 0 0.06 0.195 0 0.08 0.195 0 0.1 0.195 0 0 0.2 0 0.02 0.2 0 0.04 0.2 0 0.06 0.2 0 0.08 0.2 0 0.1 0.2 0 0 0.205 0 0.02 0.205 0 0.04 0.205 0 0.06 0.205 0 0.08 0.205 0 0.1 0.205 0 0 0.21 0 0.02 0.21 0 0.04 0.21 0 0.06 0.21 0 0.08 0.21 0 0.1 0.21 0 0 0.215 0 0.02 0.215 0 0.04 0.215 0 0.06 0.215 0 0.08 0.215 0 0.1 0.215 0 0 0.22 0 0.02 0.22 0 0.04 0.22 0 0.06 0.22 0 0.08 0.22 0 0.1 0.22 0 0 0.225 0 0.02 0.225 0 0.04 0.225 0 0.06 0.225 0 0.08 0.225 0 0.1 0.225 0 0 0.23 0 0.02 0.23 0 0.04 0.23 0 0.06 0.23 0 0.08 0.23 0 0.1 0.23 0 0 0.235 0 0.02 0.235 0 0.04 0.235 0 0.06 0.235 0 0.08 0.235 0 0.1 0.235 0 0 0.24 0 0.02 0.24 0 0.04 0.24 0 0.06 0.24 0 0.08 0.24 0 0.1 0.24 0 0 0.245 0 0.02 0.245 0 0.04 0.245 0 0.06 0.245 0 0.08 0.245 0 0.1 0.245 0 0 0.25 0 0.02 0.25 0 0.04 0.25 0 0.06 0.25 0 0.08 0.25 0 0.1 0.25 0 0 0.255 0 0.02 0.255 0 0.04 0.255 0 0.06 0.255 0 0.08 0.255 0 0.1 0.255 0 0 0.26 0 0.02 0.26 0 0.04 0.26 0 0.06 0.26 0 0.08 0.26 0 0.1 0.26 0 0 0.265 0 0.02 0.265 0 0.04 0.265 0 0.06 0.265 0 0.08 0.265 0 0.1 0.265 0 0 0.27 0 0.02 0.27 0 0.04 0.27 0 0.06 0.27 0 0.08 0.27 0 0.1 0.27 0 0 0.275 0 0.02 0.275 0 0.04 0.275 0 0.06 0.275 0 0.08 0.275 0 0.1 0.275 0 0 0.28 0 0.02 0.28 0 0.04 0.28 0 0.06 0.28 0 0.08 0.28 0 0.1 0.28 0 0 0.285 0 0.02 0.285 0 0.04 0.285 0 0.06 0.285 0 0.08 0.285 0 0.1 0.285 0 0 0.29 0 0.02 0.29 0 0.04 0.29 0 0.06 0.29 0 0.08 0.29 0 0.1 0.29 0 0 0.295 0 0.02 0.295 0 0.04 0.295 0 0.06 0.295 0 0.08 0.295 0 0.1 0.295 0 0 0.3 0 0.02 0.3 0 0.04 0.3 0 0.06 0.3 0 0.08 0.3 0 0.1 0.3 0 0 0.305 0 0.02 0.305 0 0.04 0.305 0 0.06 0.305 0 0.08 0.305 0 0.1 0.305 0 0 0.31 0 0.02 0.31 0 0.04 0.31 0 0.06 0.31 0 0.08 0.31 0 0.1 0.31 0 0 0.315 0 0.02 0.315 0 0.04 0.315 0 0.06 0.315 0 0.08 0.315 0 0.1 0.315 0 0 0.32 0 0.02 0.32 0 0.04 0.32 0 0.06 0.32 0 0.08 0.32 0 0.1 0.32 0 0 0.325 0 0.02 0.325 0 0.04 0.325 0 0.06 0.325 0 0.08 0.325 0 0.1 0.325 0 0 0.33 0 0.02 0.33 0 0.04 0.33 0 0.06 0.33 0 0.08 0.33 0 0.1 0.33 0 0 0.335 0 0.02 0.335 0 0.04 0.335 0 0.06 0.335 0 0.08 0.335 0 0.1 0.335 0 0 0.34 0 0.02 0.34 0 0.04 0.34 0 0.06 0.34 0 0.08 0.34 0 0.1 0.34 0 0 0.345 0 0.02 0.345 0 0.04 0.345 0 0.06 0.345 0 0.08 0.345 0 0.1 0.345 0 0 0.35 0 0.02 0.35 0 0.04 0.35 0 0.06 0.35 0 0.08 0.35 0 0.1 0.35 0 0 0.355 0 0.02 0.355 0 0.04 0.355 0 0.06 0.355 0 0.08 0.355 0 0.1 0.355 0 0 0.36 0 0.02 0.36 0 0.04 0.36 0 0.06 0.36 0 0.08 0.36 0 0.1 0.36 0 0 0.365 0 0.02 0.365 0 0.04 0.365 0 0.06 0.365 0 0.08 0.365 0 0.1 0.365 0 0 0.37 0 0.02 0.37 0 0.04 0.37 0 0.06 0.37 0 0.08 0.37 0 0.1 0.37 0 0 0.375 0 0.02 0.375 0 0.04 0.375 0 0.06 0.375 0 0.08 0.375 0 0.1 0.375 0 0 0.38 0 0.02 0.38 0 0.04 0.38 0 0.06 0.38 0 0.08 0.38 0 0.1 0.38 0 0 0.385 0 0.02 0.385 0 0.04 0.385 0 0.06 0.385 0 0.08 0.385 0 0.1 0.385 0 0 0.39 0 0.02 0.39 0 0.04 0.39 0 0.06 0.39 0 0.08 0.39 0 0.1 0.39 0 0 0.395 0 0.02 0.395 0 0.04 0.395 0 0.06 0.395 0 0.08 0.395 0 0.1 0.395 0 0 0.4 0 0.02 0.4 0 0.04 0.4 0 0.06 0.4 0 0.08 0.4 0 0.1 0.4 0 0 0.405 0 0.02 0.405 0 0.04 0.405 0 0.06 0.405 0 0.08 0.405 0 0.1 0.405 0 0 0.41 0 0.02 0.41 0 0.04 0.41 0 0.06 0.41 0 0.08 0.41 0 0.1 0.41 0 0 0.415 0 0.02 0.415 0 0.04 0.415 0 0.06 0.415 0 0.08 0.415 0 0.1 0.415 0 0 0.42 0 0.02 0.42 0 0.04 0.42 0 0.06 0.42 0 0.08 0.42 0 0.1 0.42 0 0 0.425 0 0.02 0.425 0 0.04 0.425 0 0.06 0.425 0 0.08 0.425 0 0.1 0.425 0 0 0.43 0 0.02 0.43 0 0.04 0.43 0 0.06 0.43 0 0.08 0.43 0 0.1 0.43 0 0 0.435 0 0.02 0.435 0 0.04 0.435 0 0.06 0.435 0 0.08 0.435 0 0.1 0.435 0 0 0.44 0 0.02 0.44 0 0.04 0.44 0 0.06 0.44 0 0.08 0.44 0 0.1 0.44 0 0 0.445 0 0.02 0.445 0 0.04 0.445 0 0.06 0.445 0 0.08 0.445 0 0.1 0.445 0 0 0.45 0 0.02 0.45 0 0.04 0.45 0 0.06 0.45 0 0.08 0.45 0 0.1 0.45 0 0 0.455 0 0.02 0.455 0 0.04 0.455 0 0.06 0.455 0 0.08 0.455 0 0.1 0.455 0 0 0.46 0 0.02 0.46 0 0.04 0.46 0 0.06 0.46 0 0.08 0.46 0 0.1 0.46 0 0 0.465 0 0.02 0.465 0 0.04 0.465 0 0.06 0.465 0 0.08 0.465 0 0.1 0.465 0 0 0.47 0 0.02 0.47 0 0.04 0.47 0 0.06 0.47 0 0.08 0.47 0 0.1 0.47 0 0 0.475 0 0.02 0.475 0 0.04 0.475 0 0.06 0.475 0 0.08 0.475 0 0.1 0.475 0 0 0.48 0 0.02 0.48 0 0.04 0.48 0 0.06 0.48 0 0.08 0.48 0 0.1 0.48 0 0 0.485 0 0.02 0.485 0 0.04 0.485 0 0.06 0.485 0 0.08 0.485 0 0.1 0.485 0 0 0.49 0 0.02 0.49 0 0.04 0.49 0 0.06 0.49 0 0.08 0.49 0 0.1 0.49 0 0 0.495 0 0.02 0.495 0 0.04 0.495 0 0.06 0.495 0 0.08 0.495 0 0.1 0.495 0 0 0.5 0 0.02 0.5 0 0.04 0.5 0 0.06 0.5 0 0.08 0.5 0 0.1 0.5 0 0 0.505 0 0.02 0.505 0 0.04 0.505 0 0.06 0.505 0 0.08 0.505 0 0.1 0.505 0 0 0.51 0 0.02 0.51 0 0.04 0.51 0 0.06 0.51 0 0.08 0.51 0 0.1 0.51 0 0 0.515 0 0.02 0.515 0 0.04 0.515 0 0.06 0.515 0 0.08 0.515 0 0.1 0.515 0 0 0.52 0 0.02 0.52 0 0.04 0.52 0 0.06 0.52 0 0.08 0.52 0 0.1 0.52 0 0 0.525 0 0.02 0.525 0 0.04 0.525 0 0.06 0.525 0 0.08 0.525 0 0.1 0.525 0 0 0.53 0 0.02 0.53 0 0.04 0.53 0 0.06 0.53 0 0.08 0.53 0 0.1 0.53 0 0 0.535 0 0.02 0.535 0 0.04 0.535 0 0.06 0.535 0 0.08 0.535 0 0.1 0.535 0 0 0.54 0 0.02 0.54 0 0.04 0.54 0 0.06 0.54 0 0.08 0.54 0 0.1 0.54 0 0 0.545 0 0.02 0.545 0 0.04 0.545 0 0.06 0.545 0 0.08 0.545 0 0.1 0.545 0 0 0.55 0 0.02 0.55 0 0.04 0.55 0 0.06 0.55 0 0.08 0.55 0 0.1 0.55 0 0 0.555 0 0.02 0.555 0 0.04 0.555 0 0.06 0.555 0 0.08 0.555 0 0.1 0.555 0 0 0.56 0 0.02 0.56 0 0.04 0.56 0 0.06 0.56 0 0.08 0.56 0 0.1 0.56 0 0 0.565 0 0.02 0.565 0 0.04 0.565 0 0.06 0.565 0 0.08 0.565 0 0.1 0.565 0 0 0.57 0 0.02 0.57 0 0.04 0.57 0 0.06 0.57 0 0.08 0.57 0 0.1 0.57 0 0 0.575 0 0.02 0.575 0 0.04 0.575 0 0.06 0.575 0 0.08 0.575 0 0.1 0.575 0 0 0.58 0 0.02 0.58 0 0.04 0.58 0 0.06 0.58 0 0.08 0.58 0 0.1 0.58 0 0 0.585 0 0.02 0.585 0 0.04 0.585 0 0.06 0.585 0 0.08 0.585 0 0.1 0.585 0 0 0.59 0 0.02 0.59 0 0.04 0.59 0 0.06 0.59 0 0.08 0.59 0 0.1 0.59 0 0 0.595 0 0.02 0.595 0 0.04 0.595 0 0.06 0.595 0 0.08 0.595 0 0.1 0.595 0 0 0.6 0 0.02 0.6 0 0.04 0.6 0 0.06 0.6 0 0.08 0.6 0 0.1 0.6 0 0 0.605 0 0.02 0.605 0 0.04 0.605 0 0.06 0.605 0 0.08 0.605 0 0.1 0.605 0 0 0.61 0 0.02 0.61 0 0.04 0.61 0 0.06 0.61 0 0.08 0.61 0 0.1 0.61 0 0 0.615 0 0.02 0.615 0 0.04 0.615 0 0.06 0.615 0 0.08 0.615 0 0.1 0.615 0 0 0.62 0 0.02 0.62 0 0.04 0.62 0 0.06 0.62 0 0.08 0.62 0 0.1 0.62 0 0 0.625 0 0.02 0.625 0 0.04 0.625 0 0.06 0.625 0 0.08 0.625 0 0.1 0.625 0 0 0.63 0 0.02 0.63 0 0.04 0.63 0 0.06 0.63 0 0.08 0.63 0 0.1 0.63 0 0 0.635 0 0.02 0.635 0 0.04 0.635 0 0.06 0.635 0 0.08 0.635 0 0.1 0.635 0 0 0.64 0 0.02 0.64 0 0.04 0.64 0 0.06 0.64 0 0.08 0.64 0 0.1 0.64 0 0 0.645 0 0.02 0.645 0 0.04 0.645 0 0.06 0.645 0 0.08 0.645 0 0.1 0.645 0 0 0.65 0 0.02 0.65 0 0.04 0.65 0 0.06 0.65 0 0.08 0.65 0 0.1 0.65 0 0 0.655 0 0.02 0.655 0 0.04 0.655 0 0.06 0.655 0 0.08 0.655 0 0.1 0.655 0 0 0.66 0 0.02 0.66 0 0.04 0.66 0 0.06 0.66 0 0.08 0.66 0 0.1 0.66 0 0 0.665 0 0.02 0.665 0 0.04 0.665 0 0.06 0.665 0 0.08 0.665 0 0.1 0.665 0 0 0.67 0 0.02 0.67 0 0.04 0.67 0 0.06 0.67 0 0.08 0.67 0 0.1 0.67 0 0 0.675 0 0.02 0.675 0 0.04 0.675 0 0.06 0.675 0 0.08 0.675 0 0.1 0.675 0 0 0.68 0 0.02 0.68 0 0.04 0.68 0 0.06 0.68 0 0.08 0.68 0 0.1 0.68 0 0 0.685 0 0.02 0.685 0 0.04 0.685 0 0.06 0.685 0 0.08 0.685 0 0.1 0.685 0 0 0.69 0 0.02 0.69 0 0.04 0.69 0 0.06 0.69 0 0.08 0.69 0 0.1 
[...]
			<PointData Scalars="VitesseX">
				<DataArray Name="VitesseX" type="Float32" format="ascii">
 0 8.31931e-15 -1.11461e-14 4.18063e-16 -3.07683e-14 0 0 7.46136e-15 -7.73159e-15 -4.75343e-15 -2.78502e-14 0 0 -7.54189e-16 5.96417e-15 -1.94284e-14 -1.98315e-14 0 0 -5.09407e-15 4.60179e-15 -1.46069e-14 -2.50188e-14 0 0 -3.56179e-15 -3.75833e-15 -8.89318e-15 -2.62879e-14 0 0 -1.0844e-14 4.35856e-15 -2.18679e-14 -1.71979e-14 0 0 -1.20795e-14 -5.91923e-15 -1.85158e-14 -1.2964e-14 0 0 -4.23813e-15 -3.37542e-14 1.01409e-14 -3.10373e-14 0 0 -1.09707e-14 -3.37491e-14 9.05024e-15 -3.02407e-14 0 0 -9.31778e-15 -3.91677e-14 -4.75561e-15 -9.78676e-15 0 0 4.14164e-15 -6.76233e-14 1.21236e-14 -1.9572e-14 0 0 -1.09711e-14 -4.64038e-14 -1.72704e-14 -4.61566e-15 0 0 -1.28732e-14 -4.00301e-14 -1.90199e-14 -1.6373e-14 0 0 -1.56993e-14 -3.56222e-14 -1.30056e-14 -2.68042e-14 0 0 -4.92944e-14 1.0517e-14 -5.70181e-14 1.00346e-14 0 0 -3.96929e-14 -1.31509e-14 -2.88522e-14 -6.50498e-15 0 0 -2.64048e-14 -2.83694e-14 -6.95249e-15 -2.95011e-14 0 0 -4.08197e-14 9.15327e-15 -4.54432e-14 2.9522e-15 0 0 -2.26093e-14 -1.04169e-14 -3.36335e-14 2.93676e-14 0 0 -2.19031e-15 -3.22181e-14 -2.07805e-14 4.40159e-14 0 0 -1.27643e-14 -1.29708e-14 -1.88151e-14 2.3885e-14 0 0 -2.24117e-14 7.72231e-15 -2.46789e-14 1.17774e-14 0 0 -2.35582e-14 2.09e-14 -2.60186e-14 -8.41283e-16 0 0 -2.87424e-14 3.70765e-14 -3.40105e-14 -1.02355e-14 0 0 9.2165e-15 -2.91742e-14 2.84158e-14 -4.41058e-14 0 0 4.67886e-14 -1.08704e-13 1.28587e-13 -1.13878e-13 0 0 -3.7427e-14 2.59754e-14 1.16952e-14 -6.88889e-14 0 0 -6.1135e-14 7.3333e-14 -4.25865e-14 -5.69822e-14 0 0 -4.7117e-15 -2.18837e-14 5.56761e-14 -1.35195e-13 0 0 -2.73658e-14 2.97356e-14 -1.9955e-14 -9.60993e-14 0 0 -2.28196e-14 5.30724e-14 -9.91098e-14 -4.42286e-14 0 0 2.27163e-14 -3.10065e-14 -2.97196e-14 -6.67788e-14 0 0 1.32614e-14 -2.77966e-14 -4.57248e-14 -3.48928e-14 0 0 -7.24858e-15 1.26549e-14 -7.06741e-14 -4.00256e-14 0 0 1.73936e-14 -1.38771e-14 -6.32385e-14 -2.97395e-14 0 0 2.90879e-14 -4.39853e-14 -5.72349e-14 7.18151e-15 0 0 -7.69172e-15 -1.792e-14 -2.87946e-14 -3.01003e-14 0 0 -3.54883e-14 3.38724e-14 -7.89856e-14 6.17272e-15 0 0 -1.24211e-15 -1.67567e-14 -2.97244e-14 3.8341e-15 0 0 1.9017e-14 -6.34347e-14 5.2758e-14 -6.93882e-14 0 0 -2.72412e-14 2.24217e-15 -6.03635e-15 -5.8282e-14 0 0 -3.75977e-14 9.87411e-15 -2.64083e-14 -5.37663e-14 0 0 -3.29796e-14 1.60682e-15 -1.65549e-14 -3.31458e-14 0 0 -7.9583e-15 -5.27839e-15 -1.24929e-14 2.68509e-14 0 0 -8.53781e-15 -1.5542e-14 3.29042e-14 -2.06908e-15 0 0 -4.14986e-14 -4.36147e-14 1.45759e-13 -1.15148e-13 0 0 -7.21482e-15 -7.20024e-14 1.68696e-13 -1.33079e-13 0 0 -3.86231e-15 -5.33028e-14 1.84368e-13 -1.76094e-13 0 0 -8.06167e-14 6.33388e-14 1.15182e-13 -1.12566e-13 0 0 -9.78391e-14 8.8383e-14 9.17899e-14 -3.54783e-14 0 0 -3.49159e-14 -2.2431e-14 2.21243e-13 -1.20485e-13 0 0 -1.02577e-13 9.86851e-14 8.8553e-14 -4.78623e-14 0 0 -1.38486e-13 1.84899e-13 -1.04645e-13 1.03846e-13 0 0 -1.16885e-13 1.43059e-13 -1.65114e-13 1.58811e-13 0 0 -5.16398e-14 -3.59083e-14 3.33029e-14 -4.76384e-14 0 0 -8.3126e-14 -1.68398e-14 1.01348e-13 -2.37281e-13 0 0 -1.5081e-13 1.51416e-13 -8.5115e-14 -1.56214e-13 0 0 3.86826e-14 -3.32779e-14 -3.6931e-14 -1.27931e-13 0 0 7.23943e-14 -1.01291e-13 -9.08529e-15 -1.28074e-13 0 0 -8.61966e-14 -3.30318e-14 -5.81845e-14 -1.13074e-13 0 0 -9.30934e-14 -7.83932e-14 -8.13661e-14 -1.64919e-13 0 0 -9.54165e-14 -1.11728e-14 -2.80839e-13 -1.0072e-13 0 0 -4.37958e-14 3.11985e-14 -4.25887e-13 -4.88492e-14 0 0 6.502e-14 -2.6422e-14 -3.14393e-13 -1.66816e-13 0 0 8.1356e-14 -1.0761e-13 -8.74285e-14 -3.3596e-13 0 0 4.05913e-14 -1.36667e-13 1.61268e-14 -3.74222e-13 0 0 -1.07126e-13 2.499e-14 -1.62035e-13 -2.11703e-13 0 0 -1.77147e-13 4.40717e-15 -1.38999e-13 -1.63281e-13 0 0 -1.30641e-13 -1.8894e-13 1.41536e-13 -3.49785e-13 0 0 -1.42619e-13 -1.35004e-13 1.19099e-13 -4.18138e-13 0 0 -1.81505e-13 1.74766e-14 -9.27038e-14 -3.38137e-13 0 0 -1.75849e-13 1.03116e-13 -3.08833e-13 -2.62954e-13 0 0 -2.13694e-13 9.13797e-14 -2.60343e-13 -3.13819e-13 0 0 -1.99231e-13 -4.93488e-14 -8.45517e-14 -4.65218e-13 0 0 -2.05337e-13 -1.86669e-13 3.3732e-14 -5.15276e-13 0 0 -2.38892e-13 -2.33289e-13 3.60317e-14 -4.5794e-13 0 0 -3.1913e-13 -1.85234e-13 -6.22228e-14 -2.92973e-13 0 0 -4.02694e-13 -1.00405e-13 -1.32732e-13 -2.68076e-14 0 0 -4.41462e-13 -1.00846e-13 -9.19437e-14 1.84042e-14 0 0 -4.47911e-13 -1.83654e-13 8.12079e-14 -5.03482e-14 0 0 -4.64559e-13 -2.53343e-13 2.85002e-13 -2.59446e-13 0 0 -5.49013e-13 -1.97998e-13 2.70372e-13 -3.43131e-13 0 0 -6.7723e-13 2.60807e-14 8.24599e-14 -2.93509e-13 0 0 -6.16031e-13 5.41125e-14 -7.75351e-14 -1.89695e-13 0 0 -4.38229e-13 -3.90442e-14 -7.25426e-14 -1.87469e-13 0 0 -1.75488e-13 -2.43495e-13 -1.10337e-13 -2.13947e-13 0 0 -6.19678e-14 -2.53467e-13 -2.10159e-13 -1.83861e-13 0 0 -5.94348e-14 -1.50403e-13 -4.29073e-13 -1.00026e-13 0 0 -8.23965e-14 -3.93802e-15 -6.14517e-13 5.37002e-14 0 0 -5.99317e-14 -3.81677e-14 -5.67259e-13 3.8057e-14 0 0 6.16296e-14 -2.65751e-13 -3.34069e-13 -1.06124e-13 0 0 1.89851e-13 -5.53139e-13 1.71071e-14 -3.84179e-13 0 0 1.9218e-13 -5.98191e-13 9.91449e-14 -5.70323e-13 0 0 9.59693e-14 -5.09648e-13 5.20123e-14 -6.41038e-13 0 0 -1.26002e-13 -2.92972e-13 -5.38777e-14 -7.15425e-13 0 0 -4.55059e-13 3.2218e-14 -1.93467e-13 -7.89229e-13 0 0 -6.5285e-13 2.24275e-13 -3.34408e-13 -7.50167e-13 0 0 -6.64708e-13 2.70388e-13 -4.29124e-13 -6.64819e-13 0 0 -5.70358e-13 2.20244e-13 -4.72832e-13 -5.78343e-13 0 0 -3.43566e-13 4.57789e-14 -5.10534e-13 -4.66495e-13 0 0 -4.39003e-14 -1.76235e-13 -5.7247e-13 -3.01617e-13 0 0 1.78323e-13 -3.16956e-13 -6.09419e-13 -1.23635e-13 0 0 2.65869e-13 -4.14183e-13 -6.18714e-13 4.06527e-15 0 0 2.17834e-13 -4.54748e-13 -6.08312e-13 5.45671e-14 0 0 8.22707e-14 -4.83416e-13 -5.58665e-13 5.98121e-14 0 0 -4.86299e-14 -5.446e-13 -4.28919e-13 3.35041e-14 0 0 -1.45462e-13 -5.72826e-13 -1.8408e-13 -7.72325e-14 0 0 -2.03757e-13 -5.47407e-13 -9.70677e-14 -1.54701e-13 0 0 -2.22217e-13 -4.93066e-13 -1.26737e-13 -1.32142e-13 0 0 -2.27848e-13 -4.39621e-13 -2.2353e-13 -6.29832e-14 0 0 -2.11987e-13 -3.86075e-13 -2.88121e-13 -2.47118e-14 0 0 -2.0099e-13 -2.89671e-13 -3.71053e-13 4.77927e-14 0 0 -2.05823e-13 -2.31385e-13 -3.63516e-13 4.1039e-14 0 0 -2.29332e-13 -2.16183e-13 -3.37316e-13 3.28259e-14 0 0 -2.46523e-13 -1.85815e-13 -3.0175e-13 2.38688e-14 0 0 -2.4061e-13 -2.08803e-13 -1.30957e-13 -8.69395e-14 0 0 -2.19137e-13 -2.1182e-13 1.85353e-15 -1.90667e-13 0 0 -1.5517e-13 -2.17332e-13 4.1683e-14 -1.79604e-13 0 0 -1.11427e-13 -2.48766e-13 9.98159e-14 -1.45955e-13 0 0 -8.55263e-14 -2.46238e-13 8.51943e-14 -1.07823e-13 0 0 -5.34229e-14 -2.23761e-13 8.68682e-15 -1.24741e-14 0 0 -6.82377e-14 -1.75851e-13 -9.1825e-14 1.57778e-13 0 0 -8.55175e-14 -1.61407e-13 -8.27503e-14 1.89513e-13 0 0 -9.91317e-14 -1.53007e-13 2.81491e-15 9.26915e-14 0 0 -1.20464e-13 -1.23351e-13 4.63145e-14 3.98537e-14 0 0 -1.48092e-13 -3.30097e-14 -1.21483e-14 9.09039e-14 0 0 -1.41663e-13 2.71199e-14 -6.56316e-14 6.15395e-14 0 0 -1.27524e-13 4.68373e-14 -9.34991e-14 3.5734e-14 0 0 -1.45912e-13 5.42115e-14 -1.01197e-13 7.12107e-14 0 0 -1.30375e-13 -2.5643e-15 -3.76418e-14 4.75212e-14 0 0 -9.7134e-14 -7.47313e-14 -3.79782e-14 7.6761e-14 0 0 -5.43323e-14 -1.31127e-13 -1.0034e-13 1.68045e-13 0 0 -5.9325e-14 -1.47192e-13 -1.25008e-13 1.31435e-13 0 0 -7.3647e-14 -1.8727e-13 -7.73253e-14 1.61422e-14 0 0 -1.08197e-13 -1.85635e-13 -8.74387e-14 7.36886e-14 0 0 -1.33471e-13 -1.92547e-13 -6.65523e-14 6.04187e-14 0 0 -1.275e-13 -2.20079e-13 -3.99514e-14 -2.08462e-14 0 0 -1.28228e-13 -2.00641e-13 -7.63565e-14 -5.84298e-14 0 0 -1.25825e-13 -1.60753e-13 -1.62719e-13 -9.67377e-14 0 0 -1.10589e-13 -1.6976e-13 -1.90417e-13 -1.05831e-13 0 0 -9.75728e-14 -2.0485e-13 -1.68704e-13 -9.07908e-14 0 0 -1.03762e-13 -2.17442e-13 -1.41767e-13 -8.72287e-14 0 0 -1.04669e-13 -2.21136e-13 -1.22844e-13 -1.57909e-13 0 0 -1.23467e-13 -1.82832e-13 -1.48057e-13 -2.21921e-13 0 0 -1.26116e-13 -1.85596e-13 -1.61546e-13 -1.83846e-13 0 0 -1.23146e-13 -2.1184e-13 -1.89419e-13 -1.35723e-13 0 0 -1.37213e-13 -2.01386e-13 -2.6791e-13 -1.25096e-13 0 0 -1.37388e-13 -2.34215e-13 -2.74835e-13 -1.8352e-13 0 0 -1.19468e-13 -3.19479e-13 -2.21033e-13 -3.27053e-13 0 0 -1.18773e-13 -3.07617e-13 -2.90618e-13 -3.0434e-13 0 0 -1.243e-13 -2.43793e-13 -4.77203e-13 -3.24485e-13 0 0 -1.19084e-13 -2.04368e-13 -5.28344e-13 -5.42525e-13 0 0 -1.2246e-13 -1.6498e-13 -5.16154e-13 -5.95551e-13 0 0 -1.15519e-13 -1.89199e-13 -4.20425e-13 -4.03393e-13 0 0 -1.13613e-13 -2.17518e-13 -2.94061e-13 -1.1932e-14 0 0 -1.20984e-13 -2.56011e-13 -1.37118e-13 2.03016e-13 0 0 -1.782e-13 -2.05389e-13 -1.41829e-13 2.69856e-13 0 0 -1.65462e-13 -1.72406e-13 -2.70954e-13 3.04054e-13 0 0 -1.24605e-13 -2.33062e-13 -2.53478e-13 1.25604e-13 0 0 -9.46601e-14 -2.40049e-13 -1.25056e-13 -1.41363e-14 0 0 -5.69106e-15 -3.17547e-13 2.86162e-14 -4.37443e-14 0 0 -7.18962e-14 -1.60235e-13 -7.18701e-14 -1.02683e-13 0 0 -1.02298e-13 -1.12044e-13 -1.04878e-13 -9.52881e-14 0 0 -1.329e-13 -1.1675e-13 -6.61497e-14 -6.00346e-14 0 0 -2.00544e-13 -3.31689e-14 -1.02007e-13 1.91648e-15 0 0 -1.63077e-13 -7.62976e-14 -9.92589e-14 7.68122e-14 0 0 -1.50964e-13 -8.89323e-14 -6.66836e-14 7.80322e-14 0 0 -8.78859e-14 -1.7814e-13 4.08929e-14 6.06225e-14 0 0 -1.03437e-13 -1.28094e-13 2.7599e-14 6.16814e-14 0 0 -1.45431e-13 -5.15769e-14 9.47793e-14 -8.5141e-14 0 0 -8.29197e-14 -6.88413e-14 1.7888e-13 -1.72721e-13 0 0 -3.49481e-14 -1.2008e-13 2.25618e-13 -1.5005e-13 0 0 -6.06189e-14 -7.24701e-14 1.72609e-13 -9.37727e-14 0 0 -9.14612e-14 4.65521e-14 1.33823e-14 2.48874e-15 0 0 -7.47085e-14 1.92609e-14 4.44743e-14 4.37623e-14 0 0 -1.38336e-13 1.45834e-13 1.7027e-14 4.23783e-14 0 0 -2.07623e-13 3.15919e-13 -4.20827e-14 -3.38026e-15 0 0 -1.12117e-13 2.09345e-13 9.92321e-14 -8.33896e-14 0 0 -2.68883e-14 1.58308e-13 7.23763e-14 1.47576e-14 0 0 -1.82769e-15 7.04514e-14 1.29167e-13 7.08217e-14 0 0 -5.03431e-14 5.47737e-14 1.44481e-13 1.4349e-13 0 0 -2.14652e-13 3.3926e-13 -1.93978e-13 3.41421e-13 0 0 -1.14696e-13 2.44077e-13 -1.32026e-13 2.18709e-13 0 0 1.53185e-14 7.76339e-14 1.14391e-13 -4.06702e-14 0 0 1.23376e-13 -1.62887e-13 4.14585e-13 -1.41356e-13 0 0 2.52695e-14 -9.82304e-14 2.85952e-13 1.45473e-13 0 0 -1.55133e-13 4.63628e-14 1.72243e-13 2.09307e-13 0 0 -1.85251e-13 4.06055e-14 9.30362e-14 2.25356e-13 0 0 -2.70996e-13 2.31295e-13 -2.4337e-13 3.68501e-13 0 0 -9.7145e-14 2.66331e-14 -1.37022e-14 3.7782e-14 0 0 1.53921e-13 -1.95394e-13 2.85283e-13 -3.35556e-13 0 0 3.73584e-14 -1.69012e-14 2.40889e-13 -4.62877e-13 0 0 1.18832e-13 -1.62195e-13 1.99995e-13 -3.04407e-13 0 0 3.1073e-13 -3.42234e-13 6.21304e-14 -1.67651e-14 0 0 2.19628e-13 -2.44993e-13 -1.32724e-13 1.71374e-13 0 0 6.62657e-14 -3.84636e-14 -4.20904e-13 4.1716e-13 0 0 -1.29255e-13 2.89574e-13 -5.9815e-13 2.94591e-13 0 0 9.7866e-14 -1.12394e-13 -4.91933e-14 -2.64904e-13 0 0 2.70714e-13 -4.15936e-13 1.36488e-13 -2.63847e-13 0 0 2.57331e-13 -3.26576e-13 -1.29675e-13 3.13632e-14 0 0 3.51983e-13 -3.92735e-13 -1.58563e-13 8.71359e-14 0
				</DataArray>
				<DataArray Name="VitesseY" type="Float32" format="ascii">