<?xml version="1.0"?>
<VTKFile type="PolyData">
	<PolyData>
		<Piece NumberOfPoints="1206" NumberOfPolys="1000">
			<Points>
				<DataArray type="Float32" NumberOfComponents="3" format="ascii">
 0 0 0 0.02 0 0 0.04 0 0 0.06 0 0 0.08 0 0 0.1 0 0 0 0.005 0 0.02 0.005 0 0.04 0.005 0 0.06 0.005 0 0.08 0.005 0 0.1 0.005 0 0 0.01 0 0.02 0.01 0 0.04 0.01 0 0.06 0.01 0 0.08 0.01 0 0.1 0.01 0 0 0.015 0 0.02 0.015 0 0.04 0.015 0 0.06 0.015 0 0.08 0.015 0 0.1 0.015 0 0 0.02 0 0.02 0.02 0 0.04 0.02 0 0.06 0.02 0 0.08 0.02 0 0.1 0.02 0 0 0.025 0 0.02 0.025 0 0.04 0.025 0 0.06 0.025 0 0.08 0.025 0 0.1 0.025 0 0 0.03 0 0.02 0.03 0 0.04 0.03 0 0.06 0.03 0 0.08 0.03 0 0.1 0.03 0 0 0.035 0 0.02 0.035 0 0.04 0.035 0 0.06 0.035 0 0.08 0.035 0 0.1 0.035 0 0 0.04 0 0.02 0.04 0 0.04 0.04 0 0.06 0.04 0 0.08 0.04 0 0.1 0.04 0 0 0.045 0 0.02 0.045 0 0.04 0.045 0 0.06 0.045 0 0.08 0.045 0 0.1 0.045 0 0 0.05 0 0.02 0.05 0 0.04 0.05 0 0.06 0.05 0 0.08 0.05 0 0.1 0.05 0 0 0.055 0 0.02 0.055 0 0.04 0.055 0 0.06 0.055 0 0.08 0.055 0 0.1 0.055 0 0 0.06 0 0.02 0.06 0 0.04 0.06 0 0.06 0.06 0 0.08 0.06 0 0.1 0.06 0 0 0.065 0 0.02 0.065 0 0.04 0.065 0 0.06 0.065 0 0.08 0.065 0 0.1 0.065 0 0 0.07 0 0.02 0.07 0 0.04 0.07 0 0.06 0.07 0 0.08 0.07 0 0.1 0.07 0 0 0.075 0 0.02 0.075 0 0.04 0.075 0 0.06 0.075 0 0.08 0.075 0 0.1 0.075 0 0 0.08 0 0.02 0.08 0 0.04 0.08 0 0.06 0.08 0 0.08 0.08 0 0.1 0.08 0 0 0.085 0 0.02 0.085 0 0.04 0.085 0 0.06 0.085 0 0.08 0.085 0 0.1 0.085 0 0 0.09 0 0.02 0.09 0 0.04 0.09 0 0.06 0.09 0 0.08 0.09 0 0.1 0.09 0 0 0.095 0 0.02 0.095 0 0.04 0.095 0 0.06 0.095 0 0.08 0.095 0 0.1 0.095 0 0 0.1 0 0.02 0.1 0 0.04 0.1 0 0.06 0.1 0 0.08 0.1 0 0.1 0.1 0 0 0.105 0 0.02 0.105 0 0.04 0.105 0 0.06 0.105 0 0.08 0.105 0 0.1 0.105 0 0 0.11 0 0.02 0.11 0 0.04 0.11 0 0.06 0.11 0 0.08 0.11 0 0.1 0.11 0 0 0.115 0 0.02 0.115 0 0.04 0.115 0 0.06 0.115 0 0.08 0.115 0 0.1 0.115 0 0 0.12 0 0.02 0.12 0 0.04 0.12 0 0.06 0.12 0 0.08 0.12 0 0.1 0.12 0 0 0.125 0 0.02 0.125 0 0.04 0.125 0 0.06 0.125 0 0.08 0.125 0 0.1 0.125 0 0 0.13 0 0.02 0.13 0 0.04 0.13 0 0.06 0.13 0 0.08 0.13 0 0.1 0.13 0 0 0.135 0 0.02 0.135 0 0.04 0.135 0 0.06 0.135 0 0.08 0.135 0 0.1 0.135 0 0 0.14 0 0.02 0.14 0 0.04 0.14 0 0.06 0.14 0 0.08 0.14 0 0.1 0.14 0 0 0.145 0 0.02 0.145 0 0.04 0.145 0 0.06 0.145 0 0.08 0.145 0 0.1 0.145 0 0 0.15 0 0.02 0.15 0 0.04 0.15 0 0.06 0.15 0 0.08 0.15 0 0.1 0.15 0 0 0.155 0 0.02 0.155 0 0.04 0.155 0 0.06 0.155 0 0.08 0.155 0 0.1 0.155 0 0 0.16 0 0.02 0.16 0 0.04 0.16 0 0.06 0.16 0 0.08 0.16 0 0.1 0.16 0 0 0.165 0 0.02 0.165 0 0.04 0.165 0 0.06 0.165 0 0.08 0.165 0 0.1 0.165 0 0 0.17 0 0.02 0.17 0 0.04 0.17 0 0.06 0.17 0 0.08 0.17 0 0.1 0.17 0 0 0.175 0 0.02 0.175 0 0.04 0.175 0 0.06 0.175 0 0.08 0.175 0 0.1 0.175 0 0 0.18 0 0.02 0.18 0 0.04 0.18 0 0.06 0.18 0 0.08 0.18 0 0.1 0.18 0 0 0.185 0 0.02 0.185 0 0.04 0.185 0 0.06 0.185 0 0.08 0.185 0 0.1 0.185 0 0 0.19 0 0.02 0.19 0 0.04 0.19 0 0.06 0.19 0 0.08 0.19 0 0.1 0.19 0 0 0.195 0 0.02 0.195 0 0.04 0.195 0 0.06 0.195 0 0.08 0.195 0 0.1 0.195 0 0 0.2 0 0.02 0.2 0 0.04 0.2 0 0.06 0.2 0 0.08 0.2 0 0.1 0.2 0 0 0.205 0 0.02 0.205 0 0.04 0.205 0 0.06 0.205 0 0.08 0.205 0 0.1 0.205 0 0 0.21 0 0.02 0.21 0 0.04 0.21 0 0.06 0.21 0 0.08 0.21 0 0.1 0.21 0 0 0.215 0 0.02 0.215 0 0.04 0.215 0 0.06 0.215 0 0.08 0.215 0 0.1 0.215 0 0 0.22 0 0.02 0.22 0 0.04 0.22 0 0.06 0.22 0 0.08 0.22 0 0.1 0.22 0 0 0.225 0 0.02 0.225 0 0.04 0.225 0 0.06 0.225 0 0.08 0.225 0 0.1 0.225 0 0 0.23 0 0.02 0.23 0 0.04 0.23 0 0.06 0.23 0 0.08 0.23 0 0.1 0.23 0 0 0.235 0 0.02 0.235 0 0.04 0.235 0 0.06 0.235 0 0.08 0.235 0 0.1 0.235 0 0 0.24 0 0.02 0.24 0 0.04 0.24 0 0.06 0.24 0 0.08 0.24 0 0.1 0.24 0 0 0.245 0 0.02 0.245 0 0.04 0.245 0 0.06 0.245 0 0.08 0.245 0 0.1 0.245 0 0 0.25 0 0.02 0.25 0 0.04 0.25 0 0.06 0.25 0 0.08 0.25 0 0.1 0.25 0 0 0.255 0 0.02 0.255 0 0.04 0.255 0 0.06 0.255 0 0.08 0.255 0 0.1 0.255 0 0 0.26 0 0.02 0.26 0 0.04 0.26 0 0.06 0.26 0 0.08 0.26 0 0.1 0.26 0 0 0.265 0 0.02 0.265 0 0.04 0.265 0 0.06 0.265 0 0.08 0.265 0 0.1 0.265 0 0 0.27 0 0.02 0.27 0 0.04 0.27 0 0.06 0.27 0 0.08 0.27 0 0.1 0.27 0 0 0.275 0 0.02 0.275 0 0.04 0.275 0 0.06 0.275 0 0.08 0.275 0 0.1 0.275 0 0 0.28 0 0.02 0.28 0 0.04 0.28 0 0.06 0.28 0 0.08 0.28 0 0.1 0.28 0 0 0.285 0 0.02 0.285 0 0.04 0.285 0 0.06 0.285 0 0.08 0.285 0 0.1 0.285 0 0 0.29 0 0.02 0.29 0 0.04 0.29 0 0.06 0.29 0 0.08 0.29 0 0.1 0.29 0 0 0.295 0 0.02 0.295 0 0.04 0.295 0 0.06 0.295 0 0.08 0.295 0 0.1 0.295 0 0 0.3 0 0.02 0.3 0 0.04 0.3 0 0.06 0.3 0 0.08 0.3 0 0.1 0.3 0 0 0.305 0 0.02 0.305 0 0.04 0.305 0 0.06 0.305 0 0.08 0.305 0 0.1 0.305 0 0 0.31 0 0.02 0.31 0 0.04 0.31 0 0.06 0.31 0 0.08 0.31 0 0.1 0.31 0 0 0.315 0 0.02 0.315 0 0.04 0.315 0 0.06 0.315 0 0.08 0.315 0 0.1 0.315 0 0 0.32 0 0.02 0.32 0 0.04 0.32 0 0.06 0.32 0 0.08 0.32 0 0.1 0.32 0 0 0.325 0 0.02 0.325 0 0.04 0.325 0 0.06 0.325 0 0.08 0.325 0 0.1 0.325 0 0 0.33 0 0.02 0.33 0 0.04 0.33 0 0.06 0.33 0 0.08 0.33 0 0.1 0.33 0 0 0.335 0 0.02 0.335 0 0.04 0.335 0 0.06 0.335 0 0.08 0.335 0 0.1 0.335 0 0 0.34 0 0.02 0.34 0 0.04 0.34 0 0.06 0.34 0 0.08 0.34 0 0.1 0.34 0 0 0.345 0 0.02 0.345 0 0.04 0.345 0 0.06 0.345 0 0.08 0.345 0 0.1 0.345 0 0 0.35 0 0.02 0.35 0 0.04 0.35 0 0.06 0.35 0 0.08 0.35 0 0.1 0.35 0 0 0.355 0 0.02 0.355 0 0.04 0.355 0 0.06 0.355 0 0.08 0.355 0 0.1 0.355 0 0 0.36 0 0.02 0.36 0 0.04 0.36 0 0.06 0.36 0 0.08 0.36 0 0.1 0.36 0 0 0.365 0 0.02 0.365 0 0.04 0.365 0 0.06 0.365 0 0.08 0.365 0 0.1 0.365 0 0 0.37 0 0.02 0.37 0 0.04 0.37 0 0.06 0.37 0 0.08 0.37 0 0.1 0.37 0 0 0.375 0 0.02 0.375 0 0.04 0.375 0 0.06 0.375 0 0.08 0.375 0 0.1 0.375 0 0 0.38 0 0.02 0.38 0 0.04 0.38 0 0.06 0.38 0 0.08 0.38 0 0.1 0.38 0 0 0.385 0 0.02 0.385 0 0.04 0.385 0 0.06 0.385 0 0.08 0.385 0 0.1 0.385 0 0 0.39 0 0.02 0.39 0 0.04 0.39 0 0.06 0.39 0 0.08 0.39 0 0.1 0.39 0 0 0.395 0 0.02 0.395 0 0.04 0.395 0 0.06 0.395 0 0.08 0.395 0 0.1 0.395 0 0 0.4 0 0.02 0.4 0 0.04 0.4 0 0.06 0.4 0 0.08 0.4 0 0.1 0.4 0 0 0.405 0 0.02 0.405 0 0.04 0.405 0 0.06 0.405 0 0.08 0.405 0 0.1 0.405 0 0 0.41 0 0.02 0.41 0 0.04 0.41 0 0.06 0.41 0 0.08 0.41 0 0.1 0.41 0 0 0.415 0 0.02 0.415 0 0.04 0.415 0 0.06 0.415 0 0.08 0.415 0 0.1 0.415 0 0 0.42 0 0.02 0.42 0 0.04 0.42 0 0.06 0.42 0 0.08 0.42 0 0.1 0.42 0 0 0.425 0 0.02 0.425 0 0.04 0.425 0 0.06 0.425 0 0.08 0.425 0 0.1 0.425 0 0 0.43 0 0.02 0.43 0 0.04 0.43 0 0.06 0.43 0 0.08 0.43 0 0.1 0.43 0 0 0.435 0 0.02 0.435 0 0.04 0.435 0 0.06 0.435 0 0.08 0.435 0 0.1 0.435 0 0 0.44 0 0.02 0.44 0 0.04 0.44 0 0.06 0.44 0 0.08 0.44 0 0.1 0.44 0 0 0.445 0 0.02 0.445 0 0.04 0.445 0 0.06 0.445 0 0.08 0.445 0 0.1 0.445 0 0 0.45 0 0.02 0.45 0 0.04 0.45 0 0.06 0.45 0 0.08 0.45 0 0.1 0.45 0 0 0.455 0 0.02 0.455 0 0.04 0.455 0 0.06 0.455 0 0.08 0.455 0 0.1 0.455 0 0 0.46 0 0.02 0.46 0 0.04 0.46 0 0.06 0.46 0 0.08 0.46 0 0.1 0.46 0 0 0.465 0 0.02 0.465 0 0.04 0.465 0 0.06 0.465 0 0.08 0.465 0 0.1 0.465 0 0 0.47 0 0.02 0.47 0 0.04 0.47 0 0.06 0.47 0 0.08 0.47 0 0.1 0.47 0 0 0.475 0 0.02 0.475 0 0.04 0.475 0 0.06 0.475 0 0.08 0.475 0 0.1 0.475 0 0 0.48 0 0.02 0.48 0 0.04 0.48 0 0.06 0.48 0 0.08 0.48 0 0.1 0.48 0 0 0.485 0 0.02 0.485 0 0.04 0.485 0 0.06 0.485 0 0.08 0.485 0 0.1 0.485 0 0 0.49 0 0.02 0.49 0 0.04 0.49 0 0.06 0.49 0 0.08 0.49 0 0.1 0.49 0 0 0.495 0 0.02 0.495 0 0.04 0.495 0 0.06 0.495 0 0.08 0.495 0 0.1 0.495 0 0 0.5 0 0.02 0.5 0 0.04 0.5 0 0.06 0.5 0 0.08 0.5 0 0.1 0.5 0 0 0.505 0 0.02 0.505 0 0.04 0.505 0 0.06 0.505 0 0.08 0.505 0 0.1 0.505 0 0 0.51 0 0.02 0.51 0 0.04 0.51 0 0.06 0.51 0 0.08 0.51 0 0.1 0.51 0 0 0.515 0 0.02 0.515 0 0.04 0.515 0 0.06 0.515 0 0.08 0.515 0 0.1 0.515 0 0 0.52 0 0.02 0.52 0 0.04 0.52 0 0.06 0.52 0 0.08 0.52 0 0.1 0.52 0 0 0.525 0 0.02 0.525 0 0.04 0.525 0 0.06 0.525 0 0.08 0.525 0 0.1 0.525 0 0 0.53 0 0.02 0.53 0 0.04 0.53 0 0.06 0.53 0 0.08 0.53 0 0.1 0.53 0 0 0.535 0 0.02 0.535 0 0.04 0.535 0 0.06 0.535 0 0.08 0.535 0 0.1 0.535 0 0 0.54 0 0.02 0.54 0 0.04 0.54 0 0.06 0.54 0 0.08 0.54 0 0.1 0.54 0 0 0.545 0 0.02 0.545 0 0.04 0.545 0 0.06 0.545 0 0.08 0.545 0 0.1 0.545 0 0 0.55 0 0.02 0.55 0 0.04 0.55 0 0.06 0.55 0 0.08 0.55 0 0.1 0.55 0 0 0.555 0 0.02 0.555 0 0.04 0.555 0 0.06 0.555 0 0.08 0.555 0 0.1 0.555 0 0 0.56 0 0.02 0.56 0 0.04 0.56 0 0.06 0.56 0 0.08 0.56 0 0.1 0.56 0 0 0.565 0 0.02 0.565 0 0.04 0.565 0 0.06 0.565 0 0.08 0.565 0 0.1 0.565 0 0 0.57 0 0.02 0.57 0 0.04 0.57 0 0.06 0.57 0 0.08 0.57 0 0.1 0.57 0 0 0.575 0 0.02 0.575 0 0.04 0.575 0 0.06 0.575 0 0.08 0.575 0 0.1 0.575 0 0 0.58 0 0.02 0.58 0 0.04 0.58 0 0.06 0.58 0 0.08 0.58 0 0.1 0.58 0 0 0.585 0 0.02 0.585 0 0.04 0.585 0 0.06 0.585 0 0.08 0.585 0 0.1 0.585 0 0 0.59 0 0.02 0.59 0 0.04 0.59 0 0.06 0.59 0 0.08 0.59 0 0.1 0.59 0 0 0.595 0 0.02 0.595 0 0.04 0.595 0 0.06 0.595 0 0.08 0.595 0 0.1 0.595 0 0 0.6 0 0.02 0.6 0 0.04 0.6 0 0.06 0.6 0 0.08 0.6 0 0.1 0.6 0 0 0.605 0 0.02 0.605 0 0.04 0.605 0 0.06 0.605 0 0.08 0.605 0 0.1 0.605 0 0 0.61 0 0.02 0.61 0 0.04 0.61 0 0.06 0.61 0 0.08 0.61 0 0.1 0.61 0 0 0.615 0 0.02 0.615 0 0.04 0.615 0 0.06 0.615 0 0.08 0.615 0 0.1 0.615 0 0 0.62 0 0.02 0.62 0 0.04 0.62 0 0.06 0.62 0 0.08 0.62 0 0.1 0.62 0 0 0.625 0 0.02 0.625 0 0.04 0.625 0 0.06 0.625 0 0.08 0.625 0 0.1 0.625 0 0 0.63 0 0.02 0.63 0 0.04 0.63 0 0.06 0.63 0 0.08 0.63 0 0.1 0.63 0 0 0.635 0 0.02 0.635 0 0.04 0.635 0 0.06 0.635 0 0.08 0.635 0 0.1 0.635 0 0 0.64 0 0.02 0.64 0 0.04 0.64 0 0.06 0.64 0 0.08 0.64 0 0.1 0.64 0 0 0.645 0 0.02 0.645 0 0.04 0.645 0 0.06 0.645 0 0.08 0.645 0 0.1 0.645 0 0 0.65 0 0.02 0.65 0 0.04 0.65 0 0.06 0.65 0 0.08 0.65 0 0.1 0.65 0 0 0.655 0 0.02 0.655 0 0.04 0.655 0 0.06 0.655 0 0.08 0.655 0 0.1 0.655 0 0 0.66 0 0.02 0.66 0 0.04 0.66 0 0.06 0.66 0 0.08 0.66 0 0.1 0.66 0 0 0.665 0 0.02 0.665 0 0.04 0.665 0 0.06 0.665 0 0.08 0.665 0 0.1 0.665 0 0 0.67 0 0.02 0.67 0 0.04 0.67 0 0.06 0.67 0 0.08 0.67 0 0.1 0.67 0 0 0.675 0 0.02 0.675 0 0.04 0.675 0 0.06 0.675 0 0.08 0.675 0 0.1 0.675 0 0 0.68 0 0.02 0.68 0 0.04 0.68 0 0.06 0.68 0 0.08 0.68 0 0.1 0.68 0 0 0.685 0 0.02 0.685 0 0.04 0.685 0 0.06 0.685 0 0.08 0.685 0 0.1 0.685 0 0 0.69 0 0.02 0.69 0 0.04 0.69 0 0.06 0.69 0 0.08 0.69 0 0.1 
[...]
			<PointData Scalars="VitesseX">
				<DataArray Name="VitesseX" type="Float32" format="ascii">
 0 1.66856e-15 -1.16753e-14 1.36281e-14 -2.77378e-14 0 0 5.53516e-15 -1.52861e-14 1.46383e-14 -2.3015e-14 0 0 1.2115e-15 8.19173e-16 -9.86741e-15 7.35485e-15 0 0 2.30335e-14 -2.38398e-14 1.24984e-14 9.26225e-15 0 0 2.20952e-14 -1.33351e-14 1.46292e-14 1.32054e-14 0 0 -1.84809e-14 5.09964e-14 -1.91835e-14 2.65947e-14 0 0 -1.0726e-14 2.61336e-14 3.65125e-14 -1.13374e-14 0 0 2.05034e-14 -2.23688e-14 9.16193e-14 -3.90286e-14 0 0 1.1908e-14 4.11451e-15 7.37676e-14 -2.69118e-14 0 0 1.2105e-14 3.40057e-14 3.71572e-14 8.06184e-16 0 0 6.20644e-14 -8.63762e-15 4.68791e-14 -3.01845e-15 0 0 3.81096e-14 3.71098e-14 -2.28125e-14 3.98601e-14 0 0 6.9283e-14 -3.24911e-14 3.75674e-14 2.73127e-15 0 0 7.39883e-14 -3.32343e-14 2.63187e-14 -1.61595e-16 0 0 3.78864e-14 2.87924e-14 -3.63007e-14 3.14009e-14 0 0 8.7167e-14 -8.61485e-14 1.03139e-13 -4.58475e-14 0 0 1.43575e-14 2.42838e-14 7.62558e-15 2.99615e-14 0 0 1.82815e-14 4.17553e-14 8.15011e-15 1.87238e-14 0 0 5.12392e-14 -1.15324e-15 7.35029e-14 -2.61896e-14 0 0 3.98581e-14 1.60637e-14 6.14676e-14 -1.49518e-14 0 0 9.53917e-14 -8.35487e-14 1.47787e-13 -8.44161e-14 0 0 8.16204e-14 -8.69883e-14 1.22841e-13 -7.0595e-14 0 0 -8.2022e-15 3.92077e-14 -2.42562e-14 2.05419e-14 0 0 -7.75949e-14 1.37916e-13 -1.24664e-13 7.7082e-14 0 0 4.22203e-14 -2.96138e-14 1.53068e-14 6.38479e-15 0 0 1.50221e-13 -1.8811e-13 1.80044e-13 -7.61949e-14 0 0 1.66871e-14 -1.43467e-14 5.74816e-14 2.6516e-14 0 0 -3.72488e-14 5.24425e-14 -1.82695e-14 1.30953e-13 0 0 8.07481e-15 -3.52114e-14 5.93382e-14 1.32152e-13 0 0 5.18901e-14 -8.34008e-14 1.12236e-13 8.73095e-14 0 0 5.52896e-14 -2.01004e-14 3.43746e-14 9.14197e-14 0 0 5.22625e-14 -6.17711e-15 3.05925e-14 3.85056e-14 0 0 4.74356e-14 2.72735e-15 1.68969e-14 -2.0705e-14 0 0 -3.78865e-14 1.44682e-13 -1.3699e-13 3.35005e-14 0 0 5.30771e-14 -1.21997e-15 -1.96499e-14 -1.49878e-14 0 0 1.10469e-13 -6.54283e-14 -1.94236e-14 4.3124e-14 0 0 1.02398e-13 -5.55789e-14 8.29402e-15 3.10638e-14 0 0 4.86067e-14 5.46237e-14 -8.90112e-14 1.11559e-13 0 0 1.09638e-13 -1.85087e-14 -5.0329e-14 1.19892e-13 0 0 1.90716e-13 -1.44133e-13 8.13695e-14 -9.60539e-16 0 0 4.87292e-14 3.9151e-14 -3.06127e-14 7.48231e-15 0 0 -5.29125e-14 1.20866e-13 2.28611e-16 -5.16644e-14 0 0 -1.22381e-13 2.18293e-13 -8.66516e-14 5.14477e-15 0 0 -1.38995e-14 7.9752e-14 -9.07747e-15 1.03388e-14 0 0 1.4234e-13 -1.18196e-13 1.35993e-13 -1.10761e-14 0 0 6.72225e-14 8.95157e-14 -1.37804e-13 2.22775e-13 0 0 1.14897e-13 1.1098e-13 -1.79357e-13 2.08415e-13 0 0 1.01117e-13 1.2358e-13 -1.46374e-13 1.07961e-13 0 0 2.2579e-14 1.91978e-13 -1.50613e-13 5.66022e-14 0 0 1.1479e-13 5.6516e-14 -2.67347e-15 -5.34524e-14 0 0 2.50687e-13 -9.27642e-14 8.99743e-14 -8.90543e-14 0 0 3.11862e-13 -1.55858e-13 1.4332e-13 -1.15953e-13 0 0 -9.38731e-14 4.48425e-13 -4.89813e-13 3.41596e-13 0 0 3.74801e-14 1.82882e-13 -2.43136e-13 2.17531e-13 0 0 3.72098e-13 -3.10713e-13 2.24701e-13 -1.52101e-13 0 0 2.09992e-13 1.27945e-14 -1.6871e-13 3.72031e-14 0 0 3.10885e-13 -1.4441e-13 -7.08863e-14 -4.15183e-14 0 0 1.67211e-13 1.626e-13 -4.25984e-13 9.74589e-14 0 0 1.3964e-13 2.35947e-13 -4.63359e-13 1.47052e-14 0 0 2.88423e-13 -6.24817e-14 -1.13113e-13 -2.16296e-13 0 0 2.25577e-13 -4.58288e-14 -1.14506e-13 -1.52293e-13 0 0 1.13016e-13 -6.1422e-14 3.76825e-14 -2.14996e-13 0 0 -5.72996e-14 7.47908e-14 -1.13947e-14 -1.4318e-13 0 0 5.17117e-14 -1.15516e-13 1.93647e-13 -2.15657e-13 0 0 7.50864e-14 -1.34399e-13 2.19409e-13 -2.10047e-13 0 0 -3.93539e-14 8.19655e-14 -2.24719e-15 -7.24994e-14 0 0 5.2304e-14 -6.46424e-15 6.95963e-14 -8.01477e-14 0 0 4.66955e-14 9.49353e-14 -1.06359e-13 7.47597e-14 0 0 2.16001e-13 -9.28214e-14 6.3649e-14 -6.99494e-14 0 0 2.9992e-13 -1.55644e-13 1.3412e-13 -1.96949e-13 0 0 1.3021e-14 3.38117e-13 -3.28006e-13 3.56205e-14 0 0 1.75099e-13 1.11317e-13 -8.25093e-14 -1.32493e-13 0 0 3.70519e-13 -1.49521e-13 1.39994e-13 -2.14342e-13 0 0 4.69054e-13 -3.04963e-13 2.92153e-13 -2.26141e-13 0 0 2.24364e-13 4.06478e-14 3.85367e-14 -5.3266e-14 0 0 8.55038e-14 3.42504e-13 -1.70422e-13 8.19967e-14 0 0 6.033e-13 -2.1189e-13 3.18757e-13 -2.0177e-13 0 0 5.34607e-13 7.87034e-14 3.33565e-15 -7.82581e-14 0 0 3.84659e-13 1.64676e-13 1.44487e-13 -2.98363e-13 0 0 2.29435e-13 4.27067e-13 -1.49547e-13 2.28631e-15 0 0 4.79218e-13 1.02317e-13 -7.60657e-14 2.89687e-13 0 0 6.05291e-13 -3.67059e-13 5.12695e-13 1.59026e-13 0 0 -1.1098e-13 6.72606e-13 -4.22182e-13 8.41783e-13 0 0 2.61605e-13 6.76312e-14 1.78307e-13 4.15271e-13 0 0 9.23436e-13 -1.02057e-12 1.26425e-12 -3.7215e-13 0 0 -7.81777e-15 1.65283e-13 1.28899e-13 3.91412e-13 0 0 -9.49095e-13 8.72814e-13 -1.96535e-13 6.51264e-13 0 0 -2.82521e-13 -6.0088e-14 6.60088e-13 1.98399e-13 0 0 4.83267e-13 -3.69017e-13 2.56937e-13 7.11178e-13 0 0 5.85001e-13 -5.61095e-13 5.66162e-13 2.69686e-13 0 0 1.19336e-13 2.03753e-15 5.27843e-13 -2.11625e-13 0 0 -5.58675e-13 9.96925e-13 -2.22121e-13 2.01658e-13 0 0 -5.66169e-13 7.79415e-13 2.4309e-14 4.80554e-14 0 0 -1.89543e-13 1.34247e-13 5.10047e-13 -5.87412e-14 0 0 3.99158e-13 -4.94162e-13 4.6878e-13 2.67634e-13 0 0 3.99138e-13 -6.97755e-13 6.85308e-13 1.24374e-13 0 0 -2.30115e-14 -3.43206e-13 6.94568e-13 -2.55553e-13 0 0 -7.08783e-13 6.11061e-13 1.11281e-14 1.42697e-14 0 0 -7.216e-13 9.96179e-13 -9.4894e-13 5.7982e-13 0 0 -1.24061e-13 5.21025e-13 -8.99143e-13 8.27121e-13 0 0 9.59507e-13 -7.11435e-13 -4.48608e-13 8.66366e-13 0 0 1.17962e-12 -1.17855e-12 -1.80332e-13 8.69344e-13 0 0 7.85292e-13 -9.04322e-13 -1.62906e-13 7.43163e-13 0 0 -6.64085e-14 -1.61134e-13 -1.87764e-13 4.62424e-13 0 0 -4.66281e-13 3.56139e-13 -1.61978e-13 2.40539e-13 0 0 -4.65354e-13 3.93806e-13 -9.76742e-14 1.05854e-13 0 0 -3.35286e-13 3.47245e-13 -6.42139e-14 -4.82896e-14 0 0 -1.46639e-13 2.98312e-13 -2.5449e-14 -2.78901e-13 0 0 -1.14325e-14 2.23437e-13 8.44727e-14 -4.42272e-13 0 0 5.03255e-14 7.89024e-14 1.01625e-13 -4.86923e-13 0 0 5.08353e-14 -4.91536e-14 7.83909e-14 -4.73671e-13 0 0 2.74597e-14 -9.24612e-14 -1.58816e-14 -3.81448e-13 0 0 -5.54039e-15 -1.28766e-13 -1.54822e-13 -2.21733e-13 0 0 -3.77837e-14 -1.97726e-13 -1.81869e-13 -1.43837e-13 0 0 -8.69062e-14 -2.31217e-13 -2.2917e-13 -1.35496e-14 0 0 -1.12811e-13 -2.12611e-13 -2.83905e-13 1.26521e-13 0 0 -1.0514e-13 -1.81283e-13 -2.92e-13 1.48733e-13 0 0 -3.7393e-14 -2.37505e-13 -1.68319e-13 -3.95492e-14 0 0 -6.98092e-15 -2.19243e-13 -1.17375e-13 -1.0634e-13 0 0 -4.4621e-14 -7.07591e-14 -1.76807e-13 8.81339e-14 0 0 -1.94203e-14 -2.95448e-14 -5.60183e-14 7.55812e-14 0 0 5.32939e-14 -1.68843e-14 -4.68001e-14 7.82542e-14 0 0 1.86472e-13 -1.11618e-13 7.79701e-14 -3.39819e-14 0 0 1.04126e-13 9.081e-14 -9.75553e-14 6.47941e-14 0 0 1.6756e-13 2.24731e-14 -4.32155e-14 3.78726e-14 0 0 1.95399e-13 -5.36354e-14 4.50626e-14 4.43855e-14 0 0 1.1184e-13 7.77407e-14 -6.35722e-14 1.22005e-13 0 0 2.38375e-13 -7.33304e-14 8.10207e-14 -2.42097e-14 0 0 1.6279e-13 1.13194e-13 -1.91858e-13 1.52046e-13 0 0 2.16022e-13 5.6366e-14 -2.19239e-13 2.16979e-13 0 0 1.8366e-13 6.69377e-14 -2.22286e-13 1.96602e-13 0 0 1.01472e-13 1.37501e-13 -2.71226e-13 1.92433e-13 0 0 2.73722e-13 -1.74488e-13 3.1765e-14 -2.61394e-14 0 0 1.3064e-13 -4.25876e-15 -1.78992e-13 1.1036e-13 0 0 1.47787e-13 -1.2992e-13 -1.0039e-13 1.44645e-13 0 0 1.1674e-13 -1.07904e-13 -1.52888e-13 1.9086e-13 0 0 6.40002e-14 -1.78594e-14 -2.53675e-13 2.6787e-13 0 0 2.81505e-13 -3.85428e-13 1.92286e-13 -4.55299e-14 0 0 -5.10963e-14 9.91937e-14 -1.43986e-13 7.37644e-14 0 0 -1.18189e-13 1.49984e-13 -5.74713e-14 1.11949e-13 0 0 7.66499e-15 -5.9907e-14 2.63686e-13 2.32618e-14 0 0 -2.75329e-13 4.23863e-13 -1.50386e-13 2.99676e-13 0 0 1.92633e-13 -2.58432e-13 4.48007e-13 4.52881e-14 0 0 2.95874e-13 -4.19588e-13 4.4458e-13 2.03181e-13 0 0 -2.50098e-13 3.69154e-13 -2.32566e-13 4.78708e-13 0 0 6.60233e-14 -2.18137e-13 5.37479e-13 -2.29527e-13 0 0 -3.23787e-14 6.00417e-14 2.92404e-13 -1.13708e-13 0 0 7.17254e-14 1.51072e-13 1.97052e-13 3.75959e-14 0 0 1.97805e-13 -3.42915e-14 4.95397e-13 -1.28211e-13 0 0 -2.18858e-14 3.12913e-13 2.0226e-13 -8.45558e-14 0 0 4.10721e-13 -3.60204e-13 7.79997e-13 -4.63448e-13 0 0 -1.64221e-14 2.22865e-13 1.78461e-13 -1.3379e-13 0 0 -7.81898e-14 4.10122e-13 -7.7816e-14 -1.02821e-13 0 0 2.10065e-13 1.92002e-13 -1.28052e-13 7.69805e-14 0 0 2.57053e-13 -2.40882e-14 -1.08967e-13 3.73684e-13 0 0 3.02599e-14 -1.17824e-13 1.35322e-13 2.19882e-13 0 0 -3.11265e-13 2.66467e-13 -1.12932e-13 1.50543e-13 0 0 9.17001e-14 -2.24609e-13 2.39435e-13 -1.90862e-13 0 0 2.28879e-13 -3.56698e-13 1.45024e-13 -1.26734e-13 0 0 1.72297e-13 -3.73073e-13 1.60617e-13 -2.29825e-13 0 0 -9.9815e-14 -1.34706e-13 2.43243e-14 -2.37113e-13 0 0 -3.44558e-13 2.61249e-14 7.05173e-15 -2.61959e-13 0 0 -3.42898e-13 -9.35844e-14 2.72216e-13 -4.79275e-13 0 0 -3.79941e-13 -9.62952e-14 1.6291e-13 -1.21714e-13 0 0 -5.66773e-15 -7.03254e-13 4.74363e-13 2.03684e-13 0 0 2.04685e-13 -9.17814e-13 4.98806e-13 4.26932e-13 0 0 -4.14482e-14 -4.13212e-13 6.07375e-14 5.73808e-13 0 0 -3.54599e-13 -3.02146e-14 -1.44825e-14 3.64222e-13 0 0 -6.54732e-13 3.40155e-13 -3.21291e-13 5.23608e-13 0 0 -2.87029e-13 -1.09549e-13 -1.14701e-13 3.30313e-13 0 0 1.81152e-14 -4.64885e-13 -2.28643e-14 1.81788e-13 0 0 4.99925e-15 -3.37102e-13 -3.6252e-13 3.8664e-13 0 0 3.08425e-13 -7.89696e-13 1.9473e-13 -9.66607e-14 0 0 -1.0145e-13 -1.97785e-13 -1.91096e-13 7.43338e-15 0 0 -2.75442e-13 -1.00873e-14 -3.29699e-13 1.0579e-13 0 0 -2.14184e-14 -4.09563e-13 -5.08502e-14 3.18007e-14 0 0 -3.70292e-14 -2.12546e-13 -4.26505e-13 3.14121e-13 0 0 1.76782e-13 -5.19346e-13 -7.58077e-14 4.50707e-14 0 0 -1.86028e-13 -9.40285e-14 -2.69458e-13 1.82326e-14 0 0 -4.39161e-13 1.40576e-13 -1.90863e-13 -1.50094e-13 0 0 -2.1387e-13 -1.89167e-13 2.00035e-13 -4.08493e-13 0 0 -2.39558e-13 3.94567e-14 -2.74065e-13 -8.60695e-14 0 0 9.07722e-14 -4.08404e-13 3.18655e-14 -3.171e-13 0 0 -1.23893e-13 -1.21526e-13 -1.9075e-13 -1.17089e-13 0 0 -4.77874e-13 2.93216e-13 -3.49516e-13 1.89225e-14 0 0 -3.05306e-13 -1.49303e-13 4.37535e-13 -6.22312e-13 0 0 -3.16143e-13 -1.20581e-13 4.27374e-13 -6.2356e-13 0 0 4.00011e-14 -5.64077e-13 5.99435e-13 -6.35128e-13 0 0 -2.30118e-13 -1.28499e-13 -4.22819e-16 -2.8019e-13 0 0 -2.55743e-13 -9.07193e-14 -7.29434e-14 -1.85743e-13 0 0 7.06388e-14 -4.49687e-13 3.96331e-13 -5.60625e-13 0 0 -5.37755e-13 6.76302e-13 -6.4525e-13 -1.19045e-13 0 0 -4.78426e-14 -9.0978e-14 1.44809e-13 -5.62536e-13 0 0 2.87735e-13 -7.38753e-13 7.51752e-13 -8.26551e-13 0 0 -1.55999e-13 -2.06488e-13 2.24562e-13 -3.47732e-13 0 0 -1.1047e-14 -5.8786e-13 8.00213e-13 -5.98074e-13 0 0 -4.62732e-13 2.18442e-13 1.69134e-13 -3.99215e-13 0 0 -3.40469e-14 -3.44341e-13 8.76292e-13 -1.13084e-12 0 0 1.00638e-14 -3.69391e-13 9.57728e-13 -1.35321e-12 0 0 -3.16765e-13 4.57289e-13 -2.01961e-13 -5.86802e-13 0 0 1.97851e-13 -1.37242e-13 8.73592e-14 -6.74133e-13 0
				</DataArray>
				<DataArray Name="VitesseY" type="Float32" format="ascii">