<?xml version="1.0"?>
<VTKFile type="PolyData">
	<PolyData>
		<Piece NumberOfPoints="1206" NumberOfPolys="1000">
			<Points>
				<DataArray type="Float32" NumberOfComponents="3" format="ascii">
 0 0 0 0.02 0 0 0.04 0 0 0.06 0 0 0.08 0 0 0.1 0 0 0 0.005 0 0.02 0.005 0 0.04 0.005 0 0.06 0.005 0 0.08 0.005 0 0.1 0.005 0 0 0.01 0 0.02 0.01 0 0.04 0.01 0 0.06 0.01 0 0.08 0.01 0 0.1 0.01 0 0 0.015 0 0.02 0.015 0 0.04 0.015 0 0.06 0.015 0 0.08 0.015 0 0.1 0.015 0 0 0.02 0 0.02 0.02 0 0.04 0.02 0 0.06 0.02 0 0.08 0.02 0 0.1 0.02 0 0 0.025 0 0.02 0.025 0 0.04 0.025 0 0.06 0.025 0 0.08 0.025 0 0.1 0.025 0 0 0.03 0 0.02 0.03 0 0.04 0.03 0 0.06 0.03 0 0.08 0.03 0 0.1 0.03 0 0 0.035 0 0.02 0.035 0 0.04 0.035 0 0.06 0.035 0 0.08 0.035 0 0.1 0.035 0 0 0.04 0 0.02 0.04 0 0.04 0.04 0 0.06 0.04 0 0.08 0.04 0 0.1 0.04 0 0 0.045 0 0.02 0.045 0 0.04 0.045 0 0.06 0.045 0 0.08 0.045 0 0.1 0.045 0 0 0.05 0 0.02 0.05 0 0.04 0.05 0 0.06 0.05 0 0.08 0.05 0 0.1 0.05 0 0 0.055 0 0.02 0.055 0 0.04 0.055 0 0.06 0.055 0 0.08 0.055 0 0.1 0.055 0 0 0.06 0 0.02 0.06 0 0.04 0.06 0 0.06 0.06 0 0.08 0.06 0 0.1 0.06 0 0 0.065 0 0.02 0.065 0 0.04 0.065 0 0.06 0.065 0 0.08 0.065 0 0.1 0.065 0 0 0.07 0 0.02 0.07 0 0.04 0.07 0 0.06 0.07 0 0.08 0.07 0 0.1 0.07 0 0 0.075 0 0.02 0.075 0 0.04 0.075 0 0.06 0.075 0 0.08 0.075 0 0.1 0.075 0 0 0.08 0 0.02 0.08 0 0.04 0.08 0 0.06 0.08 0 0.08 0.08 0 0.1 0.08 0 0 0.085 0 0.02 0.085 0 0.04 0.085 0 0.06 0.085 0 0.08 0.085 0 0.1 0.085 0 0 0.09 0 0.02 0.09 0 0.04 0.09 0 0.06 0.09 0 0.08 0.09 0 0.1 0.09 0 0 0.095 0 0.02 0.095 0 0.04 0.095 0 0.06 0.095 0 0.08 0.095 0 0.1 0.095 0 0 0.1 0 0.02 0.1 0 0.04 0.1 0 0.06 0.1 0 0.08 0.1 0 0.1 0.1 0 0 0.105 0 0.02 0.105 0 0.04 0.105 0 0.06 0.105 0 0.08 0.105 0 0.1 0.105 0 0 0.11 0 0.02 0.11 0 0.04 0.11 0 0.06 0.11 0 0.08 0.11 0 0.1 0.11 0 0 0.115 0 0.02 0.115 0 0.04 0.115 0 0.06 0.115 0 0.08 0.115 0 0.1 0.115 0 0 0.12 0 0.02 0.12 0 0.04 0.12 0 0.06 0.12 0 0.08 0.12 0 0.1 0.12 0 0 0.125 0 0.02 0.125 0 0.04 0.125 0 0.06 0.125 0 0.08 0.125 0 0.1 0.125 0 0 0.13 0 0.02 0.13 0 0.04 0.13 0 0.06 0.13 0 0.08 0.13 0 0.1 0.13 0 0 0.135 0 0.02 0.135 0 0.04 0.135 0 0.06 0.135 0 0.08 0.135 0 0.1 0.135 0 0 0.14 0 0.02 0.14 0 0.04 0.14 0 0.06 0.14 0 0.08 0.14 0 0.1 0.14 0 0 0.145 0 0.02 0.145 0 0.04 0.145 0 0.06 0.145 0 0.08 0.145 0 0.1 0.145 0 0 0.15 0 0.02 0.15 0 0.04 0.15 0 0.06 0.15 0 0.08 0.15 0 0.1 0.15 0 0 0.155 0 0.02 0.155 0 0.04 0.155 0 0.06 0.155 0 0.08 0.155 0 0.1 0.155 0 0 0.16 0 0.02 0.16 0 0.04 0.16 0 0.06 0.16 0 0.08 0.16 0 0.1 0.16 0 0 0.165 0 0.02 0.165 0 0.04 0.165 0 0.06 0.165 0 0.08 0.165 0 0.1 0.165 0 0 0.17 0 0.02 0.17 0 0.04 0.17 0 0.06 0.17 0 0.08 0.17 0 0.1 0.17 0 0 0.175 0 0.02 0.175 0 0.04 0.175 0 0.06 0.175 0 0.08 0.175 0 0.1 0.175 0 0 0.18 0 0.02 0.18 0 0.04 0.18 0 0.06 0.18 0 0.08 0.18 0 0.1 0.18 0 0 0.185 0 0.02 0.185 0 0.04 0.185 0 0.06 0.185 0 0.08 0.185 0 0.1 0.185 0 0 0.19 0 0.02 0.19 0 0.04 0.19 0 0.06 0.19 0 0.08 0.19 0 0.1 0.19 0 0 0.195 0 0.02 0.195 0 0.04 0.195 0 0.06 0.195 0 0.08 0.195 0 0.1 0.195 0 0 0.2 0 0.02 0.2 0 0.04 0.2 0 0.06 0.2 0 0.08 0.2 0 0.1 0.2 0 0 0.205 0 0.02 0.205 0 0.04 0.205 0 0.06 0.205 0 0.08 0.205 0 0.1 0.205 0 0 0.21 0 0.02 0.21 0 0.04 0.21 0 0.06 0.21 0 0.08 0.21 0 0.1 0.21 0 0 0.215 0 0.02 0.215 0 0.04 0.215 0 0.06 0.215 0 0.08 0.215 0 0.1 0.215 0 0 0.22 0 0.02 0.22 0 0.04 0.22 0 0.06 0.22 0 0.08 0.22 0 0.1 0.22 0 0 0.225 0 0.02 0.225 0 0.04 0.225 0 0.06 0.225 0 0.08 0.225 0 0.1 0.225 0 0 0.23 0 0.02 0.23 0 0.04 0.23 0 0.06 0.23 0 0.08 0.23 0 0.1 0.23 0 0 0.235 0 0.02 0.235 0 0.04 0.235 0 0.06 0.235 0 0.08 0.235 0 0.1 0.235 0 0 0.24 0 0.02 0.24 0 0.04 0.24 0 0.06 0.24 0 0.08 0.24 0 0.1 0.24 0 0 0.245 0 0.02 0.245 0 0.04 0.245 0 0.06 0.245 0 0.08 0.245 0 0.1 0.245 0 0 0.25 0 0.02 0.25 0 0.04 0.25 0 0.06 0.25 0 0.08 0.25 0 0.1 0.25 0 0 0.255 0 0.02 0.255 0 0.04 0.255 0 0.06 0.255 0 0.08 0.255 0 0.1 0.255 0 0 0.26 0 0.02 0.26 0 0.04 0.26 0 0.06 0.26 0 0.08 0.26 0 0.1 0.26 0 0 0.265 0 0.02 0.265 0 0.04 0.265 0 0.06 0.265 0 0.08 0.265 0 0.1 0.265 0 0 0.27 0 0.02 0.27 0 0.04 0.27 0 0.06 0.27 0 0.08 0.27 0 0.1 0.27 0 0 0.275 0 0.02 0.275 0 0.04 0.275 0 0.06 0.275 0 0.08 0.275 0 0.1 0.275 0 0 0.28 0 0.02 0.28 0 0.04 0.28 0 0.06 0.28 0 0.08 0.28 0 0.1 0.28 0 0 0.285 0 0.02 0.285 0 0.04 0.285 0 0.06 0.285 0 0.08 0.285 0 0.1 0.285 0 0 0.29 0 0.02 0.29 0 0.04 0.29 0 0.06 0.29 0 0.08 0.29 0 0.1 0.29 0 0 0.295 0 0.02 0.295 0 0.04 0.295 0 0.06 0.295 0 0.08 0.295 0 0.1 0.295 0 0 0.3 0 0.02 0.3 0 0.04 0.3 0 0.06 0.3 0 0.08 0.3 0 0.1 0.3 0 0 0.305 0 0.02 0.305 0 0.04 0.305 0 0.06 0.305 0 0.08 0.305 0 0.1 0.305 0 0 0.31 0 0.02 0.31 0 0.04 0.31 0 0.06 0.31 0 0.08 0.31 0 0.1 0.31 0 0 0.315 0 0.02 0.315 0 0.04 0.315 0 0.06 0.315 0 0.08 0.315 0 0.1 0.315 0 0 0.32 0 0.02 0.32 0 0.04 0.32 0 0.06 0.32 0 0.08 0.32 0 0.1 0.32 0 0 0.325 0 0.02 0.325 0 0.04 0.325 0 0.06 0.325 0 0.08 0.325 0 0.1 0.325 0 0 0.33 0 0.02 0.33 0 0.04 0.33 0 0.06 0.33 0 0.08 0.33 0 0.1 0.33 0 0 0.335 0 0.02 0.335 0 0.04 0.335 0 0.06 0.335 0 0.08 0.335 0 0.1 0.335 0 0 0.34 0 0.02 0.34 0 0.04 0.34 0 0.06 0.34 0 0.08 0.34 0 0.1 0.34 0 0 0.345 0 0.02 0.345 0 0.04 0.345 0 0.06 0.345 0 0.08 0.345 0 0.1 0.345 0 0 0.35 0 0.02 0.35 0 0.04 0.35 0 0.06 0.35 0 0.08 0.35 0 0.1 0.35 0 0 0.355 0 0.02 0.355 0 0.04 0.355 0 0.06 0.355 0 0.08 0.355 0 0.1 0.355 0 0 0.36 0 0.02 0.36 0 0.04 0.36 0 0.06 0.36 0 0.08 0.36 0 0.1 0.36 0 0 0.365 0 0.02 0.365 0 0.04 0.365 0 0.06 0.365 0 0.08 0.365 0 0.1 0.365 0 0 0.37 0 0.02 0.37 0 0.04 0.37 0 0.06 0.37 0 0.08 0.37 0 0.1 0.37 0 0 0.375 0 0.02 0.375 0 0.04 0.375 0 0.06 0.375 0 0.08 0.375 0 0.1 0.375 0 0 0.38 0 0.02 0.38 0 0.04 0.38 0 0.06 0.38 0 0.08 0.38 0 0.1 0.38 0 0 0.385 0 0.02 0.385 0 0.04 0.385 0 0.06 0.385 0 0.08 0.385 0 0.1 0.385 0 0 0.39 0 0.02 0.39 0 0.04 0.39 0 0.06 0.39 0 0.08 0.39 0 0.1 0.39 0 0 0.395 0 0.02 0.395 0 0.04 0.395 0 0.06 0.395 0 0.08 0.395 0 0.1 0.395 0 0 0.4 0 0.02 0.4 0 0.04 0.4 0 0.06 0.4 0 0.08 0.4 0 0.1 0.4 0 0 0.405 0 0.02 0.405 0 0.04 0.405 0 0.06 0.405 0 0.08 0.405 0 0.1 0.405 0 0 0.41 0 0.02 0.41 0 0.04 0.41 0 0.06 0.41 0 0.08 0.41 0 0.1 0.41 0 0 0.415 0 0.02 0.415 0 0.04 0.415 0 0.06 0.415 0 0.08 0.415 0 0.1 0.415 0 0 0.42 0 0.02 0.42 0 0.04 0.42 0 0.06 0.42 0 0.08 0.42 0 0.1 0.42 0 0 0.425 0 0.02 0.425 0 0.04 0.425 0 0.06 0.425 0 0.08 0.425 0 0.1 0.425 0 0 0.43 0 0.02 0.43 0 0.04 0.43 0 0.06 0.43 0 0.08 0.43 0 0.1 0.43 0 0 0.435 0 0.02 0.435 0 0.04 0.435 0 0.06 0.435 0 0.08 0.435 0 0.1 0.435 0 0 0.44 0 0.02 0.44 0 0.04 0.44 0 0.06 0.44 0 0.08 0.44 0 0.1 0.44 0 0 0.445 0 0.02 0.445 0 0.04 0.445 0 0.06 0.445 0 0.08 0.445 0 0.1 0.445 0 0 0.45 0 0.02 0.45 0 0.04 0.45 0 0.06 0.45 0 0.08 0.45 0 0.1 0.45 0 0 0.455 0 0.02 0.455 0 0.04 0.455 0 0.06 0.455 0 0.08 0.455 0 0.1 0.455 0 0 0.46 0 0.02 0.46 0 0.04 0.46 0 0.06 0.46 0 0.08 0.46 0 0.1 0.46 0 0 0.465 0 0.02 0.465 0 0.04 0.465 0 0.06 0.465 0 0.08 0.465 0 0.1 0.465 0 0 0.47 0 0.02 0.47 0 0.04 0.47 0 0.06 0.47 0 0.08 0.47 0 0.1 0.47 0 0 0.475 0 0.02 0.475 0 0.04 0.475 0 0.06 0.475 0 0.08 0.475 0 0.1 0.475 0 0 0.48 0 0.02 0.48 0 0.04 0.48 0 0.06 0.48 0 0.08 0.48 0 0.1 0.48 0 0 0.485 0 0.02 0.485 0 0.04 0.485 0 0.06 0.485 0 0.08 0.485 0 0.1 0.485 0 0 0.49 0 0.02 0.49 0 0.04 0.49 0 0.06 0.49 0 0.08 0.49 0 0.1 0.49 0 0 0.495 0 0.02 0.495 0 0.04 0.495 0 0.06 0.495 0 0.08 0.495 0 0.1 0.495 0 0 0.5 0 0.02 0.5 0 0.04 0.5 0 0.06 0.5 0 0.08 0.5 0 0.1 0.5 0 0 0.505 0 0.02 0.505 0 0.04 0.505 0 0.06 0.505 0 0.08 0.505 0 0.1 0.505 0 0 0.51 0 0.02 0.51 0 0.04 0.51 0 0.06 0.51 0 0.08 0.51 0 0.1 0.51 0 0 0.515 0 0.02 0.515 0 0.04 0.515 0 0.06 0.515 0 0.08 0.515 0 0.1 0.515 0 0 0.52 0 0.02 0.52 0 0.04 0.52 0 0.06 0.52 0 0.08 0.52 0 0.1 0.52 0 0 0.525 0 0.02 0.525 0 0.04 0.525 0 0.06 0.525 0 0.08 0.525 0 0.1 0.525 0 0 0.53 0 0.02 0.53 0 0.04 0.53 0 0.06 0.53 0 0.08 0.53 0 0.1 0.53 0 0 0.535 0 0.02 0.535 0 0.04 0.535 0 0.06 0.535 0 0.08 0.535 0 0.1 0.535 0 0 0.54 0 0.02 0.54 0 0.04 0.54 0 0.06 0.54 0 0.08 0.54 0 0.1 0.54 0 0 0.545 0 0.02 0.545 0 0.04 0.545 0 0.06 0.545 0 0.08 0.545 0 0.1 0.545 0 0 0.55 0 0.02 0.55 0 0.04 0.55 0 0.06 0.55 0 0.08 0.55 0 0.1 0.55 0 0 0.555 0 0.02 0.555 0 0.04 0.555 0 0.06 0.555 0 0.08 0.555 0 0.1 0.555 0 0 0.56 0 0.02 0.56 0 0.04 0.56 0 0.06 0.56 0 0.08 0.56 0 0.1 0.56 0 0 0.565 0 0.02 0.565 0 0.04 0.565 0 0.06 0.565 0 0.08 0.565 0 0.1 0.565 0 0 0.57 0 0.02 0.57 0 0.04 0.57 0 0.06 0.57 0 0.08 0.57 0 0.1 0.57 0 0 0.575 0 0.02 0.575 0 0.04 0.575 0 0.06 0.575 0 0.08 0.575 0 0.1 0.575 0 0 0.58 0 0.02 0.58 0 0.04 0.58 0 0.06 0.58 0 0.08 0.58 0 0.1 0.58 0 0 0.585 0 0.02 0.585 0 0.04 0.585 0 0.06 0.585 0 0.08 0.585 0 0.1 0.585 0 0 0.59 0 0.02 0.59 0 0.04 0.59 0 0.06 0.59 0 0.08 0.59 0 0.1 0.59 0 0 0.595 0 0.02 0.595 0 0.04 0.595 0 0.06 0.595 0 0.08 0.595 0 0.1 0.595 0 0 0.6 0 0.02 0.6 0 0.04 0.6 0 0.06 0.6 0 0.08 0.6 0 0.1 0.6 0 0 0.605 0 0.02 0.605 0 0.04 0.605 0 0.06 0.605 0 0.08 0.605 0 0.1 0.605 0 0 0.61 0 0.02 0.61 0 0.04 0.61 0 0.06 0.61 0 0.08 0.61 0 0.1 0.61 0 0 0.615 0 0.02 0.615 0 0.04 0.615 0 0.06 0.615 0 0.08 0.615 0 0.1 0.615 0 0 0.62 0 0.02 0.62 0 0.04 0.62 0 0.06 0.62 0 0.08 0.62 0 0.1 0.62 0 0 0.625 0 0.02 0.625 0 0.04 0.625 0 0.06 0.625 0 0.08 0.625 0 0.1 0.625 0 0 0.63 0 0.02 0.63 0 0.04 0.63 0 0.06 0.63 0 0.08 0.63 0 0.1 0.63 0 0 0.635 0 0.02 0.635 0 0.04 0.635 0 0.06 0.635 0 0.08 0.635 0 0.1 0.635 0 0 0.64 0 0.02 0.64 0 0.04 0.64 0 0.06 0.64 0 0.08 0.64 0 0.1 0.64 0 0 0.645 0 0.02 0.645 0 0.04 0.645 0 0.06 0.645 0 0.08 0.645 0 0.1 0.645 0 0 0.65 0 0.02 0.65 0 0.04 0.65 0 0.06 0.65 0 0.08 0.65 0 0.1 0.65 0 0 0.655 0 0.02 0.655 0 0.04 0.655 0 0.06 0.655 0 0.08 0.655 0 0.1 0.655 0 0 0.66 0 0.02 0.66 0 0.04 0.66 0 0.06 0.66 0 0.08 0.66 0 0.1 0.66 0 0 0.665 0 0.02 0.665 0 0.04 0.665 0 0.06 0.665 0 0.08 0.665 0 0.1 0.665 0 0 0.67 0 0.02 0.67 0 0.04 0.67 0 0.06 0.67 0 0.08 0.67 0 0.1 0.67 0 0 0.675 0 0.02 0.675 0 0.04 0.675 0 0.06 0.675 0 0.08 0.675 0 0.1 0.675 0 0 0.68 0 0.02 0.68 0 0.04 0.68 0 0.06 0.68 0 0.08 0.68 0 0.1 0.68 0 0 0.685 0 0.02 0.685 0 0.04 0.685 0 0.06 0.685 0 0.08 0.685 0 0.1 0.685 0 0 0.69 0 0.02 0.69 0 0.04 0.69 0 0.06 0.69 0 0.08 0.69 0 0.1 
[...]
			<PointData Scalars="VitesseX">
				<DataArray Name="VitesseX" type="Float32" format="ascii">
 0 -7.97926e-15 -1.51814e-14 1.30829e-14 1.97341e-15 0 0 -7.57088e-15 -1.55471e-14 1.27352e-14 3.38057e-15 0 0 -7.92511e-15 -1.19621e-14 5.79303e-15 1.10312e-14 0 0 5.94601e-15 -2.59344e-14 1.63837e-14 5.82986e-15 0 0 8.27693e-15 -1.62734e-14 4.77246e-15 9.15705e-15 0 0 1.06037e-15 1.02004e-14 -2.35773e-14 1.98752e-14 0 0 7.07872e-15 9.23982e-15 -2.5274e-14 1.66427e-14 0 0 1.53764e-14 -3.69499e-15 -8.50639e-16 -7.66896e-15 0 0 1.01067e-14 8.18554e-15 -4.82757e-15 -1.17415e-14 0 0 -5.8862e-15 3.97819e-14 -3.79225e-14 8.56181e-15 0 0 -2.11141e-15 3.76934e-14 -3.99669e-14 1.23966e-14 0 0 9.74752e-15 1.38917e-14 -2.88635e-14 1.11362e-14 0 0 1.24862e-14 -1.26921e-14 1.70112e-15 -7.09251e-15 0 0 -2.18081e-15 -1.37476e-14 1.34471e-14 -1.38007e-14 0 0 4.06115e-15 -4.07497e-14 5.32867e-14 -5.11039e-14 0 0 9.24777e-15 -4.94907e-14 5.39288e-14 -7.04866e-14 0 0 -2.86173e-16 -1.99334e-14 -1.6474e-14 -1.80681e-14 0 0 -6.62618e-16 -3.15869e-14 -1.62182e-14 8.95725e-15 0 0 -7.44029e-15 -4.31988e-14 -1.12034e-14 3.77113e-14 0 0 -7.53741e-15 -4.44309e-14 -3.38286e-14 7.1507e-14 0 0 -3.13143e-14 -4.05509e-15 -8.74177e-14 1.05447e-13 0 0 -4.07064e-14 7.76451e-16 -7.75356e-14 9.11046e-14 0 0 8.91903e-16 -7.39373e-14 4.44488e-14 -3.98072e-15 0 0 1.67138e-14 -8.22972e-14 8.5247e-14 -4.85386e-14 0 0 -1.75542e-14 -5.48926e-15 1.86013e-14 -1.95942e-14 0 0 -1.61244e-14 -5.0543e-15 2.17826e-14 -2.0231e-14 0 0 9.35818e-15 -2.78718e-14 2.91829e-14 -1.28046e-14 0 0 -1.16991e-15 1.67904e-14 -1.74072e-14 1.94494e-14 0 0 -7.90381e-15 4.42422e-14 -2.82826e-14 1.38638e-14 0 0 1.61827e-14 -1.56093e-14 5.27874e-14 -4.14854e-14 0 0 5.44655e-15 -3.06965e-14 8.87954e-14 -6.36194e-14 0 0 -4.63548e-14 4.89695e-14 1.29976e-14 -5.04762e-14 0 0 -3.07066e-14 4.41063e-15 6.44607e-14 -1.08798e-13 0 0 -1.07478e-14 -5.0034e-14 1.07479e-13 -1.07459e-13 0 0 -2.60515e-14 -1.87039e-14 3.10201e-14 -1.48893e-14 0 0 -3.51448e-14 1.52444e-14 -1.60808e-14 3.02781e-14 0 0 1.19149e-14 -4.15292e-14 3.15044e-14 1.56272e-14 0 0 2.99752e-14 -5.34559e-14 1.53603e-14 3.7845e-14 0 0 1.94553e-14 -1.50626e-14 -5.07377e-14 7.31879e-14 0 0 2.29066e-14 -1.75299e-14 -1.78905e-14 2.58878e-14 0 0 2.08373e-14 -4.53084e-14 1.01552e-13 -9.50005e-14 0 0 -2.72112e-14 4.67743e-14 -1.98004e-15 -3.21585e-14 0 0 -9.38721e-15 4.46273e-14 -7.57556e-14 6.96513e-14 0 0 1.65373e-14 -1.17384e-14 -2.38104e-15 2.20807e-14 0 0 1.26316e-14 -1.95006e-14 2.79621e-14 -1.37252e-14 0 0 5.54408e-14 -7.98586e-14 3.31773e-14 2.8439e-14 0 0 7.64738e-14 -6.32928e-14 1.68591e-14 2.66547e-14 0 0 2.68907e-14 4.51196e-14 -6.20073e-14 4.38281e-14 0 0 2.07239e-14 5.42816e-14 -9.85265e-14 9.36804e-14 0 0 2.20738e-14 4.95237e-14 -7.62138e-14 8.85313e-14 0 0 -5.02501e-14 1.83334e-13 -1.91436e-13 1.39471e-13 0 0 4.4584e-14 7.86223e-14 -6.37696e-14 4.7381e-14 0 0 1.35417e-13 -5.68423e-14 1.36856e-13 -6.71271e-14 0 0 6.80196e-14 -2.18397e-14 2.04952e-13 -1.0399e-13 0 0 3.38096e-14 1.03919e-13 5.34088e-14 3.40363e-14 0 0 9.72392e-14 1.24195e-13 -7.1965e-14 1.7301e-13 0 0 1.40168e-13 2.30458e-14 6.00806e-14 6.90141e-14 0 0 5.17889e-14 1.38776e-13 -3.18731e-14 8.48907e-14 0 0 -7.06576e-14 2.77248e-13 -1.20098e-13 5.95074e-14 0 0 2.1897e-14 1.85478e-13 -5.60324e-14 -2.14347e-14 0 0 1.95433e-13 5.42325e-14 -1.61944e-15 -5.98542e-14 0 0 2.33011e-13 -1.41652e-14 1.31949e-13 -1.80797e-13 0 0 1.53122e-13 3.91727e-14 1.58244e-13 -1.93946e-13 0 0 7.20777e-14 9.80213e-14 5.20282e-14 -7.4238e-14 0 0 2.47837e-14 1.58593e-13 -1.64467e-13 1.10848e-13 0 0 9.72758e-14 1.24268e-13 -2.58705e-13 1.22681e-13 0 0 2.80064e-13 -6.42581e-14 -8.69282e-14 -8.92103e-14 0 0 2.2985e-13 1.37723e-13 -2.86191e-13 1.94854e-14 0 0 1.93566e-13 2.42213e-13 -4.00769e-13 1.34161e-13 0 0 1.96192e-13 7.25843e-14 -1.37579e-13 -1.82466e-14 0 0 3.55604e-14 1.08663e-13 -8.19748e-14 -2.23663e-14 0 0 1.67162e-14 5.82103e-14 -1.90722e-14 -3.09698e-14 0 0 8.56569e-14 5.82421e-14 -5.68563e-14 -4.6918e-14 0 0 1.39541e-13 1.50962e-13 -1.90446e-13 -9.56309e-14 0 0 1.12801e-13 1.74007e-13 -1.75075e-13 -2.08396e-13 0 0 7.58228e-14 1.62516e-13 -1.29445e-13 -2.54746e-13 0 0 1.11042e-13 4.6305e-14 -1.01646e-13 -1.48121e-13 0 0 1.47394e-13 -1.01989e-14 -1.53699e-13 2.34934e-14 0 0 9.85979e-14 5.39539e-14 -3.65966e-13 2.40033e-13 0 0 4.59673e-14 8.8755e-14 -4.041e-13 2.24667e-13 0 0 -2.65326e-14 1.92498e-14 -3.16274e-13 1.10428e-13 0 0 -1.39929e-13 5.1276e-14 -1.99013e-13 -6.15207e-14 0 0 -2.74506e-13 1.13782e-13 -1.21462e-13 -1.70973e-13 0 0 -4.36893e-13 4.49878e-14 4.28355e-14 -3.13763e-13 0 0 -4.00063e-13 -8.72734e-14 2.67722e-13 -4.74484e-13 0 0 -3.3239e-13 -2.05826e-13 2.63259e-13 -3.67029e-13 0 0 -2.53873e-13 -1.89367e-13 1.24128e-13 -1.32429e-13 0 0 -1.79492e-13 -2.16447e-13 -2.95478e-14 6.87891e-14 0 0 -1.80521e-13 -1.73194e-13 -2.89107e-13 3.01465e-13 0 0 -3.29541e-13 2.63573e-14 -5.30933e-13 3.63059e-13 0 0 -4.69488e-13 7.89623e-14 -5.02184e-13 2.9335e-13 0 0 -4.19461e-13 -7.94602e-14 -2.89982e-13 7.54855e-14 0 0 -1.84616e-13 -4.62405e-13 2.82714e-14 -1.44968e-13 0 0 -5.00464e-14 -6.40312e-13 1.46639e-13 -2.25609e-13 0 0 -8.08783e-14 -6.27106e-13 1.61452e-13 -3.10217e-13 0 0 -2.31415e-13 -5.05844e-13 1.21414e-13 -3.13653e-13 0 0 -5.6179e-13 -2.12417e-13 -1.2231e-14 -2.56804e-13 0 0 -1.01285e-12 1.52514e-13 -1.8464e-13 -1.71112e-13 0 0 -1.12323e-12 1.96493e-13 -2.45379e-13 -8.66194e-14 0 0 -1.06533e-12 1.34971e-13 -2.3192e-13 -4.9176e-14 0 0 -9.02928e-13 -1.9175e-14 -1.47192e-13 -6.62726e-14 0 0 -6.86811e-13 -2.10594e-13 -3.01093e-14 -1.24233e-13 0 0 -4.29582e-13 -3.60825e-13 -3.60054e-15 -1.59813e-13 0 0 -1.09068e-13 -5.20784e-13 5.22151e-14 -1.85278e-13 0 0 9.29523e-14 -6.17284e-13 9.34063e-14 -1.53214e-13 0 0 1.19266e-13 -5.92917e-13 2.66134e-14 -6.17221e-15 0 0 7.38351e-14 -4.8463e-13 -9.86493e-14 1.43348e-13 0 0 -4.65132e-14 -2.77906e-13 -1.37635e-13 1.76906e-13 0 0 -1.40057e-13 -2.47666e-14 -1.41588e-13 1.84417e-13 0 0 -1.32228e-13 4.31863e-14 -1.3369e-13 1.99614e-13 0 0 -6.2984e-14 2.20427e-14 -3.71068e-14 1.73281e-13 0 0 4.24234e-14 -2.03481e-14 4.24312e-14 1.77955e-13 0 0 1.49503e-13 -5.43699e-14 4.78509e-14 2.48108e-13 0 0 2.12607e-13 -6.31145e-14 1.22583e-14 3.26898e-13 0 0 2.21708e-13 -3.61449e-14 -3.83639e-14 3.66195e-13 0 0 2.0977e-13 -1.96839e-14 -2.92793e-14 3.92896e-13 0 0 1.73458e-13 2.21962e-14 -3.49466e-14 4.42952e-13 0 0 1.64537e-13 3.68767e-14 -5.81026e-15 4.17132e-13 0 0 1.91311e-13 -2.9914e-14 1.7846e-13 2.527e-13 0 0 2.06031e-13 -3.9436e-14 2.55793e-13 1.09257e-13 0 0 2.13775e-13 -6.38885e-15 2.21136e-13 7.50917e-14 0 0 2.23215e-13 3.44922e-14 1.63494e-13 9.55127e-14 0 0 1.98833e-13 9.04603e-14 1.45985e-13 8.36111e-14 0 0 1.38e-13 1.79786e-13 1.25682e-13 1.30632e-14 0 0 1.13323e-13 2.30547e-13 8.80688e-14 -1.86024e-15 0 0 1.29817e-13 1.83575e-13 8.7219e-14 2.42934e-14 0 0 1.23524e-13 1.21537e-13 1.16369e-13 6.21684e-15 0 0 1.0433e-13 9.42706e-14 1.48894e-13 -4.27865e-14 0 0 1.00321e-13 4.06206e-14 1.76487e-13 -7.20486e-14 0 0 1.05234e-13 -1.87067e-14 1.79457e-13 -1.27853e-13 0 0 1.14135e-13 -4.08624e-14 1.35573e-13 -1.22404e-13 0 0 9.68973e-14 -1.23582e-14 5.4613e-14 -5.81627e-14 0 0 7.42624e-14 2.96949e-14 -5.3406e-14 -7.89067e-15 0 0 7.48376e-14 2.44756e-14 -1.06408e-13 -4.43943e-14 0 0 7.46724e-14 3.9389e-15 -7.28285e-14 -1.5534e-13 0 0 5.04923e-14 2.16413e-14 -6.31357e-14 -1.16173e-13 0 0 1.54211e-14 2.86654e-14 -6.2612e-14 -1.07282e-13 0 0 1.6084e-16 1.54006e-14 -6.17319e-14 -1.45509e-13 0 0 -1.39552e-14 2.16353e-14 -8.37748e-14 -1.34262e-13 0 0 -3.30879e-14 2.15346e-14 -9.19175e-14 -1.59522e-13 0 0 -4.7397e-14 9.22707e-15 -7.51068e-14 -1.63737e-13 0 0 -5.1872e-14 -2.11723e-14 -5.52227e-14 -1.4622e-13 0 0 -6.69768e-14 -4.70618e-14 -4.80972e-14 -1.04034e-13 0 0 -7.92449e-14 -9.74163e-14 -9.05226e-15 -3.47751e-14 0 0 -6.66198e-14 -1.72099e-13 3.76106e-14 -2.25417e-14 0 0 -5.51711e-14 -2.07132e-13 4.11012e-14 -6.50516e-14 0 0 -6.40942e-14 -1.67618e-13 -3.76381e-14 -2.6245e-14 0 0 -3.87716e-14 -9.42178e-14 -2.47674e-13 5.01864e-14 0 0 3.0291e-14 -6.18529e-14 -3.02685e-13 -1.52104e-13 0 0 1.92169e-15 -2.8982e-14 -2.24617e-13 -4.16415e-13 0 0 -1.5576e-14 8.27875e-14 -1.69852e-13 -1.16147e-13 0 0 4.09388e-14 1.0328e-13 -5.9207e-14 3.59245e-13 0 0 9.01106e-14 1.11302e-13 8.47145e-14 3.23055e-13 0 0 1.07263e-13 1.11715e-13 2.19931e-13 1.7432e-13 0 0 1.12014e-13 1.03509e-13 3.02234e-13 8.39002e-14 0 0 1.0676e-13 1.61585e-13 2.53162e-13 1.22101e-13 0 0 1.2979e-13 1.4526e-13 3.28588e-13 7.61993e-14 0 0 1.28583e-13 1.92441e-13 2.68631e-13 7.90204e-14 0 0 5.95048e-14 3.7622e-13 3.25705e-14 2.34508e-13 0 0 5.2447e-14 4.04228e-13 -1.02896e-14 3.38384e-13 0 0 1.2484e-13 2.6651e-13 1.17003e-13 3.37868e-13 0 0 6.5976e-14 2.74672e-13 2.03167e-13 2.21919e-13 0 0 2.55429e-14 2.82321e-13 2.57354e-13 1.58161e-13 0 0 1.51717e-13 1.02425e-13 3.80486e-13 1.82097e-13 0 0 1.25126e-13 1.86322e-13 3.11251e-13 2.34348e-13 0 0 6.22555e-15 3.89161e-13 2.17141e-13 1.81143e-13 0 0 4.97719e-14 2.83798e-13 3.08799e-13 1.6896e-13 0 0 5.64319e-14 3.17633e-13 2.56309e-13 2.39625e-13 0 0 5.55295e-14 3.67514e-13 2.21282e-13 2.53277e-13 0 0 1.43019e-13 2.06774e-13 3.78594e-13 1.64836e-13 0 0 1.86927e-13 1.42333e-13 4.33498e-13 2.12651e-13 0 0 1.58747e-13 2.41815e-13 3.07367e-13 4.01464e-13 0 0 1.36264e-13 3.43702e-13 1.94798e-13 4.6748e-13 0 0 2.0871e-13 2.19611e-13 3.95244e-13 3.04688e-13 0 0 1.33892e-13 4.07022e-13 1.95852e-13 4.36313e-13 0 0 1.73009e-13 3.73346e-13 2.09191e-13 4.18657e-13 0 0 2.14276e-13 1.70419e-13 5.08526e-13 2.73227e-13 0 0 1.88156e-13 2.4571e-13 3.13649e-13 4.81372e-13 0 0 2.88117e-13 1.88144e-13 3.88307e-13 2.61058e-13 0 0 1.03057e-13 4.61523e-13 2.46397e-13 1.43025e-13 0 0 1.28658e-13 4.01627e-13 3.56723e-13 6.17602e-14 0 0 4.32142e-13 -2.81358e-14 7.06474e-13 4.22407e-14 0 0 2.70537e-13 2.01318e-13 4.46708e-13 2.86054e-13 0 0 4.19875e-14 4.47744e-13 3.436e-13 2.56043e-13 0 0 -4.52863e-14 5.68938e-13 2.60684e-13 2.6474e-13 0 0 6.30226e-14 4.67029e-13 2.68357e-13 1.63427e-13 0 0 2.24613e-13 3.65229e-13 2.34266e-13 3.6643e-14 0 0 2.0723e-13 4.17128e-13 1.60923e-13 9.25516e-14 0 0 3.01897e-13 1.27323e-13 5.01489e-13 -1.9419e-14 0 0 5.43048e-14 3.37211e-13 4.27118e-13 2.28452e-14 0 0 -2.09354e-13 6.05942e-13 3.38122e-13 3.9913e-14 0 0 8.76054e-14 2.19763e-13 5.9045e-13 -1.59823e-13 0 0 2.89504e-13 1.71191e-13 3.22993e-13 5.01203e-15 0 0 2.99575e-13 4.19309e-13 -1.09852e-13 2.67534e-13 0 0 3.84962e-13 2.81787e-13 -1.09152e-15 1.62347e-13 0 0 2.50597e-13 3.59731e-13 -8.09477e-14 2.33542e-13 0 0 1.90583e-13 4.76647e-13 -3.17181e-13 4.95135e-13 0 0 4.57674e-13 2.92015e-14 6.49778e-14 3.50489e-13 0 0 4.27056e-13 -2.46076e-14 4.07108e-14 3.81203e-13 0 0 2.68395e-13 2.60787e-13 -4.18522e-13 6.71882e-13 0 0 3.22109e-13 2.32603e-13 -4.9648e-13 7.38615e-13 0
				</DataArray>
				<DataArray Name="VitesseY" type="Float32" format="ascii">