<?xml version="1.0"?>
<VTKFile type="PolyData">
	<PolyData>
		<Piece NumberOfPoints="1206" NumberOfPolys="1000">
			<Points>
				<DataArray type="Float32" NumberOfComponents="3" format="ascii">
 0 0 0 0.02 0 0 0.04 0 0 0.06 0 0 0.08 0 0 0.1 0 0 0 0.005 0 0.02 0.005 0 0.04 0.005 0 0.06 0.005 0 0.08 0.005 0 0.1 0.005 0 0 0.01 0 0.02 0.01 0 0.04 0.01 0 0.06 0.01 0 0.08 0.01 0 0.1 0.01 0 0 0.015 0 0.02 0.015 0 0.04 0.015 0 0.06 0.015 0 0.08 0.015 0 0.1 0.015 0 0 0.02 0 0.02 0.02 0 0.04 0.02 0 0.06 0.02 0 0.08 0.02 0 0.1 0.02 0 0 0.025 0 0.02 0.025 0 0.04 0.025 0 0.06 0.025 0 0.08 0.025 0 0.1 0.025 0 0 0.03 0 0.02 0.03 0 0.04 0.03 0 0.06 0.03 0 0.08 0.03 0 0.1 0.03 0 0 0.035 0 0.02 0.035 0 0.04 0.035 0 0.06 0.035 0 0.08 0.035 0 0.1 0.035 0 0 0.04 0 0.02 0.04 0 0.04 0.04 0 0.06 0.04 0 0.08 0.04 0 0.1 0.04 0 0 0.045 0 0.02 0.045 0 0.04 0.045 0 0.06 0.045 0 0.08 0.045 0 0.1 0.045 0 0 0.05 0 0.02 0.05 0 0.04 0.05 0 0.06 0.05 0 0.08 0.05 0 0.1 0.05 0 0 0.055 0 0.02 0.055 0 0.04 0.055 0 0.06 0.055 0 0.08 0.055 0 0.1 0.055 0 0 0.06 0 0.02 0.06 0 0.04 0.06 0 0.06 0.06 0 0.08 0.06 0 0.1 0.06 0 0 0.065 0 0.02 0.065 0 0.04 0.065 0 0.06 0.065 0 0.08 0.065 0 0.1 0.065 0 0 0.07 0 0.02 0.07 0 0.04 0.07 0 0.06 0.07 0 0.08 0.07 0 0.1 0.07 0 0 0.075 0 0.02 0.075 0 0.04 0.075 0 0.06 0.075 0 0.08 0.075 0 0.1 0.075 0 0 0.08 0 0.02 0.08 0 0.04 0.08 0 0.06 0.08 0 0.08 0.08 0 0.1 0.08 0 0 0.085 0 0.02 0.085 0 0.04 0.085 0 0.06 0.085 0 0.08 0.085 0 0.1 0.085 0 0 0.09 0 0.02 0.09 0 0.04 0.09 0 0.06 0.09 0 0.08 0.09 0 0.1 0.09 0 0 0.095 0 0.02 0.095 0 0.04 0.095 0 0.06 0.095 0 0.08 0.095 0 0.1 0.095 0 0 0.1 0 0.02 0.1 0 0.04 0.1 0 0.06 0.1 0 0.08 0.1 0 0.1 0.1 0 0 0.105 0 0.02 0.105 0 0.04 0.105 0 0.06 0.105 0 0.08 0.105 0 0.1 0.105 0 0 0.11 0 0.02 0.11 0 0.04 0.11 0 0.06 0.11 0 0.08 0.11 0 0.1 0.11 0 0 0.115 0 0.02 0.115 0 0.04 0.115 0 0.06 0.115 0 0.08 0.115 0 0.1 0.115 0 0 0.12 0 0.02 0.12 0 0.04 0.12 0 0.06 0.12 0 0.08 0.12 0 0.1 0.12 0 0 0.125 0 0.02 0.125 0 0.04 0.125 0 0.06 0.125 0 0.08 0.125 0 0.1 0.125 0 0 0.13 0 0.02 0.13 0 0.04 0.13 0 0.06 0.13 0 0.08 0.13 0 0.1 0.13 0 0 0.135 0 0.02 0.135 0 0.04 0.135 0 0.06 0.135 0 0.08 0.135 0 0.1 0.135 0 0 0.14 0 0.02 0.14 0 0.04 0.14 0 0.06 0.14 0 0.08 0.14 0 0.1 0.14 0 0 0.145 0 0.02 0.145 0 0.04 0.145 0 0.06 0.145 0 0.08 0.145 0 0.1 0.145 0 0 0.15 0 0.02 0.15 0 0.04 0.15 0 0.06 0.15 0 0.08 0.15 0 0.1 0.15 0 0 0.155 0 0.02 0.155 0 0.04 0.155 0 0.06 0.155 0 0.08 0.155 0 0.1 0.155 0 0 0.16 0 0.02 0.16 0 0.04 0.16 0 0.06 0.16 0 0.08 0.16 0 0.1 0.16 0 0 0.165 0 0.02 0.165 0 0.04 0.165 0 0.06 0.165 0 0.08 0.165 0 0.1 0.165 0 0 0.17 0 0.02 0.17 0 0.04 0.17 0 0.06 0.17 0 0.08 0.17 0 0.1 0.17 0 0 0.175 0 0.02 0.175 0 0.04 0.175 0 0.06 0.175 0 0.08 0.175 0 0.1 0.175 0 0 0.18 0 0.02 0.18 0 0.04 0.18 0 0.06 0.18 0 0.08 0.18 0 0.1 0.18 0 0 0.185 0 0.02 0.185 0 0.04 0.185 0 0.06 0.185 0 0.08 0.185 0 0.1 0.185 0 0 0.19 0 0.02 0.19 0 0.04 0.19 0 0.06 0.19 0 0.08 0.19 0 0.1 0.19 0 0 0.195 0 0.02 0.195 0 0.04 0.195 0 0.06 0.195 0 0.08 0.195 0 0.1 0.195 0 0 0.2 0 0.02 0.2 0 0.04 0.2 0 0.06 0.2 0 0.08 0.2 0 0.1 0.2 0 0 0.205 0 0.02 0.205 0 0.04 0.205 0 0.06 0.205 0 0.08 0.205 0 0.1 0.205 0 0 0.21 0 0.02 0.21 0 0.04 0.21 0 0.06 0.21 0 0.08 0.21 0 0.1 0.21 0 0 0.215 0 0.02 0.215 0 0.04 0.215 0 0.06 0.215 0 0.08 0.215 0 0.1 0.215 0 0 0.22 0 0.02 0.22 0 0.04 0.22 0 0.06 0.22 0 0.08 0.22 0 0.1 0.22 0 0 0.225 0 0.02 0.225 0 0.04 0.225 0 0.06 0.225 0 0.08 0.225 0 0.1 0.225 0 0 0.23 0 0.02 0.23 0 0.04 0.23 0 0.06 0.23 0 0.08 0.23 0 0.1 0.23 0 0 0.235 0 0.02 0.235 0 0.04 0.235 0 0.06 0.235 0 0.08 0.235 0 0.1 0.235 0 0 0.24 0 0.02 0.24 0 0.04 0.24 0 0.06 0.24 0 0.08 0.24 0 0.1 0.24 0 0 0.245 0 0.02 0.245 0 0.04 0.245 0 0.06 0.245 0 0.08 0.245 0 0.1 0.245 0 0 0.25 0 0.02 0.25 0 0.04 0.25 0 0.06 0.25 0 0.08 0.25 0 0.1 0.25 0 0 0.255 0 0.02 0.255 0 0.04 0.255 0 0.06 0.255 0 0.08 0.255 0 0.1 0.255 0 0 0.26 0 0.02 0.26 0 0.04 0.26 0 0.06 0.26 0 0.08 0.26 0 0.1 0.26 0 0 0.265 0 0.02 0.265 0 0.04 0.265 0 0.06 0.265 0 0.08 0.265 0 0.1 0.265 0 0 0.27 0 0.02 0.27 0 0.04 0.27 0 0.06 0.27 0 0.08 0.27 0 0.1 0.27 0 0 0.275 0 0.02 0.275 0 0.04 0.275 0 0.06 0.275 0 0.08 0.275 0 0.1 0.275 0 0 0.28 0 0.02 0.28 0 0.04 0.28 0 0.06 0.28 0 0.08 0.28 0 0.1 0.28 0 0 0.285 0 0.02 0.285 0 0.04 0.285 0 0.06 0.285 0 0.08 0.285 0 0.1 0.285 0 0 0.29 0 0.02 0.29 0 0.04 0.29 0 0.06 0.29 0 0.08 0.29 0 0.1 0.29 0 0 0.295 0 0.02 0.295 0 0.04 0.295 0 0.06 0.295 0 0.08 0.295 0 0.1 0.295 0 0 0.3 0 0.02 0.3 0 0.04 0.3 0 0.06 0.3 0 0.08 0.3 0 0.1 0.3 0 0 0.305 0 0.02 0.305 0 0.04 0.305 0 0.06 0.305 0 0.08 0.305 0 0.1 0.305 0 0 0.31 0 0.02 0.31 0 0.04 0.31 0 0.06 0.31 0 0.08 0.31 0 0.1 0.31 0 0 0.315 0 0.02 0.315 0 0.04 0.315 0 0.06 0.315 0 0.08 0.315 0 0.1 0.315 0 0 0.32 0 0.02 0.32 0 0.04 0.32 0 0.06 0.32 0 0.08 0.32 0 0.1 0.32 0 0 0.325 0 0.02 0.325 0 0.04 0.325 0 0.06 0.325 0 0.08 0.325 0 0.1 0.325 0 0 0.33 0 0.02 0.33 0 0.04 0.33 0 0.06 0.33 0 0.08 0.33 0 0.1 0.33 0 0 0.335 0 0.02 0.335 0 0.04 0.335 0 0.06 0.335 0 0.08 0.335 0 0.1 0.335 0 0 0.34 0 0.02 0.34 0 0.04 0.34 0 0.06 0.34 0 0.08 0.34 0 0.1 0.34 0 0 0.345 0 0.02 0.345 0 0.04 0.345 0 0.06 0.345 0 0.08 0.345 0 0.1 0.345 0 0 0.35 0 0.02 0.35 0 0.04 0.35 0 0.06 0.35 0 0.08 0.35 0 0.1 0.35 0 0 0.355 0 0.02 0.355 0 0.04 0.355 0 0.06 0.355 0 0.08 0.355 0 0.1 0.355 0 0 0.36 0 0.02 0.36 0 0.04 0.36 0 0.06 0.36 0 0.08 0.36 0 0.1 0.36 0 0 0.365 0 0.02 0.365 0 0.04 0.365 0 0.06 0.365 0 0.08 0.365 0 0.1 0.365 0 0 0.37 0 0.02 0.37 0 0.04 0.37 0 0.06 0.37 0 0.08 0.37 0 0.1 0.37 0 0 0.375 0 0.02 0.375 0 0.04 0.375 0 0.06 0.375 0 0.08 0.375 0 0.1 0.375 0 0 0.38 0 0.02 0.38 0 0.04 0.38 0 0.06 0.38 0 0.08 0.38 0 0.1 0.38 0 0 0.385 0 0.02 0.385 0 0.04 0.385 0 0.06 0.385 0 0.08 0.385 0 0.1 0.385 0 0 0.39 0 0.02 0.39 0 0.04 0.39 0 0.06 0.39 0 0.08 0.39 0 0.1 0.39 0 0 0.395 0 0.02 0.395 0 0.04 0.395 0 0.06 0.395 0 0.08 0.395 0 0.1 0.395 0 0 0.4 0 0.02 0.4 0 0.04 0.4 0 0.06 0.4 0 0.08 0.4 0 0.1 0.4 0 0 0.405 0 0.02 0.405 0 0.04 0.405 0 0.06 0.405 0 0.08 0.405 0 0.1 0.405 0 0 0.41 0 0.02 0.41 0 0.04 0.41 0 0.06 0.41 0 0.08 0.41 0 0.1 0.41 0 0 0.415 0 0.02 0.415 0 0.04 0.415 0 0.06 0.415 0 0.08 0.415 0 0.1 0.415 0 0 0.42 0 0.02 0.42 0 0.04 0.42 0 0.06 0.42 0 0.08 0.42 0 0.1 0.42 0 0 0.425 0 0.02 0.425 0 0.04 0.425 0 0.06 0.425 0 0.08 0.425 0 0.1 0.425 0 0 0.43 0 0.02 0.43 0 0.04 0.43 0 0.06 0.43 0 0.08 0.43 0 0.1 0.43 0 0 0.435 0 0.02 0.435 0 0.04 0.435 0 0.06 0.435 0 0.08 0.435 0 0.1 0.435 0 0 0.44 0 0.02 0.44 0 0.04 0.44 0 0.06 0.44 0 0.08 0.44 0 0.1 0.44 0 0 0.445 0 0.02 0.445 0 0.04 0.445 0 0.06 0.445 0 0.08 0.445 0 0.1 0.445 0 0 0.45 0 0.02 0.45 0 0.04 0.45 0 0.06 0.45 0 0.08 0.45 0 0.1 0.45 0 0 0.455 0 0.02 0.455 0 0.04 0.455 0 0.06 0.455 0 0.08 0.455 0 0.1 0.455 0 0 0.46 0 0.02 0.46 0 0.04 0.46 0 0.06 0.46 0 0.08 0.46 0 0.1 0.46 0 0 0.465 0 0.02 0.465 0 0.04 0.465 0 0.06 0.465 0 0.08 0.465 0 0.1 0.465 0 0 0.47 0 0.02 0.47 0 0.04 0.47 0 0.06 0.47 0 0.08 0.47 0 0.1 0.47 0 0 0.475 0 0.02 0.475 0 0.04 0.475 0 0.06 0.475 0 0.08 0.475 0 0.1 0.475 0 0 0.48 0 0.02 0.48 0 0.04 0.48 0 0.06 0.48 0 0.08 0.48 0 0.1 0.48 0 0 0.485 0 0.02 0.485 0 0.04 0.485 0 0.06 0.485 0 0.08 0.485 0 0.1 0.485 0 0 0.49 0 0.02 0.49 0 0.04 0.49 0 0.06 0.49 0 0.08 0.49 0 0.1 0.49 0 0 0.495 0 0.02 0.495 0 0.04 0.495 0 0.06 0.495 0 0.08 0.495 0 0.1 0.495 0 0 0.5 0 0.02 0.5 0 0.04 0.5 0 0.06 0.5 0 0.08 0.5 0 0.1 0.5 0 0 0.505 0 0.02 0.505 0 0.04 0.505 0 0.06 0.505 0 0.08 0.505 0 0.1 0.505 0 0 0.51 0 0.02 0.51 0 0.04 0.51 0 0.06 0.51 0 0.08 0.51 0 0.1 0.51 0 0 0.515 0 0.02 0.515 0 0.04 0.515 0 0.06 0.515 0 0.08 0.515 0 0.1 0.515 0 0 0.52 0 0.02 0.52 0 0.04 0.52 0 0.06 0.52 0 0.08 0.52 0 0.1 0.52 0 0 0.525 0 0.02 0.525 0 0.04 0.525 0 0.06 0.525 0 0.08 0.525 0 0.1 0.525 0 0 0.53 0 0.02 0.53 0 0.04 0.53 0 0.06 0.53 0 0.08 0.53 0 0.1 0.53 0 0 0.535 0 0.02 0.535 0 0.04 0.535 0 0.06 0.535 0 0.08 0.535 0 0.1 0.535 0 0 0.54 0 0.02 0.54 0 0.04 0.54 0 0.06 0.54 0 0.08 0.54 0 0.1 0.54 0 0 0.545 0 0.02 0.545 0 0.04 0.545 0 0.06 0.545 0 0.08 0.545 0 0.1 0.545 0 0 0.55 0 0.02 0.55 0 0.04 0.55 0 0.06 0.55 0 0.08 0.55 0 0.1 0.55 0 0 0.555 0 0.02 0.555 0 0.04 0.555 0 0.06 0.555 0 0.08 0.555 0 0.1 0.555 0 0 0.56 0 0.02 0.56 0 0.04 0.56 0 0.06 0.56 0 0.08 0.56 0 0.1 0.56 0 0 0.565 0 0.02 0.565 0 0.04 0.565 0 0.06 0.565 0 0.08 0.565 0 0.1 0.565 0 0 0.57 0 0.02 0.57 0 0.04 0.57 0 0.06 0.57 0 0.08 0.57 0 0.1 0.57 0 0 0.575 0 0.02 0.575 0 0.04 0.575 0 0.06 0.575 0 0.08 0.575 0 0.1 0.575 0 0 0.58 0 0.02 0.58 0 0.04 0.58 0 0.06 0.58 0 0.08 0.58 0 0.1 0.58 0 0 0.585 0 0.02 0.585 0 0.04 0.585 0 0.06 0.585 0 0.08 0.585 0 0.1 0.585 0 0 0.59 0 0.02 0.59 0 0.04 0.59 0 0.06 0.59 0 0.08 0.59 0 0.1 0.59 0 0 0.595 0 0.02 0.595 0 0.04 0.595 0 0.06 0.595 0 0.08 0.595 0 0.1 0.595 0 0 0.6 0 0.02 0.6 0 0.04 0.6 0 0.06 0.6 0 0.08 0.6 0 0.1 0.6 0 0 0.605 0 0.02 0.605 0 0.04 0.605 0 0.06 0.605 0 0.08 0.605 0 0.1 0.605 0 0 0.61 0 0.02 0.61 0 0.04 0.61 0 0.06 0.61 0 0.08 0.61 0 0.1 0.61 0 0 0.615 0 0.02 0.615 0 0.04 0.615 0 0.06 0.615 0 0.08 0.615 0 0.1 0.615 0 0 0.62 0 0.02 0.62 0 0.04 0.62 0 0.06 0.62 0 0.08 0.62 0 0.1 0.62 0 0 0.625 0 0.02 0.625 0 0.04 0.625 0 0.06 0.625 0 0.08 0.625 0 0.1 0.625 0 0 0.63 0 0.02 0.63 0 0.04 0.63 0 0.06 0.63 0 0.08 0.63 0 0.1 0.63 0 0 0.635 0 0.02 0.635 0 0.04 0.635 0 0.06 0.635 0 0.08 0.635 0 0.1 0.635 0 0 0.64 0 0.02 0.64 0 0.04 0.64 0 0.06 0.64 0 0.08 0.64 0 0.1 0.64 0 0 0.645 0 0.02 0.645 0 0.04 0.645 0 0.06 0.645 0 0.08 0.645 0 0.1 0.645 0 0 0.65 0 0.02 0.65 0 0.04 0.65 0 0.06 0.65 0 0.08 0.65 0 0.1 0.65 0 0 0.655 0 0.02 0.655 0 0.04 0.655 0 0.06 0.655 0 0.08 0.655 0 0.1 0.655 0 0 0.66 0 0.02 0.66 0 0.04 0.66 0 0.06 0.66 0 0.08 0.66 0 0.1 0.66 0 0 0.665 0 0.02 0.665 0 0.04 0.665 0 0.06 0.665 0 0.08 0.665 0 0.1 0.665 0 0 0.67 0 0.02 0.67 0 0.04 0.67 0 0.06 0.67 0 0.08 0.67 0 0.1 0.67 0 0 0.675 0 0.02 0.675 0 0.04 0.675 0 0.06 0.675 0 0.08 0.675 0 0.1 0.675 0 0 0.68 0 0.02 0.68 0 0.04 0.68 0 0.06 0.68 0 0.08 0.68 0 0.1 0.68 0 0 0.685 0 0.02 0.685 0 0.04 0.685 0 0.06 0.685 0 0.08 0.685 0 0.1 0.685 0 0 0.69 0 0.02 0.69 0 0.04 0.69 0 0.06 0.69 0 0.08 0.69 0 0.1 
[...]
			<PointData Scalars="VitesseX">
				<DataArray Name="VitesseX" type="Float32" format="ascii">
 0 1.37229e-15 -1.68374e-14 1.62374e-14 -2.93834e-14 0 0 2.93539e-15 -1.50808e-14 1.09718e-14 -2.19074e-14 0 0 2.3404e-16 4.35637e-16 -1.29237e-14 4.77006e-15 0 0 2.40937e-14 -2.68102e-14 1.32913e-14 1.04117e-15 0 0 2.28681e-14 -1.50583e-14 1.60053e-14 3.26024e-15 0 0 -1.54204e-14 4.70725e-14 -1.87108e-14 2.16865e-14 0 0 -1.11018e-14 2.65963e-14 3.11691e-14 -9.64751e-15 0 0 1.75231e-14 -1.81711e-14 8.39976e-14 -3.77636e-14 0 0 1.01808e-14 7.08586e-15 6.32525e-14 -2.53543e-14 0 0 1.04613e-14 3.53186e-14 2.81277e-14 -2.99305e-15 0 0 5.63101e-14 -8.01407e-15 4.52247e-14 -9.61798e-15 0 0 3.15983e-14 3.69362e-14 -2.59352e-14 3.90184e-14 0 0 7.21669e-14 -3.97226e-14 3.46582e-14 -2.40224e-15 0 0 6.70616e-14 -3.06131e-14 1.84588e-14 -2.06824e-14 0 0 3.62654e-14 2.24071e-14 -4.43566e-14 1.18454e-14 0 0 9.39286e-14 -9.31617e-14 8.9679e-14 -5.79118e-14 0 0 1.697e-14 2.7545e-14 -1.35675e-14 1.57489e-14 0 0 1.62701e-14 4.23644e-14 -1.64798e-14 2.13808e-14 0 0 4.69731e-14 -9.2297e-15 5.78145e-14 -3.0127e-14 0 0 2.94116e-14 2.23189e-14 2.00154e-14 -1.6293e-14 0 0 8.22099e-14 -6.95501e-14 9.54959e-14 -7.90088e-14 0 0 8.38316e-14 -1.00445e-13 1.13011e-13 -8.90602e-14 0 0 -8.3647e-15 2.79711e-14 -2.98021e-14 -2.75679e-15 0 0 -8.70513e-14 1.39762e-13 -1.41313e-13 6.0021e-14 0 0 2.36998e-14 -2.69946e-14 2.32288e-15 2.26579e-15 0 0 1.34778e-13 -2.00332e-13 1.65064e-13 -5.89437e-14 0 0 1.74197e-14 -3.71399e-14 2.35453e-14 6.19662e-14 0 0 -3.24199e-14 3.90415e-14 -5.67351e-14 1.59399e-13 0 0 7.52165e-15 -1.97446e-14 1.48813e-14 1.39749e-13 0 0 4.03665e-14 -6.15494e-14 7.03914e-14 9.24956e-14 0 0 2.16379e-15 9.15275e-15 9.68223e-15 9.06547e-14 0 0 3.73498e-15 2.53883e-14 8.73897e-15 2.77828e-14 0 0 4.03122e-14 -2.56536e-14 5.54646e-14 -5.71619e-14 0 0 -5.93194e-14 1.10935e-13 -8.48704e-14 -1.57036e-14 0 0 1.4848e-14 -1.59099e-14 3.57359e-14 -1.13478e-13 0 0 1.06564e-13 -1.2653e-13 1.13935e-13 -1.41111e-13 0 0 5.40443e-14 -1.56132e-14 -2.68947e-14 -1.53119e-14 0 0 -3.17278e-14 1.40506e-13 -2.02594e-13 1.36291e-13 0 0 6.68863e-14 -4.40052e-15 -7.18737e-14 8.35624e-14 0 0 8.81974e-14 -7.84594e-14 2.01089e-14 2.94945e-14 0 0 -4.5472e-15 -1.26064e-14 4.86319e-14 -3.35283e-14 0 0 -2.95965e-14 -5.75273e-14 1.89571e-13 -1.90065e-13 0 0 -1.33429e-13 1.26223e-13 1.2431e-15 -1.08186e-13 0 0 -5.5073e-14 9.66618e-14 -5.11395e-14 -4.94618e-14 0 0 1.03741e-13 -1.00144e-13 8.34068e-14 -7.16976e-14 0 0 5.63019e-14 5.21515e-14 -1.27685e-13 1.23868e-13 0 0 1.56329e-13 -9.49384e-15 -1.49688e-13 1.63004e-13 0 0 1.30261e-13 2.49412e-14 -1.63383e-13 1.2113e-13 0 0 -1.77815e-17 1.90507e-13 -2.42347e-13 8.80762e-14 0 0 1.10685e-13 3.54828e-14 -9.02386e-14 -2.61542e-14 0 0 2.44899e-13 -1.35401e-13 2.69462e-14 -7.6169e-14 0 0 2.92966e-13 -2.08284e-13 1.00638e-13 -1.11533e-13 0 0 -1.16228e-13 3.96818e-13 -5.10727e-13 3.12815e-13 0 0 -1.10716e-14 1.46967e-13 -2.46741e-13 1.61646e-13 0 0 3.42991e-13 -3.52471e-13 2.09935e-13 -1.80516e-13 0 0 1.48009e-13 3.51585e-14 -2.32527e-13 5.14521e-14 0 0 2.05007e-13 -1.34234e-13 -1.15248e-14 -9.29554e-14 0 0 1.52681e-13 -4.51748e-14 -1.40886e-13 2.57034e-14 0 0 1.23189e-13 6.37315e-14 -3.01186e-13 9.51162e-14 0 0 2.73995e-13 -1.75116e-13 -7.04459e-14 -1.08071e-13 0 0 1.74903e-13 -1.14551e-13 -6.64096e-14 -1.446e-13 0 0 4.66142e-14 -3.42334e-14 -6.68471e-14 -1.38456e-13 0 0 -1.3792e-14 2.32038e-15 -1.01897e-13 -1.9252e-14 0 0 7.63434e-14 -1.62169e-13 7.87417e-14 -5.89978e-14 0 0 5.64581e-14 -1.05793e-13 3.70549e-14 -1.09119e-14 0 0 -4.72969e-14 8.5322e-14 -9.86284e-14 5.25944e-14 0 0 -1.56753e-14 3.12403e-14 1.31781e-14 -3.5759e-14 0 0 -2.23567e-14 7.2117e-14 -5.40378e-14 1.92801e-14 0 0 1.65073e-13 -8.49125e-14 2.49893e-14 -5.57257e-14 0 0 2.47189e-13 -8.14688e-14 -3.07506e-15 -1.27737e-13 0 0 1.74549e-14 3.21497e-13 -3.72851e-13 3.02363e-14 0 0 1.69219e-13 1.0606e-13 -1.67082e-13 -1.68918e-13 0 0 3.40446e-13 -1.1024e-13 -1.36824e-14 -2.53809e-13 0 0 3.75865e-13 -1.34905e-13 -1.69694e-14 -1.48639e-13 0 0 1.77728e-13 1.06747e-13 -1.67609e-13 -4.44944e-15 0 0 1.31966e-13 1.85021e-13 -1.71827e-13 8.72453e-14 0 0 5.69712e-13 -2.52397e-13 1.92218e-13 -7.09456e-14 0 0 4.60064e-13 1.27519e-13 -1.35779e-13 1.38698e-14 0 0 3.59388e-13 2.09103e-13 3.87976e-14 -2.38991e-13 0 0 2.04372e-13 4.68961e-13 -2.02779e-13 -8.67569e-15 0 0 3.26588e-13 2.00926e-13 -1.85657e-14 1.59475e-13 0 0 5.05811e-13 -3.3157e-13 6.07471e-13 5.61061e-14 0 0 -1.30665e-13 6.82867e-13 -3.9016e-13 7.90476e-13 0 0 3.02752e-13 5.33224e-14 1.57472e-13 4.2132e-13 0 0 9.69262e-13 -1.09728e-12 1.28623e-12 -3.29159e-13 0 0 -4.9387e-14 1.88455e-13 8.49514e-14 4.4855e-13 0 0 -8.90613e-13 8.10459e-13 -2.1808e-13 6.47468e-13 0 0 -2.48704e-13 -1.04338e-13 6.19153e-13 2.41173e-13 0 0 4.56759e-13 -3.71245e-13 1.69554e-13 8.48053e-13 0 0 5.73222e-13 -5.55571e-13 4.73779e-13 4.40146e-13 0 0 8.43879e-14 7.52898e-14 4.05871e-13 -4.96607e-14 0 0 -5.963e-13 1.03251e-12 -2.88768e-13 2.72354e-13 0 0 -5.81168e-13 7.79598e-13 -2.84821e-14 1.03713e-13 0 0 -2.00206e-13 1.49273e-13 4.42305e-13 -1.42033e-14 0 0 4.05188e-13 -4.55366e-13 4.02564e-13 3.16006e-13 0 0 4.15779e-13 -7.08997e-13 6.42306e-13 1.61445e-13 0 0 -2.18317e-14 -3.66129e-13 6.9536e-13 -2.45945e-13 0 0 -7.32832e-13 5.56232e-13 1.21093e-13 -7.41289e-15 0 0 -7.61214e-13 9.76e-13 -8.71512e-13 5.07948e-13 0 0 -1.94997e-13 5.59362e-13 -9.1274e-13 8.39902e-13 0 0 8.73741e-13 -5.99004e-13 -6.03651e-13 9.73054e-13 0 0 1.11633e-12 -1.08947e-12 -3.48827e-13 9.83735e-13 0 0 7.51018e-13 -8.60518e-13 -2.91701e-13 8.13622e-13 0 0 -7.16033e-14 -2.02633e-13 -2.28704e-13 4.42428e-13 0 0 -5.05655e-13 3.48957e-13 -1.88464e-13 2.24989e-13 0 0 -5.14288e-13 3.93031e-13 -1.40868e-13 8.47455e-14 0 0 -3.63195e-13 3.35218e-13 -8.30182e-14 -1.2669e-13 0 0 -1.17526e-13 2.46024e-13 5.93719e-14 -4.2412e-13 0 0 2.18322e-15 1.86251e-13 1.00355e-13 -5.35306e-13 0 0 1.85744e-14 1.06536e-13 7.57503e-14 -5.77272e-13 0 0 1.70311e-14 -4.38637e-15 7.50252e-14 -5.6224e-13 0 0 2.24476e-15 -6.28092e-14 1.91013e-14 -4.42035e-13 0 0 -3.43334e-14 -1.50509e-13 2.79913e-15 -3.60136e-13 0 0 -6.05174e-14 -2.24174e-13 -4.43105e-14 -2.74919e-13 0 0 -6.53945e-14 -2.54966e-13 -1.32576e-13 -1.52805e-13 0 0 -5.80663e-14 -2.73363e-13 -1.41797e-13 -1.24091e-13 0 0 -1.05149e-13 -1.89589e-13 -2.41144e-13 -8.98425e-15 0 0 -9.55474e-14 -1.00872e-13 -2.81469e-13 -1.58099e-14 0 0 -1.75877e-14 -1.71825e-13 -1.00319e-13 -2.14244e-13 0 0 -6.72394e-15 -1.87444e-13 1.46162e-13 -2.73324e-13 0 0 -4.37185e-14 -6.70168e-14 9.21879e-14 -1.69874e-13 0 0 -2.14553e-14 7.10439e-14 -4.84396e-14 -4.09543e-14 0 0 1.65395e-13 -6.35806e-14 3.37927e-14 -7.68755e-14 0 0 1.11641e-13 1.19319e-13 -1.6215e-13 5.28394e-14 0 0 1.51648e-13 8.30435e-14 -9.67005e-14 -2.32989e-14 0 0 1.37111e-13 6.395e-14 -1.18594e-14 -7.36222e-14 0 0 9.82765e-14 1.16039e-13 -4.93294e-14 2.06455e-17 0 0 2.84195e-13 -1.55843e-13 1.64566e-13 -8.9904e-14 0 0 1.65019e-13 6.60314e-14 -1.34139e-13 1.20242e-13 0 0 2.27895e-13 -3.2068e-14 -6.67782e-14 1.16622e-13 0 0 2.0508e-13 -2.33398e-14 -1.07477e-13 1.7146e-13 0 0 1.29473e-13 6.27761e-14 -2.27895e-13 1.81424e-13 0 0 3.499e-13 -3.47073e-13 1.87644e-13 -2.02467e-13 0 0 1.20902e-13 -1.50283e-14 -1.99853e-13 2.1787e-14 0 0 1.05492e-13 -7.95657e-14 -1.66703e-13 7.10709e-14 0 0 9.6722e-14 -1.5673e-13 -6.89352e-14 4.46436e-14 0 0 9.87013e-15 -6.7216e-14 -1.2459e-13 9.46928e-14 0 0 2.3228e-13 -4.41429e-13 2.8186e-13 -1.4934e-13 0 0 -5.69277e-14 1.39699e-14 -1.42263e-13 1.09345e-13 0 0 -1.14501e-13 7.59322e-14 -9.37402e-14 3.90585e-14 0 0 2.1035e-15 -9.72603e-14 1.48709e-13 -1.12119e-13 0 0 -2.58571e-13 3.95493e-13 -3.91746e-13 2.91834e-13 0 0 1.19664e-13 -1.29571e-13 3.19366e-14 1.82684e-13 0 0 2.40261e-13 -3.0389e-13 2.16866e-13 -3.28557e-15 0 0 -1.75325e-13 2.76356e-13 -2.11198e-13 1.13248e-13 0 0 1.03101e-13 -2.64782e-13 5.18054e-13 -3.07852e-13 0 0 -1.20304e-13 1.23652e-13 2.30792e-13 -1.11e-13 0 0 -4.89329e-14 2.16948e-13 9.35538e-14 4.51013e-14 0 0 2.23986e-13 -7.94834e-14 4.33139e-13 -1.28682e-13 0 0 -1.46214e-14 2.58592e-13 1.75358e-13 -3.72158e-14 0 0 3.55124e-13 -3.9761e-13 7.82026e-13 -4.10654e-13 0 0 -9.00364e-15 1.71383e-13 1.64938e-13 -1.68948e-13 0 0 -1.96572e-14 2.0621e-13 9.19977e-15 -2.88554e-13 0 0 2.19846e-13 -1.29413e-13 3.61676e-14 -6.47599e-14 0 0 1.37996e-13 -1.1596e-13 -5.1907e-14 2.15996e-13 0 0 -7.98208e-14 -5.22474e-14 6.54594e-14 5.39088e-14 0 0 -3.66408e-13 2.93814e-13 -1.66634e-13 4.79404e-14 0 0 7.96526e-14 -3.07306e-13 2.75539e-13 -2.38736e-13 0 0 2.0913e-13 -4.49086e-13 1.57247e-13 -9.9751e-14 0 0 1.36514e-13 -4.24768e-13 1.08175e-13 -1.59754e-13 0 0 -2.27946e-13 -1.71206e-14 -1.92975e-13 -5.00754e-14 0 0 -4.3486e-13 1.18463e-14 -9.85625e-14 -8.25891e-14 0 0 -2.82612e-13 -2.70252e-13 9.47831e-14 -1.91468e-13 0 0 -3.96245e-13 1.0868e-14 -3.44627e-13 1.98252e-13 0 0 -1.04568e-13 -4.2841e-13 -3.23715e-15 2.87091e-13 0 0 1.80056e-13 -8.71675e-13 3.96761e-13 1.93383e-13 0 0 2.74015e-14 -6.00141e-13 1.42355e-13 3.16171e-13 0 0 -1.29805e-13 -2.79966e-13 -1.61357e-13 4.26683e-13 0 0 -4.86577e-13 2.46659e-13 -6.59747e-13 5.67404e-13 0 0 -3.22247e-13 -7.28137e-15 -5.92825e-13 5.39658e-13 0 0 8.24791e-14 -5.80721e-13 -2.92945e-13 4.51213e-13 0 0 -6.496e-14 -3.52184e-13 -5.65667e-13 5.35938e-13 0 0 1.50666e-13 -7.23263e-13 -1.24423e-13 1.44216e-13 0 0 -1.22408e-13 -3.74769e-13 -2.56686e-13 -3.72791e-15 0 0 -4.72364e-13 -3.85458e-14 -3.2267e-13 -1.28487e-13 0 0 -9.47681e-14 -5.66665e-13 -4.31717e-14 -1.00684e-13 0 0 3.20735e-14 -4.42139e-13 -4.71808e-13 3.06807e-13 0 0 1.46645e-13 -5.35313e-13 -1.83855e-13 -1.63246e-14 0 0 -1.92922e-13 -3.08739e-13 3.9001e-14 -2.86072e-13 0 0 -4.68146e-13 -1.78049e-13 3.73402e-14 -1.10052e-13 0 0 -2.89813e-13 -3.74521e-13 -1.04606e-14 6.30105e-14 0 0 -1.6352e-13 -3.72958e-13 -1.29228e-13 5.16434e-14 0 0 2.1431e-13 -8.15747e-13 1.38255e-13 -3.05382e-14 0 0 -1.08448e-13 -3.79239e-13 -2.58383e-13 1.66434e-13 0 0 -3.61738e-13 -1.55449e-13 -2.07459e-13 4.15445e-14 0 0 -6.26142e-14 -4.57414e-13 -5.63411e-14 2.94512e-14 0 0 -2.10369e-13 -4.21571e-14 -5.92316e-13 3.65693e-13 0 0 2.99632e-14 -5.85943e-13 2.71843e-13 -3.74381e-13 0 0 -2.236e-13 -2.52838e-13 -1.80087e-15 -2.76147e-13 0 0 -2.78829e-13 -3.24257e-14 -3.56737e-13 3.77758e-14 0 0 8.7162e-14 -4.36342e-13 8.88053e-14 -4.04462e-13 0 0 -5.65012e-13 6.7202e-13 -8.09133e-13 -1.37067e-13 0 0 -1.09674e-13 -5.51179e-14 -9.99564e-14 -4.86343e-13 0 0 2.66265e-13 -7.55403e-13 5.03396e-13 -6.29138e-13 0 0 -1.91548e-13 -2.56153e-13 1.45495e-13 -3.03624e-13 0 0 -1.03117e-13 -4.95346e-13 5.29207e-13 -4.69421e-13 0 0 -5.83921e-13 2.862e-13 -1.14389e-14 -3.28181e-13 0 0 -1.95956e-13 -2.35879e-13 7.08243e-13 -1.14391e-12 0 0 1.19791e-13 -5.02989e-13 8.28773e-13 -1.41695e-12 0 0 -1.72275e-13 2.20656e-13 -3.07712e-13 -5.49712e-13 0 0 8.4626e-14 -1.01656e-13 -1.83449e-13 -4.74606e-13 0
				</DataArray>
				<DataArray Name="VitesseY" type="Float32" format="ascii">