<?xml version="1.0"?>
<VTKFile type="PolyData">
	<PolyData>
		<Piece NumberOfPoints="1206" NumberOfPolys="1000">
			<Points>
				<DataArray type="Float32" NumberOfComponents="3" format="ascii">
 0 0 0 0.02 0 0 0.04 0 0 0.06 0 0 0.08 0 0 0.1 0 0 0 0.005 0 0.02 0.005 0 0.04 0.005 0 0.06 0.005 0 0.08 0.005 0 0.1 0.005 0 0 0.01 0 0.02 0.01 0 0.04 0.01 0 0.06 0.01 0 0.08 0.01 0 0.1 0.01 0 0 0.015 0 0.02 0.015 0 0.04 0.015 0 0.06 0.015 0 0.08 0.015 0 0.1 0.015 0 0 0.02 0 0.02 0.02 0 0.04 0.02 0 0.06 0.02 0 0.08 0.02 0 0.1 0.02 0 0 0.025 0 0.02 0.025 0 0.04 0.025 0 0.06 0.025 0 0.08 0.025 0 0.1 0.025 0 0 0.03 0 0.02 0.03 0 0.04 0.03 0 0.06 0.03 0 0.08 0.03 0 0.1 0.03 0 0 0.035 0 0.02 0.035 0 0.04 0.035 0 0.06 0.035 0 0.08 0.035 0 0.1 0.035 0 0 0.04 0 0.02 0.04 0 0.04 0.04 0 0.06 0.04 0 0.08 0.04 0 0.1 0.04 0 0 0.045 0 0.02 0.045 0 0.04 0.045 0 0.06 0.045 0 0.08 0.045 0 0.1 0.045 0 0 0.05 0 0.02 0.05 0 0.04 0.05 0 0.06 0.05 0 0.08 0.05 0 0.1 0.05 0 0 0.055 0 0.02 0.055 0 0.04 0.055 0 0.06 0.055 0 0.08 0.055 0 0.1 0.055 0 0 0.06 0 0.02 0.06 0 0.04 0.06 0 0.06 0.06 0 0.08 0.06 0 0.1 0.06 0 0 0.065 0 0.02 0.065 0 0.04 0.065 0 0.06 0.065 0 0.08 0.065 0 0.1 0.065 0 0 0.07 0 0.02 0.07 0 0.04 0.07 0 0.06 0.07 0 0.08 0.07 0 0.1 0.07 0 0 0.075 0 0.02 0.075 0 0.04 0.075 0 0.06 0.075 0 0.08 0.075 0 0.1 0.075 0 0 0.08 0 0.02 0.08 0 0.04 0.08 0 0.06 0.08 0 0.08 0.08 0 0.1 0.08 0 0 0.085 0 0.02 0.085 0 0.04 0.085 0 0.06 0.085 0 0.08 0.085 0 0.1 0.085 0 0 0.09 0 0.02 0.09 0 0.04 0.09 0 0.06 0.09 0 0.08 0.09 0 0.1 0.09 0 0 0.095 0 0.02 0.095 0 0.04 0.095 0 0.06 0.095 0 0.08 0.095 0 0.1 0.095 0 0 0.1 0 0.02 0.1 0 0.04 0.1 0 0.06 0.1 0 0.08 0.1 0 0.1 0.1 0 0 0.105 0 0.02 0.105 0 0.04 0.105 0 0.06 0.105 0 0.08 0.105 0 0.1 0.105 0 0 0.11 0 0.02 0.11 0 0.04 0.11 0 0.06 0.11 0 0.08 0.11 0 0.1 0.11 0 0 0.115 0 0.02 0.115 0 0.04 0.115 0 0.06 0.115 0 0.08 0.115 0 0.1 0.115 0 0 0.12 0 0.02 0.12 0 0.04 0.12 0 0.06 0.12 0 0.08 0.12 0 0.1 0.12 0 0 0.125 0 0.02 0.125 0 0.04 0.125 0 0.06 0.125 0 0.08 0.125 0 0.1 0.125 0 0 0.13 0 0.02 0.13 0 0.04 0.13 0 0.06 0.13 0 0.08 0.13 0 0.1 0.13 0 0 0.135 0 0.02 0.135 0 0.04 0.135 0 0.06 0.135 0 0.08 0.135 0 0.1 0.135 0 0 0.14 0 0.02 0.14 0 0.04 0.14 0 0.06 0.14 0 0.08 0.14 0 0.1 0.14 0 0 0.145 0 0.02 0.145 0 0.04 0.145 0 0.06 0.145 0 0.08 0.145 0 0.1 0.145 0 0 0.15 0 0.02 0.15 0 0.04 0.15 0 0.06 0.15 0 0.08 0.15 0 0.1 0.15 0 0 0.155 0 0.02 0.155 0 0.04 0.155 0 0.06 0.155 0 0.08 0.155 0 0.1 0.155 0 0 0.16 0 0.02 0.16 0 0.04 0.16 0 0.06 0.16 0 0.08 0.16 0 0.1 0.16 0 0 0.165 0 0.02 0.165 0 0.04 0.165 0 0.06 0.165 0 0.08 0.165 0 0.1 0.165 0 0 0.17 0 0.02 0.17 0 0.04 0.17 0 0.06 0.17 0 0.08 0.17 0 0.1 0.17 0 0 0.175 0 0.02 0.175 0 0.04 0.175 0 0.06 0.175 0 0.08 0.175 0 0.1 0.175 0 0 0.18 0 0.02 0.18 0 0.04 0.18 0 0.06 0.18 0 0.08 0.18 0 0.1 0.18 0 0 0.185 0 0.02 0.185 0 0.04 0.185 0 0.06 0.185 0 0.08 0.185 0 0.1 0.185 0 0 0.19 0 0.02 0.19 0 0.04 0.19 0 0.06 0.19 0 0.08 0.19 0 0.1 0.19 0 0 0.195 0 0.02 0.195 0 0.04 0.195 0 0.06 0.195 0 0.08 0.195 0 0.1 0.195 0 0 0.2 0 0.02 0.2 0 0.04 0.2 0 0.06 0.2 0 0.08 0.2 0 0.1 0.2 0 0 0.205 0 0.02 0.205 0 0.04 0.205 0 0.06 0.205 0 0.08 0.205 0 0.1 0.205 0 0 0.21 0 0.02 0.21 0 0.04 0.21 0 0.06 0.21 0 0.08 0.21 0 0.1 0.21 0 0 0.215 0 0.02 0.215 0 0.04 0.215 0 0.06 0.215 0 0.08 0.215 0 0.1 0.215 0 0 0.22 0 0.02 0.22 0 0.04 0.22 0 0.06 0.22 0 0.08 0.22 0 0.1 0.22 0 0 0.225 0 0.02 0.225 0 0.04 0.225 0 0.06 0.225 0 0.08 0.225 0 0.1 0.225 0 0 0.23 0 0.02 0.23 0 0.04 0.23 0 0.06 0.23 0 0.08 0.23 0 0.1 0.23 0 0 0.235 0 0.02 0.235 0 0.04 0.235 0 0.06 0.235 0 0.08 0.235 0 0.1 0.235 0 0 0.24 0 0.02 0.24 0 0.04 0.24 0 0.06 0.24 0 0.08 0.24 0 0.1 0.24 0 0 0.245 0 0.02 0.245 0 0.04 0.245 0 0.06 0.245 0 0.08 0.245 0 0.1 0.245 0 0 0.25 0 0.02 0.25 0 0.04 0.25 0 0.06 0.25 0 0.08 0.25 0 0.1 0.25 0 0 0.255 0 0.02 0.255 0 0.04 0.255 0 0.06 0.255 0 0.08 0.255 0 0.1 0.255 0 0 0.26 0 0.02 0.26 0 0.04 0.26 0 0.06 0.26 0 0.08 0.26 0 0.1 0.26 0 0 0.265 0 0.02 0.265 0 0.04 0.265 0 0.06 0.265 0 0.08 0.265 0 0.1 0.265 0 0 0.27 0 0.02 0.27 0 0.04 0.27 0 0.06 0.27 0 0.08 0.27 0 0.1 0.27 0 0 0.275 0 0.02 0.275 0 0.04 0.275 0 0.06 0.275 0 0.08 0.275 0 0.1 0.275 0 0 0.28 0 0.02 0.28 0 0.04 0.28 0 0.06 0.28 0 0.08 0.28 0 0.1 0.28 0 0 0.285 0 0.02 0.285 0 0.04 0.285 0 0.06 0.285 0 0.08 0.285 0 0.1 0.285 0 0 0.29 0 0.02 0.29 0 0.04 0.29 0 0.06 0.29 0 0.08 0.29 0 0.1 0.29 0 0 0.295 0 0.02 0.295 0 0.04 0.295 0 0.06 0.295 0 0.08 0.295 0 0.1 0.295 0 0 0.3 0 0.02 0.3 0 0.04 0.3 0 0.06 0.3 0 0.08 0.3 0 0.1 0.3 0 0 0.305 0 0.02 0.305 0 0.04 0.305 0 0.06 0.305 0 0.08 0.305 0 0.1 0.305 0 0 0.31 0 0.02 0.31 0 0.04 0.31 0 0.06 0.31 0 0.08 0.31 0 0.1 0.31 0 0 0.315 0 0.02 0.315 0 0.04 0.315 0 0.06 0.315 0 0.08 0.315 0 0.1 0.315 0 0 0.32 0 0.02 0.32 0 0.04 0.32 0 0.06 0.32 0 0.08 0.32 0 0.1 0.32 0 0 0.325 0 0.02 0.325 0 0.04 0.325 0 0.06 0.325 0 0.08 0.325 0 0.1 0.325 0 0 0.33 0 0.02 0.33 0 0.04 0.33 0 0.06 0.33 0 0.08 0.33 0 0.1 0.33 0 0 0.335 0 0.02 0.335 0 0.04 0.335 0 0.06 0.335 0 0.08 0.335 0 0.1 0.335 0 0 0.34 0 0.02 0.34 0 0.04 0.34 0 0.06 0.34 0 0.08 0.34 0 0.1 0.34 0 0 0.345 0 0.02 0.345 0 0.04 0.345 0 0.06 0.345 0 0.08 0.345 0 0.1 0.345 0 0 0.35 0 0.02 0.35 0 0.04 0.35 0 0.06 0.35 0 0.08 0.35 0 0.1 0.35 0 0 0.355 0 0.02 0.355 0 0.04 0.355 0 0.06 0.355 0 0.08 0.355 0 0.1 0.355 0 0 0.36 0 0.02 0.36 0 0.04 0.36 0 0.06 0.36 0 0.08 0.36 0 0.1 0.36 0 0 0.365 0 0.02 0.365 0 0.04 0.365 0 0.06 0.365 0 0.08 0.365 0 0.1 0.365 0 0 0.37 0 0.02 0.37 0 0.04 0.37 0 0.06 0.37 0 0.08 0.37 0 0.1 0.37 0 0 0.375 0 0.02 0.375 0 0.04 0.375 0 0.06 0.375 0 0.08 0.375 0 0.1 0.375 0 0 0.38 0 0.02 0.38 0 0.04 0.38 0 0.06 0.38 0 0.08 0.38 0 0.1 0.38 0 0 0.385 0 0.02 0.385 0 0.04 0.385 0 0.06 0.385 0 0.08 0.385 0 0.1 0.385 0 0 0.39 0 0.02 0.39 0 0.04 0.39 0 0.06 0.39 0 0.08 0.39 0 0.1 0.39 0 0 0.395 0 0.02 0.395 0 0.04 0.395 0 0.06 0.395 0 0.08 0.395 0 0.1 0.395 0 0 0.4 0 0.02 0.4 0 0.04 0.4 0 0.06 0.4 0 0.08 0.4 0 0.1 0.4 0 0 0.405 0 0.02 0.405 0 0.04 0.405 0 0.06 0.405 0 0.08 0.405 0 0.1 0.405 0 0 0.41 0 0.02 0.41 0 0.04 0.41 0 0.06 0.41 0 0.08 0.41 0 0.1 0.41 0 0 0.415 0 0.02 0.415 0 0.04 0.415 0 0.06 0.415 0 0.08 0.415 0 0.1 0.415 0 0 0.42 0 0.02 0.42 0 0.04 0.42 0 0.06 0.42 0 0.08 0.42 0 0.1 0.42 0 0 0.425 0 0.02 0.425 0 0.04 0.425 0 0.06 0.425 0 0.08 0.425 0 0.1 0.425 0 0 0.43 0 0.02 0.43 0 0.04 0.43 0 0.06 0.43 0 0.08 0.43 0 0.1 0.43 0 0 0.435 0 0.02 0.435 0 0.04 0.435 0 0.06 0.435 0 0.08 0.435 0 0.1 0.435 0 0 0.44 0 0.02 0.44 0 0.04 0.44 0 0.06 0.44 0 0.08 0.44 0 0.1 0.44 0 0 0.445 0 0.02 0.445 0 0.04 0.445 0 0.06 0.445 0 0.08 0.445 0 0.1 0.445 0 0 0.45 0 0.02 0.45 0 0.04 0.45 0 0.06 0.45 0 0.08 0.45 0 0.1 0.45 0 0 0.455 0 0.02 0.455 0 0.04 0.455 0 0.06 0.455 0 0.08 0.455 0 0.1 0.455 0 0 0.46 0 0.02 0.46 0 0.04 0.46 0 0.06 0.46 0 0.08 0.46 0 0.1 0.46 0 0 0.465 0 0.02 0.465 0 0.04 0.465 0 0.06 0.465 0 0.08 0.465 0 0.1 0.465 0 0 0.47 0 0.02 0.47 0 0.04 0.47 0 0.06 0.47 0 0.08 0.47 0 0.1 0.47 0 0 0.475 0 0.02 0.475 0 0.04 0.475 0 0.06 0.475 0 0.08 0.475 0 0.1 0.475 0 0 0.48 0 0.02 0.48 0 0.04 0.48 0 0.06 0.48 0 0.08 0.48 0 0.1 0.48 0 0 0.485 0 0.02 0.485 0 0.04 0.485 0 0.06 0.485 0 0.08 0.485 0 0.1 0.485 0 0 0.49 0 0.02 0.49 0 0.04 0.49 0 0.06 0.49 0 0.08 0.49 0 0.1 0.49 0 0 0.495 0 0.02 0.495 0 0.04 0.495 0 0.06 0.495 0 0.08 0.495 0 0.1 0.495 0 0 0.5 0 0.02 0.5 0 0.04 0.5 0 0.06 0.5 0 0.08 0.5 0 0.1 0.5 0 0 0.505 0 0.02 0.505 0 0.04 0.505 0 0.06 0.505 0 0.08 0.505 0 0.1 0.505 0 0 0.51 0 0.02 0.51 0 0.04 0.51 0 0.06 0.51 0 0.08 0.51 0 0.1 0.51 0 0 0.515 0 0.02 0.515 0 0.04 0.515 0 0.06 0.515 0 0.08 0.515 0 0.1 0.515 0 0 0.52 0 0.02 0.52 0 0.04 0.52 0 0.06 0.52 0 0.08 0.52 0 0.1 0.52 0 0 0.525 0 0.02 0.525 0 0.04 0.525 0 0.06 0.525 0 0.08 0.525 0 0.1 0.525 0 0 0.53 0 0.02 0.53 0 0.04 0.53 0 0.06 0.53 0 0.08 0.53 0 0.1 0.53 0 0 0.535 0 0.02 0.535 0 0.04 0.535 0 0.06 0.535 0 0.08 0.535 0 0.1 0.535 0 0 0.54 0 0.02 0.54 0 0.04 0.54 0 0.06 0.54 0 0.08 0.54 0 0.1 0.54 0 0 0.545 0 0.02 0.545 0 0.04 0.545 0 0.06 0.545 0 0.08 0.545 0 0.1 0.545 0 0 0.55 0 0.02 0.55 0 0.04 0.55 0 0.06 0.55 0 0.08 0.55 0 0.1 0.55 0 0 0.555 0 0.02 0.555 0 0.04 0.555 0 0.06 0.555 0 0.08 0.555 0 0.1 0.555 0 0 0.56 0 0.02 0.56 0 0.04 0.56 0 0.06 0.56 0 0.08 0.56 0 0.1 0.56 0 0 0.565 0 0.02 0.565 0 0.04 0.565 0 0.06 0.565 0 0.08 0.565 0 0.1 0.565 0 0 0.57 0 0.02 0.57 0 0.04 0.57 0 0.06 0.57 0 0.08 0.57 0 0.1 0.57 0 0 0.575 0 0.02 0.575 0 0.04 0.575 0 0.06 0.575 0 0.08 0.575 0 0.1 0.575 0 0 0.58 0 0.02 0.58 0 0.04 0.58 0 0.06 0.58 0 0.08 0.58 0 0.1 0.58 0 0 0.585 0 0.02 0.585 0 0.04 0.585 0 0.06 0.585 0 0.08 0.585 0 0.1 0.585 0 0 0.59 0 0.02 0.59 0 0.04 0.59 0 0.06 0.59 0 0.08 0.59 0 0.1 0.59 0 0 0.595 0 0.02 0.595 0 0.04 0.595 0 0.06 0.595 0 0.08 0.595 0 0.1 0.595 0 0 0.6 0 0.02 0.6 0 0.04 0.6 0 0.06 0.6 0 0.08 0.6 0 0.1 0.6 0 0 0.605 0 0.02 0.605 0 0.04 0.605 0 0.06 0.605 0 0.08 0.605 0 0.1 0.605 0 0 0.61 0 0.02 0.61 0 0.04 0.61 0 0.06 0.61 0 0.08 0.61 0 0.1 0.61 0 0 0.615 0 0.02 0.615 0 0.04 0.615 0 0.06 0.615 0 0.08 0.615 0 0.1 0.615 0 0 0.62 0 0.02 0.62 0 0.04 0.62 0 0.06 0.62 0 0.08 0.62 0 0.1 0.62 0 0 0.625 0 0.02 0.625 0 0.04 0.625 0 0.06 0.625 0 0.08 0.625 0 0.1 0.625 0 0 0.63 0 0.02 0.63 0 0.04 0.63 0 0.06 0.63 0 0.08 0.63 0 0.1 0.63 0 0 0.635 0 0.02 0.635 0 0.04 0.635 0 0.06 0.635 0 0.08 0.635 0 0.1 0.635 0 0 0.64 0 0.02 0.64 0 0.04 0.64 0 0.06 0.64 0 0.08 0.64 0 0.1 0.64 0 0 0.645 0 0.02 0.645 0 0.04 0.645 0 0.06 0.645 0 0.08 0.645 0 0.1 0.645 0 0 0.65 0 0.02 0.65 0 0.04 0.65 0 0.06 0.65 0 0.08 0.65 0 0.1 0.65 0 0 0.655 0 0.02 0.655 0 0.04 0.655 0 0.06 0.655 0 0.08 0.655 0 0.1 0.655 0 0 0.66 0 0.02 0.66 0 0.04 0.66 0 0.06 0.66 0 0.08 0.66 0 0.1 0.66 0 0 0.665 0 0.02 0.665 0 0.04 0.665 0 0.06 0.665 0 0.08 0.665 0 0.1 0.665 0 0 0.67 0 0.02 0.67 0 0.04 0.67 0 0.06 0.67 0 0.08 0.67 0 0.1 0.67 0 0 0.675 0 0.02 0.675 0 0.04 0.675 0 0.06 0.675 0 0.08 0.675 0 0.1 0.675 0 0 0.68 0 0.02 0.68 0 0.04 0.68 0 0.06 0.68 0 0.08 0.68 0 0.1 0.68 0 0 0.685 0 0.02 0.685 0 0.04 0.685 0 0.06 0.685 0 0.08 0.685 0 0.1 0.685 0 0 0.69 0 0.02 0.69 0 0.04 0.69 0 0.06 0.69 0 0.08 0.69 0 0.1 
[...]
			<PointData Scalars="VitesseX">
				<DataArray Name="VitesseX" type="Float32" format="ascii">
 0 6.45453e-15 -5.12586e-15 -1.55484e-14 -3.01718e-14 0 0 8.05158e-16 -3.18231e-16 -1.86114e-14 -3.02765e-14 0 0 -6.15603e-15 2.0532e-15 -1.99448e-14 -2.92139e-14 0 0 -6.31369e-15 -7.14609e-15 -1.2858e-14 -3.10219e-14 0 0 -1.14887e-14 -1.18049e-14 -9.05131e-15 -2.98616e-14 0 0 -1.64037e-14 -1.52765e-14 -8.98569e-15 -2.51188e-14 0 0 -2.73092e-14 -5.72857e-15 -1.74808e-14 -2.13187e-14 0 0 -2.48154e-14 -2.2995e-14 -5.44557e-15 -2.62191e-14 0 0 -8.85657e-15 -5.90097e-14 1.43763e-14 -2.48338e-14 0 0 -1.9045e-14 -4.24022e-14 -8.47983e-15 -1.22481e-14 0 0 -2.61077e-14 -3.03054e-14 -2.56118e-14 -1.25279e-14 0 0 -2.33748e-14 -3.90914e-14 -1.01553e-14 -3.0413e-14 0 0 -3.33002e-14 -3.27284e-14 -8.20297e-15 -2.87555e-14 0 0 -2.9928e-14 -3.4e-14 -1.5106e-14 -1.68162e-14 0 0 -3.74362e-14 1.08336e-15 -5.94684e-14 1.02411e-14 0 0 -3.91643e-14 1.75596e-14 -6.70659e-14 1.51347e-14 0 0 -2.61126e-15 -3.07433e-14 -1.5418e-14 -4.18446e-15 0 0 3.69658e-15 -4.21543e-14 1.71865e-14 -1.8304e-14 0 0 -2.33496e-14 5.22601e-15 -1.87978e-15 -8.72004e-15 0 0 -2.30103e-14 2.70496e-14 -1.75362e-14 -2.73913e-15 0 0 2.52422e-14 -3.99101e-14 4.6755e-14 -4.94793e-14 0 0 2.91178e-14 -3.73904e-14 2.69012e-14 -3.37567e-14 0 0 -1.6672e-14 3.61125e-14 -5.70589e-14 1.09903e-14 0 0 -2.8618e-14 6.44242e-14 -1.04775e-13 3.77847e-14 0 0 4.84502e-16 1.87166e-14 -5.57107e-14 -2.6753e-15 0 0 1.28405e-14 -3.18163e-14 2.39777e-14 -7.34352e-14 0 0 -5.47e-14 4.35266e-14 -3.31291e-14 -4.13575e-14 0 0 -6.36011e-14 5.25767e-14 -5.71561e-14 -1.83348e-14 0 0 -4.48191e-15 -4.12943e-14 1.10762e-14 -4.4033e-14 0 0 4.3884e-15 -4.36601e-14 -1.48528e-14 -1.6734e-15 0 0 -4.56041e-15 5.21983e-15 -7.57804e-14 2.03867e-14 0 0 1.81357e-14 -7.60626e-15 -7.81693e-14 -3.4123e-14 0 0 3.74747e-14 -2.15662e-14 -1.0426e-13 -2.90473e-14 0 0 3.7573e-14 -2.94553e-14 -1.13936e-13 1.5633e-14 0 0 8.92409e-15 -1.79953e-14 -8.331e-14 5.84981e-15 0 0 -2.55359e-14 1.3329e-14 -4.61322e-14 -3.97044e-14 0 0 -1.74366e-14 -5.34267e-15 -3.39807e-14 -9.75339e-15 0 0 -4.83829e-14 1.39487e-14 -4.07262e-14 3.67034e-14 0 0 -5.68045e-14 8.27848e-15 -1.70233e-14 3.78407e-14 0 0 -4.80092e-14 -1.54784e-14 -6.18806e-15 2.20202e-14 0 0 -4.18663e-14 -4.93609e-15 -1.42073e-15 -2.02687e-14 0 0 2.54473e-14 -7.06087e-14 9.20382e-14 -7.17562e-14 0 0 2.00484e-14 -2.79435e-14 3.99056e-14 -4.53826e-14 0 0 -3.21195e-14 2.97043e-14 1.51742e-14 -8.052e-14 0 0 -2.83378e-14 1.16178e-14 6.53561e-14 -1.12763e-13 0 0 -1.34846e-14 7.4137e-14 -6.86987e-14 2.20541e-14 0 0 -6.96926e-14 1.39872e-13 -6.73446e-14 3.52438e-14 0 0 -6.11366e-14 4.83706e-14 7.83807e-14 -2.38476e-14 0 0 -3.75038e-14 -5.07565e-14 1.7176e-13 -6.22909e-14 0 0 -6.63564e-14 -3.94337e-14 1.93686e-13 -1.02162e-13 0 0 -1.72169e-14 -1.1667e-13 2.02924e-13 -1.00147e-13 0 0 4.35138e-14 -1.50813e-13 8.8161e-14 -8.26938e-15 0 0 -3.8786e-14 1.61012e-14 -1.46685e-13 7.68667e-14 0 0 -6.08338e-14 -6.9174e-15 -4.70007e-14 -1.21782e-13 0 0 -1.02464e-13 5.30904e-14 -6.99521e-14 -1.7003e-13 0 0 -4.57491e-14 -3.28123e-14 -6.55813e-14 -1.12111e-13 0 0 3.23804e-14 -1.98216e-13 3.70487e-14 -1.39607e-13 0 0 -4.16489e-14 -1.99516e-13 -2.44881e-14 -7.51642e-14 0 0 -5.47592e-14 -3.44581e-13 6.13495e-14 -1.27396e-13 0 0 -7.92074e-14 -3.04544e-13 -2.30613e-14 -1.6792e-13 0 0 -1.47684e-13 -8.9697e-14 -2.77343e-13 -8.42742e-14 0 0 -1.25328e-13 1.0253e-14 -3.69727e-13 -7.86499e-14 0 0 -4.36524e-14 -4.93545e-14 -2.80162e-13 -1.45556e-13 0 0 -8.24714e-14 -9.76656e-14 -2.08212e-13 -1.34102e-13 0 0 -7.87367e-14 -2.64087e-13 -5.35986e-14 -1.5937e-13 0 0 -1.33423e-13 -3.28293e-13 5.8576e-14 -1.84638e-13 0 0 -2.86654e-13 -2.13208e-13 2.80219e-14 -2.09085e-13 0 0 -3.58825e-13 -1.36399e-13 5.60948e-14 -2.89471e-13 0 0 -2.77085e-13 -1.62937e-13 6.04753e-14 -3.6664e-13 0 0 -1.35387e-13 -2.04965e-13 -4.20154e-14 -3.71011e-13 0 0 -7.87721e-14 -2.60099e-13 -8.77863e-14 -3.61791e-13 0 0 -9.23645e-14 -2.8411e-13 -1.28477e-13 -3.55025e-13 0 0 -1.50196e-13 -2.84242e-13 -1.21354e-13 -3.03288e-13 0 0 -2.44467e-13 -2.4864e-13 -1.77307e-13 -2.07961e-13 0 0 -3.08799e-13 -2.36056e-13 -2.14016e-13 -1.57884e-13 0 0 -3.04554e-13 -3.02138e-13 -1.79996e-13 -1.81795e-13 0 0 -2.96841e-13 -3.74385e-13 -1.01864e-13 -2.24146e-13 0 0 -3.15593e-13 -3.98418e-13 -1.84501e-14 -1.65674e-13 0 0 -3.73268e-13 -3.69149e-13 4.46851e-14 -6.36716e-14 0 0 -4.60446e-13 -2.70371e-13 3.42991e-14 -2.56622e-14 0 0 -4.6865e-13 -2.2969e-13 5.89617e-14 -4.63471e-14 0 0 -4.14903e-13 -2.98518e-13 2.03002e-13 -1.81838e-13 0 0 -3.62012e-13 -3.63955e-13 2.72833e-13 -2.52777e-13 0 0 -2.92809e-13 -3.88522e-13 2.31147e-13 -2.58858e-13 0 0 -1.89707e-13 -4.24944e-13 1.40726e-13 -2.38499e-13 0 0 -8.28227e-14 -4.16502e-13 -3.46409e-14 -1.47055e-13 0 0 -4.06028e-15 -3.34977e-13 -2.72929e-13 -1.49785e-14 0 0 5.74558e-14 -2.68858e-13 -3.92476e-13 -6.55792e-15 0 0 6.62575e-14 -2.23426e-13 -5.2224e-13 7.99871e-16 0 0 3.83622e-14 -1.42703e-13 -5.70114e-13 1.92023e-14 0 0 -1.81407e-14 -6.79639e-14 -5.60773e-13 -1.02796e-14 0 0 -3.60335e-15 -1.10809e-13 -4.69036e-13 -1.12651e-13 0 0 6.27214e-14 -3.08656e-13 -1.99106e-13 -3.41924e-13 0 0 9.09549e-14 -4.24146e-13 2.58359e-14 -6.15483e-13 0 0 8.56058e-14 -4.25322e-13 6.21915e-14 -7.56742e-13 0 0 4.87578e-14 -3.81302e-13 2.47536e-14 -7.84961e-13 0 0 -4.88524e-14 -2.35925e-13 -1.20406e-13 -7.41606e-13 0 0 -2.10449e-13 3.23278e-14 -4.05202e-13 -6.18386e-13 0 0 -3.00083e-13 1.89349e-13 -7.12242e-13 -4.24564e-13 0 0 -2.91827e-13 1.99209e-13 -7.90895e-13 -2.86208e-13 0 0 -1.69558e-13 1.04194e-13 -7.63974e-13 -2.3813e-13 0 0 1.3773e-13 -1.74412e-13 -6.88962e-13 -2.12766e-13 0 0 5.58743e-13 -5.22859e-13 -5.87376e-13 -1.92939e-13 0 0 6.61419e-13 -6.51127e-13 -4.58361e-13 -2.23673e-13 0 0 6.30284e-13 -6.45228e-13 -3.52142e-13 -3.04185e-13 0 0 5.03908e-13 -5.81307e-13 -3.55003e-13 -3.27681e-13 0 0 2.92146e-13 -4.78433e-13 -4.17853e-13 -2.65822e-13 0 0 6.95098e-14 -3.79208e-13 -4.55131e-13 -1.87974e-13 0 0 -1.02588e-13 -2.6967e-13 -4.71677e-13 -1.38029e-13 0 0 -1.98303e-13 -2.15133e-13 -4.98636e-13 -8.01847e-14 0 0 -2.57868e-13 -2.1145e-13 -4.88019e-13 -4.37876e-14 0 0 -2.79619e-13 -2.51884e-13 -4.0797e-13 -7.51214e-14 0 0 -2.74997e-13 -2.61545e-13 -3.27814e-13 -1.55783e-13 0 0 -2.81001e-13 -2.15785e-13 -3.16528e-13 -2.05734e-13 0 0 -2.78697e-13 -2.03156e-13 -2.89235e-13 -2.089e-13 0 0 -2.60118e-13 -2.27996e-13 -3.10025e-13 -1.60637e-13 0 0 -2.35258e-13 -2.68442e-13 -2.65889e-13 -2.03301e-13 0 0 -2.48524e-13 -2.74843e-13 -1.51982e-13 -2.87863e-13 0 0 -2.98307e-13 -2.24597e-13 -1.67416e-13 -2.50605e-13 0 0 -2.78694e-13 -2.10985e-13 -2.04947e-13 -1.63269e-13 0 0 -2.20149e-13 -2.29225e-13 -2.1182e-13 -8.03744e-14 0 0 -2.23348e-13 -2.32921e-13 -1.61616e-13 -7.35056e-14 0 0 -2.08473e-13 -2.52365e-13 -7.20081e-14 -9.70298e-14 0 0 -1.72483e-13 -2.64428e-13 -4.24303e-14 -9.5318e-14 0 0 -1.76605e-13 -2.26677e-13 -9.42317e-14 -7.34373e-15 0 0 -2.01227e-13 -1.82341e-13 -8.12286e-14 -4.21287e-14 0 0 -1.95173e-13 -1.57623e-13 -5.73139e-14 -7.9119e-14 0 0 -2.09647e-13 -1.15648e-13 -6.84204e-14 -2.25656e-14 0 0 -2.60671e-13 -2.14232e-14 -8.78704e-14 -7.38946e-15 0 0 -2.61254e-13 1.30125e-14 -1.2832e-13 2.34833e-14 0 0 -2.12459e-13 -3.00704e-14 -1.12298e-13 2.33105e-14 0 0 -1.55228e-13 -1.50768e-13 -1.98998e-14 -2.44234e-14 0 0 -1.74095e-13 -1.8104e-13 6.97554e-16 -4.15989e-14 0 0 -1.57794e-13 -2.13561e-13 -4.71989e-14 -1.90162e-14 0 0 -1.45081e-13 -2.8779e-13 -3.32022e-14 -4.47114e-14 0 0 -1.70938e-13 -2.87053e-13 -2.56082e-14 -7.63919e-14 0 0 -1.70464e-13 -2.39307e-13 -1.37244e-13 -1.42803e-14 0 0 -1.69189e-13 -2.09767e-13 -2.0484e-13 7.80924e-14 0 0 -1.9205e-13 -2.21956e-13 -1.69049e-13 7.91345e-14 0 0 -1.74651e-13 -2.64767e-13 -1.07334e-13 -8.69545e-16 0 0 -1.34887e-13 -3.22914e-13 -2.89611e-14 -1.69604e-13 0 0 -1.59757e-13 -2.85947e-13 -4.44613e-14 -2.05842e-13 0 0 -1.7698e-13 -2.08733e-13 -1.24596e-13 -2.08409e-13 0 0 -1.58697e-13 -2.20598e-13 -1.26836e-13 -2.3573e-13 0 0 -1.48045e-13 -2.20278e-13 -1.75564e-13 -1.97854e-13 0 0 -1.74636e-13 -1.62383e-13 -3.09154e-13 -1.14522e-13 0 0 -1.9417e-13 -1.67831e-13 -3.22878e-13 -1.11472e-13 0 0 -1.71204e-13 -2.34949e-13 -2.79798e-13 -1.5341e-13 0 0 -1.4169e-13 -3.37327e-13 -2.18648e-13 -2.05574e-13 0 0 -1.3516e-13 -4.07748e-13 -2.45662e-13 -1.49167e-13 0 0 -1.39544e-13 -4.1067e-13 -3.24196e-13 -1.6444e-13 0 0 -1.48469e-13 -3.86625e-13 -4.28665e-13 -2.55821e-13 0 0 -1.57094e-13 -3.28187e-13 -5.54236e-13 -3.99612e-13 0 0 -1.64252e-13 -3.19429e-13 -5.26255e-13 -5.906e-13 0 0 -1.63663e-13 -3.45439e-13 -4.22523e-13 -5.37793e-13 0 0 -1.70414e-13 -3.67345e-13 -3.33196e-13 -3.20159e-13 0 0 -1.74779e-13 -3.82507e-13 -1.88097e-13 -1.43349e-14 0 0 -2.31262e-13 -3.44498e-13 -1.10663e-13 6.67108e-14 0 0 -2.97006e-13 -2.69081e-13 -1.24097e-13 -4.49035e-14 0 0 -2.78751e-13 -3.13724e-13 -8.31535e-14 -2.6958e-13 0 0 -2.26067e-13 -3.39545e-13 -1.43151e-13 -1.79897e-13 0 0 -1.40557e-13 -3.03336e-13 -3.33029e-13 1.66647e-13 0 0 -2.02487e-13 -2.15761e-13 -4.25734e-13 1.84541e-13 0 0 -2.61717e-13 -2.02332e-13 -3.45255e-13 1.33345e-14 0 0 -1.96714e-13 -2.37628e-13 -2.52564e-13 -1.12747e-13 0 0 -1.51082e-13 -2.57821e-13 -2.4213e-13 -6.26092e-14 0 0 -7.23728e-14 -3.99883e-13 -4.79349e-14 -2.20347e-13 0 0 -1.40983e-13 -2.71006e-13 -1.16523e-13 -2.91179e-13 0 0 -1.94496e-13 -1.34993e-13 -2.63689e-13 -7.55195e-14 0 0 -1.62541e-13 -1.64948e-13 -2.19978e-13 -3.072e-14 0 0 -1.62642e-13 -1.90368e-13 -1.99248e-13 -2.35316e-14 0 0 -1.81096e-13 -1.69355e-13 -1.31925e-13 -8.37209e-14 0 0 -1.76657e-13 -1.4242e-13 6.23626e-16 -2.98014e-13 0 0 -1.59483e-13 -6.6566e-14 -1.39507e-13 -1.8052e-13 0 0 -1.34255e-13 -7.48986e-14 -1.42054e-13 -1.32386e-13 0 0 -1.60128e-13 -2.56383e-14 -9.46513e-14 -2.04794e-13 0 0 -1.53985e-13 4.88881e-14 -2.38609e-13 -8.09275e-15 0 0 -1.26831e-13 -1.0806e-14 -1.19523e-13 -6.39777e-14 0 0 -1.72215e-13 7.44998e-15 -1.09292e-14 -1.70945e-13 0 0 -2.68226e-14 -1.97762e-13 1.95736e-13 -3.1581e-13 0 0 -1.26859e-14 -1.62389e-13 1.23046e-13 -2.01981e-13 0 0 -1.67346e-13 1.05475e-13 -1.50801e-13 5.71888e-14 0 0 -1.45238e-13 9.6052e-14 -1.27668e-13 4.15721e-15 0 0 -1.43256e-14 -7.50238e-14 -6.01642e-15 2.95783e-14 0 0 1.29095e-13 -3.0637e-13 8.26363e-14 1.31272e-13 0 0 1.77913e-14 -2.22955e-13 2.42051e-14 1.26737e-13 0 0 -6.40508e-14 -1.82927e-13 5.54001e-14 5.81617e-14 0 0 -1.06582e-13 -1.47605e-13 1.0944e-14 1.24998e-13 0 0 -1.76534e-13 -1.02167e-14 -8.09944e-14 1.21402e-13 0 0 -2.18996e-14 -1.59156e-13 -1.97976e-14 5.44463e-14 0 0 3.90245e-14 -2.7738e-13 5.38968e-14 -1.76038e-13 0 0 -1.44148e-14 -2.34393e-13 1.30729e-13 -4.87228e-13 0 0 8.05226e-14 -2.95599e-13 1.80135e-13 -5.60181e-13 0 0 8.07881e-14 -3.10078e-13 8.77255e-14 -3.90748e-13 0 0 -6.4247e-14 -1.75712e-13 -1.1611e-13 -1.08734e-13 0 0 -2.60838e-13 1.21061e-13 -4.12401e-13 1.93253e-15 0 0 -3.64963e-13 1.83309e-13 -3.61066e-13 -1.26517e-13 0 0 -2.7387e-13 -1.58972e-13 9.01634e-14 -3.74447e-13 0 0 -1.85679e-13 -1.90258e-13 3.89601e-14 -3.61671e-13 0 0 -1.60817e-13 -2.80292e-15 -2.9162e-13 -1.59465e-13 0 0 -1.82053e-13 5.8825e-14 -3.72241e-13 -9.9191e-14 0
				</DataArray>
				<DataArray Name="VitesseY" type="Float32" format="ascii">