<?xml version="1.0"?>
<VTKFile type="PolyData">
	<PolyData>
		<Piece NumberOfPoints="1206" NumberOfPolys="1000">
			<Points>
				<DataArray type="Float32" NumberOfComponents="3" format="ascii">
 0 0 0 0.02 0 0 0.04 0 0 0.06 0 0 0.08 0 0 0.1 0 0 0 0.005 0 0.02 0.005 0 0.04 0.005 0 0.06 0.005 0 0.08 0.005 0 0.1 0.005 0 0 0.01 0 0.02 0.01 0 0.04 0.01 0 0.06 0.01 0 0.08 0.01 0 0.1 0.01 0 0 0.015 0 0.02 0.015 0 0.04 0.015 0 0.06 0.015 0 0.08 0.015 0 0.1 0.015 0 0 0.02 0 0.02 0.02 0 0.04 0.02 0 0.06 0.02 0 0.08 0.02 0 0.1 0.02 0 0 0.025 0 0.02 0.025 0 0.04 0.025 0 0.06 0.025 0 0.08 0.025 0 0.1 0.025 0 0 0.03 0 0.02 0.03 0 0.04 0.03 0 0.06 0.03 0 0.08 0.03 0 0.1 0.03 0 0 0.035 0 0.02 0.035 0 0.04 0.035 0 0.06 0.035 0 0.08 0.035 0 0.1 0.035 0 0 0.04 0 0.02 0.04 0 0.04 0.04 0 0.06 0.04 0 0.08 0.04 0 0.1 0.04 0 0 0.045 0 0.02 0.045 0 0.04 0.045 0 0.06 0.045 0 0.08 0.045 0 0.1 0.045 0 0 0.05 0 0.02 0.05 0 0.04 0.05 0 0.06 0.05 0 0.08 0.05 0 0.1 0.05 0 0 0.055 0 0.02 0.055 0 0.04 0.055 0 0.06 0.055 0 0.08 0.055 0 0.1 0.055 0 0 0.06 0 0.02 0.06 0 0.04 0.06 0 0.06 0.06 0 0.08 0.06 0 0.1 0.06 0 0 0.065 0 0.02 0.065 0 0.04 0.065 0 0.06 0.065 0 0.08 0.065 0 0.1 0.065 0 0 0.07 0 0.02 0.07 0 0.04 0.07 0 0.06 0.07 0 0.08 0.07 0 0.1 0.07 0 0 0.075 0 0.02 0.075 0 0.04 0.075 0 0.06 0.075 0 0.08 0.075 0 0.1 0.075 0 0 0.08 0 0.02 0.08 0 0.04 0.08 0 0.06 0.08 0 0.08 0.08 0 0.1 0.08 0 0 0.085 0 0.02 0.085 0 0.04 0.085 0 0.06 0.085 0 0.08 0.085 0 0.1 0.085 0 0 0.09 0 0.02 0.09 0 0.04 0.09 0 0.06 0.09 0 0.08 0.09 0 0.1 0.09 0 0 0.095 0 0.02 0.095 0 0.04 0.095 0 0.06 0.095 0 0.08 0.095 0 0.1 0.095 0 0 0.1 0 0.02 0.1 0 0.04 0.1 0 0.06 0.1 0 0.08 0.1 0 0.1 0.1 0 0 0.105 0 0.02 0.105 0 0.04 0.105 0 0.06 0.105 0 0.08 0.105 0 0.1 0.105 0 0 0.11 0 0.02 0.11 0 0.04 0.11 0 0.06 0.11 0 0.08 0.11 0 0.1 0.11 0 0 0.115 0 0.02 0.115 0 0.04 0.115 0 0.06 0.115 0 0.08 0.115 0 0.1 0.115 0 0 0.12 0 0.02 0.12 0 0.04 0.12 0 0.06 0.12 0 0.08 0.12 0 0.1 0.12 0 0 0.125 0 0.02 0.125 0 0.04 0.125 0 0.06 0.125 0 0.08 0.125 0 0.1 0.125 0 0 0.13 0 0.02 0.13 0 0.04 0.13 0 0.06 0.13 0 0.08 0.13 0 0.1 0.13 0 0 0.135 0 0.02 0.135 0 0.04 0.135 0 0.06 0.135 0 0.08 0.135 0 0.1 0.135 0 0 0.14 0 0.02 0.14 0 0.04 0.14 0 0.06 0.14 0 0.08 0.14 0 0.1 0.14 0 0 0.145 0 0.02 0.145 0 0.04 0.145 0 0.06 0.145 0 0.08 0.145 0 0.1 0.145 0 0 0.15 0 0.02 0.15 0 0.04 0.15 0 0.06 0.15 0 0.08 0.15 0 0.1 0.15 0 0 0.155 0 0.02 0.155 0 0.04 0.155 0 0.06 0.155 0 0.08 0.155 0 0.1 0.155 0 0 0.16 0 0.02 0.16 0 0.04 0.16 0 0.06 0.16 0 0.08 0.16 0 0.1 0.16 0 0 0.165 0 0.02 0.165 0 0.04 0.165 0 0.06 0.165 0 0.08 0.165 0 0.1 0.165 0 0 0.17 0 0.02 0.17 0 0.04 0.17 0 0.06 0.17 0 0.08 0.17 0 0.1 0.17 0 0 0.175 0 0.02 0.175 0 0.04 0.175 0 0.06 0.175 0 0.08 0.175 0 0.1 0.175 0 0 0.18 0 0.02 0.18 0 0.04 0.18 0 0.06 0.18 0 0.08 0.18 0 0.1 0.18 0 0 0.185 0 0.02 0.185 0 0.04 0.185 0 0.06 0.185 0 0.08 0.185 0 0.1 0.185 0 0 0.19 0 0.02 0.19 0 0.04 0.19 0 0.06 0.19 0 0.08 0.19 0 0.1 0.19 0 0 0.195 0 0.02 0.195 0 0.04 0.195 0 0.06 0.195 0 0.08 0.195 0 0.1 0.195 0 0 0.2 0 0.02 0.2 0 0.04 0.2 0 0.06 0.2 0 0.08 0.2 0 0.1 0.2 0 0 0.205 0 0.02 0.205 0 0.04 0.205 0 0.06 0.205 0 0.08 0.205 0 0.1 0.205 0 0 0.21 0 0.02 0.21 0 0.04 0.21 0 0.06 0.21 0 0.08 0.21 0 0.1 0.21 0 0 0.215 0 0.02 0.215 0 0.04 0.215 0 0.06 0.215 0 0.08 0.215 0 0.1 0.215 0 0 0.22 0 0.02 0.22 0 0.04 0.22 0 0.06 0.22 0 0.08 0.22 0 0.1 0.22 0 0 0.225 0 0.02 0.225 0 0.04 0.225 0 0.06 0.225 0 0.08 0.225 0 0.1 0.225 0 0 0.23 0 0.02 0.23 0 0.04 0.23 0 0.06 0.23 0 0.08 0.23 0 0.1 0.23 0 0 0.235 0 0.02 0.235 0 0.04 0.235 0 0.06 0.235 0 0.08 0.235 0 0.1 0.235 0 0 0.24 0 0.02 0.24 0 0.04 0.24 0 0.06 0.24 0 0.08 0.24 0 0.1 0.24 0 0 0.245 0 0.02 0.245 0 0.04 0.245 0 0.06 0.245 0 0.08 0.245 0 0.1 0.245 0 0 0.25 0 0.02 0.25 0 0.04 0.25 0 0.06 0.25 0 0.08 0.25 0 0.1 0.25 0 0 0.255 0 0.02 0.255 0 0.04 0.255 0 0.06 0.255 0 0.08 0.255 0 0.1 0.255 0 0 0.26 0 0.02 0.26 0 0.04 0.26 0 0.06 0.26 0 0.08 0.26 0 0.1 0.26 0 0 0.265 0 0.02 0.265 0 0.04 0.265 0 0.06 0.265 0 0.08 0.265 0 0.1 0.265 0 0 0.27 0 0.02 0.27 0 0.04 0.27 0 0.06 0.27 0 0.08 0.27 0 0.1 0.27 0 0 0.275 0 0.02 0.275 0 0.04 0.275 0 0.06 0.275 0 0.08 0.275 0 0.1 0.275 0 0 0.28 0 0.02 0.28 0 0.04 0.28 0 0.06 0.28 0 0.08 0.28 0 0.1 0.28 0 0 0.285 0 0.02 0.285 0 0.04 0.285 0 0.06 0.285 0 0.08 0.285 0 0.1 0.285 0 0 0.29 0 0.02 0.29 0 0.04 0.29 0 0.06 0.29 0 0.08 0.29 0 0.1 0.29 0 0 0.295 0 0.02 0.295 0 0.04 0.295 0 0.06 0.295 0 0.08 0.295 0 0.1 0.295 0 0 0.3 0 0.02 0.3 0 0.04 0.3 0 0.06 0.3 0 0.08 0.3 0 0.1 0.3 0 0 0.305 0 0.02 0.305 0 0.04 0.305 0 0.06 0.305 0 0.08 0.305 0 0.1 0.305 0 0 0.31 0 0.02 0.31 0 0.04 0.31 0 0.06 0.31 0 0.08 0.31 0 0.1 0.31 0 0 0.315 0 0.02 0.315 0 0.04 0.315 0 0.06 0.315 0 0.08 0.315 0 0.1 0.315 0 0 0.32 0 0.02 0.32 0 0.04 0.32 0 0.06 0.32 0 0.08 0.32 0 0.1 0.32 0 0 0.325 0 0.02 0.325 0 0.04 0.325 0 0.06 0.325 0 0.08 0.325 0 0.1 0.325 0 0 0.33 0 0.02 0.33 0 0.04 0.33 0 0.06 0.33 0 0.08 0.33 0 0.1 0.33 0 0 0.335 0 0.02 0.335 0 0.04 0.335 0 0.06 0.335 0 0.08 0.335 0 0.1 0.335 0 0 0.34 0 0.02 0.34 0 0.04 0.34 0 0.06 0.34 0 0.08 0.34 0 0.1 0.34 0 0 0.345 0 0.02 0.345 0 0.04 0.345 0 0.06 0.345 0 0.08 0.345 0 0.1 0.345 0 0 0.35 0 0.02 0.35 0 0.04 0.35 0 0.06 0.35 0 0.08 0.35 0 0.1 0.35 0 0 0.355 0 0.02 0.355 0 0.04 0.355 0 0.06 0.355 0 0.08 0.355 0 0.1 0.355 0 0 0.36 0 0.02 0.36 0 0.04 0.36 0 0.06 0.36 0 0.08 0.36 0 0.1 0.36 0 0 0.365 0 0.02 0.365 0 0.04 0.365 0 0.06 0.365 0 0.08 0.365 0 0.1 0.365 0 0 0.37 0 0.02 0.37 0 0.04 0.37 0 0.06 0.37 0 0.08 0.37 0 0.1 0.37 0 0 0.375 0 0.02 0.375 0 0.04 0.375 0 0.06 0.375 0 0.08 0.375 0 0.1 0.375 0 0 0.38 0 0.02 0.38 0 0.04 0.38 0 0.06 0.38 0 0.08 0.38 0 0.1 0.38 0 0 0.385 0 0.02 0.385 0 0.04 0.385 0 0.06 0.385 0 0.08 0.385 0 0.1 0.385 0 0 0.39 0 0.02 0.39 0 0.04 0.39 0 0.06 0.39 0 0.08 0.39 0 0.1 0.39 0 0 0.395 0 0.02 0.395 0 0.04 0.395 0 0.06 0.395 0 0.08 0.395 0 0.1 0.395 0 0 0.4 0 0.02 0.4 0 0.04 0.4 0 0.06 0.4 0 0.08 0.4 0 0.1 0.4 0 0 0.405 0 0.02 0.405 0 0.04 0.405 0 0.06 0.405 0 0.08 0.405 0 0.1 0.405 0 0 0.41 0 0.02 0.41 0 0.04 0.41 0 0.06 0.41 0 0.08 0.41 0 0.1 0.41 0 0 0.415 0 0.02 0.415 0 0.04 0.415 0 0.06 0.415 0 0.08 0.415 0 0.1 0.415 0 0 0.42 0 0.02 0.42 0 0.04 0.42 0 0.06 0.42 0 0.08 0.42 0 0.1 0.42 0 0 0.425 0 0.02 0.425 0 0.04 0.425 0 0.06 0.425 0 0.08 0.425 0 0.1 0.425 0 0 0.43 0 0.02 0.43 0 0.04 0.43 0 0.06 0.43 0 0.08 0.43 0 0.1 0.43 0 0 0.435 0 0.02 0.435 0 0.04 0.435 0 0.06 0.435 0 0.08 0.435 0 0.1 0.435 0 0 0.44 0 0.02 0.44 0 0.04 0.44 0 0.06 0.44 0 0.08 0.44 0 0.1 0.44 0 0 0.445 0 0.02 0.445 0 0.04 0.445 0 0.06 0.445 0 0.08 0.445 0 0.1 0.445 0 0 0.45 0 0.02 0.45 0 0.04 0.45 0 0.06 0.45 0 0.08 0.45 0 0.1 0.45 0 0 0.455 0 0.02 0.455 0 0.04 0.455 0 0.06 0.455 0 0.08 0.455 0 0.1 0.455 0 0 0.46 0 0.02 0.46 0 0.04 0.46 0 0.06 0.46 0 0.08 0.46 0 0.1 0.46 0 0 0.465 0 0.02 0.465 0 0.04 0.465 0 0.06 0.465 0 0.08 0.465 0 0.1 0.465 0 0 0.47 0 0.02 0.47 0 0.04 0.47 0 0.06 0.47 0 0.08 0.47 0 0.1 0.47 0 0 0.475 0 0.02 0.475 0 0.04 0.475 0 0.06 0.475 0 0.08 0.475 0 0.1 0.475 0 0 0.48 0 0.02 0.48 0 0.04 0.48 0 0.06 0.48 0 0.08 0.48 0 0.1 0.48 0 0 0.485 0 0.02 0.485 0 0.04 0.485 0 0.06 0.485 0 0.08 0.485 0 0.1 0.485 0 0 0.49 0 0.02 0.49 0 0.04 0.49 0 0.06 0.49 0 0.08 0.49 0 0.1 0.49 0 0 0.495 0 0.02 0.495 0 0.04 0.495 0 0.06 0.495 0 0.08 0.495 0 0.1 0.495 0 0 0.5 0 0.02 0.5 0 0.04 0.5 0 0.06 0.5 0 0.08 0.5 0 0.1 0.5 0 0 0.505 0 0.02 0.505 0 0.04 0.505 0 0.06 0.505 0 0.08 0.505 0 0.1 0.505 0 0 0.51 0 0.02 0.51 0 0.04 0.51 0 0.06 0.51 0 0.08 0.51 0 0.1 0.51 0 0 0.515 0 0.02 0.515 0 0.04 0.515 0 0.06 0.515 0 0.08 0.515 0 0.1 0.515 0 0 0.52 0 0.02 0.52 0 0.04 0.52 0 0.06 0.52 0 0.08 0.52 0 0.1 0.52 0 0 0.525 0 0.02 0.525 0 0.04 0.525 0 0.06 0.525 0 0.08 0.525 0 0.1 0.525 0 0 0.53 0 0.02 0.53 0 0.04 0.53 0 0.06 0.53 0 0.08 0.53 0 0.1 0.53 0 0 0.535 0 0.02 0.535 0 0.04 0.535 0 0.06 0.535 0 0.08 0.535 0 0.1 0.535 0 0 0.54 0 0.02 0.54 0 0.04 0.54 0 0.06 0.54 0 0.08 0.54 0 0.1 0.54 0 0 0.545 0 0.02 0.545 0 0.04 0.545 0 0.06 0.545 0 0.08 0.545 0 0.1 0.545 0 0 0.55 0 0.02 0.55 0 0.04 0.55 0 0.06 0.55 0 0.08 0.55 0 0.1 0.55 0 0 0.555 0 0.02 0.555 0 0.04 0.555 0 0.06 0.555 0 0.08 0.555 0 0.1 0.555 0 0 0.56 0 0.02 0.56 0 0.04 0.56 0 0.06 0.56 0 0.08 0.56 0 0.1 0.56 0 0 0.565 0 0.02 0.565 0 0.04 0.565 0 0.06 0.565 0 0.08 0.565 0 0.1 0.565 0 0 0.57 0 0.02 0.57 0 0.04 0.57 0 0.06 0.57 0 0.08 0.57 0 0.1 0.57 0 0 0.575 0 0.02 0.575 0 0.04 0.575 0 0.06 0.575 0 0.08 0.575 0 0.1 0.575 0 0 0.58 0 0.02 0.58 0 0.04 0.58 0 0.06 0.58 0 0.08 0.58 0 0.1 0.58 0 0 0.585 0 0.02 0.585 0 0.04 0.585 0 0.06 0.585 0 0.08 0.585 0 0.1 0.585 0 0 0.59 0 0.02 0.59 0 0.04 0.59 0 0.06 0.59 0 0.08 0.59 0 0.1 0.59 0 0 0.595 0 0.02 0.595 0 0.04 0.595 0 0.06 0.595 0 0.08 0.595 0 0.1 0.595 0 0 0.6 0 0.02 0.6 0 0.04 0.6 0 0.06 0.6 0 0.08 0.6 0 0.1 0.6 0 0 0.605 0 0.02 0.605 0 0.04 0.605 0 0.06 0.605 0 0.08 0.605 0 0.1 0.605 0 0 0.61 0 0.02 0.61 0 0.04 0.61 0 0.06 0.61 0 0.08 0.61 0 0.1 0.61 0 0 0.615 0 0.02 0.615 0 0.04 0.615 0 0.06 0.615 0 0.08 0.615 0 0.1 0.615 0 0 0.62 0 0.02 0.62 0 0.04 0.62 0 0.06 0.62 0 0.08 0.62 0 0.1 0.62 0 0 0.625 0 0.02 0.625 0 0.04 0.625 0 0.06 0.625 0 0.08 0.625 0 0.1 0.625 0 0 0.63 0 0.02 0.63 0 0.04 0.63 0 0.06 0.63 0 0.08 0.63 0 0.1 0.63 0 0 0.635 0 0.02 0.635 0 0.04 0.635 0 0.06 0.635 0 0.08 0.635 0 0.1 0.635 0 0 0.64 0 0.02 0.64 0 0.04 0.64 0 0.06 0.64 0 0.08 0.64 0 0.1 0.64 0 0 0.645 0 0.02 0.645 0 0.04 0.645 0 0.06 0.645 0 0.08 0.645 0 0.1 0.645 0 0 0.65 0 0.02 0.65 0 0.04 0.65 0 0.06 0.65 0 0.08 0.65 0 0.1 0.65 0 0 0.655 0 0.02 0.655 0 0.04 0.655 0 0.06 0.655 0 0.08 0.655 0 0.1 0.655 0 0 0.66 0 0.02 0.66 0 0.04 0.66 0 0.06 0.66 0 0.08 0.66 0 0.1 0.66 0 0 0.665 0 0.02 0.665 0 0.04 0.665 0 0.06 0.665 0 0.08 0.665 0 0.1 0.665 0 0 0.67 0 0.02 0.67 0 0.04 0.67 0 0.06 0.67 0 0.08 0.67 0 0.1 0.67 0 0 0.675 0 0.02 0.675 0 0.04 0.675 0 0.06 0.675 0 0.08 0.675 0 0.1 0.675 0 0 0.68 0 0.02 0.68 0 0.04 0.68 0 0.06 0.68 0 0.08 0.68 0 0.1 0.68 0 0 0.685 0 0.02 0.685 0 0.04 0.685 0 0.06 0.685 0 0.08 0.685 0 0.1 0.685 0 0 0.69 0 0.02 0.69 0 0.04 0.69 0 0.06 0.69 0 0.08 0.69 0 0.1 
[...]
			<PointData Scalars="VitesseX">
				<DataArray Name="VitesseX" type="Float32" format="ascii">
 0 4.57759e-15 -3.60568e-14 1.1024e-15 8.45609e-15 0 0 2.09988e-15 -3.31334e-14 -6.75168e-15 1.64355e-14 0 0 -2.45374e-14 2.65634e-15 -3.25807e-14 3.09686e-14 0 0 1.31414e-14 -3.85311e-14 7.459e-16 1.55307e-14 0 0 1.20739e-14 -2.70089e-14 -2.70031e-14 3.15291e-14 0 0 -5.61637e-14 3.53748e-14 -6.8473e-14 3.85215e-14 0 0 -3.14005e-14 -5.21283e-14 4.86625e-14 -5.59547e-14 0 0 2.72314e-14 -1.25336e-13 1.20759e-13 -1.38263e-13 0 0 8.29098e-15 -7.16741e-14 2.97635e-14 -7.35862e-14 0 0 -5.21112e-14 3.63278e-14 -1.24107e-13 5.85808e-14 0 0 2.24753e-15 -4.16139e-14 -9.53358e-14 6.56257e-14 0 0 -4.80979e-14 -1.94662e-14 -9.20382e-14 1.58601e-14 0 0 3.26026e-14 -1.33761e-13 2.86387e-14 -1.04345e-13 0 0 -2.68691e-14 -6.41018e-14 -1.46652e-15 -8.75467e-14 0 0 -1.03364e-13 5.06832e-16 -6.7611e-14 -2.33591e-14 0 0 4.93141e-14 -2.35954e-13 1.00262e-13 -8.24011e-14 0 0 -1.30347e-13 2.36523e-14 -6.85188e-14 1.46289e-14 0 0 -7.37884e-14 -4.1586e-15 -7.34525e-14 1.06708e-13 0 0 -5.5636e-14 1.49212e-15 -1.30286e-13 2.06158e-13 0 0 -1.02357e-13 3.53683e-14 -1.17698e-13 1.29425e-13 0 0 6.22969e-14 -2.25455e-13 1.40684e-13 -1.16264e-13 0 0 3.80595e-14 -2.02657e-13 9.26932e-14 -1.20775e-13 0 0 -9.34869e-14 2.33705e-14 -2.0188e-13 3.29855e-14 0 0 -1.59577e-13 1.30311e-13 -3.13289e-13 5.30756e-14 0 0 1.51702e-14 -1.82298e-13 3.06996e-14 -1.87549e-13 0 0 1.99425e-13 -4.52053e-13 2.76489e-13 -3.57528e-13 0 0 1.12497e-14 -1.2222e-13 -7.15586e-14 -1.28493e-13 0 0 -1.39994e-13 1.73976e-13 -3.85853e-13 1.14928e-13 0 0 -2.74418e-14 1.90277e-14 -2.35561e-13 1.85907e-14 0 0 1.12291e-13 -2.52384e-13 6.45349e-14 -1.79727e-13 0 0 3.86768e-15 -1.77317e-13 4.70416e-14 -1.45703e-13 0 0 8.40697e-15 -1.89157e-13 4.21656e-14 -1.46975e-13 0 0 1.974e-14 -1.49028e-13 -3.62254e-14 -9.96654e-14 0 0 -1.9529e-13 1.76817e-13 -3.43059e-13 9.70488e-14 0 0 1.98124e-14 -1.91658e-13 -3.36884e-15 -1.10586e-13 0 0 1.01926e-13 -3.89177e-13 1.81933e-13 -1.76762e-13 0 0 1.10358e-13 -3.37233e-13 2.48838e-14 1.1668e-13 0 0 -1.43558e-13 1.36018e-13 -4.11037e-13 5.09148e-13 0 0 -1.30524e-13 1.10765e-13 -3.93802e-13 5.59377e-13 0 0 5.11053e-14 -2.33976e-13 -8.64454e-14 2.85376e-13 0 0 2.66855e-15 -2.02964e-13 -7.10153e-15 -3.86275e-15 0 0 7.02209e-14 -2.58146e-13 4.22011e-14 -1.72939e-13 0 0 -1.62509e-13 6.97946e-14 -2.14433e-13 -8.66238e-14 0 0 -6.23173e-14 -1.31229e-13 4.24283e-14 -2.65563e-13 0 0 2.32777e-13 -5.43763e-13 3.30094e-13 -3.92594e-13 0 0 -5.67865e-14 -7.4456e-14 -2.17746e-13 2.56424e-14 0 0 1.00642e-14 -3.71168e-14 -4.78735e-13 3.36755e-13 0 0 -1.74847e-14 -2.65891e-14 -4.75589e-13 3.05913e-13 0 0 -1.57287e-13 -2.20324e-14 -2.888e-13 1.70876e-14 0 0 1.47807e-13 -5.92141e-13 2.62263e-13 -3.62947e-13 0 0 1.34236e-13 -7.08361e-13 4.06253e-13 -4.16082e-13 0 0 1.87822e-13 -7.35079e-13 2.12832e-13 -3.70135e-14 0 0 -3.91407e-13 2.009e-13 -6.52718e-13 5.84324e-13 0 0 -1.77496e-13 -1.94957e-14 -3.50825e-13 2.66796e-13 0 0 1.8355e-13 -7.17337e-13 2.82499e-13 -9.52605e-14 0 0 -3.33567e-13 -2.22963e-13 -1.16156e-13 1.94159e-13 0 0 1.1507e-13 -6.08231e-13 2.00074e-13 -1.60219e-13 0 0 1.95458e-14 -3.42278e-13 6.2104e-14 -2.33298e-13 0 0 1.01783e-13 -3.89122e-13 1.33145e-13 -2.60805e-13 0 0 3.31249e-13 -6.94963e-13 3.30013e-13 -2.32207e-13 0 0 -2.00324e-13 -9.96052e-14 -2.38686e-13 3.00571e-13 0 0 -2.90818e-13 1.69431e-14 -4.06241e-13 4.32105e-13 0 0 -2.1808e-13 -1.47075e-13 -1.08699e-13 1.37712e-13 0 0 1.23492e-13 -5.61813e-13 5.32982e-13 -5.10923e-13 0 0 6.64171e-14 -4.28025e-13 3.8538e-13 -4.21821e-13 0 0 -2.7856e-13 2.51253e-14 -2.38613e-13 1.6971e-13 0 0 -2.35828e-13 1.61262e-14 -3.77784e-13 3.07168e-13 0 0 -2.28467e-13 -2.80505e-14 -2.65453e-13 1.65578e-13 0 0 1.68744e-13 -4.91644e-13 2.36436e-13 -3.18476e-13 0 0 2.40005e-13 -5.27845e-13 -7.82192e-15 -7.18744e-15 0 0 -4.74287e-13 2.73939e-13 -7.47855e-13 5.66239e-13 0 0 -7.2176e-14 -3.16943e-13 -6.88498e-14 3.69918e-14 0 0 1.27004e-13 -7.37835e-13 3.33386e-13 -5.64568e-14 0 0 1.28164e-13 -8.42136e-13 4.30491e-13 2.13215e-13 0 0 -1.77584e-13 -2.65432e-13 -2.12705e-13 8.49093e-13 0 0 -5.45363e-13 1.78546e-13 -7.91202e-13 1.32748e-12 0 0 9.28508e-14 -8.60131e-13 2.34041e-13 3.24994e-13 0 0 -1.24892e-13 -6.75099e-13 3.11028e-13 -2.37485e-13 0 0 -1.89864e-14 -6.83298e-13 2.75128e-13 -4.42548e-13 0 0 -3.51989e-13 -8.14611e-14 -2.00268e-13 -3.08367e-13 0 0 -2.83389e-13 -3.51849e-13 -1.8903e-13 4.32982e-14 0 0 2.34495e-13 -9.81374e-13 -2.02529e-13 8.82794e-14 0 0 -6.43147e-13 4.2768e-13 -1.35633e-12 2.79955e-13 0 0 -2.37982e-13 -1.19978e-13 -5.80801e-13 -2.43681e-13 0 0 5.4181e-13 -1.46367e-12 7.566e-13 -8.63369e-13 0 0 -3.82465e-13 -2.04189e-13 -2.21641e-13 -5.65192e-13 0 0 -6.8885e-13 5.87755e-13 -1.2179e-12 -2.09226e-13 0 0 2.09481e-14 -4.89449e-13 -3.3971e-13 -5.62307e-13 0 0 -3.53435e-14 -5.45549e-13 4.51857e-14 -9.99277e-13 0 0 2.38495e-13 -7.66425e-13 1.87726e-13 -1.01042e-12 0 0 -1.31729e-13 8.95525e-14 -6.19216e-13 -5.03021e-13 0 0 -4.56818e-13 7.4652e-13 -1.3271e-12 -1.86966e-13 0 0 1.63985e-13 -5.56907e-13 -1.30813e-13 -4.75111e-13 0 0 6.82403e-14 -6.65531e-13 2.86339e-13 -8.5266e-13 0 0 3.76237e-13 -9.05072e-13 6.65916e-15 -4.06996e-13 0 0 -7.85355e-13 7.12321e-13 -1.38051e-12 3.98388e-13 0 0 4.98151e-14 -1.7112e-13 -5.34284e-13 -1.24616e-13 0 0 4.04016e-13 -8.50115e-13 1.72446e-13 -3.69271e-13 0 0 -4.09787e-13 -2.13497e-13 3.87938e-13 -7.51477e-13 0 0 3.09335e-13 -8.1984e-13 3.78407e-13 -2.99395e-13 0 0 1.31531e-13 -5.7841e-13 -6.62567e-14 1.06597e-13 0 0 -2.8735e-13 -1.16252e-13 -6.44106e-13 3.83722e-13 0 0 -3.50788e-13 -1.42901e-13 -5.81342e-13 2.72278e-13 0 0 -2.52611e-13 -3.64489e-13 -3.60757e-13 8.34189e-14 0 0 -7.39443e-14 -4.35587e-13 -2.64329e-13 -8.7515e-15 0 0 -4.49206e-13 1.47278e-13 -6.90735e-13 2.09083e-13 0 0 -2.475e-13 -1.52368e-13 -4.10653e-13 8.18164e-14 0 0 2.03819e-13 -8.96083e-13 4.72391e-13 -6.481e-13 0 0 2.74086e-13 -9.87717e-13 5.22355e-13 -6.68029e-13 0 0 -2.00964e-13 -1.02293e-13 -5.37232e-13 5.30433e-14 0 0 -7.61871e-13 8.68621e-13 -1.48512e-12 4.71823e-13 0 0 -1.70258e-13 -1.91223e-13 -5.01091e-13 -4.00934e-14 0 0 3.5427e-13 -1.11002e-12 5.80881e-13 -1.00301e-12 0 0 3.63348e-13 -1.09373e-12 5.93819e-13 -1.1801e-12 0 0 -2.54915e-13 1.20435e-14 -6.01877e-13 -3.48996e-13 0 0 -7.58745e-13 7.14518e-13 -1.2181e-12 7.91525e-14 0 0 -2.7043e-13 -3.48513e-13 -1.52596e-13 -3.49179e-13 0 0 4.04e-13 -1.25173e-12 7.54508e-13 -1.12354e-12 0 0 -1.39458e-13 -3.03858e-13 -2.45728e-13 -5.69161e-13 0 0 -1.63675e-13 -4.04701e-13 -4.63786e-13 1.07175e-13 0 0 -3.70025e-13 -2.37434e-13 -5.01871e-13 6.45219e-14 0 0 -5.8525e-13 -2.17331e-13 -3.58948e-13 -1.67118e-14 0 0 4.0671e-13 -1.52924e-12 6.83584e-13 -7.3281e-13 0 0 -3.53488e-13 -8.20881e-14 -7.37381e-13 -2.06131e-13 0 0 -3.12279e-13 -2.2171e-13 -7.21006e-13 2.40356e-13 0 0 -3.35427e-13 -2.68862e-13 -4.73974e-13 1.08118e-14 0 0 -5.7736e-13 -2.43188e-13 -3.38106e-13 -8.34786e-14 0 0 4.69293e-13 -1.71634e-12 8.52876e-13 -8.16898e-13 0 0 -2.43437e-13 -4.15921e-13 -3.47387e-13 -3.36606e-13 0 0 -2.87353e-13 -3.88768e-13 -4.7507e-13 1.30823e-13 0 0 -2.90252e-13 -4.191e-13 -3.00546e-13 -1.06386e-13 0 0 -5.61291e-13 -3.71946e-13 -1.66924e-13 -1.9541e-13 0 0 3.76363e-13 -1.61226e-12 8.80616e-13 -9.51897e-13 0 0 -3.05653e-13 -2.46754e-13 -3.58652e-13 -5.62958e-13 0 0 -2.81118e-13 -3.2421e-13 -5.28639e-13 6.84221e-14 0 0 -2.38524e-13 -3.73601e-13 -4.53834e-13 2.38189e-14 0 0 -4.36212e-13 -3.1766e-13 -3.58347e-13 -7.86098e-14 0 0 4.43431e-13 -1.47015e-12 5.65823e-13 -7.05366e-13 0 0 -1.42462e-13 -2.36181e-13 -5.66501e-13 -4.32949e-13 0 0 -2.48352e-13 -1.74058e-13 -5.82695e-13 -2.07258e-13 0 0 -2.01527e-14 -6.62488e-13 -2.85044e-13 -2.0478e-13 0 0 -7.47522e-13 4.48384e-13 -1.42213e-12 1.96939e-13 0 0 3.47153e-13 -1.047e-12 8.74883e-14 -9.09446e-13 0 0 5.94164e-13 -1.5672e-12 4.85278e-13 -9.56538e-13 0 0 -8.88344e-13 4.71698e-13 -1.73398e-12 5.28725e-13 0 0 -3.56902e-13 -4.64036e-13 -1.09329e-12 4.76221e-13 0 0 -4.67934e-13 -4.8909e-13 -6.89271e-13 -1.48238e-14 0 0 1.16893e-13 -1.13266e-12 2.3795e-13 -8.44486e-13 0 0 5.10297e-13 -1.64975e-12 4.46422e-13 -4.04398e-13 0 0 -9.30049e-13 4.79315e-13 -2.03518e-12 1.69056e-12 0 0 -3.37998e-13 -4.95564e-13 -1.25192e-12 1.54821e-12 0 0 -4.15206e-13 -6.29738e-13 -5.11793e-13 2.01473e-13 0 0 1.60295e-13 -1.13666e-12 2.19276e-13 -1.26164e-12 0 0 1.74017e-13 -1.13349e-12 1.72974e-13 -1.39767e-12 0 0 -4.36594e-13 -4.84669e-13 -6.50648e-13 -4.06816e-13 0 0 -4.64733e-13 -3.30949e-13 -6.91784e-13 -3.26379e-13 0 0 -5.09404e-13 -3.71062e-13 -3.08606e-13 -4.57246e-13 0 0 4.2255e-13 -1.57952e-12 6.33358e-13 -7.80144e-13 0 0 -1.09944e-13 -4.29607e-13 -8.52326e-13 1.00374e-13 0 0 -5.88911e-13 5.22094e-13 -2.36994e-12 1.30829e-12 0 0 -7.25003e-13 6.47425e-13 -2.21048e-12 7.72505e-13 0 0 -3.8293e-14 -1.18408e-12 3.57123e-13 -7.62814e-13 0 0 6.66944e-13 -2.4781e-12 1.80992e-12 -2.05114e-12 0 0 -2.49576e-13 -6.2951e-13 -5.14552e-13 -1.0199e-12 0 0 -7.99947e-13 6.78516e-13 -2.47046e-12 6.75469e-13 0 0 -6.77563e-13 5.88176e-13 -2.16296e-12 3.39568e-13 0 0 6.48134e-17 -9.70747e-13 -2.62957e-13 -8.14793e-13 0 0 5.42775e-13 -2.03043e-12 8.83832e-13 -2.3631e-12 0 0 -4.26604e-13 -5.33163e-13 -3.05018e-13 -2.48841e-12 0 0 -1.19665e-13 -1.03011e-12 1.63237e-13 -1.83752e-12 0 0 1.02946e-14 -1.07304e-12 8.40443e-14 -1.17514e-12 0 0 -1.00893e-12 6.41824e-13 -1.92899e-12 4.92366e-14 0 0 -2.78926e-14 -6.517e-13 -1.22692e-12 -3.0826e-13 0 0 -1.83524e-13 -6.89014e-13 -6.08919e-13 -8.55547e-13 0 0 -3.68597e-14 -1.24397e-12 4.2444e-13 -1.0865e-12 0 0 1.47229e-13 -1.22021e-12 1.1408e-13 -9.02688e-13 0 0 -8.51486e-13 5.17342e-13 -1.95627e-12 1.22732e-13 0 0 5.4312e-14 -7.35066e-13 -1.15875e-12 -2.03076e-13 0 0 -6.24792e-14 -7.52257e-13 -5.40461e-13 -9.96218e-13 0 0 -6.91259e-14 -1.10119e-12 3.5415e-13 -1.26667e-12 0 0 1.26039e-13 -1.23705e-12 1.48586e-13 -8.17655e-13 0 0 -8.69683e-13 5.41247e-13 -2.14529e-12 3.677e-13 0 0 -5.2834e-14 -5.44439e-13 -1.56579e-12 -8.31031e-15 0 0 -1.07246e-13 -8.00823e-13 -6.33826e-13 -7.87235e-13 0 0 -1.11902e-13 -1.12003e-12 2.35617e-13 -8.61699e-13 0 0 6.42356e-14 -1.10045e-12 -1.83525e-13 -4.61535e-13 0 0 -9.61836e-13 6.76269e-13 -2.3035e-12 5.91936e-13 0 0 -8.68057e-15 -6.40419e-13 -1.3477e-12 1.43078e-13 0 0 -9.20583e-14 -7.43198e-13 -7.19267e-13 -5.49573e-13 0 0 1.48858e-13 -1.32668e-12 3.66263e-14 -8.41399e-13 0 0 4.81586e-13 -1.3269e-12 -8.65465e-13 -3.85022e-13 0 0 -1.29816e-12 1.32496e-12 -3.46276e-12 6.24517e-13 0 0 6.35798e-13 -1.77767e-12 1.91863e-13 -1.38215e-12 0 0 1.28939e-12 -3.01145e-12 1.76368e-12 -1.98466e-12 0 0 -7.91573e-13 2.29072e-14 -1.74389e-12 4.61802e-13 0 0 -8.63702e-13 4.21647e-13 -3.03015e-12 1.58424e-12 0 0 -1.30021e-12 7.30158e-13 -2.89861e-12 1.37046e-12 0 0 5.93629e-13 -2.3378e-12 8.84731e-13 -9.61211e-13 0 0 8.21528e-13 -2.75063e-12 1.40785e-12 -1.22034e-12 0 0 -1.01855e-12 2.82468e-13 -2.45872e-12 1.29624e-12 0 0 -8.0517e-13 3.45351e-13 -3.34268e-12 2.10058e-12 0
				</DataArray>
				<DataArray Name="VitesseY" type="Float32" format="ascii">