<?xml version="1.0"?>
<VTKFile type="PolyData">
	<PolyData>
		<Piece NumberOfPoints="1206" NumberOfPolys="1000">
			<Points>
				<DataArray type="Float32" NumberOfComponents="3" format="ascii">
 0 0 0 0.02 0 0 0.04 0 0 0.06 0 0 0.08 0 0 0.1 0 0 0 0.005 0 0.02 0.005 0 0.04 0.005 0 0.06 0.005 0 0.08 0.005 0 0.1 0.005 0 0 0.01 0 0.02 0.01 0 0.04 0.01 0 0.06 0.01 0 0.08 0.01 0 0.1 0.01 0 0 0.015 0 0.02 0.015 0 0.04 0.015 0 0.06 0.015 0 0.08 0.015 0 0.1 0.015 0 0 0.02 0 0.02 0.02 0 0.04 0.02 0 0.06 0.02 0 0.08 0.02 0 0.1 0.02 0 0 0.025 0 0.02 0.025 0 0.04 0.025 0 0.06 0.025 0 0.08 0.025 0 0.1 0.025 0 0 0.03 0 0.02 0.03 0 0.04 0.03 0 0.06 0.03 0 0.08 0.03 0 0.1 0.03 0 0 0.035 0 0.02 0.035 0 0.04 0.035 0 0.06 0.035 0 0.08 0.035 0 0.1 0.035 0 0 0.04 0 0.02 0.04 0 0.04 0.04 0 0.06 0.04 0 0.08 0.04 0 0.1 0.04 0 0 0.045 0 0.02 0.045 0 0.04 0.045 0 0.06 0.045 0 0.08 0.045 0 0.1 0.045 0 0 0.05 0 0.02 0.05 0 0.04 0.05 0 0.06 0.05 0 0.08 0.05 0 0.1 0.05 0 0 0.055 0 0.02 0.055 0 0.04 0.055 0 0.06 0.055 0 0.08 0.055 0 0.1 0.055 0 0 0.06 0 0.02 0.06 0 0.04 0.06 0 0.06 0.06 0 0.08 0.06 0 0.1 0.06 0 0 0.065 0 0.02 0.065 0 0.04 0.065 0 0.06 0.065 0 0.08 0.065 0 0.1 0.065 0 0 0.07 0 0.02 0.07 0 0.04 0.07 0 0.06 0.07 0 0.08 0.07 0 0.1 0.07 0 0 0.075 0 0.02 0.075 0 0.04 0.075 0 0.06 0.075 0 0.08 0.075 0 0.1 0.075 0 0 0.08 0 0.02 0.08 0 0.04 0.08 0 0.06 0.08 0 0.08 0.08 0 0.1 0.08 0 0 0.085 0 0.02 0.085 0 0.04 0.085 0 0.06 0.085 0 0.08 0.085 0 0.1 0.085 0 0 0.09 0 0.02 0.09 0 0.04 0.09 0 0.06 0.09 0 0.08 0.09 0 0.1 0.09 0 0 0.095 0 0.02 0.095 0 0.04 0.095 0 0.06 0.095 0 0.08 0.095 0 0.1 0.095 0 0 0.1 0 0.02 0.1 0 0.04 0.1 0 0.06 0.1 0 0.08 0.1 0 0.1 0.1 0 0 0.105 0 0.02 0.105 0 0.04 0.105 0 0.06 0.105 0 0.08 0.105 0 0.1 0.105 0 0 0.11 0 0.02 0.11 0 0.04 0.11 0 0.06 0.11 0 0.08 0.11 0 0.1 0.11 0 0 0.115 0 0.02 0.115 0 0.04 0.115 0 0.06 0.115 0 0.08 0.115 0 0.1 0.115 0 0 0.12 0 0.02 0.12 0 0.04 0.12 0 0.06 0.12 0 0.08 0.12 0 0.1 0.12 0 0 0.125 0 0.02 0.125 0 0.04 0.125 0 0.06 0.125 0 0.08 0.125 0 0.1 0.125 0 0 0.13 0 0.02 0.13 0 0.04 0.13 0 0.06 0.13 0 0.08 0.13 0 0.1 0.13 0 0 0.135 0 0.02 0.135 0 0.04 0.135 0 0.06 0.135 0 0.08 0.135 0 0.1 0.135 0 0 0.14 0 0.02 0.14 0 0.04 0.14 0 0.06 0.14 0 0.08 0.14 0 0.1 0.14 0 0 0.145 0 0.02 0.145 0 0.04 0.145 0 0.06 0.145 0 0.08 0.145 0 0.1 0.145 0 0 0.15 0 0.02 0.15 0 0.04 0.15 0 0.06 0.15 0 0.08 0.15 0 0.1 0.15 0 0 0.155 0 0.02 0.155 0 0.04 0.155 0 0.06 0.155 0 0.08 0.155 0 0.1 0.155 0 0 0.16 0 0.02 0.16 0 0.04 0.16 0 0.06 0.16 0 0.08 0.16 0 0.1 0.16 0 0 0.165 0 0.02 0.165 0 0.04 0.165 0 0.06 0.165 0 0.08 0.165 0 0.1 0.165 0 0 0.17 0 0.02 0.17 0 0.04 0.17 0 0.06 0.17 0 0.08 0.17 0 0.1 0.17 0 0 0.175 0 0.02 0.175 0 0.04 0.175 0 0.06 0.175 0 0.08 0.175 0 0.1 0.175 0 0 0.18 0 0.02 0.18 0 0.04 0.18 0 0.06 0.18 0 0.08 0.18 0 0.1 0.18 0 0 0.185 0 0.02 0.185 0 0.04 0.185 0 0.06 0.185 0 0.08 0.185 0 0.1 0.185 0 0 0.19 0 0.02 0.19 0 0.04 0.19 0 0.06 0.19 0 0.08 0.19 0 0.1 0.19 0 0 0.195 0 0.02 0.195 0 0.04 0.195 0 0.06 0.195 0 0.08 0.195 0 0.1 0.195 0 0 0.2 0 0.02 0.2 0 0.04 0.2 0 0.06 0.2 0 0.08 0.2 0 0.1 0.2 0 0 0.205 0 0.02 0.205 0 0.04 0.205 0 0.06 0.205 0 0.08 0.205 0 0.1 0.205 0 0 0.21 0 0.02 0.21 0 0.04 0.21 0 0.06 0.21 0 0.08 0.21 0 0.1 0.21 0 0 0.215 0 0.02 0.215 0 0.04 0.215 0 0.06 0.215 0 0.08 0.215 0 0.1 0.215 0 0 0.22 0 0.02 0.22 0 0.04 0.22 0 0.06 0.22 0 0.08 0.22 0 0.1 0.22 0 0 0.225 0 0.02 0.225 0 0.04 0.225 0 0.06 0.225 0 0.08 0.225 0 0.1 0.225 0 0 0.23 0 0.02 0.23 0 0.04 0.23 0 0.06 0.23 0 0.08 0.23 0 0.1 0.23 0 0 0.235 0 0.02 0.235 0 0.04 0.235 0 0.06 0.235 0 0.08 0.235 0 0.1 0.235 0 0 0.24 0 0.02 0.24 0 0.04 0.24 0 0.06 0.24 0 0.08 0.24 0 0.1 0.24 0 0 0.245 0 0.02 0.245 0 0.04 0.245 0 0.06 0.245 0 0.08 0.245 0 0.1 0.245 0 0 0.25 0 0.02 0.25 0 0.04 0.25 0 0.06 0.25 0 0.08 0.25 0 0.1 0.25 0 0 0.255 0 0.02 0.255 0 0.04 0.255 0 0.06 0.255 0 0.08 0.255 0 0.1 0.255 0 0 0.26 0 0.02 0.26 0 0.04 0.26 0 0.06 0.26 0 0.08 0.26 0 0.1 0.26 0 0 0.265 0 0.02 0.265 0 0.04 0.265 0 0.06 0.265 0 0.08 0.265 0 0.1 0.265 0 0 0.27 0 0.02 0.27 0 0.04 0.27 0 0.06 0.27 0 0.08 0.27 0 0.1 0.27 0 0 0.275 0 0.02 0.275 0 0.04 0.275 0 0.06 0.275 0 0.08 0.275 0 0.1 0.275 0 0 0.28 0 0.02 0.28 0 0.04 0.28 0 0.06 0.28 0 0.08 0.28 0 0.1 0.28 0 0 0.285 0 0.02 0.285 0 0.04 0.285 0 0.06 0.285 0 0.08 0.285 0 0.1 0.285 0 0 0.29 0 0.02 0.29 0 0.04 0.29 0 0.06 0.29 0 0.08 0.29 0 0.1 0.29 0 0 0.295 0 0.02 0.295 0 0.04 0.295 0 0.06 0.295 0 0.08 0.295 0 0.1 0.295 0 0 0.3 0 0.02 0.3 0 0.04 0.3 0 0.06 0.3 0 0.08 0.3 0 0.1 0.3 0 0 0.305 0 0.02 0.305 0 0.04 0.305 0 0.06 0.305 0 0.08 0.305 0 0.1 0.305 0 0 0.31 0 0.02 0.31 0 0.04 0.31 0 0.06 0.31 0 0.08 0.31 0 0.1 0.31 0 0 0.315 0 0.02 0.315 0 0.04 0.315 0 0.06 0.315 0 0.08 0.315 0 0.1 0.315 0 0 0.32 0 0.02 0.32 0 0.04 0.32 0 0.06 0.32 0 0.08 0.32 0 0.1 0.32 0 0 0.325 0 0.02 0.325 0 0.04 0.325 0 0.06 0.325 0 0.08 0.325 0 0.1 0.325 0 0 0.33 0 0.02 0.33 0 0.04 0.33 0 0.06 0.33 0 0.08 0.33 0 0.1 0.33 0 0 0.335 0 0.02 0.335 0 0.04 0.335 0 0.06 0.335 0 0.08 0.335 0 0.1 0.335 0 0 0.34 0 0.02 0.34 0 0.04 0.34 0 0.06 0.34 0 0.08 0.34 0 0.1 0.34 0 0 0.345 0 0.02 0.345 0 0.04 0.345 0 0.06 0.345 0 0.08 0.345 0 0.1 0.345 0 0 0.35 0 0.02 0.35 0 0.04 0.35 0 0.06 0.35 0 0.08 0.35 0 0.1 0.35 0 0 0.355 0 0.02 0.355 0 0.04 0.355 0 0.06 0.355 0 0.08 0.355 0 0.1 0.355 0 0 0.36 0 0.02 0.36 0 0.04 0.36 0 0.06 0.36 0 0.08 0.36 0 0.1 0.36 0 0 0.365 0 0.02 0.365 0 0.04 0.365 0 0.06 0.365 0 0.08 0.365 0 0.1 0.365 0 0 0.37 0 0.02 0.37 0 0.04 0.37 0 0.06 0.37 0 0.08 0.37 0 0.1 0.37 0 0 0.375 0 0.02 0.375 0 0.04 0.375 0 0.06 0.375 0 0.08 0.375 0 0.1 0.375 0 0 0.38 0 0.02 0.38 0 0.04 0.38 0 0.06 0.38 0 0.08 0.38 0 0.1 0.38 0 0 0.385 0 0.02 0.385 0 0.04 0.385 0 0.06 0.385 0 0.08 0.385 0 0.1 0.385 0 0 0.39 0 0.02 0.39 0 0.04 0.39 0 0.06 0.39 0 0.08 0.39 0 0.1 0.39 0 0 0.395 0 0.02 0.395 0 0.04 0.395 0 0.06 0.395 0 0.08 0.395 0 0.1 0.395 0 0 0.4 0 0.02 0.4 0 0.04 0.4 0 0.06 0.4 0 0.08 0.4 0 0.1 0.4 0 0 0.405 0 0.02 0.405 0 0.04 0.405 0 0.06 0.405 0 0.08 0.405 0 0.1 0.405 0 0 0.41 0 0.02 0.41 0 0.04 0.41 0 0.06 0.41 0 0.08 0.41 0 0.1 0.41 0 0 0.415 0 0.02 0.415 0 0.04 0.415 0 0.06 0.415 0 0.08 0.415 0 0.1 0.415 0 0 0.42 0 0.02 0.42 0 0.04 0.42 0 0.06 0.42 0 0.08 0.42 0 0.1 0.42 0 0 0.425 0 0.02 0.425 0 0.04 0.425 0 0.06 0.425 0 0.08 0.425 0 0.1 0.425 0 0 0.43 0 0.02 0.43 0 0.04 0.43 0 0.06 0.43 0 0.08 0.43 0 0.1 0.43 0 0 0.435 0 0.02 0.435 0 0.04 0.435 0 0.06 0.435 0 0.08 0.435 0 0.1 0.435 0 0 0.44 0 0.02 0.44 0 0.04 0.44 0 0.06 0.44 0 0.08 0.44 0 0.1 0.44 0 0 0.445 0 0.02 0.445 0 0.04 0.445 0 0.06 0.445 0 0.08 0.445 0 0.1 0.445 0 0 0.45 0 0.02 0.45 0 0.04 0.45 0 0.06 0.45 0 0.08 0.45 0 0.1 0.45 0 0 0.455 0 0.02 0.455 0 0.04 0.455 0 0.06 0.455 0 0.08 0.455 0 0.1 0.455 0 0 0.46 0 0.02 0.46 0 0.04 0.46 0 0.06 0.46 0 0.08 0.46 0 0.1 0.46 0 0 0.465 0 0.02 0.465 0 0.04 0.465 0 0.06 0.465 0 0.08 0.465 0 0.1 0.465 0 0 0.47 0 0.02 0.47 0 0.04 0.47 0 0.06 0.47 0 0.08 0.47 0 0.1 0.47 0 0 0.475 0 0.02 0.475 0 0.04 0.475 0 0.06 0.475 0 0.08 0.475 0 0.1 0.475 0 0 0.48 0 0.02 0.48 0 0.04 0.48 0 0.06 0.48 0 0.08 0.48 0 0.1 0.48 0 0 0.485 0 0.02 0.485 0 0.04 0.485 0 0.06 0.485 0 0.08 0.485 0 0.1 0.485 0 0 0.49 0 0.02 0.49 0 0.04 0.49 0 0.06 0.49 0 0.08 0.49 0 0.1 0.49 0 0 0.495 0 0.02 0.495 0 0.04 0.495 0 0.06 0.495 0 0.08 0.495 0 0.1 0.495 0 0 0.5 0 0.02 0.5 0 0.04 0.5 0 0.06 0.5 0 0.08 0.5 0 0.1 0.5 0 0 0.505 0 0.02 0.505 0 0.04 0.505 0 0.06 0.505 0 0.08 0.505 0 0.1 0.505 0 0 0.51 0 0.02 0.51 0 0.04 0.51 0 0.06 0.51 0 0.08 0.51 0 0.1 0.51 0 0 0.515 0 0.02 0.515 0 0.04 0.515 0 0.06 0.515 0 0.08 0.515 0 0.1 0.515 0 0 0.52 0 0.02 0.52 0 0.04 0.52 0 0.06 0.52 0 0.08 0.52 0 0.1 0.52 0 0 0.525 0 0.02 0.525 0 0.04 0.525 0 0.06 0.525 0 0.08 0.525 0 0.1 0.525 0 0 0.53 0 0.02 0.53 0 0.04 0.53 0 0.06 0.53 0 0.08 0.53 0 0.1 0.53 0 0 0.535 0 0.02 0.535 0 0.04 0.535 0 0.06 0.535 0 0.08 0.535 0 0.1 0.535 0 0 0.54 0 0.02 0.54 0 0.04 0.54 0 0.06 0.54 0 0.08 0.54 0 0.1 0.54 0 0 0.545 0 0.02 0.545 0 0.04 0.545 0 0.06 0.545 0 0.08 0.545 0 0.1 0.545 0 0 0.55 0 0.02 0.55 0 0.04 0.55 0 0.06 0.55 0 0.08 0.55 0 0.1 0.55 0 0 0.555 0 0.02 0.555 0 0.04 0.555 0 0.06 0.555 0 0.08 0.555 0 0.1 0.555 0 0 0.56 0 0.02 0.56 0 0.04 0.56 0 0.06 0.56 0 0.08 0.56 0 0.1 0.56 0 0 0.565 0 0.02 0.565 0 0.04 0.565 0 0.06 0.565 0 0.08 0.565 0 0.1 0.565 0 0 0.57 0 0.02 0.57 0 0.04 0.57 0 0.06 0.57 0 0.08 0.57 0 0.1 0.57 0 0 0.575 0 0.02 0.575 0 0.04 0.575 0 0.06 0.575 0 0.08 0.575 0 0.1 0.575 0 0 0.58 0 0.02 0.58 0 0.04 0.58 0 0.06 0.58 0 0.08 0.58 0 0.1 0.58 0 0 0.585 0 0.02 0.585 0 0.04 0.585 0 0.06 0.585 0 0.08 0.585 0 0.1 0.585 0 0 0.59 0 0.02 0.59 0 0.04 0.59 0 0.06 0.59 0 0.08 0.59 0 0.1 0.59 0 0 0.595 0 0.02 0.595 0 0.04 0.595 0 0.06 0.595 0 0.08 0.595 0 0.1 0.595 0 0 0.6 0 0.02 0.6 0 0.04 0.6 0 0.06 0.6 0 0.08 0.6 0 0.1 0.6 0 0 0.605 0 0.02 0.605 0 0.04 0.605 0 0.06 0.605 0 0.08 0.605 0 0.1 0.605 0 0 0.61 0 0.02 0.61 0 0.04 0.61 0 0.06 0.61 0 0.08 0.61 0 0.1 0.61 0 0 0.615 0 0.02 0.615 0 0.04 0.615 0 0.06 0.615 0 0.08 0.615 0 0.1 0.615 0 0 0.62 0 0.02 0.62 0 0.04 0.62 0 0.06 0.62 0 0.08 0.62 0 0.1 0.62 0 0 0.625 0 0.02 0.625 0 0.04 0.625 0 0.06 0.625 0 0.08 0.625 0 0.1 0.625 0 0 0.63 0 0.02 0.63 0 0.04 0.63 0 0.06 0.63 0 0.08 0.63 0 0.1 0.63 0 0 0.635 0 0.02 0.635 0 0.04 0.635 0 0.06 0.635 0 0.08 0.635 0 0.1 0.635 0 0 0.64 0 0.02 0.64 0 0.04 0.64 0 0.06 0.64 0 0.08 0.64 0 0.1 0.64 0 0 0.645 0 0.02 0.645 0 0.04 0.645 0 0.06 0.645 0 0.08 0.645 0 0.1 0.645 0 0 0.65 0 0.02 0.65 0 0.04 0.65 0 0.06 0.65 0 0.08 0.65 0 0.1 0.65 0 0 0.655 0 0.02 0.655 0 0.04 0.655 0 0.06 0.655 0 0.08 0.655 0 0.1 0.655 0 0 0.66 0 0.02 0.66 0 0.04 0.66 0 0.06 0.66 0 0.08 0.66 0 0.1 0.66 0 0 0.665 0 0.02 0.665 0 0.04 0.665 0 0.06 0.665 0 0.08 0.665 0 0.1 0.665 0 0 0.67 0 0.02 0.67 0 0.04 0.67 0 0.06 0.67 0 0.08 0.67 0 0.1 0.67 0 0 0.675 0 0.02 0.675 0 0.04 0.675 0 0.06 0.675 0 0.08 0.675 0 0.1 0.675 0 0 0.68 0 0.02 0.68 0 0.04 0.68 0 0.06 0.68 0 0.08 0.68 0 0.1 0.68 0 0 0.685 0 0.02 0.685 0 0.04 0.685 0 0.06 0.685 0 0.08 0.685 0 0.1 0.685 0 0 0.69 0 0.02 0.69 0 0.04 0.69 0 0.06 0.69 0 0.08 0.69 0 0.1 
[...]
			<PointData Scalars="VitesseX">
				<DataArray Name="VitesseX" type="Float32" format="ascii">
 0 1.33719e-14 5.76161e-14 2.99787e-14 2.25154e-14 0 0 1.87205e-14 4.56695e-14 4.01066e-14 1.49122e-14 0 0 2.26803e-14 3.39332e-14 4.55153e-14 8.08313e-15 0 0 2.29708e-14 3.52978e-14 2.72588e-14 1.74766e-14 0 0 3.67665e-14 1.92468e-14 2.28144e-14 1.65156e-14 0 0 3.79261e-14 1.69278e-14 1.76063e-14 5.44804e-15 0 0 2.05049e-14 3.57727e-14 -3.08288e-15 7.9091e-15 0 0 1.82614e-14 3.23862e-14 -3.09556e-15 1.02424e-14 0 0 2.30619e-14 3.14104e-14 -1.34185e-14 2.30548e-14 0 0 3.9225e-14 1.75366e-14 -1.58944e-15 1.37573e-14 0 0 2.41103e-14 4.07294e-14 -1.46365e-14 2.38047e-14 0 0 8.70684e-15 4.85773e-14 -3.02188e-15 1.34486e-14 0 0 -1.6056e-14 6.46961e-14 1.47174e-14 -1.52435e-14 0 0 -1.49151e-14 6.04909e-14 2.70367e-14 -2.1382e-14 0 0 1.66638e-14 1.97276e-14 6.0397e-14 -2.65428e-14 0 0 -1.22798e-14 6.0142e-14 1.92027e-14 2.02526e-14 0 0 9.29852e-15 1.37071e-14 7.25525e-14 1.2866e-15 0 0 2.26311e-14 1.27547e-14 5.79371e-14 2.61728e-14 0 0 1.45278e-14 6.2614e-14 -3.3283e-14 1.28865e-13 0 0 2.86827e-14 4.63531e-14 -6.55971e-15 1.27439e-13 0 0 1.61705e-14 5.9749e-14 2.47306e-14 8.5519e-14 0 0 1.39616e-14 7.7318e-14 3.63512e-15 1.24812e-13 0 0 7.66646e-14 -1.09143e-15 7.82184e-14 8.9591e-14 0 0 1.00372e-13 -2.19685e-14 1.23809e-13 2.50842e-14 0 0 2.18963e-14 1.16158e-13 3.74471e-15 7.49222e-14 0 0 -7.48203e-15 1.70852e-13 -3.02077e-14 7.75587e-14 0 0 4.3695e-14 1.08788e-13 4.56822e-14 -5.80359e-15 0 0 8.39819e-14 9.25797e-14 1.75952e-14 -7.70121e-16 0 0 7.82455e-14 1.0049e-13 2.65177e-15 -1.89438e-14 0 0 5.38012e-14 9.52387e-14 4.85144e-14 -7.98896e-14 0 0 7.55746e-14 4.40067e-14 8.81563e-14 -6.74877e-14 0 0 8.14054e-14 2.9355e-14 7.3225e-14 -3.40665e-14 0 0 1.00889e-13 1.4485e-14 3.93073e-14 1.62503e-14 0 0 1.27477e-13 -1.51086e-14 4.77094e-14 4.10916e-14 0 0 2.36374e-14 1.54387e-13 -1.19052e-13 1.49509e-13 0 0 5.06012e-15 1.5575e-13 -5.70277e-14 8.02888e-14 0 0 5.04871e-14 7.30948e-14 8.74373e-14 -2.8236e-14 0 0 6.48692e-14 6.57001e-14 9.85948e-14 -2.03013e-14 0 0 7.81414e-14 5.38948e-14 1.09989e-13 -2.39288e-14 0 0 4.52763e-14 1.04866e-13 4.19121e-14 3.80127e-14 0 0 7.4079e-14 8.09904e-14 3.73271e-14 4.4385e-14 0 0 1.17531e-13 7.4929e-14 1.99817e-14 1.57176e-14 0 0 1.60338e-13 3.51908e-14 5.4532e-14 -2.64496e-14 0 0 8.94622e-14 1.16121e-13 -3.29545e-15 3.90382e-14 0 0 -1.38062e-14 2.20627e-13 -5.8864e-14 9.10884e-14 0 0 2.27016e-14 1.1349e-13 8.07729e-14 5.62988e-15 0 0 8.27723e-14 -1.53596e-14 1.61158e-13 -9.67466e-15 0 0 7.3416e-14 -5.29887e-14 1.78181e-13 1.47922e-14 0 0 1.88595e-14 1.62066e-15 2.09638e-13 -3.46681e-14 0 0 -7.67807e-14 1.49065e-13 1.3095e-13 -1.86568e-14 0 0 -1.24872e-13 2.43108e-13 1.15288e-14 8.16537e-14 0 0 -2.00638e-14 1.54377e-13 -1.59878e-14 1.72988e-13 0 0 1.87427e-13 -1.74698e-13 3.23626e-13 -1.23349e-14 0 0 1.00745e-13 -6.37477e-14 2.44286e-13 1.89457e-14 0 0 -1.13402e-13 2.92939e-13 -1.80834e-13 3.06234e-13 0 0 -8.04972e-14 2.15854e-13 -5.56536e-14 1.98972e-13 0 0 -5.80367e-14 1.10382e-13 1.4069e-13 5.33193e-14 0 0 2.58308e-15 2.42898e-14 1.88615e-13 8.18168e-14 0 0 2.17267e-14 6.29695e-14 1.03334e-13 1.6341e-13 0 0 -4.69461e-14 1.93983e-13 -1.97282e-14 2.43608e-13 0 0 -3.97903e-14 2.10753e-13 -1.50688e-14 1.83222e-13 0 0 3.1975e-14 1.51373e-13 1.1305e-13 -5.48988e-14 0 0 9.17154e-14 1.10077e-13 1.53063e-13 -1.43773e-13 0 0 1.31557e-13 1.03002e-13 5.46073e-14 -1.72275e-14 0 0 1.31893e-13 1.25343e-13 2.88677e-15 3.54246e-14 0 0 1.44588e-13 7.18175e-14 1.22863e-13 -6.44816e-14 0 0 1.62249e-13 4.07424e-14 1.97207e-13 -9.33241e-14 0 0 1.15361e-13 1.14202e-13 9.66298e-14 7.77923e-14 0 0 -3.5454e-14 3.6037e-13 -1.58884e-13 3.35875e-13 0 0 1.99958e-15 3.24271e-13 -8.69392e-14 3.23734e-13 0 0 2.58282e-13 -4.96304e-14 3.5269e-13 2.92497e-14 0 0 1.67424e-13 1.3434e-13 2.47119e-13 7.01287e-14 0 0 -1.05722e-13 4.68664e-13 -5.33203e-14 3.12106e-13 0 0 -1.65765e-13 4.74251e-13 -5.71887e-14 4.11812e-13 0 0 -3.27113e-14 2.11941e-13 2.36663e-13 3.20033e-13 0 0 1.46621e-13 -9.08875e-14 5.68275e-13 2.20453e-13 0 0 -2.73393e-14 2.75614e-13 1.73087e-13 5.52717e-13 0 0 -2.34026e-13 5.56501e-13 -1.75629e-14 5.89436e-13 0 0 -1.49317e-13 3.83959e-13 2.90398e-13 2.17327e-13 0 0 1.52265e-13 9.30437e-14 4.49849e-13 2.01839e-13 0 0 1.65818e-14 3.15045e-13 1.43959e-13 5.47995e-13 0 0 -1.79842e-13 4.35832e-13 3.40033e-13 2.80989e-13 0 0 2.06132e-13 -7.07096e-14 1.17179e-12 -4.23944e-13 0 0 1.40428e-13 4.80549e-13 6.92956e-13 -2.63353e-13 0 0 -1.0278e-13 1.40892e-12 -4.16922e-13 3.85319e-13 0 0 2.69606e-13 1.07901e-12 -4.17323e-13 5.20278e-13 0 0 1.02866e-12 1.38065e-13 3.80674e-13 2.93402e-14 0 0 9.3849e-13 9.93201e-14 8.3318e-13 -5.02653e-13 0 0 4.71116e-13 6.00261e-13 5.70723e-13 -3.98305e-13 0 0 1.37718e-15 1.18889e-12 1.5194e-13 -1.30296e-13 0 0 -2.18891e-13 1.36209e-12 2.02984e-14 2.72722e-14 0 0 -1.27407e-13 1.26384e-12 1.11224e-13 -2.45169e-14 0 0 2.04692e-13 8.15084e-13 3.91896e-13 -6.86983e-14 0 0 9.25013e-13 -9.78944e-14 6.44951e-13 1.19129e-13 0 0 1.17774e-12 -4.06513e-13 6.58968e-13 2.81029e-13 0 0 1.02614e-12 -2.13681e-13 5.41409e-13 2.47193e-13 0 0 6.53996e-13 2.36135e-13 3.71928e-13 1.25234e-13 0 0 1.03305e-13 7.26319e-13 1.8143e-13 -5.54243e-14 0 0 -2.1871e-13 9.96374e-13 -7.40337e-14 -6.7041e-14 0 0 -1.50471e-13 9.27939e-13 -1.76037e-13 1.50006e-14 0 0 2.85402e-13 4.59844e-13 -3.44348e-14 1.95003e-13 0 0 8.69067e-13 -2.40284e-13 2.26619e-13 3.83198e-13 0 0 9.81244e-13 -4.0064e-13 2.76121e-13 4.71576e-13 0 0 7.69379e-13 -2.4801e-13 2.34435e-13 5.03637e-13 0 0 1.35789e-13 1.06991e-13 2.90473e-13 3.66894e-13 0 0 -3.46833e-13 2.92829e-13 4.83613e-13 6.28548e-15 0 0 -3.93177e-13 2.96149e-13 5.62171e-13 -1.4303e-13 0 0 -2.84082e-13 2.39591e-13 5.28553e-13 -1.11306e-13 0 0 -9.17031e-14 1.52489e-13 4.74724e-13 -5.09977e-14 0 0 8.20229e-14 5.53732e-14 4.32954e-13 3.03275e-14 0 0 1.75583e-13 1.10152e-14 3.74708e-13 1.21693e-13 0 0 1.94861e-13 1.44041e-14 3.28457e-13 1.87509e-13 0 0 1.74268e-13 4.16174e-14 3.02131e-13 2.05854e-13 0 0 1.18402e-13 8.18228e-14 3.06431e-13 1.8759e-13 0 0 4.30127e-14 7.9072e-14 3.44907e-13 2.28306e-13 0 0 5.53081e-15 7.37587e-14 3.70801e-13 3.06502e-13 0 0 -1.47405e-14 9.72347e-14 3.47386e-13 3.7783e-13 0 0 -4.38247e-16 9.50544e-14 3.0644e-13 4.24846e-13 0 0 4.68294e-14 1.06542e-13 3.01364e-13 3.73778e-13 0 0 5.05758e-14 1.46434e-13 3.05903e-13 2.57143e-13 0 0 7.66634e-14 1.38204e-13 3.03242e-13 1.36045e-13 0 0 1.19184e-13 1.49298e-13 2.6734e-13 8.3317e-14 0 0 1.28187e-13 1.74869e-13 2.41501e-13 1.2794e-14 0 0 1.41639e-13 1.56399e-13 2.34548e-13 -3.02364e-14 0 0 1.49874e-13 1.42347e-13 1.74129e-13 2.49195e-14 0 0 1.35567e-13 1.39078e-13 1.37367e-13 2.8234e-14 0 0 1.27116e-13 1.56099e-13 1.0217e-13 -5.5618e-14 0 0 1.20049e-13 1.78035e-13 5.88852e-14 -6.90351e-14 0 0 8.71431e-14 1.31876e-13 1.65466e-13 -3.67295e-14 0 0 1.31994e-13 3.71475e-14 3.87578e-13 -2.31417e-14 0 0 1.51544e-13 7.7781e-14 4.63576e-13 -2.24302e-14 0 0 1.26095e-13 2.29558e-13 4.00009e-13 5.4023e-14 0 0 4.38663e-14 4.83167e-13 1.7469e-13 2.89205e-13 0 0 1.13748e-13 4.45727e-13 2.6889e-13 3.23778e-13 0 0 1.47293e-13 4.5017e-13 3.07828e-13 3.04567e-13 0 0 2.00611e-13 4.14031e-13 3.55695e-13 2.71477e-13 0 0 2.58775e-13 3.91462e-13 4.37626e-13 2.09857e-13 0 0 2.15578e-13 5.17866e-13 3.61002e-13 2.22312e-13 0 0 3.80728e-13 3.79688e-13 3.98475e-13 2.04024e-13 0 0 3.89932e-13 4.8369e-13 2.04354e-13 3.77212e-13 0 0 3.60798e-13 5.37809e-13 1.73144e-13 3.95202e-13 0 0 4.90319e-13 3.12766e-13 4.44741e-13 1.21929e-13 0 0 3.90399e-13 4.73573e-13 2.91406e-13 1.83015e-13 0 0 3.22603e-13 5.78372e-13 1.79083e-13 2.81033e-13 0 0 4.37677e-13 4.37822e-13 2.43149e-13 2.80288e-13 0 0 3.41117e-13 6.4095e-13 -3.64853e-14 4.56802e-13 0 0 4.5078e-13 4.47437e-13 1.38799e-13 3.39274e-13 0 0 4.59776e-13 4.13933e-13 1.36975e-13 3.59165e-13 0 0 3.13934e-13 6.43281e-13 -1.17199e-13 4.69097e-13 0 0 5.00885e-13 3.31997e-13 1.5181e-13 3.64301e-13 0 0 4.32961e-13 4.29144e-13 1.85753e-14 4.96093e-13 0 0 4.59809e-13 3.96272e-13 6.93731e-14 3.47416e-13 0 0 3.88542e-13 5.06327e-13 5.97205e-14 3.02028e-13 0 0 3.89931e-13 5.20607e-13 9.7293e-14 3.21359e-13 0 0 5.19934e-13 3.89488e-13 1.61853e-13 3.11721e-13 0 0 5.45343e-13 3.82962e-13 1.83818e-13 2.07097e-13 0 0 5.6434e-13 2.71279e-13 5.56045e-13 -2.04024e-13 0 0 2.88416e-13 6.03646e-13 4.5085e-13 -8.88321e-14 0 0 2.40263e-13 6.02233e-13 4.90009e-13 4.74761e-14 0 0 1.99252e-13 7.57252e-13 1.3196e-13 4.68609e-13 0 0 3.70357e-13 5.27457e-13 2.33906e-13 5.48121e-13 0 0 4.36107e-13 3.55993e-13 4.8484e-13 3.19976e-13 0 0 3.96484e-13 4.43449e-13 3.7597e-13 3.79867e-13 0 0 4.64908e-13 2.94163e-13 6.56187e-13 1.05634e-13 0 0 1.76136e-13 6.66985e-13 4.32533e-13 1.38707e-13 0 0 5.64141e-14 8.39461e-13 2.06094e-13 2.63915e-13 0 0 1.33086e-13 6.35224e-13 4.65686e-13 2.40235e-14 0 0 2.9301e-13 4.1795e-13 5.95188e-13 1.08738e-14 0 0 5.39523e-13 1.45707e-13 6.54953e-13 8.703e-14 0 0 2.23562e-13 3.98053e-13 6.13607e-13 2.93842e-14 0 0 -4.49967e-14 6.80036e-13 4.78779e-13 3.7877e-14 0 0 2.97268e-13 3.56485e-13 5.41017e-13 1.03571e-13 0 0 2.35354e-13 5.47071e-13 2.05607e-13 3.76101e-13 0 0 3.71504e-13 3.26909e-13 3.22899e-13 3.55426e-13 0 0 3.33814e-13 3.15761e-13 3.14308e-13 4.01096e-13 0 0 3.30977e-14 6.61661e-13 4.65661e-14 5.33155e-13 0 0 3.12957e-13 1.96154e-13 5.11333e-13 2.16314e-13 0 0 2.47612e-13 3.7451e-13 2.66956e-13 3.08794e-13 0 0 1.98657e-13 4.5201e-13 1.35143e-13 3.34181e-13 0 0 2.54773e-13 3.24906e-13 3.20828e-13 1.06058e-13 0 0 2.91232e-13 2.3852e-13 5.20627e-13 -1.5605e-13 0 0 3.02737e-13 2.59984e-13 5.30234e-13 -8.64151e-14 0 0 -3.0307e-14 7.67695e-13 -1.27609e-13 5.08148e-13 0 0 1.19252e-13 3.5759e-13 2.04594e-13 3.43459e-13 0 0 2.45666e-13 1.75544e-13 4.03619e-13 2.08636e-13 0 0 1.18926e-13 5.85107e-13 1.37151e-14 4.21185e-13 0 0 3.86257e-13 3.15614e-13 3.19964e-13 1.84756e-13 0 0 3.87015e-13 2.57912e-13 4.10732e-13 1.11146e-13 0 0 5.07409e-13 3.32699e-14 5.26879e-13 1.20626e-13 0 0 5.79788e-13 -5.26398e-14 4.51352e-13 3.49706e-13 0 0 3.90597e-13 3.23338e-13 7.45129e-14 6.2408e-13 0 0 6.01037e-13 -4.61862e-14 5.57804e-13 2.8965e-13 0 0 2.98176e-13 3.52849e-13 1.86471e-13 4.91629e-13 0 0 1.41099e-13 6.49144e-13 -1.26051e-13 7.29644e-13 0 0 5.46923e-13 2.50597e-13 9.01057e-14 6.74268e-13 0 0 5.81305e-13 4.23333e-13 -1.05119e-13 6.80504e-13 0 0 6.25368e-13 2.68247e-13 7.03093e-14 6.2956e-13 0 0 3.441e-13 6.78204e-13 -4.53386e-13 1.07761e-12 0 0 2.53047e-13 7.12166e-13 -4.56875e-13 1.10346e-12 0 0 6.40875e-13 -3.20586e-14 1.51928e-13 8.13823e-13 0 0 7.39904e-13 -1.67347e-13 1.61362e-13 8.34888e-13 0
				</DataArray>
				<DataArray Name="VitesseY" type="Float32" format="ascii">