<?xml version="1.0"?>
<VTKFile type="PolyData">
	<PolyData>
		<Piece NumberOfPoints="1206" NumberOfPolys="1000">
			<Points>
				<DataArray type="Float32" NumberOfComponents="3" format="ascii">
 0 0 0 0.02 0 0 0.04 0 0 0.06 0 0 0.08 0 0 0.1 0 0 0 0.005 0 0.02 0.005 0 0.04 0.005 0 0.06 0.005 0 0.08 0.005 0 0.1 0.005 0 0 0.01 0 0.02 0.01 0 0.04 0.01 0 0.06 0.01 0 0.08 0.01 0 0.1 0.01 0 0 0.015 0 0.02 0.015 0 0.04 0.015 0 0.06 0.015 0 0.08 0.015 0 0.1 0.015 0 0 0.02 0 0.02 0.02 0 0.04 0.02 0 0.06 0.02 0 0.08 0.02 0 0.1 0.02 0 0 0.025 0 0.02 0.025 0 0.04 0.025 0 0.06 0.025 0 0.08 0.025 0 0.1 0.025 0 0 0.03 0 0.02 0.03 0 0.04 0.03 0 0.06 0.03 0 0.08 0.03 0 0.1 0.03 0 0 0.035 0 0.02 0.035 0 0.04 0.035 0 0.06 0.035 0 0.08 0.035 0 0.1 0.035 0 0 0.04 0 0.02 0.04 0 0.04 0.04 0 0.06 0.04 0 0.08 0.04 0 0.1 0.04 0 0 0.045 0 0.02 0.045 0 0.04 0.045 0 0.06 0.045 0 0.08 0.045 0 0.1 0.045 0 0 0.05 0 0.02 0.05 0 0.04 0.05 0 0.06 0.05 0 0.08 0.05 0 0.1 0.05 0 0 0.055 0 0.02 0.055 0 0.04 0.055 0 0.06 0.055 0 0.08 0.055 0 0.1 0.055 0 0 0.06 0 0.02 0.06 0 0.04 0.06 0 0.06 0.06 0 0.08 0.06 0 0.1 0.06 0 0 0.065 0 0.02 0.065 0 0.04 0.065 0 0.06 0.065 0 0.08 0.065 0 0.1 0.065 0 0 0.07 0 0.02 0.07 0 0.04 0.07 0 0.06 0.07 0 0.08 0.07 0 0.1 0.07 0 0 0.075 0 0.02 0.075 0 0.04 0.075 0 0.06 0.075 0 0.08 0.075 0 0.1 0.075 0 0 0.08 0 0.02 0.08 0 0.04 0.08 0 0.06 0.08 0 0.08 0.08 0 0.1 0.08 0 0 0.085 0 0.02 0.085 0 0.04 0.085 0 0.06 0.085 0 0.08 0.085 0 0.1 0.085 0 0 0.09 0 0.02 0.09 0 0.04 0.09 0 0.06 0.09 0 0.08 0.09 0 0.1 0.09 0 0 0.095 0 0.02 0.095 0 0.04 0.095 0 0.06 0.095 0 0.08 0.095 0 0.1 0.095 0 0 0.1 0 0.02 0.1 0 0.04 0.1 0 0.06 0.1 0 0.08 0.1 0 0.1 0.1 0 0 0.105 0 0.02 0.105 0 0.04 0.105 0 0.06 0.105 0 0.08 0.105 0 0.1 0.105 0 0 0.11 0 0.02 0.11 0 0.04 0.11 0 0.06 0.11 0 0.08 0.11 0 0.1 0.11 0 0 0.115 0 0.02 0.115 0 0.04 0.115 0 0.06 0.115 0 0.08 0.115 0 0.1 0.115 0 0 0.12 0 0.02 0.12 0 0.04 0.12 0 0.06 0.12 0 0.08 0.12 0 0.1 0.12 0 0 0.125 0 0.02 0.125 0 0.04 0.125 0 0.06 0.125 0 0.08 0.125 0 0.1 0.125 0 0 0.13 0 0.02 0.13 0 0.04 0.13 0 0.06 0.13 0 0.08 0.13 0 0.1 0.13 0 0 0.135 0 0.02 0.135 0 0.04 0.135 0 0.06 0.135 0 0.08 0.135 0 0.1 0.135 0 0 0.14 0 0.02 0.14 0 0.04 0.14 0 0.06 0.14 0 0.08 0.14 0 0.1 0.14 0 0 0.145 0 0.02 0.145 0 0.04 0.145 0 0.06 0.145 0 0.08 0.145 0 0.1 0.145 0 0 0.15 0 0.02 0.15 0 0.04 0.15 0 0.06 0.15 0 0.08 0.15 0 0.1 0.15 0 0 0.155 0 0.02 0.155 0 0.04 0.155 0 0.06 0.155 0 0.08 0.155 0 0.1 0.155 0 0 0.16 0 0.02 0.16 0 0.04 0.16 0 0.06 0.16 0 0.08 0.16 0 0.1 0.16 0 0 0.165 0 0.02 0.165 0 0.04 0.165 0 0.06 0.165 0 0.08 0.165 0 0.1 0.165 0 0 0.17 0 0.02 0.17 0 0.04 0.17 0 0.06 0.17 0 0.08 0.17 0 0.1 0.17 0 0 0.175 0 0.02 0.175 0 0.04 0.175 0 0.06 0.175 0 0.08 0.175 0 0.1 0.175 0 0 0.18 0 0.02 0.18 0 0.04 0.18 0 0.06 0.18 0 0.08 0.18 0 0.1 0.18 0 0 0.185 0 0.02 0.185 0 0.04 0.185 0 0.06 0.185 0 0.08 0.185 0 0.1 0.185 0 0 0.19 0 0.02 0.19 0 0.04 0.19 0 0.06 0.19 0 0.08 0.19 0 0.1 0.19 0 0 0.195 0 0.02 0.195 0 0.04 0.195 0 0.06 0.195 0 0.08 0.195 0 0.1 0.195 0 0 0.2 0 0.02 0.2 0 0.04 0.2 0 0.06 0.2 0 0.08 0.2 0 0.1 0.2 0 0 0.205 0 0.02 0.205 0 0.04 0.205 0 0.06 0.205 0 0.08 0.205 0 0.1 0.205 0 0 0.21 0 0.02 0.21 0 0.04 0.21 0 0.06 0.21 0 0.08 0.21 0 0.1 0.21 0 0 0.215 0 0.02 0.215 0 0.04 0.215 0 0.06 0.215 0 0.08 0.215 0 0.1 0.215 0 0 0.22 0 0.02 0.22 0 0.04 0.22 0 0.06 0.22 0 0.08 0.22 0 0.1 0.22 0 0 0.225 0 0.02 0.225 0 0.04 0.225 0 0.06 0.225 0 0.08 0.225 0 0.1 0.225 0 0 0.23 0 0.02 0.23 0 0.04 0.23 0 0.06 0.23 0 0.08 0.23 0 0.1 0.23 0 0 0.235 0 0.02 0.235 0 0.04 0.235 0 0.06 0.235 0 0.08 0.235 0 0.1 0.235 0 0 0.24 0 0.02 0.24 0 0.04 0.24 0 0.06 0.24 0 0.08 0.24 0 0.1 0.24 0 0 0.245 0 0.02 0.245 0 0.04 0.245 0 0.06 0.245 0 0.08 0.245 0 0.1 0.245 0 0 0.25 0 0.02 0.25 0 0.04 0.25 0 0.06 0.25 0 0.08 0.25 0 0.1 0.25 0 0 0.255 0 0.02 0.255 0 0.04 0.255 0 0.06 0.255 0 0.08 0.255 0 0.1 0.255 0 0 0.26 0 0.02 0.26 0 0.04 0.26 0 0.06 0.26 0 0.08 0.26 0 0.1 0.26 0 0 0.265 0 0.02 0.265 0 0.04 0.265 0 0.06 0.265 0 0.08 0.265 0 0.1 0.265 0 0 0.27 0 0.02 0.27 0 0.04 0.27 0 0.06 0.27 0 0.08 0.27 0 0.1 0.27 0 0 0.275 0 0.02 0.275 0 0.04 0.275 0 0.06 0.275 0 0.08 0.275 0 0.1 0.275 0 0 0.28 0 0.02 0.28 0 0.04 0.28 0 0.06 0.28 0 0.08 0.28 0 0.1 0.28 0 0 0.285 0 0.02 0.285 0 0.04 0.285 0 0.06 0.285 0 0.08 0.285 0 0.1 0.285 0 0 0.29 0 0.02 0.29 0 0.04 0.29 0 0.06 0.29 0 0.08 0.29 0 0.1 0.29 0 0 0.295 0 0.02 0.295 0 0.04 0.295 0 0.06 0.295 0 0.08 0.295 0 0.1 0.295 0 0 0.3 0 0.02 0.3 0 0.04 0.3 0 0.06 0.3 0 0.08 0.3 0 0.1 0.3 0 0 0.305 0 0.02 0.305 0 0.04 0.305 0 0.06 0.305 0 0.08 0.305 0 0.1 0.305 0 0 0.31 0 0.02 0.31 0 0.04 0.31 0 0.06 0.31 0 0.08 0.31 0 0.1 0.31 0 0 0.315 0 0.02 0.315 0 0.04 0.315 0 0.06 0.315 0 0.08 0.315 0 0.1 0.315 0 0 0.32 0 0.02 0.32 0 0.04 0.32 0 0.06 0.32 0 0.08 0.32 0 0.1 0.32 0 0 0.325 0 0.02 0.325 0 0.04 0.325 0 0.06 0.325 0 0.08 0.325 0 0.1 0.325 0 0 0.33 0 0.02 0.33 0 0.04 0.33 0 0.06 0.33 0 0.08 0.33 0 0.1 0.33 0 0 0.335 0 0.02 0.335 0 0.04 0.335 0 0.06 0.335 0 0.08 0.335 0 0.1 0.335 0 0 0.34 0 0.02 0.34 0 0.04 0.34 0 0.06 0.34 0 0.08 0.34 0 0.1 0.34 0 0 0.345 0 0.02 0.345 0 0.04 0.345 0 0.06 0.345 0 0.08 0.345 0 0.1 0.345 0 0 0.35 0 0.02 0.35 0 0.04 0.35 0 0.06 0.35 0 0.08 0.35 0 0.1 0.35 0 0 0.355 0 0.02 0.355 0 0.04 0.355 0 0.06 0.355 0 0.08 0.355 0 0.1 0.355 0 0 0.36 0 0.02 0.36 0 0.04 0.36 0 0.06 0.36 0 0.08 0.36 0 0.1 0.36 0 0 0.365 0 0.02 0.365 0 0.04 0.365 0 0.06 0.365 0 0.08 0.365 0 0.1 0.365 0 0 0.37 0 0.02 0.37 0 0.04 0.37 0 0.06 0.37 0 0.08 0.37 0 0.1 0.37 0 0 0.375 0 0.02 0.375 0 0.04 0.375 0 0.06 0.375 0 0.08 0.375 0 0.1 0.375 0 0 0.38 0 0.02 0.38 0 0.04 0.38 0 0.06 0.38 0 0.08 0.38 0 0.1 0.38 0 0 0.385 0 0.02 0.385 0 0.04 0.385 0 0.06 0.385 0 0.08 0.385 0 0.1 0.385 0 0 0.39 0 0.02 0.39 0 0.04 0.39 0 0.06 0.39 0 0.08 0.39 0 0.1 0.39 0 0 0.395 0 0.02 0.395 0 0.04 0.395 0 0.06 0.395 0 0.08 0.395 0 0.1 0.395 0 0 0.4 0 0.02 0.4 0 0.04 0.4 0 0.06 0.4 0 0.08 0.4 0 0.1 0.4 0 0 0.405 0 0.02 0.405 0 0.04 0.405 0 0.06 0.405 0 0.08 0.405 0 0.1 0.405 0 0 0.41 0 0.02 0.41 0 0.04 0.41 0 0.06 0.41 0 0.08 0.41 0 0.1 0.41 0 0 0.415 0 0.02 0.415 0 0.04 0.415 0 0.06 0.415 0 0.08 0.415 0 0.1 0.415 0 0 0.42 0 0.02 0.42 0 0.04 0.42 0 0.06 0.42 0 0.08 0.42 0 0.1 0.42 0 0 0.425 0 0.02 0.425 0 0.04 0.425 0 0.06 0.425 0 0.08 0.425 0 0.1 0.425 0 0 0.43 0 0.02 0.43 0 0.04 0.43 0 0.06 0.43 0 0.08 0.43 0 0.1 0.43 0 0 0.435 0 0.02 0.435 0 0.04 0.435 0 0.06 0.435 0 0.08 0.435 0 0.1 0.435 0 0 0.44 0 0.02 0.44 0 0.04 0.44 0 0.06 0.44 0 0.08 0.44 0 0.1 0.44 0 0 0.445 0 0.02 0.445 0 0.04 0.445 0 0.06 0.445 0 0.08 0.445 0 0.1 0.445 0 0 0.45 0 0.02 0.45 0 0.04 0.45 0 0.06 0.45 0 0.08 0.45 0 0.1 0.45 0 0 0.455 0 0.02 0.455 0 0.04 0.455 0 0.06 0.455 0 0.08 0.455 0 0.1 0.455 0 0 0.46 0 0.02 0.46 0 0.04 0.46 0 0.06 0.46 0 0.08 0.46 0 0.1 0.46 0 0 0.465 0 0.02 0.465 0 0.04 0.465 0 0.06 0.465 0 0.08 0.465 0 0.1 0.465 0 0 0.47 0 0.02 0.47 0 0.04 0.47 0 0.06 0.47 0 0.08 0.47 0 0.1 0.47 0 0 0.475 0 0.02 0.475 0 0.04 0.475 0 0.06 0.475 0 0.08 0.475 0 0.1 0.475 0 0 0.48 0 0.02 0.48 0 0.04 0.48 0 0.06 0.48 0 0.08 0.48 0 0.1 0.48 0 0 0.485 0 0.02 0.485 0 0.04 0.485 0 0.06 0.485 0 0.08 0.485 0 0.1 0.485 0 0 0.49 0 0.02 0.49 0 0.04 0.49 0 0.06 0.49 0 0.08 0.49 0 0.1 0.49 0 0 0.495 0 0.02 0.495 0 0.04 0.495 0 0.06 0.495 0 0.08 0.495 0 0.1 0.495 0 0 0.5 0 0.02 0.5 0 0.04 0.5 0 0.06 0.5 0 0.08 0.5 0 0.1 0.5 0 0 0.505 0 0.02 0.505 0 0.04 0.505 0 0.06 0.505 0 0.08 0.505 0 0.1 0.505 0 0 0.51 0 0.02 0.51 0 0.04 0.51 0 0.06 0.51 0 0.08 0.51 0 0.1 0.51 0 0 0.515 0 0.02 0.515 0 0.04 0.515 0 0.06 0.515 0 0.08 0.515 0 0.1 0.515 0 0 0.52 0 0.02 0.52 0 0.04 0.52 0 0.06 0.52 0 0.08 0.52 0 0.1 0.52 0 0 0.525 0 0.02 0.525 0 0.04 0.525 0 0.06 0.525 0 0.08 0.525 0 0.1 0.525 0 0 0.53 0 0.02 0.53 0 0.04 0.53 0 0.06 0.53 0 0.08 0.53 0 0.1 0.53 0 0 0.535 0 0.02 0.535 0 0.04 0.535 0 0.06 0.535 0 0.08 0.535 0 0.1 0.535 0 0 0.54 0 0.02 0.54 0 0.04 0.54 0 0.06 0.54 0 0.08 0.54 0 0.1 0.54 0 0 0.545 0 0.02 0.545 0 0.04 0.545 0 0.06 0.545 0 0.08 0.545 0 0.1 0.545 0 0 0.55 0 0.02 0.55 0 0.04 0.55 0 0.06 0.55 0 0.08 0.55 0 0.1 0.55 0 0 0.555 0 0.02 0.555 0 0.04 0.555 0 0.06 0.555 0 0.08 0.555 0 0.1 0.555 0 0 0.56 0 0.02 0.56 0 0.04 0.56 0 0.06 0.56 0 0.08 0.56 0 0.1 0.56 0 0 0.565 0 0.02 0.565 0 0.04 0.565 0 0.06 0.565 0 0.08 0.565 0 0.1 0.565 0 0 0.57 0 0.02 0.57 0 0.04 0.57 0 0.06 0.57 0 0.08 0.57 0 0.1 0.57 0 0 0.575 0 0.02 0.575 0 0.04 0.575 0 0.06 0.575 0 0.08 0.575 0 0.1 0.575 0 0 0.58 0 0.02 0.58 0 0.04 0.58 0 0.06 0.58 0 0.08 0.58 0 0.1 0.58 0 0 0.585 0 0.02 0.585 0 0.04 0.585 0 0.06 0.585 0 0.08 0.585 0 0.1 0.585 0 0 0.59 0 0.02 0.59 0 0.04 0.59 0 0.06 0.59 0 0.08 0.59 0 0.1 0.59 0 0 0.595 0 0.02 0.595 0 0.04 0.595 0 0.06 0.595 0 0.08 0.595 0 0.1 0.595 0 0 0.6 0 0.02 0.6 0 0.04 0.6 0 0.06 0.6 0 0.08 0.6 0 0.1 0.6 0 0 0.605 0 0.02 0.605 0 0.04 0.605 0 0.06 0.605 0 0.08 0.605 0 0.1 0.605 0 0 0.61 0 0.02 0.61 0 0.04 0.61 0 0.06 0.61 0 0.08 0.61 0 0.1 0.61 0 0 0.615 0 0.02 0.615 0 0.04 0.615 0 0.06 0.615 0 0.08 0.615 0 0.1 0.615 0 0 0.62 0 0.02 0.62 0 0.04 0.62 0 0.06 0.62 0 0.08 0.62 0 0.1 0.62 0 0 0.625 0 0.02 0.625 0 0.04 0.625 0 0.06 0.625 0 0.08 0.625 0 0.1 0.625 0 0 0.63 0 0.02 0.63 0 0.04 0.63 0 0.06 0.63 0 0.08 0.63 0 0.1 0.63 0 0 0.635 0 0.02 0.635 0 0.04 0.635 0 0.06 0.635 0 0.08 0.635 0 0.1 0.635 0 0 0.64 0 0.02 0.64 0 0.04 0.64 0 0.06 0.64 0 0.08 0.64 0 0.1 0.64 0 0 0.645 0 0.02 0.645 0 0.04 0.645 0 0.06 0.645 0 0.08 0.645 0 0.1 0.645 0 0 0.65 0 0.02 0.65 0 0.04 0.65 0 0.06 0.65 0 0.08 0.65 0 0.1 0.65 0 0 0.655 0 0.02 0.655 0 0.04 0.655 0 0.06 0.655 0 0.08 0.655 0 0.1 0.655 0 0 0.66 0 0.02 0.66 0 0.04 0.66 0 0.06 0.66 0 0.08 0.66 0 0.1 0.66 0 0 0.665 0 0.02 0.665 0 0.04 0.665 0 0.06 0.665 0 0.08 0.665 0 0.1 0.665 0 0 0.67 0 0.02 0.67 0 0.04 0.67 0 0.06 0.67 0 0.08 0.67 0 0.1 0.67 0 0 0.675 0 0.02 0.675 0 0.04 0.675 0 0.06 0.675 0 0.08 0.675 0 0.1 0.675 0 0 0.68 0 0.02 0.68 0 0.04 0.68 0 0.06 0.68 0 0.08 0.68 0 0.1 0.68 0 0 0.685 0 0.02 0.685 0 0.04 0.685 0 0.06 0.685 0 0.08 0.685 0 0.1 0.685 0 0 0.69 0 0.02 0.69 0 0.04 0.69 0 0.06 0.69 0 0.08 0.69 0 0.1 
[...]
			<PointData Scalars="VitesseX">
				<DataArray Name="VitesseX" type="Float32" format="ascii">
 0 3.24914e-15 6.08129e-14 4.64653e-14 1.11293e-15 0 0 1.61923e-14 4.69813e-14 4.92584e-14 1.59073e-15 0 0 2.6268e-14 4.28297e-14 3.0655e-14 1.6399e-14 0 0 4.01089e-14 2.09915e-14 3.43202e-14 1.32642e-14 0 0 3.88263e-14 7.13253e-15 3.97648e-14 4.38283e-15 0 0 9.74519e-15 3.73327e-14 6.45682e-15 2.28906e-14 0 0 -3.77575e-15 4.87686e-14 -8.46895e-15 3.79033e-14 0 0 -1.78523e-15 4.09706e-14 -4.0721e-16 3.69387e-14 0 0 6.53922e-15 2.98854e-14 1.20327e-14 2.90178e-14 0 0 1.54934e-14 1.1701e-14 2.97912e-14 1.72626e-14 0 0 1.6549e-14 -1.26641e-15 5.08214e-14 -7.53276e-16 0 0 -5.69587e-15 2.56353e-14 3.18836e-14 1.64595e-15 0 0 1.6197e-14 -1.71129e-14 7.7016e-14 -2.71718e-14 0 0 -9.51454e-15 1.78187e-14 4.4998e-14 2.03554e-15 0 0 -2.82427e-14 6.82306e-14 -1.66995e-14 5.22496e-14 0 0 2.59175e-14 2.24361e-14 1.53247e-14 4.14814e-14 0 0 2.98778e-14 1.5806e-14 5.68767e-14 1.73413e-14 0 0 2.46228e-14 1.92253e-14 7.73119e-14 1.93534e-14 0 0 6.84343e-15 8.26023e-14 2.55498e-15 8.21799e-14 0 0 1.53669e-14 1.00601e-13 -8.59953e-15 8.45724e-14 0 0 3.1673e-14 6.9372e-14 5.8946e-14 3.11854e-14 0 0 3.18024e-14 3.98285e-14 1.10356e-13 6.14415e-15 0 0 5.77391e-14 1.41126e-14 1.18959e-13 -1.60964e-14 0 0 7.4983e-14 1.26844e-14 1.25979e-13 -6.3267e-14 0 0 2.40695e-14 8.65753e-14 7.4894e-14 -6.01299e-14 0 0 -1.5423e-14 1.50871e-13 1.0039e-15 -2.80459e-14 0 0 2.8211e-14 5.75692e-14 1.05297e-13 -7.18189e-14 0 0 8.25357e-14 -3.67461e-14 2.2104e-13 -1.24624e-13 0 0 5.7084e-14 2.72959e-14 1.54751e-13 -9.51297e-14 0 0 1.17237e-14 1.07178e-13 4.71793e-14 -1.0864e-14 0 0 3.16278e-14 7.24581e-14 5.54889e-14 7.57284e-15 0 0 3.5918e-14 6.49516e-14 7.29504e-14 -2.18383e-14 0 0 3.13488e-14 1.04096e-13 2.06415e-14 2.00962e-14 0 0 5.68975e-14 7.01785e-14 3.8143e-14 5.19041e-14 0 0 2.39414e-14 1.27805e-13 -4.33321e-14 1.40786e-13 0 0 -3.25343e-15 1.72508e-13 -5.69633e-14 1.69173e-13 0 0 5.25145e-14 8.52818e-14 7.95733e-14 9.03038e-14 0 0 7.67536e-14 6.68512e-14 1.35325e-13 2.0136e-14 0 0 8.19753e-14 4.48991e-14 1.97437e-13 -7.14032e-14 0 0 4.83993e-14 9.80651e-14 8.92696e-14 1.81424e-14 0 0 4.53476e-14 9.13762e-14 4.64085e-14 9.61708e-14 0 0 3.20868e-14 6.85593e-14 1.09655e-13 3.098e-14 0 0 -5.55855e-14 1.68128e-13 6.95955e-14 1.2978e-15 0 0 -6.40713e-14 1.89104e-13 3.78159e-14 1.26958e-14 0 0 -7.86624e-14 1.71017e-13 6.19352e-14 7.96209e-15 0 0 -2.46134e-14 4.30817e-14 2.10907e-13 -8.17878e-14 0 0 6.49658e-14 -1.00243e-13 3.75144e-13 -1.88056e-13 0 0 4.2109e-15 -3.84954e-14 3.92306e-13 -1.99959e-13 0 0 -1.27884e-13 1.83608e-13 2.12605e-13 -1.0603e-13 0 0 -2.47482e-13 3.96014e-13 -2.75965e-14 4.70256e-14 0 0 -2.44511e-13 4.02672e-13 -9.59893e-14 1.22091e-13 0 0 -1.24326e-13 2.24691e-13 4.3359e-14 7.21956e-14 0 0 -1.12123e-13 2.32948e-13 2.98182e-14 1.00553e-13 0 0 -3.83876e-14 1.06593e-13 1.61548e-13 4.45288e-14 0 0 -1.26897e-13 1.37028e-13 2.6072e-13 -4.95693e-14 0 0 -3.20718e-13 3.96923e-13 1.24542e-13 -4.15247e-14 0 0 -1.63135e-13 2.13601e-13 2.34432e-13 -8.16176e-14 0 0 -1.5319e-13 2.36422e-13 1.33529e-13 2.43494e-14 0 0 -1.60541e-13 2.56578e-13 9.63831e-14 4.56873e-14 0 0 -4.05561e-14 1.0996e-13 2.32168e-13 -9.31637e-14 0 0 -3.9565e-14 1.83825e-13 1.33494e-13 -7.03094e-14 0 0 -2.48393e-14 1.9846e-13 1.07322e-13 -5.38718e-14 0 0 -4.3521e-14 2.46746e-13 4.52248e-14 1.39848e-14 0 0 -2.19888e-14 2.57641e-13 4.05334e-14 1.94372e-14 0 0 8.34465e-15 2.73467e-13 3.8548e-14 4.84672e-14 0 0 5.55749e-14 2.16204e-13 8.42898e-14 1.24396e-13 0 0 1.73621e-13 -2.32393e-14 3.3092e-13 4.99814e-14 0 0 9.55985e-15 1.92587e-13 1.26958e-13 2.30693e-13 0 0 -1.04809e-13 3.85303e-13 -1.28097e-14 2.76467e-13 0 0 -1.78401e-14 2.77543e-13 1.95016e-13 4.92265e-14 0 0 -9.24165e-14 3.15768e-13 2.4213e-13 3.78304e-15 0 0 -9.47839e-14 1.70598e-13 3.65555e-13 1.47593e-14 0 0 -2.60543e-13 3.5171e-13 1.75358e-13 2.38878e-13 0 0 -2.96108e-13 3.03538e-13 3.76594e-13 1.58566e-13 0 0 -2.13097e-13 1.70439e-13 5.02655e-13 1.68801e-13 0 0 -1.97735e-13 2.38192e-13 2.83179e-13 3.38513e-13 0 0 -1.49221e-13 1.30437e-13 4.58165e-13 5.16919e-14 0 0 -4.06697e-13 6.31362e-13 1.12372e-15 2.77617e-13 0 0 -1.61196e-13 3.59178e-13 1.03567e-13 3.93885e-13 0 0 -2.64616e-13 3.40485e-13 2.93578e-13 3.19055e-13 0 0 -4.17639e-13 5.75354e-13 3.77425e-13 1.20912e-13 0 0 1.98164e-13 -3.80794e-14 9.51175e-13 -3.28538e-13 0 0 3.82515e-13 8.89529e-14 6.80812e-13 -2.00264e-13 0 0 2.59699e-13 4.36181e-13 1.38326e-13 1.98323e-13 0 0 4.00077e-13 4.34254e-13 1.09469e-14 2.84757e-13 0 0 4.00152e-13 4.37586e-13 1.78536e-13 2.95632e-16 0 0 3.53047e-13 5.89382e-13 1.28644e-13 -2.26733e-13 0 0 3.04821e-13 5.63141e-13 3.11061e-13 -4.78932e-13 0 0 3.77514e-13 4.51233e-13 4.15575e-13 -4.20965e-13 0 0 3.58611e-13 5.43862e-13 3.35806e-13 -2.47272e-13 0 0 1.72703e-13 8.86965e-13 -5.68181e-16 1.38051e-13 0 0 2.32271e-13 8.70271e-13 -2.53686e-13 5.19858e-13 0 0 4.34609e-13 7.14957e-13 -2.60588e-13 6.14006e-13 0 0 6.62444e-13 4.45466e-13 -6.97788e-14 4.81045e-13 0 0 8.89847e-13 -2.58239e-15 3.79198e-13 1.65699e-13 0 0 8.3736e-13 -1.42718e-13 6.80433e-13 -2.6531e-14 0 0 7.19287e-13 -1.11808e-13 6.89625e-13 -2.21539e-14 0 0 5.40042e-13 7.64317e-14 5.40566e-13 9.32981e-14 0 0 2.64697e-13 5.16344e-13 1.90416e-13 2.97473e-13 0 0 -1.28254e-13 1.09231e-12 -3.24283e-13 4.22596e-13 0 0 -2.85741e-13 1.27747e-12 -4.75271e-13 3.74139e-13 0 0 -1.94022e-13 1.13288e-12 -3.37726e-13 1.59356e-13 0 0 1.67683e-13 5.94912e-13 1.36285e-13 -2.16413e-13 0 0 5.77969e-13 -2.83965e-14 7.22482e-13 -4.73486e-13 0 0 6.97165e-13 -1.48996e-13 7.45213e-13 -4.12172e-13 0 0 6.73479e-13 -1.09672e-13 6.1651e-13 -2.17011e-13 0 0 4.51548e-13 1.16957e-14 5.93844e-13 -1.57586e-13 0 0 5.96563e-14 2.04039e-13 5.90948e-13 -1.64311e-13 0 0 -1.35166e-13 2.97283e-13 5.9508e-13 -1.93011e-13 0 0 -1.81555e-13 2.93616e-13 6.00002e-13 -1.95227e-13 0 0 -1.74064e-13 2.95108e-13 5.30264e-13 -1.35044e-13 0 0 -1.19338e-13 3.15213e-13 4.09375e-13 -1.49347e-14 0 0 -3.09725e-14 3.02263e-13 2.78695e-13 1.36876e-13 0 0 5.43864e-14 3.02109e-13 1.54319e-13 2.2402e-13 0 0 9.41672e-14 3.17744e-13 6.12713e-14 2.97807e-13 0 0 1.1845e-13 2.82463e-13 1.17059e-13 3.09812e-13 0 0 1.11438e-13 2.2893e-13 2.22613e-13 2.84518e-13 0 0 9.23825e-14 1.65579e-13 3.40442e-13 2.91658e-13 0 0 9.5893e-14 5.12583e-14 4.71226e-13 2.8324e-13 0 0 1.00836e-13 3.25995e-14 4.73759e-13 2.78922e-13 0 0 7.94033e-14 8.17515e-14 3.50405e-13 4.17758e-13 0 0 2.24136e-14 2.09194e-13 1.52498e-13 5.52991e-13 0 0 2.99935e-14 2.27533e-13 1.5931e-13 5.27526e-13 0 0 6.23449e-14 1.99132e-13 2.31637e-13 3.63926e-13 0 0 1.08735e-13 1.53036e-13 2.79472e-13 1.9905e-13 0 0 1.35529e-13 1.56348e-13 2.64536e-13 1.28126e-13 0 0 1.32314e-13 2.04377e-13 2.20251e-13 4.31055e-14 0 0 1.17391e-13 2.29984e-13 1.75907e-13 -2.35136e-14 0 0 8.60828e-14 2.74277e-13 7.3227e-14 1.42546e-14 0 0 7.13663e-14 2.97744e-13 3.83135e-14 5.72854e-14 0 0 8.53623e-14 2.35903e-13 1.62878e-13 4.01992e-14 0 0 7.50057e-14 2.53557e-13 1.97584e-13 6.78221e-14 0 0 8.33657e-14 2.80493e-13 1.64787e-13 1.72385e-13 0 0 1.2511e-13 2.27894e-13 2.66641e-13 3.11111e-13 0 0 1.59582e-13 3.25089e-13 2.43908e-13 3.67171e-13 0 0 2.47522e-13 3.02939e-13 4.01564e-13 1.45369e-13 0 0 2.76129e-13 3.44828e-13 4.48014e-13 6.32527e-14 0 0 2.5143e-13 5.139e-13 2.60693e-13 2.24702e-13 0 0 3.61042e-13 3.81754e-13 4.13214e-13 1.95404e-13 0 0 3.61748e-13 4.15924e-13 3.89709e-13 1.88461e-13 0 0 3.2695e-13 4.8766e-13 3.25216e-13 1.47692e-13 0 0 3.83803e-13 3.59975e-13 4.63709e-13 5.52933e-14 0 0 2.30021e-13 5.79427e-13 2.08393e-13 2.72954e-13 0 0 2.33145e-13 5.73217e-13 1.84294e-13 3.15944e-13 0 0 3.28356e-13 3.98657e-13 3.7568e-13 1.99109e-13 0 0 3.78738e-13 3.45156e-13 3.66056e-13 2.38955e-13 0 0 3.84602e-13 3.7758e-13 2.81515e-13 3.10471e-13 0 0 2.33631e-13 5.9306e-13 7.96811e-14 4.18043e-13 0 0 2.37668e-13 5.55453e-13 8.89981e-14 4.82604e-13 0 0 3.77726e-13 2.85459e-13 3.83405e-13 3.57228e-13 0 0 3.15972e-13 3.27004e-13 4.43022e-13 2.49062e-13 0 0 1.6749e-13 5.43928e-13 3.1956e-13 2.61879e-13 0 0 1.5918e-13 6.47367e-13 1.84461e-13 3.79483e-13 0 0 2.77316e-13 5.71303e-13 2.43637e-13 3.81493e-13 0 0 4.57753e-13 3.73023e-13 4.16814e-13 3.68057e-13 0 0 4.79127e-13 3.89654e-13 4.81296e-13 3.23058e-13 0 0 3.81964e-13 5.56596e-13 4.48977e-13 2.34313e-13 0 0 2.35133e-13 8.94543e-13 1.37387e-13 3.61773e-13 0 0 3.74187e-13 7.56538e-13 2.91055e-13 2.72004e-13 0 0 6.1664e-13 4.01844e-13 7.20861e-13 -2.80486e-14 0 0 7.16259e-13 3.61179e-13 7.33499e-13 4.66731e-16 0 0 3.55664e-13 1.02245e-12 5.94901e-14 5.16958e-13 0 0 8.48578e-15 1.46751e-12 -1.351e-13 4.60496e-13 0 0 2.91895e-13 9.25181e-13 3.91163e-13 2.92289e-13 0 0 6.14329e-13 4.47639e-13 7.3367e-13 3.28495e-13 0 0 7.03259e-13 3.27663e-13 8.35363e-13 2.69279e-13 0 0 3.22871e-13 9.03876e-13 3.33736e-13 5.04157e-13 0 0 1.60062e-13 1.1354e-12 2.04115e-13 4.91403e-13 0 0 4.1379e-13 7.09795e-13 5.8879e-13 2.82758e-13 0 0 4.52626e-13 6.65653e-13 5.51947e-13 2.92441e-13 0 0 4.73764e-13 6.79244e-13 4.23373e-13 4.65214e-13 0 0 4.71198e-13 5.97049e-13 5.19218e-13 5.04088e-13 0 0 3.1552e-13 7.61533e-13 5.19808e-13 4.49682e-13 0 0 2.14185e-13 8.14198e-13 6.211e-13 3.19528e-13 0 0 1.52354e-13 7.52759e-13 7.61307e-13 2.63135e-13 0 0 4.25238e-13 4.49178e-13 7.98992e-13 3.9987e-13 0 0 8.35585e-13 -7.97719e-15 9.87126e-13 3.48775e-13 0 0 6.13063e-13 3.90531e-13 6.8839e-13 3.94998e-13 0 0 2.66367e-13 8.71375e-13 4.05066e-13 4.14089e-13 0 0 1.60423e-13 7.64906e-13 8.05894e-13 6.51698e-14 0 0 1.52568e-13 7.22091e-13 7.61053e-13 1.52113e-13 0 0 5.0924e-13 3.6973e-13 7.5475e-13 2.61379e-13 0 0 6.82845e-13 2.47847e-13 7.76849e-13 2.16669e-13 0 0 5.79378e-13 5.16058e-13 3.79239e-13 5.07711e-13 0 0 4.95703e-13 6.06937e-13 2.54281e-13 5.20411e-13 0 0 5.40468e-13 4.50957e-13 5.18495e-13 1.00594e-13 0 0 4.39022e-13 5.47129e-13 3.13205e-13 3.3844e-13 0 0 4.01562e-13 6.21058e-13 1.32848e-13 7.21952e-13 0 0 6.78355e-13 2.12321e-13 4.81591e-13 6.66188e-13 0 0 5.68597e-13 3.5021e-13 4.47512e-13 6.22646e-13 0 0 2.42144e-13 7.65874e-13 3.77474e-13 4.13206e-13 0 0 5.97717e-13 2.64778e-13 7.50285e-13 2.44217e-13 0 0 6.46017e-13 4.26668e-13 2.44289e-13 6.40903e-13 0 0 1.91373e-13 1.14829e-12 -4.39559e-13 9.77394e-13 0 0 4.90204e-13 5.65346e-13 2.35035e-13 5.68648e-13 0 0 8.73428e-13 1.53299e-14 7.14116e-13 3.15899e-13 0 0 4.72984e-13 6.02769e-13 2.90298e-13 3.92225e-13 0 0 -1.31624e-13 1.4713e-12 -6.29553e-13 9.02028e-13 0 0 1.78064e-13 9.15805e-13 -3.7376e-13 8.94579e-13 0 0 8.83285e-13 -2.83336e-13 8.61157e-13 1.33392e-13 0 0 1.1437e-12 -6.72765e-13 1.32587e-12 -1.72614e-13 0
				</DataArray>
				<DataArray Name="VitesseY" type="Float32" format="ascii">