<?xml version="1.0"?>
<VTKFile type="PolyData">
	<PolyData>
		<Piece NumberOfPoints="1206" NumberOfPolys="1000">
			<Points>
				<DataArray type="Float32" NumberOfComponents="3" format="ascii">
 0 0 0 0.02 0 0 0.04 0 0 0.06 0 0 0.08 0 0 0.1 0 0 0 0.005 0 0.02 0.005 0 0.04 0.005 0 0.06 0.005 0 0.08 0.005 0 0.1 0.005 0 0 0.01 0 0.02 0.01 0 0.04 0.01 0 0.06 0.01 0 0.08 0.01 0 0.1 0.01 0 0 0.015 0 0.02 0.015 0 0.04 0.015 0 0.06 0.015 0 0.08 0.015 0 0.1 0.015 0 0 0.02 0 0.02 0.02 0 0.04 0.02 0 0.06 0.02 0 0.08 0.02 0 0.1 0.02 0 0 0.025 0 0.02 0.025 0 0.04 0.025 0 0.06 0.025 0 0.08 0.025 0 0.1 0.025 0 0 0.03 0 0.02 0.03 0 0.04 0.03 0 0.06 0.03 0 0.08 0.03 0 0.1 0.03 0 0 0.035 0 0.02 0.035 0 0.04 0.035 0 0.06 0.035 0 0.08 0.035 0 0.1 0.035 0 0 0.04 0 0.02 0.04 0 0.04 0.04 0 0.06 0.04 0 0.08 0.04 0 0.1 0.04 0 0 0.045 0 0.02 0.045 0 0.04 0.045 0 0.06 0.045 0 0.08 0.045 0 0.1 0.045 0 0 0.05 0 0.02 0.05 0 0.04 0.05 0 0.06 0.05 0 0.08 0.05 0 0.1 0.05 0 0 0.055 0 0.02 0.055 0 0.04 0.055 0 0.06 0.055 0 0.08 0.055 0 0.1 0.055 0 0 0.06 0 0.02 0.06 0 0.04 0.06 0 0.06 0.06 0 0.08 0.06 0 0.1 0.06 0 0 0.065 0 0.02 0.065 0 0.04 0.065 0 0.06 0.065 0 0.08 0.065 0 0.1 0.065 0 0 0.07 0 0.02 0.07 0 0.04 0.07 0 0.06 0.07 0 0.08 0.07 0 0.1 0.07 0 0 0.075 0 0.02 0.075 0 0.04 0.075 0 0.06 0.075 0 0.08 0.075 0 0.1 0.075 0 0 0.08 0 0.02 0.08 0 0.04 0.08 0 0.06 0.08 0 0.08 0.08 0 0.1 0.08 0 0 0.085 0 0.02 0.085 0 0.04 0.085 0 0.06 0.085 0 0.08 0.085 0 0.1 0.085 0 0 0.09 0 0.02 0.09 0 0.04 0.09 0 0.06 0.09 0 0.08 0.09 0 0.1 0.09 0 0 0.095 0 0.02 0.095 0 0.04 0.095 0 0.06 0.095 0 0.08 0.095 0 0.1 0.095 0 0 0.1 0 0.02 0.1 0 0.04 0.1 0 0.06 0.1 0 0.08 0.1 0 0.1 0.1 0 0 0.105 0 0.02 0.105 0 0.04 0.105 0 0.06 0.105 0 0.08 0.105 0 0.1 0.105 0 0 0.11 0 0.02 0.11 0 0.04 0.11 0 0.06 0.11 0 0.08 0.11 0 0.1 0.11 0 0 0.115 0 0.02 0.115 0 0.04 0.115 0 0.06 0.115 0 0.08 0.115 0 0.1 0.115 0 0 0.12 0 0.02 0.12 0 0.04 0.12 0 0.06 0.12 0 0.08 0.12 0 0.1 0.12 0 0 0.125 0 0.02 0.125 0 0.04 0.125 0 0.06 0.125 0 0.08 0.125 0 0.1 0.125 0 0 0.13 0 0.02 0.13 0 0.04 0.13 0 0.06 0.13 0 0.08 0.13 0 0.1 0.13 0 0 0.135 0 0.02 0.135 0 0.04 0.135 0 0.06 0.135 0 0.08 0.135 0 0.1 0.135 0 0 0.14 0 0.02 0.14 0 0.04 0.14 0 0.06 0.14 0 0.08 0.14 0 0.1 0.14 0 0 0.145 0 0.02 0.145 0 0.04 0.145 0 0.06 0.145 0 0.08 0.145 0 0.1 0.145 0 0 0.15 0 0.02 0.15 0 0.04 0.15 0 0.06 0.15 0 0.08 0.15 0 0.1 0.15 0 0 0.155 0 0.02 0.155 0 0.04 0.155 0 0.06 0.155 0 0.08 0.155 0 0.1 0.155 0 0 0.16 0 0.02 0.16 0 0.04 0.16 0 0.06 0.16 0 0.08 0.16 0 0.1 0.16 0 0 0.165 0 0.02 0.165 0 0.04 0.165 0 0.06 0.165 0 0.08 0.165 0 0.1 0.165 0 0 0.17 0 0.02 0.17 0 0.04 0.17 0 0.06 0.17 0 0.08 0.17 0 0.1 0.17 0 0 0.175 0 0.02 0.175 0 0.04 0.175 0 0.06 0.175 0 0.08 0.175 0 0.1 0.175 0 0 0.18 0 0.02 0.18 0 0.04 0.18 0 0.06 0.18 0 0.08 0.18 0 0.1 0.18 0 0 0.185 0 0.02 0.185 0 0.04 0.185 0 0.06 0.185 0 0.08 0.185 0 0.1 0.185 0 0 0.19 0 0.02 0.19 0 0.04 0.19 0 0.06 0.19 0 0.08 0.19 0 0.1 0.19 0 0 0.195 0 0.02 0.195 0 0.04 0.195 0 0.06 0.195 0 0.08 0.195 0 0.1 0.195 0 0 0.2 0 0.02 0.2 0 0.04 0.2 0 0.06 0.2 0 0.08 0.2 0 0.1 0.2 0 0 0.205 0 0.02 0.205 0 0.04 0.205 0 0.06 0.205 0 0.08 0.205 0 0.1 0.205 0 0 0.21 0 0.02 0.21 0 0.04 0.21 0 0.06 0.21 0 0.08 0.21 0 0.1 0.21 0 0 0.215 0 0.02 0.215 0 0.04 0.215 0 0.06 0.215 0 0.08 0.215 0 0.1 0.215 0 0 0.22 0 0.02 0.22 0 0.04 0.22 0 0.06 0.22 0 0.08 0.22 0 0.1 0.22 0 0 0.225 0 0.02 0.225 0 0.04 0.225 0 0.06 0.225 0 0.08 0.225 0 0.1 0.225 0 0 0.23 0 0.02 0.23 0 0.04 0.23 0 0.06 0.23 0 0.08 0.23 0 0.1 0.23 0 0 0.235 0 0.02 0.235 0 0.04 0.235 0 0.06 0.235 0 0.08 0.235 0 0.1 0.235 0 0 0.24 0 0.02 0.24 0 0.04 0.24 0 0.06 0.24 0 0.08 0.24 0 0.1 0.24 0 0 0.245 0 0.02 0.245 0 0.04 0.245 0 0.06 0.245 0 0.08 0.245 0 0.1 0.245 0 0 0.25 0 0.02 0.25 0 0.04 0.25 0 0.06 0.25 0 0.08 0.25 0 0.1 0.25 0 0 0.255 0 0.02 0.255 0 0.04 0.255 0 0.06 0.255 0 0.08 0.255 0 0.1 0.255 0 0 0.26 0 0.02 0.26 0 0.04 0.26 0 0.06 0.26 0 0.08 0.26 0 0.1 0.26 0 0 0.265 0 0.02 0.265 0 0.04 0.265 0 0.06 0.265 0 0.08 0.265 0 0.1 0.265 0 0 0.27 0 0.02 0.27 0 0.04 0.27 0 0.06 0.27 0 0.08 0.27 0 0.1 0.27 0 0 0.275 0 0.02 0.275 0 0.04 0.275 0 0.06 0.275 0 0.08 0.275 0 0.1 0.275 0 0 0.28 0 0.02 0.28 0 0.04 0.28 0 0.06 0.28 0 0.08 0.28 0 0.1 0.28 0 0 0.285 0 0.02 0.285 0 0.04 0.285 0 0.06 0.285 0 0.08 0.285 0 0.1 0.285 0 0 0.29 0 0.02 0.29 0 0.04 0.29 0 0.06 0.29 0 0.08 0.29 0 0.1 0.29 0 0 0.295 0 0.02 0.295 0 0.04 0.295 0 0.06 0.295 0 0.08 0.295 0 0.1 0.295 0 0 0.3 0 0.02 0.3 0 0.04 0.3 0 0.06 0.3 0 0.08 0.3 0 0.1 0.3 0 0 0.305 0 0.02 0.305 0 0.04 0.305 0 0.06 0.305 0 0.08 0.305 0 0.1 0.305 0 0 0.31 0 0.02 0.31 0 0.04 0.31 0 0.06 0.31 0 0.08 0.31 0 0.1 0.31 0 0 0.315 0 0.02 0.315 0 0.04 0.315 0 0.06 0.315 0 0.08 0.315 0 0.1 0.315 0 0 0.32 0 0.02 0.32 0 0.04 0.32 0 0.06 0.32 0 0.08 0.32 0 0.1 0.32 0 0 0.325 0 0.02 0.325 0 0.04 0.325 0 0.06 0.325 0 0.08 0.325 0 0.1 0.325 0 0 0.33 0 0.02 0.33 0 0.04 0.33 0 0.06 0.33 0 0.08 0.33 0 0.1 0.33 0 0 0.335 0 0.02 0.335 0 0.04 0.335 0 0.06 0.335 0 0.08 0.335 0 0.1 0.335 0 0 0.34 0 0.02 0.34 0 0.04 0.34 0 0.06 0.34 0 0.08 0.34 0 0.1 0.34 0 0 0.345 0 0.02 0.345 0 0.04 0.345 0 0.06 0.345 0 0.08 0.345 0 0.1 0.345 0 0 0.35 0 0.02 0.35 0 0.04 0.35 0 0.06 0.35 0 0.08 0.35 0 0.1 0.35 0 0 0.355 0 0.02 0.355 0 0.04 0.355 0 0.06 0.355 0 0.08 0.355 0 0.1 0.355 0 0 0.36 0 0.02 0.36 0 0.04 0.36 0 0.06 0.36 0 0.08 0.36 0 0.1 0.36 0 0 0.365 0 0.02 0.365 0 0.04 0.365 0 0.06 0.365 0 0.08 0.365 0 0.1 0.365 0 0 0.37 0 0.02 0.37 0 0.04 0.37 0 0.06 0.37 0 0.08 0.37 0 0.1 0.37 0 0 0.375 0 0.02 0.375 0 0.04 0.375 0 0.06 0.375 0 0.08 0.375 0 0.1 0.375 0 0 0.38 0 0.02 0.38 0 0.04 0.38 0 0.06 0.38 0 0.08 0.38 0 0.1 0.38 0 0 0.385 0 0.02 0.385 0 0.04 0.385 0 0.06 0.385 0 0.08 0.385 0 0.1 0.385 0 0 0.39 0 0.02 0.39 0 0.04 0.39 0 0.06 0.39 0 0.08 0.39 0 0.1 0.39 0 0 0.395 0 0.02 0.395 0 0.04 0.395 0 0.06 0.395 0 0.08 0.395 0 0.1 0.395 0 0 0.4 0 0.02 0.4 0 0.04 0.4 0 0.06 0.4 0 0.08 0.4 0 0.1 0.4 0 0 0.405 0 0.02 0.405 0 0.04 0.405 0 0.06 0.405 0 0.08 0.405 0 0.1 0.405 0 0 0.41 0 0.02 0.41 0 0.04 0.41 0 0.06 0.41 0 0.08 0.41 0 0.1 0.41 0 0 0.415 0 0.02 0.415 0 0.04 0.415 0 0.06 0.415 0 0.08 0.415 0 0.1 0.415 0 0 0.42 0 0.02 0.42 0 0.04 0.42 0 0.06 0.42 0 0.08 0.42 0 0.1 0.42 0 0 0.425 0 0.02 0.425 0 0.04 0.425 0 0.06 0.425 0 0.08 0.425 0 0.1 0.425 0 0 0.43 0 0.02 0.43 0 0.04 0.43 0 0.06 0.43 0 0.08 0.43 0 0.1 0.43 0 0 0.435 0 0.02 0.435 0 0.04 0.435 0 0.06 0.435 0 0.08 0.435 0 0.1 0.435 0 0 0.44 0 0.02 0.44 0 0.04 0.44 0 0.06 0.44 0 0.08 0.44 0 0.1 0.44 0 0 0.445 0 0.02 0.445 0 0.04 0.445 0 0.06 0.445 0 0.08 0.445 0 0.1 0.445 0 0 0.45 0 0.02 0.45 0 0.04 0.45 0 0.06 0.45 0 0.08 0.45 0 0.1 0.45 0 0 0.455 0 0.02 0.455 0 0.04 0.455 0 0.06 0.455 0 0.08 0.455 0 0.1 0.455 0 0 0.46 0 0.02 0.46 0 0.04 0.46 0 0.06 0.46 0 0.08 0.46 0 0.1 0.46 0 0 0.465 0 0.02 0.465 0 0.04 0.465 0 0.06 0.465 0 0.08 0.465 0 0.1 0.465 0 0 0.47 0 0.02 0.47 0 0.04 0.47 0 0.06 0.47 0 0.08 0.47 0 0.1 0.47 0 0 0.475 0 0.02 0.475 0 0.04 0.475 0 0.06 0.475 0 0.08 0.475 0 0.1 0.475 0 0 0.48 0 0.02 0.48 0 0.04 0.48 0 0.06 0.48 0 0.08 0.48 0 0.1 0.48 0 0 0.485 0 0.02 0.485 0 0.04 0.485 0 0.06 0.485 0 0.08 0.485 0 0.1 0.485 0 0 0.49 0 0.02 0.49 0 0.04 0.49 0 0.06 0.49 0 0.08 0.49 0 0.1 0.49 0 0 0.495 0 0.02 0.495 0 0.04 0.495 0 0.06 0.495 0 0.08 0.495 0 0.1 0.495 0 0 0.5 0 0.02 0.5 0 0.04 0.5 0 0.06 0.5 0 0.08 0.5 0 0.1 0.5 0 0 0.505 0 0.02 0.505 0 0.04 0.505 0 0.06 0.505 0 0.08 0.505 0 0.1 0.505 0 0 0.51 0 0.02 0.51 0 0.04 0.51 0 0.06 0.51 0 0.08 0.51 0 0.1 0.51 0 0 0.515 0 0.02 0.515 0 0.04 0.515 0 0.06 0.515 0 0.08 0.515 0 0.1 0.515 0 0 0.52 0 0.02 0.52 0 0.04 0.52 0 0.06 0.52 0 0.08 0.52 0 0.1 0.52 0 0 0.525 0 0.02 0.525 0 0.04 0.525 0 0.06 0.525 0 0.08 0.525 0 0.1 0.525 0 0 0.53 0 0.02 0.53 0 0.04 0.53 0 0.06 0.53 0 0.08 0.53 0 0.1 0.53 0 0 0.535 0 0.02 0.535 0 0.04 0.535 0 0.06 0.535 0 0.08 0.535 0 0.1 0.535 0 0 0.54 0 0.02 0.54 0 0.04 0.54 0 0.06 0.54 0 0.08 0.54 0 0.1 0.54 0 0 0.545 0 0.02 0.545 0 0.04 0.545 0 0.06 0.545 0 0.08 0.545 0 0.1 0.545 0 0 0.55 0 0.02 0.55 0 0.04 0.55 0 0.06 0.55 0 0.08 0.55 0 0.1 0.55 0 0 0.555 0 0.02 0.555 0 0.04 0.555 0 0.06 0.555 0 0.08 0.555 0 0.1 0.555 0 0 0.56 0 0.02 0.56 0 0.04 0.56 0 0.06 0.56 0 0.08 0.56 0 0.1 0.56 0 0 0.565 0 0.02 0.565 0 0.04 0.565 0 0.06 0.565 0 0.08 0.565 0 0.1 0.565 0 0 0.57 0 0.02 0.57 0 0.04 0.57 0 0.06 0.57 0 0.08 0.57 0 0.1 0.57 0 0 0.575 0 0.02 0.575 0 0.04 0.575 0 0.06 0.575 0 0.08 0.575 0 0.1 0.575 0 0 0.58 0 0.02 0.58 0 0.04 0.58 0 0.06 0.58 0 0.08 0.58 0 0.1 0.58 0 0 0.585 0 0.02 0.585 0 0.04 0.585 0 0.06 0.585 0 0.08 0.585 0 0.1 0.585 0 0 0.59 0 0.02 0.59 0 0.04 0.59 0 0.06 0.59 0 0.08 0.59 0 0.1 0.59 0 0 0.595 0 0.02 0.595 0 0.04 0.595 0 0.06 0.595 0 0.08 0.595 0 0.1 0.595 0 0 0.6 0 0.02 0.6 0 0.04 0.6 0 0.06 0.6 0 0.08 0.6 0 0.1 0.6 0 0 0.605 0 0.02 0.605 0 0.04 0.605 0 0.06 0.605 0 0.08 0.605 0 0.1 0.605 0 0 0.61 0 0.02 0.61 0 0.04 0.61 0 0.06 0.61 0 0.08 0.61 0 0.1 0.61 0 0 0.615 0 0.02 0.615 0 0.04 0.615 0 0.06 0.615 0 0.08 0.615 0 0.1 0.615 0 0 0.62 0 0.02 0.62 0 0.04 0.62 0 0.06 0.62 0 0.08 0.62 0 0.1 0.62 0 0 0.625 0 0.02 0.625 0 0.04 0.625 0 0.06 0.625 0 0.08 0.625 0 0.1 0.625 0 0 0.63 0 0.02 0.63 0 0.04 0.63 0 0.06 0.63 0 0.08 0.63 0 0.1 0.63 0 0 0.635 0 0.02 0.635 0 0.04 0.635 0 0.06 0.635 0 0.08 0.635 0 0.1 0.635 0 0 0.64 0 0.02 0.64 0 0.04 0.64 0 0.06 0.64 0 0.08 0.64 0 0.1 0.64 0 0 0.645 0 0.02 0.645 0 0.04 0.645 0 0.06 0.645 0 0.08 0.645 0 0.1 0.645 0 0 0.65 0 0.02 0.65 0 0.04 0.65 0 0.06 0.65 0 0.08 0.65 0 0.1 0.65 0 0 0.655 0 0.02 0.655 0 0.04 0.655 0 0.06 0.655 0 0.08 0.655 0 0.1 0.655 0 0 0.66 0 0.02 0.66 0 0.04 0.66 0 0.06 0.66 0 0.08 0.66 0 0.1 0.66 0 0 0.665 0 0.02 0.665 0 0.04 0.665 0 0.06 0.665 0 0.08 0.665 0 0.1 0.665 0 0 0.67 0 0.02 0.67 0 0.04 0.67 0 0.06 0.67 0 0.08 0.67 0 0.1 0.67 0 0 0.675 0 0.02 0.675 0 0.04 0.675 0 0.06 0.675 0 0.08 0.675 0 0.1 0.675 0 0 0.68 0 0.02 0.68 0 0.04 0.68 0 0.06 0.68 0 0.08 0.68 0 0.1 0.68 0 0 0.685 0 0.02 0.685 0 0.04 0.685 0 0.06 0.685 0 0.08 0.685 0 0.1 0.685 0 0 0.69 0 0.02 0.69 0 0.04 0.69 0 0.06 0.69 0 0.08 0.69 0 0.1 
[...]
			<PointData Scalars="VitesseX">
				<DataArray Name="VitesseX" type="Float32" format="ascii">
 0 2.70021e-14 -1.68336e-14 1.25894e-14 -3.96334e-15 0 0 2.05686e-14 -3.32349e-15 -2.58501e-15 1.21659e-14 0 0 1.7662e-14 6.76684e-15 -6.3447e-15 2.31718e-14 0 0 2.11289e-14 5.62794e-15 1.4213e-14 1.01664e-14 0 0 -3.68904e-15 4.28653e-14 8.01711e-15 3.81391e-15 0 0 -1.3561e-14 6.29628e-14 4.1592e-15 4.85865e-16 0 0 4.08482e-14 -1.01924e-15 5.65522e-14 -2.60225e-14 0 0 6.46209e-14 -2.12897e-14 7.42678e-14 -3.89577e-14 0 0 5.16499e-14 1.95907e-15 4.90117e-14 -2.29902e-14 0 0 1.96231e-14 4.86831e-14 -5.88684e-15 1.35812e-14 0 0 1.06413e-14 6.49688e-14 -3.17184e-14 2.33421e-14 0 0 3.7713e-14 3.00586e-14 -1.52272e-14 1.28549e-14 0 0 7.04953e-14 -1.07653e-14 2.0101e-14 -9.44137e-15 0 0 6.93377e-14 -2.34508e-15 2.46855e-14 -2.07444e-14 0 0 3.93467e-14 4.31884e-14 -1.3597e-14 5.1825e-15 0 0 7.23423e-14 -1.10409e-14 3.62526e-14 -2.05364e-14 0 0 4.92034e-14 2.04088e-14 2.87973e-15 2.1199e-15 0 0 4.97556e-15 5.32775e-14 1.16309e-14 -7.67443e-15 0 0 -1.21265e-15 5.84094e-14 7.32455e-15 8.91104e-15 0 0 1.45376e-14 5.68186e-14 -4.11353e-14 7.19618e-14 0 0 8.12456e-14 -5.9228e-14 6.65166e-14 1.20186e-14 0 0 9.37251e-14 -7.60529e-14 7.85772e-14 8.68229e-16 0 0 1.50687e-14 6.7829e-14 -6.68525e-14 8.05039e-14 0 0 -9.92307e-15 1.25048e-13 -1.32335e-13 1.31326e-13 0 0 8.3581e-14 -3.55642e-14 4.07635e-14 4.41677e-14 0 0 1.4542e-13 -1.41781e-13 1.77083e-13 -3.03581e-14 0 0 8.00001e-14 -1.40311e-14 5.14601e-14 8.51999e-14 0 0 1.1069e-15 1.22051e-13 -5.04122e-14 1.4058e-13 0 0 3.24405e-14 6.48134e-14 1.95578e-14 8.45125e-14 0 0 8.8234e-14 -3.24476e-14 1.1354e-13 3.05155e-14 0 0 1.16654e-13 -5.75127e-14 1.43472e-13 -2.62676e-14 0 0 7.91058e-14 2.54697e-15 7.76083e-14 -2.40178e-14 0 0 9.18605e-15 9.70221e-14 -9.83959e-15 -2.15709e-14 0 0 2.02495e-14 9.66059e-14 -4.90047e-14 -5.59008e-15 0 0 1.22206e-13 -5.85781e-14 4.16275e-14 -1.14604e-14 0 0 1.68806e-13 -1.41235e-13 8.16153e-14 -1.83653e-14 0 0 8.7949e-14 -1.49617e-14 -3.81765e-14 1.73115e-14 0 0 1.32905e-14 1.29178e-13 -1.75908e-13 8.65856e-14 0 0 1.63559e-14 1.4986e-13 -1.99996e-13 1.11588e-13 0 0 7.90809e-14 4.38713e-14 -3.49456e-14 -1.62442e-14 0 0 1.21617e-13 -5.86023e-14 1.12101e-13 -1.20611e-13 0 0 1.14519e-13 -5.77704e-14 1.15133e-13 -1.16767e-13 0 0 8.66841e-14 3.36049e-14 -7.27267e-15 -1.40546e-14 0 0 1.82419e-13 -6.17496e-14 6.48418e-14 -2.19715e-14 0 0 2.87421e-13 -1.63827e-13 1.67639e-13 -8.97844e-14 0 0 1.6858e-13 7.64742e-14 -1.07321e-13 1.00632e-13 0 0 1.17462e-14 3.27746e-13 -3.43042e-13 2.57799e-13 0 0 7.08292e-14 2.48083e-13 -2.67641e-13 2.23041e-13 0 0 2.32274e-13 6.67403e-15 -9.6511e-14 1.63904e-13 0 0 4.10878e-13 -3.07535e-13 1.5317e-13 5.23334e-14 0 0 5.33138e-13 -5.7913e-13 4.24238e-13 -1.08755e-13 0 0 2.58303e-13 -2.28516e-13 1.70294e-13 -6.97469e-14 0 0 -9.96805e-14 3.11056e-13 -3.17759e-13 1.74845e-13 0 0 5.44463e-14 1.33955e-13 -2.21391e-13 1.75156e-13 0 0 3.26677e-13 -2.43853e-13 7.01522e-14 5.68489e-14 0 0 3.6652e-13 -2.40522e-13 1.22379e-14 1.1236e-13 0 0 2.96059e-13 -3.42296e-14 -2.02641e-13 1.68255e-13 0 0 2.0235e-13 8.48658e-14 -2.44434e-13 9.13742e-14 0 0 2.06675e-13 3.45051e-14 -1.50411e-13 -4.2303e-14 0 0 2.58286e-13 -5.29389e-14 -7.78765e-14 -7.98006e-14 0 0 2.4542e-13 -7.3408e-14 -5.9971e-14 -1.40115e-14 0 0 1.43311e-13 -1.57424e-16 -1.0387e-13 9.70161e-14 0 0 1.33886e-13 -8.56446e-14 7.77773e-14 -1.63743e-14 0 0 1.64902e-13 -1.82964e-13 2.11632e-13 -1.18644e-13 0 0 6.65147e-14 -2.81777e-14 5.41943e-14 -1.54221e-14 0 0 2.92174e-15 9.84731e-14 -6.46515e-14 5.58066e-14 0 0 1.9466e-14 1.84959e-13 -2.27153e-13 1.8539e-13 0 0 1.40852e-13 1.93049e-14 -1.01522e-13 1.29032e-13 0 0 3.36193e-13 -3.39443e-13 2.80765e-13 -1.61895e-13 0 0 2.60772e-13 -1.67191e-13 1.16828e-13 -1.22781e-13 0 0 6.92348e-14 2.12866e-13 -2.73258e-13 1.17668e-13 0 0 2.45895e-13 3.84698e-14 -1.65836e-13 1.25717e-13 0 0 5.12754e-13 -3.25488e-13 1.64641e-13 3.98966e-14 0 0 5.10237e-13 -2.96955e-13 2.00694e-13 2.35735e-14 0 0 4.07187e-13 2.83986e-14 -2.0876e-14 1.09905e-13 0 0 2.85926e-13 3.4176e-13 -2.6742e-13 2.39201e-13 0 0 4.66496e-13 3.95286e-14 6.78937e-14 6.38036e-15 0 0 6.58288e-13 -2.66126e-13 3.98596e-13 -1.69586e-13 0 0 5.71708e-13 -4.66389e-14 6.08138e-14 1.9286e-13 0 0 4.22451e-13 1.6459e-13 -6.09453e-15 2.85224e-13 0 0 2.94162e-13 1.58917e-13 3.60627e-13 2.5564e-15 0 0 2.94032e-13 3.35764e-13 4.78976e-14 2.50464e-13 0 0 3.10254e-13 6.02355e-13 -5.28658e-13 7.49928e-13 0 0 4.04228e-13 1.95726e-13 5.25852e-14 4.46308e-13 0 0 3.80781e-13 -3.98991e-13 1.09933e-12 -2.04006e-13 0 0 -1.18916e-13 1.92374e-13 7.60029e-13 2.5916e-14 0 0 -2.8332e-13 9.87289e-13 -1.1528e-13 5.82943e-13 0 0 2.06123e-13 4.44244e-13 1.90006e-13 5.10777e-13 0 0 5.42005e-13 -1.93577e-13 8.29741e-13 9.27409e-14 0 0 5.94094e-13 -2.54312e-13 1.1356e-12 -2.63887e-13 0 0 3.30332e-13 1.3798e-13 6.98932e-13 -1.79512e-13 0 0 -4.57628e-13 1.07985e-12 6.99205e-14 -9.99957e-14 0 0 -6.41161e-13 1.20506e-12 -5.68422e-14 -8.59121e-14 0 0 -2.89095e-13 8.52024e-13 -9.12159e-16 1.04478e-13 0 0 4.85474e-13 9.20523e-14 2.65725e-13 3.2134e-13 0 0 9.42082e-13 -7.99426e-13 7.73093e-13 2.24128e-13 0 0 9.06736e-13 -9.29697e-13 8.97097e-13 9.24408e-14 0 0 5.19181e-13 -6.39208e-13 6.92685e-13 1.8215e-13 0 0 -3.49171e-13 3.00004e-13 2.26133e-14 4.708e-13 0 0 -7.88288e-13 8.96725e-13 -8.99e-13 1.06029e-12 0 0 -6.75443e-13 7.76048e-13 -9.3145e-13 1.12786e-12 0 0 4.74214e-14 7.43306e-14 -5.8204e-13 9.21615e-13 0 0 8.59341e-13 -6.65959e-13 -2.73505e-13 8.01472e-13 0 0 9.34124e-13 -7.35762e-13 -2.35949e-13 7.8277e-13 0 0 5.87418e-13 -4.64417e-13 -1.70632e-13 6.17985e-13 0 0 2.36942e-14 -1.1553e-13 -9.65676e-15 2.59608e-13 0 0 -1.38678e-13 -1.22468e-13 2.93989e-13 6.90928e-14 0 0 -1.37394e-13 -1.92774e-13 4.51093e-13 2.49102e-14 0 0 -6.82737e-14 -1.73249e-13 4.35659e-13 -4.9273e-14 0 0 1.40635e-14 -1.07378e-13 3.55749e-13 -1.20118e-13 0 0 4.20323e-14 -5.97288e-16 1.6553e-13 -6.97861e-14 0 0 6.19481e-14 8.25966e-14 1.53881e-14 -5.05697e-14 0 0 9.96887e-14 8.0194e-14 4.12023e-14 -1.38617e-13 0 0 8.55777e-14 9.93163e-14 4.3945e-14 -2.12316e-13 0 0 5.50743e-14 1.11189e-13 -2.78953e-14 -1.62477e-13 0 0 8.00469e-14 6.66941e-14 -8.57584e-14 -3.45954e-14 0 0 9.62982e-14 3.35489e-15 -1.02904e-13 1.79163e-14 0 0 6.9771e-14 1.21482e-14 -1.58695e-13 -3.05943e-14 0 0 5.81675e-14 1.30989e-14 -1.90182e-13 -7.62778e-14 0 0 7.29333e-14 -3.16921e-14 -1.42946e-13 -1.15762e-13 0 0 4.53936e-14 5.71786e-15 -1.40826e-13 -8.37017e-14 0 0 5.18267e-14 3.03346e-14 -1.16247e-13 -3.81459e-14 0 0 1.55898e-13 -8.93692e-14 4.45076e-14 -1.53244e-13 0 0 1.61751e-13 -6.59307e-14 1.44211e-13 -1.37413e-13 0 0 9.2153e-14 9.3974e-14 1.13549e-13 3.73268e-15 0 0 9.33834e-14 2.0424e-13 5.52294e-14 2.74478e-14 0 0 2.28563e-13 9.28214e-14 1.0935e-13 4.13337e-14 0 0 4.35358e-13 -2.0022e-13 3.63991e-13 -5.43207e-14 0 0 2.86428e-13 1.06391e-13 3.54502e-14 8.40482e-14 0 0 1.91445e-13 2.37827e-13 -4.85371e-14 6.21764e-14 0 0 1.43563e-13 2.36324e-13 -1.01994e-14 2.63385e-14 0 0 2.36238e-13 1.02138e-13 4.93606e-14 2.91477e-14 0 0 4.36414e-13 -2.28845e-13 3.51782e-13 -1.63345e-13 0 0 2.48858e-13 2.958e-14 7.23598e-14 4.26975e-14 0 0 2.22004e-13 1.546e-14 9.85902e-14 5.8073e-14 0 0 2.05769e-13 5.45129e-14 4.87586e-14 1.23201e-13 0 0 2.69855e-13 -2.59713e-14 1.24853e-13 1.18113e-13 0 0 4.22588e-13 -2.92135e-13 4.48079e-13 -6.3601e-14 0 0 1.57781e-13 1.18837e-13 1.19208e-13 1.97667e-13 0 0 1.7235e-13 1.02707e-13 1.93763e-13 1.62925e-13 0 0 2.07164e-13 1.17465e-13 1.39279e-13 2.25804e-13 0 0 6.84416e-15 5.29913e-13 -3.36882e-13 5.24061e-13 0 0 4.71942e-13 -1.69226e-13 3.61438e-13 1.8223e-14 0 0 6.27059e-13 -3.65634e-13 5.95049e-13 -2.00796e-13 0 0 1.14223e-13 4.60783e-13 -1.44308e-13 2.34451e-13 0 0 1.30661e-13 3.32878e-13 9.04925e-14 9.42201e-14 0 0 1.81747e-13 2.42093e-13 1.28817e-13 2.96682e-14 0 0 3.98692e-13 -1.05792e-13 4.14721e-13 -1.73155e-13 0 0 5.77871e-13 -3.51089e-13 6.2096e-13 -2.34538e-13 0 0 2.65455e-14 6.49135e-13 -4.00241e-13 4.45025e-13 0 0 1.34354e-13 5.46584e-13 -1.94258e-13 2.34095e-13 0 0 4.42119e-13 1.32748e-13 2.02245e-13 -1.27191e-13 0 0 5.40301e-13 -8.9236e-14 4.1393e-13 -3.14373e-13 0 0 4.09105e-13 2.36897e-14 3.14764e-13 -1.83319e-13 0 0 9.34498e-14 4.0917e-13 1.35123e-14 1.83548e-14 0 0 -6.12644e-15 4.34395e-13 1.89694e-14 -4.12977e-14 0 0 2.41383e-13 3.79172e-14 1.63493e-13 -4.07869e-14 0 0 6.68311e-13 -6.40117e-13 6.40156e-13 -2.13152e-13 0 0 3.16816e-13 -1.68914e-13 1.34148e-13 2.38572e-13 0 0 -1.45277e-13 4.39797e-13 -3.4895e-13 5.47214e-13 0 0 -3.12683e-13 4.93072e-13 -1.37804e-13 2.5767e-13 0 0 1.56209e-13 -4.82137e-13 9.78839e-13 -4.1627e-13 0 0 4.01501e-13 -9.71843e-13 1.55861e-12 -7.59144e-13 0 0 -2.50956e-13 8.41012e-14 3.70735e-13 4.51167e-14 0 0 -4.07106e-13 4.15791e-13 -2.91087e-13 5.66417e-13 0 0 -1.94037e-13 1.10607e-13 -5.85215e-14 4.2718e-13 0 0 -3.72721e-14 -2.13718e-13 3.06009e-13 3.11372e-13 0 0 -5.60961e-14 -3.43182e-13 6.76616e-13 3.81196e-14 0 0 -4.08132e-13 1.86171e-13 2.73076e-13 1.42326e-13 0 0 -1.27829e-13 -1.08425e-13 4.15133e-13 8.9137e-15 0 0 2.43589e-13 -4.81789e-13 5.80083e-13 -1.27704e-13 0 0 -1.73153e-13 1.63277e-13 -2.30403e-13 3.65623e-13 0 0 -1.50093e-13 -9.53435e-14 2.50829e-14 2.64505e-13 0 0 -1.73087e-14 -3.60054e-13 2.49244e-13 2.62017e-13 0 0 1.46214e-13 -4.91373e-13 2.27911e-13 3.6153e-13 0 0 1.41954e-13 -4.30646e-13 1.3991e-13 3.02919e-13 0 0 -3.93309e-13 3.49288e-13 -4.25937e-13 3.54728e-13 0 0 -1.89535e-13 4.96513e-14 -4.85871e-14 -3.73342e-14 0 0 1.57732e-14 -2.64541e-13 1.60068e-13 -8.82069e-14 0 0 1.84864e-13 -5.20446e-13 2.87847e-13 -4.85363e-14 0 0 6.72911e-15 -2.90318e-13 1.52256e-13 1.27445e-14 0 0 -4.68373e-13 4.60898e-13 -4.64586e-13 3.14554e-13 0 0 -2.01136e-13 2.06486e-13 -2.34738e-13 1.98829e-13 0 0 7.10128e-14 -1.11318e-13 -4.54274e-14 1.54769e-13 0 0 2.8811e-13 -5.37439e-13 1.86836e-13 1.20698e-13 0 0 -9.51421e-15 -2.95132e-13 5.677e-14 2.91081e-13 0 0 -4.61946e-13 4.45142e-13 -6.07931e-13 7.38983e-13 0 0 -2.88312e-14 -1.34488e-13 -1.40347e-14 2.34908e-13 0 0 2.82765e-13 -3.96411e-13 1.196e-13 1.18004e-13 0 0 5.90635e-13 -6.91395e-13 2.91746e-13 1.27567e-13 0 0 4.87177e-13 -6.32185e-13 3.49151e-13 1.76572e-13 0 0 -3.86029e-13 7.86534e-13 -9.80996e-13 9.27238e-13 0 0 4.57027e-13 -3.69351e-13 1.13839e-13 1.43413e-13 0 0 1.20614e-12 -1.50053e-12 1.13055e-12 -4.12965e-13 0 0 2.9664e-13 -6.1277e-14 -1.9944e-13 2.71547e-13 0 0 -2.59356e-13 7.45643e-13 -8.31221e-13 5.01627e-13 0 0 -2.828e-13 6.97243e-13 -7.5865e-13 5.39522e-13 0 0 7.99758e-13 -9.31378e-13 8.29901e-13 -3.75776e-13 0 0 1.06036e-12 -1.11556e-12 9.2093e-13 -3.95447e-13 0 0 -1.63852e-13 8.98315e-13 -9.53181e-13 5.49685e-13 0 0 -6.51636e-13 1.58268e-12 -1.38873e-12 5.66419e-13 0
				</DataArray>
				<DataArray Name="VitesseY" type="Float32" format="ascii">