<?xml version="1.0"?>
<VTKFile type="PolyData">
	<PolyData>
		<Piece NumberOfPoints="1206" NumberOfPolys="1000">
			<Points>
				<DataArray type="Float32" NumberOfComponents="3" format="ascii">
 0 0 0 0.02 0 0 0.04 0 0 0.06 0 0 0.08 0 0 0.1 0 0 0 0.005 0 0.02 0.005 0 0.04 0.005 0 0.06 0.005 0 0.08 0.005 0 0.1 0.005 0 0 0.01 0 0.02 0.01 0 0.04 0.01 0 0.06 0.01 0 0.08 0.01 0 0.1 0.01 0 0 0.015 0 0.02 0.015 0 0.04 0.015 0 0.06 0.015 0 0.08 0.015 0 0.1 0.015 0 0 0.02 0 0.02 0.02 0 0.04 0.02 0 0.06 0.02 0 0.08 0.02 0 0.1 0.02 0 0 0.025 0 0.02 0.025 0 0.04 0.025 0 0.06 0.025 0 0.08 0.025 0 0.1 0.025 0 0 0.03 0 0.02 0.03 0 0.04 0.03 0 0.06 0.03 0 0.08 0.03 0 0.1 0.03 0 0 0.035 0 0.02 0.035 0 0.04 0.035 0 0.06 0.035 0 0.08 0.035 0 0.1 0.035 0 0 0.04 0 0.02 0.04 0 0.04 0.04 0 0.06 0.04 0 0.08 0.04 0 0.1 0.04 0 0 0.045 0 0.02 0.045 0 0.04 0.045 0 0.06 0.045 0 0.08 0.045 0 0.1 0.045 0 0 0.05 0 0.02 0.05 0 0.04 0.05 0 0.06 0.05 0 0.08 0.05 0 0.1 0.05 0 0 0.055 0 0.02 0.055 0 0.04 0.055 0 0.06 0.055 0 0.08 0.055 0 0.1 0.055 0 0 0.06 0 0.02 0.06 0 0.04 0.06 0 0.06 0.06 0 0.08 0.06 0 0.1 0.06 0 0 0.065 0 0.02 0.065 0 0.04 0.065 0 0.06 0.065 0 0.08 0.065 0 0.1 0.065 0 0 0.07 0 0.02 0.07 0 0.04 0.07 0 0.06 0.07 0 0.08 0.07 0 0.1 0.07 0 0 0.075 0 0.02 0.075 0 0.04 0.075 0 0.06 0.075 0 0.08 0.075 0 0.1 0.075 0 0 0.08 0 0.02 0.08 0 0.04 0.08 0 0.06 0.08 0 0.08 0.08 0 0.1 0.08 0 0 0.085 0 0.02 0.085 0 0.04 0.085 0 0.06 0.085 0 0.08 0.085 0 0.1 0.085 0 0 0.09 0 0.02 0.09 0 0.04 0.09 0 0.06 0.09 0 0.08 0.09 0 0.1 0.09 0 0 0.095 0 0.02 0.095 0 0.04 0.095 0 0.06 0.095 0 0.08 0.095 0 0.1 0.095 0 0 0.1 0 0.02 0.1 0 0.04 0.1 0 0.06 0.1 0 0.08 0.1 0 0.1 0.1 0 0 0.105 0 0.02 0.105 0 0.04 0.105 0 0.06 0.105 0 0.08 0.105 0 0.1 0.105 0 0 0.11 0 0.02 0.11 0 0.04 0.11 0 0.06 0.11 0 0.08 0.11 0 0.1 0.11 0 0 0.115 0 0.02 0.115 0 0.04 0.115 0 0.06 0.115 0 0.08 0.115 0 0.1 0.115 0 0 0.12 0 0.02 0.12 0 0.04 0.12 0 0.06 0.12 0 0.08 0.12 0 0.1 0.12 0 0 0.125 0 0.02 0.125 0 0.04 0.125 0 0.06 0.125 0 0.08 0.125 0 0.1 0.125 0 0 0.13 0 0.02 0.13 0 0.04 0.13 0 0.06 0.13 0 0.08 0.13 0 0.1 0.13 0 0 0.135 0 0.02 0.135 0 0.04 0.135 0 0.06 0.135 0 0.08 0.135 0 0.1 0.135 0 0 0.14 0 0.02 0.14 0 0.04 0.14 0 0.06 0.14 0 0.08 0.14 0 0.1 0.14 0 0 0.145 0 0.02 0.145 0 0.04 0.145 0 0.06 0.145 0 0.08 0.145 0 0.1 0.145 0 0 0.15 0 0.02 0.15 0 0.04 0.15 0 0.06 0.15 0 0.08 0.15 0 0.1 0.15 0 0 0.155 0 0.02 0.155 0 0.04 0.155 0 0.06 0.155 0 0.08 0.155 0 0.1 0.155 0 0 0.16 0 0.02 0.16 0 0.04 0.16 0 0.06 0.16 0 0.08 0.16 0 0.1 0.16 0 0 0.165 0 0.02 0.165 0 0.04 0.165 0 0.06 0.165 0 0.08 0.165 0 0.1 0.165 0 0 0.17 0 0.02 0.17 0 0.04 0.17 0 0.06 0.17 0 0.08 0.17 0 0.1 0.17 0 0 0.175 0 0.02 0.175 0 0.04 0.175 0 0.06 0.175 0 0.08 0.175 0 0.1 0.175 0 0 0.18 0 0.02 0.18 0 0.04 0.18 0 0.06 0.18 0 0.08 0.18 0 0.1 0.18 0 0 0.185 0 0.02 0.185 0 0.04 0.185 0 0.06 0.185 0 0.08 0.185 0 0.1 0.185 0 0 0.19 0 0.02 0.19 0 0.04 0.19 0 0.06 0.19 0 0.08 0.19 0 0.1 0.19 0 0 0.195 0 0.02 0.195 0 0.04 0.195 0 0.06 0.195 0 0.08 0.195 0 0.1 0.195 0 0 0.2 0 0.02 0.2 0 0.04 0.2 0 0.06 0.2 0 0.08 0.2 0 0.1 0.2 0 0 0.205 0 0.02 0.205 0 0.04 0.205 0 0.06 0.205 0 0.08 0.205 0 0.1 0.205 0 0 0.21 0 0.02 0.21 0 0.04 0.21 0 0.06 0.21 0 0.08 0.21 0 0.1 0.21 0 0 0.215 0 0.02 0.215 0 0.04 0.215 0 0.06 0.215 0 0.08 0.215 0 0.1 0.215 0 0 0.22 0 0.02 0.22 0 0.04 0.22 0 0.06 0.22 0 0.08 0.22 0 0.1 0.22 0 0 0.225 0 0.02 0.225 0 0.04 0.225 0 0.06 0.225 0 0.08 0.225 0 0.1 0.225 0 0 0.23 0 0.02 0.23 0 0.04 0.23 0 0.06 0.23 0 0.08 0.23 0 0.1 0.23 0 0 0.235 0 0.02 0.235 0 0.04 0.235 0 0.06 0.235 0 0.08 0.235 0 0.1 0.235 0 0 0.24 0 0.02 0.24 0 0.04 0.24 0 0.06 0.24 0 0.08 0.24 0 0.1 0.24 0 0 0.245 0 0.02 0.245 0 0.04 0.245 0 0.06 0.245 0 0.08 0.245 0 0.1 0.245 0 0 0.25 0 0.02 0.25 0 0.04 0.25 0 0.06 0.25 0 0.08 0.25 0 0.1 0.25 0 0 0.255 0 0.02 0.255 0 0.04 0.255 0 0.06 0.255 0 0.08 0.255 0 0.1 0.255 0 0 0.26 0 0.02 0.26 0 0.04 0.26 0 0.06 0.26 0 0.08 0.26 0 0.1 0.26 0 0 0.265 0 0.02 0.265 0 0.04 0.265 0 0.06 0.265 0 0.08 0.265 0 0.1 0.265 0 0 0.27 0 0.02 0.27 0 0.04 0.27 0 0.06 0.27 0 0.08 0.27 0 0.1 0.27 0 0 0.275 0 0.02 0.275 0 0.04 0.275 0 0.06 0.275 0 0.08 0.275 0 0.1 0.275 0 0 0.28 0 0.02 0.28 0 0.04 0.28 0 0.06 0.28 0 0.08 0.28 0 0.1 0.28 0 0 0.285 0 0.02 0.285 0 0.04 0.285 0 0.06 0.285 0 0.08 0.285 0 0.1 0.285 0 0 0.29 0 0.02 0.29 0 0.04 0.29 0 0.06 0.29 0 0.08 0.29 0 0.1 0.29 0 0 0.295 0 0.02 0.295 0 0.04 0.295 0 0.06 0.295 0 0.08 0.295 0 0.1 0.295 0 0 0.3 0 0.02 0.3 0 0.04 0.3 0 0.06 0.3 0 0.08 0.3 0 0.1 0.3 0 0 0.305 0 0.02 0.305 0 0.04 0.305 0 0.06 0.305 0 0.08 0.305 0 0.1 0.305 0 0 0.31 0 0.02 0.31 0 0.04 0.31 0 0.06 0.31 0 0.08 0.31 0 0.1 0.31 0 0 0.315 0 0.02 0.315 0 0.04 0.315 0 0.06 0.315 0 0.08 0.315 0 0.1 0.315 0 0 0.32 0 0.02 0.32 0 0.04 0.32 0 0.06 0.32 0 0.08 0.32 0 0.1 0.32 0 0 0.325 0 0.02 0.325 0 0.04 0.325 0 0.06 0.325 0 0.08 0.325 0 0.1 0.325 0 0 0.33 0 0.02 0.33 0 0.04 0.33 0 0.06 0.33 0 0.08 0.33 0 0.1 0.33 0 0 0.335 0 0.02 0.335 0 0.04 0.335 0 0.06 0.335 0 0.08 0.335 0 0.1 0.335 0 0 0.34 0 0.02 0.34 0 0.04 0.34 0 0.06 0.34 0 0.08 0.34 0 0.1 0.34 0 0 0.345 0 0.02 0.345 0 0.04 0.345 0 0.06 0.345 0 0.08 0.345 0 0.1 0.345 0 0 0.35 0 0.02 0.35 0 0.04 0.35 0 0.06 0.35 0 0.08 0.35 0 0.1 0.35 0 0 0.355 0 0.02 0.355 0 0.04 0.355 0 0.06 0.355 0 0.08 0.355 0 0.1 0.355 0 0 0.36 0 0.02 0.36 0 0.04 0.36 0 0.06 0.36 0 0.08 0.36 0 0.1 0.36 0 0 0.365 0 0.02 0.365 0 0.04 0.365 0 0.06 0.365 0 0.08 0.365 0 0.1 0.365 0 0 0.37 0 0.02 0.37 0 0.04 0.37 0 0.06 0.37 0 0.08 0.37 0 0.1 0.37 0 0 0.375 0 0.02 0.375 0 0.04 0.375 0 0.06 0.375 0 0.08 0.375 0 0.1 0.375 0 0 0.38 0 0.02 0.38 0 0.04 0.38 0 0.06 0.38 0 0.08 0.38 0 0.1 0.38 0 0 0.385 0 0.02 0.385 0 0.04 0.385 0 0.06 0.385 0 0.08 0.385 0 0.1 0.385 0 0 0.39 0 0.02 0.39 0 0.04 0.39 0 0.06 0.39 0 0.08 0.39 0 0.1 0.39 0 0 0.395 0 0.02 0.395 0 0.04 0.395 0 0.06 0.395 0 0.08 0.395 0 0.1 0.395 0 0 0.4 0 0.02 0.4 0 0.04 0.4 0 0.06 0.4 0 0.08 0.4 0 0.1 0.4 0 0 0.405 0 0.02 0.405 0 0.04 0.405 0 0.06 0.405 0 0.08 0.405 0 0.1 0.405 0 0 0.41 0 0.02 0.41 0 0.04 0.41 0 0.06 0.41 0 0.08 0.41 0 0.1 0.41 0 0 0.415 0 0.02 0.415 0 0.04 0.415 0 0.06 0.415 0 0.08 0.415 0 0.1 0.415 0 0 0.42 0 0.02 0.42 0 0.04 0.42 0 0.06 0.42 0 0.08 0.42 0 0.1 0.42 0 0 0.425 0 0.02 0.425 0 0.04 0.425 0 0.06 0.425 0 0.08 0.425 0 0.1 0.425 0 0 0.43 0 0.02 0.43 0 0.04 0.43 0 0.06 0.43 0 0.08 0.43 0 0.1 0.43 0 0 0.435 0 0.02 0.435 0 0.04 0.435 0 0.06 0.435 0 0.08 0.435 0 0.1 0.435 0 0 0.44 0 0.02 0.44 0 0.04 0.44 0 0.06 0.44 0 0.08 0.44 0 0.1 0.44 0 0 0.445 0 0.02 0.445 0 0.04 0.445 0 0.06 0.445 0 0.08 0.445 0 0.1 0.445 0 0 0.45 0 0.02 0.45 0 0.04 0.45 0 0.06 0.45 0 0.08 0.45 0 0.1 0.45 0 0 0.455 0 0.02 0.455 0 0.04 0.455 0 0.06 0.455 0 0.08 0.455 0 0.1 0.455 0 0 0.46 0 0.02 0.46 0 0.04 0.46 0 0.06 0.46 0 0.08 0.46 0 0.1 0.46 0 0 0.465 0 0.02 0.465 0 0.04 0.465 0 0.06 0.465 0 0.08 0.465 0 0.1 0.465 0 0 0.47 0 0.02 0.47 0 0.04 0.47 0 0.06 0.47 0 0.08 0.47 0 0.1 0.47 0 0 0.475 0 0.02 0.475 0 0.04 0.475 0 0.06 0.475 0 0.08 0.475 0 0.1 0.475 0 0 0.48 0 0.02 0.48 0 0.04 0.48 0 0.06 0.48 0 0.08 0.48 0 0.1 0.48 0 0 0.485 0 0.02 0.485 0 0.04 0.485 0 0.06 0.485 0 0.08 0.485 0 0.1 0.485 0 0 0.49 0 0.02 0.49 0 0.04 0.49 0 0.06 0.49 0 0.08 0.49 0 0.1 0.49 0 0 0.495 0 0.02 0.495 0 0.04 0.495 0 0.06 0.495 0 0.08 0.495 0 0.1 0.495 0 0 0.5 0 0.02 0.5 0 0.04 0.5 0 0.06 0.5 0 0.08 0.5 0 0.1 0.5 0 0 0.505 0 0.02 0.505 0 0.04 0.505 0 0.06 0.505 0 0.08 0.505 0 0.1 0.505 0 0 0.51 0 0.02 0.51 0 0.04 0.51 0 0.06 0.51 0 0.08 0.51 0 0.1 0.51 0 0 0.515 0 0.02 0.515 0 0.04 0.515 0 0.06 0.515 0 0.08 0.515 0 0.1 0.515 0 0 0.52 0 0.02 0.52 0 0.04 0.52 0 0.06 0.52 0 0.08 0.52 0 0.1 0.52 0 0 0.525 0 0.02 0.525 0 0.04 0.525 0 0.06 0.525 0 0.08 0.525 0 0.1 0.525 0 0 0.53 0 0.02 0.53 0 0.04 0.53 0 0.06 0.53 0 0.08 0.53 0 0.1 0.53 0 0 0.535 0 0.02 0.535 0 0.04 0.535 0 0.06 0.535 0 0.08 0.535 0 0.1 0.535 0 0 0.54 0 0.02 0.54 0 0.04 0.54 0 0.06 0.54 0 0.08 0.54 0 0.1 0.54 0 0 0.545 0 0.02 0.545 0 0.04 0.545 0 0.06 0.545 0 0.08 0.545 0 0.1 0.545 0 0 0.55 0 0.02 0.55 0 0.04 0.55 0 0.06 0.55 0 0.08 0.55 0 0.1 0.55 0 0 0.555 0 0.02 0.555 0 0.04 0.555 0 0.06 0.555 0 0.08 0.555 0 0.1 0.555 0 0 0.56 0 0.02 0.56 0 0.04 0.56 0 0.06 0.56 0 0.08 0.56 0 0.1 0.56 0 0 0.565 0 0.02 0.565 0 0.04 0.565 0 0.06 0.565 0 0.08 0.565 0 0.1 0.565 0 0 0.57 0 0.02 0.57 0 0.04 0.57 0 0.06 0.57 0 0.08 0.57 0 0.1 0.57 0 0 0.575 0 0.02 0.575 0 0.04 0.575 0 0.06 0.575 0 0.08 0.575 0 0.1 0.575 0 0 0.58 0 0.02 0.58 0 0.04 0.58 0 0.06 0.58 0 0.08 0.58 0 0.1 0.58 0 0 0.585 0 0.02 0.585 0 0.04 0.585 0 0.06 0.585 0 0.08 0.585 0 0.1 0.585 0 0 0.59 0 0.02 0.59 0 0.04 0.59 0 0.06 0.59 0 0.08 0.59 0 0.1 0.59 0 0 0.595 0 0.02 0.595 0 0.04 0.595 0 0.06 0.595 0 0.08 0.595 0 0.1 0.595 0 0 0.6 0 0.02 0.6 0 0.04 0.6 0 0.06 0.6 0 0.08 0.6 0 0.1 0.6 0 0 0.605 0 0.02 0.605 0 0.04 0.605 0 0.06 0.605 0 0.08 0.605 0 0.1 0.605 0 0 0.61 0 0.02 0.61 0 0.04 0.61 0 0.06 0.61 0 0.08 0.61 0 0.1 0.61 0 0 0.615 0 0.02 0.615 0 0.04 0.615 0 0.06 0.615 0 0.08 0.615 0 0.1 0.615 0 0 0.62 0 0.02 0.62 0 0.04 0.62 0 0.06 0.62 0 0.08 0.62 0 0.1 0.62 0 0 0.625 0 0.02 0.625 0 0.04 0.625 0 0.06 0.625 0 0.08 0.625 0 0.1 0.625 0 0 0.63 0 0.02 0.63 0 0.04 0.63 0 0.06 0.63 0 0.08 0.63 0 0.1 0.63 0 0 0.635 0 0.02 0.635 0 0.04 0.635 0 0.06 0.635 0 0.08 0.635 0 0.1 0.635 0 0 0.64 0 0.02 0.64 0 0.04 0.64 0 0.06 0.64 0 0.08 0.64 0 0.1 0.64 0 0 0.645 0 0.02 0.645 0 0.04 0.645 0 0.06 0.645 0 0.08 0.645 0 0.1 0.645 0 0 0.65 0 0.02 0.65 0 0.04 0.65 0 0.06 0.65 0 0.08 0.65 0 0.1 0.65 0 0 0.655 0 0.02 0.655 0 0.04 0.655 0 0.06 0.655 0 0.08 0.655 0 0.1 0.655 0 0 0.66 0 0.02 0.66 0 0.04 0.66 0 0.06 0.66 0 0.08 0.66 0 0.1 0.66 0 0 0.665 0 0.02 0.665 0 0.04 0.665 0 0.06 0.665 0 0.08 0.665 0 0.1 0.665 0 0 0.67 0 0.02 0.67 0 0.04 0.67 0 0.06 0.67 0 0.08 0.67 0 0.1 0.67 0 0 0.675 0 0.02 0.675 0 0.04 0.675 0 0.06 0.675 0 0.08 0.675 0 0.1 0.675 0 0 0.68 0 0.02 0.68 0 0.04 0.68 0 0.06 0.68 0 0.08 0.68 0 0.1 0.68 0 0 0.685 0 0.02 0.685 0 0.04 0.685 0 0.06 0.685 0 0.08 0.685 0 0.1 0.685 0 0 0.69 0 0.02 0.69 0 0.04 0.69 0 0.06 0.69 0 0.08 0.69 0 0.1 
[...]
			<PointData Scalars="VitesseX">
				<DataArray Name="VitesseX" type="Float32" format="ascii">
 0 1.18246e-14 -8.96095e-15 1.58762e-14 2.37744e-14 0 0 6.67356e-15 -9.58662e-16 1.29392e-14 2.44066e-14 0 0 -4.59619e-16 9.36876e-15 1.49473e-14 2.07869e-14 0 0 -4.4426e-15 1.13617e-14 2.74207e-14 1.29355e-14 0 0 -1.23093e-14 1.79944e-14 3.17932e-14 1.50312e-14 0 0 -1.64899e-14 2.62238e-14 2.46332e-14 2.36688e-14 0 0 9.51118e-15 -4.41599e-15 5.17503e-14 5.50098e-15 0 0 1.54986e-14 -1.04545e-14 5.94387e-14 2.17478e-15 0 0 -7.17568e-16 5.3528e-15 5.43442e-14 9.95215e-15 0 0 -8.10793e-15 1.35074e-14 4.59271e-14 2.42517e-14 0 0 -6.99492e-15 1.5201e-14 3.03596e-14 4.63068e-14 0 0 8.80629e-15 -1.24301e-15 3.75945e-14 3.81109e-14 0 0 1.78085e-14 -6.36335e-15 4.42333e-14 2.14107e-14 0 0 1.26181e-14 1.58662e-14 2.90969e-14 1.87853e-14 0 0 1.7682e-14 2.4883e-14 2.70677e-14 6.44777e-15 0 0 2.45649e-14 1.41016e-14 5.28872e-14 -1.94641e-14 0 0 -5.39024e-15 6.71961e-14 -5.89993e-15 1.99747e-14 0 0 7.91133e-15 4.38076e-14 1.379e-14 -8.76892e-16 0 0 4.46139e-14 -9.70578e-15 4.44919e-14 -1.6584e-14 0 0 2.4508e-14 3.11339e-14 -1.36254e-14 2.40151e-14 0 0 3.06154e-14 -4.59004e-16 4.58272e-14 -3.34589e-14 0 0 3.44825e-14 -2.23534e-14 7.75373e-14 -5.87546e-14 0 0 1.13913e-14 1.33231e-14 3.71181e-14 -3.26424e-14 0 0 -1.82235e-14 7.09425e-14 -4.74492e-14 3.3538e-14 0 0 1.82765e-15 2.09683e-14 -4.10758e-15 2.08856e-14 0 0 2.18159e-14 -4.55188e-14 8.61657e-14 -3.0696e-14 0 0 -1.45561e-14 8.89606e-16 3.47989e-14 2.94921e-14 0 0 8.97612e-15 -4.86622e-14 7.18978e-14 3.91336e-14 0 0 1.87008e-14 -6.05048e-14 8.14145e-14 4.11338e-14 0 0 -6.36328e-15 -4.37491e-15 4.60877e-14 5.99093e-14 0 0 -2.45987e-14 9.89492e-15 1.06059e-13 -4.18843e-15 0 0 -4.73542e-14 6.69221e-14 7.72787e-14 5.74006e-15 0 0 -1.40339e-14 6.92546e-14 5.08999e-14 5.16025e-14 0 0 -1.83764e-14 7.7262e-14 5.58896e-14 7.69137e-14 0 0 4.02245e-14 -1.15815e-14 1.39894e-13 6.94308e-14 0 0 5.00525e-14 3.12667e-15 9.58831e-14 1.33623e-13 0 0 5.55041e-15 9.71664e-14 -3.45012e-15 1.85981e-13 0 0 5.4523e-14 1.23101e-14 8.80031e-14 1.36067e-13 0 0 -2.34886e-15 5.25979e-14 7.27403e-14 1.37804e-13 0 0 -3.8462e-14 5.53958e-14 1.10272e-13 6.69613e-14 0 0 -2.05852e-14 8.49526e-15 1.41693e-13 3.1858e-14 0 0 -4.91683e-14 6.08917e-14 6.64475e-14 6.22811e-14 0 0 -6.69411e-14 7.5835e-14 9.98842e-14 4.23364e-15 0 0 -3.87189e-14 4.6663e-14 1.27509e-13 -3.97005e-14 0 0 4.27329e-14 -5.61704e-14 1.9575e-13 -9.30805e-14 0 0 3.72507e-14 -2.85418e-14 1.47118e-13 -6.17278e-14 0 0 -6.61784e-14 1.9677e-13 -1.39307e-13 1.18005e-13 0 0 -3.81343e-14 1.73621e-13 -1.29564e-13 1.19396e-13 0 0 6.19892e-14 -6.58195e-17 8.28016e-14 -1.29981e-14 0 0 7.64027e-14 -4.7848e-14 1.80896e-13 -7.42149e-14 0 0 1.32272e-13 -1.63971e-13 3.17839e-13 -1.35296e-13 0 0 1.09509e-13 -9.14762e-14 2.25351e-13 -5.05669e-14 0 0 -1.48582e-14 1.69472e-13 -2.04355e-14 1.02242e-13 0 0 -9.81243e-14 3.16068e-13 -1.20678e-13 1.89772e-13 0 0 3.5467e-14 7.9521e-14 1.67366e-13 3.31996e-14 0 0 1.60681e-13 -1.57974e-13 4.0817e-13 -1.26359e-13 0 0 2.77272e-14 5.62649e-14 1.66196e-13 1.57821e-14 0 0 -3.84518e-14 2.21367e-13 3.46544e-15 1.09176e-13 0 0 5.21992e-14 1.17653e-13 8.50621e-14 1.16237e-13 0 0 1.57813e-13 -5.07668e-14 2.93511e-13 5.46478e-14 0 0 1.43103e-13 -2.77286e-14 3.17005e-13 7.63861e-14 0 0 3.12592e-14 1.35619e-13 1.67162e-13 2.27883e-13 0 0 1.33526e-14 1.2764e-13 2.11338e-13 2.62518e-13 0 0 3.50133e-14 9.02613e-14 2.44231e-13 2.75064e-13 0 0 5.73431e-14 1.0537e-13 2.71794e-13 2.39065e-13 0 0 6.94538e-15 1.97204e-13 2.86956e-13 1.5303e-13 0 0 -1.38313e-13 4.7386e-13 4.4739e-14 2.29685e-13 0 0 1.51886e-15 2.07172e-13 2.8776e-13 1.00143e-13 0 0 1.78767e-13 -2.07071e-13 7.23762e-13 -7.16944e-14 0 0 5.12045e-14 3.25301e-15 5.14645e-13 1.18838e-13 0 0 -8.48571e-14 2.64621e-13 2.20084e-13 2.77216e-13 0 0 -3.94342e-14 2.81732e-13 1.83081e-13 1.92923e-13 0 0 2.52834e-13 -1.13933e-13 5.0567e-13 -1.08265e-13 0 0 2.49682e-13 -8.81396e-14 5.12425e-13 -1.62205e-13 0 0 6.91203e-14 2.05283e-13 3.38622e-13 -5.42486e-14 0 0 7.01751e-15 2.54706e-13 2.399e-13 1.29035e-13 0 0 7.1584e-14 1.97835e-13 1.91746e-13 2.86717e-13 0 0 2.93445e-13 -6.57086e-14 5.89682e-13 -7.0795e-14 0 0 2.03869e-13 1.04804e-13 6.34625e-13 -3.52879e-13 0 0 9.72838e-14 4.15347e-13 2.62157e-13 -1.77504e-13 0 0 3.82753e-13 8.69351e-14 2.94372e-13 -9.94585e-14 0 0 5.25942e-13 -7.42994e-14 1.7353e-13 7.08006e-14 0 0 3.00401e-13 2.32528e-13 -1.28884e-13 3.03445e-13 0 0 4.8737e-14 4.7766e-13 -3.52706e-13 4.87804e-13 0 0 5.47818e-14 2.9942e-13 -7.64067e-14 3.13894e-13 0 0 1.68187e-13 -1.68049e-13 4.52062e-13 1.2472e-13 0 0 1.73387e-13 -3.56965e-13 7.27882e-13 -8.06641e-14 0 0 1.28459e-13 -3.84676e-13 7.23694e-13 -3.08691e-14 0 0 -9.3811e-14 -1.2171e-13 4.85712e-13 1.2957e-13 0 0 -3.44153e-13 4.25042e-13 -1.53196e-13 4.59637e-13 0 0 -2.90476e-13 4.71998e-13 -3.80313e-13 6.83028e-13 0 0 9.61101e-14 1.44354e-13 -2.74855e-13 6.65711e-13 0 0 6.49883e-13 -4.92406e-13 1.55533e-14 5.51509e-13 0 0 7.60439e-13 -6.83631e-13 3.34897e-13 3.21105e-13 0 0 6.71116e-13 -6.00476e-13 4.40804e-13 4.35286e-14 0 0 4.68927e-13 -3.5114e-13 3.51269e-13 2.85801e-15 0 0 1.90482e-13 2.93952e-14 9.08127e-14 1.0706e-13 0 0 -1.32807e-13 4.15953e-13 -8.72473e-14 1.91253e-13 0 0 -3.00165e-13 6.93234e-13 -1.33881e-13 1.82004e-13 0 0 -2.85627e-13 7.88331e-13 -1.43072e-13 1.8051e-13 0 0 -1.82791e-13 7.65777e-13 -1.31354e-13 2.1263e-13 0 0 4.16175e-14 5.86995e-13 -3.73636e-14 2.67322e-13 0 0 3.24028e-13 2.42825e-13 1.64849e-13 1.95952e-13 0 0 4.0445e-13 3.79064e-14 4.09996e-13 7.395e-14 0 0 3.49164e-13 7.08884e-14 6.25576e-13 -1.67548e-14 0 0 1.35092e-13 2.9251e-13 6.57971e-13 -1.85834e-13 0 0 -6.49413e-14 5.26597e-13 6.21249e-13 -2.7247e-13 0 0 -8.44627e-14 6.59454e-13 4.83958e-13 -2.39581e-13 0 0 -2.24197e-14 6.91597e-13 2.85121e-13 -1.4474e-13 0 0 1.13525e-13 6.72099e-13 1.10589e-13 8.74677e-15 0 0 2.73188e-13 5.82054e-13 1.1245e-13 6.72722e-14 0 0 3.90962e-13 4.254e-13 1.74856e-13 1.10704e-13 0 0 4.34242e-13 3.83918e-13 1.51778e-13 1.78389e-13 0 0 4.15455e-13 3.85268e-13 1.6732e-13 1.58964e-13 0 0 3.00606e-13 4.35301e-13 1.9191e-13 1.35499e-13 0 0 1.52178e-13 5.15024e-13 1.88522e-13 1.32713e-13 0 0 7.74318e-14 4.98504e-13 2.47782e-13 5.90902e-14 0 0 4.84509e-14 5.13239e-13 2.39699e-13 9.87012e-15 0 0 5.31887e-14 5.54356e-13 1.50798e-13 3.89189e-14 0 0 1.05729e-13 5.24293e-13 1.19196e-13 6.80527e-14 0 0 1.83775e-13 4.06159e-13 1.58139e-13 6.43788e-14 0 0 2.12283e-13 2.97825e-13 2.3902e-13 5.7613e-14 0 0 1.87799e-13 3.07159e-13 2.42354e-13 7.87651e-14 0 0 1.61812e-13 2.93488e-13 2.27088e-13 1.06317e-13 0 0 1.46439e-13 2.3037e-13 2.60874e-13 1.60449e-13 0 0 1.20055e-13 1.72411e-13 3.14819e-13 2.01569e-13 0 0 1.19694e-13 1.44804e-13 2.98217e-13 2.49986e-13 0 0 1.07258e-13 1.51733e-13 2.61599e-13 2.91886e-13 0 0 1.07811e-13 1.65887e-13 1.92321e-13 3.70038e-13 0 0 8.54427e-14 2.05522e-13 1.94313e-13 2.85415e-13 0 0 5.63674e-14 2.56172e-13 2.13274e-13 1.68228e-13 0 0 8.79067e-14 2.45041e-13 2.19367e-13 1.78276e-13 0 0 8.89838e-14 2.59518e-13 2.18674e-13 1.86527e-13 0 0 8.62802e-14 2.79657e-13 1.55029e-13 2.41622e-13 0 0 1.02271e-13 2.4726e-13 1.79392e-13 2.22587e-13 0 0 1.10281e-13 1.93678e-13 2.25346e-13 2.53911e-13 0 0 1.21072e-13 1.69859e-13 2.67031e-13 2.21273e-13 0 0 1.25083e-13 1.38509e-13 3.64607e-13 8.92551e-14 0 0 8.75011e-14 1.48585e-13 3.5762e-13 1.20344e-13 0 0 4.93379e-14 1.73635e-13 3.38801e-13 2.48943e-13 0 0 8.75592e-14 1.36994e-13 4.49175e-13 1.75327e-13 0 0 1.22732e-13 1.8582e-13 4.4585e-13 1.5844e-13 0 0 1.12484e-13 3.3869e-13 3.47925e-13 2.02381e-13 0 0 1.28103e-13 3.32693e-13 4.7677e-13 5.27088e-14 0 0 1.32124e-13 3.30181e-13 5.45525e-13 6.35207e-14 0 0 1.45478e-13 3.24984e-13 5.79792e-13 8.95064e-14 0 0 1.34618e-13 3.34637e-13 6.06308e-13 1.14427e-13 0 0 1.4179e-13 3.21495e-13 6.07048e-13 2.10074e-13 0 0 1.62703e-13 2.99427e-13 6.45344e-13 1.8289e-13 0 0 7.95772e-14 4.57115e-13 5.3672e-13 2.66324e-13 0 0 1.09665e-13 3.994e-13 6.65697e-13 2.26835e-13 0 0 1.84963e-13 3.12477e-13 7.55278e-13 2.36669e-13 0 0 1.39958e-13 4.30517e-13 6.60579e-13 3.28932e-13 0 0 1.24353e-13 4.76084e-13 6.66408e-13 3.16389e-13 0 0 1.71426e-13 4.64958e-13 6.21702e-13 3.93728e-13 0 0 1.92942e-13 5.62308e-13 4.57848e-13 4.64226e-13 0 0 2.3347e-13 5.94102e-13 4.03266e-13 5.504e-13 0 0 4.14084e-13 3.72788e-13 5.46579e-13 5.8676e-13 0 0 4.42613e-13 4.15825e-13 5.13928e-13 5.59491e-13 0 0 4.7237e-13 4.38706e-13 6.08257e-13 3.58681e-13 0 0 5.17515e-13 4.07234e-13 6.695e-13 3.11937e-13 0 0 4.69674e-13 5.92903e-13 4.35945e-13 4.98773e-13 0 0 4.80772e-13 7.20512e-13 2.71965e-13 5.1087e-13 0 0 4.86814e-13 7.69725e-13 1.66887e-13 4.83363e-13 0 0 6.01086e-13 5.33403e-13 3.67154e-13 3.17236e-13 0 0 6.58627e-13 3.89583e-13 5.34177e-13 1.50565e-13 0 0 5.74084e-13 5.21622e-13 4.09513e-13 2.01313e-13 0 0 5.33065e-13 5.35295e-13 4.68397e-13 1.01406e-13 0 0 5.36567e-13 6.23893e-13 3.82851e-13 8.54138e-14 0 0 5.7183e-13 7.06935e-13 2.09277e-13 2.7075e-13 0 0 6.56327e-13 4.83112e-13 5.22624e-13 8.8862e-14 0 0 6.41549e-13 4.23719e-13 6.3529e-13 6.83968e-14 0 0 5.39206e-13 5.75181e-13 5.29017e-13 2.01174e-13 0 0 4.23007e-13 7.05147e-13 4.80798e-13 2.22426e-13 0 0 5.73444e-13 4.0573e-13 7.0858e-13 1.79637e-13 0 0 5.54978e-13 4.41762e-13 6.07506e-13 2.75595e-13 0 0 3.69231e-13 6.4772e-13 5.35569e-13 2.42916e-13 0 0 3.82871e-13 6.16063e-13 6.49844e-13 1.69441e-13 0 0 4.19036e-13 6.31455e-13 4.60245e-13 3.89871e-13 0 0 5.58112e-13 3.41623e-13 6.50494e-13 4.03971e-13 0 0 4.72588e-13 5.22743e-13 4.49223e-13 4.99092e-13 0 0 3.67431e-13 7.51857e-13 3.23741e-13 4.02439e-13 0 0 5.48404e-13 4.26726e-13 7.30431e-13 9.93491e-14 0 0 4.25207e-13 5.82885e-13 5.4151e-13 3.42993e-13 0 0 3.94905e-13 6.67602e-13 4.51083e-13 4.65962e-13 0 0 5.99444e-13 3.09612e-13 9.09802e-13 6.99374e-14 0 0 3.88835e-13 5.78454e-13 6.48412e-13 2.55461e-13 0 0 3.16987e-13 6.08237e-13 4.35437e-13 5.23566e-13 0 0 1.51382e-13 6.59128e-13 5.12679e-13 3.88802e-13 0 0 1.30205e-13 6.59603e-13 7.60505e-13 -2.03715e-14 0 0 2.15212e-13 6.73644e-13 7.84498e-13 -1.5997e-13 0 0 1.27057e-13 9.43192e-13 3.46573e-13 1.95374e-13 0 0 3.61101e-13 4.57589e-13 8.08932e-13 -2.26889e-14 0 0 6.7653e-14 5.98911e-13 9.93756e-13 -2.72064e-13 0 0 -1.82636e-13 9.03651e-13 7.76346e-13 -1.94018e-13 0 0 -7.50505e-14 8.24245e-13 7.09498e-13 -8.4314e-14 0 0 9.20487e-14 7.45353e-13 6.19672e-13 -8.02278e-14 0 0 4.04088e-13 1.76312e-13 1.15276e-12 -3.95936e-13 0 0 2.43563e-13 3.584e-13 9.95663e-13 -2.54544e-13 0 0 8.77084e-14 7.45644e-13 6.87829e-13 -1.59209e-13 0 0 1.62324e-13 6.18409e-13 9.47744e-13 -3.79847e-13 0
				</DataArray>
				<DataArray Name="VitesseY" type="Float32" format="ascii">