<?xml version="1.0"?>
<VTKFile type="PolyData">
	<PolyData>
		<Piece NumberOfPoints="1206" NumberOfPolys="1000">
			<Points>
				<DataArray type="Float32" NumberOfComponents="3" format="ascii">
 0 0 0 0.02 0 0 0.04 0 0 0.06 0 0 0.08 0 0 0.1 0 0 0 0.005 0 0.02 0.005 0 0.04 0.005 0 0.06 0.005 0 0.08 0.005 0 0.1 0.005 0 0 0.01 0 0.02 0.01 0 0.04 0.01 0 0.06 0.01 0 0.08 0.01 0 0.1 0.01 0 0 0.015 0 0.02 0.015 0 0.04 0.015 0 0.06 0.015 0 0.08 0.015 0 0.1 0.015 0 0 0.02 0 0.02 0.02 0 0.04 0.02 0 0.06 0.02 0 0.08 0.02 0 0.1 0.02 0 0 0.025 0 0.02 0.025 0 0.04 0.025 0 0.06 0.025 0 0.08 0.025 0 0.1 0.025 0 0 0.03 0 0.02 0.03 0 0.04 0.03 0 0.06 0.03 0 0.08 0.03 0 0.1 0.03 0 0 0.035 0 0.02 0.035 0 0.04 0.035 0 0.06 0.035 0 0.08 0.035 0 0.1 0.035 0 0 0.04 0 0.02 0.04 0 0.04 0.04 0 0.06 0.04 0 0.08 0.04 0 0.1 0.04 0 0 0.045 0 0.02 0.045 0 0.04 0.045 0 0.06 0.045 0 0.08 0.045 0 0.1 0.045 0 0 0.05 0 0.02 0.05 0 0.04 0.05 0 0.06 0.05 0 0.08 0.05 0 0.1 0.05 0 0 0.055 0 0.02 0.055 0 0.04 0.055 0 0.06 0.055 0 0.08 0.055 0 0.1 0.055 0 0 0.06 0 0.02 0.06 0 0.04 0.06 0 0.06 0.06 0 0.08 0.06 0 0.1 0.06 0 0 0.065 0 0.02 0.065 0 0.04 0.065 0 0.06 0.065 0 0.08 0.065 0 0.1 0.065 0 0 0.07 0 0.02 0.07 0 0.04 0.07 0 0.06 0.07 0 0.08 0.07 0 0.1 0.07 0 0 0.075 0 0.02 0.075 0 0.04 0.075 0 0.06 0.075 0 0.08 0.075 0 0.1 0.075 0 0 0.08 0 0.02 0.08 0 0.04 0.08 0 0.06 0.08 0 0.08 0.08 0 0.1 0.08 0 0 0.085 0 0.02 0.085 0 0.04 0.085 0 0.06 0.085 0 0.08 0.085 0 0.1 0.085 0 0 0.09 0 0.02 0.09 0 0.04 0.09 0 0.06 0.09 0 0.08 0.09 0 0.1 0.09 0 0 0.095 0 0.02 0.095 0 0.04 0.095 0 0.06 0.095 0 0.08 0.095 0 0.1 0.095 0 0 0.1 0 0.02 0.1 0 0.04 0.1 0 0.06 0.1 0 0.08 0.1 0 0.1 0.1 0 0 0.105 0 0.02 0.105 0 0.04 0.105 0 0.06 0.105 0 0.08 0.105 0 0.1 0.105 0 0 0.11 0 0.02 0.11 0 0.04 0.11 0 0.06 0.11 0 0.08 0.11 0 0.1 0.11 0 0 0.115 0 0.02 0.115 0 0.04 0.115 0 0.06 0.115 0 0.08 0.115 0 0.1 0.115 0 0 0.12 0 0.02 0.12 0 0.04 0.12 0 0.06 0.12 0 0.08 0.12 0 0.1 0.12 0 0 0.125 0 0.02 0.125 0 0.04 0.125 0 0.06 0.125 0 0.08 0.125 0 0.1 0.125 0 0 0.13 0 0.02 0.13 0 0.04 0.13 0 0.06 0.13 0 0.08 0.13 0 0.1 0.13 0 0 0.135 0 0.02 0.135 0 0.04 0.135 0 0.06 0.135 0 0.08 0.135 0 0.1 0.135 0 0 0.14 0 0.02 0.14 0 0.04 0.14 0 0.06 0.14 0 0.08 0.14 0 0.1 0.14 0 0 0.145 0 0.02 0.145 0 0.04 0.145 0 0.06 0.145 0 0.08 0.145 0 0.1 0.145 0 0 0.15 0 0.02 0.15 0 0.04 0.15 0 0.06 0.15 0 0.08 0.15 0 0.1 0.15 0 0 0.155 0 0.02 0.155 0 0.04 0.155 0 0.06 0.155 0 0.08 0.155 0 0.1 0.155 0 0 0.16 0 0.02 0.16 0 0.04 0.16 0 0.06 0.16 0 0.08 0.16 0 0.1 0.16 0 0 0.165 0 0.02 0.165 0 0.04 0.165 0 0.06 0.165 0 0.08 0.165 0 0.1 0.165 0 0 0.17 0 0.02 0.17 0 0.04 0.17 0 0.06 0.17 0 0.08 0.17 0 0.1 0.17 0 0 0.175 0 0.02 0.175 0 0.04 0.175 0 0.06 0.175 0 0.08 0.175 0 0.1 0.175 0 0 0.18 0 0.02 0.18 0 0.04 0.18 0 0.06 0.18 0 0.08 0.18 0 0.1 0.18 0 0 0.185 0 0.02 0.185 0 0.04 0.185 0 0.06 0.185 0 0.08 0.185 0 0.1 0.185 0 0 0.19 0 0.02 0.19 0 0.04 0.19 0 0.06 0.19 0 0.08 0.19 0 0.1 0.19 0 0 0.195 0 0.02 0.195 0 0.04 0.195 0 0.06 0.195 0 0.08 0.195 0 0.1 0.195 0 0 0.2 0 0.02 0.2 0 0.04 0.2 0 0.06 0.2 0 0.08 0.2 0 0.1 0.2 0 0 0.205 0 0.02 0.205 0 0.04 0.205 0 0.06 0.205 0 0.08 0.205 0 0.1 0.205 0 0 0.21 0 0.02 0.21 0 0.04 0.21 0 0.06 0.21 0 0.08 0.21 0 0.1 0.21 0 0 0.215 0 0.02 0.215 0 0.04 0.215 0 0.06 0.215 0 0.08 0.215 0 0.1 0.215 0 0 0.22 0 0.02 0.22 0 0.04 0.22 0 0.06 0.22 0 0.08 0.22 0 0.1 0.22 0 0 0.225 0 0.02 0.225 0 0.04 0.225 0 0.06 0.225 0 0.08 0.225 0 0.1 0.225 0 0 0.23 0 0.02 0.23 0 0.04 0.23 0 0.06 0.23 0 0.08 0.23 0 0.1 0.23 0 0 0.235 0 0.02 0.235 0 0.04 0.235 0 0.06 0.235 0 0.08 0.235 0 0.1 0.235 0 0 0.24 0 0.02 0.24 0 0.04 0.24 0 0.06 0.24 0 0.08 0.24 0 0.1 0.24 0 0 0.245 0 0.02 0.245 0 0.04 0.245 0 0.06 0.245 0 0.08 0.245 0 0.1 0.245 0 0 0.25 0 0.02 0.25 0 0.04 0.25 0 0.06 0.25 0 0.08 0.25 0 0.1 0.25 0 0 0.255 0 0.02 0.255 0 0.04 0.255 0 0.06 0.255 0 0.08 0.255 0 0.1 0.255 0 0 0.26 0 0.02 0.26 0 0.04 0.26 0 0.06 0.26 0 0.08 0.26 0 0.1 0.26 0 0 0.265 0 0.02 0.265 0 0.04 0.265 0 0.06 0.265 0 0.08 0.265 0 0.1 0.265 0 0 0.27 0 0.02 0.27 0 0.04 0.27 0 0.06 0.27 0 0.08 0.27 0 0.1 0.27 0 0 0.275 0 0.02 0.275 0 0.04 0.275 0 0.06 0.275 0 0.08 0.275 0 0.1 0.275 0 0 0.28 0 0.02 0.28 0 0.04 0.28 0 0.06 0.28 0 0.08 0.28 0 0.1 0.28 0 0 0.285 0 0.02 0.285 0 0.04 0.285 0 0.06 0.285 0 0.08 0.285 0 0.1 0.285 0 0 0.29 0 0.02 0.29 0 0.04 0.29 0 0.06 0.29 0 0.08 0.29 0 0.1 0.29 0 0 0.295 0 0.02 0.295 0 0.04 0.295 0 0.06 0.295 0 0.08 0.295 0 0.1 0.295 0 0 0.3 0 0.02 0.3 0 0.04 0.3 0 0.06 0.3 0 0.08 0.3 0 0.1 0.3 0 0 0.305 0 0.02 0.305 0 0.04 0.305 0 0.06 0.305 0 0.08 0.305 0 0.1 0.305 0 0 0.31 0 0.02 0.31 0 0.04 0.31 0 0.06 0.31 0 0.08 0.31 0 0.1 0.31 0 0 0.315 0 0.02 0.315 0 0.04 0.315 0 0.06 0.315 0 0.08 0.315 0 0.1 0.315 0 0 0.32 0 0.02 0.32 0 0.04 0.32 0 0.06 0.32 0 0.08 0.32 0 0.1 0.32 0 0 0.325 0 0.02 0.325 0 0.04 0.325 0 0.06 0.325 0 0.08 0.325 0 0.1 0.325 0 0 0.33 0 0.02 0.33 0 0.04 0.33 0 0.06 0.33 0 0.08 0.33 0 0.1 0.33 0 0 0.335 0 0.02 0.335 0 0.04 0.335 0 0.06 0.335 0 0.08 0.335 0 0.1 0.335 0 0 0.34 0 0.02 0.34 0 0.04 0.34 0 0.06 0.34 0 0.08 0.34 0 0.1 0.34 0 0 0.345 0 0.02 0.345 0 0.04 0.345 0 0.06 0.345 0 0.08 0.345 0 0.1 0.345 0 0 0.35 0 0.02 0.35 0 0.04 0.35 0 0.06 0.35 0 0.08 0.35 0 0.1 0.35 0 0 0.355 0 0.02 0.355 0 0.04 0.355 0 0.06 0.355 0 0.08 0.355 0 0.1 0.355 0 0 0.36 0 0.02 0.36 0 0.04 0.36 0 0.06 0.36 0 0.08 0.36 0 0.1 0.36 0 0 0.365 0 0.02 0.365 0 0.04 0.365 0 0.06 0.365 0 0.08 0.365 0 0.1 0.365 0 0 0.37 0 0.02 0.37 0 0.04 0.37 0 0.06 0.37 0 0.08 0.37 0 0.1 0.37 0 0 0.375 0 0.02 0.375 0 0.04 0.375 0 0.06 0.375 0 0.08 0.375 0 0.1 0.375 0 0 0.38 0 0.02 0.38 0 0.04 0.38 0 0.06 0.38 0 0.08 0.38 0 0.1 0.38 0 0 0.385 0 0.02 0.385 0 0.04 0.385 0 0.06 0.385 0 0.08 0.385 0 0.1 0.385 0 0 0.39 0 0.02 0.39 0 0.04 0.39 0 0.06 0.39 0 0.08 0.39 0 0.1 0.39 0 0 0.395 0 0.02 0.395 0 0.04 0.395 0 0.06 0.395 0 0.08 0.395 0 0.1 0.395 0 0 0.4 0 0.02 0.4 0 0.04 0.4 0 0.06 0.4 0 0.08 0.4 0 0.1 0.4 0 0 0.405 0 0.02 0.405 0 0.04 0.405 0 0.06 0.405 0 0.08 0.405 0 0.1 0.405 0 0 0.41 0 0.02 0.41 0 0.04 0.41 0 0.06 0.41 0 0.08 0.41 0 0.1 0.41 0 0 0.415 0 0.02 0.415 0 0.04 0.415 0 0.06 0.415 0 0.08 0.415 0 0.1 0.415 0 0 0.42 0 0.02 0.42 0 0.04 0.42 0 0.06 0.42 0 0.08 0.42 0 0.1 0.42 0 0 0.425 0 0.02 0.425 0 0.04 0.425 0 0.06 0.425 0 0.08 0.425 0 0.1 0.425 0 0 0.43 0 0.02 0.43 0 0.04 0.43 0 0.06 0.43 0 0.08 0.43 0 0.1 0.43 0 0 0.435 0 0.02 0.435 0 0.04 0.435 0 0.06 0.435 0 0.08 0.435 0 0.1 0.435 0 0 0.44 0 0.02 0.44 0 0.04 0.44 0 0.06 0.44 0 0.08 0.44 0 0.1 0.44 0 0 0.445 0 0.02 0.445 0 0.04 0.445 0 0.06 0.445 0 0.08 0.445 0 0.1 0.445 0 0 0.45 0 0.02 0.45 0 0.04 0.45 0 0.06 0.45 0 0.08 0.45 0 0.1 0.45 0 0 0.455 0 0.02 0.455 0 0.04 0.455 0 0.06 0.455 0 0.08 0.455 0 0.1 0.455 0 0 0.46 0 0.02 0.46 0 0.04 0.46 0 0.06 0.46 0 0.08 0.46 0 0.1 0.46 0 0 0.465 0 0.02 0.465 0 0.04 0.465 0 0.06 0.465 0 0.08 0.465 0 0.1 0.465 0 0 0.47 0 0.02 0.47 0 0.04 0.47 0 0.06 0.47 0 0.08 0.47 0 0.1 0.47 0 0 0.475 0 0.02 0.475 0 0.04 0.475 0 0.06 0.475 0 0.08 0.475 0 0.1 0.475 0 0 0.48 0 0.02 0.48 0 0.04 0.48 0 0.06 0.48 0 0.08 0.48 0 0.1 0.48 0 0 0.485 0 0.02 0.485 0 0.04 0.485 0 0.06 0.485 0 0.08 0.485 0 0.1 0.485 0 0 0.49 0 0.02 0.49 0 0.04 0.49 0 0.06 0.49 0 0.08 0.49 0 0.1 0.49 0 0 0.495 0 0.02 0.495 0 0.04 0.495 0 0.06 0.495 0 0.08 0.495 0 0.1 0.495 0 0 0.5 0 0.02 0.5 0 0.04 0.5 0 0.06 0.5 0 0.08 0.5 0 0.1 0.5 0 0 0.505 0 0.02 0.505 0 0.04 0.505 0 0.06 0.505 0 0.08 0.505 0 0.1 0.505 0 0 0.51 0 0.02 0.51 0 0.04 0.51 0 0.06 0.51 0 0.08 0.51 0 0.1 0.51 0 0 0.515 0 0.02 0.515 0 0.04 0.515 0 0.06 0.515 0 0.08 0.515 0 0.1 0.515 0 0 0.52 0 0.02 0.52 0 0.04 0.52 0 0.06 0.52 0 0.08 0.52 0 0.1 0.52 0 0 0.525 0 0.02 0.525 0 0.04 0.525 0 0.06 0.525 0 0.08 0.525 0 0.1 0.525 0 0 0.53 0 0.02 0.53 0 0.04 0.53 0 0.06 0.53 0 0.08 0.53 0 0.1 0.53 0 0 0.535 0 0.02 0.535 0 0.04 0.535 0 0.06 0.535 0 0.08 0.535 0 0.1 0.535 0 0 0.54 0 0.02 0.54 0 0.04 0.54 0 0.06 0.54 0 0.08 0.54 0 0.1 0.54 0 0 0.545 0 0.02 0.545 0 0.04 0.545 0 0.06 0.545 0 0.08 0.545 0 0.1 0.545 0 0 0.55 0 0.02 0.55 0 0.04 0.55 0 0.06 0.55 0 0.08 0.55 0 0.1 0.55 0 0 0.555 0 0.02 0.555 0 0.04 0.555 0 0.06 0.555 0 0.08 0.555 0 0.1 0.555 0 0 0.56 0 0.02 0.56 0 0.04 0.56 0 0.06 0.56 0 0.08 0.56 0 0.1 0.56 0 0 0.565 0 0.02 0.565 0 0.04 0.565 0 0.06 0.565 0 0.08 0.565 0 0.1 0.565 0 0 0.57 0 0.02 0.57 0 0.04 0.57 0 0.06 0.57 0 0.08 0.57 0 0.1 0.57 0 0 0.575 0 0.02 0.575 0 0.04 0.575 0 0.06 0.575 0 0.08 0.575 0 0.1 0.575 0 0 0.58 0 0.02 0.58 0 0.04 0.58 0 0.06 0.58 0 0.08 0.58 0 0.1 0.58 0 0 0.585 0 0.02 0.585 0 0.04 0.585 0 0.06 0.585 0 0.08 0.585 0 0.1 0.585 0 0 0.59 0 0.02 0.59 0 0.04 0.59 0 0.06 0.59 0 0.08 0.59 0 0.1 0.59 0 0 0.595 0 0.02 0.595 0 0.04 0.595 0 0.06 0.595 0 0.08 0.595 0 0.1 0.595 0 0 0.6 0 0.02 0.6 0 0.04 0.6 0 0.06 0.6 0 0.08 0.6 0 0.1 0.6 0 0 0.605 0 0.02 0.605 0 0.04 0.605 0 0.06 0.605 0 0.08 0.605 0 0.1 0.605 0 0 0.61 0 0.02 0.61 0 0.04 0.61 0 0.06 0.61 0 0.08 0.61 0 0.1 0.61 0 0 0.615 0 0.02 0.615 0 0.04 0.615 0 0.06 0.615 0 0.08 0.615 0 0.1 0.615 0 0 0.62 0 0.02 0.62 0 0.04 0.62 0 0.06 0.62 0 0.08 0.62 0 0.1 0.62 0 0 0.625 0 0.02 0.625 0 0.04 0.625 0 0.06 0.625 0 0.08 0.625 0 0.1 0.625 0 0 0.63 0 0.02 0.63 0 0.04 0.63 0 0.06 0.63 0 0.08 0.63 0 0.1 0.63 0 0 0.635 0 0.02 0.635 0 0.04 0.635 0 0.06 0.635 0 0.08 0.635 0 0.1 0.635 0 0 0.64 0 0.02 0.64 0 0.04 0.64 0 0.06 0.64 0 0.08 0.64 0 0.1 0.64 0 0 0.645 0 0.02 0.645 0 0.04 0.645 0 0.06 0.645 0 0.08 0.645 0 0.1 0.645 0 0 0.65 0 0.02 0.65 0 0.04 0.65 0 0.06 0.65 0 0.08 0.65 0 0.1 0.65 0 0 0.655 0 0.02 0.655 0 0.04 0.655 0 0.06 0.655 0 0.08 0.655 0 0.1 0.655 0 0 0.66 0 0.02 0.66 0 0.04 0.66 0 0.06 0.66 0 0.08 0.66 0 0.1 0.66 0 0 0.665 0 0.02 0.665 0 0.04 0.665 0 0.06 0.665 0 0.08 0.665 0 0.1 0.665 0 0 0.67 0 0.02 0.67 0 0.04 0.67 0 0.06 0.67 0 0.08 0.67 0 0.1 0.67 0 0 0.675 0 0.02 0.675 0 0.04 0.675 0 0.06 0.675 0 0.08 0.675 0 0.1 0.675 0 0 0.68 0 0.02 0.68 0 0.04 0.68 0 0.06 0.68 0 0.08 0.68 0 0.1 0.68 0 0 0.685 0 0.02 0.685 0 0.04 0.685 0 0.06 0.685 0 0.08 0.685 0 0.1 0.685 0 0 0.69 0 0.02 0.69 0 0.04 0.69 0 0.06 0.69 0 0.08 0.69 0 0.1 
[...]
			<PointData Scalars="VitesseX">
				<DataArray Name="VitesseX" type="Float32" format="ascii">
 0 -7.98539e-15 -1.51763e-14 1.39686e-14 -4.32007e-15 0 0 -7.76076e-15 -1.31926e-14 1.15479e-14 -3.41144e-15 0 0 -7.84268e-15 -8.51485e-15 3.72926e-15 1.44857e-15 0 0 -6.87571e-16 -1.84323e-14 1.1331e-14 -4.14868e-15 0 0 -1.35554e-15 -1.32447e-14 3.17151e-15 -5.02281e-16 0 0 -7.72214e-15 8.46508e-15 -2.4068e-14 1.41073e-14 0 0 -5.88607e-16 5.41514e-15 -2.37242e-14 1.1943e-14 0 0 1.34874e-14 -1.49769e-14 6.17789e-15 -1.06286e-14 0 0 1.53812e-15 1.49258e-14 -1.25167e-14 -7.65662e-15 0 0 -3.23503e-15 2.95596e-14 -2.41921e-14 -7.05243e-15 0 0 1.02132e-14 4.50761e-16 4.37024e-15 -2.46247e-14 0 0 2.81939e-15 8.48109e-15 -2.18149e-14 -3.48311e-16 0 0 7.45195e-15 -7.1996e-15 -1.06866e-14 -5.60739e-15 0 0 6.00213e-15 -1.47303e-14 7.3046e-15 -2.64333e-14 0 0 -1.43458e-14 5.64168e-15 8.51758e-18 -3.73113e-14 0 0 -2.28798e-14 7.10602e-15 1.40885e-14 -6.29506e-14 0 0 9.55549e-15 -4.91184e-14 5.25681e-14 -7.28619e-14 0 0 -7.84168e-15 -2.14901e-14 -1.13753e-14 4.1422e-15 0 0 -4.22846e-14 2.87749e-14 -6.55528e-14 3.87378e-14 0 0 -2.11948e-14 -2.74723e-14 5.61472e-15 -1.80871e-14 0 0 -4.93205e-15 -5.96875e-14 1.93594e-14 -2.00115e-14 0 0 -4.12702e-15 -3.92151e-14 -3.54228e-14 2.75864e-14 0 0 -3.43564e-15 -2.32471e-14 -3.81782e-14 2.28399e-14 0 0 -1.59094e-14 3.71033e-15 -3.21121e-14 5.0433e-15 0 0 -2.88019e-14 1.91291e-14 -2.41842e-14 -5.98155e-16 0 0 -4.07706e-15 -3.73161e-14 5.78376e-14 -5.11804e-14 0 0 -2.89937e-15 -1.48689e-14 3.51705e-14 -3.82104e-14 0 0 -1.10026e-15 1.69339e-14 -2.04899e-14 2.47595e-15 0 0 -1.63086e-15 3.7948e-14 -8.06805e-14 4.76574e-14 0 0 1.39248e-15 1.79123e-14 -4.53763e-14 1.17304e-14 0 0 -7.04272e-15 -1.87553e-14 3.08097e-14 -3.57742e-14 0 0 2.264e-14 -6.39989e-14 6.41835e-14 -4.01959e-14 0 0 3.21064e-14 -5.17451e-14 1.00631e-14 2.1076e-14 0 0 -2.73885e-14 2.39636e-14 -8.52914e-14 8.34193e-14 0 0 -5.57513e-14 4.54744e-14 -1.009e-13 7.13439e-14 0 0 -2.85592e-14 -1.83597e-14 -1.92069e-14 2.82336e-14 0 0 -3.07461e-14 -5.12066e-14 5.39335e-14 1.55346e-14 0 0 -2.7291e-14 -2.45013e-14 3.20932e-14 3.86698e-14 0 0 5.6386e-14 -1.21401e-13 1.20139e-13 -3.0699e-14 0 0 2.27649e-14 -6.20268e-14 4.6326e-14 2.60819e-14 0 0 7.57638e-15 -2.98576e-14 1.81658e-14 4.11852e-14 0 0 5.86362e-14 -7.70991e-14 1.8456e-14 5.05948e-14 0 0 -3.10427e-14 6.55207e-14 -1.21628e-13 1.14784e-13 0 0 -3.12843e-14 4.62438e-14 -5.44495e-14 4.63882e-14 0 0 -7.52108e-15 4.47533e-14 -6.10722e-14 4.55263e-14 0 0 9.28317e-17 1.98807e-14 4.07598e-14 -5.77341e-14 0 0 5.35943e-14 -9.80512e-14 2.2171e-13 -1.73333e-13 0 0 -1.42348e-14 6.47791e-14 -7.01191e-15 2.46419e-14 0 0 -7.476e-15 1.31776e-13 -1.53093e-13 1.52897e-13 0 0 7.21239e-14 1.62584e-14 -5.21536e-14 1.02951e-13 0 0 2.62858e-14 8.92721e-14 -1.04477e-13 1.22139e-13 0 0 7.92041e-15 1.12867e-13 -4.66712e-14 2.06407e-14 0 0 7.74361e-14 3.08613e-14 8.04375e-14 -8.61137e-14 0 0 1.84933e-13 -5.21402e-14 1.4194e-13 -8.82594e-14 0 0 1.05842e-13 1.02118e-13 -1.89613e-14 5.89161e-14 0 0 -7.30537e-14 3.78392e-13 -2.88974e-13 2.33281e-13 0 0 5.62044e-14 1.32237e-13 -3.03666e-14 8.65743e-14 0 0 1.59224e-13 -5.37259e-14 1.94243e-13 -6.42503e-14 0 0 6.87269e-14 1.23545e-13 4.0533e-14 -1.15885e-14 0 0 1.65336e-14 2.7916e-13 -1.11144e-13 6.33611e-14 0 0 3.47411e-14 2.32711e-13 -3.93179e-14 -1.05152e-14 0 0 9.26745e-14 4.89884e-14 1.45925e-13 -1.10684e-13 0 0 6.25714e-14 1.05026e-13 4.28462e-14 9.7422e-15 0 0 -2.23443e-15 1.63769e-13 -3.02795e-14 6.81879e-14 0 0 3.34991e-14 1.17274e-13 -5.04078e-14 4.75213e-14 0 0 1.59424e-13 5.79489e-15 -5.47374e-14 -3.31107e-14 0 0 3.62639e-13 -2.53362e-13 1.39678e-13 -2.06406e-13 0 0 2.39905e-13 3.43793e-14 -1.61054e-13 -4.41781e-14 0 0 3.48903e-14 3.70546e-13 -4.34737e-13 1.13984e-13 0 0 8.82014e-14 1.46761e-13 -1.40218e-13 -6.28263e-15 0 0 9.2795e-14 4.56546e-15 -6.85834e-15 -1.61372e-14 0 0 8.22794e-14 2.59721e-14 -7.99833e-14 5.21948e-14 0 0 1.48144e-13 9.42113e-14 -2.10084e-13 7.98614e-14 0 0 1.99724e-13 2.6194e-13 -4.23644e-13 8.83497e-14 0 0 1.99728e-13 2.28279e-13 -3.43312e-13 -6.52216e-14 0 0 1.62802e-13 1.82724e-13 -2.4412e-13 -1.37464e-13 0 0 1.94009e-13 5.44928e-14 -2.09982e-13 -2.98764e-15 0 0 2.75637e-13 -6.07604e-14 -2.51621e-13 2.12095e-13 0 0 2.47131e-13 -3.66636e-14 -4.58577e-13 4.73791e-13 0 0 1.5119e-13 1.30859e-14 -4.92808e-13 4.41375e-13 0 0 4.68843e-14 -1.88051e-14 -4.15205e-13 3.27598e-13 0 0 -8.67959e-14 5.65583e-14 -3.85433e-13 1.96334e-13 0 0 -2.23997e-13 1.47294e-13 -2.9693e-13 2.04081e-14 0 0 -2.96868e-13 -1.78534e-14 -2.57565e-14 -2.21038e-13 0 0 -2.37336e-13 -2.52048e-13 3.29145e-13 -4.76301e-13 0 0 -1.83724e-13 -3.46594e-13 3.11311e-13 -3.75014e-13 0 0 -1.30122e-13 -3.05032e-13 1.32362e-13 -9.88977e-14 0 0 -8.77616e-14 -2.62665e-13 -1.20533e-13 2.404e-13 0 0 -1.30976e-13 -1.45082e-13 -4.7664e-13 5.14067e-13 0 0 -2.93101e-13 4.92087e-14 -6.29463e-13 4.97103e-13 0 0 -3.75889e-13 7.28664e-14 -5.71386e-13 3.24531e-13 0 0 -2.79591e-13 -1.3795e-13 -3.18391e-13 1.42514e-14 0 0 -5.75894e-14 -5.35942e-13 1.32399e-14 -1.8929e-13 0 0 3.58127e-15 -6.77309e-13 1.49477e-13 -2.61734e-13 0 0 -6.30238e-14 -6.4171e-13 1.48415e-13 -2.45342e-13 0 0 -3.11138e-13 -4.56721e-13 1.01322e-13 -1.92183e-13 0 0 -7.47733e-13 -8.63682e-14 1.50873e-14 -1.65353e-13 0 0 -1.06591e-12 2.37835e-13 -1.03865e-13 -1.51858e-13 0 0 -1.12595e-12 2.69476e-13 -1.92969e-13 -1.33367e-13 0 0 -1.06939e-12 1.84549e-13 -1.87693e-13 -1.20543e-13 0 0 -9.23008e-13 -6.45076e-15 -8.97468e-14 -1.37107e-13 0 0 -7.14535e-13 -2.35989e-13 4.02394e-14 -1.67337e-13 0 0 -4.49972e-13 -3.81305e-13 1.04745e-13 -2.03767e-13 0 0 -1.2349e-13 -5.6479e-13 1.98144e-13 -2.11646e-13 0 0 3.89605e-14 -6.59294e-13 2.32252e-13 -1.41037e-13 0 0 3.0266e-14 -5.86286e-13 1.54408e-13 -2.16623e-14 0 0 -4.05758e-14 -4.00939e-13 5.04501e-14 4.09758e-14 0 0 -1.29183e-13 -1.72052e-13 -3.41577e-14 8.54234e-14 0 0 -1.48152e-13 -8.36342e-14 -8.55738e-15 7.61852e-14 0 0 -1.09906e-13 -7.23522e-14 1.86932e-14 8.38819e-14 0 0 -4.61291e-14 -6.58589e-14 3.03249e-14 1.34697e-13 0 0 4.12793e-14 -6.13143e-14 3.63544e-14 2.11693e-13 0 0 1.34027e-13 -5.82309e-14 -1.67558e-14 3.38355e-13 0 0 2.03726e-13 -6.05631e-14 -6.04323e-15 4.08198e-13 0 0 2.42609e-13 -6.24658e-14 -8.74329e-15 4.40431e-13 0 0 2.35643e-13 -5.09607e-14 -2.94677e-14 4.84286e-13 0 0 1.83215e-13 1.99753e-14 -1.71009e-14 4.8674e-13 0 0 1.4474e-13 7.14762e-14 3.62482e-14 4.03041e-13 0 0 1.48674e-13 5.06633e-14 1.34774e-13 2.74445e-13 0 0 1.45324e-13 2.95651e-14 2.65273e-13 9.77962e-14 0 0 1.36508e-13 6.18251e-14 2.42841e-13 9.13827e-14 0 0 1.43514e-13 1.12144e-13 1.7423e-13 8.05803e-14 0 0 1.70795e-13 1.31888e-13 1.39402e-13 6.50216e-14 0 0 1.76639e-13 1.67701e-13 5.2476e-14 1.1701e-13 0 0 1.61775e-13 1.79734e-13 5.07211e-14 9.36445e-14 0 0 1.42534e-13 1.69121e-13 7.18922e-14 5.44491e-14 0 0 1.26887e-13 1.58863e-13 6.55957e-14 1.49912e-14 0 0 1.11874e-13 1.3198e-13 6.69421e-14 -7.68474e-15 0 0 9.89099e-14 8.77934e-14 8.62053e-14 2.7689e-14 0 0 6.24748e-14 9.62436e-14 4.8099e-14 7.83666e-14 0 0 5.72617e-14 6.89706e-14 6.12443e-14 5.28795e-14 0 0 7.92941e-14 1.18886e-14 5.23564e-14 4.9196e-14 0 0 7.13655e-14 1.95394e-14 -7.98223e-15 4.06691e-14 0 0 7.18926e-14 4.98583e-14 -9.45651e-14 3.14655e-14 0 0 7.84033e-14 9.93359e-14 -1.60492e-13 -3.78982e-14 0 0 9.38963e-14 6.77545e-14 -1.0129e-13 -1.81489e-13 0 0 1.01294e-13 -2.12058e-14 -3.31668e-14 -1.65528e-13 0 0 8.71634e-14 -3.46366e-14 -3.88853e-14 -6.63758e-14 0 0 3.40624e-14 -4.15044e-15 -6.55963e-14 -2.65617e-14 0 0 9.41572e-15 -8.95151e-15 -4.46035e-14 -7.85518e-14 0 0 -9.25943e-15 -2.99926e-14 -1.92047e-16 -1.08635e-13 0 0 -5.54725e-14 -3.16077e-14 1.02206e-14 -6.10684e-14 0 0 -9.58814e-14 -7.65966e-15 -1.63706e-14 -6.62799e-14 0 0 -9.77853e-14 2.35137e-14 -9.75046e-14 -2.50308e-14 0 0 -8.15571e-14 -3.55721e-15 -1.16563e-13 4.35717e-14 0 0 -5.58683e-14 -6.17668e-14 -9.21278e-14 -2.08246e-15 0 0 -3.04928e-14 -5.34385e-14 -1.30889e-13 -3.46875e-14 0 0 -1.8475e-14 -4.12141e-14 -1.51369e-13 -1.0069e-13 0 0 -3.66772e-14 8.18663e-14 -3.39479e-13 -2.1015e-13 0 0 -1.70938e-14 1.05098e-13 -3.93266e-13 -2.85289e-13 0 0 6.53317e-14 -9.19099e-15 -6.84436e-14 -1.39864e-13 0 0 6.35048e-14 5.6447e-14 4.27856e-14 3.22485e-13 0 0 6.29742e-14 1.60023e-13 2.97809e-14 4.42373e-13 0 0 1.18552e-13 6.91873e-14 2.2992e-13 1.86704e-13 0 0 1.2411e-13 5.88811e-14 3.25707e-13 2.54439e-14 0 0 1.00874e-13 1.24738e-13 2.70018e-13 7.19557e-14 0 0 9.43407e-14 1.18648e-13 3.35204e-13 1.93179e-14 0 0 3.50969e-14 1.94133e-13 2.28586e-13 1.24848e-13 0 0 5.78991e-15 2.36004e-13 1.67261e-13 1.87557e-13 0 0 2.77396e-14 1.84013e-13 2.52207e-13 1.19972e-13 0 0 8.29791e-15 1.99453e-13 1.6947e-13 2.64396e-13 0 0 1.43547e-14 1.71754e-13 1.83365e-13 3.242e-13 0 0 4.09012e-14 4.82602e-14 3.90439e-13 2.17321e-13 0 0 6.67647e-14 -2.15016e-14 5.43792e-13 1.04924e-13 0 0 2.08482e-15 1.54137e-13 3.82208e-13 2.07425e-13 0 0 -3.44569e-14 2.61508e-13 2.97309e-13 2.82419e-13 0 0 2.78266e-14 1.91752e-13 4.16229e-13 2.72281e-13 0 0 -1.54879e-14 3.21548e-13 2.64506e-13 4.32818e-13 0 0 2.34629e-14 2.23887e-13 4.15817e-13 3.07569e-13 0 0 7.80287e-14 3.13609e-14 7.37e-13 6.92833e-14 0 0 -2.6887e-14 2.57784e-13 4.64591e-13 3.06965e-13 0 0 6.90742e-15 2.94964e-13 3.67326e-13 4.42971e-13 0 0 1.05758e-13 1.78992e-13 5.43984e-13 2.9194e-13 0 0 9.7848e-14 2.64167e-13 5.41163e-13 1.12583e-13 0 0 1.01245e-13 3.61964e-13 3.73922e-13 2.01197e-13 0 0 2.28114e-13 2.4655e-13 3.83571e-13 2.76504e-13 0 0 2.22042e-13 3.25193e-13 2.19962e-13 4.57361e-13 0 0 1.46065e-13 4.67866e-13 5.12375e-14 6.75445e-13 0 0 2.46341e-13 2.88244e-13 3.08345e-13 4.71267e-13 0 0 1.37305e-13 4.4197e-13 2.00126e-13 3.67107e-13 0 0 7.0915e-14 5.11363e-13 2.25515e-13 1.88097e-13 0 0 2.32422e-13 2.42292e-13 4.85899e-13 8.08477e-14 0 0 3.67396e-14 5.60213e-13 6.66336e-14 3.90544e-13 0 0 2.35448e-13 2.76812e-13 1.96467e-13 3.43268e-13 0 0 4.37844e-13 -9.21951e-14 5.38214e-13 1.86463e-13 0 0 1.11695e-13 4.16214e-13 2.87027e-13 1.47916e-13 0 0 1.99737e-13 3.49741e-13 3.46338e-13 6.20075e-14 0 0 2.71465e-13 2.97022e-13 1.64273e-13 2.68485e-13 0 0 2.30941e-13 4.3594e-13 -1.91445e-14 2.96316e-13 0 0 4.01934e-13 1.14003e-13 3.60946e-13 -1.62585e-14 0 0 4.47949e-13 -5.48695e-14 5.20918e-13 -1.01959e-13 0 0 2.82462e-13 1.70101e-13 2.35357e-13 6.20061e-14 0 0 2.69194e-13 2.93234e-13 1.67819e-13 -9.39107e-14 0 0 2.21389e-13 5.19652e-13 1.63751e-14 -1.78466e-13 0 0 3.41867e-13 3.54617e-13 -5.51819e-14 2.28643e-14 0 0 4.26214e-13 2.00372e-13 -1.11329e-13 2.72928e-13 0 0 9.45321e-14 6.04817e-13 -3.61254e-13 4.59389e-13 0 0 -5.20021e-15 5.57224e-13 -1.54868e-13 3.40532e-13 0 0 1.73334e-13 2.39368e-13 -1.71481e-14 3.61899e-13 0 0 2.95632e-13 2.31954e-13 -2.48472e-13 5.60788e-13 0 0 3.3507e-13 2.98751e-13 -3.55139e-13 5.89766e-13 0
				</DataArray>
				<DataArray Name="VitesseY" type="Float32" format="ascii">