<?xml version="1.0"?>
<VTKFile type="PolyData">
	<PolyData>
		<Piece NumberOfPoints="1206" NumberOfPolys="1000">
			<Points>
				<DataArray type="Float32" NumberOfComponents="3" format="ascii">
 0 0 0 0.02 0 0 0.04 0 0 0.06 0 0 0.08 0 0 0.1 0 0 0 0.005 0 0.02 0.005 0 0.04 0.005 0 0.06 0.005 0 0.08 0.005 0 0.1 0.005 0 0 0.01 0 0.02 0.01 0 0.04 0.01 0 0.06 0.01 0 0.08 0.01 0 0.1 0.01 0 0 0.015 0 0.02 0.015 0 0.04 0.015 0 0.06 0.015 0 0.08 0.015 0 0.1 0.015 0 0 0.02 0 0.02 0.02 0 0.04 0.02 0 0.06 0.02 0 0.08 0.02 0 0.1 0.02 0 0 0.025 0 0.02 0.025 0 0.04 0.025 0 0.06 0.025 0 0.08 0.025 0 0.1 0.025 0 0 0.03 0 0.02 0.03 0 0.04 0.03 0 0.06 0.03 0 0.08 0.03 0 0.1 0.03 0 0 0.035 0 0.02 0.035 0 0.04 0.035 0 0.06 0.035 0 0.08 0.035 0 0.1 0.035 0 0 0.04 0 0.02 0.04 0 0.04 0.04 0 0.06 0.04 0 0.08 0.04 0 0.1 0.04 0 0 0.045 0 0.02 0.045 0 0.04 0.045 0 0.06 0.045 0 0.08 0.045 0 0.1 0.045 0 0 0.05 0 0.02 0.05 0 0.04 0.05 0 0.06 0.05 0 0.08 0.05 0 0.1 0.05 0 0 0.055 0 0.02 0.055 0 0.04 0.055 0 0.06 0.055 0 0.08 0.055 0 0.1 0.055 0 0 0.06 0 0.02 0.06 0 0.04 0.06 0 0.06 0.06 0 0.08 0.06 0 0.1 0.06 0 0 0.065 0 0.02 0.065 0 0.04 0.065 0 0.06 0.065 0 0.08 0.065 0 0.1 0.065 0 0 0.07 0 0.02 0.07 0 0.04 0.07 0 0.06 0.07 0 0.08 0.07 0 0.1 0.07 0 0 0.075 0 0.02 0.075 0 0.04 0.075 0 0.06 0.075 0 0.08 0.075 0 0.1 0.075 0 0 0.08 0 0.02 0.08 0 0.04 0.08 0 0.06 0.08 0 0.08 0.08 0 0.1 0.08 0 0 0.085 0 0.02 0.085 0 0.04 0.085 0 0.06 0.085 0 0.08 0.085 0 0.1 0.085 0 0 0.09 0 0.02 0.09 0 0.04 0.09 0 0.06 0.09 0 0.08 0.09 0 0.1 0.09 0 0 0.095 0 0.02 0.095 0 0.04 0.095 0 0.06 0.095 0 0.08 0.095 0 0.1 0.095 0 0 0.1 0 0.02 0.1 0 0.04 0.1 0 0.06 0.1 0 0.08 0.1 0 0.1 0.1 0 0 0.105 0 0.02 0.105 0 0.04 0.105 0 0.06 0.105 0 0.08 0.105 0 0.1 0.105 0 0 0.11 0 0.02 0.11 0 0.04 0.11 0 0.06 0.11 0 0.08 0.11 0 0.1 0.11 0 0 0.115 0 0.02 0.115 0 0.04 0.115 0 0.06 0.115 0 0.08 0.115 0 0.1 0.115 0 0 0.12 0 0.02 0.12 0 0.04 0.12 0 0.06 0.12 0 0.08 0.12 0 0.1 0.12 0 0 0.125 0 0.02 0.125 0 0.04 0.125 0 0.06 0.125 0 0.08 0.125 0 0.1 0.125 0 0 0.13 0 0.02 0.13 0 0.04 0.13 0 0.06 0.13 0 0.08 0.13 0 0.1 0.13 0 0 0.135 0 0.02 0.135 0 0.04 0.135 0 0.06 0.135 0 0.08 0.135 0 0.1 0.135 0 0 0.14 0 0.02 0.14 0 0.04 0.14 0 0.06 0.14 0 0.08 0.14 0 0.1 0.14 0 0 0.145 0 0.02 0.145 0 0.04 0.145 0 0.06 0.145 0 0.08 0.145 0 0.1 0.145 0 0 0.15 0 0.02 0.15 0 0.04 0.15 0 0.06 0.15 0 0.08 0.15 0 0.1 0.15 0 0 0.155 0 0.02 0.155 0 0.04 0.155 0 0.06 0.155 0 0.08 0.155 0 0.1 0.155 0 0 0.16 0 0.02 0.16 0 0.04 0.16 0 0.06 0.16 0 0.08 0.16 0 0.1 0.16 0 0 0.165 0 0.02 0.165 0 0.04 0.165 0 0.06 0.165 0 0.08 0.165 0 0.1 0.165 0 0 0.17 0 0.02 0.17 0 0.04 0.17 0 0.06 0.17 0 0.08 0.17 0 0.1 0.17 0 0 0.175 0 0.02 0.175 0 0.04 0.175 0 0.06 0.175 0 0.08 0.175 0 0.1 0.175 0 0 0.18 0 0.02 0.18 0 0.04 0.18 0 0.06 0.18 0 0.08 0.18 0 0.1 0.18 0 0 0.185 0 0.02 0.185 0 0.04 0.185 0 0.06 0.185 0 0.08 0.185 0 0.1 0.185 0 0 0.19 0 0.02 0.19 0 0.04 0.19 0 0.06 0.19 0 0.08 0.19 0 0.1 0.19 0 0 0.195 0 0.02 0.195 0 0.04 0.195 0 0.06 0.195 0 0.08 0.195 0 0.1 0.195 0 0 0.2 0 0.02 0.2 0 0.04 0.2 0 0.06 0.2 0 0.08 0.2 0 0.1 0.2 0 0 0.205 0 0.02 0.205 0 0.04 0.205 0 0.06 0.205 0 0.08 0.205 0 0.1 0.205 0 0 0.21 0 0.02 0.21 0 0.04 0.21 0 0.06 0.21 0 0.08 0.21 0 0.1 0.21 0 0 0.215 0 0.02 0.215 0 0.04 0.215 0 0.06 0.215 0 0.08 0.215 0 0.1 0.215 0 0 0.22 0 0.02 0.22 0 0.04 0.22 0 0.06 0.22 0 0.08 0.22 0 0.1 0.22 0 0 0.225 0 0.02 0.225 0 0.04 0.225 0 0.06 0.225 0 0.08 0.225 0 0.1 0.225 0 0 0.23 0 0.02 0.23 0 0.04 0.23 0 0.06 0.23 0 0.08 0.23 0 0.1 0.23 0 0 0.235 0 0.02 0.235 0 0.04 0.235 0 0.06 0.235 0 0.08 0.235 0 0.1 0.235 0 0 0.24 0 0.02 0.24 0 0.04 0.24 0 0.06 0.24 0 0.08 0.24 0 0.1 0.24 0 0 0.245 0 0.02 0.245 0 0.04 0.245 0 0.06 0.245 0 0.08 0.245 0 0.1 0.245 0 0 0.25 0 0.02 0.25 0 0.04 0.25 0 0.06 0.25 0 0.08 0.25 0 0.1 0.25 0 0 0.255 0 0.02 0.255 0 0.04 0.255 0 0.06 0.255 0 0.08 0.255 0 0.1 0.255 0 0 0.26 0 0.02 0.26 0 0.04 0.26 0 0.06 0.26 0 0.08 0.26 0 0.1 0.26 0 0 0.265 0 0.02 0.265 0 0.04 0.265 0 0.06 0.265 0 0.08 0.265 0 0.1 0.265 0 0 0.27 0 0.02 0.27 0 0.04 0.27 0 0.06 0.27 0 0.08 0.27 0 0.1 0.27 0 0 0.275 0 0.02 0.275 0 0.04 0.275 0 0.06 0.275 0 0.08 0.275 0 0.1 0.275 0 0 0.28 0 0.02 0.28 0 0.04 0.28 0 0.06 0.28 0 0.08 0.28 0 0.1 0.28 0 0 0.285 0 0.02 0.285 0 0.04 0.285 0 0.06 0.285 0 0.08 0.285 0 0.1 0.285 0 0 0.29 0 0.02 0.29 0 0.04 0.29 0 0.06 0.29 0 0.08 0.29 0 0.1 0.29 0 0 0.295 0 0.02 0.295 0 0.04 0.295 0 0.06 0.295 0 0.08 0.295 0 0.1 0.295 0 0 0.3 0 0.02 0.3 0 0.04 0.3 0 0.06 0.3 0 0.08 0.3 0 0.1 0.3 0 0 0.305 0 0.02 0.305 0 0.04 0.305 0 0.06 0.305 0 0.08 0.305 0 0.1 0.305 0 0 0.31 0 0.02 0.31 0 0.04 0.31 0 0.06 0.31 0 0.08 0.31 0 0.1 0.31 0 0 0.315 0 0.02 0.315 0 0.04 0.315 0 0.06 0.315 0 0.08 0.315 0 0.1 0.315 0 0 0.32 0 0.02 0.32 0 0.04 0.32 0 0.06 0.32 0 0.08 0.32 0 0.1 0.32 0 0 0.325 0 0.02 0.325 0 0.04 0.325 0 0.06 0.325 0 0.08 0.325 0 0.1 0.325 0 0 0.33 0 0.02 0.33 0 0.04 0.33 0 0.06 0.33 0 0.08 0.33 0 0.1 0.33 0 0 0.335 0 0.02 0.335 0 0.04 0.335 0 0.06 0.335 0 0.08 0.335 0 0.1 0.335 0 0 0.34 0 0.02 0.34 0 0.04 0.34 0 0.06 0.34 0 0.08 0.34 0 0.1 0.34 0 0 0.345 0 0.02 0.345 0 0.04 0.345 0 0.06 0.345 0 0.08 0.345 0 0.1 0.345 0 0 0.35 0 0.02 0.35 0 0.04 0.35 0 0.06 0.35 0 0.08 0.35 0 0.1 0.35 0 0 0.355 0 0.02 0.355 0 0.04 0.355 0 0.06 0.355 0 0.08 0.355 0 0.1 0.355 0 0 0.36 0 0.02 0.36 0 0.04 0.36 0 0.06 0.36 0 0.08 0.36 0 0.1 0.36 0 0 0.365 0 0.02 0.365 0 0.04 0.365 0 0.06 0.365 0 0.08 0.365 0 0.1 0.365 0 0 0.37 0 0.02 0.37 0 0.04 0.37 0 0.06 0.37 0 0.08 0.37 0 0.1 0.37 0 0 0.375 0 0.02 0.375 0 0.04 0.375 0 0.06 0.375 0 0.08 0.375 0 0.1 0.375 0 0 0.38 0 0.02 0.38 0 0.04 0.38 0 0.06 0.38 0 0.08 0.38 0 0.1 0.38 0 0 0.385 0 0.02 0.385 0 0.04 0.385 0 0.06 0.385 0 0.08 0.385 0 0.1 0.385 0 0 0.39 0 0.02 0.39 0 0.04 0.39 0 0.06 0.39 0 0.08 0.39 0 0.1 0.39 0 0 0.395 0 0.02 0.395 0 0.04 0.395 0 0.06 0.395 0 0.08 0.395 0 0.1 0.395 0 0 0.4 0 0.02 0.4 0 0.04 0.4 0 0.06 0.4 0 0.08 0.4 0 0.1 0.4 0 0 0.405 0 0.02 0.405 0 0.04 0.405 0 0.06 0.405 0 0.08 0.405 0 0.1 0.405 0 0 0.41 0 0.02 0.41 0 0.04 0.41 0 0.06 0.41 0 0.08 0.41 0 0.1 0.41 0 0 0.415 0 0.02 0.415 0 0.04 0.415 0 0.06 0.415 0 0.08 0.415 0 0.1 0.415 0 0 0.42 0 0.02 0.42 0 0.04 0.42 0 0.06 0.42 0 0.08 0.42 0 0.1 0.42 0 0 0.425 0 0.02 0.425 0 0.04 0.425 0 0.06 0.425 0 0.08 0.425 0 0.1 0.425 0 0 0.43 0 0.02 0.43 0 0.04 0.43 0 0.06 0.43 0 0.08 0.43 0 0.1 0.43 0 0 0.435 0 0.02 0.435 0 0.04 0.435 0 0.06 0.435 0 0.08 0.435 0 0.1 0.435 0 0 0.44 0 0.02 0.44 0 0.04 0.44 0 0.06 0.44 0 0.08 0.44 0 0.1 0.44 0 0 0.445 0 0.02 0.445 0 0.04 0.445 0 0.06 0.445 0 0.08 0.445 0 0.1 0.445 0 0 0.45 0 0.02 0.45 0 0.04 0.45 0 0.06 0.45 0 0.08 0.45 0 0.1 0.45 0 0 0.455 0 0.02 0.455 0 0.04 0.455 0 0.06 0.455 0 0.08 0.455 0 0.1 0.455 0 0 0.46 0 0.02 0.46 0 0.04 0.46 0 0.06 0.46 0 0.08 0.46 0 0.1 0.46 0 0 0.465 0 0.02 0.465 0 0.04 0.465 0 0.06 0.465 0 0.08 0.465 0 0.1 0.465 0 0 0.47 0 0.02 0.47 0 0.04 0.47 0 0.06 0.47 0 0.08 0.47 0 0.1 0.47 0 0 0.475 0 0.02 0.475 0 0.04 0.475 0 0.06 0.475 0 0.08 0.475 0 0.1 0.475 0 0 0.48 0 0.02 0.48 0 0.04 0.48 0 0.06 0.48 0 0.08 0.48 0 0.1 0.48 0 0 0.485 0 0.02 0.485 0 0.04 0.485 0 0.06 0.485 0 0.08 0.485 0 0.1 0.485 0 0 0.49 0 0.02 0.49 0 0.04 0.49 0 0.06 0.49 0 0.08 0.49 0 0.1 0.49 0 0 0.495 0 0.02 0.495 0 0.04 0.495 0 0.06 0.495 0 0.08 0.495 0 0.1 0.495 0 0 0.5 0 0.02 0.5 0 0.04 0.5 0 0.06 0.5 0 0.08 0.5 0 0.1 0.5 0 0 0.505 0 0.02 0.505 0 0.04 0.505 0 0.06 0.505 0 0.08 0.505 0 0.1 0.505 0 0 0.51 0 0.02 0.51 0 0.04 0.51 0 0.06 0.51 0 0.08 0.51 0 0.1 0.51 0 0 0.515 0 0.02 0.515 0 0.04 0.515 0 0.06 0.515 0 0.08 0.515 0 0.1 0.515 0 0 0.52 0 0.02 0.52 0 0.04 0.52 0 0.06 0.52 0 0.08 0.52 0 0.1 0.52 0 0 0.525 0 0.02 0.525 0 0.04 0.525 0 0.06 0.525 0 0.08 0.525 0 0.1 0.525 0 0 0.53 0 0.02 0.53 0 0.04 0.53 0 0.06 0.53 0 0.08 0.53 0 0.1 0.53 0 0 0.535 0 0.02 0.535 0 0.04 0.535 0 0.06 0.535 0 0.08 0.535 0 0.1 0.535 0 0 0.54 0 0.02 0.54 0 0.04 0.54 0 0.06 0.54 0 0.08 0.54 0 0.1 0.54 0 0 0.545 0 0.02 0.545 0 0.04 0.545 0 0.06 0.545 0 0.08 0.545 0 0.1 0.545 0 0 0.55 0 0.02 0.55 0 0.04 0.55 0 0.06 0.55 0 0.08 0.55 0 0.1 0.55 0 0 0.555 0 0.02 0.555 0 0.04 0.555 0 0.06 0.555 0 0.08 0.555 0 0.1 0.555 0 0 0.56 0 0.02 0.56 0 0.04 0.56 0 0.06 0.56 0 0.08 0.56 0 0.1 0.56 0 0 0.565 0 0.02 0.565 0 0.04 0.565 0 0.06 0.565 0 0.08 0.565 0 0.1 0.565 0 0 0.57 0 0.02 0.57 0 0.04 0.57 0 0.06 0.57 0 0.08 0.57 0 0.1 0.57 0 0 0.575 0 0.02 0.575 0 0.04 0.575 0 0.06 0.575 0 0.08 0.575 0 0.1 0.575 0 0 0.58 0 0.02 0.58 0 0.04 0.58 0 0.06 0.58 0 0.08 0.58 0 0.1 0.58 0 0 0.585 0 0.02 0.585 0 0.04 0.585 0 0.06 0.585 0 0.08 0.585 0 0.1 0.585 0 0 0.59 0 0.02 0.59 0 0.04 0.59 0 0.06 0.59 0 0.08 0.59 0 0.1 0.59 0 0 0.595 0 0.02 0.595 0 0.04 0.595 0 0.06 0.595 0 0.08 0.595 0 0.1 0.595 0 0 0.6 0 0.02 0.6 0 0.04 0.6 0 0.06 0.6 0 0.08 0.6 0 0.1 0.6 0 0 0.605 0 0.02 0.605 0 0.04 0.605 0 0.06 0.605 0 0.08 0.605 0 0.1 0.605 0 0 0.61 0 0.02 0.61 0 0.04 0.61 0 0.06 0.61 0 0.08 0.61 0 0.1 0.61 0 0 0.615 0 0.02 0.615 0 0.04 0.615 0 0.06 0.615 0 0.08 0.615 0 0.1 0.615 0 0 0.62 0 0.02 0.62 0 0.04 0.62 0 0.06 0.62 0 0.08 0.62 0 0.1 0.62 0 0 0.625 0 0.02 0.625 0 0.04 0.625 0 0.06 0.625 0 0.08 0.625 0 0.1 0.625 0 0 0.63 0 0.02 0.63 0 0.04 0.63 0 0.06 0.63 0 0.08 0.63 0 0.1 0.63 0 0 0.635 0 0.02 0.635 0 0.04 0.635 0 0.06 0.635 0 0.08 0.635 0 0.1 0.635 0 0 0.64 0 0.02 0.64 0 0.04 0.64 0 0.06 0.64 0 0.08 0.64 0 0.1 0.64 0 0 0.645 0 0.02 0.645 0 0.04 0.645 0 0.06 0.645 0 0.08 0.645 0 0.1 0.645 0 0 0.65 0 0.02 0.65 0 0.04 0.65 0 0.06 0.65 0 0.08 0.65 0 0.1 0.65 0 0 0.655 0 0.02 0.655 0 0.04 0.655 0 0.06 0.655 0 0.08 0.655 0 0.1 0.655 0 0 0.66 0 0.02 0.66 0 0.04 0.66 0 0.06 0.66 0 0.08 0.66 0 0.1 0.66 0 0 0.665 0 0.02 0.665 0 0.04 0.665 0 0.06 0.665 0 0.08 0.665 0 0.1 0.665 0 0 0.67 0 0.02 0.67 0 0.04 0.67 0 0.06 0.67 0 0.08 0.67 0 0.1 0.67 0 0 0.675 0 0.02 0.675 0 0.04 0.675 0 0.06 0.675 0 0.08 0.675 0 0.1 0.675 0 0 0.68 0 0.02 0.68 0 0.04 0.68 0 0.06 0.68 0 0.08 0.68 0 0.1 0.68 0 0 0.685 0 0.02 0.685 0 0.04 0.685 0 0.06 0.685 0 0.08 0.685 0 0.1 0.685 0 0 0.69 0 0.02 0.69 0 0.04 0.69 0 0.06 0.69 0 0.08 0.69 0 0.1 
[...]
			<PointData Scalars="VitesseX">
				<DataArray Name="VitesseX" type="Float32" format="ascii">
 0 5.75162e-15 -1.17712e-14 -3.87406e-15 -3.04466e-14 0 0 4.64781e-15 -8.45001e-15 -9.44361e-15 -2.65009e-14 0 0 1.63391e-15 -1.96952e-15 -1.9062e-14 -1.95716e-14 0 0 1.07314e-15 -5.44811e-15 -1.52381e-14 -2.19173e-14 0 0 1.82372e-15 -9.16375e-15 -1.50416e-14 -2.05779e-14 0 0 -6.32658e-15 2.51699e-15 -2.94434e-14 -1.29799e-14 0 0 -1.34729e-14 -2.77812e-15 -2.16982e-14 -1.85395e-14 0 0 -5.19553e-15 -3.12629e-14 3.52345e-15 -2.8641e-14 0 0 1.72953e-15 -4.12155e-14 -6.86459e-16 -2.13449e-14 0 0 -5.33571e-15 -3.24323e-14 -2.90913e-14 9.63686e-15 0 0 -8.95509e-15 -3.4973e-14 -2.04769e-14 1.96922e-15 0 0 -1.124e-14 -3.19833e-14 -1.88214e-14 -9.14855e-15 0 0 -1.21779e-14 -3.74027e-14 -1.17201e-14 -1.31998e-14 0 0 -1.3421e-14 -4.30804e-14 3.74943e-15 -2.02765e-14 0 0 -3.37859e-14 -1.51899e-14 -2.77691e-14 1.09357e-14 0 0 -2.09364e-14 -2.85758e-14 -2.46053e-14 1.40245e-14 0 0 -1.05457e-14 -4.0429e-14 -2.86582e-14 3.23547e-14 0 0 -3.78185e-14 4.87416e-15 -7.35654e-14 7.40341e-14 0 0 -3.47648e-15 -2.23147e-14 -4.82823e-14 5.20318e-14 0 0 2.96199e-14 -5.07529e-14 -8.47792e-15 8.27162e-15 0 0 -2.01658e-14 3.83961e-14 -6.99494e-14 2.11575e-14 0 0 -1.96164e-14 3.26674e-14 -5.66045e-14 1.4352e-14 0 0 -7.94668e-15 -1.42453e-14 1.52677e-14 -3.711e-14 0 0 -2.36626e-14 8.50729e-15 -4.3163e-15 -3.20798e-14 0 0 1.85312e-14 -4.23238e-14 2.9324e-14 -4.68549e-14 0 0 5.92226e-14 -9.80857e-14 7.50274e-14 -8.95884e-14 0 0 3.14834e-15 -4.6895e-15 -5.02186e-15 -7.79017e-14 0 0 -6.66674e-14 8.80855e-14 -7.06388e-14 -6.61979e-14 0 0 -2.25044e-14 6.76415e-15 3.87003e-16 -9.18185e-14 0 0 -2.93807e-15 -6.86617e-15 -3.26384e-14 -3.65621e-14 0 0 4.81505e-15 -1.75165e-14 -5.25786e-14 -3.90381e-14 0 0 7.1602e-15 -7.70423e-14 9.50089e-15 -8.34674e-14 0 0 5.7411e-16 -8.94035e-14 7.88104e-15 -3.82127e-14 0 0 -1.94032e-14 -4.43862e-14 -3.59271e-14 1.19854e-14 0 0 -6.23694e-14 2.57634e-14 -9.58961e-14 5.29685e-14 0 0 -9.67019e-15 -3.52302e-14 -1.45097e-14 -2.0536e-14 0 0 5.0508e-14 -1.12726e-13 6.99291e-14 -6.64117e-14 0 0 1.40885e-14 -5.46153e-14 -1.04338e-15 1.48889e-15 0 0 -3.27386e-14 3.40007e-14 -9.10173e-14 4.05348e-14 0 0 -9.06971e-15 -1.33247e-14 -1.73048e-14 -2.17749e-14 0 0 -3.17728e-14 4.85552e-14 -4.74218e-14 -4.93069e-14 0 0 -5.72055e-14 1.04315e-13 -5.86953e-14 -1.03977e-13 0 0 -6.74644e-15 -1.05818e-16 4.38116e-14 -1.70881e-13 0 0 -4.7695e-15 -9.03997e-15 1.43698e-14 -1.03473e-13 0 0 5.95587e-14 -7.19398e-14 3.58672e-14 -7.39323e-14 0 0 4.2371e-14 2.7904e-14 -9.35053e-14 2.99092e-14 0 0 -3.83295e-14 1.49864e-13 -1.77704e-13 9.24638e-14 0 0 1.21507e-14 3.25087e-14 8.68708e-15 -5.67044e-14 0 0 -1.62966e-14 3.87381e-14 9.29554e-14 -1.34706e-13 0 0 -1.02696e-13 1.29865e-13 4.62716e-14 -7.38097e-14 0 0 -4.20648e-14 6.10895e-14 7.00591e-14 -3.09866e-14 0 0 -2.12534e-14 5.27051e-14 3.54967e-14 3.03482e-14 0 0 -9.87518e-14 1.25416e-13 -1.9795e-14 8.14041e-14 0 0 -1.55983e-13 1.80127e-13 -1.26114e-13 1.91141e-13 0 0 -6.27834e-14 2.28102e-14 1.81132e-14 5.0003e-14 0 0 5.14129e-14 -1.6739e-13 2.55572e-13 -2.33137e-13 0 0 -6.94284e-14 7.40016e-14 -5.9082e-14 -8.59363e-14 0 0 -1.1192e-13 1.93837e-13 -2.9606e-13 9.41427e-14 0 0 -4.03201e-14 1.04271e-14 -1.21374e-13 2.47112e-14 0 0 5.45563e-15 -1.74199e-13 1.03869e-13 -1.45066e-13 0 0 6.73524e-14 -2.0907e-13 2.04427e-14 -1.49861e-13 0 0 6.30372e-14 -7.87698e-14 -2.7868e-13 -4.79462e-14 0 0 6.52157e-14 -1.20747e-14 -3.52535e-13 -1.04841e-13 0 0 4.97409e-14 3.24194e-14 -3.09242e-13 -1.64785e-13 0 0 7.40012e-14 2.57653e-15 -2.4108e-13 -2.03267e-13 0 0 5.71835e-14 3.10193e-14 -2.15838e-13 -2.33073e-13 0 0 -1.5547e-13 2.63609e-13 -3.77274e-13 -1.20647e-13 0 0 -2.0214e-13 1.64985e-13 -2.60512e-13 -1.37362e-13 0 0 -3.19129e-14 -2.06771e-13 1.46778e-13 -3.34852e-13 0 0 4.27782e-14 -2.69576e-13 1.86766e-13 -3.96054e-13 0 0 5.98594e-15 -9.10685e-14 -6.6874e-14 -3.07078e-13 0 0 -1.04748e-13 1.6176e-13 -4.04243e-13 -1.85839e-13 0 0 -1.87868e-13 1.18848e-13 -3.31895e-13 -2.59627e-13 0 0 -1.8994e-13 -1.06667e-13 -5.89023e-14 -4.38268e-13 0 0 -2.22327e-13 -3.19238e-13 2.09402e-13 -5.37376e-13 0 0 -2.83641e-13 -3.42739e-13 1.66881e-13 -4.04876e-13 0 0 -3.48342e-13 -2.52546e-13 -3.61165e-14 -1.366e-13 0 0 -4.28453e-13 -1.3375e-13 -1.54897e-13 1.40309e-13 0 0 -4.59353e-13 -1.69628e-13 -6.25184e-14 9.29938e-14 0 0 -4.80386e-13 -2.79264e-13 1.47402e-13 -3.90456e-14 0 0 -5.16622e-13 -2.8787e-13 3.05658e-13 -2.51876e-13 0 0 -5.95976e-13 -2.31978e-13 3.28965e-13 -4.07239e-13 0 0 -6.85963e-13 -8.1724e-14 2.6554e-13 -3.88013e-13 0 0 -6.29012e-13 -8.98052e-14 1.96223e-13 -3.17928e-13 0 0 -4.96714e-13 -1.60534e-13 1.7318e-13 -3.28307e-13 0 0 -2.55032e-13 -3.0629e-13 6.95402e-14 -3.00194e-13 0 0 -1.54395e-13 -2.81951e-13 -1.10021e-13 -2.18149e-13 0 0 -1.59116e-13 -1.46114e-13 -3.85242e-13 -1.02334e-13 0 0 -1.68686e-13 -6.14869e-14 -5.35242e-13 4.77421e-14 0 0 -1.29002e-13 -1.31208e-13 -4.51647e-13 -6.73224e-15 0 0 5.11851e-15 -3.7412e-13 -2.20734e-13 -1.71922e-13 0 0 1.00102e-13 -5.7187e-13 1.62044e-14 -3.83162e-13 0 0 8.6133e-14 -5.76501e-13 4.98865e-14 -5.11393e-13 0 0 -3.96156e-14 -4.6564e-13 -4.95937e-15 -6.0498e-13 0 0 -2.84354e-13 -2.25328e-13 -1.13414e-13 -7.19871e-13 0 0 -5.40639e-13 6.6795e-14 -2.31451e-13 -8.27506e-13 0 0 -6.69008e-13 2.45882e-13 -3.02121e-13 -8.22915e-13 0 0 -6.37406e-13 2.41225e-13 -3.66678e-13 -7.76288e-13 0 0 -4.53976e-13 1.1478e-13 -4.47472e-13 -6.44389e-13 0 0 -2.47152e-13 -4.42028e-14 -5.4232e-13 -4.26762e-13 0 0 -8.40812e-14 -1.75638e-13 -6.61689e-13 -1.69579e-13 0 0 5.71068e-14 -2.94097e-13 -6.6587e-13 -2.67064e-14 0 0 8.11662e-14 -3.23533e-13 -6.54104e-13 5.43207e-14 0 0 5.5647e-14 -3.41538e-13 -6.20313e-13 6.42494e-14 0 0 4.68402e-14 -4.44895e-13 -5.23012e-13 3.81999e-14 0 0 -1.54628e-14 -4.681e-13 -3.44434e-13 -5.17217e-14 0 0 -1.16093e-13 -4.34015e-13 -2.44576e-13 -1.87294e-13 0 0 -1.35382e-13 -4.44504e-13 -1.76975e-13 -2.33727e-13 0 0 -1.71416e-13 -4.15166e-13 -2.0214e-13 -2.06042e-13 0 0 -1.88122e-13 -3.78931e-13 -2.32672e-13 -1.64158e-13 0 0 -1.99478e-13 -3.24599e-13 -2.65831e-13 -8.26263e-14 0 0 -2.28059e-13 -2.28468e-13 -3.22067e-13 -7.98438e-15 0 0 -2.39239e-13 -1.61915e-13 -3.2721e-13 2.33408e-14 0 0 -2.38769e-13 -1.73055e-13 -2.85769e-13 9.49774e-15 0 0 -2.47293e-13 -1.89757e-13 -1.82521e-13 -7.61129e-14 0 0 -2.36323e-13 -1.93424e-13 -7.56673e-14 -1.12407e-13 0 0 -1.69548e-13 -1.89093e-13 -9.16926e-14 -7.92378e-14 0 0 -1.14198e-13 -1.92744e-13 -8.33118e-14 -1.2456e-14 0 0 -1.00327e-13 -1.87637e-13 -7.02537e-14 5.37226e-14 0 0 -7.93454e-14 -2.01456e-13 -3.50887e-14 5.72723e-14 0 0 -4.62651e-14 -2.22687e-13 1.86639e-14 7.43923e-14 0 0 -4.9522e-14 -2.05374e-13 2.21321e-14 1.18388e-13 0 0 -7.47059e-14 -1.4465e-13 1.69959e-14 8.32579e-14 0 0 -1.1904e-13 -7.33805e-14 2.35266e-14 4.32118e-14 0 0 -1.36897e-13 -5.01592e-14 5.17106e-14 2.5693e-14 0 0 -1.41588e-13 1.8439e-14 -2.76052e-15 2.08593e-14 0 0 -1.45377e-13 7.21179e-14 -7.77404e-14 5.97388e-14 0 0 -1.40716e-13 7.4634e-14 -8.49464e-14 7.67454e-14 0 0 -1.16231e-13 5.7509e-14 -6.2166e-14 5.09324e-14 0 0 -8.37577e-14 -8.47742e-15 -1.27373e-14 2.43774e-14 0 0 -7.41906e-14 -5.63157e-14 -3.20043e-14 -1.05566e-14 0 0 -4.54475e-14 -1.42364e-13 -1.61664e-14 -2.13548e-14 0 0 -4.56373e-14 -1.76158e-13 -2.0286e-14 -1.23619e-14 0 0 -9.55271e-14 -1.2744e-13 -9.27993e-14 -2.76647e-14 0 0 -9.63106e-14 -1.4827e-13 -1.45071e-13 3.80622e-14 0 0 -9.91455e-14 -1.38885e-13 -2.12959e-13 6.56342e-14 0 0 -9.97386e-14 -1.65078e-13 -1.72002e-13 -3.37432e-14 0 0 -8.05894e-14 -2.38124e-13 -8.91607e-14 -1.19886e-13 0 0 -1.05295e-13 -2.10086e-13 -1.54149e-13 -6.0021e-14 0 0 -1.24218e-13 -1.22056e-13 -2.75325e-13 -2.13534e-14 0 0 -1.16855e-13 -7.79318e-14 -3.33448e-13 -4.97264e-14 0 0 -9.54065e-14 -1.05815e-13 -3.15901e-13 -9.78422e-14 0 0 -9.33975e-14 -1.37493e-13 -2.90491e-13 -1.43918e-13 0 0 -1.05247e-13 -1.31535e-13 -2.91744e-13 -1.03119e-13 0 0 -1.01517e-13 -1.50616e-13 -2.93963e-13 1.09108e-14 0 0 -1.15583e-13 -2.01197e-13 -2.48333e-13 -2.92681e-15 0 0 -1.16958e-13 -2.74252e-13 -1.55397e-13 -1.07075e-13 0 0 -1.20074e-13 -2.81019e-13 -1.71911e-13 -1.97466e-13 0 0 -1.2123e-13 -2.78086e-13 -2.10358e-13 -3.02499e-13 0 0 -1.21917e-13 -2.66429e-13 -3.30286e-13 -2.27795e-13 0 0 -1.22121e-13 -2.40695e-13 -4.9975e-13 -2.29629e-13 0 0 -1.12032e-13 -2.25562e-13 -5.30439e-13 -4.35094e-13 0 0 -9.50927e-14 -2.35757e-13 -4.90767e-13 -5.08054e-13 0 0 -7.72942e-14 -3.1266e-13 -2.966e-13 -3.78831e-13 0 0 -1.00406e-13 -3.00304e-13 -1.68294e-13 3.7436e-14 0 0 -1.50544e-13 -2.88594e-13 -1.2022e-13 2.73805e-13 0 0 -1.53002e-13 -2.68181e-13 -1.25177e-13 2.15599e-13 0 0 -1.60219e-13 -1.61949e-13 -2.69078e-13 1.30552e-13 0 0 -1.15699e-13 -1.81127e-13 -1.53235e-13 -5.11735e-15 0 0 -1.20698e-13 -1.5681e-13 -8.61456e-14 2.53273e-14 0 0 -1.70942e-13 -6.14587e-14 -1.2647e-13 6.3486e-14 0 0 -1.87895e-13 -2.76632e-14 -1.16371e-13 2.1737e-14 0 0 -1.91119e-13 -4.86652e-14 -7.44768e-14 5.0918e-14 0 0 -8.29453e-14 -1.7934e-13 9.80496e-14 -1.20003e-13 0 0 -4.78443e-14 -2.05965e-13 1.7742e-13 -2.2198e-13 0 0 -1.29271e-13 -1.11069e-13 1.34736e-13 -1.62452e-13 0 0 -1.83257e-13 -1.10125e-14 3.8782e-14 -6.64593e-14 0 0 -1.06496e-13 -9.86791e-14 1.42739e-13 -6.37675e-14 0 0 -7.30285e-14 -1.06361e-13 1.73561e-13 -1.00296e-13 0 0 -1.03215e-13 -7.77957e-15 1.10212e-13 -8.12655e-14 0 0 -3.55808e-14 -7.16308e-14 1.96236e-13 -9.07363e-14 0 0 4.81398e-17 -6.96712e-14 1.49564e-13 1.55562e-14 0 0 -3.22656e-14 -2.4626e-14 1.2075e-13 1.04096e-13 0 0 -5.68997e-14 3.72933e-14 6.92448e-14 2.48129e-13 0 0 -1.967e-14 1.21302e-14 7.92714e-14 2.64013e-13 0 0 -9.69705e-14 7.5608e-14 7.30785e-14 2.49075e-13 0 0 -9.83158e-14 6.24158e-14 9.01522e-14 2.46929e-13 0 0 2.20192e-14 -1.22527e-13 2.77973e-13 1.93863e-15 0 0 -4.10972e-14 -4.89225e-14 2.44029e-13 -6.3791e-14 0 0 -5.15215e-14 -5.75397e-14 2.92754e-13 -1.35327e-13 0 0 3.44673e-14 -2.07656e-13 4.08778e-13 -1.57081e-13 0 0 -4.77125e-15 -1.25301e-13 2.7088e-13 2.78741e-14 0 0 4.7594e-14 -1.89899e-13 3.65592e-13 -8.21818e-14 0 0 -5.86061e-14 -2.85347e-14 2.25238e-13 -8.32273e-14 0 0 -2.64116e-13 2.7649e-13 -1.17538e-13 1.32699e-13 0 0 1.31525e-14 -1.22873e-13 1.01155e-13 1.51204e-13 0 0 -1.58901e-14 -1.39234e-13 1.44723e-13 8.95145e-14 0 0 -2.52259e-13 7.37027e-14 1.08651e-13 -7.6646e-14 0 0 -3.26745e-13 1.54258e-13 -2.84558e-14 5.96897e-15 0 0 -4.43437e-13 2.96726e-13 -1.28638e-13 1.92938e-14 0 0 -8.0475e-14 -2.62508e-13 2.99418e-13 -1.49757e-13 0 0 2.49556e-13 -5.89308e-13 3.30486e-13 -4.88453e-14 0 0 1.67914e-13 -3.15067e-13 1.24312e-13 -1.36614e-13 0 0 1.97355e-13 -2.80957e-13 1.2394e-13 -2.30304e-13 0 0 1.49351e-13 -2.0549e-13 -8.04191e-14 5.96566e-14 0 0 -1.50994e-14 9.06091e-14 -4.51812e-13 3.64408e-13 0 0 1.40545e-14 1.6194e-13 -5.50591e-13 2.96106e-13 0 0 3.952e-14 7.16945e-14 -2.83672e-13 -9.0778e-14 0 0 6.25735e-14 -7.496e-14 -1.60607e-14 -2.60083e-13 0 0 1.80626e-13 -3.42675e-13 1.39262e-13 -1.4997e-13 0 0 2.30981e-13 -4.58333e-13 1.90492e-13 -9.2955e-14 0
				</DataArray>
				<DataArray Name="VitesseY" type="Float32" format="ascii">