<?xml version="1.0"?>
<VTKFile type="PolyData">
	<PolyData>
		<Piece NumberOfPoints="1206" NumberOfPolys="1000">
			<Points>
				<DataArray type="Float32" NumberOfComponents="3" format="ascii">
 0 0 0 0.02 0 0 0.04 0 0 0.06 0 0 0.08 0 0 0.1 0 0 0 0.005 0 0.02 0.005 0 0.04 0.005 0 0.06 0.005 0 0.08 0.005 0 0.1 0.005 0 0 0.01 0 0.02 0.01 0 0.04 0.01 0 0.06 0.01 0 0.08 0.01 0 0.1 0.01 0 0 0.015 0 0.02 0.015 0 0.04 0.015 0 0.06 0.015 0 0.08 0.015 0 0.1 0.015 0 0 0.02 0 0.02 0.02 0 0.04 0.02 0 0.06 0.02 0 0.08 0.02 0 0.1 0.02 0 0 0.025 0 0.02 0.025 0 0.04 0.025 0 0.06 0.025 0 0.08 0.025 0 0.1 0.025 0 0 0.03 0 0.02 0.03 0 0.04 0.03 0 0.06 0.03 0 0.08 0.03 0 0.1 0.03 0 0 0.035 0 0.02 0.035 0 0.04 0.035 0 0.06 0.035 0 0.08 0.035 0 0.1 0.035 0 0 0.04 0 0.02 0.04 0 0.04 0.04 0 0.06 0.04 0 0.08 0.04 0 0.1 0.04 0 0 0.045 0 0.02 0.045 0 0.04 0.045 0 0.06 0.045 0 0.08 0.045 0 0.1 0.045 0 0 0.05 0 0.02 0.05 0 0.04 0.05 0 0.06 0.05 0 0.08 0.05 0 0.1 0.05 0 0 0.055 0 0.02 0.055 0 0.04 0.055 0 0.06 0.055 0 0.08 0.055 0 0.1 0.055 0 0 0.06 0 0.02 0.06 0 0.04 0.06 0 0.06 0.06 0 0.08 0.06 0 0.1 0.06 0 0 0.065 0 0.02 0.065 0 0.04 0.065 0 0.06 0.065 0 0.08 0.065 0 0.1 0.065 0 0 0.07 0 0.02 0.07 0 0.04 0.07 0 0.06 0.07 0 0.08 0.07 0 0.1 0.07 0 0 0.075 0 0.02 0.075 0 0.04 0.075 0 0.06 0.075 0 0.08 0.075 0 0.1 0.075 0 0 0.08 0 0.02 0.08 0 0.04 0.08 0 0.06 0.08 0 0.08 0.08 0 0.1 0.08 0 0 0.085 0 0.02 0.085 0 0.04 0.085 0 0.06 0.085 0 0.08 0.085 0 0.1 0.085 0 0 0.09 0 0.02 0.09 0 0.04 0.09 0 0.06 0.09 0 0.08 0.09 0 0.1 0.09 0 0 0.095 0 0.02 0.095 0 0.04 0.095 0 0.06 0.095 0 0.08 0.095 0 0.1 0.095 0 0 0.1 0 0.02 0.1 0 0.04 0.1 0 0.06 0.1 0 0.08 0.1 0 0.1 0.1 0 0 0.105 0 0.02 0.105 0 0.04 0.105 0 0.06 0.105 0 0.08 0.105 0 0.1 0.105 0 0 0.11 0 0.02 0.11 0 0.04 0.11 0 0.06 0.11 0 0.08 0.11 0 0.1 0.11 0 0 0.115 0 0.02 0.115 0 0.04 0.115 0 0.06 0.115 0 0.08 0.115 0 0.1 0.115 0 0 0.12 0 0.02 0.12 0 0.04 0.12 0 0.06 0.12 0 0.08 0.12 0 0.1 0.12 0 0 0.125 0 0.02 0.125 0 0.04 0.125 0 0.06 0.125 0 0.08 0.125 0 0.1 0.125 0 0 0.13 0 0.02 0.13 0 0.04 0.13 0 0.06 0.13 0 0.08 0.13 0 0.1 0.13 0 0 0.135 0 0.02 0.135 0 0.04 0.135 0 0.06 0.135 0 0.08 0.135 0 0.1 0.135 0 0 0.14 0 0.02 0.14 0 0.04 0.14 0 0.06 0.14 0 0.08 0.14 0 0.1 0.14 0 0 0.145 0 0.02 0.145 0 0.04 0.145 0 0.06 0.145 0 0.08 0.145 0 0.1 0.145 0 0 0.15 0 0.02 0.15 0 0.04 0.15 0 0.06 0.15 0 0.08 0.15 0 0.1 0.15 0 0 0.155 0 0.02 0.155 0 0.04 0.155 0 0.06 0.155 0 0.08 0.155 0 0.1 0.155 0 0 0.16 0 0.02 0.16 0 0.04 0.16 0 0.06 0.16 0 0.08 0.16 0 0.1 0.16 0 0 0.165 0 0.02 0.165 0 0.04 0.165 0 0.06 0.165 0 0.08 0.165 0 0.1 0.165 0 0 0.17 0 0.02 0.17 0 0.04 0.17 0 0.06 0.17 0 0.08 0.17 0 0.1 0.17 0 0 0.175 0 0.02 0.175 0 0.04 0.175 0 0.06 0.175 0 0.08 0.175 0 0.1 0.175 0 0 0.18 0 0.02 0.18 0 0.04 0.18 0 0.06 0.18 0 0.08 0.18 0 0.1 0.18 0 0 0.185 0 0.02 0.185 0 0.04 0.185 0 0.06 0.185 0 0.08 0.185 0 0.1 0.185 0 0 0.19 0 0.02 0.19 0 0.04 0.19 0 0.06 0.19 0 0.08 0.19 0 0.1 0.19 0 0 0.195 0 0.02 0.195 0 0.04 0.195 0 0.06 0.195 0 0.08 0.195 0 0.1 0.195 0 0 0.2 0 0.02 0.2 0 0.04 0.2 0 0.06 0.2 0 0.08 0.2 0 0.1 0.2 0 0 0.205 0 0.02 0.205 0 0.04 0.205 0 0.06 0.205 0 0.08 0.205 0 0.1 0.205 0 0 0.21 0 0.02 0.21 0 0.04 0.21 0 0.06 0.21 0 0.08 0.21 0 0.1 0.21 0 0 0.215 0 0.02 0.215 0 0.04 0.215 0 0.06 0.215 0 0.08 0.215 0 0.1 0.215 0 0 0.22 0 0.02 0.22 0 0.04 0.22 0 0.06 0.22 0 0.08 0.22 0 0.1 0.22 0 0 0.225 0 0.02 0.225 0 0.04 0.225 0 0.06 0.225 0 0.08 0.225 0 0.1 0.225 0 0 0.23 0 0.02 0.23 0 0.04 0.23 0 0.06 0.23 0 0.08 0.23 0 0.1 0.23 0 0 0.235 0 0.02 0.235 0 0.04 0.235 0 0.06 0.235 0 0.08 0.235 0 0.1 0.235 0 0 0.24 0 0.02 0.24 0 0.04 0.24 0 0.06 0.24 0 0.08 0.24 0 0.1 0.24 0 0 0.245 0 0.02 0.245 0 0.04 0.245 0 0.06 0.245 0 0.08 0.245 0 0.1 0.245 0 0 0.25 0 0.02 0.25 0 0.04 0.25 0 0.06 0.25 0 0.08 0.25 0 0.1 0.25 0 0 0.255 0 0.02 0.255 0 0.04 0.255 0 0.06 0.255 0 0.08 0.255 0 0.1 0.255 0 0 0.26 0 0.02 0.26 0 0.04 0.26 0 0.06 0.26 0 0.08 0.26 0 0.1 0.26 0 0 0.265 0 0.02 0.265 0 0.04 0.265 0 0.06 0.265 0 0.08 0.265 0 0.1 0.265 0 0 0.27 0 0.02 0.27 0 0.04 0.27 0 0.06 0.27 0 0.08 0.27 0 0.1 0.27 0 0 0.275 0 0.02 0.275 0 0.04 0.275 0 0.06 0.275 0 0.08 0.275 0 0.1 0.275 0 0 0.28 0 0.02 0.28 0 0.04 0.28 0 0.06 0.28 0 0.08 0.28 0 0.1 0.28 0 0 0.285 0 0.02 0.285 0 0.04 0.285 0 0.06 0.285 0 0.08 0.285 0 0.1 0.285 0 0 0.29 0 0.02 0.29 0 0.04 0.29 0 0.06 0.29 0 0.08 0.29 0 0.1 0.29 0 0 0.295 0 0.02 0.295 0 0.04 0.295 0 0.06 0.295 0 0.08 0.295 0 0.1 0.295 0 0 0.3 0 0.02 0.3 0 0.04 0.3 0 0.06 0.3 0 0.08 0.3 0 0.1 0.3 0 0 0.305 0 0.02 0.305 0 0.04 0.305 0 0.06 0.305 0 0.08 0.305 0 0.1 0.305 0 0 0.31 0 0.02 0.31 0 0.04 0.31 0 0.06 0.31 0 0.08 0.31 0 0.1 0.31 0 0 0.315 0 0.02 0.315 0 0.04 0.315 0 0.06 0.315 0 0.08 0.315 0 0.1 0.315 0 0 0.32 0 0.02 0.32 0 0.04 0.32 0 0.06 0.32 0 0.08 0.32 0 0.1 0.32 0 0 0.325 0 0.02 0.325 0 0.04 0.325 0 0.06 0.325 0 0.08 0.325 0 0.1 0.325 0 0 0.33 0 0.02 0.33 0 0.04 0.33 0 0.06 0.33 0 0.08 0.33 0 0.1 0.33 0 0 0.335 0 0.02 0.335 0 0.04 0.335 0 0.06 0.335 0 0.08 0.335 0 0.1 0.335 0 0 0.34 0 0.02 0.34 0 0.04 0.34 0 0.06 0.34 0 0.08 0.34 0 0.1 0.34 0 0 0.345 0 0.02 0.345 0 0.04 0.345 0 0.06 0.345 0 0.08 0.345 0 0.1 0.345 0 0 0.35 0 0.02 0.35 0 0.04 0.35 0 0.06 0.35 0 0.08 0.35 0 0.1 0.35 0 0 0.355 0 0.02 0.355 0 0.04 0.355 0 0.06 0.355 0 0.08 0.355 0 0.1 0.355 0 0 0.36 0 0.02 0.36 0 0.04 0.36 0 0.06 0.36 0 0.08 0.36 0 0.1 0.36 0 0 0.365 0 0.02 0.365 0 0.04 0.365 0 0.06 0.365 0 0.08 0.365 0 0.1 0.365 0 0 0.37 0 0.02 0.37 0 0.04 0.37 0 0.06 0.37 0 0.08 0.37 0 0.1 0.37 0 0 0.375 0 0.02 0.375 0 0.04 0.375 0 0.06 0.375 0 0.08 0.375 0 0.1 0.375 0 0 0.38 0 0.02 0.38 0 0.04 0.38 0 0.06 0.38 0 0.08 0.38 0 0.1 0.38 0 0 0.385 0 0.02 0.385 0 0.04 0.385 0 0.06 0.385 0 0.08 0.385 0 0.1 0.385 0 0 0.39 0 0.02 0.39 0 0.04 0.39 0 0.06 0.39 0 0.08 0.39 0 0.1 0.39 0 0 0.395 0 0.02 0.395 0 0.04 0.395 0 0.06 0.395 0 0.08 0.395 0 0.1 0.395 0 0 0.4 0 0.02 0.4 0 0.04 0.4 0 0.06 0.4 0 0.08 0.4 0 0.1 0.4 0 0 0.405 0 0.02 0.405 0 0.04 0.405 0 0.06 0.405 0 0.08 0.405 0 0.1 0.405 0 0 0.41 0 0.02 0.41 0 0.04 0.41 0 0.06 0.41 0 0.08 0.41 0 0.1 0.41 0 0 0.415 0 0.02 0.415 0 0.04 0.415 0 0.06 0.415 0 0.08 0.415 0 0.1 0.415 0 0 0.42 0 0.02 0.42 0 0.04 0.42 0 0.06 0.42 0 0.08 0.42 0 0.1 0.42 0 0 0.425 0 0.02 0.425 0 0.04 0.425 0 0.06 0.425 0 0.08 0.425 0 0.1 0.425 0 0 0.43 0 0.02 0.43 0 0.04 0.43 0 0.06 0.43 0 0.08 0.43 0 0.1 0.43 0 0 0.435 0 0.02 0.435 0 0.04 0.435 0 0.06 0.435 0 0.08 0.435 0 0.1 0.435 0 0 0.44 0 0.02 0.44 0 0.04 0.44 0 0.06 0.44 0 0.08 0.44 0 0.1 0.44 0 0 0.445 0 0.02 0.445 0 0.04 0.445 0 0.06 0.445 0 0.08 0.445 0 0.1 0.445 0 0 0.45 0 0.02 0.45 0 0.04 0.45 0 0.06 0.45 0 0.08 0.45 0 0.1 0.45 0 0 0.455 0 0.02 0.455 0 0.04 0.455 0 0.06 0.455 0 0.08 0.455 0 0.1 0.455 0 0 0.46 0 0.02 0.46 0 0.04 0.46 0 0.06 0.46 0 0.08 0.46 0 0.1 0.46 0 0 0.465 0 0.02 0.465 0 0.04 0.465 0 0.06 0.465 0 0.08 0.465 0 0.1 0.465 0 0 0.47 0 0.02 0.47 0 0.04 0.47 0 0.06 0.47 0 0.08 0.47 0 0.1 0.47 0 0 0.475 0 0.02 0.475 0 0.04 0.475 0 0.06 0.475 0 0.08 0.475 0 0.1 0.475 0 0 0.48 0 0.02 0.48 0 0.04 0.48 0 0.06 0.48 0 0.08 0.48 0 0.1 0.48 0 0 0.485 0 0.02 0.485 0 0.04 0.485 0 0.06 0.485 0 0.08 0.485 0 0.1 0.485 0 0 0.49 0 0.02 0.49 0 0.04 0.49 0 0.06 0.49 0 0.08 0.49 0 0.1 0.49 0 0 0.495 0 0.02 0.495 0 0.04 0.495 0 0.06 0.495 0 0.08 0.495 0 0.1 0.495 0 0 0.5 0 0.02 0.5 0 0.04 0.5 0 0.06 0.5 0 0.08 0.5 0 0.1 0.5 0 0 0.505 0 0.02 0.505 0 0.04 0.505 0 0.06 0.505 0 0.08 0.505 0 0.1 0.505 0 0 0.51 0 0.02 0.51 0 0.04 0.51 0 0.06 0.51 0 0.08 0.51 0 0.1 0.51 0 0 0.515 0 0.02 0.515 0 0.04 0.515 0 0.06 0.515 0 0.08 0.515 0 0.1 0.515 0 0 0.52 0 0.02 0.52 0 0.04 0.52 0 0.06 0.52 0 0.08 0.52 0 0.1 0.52 0 0 0.525 0 0.02 0.525 0 0.04 0.525 0 0.06 0.525 0 0.08 0.525 0 0.1 0.525 0 0 0.53 0 0.02 0.53 0 0.04 0.53 0 0.06 0.53 0 0.08 0.53 0 0.1 0.53 0 0 0.535 0 0.02 0.535 0 0.04 0.535 0 0.06 0.535 0 0.08 0.535 0 0.1 0.535 0 0 0.54 0 0.02 0.54 0 0.04 0.54 0 0.06 0.54 0 0.08 0.54 0 0.1 0.54 0 0 0.545 0 0.02 0.545 0 0.04 0.545 0 0.06 0.545 0 0.08 0.545 0 0.1 0.545 0 0 0.55 0 0.02 0.55 0 0.04 0.55 0 0.06 0.55 0 0.08 0.55 0 0.1 0.55 0 0 0.555 0 0.02 0.555 0 0.04 0.555 0 0.06 0.555 0 0.08 0.555 0 0.1 0.555 0 0 0.56 0 0.02 0.56 0 0.04 0.56 0 0.06 0.56 0 0.08 0.56 0 0.1 0.56 0 0 0.565 0 0.02 0.565 0 0.04 0.565 0 0.06 0.565 0 0.08 0.565 0 0.1 0.565 0 0 0.57 0 0.02 0.57 0 0.04 0.57 0 0.06 0.57 0 0.08 0.57 0 0.1 0.57 0 0 0.575 0 0.02 0.575 0 0.04 0.575 0 0.06 0.575 0 0.08 0.575 0 0.1 0.575 0 0 0.58 0 0.02 0.58 0 0.04 0.58 0 0.06 0.58 0 0.08 0.58 0 0.1 0.58 0 0 0.585 0 0.02 0.585 0 0.04 0.585 0 0.06 0.585 0 0.08 0.585 0 0.1 0.585 0 0 0.59 0 0.02 0.59 0 0.04 0.59 0 0.06 0.59 0 0.08 0.59 0 0.1 0.59 0 0 0.595 0 0.02 0.595 0 0.04 0.595 0 0.06 0.595 0 0.08 0.595 0 0.1 0.595 0 0 0.6 0 0.02 0.6 0 0.04 0.6 0 0.06 0.6 0 0.08 0.6 0 0.1 0.6 0 0 0.605 0 0.02 0.605 0 0.04 0.605 0 0.06 0.605 0 0.08 0.605 0 0.1 0.605 0 0 0.61 0 0.02 0.61 0 0.04 0.61 0 0.06 0.61 0 0.08 0.61 0 0.1 0.61 0 0 0.615 0 0.02 0.615 0 0.04 0.615 0 0.06 0.615 0 0.08 0.615 0 0.1 0.615 0 0 0.62 0 0.02 0.62 0 0.04 0.62 0 0.06 0.62 0 0.08 0.62 0 0.1 0.62 0 0 0.625 0 0.02 0.625 0 0.04 0.625 0 0.06 0.625 0 0.08 0.625 0 0.1 0.625 0 0 0.63 0 0.02 0.63 0 0.04 0.63 0 0.06 0.63 0 0.08 0.63 0 0.1 0.63 0 0 0.635 0 0.02 0.635 0 0.04 0.635 0 0.06 0.635 0 0.08 0.635 0 0.1 0.635 0 0 0.64 0 0.02 0.64 0 0.04 0.64 0 0.06 0.64 0 0.08 0.64 0 0.1 0.64 0 0 0.645 0 0.02 0.645 0 0.04 0.645 0 0.06 0.645 0 0.08 0.645 0 0.1 0.645 0 0 0.65 0 0.02 0.65 0 0.04 0.65 0 0.06 0.65 0 0.08 0.65 0 0.1 0.65 0 0 0.655 0 0.02 0.655 0 0.04 0.655 0 0.06 0.655 0 0.08 0.655 0 0.1 0.655 0 0 0.66 0 0.02 0.66 0 0.04 0.66 0 0.06 0.66 0 0.08 0.66 0 0.1 0.66 0 0 0.665 0 0.02 0.665 0 0.04 0.665 0 0.06 0.665 0 0.08 0.665 0 0.1 0.665 0 0 0.67 0 0.02 0.67 0 0.04 0.67 0 0.06 0.67 0 0.08 0.67 0 0.1 0.67 0 0 0.675 0 0.02 0.675 0 0.04 0.675 0 0.06 0.675 0 0.08 0.675 0 0.1 0.675 0 0 0.68 0 0.02 0.68 0 0.04 0.68 0 0.06 0.68 0 0.08 0.68 0 0.1 0.68 0 0 0.685 0 0.02 0.685 0 0.04 0.685 0 0.06 0.685 0 0.08 0.685 0 0.1 0.685 0 0 0.69 0 0.02 0.69 0 0.04 0.69 0 0.06 0.69 0 0.08 0.69 0 0.1 
[...]
			<PointData Scalars="VitesseX">
				<DataArray Name="VitesseX" type="Float32" format="ascii">
 0 3.43579e-14 1.15352e-14 9.42076e-15 4.74173e-14 0 0 2.40367e-14 2.35924e-14 7.54975e-15 3.94981e-14 0 0 2.31817e-14 1.91261e-14 3.13006e-14 8.16291e-15 0 0 6.96981e-15 4.29048e-14 2.21996e-14 1.67572e-15 0 0 1.25232e-15 6.09911e-14 -3.98751e-16 1.50884e-14 0 0 4.74909e-14 1.07527e-14 2.82262e-14 1.04915e-17 0 0 6.34117e-14 -4.29925e-16 3.33721e-14 -1.38138e-14 0 0 5.17269e-14 1.72128e-14 2.44128e-14 -2.87871e-14 0 0 4.12124e-14 3.58461e-14 -9.9546e-16 -1.97761e-14 0 0 3.13852e-14 4.5687e-14 -2.43391e-14 1.13438e-14 0 0 1.75271e-14 6.82676e-14 -4.90441e-14 3.41132e-14 0 0 3.60794e-14 4.76142e-14 -9.55378e-15 -4.49987e-15 0 0 1.87177e-14 7.14567e-14 -4.40589e-15 -1.35723e-14 0 0 2.79569e-14 5.55024e-14 2.25955e-14 -1.58443e-14 0 0 5.45639e-14 1.60372e-14 5.77464e-14 -1.99599e-14 0 0 1.38227e-14 6.8534e-14 1.75116e-14 -7.3542e-15 0 0 1.5624e-14 5.32491e-14 3.28262e-14 -2.01606e-14 0 0 3.22419e-14 3.31748e-14 1.97521e-14 2.28646e-14 0 0 3.84411e-14 3.39487e-14 -5.6873e-15 7.16269e-14 0 0 2.08675e-14 5.75487e-14 -1.86346e-14 9.19754e-14 0 0 3.50033e-14 4.0969e-14 9.24511e-15 8.10052e-14 0 0 5.60136e-14 4.18417e-14 2.37304e-14 6.12992e-14 0 0 5.98251e-14 6.50519e-14 1.87033e-14 7.4228e-14 0 0 7.0163e-14 5.67845e-14 3.69645e-14 9.35643e-14 0 0 5.91099e-14 7.41199e-14 6.35461e-14 6.00271e-14 0 0 4.93307e-14 9.46834e-14 4.99652e-14 5.6335e-14 0 0 7.03679e-14 7.43928e-14 4.77872e-14 5.05181e-14 0 0 7.05467e-14 1.04744e-13 1.17246e-14 5.90715e-14 0 0 9.42193e-14 5.62319e-14 1.06005e-13 -4.49161e-14 0 0 1.02333e-13 9.06274e-15 1.77113e-13 -1.12472e-13 0 0 7.74269e-14 4.06025e-14 1.11015e-13 -5.11059e-14 0 0 6.30463e-14 5.74448e-14 7.71942e-14 -2.46561e-14 0 0 4.18268e-14 9.86777e-14 -6.11512e-15 5.99758e-14 0 0 6.78383e-14 4.18887e-14 1.56402e-14 9.05046e-14 0 0 5.45755e-14 7.01815e-14 -5.84128e-14 1.53334e-13 0 0 9.23635e-14 2.14822e-14 -1.55679e-14 9.96352e-14 0 0 9.74095e-14 -3.70981e-15 3.71221e-14 5.34147e-14 0 0 5.79665e-14 7.38827e-14 -8.08355e-14 1.64407e-13 0 0 2.96232e-14 1.39895e-13 -1.45933e-13 1.94042e-13 0 0 9.36717e-14 6.75081e-14 -4.7764e-14 8.65896e-14 0 0 1.39213e-13 5.1328e-14 -3.16779e-14 3.57251e-14 0 0 1.34384e-13 9.78413e-14 -4.13056e-14 4.00898e-14 0 0 2.43327e-13 -4.2926e-14 1.25573e-13 -3.04987e-14 0 0 2.80179e-13 -1.0193e-13 2.1861e-13 -9.29347e-14 0 0 1.95958e-13 3.10907e-15 1.56922e-13 -6.94051e-14 0 0 1.37653e-13 1.27198e-13 1.50839e-16 3.13712e-14 0 0 1.0708e-13 2.15301e-13 -1.15933e-13 1.0448e-13 0 0 1.37041e-13 1.39056e-13 -5.89059e-14 1.26125e-13 0 0 2.20873e-13 -4.94287e-14 7.40536e-14 1.76905e-13 0 0 2.9445e-13 -2.34801e-13 2.64743e-13 1.10248e-13 0 0 3.0705e-13 -3.21348e-13 3.6634e-13 3.07801e-14 0 0 1.65943e-13 -9.38501e-14 1.13392e-13 1.88056e-13 0 0 1.95586e-13 -9.89539e-14 7.61692e-14 2.05642e-13 0 0 1.68088e-13 -1.98725e-14 -3.01606e-14 2.29357e-13 0 0 1.17377e-13 8.02503e-14 -1.61612e-13 2.95164e-13 0 0 2.471e-13 -1.04377e-13 -1.41222e-14 2.32358e-13 0 0 1.38873e-13 7.61733e-14 -1.62021e-13 2.99566e-13 0 0 1.19171e-13 1.36737e-13 -1.49659e-13 2.35383e-13 0 0 2.27413e-13 -3.58687e-14 1.12395e-13 1.19811e-16 0 0 1.73881e-13 -2.79478e-14 1.88372e-13 -8.81184e-14 0 0 1.05651e-13 6.43083e-14 1.23921e-13 -4.58043e-14 0 0 1.14904e-13 1.02018e-13 4.64558e-14 5.25802e-16 0 0 2.00578e-13 -2.00865e-14 1.34333e-13 -7.25114e-14 0 0 1.91721e-13 -2.37932e-14 1.14719e-13 -5.69601e-14 0 0 1.37022e-13 1.58394e-14 1.4915e-13 -9.04406e-14 0 0 1.31011e-13 4.05948e-14 1.68058e-13 -1.46876e-13 0 0 8.07617e-14 1.71217e-13 -5.1172e-14 1.37594e-14 0 0 1.6992e-13 2.51474e-14 7.40773e-14 -7.93579e-14 0 0 2.03877e-13 -2.14182e-14 8.84578e-14 -7.08171e-14 0 0 1.88589e-13 7.80321e-14 -6.60606e-14 1.53791e-13 0 0 3.12941e-13 -6.54991e-14 5.26298e-14 2.05528e-13 0 0 2.21578e-13 8.39734e-14 -7.20689e-14 2.94869e-13 0 0 3.08362e-13 8.59411e-14 6.38081e-15 1.63941e-13 0 0 2.78053e-13 2.65585e-13 -1.4429e-13 2.28523e-13 0 0 3.3582e-13 1.94359e-13 -1.15594e-13 2.74924e-13 0 0 4.20141e-13 -3.65039e-14 1.85572e-13 1.35409e-13 0 0 8.80992e-14 3.64398e-13 -7.93626e-14 3.25718e-13 0 0 3.234e-13 2.30426e-14 2.59868e-13 2.24176e-13 0 0 3.22741e-13 9.37674e-14 2.03729e-13 3.42836e-13 0 0 3.25352e-13 2.80481e-14 3.86321e-13 1.27097e-13 0 0 2.74208e-13 2.65353e-13 1.27199e-13 1.36764e-13 0 0 -3.30307e-14 8.45798e-13 -4.19862e-13 4.40735e-13 0 0 2.79944e-13 1.22178e-13 5.56895e-13 -1.7898e-13 0 0 4.37935e-14 4.24963e-13 3.51834e-13 5.93331e-14 0 0 -2.36083e-13 1.1775e-12 -3.00286e-13 5.38945e-13 0 0 3.44202e-13 6.3008e-13 2.80871e-13 1.33037e-13 0 0 8.36974e-13 2.04102e-14 6.58933e-13 1.76666e-14 0 0 6.84928e-13 3.42393e-13 3.57374e-13 2.16827e-13 0 0 4.22874e-13 6.52399e-13 3.90766e-13 -3.498e-14 0 0 1.0522e-13 7.14414e-13 8.13773e-13 -5.98689e-13 0 0 -1.75362e-13 7.7664e-13 7.68131e-13 -5.35126e-13 0 0 -1.70571e-13 8.10433e-13 5.38208e-13 -2.48045e-13 0 0 2.03564e-13 4.93236e-13 4.53973e-13 4.75252e-14 0 0 6.01388e-13 2.46647e-13 2.75218e-13 3.06778e-13 0 0 6.09138e-13 3.35866e-13 4.63729e-14 4.03436e-13 0 0 5.76962e-13 2.84311e-13 9.62831e-14 2.35994e-13 0 0 4.28631e-13 1.08231e-13 4.21792e-13 -1.11675e-13 0 0 4.13443e-13 -2.64447e-15 5.09433e-13 -9.71116e-14 0 0 5.45041e-13 -1.65547e-13 4.38535e-13 1.3427e-13 0 0 5.91456e-13 -2.07276e-13 2.28986e-13 4.93374e-13 0 0 4.31551e-13 -9.13836e-15 -2.79623e-13 9.61836e-13 0 0 1.16305e-13 2.21343e-13 -4.81964e-13 1.03262e-12 0 0 -2.05053e-13 3.2381e-13 -3.98012e-13 8.48123e-13 0 0 -2.69022e-13 2.76811e-13 -1.5834e-13 4.17083e-13 0 0 -3.06654e-14 2.41917e-14 1.86699e-14 2.28548e-13 0 0 3.19123e-13 -2.06528e-13 1.00382e-13 2.13293e-13 0 0 3.95856e-13 -2.61286e-13 1.74301e-13 2.01469e-13 0 0 3.29267e-13 -2.62007e-13 3.11591e-13 1.06441e-13 0 0 2.33101e-13 -2.73209e-13 4.67666e-13 5.11964e-14 0 0 1.83927e-13 -2.4048e-13 4.23307e-13 9.48138e-14 0 0 1.51658e-13 -2.11565e-13 4.42846e-13 5.66649e-14 0 0 1.20841e-13 -1.55379e-13 3.92318e-13 1.04386e-13 0 0 5.5759e-14 -4.42218e-14 2.86203e-13 2.01314e-13 0 0 4.38774e-16 3.55828e-14 2.70837e-13 2.1073e-13 0 0 5.15235e-15 9.43604e-14 2.09848e-13 2.14514e-13 0 0 8.75768e-15 1.54219e-13 1.79116e-13 1.56153e-13 0 0 3.19479e-14 1.56386e-13 1.94504e-13 6.65499e-14 0 0 1.1125e-13 7.02637e-14 2.38053e-13 -3.14177e-14 0 0 1.68291e-13 4.63302e-14 2.2269e-13 -5.92882e-14 0 0 1.53073e-13 1.15711e-13 7.0066e-14 -1.08168e-14 0 0 1.21489e-13 1.80668e-13 -9.18719e-16 -8.24326e-14 0 0 1.25475e-13 1.48993e-13 3.13668e-14 -1.518e-13 0 0 1.34986e-13 1.1624e-13 1.73766e-14 -1.07002e-13 0 0 1.07903e-13 1.17779e-13 1.1941e-14 -1.21587e-13 0 0 7.66858e-14 1.34916e-13 5.91041e-15 -8.58544e-14 0 0 8.84071e-14 1.33981e-13 7.658e-14 -2.40485e-14 0 0 9.05761e-14 1.99178e-13 1.7305e-14 8.71825e-14 0 0 9.91863e-14 2.59759e-13 -1.06524e-13 2.18153e-13 0 0 1.66601e-13 1.41071e-13 1.02432e-13 1.43388e-13 0 0 1.43253e-13 2.7167e-13 4.20954e-14 2.06099e-13 0 0 1.65407e-13 2.75359e-13 7.29125e-14 1.67016e-13 0 0 2.74859e-13 8.28293e-14 3.1142e-13 -5.34225e-14 0 0 2.27741e-13 1.88674e-13 2.13841e-13 4.43982e-14 0 0 2.45247e-13 1.83742e-13 2.18218e-13 1.16996e-13 0 0 2.00944e-13 2.69102e-13 1.90844e-13 7.99976e-14 0 0 1.86344e-13 3.09407e-13 2.14237e-13 1.41449e-13 0 0 2.59365e-13 2.43479e-13 2.89023e-13 2.21911e-13 0 0 2.44499e-13 2.89264e-13 2.63622e-13 2.38702e-13 0 0 2.45795e-13 2.78968e-13 3.0927e-13 2.16524e-13 0 0 3.3144e-13 1.912e-13 3.7309e-13 1.8572e-13 0 0 3.63959e-13 2.33868e-13 2.83773e-13 2.30189e-13 0 0 3.31676e-13 3.6458e-13 1.64776e-13 2.53946e-13 0 0 4.28513e-13 2.80435e-13 2.63298e-13 1.15806e-13 0 0 4.88436e-13 2.43269e-13 3.22165e-13 4.15048e-14 0 0 4.31863e-13 3.46526e-13 2.21468e-13 1.18182e-13 0 0 2.26222e-13 6.5943e-13 -1.67158e-13 4.09127e-13 0 0 4.09555e-13 3.02141e-13 1.24915e-13 2.88029e-13 0 0 6.55883e-13 -1.28787e-13 5.31521e-13 3.10148e-14 0 0 4.98613e-13 1.30569e-13 2.55099e-13 2.03324e-13 0 0 2.78518e-13 5.23119e-13 -2.14618e-13 5.7425e-13 0 0 2.30102e-13 7.338e-13 -5.59909e-13 8.24856e-13 0 0 6.48198e-13 8.16028e-14 1.73433e-13 2.46845e-13 0 0 6.94654e-13 -3.06609e-14 4.98469e-13 -1.06985e-13 0 0 4.53911e-13 2.12448e-13 4.45109e-13 -1.6479e-13 0 0 2.81701e-13 3.72618e-13 3.61767e-13 -2.22481e-13 0 0 2.68674e-13 5.36465e-13 4.10232e-14 2.72817e-14 0 0 4.28242e-13 2.71443e-13 1.72022e-13 2.61797e-13 0 0 4.8367e-13 5.86604e-14 4.75317e-13 2.27265e-13 0 0 2.95829e-13 1.75111e-13 6.1684e-13 4.49397e-14 0 0 -1.80894e-13 8.32605e-13 4.84391e-14 4.73903e-13 0 0 -7.15345e-14 6.97942e-13 1.13272e-13 6.57641e-13 0 0 5.71946e-13 -4.42116e-13 1.23039e-12 1.21251e-13 0 0 7.74107e-13 -8.12834e-13 1.44082e-12 9.34595e-14 0 0 3.64201e-13 -1.23487e-13 6.90622e-13 4.67353e-13 0 0 -2.92039e-13 7.64428e-13 4.0589e-14 6.38206e-13 0 0 -5.27276e-13 9.59646e-13 -1.41869e-14 6.17891e-13 0 0 -8.64814e-15 1.20126e-13 7.64865e-13 2.14479e-13 0 0 2.70243e-13 -2.31885e-13 9.60757e-13 1.62113e-13 0 0 2.38448e-13 -1.51115e-13 8.05503e-13 2.79382e-13 0 0 1.70429e-13 -5.09695e-14 7.9119e-13 2.59488e-13 0 0 -4.77277e-14 2.69334e-13 5.32242e-13 3.8845e-13 0 0 -9.57267e-14 3.89571e-13 3.48297e-13 4.65751e-13 0 0 -7.00458e-14 4.42207e-13 1.48088e-13 5.74435e-13 0 0 9.99704e-14 2.85683e-13 1.52279e-13 6.10955e-13 0 0 2.91806e-13 5.47509e-14 3.58169e-13 4.55911e-13 0 0 2.058e-13 1.59735e-13 3.73207e-13 2.72669e-13 0 0 -1.14303e-13 5.07741e-13 1.81555e-13 2.84554e-13 0 0 -1.27467e-13 4.09549e-13 1.19206e-13 4.55572e-13 0 0 2.34604e-13 -9.95155e-14 3.15466e-13 4.55793e-13 0 0 4.97704e-13 -2.79806e-13 3.60869e-13 3.43032e-13 0 0 3.76617e-13 -1.23621e-14 3.23892e-13 4.62389e-14 0 0 -1.44642e-13 6.08537e-13 -6.19599e-15 1.33267e-13 0 0 -3.8233e-13 9.39865e-13 -2.52354e-13 3.40054e-13 0 0 1.35771e-13 1.43142e-13 5.71107e-13 -1.65899e-13 0 0 4.93937e-13 -3.12824e-13 8.16339e-13 -1.16342e-13 0 0 2.2566e-13 2.70706e-13 2.2347e-13 2.29571e-13 0 0 1.40989e-13 5.17764e-13 -1.89544e-14 2.61838e-13 0 0 1.64698e-13 4.97553e-13 -4.43438e-14 2.42069e-13 0 0 3.4358e-13 2.03262e-13 3.99177e-13 -2.33122e-13 0 0 5.49623e-13 3.32668e-14 4.95616e-13 -2.73723e-13 0 0 5.53189e-13 2.35973e-13 -6.20287e-15 2.46863e-13 0 0 4.85523e-13 3.66238e-13 -1.68382e-13 3.27583e-13 0 0 5.9868e-13 1.87082e-13 1.30781e-13 5.76699e-14 0 0 8.71161e-13 -3.5972e-13 8.40294e-13 -4.39299e-13 0 0 6.04311e-13 -2.58204e-14 3.88888e-13 1.3598e-14 0 0 1.46178e-13 8.00536e-13 -7.65505e-13 1.03592e-12 0 0 4.66063e-13 4.14364e-13 -3.93537e-13 8.3925e-13 0 0 1.08358e-12 -4.1451e-13 3.61544e-13 3.15416e-13 0 0 9.93231e-13 -2.37288e-13 1.30661e-13 5.74802e-13 0 0 3.02142e-13 8.42816e-13 -7.31393e-13 1.13693e-12 0 0 -1.4729e-13 1.55378e-12 -1.27995e-12 1.38754e-12 0
				</DataArray>
				<DataArray Name="VitesseY" type="Float32" format="ascii">