<?xml version="1.0"?>
<VTKFile type="PolyData">
	<PolyData>
		<Piece NumberOfPoints="1206" NumberOfPolys="1000">
			<Points>
				<DataArray type="Float32" NumberOfComponents="3" format="ascii">
 0 0 0 0.02 0 0 0.04 0 0 0.06 0 0 0.08 0 0 0.1 0 0 0 0.005 0 0.02 0.005 0 0.04 0.005 0 0.06 0.005 0 0.08 0.005 0 0.1 0.005 0 0 0.01 0 0.02 0.01 0 0.04 0.01 0 0.06 0.01 0 0.08 0.01 0 0.1 0.01 0 0 0.015 0 0.02 0.015 0 0.04 0.015 0 0.06 0.015 0 0.08 0.015 0 0.1 0.015 0 0 0.02 0 0.02 0.02 0 0.04 0.02 0 0.06 0.02 0 0.08 0.02 0 0.1 0.02 0 0 0.025 0 0.02 0.025 0 0.04 0.025 0 0.06 0.025 0 0.08 0.025 0 0.1 0.025 0 0 0.03 0 0.02 0.03 0 0.04 0.03 0 0.06 0.03 0 0.08 0.03 0 0.1 0.03 0 0 0.035 0 0.02 0.035 0 0.04 0.035 0 0.06 0.035 0 0.08 0.035 0 0.1 0.035 0 0 0.04 0 0.02 0.04 0 0.04 0.04 0 0.06 0.04 0 0.08 0.04 0 0.1 0.04 0 0 0.045 0 0.02 0.045 0 0.04 0.045 0 0.06 0.045 0 0.08 0.045 0 0.1 0.045 0 0 0.05 0 0.02 0.05 0 0.04 0.05 0 0.06 0.05 0 0.08 0.05 0 0.1 0.05 0 0 0.055 0 0.02 0.055 0 0.04 0.055 0 0.06 0.055 0 0.08 0.055 0 0.1 0.055 0 0 0.06 0 0.02 0.06 0 0.04 0.06 0 0.06 0.06 0 0.08 0.06 0 0.1 0.06 0 0 0.065 0 0.02 0.065 0 0.04 0.065 0 0.06 0.065 0 0.08 0.065 0 0.1 0.065 0 0 0.07 0 0.02 0.07 0 0.04 0.07 0 0.06 0.07 0 0.08 0.07 0 0.1 0.07 0 0 0.075 0 0.02 0.075 0 0.04 0.075 0 0.06 0.075 0 0.08 0.075 0 0.1 0.075 0 0 0.08 0 0.02 0.08 0 0.04 0.08 0 0.06 0.08 0 0.08 0.08 0 0.1 0.08 0 0 0.085 0 0.02 0.085 0 0.04 0.085 0 0.06 0.085 0 0.08 0.085 0 0.1 0.085 0 0 0.09 0 0.02 0.09 0 0.04 0.09 0 0.06 0.09 0 0.08 0.09 0 0.1 0.09 0 0 0.095 0 0.02 0.095 0 0.04 0.095 0 0.06 0.095 0 0.08 0.095 0 0.1 0.095 0 0 0.1 0 0.02 0.1 0 0.04 0.1 0 0.06 0.1 0 0.08 0.1 0 0.1 0.1 0 0 0.105 0 0.02 0.105 0 0.04 0.105 0 0.06 0.105 0 0.08 0.105 0 0.1 0.105 0 0 0.11 0 0.02 0.11 0 0.04 0.11 0 0.06 0.11 0 0.08 0.11 0 0.1 0.11 0 0 0.115 0 0.02 0.115 0 0.04 0.115 0 0.06 0.115 0 0.08 0.115 0 0.1 0.115 0 0 0.12 0 0.02 0.12 0 0.04 0.12 0 0.06 0.12 0 0.08 0.12 0 0.1 0.12 0 0 0.125 0 0.02 0.125 0 0.04 0.125 0 0.06 0.125 0 0.08 0.125 0 0.1 0.125 0 0 0.13 0 0.02 0.13 0 0.04 0.13 0 0.06 0.13 0 0.08 0.13 0 0.1 0.13 0 0 0.135 0 0.02 0.135 0 0.04 0.135 0 0.06 0.135 0 0.08 0.135 0 0.1 0.135 0 0 0.14 0 0.02 0.14 0 0.04 0.14 0 0.06 0.14 0 0.08 0.14 0 0.1 0.14 0 0 0.145 0 0.02 0.145 0 0.04 0.145 0 0.06 0.145 0 0.08 0.145 0 0.1 0.145 0 0 0.15 0 0.02 0.15 0 0.04 0.15 0 0.06 0.15 0 0.08 0.15 0 0.1 0.15 0 0 0.155 0 0.02 0.155 0 0.04 0.155 0 0.06 0.155 0 0.08 0.155 0 0.1 0.155 0 0 0.16 0 0.02 0.16 0 0.04 0.16 0 0.06 0.16 0 0.08 0.16 0 0.1 0.16 0 0 0.165 0 0.02 0.165 0 0.04 0.165 0 0.06 0.165 0 0.08 0.165 0 0.1 0.165 0 0 0.17 0 0.02 0.17 0 0.04 0.17 0 0.06 0.17 0 0.08 0.17 0 0.1 0.17 0 0 0.175 0 0.02 0.175 0 0.04 0.175 0 0.06 0.175 0 0.08 0.175 0 0.1 0.175 0 0 0.18 0 0.02 0.18 0 0.04 0.18 0 0.06 0.18 0 0.08 0.18 0 0.1 0.18 0 0 0.185 0 0.02 0.185 0 0.04 0.185 0 0.06 0.185 0 0.08 0.185 0 0.1 0.185 0 0 0.19 0 0.02 0.19 0 0.04 0.19 0 0.06 0.19 0 0.08 0.19 0 0.1 0.19 0 0 0.195 0 0.02 0.195 0 0.04 0.195 0 0.06 0.195 0 0.08 0.195 0 0.1 0.195 0 0 0.2 0 0.02 0.2 0 0.04 0.2 0 0.06 0.2 0 0.08 0.2 0 0.1 0.2 0 0 0.205 0 0.02 0.205 0 0.04 0.205 0 0.06 0.205 0 0.08 0.205 0 0.1 0.205 0 0 0.21 0 0.02 0.21 0 0.04 0.21 0 0.06 0.21 0 0.08 0.21 0 0.1 0.21 0 0 0.215 0 0.02 0.215 0 0.04 0.215 0 0.06 0.215 0 0.08 0.215 0 0.1 0.215 0 0 0.22 0 0.02 0.22 0 0.04 0.22 0 0.06 0.22 0 0.08 0.22 0 0.1 0.22 0 0 0.225 0 0.02 0.225 0 0.04 0.225 0 0.06 0.225 0 0.08 0.225 0 0.1 0.225 0 0 0.23 0 0.02 0.23 0 0.04 0.23 0 0.06 0.23 0 0.08 0.23 0 0.1 0.23 0 0 0.235 0 0.02 0.235 0 0.04 0.235 0 0.06 0.235 0 0.08 0.235 0 0.1 0.235 0 0 0.24 0 0.02 0.24 0 0.04 0.24 0 0.06 0.24 0 0.08 0.24 0 0.1 0.24 0 0 0.245 0 0.02 0.245 0 0.04 0.245 0 0.06 0.245 0 0.08 0.245 0 0.1 0.245 0 0 0.25 0 0.02 0.25 0 0.04 0.25 0 0.06 0.25 0 0.08 0.25 0 0.1 0.25 0 0 0.255 0 0.02 0.255 0 0.04 0.255 0 0.06 0.255 0 0.08 0.255 0 0.1 0.255 0 0 0.26 0 0.02 0.26 0 0.04 0.26 0 0.06 0.26 0 0.08 0.26 0 0.1 0.26 0 0 0.265 0 0.02 0.265 0 0.04 0.265 0 0.06 0.265 0 0.08 0.265 0 0.1 0.265 0 0 0.27 0 0.02 0.27 0 0.04 0.27 0 0.06 0.27 0 0.08 0.27 0 0.1 0.27 0 0 0.275 0 0.02 0.275 0 0.04 0.275 0 0.06 0.275 0 0.08 0.275 0 0.1 0.275 0 0 0.28 0 0.02 0.28 0 0.04 0.28 0 0.06 0.28 0 0.08 0.28 0 0.1 0.28 0 0 0.285 0 0.02 0.285 0 0.04 0.285 0 0.06 0.285 0 0.08 0.285 0 0.1 0.285 0 0 0.29 0 0.02 0.29 0 0.04 0.29 0 0.06 0.29 0 0.08 0.29 0 0.1 0.29 0 0 0.295 0 0.02 0.295 0 0.04 0.295 0 0.06 0.295 0 0.08 0.295 0 0.1 0.295 0 0 0.3 0 0.02 0.3 0 0.04 0.3 0 0.06 0.3 0 0.08 0.3 0 0.1 0.3 0 0 0.305 0 0.02 0.305 0 0.04 0.305 0 0.06 0.305 0 0.08 0.305 0 0.1 0.305 0 0 0.31 0 0.02 0.31 0 0.04 0.31 0 0.06 0.31 0 0.08 0.31 0 0.1 0.31 0 0 0.315 0 0.02 0.315 0 0.04 0.315 0 0.06 0.315 0 0.08 0.315 0 0.1 0.315 0 0 0.32 0 0.02 0.32 0 0.04 0.32 0 0.06 0.32 0 0.08 0.32 0 0.1 0.32 0 0 0.325 0 0.02 0.325 0 0.04 0.325 0 0.06 0.325 0 0.08 0.325 0 0.1 0.325 0 0 0.33 0 0.02 0.33 0 0.04 0.33 0 0.06 0.33 0 0.08 0.33 0 0.1 0.33 0 0 0.335 0 0.02 0.335 0 0.04 0.335 0 0.06 0.335 0 0.08 0.335 0 0.1 0.335 0 0 0.34 0 0.02 0.34 0 0.04 0.34 0 0.06 0.34 0 0.08 0.34 0 0.1 0.34 0 0 0.345 0 0.02 0.345 0 0.04 0.345 0 0.06 0.345 0 0.08 0.345 0 0.1 0.345 0 0 0.35 0 0.02 0.35 0 0.04 0.35 0 0.06 0.35 0 0.08 0.35 0 0.1 0.35 0 0 0.355 0 0.02 0.355 0 0.04 0.355 0 0.06 0.355 0 0.08 0.355 0 0.1 0.355 0 0 0.36 0 0.02 0.36 0 0.04 0.36 0 0.06 0.36 0 0.08 0.36 0 0.1 0.36 0 0 0.365 0 0.02 0.365 0 0.04 0.365 0 0.06 0.365 0 0.08 0.365 0 0.1 0.365 0 0 0.37 0 0.02 0.37 0 0.04 0.37 0 0.06 0.37 0 0.08 0.37 0 0.1 0.37 0 0 0.375 0 0.02 0.375 0 0.04 0.375 0 0.06 0.375 0 0.08 0.375 0 0.1 0.375 0 0 0.38 0 0.02 0.38 0 0.04 0.38 0 0.06 0.38 0 0.08 0.38 0 0.1 0.38 0 0 0.385 0 0.02 0.385 0 0.04 0.385 0 0.06 0.385 0 0.08 0.385 0 0.1 0.385 0 0 0.39 0 0.02 0.39 0 0.04 0.39 0 0.06 0.39 0 0.08 0.39 0 0.1 0.39 0 0 0.395 0 0.02 0.395 0 0.04 0.395 0 0.06 0.395 0 0.08 0.395 0 0.1 0.395 0 0 0.4 0 0.02 0.4 0 0.04 0.4 0 0.06 0.4 0 0.08 0.4 0 0.1 0.4 0 0 0.405 0 0.02 0.405 0 0.04 0.405 0 0.06 0.405 0 0.08 0.405 0 0.1 0.405 0 0 0.41 0 0.02 0.41 0 0.04 0.41 0 0.06 0.41 0 0.08 0.41 0 0.1 0.41 0 0 0.415 0 0.02 0.415 0 0.04 0.415 0 0.06 0.415 0 0.08 0.415 0 0.1 0.415 0 0 0.42 0 0.02 0.42 0 0.04 0.42 0 0.06 0.42 0 0.08 0.42 0 0.1 0.42 0 0 0.425 0 0.02 0.425 0 0.04 0.425 0 0.06 0.425 0 0.08 0.425 0 0.1 0.425 0 0 0.43 0 0.02 0.43 0 0.04 0.43 0 0.06 0.43 0 0.08 0.43 0 0.1 0.43 0 0 0.435 0 0.02 0.435 0 0.04 0.435 0 0.06 0.435 0 0.08 0.435 0 0.1 0.435 0 0 0.44 0 0.02 0.44 0 0.04 0.44 0 0.06 0.44 0 0.08 0.44 0 0.1 0.44 0 0 0.445 0 0.02 0.445 0 0.04 0.445 0 0.06 0.445 0 0.08 0.445 0 0.1 0.445 0 0 0.45 0 0.02 0.45 0 0.04 0.45 0 0.06 0.45 0 0.08 0.45 0 0.1 0.45 0 0 0.455 0 0.02 0.455 0 0.04 0.455 0 0.06 0.455 0 0.08 0.455 0 0.1 0.455 0 0 0.46 0 0.02 0.46 0 0.04 0.46 0 0.06 0.46 0 0.08 0.46 0 0.1 0.46 0 0 0.465 0 0.02 0.465 0 0.04 0.465 0 0.06 0.465 0 0.08 0.465 0 0.1 0.465 0 0 0.47 0 0.02 0.47 0 0.04 0.47 0 0.06 0.47 0 0.08 0.47 0 0.1 0.47 0 0 0.475 0 0.02 0.475 0 0.04 0.475 0 0.06 0.475 0 0.08 0.475 0 0.1 0.475 0 0 0.48 0 0.02 0.48 0 0.04 0.48 0 0.06 0.48 0 0.08 0.48 0 0.1 0.48 0 0 0.485 0 0.02 0.485 0 0.04 0.485 0 0.06 0.485 0 0.08 0.485 0 0.1 0.485 0 0 0.49 0 0.02 0.49 0 0.04 0.49 0 0.06 0.49 0 0.08 0.49 0 0.1 0.49 0 0 0.495 0 0.02 0.495 0 0.04 0.495 0 0.06 0.495 0 0.08 0.495 0 0.1 0.495 0 0 0.5 0 0.02 0.5 0 0.04 0.5 0 0.06 0.5 0 0.08 0.5 0 0.1 0.5 0 0 0.505 0 0.02 0.505 0 0.04 0.505 0 0.06 0.505 0 0.08 0.505 0 0.1 0.505 0 0 0.51 0 0.02 0.51 0 0.04 0.51 0 0.06 0.51 0 0.08 0.51 0 0.1 0.51 0 0 0.515 0 0.02 0.515 0 0.04 0.515 0 0.06 0.515 0 0.08 0.515 0 0.1 0.515 0 0 0.52 0 0.02 0.52 0 0.04 0.52 0 0.06 0.52 0 0.08 0.52 0 0.1 0.52 0 0 0.525 0 0.02 0.525 0 0.04 0.525 0 0.06 0.525 0 0.08 0.525 0 0.1 0.525 0 0 0.53 0 0.02 0.53 0 0.04 0.53 0 0.06 0.53 0 0.08 0.53 0 0.1 0.53 0 0 0.535 0 0.02 0.535 0 0.04 0.535 0 0.06 0.535 0 0.08 0.535 0 0.1 0.535 0 0 0.54 0 0.02 0.54 0 0.04 0.54 0 0.06 0.54 0 0.08 0.54 0 0.1 0.54 0 0 0.545 0 0.02 0.545 0 0.04 0.545 0 0.06 0.545 0 0.08 0.545 0 0.1 0.545 0 0 0.55 0 0.02 0.55 0 0.04 0.55 0 0.06 0.55 0 0.08 0.55 0 0.1 0.55 0 0 0.555 0 0.02 0.555 0 0.04 0.555 0 0.06 0.555 0 0.08 0.555 0 0.1 0.555 0 0 0.56 0 0.02 0.56 0 0.04 0.56 0 0.06 0.56 0 0.08 0.56 0 0.1 0.56 0 0 0.565 0 0.02 0.565 0 0.04 0.565 0 0.06 0.565 0 0.08 0.565 0 0.1 0.565 0 0 0.57 0 0.02 0.57 0 0.04 0.57 0 0.06 0.57 0 0.08 0.57 0 0.1 0.57 0 0 0.575 0 0.02 0.575 0 0.04 0.575 0 0.06 0.575 0 0.08 0.575 0 0.1 0.575 0 0 0.58 0 0.02 0.58 0 0.04 0.58 0 0.06 0.58 0 0.08 0.58 0 0.1 0.58 0 0 0.585 0 0.02 0.585 0 0.04 0.585 0 0.06 0.585 0 0.08 0.585 0 0.1 0.585 0 0 0.59 0 0.02 0.59 0 0.04 0.59 0 0.06 0.59 0 0.08 0.59 0 0.1 0.59 0 0 0.595 0 0.02 0.595 0 0.04 0.595 0 0.06 0.595 0 0.08 0.595 0 0.1 0.595 0 0 0.6 0 0.02 0.6 0 0.04 0.6 0 0.06 0.6 0 0.08 0.6 0 0.1 0.6 0 0 0.605 0 0.02 0.605 0 0.04 0.605 0 0.06 0.605 0 0.08 0.605 0 0.1 0.605 0 0 0.61 0 0.02 0.61 0 0.04 0.61 0 0.06 0.61 0 0.08 0.61 0 0.1 0.61 0 0 0.615 0 0.02 0.615 0 0.04 0.615 0 0.06 0.615 0 0.08 0.615 0 0.1 0.615 0 0 0.62 0 0.02 0.62 0 0.04 0.62 0 0.06 0.62 0 0.08 0.62 0 0.1 0.62 0 0 0.625 0 0.02 0.625 0 0.04 0.625 0 0.06 0.625 0 0.08 0.625 0 0.1 0.625 0 0 0.63 0 0.02 0.63 0 0.04 0.63 0 0.06 0.63 0 0.08 0.63 0 0.1 0.63 0 0 0.635 0 0.02 0.635 0 0.04 0.635 0 0.06 0.635 0 0.08 0.635 0 0.1 0.635 0 0 0.64 0 0.02 0.64 0 0.04 0.64 0 0.06 0.64 0 0.08 0.64 0 0.1 0.64 0 0 0.645 0 0.02 0.645 0 0.04 0.645 0 0.06 0.645 0 0.08 0.645 0 0.1 0.645 0 0 0.65 0 0.02 0.65 0 0.04 0.65 0 0.06 0.65 0 0.08 0.65 0 0.1 0.65 0 0 0.655 0 0.02 0.655 0 0.04 0.655 0 0.06 0.655 0 0.08 0.655 0 0.1 0.655 0 0 0.66 0 0.02 0.66 0 0.04 0.66 0 0.06 0.66 0 0.08 0.66 0 0.1 0.66 0 0 0.665 0 0.02 0.665 0 0.04 0.665 0 0.06 0.665 0 0.08 0.665 0 0.1 0.665 0 0 0.67 0 0.02 0.67 0 0.04 0.67 0 0.06 0.67 0 0.08 0.67 0 0.1 0.67 0 0 0.675 0 0.02 0.675 0 0.04 0.675 0 0.06 0.675 0 0.08 0.675 0 0.1 0.675 0 0 0.68 0 0.02 0.68 0 0.04 0.68 0 0.06 0.68 0 0.08 0.68 0 0.1 0.68 0 0 0.685 0 0.02 0.685 0 0.04 0.685 0 0.06 0.685 0 0.08 0.685 0 0.1 0.685 0 0 0.69 0 0.02 0.69 0 0.04 0.69 0 0.06 0.69 0 0.08 0.69 0 0.1 
[...]
			<PointData Scalars="VitesseX">
				<DataArray Name="VitesseX" type="Float32" format="ascii">
 0 -2.15469e-14 -8.94092e-15 1.19022e-14 1.00333e-14 0 0 -1.5477e-14 -1.40678e-14 1.30861e-14 1.0694e-14 0 0 -7.7103e-15 -1.56926e-14 9.42023e-15 1.36237e-14 0 0 -4.8878e-15 -1.16045e-14 5.90899e-15 1.5595e-14 0 0 -1.87512e-15 -8.60791e-15 4.4252e-15 1.71719e-14 0 0 3.50964e-15 -1.31175e-14 1.7835e-14 4.57484e-15 0 0 -5.39662e-15 2.94768e-15 1.65376e-14 -5.36707e-16 0 0 -6.87683e-15 1.29441e-14 1.47169e-14 -3.30901e-16 0 0 5.46638e-17 2.21844e-14 -1.06176e-15 1.38766e-14 0 0 1.44959e-14 1.764e-14 -2.1372e-15 1.19813e-14 0 0 5.74533e-15 2.98738e-14 4.52344e-15 -8.45805e-15 0 0 -5.3642e-15 3.63226e-14 1.06239e-14 -1.61362e-14 0 0 -2.48458e-15 2.09302e-14 1.8084e-14 -1.75351e-14 0 0 9.68427e-15 -4.28837e-15 3.12032e-14 -3.01116e-14 0 0 5.87954e-15 -3.35511e-15 2.65098e-14 -3.52061e-14 0 0 8.50141e-16 6.44501e-16 1.43691e-14 -3.09592e-14 0 0 1.42566e-14 -2.80276e-14 3.19645e-14 -4.72022e-14 0 0 1.35014e-17 -9.1188e-15 -1.89411e-15 -2.03427e-14 0 0 -1.42626e-14 9.81181e-15 -3.16213e-14 2.19934e-15 0 0 -1.81587e-14 9.97373e-15 -2.28746e-14 -1.99807e-14 0 0 1.14695e-14 -5.11505e-14 4.55207e-14 -6.75472e-14 0 0 1.98212e-14 -7.73019e-14 5.78603e-14 -6.3607e-14 0 0 -1.15084e-14 -3.66836e-14 -4.80805e-15 -7.74648e-15 0 0 -3.56197e-14 -4.47397e-15 -4.10793e-14 2.30613e-14 0 0 -6.20141e-14 4.12604e-14 -4.45143e-14 7.13773e-15 0 0 -4.2677e-14 3.01665e-14 2.6329e-15 -3.56725e-14 0 0 9.43274e-15 -3.8068e-14 5.10673e-14 -3.34353e-14 0 0 -1.2989e-14 -2.30314e-14 3.9056e-14 1.25123e-14 0 0 -5.03345e-14 3.50032e-14 1.5817e-14 3.33699e-14 0 0 -1.9373e-14 2.21142e-14 3.88305e-14 1.3145e-14 0 0 7.58262e-16 1.0192e-14 3.58241e-14 2.80229e-14 0 0 4.69495e-15 -1.67321e-15 5.01567e-14 1.33695e-14 0 0 -1.4791e-14 3.42371e-14 6.13112e-15 2.41777e-14 0 0 -2.33245e-14 4.29285e-14 -6.21984e-15 3.6366e-14 0 0 -1.49633e-14 -1.82488e-14 8.91995e-14 -6.45242e-15 0 0 -6.34659e-14 2.73283e-14 5.30902e-14 3.01677e-14 0 0 -4.32519e-14 4.58209e-15 3.83165e-14 6.22299e-14 0 0 -9.64991e-15 -6.63732e-14 1.02255e-13 2.57023e-14 0 0 -2.0996e-14 -4.45361e-14 7.8681e-14 2.87774e-14 0 0 9.36053e-15 -6.34597e-14 7.89619e-14 2.98985e-14 0 0 4.12095e-14 -9.00378e-14 8.52656e-14 3.49988e-14 0 0 2.33773e-14 -3.1581e-14 1.61581e-14 8.0519e-14 0 0 5.6397e-14 -2.94864e-14 -3.76806e-15 8.94835e-14 0 0 6.83207e-14 -1.24067e-14 -1.4534e-14 7.27217e-14 0 0 -2.24221e-14 7.62935e-14 -3.14347e-14 6.47053e-14 0 0 1.78242e-14 -2.87194e-15 7.39784e-14 8.9052e-15 0 0 1.04426e-13 -8.67905e-14 1.38627e-13 -2.43123e-14 0 0 1.27121e-13 -9.99723e-14 1.34602e-13 -1.26574e-14 0 0 9.58937e-14 -4.07917e-14 3.25836e-14 5.33307e-14 0 0 1.11409e-13 -4.60068e-14 1.49045e-14 3.05018e-14 0 0 1.28044e-13 -4.99579e-14 3.87992e-14 -2.62535e-14 0 0 1.25736e-13 -2.35104e-14 5.01609e-14 -4.36507e-14 0 0 1.3469e-13 -6.36455e-15 7.60269e-14 -7.6139e-14 0 0 1.87433e-13 -3.0209e-14 6.81113e-14 -3.74391e-14 0 0 1.82224e-13 4.64791e-14 -6.75021e-15 2.57326e-14 0 0 9.21477e-14 1.65649e-13 -3.02614e-14 3.4969e-14 0 0 1.41873e-13 7.51977e-14 1.08311e-13 -1.96122e-14 0 0 2.00435e-13 -6.94469e-15 1.81018e-13 1.18353e-14 0 0 1.40059e-13 3.73764e-14 1.7761e-13 6.53162e-14 0 0 -1.63111e-14 2.22037e-13 7.74102e-14 9.73347e-14 0 0 -8.484e-15 3.00696e-13 -3.08114e-14 1.58483e-13 0 0 1.4393e-13 1.7622e-13 2.58408e-14 1.14256e-13 0 0 1.33978e-13 9.34547e-14 1.79514e-13 -1.51292e-14 0 0 8.55139e-14 4.28078e-14 2.75188e-13 -3.82389e-14 0 0 2.43891e-14 7.09417e-14 2.13141e-13 8.40616e-14 0 0 1.43579e-14 8.54609e-14 1.52963e-13 1.99381e-13 0 0 2.31133e-13 -1.68173e-13 2.88067e-13 9.28835e-14 0 0 1.67423e-13 -4.07042e-14 7.86087e-14 1.40907e-13 0 0 -2.70354e-14 3.08883e-13 -2.98411e-13 3.04967e-13 0 0 1.5948e-13 1.79887e-13 -2.07455e-13 1.53719e-13 0 0 4.30319e-13 -1.18743e-13 8.43676e-14 -5.70871e-14 0 0 4.10902e-13 -1.21939e-13 1.23974e-13 -4.83114e-14 0 0 1.46681e-13 1.71833e-13 -1.56697e-13 1.68855e-13 0 0 8.52886e-14 3.48108e-13 -4.19311e-13 3.66417e-13 0 0 3.80007e-13 1.35657e-13 -2.55005e-13 2.18219e-13 0 0 5.79881e-13 -7.98148e-16 -5.0492e-14 2.46988e-14 0 0 5.21199e-13 1.26235e-14 -1.08562e-14 -7.25412e-14 0 0 3.77515e-13 2.02971e-13 -2.64014e-13 1.34617e-13 0 0 3.6212e-13 2.48685e-13 -5.77821e-13 4.01321e-13 0 0 4.79953e-13 4.10842e-14 -4.6219e-13 3.60051e-13 0 0 5.6551e-13 -3.14319e-13 -1.5669e-13 2.07619e-13 0 0 3.90639e-13 -2.05573e-13 -1.68356e-13 1.76175e-13 0 0 8.31033e-14 8.03965e-14 -2.95492e-13 1.67481e-13 0 0 -1.58939e-13 3.79703e-14 -1.30559e-13 1.03311e-14 0 0 -1.32691e-13 -1.12343e-13 1.20842e-13 -1.93574e-13 0 0 -1.17284e-13 -2.74381e-13 3.27668e-13 -1.4509e-13 0 0 -1.97335e-13 -1.79939e-13 1.63256e-13 5.54882e-14 0 0 -4.16395e-13 1.41901e-13 -2.21629e-13 3.52142e-13 0 0 -4.97436e-13 2.70646e-13 -4.34927e-13 4.9607e-13 0 0 -3.4402e-13 5.61262e-14 -3.50398e-13 4.58061e-13 0 0 4.89101e-14 -4.76344e-13 -1.02001e-13 3.91739e-13 0 0 2.54891e-13 -7.87265e-13 3.3788e-14 3.74873e-13 0 0 2.01809e-13 -7.72216e-13 4.72068e-14 3.91348e-13 0 0 -2.77697e-14 -5.99109e-13 5.64828e-14 3.57068e-13 0 0 -3.42009e-13 -3.83861e-13 7.23493e-14 2.2639e-13 0 0 -5.95758e-13 -2.03034e-13 1.29697e-13 4.27164e-14 0 0 -7.36206e-13 -1.19462e-13 2.66429e-13 -2.04148e-13 0 0 -8.2011e-13 -1.14305e-13 3.7341e-13 -4.00409e-13 0 0 -9.08672e-13 -9.7035e-14 3.98804e-13 -4.4469e-13 0 0 -8.46874e-13 -2.16577e-14 3.47483e-13 -4.10853e-13 0 0 -6.54695e-13 -3.2301e-14 1.71027e-13 -2.57825e-13 0 0 -3.47773e-13 -6.54194e-14 -1.25652e-13 9.29384e-14 0 0 -1.63472e-13 -7.85008e-14 -1.98661e-13 2.72115e-13 0 0 -1.15568e-13 -6.85197e-14 -1.48559e-13 2.30684e-13 0 0 -8.96716e-14 -5.85146e-14 -6.38465e-15 8.63026e-14 0 0 -4.80825e-14 -7.03242e-14 2.5888e-13 -9.4118e-14 0 0 4.06968e-14 -1.06497e-13 4.36243e-13 -1.36754e-13 0 0 1.32366e-13 -1.56121e-13 4.70738e-13 -1.05685e-13 0 0 1.91184e-13 -1.69112e-13 4.35812e-13 -8.06588e-15 0 0 1.96485e-13 -9.94871e-14 3.19534e-13 1.55035e-13 0 0 1.77563e-13 8.52771e-14 1.27415e-13 3.42594e-13 0 0 1.94099e-13 1.49333e-13 1.84439e-14 4.90501e-13 0 0 2.2544e-13 1.71493e-13 -2.01788e-14 5.34336e-13 0 0 2.22659e-13 1.70888e-13 8.66543e-14 4.35421e-13 0 0 2.31692e-13 1.96879e-13 1.30258e-13 3.51432e-13 0 0 2.45451e-13 2.26919e-13 1.01859e-13 3.49782e-13 0 0 2.81696e-13 1.61923e-13 1.88996e-13 2.72202e-13 0 0 3.04557e-13 1.48579e-13 2.0166e-13 1.917e-13 0 0 3.0082e-13 1.93558e-13 1.4719e-13 1.8145e-13 0 0 2.94347e-13 1.99557e-13 1.64007e-13 1.44006e-13 0 0 2.74303e-13 1.91012e-13 2.15653e-13 9.35284e-14 0 0 2.79372e-13 1.72884e-13 2.48247e-13 3.50301e-14 0 0 2.64318e-13 1.9099e-13 2.30402e-13 -2.91202e-14 0 0 2.16894e-13 2.11564e-13 2.21341e-13 -4.71423e-14 0 0 1.71793e-13 1.99176e-13 2.36243e-13 -2.35972e-14 0 0 1.57444e-13 1.82952e-13 2.49149e-13 -1.00231e-13 0 0 1.44899e-13 1.64136e-13 2.4959e-13 -8.45063e-14 0 0 1.36374e-13 1.2668e-13 2.69826e-13 -3.32573e-14 0 0 1.45567e-13 1.1776e-13 1.97052e-13 -1.41183e-14 0 0 1.59853e-13 1.43524e-13 6.78079e-14 2.30453e-14 0 0 1.48752e-13 1.57001e-13 4.92423e-14 1.44938e-14 0 0 1.39871e-13 1.32782e-13 8.05156e-14 5.59853e-15 0 0 1.20385e-13 1.50003e-13 7.78137e-14 -8.24946e-14 0 0 1.27216e-13 1.39756e-13 9.7476e-14 -1.44972e-13 0 0 1.52168e-13 9.3979e-14 1.10497e-13 -1.59888e-13 0 0 1.43342e-13 8.93922e-14 9.32305e-14 -1.24653e-13 0 0 1.08928e-13 7.67767e-14 1.01186e-13 -9.95089e-14 0 0 2.55814e-14 1.22209e-13 5.70307e-14 -4.17772e-14 0 0 -1.96945e-14 1.06149e-13 7.90017e-14 3.24794e-14 0 0 -4.34429e-15 2.53789e-14 1.33788e-13 -3.51718e-16 0 0 -1.08129e-15 -7.26575e-15 1.76625e-13 -3.07972e-14 0 0 -2.62166e-14 -2.04934e-14 1.89734e-13 -6.46478e-15 0 0 -4.42272e-14 -1.12275e-14 1.28514e-13 6.71862e-14 0 0 -3.71575e-14 2.13423e-14 -2.47276e-15 7.26927e-14 0 0 -6.66216e-15 -2.47461e-15 1.8679e-14 8.44055e-15 0 0 -4.84897e-15 -1.48846e-14 1.07119e-13 1.65983e-14 0 0 -6.80465e-15 8.80505e-14 3.81974e-14 1.2745e-13 0 0 2.04658e-14 2.18712e-13 -5.77734e-14 1.98034e-13 0 0 2.75004e-14 2.18745e-13 4.63372e-14 1.40908e-13 0 0 4.56714e-14 1.77044e-13 2.89036e-13 1.4833e-13 0 0 5.62e-14 2.76278e-13 2.77533e-13 3.78412e-13 0 0 1.27666e-13 2.28959e-13 3.75184e-13 3.79001e-13 0 0 1.52041e-13 2.44118e-13 4.34874e-13 2.17855e-13 0 0 1.63112e-13 2.4507e-13 4.88282e-13 1.18775e-13 0 0 1.49065e-13 2.69515e-13 4.72414e-13 1.95505e-13 0 0 1.82083e-13 2.53024e-13 4.73943e-13 2.36218e-13 0 0 2.26658e-13 2.12092e-13 4.78262e-13 2.51468e-13 0 0 1.89632e-13 2.39797e-13 4.52988e-13 2.16707e-13 0 0 1.55346e-13 2.74905e-13 3.94515e-13 2.58243e-13 0 0 7.26068e-14 3.73527e-13 2.59642e-13 3.96511e-13 0 0 1.80263e-13 2.09632e-13 3.70015e-13 3.76217e-13 0 0 3.332e-13 -3.16618e-15 6.09792e-13 2.07817e-13 0 0 2.78972e-13 8.20084e-14 6.39282e-13 1.13719e-13 0 0 1.17949e-13 3.37869e-13 4.30789e-13 3.08883e-13 0 0 5.46121e-14 4.58482e-13 3.2094e-13 4.73199e-13 0 0 1.903e-13 3.33117e-13 3.86845e-13 4.84703e-13 0 0 2.35171e-13 3.25597e-13 3.52543e-13 5.75812e-13 0 0 1.94515e-13 3.86313e-13 3.75879e-13 5.45184e-13 0 0 1.61318e-13 4.06935e-13 4.3765e-13 4.59483e-13 0 0 1.75555e-13 3.72402e-13 5.0252e-13 3.72052e-13 0 0 1.17701e-13 4.6062e-13 4.26263e-13 3.55966e-13 0 0 6.85627e-14 5.34508e-13 4.23249e-13 2.76184e-13 0 0 1.29687e-13 5.13987e-13 3.7696e-13 3.21542e-13 0 0 2.61863e-13 3.30079e-13 4.95337e-13 2.77569e-13 0 0 3.30442e-13 1.43534e-13 7.32526e-13 4.95705e-14 0 0 3.2222e-13 1.82909e-13 6.08458e-13 2.8433e-13 0 0 3.03714e-13 3.10165e-13 5.04651e-13 4.68112e-13 0 0 2.44249e-13 5.82774e-13 1.99876e-13 5.77943e-13 0 0 3.48189e-13 4.90223e-13 3.35709e-13 3.86115e-13 0 0 3.44357e-13 4.38983e-13 4.89453e-13 3.25037e-13 0 0 2.50911e-13 6.55491e-13 1.7352e-13 6.66928e-13 0 0 3.27355e-13 5.91221e-13 2.03981e-13 6.11701e-13 0 0 3.24435e-13 5.44103e-13 3.11539e-13 4.56774e-13 0 0 2.70865e-13 4.53586e-13 5.89219e-13 1.91216e-13 0 0 3.73708e-13 2.83411e-13 6.72228e-13 1.37794e-13 0 0 3.43523e-13 4.26133e-13 4.42797e-13 1.98525e-13 0 0 1.95863e-13 7.02233e-13 1.9233e-13 3.19252e-13 0 0 1.80632e-13 8.15421e-13 -7.91716e-14 5.63007e-13 0 0 4.37048e-13 3.99461e-13 2.08053e-13 4.27642e-13 0 0 7.33345e-13 -1.17986e-13 7.19784e-13 1.05154e-13 0 0 6.52472e-13 -3.1206e-14 7.60335e-13 -3.74813e-14 0 0 1.33843e-14 7.79686e-13 2.53923e-13 1.29348e-13 0 0 -1.22316e-13 8.05409e-13 4.12938e-13 -6.72521e-14 0 0 3.46759e-13 1.7184e-13 7.68889e-13 -1.86166e-13 0 0 2.45305e-13 3.81564e-13 4.16639e-13 3.08682e-14 0 0 1.36319e-13 5.96038e-13 1.4918e-13 1.85063e-13 0 0 2.5695e-13 4.95305e-13 1.203e-13 2.71426e-13 0 0 1.22082e-13 6.20062e-13 1.76866e-13 9.91937e-14 0 0 1.29514e-13 6.79599e-13 5.97457e-14 1.74682e-13 0 0 -9.09436e-15 9.86178e-13 -4.50432e-13 4.95698e-13 0 0 -3.15237e-13 1.41296e-12 -8.1753e-13 5.8882e-13 0
				</DataArray>
				<DataArray Name="VitesseY" type="Float32" format="ascii">