<?xml version="1.0"?>
<VTKFile type="PolyData">
	<PolyData>
		<Piece NumberOfPoints="1206" NumberOfPolys="1000">
			<Points>
				<DataArray type="Float32" NumberOfComponents="3" format="ascii">
 0 0 0 0.02 0 0 0.04 0 0 0.06 0 0 0.08 0 0 0.1 0 0 0 0.005 0 0.02 0.005 0 0.04 0.005 0 0.06 0.005 0 0.08 0.005 0 0.1 0.005 0 0 0.01 0 0.02 0.01 0 0.04 0.01 0 0.06 0.01 0 0.08 0.01 0 0.1 0.01 0 0 0.015 0 0.02 0.015 0 0.04 0.015 0 0.06 0.015 0 0.08 0.015 0 0.1 0.015 0 0 0.02 0 0.02 0.02 0 0.04 0.02 0 0.06 0.02 0 0.08 0.02 0 0.1 0.02 0 0 0.025 0 0.02 0.025 0 0.04 0.025 0 0.06 0.025 0 0.08 0.025 0 0.1 0.025 0 0 0.03 0 0.02 0.03 0 0.04 0.03 0 0.06 0.03 0 0.08 0.03 0 0.1 0.03 0 0 0.035 0 0.02 0.035 0 0.04 0.035 0 0.06 0.035 0 0.08 0.035 0 0.1 0.035 0 0 0.04 0 0.02 0.04 0 0.04 0.04 0 0.06 0.04 0 0.08 0.04 0 0.1 0.04 0 0 0.045 0 0.02 0.045 0 0.04 0.045 0 0.06 0.045 0 0.08 0.045 0 0.1 0.045 0 0 0.05 0 0.02 0.05 0 0.04 0.05 0 0.06 0.05 0 0.08 0.05 0 0.1 0.05 0 0 0.055 0 0.02 0.055 0 0.04 0.055 0 0.06 0.055 0 0.08 0.055 0 0.1 0.055 0 0 0.06 0 0.02 0.06 0 0.04 0.06 0 0.06 0.06 0 0.08 0.06 0 0.1 0.06 0 0 0.065 0 0.02 0.065 0 0.04 0.065 0 0.06 0.065 0 0.08 0.065 0 0.1 0.065 0 0 0.07 0 0.02 0.07 0 0.04 0.07 0 0.06 0.07 0 0.08 0.07 0 0.1 0.07 0 0 0.075 0 0.02 0.075 0 0.04 0.075 0 0.06 0.075 0 0.08 0.075 0 0.1 0.075 0 0 0.08 0 0.02 0.08 0 0.04 0.08 0 0.06 0.08 0 0.08 0.08 0 0.1 0.08 0 0 0.085 0 0.02 0.085 0 0.04 0.085 0 0.06 0.085 0 0.08 0.085 0 0.1 0.085 0 0 0.09 0 0.02 0.09 0 0.04 0.09 0 0.06 0.09 0 0.08 0.09 0 0.1 0.09 0 0 0.095 0 0.02 0.095 0 0.04 0.095 0 0.06 0.095 0 0.08 0.095 0 0.1 0.095 0 0 0.1 0 0.02 0.1 0 0.04 0.1 0 0.06 0.1 0 0.08 0.1 0 0.1 0.1 0 0 0.105 0 0.02 0.105 0 0.04 0.105 0 0.06 0.105 0 0.08 0.105 0 0.1 0.105 0 0 0.11 0 0.02 0.11 0 0.04 0.11 0 0.06 0.11 0 0.08 0.11 0 0.1 0.11 0 0 0.115 0 0.02 0.115 0 0.04 0.115 0 0.06 0.115 0 0.08 0.115 0 0.1 0.115 0 0 0.12 0 0.02 0.12 0 0.04 0.12 0 0.06 0.12 0 0.08 0.12 0 0.1 0.12 0 0 0.125 0 0.02 0.125 0 0.04 0.125 0 0.06 0.125 0 0.08 0.125 0 0.1 0.125 0 0 0.13 0 0.02 0.13 0 0.04 0.13 0 0.06 0.13 0 0.08 0.13 0 0.1 0.13 0 0 0.135 0 0.02 0.135 0 0.04 0.135 0 0.06 0.135 0 0.08 0.135 0 0.1 0.135 0 0 0.14 0 0.02 0.14 0 0.04 0.14 0 0.06 0.14 0 0.08 0.14 0 0.1 0.14 0 0 0.145 0 0.02 0.145 0 0.04 0.145 0 0.06 0.145 0 0.08 0.145 0 0.1 0.145 0 0 0.15 0 0.02 0.15 0 0.04 0.15 0 0.06 0.15 0 0.08 0.15 0 0.1 0.15 0 0 0.155 0 0.02 0.155 0 0.04 0.155 0 0.06 0.155 0 0.08 0.155 0 0.1 0.155 0 0 0.16 0 0.02 0.16 0 0.04 0.16 0 0.06 0.16 0 0.08 0.16 0 0.1 0.16 0 0 0.165 0 0.02 0.165 0 0.04 0.165 0 0.06 0.165 0 0.08 0.165 0 0.1 0.165 0 0 0.17 0 0.02 0.17 0 0.04 0.17 0 0.06 0.17 0 0.08 0.17 0 0.1 0.17 0 0 0.175 0 0.02 0.175 0 0.04 0.175 0 0.06 0.175 0 0.08 0.175 0 0.1 0.175 0 0 0.18 0 0.02 0.18 0 0.04 0.18 0 0.06 0.18 0 0.08 0.18 0 0.1 0.18 0 0 0.185 0 0.02 0.185 0 0.04 0.185 0 0.06 0.185 0 0.08 0.185 0 0.1 0.185 0 0 0.19 0 0.02 0.19 0 0.04 0.19 0 0.06 0.19 0 0.08 0.19 0 0.1 0.19 0 0 0.195 0 0.02 0.195 0 0.04 0.195 0 0.06 0.195 0 0.08 0.195 0 0.1 0.195 0 0 0.2 0 0.02 0.2 0 0.04 0.2 0 0.06 0.2 0 0.08 0.2 0 0.1 0.2 0 0 0.205 0 0.02 0.205 0 0.04 0.205 0 0.06 0.205 0 0.08 0.205 0 0.1 0.205 0 0 0.21 0 0.02 0.21 0 0.04 0.21 0 0.06 0.21 0 0.08 0.21 0 0.1 0.21 0 0 0.215 0 0.02 0.215 0 0.04 0.215 0 0.06 0.215 0 0.08 0.215 0 0.1 0.215 0 0 0.22 0 0.02 0.22 0 0.04 0.22 0 0.06 0.22 0 0.08 0.22 0 0.1 0.22 0 0 0.225 0 0.02 0.225 0 0.04 0.225 0 0.06 0.225 0 0.08 0.225 0 0.1 0.225 0 0 0.23 0 0.02 0.23 0 0.04 0.23 0 0.06 0.23 0 0.08 0.23 0 0.1 0.23 0 0 0.235 0 0.02 0.235 0 0.04 0.235 0 0.06 0.235 0 0.08 0.235 0 0.1 0.235 0 0 0.24 0 0.02 0.24 0 0.04 0.24 0 0.06 0.24 0 0.08 0.24 0 0.1 0.24 0 0 0.245 0 0.02 0.245 0 0.04 0.245 0 0.06 0.245 0 0.08 0.245 0 0.1 0.245 0 0 0.25 0 0.02 0.25 0 0.04 0.25 0 0.06 0.25 0 0.08 0.25 0 0.1 0.25 0 0 0.255 0 0.02 0.255 0 0.04 0.255 0 0.06 0.255 0 0.08 0.255 0 0.1 0.255 0 0 0.26 0 0.02 0.26 0 0.04 0.26 0 0.06 0.26 0 0.08 0.26 0 0.1 0.26 0 0 0.265 0 0.02 0.265 0 0.04 0.265 0 0.06 0.265 0 0.08 0.265 0 0.1 0.265 0 0 0.27 0 0.02 0.27 0 0.04 0.27 0 0.06 0.27 0 0.08 0.27 0 0.1 0.27 0 0 0.275 0 0.02 0.275 0 0.04 0.275 0 0.06 0.275 0 0.08 0.275 0 0.1 0.275 0 0 0.28 0 0.02 0.28 0 0.04 0.28 0 0.06 0.28 0 0.08 0.28 0 0.1 0.28 0 0 0.285 0 0.02 0.285 0 0.04 0.285 0 0.06 0.285 0 0.08 0.285 0 0.1 0.285 0 0 0.29 0 0.02 0.29 0 0.04 0.29 0 0.06 0.29 0 0.08 0.29 0 0.1 0.29 0 0 0.295 0 0.02 0.295 0 0.04 0.295 0 0.06 0.295 0 0.08 0.295 0 0.1 0.295 0 0 0.3 0 0.02 0.3 0 0.04 0.3 0 0.06 0.3 0 0.08 0.3 0 0.1 0.3 0 0 0.305 0 0.02 0.305 0 0.04 0.305 0 0.06 0.305 0 0.08 0.305 0 0.1 0.305 0 0 0.31 0 0.02 0.31 0 0.04 0.31 0 0.06 0.31 0 0.08 0.31 0 0.1 0.31 0 0 0.315 0 0.02 0.315 0 0.04 0.315 0 0.06 0.315 0 0.08 0.315 0 0.1 0.315 0 0 0.32 0 0.02 0.32 0 0.04 0.32 0 0.06 0.32 0 0.08 0.32 0 0.1 0.32 0 0 0.325 0 0.02 0.325 0 0.04 0.325 0 0.06 0.325 0 0.08 0.325 0 0.1 0.325 0 0 0.33 0 0.02 0.33 0 0.04 0.33 0 0.06 0.33 0 0.08 0.33 0 0.1 0.33 0 0 0.335 0 0.02 0.335 0 0.04 0.335 0 0.06 0.335 0 0.08 0.335 0 0.1 0.335 0 0 0.34 0 0.02 0.34 0 0.04 0.34 0 0.06 0.34 0 0.08 0.34 0 0.1 0.34 0 0 0.345 0 0.02 0.345 0 0.04 0.345 0 0.06 0.345 0 0.08 0.345 0 0.1 0.345 0 0 0.35 0 0.02 0.35 0 0.04 0.35 0 0.06 0.35 0 0.08 0.35 0 0.1 0.35 0 0 0.355 0 0.02 0.355 0 0.04 0.355 0 0.06 0.355 0 0.08 0.355 0 0.1 0.355 0 0 0.36 0 0.02 0.36 0 0.04 0.36 0 0.06 0.36 0 0.08 0.36 0 0.1 0.36 0 0 0.365 0 0.02 0.365 0 0.04 0.365 0 0.06 0.365 0 0.08 0.365 0 0.1 0.365 0 0 0.37 0 0.02 0.37 0 0.04 0.37 0 0.06 0.37 0 0.08 0.37 0 0.1 0.37 0 0 0.375 0 0.02 0.375 0 0.04 0.375 0 0.06 0.375 0 0.08 0.375 0 0.1 0.375 0 0 0.38 0 0.02 0.38 0 0.04 0.38 0 0.06 0.38 0 0.08 0.38 0 0.1 0.38 0 0 0.385 0 0.02 0.385 0 0.04 0.385 0 0.06 0.385 0 0.08 0.385 0 0.1 0.385 0 0 0.39 0 0.02 0.39 0 0.04 0.39 0 0.06 0.39 0 0.08 0.39 0 0.1 0.39 0 0 0.395 0 0.02 0.395 0 0.04 0.395 0 0.06 0.395 0 0.08 0.395 0 0.1 0.395 0 0 0.4 0 0.02 0.4 0 0.04 0.4 0 0.06 0.4 0 0.08 0.4 0 0.1 0.4 0 0 0.405 0 0.02 0.405 0 0.04 0.405 0 0.06 0.405 0 0.08 0.405 0 0.1 0.405 0 0 0.41 0 0.02 0.41 0 0.04 0.41 0 0.06 0.41 0 0.08 0.41 0 0.1 0.41 0 0 0.415 0 0.02 0.415 0 0.04 0.415 0 0.06 0.415 0 0.08 0.415 0 0.1 0.415 0 0 0.42 0 0.02 0.42 0 0.04 0.42 0 0.06 0.42 0 0.08 0.42 0 0.1 0.42 0 0 0.425 0 0.02 0.425 0 0.04 0.425 0 0.06 0.425 0 0.08 0.425 0 0.1 0.425 0 0 0.43 0 0.02 0.43 0 0.04 0.43 0 0.06 0.43 0 0.08 0.43 0 0.1 0.43 0 0 0.435 0 0.02 0.435 0 0.04 0.435 0 0.06 0.435 0 0.08 0.435 0 0.1 0.435 0 0 0.44 0 0.02 0.44 0 0.04 0.44 0 0.06 0.44 0 0.08 0.44 0 0.1 0.44 0 0 0.445 0 0.02 0.445 0 0.04 0.445 0 0.06 0.445 0 0.08 0.445 0 0.1 0.445 0 0 0.45 0 0.02 0.45 0 0.04 0.45 0 0.06 0.45 0 0.08 0.45 0 0.1 0.45 0 0 0.455 0 0.02 0.455 0 0.04 0.455 0 0.06 0.455 0 0.08 0.455 0 0.1 0.455 0 0 0.46 0 0.02 0.46 0 0.04 0.46 0 0.06 0.46 0 0.08 0.46 0 0.1 0.46 0 0 0.465 0 0.02 0.465 0 0.04 0.465 0 0.06 0.465 0 0.08 0.465 0 0.1 0.465 0 0 0.47 0 0.02 0.47 0 0.04 0.47 0 0.06 0.47 0 0.08 0.47 0 0.1 0.47 0 0 0.475 0 0.02 0.475 0 0.04 0.475 0 0.06 0.475 0 0.08 0.475 0 0.1 0.475 0 0 0.48 0 0.02 0.48 0 0.04 0.48 0 0.06 0.48 0 0.08 0.48 0 0.1 0.48 0 0 0.485 0 0.02 0.485 0 0.04 0.485 0 0.06 0.485 0 0.08 0.485 0 0.1 0.485 0 0 0.49 0 0.02 0.49 0 0.04 0.49 0 0.06 0.49 0 0.08 0.49 0 0.1 0.49 0 0 0.495 0 0.02 0.495 0 0.04 0.495 0 0.06 0.495 0 0.08 0.495 0 0.1 0.495 0 0 0.5 0 0.02 0.5 0 0.04 0.5 0 0.06 0.5 0 0.08 0.5 0 0.1 0.5 0 0 0.505 0 0.02 0.505 0 0.04 0.505 0 0.06 0.505 0 0.08 0.505 0 0.1 0.505 0 0 0.51 0 0.02 0.51 0 0.04 0.51 0 0.06 0.51 0 0.08 0.51 0 0.1 0.51 0 0 0.515 0 0.02 0.515 0 0.04 0.515 0 0.06 0.515 0 0.08 0.515 0 0.1 0.515 0 0 0.52 0 0.02 0.52 0 0.04 0.52 0 0.06 0.52 0 0.08 0.52 0 0.1 0.52 0 0 0.525 0 0.02 0.525 0 0.04 0.525 0 0.06 0.525 0 0.08 0.525 0 0.1 0.525 0 0 0.53 0 0.02 0.53 0 0.04 0.53 0 0.06 0.53 0 0.08 0.53 0 0.1 0.53 0 0 0.535 0 0.02 0.535 0 0.04 0.535 0 0.06 0.535 0 0.08 0.535 0 0.1 0.535 0 0 0.54 0 0.02 0.54 0 0.04 0.54 0 0.06 0.54 0 0.08 0.54 0 0.1 0.54 0 0 0.545 0 0.02 0.545 0 0.04 0.545 0 0.06 0.545 0 0.08 0.545 0 0.1 0.545 0 0 0.55 0 0.02 0.55 0 0.04 0.55 0 0.06 0.55 0 0.08 0.55 0 0.1 0.55 0 0 0.555 0 0.02 0.555 0 0.04 0.555 0 0.06 0.555 0 0.08 0.555 0 0.1 0.555 0 0 0.56 0 0.02 0.56 0 0.04 0.56 0 0.06 0.56 0 0.08 0.56 0 0.1 0.56 0 0 0.565 0 0.02 0.565 0 0.04 0.565 0 0.06 0.565 0 0.08 0.565 0 0.1 0.565 0 0 0.57 0 0.02 0.57 0 0.04 0.57 0 0.06 0.57 0 0.08 0.57 0 0.1 0.57 0 0 0.575 0 0.02 0.575 0 0.04 0.575 0 0.06 0.575 0 0.08 0.575 0 0.1 0.575 0 0 0.58 0 0.02 0.58 0 0.04 0.58 0 0.06 0.58 0 0.08 0.58 0 0.1 0.58 0 0 0.585 0 0.02 0.585 0 0.04 0.585 0 0.06 0.585 0 0.08 0.585 0 0.1 0.585 0 0 0.59 0 0.02 0.59 0 0.04 0.59 0 0.06 0.59 0 0.08 0.59 0 0.1 0.59 0 0 0.595 0 0.02 0.595 0 0.04 0.595 0 0.06 0.595 0 0.08 0.595 0 0.1 0.595 0 0 0.6 0 0.02 0.6 0 0.04 0.6 0 0.06 0.6 0 0.08 0.6 0 0.1 0.6 0 0 0.605 0 0.02 0.605 0 0.04 0.605 0 0.06 0.605 0 0.08 0.605 0 0.1 0.605 0 0 0.61 0 0.02 0.61 0 0.04 0.61 0 0.06 0.61 0 0.08 0.61 0 0.1 0.61 0 0 0.615 0 0.02 0.615 0 0.04 0.615 0 0.06 0.615 0 0.08 0.615 0 0.1 0.615 0 0 0.62 0 0.02 0.62 0 0.04 0.62 0 0.06 0.62 0 0.08 0.62 0 0.1 0.62 0 0 0.625 0 0.02 0.625 0 0.04 0.625 0 0.06 0.625 0 0.08 0.625 0 0.1 0.625 0 0 0.63 0 0.02 0.63 0 0.04 0.63 0 0.06 0.63 0 0.08 0.63 0 0.1 0.63 0 0 0.635 0 0.02 0.635 0 0.04 0.635 0 0.06 0.635 0 0.08 0.635 0 0.1 0.635 0 0 0.64 0 0.02 0.64 0 0.04 0.64 0 0.06 0.64 0 0.08 0.64 0 0.1 0.64 0 0 0.645 0 0.02 0.645 0 0.04 0.645 0 0.06 0.645 0 0.08 0.645 0 0.1 0.645 0 0 0.65 0 0.02 0.65 0 0.04 0.65 0 0.06 0.65 0 0.08 0.65 0 0.1 0.65 0 0 0.655 0 0.02 0.655 0 0.04 0.655 0 0.06 0.655 0 0.08 0.655 0 0.1 0.655 0 0 0.66 0 0.02 0.66 0 0.04 0.66 0 0.06 0.66 0 0.08 0.66 0 0.1 0.66 0 0 0.665 0 0.02 0.665 0 0.04 0.665 0 0.06 0.665 0 0.08 0.665 0 0.1 0.665 0 0 0.67 0 0.02 0.67 0 0.04 0.67 0 0.06 0.67 0 0.08 0.67 0 0.1 0.67 0 0 0.675 0 0.02 0.675 0 0.04 0.675 0 0.06 0.675 0 0.08 0.675 0 0.1 0.675 0 0 0.68 0 0.02 0.68 0 0.04 0.68 0 0.06 0.68 0 0.08 0.68 0 0.1 0.68 0 0 0.685 0 0.02 0.685 0 0.04 0.685 0 0.06 0.685 0 0.08 0.685 0 0.1 0.685 0 0 0.69 0 0.02 0.69 0 0.04 0.69 0 0.06 0.69 0 0.08 0.69 0 0.1 
[...]
			<PointData Scalars="VitesseX">
				<DataArray Name="VitesseX" type="Float32" format="ascii">
 0 1.41167e-14 5.90888e-14 2.9918e-14 2.63892e-14 0 0 2.03474e-14 4.73801e-14 3.89703e-14 1.94465e-14 0 0 2.38338e-14 3.54244e-14 4.54178e-14 1.11989e-14 0 0 2.28602e-14 3.7417e-14 2.9682e-14 1.38733e-14 0 0 3.92817e-14 2.24939e-14 2.21188e-14 9.28972e-15 0 0 5.28422e-14 1.35585e-15 2.82078e-14 -4.8137e-15 0 0 2.74109e-14 3.11664e-14 -2.11667e-15 3.016e-15 0 0 1.18729e-14 5.31052e-14 -2.8646e-14 2.32053e-14 0 0 2.35452e-14 3.70266e-14 -1.73158e-14 3.28177e-14 0 0 4.23538e-14 1.55954e-14 1.21378e-14 1.53431e-14 0 0 3.26173e-14 3.82754e-14 -6.08698e-15 2.46104e-14 0 0 2.10677e-14 4.4219e-14 2.66259e-15 1.32147e-14 0 0 -6.04622e-15 6.11715e-14 1.31567e-14 -1.11483e-14 0 0 -1.28679e-14 6.25429e-14 2.55112e-14 -2.40616e-14 0 0 1.03935e-14 1.70857e-14 7.65867e-14 -5.05668e-14 0 0 -1.18106e-14 3.98379e-14 4.91052e-14 -1.50904e-14 0 0 1.30346e-14 2.28004e-14 4.35513e-14 1.60638e-14 0 0 4.4432e-14 1.95314e-14 3.31568e-14 3.25055e-14 0 0 3.0841e-14 6.94866e-14 -2.57872e-14 9.87872e-14 0 0 2.69235e-14 7.20635e-14 -9.69155e-15 1.12477e-13 0 0 1.74665e-14 7.82939e-14 2.80654e-14 6.91151e-14 0 0 2.18239e-14 9.66455e-14 2.1704e-14 6.04241e-14 0 0 9.31458e-14 9.67896e-15 1.15895e-13 -4.08483e-15 0 0 1.26829e-13 -4.07565e-14 1.79324e-13 -3.79986e-14 0 0 3.61771e-14 1.01704e-13 5.4381e-14 4.72851e-14 0 0 -5.10839e-14 2.40949e-13 -5.20187e-14 9.40152e-14 0 0 2.86336e-14 1.33326e-13 7.28867e-14 -3.45805e-14 0 0 1.16133e-13 -1.48757e-15 1.96023e-13 -1.45393e-13 0 0 7.8619e-14 5.62282e-14 1.19051e-13 -9.89984e-14 0 0 3.62632e-14 1.31683e-13 3.53675e-14 -4.90402e-14 0 0 5.77637e-14 8.78593e-14 6.68188e-14 -5.74323e-14 0 0 6.61685e-14 6.68366e-14 6.43778e-14 -3.51615e-14 0 0 3.30798e-14 1.07915e-13 1.29215e-14 1.84888e-14 0 0 6.8169e-14 5.08079e-14 6.54492e-14 1.11342e-14 0 0 1.27918e-14 1.55721e-13 -6.80143e-14 1.40626e-13 0 0 7.88661e-15 1.52467e-13 -9.83153e-14 1.93266e-13 0 0 6.31575e-14 4.30841e-14 2.61778e-14 9.67719e-14 0 0 6.06445e-14 6.01419e-14 3.88871e-14 4.99961e-14 0 0 7.64062e-14 8.56125e-14 3.41828e-14 1.98314e-14 0 0 6.01276e-14 1.35826e-13 4.86941e-14 -6.9647e-15 0 0 1.00282e-13 9.14971e-14 1.06223e-13 -3.60632e-14 0 0 1.19445e-13 8.71809e-14 8.22317e-14 -2.39167e-14 0 0 1.11405e-13 6.71753e-14 1.09275e-13 -3.22671e-14 0 0 1.12809e-13 -8.63156e-15 2.06879e-13 -6.40549e-14 0 0 5.3325e-14 9.41165e-14 9.36396e-14 1.86081e-14 0 0 5.51414e-14 8.97732e-14 1.23546e-13 -2.42747e-15 0 0 6.40526e-14 3.90454e-14 1.96637e-13 -2.91555e-14 0 0 5.72914e-14 8.8145e-14 1.02655e-13 4.11833e-14 0 0 5.22293e-14 8.86146e-14 1.042e-13 2.53532e-14 0 0 -1.11651e-14 1.39581e-13 9.9296e-14 3.45296e-14 0 0 -8.33337e-14 2.26719e-13 7.19051e-14 6.12895e-14 0 0 -6.2871e-14 2.16708e-13 3.43633e-14 1.2254e-13 0 0 1.38268e-13 -1.05687e-13 2.55388e-13 4.86724e-14 0 0 1.14419e-13 -1.4256e-13 3.05132e-13 1.9583e-14 0 0 -7.13516e-14 1.39033e-13 5.64501e-14 1.47027e-13 0 0 -1.22322e-13 2.25112e-13 -1.44623e-14 1.80379e-13 0 0 -1.04571e-13 1.70406e-13 7.76528e-14 1.04843e-13 0 0 -5.37377e-14 1.37725e-13 9.34857e-14 6.59431e-14 0 0 -3.49192e-14 1.6618e-13 1.12528e-13 -7.87035e-15 0 0 2.27536e-14 1.04932e-13 2.03774e-13 -7.32939e-14 0 0 4.23663e-14 1.17021e-13 1.35775e-13 -2.44393e-15 0 0 -7.38441e-15 1.99629e-13 1.22648e-13 -7.58203e-14 0 0 1.79271e-14 2.11844e-13 1.33066e-13 -1.57358e-13 0 0 8.13849e-14 1.97028e-13 2.51059e-14 -2.86441e-14 0 0 1.54445e-13 1.0618e-13 1.43231e-14 5.18823e-14 0 0 1.5256e-13 6.73543e-14 5.18885e-14 3.59126e-14 0 0 1.09078e-13 7.13191e-14 1.59061e-13 -3.83026e-14 0 0 9.08854e-14 9.38493e-14 1.81919e-13 3.6993e-15 0 0 -3.48527e-14 3.36256e-13 -8.69655e-14 2.58347e-13 0 0 4.16377e-14 2.36111e-13 -2.44217e-14 2.72494e-13 0 0 2.30803e-13 -7.31675e-15 2.07325e-13 9.91076e-14 0 0 1.7078e-13 1.56771e-13 1.47862e-13 7.71194e-14 0 0 -7.15109e-14 4.41702e-13 -6.40898e-14 2.17916e-13 0 0 -1.63085e-13 4.90031e-13 -1.22157e-13 3.40847e-13 0 0 -3.49207e-14 2.04809e-13 2.40706e-13 1.88109e-13 0 0 9.41999e-14 -6.24035e-15 4.79914e-13 1.33711e-13 0 0 2.28185e-14 2.74542e-13 7.15899e-14 5.3819e-13 0 0 -1.87697e-13 5.63552e-13 -1.54494e-13 6.08439e-13 0 0 -2.00009e-13 4.70097e-13 1.46952e-13 1.96778e-13 0 0 1.80779e-13 7.96026e-14 4.06178e-13 8.35833e-14 0 0 6.08377e-15 3.37155e-13 9.37252e-14 4.19435e-13 0 0 -2.56746e-13 5.23681e-13 2.76994e-13 2.08996e-13 0 0 2.04339e-13 -4.68597e-14 1.10284e-12 -4.62073e-13 0 0 1.57927e-13 5.22431e-13 5.5275e-13 -2.8136e-13 0 0 -7.13304e-14 1.45007e-12 -5.94807e-13 3.63773e-13 0 0 3.02594e-13 1.05261e-12 -5.18661e-13 4.4036e-13 0 0 1.04162e-12 7.53808e-14 3.80058e-13 -6.32067e-14 0 0 9.30722e-13 8.24325e-14 8.31484e-13 -5.47211e-13 0 0 5.0133e-13 5.21637e-13 6.48552e-13 -4.49468e-13 0 0 1.05775e-13 9.97049e-13 2.9364e-13 -1.97268e-13 0 0 -1.638e-13 1.25901e-12 7.10066e-14 7.02499e-15 0 0 -1.13477e-13 1.18674e-12 1.30998e-13 -2.93749e-14 0 0 1.63493e-13 7.77006e-13 3.75343e-13 -6.48748e-14 0 0 8.66931e-13 -1.12723e-13 6.26591e-13 8.90986e-14 0 0 1.1347e-12 -3.79747e-13 6.07243e-13 3.69097e-13 0 0 9.93132e-13 -1.79612e-13 4.49103e-13 3.84168e-13 0 0 6.40174e-13 2.70806e-13 2.97339e-13 2.52304e-13 0 0 9.91782e-14 7.52788e-13 1.03048e-13 4.33823e-14 0 0 -1.82593e-13 9.90589e-13 -1.56334e-13 2.5682e-14 0 0 -9.87155e-14 9.0356e-13 -2.13701e-13 7.94852e-14 0 0 3.40048e-13 4.11676e-13 -5.45341e-14 2.23239e-13 0 0 8.50326e-13 -2.52625e-13 2.44501e-13 3.41717e-13 0 0 9.17117e-13 -3.88021e-13 3.26163e-13 3.36279e-13 0 0 7.25317e-13 -2.67478e-13 3.10221e-13 3.34133e-13 0 0 1.71258e-13 6.22415e-14 3.36163e-13 2.13135e-13 0 0 -2.88959e-13 2.86756e-13 4.10697e-13 -3.69933e-14 0 0 -3.38258e-13 2.8174e-13 4.5968e-13 -1.32139e-13 0 0 -2.1275e-13 1.50926e-13 4.86643e-13 -1.51248e-13 0 0 -4.75019e-14 6.02295e-14 4.72503e-13 -1.06303e-13 0 0 5.95066e-14 3.76038e-14 4.17199e-13 -1.30281e-14 0 0 1.70145e-13 -1.89075e-15 3.56775e-13 7.68951e-14 0 0 2.19375e-13 -4.22649e-15 2.98932e-13 1.43977e-13 0 0 2.19679e-13 9.37607e-15 2.17489e-13 2.47146e-13 0 0 1.81424e-13 3.32864e-14 2.08257e-13 2.96671e-13 0 0 1.14716e-13 4.04305e-14 2.49215e-13 3.20708e-13 0 0 4.36066e-14 9.6577e-14 2.68975e-13 3.65402e-13 0 0 1.98435e-14 1.21956e-13 2.9702e-13 3.47551e-13 0 0 2.96126e-14 5.90965e-14 3.79017e-13 3.07031e-13 0 0 4.2444e-14 5.33968e-14 3.85221e-13 2.91395e-13 0 0 6.51181e-14 8.4215e-14 3.30704e-13 2.8794e-13 0 0 8.07484e-14 1.63655e-13 2.11056e-13 2.58692e-13 0 0 9.4945e-14 2.22573e-13 1.44911e-13 1.8472e-13 0 0 1.2329e-13 2.21739e-13 1.52931e-13 8.36595e-14 0 0 1.50704e-13 1.8112e-13 1.5641e-13 -9.73986e-16 0 0 1.24398e-13 1.9065e-13 1.39059e-13 -5.1858e-14 0 0 8.75859e-14 2.06094e-13 1.55861e-13 -1.68236e-13 0 0 8.99318e-14 1.94926e-13 1.24576e-13 -9.60219e-14 0 0 4.635e-14 2.6734e-13 3.19722e-15 3.59886e-15 0 0 2.52992e-15 2.89587e-13 4.45573e-14 -7.87009e-14 0 0 5.82658e-14 2.27694e-13 1.29993e-13 1.82605e-14 0 0 1.04534e-13 2.41658e-13 1.2526e-13 1.02265e-13 0 0 1.69707e-13 2.4675e-13 1.68425e-13 1.48794e-13 0 0 1.37234e-13 3.53289e-13 2.23975e-13 1.28013e-13 0 0 1.57065e-13 3.45287e-13 3.88989e-13 7.35916e-14 0 0 2.24263e-13 3.15399e-13 3.60365e-13 2.69297e-13 0 0 2.47578e-13 3.26249e-13 3.7887e-13 2.4418e-13 0 0 2.57629e-13 3.66344e-13 3.84004e-13 1.92628e-13 0 0 2.15623e-13 5.02165e-13 2.42571e-13 2.83365e-13 0 0 3.65805e-13 3.3829e-13 4.04451e-13 1.55449e-13 0 0 4.17781e-13 3.47882e-13 3.55212e-13 1.67491e-13 0 0 4.05334e-13 4.18307e-13 2.43067e-13 2.61474e-13 0 0 5.15385e-13 2.33706e-13 4.63641e-13 8.1156e-14 0 0 3.27415e-13 5.44907e-13 1.51878e-13 2.79787e-13 0 0 2.92275e-13 5.7785e-13 1.30957e-13 3.20109e-13 0 0 4.5037e-13 3.48324e-13 3.3265e-13 1.40668e-13 0 0 3.37065e-13 5.85697e-13 1.64177e-15 3.32227e-13 0 0 4.61027e-13 3.69097e-13 1.9089e-13 2.68829e-13 0 0 4.29929e-13 4.18781e-13 1.20593e-13 3.5376e-13 0 0 3.40398e-13 5.38578e-13 -4.42781e-14 5.12605e-13 0 0 4.7961e-13 2.66001e-13 1.99183e-13 4.5494e-13 0 0 2.67933e-13 5.75417e-13 -9.97875e-14 6.40819e-13 0 0 3.09089e-13 4.29096e-13 1.4542e-13 3.9573e-13 0 0 3.32805e-13 3.40059e-13 3.58113e-13 1.14178e-13 0 0 4.09175e-13 3.72105e-13 3.32242e-13 1.87414e-14 0 0 5.79985e-13 2.5923e-13 4.07871e-13 -8.196e-15 0 0 5.39787e-13 3.61458e-13 3.40639e-13 1.25615e-13 0 0 5.00373e-13 4.34331e-13 3.80671e-13 1.24407e-13 0 0 2.71047e-13 7.49332e-13 2.29531e-13 2.46404e-13 0 0 3.02813e-13 6.5625e-13 4.37377e-13 7.08252e-14 0 0 3.58357e-13 5.94895e-13 4.16911e-13 1.84908e-13 0 0 3.94867e-13 4.54248e-13 5.14274e-13 3.4295e-13 0 0 4.54208e-13 3.90918e-13 5.39466e-13 4.62104e-13 0 0 3.8128e-13 5.8578e-13 3.318e-13 6.28055e-13 0 0 3.42638e-13 4.8098e-13 5.85893e-13 3.98097e-13 0 0 1.34414e-13 5.95434e-13 5.72541e-13 3.7923e-13 0 0 -9.0132e-14 7.7656e-13 5.69993e-13 2.62763e-13 0 0 -1.44894e-15 6.57957e-13 5.94928e-13 3.15384e-13 0 0 2.5161e-13 4.73193e-13 4.39427e-13 5.46498e-13 0 0 6.11526e-13 1.68019e-14 8.9042e-13 1.88324e-13 0 0 3.47125e-13 2.72846e-13 7.80361e-13 2.71242e-13 0 0 -2.46967e-14 6.8914e-13 4.49096e-13 5.38077e-13 0 0 2.22915e-13 4.09107e-13 6.31303e-13 4.70969e-13 0 0 1.35545e-13 6.85749e-13 2.56803e-13 6.96833e-13 0 0 1.75211e-13 6.17461e-13 3.12743e-13 5.97219e-13 0 0 2.96151e-13 3.88501e-13 5.05756e-13 3.93604e-13 0 0 2.75183e-13 2.83994e-13 6.46231e-13 2.76196e-13 0 0 4.55016e-13 -2.11592e-14 8.82042e-13 2.11307e-13 0 0 3.61937e-13 3.16864e-13 4.10897e-13 5.01307e-13 0 0 3.59146e-13 4.28353e-13 3.17023e-13 4.45946e-13 0 0 1.62469e-13 5.83082e-13 4.64695e-13 1.27519e-13 0 0 1.64051e-13 4.48474e-13 7.55199e-13 -5.91287e-14 0 0 3.7246e-13 2.38215e-13 7.82217e-13 2.63144e-14 0 0 1.1466e-13 7.2865e-13 6.00808e-14 4.89944e-13 0 0 4.05004e-13 2.94802e-13 3.30421e-13 3.3428e-13 0 0 5.19573e-13 2.44805e-13 4.30756e-13 1.37425e-13 0 0 4.32441e-13 5.1775e-13 8.72627e-14 3.67292e-13 0 0 5.58473e-13 4.39703e-13 -1.79052e-14 5.63618e-13 0 0 3.34683e-13 7.13048e-13 -1.84566e-13 6.81569e-13 0 0 4.79228e-13 2.30904e-13 5.10627e-13 2.10938e-13 0 0 4.83214e-13 2.50153e-13 4.36595e-13 2.45048e-13 0 0 4.52365e-13 6.55556e-13 -2.4192e-13 7.3337e-13 0 0 8.6167e-13 2.4206e-13 9.53984e-14 5.20608e-13 0 0 4.42623e-13 7.13889e-13 -1.99888e-13 5.81944e-13 0 0 3.65102e-13 7.5255e-13 -2.96546e-13 7.35847e-13 0 0 8.6445e-13 1.24751e-13 1.82567e-13 5.59176e-13 0 0 7.56654e-13 4.01195e-13 -1.03409e-13 6.94711e-13 0 0 7.65457e-13 3.41612e-13 -1.75784e-13 9.03526e-13 0 0 5.49745e-13 5.31454e-13 -2.84831e-13 1.00602e-12 0 0 5.3031e-13 5.08971e-13 -7.48986e-14 6.29771e-13 0 0 8.78211e-13 1.16506e-13 -7.00607e-14 5.93181e-13 0 0 9.07557e-13 2.16874e-13 -5.58991e-13 9.87531e-13 0
				</DataArray>
				<DataArray Name="VitesseY" type="Float32" format="ascii">