<?xml version="1.0"?>
<VTKFile type="PolyData">
	<PolyData>
		<Piece NumberOfPoints="1206" NumberOfPolys="1000">
			<Points>
				<DataArray type="Float32" NumberOfComponents="3" format="ascii">
 0 0 0 0.02 0 0 0.04 0 0 0.06 0 0 0.08 0 0 0.1 0 0 0 0.005 0 0.02 0.005 0 0.04 0.005 0 0.06 0.005 0 0.08 0.005 0 0.1 0.005 0 0 0.01 0 0.02 0.01 0 0.04 0.01 0 0.06 0.01 0 0.08 0.01 0 0.1 0.01 0 0 0.015 0 0.02 0.015 0 0.04 0.015 0 0.06 0.015 0 0.08 0.015 0 0.1 0.015 0 0 0.02 0 0.02 0.02 0 0.04 0.02 0 0.06 0.02 0 0.08 0.02 0 0.1 0.02 0 0 0.025 0 0.02 0.025 0 0.04 0.025 0 0.06 0.025 0 0.08 0.025 0 0.1 0.025 0 0 0.03 0 0.02 0.03 0 0.04 0.03 0 0.06 0.03 0 0.08 0.03 0 0.1 0.03 0 0 0.035 0 0.02 0.035 0 0.04 0.035 0 0.06 0.035 0 0.08 0.035 0 0.1 0.035 0 0 0.04 0 0.02 0.04 0 0.04 0.04 0 0.06 0.04 0 0.08 0.04 0 0.1 0.04 0 0 0.045 0 0.02 0.045 0 0.04 0.045 0 0.06 0.045 0 0.08 0.045 0 0.1 0.045 0 0 0.05 0 0.02 0.05 0 0.04 0.05 0 0.06 0.05 0 0.08 0.05 0 0.1 0.05 0 0 0.055 0 0.02 0.055 0 0.04 0.055 0 0.06 0.055 0 0.08 0.055 0 0.1 0.055 0 0 0.06 0 0.02 0.06 0 0.04 0.06 0 0.06 0.06 0 0.08 0.06 0 0.1 0.06 0 0 0.065 0 0.02 0.065 0 0.04 0.065 0 0.06 0.065 0 0.08 0.065 0 0.1 0.065 0 0 0.07 0 0.02 0.07 0 0.04 0.07 0 0.06 0.07 0 0.08 0.07 0 0.1 0.07 0 0 0.075 0 0.02 0.075 0 0.04 0.075 0 0.06 0.075 0 0.08 0.075 0 0.1 0.075 0 0 0.08 0 0.02 0.08 0 0.04 0.08 0 0.06 0.08 0 0.08 0.08 0 0.1 0.08 0 0 0.085 0 0.02 0.085 0 0.04 0.085 0 0.06 0.085 0 0.08 0.085 0 0.1 0.085 0 0 0.09 0 0.02 0.09 0 0.04 0.09 0 0.06 0.09 0 0.08 0.09 0 0.1 0.09 0 0 0.095 0 0.02 0.095 0 0.04 0.095 0 0.06 0.095 0 0.08 0.095 0 0.1 0.095 0 0 0.1 0 0.02 0.1 0 0.04 0.1 0 0.06 0.1 0 0.08 0.1 0 0.1 0.1 0 0 0.105 0 0.02 0.105 0 0.04 0.105 0 0.06 0.105 0 0.08 0.105 0 0.1 0.105 0 0 0.11 0 0.02 0.11 0 0.04 0.11 0 0.06 0.11 0 0.08 0.11 0 0.1 0.11 0 0 0.115 0 0.02 0.115 0 0.04 0.115 0 0.06 0.115 0 0.08 0.115 0 0.1 0.115 0 0 0.12 0 0.02 0.12 0 0.04 0.12 0 0.06 0.12 0 0.08 0.12 0 0.1 0.12 0 0 0.125 0 0.02 0.125 0 0.04 0.125 0 0.06 0.125 0 0.08 0.125 0 0.1 0.125 0 0 0.13 0 0.02 0.13 0 0.04 0.13 0 0.06 0.13 0 0.08 0.13 0 0.1 0.13 0 0 0.135 0 0.02 0.135 0 0.04 0.135 0 0.06 0.135 0 0.08 0.135 0 0.1 0.135 0 0 0.14 0 0.02 0.14 0 0.04 0.14 0 0.06 0.14 0 0.08 0.14 0 0.1 0.14 0 0 0.145 0 0.02 0.145 0 0.04 0.145 0 0.06 0.145 0 0.08 0.145 0 0.1 0.145 0 0 0.15 0 0.02 0.15 0 0.04 0.15 0 0.06 0.15 0 0.08 0.15 0 0.1 0.15 0 0 0.155 0 0.02 0.155 0 0.04 0.155 0 0.06 0.155 0 0.08 0.155 0 0.1 0.155 0 0 0.16 0 0.02 0.16 0 0.04 0.16 0 0.06 0.16 0 0.08 0.16 0 0.1 0.16 0 0 0.165 0 0.02 0.165 0 0.04 0.165 0 0.06 0.165 0 0.08 0.165 0 0.1 0.165 0 0 0.17 0 0.02 0.17 0 0.04 0.17 0 0.06 0.17 0 0.08 0.17 0 0.1 0.17 0 0 0.175 0 0.02 0.175 0 0.04 0.175 0 0.06 0.175 0 0.08 0.175 0 0.1 0.175 0 0 0.18 0 0.02 0.18 0 0.04 0.18 0 0.06 0.18 0 0.08 0.18 0 0.1 0.18 0 0 0.185 0 0.02 0.185 0 0.04 0.185 0 0.06 0.185 0 0.08 0.185 0 0.1 0.185 0 0 0.19 0 0.02 0.19 0 0.04 0.19 0 0.06 0.19 0 0.08 0.19 0 0.1 0.19 0 0 0.195 0 0.02 0.195 0 0.04 0.195 0 0.06 0.195 0 0.08 0.195 0 0.1 0.195 0 0 0.2 0 0.02 0.2 0 0.04 0.2 0 0.06 0.2 0 0.08 0.2 0 0.1 0.2 0 0 0.205 0 0.02 0.205 0 0.04 0.205 0 0.06 0.205 0 0.08 0.205 0 0.1 0.205 0 0 0.21 0 0.02 0.21 0 0.04 0.21 0 0.06 0.21 0 0.08 0.21 0 0.1 0.21 0 0 0.215 0 0.02 0.215 0 0.04 0.215 0 0.06 0.215 0 0.08 0.215 0 0.1 0.215 0 0 0.22 0 0.02 0.22 0 0.04 0.22 0 0.06 0.22 0 0.08 0.22 0 0.1 0.22 0 0 0.225 0 0.02 0.225 0 0.04 0.225 0 0.06 0.225 0 0.08 0.225 0 0.1 0.225 0 0 0.23 0 0.02 0.23 0 0.04 0.23 0 0.06 0.23 0 0.08 0.23 0 0.1 0.23 0 0 0.235 0 0.02 0.235 0 0.04 0.235 0 0.06 0.235 0 0.08 0.235 0 0.1 0.235 0 0 0.24 0 0.02 0.24 0 0.04 0.24 0 0.06 0.24 0 0.08 0.24 0 0.1 0.24 0 0 0.245 0 0.02 0.245 0 0.04 0.245 0 0.06 0.245 0 0.08 0.245 0 0.1 0.245 0 0 0.25 0 0.02 0.25 0 0.04 0.25 0 0.06 0.25 0 0.08 0.25 0 0.1 0.25 0 0 0.255 0 0.02 0.255 0 0.04 0.255 0 0.06 0.255 0 0.08 0.255 0 0.1 0.255 0 0 0.26 0 0.02 0.26 0 0.04 0.26 0 0.06 0.26 0 0.08 0.26 0 0.1 0.26 0 0 0.265 0 0.02 0.265 0 0.04 0.265 0 0.06 0.265 0 0.08 0.265 0 0.1 0.265 0 0 0.27 0 0.02 0.27 0 0.04 0.27 0 0.06 0.27 0 0.08 0.27 0 0.1 0.27 0 0 0.275 0 0.02 0.275 0 0.04 0.275 0 0.06 0.275 0 0.08 0.275 0 0.1 0.275 0 0 0.28 0 0.02 0.28 0 0.04 0.28 0 0.06 0.28 0 0.08 0.28 0 0.1 0.28 0 0 0.285 0 0.02 0.285 0 0.04 0.285 0 0.06 0.285 0 0.08 0.285 0 0.1 0.285 0 0 0.29 0 0.02 0.29 0 0.04 0.29 0 0.06 0.29 0 0.08 0.29 0 0.1 0.29 0 0 0.295 0 0.02 0.295 0 0.04 0.295 0 0.06 0.295 0 0.08 0.295 0 0.1 0.295 0 0 0.3 0 0.02 0.3 0 0.04 0.3 0 0.06 0.3 0 0.08 0.3 0 0.1 0.3 0 0 0.305 0 0.02 0.305 0 0.04 0.305 0 0.06 0.305 0 0.08 0.305 0 0.1 0.305 0 0 0.31 0 0.02 0.31 0 0.04 0.31 0 0.06 0.31 0 0.08 0.31 0 0.1 0.31 0 0 0.315 0 0.02 0.315 0 0.04 0.315 0 0.06 0.315 0 0.08 0.315 0 0.1 0.315 0 0 0.32 0 0.02 0.32 0 0.04 0.32 0 0.06 0.32 0 0.08 0.32 0 0.1 0.32 0 0 0.325 0 0.02 0.325 0 0.04 0.325 0 0.06 0.325 0 0.08 0.325 0 0.1 0.325 0 0 0.33 0 0.02 0.33 0 0.04 0.33 0 0.06 0.33 0 0.08 0.33 0 0.1 0.33 0 0 0.335 0 0.02 0.335 0 0.04 0.335 0 0.06 0.335 0 0.08 0.335 0 0.1 0.335 0 0 0.34 0 0.02 0.34 0 0.04 0.34 0 0.06 0.34 0 0.08 0.34 0 0.1 0.34 0 0 0.345 0 0.02 0.345 0 0.04 0.345 0 0.06 0.345 0 0.08 0.345 0 0.1 0.345 0 0 0.35 0 0.02 0.35 0 0.04 0.35 0 0.06 0.35 0 0.08 0.35 0 0.1 0.35 0 0 0.355 0 0.02 0.355 0 0.04 0.355 0 0.06 0.355 0 0.08 0.355 0 0.1 0.355 0 0 0.36 0 0.02 0.36 0 0.04 0.36 0 0.06 0.36 0 0.08 0.36 0 0.1 0.36 0 0 0.365 0 0.02 0.365 0 0.04 0.365 0 0.06 0.365 0 0.08 0.365 0 0.1 0.365 0 0 0.37 0 0.02 0.37 0 0.04 0.37 0 0.06 0.37 0 0.08 0.37 0 0.1 0.37 0 0 0.375 0 0.02 0.375 0 0.04 0.375 0 0.06 0.375 0 0.08 0.375 0 0.1 0.375 0 0 0.38 0 0.02 0.38 0 0.04 0.38 0 0.06 0.38 0 0.08 0.38 0 0.1 0.38 0 0 0.385 0 0.02 0.385 0 0.04 0.385 0 0.06 0.385 0 0.08 0.385 0 0.1 0.385 0 0 0.39 0 0.02 0.39 0 0.04 0.39 0 0.06 0.39 0 0.08 0.39 0 0.1 0.39 0 0 0.395 0 0.02 0.395 0 0.04 0.395 0 0.06 0.395 0 0.08 0.395 0 0.1 0.395 0 0 0.4 0 0.02 0.4 0 0.04 0.4 0 0.06 0.4 0 0.08 0.4 0 0.1 0.4 0 0 0.405 0 0.02 0.405 0 0.04 0.405 0 0.06 0.405 0 0.08 0.405 0 0.1 0.405 0 0 0.41 0 0.02 0.41 0 0.04 0.41 0 0.06 0.41 0 0.08 0.41 0 0.1 0.41 0 0 0.415 0 0.02 0.415 0 0.04 0.415 0 0.06 0.415 0 0.08 0.415 0 0.1 0.415 0 0 0.42 0 0.02 0.42 0 0.04 0.42 0 0.06 0.42 0 0.08 0.42 0 0.1 0.42 0 0 0.425 0 0.02 0.425 0 0.04 0.425 0 0.06 0.425 0 0.08 0.425 0 0.1 0.425 0 0 0.43 0 0.02 0.43 0 0.04 0.43 0 0.06 0.43 0 0.08 0.43 0 0.1 0.43 0 0 0.435 0 0.02 0.435 0 0.04 0.435 0 0.06 0.435 0 0.08 0.435 0 0.1 0.435 0 0 0.44 0 0.02 0.44 0 0.04 0.44 0 0.06 0.44 0 0.08 0.44 0 0.1 0.44 0 0 0.445 0 0.02 0.445 0 0.04 0.445 0 0.06 0.445 0 0.08 0.445 0 0.1 0.445 0 0 0.45 0 0.02 0.45 0 0.04 0.45 0 0.06 0.45 0 0.08 0.45 0 0.1 0.45 0 0 0.455 0 0.02 0.455 0 0.04 0.455 0 0.06 0.455 0 0.08 0.455 0 0.1 0.455 0 0 0.46 0 0.02 0.46 0 0.04 0.46 0 0.06 0.46 0 0.08 0.46 0 0.1 0.46 0 0 0.465 0 0.02 0.465 0 0.04 0.465 0 0.06 0.465 0 0.08 0.465 0 0.1 0.465 0 0 0.47 0 0.02 0.47 0 0.04 0.47 0 0.06 0.47 0 0.08 0.47 0 0.1 0.47 0 0 0.475 0 0.02 0.475 0 0.04 0.475 0 0.06 0.475 0 0.08 0.475 0 0.1 0.475 0 0 0.48 0 0.02 0.48 0 0.04 0.48 0 0.06 0.48 0 0.08 0.48 0 0.1 0.48 0 0 0.485 0 0.02 0.485 0 0.04 0.485 0 0.06 0.485 0 0.08 0.485 0 0.1 0.485 0 0 0.49 0 0.02 0.49 0 0.04 0.49 0 0.06 0.49 0 0.08 0.49 0 0.1 0.49 0 0 0.495 0 0.02 0.495 0 0.04 0.495 0 0.06 0.495 0 0.08 0.495 0 0.1 0.495 0 0 0.5 0 0.02 0.5 0 0.04 0.5 0 0.06 0.5 0 0.08 0.5 0 0.1 0.5 0 0 0.505 0 0.02 0.505 0 0.04 0.505 0 0.06 0.505 0 0.08 0.505 0 0.1 0.505 0 0 0.51 0 0.02 0.51 0 0.04 0.51 0 0.06 0.51 0 0.08 0.51 0 0.1 0.51 0 0 0.515 0 0.02 0.515 0 0.04 0.515 0 0.06 0.515 0 0.08 0.515 0 0.1 0.515 0 0 0.52 0 0.02 0.52 0 0.04 0.52 0 0.06 0.52 0 0.08 0.52 0 0.1 0.52 0 0 0.525 0 0.02 0.525 0 0.04 0.525 0 0.06 0.525 0 0.08 0.525 0 0.1 0.525 0 0 0.53 0 0.02 0.53 0 0.04 0.53 0 0.06 0.53 0 0.08 0.53 0 0.1 0.53 0 0 0.535 0 0.02 0.535 0 0.04 0.535 0 0.06 0.535 0 0.08 0.535 0 0.1 0.535 0 0 0.54 0 0.02 0.54 0 0.04 0.54 0 0.06 0.54 0 0.08 0.54 0 0.1 0.54 0 0 0.545 0 0.02 0.545 0 0.04 0.545 0 0.06 0.545 0 0.08 0.545 0 0.1 0.545 0 0 0.55 0 0.02 0.55 0 0.04 0.55 0 0.06 0.55 0 0.08 0.55 0 0.1 0.55 0 0 0.555 0 0.02 0.555 0 0.04 0.555 0 0.06 0.555 0 0.08 0.555 0 0.1 0.555 0 0 0.56 0 0.02 0.56 0 0.04 0.56 0 0.06 0.56 0 0.08 0.56 0 0.1 0.56 0 0 0.565 0 0.02 0.565 0 0.04 0.565 0 0.06 0.565 0 0.08 0.565 0 0.1 0.565 0 0 0.57 0 0.02 0.57 0 0.04 0.57 0 0.06 0.57 0 0.08 0.57 0 0.1 0.57 0 0 0.575 0 0.02 0.575 0 0.04 0.575 0 0.06 0.575 0 0.08 0.575 0 0.1 0.575 0 0 0.58 0 0.02 0.58 0 0.04 0.58 0 0.06 0.58 0 0.08 0.58 0 0.1 0.58 0 0 0.585 0 0.02 0.585 0 0.04 0.585 0 0.06 0.585 0 0.08 0.585 0 0.1 0.585 0 0 0.59 0 0.02 0.59 0 0.04 0.59 0 0.06 0.59 0 0.08 0.59 0 0.1 0.59 0 0 0.595 0 0.02 0.595 0 0.04 0.595 0 0.06 0.595 0 0.08 0.595 0 0.1 0.595 0 0 0.6 0 0.02 0.6 0 0.04 0.6 0 0.06 0.6 0 0.08 0.6 0 0.1 0.6 0 0 0.605 0 0.02 0.605 0 0.04 0.605 0 0.06 0.605 0 0.08 0.605 0 0.1 0.605 0 0 0.61 0 0.02 0.61 0 0.04 0.61 0 0.06 0.61 0 0.08 0.61 0 0.1 0.61 0 0 0.615 0 0.02 0.615 0 0.04 0.615 0 0.06 0.615 0 0.08 0.615 0 0.1 0.615 0 0 0.62 0 0.02 0.62 0 0.04 0.62 0 0.06 0.62 0 0.08 0.62 0 0.1 0.62 0 0 0.625 0 0.02 0.625 0 0.04 0.625 0 0.06 0.625 0 0.08 0.625 0 0.1 0.625 0 0 0.63 0 0.02 0.63 0 0.04 0.63 0 0.06 0.63 0 0.08 0.63 0 0.1 0.63 0 0 0.635 0 0.02 0.635 0 0.04 0.635 0 0.06 0.635 0 0.08 0.635 0 0.1 0.635 0 0 0.64 0 0.02 0.64 0 0.04 0.64 0 0.06 0.64 0 0.08 0.64 0 0.1 0.64 0 0 0.645 0 0.02 0.645 0 0.04 0.645 0 0.06 0.645 0 0.08 0.645 0 0.1 0.645 0 0 0.65 0 0.02 0.65 0 0.04 0.65 0 0.06 0.65 0 0.08 0.65 0 0.1 0.65 0 0 0.655 0 0.02 0.655 0 0.04 0.655 0 0.06 0.655 0 0.08 0.655 0 0.1 0.655 0 0 0.66 0 0.02 0.66 0 0.04 0.66 0 0.06 0.66 0 0.08 0.66 0 0.1 0.66 0 0 0.665 0 0.02 0.665 0 0.04 0.665 0 0.06 0.665 0 0.08 0.665 0 0.1 0.665 0 0 0.67 0 0.02 0.67 0 0.04 0.67 0 0.06 0.67 0 0.08 0.67 0 0.1 0.67 0 0 0.675 0 0.02 0.675 0 0.04 0.675 0 0.06 0.675 0 0.08 0.675 0 0.1 0.675 0 0 0.68 0 0.02 0.68 0 0.04 0.68 0 0.06 0.68 0 0.08 0.68 0 0.1 0.68 0 0 0.685 0 0.02 0.685 0 0.04 0.685 0 0.06 0.685 0 0.08 0.685 0 0.1 0.685 0 0 0.69 0 0.02 0.69 0 0.04 0.69 0 0.06 0.69 0 0.08 0.69 0 0.1 
[...]
			<PointData Scalars="VitesseX">
				<DataArray Name="VitesseX" type="Float32" format="ascii">
 0 -2.88631e-14 1.24334e-14 -1.33423e-14 -2.90737e-15 0 0 -2.47088e-14 2.32495e-15 -5.58304e-15 -5.59694e-15 0 0 -1.61009e-14 -2.51595e-14 2.48232e-14 -2.19994e-14 0 0 -5.12349e-14 1.57781e-14 -3.81579e-15 -1.05402e-14 0 0 -3.69483e-14 -2.1323e-15 6.35252e-15 -1.90167e-14 0 0 2.23476e-14 -7.46928e-14 4.38233e-14 -2.64157e-14 0 0 -7.77776e-15 -1.54208e-14 -4.43651e-14 4.90918e-14 0 0 -5.57469e-14 5.71036e-14 -1.20083e-13 1.09676e-13 0 0 -3.25143e-14 8.13564e-15 -5.1592e-14 7.39606e-14 0 0 -9.39981e-15 -5.72938e-14 6.04358e-14 -7.18411e-15 0 0 -7.10359e-14 1.22807e-14 3.74916e-14 -7.8463e-15 0 0 -5.15701e-14 -2.30441e-14 8.20263e-14 -3.58241e-14 0 0 -8.68862e-14 5.46124e-14 -1.66316e-14 3.61574e-14 0 0 -4.38017e-14 1.50592e-14 5.84799e-15 3.74653e-14 0 0 -6.24143e-15 -2.99027e-14 6.41096e-14 -1.07136e-14 0 0 -8.8836e-14 1.21585e-13 -1.05546e-13 7.16319e-14 0 0 3.89954e-14 -5.13114e-14 9.60352e-15 -2.95996e-14 0 0 7.75161e-15 -2.49165e-14 -2.19096e-14 -5.20626e-14 0 0 -1.35207e-14 -3.89121e-14 -2.37893e-14 -3.59696e-14 0 0 1.89188e-15 -6.82772e-14 -4.34884e-14 7.99434e-15 0 0 -1.26638e-13 1.34261e-13 -2.21658e-13 9.878e-14 0 0 -1.32818e-13 1.34843e-13 -1.80344e-13 6.58072e-14 0 0 4.98661e-15 -8.70667e-14 4.54997e-14 -5.65703e-14 0 0 6.16275e-14 -2.00059e-13 1.61344e-13 -1.19692e-13 0 0 -1.22337e-13 4.77467e-14 -6.99628e-14 4.12934e-15 0 0 -2.58841e-13 2.30537e-13 -2.4274e-13 7.46665e-14 0 0 -1.06222e-13 -2.80312e-15 -5.57957e-14 -5.81699e-14 0 0 2.74142e-15 -1.37785e-13 4.04873e-14 -1.66232e-13 0 0 -8.78345e-14 8.02434e-15 -7.57272e-14 -1.44576e-13 0 0 -1.8722e-13 1.31162e-13 -2.05677e-13 -1.81286e-14 0 0 -1.03699e-13 -3.4627e-14 -7.90451e-14 -1.92636e-14 0 0 -1.34445e-13 -3.60885e-14 -1.54053e-14 -4.14174e-14 0 0 -1.64615e-13 1.96008e-14 -2.64808e-14 1.08711e-14 0 0 6.47234e-14 -2.51892e-13 2.22593e-13 -6.40123e-14 0 0 -1.09875e-13 5.54271e-14 -4.02949e-14 1.05489e-13 0 0 -2.3494e-13 2.02971e-13 -1.3322e-13 1.3148e-13 0 0 -1.90106e-13 9.27417e-14 1.24328e-14 5.58787e-15 0 0 -1.87353e-14 -1.60362e-13 2.54605e-13 -1.86178e-13 0 0 -5.03697e-14 -1.23482e-13 2.41512e-13 -2.33094e-13 0 0 -1.9213e-13 6.93995e-14 6.20437e-14 -1.29986e-13 0 0 -1.61469e-13 5.93417e-14 -1.52987e-14 -3.06026e-15 0 0 -1.5419e-13 8.76811e-14 -1.38591e-13 1.29802e-13 0 0 3.50083e-14 -1.85778e-13 4.02319e-14 2.91061e-14 0 0 -1.14101e-13 2.28283e-14 -1.68256e-13 8.68888e-14 0 0 -3.48837e-13 2.71202e-13 -3.01937e-13 3.83718e-14 0 0 -1.56877e-13 -1.56864e-13 1.9658e-13 -3.1193e-13 0 0 -1.82669e-13 -1.90827e-13 3.15243e-13 -4.33484e-13 0 0 -1.88279e-13 -1.70716e-13 3.34063e-13 -4.59848e-13 0 0 -1.10748e-13 -1.72875e-13 2.18031e-13 -3.13788e-13 0 0 -2.99566e-13 2.54865e-13 -2.87207e-13 1.60784e-14 0 0 -4.23901e-13 4.49641e-13 -4.16504e-13 -2.91726e-15 0 0 -4.53919e-13 4.635e-13 -3.74735e-13 -1.53562e-13 0 0 1.20001e-13 -4.13798e-13 4.73379e-13 -7.06366e-13 0 0 -3.50426e-14 -1.2318e-13 1.95773e-13 -5.67368e-13 0 0 -4.59708e-13 5.66527e-13 -4.92646e-13 -1.6424e-13 0 0 -1.85055e-13 9.06537e-14 -1.34667e-14 -4.09855e-13 0 0 -3.56259e-13 2.76815e-13 -1.6724e-13 -2.4195e-13 0 0 -1.93763e-13 -1.45771e-13 2.79245e-13 -4.53429e-13 0 0 -3.29503e-13 -6.3829e-14 2.08821e-13 -3.5736e-13 0 0 -5.84478e-13 4.09565e-13 -3.6189e-13 2.17886e-15 0 0 -1.96156e-13 -8.00065e-15 -8.62523e-14 -2.2778e-13 0 0 2.11943e-14 -1.89481e-13 1.94057e-14 -3.51392e-13 0 0 -6.15903e-14 -5.38267e-14 -1.70745e-13 -1.7355e-13 0 0 -3.23457e-13 2.8411e-13 -5.67135e-13 2.17271e-13 0 0 -2.07399e-13 9.76153e-14 -4.09378e-13 1.43154e-13 0 0 9.12357e-16 -1.53725e-13 -1.16888e-13 -1.41333e-13 0 0 1.59265e-14 -1.54271e-13 -3.55716e-14 -2.24149e-13 0 0 -3.15774e-14 -1.91179e-13 1.00206e-13 -2.49357e-13 0 0 -4.69459e-13 3.74636e-13 -3.15344e-13 6.7359e-14 0 0 -4.51938e-13 3.19516e-13 -2.01664e-13 6.22025e-14 0 0 6.90625e-14 -4.42718e-13 5.79726e-13 -4.05672e-13 0 0 -1.94789e-13 -4.60239e-15 2.17504e-13 -1.91368e-13 0 0 -4.50065e-13 3.76356e-13 -1.29138e-13 -2.57274e-14 0 0 -5.84603e-13 6.18323e-13 -3.25986e-13 -7.3753e-14 0 0 -2.23231e-13 1.8891e-13 2.11607e-14 -3.5794e-13 0 0 8.14843e-14 -2.57824e-13 4.35844e-13 -6.26948e-13 0 0 -4.92766e-13 5.02057e-13 -2.34327e-13 -1.58229e-13 0 0 -4.56023e-13 3.19133e-13 -1.72355e-13 1.44919e-14 0 0 -3.88667e-13 1.72269e-13 -2.29571e-13 2.21973e-13 0 0 -6.01268e-14 -2.63364e-13 1.09391e-13 1.50369e-14 0 0 -3.11452e-13 5.36036e-14 6.90201e-14 -2.39088e-13 0 0 -6.25526e-13 4.49578e-13 -1.95169e-13 -2.8103e-13 0 0 3.29014e-13 -8.97397e-13 7.48643e-13 -6.70334e-13 0 0 -9.99846e-14 -2.67576e-13 5.66544e-14 -2.15436e-13 0 0 -1.05419e-12 1.0366e-12 -1.17271e-12 4.48889e-13 0 0 1.35809e-14 -3.68008e-13 -2.34047e-13 8.97943e-14 0 0 6.71656e-13 -1.18179e-12 4.46588e-13 -2.18578e-13 0 0 -1.93603e-13 -2.35023e-14 -3.99665e-13 1.82419e-13 0 0 -4.67616e-13 2.28993e-13 -5.36353e-13 2.8629e-13 0 0 -7.75084e-13 2.90838e-13 -6.86903e-13 5.53778e-13 0 0 -1.64675e-13 -8.2181e-13 9.03048e-14 2.17495e-13 0 0 4.31321e-13 -1.48402e-12 6.5538e-13 -7.9263e-15 0 0 -4.70803e-13 -6.40352e-14 -4.17895e-13 4.11194e-13 0 0 -7.06965e-13 6.31781e-13 -4.98451e-13 6.75634e-14 0 0 -7.99754e-13 8.43711e-13 -4.44402e-13 -7.88124e-14 0 0 2.68169e-13 -7.21109e-13 4.70208e-13 -4.7881e-13 0 0 1.00244e-12 -1.52799e-12 1.13883e-12 -7.02275e-13 0 0 -3.19871e-13 6.75487e-14 4.59099e-13 -6.81045e-13 0 0 -1.27456e-12 1.12901e-12 -8.6612e-14 -7.00177e-13 0 0 -7.52491e-13 5.34173e-13 -2.23395e-14 -5.70968e-13 0 0 2.30413e-13 -1.72375e-13 -1.69865e-13 -2.68585e-13 0 0 2.55403e-13 8.0645e-14 -6.26038e-13 2.65017e-15 0 0 -7.31078e-14 6.01757e-13 -1.08163e-12 1.51227e-13 0 0 -2.17709e-13 5.65338e-13 -1.00347e-12 1.1112e-13 0 0 -1.68947e-13 2.27222e-13 -7.54752e-13 9.3272e-16 0 0 -1.13764e-13 -3.28535e-13 -3.95945e-13 -1.56406e-13 0 0 -1.49299e-13 -5.96383e-13 -1.97594e-13 -2.85394e-13 0 0 -2.41549e-13 -5.85242e-13 -2.11316e-13 -3.18463e-13 0 0 -3.74869e-13 -4.27482e-13 -3.58909e-13 -2.71695e-13 0 0 -4.07737e-13 -3.60369e-13 -3.62907e-13 -2.53728e-13 0 0 -2.61919e-13 -5.77468e-13 1.92518e-14 -4.29616e-13 0 0 -1.36876e-13 -5.64204e-13 2.64168e-15 -2.93912e-13 0 0 -3.47892e-13 -2.03449e-14 -5.57012e-13 1.76242e-13 0 0 -4.77757e-13 1.96428e-13 -6.16107e-13 1.97214e-13 0 0 -1.77348e-13 -2.66949e-13 -1.60102e-13 -4.47545e-14 0 0 1.49693e-13 -7.78974e-13 3.21304e-13 -3.50614e-13 0 0 -1.20752e-13 -3.45466e-13 -7.37597e-14 -1.60501e-13 0 0 -5.85123e-13 3.93473e-13 -7.80703e-13 2.56948e-13 0 0 -3.03277e-13 -5.92894e-14 -2.67362e-13 -1.2709e-13 0 0 -2.07285e-13 -1.43205e-13 -9.46998e-14 -3.76443e-13 0 0 -6.27872e-14 -2.41286e-13 -3.65254e-14 -4.45267e-13 0 0 -6.25451e-14 -2.21947e-13 -1.23946e-13 -2.35988e-13 0 0 -6.69822e-13 6.22973e-13 -9.23427e-13 3.83348e-13 0 0 -2.06699e-13 -2.17546e-13 -5.4982e-14 -1.15022e-13 0 0 -1.82058e-13 -3.18517e-13 1.24585e-13 -3.22944e-13 0 0 -8.89284e-14 -3.27076e-13 -2.53052e-14 -2.8468e-13 0 0 -7.29575e-14 -3.00441e-13 -1.68512e-13 -1.96136e-13 0 0 -7.76821e-13 6.58383e-13 -1.01812e-12 3.65444e-13 0 0 -3.24902e-13 -1.37945e-13 -1.98101e-13 -5.51681e-14 0 0 -2.73464e-13 -2.86188e-13 3.93093e-15 -2.44287e-13 0 0 -1.11217e-13 -3.94969e-13 -4.1994e-14 -2.67746e-13 0 0 -1.18896e-13 -3.62989e-13 -1.98387e-13 -9.96412e-14 0 0 -8.83471e-13 6.67539e-13 -1.15148e-12 6.01111e-13 0 0 -3.4481e-13 -1.76967e-13 -2.52887e-13 -2.28724e-14 0 0 -3.78874e-13 -1.58959e-13 -8.58449e-14 -3.47698e-13 0 0 -2.80181e-13 -1.09283e-13 -2.72654e-13 -3.94477e-13 0 0 -1.9459e-13 -2.32804e-13 -3.32514e-13 -3.89928e-13 0 0 -9.62175e-13 6.80119e-13 -1.15632e-12 2.7494e-13 0 0 -2.63103e-13 -3.85293e-13 -2.86033e-13 -7.12611e-14 0 0 -1.73322e-13 -4.89151e-13 -1.47708e-13 -2.43945e-13 0 0 -4.55361e-13 -8.11381e-14 -4.2776e-13 -2.64714e-13 0 0 1.84094e-13 -1.19295e-12 5.50794e-13 -8.39298e-13 0 0 -9.02455e-13 2.55095e-13 -6.76319e-13 -8.79433e-15 0 0 -1.19373e-12 7.74346e-13 -1.00744e-12 2.28567e-13 0 0 1.8567e-13 -9.41384e-13 7.33293e-13 -8.35392e-13 0 0 -2.29738e-13 -1.64136e-13 2.79987e-13 -6.16717e-13 0 0 -2.10949e-13 -2.49921e-13 9.12325e-14 -1.47532e-13 0 0 -5.78066e-13 8.35706e-14 -5.68616e-13 6.53996e-13 0 0 -9.93283e-13 4.12455e-13 -6.89759e-13 6.63558e-13 0 0 -1.89668e-14 -9.797e-13 8.92131e-13 -5.64231e-13 0 0 -4.38511e-13 -2.34043e-13 4.162e-13 -4.36562e-13 0 0 -2.59125e-13 -4.52751e-13 2.60533e-13 9.14851e-14 0 0 -6.27964e-13 -6.29808e-15 -5.00243e-13 9.09421e-13 0 0 -8.66647e-13 1.4847e-13 -4.96588e-13 7.04967e-13 0 0 -5.00457e-13 -3.23448e-13 1.58473e-14 -8.7538e-14 0 0 -1.89962e-13 -4.61298e-13 -2.28595e-13 -2.49321e-13 0 0 -5.27871e-14 -6.33225e-13 -3.73074e-13 -2.27825e-13 0 0 -9.31276e-13 3.54923e-13 -1.0414e-12 -2.09519e-14 0 0 -7.52634e-13 -1.87429e-13 -1.90795e-13 -6.84731e-13 0 0 -3.51712e-13 -8.63978e-13 4.82964e-13 -1.18696e-12 0 0 4.84364e-14 -1.11958e-12 3.5636e-13 -1.20586e-12 0 0 -3.65433e-13 -9.24164e-14 -1.12097e-12 -8.9705e-14 0 0 -8.90905e-13 7.65403e-13 -2.06052e-12 6.67909e-13 0 0 -2.67217e-13 -4.48243e-13 -4.7641e-13 -5.67523e-13 0 0 -1.10537e-14 -1.10723e-12 4.57617e-13 -1.40115e-12 0 0 -2.24643e-13 -6.92795e-13 -4.74653e-14 -1.23374e-12 0 0 -6.28173e-13 1.22521e-14 -1.0689e-12 -2.86107e-13 0 0 -8.46112e-13 3.73052e-13 -1.94586e-12 1.0175e-12 0 0 -2.71932e-14 -8.48185e-13 -1.05742e-12 8.60843e-13 0 0 -3.2713e-13 -5.60546e-13 -9.31e-13 3.99724e-13 0 0 -6.35643e-13 -9.50045e-14 -8.4671e-13 -3.47369e-13 0 0 1.69567e-15 -1.19788e-12 5.11407e-13 -1.50745e-12 0 0 -7.34501e-13 -2.7478e-13 -2.62339e-13 -1.12604e-12 0 0 -5.29629e-13 -2.92966e-13 -6.42649e-13 -8.0803e-13 0 0 -4.81147e-13 -3.9566e-14 -1.19061e-12 -4.95231e-13 0 0 -5.07256e-13 -2.95024e-14 -1.10779e-12 -4.71323e-13 0 0 3.149e-14 -1.25198e-12 4.89258e-13 -1.26391e-12 0 0 -8.27198e-13 -2.76903e-13 -1.57833e-13 -7.24493e-13 0 0 -4.99534e-13 -4.10943e-13 -5.78777e-13 -2.52398e-13 0 0 -3.44678e-13 -1.85729e-13 -1.30272e-12 8.22882e-14 0 0 -5.08716e-13 -5.04334e-14 -1.27733e-12 -7.21145e-14 0 0 1.54651e-13 -1.40978e-12 3.98823e-13 -1.04634e-12 0 0 -5.79963e-13 -5.1598e-13 -9.59738e-14 -7.26383e-13 0 0 -4.29677e-13 -4.54365e-13 -4.93946e-13 -3.94082e-13 0 0 -3.19513e-13 -3.02436e-13 -1.06033e-12 -1.63403e-13 0 0 -5.12067e-13 -1.72886e-13 -8.8674e-13 -6.65969e-13 0 0 1.57209e-14 -1.37643e-12 6.91762e-13 -1.71221e-12 0 0 -7.63883e-13 -2.78839e-13 -1.56163e-13 -1.12123e-12 0 0 -5.62277e-13 -1.97015e-13 -4.96703e-13 -8.16756e-13 0 0 -9.25118e-13 3.18795e-13 -9.19219e-13 -5.85298e-13 0 0 -1.146e-12 2.39602e-13 -7.40167e-13 -5.68538e-13 0 0 3.58613e-13 -2.31806e-12 1.55634e-12 -1.61027e-12 0 0 -1.18634e-12 1.11061e-13 -6.87471e-13 -3.40229e-13 0 0 -1.95332e-12 1.62175e-12 -2.03931e-12 1.30507e-13 0 0 -2.73271e-13 -5.57241e-13 8.93418e-14 -1.41662e-12 0 0 -5.39164e-14 -8.79134e-13 4.75285e-13 -1.69168e-12 0 0 2.64019e-13 -1.52064e-12 8.28602e-13 -1.69202e-12 0 0 -1.08232e-12 7.03827e-13 -1.7591e-12 1.57792e-13 0 0 -1.32038e-12 1.1075e-12 -1.99502e-12 3.57167e-13 0 0 1.46086e-14 -1.25461e-12 9.45425e-13 -1.60704e-12 0 0 -2.34932e-13 -1.12626e-12 1.25453e-12 -1.90924e-12 0
				</DataArray>
				<DataArray Name="VitesseY" type="Float32" format="ascii">