<?xml version="1.0"?>
<VTKFile type="PolyData">
	<PolyData>
		<Piece NumberOfPoints="1206" NumberOfPolys="1000">
			<Points>
				<DataArray type="Float32" NumberOfComponents="3" format="ascii">
 0 0 0 0.02 0 0 0.04 0 0 0.06 0 0 0.08 0 0 0.1 0 0 0 0.005 0 0.02 0.005 0 0.04 0.005 0 0.06 0.005 0 0.08 0.005 0 0.1 0.005 0 0 0.01 0 0.02 0.01 0 0.04 0.01 0 0.06 0.01 0 0.08 0.01 0 0.1 0.01 0 0 0.015 0 0.02 0.015 0 0.04 0.015 0 0.06 0.015 0 0.08 0.015 0 0.1 0.015 0 0 0.02 0 0.02 0.02 0 0.04 0.02 0 0.06 0.02 0 0.08 0.02 0 0.1 0.02 0 0 0.025 0 0.02 0.025 0 0.04 0.025 0 0.06 0.025 0 0.08 0.025 0 0.1 0.025 0 0 0.03 0 0.02 0.03 0 0.04 0.03 0 0.06 0.03 0 0.08 0.03 0 0.1 0.03 0 0 0.035 0 0.02 0.035 0 0.04 0.035 0 0.06 0.035 0 0.08 0.035 0 0.1 0.035 0 0 0.04 0 0.02 0.04 0 0.04 0.04 0 0.06 0.04 0 0.08 0.04 0 0.1 0.04 0 0 0.045 0 0.02 0.045 0 0.04 0.045 0 0.06 0.045 0 0.08 0.045 0 0.1 0.045 0 0 0.05 0 0.02 0.05 0 0.04 0.05 0 0.06 0.05 0 0.08 0.05 0 0.1 0.05 0 0 0.055 0 0.02 0.055 0 0.04 0.055 0 0.06 0.055 0 0.08 0.055 0 0.1 0.055 0 0 0.06 0 0.02 0.06 0 0.04 0.06 0 0.06 0.06 0 0.08 0.06 0 0.1 0.06 0 0 0.065 0 0.02 0.065 0 0.04 0.065 0 0.06 0.065 0 0.08 0.065 0 0.1 0.065 0 0 0.07 0 0.02 0.07 0 0.04 0.07 0 0.06 0.07 0 0.08 0.07 0 0.1 0.07 0 0 0.075 0 0.02 0.075 0 0.04 0.075 0 0.06 0.075 0 0.08 0.075 0 0.1 0.075 0 0 0.08 0 0.02 0.08 0 0.04 0.08 0 0.06 0.08 0 0.08 0.08 0 0.1 0.08 0 0 0.085 0 0.02 0.085 0 0.04 0.085 0 0.06 0.085 0 0.08 0.085 0 0.1 0.085 0 0 0.09 0 0.02 0.09 0 0.04 0.09 0 0.06 0.09 0 0.08 0.09 0 0.1 0.09 0 0 0.095 0 0.02 0.095 0 0.04 0.095 0 0.06 0.095 0 0.08 0.095 0 0.1 0.095 0 0 0.1 0 0.02 0.1 0 0.04 0.1 0 0.06 0.1 0 0.08 0.1 0 0.1 0.1 0 0 0.105 0 0.02 0.105 0 0.04 0.105 0 0.06 0.105 0 0.08 0.105 0 0.1 0.105 0 0 0.11 0 0.02 0.11 0 0.04 0.11 0 0.06 0.11 0 0.08 0.11 0 0.1 0.11 0 0 0.115 0 0.02 0.115 0 0.04 0.115 0 0.06 0.115 0 0.08 0.115 0 0.1 0.115 0 0 0.12 0 0.02 0.12 0 0.04 0.12 0 0.06 0.12 0 0.08 0.12 0 0.1 0.12 0 0 0.125 0 0.02 0.125 0 0.04 0.125 0 0.06 0.125 0 0.08 0.125 0 0.1 0.125 0 0 0.13 0 0.02 0.13 0 0.04 0.13 0 0.06 0.13 0 0.08 0.13 0 0.1 0.13 0 0 0.135 0 0.02 0.135 0 0.04 0.135 0 0.06 0.135 0 0.08 0.135 0 0.1 0.135 0 0 0.14 0 0.02 0.14 0 0.04 0.14 0 0.06 0.14 0 0.08 0.14 0 0.1 0.14 0 0 0.145 0 0.02 0.145 0 0.04 0.145 0 0.06 0.145 0 0.08 0.145 0 0.1 0.145 0 0 0.15 0 0.02 0.15 0 0.04 0.15 0 0.06 0.15 0 0.08 0.15 0 0.1 0.15 0 0 0.155 0 0.02 0.155 0 0.04 0.155 0 0.06 0.155 0 0.08 0.155 0 0.1 0.155 0 0 0.16 0 0.02 0.16 0 0.04 0.16 0 0.06 0.16 0 0.08 0.16 0 0.1 0.16 0 0 0.165 0 0.02 0.165 0 0.04 0.165 0 0.06 0.165 0 0.08 0.165 0 0.1 0.165 0 0 0.17 0 0.02 0.17 0 0.04 0.17 0 0.06 0.17 0 0.08 0.17 0 0.1 0.17 0 0 0.175 0 0.02 0.175 0 0.04 0.175 0 0.06 0.175 0 0.08 0.175 0 0.1 0.175 0 0 0.18 0 0.02 0.18 0 0.04 0.18 0 0.06 0.18 0 0.08 0.18 0 0.1 0.18 0 0 0.185 0 0.02 0.185 0 0.04 0.185 0 0.06 0.185 0 0.08 0.185 0 0.1 0.185 0 0 0.19 0 0.02 0.19 0 0.04 0.19 0 0.06 0.19 0 0.08 0.19 0 0.1 0.19 0 0 0.195 0 0.02 0.195 0 0.04 0.195 0 0.06 0.195 0 0.08 0.195 0 0.1 0.195 0 0 0.2 0 0.02 0.2 0 0.04 0.2 0 0.06 0.2 0 0.08 0.2 0 0.1 0.2 0 0 0.205 0 0.02 0.205 0 0.04 0.205 0 0.06 0.205 0 0.08 0.205 0 0.1 0.205 0 0 0.21 0 0.02 0.21 0 0.04 0.21 0 0.06 0.21 0 0.08 0.21 0 0.1 0.21 0 0 0.215 0 0.02 0.215 0 0.04 0.215 0 0.06 0.215 0 0.08 0.215 0 0.1 0.215 0 0 0.22 0 0.02 0.22 0 0.04 0.22 0 0.06 0.22 0 0.08 0.22 0 0.1 0.22 0 0 0.225 0 0.02 0.225 0 0.04 0.225 0 0.06 0.225 0 0.08 0.225 0 0.1 0.225 0 0 0.23 0 0.02 0.23 0 0.04 0.23 0 0.06 0.23 0 0.08 0.23 0 0.1 0.23 0 0 0.235 0 0.02 0.235 0 0.04 0.235 0 0.06 0.235 0 0.08 0.235 0 0.1 0.235 0 0 0.24 0 0.02 0.24 0 0.04 0.24 0 0.06 0.24 0 0.08 0.24 0 0.1 0.24 0 0 0.245 0 0.02 0.245 0 0.04 0.245 0 0.06 0.245 0 0.08 0.245 0 0.1 0.245 0 0 0.25 0 0.02 0.25 0 0.04 0.25 0 0.06 0.25 0 0.08 0.25 0 0.1 0.25 0 0 0.255 0 0.02 0.255 0 0.04 0.255 0 0.06 0.255 0 0.08 0.255 0 0.1 0.255 0 0 0.26 0 0.02 0.26 0 0.04 0.26 0 0.06 0.26 0 0.08 0.26 0 0.1 0.26 0 0 0.265 0 0.02 0.265 0 0.04 0.265 0 0.06 0.265 0 0.08 0.265 0 0.1 0.265 0 0 0.27 0 0.02 0.27 0 0.04 0.27 0 0.06 0.27 0 0.08 0.27 0 0.1 0.27 0 0 0.275 0 0.02 0.275 0 0.04 0.275 0 0.06 0.275 0 0.08 0.275 0 0.1 0.275 0 0 0.28 0 0.02 0.28 0 0.04 0.28 0 0.06 0.28 0 0.08 0.28 0 0.1 0.28 0 0 0.285 0 0.02 0.285 0 0.04 0.285 0 0.06 0.285 0 0.08 0.285 0 0.1 0.285 0 0 0.29 0 0.02 0.29 0 0.04 0.29 0 0.06 0.29 0 0.08 0.29 0 0.1 0.29 0 0 0.295 0 0.02 0.295 0 0.04 0.295 0 0.06 0.295 0 0.08 0.295 0 0.1 0.295 0 0 0.3 0 0.02 0.3 0 0.04 0.3 0 0.06 0.3 0 0.08 0.3 0 0.1 0.3 0 0 0.305 0 0.02 0.305 0 0.04 0.305 0 0.06 0.305 0 0.08 0.305 0 0.1 0.305 0 0 0.31 0 0.02 0.31 0 0.04 0.31 0 0.06 0.31 0 0.08 0.31 0 0.1 0.31 0 0 0.315 0 0.02 0.315 0 0.04 0.315 0 0.06 0.315 0 0.08 0.315 0 0.1 0.315 0 0 0.32 0 0.02 0.32 0 0.04 0.32 0 0.06 0.32 0 0.08 0.32 0 0.1 0.32 0 0 0.325 0 0.02 0.325 0 0.04 0.325 0 0.06 0.325 0 0.08 0.325 0 0.1 0.325 0 0 0.33 0 0.02 0.33 0 0.04 0.33 0 0.06 0.33 0 0.08 0.33 0 0.1 0.33 0 0 0.335 0 0.02 0.335 0 0.04 0.335 0 0.06 0.335 0 0.08 0.335 0 0.1 0.335 0 0 0.34 0 0.02 0.34 0 0.04 0.34 0 0.06 0.34 0 0.08 0.34 0 0.1 0.34 0 0 0.345 0 0.02 0.345 0 0.04 0.345 0 0.06 0.345 0 0.08 0.345 0 0.1 0.345 0 0 0.35 0 0.02 0.35 0 0.04 0.35 0 0.06 0.35 0 0.08 0.35 0 0.1 0.35 0 0 0.355 0 0.02 0.355 0 0.04 0.355 0 0.06 0.355 0 0.08 0.355 0 0.1 0.355 0 0 0.36 0 0.02 0.36 0 0.04 0.36 0 0.06 0.36 0 0.08 0.36 0 0.1 0.36 0 0 0.365 0 0.02 0.365 0 0.04 0.365 0 0.06 0.365 0 0.08 0.365 0 0.1 0.365 0 0 0.37 0 0.02 0.37 0 0.04 0.37 0 0.06 0.37 0 0.08 0.37 0 0.1 0.37 0 0 0.375 0 0.02 0.375 0 0.04 0.375 0 0.06 0.375 0 0.08 0.375 0 0.1 0.375 0 0 0.38 0 0.02 0.38 0 0.04 0.38 0 0.06 0.38 0 0.08 0.38 0 0.1 0.38 0 0 0.385 0 0.02 0.385 0 0.04 0.385 0 0.06 0.385 0 0.08 0.385 0 0.1 0.385 0 0 0.39 0 0.02 0.39 0 0.04 0.39 0 0.06 0.39 0 0.08 0.39 0 0.1 0.39 0 0 0.395 0 0.02 0.395 0 0.04 0.395 0 0.06 0.395 0 0.08 0.395 0 0.1 0.395 0 0 0.4 0 0.02 0.4 0 0.04 0.4 0 0.06 0.4 0 0.08 0.4 0 0.1 0.4 0 0 0.405 0 0.02 0.405 0 0.04 0.405 0 0.06 0.405 0 0.08 0.405 0 0.1 0.405 0 0 0.41 0 0.02 0.41 0 0.04 0.41 0 0.06 0.41 0 0.08 0.41 0 0.1 0.41 0 0 0.415 0 0.02 0.415 0 0.04 0.415 0 0.06 0.415 0 0.08 0.415 0 0.1 0.415 0 0 0.42 0 0.02 0.42 0 0.04 0.42 0 0.06 0.42 0 0.08 0.42 0 0.1 0.42 0 0 0.425 0 0.02 0.425 0 0.04 0.425 0 0.06 0.425 0 0.08 0.425 0 0.1 0.425 0 0 0.43 0 0.02 0.43 0 0.04 0.43 0 0.06 0.43 0 0.08 0.43 0 0.1 0.43 0 0 0.435 0 0.02 0.435 0 0.04 0.435 0 0.06 0.435 0 0.08 0.435 0 0.1 0.435 0 0 0.44 0 0.02 0.44 0 0.04 0.44 0 0.06 0.44 0 0.08 0.44 0 0.1 0.44 0 0 0.445 0 0.02 0.445 0 0.04 0.445 0 0.06 0.445 0 0.08 0.445 0 0.1 0.445 0 0 0.45 0 0.02 0.45 0 0.04 0.45 0 0.06 0.45 0 0.08 0.45 0 0.1 0.45 0 0 0.455 0 0.02 0.455 0 0.04 0.455 0 0.06 0.455 0 0.08 0.455 0 0.1 0.455 0 0 0.46 0 0.02 0.46 0 0.04 0.46 0 0.06 0.46 0 0.08 0.46 0 0.1 0.46 0 0 0.465 0 0.02 0.465 0 0.04 0.465 0 0.06 0.465 0 0.08 0.465 0 0.1 0.465 0 0 0.47 0 0.02 0.47 0 0.04 0.47 0 0.06 0.47 0 0.08 0.47 0 0.1 0.47 0 0 0.475 0 0.02 0.475 0 0.04 0.475 0 0.06 0.475 0 0.08 0.475 0 0.1 0.475 0 0 0.48 0 0.02 0.48 0 0.04 0.48 0 0.06 0.48 0 0.08 0.48 0 0.1 0.48 0 0 0.485 0 0.02 0.485 0 0.04 0.485 0 0.06 0.485 0 0.08 0.485 0 0.1 0.485 0 0 0.49 0 0.02 0.49 0 0.04 0.49 0 0.06 0.49 0 0.08 0.49 0 0.1 0.49 0 0 0.495 0 0.02 0.495 0 0.04 0.495 0 0.06 0.495 0 0.08 0.495 0 0.1 0.495 0 0 0.5 0 0.02 0.5 0 0.04 0.5 0 0.06 0.5 0 0.08 0.5 0 0.1 0.5 0 0 0.505 0 0.02 0.505 0 0.04 0.505 0 0.06 0.505 0 0.08 0.505 0 0.1 0.505 0 0 0.51 0 0.02 0.51 0 0.04 0.51 0 0.06 0.51 0 0.08 0.51 0 0.1 0.51 0 0 0.515 0 0.02 0.515 0 0.04 0.515 0 0.06 0.515 0 0.08 0.515 0 0.1 0.515 0 0 0.52 0 0.02 0.52 0 0.04 0.52 0 0.06 0.52 0 0.08 0.52 0 0.1 0.52 0 0 0.525 0 0.02 0.525 0 0.04 0.525 0 0.06 0.525 0 0.08 0.525 0 0.1 0.525 0 0 0.53 0 0.02 0.53 0 0.04 0.53 0 0.06 0.53 0 0.08 0.53 0 0.1 0.53 0 0 0.535 0 0.02 0.535 0 0.04 0.535 0 0.06 0.535 0 0.08 0.535 0 0.1 0.535 0 0 0.54 0 0.02 0.54 0 0.04 0.54 0 0.06 0.54 0 0.08 0.54 0 0.1 0.54 0 0 0.545 0 0.02 0.545 0 0.04 0.545 0 0.06 0.545 0 0.08 0.545 0 0.1 0.545 0 0 0.55 0 0.02 0.55 0 0.04 0.55 0 0.06 0.55 0 0.08 0.55 0 0.1 0.55 0 0 0.555 0 0.02 0.555 0 0.04 0.555 0 0.06 0.555 0 0.08 0.555 0 0.1 0.555 0 0 0.56 0 0.02 0.56 0 0.04 0.56 0 0.06 0.56 0 0.08 0.56 0 0.1 0.56 0 0 0.565 0 0.02 0.565 0 0.04 0.565 0 0.06 0.565 0 0.08 0.565 0 0.1 0.565 0 0 0.57 0 0.02 0.57 0 0.04 0.57 0 0.06 0.57 0 0.08 0.57 0 0.1 0.57 0 0 0.575 0 0.02 0.575 0 0.04 0.575 0 0.06 0.575 0 0.08 0.575 0 0.1 0.575 0 0 0.58 0 0.02 0.58 0 0.04 0.58 0 0.06 0.58 0 0.08 0.58 0 0.1 0.58 0 0 0.585 0 0.02 0.585 0 0.04 0.585 0 0.06 0.585 0 0.08 0.585 0 0.1 0.585 0 0 0.59 0 0.02 0.59 0 0.04 0.59 0 0.06 0.59 0 0.08 0.59 0 0.1 0.59 0 0 0.595 0 0.02 0.595 0 0.04 0.595 0 0.06 0.595 0 0.08 0.595 0 0.1 0.595 0 0 0.6 0 0.02 0.6 0 0.04 0.6 0 0.06 0.6 0 0.08 0.6 0 0.1 0.6 0 0 0.605 0 0.02 0.605 0 0.04 0.605 0 0.06 0.605 0 0.08 0.605 0 0.1 0.605 0 0 0.61 0 0.02 0.61 0 0.04 0.61 0 0.06 0.61 0 0.08 0.61 0 0.1 0.61 0 0 0.615 0 0.02 0.615 0 0.04 0.615 0 0.06 0.615 0 0.08 0.615 0 0.1 0.615 0 0 0.62 0 0.02 0.62 0 0.04 0.62 0 0.06 0.62 0 0.08 0.62 0 0.1 0.62 0 0 0.625 0 0.02 0.625 0 0.04 0.625 0 0.06 0.625 0 0.08 0.625 0 0.1 0.625 0 0 0.63 0 0.02 0.63 0 0.04 0.63 0 0.06 0.63 0 0.08 0.63 0 0.1 0.63 0 0 0.635 0 0.02 0.635 0 0.04 0.635 0 0.06 0.635 0 0.08 0.635 0 0.1 0.635 0 0 0.64 0 0.02 0.64 0 0.04 0.64 0 0.06 0.64 0 0.08 0.64 0 0.1 0.64 0 0 0.645 0 0.02 0.645 0 0.04 0.645 0 0.06 0.645 0 0.08 0.645 0 0.1 0.645 0 0 0.65 0 0.02 0.65 0 0.04 0.65 0 0.06 0.65 0 0.08 0.65 0 0.1 0.65 0 0 0.655 0 0.02 0.655 0 0.04 0.655 0 0.06 0.655 0 0.08 0.655 0 0.1 0.655 0 0 0.66 0 0.02 0.66 0 0.04 0.66 0 0.06 0.66 0 0.08 0.66 0 0.1 0.66 0 0 0.665 0 0.02 0.665 0 0.04 0.665 0 0.06 0.665 0 0.08 0.665 0 0.1 0.665 0 0 0.67 0 0.02 0.67 0 0.04 0.67 0 0.06 0.67 0 0.08 0.67 0 0.1 0.67 0 0 0.675 0 0.02 0.675 0 0.04 0.675 0 0.06 0.675 0 0.08 0.675 0 0.1 0.675 0 0 0.68 0 0.02 0.68 0 0.04 0.68 0 0.06 0.68 0 0.08 0.68 0 0.1 0.68 0 0 0.685 0 0.02 0.685 0 0.04 0.685 0 0.06 0.685 0 0.08 0.685 0 0.1 0.685 0 0 0.69 0 0.02 0.69 0 0.04 0.69 0 0.06 0.69 0 0.08 0.69 0 0.1 
[...]
			<PointData Scalars="VitesseX">
				<DataArray Name="VitesseX" type="Float32" format="ascii">
 0 1.43461e-15 5.73866e-14 4.69978e-14 7.18293e-16 0 0 1.29748e-14 4.52855e-14 4.78017e-14 3.26588e-15 0 0 2.32229e-14 3.8176e-14 3.13936e-14 1.94575e-14 0 0 3.69882e-14 1.62099e-14 3.19343e-14 2.21703e-14 0 0 3.68816e-14 7.37739e-15 2.71621e-14 2.15421e-14 0 0 1.64131e-14 2.66149e-14 4.95915e-15 2.93274e-14 0 0 2.33501e-15 4.00363e-14 -4.65124e-15 3.06139e-14 0 0 4.03646e-15 3.10222e-14 7.44852e-15 2.5832e-14 0 0 8.97292e-15 1.985e-14 1.51615e-14 3.1221e-14 0 0 1.20162e-14 1.62121e-14 1.08803e-14 3.50218e-14 0 0 2.11528e-14 -1.50649e-15 3.5115e-14 1.01597e-14 0 0 -1.54859e-15 2.54796e-14 2.67394e-14 6.96372e-15 0 0 1.76498e-14 -1.08177e-14 6.82583e-14 -1.56804e-14 0 0 1.16857e-15 2.02854e-14 3.79681e-14 2.78414e-15 0 0 -2.56193e-14 7.01437e-14 -1.51946e-14 4.19755e-14 0 0 1.92549e-15 2.5754e-14 2.77137e-14 3.58143e-14 0 0 1.34842e-14 1.30373e-14 4.47512e-14 4.8213e-14 0 0 3.08649e-14 7.60611e-15 6.15664e-14 5.50509e-14 0 0 1.22547e-14 6.88549e-14 5.91665e-15 9.86809e-14 0 0 1.85589e-14 7.98358e-14 -5.17695e-15 1.12243e-13 0 0 3.49763e-14 3.56094e-14 7.33759e-14 4.95317e-14 0 0 7.82457e-15 8.94131e-14 2.12144e-14 5.72845e-14 0 0 3.9556e-14 5.71513e-14 4.51811e-14 2.06039e-14 0 0 7.25672e-14 -4.85885e-16 1.32823e-13 -6.26812e-14 0 0 2.01158e-14 8.53291e-14 6.63305e-14 -4.79493e-14 0 0 5.402e-16 1.34748e-13 -8.47257e-15 -5.36634e-15 0 0 4.75606e-14 7.67563e-14 1.81961e-14 -1.56664e-14 0 0 3.36864e-14 7.90231e-14 3.76034e-14 -4.12251e-14 0 0 2.58057e-14 8.47824e-14 3.8531e-14 -4.21855e-14 0 0 5.2923e-14 4.47226e-14 4.26527e-14 -1.29717e-14 0 0 2.22006e-14 8.21631e-14 -2.40573e-14 5.3162e-14 0 0 4.13784e-14 5.27992e-14 2.00728e-14 9.6018e-15 0 0 7.29634e-14 1.87774e-14 7.26031e-14 -2.38739e-14 0 0 6.53699e-14 4.49223e-14 4.99383e-14 2.86637e-14 0 0 4.07938e-15 1.65051e-13 -6.82361e-14 1.28985e-13 0 0 1.33475e-14 1.46017e-13 -2.04897e-14 9.15568e-14 0 0 5.26593e-14 6.4456e-14 1.01162e-13 1.92003e-14 0 0 4.58147e-14 7.58729e-14 1.00088e-13 6.62151e-14 0 0 1.27214e-13 -4.19053e-14 2.17471e-13 -3.41536e-16 0 0 8.37288e-14 6.36674e-14 1.02612e-13 4.97426e-14 0 0 2.85912e-14 1.63413e-13 -1.66448e-14 1.19076e-13 0 0 3.89357e-15 1.22261e-13 7.07584e-14 2.93187e-14 0 0 -1.03311e-13 2.30271e-13 1.3255e-14 2.66013e-14 0 0 -1.08919e-13 2.58007e-13 -4.91728e-14 5.08911e-14 0 0 -6.55832e-14 1.64193e-13 2.98421e-14 1.20291e-14 0 0 -2.14306e-14 8.46751e-15 2.36198e-13 -9.41925e-14 0 0 7.51428e-14 -1.64229e-13 3.94018e-13 -1.67955e-13 0 0 -3.28053e-14 4.49358e-14 1.60867e-13 -3.1796e-14 0 0 -1.93243e-13 2.8915e-13 -1.07999e-14 3.8735e-14 0 0 -2.00502e-13 2.92218e-13 -4.20613e-15 5.19136e-14 0 0 -2.15412e-13 3.21204e-13 -3.88504e-14 8.63626e-14 0 0 -1.5504e-13 2.588e-13 3.45285e-14 2.76622e-14 0 0 -7.40916e-14 2.05024e-13 2.43205e-14 7.13161e-14 0 0 -6.77682e-16 4.66086e-14 2.02214e-13 1.44013e-14 0 0 -1.42461e-13 1.67392e-13 2.04087e-13 2.47729e-14 0 0 -2.30343e-13 3.60567e-13 -7.19916e-14 2.62311e-13 0 0 1.03417e-14 4.4344e-14 1.64918e-13 1.46447e-13 0 0 4.52328e-14 -2.66939e-14 2.78483e-13 4.5704e-14 0 0 -5.8158e-14 1.64379e-13 4.65818e-14 2.1178e-13 0 0 -7.6423e-14 2.48404e-13 -4.35343e-14 2.22417e-13 0 0 -4.05205e-14 1.8752e-13 6.6183e-14 8.10901e-14 0 0 4.59873e-14 4.10958e-14 2.40231e-13 -7.20019e-14 0 0 2.14232e-14 1.75811e-13 7.61583e-14 1.17622e-14 0 0 4.04828e-14 2.48724e-13 3.51604e-15 6.01101e-14 0 0 7.85759e-14 2.13498e-13 5.59135e-14 6.4632e-14 0 0 8.3379e-14 1.56106e-13 1.45373e-13 1.05267e-13 0 0 2.03956e-13 -7.82416e-14 4.2658e-13 2.35491e-16 0 0 7.57521e-14 1.74988e-13 2.0819e-13 1.51657e-13 0 0 -1.06998e-13 5.0295e-13 -5.81518e-14 2.86279e-13 0 0 -2.20336e-14 3.50404e-13 2.03605e-13 6.51817e-14 0 0 -2.88355e-14 2.84629e-13 3.49697e-13 -1.13018e-14 0 0 -7.49789e-14 2.39878e-13 3.80806e-13 6.69871e-14 0 0 -2.55133e-13 4.54612e-13 1.90288e-13 2.96415e-13 0 0 -3.15307e-13 3.95034e-13 3.32257e-13 2.98734e-13 0 0 -2.80535e-13 3.10281e-13 4.15491e-13 2.98118e-13 0 0 -1.86569e-13 2.39696e-13 4.12346e-13 2.74523e-13 0 0 -1.40606e-13 1.54031e-13 5.31507e-13 4.70802e-14 0 0 -3.85386e-13 6.4925e-13 9.82281e-14 2.68051e-13 0 0 -1.05722e-13 2.47924e-13 3.69443e-13 3.10224e-13 0 0 -3.21573e-13 4.25289e-13 3.31617e-13 3.55504e-13 0 0 -5.57332e-13 7.68101e-13 3.59815e-13 1.49161e-13 0 0 1.08866e-13 6.3684e-14 1.02848e-12 -2.98929e-13 0 0 4.04559e-13 1.40131e-13 7.1631e-13 -8.63197e-14 0 0 2.87921e-13 4.94257e-13 1.21596e-13 3.27621e-13 0 0 4.02889e-13 5.08454e-13 2.88205e-14 3.27837e-13 0 0 3.76202e-13 4.88116e-13 2.16777e-13 4.26757e-14 0 0 3.11498e-13 6.2493e-13 1.78539e-13 -1.40011e-13 0 0 3.21415e-13 5.64863e-13 3.49423e-13 -3.66577e-13 0 0 4.08786e-13 4.49476e-13 4.45866e-13 -3.4392e-13 0 0 3.53942e-13 5.58876e-13 3.69304e-13 -2.35312e-13 0 0 1.58525e-13 9.21217e-13 -4.72264e-15 1.06657e-13 0 0 2.19012e-13 9.45363e-13 -3.31646e-13 5.39171e-13 0 0 4.19702e-13 8.07714e-13 -3.24989e-13 6.35787e-13 0 0 6.62645e-13 5.31521e-13 -1.07755e-13 5.06087e-13 0 0 9.50426e-13 3.46294e-14 3.63554e-13 1.88564e-13 0 0 9.44934e-13 -1.98568e-13 7.11477e-13 -6.04133e-14 0 0 8.43356e-13 -1.57427e-13 7.15729e-13 -5.29981e-14 0 0 6.29487e-13 6.42605e-14 5.36195e-13 8.11661e-14 0 0 2.88857e-13 5.21345e-13 1.8642e-13 2.9993e-13 0 0 -1.64109e-13 1.10934e-12 -2.86205e-13 3.84991e-13 0 0 -3.18734e-13 1.27802e-12 -4.1427e-13 3.18459e-13 0 0 -2.25034e-13 1.13032e-12 -2.64905e-13 8.246e-14 0 0 1.50896e-13 5.90681e-13 2.18395e-13 -3.04408e-13 0 0 6.04864e-13 -1.67656e-14 7.25418e-13 -4.56024e-13 0 0 7.49841e-13 -1.19272e-13 7.31479e-13 -3.58897e-13 0 0 7.24831e-13 -5.45443e-14 5.93061e-13 -1.23968e-13 0 0 4.72822e-13 1.14977e-13 5.50461e-13 -5.0411e-14 0 0 3.81287e-14 3.53111e-13 5.31595e-13 -8.53059e-14 0 0 -1.7747e-13 4.68392e-13 4.91137e-13 -1.04705e-13 0 0 -2.14476e-13 4.46406e-13 5.17444e-13 -9.78143e-14 0 0 -1.98343e-13 3.88048e-13 5.20745e-13 -9.38065e-14 0 0 -1.21142e-13 3.90602e-13 3.932e-13 -2.79113e-15 0 0 -2.22885e-14 4.14593e-13 1.74989e-13 1.54927e-13 0 0 7.02077e-14 4.15119e-13 6.73831e-14 2.77283e-13 0 0 1.11299e-13 3.87195e-13 7.38559e-14 2.87854e-13 0 0 1.2191e-13 3.17784e-13 1.9822e-13 1.79296e-13 0 0 1.14882e-13 2.5261e-13 2.79611e-13 1.93971e-13 0 0 9.48724e-14 1.80005e-13 3.38036e-13 2.70332e-13 0 0 4.74573e-14 1.54008e-13 3.69985e-13 3.47333e-13 0 0 -5.6654e-15 1.79483e-13 3.6814e-13 3.9148e-13 0 0 -5.77986e-15 1.61902e-13 3.77071e-13 4.15115e-13 0 0 3.36253e-14 1.07965e-13 4.25218e-13 3.62543e-13 0 0 7.1451e-14 1.25512e-13 3.88333e-13 3.25429e-13 0 0 5.43653e-14 2.19157e-13 2.5103e-13 3.28484e-13 0 0 7.30787e-14 2.39938e-13 2.19417e-13 2.64356e-13 0 0 1.04954e-13 2.18095e-13 2.69354e-13 1.10322e-13 0 0 9.65873e-14 2.38747e-13 2.3673e-13 2.91003e-14 0 0 9.37433e-14 2.28244e-13 2.27708e-13 4.90908e-14 0 0 8.12989e-14 2.07857e-13 2.27521e-13 9.42918e-14 0 0 5.80498e-14 2.13087e-13 2.25072e-13 7.19732e-14 0 0 6.87376e-14 1.66697e-13 3.33512e-13 4.88584e-15 0 0 1.03631e-13 1.22354e-13 4.4222e-13 2.66793e-14 0 0 8.3378e-14 2.04654e-13 4.40793e-13 -4.20972e-15 0 0 5.14028e-14 3.62751e-13 3.62416e-13 1.16122e-13 0 0 9.73815e-14 4.58283e-13 2.94475e-13 3.48791e-13 0 0 1.70432e-13 4.67825e-13 3.81686e-13 2.00882e-13 0 0 1.85757e-13 5.10783e-13 4.02458e-13 2.29331e-13 0 0 2.14978e-13 5.73556e-13 3.6385e-13 2.98904e-13 0 0 2.76832e-13 5.24866e-13 4.8739e-13 1.09372e-13 0 0 2.6909e-13 5.34005e-13 5.22126e-13 8.01127e-14 0 0 3.25401e-13 4.71399e-13 5.56036e-13 1.22826e-14 0 0 4.07434e-13 3.79135e-13 5.83796e-13 5.66528e-14 0 0 2.57261e-13 6.32046e-13 2.6805e-13 3.75603e-13 0 0 2.50804e-13 6.30528e-13 2.18681e-13 4.35278e-13 0 0 4.01329e-13 3.93932e-13 4.15943e-13 2.7233e-13 0 0 3.60102e-13 4.80734e-13 3.12824e-13 2.45386e-13 0 0 3.59783e-13 4.98938e-13 2.61542e-13 3.22823e-13 0 0 2.68012e-13 6.38726e-13 1.09536e-13 4.49487e-13 0 0 2.13266e-13 7.11254e-13 7.76402e-14 4.21805e-13 0 0 4.69381e-13 2.42241e-13 5.79777e-13 1.55204e-13 0 0 4.83113e-13 1.48586e-13 6.77716e-13 1.57557e-13 0 0 2.32275e-13 5.30279e-13 2.87403e-13 3.91944e-13 0 0 2.05271e-13 6.22629e-13 1.53234e-13 5.16658e-13 0 0 3.2222e-13 5.07836e-13 2.46688e-13 4.78232e-13 0 0 4.11108e-13 4.46138e-13 3.60642e-13 2.9092e-13 0 0 4.10139e-13 4.59389e-13 5.37798e-13 9.54281e-14 0 0 2.87689e-13 6.47964e-13 5.11399e-13 1.43653e-13 0 0 1.61707e-13 9.07301e-13 2.62146e-13 3.04822e-13 0 0 3.49345e-13 7.34223e-13 4.20221e-13 1.87561e-13 0 0 5.20191e-13 5.53669e-13 5.46648e-13 1.99591e-13 0 0 4.85072e-13 6.54173e-13 3.18238e-13 3.89984e-13 0 0 2.78106e-13 1.02172e-12 -7.79897e-14 6.37701e-13 0 0 1.64455e-13 1.16737e-12 -1.37371e-13 6.50872e-13 0 0 6.08338e-13 4.87593e-13 5.32827e-13 1.97098e-13 0 0 6.98732e-13 3.99159e-13 6.52032e-13 9.58372e-14 0 0 4.30213e-13 7.95786e-13 3.2123e-13 2.84178e-13 0 0 4.49921e-13 7.54218e-13 3.4242e-13 2.34148e-13 0 0 4.45161e-13 6.81832e-13 4.75919e-13 2.88268e-14 0 0 4.01695e-13 6.15672e-13 6.10733e-13 -9.38449e-14 0 0 3.89433e-13 6.53435e-13 4.43514e-13 4.62787e-14 0 0 4.49934e-13 5.72729e-13 4.27027e-13 9.70204e-14 0 0 5.08025e-13 4.52138e-13 5.81076e-13 5.36636e-14 0 0 4.94448e-13 5.46904e-13 4.4283e-13 2.04739e-13 0 0 3.22275e-13 7.88512e-13 2.49406e-13 3.27911e-13 0 0 2.70834e-13 8.34753e-13 2.65396e-13 3.14666e-13 0 0 4.10763e-13 6.044e-13 4.91683e-13 2.00702e-13 0 0 5.76652e-13 2.67314e-13 6.49055e-13 2.29967e-13 0 0 6.12626e-13 2.19486e-13 5.42416e-13 3.17676e-13 0 0 3.13021e-13 6.53204e-13 3.11682e-13 2.89615e-13 0 0 8.56406e-14 8.59946e-13 2.80969e-13 2.08109e-13 0 0 2.59134e-13 4.6557e-13 7.38301e-13 -1.01763e-13 0 0 5.12549e-13 1.48222e-13 8.11899e-13 6.1506e-14 0 0 4.87766e-13 3.70505e-13 1.9465e-13 6.27014e-13 0 0 3.16641e-13 6.6369e-13 1.27316e-14 5.82181e-13 0 0 9.45498e-14 8.75485e-13 1.00894e-13 3.63345e-13 0 0 9.84326e-14 7.50591e-13 2.71831e-13 2.88089e-13 0 0 4.34929e-13 1.73187e-13 8.31345e-13 1.7183e-14 0 0 5.37019e-13 1.54892e-13 8.56564e-13 -2.0012e-14 0 0 3.88964e-13 4.79922e-13 6.06758e-13 6.16747e-14 0 0 4.92182e-14 9.89109e-13 3.04598e-14 4.31946e-13 0 0 1.23686e-13 7.37657e-13 1.34137e-13 5.14722e-13 0 0 5.13627e-13 -3.95699e-14 1.10178e-12 -5.09332e-14 0 0 1.35117e-13 5.27727e-13 7.38251e-13 7.96963e-14 0 0 1.07159e-13 8.22126e-13 1.80002e-14 6.33148e-13 0 0 4.25437e-13 5.3313e-13 -3.82628e-14 7.83137e-13 0 0 6.46849e-13 1.0002e-13 6.35034e-13 3.02483e-13 0 0 6.07578e-13 8.85937e-14 9.83745e-13 -6.59593e-14 0 0 -1.10209e-13 1.16094e-12 -4.14088e-14 5.43438e-13 0 0 1.45705e-14 9.42797e-13 -9.84569e-14 7.76267e-13 0 0 8.25234e-13 -4.04238e-13 1.06708e-12 2.50875e-13 0 0 1.08793e-12 -8.69697e-13 1.48826e-12 6.06474e-14 0
				</DataArray>
				<DataArray Name="VitesseY" type="Float32" format="ascii">