<?xml version="1.0"?>
<VTKFile type="PolyData">
	<PolyData>
		<Piece NumberOfPoints="1206" NumberOfPolys="1000">
			<Points>
				<DataArray type="Float32" NumberOfComponents="3" format="ascii">
 0 0 0 0.02 0 0 0.04 0 0 0.06 0 0 0.08 0 0 0.1 0 0 0 0.005 0 0.02 0.005 0 0.04 0.005 0 0.06 0.005 0 0.08 0.005 0 0.1 0.005 0 0 0.01 0 0.02 0.01 0 0.04 0.01 0 0.06 0.01 0 0.08 0.01 0 0.1 0.01 0 0 0.015 0 0.02 0.015 0 0.04 0.015 0 0.06 0.015 0 0.08 0.015 0 0.1 0.015 0 0 0.02 0 0.02 0.02 0 0.04 0.02 0 0.06 0.02 0 0.08 0.02 0 0.1 0.02 0 0 0.025 0 0.02 0.025 0 0.04 0.025 0 0.06 0.025 0 0.08 0.025 0 0.1 0.025 0 0 0.03 0 0.02 0.03 0 0.04 0.03 0 0.06 0.03 0 0.08 0.03 0 0.1 0.03 0 0 0.035 0 0.02 0.035 0 0.04 0.035 0 0.06 0.035 0 0.08 0.035 0 0.1 0.035 0 0 0.04 0 0.02 0.04 0 0.04 0.04 0 0.06 0.04 0 0.08 0.04 0 0.1 0.04 0 0 0.045 0 0.02 0.045 0 0.04 0.045 0 0.06 0.045 0 0.08 0.045 0 0.1 0.045 0 0 0.05 0 0.02 0.05 0 0.04 0.05 0 0.06 0.05 0 0.08 0.05 0 0.1 0.05 0 0 0.055 0 0.02 0.055 0 0.04 0.055 0 0.06 0.055 0 0.08 0.055 0 0.1 0.055 0 0 0.06 0 0.02 0.06 0 0.04 0.06 0 0.06 0.06 0 0.08 0.06 0 0.1 0.06 0 0 0.065 0 0.02 0.065 0 0.04 0.065 0 0.06 0.065 0 0.08 0.065 0 0.1 0.065 0 0 0.07 0 0.02 0.07 0 0.04 0.07 0 0.06 0.07 0 0.08 0.07 0 0.1 0.07 0 0 0.075 0 0.02 0.075 0 0.04 0.075 0 0.06 0.075 0 0.08 0.075 0 0.1 0.075 0 0 0.08 0 0.02 0.08 0 0.04 0.08 0 0.06 0.08 0 0.08 0.08 0 0.1 0.08 0 0 0.085 0 0.02 0.085 0 0.04 0.085 0 0.06 0.085 0 0.08 0.085 0 0.1 0.085 0 0 0.09 0 0.02 0.09 0 0.04 0.09 0 0.06 0.09 0 0.08 0.09 0 0.1 0.09 0 0 0.095 0 0.02 0.095 0 0.04 0.095 0 0.06 0.095 0 0.08 0.095 0 0.1 0.095 0 0 0.1 0 0.02 0.1 0 0.04 0.1 0 0.06 0.1 0 0.08 0.1 0 0.1 0.1 0 0 0.105 0 0.02 0.105 0 0.04 0.105 0 0.06 0.105 0 0.08 0.105 0 0.1 0.105 0 0 0.11 0 0.02 0.11 0 0.04 0.11 0 0.06 0.11 0 0.08 0.11 0 0.1 0.11 0 0 0.115 0 0.02 0.115 0 0.04 0.115 0 0.06 0.115 0 0.08 0.115 0 0.1 0.115 0 0 0.12 0 0.02 0.12 0 0.04 0.12 0 0.06 0.12 0 0.08 0.12 0 0.1 0.12 0 0 0.125 0 0.02 0.125 0 0.04 0.125 0 0.06 0.125 0 0.08 0.125 0 0.1 0.125 0 0 0.13 0 0.02 0.13 0 0.04 0.13 0 0.06 0.13 0 0.08 0.13 0 0.1 0.13 0 0 0.135 0 0.02 0.135 0 0.04 0.135 0 0.06 0.135 0 0.08 0.135 0 0.1 0.135 0 0 0.14 0 0.02 0.14 0 0.04 0.14 0 0.06 0.14 0 0.08 0.14 0 0.1 0.14 0 0 0.145 0 0.02 0.145 0 0.04 0.145 0 0.06 0.145 0 0.08 0.145 0 0.1 0.145 0 0 0.15 0 0.02 0.15 0 0.04 0.15 0 0.06 0.15 0 0.08 0.15 0 0.1 0.15 0 0 0.155 0 0.02 0.155 0 0.04 0.155 0 0.06 0.155 0 0.08 0.155 0 0.1 0.155 0 0 0.16 0 0.02 0.16 0 0.04 0.16 0 0.06 0.16 0 0.08 0.16 0 0.1 0.16 0 0 0.165 0 0.02 0.165 0 0.04 0.165 0 0.06 0.165 0 0.08 0.165 0 0.1 0.165 0 0 0.17 0 0.02 0.17 0 0.04 0.17 0 0.06 0.17 0 0.08 0.17 0 0.1 0.17 0 0 0.175 0 0.02 0.175 0 0.04 0.175 0 0.06 0.175 0 0.08 0.175 0 0.1 0.175 0 0 0.18 0 0.02 0.18 0 0.04 0.18 0 0.06 0.18 0 0.08 0.18 0 0.1 0.18 0 0 0.185 0 0.02 0.185 0 0.04 0.185 0 0.06 0.185 0 0.08 0.185 0 0.1 0.185 0 0 0.19 0 0.02 0.19 0 0.04 0.19 0 0.06 0.19 0 0.08 0.19 0 0.1 0.19 0 0 0.195 0 0.02 0.195 0 0.04 0.195 0 0.06 0.195 0 0.08 0.195 0 0.1 0.195 0 0 0.2 0 0.02 0.2 0 0.04 0.2 0 0.06 0.2 0 0.08 0.2 0 0.1 0.2 0 0 0.205 0 0.02 0.205 0 0.04 0.205 0 0.06 0.205 0 0.08 0.205 0 0.1 0.205 0 0 0.21 0 0.02 0.21 0 0.04 0.21 0 0.06 0.21 0 0.08 0.21 0 0.1 0.21 0 0 0.215 0 0.02 0.215 0 0.04 0.215 0 0.06 0.215 0 0.08 0.215 0 0.1 0.215 0 0 0.22 0 0.02 0.22 0 0.04 0.22 0 0.06 0.22 0 0.08 0.22 0 0.1 0.22 0 0 0.225 0 0.02 0.225 0 0.04 0.225 0 0.06 0.225 0 0.08 0.225 0 0.1 0.225 0 0 0.23 0 0.02 0.23 0 0.04 0.23 0 0.06 0.23 0 0.08 0.23 0 0.1 0.23 0 0 0.235 0 0.02 0.235 0 0.04 0.235 0 0.06 0.235 0 0.08 0.235 0 0.1 0.235 0 0 0.24 0 0.02 0.24 0 0.04 0.24 0 0.06 0.24 0 0.08 0.24 0 0.1 0.24 0 0 0.245 0 0.02 0.245 0 0.04 0.245 0 0.06 0.245 0 0.08 0.245 0 0.1 0.245 0 0 0.25 0 0.02 0.25 0 0.04 0.25 0 0.06 0.25 0 0.08 0.25 0 0.1 0.25 0 0 0.255 0 0.02 0.255 0 0.04 0.255 0 0.06 0.255 0 0.08 0.255 0 0.1 0.255 0 0 0.26 0 0.02 0.26 0 0.04 0.26 0 0.06 0.26 0 0.08 0.26 0 0.1 0.26 0 0 0.265 0 0.02 0.265 0 0.04 0.265 0 0.06 0.265 0 0.08 0.265 0 0.1 0.265 0 0 0.27 0 0.02 0.27 0 0.04 0.27 0 0.06 0.27 0 0.08 0.27 0 0.1 0.27 0 0 0.275 0 0.02 0.275 0 0.04 0.275 0 0.06 0.275 0 0.08 0.275 0 0.1 0.275 0 0 0.28 0 0.02 0.28 0 0.04 0.28 0 0.06 0.28 0 0.08 0.28 0 0.1 0.28 0 0 0.285 0 0.02 0.285 0 0.04 0.285 0 0.06 0.285 0 0.08 0.285 0 0.1 0.285 0 0 0.29 0 0.02 0.29 0 0.04 0.29 0 0.06 0.29 0 0.08 0.29 0 0.1 0.29 0 0 0.295 0 0.02 0.295 0 0.04 0.295 0 0.06 0.295 0 0.08 0.295 0 0.1 0.295 0 0 0.3 0 0.02 0.3 0 0.04 0.3 0 0.06 0.3 0 0.08 0.3 0 0.1 0.3 0 0 0.305 0 0.02 0.305 0 0.04 0.305 0 0.06 0.305 0 0.08 0.305 0 0.1 0.305 0 0 0.31 0 0.02 0.31 0 0.04 0.31 0 0.06 0.31 0 0.08 0.31 0 0.1 0.31 0 0 0.315 0 0.02 0.315 0 0.04 0.315 0 0.06 0.315 0 0.08 0.315 0 0.1 0.315 0 0 0.32 0 0.02 0.32 0 0.04 0.32 0 0.06 0.32 0 0.08 0.32 0 0.1 0.32 0 0 0.325 0 0.02 0.325 0 0.04 0.325 0 0.06 0.325 0 0.08 0.325 0 0.1 0.325 0 0 0.33 0 0.02 0.33 0 0.04 0.33 0 0.06 0.33 0 0.08 0.33 0 0.1 0.33 0 0 0.335 0 0.02 0.335 0 0.04 0.335 0 0.06 0.335 0 0.08 0.335 0 0.1 0.335 0 0 0.34 0 0.02 0.34 0 0.04 0.34 0 0.06 0.34 0 0.08 0.34 0 0.1 0.34 0 0 0.345 0 0.02 0.345 0 0.04 0.345 0 0.06 0.345 0 0.08 0.345 0 0.1 0.345 0 0 0.35 0 0.02 0.35 0 0.04 0.35 0 0.06 0.35 0 0.08 0.35 0 0.1 0.35 0 0 0.355 0 0.02 0.355 0 0.04 0.355 0 0.06 0.355 0 0.08 0.355 0 0.1 0.355 0 0 0.36 0 0.02 0.36 0 0.04 0.36 0 0.06 0.36 0 0.08 0.36 0 0.1 0.36 0 0 0.365 0 0.02 0.365 0 0.04 0.365 0 0.06 0.365 0 0.08 0.365 0 0.1 0.365 0 0 0.37 0 0.02 0.37 0 0.04 0.37 0 0.06 0.37 0 0.08 0.37 0 0.1 0.37 0 0 0.375 0 0.02 0.375 0 0.04 0.375 0 0.06 0.375 0 0.08 0.375 0 0.1 0.375 0 0 0.38 0 0.02 0.38 0 0.04 0.38 0 0.06 0.38 0 0.08 0.38 0 0.1 0.38 0 0 0.385 0 0.02 0.385 0 0.04 0.385 0 0.06 0.385 0 0.08 0.385 0 0.1 0.385 0 0 0.39 0 0.02 0.39 0 0.04 0.39 0 0.06 0.39 0 0.08 0.39 0 0.1 0.39 0 0 0.395 0 0.02 0.395 0 0.04 0.395 0 0.06 0.395 0 0.08 0.395 0 0.1 0.395 0 0 0.4 0 0.02 0.4 0 0.04 0.4 0 0.06 0.4 0 0.08 0.4 0 0.1 0.4 0 0 0.405 0 0.02 0.405 0 0.04 0.405 0 0.06 0.405 0 0.08 0.405 0 0.1 0.405 0 0 0.41 0 0.02 0.41 0 0.04 0.41 0 0.06 0.41 0 0.08 0.41 0 0.1 0.41 0 0 0.415 0 0.02 0.415 0 0.04 0.415 0 0.06 0.415 0 0.08 0.415 0 0.1 0.415 0 0 0.42 0 0.02 0.42 0 0.04 0.42 0 0.06 0.42 0 0.08 0.42 0 0.1 0.42 0 0 0.425 0 0.02 0.425 0 0.04 0.425 0 0.06 0.425 0 0.08 0.425 0 0.1 0.425 0 0 0.43 0 0.02 0.43 0 0.04 0.43 0 0.06 0.43 0 0.08 0.43 0 0.1 0.43 0 0 0.435 0 0.02 0.435 0 0.04 0.435 0 0.06 0.435 0 0.08 0.435 0 0.1 0.435 0 0 0.44 0 0.02 0.44 0 0.04 0.44 0 0.06 0.44 0 0.08 0.44 0 0.1 0.44 0 0 0.445 0 0.02 0.445 0 0.04 0.445 0 0.06 0.445 0 0.08 0.445 0 0.1 0.445 0 0 0.45 0 0.02 0.45 0 0.04 0.45 0 0.06 0.45 0 0.08 0.45 0 0.1 0.45 0 0 0.455 0 0.02 0.455 0 0.04 0.455 0 0.06 0.455 0 0.08 0.455 0 0.1 0.455 0 0 0.46 0 0.02 0.46 0 0.04 0.46 0 0.06 0.46 0 0.08 0.46 0 0.1 0.46 0 0 0.465 0 0.02 0.465 0 0.04 0.465 0 0.06 0.465 0 0.08 0.465 0 0.1 0.465 0 0 0.47 0 0.02 0.47 0 0.04 0.47 0 0.06 0.47 0 0.08 0.47 0 0.1 0.47 0 0 0.475 0 0.02 0.475 0 0.04 0.475 0 0.06 0.475 0 0.08 0.475 0 0.1 0.475 0 0 0.48 0 0.02 0.48 0 0.04 0.48 0 0.06 0.48 0 0.08 0.48 0 0.1 0.48 0 0 0.485 0 0.02 0.485 0 0.04 0.485 0 0.06 0.485 0 0.08 0.485 0 0.1 0.485 0 0 0.49 0 0.02 0.49 0 0.04 0.49 0 0.06 0.49 0 0.08 0.49 0 0.1 0.49 0 0 0.495 0 0.02 0.495 0 0.04 0.495 0 0.06 0.495 0 0.08 0.495 0 0.1 0.495 0 0 0.5 0 0.02 0.5 0 0.04 0.5 0 0.06 0.5 0 0.08 0.5 0 0.1 0.5 0 0 0.505 0 0.02 0.505 0 0.04 0.505 0 0.06 0.505 0 0.08 0.505 0 0.1 0.505 0 0 0.51 0 0.02 0.51 0 0.04 0.51 0 0.06 0.51 0 0.08 0.51 0 0.1 0.51 0 0 0.515 0 0.02 0.515 0 0.04 0.515 0 0.06 0.515 0 0.08 0.515 0 0.1 0.515 0 0 0.52 0 0.02 0.52 0 0.04 0.52 0 0.06 0.52 0 0.08 0.52 0 0.1 0.52 0 0 0.525 0 0.02 0.525 0 0.04 0.525 0 0.06 0.525 0 0.08 0.525 0 0.1 0.525 0 0 0.53 0 0.02 0.53 0 0.04 0.53 0 0.06 0.53 0 0.08 0.53 0 0.1 0.53 0 0 0.535 0 0.02 0.535 0 0.04 0.535 0 0.06 0.535 0 0.08 0.535 0 0.1 0.535 0 0 0.54 0 0.02 0.54 0 0.04 0.54 0 0.06 0.54 0 0.08 0.54 0 0.1 0.54 0 0 0.545 0 0.02 0.545 0 0.04 0.545 0 0.06 0.545 0 0.08 0.545 0 0.1 0.545 0 0 0.55 0 0.02 0.55 0 0.04 0.55 0 0.06 0.55 0 0.08 0.55 0 0.1 0.55 0 0 0.555 0 0.02 0.555 0 0.04 0.555 0 0.06 0.555 0 0.08 0.555 0 0.1 0.555 0 0 0.56 0 0.02 0.56 0 0.04 0.56 0 0.06 0.56 0 0.08 0.56 0 0.1 0.56 0 0 0.565 0 0.02 0.565 0 0.04 0.565 0 0.06 0.565 0 0.08 0.565 0 0.1 0.565 0 0 0.57 0 0.02 0.57 0 0.04 0.57 0 0.06 0.57 0 0.08 0.57 0 0.1 0.57 0 0 0.575 0 0.02 0.575 0 0.04 0.575 0 0.06 0.575 0 0.08 0.575 0 0.1 0.575 0 0 0.58 0 0.02 0.58 0 0.04 0.58 0 0.06 0.58 0 0.08 0.58 0 0.1 0.58 0 0 0.585 0 0.02 0.585 0 0.04 0.585 0 0.06 0.585 0 0.08 0.585 0 0.1 0.585 0 0 0.59 0 0.02 0.59 0 0.04 0.59 0 0.06 0.59 0 0.08 0.59 0 0.1 0.59 0 0 0.595 0 0.02 0.595 0 0.04 0.595 0 0.06 0.595 0 0.08 0.595 0 0.1 0.595 0 0 0.6 0 0.02 0.6 0 0.04 0.6 0 0.06 0.6 0 0.08 0.6 0 0.1 0.6 0 0 0.605 0 0.02 0.605 0 0.04 0.605 0 0.06 0.605 0 0.08 0.605 0 0.1 0.605 0 0 0.61 0 0.02 0.61 0 0.04 0.61 0 0.06 0.61 0 0.08 0.61 0 0.1 0.61 0 0 0.615 0 0.02 0.615 0 0.04 0.615 0 0.06 0.615 0 0.08 0.615 0 0.1 0.615 0 0 0.62 0 0.02 0.62 0 0.04 0.62 0 0.06 0.62 0 0.08 0.62 0 0.1 0.62 0 0 0.625 0 0.02 0.625 0 0.04 0.625 0 0.06 0.625 0 0.08 0.625 0 0.1 0.625 0 0 0.63 0 0.02 0.63 0 0.04 0.63 0 0.06 0.63 0 0.08 0.63 0 0.1 0.63 0 0 0.635 0 0.02 0.635 0 0.04 0.635 0 0.06 0.635 0 0.08 0.635 0 0.1 0.635 0 0 0.64 0 0.02 0.64 0 0.04 0.64 0 0.06 0.64 0 0.08 0.64 0 0.1 0.64 0 0 0.645 0 0.02 0.645 0 0.04 0.645 0 0.06 0.645 0 0.08 0.645 0 0.1 0.645 0 0 0.65 0 0.02 0.65 0 0.04 0.65 0 0.06 0.65 0 0.08 0.65 0 0.1 0.65 0 0 0.655 0 0.02 0.655 0 0.04 0.655 0 0.06 0.655 0 0.08 0.655 0 0.1 0.655 0 0 0.66 0 0.02 0.66 0 0.04 0.66 0 0.06 0.66 0 0.08 0.66 0 0.1 0.66 0 0 0.665 0 0.02 0.665 0 0.04 0.665 0 0.06 0.665 0 0.08 0.665 0 0.1 0.665 0 0 0.67 0 0.02 0.67 0 0.04 0.67 0 0.06 0.67 0 0.08 0.67 0 0.1 0.67 0 0 0.675 0 0.02 0.675 0 0.04 0.675 0 0.06 0.675 0 0.08 0.675 0 0.1 0.675 0 0 0.68 0 0.02 0.68 0 0.04 0.68 0 0.06 0.68 0 0.08 0.68 0 0.1 0.68 0 0 0.685 0 0.02 0.685 0 0.04 0.685 0 0.06 0.685 0 0.08 0.685 0 0.1 0.685 0 0 0.69 0 0.02 0.69 0 0.04 0.69 0 0.06 0.69 0 0.08 0.69 0 0.1 
[...]
			<PointData Scalars="VitesseX">
				<DataArray Name="VitesseX" type="Float32" format="ascii">
 0 1.13103e-17 -1.57393e-14 1.716e-14 -3.04828e-14 0 0 2.19544e-15 -1.50827e-14 1.32048e-14 -2.40935e-14 0 0 -1.52613e-15 1.37185e-15 -1.19905e-14 3.59607e-15 0 0 2.16804e-14 -2.57049e-14 1.14457e-14 3.15763e-15 0 0 2.29595e-14 -1.74235e-14 1.47023e-14 6.71294e-15 0 0 -1.59738e-14 4.63818e-14 -1.99459e-14 2.20821e-14 0 0 -1.32223e-14 2.85829e-14 2.84081e-14 -1.11162e-14 0 0 1.71805e-14 -1.77913e-14 8.21116e-14 -4.01057e-14 0 0 7.38429e-15 9.83303e-15 6.46231e-14 -3.10496e-14 0 0 7.97994e-15 3.6283e-14 3.01289e-14 -3.44981e-15 0 0 5.86358e-14 -1.22724e-14 4.57054e-14 4.43243e-16 0 0 3.21218e-14 3.61498e-14 -2.77306e-14 5.18919e-14 0 0 6.96837e-14 -3.77649e-14 3.4667e-14 4.60641e-15 0 0 6.34476e-14 -2.9909e-14 2.48049e-14 -2.01254e-14 0 0 3.47217e-14 1.71775e-14 -3.50762e-14 1.37118e-14 0 0 9.10043e-14 -9.98761e-14 9.65112e-14 -5.12555e-14 0 0 1.04317e-14 2.52777e-14 -1.35504e-14 2.87122e-14 0 0 1.45526e-14 3.66693e-14 -1.80391e-14 2.85164e-14 0 0 4.42186e-14 -8.57676e-15 5.44717e-14 -3.70153e-14 0 0 2.03224e-14 3.54565e-14 6.76058e-15 -2.00178e-14 0 0 6.24172e-14 -4.57909e-14 7.89592e-14 -7.81989e-14 0 0 6.41674e-14 -7.39021e-14 9.51023e-14 -8.55284e-14 0 0 -2.36657e-15 1.70709e-14 -2.05782e-14 -6.38326e-15 0 0 -7.65929e-14 1.2416e-13 -1.22417e-13 4.43448e-14 0 0 2.07156e-14 -1.31214e-14 -9.69649e-15 -5.0545e-15 0 0 1.30063e-13 -1.85884e-13 1.60802e-13 -7.42362e-14 0 0 -1.22397e-14 9.86928e-15 9.30987e-15 4.16271e-14 0 0 -5.23491e-14 6.82443e-14 -6.80511e-14 1.47222e-13 0 0 1.75682e-14 -2.78718e-14 1.5853e-14 1.38486e-13 0 0 4.23955e-14 -5.72298e-14 6.43197e-14 9.11002e-14 0 0 -1.17026e-14 2.63519e-14 4.23484e-15 8.75082e-14 0 0 1.94406e-15 2.89554e-14 6.94561e-15 3.2854e-14 0 0 5.89853e-14 -4.50618e-14 7.06251e-14 -5.9545e-14 0 0 -5.22109e-14 1.13055e-13 -7.65678e-14 -2.58122e-14 0 0 2.34506e-14 -7.63959e-15 4.26675e-14 -1.30722e-13 0 0 9.85092e-14 -1.12181e-13 1.02349e-13 -1.15991e-13 0 0 5.0264e-14 -1.78633e-14 -2.08295e-14 -9.09827e-17 0 0 -7.79677e-15 9.73381e-14 -1.4975e-13 9.85021e-14 0 0 9.09732e-14 -5.86283e-14 -2.48961e-14 5.25346e-14 0 0 9.40595e-14 -1.01743e-13 4.37154e-14 -2.48522e-16 0 0 -2.20468e-15 -1.24387e-14 4.06294e-14 -3.32435e-14 0 0 2.51302e-15 -8.56883e-14 1.91012e-13 -1.71389e-13 0 0 -1.19232e-13 1.15158e-13 1.27684e-14 -1.06536e-13 0 0 -7.55912e-14 1.23338e-13 -5.26793e-14 -5.43162e-14 0 0 9.14825e-14 -8.98368e-14 1.07758e-13 -9.80352e-14 0 0 5.83904e-14 3.85284e-14 -8.66371e-14 9.16247e-14 0 0 1.6663e-13 -3.24097e-14 -1.24429e-13 1.63029e-13 0 0 1.16738e-13 3.29328e-14 -1.61852e-13 1.32227e-13 0 0 -2.07271e-14 2.05894e-13 -2.53294e-13 9.60236e-14 0 0 1.06249e-13 3.05378e-14 -6.75005e-14 -6.86369e-14 0 0 2.27216e-13 -1.12494e-13 3.37348e-14 -1.24783e-13 0 0 2.81111e-13 -1.78904e-13 7.08996e-14 -1.01885e-13 0 0 -1.20164e-13 4.18073e-13 -5.35118e-13 3.14801e-13 0 0 2.3503e-14 1.0255e-13 -1.85396e-13 1.14338e-13 0 0 3.44481e-13 -3.75869e-13 2.82158e-13 -2.38627e-13 0 0 1.30253e-13 5.27318e-14 -2.24071e-13 2.8024e-15 0 0 2.60607e-13 -1.56488e-13 -3.89163e-14 -1.30659e-13 0 0 1.46739e-13 4.10034e-14 -2.67708e-13 1.22314e-14 0 0 9.32003e-14 1.3276e-13 -3.87451e-13 9.0958e-14 0 0 2.82595e-13 -2.08459e-13 -5.28491e-14 -1.2944e-13 0 0 1.37377e-13 -8.95238e-14 -5.94413e-14 -1.62744e-13 0 0 8.30598e-14 -1.15363e-13 7.34139e-14 -2.34989e-13 0 0 7.20393e-14 -1.04305e-13 9.00073e-15 -1.08116e-13 0 0 8.80607e-14 -1.36377e-13 1.67399e-14 -4.46165e-14 0 0 1.88589e-14 -5.03687e-14 -2.60467e-14 2.9707e-15 0 0 -8.66285e-14 1.06857e-13 -1.61362e-13 1.19501e-13 0 0 2.14034e-14 -1.07173e-13 3.59456e-14 7.41041e-14 0 0 5.02172e-14 -9.24479e-14 -9.77078e-15 1.19785e-13 0 0 1.71796e-13 -1.79105e-13 1.38996e-13 -6.9502e-14 0 0 1.99066e-13 -1.5441e-13 1.73625e-13 -1.92976e-13 0 0 -2.40825e-14 3.12288e-13 -3.36708e-13 7.45981e-14 0 0 1.70128e-13 4.62971e-14 -9.35634e-14 -9.03455e-14 0 0 3.14865e-13 -1.60894e-13 1.18592e-13 -1.91845e-13 0 0 3.76788e-13 -2.50949e-13 2.02194e-13 -1.85669e-13 0 0 1.82169e-13 1.17229e-14 -2.80552e-14 -4.06589e-14 0 0 7.35323e-14 3.15933e-13 -3.02709e-13 6.01584e-14 0 0 5.35667e-13 -1.54254e-13 1.48806e-13 -2.49743e-13 0 0 5.16802e-13 1.00914e-14 4.81243e-14 -2.06715e-13 0 0 3.94423e-13 7.0961e-14 2.47395e-13 -4.4119e-13 0 0 1.16534e-13 4.71712e-13 -1.5333e-13 -7.7624e-14 0 0 3.93368e-13 1.26299e-13 -6.5757e-14 1.62476e-13 0 0 6.00007e-13 -3.76684e-13 5.14569e-13 -3.07068e-15 0 0 -1.54202e-13 6.89899e-13 -4.23103e-13 7.12634e-13 0 0 2.15553e-13 1.24744e-13 1.33182e-13 3.57319e-13 0 0 9.15216e-13 -1.01163e-12 1.19131e-12 -3.1023e-13 0 0 6.9076e-15 1.26517e-13 9.18161e-14 4.34847e-13 0 0 -8.64595e-13 7.26084e-13 -1.43732e-13 5.89252e-13 0 0 -2.03114e-13 -2.15978e-13 6.98628e-13 1.51459e-13 0 0 4.99976e-13 -4.41626e-13 2.21614e-13 7.28134e-13 0 0 5.33238e-13 -5.33171e-13 4.66549e-13 3.78491e-13 0 0 5.82288e-14 9.0076e-14 3.84596e-13 -2.68513e-14 0 0 -5.54021e-13 9.98668e-13 -3.053e-13 3.56454e-13 0 0 -5.77489e-13 7.45537e-13 -2.05873e-14 1.71784e-13 0 0 -2.43007e-13 1.33698e-13 4.5046e-13 5.41016e-14 0 0 3.26881e-13 -4.78566e-13 4.55062e-13 3.43736e-13 0 0 3.67731e-13 -7.45671e-13 7.14972e-13 1.87446e-13 0 0 -6.14675e-14 -3.582e-13 6.80951e-13 -1.41744e-13 0 0 -7.68182e-13 6.67443e-13 -3.40411e-14 1.05493e-13 0 0 -7.38963e-13 9.51982e-13 -8.82489e-13 5.58085e-13 0 0 1.04453e-14 3.42324e-13 -7.72801e-13 7.98434e-13 0 0 1.04337e-12 -8.90593e-13 -3.37207e-13 8.27964e-13 0 0 1.03618e-12 -1.05537e-12 -2.26613e-13 8.06159e-13 0 0 3.87382e-13 -5.69878e-13 -2.61446e-13 6.15404e-13 0 0 -3.8209e-13 2.17812e-13 -3.26476e-13 3.85473e-13 0 0 -5.06211e-13 3.62765e-13 -2.81069e-13 3.03678e-13 0 0 -4.16558e-13 2.98821e-13 -1.9701e-13 2.07635e-13 0 0 -1.9269e-13 1.82305e-13 -8.574e-14 -2.60138e-14 0 0 -2.04711e-14 1.54929e-13 9.09741e-16 -3.41188e-13 0 0 2.68065e-14 1.52533e-13 1.31814e-14 -4.73892e-13 0 0 4.38889e-14 1.11359e-13 1.44157e-14 -5.60889e-13 0 0 4.29712e-14 3.72969e-14 -3.54398e-15 -5.46676e-13 0 0 3.42446e-14 -9.16805e-14 -1.14059e-14 -4.73023e-13 0 0 4.62628e-15 -1.9352e-13 -5.6664e-14 -3.57205e-13 0 0 -6.90072e-14 -1.85685e-13 -1.75137e-13 -1.57632e-13 0 0 -8.33037e-14 -2.25043e-13 -1.78764e-13 -5.61579e-14 0 0 -5.49173e-14 -3.25124e-13 -1.00418e-13 -5.21321e-14 0 0 -7.33147e-14 -3.00383e-13 -1.30145e-13 5.5017e-15 0 0 -7.57836e-14 -1.90908e-13 -2.11122e-13 -9.67522e-15 0 0 -4.55562e-14 -1.00886e-13 -2.15545e-13 -1.65108e-14 0 0 -2.09566e-14 -5.9863e-14 -1.63136e-13 4.81073e-14 0 0 -1.23158e-14 3.27331e-14 -1.93372e-13 1.05851e-13 0 0 2.42873e-14 4.84272e-14 -1.00994e-13 2.72557e-14 0 0 1.51987e-13 -1.01726e-13 1.12197e-13 -1.19599e-13 0 0 1.25611e-13 4.15722e-14 -3.22178e-14 -1.97057e-14 0 0 1.47426e-13 6.02004e-14 -6.00596e-14 -2.01723e-14 0 0 1.05167e-13 1.22846e-13 -1.38462e-13 6.65232e-14 0 0 1.01422e-13 9.7386e-14 -6.0829e-14 5.24261e-14 0 0 2.69157e-13 -1.5534e-13 2.03951e-13 -1.34375e-13 0 0 1.66163e-13 4.62463e-14 -5.26576e-14 1.89209e-14 0 0 1.66426e-13 5.52773e-14 -1.1264e-13 3.77502e-14 0 0 1.6464e-13 3.64275e-14 -1.26036e-13 5.61721e-14 0 0 9.05407e-14 9.44754e-14 -1.4348e-13 3.13416e-14 0 0 2.77083e-13 -2.39172e-13 1.83568e-13 -2.67748e-13 0 0 1.40503e-13 -5.52683e-14 -7.46701e-14 -1.04289e-13 0 0 1.69567e-13 -1.95332e-13 -3.67859e-15 -5.48356e-14 0 0 1.16894e-13 -1.55402e-13 -9.26777e-14 3.77765e-14 0 0 2.69266e-14 -6.41163e-15 -2.30042e-13 9.07279e-14 0 0 2.53278e-13 -4.19614e-13 2.58519e-13 -2.61288e-13 0 0 -5.81591e-14 -2.83827e-15 -5.45762e-14 -1.09559e-13 0 0 -1.4729e-13 9.68404e-14 -8.89106e-14 -2.40036e-14 0 0 3.2979e-14 -1.4205e-13 1.72208e-13 -1.79564e-14 0 0 -2.51518e-13 4.04014e-13 -3.59589e-13 3.27814e-13 0 0 4.4659e-14 -4.16743e-14 2.12291e-14 1.60763e-13 0 0 2.1926e-13 -3.76887e-13 3.10907e-13 7.67628e-14 0 0 -1.02507e-13 6.62518e-14 -3.96336e-14 1.3762e-13 0 0 1.57386e-13 -3.85273e-13 5.287e-13 -2.91169e-13 0 0 -1.14405e-13 1.0481e-13 1.89232e-13 -4.53819e-14 0 0 -8.33698e-14 2.30917e-13 1.75087e-13 -9.12471e-14 0 0 1.50591e-13 -1.50675e-14 5.42786e-13 -4.04808e-13 0 0 7.59736e-14 2.13087e-13 2.71766e-13 -1.61383e-13 0 0 3.25708e-13 -2.69048e-13 6.42277e-13 -3.30588e-13 0 0 -1.17217e-13 2.30521e-13 1.87713e-13 -2.26779e-13 0 0 8.81787e-15 7.64135e-14 2.22498e-13 -3.82189e-13 0 0 2.21195e-13 -1.1691e-13 1.64246e-13 -2.15264e-13 0 0 1.14309e-13 -2.97134e-14 -2.38321e-14 1.15755e-13 0 0 -1.07262e-13 2.83279e-14 7.35269e-14 1.85691e-14 0 0 -4.40071e-13 3.85045e-13 -1.46339e-13 -8.96341e-16 0 0 2.05903e-14 -2.13858e-13 1.96071e-13 -1.99494e-13 0 0 2.54529e-13 -4.65108e-13 1.24786e-13 -1.30224e-13 0 0 2.28855e-13 -5.88149e-13 3.33413e-13 -3.6326e-13 0 0 -1.722e-13 -1.59529e-13 1.11803e-13 -4.18932e-13 0 0 -4.99479e-13 1.49162e-13 -5.80443e-14 -4.70976e-13 0 0 -3.57863e-13 -1.60217e-13 8.35061e-14 -3.59173e-13 0 0 -2.79461e-13 -2.15346e-13 -1.93722e-13 2.01725e-13 0 0 1.03001e-14 -6.50408e-13 1.47886e-13 2.64056e-13 0 0 1.38977e-13 -7.91233e-13 1.95254e-13 4.06792e-13 0 0 -5.05921e-14 -4.94827e-13 -1.63029e-14 5.2606e-13 0 0 -2.19984e-13 -3.03474e-13 1.21799e-13 1.61859e-13 0 0 -5.95498e-13 2.62539e-13 -4.18898e-13 2.94956e-13 0 0 -3.69507e-13 -9.82109e-14 -3.50053e-13 2.84641e-13 0 0 7.37704e-14 -7.40431e-13 1.65124e-14 9.32048e-14 0 0 1.71215e-14 -5.30724e-13 -2.78225e-13 2.49657e-13 0 0 1.58267e-13 -8.04337e-13 2.97314e-13 -2.93022e-13 0 0 -3.48248e-13 -1.53697e-13 -3.86907e-14 -2.49021e-13 0 0 -4.38484e-13 -1.15096e-13 -3.76436e-14 -2.47074e-13 0 0 -2.3323e-13 -4.01108e-13 8.59905e-14 -3.2065e-13 0 0 -2.91319e-13 -1.55331e-14 -6.87621e-13 1.98571e-13 0 0 2.27156e-13 -7.35195e-13 -1.30525e-13 -7.38262e-14 0 0 -1.80068e-13 -3.10296e-13 -2.47951e-13 -1.00243e-13 0 0 -5.49561e-13 8.65936e-15 -1.603e-13 -2.04573e-13 0 0 -3.94679e-13 -2.34695e-13 6.67087e-14 -2.98228e-13 0 0 -2.53335e-13 -2.22663e-13 -2.20021e-13 -9.65392e-14 0 0 2.12061e-13 -7.60765e-13 5.24202e-14 -1.71883e-13 0 0 -2.54561e-13 -8.48938e-14 -5.79307e-13 1.23234e-13 0 0 -5.36611e-13 1.87366e-13 -4.89944e-13 -1.13244e-13 0 0 -2.12009e-13 -2.967e-13 -2.77646e-14 -2.01375e-13 0 0 -2.8144e-13 -1.91672e-13 -3.06891e-13 2.02157e-13 0 0 8.09574e-14 -7.07641e-13 2.99095e-13 -2.99559e-13 0 0 -2.60529e-13 -4.33959e-14 -2.75331e-13 -8.39705e-14 0 0 -3.91197e-13 1.8464e-13 -5.0451e-13 4.6882e-14 0 0 5.28285e-14 -4.4491e-13 2.03115e-13 -5.28535e-13 0 0 -5.54998e-13 6.36018e-13 -9.15741e-13 1.78729e-13 0 0 -1.3883e-13 -3.80475e-16 -4.32283e-13 5.08477e-14 0 0 2.1169e-13 -6.60463e-13 3.24402e-13 -4.53288e-13 0 0 -1.57421e-13 -2.09962e-13 6.06265e-14 -2.38651e-13 0 0 1.08384e-13 -7.30267e-13 7.56939e-13 -6.58152e-13 0 0 -3.37686e-13 4.14583e-14 1.21224e-13 -4.69353e-13 0 0 -1.04031e-13 -1.65331e-13 3.76846e-13 -8.711e-13 0 0 7.50177e-14 -4.00127e-13 6.16429e-13 -1.12319e-12 0 0 -1.88957e-13 1.22091e-13 -5.16986e-14 -6.4714e-13 0 0 1.16624e-13 -2.41159e-13 2.01742e-13 -7.69723e-13 0
				</DataArray>
				<DataArray Name="VitesseY" type="Float32" format="ascii">