<?xml version="1.0"?>
<VTKFile type="PolyData">
	<PolyData>
		<Piece NumberOfPoints="1206" NumberOfPolys="1000">
			<Points>
				<DataArray type="Float32" NumberOfComponents="3" format="ascii">
 0 0 0 0.02 0 0 0.04 0 0 0.06 0 0 0.08 0 0 0.1 0 0 0 0.005 0 0.02 0.005 0 0.04 0.005 0 0.06 0.005 0 0.08 0.005 0 0.1 0.005 0 0 0.01 0 0.02 0.01 0 0.04 0.01 0 0.06 0.01 0 0.08 0.01 0 0.1 0.01 0 0 0.015 0 0.02 0.015 0 0.04 0.015 0 0.06 0.015 0 0.08 0.015 0 0.1 0.015 0 0 0.02 0 0.02 0.02 0 0.04 0.02 0 0.06 0.02 0 0.08 0.02 0 0.1 0.02 0 0 0.025 0 0.02 0.025 0 0.04 0.025 0 0.06 0.025 0 0.08 0.025 0 0.1 0.025 0 0 0.03 0 0.02 0.03 0 0.04 0.03 0 0.06 0.03 0 0.08 0.03 0 0.1 0.03 0 0 0.035 0 0.02 0.035 0 0.04 0.035 0 0.06 0.035 0 0.08 0.035 0 0.1 0.035 0 0 0.04 0 0.02 0.04 0 0.04 0.04 0 0.06 0.04 0 0.08 0.04 0 0.1 0.04 0 0 0.045 0 0.02 0.045 0 0.04 0.045 0 0.06 0.045 0 0.08 0.045 0 0.1 0.045 0 0 0.05 0 0.02 0.05 0 0.04 0.05 0 0.06 0.05 0 0.08 0.05 0 0.1 0.05 0 0 0.055 0 0.02 0.055 0 0.04 0.055 0 0.06 0.055 0 0.08 0.055 0 0.1 0.055 0 0 0.06 0 0.02 0.06 0 0.04 0.06 0 0.06 0.06 0 0.08 0.06 0 0.1 0.06 0 0 0.065 0 0.02 0.065 0 0.04 0.065 0 0.06 0.065 0 0.08 0.065 0 0.1 0.065 0 0 0.07 0 0.02 0.07 0 0.04 0.07 0 0.06 0.07 0 0.08 0.07 0 0.1 0.07 0 0 0.075 0 0.02 0.075 0 0.04 0.075 0 0.06 0.075 0 0.08 0.075 0 0.1 0.075 0 0 0.08 0 0.02 0.08 0 0.04 0.08 0 0.06 0.08 0 0.08 0.08 0 0.1 0.08 0 0 0.085 0 0.02 0.085 0 0.04 0.085 0 0.06 0.085 0 0.08 0.085 0 0.1 0.085 0 0 0.09 0 0.02 0.09 0 0.04 0.09 0 0.06 0.09 0 0.08 0.09 0 0.1 0.09 0 0 0.095 0 0.02 0.095 0 0.04 0.095 0 0.06 0.095 0 0.08 0.095 0 0.1 0.095 0 0 0.1 0 0.02 0.1 0 0.04 0.1 0 0.06 0.1 0 0.08 0.1 0 0.1 0.1 0 0 0.105 0 0.02 0.105 0 0.04 0.105 0 0.06 0.105 0 0.08 0.105 0 0.1 0.105 0 0 0.11 0 0.02 0.11 0 0.04 0.11 0 0.06 0.11 0 0.08 0.11 0 0.1 0.11 0 0 0.115 0 0.02 0.115 0 0.04 0.115 0 0.06 0.115 0 0.08 0.115 0 0.1 0.115 0 0 0.12 0 0.02 0.12 0 0.04 0.12 0 0.06 0.12 0 0.08 0.12 0 0.1 0.12 0 0 0.125 0 0.02 0.125 0 0.04 0.125 0 0.06 0.125 0 0.08 0.125 0 0.1 0.125 0 0 0.13 0 0.02 0.13 0 0.04 0.13 0 0.06 0.13 0 0.08 0.13 0 0.1 0.13 0 0 0.135 0 0.02 0.135 0 0.04 0.135 0 0.06 0.135 0 0.08 0.135 0 0.1 0.135 0 0 0.14 0 0.02 0.14 0 0.04 0.14 0 0.06 0.14 0 0.08 0.14 0 0.1 0.14 0 0 0.145 0 0.02 0.145 0 0.04 0.145 0 0.06 0.145 0 0.08 0.145 0 0.1 0.145 0 0 0.15 0 0.02 0.15 0 0.04 0.15 0 0.06 0.15 0 0.08 0.15 0 0.1 0.15 0 0 0.155 0 0.02 0.155 0 0.04 0.155 0 0.06 0.155 0 0.08 0.155 0 0.1 0.155 0 0 0.16 0 0.02 0.16 0 0.04 0.16 0 0.06 0.16 0 0.08 0.16 0 0.1 0.16 0 0 0.165 0 0.02 0.165 0 0.04 0.165 0 0.06 0.165 0 0.08 0.165 0 0.1 0.165 0 0 0.17 0 0.02 0.17 0 0.04 0.17 0 0.06 0.17 0 0.08 0.17 0 0.1 0.17 0 0 0.175 0 0.02 0.175 0 0.04 0.175 0 0.06 0.175 0 0.08 0.175 0 0.1 0.175 0 0 0.18 0 0.02 0.18 0 0.04 0.18 0 0.06 0.18 0 0.08 0.18 0 0.1 0.18 0 0 0.185 0 0.02 0.185 0 0.04 0.185 0 0.06 0.185 0 0.08 0.185 0 0.1 0.185 0 0 0.19 0 0.02 0.19 0 0.04 0.19 0 0.06 0.19 0 0.08 0.19 0 0.1 0.19 0 0 0.195 0 0.02 0.195 0 0.04 0.195 0 0.06 0.195 0 0.08 0.195 0 0.1 0.195 0 0 0.2 0 0.02 0.2 0 0.04 0.2 0 0.06 0.2 0 0.08 0.2 0 0.1 0.2 0 0 0.205 0 0.02 0.205 0 0.04 0.205 0 0.06 0.205 0 0.08 0.205 0 0.1 0.205 0 0 0.21 0 0.02 0.21 0 0.04 0.21 0 0.06 0.21 0 0.08 0.21 0 0.1 0.21 0 0 0.215 0 0.02 0.215 0 0.04 0.215 0 0.06 0.215 0 0.08 0.215 0 0.1 0.215 0 0 0.22 0 0.02 0.22 0 0.04 0.22 0 0.06 0.22 0 0.08 0.22 0 0.1 0.22 0 0 0.225 0 0.02 0.225 0 0.04 0.225 0 0.06 0.225 0 0.08 0.225 0 0.1 0.225 0 0 0.23 0 0.02 0.23 0 0.04 0.23 0 0.06 0.23 0 0.08 0.23 0 0.1 0.23 0 0 0.235 0 0.02 0.235 0 0.04 0.235 0 0.06 0.235 0 0.08 0.235 0 0.1 0.235 0 0 0.24 0 0.02 0.24 0 0.04 0.24 0 0.06 0.24 0 0.08 0.24 0 0.1 0.24 0 0 0.245 0 0.02 0.245 0 0.04 0.245 0 0.06 0.245 0 0.08 0.245 0 0.1 0.245 0 0 0.25 0 0.02 0.25 0 0.04 0.25 0 0.06 0.25 0 0.08 0.25 0 0.1 0.25 0 0 0.255 0 0.02 0.255 0 0.04 0.255 0 0.06 0.255 0 0.08 0.255 0 0.1 0.255 0 0 0.26 0 0.02 0.26 0 0.04 0.26 0 0.06 0.26 0 0.08 0.26 0 0.1 0.26 0 0 0.265 0 0.02 0.265 0 0.04 0.265 0 0.06 0.265 0 0.08 0.265 0 0.1 0.265 0 0 0.27 0 0.02 0.27 0 0.04 0.27 0 0.06 0.27 0 0.08 0.27 0 0.1 0.27 0 0 0.275 0 0.02 0.275 0 0.04 0.275 0 0.06 0.275 0 0.08 0.275 0 0.1 0.275 0 0 0.28 0 0.02 0.28 0 0.04 0.28 0 0.06 0.28 0 0.08 0.28 0 0.1 0.28 0 0 0.285 0 0.02 0.285 0 0.04 0.285 0 0.06 0.285 0 0.08 0.285 0 0.1 0.285 0 0 0.29 0 0.02 0.29 0 0.04 0.29 0 0.06 0.29 0 0.08 0.29 0 0.1 0.29 0 0 0.295 0 0.02 0.295 0 0.04 0.295 0 0.06 0.295 0 0.08 0.295 0 0.1 0.295 0 0 0.3 0 0.02 0.3 0 0.04 0.3 0 0.06 0.3 0 0.08 0.3 0 0.1 0.3 0 0 0.305 0 0.02 0.305 0 0.04 0.305 0 0.06 0.305 0 0.08 0.305 0 0.1 0.305 0 0 0.31 0 0.02 0.31 0 0.04 0.31 0 0.06 0.31 0 0.08 0.31 0 0.1 0.31 0 0 0.315 0 0.02 0.315 0 0.04 0.315 0 0.06 0.315 0 0.08 0.315 0 0.1 0.315 0 0 0.32 0 0.02 0.32 0 0.04 0.32 0 0.06 0.32 0 0.08 0.32 0 0.1 0.32 0 0 0.325 0 0.02 0.325 0 0.04 0.325 0 0.06 0.325 0 0.08 0.325 0 0.1 0.325 0 0 0.33 0 0.02 0.33 0 0.04 0.33 0 0.06 0.33 0 0.08 0.33 0 0.1 0.33 0 0 0.335 0 0.02 0.335 0 0.04 0.335 0 0.06 0.335 0 0.08 0.335 0 0.1 0.335 0 0 0.34 0 0.02 0.34 0 0.04 0.34 0 0.06 0.34 0 0.08 0.34 0 0.1 0.34 0 0 0.345 0 0.02 0.345 0 0.04 0.345 0 0.06 0.345 0 0.08 0.345 0 0.1 0.345 0 0 0.35 0 0.02 0.35 0 0.04 0.35 0 0.06 0.35 0 0.08 0.35 0 0.1 0.35 0 0 0.355 0 0.02 0.355 0 0.04 0.355 0 0.06 0.355 0 0.08 0.355 0 0.1 0.355 0 0 0.36 0 0.02 0.36 0 0.04 0.36 0 0.06 0.36 0 0.08 0.36 0 0.1 0.36 0 0 0.365 0 0.02 0.365 0 0.04 0.365 0 0.06 0.365 0 0.08 0.365 0 0.1 0.365 0 0 0.37 0 0.02 0.37 0 0.04 0.37 0 0.06 0.37 0 0.08 0.37 0 0.1 0.37 0 0 0.375 0 0.02 0.375 0 0.04 0.375 0 0.06 0.375 0 0.08 0.375 0 0.1 0.375 0 0 0.38 0 0.02 0.38 0 0.04 0.38 0 0.06 0.38 0 0.08 0.38 0 0.1 0.38 0 0 0.385 0 0.02 0.385 0 0.04 0.385 0 0.06 0.385 0 0.08 0.385 0 0.1 0.385 0 0 0.39 0 0.02 0.39 0 0.04 0.39 0 0.06 0.39 0 0.08 0.39 0 0.1 0.39 0 0 0.395 0 0.02 0.395 0 0.04 0.395 0 0.06 0.395 0 0.08 0.395 0 0.1 0.395 0 0 0.4 0 0.02 0.4 0 0.04 0.4 0 0.06 0.4 0 0.08 0.4 0 0.1 0.4 0 0 0.405 0 0.02 0.405 0 0.04 0.405 0 0.06 0.405 0 0.08 0.405 0 0.1 0.405 0 0 0.41 0 0.02 0.41 0 0.04 0.41 0 0.06 0.41 0 0.08 0.41 0 0.1 0.41 0 0 0.415 0 0.02 0.415 0 0.04 0.415 0 0.06 0.415 0 0.08 0.415 0 0.1 0.415 0 0 0.42 0 0.02 0.42 0 0.04 0.42 0 0.06 0.42 0 0.08 0.42 0 0.1 0.42 0 0 0.425 0 0.02 0.425 0 0.04 0.425 0 0.06 0.425 0 0.08 0.425 0 0.1 0.425 0 0 0.43 0 0.02 0.43 0 0.04 0.43 0 0.06 0.43 0 0.08 0.43 0 0.1 0.43 0 0 0.435 0 0.02 0.435 0 0.04 0.435 0 0.06 0.435 0 0.08 0.435 0 0.1 0.435 0 0 0.44 0 0.02 0.44 0 0.04 0.44 0 0.06 0.44 0 0.08 0.44 0 0.1 0.44 0 0 0.445 0 0.02 0.445 0 0.04 0.445 0 0.06 0.445 0 0.08 0.445 0 0.1 0.445 0 0 0.45 0 0.02 0.45 0 0.04 0.45 0 0.06 0.45 0 0.08 0.45 0 0.1 0.45 0 0 0.455 0 0.02 0.455 0 0.04 0.455 0 0.06 0.455 0 0.08 0.455 0 0.1 0.455 0 0 0.46 0 0.02 0.46 0 0.04 0.46 0 0.06 0.46 0 0.08 0.46 0 0.1 0.46 0 0 0.465 0 0.02 0.465 0 0.04 0.465 0 0.06 0.465 0 0.08 0.465 0 0.1 0.465 0 0 0.47 0 0.02 0.47 0 0.04 0.47 0 0.06 0.47 0 0.08 0.47 0 0.1 0.47 0 0 0.475 0 0.02 0.475 0 0.04 0.475 0 0.06 0.475 0 0.08 0.475 0 0.1 0.475 0 0 0.48 0 0.02 0.48 0 0.04 0.48 0 0.06 0.48 0 0.08 0.48 0 0.1 0.48 0 0 0.485 0 0.02 0.485 0 0.04 0.485 0 0.06 0.485 0 0.08 0.485 0 0.1 0.485 0 0 0.49 0 0.02 0.49 0 0.04 0.49 0 0.06 0.49 0 0.08 0.49 0 0.1 0.49 0 0 0.495 0 0.02 0.495 0 0.04 0.495 0 0.06 0.495 0 0.08 0.495 0 0.1 0.495 0 0 0.5 0 0.02 0.5 0 0.04 0.5 0 0.06 0.5 0 0.08 0.5 0 0.1 0.5 0 0 0.505 0 0.02 0.505 0 0.04 0.505 0 0.06 0.505 0 0.08 0.505 0 0.1 0.505 0 0 0.51 0 0.02 0.51 0 0.04 0.51 0 0.06 0.51 0 0.08 0.51 0 0.1 0.51 0 0 0.515 0 0.02 0.515 0 0.04 0.515 0 0.06 0.515 0 0.08 0.515 0 0.1 0.515 0 0 0.52 0 0.02 0.52 0 0.04 0.52 0 0.06 0.52 0 0.08 0.52 0 0.1 0.52 0 0 0.525 0 0.02 0.525 0 0.04 0.525 0 0.06 0.525 0 0.08 0.525 0 0.1 0.525 0 0 0.53 0 0.02 0.53 0 0.04 0.53 0 0.06 0.53 0 0.08 0.53 0 0.1 0.53 0 0 0.535 0 0.02 0.535 0 0.04 0.535 0 0.06 0.535 0 0.08 0.535 0 0.1 0.535 0 0 0.54 0 0.02 0.54 0 0.04 0.54 0 0.06 0.54 0 0.08 0.54 0 0.1 0.54 0 0 0.545 0 0.02 0.545 0 0.04 0.545 0 0.06 0.545 0 0.08 0.545 0 0.1 0.545 0 0 0.55 0 0.02 0.55 0 0.04 0.55 0 0.06 0.55 0 0.08 0.55 0 0.1 0.55 0 0 0.555 0 0.02 0.555 0 0.04 0.555 0 0.06 0.555 0 0.08 0.555 0 0.1 0.555 0 0 0.56 0 0.02 0.56 0 0.04 0.56 0 0.06 0.56 0 0.08 0.56 0 0.1 0.56 0 0 0.565 0 0.02 0.565 0 0.04 0.565 0 0.06 0.565 0 0.08 0.565 0 0.1 0.565 0 0 0.57 0 0.02 0.57 0 0.04 0.57 0 0.06 0.57 0 0.08 0.57 0 0.1 0.57 0 0 0.575 0 0.02 0.575 0 0.04 0.575 0 0.06 0.575 0 0.08 0.575 0 0.1 0.575 0 0 0.58 0 0.02 0.58 0 0.04 0.58 0 0.06 0.58 0 0.08 0.58 0 0.1 0.58 0 0 0.585 0 0.02 0.585 0 0.04 0.585 0 0.06 0.585 0 0.08 0.585 0 0.1 0.585 0 0 0.59 0 0.02 0.59 0 0.04 0.59 0 0.06 0.59 0 0.08 0.59 0 0.1 0.59 0 0 0.595 0 0.02 0.595 0 0.04 0.595 0 0.06 0.595 0 0.08 0.595 0 0.1 0.595 0 0 0.6 0 0.02 0.6 0 0.04 0.6 0 0.06 0.6 0 0.08 0.6 0 0.1 0.6 0 0 0.605 0 0.02 0.605 0 0.04 0.605 0 0.06 0.605 0 0.08 0.605 0 0.1 0.605 0 0 0.61 0 0.02 0.61 0 0.04 0.61 0 0.06 0.61 0 0.08 0.61 0 0.1 0.61 0 0 0.615 0 0.02 0.615 0 0.04 0.615 0 0.06 0.615 0 0.08 0.615 0 0.1 0.615 0 0 0.62 0 0.02 0.62 0 0.04 0.62 0 0.06 0.62 0 0.08 0.62 0 0.1 0.62 0 0 0.625 0 0.02 0.625 0 0.04 0.625 0 0.06 0.625 0 0.08 0.625 0 0.1 0.625 0 0 0.63 0 0.02 0.63 0 0.04 0.63 0 0.06 0.63 0 0.08 0.63 0 0.1 0.63 0 0 0.635 0 0.02 0.635 0 0.04 0.635 0 0.06 0.635 0 0.08 0.635 0 0.1 0.635 0 0 0.64 0 0.02 0.64 0 0.04 0.64 0 0.06 0.64 0 0.08 0.64 0 0.1 0.64 0 0 0.645 0 0.02 0.645 0 0.04 0.645 0 0.06 0.645 0 0.08 0.645 0 0.1 0.645 0 0 0.65 0 0.02 0.65 0 0.04 0.65 0 0.06 0.65 0 0.08 0.65 0 0.1 0.65 0 0 0.655 0 0.02 0.655 0 0.04 0.655 0 0.06 0.655 0 0.08 0.655 0 0.1 0.655 0 0 0.66 0 0.02 0.66 0 0.04 0.66 0 0.06 0.66 0 0.08 0.66 0 0.1 0.66 0 0 0.665 0 0.02 0.665 0 0.04 0.665 0 0.06 0.665 0 0.08 0.665 0 0.1 0.665 0 0 0.67 0 0.02 0.67 0 0.04 0.67 0 0.06 0.67 0 0.08 0.67 0 0.1 0.67 0 0 0.675 0 0.02 0.675 0 0.04 0.675 0 0.06 0.675 0 0.08 0.675 0 0.1 0.675 0 0 0.68 0 0.02 0.68 0 0.04 0.68 0 0.06 0.68 0 0.08 0.68 0 0.1 0.68 0 0 0.685 0 0.02 0.685 0 0.04 0.685 0 0.06 0.685 0 0.08 0.685 0 0.1 0.685 0 0 0.69 0 0.02 0.69 0 0.04 0.69 0 0.06 0.69 0 0.08 0.69 0 0.1 
[...]
			<PointData Scalars="VitesseX">
				<DataArray Name="VitesseX" type="Float32" format="ascii">
 0 -3.66307e-15 -1.28605e-14 -2.24024e-14 -2.31572e-14 0 0 -4.47242e-15 -1.43983e-14 -1.92155e-14 -2.65916e-14 0 0 -6.79735e-15 -1.57059e-14 -1.65505e-14 -2.76965e-14 0 0 -9.78315e-15 -1.74686e-14 -1.30571e-14 -2.92694e-14 0 0 -1.38705e-14 -1.51314e-14 -1.49441e-14 -2.74683e-14 0 0 -1.25324e-14 -2.00604e-14 -1.41892e-14 -2.56231e-14 0 0 -1.49713e-14 -2.25311e-14 -1.20681e-14 -2.7756e-14 0 0 -2.34411e-14 -1.97583e-14 -9.84214e-15 -2.56567e-14 0 0 -2.24528e-14 -2.50836e-14 -7.67544e-15 -1.64023e-14 0 0 -2.32687e-14 -2.48649e-14 -1.57009e-14 5.54767e-15 0 0 -3.33986e-14 -1.37122e-14 -3.02833e-14 2.38657e-14 0 0 -3.23422e-14 -1.44659e-14 -2.84732e-14 1.8066e-14 0 0 -3.13532e-14 -2.15961e-14 -9.81138e-15 8.51079e-15 0 0 -2.26368e-14 -3.40063e-14 4.18213e-15 9.96277e-15 0 0 1.0337e-14 -6.79522e-14 2.62657e-14 5.75554e-15 0 0 4.82804e-16 -3.76853e-14 6.98701e-15 4.30709e-15 0 0 -1.98315e-14 5.04044e-15 -1.96739e-14 4.65019e-15 0 0 -2.8062e-15 -1.53181e-14 1.32229e-14 -2.6692e-14 0 0 -2.60725e-14 2.71746e-14 -2.59038e-14 -1.01149e-14 0 0 -2.12908e-14 3.38786e-14 -4.72388e-14 -6.45131e-16 0 0 1.96093e-14 -2.24043e-14 -1.73352e-15 -3.58158e-14 0 0 2.79442e-15 1.61981e-15 -2.85282e-14 -1.97514e-14 0 0 8.20236e-15 -1.5197e-14 -2.04127e-14 -2.61551e-14 0 0 3.41578e-15 -2.19855e-14 -5.92476e-15 -4.39445e-14 0 0 -4.24635e-14 3.66555e-14 -4.79733e-14 -2.08779e-14 0 0 -4.77964e-14 2.61692e-14 -4.26359e-14 -1.2729e-14 0 0 -2.58057e-14 -3.53018e-14 1.52926e-15 -5.83213e-15 0 0 -1.99707e-14 -5.74798e-14 -3.06096e-15 2.98342e-14 0 0 -1.28499e-15 -7.88306e-14 3.06864e-15 1.93472e-14 0 0 1.86825e-14 -9.59742e-14 2.0526e-14 -9.4526e-15 0 0 -2.85817e-14 -1.45794e-14 -4.99644e-14 2.27087e-14 0 0 -3.56824e-14 1.56555e-14 -7.90037e-14 3.43538e-14 0 0 -4.02351e-14 3.37151e-14 -8.30084e-14 1.61007e-14 0 0 -1.48939e-14 -1.62204e-14 -3.81293e-14 -4.43806e-15 0 0 4.75996e-14 -1.14621e-13 3.82293e-14 -1.9912e-14 0 0 2.32669e-14 -7.55611e-14 1.51477e-15 2.35911e-14 0 0 -6.52329e-14 5.93614e-14 -1.05978e-13 8.94549e-14 0 0 -6.91923e-14 8.22487e-14 -9.77009e-14 4.68123e-14 0 0 -1.77981e-14 1.91634e-14 -1.44027e-14 -3.38978e-14 0 0 -5.69347e-14 7.19881e-14 -4.03561e-14 -1.03048e-14 0 0 1.65622e-15 5.44136e-15 1.17677e-14 -2.10528e-14 0 0 6.28586e-14 -6.0115e-14 5.95033e-14 -5.13928e-14 0 0 7.13331e-14 -3.05852e-14 1.46884e-14 -7.88665e-15 0 0 3.30908e-14 -2.00364e-14 5.38651e-14 -3.8857e-14 0 0 -6.96585e-14 9.31516e-14 1.52558e-14 -5.31784e-14 0 0 -2.28702e-14 3.32347e-14 6.49778e-14 -7.46959e-14 0 0 1.78764e-14 -6.77059e-14 1.07628e-13 -6.21349e-14 0 0 -1.89513e-15 -4.23831e-14 1.798e-14 8.86813e-15 0 0 5.61529e-14 -1.18735e-13 5.63739e-15 4.50478e-14 0 0 9.1862e-14 -2.07834e-13 7.44113e-14 9.07872e-15 0 0 3.03968e-14 -1.51636e-13 5.68608e-14 -4.99965e-14 0 0 3.22785e-14 -1.0714e-13 -1.89534e-14 -9.0664e-14 0 0 4.07671e-15 -9.01084e-14 -2.03516e-14 -1.57577e-13 0 0 -2.65364e-15 -1.91088e-13 7.93859e-14 -1.88634e-13 0 0 -3.76197e-14 -1.55187e-13 -2.28803e-14 -7.48689e-14 0 0 -1.00945e-13 -7.97674e-14 -1.83407e-13 8.62971e-14 0 0 -9.06729e-15 -3.09645e-13 6.192e-15 -5.40487e-14 0 0 -7.87354e-15 -3.68367e-13 7.59592e-14 -2.04532e-13 0 0 -2.69695e-14 -2.82395e-13 -4.55887e-14 -1.75964e-13 0 0 -6.921e-14 -1.38223e-13 -2.03781e-13 -1.11864e-13 0 0 -1.39801e-13 -3.0507e-14 -3.03006e-13 -3.85348e-14 0 0 -1.50614e-13 -9.38602e-14 -1.84205e-13 -1.06139e-13 0 0 -1.67507e-13 -1.87892e-13 -1.05093e-14 -2.10774e-13 0 0 -1.53791e-13 -3.12592e-13 8.50372e-14 -2.00307e-13 0 0 -1.71376e-13 -3.34217e-13 4.36622e-14 -1.00107e-13 0 0 -2.75689e-13 -2.26986e-13 -9.3772e-14 -3.1101e-14 0 0 -2.20491e-13 -2.55512e-13 -1.07835e-13 -9.14931e-14 0 0 -8.73529e-14 -3.70281e-13 -6.20794e-14 -1.5708e-13 0 0 -6.85255e-14 -3.21995e-13 -1.79698e-13 -6.41409e-14 0 0 -1.53042e-13 -1.72267e-13 -3.93148e-13 5.24066e-14 0 0 -2.43816e-13 -1.58207e-13 -3.71818e-13 2.88056e-14 0 0 -2.57642e-13 -2.79828e-13 -2.04106e-13 -1.06676e-13 0 0 -2.19807e-13 -5.09679e-13 2.74719e-14 -2.2361e-13 0 0 -2.10848e-13 -5.64416e-13 -5.96019e-15 -1.76736e-13 0 0 -2.38962e-13 -4.82187e-13 -1.80758e-13 -1.66965e-14 0 0 -2.87205e-13 -3.47714e-13 -3.66425e-13 3.16655e-14 0 0 -3.3964e-13 -3.11698e-13 -3.28266e-13 -6.97028e-14 0 0 -3.51178e-13 -3.50586e-13 -1.59212e-13 -2.17739e-13 0 0 -3.45668e-13 -4.2247e-13 9.6452e-14 -3.13548e-13 0 0 -3.52333e-13 -4.28698e-13 2.09281e-13 -2.76174e-13 0 0 -4.16459e-13 -3.3538e-13 1.46321e-13 -9.29681e-14 0 0 -4.41853e-13 -1.94382e-13 3.11059e-15 9.69472e-14 0 0 -3.5793e-13 -2.17187e-13 -2.10286e-14 9.44813e-14 0 0 -1.58923e-13 -3.91168e-13 4.8846e-14 1.41923e-14 0 0 9.85227e-14 -6.43635e-13 1.45677e-13 -8.01792e-14 0 0 1.51884e-13 -6.59941e-13 1.06453e-13 -8.49972e-14 0 0 1.00694e-13 -5.31766e-13 -8.06684e-14 -5.68805e-14 0 0 -5.36778e-14 -2.39943e-13 -3.90184e-13 -1.45621e-14 0 0 -1.65925e-13 -9.22452e-14 -4.72932e-13 -5.95794e-14 0 0 -1.62602e-13 -1.10148e-13 -4.13856e-13 -1.53132e-13 0 0 -1.61533e-13 -1.14994e-13 -3.65484e-13 -1.93112e-13 0 0 -1.78197e-13 -1.09241e-13 -3.42953e-13 -2.00892e-13 0 0 -1.73365e-13 -1.21737e-13 -2.96097e-13 -2.1608e-13 0 0 -1.77419e-13 -1.64549e-13 -1.74272e-13 -3.054e-13 0 0 -2.02931e-13 -1.55084e-13 -9.45692e-14 -4.73523e-13 0 0 -2.05435e-13 -1.65348e-13 -6.0488e-14 -5.81829e-13 0 0 -1.64592e-13 -2.11189e-13 -7.06645e-14 -5.95144e-13 0 0 -8.53298e-14 -2.52762e-13 -1.61021e-13 -5.40857e-13 0 0 2.1315e-14 -2.67399e-13 -3.53352e-13 -3.96602e-13 0 0 1.33877e-13 -2.30303e-13 -6.09112e-13 -1.78257e-13 0 0 1.85981e-13 -1.65255e-13 -8.41786e-13 6.59624e-15 0 0 2.4855e-13 -1.80163e-13 -8.65074e-13 2.28414e-14 0 0 3.75229e-13 -2.56627e-13 -8.09946e-13 -3.20249e-14 0 0 5.75576e-13 -4.44358e-13 -6.678e-13 -1.37716e-13 0 0 6.41973e-13 -6.35054e-13 -4.06145e-13 -2.9506e-13 0 0 5.87642e-13 -6.12168e-13 -2.22598e-13 -5.1224e-13 0 0 4.5058e-13 -5.19543e-13 -2.1722e-13 -5.72961e-13 0 0 2.79974e-13 -3.91912e-13 -2.79167e-13 -5.26361e-13 0 0 1.38917e-13 -2.2886e-13 -4.04538e-13 -4.0047e-13 0 0 3.36815e-14 -1.15715e-13 -5.19954e-13 -2.90917e-13 0 0 -1.76083e-14 -9.94267e-14 -5.18753e-13 -2.80659e-13 0 0 -6.60723e-14 -8.51902e-14 -5.3224e-13 -2.42066e-13 0 0 -1.27226e-13 -5.85888e-14 -5.68514e-13 -1.59716e-13 0 0 -1.82527e-13 -8.02013e-14 -5.14771e-13 -1.58116e-13 0 0 -1.88115e-13 -1.02254e-13 -4.60477e-13 -1.97354e-13 0 0 -1.67132e-13 -1.88556e-13 -3.52516e-13 -2.53427e-13 0 0 -1.62103e-13 -2.8773e-13 -2.17194e-13 -3.01676e-13 0 0 -1.73717e-13 -3.08737e-13 -1.73152e-13 -3.51988e-13 0 0 -1.98953e-13 -3.20631e-13 -1.49136e-13 -3.63848e-13 0 0 -2.25653e-13 -2.89984e-13 -1.9127e-13 -3.21114e-13 0 0 -2.49814e-13 -2.27356e-13 -2.75072e-13 -2.47798e-13 0 0 -2.54892e-13 -1.77399e-13 -3.58272e-13 -1.88945e-13 0 0 -2.4183e-13 -1.61044e-13 -3.61089e-13 -1.80747e-13 0 0 -1.98708e-13 -1.84134e-13 -3.45828e-13 -1.13624e-13 0 0 -1.82415e-13 -1.97665e-13 -3.46508e-13 2.28646e-15 0 0 -1.82897e-13 -2.06376e-13 -3.05005e-13 -8.29572e-15 0 0 -1.68241e-13 -2.24818e-13 -2.22206e-13 -5.104e-14 0 0 -1.88763e-13 -1.75725e-13 -2.19094e-13 -7.69293e-14 0 0 -2.11011e-13 -1.22416e-13 -2.08158e-13 -9.60201e-14 0 0 -1.97124e-13 -1.47231e-13 -1.16871e-13 -1.26201e-13 0 0 -1.84664e-13 -1.82774e-13 -1.59806e-14 -1.69875e-13 0 0 -1.88486e-13 -1.68329e-13 -4.00342e-14 -1.65473e-13 0 0 -1.79032e-13 -1.82327e-13 -3.82865e-14 -1.99939e-13 0 0 -1.76352e-13 -2.14323e-13 -1.7574e-14 -1.98721e-13 0 0 -1.79376e-13 -2.52798e-13 -1.95845e-14 -2.12192e-13 0 0 -1.8245e-13 -2.70057e-13 -4.57398e-14 -2.27951e-13 0 0 -2.02375e-13 -2.61088e-13 -1.29605e-13 -1.32333e-13 0 0 -1.99537e-13 -2.67268e-13 -1.43831e-13 -7.08027e-14 0 0 -1.84023e-13 -2.65894e-13 -1.39715e-13 -1.56059e-13 0 0 -1.90497e-13 -2.16964e-13 -2.1719e-13 -1.25746e-13 0 0 -1.80889e-13 -2.14287e-13 -2.40536e-13 -1.10228e-13 0 0 -1.5952e-13 -2.17938e-13 -2.8269e-13 -1.30301e-13 0 0 -1.49728e-13 -2.25897e-13 -2.81337e-13 -1.34829e-13 0 0 -1.57552e-13 -2.60499e-13 -2.1023e-13 -2.09354e-13 0 0 -1.93179e-13 -2.68512e-13 -1.8393e-13 -2.17635e-13 0 0 -1.7969e-13 -2.8888e-13 -1.76649e-13 -1.78052e-13 0 0 -1.68943e-13 -2.82849e-13 -2.28582e-13 -1.03634e-13 0 0 -1.86868e-13 -2.76776e-13 -2.43617e-13 -9.41632e-14 0 0 -2.07445e-13 -2.92822e-13 -2.4064e-13 -9.36676e-14 0 0 -2.23838e-13 -3.29226e-13 -2.41405e-13 -6.9586e-14 0 0 -2.16507e-13 -3.8343e-13 -2.41744e-13 -8.77787e-14 0 0 -2.06662e-13 -3.92081e-13 -2.72213e-13 -1.61841e-13 0 0 -2.17918e-13 -3.72487e-13 -3.75686e-13 -2.27515e-13 0 0 -2.11223e-13 -3.76905e-13 -4.31531e-13 -3.95426e-13 0 0 -1.89045e-13 -4.05393e-13 -4.0764e-13 -5.87474e-13 0 0 -2.13338e-13 -3.67485e-13 -4.29327e-13 -5.41424e-13 0 0 -2.54079e-13 -3.2038e-13 -4.14436e-13 -4.43751e-13 0 0 -2.35148e-13 -3.5407e-13 -2.80766e-13 -3.41898e-13 0 0 -2.2688e-13 -3.62131e-13 -2.40522e-13 -5.5902e-14 0 0 -2.78377e-13 -3.37812e-13 -1.92217e-13 2.64327e-14 0 0 -2.72153e-13 -3.81358e-13 7.08112e-14 -2.75921e-13 0 0 -1.43052e-13 -3.97582e-13 1.19102e-13 -3.91359e-13 0 0 -1.40165e-13 -2.41782e-13 -1.73059e-13 -1.7146e-13 0 0 -2.57741e-13 -7.67297e-14 -3.06797e-13 -1.44192e-13 0 0 -2.24333e-13 -1.83281e-13 -1.10894e-13 -3.57671e-13 0 0 -6.97147e-14 -3.03202e-13 -1.06291e-13 -3.27282e-13 0 0 3.69038e-15 -2.72764e-13 -2.51988e-13 -2.39167e-13 0 0 -4.82379e-14 -1.93664e-13 -4.52438e-13 -1.52063e-13 0 0 -4.29095e-14 -2.55406e-13 -4.11375e-13 -1.08328e-13 0 0 -3.43072e-14 -2.95064e-13 -3.70732e-13 -6.61099e-14 0 0 -2.9174e-14 -2.87675e-13 -4.01617e-13 -6.38879e-14 0 0 8.13558e-16 -3.7617e-13 -2.55846e-13 -1.93586e-13 0 0 -7.73707e-14 -2.97843e-13 -2.61938e-13 -2.17748e-13 0 0 -1.17481e-13 -2.63278e-13 -2.41327e-13 -2.3228e-13 0 0 -1.11996e-13 -3.04251e-13 -1.29148e-13 -3.267e-13 0 0 -1.3707e-13 -2.54026e-13 -1.31451e-13 -3.48699e-13 0 0 -1.45986e-13 -2.3775e-13 -1.9941e-13 -2.36059e-13 0 0 -1.54111e-13 -2.26821e-13 -2.49001e-13 -1.0788e-13 0 0 -1.28848e-13 -2.74474e-13 -1.42904e-13 -1.45785e-13 0 0 -1.00592e-13 -3.27727e-13 -1.19641e-13 -1.00208e-13 0 0 -2.19205e-13 -1.46029e-13 -3.08894e-13 2.78227e-14 0 0 -2.44325e-13 -1.10944e-13 -2.94492e-13 -3.06116e-14 0 0 -2.05452e-13 -1.51294e-13 -2.10276e-13 -9.90122e-14 0 0 -2.22812e-13 -1.33736e-13 -1.78535e-13 -1.13609e-13 0 0 -1.74494e-13 -2.63424e-13 -3.27728e-14 -1.76937e-13 0 0 -2.39929e-13 -2.33909e-13 1.31007e-14 -2.10726e-13 0 0 -2.55206e-13 -2.17653e-13 -5.69271e-14 -2.90209e-14 0 0 -1.17519e-13 -3.76501e-13 3.83022e-15 -3.27401e-14 0 0 -7.11458e-14 -4.1166e-13 1.27356e-13 -2.32048e-13 0 0 -1.15712e-13 -3.1653e-13 4.3403e-14 -1.46282e-13 0 0 -2.68328e-13 -1.56872e-13 -6.98709e-14 -1.02592e-13 0 0 -3.08299e-13 -2.39132e-13 6.68435e-14 -2.26497e-13 0 0 -2.65966e-13 -3.35325e-13 8.63853e-14 -2.43538e-13 0 0 -2.38127e-13 -3.16994e-13 -1.40819e-14 -3.00153e-13 0 0 -3.532e-13 -1.44674e-13 -2.01047e-13 -3.24087e-13 0 0 -4.11011e-13 -1.5188e-13 -4.49199e-14 -4.89437e-13 0 0 -2.05577e-13 -6.10011e-13 5.73453e-13 -8.25994e-13 0 0 -1.00771e-13 -7.55873e-13 5.33095e-13 -6.78059e-13 0 0 -1.47958e-13 -4.41425e-13 -4.82724e-14 -2.36762e-13 0 0 -3.49299e-13 7.32096e-14 -5.50411e-13 9.9828e-15 0 0 -4.73737e-13 3.18248e-13 -7.41208e-13 3.74568e-14 0
				</DataArray>
				<DataArray Name="VitesseY" type="Float32" format="ascii">