<?xml version="1.0"?>
<VTKFile type="PolyData">
	<PolyData>
		<Piece NumberOfPoints="1206" NumberOfPolys="1000">
			<Points>
				<DataArray type="Float32" NumberOfComponents="3" format="ascii">
 0 0 0 0.02 0 0 0.04 0 0 0.06 0 0 0.08 0 0 0.1 0 0 0 0.005 0 0.02 0.005 0 0.04 0.005 0 0.06 0.005 0 0.08 0.005 0 0.1 0.005 0 0 0.01 0 0.02 0.01 0 0.04 0.01 0 0.06 0.01 0 0.08 0.01 0 0.1 0.01 0 0 0.015 0 0.02 0.015 0 0.04 0.015 0 0.06 0.015 0 0.08 0.015 0 0.1 0.015 0 0 0.02 0 0.02 0.02 0 0.04 0.02 0 0.06 0.02 0 0.08 0.02 0 0.1 0.02 0 0 0.025 0 0.02 0.025 0 0.04 0.025 0 0.06 0.025 0 0.08 0.025 0 0.1 0.025 0 0 0.03 0 0.02 0.03 0 0.04 0.03 0 0.06 0.03 0 0.08 0.03 0 0.1 0.03 0 0 0.035 0 0.02 0.035 0 0.04 0.035 0 0.06 0.035 0 0.08 0.035 0 0.1 0.035 0 0 0.04 0 0.02 0.04 0 0.04 0.04 0 0.06 0.04 0 0.08 0.04 0 0.1 0.04 0 0 0.045 0 0.02 0.045 0 0.04 0.045 0 0.06 0.045 0 0.08 0.045 0 0.1 0.045 0 0 0.05 0 0.02 0.05 0 0.04 0.05 0 0.06 0.05 0 0.08 0.05 0 0.1 0.05 0 0 0.055 0 0.02 0.055 0 0.04 0.055 0 0.06 0.055 0 0.08 0.055 0 0.1 0.055 0 0 0.06 0 0.02 0.06 0 0.04 0.06 0 0.06 0.06 0 0.08 0.06 0 0.1 0.06 0 0 0.065 0 0.02 0.065 0 0.04 0.065 0 0.06 0.065 0 0.08 0.065 0 0.1 0.065 0 0 0.07 0 0.02 0.07 0 0.04 0.07 0 0.06 0.07 0 0.08 0.07 0 0.1 0.07 0 0 0.075 0 0.02 0.075 0 0.04 0.075 0 0.06 0.075 0 0.08 0.075 0 0.1 0.075 0 0 0.08 0 0.02 0.08 0 0.04 0.08 0 0.06 0.08 0 0.08 0.08 0 0.1 0.08 0 0 0.085 0 0.02 0.085 0 0.04 0.085 0 0.06 0.085 0 0.08 0.085 0 0.1 0.085 0 0 0.09 0 0.02 0.09 0 0.04 0.09 0 0.06 0.09 0 0.08 0.09 0 0.1 0.09 0 0 0.095 0 0.02 0.095 0 0.04 0.095 0 0.06 0.095 0 0.08 0.095 0 0.1 0.095 0 0 0.1 0 0.02 0.1 0 0.04 0.1 0 0.06 0.1 0 0.08 0.1 0 0.1 0.1 0 0 0.105 0 0.02 0.105 0 0.04 0.105 0 0.06 0.105 0 0.08 0.105 0 0.1 0.105 0 0 0.11 0 0.02 0.11 0 0.04 0.11 0 0.06 0.11 0 0.08 0.11 0 0.1 0.11 0 0 0.115 0 0.02 0.115 0 0.04 0.115 0 0.06 0.115 0 0.08 0.115 0 0.1 0.115 0 0 0.12 0 0.02 0.12 0 0.04 0.12 0 0.06 0.12 0 0.08 0.12 0 0.1 0.12 0 0 0.125 0 0.02 0.125 0 0.04 0.125 0 0.06 0.125 0 0.08 0.125 0 0.1 0.125 0 0 0.13 0 0.02 0.13 0 0.04 0.13 0 0.06 0.13 0 0.08 0.13 0 0.1 0.13 0 0 0.135 0 0.02 0.135 0 0.04 0.135 0 0.06 0.135 0 0.08 0.135 0 0.1 0.135 0 0 0.14 0 0.02 0.14 0 0.04 0.14 0 0.06 0.14 0 0.08 0.14 0 0.1 0.14 0 0 0.145 0 0.02 0.145 0 0.04 0.145 0 0.06 0.145 0 0.08 0.145 0 0.1 0.145 0 0 0.15 0 0.02 0.15 0 0.04 0.15 0 0.06 0.15 0 0.08 0.15 0 0.1 0.15 0 0 0.155 0 0.02 0.155 0 0.04 0.155 0 0.06 0.155 0 0.08 0.155 0 0.1 0.155 0 0 0.16 0 0.02 0.16 0 0.04 0.16 0 0.06 0.16 0 0.08 0.16 0 0.1 0.16 0 0 0.165 0 0.02 0.165 0 0.04 0.165 0 0.06 0.165 0 0.08 0.165 0 0.1 0.165 0 0 0.17 0 0.02 0.17 0 0.04 0.17 0 0.06 0.17 0 0.08 0.17 0 0.1 0.17 0 0 0.175 0 0.02 0.175 0 0.04 0.175 0 0.06 0.175 0 0.08 0.175 0 0.1 0.175 0 0 0.18 0 0.02 0.18 0 0.04 0.18 0 0.06 0.18 0 0.08 0.18 0 0.1 0.18 0 0 0.185 0 0.02 0.185 0 0.04 0.185 0 0.06 0.185 0 0.08 0.185 0 0.1 0.185 0 0 0.19 0 0.02 0.19 0 0.04 0.19 0 0.06 0.19 0 0.08 0.19 0 0.1 0.19 0 0 0.195 0 0.02 0.195 0 0.04 0.195 0 0.06 0.195 0 0.08 0.195 0 0.1 0.195 0 0 0.2 0 0.02 0.2 0 0.04 0.2 0 0.06 0.2 0 0.08 0.2 0 0.1 0.2 0 0 0.205 0 0.02 0.205 0 0.04 0.205 0 0.06 0.205 0 0.08 0.205 0 0.1 0.205 0 0 0.21 0 0.02 0.21 0 0.04 0.21 0 0.06 0.21 0 0.08 0.21 0 0.1 0.21 0 0 0.215 0 0.02 0.215 0 0.04 0.215 0 0.06 0.215 0 0.08 0.215 0 0.1 0.215 0 0 0.22 0 0.02 0.22 0 0.04 0.22 0 0.06 0.22 0 0.08 0.22 0 0.1 0.22 0 0 0.225 0 0.02 0.225 0 0.04 0.225 0 0.06 0.225 0 0.08 0.225 0 0.1 0.225 0 0 0.23 0 0.02 0.23 0 0.04 0.23 0 0.06 0.23 0 0.08 0.23 0 0.1 0.23 0 0 0.235 0 0.02 0.235 0 0.04 0.235 0 0.06 0.235 0 0.08 0.235 0 0.1 0.235 0 0 0.24 0 0.02 0.24 0 0.04 0.24 0 0.06 0.24 0 0.08 0.24 0 0.1 0.24 0 0 0.245 0 0.02 0.245 0 0.04 0.245 0 0.06 0.245 0 0.08 0.245 0 0.1 0.245 0 0 0.25 0 0.02 0.25 0 0.04 0.25 0 0.06 0.25 0 0.08 0.25 0 0.1 0.25 0 0 0.255 0 0.02 0.255 0 0.04 0.255 0 0.06 0.255 0 0.08 0.255 0 0.1 0.255 0 0 0.26 0 0.02 0.26 0 0.04 0.26 0 0.06 0.26 0 0.08 0.26 0 0.1 0.26 0 0 0.265 0 0.02 0.265 0 0.04 0.265 0 0.06 0.265 0 0.08 0.265 0 0.1 0.265 0 0 0.27 0 0.02 0.27 0 0.04 0.27 0 0.06 0.27 0 0.08 0.27 0 0.1 0.27 0 0 0.275 0 0.02 0.275 0 0.04 0.275 0 0.06 0.275 0 0.08 0.275 0 0.1 0.275 0 0 0.28 0 0.02 0.28 0 0.04 0.28 0 0.06 0.28 0 0.08 0.28 0 0.1 0.28 0 0 0.285 0 0.02 0.285 0 0.04 0.285 0 0.06 0.285 0 0.08 0.285 0 0.1 0.285 0 0 0.29 0 0.02 0.29 0 0.04 0.29 0 0.06 0.29 0 0.08 0.29 0 0.1 0.29 0 0 0.295 0 0.02 0.295 0 0.04 0.295 0 0.06 0.295 0 0.08 0.295 0 0.1 0.295 0 0 0.3 0 0.02 0.3 0 0.04 0.3 0 0.06 0.3 0 0.08 0.3 0 0.1 0.3 0 0 0.305 0 0.02 0.305 0 0.04 0.305 0 0.06 0.305 0 0.08 0.305 0 0.1 0.305 0 0 0.31 0 0.02 0.31 0 0.04 0.31 0 0.06 0.31 0 0.08 0.31 0 0.1 0.31 0 0 0.315 0 0.02 0.315 0 0.04 0.315 0 0.06 0.315 0 0.08 0.315 0 0.1 0.315 0 0 0.32 0 0.02 0.32 0 0.04 0.32 0 0.06 0.32 0 0.08 0.32 0 0.1 0.32 0 0 0.325 0 0.02 0.325 0 0.04 0.325 0 0.06 0.325 0 0.08 0.325 0 0.1 0.325 0 0 0.33 0 0.02 0.33 0 0.04 0.33 0 0.06 0.33 0 0.08 0.33 0 0.1 0.33 0 0 0.335 0 0.02 0.335 0 0.04 0.335 0 0.06 0.335 0 0.08 0.335 0 0.1 0.335 0 0 0.34 0 0.02 0.34 0 0.04 0.34 0 0.06 0.34 0 0.08 0.34 0 0.1 0.34 0 0 0.345 0 0.02 0.345 0 0.04 0.345 0 0.06 0.345 0 0.08 0.345 0 0.1 0.345 0 0 0.35 0 0.02 0.35 0 0.04 0.35 0 0.06 0.35 0 0.08 0.35 0 0.1 0.35 0 0 0.355 0 0.02 0.355 0 0.04 0.355 0 0.06 0.355 0 0.08 0.355 0 0.1 0.355 0 0 0.36 0 0.02 0.36 0 0.04 0.36 0 0.06 0.36 0 0.08 0.36 0 0.1 0.36 0 0 0.365 0 0.02 0.365 0 0.04 0.365 0 0.06 0.365 0 0.08 0.365 0 0.1 0.365 0 0 0.37 0 0.02 0.37 0 0.04 0.37 0 0.06 0.37 0 0.08 0.37 0 0.1 0.37 0 0 0.375 0 0.02 0.375 0 0.04 0.375 0 0.06 0.375 0 0.08 0.375 0 0.1 0.375 0 0 0.38 0 0.02 0.38 0 0.04 0.38 0 0.06 0.38 0 0.08 0.38 0 0.1 0.38 0 0 0.385 0 0.02 0.385 0 0.04 0.385 0 0.06 0.385 0 0.08 0.385 0 0.1 0.385 0 0 0.39 0 0.02 0.39 0 0.04 0.39 0 0.06 0.39 0 0.08 0.39 0 0.1 0.39 0 0 0.395 0 0.02 0.395 0 0.04 0.395 0 0.06 0.395 0 0.08 0.395 0 0.1 0.395 0 0 0.4 0 0.02 0.4 0 0.04 0.4 0 0.06 0.4 0 0.08 0.4 0 0.1 0.4 0 0 0.405 0 0.02 0.405 0 0.04 0.405 0 0.06 0.405 0 0.08 0.405 0 0.1 0.405 0 0 0.41 0 0.02 0.41 0 0.04 0.41 0 0.06 0.41 0 0.08 0.41 0 0.1 0.41 0 0 0.415 0 0.02 0.415 0 0.04 0.415 0 0.06 0.415 0 0.08 0.415 0 0.1 0.415 0 0 0.42 0 0.02 0.42 0 0.04 0.42 0 0.06 0.42 0 0.08 0.42 0 0.1 0.42 0 0 0.425 0 0.02 0.425 0 0.04 0.425 0 0.06 0.425 0 0.08 0.425 0 0.1 0.425 0 0 0.43 0 0.02 0.43 0 0.04 0.43 0 0.06 0.43 0 0.08 0.43 0 0.1 0.43 0 0 0.435 0 0.02 0.435 0 0.04 0.435 0 0.06 0.435 0 0.08 0.435 0 0.1 0.435 0 0 0.44 0 0.02 0.44 0 0.04 0.44 0 0.06 0.44 0 0.08 0.44 0 0.1 0.44 0 0 0.445 0 0.02 0.445 0 0.04 0.445 0 0.06 0.445 0 0.08 0.445 0 0.1 0.445 0 0 0.45 0 0.02 0.45 0 0.04 0.45 0 0.06 0.45 0 0.08 0.45 0 0.1 0.45 0 0 0.455 0 0.02 0.455 0 0.04 0.455 0 0.06 0.455 0 0.08 0.455 0 0.1 0.455 0 0 0.46 0 0.02 0.46 0 0.04 0.46 0 0.06 0.46 0 0.08 0.46 0 0.1 0.46 0 0 0.465 0 0.02 0.465 0 0.04 0.465 0 0.06 0.465 0 0.08 0.465 0 0.1 0.465 0 0 0.47 0 0.02 0.47 0 0.04 0.47 0 0.06 0.47 0 0.08 0.47 0 0.1 0.47 0 0 0.475 0 0.02 0.475 0 0.04 0.475 0 0.06 0.475 0 0.08 0.475 0 0.1 0.475 0 0 0.48 0 0.02 0.48 0 0.04 0.48 0 0.06 0.48 0 0.08 0.48 0 0.1 0.48 0 0 0.485 0 0.02 0.485 0 0.04 0.485 0 0.06 0.485 0 0.08 0.485 0 0.1 0.485 0 0 0.49 0 0.02 0.49 0 0.04 0.49 0 0.06 0.49 0 0.08 0.49 0 0.1 0.49 0 0 0.495 0 0.02 0.495 0 0.04 0.495 0 0.06 0.495 0 0.08 0.495 0 0.1 0.495 0 0 0.5 0 0.02 0.5 0 0.04 0.5 0 0.06 0.5 0 0.08 0.5 0 0.1 0.5 0 0 0.505 0 0.02 0.505 0 0.04 0.505 0 0.06 0.505 0 0.08 0.505 0 0.1 0.505 0 0 0.51 0 0.02 0.51 0 0.04 0.51 0 0.06 0.51 0 0.08 0.51 0 0.1 0.51 0 0 0.515 0 0.02 0.515 0 0.04 0.515 0 0.06 0.515 0 0.08 0.515 0 0.1 0.515 0 0 0.52 0 0.02 0.52 0 0.04 0.52 0 0.06 0.52 0 0.08 0.52 0 0.1 0.52 0 0 0.525 0 0.02 0.525 0 0.04 0.525 0 0.06 0.525 0 0.08 0.525 0 0.1 0.525 0 0 0.53 0 0.02 0.53 0 0.04 0.53 0 0.06 0.53 0 0.08 0.53 0 0.1 0.53 0 0 0.535 0 0.02 0.535 0 0.04 0.535 0 0.06 0.535 0 0.08 0.535 0 0.1 0.535 0 0 0.54 0 0.02 0.54 0 0.04 0.54 0 0.06 0.54 0 0.08 0.54 0 0.1 0.54 0 0 0.545 0 0.02 0.545 0 0.04 0.545 0 0.06 0.545 0 0.08 0.545 0 0.1 0.545 0 0 0.55 0 0.02 0.55 0 0.04 0.55 0 0.06 0.55 0 0.08 0.55 0 0.1 0.55 0 0 0.555 0 0.02 0.555 0 0.04 0.555 0 0.06 0.555 0 0.08 0.555 0 0.1 0.555 0 0 0.56 0 0.02 0.56 0 0.04 0.56 0 0.06 0.56 0 0.08 0.56 0 0.1 0.56 0 0 0.565 0 0.02 0.565 0 0.04 0.565 0 0.06 0.565 0 0.08 0.565 0 0.1 0.565 0 0 0.57 0 0.02 0.57 0 0.04 0.57 0 0.06 0.57 0 0.08 0.57 0 0.1 0.57 0 0 0.575 0 0.02 0.575 0 0.04 0.575 0 0.06 0.575 0 0.08 0.575 0 0.1 0.575 0 0 0.58 0 0.02 0.58 0 0.04 0.58 0 0.06 0.58 0 0.08 0.58 0 0.1 0.58 0 0 0.585 0 0.02 0.585 0 0.04 0.585 0 0.06 0.585 0 0.08 0.585 0 0.1 0.585 0 0 0.59 0 0.02 0.59 0 0.04 0.59 0 0.06 0.59 0 0.08 0.59 0 0.1 0.59 0 0 0.595 0 0.02 0.595 0 0.04 0.595 0 0.06 0.595 0 0.08 0.595 0 0.1 0.595 0 0 0.6 0 0.02 0.6 0 0.04 0.6 0 0.06 0.6 0 0.08 0.6 0 0.1 0.6 0 0 0.605 0 0.02 0.605 0 0.04 0.605 0 0.06 0.605 0 0.08 0.605 0 0.1 0.605 0 0 0.61 0 0.02 0.61 0 0.04 0.61 0 0.06 0.61 0 0.08 0.61 0 0.1 0.61 0 0 0.615 0 0.02 0.615 0 0.04 0.615 0 0.06 0.615 0 0.08 0.615 0 0.1 0.615 0 0 0.62 0 0.02 0.62 0 0.04 0.62 0 0.06 0.62 0 0.08 0.62 0 0.1 0.62 0 0 0.625 0 0.02 0.625 0 0.04 0.625 0 0.06 0.625 0 0.08 0.625 0 0.1 0.625 0 0 0.63 0 0.02 0.63 0 0.04 0.63 0 0.06 0.63 0 0.08 0.63 0 0.1 0.63 0 0 0.635 0 0.02 0.635 0 0.04 0.635 0 0.06 0.635 0 0.08 0.635 0 0.1 0.635 0 0 0.64 0 0.02 0.64 0 0.04 0.64 0 0.06 0.64 0 0.08 0.64 0 0.1 0.64 0 0 0.645 0 0.02 0.645 0 0.04 0.645 0 0.06 0.645 0 0.08 0.645 0 0.1 0.645 0 0 0.65 0 0.02 0.65 0 0.04 0.65 0 0.06 0.65 0 0.08 0.65 0 0.1 0.65 0 0 0.655 0 0.02 0.655 0 0.04 0.655 0 0.06 0.655 0 0.08 0.655 0 0.1 0.655 0 0 0.66 0 0.02 0.66 0 0.04 0.66 0 0.06 0.66 0 0.08 0.66 0 0.1 0.66 0 0 0.665 0 0.02 0.665 0 0.04 0.665 0 0.06 0.665 0 0.08 0.665 0 0.1 0.665 0 0 0.67 0 0.02 0.67 0 0.04 0.67 0 0.06 0.67 0 0.08 0.67 0 0.1 0.67 0 0 0.675 0 0.02 0.675 0 0.04 0.675 0 0.06 0.675 0 0.08 0.675 0 0.1 0.675 0 0 0.68 0 0.02 0.68 0 0.04 0.68 0 0.06 0.68 0 0.08 0.68 0 0.1 0.68 0 0 0.685 0 0.02 0.685 0 0.04 0.685 0 0.06 0.685 0 0.08 0.685 0 0.1 0.685 0 0 0.69 0 0.02 0.69 0 0.04 0.69 0 0.06 0.69 0 0.08 0.69 0 0.1 
[...]
			<PointData Scalars="VitesseX">
				<DataArray Name="VitesseX" type="Float32" format="ascii">
 0 -1.61702e-14 -1.38444e-14 1.57317e-14 9.36889e-15 0 0 -1.57827e-14 -1.29572e-14 1.467e-14 1.11389e-14 0 0 -1.10958e-14 -1.30967e-14 1.24845e-14 1.32987e-14 0 0 -5.50435e-17 -1.83155e-14 1.39889e-14 9.6359e-15 0 0 9.82807e-15 -1.90501e-14 1.08904e-14 9.51502e-15 0 0 8.23608e-15 -4.25249e-16 -9.57948e-15 2.3039e-14 0 0 -2.61996e-15 2.5593e-14 -3.20913e-14 3.25664e-14 0 0 7.0646e-15 8.64891e-15 -6.87138e-15 1.03318e-14 0 0 1.02116e-14 1.63546e-15 1.8385e-15 5.69818e-15 0 0 1.44707e-15 1.90548e-14 -1.73372e-14 1.85211e-14 0 0 2.25829e-14 -9.02061e-15 1.38307e-14 -6.96826e-15 0 0 1.10766e-14 1.01427e-14 -6.68808e-15 -3.3384e-15 0 0 2.78031e-15 1.46621e-14 -7.4326e-15 -1.5345e-14 0 0 7.83577e-15 -9.94948e-16 1.33507e-14 -2.77402e-14 0 0 -2.3996e-14 4.04839e-14 -3.56013e-14 2.20989e-14 0 0 -3.0362e-15 -1.5501e-14 2.04214e-14 -9.37397e-15 0 0 9.3537e-15 -4.3518e-14 2.76561e-14 -6.93608e-15 0 0 -1.20642e-14 -2.11401e-14 -2.09262e-14 4.86518e-14 0 0 -8.28391e-15 -4.81703e-14 5.08715e-16 5.79508e-14 0 0 -2.3988e-14 -3.65557e-14 -4.68978e-15 6.96196e-14 0 0 -3.63336e-14 -2.77888e-14 1.51961e-14 3.77263e-14 0 0 -3.91813e-14 1.82827e-15 -1.49263e-14 3.48073e-14 0 0 -7.78195e-15 -3.20475e-14 3.51381e-14 -2.33762e-14 0 0 9.38703e-15 -5.21207e-14 8.95793e-14 -9.21326e-14 0 0 -2.81225e-14 2.49588e-14 5.65153e-15 -4.59618e-14 0 0 -1.00159e-14 -1.09262e-14 3.17092e-14 -3.74901e-14 0 0 3.13438e-14 -5.52922e-14 6.42147e-14 -3.21416e-14 0 0 4.81771e-14 -6.18011e-14 5.47885e-14 -9.64927e-15 0 0 -5.87295e-15 -1.49765e-14 4.46739e-14 -3.31028e-16 0 0 -4.78285e-14 2.32747e-14 5.78069e-14 -3.27939e-14 0 0 -7.09957e-15 -3.75297e-14 1.20861e-13 -1.04677e-13 0 0 -3.21325e-15 -2.65316e-14 5.53828e-14 -6.15821e-14 0 0 -1.50152e-14 1.12087e-14 -4.13128e-14 2.64393e-14 0 0 7.40968e-15 -3.14812e-14 -3.11868e-14 4.70644e-14 0 0 -6.76992e-15 -1.43764e-14 -4.3682e-14 5.56997e-14 0 0 -3.85832e-14 2.34089e-14 -3.00678e-14 3.11485e-14 0 0 -3.83003e-14 1.82777e-14 1.62465e-16 1.37778e-14 0 0 -3.22092e-14 4.64962e-14 -3.38131e-14 4.77164e-14 0 0 -3.32441e-15 2.29972e-14 -1.06159e-14 4.40527e-14 0 0 -1.13076e-14 3.44845e-14 -7.11112e-15 2.31018e-14 0 0 5.41072e-14 -4.42131e-14 6.13525e-14 -5.21622e-14 0 0 6.01444e-14 -1.50723e-14 1.66161e-15 -7.08654e-14 0 0 2.3293e-14 4.81231e-14 -7.68146e-14 -5.69571e-14 0 0 7.2917e-14 -4.25219e-14 1.44621e-14 -1.08043e-13 0 0 7.9945e-14 -8.10731e-14 6.45931e-14 -8.30499e-14 0 0 6.3591e-14 -7.20187e-14 5.97729e-14 -5.84741e-14 0 0 3.75047e-14 -4.94602e-14 6.63713e-14 -1.14822e-13 0 0 -1.43057e-14 3.53606e-14 -2.46822e-14 -6.64809e-14 0 0 -1.41753e-14 3.79111e-14 -5.27454e-14 -4.70052e-14 0 0 -3.47172e-14 4.99403e-14 -1.19892e-13 3.38102e-14 0 0 -6.73763e-14 1.21621e-13 -2.52407e-13 1.49971e-13 0 0 2.83504e-14 -1.41223e-14 -1.04732e-13 5.15123e-14 0 0 7.96732e-14 -1.07387e-13 2.38619e-14 -3.05024e-14 0 0 5.11668e-14 -8.64196e-14 4.12106e-14 -3.03943e-14 0 0 -7.78449e-14 1.09777e-13 -1.35098e-13 1.04709e-13 0 0 -3.76546e-14 1.26014e-13 -1.78931e-13 1.80861e-13 0 0 1.02776e-13 -7.60561e-14 2.31626e-14 7.68265e-14 0 0 -3.79697e-14 3.00651e-14 -1.04844e-14 5.41085e-14 0 0 -7.05735e-14 9.0571e-14 -2.96449e-14 1.64511e-14 0 0 1.12609e-13 -5.06575e-14 6.05822e-14 -7.09608e-14 0 0 1.05595e-13 1.08309e-14 -5.66568e-14 1.96168e-16 0 0 5.21416e-14 9.50778e-14 -7.65023e-14 -9.86826e-16 0 0 -2.81746e-14 1.33325e-13 -4.95698e-14 2.14603e-14 0 0 -3.36969e-14 7.46457e-14 -2.62474e-14 8.10409e-14 0 0 4.74205e-14 7.67194e-14 -1.36968e-13 1.18754e-13 0 0 1.20099e-13 1.94375e-14 -1.76007e-13 9.50885e-14 0 0 2.55129e-13 -1.85899e-13 -3.74471e-15 -4.59224e-14 0 0 1.62138e-13 8.28481e-14 -2.69305e-13 6.81589e-14 0 0 1.63988e-13 1.63341e-13 -3.43524e-13 1.21628e-13 0 0 2.08608e-13 -1.50276e-15 -1.33727e-13 3.1318e-15 0 0 5.27937e-14 9.60873e-14 -1.24254e-13 -4.95322e-14 0 0 -1.50712e-14 1.2459e-13 -7.32111e-14 -1.01777e-13 0 0 3.98807e-14 1.70614e-13 -1.96721e-13 -8.10791e-15 0 0 1.67636e-13 2.36664e-13 -3.99109e-13 4.77266e-14 0 0 2.7476e-13 1.54887e-13 -3.15496e-13 -1.16629e-13 0 0 2.4667e-13 1.21935e-13 -2.07169e-13 -2.01356e-13 0 0 2.12731e-13 9.26694e-14 -2.12935e-13 -7.93224e-14 0 0 1.95212e-13 3.89505e-14 -2.3798e-13 1.22681e-13 0 0 1.20638e-13 4.54604e-14 -3.85446e-13 3.7381e-13 0 0 2.70511e-14 9.78892e-14 -4.52186e-13 3.79844e-13 0 0 -7.40369e-14 9.70974e-14 -4.07966e-13 2.9055e-13 0 0 -1.71093e-13 1.3646e-13 -3.09051e-13 1.10111e-13 0 0 -2.48399e-13 1.56982e-13 -2.14233e-13 -3.39386e-14 0 0 -3.23085e-13 -1.94301e-14 2.80563e-14 -2.3471e-13 0 0 -2.77401e-13 -2.52202e-13 3.72927e-13 -5.07609e-13 0 0 -2.63789e-13 -2.84548e-13 3.16785e-13 -3.98541e-13 0 0 -2.35466e-13 -2.18887e-13 8.13223e-14 -8.57973e-14 0 0 -1.73354e-13 -1.86248e-13 -1.95667e-13 3.02668e-13 0 0 -1.89881e-13 -1.05263e-13 -5.23591e-13 5.692e-13 0 0 -3.12779e-13 6.02193e-14 -6.70543e-13 5.48995e-13 0 0 -3.50444e-13 5.36186e-14 -6.17501e-13 4.06221e-13 0 0 -2.45103e-13 -1.80241e-13 -3.76911e-13 1.37733e-13 0 0 -3.98744e-14 -5.70335e-13 -4.36011e-14 -9.95637e-14 0 0 3.1666e-15 -6.81895e-13 9.01275e-14 -2.04605e-13 0 0 -7.44455e-14 -6.3031e-13 1.19407e-13 -2.5463e-13 0 0 -3.16385e-13 -4.68382e-13 1.30993e-13 -3.03518e-13 0 0 -7.43587e-13 -1.4865e-13 8.72342e-14 -2.92615e-13 0 0 -1.02709e-12 1.00342e-13 -1.98763e-15 -2.35841e-13 0 0 -1.0327e-12 8.968e-14 -5.31886e-14 -1.69468e-13 0 0 -9.81923e-13 3.89926e-14 -6.45924e-14 -1.56819e-13 0 0 -8.55664e-13 -6.9065e-14 -3.2486e-14 -1.70324e-13 0 0 -6.4447e-13 -2.55292e-13 2.04984e-14 -2.21942e-13 0 0 -3.84411e-13 -3.70647e-13 9.86418e-15 -2.86035e-13 0 0 -1.413e-13 -5.08093e-13 5.09828e-14 -2.85012e-13 0 0 -2.08888e-16 -5.8991e-13 4.47738e-14 -1.70502e-13 0 0 5.46144e-15 -5.3855e-13 -5.79294e-14 1.80242e-14 0 0 -2.76901e-14 -4.04127e-13 -1.22009e-13 6.99108e-14 0 0 -9.48422e-14 -2.34825e-13 -1.03218e-13 9.41219e-14 0 0 -1.1745e-13 -1.15819e-13 -6.39964e-14 1.20611e-13 0 0 -9.04948e-14 -8.32788e-14 1.53425e-14 7.16674e-14 0 0 -3.18003e-14 -8.84567e-14 8.68938e-14 5.92234e-14 0 0 2.78223e-14 -1.06102e-13 1.1326e-13 1.38328e-13 0 0 1.18289e-13 -1.48506e-13 1.23549e-13 2.31139e-13 0 0 2.01286e-13 -1.42295e-13 8.64053e-14 3.06859e-13 0 0 1.89387e-13 -6.4185e-14 -2.12616e-14 4.28094e-13 0 0 1.58243e-13 -1.16014e-14 -3.35285e-14 4.72404e-13 0 0 1.55918e-13 -1.59015e-14 5.87487e-14 3.6758e-13 0 0 1.44956e-13 1.60833e-14 8.96163e-14 3.02617e-13 0 0 1.54316e-13 1.68967e-14 1.13531e-13 2.89296e-13 0 0 1.71432e-13 5.56184e-15 1.66306e-13 1.99694e-13 0 0 1.45682e-13 9.97058e-14 9.0491e-14 1.83735e-13 0 0 1.48731e-13 1.71009e-13 -6.57522e-15 1.85523e-13 0 0 1.80056e-13 1.5016e-13 3.70201e-14 9.96029e-14 0 0 1.89471e-13 1.40323e-13 7.21661e-14 3.39096e-14 0 0 1.85866e-13 1.25906e-13 9.60074e-14 2.88879e-14 0 0 1.88666e-13 8.821e-14 1.47401e-13 2.45293e-14 0 0 1.88514e-13 3.61435e-14 1.87498e-13 -1.4839e-14 0 0 1.17551e-13 6.31273e-14 1.45019e-13 -6.9768e-15 0 0 7.22341e-14 8.29399e-14 1.24323e-13 3.13179e-15 0 0 6.86853e-14 5.19289e-14 7.7834e-14 1.0648e-14 0 0 7.05669e-14 5.96198e-14 -1.9559e-14 5.15209e-14 0 0 8.17461e-14 3.56559e-14 7.08226e-16 -1.4876e-14 0 0 5.8724e-14 -2.12636e-15 6.59644e-14 -9.95431e-14 0 0 4.10279e-14 1.39904e-14 1.44371e-14 -9.24517e-14 0 0 5.65147e-14 2.35768e-14 -4.28525e-14 -7.85931e-14 0 0 5.08263e-14 3.21111e-14 -8.61927e-14 -5.12144e-14 0 0 3.02547e-14 2.59538e-14 -7.78665e-14 -7.77947e-14 0 0 2.02345e-14 2.08608e-14 -6.34346e-14 -1.3055e-13 0 0 -3.59159e-15 2.20826e-14 -8.26704e-15 -2.50628e-13 0 0 -6.71319e-14 8.63949e-15 5.04316e-14 -2.6545e-13 0 0 -8.72151e-14 -2.82062e-15 -1.43506e-14 -1.06265e-13 0 0 -1.06526e-13 -3.91637e-14 1.94462e-14 -7.31812e-14 0 0 -1.1664e-13 -4.34991e-14 -1.81005e-15 -6.64598e-15 0 0 -9.97771e-14 -7.89038e-14 -5.39793e-14 9.15017e-14 0 0 -7.17158e-14 -1.69034e-13 -1.10898e-14 1.97947e-14 0 0 -5.97219e-14 -2.31274e-13 6.09741e-14 -1.02439e-13 0 0 -5.62133e-14 -2.30065e-13 6.6586e-14 -1.57832e-13 0 0 -2.91109e-14 -1.95693e-13 -1.53084e-14 -1.57173e-13 0 0 -7.72941e-16 -1.61499e-13 -1.26701e-13 -2.89106e-13 0 0 -2.29552e-14 -1.0283e-13 -1.12579e-13 -4.38153e-13 0 0 -1.39839e-14 -3.78701e-14 -1.28992e-13 -7.41636e-14 0 0 2.69623e-14 -1.32655e-15 -4.78678e-14 3.89753e-13 0 0 5.07423e-14 3.66465e-14 1.2958e-13 2.21606e-13 0 0 8.10392e-14 5.44369e-14 1.45004e-13 1.7588e-13 0 0 7.36487e-14 9.92187e-14 1.15139e-13 1.71352e-13 0 0 7.16008e-14 1.14263e-13 1.44845e-13 1.12307e-13 0 0 7.36411e-14 1.24088e-13 1.61678e-13 7.30654e-14 0 0 1.61925e-14 2.4768e-13 1.27329e-14 1.77807e-13 0 0 8.44777e-15 1.83762e-13 1.05101e-13 1.16428e-13 0 0 2.95187e-14 6.96337e-14 2.45137e-13 4.97365e-14 0 0 4.22143e-14 1.23511e-14 2.8792e-13 1.34001e-13 0 0 4.19496e-14 -3.94034e-14 2.92501e-13 2.22179e-13 0 0 -6.00691e-14 6.999e-14 1.60658e-13 3.31782e-13 0 0 -1.10575e-13 1.58594e-13 7.20586e-14 3.6068e-13 0 0 -6.58117e-14 1.36874e-13 1.06543e-13 2.73634e-13 0 0 1.87986e-14 4.58537e-14 1.82548e-13 3.14614e-13 0 0 6.57136e-15 9.75188e-14 1.74335e-13 3.25493e-13 0 0 6.69126e-15 1.17553e-13 2.32399e-13 1.90677e-13 0 0 8.09201e-14 1.39677e-14 3.31873e-13 1.70097e-13 0 0 1.10969e-13 3.90134e-14 3.27966e-13 1.98082e-13 0 0 6.20476e-14 2.19339e-13 1.58663e-13 3.05864e-13 0 0 8.9872e-14 2.13198e-13 1.68805e-13 2.80602e-13 0 0 1.73545e-13 8.57984e-14 3.46862e-13 1.43857e-13 0 0 1.56234e-13 9.05578e-14 4.0734e-13 1.31616e-13 0 0 1.4806e-13 2.00504e-13 2.75028e-13 2.38398e-13 0 0 2.38897e-13 2.38463e-13 1.96883e-13 1.94769e-13 0 0 2.49613e-13 3.27064e-13 1.08358e-13 1.67078e-13 0 0 1.34071e-13 4.84486e-13 7.02065e-14 2.32065e-13 0 0 1.74923e-13 3.20156e-13 3.70412e-13 9.18747e-14 0 0 1.28662e-13 3.43365e-13 5.13238e-13 -1.71153e-13 0 0 -3.49095e-14 5.54021e-13 4.06879e-13 -1.63254e-13 0 0 -4.58573e-14 5.73003e-13 1.03233e-13 2.90123e-13 0 0 1.50473e-13 2.49069e-13 1.75334e-13 4.70797e-13 0 0 1.17126e-13 2.84903e-13 2.28972e-13 3.36413e-13 0 0 -3.3908e-14 5.63009e-13 6.54078e-14 2.0845e-13 0 0 6.37594e-14 4.02596e-13 2.54742e-13 7.42391e-14 0 0 -4.5485e-15 5.46146e-13 1.27366e-13 1.59139e-13 0 0 5.31834e-14 4.8476e-13 1.29975e-13 2.16026e-13 0 0 3.05182e-13 4.35704e-14 5.15206e-13 7.68662e-14 0 0 6.7904e-14 3.54299e-13 1.02099e-13 3.98852e-13 0 0 -1.1708e-13 5.42447e-13 -7.56769e-14 4.09883e-13 0 0 4.74723e-14 3.06017e-13 1.62341e-13 1.50626e-13 0 0 -1.4777e-13 7.00058e-13 -2.83756e-13 4.31512e-13 0 0 -5.23852e-14 4.745e-13 1.71767e-13 5.06024e-14 0 0 2.30221e-13 1.32387e-15 6.38146e-13 -1.28883e-13 0 0 2.76938e-13 -1.61982e-13 6.38681e-13 4.49502e-14 0 0 2.58119e-13 -2.26116e-13 5.84084e-13 7.34099e-14 0 0 -2.22969e-14 2.48731e-13 1.54811e-13 1.83354e-13 0 0 -3.51111e-14 5.22059e-13 -1.29597e-13 2.50836e-13 0 0 1.51398e-13 5.04861e-13 -4.38495e-13 5.46708e-13 0 0 2.11608e-13 4.27163e-13 -5.10774e-13 6.53747e-13 0
				</DataArray>
				<DataArray Name="VitesseY" type="Float32" format="ascii">