<?xml version="1.0"?>
<VTKFile type="PolyData">
	<PolyData>
		<Piece NumberOfPoints="1206" NumberOfPolys="1000">
			<Points>
				<DataArray type="Float32" NumberOfComponents="3" format="ascii">
 0 0 0 0.02 0 0 0.04 0 0 0.06 0 0 0.08 0 0 0.1 0 0 0 0.005 0 0.02 0.005 0 0.04 0.005 0 0.06 0.005 0 0.08 0.005 0 0.1 0.005 0 0 0.01 0 0.02 0.01 0 0.04 0.01 0 0.06 0.01 0 0.08 0.01 0 0.1 0.01 0 0 0.015 0 0.02 0.015 0 0.04 0.015 0 0.06 0.015 0 0.08 0.015 0 0.1 0.015 0 0 0.02 0 0.02 0.02 0 0.04 0.02 0 0.06 0.02 0 0.08 0.02 0 0.1 0.02 0 0 0.025 0 0.02 0.025 0 0.04 0.025 0 0.06 0.025 0 0.08 0.025 0 0.1 0.025 0 0 0.03 0 0.02 0.03 0 0.04 0.03 0 0.06 0.03 0 0.08 0.03 0 0.1 0.03 0 0 0.035 0 0.02 0.035 0 0.04 0.035 0 0.06 0.035 0 0.08 0.035 0 0.1 0.035 0 0 0.04 0 0.02 0.04 0 0.04 0.04 0 0.06 0.04 0 0.08 0.04 0 0.1 0.04 0 0 0.045 0 0.02 0.045 0 0.04 0.045 0 0.06 0.045 0 0.08 0.045 0 0.1 0.045 0 0 0.05 0 0.02 0.05 0 0.04 0.05 0 0.06 0.05 0 0.08 0.05 0 0.1 0.05 0 0 0.055 0 0.02 0.055 0 0.04 0.055 0 0.06 0.055 0 0.08 0.055 0 0.1 0.055 0 0 0.06 0 0.02 0.06 0 0.04 0.06 0 0.06 0.06 0 0.08 0.06 0 0.1 0.06 0 0 0.065 0 0.02 0.065 0 0.04 0.065 0 0.06 0.065 0 0.08 0.065 0 0.1 0.065 0 0 0.07 0 0.02 0.07 0 0.04 0.07 0 0.06 0.07 0 0.08 0.07 0 0.1 0.07 0 0 0.075 0 0.02 0.075 0 0.04 0.075 0 0.06 0.075 0 0.08 0.075 0 0.1 0.075 0 0 0.08 0 0.02 0.08 0 0.04 0.08 0 0.06 0.08 0 0.08 0.08 0 0.1 0.08 0 0 0.085 0 0.02 0.085 0 0.04 0.085 0 0.06 0.085 0 0.08 0.085 0 0.1 0.085 0 0 0.09 0 0.02 0.09 0 0.04 0.09 0 0.06 0.09 0 0.08 0.09 0 0.1 0.09 0 0 0.095 0 0.02 0.095 0 0.04 0.095 0 0.06 0.095 0 0.08 0.095 0 0.1 0.095 0 0 0.1 0 0.02 0.1 0 0.04 0.1 0 0.06 0.1 0 0.08 0.1 0 0.1 0.1 0 0 0.105 0 0.02 0.105 0 0.04 0.105 0 0.06 0.105 0 0.08 0.105 0 0.1 0.105 0 0 0.11 0 0.02 0.11 0 0.04 0.11 0 0.06 0.11 0 0.08 0.11 0 0.1 0.11 0 0 0.115 0 0.02 0.115 0 0.04 0.115 0 0.06 0.115 0 0.08 0.115 0 0.1 0.115 0 0 0.12 0 0.02 0.12 0 0.04 0.12 0 0.06 0.12 0 0.08 0.12 0 0.1 0.12 0 0 0.125 0 0.02 0.125 0 0.04 0.125 0 0.06 0.125 0 0.08 0.125 0 0.1 0.125 0 0 0.13 0 0.02 0.13 0 0.04 0.13 0 0.06 0.13 0 0.08 0.13 0 0.1 0.13 0 0 0.135 0 0.02 0.135 0 0.04 0.135 0 0.06 0.135 0 0.08 0.135 0 0.1 0.135 0 0 0.14 0 0.02 0.14 0 0.04 0.14 0 0.06 0.14 0 0.08 0.14 0 0.1 0.14 0 0 0.145 0 0.02 0.145 0 0.04 0.145 0 0.06 0.145 0 0.08 0.145 0 0.1 0.145 0 0 0.15 0 0.02 0.15 0 0.04 0.15 0 0.06 0.15 0 0.08 0.15 0 0.1 0.15 0 0 0.155 0 0.02 0.155 0 0.04 0.155 0 0.06 0.155 0 0.08 0.155 0 0.1 0.155 0 0 0.16 0 0.02 0.16 0 0.04 0.16 0 0.06 0.16 0 0.08 0.16 0 0.1 0.16 0 0 0.165 0 0.02 0.165 0 0.04 0.165 0 0.06 0.165 0 0.08 0.165 0 0.1 0.165 0 0 0.17 0 0.02 0.17 0 0.04 0.17 0 0.06 0.17 0 0.08 0.17 0 0.1 0.17 0 0 0.175 0 0.02 0.175 0 0.04 0.175 0 0.06 0.175 0 0.08 0.175 0 0.1 0.175 0 0 0.18 0 0.02 0.18 0 0.04 0.18 0 0.06 0.18 0 0.08 0.18 0 0.1 0.18 0 0 0.185 0 0.02 0.185 0 0.04 0.185 0 0.06 0.185 0 0.08 0.185 0 0.1 0.185 0 0 0.19 0 0.02 0.19 0 0.04 0.19 0 0.06 0.19 0 0.08 0.19 0 0.1 0.19 0 0 0.195 0 0.02 0.195 0 0.04 0.195 0 0.06 0.195 0 0.08 0.195 0 0.1 0.195 0 0 0.2 0 0.02 0.2 0 0.04 0.2 0 0.06 0.2 0 0.08 0.2 0 0.1 0.2 0 0 0.205 0 0.02 0.205 0 0.04 0.205 0 0.06 0.205 0 0.08 0.205 0 0.1 0.205 0 0 0.21 0 0.02 0.21 0 0.04 0.21 0 0.06 0.21 0 0.08 0.21 0 0.1 0.21 0 0 0.215 0 0.02 0.215 0 0.04 0.215 0 0.06 0.215 0 0.08 0.215 0 0.1 0.215 0 0 0.22 0 0.02 0.22 0 0.04 0.22 0 0.06 0.22 0 0.08 0.22 0 0.1 0.22 0 0 0.225 0 0.02 0.225 0 0.04 0.225 0 0.06 0.225 0 0.08 0.225 0 0.1 0.225 0 0 0.23 0 0.02 0.23 0 0.04 0.23 0 0.06 0.23 0 0.08 0.23 0 0.1 0.23 0 0 0.235 0 0.02 0.235 0 0.04 0.235 0 0.06 0.235 0 0.08 0.235 0 0.1 0.235 0 0 0.24 0 0.02 0.24 0 0.04 0.24 0 0.06 0.24 0 0.08 0.24 0 0.1 0.24 0 0 0.245 0 0.02 0.245 0 0.04 0.245 0 0.06 0.245 0 0.08 0.245 0 0.1 0.245 0 0 0.25 0 0.02 0.25 0 0.04 0.25 0 0.06 0.25 0 0.08 0.25 0 0.1 0.25 0 0 0.255 0 0.02 0.255 0 0.04 0.255 0 0.06 0.255 0 0.08 0.255 0 0.1 0.255 0 0 0.26 0 0.02 0.26 0 0.04 0.26 0 0.06 0.26 0 0.08 0.26 0 0.1 0.26 0 0 0.265 0 0.02 0.265 0 0.04 0.265 0 0.06 0.265 0 0.08 0.265 0 0.1 0.265 0 0 0.27 0 0.02 0.27 0 0.04 0.27 0 0.06 0.27 0 0.08 0.27 0 0.1 0.27 0 0 0.275 0 0.02 0.275 0 0.04 0.275 0 0.06 0.275 0 0.08 0.275 0 0.1 0.275 0 0 0.28 0 0.02 0.28 0 0.04 0.28 0 0.06 0.28 0 0.08 0.28 0 0.1 0.28 0 0 0.285 0 0.02 0.285 0 0.04 0.285 0 0.06 0.285 0 0.08 0.285 0 0.1 0.285 0 0 0.29 0 0.02 0.29 0 0.04 0.29 0 0.06 0.29 0 0.08 0.29 0 0.1 0.29 0 0 0.295 0 0.02 0.295 0 0.04 0.295 0 0.06 0.295 0 0.08 0.295 0 0.1 0.295 0 0 0.3 0 0.02 0.3 0 0.04 0.3 0 0.06 0.3 0 0.08 0.3 0 0.1 0.3 0 0 0.305 0 0.02 0.305 0 0.04 0.305 0 0.06 0.305 0 0.08 0.305 0 0.1 0.305 0 0 0.31 0 0.02 0.31 0 0.04 0.31 0 0.06 0.31 0 0.08 0.31 0 0.1 0.31 0 0 0.315 0 0.02 0.315 0 0.04 0.315 0 0.06 0.315 0 0.08 0.315 0 0.1 0.315 0 0 0.32 0 0.02 0.32 0 0.04 0.32 0 0.06 0.32 0 0.08 0.32 0 0.1 0.32 0 0 0.325 0 0.02 0.325 0 0.04 0.325 0 0.06 0.325 0 0.08 0.325 0 0.1 0.325 0 0 0.33 0 0.02 0.33 0 0.04 0.33 0 0.06 0.33 0 0.08 0.33 0 0.1 0.33 0 0 0.335 0 0.02 0.335 0 0.04 0.335 0 0.06 0.335 0 0.08 0.335 0 0.1 0.335 0 0 0.34 0 0.02 0.34 0 0.04 0.34 0 0.06 0.34 0 0.08 0.34 0 0.1 0.34 0 0 0.345 0 0.02 0.345 0 0.04 0.345 0 0.06 0.345 0 0.08 0.345 0 0.1 0.345 0 0 0.35 0 0.02 0.35 0 0.04 0.35 0 0.06 0.35 0 0.08 0.35 0 0.1 0.35 0 0 0.355 0 0.02 0.355 0 0.04 0.355 0 0.06 0.355 0 0.08 0.355 0 0.1 0.355 0 0 0.36 0 0.02 0.36 0 0.04 0.36 0 0.06 0.36 0 0.08 0.36 0 0.1 0.36 0 0 0.365 0 0.02 0.365 0 0.04 0.365 0 0.06 0.365 0 0.08 0.365 0 0.1 0.365 0 0 0.37 0 0.02 0.37 0 0.04 0.37 0 0.06 0.37 0 0.08 0.37 0 0.1 0.37 0 0 0.375 0 0.02 0.375 0 0.04 0.375 0 0.06 0.375 0 0.08 0.375 0 0.1 0.375 0 0 0.38 0 0.02 0.38 0 0.04 0.38 0 0.06 0.38 0 0.08 0.38 0 0.1 0.38 0 0 0.385 0 0.02 0.385 0 0.04 0.385 0 0.06 0.385 0 0.08 0.385 0 0.1 0.385 0 0 0.39 0 0.02 0.39 0 0.04 0.39 0 0.06 0.39 0 0.08 0.39 0 0.1 0.39 0 0 0.395 0 0.02 0.395 0 0.04 0.395 0 0.06 0.395 0 0.08 0.395 0 0.1 0.395 0 0 0.4 0 0.02 0.4 0 0.04 0.4 0 0.06 0.4 0 0.08 0.4 0 0.1 0.4 0 0 0.405 0 0.02 0.405 0 0.04 0.405 0 0.06 0.405 0 0.08 0.405 0 0.1 0.405 0 0 0.41 0 0.02 0.41 0 0.04 0.41 0 0.06 0.41 0 0.08 0.41 0 0.1 0.41 0 0 0.415 0 0.02 0.415 0 0.04 0.415 0 0.06 0.415 0 0.08 0.415 0 0.1 0.415 0 0 0.42 0 0.02 0.42 0 0.04 0.42 0 0.06 0.42 0 0.08 0.42 0 0.1 0.42 0 0 0.425 0 0.02 0.425 0 0.04 0.425 0 0.06 0.425 0 0.08 0.425 0 0.1 0.425 0 0 0.43 0 0.02 0.43 0 0.04 0.43 0 0.06 0.43 0 0.08 0.43 0 0.1 0.43 0 0 0.435 0 0.02 0.435 0 0.04 0.435 0 0.06 0.435 0 0.08 0.435 0 0.1 0.435 0 0 0.44 0 0.02 0.44 0 0.04 0.44 0 0.06 0.44 0 0.08 0.44 0 0.1 0.44 0 0 0.445 0 0.02 0.445 0 0.04 0.445 0 0.06 0.445 0 0.08 0.445 0 0.1 0.445 0 0 0.45 0 0.02 0.45 0 0.04 0.45 0 0.06 0.45 0 0.08 0.45 0 0.1 0.45 0 0 0.455 0 0.02 0.455 0 0.04 0.455 0 0.06 0.455 0 0.08 0.455 0 0.1 0.455 0 0 0.46 0 0.02 0.46 0 0.04 0.46 0 0.06 0.46 0 0.08 0.46 0 0.1 0.46 0 0 0.465 0 0.02 0.465 0 0.04 0.465 0 0.06 0.465 0 0.08 0.465 0 0.1 0.465 0 0 0.47 0 0.02 0.47 0 0.04 0.47 0 0.06 0.47 0 0.08 0.47 0 0.1 0.47 0 0 0.475 0 0.02 0.475 0 0.04 0.475 0 0.06 0.475 0 0.08 0.475 0 0.1 0.475 0 0 0.48 0 0.02 0.48 0 0.04 0.48 0 0.06 0.48 0 0.08 0.48 0 0.1 0.48 0 0 0.485 0 0.02 0.485 0 0.04 0.485 0 0.06 0.485 0 0.08 0.485 0 0.1 0.485 0 0 0.49 0 0.02 0.49 0 0.04 0.49 0 0.06 0.49 0 0.08 0.49 0 0.1 0.49 0 0 0.495 0 0.02 0.495 0 0.04 0.495 0 0.06 0.495 0 0.08 0.495 0 0.1 0.495 0 0 0.5 0 0.02 0.5 0 0.04 0.5 0 0.06 0.5 0 0.08 0.5 0 0.1 0.5 0 0 0.505 0 0.02 0.505 0 0.04 0.505 0 0.06 0.505 0 0.08 0.505 0 0.1 0.505 0 0 0.51 0 0.02 0.51 0 0.04 0.51 0 0.06 0.51 0 0.08 0.51 0 0.1 0.51 0 0 0.515 0 0.02 0.515 0 0.04 0.515 0 0.06 0.515 0 0.08 0.515 0 0.1 0.515 0 0 0.52 0 0.02 0.52 0 0.04 0.52 0 0.06 0.52 0 0.08 0.52 0 0.1 0.52 0 0 0.525 0 0.02 0.525 0 0.04 0.525 0 0.06 0.525 0 0.08 0.525 0 0.1 0.525 0 0 0.53 0 0.02 0.53 0 0.04 0.53 0 0.06 0.53 0 0.08 0.53 0 0.1 0.53 0 0 0.535 0 0.02 0.535 0 0.04 0.535 0 0.06 0.535 0 0.08 0.535 0 0.1 0.535 0 0 0.54 0 0.02 0.54 0 0.04 0.54 0 0.06 0.54 0 0.08 0.54 0 0.1 0.54 0 0 0.545 0 0.02 0.545 0 0.04 0.545 0 0.06 0.545 0 0.08 0.545 0 0.1 0.545 0 0 0.55 0 0.02 0.55 0 0.04 0.55 0 0.06 0.55 0 0.08 0.55 0 0.1 0.55 0 0 0.555 0 0.02 0.555 0 0.04 0.555 0 0.06 0.555 0 0.08 0.555 0 0.1 0.555 0 0 0.56 0 0.02 0.56 0 0.04 0.56 0 0.06 0.56 0 0.08 0.56 0 0.1 0.56 0 0 0.565 0 0.02 0.565 0 0.04 0.565 0 0.06 0.565 0 0.08 0.565 0 0.1 0.565 0 0 0.57 0 0.02 0.57 0 0.04 0.57 0 0.06 0.57 0 0.08 0.57 0 0.1 0.57 0 0 0.575 0 0.02 0.575 0 0.04 0.575 0 0.06 0.575 0 0.08 0.575 0 0.1 0.575 0 0 0.58 0 0.02 0.58 0 0.04 0.58 0 0.06 0.58 0 0.08 0.58 0 0.1 0.58 0 0 0.585 0 0.02 0.585 0 0.04 0.585 0 0.06 0.585 0 0.08 0.585 0 0.1 0.585 0 0 0.59 0 0.02 0.59 0 0.04 0.59 0 0.06 0.59 0 0.08 0.59 0 0.1 0.59 0 0 0.595 0 0.02 0.595 0 0.04 0.595 0 0.06 0.595 0 0.08 0.595 0 0.1 0.595 0 0 0.6 0 0.02 0.6 0 0.04 0.6 0 0.06 0.6 0 0.08 0.6 0 0.1 0.6 0 0 0.605 0 0.02 0.605 0 0.04 0.605 0 0.06 0.605 0 0.08 0.605 0 0.1 0.605 0 0 0.61 0 0.02 0.61 0 0.04 0.61 0 0.06 0.61 0 0.08 0.61 0 0.1 0.61 0 0 0.615 0 0.02 0.615 0 0.04 0.615 0 0.06 0.615 0 0.08 0.615 0 0.1 0.615 0 0 0.62 0 0.02 0.62 0 0.04 0.62 0 0.06 0.62 0 0.08 0.62 0 0.1 0.62 0 0 0.625 0 0.02 0.625 0 0.04 0.625 0 0.06 0.625 0 0.08 0.625 0 0.1 0.625 0 0 0.63 0 0.02 0.63 0 0.04 0.63 0 0.06 0.63 0 0.08 0.63 0 0.1 0.63 0 0 0.635 0 0.02 0.635 0 0.04 0.635 0 0.06 0.635 0 0.08 0.635 0 0.1 0.635 0 0 0.64 0 0.02 0.64 0 0.04 0.64 0 0.06 0.64 0 0.08 0.64 0 0.1 0.64 0 0 0.645 0 0.02 0.645 0 0.04 0.645 0 0.06 0.645 0 0.08 0.645 0 0.1 0.645 0 0 0.65 0 0.02 0.65 0 0.04 0.65 0 0.06 0.65 0 0.08 0.65 0 0.1 0.65 0 0 0.655 0 0.02 0.655 0 0.04 0.655 0 0.06 0.655 0 0.08 0.655 0 0.1 0.655 0 0 0.66 0 0.02 0.66 0 0.04 0.66 0 0.06 0.66 0 0.08 0.66 0 0.1 0.66 0 0 0.665 0 0.02 0.665 0 0.04 0.665 0 0.06 0.665 0 0.08 0.665 0 0.1 0.665 0 0 0.67 0 0.02 0.67 0 0.04 0.67 0 0.06 0.67 0 0.08 0.67 0 0.1 0.67 0 0 0.675 0 0.02 0.675 0 0.04 0.675 0 0.06 0.675 0 0.08 0.675 0 0.1 0.675 0 0 0.68 0 0.02 0.68 0 0.04 0.68 0 0.06 0.68 0 0.08 0.68 0 0.1 0.68 0 0 0.685 0 0.02 0.685 0 0.04 0.685 0 0.06 0.685 0 0.08 0.685 0 0.1 0.685 0 0 0.69 0 0.02 0.69 0 0.04 0.69 0 0.06 0.69 0 0.08 0.69 0 0.1 
[...]
			<PointData Scalars="VitesseX">
				<DataArray Name="VitesseX" type="Float32" format="ascii">
 0 1.3658e-15 -1.46896e-14 1.55157e-14 -2.84699e-14 0 0 4.08765e-15 -1.56346e-14 1.43507e-14 -2.41524e-14 0 0 -9.21472e-16 2.1371e-15 -1.08885e-14 4.5344e-15 0 0 2.20026e-14 -2.38386e-14 1.17517e-14 6.92749e-15 0 0 2.26545e-14 -1.60791e-14 1.60522e-14 1.09795e-14 0 0 -1.52043e-14 4.44553e-14 -1.70861e-14 2.59552e-14 0 0 -1.07289e-14 2.56245e-14 3.3241e-14 -1.08156e-14 0 0 1.65441e-14 -1.5446e-14 9.11896e-14 -4.68504e-14 0 0 1.10238e-14 8.11711e-15 7.74092e-14 -3.53097e-14 0 0 1.01485e-14 4.10369e-14 3.13064e-14 3.9517e-15 0 0 5.42361e-14 3.81406e-15 4.30083e-14 4.90823e-15 0 0 3.7445e-14 3.92898e-14 -1.50486e-14 4.8473e-14 0 0 7.55419e-14 -3.68575e-14 4.01399e-14 9.40905e-15 0 0 6.42915e-14 -2.27545e-14 1.70243e-14 -4.955e-15 0 0 2.99582e-14 3.27861e-14 -4.52265e-14 2.92562e-14 0 0 8.44276e-14 -8.7979e-14 9.71734e-14 -4.36126e-14 0 0 1.93343e-14 2.51737e-14 -2.81368e-15 2.75369e-14 0 0 2.95969e-14 3.90063e-14 -6.65327e-15 2.0873e-14 0 0 5.04014e-14 2.03838e-15 7.13345e-14 -4.446e-14 0 0 2.51758e-14 4.25982e-14 5.17794e-14 -4.3814e-14 0 0 7.62719e-14 -5.27413e-14 1.19747e-13 -8.08611e-14 0 0 6.67996e-14 -7.8953e-14 1.13525e-13 -5.11827e-14 0 0 -7.53078e-15 1.95491e-14 -7.8442e-15 3.43523e-14 0 0 -7.71851e-14 1.26628e-13 -1.25876e-13 9.31954e-14 0 0 2.25624e-14 -1.75887e-14 -6.14128e-15 2.65299e-14 0 0 1.59038e-13 -2.12172e-13 1.88173e-13 -6.93561e-14 0 0 2.92636e-14 -2.84198e-14 6.26492e-14 3.07523e-14 0 0 -5.0778e-14 6.95434e-14 -1.64997e-14 1.33907e-13 0 0 2.04688e-14 -5.49823e-14 8.07979e-14 1.33866e-13 0 0 6.56337e-14 -1.19187e-13 1.3756e-13 9.48321e-14 0 0 4.3327e-14 -4.39699e-14 6.15213e-14 9.70076e-14 0 0 4.41641e-14 -1.03305e-15 1.48449e-14 6.02035e-14 0 0 5.3071e-14 3.6124e-15 1.54078e-14 -7.7408e-15 0 0 -2.01543e-14 1.01683e-13 -5.08885e-14 -2.08598e-14 0 0 5.43296e-14 -4.66704e-15 4.62818e-14 -1.12029e-13 0 0 1.02495e-13 -5.60548e-14 2.64295e-14 -4.98424e-14 0 0 8.43968e-14 -4.89953e-14 2.60468e-14 -1.86376e-14 0 0 2.44838e-14 4.41741e-14 -5.51695e-14 4.78223e-14 0 0 9.61099e-14 -7.29102e-14 5.97775e-14 1.58713e-14 0 0 1.22055e-13 -1.12862e-13 1.04493e-13 1.39427e-15 0 0 1.6682e-14 3.32889e-14 -5.37012e-14 1.2163e-13 0 0 -1.31426e-14 7.26463e-15 1.97351e-14 8.29469e-14 0 0 -1.05831e-13 1.12246e-13 -4.07124e-14 1.0501e-13 0 0 -2.86193e-14 5.26101e-14 -6.56783e-14 1.66942e-13 0 0 1.41828e-13 -1.40629e-13 8.30976e-14 9.2602e-14 0 0 7.26046e-14 3.41425e-14 -9.04374e-14 1.89721e-13 0 0 9.09696e-14 6.15566e-14 -1.5493e-13 2.32975e-13 0 0 8.35382e-14 5.91379e-14 -1.4068e-13 1.84318e-13 0 0 1.37491e-14 1.41278e-13 -1.53961e-13 1.24775e-13 0 0 9.42443e-14 2.90621e-14 1.27361e-14 -4.88742e-14 0 0 2.27831e-13 -1.03228e-13 1.03903e-13 -1.08857e-13 0 0 3.0636e-13 -1.77838e-13 1.40622e-13 -1.24462e-13 0 0 -7.18979e-14 4.29626e-13 -5.11441e-13 3.20898e-13 0 0 3.29878e-14 1.91759e-13 -2.59634e-13 1.91319e-13 0 0 3.5656e-13 -3.25566e-13 2.44278e-13 -1.82013e-13 0 0 1.95534e-13 2.01004e-14 -1.60124e-13 1.21245e-14 0 0 2.62948e-13 -9.20424e-14 -5.40692e-14 -7.45855e-14 0 0 1.50835e-13 6.29748e-14 -2.22757e-13 6.67944e-15 0 0 1.07724e-13 1.43217e-13 -3.01351e-13 -2.01924e-14 0 0 3.09866e-13 -1.43503e-13 -9.02506e-14 -1.28809e-13 0 0 2.54331e-13 -1.10454e-13 -1.09999e-13 -1.50132e-14 0 0 1.00989e-13 -1.59009e-14 -5.15568e-14 -7.41429e-14 0 0 1.0005e-14 5.69526e-14 -5.95419e-14 -9.24086e-14 0 0 1.03218e-13 -1.03875e-13 1.05114e-13 -1.63689e-13 0 0 5.049e-14 -2.6965e-14 8.50615e-14 -1.89616e-13 0 0 -6.39611e-14 1.67058e-13 -7.55864e-14 -6.93149e-14 0 0 1.46463e-14 6.60236e-14 -1.00584e-14 -1.01237e-14 0 0 1.36404e-14 1.32382e-13 -1.41882e-13 1.14574e-13 0 0 1.81103e-13 -1.1342e-13 1.12388e-13 -6.73654e-14 0 0 2.33055e-13 -1.28302e-13 1.89751e-13 -2.1287e-13 0 0 -9.0856e-15 3.61586e-13 -3.10196e-13 3.88252e-14 0 0 1.81222e-13 8.18799e-14 -6.26672e-14 -8.7604e-14 0 0 3.19061e-13 -1.15693e-13 1.27571e-13 -2.10035e-13 0 0 4.19965e-13 -2.81482e-13 2.95742e-13 -2.66348e-13 0 0 2.28711e-13 -3.60717e-14 1.07471e-13 -9.52684e-14 0 0 3.39723e-14 3.52672e-13 -2.24888e-13 7.27325e-14 0 0 5.665e-13 -2.00459e-13 2.54306e-13 -2.38229e-13 0 0 5.3028e-13 2.33978e-15 1.1146e-13 -2.36324e-13 0 0 3.37684e-13 1.74601e-13 2.10452e-13 -4.38297e-13 0 0 1.81587e-13 4.18863e-13 -1.04875e-13 -8.6398e-14 0 0 4.60238e-13 1.34534e-14 3.48875e-14 1.69592e-13 0 0 5.78745e-13 -3.53123e-13 5.31563e-13 7.23864e-14 0 0 -1.89209e-13 7.5227e-13 -4.44242e-13 7.52444e-13 0 0 2.25172e-13 7.16586e-14 1.95195e-13 3.39421e-13 0 0 9.03658e-13 -1.04511e-12 1.25653e-12 -3.75223e-13 0 0 -1.79434e-14 1.37688e-13 1.10751e-13 3.64725e-13 0 0 -8.93355e-13 7.87969e-13 -1.62172e-13 5.44557e-13 0 0 -2.909e-13 -3.87837e-14 6.02069e-13 1.49665e-13 0 0 4.43933e-13 -2.80862e-13 7.79688e-14 7.74207e-13 0 0 5.84724e-13 -5.38927e-13 4.26847e-13 3.36065e-13 0 0 8.92516e-14 4.30115e-14 4.35344e-13 -1.52901e-13 0 0 -5.8484e-13 1.01386e-12 -2.77934e-13 2.52612e-13 0 0 -5.6347e-13 7.3974e-13 6.34023e-15 1.08405e-13 0 0 -2.01218e-13 9.7096e-14 4.84678e-13 -1.09825e-14 0 0 3.54937e-13 -4.78917e-13 4.69307e-13 3.013e-13 0 0 3.88857e-13 -6.8221e-13 7.01941e-13 1.55135e-13 0 0 -3.08744e-14 -3.03831e-13 6.61826e-13 -1.39712e-13 0 0 -7.09366e-13 6.4602e-13 -5.65017e-14 1.41974e-13 0 0 -6.8629e-13 9.29646e-13 -9.54607e-13 6.6969e-13 0 0 -8.1131e-15 4.04062e-13 -8.98068e-13 9.31944e-13 0 0 9.79207e-13 -7.21737e-13 -5.33872e-13 9.30546e-13 0 0 1.01243e-12 -9.46238e-13 -3.02572e-13 8.66066e-13 0 0 4.35863e-13 -5.93297e-13 -2.28697e-13 5.77825e-13 0 0 -3.58183e-13 1.3035e-13 -1.90464e-13 2.94144e-13 0 0 -5.01668e-13 3.81503e-13 -2.15654e-13 2.27626e-13 0 0 -4.24379e-13 3.5007e-13 -1.95109e-13 1.578e-13 0 0 -2.48837e-13 2.83375e-13 -1.40601e-13 -4.12807e-15 0 0 -7.49248e-14 2.36323e-13 -5.9748e-14 -2.67127e-13 0 0 2.48502e-14 1.63937e-13 8.57597e-14 -4.77191e-13 0 0 5.04764e-14 5.73464e-14 1.10612e-13 -5.26681e-13 0 0 2.53624e-14 4.47605e-14 5.00553e-14 -5.00713e-13 0 0 -1.2342e-14 -5.72978e-16 -4.26613e-14 -4.0937e-13 0 0 -2.36007e-14 -8.9484e-14 -1.32966e-13 -2.8359e-13 0 0 -5.25845e-14 -1.12614e-13 -2.5424e-13 -1.27e-13 0 0 -6.6926e-14 -1.64988e-13 -2.53103e-13 -1.62117e-14 0 0 -6.36055e-14 -1.8624e-13 -2.29786e-13 3.77832e-14 0 0 -7.47011e-14 -1.63135e-13 -1.98145e-13 -1.48244e-14 0 0 -4.64806e-14 -1.48128e-13 -1.78922e-13 -1.05587e-13 0 0 -1.37308e-14 -1.37084e-13 -9.82929e-14 -1.87214e-13 0 0 -1.36208e-14 -9.7826e-14 -1.64008e-14 -1.31251e-13 0 0 -7.61929e-15 8.85115e-15 -8.60007e-14 2.46172e-14 0 0 1.76457e-14 8.14994e-14 -1.76266e-13 1.17387e-13 0 0 2.17092e-13 -1.65145e-13 9.2616e-14 -7.07391e-14 0 0 1.22735e-13 2.71989e-14 -2.31569e-14 3.89857e-16 0 0 1.1074e-13 8.94549e-14 -6.24016e-14 3.57325e-14 0 0 1.55572e-13 3.89275e-14 -3.78588e-14 9.33203e-15 0 0 8.57326e-14 1.47374e-13 -1.27953e-13 5.1888e-14 0 0 2.25677e-13 -6.32416e-14 9.75852e-14 -1.08667e-13 0 0 1.29487e-13 1.07751e-13 -1.36538e-13 6.18832e-14 0 0 2.1855e-13 -3.35094e-14 -6.78791e-14 1.21861e-13 0 0 2.2316e-13 -3.11738e-14 -8.02117e-14 1.34052e-13 0 0 9.96757e-14 1.53756e-13 -2.63136e-13 1.9285e-13 0 0 2.77559e-13 -1.6148e-13 2.479e-14 -3.71337e-14 0 0 1.10843e-13 2.20818e-14 -1.30286e-13 -1.32167e-14 0 0 1.38686e-13 -1.12838e-13 -4.83237e-14 1.84935e-14 0 0 7.11128e-14 -5.81168e-14 -1.32592e-13 1.23272e-13 0 0 3.09328e-14 -4.52262e-14 -8.77367e-14 5.14828e-14 0 0 2.72387e-13 -4.67923e-13 4.01921e-13 -3.01152e-13 0 0 -5.65737e-14 4.56106e-14 -4.71783e-14 -2.6548e-14 0 0 -1.70552e-13 2.22341e-13 -1.7447e-13 1.46561e-13 0 0 -9.88307e-14 9.89647e-14 5.00011e-14 9.95564e-14 0 0 -3.00007e-13 3.87731e-13 -1.09691e-13 1.75882e-13 0 0 1.04485e-13 -2.36274e-13 4.49495e-13 -8.26106e-14 0 0 2.16464e-13 -3.66225e-13 4.54217e-13 5.01506e-14 0 0 -1.84958e-13 2.8958e-13 -2.00623e-13 4.56192e-13 0 0 1.10754e-13 -1.8336e-13 4.31752e-13 -5.36808e-14 0 0 -1.45355e-13 2.54108e-13 1.94388e-13 -5.55496e-14 0 0 -1.12824e-13 3.67065e-13 1.39339e-13 -5.69842e-14 0 0 2.27526e-13 -5.40251e-14 6.00651e-13 -3.34582e-13 0 0 9.46444e-14 1.90568e-13 3.23798e-13 -1.0883e-13 0 0 3.96274e-13 -3.93043e-13 8.11421e-13 -3.59359e-13 0 0 1.36213e-14 1.01975e-13 2.73236e-13 -1.26068e-13 0 0 5.8348e-14 8.74037e-14 1.14544e-13 -9.95761e-14 0 0 2.48357e-13 -1.24682e-13 5.99052e-14 1.28698e-13 0 0 1.38143e-13 -3.9256e-14 -4.52464e-14 3.26961e-13 0 0 -3.83809e-14 -8.25038e-14 1.72636e-13 2.19869e-13 0 0 -3.29436e-13 1.54479e-13 5.55845e-14 2.54736e-13 0 0 1.18934e-14 -2.4836e-13 3.96053e-13 -1.74373e-13 0 0 1.09806e-13 -2.83742e-13 1.66481e-13 1.31175e-14 0 0 1.13217e-13 -4.42787e-13 1.99763e-13 5.13558e-14 0 0 -1.42619e-13 -2.33627e-13 1.44372e-13 -1.17965e-13 0 0 -4.5007e-13 5.30304e-14 9.75139e-14 -2.58673e-13 0 0 -2.97737e-13 -1.69667e-13 3.73806e-13 -3.51297e-13 0 0 -2.83005e-13 -1.21509e-13 1.29923e-13 1.64302e-13 0 0 -8.23762e-14 -4.12738e-13 -2.0726e-14 7.56316e-13 0 0 3.12267e-13 -9.00253e-13 1.15725e-13 9.02013e-13 0 0 1.15078e-13 -6.22326e-13 2.65624e-14 7.95446e-13 0 0 -2.29257e-13 -1.97158e-13 -3.86984e-14 5.58183e-13 0 0 -6.33315e-13 4.30364e-13 -5.76714e-13 7.18107e-13 0 0 -4.15252e-13 1.27406e-13 -5.44912e-13 7.4974e-13 0 0 1.11734e-13 -6.01644e-13 -1.06957e-13 5.20615e-13 0 0 -2.85075e-14 -2.76955e-13 -3.90471e-13 5.78503e-13 0 0 1.30922e-13 -5.70388e-13 7.07421e-14 1.77437e-13 0 0 -1.2674e-13 -3.55448e-13 2.99926e-14 7.00077e-14 0 0 -4.34357e-13 9.04338e-15 -2.26175e-13 7.0562e-14 0 0 -3.36213e-13 -5.01698e-14 -2.01011e-13 -1.07079e-13 0 0 -2.82673e-13 4.12244e-14 -4.46337e-13 3.00281e-14 0 0 2.27739e-14 -3.30455e-13 -1.18237e-13 -1.04234e-13 0 0 -2.5291e-13 -4.81436e-14 -1.69987e-13 -9.01252e-14 0 0 -3.96922e-13 1.12295e-15 -1.98089e-13 -6.72271e-15 0 0 -2.37047e-13 -2.28631e-13 -1.95544e-13 1.06007e-13 0 0 -2.43015e-13 -1.61154e-13 -5.07835e-13 4.36084e-13 0 0 1.01401e-13 -5.66229e-13 -1.08043e-13 1.3254e-13 0 0 -1.92043e-13 -1.51886e-13 -1.63334e-13 -6.66336e-14 0 0 -4.17353e-13 1.53547e-14 -1.43625e-14 -3.01433e-13 0 0 -2.00617e-13 -2.93924e-13 3.96488e-13 -5.87444e-13 0 0 -3.04067e-13 -6.63836e-14 2.03702e-13 -5.10216e-13 0 0 9.17927e-15 -5.70851e-13 5.88366e-13 -6.92206e-13 0 0 -2.34233e-13 -1.72858e-13 3.73978e-14 -1.50831e-13 0 0 -2.76225e-13 -6.9096e-14 -5.08201e-14 -2.19762e-14 0 0 1.9028e-14 -4.79521e-13 5.38624e-13 -5.57627e-13 0 0 -6.39727e-13 6.53019e-13 -3.86644e-13 -2.17853e-13 0 0 -1.30927e-13 -8.25029e-14 2.33995e-13 -5.22988e-13 0 0 2.29184e-13 -6.2114e-13 6.77916e-13 -7.00923e-13 0 0 -2.00067e-13 3.76712e-14 8.63559e-14 -3.13122e-13 0 0 7.90546e-14 -4.91286e-13 6.26513e-13 -5.31869e-13 0 0 -2.63343e-13 -1.21251e-14 3.30032e-13 -4.29654e-13 0 0 6.73828e-15 -3.50461e-13 7.87363e-13 -9.26443e-13 0 0 -5.06976e-14 -1.38391e-13 6.28353e-13 -1.03803e-12 0 0 -2.70389e-13 4.11084e-13 -7.59048e-14 -6.18751e-13 0 0 2.72786e-13 -2.64968e-13 3.65754e-13 -8.24187e-13 0
				</DataArray>
				<DataArray Name="VitesseY" type="Float32" format="ascii">