<?xml version="1.0"?>
<VTKFile type="PolyData">
	<PolyData>
		<Piece NumberOfPoints="1206" NumberOfPolys="1000">
			<Points>
				<DataArray type="Float32" NumberOfComponents="3" format="ascii">
 0 0 0 0.02 0 0 0.04 0 0 0.06 0 0 0.08 0 0 0.1 0 0 0 0.005 0 0.02 0.005 0 0.04 0.005 0 0.06 0.005 0 0.08 0.005 0 0.1 0.005 0 0 0.01 0 0.02 0.01 0 0.04 0.01 0 0.06 0.01 0 0.08 0.01 0 0.1 0.01 0 0 0.015 0 0.02 0.015 0 0.04 0.015 0 0.06 0.015 0 0.08 0.015 0 0.1 0.015 0 0 0.02 0 0.02 0.02 0 0.04 0.02 0 0.06 0.02 0 0.08 0.02 0 0.1 0.02 0 0 0.025 0 0.02 0.025 0 0.04 0.025 0 0.06 0.025 0 0.08 0.025 0 0.1 0.025 0 0 0.03 0 0.02 0.03 0 0.04 0.03 0 0.06 0.03 0 0.08 0.03 0 0.1 0.03 0 0 0.035 0 0.02 0.035 0 0.04 0.035 0 0.06 0.035 0 0.08 0.035 0 0.1 0.035 0 0 0.04 0 0.02 0.04 0 0.04 0.04 0 0.06 0.04 0 0.08 0.04 0 0.1 0.04 0 0 0.045 0 0.02 0.045 0 0.04 0.045 0 0.06 0.045 0 0.08 0.045 0 0.1 0.045 0 0 0.05 0 0.02 0.05 0 0.04 0.05 0 0.06 0.05 0 0.08 0.05 0 0.1 0.05 0 0 0.055 0 0.02 0.055 0 0.04 0.055 0 0.06 0.055 0 0.08 0.055 0 0.1 0.055 0 0 0.06 0 0.02 0.06 0 0.04 0.06 0 0.06 0.06 0 0.08 0.06 0 0.1 0.06 0 0 0.065 0 0.02 0.065 0 0.04 0.065 0 0.06 0.065 0 0.08 0.065 0 0.1 0.065 0 0 0.07 0 0.02 0.07 0 0.04 0.07 0 0.06 0.07 0 0.08 0.07 0 0.1 0.07 0 0 0.075 0 0.02 0.075 0 0.04 0.075 0 0.06 0.075 0 0.08 0.075 0 0.1 0.075 0 0 0.08 0 0.02 0.08 0 0.04 0.08 0 0.06 0.08 0 0.08 0.08 0 0.1 0.08 0 0 0.085 0 0.02 0.085 0 0.04 0.085 0 0.06 0.085 0 0.08 0.085 0 0.1 0.085 0 0 0.09 0 0.02 0.09 0 0.04 0.09 0 0.06 0.09 0 0.08 0.09 0 0.1 0.09 0 0 0.095 0 0.02 0.095 0 0.04 0.095 0 0.06 0.095 0 0.08 0.095 0 0.1 0.095 0 0 0.1 0 0.02 0.1 0 0.04 0.1 0 0.06 0.1 0 0.08 0.1 0 0.1 0.1 0 0 0.105 0 0.02 0.105 0 0.04 0.105 0 0.06 0.105 0 0.08 0.105 0 0.1 0.105 0 0 0.11 0 0.02 0.11 0 0.04 0.11 0 0.06 0.11 0 0.08 0.11 0 0.1 0.11 0 0 0.115 0 0.02 0.115 0 0.04 0.115 0 0.06 0.115 0 0.08 0.115 0 0.1 0.115 0 0 0.12 0 0.02 0.12 0 0.04 0.12 0 0.06 0.12 0 0.08 0.12 0 0.1 0.12 0 0 0.125 0 0.02 0.125 0 0.04 0.125 0 0.06 0.125 0 0.08 0.125 0 0.1 0.125 0 0 0.13 0 0.02 0.13 0 0.04 0.13 0 0.06 0.13 0 0.08 0.13 0 0.1 0.13 0 0 0.135 0 0.02 0.135 0 0.04 0.135 0 0.06 0.135 0 0.08 0.135 0 0.1 0.135 0 0 0.14 0 0.02 0.14 0 0.04 0.14 0 0.06 0.14 0 0.08 0.14 0 0.1 0.14 0 0 0.145 0 0.02 0.145 0 0.04 0.145 0 0.06 0.145 0 0.08 0.145 0 0.1 0.145 0 0 0.15 0 0.02 0.15 0 0.04 0.15 0 0.06 0.15 0 0.08 0.15 0 0.1 0.15 0 0 0.155 0 0.02 0.155 0 0.04 0.155 0 0.06 0.155 0 0.08 0.155 0 0.1 0.155 0 0 0.16 0 0.02 0.16 0 0.04 0.16 0 0.06 0.16 0 0.08 0.16 0 0.1 0.16 0 0 0.165 0 0.02 0.165 0 0.04 0.165 0 0.06 0.165 0 0.08 0.165 0 0.1 0.165 0 0 0.17 0 0.02 0.17 0 0.04 0.17 0 0.06 0.17 0 0.08 0.17 0 0.1 0.17 0 0 0.175 0 0.02 0.175 0 0.04 0.175 0 0.06 0.175 0 0.08 0.175 0 0.1 0.175 0 0 0.18 0 0.02 0.18 0 0.04 0.18 0 0.06 0.18 0 0.08 0.18 0 0.1 0.18 0 0 0.185 0 0.02 0.185 0 0.04 0.185 0 0.06 0.185 0 0.08 0.185 0 0.1 0.185 0 0 0.19 0 0.02 0.19 0 0.04 0.19 0 0.06 0.19 0 0.08 0.19 0 0.1 0.19 0 0 0.195 0 0.02 0.195 0 0.04 0.195 0 0.06 0.195 0 0.08 0.195 0 0.1 0.195 0 0 0.2 0 0.02 0.2 0 0.04 0.2 0 0.06 0.2 0 0.08 0.2 0 0.1 0.2 0 0 0.205 0 0.02 0.205 0 0.04 0.205 0 0.06 0.205 0 0.08 0.205 0 0.1 0.205 0 0 0.21 0 0.02 0.21 0 0.04 0.21 0 0.06 0.21 0 0.08 0.21 0 0.1 0.21 0 0 0.215 0 0.02 0.215 0 0.04 0.215 0 0.06 0.215 0 0.08 0.215 0 0.1 0.215 0 0 0.22 0 0.02 0.22 0 0.04 0.22 0 0.06 0.22 0 0.08 0.22 0 0.1 0.22 0 0 0.225 0 0.02 0.225 0 0.04 0.225 0 0.06 0.225 0 0.08 0.225 0 0.1 0.225 0 0 0.23 0 0.02 0.23 0 0.04 0.23 0 0.06 0.23 0 0.08 0.23 0 0.1 0.23 0 0 0.235 0 0.02 0.235 0 0.04 0.235 0 0.06 0.235 0 0.08 0.235 0 0.1 0.235 0 0 0.24 0 0.02 0.24 0 0.04 0.24 0 0.06 0.24 0 0.08 0.24 0 0.1 0.24 0 0 0.245 0 0.02 0.245 0 0.04 0.245 0 0.06 0.245 0 0.08 0.245 0 0.1 0.245 0 0 0.25 0 0.02 0.25 0 0.04 0.25 0 0.06 0.25 0 0.08 0.25 0 0.1 0.25 0 0 0.255 0 0.02 0.255 0 0.04 0.255 0 0.06 0.255 0 0.08 0.255 0 0.1 0.255 0 0 0.26 0 0.02 0.26 0 0.04 0.26 0 0.06 0.26 0 0.08 0.26 0 0.1 0.26 0 0 0.265 0 0.02 0.265 0 0.04 0.265 0 0.06 0.265 0 0.08 0.265 0 0.1 0.265 0 0 0.27 0 0.02 0.27 0 0.04 0.27 0 0.06 0.27 0 0.08 0.27 0 0.1 0.27 0 0 0.275 0 0.02 0.275 0 0.04 0.275 0 0.06 0.275 0 0.08 0.275 0 0.1 0.275 0 0 0.28 0 0.02 0.28 0 0.04 0.28 0 0.06 0.28 0 0.08 0.28 0 0.1 0.28 0 0 0.285 0 0.02 0.285 0 0.04 0.285 0 0.06 0.285 0 0.08 0.285 0 0.1 0.285 0 0 0.29 0 0.02 0.29 0 0.04 0.29 0 0.06 0.29 0 0.08 0.29 0 0.1 0.29 0 0 0.295 0 0.02 0.295 0 0.04 0.295 0 0.06 0.295 0 0.08 0.295 0 0.1 0.295 0 0 0.3 0 0.02 0.3 0 0.04 0.3 0 0.06 0.3 0 0.08 0.3 0 0.1 0.3 0 0 0.305 0 0.02 0.305 0 0.04 0.305 0 0.06 0.305 0 0.08 0.305 0 0.1 0.305 0 0 0.31 0 0.02 0.31 0 0.04 0.31 0 0.06 0.31 0 0.08 0.31 0 0.1 0.31 0 0 0.315 0 0.02 0.315 0 0.04 0.315 0 0.06 0.315 0 0.08 0.315 0 0.1 0.315 0 0 0.32 0 0.02 0.32 0 0.04 0.32 0 0.06 0.32 0 0.08 0.32 0 0.1 0.32 0 0 0.325 0 0.02 0.325 0 0.04 0.325 0 0.06 0.325 0 0.08 0.325 0 0.1 0.325 0 0 0.33 0 0.02 0.33 0 0.04 0.33 0 0.06 0.33 0 0.08 0.33 0 0.1 0.33 0 0 0.335 0 0.02 0.335 0 0.04 0.335 0 0.06 0.335 0 0.08 0.335 0 0.1 0.335 0 0 0.34 0 0.02 0.34 0 0.04 0.34 0 0.06 0.34 0 0.08 0.34 0 0.1 0.34 0 0 0.345 0 0.02 0.345 0 0.04 0.345 0 0.06 0.345 0 0.08 0.345 0 0.1 0.345 0 0 0.35 0 0.02 0.35 0 0.04 0.35 0 0.06 0.35 0 0.08 0.35 0 0.1 0.35 0 0 0.355 0 0.02 0.355 0 0.04 0.355 0 0.06 0.355 0 0.08 0.355 0 0.1 0.355 0 0 0.36 0 0.02 0.36 0 0.04 0.36 0 0.06 0.36 0 0.08 0.36 0 0.1 0.36 0 0 0.365 0 0.02 0.365 0 0.04 0.365 0 0.06 0.365 0 0.08 0.365 0 0.1 0.365 0 0 0.37 0 0.02 0.37 0 0.04 0.37 0 0.06 0.37 0 0.08 0.37 0 0.1 0.37 0 0 0.375 0 0.02 0.375 0 0.04 0.375 0 0.06 0.375 0 0.08 0.375 0 0.1 0.375 0 0 0.38 0 0.02 0.38 0 0.04 0.38 0 0.06 0.38 0 0.08 0.38 0 0.1 0.38 0 0 0.385 0 0.02 0.385 0 0.04 0.385 0 0.06 0.385 0 0.08 0.385 0 0.1 0.385 0 0 0.39 0 0.02 0.39 0 0.04 0.39 0 0.06 0.39 0 0.08 0.39 0 0.1 0.39 0 0 0.395 0 0.02 0.395 0 0.04 0.395 0 0.06 0.395 0 0.08 0.395 0 0.1 0.395 0 0 0.4 0 0.02 0.4 0 0.04 0.4 0 0.06 0.4 0 0.08 0.4 0 0.1 0.4 0 0 0.405 0 0.02 0.405 0 0.04 0.405 0 0.06 0.405 0 0.08 0.405 0 0.1 0.405 0 0 0.41 0 0.02 0.41 0 0.04 0.41 0 0.06 0.41 0 0.08 0.41 0 0.1 0.41 0 0 0.415 0 0.02 0.415 0 0.04 0.415 0 0.06 0.415 0 0.08 0.415 0 0.1 0.415 0 0 0.42 0 0.02 0.42 0 0.04 0.42 0 0.06 0.42 0 0.08 0.42 0 0.1 0.42 0 0 0.425 0 0.02 0.425 0 0.04 0.425 0 0.06 0.425 0 0.08 0.425 0 0.1 0.425 0 0 0.43 0 0.02 0.43 0 0.04 0.43 0 0.06 0.43 0 0.08 0.43 0 0.1 0.43 0 0 0.435 0 0.02 0.435 0 0.04 0.435 0 0.06 0.435 0 0.08 0.435 0 0.1 0.435 0 0 0.44 0 0.02 0.44 0 0.04 0.44 0 0.06 0.44 0 0.08 0.44 0 0.1 0.44 0 0 0.445 0 0.02 0.445 0 0.04 0.445 0 0.06 0.445 0 0.08 0.445 0 0.1 0.445 0 0 0.45 0 0.02 0.45 0 0.04 0.45 0 0.06 0.45 0 0.08 0.45 0 0.1 0.45 0 0 0.455 0 0.02 0.455 0 0.04 0.455 0 0.06 0.455 0 0.08 0.455 0 0.1 0.455 0 0 0.46 0 0.02 0.46 0 0.04 0.46 0 0.06 0.46 0 0.08 0.46 0 0.1 0.46 0 0 0.465 0 0.02 0.465 0 0.04 0.465 0 0.06 0.465 0 0.08 0.465 0 0.1 0.465 0 0 0.47 0 0.02 0.47 0 0.04 0.47 0 0.06 0.47 0 0.08 0.47 0 0.1 0.47 0 0 0.475 0 0.02 0.475 0 0.04 0.475 0 0.06 0.475 0 0.08 0.475 0 0.1 0.475 0 0 0.48 0 0.02 0.48 0 0.04 0.48 0 0.06 0.48 0 0.08 0.48 0 0.1 0.48 0 0 0.485 0 0.02 0.485 0 0.04 0.485 0 0.06 0.485 0 0.08 0.485 0 0.1 0.485 0 0 0.49 0 0.02 0.49 0 0.04 0.49 0 0.06 0.49 0 0.08 0.49 0 0.1 0.49 0 0 0.495 0 0.02 0.495 0 0.04 0.495 0 0.06 0.495 0 0.08 0.495 0 0.1 0.495 0 0 0.5 0 0.02 0.5 0 0.04 0.5 0 0.06 0.5 0 0.08 0.5 0 0.1 0.5 0 0 0.505 0 0.02 0.505 0 0.04 0.505 0 0.06 0.505 0 0.08 0.505 0 0.1 0.505 0 0 0.51 0 0.02 0.51 0 0.04 0.51 0 0.06 0.51 0 0.08 0.51 0 0.1 0.51 0 0 0.515 0 0.02 0.515 0 0.04 0.515 0 0.06 0.515 0 0.08 0.515 0 0.1 0.515 0 0 0.52 0 0.02 0.52 0 0.04 0.52 0 0.06 0.52 0 0.08 0.52 0 0.1 0.52 0 0 0.525 0 0.02 0.525 0 0.04 0.525 0 0.06 0.525 0 0.08 0.525 0 0.1 0.525 0 0 0.53 0 0.02 0.53 0 0.04 0.53 0 0.06 0.53 0 0.08 0.53 0 0.1 0.53 0 0 0.535 0 0.02 0.535 0 0.04 0.535 0 0.06 0.535 0 0.08 0.535 0 0.1 0.535 0 0 0.54 0 0.02 0.54 0 0.04 0.54 0 0.06 0.54 0 0.08 0.54 0 0.1 0.54 0 0 0.545 0 0.02 0.545 0 0.04 0.545 0 0.06 0.545 0 0.08 0.545 0 0.1 0.545 0 0 0.55 0 0.02 0.55 0 0.04 0.55 0 0.06 0.55 0 0.08 0.55 0 0.1 0.55 0 0 0.555 0 0.02 0.555 0 0.04 0.555 0 0.06 0.555 0 0.08 0.555 0 0.1 0.555 0 0 0.56 0 0.02 0.56 0 0.04 0.56 0 0.06 0.56 0 0.08 0.56 0 0.1 0.56 0 0 0.565 0 0.02 0.565 0 0.04 0.565 0 0.06 0.565 0 0.08 0.565 0 0.1 0.565 0 0 0.57 0 0.02 0.57 0 0.04 0.57 0 0.06 0.57 0 0.08 0.57 0 0.1 0.57 0 0 0.575 0 0.02 0.575 0 0.04 0.575 0 0.06 0.575 0 0.08 0.575 0 0.1 0.575 0 0 0.58 0 0.02 0.58 0 0.04 0.58 0 0.06 0.58 0 0.08 0.58 0 0.1 0.58 0 0 0.585 0 0.02 0.585 0 0.04 0.585 0 0.06 0.585 0 0.08 0.585 0 0.1 0.585 0 0 0.59 0 0.02 0.59 0 0.04 0.59 0 0.06 0.59 0 0.08 0.59 0 0.1 0.59 0 0 0.595 0 0.02 0.595 0 0.04 0.595 0 0.06 0.595 0 0.08 0.595 0 0.1 0.595 0 0 0.6 0 0.02 0.6 0 0.04 0.6 0 0.06 0.6 0 0.08 0.6 0 0.1 0.6 0 0 0.605 0 0.02 0.605 0 0.04 0.605 0 0.06 0.605 0 0.08 0.605 0 0.1 0.605 0 0 0.61 0 0.02 0.61 0 0.04 0.61 0 0.06 0.61 0 0.08 0.61 0 0.1 0.61 0 0 0.615 0 0.02 0.615 0 0.04 0.615 0 0.06 0.615 0 0.08 0.615 0 0.1 0.615 0 0 0.62 0 0.02 0.62 0 0.04 0.62 0 0.06 0.62 0 0.08 0.62 0 0.1 0.62 0 0 0.625 0 0.02 0.625 0 0.04 0.625 0 0.06 0.625 0 0.08 0.625 0 0.1 0.625 0 0 0.63 0 0.02 0.63 0 0.04 0.63 0 0.06 0.63 0 0.08 0.63 0 0.1 0.63 0 0 0.635 0 0.02 0.635 0 0.04 0.635 0 0.06 0.635 0 0.08 0.635 0 0.1 0.635 0 0 0.64 0 0.02 0.64 0 0.04 0.64 0 0.06 0.64 0 0.08 0.64 0 0.1 0.64 0 0 0.645 0 0.02 0.645 0 0.04 0.645 0 0.06 0.645 0 0.08 0.645 0 0.1 0.645 0 0 0.65 0 0.02 0.65 0 0.04 0.65 0 0.06 0.65 0 0.08 0.65 0 0.1 0.65 0 0 0.655 0 0.02 0.655 0 0.04 0.655 0 0.06 0.655 0 0.08 0.655 0 0.1 0.655 0 0 0.66 0 0.02 0.66 0 0.04 0.66 0 0.06 0.66 0 0.08 0.66 0 0.1 0.66 0 0 0.665 0 0.02 0.665 0 0.04 0.665 0 0.06 0.665 0 0.08 0.665 0 0.1 0.665 0 0 0.67 0 0.02 0.67 0 0.04 0.67 0 0.06 0.67 0 0.08 0.67 0 0.1 0.67 0 0 0.675 0 0.02 0.675 0 0.04 0.675 0 0.06 0.675 0 0.08 0.675 0 0.1 0.675 0 0 0.68 0 0.02 0.68 0 0.04 0.68 0 0.06 0.68 0 0.08 0.68 0 0.1 0.68 0 0 0.685 0 0.02 0.685 0 0.04 0.685 0 0.06 0.685 0 0.08 0.685 0 0.1 0.685 0 0 0.69 0 0.02 0.69 0 0.04 0.69 0 0.06 0.69 0 0.08 0.69 0 0.1 
[...]
			<PointData Scalars="VitesseX">
				<DataArray Name="VitesseX" type="Float32" format="ascii">
 0 4.87714e-15 -3.63978e-14 3.0686e-15 7.72454e-15 0 0 2.1004e-15 -3.3455e-14 -5.35116e-15 1.72784e-14 0 0 -2.46139e-14 2.62338e-15 -3.28355e-14 3.33906e-14 0 0 1.24413e-14 -3.86415e-14 1.66669e-15 1.54463e-14 0 0 1.19467e-14 -2.76931e-14 -2.58491e-14 3.2885e-14 0 0 -5.52552e-14 3.57995e-14 -6.93656e-14 4.37034e-14 0 0 -3.15148e-14 -4.92691e-14 4.73603e-14 -5.25684e-14 0 0 2.73622e-14 -1.22968e-13 1.2196e-13 -1.40204e-13 0 0 8.8677e-15 -7.13527e-14 3.48134e-14 -8.01902e-14 0 0 -5.01188e-14 3.57738e-14 -1.20089e-13 5.65963e-14 0 0 4.56381e-15 -4.2044e-14 -9.18843e-14 6.72107e-14 0 0 -4.75786e-14 -1.70244e-14 -9.4095e-14 2.07835e-14 0 0 3.25412e-14 -1.32498e-13 2.4734e-14 -9.43545e-14 0 0 -2.64969e-14 -6.35449e-14 -7.05966e-15 -7.38397e-14 0 0 -1.02833e-13 4.86825e-15 -7.69642e-14 -1.15978e-14 0 0 4.91287e-14 -2.34361e-13 1.01644e-13 -8.18669e-14 0 0 -1.28442e-13 2.14749e-14 -6.04804e-14 1.12801e-14 0 0 -7.25073e-14 -2.60273e-15 -7.28855e-14 1.08111e-13 0 0 -5.3172e-14 2.86275e-15 -1.34944e-13 2.1604e-13 0 0 -9.78384e-14 3.32971e-14 -1.13877e-13 1.3517e-13 0 0 6.36978e-14 -2.23842e-13 1.48725e-13 -1.11072e-13 0 0 3.78994e-14 -1.97129e-13 1.03047e-13 -1.12907e-13 0 0 -9.10701e-14 2.64691e-14 -1.91694e-13 3.3009e-14 0 0 -1.5619e-13 1.36755e-13 -3.17429e-13 5.94787e-14 0 0 1.70131e-14 -1.77583e-13 3.15589e-14 -1.84146e-13 0 0 1.9997e-13 -4.51867e-13 2.84166e-13 -3.62716e-13 0 0 1.28198e-14 -1.18056e-13 -7.35041e-14 -1.25864e-13 0 0 -1.33602e-13 1.84958e-13 -3.98308e-13 1.28092e-13 0 0 -2.95512e-14 3.24567e-14 -2.40375e-13 3.35784e-14 0 0 1.04744e-13 -2.4407e-13 7.90078e-14 -1.78399e-13 0 0 2.47934e-15 -1.65596e-13 4.60875e-14 -1.39423e-13 0 0 6.14537e-15 -1.77067e-13 3.62773e-14 -1.39198e-13 0 0 2.25187e-14 -1.48942e-13 -2.72637e-14 -1.02932e-13 0 0 -2.03128e-13 1.95665e-13 -3.51329e-13 1.06676e-13 0 0 2.77709e-15 -1.63695e-13 4.63473e-15 -1.16566e-13 0 0 1.0342e-13 -4.0069e-13 2.3737e-13 -2.15605e-13 0 0 1.19804e-13 -3.64331e-13 7.90837e-14 9.56152e-14 0 0 -1.32409e-13 1.25074e-13 -3.91627e-13 5.02677e-13 0 0 -1.30383e-13 1.22629e-13 -4.00397e-13 5.44961e-13 0 0 4.6942e-14 -2.18499e-13 -9.31289e-14 2.85234e-13 0 0 9.26793e-15 -2.07796e-13 5.40516e-15 1.20791e-14 0 0 7.5641e-14 -3.02288e-13 1.52819e-13 -2.18006e-13 0 0 -1.55928e-13 4.15976e-14 -1.30852e-13 -8.82027e-14 0 0 -5.54445e-14 -1.2015e-13 3.23143e-14 -2.09979e-13 0 0 2.30758e-13 -5.32437e-13 3.38275e-13 -3.91132e-13 0 0 -5.39027e-14 -6.18832e-14 -2.14109e-13 3.41109e-14 0 0 2.1096e-14 -3.40874e-14 -4.72049e-13 3.47943e-13 0 0 -1.67215e-14 -4.79718e-15 -4.8814e-13 3.23437e-13 0 0 -1.61183e-13 5.77444e-15 -2.96173e-13 3.49542e-14 0 0 1.46342e-13 -5.8744e-13 2.83756e-13 -3.50919e-13 0 0 1.39598e-13 -7.12366e-13 4.21465e-13 -3.95135e-13 0 0 1.95395e-13 -7.3557e-13 2.15837e-13 -1.57461e-14 0 0 -3.78278e-13 2.03774e-13 -6.75397e-13 6.3222e-13 0 0 -1.62796e-13 -2.62143e-14 -3.64096e-13 3.13271e-13 0 0 1.86064e-13 -7.04433e-13 2.86201e-13 -9.08144e-14 0 0 -3.35479e-13 -1.77325e-13 -1.19478e-13 1.84635e-13 0 0 1.32158e-13 -5.88716e-13 2.19375e-13 -1.83793e-13 0 0 3.78687e-14 -3.34357e-13 5.44778e-14 -2.1821e-13 0 0 1.07223e-13 -3.77771e-13 1.2286e-13 -2.36327e-13 0 0 3.45181e-13 -6.95158e-13 3.42668e-13 -2.33229e-13 0 0 -1.86768e-13 -1.03232e-13 -2.3199e-13 3.23124e-13 0 0 -2.60973e-13 -4.19706e-14 -2.99185e-13 3.8397e-13 0 0 -2.14326e-13 -1.7233e-13 -5.60573e-14 1.58948e-13 0 0 1.06508e-13 -5.59057e-13 5.38381e-13 -4.59288e-13 0 0 7.26207e-14 -4.51922e-13 4.61352e-13 -4.99291e-13 0 0 -2.61433e-13 4.79773e-15 -1.69068e-13 7.08241e-14 0 0 -2.08701e-13 -5.48039e-15 -3.22462e-13 2.36385e-13 0 0 -2.2423e-13 7.57108e-15 -2.96641e-13 1.99134e-13 0 0 1.56475e-13 -4.50729e-13 2.23967e-13 -2.78322e-13 0 0 2.27882e-13 -5.09368e-13 3.90352e-14 -2.02774e-14 0 0 -4.859e-13 3.25585e-13 -7.70494e-13 6.10443e-13 0 0 -6.272e-14 -2.80625e-13 -8.49406e-14 6.60889e-14 0 0 1.27842e-13 -7.15695e-13 3.41152e-13 -6.23358e-14 0 0 1.20167e-13 -8.02465e-13 4.21868e-13 2.25035e-13 0 0 -1.57957e-13 -2.5281e-13 -2.02047e-13 8.57684e-13 0 0 -5.163e-13 1.66269e-13 -7.88471e-13 1.34926e-12 0 0 1.11014e-13 -8.66807e-13 2.63523e-13 3.14335e-13 0 0 -1.15715e-13 -6.84991e-13 3.8912e-13 -2.91694e-13 0 0 3.4443e-15 -6.95892e-13 3.42876e-13 -5.07048e-13 0 0 -3.15071e-13 -7.53028e-14 -1.96887e-13 -3.07482e-13 0 0 -2.50823e-13 -3.37318e-13 -2.10079e-13 7.53743e-14 0 0 2.50325e-13 -9.66607e-13 -2.15915e-13 1.18021e-13 0 0 -6.40301e-13 4.49701e-13 -1.37154e-12 3.44013e-13 0 0 -2.28657e-13 -1.13882e-13 -5.60826e-13 -2.24927e-13 0 0 5.53739e-13 -1.46266e-12 8.01587e-13 -9.2866e-13 0 0 -3.74182e-13 -1.63558e-13 -2.20788e-13 -5.94504e-13 0 0 -6.92343e-13 6.45808e-13 -1.23821e-12 -1.76757e-13 0 0 2.90713e-14 -4.74574e-13 -2.90731e-13 -5.72791e-13 0 0 -6.88653e-15 -5.60152e-13 9.30596e-14 -9.93862e-13 0 0 2.41216e-13 -7.49837e-13 1.92125e-13 -9.151e-13 0 0 -1.30589e-13 1.10544e-13 -6.31969e-13 -3.10022e-13 0 0 -4.48539e-13 7.57803e-13 -1.34399e-12 -3.51408e-14 0 0 1.56527e-13 -5.27058e-13 -1.04591e-13 -4.47842e-13 0 0 6.82372e-14 -6.43429e-13 3.0633e-13 -8.4462e-13 0 0 3.84473e-13 -8.98441e-13 5.03191e-14 -4.42749e-13 0 0 -7.47215e-13 6.84253e-13 -1.33246e-12 3.73362e-13 0 0 4.78722e-14 -1.71012e-13 -5.42531e-13 -7.99056e-14 0 0 3.91617e-13 -8.30959e-13 1.50709e-13 -3.19866e-13 0 0 -3.98509e-13 -2.17303e-13 3.81659e-13 -7.26356e-13 0 0 3.28294e-13 -8.42471e-13 4.25222e-13 -2.74034e-13 0 0 1.46411e-13 -5.94222e-13 -1.92697e-15 1.1763e-13 0 0 -3.29393e-13 -5.94519e-14 -5.83589e-13 3.28881e-13 0 0 -4.09575e-13 -5.32513e-14 -5.62531e-13 2.59659e-13 0 0 -2.47523e-13 -3.69556e-13 -3.38445e-13 1.68179e-13 0 0 -1.12831e-13 -4.37425e-13 -2.11592e-13 4.11354e-14 0 0 -4.90363e-13 2.35391e-13 -6.97168e-13 2.15314e-13 0 0 -2.55234e-13 -7.70517e-14 -4.38781e-13 8.67025e-14 0 0 2.25625e-13 -8.85142e-13 4.32988e-13 -5.73751e-13 0 0 3.13857e-13 -1.00242e-12 4.97212e-13 -6.59283e-13 0 0 -1.71835e-13 -4.62024e-14 -6.25817e-13 5.94453e-14 0 0 -7.44935e-13 9.20838e-13 -1.53508e-12 4.80398e-13 0 0 -1.7455e-13 -1.68e-13 -4.35866e-13 -1.06578e-13 0 0 3.61123e-13 -1.0451e-12 5.64814e-13 -1.01401e-12 0 0 3.34953e-13 -9.23381e-13 4.52294e-13 -1.11763e-12 0 0 -2.76656e-13 1.01341e-13 -6.09552e-13 -3.61846e-13 0 0 -7.13491e-13 7.25483e-13 -1.20371e-12 5.29389e-14 0 0 -2.23741e-13 -3.08176e-13 -1.76665e-13 -4.09041e-13 0 0 4.36162e-13 -1.22897e-12 7.4812e-13 -1.16282e-12 0 0 -1.27406e-13 -2.8645e-13 -2.49891e-13 -5.54664e-13 0 0 -1.49418e-13 -4.0825e-13 -4.12726e-13 5.65998e-14 0 0 -3.42967e-13 -2.33048e-13 -5.0973e-13 6.16802e-14 0 0 -5.82195e-13 -1.71976e-13 -4.088e-13 1.98625e-14 0 0 4.16661e-13 -1.505e-12 6.72028e-13 -7.10258e-13 0 0 -3.32139e-13 -7.73894e-14 -7.4242e-13 -1.71933e-13 0 0 -2.97501e-13 -2.11779e-13 -7.19066e-13 2.68243e-13 0 0 -3.19032e-13 -2.48901e-13 -4.6872e-13 6.13436e-15 0 0 -5.88976e-13 -2.08762e-13 -2.83911e-13 -1.51265e-13 0 0 4.6181e-13 -1.68012e-12 8.96453e-13 -8.37393e-13 0 0 -2.23506e-13 -3.7714e-13 -4.02458e-13 -2.52145e-13 0 0 -2.85721e-13 -3.32618e-13 -5.50773e-13 1.96643e-13 0 0 -2.67068e-13 -3.69331e-13 -3.3942e-13 -9.92398e-14 0 0 -5.3475e-13 -3.28771e-13 -1.3115e-13 -2.75742e-13 0 0 3.74897e-13 -1.57329e-12 9.52404e-13 -1.02877e-12 0 0 -2.71593e-13 -2.51526e-13 -3.09809e-13 -5.42775e-13 0 0 -2.50795e-13 -2.97861e-13 -5.3641e-13 1.22609e-13 0 0 -2.40851e-13 -3.00284e-13 -4.93984e-13 4.90865e-14 0 0 -4.53991e-13 -2.4904e-13 -3.85843e-13 -6.08847e-14 0 0 4.21715e-13 -1.43517e-12 5.47948e-13 -6.34834e-13 0 0 -1.40855e-13 -2.21617e-13 -5.75234e-13 -4.17238e-13 0 0 -2.36848e-13 -1.42127e-13 -5.94911e-13 -2.03392e-13 0 0 -3.31914e-14 -6.04953e-13 -3.01736e-13 -1.52347e-13 0 0 -7.32427e-13 4.95048e-13 -1.44249e-12 2.35818e-13 0 0 3.84011e-13 -1.03037e-12 1.28229e-13 -9.06242e-13 0 0 6.10699e-13 -1.56126e-12 5.84189e-13 -9.55835e-13 0 0 -8.35656e-13 4.77038e-13 -1.6664e-12 5.33817e-13 0 0 -3.13513e-13 -4.0158e-13 -1.07305e-12 4.63229e-13 0 0 -4.59636e-13 -3.98212e-13 -7.33713e-13 3.0092e-14 0 0 1.20215e-13 -1.05773e-12 2.19872e-13 -8.51045e-13 0 0 5.14502e-13 -1.5875e-12 4.97126e-13 -4.76344e-13 0 0 -8.64572e-13 4.79218e-13 -1.9768e-12 1.62525e-12 0 0 -2.51728e-13 -4.73374e-13 -1.25002e-12 1.52133e-12 0 0 -3.50254e-13 -6.11524e-13 -5.2513e-13 2.30093e-13 0 0 1.89442e-13 -1.12976e-12 2.0711e-13 -1.22213e-12 0 0 1.69775e-13 -1.1027e-12 1.51919e-13 -1.33574e-12 0 0 -4.38089e-13 -4.48672e-13 -5.83947e-13 -4.65328e-13 0 0 -4.56692e-13 -2.32164e-13 -6.55434e-13 -4.48523e-13 0 0 -5.24708e-13 -2.38872e-13 -3.38327e-13 -4.77702e-13 0 0 3.82298e-13 -1.41594e-12 5.93282e-13 -7.43619e-13 0 0 -1.11985e-13 -2.93329e-13 -8.14766e-13 6.46105e-14 0 0 -5.31841e-13 5.55637e-13 -2.19715e-12 1.14067e-12 0 0 -6.44222e-13 6.6746e-13 -2.11807e-12 6.68542e-13 0 0 2.92667e-14 -1.16403e-12 3.85187e-13 -8.46781e-13 0 0 7.02648e-13 -2.47907e-12 1.98915e-12 -2.24341e-12 0 0 -1.95598e-13 -6.32982e-13 -2.92146e-13 -1.24e-12 0 0 -7.13566e-13 6.74464e-13 -2.34908e-12 6.43556e-13 0 0 -5.7887e-13 6.14046e-13 -2.08158e-12 3.32468e-13 0 0 6.8469e-14 -9.37996e-13 -2.27695e-13 -8.63301e-13 0 0 5.58439e-13 -1.99088e-12 9.32574e-13 -2.3791e-12 0 0 -3.56486e-13 -5.42988e-13 -1.82493e-13 -2.57616e-12 0 0 -5.2441e-14 -1.063e-12 3.26528e-13 -1.94889e-12 0 0 1.39601e-13 -1.20102e-12 2.91167e-13 -1.3333e-12 0 0 -8.89008e-13 5.59162e-13 -1.81479e-12 -3.8486e-15 0 0 -4.10128e-14 -6.16157e-13 -1.13701e-12 -2.73224e-13 0 0 -1.52062e-13 -7.30906e-13 -4.61495e-13 -8.81424e-13 0 0 -1.45685e-13 -1.05517e-12 4.03591e-13 -1.07897e-12 0 0 2.79181e-14 -1.01093e-12 2.84707e-14 -8.27878e-13 0 0 -8.13958e-13 5.63195e-13 -1.93549e-12 1.35614e-13 0 0 6.78554e-14 -6.67597e-13 -1.11289e-12 -1.7366e-13 0 0 -8.37429e-14 -7.33494e-13 -4.95004e-13 -9.43818e-13 0 0 -2.55948e-14 -1.14964e-12 4.73119e-13 -1.32499e-12 0 0 1.94541e-13 -1.23232e-12 2.28812e-13 -8.79184e-13 0 0 -8.4706e-13 5.8008e-13 -2.09081e-12 3.70635e-13 0 0 -1.5136e-14 -5.89702e-13 -1.41755e-12 -1.70831e-14 0 0 -1.05132e-13 -7.89888e-13 -5.48916e-13 -7.90852e-13 0 0 -8.85153e-14 -1.09805e-12 2.26156e-13 -8.60959e-13 0 0 1.10432e-13 -1.09975e-12 -1.66185e-13 -4.87629e-13 0 0 -9.37901e-13 6.88342e-13 -2.23265e-12 5.8271e-13 0 0 -7.33122e-15 -6.05545e-13 -1.27379e-12 1.61493e-13 0 0 -7.3813e-14 -7.47066e-13 -6.15917e-13 -5.17173e-13 0 0 1.47753e-13 -1.32797e-12 1.06769e-13 -7.89312e-13 0 0 4.83451e-13 -1.29926e-12 -8.42004e-13 -3.55242e-13 0 0 -1.26301e-12 1.35829e-12 -3.48808e-12 7.03079e-13 0 0 6.38325e-13 -1.72459e-12 1.85958e-13 -1.29381e-12 0 0 1.29583e-12 -2.99834e-12 1.85215e-12 -1.97946e-12 0 0 -7.62952e-13 4.47689e-14 -1.64778e-12 3.90019e-13 0 0 -8.25695e-13 4.52728e-13 -2.97743e-12 1.69315e-12 0 0 -1.27315e-12 7.40554e-13 -2.90663e-12 1.65129e-12 0 0 6.01683e-13 -2.3543e-12 9.12282e-13 -8.35509e-13 0 0 8.22906e-13 -2.7491e-12 1.43563e-12 -1.17035e-12 0 0 -9.8875e-13 2.97586e-13 -2.44268e-12 1.37325e-12 0 0 -7.56603e-13 3.58795e-13 -3.30108e-12 2.20486e-12 0
				</DataArray>
				<DataArray Name="VitesseY" type="Float32" format="ascii">