<?xml version="1.0"?>
<VTKFile type="PolyData">
	<PolyData>
		<Piece NumberOfPoints="1206" NumberOfPolys="1000">
			<Points>
				<DataArray type="Float32" NumberOfComponents="3" format="ascii">
 0 0 0 0.02 0 0 0.04 0 0 0.06 0 0 0.08 0 0 0.1 0 0 0 0.005 0 0.02 0.005 0 0.04 0.005 0 0.06 0.005 0 0.08 0.005 0 0.1 0.005 0 0 0.01 0 0.02 0.01 0 0.04 0.01 0 0.06 0.01 0 0.08 0.01 0 0.1 0.01 0 0 0.015 0 0.02 0.015 0 0.04 0.015 0 0.06 0.015 0 0.08 0.015 0 0.1 0.015 0 0 0.02 0 0.02 0.02 0 0.04 0.02 0 0.06 0.02 0 0.08 0.02 0 0.1 0.02 0 0 0.025 0 0.02 0.025 0 0.04 0.025 0 0.06 0.025 0 0.08 0.025 0 0.1 0.025 0 0 0.03 0 0.02 0.03 0 0.04 0.03 0 0.06 0.03 0 0.08 0.03 0 0.1 0.03 0 0 0.035 0 0.02 0.035 0 0.04 0.035 0 0.06 0.035 0 0.08 0.035 0 0.1 0.035 0 0 0.04 0 0.02 0.04 0 0.04 0.04 0 0.06 0.04 0 0.08 0.04 0 0.1 0.04 0 0 0.045 0 0.02 0.045 0 0.04 0.045 0 0.06 0.045 0 0.08 0.045 0 0.1 0.045 0 0 0.05 0 0.02 0.05 0 0.04 0.05 0 0.06 0.05 0 0.08 0.05 0 0.1 0.05 0 0 0.055 0 0.02 0.055 0 0.04 0.055 0 0.06 0.055 0 0.08 0.055 0 0.1 0.055 0 0 0.06 0 0.02 0.06 0 0.04 0.06 0 0.06 0.06 0 0.08 0.06 0 0.1 0.06 0 0 0.065 0 0.02 0.065 0 0.04 0.065 0 0.06 0.065 0 0.08 0.065 0 0.1 0.065 0 0 0.07 0 0.02 0.07 0 0.04 0.07 0 0.06 0.07 0 0.08 0.07 0 0.1 0.07 0 0 0.075 0 0.02 0.075 0 0.04 0.075 0 0.06 0.075 0 0.08 0.075 0 0.1 0.075 0 0 0.08 0 0.02 0.08 0 0.04 0.08 0 0.06 0.08 0 0.08 0.08 0 0.1 0.08 0 0 0.085 0 0.02 0.085 0 0.04 0.085 0 0.06 0.085 0 0.08 0.085 0 0.1 0.085 0 0 0.09 0 0.02 0.09 0 0.04 0.09 0 0.06 0.09 0 0.08 0.09 0 0.1 0.09 0 0 0.095 0 0.02 0.095 0 0.04 0.095 0 0.06 0.095 0 0.08 0.095 0 0.1 0.095 0 0 0.1 0 0.02 0.1 0 0.04 0.1 0 0.06 0.1 0 0.08 0.1 0 0.1 0.1 0 0 0.105 0 0.02 0.105 0 0.04 0.105 0 0.06 0.105 0 0.08 0.105 0 0.1 0.105 0 0 0.11 0 0.02 0.11 0 0.04 0.11 0 0.06 0.11 0 0.08 0.11 0 0.1 0.11 0 0 0.115 0 0.02 0.115 0 0.04 0.115 0 0.06 0.115 0 0.08 0.115 0 0.1 0.115 0 0 0.12 0 0.02 0.12 0 0.04 0.12 0 0.06 0.12 0 0.08 0.12 0 0.1 0.12 0 0 0.125 0 0.02 0.125 0 0.04 0.125 0 0.06 0.125 0 0.08 0.125 0 0.1 0.125 0 0 0.13 0 0.02 0.13 0 0.04 0.13 0 0.06 0.13 0 0.08 0.13 0 0.1 0.13 0 0 0.135 0 0.02 0.135 0 0.04 0.135 0 0.06 0.135 0 0.08 0.135 0 0.1 0.135 0 0 0.14 0 0.02 0.14 0 0.04 0.14 0 0.06 0.14 0 0.08 0.14 0 0.1 0.14 0 0 0.145 0 0.02 0.145 0 0.04 0.145 0 0.06 0.145 0 0.08 0.145 0 0.1 0.145 0 0 0.15 0 0.02 0.15 0 0.04 0.15 0 0.06 0.15 0 0.08 0.15 0 0.1 0.15 0 0 0.155 0 0.02 0.155 0 0.04 0.155 0 0.06 0.155 0 0.08 0.155 0 0.1 0.155 0 0 0.16 0 0.02 0.16 0 0.04 0.16 0 0.06 0.16 0 0.08 0.16 0 0.1 0.16 0 0 0.165 0 0.02 0.165 0 0.04 0.165 0 0.06 0.165 0 0.08 0.165 0 0.1 0.165 0 0 0.17 0 0.02 0.17 0 0.04 0.17 0 0.06 0.17 0 0.08 0.17 0 0.1 0.17 0 0 0.175 0 0.02 0.175 0 0.04 0.175 0 0.06 0.175 0 0.08 0.175 0 0.1 0.175 0 0 0.18 0 0.02 0.18 0 0.04 0.18 0 0.06 0.18 0 0.08 0.18 0 0.1 0.18 0 0 0.185 0 0.02 0.185 0 0.04 0.185 0 0.06 0.185 0 0.08 0.185 0 0.1 0.185 0 0 0.19 0 0.02 0.19 0 0.04 0.19 0 0.06 0.19 0 0.08 0.19 0 0.1 0.19 0 0 0.195 0 0.02 0.195 0 0.04 0.195 0 0.06 0.195 0 0.08 0.195 0 0.1 0.195 0 0 0.2 0 0.02 0.2 0 0.04 0.2 0 0.06 0.2 0 0.08 0.2 0 0.1 0.2 0 0 0.205 0 0.02 0.205 0 0.04 0.205 0 0.06 0.205 0 0.08 0.205 0 0.1 0.205 0 0 0.21 0 0.02 0.21 0 0.04 0.21 0 0.06 0.21 0 0.08 0.21 0 0.1 0.21 0 0 0.215 0 0.02 0.215 0 0.04 0.215 0 0.06 0.215 0 0.08 0.215 0 0.1 0.215 0 0 0.22 0 0.02 0.22 0 0.04 0.22 0 0.06 0.22 0 0.08 0.22 0 0.1 0.22 0 0 0.225 0 0.02 0.225 0 0.04 0.225 0 0.06 0.225 0 0.08 0.225 0 0.1 0.225 0 0 0.23 0 0.02 0.23 0 0.04 0.23 0 0.06 0.23 0 0.08 0.23 0 0.1 0.23 0 0 0.235 0 0.02 0.235 0 0.04 0.235 0 0.06 0.235 0 0.08 0.235 0 0.1 0.235 0 0 0.24 0 0.02 0.24 0 0.04 0.24 0 0.06 0.24 0 0.08 0.24 0 0.1 0.24 0 0 0.245 0 0.02 0.245 0 0.04 0.245 0 0.06 0.245 0 0.08 0.245 0 0.1 0.245 0 0 0.25 0 0.02 0.25 0 0.04 0.25 0 0.06 0.25 0 0.08 0.25 0 0.1 0.25 0 0 0.255 0 0.02 0.255 0 0.04 0.255 0 0.06 0.255 0 0.08 0.255 0 0.1 0.255 0 0 0.26 0 0.02 0.26 0 0.04 0.26 0 0.06 0.26 0 0.08 0.26 0 0.1 0.26 0 0 0.265 0 0.02 0.265 0 0.04 0.265 0 0.06 0.265 0 0.08 0.265 0 0.1 0.265 0 0 0.27 0 0.02 0.27 0 0.04 0.27 0 0.06 0.27 0 0.08 0.27 0 0.1 0.27 0 0 0.275 0 0.02 0.275 0 0.04 0.275 0 0.06 0.275 0 0.08 0.275 0 0.1 0.275 0 0 0.28 0 0.02 0.28 0 0.04 0.28 0 0.06 0.28 0 0.08 0.28 0 0.1 0.28 0 0 0.285 0 0.02 0.285 0 0.04 0.285 0 0.06 0.285 0 0.08 0.285 0 0.1 0.285 0 0 0.29 0 0.02 0.29 0 0.04 0.29 0 0.06 0.29 0 0.08 0.29 0 0.1 0.29 0 0 0.295 0 0.02 0.295 0 0.04 0.295 0 0.06 0.295 0 0.08 0.295 0 0.1 0.295 0 0 0.3 0 0.02 0.3 0 0.04 0.3 0 0.06 0.3 0 0.08 0.3 0 0.1 0.3 0 0 0.305 0 0.02 0.305 0 0.04 0.305 0 0.06 0.305 0 0.08 0.305 0 0.1 0.305 0 0 0.31 0 0.02 0.31 0 0.04 0.31 0 0.06 0.31 0 0.08 0.31 0 0.1 0.31 0 0 0.315 0 0.02 0.315 0 0.04 0.315 0 0.06 0.315 0 0.08 0.315 0 0.1 0.315 0 0 0.32 0 0.02 0.32 0 0.04 0.32 0 0.06 0.32 0 0.08 0.32 0 0.1 0.32 0 0 0.325 0 0.02 0.325 0 0.04 0.325 0 0.06 0.325 0 0.08 0.325 0 0.1 0.325 0 0 0.33 0 0.02 0.33 0 0.04 0.33 0 0.06 0.33 0 0.08 0.33 0 0.1 0.33 0 0 0.335 0 0.02 0.335 0 0.04 0.335 0 0.06 0.335 0 0.08 0.335 0 0.1 0.335 0 0 0.34 0 0.02 0.34 0 0.04 0.34 0 0.06 0.34 0 0.08 0.34 0 0.1 0.34 0 0 0.345 0 0.02 0.345 0 0.04 0.345 0 0.06 0.345 0 0.08 0.345 0 0.1 0.345 0 0 0.35 0 0.02 0.35 0 0.04 0.35 0 0.06 0.35 0 0.08 0.35 0 0.1 0.35 0 0 0.355 0 0.02 0.355 0 0.04 0.355 0 0.06 0.355 0 0.08 0.355 0 0.1 0.355 0 0 0.36 0 0.02 0.36 0 0.04 0.36 0 0.06 0.36 0 0.08 0.36 0 0.1 0.36 0 0 0.365 0 0.02 0.365 0 0.04 0.365 0 0.06 0.365 0 0.08 0.365 0 0.1 0.365 0 0 0.37 0 0.02 0.37 0 0.04 0.37 0 0.06 0.37 0 0.08 0.37 0 0.1 0.37 0 0 0.375 0 0.02 0.375 0 0.04 0.375 0 0.06 0.375 0 0.08 0.375 0 0.1 0.375 0 0 0.38 0 0.02 0.38 0 0.04 0.38 0 0.06 0.38 0 0.08 0.38 0 0.1 0.38 0 0 0.385 0 0.02 0.385 0 0.04 0.385 0 0.06 0.385 0 0.08 0.385 0 0.1 0.385 0 0 0.39 0 0.02 0.39 0 0.04 0.39 0 0.06 0.39 0 0.08 0.39 0 0.1 0.39 0 0 0.395 0 0.02 0.395 0 0.04 0.395 0 0.06 0.395 0 0.08 0.395 0 0.1 0.395 0 0 0.4 0 0.02 0.4 0 0.04 0.4 0 0.06 0.4 0 0.08 0.4 0 0.1 0.4 0 0 0.405 0 0.02 0.405 0 0.04 0.405 0 0.06 0.405 0 0.08 0.405 0 0.1 0.405 0 0 0.41 0 0.02 0.41 0 0.04 0.41 0 0.06 0.41 0 0.08 0.41 0 0.1 0.41 0 0 0.415 0 0.02 0.415 0 0.04 0.415 0 0.06 0.415 0 0.08 0.415 0 0.1 0.415 0 0 0.42 0 0.02 0.42 0 0.04 0.42 0 0.06 0.42 0 0.08 0.42 0 0.1 0.42 0 0 0.425 0 0.02 0.425 0 0.04 0.425 0 0.06 0.425 0 0.08 0.425 0 0.1 0.425 0 0 0.43 0 0.02 0.43 0 0.04 0.43 0 0.06 0.43 0 0.08 0.43 0 0.1 0.43 0 0 0.435 0 0.02 0.435 0 0.04 0.435 0 0.06 0.435 0 0.08 0.435 0 0.1 0.435 0 0 0.44 0 0.02 0.44 0 0.04 0.44 0 0.06 0.44 0 0.08 0.44 0 0.1 0.44 0 0 0.445 0 0.02 0.445 0 0.04 0.445 0 0.06 0.445 0 0.08 0.445 0 0.1 0.445 0 0 0.45 0 0.02 0.45 0 0.04 0.45 0 0.06 0.45 0 0.08 0.45 0 0.1 0.45 0 0 0.455 0 0.02 0.455 0 0.04 0.455 0 0.06 0.455 0 0.08 0.455 0 0.1 0.455 0 0 0.46 0 0.02 0.46 0 0.04 0.46 0 0.06 0.46 0 0.08 0.46 0 0.1 0.46 0 0 0.465 0 0.02 0.465 0 0.04 0.465 0 0.06 0.465 0 0.08 0.465 0 0.1 0.465 0 0 0.47 0 0.02 0.47 0 0.04 0.47 0 0.06 0.47 0 0.08 0.47 0 0.1 0.47 0 0 0.475 0 0.02 0.475 0 0.04 0.475 0 0.06 0.475 0 0.08 0.475 0 0.1 0.475 0 0 0.48 0 0.02 0.48 0 0.04 0.48 0 0.06 0.48 0 0.08 0.48 0 0.1 0.48 0 0 0.485 0 0.02 0.485 0 0.04 0.485 0 0.06 0.485 0 0.08 0.485 0 0.1 0.485 0 0 0.49 0 0.02 0.49 0 0.04 0.49 0 0.06 0.49 0 0.08 0.49 0 0.1 0.49 0 0 0.495 0 0.02 0.495 0 0.04 0.495 0 0.06 0.495 0 0.08 0.495 0 0.1 0.495 0 0 0.5 0 0.02 0.5 0 0.04 0.5 0 0.06 0.5 0 0.08 0.5 0 0.1 0.5 0 0 0.505 0 0.02 0.505 0 0.04 0.505 0 0.06 0.505 0 0.08 0.505 0 0.1 0.505 0 0 0.51 0 0.02 0.51 0 0.04 0.51 0 0.06 0.51 0 0.08 0.51 0 0.1 0.51 0 0 0.515 0 0.02 0.515 0 0.04 0.515 0 0.06 0.515 0 0.08 0.515 0 0.1 0.515 0 0 0.52 0 0.02 0.52 0 0.04 0.52 0 0.06 0.52 0 0.08 0.52 0 0.1 0.52 0 0 0.525 0 0.02 0.525 0 0.04 0.525 0 0.06 0.525 0 0.08 0.525 0 0.1 0.525 0 0 0.53 0 0.02 0.53 0 0.04 0.53 0 0.06 0.53 0 0.08 0.53 0 0.1 0.53 0 0 0.535 0 0.02 0.535 0 0.04 0.535 0 0.06 0.535 0 0.08 0.535 0 0.1 0.535 0 0 0.54 0 0.02 0.54 0 0.04 0.54 0 0.06 0.54 0 0.08 0.54 0 0.1 0.54 0 0 0.545 0 0.02 0.545 0 0.04 0.545 0 0.06 0.545 0 0.08 0.545 0 0.1 0.545 0 0 0.55 0 0.02 0.55 0 0.04 0.55 0 0.06 0.55 0 0.08 0.55 0 0.1 0.55 0 0 0.555 0 0.02 0.555 0 0.04 0.555 0 0.06 0.555 0 0.08 0.555 0 0.1 0.555 0 0 0.56 0 0.02 0.56 0 0.04 0.56 0 0.06 0.56 0 0.08 0.56 0 0.1 0.56 0 0 0.565 0 0.02 0.565 0 0.04 0.565 0 0.06 0.565 0 0.08 0.565 0 0.1 0.565 0 0 0.57 0 0.02 0.57 0 0.04 0.57 0 0.06 0.57 0 0.08 0.57 0 0.1 0.57 0 0 0.575 0 0.02 0.575 0 0.04 0.575 0 0.06 0.575 0 0.08 0.575 0 0.1 0.575 0 0 0.58 0 0.02 0.58 0 0.04 0.58 0 0.06 0.58 0 0.08 0.58 0 0.1 0.58 0 0 0.585 0 0.02 0.585 0 0.04 0.585 0 0.06 0.585 0 0.08 0.585 0 0.1 0.585 0 0 0.59 0 0.02 0.59 0 0.04 0.59 0 0.06 0.59 0 0.08 0.59 0 0.1 0.59 0 0 0.595 0 0.02 0.595 0 0.04 0.595 0 0.06 0.595 0 0.08 0.595 0 0.1 0.595 0 0 0.6 0 0.02 0.6 0 0.04 0.6 0 0.06 0.6 0 0.08 0.6 0 0.1 0.6 0 0 0.605 0 0.02 0.605 0 0.04 0.605 0 0.06 0.605 0 0.08 0.605 0 0.1 0.605 0 0 0.61 0 0.02 0.61 0 0.04 0.61 0 0.06 0.61 0 0.08 0.61 0 0.1 0.61 0 0 0.615 0 0.02 0.615 0 0.04 0.615 0 0.06 0.615 0 0.08 0.615 0 0.1 0.615 0 0 0.62 0 0.02 0.62 0 0.04 0.62 0 0.06 0.62 0 0.08 0.62 0 0.1 0.62 0 0 0.625 0 0.02 0.625 0 0.04 0.625 0 0.06 0.625 0 0.08 0.625 0 0.1 0.625 0 0 0.63 0 0.02 0.63 0 0.04 0.63 0 0.06 0.63 0 0.08 0.63 0 0.1 0.63 0 0 0.635 0 0.02 0.635 0 0.04 0.635 0 0.06 0.635 0 0.08 0.635 0 0.1 0.635 0 0 0.64 0 0.02 0.64 0 0.04 0.64 0 0.06 0.64 0 0.08 0.64 0 0.1 0.64 0 0 0.645 0 0.02 0.645 0 0.04 0.645 0 0.06 0.645 0 0.08 0.645 0 0.1 0.645 0 0 0.65 0 0.02 0.65 0 0.04 0.65 0 0.06 0.65 0 0.08 0.65 0 0.1 0.65 0 0 0.655 0 0.02 0.655 0 0.04 0.655 0 0.06 0.655 0 0.08 0.655 0 0.1 0.655 0 0 0.66 0 0.02 0.66 0 0.04 0.66 0 0.06 0.66 0 0.08 0.66 0 0.1 0.66 0 0 0.665 0 0.02 0.665 0 0.04 0.665 0 0.06 0.665 0 0.08 0.665 0 0.1 0.665 0 0 0.67 0 0.02 0.67 0 0.04 0.67 0 0.06 0.67 0 0.08 0.67 0 0.1 0.67 0 0 0.675 0 0.02 0.675 0 0.04 0.675 0 0.06 0.675 0 0.08 0.675 0 0.1 0.675 0 0 0.68 0 0.02 0.68 0 0.04 0.68 0 0.06 0.68 0 0.08 0.68 0 0.1 0.68 0 0 0.685 0 0.02 0.685 0 0.04 0.685 0 0.06 0.685 0 0.08 0.685 0 0.1 0.685 0 0 0.69 0 0.02 0.69 0 0.04 0.69 0 0.06 0.69 0 0.08 0.69 0 0.1 
[...]
			<PointData Scalars="VitesseX">
				<DataArray Name="VitesseX" type="Float32" format="ascii">
 0 7.38999e-15 -9.98852e-15 -2.19026e-14 -2.78852e-14 0 0 6.35632e-15 -1.02634e-14 -2.05251e-14 -2.84941e-14 0 0 2.74952e-15 -9.40967e-15 -2.04918e-14 -2.7317e-14 0 0 6.36276e-16 -1.44277e-14 -1.38704e-14 -3.00284e-14 0 0 -6.47721e-15 -1.50108e-14 -1.16828e-14 -2.93491e-14 0 0 -1.19305e-14 -1.72825e-14 -1.23685e-14 -2.75969e-14 0 0 -1.99849e-14 -1.12164e-14 -1.7035e-14 -2.82869e-14 0 0 -2.45679e-14 -1.01067e-14 -1.54617e-14 -2.88308e-14 0 0 -1.60075e-14 -3.17684e-14 -4.1926e-15 -2.2583e-14 0 0 -1.0506e-14 -4.1138e-14 -1.2308e-14 -1.31125e-15 0 0 -1.60069e-14 -3.36415e-14 -3.23621e-14 2.1136e-14 0 0 -2.58956e-14 -3.11234e-14 -2.5486e-14 1.76801e-14 0 0 -3.4331e-14 -2.68696e-14 -2.27326e-14 1.53819e-14 0 0 -2.27329e-14 -4.75635e-14 -3.37736e-15 -5.49459e-16 0 0 -2.1972e-15 -8.16178e-14 3.13703e-14 -2.00652e-14 0 0 -1.16888e-14 -5.39523e-14 -1.48122e-14 2.96678e-14 0 0 -2.1319e-14 -1.00953e-14 -5.82126e-14 6.35292e-14 0 0 4.15322e-15 -8.66049e-15 -5.60788e-14 5.81663e-14 0 0 7.23707e-15 5.79462e-15 -5.60446e-14 4.21181e-14 0 0 -1.12707e-14 9.61625e-15 -1.50592e-14 -1.1398e-14 0 0 -1.63917e-14 2.00988e-14 -2.65388e-14 -2.00438e-14 0 0 -8.61431e-15 2.24974e-14 -3.88667e-14 -2.92569e-14 0 0 5.46527e-15 -1.43984e-14 5.64628e-15 -6.5785e-14 0 0 -6.64543e-15 7.92102e-15 -3.48426e-14 -2.42306e-14 0 0 -8.94802e-15 -1.35952e-15 -2.29083e-14 -2.32359e-14 0 0 -1.54122e-14 -2.53878e-14 2.75524e-14 -6.76063e-14 0 0 -4.59823e-14 1.90167e-14 -2.1651e-14 -3.50553e-14 0 0 -4.03739e-14 1.74453e-14 -3.28039e-14 -2.21802e-14 0 0 -1.11526e-14 -3.94415e-14 2.64258e-14 -6.6327e-14 0 0 -3.96548e-14 -4.96425e-15 -2.23714e-14 -3.42556e-14 0 0 -4.38806e-14 2.19671e-14 -1.08598e-13 5.55256e-14 0 0 3.24745e-16 -1.85368e-14 -9.59618e-14 3.42477e-14 0 0 1.75261e-14 -5.16434e-14 -4.52251e-14 -3.98211e-14 0 0 -5.88075e-15 -4.6076e-14 -1.05841e-14 -7.53356e-14 0 0 -4.46043e-15 -6.32956e-14 2.7787e-14 -7.74549e-14 0 0 -1.26453e-14 -4.7993e-14 -1.59959e-14 1.60763e-15 0 0 -2.14855e-14 -1.57201e-14 -8.95514e-14 8.8299e-14 0 0 -5.83983e-15 -2.9475e-14 -5.22398e-14 6.08815e-14 0 0 -5.99972e-14 6.25292e-14 -7.54216e-14 1.89831e-14 0 0 -4.19885e-14 7.17021e-14 -7.0446e-14 -3.084e-14 0 0 -3.25263e-14 4.26928e-14 -1.55401e-14 -1.05302e-13 0 0 -4.01472e-14 2.55579e-14 3.91395e-14 -1.41222e-13 0 0 2.52977e-15 -4.43319e-14 1.3138e-13 -1.86577e-13 0 0 4.96644e-14 -3.45299e-14 6.8331e-14 -1.41635e-13 0 0 7.05668e-14 -9.97789e-15 -6.36923e-15 -5.75177e-14 0 0 1.16808e-14 3.56521e-14 -2.78875e-14 -2.59398e-14 0 0 -6.84145e-14 1.50631e-13 -1.20493e-13 4.40389e-14 0 0 3.04166e-14 -2.67614e-14 5.33432e-14 -1.31055e-14 0 0 8.37296e-14 -1.41551e-13 1.62538e-13 -6.82053e-14 0 0 3.05086e-14 -7.56319e-14 8.95215e-14 -4.51906e-14 0 0 3.56597e-15 -1.02833e-13 1.4369e-13 -1.01672e-13 0 0 -7.03732e-14 -5.24379e-14 1.32264e-13 -1.06686e-13 0 0 -9.64018e-14 4.16005e-14 -2.84491e-14 -2.46832e-15 0 0 -7.31575e-14 8.71361e-14 -1.07463e-13 -6.47802e-15 0 0 5.78712e-16 -6.393e-14 2.293e-14 -8.86636e-14 0 0 7.80633e-14 -2.80219e-13 1.91416e-13 -1.54274e-13 0 0 -4.94305e-14 -1.89409e-13 8.71746e-14 -5.7685e-14 0 0 -2.00337e-13 -2.88294e-14 -1.0614e-13 4.77837e-14 0 0 -1.03536e-13 -1.64283e-13 -6.07028e-14 -8.07272e-14 0 0 5.78784e-14 -3.04746e-13 -6.133e-14 -1.67229e-13 0 0 2.06441e-14 -1.61055e-13 -2.23152e-13 -1.60792e-13 0 0 -4.19132e-14 -1.07906e-14 -3.43023e-13 -1.1817e-13 0 0 4.06607e-14 -1.1288e-13 -2.35877e-13 -1.46137e-13 0 0 4.60074e-14 -2.086e-13 -8.21132e-14 -2.62394e-13 0 0 -5.97847e-14 -1.76072e-13 -3.41119e-14 -2.8851e-13 0 0 -2.28233e-13 -4.87004e-14 -1.60472e-13 -1.36871e-13 0 0 -3.02627e-13 2.18667e-14 -2.73546e-13 7.8459e-15 0 0 -2.13551e-13 -6.17155e-14 -1.97795e-13 -5.16837e-14 0 0 -6.56953e-14 -2.00318e-13 -5.45193e-14 -1.78117e-13 0 0 -1.47902e-14 -2.15425e-13 -7.92399e-14 -2.73657e-13 0 0 -6.26426e-14 -1.97902e-13 -1.2911e-13 -2.98471e-13 0 0 -1.16192e-13 -1.73978e-13 -1.94911e-13 -3.23059e-13 0 0 -1.95055e-13 -2.49351e-13 -9.5467e-14 -3.44503e-13 0 0 -2.84021e-13 -2.81787e-13 -6.84235e-14 -3.12807e-13 0 0 -3.2242e-13 -3.46158e-13 -1.87896e-14 -2.78939e-13 0 0 -3.27495e-13 -4.20203e-13 -3.13379e-15 -2.72377e-13 0 0 -3.49967e-13 -4.46767e-13 4.80696e-14 -2.74013e-13 0 0 -4.23523e-13 -4.20215e-13 7.78974e-14 -1.37101e-13 0 0 -5.12989e-13 -3.68307e-13 1.24857e-13 -9.66986e-14 0 0 -5.8201e-13 -2.96211e-13 1.80858e-13 -1.23218e-13 0 0 -6.4917e-13 -1.82836e-13 2.30919e-13 -1.86802e-13 0 0 -6.19045e-13 -2.05786e-13 2.95563e-13 -2.87911e-13 0 0 -5.182e-13 -3.45445e-13 4.01626e-13 -3.32252e-13 0 0 -3.63986e-13 -5.17558e-13 4.31362e-13 -3.70724e-13 0 0 -2.05759e-13 -5.27538e-13 3.54069e-13 -3.60833e-13 0 0 -1.80566e-13 -4.3199e-13 1.37752e-13 -2.53861e-13 0 0 -1.89986e-13 -2.53715e-13 -1.77566e-13 -7.34388e-14 0 0 -1.74666e-13 -1.47291e-13 -4.43728e-13 -2.36719e-14 0 0 -1.71159e-13 -7.4188e-14 -5.73209e-13 -2.71269e-14 0 0 -1.8227e-13 -3.74284e-14 -5.71543e-13 -4.03664e-14 0 0 -1.77012e-13 -5.36158e-14 -4.99664e-13 -1.0413e-13 0 0 -1.28517e-13 -1.77493e-13 -2.78113e-13 -2.86632e-13 0 0 -5.2877e-14 -4.12171e-13 8.86535e-14 -6.01549e-13 0 0 -3.47778e-14 -4.76409e-13 1.87174e-13 -7.75185e-13 0 0 -2.83513e-14 -4.63829e-13 1.44954e-13 -7.90907e-13 0 0 -7.48234e-14 -3.80251e-13 2.25171e-14 -7.75499e-13 0 0 -2.19102e-13 -1.76222e-13 -1.99362e-13 -7.07183e-13 0 0 -3.5703e-13 8.82902e-14 -4.92262e-13 -5.73198e-13 0 0 -3.8503e-13 1.93005e-13 -6.60099e-13 -4.71223e-13 0 0 -3.37486e-13 1.9172e-13 -7.38604e-13 -3.95908e-13 0 0 -1.24298e-13 7.45449e-14 -8.02232e-13 -3.10452e-13 0 0 2.90061e-13 -2.44462e-13 -7.43639e-13 -2.35048e-13 0 0 6.06069e-13 -5.86883e-13 -6.42301e-13 -1.86119e-13 0 0 6.32954e-13 -6.7166e-13 -5.30739e-13 -2.23136e-13 0 0 5.61986e-13 -6.55761e-13 -3.99808e-13 -3.06013e-13 0 0 4.04086e-13 -5.64425e-13 -4.04763e-13 -2.92536e-13 0 0 2.27545e-13 -4.18764e-13 -4.54735e-13 -2.42087e-13 0 0 1.03937e-13 -3.30289e-13 -4.73157e-13 -1.96392e-13 0 0 -1.78295e-14 -2.53294e-13 -4.73645e-13 -1.52114e-13 0 0 -1.17077e-13 -1.94153e-13 -4.57441e-13 -1.78672e-13 0 0 -1.82452e-13 -1.82323e-13 -4.33417e-13 -1.95434e-13 0 0 -2.13571e-13 -2.01066e-13 -4.08785e-13 -1.66251e-13 0 0 -2.08891e-13 -2.32887e-13 -3.66935e-13 -1.48632e-13 0 0 -2.28941e-13 -2.11599e-13 -3.34571e-13 -1.60675e-13 0 0 -2.43283e-13 -2.33449e-13 -2.45307e-13 -2.48727e-13 0 0 -2.19264e-13 -2.99563e-13 -1.34855e-13 -3.16812e-13 0 0 -2.24272e-13 -2.89347e-13 -1.66768e-13 -2.59686e-13 0 0 -2.43901e-13 -2.62181e-13 -1.58384e-13 -2.32657e-13 0 0 -2.48057e-13 -2.27916e-13 -1.65842e-13 -2.05519e-13 0 0 -2.35778e-13 -2.00332e-13 -2.23864e-13 -8.76303e-14 0 0 -2.05091e-13 -1.93636e-13 -2.32542e-13 -2.13242e-14 0 0 -1.57907e-13 -2.2834e-13 -1.64972e-13 -4.92624e-14 0 0 -1.47857e-13 -2.17461e-13 -1.88774e-13 1.60406e-14 0 0 -1.57772e-13 -1.68719e-13 -1.98669e-13 4.18152e-14 0 0 -1.5582e-13 -1.77754e-13 -7.80008e-14 -4.34736e-14 0 0 -1.71032e-13 -1.60634e-13 -6.34445e-14 -2.61825e-14 0 0 -1.79511e-13 -1.26637e-13 -8.22744e-14 1.11017e-14 0 0 -1.8484e-13 -9.88601e-14 -6.95288e-14 1.62648e-14 0 0 -1.9914e-13 -6.80299e-14 -3.74652e-14 -1.48541e-14 0 0 -1.96574e-13 -5.90419e-14 -3.39555e-14 -8.49286e-14 0 0 -1.59795e-13 -7.87082e-14 -4.45728e-14 -1.11464e-13 0 0 -1.55397e-13 -1.18861e-13 -2.57161e-14 -9.80274e-14 0 0 -1.67421e-13 -1.26088e-13 -5.03007e-14 -9.11951e-14 0 0 -1.48345e-13 -1.97666e-13 -3.8491e-14 -9.34623e-14 0 0 -1.33661e-13 -2.53131e-13 -3.91807e-14 -1.01864e-13 0 0 -1.67808e-13 -2.04241e-13 -1.62607e-13 -4.76303e-14 0 0 -1.67263e-13 -2.17698e-13 -1.57914e-13 -2.83611e-14 0 0 -1.42958e-13 -2.79488e-13 -9.19515e-14 -8.44949e-14 0 0 -1.2307e-13 -2.82976e-13 -1.15342e-13 -1.30832e-13 0 0 -1.18704e-13 -2.56035e-13 -1.99992e-13 -1.11883e-13 0 0 -1.44619e-13 -2.07738e-13 -2.34404e-13 -1.25841e-13 0 0 -1.42844e-13 -2.33014e-13 -2.03734e-13 -1.76791e-13 0 0 -1.26329e-13 -2.44288e-13 -1.84187e-13 -2.18928e-13 0 0 -1.45009e-13 -2.11838e-13 -2.52401e-13 -1.81319e-13 0 0 -1.4833e-13 -2.20394e-13 -2.68499e-13 -1.58882e-13 0 0 -1.42002e-13 -2.6388e-13 -2.27815e-13 -1.57571e-13 0 0 -1.58363e-13 -2.86907e-13 -1.92981e-13 -1.43925e-13 0 0 -1.44979e-13 -3.4308e-13 -1.73037e-13 -1.54757e-13 0 0 -1.37498e-13 -3.8058e-13 -1.88144e-13 -1.57813e-13 0 0 -1.5059e-13 -4.08126e-13 -1.93664e-13 -1.63715e-13 0 0 -1.54972e-13 -4.24758e-13 -2.36591e-13 -1.76603e-13 0 0 -1.71688e-13 -3.66508e-13 -3.77418e-13 -2.67868e-13 0 0 -1.90555e-13 -2.88586e-13 -5.04283e-13 -4.80151e-13 0 0 -2.08238e-13 -2.81127e-13 -5.0599e-13 -5.53617e-13 0 0 -1.93708e-13 -2.95866e-13 -4.74934e-13 -4.54476e-13 0 0 -1.8517e-13 -3.42979e-13 -3.49425e-13 -2.47506e-13 0 0 -1.94501e-13 -3.89828e-13 -2.01387e-13 2.84165e-14 0 0 -2.20268e-13 -3.70985e-13 -2.04699e-13 1.65558e-13 0 0 -2.72081e-13 -2.48353e-13 -2.0521e-13 8.22687e-14 0 0 -2.61357e-13 -2.35722e-13 -6.0985e-14 -3.23843e-13 0 0 -2.14606e-13 -2.74264e-13 1.54008e-13 -5.04041e-13 0 0 -8.35288e-14 -2.97647e-13 5.45771e-14 -2.87624e-13 0 0 -1.13989e-13 -1.59464e-13 -2.79017e-13 -1.10512e-13 0 0 -2.18919e-13 -5.64695e-14 -3.4982e-13 -8.77524e-14 0 0 -1.46625e-13 -1.79608e-13 -1.8618e-13 -1.43756e-13 0 0 -6.88295e-14 -2.45921e-13 -1.15098e-13 -2.02054e-13 0 0 -1.0566e-13 -1.77565e-13 -1.36265e-13 -1.96064e-13 0 0 -3.81011e-14 -2.47643e-13 -9.73772e-14 -1.51243e-13 0 0 -3.68974e-14 -1.91576e-13 -2.02535e-13 -4.41741e-14 0 0 -9.11868e-14 -8.73463e-14 -2.45001e-13 -1.63193e-14 0 0 -8.58677e-14 -1.00782e-13 -1.6707e-13 -5.26414e-14 0 0 -4.33492e-14 -1.52986e-13 -6.84216e-14 -1.40337e-13 0 0 -1.21932e-14 -1.81586e-13 -9.53397e-14 -1.84197e-14 0 0 -1.11749e-13 -1.03226e-13 -1.40955e-13 4.92223e-14 0 0 -1.24897e-13 -1.44103e-13 1.63906e-15 -1.11585e-13 0 0 -1.49561e-13 -1.06799e-13 -5.37793e-14 -7.28321e-15 0 0 -1.72673e-13 -1.18731e-13 2.30952e-14 -3.55818e-14 0 0 -1.25215e-13 -2.07336e-13 1.13895e-13 -1.0055e-13 0 0 -4.29679e-14 -2.90998e-13 1.37982e-13 -1.14975e-13 0 0 1.86771e-14 -3.61281e-13 2.41957e-13 -2.05238e-13 0 0 -1.01751e-13 -1.89257e-13 1.13735e-13 -1.56288e-13 0 0 -1.53176e-13 -8.01376e-14 1.82747e-14 -1.38929e-13 0 0 -5.80741e-14 -2.31414e-13 9.77352e-14 -7.46349e-14 0 0 -1.61537e-13 -1.01e-13 -6.87728e-14 8.66774e-14 0 0 -2.22744e-13 -4.1798e-14 -3.85122e-14 1.70396e-14 0 0 -1.41964e-13 -1.35423e-13 8.55708e-14 -9.16306e-14 0 0 -2.32677e-13 -2.07688e-14 1.31427e-14 -1.12614e-13 0 0 -1.95578e-13 -2.36063e-13 2.38862e-13 -2.11112e-13 0 0 -2.18893e-13 -2.51317e-13 1.65065e-13 -9.33643e-14 0 0 -2.59636e-13 -1.51617e-13 -1.29892e-13 1.58784e-13 0 0 -2.90648e-14 -5.1187e-13 1.78538e-13 -1.51183e-13 0 0 -4.22861e-14 -5.34045e-13 4.14244e-13 -5.61544e-13 0 0 -1.79784e-13 -3.24016e-13 1.62949e-13 -3.05087e-13 0 0 -4.41319e-14 -4.57422e-13 1.037e-14 2.70514e-14 0 0 -8.51846e-14 -2.22905e-13 -2.28201e-13 4.32544e-14 0 0 -2.64854e-13 5.87449e-14 -3.89872e-13 -6.25688e-14 0 0 -2.04847e-13 -2.54041e-13 -4.6033e-14 -2.8491e-13 0 0 3.7791e-14 -6.65653e-13 3.86608e-13 -4.8365e-13 0 0 7.57281e-14 -5.05531e-13 1.6712e-13 -3.15409e-13 0 0 -8.92185e-14 -2.0776e-14 -3.54515e-13 -7.56203e-14 0 0 -1.29222e-13 1.40426e-13 -5.17177e-13 -3.01559e-14 0
				</DataArray>
				<DataArray Name="VitesseY" type="Float32" format="ascii">