<?xml version="1.0"?>
<VTKFile type="PolyData">
	<PolyData>
		<Piece NumberOfPoints="1206" NumberOfPolys="1000">
			<Points>
				<DataArray type="Float32" NumberOfComponents="3" format="ascii">
 0 0 0 0.02 0 0 0.04 0 0 0.06 0 0 0.08 0 0 0.1 0 0 0 0.005 0 0.02 0.005 0 0.04 0.005 0 0.06 0.005 0 0.08 0.005 0 0.1 0.005 0 0 0.01 0 0.02 0.01 0 0.04 0.01 0 0.06 0.01 0 0.08 0.01 0 0.1 0.01 0 0 0.015 0 0.02 0.015 0 0.04 0.015 0 0.06 0.015 0 0.08 0.015 0 0.1 0.015 0 0 0.02 0 0.02 0.02 0 0.04 0.02 0 0.06 0.02 0 0.08 0.02 0 0.1 0.02 0 0 0.025 0 0.02 0.025 0 0.04 0.025 0 0.06 0.025 0 0.08 0.025 0 0.1 0.025 0 0 0.03 0 0.02 0.03 0 0.04 0.03 0 0.06 0.03 0 0.08 0.03 0 0.1 0.03 0 0 0.035 0 0.02 0.035 0 0.04 0.035 0 0.06 0.035 0 0.08 0.035 0 0.1 0.035 0 0 0.04 0 0.02 0.04 0 0.04 0.04 0 0.06 0.04 0 0.08 0.04 0 0.1 0.04 0 0 0.045 0 0.02 0.045 0 0.04 0.045 0 0.06 0.045 0 0.08 0.045 0 0.1 0.045 0 0 0.05 0 0.02 0.05 0 0.04 0.05 0 0.06 0.05 0 0.08 0.05 0 0.1 0.05 0 0 0.055 0 0.02 0.055 0 0.04 0.055 0 0.06 0.055 0 0.08 0.055 0 0.1 0.055 0 0 0.06 0 0.02 0.06 0 0.04 0.06 0 0.06 0.06 0 0.08 0.06 0 0.1 0.06 0 0 0.065 0 0.02 0.065 0 0.04 0.065 0 0.06 0.065 0 0.08 0.065 0 0.1 0.065 0 0 0.07 0 0.02 0.07 0 0.04 0.07 0 0.06 0.07 0 0.08 0.07 0 0.1 0.07 0 0 0.075 0 0.02 0.075 0 0.04 0.075 0 0.06 0.075 0 0.08 0.075 0 0.1 0.075 0 0 0.08 0 0.02 0.08 0 0.04 0.08 0 0.06 0.08 0 0.08 0.08 0 0.1 0.08 0 0 0.085 0 0.02 0.085 0 0.04 0.085 0 0.06 0.085 0 0.08 0.085 0 0.1 0.085 0 0 0.09 0 0.02 0.09 0 0.04 0.09 0 0.06 0.09 0 0.08 0.09 0 0.1 0.09 0 0 0.095 0 0.02 0.095 0 0.04 0.095 0 0.06 0.095 0 0.08 0.095 0 0.1 0.095 0 0 0.1 0 0.02 0.1 0 0.04 0.1 0 0.06 0.1 0 0.08 0.1 0 0.1 0.1 0 0 0.105 0 0.02 0.105 0 0.04 0.105 0 0.06 0.105 0 0.08 0.105 0 0.1 0.105 0 0 0.11 0 0.02 0.11 0 0.04 0.11 0 0.06 0.11 0 0.08 0.11 0 0.1 0.11 0 0 0.115 0 0.02 0.115 0 0.04 0.115 0 0.06 0.115 0 0.08 0.115 0 0.1 0.115 0 0 0.12 0 0.02 0.12 0 0.04 0.12 0 0.06 0.12 0 0.08 0.12 0 0.1 0.12 0 0 0.125 0 0.02 0.125 0 0.04 0.125 0 0.06 0.125 0 0.08 0.125 0 0.1 0.125 0 0 0.13 0 0.02 0.13 0 0.04 0.13 0 0.06 0.13 0 0.08 0.13 0 0.1 0.13 0 0 0.135 0 0.02 0.135 0 0.04 0.135 0 0.06 0.135 0 0.08 0.135 0 0.1 0.135 0 0 0.14 0 0.02 0.14 0 0.04 0.14 0 0.06 0.14 0 0.08 0.14 0 0.1 0.14 0 0 0.145 0 0.02 0.145 0 0.04 0.145 0 0.06 0.145 0 0.08 0.145 0 0.1 0.145 0 0 0.15 0 0.02 0.15 0 0.04 0.15 0 0.06 0.15 0 0.08 0.15 0 0.1 0.15 0 0 0.155 0 0.02 0.155 0 0.04 0.155 0 0.06 0.155 0 0.08 0.155 0 0.1 0.155 0 0 0.16 0 0.02 0.16 0 0.04 0.16 0 0.06 0.16 0 0.08 0.16 0 0.1 0.16 0 0 0.165 0 0.02 0.165 0 0.04 0.165 0 0.06 0.165 0 0.08 0.165 0 0.1 0.165 0 0 0.17 0 0.02 0.17 0 0.04 0.17 0 0.06 0.17 0 0.08 0.17 0 0.1 0.17 0 0 0.175 0 0.02 0.175 0 0.04 0.175 0 0.06 0.175 0 0.08 0.175 0 0.1 0.175 0 0 0.18 0 0.02 0.18 0 0.04 0.18 0 0.06 0.18 0 0.08 0.18 0 0.1 0.18 0 0 0.185 0 0.02 0.185 0 0.04 0.185 0 0.06 0.185 0 0.08 0.185 0 0.1 0.185 0 0 0.19 0 0.02 0.19 0 0.04 0.19 0 0.06 0.19 0 0.08 0.19 0 0.1 0.19 0 0 0.195 0 0.02 0.195 0 0.04 0.195 0 0.06 0.195 0 0.08 0.195 0 0.1 0.195 0 0 0.2 0 0.02 0.2 0 0.04 0.2 0 0.06 0.2 0 0.08 0.2 0 0.1 0.2 0 0 0.205 0 0.02 0.205 0 0.04 0.205 0 0.06 0.205 0 0.08 0.205 0 0.1 0.205 0 0 0.21 0 0.02 0.21 0 0.04 0.21 0 0.06 0.21 0 0.08 0.21 0 0.1 0.21 0 0 0.215 0 0.02 0.215 0 0.04 0.215 0 0.06 0.215 0 0.08 0.215 0 0.1 0.215 0 0 0.22 0 0.02 0.22 0 0.04 0.22 0 0.06 0.22 0 0.08 0.22 0 0.1 0.22 0 0 0.225 0 0.02 0.225 0 0.04 0.225 0 0.06 0.225 0 0.08 0.225 0 0.1 0.225 0 0 0.23 0 0.02 0.23 0 0.04 0.23 0 0.06 0.23 0 0.08 0.23 0 0.1 0.23 0 0 0.235 0 0.02 0.235 0 0.04 0.235 0 0.06 0.235 0 0.08 0.235 0 0.1 0.235 0 0 0.24 0 0.02 0.24 0 0.04 0.24 0 0.06 0.24 0 0.08 0.24 0 0.1 0.24 0 0 0.245 0 0.02 0.245 0 0.04 0.245 0 0.06 0.245 0 0.08 0.245 0 0.1 0.245 0 0 0.25 0 0.02 0.25 0 0.04 0.25 0 0.06 0.25 0 0.08 0.25 0 0.1 0.25 0 0 0.255 0 0.02 0.255 0 0.04 0.255 0 0.06 0.255 0 0.08 0.255 0 0.1 0.255 0 0 0.26 0 0.02 0.26 0 0.04 0.26 0 0.06 0.26 0 0.08 0.26 0 0.1 0.26 0 0 0.265 0 0.02 0.265 0 0.04 0.265 0 0.06 0.265 0 0.08 0.265 0 0.1 0.265 0 0 0.27 0 0.02 0.27 0 0.04 0.27 0 0.06 0.27 0 0.08 0.27 0 0.1 0.27 0 0 0.275 0 0.02 0.275 0 0.04 0.275 0 0.06 0.275 0 0.08 0.275 0 0.1 0.275 0 0 0.28 0 0.02 0.28 0 0.04 0.28 0 0.06 0.28 0 0.08 0.28 0 0.1 0.28 0 0 0.285 0 0.02 0.285 0 0.04 0.285 0 0.06 0.285 0 0.08 0.285 0 0.1 0.285 0 0 0.29 0 0.02 0.29 0 0.04 0.29 0 0.06 0.29 0 0.08 0.29 0 0.1 0.29 0 0 0.295 0 0.02 0.295 0 0.04 0.295 0 0.06 0.295 0 0.08 0.295 0 0.1 0.295 0 0 0.3 0 0.02 0.3 0 0.04 0.3 0 0.06 0.3 0 0.08 0.3 0 0.1 0.3 0 0 0.305 0 0.02 0.305 0 0.04 0.305 0 0.06 0.305 0 0.08 0.305 0 0.1 0.305 0 0 0.31 0 0.02 0.31 0 0.04 0.31 0 0.06 0.31 0 0.08 0.31 0 0.1 0.31 0 0 0.315 0 0.02 0.315 0 0.04 0.315 0 0.06 0.315 0 0.08 0.315 0 0.1 0.315 0 0 0.32 0 0.02 0.32 0 0.04 0.32 0 0.06 0.32 0 0.08 0.32 0 0.1 0.32 0 0 0.325 0 0.02 0.325 0 0.04 0.325 0 0.06 0.325 0 0.08 0.325 0 0.1 0.325 0 0 0.33 0 0.02 0.33 0 0.04 0.33 0 0.06 0.33 0 0.08 0.33 0 0.1 0.33 0 0 0.335 0 0.02 0.335 0 0.04 0.335 0 0.06 0.335 0 0.08 0.335 0 0.1 0.335 0 0 0.34 0 0.02 0.34 0 0.04 0.34 0 0.06 0.34 0 0.08 0.34 0 0.1 0.34 0 0 0.345 0 0.02 0.345 0 0.04 0.345 0 0.06 0.345 0 0.08 0.345 0 0.1 0.345 0 0 0.35 0 0.02 0.35 0 0.04 0.35 0 0.06 0.35 0 0.08 0.35 0 0.1 0.35 0 0 0.355 0 0.02 0.355 0 0.04 0.355 0 0.06 0.355 0 0.08 0.355 0 0.1 0.355 0 0 0.36 0 0.02 0.36 0 0.04 0.36 0 0.06 0.36 0 0.08 0.36 0 0.1 0.36 0 0 0.365 0 0.02 0.365 0 0.04 0.365 0 0.06 0.365 0 0.08 0.365 0 0.1 0.365 0 0 0.37 0 0.02 0.37 0 0.04 0.37 0 0.06 0.37 0 0.08 0.37 0 0.1 0.37 0 0 0.375 0 0.02 0.375 0 0.04 0.375 0 0.06 0.375 0 0.08 0.375 0 0.1 0.375 0 0 0.38 0 0.02 0.38 0 0.04 0.38 0 0.06 0.38 0 0.08 0.38 0 0.1 0.38 0 0 0.385 0 0.02 0.385 0 0.04 0.385 0 0.06 0.385 0 0.08 0.385 0 0.1 0.385 0 0 0.39 0 0.02 0.39 0 0.04 0.39 0 0.06 0.39 0 0.08 0.39 0 0.1 0.39 0 0 0.395 0 0.02 0.395 0 0.04 0.395 0 0.06 0.395 0 0.08 0.395 0 0.1 0.395 0 0 0.4 0 0.02 0.4 0 0.04 0.4 0 0.06 0.4 0 0.08 0.4 0 0.1 0.4 0 0 0.405 0 0.02 0.405 0 0.04 0.405 0 0.06 0.405 0 0.08 0.405 0 0.1 0.405 0 0 0.41 0 0.02 0.41 0 0.04 0.41 0 0.06 0.41 0 0.08 0.41 0 0.1 0.41 0 0 0.415 0 0.02 0.415 0 0.04 0.415 0 0.06 0.415 0 0.08 0.415 0 0.1 0.415 0 0 0.42 0 0.02 0.42 0 0.04 0.42 0 0.06 0.42 0 0.08 0.42 0 0.1 0.42 0 0 0.425 0 0.02 0.425 0 0.04 0.425 0 0.06 0.425 0 0.08 0.425 0 0.1 0.425 0 0 0.43 0 0.02 0.43 0 0.04 0.43 0 0.06 0.43 0 0.08 0.43 0 0.1 0.43 0 0 0.435 0 0.02 0.435 0 0.04 0.435 0 0.06 0.435 0 0.08 0.435 0 0.1 0.435 0 0 0.44 0 0.02 0.44 0 0.04 0.44 0 0.06 0.44 0 0.08 0.44 0 0.1 0.44 0 0 0.445 0 0.02 0.445 0 0.04 0.445 0 0.06 0.445 0 0.08 0.445 0 0.1 0.445 0 0 0.45 0 0.02 0.45 0 0.04 0.45 0 0.06 0.45 0 0.08 0.45 0 0.1 0.45 0 0 0.455 0 0.02 0.455 0 0.04 0.455 0 0.06 0.455 0 0.08 0.455 0 0.1 0.455 0 0 0.46 0 0.02 0.46 0 0.04 0.46 0 0.06 0.46 0 0.08 0.46 0 0.1 0.46 0 0 0.465 0 0.02 0.465 0 0.04 0.465 0 0.06 0.465 0 0.08 0.465 0 0.1 0.465 0 0 0.47 0 0.02 0.47 0 0.04 0.47 0 0.06 0.47 0 0.08 0.47 0 0.1 0.47 0 0 0.475 0 0.02 0.475 0 0.04 0.475 0 0.06 0.475 0 0.08 0.475 0 0.1 0.475 0 0 0.48 0 0.02 0.48 0 0.04 0.48 0 0.06 0.48 0 0.08 0.48 0 0.1 0.48 0 0 0.485 0 0.02 0.485 0 0.04 0.485 0 0.06 0.485 0 0.08 0.485 0 0.1 0.485 0 0 0.49 0 0.02 0.49 0 0.04 0.49 0 0.06 0.49 0 0.08 0.49 0 0.1 0.49 0 0 0.495 0 0.02 0.495 0 0.04 0.495 0 0.06 0.495 0 0.08 0.495 0 0.1 0.495 0 0 0.5 0 0.02 0.5 0 0.04 0.5 0 0.06 0.5 0 0.08 0.5 0 0.1 0.5 0 0 0.505 0 0.02 0.505 0 0.04 0.505 0 0.06 0.505 0 0.08 0.505 0 0.1 0.505 0 0 0.51 0 0.02 0.51 0 0.04 0.51 0 0.06 0.51 0 0.08 0.51 0 0.1 0.51 0 0 0.515 0 0.02 0.515 0 0.04 0.515 0 0.06 0.515 0 0.08 0.515 0 0.1 0.515 0 0 0.52 0 0.02 0.52 0 0.04 0.52 0 0.06 0.52 0 0.08 0.52 0 0.1 0.52 0 0 0.525 0 0.02 0.525 0 0.04 0.525 0 0.06 0.525 0 0.08 0.525 0 0.1 0.525 0 0 0.53 0 0.02 0.53 0 0.04 0.53 0 0.06 0.53 0 0.08 0.53 0 0.1 0.53 0 0 0.535 0 0.02 0.535 0 0.04 0.535 0 0.06 0.535 0 0.08 0.535 0 0.1 0.535 0 0 0.54 0 0.02 0.54 0 0.04 0.54 0 0.06 0.54 0 0.08 0.54 0 0.1 0.54 0 0 0.545 0 0.02 0.545 0 0.04 0.545 0 0.06 0.545 0 0.08 0.545 0 0.1 0.545 0 0 0.55 0 0.02 0.55 0 0.04 0.55 0 0.06 0.55 0 0.08 0.55 0 0.1 0.55 0 0 0.555 0 0.02 0.555 0 0.04 0.555 0 0.06 0.555 0 0.08 0.555 0 0.1 0.555 0 0 0.56 0 0.02 0.56 0 0.04 0.56 0 0.06 0.56 0 0.08 0.56 0 0.1 0.56 0 0 0.565 0 0.02 0.565 0 0.04 0.565 0 0.06 0.565 0 0.08 0.565 0 0.1 0.565 0 0 0.57 0 0.02 0.57 0 0.04 0.57 0 0.06 0.57 0 0.08 0.57 0 0.1 0.57 0 0 0.575 0 0.02 0.575 0 0.04 0.575 0 0.06 0.575 0 0.08 0.575 0 0.1 0.575 0 0 0.58 0 0.02 0.58 0 0.04 0.58 0 0.06 0.58 0 0.08 0.58 0 0.1 0.58 0 0 0.585 0 0.02 0.585 0 0.04 0.585 0 0.06 0.585 0 0.08 0.585 0 0.1 0.585 0 0 0.59 0 0.02 0.59 0 0.04 0.59 0 0.06 0.59 0 0.08 0.59 0 0.1 0.59 0 0 0.595 0 0.02 0.595 0 0.04 0.595 0 0.06 0.595 0 0.08 0.595 0 0.1 0.595 0 0 0.6 0 0.02 0.6 0 0.04 0.6 0 0.06 0.6 0 0.08 0.6 0 0.1 0.6 0 0 0.605 0 0.02 0.605 0 0.04 0.605 0 0.06 0.605 0 0.08 0.605 0 0.1 0.605 0 0 0.61 0 0.02 0.61 0 0.04 0.61 0 0.06 0.61 0 0.08 0.61 0 0.1 0.61 0 0 0.615 0 0.02 0.615 0 0.04 0.615 0 0.06 0.615 0 0.08 0.615 0 0.1 0.615 0 0 0.62 0 0.02 0.62 0 0.04 0.62 0 0.06 0.62 0 0.08 0.62 0 0.1 0.62 0 0 0.625 0 0.02 0.625 0 0.04 0.625 0 0.06 0.625 0 0.08 0.625 0 0.1 0.625 0 0 0.63 0 0.02 0.63 0 0.04 0.63 0 0.06 0.63 0 0.08 0.63 0 0.1 0.63 0 0 0.635 0 0.02 0.635 0 0.04 0.635 0 0.06 0.635 0 0.08 0.635 0 0.1 0.635 0 0 0.64 0 0.02 0.64 0 0.04 0.64 0 0.06 0.64 0 0.08 0.64 0 0.1 0.64 0 0 0.645 0 0.02 0.645 0 0.04 0.645 0 0.06 0.645 0 0.08 0.645 0 0.1 0.645 0 0 0.65 0 0.02 0.65 0 0.04 0.65 0 0.06 0.65 0 0.08 0.65 0 0.1 0.65 0 0 0.655 0 0.02 0.655 0 0.04 0.655 0 0.06 0.655 0 0.08 0.655 0 0.1 0.655 0 0 0.66 0 0.02 0.66 0 0.04 0.66 0 0.06 0.66 0 0.08 0.66 0 0.1 0.66 0 0 0.665 0 0.02 0.665 0 0.04 0.665 0 0.06 0.665 0 0.08 0.665 0 0.1 0.665 0 0 0.67 0 0.02 0.67 0 0.04 0.67 0 0.06 0.67 0 0.08 0.67 0 0.1 0.67 0 0 0.675 0 0.02 0.675 0 0.04 0.675 0 0.06 0.675 0 0.08 0.675 0 0.1 0.675 0 0 0.68 0 0.02 0.68 0 0.04 0.68 0 0.06 0.68 0 0.08 0.68 0 0.1 0.68 0 0 0.685 0 0.02 0.685 0 0.04 0.685 0 0.06 0.685 0 0.08 0.685 0 0.1 0.685 0 0 0.69 0 0.02 0.69 0 0.04 0.69 0 0.06 0.69 0 0.08 0.69 0 0.1 
[...]
			<PointData Scalars="VitesseX">
				<DataArray Name="VitesseX" type="Float32" format="ascii">
 0 -5.7655e-15 -8.08168e-15 1.03148e-14 2.83255e-14 0 0 -5.9598e-15 -7.39515e-15 1.11709e-14 2.78964e-14 0 0 -7.07842e-15 -4.76227e-15 1.21299e-14 2.71284e-14 0 0 -1.49439e-14 7.14636e-15 5.13997e-15 3.01739e-14 0 0 -1.51702e-14 8.60219e-15 1.18128e-14 2.50706e-14 0 0 -1.47258e-15 -1.18382e-14 4.32624e-14 7.08986e-15 0 0 5.69682e-15 -1.99491e-14 5.62679e-14 7.57511e-15 0 0 2.0396e-15 6.26182e-16 3.85277e-14 2.76406e-14 0 0 7.16551e-15 8.67473e-15 4.03082e-14 2.7818e-14 0 0 1.49002e-14 1.51388e-14 3.12991e-14 4.05369e-14 0 0 7.5395e-15 4.01517e-14 -2.04128e-15 6.60324e-14 0 0 1.85602e-14 2.13877e-14 2.23924e-14 4.15421e-14 0 0 6.57334e-15 2.64018e-14 2.40441e-14 3.60217e-14 0 0 -3.53634e-15 2.52772e-14 3.46414e-14 2.08973e-14 0 0 5.15757e-15 1.57738e-14 4.47863e-14 -2.32342e-15 0 0 -3.96085e-15 3.95394e-14 1.59051e-14 1.08364e-14 0 0 1.09144e-14 1.11341e-14 4.5568e-14 -1.33944e-15 0 0 1.79269e-14 -1.02256e-14 6.06214e-14 -8.74584e-17 0 0 1.15318e-14 1.01136e-14 1.43026e-14 3.83208e-14 0 0 2.59148e-14 -1.49489e-17 -9.73096e-15 5.86167e-14 0 0 5.24221e-14 -5.20791e-14 3.25098e-14 3.21547e-14 0 0 1.92538e-14 -8.12493e-15 -1.15326e-14 4.73783e-14 0 0 -9.19945e-15 2.71271e-14 -7.50597e-14 1.02146e-13 0 0 -2.82916e-14 5.45665e-14 -1.10942e-13 1.3956e-13 0 0 -2.28084e-14 2.29757e-14 -5.66329e-14 1.17557e-13 0 0 -1.9985e-14 -2.00607e-14 4.00711e-14 5.91634e-14 0 0 -4.76311e-14 3.10677e-14 3.57098e-14 1.78244e-14 0 0 -3.86163e-14 5.63989e-14 -2.34614e-14 4.78057e-14 0 0 4.55349e-15 2.30856e-14 -2.70184e-14 7.15781e-14 0 0 2.35704e-14 -1.44997e-14 3.85194e-14 3.67797e-14 0 0 -2.41677e-14 4.40935e-14 1.67301e-14 6.32382e-14 0 0 -1.7383e-14 6.94027e-14 -5.34205e-15 9.40829e-14 0 0 -3.67721e-15 5.98979e-14 3.64251e-14 6.79814e-14 0 0 3.64304e-15 3.16596e-14 8.90407e-14 3.29887e-14 0 0 1.91286e-14 -3.39904e-16 1.11921e-13 3.77817e-14 0 0 3.50608e-14 -4.78063e-14 1.48151e-13 4.52783e-14 0 0 2.04279e-14 -3.17943e-14 1.18493e-13 9.14331e-14 0 0 -1.49671e-14 4.50366e-14 2.59736e-14 1.4343e-13 0 0 -4.08268e-14 7.50251e-14 -6.19454e-15 1.51976e-13 0 0 -4.91354e-15 -3.40766e-14 1.10859e-13 9.00359e-14 0 0 4.48191e-15 -5.38083e-14 1.2048e-13 7.71425e-14 0 0 -4.74712e-14 8.6535e-14 -2.81954e-14 1.46891e-13 0 0 3.00153e-14 1.73488e-14 5.50879e-14 5.46429e-14 0 0 8.35214e-14 -4.51844e-14 9.8907e-14 -4.34556e-15 0 0 1.54055e-14 4.19686e-14 3.17385e-16 9.98529e-15 0 0 -3.18611e-14 1.2876e-13 -1.322e-13 6.17683e-14 0 0 -8.10287e-15 1.63972e-13 -2.97024e-13 2.10729e-13 0 0 7.66365e-14 4.76285e-14 -2.37754e-13 2.24412e-13 0 0 1.33895e-13 -8.37832e-14 -4.89992e-14 1.02557e-13 0 0 2.02303e-13 -2.24216e-13 1.61196e-13 -7.23004e-14 0 0 2.39794e-13 -2.70376e-13 2.32198e-13 -1.3665e-13 0 0 1.21277e-13 -6.46838e-14 5.29724e-14 -2.60706e-14 0 0 9.20147e-14 1.34101e-14 -3.95058e-14 4.87114e-14 0 0 1.75031e-13 -6.0069e-14 -2.68134e-14 6.11274e-14 0 0 2.19505e-13 -1.20999e-13 6.53092e-14 -1.95809e-14 0 0 2.01897e-13 -6.88285e-14 6.28041e-14 -2.66736e-14 0 0 1.48841e-13 6.10665e-14 -5.76349e-14 7.46392e-14 0 0 2.1552e-13 -6.06533e-14 9.08866e-14 3.85859e-14 0 0 2.36358e-13 -9.316e-14 1.59678e-13 4.99407e-14 0 0 1.25513e-13 1.07971e-13 -5.90677e-15 1.79632e-13 0 0 9.14015e-14 8.39087e-14 5.5004e-14 2.12398e-13 0 0 1.14173e-13 -4.55302e-15 1.60555e-13 1.93136e-13 0 0 1.00535e-13 -1.73952e-14 2.27538e-13 1.40232e-13 0 0 1.0366e-13 -1.8968e-15 1.92465e-13 1.40688e-13 0 0 1.77754e-13 -6.03909e-14 2.11643e-13 7.27761e-14 0 0 4.21705e-14 1.10003e-14 2.34921e-13 5.35238e-14 0 0 -1.61256e-13 1.58953e-13 1.74436e-13 1.98426e-13 0 0 -8.26976e-15 -3.54811e-14 3.96923e-13 8.02599e-14 0 0 5.80268e-14 -1.48851e-14 2.73093e-13 1.37866e-13 0 0 8.38546e-14 1.26171e-14 1.18984e-13 2.05767e-13 0 0 2.61608e-13 -1.45519e-13 1.9435e-13 7.46628e-14 0 0 3.21691e-13 -7.16589e-14 3.05201e-14 1.7396e-13 0 0 2.98059e-13 -3.67896e-16 3.79499e-14 1.64717e-13 0 0 4.39203e-14 2.07606e-13 8.98955e-15 1.46698e-13 0 0 9.1831e-14 7.11043e-14 1.05451e-13 1.55584e-13 0 0 3.92223e-13 -1.84422e-13 2.46154e-13 1.82715e-13 0 0 3.85296e-13 -3.93244e-16 1.1524e-13 1.72564e-13 0 0 3.09495e-13 1.4941e-13 2.92642e-14 4.726e-14 0 0 3.84479e-13 2.65994e-14 5.84658e-14 -1.06313e-13 0 0 5.18118e-13 -1.87116e-13 1.22296e-13 -6.73733e-14 0 0 5.46103e-13 -3.78271e-13 2.3031e-13 -4.15432e-15 0 0 3.64086e-13 -1.63518e-13 -3.50164e-14 2.24699e-13 0 0 1.01137e-13 2.08703e-13 -4.85689e-13 5.00778e-13 0 0 -9.49088e-14 2.43207e-13 -3.96371e-13 4.03247e-13 0 0 -1.31938e-13 9.48952e-14 -9.20703e-14 1.76204e-13 0 0 -1.98641e-13 -9.97698e-14 2.79279e-13 1.70674e-14 0 0 -3.49359e-13 -4.35516e-15 2.48806e-13 1.02565e-13 0 0 -3.44407e-13 -5.46145e-15 1.05198e-13 2.91123e-13 0 0 -1.06371e-13 -3.22334e-13 1.8668e-13 3.43567e-13 0 0 4.48308e-14 -4.99212e-13 1.82422e-13 4.16528e-13 0 0 -3.78039e-14 -3.60603e-13 -1.03765e-13 6.61771e-13 0 0 -1.57531e-13 -2.18401e-13 -2.18329e-13 7.27607e-13 0 0 -1.36738e-13 -2.26941e-13 -1.7306e-13 6.62673e-13 0 0 5.886e-14 -4.12994e-13 -1.60387e-14 4.9052e-13 0 0 7.63478e-14 -5.46018e-13 2.85754e-13 1.77226e-13 0 0 -1.37864e-14 -5.08326e-13 5.64209e-13 -3.16419e-13 0 0 -1.92733e-13 -3.73171e-13 5.94996e-13 -5.75453e-13 0 0 -4.01953e-13 -1.22556e-13 4.50001e-13 -5.22124e-13 0 0 -4.91852e-13 1.73198e-13 1.19214e-13 -2.67945e-13 0 0 -4.50755e-13 3.58956e-13 -1.8517e-13 9.76501e-14 0 0 -3.60492e-13 4.3188e-13 -3.67732e-13 3.5959e-13 0 0 -2.63574e-13 4.677e-13 -3.83721e-13 3.92229e-13 0 0 -1.7096e-13 4.47336e-13 -2.15914e-13 2.34187e-13 0 0 -3.88964e-15 2.75313e-13 1.76427e-13 -1.36462e-13 0 0 2.38692e-13 -1.11939e-13 7.17986e-13 -3.67823e-13 0 0 3.29065e-13 -2.73947e-13 7.72172e-13 -3.22583e-13 0 0 3.09415e-13 -2.44159e-13 6.97176e-13 -1.46993e-13 0 0 2.00514e-13 -8.86121e-14 5.74512e-13 9.81775e-16 0 0 9.05992e-14 1.60681e-13 4.44814e-13 8.37329e-14 0 0 4.12348e-14 4.01016e-13 1.97358e-13 2.27794e-13 0 0 3.2501e-14 5.42738e-13 -5.83509e-14 3.87482e-13 0 0 8.96349e-14 5.22962e-13 -6.70593e-14 3.80723e-13 0 0 1.92806e-13 4.52654e-13 -2.10686e-14 3.06964e-13 0 0 2.89773e-13 3.64461e-13 1.08178e-14 2.72733e-13 0 0 3.45166e-13 3.16335e-13 5.16017e-15 2.53471e-13 0 0 3.71816e-13 2.75298e-13 7.44331e-14 2.03547e-13 0 0 3.42443e-13 2.92303e-13 1.62629e-13 1.29071e-13 0 0 2.67695e-13 3.35681e-13 1.70932e-13 8.93941e-14 0 0 1.94365e-13 3.76617e-13 1.8796e-13 5.95066e-14 0 0 1.43405e-13 4.0431e-13 1.99887e-13 3.07411e-14 0 0 1.14749e-13 3.97489e-13 2.27991e-13 -1.44318e-14 0 0 8.97509e-14 4.11e-13 1.888e-13 -1.88412e-14 0 0 9.63402e-14 3.79917e-13 1.79363e-13 -1.89275e-14 0 0 9.60077e-14 2.99787e-13 2.31925e-13 -1.08687e-14 0 0 1.05649e-13 2.2643e-13 2.46663e-13 2.18688e-15 0 0 1.51424e-13 1.41161e-13 2.65948e-13 -4.26252e-14 0 0 1.30675e-13 1.58935e-13 2.16254e-13 5.12891e-14 0 0 7.0402e-14 2.12041e-13 1.17439e-13 1.94884e-13 0 0 8.0852e-14 1.66184e-13 1.66378e-13 1.05901e-13 0 0 9.03418e-14 1.2809e-13 2.2074e-13 3.60376e-14 0 0 5.50484e-14 1.76323e-13 1.63394e-13 7.24575e-14 0 0 4.56736e-14 1.81313e-13 1.26195e-13 8.8429e-14 0 0 5.983e-14 1.53353e-13 1.27314e-13 6.76254e-14 0 0 4.4664e-14 1.66373e-13 9.81912e-14 7.20314e-14 0 0 5.43514e-14 1.33482e-13 9.25012e-14 1.68105e-13 0 0 6.53256e-14 1.01784e-13 9.14859e-14 1.75767e-13 0 0 4.43042e-14 9.6147e-14 1.50309e-13 1.12696e-13 0 0 1.33911e-14 9.2711e-14 1.97021e-13 1.10243e-13 0 0 3.0269e-15 6.20526e-14 1.62632e-13 1.32618e-13 0 0 -7.01409e-15 4.5666e-14 1.49553e-13 1.3414e-13 0 0 -3.40286e-14 5.66525e-14 1.13707e-13 1.98395e-13 0 0 -2.53914e-14 4.75632e-14 4.56646e-14 2.52179e-13 0 0 -1.71697e-16 7.1603e-14 -9.09946e-14 2.93209e-13 0 0 -2.82106e-15 3.13116e-14 4.47013e-14 1.7776e-13 0 0 3.84157e-15 -1.3292e-15 3.5354e-13 -2.48119e-14 0 0 1.02546e-14 1.46761e-13 2.37797e-13 1.86231e-13 0 0 4.38168e-14 2.01593e-13 2.82769e-13 1.60078e-13 0 0 7.66494e-14 2.32847e-13 3.88585e-13 9.53636e-14 0 0 7.64498e-14 2.93099e-13 3.96036e-13 1.29425e-13 0 0 6.28655e-14 3.59016e-13 3.45142e-13 2.05832e-13 0 0 6.90299e-14 3.58044e-13 3.82606e-13 2.49818e-13 0 0 1.51476e-13 2.34373e-13 5.39472e-13 1.57519e-13 0 0 1.85166e-13 2.29513e-13 5.59411e-13 1.56367e-13 0 0 9.72296e-14 4.24133e-13 3.84966e-13 2.76084e-13 0 0 8.09945e-14 4.4848e-13 4.253e-13 2.87195e-13 0 0 1.26311e-13 3.60341e-13 5.54628e-13 2.02533e-13 0 0 2.09863e-13 2.85834e-13 6.15569e-13 1.6351e-13 0 0 3.01074e-13 1.87744e-13 7.06779e-13 1.60576e-13 0 0 1.99365e-13 3.88563e-13 5.26352e-13 2.69576e-13 0 0 8.84728e-14 6.73343e-13 1.8209e-13 4.66258e-13 0 0 2.1127e-13 6.23471e-13 1.26178e-13 5.13692e-13 0 0 5.05724e-13 2.18798e-13 5.24873e-13 2.72743e-13 0 0 5.95656e-13 1.15186e-13 6.72597e-13 1.73506e-13 0 0 5.11882e-13 3.60713e-13 4.82202e-13 2.481e-13 0 0 3.85513e-13 6.22341e-13 3.18964e-13 2.12256e-13 0 0 3.34295e-13 7.07612e-13 3.15042e-13 1.66772e-13 0 0 5.32116e-13 4.90902e-13 4.99466e-13 1.2417e-13 0 0 5.67197e-13 4.98058e-13 4.82776e-13 1.3625e-13 0 0 5.3526e-13 5.21488e-13 4.516e-13 2.11624e-13 0 0 4.00941e-13 6.97836e-13 3.19607e-13 3.46812e-13 0 0 4.04203e-13 5.45069e-13 6.76402e-13 6.98359e-14 0 0 5.81011e-13 2.68872e-13 9.08341e-13 -3.34843e-14 0 0 4.33077e-13 6.3937e-13 4.91257e-13 1.53514e-13 0 0 4.86696e-13 6.42358e-13 4.34014e-13 2.73024e-13 0 0 5.46551e-13 5.39098e-13 4.46717e-13 4.5324e-13 0 0 2.4669e-13 7.86199e-13 3.67039e-13 5.08648e-13 0 0 2.32771e-13 6.94455e-13 4.68782e-13 4.26745e-13 0 0 5.01751e-13 4.24563e-13 6.06166e-13 2.74701e-13 0 0 6.149e-13 3.766e-13 6.02382e-13 2.83608e-13 0 0 5.09832e-13 5.36848e-13 4.36327e-13 4.37383e-13 0 0 4.65032e-13 5.32832e-13 4.55017e-13 4.78089e-13 0 0 3.46226e-13 6.18745e-13 5.8399e-13 3.03038e-13 0 0 1.76137e-13 7.84803e-13 6.61989e-13 2.09143e-13 0 0 2.3712e-13 5.97549e-13 7.9367e-13 2.61969e-13 0 0 1.0601e-13 7.44696e-13 6.35517e-13 3.40612e-13 0 0 9.17802e-14 7.22677e-13 7.06351e-13 1.8563e-13 0 0 3.92119e-13 2.59269e-13 1.08395e-12 -4.57932e-14 0 0 1.22525e-13 5.49815e-13 8.11759e-13 1.20265e-13 0 0 -8.47019e-14 8.31926e-13 4.71501e-13 2.73345e-13 0 0 1.80448e-13 4.68608e-13 8.08681e-13 -3.76724e-14 0 0 3.05198e-13 2.35683e-13 9.17987e-13 -6.5367e-14 0 0 1.15444e-13 4.2609e-13 6.25058e-13 1.38603e-13 0 0 9.33242e-14 2.69943e-13 9.18059e-13 -1.13468e-13 0 0 5.4003e-14 1.94657e-13 1.025e-12 -1.22492e-13 0 0 -3.40826e-13 6.72206e-13 7.74162e-13 -5.57005e-14 0 0 -2.62477e-13 7.10829e-13 7.44413e-13 -9.8734e-14 0 0 -8.08726e-14 5.58216e-13 7.3108e-13 -7.11272e-17 0 0 1.67365e-13 1.49621e-13 1.132e-12 -2.44471e-13 0 0 1.45714e-13 2.5983e-13 9.92475e-13 -1.60822e-13 0 0 -3.53246e-13 1.07873e-12 2.06482e-13 2.4563e-13 0 0 -5.52404e-13 1.42074e-12 -1.23958e-13 3.55825e-13 0
				</DataArray>
				<DataArray Name="VitesseY" type="Float32" format="ascii">