<?xml version="1.0"?>
<VTKFile type="PolyData">
	<PolyData>
		<Piece NumberOfPoints="1206" NumberOfPolys="1000">
			<Points>
				<DataArray type="Float32" NumberOfComponents="3" format="ascii">
 0 0 0 0.02 0 0 0.04 0 0 0.06 0 0 0.08 0 0 0.1 0 0 0 0.005 0 0.02 0.005 0 0.04 0.005 0 0.06 0.005 0 0.08 0.005 0 0.1 0.005 0 0 0.01 0 0.02 0.01 0 0.04 0.01 0 0.06 0.01 0 0.08 0.01 0 0.1 0.01 0 0 0.015 0 0.02 0.015 0 0.04 0.015 0 0.06 0.015 0 0.08 0.015 0 0.1 0.015 0 0 0.02 0 0.02 0.02 0 0.04 0.02 0 0.06 0.02 0 0.08 0.02 0 0.1 0.02 0 0 0.025 0 0.02 0.025 0 0.04 0.025 0 0.06 0.025 0 0.08 0.025 0 0.1 0.025 0 0 0.03 0 0.02 0.03 0 0.04 0.03 0 0.06 0.03 0 0.08 0.03 0 0.1 0.03 0 0 0.035 0 0.02 0.035 0 0.04 0.035 0 0.06 0.035 0 0.08 0.035 0 0.1 0.035 0 0 0.04 0 0.02 0.04 0 0.04 0.04 0 0.06 0.04 0 0.08 0.04 0 0.1 0.04 0 0 0.045 0 0.02 0.045 0 0.04 0.045 0 0.06 0.045 0 0.08 0.045 0 0.1 0.045 0 0 0.05 0 0.02 0.05 0 0.04 0.05 0 0.06 0.05 0 0.08 0.05 0 0.1 0.05 0 0 0.055 0 0.02 0.055 0 0.04 0.055 0 0.06 0.055 0 0.08 0.055 0 0.1 0.055 0 0 0.06 0 0.02 0.06 0 0.04 0.06 0 0.06 0.06 0 0.08 0.06 0 0.1 0.06 0 0 0.065 0 0.02 0.065 0 0.04 0.065 0 0.06 0.065 0 0.08 0.065 0 0.1 0.065 0 0 0.07 0 0.02 0.07 0 0.04 0.07 0 0.06 0.07 0 0.08 0.07 0 0.1 0.07 0 0 0.075 0 0.02 0.075 0 0.04 0.075 0 0.06 0.075 0 0.08 0.075 0 0.1 0.075 0 0 0.08 0 0.02 0.08 0 0.04 0.08 0 0.06 0.08 0 0.08 0.08 0 0.1 0.08 0 0 0.085 0 0.02 0.085 0 0.04 0.085 0 0.06 0.085 0 0.08 0.085 0 0.1 0.085 0 0 0.09 0 0.02 0.09 0 0.04 0.09 0 0.06 0.09 0 0.08 0.09 0 0.1 0.09 0 0 0.095 0 0.02 0.095 0 0.04 0.095 0 0.06 0.095 0 0.08 0.095 0 0.1 0.095 0 0 0.1 0 0.02 0.1 0 0.04 0.1 0 0.06 0.1 0 0.08 0.1 0 0.1 0.1 0 0 0.105 0 0.02 0.105 0 0.04 0.105 0 0.06 0.105 0 0.08 0.105 0 0.1 0.105 0 0 0.11 0 0.02 0.11 0 0.04 0.11 0 0.06 0.11 0 0.08 0.11 0 0.1 0.11 0 0 0.115 0 0.02 0.115 0 0.04 0.115 0 0.06 0.115 0 0.08 0.115 0 0.1 0.115 0 0 0.12 0 0.02 0.12 0 0.04 0.12 0 0.06 0.12 0 0.08 0.12 0 0.1 0.12 0 0 0.125 0 0.02 0.125 0 0.04 0.125 0 0.06 0.125 0 0.08 0.125 0 0.1 0.125 0 0 0.13 0 0.02 0.13 0 0.04 0.13 0 0.06 0.13 0 0.08 0.13 0 0.1 0.13 0 0 0.135 0 0.02 0.135 0 0.04 0.135 0 0.06 0.135 0 0.08 0.135 0 0.1 0.135 0 0 0.14 0 0.02 0.14 0 0.04 0.14 0 0.06 0.14 0 0.08 0.14 0 0.1 0.14 0 0 0.145 0 0.02 0.145 0 0.04 0.145 0 0.06 0.145 0 0.08 0.145 0 0.1 0.145 0 0 0.15 0 0.02 0.15 0 0.04 0.15 0 0.06 0.15 0 0.08 0.15 0 0.1 0.15 0 0 0.155 0 0.02 0.155 0 0.04 0.155 0 0.06 0.155 0 0.08 0.155 0 0.1 0.155 0 0 0.16 0 0.02 0.16 0 0.04 0.16 0 0.06 0.16 0 0.08 0.16 0 0.1 0.16 0 0 0.165 0 0.02 0.165 0 0.04 0.165 0 0.06 0.165 0 0.08 0.165 0 0.1 0.165 0 0 0.17 0 0.02 0.17 0 0.04 0.17 0 0.06 0.17 0 0.08 0.17 0 0.1 0.17 0 0 0.175 0 0.02 0.175 0 0.04 0.175 0 0.06 0.175 0 0.08 0.175 0 0.1 0.175 0 0 0.18 0 0.02 0.18 0 0.04 0.18 0 0.06 0.18 0 0.08 0.18 0 0.1 0.18 0 0 0.185 0 0.02 0.185 0 0.04 0.185 0 0.06 0.185 0 0.08 0.185 0 0.1 0.185 0 0 0.19 0 0.02 0.19 0 0.04 0.19 0 0.06 0.19 0 0.08 0.19 0 0.1 0.19 0 0 0.195 0 0.02 0.195 0 0.04 0.195 0 0.06 0.195 0 0.08 0.195 0 0.1 0.195 0 0 0.2 0 0.02 0.2 0 0.04 0.2 0 0.06 0.2 0 0.08 0.2 0 0.1 0.2 0 0 0.205 0 0.02 0.205 0 0.04 0.205 0 0.06 0.205 0 0.08 0.205 0 0.1 0.205 0 0 0.21 0 0.02 0.21 0 0.04 0.21 0 0.06 0.21 0 0.08 0.21 0 0.1 0.21 0 0 0.215 0 0.02 0.215 0 0.04 0.215 0 0.06 0.215 0 0.08 0.215 0 0.1 0.215 0 0 0.22 0 0.02 0.22 0 0.04 0.22 0 0.06 0.22 0 0.08 0.22 0 0.1 0.22 0 0 0.225 0 0.02 0.225 0 0.04 0.225 0 0.06 0.225 0 0.08 0.225 0 0.1 0.225 0 0 0.23 0 0.02 0.23 0 0.04 0.23 0 0.06 0.23 0 0.08 0.23 0 0.1 0.23 0 0 0.235 0 0.02 0.235 0 0.04 0.235 0 0.06 0.235 0 0.08 0.235 0 0.1 0.235 0 0 0.24 0 0.02 0.24 0 0.04 0.24 0 0.06 0.24 0 0.08 0.24 0 0.1 0.24 0 0 0.245 0 0.02 0.245 0 0.04 0.245 0 0.06 0.245 0 0.08 0.245 0 0.1 0.245 0 0 0.25 0 0.02 0.25 0 0.04 0.25 0 0.06 0.25 0 0.08 0.25 0 0.1 0.25 0 0 0.255 0 0.02 0.255 0 0.04 0.255 0 0.06 0.255 0 0.08 0.255 0 0.1 0.255 0 0 0.26 0 0.02 0.26 0 0.04 0.26 0 0.06 0.26 0 0.08 0.26 0 0.1 0.26 0 0 0.265 0 0.02 0.265 0 0.04 0.265 0 0.06 0.265 0 0.08 0.265 0 0.1 0.265 0 0 0.27 0 0.02 0.27 0 0.04 0.27 0 0.06 0.27 0 0.08 0.27 0 0.1 0.27 0 0 0.275 0 0.02 0.275 0 0.04 0.275 0 0.06 0.275 0 0.08 0.275 0 0.1 0.275 0 0 0.28 0 0.02 0.28 0 0.04 0.28 0 0.06 0.28 0 0.08 0.28 0 0.1 0.28 0 0 0.285 0 0.02 0.285 0 0.04 0.285 0 0.06 0.285 0 0.08 0.285 0 0.1 0.285 0 0 0.29 0 0.02 0.29 0 0.04 0.29 0 0.06 0.29 0 0.08 0.29 0 0.1 0.29 0 0 0.295 0 0.02 0.295 0 0.04 0.295 0 0.06 0.295 0 0.08 0.295 0 0.1 0.295 0 0 0.3 0 0.02 0.3 0 0.04 0.3 0 0.06 0.3 0 0.08 0.3 0 0.1 0.3 0 0 0.305 0 0.02 0.305 0 0.04 0.305 0 0.06 0.305 0 0.08 0.305 0 0.1 0.305 0 0 0.31 0 0.02 0.31 0 0.04 0.31 0 0.06 0.31 0 0.08 0.31 0 0.1 0.31 0 0 0.315 0 0.02 0.315 0 0.04 0.315 0 0.06 0.315 0 0.08 0.315 0 0.1 0.315 0 0 0.32 0 0.02 0.32 0 0.04 0.32 0 0.06 0.32 0 0.08 0.32 0 0.1 0.32 0 0 0.325 0 0.02 0.325 0 0.04 0.325 0 0.06 0.325 0 0.08 0.325 0 0.1 0.325 0 0 0.33 0 0.02 0.33 0 0.04 0.33 0 0.06 0.33 0 0.08 0.33 0 0.1 0.33 0 0 0.335 0 0.02 0.335 0 0.04 0.335 0 0.06 0.335 0 0.08 0.335 0 0.1 0.335 0 0 0.34 0 0.02 0.34 0 0.04 0.34 0 0.06 0.34 0 0.08 0.34 0 0.1 0.34 0 0 0.345 0 0.02 0.345 0 0.04 0.345 0 0.06 0.345 0 0.08 0.345 0 0.1 0.345 0 0 0.35 0 0.02 0.35 0 0.04 0.35 0 0.06 0.35 0 0.08 0.35 0 0.1 0.35 0 0 0.355 0 0.02 0.355 0 0.04 0.355 0 0.06 0.355 0 0.08 0.355 0 0.1 0.355 0 0 0.36 0 0.02 0.36 0 0.04 0.36 0 0.06 0.36 0 0.08 0.36 0 0.1 0.36 0 0 0.365 0 0.02 0.365 0 0.04 0.365 0 0.06 0.365 0 0.08 0.365 0 0.1 0.365 0 0 0.37 0 0.02 0.37 0 0.04 0.37 0 0.06 0.37 0 0.08 0.37 0 0.1 0.37 0 0 0.375 0 0.02 0.375 0 0.04 0.375 0 0.06 0.375 0 0.08 0.375 0 0.1 0.375 0 0 0.38 0 0.02 0.38 0 0.04 0.38 0 0.06 0.38 0 0.08 0.38 0 0.1 0.38 0 0 0.385 0 0.02 0.385 0 0.04 0.385 0 0.06 0.385 0 0.08 0.385 0 0.1 0.385 0 0 0.39 0 0.02 0.39 0 0.04 0.39 0 0.06 0.39 0 0.08 0.39 0 0.1 0.39 0 0 0.395 0 0.02 0.395 0 0.04 0.395 0 0.06 0.395 0 0.08 0.395 0 0.1 0.395 0 0 0.4 0 0.02 0.4 0 0.04 0.4 0 0.06 0.4 0 0.08 0.4 0 0.1 0.4 0 0 0.405 0 0.02 0.405 0 0.04 0.405 0 0.06 0.405 0 0.08 0.405 0 0.1 0.405 0 0 0.41 0 0.02 0.41 0 0.04 0.41 0 0.06 0.41 0 0.08 0.41 0 0.1 0.41 0 0 0.415 0 0.02 0.415 0 0.04 0.415 0 0.06 0.415 0 0.08 0.415 0 0.1 0.415 0 0 0.42 0 0.02 0.42 0 0.04 0.42 0 0.06 0.42 0 0.08 0.42 0 0.1 0.42 0 0 0.425 0 0.02 0.425 0 0.04 0.425 0 0.06 0.425 0 0.08 0.425 0 0.1 0.425 0 0 0.43 0 0.02 0.43 0 0.04 0.43 0 0.06 0.43 0 0.08 0.43 0 0.1 0.43 0 0 0.435 0 0.02 0.435 0 0.04 0.435 0 0.06 0.435 0 0.08 0.435 0 0.1 0.435 0 0 0.44 0 0.02 0.44 0 0.04 0.44 0 0.06 0.44 0 0.08 0.44 0 0.1 0.44 0 0 0.445 0 0.02 0.445 0 0.04 0.445 0 0.06 0.445 0 0.08 0.445 0 0.1 0.445 0 0 0.45 0 0.02 0.45 0 0.04 0.45 0 0.06 0.45 0 0.08 0.45 0 0.1 0.45 0 0 0.455 0 0.02 0.455 0 0.04 0.455 0 0.06 0.455 0 0.08 0.455 0 0.1 0.455 0 0 0.46 0 0.02 0.46 0 0.04 0.46 0 0.06 0.46 0 0.08 0.46 0 0.1 0.46 0 0 0.465 0 0.02 0.465 0 0.04 0.465 0 0.06 0.465 0 0.08 0.465 0 0.1 0.465 0 0 0.47 0 0.02 0.47 0 0.04 0.47 0 0.06 0.47 0 0.08 0.47 0 0.1 0.47 0 0 0.475 0 0.02 0.475 0 0.04 0.475 0 0.06 0.475 0 0.08 0.475 0 0.1 0.475 0 0 0.48 0 0.02 0.48 0 0.04 0.48 0 0.06 0.48 0 0.08 0.48 0 0.1 0.48 0 0 0.485 0 0.02 0.485 0 0.04 0.485 0 0.06 0.485 0 0.08 0.485 0 0.1 0.485 0 0 0.49 0 0.02 0.49 0 0.04 0.49 0 0.06 0.49 0 0.08 0.49 0 0.1 0.49 0 0 0.495 0 0.02 0.495 0 0.04 0.495 0 0.06 0.495 0 0.08 0.495 0 0.1 0.495 0 0 0.5 0 0.02 0.5 0 0.04 0.5 0 0.06 0.5 0 0.08 0.5 0 0.1 0.5 0 0 0.505 0 0.02 0.505 0 0.04 0.505 0 0.06 0.505 0 0.08 0.505 0 0.1 0.505 0 0 0.51 0 0.02 0.51 0 0.04 0.51 0 0.06 0.51 0 0.08 0.51 0 0.1 0.51 0 0 0.515 0 0.02 0.515 0 0.04 0.515 0 0.06 0.515 0 0.08 0.515 0 0.1 0.515 0 0 0.52 0 0.02 0.52 0 0.04 0.52 0 0.06 0.52 0 0.08 0.52 0 0.1 0.52 0 0 0.525 0 0.02 0.525 0 0.04 0.525 0 0.06 0.525 0 0.08 0.525 0 0.1 0.525 0 0 0.53 0 0.02 0.53 0 0.04 0.53 0 0.06 0.53 0 0.08 0.53 0 0.1 0.53 0 0 0.535 0 0.02 0.535 0 0.04 0.535 0 0.06 0.535 0 0.08 0.535 0 0.1 0.535 0 0 0.54 0 0.02 0.54 0 0.04 0.54 0 0.06 0.54 0 0.08 0.54 0 0.1 0.54 0 0 0.545 0 0.02 0.545 0 0.04 0.545 0 0.06 0.545 0 0.08 0.545 0 0.1 0.545 0 0 0.55 0 0.02 0.55 0 0.04 0.55 0 0.06 0.55 0 0.08 0.55 0 0.1 0.55 0 0 0.555 0 0.02 0.555 0 0.04 0.555 0 0.06 0.555 0 0.08 0.555 0 0.1 0.555 0 0 0.56 0 0.02 0.56 0 0.04 0.56 0 0.06 0.56 0 0.08 0.56 0 0.1 0.56 0 0 0.565 0 0.02 0.565 0 0.04 0.565 0 0.06 0.565 0 0.08 0.565 0 0.1 0.565 0 0 0.57 0 0.02 0.57 0 0.04 0.57 0 0.06 0.57 0 0.08 0.57 0 0.1 0.57 0 0 0.575 0 0.02 0.575 0 0.04 0.575 0 0.06 0.575 0 0.08 0.575 0 0.1 0.575 0 0 0.58 0 0.02 0.58 0 0.04 0.58 0 0.06 0.58 0 0.08 0.58 0 0.1 0.58 0 0 0.585 0 0.02 0.585 0 0.04 0.585 0 0.06 0.585 0 0.08 0.585 0 0.1 0.585 0 0 0.59 0 0.02 0.59 0 0.04 0.59 0 0.06 0.59 0 0.08 0.59 0 0.1 0.59 0 0 0.595 0 0.02 0.595 0 0.04 0.595 0 0.06 0.595 0 0.08 0.595 0 0.1 0.595 0 0 0.6 0 0.02 0.6 0 0.04 0.6 0 0.06 0.6 0 0.08 0.6 0 0.1 0.6 0 0 0.605 0 0.02 0.605 0 0.04 0.605 0 0.06 0.605 0 0.08 0.605 0 0.1 0.605 0 0 0.61 0 0.02 0.61 0 0.04 0.61 0 0.06 0.61 0 0.08 0.61 0 0.1 0.61 0 0 0.615 0 0.02 0.615 0 0.04 0.615 0 0.06 0.615 0 0.08 0.615 0 0.1 0.615 0 0 0.62 0 0.02 0.62 0 0.04 0.62 0 0.06 0.62 0 0.08 0.62 0 0.1 0.62 0 0 0.625 0 0.02 0.625 0 0.04 0.625 0 0.06 0.625 0 0.08 0.625 0 0.1 0.625 0 0 0.63 0 0.02 0.63 0 0.04 0.63 0 0.06 0.63 0 0.08 0.63 0 0.1 0.63 0 0 0.635 0 0.02 0.635 0 0.04 0.635 0 0.06 0.635 0 0.08 0.635 0 0.1 0.635 0 0 0.64 0 0.02 0.64 0 0.04 0.64 0 0.06 0.64 0 0.08 0.64 0 0.1 0.64 0 0 0.645 0 0.02 0.645 0 0.04 0.645 0 0.06 0.645 0 0.08 0.645 0 0.1 0.645 0 0 0.65 0 0.02 0.65 0 0.04 0.65 0 0.06 0.65 0 0.08 0.65 0 0.1 0.65 0 0 0.655 0 0.02 0.655 0 0.04 0.655 0 0.06 0.655 0 0.08 0.655 0 0.1 0.655 0 0 0.66 0 0.02 0.66 0 0.04 0.66 0 0.06 0.66 0 0.08 0.66 0 0.1 0.66 0 0 0.665 0 0.02 0.665 0 0.04 0.665 0 0.06 0.665 0 0.08 0.665 0 0.1 0.665 0 0 0.67 0 0.02 0.67 0 0.04 0.67 0 0.06 0.67 0 0.08 0.67 0 0.1 0.67 0 0 0.675 0 0.02 0.675 0 0.04 0.675 0 0.06 0.675 0 0.08 0.675 0 0.1 0.675 0 0 0.68 0 0.02 0.68 0 0.04 0.68 0 0.06 0.68 0 0.08 0.68 0 0.1 0.68 0 0 0.685 0 0.02 0.685 0 0.04 0.685 0 0.06 0.685 0 0.08 0.685 0 0.1 0.685 0 0 0.69 0 0.02 0.69 0 0.04 0.69 0 0.06 0.69 0 0.08 0.69 0 0.1 
[...]
			<PointData Scalars="VitesseX">
				<DataArray Name="VitesseX" type="Float32" format="ascii">
 0 -2.18503e-14 -1.60332e-14 -2.08639e-14 -1.769e-14 0 0 -1.94129e-14 -1.7879e-14 -2.11929e-14 -1.52858e-14 0 0 -1.19639e-14 -2.72689e-14 -1.35055e-14 -1.80226e-14 0 0 -1.29397e-14 -2.48909e-14 -1.45474e-14 -1.66835e-14 0 0 -1.32405e-14 -2.53284e-14 -1.1949e-14 -1.85387e-14 0 0 -1.48989e-14 -1.85393e-14 -1.99959e-14 -1.5355e-14 0 0 -2.46502e-14 -2.88832e-16 -3.48364e-14 -6.97194e-15 0 0 -1.64569e-14 -1.6342e-14 -1.47662e-14 -1.15287e-14 0 0 -1.1935e-14 -1.9309e-14 -1.48066e-14 -1.33435e-14 0 0 -1.24023e-14 -1.23855e-14 -1.63033e-14 -2.8875e-14 0 0 -9.37172e-15 -1.02518e-14 -1.34057e-14 -3.21505e-14 0 0 -1.15567e-14 -6.12816e-15 -1.08086e-14 -2.39708e-14 0 0 -5.70828e-15 -2.19783e-14 2.0452e-14 -4.00804e-14 0 0 -4.86159e-15 -1.10753e-14 8.56991e-15 -3.07442e-14 0 0 -2.90662e-15 5.0042e-15 -1.23088e-14 -1.34054e-14 0 0 -9.8002e-16 -1.5422e-14 1.47857e-14 -1.81994e-14 0 0 -1.86116e-14 -4.6861e-15 -1.19145e-14 2.08936e-14 0 0 -3.24789e-15 -3.55581e-14 1.55009e-14 1.26874e-14 0 0 -1.048e-14 -3.02029e-14 2.83674e-14 -5.02232e-15 0 0 -3.75766e-14 1.67494e-14 -4.07153e-14 2.78384e-14 0 0 -1.35917e-14 -2.11803e-14 -2.28793e-14 7.32302e-15 0 0 -7.15267e-15 -2.25474e-14 -3.41474e-14 1.2918e-14 0 0 3.86223e-16 -4.82931e-14 2.8623e-15 -3.07766e-14 0 0 -3.43452e-14 -1.479e-14 7.40283e-15 -7.84628e-14 0 0 -5.62364e-14 3.85328e-14 -7.14782e-14 -3.90908e-14 0 0 1.04234e-14 -3.81198e-14 -4.49542e-14 -3.99414e-14 0 0 3.55287e-14 -3.45594e-14 -9.10251e-14 1.24248e-14 0 0 5.74835e-14 -6.43912e-14 -8.31054e-14 3.24062e-14 0 0 -5.22274e-15 -1.12772e-14 -1.07032e-13 4.32945e-14 0 0 -4.55547e-14 1.31899e-14 -6.10045e-14 -1.45151e-14 0 0 1.83018e-14 -1.12731e-13 1.09218e-13 -1.30608e-13 0 0 -9.06142e-15 -6.07816e-14 2.54742e-14 -6.31717e-14 0 0 -2.52373e-14 -3.24373e-14 -3.5456e-14 -8.12462e-15 0 0 7.73221e-15 -9.62741e-14 1.05548e-14 -5.53104e-15 0 0 -1.86457e-14 -4.97206e-14 -3.78559e-14 4.06919e-14 0 0 -5.04243e-14 3.322e-15 -6.76735e-14 4.82156e-14 0 0 -8.09136e-14 1.68271e-14 -3.76975e-14 2.17507e-14 0 0 -6.83821e-14 -2.64904e-14 1.8415e-14 -6.79536e-15 0 0 -9.72451e-14 3.19116e-14 -3.62861e-14 -1.03324e-15 0 0 -9.43931e-14 2.29402e-14 -1.6894e-14 -3.77277e-14 0 0 1.74051e-14 -1.36304e-13 1.0288e-13 -8.88846e-14 0 0 -6.23337e-15 -5.98664e-14 3.75212e-14 -4.17705e-14 0 0 3.475e-15 -1.61346e-14 -3.04055e-14 1.93209e-14 0 0 3.04463e-14 -7.36847e-14 9.20083e-15 3.5839e-14 0 0 -2.74774e-14 -5.25424e-14 1.15202e-14 8.00453e-14 0 0 -8.87492e-15 -6.21113e-14 -1.13784e-14 8.81494e-14 0 0 -3.62074e-14 -5.9155e-14 1.60393e-15 2.50913e-14 0 0 -5.63527e-14 -2.23298e-14 -8.82804e-14 5.81923e-14 0 0 5.19304e-14 -1.02558e-13 -9.63017e-14 6.13593e-14 0 0 3.90766e-14 -5.42753e-14 -1.65846e-13 1.26929e-13 0 0 1.13262e-14 4.48774e-14 -2.69981e-13 1.62984e-13 0 0 9.60488e-14 -9.37673e-14 -1.11457e-13 2.30467e-14 0 0 1.51437e-13 -2.79247e-13 5.1323e-14 -1.88319e-14 0 0 8.23397e-14 -2.40083e-13 -7.1614e-14 9.20034e-14 0 0 -2.69427e-14 -1.23597e-13 -2.29787e-13 1.43041e-13 0 0 -2.99845e-14 -1.08978e-13 -2.48296e-13 7.90534e-14 0 0 7.55735e-14 -1.49651e-13 -2.16682e-13 -3.94238e-14 0 0 1.47983e-13 -1.46834e-13 -2.32376e-13 -4.09988e-14 0 0 1.36745e-13 -1.4406e-13 -2.35243e-13 5.89157e-14 0 0 9.46277e-14 -1.86128e-13 -1.36558e-13 4.00442e-14 0 0 -1.61023e-14 -1.68908e-13 -6.7397e-14 -4.40077e-14 0 0 -1.26749e-13 -1.29498e-13 -6.8593e-14 -3.50337e-14 0 0 -1.80898e-13 -1.23956e-13 -1.41933e-13 1.06733e-13 0 0 -1.9128e-13 -1.61326e-13 -1.66161e-13 1.68576e-13 0 0 -2.0865e-13 -1.69797e-13 -1.4996e-13 9.01347e-14 0 0 -2.16832e-13 -1.81785e-13 -1.44008e-13 4.58082e-15 0 0 -1.49103e-13 -3.02781e-13 -8.94542e-14 -6.63732e-14 0 0 -4.91736e-14 -4.22764e-13 -8.77574e-14 -1.28657e-13 0 0 -5.96424e-14 -4.03492e-13 -1.61723e-13 -4.51783e-14 0 0 -1.4193e-13 -3.11762e-13 -3.17007e-13 1.11318e-13 0 0 -2.51243e-13 -3.01046e-13 -2.82249e-13 1.47176e-13 0 0 -3.11557e-13 -3.37072e-13 -2.12408e-13 1.38423e-13 0 0 -2.96169e-13 -4.22187e-13 -1.12748e-13 1.07557e-13 0 0 -2.47825e-13 -4.70647e-13 -1.50262e-13 1.36941e-13 0 0 -2.29388e-13 -4.26013e-13 -2.55627e-13 1.86318e-13 0 0 -2.58843e-13 -2.72989e-13 -4.77412e-13 2.09529e-13 0 0 -2.76457e-13 -1.16711e-13 -5.6245e-13 1.26659e-13 0 0 -2.62132e-13 -1.21382e-13 -4.97315e-13 -1.04553e-14 0 0 -2.00503e-13 -1.90115e-13 -3.33869e-13 -6.83274e-14 0 0 -9.22168e-14 -3.07821e-13 -1.00751e-13 -1.52704e-14 0 0 -6.2449e-14 -3.05805e-13 -7.78424e-14 7.21011e-14 0 0 -4.04057e-14 -2.59399e-13 -1.24087e-13 1.8275e-13 0 0 2.58419e-15 -2.55752e-13 -2.46532e-13 3.23106e-13 0 0 5.36797e-14 -2.73085e-13 -3.22354e-13 3.80183e-13 0 0 1.33552e-13 -3.40663e-13 -3.27585e-13 3.62057e-13 0 0 2.48379e-13 -3.42113e-13 -3.42778e-13 3.10688e-13 0 0 2.20982e-13 -2.91438e-13 -3.70713e-13 2.62054e-13 0 0 1.65811e-13 -2.18741e-13 -4.10986e-13 1.70251e-13 0 0 7.68316e-14 -8.99375e-14 -4.05583e-13 2.68513e-14 0 0 -3.48691e-14 -3.38387e-14 -3.49845e-13 -1.43633e-13 0 0 -8.8516e-14 -5.32572e-14 -2.38068e-13 -3.31513e-13 0 0 -1.46971e-13 -7.60429e-14 -1.10789e-13 -3.6663e-13 0 0 -1.72678e-13 -7.44576e-14 -1.02603e-13 -3.285e-13 0 0 -1.78612e-13 -4.70566e-14 -1.52243e-13 -2.17007e-13 0 0 -1.90135e-13 9.7454e-15 -2.58227e-13 -7.2657e-14 0 0 -2.20067e-13 6.48024e-14 -3.22529e-13 -5.39062e-14 0 0 -2.23388e-13 1.18536e-13 -3.94743e-13 -2.91508e-14 0 0 -1.91302e-13 1.04741e-13 -4.74071e-13 2.04282e-15 0 0 -9.17849e-14 5.73475e-15 -4.61099e-13 -1.86973e-14 0 0 6.032e-14 -1.87907e-13 -4.3988e-13 -2.24105e-14 0 0 2.65829e-13 -3.5604e-13 -4.70879e-13 4.77701e-14 0 0 5.03223e-13 -4.61013e-13 -5.89121e-13 1.90504e-13 0 0 5.56722e-13 -4.77673e-13 -6.23557e-13 2.17375e-13 0 0 5.46617e-13 -4.57317e-13 -5.82416e-13 1.64803e-13 0 0 4.63883e-13 -3.95654e-13 -4.58065e-13 1.49026e-15 0 0 3.00648e-13 -3.0591e-13 -2.82115e-13 -2.10656e-13 0 0 1.15296e-13 -2.4965e-13 -6.30102e-14 -4.37403e-13 0 0 6.2022e-14 -2.27274e-13 3.69808e-15 -5.44305e-13 0 0 2.66073e-14 -1.76101e-13 -3.88126e-14 -5.27118e-13 0 0 1.15595e-15 -1.10426e-13 -1.29243e-13 -4.96491e-13 0 0 -1.64169e-14 -9.39486e-14 -2.11692e-13 -4.60044e-13 0 0 -3.72638e-14 -6.45674e-14 -3.00857e-13 -3.92849e-13 0 0 -3.82315e-14 -6.03221e-14 -3.64688e-13 -3.10292e-13 0 0 -2.262e-14 -8.89231e-14 -3.77247e-13 -2.6025e-13 0 0 -2.07679e-14 -1.0168e-13 -3.78905e-13 -2.42154e-13 0 0 -2.51909e-14 -1.07752e-13 -4.24023e-13 -1.77249e-13 0 0 -3.57396e-14 -1.67754e-13 -3.87274e-13 -1.30711e-13 0 0 -5.7251e-14 -2.62794e-13 -2.25562e-13 -2.2075e-13 0 0 -9.49624e-14 -2.79859e-13 -1.17312e-13 -4.02358e-13 0 0 -1.32717e-13 -2.61083e-13 -1.22713e-13 -3.97224e-13 0 0 -1.34235e-13 -2.38638e-13 -2.00685e-13 -3.19542e-13 0 0 -1.34985e-13 -2.31099e-13 -2.66311e-13 -2.98239e-13 0 0 -1.59985e-13 -2.02891e-13 -3.42593e-13 -2.48389e-13 0 0 -1.59655e-13 -2.08908e-13 -3.69249e-13 -2.43493e-13 0 0 -1.23493e-13 -2.97745e-13 -2.91135e-13 -2.71879e-13 0 0 -1.23429e-13 -2.90278e-13 -3.14586e-13 -2.2026e-13 0 0 -1.4191e-13 -2.52656e-13 -3.32692e-13 -1.60536e-13 0 0 -1.55513e-13 -2.49171e-13 -2.56268e-13 -1.92428e-13 0 0 -1.96142e-13 -2.01637e-13 -2.18273e-13 -2.10809e-13 0 0 -2.08764e-13 -1.52893e-13 -2.2481e-13 -1.69002e-13 0 0 -1.82522e-13 -1.89301e-13 -1.47477e-13 -1.80785e-13 0 0 -1.88902e-13 -1.81785e-13 -6.44401e-14 -2.28667e-13 0 0 -1.84033e-13 -1.45206e-13 -1.01148e-13 -1.99438e-13 0 0 -1.67298e-13 -1.61278e-13 -1.00759e-13 -1.64514e-13 0 0 -1.93662e-13 -1.36354e-13 -1.07461e-13 -1.46371e-13 0 0 -2.1595e-13 -1.11987e-13 -1.55762e-13 -1.24976e-13 0 0 -2.04878e-13 -1.44054e-13 -1.79707e-13 -8.82995e-14 0 0 -2.04952e-13 -2.05453e-13 -1.48683e-13 -7.67872e-14 0 0 -1.9394e-13 -2.37383e-13 -1.28667e-13 -8.63346e-14 0 0 -1.87757e-13 -2.12686e-13 -1.99995e-13 -5.87807e-14 0 0 -2.15425e-13 -1.56865e-13 -2.2394e-13 -7.10933e-14 0 0 -2.30695e-13 -1.56845e-13 -1.80139e-13 -6.32045e-14 0 0 -2.22089e-13 -1.4883e-13 -2.20476e-13 -2.65571e-14 0 0 -1.70408e-13 -1.9311e-13 -2.08024e-13 -8.46513e-14 0 0 -1.11866e-13 -2.80032e-13 -1.10625e-13 -1.81124e-13 0 0 -1.3127e-13 -2.47164e-13 -1.22777e-13 -1.73612e-13 0 0 -1.42683e-13 -2.10989e-13 -1.54336e-13 -1.08779e-13 0 0 -1.57666e-13 -1.94042e-13 -1.77973e-13 -8.38916e-14 0 0 -1.69037e-13 -1.87115e-13 -1.96654e-13 -7.42356e-14 0 0 -1.63228e-13 -1.87958e-13 -2.78724e-13 6.26131e-14 0 0 -1.74007e-13 -2.02894e-13 -3.30728e-13 5.38813e-14 0 0 -1.8602e-13 -2.49334e-13 -2.71807e-13 -5.67199e-14 0 0 -1.92979e-13 -3.07188e-13 -2.24344e-13 -1.93614e-13 0 0 -1.82664e-13 -3.81266e-13 -2.21574e-13 -2.79781e-13 0 0 -1.9117e-13 -4.14816e-13 -2.46933e-13 -3.43557e-13 0 0 -1.88879e-13 -4.23255e-13 -3.10061e-13 -4.30948e-13 0 0 -1.64909e-13 -4.08064e-13 -4.23002e-13 -4.57395e-13 0 0 -1.62124e-13 -3.39994e-13 -4.89929e-13 -4.08612e-13 0 0 -1.82692e-13 -2.76359e-13 -5.27311e-13 -1.64194e-13 0 0 -2.24401e-13 -2.59822e-13 -5.32409e-13 1.49841e-13 0 0 -2.64479e-13 -2.57669e-13 -4.23394e-13 1.26104e-13 0 0 -2.59996e-13 -3.11156e-13 -2.3007e-13 1.5374e-14 0 0 -2.31937e-13 -3.70348e-13 -1.12323e-13 -1.83321e-14 0 0 -1.58266e-13 -4.00108e-13 -1.3024e-13 -1.66972e-14 0 0 -1.07921e-13 -4.03576e-13 -6.90469e-14 -1.48441e-13 0 0 -1.57708e-13 -3.17155e-13 -2.50766e-14 -2.90137e-13 0 0 -2.12704e-13 -1.19393e-13 -2.47962e-13 -1.53405e-13 0 0 -2.25936e-13 -7.98172e-14 -3.84799e-13 -2.20948e-13 0 0 -1.9468e-13 -1.96582e-13 -3.31292e-13 -4.3056e-13 0 0 -1.50326e-13 -3.33026e-13 -3.75739e-13 -3.40298e-13 0 0 -1.5483e-13 -4.67241e-13 -3.42377e-13 -4.4681e-13 0 0 -2.38891e-13 -4.59144e-13 -4.35359e-13 -3.95096e-13 0 0 -2.80014e-13 -4.64048e-13 -4.98535e-13 -2.38615e-13 0 0 -3.04548e-13 -4.85105e-13 -4.77526e-13 -3.15691e-13 0 0 -3.32697e-13 -4.8736e-13 -4.76774e-13 -3.24211e-13 0 0 -3.09411e-13 -5.298e-13 -4.64373e-13 -2.58834e-13 0 0 -3.02232e-13 -5.63568e-13 -4.42685e-13 -2.54307e-13 0 0 -3.2817e-13 -5.55657e-13 -3.66093e-13 -4.17978e-13 0 0 -3.39709e-13 -5.5567e-13 -3.54707e-13 -4.20332e-13 0 0 -3.44869e-13 -5.4407e-13 -3.65194e-13 -3.91693e-13 0 0 -3.50398e-13 -4.971e-13 -4.34321e-13 -3.62984e-13 0 0 -3.29568e-13 -4.73673e-13 -4.56369e-13 -3.12205e-13 0 0 -2.62666e-13 -4.99469e-13 -4.28232e-13 -3.59666e-13 0 0 -2.40314e-13 -4.68387e-13 -4.59029e-13 -3.51451e-13 0 0 -3.41263e-13 -2.65772e-13 -5.5626e-13 -3.07759e-13 0 0 -3.43729e-13 -2.66021e-13 -4.01448e-13 -4.63914e-13 0 0 -2.96888e-13 -2.99382e-13 -3.47787e-13 -4.94492e-13 0 0 -2.77239e-13 -2.92442e-13 -3.8241e-13 -4.39744e-13 0 0 -1.52306e-13 -4.86412e-13 -2.11767e-13 -3.9749e-13 0 0 -2.05748e-13 -4.2012e-13 -2.67875e-13 -2.93862e-13 0 0 -2.82959e-13 -3.18966e-13 -3.55069e-13 -1.91344e-13 0 0 -2.13577e-13 -3.9718e-13 -2.1354e-13 -2.90463e-13 0 0 -3.51585e-13 -1.35081e-13 -3.66043e-13 -3.62301e-13 0 0 -3.26483e-13 -7.95972e-14 -5.01654e-13 -2.23361e-13 0 0 -2.12815e-13 -2.18856e-13 -4.58915e-13 -2.20545e-13 0 0 -2.76144e-13 -1.99969e-13 -3.62923e-13 -3.72044e-13 0 0 -5.10125e-13 8.05391e-14 -5.0174e-13 -3.42452e-13 0 0 -4.32112e-13 -4.05684e-14 -3.02676e-13 -4.96771e-13 0 0 -2.61537e-13 -2.36199e-13 -1.3513e-13 -6.11666e-13 0 0 -3.97433e-13 9.25622e-14 -6.425e-13 -2.59197e-13 0 0 -4.06966e-13 1.68788e-13 -7.7943e-13 -1.53384e-13 0
				</DataArray>
				<DataArray Name="VitesseY" type="Float32" format="ascii">