<?xml version="1.0"?>
<VTKFile type="PolyData">
	<PolyData>
		<Piece NumberOfPoints="1206" NumberOfPolys="1000">
			<Points>
				<DataArray type="Float32" NumberOfComponents="3" format="ascii">
 0 0 0 0.02 0 0 0.04 0 0 0.06 0 0 0.08 0 0 0.1 0 0 0 0.005 0 0.02 0.005 0 0.04 0.005 0 0.06 0.005 0 0.08 0.005 0 0.1 0.005 0 0 0.01 0 0.02 0.01 0 0.04 0.01 0 0.06 0.01 0 0.08 0.01 0 0.1 0.01 0 0 0.015 0 0.02 0.015 0 0.04 0.015 0 0.06 0.015 0 0.08 0.015 0 0.1 0.015 0 0 0.02 0 0.02 0.02 0 0.04 0.02 0 0.06 0.02 0 0.08 0.02 0 0.1 0.02 0 0 0.025 0 0.02 0.025 0 0.04 0.025 0 0.06 0.025 0 0.08 0.025 0 0.1 0.025 0 0 0.03 0 0.02 0.03 0 0.04 0.03 0 0.06 0.03 0 0.08 0.03 0 0.1 0.03 0 0 0.035 0 0.02 0.035 0 0.04 0.035 0 0.06 0.035 0 0.08 0.035 0 0.1 0.035 0 0 0.04 0 0.02 0.04 0 0.04 0.04 0 0.06 0.04 0 0.08 0.04 0 0.1 0.04 0 0 0.045 0 0.02 0.045 0 0.04 0.045 0 0.06 0.045 0 0.08 0.045 0 0.1 0.045 0 0 0.05 0 0.02 0.05 0 0.04 0.05 0 0.06 0.05 0 0.08 0.05 0 0.1 0.05 0 0 0.055 0 0.02 0.055 0 0.04 0.055 0 0.06 0.055 0 0.08 0.055 0 0.1 0.055 0 0 0.06 0 0.02 0.06 0 0.04 0.06 0 0.06 0.06 0 0.08 0.06 0 0.1 0.06 0 0 0.065 0 0.02 0.065 0 0.04 0.065 0 0.06 0.065 0 0.08 0.065 0 0.1 0.065 0 0 0.07 0 0.02 0.07 0 0.04 0.07 0 0.06 0.07 0 0.08 0.07 0 0.1 0.07 0 0 0.075 0 0.02 0.075 0 0.04 0.075 0 0.06 0.075 0 0.08 0.075 0 0.1 0.075 0 0 0.08 0 0.02 0.08 0 0.04 0.08 0 0.06 0.08 0 0.08 0.08 0 0.1 0.08 0 0 0.085 0 0.02 0.085 0 0.04 0.085 0 0.06 0.085 0 0.08 0.085 0 0.1 0.085 0 0 0.09 0 0.02 0.09 0 0.04 0.09 0 0.06 0.09 0 0.08 0.09 0 0.1 0.09 0 0 0.095 0 0.02 0.095 0 0.04 0.095 0 0.06 0.095 0 0.08 0.095 0 0.1 0.095 0 0 0.1 0 0.02 0.1 0 0.04 0.1 0 0.06 0.1 0 0.08 0.1 0 0.1 0.1 0 0 0.105 0 0.02 0.105 0 0.04 0.105 0 0.06 0.105 0 0.08 0.105 0 0.1 0.105 0 0 0.11 0 0.02 0.11 0 0.04 0.11 0 0.06 0.11 0 0.08 0.11 0 0.1 0.11 0 0 0.115 0 0.02 0.115 0 0.04 0.115 0 0.06 0.115 0 0.08 0.115 0 0.1 0.115 0 0 0.12 0 0.02 0.12 0 0.04 0.12 0 0.06 0.12 0 0.08 0.12 0 0.1 0.12 0 0 0.125 0 0.02 0.125 0 0.04 0.125 0 0.06 0.125 0 0.08 0.125 0 0.1 0.125 0 0 0.13 0 0.02 0.13 0 0.04 0.13 0 0.06 0.13 0 0.08 0.13 0 0.1 0.13 0 0 0.135 0 0.02 0.135 0 0.04 0.135 0 0.06 0.135 0 0.08 0.135 0 0.1 0.135 0 0 0.14 0 0.02 0.14 0 0.04 0.14 0 0.06 0.14 0 0.08 0.14 0 0.1 0.14 0 0 0.145 0 0.02 0.145 0 0.04 0.145 0 0.06 0.145 0 0.08 0.145 0 0.1 0.145 0 0 0.15 0 0.02 0.15 0 0.04 0.15 0 0.06 0.15 0 0.08 0.15 0 0.1 0.15 0 0 0.155 0 0.02 0.155 0 0.04 0.155 0 0.06 0.155 0 0.08 0.155 0 0.1 0.155 0 0 0.16 0 0.02 0.16 0 0.04 0.16 0 0.06 0.16 0 0.08 0.16 0 0.1 0.16 0 0 0.165 0 0.02 0.165 0 0.04 0.165 0 0.06 0.165 0 0.08 0.165 0 0.1 0.165 0 0 0.17 0 0.02 0.17 0 0.04 0.17 0 0.06 0.17 0 0.08 0.17 0 0.1 0.17 0 0 0.175 0 0.02 0.175 0 0.04 0.175 0 0.06 0.175 0 0.08 0.175 0 0.1 0.175 0 0 0.18 0 0.02 0.18 0 0.04 0.18 0 0.06 0.18 0 0.08 0.18 0 0.1 0.18 0 0 0.185 0 0.02 0.185 0 0.04 0.185 0 0.06 0.185 0 0.08 0.185 0 0.1 0.185 0 0 0.19 0 0.02 0.19 0 0.04 0.19 0 0.06 0.19 0 0.08 0.19 0 0.1 0.19 0 0 0.195 0 0.02 0.195 0 0.04 0.195 0 0.06 0.195 0 0.08 0.195 0 0.1 0.195 0 0 0.2 0 0.02 0.2 0 0.04 0.2 0 0.06 0.2 0 0.08 0.2 0 0.1 0.2 0 0 0.205 0 0.02 0.205 0 0.04 0.205 0 0.06 0.205 0 0.08 0.205 0 0.1 0.205 0 0 0.21 0 0.02 0.21 0 0.04 0.21 0 0.06 0.21 0 0.08 0.21 0 0.1 0.21 0 0 0.215 0 0.02 0.215 0 0.04 0.215 0 0.06 0.215 0 0.08 0.215 0 0.1 0.215 0 0 0.22 0 0.02 0.22 0 0.04 0.22 0 0.06 0.22 0 0.08 0.22 0 0.1 0.22 0 0 0.225 0 0.02 0.225 0 0.04 0.225 0 0.06 0.225 0 0.08 0.225 0 0.1 0.225 0 0 0.23 0 0.02 0.23 0 0.04 0.23 0 0.06 0.23 0 0.08 0.23 0 0.1 0.23 0 0 0.235 0 0.02 0.235 0 0.04 0.235 0 0.06 0.235 0 0.08 0.235 0 0.1 0.235 0 0 0.24 0 0.02 0.24 0 0.04 0.24 0 0.06 0.24 0 0.08 0.24 0 0.1 0.24 0 0 0.245 0 0.02 0.245 0 0.04 0.245 0 0.06 0.245 0 0.08 0.245 0 0.1 0.245 0 0 0.25 0 0.02 0.25 0 0.04 0.25 0 0.06 0.25 0 0.08 0.25 0 0.1 0.25 0 0 0.255 0 0.02 0.255 0 0.04 0.255 0 0.06 0.255 0 0.08 0.255 0 0.1 0.255 0 0 0.26 0 0.02 0.26 0 0.04 0.26 0 0.06 0.26 0 0.08 0.26 0 0.1 0.26 0 0 0.265 0 0.02 0.265 0 0.04 0.265 0 0.06 0.265 0 0.08 0.265 0 0.1 0.265 0 0 0.27 0 0.02 0.27 0 0.04 0.27 0 0.06 0.27 0 0.08 0.27 0 0.1 0.27 0 0 0.275 0 0.02 0.275 0 0.04 0.275 0 0.06 0.275 0 0.08 0.275 0 0.1 0.275 0 0 0.28 0 0.02 0.28 0 0.04 0.28 0 0.06 0.28 0 0.08 0.28 0 0.1 0.28 0 0 0.285 0 0.02 0.285 0 0.04 0.285 0 0.06 0.285 0 0.08 0.285 0 0.1 0.285 0 0 0.29 0 0.02 0.29 0 0.04 0.29 0 0.06 0.29 0 0.08 0.29 0 0.1 0.29 0 0 0.295 0 0.02 0.295 0 0.04 0.295 0 0.06 0.295 0 0.08 0.295 0 0.1 0.295 0 0 0.3 0 0.02 0.3 0 0.04 0.3 0 0.06 0.3 0 0.08 0.3 0 0.1 0.3 0 0 0.305 0 0.02 0.305 0 0.04 0.305 0 0.06 0.305 0 0.08 0.305 0 0.1 0.305 0 0 0.31 0 0.02 0.31 0 0.04 0.31 0 0.06 0.31 0 0.08 0.31 0 0.1 0.31 0 0 0.315 0 0.02 0.315 0 0.04 0.315 0 0.06 0.315 0 0.08 0.315 0 0.1 0.315 0 0 0.32 0 0.02 0.32 0 0.04 0.32 0 0.06 0.32 0 0.08 0.32 0 0.1 0.32 0 0 0.325 0 0.02 0.325 0 0.04 0.325 0 0.06 0.325 0 0.08 0.325 0 0.1 0.325 0 0 0.33 0 0.02 0.33 0 0.04 0.33 0 0.06 0.33 0 0.08 0.33 0 0.1 0.33 0 0 0.335 0 0.02 0.335 0 0.04 0.335 0 0.06 0.335 0 0.08 0.335 0 0.1 0.335 0 0 0.34 0 0.02 0.34 0 0.04 0.34 0 0.06 0.34 0 0.08 0.34 0 0.1 0.34 0 0 0.345 0 0.02 0.345 0 0.04 0.345 0 0.06 0.345 0 0.08 0.345 0 0.1 0.345 0 0 0.35 0 0.02 0.35 0 0.04 0.35 0 0.06 0.35 0 0.08 0.35 0 0.1 0.35 0 0 0.355 0 0.02 0.355 0 0.04 0.355 0 0.06 0.355 0 0.08 0.355 0 0.1 0.355 0 0 0.36 0 0.02 0.36 0 0.04 0.36 0 0.06 0.36 0 0.08 0.36 0 0.1 0.36 0 0 0.365 0 0.02 0.365 0 0.04 0.365 0 0.06 0.365 0 0.08 0.365 0 0.1 0.365 0 0 0.37 0 0.02 0.37 0 0.04 0.37 0 0.06 0.37 0 0.08 0.37 0 0.1 0.37 0 0 0.375 0 0.02 0.375 0 0.04 0.375 0 0.06 0.375 0 0.08 0.375 0 0.1 0.375 0 0 0.38 0 0.02 0.38 0 0.04 0.38 0 0.06 0.38 0 0.08 0.38 0 0.1 0.38 0 0 0.385 0 0.02 0.385 0 0.04 0.385 0 0.06 0.385 0 0.08 0.385 0 0.1 0.385 0 0 0.39 0 0.02 0.39 0 0.04 0.39 0 0.06 0.39 0 0.08 0.39 0 0.1 0.39 0 0 0.395 0 0.02 0.395 0 0.04 0.395 0 0.06 0.395 0 0.08 0.395 0 0.1 0.395 0 0 0.4 0 0.02 0.4 0 0.04 0.4 0 0.06 0.4 0 0.08 0.4 0 0.1 0.4 0 0 0.405 0 0.02 0.405 0 0.04 0.405 0 0.06 0.405 0 0.08 0.405 0 0.1 0.405 0 0 0.41 0 0.02 0.41 0 0.04 0.41 0 0.06 0.41 0 0.08 0.41 0 0.1 0.41 0 0 0.415 0 0.02 0.415 0 0.04 0.415 0 0.06 0.415 0 0.08 0.415 0 0.1 0.415 0 0 0.42 0 0.02 0.42 0 0.04 0.42 0 0.06 0.42 0 0.08 0.42 0 0.1 0.42 0 0 0.425 0 0.02 0.425 0 0.04 0.425 0 0.06 0.425 0 0.08 0.425 0 0.1 0.425 0 0 0.43 0 0.02 0.43 0 0.04 0.43 0 0.06 0.43 0 0.08 0.43 0 0.1 0.43 0 0 0.435 0 0.02 0.435 0 0.04 0.435 0 0.06 0.435 0 0.08 0.435 0 0.1 0.435 0 0 0.44 0 0.02 0.44 0 0.04 0.44 0 0.06 0.44 0 0.08 0.44 0 0.1 0.44 0 0 0.445 0 0.02 0.445 0 0.04 0.445 0 0.06 0.445 0 0.08 0.445 0 0.1 0.445 0 0 0.45 0 0.02 0.45 0 0.04 0.45 0 0.06 0.45 0 0.08 0.45 0 0.1 0.45 0 0 0.455 0 0.02 0.455 0 0.04 0.455 0 0.06 0.455 0 0.08 0.455 0 0.1 0.455 0 0 0.46 0 0.02 0.46 0 0.04 0.46 0 0.06 0.46 0 0.08 0.46 0 0.1 0.46 0 0 0.465 0 0.02 0.465 0 0.04 0.465 0 0.06 0.465 0 0.08 0.465 0 0.1 0.465 0 0 0.47 0 0.02 0.47 0 0.04 0.47 0 0.06 0.47 0 0.08 0.47 0 0.1 0.47 0 0 0.475 0 0.02 0.475 0 0.04 0.475 0 0.06 0.475 0 0.08 0.475 0 0.1 0.475 0 0 0.48 0 0.02 0.48 0 0.04 0.48 0 0.06 0.48 0 0.08 0.48 0 0.1 0.48 0 0 0.485 0 0.02 0.485 0 0.04 0.485 0 0.06 0.485 0 0.08 0.485 0 0.1 0.485 0 0 0.49 0 0.02 0.49 0 0.04 0.49 0 0.06 0.49 0 0.08 0.49 0 0.1 0.49 0 0 0.495 0 0.02 0.495 0 0.04 0.495 0 0.06 0.495 0 0.08 0.495 0 0.1 0.495 0 0 0.5 0 0.02 0.5 0 0.04 0.5 0 0.06 0.5 0 0.08 0.5 0 0.1 0.5 0 0 0.505 0 0.02 0.505 0 0.04 0.505 0 0.06 0.505 0 0.08 0.505 0 0.1 0.505 0 0 0.51 0 0.02 0.51 0 0.04 0.51 0 0.06 0.51 0 0.08 0.51 0 0.1 0.51 0 0 0.515 0 0.02 0.515 0 0.04 0.515 0 0.06 0.515 0 0.08 0.515 0 0.1 0.515 0 0 0.52 0 0.02 0.52 0 0.04 0.52 0 0.06 0.52 0 0.08 0.52 0 0.1 0.52 0 0 0.525 0 0.02 0.525 0 0.04 0.525 0 0.06 0.525 0 0.08 0.525 0 0.1 0.525 0 0 0.53 0 0.02 0.53 0 0.04 0.53 0 0.06 0.53 0 0.08 0.53 0 0.1 0.53 0 0 0.535 0 0.02 0.535 0 0.04 0.535 0 0.06 0.535 0 0.08 0.535 0 0.1 0.535 0 0 0.54 0 0.02 0.54 0 0.04 0.54 0 0.06 0.54 0 0.08 0.54 0 0.1 0.54 0 0 0.545 0 0.02 0.545 0 0.04 0.545 0 0.06 0.545 0 0.08 0.545 0 0.1 0.545 0 0 0.55 0 0.02 0.55 0 0.04 0.55 0 0.06 0.55 0 0.08 0.55 0 0.1 0.55 0 0 0.555 0 0.02 0.555 0 0.04 0.555 0 0.06 0.555 0 0.08 0.555 0 0.1 0.555 0 0 0.56 0 0.02 0.56 0 0.04 0.56 0 0.06 0.56 0 0.08 0.56 0 0.1 0.56 0 0 0.565 0 0.02 0.565 0 0.04 0.565 0 0.06 0.565 0 0.08 0.565 0 0.1 0.565 0 0 0.57 0 0.02 0.57 0 0.04 0.57 0 0.06 0.57 0 0.08 0.57 0 0.1 0.57 0 0 0.575 0 0.02 0.575 0 0.04 0.575 0 0.06 0.575 0 0.08 0.575 0 0.1 0.575 0 0 0.58 0 0.02 0.58 0 0.04 0.58 0 0.06 0.58 0 0.08 0.58 0 0.1 0.58 0 0 0.585 0 0.02 0.585 0 0.04 0.585 0 0.06 0.585 0 0.08 0.585 0 0.1 0.585 0 0 0.59 0 0.02 0.59 0 0.04 0.59 0 0.06 0.59 0 0.08 0.59 0 0.1 0.59 0 0 0.595 0 0.02 0.595 0 0.04 0.595 0 0.06 0.595 0 0.08 0.595 0 0.1 0.595 0 0 0.6 0 0.02 0.6 0 0.04 0.6 0 0.06 0.6 0 0.08 0.6 0 0.1 0.6 0 0 0.605 0 0.02 0.605 0 0.04 0.605 0 0.06 0.605 0 0.08 0.605 0 0.1 0.605 0 0 0.61 0 0.02 0.61 0 0.04 0.61 0 0.06 0.61 0 0.08 0.61 0 0.1 0.61 0 0 0.615 0 0.02 0.615 0 0.04 0.615 0 0.06 0.615 0 0.08 0.615 0 0.1 0.615 0 0 0.62 0 0.02 0.62 0 0.04 0.62 0 0.06 0.62 0 0.08 0.62 0 0.1 0.62 0 0 0.625 0 0.02 0.625 0 0.04 0.625 0 0.06 0.625 0 0.08 0.625 0 0.1 0.625 0 0 0.63 0 0.02 0.63 0 0.04 0.63 0 0.06 0.63 0 0.08 0.63 0 0.1 0.63 0 0 0.635 0 0.02 0.635 0 0.04 0.635 0 0.06 0.635 0 0.08 0.635 0 0.1 0.635 0 0 0.64 0 0.02 0.64 0 0.04 0.64 0 0.06 0.64 0 0.08 0.64 0 0.1 0.64 0 0 0.645 0 0.02 0.645 0 0.04 0.645 0 0.06 0.645 0 0.08 0.645 0 0.1 0.645 0 0 0.65 0 0.02 0.65 0 0.04 0.65 0 0.06 0.65 0 0.08 0.65 0 0.1 0.65 0 0 0.655 0 0.02 0.655 0 0.04 0.655 0 0.06 0.655 0 0.08 0.655 0 0.1 0.655 0 0 0.66 0 0.02 0.66 0 0.04 0.66 0 0.06 0.66 0 0.08 0.66 0 0.1 0.66 0 0 0.665 0 0.02 0.665 0 0.04 0.665 0 0.06 0.665 0 0.08 0.665 0 0.1 0.665 0 0 0.67 0 0.02 0.67 0 0.04 0.67 0 0.06 0.67 0 0.08 0.67 0 0.1 0.67 0 0 0.675 0 0.02 0.675 0 0.04 0.675 0 0.06 0.675 0 0.08 0.675 0 0.1 0.675 0 0 0.68 0 0.02 0.68 0 0.04 0.68 0 0.06 0.68 0 0.08 0.68 0 0.1 0.68 0 0 0.685 0 0.02 0.685 0 0.04 0.685 0 0.06 0.685 0 0.08 0.685 0 0.1 0.685 0 0 0.69 0 0.02 0.69 0 0.04 0.69 0 0.06 0.69 0 0.08 0.69 0 0.1 
[...]
			<PointData Scalars="VitesseX">
				<DataArray Name="VitesseX" type="Float32" format="ascii">
 0 -9.62473e-15 -1.43155e-14 -2.5316e-14 2.32953e-14 0 0 -1.7474e-14 -5.67439e-15 -2.13783e-14 1.5209e-14 0 0 -9.62052e-15 -2.13958e-14 6.91569e-15 -5.93286e-15 0 0 -2.44273e-14 -5.56708e-15 -5.86073e-15 8.05834e-15 0 0 -5.21983e-14 1.83909e-14 -1.13083e-14 9.92019e-15 0 0 -3.58381e-14 -1.40844e-14 2.46441e-14 -1.97171e-14 0 0 2.42507e-15 -5.14348e-14 1.69631e-14 -6.8391e-15 0 0 3.62675e-15 -4.14151e-14 -3.51808e-14 3.29947e-14 0 0 -1.72647e-14 -3.52819e-14 -3.67425e-14 2.23135e-14 0 0 -4.48736e-14 -2.33109e-14 -4.04354e-14 2.80743e-14 0 0 -8.27451e-14 3.69995e-14 -9.40839e-14 6.58193e-14 0 0 -3.97668e-14 -3.6536e-14 1.05082e-14 -6.01454e-15 0 0 -6.9908e-14 -1.29642e-14 3.10339e-14 -4.2058e-14 0 0 -6.42501e-14 2.25057e-15 1.17955e-14 -6.10023e-14 0 0 -3.36115e-14 2.68006e-15 -3.43963e-14 -1.71103e-14 0 0 -7.68661e-14 7.29854e-14 -1.128e-13 5.9208e-14 0 0 -2.16289e-14 -3.95666e-14 -1.05009e-14 2.21347e-14 0 0 -7.6762e-14 3.71221e-14 -1.02705e-13 9.42229e-14 0 0 -1.28941e-13 1.20451e-13 -1.72023e-13 1.02886e-13 0 0 -6.09738e-14 1.98322e-14 -9.70254e-14 5.51953e-14 0 0 -1.90379e-14 -3.96406e-14 -1.29603e-13 1.26166e-13 0 0 -2.81018e-14 -4.79624e-14 -1.54644e-13 1.50747e-13 0 0 -9.32242e-14 -3.29394e-14 -5.00587e-14 2.91763e-14 0 0 -9.72753e-14 -4.84641e-14 5.8834e-14 -1.11253e-13 0 0 -3.21291e-14 -2.94258e-14 -3.74761e-14 -6.89368e-14 0 0 2.24115e-15 -1.26283e-14 -1.07044e-13 -3.88427e-14 0 0 -3.09256e-14 -2.72988e-14 -3.28188e-14 -1.66625e-13 0 0 -1.28615e-13 2.93595e-14 -7.13112e-14 -1.92437e-13 0 0 -1.08418e-13 -1.84702e-14 -1.16058e-13 -1.2227e-13 0 0 -7.55554e-14 -4.0446e-14 -1.35671e-13 -9.64809e-14 0 0 -3.34633e-14 -9.69287e-14 -1.48969e-14 -1.85291e-13 0 0 -1.9661e-14 -1.02704e-13 1.15208e-14 -1.34327e-13 0 0 -1.07825e-13 -5.46978e-16 -3.96771e-14 -4.94282e-14 0 0 -1.37759e-13 -3.15357e-14 5.06879e-14 -8.66825e-14 0 0 -1.17304e-13 -4.76754e-14 -1.83872e-14 5.40481e-14 0 0 -2.33104e-14 -1.40491e-13 1.71914e-14 1.26255e-13 0 0 -1.11221e-13 -1.21069e-14 -3.58886e-15 1.39077e-13 0 0 -1.79401e-13 6.37634e-14 3.37159e-14 5.92078e-14 0 0 -1.63694e-13 7.45448e-14 1.6599e-14 5.50707e-14 0 0 -8.17714e-14 5.71025e-15 -1.85228e-14 1.0227e-13 0 0 -2.33745e-14 -1.3136e-13 3.82254e-14 3.22177e-14 0 0 -9.48867e-14 -1.2217e-13 7.01057e-15 4.45558e-15 0 0 -1.1882e-13 -1.12234e-13 5.33385e-15 -6.0541e-14 0 0 -4.19446e-14 -1.26453e-13 -5.4639e-14 -2.55902e-14 0 0 -8.96986e-15 -8.12109e-14 -1.34473e-13 1.96015e-14 0 0 -4.00788e-14 -8.97636e-14 2.3095e-14 -2.23575e-13 0 0 -2.78589e-13 7.99165e-14 6.7432e-14 -3.57394e-13 0 0 -3.11192e-13 1.58297e-14 9.48014e-14 -3.17972e-13 0 0 -1.55788e-13 -1.81858e-13 8.38441e-14 -2.10074e-13 0 0 -9.60312e-14 -2.04628e-13 -5.05456e-14 -2.34084e-14 0 0 4.11986e-14 -3.55426e-13 3.02863e-14 -3.40138e-14 0 0 -2.33559e-13 -1.83643e-14 -6.69279e-14 -1.31297e-13 0 0 -3.19209e-13 -4.15437e-14 2.27429e-13 -5.21559e-13 0 0 -3.67674e-13 7.59357e-14 6.20468e-14 -4.10919e-13 0 0 -2.21098e-13 1.51848e-13 -3.28003e-13 -6.11415e-15 0 0 9.74785e-14 -2.08735e-13 -9.37076e-14 -9.01774e-14 0 0 -2.72429e-13 7.99853e-14 -1.62135e-13 -8.94089e-14 0 0 -2.52332e-13 -2.1706e-13 3.98362e-13 -5.71089e-13 0 0 -2.16785e-13 -2.13775e-13 4.02265e-13 -6.06952e-13 0 0 -2.9328e-13 9.95192e-14 -1.55794e-13 -1.19292e-13 0 0 -1.06613e-13 -1.01045e-13 -1.39281e-13 -2.03305e-14 0 0 -1.96754e-13 -2.38941e-15 -2.31684e-13 6.98142e-14 0 0 -1.22251e-13 -1.02205e-13 -1.13875e-13 -8.2115e-15 0 0 -9.18521e-14 -4.37078e-14 -2.01432e-13 1.26458e-14 0 0 -9.57583e-14 1.608e-15 -2.48817e-13 3.253e-14 0 0 -3.39137e-14 -1.38463e-13 -1.05699e-13 -2.43934e-14 0 0 -1.88014e-13 2.74601e-14 -2.72597e-13 8.47024e-14 0 0 -7.73027e-14 -7.94246e-14 -2.29624e-13 2.99937e-14 0 0 -2.08882e-14 -1.32736e-13 -2.2649e-13 4.06465e-14 0 0 -2.46322e-13 4.1797e-14 -1.23478e-13 -1.05146e-13 0 0 -1.8064e-13 -2.62334e-13 5.00762e-13 -5.50185e-13 0 0 -3.19015e-13 -4.26328e-14 2.34426e-13 -1.91124e-13 0 0 -1.44642e-13 -2.0842e-15 -8.17196e-14 2.55359e-13 0 0 -8.44511e-14 -1.01122e-14 -1.90913e-13 4.3802e-13 0 0 -3.96296e-13 1.43043e-13 -6.85912e-14 2.3458e-13 0 0 -4.36781e-13 3.96948e-14 2.20583e-13 -1.03325e-13 0 0 -3.67156e-13 1.13588e-13 -1.85897e-13 1.79566e-13 0 0 -5.37361e-14 -2.56786e-13 -1.04798e-13 1.17571e-13 0 0 -3.06015e-13 -8.89915e-14 -1.61996e-13 6.27643e-15 0 0 -4.34518e-13 -2.13949e-13 7.4045e-14 -2.63427e-13 0 0 -2.93908e-13 -3.31999e-13 -2.47068e-14 -1.53223e-13 0 0 -4.79285e-13 3.73686e-14 -4.12471e-13 8.41147e-14 0 0 -2.72814e-13 -3.26825e-13 1.63823e-13 -5.26382e-13 0 0 -2.2815e-13 -5.69121e-14 -3.83526e-13 -3.03497e-13 0 0 -2.12121e-13 2.51779e-13 -9.56369e-13 5.8826e-14 0 0 -1.51157e-13 -1.86132e-13 -1.96379e-13 -4.58678e-13 0 0 -5.06805e-13 -1.65774e-13 4.10514e-14 -5.59426e-13 0 0 -3.28537e-13 -2.57639e-13 -2.73279e-13 -1.47519e-13 0 0 2.03366e-13 -7.13526e-13 -2.96032e-13 1.1279e-13 0 0 -4.786e-14 -2.34664e-13 -5.07664e-13 -7.14821e-14 0 0 -3.72724e-13 -1.33057e-14 -1.50883e-13 -6.30411e-13 0 0 -4.81344e-13 -1.39608e-13 3.9034e-14 -6.76138e-13 0 0 -6.91232e-14 -2.25115e-13 -4.72625e-13 6.66563e-15 0 0 4.29987e-13 -8.64502e-13 -5.46778e-13 5.43723e-13 0 0 -3.75514e-13 -5.9801e-14 -4.35676e-13 1.83062e-13 0 0 -4.20131e-13 -1.94017e-13 6.93251e-13 -1.01172e-12 0 0 1.99217e-13 -6.95191e-13 6.24917e-13 -9.13497e-13 0 0 -9.2511e-13 1.16282e-12 -5.88521e-13 -4.1027e-13 0 0 -2.20851e-13 2.58002e-13 2.88989e-13 -8.99236e-13 0 0 4.40371e-13 -5.83235e-13 4.00633e-13 -8.00286e-13 0 0 2.10657e-13 -2.84524e-13 -9.94586e-14 -2.30396e-13 0 0 3.72955e-14 -1.64442e-13 -7.61741e-13 3.66325e-13 0 0 -5.71648e-14 -2.16536e-13 -7.81732e-13 4.27753e-13 0 0 -2.34187e-13 -2.75108e-13 -6.66168e-13 3.4388e-13 0 0 -4.06859e-13 -3.05197e-13 -4.7196e-13 1.1799e-13 0 0 -4.52906e-13 -3.63281e-13 -2.18979e-13 -2.28651e-13 0 0 -3.95499e-13 -3.95414e-13 -2.07232e-13 -2.95879e-13 0 0 -2.93514e-13 -2.54818e-13 -4.96769e-13 -1.08472e-14 0 0 -2.63411e-13 -1.24261e-13 -5.34399e-13 6.00702e-14 0 0 -2.87126e-13 -1.21425e-13 -2.45059e-13 -2.56041e-13 0 0 -2.99207e-13 -1.03268e-13 -9.72539e-14 -4.82465e-13 0 0 -1.18913e-13 -1.89664e-13 -1.91161e-13 -3.8092e-13 0 0 3.12706e-14 -1.90491e-13 -3.74012e-13 -2.47925e-13 0 0 -3.91314e-14 -1.717e-13 -4.13146e-13 -1.657e-13 0 0 -2.98578e-13 -1.65874e-13 -2.11799e-13 -2.56788e-13 0 0 -3.67069e-13 -2.95753e-13 5.90146e-14 -4.82533e-13 0 0 -8.99277e-14 -4.68003e-13 -7.7982e-14 -3.56432e-13 0 0 -1.33558e-13 -1.43945e-13 -5.45216e-13 -1.1664e-13 0 0 -2.23101e-13 -1.64372e-13 -2.31269e-13 -4.82975e-13 0 0 -3.1574e-13 -2.49994e-13 -4.43146e-16 -5.53867e-13 0 0 -3.71073e-13 -2.17379e-13 -1.73735e-13 -2.06646e-13 0 0 -1.39972e-13 -3.83678e-13 -2.09403e-13 -1.57603e-13 0 0 -2.42923e-13 -9.93204e-14 -5.67507e-13 -2.02981e-14 0 0 -3.52827e-13 -1.83658e-13 -2.64647e-13 -3.17292e-13 0 0 -5.119e-13 -1.83933e-13 -7.3192e-14 -3.92675e-13 0 0 -6.38347e-13 -1.76695e-13 -3.34093e-14 -1.77702e-13 0 0 -2.85565e-13 -3.75663e-13 -8.73213e-14 -3.99492e-14 0 0 -2.38669e-13 -9.58492e-14 -5.71165e-13 1.14792e-13 0 0 -3.67103e-13 -2.50499e-13 -1.39926e-13 -4.31589e-13 0 0 -5.32103e-13 -2.53316e-13 1.60767e-15 -5.25053e-13 0 0 -6.78502e-13 -1.90251e-13 -1.69875e-14 -2.96501e-13 0 0 -3.32654e-13 -3.70982e-13 -4.49119e-14 -2.05892e-13 0 0 -2.10396e-13 -2.38631e-13 -4.30779e-13 4.7204e-14 0 0 -3.5571e-13 -2.64696e-13 -2.35874e-13 -2.6137e-13 0 0 -5.50691e-13 -6.17199e-14 -3.11188e-13 -4.14595e-13 0 0 -5.76001e-13 -1.36477e-13 -1.32747e-13 -3.61905e-13 0 0 -1.95104e-13 -3.64825e-13 -1.32321e-13 -2.27943e-13 0 0 -1.54859e-13 -8.81867e-14 -6.90165e-13 7.58663e-15 0 0 -3.55582e-13 -2.14825e-13 -4.33747e-13 -3.13456e-13 0 0 -3.22272e-13 -5.87763e-13 -2.71269e-13 -2.50777e-13 0 0 -2.85905e-13 -6.36268e-13 -3.40915e-13 -2.76162e-14 0 0 -2.60337e-13 -4.4125e-13 -1.11447e-13 -5.39153e-13 0 0 -1.58877e-13 -7.18344e-14 -6.3575e-13 -3.99179e-13 0 0 -8.5403e-14 -1.62089e-14 -8.23312e-13 -3.4133e-13 0 0 -4.30179e-13 -7.9411e-14 -3.26722e-13 -5.96426e-13 0 0 -6.70057e-13 -1.15553e-15 -4.62658e-13 -6.10971e-14 0 0 -2.95129e-13 -4.73725e-13 -1.52169e-13 4.43533e-14 0 0 -1.85689e-13 -4.91583e-13 -2.15988e-13 1.93418e-13 0 0 -3.23064e-13 -2.02046e-13 -5.56629e-13 4.46906e-13 0 0 -6.73017e-13 -5.14476e-14 -5.72859e-13 6.05032e-13 0 0 -6.86048e-13 -1.11131e-13 -7.97752e-13 1.06619e-12 0 0 -2.20256e-13 -7.42877e-13 -1.69449e-13 5.07354e-13 0 0 -3.42276e-13 -4.23953e-13 -1.29347e-13 -1.07378e-13 0 0 -3.64066e-13 -2.26886e-13 -2.40011e-13 -3.26712e-13 0 0 -4.81822e-13 -2.07288e-13 -2.35024e-13 -2.64855e-13 0 0 -7.1616e-13 -2.54492e-13 -1.59323e-13 -1.13502e-13 0 0 -3.18211e-13 -6.73506e-13 -1.23733e-13 -2.05457e-13 0 0 -5.21996e-14 -5.19413e-13 -9.19256e-13 -5.71706e-15 0 0 -2.67086e-13 -2.47818e-13 -1.09911e-12 -3.45615e-13 0 0 -8.15468e-13 2.27643e-13 -7.78481e-13 -6.92801e-13 0 0 -8.61635e-13 9.52562e-14 -2.71308e-13 -5.1498e-13 0 0 -8.42113e-16 -6.88417e-13 -2.04033e-13 -9.08446e-14 0 0 4.08385e-13 -9.46067e-13 -6.05111e-13 3.49679e-14 0 0 -1.60412e-13 -5.09651e-13 -6.7045e-13 -7.30655e-13 0 0 -8.99748e-13 1.74014e-13 -8.62856e-13 -1.35215e-12 0 0 -8.5841e-13 3.77787e-14 -9.70233e-13 -1.06008e-12 0 0 -2.46826e-13 -3.73852e-13 -1.06224e-12 -5.60878e-13 0 0 -1.52948e-13 -3.55888e-13 -8.64531e-13 -6.01046e-13 0 0 -3.02858e-13 -6.41349e-13 4.15216e-14 -1.25943e-12 0 0 -2.05395e-13 -7.91773e-13 -4.841e-14 -1.12612e-12 0 0 -3.60743e-13 -5.1789e-13 -6.84438e-13 -6.84526e-13 0 0 -5.96246e-13 -2.47982e-13 -6.40919e-13 -1.23044e-12 0 0 -6.91814e-13 1.92752e-13 -9.82721e-13 -1.20707e-12 0 0 -3.33736e-13 -2.59328e-13 -8.36771e-13 -7.77079e-13 0 0 -4.08163e-15 -8.02569e-13 -5.63483e-13 -2.97781e-13 0 0 -3.9062e-13 -4.79942e-13 -5.75118e-13 -3.19105e-13 0 0 -6.90683e-13 -1.7033e-13 -4.32424e-13 -1.15212e-12 0 0 -6.39023e-13 9.84637e-14 -8.94604e-13 -1.22183e-12 0 0 -1.35212e-13 -5.48038e-13 -6.8582e-13 -9.04773e-13 0 0 1.66368e-13 -1.10137e-12 -4.02535e-13 -3.76424e-13 0 0 -2.39251e-13 -7.52813e-13 -5.48508e-13 -1.76671e-13 0 0 -5.70642e-13 -4.24887e-13 -3.49685e-13 -9.56899e-13 0 0 -6.37762e-13 -9.97361e-14 -6.53301e-13 -1.13196e-12 0 0 -2.57207e-13 -5.66477e-13 -6.10445e-13 -7.26188e-13 0 0 2.32786e-14 -9.5723e-13 -4.56792e-13 -3.24299e-13 0 0 -3.18595e-13 -5.67925e-13 -6.87728e-13 -1.00626e-13 0 0 -5.26422e-13 -4.0432e-13 -5.07483e-13 -7.43283e-13 0 0 -5.47293e-13 -1.32913e-13 -9.96539e-13 -9.16787e-13 0 0 -1.70727e-13 -6.09335e-13 -9.43345e-13 -8.32331e-13 0 0 2.04829e-13 -1.11296e-12 -6.80395e-13 -3.37613e-13 0 0 -5.53029e-13 -3.09087e-13 -6.17698e-13 -2.6831e-13 0 0 -7.39809e-13 -4.79698e-13 6.03602e-13 -1.66072e-12 0 0 -3.59262e-13 -5.44371e-13 -1.95679e-13 -1.07969e-12 0 0 -3.84149e-15 -5.57774e-13 -1.3127e-12 -7.78136e-14 0 0 -4.12544e-13 -4.99803e-13 -1.01976e-12 -3.59589e-13 0 0 -1.31765e-12 3.85585e-13 -1.2157e-12 -4.0426e-13 0 0 -6.12915e-13 -2.56821e-13 -8.53546e-13 -4.02094e-13 0 0 2.88607e-14 -6.50553e-13 -1.16118e-12 3.30648e-13 0 0 7.4208e-14 -1.03135e-12 -7.19793e-13 2.67442e-13 0 0 -5.53034e-13 -7.95601e-13 -3.32486e-13 -2.04879e-13 0 0 -1.29105e-12 1.85886e-13 -1.09123e-12 7.50102e-14 0
				</DataArray>
				<DataArray Name="VitesseY" type="Float32" format="ascii">