<?xml version="1.0"?>
<VTKFile type="PolyData">
	<PolyData>
		<Piece NumberOfPoints="1206" NumberOfPolys="1000">
			<Points>
				<DataArray type="Float32" NumberOfComponents="3" format="ascii">
 0 0 0 0.02 0 0 0.04 0 0 0.06 0 0 0.08 0 0 0.1 0 0 0 0.005 0 0.02 0.005 0 0.04 0.005 0 0.06 0.005 0 0.08 0.005 0 0.1 0.005 0 0 0.01 0 0.02 0.01 0 0.04 0.01 0 0.06 0.01 0 0.08 0.01 0 0.1 0.01 0 0 0.015 0 0.02 0.015 0 0.04 0.015 0 0.06 0.015 0 0.08 0.015 0 0.1 0.015 0 0 0.02 0 0.02 0.02 0 0.04 0.02 0 0.06 0.02 0 0.08 0.02 0 0.1 0.02 0 0 0.025 0 0.02 0.025 0 0.04 0.025 0 0.06 0.025 0 0.08 0.025 0 0.1 0.025 0 0 0.03 0 0.02 0.03 0 0.04 0.03 0 0.06 0.03 0 0.08 0.03 0 0.1 0.03 0 0 0.035 0 0.02 0.035 0 0.04 0.035 0 0.06 0.035 0 0.08 0.035 0 0.1 0.035 0 0 0.04 0 0.02 0.04 0 0.04 0.04 0 0.06 0.04 0 0.08 0.04 0 0.1 0.04 0 0 0.045 0 0.02 0.045 0 0.04 0.045 0 0.06 0.045 0 0.08 0.045 0 0.1 0.045 0 0 0.05 0 0.02 0.05 0 0.04 0.05 0 0.06 0.05 0 0.08 0.05 0 0.1 0.05 0 0 0.055 0 0.02 0.055 0 0.04 0.055 0 0.06 0.055 0 0.08 0.055 0 0.1 0.055 0 0 0.06 0 0.02 0.06 0 0.04 0.06 0 0.06 0.06 0 0.08 0.06 0 0.1 0.06 0 0 0.065 0 0.02 0.065 0 0.04 0.065 0 0.06 0.065 0 0.08 0.065 0 0.1 0.065 0 0 0.07 0 0.02 0.07 0 0.04 0.07 0 0.06 0.07 0 0.08 0.07 0 0.1 0.07 0 0 0.075 0 0.02 0.075 0 0.04 0.075 0 0.06 0.075 0 0.08 0.075 0 0.1 0.075 0 0 0.08 0 0.02 0.08 0 0.04 0.08 0 0.06 0.08 0 0.08 0.08 0 0.1 0.08 0 0 0.085 0 0.02 0.085 0 0.04 0.085 0 0.06 0.085 0 0.08 0.085 0 0.1 0.085 0 0 0.09 0 0.02 0.09 0 0.04 0.09 0 0.06 0.09 0 0.08 0.09 0 0.1 0.09 0 0 0.095 0 0.02 0.095 0 0.04 0.095 0 0.06 0.095 0 0.08 0.095 0 0.1 0.095 0 0 0.1 0 0.02 0.1 0 0.04 0.1 0 0.06 0.1 0 0.08 0.1 0 0.1 0.1 0 0 0.105 0 0.02 0.105 0 0.04 0.105 0 0.06 0.105 0 0.08 0.105 0 0.1 0.105 0 0 0.11 0 0.02 0.11 0 0.04 0.11 0 0.06 0.11 0 0.08 0.11 0 0.1 0.11 0 0 0.115 0 0.02 0.115 0 0.04 0.115 0 0.06 0.115 0 0.08 0.115 0 0.1 0.115 0 0 0.12 0 0.02 0.12 0 0.04 0.12 0 0.06 0.12 0 0.08 0.12 0 0.1 0.12 0 0 0.125 0 0.02 0.125 0 0.04 0.125 0 0.06 0.125 0 0.08 0.125 0 0.1 0.125 0 0 0.13 0 0.02 0.13 0 0.04 0.13 0 0.06 0.13 0 0.08 0.13 0 0.1 0.13 0 0 0.135 0 0.02 0.135 0 0.04 0.135 0 0.06 0.135 0 0.08 0.135 0 0.1 0.135 0 0 0.14 0 0.02 0.14 0 0.04 0.14 0 0.06 0.14 0 0.08 0.14 0 0.1 0.14 0 0 0.145 0 0.02 0.145 0 0.04 0.145 0 0.06 0.145 0 0.08 0.145 0 0.1 0.145 0 0 0.15 0 0.02 0.15 0 0.04 0.15 0 0.06 0.15 0 0.08 0.15 0 0.1 0.15 0 0 0.155 0 0.02 0.155 0 0.04 0.155 0 0.06 0.155 0 0.08 0.155 0 0.1 0.155 0 0 0.16 0 0.02 0.16 0 0.04 0.16 0 0.06 0.16 0 0.08 0.16 0 0.1 0.16 0 0 0.165 0 0.02 0.165 0 0.04 0.165 0 0.06 0.165 0 0.08 0.165 0 0.1 0.165 0 0 0.17 0 0.02 0.17 0 0.04 0.17 0 0.06 0.17 0 0.08 0.17 0 0.1 0.17 0 0 0.175 0 0.02 0.175 0 0.04 0.175 0 0.06 0.175 0 0.08 0.175 0 0.1 0.175 0 0 0.18 0 0.02 0.18 0 0.04 0.18 0 0.06 0.18 0 0.08 0.18 0 0.1 0.18 0 0 0.185 0 0.02 0.185 0 0.04 0.185 0 0.06 0.185 0 0.08 0.185 0 0.1 0.185 0 0 0.19 0 0.02 0.19 0 0.04 0.19 0 0.06 0.19 0 0.08 0.19 0 0.1 0.19 0 0 0.195 0 0.02 0.195 0 0.04 0.195 0 0.06 0.195 0 0.08 0.195 0 0.1 0.195 0 0 0.2 0 0.02 0.2 0 0.04 0.2 0 0.06 0.2 0 0.08 0.2 0 0.1 0.2 0 0 0.205 0 0.02 0.205 0 0.04 0.205 0 0.06 0.205 0 0.08 0.205 0 0.1 0.205 0 0 0.21 0 0.02 0.21 0 0.04 0.21 0 0.06 0.21 0 0.08 0.21 0 0.1 0.21 0 0 0.215 0 0.02 0.215 0 0.04 0.215 0 0.06 0.215 0 0.08 0.215 0 0.1 0.215 0 0 0.22 0 0.02 0.22 0 0.04 0.22 0 0.06 0.22 0 0.08 0.22 0 0.1 0.22 0 0 0.225 0 0.02 0.225 0 0.04 0.225 0 0.06 0.225 0 0.08 0.225 0 0.1 0.225 0 0 0.23 0 0.02 0.23 0 0.04 0.23 0 0.06 0.23 0 0.08 0.23 0 0.1 0.23 0 0 0.235 0 0.02 0.235 0 0.04 0.235 0 0.06 0.235 0 0.08 0.235 0 0.1 0.235 0 0 0.24 0 0.02 0.24 0 0.04 0.24 0 0.06 0.24 0 0.08 0.24 0 0.1 0.24 0 0 0.245 0 0.02 0.245 0 0.04 0.245 0 0.06 0.245 0 0.08 0.245 0 0.1 0.245 0 0 0.25 0 0.02 0.25 0 0.04 0.25 0 0.06 0.25 0 0.08 0.25 0 0.1 0.25 0 0 0.255 0 0.02 0.255 0 0.04 0.255 0 0.06 0.255 0 0.08 0.255 0 0.1 0.255 0 0 0.26 0 0.02 0.26 0 0.04 0.26 0 0.06 0.26 0 0.08 0.26 0 0.1 0.26 0 0 0.265 0 0.02 0.265 0 0.04 0.265 0 0.06 0.265 0 0.08 0.265 0 0.1 0.265 0 0 0.27 0 0.02 0.27 0 0.04 0.27 0 0.06 0.27 0 0.08 0.27 0 0.1 0.27 0 0 0.275 0 0.02 0.275 0 0.04 0.275 0 0.06 0.275 0 0.08 0.275 0 0.1 0.275 0 0 0.28 0 0.02 0.28 0 0.04 0.28 0 0.06 0.28 0 0.08 0.28 0 0.1 0.28 0 0 0.285 0 0.02 0.285 0 0.04 0.285 0 0.06 0.285 0 0.08 0.285 0 0.1 0.285 0 0 0.29 0 0.02 0.29 0 0.04 0.29 0 0.06 0.29 0 0.08 0.29 0 0.1 0.29 0 0 0.295 0 0.02 0.295 0 0.04 0.295 0 0.06 0.295 0 0.08 0.295 0 0.1 0.295 0 0 0.3 0 0.02 0.3 0 0.04 0.3 0 0.06 0.3 0 0.08 0.3 0 0.1 0.3 0 0 0.305 0 0.02 0.305 0 0.04 0.305 0 0.06 0.305 0 0.08 0.305 0 0.1 0.305 0 0 0.31 0 0.02 0.31 0 0.04 0.31 0 0.06 0.31 0 0.08 0.31 0 0.1 0.31 0 0 0.315 0 0.02 0.315 0 0.04 0.315 0 0.06 0.315 0 0.08 0.315 0 0.1 0.315 0 0 0.32 0 0.02 0.32 0 0.04 0.32 0 0.06 0.32 0 0.08 0.32 0 0.1 0.32 0 0 0.325 0 0.02 0.325 0 0.04 0.325 0 0.06 0.325 0 0.08 0.325 0 0.1 0.325 0 0 0.33 0 0.02 0.33 0 0.04 0.33 0 0.06 0.33 0 0.08 0.33 0 0.1 0.33 0 0 0.335 0 0.02 0.335 0 0.04 0.335 0 0.06 0.335 0 0.08 0.335 0 0.1 0.335 0 0 0.34 0 0.02 0.34 0 0.04 0.34 0 0.06 0.34 0 0.08 0.34 0 0.1 0.34 0 0 0.345 0 0.02 0.345 0 0.04 0.345 0 0.06 0.345 0 0.08 0.345 0 0.1 0.345 0 0 0.35 0 0.02 0.35 0 0.04 0.35 0 0.06 0.35 0 0.08 0.35 0 0.1 0.35 0 0 0.355 0 0.02 0.355 0 0.04 0.355 0 0.06 0.355 0 0.08 0.355 0 0.1 0.355 0 0 0.36 0 0.02 0.36 0 0.04 0.36 0 0.06 0.36 0 0.08 0.36 0 0.1 0.36 0 0 0.365 0 0.02 0.365 0 0.04 0.365 0 0.06 0.365 0 0.08 0.365 0 0.1 0.365 0 0 0.37 0 0.02 0.37 0 0.04 0.37 0 0.06 0.37 0 0.08 0.37 0 0.1 0.37 0 0 0.375 0 0.02 0.375 0 0.04 0.375 0 0.06 0.375 0 0.08 0.375 0 0.1 0.375 0 0 0.38 0 0.02 0.38 0 0.04 0.38 0 0.06 0.38 0 0.08 0.38 0 0.1 0.38 0 0 0.385 0 0.02 0.385 0 0.04 0.385 0 0.06 0.385 0 0.08 0.385 0 0.1 0.385 0 0 0.39 0 0.02 0.39 0 0.04 0.39 0 0.06 0.39 0 0.08 0.39 0 0.1 0.39 0 0 0.395 0 0.02 0.395 0 0.04 0.395 0 0.06 0.395 0 0.08 0.395 0 0.1 0.395 0 0 0.4 0 0.02 0.4 0 0.04 0.4 0 0.06 0.4 0 0.08 0.4 0 0.1 0.4 0 0 0.405 0 0.02 0.405 0 0.04 0.405 0 0.06 0.405 0 0.08 0.405 0 0.1 0.405 0 0 0.41 0 0.02 0.41 0 0.04 0.41 0 0.06 0.41 0 0.08 0.41 0 0.1 0.41 0 0 0.415 0 0.02 0.415 0 0.04 0.415 0 0.06 0.415 0 0.08 0.415 0 0.1 0.415 0 0 0.42 0 0.02 0.42 0 0.04 0.42 0 0.06 0.42 0 0.08 0.42 0 0.1 0.42 0 0 0.425 0 0.02 0.425 0 0.04 0.425 0 0.06 0.425 0 0.08 0.425 0 0.1 0.425 0 0 0.43 0 0.02 0.43 0 0.04 0.43 0 0.06 0.43 0 0.08 0.43 0 0.1 0.43 0 0 0.435 0 0.02 0.435 0 0.04 0.435 0 0.06 0.435 0 0.08 0.435 0 0.1 0.435 0 0 0.44 0 0.02 0.44 0 0.04 0.44 0 0.06 0.44 0 0.08 0.44 0 0.1 0.44 0 0 0.445 0 0.02 0.445 0 0.04 0.445 0 0.06 0.445 0 0.08 0.445 0 0.1 0.445 0 0 0.45 0 0.02 0.45 0 0.04 0.45 0 0.06 0.45 0 0.08 0.45 0 0.1 0.45 0 0 0.455 0 0.02 0.455 0 0.04 0.455 0 0.06 0.455 0 0.08 0.455 0 0.1 0.455 0 0 0.46 0 0.02 0.46 0 0.04 0.46 0 0.06 0.46 0 0.08 0.46 0 0.1 0.46 0 0 0.465 0 0.02 0.465 0 0.04 0.465 0 0.06 0.465 0 0.08 0.465 0 0.1 0.465 0 0 0.47 0 0.02 0.47 0 0.04 0.47 0 0.06 0.47 0 0.08 0.47 0 0.1 0.47 0 0 0.475 0 0.02 0.475 0 0.04 0.475 0 0.06 0.475 0 0.08 0.475 0 0.1 0.475 0 0 0.48 0 0.02 0.48 0 0.04 0.48 0 0.06 0.48 0 0.08 0.48 0 0.1 0.48 0 0 0.485 0 0.02 0.485 0 0.04 0.485 0 0.06 0.485 0 0.08 0.485 0 0.1 0.485 0 0 0.49 0 0.02 0.49 0 0.04 0.49 0 0.06 0.49 0 0.08 0.49 0 0.1 0.49 0 0 0.495 0 0.02 0.495 0 0.04 0.495 0 0.06 0.495 0 0.08 0.495 0 0.1 0.495 0 0 0.5 0 0.02 0.5 0 0.04 0.5 0 0.06 0.5 0 0.08 0.5 0 0.1 0.5 0 0 0.505 0 0.02 0.505 0 0.04 0.505 0 0.06 0.505 0 0.08 0.505 0 0.1 0.505 0 0 0.51 0 0.02 0.51 0 0.04 0.51 0 0.06 0.51 0 0.08 0.51 0 0.1 0.51 0 0 0.515 0 0.02 0.515 0 0.04 0.515 0 0.06 0.515 0 0.08 0.515 0 0.1 0.515 0 0 0.52 0 0.02 0.52 0 0.04 0.52 0 0.06 0.52 0 0.08 0.52 0 0.1 0.52 0 0 0.525 0 0.02 0.525 0 0.04 0.525 0 0.06 0.525 0 0.08 0.525 0 0.1 0.525 0 0 0.53 0 0.02 0.53 0 0.04 0.53 0 0.06 0.53 0 0.08 0.53 0 0.1 0.53 0 0 0.535 0 0.02 0.535 0 0.04 0.535 0 0.06 0.535 0 0.08 0.535 0 0.1 0.535 0 0 0.54 0 0.02 0.54 0 0.04 0.54 0 0.06 0.54 0 0.08 0.54 0 0.1 0.54 0 0 0.545 0 0.02 0.545 0 0.04 0.545 0 0.06 0.545 0 0.08 0.545 0 0.1 0.545 0 0 0.55 0 0.02 0.55 0 0.04 0.55 0 0.06 0.55 0 0.08 0.55 0 0.1 0.55 0 0 0.555 0 0.02 0.555 0 0.04 0.555 0 0.06 0.555 0 0.08 0.555 0 0.1 0.555 0 0 0.56 0 0.02 0.56 0 0.04 0.56 0 0.06 0.56 0 0.08 0.56 0 0.1 0.56 0 0 0.565 0 0.02 0.565 0 0.04 0.565 0 0.06 0.565 0 0.08 0.565 0 0.1 0.565 0 0 0.57 0 0.02 0.57 0 0.04 0.57 0 0.06 0.57 0 0.08 0.57 0 0.1 0.57 0 0 0.575 0 0.02 0.575 0 0.04 0.575 0 0.06 0.575 0 0.08 0.575 0 0.1 0.575 0 0 0.58 0 0.02 0.58 0 0.04 0.58 0 0.06 0.58 0 0.08 0.58 0 0.1 0.58 0 0 0.585 0 0.02 0.585 0 0.04 0.585 0 0.06 0.585 0 0.08 0.585 0 0.1 0.585 0 0 0.59 0 0.02 0.59 0 0.04 0.59 0 0.06 0.59 0 0.08 0.59 0 0.1 0.59 0 0 0.595 0 0.02 0.595 0 0.04 0.595 0 0.06 0.595 0 0.08 0.595 0 0.1 0.595 0 0 0.6 0 0.02 0.6 0 0.04 0.6 0 0.06 0.6 0 0.08 0.6 0 0.1 0.6 0 0 0.605 0 0.02 0.605 0 0.04 0.605 0 0.06 0.605 0 0.08 0.605 0 0.1 0.605 0 0 0.61 0 0.02 0.61 0 0.04 0.61 0 0.06 0.61 0 0.08 0.61 0 0.1 0.61 0 0 0.615 0 0.02 0.615 0 0.04 0.615 0 0.06 0.615 0 0.08 0.615 0 0.1 0.615 0 0 0.62 0 0.02 0.62 0 0.04 0.62 0 0.06 0.62 0 0.08 0.62 0 0.1 0.62 0 0 0.625 0 0.02 0.625 0 0.04 0.625 0 0.06 0.625 0 0.08 0.625 0 0.1 0.625 0 0 0.63 0 0.02 0.63 0 0.04 0.63 0 0.06 0.63 0 0.08 0.63 0 0.1 0.63 0 0 0.635 0 0.02 0.635 0 0.04 0.635 0 0.06 0.635 0 0.08 0.635 0 0.1 0.635 0 0 0.64 0 0.02 0.64 0 0.04 0.64 0 0.06 0.64 0 0.08 0.64 0 0.1 0.64 0 0 0.645 0 0.02 0.645 0 0.04 0.645 0 0.06 0.645 0 0.08 0.645 0 0.1 0.645 0 0 0.65 0 0.02 0.65 0 0.04 0.65 0 0.06 0.65 0 0.08 0.65 0 0.1 0.65 0 0 0.655 0 0.02 0.655 0 0.04 0.655 0 0.06 0.655 0 0.08 0.655 0 0.1 0.655 0 0 0.66 0 0.02 0.66 0 0.04 0.66 0 0.06 0.66 0 0.08 0.66 0 0.1 0.66 0 0 0.665 0 0.02 0.665 0 0.04 0.665 0 0.06 0.665 0 0.08 0.665 0 0.1 0.665 0 0 0.67 0 0.02 0.67 0 0.04 0.67 0 0.06 0.67 0 0.08 0.67 0 0.1 0.67 0 0 0.675 0 0.02 0.675 0 0.04 0.675 0 0.06 0.675 0 0.08 0.675 0 0.1 0.675 0 0 0.68 0 0.02 0.68 0 0.04 0.68 0 0.06 0.68 0 0.08 0.68 0 0.1 0.68 0 0 0.685 0 0.02 0.685 0 0.04 0.685 0 0.06 0.685 0 0.08 0.685 0 0.1 0.685 0 0 0.69 0 0.02 0.69 0 0.04 0.69 0 0.06 0.69 0 0.08 0.69 0 0.1 
[...]
			<PointData Scalars="VitesseX">
				<DataArray Name="VitesseX" type="Float32" format="ascii">
 0 -5.4733e-15 -4.70264e-15 -2.1119e-14 -2.39859e-14 0 0 -8.69813e-15 -1.56117e-15 -2.25391e-14 -2.27124e-14 0 0 -8.91775e-15 -7.53747e-15 -1.50532e-14 -2.48186e-14 0 0 -7.57585e-15 -1.28063e-14 -1.28979e-14 -2.35179e-14 0 0 -7.83514e-15 -1.74917e-14 -9.65606e-15 -2.48148e-14 0 0 -9.62394e-15 -2.38083e-14 -2.12845e-15 -3.03889e-14 0 0 -2.85049e-14 -2.12313e-15 -2.87583e-14 -1.28881e-14 0 0 -2.34832e-14 -2.20063e-14 -1.58069e-14 -1.9986e-14 0 0 -8.06054e-15 -5.07419e-14 8.07486e-15 -3.23485e-14 0 0 -2.28976e-14 -3.09925e-14 -1.6335e-14 -7.43944e-15 0 0 -2.96184e-14 -2.60716e-14 -2.02855e-14 -9.08741e-15 0 0 -2.43746e-14 -2.55535e-14 -1.89574e-14 -2.29136e-14 0 0 -1.98725e-14 -2.20671e-14 -1.01632e-14 -4.22875e-14 0 0 -2.75702e-14 -9.22696e-16 -1.87877e-14 -4.80455e-14 0 0 -1.84866e-14 -6.88927e-15 -1.28035e-14 -4.52833e-14 0 0 7.15558e-15 -3.29549e-14 7.88018e-15 -4.60486e-14 0 0 6.25636e-15 -1.40385e-14 -1.53699e-14 -2.24451e-14 0 0 -5.19276e-15 9.41696e-15 -4.81381e-14 1.34948e-14 0 0 1.96355e-14 -1.71522e-14 -4.20295e-14 3.90299e-14 0 0 1.01619e-14 -1.56942e-14 -2.27418e-14 2.63375e-14 0 0 -1.05918e-14 -1.81562e-14 2.39234e-14 -3.46793e-14 0 0 -1.11494e-14 -2.24113e-14 3.32031e-14 -5.5237e-14 0 0 -3.36481e-14 8.0096e-15 9.54565e-15 -6.86438e-14 0 0 -5.42561e-14 4.15328e-14 -5.8094e-14 -4.16842e-14 0 0 -5.76017e-14 6.66197e-14 -1.22829e-13 -1.99368e-16 0 0 -1.35888e-14 8.23642e-15 -5.40871e-14 -5.56e-14 0 0 -3.84576e-14 4.4897e-14 -9.19526e-14 -1.00405e-14 0 0 -3.87415e-14 4.31735e-14 -9.71965e-14 1.50501e-14 0 0 2.79142e-15 -1.44039e-14 -5.18142e-14 -1.55348e-14 0 0 -8.36442e-15 -1.12428e-14 -6.06286e-14 -3.35392e-15 0 0 -1.69106e-14 -1.06401e-14 -5.30069e-14 -2.71673e-14 0 0 2.62975e-15 -4.69734e-14 -1.75242e-14 -7.27738e-14 0 0 2.27903e-14 -7.94539e-14 -2.81475e-15 -9.31239e-14 0 0 -1.60367e-14 -2.93636e-14 -4.36339e-14 -8.97538e-14 0 0 -5.28155e-14 2.87194e-15 -6.64057e-14 -7.9966e-14 0 0 -4.77342e-14 -2.06215e-14 -5.04247e-14 -5.70243e-14 0 0 -1.34088e-14 -8.44147e-14 -1.38759e-14 -2.77261e-14 0 0 -5.62384e-14 -2.94227e-14 -5.63913e-14 1.74363e-14 0 0 -6.36496e-14 -3.42785e-14 -2.16347e-14 1.75956e-14 0 0 -7.36271e-14 -1.05536e-14 -4.94786e-14 3.96557e-14 0 0 -6.53174e-14 -1.74338e-14 -1.39703e-14 -2.61155e-14 0 0 -1.00801e-14 -9.71379e-14 2.24866e-14 -3.53378e-14 0 0 -4.94838e-14 -4.07081e-14 -5.74754e-14 3.69438e-14 0 0 1.06784e-14 -8.15122e-14 -9.00123e-15 8.18002e-16 0 0 4.44325e-14 -7.07548e-14 -4.80929e-14 3.48635e-14 0 0 -7.3908e-14 6.40163e-14 -1.3923e-13 1.11005e-13 0 0 -8.10705e-14 5.96314e-14 -1.19734e-13 1.41862e-13 0 0 -7.33177e-14 4.23222e-14 -9.72226e-14 1.4898e-13 0 0 1.25745e-14 -1.16203e-13 3.79367e-14 7.24213e-14 0 0 1.04795e-13 -2.32898e-13 8.49768e-14 1.62905e-14 0 0 2.96035e-14 -1.33171e-13 -2.31442e-14 3.11406e-14 0 0 3.80222e-14 -1.38811e-13 -1.49846e-14 -1.62842e-14 0 0 5.47561e-14 -1.27463e-13 1.25487e-14 -1.18171e-13 0 0 1.01918e-13 -2.36422e-13 1.54078e-13 -2.27115e-13 0 0 4.26011e-14 -1.37142e-13 -3.68915e-14 -3.89753e-14 0 0 -3.5012e-14 -3.28382e-14 -2.41507e-13 1.06681e-13 0 0 3.61023e-14 -2.56297e-13 -4.20811e-14 -5.33475e-14 0 0 2.46305e-14 -2.57654e-13 -6.29952e-14 -1.12275e-13 0 0 3.93149e-14 -2.02867e-13 -1.47011e-13 -1.44767e-13 0 0 7.6434e-14 -2.16471e-13 -1.42636e-13 -1.2703e-13 0 0 2.61447e-14 -1.19217e-13 -2.66831e-13 3.47078e-14 0 0 -3.58884e-14 -9.67363e-14 -2.32414e-13 9.08162e-15 0 0 -1.12473e-13 -1.23074e-13 -9.43951e-14 -1.27333e-13 0 0 -1.90951e-13 -1.45233e-13 -5.1913e-14 -1.22347e-13 0 0 -2.01706e-13 -2.30179e-13 2.08503e-15 -1.0856e-13 0 0 -1.99156e-13 -2.58205e-13 2.91654e-15 -1.178e-13 0 0 -1.84439e-13 -3.1502e-13 7.37398e-14 -2.28936e-13 0 0 -1.61052e-13 -3.38604e-13 9.31949e-14 -3.51572e-13 0 0 -1.57972e-13 -2.75912e-13 -5.56318e-14 -2.53269e-13 0 0 -1.45078e-13 -2.07518e-13 -2.71726e-13 -7.4599e-14 0 0 -1.29099e-13 -2.51224e-13 -2.58899e-13 -4.5944e-14 0 0 -1.56949e-13 -3.43171e-13 -1.5724e-13 -1.14359e-13 0 0 -2.00259e-13 -4.27485e-13 -2.67987e-15 -2.05981e-13 0 0 -2.31354e-13 -4.54337e-13 -2.94632e-14 -1.54688e-13 0 0 -2.64804e-13 -3.85833e-13 -2.0534e-13 2.80434e-14 0 0 -3.094e-13 -2.31015e-13 -4.68589e-13 1.93874e-13 0 0 -3.18677e-13 -2.05161e-13 -4.3295e-13 8.81896e-14 0 0 -3.00441e-13 -2.74207e-13 -2.20418e-13 -1.22293e-13 0 0 -2.92973e-13 -3.66852e-13 7.78593e-14 -2.18453e-13 0 0 -2.98126e-13 -3.85865e-13 2.0776e-13 -1.90677e-13 0 0 -3.13423e-13 -3.33906e-13 1.50742e-13 -6.46537e-14 0 0 -3.13396e-13 -2.40853e-13 4.43755e-14 4.25796e-14 0 0 -2.61179e-13 -2.55065e-13 2.01429e-14 5.61362e-14 0 0 -9.61048e-14 -3.80902e-13 5.55201e-14 2.56411e-14 0 0 1.72792e-13 -6.06109e-13 7.81481e-14 -1.59407e-14 0 0 2.91016e-13 -6.18869e-13 3.2263e-14 -1.9253e-14 0 0 2.32884e-13 -4.78588e-13 -1.28607e-13 3.99467e-14 0 0 4.66082e-14 -1.5034e-13 -4.12865e-13 5.49418e-14 0 0 -8.90535e-14 8.11555e-15 -4.86154e-13 -1.48276e-14 0 0 -1.22314e-13 6.9816e-15 -4.46768e-13 -1.21788e-13 0 0 -1.21901e-13 -1.61244e-14 -3.74557e-13 -2.04944e-13 0 0 -1.01622e-13 -3.99434e-14 -3.23831e-13 -2.22933e-13 0 0 -7.79816e-14 -7.21609e-14 -2.87216e-13 -2.3964e-13 0 0 -8.22965e-14 -1.36776e-13 -1.75325e-13 -3.1209e-13 0 0 -1.16459e-13 -1.59811e-13 -4.5117e-14 -4.66523e-13 0 0 -1.28456e-13 -1.54777e-13 -5.72907e-14 -5.99817e-13 0 0 -1.07003e-13 -1.6903e-13 -1.22401e-13 -6.01107e-13 0 0 -5.84571e-14 -2.16055e-13 -2.02767e-13 -5.57798e-13 0 0 1.45319e-14 -2.16478e-13 -3.37131e-13 -4.3543e-13 0 0 1.03426e-13 -1.42015e-13 -5.58982e-13 -2.43026e-13 0 0 1.76758e-13 -1.02037e-13 -8.21825e-13 -5.48829e-14 0 0 2.57863e-13 -1.23832e-13 -8.56786e-13 -1.51659e-14 0 0 3.96184e-13 -2.10494e-13 -7.9905e-13 -4.85085e-14 0 0 5.65471e-13 -3.88164e-13 -6.66878e-13 -1.19602e-13 0 0 5.63529e-13 -5.13987e-13 -5.00254e-13 -2.22193e-13 0 0 5.15384e-13 -5.19772e-13 -2.76542e-13 -4.0946e-13 0 0 4.16109e-13 -4.69563e-13 -1.73291e-13 -5.89231e-13 0 0 2.74025e-13 -3.74582e-13 -2.21377e-13 -5.60519e-13 0 0 1.57402e-13 -2.89679e-13 -2.86696e-13 -4.94887e-13 0 0 6.70964e-14 -2.26996e-13 -3.66366e-13 -3.70769e-13 0 0 -3.29426e-14 -1.65667e-13 -4.48202e-13 -2.34074e-13 0 0 -7.97297e-14 -1.35631e-13 -4.7231e-13 -1.88085e-13 0 0 -1.12051e-13 -1.24681e-13 -5.15061e-13 -9.14406e-14 0 0 -1.18902e-13 -1.6416e-13 -4.93267e-13 -3.9056e-14 0 0 -1.34524e-13 -2.20906e-13 -3.46897e-13 -1.45439e-13 0 0 -1.71354e-13 -2.19217e-13 -2.46186e-13 -2.63336e-13 0 0 -1.87563e-13 -2.29177e-13 -2.03075e-13 -2.94568e-13 0 0 -1.88228e-13 -2.50323e-13 -1.94284e-13 -3.333e-13 0 0 -1.93358e-13 -2.22113e-13 -2.64822e-13 -3.20289e-13 0 0 -2.00079e-13 -1.80469e-13 -3.56273e-13 -2.52571e-13 0 0 -1.91873e-13 -2.15559e-13 -3.24144e-13 -2.40771e-13 0 0 -1.98354e-13 -2.151e-13 -3.02394e-13 -2.47112e-13 0 0 -2.27302e-13 -1.80155e-13 -3.04205e-13 -2.05288e-13 0 0 -2.31932e-13 -1.84412e-13 -2.47053e-13 -1.97172e-13 0 0 -2.06542e-13 -2.18448e-13 -1.76652e-13 -1.99619e-13 0 0 -1.83037e-13 -2.12482e-13 -1.75447e-13 -1.97689e-13 0 0 -1.92403e-13 -2.02255e-13 -1.54424e-13 -2.00031e-13 0 0 -2.22021e-13 -1.57243e-13 -1.37986e-13 -1.24721e-13 0 0 -2.36011e-13 -1.31845e-13 -1.03258e-13 -1.37343e-13 0 0 -2.32938e-13 -1.40451e-13 -3.10559e-14 -1.82463e-13 0 0 -2.12625e-13 -1.51447e-13 -1.00269e-14 -1.30572e-13 0 0 -2.15949e-13 -1.4795e-13 3.29928e-14 -1.3971e-13 0 0 -2.4017e-13 -1.23526e-13 2.89197e-14 -1.78855e-13 0 0 -2.4749e-13 -1.02101e-13 -4.17118e-14 -1.48356e-13 0 0 -2.34118e-13 -1.35746e-13 -9.22032e-14 -8.11926e-14 0 0 -2.13492e-13 -2.22338e-13 -7.42455e-14 -6.83639e-14 0 0 -2.18403e-13 -2.44662e-13 -7.00789e-14 -3.59011e-14 0 0 -2.41608e-13 -2.07073e-13 -1.00094e-13 -8.5499e-14 0 0 -2.28938e-13 -1.80039e-13 -1.45431e-13 -1.39425e-13 0 0 -2.14002e-13 -1.87849e-13 -1.94893e-13 -2.22567e-14 0 0 -1.88746e-13 -1.92187e-13 -2.1864e-13 3.46251e-14 0 0 -1.52533e-13 -2.18791e-13 -1.71058e-13 -5.98253e-14 0 0 -1.40557e-13 -2.40925e-13 -9.66134e-14 -1.89817e-13 0 0 -1.56861e-13 -2.23059e-13 -1.04056e-13 -2.00042e-13 0 0 -1.46448e-13 -2.14718e-13 -1.44283e-13 -1.66741e-13 0 0 -1.21524e-13 -2.21044e-13 -1.91089e-13 -1.16869e-13 0 0 -1.31902e-13 -2.11935e-13 -2.26477e-13 -1.10061e-13 0 0 -1.44287e-13 -1.82029e-13 -3.1536e-13 -7.8642e-14 0 0 -1.40229e-13 -2.01667e-13 -3.75963e-13 -2.73285e-14 0 0 -1.48531e-13 -2.28852e-13 -4.12442e-13 7.73909e-14 0 0 -1.44788e-13 -2.5883e-13 -4.76578e-13 1.08249e-13 0 0 -1.46874e-13 -2.97963e-13 -4.52543e-13 -3.37169e-14 0 0 -1.72808e-13 -3.31173e-13 -3.91463e-13 -2.67027e-13 0 0 -1.78779e-13 -3.5216e-13 -3.85211e-13 -4.42402e-13 0 0 -1.82721e-13 -3.37988e-13 -4.46001e-13 -5.07204e-13 0 0 -1.80712e-13 -3.37182e-13 -4.7294e-13 -4.72829e-13 0 0 -1.89016e-13 -3.30989e-13 -4.2822e-13 -3.9928e-13 0 0 -2.24159e-13 -3.18918e-13 -3.31883e-13 -1.95361e-13 0 0 -2.55893e-13 -3.49666e-13 -2.1431e-13 -2.75017e-15 0 0 -2.58531e-13 -3.90217e-13 -1.77768e-13 -1.7936e-14 0 0 -2.4814e-13 -3.96543e-13 -1.76862e-13 -6.98989e-14 0 0 -1.66182e-13 -4.08156e-13 -2.025e-13 6.70353e-14 0 0 -1.32793e-13 -3.52248e-13 -2.53178e-13 -8.68152e-15 0 0 -2.21128e-13 -2.0607e-13 -3.39639e-13 -2.97256e-13 0 0 -3.00145e-13 -1.78003e-13 -4.3234e-13 -1.70959e-13 0 0 -2.00985e-13 -3.26214e-13 -3.77445e-13 -1.24676e-13 0 0 -1.90549e-13 -3.14478e-13 -4.01061e-13 -2.05761e-13 0 0 -2.7156e-13 -2.74513e-13 -4.21435e-13 -2.56551e-13 0 0 -2.42525e-13 -3.7133e-13 -3.44416e-13 -3.97384e-13 0 0 -3.15305e-13 -3.18997e-13 -4.252e-13 -3.26198e-13 0 0 -2.62188e-13 -4.45735e-13 -3.2169e-13 -3.90694e-13 0 0 -2.29213e-13 -5.07929e-13 -2.43352e-13 -4.48146e-13 0 0 -2.69755e-13 -4.4192e-13 -3.08802e-13 -3.94511e-13 0 0 -3.05351e-13 -4.12649e-13 -3.585e-13 -3.34886e-13 0 0 -3.30132e-13 -4.54902e-13 -3.16115e-13 -2.08084e-13 0 0 -3.42559e-13 -4.63585e-13 -3.90307e-13 -7.35229e-14 0 0 -2.51406e-13 -5.39708e-13 -4.22871e-13 -8.02897e-14 0 0 -2.10296e-13 -5.75084e-13 -4.01828e-13 -7.77163e-14 0 0 -2.70376e-13 -4.82444e-13 -3.72428e-13 -2.15369e-13 0 0 -2.32198e-13 -5.62996e-13 -2.10489e-13 -4.05076e-13 0 0 -2.18634e-13 -5.53583e-13 -2.39347e-13 -3.47592e-13 0 0 -2.57826e-13 -3.97489e-13 -4.15728e-13 -1.59227e-13 0 0 -2.32337e-13 -3.92389e-13 -4.17827e-13 -1.61887e-13 0 0 -1.81769e-13 -4.1252e-13 -3.44073e-13 -3.06354e-13 0 0 -2.09401e-13 -3.00426e-13 -4.57525e-13 -2.23877e-13 0 0 -2.11398e-13 -2.19918e-13 -4.84077e-13 -3.11486e-13 0 0 -2.3522e-14 -4.52256e-13 -2.72627e-13 -3.66063e-13 0 0 -8.80961e-14 -3.43764e-13 -3.17116e-13 -2.9946e-13 0 0 -1.56099e-13 -2.77771e-13 -2.7268e-13 -3.47631e-13 0 0 -7.36765e-14 -4.2629e-13 -8.77784e-14 -3.25304e-13 0 0 -1.54022e-13 -2.73333e-13 -2.82996e-13 -1.32328e-13 0 0 -1.04946e-13 -4.15593e-13 -2.02153e-13 -1.60046e-13 0 0 -2.0444e-13 -2.88934e-13 -3.97126e-13 8.30284e-14 0 0 -2.13223e-13 -1.8187e-13 -6.01945e-13 2.52172e-13 0 0 -2.50775e-14 -4.06998e-13 -2.80182e-13 -1.06881e-13 0 0 -6.74164e-14 -2.77285e-13 -4.10231e-13 1.64138e-14 0 0 -3.26087e-13 7.18317e-14 -7.37515e-13 2.59933e-13 0 0 -3.37416e-13 -1.36759e-13 -3.37607e-13 -5.55241e-14 0 0 -2.51715e-13 -3.62537e-13 -6.24341e-14 -2.87152e-13 0 0 -4.21467e-13 -1.43464e-14 -4.49123e-13 -1.72594e-13 0 0 -4.89708e-13 1.36198e-13 -5.86205e-13 -1.70711e-13 0
				</DataArray>
				<DataArray Name="VitesseY" type="Float32" format="ascii">