<?xml version="1.0"?>
<VTKFile type="PolyData">
	<PolyData>
		<Piece NumberOfPoints="1206" NumberOfPolys="1000">
			<Points>
				<DataArray type="Float32" NumberOfComponents="3" format="ascii">
 0 0 0 0.02 0 0 0.04 0 0 0.06 0 0 0.08 0 0 0.1 0 0 0 0.005 0 0.02 0.005 0 0.04 0.005 0 0.06 0.005 0 0.08 0.005 0 0.1 0.005 0 0 0.01 0 0.02 0.01 0 0.04 0.01 0 0.06 0.01 0 0.08 0.01 0 0.1 0.01 0 0 0.015 0 0.02 0.015 0 0.04 0.015 0 0.06 0.015 0 0.08 0.015 0 0.1 0.015 0 0 0.02 0 0.02 0.02 0 0.04 0.02 0 0.06 0.02 0 0.08 0.02 0 0.1 0.02 0 0 0.025 0 0.02 0.025 0 0.04 0.025 0 0.06 0.025 0 0.08 0.025 0 0.1 0.025 0 0 0.03 0 0.02 0.03 0 0.04 0.03 0 0.06 0.03 0 0.08 0.03 0 0.1 0.03 0 0 0.035 0 0.02 0.035 0 0.04 0.035 0 0.06 0.035 0 0.08 0.035 0 0.1 0.035 0 0 0.04 0 0.02 0.04 0 0.04 0.04 0 0.06 0.04 0 0.08 0.04 0 0.1 0.04 0 0 0.045 0 0.02 0.045 0 0.04 0.045 0 0.06 0.045 0 0.08 0.045 0 0.1 0.045 0 0 0.05 0 0.02 0.05 0 0.04 0.05 0 0.06 0.05 0 0.08 0.05 0 0.1 0.05 0 0 0.055 0 0.02 0.055 0 0.04 0.055 0 0.06 0.055 0 0.08 0.055 0 0.1 0.055 0 0 0.06 0 0.02 0.06 0 0.04 0.06 0 0.06 0.06 0 0.08 0.06 0 0.1 0.06 0 0 0.065 0 0.02 0.065 0 0.04 0.065 0 0.06 0.065 0 0.08 0.065 0 0.1 0.065 0 0 0.07 0 0.02 0.07 0 0.04 0.07 0 0.06 0.07 0 0.08 0.07 0 0.1 0.07 0 0 0.075 0 0.02 0.075 0 0.04 0.075 0 0.06 0.075 0 0.08 0.075 0 0.1 0.075 0 0 0.08 0 0.02 0.08 0 0.04 0.08 0 0.06 0.08 0 0.08 0.08 0 0.1 0.08 0 0 0.085 0 0.02 0.085 0 0.04 0.085 0 0.06 0.085 0 0.08 0.085 0 0.1 0.085 0 0 0.09 0 0.02 0.09 0 0.04 0.09 0 0.06 0.09 0 0.08 0.09 0 0.1 0.09 0 0 0.095 0 0.02 0.095 0 0.04 0.095 0 0.06 0.095 0 0.08 0.095 0 0.1 0.095 0 0 0.1 0 0.02 0.1 0 0.04 0.1 0 0.06 0.1 0 0.08 0.1 0 0.1 0.1 0 0 0.105 0 0.02 0.105 0 0.04 0.105 0 0.06 0.105 0 0.08 0.105 0 0.1 0.105 0 0 0.11 0 0.02 0.11 0 0.04 0.11 0 0.06 0.11 0 0.08 0.11 0 0.1 0.11 0 0 0.115 0 0.02 0.115 0 0.04 0.115 0 0.06 0.115 0 0.08 0.115 0 0.1 0.115 0 0 0.12 0 0.02 0.12 0 0.04 0.12 0 0.06 0.12 0 0.08 0.12 0 0.1 0.12 0 0 0.125 0 0.02 0.125 0 0.04 0.125 0 0.06 0.125 0 0.08 0.125 0 0.1 0.125 0 0 0.13 0 0.02 0.13 0 0.04 0.13 0 0.06 0.13 0 0.08 0.13 0 0.1 0.13 0 0 0.135 0 0.02 0.135 0 0.04 0.135 0 0.06 0.135 0 0.08 0.135 0 0.1 0.135 0 0 0.14 0 0.02 0.14 0 0.04 0.14 0 0.06 0.14 0 0.08 0.14 0 0.1 0.14 0 0 0.145 0 0.02 0.145 0 0.04 0.145 0 0.06 0.145 0 0.08 0.145 0 0.1 0.145 0 0 0.15 0 0.02 0.15 0 0.04 0.15 0 0.06 0.15 0 0.08 0.15 0 0.1 0.15 0 0 0.155 0 0.02 0.155 0 0.04 0.155 0 0.06 0.155 0 0.08 0.155 0 0.1 0.155 0 0 0.16 0 0.02 0.16 0 0.04 0.16 0 0.06 0.16 0 0.08 0.16 0 0.1 0.16 0 0 0.165 0 0.02 0.165 0 0.04 0.165 0 0.06 0.165 0 0.08 0.165 0 0.1 0.165 0 0 0.17 0 0.02 0.17 0 0.04 0.17 0 0.06 0.17 0 0.08 0.17 0 0.1 0.17 0 0 0.175 0 0.02 0.175 0 0.04 0.175 0 0.06 0.175 0 0.08 0.175 0 0.1 0.175 0 0 0.18 0 0.02 0.18 0 0.04 0.18 0 0.06 0.18 0 0.08 0.18 0 0.1 0.18 0 0 0.185 0 0.02 0.185 0 0.04 0.185 0 0.06 0.185 0 0.08 0.185 0 0.1 0.185 0 0 0.19 0 0.02 0.19 0 0.04 0.19 0 0.06 0.19 0 0.08 0.19 0 0.1 0.19 0 0 0.195 0 0.02 0.195 0 0.04 0.195 0 0.06 0.195 0 0.08 0.195 0 0.1 0.195 0 0 0.2 0 0.02 0.2 0 0.04 0.2 0 0.06 0.2 0 0.08 0.2 0 0.1 0.2 0 0 0.205 0 0.02 0.205 0 0.04 0.205 0 0.06 0.205 0 0.08 0.205 0 0.1 0.205 0 0 0.21 0 0.02 0.21 0 0.04 0.21 0 0.06 0.21 0 0.08 0.21 0 0.1 0.21 0 0 0.215 0 0.02 0.215 0 0.04 0.215 0 0.06 0.215 0 0.08 0.215 0 0.1 0.215 0 0 0.22 0 0.02 0.22 0 0.04 0.22 0 0.06 0.22 0 0.08 0.22 0 0.1 0.22 0 0 0.225 0 0.02 0.225 0 0.04 0.225 0 0.06 0.225 0 0.08 0.225 0 0.1 0.225 0 0 0.23 0 0.02 0.23 0 0.04 0.23 0 0.06 0.23 0 0.08 0.23 0 0.1 0.23 0 0 0.235 0 0.02 0.235 0 0.04 0.235 0 0.06 0.235 0 0.08 0.235 0 0.1 0.235 0 0 0.24 0 0.02 0.24 0 0.04 0.24 0 0.06 0.24 0 0.08 0.24 0 0.1 0.24 0 0 0.245 0 0.02 0.245 0 0.04 0.245 0 0.06 0.245 0 0.08 0.245 0 0.1 0.245 0 0 0.25 0 0.02 0.25 0 0.04 0.25 0 0.06 0.25 0 0.08 0.25 0 0.1 0.25 0 0 0.255 0 0.02 0.255 0 0.04 0.255 0 0.06 0.255 0 0.08 0.255 0 0.1 0.255 0 0 0.26 0 0.02 0.26 0 0.04 0.26 0 0.06 0.26 0 0.08 0.26 0 0.1 0.26 0 0 0.265 0 0.02 0.265 0 0.04 0.265 0 0.06 0.265 0 0.08 0.265 0 0.1 0.265 0 0 0.27 0 0.02 0.27 0 0.04 0.27 0 0.06 0.27 0 0.08 0.27 0 0.1 0.27 0 0 0.275 0 0.02 0.275 0 0.04 0.275 0 0.06 0.275 0 0.08 0.275 0 0.1 0.275 0 0 0.28 0 0.02 0.28 0 0.04 0.28 0 0.06 0.28 0 0.08 0.28 0 0.1 0.28 0 0 0.285 0 0.02 0.285 0 0.04 0.285 0 0.06 0.285 0 0.08 0.285 0 0.1 0.285 0 0 0.29 0 0.02 0.29 0 0.04 0.29 0 0.06 0.29 0 0.08 0.29 0 0.1 0.29 0 0 0.295 0 0.02 0.295 0 0.04 0.295 0 0.06 0.295 0 0.08 0.295 0 0.1 0.295 0 0 0.3 0 0.02 0.3 0 0.04 0.3 0 0.06 0.3 0 0.08 0.3 0 0.1 0.3 0 0 0.305 0 0.02 0.305 0 0.04 0.305 0 0.06 0.305 0 0.08 0.305 0 0.1 0.305 0 0 0.31 0 0.02 0.31 0 0.04 0.31 0 0.06 0.31 0 0.08 0.31 0 0.1 0.31 0 0 0.315 0 0.02 0.315 0 0.04 0.315 0 0.06 0.315 0 0.08 0.315 0 0.1 0.315 0 0 0.32 0 0.02 0.32 0 0.04 0.32 0 0.06 0.32 0 0.08 0.32 0 0.1 0.32 0 0 0.325 0 0.02 0.325 0 0.04 0.325 0 0.06 0.325 0 0.08 0.325 0 0.1 0.325 0 0 0.33 0 0.02 0.33 0 0.04 0.33 0 0.06 0.33 0 0.08 0.33 0 0.1 0.33 0 0 0.335 0 0.02 0.335 0 0.04 0.335 0 0.06 0.335 0 0.08 0.335 0 0.1 0.335 0 0 0.34 0 0.02 0.34 0 0.04 0.34 0 0.06 0.34 0 0.08 0.34 0 0.1 0.34 0 0 0.345 0 0.02 0.345 0 0.04 0.345 0 0.06 0.345 0 0.08 0.345 0 0.1 0.345 0 0 0.35 0 0.02 0.35 0 0.04 0.35 0 0.06 0.35 0 0.08 0.35 0 0.1 0.35 0 0 0.355 0 0.02 0.355 0 0.04 0.355 0 0.06 0.355 0 0.08 0.355 0 0.1 0.355 0 0 0.36 0 0.02 0.36 0 0.04 0.36 0 0.06 0.36 0 0.08 0.36 0 0.1 0.36 0 0 0.365 0 0.02 0.365 0 0.04 0.365 0 0.06 0.365 0 0.08 0.365 0 0.1 0.365 0 0 0.37 0 0.02 0.37 0 0.04 0.37 0 0.06 0.37 0 0.08 0.37 0 0.1 0.37 0 0 0.375 0 0.02 0.375 0 0.04 0.375 0 0.06 0.375 0 0.08 0.375 0 0.1 0.375 0 0 0.38 0 0.02 0.38 0 0.04 0.38 0 0.06 0.38 0 0.08 0.38 0 0.1 0.38 0 0 0.385 0 0.02 0.385 0 0.04 0.385 0 0.06 0.385 0 0.08 0.385 0 0.1 0.385 0 0 0.39 0 0.02 0.39 0 0.04 0.39 0 0.06 0.39 0 0.08 0.39 0 0.1 0.39 0 0 0.395 0 0.02 0.395 0 0.04 0.395 0 0.06 0.395 0 0.08 0.395 0 0.1 0.395 0 0 0.4 0 0.02 0.4 0 0.04 0.4 0 0.06 0.4 0 0.08 0.4 0 0.1 0.4 0 0 0.405 0 0.02 0.405 0 0.04 0.405 0 0.06 0.405 0 0.08 0.405 0 0.1 0.405 0 0 0.41 0 0.02 0.41 0 0.04 0.41 0 0.06 0.41 0 0.08 0.41 0 0.1 0.41 0 0 0.415 0 0.02 0.415 0 0.04 0.415 0 0.06 0.415 0 0.08 0.415 0 0.1 0.415 0 0 0.42 0 0.02 0.42 0 0.04 0.42 0 0.06 0.42 0 0.08 0.42 0 0.1 0.42 0 0 0.425 0 0.02 0.425 0 0.04 0.425 0 0.06 0.425 0 0.08 0.425 0 0.1 0.425 0 0 0.43 0 0.02 0.43 0 0.04 0.43 0 0.06 0.43 0 0.08 0.43 0 0.1 0.43 0 0 0.435 0 0.02 0.435 0 0.04 0.435 0 0.06 0.435 0 0.08 0.435 0 0.1 0.435 0 0 0.44 0 0.02 0.44 0 0.04 0.44 0 0.06 0.44 0 0.08 0.44 0 0.1 0.44 0 0 0.445 0 0.02 0.445 0 0.04 0.445 0 0.06 0.445 0 0.08 0.445 0 0.1 0.445 0 0 0.45 0 0.02 0.45 0 0.04 0.45 0 0.06 0.45 0 0.08 0.45 0 0.1 0.45 0 0 0.455 0 0.02 0.455 0 0.04 0.455 0 0.06 0.455 0 0.08 0.455 0 0.1 0.455 0 0 0.46 0 0.02 0.46 0 0.04 0.46 0 0.06 0.46 0 0.08 0.46 0 0.1 0.46 0 0 0.465 0 0.02 0.465 0 0.04 0.465 0 0.06 0.465 0 0.08 0.465 0 0.1 0.465 0 0 0.47 0 0.02 0.47 0 0.04 0.47 0 0.06 0.47 0 0.08 0.47 0 0.1 0.47 0 0 0.475 0 0.02 0.475 0 0.04 0.475 0 0.06 0.475 0 0.08 0.475 0 0.1 0.475 0 0 0.48 0 0.02 0.48 0 0.04 0.48 0 0.06 0.48 0 0.08 0.48 0 0.1 0.48 0 0 0.485 0 0.02 0.485 0 0.04 0.485 0 0.06 0.485 0 0.08 0.485 0 0.1 0.485 0 0 0.49 0 0.02 0.49 0 0.04 0.49 0 0.06 0.49 0 0.08 0.49 0 0.1 0.49 0 0 0.495 0 0.02 0.495 0 0.04 0.495 0 0.06 0.495 0 0.08 0.495 0 0.1 0.495 0 0 0.5 0 0.02 0.5 0 0.04 0.5 0 0.06 0.5 0 0.08 0.5 0 0.1 0.5 0 0 0.505 0 0.02 0.505 0 0.04 0.505 0 0.06 0.505 0 0.08 0.505 0 0.1 0.505 0 0 0.51 0 0.02 0.51 0 0.04 0.51 0 0.06 0.51 0 0.08 0.51 0 0.1 0.51 0 0 0.515 0 0.02 0.515 0 0.04 0.515 0 0.06 0.515 0 0.08 0.515 0 0.1 0.515 0 0 0.52 0 0.02 0.52 0 0.04 0.52 0 0.06 0.52 0 0.08 0.52 0 0.1 0.52 0 0 0.525 0 0.02 0.525 0 0.04 0.525 0 0.06 0.525 0 0.08 0.525 0 0.1 0.525 0 0 0.53 0 0.02 0.53 0 0.04 0.53 0 0.06 0.53 0 0.08 0.53 0 0.1 0.53 0 0 0.535 0 0.02 0.535 0 0.04 0.535 0 0.06 0.535 0 0.08 0.535 0 0.1 0.535 0 0 0.54 0 0.02 0.54 0 0.04 0.54 0 0.06 0.54 0 0.08 0.54 0 0.1 0.54 0 0 0.545 0 0.02 0.545 0 0.04 0.545 0 0.06 0.545 0 0.08 0.545 0 0.1 0.545 0 0 0.55 0 0.02 0.55 0 0.04 0.55 0 0.06 0.55 0 0.08 0.55 0 0.1 0.55 0 0 0.555 0 0.02 0.555 0 0.04 0.555 0 0.06 0.555 0 0.08 0.555 0 0.1 0.555 0 0 0.56 0 0.02 0.56 0 0.04 0.56 0 0.06 0.56 0 0.08 0.56 0 0.1 0.56 0 0 0.565 0 0.02 0.565 0 0.04 0.565 0 0.06 0.565 0 0.08 0.565 0 0.1 0.565 0 0 0.57 0 0.02 0.57 0 0.04 0.57 0 0.06 0.57 0 0.08 0.57 0 0.1 0.57 0 0 0.575 0 0.02 0.575 0 0.04 0.575 0 0.06 0.575 0 0.08 0.575 0 0.1 0.575 0 0 0.58 0 0.02 0.58 0 0.04 0.58 0 0.06 0.58 0 0.08 0.58 0 0.1 0.58 0 0 0.585 0 0.02 0.585 0 0.04 0.585 0 0.06 0.585 0 0.08 0.585 0 0.1 0.585 0 0 0.59 0 0.02 0.59 0 0.04 0.59 0 0.06 0.59 0 0.08 0.59 0 0.1 0.59 0 0 0.595 0 0.02 0.595 0 0.04 0.595 0 0.06 0.595 0 0.08 0.595 0 0.1 0.595 0 0 0.6 0 0.02 0.6 0 0.04 0.6 0 0.06 0.6 0 0.08 0.6 0 0.1 0.6 0 0 0.605 0 0.02 0.605 0 0.04 0.605 0 0.06 0.605 0 0.08 0.605 0 0.1 0.605 0 0 0.61 0 0.02 0.61 0 0.04 0.61 0 0.06 0.61 0 0.08 0.61 0 0.1 0.61 0 0 0.615 0 0.02 0.615 0 0.04 0.615 0 0.06 0.615 0 0.08 0.615 0 0.1 0.615 0 0 0.62 0 0.02 0.62 0 0.04 0.62 0 0.06 0.62 0 0.08 0.62 0 0.1 0.62 0 0 0.625 0 0.02 0.625 0 0.04 0.625 0 0.06 0.625 0 0.08 0.625 0 0.1 0.625 0 0 0.63 0 0.02 0.63 0 0.04 0.63 0 0.06 0.63 0 0.08 0.63 0 0.1 0.63 0 0 0.635 0 0.02 0.635 0 0.04 0.635 0 0.06 0.635 0 0.08 0.635 0 0.1 0.635 0 0 0.64 0 0.02 0.64 0 0.04 0.64 0 0.06 0.64 0 0.08 0.64 0 0.1 0.64 0 0 0.645 0 0.02 0.645 0 0.04 0.645 0 0.06 0.645 0 0.08 0.645 0 0.1 0.645 0 0 0.65 0 0.02 0.65 0 0.04 0.65 0 0.06 0.65 0 0.08 0.65 0 0.1 0.65 0 0 0.655 0 0.02 0.655 0 0.04 0.655 0 0.06 0.655 0 0.08 0.655 0 0.1 0.655 0 0 0.66 0 0.02 0.66 0 0.04 0.66 0 0.06 0.66 0 0.08 0.66 0 0.1 0.66 0 0 0.665 0 0.02 0.665 0 0.04 0.665 0 0.06 0.665 0 0.08 0.665 0 0.1 0.665 0 0 0.67 0 0.02 0.67 0 0.04 0.67 0 0.06 0.67 0 0.08 0.67 0 0.1 0.67 0 0 0.675 0 0.02 0.675 0 0.04 0.675 0 0.06 0.675 0 0.08 0.675 0 0.1 0.675 0 0 0.68 0 0.02 0.68 0 0.04 0.68 0 0.06 0.68 0 0.08 0.68 0 0.1 0.68 0 0 0.685 0 0.02 0.685 0 0.04 0.685 0 0.06 0.685 0 0.08 0.685 0 0.1 0.685 0 0 0.69 0 0.02 0.69 0 0.04 0.69 0 0.06 0.69 0 0.08 0.69 0 0.1 
[...]
			<PointData Scalars="VitesseX">
				<DataArray Name="VitesseX" type="Float32" format="ascii">
 0 2.68986e-14 1.60796e-14 3.868e-14 -3.19513e-16 0 0 2.01035e-14 2.45749e-14 3.0221e-14 5.48072e-15 0 0 1.04842e-14 3.3833e-14 2.13348e-14 1.4795e-14 0 0 1.69474e-14 1.44544e-14 4.48774e-14 5.63036e-15 0 0 1.28205e-14 1.77884e-14 4.25762e-14 1.45257e-14 0 0 -1.10159e-14 5.41368e-14 4.40091e-15 4.44222e-14 0 0 -3.55911e-15 3.22461e-14 2.69615e-14 3.23541e-14 0 0 5.59327e-15 2.72104e-15 5.96469e-14 7.0312e-15 0 0 -5.64431e-15 1.18273e-14 4.21731e-14 1.97132e-14 0 0 -1.6328e-14 2.19214e-14 2.68681e-14 3.05922e-14 0 0 -1.4962e-14 2.3101e-15 6.4815e-14 -4.31804e-15 0 0 -2.30915e-14 1.38391e-14 6.47992e-14 -1.0923e-14 0 0 2.27733e-14 -3.37432e-14 9.8582e-14 -2.55574e-14 0 0 3.25029e-14 -6.98554e-15 3.9133e-14 3.32677e-14 0 0 -4.45991e-15 8.10884e-14 -5.85584e-14 1.08058e-13 0 0 1.62962e-14 4.07155e-14 1.05702e-14 6.33292e-14 0 0 3.10177e-14 9.47969e-15 5.63837e-14 3.58734e-14 0 0 2.97834e-14 1.64595e-14 6.03862e-14 2.84032e-14 0 0 1.24415e-14 5.9219e-14 3.09411e-14 3.91895e-14 0 0 -1.07099e-15 9.30765e-14 4.30016e-15 4.40559e-14 0 0 8.02889e-15 7.41031e-14 4.5543e-14 4.2358e-15 0 0 4.78515e-14 3.86322e-15 1.1992e-13 -4.14689e-14 0 0 6.75746e-15 5.33516e-14 6.94681e-14 -1.78194e-14 0 0 -4.24665e-14 1.2734e-13 5.62225e-15 -1.93556e-14 0 0 1.85798e-14 3.80211e-14 8.45242e-14 -8.68257e-14 0 0 4.89717e-14 -1.22781e-14 1.09018e-13 -7.44289e-14 0 0 4.04085e-14 -3.62727e-15 6.57309e-14 -1.86468e-15 0 0 2.19907e-14 -1.13097e-14 1.02155e-13 -9.13472e-16 0 0 -2.88417e-14 4.42559e-14 8.68965e-14 2.26962e-14 0 0 -2.53541e-14 8.48474e-14 2.59165e-14 6.33312e-14 0 0 1.96094e-14 5.82979e-14 2.00242e-14 7.89237e-14 0 0 2.5564e-14 6.24074e-14 3.72958e-14 6.27432e-14 0 0 9.83014e-15 6.67939e-14 7.65301e-14 2.52348e-14 0 0 2.11276e-14 8.71581e-14 2.92066e-14 8.36536e-14 0 0 4.31675e-14 9.25739e-14 5.3505e-14 6.20991e-14 0 0 4.21469e-14 9.49085e-14 9.8512e-14 3.12823e-14 0 0 4.85661e-14 1.01946e-13 8.51536e-14 7.11998e-14 0 0 5.37819e-14 6.40696e-14 1.20077e-13 9.76902e-14 0 0 6.99341e-14 2.0978e-15 1.67914e-13 9.07849e-14 0 0 5.25187e-14 2.80563e-14 1.06827e-13 1.00821e-13 0 0 2.04662e-14 5.62264e-14 6.60433e-14 8.90412e-14 0 0 -9.7348e-15 4.73369e-14 9.85057e-14 3.96544e-14 0 0 -8.97929e-14 1.62414e-13 -6.66035e-15 6.22402e-14 0 0 -1.52257e-13 2.296e-13 -5.57071e-14 7.83545e-14 0 0 -8.14467e-14 1.02981e-13 1.03268e-13 -1.42572e-14 0 0 -4.2926e-14 1.30114e-15 2.83863e-13 -1.49708e-13 0 0 -7.82304e-14 2.96774e-14 3.04767e-13 -1.87825e-13 0 0 -7.84806e-14 5.12894e-14 3.09722e-13 -2.03061e-13 0 0 -1.14848e-13 1.2301e-13 2.30171e-13 -1.41076e-13 0 0 -1.62837e-13 2.47565e-13 2.62369e-14 1.00726e-14 0 0 -8.28942e-14 1.55875e-13 8.61801e-14 -2.6758e-15 0 0 1.08567e-14 2.36452e-14 2.32969e-13 -7.41605e-14 0 0 -1.59103e-13 3.10971e-13 -3.23755e-14 6.30428e-14 0 0 -1.91531e-13 3.90618e-13 -8.82042e-14 6.87938e-14 0 0 -2.5496e-14 1.40178e-13 1.95156e-13 -1.24972e-13 0 0 -1.09678e-15 1.04735e-13 2.23583e-13 -1.38101e-13 0 0 -2.58998e-14 1.12749e-13 2.0788e-13 -7.74742e-14 0 0 -7.92503e-14 1.81919e-13 1.41105e-13 4.42729e-15 0 0 -9.3748e-14 2.23314e-13 6.62214e-14 4.58608e-14 0 0 -3.3324e-14 9.7206e-14 2.00496e-13 -5.39928e-14 0 0 -4.11095e-14 7.75425e-14 2.45464e-13 -7.26578e-14 0 0 -4.64847e-15 1.10731e-13 1.24385e-13 6.82042e-14 0 0 1.3032e-14 1.61667e-13 8.10353e-14 1.39466e-13 0 0 -3.41249e-14 2.11715e-13 1.56602e-13 1.10214e-13 0 0 -1.1555e-13 2.94958e-13 1.47223e-13 1.28448e-13 0 0 -6.09035e-14 2.41837e-13 1.84127e-13 1.38016e-13 0 0 8.69174e-14 1.2658e-13 2.02764e-13 1.71636e-13 0 0 3.12263e-14 2.85623e-13 8.08635e-14 1.71788e-13 0 0 3.02202e-14 1.60292e-13 3.15036e-13 -3.84957e-15 0 0 -1.04808e-13 1.42468e-13 4.00962e-13 2.82928e-14 0 0 -3.01041e-13 3.53767e-13 2.42048e-13 1.94337e-13 0 0 -2.55051e-13 2.54102e-13 3.89914e-13 1.45551e-13 0 0 -1.48087e-13 6.00296e-14 6.35916e-13 1.1676e-14 0 0 8.76795e-15 -1.48471e-13 6.66099e-13 1.10289e-14 0 0 -1.05739e-13 8.71049e-14 3.13063e-13 1.52419e-13 0 0 -3.52297e-13 4.37712e-13 1.66968e-13 1.18227e-13 0 0 -1.75117e-13 1.17822e-13 5.45065e-13 -5.64944e-14 0 0 -5.21679e-14 -5.32081e-14 5.90957e-13 6.67805e-14 0 0 -1.29977e-13 1.18409e-13 4.95253e-13 1.29602e-13 0 0 -3.14191e-13 5.84127e-13 1.78313e-13 1.77771e-13 0 0 -6.65748e-14 4.33035e-13 2.81017e-13 1.50418e-14 0 0 4.1134e-13 -1.46663e-13 7.18855e-13 -3.31874e-13 0 0 3.78824e-13 5.22014e-14 3.30758e-13 1.73133e-14 0 0 2.29554e-13 4.15023e-13 -3.19688e-13 6.34107e-13 0 0 4.65971e-13 7.31077e-14 6.81299e-15 4.59479e-13 0 0 5.68438e-13 -4.52614e-13 8.26534e-13 -1.16557e-13 0 0 2.82423e-13 -2.48604e-13 8.98707e-13 -4.81222e-13 0 0 -2.50318e-13 4.14083e-13 5.13846e-13 -3.51227e-13 0 0 -3.20539e-13 7.99062e-13 -2.7486e-14 -6.86968e-14 0 0 -8.96056e-14 7.17347e-13 -1.87856e-13 1.75314e-13 0 0 2.63557e-13 4.5323e-13 -1.5001e-13 2.74172e-13 0 0 5.07889e-13 2.10583e-13 -1.21467e-13 3.85709e-13 0 0 6.8755e-13 2.27753e-14 -9.85911e-14 5.4637e-13 0 0 8.08255e-13 -3.09802e-14 -1.13889e-13 6.25138e-13 0 0 7.40662e-13 3.17084e-14 -1.35943e-13 6.12627e-13 0 0 5.58962e-13 1.59029e-13 -1.85561e-14 4.22398e-13 0 0 3.02149e-13 3.13031e-13 2.94629e-13 -4.395e-15 0 0 1.44745e-13 4.27892e-13 4.30762e-13 -1.98272e-13 0 0 9.6561e-14 4.49469e-13 4.10542e-13 -1.52949e-13 0 0 1.2511e-13 4.27721e-13 2.9418e-13 6.43545e-14 0 0 1.69549e-13 4.81523e-13 -4.42696e-14 4.41324e-13 0 0 1.0956e-13 6.9203e-13 -1.80124e-13 5.03485e-13 0 0 -1.63145e-14 8.06042e-13 -6.29445e-14 3.23392e-13 0 0 -7.34452e-14 7.92275e-13 2.19034e-13 -1.43224e-13 0 0 -5.48956e-14 6.58642e-13 6.05264e-13 -6.05757e-13 0 0 4.88126e-14 4.43643e-13 7.15457e-13 -6.92014e-13 0 0 2.17675e-13 3.43889e-13 6.71159e-13 -6.15648e-13 0 0 3.51307e-13 3.02776e-13 4.58843e-13 -2.97922e-13 0 0 3.76224e-13 2.82684e-13 3.59635e-13 -9.67431e-14 0 0 3.28882e-13 2.94026e-13 3.33097e-13 -4.7358e-14 0 0 2.33908e-13 2.89425e-13 3.80873e-13 -6.82814e-14 0 0 1.17036e-13 3.02032e-13 4.65955e-13 -8.01413e-14 0 0 -2.64945e-14 3.86491e-13 4.43604e-13 -3.37747e-14 0 0 -1.15421e-13 4.98984e-13 3.56309e-13 2.96442e-14 0 0 -1.168e-13 5.06659e-13 2.65436e-13 8.72541e-14 0 0 -7.20663e-14 4.86526e-13 1.92978e-13 1.33958e-13 0 0 -2.20181e-14 4.71711e-13 1.56419e-13 1.55109e-13 0 0 5.02399e-14 3.97417e-13 1.99755e-13 1.39252e-13 0 0 1.36622e-13 2.57771e-13 3.15824e-13 1.08938e-13 0 0 1.34734e-13 2.01302e-13 3.9124e-13 1.01572e-13 0 0 1.28224e-13 1.86892e-13 3.78671e-13 1.82274e-13 0 0 1.08692e-13 1.90407e-13 3.05291e-13 2.95891e-13 0 0 7.53843e-14 1.78903e-13 2.6577e-13 3.73781e-13 0 0 5.42985e-14 1.60696e-13 2.68517e-13 3.94211e-13 0 0 6.40637e-14 1.07874e-13 3.23547e-13 3.52324e-13 0 0 7.68529e-14 8.05839e-14 3.26386e-13 3.29296e-13 0 0 1.07715e-13 1.13783e-13 2.58194e-13 3.29653e-13 0 0 1.11467e-13 1.53342e-13 2.15885e-13 3.05254e-13 0 0 1.14395e-13 1.75974e-13 2.08354e-13 2.01476e-13 0 0 1.29632e-13 1.77804e-13 2.05343e-13 1.00458e-13 0 0 1.23083e-13 1.76654e-13 2.68687e-13 2.45307e-14 0 0 1.15324e-13 1.77806e-13 2.78029e-13 4.30657e-14 0 0 1.07855e-13 2.04497e-13 2.25009e-13 6.44127e-14 0 0 1.24461e-13 1.7753e-13 2.80781e-13 1.00019e-14 0 0 1.38082e-13 1.44528e-13 3.81871e-13 5.88527e-14 0 0 1.1514e-13 1.85983e-13 3.86705e-13 1.33618e-13 0 0 1.3156e-13 2.98431e-13 2.65747e-13 1.65234e-13 0 0 2.21046e-13 2.72684e-13 3.02738e-13 5.518e-14 0 0 1.98573e-13 3.10605e-13 3.58621e-13 8.04114e-14 0 0 1.91912e-13 4.0796e-13 2.99211e-13 2.01502e-13 0 0 2.41196e-13 3.69188e-13 3.83803e-13 1.50818e-13 0 0 1.87986e-13 4.51659e-13 3.70794e-13 9.44706e-14 0 0 1.82787e-13 4.45101e-13 4.2352e-13 -2.2465e-14 0 0 1.64011e-13 4.69694e-13 3.54917e-13 1.1385e-13 0 0 2.03493e-13 4.3272e-13 2.91853e-13 2.87106e-13 0 0 2.92864e-13 2.63511e-13 4.90092e-13 1.63185e-13 0 0 1.73384e-13 4.03233e-13 4.19955e-13 1.92186e-13 0 0 1.24045e-13 4.86917e-13 3.04641e-13 3.15523e-13 0 0 1.72267e-13 4.11108e-13 4.23136e-13 2.11204e-13 0 0 1.66956e-13 4.09041e-13 5.27687e-13 1.10428e-13 0 0 2.71097e-13 2.65896e-13 7.07606e-13 3.79148e-14 0 0 1.86727e-13 4.53405e-13 5.06657e-13 2.34874e-13 0 0 1.20163e-13 6.02569e-13 3.36088e-13 4.37697e-13 0 0 2.04516e-13 5.06989e-13 4.35198e-13 4.4133e-13 0 0 2.58039e-13 4.62135e-13 4.72399e-13 4.50821e-13 0 0 3.23085e-13 4.46157e-13 4.94199e-13 4.05293e-13 0 0 3.1891e-13 5.66035e-13 4.0189e-13 3.94561e-13 0 0 3.46037e-13 6.42365e-13 3.67478e-13 3.93777e-13 0 0 4.37158e-13 6.63219e-13 4.14887e-13 3.03885e-13 0 0 6.4603e-13 4.42441e-13 6.83425e-13 7.88314e-14 0 0 5.76671e-13 5.59978e-13 6.79288e-13 2.38744e-14 0 0 2.43455e-13 1.1748e-12 1.36947e-13 2.71216e-13 0 0 2.43907e-13 1.25084e-12 1.09741e-13 3.03166e-13 0 0 4.37111e-13 9.91199e-13 3.85037e-13 1.95379e-13 0 0 7.71334e-13 5.85811e-13 7.00994e-13 -2.91147e-14 0 0 9.24901e-13 4.72287e-13 6.77411e-13 1.3377e-13 0 0 6.40189e-13 8.86263e-13 2.29974e-13 5.53189e-13 0 0 3.89972e-13 1.01487e-12 3.34611e-13 4.01333e-13 0 0 2.89653e-13 1.08016e-12 2.73294e-13 4.92229e-13 0 0 5.45917e-13 7.88483e-13 4.77499e-13 4.06219e-13 0 0 6.72457e-13 6.10471e-13 7.03553e-13 1.95386e-13 0 0 4.85734e-13 8.93208e-13 4.14637e-13 3.50127e-13 0 0 4.95424e-13 7.05926e-13 6.84369e-13 2.2441e-13 0 0 3.33528e-13 8.23465e-13 7.39941e-13 1.0325e-13 0 0 3.48003e-13 8.60694e-13 6.62998e-13 1.46367e-13 0 0 5.96161e-13 4.78591e-13 8.94246e-13 3.20694e-13 0 0 5.66472e-13 5.34918e-13 8.32538e-13 5.10244e-13 0 0 5.24076e-13 5.57467e-13 9.11051e-13 2.51462e-13 0 0 2.55484e-13 8.07898e-13 7.66095e-13 2.77629e-13 0 0 3.64075e-13 7.13394e-13 5.99069e-13 5.68626e-13 0 0 4.03045e-13 7.58202e-13 5.12491e-13 5.35926e-13 0 0 4.42476e-13 6.4224e-13 7.77885e-13 2.4629e-13 0 0 8.44156e-13 1.06556e-13 1.04771e-12 2.21923e-13 0 0 4.99347e-13 6.154e-13 4.89268e-13 5.56294e-13 0 0 3.98283e-13 7.66548e-13 4.05285e-13 4.13857e-13 0 0 5.71797e-13 3.98643e-13 8.17745e-13 1.51204e-13 0 0 3.48951e-13 5.83784e-13 6.87435e-13 3.30524e-13 0 0 3.85682e-13 5.35807e-13 5.73953e-13 4.94948e-13 0 0 4.81843e-13 4.68658e-13 5.52138e-13 5.00362e-13 0 0 4.34479e-13 5.25065e-13 5.44196e-13 4.6221e-13 0 0 2.96194e-13 5.00055e-13 7.20194e-13 3.27614e-13 0 0 3.44064e-13 3.89582e-13 8.91244e-13 1.5505e-13 0 0 5.58737e-13 2.60177e-13 9.44803e-13 2.76092e-14 0 0 2.5227e-13 8.68627e-13 2.66034e-13 3.54218e-13 0 0 1.8748e-13 8.86356e-13 2.09898e-13 4.62423e-13 0 0 3.72529e-13 3.28401e-13 8.05093e-13 1.53543e-13 0 0 1.99253e-13 4.43952e-13 6.67713e-13 2.12941e-13 0 0 -6.23823e-14 8.7796e-13 2.28491e-13 4.28285e-13 0 0 2.7723e-14 7.59422e-13 4.18861e-13 3.62445e-13 0 0 4.57376e-13 -6.41067e-14 1.46568e-12 -2.47142e-13 0 0 6.61593e-13 -5.46584e-13 2.15015e-12 -7.33809e-13 0
				</DataArray>
				<DataArray Name="VitesseY" type="Float32" format="ascii">