<?xml version="1.0"?>
<VTKFile type="PolyData">
	<PolyData>
		<Piece NumberOfPoints="1206" NumberOfPolys="1000">
			<Points>
				<DataArray type="Float32" NumberOfComponents="3" format="ascii">
 0 0 0 0.02 0 0 0.04 0 0 0.06 0 0 0.08 0 0 0.1 0 0 0 0.005 0 0.02 0.005 0 0.04 0.005 0 0.06 0.005 0 0.08 0.005 0 0.1 0.005 0 0 0.01 0 0.02 0.01 0 0.04 0.01 0 0.06 0.01 0 0.08 0.01 0 0.1 0.01 0 0 0.015 0 0.02 0.015 0 0.04 0.015 0 0.06 0.015 0 0.08 0.015 0 0.1 0.015 0 0 0.02 0 0.02 0.02 0 0.04 0.02 0 0.06 0.02 0 0.08 0.02 0 0.1 0.02 0 0 0.025 0 0.02 0.025 0 0.04 0.025 0 0.06 0.025 0 0.08 0.025 0 0.1 0.025 0 0 0.03 0 0.02 0.03 0 0.04 0.03 0 0.06 0.03 0 0.08 0.03 0 0.1 0.03 0 0 0.035 0 0.02 0.035 0 0.04 0.035 0 0.06 0.035 0 0.08 0.035 0 0.1 0.035 0 0 0.04 0 0.02 0.04 0 0.04 0.04 0 0.06 0.04 0 0.08 0.04 0 0.1 0.04 0 0 0.045 0 0.02 0.045 0 0.04 0.045 0 0.06 0.045 0 0.08 0.045 0 0.1 0.045 0 0 0.05 0 0.02 0.05 0 0.04 0.05 0 0.06 0.05 0 0.08 0.05 0 0.1 0.05 0 0 0.055 0 0.02 0.055 0 0.04 0.055 0 0.06 0.055 0 0.08 0.055 0 0.1 0.055 0 0 0.06 0 0.02 0.06 0 0.04 0.06 0 0.06 0.06 0 0.08 0.06 0 0.1 0.06 0 0 0.065 0 0.02 0.065 0 0.04 0.065 0 0.06 0.065 0 0.08 0.065 0 0.1 0.065 0 0 0.07 0 0.02 0.07 0 0.04 0.07 0 0.06 0.07 0 0.08 0.07 0 0.1 0.07 0 0 0.075 0 0.02 0.075 0 0.04 0.075 0 0.06 0.075 0 0.08 0.075 0 0.1 0.075 0 0 0.08 0 0.02 0.08 0 0.04 0.08 0 0.06 0.08 0 0.08 0.08 0 0.1 0.08 0 0 0.085 0 0.02 0.085 0 0.04 0.085 0 0.06 0.085 0 0.08 0.085 0 0.1 0.085 0 0 0.09 0 0.02 0.09 0 0.04 0.09 0 0.06 0.09 0 0.08 0.09 0 0.1 0.09 0 0 0.095 0 0.02 0.095 0 0.04 0.095 0 0.06 0.095 0 0.08 0.095 0 0.1 0.095 0 0 0.1 0 0.02 0.1 0 0.04 0.1 0 0.06 0.1 0 0.08 0.1 0 0.1 0.1 0 0 0.105 0 0.02 0.105 0 0.04 0.105 0 0.06 0.105 0 0.08 0.105 0 0.1 0.105 0 0 0.11 0 0.02 0.11 0 0.04 0.11 0 0.06 0.11 0 0.08 0.11 0 0.1 0.11 0 0 0.115 0 0.02 0.115 0 0.04 0.115 0 0.06 0.115 0 0.08 0.115 0 0.1 0.115 0 0 0.12 0 0.02 0.12 0 0.04 0.12 0 0.06 0.12 0 0.08 0.12 0 0.1 0.12 0 0 0.125 0 0.02 0.125 0 0.04 0.125 0 0.06 0.125 0 0.08 0.125 0 0.1 0.125 0 0 0.13 0 0.02 0.13 0 0.04 0.13 0 0.06 0.13 0 0.08 0.13 0 0.1 0.13 0 0 0.135 0 0.02 0.135 0 0.04 0.135 0 0.06 0.135 0 0.08 0.135 0 0.1 0.135 0 0 0.14 0 0.02 0.14 0 0.04 0.14 0 0.06 0.14 0 0.08 0.14 0 0.1 0.14 0 0 0.145 0 0.02 0.145 0 0.04 0.145 0 0.06 0.145 0 0.08 0.145 0 0.1 0.145 0 0 0.15 0 0.02 0.15 0 0.04 0.15 0 0.06 0.15 0 0.08 0.15 0 0.1 0.15 0 0 0.155 0 0.02 0.155 0 0.04 0.155 0 0.06 0.155 0 0.08 0.155 0 0.1 0.155 0 0 0.16 0 0.02 0.16 0 0.04 0.16 0 0.06 0.16 0 0.08 0.16 0 0.1 0.16 0 0 0.165 0 0.02 0.165 0 0.04 0.165 0 0.06 0.165 0 0.08 0.165 0 0.1 0.165 0 0 0.17 0 0.02 0.17 0 0.04 0.17 0 0.06 0.17 0 0.08 0.17 0 0.1 0.17 0 0 0.175 0 0.02 0.175 0 0.04 0.175 0 0.06 0.175 0 0.08 0.175 0 0.1 0.175 0 0 0.18 0 0.02 0.18 0 0.04 0.18 0 0.06 0.18 0 0.08 0.18 0 0.1 0.18 0 0 0.185 0 0.02 0.185 0 0.04 0.185 0 0.06 0.185 0 0.08 0.185 0 0.1 0.185 0 0 0.19 0 0.02 0.19 0 0.04 0.19 0 0.06 0.19 0 0.08 0.19 0 0.1 0.19 0 0 0.195 0 0.02 0.195 0 0.04 0.195 0 0.06 0.195 0 0.08 0.195 0 0.1 0.195 0 0 0.2 0 0.02 0.2 0 0.04 0.2 0 0.06 0.2 0 0.08 0.2 0 0.1 0.2 0 0 0.205 0 0.02 0.205 0 0.04 0.205 0 0.06 0.205 0 0.08 0.205 0 0.1 0.205 0 0 0.21 0 0.02 0.21 0 0.04 0.21 0 0.06 0.21 0 0.08 0.21 0 0.1 0.21 0 0 0.215 0 0.02 0.215 0 0.04 0.215 0 0.06 0.215 0 0.08 0.215 0 0.1 0.215 0 0 0.22 0 0.02 0.22 0 0.04 0.22 0 0.06 0.22 0 0.08 0.22 0 0.1 0.22 0 0 0.225 0 0.02 0.225 0 0.04 0.225 0 0.06 0.225 0 0.08 0.225 0 0.1 0.225 0 0 0.23 0 0.02 0.23 0 0.04 0.23 0 0.06 0.23 0 0.08 0.23 0 0.1 0.23 0 0 0.235 0 0.02 0.235 0 0.04 0.235 0 0.06 0.235 0 0.08 0.235 0 0.1 0.235 0 0 0.24 0 0.02 0.24 0 0.04 0.24 0 0.06 0.24 0 0.08 0.24 0 0.1 0.24 0 0 0.245 0 0.02 0.245 0 0.04 0.245 0 0.06 0.245 0 0.08 0.245 0 0.1 0.245 0 0 0.25 0 0.02 0.25 0 0.04 0.25 0 0.06 0.25 0 0.08 0.25 0 0.1 0.25 0 0 0.255 0 0.02 0.255 0 0.04 0.255 0 0.06 0.255 0 0.08 0.255 0 0.1 0.255 0 0 0.26 0 0.02 0.26 0 0.04 0.26 0 0.06 0.26 0 0.08 0.26 0 0.1 0.26 0 0 0.265 0 0.02 0.265 0 0.04 0.265 0 0.06 0.265 0 0.08 0.265 0 0.1 0.265 0 0 0.27 0 0.02 0.27 0 0.04 0.27 0 0.06 0.27 0 0.08 0.27 0 0.1 0.27 0 0 0.275 0 0.02 0.275 0 0.04 0.275 0 0.06 0.275 0 0.08 0.275 0 0.1 0.275 0 0 0.28 0 0.02 0.28 0 0.04 0.28 0 0.06 0.28 0 0.08 0.28 0 0.1 0.28 0 0 0.285 0 0.02 0.285 0 0.04 0.285 0 0.06 0.285 0 0.08 0.285 0 0.1 0.285 0 0 0.29 0 0.02 0.29 0 0.04 0.29 0 0.06 0.29 0 0.08 0.29 0 0.1 0.29 0 0 0.295 0 0.02 0.295 0 0.04 0.295 0 0.06 0.295 0 0.08 0.295 0 0.1 0.295 0 0 0.3 0 0.02 0.3 0 0.04 0.3 0 0.06 0.3 0 0.08 0.3 0 0.1 0.3 0 0 0.305 0 0.02 0.305 0 0.04 0.305 0 0.06 0.305 0 0.08 0.305 0 0.1 0.305 0 0 0.31 0 0.02 0.31 0 0.04 0.31 0 0.06 0.31 0 0.08 0.31 0 0.1 0.31 0 0 0.315 0 0.02 0.315 0 0.04 0.315 0 0.06 0.315 0 0.08 0.315 0 0.1 0.315 0 0 0.32 0 0.02 0.32 0 0.04 0.32 0 0.06 0.32 0 0.08 0.32 0 0.1 0.32 0 0 0.325 0 0.02 0.325 0 0.04 0.325 0 0.06 0.325 0 0.08 0.325 0 0.1 0.325 0 0 0.33 0 0.02 0.33 0 0.04 0.33 0 0.06 0.33 0 0.08 0.33 0 0.1 0.33 0 0 0.335 0 0.02 0.335 0 0.04 0.335 0 0.06 0.335 0 0.08 0.335 0 0.1 0.335 0 0 0.34 0 0.02 0.34 0 0.04 0.34 0 0.06 0.34 0 0.08 0.34 0 0.1 0.34 0 0 0.345 0 0.02 0.345 0 0.04 0.345 0 0.06 0.345 0 0.08 0.345 0 0.1 0.345 0 0 0.35 0 0.02 0.35 0 0.04 0.35 0 0.06 0.35 0 0.08 0.35 0 0.1 0.35 0 0 0.355 0 0.02 0.355 0 0.04 0.355 0 0.06 0.355 0 0.08 0.355 0 0.1 0.355 0 0 0.36 0 0.02 0.36 0 0.04 0.36 0 0.06 0.36 0 0.08 0.36 0 0.1 0.36 0 0 0.365 0 0.02 0.365 0 0.04 0.365 0 0.06 0.365 0 0.08 0.365 0 0.1 0.365 0 0 0.37 0 0.02 0.37 0 0.04 0.37 0 0.06 0.37 0 0.08 0.37 0 0.1 0.37 0 0 0.375 0 0.02 0.375 0 0.04 0.375 0 0.06 0.375 0 0.08 0.375 0 0.1 0.375 0 0 0.38 0 0.02 0.38 0 0.04 0.38 0 0.06 0.38 0 0.08 0.38 0 0.1 0.38 0 0 0.385 0 0.02 0.385 0 0.04 0.385 0 0.06 0.385 0 0.08 0.385 0 0.1 0.385 0 0 0.39 0 0.02 0.39 0 0.04 0.39 0 0.06 0.39 0 0.08 0.39 0 0.1 0.39 0 0 0.395 0 0.02 0.395 0 0.04 0.395 0 0.06 0.395 0 0.08 0.395 0 0.1 0.395 0 0 0.4 0 0.02 0.4 0 0.04 0.4 0 0.06 0.4 0 0.08 0.4 0 0.1 0.4 0 0 0.405 0 0.02 0.405 0 0.04 0.405 0 0.06 0.405 0 0.08 0.405 0 0.1 0.405 0 0 0.41 0 0.02 0.41 0 0.04 0.41 0 0.06 0.41 0 0.08 0.41 0 0.1 0.41 0 0 0.415 0 0.02 0.415 0 0.04 0.415 0 0.06 0.415 0 0.08 0.415 0 0.1 0.415 0 0 0.42 0 0.02 0.42 0 0.04 0.42 0 0.06 0.42 0 0.08 0.42 0 0.1 0.42 0 0 0.425 0 0.02 0.425 0 0.04 0.425 0 0.06 0.425 0 0.08 0.425 0 0.1 0.425 0 0 0.43 0 0.02 0.43 0 0.04 0.43 0 0.06 0.43 0 0.08 0.43 0 0.1 0.43 0 0 0.435 0 0.02 0.435 0 0.04 0.435 0 0.06 0.435 0 0.08 0.435 0 0.1 0.435 0 0 0.44 0 0.02 0.44 0 0.04 0.44 0 0.06 0.44 0 0.08 0.44 0 0.1 0.44 0 0 0.445 0 0.02 0.445 0 0.04 0.445 0 0.06 0.445 0 0.08 0.445 0 0.1 0.445 0 0 0.45 0 0.02 0.45 0 0.04 0.45 0 0.06 0.45 0 0.08 0.45 0 0.1 0.45 0 0 0.455 0 0.02 0.455 0 0.04 0.455 0 0.06 0.455 0 0.08 0.455 0 0.1 0.455 0 0 0.46 0 0.02 0.46 0 0.04 0.46 0 0.06 0.46 0 0.08 0.46 0 0.1 0.46 0 0 0.465 0 0.02 0.465 0 0.04 0.465 0 0.06 0.465 0 0.08 0.465 0 0.1 0.465 0 0 0.47 0 0.02 0.47 0 0.04 0.47 0 0.06 0.47 0 0.08 0.47 0 0.1 0.47 0 0 0.475 0 0.02 0.475 0 0.04 0.475 0 0.06 0.475 0 0.08 0.475 0 0.1 0.475 0 0 0.48 0 0.02 0.48 0 0.04 0.48 0 0.06 0.48 0 0.08 0.48 0 0.1 0.48 0 0 0.485 0 0.02 0.485 0 0.04 0.485 0 0.06 0.485 0 0.08 0.485 0 0.1 0.485 0 0 0.49 0 0.02 0.49 0 0.04 0.49 0 0.06 0.49 0 0.08 0.49 0 0.1 0.49 0 0 0.495 0 0.02 0.495 0 0.04 0.495 0 0.06 0.495 0 0.08 0.495 0 0.1 0.495 0 0 0.5 0 0.02 0.5 0 0.04 0.5 0 0.06 0.5 0 0.08 0.5 0 0.1 0.5 0 0 0.505 0 0.02 0.505 0 0.04 0.505 0 0.06 0.505 0 0.08 0.505 0 0.1 0.505 0 0 0.51 0 0.02 0.51 0 0.04 0.51 0 0.06 0.51 0 0.08 0.51 0 0.1 0.51 0 0 0.515 0 0.02 0.515 0 0.04 0.515 0 0.06 0.515 0 0.08 0.515 0 0.1 0.515 0 0 0.52 0 0.02 0.52 0 0.04 0.52 0 0.06 0.52 0 0.08 0.52 0 0.1 0.52 0 0 0.525 0 0.02 0.525 0 0.04 0.525 0 0.06 0.525 0 0.08 0.525 0 0.1 0.525 0 0 0.53 0 0.02 0.53 0 0.04 0.53 0 0.06 0.53 0 0.08 0.53 0 0.1 0.53 0 0 0.535 0 0.02 0.535 0 0.04 0.535 0 0.06 0.535 0 0.08 0.535 0 0.1 0.535 0 0 0.54 0 0.02 0.54 0 0.04 0.54 0 0.06 0.54 0 0.08 0.54 0 0.1 0.54 0 0 0.545 0 0.02 0.545 0 0.04 0.545 0 0.06 0.545 0 0.08 0.545 0 0.1 0.545 0 0 0.55 0 0.02 0.55 0 0.04 0.55 0 0.06 0.55 0 0.08 0.55 0 0.1 0.55 0 0 0.555 0 0.02 0.555 0 0.04 0.555 0 0.06 0.555 0 0.08 0.555 0 0.1 0.555 0 0 0.56 0 0.02 0.56 0 0.04 0.56 0 0.06 0.56 0 0.08 0.56 0 0.1 0.56 0 0 0.565 0 0.02 0.565 0 0.04 0.565 0 0.06 0.565 0 0.08 0.565 0 0.1 0.565 0 0 0.57 0 0.02 0.57 0 0.04 0.57 0 0.06 0.57 0 0.08 0.57 0 0.1 0.57 0 0 0.575 0 0.02 0.575 0 0.04 0.575 0 0.06 0.575 0 0.08 0.575 0 0.1 0.575 0 0 0.58 0 0.02 0.58 0 0.04 0.58 0 0.06 0.58 0 0.08 0.58 0 0.1 0.58 0 0 0.585 0 0.02 0.585 0 0.04 0.585 0 0.06 0.585 0 0.08 0.585 0 0.1 0.585 0 0 0.59 0 0.02 0.59 0 0.04 0.59 0 0.06 0.59 0 0.08 0.59 0 0.1 0.59 0 0 0.595 0 0.02 0.595 0 0.04 0.595 0 0.06 0.595 0 0.08 0.595 0 0.1 0.595 0 0 0.6 0 0.02 0.6 0 0.04 0.6 0 0.06 0.6 0 0.08 0.6 0 0.1 0.6 0 0 0.605 0 0.02 0.605 0 0.04 0.605 0 0.06 0.605 0 0.08 0.605 0 0.1 0.605 0 0 0.61 0 0.02 0.61 0 0.04 0.61 0 0.06 0.61 0 0.08 0.61 0 0.1 0.61 0 0 0.615 0 0.02 0.615 0 0.04 0.615 0 0.06 0.615 0 0.08 0.615 0 0.1 0.615 0 0 0.62 0 0.02 0.62 0 0.04 0.62 0 0.06 0.62 0 0.08 0.62 0 0.1 0.62 0 0 0.625 0 0.02 0.625 0 0.04 0.625 0 0.06 0.625 0 0.08 0.625 0 0.1 0.625 0 0 0.63 0 0.02 0.63 0 0.04 0.63 0 0.06 0.63 0 0.08 0.63 0 0.1 0.63 0 0 0.635 0 0.02 0.635 0 0.04 0.635 0 0.06 0.635 0 0.08 0.635 0 0.1 0.635 0 0 0.64 0 0.02 0.64 0 0.04 0.64 0 0.06 0.64 0 0.08 0.64 0 0.1 0.64 0 0 0.645 0 0.02 0.645 0 0.04 0.645 0 0.06 0.645 0 0.08 0.645 0 0.1 0.645 0 0 0.65 0 0.02 0.65 0 0.04 0.65 0 0.06 0.65 0 0.08 0.65 0 0.1 0.65 0 0 0.655 0 0.02 0.655 0 0.04 0.655 0 0.06 0.655 0 0.08 0.655 0 0.1 0.655 0 0 0.66 0 0.02 0.66 0 0.04 0.66 0 0.06 0.66 0 0.08 0.66 0 0.1 0.66 0 0 0.665 0 0.02 0.665 0 0.04 0.665 0 0.06 0.665 0 0.08 0.665 0 0.1 0.665 0 0 0.67 0 0.02 0.67 0 0.04 0.67 0 0.06 0.67 0 0.08 0.67 0 0.1 0.67 0 0 0.675 0 0.02 0.675 0 0.04 0.675 0 0.06 0.675 0 0.08 0.675 0 0.1 0.675 0 0 0.68 0 0.02 0.68 0 0.04 0.68 0 0.06 0.68 0 0.08 0.68 0 0.1 0.68 0 0 0.685 0 0.02 0.685 0 0.04 0.685 0 0.06 0.685 0 0.08 0.685 0 0.1 0.685 0 0 0.69 0 0.02 0.69 0 0.04 0.69 0 0.06 0.69 0 0.08 0.69 0 0.1 
[...]
			<PointData Scalars="VitesseX">
				<DataArray Name="VitesseX" type="Float32" format="ascii">
 0 -3.1198e-14 6.06525e-15 8.76644e-15 -2.2976e-14 0 0 -2.22284e-14 -7.16243e-15 2.11194e-14 -3.19534e-14 0 0 -2.06019e-14 -1.4888e-15 8.369e-15 -2.59068e-14 0 0 -9.77283e-15 -4.5466e-15 -7.11743e-15 -1.08414e-14 0 0 1.6074e-14 -4.18072e-14 1.43075e-14 -8.94833e-15 0 0 9.32891e-15 -3.61852e-14 1.27519e-14 6.2812e-15 0 0 -3.32234e-14 2.45334e-14 -2.25443e-14 3.36347e-14 0 0 -5.71228e-14 5.57065e-14 -2.23605e-14 3.27436e-14 0 0 -3.38186e-14 2.64995e-14 1.44519e-14 2.00886e-14 0 0 7.92912e-15 -2.67836e-14 6.78357e-14 -6.72299e-15 0 0 3.344e-14 -5.52852e-14 9.64338e-14 -2.89194e-14 0 0 8.24144e-15 7.49323e-16 3.04776e-14 1.08379e-14 0 0 9.73868e-16 2.10762e-14 6.94671e-15 2.52595e-14 0 0 8.28175e-15 -1.32451e-15 2.38413e-14 1.97339e-14 0 0 2.26285e-14 -3.433e-14 3.28698e-14 1.02528e-14 0 0 3.35797e-14 -4.61031e-14 3.0198e-14 -9.79081e-15 0 0 6.27744e-15 6.80485e-15 -2.094e-14 -1.05079e-14 0 0 5.54019e-14 -5.54602e-14 1.49317e-14 -2.83407e-14 0 0 8.83435e-14 -1.11118e-13 7.98154e-14 -6.44128e-14 0 0 4.51357e-15 -5.32488e-15 3.09386e-14 -7.44178e-14 0 0 -6.83955e-14 8.92748e-14 -4.13474e-14 -5.03902e-14 0 0 -5.67286e-14 7.20289e-14 -4.07428e-14 -4.86864e-14 0 0 8.10723e-15 -4.16421e-14 4.34718e-14 -8.42152e-14 0 0 2.08212e-15 -5.22773e-14 3.22522e-14 -5.24593e-14 0 0 -8.71732e-14 4.01658e-14 -3.83922e-14 -7.6523e-15 0 0 -1.2125e-13 5.06462e-14 -4.42758e-14 1.73594e-15 0 0 -8.99526e-14 2.56522e-14 -6.37199e-14 3.94263e-14 0 0 -3.18297e-14 -5.37839e-14 -4.16932e-15 2.14766e-14 0 0 -6.8349e-14 -7.97885e-15 -4.38546e-14 4.77819e-14 0 0 -1.15087e-13 6.93398e-14 -8.68339e-14 4.6711e-14 0 0 -1.23334e-13 9.57771e-14 -9.19611e-14 3.18327e-14 0 0 -7.1666e-14 1.26912e-14 -2.71307e-14 2.77313e-14 0 0 -3.98743e-15 -9.68234e-14 9.88066e-14 -2.81313e-14 0 0 -2.758e-14 -5.50354e-14 1.22222e-13 -8.42248e-14 0 0 -1.11715e-13 8.97134e-14 -6.66506e-15 -1.6574e-14 0 0 -1.61858e-13 1.98168e-13 -1.13198e-13 6.32895e-15 0 0 -2.81422e-14 3.12852e-14 1.32762e-14 -8.35048e-14 0 0 4.72934e-14 -1.15862e-13 1.34443e-13 -9.74033e-14 0 0 4.36413e-14 -1.72709e-13 2.33015e-13 -1.624e-13 0 0 -5.48996e-14 -3.11604e-14 9.48628e-14 -9.8807e-14 0 0 -1.31364e-13 1.22795e-13 -7.92561e-14 -1.63911e-14 0 0 -5.82194e-14 3.66128e-14 8.0659e-15 -9.13099e-14 0 0 -9.12535e-14 3.5237e-14 2.10513e-14 -7.53193e-14 0 0 -2.53131e-13 2.13329e-13 -1.50332e-13 7.64166e-14 0 0 -2.31561e-13 1.44123e-13 -1.11151e-13 5.99715e-14 0 0 -8.48542e-14 -6.96421e-14 6.72038e-14 -9.13689e-14 0 0 6.94329e-14 -2.48653e-13 1.98116e-13 -1.94377e-13 0 0 7.69479e-14 -1.96888e-13 1.19863e-13 -1.83351e-13 0 0 -8.65694e-14 6.33634e-14 -4.13756e-14 -1.75646e-13 0 0 -2.93415e-13 3.57084e-13 -1.75663e-13 -1.86801e-13 0 0 -3.98903e-13 5.70948e-13 -3.59854e-13 -7.3979e-14 0 0 -9.58934e-14 2.44961e-13 -2.24938e-13 -5.2313e-14 0 0 1.27528e-13 -4.0585e-14 -2.62059e-14 -1.90764e-13 0 0 8.84004e-14 -3.65498e-14 6.29017e-14 -3.52844e-13 0 0 -1.27738e-13 1.31649e-13 -1.88284e-14 -3.34917e-13 0 0 -2.9886e-13 2.7252e-13 -1.49169e-13 -2.49317e-13 0 0 -9.27684e-14 -5.20424e-15 1.23265e-14 -2.97666e-13 0 0 -6.63642e-14 7.6388e-14 -1.98811e-13 -1.16706e-13 0 0 -6.83913e-14 1.43864e-13 -3.24591e-13 -2.22666e-14 0 0 -9.19393e-14 8.38343e-14 -1.77541e-13 -1.59631e-13 0 0 -1.49188e-13 5.72546e-14 -8.32624e-14 -2.32452e-13 0 0 3.8541e-14 -2.62458e-13 1.56306e-13 -3.37908e-13 0 0 -1.80889e-14 -8.14485e-14 -1.57392e-13 -1.32564e-13 0 0 -1.11662e-13 1.72653e-13 -4.97414e-13 1.01036e-13 0 0 -4.45881e-14 6.99108e-14 -3.99965e-13 1.34875e-13 0 0 -3.19935e-14 -6.37444e-14 -1.53156e-13 5.97675e-14 0 0 1.72119e-14 -2.34418e-13 2.32444e-13 -1.99921e-13 0 0 -9.20282e-14 -7.52113e-14 2.3601e-13 -2.54737e-13 0 0 -2.38602e-13 2.58691e-13 -1.76577e-13 6.14605e-14 0 0 -8.42242e-14 1.31305e-13 -1.64075e-13 1.36088e-13 0 0 -9.87227e-15 -4.0248e-15 3.89761e-14 -7.99508e-15 0 0 -3.65733e-14 4.24464e-14 1.02977e-13 -2.0502e-13 0 0 -1.99115e-13 3.26522e-13 -6.23237e-14 -3.30295e-13 0 0 -1.59149e-13 3.4612e-13 -1.25366e-13 -3.51626e-13 0 0 4.06428e-14 1.1203e-13 8.96128e-15 -3.643e-13 0 0 1.337e-13 -3.71933e-14 1.17492e-13 -3.13327e-13 0 0 1.87798e-14 1.00415e-13 2.2366e-14 -2.35905e-13 0 0 -2.19027e-13 4.43224e-13 -1.84545e-13 -2.07563e-13 0 0 1.3505e-14 2.08206e-13 2.69939e-14 -2.91687e-13 0 0 5.83434e-14 2.03721e-13 -2.30552e-14 -1.65111e-13 0 0 3.13437e-14 2.15045e-13 -8.02062e-14 -2.65746e-14 0 0 2.42296e-13 -1.97063e-13 2.79752e-13 -1.33202e-13 0 0 3.20938e-14 -1.58269e-13 4.14552e-13 -2.62606e-13 0 0 -7.69284e-14 -1.25747e-13 3.06871e-13 -3.85398e-14 0 0 -6.89201e-14 -2.11721e-14 -6.28026e-14 4.18002e-13 0 0 -9.35542e-14 7.90318e-15 -1.27858e-13 4.26735e-13 0 0 3.8886e-13 -5.93224e-13 2.00703e-13 2.19784e-13 0 0 1.22647e-13 -4.28442e-13 3.47821e-14 3.28452e-13 0 0 -7.92815e-13 3.22606e-13 -2.58377e-13 3.59935e-13 0 0 -4.19576e-13 9.71805e-16 -1.88385e-13 6.15603e-13 0 0 1.9338e-13 -6.1395e-13 8.73598e-14 7.58707e-13 0 0 2.34652e-13 -6.07848e-13 1.71331e-13 5.8643e-13 0 0 -1.32892e-13 -1.72334e-13 1.05638e-13 3.07874e-13 0 0 -9.72981e-13 6.10823e-13 9.38905e-14 -9.84737e-14 0 0 -1.0035e-12 6.02281e-13 5.93148e-14 -1.8756e-13 0 0 -2.36094e-13 -3.49878e-14 2.6073e-13 -1.59855e-13 0 0 3.91993e-13 -3.30627e-13 3.25828e-13 -1.65122e-13 0 0 2.92196e-13 -1.56802e-13 9.68316e-14 -1.08126e-13 0 0 2.68641e-13 -3.27847e-13 -5.77374e-14 8.378e-14 0 0 1.31166e-13 -3.88139e-13 -3.69813e-14 1.7185e-13 0 0 -2.61856e-13 -1.28885e-13 -5.83769e-14 6.23014e-14 0 0 -4.49556e-13 2.30675e-13 -2.03363e-13 8.55405e-14 0 0 -3.65861e-13 3.94043e-13 -5.9191e-13 3.23428e-13 0 0 -2.82874e-13 5.98858e-13 -8.85774e-13 3.03261e-13 0 0 -2.47287e-13 7.1795e-13 -8.60159e-13 6.91068e-14 0 0 -1.72737e-13 6.34742e-13 -6.70348e-13 -3.06556e-13 0 0 -4.54299e-14 3.33766e-13 -2.99917e-13 -5.70512e-13 0 0 -1.12648e-14 -4.52434e-14 -7.30754e-14 -6.18717e-13 0 0 -1.76513e-14 -2.70627e-13 -5.43866e-14 -5.59786e-13 0 0 -6.65916e-14 -3.90443e-13 -8.90414e-14 -4.629e-13 0 0 -1.91974e-13 -4.10987e-13 -2.20637e-13 -2.26872e-13 0 0 -2.31716e-13 -4.47378e-13 -2.77801e-13 -5.86043e-14 0 0 -2.43397e-13 -4.33419e-13 -2.74821e-13 -6.69327e-14 0 0 -2.8325e-13 -2.77834e-13 -3.81609e-13 5.08948e-14 0 0 -2.55841e-13 -2.97066e-13 -1.98829e-13 -3.89448e-14 0 0 -1.19103e-13 -4.02093e-13 7.80226e-14 -1.51901e-13 0 0 -1.35345e-13 -2.42186e-13 -9.58189e-14 -2.06716e-14 0 0 -2.37126e-13 2.05423e-14 -2.36692e-13 -1.90444e-15 0 0 -1.89165e-13 4.15227e-14 -2.63358e-13 5.12702e-14 0 0 -6.63613e-14 -6.9013e-14 -1.34209e-13 -5.04465e-14 0 0 1.01461e-14 -1.9099e-13 5.21123e-14 -1.75819e-13 0 0 -1.38098e-13 6.33996e-14 -1.87976e-13 -3.39707e-14 0 0 -2.92511e-13 3.75481e-13 -5.35886e-13 1.63516e-13 0 0 -1.22706e-14 -1.00405e-14 -1.9052e-13 -1.14742e-14 0 0 1.52541e-13 -2.26378e-13 -3.73281e-14 -5.41928e-14 0 0 1.24689e-13 -1.9461e-13 -6.85756e-14 -7.32927e-14 0 0 -7.86265e-14 1.57191e-14 -1.56091e-13 -7.90254e-14 0 0 -3.38803e-13 3.5944e-13 -4.55536e-13 1.52046e-13 0 0 -1.34813e-13 6.39582e-14 -2.30206e-13 7.49498e-14 0 0 1.21548e-13 -2.17368e-13 -1.2831e-13 6.54338e-14 0 0 1.5696e-13 -2.84204e-13 -9.31169e-14 1.52685e-14 0 0 -1.02195e-13 3.00346e-14 -3.19049e-13 4.27223e-14 0 0 -2.9891e-13 2.94687e-13 -5.58186e-13 8.93053e-14 0 0 -1.01812e-13 -3.26146e-14 -2.6014e-13 -1.73834e-13 0 0 8.19287e-14 -2.31283e-13 -2.87644e-13 -1.0639e-13 0 0 -9.76366e-15 -2.38016e-13 -2.85804e-13 -6.96255e-14 0 0 -3.3468e-13 -1.24475e-16 -3.54002e-13 -7.31436e-14 0 0 -4.16082e-13 9.91144e-14 -4.59951e-13 -2.37158e-14 0 0 -1.55214e-13 -2.85271e-13 -7.12719e-14 -2.3073e-13 0 0 -2.06904e-13 -1.73e-13 -1.47204e-13 -1.80059e-13 0 0 -3.25022e-13 -7.48161e-14 -1.31351e-13 -2.76604e-13 0 0 -1.44445e-13 -4.70158e-13 3.40819e-13 -4.98664e-13 0 0 -5.42637e-13 1.59618e-13 -2.47761e-13 1.3268e-13 0 0 -7.50561e-13 4.16983e-13 -3.86383e-13 3.25947e-13 0 0 -1.21778e-13 -5.69276e-13 6.06521e-13 -2.87969e-13 0 0 1.68556e-13 -7.48884e-13 6.51246e-13 -3.06881e-13 0 0 -1.67751e-13 -2.13395e-14 1.23465e-13 -1.89917e-13 0 0 -5.74276e-13 6.67764e-13 -3.53118e-13 1.37513e-14 0 0 -4.3446e-13 4.42193e-13 -1.73796e-13 1.01933e-13 0 0 1.37074e-13 -7.03801e-13 1.12658e-12 -6.01865e-13 0 0 5.38519e-14 -6.44687e-13 1.04267e-12 -5.85876e-13 0 0 -3.6137e-13 6.3879e-14 1.64035e-13 -4.79176e-14 0 0 -4.80136e-13 2.41604e-13 -2.58608e-13 3.36988e-13 0 0 -3.9959e-13 6.26621e-14 -3.2967e-13 4.17297e-13 0 0 -9.91269e-14 -3.70189e-13 -9.15404e-14 2.1989e-13 0 0 2.27989e-15 -4.77452e-13 -1.46065e-15 3.04249e-14 0 0 -4.08701e-13 9.46441e-14 -3.10003e-13 -5.11614e-14 0 0 -7.94349e-13 4.49024e-13 -3.99037e-13 -1.96897e-13 0 0 -3.81279e-13 -3.82066e-13 3.80339e-13 -7.61544e-13 0 0 2.78912e-13 -1.19716e-12 7.39522e-13 -1.04458e-12 0 0 2.87316e-13 -1.17999e-12 4.7e-13 -9.35292e-13 0 0 -7.44592e-13 2.77952e-13 -9.38393e-13 -1.24666e-13 0 0 -1.26507e-12 1.07293e-12 -1.6361e-12 3.05017e-13 0 0 -3.11916e-13 -2.75621e-13 -4.81885e-13 -3.03848e-14 0 0 3.97023e-13 -1.28711e-12 4.41818e-13 -3.27075e-13 0 0 1.18556e-13 -1.03416e-12 4.53344e-13 -3.34244e-13 0 0 -5.17061e-13 -1.36346e-13 -4.7298e-13 2.8136e-13 0 0 -6.74561e-13 2.64324e-13 -1.33604e-12 9.14939e-13 0 0 -3.24537e-13 -1.63358e-13 -1.21547e-12 8.7259e-13 0 0 -4.19422e-13 -7.39344e-14 -1.09068e-12 6.5469e-13 0 0 -4.67319e-13 -2.75103e-13 -4.72489e-13 9.5045e-14 0 0 -2.27371e-17 -1.09269e-12 4.25591e-13 -6.37181e-13 0 0 4.46624e-15 -9.13986e-13 9.50348e-14 -7.0307e-13 0 0 -5.36789e-13 -1.45096e-13 -4.33823e-13 -7.40505e-13 0 0 -9.28407e-13 3.19099e-13 -6.48272e-13 -7.05536e-13 0 0 -5.87852e-13 -5.97887e-14 -5.66573e-13 -5.03664e-13 0 0 4.01225e-14 -9.0587e-13 -1.28186e-13 -3.03442e-13 0 0 8.12249e-14 -9.43556e-13 -2.14312e-13 -8.91695e-16 0 0 -4.16683e-13 -3.21573e-13 -5.56983e-13 7.44248e-14 0 0 -9.25243e-13 3.57122e-13 -8.53513e-13 -3.81005e-14 0 0 -6.31203e-13 1.309e-14 -4.01858e-13 -4.63264e-13 0 0 1.10377e-13 -1.07288e-12 4.21537e-13 -8.18317e-13 0 0 9.82074e-14 -1.08528e-12 9.5876e-14 -4.54329e-13 0 0 -4.91696e-13 -3.97495e-13 -3.36961e-13 -3.18163e-13 0 0 -8.58255e-13 2.65212e-13 -7.90508e-13 -2.87868e-13 0 0 -4.19267e-13 -1.55332e-13 -4.82417e-13 -5.00514e-13 0 0 1.88094e-13 -1.01353e-12 3.67903e-13 -1.02182e-12 0 0 3.42549e-14 -8.58544e-13 2.55029e-13 -8.72176e-13 0 0 -7.3615e-13 -9.7523e-14 -1.20796e-13 -6.74558e-13 0 0 -1.4154e-12 8.96332e-13 -9.417e-13 -2.63521e-13 0 0 -6.84376e-13 -1.54205e-14 -3.08445e-13 -5.22448e-13 0 0 9.60428e-14 -1.16394e-12 6.84433e-13 -1.07096e-12 0 0 -9.04315e-13 3.13996e-13 -5.40958e-13 -4.06516e-13 0 0 -1.49677e-12 9.89766e-13 -7.9251e-13 -3.30898e-13 0 0 -5.12733e-13 -5.00841e-13 6.42088e-13 -1.16434e-12 0 0 4.32151e-13 -1.57941e-12 1.37864e-12 -1.53474e-12 0 0 7.84732e-14 -8.87931e-13 7.92703e-13 -1.3253e-12 0 0 -1.30057e-12 1.0505e-12 -7.09013e-13 -6.93851e-13 0 0 -1.36835e-12 1.09764e-12 -7.47206e-13 -8.28274e-13 0 0 3.00238e-14 -8.80876e-13 7.54421e-13 -1.59112e-12 0 0 7.19551e-13 -1.80294e-12 1.35303e-12 -1.73165e-12 0
				</DataArray>
				<DataArray Name="VitesseY" type="Float32" format="ascii">