<?xml version="1.0"?>
<VTKFile type="PolyData">
	<PolyData>
		<Piece NumberOfPoints="1206" NumberOfPolys="1000">
			<Points>
				<DataArray type="Float32" NumberOfComponents="3" format="ascii">
 0 0 0 0.02 0 0 0.04 0 0 0.06 0 0 0.08 0 0 0.1 0 0 0 0.005 0 0.02 0.005 0 0.04 0.005 0 0.06 0.005 0 0.08 0.005 0 0.1 0.005 0 0 0.01 0 0.02 0.01 0 0.04 0.01 0 0.06 0.01 0 0.08 0.01 0 0.1 0.01 0 0 0.015 0 0.02 0.015 0 0.04 0.015 0 0.06 0.015 0 0.08 0.015 0 0.1 0.015 0 0 0.02 0 0.02 0.02 0 0.04 0.02 0 0.06 0.02 0 0.08 0.02 0 0.1 0.02 0 0 0.025 0 0.02 0.025 0 0.04 0.025 0 0.06 0.025 0 0.08 0.025 0 0.1 0.025 0 0 0.03 0 0.02 0.03 0 0.04 0.03 0 0.06 0.03 0 0.08 0.03 0 0.1 0.03 0 0 0.035 0 0.02 0.035 0 0.04 0.035 0 0.06 0.035 0 0.08 0.035 0 0.1 0.035 0 0 0.04 0 0.02 0.04 0 0.04 0.04 0 0.06 0.04 0 0.08 0.04 0 0.1 0.04 0 0 0.045 0 0.02 0.045 0 0.04 0.045 0 0.06 0.045 0 0.08 0.045 0 0.1 0.045 0 0 0.05 0 0.02 0.05 0 0.04 0.05 0 0.06 0.05 0 0.08 0.05 0 0.1 0.05 0 0 0.055 0 0.02 0.055 0 0.04 0.055 0 0.06 0.055 0 0.08 0.055 0 0.1 0.055 0 0 0.06 0 0.02 0.06 0 0.04 0.06 0 0.06 0.06 0 0.08 0.06 0 0.1 0.06 0 0 0.065 0 0.02 0.065 0 0.04 0.065 0 0.06 0.065 0 0.08 0.065 0 0.1 0.065 0 0 0.07 0 0.02 0.07 0 0.04 0.07 0 0.06 0.07 0 0.08 0.07 0 0.1 0.07 0 0 0.075 0 0.02 0.075 0 0.04 0.075 0 0.06 0.075 0 0.08 0.075 0 0.1 0.075 0 0 0.08 0 0.02 0.08 0 0.04 0.08 0 0.06 0.08 0 0.08 0.08 0 0.1 0.08 0 0 0.085 0 0.02 0.085 0 0.04 0.085 0 0.06 0.085 0 0.08 0.085 0 0.1 0.085 0 0 0.09 0 0.02 0.09 0 0.04 0.09 0 0.06 0.09 0 0.08 0.09 0 0.1 0.09 0 0 0.095 0 0.02 0.095 0 0.04 0.095 0 0.06 0.095 0 0.08 0.095 0 0.1 0.095 0 0 0.1 0 0.02 0.1 0 0.04 0.1 0 0.06 0.1 0 0.08 0.1 0 0.1 0.1 0 0 0.105 0 0.02 0.105 0 0.04 0.105 0 0.06 0.105 0 0.08 0.105 0 0.1 0.105 0 0 0.11 0 0.02 0.11 0 0.04 0.11 0 0.06 0.11 0 0.08 0.11 0 0.1 0.11 0 0 0.115 0 0.02 0.115 0 0.04 0.115 0 0.06 0.115 0 0.08 0.115 0 0.1 0.115 0 0 0.12 0 0.02 0.12 0 0.04 0.12 0 0.06 0.12 0 0.08 0.12 0 0.1 0.12 0 0 0.125 0 0.02 0.125 0 0.04 0.125 0 0.06 0.125 0 0.08 0.125 0 0.1 0.125 0 0 0.13 0 0.02 0.13 0 0.04 0.13 0 0.06 0.13 0 0.08 0.13 0 0.1 0.13 0 0 0.135 0 0.02 0.135 0 0.04 0.135 0 0.06 0.135 0 0.08 0.135 0 0.1 0.135 0 0 0.14 0 0.02 0.14 0 0.04 0.14 0 0.06 0.14 0 0.08 0.14 0 0.1 0.14 0 0 0.145 0 0.02 0.145 0 0.04 0.145 0 0.06 0.145 0 0.08 0.145 0 0.1 0.145 0 0 0.15 0 0.02 0.15 0 0.04 0.15 0 0.06 0.15 0 0.08 0.15 0 0.1 0.15 0 0 0.155 0 0.02 0.155 0 0.04 0.155 0 0.06 0.155 0 0.08 0.155 0 0.1 0.155 0 0 0.16 0 0.02 0.16 0 0.04 0.16 0 0.06 0.16 0 0.08 0.16 0 0.1 0.16 0 0 0.165 0 0.02 0.165 0 0.04 0.165 0 0.06 0.165 0 0.08 0.165 0 0.1 0.165 0 0 0.17 0 0.02 0.17 0 0.04 0.17 0 0.06 0.17 0 0.08 0.17 0 0.1 0.17 0 0 0.175 0 0.02 0.175 0 0.04 0.175 0 0.06 0.175 0 0.08 0.175 0 0.1 0.175 0 0 0.18 0 0.02 0.18 0 0.04 0.18 0 0.06 0.18 0 0.08 0.18 0 0.1 0.18 0 0 0.185 0 0.02 0.185 0 0.04 0.185 0 0.06 0.185 0 0.08 0.185 0 0.1 0.185 0 0 0.19 0 0.02 0.19 0 0.04 0.19 0 0.06 0.19 0 0.08 0.19 0 0.1 0.19 0 0 0.195 0 0.02 0.195 0 0.04 0.195 0 0.06 0.195 0 0.08 0.195 0 0.1 0.195 0 0 0.2 0 0.02 0.2 0 0.04 0.2 0 0.06 0.2 0 0.08 0.2 0 0.1 0.2 0 0 0.205 0 0.02 0.205 0 0.04 0.205 0 0.06 0.205 0 0.08 0.205 0 0.1 0.205 0 0 0.21 0 0.02 0.21 0 0.04 0.21 0 0.06 0.21 0 0.08 0.21 0 0.1 0.21 0 0 0.215 0 0.02 0.215 0 0.04 0.215 0 0.06 0.215 0 0.08 0.215 0 0.1 0.215 0 0 0.22 0 0.02 0.22 0 0.04 0.22 0 0.06 0.22 0 0.08 0.22 0 0.1 0.22 0 0 0.225 0 0.02 0.225 0 0.04 0.225 0 0.06 0.225 0 0.08 0.225 0 0.1 0.225 0 0 0.23 0 0.02 0.23 0 0.04 0.23 0 0.06 0.23 0 0.08 0.23 0 0.1 0.23 0 0 0.235 0 0.02 0.235 0 0.04 0.235 0 0.06 0.235 0 0.08 0.235 0 0.1 0.235 0 0 0.24 0 0.02 0.24 0 0.04 0.24 0 0.06 0.24 0 0.08 0.24 0 0.1 0.24 0 0 0.245 0 0.02 0.245 0 0.04 0.245 0 0.06 0.245 0 0.08 0.245 0 0.1 0.245 0 0 0.25 0 0.02 0.25 0 0.04 0.25 0 0.06 0.25 0 0.08 0.25 0 0.1 0.25 0 0 0.255 0 0.02 0.255 0 0.04 0.255 0 0.06 0.255 0 0.08 0.255 0 0.1 0.255 0 0 0.26 0 0.02 0.26 0 0.04 0.26 0 0.06 0.26 0 0.08 0.26 0 0.1 0.26 0 0 0.265 0 0.02 0.265 0 0.04 0.265 0 0.06 0.265 0 0.08 0.265 0 0.1 0.265 0 0 0.27 0 0.02 0.27 0 0.04 0.27 0 0.06 0.27 0 0.08 0.27 0 0.1 0.27 0 0 0.275 0 0.02 0.275 0 0.04 0.275 0 0.06 0.275 0 0.08 0.275 0 0.1 0.275 0 0 0.28 0 0.02 0.28 0 0.04 0.28 0 0.06 0.28 0 0.08 0.28 0 0.1 0.28 0 0 0.285 0 0.02 0.285 0 0.04 0.285 0 0.06 0.285 0 0.08 0.285 0 0.1 0.285 0 0 0.29 0 0.02 0.29 0 0.04 0.29 0 0.06 0.29 0 0.08 0.29 0 0.1 0.29 0 0 0.295 0 0.02 0.295 0 0.04 0.295 0 0.06 0.295 0 0.08 0.295 0 0.1 0.295 0 0 0.3 0 0.02 0.3 0 0.04 0.3 0 0.06 0.3 0 0.08 0.3 0 0.1 0.3 0 0 0.305 0 0.02 0.305 0 0.04 0.305 0 0.06 0.305 0 0.08 0.305 0 0.1 0.305 0 0 0.31 0 0.02 0.31 0 0.04 0.31 0 0.06 0.31 0 0.08 0.31 0 0.1 0.31 0 0 0.315 0 0.02 0.315 0 0.04 0.315 0 0.06 0.315 0 0.08 0.315 0 0.1 0.315 0 0 0.32 0 0.02 0.32 0 0.04 0.32 0 0.06 0.32 0 0.08 0.32 0 0.1 0.32 0 0 0.325 0 0.02 0.325 0 0.04 0.325 0 0.06 0.325 0 0.08 0.325 0 0.1 0.325 0 0 0.33 0 0.02 0.33 0 0.04 0.33 0 0.06 0.33 0 0.08 0.33 0 0.1 0.33 0 0 0.335 0 0.02 0.335 0 0.04 0.335 0 0.06 0.335 0 0.08 0.335 0 0.1 0.335 0 0 0.34 0 0.02 0.34 0 0.04 0.34 0 0.06 0.34 0 0.08 0.34 0 0.1 0.34 0 0 0.345 0 0.02 0.345 0 0.04 0.345 0 0.06 0.345 0 0.08 0.345 0 0.1 0.345 0 0 0.35 0 0.02 0.35 0 0.04 0.35 0 0.06 0.35 0 0.08 0.35 0 0.1 0.35 0 0 0.355 0 0.02 0.355 0 0.04 0.355 0 0.06 0.355 0 0.08 0.355 0 0.1 0.355 0 0 0.36 0 0.02 0.36 0 0.04 0.36 0 0.06 0.36 0 0.08 0.36 0 0.1 0.36 0 0 0.365 0 0.02 0.365 0 0.04 0.365 0 0.06 0.365 0 0.08 0.365 0 0.1 0.365 0 0 0.37 0 0.02 0.37 0 0.04 0.37 0 0.06 0.37 0 0.08 0.37 0 0.1 0.37 0 0 0.375 0 0.02 0.375 0 0.04 0.375 0 0.06 0.375 0 0.08 0.375 0 0.1 0.375 0 0 0.38 0 0.02 0.38 0 0.04 0.38 0 0.06 0.38 0 0.08 0.38 0 0.1 0.38 0 0 0.385 0 0.02 0.385 0 0.04 0.385 0 0.06 0.385 0 0.08 0.385 0 0.1 0.385 0 0 0.39 0 0.02 0.39 0 0.04 0.39 0 0.06 0.39 0 0.08 0.39 0 0.1 0.39 0 0 0.395 0 0.02 0.395 0 0.04 0.395 0 0.06 0.395 0 0.08 0.395 0 0.1 0.395 0 0 0.4 0 0.02 0.4 0 0.04 0.4 0 0.06 0.4 0 0.08 0.4 0 0.1 0.4 0 0 0.405 0 0.02 0.405 0 0.04 0.405 0 0.06 0.405 0 0.08 0.405 0 0.1 0.405 0 0 0.41 0 0.02 0.41 0 0.04 0.41 0 0.06 0.41 0 0.08 0.41 0 0.1 0.41 0 0 0.415 0 0.02 0.415 0 0.04 0.415 0 0.06 0.415 0 0.08 0.415 0 0.1 0.415 0 0 0.42 0 0.02 0.42 0 0.04 0.42 0 0.06 0.42 0 0.08 0.42 0 0.1 0.42 0 0 0.425 0 0.02 0.425 0 0.04 0.425 0 0.06 0.425 0 0.08 0.425 0 0.1 0.425 0 0 0.43 0 0.02 0.43 0 0.04 0.43 0 0.06 0.43 0 0.08 0.43 0 0.1 0.43 0 0 0.435 0 0.02 0.435 0 0.04 0.435 0 0.06 0.435 0 0.08 0.435 0 0.1 0.435 0 0 0.44 0 0.02 0.44 0 0.04 0.44 0 0.06 0.44 0 0.08 0.44 0 0.1 0.44 0 0 0.445 0 0.02 0.445 0 0.04 0.445 0 0.06 0.445 0 0.08 0.445 0 0.1 0.445 0 0 0.45 0 0.02 0.45 0 0.04 0.45 0 0.06 0.45 0 0.08 0.45 0 0.1 0.45 0 0 0.455 0 0.02 0.455 0 0.04 0.455 0 0.06 0.455 0 0.08 0.455 0 0.1 0.455 0 0 0.46 0 0.02 0.46 0 0.04 0.46 0 0.06 0.46 0 0.08 0.46 0 0.1 0.46 0 0 0.465 0 0.02 0.465 0 0.04 0.465 0 0.06 0.465 0 0.08 0.465 0 0.1 0.465 0 0 0.47 0 0.02 0.47 0 0.04 0.47 0 0.06 0.47 0 0.08 0.47 0 0.1 0.47 0 0 0.475 0 0.02 0.475 0 0.04 0.475 0 0.06 0.475 0 0.08 0.475 0 0.1 0.475 0 0 0.48 0 0.02 0.48 0 0.04 0.48 0 0.06 0.48 0 0.08 0.48 0 0.1 0.48 0 0 0.485 0 0.02 0.485 0 0.04 0.485 0 0.06 0.485 0 0.08 0.485 0 0.1 0.485 0 0 0.49 0 0.02 0.49 0 0.04 0.49 0 0.06 0.49 0 0.08 0.49 0 0.1 0.49 0 0 0.495 0 0.02 0.495 0 0.04 0.495 0 0.06 0.495 0 0.08 0.495 0 0.1 0.495 0 0 0.5 0 0.02 0.5 0 0.04 0.5 0 0.06 0.5 0 0.08 0.5 0 0.1 0.5 0 0 0.505 0 0.02 0.505 0 0.04 0.505 0 0.06 0.505 0 0.08 0.505 0 0.1 0.505 0 0 0.51 0 0.02 0.51 0 0.04 0.51 0 0.06 0.51 0 0.08 0.51 0 0.1 0.51 0 0 0.515 0 0.02 0.515 0 0.04 0.515 0 0.06 0.515 0 0.08 0.515 0 0.1 0.515 0 0 0.52 0 0.02 0.52 0 0.04 0.52 0 0.06 0.52 0 0.08 0.52 0 0.1 0.52 0 0 0.525 0 0.02 0.525 0 0.04 0.525 0 0.06 0.525 0 0.08 0.525 0 0.1 0.525 0 0 0.53 0 0.02 0.53 0 0.04 0.53 0 0.06 0.53 0 0.08 0.53 0 0.1 0.53 0 0 0.535 0 0.02 0.535 0 0.04 0.535 0 0.06 0.535 0 0.08 0.535 0 0.1 0.535 0 0 0.54 0 0.02 0.54 0 0.04 0.54 0 0.06 0.54 0 0.08 0.54 0 0.1 0.54 0 0 0.545 0 0.02 0.545 0 0.04 0.545 0 0.06 0.545 0 0.08 0.545 0 0.1 0.545 0 0 0.55 0 0.02 0.55 0 0.04 0.55 0 0.06 0.55 0 0.08 0.55 0 0.1 0.55 0 0 0.555 0 0.02 0.555 0 0.04 0.555 0 0.06 0.555 0 0.08 0.555 0 0.1 0.555 0 0 0.56 0 0.02 0.56 0 0.04 0.56 0 0.06 0.56 0 0.08 0.56 0 0.1 0.56 0 0 0.565 0 0.02 0.565 0 0.04 0.565 0 0.06 0.565 0 0.08 0.565 0 0.1 0.565 0 0 0.57 0 0.02 0.57 0 0.04 0.57 0 0.06 0.57 0 0.08 0.57 0 0.1 0.57 0 0 0.575 0 0.02 0.575 0 0.04 0.575 0 0.06 0.575 0 0.08 0.575 0 0.1 0.575 0 0 0.58 0 0.02 0.58 0 0.04 0.58 0 0.06 0.58 0 0.08 0.58 0 0.1 0.58 0 0 0.585 0 0.02 0.585 0 0.04 0.585 0 0.06 0.585 0 0.08 0.585 0 0.1 0.585 0 0 0.59 0 0.02 0.59 0 0.04 0.59 0 0.06 0.59 0 0.08 0.59 0 0.1 0.59 0 0 0.595 0 0.02 0.595 0 0.04 0.595 0 0.06 0.595 0 0.08 0.595 0 0.1 0.595 0 0 0.6 0 0.02 0.6 0 0.04 0.6 0 0.06 0.6 0 0.08 0.6 0 0.1 0.6 0 0 0.605 0 0.02 0.605 0 0.04 0.605 0 0.06 0.605 0 0.08 0.605 0 0.1 0.605 0 0 0.61 0 0.02 0.61 0 0.04 0.61 0 0.06 0.61 0 0.08 0.61 0 0.1 0.61 0 0 0.615 0 0.02 0.615 0 0.04 0.615 0 0.06 0.615 0 0.08 0.615 0 0.1 0.615 0 0 0.62 0 0.02 0.62 0 0.04 0.62 0 0.06 0.62 0 0.08 0.62 0 0.1 0.62 0 0 0.625 0 0.02 0.625 0 0.04 0.625 0 0.06 0.625 0 0.08 0.625 0 0.1 0.625 0 0 0.63 0 0.02 0.63 0 0.04 0.63 0 0.06 0.63 0 0.08 0.63 0 0.1 0.63 0 0 0.635 0 0.02 0.635 0 0.04 0.635 0 0.06 0.635 0 0.08 0.635 0 0.1 0.635 0 0 0.64 0 0.02 0.64 0 0.04 0.64 0 0.06 0.64 0 0.08 0.64 0 0.1 0.64 0 0 0.645 0 0.02 0.645 0 0.04 0.645 0 0.06 0.645 0 0.08 0.645 0 0.1 0.645 0 0 0.65 0 0.02 0.65 0 0.04 0.65 0 0.06 0.65 0 0.08 0.65 0 0.1 0.65 0 0 0.655 0 0.02 0.655 0 0.04 0.655 0 0.06 0.655 0 0.08 0.655 0 0.1 0.655 0 0 0.66 0 0.02 0.66 0 0.04 0.66 0 0.06 0.66 0 0.08 0.66 0 0.1 0.66 0 0 0.665 0 0.02 0.665 0 0.04 0.665 0 0.06 0.665 0 0.08 0.665 0 0.1 0.665 0 0 0.67 0 0.02 0.67 0 0.04 0.67 0 0.06 0.67 0 0.08 0.67 0 0.1 0.67 0 0 0.675 0 0.02 0.675 0 0.04 0.675 0 0.06 0.675 0 0.08 0.675 0 0.1 0.675 0 0 0.68 0 0.02 0.68 0 0.04 0.68 0 0.06 0.68 0 0.08 0.68 0 0.1 0.68 0 0 0.685 0 0.02 0.685 0 0.04 0.685 0 0.06 0.685 0 0.08 0.685 0 0.1 0.685 0 0 0.69 0 0.02 0.69 0 0.04 0.69 0 0.06 0.69 0 0.08 0.69 0 0.1 
[...]
			<PointData Scalars="VitesseX">
				<DataArray Name="VitesseX" type="Float32" format="ascii">
 0 -1.85358e-14 -1.52128e-14 -1.50827e-14 -2.05459e-14 0 0 -1.7662e-14 -1.57474e-14 -1.47907e-14 -2.19186e-14 0 0 -1.63617e-14 -1.66004e-14 -1.52004e-14 -2.15053e-14 0 0 -1.63508e-14 -1.65367e-14 -1.59391e-14 -2.15908e-14 0 0 -1.26824e-14 -2.24749e-14 -1.18871e-14 -2.15659e-14 0 0 -1.13602e-14 -2.11881e-14 -1.50974e-14 -1.62346e-14 0 0 -1.25083e-14 -1.89937e-14 -9.56655e-15 -2.1806e-14 0 0 -1.06942e-14 -2.81623e-14 8.24188e-15 -2.87671e-14 0 0 -1.89145e-14 -1.49302e-14 -3.93252e-15 -1.16166e-14 0 0 -2.29087e-14 -1.74512e-15 -1.71301e-14 4.51968e-15 0 0 -2.35998e-14 -2.49228e-15 -9.72845e-15 6.98256e-15 0 0 -2.412e-14 -6.49659e-16 -8.32236e-15 1.40346e-14 0 0 3.84055e-15 -3.67557e-14 3.09349e-14 -1.20037e-14 0 0 1.859e-15 -1.59787e-14 1.76831e-14 -1.67825e-14 0 0 -2.85424e-14 4.17519e-14 -3.41814e-14 9.52569e-15 0 0 -1.65309e-15 -9.77092e-15 1.50613e-14 -2.29011e-14 0 0 1.3932e-14 -4.36245e-14 5.42354e-14 -5.8975e-14 0 0 -5.7883e-15 -1.63349e-14 2.43665e-14 -3.84944e-14 0 0 -1.60021e-14 1.0923e-14 -3.3539e-14 2.03835e-14 0 0 -1.23176e-14 8.66753e-15 -4.02698e-14 2.76742e-14 0 0 1.3823e-14 -4.75919e-14 4.60794e-14 -4.80562e-14 0 0 7.44963e-15 -3.288e-14 1.90129e-14 -2.53772e-14 0 0 -5.41428e-15 -1.50378e-14 -1.689e-14 1.35016e-14 0 0 -1.88874e-14 -2.36052e-14 1.78084e-14 -1.64175e-14 0 0 -4.82341e-14 6.80455e-15 -2.1226e-14 8.93285e-15 0 0 -2.58932e-14 -2.1545e-14 -4.07343e-14 4.09132e-14 0 0 3.48607e-14 -9.57107e-14 -1.77948e-14 4.36554e-14 0 0 1.97616e-14 -6.8772e-14 -3.31136e-14 4.70669e-14 0 0 5.67488e-15 -4.43412e-14 -3.9869e-14 6.69352e-14 0 0 2.17941e-14 -7.18348e-14 1.86794e-14 2.2405e-14 0 0 -2.38329e-14 -1.06237e-14 8.4162e-15 -1.11329e-14 0 0 -5.74182e-14 2.17773e-14 5.6066e-15 -1.45449e-14 0 0 -5.21046e-14 1.95894e-14 -8.83403e-15 2.34894e-14 0 0 -1.42128e-14 -7.43984e-15 -1.7362e-14 4.9951e-14 0 0 1.59315e-14 -3.42163e-14 3.36651e-14 -7.18102e-15 0 0 5.28845e-15 2.35251e-14 1.1412e-15 -2.11638e-14 0 0 -2.50655e-14 8.2447e-14 -4.82076e-14 -4.78242e-15 0 0 -3.8167e-14 7.34119e-14 -4.13421e-14 2.17863e-14 0 0 1.72469e-14 -1.9243e-14 3.8796e-14 2.1161e-14 0 0 4.03302e-14 -3.17733e-14 2.63324e-14 3.74744e-14 0 0 5.54421e-14 -3.32845e-14 1.97808e-14 4.52768e-14 0 0 9.083e-14 -5.49955e-14 1.03847e-14 9.0026e-14 0 0 5.70385e-15 4.00798e-14 -6.14418e-14 1.26586e-13 0 0 -3.6352e-14 5.52836e-14 -2.13275e-14 8.59183e-14 0 0 -6.08984e-14 3.04725e-14 6.87687e-15 6.76537e-14 0 0 -4.86196e-14 -3.81765e-14 6.89828e-14 -3.65277e-15 0 0 6.51407e-14 -1.86013e-13 1.69777e-13 -9.62794e-14 0 0 -1.92835e-14 -4.55445e-14 -3.17766e-14 2.02103e-14 0 0 -9.30774e-14 4.36889e-14 -1.34552e-13 4.61505e-14 0 0 6.06054e-15 -7.6428e-14 -9.2495e-14 -2.10579e-14 0 0 6.61564e-14 -9.24583e-14 -1.93562e-13 4.42027e-14 0 0 1.43025e-14 -1.12728e-13 -1.51519e-13 2.1758e-14 0 0 1.81275e-14 -2.44576e-13 5.43262e-15 -7.94677e-14 0 0 5.02591e-14 -3.37606e-13 5.15656e-14 -1.23583e-13 0 0 -9.25363e-14 -1.85241e-13 -1.67178e-13 -7.35163e-15 0 0 -2.42612e-13 5.81349e-14 -4.25824e-13 4.4255e-14 0 0 -7.00813e-14 -1.10381e-13 -2.57199e-13 -1.28694e-13 0 0 1.63648e-13 -3.83759e-13 -1.73664e-14 -2.22503e-13 0 0 3.41601e-14 -2.43989e-13 -7.2605e-14 -1.44409e-13 0 0 -2.21957e-13 -1.87864e-14 -1.74328e-13 -3.16834e-14 0 0 -3.29185e-13 7.6514e-15 -1.71131e-13 2.21644e-14 0 0 -2.7137e-13 -1.65771e-13 -2.64479e-14 -3.44618e-14 0 0 -2.49524e-13 -3.13657e-13 8.40745e-14 -4.43646e-14 0 0 -2.98255e-13 -2.94568e-13 3.07095e-14 7.53725e-15 0 0 -3.01043e-13 -2.17376e-13 -9.10306e-14 5.13668e-14 0 0 -2.24786e-13 -2.52097e-13 -1.51956e-13 1.68615e-14 0 0 -8.62539e-14 -4.05469e-13 -4.84828e-14 -1.14566e-13 0 0 1.21772e-14 -5.48184e-13 1.01186e-14 -2.33022e-13 0 0 -6.71448e-14 -4.73739e-13 -1.09133e-13 -1.16879e-13 0 0 -2.30588e-13 -2.86342e-13 -3.63438e-13 1.32873e-13 0 0 -4.061e-13 -2.35472e-13 -3.74995e-13 2.37668e-13 0 0 -3.80619e-13 -3.16119e-13 -2.95921e-13 1.96001e-13 0 0 -2.90851e-13 -4.73767e-13 -1.49839e-13 9.03965e-14 0 0 -1.68897e-13 -5.60436e-13 -1.86233e-13 1.05282e-13 0 0 -1.44601e-13 -5.10907e-13 -2.93954e-13 1.72069e-13 0 0 -1.81345e-13 -3.87094e-13 -4.76053e-13 1.5707e-13 0 0 -2.6229e-13 -2.2478e-13 -5.24697e-13 5.74468e-14 0 0 -2.71437e-13 -1.63744e-13 -4.94022e-13 -7.81365e-14 0 0 -2.26231e-13 -1.86984e-13 -3.56449e-13 -2.32886e-13 0 0 -1.46895e-13 -2.65401e-13 -1.18885e-13 -2.02789e-13 0 0 -8.72463e-14 -3.15833e-13 -9.0737e-14 -7.8885e-14 0 0 -1.94993e-14 -3.11504e-13 -1.51471e-13 1.37245e-13 0 0 3.40297e-14 -2.76803e-13 -3.16382e-13 3.90995e-13 0 0 7.347e-14 -2.73622e-13 -3.77443e-13 4.35796e-13 0 0 1.84772e-13 -3.45807e-13 -3.43466e-13 3.62813e-13 0 0 2.92032e-13 -3.9714e-13 -3.66559e-13 2.51742e-13 0 0 2.51768e-13 -3.47081e-13 -4.03243e-13 2.2046e-13 0 0 1.62945e-13 -2.80979e-13 -4.18992e-13 1.64107e-13 0 0 1.72646e-14 -1.46384e-13 -4.14336e-13 3.0576e-14 0 0 -7.2694e-14 -1.3087e-13 -3.51392e-13 -1.50098e-13 0 0 -9.66868e-14 -1.77962e-13 -2.0864e-13 -3.4381e-13 0 0 -1.00788e-13 -2.56341e-13 -5.75028e-14 -3.57022e-13 0 0 -1.10257e-13 -2.54603e-13 -5.31646e-14 -3.10084e-13 0 0 -1.26929e-13 -2.07603e-13 -1.16459e-13 -1.94181e-13 0 0 -1.62827e-13 -1.04948e-13 -2.76695e-13 -1.68897e-14 0 0 -2.38588e-13 3.26866e-14 -3.84286e-13 2.88314e-14 0 0 -2.61457e-13 6.50464e-14 -4.20822e-13 7.18069e-15 0 0 -2.44925e-13 4.16701e-14 -4.16089e-13 -4.24251e-14 0 0 -1.59902e-13 -6.53884e-14 -3.54729e-13 -1.2336e-13 0 0 7.19901e-15 -2.34041e-13 -3.27901e-13 -1.41118e-13 0 0 2.80275e-13 -4.00689e-13 -3.78871e-13 -7.56736e-14 0 0 5.6193e-13 -5.40829e-13 -5.27493e-13 9.32987e-14 0 0 6.09526e-13 -5.57407e-13 -6.16863e-13 2.0571e-13 0 0 5.78252e-13 -5.25219e-13 -5.96904e-13 1.77573e-13 0 0 4.63696e-13 -4.4233e-13 -5.1459e-13 3.81108e-14 0 0 2.86398e-13 -3.29824e-13 -3.46939e-13 -1.86883e-13 0 0 1.58573e-13 -2.76127e-13 -1.74237e-13 -4.02066e-13 0 0 8.34977e-14 -2.12845e-13 -1.87452e-13 -4.24735e-13 0 0 8.63783e-15 -1.48088e-13 -1.74435e-13 -4.75657e-13 0 0 -2.63055e-14 -1.41371e-13 -1.48951e-13 -5.44472e-13 0 0 -2.97031e-14 -1.0094e-13 -2.5042e-13 -4.8202e-13 0 0 -4.32916e-14 -5.47735e-14 -3.59881e-13 -4.06393e-13 0 0 -1.63653e-14 -9.20753e-14 -3.74301e-13 -3.71382e-13 0 0 -6.20952e-15 -7.85986e-14 -4.79532e-13 -2.30421e-13 0 0 -2.80078e-14 -7.20681e-14 -5.05661e-13 -1.98214e-13 0 0 -3.08625e-14 -1.15965e-13 -4.35647e-13 -2.54966e-13 0 0 -5.27633e-14 -1.77477e-13 -3.17957e-13 -2.98547e-13 0 0 -8.29851e-14 -2.207e-13 -2.51545e-13 -3.18944e-13 0 0 -1.09596e-13 -2.35973e-13 -2.47172e-13 -3.27795e-13 0 0 -1.15835e-13 -3.01504e-13 -1.72525e-13 -3.87128e-13 0 0 -1.37348e-13 -2.98353e-13 -1.84103e-13 -3.91774e-13 0 0 -1.69521e-13 -2.49534e-13 -3.07057e-13 -2.7688e-13 0 0 -1.71516e-13 -2.3539e-13 -3.5942e-13 -2.35318e-13 0 0 -1.64147e-13 -2.30322e-13 -4.0737e-13 -1.94484e-13 0 0 -1.44271e-13 -2.39297e-13 -4.15745e-13 -1.38174e-13 0 0 -1.31255e-13 -2.46597e-13 -4.10713e-13 -1.11797e-13 0 0 -1.30553e-13 -2.42206e-13 -4.11531e-13 -6.72964e-14 0 0 -1.53505e-13 -2.40078e-13 -3.85818e-13 -5.11384e-14 0 0 -1.75678e-13 -2.66506e-13 -2.522e-13 -1.46203e-13 0 0 -1.71006e-13 -2.82664e-13 -1.21873e-13 -2.38219e-13 0 0 -1.77875e-13 -2.10412e-13 -1.85977e-13 -1.83254e-13 0 0 -1.8258e-13 -1.44288e-13 -2.36902e-13 -1.45015e-13 0 0 -1.69238e-13 -1.5088e-13 -2.24617e-13 -1.47916e-13 0 0 -1.66716e-13 -1.72458e-13 -1.7201e-13 -1.66367e-13 0 0 -1.68621e-13 -1.9332e-13 -1.57847e-13 -1.54438e-13 0 0 -1.76785e-13 -1.81572e-13 -2.44719e-13 -7.62263e-14 0 0 -1.92704e-13 -1.79321e-13 -2.89591e-13 -3.5551e-14 0 0 -1.73585e-13 -2.44415e-13 -2.14629e-13 -8.74071e-14 0 0 -1.68696e-13 -3.01265e-13 -1.20246e-13 -1.91258e-13 0 0 -1.82904e-13 -2.73751e-13 -1.40851e-13 -2.2459e-13 0 0 -2.01971e-13 -2.17142e-13 -2.22755e-13 -1.87684e-13 0 0 -2.0543e-13 -2.07324e-13 -2.84772e-13 -1.0238e-13 0 0 -2.03322e-13 -2.054e-13 -2.96745e-13 -6.15003e-14 0 0 -1.95218e-13 -1.89298e-13 -3.02284e-13 -7.87896e-14 0 0 -1.35362e-13 -2.73596e-13 -2.00756e-13 -1.8074e-13 0 0 -1.32958e-13 -2.75238e-13 -1.69422e-13 -2.5608e-13 0 0 -1.79944e-13 -2.20187e-13 -2.41992e-13 -1.46953e-13 0 0 -1.97851e-13 -2.10058e-13 -2.68253e-13 -8.2383e-14 0 0 -1.61489e-13 -2.62281e-13 -2.19195e-13 -1.06176e-13 0 0 -1.51113e-13 -3.03087e-13 -2.37965e-13 -1.28067e-14 0 0 -1.83436e-13 -3.05212e-13 -2.69211e-13 -2.31708e-14 0 0 -2.16188e-13 -3.12601e-13 -2.40429e-13 -1.65702e-13 0 0 -2.75506e-13 -2.52285e-13 -3.19618e-13 -1.87559e-13 0 0 -2.66638e-13 -2.78349e-13 -3.9968e-13 -1.72768e-13 0 0 -2.46125e-13 -3.17465e-13 -4.47933e-13 -2.05339e-13 0 0 -2.48124e-13 -2.99368e-13 -4.81958e-13 -3.07529e-13 0 0 -2.02749e-13 -3.64263e-13 -3.61167e-13 -5.62112e-13 0 0 -1.83413e-13 -3.75472e-13 -3.67935e-13 -5.27942e-13 0 0 -2.2069e-13 -3.28782e-13 -4.05012e-13 -3.28862e-13 0 0 -2.36756e-13 -3.27268e-13 -3.45901e-13 -1.63654e-13 0 0 -2.2608e-13 -3.31761e-13 -2.21598e-13 -9.50986e-14 0 0 -2.05688e-13 -3.40501e-13 -9.22855e-14 -1.26214e-13 0 0 -1.66417e-13 -2.90447e-13 -1.43709e-13 -1.6842e-14 0 0 -1.52295e-13 -2.13414e-13 -2.28742e-13 1.74312e-14 0 0 -1.87633e-13 -1.5864e-13 -1.76938e-13 -1.1524e-13 0 0 -2.08065e-13 -1.52888e-13 -9.14925e-14 -2.46068e-13 0 0 -1.40422e-13 -1.75798e-13 -1.67524e-13 -1.90315e-13 0 0 -8.71427e-14 -2.28918e-13 -3.46695e-13 -9.08605e-14 0 0 -1.2223e-13 -2.58662e-13 -4.41021e-13 -6.86306e-14 0 0 -1.29426e-13 -2.80451e-13 -4.62316e-13 -4.42317e-14 0 0 -1.76718e-13 -1.98706e-13 -5.62842e-13 -7.80337e-14 0 0 -2.00769e-13 -2.0228e-13 -6.00376e-13 -1.53631e-13 0 0 -1.21945e-13 -3.41994e-13 -4.60899e-13 -2.7308e-13 0 0 -9.92033e-14 -3.94999e-13 -3.5073e-13 -3.40241e-13 0 0 -1.58193e-13 -3.08213e-13 -4.43396e-13 -2.30151e-13 0 0 -1.15341e-13 -3.95344e-13 -2.86848e-13 -4.00894e-13 0 0 -7.88411e-14 -4.4282e-13 -2.01629e-13 -4.75825e-13 0 0 -1.56917e-13 -2.62574e-13 -4.83003e-13 -1.91808e-13 0 0 -1.43673e-13 -3.17872e-13 -4.01e-13 -2.17981e-13 0 0 -2.07574e-13 -2.49423e-13 -3.74677e-13 -2.09181e-13 0 0 -2.68266e-13 -1.3672e-13 -4.78461e-13 -7.67425e-14 0 0 -2.21356e-13 -2.07439e-13 -4.04438e-13 -7.57928e-14 0 0 -2.30627e-13 -2.03732e-13 -3.77197e-13 -7.38678e-14 0 0 -1.90428e-13 -2.93195e-13 -2.68459e-13 -9.74436e-14 0 0 -1.64942e-13 -3.34762e-13 -1.7256e-13 -1.50694e-13 0 0 -1.79852e-13 -2.55518e-13 -2.50693e-13 -8.98245e-14 0 0 -1.21159e-13 -3.04193e-13 -2.40105e-13 -6.42522e-14 0 0 -1.97129e-13 -1.72081e-13 -2.81734e-13 -7.22997e-14 0 0 -1.30738e-13 -2.64188e-13 -1.5386e-13 -1.17143e-13 0 0 -8.20496e-14 -4.02599e-13 2.08989e-14 -2.35566e-13 0 0 -3.32399e-13 -1.15219e-14 -3.6064e-13 -9.06408e-16 0 0 -3.23578e-13 2.6062e-14 -4.81189e-13 1.96072e-13 0 0 -2.47959e-13 -1.77302e-13 -2.73772e-13 1.01295e-13 0 0 -3.99057e-13 -8.82227e-14 -2.42545e-13 -7.09196e-14 0 0 -4.59829e-13 -1.10753e-13 -1.29065e-13 -1.93972e-13 0 0 -3.36125e-13 -3.40094e-13 1.06672e-13 -3.28549e-13 0 0 -2.2169e-13 -4.7361e-13 1.55005e-13 -3.92695e-13 0 0 -1.9649e-13 -5.04493e-13 1.51189e-13 -4.40317e-13 0 0 -2.68811e-13 -4.03418e-13 -3.71322e-14 -3.39587e-13 0 0 -4.60497e-13 -9.54017e-14 -5.24742e-13 1.8738e-14 0 0 -5.45184e-13 4.42969e-14 -7.07001e-13 1.50034e-13 0
				</DataArray>
				<DataArray Name="VitesseY" type="Float32" format="ascii">