<?xml version="1.0"?>
<VTKFile type="PolyData">
	<PolyData>
		<Piece NumberOfPoints="1206" NumberOfPolys="1000">
			<Points>
				<DataArray type="Float32" NumberOfComponents="3" format="ascii">
 0 0 0 0.02 0 0 0.04 0 0 0.06 0 0 0.08 0 0 0.1 0 0 0 0.005 0 0.02 0.005 0 0.04 0.005 0 0.06 0.005 0 0.08 0.005 0 0.1 0.005 0 0 0.01 0 0.02 0.01 0 0.04 0.01 0 0.06 0.01 0 0.08 0.01 0 0.1 0.01 0 0 0.015 0 0.02 0.015 0 0.04 0.015 0 0.06 0.015 0 0.08 0.015 0 0.1 0.015 0 0 0.02 0 0.02 0.02 0 0.04 0.02 0 0.06 0.02 0 0.08 0.02 0 0.1 0.02 0 0 0.025 0 0.02 0.025 0 0.04 0.025 0 0.06 0.025 0 0.08 0.025 0 0.1 0.025 0 0 0.03 0 0.02 0.03 0 0.04 0.03 0 0.06 0.03 0 0.08 0.03 0 0.1 0.03 0 0 0.035 0 0.02 0.035 0 0.04 0.035 0 0.06 0.035 0 0.08 0.035 0 0.1 0.035 0 0 0.04 0 0.02 0.04 0 0.04 0.04 0 0.06 0.04 0 0.08 0.04 0 0.1 0.04 0 0 0.045 0 0.02 0.045 0 0.04 0.045 0 0.06 0.045 0 0.08 0.045 0 0.1 0.045 0 0 0.05 0 0.02 0.05 0 0.04 0.05 0 0.06 0.05 0 0.08 0.05 0 0.1 0.05 0 0 0.055 0 0.02 0.055 0 0.04 0.055 0 0.06 0.055 0 0.08 0.055 0 0.1 0.055 0 0 0.06 0 0.02 0.06 0 0.04 0.06 0 0.06 0.06 0 0.08 0.06 0 0.1 0.06 0 0 0.065 0 0.02 0.065 0 0.04 0.065 0 0.06 0.065 0 0.08 0.065 0 0.1 0.065 0 0 0.07 0 0.02 0.07 0 0.04 0.07 0 0.06 0.07 0 0.08 0.07 0 0.1 0.07 0 0 0.075 0 0.02 0.075 0 0.04 0.075 0 0.06 0.075 0 0.08 0.075 0 0.1 0.075 0 0 0.08 0 0.02 0.08 0 0.04 0.08 0 0.06 0.08 0 0.08 0.08 0 0.1 0.08 0 0 0.085 0 0.02 0.085 0 0.04 0.085 0 0.06 0.085 0 0.08 0.085 0 0.1 0.085 0 0 0.09 0 0.02 0.09 0 0.04 0.09 0 0.06 0.09 0 0.08 0.09 0 0.1 0.09 0 0 0.095 0 0.02 0.095 0 0.04 0.095 0 0.06 0.095 0 0.08 0.095 0 0.1 0.095 0 0 0.1 0 0.02 0.1 0 0.04 0.1 0 0.06 0.1 0 0.08 0.1 0 0.1 0.1 0 0 0.105 0 0.02 0.105 0 0.04 0.105 0 0.06 0.105 0 0.08 0.105 0 0.1 0.105 0 0 0.11 0 0.02 0.11 0 0.04 0.11 0 0.06 0.11 0 0.08 0.11 0 0.1 0.11 0 0 0.115 0 0.02 0.115 0 0.04 0.115 0 0.06 0.115 0 0.08 0.115 0 0.1 0.115 0 0 0.12 0 0.02 0.12 0 0.04 0.12 0 0.06 0.12 0 0.08 0.12 0 0.1 0.12 0 0 0.125 0 0.02 0.125 0 0.04 0.125 0 0.06 0.125 0 0.08 0.125 0 0.1 0.125 0 0 0.13 0 0.02 0.13 0 0.04 0.13 0 0.06 0.13 0 0.08 0.13 0 0.1 0.13 0 0 0.135 0 0.02 0.135 0 0.04 0.135 0 0.06 0.135 0 0.08 0.135 0 0.1 0.135 0 0 0.14 0 0.02 0.14 0 0.04 0.14 0 0.06 0.14 0 0.08 0.14 0 0.1 0.14 0 0 0.145 0 0.02 0.145 0 0.04 0.145 0 0.06 0.145 0 0.08 0.145 0 0.1 0.145 0 0 0.15 0 0.02 0.15 0 0.04 0.15 0 0.06 0.15 0 0.08 0.15 0 0.1 0.15 0 0 0.155 0 0.02 0.155 0 0.04 0.155 0 0.06 0.155 0 0.08 0.155 0 0.1 0.155 0 0 0.16 0 0.02 0.16 0 0.04 0.16 0 0.06 0.16 0 0.08 0.16 0 0.1 0.16 0 0 0.165 0 0.02 0.165 0 0.04 0.165 0 0.06 0.165 0 0.08 0.165 0 0.1 0.165 0 0 0.17 0 0.02 0.17 0 0.04 0.17 0 0.06 0.17 0 0.08 0.17 0 0.1 0.17 0 0 0.175 0 0.02 0.175 0 0.04 0.175 0 0.06 0.175 0 0.08 0.175 0 0.1 0.175 0 0 0.18 0 0.02 0.18 0 0.04 0.18 0 0.06 0.18 0 0.08 0.18 0 0.1 0.18 0 0 0.185 0 0.02 0.185 0 0.04 0.185 0 0.06 0.185 0 0.08 0.185 0 0.1 0.185 0 0 0.19 0 0.02 0.19 0 0.04 0.19 0 0.06 0.19 0 0.08 0.19 0 0.1 0.19 0 0 0.195 0 0.02 0.195 0 0.04 0.195 0 0.06 0.195 0 0.08 0.195 0 0.1 0.195 0 0 0.2 0 0.02 0.2 0 0.04 0.2 0 0.06 0.2 0 0.08 0.2 0 0.1 0.2 0 0 0.205 0 0.02 0.205 0 0.04 0.205 0 0.06 0.205 0 0.08 0.205 0 0.1 0.205 0 0 0.21 0 0.02 0.21 0 0.04 0.21 0 0.06 0.21 0 0.08 0.21 0 0.1 0.21 0 0 0.215 0 0.02 0.215 0 0.04 0.215 0 0.06 0.215 0 0.08 0.215 0 0.1 0.215 0 0 0.22 0 0.02 0.22 0 0.04 0.22 0 0.06 0.22 0 0.08 0.22 0 0.1 0.22 0 0 0.225 0 0.02 0.225 0 0.04 0.225 0 0.06 0.225 0 0.08 0.225 0 0.1 0.225 0 0 0.23 0 0.02 0.23 0 0.04 0.23 0 0.06 0.23 0 0.08 0.23 0 0.1 0.23 0 0 0.235 0 0.02 0.235 0 0.04 0.235 0 0.06 0.235 0 0.08 0.235 0 0.1 0.235 0 0 0.24 0 0.02 0.24 0 0.04 0.24 0 0.06 0.24 0 0.08 0.24 0 0.1 0.24 0 0 0.245 0 0.02 0.245 0 0.04 0.245 0 0.06 0.245 0 0.08 0.245 0 0.1 0.245 0 0 0.250001 0 0.02 0.250001 0 0.04 0.250001 0 0.06 0.250001 0 0.08 0.250001 0 0.1 0.250001 0 0 0.255003 0 0.02 0.255003 0 0.04 0.255003 0 0.06 0.255003 0 0.08 0.255003 0 0.1 0.255003 0 0 0.260009 0 0.02 0.260009 0 0.04 0.260009 0 0.06 0.260009 0 0.08 0.260009 0 0.1 0.260009 0 0 0.265021 0 0.02 0.265021 0 0.04 0.265021 0 0.06 0.265021 0 0.08 0.265021 0 0.1 0.265021 0 0 0.270049 0 0.02 0.270049 0 0.04 0.270049 0 0.06 0.270049 0 0.08 0.270049 0 0.1 0.270049 0 0 0.275103 0 0.02 0.275103 0 0.04 0.275103 0 0.06 0.275103 0 0.08 0.275103 0 0.1 0.275103 0 0 0.280197 0 0.02 0.280197 0 0.04 0.280197 0 0.06 0.280197 0 0.08 0.280197 0 0.1 0.280197 0 0 0.285348 0 0.02 0.285348 0 0.04 0.285348 0 0.06 0.285348 0 0.08 0.285348 0 0.1 0.285348 0 0 0.290571 0 0.02 0.290571 0 0.04 0.290571 0 0.06 0.290571 0 0.08 0.290571 0 0.1 0.290571 0 0 0.295879 0 0.02 0.295879 0 0.04 0.295879 0 0.06 0.295879 0 0.08 0.295879 0 0.1 0.295879 0 0 0.301281 0 0.02 0.301281 0 0.04 0.301281 0 0.06 0.301281 0 0.08 0.301281 0 0.1 0.301281 0 0 0.306787 0 0.02 0.306787 0 0.04 0.306787 0 0.06 0.306787 0 0.08 0.306787 0 0.1 0.306787 0 0 0.312404 0 0.02 0.312404 0 0.04 0.312404 0 0.06 0.312404 0 0.08 0.312404 0 0.1 0.312404 0 0 0.318138 0 0.02 0.318138 0 0.04 0.318138 0 0.06 0.318138 0 0.08 0.318138 0 0.1 0.318138 0 0 0.323997 0 0.02 0.323997 0 0.04 0.323997 0 0.06 0.323997 0 0.08 0.323997 0 0.1 0.323997 0 0 0.329989 0 0.02 0.329989 0 0.04 0.329989 0 0.06 0.329989 0 0.08 0.329989 0 0.1 0.329989 0 0 0.336119 0 0.02 0.336119 0 0.04 0.336119 0 0.06 0.336119 0 0.08 0.336119 0 0.1 0.336119 0 0 0.342397 0 0.02 0.342397 0 0.04 0.342397 0 0.06 0.342397 0 0.08 0.342397 0 0.1 0.342397 0 0 0.34883 0 0.02 0.34883 0 0.04 0.34883 0 0.06 0.34883 0 0.08 0.34883 0 0.1 0.34883 0 0 0.355429 0 0.02 0.355429 0 0.04 0.355429 0 0.06 0.355429 0 0.08 0.355429 0 0.1 0.355429 0 0 0.362202 0 0.02 0.362202 0 0.04 0.362202 0 0.06 0.362202 0 0.08 0.362202 0 0.1 0.362202 0 0 0.369161 0 0.02 0.369161 0 0.04 0.369161 0 0.06 0.369161 0 0.08 0.369161 0 0.1 0.369161 0 0 0.376317 0 0.02 0.376317 0 0.04 0.376317 0 0.06 0.376317 0 0.08 0.376317 0 0.1 0.376317 0 0 0.383683 0 0.02 0.383683 0 0.04 0.383683 0 0.06 0.383683 0 0.08 0.383683 0 0.1 0.383683 0 0 0.391274 0 0.02 0.391274 0 0.04 0.391274 0 0.06 0.391274 0 0.08 0.391274 0 0.1 0.391274 0 0 0.399105 0 0.02 0.399105 0 0.04 0.399105 0 0.06 0.399105 0 0.08 0.399105 0 0.1 0.399105 0 0 0.407192 0 0.02 0.407192 0 0.04 0.407192 0 0.06 0.407192 0 0.08 0.407192 0 0.1 0.407192 0 0 0.415556 0 0.02 0.415556 0 0.04 0.415556 0 0.06 0.415556 0 0.08 0.415556 0 0.1 0.415556 0 0 0.424217 0 0.02 0.424217 0 0.04 0.424217 0 0.06 0.424217 0 0.08 0.424217 0 0.1 0.424217 0 0 0.433198 0 0.02 0.433198 0 0.04 0.433198 0 0.06 0.433198 0 0.08 0.433198 0 0.1 0.433198 0 0 0.442525 0 0.02 0.442525 0 0.04 0.442525 0 0.06 0.442525 0 0.08 0.442525 0 0.1 0.442525 0 0 0.452228 0 0.02 0.452228 0 0.04 0.452228 0 0.06 0.452228 0 0.08 0.452228 0 0.1 0.452228 0 0 0.462335 0 0.02 0.462335 0 0.04 0.462335 0 0.06 0.462335 0 0.08 0.462335 0 0.1 0.462335 0 0 0.47288 0 0.02 0.47288 0 0.04 0.47288 0 0.06 0.47288 0 0.08 0.47288 0 0.1 0.47288 0 0 0.483893 0 0.02 0.483893 0 0.04 0.483893 0 0.06 0.483893 0 0.08 0.483893 0 0.1 0.483893 0 0 0.495391 0 0.02 0.495391 0 0.04 0.495391 0 0.06 0.495391 0 0.08 0.495391 0 0.1 0.495391 0 0 0.507352 0 0.02 0.507352 0 0.04 0.507352 0 0.06 0.507352 0 0.08 0.507352 0 0.1 0.507352 0 0 0.519629 0 0.02 0.519629 0 0.04 0.519629 0 0.06 0.519629 0 0.08 0.519629 0 0.1 0.519629 0 0 0.531905 0 0.02 0.531905 0 0.04 0.531905 0 0.06 0.531905 0 0.08 0.531905 0 0.1 0.531905 0 0 0.544078 0 0.02 0.544078 0 0.04 0.544078 0 0.06 0.544078 0 0.08 0.544078 0 0.1 0.544078 0 0 0.556138 0 0.02 0.556138 0 0.04 0.556138 0 0.06 0.556138 0 0.08 0.556138 0 0.1 0.556138 0 0 0.568098 0 0.02 0.568098 0 0.04 0.568098 0 0.06 0.568098 0 0.08 0.568098 0 0.1 0.568098 0 0 0.579987 0 0.02 0.579987 0 0.04 0.579987 0 0.06 0.579987 0 0.08 0.579987 0 0.1 0.579987 0 0 0.591833 0 0.02 0.591833 0 0.04 0.591833 0 0.06 0.591833 0 0.08 0.591833 0 0.1 0.591833 0 0 0.603657 0 0.02 0.603657 0 0.04 0.603657 0 0.06 0.603657 0 0.08 0.603657 0 0.1 0.603657 0 0 0.615471 0 0.02 0.615471 0 0.04 0.615471 0 0.06 0.615471 0 0.08 0.615471 0 0.1 0.615471 0 0 0.627281 0 0.02 0.627281 0 0.04 0.627281 0 0.06 0.627281 0 0.08 0.627281 0 0.1 0.627281 0 0 0.63909 0 0.02 0.63909 0 0.04 0.63909 0 0.06 0.63909 0 0.08 0.63909 0 0.1 0.63909 0 0 0.650898 0 0.02 0.650898 0 0.04 0.650898 0 0.06 0.650898 0 0.08 0.650898 0 0.1 0.650898 0 0 0.662707 0 0.02 0.662707 0 0.04 0.662707 0 0.06 0.662707 0 0.08 0.662707 0 0.1 0.662707 0 0 0.674516 0 0.02 0.674516 0 0.04 0.674516 0 0.06 0.674516 0 0.08 0.674516 0 0.1 0.674516 0 0 0.676796 0 0.02 0.676796 0 0.04 0.676796 0 0.06 0.676796 0 0.08 0.676796 0 0.1 0.676796 0 0 0.679076 0 0.02 0.679076 0 0.04 0.679076 0 0.06 0.679076 0 0.08 0.679076 0 0.1 0.679076 0 0 0.681356 0 0.02 0.681356 0 0.04 0.681356 0 0.06 0.681356 0 0.08 0.681356 0 0.1 0.681356 0 0 0.683635 0 0.02 0.683635 0 0.04 0.683635 0 0.06 0.683635 0 0.08 0.683635 0 0.1 0.683635 0 0 0.685915 0 0.02 0.685915 0 0.04 0.685915 0 0.06 0.685915 0 0.08 0.685915 0 0.1 0.685915 0 0 0.688193 0 0.02 0.688193 0 0.04 0.688193 0 0.06 0.688193 0 0.08 0.688193 0 0.1 0.688193 0 0 0.690467 0 0.02 0.690467 0 0.04 0.690467 0 0.06 0.690467 0 0.08 0.690467 0 0.1 0.690467 0 0 0.692742 0 0.02 0.692742 0 0.04 0.692742 0 0.06 0.692742 0 0.08 0.692742 0 0.1 0.692742 0 0 0.695023 0 0.02 0.695023 0 0.04 0.695023 0 0.06 0.695023 0 0.08 0.695023 0 0.1 0.695023 0 0 0.697302 0 0.02 0.697302 0 0.04 0.697302 0 0.06 0.697302 0 0.08 0.697302 0 0.1 0.697302 0 0 0.699582 0 0.02 0.699582 0 0.04 0.699582 0 0.06 0.699582 0 0.08 0.699582 0 0.1 0.699582 0 0 0.701861 0 0.02 0.701861 0 0.04 0.701861 0 0.06 0.701861 0 0.08 0.701861 0 0.1 0.701861 0 0 0.704141 0 0.02 0.704141 0 0.04 0.704141 0 0.06 0.704141 0 0.08 0.704141 0 0.1 0.704141 0 0 0.70642 0 0.02 0.70642 0 0.04 0.70642 0 0.06 0.70642 0 0.08 0.70642 0 0.1 0.70642 0 0 0.7087 0 0.02 0.7087 0 0.04 0.7087 0 0.06 0.7087 0 0.08 0.7087 0 0.1 0.7087 0 0 0.71098 0 0.02 0.71098 0 0.04 0.71098 0 0.06 0.71098 0 0.08 0.71098 0 0.1 0.71098 0 0 0.71326 0 0.02 0.71326 0 0.04 0.71326 0 0.06 0.71326 0 0.08 0.71326 0 0.1 0.71326 0 0 0.715539 0 0.02 0.715539 0 0.04 0.715539 0 0.06 0.715539 0 0.08 0.715539 0 
[...]
			<PointData Scalars="VitesseX">
				<DataArray Name="VitesseX" type="Float32" format="ascii">
 0 -3.04935e-17 2.06195e-15 3.54057e-15 5.97837e-16 0 0 -3.39282e-16 1.76516e-15 3.74929e-15 9.16228e-18 0 0 1.60298e-16 -1.73988e-16 4.96378e-15 -1.87216e-15 0 0 1.58826e-15 -2.00959e-15 4.70404e-15 -2.22951e-15 0 0 9.28926e-16 7.35033e-16 3.13865e-16 1.09976e-16 0 0 -3.53566e-16 2.7985e-15 -5.21912e-16 -1.17999e-15 0 0 -4.18455e-17 1.28741e-15 1.147e-15 -2.14798e-15 0 0 1.15605e-15 -2.78736e-16 9.73066e-17 -1.77115e-15 0 0 2.78724e-15 -1.51347e-15 -7.42559e-16 -2.14901e-15 0 0 3.10733e-15 -1.00843e-15 -6.61047e-16 -1.07825e-15 0 0 9.21481e-16 1.001e-15 -1.84651e-15 1.1312e-17 0 0 -7.68167e-16 3.65745e-16 4.3241e-16 -1.86262e-15 0 0 2.25038e-15 -7.08749e-15 7.06791e-15 2.04186e-16 0 0 2.73777e-15 -7.90443e-15 4.17716e-15 7.9185e-15 0 0 2.27291e-15 -4.42552e-15 1.36073e-16 8.74116e-15 0 0 2.15968e-15 -2.66506e-15 -9.51694e-17 7.78768e-15 0 0 3.31778e-16 1.32527e-15 -3.19029e-15 1.04572e-14 0 0 -3.71731e-15 6.81538e-15 -3.48007e-15 1.10224e-14 0 0 -5.33452e-15 8.24278e-15 -1.41244e-15 8.98217e-15 0 0 -1.98771e-15 2.49479e-15 -1.81019e-16 9.09236e-15 0 0 1.71564e-15 7.89818e-16 6.39802e-16 5.86774e-15 0 0 5.15835e-15 -1.92405e-15 3.13312e-15 7.30001e-16 0 0 5.58979e-15 -2.98751e-15 3.81769e-15 -3.0651e-15 0 0 1.08021e-14 -3.79592e-15 5.69845e-15 -8.74802e-15 0 0 1.2189e-14 6.91122e-16 -2.48184e-16 -6.58784e-17 0 0 8.10252e-15 8.50379e-15 -2.24997e-15 1.26313e-14 0 0 9.44171e-15 5.40039e-15 5.55562e-15 1.06349e-14 0 0 8.31921e-15 6.07587e-15 7.34586e-15 6.50965e-15 0 0 1.45056e-15 5.83023e-15 1.40482e-14 6.56306e-15 0 0 -1.49971e-15 5.61346e-15 7.87605e-15 1.35914e-14 0 0 2.10767e-15 3.74253e-15 -4.02348e-15 2.13905e-14 0 0 6.93037e-16 -4.43534e-15 -4.61209e-15 2.60285e-14 0 0 -7.34334e-15 -7.57995e-16 -2.23282e-15 1.78691e-14 0 0 -1.04964e-14 7.53507e-15 -7.6966e-16 1.78509e-15 0 0 8.63966e-17 1.27247e-15 -3.33264e-15 4.30267e-15 0 0 1.17813e-14 -5.13467e-15 -5.32697e-15 2.12632e-14 0 0 1.00658e-14 5.04799e-15 -1.18252e-14 2.19252e-14 0 0 -1.94485e-15 9.1735e-15 -4.63802e-15 -3.10328e-15 0 0 -7.31695e-15 3.23476e-15 1.34309e-16 -1.33903e-14 0 0 9.66725e-16 4.92519e-17 -1.4062e-14 -1.24091e-14 0 0 -5.4521e-15 -1.38236e-15 -2.59283e-14 -6.27119e-15 0 0 -1.00939e-14 -1.42005e-14 -2.71121e-14 1.66518e-15 0 0 -1.41831e-15 -2.85627e-14 -4.14554e-14 1.11067e-14 0 0 -8.2276e-15 -1.95229e-14 -4.08516e-14 1.69879e-14 0 0 -7.3735e-15 -2.35655e-14 -2.35937e-14 1.0012e-14 0 0 6.61445e-16 -3.65848e-14 -3.26691e-14 1.24364e-15 0 0 -1.59864e-14 -3.02278e-14 -4.50294e-14 -2.8426e-15 0 0 -4.13553e-14 -3.01228e-14 -5.02069e-14 4.444e-15 0 0 -1.43696e-14 -5.50547e-14 -4.29932e-14 7.25633e-15 0 0 1.78362e-14 -5.01165e-14 -3.51574e-14 -1.16445e-14 0 0 1.26914e-14 -2.84212e-14 -2.26254e-14 -3.54126e-14 0 0 4.58078e-15 -2.35354e-14 -7.56805e-15 -2.83596e-14 0 0 -1.82396e-14 -4.2447e-16 -1.28418e-14 -4.9722e-15 0 0 -1.20648e-14 -7.24764e-15 -1.4066e-14 1.56877e-14 0 0 4.19183e-15 -4.78822e-14 5.11938e-15 1.1576e-14 0 0 -2.11514e-14 -3.3179e-14 -2.84082e-15 3.25069e-14 0 0 -4.97968e-14 1.21283e-14 -1.61817e-14 5.86854e-14 0 0 -2.54117e-14 -1.73034e-15 9.62424e-15 4.4433e-14 0 0 1.1685e-14 -1.17059e-14 2.06226e-14 2.32227e-14 0 0 3.84081e-15 1.37856e-14 2.0998e-15 1.06931e-15 0 0 -1.0519e-14 2.02438e-14 -5.81473e-15 -1.47176e-15 0 0 -9.07475e-15 2.70692e-15 2.2528e-14 -1.4782e-14 0 0 -1.27342e-14 1.04134e-14 2.96863e-14 -1.63057e-14 0 0 -2.75151e-14 2.87939e-14 4.05803e-15 -7.89191e-15 0 0 -1.48276e-14 2.19122e-14 3.93744e-15 -1.37041e-14 0 0 1.72514e-14 5.40675e-15 5.8738e-16 -1.04783e-14 0 0 2.68822e-14 -1.30549e-14 -2.26044e-14 1.66215e-14 0 0 -1.31085e-16 7.23386e-17 -6.35683e-15 2.21329e-14 0 0 -9.17657e-15 -1.25082e-14 1.36879e-14 2.80395e-14 0 0 -2.33531e-15 -2.36003e-14 -1.39244e-14 5.9308e-14 0 0 1.32061e-14 -2.6282e-14 -1.36544e-14 4.35822e-14 0 0 1.94453e-14 -7.65988e-15 -1.59938e-14 1.88937e-14 0 0 2.12199e-14 2.17031e-14 -1.86559e-14 3.05802e-14 0 0 9.86846e-15 -4.00376e-15 3.34193e-15 9.40854e-15 0 0 -1.26701e-15 -1.48562e-14 -6.61197e-16 -2.92576e-15 0 0 -2.69453e-15 2.55633e-14 -5.66273e-15 -1.76836e-14 0 0 2.5705e-14 2.89318e-14 -1.82587e-14 -1.46974e-14 0 0 3.03167e-14 -8.72633e-15 4.22278e-16 2.88664e-14 0 0 7.26879e-15 -1.93926e-14 1.92859e-14 7.87864e-15 0 0 -1.08082e-14 7.07509e-15 -1.44852e-14 1.11963e-14 0 0 -2.58477e-14 3.82049e-14 4.93784e-15 -6.22617e-15 0 0 1.20085e-14 3.75305e-14 2.22943e-14 -2.69022e-14 0 0 2.75561e-14 4.63895e-14 -7.07272e-15 -7.5335e-15 0 0 7.41959e-15 2.22788e-14 2.24614e-14 -1.36116e-14 0 0 -4.55998e-15 -1.75769e-14 5.24904e-14 -7.29782e-16 0 0 2.77458e-14 -5.00115e-15 1.00652e-14 1.46512e-14 0 0 4.36048e-15 2.97344e-14 -1.50714e-15 2.92838e-15 0 0 -4.80439e-14 -1.91243e-14 -7.60462e-15 -2.33986e-14 0 0 -6.74477e-14 -9.97088e-14 -9.92233e-14 -4.87326e-14 0 0 -9.50074e-14 -1.24879e-13 -1.57999e-13 -7.04897e-14 0 0 -7.67068e-14 -1.29599e-13 -1.18282e-13 -8.52004e-14 0 0 -1.88145e-14 -5.16487e-14 -4.8228e-14 -1.78971e-14 0 0 5.32467e-14 1.04215e-13 9.34383e-14 6.0478e-14 0 0 1.56235e-13 2.51032e-13 2.73639e-13 1.25978e-13 0 0 2.46901e-13 3.72428e-13 3.91035e-13 2.29673e-13 0 0 2.80108e-13 4.60077e-13 4.45991e-13 2.8353e-13 0 0 2.82886e-13 4.53346e-13 4.54743e-13 2.76022e-13 0 0 2.40904e-13 3.99612e-13 3.91017e-13 2.47896e-13 0 0 1.88263e-13 3.24891e-13 3.01089e-13 1.96527e-13 0 0 1.08121e-13 1.67369e-13 1.99249e-13 1.022e-13 0 0 2.86993e-14 3.5103e-14 8.71077e-14 3.93003e-14 0 0 -1.11291e-13 -1.83603e-13 -1.13798e-13 -1.09569e-13 0 0 -1.31432e-13 -2.23241e-13 -2.03055e-13 -8.72865e-14 0 0 -1.84045e-13 -2.94978e-13 -3.05607e-13 -1.49733e-13 0 0 -2.67568e-13 -3.93693e-13 -4.23952e-13 -2.47983e-13 0 0 -3.66685e-13 -5.51846e-13 -5.4656e-13 -3.5601e-13 0 0 -2.93957e-13 -4.99698e-13 -4.21237e-13 -3.5961e-13 0 0 3.00908e-13 4.12999e-13 5.2848e-13 2.08172e-13 0 0 1.1388e-12 1.88302e-12 1.92062e-12 1.07844e-12 0 0 1.89389e-12 3.1713e-12 3.18451e-12 1.90722e-12 0 0 2.25786e-12 3.66274e-12 3.72363e-12 2.28569e-12 0 0 2.15138e-12 3.4414e-12 3.47265e-12 2.18423e-12 0 0 1.82298e-12 2.91442e-12 2.96674e-12 1.88189e-12 0 0 1.45981e-12 2.33467e-12 2.3975e-12 1.45424e-12 0 0 1.13385e-12 1.7749e-12 1.82954e-12 1.15004e-12 0 0 8.45514e-13 1.30278e-12 1.36923e-12 9.08067e-13 0 0 5.9936e-13 9.67583e-13 9.86428e-13 6.70033e-13 0 0 4.01459e-13 6.98398e-13 6.67368e-13 5.10924e-13 0 0 2.54877e-13 4.59487e-13 4.37528e-13 3.20848e-13 0 0 1.42441e-13 2.9859e-13 2.07407e-13 2.45901e-13 0 0 7.3257e-14 1.46253e-13 6.27677e-14 1.66151e-13 0 0 8.86216e-15 2.70906e-16 -1.76719e-14 1.85435e-14 0 0 -5.47666e-14 -1.01585e-13 -6.56512e-14 -6.54378e-14 0 0 -1.02379e-13 -1.6185e-13 -1.4842e-13 -9.60491e-14 0 0 -1.41123e-13 -1.88242e-13 -2.58656e-13 -1.17731e-13 0 0 -1.58942e-13 -2.22126e-13 -3.3693e-13 -1.45922e-13 0 0 -1.82571e-13 -2.6897e-13 -3.85166e-13 -1.36229e-13 0 0 -1.79767e-13 -3.22464e-13 -3.27145e-13 -2.08031e-13 0 0 -1.92122e-13 -3.26212e-13 -3.3859e-13 -2.17636e-13 0 0 -1.99922e-13 -2.67825e-13 -3.78639e-13 -1.73655e-13 0 0 -1.9694e-13 -2.78492e-13 -3.31128e-13 -1.93119e-13 0 0 -1.91716e-13 -3.03508e-13 -2.55689e-13 -2.11848e-13 0 0 -1.60574e-13 -2.72497e-13 -2.34913e-13 -1.62285e-13 0 0 -1.1909e-13 -2.57234e-13 -2.18482e-13 -1.28609e-13 0 0 -1.10945e-13 -2.28517e-13 -1.54336e-13 -1.27817e-13 0 0 -1.03405e-13 -1.47697e-13 -1.05951e-13 -1.3225e-13 0 0 -6.40085e-14 -9.32671e-14 -7.21237e-14 -7.90006e-14 0 0 -3.23974e-14 -3.88193e-14 5.02525e-15 3.38314e-14 0 0 3.76848e-15 3.07639e-14 6.51606e-14 8.86337e-14 0 0 3.80223e-14 7.69416e-14 1.1867e-13 1.28128e-13 0 0 9.90413e-14 1.58254e-13 1.61132e-13 1.21296e-13 0 0 1.63401e-13 2.01252e-13 2.13089e-13 1.15742e-13 0 0 1.59629e-13 2.52083e-13 2.66812e-13 1.97996e-13 0 0 1.81935e-13 3.64411e-13 3.04822e-13 2.8378e-13 0 0 2.50233e-13 4.16363e-13 3.4409e-13 2.96338e-13 0 0 2.97111e-13 4.63388e-13 4.12008e-13 3.51261e-13 0 0 3.33926e-13 5.11805e-13 5.46054e-13 3.67568e-13 0 0 3.42935e-13 5.63611e-13 6.31744e-13 4.02878e-13 0 0 3.66629e-13 6.13573e-13 6.75691e-13 4.29987e-13 0 0 4.05992e-13 6.39656e-13 7.33734e-13 4.11545e-13 0 0 4.34549e-13 7.0247e-13 7.53446e-13 4.48048e-13 0 0 4.72156e-13 7.42276e-13 7.7704e-13 4.67185e-13 0 0 4.8629e-13 7.88342e-13 7.85415e-13 4.97733e-13 0 0 4.996e-13 7.88788e-13 8.30196e-13 5.33669e-13 0 0 4.87423e-13 8.28946e-13 7.8396e-13 6.56868e-13 0 0 4.98551e-13 8.67234e-13 6.49473e-13 7.68771e-13 0 0 5.19943e-13 8.03559e-13 7.03329e-13 6.80778e-13 0 0 5.10041e-13 6.92972e-13 8.36172e-13 5.65276e-13 0 0 4.92829e-13 6.66366e-13 8.30431e-13 4.99665e-13 0 0 4.21013e-13 6.62645e-13 7.41015e-13 2.73078e-13 0 0 3.80365e-13 6.21831e-13 6.85898e-13 3.89461e-13 0 0 3.4293e-13 5.50517e-13 6.12648e-13 3.48053e-13 0 0 2.79594e-13 4.92897e-13 5.40963e-13 2.01347e-13 0 0 2.32737e-13 3.72127e-13 3.30188e-13 2.80137e-13 0 0 1.75816e-13 1.97697e-13 2.70521e-13 1.69105e-13 0 0 9.3709e-14 1.18632e-13 2.12062e-13 -3.37227e-14 0 0 4.12006e-14 5.46443e-14 1.11639e-13 -1.18426e-13 0 0 -2.03389e-14 -7.50272e-15 1.10219e-14 -1.09306e-14 0 0 -2.91745e-14 -2.96793e-14 -8.00786e-14 1.42348e-14 0 0 -4.45375e-14 -5.27028e-14 -6.4725e-14 -2.04283e-14 0 0 -6.71376e-14 -3.35198e-14 -7.06448e-14 -3.25065e-14 0 0 -4.89586e-14 -7.18391e-14 -3.5437e-14 -6.18465e-14 0 0 -4.42168e-14 -7.47009e-14 -5.02993e-14 -6.00443e-14 0 0 -5.33273e-14 -5.11815e-14 -8.19968e-14 -4.22846e-14 0 0 -5.62669e-14 -5.75657e-14 -6.85983e-14 -4.86302e-14 0 0 -5.75481e-14 -7.20796e-14 -3.89373e-14 -6.61001e-14 0 0 -5.62865e-14 -7.75662e-14 -1.90686e-14 -7.47925e-14 0 0 -5.08438e-14 -6.55205e-14 -3.47178e-14 -5.02036e-14 0 0 -6.23619e-14 -3.09777e-14 -7.5303e-14 -4.166e-14 0 0 -5.99261e-14 -4.43724e-14 -4.97678e-14 -4.6356e-14 0 0 -4.21127e-14 -6.52846e-14 -3.18934e-14 -3.59623e-14 0 0 -3.19387e-14 -7.22691e-14 -2.72736e-14 -2.42473e-14 0 0 -2.59748e-14 -7.12628e-14 -4.43439e-14 -1.38946e-14 0 0 -2.43655e-14 -7.05877e-14 -3.89761e-14 -4.54293e-14 0 0 -1.36031e-14 -1.0957e-13 8.32915e-15 -5.6743e-14 0 0 -1.76009e-14 -8.77821e-14 -4.63972e-14 -1.84862e-14 0 0 -2.52919e-14 -4.68845e-14 -8.94516e-14 -1.02976e-14 0 0 -3.6326e-14 -4.91986e-14 -5.50128e-14 -3.87677e-14 0 0 -6.98128e-14 -1.8576e-14 -3.39781e-14 -4.4963e-14 0 0 -6.62993e-14 -9.50111e-15 -4.96712e-14 7.00533e-15 0 0 -4.79079e-14 1.47829e-15 -5.78466e-14 1.55237e-14 0 0 -4.78113e-15 -5.12254e-14 7.57805e-16 6.91701e-15 0 0 2.25848e-14 -9.26147e-14 5.02855e-14 9.47242e-14 0 0 -9.85167e-15 -1.97726e-14 3.06071e-14 1.16219e-13 0 0 -1.19416e-14 -7.06239e-15 -1.21953e-14 9.65532e-14 0 0 1.24202e-14 -6.81007e-14 -6.96747e-15 1.23387e-13 0 0 -1.22871e-14 -6.056e-14 -1.45881e-14 9.54344e-14 0 0 -5.50177e-14 -9.8005e-15 1.95613e-14 -3.14554e-14 0 0 -3.38979e-14 -5.70797e-14 1.0408e-13 -1.21947e-13 0 0 -4.16066e-14 -4.49021e-14 5.62944e-14 -6.80963e-14 0 0 -7.46855e-14 7.45162e-15 1.37127e-14 -3.94269e-14 0
				</DataArray>
				<DataArray Name="VitesseY" type="Float32" format="ascii">