<?xml version="1.0"?>
<VTKFile type="PolyData">
	<PolyData>
		<Piece NumberOfPoints="1206" NumberOfPolys="1000">
			<Points>
				<DataArray type="Float32" NumberOfComponents="3" format="ascii">
 0 0 0 0.02 0 0 0.04 0 0 0.06 0 0 0.08 0 0 0.1 0 0 0 0.005 0 0.02 0.005 0 0.04 0.005 0 0.06 0.005 0 0.08 0.005 0 0.1 0.005 0 0 0.01 0 0.02 0.01 0 0.04 0.01 0 0.06 0.01 0 0.08 0.01 0 0.1 0.01 0 0 0.015 0 0.02 0.015 0 0.04 0.015 0 0.06 0.015 0 0.08 0.015 0 0.1 0.015 0 0 0.02 0 0.02 0.02 0 0.04 0.02 0 0.06 0.02 0 0.08 0.02 0 0.1 0.02 0 0 0.025 0 0.02 0.025 0 0.04 0.025 0 0.06 0.025 0 0.08 0.025 0 0.1 0.025 0 0 0.03 0 0.02 0.03 0 0.04 0.03 0 0.06 0.03 0 0.08 0.03 0 0.1 0.03 0 0 0.035 0 0.02 0.035 0 0.04 0.035 0 0.06 0.035 0 0.08 0.035 0 0.1 0.035 0 0 0.04 0 0.02 0.04 0 0.04 0.04 0 0.06 0.04 0 0.08 0.04 0 0.1 0.04 0 0 0.045 0 0.02 0.045 0 0.04 0.045 0 0.06 0.045 0 0.08 0.045 0 0.1 0.045 0 0 0.05 0 0.02 0.05 0 0.04 0.05 0 0.06 0.05 0 0.08 0.05 0 0.1 0.05 0 0 0.055 0 0.02 0.055 0 0.04 0.055 0 0.06 0.055 0 0.08 0.055 0 0.1 0.055 0 0 0.06 0 0.02 0.06 0 0.04 0.06 0 0.06 0.06 0 0.08 0.06 0 0.1 0.06 0 0 0.065 0 0.02 0.065 0 0.04 0.065 0 0.06 0.065 0 0.08 0.065 0 0.1 0.065 0 0 0.07 0 0.02 0.07 0 0.04 0.07 0 0.06 0.07 0 0.08 0.07 0 0.1 0.07 0 0 0.075 0 0.02 0.075 0 0.04 0.075 0 0.06 0.075 0 0.08 0.075 0 0.1 0.075 0 0 0.08 0 0.02 0.08 0 0.04 0.08 0 0.06 0.08 0 0.08 0.08 0 0.1 0.08 0 0 0.085 0 0.02 0.085 0 0.04 0.085 0 0.06 0.085 0 0.08 0.085 0 0.1 0.085 0 0 0.09 0 0.02 0.09 0 0.04 0.09 0 0.06 0.09 0 0.08 0.09 0 0.1 0.09 0 0 0.095 0 0.02 0.095 0 0.04 0.095 0 0.06 0.095 0 0.08 0.095 0 0.1 0.095 0 0 0.1 0 0.02 0.1 0 0.04 0.1 0 0.06 0.1 0 0.08 0.1 0 0.1 0.1 0 0 0.105 0 0.02 0.105 0 0.04 0.105 0 0.06 0.105 0 0.08 0.105 0 0.1 0.105 0 0 0.11 0 0.02 0.11 0 0.04 0.11 0 0.06 0.11 0 0.08 0.11 0 0.1 0.11 0 0 0.115 0 0.02 0.115 0 0.04 0.115 0 0.06 0.115 0 0.08 0.115 0 0.1 0.115 0 0 0.12 0 0.02 0.12 0 0.04 0.12 0 0.06 0.12 0 0.08 0.12 0 0.1 0.12 0 0 0.125 0 0.02 0.125 0 0.04 0.125 0 0.06 0.125 0 0.08 0.125 0 0.1 0.125 0 0 0.13 0 0.02 0.13 0 0.04 0.13 0 0.06 0.13 0 0.08 0.13 0 0.1 0.13 0 0 0.135 0 0.02 0.135 0 0.04 0.135 0 0.06 0.135 0 0.08 0.135 0 0.1 0.135 0 0 0.14 0 0.02 0.14 0 0.04 0.14 0 0.06 0.14 0 0.08 0.14 0 0.1 0.14 0 0 0.145 0 0.02 0.145 0 0.04 0.145 0 0.06 0.145 0 0.08 0.145 0 0.1 0.145 0 0 0.15 0 0.02 0.15 0 0.04 0.15 0 0.06 0.15 0 0.08 0.15 0 0.1 0.15 0 0 0.155 0 0.02 0.155 0 0.04 0.155 0 0.06 0.155 0 0.08 0.155 0 0.1 0.155 0 0 0.16 0 0.02 0.16 0 0.04 0.16 0 0.06 0.16 0 0.08 0.16 0 0.1 0.16 0 0 0.165 0 0.02 0.165 0 0.04 0.165 0 0.06 0.165 0 0.08 0.165 0 0.1 0.165 0 0 0.17 0 0.02 0.17 0 0.04 0.17 0 0.06 0.17 0 0.08 0.17 0 0.1 0.17 0 0 0.175 0 0.02 0.175 0 0.04 0.175 0 0.06 0.175 0 0.08 0.175 0 0.1 0.175 0 0 0.18 0 0.02 0.18 0 0.04 0.18 0 0.06 0.18 0 0.08 0.18 0 0.1 0.18 0 0 0.185 0 0.02 0.185 0 0.04 0.185 0 0.06 0.185 0 0.08 0.185 0 0.1 0.185 0 0 0.19 0 0.02 0.19 0 0.04 0.19 0 0.06 0.19 0 0.08 0.19 0 0.1 0.19 0 0 0.195 0 0.02 0.195 0 0.04 0.195 0 0.06 0.195 0 0.08 0.195 0 0.1 0.195 0 0 0.2 0 0.02 0.2 0 0.04 0.2 0 0.06 0.2 0 0.08 0.2 0 0.1 0.2 0 0 0.205 0 0.02 0.205 0 0.04 0.205 0 0.06 0.205 0 0.08 0.205 0 0.1 0.205 0 0 0.21 0 0.02 0.21 0 0.04 0.21 0 0.06 0.21 0 0.08 0.21 0 0.1 0.21 0 0 0.215 0 0.02 0.215 0 0.04 0.215 0 0.06 0.215 0 0.08 0.215 0 0.1 0.215 0 0 0.22 0 0.02 0.22 0 0.04 0.22 0 0.06 0.22 0 0.08 0.22 0 0.1 0.22 0 0 0.225 0 0.02 0.225 0 0.04 0.225 0 0.06 0.225 0 0.08 0.225 0 0.1 0.225 0 0 0.23 0 0.02 0.23 0 0.04 0.23 0 0.06 0.23 0 0.08 0.23 0 0.1 0.23 0 0 0.235 0 0.02 0.235 0 0.04 0.235 0 0.06 0.235 0 0.08 0.235 0 0.1 0.235 0 0 0.24 0 0.02 0.24 0 0.04 0.24 0 0.06 0.24 0 0.08 0.24 0 0.1 0.24 0 0 0.245 0 0.02 0.245 0 0.04 0.245 0 0.06 0.245 0 0.08 0.245 0 0.1 0.245 0 0 0.25 0 0.02 0.25 0 0.04 0.25 0 0.06 0.25 0 0.08 0.25 0 0.1 0.25 0 0 0.255 0 0.02 0.255 0 0.04 0.255 0 0.06 0.255 0 0.08 0.255 0 0.1 0.255 0 0 0.26 0 0.02 0.26 0 0.04 0.26 0 0.06 0.26 0 0.08 0.26 0 0.1 0.26 0 0 0.265 0 0.02 0.265 0 0.04 0.265 0 0.06 0.265 0 0.08 0.265 0 0.1 0.265 0 0 0.27 0 0.02 0.27 0 0.04 0.27 0 0.06 0.27 0 0.08 0.27 0 0.1 0.27 0 0 0.275 0 0.02 0.275 0 0.04 0.275 0 0.06 0.275 0 0.08 0.275 0 0.1 0.275 0 0 0.28 0 0.02 0.28 0 0.04 0.28 0 0.06 0.28 0 0.08 0.28 0 0.1 0.28 0 0 0.285 0 0.02 0.285 0 0.04 0.285 0 0.06 0.285 0 0.08 0.285 0 0.1 0.285 0 0 0.29 0 0.02 0.29 0 0.04 0.29 0 0.06 0.29 0 0.08 0.29 0 0.1 0.29 0 0 0.295 0 0.02 0.295 0 0.04 0.295 0 0.06 0.295 0 0.08 0.295 0 0.1 0.295 0 0 0.300001 0 0.02 0.300001 0 0.04 0.300001 0 0.06 0.300001 0 0.08 0.300001 0 0.1 0.300001 0 0 0.305003 0 0.02 0.305003 0 0.04 0.305003 0 0.06 0.305003 0 0.08 0.305003 0 0.1 0.305003 0 0 0.310008 0 0.02 0.310008 0 0.04 0.310008 0 0.06 0.310008 0 0.08 0.310008 0 0.1 0.310008 0 0 0.315021 0 0.02 0.315021 0 0.04 0.315021 0 0.06 0.315021 0 0.08 0.315021 0 0.1 0.315021 0 0 0.320053 0 0.02 0.320053 0 0.04 0.320053 0 0.06 0.320053 0 0.08 0.320053 0 0.1 0.320053 0 0 0.325119 0 0.02 0.325119 0 0.04 0.325119 0 0.06 0.325119 0 0.08 0.325119 0 0.1 0.325119 0 0 0.330239 0 0.02 0.330239 0 0.04 0.330239 0 0.06 0.330239 0 0.08 0.330239 0 0.1 0.330239 0 0 0.335436 0 0.02 0.335436 0 0.04 0.335436 0 0.06 0.335436 0 0.08 0.335436 0 0.1 0.335436 0 0 0.340731 0 0.02 0.340731 0 0.04 0.340731 0 0.06 0.340731 0 0.08 0.340731 0 0.1 0.340731 0 0 0.346143 0 0.02 0.346143 0 0.04 0.346143 0 0.06 0.346143 0 0.08 0.346143 0 0.1 0.346143 0 0 0.351686 0 0.02 0.351686 0 0.04 0.351686 0 0.06 0.351686 0 0.08 0.351686 0 0.1 0.351686 0 0 0.357373 0 0.02 0.357373 0 0.04 0.357373 0 0.06 0.357373 0 0.08 0.357373 0 0.1 0.357373 0 0 0.363216 0 0.02 0.363216 0 0.04 0.363216 0 0.06 0.363216 0 0.08 0.363216 0 0.1 0.363216 0 0 0.369226 0 0.02 0.369226 0 0.04 0.369226 0 0.06 0.369226 0 0.08 0.369226 0 0.1 0.369226 0 0 0.375416 0 0.02 0.375416 0 0.04 0.375416 0 0.06 0.375416 0 0.08 0.375416 0 0.1 0.375416 0 0 0.3818 0 0.02 0.3818 0 0.04 0.3818 0 0.06 0.3818 0 0.08 0.3818 0 0.1 0.3818 0 0 0.388393 0 0.02 0.388393 0 0.04 0.388393 0 0.06 0.388393 0 0.08 0.388393 0 0.1 0.388393 0 0 0.395211 0 0.02 0.395211 0 0.04 0.395211 0 0.06 0.395211 0 0.08 0.395211 0 0.1 0.395211 0 0 0.402271 0 0.02 0.402271 0 0.04 0.402271 0 0.06 0.402271 0 0.08 0.402271 0 0.1 0.402271 0 0 0.409594 0 0.02 0.409594 0 0.04 0.409594 0 0.06 0.409594 0 0.08 0.409594 0 0.1 0.409594 0 0 0.417203 0 0.02 0.417203 0 0.04 0.417203 0 0.06 0.417203 0 0.08 0.417203 0 0.1 0.417203 0 0 0.425123 0 0.02 0.425123 0 0.04 0.425123 0 0.06 0.425123 0 0.08 0.425123 0 0.1 0.425123 0 0 0.433383 0 0.02 0.433383 0 0.04 0.433383 0 0.06 0.433383 0 0.08 0.433383 0 0.1 0.433383 0 0 0.442016 0 0.02 0.442016 0 0.04 0.442016 0 0.06 0.442016 0 0.08 0.442016 0 0.1 0.442016 0 0 0.45106 0 0.02 0.45106 0 0.04 0.45106 0 0.06 0.45106 0 0.08 0.45106 0 0.1 0.45106 0 0 0.460557 0 0.02 0.460557 0 0.04 0.460557 0 0.06 0.460557 0 0.08 0.460557 0 0.1 0.460557 0 0 0.470553 0 0.02 0.470553 0 0.04 0.470553 0 0.06 0.470553 0 0.08 0.470553 0 0.1 0.470553 0 0 0.481098 0 0.02 0.481098 0 0.04 0.481098 0 0.06 0.481098 0 0.08 0.481098 0 0.1 0.481098 0 0 0.492237 0 0.02 0.492237 0 0.04 0.492237 0 0.06 0.492237 0 0.08 0.492237 0 0.1 0.492237 0 0 0.503982 0 0.02 0.503982 0 0.04 0.503982 0 0.06 0.503982 0 0.08 0.503982 0 0.1 0.503982 0 0 0.516228 0 0.02 0.516228 0 0.04 0.516228 0 0.06 0.516228 0 0.08 0.516228 0 0.1 0.516228 0 0 0.528591 0 0.02 0.528591 0 0.04 0.528591 0 0.06 0.528591 0 0.08 0.528591 0 0.1 0.528591 0 0 0.540819 0 0.02 0.540819 0 0.04 0.540819 0 0.06 0.540819 0 0.08 0.540819 0 0.1 0.540819 0 0 0.552904 0 0.02 0.552904 0 0.04 0.552904 0 0.06 0.552904 0 0.08 0.552904 0 0.1 0.552904 0 0 0.564866 0 0.02 0.564866 0 0.04 0.564866 0 0.06 0.564866 0 0.08 0.564866 0 0.1 0.564866 0 0 0.576748 0 0.02 0.576748 0 0.04 0.576748 0 0.06 0.576748 0 0.08 0.576748 0 0.1 0.576748 0 0 0.588589 0 0.02 0.588589 0 0.04 0.588589 0 0.06 0.588589 0 0.08 0.588589 0 0.1 0.588589 0 0 0.600411 0 0.02 0.600411 0 0.04 0.600411 0 0.06 0.600411 0 0.08 0.600411 0 0.1 0.600411 0 0 0.612224 0 0.02 0.612224 0 0.04 0.612224 0 0.06 0.612224 0 0.08 0.612224 0 0.1 0.612224 0 0 0.624034 0 0.02 0.624034 0 0.04 0.624034 0 0.06 0.624034 0 0.08 0.624034 0 0.1 0.624034 0 0 0.635847 0 0.02 0.635847 0 0.04 0.635847 0 0.06 0.635847 0 0.08 0.635847 0 0.1 0.635847 0 0 0.638127 0 0.02 0.638127 0 0.04 0.638127 0 0.06 0.638127 0 0.08 0.638127 0 0.1 0.638127 0 0 0.640407 0 0.02 0.640407 0 0.04 0.640407 0 0.06 0.640407 0 0.08 0.640407 0 0.1 0.640407 0 0 0.642687 0 0.02 0.642687 0 0.04 0.642687 0 0.06 0.642687 0 0.08 0.642687 0 0.1 0.642687 0 0 0.644967 0 0.02 0.644967 0 0.04 0.644967 0 0.06 0.644967 0 0.08 0.644967 0 0.1 0.644967 0 0 0.647247 0 0.02 0.647247 0 0.04 0.647247 0 0.06 0.647247 0 0.08 0.647247 0 0.1 0.647247 0 0 0.649527 0 0.02 0.649527 0 0.04 0.649527 0 0.06 0.649527 0 0.08 0.649527 0 0.1 0.649527 0 0 0.651803 0 0.02 0.651803 0 0.04 0.651803 0 0.06 0.651803 0 0.08 0.651803 0 0.1 0.651803 0 0 0.654078 0 0.02 0.654078 0 0.04 0.654078 0 0.06 0.654078 0 0.08 0.654078 0 0.1 0.654078 0 0 0.656359 0 0.02 0.656359 0 0.04 0.656359 0 0.06 0.656359 0 0.08 0.656359 0 0.1 0.656359 0 0 0.658639 0 0.02 0.658639 0 0.04 0.658639 0 0.06 0.658639 0 0.08 0.658639 0 0.1 0.658639 0 0 0.660918 0 0.02 0.660918 0 0.04 0.660918 0 0.06 0.660918 0 0.08 0.660918 0 0.1 0.660918 0 0 0.663197 0 0.02 0.663197 0 0.04 0.663197 0 0.06 0.663197 0 0.08 0.663197 0 0.1 0.663197 0 0 0.665476 0 0.02 0.665476 0 0.04 0.665476 0 0.06 0.665476 0 0.08 0.665476 0 0.1 0.665476 0 0 0.667754 0 0.02 0.667754 0 0.04 0.667754 0 0.06 0.667754 0 0.08 0.667754 0 0.1 0.667754 0 0 0.670032 0 0.02 0.670032 0 0.04 0.670032 0 0.06 0.670032 0 0.08 0.670032 0 0.1 0.670032 0 0 0.672312 0 0.02 0.672312 0 0.04 0.672312 0 0.06 0.672312 0 0.08 0.672312 0 0.1 0.672312 0 0 0.674594 0 0.02 0.674594 0 0.04 0.674594 0 0.06 0.674594 0 0.08 0.674594 0 0.1 0.674594 0 0 0.676875 0 0.02 0.676875 0 0.04 0.676875 0 0.06 0.676875 0 0.08 0.676875 0 0.1 0.676875 0 0 0.679157 0 0.02 0.679157 0 0.04 0.679157 0 0.06 0.679157 0 0.08 0.679157 0 0.1 0.679157 0 0 0.681438 0 0.02 0.681438 0 0.04 0.681438 0 0.06 0.681438 0 0.08 0.68143
[...]
			<PointData Scalars="VitesseX">
				<DataArray Name="VitesseX" type="Float32" format="ascii">
 0 2.3998e-15 6.12313e-15 -5.70107e-15 7.11695e-15 0 0 2.01464e-15 5.85447e-15 -4.41407e-15 6.8258e-15 0 0 1.27266e-15 5.84622e-15 -2.71438e-15 6.78114e-15 0 0 1.68279e-15 5.11864e-15 -1.88544e-15 6.96231e-15 0 0 2.99776e-15 2.74394e-15 2.91365e-16 6.62581e-15 0 0 2.98671e-15 1.34995e-15 2.47857e-15 5.95783e-15 0 0 2.98615e-15 1.25459e-16 5.11603e-15 3.55579e-15 0 0 2.22679e-15 9.93605e-17 4.3097e-15 4.84999e-15 0 0 1.08797e-15 1.22009e-15 -7.43737e-16 9.77506e-15 0 0 1.34508e-15 9.04537e-16 -1.50168e-15 1.08555e-14 0 0 1.79936e-15 -1.33566e-15 4.01092e-15 7.96472e-15 0 0 8.46388e-16 -2.98069e-15 7.88824e-15 5.34002e-15 0 0 -1.51478e-15 -8.4404e-16 7.29688e-15 1.88673e-15 0 0 -2.70634e-15 4.50972e-15 3.57692e-15 -5.34545e-16 0 0 -1.95758e-15 6.4539e-15 -1.13113e-15 2.93405e-15 0 0 -2.141e-15 3.25229e-15 1.36577e-15 -1.98679e-16 0 0 -1.91107e-15 -2.17384e-16 8.06677e-15 -7.28152e-15 0 0 1.49601e-15 -8.51953e-16 4.9998e-15 -6.60053e-15 0 0 -2.40108e-16 2.13429e-15 -3.53126e-15 -2.81348e-15 0 0 -7.20428e-15 4.28192e-15 -5.1153e-15 8.10052e-16 0 0 -2.34327e-15 -4.92157e-15 3.07904e-15 -1.78481e-15 0 0 4.7698e-15 -1.18066e-14 4.28307e-15 4.75738e-16 0 0 -1.61853e-15 -5.70444e-15 1.73936e-16 5.31967e-15 0 0 -6.95178e-15 3.43974e-17 -1.38353e-15 5.17297e-15 0 0 -8.27491e-15 5.85734e-15 -8.33896e-15 7.67165e-15 0 0 -5.76122e-15 3.54518e-15 -6.8573e-15 4.43259e-15 0 0 -3.90817e-15 5.94314e-15 -4.8907e-15 -1.66367e-15 0 0 -9.9426e-15 1.26722e-14 -3.85091e-15 -3.44358e-15 0 0 -1.18766e-14 7.11747e-15 -3.61239e-15 4.42027e-15 0 0 -9.58291e-15 -2.70906e-16 2.00656e-15 1.81678e-15 0 0 -1.13955e-14 -7.20191e-16 1.22393e-14 -1.53024e-14 0 0 -1.05153e-14 4.79889e-15 4.85249e-15 -1.4079e-14 0 0 -6.97925e-15 4.30843e-15 -1.47551e-15 -9.56661e-15 0 0 -6.92138e-15 4.88682e-15 -4.97827e-15 -1.19448e-14 0 0 -1.5966e-15 3.72697e-15 -7.22144e-15 -1.17637e-14 0 0 1.58635e-15 1.31847e-14 -1.63838e-14 -6.34283e-15 0 0 6.79114e-15 1.74542e-14 -1.29048e-14 5.08845e-16 0 0 6.48871e-15 1.33218e-14 7.83984e-15 6.58271e-17 0 0 2.30187e-16 1.85507e-14 1.22555e-14 6.78895e-15 0 0 2.62807e-15 1.2019e-14 1.16051e-14 1.71451e-14 0 0 8.37369e-15 2.56198e-15 3.37896e-15 2.63792e-14 0 0 6.20487e-15 -1.42284e-15 1.65592e-15 2.42348e-14 0 0 5.5318e-15 -2.3766e-15 8.41814e-15 3.94204e-15 0 0 9.95898e-15 -5.97077e-16 4.86082e-15 -2.99109e-16 0 0 5.35005e-15 -8.38045e-16 7.31873e-15 -3.54666e-15 0 0 3.86888e-15 -2.70675e-15 1.57573e-14 -2.16076e-14 0 0 8.65732e-15 1.82532e-15 8.27134e-15 -1.66981e-14 0 0 4.89135e-15 2.06303e-14 -7.88132e-15 1.36409e-14 0 0 9.13267e-15 1.70567e-14 1.91569e-15 1.83899e-14 0 0 1.28293e-14 -2.4633e-15 2.15981e-14 7.53489e-15 0 0 -6.21831e-16 9.62181e-16 1.48359e-14 9.2951e-15 0 0 -7.44213e-15 9.11934e-15 4.64287e-15 -4.48477e-15 0 0 -1.11365e-14 2.14241e-14 4.16569e-15 -1.53516e-14 0 0 -1.09276e-14 1.98607e-14 1.19495e-14 -2.56432e-14 0 0 -2.82214e-15 -1.39464e-14 1.90419e-14 -4.42234e-14 0 0 -2.33207e-14 -2.77067e-14 7.93364e-15 -4.29654e-14 0 0 -3.34243e-14 -1.91937e-14 -2.44567e-14 -4.82871e-14 0 0 5.2703e-15 -2.64733e-14 -2.81831e-14 -7.83177e-14 0 0 5.13815e-15 -2.22491e-14 -2.77955e-14 -7.57099e-14 0 0 -1.36394e-14 7.20386e-15 -7.60739e-14 -2.37958e-14 0 0 1.12479e-14 3.73072e-15 -6.91967e-14 -3.77393e-15 0 0 3.93147e-14 -4.15219e-14 -9.86214e-15 -2.55532e-14 0 0 2.06088e-14 -4.10431e-14 -1.81778e-15 -3.85882e-14 0 0 -3.75207e-14 -6.94641e-15 -1.38876e-14 -2.08388e-14 0 0 -3.58973e-14 -4.25961e-15 -2.24543e-14 8.66975e-15 0 0 2.26212e-14 -2.90498e-14 -2.2604e-14 1.80846e-14 0 0 1.04985e-14 -2.5255e-14 -1.55232e-15 2.32581e-15 0 0 -2.34632e-15 -2.18689e-14 3.83461e-15 -1.24812e-14 0 0 4.61617e-15 -3.05757e-14 2.19468e-14 -2.66211e-14 0 0 -1.19649e-14 -2.03318e-14 2.36315e-14 -1.87974e-14 0 0 5.41219e-16 -1.21006e-14 2.582e-14 -2.07764e-14 0 0 1.03651e-14 -6.52963e-15 3.18444e-14 -6.20931e-14 0 0 3.57423e-16 6.03484e-15 1.86403e-14 -7.30997e-14 0 0 -3.95847e-15 -7.19497e-15 1.72796e-14 -4.76435e-14 0 0 -1.67333e-14 -8.47454e-15 3.33801e-14 -3.00283e-14 0 0 -2.44795e-14 -6.98851e-15 4.24699e-14 -4.16285e-14 0 0 -5.3385e-15 -2.32765e-14 1.34552e-14 -2.01775e-14 0 0 -2.21957e-15 -3.99044e-15 1.1275e-15 1.11879e-14 0 0 -1.20857e-14 4.89568e-15 3.41878e-15 1.17587e-14 0 0 6.98441e-15 -1.84592e-14 9.75825e-15 -1.60569e-14 0 0 2.3192e-15 -1.8144e-14 -3.60465e-15 -1.15744e-14 0 0 9.89449e-15 -4.13026e-15 -2.10146e-14 2.95824e-14 0 0 2.11566e-14 -2.83815e-14 -6.15442e-15 2.21452e-14 0 0 -2.69057e-14 -1.43932e-14 -1.26268e-14 9.15784e-15 0 0 -2.90603e-14 1.17955e-14 -2.61108e-14 2.8524e-14 0 0 1.14248e-14 8.2608e-16 5.56506e-15 -9.35746e-15 0 0 3.4087e-14 -1.17724e-14 2.55273e-14 -1.14383e-14 0 0 1.68738e-14 1.33683e-17 3.42677e-15 8.57611e-15 0 0 8.48137e-15 -5.20144e-15 1.82047e-14 -9.22531e-15 0 0 1.38744e-14 -5.30392e-15 3.6218e-14 3.46353e-15 0 0 -1.53225e-14 -1.42508e-14 -2.99728e-14 -1.01327e-14 0 0 -8.31264e-14 -1.38474e-13 -1.39103e-13 -1.0317e-13 0 0 -1.77786e-13 -3.04992e-13 -2.8192e-13 -2.0321e-13 0 0 -2.57056e-13 -4.07429e-13 -4.06205e-13 -2.53007e-13 0 0 -2.5597e-13 -4.07068e-13 -4.04058e-13 -2.48458e-13 0 0 -1.63454e-13 -2.69063e-13 -2.6236e-13 -1.56198e-13 0 0 -1.35684e-14 -2.16835e-14 -3.56277e-14 -1.00351e-14 0 0 1.31935e-13 2.19517e-13 2.08993e-13 1.37087e-13 0 0 2.46409e-13 3.98715e-13 4.06912e-13 2.46022e-13 0 0 2.96451e-13 4.9057e-13 4.87618e-13 2.72769e-13 0 0 3.02252e-13 5.12421e-13 4.84296e-13 2.71344e-13 0 0 3.40075e-13 5.86396e-13 5.69556e-13 3.2417e-13 0 0 3.19185e-13 5.5663e-13 5.18657e-13 3.63167e-13 0 0 2.83392e-13 4.98063e-13 4.13536e-13 3.51522e-13 0 0 2.40854e-13 3.68531e-13 3.17821e-13 2.62319e-13 0 0 1.73899e-13 2.22717e-13 1.87745e-13 1.29252e-13 0 0 2.18673e-13 2.97896e-13 3.15248e-13 1.76121e-13 0 0 7.72779e-13 1.22817e-12 1.25096e-12 7.52511e-13 0 0 1.66494e-12 2.62786e-12 2.64193e-12 1.63964e-12 0 0 2.46038e-12 3.90197e-12 3.93828e-12 2.40907e-12 0 0 2.78401e-12 4.44236e-12 4.48937e-12 2.77866e-12 0 0 2.6361e-12 4.25131e-12 4.26592e-12 2.65208e-12 0 0 2.32324e-12 3.73617e-12 3.77587e-12 2.29322e-12 0 0 1.99184e-12 3.13418e-12 3.18448e-12 1.96807e-12 0 0 1.63838e-12 2.60049e-12 2.63155e-12 1.63278e-12 0 0 1.35612e-12 2.14831e-12 2.21836e-12 1.34718e-12 0 0 1.15101e-12 1.79184e-12 1.81716e-12 1.16433e-12 0 0 9.82589e-13 1.48451e-12 1.5145e-12 9.85025e-13 0 0 8.18587e-13 1.23864e-12 1.26809e-12 7.76871e-13 0 0 6.6238e-13 1.06069e-12 1.02134e-12 6.53246e-13 0 0 5.63741e-13 8.79943e-13 8.32658e-13 5.34265e-13 0 0 4.86102e-13 7.04129e-13 7.53461e-13 4.55964e-13 0 0 3.87703e-13 6.09548e-13 6.11643e-13 4.17561e-13 0 0 3.2881e-13 5.76608e-13 4.95067e-13 3.0224e-13 0 0 2.98515e-13 4.85896e-13 4.56683e-13 2.61335e-13 0 0 2.7588e-13 3.87306e-13 3.95517e-13 1.98281e-13 0 0 2.63715e-13 3.19902e-13 4.27125e-13 8.28518e-14 0 0 2.40405e-13 2.70639e-13 3.79303e-13 8.37903e-14 0 0 1.99702e-13 2.42354e-13 2.96131e-13 8.77146e-14 0 0 1.66675e-13 1.85544e-13 2.45395e-13 6.88548e-14 0 0 1.40663e-13 1.08865e-13 2.47442e-13 1.70631e-14 0 0 1.06504e-13 9.83151e-14 1.82006e-13 -3.22143e-14 0 0 8.37413e-14 1.12862e-13 1.12264e-13 -6.75218e-14 0 0 4.59731e-14 9.6338e-14 1.26273e-13 -1.18867e-13 0 0 2.0136e-14 5.50495e-14 7.61202e-14 -8.57419e-14 0 0 -1.05949e-14 1.51351e-14 1.43422e-14 -5.68118e-14 0 0 -6.92026e-14 -2.8144e-14 -2.28321e-14 -8.3408e-14 0 0 -8.48502e-14 -7.42937e-14 -1.19048e-13 -1.4404e-14 0 0 -1.38887e-13 -1.15354e-13 -2.07522e-13 2.76953e-15 0 0 -1.88814e-13 -2.1847e-13 -2.26869e-13 -5.72369e-14 0 0 -1.89902e-13 -3.38037e-13 -2.50624e-13 -1.08536e-13 0 0 -2.52384e-13 -3.96351e-13 -3.7442e-13 -1.83939e-13 0 0 -3.13649e-13 -4.40777e-13 -4.93636e-13 -2.66445e-13 0 0 -3.61192e-13 -5.27498e-13 -5.81381e-13 -3.22118e-13 0 0 -3.85904e-13 -5.69778e-13 -6.84954e-13 -3.74952e-13 0 0 -4.25716e-13 -6.22937e-13 -8.16852e-13 -4.22953e-13 0 0 -4.48627e-13 -6.95319e-13 -8.08369e-13 -3.74944e-13 0 0 -4.37389e-13 -6.73324e-13 -6.94831e-13 -4.53443e-13 0 0 -4.10734e-13 -6.51013e-13 -7.16386e-13 -4.08525e-13 0 0 -3.33473e-13 -5.8131e-13 -6.30176e-13 -2.56682e-13 0 0 -3.15358e-13 -5.0121e-13 -5.33768e-13 -3.30448e-13 0 0 -2.53545e-13 -4.02296e-13 -3.97692e-13 -2.68005e-13 0 0 -1.86268e-13 -2.99619e-13 -2.96708e-13 -1.83701e-13 0 0 -1.22966e-13 -2.07458e-13 -2.22382e-13 -1.31169e-13 0 0 -7.08844e-14 -1.44401e-13 -1.35835e-13 -4.11001e-14 0 0 -5.23023e-14 -1.05788e-13 -9.66995e-14 -4.22468e-14 0 0 -4.86696e-14 -6.30679e-14 -1.12996e-13 -5.86957e-14 0 0 -4.16264e-14 -6.19604e-14 -1.11714e-13 -3.98777e-14 0 0 -3.31707e-14 -7.43007e-14 -9.41838e-14 -3.04607e-14 0 0 -3.91149e-14 -5.86732e-14 -8.6427e-14 -6.59439e-14 0 0 -3.30207e-14 -7.83674e-14 -7.96395e-14 -7.70326e-14 0 0 -2.14007e-14 -9.86154e-14 -9.14679e-14 -2.96158e-14 0 0 -1.66172e-14 -9.13957e-14 -9.78719e-14 -6.91187e-14 0 0 -3.60604e-14 -8.06731e-14 -1.16426e-13 -7.24194e-14 0 0 -5.65618e-14 -7.39591e-14 -1.34641e-13 -2.59824e-15 0 0 -3.20114e-14 -1.09388e-13 -8.24592e-14 -6.56826e-14 0 0 -2.03277e-14 -1.40082e-13 -5.4249e-14 -1.14526e-13 0 0 -2.08066e-14 -1.27869e-13 -6.21616e-14 -8.52478e-14 0 0 -1.08336e-14 -1.2205e-13 -6.8934e-14 -6.17686e-14 0 0 -1.89336e-14 -1.20585e-13 -6.65503e-14 -3.07469e-14 0 0 -1.93019e-14 -1.11257e-13 -4.3312e-14 -5.10555e-15 0 0 -2.72145e-15 -1.0549e-13 -3.37245e-14 -1.32663e-14 0 0 1.87154e-15 -9.35422e-14 -1.17918e-14 -2.32375e-14 0 0 2.96593e-15 -7.6234e-14 -9.4393e-15 -1.78668e-14 0 0 -1.78488e-14 -3.24724e-14 -4.78484e-14 1.09983e-15 0 0 -4.18794e-14 5.63252e-15 -8.23568e-14 4.17502e-14 0 0 -2.37726e-14 8.32774e-15 -9.63574e-14 5.32034e-14 0 0 2.06948e-14 -2.19005e-14 -8.80127e-14 6.93955e-14 0 0 2.39836e-14 -2.13213e-15 -1.17047e-13 1.02492e-13 0 0 -1.07574e-14 2.30353e-14 -1.1132e-13 3.2849e-14 0 0 -1.92423e-14 6.982e-15 -8.63938e-14 -2.7747e-14 0 0 -2.72407e-14 -7.42753e-15 -6.90532e-14 2.63965e-14 0 0 1.56338e-14 -7.87646e-14 4.1665e-14 -1.78745e-14 0 0 2.3869e-14 -8.27858e-14 4.32069e-14 -4.82539e-14 0 0 -1.19039e-14 -7.64443e-15 -5.73789e-14 4.13319e-14 0 0 -1.48413e-14 1.11293e-14 -7.23625e-14 3.17817e-14 0 0 -2.50305e-14 -5.70354e-15 -5.77197e-14 -4.08195e-14 0 0 -2.42752e-14 -1.47157e-14 -3.78271e-14 -5.74658e-14 0 0 -1.11109e-14 -4.49649e-14 1.2008e-15 -6.66636e-14 0 0 -4.66649e-15 -4.42941e-14 -2.60808e-15 -8.1349e-14 0 0 3.08749e-14 -5.23466e-14 -2.32163e-14 -5.74861e-14 0 0 5.17593e-14 -1.008e-13 2.75936e-14 -4.09484e-14 0 0 -3.52259e-14 -3.8006e-14 5.70967e-14 -5.51916e-14 0 0 -3.94478e-14 1.13589e-14 1.74786e-14 -5.13841e-14 0 0 4.5309e-15 -1.74331e-14 -4.83195e-14 2.28041e-14 0 0 6.80151e-15 -7.29784e-14 -4.94928e-14 6.20523e-14 0 0 -1.1195e-14 -9.75035e-14 1.86523e-14 -4.3567e-14 0 0 -2.37152e-14 -1.07369e-13 2.34472e-14 -8.57664e-14 0 0 -6.51952e-15 -1.02958e-13 -1.44797e-14 -7.14227e-14 0 0 -1.88518e-14 -3.62721e-14 -6.11917e-14 -9.35142e-14 0 0 -2.3937e-14 -1.42211e-14 -8.472e-14 -9.44122e-14 0
				</DataArray>
				<DataArray Name="VitesseY" type="Float32" format="ascii">