<?xml version="1.0"?>
<VTKFile type="PolyData">
	<PolyData>
		<Piece NumberOfPoints="1206" NumberOfPolys="1000">
			<Points>
				<DataArray type="Float32" NumberOfComponents="3" format="ascii">
 0 0 0 0.02 0 0 0.04 0 0 0.06 0 0 0.08 0 0 0.1 0 0 0 0.005 0 0.02 0.005 0 0.04 0.005 0 0.06 0.005 0 0.08 0.005 0 0.1 0.005 0 0 0.01 0 0.02 0.01 0 0.04 0.01 0 0.06 0.01 0 0.08 0.01 0 0.1 0.01 0 0 0.015 0 0.02 0.015 0 0.04 0.015 0 0.06 0.015 0 0.08 0.015 0 0.1 0.015 0 0 0.02 0 0.02 0.02 0 0.04 0.02 0 0.06 0.02 0 0.08 0.02 0 0.1 0.02 0 0 0.025 0 0.02 0.025 0 0.04 0.025 0 0.06 0.025 0 0.08 0.025 0 0.1 0.025 0 0 0.03 0 0.02 0.03 0 0.04 0.03 0 0.06 0.03 0 0.08 0.03 0 0.1 0.03 0 0 0.035 0 0.02 0.035 0 0.04 0.035 0 0.06 0.035 0 0.08 0.035 0 0.1 0.035 0 0 0.04 0 0.02 0.04 0 0.04 0.04 0 0.06 0.04 0 0.08 0.04 0 0.1 0.04 0 0 0.045 0 0.02 0.045 0 0.04 0.045 0 0.06 0.045 0 0.08 0.045 0 0.1 0.045 0 0 0.05 0 0.02 0.05 0 0.04 0.05 0 0.06 0.05 0 0.08 0.05 0 0.1 0.05 0 0 0.055 0 0.02 0.055 0 0.04 0.055 0 0.06 0.055 0 0.08 0.055 0 0.1 0.055 0 0 0.06 0 0.02 0.06 0 0.04 0.06 0 0.06 0.06 0 0.08 0.06 0 0.1 0.06 0 0 0.065 0 0.02 0.065 0 0.04 0.065 0 0.06 0.065 0 0.08 0.065 0 0.1 0.065 0 0 0.07 0 0.02 0.07 0 0.04 0.07 0 0.06 0.07 0 0.08 0.07 0 0.1 0.07 0 0 0.075 0 0.02 0.075 0 0.04 0.075 0 0.06 0.075 0 0.08 0.075 0 0.1 0.075 0 0 0.08 0 0.02 0.08 0 0.04 0.08 0 0.06 0.08 0 0.08 0.08 0 0.1 0.08 0 0 0.085 0 0.02 0.085 0 0.04 0.085 0 0.06 0.085 0 0.08 0.085 0 0.1 0.085 0 0 0.09 0 0.02 0.09 0 0.04 0.09 0 0.06 0.09 0 0.08 0.09 0 0.1 0.09 0 0 0.095 0 0.02 0.095 0 0.04 0.095 0 0.06 0.095 0 0.08 0.095 0 0.1 0.095 0 0 0.1 0 0.02 0.1 0 0.04 0.1 0 0.06 0.1 0 0.08 0.1 0 0.1 0.1 0 0 0.105 0 0.02 0.105 0 0.04 0.105 0 0.06 0.105 0 0.08 0.105 0 0.1 0.105 0 0 0.11 0 0.02 0.11 0 0.04 0.11 0 0.06 0.11 0 0.08 0.11 0 0.1 0.11 0 0 0.115 0 0.02 0.115 0 0.04 0.115 0 0.06 0.115 0 0.08 0.115 0 0.1 0.115 0 0 0.12 0 0.02 0.12 0 0.04 0.12 0 0.06 0.12 0 0.08 0.12 0 0.1 0.12 0 0 0.125 0 0.02 0.125 0 0.04 0.125 0 0.06 0.125 0 0.08 0.125 0 0.1 0.125 0 0 0.13 0 0.02 0.13 0 0.04 0.13 0 0.06 0.13 0 0.08 0.13 0 0.1 0.13 0 0 0.135 0 0.02 0.135 0 0.04 0.135 0 0.06 0.135 0 0.08 0.135 0 0.1 0.135 0 0 0.14 0 0.02 0.14 0 0.04 0.14 0 0.06 0.14 0 0.08 0.14 0 0.1 0.14 0 0 0.145 0 0.02 0.145 0 0.04 0.145 0 0.06 0.145 0 0.08 0.145 0 0.1 0.145 0 0 0.15 0 0.02 0.15 0 0.04 0.15 0 0.06 0.15 0 0.08 0.15 0 0.1 0.15 0 0 0.155 0 0.02 0.155 0 0.04 0.155 0 0.06 0.155 0 0.08 0.155 0 0.1 0.155 0 0 0.16 0 0.02 0.16 0 0.04 0.16 0 0.06 0.16 0 0.08 0.16 0 0.1 0.16 0 0 0.165 0 0.02 0.165 0 0.04 0.165 0 0.06 0.165 0 0.08 0.165 0 0.1 0.165 0 0 0.17 0 0.02 0.17 0 0.04 0.17 0 0.06 0.17 0 0.08 0.17 0 0.1 0.17 0 0 0.175 0 0.02 0.175 0 0.04 0.175 0 0.06 0.175 0 0.08 0.175 0 0.1 0.175 0 0 0.18 0 0.02 0.18 0 0.04 0.18 0 0.06 0.18 0 0.08 0.18 0 0.1 0.18 0 0 0.185 0 0.02 0.185 0 0.04 0.185 0 0.06 0.185 0 0.08 0.185 0 0.1 0.185 0 0 0.19 0 0.02 0.19 0 0.04 0.19 0 0.06 0.19 0 0.08 0.19 0 0.1 0.19 0 0 0.195 0 0.02 0.195 0 0.04 0.195 0 0.06 0.195 0 0.08 0.195 0 0.1 0.195 0 0 0.2 0 0.02 0.2 0 0.04 0.2 0 0.06 0.2 0 0.08 0.2 0 0.1 0.2 0 0 0.205 0 0.02 0.205 0 0.04 0.205 0 0.06 0.205 0 0.08 0.205 0 0.1 0.205 0 0 0.21 0 0.02 0.21 0 0.04 0.21 0 0.06 0.21 0 0.08 0.21 0 0.1 0.21 0 0 0.215 0 0.02 0.215 0 0.04 0.215 0 0.06 0.215 0 0.08 0.215 0 0.1 0.215 0 0 0.22 0 0.02 0.22 0 0.04 0.22 0 0.06 0.22 0 0.08 0.22 0 0.1 0.22 0 0 0.225 0 0.02 0.225 0 0.04 0.225 0 0.06 0.225 0 0.08 0.225 0 0.1 0.225 0 0 0.23 0 0.02 0.23 0 0.04 0.23 0 0.06 0.23 0 0.08 0.23 0 0.1 0.23 0 0 0.235 0 0.02 0.235 0 0.04 0.235 0 0.06 0.235 0 0.08 0.235 0 0.1 0.235 0 0 0.24 0 0.02 0.24 0 0.04 0.24 0 0.06 0.24 0 0.08 0.24 0 0.1 0.24 0 0 0.245 0 0.02 0.245 0 0.04 0.245 0 0.06 0.245 0 0.08 0.245 0 0.1 0.245 0 0 0.25 0 0.02 0.25 0 0.04 0.25 0 0.06 0.25 0 0.08 0.25 0 0.1 0.25 0 0 0.255 0 0.02 0.255 0 0.04 0.255 0 0.06 0.255 0 0.08 0.255 0 0.1 0.255 0 0 0.26 0 0.02 0.26 0 0.04 0.26 0 0.06 0.26 0 0.08 0.26 0 0.1 0.26 0 0 0.265 0 0.02 0.265 0 0.04 0.265 0 0.06 0.265 0 0.08 0.265 0 0.1 0.265 0 0 0.27 0 0.02 0.27 0 0.04 0.27 0 0.06 0.27 0 0.08 0.27 0 0.1 0.27 0 0 0.275 0 0.02 0.275 0 0.04 0.275 0 0.06 0.275 0 0.08 0.275 0 0.1 0.275 0 0 0.28 0 0.02 0.28 0 0.04 0.28 0 0.06 0.28 0 0.08 0.28 0 0.1 0.28 0 0 0.285 0 0.02 0.285 0 0.04 0.285 0 0.06 0.285 0 0.08 0.285 0 0.1 0.285 0 0 0.29 0 0.02 0.29 0 0.04 0.29 0 0.06 0.29 0 0.08 0.29 0 0.1 0.29 0 0 0.295 0 0.02 0.295 0 0.04 0.295 0 0.06 0.295 0 0.08 0.295 0 0.1 0.295 0 0 0.3 0 0.02 0.3 0 0.04 0.3 0 0.06 0.3 0 0.08 0.3 0 0.1 0.3 0 0 0.305 0 0.02 0.305 0 0.04 0.305 0 0.06 0.305 0 0.08 0.305 0 0.1 0.305 0 0 0.31 0 0.02 0.31 0 0.04 0.31 0 0.06 0.31 0 0.08 0.31 0 0.1 0.31 0 0 0.315 0 0.02 0.315 0 0.04 0.315 0 0.06 0.315 0 0.08 0.315 0 0.1 0.315 0 0 0.32 0 0.02 0.32 0 0.04 0.32 0 0.06 0.32 0 0.08 0.32 0 0.1 0.32 0 0 0.325 0 0.02 0.325 0 0.04 0.325 0 0.06 0.325 0 0.08 0.325 0 0.1 0.325 0 0 0.33 0 0.02 0.33 0 0.04 0.33 0 0.06 0.33 0 0.08 0.33 0 0.1 0.33 0 0 0.335 0 0.02 0.335 0 0.04 0.335 0 0.06 0.335 0 0.08 0.335 0 0.1 0.335 0 0 0.34 0 0.02 0.34 0 0.04 0.34 0 0.06 0.34 0 0.08 0.34 0 0.1 0.34 0 0 0.345 0 0.02 0.345 0 0.04 0.345 0 0.06 0.345 0 0.08 0.345 0 0.1 0.345 0 0 0.35 0 0.02 0.35 0 0.04 0.35 0 0.06 0.35 0 0.08 0.35 0 0.1 0.35 0 0 0.355 0 0.02 0.355 0 0.04 0.355 0 0.06 0.355 0 0.08 0.355 0 0.1 0.355 0 0 0.36 0 0.02 0.36 0 0.04 0.36 0 0.06 0.36 0 0.08 0.36 0 0.1 0.36 0 0 0.365 0 0.02 0.365 0 0.04 0.365 0 0.06 0.365 0 0.08 0.365 0 0.1 0.365 0 0 0.37 0 0.02 0.37 0 0.04 0.37 0 0.06 0.37 0 0.08 0.37 0 0.1 0.37 0 0 0.375 0 0.02 0.375 0 0.04 0.375 0 0.06 0.375 0 0.08 0.375 0 0.1 0.375 0 0 0.38 0 0.02 0.38 0 0.04 0.38 0 0.06 0.38 0 0.08 0.38 0 0.1 0.38 0 0 0.385 0 0.02 0.385 0 0.04 0.385 0 0.06 0.385 0 0.08 0.385 0 0.1 0.385 0 0 0.39 0 0.02 0.39 0 0.04 0.39 0 0.06 0.39 0 0.08 0.39 0 0.1 0.39 0 0 0.395 0 0.02 0.395 0 0.04 0.395 0 0.06 0.395 0 0.08 0.395 0 0.1 0.395 0 0 0.4 0 0.02 0.4 0 0.04 0.4 0 0.06 0.4 0 0.08 0.4 0 0.1 0.4 0 0 0.405 0 0.02 0.405 0 0.04 0.405 0 0.06 0.405 0 0.08 0.405 0 0.1 0.405 0 0 0.41 0 0.02 0.41 0 0.04 0.41 0 0.06 0.41 0 0.08 0.41 0 0.1 0.41 0 0 0.415 0 0.02 0.415 0 0.04 0.415 0 0.06 0.415 0 0.08 0.415 0 0.1 0.415 0 0 0.42 0 0.02 0.42 0 0.04 0.42 0 0.06 0.42 0 0.08 0.42 0 0.1 0.42 0 0 0.425 0 0.02 0.425 0 0.04 0.425 0 0.06 0.425 0 0.08 0.425 0 0.1 0.425 0 0 0.43 0 0.02 0.43 0 0.04 0.43 0 0.06 0.43 0 0.08 0.43 0 0.1 0.43 0 0 0.435 0 0.02 0.435 0 0.04 0.435 0 0.06 0.435 0 0.08 0.435 0 0.1 0.435 0 0 0.44 0 0.02 0.44 0 0.04 0.44 0 0.06 0.44 0 0.08 0.44 0 0.1 0.44 0 0 0.445 0 0.02 0.445 0 0.04 0.445 0 0.06 0.445 0 0.08 0.445 0 0.1 0.445 0 0 0.450003 0 0.02 0.450003 0 0.04 0.450003 0 0.06 0.450003 0 0.08 0.450003 0 0.1 0.450003 0 0 0.455019 0 0.02 0.455019 0 0.04 0.455019 0 0.06 0.455019 0 0.08 0.455019 0 0.1 0.455019 0 0 0.460094 0 0.02 0.460094 0 0.04 0.460094 0 0.06 0.460094 0 0.08 0.460094 0 0.1 0.460094 0 0 0.465343 0 0.02 0.465343 0 0.04 0.465343 0 0.06 0.465343 0 0.08 0.465343 0 0.1 0.465343 0 0 0.470972 0 0.02 0.470972 0 0.04 0.470972 0 0.06 0.470972 0 0.08 0.470972 0 0.1 0.470972 0 0 0.47724 0 0.02 0.47724 0 0.04 0.47724 0 0.06 0.47724 0 0.08 0.47724 0 0.1 0.47724 0 0 0.484458 0 0.02 0.484458 0 0.04 0.484458 0 0.06 0.484458 0 0.08 0.484458 0 0.1 0.484458 0 0 0.493056 0 0.02 0.493056 0 0.04 0.493056 0 0.06 0.493056 0 0.08 0.493056 0 0.1 0.493056 0 0 0.503649 0 0.02 0.503649 0 0.04 0.503649 0 0.06 0.503649 0 0.08 0.503649 0 0.1 0.503649 0 0 0.516395 0 0.02 0.516395 0 0.04 0.516395 0 0.06 0.516395 0 0.08 0.516395 0 0.1 0.516395 0 0 0.52901 0 0.02 0.52901 0 0.04 0.52901 0 0.06 0.52901 0 0.08 0.52901 0 0.1 0.52901 0 0 0.531359 0 0.02 0.531359 0 0.04 0.531359 0 0.06 0.531359 0 0.08 0.531359 0 0.1 0.531359 0 0 0.533712 0 0.02 0.533712 0 0.04 0.533712 0 0.06 0.533712 0 0.08 0.533712 0 0.1 0.533712 0 0 0.53607 0 0.02 0.53607 0 0.04 0.53607 0 0.06 0.53607 0 0.08 0.53607 0 0.1 0.53607 0 0 0.538427 0 0.02 0.538427 0 0.04 0.538427 0 0.06 0.538427 0 0.08 0.538427 0 0.1 0.538427 0 0 0.54075 0 0.02 0.54075 0 0.04 0.54075 0 0.06 0.54075 0 0.08 0.54075 0 0.1 0.54075 0 0 0.543064 0 0.02 0.543064 0 0.04 0.543064 0 0.06 0.543064 0 0.08 0.543064 0 0.1 0.543064 0 0 0.545506 0 0.02 0.545506 0 0.04 0.545506 0 0.06 0.545506 0 0.08 0.545506 0 0.1 0.545506 0 0 0.54814 0 0.02 0.54814 0 0.04 0.54814 0 0.06 0.54814 0 0.08 0.54814 0 0.1 0.54814 0 0 0.550958 0 0.02 0.550958 0 0.04 0.550958 0 0.06 0.550958 0 0.08 0.550958 0 0.1 0.550958 0 0 0.554072 0 0.02 0.554072 0 0.04 0.554072 0 0.06 0.554072 0 0.08 0.554072 0 0.1 0.554072 0 0 0.557545 0 0.02 0.557545 0 0.04 0.557545 0 0.06 0.557545 0 0.08 0.557545 0 0.1 0.557545 0 0 0.561406 0 0.02 0.561406 0 0.04 0.561406 0 0.06 0.561406 0 0.08 0.561406 0 0.1 0.561406 0 0 0.565672 0 0.02 0.565672 0 0.04 0.565672 0 0.06 0.565672 0 0.08 0.565672 0 0.1 0.565672 0 0 0.570269 0 0.02 0.570269 0 0.04 0.570269 0 0.06 0.570269 0 0.08 0.570269 0 0.1 0.570269 0 0 0.57509 0 0.02 0.57509 0 0.04 0.57509 0 0.06 0.57509 0 0.08 0.57509 0 0.1 0.57509 0 0 0.580026 0 0.02 0.580026 0 0.04 0.580026 0 0.06 0.580026 0 0.08 0.580026 0 0.1 0.580026 0 0 0.585007 0 0.02 0.585007 0 0.04 0.585007 0 0.06 0.585007 0 0.08 0.585007 0 0.1 0.585007 0 0 0.590002 0 0.02 0.590002 0 0.04 0.590002 0 0.06 0.590002 0 0.08 0.590002 0 0.1 0.590002 0 0 0.595 0 0.02 0.595 0 0.04 0.595 0 0.06 0.595 0 0.08 0.595 0 0.1 0.595 0 0 0.6 0 0.02 0.6 0 0.04 0.6 0 0.06 0.6 0 0.08 0.6 0 0.1 0.6 0 0 0.605 0 0.02 0.605 0 0.04 0.605 0 0.06 0.605 0 0.08 0.605 0 0.1 0.605 0 0 0.61 0 0.02 0.61 0 0.04 0.61 0 0.06 0.61 0 0.08 0.61 0 0.1 0.61 0 0 0.615 0 0.02 0.615 0 0.04 0.615 0 0.06 0.615 0 0.08 0.615 0 0.1 0.615 0 0 0.62 0 0.02 0.62 0 0.04 0.62 0 0.06 0.62 0 0.08 0.62 0 0.1 0.62 0 0 0.625 0 0.02 0.625 0 0.04 0.625 0 0.06 0.625 0 0.08 0.625 0 0.1 0.625 0 0 0.63 0 0.02 0.63 0 0.04 0.63 0 0.06 0.63 0 0.08 0.63 0 0.1 0.63 0 0 0.635 0 0.02 0.635 0 0.04 0.635 0 0.06 0.635 0 0.08 0.635 0 0.1 0.635 0 0 0.64 0 0.02 0.64 0 0.04 0.64 0 0.06 0.64 0 0.08 0.64 0 0.1 0.64 0 0 0.645 0 0.02 0.645 0 0.04 0.645 0 0.06 0.645 0 0.08 0.645 0 0.1 0.645 0 0 0.65 0 0.02 0.65 0 0.04 0.65 0 0.06 0.65 0 0.
[...]
			<PointData Scalars="VitesseX">
				<DataArray Name="VitesseX" type="Float32" format="ascii">
 0 -5.84542e-17 -3.65114e-16 1.1539e-15 -4.13461e-16 0 0 4.7231e-17 -3.07951e-16 1.36421e-15 -1.04688e-15 0 0 7.30763e-16 -8.81875e-16 1.53811e-15 -1.18837e-15 0 0 5.53638e-17 -9.2014e-17 5.10192e-16 3.45531e-16 0 0 -1.76051e-15 1.04397e-15 9.78481e-16 1.54651e-16 0 0 -2.45499e-15 9.94911e-16 2.21495e-15 6.60203e-16 0 0 -1.71652e-15 9.3696e-16 2.25485e-15 2.71114e-15 0 0 1.63716e-15 -1.92768e-15 1.64572e-15 4.76799e-15 0 0 1.80435e-15 -2.83034e-15 1.92069e-15 4.89951e-15 0 0 5.17452e-16 -1.19308e-15 1.07212e-15 5.74502e-15 0 0 3.49576e-16 7.96284e-16 -2.97979e-15 8.61689e-15 0 0 1.34732e-15 -1.60286e-15 -3.48699e-16 7.57783e-15 0 0 1.69181e-15 -3.15534e-15 1.22144e-15 8.73046e-15 0 0 -2.86373e-15 2.38372e-15 -3.44204e-16 7.31947e-15 0 0 -1.90086e-15 -3.93095e-17 3.14568e-15 5.25414e-15 0 0 1.5661e-15 -2.20758e-15 1.63312e-15 6.2617e-15 0 0 1.93984e-16 1.98418e-15 -3.74131e-15 7.20652e-15 0 0 -9.56066e-16 4.76182e-15 -6.19587e-15 9.70325e-15 0 0 -1.49082e-15 5.43555e-15 -4.73138e-15 8.62777e-15 0 0 1.80624e-16 1.00213e-15 -7.28959e-16 6.1082e-15 0 0 2.63781e-15 -1.80485e-15 2.60077e-15 5.30349e-15 0 0 4.09634e-16 1.5735e-15 5.87022e-16 1.00092e-14 0 0 -8.86385e-16 3.59024e-17 4.00447e-15 7.486e-15 0 0 -2.61866e-15 -2.15622e-16 5.65756e-15 3.42041e-15 0 0 -3.16976e-15 5.49925e-15 -3.14676e-15 7.02376e-15 0 0 -2.97556e-15 7.30853e-15 -7.0478e-15 9.24005e-15 0 0 -6.57627e-15 7.76058e-15 -7.00634e-16 3.8656e-15 0 0 -7.37185e-16 5.15561e-15 9.82358e-15 -1.07916e-14 0 0 3.98599e-15 6.09318e-15 4.81771e-15 -1.13535e-14 0 0 -3.06471e-16 1.69824e-14 -5.04786e-15 -6.70896e-15 0 0 4.44966e-15 6.82016e-15 3.11489e-16 -6.67363e-15 0 0 8.42491e-15 -4.00439e-15 -2.20573e-15 1.8779e-15 0 0 9.51232e-17 2.79528e-15 -1.41348e-15 3.40869e-16 0 0 -2.72181e-15 4.83789e-15 7.60898e-15 -1.19924e-14 0 0 3.86064e-15 1.21691e-15 2.63368e-15 -6.05371e-15 0 0 3.46318e-15 -7.21674e-15 3.67457e-15 3.48502e-15 0 0 -2.0857e-15 -9.44115e-16 3.29804e-15 -1.99661e-15 0 0 2.57426e-15 -3.49093e-15 2.58405e-15 3.82859e-15 0 0 4.83845e-15 -7.7918e-15 6.20036e-15 1.12261e-14 0 0 1.52082e-15 4.86507e-15 -2.29126e-15 8.94578e-15 0 0 4.09766e-15 -5.70717e-16 -2.00622e-16 7.99576e-15 0 0 -2.67837e-15 -3.24923e-15 6.58264e-15 1.19578e-14 0 0 8.90809e-17 -4.56208e-15 8.98777e-15 1.38026e-14 0 0 5.28047e-15 2.66919e-15 6.26697e-16 7.37215e-15 0 0 1.19542e-16 1.18177e-14 -8.14505e-15 6.59271e-15 0 0 7.19425e-15 -5.72656e-15 9.6414e-15 -1.28742e-15 0 0 6.36292e-15 -8.76757e-15 1.33764e-14 2.14783e-17 0 0 4.09772e-16 -7.20502e-15 1.45402e-14 1.0108e-14 0 0 -1.99912e-15 2.02676e-15 9.1244e-15 5.71759e-15 0 0 2.28694e-15 8.6447e-15 -5.65859e-15 7.90303e-15 0 0 4.23903e-15 4.70909e-16 -6.89587e-15 1.34743e-14 0 0 -4.60757e-15 1.08838e-14 -1.05896e-14 7.62686e-15 0 0 3.41229e-15 7.04805e-15 -3.98768e-15 -2.11108e-15 0 0 6.4994e-15 6.44473e-15 1.44248e-15 -1.44527e-14 0 0 -2.8631e-15 2.49892e-14 -1.25066e-14 -1.5831e-14 0 0 -2.09986e-17 2.08616e-14 -1.49699e-14 -6.25668e-15 0 0 2.47918e-15 1.03633e-14 -3.90168e-15 -5.52024e-16 0 0 4.63372e-15 3.42901e-15 5.87865e-15 -7.72429e-15 0 0 9.46888e-15 2.95859e-15 -5.89592e-15 -8.28286e-15 0 0 6.00044e-15 4.66067e-15 -6.40696e-15 -2.62309e-15 0 0 9.89271e-16 9.97107e-15 -6.4766e-17 -6.93939e-15 0 0 9.07543e-15 2.70015e-15 -5.63683e-16 -8.20363e-15 0 0 9.31377e-15 -3.76908e-15 6.43799e-15 -1.15905e-14 0 0 1.97422e-17 4.07248e-15 -6.87234e-15 4.22745e-17 0 0 3.04022e-15 -4.18993e-15 -7.04734e-15 9.51818e-15 0 0 3.24643e-15 -7.31234e-16 -7.07405e-15 1.1275e-14 0 0 8.23503e-15 -9.37926e-16 1.01051e-15 2.49497e-15 0 0 9.94874e-15 6.45011e-15 1.32108e-15 -7.13124e-16 0 0 2.77647e-15 1.48821e-14 -1.03122e-14 1.08014e-14 0 0 -3.59156e-15 1.43421e-14 1.11645e-15 -1.01593e-15 0 0 -1.95766e-16 5.35072e-16 1.62306e-14 -1.00672e-14 0 0 9.13741e-15 -6.98013e-15 7.52557e-15 -4.30404e-15 0 0 4.34526e-15 4.27515e-15 2.27047e-15 -3.57803e-15 0 0 2.077e-15 3.34529e-15 1.07001e-14 6.06402e-16 0 0 1.50256e-14 -2.35677e-14 3.73089e-14 -1.47914e-14 0 0 1.11994e-14 -2.3492e-14 4.29662e-14 -2.65667e-14 0 0 9.54506e-16 -1.23982e-15 1.49497e-14 -3.91499e-15 0 0 3.82061e-15 1.87021e-15 2.96414e-16 5.41509e-15 0 0 -1.25372e-16 6.29931e-15 4.63865e-16 6.26041e-15 0 0 -5.77182e-15 3.36161e-15 2.10669e-14 -1.28144e-14 0 0 5.48408e-15 -8.41212e-15 3.0414e-14 -1.25163e-14 0 0 1.68911e-14 1.74811e-15 6.88077e-15 5.0203e-15 0 0 2.11705e-14 3.7675e-15 -7.52504e-16 -6.72972e-15 0 0 2.51372e-14 -1.09494e-15 -5.99571e-15 -4.05108e-15 0 0 4.32765e-15 2.08724e-14 -1.72039e-14 1.69939e-14 0 0 -3.51085e-15 4.94525e-15 1.01025e-14 2.11776e-14 0 0 7.98355e-15 -5.4763e-15 1.78571e-14 2.68382e-15 0 0 -5.68408e-15 1.08044e-14 -1.26017e-16 -1.16946e-14 0 0 4.16762e-15 2.11076e-15 6.11472e-15 -2.43123e-15 0 0 7.2071e-15 2.06594e-15 8.62283e-15 1.88446e-14 0 0 7.82116e-15 -2.00083e-15 1.03514e-14 1.13141e-14 0 0 1.54797e-14 -2.63583e-15 2.86537e-15 -3.82367e-15 0 0 -9.56142e-15 1.96037e-14 -4.4808e-15 1.33497e-15 0 0 -1.70806e-16 1.67494e-14 2.76916e-15 1.0868e-14 0 0 1.63574e-15 9.11414e-15 -8.05607e-16 3.62198e-15 0 0 -8.61149e-15 -2.71718e-15 -1.13502e-15 3.91125e-15 0 0 2.21634e-15 -9.06987e-15 -5.94627e-15 2.17989e-15 0 0 1.36204e-14 -1.79685e-15 -8.83163e-15 3.54857e-15 0 0 7.37184e-15 1.16144e-14 -1.26967e-14 1.54104e-14 0 0 5.69138e-14 1.10858e-13 7.64419e-14 8.72018e-14 0 0 2.54788e-13 4.11857e-13 3.67798e-13 2.88271e-13 0 0 1.66999e-12 2.69081e-12 2.6596e-12 1.71729e-12 0 0 2.61922e-12 4.28531e-12 4.23205e-12 2.6812e-12 0 0 3.89223e-12 6.38077e-12 6.30688e-12 3.89145e-12 0 0 4.68455e-12 7.60555e-12 7.58012e-12 4.72098e-12 0 0 4.38683e-12 6.97158e-12 7.12128e-12 4.36498e-12 0 0 3.38508e-12 5.4567e-12 5.56755e-12 3.38654e-12 0 0 3.21201e-12 5.20305e-12 5.18796e-12 3.26123e-12 0 0 4.92065e-12 7.93193e-12 7.88272e-12 4.96928e-12 0 0 6.97965e-12 1.13293e-11 1.13351e-11 7.0586e-12 0 0 6.60515e-12 1.05775e-11 1.07409e-11 6.62934e-12 0 0 5.75424e-12 9.24009e-12 9.3226e-12 5.72241e-12 0 0 4.38912e-12 7.14355e-12 7.10337e-12 4.40891e-12 0 0 1.50521e-12 2.43449e-12 2.43629e-12 1.5192e-12 0 0 2.90867e-13 4.73993e-13 4.91726e-13 2.78593e-13 0 0 2.11783e-14 3.1718e-14 6.26327e-14 1.25678e-14 0 0 5.46507e-15 4.48817e-15 2.03434e-14 -8.19042e-15 0 0 1.22967e-14 9.59323e-15 -8.96804e-15 -1.56298e-16 0 0 1.39581e-14 1.03347e-14 -5.48676e-15 7.29167e-16 0 0 1.07837e-14 -4.66722e-16 1.92206e-14 2.46869e-15 0 0 1.35492e-14 -1.68192e-14 4.53174e-14 -3.49085e-15 0 0 4.62063e-15 -3.99348e-15 2.09236e-14 2.45142e-14 0 0 1.0475e-15 4.40536e-15 -2.928e-16 3.32356e-14 0 0 1.46974e-14 -3.28224e-15 1.18765e-15 6.31112e-15 0 0 6.93114e-15 1.1389e-14 -2.05905e-15 -7.74455e-15 0 0 1.72328e-15 1.20679e-14 1.87123e-14 -2.50118e-15 0 0 6.11439e-15 1.70171e-14 1.00607e-14 8.64026e-15 0 0 8.9613e-15 1.25362e-14 1.24933e-14 1.35854e-14 0 0 1.87124e-14 1.31964e-14 2.07329e-14 8.77002e-15 0 0 1.85694e-14 3.01108e-14 1.05248e-14 -1.46094e-14 0 0 3.81739e-14 8.908e-15 1.81211e-14 -2.0397e-14 0 0 2.69534e-14 2.07988e-16 3.32228e-14 -2.30856e-14 0 0 1.02022e-14 4.85452e-15 2.13994e-14 -2.18643e-14 0 0 6.46284e-15 6.76436e-15 5.4288e-15 -1.02734e-14 0 0 -1.2462e-15 1.5818e-14 -1.09617e-14 2.66483e-14 0 0 5.69281e-15 1.30674e-14 -1.35021e-14 5.39245e-14 0 0 6.26036e-15 7.2064e-15 5.95754e-15 5.01609e-14 0 0 1.11364e-14 2.71804e-14 -6.65364e-15 4.99804e-14 0 0 1.72897e-14 1.66009e-14 2.11392e-14 4.50073e-15 0 0 1.6584e-14 8.11529e-15 1.76024e-14 -4.15514e-15 0 0 1.68928e-14 -5.7662e-15 1.49304e-14 1.8256e-14 0 0 3.48814e-14 -2.20127e-14 4.18712e-14 1.72824e-15 0 0 1.8795e-14 4.14188e-14 -1.84435e-14 1.20555e-14 0 0 1.71623e-14 3.97074e-14 -2.14775e-14 8.69765e-15 0 0 2.63857e-14 6.52999e-15 3.31492e-14 -1.10101e-14 0 0 1.1713e-14 3.74778e-14 3.13722e-14 -1.13784e-14 0 0 1.36224e-14 3.04841e-14 2.56034e-14 -1.38474e-14 0 0 1.48555e-14 1.91496e-14 -8.34822e-15 1.73055e-14 0 0 1.5553e-14 2.05683e-14 -2.4527e-15 -9.21849e-15 0 0 1.99396e-14 -2.37945e-15 3.60589e-14 -3.53227e-14 0 0 1.5511e-14 -6.32349e-15 2.7478e-14 -3.73734e-15 0 0 1.85236e-14 5.87902e-15 1.70755e-14 5.74964e-15 0 0 3.17012e-14 5.76808e-16 5.60169e-15 5.1146e-15 0 0 3.07565e-14 2.80059e-14 -5.27942e-15 -1.45274e-14 0 0 2.63918e-14 8.37025e-14 -3.30658e-14 -1.12448e-14 0 0 2.75518e-14 5.68036e-14 -2.44673e-14 -2.23468e-14 0 0 2.10974e-14 4.28731e-14 -1.53958e-14 -2.55466e-15 0 0 3.49937e-14 3.3212e-14 1.79264e-14 -1.39376e-15 0 0 2.3786e-14 1.05062e-14 8.18676e-14 -2.30342e-14 0 0 2.07062e-14 4.90231e-15 6.31951e-14 2.56687e-15 0 0 3.81568e-14 1.66196e-14 1.41802e-14 -1.75884e-14 0 0 4.55977e-14 1.29684e-14 3.08889e-14 -5.08078e-14 0 0 1.88476e-14 2.31258e-14 5.49956e-15 -1.06516e-14 0 0 7.60701e-16 3.56136e-14 2.02446e-15 -1.63887e-14 0 0 1.18399e-14 -1.13923e-15 7.43326e-14 -6.90041e-14 0 0 3.6966e-15 4.47589e-15 9.19246e-14 -3.60649e-14 0 0 2.0548e-14 7.94521e-15 9.47142e-14 -3.49436e-14 0 0 3.65832e-14 -6.55441e-15 7.24902e-14 -2.56573e-14 0 0 4.90702e-14 -1.25519e-14 1.25359e-14 2.94124e-14 0 0 2.92332e-14 -5.28364e-16 -1.66424e-14 4.78036e-14 0 0 2.42494e-14 -3.81424e-15 3.67196e-15 1.43865e-14 0 0 5.0213e-14 -2.88218e-14 4.67766e-14 -3.69951e-14 0 0 1.77967e-14 -1.4273e-14 4.04449e-14 1.3487e-14 0 0 9.67242e-15 7.525e-15 -2.04111e-14 7.18954e-14 0 0 1.34275e-14 1.58448e-14 -9.14332e-15 1.68637e-14 0 0 -9.36731e-15 1.6173e-14 3.71612e-14 7.9473e-15 0 0 1.41507e-14 -1.96414e-14 5.91962e-14 2.52304e-14 0 0 2.63331e-14 -1.10376e-14 4.10856e-14 -1.4709e-15 0 0 2.43976e-14 2.18431e-14 1.2773e-14 -3.84396e-14 0 0 1.07196e-14 4.67799e-14 8.19818e-16 -2.16661e-14 0 0 7.55211e-15 1.69651e-14 2.67867e-14 2.42052e-14 0 0 7.63006e-15 -3.55115e-15 6.42246e-14 -1.10529e-14 0 0 2.04262e-15 2.61264e-14 4.77069e-14 -2.97059e-14 0 0 5.18717e-15 2.12164e-14 6.34021e-14 -2.39273e-14 0 0 5.63945e-15 1.83998e-14 5.5125e-14 1.52222e-14 0 0 2.83998e-15 3.29311e-14 3.36504e-14 6.19537e-14 0 0 -4.78641e-15 4.17346e-14 7.40173e-14 3.06022e-14 0 0 1.3613e-14 4.22584e-14 6.05935e-14 -1.05518e-14 0 0 1.44108e-14 5.52257e-14 -2.49998e-15 2.20361e-14 0 0 4.01424e-14 5.85662e-15 1.33343e-15 2.78205e-14 0 0 1.87341e-14 -1.03321e-14 5.05293e-14 -1.70266e-14 0 0 -2.15796e-14 2.4022e-14 4.23405e-14 -8.87614e-15 0 0 -4.27547e-15 3.53978e-14 1.0061e-14 9.05181e-15 0 0 1.62157e-15 3.03207e-14 6.95268e-15 -3.82688e-15 0 0 1.2233e-14 -4.01561e-15 3.74373e-14 -4.009e-14 0 0 1.06383e-14 -1.96001e-14 4.20449e-14 -3.1709e-14 0 0 -1.52918e-14 2.18652e-15 1.58262e-14 -3.14377e-14 0 0 -1.37024e-14 6.12374e-15 1.44783e-14 -2.65547e-14 0 0 1.43576e-14 -9.12439e-15 3.82708e-14 -2.14637e-14 0 0 7.9761e-15 -1.54434e-16 5.05581e-14 -4.69691e-14 0 0 0 1.96735e-15 4.37664e-14 -4.68267e-14 0
				</DataArray>
				<DataArray Name="VitesseY" type="Float32" format="ascii">