<?xml version="1.0"?>
<VTKFile type="PolyData">
	<PolyData>
		<Piece NumberOfPoints="1206" NumberOfPolys="1000">
			<Points>
				<DataArray type="Float32" NumberOfComponents="3" format="ascii">
 0 0 0 0.02 0 0 0.04 0 0 0.06 0 0 0.08 0 0 0.1 0 0 0 0.005 0 0.02 0.005 0 0.04 0.005 0 0.06 0.005 0 0.08 0.005 0 0.1 0.005 0 0 0.01 0 0.02 0.01 0 0.04 0.01 0 0.06 0.01 0 0.08 0.01 0 0.1 0.01 0 0 0.015 0 0.02 0.015 0 0.04 0.015 0 0.06 0.015 0 0.08 0.015 0 0.1 0.015 0 0 0.02 0 0.02 0.02 0 0.04 0.02 0 0.06 0.02 0 0.08 0.02 0 0.1 0.02 0 0 0.025 0 0.02 0.025 0 0.04 0.025 0 0.06 0.025 0 0.08 0.025 0 0.1 0.025 0 0 0.03 0 0.02 0.03 0 0.04 0.03 0 0.06 0.03 0 0.08 0.03 0 0.1 0.03 0 0 0.035 0 0.02 0.035 0 0.04 0.035 0 0.06 0.035 0 0.08 0.035 0 0.1 0.035 0 0 0.04 0 0.02 0.04 0 0.04 0.04 0 0.06 0.04 0 0.08 0.04 0 0.1 0.04 0 0 0.045 0 0.02 0.045 0 0.04 0.045 0 0.06 0.045 0 0.08 0.045 0 0.1 0.045 0 0 0.05 0 0.02 0.05 0 0.04 0.05 0 0.06 0.05 0 0.08 0.05 0 0.1 0.05 0 0 0.055 0 0.02 0.055 0 0.04 0.055 0 0.06 0.055 0 0.08 0.055 0 0.1 0.055 0 0 0.06 0 0.02 0.06 0 0.04 0.06 0 0.06 0.06 0 0.08 0.06 0 0.1 0.06 0 0 0.065 0 0.02 0.065 0 0.04 0.065 0 0.06 0.065 0 0.08 0.065 0 0.1 0.065 0 0 0.07 0 0.02 0.07 0 0.04 0.07 0 0.06 0.07 0 0.08 0.07 0 0.1 0.07 0 0 0.075 0 0.02 0.075 0 0.04 0.075 0 0.06 0.075 0 0.08 0.075 0 0.1 0.075 0 0 0.08 0 0.02 0.08 0 0.04 0.08 0 0.06 0.08 0 0.08 0.08 0 0.1 0.08 0 0 0.085 0 0.02 0.085 0 0.04 0.085 0 0.06 0.085 0 0.08 0.085 0 0.1 0.085 0 0 0.09 0 0.02 0.09 0 0.04 0.09 0 0.06 0.09 0 0.08 0.09 0 0.1 0.09 0 0 0.095 0 0.02 0.095 0 0.04 0.095 0 0.06 0.095 0 0.08 0.095 0 0.1 0.095 0 0 0.1 0 0.02 0.1 0 0.04 0.1 0 0.06 0.1 0 0.08 0.1 0 0.1 0.1 0 0 0.105 0 0.02 0.105 0 0.04 0.105 0 0.06 0.105 0 0.08 0.105 0 0.1 0.105 0 0 0.11 0 0.02 0.11 0 0.04 0.11 0 0.06 0.11 0 0.08 0.11 0 0.1 0.11 0 0 0.115 0 0.02 0.115 0 0.04 0.115 0 0.06 0.115 0 0.08 0.115 0 0.1 0.115 0 0 0.12 0 0.02 0.12 0 0.04 0.12 0 0.06 0.12 0 0.08 0.12 0 0.1 0.12 0 0 0.125 0 0.02 0.125 0 0.04 0.125 0 0.06 0.125 0 0.08 0.125 0 0.1 0.125 0 0 0.13 0 0.02 0.13 0 0.04 0.13 0 0.06 0.13 0 0.08 0.13 0 0.1 0.13 0 0 0.135 0 0.02 0.135 0 0.04 0.135 0 0.06 0.135 0 0.08 0.135 0 0.1 0.135 0 0 0.14 0 0.02 0.14 0 0.04 0.14 0 0.06 0.14 0 0.08 0.14 0 0.1 0.14 0 0 0.145 0 0.02 0.145 0 0.04 0.145 0 0.06 0.145 0 0.08 0.145 0 0.1 0.145 0 0 0.15 0 0.02 0.15 0 0.04 0.15 0 0.06 0.15 0 0.08 0.15 0 0.1 0.15 0 0 0.155 0 0.02 0.155 0 0.04 0.155 0 0.06 0.155 0 0.08 0.155 0 0.1 0.155 0 0 0.16 0 0.02 0.16 0 0.04 0.16 0 0.06 0.16 0 0.08 0.16 0 0.1 0.16 0 0 0.165 0 0.02 0.165 0 0.04 0.165 0 0.06 0.165 0 0.08 0.165 0 0.1 0.165 0 0 0.17 0 0.02 0.17 0 0.04 0.17 0 0.06 0.17 0 0.08 0.17 0 0.1 0.17 0 0 0.175 0 0.02 0.175 0 0.04 0.175 0 0.06 0.175 0 0.08 0.175 0 0.1 0.175 0 0 0.18 0 0.02 0.18 0 0.04 0.18 0 0.06 0.18 0 0.08 0.18 0 0.1 0.18 0 0 0.185 0 0.02 0.185 0 0.04 0.185 0 0.06 0.185 0 0.08 0.185 0 0.1 0.185 0 0 0.19 0 0.02 0.19 0 0.04 0.19 0 0.06 0.19 0 0.08 0.19 0 0.1 0.19 0 0 0.195 0 0.02 0.195 0 0.04 0.195 0 0.06 0.195 0 0.08 0.195 0 0.1 0.195 0 0 0.2 0 0.02 0.2 0 0.04 0.2 0 0.06 0.2 0 0.08 0.2 0 0.1 0.2 0 0 0.205 0 0.02 0.205 0 0.04 0.205 0 0.06 0.205 0 0.08 0.205 0 0.1 0.205 0 0 0.21 0 0.02 0.21 0 0.04 0.21 0 0.06 0.21 0 0.08 0.21 0 0.1 0.21 0 0 0.215 0 0.02 0.215 0 0.04 0.215 0 0.06 0.215 0 0.08 0.215 0 0.1 0.215 0 0 0.22 0 0.02 0.22 0 0.04 0.22 0 0.06 0.22 0 0.08 0.22 0 0.1 0.22 0 0 0.225 0 0.02 0.225 0 0.04 0.225 0 0.06 0.225 0 0.08 0.225 0 0.1 0.225 0 0 0.23 0 0.02 0.23 0 0.04 0.23 0 0.06 0.23 0 0.08 0.23 0 0.1 0.23 0 0 0.235 0 0.02 0.235 0 0.04 0.235 0 0.06 0.235 0 0.08 0.235 0 0.1 0.235 0 0 0.24 0 0.02 0.24 0 0.04 0.24 0 0.06 0.24 0 0.08 0.24 0 0.1 0.24 0 0 0.245 0 0.02 0.245 0 0.04 0.245 0 0.06 0.245 0 0.08 0.245 0 0.1 0.245 0 0 0.25 0 0.02 0.25 0 0.04 0.25 0 0.06 0.25 0 0.08 0.25 0 0.1 0.25 0 0 0.255 0 0.02 0.255 0 0.04 0.255 0 0.06 0.255 0 0.08 0.255 0 0.1 0.255 0 0 0.26 0 0.02 0.26 0 0.04 0.26 0 0.06 0.26 0 0.08 0.26 0 0.1 0.26 0 0 0.265 0 0.02 0.265 0 0.04 0.265 0 0.06 0.265 0 0.08 0.265 0 0.1 0.265 0 0 0.27 0 0.02 0.27 0 0.04 0.27 0 0.06 0.27 0 0.08 0.27 0 0.1 0.27 0 0 0.275 0 0.02 0.275 0 0.04 0.275 0 0.06 0.275 0 0.08 0.275 0 0.1 0.275 0 0 0.28 0 0.02 0.28 0 0.04 0.28 0 0.06 0.28 0 0.08 0.28 0 0.1 0.28 0 0 0.285 0 0.02 0.285 0 0.04 0.285 0 0.06 0.285 0 0.08 0.285 0 0.1 0.285 0 0 0.29 0 0.02 0.29 0 0.04 0.29 0 0.06 0.29 0 0.08 0.29 0 0.1 0.29 0 0 0.295 0 0.02 0.295 0 0.04 0.295 0 0.06 0.295 0 0.08 0.295 0 0.1 0.295 0 0 0.3 0 0.02 0.3 0 0.04 0.3 0 0.06 0.3 0 0.08 0.3 0 0.1 0.3 0 0 0.305 0 0.02 0.305 0 0.04 0.305 0 0.06 0.305 0 0.08 0.305 0 0.1 0.305 0 0 0.31 0 0.02 0.31 0 0.04 0.31 0 0.06 0.31 0 0.08 0.31 0 0.1 0.31 0 0 0.315 0 0.02 0.315 0 0.04 0.315 0 0.06 0.315 0 0.08 0.315 0 0.1 0.315 0 0 0.32 0 0.02 0.32 0 0.04 0.32 0 0.06 0.32 0 0.08 0.32 0 0.1 0.32 0 0 0.325 0 0.02 0.325 0 0.04 0.325 0 0.06 0.325 0 0.08 0.325 0 0.1 0.325 0 0 0.33 0 0.02 0.33 0 0.04 0.33 0 0.06 0.33 0 0.08 0.33 0 0.1 0.33 0 0 0.335 0 0.02 0.335 0 0.04 0.335 0 0.06 0.335 0 0.08 0.335 0 0.1 0.335 0 0 0.34 0 0.02 0.34 0 0.04 0.34 0 0.06 0.34 0 0.08 0.34 0 0.1 0.34 0 0 0.345 0 0.02 0.345 0 0.04 0.345 0 0.06 0.345 0 0.08 0.345 0 0.1 0.345 0 0 0.35 0 0.02 0.35 0 0.04 0.35 0 0.06 0.35 0 0.08 0.35 0 0.1 0.35 0 0 0.355 0 0.02 0.355 0 0.04 0.355 0 0.06 0.355 0 0.08 0.355 0 0.1 0.355 0 0 0.36 0 0.02 0.36 0 0.04 0.36 0 0.06 0.36 0 0.08 0.36 0 0.1 0.36 0 0 0.365 0 0.02 0.365 0 0.04 0.365 0 0.06 0.365 0 0.08 0.365 0 0.1 0.365 0 0 0.37 0 0.02 0.37 0 0.04 0.37 0 0.06 0.37 0 0.08 0.37 0 0.1 0.37 0 0 0.375 0 0.02 0.375 0 0.04 0.375 0 0.06 0.375 0 0.08 0.375 0 0.1 0.375 0 0 0.380001 0 0.02 0.380001 0 0.04 0.380001 0 0.06 0.380001 0 0.08 0.380001 0 0.1 0.380001 0 0 0.385005 0 0.02 0.385005 0 0.04 0.385005 0 0.06 0.385005 0 0.08 0.385005 0 0.1 0.385005 0 0 0.390019 0 0.02 0.390019 0 0.04 0.390019 0 0.06 0.390019 0 0.08 0.390019 0 0.1 0.390019 0 0 0.395058 0 0.02 0.395058 0 0.04 0.395058 0 0.06 0.395058 0 0.08 0.395058 0 0.1 0.395058 0 0 0.400153 0 0.02 0.400153 0 0.04 0.400153 0 0.06 0.400153 0 0.08 0.400153 0 0.1 0.400153 0 0 0.405349 0 0.02 0.405349 0 0.04 0.405349 0 0.06 0.405349 0 0.08 0.405349 0 0.1 0.405349 0 0 0.410697 0 0.02 0.410697 0 0.04 0.410697 0 0.06 0.410697 0 0.08 0.410697 0 0.1 0.410697 0 0 0.416245 0 0.02 0.416245 0 0.04 0.416245 0 0.06 0.416245 0 0.08 0.416245 0 0.1 0.416245 0 0 0.422036 0 0.02 0.422036 0 0.04 0.422036 0 0.06 0.422036 0 0.08 0.422036 0 0.1 0.422036 0 0 0.428109 0 0.02 0.428109 0 0.04 0.428109 0 0.06 0.428109 0 0.08 0.428109 0 0.1 0.428109 0 0 0.434505 0 0.02 0.434505 0 0.04 0.434505 0 0.06 0.434505 0 0.08 0.434505 0 0.1 0.434505 0 0 0.441268 0 0.02 0.441268 0 0.04 0.441268 0 0.06 0.441268 0 0.08 0.441268 0 0.1 0.441268 0 0 0.448452 0 0.02 0.448452 0 0.04 0.448452 0 0.06 0.448452 0 0.08 0.448452 0 0.1 0.448452 0 0 0.45612 0 0.02 0.45612 0 0.04 0.45612 0 0.06 0.45612 0 0.08 0.45612 0 0.1 0.45612 0 0 0.46435 0 0.02 0.46435 0 0.04 0.46435 0 0.06 0.46435 0 0.08 0.46435 0 0.1 0.46435 0 0 0.473236 0 0.02 0.473236 0 0.04 0.473236 0 0.06 0.473236 0 0.08 0.473236 0 0.1 0.473236 0 0 0.482891 0 0.02 0.482891 0 0.04 0.482891 0 0.06 0.482891 0 0.08 0.482891 0 0.1 0.482891 0 0 0.493444 0 0.02 0.493444 0 0.04 0.493444 0 0.06 0.493444 0 0.08 0.493444 0 0.1 0.493444 0 0 0.50499 0 0.02 0.50499 0 0.04 0.50499 0 0.06 0.50499 0 0.08 0.50499 0 0.1 0.50499 0 0 0.517386 0 0.02 0.517386 0 0.04 0.517386 0 0.06 0.517386 0 0.08 0.517386 0 0.1 0.517386 0 0 0.529869 0 0.02 0.529869 0 0.04 0.529869 0 0.06 0.529869 0 0.08 0.529869 0 0.1 0.529869 0 0 0.542087 0 0.02 0.542087 0 0.04 0.542087 0 0.06 0.542087 0 0.08 0.542087 0 0.1 0.542087 0 0 0.554091 0 0.02 0.554091 0 0.04 0.554091 0 0.06 0.554091 0 0.08 0.554091 0 0.1 0.554091 0 0 0.565982 0 0.02 0.565982 0 0.04 0.565982 0 0.06 0.565982 0 0.08 0.565982 0 0.1 0.565982 0 0 0.577829 0 0.02 0.577829 0 0.04 0.577829 0 0.06 0.577829 0 0.08 0.577829 0 0.1 0.577829 0 0 0.580113 0 0.02 0.580113 0 0.04 0.580113 0 0.06 0.580113 0 0.08 0.580113 0 0.1 0.580113 0 0 0.582398 0 0.02 0.582398 0 0.04 0.582398 0 0.06 0.582398 0 0.08 0.582398 0 0.1 0.582398 0 0 0.584682 0 0.02 0.584682 0 0.04 0.584682 0 0.06 0.584682 0 0.08 0.584682 0 0.1 0.584682 0 0 0.586967 0 0.02 0.586967 0 0.04 0.586967 0 0.06 0.586967 0 0.08 0.586967 0 0.1 0.586967 0 0 0.589251 0 0.02 0.589251 0 0.04 0.589251 0 0.06 0.589251 0 0.08 0.589251 0 0.1 0.589251 0 0 0.591533 0 0.02 0.591533 0 0.04 0.591533 0 0.06 0.591533 0 0.08 0.591533 0 0.1 0.591533 0 0 0.593812 0 0.02 0.593812 0 0.04 0.593812 0 0.06 0.593812 0 0.08 0.593812 0 0.1 0.593812 0 0 0.59609 0 0.02 0.59609 0 0.04 0.59609 0 0.06 0.59609 0 0.08 0.59609 0 0.1 0.59609 0 0 0.598373 0 0.02 0.598373 0 0.04 0.598373 0 0.06 0.598373 0 0.08 0.598373 0 0.1 0.598373 0 0 0.600656 0 0.02 0.600656 0 0.04 0.600656 0 0.06 0.600656 0 0.08 0.600656 0 0.1 0.600656 0 0 0.602939 0 0.02 0.602939 0 0.04 0.602939 0 0.06 0.602939 0 0.08 0.602939 0 0.1 0.602939 0 0 0.605222 0 0.02 0.605222 0 0.04 0.605222 0 0.06 0.605222 0 0.08 0.605222 0 0.1 0.605222 0 0 0.607506 0 0.02 0.607506 0 0.04 0.607506 0 0.06 0.607506 0 0.08 0.607506 0 0.1 0.607506 0 0 0.609791 0 0.02 0.609791 0 0.04 0.609791 0 0.06 0.609791 0 0.08 0.609791 0 0.1 0.609791 0 0 0.612076 0 0.02 0.612076 0 0.04 0.612076 0 0.06 0.612076 0 0.08 0.612076 0 0.1 0.612076 0 0 0.614363 0 0.02 0.614363 0 0.04 0.614363 0 0.06 0.614363 0 0.08 0.614363 0 0.1 0.614363 0 0 0.61665 0 0.02 0.61665 0 0.04 0.61665 0 0.06 0.61665 0 0.08 0.61665 0 0.1 0.61665 0 0 0.618938 0 0.02 0.618938 0 0.04 0.618938 0 0.06 0.618938 0 0.08 0.618938 0 0.1 0.618938 0 0 0.621226 0 0.02 0.621226 0 0.04 0.621226 0 0.06 0.621226 0 0.08 0.621226 0 0.1 0.621226 0 0 0.623511 0 0.02 0.623511 0 0.04 0.623511 0 0.06 0.623511 0 0.08 0.623511 0 0.1 0.623511 0 0 0.625802 0 0.02 0.625802 0 0.04 0.625802 0 0.06 0.625802 0 0.08 0.625802 0 0.1 0.625802 0 0 0.6281 0 0.02 0.6281 0 0.04 0.6281 0 0.06 0.6281 0 0.08 0.6281 0 0.1 0.6281 0 0 0.630453 0 0.02 0.630453 0 0.04 0.630453 0 0.06 0.630453 0 0.08 0.630453 0 0.1 0.630453 0 0 0.632904 0 0.02 0.632904 0 0.04 0.632904 0 0.06 0.632904 0 0.08 0.632
[...]
			<PointData Scalars="VitesseX">
				<DataArray Name="VitesseX" type="Float32" format="ascii">
 0 -3.06153e-15 6.41717e-16 3.28642e-15 7.20385e-15 0 0 -2.91724e-15 -1.48221e-17 4.82011e-15 5.8246e-15 0 0 -2.28791e-15 -1.02424e-15 5.9914e-15 5.15814e-15 0 0 -1.14975e-15 -1.69448e-15 4.98922e-15 7.17798e-15 0 0 -6.85842e-16 -1.60272e-15 5.27686e-15 7.56825e-15 0 0 -4.21999e-17 -1.97576e-15 7.02652e-15 6.08627e-15 0 0 5.4809e-16 -2.00992e-15 8.47253e-15 4.78261e-15 0 0 -5.70032e-16 1.75005e-15 5.23827e-15 6.5818e-15 0 0 -6.15825e-16 2.55937e-15 2.51157e-15 8.17786e-15 0 0 -2.09396e-15 3.00765e-15 2.69244e-15 6.55843e-15 0 0 -4.3778e-15 6.94366e-15 5.00022e-16 5.1189e-15 0 0 -6.78161e-16 3.80419e-15 2.35717e-15 3.39381e-15 0 0 2.99779e-15 4.22184e-16 2.33369e-15 3.86393e-15 0 0 -6.92326e-16 4.10442e-15 3.60985e-16 3.94081e-15 0 0 -2.90428e-15 7.65445e-15 -2.27518e-16 3.51439e-16 0 0 1.50706e-15 5.45334e-15 -3.70657e-15 1.55203e-15 0 0 3.44634e-15 3.01297e-15 -1.74695e-15 -9.4451e-17 0 0 -1.40493e-17 3.70827e-15 6.89545e-15 -7.14448e-15 0 0 -1.55345e-15 6.57587e-15 4.37949e-15 -2.81238e-15 0 0 4.30425e-15 2.82415e-15 -1.34634e-15 3.07493e-15 0 0 3.51912e-15 4.76462e-15 -1.6048e-15 5.40964e-16 0 0 -3.13302e-15 9.85125e-15 -3.72487e-16 -4.11732e-15 0 0 8.056e-17 9.61193e-16 7.64868e-15 -1.09294e-14 0 0 -1.28751e-15 1.79625e-15 4.91915e-15 -7.09093e-15 0 0 -3.51253e-15 5.11812e-15 7.34889e-16 3.51789e-15 0 0 -1.2029e-15 3.82289e-15 4.98692e-15 6.17707e-15 0 0 -6.5564e-15 9.34823e-15 9.62497e-15 4.5322e-16 0 0 -5.72947e-15 1.22269e-14 6.55255e-15 -7.27374e-15 0 0 2.9622e-16 1.09041e-14 -1.39347e-15 -2.25424e-15 0 0 -2.82873e-15 1.26821e-14 1.12278e-15 -3.15389e-15 0 0 3.08969e-15 6.3287e-15 4.2876e-15 -9.00708e-15 0 0 2.36348e-15 5.18296e-15 5.9033e-15 -8.53547e-15 0 0 -7.84515e-15 1.14603e-14 4.65162e-16 -7.35107e-16 0 0 -6.1757e-15 4.58249e-15 -2.23661e-15 1.04901e-14 0 0 7.13927e-17 -6.07056e-15 7.32355e-15 5.42776e-15 0 0 2.23475e-15 -4.14452e-15 9.05021e-15 -1.34427e-15 0 0 -3.06591e-16 1.28282e-14 4.66916e-16 -8.95268e-15 0 0 2.72587e-15 1.13272e-14 1.16899e-14 -2.66545e-14 0 0 5.36584e-15 1.29266e-15 2.88057e-14 -3.44563e-14 0 0 5.48952e-16 1.23764e-14 1.47165e-14 -1.70207e-14 0 0 -3.76931e-15 1.26292e-14 3.50878e-15 -1.6207e-15 0 0 -3.40498e-15 5.35548e-15 3.77525e-15 -3.26613e-15 0 0 5.46822e-15 -5.87472e-15 2.27431e-15 6.4934e-15 0 0 2.6683e-15 1.10821e-15 -1.11899e-14 2.11757e-14 0 0 -9.95647e-15 1.31453e-14 -1.02593e-14 7.80896e-15 0 0 4.61177e-16 -9.33515e-16 9.38487e-16 -5.05531e-15 0 0 5.46592e-15 -3.63313e-15 8.7613e-16 -3.87504e-15 0 0 6.05277e-15 -8.28723e-15 1.62352e-14 -2.01806e-14 0 0 -1.85617e-15 2.4015e-15 1.33582e-14 -2.45882e-14 0 0 -2.24092e-15 6.30637e-15 9.18701e-15 -1.46261e-14 0 0 1.53017e-14 -6.12775e-15 1.04128e-14 -1.48474e-14 0 0 6.62236e-15 1.52073e-14 -3.59086e-15 -2.07101e-14 0 0 -1.66331e-14 2.74627e-14 -4.58683e-15 9.60533e-17 0 0 -4.06896e-15 -6.81781e-16 3.24579e-15 2.60545e-14 0 0 3.09579e-15 -3.8136e-15 1.97189e-15 1.58412e-14 0 0 -1.43322e-14 1.29633e-16 7.11708e-15 2.73822e-14 0 0 -1.46137e-14 -8.0677e-15 1.33999e-14 3.40655e-14 0 0 -1.03516e-14 2.85228e-15 -1.62662e-16 2.06538e-14 0 0 1.97941e-15 -7.55941e-15 9.96021e-15 1.70802e-14 0 0 -2.38941e-15 -1.05849e-14 3.28406e-14 7.1131e-15 0 0 -8.94681e-15 5.68738e-15 1.2481e-14 1.70311e-14 0 0 -1.03798e-14 4.25943e-15 1.13912e-14 1.50608e-14 0 0 -1.30836e-14 9.67784e-17 2.63576e-14 2.0259e-15 0 0 2.54209e-15 1.07916e-15 1.05743e-14 1.07207e-14 0 0 7.9547e-15 1.37692e-14 2.68325e-15 9.26381e-15 0 0 8.80214e-15 2.28099e-14 1.64762e-14 2.20809e-14 0 0 1.36308e-14 -2.72026e-15 5.24458e-14 3.95353e-14 0 0 -1.93294e-15 -3.67502e-15 5.96355e-14 3.31035e-14 0 0 -5.48358e-15 5.36098e-15 2.79704e-14 2.08063e-14 0 0 8.1982e-15 -1.38226e-14 8.96807e-15 1.77903e-14 0 0 6.50395e-15 -2.1666e-14 8.9259e-15 9.02468e-15 0 0 -1.05271e-14 -1.19036e-14 1.52938e-14 -4.12714e-14 0 0 -2.13e-15 5.01873e-15 9.97664e-15 -8.16999e-14 0 0 3.43894e-15 1.19454e-14 8.65676e-15 -8.3509e-14 0 0 -2.38686e-15 5.62908e-15 1.90177e-14 -7.08779e-14 0 0 -1.69257e-14 -9.74066e-15 2.19379e-14 -4.10151e-14 0 0 -3.19726e-14 -1.41181e-14 2.02479e-14 -2.01008e-14 0 0 1.53531e-15 2.59573e-15 -1.40685e-14 -7.00698e-15 0 0 1.56481e-14 1.31543e-16 -8.37012e-15 -1.16493e-14 0 0 1.31137e-14 -2.59147e-14 1.32424e-14 -3.28834e-15 0 0 8.30658e-15 -2.49951e-14 -1.763e-14 2.3875e-14 0 0 -2.79281e-15 -5.99354e-15 -1.86953e-14 5.51631e-15 0 0 4.13371e-15 -9.0847e-15 -1.84511e-15 -1.9142e-14 0 0 1.4137e-14 1.90379e-15 -1.09305e-14 -1.37785e-14 0 0 -1.25876e-14 1.74874e-14 -3.24198e-14 3.49171e-15 0 0 1.08105e-14 -2.53647e-14 -8.39241e-15 6.67539e-15 0 0 1.57701e-14 -2.61355e-14 7.90528e-15 3.44006e-15 0 0 -8.46647e-15 -7.68941e-16 3.69625e-15 -7.06435e-15 0 0 6.41917e-15 -2.83368e-14 2.07319e-14 -3.03616e-15 0 0 -1.83951e-14 -1.99485e-14 -3.46396e-16 5.18382e-15 0 0 -1.31321e-14 -1.09348e-14 -5.29024e-15 -1.63401e-15 0 0 7.80267e-15 -7.52022e-15 6.50004e-15 -2.20766e-14 0 0 7.43525e-15 3.93285e-15 -1.39676e-14 -2.89769e-15 0 0 1.48128e-14 6.08774e-15 2.47263e-15 1.34408e-14 0 0 3.26913e-14 4.99503e-14 5.53288e-14 2.88567e-14 0 0 4.38855e-14 9.15875e-14 8.67828e-14 4.89072e-14 0 0 -5.48514e-14 -8.0979e-14 -7.23054e-14 -7.08219e-14 0 0 -4.23128e-13 -6.80071e-13 -6.61199e-13 -4.36147e-13 0 0 -9.10562e-13 -1.47278e-12 -1.46632e-12 -9.09981e-13 0 0 -1.14268e-12 -1.83698e-12 -1.85008e-12 -1.14363e-12 0 0 -1.19204e-12 -1.92541e-12 -1.94302e-12 -1.20621e-12 0 0 -1.54978e-12 -2.57954e-12 -2.49704e-12 -1.628e-12 0 0 -1.54084e-12 -2.52086e-12 -2.49378e-12 -1.55592e-12 0 0 -1.54211e-12 -2.54123e-12 -2.50199e-12 -1.59839e-12 0 0 -1.58505e-12 -2.58632e-12 -2.59682e-12 -1.61375e-12 0 0 -1.6517e-12 -2.7186e-12 -2.74193e-12 -1.65408e-12 0 0 -1.61123e-12 -2.63705e-12 -2.59514e-12 -1.6542e-12 0 0 -1.04768e-12 -1.66917e-12 -1.6807e-12 -1.10424e-12 0 0 -1.59012e-13 -2.89554e-13 -2.84283e-13 -1.77202e-13 0 0 6.13549e-13 9.55381e-13 9.94388e-13 5.75314e-13 0 0 9.02281e-13 1.47076e-12 1.45359e-12 8.58929e-13 0 0 7.31955e-13 1.18373e-12 1.15426e-12 7.32401e-13 0 0 3.6481e-13 5.59636e-13 5.79809e-13 3.44053e-13 0 0 -3.50831e-14 -1.14617e-13 -6.03e-14 -5.35869e-14 0 0 -4.04357e-13 -7.25919e-13 -6.8003e-13 -4.25703e-13 0 0 -7.55877e-13 -1.24998e-12 -1.16969e-12 -7.78046e-13 0 0 -1.04333e-12 -1.69017e-12 -1.59507e-12 -1.03779e-12 0 0 -1.23617e-12 -2.07423e-12 -2.02087e-12 -1.18812e-12 0 0 -1.36205e-12 -2.35298e-12 -2.26058e-12 -1.35806e-12 0 0 -1.49894e-12 -2.49512e-12 -2.44971e-12 -1.50503e-12 0 0 -1.57804e-12 -2.56853e-12 -2.60794e-12 -1.53001e-12 0 0 -1.57997e-12 -2.64611e-12 -2.63309e-12 -1.62211e-12 0 0 -1.56491e-12 -2.61164e-12 -2.5754e-12 -1.65811e-12 0 0 -1.50782e-12 -2.39595e-12 -2.44196e-12 -1.50107e-12 0 0 -1.45843e-12 -2.26052e-12 -2.35933e-12 -1.48011e-12 0 0 -1.28243e-12 -2.0664e-12 -2.07692e-12 -1.35481e-12 0 0 -1.11131e-12 -1.78311e-12 -1.85063e-12 -1.15685e-12 0 0 -8.97119e-13 -1.44427e-12 -1.57334e-12 -8.77686e-13 0 0 -6.77566e-13 -1.12989e-12 -1.16537e-12 -6.77613e-13 0 0 -4.65346e-13 -7.56942e-13 -7.52511e-13 -4.82876e-13 0 0 -2.75973e-13 -4.38153e-13 -4.47099e-13 -2.64767e-13 0 0 -1.09724e-13 -2.18508e-13 -1.91036e-13 -1.61281e-13 0 0 -2.65541e-14 -1.02862e-13 -6.59079e-14 -3.89285e-14 0 0 -9.12324e-15 -2.15065e-14 -2.84361e-14 4.62991e-14 0 0 -1.05775e-14 2.01475e-15 1.19239e-14 3.00788e-14 0 0 -9.26365e-15 -1.58034e-15 2.1173e-14 1.4451e-15 0 0 -6.2905e-15 -2.11268e-14 2.23632e-14 5.63661e-15 0 0 -1.26546e-14 -2.59135e-14 2.04633e-14 1.84038e-14 0 0 -1.38365e-14 -1.20412e-14 1.42785e-14 1.02945e-14 0 0 -1.79471e-15 -1.74859e-14 1.74458e-14 -9.42468e-15 0 0 -3.42143e-17 -2.38752e-14 3.89864e-14 -3.07084e-14 0 0 -4.16212e-15 -2.0053e-14 4.57842e-14 -4.13185e-14 0 0 -8.70801e-15 -3.1049e-15 2.03734e-14 -7.86111e-16 0 0 -5.53572e-15 -3.0428e-15 2.93319e-14 1.33023e-14 0 0 -9.73387e-16 -8.53325e-15 3.60213e-14 2.40117e-15 0 0 -6.5886e-15 -1.137e-15 4.54838e-14 -4.82454e-15 0 0 -9.32542e-15 1.79688e-14 5.79222e-14 -1.18151e-14 0 0 -2.66675e-15 1.61141e-14 7.61227e-14 1.47492e-14 0 0 4.09228e-16 1.22506e-14 6.29504e-14 5.68484e-14 0 0 -9.17752e-16 1.56034e-14 4.05794e-14 4.99107e-14 0 0 -9.50603e-15 1.35044e-14 6.02667e-14 4.85255e-14 0 0 -1.75942e-14 3.17161e-14 3.11627e-14 9.65322e-14 0 0 4.49066e-15 1.45942e-14 5.03568e-14 5.65508e-14 0 0 1.191e-15 5.71337e-14 3.23974e-14 4.44123e-14 0 0 -1.66097e-14 9.55925e-14 -2.63354e-15 4.14691e-14 0 0 2.67975e-14 2.77182e-14 2.23693e-14 -1.24713e-15 0 0 4.29161e-14 1.11365e-14 1.78638e-14 -1.4263e-14 0 0 -1.96655e-14 7.21502e-14 -2.18552e-15 1.40497e-14 0 0 -1.66925e-14 8.43156e-14 -2.98657e-14 7.22042e-14 0 0 3.25647e-14 4.61083e-14 2.25023e-14 4.21071e-14 0 0 4.0231e-14 1.97299e-14 4.66123e-14 8.14837e-14 0 0 3.6158e-14 -8.62776e-15 1.58792e-14 1.18965e-13 0 0 9.87044e-15 9.94945e-15 2.59271e-16 1.56385e-13 0 0 3.36662e-14 1.13099e-14 3.1152e-14 1.1364e-13 0 0 3.94899e-14 1.42897e-14 2.62439e-14 2.66154e-14 0 0 -1.95062e-14 4.51098e-14 1.85476e-14 3.12747e-14 0 0 -3.22371e-15 -6.60691e-15 1.11107e-13 -3.23015e-14 0 0 4.16553e-14 -6.39452e-14 1.69898e-13 -8.99468e-14 0 0 8.59249e-15 3.38616e-16 9.47094e-14 -6.7008e-14 0 0 2.54119e-14 1.26333e-14 3.13503e-14 -1.29498e-14 0 0 6.9441e-14 -1.39594e-14 3.76422e-14 3.83078e-14 0 0 6.23943e-14 -1.87709e-14 1.11657e-13 3.90803e-14 0 0 1.54938e-14 -6.03316e-15 1.68251e-13 2.44381e-14 0 0 -1.93707e-14 4.75284e-14 1.33455e-13 2.02894e-15 0 0 4.70111e-15 4.50643e-14 1.09945e-13 -2.03828e-16 0 0 6.32216e-15 6.17838e-14 4.15717e-14 4.83666e-14 0 0 4.75515e-15 6.06809e-14 1.2841e-14 3.20567e-14 0 0 1.02003e-14 2.93357e-14 1.49606e-14 1.58034e-14 0 0 2.7485e-14 -3.93489e-15 -1.21078e-14 3.49774e-14 0 0 2.82593e-14 -9.28142e-15 -2.12423e-14 8.09839e-14 0 0 3.4844e-15 9.53181e-15 2.56979e-15 1.08143e-13 0 0 -2.05365e-14 5.40715e-14 9.07159e-15 8.84799e-14 0 0 -1.15633e-14 4.6076e-14 7.52738e-14 -1.77028e-14 0 0 4.65932e-15 6.98811e-15 1.40894e-13 -8.88818e-14 0 0 1.25515e-15 4.29408e-14 4.96842e-14 -2.56496e-14 0 0 -8.0405e-15 8.18697e-14 -4.69098e-14 2.76854e-14 0 0 2.44076e-14 3.52997e-14 -2.45251e-14 -2.53602e-14 0 0 5.27033e-14 -1.9449e-14 9.85005e-15 -6.15545e-14 0 0 5.99715e-15 3.94345e-14 -4.26004e-14 -1.44823e-14 0 0 2.55018e-14 2.17806e-14 5.01086e-15 -4.10346e-14 0 0 2.4008e-14 -1.68801e-16 6.23092e-14 -6.1249e-14 0 0 -1.06847e-14 3.88992e-15 8.29917e-14 -4.48224e-14 0 0 6.88709e-15 -4.03749e-14 1.43383e-13 -2.64796e-14 0 0 -3.94019e-14 9.33731e-15 1.0822e-13 2.38437e-14 0 0 -4.26811e-14 3.24831e-14 6.71439e-14 1.48723e-14 0 0 2.54997e-14 -2.6498e-14 1.12869e-13 -3.0155e-14 0 0 2.84858e-14 -1.06638e-14 1.39603e-13 1.39467e-14 0 0 2.62892e-14 1.4405e-14 1.28637e-13 7.11899e-14 0 0 5.39674e-14 2.45565e-14 1.26622e-13 5.29944e-14 0 0 5.02372e-14 8.03398e-14 7.49301e-14 6.74848e-14 0 0 3.92818e-14 1.03722e-13 3.42164e-14 9.75145e-14 0
				</DataArray>
				<DataArray Name="VitesseY" type="Float32" format="ascii">