<?xml version="1.0"?>
<VTKFile type="PolyData">
	<PolyData>
		<Piece NumberOfPoints="1206" NumberOfPolys="1000">
			<Points>
				<DataArray type="Float32" NumberOfComponents="3" format="ascii">
 0 0 0 0.02 0 0 0.04 0 0 0.06 0 0 0.08 0 0 0.1 0 0 0 0.005 0 0.02 0.005 0 0.04 0.005 0 0.06 0.005 0 0.08 0.005 0 0.1 0.005 0 0 0.01 0 0.02 0.01 0 0.04 0.01 0 0.06 0.01 0 0.08 0.01 0 0.1 0.01 0 0 0.015 0 0.02 0.015 0 0.04 0.015 0 0.06 0.015 0 0.08 0.015 0 0.1 0.015 0 0 0.02 0 0.02 0.02 0 0.04 0.02 0 0.06 0.02 0 0.08 0.02 0 0.1 0.02 0 0 0.025 0 0.02 0.025 0 0.04 0.025 0 0.06 0.025 0 0.08 0.025 0 0.1 0.025 0 0 0.03 0 0.02 0.03 0 0.04 0.03 0 0.06 0.03 0 0.08 0.03 0 0.1 0.03 0 0 0.035 0 0.02 0.035 0 0.04 0.035 0 0.06 0.035 0 0.08 0.035 0 0.1 0.035 0 0 0.04 0 0.02 0.04 0 0.04 0.04 0 0.06 0.04 0 0.08 0.04 0 0.1 0.04 0 0 0.045 0 0.02 0.045 0 0.04 0.045 0 0.06 0.045 0 0.08 0.045 0 0.1 0.045 0 0 0.05 0 0.02 0.05 0 0.04 0.05 0 0.06 0.05 0 0.08 0.05 0 0.1 0.05 0 0 0.055 0 0.02 0.055 0 0.04 0.055 0 0.06 0.055 0 0.08 0.055 0 0.1 0.055 0 0 0.06 0 0.02 0.06 0 0.04 0.06 0 0.06 0.06 0 0.08 0.06 0 0.1 0.06 0 0 0.065 0 0.02 0.065 0 0.04 0.065 0 0.06 0.065 0 0.08 0.065 0 0.1 0.065 0 0 0.07 0 0.02 0.07 0 0.04 0.07 0 0.06 0.07 0 0.08 0.07 0 0.1 0.07 0 0 0.075 0 0.02 0.075 0 0.04 0.075 0 0.06 0.075 0 0.08 0.075 0 0.1 0.075 0 0 0.08 0 0.02 0.08 0 0.04 0.08 0 0.06 0.08 0 0.08 0.08 0 0.1 0.08 0 0 0.085 0 0.02 0.085 0 0.04 0.085 0 0.06 0.085 0 0.08 0.085 0 0.1 0.085 0 0 0.09 0 0.02 0.09 0 0.04 0.09 0 0.06 0.09 0 0.08 0.09 0 0.1 0.09 0 0 0.095 0 0.02 0.095 0 0.04 0.095 0 0.06 0.095 0 0.08 0.095 0 0.1 0.095 0 0 0.1 0 0.02 0.1 0 0.04 0.1 0 0.06 0.1 0 0.08 0.1 0 0.1 0.1 0 0 0.105 0 0.02 0.105 0 0.04 0.105 0 0.06 0.105 0 0.08 0.105 0 0.1 0.105 0 0 0.11 0 0.02 0.11 0 0.04 0.11 0 0.06 0.11 0 0.08 0.11 0 0.1 0.11 0 0 0.115 0 0.02 0.115 0 0.04 0.115 0 0.06 0.115 0 0.08 0.115 0 0.1 0.115 0 0 0.12 0 0.02 0.12 0 0.04 0.12 0 0.06 0.12 0 0.08 0.12 0 0.1 0.12 0 0 0.125 0 0.02 0.125 0 0.04 0.125 0 0.06 0.125 0 0.08 0.125 0 0.1 0.125 0 0 0.13 0 0.02 0.13 0 0.04 0.13 0 0.06 0.13 0 0.08 0.13 0 0.1 0.13 0 0 0.135 0 0.02 0.135 0 0.04 0.135 0 0.06 0.135 0 0.08 0.135 0 0.1 0.135 0 0 0.14 0 0.02 0.14 0 0.04 0.14 0 0.06 0.14 0 0.08 0.14 0 0.1 0.14 0 0 0.145 0 0.02 0.145 0 0.04 0.145 0 0.06 0.145 0 0.08 0.145 0 0.1 0.145 0 0 0.15 0 0.02 0.15 0 0.04 0.15 0 0.06 0.15 0 0.08 0.15 0 0.1 0.15 0 0 0.155 0 0.02 0.155 0 0.04 0.155 0 0.06 0.155 0 0.08 0.155 0 0.1 0.155 0 0 0.16 0 0.02 0.16 0 0.04 0.16 0 0.06 0.16 0 0.08 0.16 0 0.1 0.16 0 0 0.165 0 0.02 0.165 0 0.04 0.165 0 0.06 0.165 0 0.08 0.165 0 0.1 0.165 0 0 0.17 0 0.02 0.17 0 0.04 0.17 0 0.06 0.17 0 0.08 0.17 0 0.1 0.17 0 0 0.175 0 0.02 0.175 0 0.04 0.175 0 0.06 0.175 0 0.08 0.175 0 0.1 0.175 0 0 0.18 0 0.02 0.18 0 0.04 0.18 0 0.06 0.18 0 0.08 0.18 0 0.1 0.18 0 0 0.185 0 0.02 0.185 0 0.04 0.185 0 0.06 0.185 0 0.08 0.185 0 0.1 0.185 0 0 0.19 0 0.02 0.19 0 0.04 0.19 0 0.06 0.19 0 0.08 0.19 0 0.1 0.19 0 0 0.195 0 0.02 0.195 0 0.04 0.195 0 0.06 0.195 0 0.08 0.195 0 0.1 0.195 0 0 0.2 0 0.02 0.2 0 0.04 0.2 0 0.06 0.2 0 0.08 0.2 0 0.1 0.2 0 0 0.205 0 0.02 0.205 0 0.04 0.205 0 0.06 0.205 0 0.08 0.205 0 0.1 0.205 0 0 0.21 0 0.02 0.21 0 0.04 0.21 0 0.06 0.21 0 0.08 0.21 0 0.1 0.21 0 0 0.215 0 0.02 0.215 0 0.04 0.215 0 0.06 0.215 0 0.08 0.215 0 0.1 0.215 0 0 0.22 0 0.02 0.22 0 0.04 0.22 0 0.06 0.22 0 0.08 0.22 0 0.1 0.22 0 0 0.225 0 0.02 0.225 0 0.04 0.225 0 0.06 0.225 0 0.08 0.225 0 0.1 0.225 0 0 0.23 0 0.02 0.23 0 0.04 0.23 0 0.06 0.23 0 0.08 0.23 0 0.1 0.23 0 0 0.235 0 0.02 0.235 0 0.04 0.235 0 0.06 0.235 0 0.08 0.235 0 0.1 0.235 0 0 0.24 0 0.02 0.24 0 0.04 0.24 0 0.06 0.24 0 0.08 0.24 0 0.1 0.24 0 0 0.245 0 0.02 0.245 0 0.04 0.245 0 0.06 0.245 0 0.08 0.245 0 0.1 0.245 0 0 0.25 0 0.02 0.25 0 0.04 0.25 0 0.06 0.25 0 0.08 0.25 0 0.1 0.25 0 0 0.255 0 0.02 0.255 0 0.04 0.255 0 0.06 0.255 0 0.08 0.255 0 0.1 0.255 0 0 0.260001 0 0.02 0.260001 0 0.04 0.260001 0 0.06 0.260001 0 0.08 0.260001 0 0.1 0.260001 0 0 0.265002 0 0.02 0.265002 0 0.04 0.265002 0 0.06 0.265002 0 0.08 0.265002 0 0.1 0.265002 0 0 0.270005 0 0.02 0.270005 0 0.04 0.270005 0 0.06 0.270005 0 0.08 0.270005 0 0.1 0.270005 0 0 0.275014 0 0.02 0.275014 0 0.04 0.275014 0 0.06 0.275014 0 0.08 0.275014 0 0.1 0.275014 0 0 0.280033 0 0.02 0.280033 0 0.04 0.280033 0 0.06 0.280033 0 0.08 0.280033 0 0.1 0.280033 0 0 0.285074 0 0.02 0.285074 0 0.04 0.285074 0 0.06 0.285074 0 0.08 0.285074 0 0.1 0.285074 0 0 0.29015 0 0.02 0.29015 0 0.04 0.29015 0 0.06 0.29015 0 0.08 0.29015 0 0.1 0.29015 0 0 0.295278 0 0.02 0.295278 0 0.04 0.295278 0 0.06 0.295278 0 0.08 0.295278 0 0.1 0.295278 0 0 0.300475 0 0.02 0.300475 0 0.04 0.300475 0 0.06 0.300475 0 0.08 0.300475 0 0.1 0.300475 0 0 0.305757 0 0.02 0.305757 0 0.04 0.305757 0 0.06 0.305757 0 0.08 0.305757 0 0.1 0.305757 0 0 0.311136 0 0.02 0.311136 0 0.04 0.311136 0 0.06 0.311136 0 0.08 0.311136 0 0.1 0.311136 0 0 0.316621 0 0.02 0.316621 0 0.04 0.316621 0 0.06 0.316621 0 0.08 0.316621 0 0.1 0.316621 0 0 0.322222 0 0.02 0.322222 0 0.04 0.322222 0 0.06 0.322222 0 0.08 0.322222 0 0.1 0.322222 0 0 0.327947 0 0.02 0.327947 0 0.04 0.327947 0 0.06 0.327947 0 0.08 0.327947 0 0.1 0.327947 0 0 0.333803 0 0.02 0.333803 0 0.04 0.333803 0 0.06 0.333803 0 0.08 0.333803 0 0.1 0.333803 0 0 0.339798 0 0.02 0.339798 0 0.04 0.339798 0 0.06 0.339798 0 0.08 0.339798 0 0.1 0.339798 0 0 0.345941 0 0.02 0.345941 0 0.04 0.345941 0 0.06 0.345941 0 0.08 0.345941 0 0.1 0.345941 0 0 0.35224 0 0.02 0.35224 0 0.04 0.35224 0 0.06 0.35224 0 0.08 0.35224 0 0.1 0.35224 0 0 0.358706 0 0.02 0.358706 0 0.04 0.358706 0 0.06 0.358706 0 0.08 0.358706 0 0.1 0.358706 0 0 0.365349 0 0.02 0.365349 0 0.04 0.365349 0 0.06 0.365349 0 0.08 0.365349 0 0.1 0.365349 0 0 0.372179 0 0.02 0.372179 0 0.04 0.372179 0 0.06 0.372179 0 0.08 0.372179 0 0.1 0.372179 0 0 0.37921 0 0.02 0.37921 0 0.04 0.37921 0 0.06 0.37921 0 0.08 0.37921 0 0.1 0.37921 0 0 0.386455 0 0.02 0.386455 0 0.04 0.386455 0 0.06 0.386455 0 0.08 0.386455 0 0.1 0.386455 0 0 0.393929 0 0.02 0.393929 0 0.04 0.393929 0 0.06 0.393929 0 0.08 0.393929 0 0.1 0.393929 0 0 0.401649 0 0.02 0.401649 0 0.04 0.401649 0 0.06 0.401649 0 0.08 0.401649 0 0.1 0.401649 0 0 0.409632 0 0.02 0.409632 0 0.04 0.409632 0 0.06 0.409632 0 0.08 0.409632 0 0.1 0.409632 0 0 0.4179 0 0.02 0.4179 0 0.04 0.4179 0 0.06 0.4179 0 0.08 0.4179 0 0.1 0.4179 0 0 0.426474 0 0.02 0.426474 0 0.04 0.426474 0 0.06 0.426474 0 0.08 0.426474 0 0.1 0.426474 0 0 0.435381 0 0.02 0.435381 0 0.04 0.435381 0 0.06 0.435381 0 0.08 0.435381 0 0.1 0.435381 0 0 0.444648 0 0.02 0.444648 0 0.04 0.444648 0 0.06 0.444648 0 0.08 0.444648 0 0.1 0.444648 0 0 0.454307 0 0.02 0.454307 0 0.04 0.454307 0 0.06 0.454307 0 0.08 0.454307 0 0.1 0.454307 0 0 0.464392 0 0.02 0.464392 0 0.04 0.464392 0 0.06 0.464392 0 0.08 0.464392 0 0.1 0.464392 0 0 0.474937 0 0.02 0.474937 0 0.04 0.474937 0 0.06 0.474937 0 0.08 0.474937 0 0.1 0.474937 0 0 0.485976 0 0.02 0.485976 0 0.04 0.485976 0 0.06 0.485976 0 0.08 0.485976 0 0.1 0.485976 0 0 0.497526 0 0.02 0.497526 0 0.04 0.497526 0 0.06 0.497526 0 0.08 0.497526 0 0.1 0.497526 0 0 0.509554 0 0.02 0.509554 0 0.04 0.509554 0 0.06 0.509554 0 0.08 0.509554 0 0.1 0.509554 0 0 0.521867 0 0.02 0.521867 0 0.04 0.521867 0 0.06 0.521867 0 0.08 0.521867 0 0.1 0.521867 0 0 0.534135 0 0.02 0.534135 0 0.04 0.534135 0 0.06 0.534135 0 0.08 0.534135 0 0.1 0.534135 0 0 0.546292 0 0.02 0.546292 0 0.04 0.546292 0 0.06 0.546292 0 0.08 0.546292 0 0.1 0.546292 0 0 0.558329 0 0.02 0.558329 0 0.04 0.558329 0 0.06 0.558329 0 0.08 0.558329 0 0.1 0.558329 0 0 0.570269 0 0.02 0.570269 0 0.04 0.570269 0 0.06 0.570269 0 0.08 0.570269 0 0.1 0.570269 0 0 0.582144 0 0.02 0.582144 0 0.04 0.582144 0 0.06 0.582144 0 0.08 0.582144 0 0.1 0.582144 0 0 0.593982 0 0.02 0.593982 0 0.04 0.593982 0 0.06 0.593982 0 0.08 0.593982 0 0.1 0.593982 0 0 0.605802 0 0.02 0.605802 0 0.04 0.605802 0 0.06 0.605802 0 0.08 0.605802 0 0.1 0.605802 0 0 0.617614 0 0.02 0.617614 0 0.04 0.617614 0 0.06 0.617614 0 0.08 0.617614 0 0.1 0.617614 0 0 0.629424 0 0.02 0.629424 0 0.04 0.629424 0 0.06 0.629424 0 0.08 0.629424 0 0.1 0.629424 0 0 0.641233 0 0.02 0.641233 0 0.04 0.641233 0 0.06 0.641233 0 0.08 0.641233 0 0.1 0.641233 0 0 0.653042 0 0.02 0.653042 0 0.04 0.653042 0 0.06 0.653042 0 0.08 0.653042 0 0.1 0.653042 0 0 0.66485 0 0.02 0.66485 0 0.04 0.66485 0 0.06 0.66485 0 0.08 0.66485 0 0.1 0.66485 0 0 0.667131 0 0.02 0.667131 0 0.04 0.667131 0 0.06 0.667131 0 0.08 0.667131 0 0.1 0.667131 0 0 0.669412 0 0.02 0.669412 0 0.04 0.669412 0 0.06 0.669412 0 0.08 0.669412 0 0.1 0.669412 0 0 0.671693 0 0.02 0.671693 0 0.04 0.671693 0 0.06 0.671693 0 0.08 0.671693 0 0.1 0.671693 0 0 0.673973 0 0.02 0.673973 0 0.04 0.673973 0 0.06 0.673973 0 0.08 0.673973 0 0.1 0.673973 0 0 0.676253 0 0.02 0.676253 0 0.04 0.676253 0 0.06 0.676253 0 0.08 0.676253 0 0.1 0.676253 0 0 0.678531 0 0.02 0.678531 0 0.04 0.678531 0 0.06 0.678531 0 0.08 0.678531 0 0.1 0.678531 0 0 0.680806 0 0.02 0.680806 0 0.04 0.680806 0 0.06 0.680806 0 0.08 0.680806 0 0.1 0.680806 0 0 0.683079 0 0.02 0.683079 0 0.04 0.683079 0 0.06 0.683079 0 0.08 0.683079 0 0.1 0.683079 0 0 0.685358 0 0.02 0.685358 0 0.04 0.685358 0 0.06 0.685358 0 0.08 0.685358 0 0.1 0.685358 0 0 0.687637 0 0.02 0.687637 0 0.04 0.687637 0 0.06 0.687637 0 0.08 0.687637 0 0.1 0.687637 0 0 0.689915 0 0.02 0.689915 0 0.04 0.689915 0 0.06 0.689915 0 0.08 0.689915 0 0.1 0.689915 0 0 0.692194 0 0.02 0.692194 0 0.04 0.692194 0 0.06 0.692194 0 0.08 0.692194 0 0.1 0.692194 0 0 0.694474 0 0.02 0.694474 0 0.04 0.694474 0 0.06 0.694474 0 0.08 0.694474 0 0.1 0.694474 0 0 0.696754 0 0.02 0.696754 0 0.04 0.696754 0 0.06 0.696754 0 0.08 0.696754 0 0.1 0.696754 0 0 0.699033 0 0.02 0.699033 0 0.04 0.699033 0 0.06 0.699033 0 0.08 0.699033 0 0.1 0.699033 0 0 0.701314 0 0.02 0.701314 0 0.04 0.701314 0 0.06 0.701314 0 0.08 0.701314 0 0.1 0.701314 0 0 0.703594 0 0.02 0.703594 0 0.04 0.703594 0 0.06 0.703594 0 0.08 0.703594 0 0.1 0.703594 0 0 0.705873 0 0.02 0.705873 0 0.04 0.705873 0 0.06 0.705873 0 0.08 0.705873 0 0.1 0.705873 0 0 0.708153 0 0.
[...]
			<PointData Scalars="VitesseX">
				<DataArray Name="VitesseX" type="Float32" format="ascii">
 0 1.4394e-15 1.96272e-15 -5.89697e-16 2.36112e-15 0 0 7.68947e-16 2.59692e-15 -7.86256e-17 2.58741e-15 0 0 -1.84871e-16 2.74427e-15 1.67448e-15 1.97936e-15 0 0 8.72239e-16 1.05273e-15 4.20318e-15 -1.38659e-16 0 0 2.39886e-15 -1.05202e-15 5.41801e-15 -9.32255e-16 0 0 2.57888e-15 -1.40336e-15 4.48264e-15 -1.04742e-15 0 0 1.02393e-15 4.60546e-16 2.23707e-15 -1.74049e-15 0 0 4.34254e-17 8.62496e-16 2.21766e-15 -2.24904e-15 0 0 2.94828e-15 -1.86372e-15 5.49334e-15 -5.03064e-15 0 0 2.89957e-15 2.69593e-16 2.09041e-15 -2.02326e-15 0 0 7.49156e-16 3.23392e-15 -3.28247e-15 5.27149e-15 0 0 4.38927e-16 4.09246e-15 -5.45664e-15 7.60139e-15 0 0 1.62807e-15 3.80586e-15 -8.16955e-15 6.67975e-15 0 0 2.17542e-15 -6.97607e-16 -7.3364e-15 7.8106e-15 0 0 1.19853e-15 -4.98548e-15 -4.4579e-15 1.10614e-14 0 0 -3.94508e-16 -5.65169e-15 -2.25469e-15 1.25711e-14 0 0 -3.71834e-15 -1.59432e-15 -2.00071e-15 1.28619e-14 0 0 -3.34115e-15 1.07211e-15 -3.98475e-15 1.26622e-14 0 0 -8.7351e-16 1.41224e-15 -4.48221e-15 1.06175e-14 0 0 -5.04043e-17 5.56483e-15 -4.39847e-15 4.35492e-15 0 0 2.4443e-16 5.85486e-15 -3.92541e-16 -1.04814e-15 0 0 2.96377e-16 2.38977e-15 5.91391e-15 -4.34369e-15 0 0 1.20368e-15 -1.29218e-15 6.61291e-15 -4.38686e-15 0 0 3.22309e-15 -5.34855e-15 1.012e-14 -1.38614e-16 0 0 5.70519e-15 -5.72807e-15 8.38604e-15 5.73728e-15 0 0 7.43357e-15 -5.02477e-15 -1.39641e-15 8.86107e-15 0 0 5.11095e-15 -2.76008e-15 -3.59882e-15 1.08398e-14 0 0 3.40938e-15 -2.04498e-15 1.79792e-15 1.40203e-14 0 0 1.06853e-14 -2.56715e-15 6.14457e-15 7.62834e-15 0 0 8.57457e-15 5.56995e-15 4.52218e-15 5.84008e-15 0 0 4.27201e-15 5.22079e-15 5.92537e-15 1.24147e-14 0 0 7.78619e-15 1.89351e-15 5.64291e-15 9.58555e-15 0 0 8.22105e-15 4.97135e-17 9.81121e-15 4.67793e-17 0 0 3.74254e-15 1.08996e-15 1.80978e-15 4.19643e-15 0 0 9.08777e-17 9.16098e-16 -3.56906e-15 1.15303e-14 0 0 -1.64289e-15 -5.14644e-15 9.98917e-15 1.30758e-15 0 0 -6.45819e-15 1.01009e-15 1.29005e-14 -6.55494e-15 0 0 1.51895e-15 8.69578e-16 9.85383e-15 -1.03209e-14 0 0 8.67064e-15 -2.95184e-15 1.27385e-14 -1.35641e-14 0 0 -4.50796e-16 6.02508e-15 7.42168e-15 -9.03375e-15 0 0 7.06593e-15 7.50676e-16 -1.02215e-15 -2.10024e-14 0 0 2.20778e-14 -1.17375e-14 -5.29286e-15 -2.411e-14 0 0 -1.22198e-15 1.07503e-14 -2.91103e-14 3.18558e-16 0 0 -5.19937e-15 -1.82017e-15 -2.88397e-14 2.29485e-15 0 0 -1.7137e-15 -1.84405e-14 -1.71352e-14 -3.22492e-15 0 0 -2.40101e-14 1.18501e-14 -2.9977e-14 9.94538e-15 0 0 -1.86615e-14 6.36743e-15 -3.17731e-14 1.47878e-14 0 0 1.27059e-14 -2.11891e-14 -2.20052e-14 -9.7583e-15 0 0 -2.30554e-15 -3.17955e-14 -2.14505e-14 -3.19475e-14 0 0 -3.04631e-14 -3.52763e-14 -3.83636e-14 -2.40747e-14 0 0 -1.34448e-14 -3.7594e-14 -4.19795e-14 -3.32191e-14 0 0 -7.15027e-16 -3.20849e-14 -3.90233e-14 -5.50558e-14 0 0 1.21279e-14 -1.63075e-14 -5.56703e-14 -3.81303e-14 0 0 5.20676e-15 -1.36961e-14 -4.86796e-14 -1.00804e-14 0 0 -7.00119e-15 -2.75358e-14 -2.53339e-14 2.31247e-14 0 0 3.0624e-15 -1.87618e-14 -2.81742e-14 5.7326e-14 0 0 -7.04392e-15 -2.14202e-14 -3.41376e-14 6.80309e-14 0 0 -3.61713e-14 -1.33228e-14 -1.61647e-14 5.54192e-14 0 0 -4.51933e-14 -4.81603e-15 1.43546e-14 3.96308e-14 0 0 -9.988e-15 -3.71873e-14 5.09158e-14 1.47652e-14 0 0 -7.33826e-16 -1.26675e-14 2.67999e-14 3.66039e-15 0 0 -1.67653e-14 2.85302e-14 -2.66968e-14 1.30465e-14 0 0 -2.42551e-14 1.66258e-14 -1.50005e-14 -9.51714e-15 0 0 -2.59115e-14 -3.34007e-16 2.2619e-14 -2.96219e-14 0 0 -1.45701e-14 -6.46994e-15 2.28434e-14 -1.37677e-14 0 0 1.22368e-16 -5.73867e-15 -6.66495e-15 1.69341e-14 0 0 6.00991e-15 1.79579e-14 -1.72491e-14 -2.19013e-15 0 0 -5.17485e-15 3.01177e-14 -3.07358e-14 -1.80997e-14 0 0 -8.3127e-15 2.70167e-14 -3.62699e-14 3.62114e-17 0 0 6.36566e-15 1.32444e-14 -2.48793e-14 1.56295e-14 0 0 8.02931e-15 -4.39843e-15 -2.82191e-14 4.38868e-14 0 0 -9.88631e-15 1.67844e-15 -3.52872e-14 6.16885e-14 0 0 -6.23649e-15 1.53753e-15 -3.50706e-14 3.77502e-14 0 0 2.37967e-14 3.55318e-15 -2.41178e-14 4.02869e-14 0 0 1.63993e-14 1.62289e-14 -1.074e-14 2.76452e-14 0 0 1.62148e-14 2.53575e-14 -3.70618e-14 1.11171e-14 0 0 2.06975e-14 1.88754e-14 -3.66705e-14 7.7475e-15 0 0 8.06557e-15 2.44618e-15 3.52118e-15 -1.78162e-14 0 0 1.38307e-14 7.70967e-15 8.23934e-15 3.85272e-15 0 0 -5.06625e-15 1.46458e-14 -1.95006e-14 2.20724e-14 0 0 -2.72605e-14 3.77366e-15 -1.17091e-15 -5.37536e-15 0 0 -8.67218e-15 1.81112e-14 2.7886e-14 -2.35994e-14 0 0 8.11542e-15 3.38659e-14 1.62368e-14 -1.31188e-14 0 0 2.4891e-14 1.22478e-14 1.84192e-14 -9.27936e-15 0 0 9.91909e-15 6.18463e-15 3.02342e-14 -4.98648e-15 0 0 3.42567e-15 7.51859e-15 9.99051e-15 1.69274e-15 0 0 -7.88131e-15 3.52866e-14 -9.09706e-15 9.75689e-15 0 0 -2.20772e-14 1.71722e-14 -3.06141e-15 2.76751e-14 0 0 -3.02201e-14 -6.27881e-14 -4.8791e-14 -4.44798e-15 0 0 -9.46551e-14 -1.18325e-13 -1.36608e-13 -7.1613e-14 0 0 -1.16738e-13 -1.8654e-13 -1.69912e-13 -1.1661e-13 0 0 -9.15921e-14 -1.81309e-13 -1.64116e-13 -1.15166e-13 0 0 -4.68906e-14 -6.1533e-14 -8.90103e-14 -5.89147e-14 0 0 5.17568e-14 8.76511e-14 8.93975e-14 4.31746e-14 0 0 1.70194e-13 2.58145e-13 2.65375e-13 1.64591e-13 0 0 2.55638e-13 4.10467e-13 4.13179e-13 2.45213e-13 0 0 3.07828e-13 4.8473e-13 5.04538e-13 2.9105e-13 0 0 3.10881e-13 4.97837e-13 5.12901e-13 2.9709e-13 0 0 2.75666e-13 4.73128e-13 4.64176e-13 2.72823e-13 0 0 2.01661e-13 3.4772e-13 3.48133e-13 2.09765e-13 0 0 1.55235e-13 2.2693e-13 2.55156e-13 1.6627e-13 0 0 1.22861e-13 1.58856e-13 2.56524e-13 1.4028e-13 0 0 8.58716e-14 1.39619e-13 1.57534e-13 1.56368e-13 0 0 1.69281e-14 2.67687e-14 3.23625e-14 5.0537e-14 0 0 -7.25683e-14 -1.28028e-13 -7.88004e-14 -4.28558e-14 0 0 -1.53316e-13 -3.2492e-13 -1.94631e-13 -1.46589e-13 0 0 -1.20823e-13 -2.3095e-13 -1.85138e-13 -1.19807e-13 0 0 4.38911e-13 7.46018e-13 6.92447e-13 5.2192e-13 0 0 1.34292e-12 2.17488e-12 2.17265e-12 1.33438e-12 0 0 2.14841e-12 3.49204e-12 3.44353e-12 2.10555e-12 0 0 2.49072e-12 4.07183e-12 4.02258e-12 2.47243e-12 0 0 2.36602e-12 3.91621e-12 3.88802e-12 2.28313e-12 0 0 2.0232e-12 3.41199e-12 3.3738e-12 1.97286e-12 0 0 1.67416e-12 2.81991e-12 2.77041e-12 1.64452e-12 0 0 1.35779e-12 2.2402e-12 2.23521e-12 1.3481e-12 0 0 1.07159e-12 1.75499e-12 1.79936e-12 1.02625e-12 0 0 8.42675e-13 1.37628e-12 1.44104e-12 7.66888e-13 0 0 6.69586e-13 1.02356e-12 1.14872e-12 6.87634e-13 0 0 5.10463e-13 8.02803e-13 8.80964e-13 5.31382e-13 0 0 3.93532e-13 6.48815e-13 6.19799e-13 3.77717e-13 0 0 3.09333e-13 4.87127e-13 4.31765e-13 3.35257e-13 0 0 2.07254e-13 3.6637e-13 3.30885e-13 3.09381e-13 0 0 1.37411e-13 3.03619e-13 2.09756e-13 2.1305e-13 0 0 7.12619e-14 2.28448e-13 1.36965e-13 1.52948e-13 0 0 2.61764e-14 1.57871e-13 1.32205e-13 1.71656e-13 0 0 1.7375e-14 1.18051e-13 1.71842e-14 1.97908e-13 0 0 1.1744e-14 7.37342e-14 -1.66132e-14 1.1976e-13 0 0 1.66085e-14 4.54262e-14 -1.71571e-15 5.84951e-14 0 0 6.20895e-15 5.08393e-14 -5.83512e-14 5.26022e-14 0 0 1.68065e-14 6.82406e-14 -5.54442e-14 5.29558e-14 0 0 1.22136e-14 7.32266e-14 -4.71451e-14 6.27586e-14 0 0 2.37074e-14 8.56149e-14 -2.30236e-14 3.94664e-14 0 0 5.57554e-14 1.0087e-13 -3.60238e-15 4.37234e-14 0 0 4.96912e-14 1.24986e-13 3.13848e-14 1.04765e-14 0 0 6.56176e-14 1.37089e-13 8.59385e-14 2.34337e-14 0 0 9.17645e-14 1.32182e-13 1.41211e-13 5.40945e-14 0 0 1.08008e-13 1.77079e-13 1.77778e-13 1.2483e-13 0 0 1.59409e-13 2.07056e-13 2.39043e-13 1.57234e-13 0 0 2.04353e-13 2.23116e-13 2.99113e-13 1.1923e-13 0 0 1.9552e-13 3.07685e-13 3.19245e-13 2.09778e-13 0 0 2.03013e-13 3.88408e-13 3.30952e-13 2.8067e-13 0 0 2.34923e-13 4.39121e-13 3.82415e-13 2.74164e-13 0 0 2.66187e-13 4.72349e-13 4.09998e-13 3.06708e-13 0 0 2.86839e-13 5.19785e-13 4.85995e-13 3.32501e-13 0 0 2.98564e-13 5.99166e-13 5.49892e-13 3.59656e-13 0 0 3.44398e-13 6.32653e-13 6.00998e-13 3.86313e-13 0 0 3.91657e-13 6.36599e-13 6.64646e-13 4.72164e-13 0 0 4.16222e-13 6.56057e-13 7.09624e-13 4.70248e-13 0 0 4.00818e-13 6.48114e-13 7.92736e-13 4.13818e-13 0 0 4.04415e-13 6.44988e-13 7.98344e-13 4.52036e-13 0 0 3.92505e-13 6.81842e-13 7.81096e-13 4.36978e-13 0 0 3.62038e-13 6.79337e-13 7.75457e-13 4.40483e-13 0 0 3.65792e-13 6.39566e-13 8.07669e-13 3.93844e-13 0 0 3.01459e-13 6.82726e-13 7.94841e-13 2.60396e-13 0 0 2.80494e-13 6.96859e-13 6.13802e-13 2.22402e-13 0 0 2.97823e-13 5.58041e-13 5.21454e-13 3.02657e-13 0 0 2.55544e-13 4.61632e-13 4.18331e-13 2.87573e-13 0 0 2.05799e-13 3.82373e-13 3.50627e-13 2.18804e-13 0 0 1.71872e-13 2.46136e-13 3.83378e-13 1.69459e-13 0 0 1.28791e-13 1.19161e-13 2.38664e-13 1.47404e-13 0 0 4.57129e-14 5.35842e-14 1.08307e-13 6.16951e-14 0 0 -6.21928e-15 -1.80699e-14 1.11173e-13 -6.27989e-14 0 0 -4.14918e-14 -9.66334e-14 3.79358e-14 -9.07511e-15 0 0 -4.67712e-14 -6.86992e-14 -4.64245e-14 -7.18725e-14 0 0 -6.3977e-14 -7.15158e-14 -8.96472e-14 -9.98063e-14 0 0 -7.47532e-14 -6.45101e-14 -9.06848e-14 2.97356e-15 0 0 -5.90844e-14 -5.94335e-14 -1.03376e-13 6.67234e-15 0 0 -6.80165e-14 -6.05612e-14 -1.01179e-13 -4.91715e-15 0 0 -7.43512e-14 -7.58494e-14 -7.24187e-14 -1.55071e-14 0 0 -6.8561e-14 -6.85543e-14 -6.48261e-14 -5.34262e-14 0 0 -7.00813e-14 -6.51582e-14 -6.72858e-14 -6.75437e-14 0 0 -5.91218e-14 -6.61482e-14 -9.33711e-14 -3.0241e-14 0 0 -5.53542e-14 -6.33535e-14 -7.8225e-14 -4.99364e-14 0 0 -5.81219e-14 -6.93177e-14 -8.65412e-14 -5.65236e-14 0 0 -5.32233e-14 -7.98603e-14 -8.0581e-14 -4.66379e-14 0 0 -5.73066e-14 -9.28309e-14 -1.01406e-14 -8.86715e-14 0 0 -6.48039e-14 -9.19364e-14 -3.14816e-15 -9.5587e-14 0 0 -6.02305e-14 -8.59975e-14 -1.66533e-14 -6.20297e-14 0 0 -5.33143e-14 -7.2489e-14 -4.36207e-14 -1.59894e-14 0 0 -5.30046e-14 -7.62969e-14 -2.96902e-14 -1.66899e-14 0 0 -6.16195e-14 -5.60763e-14 -1.5336e-14 -3.2485e-14 0 0 -6.14396e-14 -4.56868e-14 -2.05782e-14 -2.29428e-14 0 0 -5.50193e-14 -4.0709e-14 -2.32933e-14 -1.06221e-14 0 0 -4.02328e-14 -3.85347e-14 -1.32941e-14 -3.27148e-14 0 0 -1.34372e-14 -7.59726e-14 2.49941e-14 -2.77115e-14 0 0 -2.98734e-15 -7.86838e-14 -3.3417e-15 2.49256e-14 0 0 -1.024e-14 -7.28537e-14 -9.76108e-15 3.78275e-14 0 0 -1.97338e-14 -6.14268e-14 2.26033e-14 -2.31741e-15 0 0 -7.23377e-14 3.96157e-14 -7.16385e-14 1.44684e-14 0 0 -5.35545e-14 3.29631e-14 -8.01634e-14 4.22176e-15 0 0 -1.27505e-14 -1.12954e-14 -4.02133e-14 -1.64697e-14 0 0 -6.48352e-14 3.19522e-14 -1.06823e-13 3.92606e-14 0 0 -8.81838e-14 1.56045e-14 -9.14336e-14 3.52381e-14 0 0 -6.20432e-14 -3.0261e-15 -1.24538e-13 4.02508e-14 0 0 -1.54063e-14 -7.48924e-14 -1.09024e-13 8.37981e-15 0 0 -3.51261e-14 -8.80999e-14 -4.01357e-14 -5.21305e-14 0 0 -1.11922e-13 1.04635e-14 -8.89494e-14 3.05187e-15 0 0 -1.13906e-13 8.37372e-15 -9.48585e-14 5.64195e-14 0 0 -6.21717e-14 -4.71515e-14 -2.65964e-14 4.0007e-14 0 0 -3.67577e-14 -5.7514e-14 2.95832e-14 4.75532e-14 0 0 -3.24614e-14 -5.31003e-14 4.80584e-14 6.49796e-14 0
				</DataArray>
				<DataArray Name="VitesseY" type="Float32" format="ascii">