<?xml version="1.0"?>
<VTKFile type="PolyData">
	<PolyData>
		<Piece NumberOfPoints="1206" NumberOfPolys="1000">
			<Points>
				<DataArray type="Float32" NumberOfComponents="3" format="ascii">
 0 0 0 0.02 0 0 0.04 0 0 0.06 0 0 0.08 0 0 0.1 0 0 0 0.005 0 0.02 0.005 0 0.04 0.005 0 0.06 0.005 0 0.08 0.005 0 0.1 0.005 0 0 0.01 0 0.02 0.01 0 0.04 0.01 0 0.06 0.01 0 0.08 0.01 0 0.1 0.01 0 0 0.015 0 0.02 0.015 0 0.04 0.015 0 0.06 0.015 0 0.08 0.015 0 0.1 0.015 0 0 0.02 0 0.02 0.02 0 0.04 0.02 0 0.06 0.02 0 0.08 0.02 0 0.1 0.02 0 0 0.025 0 0.02 0.025 0 0.04 0.025 0 0.06 0.025 0 0.08 0.025 0 0.1 0.025 0 0 0.03 0 0.02 0.03 0 0.04 0.03 0 0.06 0.03 0 0.08 0.03 0 0.1 0.03 0 0 0.035 0 0.02 0.035 0 0.04 0.035 0 0.06 0.035 0 0.08 0.035 0 0.1 0.035 0 0 0.04 0 0.02 0.04 0 0.04 0.04 0 0.06 0.04 0 0.08 0.04 0 0.1 0.04 0 0 0.045 0 0.02 0.045 0 0.04 0.045 0 0.06 0.045 0 0.08 0.045 0 0.1 0.045 0 0 0.05 0 0.02 0.05 0 0.04 0.05 0 0.06 0.05 0 0.08 0.05 0 0.1 0.05 0 0 0.055 0 0.02 0.055 0 0.04 0.055 0 0.06 0.055 0 0.08 0.055 0 0.1 0.055 0 0 0.06 0 0.02 0.06 0 0.04 0.06 0 0.06 0.06 0 0.08 0.06 0 0.1 0.06 0 0 0.065 0 0.02 0.065 0 0.04 0.065 0 0.06 0.065 0 0.08 0.065 0 0.1 0.065 0 0 0.07 0 0.02 0.07 0 0.04 0.07 0 0.06 0.07 0 0.08 0.07 0 0.1 0.07 0 0 0.075 0 0.02 0.075 0 0.04 0.075 0 0.06 0.075 0 0.08 0.075 0 0.1 0.075 0 0 0.08 0 0.02 0.08 0 0.04 0.08 0 0.06 0.08 0 0.08 0.08 0 0.1 0.08 0 0 0.085 0 0.02 0.085 0 0.04 0.085 0 0.06 0.085 0 0.08 0.085 0 0.1 0.085 0 0 0.09 0 0.02 0.09 0 0.04 0.09 0 0.06 0.09 0 0.08 0.09 0 0.1 0.09 0 0 0.095 0 0.02 0.095 0 0.04 0.095 0 0.06 0.095 0 0.08 0.095 0 0.1 0.095 0 0 0.1 0 0.02 0.1 0 0.04 0.1 0 0.06 0.1 0 0.08 0.1 0 0.1 0.1 0 0 0.105 0 0.02 0.105 0 0.04 0.105 0 0.06 0.105 0 0.08 0.105 0 0.1 0.105 0 0 0.11 0 0.02 0.11 0 0.04 0.11 0 0.06 0.11 0 0.08 0.11 0 0.1 0.11 0 0 0.115 0 0.02 0.115 0 0.04 0.115 0 0.06 0.115 0 0.08 0.115 0 0.1 0.115 0 0 0.12 0 0.02 0.12 0 0.04 0.12 0 0.06 0.12 0 0.08 0.12 0 0.1 0.12 0 0 0.125 0 0.02 0.125 0 0.04 0.125 0 0.06 0.125 0 0.08 0.125 0 0.1 0.125 0 0 0.13 0 0.02 0.13 0 0.04 0.13 0 0.06 0.13 0 0.08 0.13 0 0.1 0.13 0 0 0.135 0 0.02 0.135 0 0.04 0.135 0 0.06 0.135 0 0.08 0.135 0 0.1 0.135 0 0 0.14 0 0.02 0.14 0 0.04 0.14 0 0.06 0.14 0 0.08 0.14 0 0.1 0.14 0 0 0.145 0 0.02 0.145 0 0.04 0.145 0 0.06 0.145 0 0.08 0.145 0 0.1 0.145 0 0 0.15 0 0.02 0.15 0 0.04 0.15 0 0.06 0.15 0 0.08 0.15 0 0.1 0.15 0 0 0.155 0 0.02 0.155 0 0.04 0.155 0 0.06 0.155 0 0.08 0.155 0 0.1 0.155 0 0 0.16 0 0.02 0.16 0 0.04 0.16 0 0.06 0.16 0 0.08 0.16 0 0.1 0.16 0 0 0.165 0 0.02 0.165 0 0.04 0.165 0 0.06 0.165 0 0.08 0.165 0 0.1 0.165 0 0 0.17 0 0.02 0.17 0 0.04 0.17 0 0.06 0.17 0 0.08 0.17 0 0.1 0.17 0 0 0.175 0 0.02 0.175 0 0.04 0.175 0 0.06 0.175 0 0.08 0.175 0 0.1 0.175 0 0 0.18 0 0.02 0.18 0 0.04 0.18 0 0.06 0.18 0 0.08 0.18 0 0.1 0.18 0 0 0.185 0 0.02 0.185 0 0.04 0.185 0 0.06 0.185 0 0.08 0.185 0 0.1 0.185 0 0 0.19 0 0.02 0.19 0 0.04 0.19 0 0.06 0.19 0 0.08 0.19 0 0.1 0.19 0 0 0.195 0 0.02 0.195 0 0.04 0.195 0 0.06 0.195 0 0.08 0.195 0 0.1 0.195 0 0 0.2 0 0.02 0.2 0 0.04 0.2 0 0.06 0.2 0 0.08 0.2 0 0.1 0.2 0 0 0.205 0 0.02 0.205 0 0.04 0.205 0 0.06 0.205 0 0.08 0.205 0 0.1 0.205 0 0 0.21 0 0.02 0.21 0 0.04 0.21 0 0.06 0.21 0 0.08 0.21 0 0.1 0.21 0 0 0.215 0 0.02 0.215 0 0.04 0.215 0 0.06 0.215 0 0.08 0.215 0 0.1 0.215 0 0 0.22 0 0.02 0.22 0 0.04 0.22 0 0.06 0.22 0 0.08 0.22 0 0.1 0.22 0 0 0.225 0 0.02 0.225 0 0.04 0.225 0 0.06 0.225 0 0.08 0.225 0 0.1 0.225 0 0 0.23 0 0.02 0.23 0 0.04 0.23 0 0.06 0.23 0 0.08 0.23 0 0.1 0.23 0 0 0.235 0 0.02 0.235 0 0.04 0.235 0 0.06 0.235 0 0.08 0.235 0 0.1 0.235 0 0 0.24 0 0.02 0.24 0 0.04 0.24 0 0.06 0.24 0 0.08 0.24 0 0.1 0.24 0 0 0.245 0 0.02 0.245 0 0.04 0.245 0 0.06 0.245 0 0.08 0.245 0 0.1 0.245 0 0 0.25 0 0.02 0.25 0 0.04 0.25 0 0.06 0.25 0 0.08 0.25 0 0.1 0.25 0 0 0.255 0 0.02 0.255 0 0.04 0.255 0 0.06 0.255 0 0.08 0.255 0 0.1 0.255 0 0 0.26 0 0.02 0.26 0 0.04 0.26 0 0.06 0.26 0 0.08 0.26 0 0.1 0.26 0 0 0.265 0 0.02 0.265 0 0.04 0.265 0 0.06 0.265 0 0.08 0.265 0 0.1 0.265 0 0 0.27 0 0.02 0.27 0 0.04 0.27 0 0.06 0.27 0 0.08 0.27 0 0.1 0.27 0 0 0.275 0 0.02 0.275 0 0.04 0.275 0 0.06 0.275 0 0.08 0.275 0 0.1 0.275 0 0 0.28 0 0.02 0.28 0 0.04 0.28 0 0.06 0.28 0 0.08 0.28 0 0.1 0.28 0 0 0.285 0 0.02 0.285 0 0.04 0.285 0 0.06 0.285 0 0.08 0.285 0 0.1 0.285 0 0 0.29 0 0.02 0.29 0 0.04 0.29 0 0.06 0.29 0 0.08 0.29 0 0.1 0.29 0 0 0.295 0 0.02 0.295 0 0.04 0.295 0 0.06 0.295 0 0.08 0.295 0 0.1 0.295 0 0 0.3 0 0.02 0.3 0 0.04 0.3 0 0.06 0.3 0 0.08 0.3 0 0.1 0.3 0 0 0.305 0 0.02 0.305 0 0.04 0.305 0 0.06 0.305 0 0.08 0.305 0 0.1 0.305 0 0 0.31 0 0.02 0.31 0 0.04 0.31 0 0.06 0.31 0 0.08 0.31 0 0.1 0.31 0 0 0.315 0 0.02 0.315 0 0.04 0.315 0 0.06 0.315 0 0.08 0.315 0 0.1 0.315 0 0 0.32 0 0.02 0.32 0 0.04 0.32 0 0.06 0.32 0 0.08 0.32 0 0.1 0.32 0 0 0.325 0 0.02 0.325 0 0.04 0.325 0 0.06 0.325 0 0.08 0.325 0 0.1 0.325 0 0 0.33 0 0.02 0.33 0 0.04 0.33 0 0.06 0.33 0 0.08 0.33 0 0.1 0.33 0 0 0.335 0 0.02 0.335 0 0.04 0.335 0 0.06 0.335 0 0.08 0.335 0 0.1 0.335 0 0 0.34 0 0.02 0.34 0 0.04 0.34 0 0.06 0.34 0 0.08 0.34 0 0.1 0.34 0 0 0.345 0 0.02 0.345 0 0.04 0.345 0 0.06 0.345 0 0.08 0.345 0 0.1 0.345 0 0 0.35 0 0.02 0.35 0 0.04 0.35 0 0.06 0.35 0 0.08 0.35 0 0.1 0.35 0 0 0.355 0 0.02 0.355 0 0.04 0.355 0 0.06 0.355 0 0.08 0.355 0 0.1 0.355 0 0 0.36 0 0.02 0.36 0 0.04 0.36 0 0.06 0.36 0 0.08 0.36 0 0.1 0.36 0 0 0.365 0 0.02 0.365 0 0.04 0.365 0 0.06 0.365 0 0.08 0.365 0 0.1 0.365 0 0 0.37 0 0.02 0.37 0 0.04 0.37 0 0.06 0.37 0 0.08 0.37 0 0.1 0.37 0 0 0.375 0 0.02 0.375 0 0.04 0.375 0 0.06 0.375 0 0.08 0.375 0 0.1 0.375 0 0 0.38 0 0.02 0.38 0 0.04 0.38 0 0.06 0.38 0 0.08 0.38 0 0.1 0.38 0 0 0.385 0 0.02 0.385 0 0.04 0.385 0 0.06 0.385 0 0.08 0.385 0 0.1 0.385 0 0 0.39 0 0.02 0.39 0 0.04 0.39 0 0.06 0.39 0 0.08 0.39 0 0.1 0.39 0 0 0.395002 0 0.02 0.395002 0 0.04 0.395002 0 0.06 0.395002 0 0.08 0.395002 0 0.1 0.395002 0 0 0.400009 0 0.02 0.400009 0 0.04 0.400009 0 0.06 0.400009 0 0.08 0.400009 0 0.1 0.400009 0 0 0.405032 0 0.02 0.405032 0 0.04 0.405032 0 0.06 0.405032 0 0.08 0.405032 0 0.1 0.405032 0 0 0.410098 0 0.02 0.410098 0 0.04 0.410098 0 0.06 0.410098 0 0.08 0.410098 0 0.1 0.410098 0 0 0.415251 0 0.02 0.415251 0 0.04 0.415251 0 0.06 0.415251 0 0.08 0.415251 0 0.1 0.415251 0 0 0.420551 0 0.02 0.420551 0 0.04 0.420551 0 0.06 0.420551 0 0.08 0.420551 0 0.1 0.420551 0 0 0.42606 0 0.02 0.42606 0 0.04 0.42606 0 0.06 0.42606 0 0.08 0.42606 0 0.1 0.42606 0 0 0.431835 0 0.02 0.431835 0 0.04 0.431835 0 0.06 0.431835 0 0.08 0.431835 0 0.1 0.431835 0 0 0.437927 0 0.02 0.437927 0 0.04 0.437927 0 0.06 0.437927 0 0.08 0.437927 0 0.1 0.437927 0 0 0.444391 0 0.02 0.444391 0 0.04 0.444391 0 0.06 0.444391 0 0.08 0.444391 0 0.1 0.444391 0 0 0.451287 0 0.02 0.451287 0 0.04 0.451287 0 0.06 0.451287 0 0.08 0.451287 0 0.1 0.451287 0 0 0.458688 0 0.02 0.458688 0 0.04 0.458688 0 0.06 0.458688 0 0.08 0.458688 0 0.1 0.458688 0 0 0.466685 0 0.02 0.466685 0 0.04 0.466685 0 0.06 0.466685 0 0.08 0.466685 0 0.1 0.466685 0 0 0.475388 0 0.02 0.475388 0 0.04 0.475388 0 0.06 0.475388 0 0.08 0.475388 0 0.1 0.475388 0 0 0.484938 0 0.02 0.484938 0 0.04 0.484938 0 0.06 0.484938 0 0.08 0.484938 0 0.1 0.484938 0 0 0.495493 0 0.02 0.495493 0 0.04 0.495493 0 0.06 0.495493 0 0.08 0.495493 0 0.1 0.495493 0 0 0.507167 0 0.02 0.507167 0 0.04 0.507167 0 0.06 0.507167 0 0.08 0.507167 0 0.1 0.507167 0 0 0.519697 0 0.02 0.519697 0 0.04 0.519697 0 0.06 0.519697 0 0.08 0.519697 0 0.1 0.519697 0 0 0.532147 0 0.02 0.532147 0 0.04 0.532147 0 0.06 0.532147 0 0.08 0.532147 0 0.1 0.532147 0 0 0.544303 0 0.02 0.544303 0 0.04 0.544303 0 0.06 0.544303 0 0.08 0.544303 0 0.1 0.544303 0 0 0.556258 0 0.02 0.556258 0 0.04 0.556258 0 0.06 0.556258 0 0.08 0.556258 0 0.1 0.556258 0 0 0.568133 0 0.02 0.568133 0 0.04 0.568133 0 0.06 0.568133 0 0.08 0.568133 0 0.1 0.568133 0 0 0.57042 0 0.02 0.57042 0 0.04 0.57042 0 0.06 0.57042 0 0.08 0.57042 0 0.1 0.57042 0 0 0.572706 0 0.02 0.572706 0 0.04 0.572706 0 0.06 0.572706 0 0.08 0.572706 0 0.1 0.572706 0 0 0.574992 0 0.02 0.574992 0 0.04 0.574992 0 0.06 0.574992 0 0.08 0.574992 0 0.1 0.574992 0 0 0.577278 0 0.02 0.577278 0 0.04 0.577278 0 0.06 0.577278 0 0.08 0.577278 0 0.1 0.577278 0 0 0.579564 0 0.02 0.579564 0 0.04 0.579564 0 0.06 0.579564 0 0.08 0.579564 0 0.1 0.579564 0 0 0.581848 0 0.02 0.581848 0 0.04 0.581848 0 0.06 0.581848 0 0.08 0.581848 0 0.1 0.581848 0 0 0.584129 0 0.02 0.584129 0 0.04 0.584129 0 0.06 0.584129 0 0.08 0.584129 0 0.1 0.584129 0 0 0.586409 0 0.02 0.586409 0 0.04 0.586409 0 0.06 0.586409 0 0.08 0.586409 0 0.1 0.586409 0 0 0.588696 0 0.02 0.588696 0 0.04 0.588696 0 0.06 0.588696 0 0.08 0.588696 0 0.1 0.588696 0 0 0.590983 0 0.02 0.590983 0 0.04 0.590983 0 0.06 0.590983 0 0.08 0.590983 0 0.1 0.590983 0 0 0.59327 0 0.02 0.59327 0 0.04 0.59327 0 0.06 0.59327 0 0.08 0.59327 0 0.1 0.59327 0 0 0.595558 0 0.02 0.595558 0 0.04 0.595558 0 0.06 0.595558 0 0.08 0.595558 0 0.1 0.595558 0 0 0.597848 0 0.02 0.597848 0 0.04 0.597848 0 0.06 0.597848 0 0.08 0.597848 0 0.1 0.597848 0 0 0.600137 0 0.02 0.600137 0 0.04 0.600137 0 0.06 0.600137 0 0.08 0.600137 0 0.1 0.600137 0 0 0.602424 0 0.02 0.602424 0 0.04 0.602424 0 0.06 0.602424 0 0.08 0.602424 0 0.1 0.602424 0 0 0.604709 0 0.02 0.604709 0 0.04 0.604709 0 0.06 0.604709 0 0.08 0.604709 0 0.1 0.604709 0 0 0.606993 0 0.02 0.606993 0 0.04 0.606993 0 0.06 0.606993 0 0.08 0.606993 0 0.1 0.606993 0 0 0.609286 0 0.02 0.609286 0 0.04 0.609286 0 0.06 0.609286 0 0.08 0.609286 0 0.1 0.609286 0 0 0.611618 0 0.02 0.611618 0 0.04 0.611618 0 0.06 0.611618 0 0.08 0.611618 0 0.1 0.611618 0 0 0.614035 0 0.02 0.614035 0 0.04 0.614035 0 0.06 0.614035 0 0.08 0.614035 0 0.1 0.614035 0 0 0.616512 0 0.02 0.616512 0 0.04 0.616512 0 0.06 0.616512 0 0.08 0.616512 0 0.1 0.616512 0 0 0.619156 0 0.02 0.619156 0 0.04 0.619156 0 0.06 0.619156 0 0.08 0.619156 0 0.1 0.619156 0 0 0.621986 0 0.02 0.621986 0 0.04 0.621986 0 0.06 0.621986 0 0.08 0.621986 0 0.1 0.621986 0 0 0.625033 0 0.02 0.625033 0 0.04 0.625033 0 0.06 0.625033 0 0.08 0.625033 0 0.1 0.625033 0 0 0.628402 0 0.02 0.6
[...]
			<PointData Scalars="VitesseX">
				<DataArray Name="VitesseX" type="Float32" format="ascii">
 0 -3.11836e-15 1.58554e-16 4.52762e-15 4.94888e-15 0 0 -3.0072e-15 1.17793e-16 4.14509e-15 5.27507e-15 0 0 -2.2547e-15 -5.67157e-16 4.66257e-15 4.83133e-15 0 0 -1.81532e-15 -1.14969e-15 6.26818e-15 3.51381e-15 0 0 -1.09798e-15 -1.60033e-15 6.39482e-15 3.0063e-15 0 0 5.68895e-16 -2.871e-15 5.97964e-15 3.51851e-15 0 0 4.01226e-16 -2.72979e-15 4.86507e-15 5.81292e-15 0 0 -1.4604e-16 -1.04248e-15 3.03057e-15 7.59096e-15 0 0 -1.24827e-15 3.89678e-16 2.37651e-15 8.90255e-15 0 0 -2.39476e-15 8.57039e-16 4.18459e-15 7.92957e-15 0 0 -1.82896e-15 2.91928e-15 2.82594e-15 7.37336e-15 0 0 -8.1219e-17 2.24316e-15 3.71434e-15 5.52329e-15 0 0 1.68779e-15 2.92004e-16 8.62209e-15 -3.66533e-15 0 0 -2.1394e-16 5.99457e-15 2.90949e-15 -6.81712e-15 0 0 1.79741e-16 5.66928e-15 -1.29083e-15 -1.11241e-15 0 0 -1.18348e-15 2.34511e-15 5.99088e-15 -2.82513e-15 0 0 -8.36174e-16 3.05359e-16 1.0693e-14 -7.42471e-15 0 0 3.81366e-15 -4.4236e-15 8.36639e-15 -6.77205e-15 0 0 1.39353e-15 -1.53486e-15 5.23479e-15 -1.72749e-15 0 0 -3.05723e-15 4.28797e-15 3.35749e-15 1.80042e-15 0 0 -3.09405e-15 5.1744e-15 3.91656e-15 -9.12601e-17 0 0 7.8701e-16 3.25917e-15 2.15757e-15 5.88805e-17 0 0 2.32595e-15 3.40536e-15 5.60323e-16 -2.90292e-16 0 0 -1.75408e-15 6.26563e-15 9.61726e-16 1.76918e-15 0 0 -4.99837e-16 1.28584e-15 3.93689e-15 4.49623e-15 0 0 4.7018e-15 -3.75605e-15 6.35588e-15 4.92907e-15 0 0 4.50058e-15 -3.60813e-15 3.1847e-15 6.48834e-15 0 0 -1.41361e-15 1.71534e-15 4.34232e-15 1.04039e-14 0 0 -5.77503e-15 1.37051e-15 1.34973e-14 1.29466e-14 0 0 -5.6381e-15 3.27486e-15 8.34864e-15 1.18273e-14 0 0 -3.98497e-15 7.88008e-16 1.06389e-14 9.7273e-16 0 0 -8.04547e-17 -2.89427e-15 5.40309e-15 5.10743e-15 0 0 -9.49843e-16 6.43675e-15 -1.47631e-14 1.77067e-14 0 0 -3.39239e-15 5.49297e-15 -5.02576e-15 8.65389e-15 0 0 1.87386e-15 -3.30374e-15 7.62406e-15 1.01202e-16 0 0 2.7082e-15 -3.40516e-15 6.17435e-15 8.27344e-16 0 0 2.12354e-15 2.1424e-15 1.46745e-15 5.34788e-16 0 0 3.7512e-15 1.49173e-15 4.29133e-15 -6.04955e-15 0 0 5.49131e-15 3.76454e-16 5.44368e-15 -1.16583e-14 0 0 6.27175e-15 -1.68831e-15 4.08045e-15 -8.91421e-15 0 0 6.51239e-15 -5.22514e-15 8.63736e-15 -3.2838e-15 0 0 1.32469e-15 4.43673e-15 -8.76802e-16 6.2279e-15 0 0 1.19048e-15 3.2183e-15 -3.04797e-15 1.06866e-14 0 0 4.38585e-15 3.31594e-15 4.12307e-15 -1.66043e-15 0 0 -7.51732e-16 2.01443e-14 -8.87791e-15 -2.40754e-15 0 0 4.48286e-15 8.45062e-15 -2.27363e-15 -3.68853e-15 0 0 6.86793e-15 -3.69956e-15 9.1591e-15 -4.09321e-16 0 0 -9.58836e-16 1.71638e-15 -1.76329e-15 1.70222e-14 0 0 -5.99733e-15 1.22038e-14 -2.12148e-14 3.23643e-14 0 0 -1.84861e-15 7.41547e-15 -1.18783e-14 1.8209e-14 0 0 2.23988e-15 -6.01074e-15 1.77717e-14 -4.26883e-15 0 0 8.09806e-15 -7.4321e-15 1.95714e-14 -5.46715e-15 0 0 6.40533e-15 1.21025e-14 8.74495e-15 -2.18816e-14 0 0 -1.46074e-15 3.1397e-14 -1.1008e-14 -2.2557e-14 0 0 5.92546e-15 4.81065e-15 1.92158e-15 -1.07356e-14 0 0 -3.05145e-16 -5.26037e-15 2.63319e-14 -1.10496e-14 0 0 -7.76065e-15 3.47374e-15 1.37469e-14 3.7523e-15 0 0 -1.34955e-14 1.17958e-14 -7.30879e-15 1.5957e-14 0 0 -2.48362e-15 3.68885e-15 -1.52227e-15 1.9058e-15 0 0 2.06489e-14 -1.749e-14 8.21302e-15 7.61197e-16 0 0 1.30886e-14 -2.77048e-15 -7.67877e-16 1.11232e-14 0 0 1.56534e-15 2.07305e-14 -9.06996e-15 1.96309e-14 0 0 -2.08941e-15 1.5954e-14 -3.66278e-15 1.94482e-14 0 0 1.79824e-15 -1.27507e-14 3.095e-14 -3.06623e-15 0 0 4.9441e-15 -2.09957e-14 4.55464e-14 -1.92422e-14 0 0 7.66469e-15 -1.53204e-14 2.20658e-14 -1.17603e-14 0 0 3.73366e-15 9.35678e-15 -7.63886e-15 1.09716e-14 0 0 6.95383e-16 2.69577e-14 -9.00609e-15 2.35449e-14 0 0 1.62476e-15 2.82743e-14 2.06252e-14 2.63987e-14 0 0 3.59838e-16 2.10509e-14 3.67209e-14 2.78572e-14 0 0 -9.03197e-15 2.83597e-14 2.72611e-14 1.88018e-14 0 0 -5.97113e-15 2.209e-14 8.08784e-15 7.20314e-15 0 0 -8.56826e-15 -1.45205e-15 1.08514e-14 -2.38454e-15 0 0 -1.33107e-14 2.93076e-15 4.4198e-15 -2.74066e-14 0 0 -1.43803e-15 6.25366e-15 -9.20186e-15 -2.93644e-14 0 0 3.40078e-15 2.24456e-14 -1.16372e-14 -3.26342e-14 0 0 -1.98168e-15 2.41128e-14 -4.3245e-15 -3.93098e-14 0 0 -2.88105e-14 9.2548e-15 2.03569e-14 -2.8243e-14 0 0 -8.62806e-15 -1.41727e-14 1.615e-15 -1.64515e-14 0 0 1.08587e-14 -1.10053e-14 -2.01137e-14 -1.98012e-15 0 0 -5.23654e-15 9.64447e-15 -1.18397e-14 9.39408e-16 0 0 -1.17561e-14 6.608e-16 -8.26448e-15 1.61534e-14 0 0 -1.19967e-14 7.04026e-16 -5.796e-15 1.42043e-14 0 0 6.07366e-15 -1.02807e-14 -9.58291e-15 2.01803e-15 0 0 3.64252e-14 -1.16298e-14 -2.60248e-14 1.90327e-14 0 0 2.10232e-14 -1.47297e-14 -1.15237e-15 8.355e-15 0 0 -9.33174e-15 -3.13293e-14 3.43091e-14 -9.783e-15 0 0 -1.32766e-14 -4.9942e-15 1.38215e-14 -5.70523e-15 0 0 -2.65579e-15 -3.09373e-16 7.53157e-15 -2.05528e-14 0 0 6.20538e-15 -8.42747e-15 8.32549e-16 -2.85766e-16 0 0 -1.01452e-14 7.0491e-16 -2.52975e-14 7.84298e-15 0 0 -8.29675e-15 -2.29441e-14 3.6978e-15 -9.34262e-15 0 0 8.82435e-15 -1.26485e-14 1.1285e-14 -2.5747e-15 0 0 1.58668e-14 -6.40487e-15 -2.99847e-15 -6.07046e-16 0 0 2.6661e-14 8.83322e-15 2.52537e-14 -3.0594e-15 0 0 4.21065e-14 8.40258e-14 7.10094e-14 4.57287e-14 0 0 8.69967e-14 1.70634e-13 1.61635e-13 1.06762e-13 0 0 -2.37529e-14 -2.94422e-14 -9.2368e-15 -3.2265e-14 0 0 -5.65401e-13 -9.06386e-13 -8.98023e-13 -5.63587e-13 0 0 -1.25294e-12 -2.01009e-12 -2.0176e-12 -1.26551e-12 0 0 -1.60738e-12 -2.59229e-12 -2.60764e-12 -1.65413e-12 0 0 -2.11705e-12 -3.28738e-12 -3.4151e-12 -2.14104e-12 0 0 -2.05802e-12 -3.22921e-12 -3.35624e-12 -2.03547e-12 0 0 -2.0307e-12 -3.26212e-12 -3.31022e-12 -2.08104e-12 0 0 -2.07033e-12 -3.34667e-12 -3.34646e-12 -2.15828e-12 0 0 -2.13038e-12 -3.51857e-12 -3.46721e-12 -2.20878e-12 0 0 -2.07717e-12 -3.46963e-12 -3.39518e-12 -2.18438e-12 0 0 -1.5268e-12 -2.55473e-12 -2.49021e-12 -1.6154e-12 0 0 -6.92238e-13 -1.14752e-12 -1.14809e-12 -6.85853e-13 0 0 6.90272e-14 1.37689e-13 5.80592e-14 1.18495e-13 0 0 3.74121e-13 6.7996e-13 5.35663e-13 4.25792e-13 0 0 2.20264e-13 4.50095e-13 3.33629e-13 2.39104e-13 0 0 -8.72532e-14 -8.85973e-14 -1.67196e-13 -3.53272e-14 0 0 -4.03749e-13 -6.43115e-13 -7.43817e-13 -3.58392e-13 0 0 -6.65292e-13 -1.15151e-12 -1.21832e-12 -6.77329e-13 0 0 -8.98519e-13 -1.56534e-12 -1.56366e-12 -9.12012e-13 0 0 -1.08571e-12 -1.8002e-12 -1.79987e-12 -1.07465e-12 0 0 -1.21057e-12 -1.91783e-12 -1.99263e-12 -1.19802e-12 0 0 -1.2777e-12 -1.96123e-12 -2.06796e-12 -1.27757e-12 0 0 -1.22062e-12 -1.94048e-12 -2.03347e-12 -1.14644e-12 0 0 -1.18678e-12 -1.92255e-12 -1.9656e-12 -1.1243e-12 0 0 -1.06604e-12 -1.65856e-12 -1.68709e-12 -1.03222e-12 0 0 -9.24849e-13 -1.41249e-12 -1.50812e-12 -8.57549e-13 0 0 -7.72767e-13 -1.16797e-12 -1.25589e-12 -7.43395e-13 0 0 -5.5456e-13 -8.61944e-13 -8.67893e-13 -5.31695e-13 0 0 -3.43359e-13 -5.51157e-13 -5.81292e-13 -3.01269e-13 0 0 -1.75007e-13 -2.484e-13 -3.07072e-13 -1.85579e-13 0 0 -6.30889e-14 -7.48952e-14 -1.00552e-13 -4.93027e-14 0 0 1.16757e-14 4.29118e-14 -1.65312e-14 6.21849e-14 0 0 4.68065e-14 4.33518e-14 6.23926e-14 3.17073e-14 0 0 2.73984e-14 2.96398e-14 5.79836e-14 1.40063e-14 0 0 1.22617e-15 4.27933e-14 1.19807e-14 -1.26618e-15 0 0 -3.07992e-15 2.39171e-16 4.15057e-14 -1.42119e-14 0 0 -9.70648e-15 -2.72636e-15 2.39173e-14 5.62454e-15 0 0 -4.0762e-15 7.58099e-17 3.8106e-15 1.7811e-14 0 0 1.34235e-15 -1.9361e-14 1.92019e-14 3.59759e-14 0 0 -9.95745e-15 -4.13548e-15 9.26376e-15 3.07458e-14 0 0 -1.29774e-14 1.40243e-14 1.17819e-15 1.64501e-14 0 0 -2.2586e-15 -8.89716e-15 9.38695e-15 2.87876e-14 0 0 2.28532e-15 -1.10487e-14 1.4804e-14 2.44516e-14 0 0 5.17203e-15 -9.87893e-15 2.61199e-14 8.96766e-15 0 0 -2.96717e-15 -4.46713e-15 4.46104e-14 -7.43538e-15 0 0 -6.64571e-15 1.63887e-14 4.38026e-14 -7.0176e-15 0 0 1.47113e-14 -1.39345e-14 6.38228e-14 -1.75679e-14 0 0 1.40415e-14 -1.57916e-14 8.07526e-14 2.23043e-15 0 0 -9.95071e-16 2.0103e-14 6.64047e-14 1.59264e-14 0 0 -1.04627e-14 5.77695e-14 3.25096e-14 1.20456e-14 0 0 -1.79045e-15 4.60405e-14 6.83225e-14 2.24647e-14 0 0 2.37759e-14 2.44221e-14 8.50404e-14 4.51442e-14 0 0 1.03331e-14 5.4901e-14 5.39409e-14 1.20234e-13 0 0 -4.80283e-15 7.30479e-14 6.08257e-14 1.29006e-13 0 0 1.71352e-14 4.92066e-14 7.34803e-14 4.84427e-14 0 0 1.64346e-14 1.8e-14 9.09874e-14 5.24516e-15 0 0 -1.22774e-14 1.96485e-14 8.91411e-14 -1.81528e-14 0 0 -1.09929e-14 1.81906e-14 8.78766e-14 -6.34911e-14 0 0 1.47622e-14 6.09825e-15 9.64094e-14 -8.18962e-14 0 0 1.60252e-14 1.08688e-14 1.16622e-13 -8.36143e-14 0 0 -1.90037e-15 5.70414e-14 5.78116e-14 -2.96373e-14 0 0 -2.83342e-15 6.65336e-14 1.36201e-14 1.21517e-14 0 0 2.56809e-15 7.4731e-15 5.00518e-14 -5.14713e-15 0 0 1.021e-14 -2.50317e-15 6.15261e-14 -2.53268e-15 0 0 1.06217e-14 4.4298e-14 5.36648e-14 3.05485e-14 0 0 -4.77407e-15 7.08497e-14 5.55061e-15 1.25396e-13 0 0 2.1062e-15 4.95934e-14 9.21423e-15 1.36072e-13 0 0 1.78581e-15 6.44706e-14 7.43032e-15 1.33577e-13 0 0 1.15816e-14 8.20144e-14 2.17708e-15 1.03428e-13 0 0 4e-15 5.40674e-14 6.61515e-14 8.06918e-15 0 0 1.65399e-14 6.41963e-15 7.74327e-14 -5.12323e-15 0 0 3.11309e-14 2.02236e-14 -9.34853e-15 3.53032e-14 0 0 1.83318e-14 5.57645e-14 -1.28744e-14 1.81602e-14 0 0 2.3994e-14 4.09446e-14 3.00866e-14 1.53801e-14 0 0 3.69803e-14 5.28544e-14 -7.05056e-15 5.39182e-14 0 0 4.40734e-14 7.20671e-14 -2.7747e-14 5.85899e-14 0 0 6.56331e-14 1.84077e-14 9.34911e-15 7.38999e-14 0 0 5.88244e-14 3.54585e-15 7.13143e-14 3.47029e-14 0 0 -1.48239e-15 8.11069e-14 7.01122e-14 -2.43894e-14 0 0 -1.08471e-14 1.19519e-13 2.74724e-14 -7.05717e-15 0 0 2.2014e-14 1.19363e-13 -3.89292e-14 8.47266e-14 0 0 6.91836e-14 7.74355e-14 -5.66424e-14 1.26139e-13 0 0 6.3967e-14 6.81428e-14 -4.92089e-14 9.95131e-14 0 0 4.94831e-14 4.76506e-14 -5.10922e-14 6.94051e-14 0 0 3.54698e-14 -1.48582e-14 -7.8371e-15 6.21453e-14 0 0 8.97388e-15 -1.19416e-14 -1.10844e-15 8.38914e-14 0 0 3.56173e-15 3.68316e-14 -2.04443e-14 6.85022e-14 0 0 1.26797e-14 3.20765e-14 3.02931e-14 3.46353e-15 0 0 6.56764e-15 7.2294e-14 2.26875e-15 1.12313e-14 0 0 6.32038e-15 7.1966e-14 -3.85339e-16 3.26661e-14 0 0 2.5705e-14 2.998e-14 2.69007e-14 -2.14527e-15 0 0 3.31767e-14 4.53128e-14 -2.7774e-14 -3.78493e-15 0 0 3.51348e-14 1.23417e-14 -9.91297e-15 -1.82275e-14 0 0 2.7394e-14 -6.41033e-15 2.08541e-14 -6.64753e-14 0 0 1.26967e-14 2.09886e-15 7.76587e-14 -5.70013e-14 0 0 4.35201e-14 -3.35549e-14 1.71788e-13 -8.05681e-14 0 0 3.81764e-14 2.12705e-14 8.54714e-14 -3.4984e-15 0 0 9.13484e-15 6.8021e-14 1.69038e-14 1.15808e-13 0 0 1.87404e-14 1.55685e-14 1.01366e-13 9.6117e-14 0 0 2.44542e-14 1.9096e-14 1.03849e-13 8.95828e-14 0 0 3.33212e-14 3.97431e-14 8.18567e-14 3.83016e-14 0 0 4.42352e-14 3.03802e-14 7.83135e-14 2.55622e-15 0 0 5.17463e-14 2.10398e-14 3.44544e-14 3.9641e-14 0 0 4.56583e-14 2.73311e-14 5.1676e-15 6.12968e-14 0
				</DataArray>
				<DataArray Name="VitesseY" type="Float32" format="ascii">