<?xml version="1.0"?>
<VTKFile type="PolyData">
	<PolyData>
		<Piece NumberOfPoints="1206" NumberOfPolys="1000">
			<Points>
				<DataArray type="Float32" NumberOfComponents="3" format="ascii">
 0 0 0 0.02 0 0 0.04 0 0 0.06 0 0 0.08 0 0 0.1 0 0 0 0.005 0 0.02 0.005 0 0.04 0.005 0 0.06 0.005 0 0.08 0.005 0 0.1 0.005 0 0 0.01 0 0.02 0.01 0 0.04 0.01 0 0.06 0.01 0 0.08 0.01 0 0.1 0.01 0 0 0.015 0 0.02 0.015 0 0.04 0.015 0 0.06 0.015 0 0.08 0.015 0 0.1 0.015 0 0 0.02 0 0.02 0.02 0 0.04 0.02 0 0.06 0.02 0 0.08 0.02 0 0.1 0.02 0 0 0.025 0 0.02 0.025 0 0.04 0.025 0 0.06 0.025 0 0.08 0.025 0 0.1 0.025 0 0 0.03 0 0.02 0.03 0 0.04 0.03 0 0.06 0.03 0 0.08 0.03 0 0.1 0.03 0 0 0.035 0 0.02 0.035 0 0.04 0.035 0 0.06 0.035 0 0.08 0.035 0 0.1 0.035 0 0 0.04 0 0.02 0.04 0 0.04 0.04 0 0.06 0.04 0 0.08 0.04 0 0.1 0.04 0 0 0.045 0 0.02 0.045 0 0.04 0.045 0 0.06 0.045 0 0.08 0.045 0 0.1 0.045 0 0 0.05 0 0.02 0.05 0 0.04 0.05 0 0.06 0.05 0 0.08 0.05 0 0.1 0.05 0 0 0.055 0 0.02 0.055 0 0.04 0.055 0 0.06 0.055 0 0.08 0.055 0 0.1 0.055 0 0 0.06 0 0.02 0.06 0 0.04 0.06 0 0.06 0.06 0 0.08 0.06 0 0.1 0.06 0 0 0.065 0 0.02 0.065 0 0.04 0.065 0 0.06 0.065 0 0.08 0.065 0 0.1 0.065 0 0 0.07 0 0.02 0.07 0 0.04 0.07 0 0.06 0.07 0 0.08 0.07 0 0.1 0.07 0 0 0.075 0 0.02 0.075 0 0.04 0.075 0 0.06 0.075 0 0.08 0.075 0 0.1 0.075 0 0 0.08 0 0.02 0.08 0 0.04 0.08 0 0.06 0.08 0 0.08 0.08 0 0.1 0.08 0 0 0.085 0 0.02 0.085 0 0.04 0.085 0 0.06 0.085 0 0.08 0.085 0 0.1 0.085 0 0 0.09 0 0.02 0.09 0 0.04 0.09 0 0.06 0.09 0 0.08 0.09 0 0.1 0.09 0 0 0.095 0 0.02 0.095 0 0.04 0.095 0 0.06 0.095 0 0.08 0.095 0 0.1 0.095 0 0 0.1 0 0.02 0.1 0 0.04 0.1 0 0.06 0.1 0 0.08 0.1 0 0.1 0.1 0 0 0.105 0 0.02 0.105 0 0.04 0.105 0 0.06 0.105 0 0.08 0.105 0 0.1 0.105 0 0 0.11 0 0.02 0.11 0 0.04 0.11 0 0.06 0.11 0 0.08 0.11 0 0.1 0.11 0 0 0.115 0 0.02 0.115 0 0.04 0.115 0 0.06 0.115 0 0.08 0.115 0 0.1 0.115 0 0 0.12 0 0.02 0.12 0 0.04 0.12 0 0.06 0.12 0 0.08 0.12 0 0.1 0.12 0 0 0.125 0 0.02 0.125 0 0.04 0.125 0 0.06 0.125 0 0.08 0.125 0 0.1 0.125 0 0 0.13 0 0.02 0.13 0 0.04 0.13 0 0.06 0.13 0 0.08 0.13 0 0.1 0.13 0 0 0.135 0 0.02 0.135 0 0.04 0.135 0 0.06 0.135 0 0.08 0.135 0 0.1 0.135 0 0 0.14 0 0.02 0.14 0 0.04 0.14 0 0.06 0.14 0 0.08 0.14 0 0.1 0.14 0 0 0.145 0 0.02 0.145 0 0.04 0.145 0 0.06 0.145 0 0.08 0.145 0 0.1 0.145 0 0 0.15 0 0.02 0.15 0 0.04 0.15 0 0.06 0.15 0 0.08 0.15 0 0.1 0.15 0 0 0.155 0 0.02 0.155 0 0.04 0.155 0 0.06 0.155 0 0.08 0.155 0 0.1 0.155 0 0 0.16 0 0.02 0.16 0 0.04 0.16 0 0.06 0.16 0 0.08 0.16 0 0.1 0.16 0 0 0.165 0 0.02 0.165 0 0.04 0.165 0 0.06 0.165 0 0.08 0.165 0 0.1 0.165 0 0 0.17 0 0.02 0.17 0 0.04 0.17 0 0.06 0.17 0 0.08 0.17 0 0.1 0.17 0 0 0.175 0 0.02 0.175 0 0.04 0.175 0 0.06 0.175 0 0.08 0.175 0 0.1 0.175 0 0 0.18 0 0.02 0.18 0 0.04 0.18 0 0.06 0.18 0 0.08 0.18 0 0.1 0.18 0 0 0.185 0 0.02 0.185 0 0.04 0.185 0 0.06 0.185 0 0.08 0.185 0 0.1 0.185 0 0 0.19 0 0.02 0.19 0 0.04 0.19 0 0.06 0.19 0 0.08 0.19 0 0.1 0.19 0 0 0.195 0 0.02 0.195 0 0.04 0.195 0 0.06 0.195 0 0.08 0.195 0 0.1 0.195 0 0 0.2 0 0.02 0.2 0 0.04 0.2 0 0.06 0.2 0 0.08 0.2 0 0.1 0.2 0 0 0.205 0 0.02 0.205 0 0.04 0.205 0 0.06 0.205 0 0.08 0.205 0 0.1 0.205 0 0 0.21 0 0.02 0.21 0 0.04 0.21 0 0.06 0.21 0 0.08 0.21 0 0.1 0.21 0 0 0.215 0 0.02 0.215 0 0.04 0.215 0 0.06 0.215 0 0.08 0.215 0 0.1 0.215 0 0 0.22 0 0.02 0.22 0 0.04 0.22 0 0.06 0.22 0 0.08 0.22 0 0.1 0.22 0 0 0.225 0 0.02 0.225 0 0.04 0.225 0 0.06 0.225 0 0.08 0.225 0 0.1 0.225 0 0 0.23 0 0.02 0.23 0 0.04 0.23 0 0.06 0.23 0 0.08 0.23 0 0.1 0.23 0 0 0.235 0 0.02 0.235 0 0.04 0.235 0 0.06 0.235 0 0.08 0.235 0 0.1 0.235 0 0 0.24 0 0.02 0.24 0 0.04 0.24 0 0.06 0.24 0 0.08 0.24 0 0.1 0.24 0 0 0.245 0 0.02 0.245 0 0.04 0.245 0 0.06 0.245 0 0.08 0.245 0 0.1 0.245 0 0 0.25 0 0.02 0.25 0 0.04 0.25 0 0.06 0.25 0 0.08 0.25 0 0.1 0.25 0 0 0.255 0 0.02 0.255 0 0.04 0.255 0 0.06 0.255 0 0.08 0.255 0 0.1 0.255 0 0 0.26 0 0.02 0.26 0 0.04 0.26 0 0.06 0.26 0 0.08 0.26 0 0.1 0.26 0 0 0.265 0 0.02 0.265 0 0.04 0.265 0 0.06 0.265 0 0.08 0.265 0 0.1 0.265 0 0 0.27 0 0.02 0.27 0 0.04 0.27 0 0.06 0.27 0 0.08 0.27 0 0.1 0.27 0 0 0.275 0 0.02 0.275 0 0.04 0.275 0 0.06 0.275 0 0.08 0.275 0 0.1 0.275 0 0 0.28 0 0.02 0.28 0 0.04 0.28 0 0.06 0.28 0 0.08 0.28 0 0.1 0.28 0 0 0.285 0 0.02 0.285 0 0.04 0.285 0 0.06 0.285 0 0.08 0.285 0 0.1 0.285 0 0 0.29 0 0.02 0.29 0 0.04 0.29 0 0.06 0.29 0 0.08 0.29 0 0.1 0.29 0 0 0.295 0 0.02 0.295 0 0.04 0.295 0 0.06 0.295 0 0.08 0.295 0 0.1 0.295 0 0 0.3 0 0.02 0.3 0 0.04 0.3 0 0.06 0.3 0 0.08 0.3 0 0.1 0.3 0 0 0.305 0 0.02 0.305 0 0.04 0.305 0 0.06 0.305 0 0.08 0.305 0 0.1 0.305 0 0 0.31 0 0.02 0.31 0 0.04 0.31 0 0.06 0.31 0 0.08 0.31 0 0.1 0.31 0 0 0.315 0 0.02 0.315 0 0.04 0.315 0 0.06 0.315 0 0.08 0.315 0 0.1 0.315 0 0 0.32 0 0.02 0.32 0 0.04 0.32 0 0.06 0.32 0 0.08 0.32 0 0.1 0.32 0 0 0.325 0 0.02 0.325 0 0.04 0.325 0 0.06 0.325 0 0.08 0.325 0 0.1 0.325 0 0 0.33 0 0.02 0.33 0 0.04 0.33 0 0.06 0.33 0 0.08 0.33 0 0.1 0.33 0 0 0.335 0 0.02 0.335 0 0.04 0.335 0 0.06 0.335 0 0.08 0.335 0 0.1 0.335 0 0 0.34 0 0.02 0.34 0 0.04 0.34 0 0.06 0.34 0 0.08 0.34 0 0.1 0.34 0 0 0.345 0 0.02 0.345 0 0.04 0.345 0 0.06 0.345 0 0.08 0.345 0 0.1 0.345 0 0 0.35 0 0.02 0.35 0 0.04 0.35 0 0.06 0.35 0 0.08 0.35 0 0.1 0.35 0 0 0.355 0 0.02 0.355 0 0.04 0.355 0 0.06 0.355 0 0.08 0.355 0 0.1 0.355 0 0 0.36 0 0.02 0.36 0 0.04 0.36 0 0.06 0.36 0 0.08 0.36 0 0.1 0.36 0 0 0.365 0 0.02 0.365 0 0.04 0.365 0 0.06 0.365 0 0.08 0.365 0 0.1 0.365 0 0 0.37 0 0.02 0.37 0 0.04 0.37 0 0.06 0.37 0 0.08 0.37 0 0.1 0.37 0 0 0.375 0 0.02 0.375 0 0.04 0.375 0 0.06 0.375 0 0.08 0.375 0 0.1 0.375 0 0 0.38 0 0.02 0.38 0 0.04 0.38 0 0.06 0.38 0 0.08 0.38 0 0.1 0.38 0 0 0.385 0 0.02 0.385 0 0.04 0.385 0 0.06 0.385 0 0.08 0.385 0 0.1 0.385 0 0 0.39 0 0.02 0.39 0 0.04 0.39 0 0.06 0.39 0 0.08 0.39 0 0.1 0.39 0 0 0.395 0 0.02 0.395 0 0.04 0.395 0 0.06 0.395 0 0.08 0.395 0 0.1 0.395 0 0 0.4 0 0.02 0.4 0 0.04 0.4 0 0.06 0.4 0 0.08 0.4 0 0.1 0.4 0 0 0.405 0 0.02 0.405 0 0.04 0.405 0 0.06 0.405 0 0.08 0.405 0 0.1 0.405 0 0 0.41 0 0.02 0.41 0 0.04 0.41 0 0.06 0.41 0 0.08 0.41 0 0.1 0.41 0 0 0.415 0 0.02 0.415 0 0.04 0.415 0 0.06 0.415 0 0.08 0.415 0 0.1 0.415 0 0 0.42 0 0.02 0.42 0 0.04 0.42 0 0.06 0.42 0 0.08 0.42 0 0.1 0.42 0 0 0.425 0 0.02 0.425 0 0.04 0.425 0 0.06 0.425 0 0.08 0.425 0 0.1 0.425 0 0 0.43 0 0.02 0.43 0 0.04 0.43 0 0.06 0.43 0 0.08 0.43 0 0.1 0.43 0 0 0.435 0 0.02 0.435 0 0.04 0.435 0 0.06 0.435 0 0.08 0.435 0 0.1 0.435 0 0 0.44 0 0.02 0.44 0 0.04 0.44 0 0.06 0.44 0 0.08 0.44 0 0.1 0.44 0 0 0.445 0 0.02 0.445 0 0.04 0.445 0 0.06 0.445 0 0.08 0.445 0 0.1 0.445 0 0 0.45 0 0.02 0.45 0 0.04 0.45 0 0.06 0.45 0 0.08 0.45 0 0.1 0.45 0 0 0.455 0 0.02 0.455 0 0.04 0.455 0 0.06 0.455 0 0.08 0.455 0 0.1 0.455 0 0 0.46 0 0.02 0.46 0 0.04 0.46 0 0.06 0.46 0 0.08 0.46 0 0.1 0.46 0 0 0.465 0 0.02 0.465 0 0.04 0.465 0 0.06 0.465 0 0.08 0.465 0 0.1 0.465 0 0 0.47 0 0.02 0.47 0 0.04 0.47 0 0.06 0.47 0 0.08 0.47 0 0.1 0.47 0 0 0.475 0 0.02 0.475 0 0.04 0.475 0 0.06 0.475 0 0.08 0.475 0 0.1 0.475 0 0 0.480005 0 0.02 0.480005 0 0.04 0.480005 0 0.06 0.480005 0 0.08 0.480005 0 0.1 0.480005 0 0 0.485059 0 0.02 0.485059 0 0.04 0.485059 0 0.06 0.485059 0 0.08 0.485059 0 0.1 0.485059 0 0 0.490464 0 0.02 0.490464 0 0.04 0.490464 0 0.06 0.490464 0 0.08 0.490464 0 0.1 0.490464 0 0 0.497287 0 0.02 0.497287 0 0.04 0.497287 0 0.06 0.497287 0 0.08 0.497287 0 0.1 0.497287 0 0 0.508436 0 0.02 0.508436 0 0.04 0.508436 0 0.06 0.508436 0 0.08 0.508436 0 0.1 0.508436 0 0 0.510987 0 0.02 0.510987 0 0.04 0.510987 0 0.06 0.510987 0 0.08 0.510987 0 0.1 0.510987 0 0 0.513887 0 0.02 0.513887 0 0.04 0.513887 0 0.06 0.513887 0 0.08 0.513887 0 0.1 0.513887 0 0 0.517233 0 0.02 0.517233 0 0.04 0.517233 0 0.06 0.517233 0 0.08 0.517233 0 0.1 0.517233 0 0 0.52108 0 0.02 0.52108 0 0.04 0.52108 0 0.06 0.52108 0 0.08 0.52108 0 0.1 0.52108 0 0 0.525408 0 0.02 0.525408 0 0.04 0.525408 0 0.06 0.525408 0 0.08 0.525408 0 0.1 0.525408 0 0 0.530111 0 0.02 0.530111 0 0.04 0.530111 0 0.06 0.530111 0 0.08 0.530111 0 0.1 0.530111 0 0 0.535022 0 0.02 0.535022 0 0.04 0.535022 0 0.06 0.535022 0 0.08 0.535022 0 0.1 0.535022 0 0 0.540003 0 0.02 0.540003 0 0.04 0.540003 0 0.06 0.540003 0 0.08 0.540003 0 0.1 0.540003 0 0 0.545 0 0.02 0.545 0 0.04 0.545 0 0.06 0.545 0 0.08 0.545 0 0.1 0.545 0 0 0.55 0 0.02 0.55 0 0.04 0.55 0 0.06 0.55 0 0.08 0.55 0 0.1 0.55 0 0 0.555 0 0.02 0.555 0 0.04 0.555 0 0.06 0.555 0 0.08 0.555 0 0.1 0.555 0 0 0.56 0 0.02 0.56 0 0.04 0.56 0 0.06 0.56 0 0.08 0.56 0 0.1 0.56 0 0 0.565 0 0.02 0.565 0 0.04 0.565 0 0.06 0.565 0 0.08 0.565 0 0.1 0.565 0 0 0.57 0 0.02 0.57 0 0.04 0.57 0 0.06 0.57 0 0.08 0.57 0 0.1 0.57 0 0 0.575 0 0.02 0.575 0 0.04 0.575 0 0.06 0.575 0 0.08 0.575 0 0.1 0.575 0 0 0.58 0 0.02 0.58 0 0.04 0.58 0 0.06 0.58 0 0.08 0.58 0 0.1 0.58 0 0 0.585 0 0.02 0.585 0 0.04 0.585 0 0.06 0.585 0 0.08 0.585 0 0.1 0.585 0 0 0.59 0 0.02 0.59 0 0.04 0.59 0 0.06 0.59 0 0.08 0.59 0 0.1 0.59 0 0 0.595 0 0.02 0.595 0 0.04 0.595 0 0.06 0.595 0 0.08 0.595 0 0.1 0.595 0 0 0.6 0 0.02 0.6 0 0.04 0.6 0 0.06 0.6 0 0.08 0.6 0 0.1 0.6 0 0 0.605 0 0.02 0.605 0 0.04 0.605 0 0.06 0.605 0 0.08 0.605 0 0.1 0.605 0 0 0.61 0 0.02 0.61 0 0.04 0.61 0 0.06 0.61 0 0.08 0.61 0 0.1 0.61 0 0 0.615 0 0.02 0.615 0 0.04 0.615 0 0.06 0.615 0 0.08 0.615 0 0.1 0.615 0 0 0.62 0 0.02 0.62 0 0.04 0.62 0 0.06 0.62 0 0.08 0.62 0 0.1 0.62 0 0 0.625 0 0.02 0.625 0 0.04 0.625 0 0.06 0.625 0 0.08 0.625 0 0.1 0.625 0 0 0.63 0 0.02 0.63 0 0.04 0.63 0 0.06 0.63 0 0.08 0.63 0 0.1 0.63 0 0 0.635 0 0.02 0.635 0 0.04 0.635 0 0.06 0.635 0 0.08 0.635 0 0.1 0.635 0 0 0.64 0 0.02 0.64 0 0.04 0.64 0 0.06 0.64 0 0.08 0.64 0 0.1 0.64 0 0 0.645 0 0.02 0.645 0 0.04 0.645 0 0.06 0.645 0 0.08 0.645 0 0.1 0.645 0 0 0.65 0 0.02 0.65 0 0.04 0.65 0 0.06 0.65 0 0.08 0.65 0 0.1 0.65 0 0 0.655 0 0.02 0.655 0 0.04 0.655 0 0.06 0.655 0 0.08 0.655 0 0.1 0.655 0 0 0.66 0 0.02 0.66 0 0.04 0.66 0 0.06 0.66 0 0.08 0.66 0 0.1 0.66 0 0 0.665 0 0.02 0.665 0 0.04 0.665 0 0.06 0.665 0 0.08 0.665 0 0.1 0.665 0 0 0.67 0 0.02 0.67 0 0.04 0.67 0 0.06 0.67 0 0.08 0.67 0 0.1 0.67 0 0
[...]
			<PointData Scalars="VitesseX">
				<DataArray Name="VitesseX" type="Float32" format="ascii">
 0 -2.09049e-17 -2.57884e-16 6.01728e-16 -3.43845e-16 0 0 8.59612e-17 -2.57884e-16 5.81749e-16 -2.71478e-16 0 0 6.02734e-17 1.80319e-16 -4.52929e-17 7.01194e-17 0 0 1.22978e-16 -4.3099e-16 5.01793e-16 9.18225e-17 0 0 1.59118e-16 -9.5542e-17 -2.71105e-16 4.66127e-16 0 0 -9.60296e-17 1.01654e-15 -1.47221e-15 1.15624e-15 0 0 4.18246e-17 1.68771e-16 2.92331e-16 -6.83788e-16 0 0 1.66508e-16 -1.31325e-15 2.86449e-15 -2.75738e-15 0 0 2.86538e-17 -6.8038e-16 1.42538e-15 -5.98438e-16 0 0 -4.29806e-17 1.1175e-15 -2.09348e-15 9.06888e-16 0 0 -4.29806e-17 -8.59612e-17 -6.69465e-16 7.2727e-16 0 0 -2.02398e-16 6.00686e-16 -1.62004e-15 3.12023e-15 0 0 3.4399e-16 -1.51399e-15 5.39225e-16 2.07871e-15 0 0 6.20027e-17 -3.11131e-16 -1.35171e-15 2.08164e-15 0 0 -3.4365e-16 1.06847e-15 -1.332e-15 4.51152e-16 0 0 1.40735e-16 -2.28238e-15 4.29067e-15 -2.63071e-15 0 0 -9.53641e-17 1.75516e-15 -3.17845e-15 2.39589e-15 0 0 2.12383e-16 1.15062e-15 -2.17758e-15 4.87163e-15 0 0 -2.65263e-16 4.50129e-16 -1.07108e-15 5.91133e-15 0 0 -2.72146e-16 1.05468e-15 -2.07195e-15 5.90599e-15 0 0 4.73566e-16 -2.52231e-15 4.49863e-15 4.10493e-16 0 0 -3.35658e-16 -1.16662e-15 2.96361e-15 -3.52063e-15 0 0 -5.08361e-16 2.04338e-15 -3.03934e-15 4.64628e-15 0 0 0 2.92268e-15 -5.93132e-15 1.19181e-14 0 0 0 -1.50432e-15 3.05162e-15 1.60736e-15 0 0 0 -5.93132e-15 1.20346e-14 -8.93702e-15 0 0 0 -1.29224e-15 3.30083e-15 -2.31757e-15 0 0 -1.06428e-16 4.41189e-15 -8.03844e-15 3.30781e-15 0 0 2.0467e-18 2.76986e-15 -5.46185e-15 2.50086e-16 0 0 1.08475e-16 -2.93428e-15 5.87742e-15 -4.18889e-15 0 0 0 -1.50432e-15 3.05162e-15 -1.36247e-15 0 0 0 -1.50432e-15 3.05162e-15 -3.19086e-15 0 0 0 -2.00577e-16 5.73075e-16 -4.86674e-15 0 0 0 4.51014e-15 -8.97729e-15 8.58496e-15 0 0 0 -1.22061e-15 2.4842e-15 1.53332e-15 0 0 0 -2.96566e-15 6.01728e-15 -5.33007e-15 0 0 0 -2.54463e-15 9.06372e-16 4.02026e-15 0 0 0 4.41355e-15 -9.732e-15 1.03262e-14 0 0 0 4.13374e-15 -7.85655e-15 9.30359e-15 0 0 0 -1.3631e-15 -1.83831e-16 3.40018e-15 0 0 0 -1.50432e-15 3.05162e-15 -2.68196e-15 0 0 3.49401e-16 -3.46038e-15 6.1626e-15 -3.65547e-15 0 0 -6.71317e-16 3.71885e-15 -6.01319e-15 0 0 0 -1.02072e-15 1.36989e-15 9.23741e-16 -7.20424e-15 0 0 0 -5.40552e-15 1.06926e-14 -8.38547e-15 0 0 0 3.45543e-15 -7.30131e-15 8.01454e-15 0 0 0 3.05162e-15 -6.39869e-15 6.07063e-15 0 0 0 3.05162e-15 -5.56765e-15 4.40763e-15 0 0 0 3.05162e-15 -4.06338e-15 1.51549e-15 0 0 0 -5.93132e-15 1.20346e-14 -1.20346e-14 0 0 0 -5.93132e-15 1.20346e-14 -1.20346e-14 0 0 0 -5.93132e-15 1.20346e-14 -9.9185e-15 0 0 0 8.2171e-15 -1.37521e-14 1.24366e-14 0 0 0 3.66224e-15 -4.51625e-15 7.75562e-15 0 0 -1.41222e-16 1.4127e-16 1.07979e-14 -1.46132e-14 0 0 4.0934e-18 1.01362e-14 -9.75412e-15 -6.31755e-15 0 0 1.45316e-16 -4.41256e-15 8.76745e-16 -2.54083e-15 0 0 0 1.89536e-15 -7.85923e-15 7.35242e-15 0 0 0 2.17985e-15 -7.13324e-15 5.02075e-15 0 0 0 -5.4209e-15 4.61237e-15 -6.44398e-15 0 0 0 1.87725e-16 -2.88626e-15 -7.34898e-17 0 0 0 -9.93888e-16 -5.97009e-16 9.49796e-15 0 0 0 2.00893e-15 -1.30628e-15 5.15998e-15 0 0 0 4.03194e-16 7.24745e-15 -1.24671e-14 0 0 0 4.03194e-16 7.24745e-15 -1.3582e-14 0 0 0 3.9937e-15 -5.18986e-15 -2.13929e-15 0 0 0 1.98477e-15 -3.88358e-15 8.31026e-15 0 0 0 1.74904e-15 -3.41211e-15 8.07452e-15 0 0 4.86404e-16 -5.31909e-15 1.06289e-14 -9.13165e-15 0 0 2.44549e-15 -2.31296e-15 2.45645e-15 -8.52031e-15 0 0 3.08186e-15 1.42032e-14 -2.69556e-14 1.21823e-14 0 0 1.12277e-15 3.94234e-15 -2.96548e-15 -4.68646e-15 0 0 0 -5.52317e-16 2.616e-15 -9.56879e-15 0 0 4.93254e-16 4.00054e-15 -5.68212e-15 6.74251e-15 0 0 2.32277e-15 1.82972e-14 -1.78842e-14 1.00324e-14 0 0 9.1677e-16 2.74672e-14 -3.16277e-14 1.703e-14 0 0 -9.12749e-16 1.12985e-15 1.97365e-15 8.56648e-16 0 0 0 -5.05784e-15 7.62579e-15 -8.49927e-15 0 0 0 -3.73438e-15 6.30233e-15 -8.6046e-15 0 0 0 6.98646e-15 8.65964e-16 1.85427e-15 0 0 -5.59431e-16 1.53004e-14 -6.89926e-15 1.64352e-14 0 0 1.8842e-15 3.26086e-15 3.03076e-15 1.86449e-15 0 0 1.21148e-15 1.35948e-14 -1.1739e-14 6.33256e-15 0 0 -1.37746e-15 8.52004e-15 1.2363e-14 -4.04315e-15 0 0 1.39175e-16 -9.02364e-15 3.535e-14 -1.03613e-14 0 0 2.05734e-15 4.21979e-15 1.87619e-15 2.12564e-14 0 0 2.30564e-15 1.17559e-14 -1.27902e-14 1.61998e-14 0 0 5.32791e-16 -4.25642e-15 1.02908e-14 -1.17755e-14 0 0 0 -5.5e-15 1.15166e-14 -1.06619e-14 0 0 -1.45316e-16 -3.67973e-15 4.69104e-15 1.59336e-14 0 0 -8.06524e-16 5.40731e-15 -1.02726e-14 2.4768e-14 0 0 -9.06837e-16 8.89912e-15 -1.46883e-14 1.43925e-14 0 0 1.34011e-15 -5.0239e-15 1.37557e-14 5.88746e-15 0 0 7.68011e-16 -2.22659e-15 1.3262e-14 -2.21135e-15 0 0 -3.59641e-16 7.30381e-16 7.96805e-15 3.30985e-16 0 0 -1.3461e-15 2.35465e-15 1.20188e-14 6.72067e-15 0 0 2.11618e-15 5.58725e-15 5.30944e-15 1.71608e-15 0 0 -4.87235e-16 6.00103e-15 7.65963e-15 -5.06837e-15 0 0 -2.02844e-15 -5.19769e-15 1.53926e-14 -7.91839e-15 0 0 -3.64065e-16 -6.23449e-15 1.73599e-14 -3.06628e-15 0 0 -3.409e-15 8.32652e-15 -3.84017e-16 4.73214e-15 0 0 -2.02973e-14 4.56063e-14 1.26421e-14 -5.64091e-14 0 0 1.31502e-14 -8.57436e-15 5.48646e-14 -1.49268e-15 0 0 1.94191e-14 -3.94164e-15 6.36834e-14 -3.01668e-14 0 0 7.3289e-16 2.18684e-14 5.03284e-14 -5.11483e-14 0 0 3.04441e-15 1.61307e-14 3.94994e-15 3.02163e-14 0 0 4.80307e-15 1.5742e-14 1.97185e-14 1.14552e-14 0 0 9.06715e-15 -2.85877e-15 1.71312e-14 2.12203e-14 0 0 2.50844e-15 1.83246e-14 1.92658e-15 2.37845e-14 0 0 -7.19164e-15 1.59118e-14 1.59374e-14 2.54328e-15 0 0 6.90293e-15 -9.45272e-15 3.33014e-14 -8.38913e-15 0 0 9.07952e-15 1.38284e-14 8.60185e-15 9.07265e-15 0 0 -1.22703e-15 3.40992e-14 -4.80868e-15 -1.77384e-15 0 0 1.11292e-14 1.51521e-14 -7.92209e-15 2.15178e-14 0 0 9.68575e-15 1.49723e-15 8.5466e-15 2.09563e-14 0 0 1.08814e-15 9.19587e-17 3.23506e-14 -1.60475e-15 0 0 1.58471e-16 1.32854e-14 1.43536e-14 -1.92996e-15 0 0 -2.79637e-15 6.96389e-15 1.97518e-14 -1.62635e-14 0 0 2.23967e-16 3.91164e-15 1.66238e-15 8.53624e-15 0 0 4.43549e-16 2.60595e-15 -4.8808e-15 -1.21153e-15 0 0 0 3.49705e-15 -7.04293e-15 -1.03178e-14 0 0 0 4.81383e-15 -9.67063e-15 -1.03119e-14 0 0 -4.13185e-16 -1.05435e-14 1.26078e-14 -6.67888e-15 0 0 2.05492e-16 1.08661e-14 -1.77157e-14 2.32738e-14 0 0 2.33118e-15 9.48112e-15 -9.23146e-15 -5.43187e-15 0 0 1.7125e-15 2.51301e-15 -7.83382e-15 -6.83872e-15 0 0 0 1.25501e-14 -1.35886e-14 -3.50115e-15 0 0 8.4586e-16 7.05201e-15 2.09682e-14 -2.80872e-14 0 0 3.55123e-15 1.53878e-14 -8.3758e-15 1.04494e-14 0 0 2.70537e-15 5.66781e-15 -1.24568e-14 6.13037e-15 0 0 0 3.14207e-15 -6.32658e-15 -5.9855e-15 0 0 0 3.91874e-15 -7.87646e-15 -4.75382e-15 0 0 2.16839e-15 3.5398e-15 2.10472e-15 -1.11658e-15 0 0 4.95124e-15 1.71082e-14 -1.76106e-14 3.36726e-14 0 0 2.78285e-15 3.04162e-15 4.39103e-16 1.03618e-14 0 0 0 2.12057e-15 -5.18719e-15 1.35784e-14 0 0 -4.60507e-16 3.93862e-15 -6.54474e-15 5.1134e-15 0 0 -2.0467e-18 -7.39038e-15 1.00255e-14 -1.1803e-14 0 0 4.5846e-16 6.76841e-15 -2.37747e-15 4.22303e-15 0 0 8.53481e-16 5.03098e-15 9.39218e-15 -2.12143e-14 0 0 5.75047e-15 -1.90504e-15 -6.38843e-18 -2.1724e-14 0 0 6.12929e-15 1.86621e-14 -3.57822e-14 2.13407e-14 0 0 8.06067e-16 6.37157e-15 -5.53423e-15 -4.9518e-15 0 0 2.04213e-15 9.71245e-15 -5.59463e-15 -2.14964e-14 0 0 1.58589e-14 1.72201e-14 -4.03646e-14 2.48807e-14 0 0 1.28123e-14 -7.49847e-15 -2.85619e-15 2.27799e-16 0 0 -1.19773e-16 1.03616e-14 -1.05302e-14 -1.75026e-14 0 0 4.5846e-16 5.35867e-15 8.85507e-15 -3.3349e-14 0 0 1.66006e-15 -5.22241e-15 3.16555e-14 -4.18213e-14 0 0 8.4846e-15 1.92144e-14 -9.78021e-15 -1.44397e-14 0 0 9.12165e-15 1.98433e-14 -1.41324e-14 -6.58113e-15 0 0 2.94672e-15 2.7845e-14 -3.05167e-14 9.61514e-15 0 0 1.89104e-16 1.06264e-14 1.67085e-15 -7.18306e-15 0 0 4.02875e-16 2.48196e-15 9.3451e-15 -1.75964e-14 0 0 2.38021e-15 1.11398e-14 -9.72808e-15 -1.89644e-14 0 0 1.51683e-15 7.51979e-15 -1.25638e-14 2.95709e-15 0 0 6.0036e-16 7.67601e-15 -1.13177e-14 3.31275e-15 0 0 8.78771e-15 -1.06127e-14 9.00839e-15 -9.36601e-15 0 0 1.51439e-14 3.18871e-15 -2.14127e-14 2.02051e-14 0 0 5.88651e-15 3.4028e-14 -3.76079e-14 -9.94383e-16 0 0 1.66952e-14 1.23505e-14 -8.74915e-15 -1.17758e-14 0 0 1.87114e-14 -1.472e-15 1.52295e-14 -6.78077e-15 0 0 5.61561e-15 7.0161e-15 1.24044e-14 -1.12058e-14 0 0 2.76239e-15 3.32341e-14 -3.0086e-14 5.32651e-15 0 0 4.23546e-15 4.15651e-14 -4.40323e-14 1.50451e-14 0 0 2.01486e-14 1.86625e-14 -4.83215e-14 9.90655e-15 0 0 1.54712e-14 1.90514e-14 -3.71308e-14 -9.13358e-15 0 0 1.46336e-15 5.38652e-15 1.4693e-14 -1.29286e-14 0 0 0 6.50836e-15 -2.16452e-15 1.56582e-14 0 0 -2.78546e-15 -1.56767e-15 -2.46356e-15 9.95972e-16 0 0 9.24075e-16 -1.20806e-14 1.92822e-14 -2.32006e-14 0 0 7.13113e-15 2.94859e-15 -6.02865e-15 1.40843e-15 0 0 3.42159e-15 -4.70436e-15 7.99962e-15 6.90938e-15 0 0 0 4.27569e-15 2.98528e-15 -6.52714e-15 0 0 -1.18397e-16 5.84947e-15 -1.12331e-15 -1.00431e-14 0 0 4.77982e-15 -6.01365e-15 1.22281e-14 -1.00788e-14 0 0 4.60542e-15 1.28697e-14 -1.86459e-14 6.02104e-15 0 0 -2.92802e-16 2.47345e-15 -3.37072e-15 1.63742e-14 0 0 2.62185e-15 -9.05746e-15 1.00193e-14 1.56055e-14 0 0 -5.85235e-18 -1.68679e-14 2.33936e-14 8.20072e-16 0 0 3.37469e-16 -1.02384e-14 6.85233e-15 4.51656e-15 0 0 9.22994e-15 1.90986e-14 -4.66822e-14 2.83716e-14 0 0 6.72323e-15 4.44185e-15 -1.64457e-14 2.12316e-14 0 0 -1.33571e-15 6.01573e-15 5.69398e-15 -1.16381e-14 0 0 -3.02328e-15 -1.13274e-15 1.8041e-14 -3.56775e-14 0 0 8.1997e-16 -1.19257e-14 1.19276e-14 -8.49246e-15 0 0 -6.60301e-16 1.29002e-14 -2.42184e-14 1.6409e-14 0 0 -2.70937e-15 -7.64736e-16 7.35651e-15 6.03435e-15 0 0 8.95089e-16 -1.83316e-15 8.10509e-15 -5.39614e-15 0 0 -8.99085e-16 -7.87646e-15 1.18839e-14 -2.33397e-14 0 0 1.89585e-15 -7.91149e-15 5.73291e-15 -9.02871e-15 0 0 9.79881e-15 2.15102e-14 -3.55469e-14 9.62559e-15 0 0 7.52068e-15 -7.65076e-15 2.10205e-14 -3.62445e-14 0 0 5.29399e-15 -1.06733e-14 2.40039e-14 -3.02874e-14 0 0 3.88209e-15 1.45369e-14 -2.29848e-14 2.69452e-14 0 0 0 1.25604e-14 -2.52186e-14 3.95836e-14 0 0 -5.17839e-16 1.91453e-14 -2.84253e-14 2.50033e-14 0 0 -6.75429e-15 -5.62175e-15 2.04466e-14 -9.34713e-15 0 0 -6.23646e-15 -6.43074e-15 1.43598e-14 -1.08204e-14 0 0 0 1.92553e-14 -3.63479e-14 2.44365e-14 0 0 0 1.92553e-14 -3.85966e-14 3.85966e-14 0
				</DataArray>
				<DataArray Name="VitesseY" type="Float32" format="ascii">