<?xml version="1.0"?>
<VTKFile type="PolyData">
	<PolyData>
		<Piece NumberOfPoints="1206" NumberOfPolys="1000">
			<Points>
				<DataArray type="Float32" NumberOfComponents="3" format="ascii">
 0 0 0 0.02 0 0 0.04 0 0 0.06 0 0 0.08 0 0 0.1 0 0 0 0.005 0 0.02 0.005 0 0.04 0.005 0 0.06 0.005 0 0.08 0.005 0 0.1 0.005 0 0 0.01 0 0.02 0.01 0 0.04 0.01 0 0.06 0.01 0 0.08 0.01 0 0.1 0.01 0 0 0.015 0 0.02 0.015 0 0.04 0.015 0 0.06 0.015 0 0.08 0.015 0 0.1 0.015 0 0 0.02 0 0.02 0.02 0 0.04 0.02 0 0.06 0.02 0 0.08 0.02 0 0.1 0.02 0 0 0.025 0 0.02 0.025 0 0.04 0.025 0 0.06 0.025 0 0.08 0.025 0 0.1 0.025 0 0 0.03 0 0.02 0.03 0 0.04 0.03 0 0.06 0.03 0 0.08 0.03 0 0.1 0.03 0 0 0.035 0 0.02 0.035 0 0.04 0.035 0 0.06 0.035 0 0.08 0.035 0 0.1 0.035 0 0 0.04 0 0.02 0.04 0 0.04 0.04 0 0.06 0.04 0 0.08 0.04 0 0.1 0.04 0 0 0.045 0 0.02 0.045 0 0.04 0.045 0 0.06 0.045 0 0.08 0.045 0 0.1 0.045 0 0 0.05 0 0.02 0.05 0 0.04 0.05 0 0.06 0.05 0 0.08 0.05 0 0.1 0.05 0 0 0.055 0 0.02 0.055 0 0.04 0.055 0 0.06 0.055 0 0.08 0.055 0 0.1 0.055 0 0 0.06 0 0.02 0.06 0 0.04 0.06 0 0.06 0.06 0 0.08 0.06 0 0.1 0.06 0 0 0.065 0 0.02 0.065 0 0.04 0.065 0 0.06 0.065 0 0.08 0.065 0 0.1 0.065 0 0 0.07 0 0.02 0.07 0 0.04 0.07 0 0.06 0.07 0 0.08 0.07 0 0.1 0.07 0 0 0.075 0 0.02 0.075 0 0.04 0.075 0 0.06 0.075 0 0.08 0.075 0 0.1 0.075 0 0 0.08 0 0.02 0.08 0 0.04 0.08 0 0.06 0.08 0 0.08 0.08 0 0.1 0.08 0 0 0.085 0 0.02 0.085 0 0.04 0.085 0 0.06 0.085 0 0.08 0.085 0 0.1 0.085 0 0 0.09 0 0.02 0.09 0 0.04 0.09 0 0.06 0.09 0 0.08 0.09 0 0.1 0.09 0 0 0.095 0 0.02 0.095 0 0.04 0.095 0 0.06 0.095 0 0.08 0.095 0 0.1 0.095 0 0 0.1 0 0.02 0.1 0 0.04 0.1 0 0.06 0.1 0 0.08 0.1 0 0.1 0.1 0 0 0.105 0 0.02 0.105 0 0.04 0.105 0 0.06 0.105 0 0.08 0.105 0 0.1 0.105 0 0 0.11 0 0.02 0.11 0 0.04 0.11 0 0.06 0.11 0 0.08 0.11 0 0.1 0.11 0 0 0.115 0 0.02 0.115 0 0.04 0.115 0 0.06 0.115 0 0.08 0.115 0 0.1 0.115 0 0 0.12 0 0.02 0.12 0 0.04 0.12 0 0.06 0.12 0 0.08 0.12 0 0.1 0.12 0 0 0.125 0 0.02 0.125 0 0.04 0.125 0 0.06 0.125 0 0.08 0.125 0 0.1 0.125 0 0 0.13 0 0.02 0.13 0 0.04 0.13 0 0.06 0.13 0 0.08 0.13 0 0.1 0.13 0 0 0.135 0 0.02 0.135 0 0.04 0.135 0 0.06 0.135 0 0.08 0.135 0 0.1 0.135 0 0 0.14 0 0.02 0.14 0 0.04 0.14 0 0.06 0.14 0 0.08 0.14 0 0.1 0.14 0 0 0.145 0 0.02 0.145 0 0.04 0.145 0 0.06 0.145 0 0.08 0.145 0 0.1 0.145 0 0 0.15 0 0.02 0.15 0 0.04 0.15 0 0.06 0.15 0 0.08 0.15 0 0.1 0.15 0 0 0.155 0 0.02 0.155 0 0.04 0.155 0 0.06 0.155 0 0.08 0.155 0 0.1 0.155 0 0 0.16 0 0.02 0.16 0 0.04 0.16 0 0.06 0.16 0 0.08 0.16 0 0.1 0.16 0 0 0.165 0 0.02 0.165 0 0.04 0.165 0 0.06 0.165 0 0.08 0.165 0 0.1 0.165 0 0 0.17 0 0.02 0.17 0 0.04 0.17 0 0.06 0.17 0 0.08 0.17 0 0.1 0.17 0 0 0.175 0 0.02 0.175 0 0.04 0.175 0 0.06 0.175 0 0.08 0.175 0 0.1 0.175 0 0 0.18 0 0.02 0.18 0 0.04 0.18 0 0.06 0.18 0 0.08 0.18 0 0.1 0.18 0 0 0.185 0 0.02 0.185 0 0.04 0.185 0 0.06 0.185 0 0.08 0.185 0 0.1 0.185 0 0 0.19 0 0.02 0.19 0 0.04 0.19 0 0.06 0.19 0 0.08 0.19 0 0.1 0.19 0 0 0.195 0 0.02 0.195 0 0.04 0.195 0 0.06 0.195 0 0.08 0.195 0 0.1 0.195 0 0 0.2 0 0.02 0.2 0 0.04 0.2 0 0.06 0.2 0 0.08 0.2 0 0.1 0.2 0 0 0.205 0 0.02 0.205 0 0.04 0.205 0 0.06 0.205 0 0.08 0.205 0 0.1 0.205 0 0 0.21 0 0.02 0.21 0 0.04 0.21 0 0.06 0.21 0 0.08 0.21 0 0.1 0.21 0 0 0.215 0 0.02 0.215 0 0.04 0.215 0 0.06 0.215 0 0.08 0.215 0 0.1 0.215 0 0 0.22 0 0.02 0.22 0 0.04 0.22 0 0.06 0.22 0 0.08 0.22 0 0.1 0.22 0 0 0.225 0 0.02 0.225 0 0.04 0.225 0 0.06 0.225 0 0.08 0.225 0 0.1 0.225 0 0 0.23 0 0.02 0.23 0 0.04 0.23 0 0.06 0.23 0 0.08 0.23 0 0.1 0.23 0 0 0.235 0 0.02 0.235 0 0.04 0.235 0 0.06 0.235 0 0.08 0.235 0 0.1 0.235 0 0 0.24 0 0.02 0.24 0 0.04 0.24 0 0.06 0.24 0 0.08 0.24 0 0.1 0.24 0 0 0.245 0 0.02 0.245 0 0.04 0.245 0 0.06 0.245 0 0.08 0.245 0 0.1 0.245 0 0 0.25 0 0.02 0.25 0 0.04 0.25 0 0.06 0.25 0 0.08 0.25 0 0.1 0.25 0 0 0.255 0 0.02 0.255 0 0.04 0.255 0 0.06 0.255 0 0.08 0.255 0 0.1 0.255 0 0 0.26 0 0.02 0.26 0 0.04 0.26 0 0.06 0.26 0 0.08 0.26 0 0.1 0.26 0 0 0.265 0 0.02 0.265 0 0.04 0.265 0 0.06 0.265 0 0.08 0.265 0 0.1 0.265 0 0 0.27 0 0.02 0.27 0 0.04 0.27 0 0.06 0.27 0 0.08 0.27 0 0.1 0.27 0 0 0.275 0 0.02 0.275 0 0.04 0.275 0 0.06 0.275 0 0.08 0.275 0 0.1 0.275 0 0 0.28 0 0.02 0.28 0 0.04 0.28 0 0.06 0.28 0 0.08 0.28 0 0.1 0.28 0 0 0.285 0 0.02 0.285 0 0.04 0.285 0 0.06 0.285 0 0.08 0.285 0 0.1 0.285 0 0 0.29 0 0.02 0.29 0 0.04 0.29 0 0.06 0.29 0 0.08 0.29 0 0.1 0.29 0 0 0.295 0 0.02 0.295 0 0.04 0.295 0 0.06 0.295 0 0.08 0.295 0 0.1 0.295 0 0 0.3 0 0.02 0.3 0 0.04 0.3 0 0.06 0.3 0 0.08 0.3 0 0.1 0.3 0 0 0.305 0 0.02 0.305 0 0.04 0.305 0 0.06 0.305 0 0.08 0.305 0 0.1 0.305 0 0 0.31 0 0.02 0.31 0 0.04 0.31 0 0.06 0.31 0 0.08 0.31 0 0.1 0.31 0 0 0.315001 0 0.02 0.315001 0 0.04 0.315001 0 0.06 0.315001 0 0.08 0.315001 0 0.1 0.315001 0 0 0.320004 0 0.02 0.320004 0 0.04 0.320004 0 0.06 0.320004 0 0.08 0.320004 0 0.1 0.320004 0 0 0.325013 0 0.02 0.325013 0 0.04 0.325013 0 0.06 0.325013 0 0.08 0.325013 0 0.1 0.325013 0 0 0.330035 0 0.02 0.330035 0 0.04 0.330035 0 0.06 0.330035 0 0.08 0.330035 0 0.1 0.330035 0 0 0.335083 0 0.02 0.335083 0 0.04 0.335083 0 0.06 0.335083 0 0.08 0.335083 0 0.1 0.335083 0 0 0.340179 0 0.02 0.340179 0 0.04 0.340179 0 0.06 0.340179 0 0.08 0.340179 0 0.1 0.340179 0 0 0.345346 0 0.02 0.345346 0 0.04 0.345346 0 0.06 0.345346 0 0.08 0.345346 0 0.1 0.345346 0 0 0.35061 0 0.02 0.35061 0 0.04 0.35061 0 0.06 0.35061 0 0.08 0.35061 0 0.1 0.35061 0 0 0.355993 0 0.02 0.355993 0 0.04 0.355993 0 0.06 0.355993 0 0.08 0.355993 0 0.1 0.355993 0 0 0.361512 0 0.02 0.361512 0 0.04 0.361512 0 0.06 0.361512 0 0.08 0.361512 0 0.1 0.361512 0 0 0.367183 0 0.02 0.367183 0 0.04 0.367183 0 0.06 0.367183 0 0.08 0.367183 0 0.1 0.367183 0 0 0.37302 0 0.02 0.37302 0 0.04 0.37302 0 0.06 0.37302 0 0.08 0.37302 0 0.1 0.37302 0 0 0.379037 0 0.02 0.379037 0 0.04 0.379037 0 0.06 0.379037 0 0.08 0.379037 0 0.1 0.379037 0 0 0.385248 0 0.02 0.385248 0 0.04 0.385248 0 0.06 0.385248 0 0.08 0.385248 0 0.1 0.385248 0 0 0.391669 0 0.02 0.391669 0 0.04 0.391669 0 0.06 0.391669 0 0.08 0.391669 0 0.1 0.391669 0 0 0.398319 0 0.02 0.398319 0 0.04 0.398319 0 0.06 0.398319 0 0.08 0.398319 0 0.1 0.398319 0 0 0.405215 0 0.02 0.405215 0 0.04 0.405215 0 0.06 0.405215 0 0.08 0.405215 0 0.1 0.405215 0 0 0.41238 0 0.02 0.41238 0 0.04 0.41238 0 0.06 0.41238 0 0.08 0.41238 0 0.1 0.41238 0 0 0.419838 0 0.02 0.419838 0 0.04 0.419838 0 0.06 0.419838 0 0.08 0.419838 0 0.1 0.419838 0 0 0.427617 0 0.02 0.427617 0 0.04 0.427617 0 0.06 0.427617 0 0.08 0.427617 0 0.1 0.427617 0 0 0.435749 0 0.02 0.435749 0 0.04 0.435749 0 0.06 0.435749 0 0.08 0.435749 0 0.1 0.435749 0 0 0.44427 0 0.02 0.44427 0 0.04 0.44427 0 0.06 0.44427 0 0.08 0.44427 0 0.1 0.44427 0 0 0.45322 0 0.02 0.45322 0 0.04 0.45322 0 0.06 0.45322 0 0.08 0.45322 0 0.1 0.45322 0 0 0.462649 0 0.02 0.462649 0 0.04 0.462649 0 0.06 0.462649 0 0.08 0.462649 0 0.1 0.462649 0 0 0.472608 0 0.02 0.472608 0 0.04 0.472608 0 0.06 0.472608 0 0.08 0.472608 0 0.1 0.472608 0 0 0.483153 0 0.02 0.483153 0 0.04 0.483153 0 0.06 0.483153 0 0.08 0.483153 0 0.1 0.483153 0 0 0.494335 0 0.02 0.494335 0 0.04 0.494335 0 0.06 0.494335 0 0.08 0.494335 0 0.1 0.494335 0 0 0.506161 0 0.02 0.506161 0 0.04 0.506161 0 0.06 0.506161 0 0.08 0.506161 0 0.1 0.506161 0 0 0.518479 0 0.02 0.518479 0 0.04 0.518479 0 0.06 0.518479 0 0.08 0.518479 0 0.1 0.518479 0 0 0.530838 0 0.02 0.530838 0 0.04 0.530838 0 0.06 0.530838 0 0.08 0.530838 0 0.1 0.530838 0 0 0.543045 0 0.02 0.543045 0 0.04 0.543045 0 0.06 0.543045 0 0.08 0.543045 0 0.1 0.543045 0 0 0.555099 0 0.02 0.555099 0 0.04 0.555099 0 0.06 0.555099 0 0.08 0.555099 0 0.1 0.555099 0 0 0.567035 0 0.02 0.567035 0 0.04 0.567035 0 0.06 0.567035 0 0.08 0.567035 0 0.1 0.567035 0 0 0.578901 0 0.02 0.578901 0 0.04 0.578901 0 0.06 0.578901 0 0.08 0.578901 0 0.1 0.578901 0 0 0.590735 0 0.02 0.590735 0 0.04 0.590735 0 0.06 0.590735 0 0.08 0.590735 0 0.1 0.590735 0 0 0.602554 0 0.02 0.602554 0 0.04 0.602554 0 0.06 0.602554 0 0.08 0.602554 0 0.1 0.602554 0 0 0.614367 0 0.02 0.614367 0 0.04 0.614367 0 0.06 0.614367 0 0.08 0.614367 0 0.1 0.614367 0 0 0.626176 0 0.02 0.626176 0 0.04 0.626176 0 0.06 0.626176 0 0.08 0.626176 0 0.1 0.626176 0 0 0.628459 0 0.02 0.628459 0 0.04 0.628459 0 0.06 0.628459 0 0.08 0.628459 0 0.1 0.628459 0 0 0.630741 0 0.02 0.630741 0 0.04 0.630741 0 0.06 0.630741 0 0.08 0.630741 0 0.1 0.630741 0 0 0.633022 0 0.02 0.633022 0 0.04 0.633022 0 0.06 0.633022 0 0.08 0.633022 0 0.1 0.633022 0 0 0.635303 0 0.02 0.635303 0 0.04 0.635303 0 0.06 0.635303 0 0.08 0.635303 0 0.1 0.635303 0 0 0.637584 0 0.02 0.637584 0 0.04 0.637584 0 0.06 0.637584 0 0.08 0.637584 0 0.1 0.637584 0 0 0.639862 0 0.02 0.639862 0 0.04 0.639862 0 0.06 0.639862 0 0.08 0.639862 0 0.1 0.639862 0 0 0.642137 0 0.02 0.642137 0 0.04 0.642137 0 0.06 0.642137 0 0.08 0.642137 0 0.1 0.642137 0 0 0.64441 0 0.02 0.64441 0 0.04 0.64441 0 0.06 0.64441 0 0.08 0.64441 0 0.1 0.64441 0 0 0.64669 0 0.02 0.64669 0 0.04 0.64669 0 0.06 0.64669 0 0.08 0.64669 0 0.1 0.64669 0 0 0.648969 0 0.02 0.648969 0 0.04 0.648969 0 0.06 0.648969 0 0.08 0.648969 0 0.1 0.648969 0 0 0.651248 0 0.02 0.651248 0 0.04 0.651248 0 0.06 0.651248 0 0.08 0.651248 0 0.1 0.651248 0 0 0.653529 0 0.02 0.653529 0 0.04 0.653529 0 0.06 0.653529 0 0.08 0.653529 0 0.1 0.653529 0 0 0.655811 0 0.02 0.655811 0 0.04 0.655811 0 0.06 0.655811 0 0.08 0.655811 0 0.1 0.655811 0 0 0.658091 0 0.02 0.658091 0 0.04 0.658091 0 0.06 0.658091 0 0.08 0.658091 0 0.1 0.658091 0 0 0.660372 0 0.02 0.660372 0 0.04 0.660372 0 0.06 0.660372 0 0.08 0.660372 0 0.1 0.660372 0 0 0.662653 0 0.02 0.662653 0 0.04 0.662653 0 0.06 0.662653 0 0.08 0.662653 0 0.1 0.662653 0 0 0.664932 0 0.02 0.664932 0 0.04 0.664932 0 0.06 0.664932 0 0.08 0.664932 0 0.1 0.664932 0 0 0.667211 0 0.02 0.667211 0 0.04 0.667211 0 0.06 0.667211 0 0.08 0.667211 0 0.1 0.667211 0 0 0.669489 0 0.02 0.669489 0 0.04 0.669489 0 0.06 0.669489 0 0.08 0.669489 0 0.1 0.669489 0 0 0.671768 0 0.02 0.671768 0 0.04 0.671768 0 0.06 0.671768 0 0.08 0.671768 0 0.1 0.671768 0 0 0.674047 0 0.02 0.674047 0 0.04 0.674047 0 0.06 0.674047 0 0.08 0.674047 0 
[...]
			<PointData Scalars="VitesseX">
				<DataArray Name="VitesseX" type="Float32" format="ascii">
 0 2.60769e-15 6.41671e-15 -3.81507e-15 1.03935e-14 0 0 2.60311e-15 6.27092e-15 -3.36251e-15 9.75948e-15 0 0 2.14e-15 6.29096e-15 -2.2677e-15 8.87323e-15 0 0 2.0042e-15 5.54191e-15 -7.93654e-17 7.95777e-15 0 0 1.99089e-15 4.39157e-15 1.11873e-15 7.01671e-15 0 0 2.79544e-15 2.58872e-15 9.09202e-16 7.84439e-15 0 0 3.7404e-15 7.42551e-16 1.73214e-16 9.68225e-15 0 0 2.37825e-15 2.41361e-15 -1.4418e-15 9.72639e-15 0 0 1.63406e-15 3.09024e-15 -2.03217e-15 9.90253e-15 0 0 1.97136e-15 3.94559e-17 -5.40246e-16 9.51561e-15 0 0 2.04775e-15 -2.49697e-15 1.16163e-15 7.37402e-15 0 0 1.32617e-15 -3.70876e-16 -7.8238e-17 6.76308e-15 0 0 1.76599e-15 -8.43833e-16 3.22483e-15 4.98995e-15 0 0 -3.04983e-16 1.15524e-15 3.06992e-15 6.01973e-15 0 0 -3.48741e-15 5.83172e-15 -6.62641e-16 6.04557e-15 0 0 -2.57121e-15 2.65634e-15 4.92625e-15 -1.48706e-15 0 0 -4.01286e-15 4.53957e-15 5.28698e-15 -6.53295e-15 0 0 -2.60075e-15 4.77686e-15 3.41842e-15 -8.26286e-15 0 0 8.42468e-16 1.57961e-15 5.37684e-17 -3.58173e-15 0 0 -1.45481e-16 -7.35295e-17 -2.56287e-15 6.88145e-16 0 0 -2.38272e-15 -3.28394e-15 3.31936e-15 -2.44624e-15 0 0 -2.38102e-15 -4.43452e-15 2.65033e-15 1.76427e-15 0 0 1.69063e-16 -6.29125e-15 -2.02413e-15 7.81814e-15 0 0 -1.21453e-15 -8.68811e-16 -4.04841e-15 4.8986e-15 0 0 -3.4724e-15 2.24799e-15 -6.51755e-15 5.46477e-15 0 0 -1.20869e-15 -2.68872e-15 -5.68365e-15 4.37719e-15 0 0 7.39165e-16 -4.12611e-15 -3.40985e-15 3.12971e-15 0 0 -3.29088e-15 2.09183e-15 -5.04681e-15 1.23465e-15 0 0 -5.56521e-15 7.09611e-15 -4.93592e-15 -5.48259e-15 0 0 -6.28635e-15 6.46678e-15 -3.33574e-15 -3.12203e-15 0 0 -2.6525e-15 1.45843e-15 -1.25479e-15 5.07929e-15 0 0 2.56465e-15 -4.27206e-15 2.45934e-15 3.52546e-15 0 0 -7.8185e-15 2.70152e-15 -1.13606e-15 2.98075e-15 0 0 -1.36929e-14 1.25461e-14 -1.19789e-14 1.09656e-14 0 0 1.80398e-15 4.02937e-16 -4.32599e-15 2.70561e-15 0 0 2.66367e-15 -4.06057e-15 7.75201e-15 -1.33784e-14 0 0 -1.16599e-14 1.13339e-14 3.97548e-15 -2.42902e-14 0 0 -1.94871e-15 9.02266e-15 1.55603e-15 -2.43715e-14 0 0 5.41094e-15 1.25311e-14 -3.42832e-15 -1.67447e-14 0 0 -2.9336e-16 1.84284e-14 -6.70789e-15 -7.36873e-16 0 0 -8.81365e-16 1.46021e-14 1.18042e-15 3.50478e-15 0 0 1.0812e-15 1.69994e-14 4.25839e-15 -2.05438e-17 0 0 9.22768e-15 8.02122e-15 1.72522e-15 1.56252e-14 0 0 6.97165e-15 -1.68954e-15 1.89498e-15 2.7625e-14 0 0 -5.80032e-16 5.96208e-16 8.58655e-16 2.17945e-14 0 0 -1.79493e-15 1.58975e-15 1.90801e-15 2.9457e-14 0 0 1.90349e-16 -4.20539e-15 1.62408e-15 4.62323e-14 0 0 3.67919e-15 -3.31101e-15 4.02934e-17 3.52482e-14 0 0 1.15156e-14 -2.31206e-16 5.9419e-15 3.97622e-15 0 0 2.09253e-14 2.07995e-15 1.16808e-14 -1.97473e-14 0 0 2.29748e-14 8.01725e-15 1.64365e-14 -1.65113e-14 0 0 1.34558e-14 5.87796e-15 2.06377e-14 -4.18452e-15 0 0 -1.48595e-14 2.10384e-14 5.43931e-15 -1.94028e-15 0 0 -1.08436e-14 1.34515e-14 3.34782e-15 -5.154e-15 0 0 1.51854e-14 -4.51676e-15 1.60779e-14 -1.63763e-14 0 0 1.59056e-14 8.82397e-15 -7.29422e-15 -5.19696e-15 0 0 -1.0041e-14 1.63727e-14 -2.63817e-14 8.35494e-15 0 0 -3.50106e-14 1.35473e-17 -1.84865e-14 -6.15127e-16 0 0 -1.98516e-14 -1.41599e-14 -3.48892e-14 -2.49367e-14 0 0 -3.60649e-16 -7.67942e-15 -4.16918e-14 -5.63858e-14 0 0 2.35237e-15 -5.16831e-15 -5.44945e-14 -5.68566e-14 0 0 6.21818e-16 -7.43696e-15 -4.07529e-14 -6.9554e-14 0 0 1.37019e-15 -3.17691e-15 -1.29499e-14 -6.89528e-14 0 0 1.35737e-14 9.37449e-15 -3.87945e-14 -3.02583e-14 0 0 8.51357e-16 -1.85358e-15 -3.94901e-14 -6.04259e-15 0 0 -3.02234e-14 -2.43546e-14 -9.06169e-15 8.73882e-17 0 0 -1.19577e-14 -3.93781e-14 -1.8544e-16 1.21585e-14 0 0 1.11011e-15 -2.24854e-14 -1.74772e-15 1.51978e-14 0 0 7.09638e-15 -1.8145e-14 5.34476e-15 2.8308e-15 0 0 8.7664e-15 -1.35369e-14 -8.97743e-15 1.8323e-15 0 0 1.46958e-15 -2.68438e-14 -5.90302e-16 -4.57582e-15 0 0 -1.15352e-14 -3.87131e-14 1.91323e-14 -3.0361e-15 0 0 -2.70711e-14 -5.60152e-15 1.61752e-14 -1.27924e-14 0 0 -4.12288e-15 1.02e-14 1.4333e-14 -4.76063e-14 0 0 -8.86636e-15 1.88691e-14 1.18054e-14 -7.5246e-14 0 0 -1.28304e-14 -2.36099e-15 1.14268e-14 -3.83264e-14 0 0 -1.61784e-14 -1.30623e-14 1.5862e-14 -4.4664e-15 0 0 -1.83286e-14 -7.95387e-15 -1.11451e-14 1.24073e-14 0 0 -1.77828e-15 -2.79523e-14 -4.26554e-15 2.29719e-14 0 0 -7.97736e-15 -2.92356e-14 2.12989e-14 1.4311e-14 0 0 -1.9118e-14 8.97343e-15 -8.38403e-16 -8.33345e-15 0 0 5.07255e-15 9.07518e-15 -3.11452e-14 -1.70548e-14 0 0 2.16009e-14 -1.31399e-14 -2.6788e-14 8.84516e-15 0 0 -1.99481e-14 -1.10875e-14 -5.7396e-15 7.31026e-15 0 0 -3.58611e-14 -2.23263e-14 -4.32275e-15 1.74665e-14 0 0 1.64332e-14 -2.29692e-14 -7.05358e-15 1.22405e-14 0 0 4.32238e-14 -1.49815e-14 1.91082e-14 -1.96138e-14 0 0 -6.09726e-15 7.26988e-15 2.63438e-14 -2.68708e-14 0 0 -6.51605e-15 8.79527e-15 -6.2118e-16 -1.86512e-14 0 0 3.2964e-14 -4.16287e-16 6.00058e-15 -9.87563e-15 0 0 9.75779e-15 2.20971e-14 1.09547e-14 2.29188e-14 0 0 -3.64868e-14 -3.0041e-14 -3.53357e-14 -1.06999e-14 0 0 -1.15632e-13 -1.99374e-13 -1.80146e-13 -1.22092e-13 0 0 -2.38161e-13 -3.98103e-13 -3.82147e-13 -2.26882e-13 0 0 -3.21133e-13 -5.4415e-13 -5.2931e-13 -3.2206e-13 0 0 -3.24216e-13 -5.43832e-13 -5.30864e-13 -3.41545e-13 0 0 -2.23325e-13 -3.65593e-13 -3.62997e-13 -2.22425e-13 0 0 -6.43143e-14 -9.79286e-14 -9.21669e-14 -4.73393e-14 0 0 1.00462e-13 1.4903e-13 1.60822e-13 9.53742e-14 0 0 1.78883e-13 2.84235e-13 2.75901e-13 1.51183e-13 0 0 1.87165e-13 3.13679e-13 2.8744e-13 1.53912e-13 0 0 2.51342e-13 3.76333e-13 3.64739e-13 2.3057e-13 0 0 2.32602e-13 3.32379e-13 3.40668e-13 2.38185e-13 0 0 1.9613e-13 2.57632e-13 2.81738e-13 1.88109e-13 0 0 1.09271e-13 1.65556e-13 1.8379e-13 9.05189e-14 0 0 2.71661e-17 1.6829e-14 4.0996e-14 -1.01457e-14 0 0 6.97573e-14 1.07358e-13 9.84028e-14 9.92365e-14 0 0 6.77276e-13 1.01336e-12 1.05933e-12 6.09475e-13 0 0 1.56661e-12 2.43408e-12 2.52718e-12 1.51707e-12 0 0 2.34358e-12 3.78639e-12 3.82354e-12 2.34743e-12 0 0 2.70494e-12 4.34769e-12 4.36864e-12 2.66331e-12 0 0 2.60165e-12 4.13226e-12 4.18717e-12 2.55622e-12 0 0 2.24722e-12 3.6076e-12 3.63911e-12 2.26383e-12 0 0 1.85995e-12 3.0306e-12 2.9994e-12 1.88391e-12 0 0 1.50916e-12 2.47633e-12 2.47257e-12 1.47534e-12 0 0 1.22495e-12 1.97674e-12 2.02113e-12 1.14854e-12 0 0 9.74098e-13 1.57835e-12 1.64192e-12 9.35031e-13 0 0 7.84426e-13 1.2693e-12 1.31977e-12 7.90115e-13 0 0 6.52584e-13 1.02436e-12 1.01397e-12 6.85295e-13 0 0 5.40871e-13 8.06434e-13 8.26839e-13 5.57876e-13 0 0 4.54968e-13 6.61058e-13 6.38883e-13 4.51501e-13 0 0 3.5365e-13 5.60983e-13 4.67028e-13 3.93837e-13 0 0 2.77664e-13 4.39853e-13 3.59917e-13 2.97207e-13 0 0 2.08718e-13 3.41979e-13 2.02551e-13 2.54987e-13 0 0 1.17023e-13 2.48158e-13 9.2027e-14 1.89583e-13 0 0 5.98964e-14 1.30811e-13 1.90785e-14 1.08312e-13 0 0 2.19541e-14 2.68607e-14 -1.5464e-14 4.30198e-14 0 0 -4.31552e-15 -7.70786e-14 -7.86586e-14 -3.39003e-14 0 0 -3.15639e-14 -1.70359e-13 -1.44171e-13 -9.02159e-14 0 0 -9.32539e-14 -2.15745e-13 -2.22216e-13 -1.29469e-13 0 0 -1.68147e-13 -2.3462e-13 -3.12671e-13 -1.47234e-13 0 0 -2.34642e-13 -2.78353e-13 -3.69166e-13 -1.83504e-13 0 0 -2.69459e-13 -3.58336e-13 -4.29402e-13 -2.87911e-13 0 0 -2.96976e-13 -4.77084e-13 -4.68829e-13 -3.60953e-13 0 0 -3.32774e-13 -6.13841e-13 -5.73172e-13 -4.03529e-13 0 0 -3.71474e-13 -7.42793e-13 -6.21152e-13 -4.3468e-13 0 0 -4.5901e-13 -8.1132e-13 -7.06827e-13 -4.64394e-13 0 0 -5.51078e-13 -8.66738e-13 -8.28942e-13 -5.3032e-13 0 0 -5.86727e-13 -9.77239e-13 -9.05272e-13 -6.09458e-13 0 0 -6.26362e-13 -1.03493e-12 -1.06498e-12 -6.29069e-13 0 0 -6.95654e-13 -1.11433e-12 -1.22196e-12 -5.77253e-13 0 0 -6.87761e-13 -1.14705e-12 -1.21338e-12 -5.38914e-13 0 0 -7.28438e-13 -1.22243e-12 -1.23225e-12 -6.25964e-13 0 0 -6.92825e-13 -1.15864e-12 -1.07897e-12 -6.54223e-13 0 0 -6.57934e-13 -1.04471e-12 -1.01906e-12 -5.13605e-13 0 0 -6.02501e-13 -9.29742e-13 -1.01455e-12 -5.0056e-13 0 0 -4.90259e-13 -7.61385e-13 -8.96202e-13 -4.42643e-13 0 0 -3.89502e-13 -6.32144e-13 -6.80244e-13 -3.32579e-13 0 0 -2.8303e-13 -4.7067e-13 -4.56075e-13 -2.84555e-13 0 0 -1.89714e-13 -3.01057e-13 -3.03158e-13 -1.38197e-13 0 0 -1.05926e-13 -1.69649e-13 -2.04172e-13 -8.80612e-14 0 0 -5.79521e-14 -9.01821e-14 -1.33276e-13 -9.36756e-14 0 0 -3.24872e-14 -7.98403e-14 -5.79246e-14 -8.55166e-14 0 0 -2.86842e-14 -5.63445e-14 -5.97067e-14 -4.28269e-14 0 0 -3.39317e-14 -5.40548e-14 -6.61812e-14 -5.13274e-14 0 0 -2.41805e-14 -6.40174e-14 -5.83437e-14 -6.31699e-14 0 0 -2.24961e-14 -5.86424e-14 -6.47531e-14 -6.31745e-14 0 0 -3.42419e-14 -4.26814e-14 -8.45574e-14 -4.57964e-14 0 0 -4.64284e-14 -4.18537e-14 -8.71825e-14 -2.77141e-14 0 0 -5.36448e-14 -4.32759e-14 -7.55678e-14 -3.0598e-14 0 0 -2.96128e-14 -5.87282e-14 -5.72856e-14 -7.14123e-14 0 0 -4.43986e-15 -6.46888e-14 -8.99399e-14 -6.22466e-14 0 0 -7.26223e-15 -4.34292e-14 -1.10414e-13 -4.07319e-14 0 0 -6.89698e-15 -4.43191e-14 -1.07661e-13 -3.40171e-14 0 0 -1.43177e-14 -3.51748e-14 -1.19597e-13 -1.08183e-14 0 0 -9.42286e-15 -5.85219e-14 -8.42643e-14 -4.05936e-14 0 0 -4.29982e-15 -7.13574e-14 -8.57541e-14 -4.1452e-14 0 0 4.65223e-15 -8.38597e-14 -7.37298e-14 -4.13431e-14 0 0 1.45801e-14 -9.65348e-14 -6.90709e-14 1.36173e-14 0 0 -3.46597e-15 -7.65399e-14 -6.82313e-14 2.69215e-14 0 0 -2.16814e-14 -6.95602e-14 -4.30527e-14 2.04142e-15 0 0 2.89216e-15 -8.40581e-14 5.08599e-16 -5.44499e-15 0 0 3.20377e-14 -8.17375e-14 1.16437e-14 2.02e-14 0 0 -1.39598e-14 -1.00035e-14 -2.06781e-14 3.58302e-14 0 0 -5.51332e-14 6.28151e-14 -4.10219e-14 4.6176e-15 0 0 4.65586e-15 2.78573e-14 -2.6041e-14 -2.41127e-14 0 0 4.91387e-14 -1.77404e-14 -3.23769e-14 -4.82533e-14 0 0 -1.46002e-14 3.90464e-14 -1.17058e-13 4.52901e-14 0 0 -3.89582e-14 5.01462e-14 -1.39984e-13 7.58392e-14 0 0 2.14849e-15 -1.08205e-14 -9.28725e-14 3.37563e-14 0 0 4.57186e-14 -8.1561e-14 -4.18542e-14 5.43184e-14 0 0 6.58005e-14 -8.14391e-14 -4.6792e-14 6.78831e-15 0 0 4.23703e-14 -4.9029e-14 -2.4134e-14 -5.50684e-14 0 0 1.59706e-14 -5.38161e-14 4.82541e-14 -8.53429e-14 0 0 -1.78068e-14 -6.04452e-15 5.11547e-15 -5.53507e-14 0 0 -3.81655e-14 2.49002e-14 -5.3603e-14 1.26749e-14 0 0 2.50887e-14 -7.28909e-14 2.41207e-14 -2.00285e-14 0 0 6.86516e-14 -1.09856e-13 2.61957e-14 -2.04421e-14 0 0 -1.28376e-14 2.4829e-14 -7.21665e-14 1.28816e-14 0 0 -3.07612e-14 2.6885e-14 -3.33278e-14 1.04781e-14 0 0 2.61162e-14 -6.52259e-14 4.48936e-14 4.68076e-14 0 0 4.70562e-14 -8.01046e-14 8.35773e-14 5.55008e-14 0 0 7.10815e-14 -9.08833e-14 5.29537e-14 1.13636e-13 0 0 1.8469e-14 -3.96144e-14 -3.99937e-14 2.15996e-13 0 0 2.16188e-15 -2.19705e-14 -4.09126e-14 1.32323e-13 0 0 3.89401e-14 -7.83118e-14 2.60054e-14 -2.33111e-14 0 0 5.47188e-15 -5.46398e-14 1.33843e-14 -7.22023e-14 0 0 -1.25048e-14 -3.35268e-14 -2.05779e-15 -1.19914e-13 0 0 5.99098e-15 -8.53162e-14 2.89158e-14 -1.63017e-13 0 0 2.47581e-15 -7.42927e-14 -1.585e-14 -1.4112e-13 0 0 -1.60753e-14 -3.23325e-14 -6.57223e-14 -1.21704e-13 0
				</DataArray>
				<DataArray Name="VitesseY" type="Float32" format="ascii">