<?xml version="1.0"?>
<VTKFile type="PolyData">
	<PolyData>
		<Piece NumberOfPoints="1206" NumberOfPolys="1000">
			<Points>
				<DataArray type="Float32" NumberOfComponents="3" format="ascii">
 0 0 0 0.02 0 0 0.04 0 0 0.06 0 0 0.08 0 0 0.1 0 0 0 0.005 0 0.02 0.005 0 0.04 0.005 0 0.06 0.005 0 0.08 0.005 0 0.1 0.005 0 0 0.01 0 0.02 0.01 0 0.04 0.01 0 0.06 0.01 0 0.08 0.01 0 0.1 0.01 0 0 0.015 0 0.02 0.015 0 0.04 0.015 0 0.06 0.015 0 0.08 0.015 0 0.1 0.015 0 0 0.02 0 0.02 0.02 0 0.04 0.02 0 0.06 0.02 0 0.08 0.02 0 0.1 0.02 0 0 0.025 0 0.02 0.025 0 0.04 0.025 0 0.06 0.025 0 0.08 0.025 0 0.1 0.025 0 0 0.03 0 0.02 0.03 0 0.04 0.03 0 0.06 0.03 0 0.08 0.03 0 0.1 0.03 0 0 0.035 0 0.02 0.035 0 0.04 0.035 0 0.06 0.035 0 0.08 0.035 0 0.1 0.035 0 0 0.04 0 0.02 0.04 0 0.04 0.04 0 0.06 0.04 0 0.08 0.04 0 0.1 0.04 0 0 0.045 0 0.02 0.045 0 0.04 0.045 0 0.06 0.045 0 0.08 0.045 0 0.1 0.045 0 0 0.05 0 0.02 0.05 0 0.04 0.05 0 0.06 0.05 0 0.08 0.05 0 0.1 0.05 0 0 0.055 0 0.02 0.055 0 0.04 0.055 0 0.06 0.055 0 0.08 0.055 0 0.1 0.055 0 0 0.06 0 0.02 0.06 0 0.04 0.06 0 0.06 0.06 0 0.08 0.06 0 0.1 0.06 0 0 0.065 0 0.02 0.065 0 0.04 0.065 0 0.06 0.065 0 0.08 0.065 0 0.1 0.065 0 0 0.07 0 0.02 0.07 0 0.04 0.07 0 0.06 0.07 0 0.08 0.07 0 0.1 0.07 0 0 0.075 0 0.02 0.075 0 0.04 0.075 0 0.06 0.075 0 0.08 0.075 0 0.1 0.075 0 0 0.08 0 0.02 0.08 0 0.04 0.08 0 0.06 0.08 0 0.08 0.08 0 0.1 0.08 0 0 0.085 0 0.02 0.085 0 0.04 0.085 0 0.06 0.085 0 0.08 0.085 0 0.1 0.085 0 0 0.09 0 0.02 0.09 0 0.04 0.09 0 0.06 0.09 0 0.08 0.09 0 0.1 0.09 0 0 0.095 0 0.02 0.095 0 0.04 0.095 0 0.06 0.095 0 0.08 0.095 0 0.1 0.095 0 0 0.1 0 0.02 0.1 0 0.04 0.1 0 0.06 0.1 0 0.08 0.1 0 0.1 0.1 0 0 0.105 0 0.02 0.105 0 0.04 0.105 0 0.06 0.105 0 0.08 0.105 0 0.1 0.105 0 0 0.11 0 0.02 0.11 0 0.04 0.11 0 0.06 0.11 0 0.08 0.11 0 0.1 0.11 0 0 0.115 0 0.02 0.115 0 0.04 0.115 0 0.06 0.115 0 0.08 0.115 0 0.1 0.115 0 0 0.12 0 0.02 0.12 0 0.04 0.12 0 0.06 0.12 0 0.08 0.12 0 0.1 0.12 0 0 0.125 0 0.02 0.125 0 0.04 0.125 0 0.06 0.125 0 0.08 0.125 0 0.1 0.125 0 0 0.13 0 0.02 0.13 0 0.04 0.13 0 0.06 0.13 0 0.08 0.13 0 0.1 0.13 0 0 0.135 0 0.02 0.135 0 0.04 0.135 0 0.06 0.135 0 0.08 0.135 0 0.1 0.135 0 0 0.14 0 0.02 0.14 0 0.04 0.14 0 0.06 0.14 0 0.08 0.14 0 0.1 0.14 0 0 0.145 0 0.02 0.145 0 0.04 0.145 0 0.06 0.145 0 0.08 0.145 0 0.1 0.145 0 0 0.15 0 0.02 0.15 0 0.04 0.15 0 0.06 0.15 0 0.08 0.15 0 0.1 0.15 0 0 0.155 0 0.02 0.155 0 0.04 0.155 0 0.06 0.155 0 0.08 0.155 0 0.1 0.155 0 0 0.16 0 0.02 0.16 0 0.04 0.16 0 0.06 0.16 0 0.08 0.16 0 0.1 0.16 0 0 0.165 0 0.02 0.165 0 0.04 0.165 0 0.06 0.165 0 0.08 0.165 0 0.1 0.165 0 0 0.17 0 0.02 0.17 0 0.04 0.17 0 0.06 0.17 0 0.08 0.17 0 0.1 0.17 0 0 0.175 0 0.02 0.175 0 0.04 0.175 0 0.06 0.175 0 0.08 0.175 0 0.1 0.175 0 0 0.18 0 0.02 0.18 0 0.04 0.18 0 0.06 0.18 0 0.08 0.18 0 0.1 0.18 0 0 0.185 0 0.02 0.185 0 0.04 0.185 0 0.06 0.185 0 0.08 0.185 0 0.1 0.185 0 0 0.19 0 0.02 0.19 0 0.04 0.19 0 0.06 0.19 0 0.08 0.19 0 0.1 0.19 0 0 0.195 0 0.02 0.195 0 0.04 0.195 0 0.06 0.195 0 0.08 0.195 0 0.1 0.195 0 0 0.2 0 0.02 0.2 0 0.04 0.2 0 0.06 0.2 0 0.08 0.2 0 0.1 0.2 0 0 0.205 0 0.02 0.205 0 0.04 0.205 0 0.06 0.205 0 0.08 0.205 0 0.1 0.205 0 0 0.21 0 0.02 0.21 0 0.04 0.21 0 0.06 0.21 0 0.08 0.21 0 0.1 0.21 0 0 0.215 0 0.02 0.215 0 0.04 0.215 0 0.06 0.215 0 0.08 0.215 0 0.1 0.215 0 0 0.22 0 0.02 0.22 0 0.04 0.22 0 0.06 0.22 0 0.08 0.22 0 0.1 0.22 0 0 0.225 0 0.02 0.225 0 0.04 0.225 0 0.06 0.225 0 0.08 0.225 0 0.1 0.225 0 0 0.23 0 0.02 0.23 0 0.04 0.23 0 0.06 0.23 0 0.08 0.23 0 0.1 0.23 0 0 0.235 0 0.02 0.235 0 0.04 0.235 0 0.06 0.235 0 0.08 0.235 0 0.1 0.235 0 0 0.24 0 0.02 0.24 0 0.04 0.24 0 0.06 0.24 0 0.08 0.24 0 0.1 0.24 0 0 0.245 0 0.02 0.245 0 0.04 0.245 0 0.06 0.245 0 0.08 0.245 0 0.1 0.245 0 0 0.25 0 0.02 0.25 0 0.04 0.25 0 0.06 0.25 0 0.08 0.25 0 0.1 0.25 0 0 0.255 0 0.02 0.255 0 0.04 0.255 0 0.06 0.255 0 0.08 0.255 0 0.1 0.255 0 0 0.26 0 0.02 0.26 0 0.04 0.26 0 0.06 0.26 0 0.08 0.26 0 0.1 0.26 0 0 0.265 0 0.02 0.265 0 0.04 0.265 0 0.06 0.265 0 0.08 0.265 0 0.1 0.265 0 0 0.27 0 0.02 0.27 0 0.04 0.27 0 0.06 0.27 0 0.08 0.27 0 0.1 0.27 0 0 0.275 0 0.02 0.275 0 0.04 0.275 0 0.06 0.275 0 0.08 0.275 0 0.1 0.275 0 0 0.28 0 0.02 0.28 0 0.04 0.28 0 0.06 0.28 0 0.08 0.28 0 0.1 0.28 0 0 0.285 0 0.02 0.285 0 0.04 0.285 0 0.06 0.285 0 0.08 0.285 0 0.1 0.285 0 0 0.29 0 0.02 0.29 0 0.04 0.29 0 0.06 0.29 0 0.08 0.29 0 0.1 0.29 0 0 0.295 0 0.02 0.295 0 0.04 0.295 0 0.06 0.295 0 0.08 0.295 0 0.1 0.295 0 0 0.3 0 0.02 0.3 0 0.04 0.3 0 0.06 0.3 0 0.08 0.3 0 0.1 0.3 0 0 0.305 0 0.02 0.305 0 0.04 0.305 0 0.06 0.305 0 0.08 0.305 0 0.1 0.305 0 0 0.31 0 0.02 0.31 0 0.04 0.31 0 0.06 0.31 0 0.08 0.31 0 0.1 0.31 0 0 0.315 0 0.02 0.315 0 0.04 0.315 0 0.06 0.315 0 0.08 0.315 0 0.1 0.315 0 0 0.32 0 0.02 0.32 0 0.04 0.32 0 0.06 0.32 0 0.08 0.32 0 0.1 0.32 0 0 0.325 0 0.02 0.325 0 0.04 0.325 0 0.06 0.325 0 0.08 0.325 0 0.1 0.325 0 0 0.33 0 0.02 0.33 0 0.04 0.33 0 0.06 0.33 0 0.08 0.33 0 0.1 0.33 0 0 0.335 0 0.02 0.335 0 0.04 0.335 0 0.06 0.335 0 0.08 0.335 0 0.1 0.335 0 0 0.34 0 0.02 0.34 0 0.04 0.34 0 0.06 0.34 0 0.08 0.34 0 0.1 0.34 0 0 0.345 0 0.02 0.345 0 0.04 0.345 0 0.06 0.345 0 0.08 0.345 0 0.1 0.345 0 0 0.35 0 0.02 0.35 0 0.04 0.35 0 0.06 0.35 0 0.08 0.35 0 0.1 0.35 0 0 0.355002 0 0.02 0.355002 0 0.04 0.355002 0 0.06 0.355002 0 0.08 0.355002 0 0.1 0.355002 0 0 0.360006 0 0.02 0.360006 0 0.04 0.360006 0 0.06 0.360006 0 0.08 0.360006 0 0.1 0.360006 0 0 0.36502 0 0.02 0.36502 0 0.04 0.36502 0 0.06 0.36502 0 0.08 0.36502 0 0.1 0.36502 0 0 0.370057 0 0.02 0.370057 0 0.04 0.370057 0 0.06 0.370057 0 0.08 0.370057 0 0.1 0.370057 0 0 0.37514 0 0.02 0.37514 0 0.04 0.37514 0 0.06 0.37514 0 0.08 0.37514 0 0.1 0.37514 0 0 0.380302 0 0.02 0.380302 0 0.04 0.380302 0 0.06 0.380302 0 0.08 0.380302 0 0.1 0.380302 0 0 0.38558 0 0.02 0.38558 0 0.04 0.38558 0 0.06 0.38558 0 0.08 0.38558 0 0.1 0.38558 0 0 0.391009 0 0.02 0.391009 0 0.04 0.391009 0 0.06 0.391009 0 0.08 0.391009 0 0.1 0.391009 0 0 0.396618 0 0.02 0.396618 0 0.04 0.396618 0 0.06 0.396618 0 0.08 0.396618 0 0.1 0.396618 0 0 0.402433 0 0.02 0.402433 0 0.04 0.402433 0 0.06 0.402433 0 0.08 0.402433 0 0.1 0.402433 0 0 0.408477 0 0.02 0.408477 0 0.04 0.408477 0 0.06 0.408477 0 0.08 0.408477 0 0.1 0.408477 0 0 0.414777 0 0.02 0.414777 0 0.04 0.414777 0 0.06 0.414777 0 0.08 0.414777 0 0.1 0.414777 0 0 0.42136 0 0.02 0.42136 0 0.04 0.42136 0 0.06 0.42136 0 0.08 0.42136 0 0.1 0.42136 0 0 0.428257 0 0.02 0.428257 0 0.04 0.428257 0 0.06 0.428257 0 0.08 0.428257 0 0.1 0.428257 0 0 0.435505 0 0.02 0.435505 0 0.04 0.435505 0 0.06 0.435505 0 0.08 0.435505 0 0.1 0.435505 0 0 0.443146 0 0.02 0.443146 0 0.04 0.443146 0 0.06 0.443146 0 0.08 0.443146 0 0.1 0.443146 0 0 0.45123 0 0.02 0.45123 0 0.04 0.45123 0 0.06 0.45123 0 0.08 0.45123 0 0.1 0.45123 0 0 0.459816 0 0.02 0.459816 0 0.04 0.459816 0 0.06 0.459816 0 0.08 0.459816 0 0.1 0.459816 0 0 0.468973 0 0.02 0.468973 0 0.04 0.468973 0 0.06 0.468973 0 0.08 0.468973 0 0.1 0.468973 0 0 0.478782 0 0.02 0.478782 0 0.04 0.478782 0 0.06 0.478782 0 0.08 0.478782 0 0.1 0.478782 0 0 0.489331 0 0.02 0.489331 0 0.04 0.489331 0 0.06 0.489331 0 0.08 0.489331 0 0.1 0.489331 0 0 0.500691 0 0.02 0.500691 0 0.04 0.500691 0 0.06 0.500691 0 0.08 0.500691 0 0.1 0.500691 0 0 0.512826 0 0.02 0.512826 0 0.04 0.512826 0 0.06 0.512826 0 0.08 0.512826 0 0.1 0.512826 0 0 0.525303 0 0.02 0.525303 0 0.04 0.525303 0 0.06 0.525303 0 0.08 0.525303 0 0.1 0.525303 0 0 0.537603 0 0.02 0.537603 0 0.04 0.537603 0 0.06 0.537603 0 0.08 0.537603 0 0.1 0.537603 0 0 0.549706 0 0.02 0.549706 0 0.04 0.549706 0 0.06 0.549706 0 0.08 0.549706 0 0.1 0.549706 0 0 0.561656 0 0.02 0.561656 0 0.04 0.561656 0 0.06 0.561656 0 0.08 0.561656 0 0.1 0.561656 0 0 0.573525 0 0.02 0.573525 0 0.04 0.573525 0 0.06 0.573525 0 0.08 0.573525 0 0.1 0.573525 0 0 0.585361 0 0.02 0.585361 0 0.04 0.585361 0 0.06 0.585361 0 0.08 0.585361 0 0.1 0.585361 0 0 0.597185 0 0.02 0.597185 0 0.04 0.597185 0 0.06 0.597185 0 0.08 0.597185 0 0.1 0.597185 0 0 0.599467 0 0.02 0.599467 0 0.04 0.599467 0 0.06 0.599467 0 0.08 0.599467 0 0.1 0.599467 0 0 0.60175 0 0.02 0.60175 0 0.04 0.60175 0 0.06 0.60175 0 0.08 0.60175 0 0.1 0.60175 0 0 0.604032 0 0.02 0.604032 0 0.04 0.604032 0 0.06 0.604032 0 0.08 0.604032 0 0.1 0.604032 0 0 0.606314 0 0.02 0.606314 0 0.04 0.606314 0 0.06 0.606314 0 0.08 0.606314 0 0.1 0.606314 0 0 0.608596 0 0.02 0.608596 0 0.04 0.608596 0 0.06 0.608596 0 0.08 0.608596 0 0.1 0.608596 0 0 0.610877 0 0.02 0.610877 0 0.04 0.610877 0 0.06 0.610877 0 0.08 0.610877 0 0.1 0.610877 0 0 0.613153 0 0.02 0.613153 0 0.04 0.613153 0 0.06 0.613153 0 0.08 0.613153 0 0.1 0.613153 0 0 0.615428 0 0.02 0.615428 0 0.04 0.615428 0 0.06 0.615428 0 0.08 0.615428 0 0.1 0.615428 0 0 0.617709 0 0.02 0.617709 0 0.04 0.617709 0 0.06 0.617709 0 0.08 0.617709 0 0.1 0.617709 0 0 0.619989 0 0.02 0.619989 0 0.04 0.619989 0 0.06 0.619989 0 0.08 0.619989 0 0.1 0.619989 0 0 0.622268 0 0.02 0.622268 0 0.04 0.622268 0 0.06 0.622268 0 0.08 0.622268 0 0.1 0.622268 0 0 0.624547 0 0.02 0.624547 0 0.04 0.624547 0 0.06 0.624547 0 0.08 0.624547 0 0.1 0.624547 0 0 0.626826 0 0.02 0.626826 0 0.04 0.626826 0 0.06 0.626826 0 0.08 0.626826 0 0.1 0.626826 0 0 0.629105 0 0.02 0.629105 0 0.04 0.629105 0 0.06 0.629105 0 0.08 0.629105 0 0.1 0.629105 0 0 0.631385 0 0.02 0.631385 0 0.04 0.631385 0 0.06 0.631385 0 0.08 0.631385 0 0.1 0.631385 0 0 0.633669 0 0.02 0.633669 0 0.04 0.633669 0 0.06 0.633669 0 0.08 0.633669 0 0.1 0.633669 0 0 0.635955 0 0.02 0.635955 0 0.04 0.635955 0 0.06 0.635955 0 0.08 0.635955 0 0.1 0.635955 0 0 0.63824 0 0.02 0.63824 0 0.04 0.63824 0 0.06 0.63824 0 0.08 0.63824 0 0.1 0.63824 0 0 0.640524 0 0.02 0.640524 0 0.04 0.640524 0 0.06 0.640524 0 0.08 0.640524 0 0.1 0.640524 0 0 0.642809 0 0.02 0.642809 0 0.04 0.642809 0 0.06 0.642809 0 0.08 0.642809 0 0.1 0.642809 0 0 0.645092 0 0.02 0.645092 0 0.04 0.645092 0 0.06 0.645092 0 0.08 0.645092 0 0.1 0.645092 0 0 0.647374 0 0.02 0.647374 0 0.04 0.647374 0 0.06 0.647374 0 0.08 0.647374 0 0.1 0.647374 0 0 0.649656 0 0.02 0.649656 0 0.04 0.649656 0 0.06 0.649656 0 
[...]
			<PointData Scalars="VitesseX">
				<DataArray Name="VitesseX" type="Float32" format="ascii">
 0 -8.52748e-16 -5.49974e-16 6.63091e-15 1.13429e-14 0 0 -7.03342e-16 -3.3208e-16 6.32218e-15 1.11446e-14 0 0 -3.24632e-16 3.61265e-16 6.04063e-15 1.0172e-14 0 0 6.57096e-16 8.36082e-16 4.53065e-15 1.015e-14 0 0 1.14225e-15 2.18417e-15 1.78224e-15 1.12041e-14 0 0 3.8084e-16 4.89653e-15 -2.18509e-15 1.18345e-14 0 0 -1.77707e-15 7.47338e-15 -4.21222e-15 1.03972e-14 0 0 -1.857e-15 6.26828e-15 -5.9989e-16 5.34218e-15 0 0 1.17382e-16 3.51098e-15 3.44796e-15 1.83862e-15 0 0 7.49983e-16 2.45407e-15 3.54014e-15 2.46725e-15 0 0 2.99668e-15 -1.89748e-16 2.25221e-15 5.02364e-15 0 0 2.21358e-15 2.0473e-15 -8.36081e-16 8.10131e-15 0 0 -2.62028e-15 8.20949e-15 -4.87746e-15 8.37309e-15 0 0 3.34046e-16 3.76491e-15 -2.64458e-15 7.64857e-15 0 0 4.55664e-15 -3.30298e-15 2.45029e-15 5.63932e-15 0 0 2.75638e-15 2.26228e-16 1.55126e-15 2.33421e-15 0 0 3.46652e-15 3.95346e-15 -1.87641e-15 2.78563e-16 0 0 5.1376e-15 5.35654e-15 -4.78566e-15 -1.8811e-15 0 0 5.50216e-15 1.9919e-15 -1.14147e-15 -3.42595e-15 0 0 -7.15116e-16 5.3275e-15 2.63352e-15 -3.90752e-15 0 0 -2.07537e-15 8.46057e-15 4.49924e-15 -5.74642e-15 0 0 4.49845e-15 2.86228e-15 8.71854e-15 -7.81397e-15 0 0 4.49564e-15 6.20893e-15 5.81204e-15 -6.00565e-15 0 0 3.47765e-15 1.20862e-14 1.1305e-15 -8.03099e-15 0 0 2.95825e-15 9.75065e-15 3.9449e-15 -1.2626e-14 0 0 5.00184e-16 6.72394e-15 2.88303e-15 -1.09552e-14 0 0 1.08345e-15 1.38023e-15 -2.49594e-16 -7.14623e-15 0 0 9.08252e-15 -8.74009e-15 3.40958e-16 -5.35265e-15 0 0 5.12959e-15 -3.78845e-15 1.64957e-15 -8.46124e-15 0 0 2.22979e-15 -2.33238e-15 8.97044e-15 -1.48017e-14 0 0 -3.45057e-16 1.39916e-15 6.0879e-15 -6.19238e-15 0 0 -1.77734e-15 4.82359e-15 7.36517e-16 5.10939e-15 0 0 5.63628e-15 -1.42544e-15 4.29842e-15 1.79862e-16 0 0 6.83659e-15 -1.38658e-16 6.21314e-15 -1.2323e-14 0 0 4.61427e-15 2.24197e-15 6.42909e-16 -9.69291e-15 0 0 -1.26756e-15 1.72912e-15 2.56396e-15 1.71388e-15 0 0 8.98633e-16 -8.4926e-15 1.16592e-14 6.05164e-15 0 0 4.2667e-15 -7.0827e-15 1.96454e-15 1.42862e-14 0 0 6.78736e-15 6.56632e-16 -1.28363e-14 1.94024e-14 0 0 1.18826e-14 -1.25791e-14 8.48984e-16 9.09037e-15 0 0 4.87526e-15 -7.61001e-15 1.27805e-15 4.76226e-15 0 0 -1.4559e-15 8.51172e-16 1.80143e-15 -2.81867e-15 0 0 -6.85171e-15 8.00619e-15 4.68115e-15 -1.07685e-14 0 0 -1.30551e-15 7.19442e-15 -3.57816e-15 -3.25209e-15 0 0 1.07948e-14 -9.65883e-15 1.40583e-14 -4.1506e-15 0 0 -4.39347e-16 7.21993e-15 1.54443e-14 -7.31186e-15 0 0 -4.86675e-15 1.7679e-14 8.01269e-15 -1.0038e-14 0 0 -2.93432e-15 1.76596e-14 -2.58208e-15 -1.54302e-15 0 0 4.71561e-15 -3.83323e-16 1.10213e-14 -4.57723e-15 0 0 3.7573e-15 -2.95465e-15 1.56302e-14 6.01854e-15 0 0 -8.94511e-15 1.39513e-14 -1.00557e-14 4.70245e-14 0 0 -5.62915e-15 -1.96347e-15 -4.34932e-15 5.62749e-14 0 0 5.97444e-16 -1.59922e-14 1.39626e-14 3.56987e-14 0 0 -4.63304e-16 -1.7241e-14 2.15531e-14 1.68443e-14 0 0 -8.77949e-16 -5.07487e-15 1.11278e-14 1.89206e-15 0 0 8.55594e-15 2.20615e-15 1.91437e-15 -1.06419e-14 0 0 4.92677e-15 3.79835e-15 1.45958e-14 -2.03709e-14 0 0 1.33173e-15 -8.56544e-16 4.25751e-14 -3.15017e-14 0 0 -9.7792e-15 9.46395e-15 3.07057e-14 -1.09061e-14 0 0 -1.10624e-14 2.81965e-14 -6.09249e-15 5.51938e-14 0 0 1.53467e-14 1.21271e-14 1.03027e-14 6.64186e-14 0 0 2.32152e-14 -5.09821e-15 3.94454e-14 4.17395e-14 0 0 -1.39982e-17 3.66527e-15 4.39721e-14 3.59139e-14 0 0 -1.51948e-14 2.92472e-15 2.73001e-14 2.51019e-14 0 0 -1.75044e-14 -2.8243e-15 6.298e-15 1.22672e-14 0 0 -4.59709e-15 -1.62389e-14 -2.31294e-17 -3.01169e-15 0 0 -3.86995e-15 -1.7177e-14 -1.98885e-14 -2.79509e-15 0 0 -1.19222e-14 -7.99393e-15 -2.43672e-14 -2.51547e-14 0 0 3.83931e-15 -5.75628e-15 -1.37259e-14 -5.08176e-14 0 0 4.40036e-15 7.53195e-15 -2.05775e-14 -4.039e-14 0 0 -1.07596e-14 -8.02072e-16 -1.01085e-14 -1.87915e-14 0 0 -1.15084e-14 -1.50146e-14 -6.5749e-15 1.77937e-15 0 0 -4.47152e-15 -2.65575e-14 -3.15898e-14 3.40926e-14 0 0 -5.67361e-15 -2.40166e-14 -3.06435e-14 3.52306e-14 0 0 1.12221e-14 -1.778e-14 -2.57012e-14 3.013e-14 0 0 1.63145e-14 -2.03914e-14 -2.48264e-14 3.30169e-14 0 0 -1.04127e-14 -1.93724e-14 -1.22803e-14 1.56748e-14 0 0 -1.28105e-15 -1.99268e-14 -8.2442e-15 5.36063e-15 0 0 3.46716e-15 4.79424e-15 -2.64329e-14 -1.78714e-14 0 0 -9.49677e-15 1.0565e-14 -2.03319e-14 -2.10668e-14 0 0 -3.91244e-15 -9.67912e-15 1.10829e-14 -1.88781e-14 0 0 2.86505e-15 -1.79771e-14 4.37112e-15 -1.47774e-14 0 0 -5.9699e-15 -6.62374e-15 -6.13591e-15 -6.54799e-15 0 0 -1.47004e-14 4.58128e-15 6.34395e-15 -1.52768e-14 0 0 5.40106e-16 -2.1107e-14 3.46827e-15 -2.17867e-14 0 0 -1.80356e-14 1.44539e-14 -1.77571e-14 -3.00834e-14 0 0 -2.86369e-14 2.59697e-14 -3.25551e-14 7.34064e-15 0 0 3.5198e-15 -2.77513e-14 -3.15512e-14 2.03687e-14 0 0 -2.73074e-15 -7.73206e-15 -2.46417e-14 -1.76118e-15 0 0 -2.08985e-14 1.68354e-14 -3.19633e-15 3.03861e-15 0 0 9.96332e-15 -1.09687e-14 1.83536e-14 -1.53438e-14 0 0 7.11175e-15 7.292e-15 -3.424e-15 9.07216e-15 0 0 5.25398e-15 4.02969e-14 2.02406e-15 3.76532e-14 0 0 1.53124e-14 5.41475e-14 4.22644e-14 1.09039e-14 0 0 -6.65217e-14 -7.44048e-14 -8.29268e-14 -6.04411e-14 0 0 -2.61468e-13 -4.20044e-13 -4.09061e-13 -2.49798e-13 0 0 -5.06609e-13 -8.53709e-13 -8.35318e-13 -5.14909e-13 0 0 -6.98307e-13 -1.13267e-12 -1.16635e-12 -6.95404e-13 0 0 -6.8145e-13 -1.07201e-12 -1.09885e-12 -6.70985e-13 0 0 -5.21567e-13 -8.35515e-13 -8.30503e-13 -5.1881e-13 0 0 -4.67327e-13 -7.57676e-13 -7.75975e-13 -4.5506e-13 0 0 -6.63695e-13 -1.09697e-12 -1.08328e-12 -6.59241e-13 0 0 -6.77776e-13 -1.07847e-12 -1.10148e-12 -6.73179e-13 0 0 -7.39585e-13 -1.13581e-12 -1.14502e-12 -6.96067e-13 0 0 -7.93185e-13 -1.23635e-12 -1.24659e-12 -7.38493e-13 0 0 -8.70187e-13 -1.3623e-12 -1.38e-12 -8.5927e-13 0 0 -8.08602e-13 -1.28627e-12 -1.30566e-12 -7.99694e-13 0 0 -2.26695e-13 -3.50869e-13 -3.58952e-13 -2.21176e-13 0 0 6.59423e-13 1.05837e-12 1.08824e-12 6.48447e-13 0 0 1.46259e-12 2.33169e-12 2.36885e-12 1.47954e-12 0 0 1.78783e-12 2.86845e-12 2.90946e-12 1.79852e-12 0 0 1.63936e-12 2.66455e-12 2.67988e-12 1.65946e-12 0 0 1.29239e-12 2.12537e-12 2.14065e-12 1.33127e-12 0 0 9.44689e-13 1.48818e-12 1.5325e-12 9.16438e-13 0 0 5.95816e-13 9.11901e-13 9.29374e-13 5.80158e-13 0 0 2.44096e-13 4.14732e-13 4.29668e-13 2.93496e-13 0 0 -3.98489e-14 -2.44993e-14 -1.28269e-14 4.55731e-14 0 0 -2.71429e-13 -3.64381e-13 -3.79248e-13 -2.16797e-13 0 0 -4.35292e-13 -6.60172e-13 -6.59494e-13 -4.41406e-13 0 0 -5.85988e-13 -9.34145e-13 -9.11621e-13 -5.95706e-13 0 0 -7.36632e-13 -1.17475e-12 -1.15369e-12 -7.15799e-13 0 0 -8.59718e-13 -1.39787e-12 -1.38199e-12 -8.57199e-13 0 0 -1.00732e-12 -1.60982e-12 -1.56279e-12 -1.00681e-12 0 0 -1.15381e-12 -1.78092e-12 -1.74471e-12 -1.06909e-12 0 0 -1.2592e-12 -1.94865e-12 -1.90487e-12 -1.15091e-12 0 0 -1.32844e-12 -2.13753e-12 -2.02154e-12 -1.31693e-12 0 0 -1.37796e-12 -2.31163e-12 -2.18808e-12 -1.42605e-12 0 0 -1.41881e-12 -2.47977e-12 -2.33397e-12 -1.49572e-12 0 0 -1.51769e-12 -2.56267e-12 -2.44417e-12 -1.60237e-12 0 0 -1.55698e-12 -2.50999e-12 -2.50846e-12 -1.61759e-12 0 0 -1.57972e-12 -2.46563e-12 -2.57597e-12 -1.65515e-12 0 0 -1.48762e-12 -2.34432e-12 -2.40443e-12 -1.58666e-12 0 0 -1.35617e-12 -2.18145e-12 -2.17625e-12 -1.46609e-12 0 0 -1.28224e-12 -1.94384e-12 -2.06409e-12 -1.37619e-12 0 0 -1.11744e-12 -1.67699e-12 -1.80751e-12 -1.14686e-12 0 0 -8.71854e-13 -1.36941e-12 -1.45133e-12 -8.59147e-13 0 0 -6.44125e-13 -1.02673e-12 -1.07927e-12 -6.67682e-13 0 0 -4.20467e-13 -6.71618e-13 -6.72927e-13 -4.64443e-13 0 0 -2.49282e-13 -4.03415e-13 -4.06736e-13 -2.5778e-13 0 0 -1.25956e-13 -1.95651e-13 -2.26698e-13 -1.21213e-13 0 0 -6.47347e-14 -6.35788e-14 -1.14308e-13 -7.65502e-14 0 0 -3.25846e-14 -3.22033e-14 -4.53716e-14 -2.7374e-14 0 0 -8.66098e-15 -2.33743e-14 -3.69288e-14 2.09351e-14 0 0 -8.03202e-15 -2.25592e-15 -2.02245e-14 -1.01018e-14 0 0 -1.79238e-14 1.40238e-14 -2.42603e-14 -1.45677e-14 0 0 -1.51145e-14 -2.19855e-15 -3.23916e-14 -1.62663e-15 0 0 -3.41999e-15 -3.58139e-14 -1.2572e-14 -2.92246e-14 0 0 -6.28931e-15 -3.78746e-14 -1.50468e-15 -4.21339e-14 0 0 -2.08747e-14 -1.97342e-14 -1.30606e-14 -5.48238e-14 0 0 -1.93235e-14 -1.9358e-14 -2.38483e-14 -4.88699e-14 0 0 -4.50923e-15 -3.70766e-14 -1.1346e-16 -5.57555e-14 0 0 5.47112e-15 -5.96998e-14 2.68137e-14 -7.88088e-14 0 0 -1.57722e-15 -3.60626e-14 2.57445e-15 -4.76347e-14 0 0 6.33442e-15 -2.75607e-14 -2.66964e-14 9.10359e-15 0 0 -2.57328e-15 -2.58777e-14 -1.97764e-14 3.56937e-14 0 0 -2.67423e-14 1.00654e-14 -2.3635e-14 6.15883e-14 0 0 -2.51665e-14 3.16857e-14 -4.13135e-15 5.57703e-15 0 0 1.18191e-14 1.79192e-15 4.06731e-14 -3.02551e-14 0 0 3.34105e-14 -2.50489e-14 5.06978e-14 -1.66085e-14 0 0 8.1418e-15 1.46292e-14 5.0512e-14 -2.77746e-14 0 0 1.23531e-14 3.08236e-14 6.50589e-14 -3.81222e-14 0 0 1.26923e-14 2.39348e-14 4.45107e-14 4.37783e-14 0 0 5.02258e-15 2.63446e-14 5.67712e-14 6.72624e-14 0 0 -2.60033e-14 5.94712e-14 7.30054e-14 3.15331e-14 0 0 -1.14319e-14 3.91453e-14 5.73568e-14 4.55204e-14 0 0 1.24946e-14 3.43877e-15 6.84987e-14 2.21908e-14 0 0 -8.41238e-15 3.45495e-14 6.96569e-14 1.44799e-15 0 0 -2.26253e-14 9.562e-14 -2.45781e-14 2.59843e-14 0 0 -4.46774e-15 7.15598e-14 -3.94499e-14 5.42008e-14 0 0 -2.48629e-14 7.16062e-14 -6.5537e-15 4.12496e-14 0 0 -4.66553e-14 7.75261e-14 2.97072e-14 -2.51079e-14 0 0 -2.23356e-15 5.73865e-14 2.66967e-15 -4.58497e-14 0 0 3.81921e-14 3.34806e-14 -8.00023e-14 1.71815e-14 0 0 3.58203e-14 -2.77927e-15 -4.03487e-14 2.8689e-14 0 0 -1.91182e-14 5.77747e-15 2.95656e-14 1.596e-14 0 0 -2.58074e-14 1.2402e-15 4.7513e-14 1.95567e-14 0 0 -1.3759e-14 -1.28693e-14 4.04792e-14 3.29049e-14 0 0 -1.58856e-14 -7.0337e-14 7.98061e-14 2.52446e-14 0 0 -3.36263e-14 -5.3072e-14 1.09608e-13 3.39735e-14 0 0 -5.2033e-14 3.44355e-14 1.12234e-13 -3.44494e-14 0 0 -5.84901e-14 7.61806e-14 5.51444e-14 -7.99832e-14 0 0 -3.47336e-14 2.93931e-14 2.3846e-14 -3.0379e-14 0 0 7.66143e-16 -3.77064e-15 -6.56589e-15 8.18014e-15 0 0 -1.98554e-14 4.91216e-14 -3.63423e-14 -1.72355e-14 0 0 -1.27836e-14 2.55795e-14 1.63545e-14 -4.63426e-14 0 0 2.44119e-14 -3.15347e-14 6.75097e-14 -2.74301e-14 0 0 -3.06773e-16 4.43655e-14 1.78487e-14 -2.07505e-15 0 0 -4.5244e-15 7.43108e-14 -4.73775e-15 -1.03853e-14 0 0 3.16836e-14 -1.42601e-14 7.65795e-14 -7.07673e-14 0 0 -1.6676e-14 -8.58829e-15 6.33552e-14 -1.46989e-14 0 0 -1.84179e-14 2.26691e-15 5.01267e-15 1.16219e-14 0 0 3.37379e-15 3.66815e-14 -4.49692e-14 -3.41546e-14 0 0 -3.89567e-14 1.0897e-13 -4.81578e-14 -5.25278e-14 0 0 -5.93468e-15 3.51363e-14 3.71452e-14 -6.96521e-14 0 0 -4.63738e-15 3.18744e-14 2.47096e-14 -1.00385e-14 0 0 -1.61692e-14 9.75972e-14 -6.37121e-14 5.50741e-14 0 0 1.59685e-14 9.34134e-14 -2.51705e-14 1.3486e-14 0 0 7.96892e-15 1.10265e-13 2.59453e-14 9.30636e-15 0 0 6.41965e-15 1.12539e-13 2.64673e-14 4.44361e-14 0 0 1.51026e-14 6.68645e-14 3.8381e-14 6.26886e-14 0 0 9.42168e-15 4.28673e-14 2.61506e-14 1.00444e-13 0
				</DataArray>
				<DataArray Name="VitesseY" type="Float32" format="ascii">