<?xml version="1.0"?>
<VTKFile type="PolyData">
	<PolyData>
		<Piece NumberOfPoints="1206" NumberOfPolys="1000">
			<Points>
				<DataArray type="Float32" NumberOfComponents="3" format="ascii">
 0 0 0 0.02 0 0 0.04 0 0 0.06 0 0 0.08 0 0 0.1 0 0 0 0.005 0 0.02 0.005 0 0.04 0.005 0 0.06 0.005 0 0.08 0.005 0 0.1 0.005 0 0 0.01 0 0.02 0.01 0 0.04 0.01 0 0.06 0.01 0 0.08 0.01 0 0.1 0.01 0 0 0.015 0 0.02 0.015 0 0.04 0.015 0 0.06 0.015 0 0.08 0.015 0 0.1 0.015 0 0 0.02 0 0.02 0.02 0 0.04 0.02 0 0.06 0.02 0 0.08 0.02 0 0.1 0.02 0 0 0.025 0 0.02 0.025 0 0.04 0.025 0 0.06 0.025 0 0.08 0.025 0 0.1 0.025 0 0 0.03 0 0.02 0.03 0 0.04 0.03 0 0.06 0.03 0 0.08 0.03 0 0.1 0.03 0 0 0.035 0 0.02 0.035 0 0.04 0.035 0 0.06 0.035 0 0.08 0.035 0 0.1 0.035 0 0 0.04 0 0.02 0.04 0 0.04 0.04 0 0.06 0.04 0 0.08 0.04 0 0.1 0.04 0 0 0.045 0 0.02 0.045 0 0.04 0.045 0 0.06 0.045 0 0.08 0.045 0 0.1 0.045 0 0 0.05 0 0.02 0.05 0 0.04 0.05 0 0.06 0.05 0 0.08 0.05 0 0.1 0.05 0 0 0.055 0 0.02 0.055 0 0.04 0.055 0 0.06 0.055 0 0.08 0.055 0 0.1 0.055 0 0 0.06 0 0.02 0.06 0 0.04 0.06 0 0.06 0.06 0 0.08 0.06 0 0.1 0.06 0 0 0.065 0 0.02 0.065 0 0.04 0.065 0 0.06 0.065 0 0.08 0.065 0 0.1 0.065 0 0 0.07 0 0.02 0.07 0 0.04 0.07 0 0.06 0.07 0 0.08 0.07 0 0.1 0.07 0 0 0.075 0 0.02 0.075 0 0.04 0.075 0 0.06 0.075 0 0.08 0.075 0 0.1 0.075 0 0 0.08 0 0.02 0.08 0 0.04 0.08 0 0.06 0.08 0 0.08 0.08 0 0.1 0.08 0 0 0.085 0 0.02 0.085 0 0.04 0.085 0 0.06 0.085 0 0.08 0.085 0 0.1 0.085 0 0 0.09 0 0.02 0.09 0 0.04 0.09 0 0.06 0.09 0 0.08 0.09 0 0.1 0.09 0 0 0.095 0 0.02 0.095 0 0.04 0.095 0 0.06 0.095 0 0.08 0.095 0 0.1 0.095 0 0 0.1 0 0.02 0.1 0 0.04 0.1 0 0.06 0.1 0 0.08 0.1 0 0.1 0.1 0 0 0.105 0 0.02 0.105 0 0.04 0.105 0 0.06 0.105 0 0.08 0.105 0 0.1 0.105 0 0 0.11 0 0.02 0.11 0 0.04 0.11 0 0.06 0.11 0 0.08 0.11 0 0.1 0.11 0 0 0.115 0 0.02 0.115 0 0.04 0.115 0 0.06 0.115 0 0.08 0.115 0 0.1 0.115 0 0 0.12 0 0.02 0.12 0 0.04 0.12 0 0.06 0.12 0 0.08 0.12 0 0.1 0.12 0 0 0.125 0 0.02 0.125 0 0.04 0.125 0 0.06 0.125 0 0.08 0.125 0 0.1 0.125 0 0 0.13 0 0.02 0.13 0 0.04 0.13 0 0.06 0.13 0 0.08 0.13 0 0.1 0.13 0 0 0.135 0 0.02 0.135 0 0.04 0.135 0 0.06 0.135 0 0.08 0.135 0 0.1 0.135 0 0 0.14 0 0.02 0.14 0 0.04 0.14 0 0.06 0.14 0 0.08 0.14 0 0.1 0.14 0 0 0.145 0 0.02 0.145 0 0.04 0.145 0 0.06 0.145 0 0.08 0.145 0 0.1 0.145 0 0 0.15 0 0.02 0.15 0 0.04 0.15 0 0.06 0.15 0 0.08 0.15 0 0.1 0.15 0 0 0.155 0 0.02 0.155 0 0.04 0.155 0 0.06 0.155 0 0.08 0.155 0 0.1 0.155 0 0 0.16 0 0.02 0.16 0 0.04 0.16 0 0.06 0.16 0 0.08 0.16 0 0.1 0.16 0 0 0.165 0 0.02 0.165 0 0.04 0.165 0 0.06 0.165 0 0.08 0.165 0 0.1 0.165 0 0 0.17 0 0.02 0.17 0 0.04 0.17 0 0.06 0.17 0 0.08 0.17 0 0.1 0.17 0 0 0.175 0 0.02 0.175 0 0.04 0.175 0 0.06 0.175 0 0.08 0.175 0 0.1 0.175 0 0 0.18 0 0.02 0.18 0 0.04 0.18 0 0.06 0.18 0 0.08 0.18 0 0.1 0.18 0 0 0.185 0 0.02 0.185 0 0.04 0.185 0 0.06 0.185 0 0.08 0.185 0 0.1 0.185 0 0 0.19 0 0.02 0.19 0 0.04 0.19 0 0.06 0.19 0 0.08 0.19 0 0.1 0.19 0 0 0.195 0 0.02 0.195 0 0.04 0.195 0 0.06 0.195 0 0.08 0.195 0 0.1 0.195 0 0 0.2 0 0.02 0.2 0 0.04 0.2 0 0.06 0.2 0 0.08 0.2 0 0.1 0.2 0 0 0.205 0 0.02 0.205 0 0.04 0.205 0 0.06 0.205 0 0.08 0.205 0 0.1 0.205 0 0 0.21 0 0.02 0.21 0 0.04 0.21 0 0.06 0.21 0 0.08 0.21 0 0.1 0.21 0 0 0.215 0 0.02 0.215 0 0.04 0.215 0 0.06 0.215 0 0.08 0.215 0 0.1 0.215 0 0 0.22 0 0.02 0.22 0 0.04 0.22 0 0.06 0.22 0 0.08 0.22 0 0.1 0.22 0 0 0.225 0 0.02 0.225 0 0.04 0.225 0 0.06 0.225 0 0.08 0.225 0 0.1 0.225 0 0 0.23 0 0.02 0.23 0 0.04 0.23 0 0.06 0.23 0 0.08 0.23 0 0.1 0.23 0 0 0.235 0 0.02 0.235 0 0.04 0.235 0 0.06 0.235 0 0.08 0.235 0 0.1 0.235 0 0 0.24 0 0.02 0.24 0 0.04 0.24 0 0.06 0.24 0 0.08 0.24 0 0.1 0.24 0 0 0.245 0 0.02 0.245 0 0.04 0.245 0 0.06 0.245 0 0.08 0.245 0 0.1 0.245 0 0 0.25 0 0.02 0.25 0 0.04 0.25 0 0.06 0.25 0 0.08 0.25 0 0.1 0.25 0 0 0.255 0 0.02 0.255 0 0.04 0.255 0 0.06 0.255 0 0.08 0.255 0 0.1 0.255 0 0 0.26 0 0.02 0.26 0 0.04 0.26 0 0.06 0.26 0 0.08 0.26 0 0.1 0.26 0 0 0.265 0 0.02 0.265 0 0.04 0.265 0 0.06 0.265 0 0.08 0.265 0 0.1 0.265 0 0 0.27 0 0.02 0.27 0 0.04 0.27 0 0.06 0.27 0 0.08 0.27 0 0.1 0.27 0 0 0.275 0 0.02 0.275 0 0.04 0.275 0 0.06 0.275 0 0.08 0.275 0 0.1 0.275 0 0 0.28 0 0.02 0.28 0 0.04 0.28 0 0.06 0.28 0 0.08 0.28 0 0.1 0.28 0 0 0.285 0 0.02 0.285 0 0.04 0.285 0 0.06 0.285 0 0.08 0.285 0 0.1 0.285 0 0 0.29 0 0.02 0.29 0 0.04 0.29 0 0.06 0.29 0 0.08 0.29 0 0.1 0.29 0 0 0.295 0 0.02 0.295 0 0.04 0.295 0 0.06 0.295 0 0.08 0.295 0 0.1 0.295 0 0 0.3 0 0.02 0.3 0 0.04 0.3 0 0.06 0.3 0 0.08 0.3 0 0.1 0.3 0 0 0.305 0 0.02 0.305 0 0.04 0.305 0 0.06 0.305 0 0.08 0.305 0 0.1 0.305 0 0 0.31 0 0.02 0.31 0 0.04 0.31 0 0.06 0.31 0 0.08 0.31 0 0.1 0.31 0 0 0.315 0 0.02 0.315 0 0.04 0.315 0 0.06 0.315 0 0.08 0.315 0 0.1 0.315 0 0 0.32 0 0.02 0.32 0 0.04 0.32 0 0.06 0.32 0 0.08 0.32 0 0.1 0.32 0 0 0.325 0 0.02 0.325 0 0.04 0.325 0 0.06 0.325 0 0.08 0.325 0 0.1 0.325 0 0 0.33 0 0.02 0.33 0 0.04 0.33 0 0.06 0.33 0 0.08 0.33 0 0.1 0.33 0 0 0.335 0 0.02 0.335 0 0.04 0.335 0 0.06 0.335 0 0.08 0.335 0 0.1 0.335 0 0 0.34 0 0.02 0.34 0 0.04 0.34 0 0.06 0.34 0 0.08 0.34 0 0.1 0.34 0 0 0.345 0 0.02 0.345 0 0.04 0.345 0 0.06 0.345 0 0.08 0.345 0 0.1 0.345 0 0 0.35 0 0.02 0.35 0 0.04 0.35 0 0.06 0.35 0 0.08 0.35 0 0.1 0.35 0 0 0.355 0 0.02 0.355 0 0.04 0.355 0 0.06 0.355 0 0.08 0.355 0 0.1 0.355 0 0 0.36 0 0.02 0.36 0 0.04 0.36 0 0.06 0.36 0 0.08 0.36 0 0.1 0.36 0 0 0.365001 0 0.02 0.365001 0 0.04 0.365001 0 0.06 0.365001 0 0.08 0.365001 0 0.1 0.365001 0 0 0.370003 0 0.02 0.370003 0 0.04 0.370003 0 0.06 0.370003 0 0.08 0.370003 0 0.1 0.370003 0 0 0.375011 0 0.02 0.375011 0 0.04 0.375011 0 0.06 0.375011 0 0.08 0.375011 0 0.1 0.375011 0 0 0.380034 0 0.02 0.380034 0 0.04 0.380034 0 0.06 0.380034 0 0.08 0.380034 0 0.1 0.380034 0 0 0.385093 0 0.02 0.385093 0 0.04 0.385093 0 0.06 0.385093 0 0.08 0.385093 0 0.1 0.385093 0 0 0.390221 0 0.02 0.390221 0 0.04 0.390221 0 0.06 0.390221 0 0.08 0.390221 0 0.1 0.390221 0 0 0.395459 0 0.02 0.395459 0 0.04 0.395459 0 0.06 0.395459 0 0.08 0.395459 0 0.1 0.395459 0 0 0.40085 0 0.02 0.40085 0 0.04 0.40085 0 0.06 0.40085 0 0.08 0.40085 0 0.1 0.40085 0 0 0.406431 0 0.02 0.406431 0 0.04 0.406431 0 0.06 0.406431 0 0.08 0.406431 0 0.1 0.406431 0 0 0.412235 0 0.02 0.412235 0 0.04 0.412235 0 0.06 0.412235 0 0.08 0.412235 0 0.1 0.412235 0 0 0.418292 0 0.02 0.418292 0 0.04 0.418292 0 0.06 0.418292 0 0.08 0.418292 0 0.1 0.418292 0 0 0.424635 0 0.02 0.424635 0 0.04 0.424635 0 0.06 0.424635 0 0.08 0.424635 0 0.1 0.424635 0 0 0.431297 0 0.02 0.431297 0 0.04 0.431297 0 0.06 0.431297 0 0.08 0.431297 0 0.1 0.431297 0 0 0.438319 0 0.02 0.438319 0 0.04 0.438319 0 0.06 0.438319 0 0.08 0.438319 0 0.1 0.438319 0 0 0.445748 0 0.02 0.445748 0 0.04 0.445748 0 0.06 0.445748 0 0.08 0.445748 0 0.1 0.445748 0 0 0.453641 0 0.02 0.453641 0 0.04 0.453641 0 0.06 0.453641 0 0.08 0.453641 0 0.1 0.453641 0 0 0.462064 0 0.02 0.462064 0 0.04 0.462064 0 0.06 0.462064 0 0.08 0.462064 0 0.1 0.462064 0 0 0.471098 0 0.02 0.471098 0 0.04 0.471098 0 0.06 0.471098 0 0.08 0.471098 0 0.1 0.471098 0 0 0.480837 0 0.02 0.480837 0 0.04 0.480837 0 0.06 0.480837 0 0.08 0.480837 0 0.1 0.480837 0 0 0.491388 0 0.02 0.491388 0 0.04 0.491388 0 0.06 0.491388 0 0.08 0.491388 0 0.1 0.491388 0 0 0.502832 0 0.02 0.502832 0 0.04 0.502832 0 0.06 0.502832 0 0.08 0.502832 0 0.1 0.502832 0 0 0.515094 0 0.02 0.515094 0 0.04 0.515094 0 0.06 0.515094 0 0.08 0.515094 0 0.1 0.515094 0 0 0.527585 0 0.02 0.527585 0 0.04 0.527585 0 0.06 0.527585 0 0.08 0.527585 0 0.1 0.527585 0 0 0.53985 0 0.02 0.53985 0 0.04 0.53985 0 0.06 0.53985 0 0.08 0.53985 0 0.1 0.53985 0 0 0.551905 0 0.02 0.551905 0 0.04 0.551905 0 0.06 0.551905 0 0.08 0.551905 0 0.1 0.551905 0 0 0.563822 0 0.02 0.563822 0 0.04 0.563822 0 0.06 0.563822 0 0.08 0.563822 0 0.1 0.563822 0 0 0.575677 0 0.02 0.575677 0 0.04 0.575677 0 0.06 0.575677 0 0.08 0.575677 0 0.1 0.575677 0 0 0.58751 0 0.02 0.58751 0 0.04 0.58751 0 0.06 0.58751 0 0.08 0.58751 0 0.1 0.58751 0 0 0.589793 0 0.02 0.589793 0 0.04 0.589793 0 0.06 0.589793 0 0.08 0.589793 0 0.1 0.589793 0 0 0.592076 0 0.02 0.592076 0 0.04 0.592076 0 0.06 0.592076 0 0.08 0.592076 0 0.1 0.592076 0 0 0.594359 0 0.02 0.594359 0 0.04 0.594359 0 0.06 0.594359 0 0.08 0.594359 0 0.1 0.594359 0 0 0.596642 0 0.02 0.596642 0 0.04 0.596642 0 0.06 0.596642 0 0.08 0.596642 0 0.1 0.596642 0 0 0.598925 0 0.02 0.598925 0 0.04 0.598925 0 0.06 0.598925 0 0.08 0.598925 0 0.1 0.598925 0 0 0.601206 0 0.02 0.601206 0 0.04 0.601206 0 0.06 0.601206 0 0.08 0.601206 0 0.1 0.601206 0 0 0.603483 0 0.02 0.603483 0 0.04 0.603483 0 0.06 0.603483 0 0.08 0.603483 0 0.1 0.603483 0 0 0.60576 0 0.02 0.60576 0 0.04 0.60576 0 0.06 0.60576 0 0.08 0.60576 0 0.1 0.60576 0 0 0.608042 0 0.02 0.608042 0 0.04 0.608042 0 0.06 0.608042 0 0.08 0.608042 0 0.1 0.608042 0 0 0.610325 0 0.02 0.610325 0 0.04 0.610325 0 0.06 0.610325 0 0.08 0.610325 0 0.1 0.610325 0 0 0.612607 0 0.02 0.612607 0 0.04 0.612607 0 0.06 0.612607 0 0.08 0.612607 0 0.1 0.612607 0 0 0.614889 0 0.02 0.614889 0 0.04 0.614889 0 0.06 0.614889 0 0.08 0.614889 0 0.1 0.614889 0 0 0.617172 0 0.02 0.617172 0 0.04 0.617172 0 0.06 0.617172 0 0.08 0.617172 0 0.1 0.617172 0 0 0.619454 0 0.02 0.619454 0 0.04 0.619454 0 0.06 0.619454 0 0.08 0.619454 0 0.1 0.619454 0 0 0.621737 0 0.02 0.621737 0 0.04 0.621737 0 0.06 0.621737 0 0.08 0.621737 0 0.1 0.621737 0 0 0.624019 0 0.02 0.624019 0 0.04 0.624019 0 0.06 0.624019 0 0.08 0.624019 0 0.1 0.624019 0 0 0.6263 0 0.02 0.6263 0 0.04 0.6263 0 0.06 0.6263 0 0.08 0.6263 0 0.1 0.6263 0 0 0.62858 0 0.02 0.62858 0 0.04 0.62858 0 0.06 0.62858 0 0.08 0.62858 0 0.1 0.62858 0 0 0.63086 0 0.02 0.63086 0 0.04 0.63086 0 0.06 0.63086 0 0.08 0.63086 0 0.1 0.63086 0 0 0.633141 0 0.02 0.633141 0 0.04 0.633141 0 0.06 0.633141 0 0.08 0.633141 0 0.1 0.633141 0 0 0.635428 0 0.02 0.635428 0 0.04 0.635428 0 0.06 0.635428 0 0.08 0.635428 0 0.1 0.635428 0 0 0.637719 0 0.02 0.637719 0 0.04 0.637719 0 0.06 0.637719 0 0.08 0.637719 0 0.1 0.637719 0 0 0.640006 0 0.02 0.640006 0 0.04 0.640006 0 0.06 0.640006 0 0.08 0.640006 0 0.1 0.640006 0 0 0.642297 0 0.02
[...]
			<PointData Scalars="VitesseX">
				<DataArray Name="VitesseX" type="Float32" format="ascii">
 0 -2.90538e-15 4.81192e-16 4.83339e-15 8.27307e-15 0 0 -1.79828e-15 -7.74262e-16 5.50145e-15 8.45772e-15 0 0 -9.53753e-16 -1.44089e-15 5.95085e-15 9.10278e-15 0 0 -7.45401e-16 -1.03917e-15 6.35372e-15 8.52277e-15 0 0 -6.38002e-17 -1.38227e-16 5.84281e-15 9.104e-15 0 0 -7.79019e-17 1.32739e-15 3.66915e-15 1.04729e-14 0 0 -5.52343e-17 2.57984e-15 1.91427e-15 1.00115e-14 0 0 -8.53938e-16 4.65042e-15 1.3045e-15 7.3825e-15 0 0 -1.99797e-16 4.07615e-15 2.41243e-15 3.13108e-15 0 0 7.35995e-16 3.96738e-15 1.53503e-15 2.81372e-15 0 0 -1.68315e-16 3.78697e-15 1.63035e-15 3.07141e-15 0 0 -1.53056e-16 2.33731e-15 2.14209e-15 2.09475e-15 0 0 7.07829e-16 4.13147e-15 -3.8223e-15 6.44009e-15 0 0 6.09333e-16 4.45949e-15 -2.58782e-15 6.19293e-15 0 0 4.2034e-16 2.38963e-15 2.99662e-15 7.73897e-16 0 0 2.54855e-15 3.43566e-15 -1.69372e-15 3.88107e-15 0 0 2.62215e-15 4.42877e-15 -4.33801e-15 5.09257e-15 0 0 2.10481e-15 4.88764e-15 -2.59189e-15 2.1176e-16 0 0 2.814e-15 6.40301e-15 -1.41057e-15 -5.55859e-15 0 0 2.09392e-15 6.94028e-15 2.22895e-15 -9.3547e-15 0 0 2.59172e-15 3.99854e-15 4.35945e-15 -6.15391e-15 0 0 3.54173e-15 -2.36701e-16 1.21597e-14 -5.38476e-15 0 0 3.07923e-15 2.34088e-16 1.7789e-14 -6.97759e-15 0 0 8.78452e-16 3.94036e-15 9.49842e-15 6.47674e-16 0 0 -3.33495e-15 1.0836e-14 -8.2147e-16 3.95825e-15 0 0 -6.26441e-15 1.47827e-14 2.75374e-16 -2.65552e-15 0 0 -1.86662e-15 1.2716e-14 3.06536e-15 -7.24767e-15 0 0 1.26508e-15 3.18932e-15 9.80367e-15 -1.19707e-14 0 0 -2.15801e-15 5.37522e-15 4.53447e-15 -1.01582e-14 0 0 1.25366e-15 3.01962e-15 -1.83304e-15 -4.13261e-15 0 0 3.2475e-15 -2.03108e-15 1.33214e-15 -1.95096e-15 0 0 1.34094e-16 3.70517e-15 1.87872e-15 -5.76045e-15 0 0 -6.66515e-15 8.22303e-15 9.2633e-15 -1.43959e-14 0 0 -6.3177e-15 8.8817e-15 5.82753e-15 -8.43829e-15 0 0 2.14035e-15 5.10901e-15 -1.90086e-15 5.20421e-15 0 0 2.92258e-15 8.86757e-15 -7.40632e-15 9.17115e-15 0 0 -7.21677e-16 1.04196e-14 -1.46722e-16 3.00988e-15 0 0 2.18876e-15 3.18908e-15 1.07953e-14 -3.73088e-15 0 0 6.86334e-15 -5.55721e-15 8.79465e-15 8.37689e-16 0 0 3.32351e-15 4.78017e-15 -2.40514e-15 1.2935e-14 0 0 -5.34844e-16 1.73493e-14 -6.72251e-15 1.02397e-14 0 0 -1.50592e-15 1.17028e-14 -1.50723e-16 8.1073e-16 0 0 4.41192e-15 -3.27557e-16 1.89338e-15 -2.99509e-15 0 0 3.37856e-15 -1.57556e-15 3.02532e-15 -4.34531e-15 0 0 2.7947e-15 -2.95429e-15 9.48394e-15 -1.86974e-15 0 0 -9.48708e-16 -3.56888e-15 6.92207e-15 2.0533e-15 0 0 -3.74097e-15 4.67965e-16 2.92583e-15 5.36884e-15 0 0 1.29465e-16 4.91552e-16 5.97386e-15 9.78458e-16 0 0 2.28967e-15 2.11124e-15 1.15306e-14 -1.31338e-14 0 0 9.36497e-15 3.42398e-15 1.01464e-14 -1.5589e-14 0 0 4.18368e-15 1.00287e-14 -6.7535e-15 1.18076e-14 0 0 -9.51257e-15 1.16967e-14 -1.1631e-14 2.74234e-14 0 0 -7.29616e-15 3.91625e-15 -6.12635e-15 2.03534e-14 0 0 -3.38843e-15 -3.13096e-15 1.14504e-14 2.09481e-15 0 0 -1.71317e-14 1.76999e-16 2.5329e-14 1.28057e-15 0 0 -6.82345e-15 -5.82947e-15 2.106e-14 1.22251e-14 0 0 7.49757e-15 -1.18071e-14 1.45703e-14 1.4603e-14 0 0 1.06234e-15 -1.36344e-14 2.67947e-14 3.57631e-15 0 0 -3.71977e-15 -2.90938e-15 2.34572e-14 1.7708e-15 0 0 -1.48535e-14 1.50523e-14 5.7821e-15 1.32154e-14 0 0 -2.27846e-14 4.61243e-15 2.25257e-14 8.34501e-15 0 0 2.10943e-15 -1.79809e-14 4.69949e-14 6.49713e-15 0 0 3.27762e-14 -2.09825e-14 3.34147e-14 2.93121e-14 0 0 1.2845e-14 1.19354e-14 1.06357e-14 6.1989e-14 0 0 -9.03821e-15 2.35609e-14 1.89655e-14 6.87663e-14 0 0 -1.14242e-14 3.50661e-15 4.05269e-14 3.75095e-14 0 0 -4.35346e-15 -1.55656e-14 4.25551e-14 -6.5228e-15 0 0 1.22954e-14 -2.58628e-14 1.88731e-14 -1.44648e-14 0 0 5.98314e-15 -3.35088e-14 1.02286e-14 -1.91491e-14 0 0 -1.27233e-14 -1.14278e-14 -7.65657e-16 -3.33182e-14 0 0 2.42645e-15 -8.97607e-15 -9.47609e-15 -5.24087e-14 0 0 2.40236e-14 -2.16132e-14 1.91942e-15 -4.39319e-14 0 0 -5.58689e-17 -7.89791e-15 1.03997e-14 -3.10945e-14 0 0 -1.40722e-14 -9.63533e-15 1.39999e-14 -2.79355e-14 0 0 -1.41736e-14 -1.84542e-14 1.60923e-14 -2.84664e-14 0 0 1.14669e-15 -2.17086e-14 4.25361e-15 -3.35839e-14 0 0 2.57679e-14 -1.65485e-14 -1.48573e-14 -9.85975e-15 0 0 -6.18301e-15 -1.5445e-14 -1.49993e-14 8.85949e-15 0 0 -1.6815e-14 -2.06085e-14 -6.67928e-15 3.02725e-14 0 0 7.01905e-15 -2.30298e-14 8.78941e-15 -1.86979e-15 0 0 1.21998e-14 -2.75364e-15 1.96454e-15 -2.88522e-14 0 0 2.25751e-14 -3.59873e-15 -1.59773e-14 -1.01877e-14 0 0 2.57008e-14 -2.45334e-14 -1.36496e-14 -4.42834e-15 0 0 -1.86542e-14 -1.23608e-14 -1.10104e-14 -3.93837e-15 0 0 -3.83533e-14 1.54325e-14 1.44947e-15 -1.53148e-14 0 0 -7.98633e-15 3.77826e-15 -9.10501e-16 -1.40675e-14 0 0 1.14902e-14 8.67817e-15 -3.90239e-14 -3.62338e-15 0 0 9.09333e-15 -1.17943e-14 -1.78474e-14 1.005e-14 0 0 -8.43655e-15 -4.04427e-14 4.73241e-15 1.5563e-14 0 0 -2.70085e-14 -2.85512e-15 -5.77241e-15 -1.83404e-15 0 0 -3.80613e-15 -1.40465e-14 1.99807e-14 -9.30555e-15 0 0 1.33566e-14 1.03176e-15 2.51673e-15 -1.47242e-14 0 0 4.72498e-15 2.27583e-14 -2.46302e-14 7.71606e-15 0 0 1.7524e-14 4.01586e-14 2.71691e-14 2.35219e-14 0 0 1.87447e-14 4.90557e-14 6.28519e-14 2.25217e-14 0 0 -7.07331e-14 -9.10417e-14 -1.03874e-13 -5.49878e-14 0 0 -3.15085e-13 -5.16579e-13 -5.26672e-13 -3.29398e-13 0 0 -6.82066e-13 -1.10799e-12 -1.10392e-12 -6.91209e-13 0 0 -9.00702e-13 -1.44189e-12 -1.45534e-12 -8.99982e-13 0 0 -8.43125e-13 -1.36244e-12 -1.34839e-12 -8.50616e-13 0 0 -7.98285e-13 -1.29937e-12 -1.28888e-12 -7.9639e-13 0 0 -1.07986e-12 -1.81142e-12 -1.79177e-12 -1.06106e-12 0 0 -1.08834e-12 -1.79799e-12 -1.74854e-12 -1.06387e-12 0 0 -1.11646e-12 -1.83427e-12 -1.79867e-12 -1.15075e-12 0 0 -1.18552e-12 -1.93406e-12 -1.90722e-12 -1.22037e-12 0 0 -1.27225e-12 -2.04135e-12 -2.04729e-12 -1.29303e-12 0 0 -1.2269e-12 -1.94696e-12 -1.95253e-12 -1.22572e-12 0 0 -6.54435e-13 -1.02185e-12 -9.95243e-13 -6.65249e-13 0 0 2.52526e-13 3.76609e-13 4.47083e-13 2.13215e-13 0 0 1.0324e-12 1.66363e-12 1.73003e-12 1.01767e-12 0 0 1.35874e-12 2.19334e-12 2.23899e-12 1.39352e-12 0 0 1.23617e-12 1.94367e-12 2.0147e-12 1.23884e-12 0 0 8.94387e-13 1.37864e-12 1.47312e-12 8.52306e-13 0 0 5.08954e-13 7.52591e-13 8.05118e-13 4.80054e-13 0 0 1.26016e-13 1.77151e-13 1.69248e-13 1.34159e-13 0 0 -2.08393e-13 -3.5135e-13 -3.1893e-13 -2.28182e-13 0 0 -4.83987e-13 -7.94621e-13 -7.48284e-13 -5.67097e-13 0 0 -7.2809e-13 -1.1964e-12 -1.1376e-12 -7.89553e-13 0 0 -9.37459e-13 -1.52621e-12 -1.49905e-12 -9.20231e-13 0 0 -1.12075e-12 -1.83648e-12 -1.79487e-12 -1.08089e-12 0 0 -1.28308e-12 -2.13604e-12 -2.05211e-12 -1.2598e-12 0 0 -1.40245e-12 -2.33009e-12 -2.2893e-12 -1.41051e-12 0 0 -1.52619e-12 -2.42768e-12 -2.50729e-12 -1.50686e-12 0 0 -1.62797e-12 -2.57864e-12 -2.64256e-12 -1.5596e-12 0 0 -1.64719e-12 -2.7391e-12 -2.63701e-12 -1.62972e-12 0 0 -1.64187e-12 -2.73177e-12 -2.66461e-12 -1.67359e-12 0 0 -1.70115e-12 -2.68879e-12 -2.73822e-12 -1.71562e-12 0 0 -1.60642e-12 -2.51573e-12 -2.56233e-12 -1.64496e-12 0 0 -1.46472e-12 -2.34521e-12 -2.26187e-12 -1.55328e-12 0 0 -1.36617e-12 -2.18564e-12 -2.13097e-12 -1.42732e-12 0 0 -1.14431e-12 -1.83388e-12 -1.88243e-12 -1.21336e-12 0 0 -9.24501e-13 -1.50701e-12 -1.53431e-12 -9.90045e-13 0 0 -6.89727e-13 -1.17151e-12 -1.16258e-12 -6.73716e-13 0 0 -4.65979e-13 -7.63949e-13 -7.98454e-13 -4.22621e-13 0 0 -2.83311e-13 -4.47144e-13 -4.89222e-13 -2.33494e-13 0 0 -1.47711e-13 -2.38428e-13 -2.41636e-13 -1.13266e-13 0 0 -6.81145e-14 -8.79494e-14 -1.08299e-13 -5.61737e-14 0 0 -2.98417e-14 -3.41485e-14 -4.73084e-14 -3.76765e-15 0 0 -1.18984e-14 -2.48281e-14 -7.15157e-15 -3.34572e-15 0 0 -1.24949e-14 -9.23008e-17 -1.0585e-14 -1.88346e-14 0 0 -9.98723e-15 -2.04887e-15 -5.70183e-15 -1.10137e-14 0 0 -7.32267e-15 -1.89557e-14 2.12462e-14 -1.7969e-14 0 0 -1.43798e-14 -5.54501e-15 1.60713e-14 -3.38891e-14 0 0 -1.479e-14 -9.5511e-15 2.16471e-14 -2.47082e-14 0 0 -1.76996e-14 5.41314e-15 1.70103e-14 -6.88339e-15 0 0 -1.41545e-14 1.7802e-14 -1.76236e-15 4.29199e-15 0 0 6.8792e-15 -2.33502e-14 2.70697e-14 -6.82222e-15 0 0 -6.75742e-15 -1.95721e-14 3.36037e-14 -1.53539e-14 0 0 -2.02593e-14 1.7845e-15 1.63264e-14 -1.39512e-14 0 0 -5.15059e-16 -3.1081e-14 5.3257e-14 -4.29786e-14 0 0 -2.08109e-15 -2.41384e-14 4.69252e-14 -3.47633e-14 0 0 -5.61223e-15 -2.52648e-14 1.92439e-14 -6.95365e-15 0 0 1.28064e-15 -4.03887e-14 3.70332e-14 8.44408e-15 0 0 -9.2825e-15 2.34464e-15 -2.58351e-15 5.53583e-14 0 0 -5.5005e-15 2.88066e-14 -2.17547e-14 7.38107e-14 0 0 -3.92569e-15 4.66272e-14 -8.48903e-15 5.24978e-14 0 0 -1.95645e-14 7.53479e-14 -7.643e-15 4.77432e-14 0 0 -7.03255e-15 6.54426e-14 4.88011e-14 1.26806e-14 0 0 3.38598e-14 2.54782e-14 4.3388e-14 1.40564e-14 0 0 4.41097e-14 1.83444e-14 -7.46398e-15 6.52383e-14 0 0 1.95722e-14 2.22415e-14 1.13389e-14 5.35682e-14 0 0 2.79521e-14 2.08897e-14 2.79961e-14 6.32546e-14 0 0 1.08011e-14 5.63157e-14 3.23599e-14 4.82204e-14 0 0 -1.17665e-14 5.06619e-14 1.41253e-14 3.23214e-14 0 0 -1.16646e-14 3.72128e-14 1.62222e-14 2.96759e-14 0 0 5.10566e-15 -2.79855e-15 9.31253e-14 -4.3138e-14 0 0 3.06254e-14 -4.55508e-14 1.25906e-13 -6.77054e-14 0 0 1.81989e-16 4.87537e-15 1.10494e-13 -2.41029e-14 0 0 -1.22142e-14 2.37752e-14 1.31102e-13 -3.41529e-15 0 0 6.98697e-15 4.51558e-14 8.59609e-14 1.91414e-14 0 0 3.63718e-14 3.77914e-14 4.86009e-14 3.19883e-14 0 0 7.21509e-14 -3.6554e-14 1.10729e-13 6.0807e-15 0 0 6.97142e-14 -5.70634e-14 1.70753e-13 -1.72091e-14 0 0 2.55795e-14 -1.33787e-14 1.42413e-13 9.89208e-15 0 0 4.46148e-15 1.70038e-14 7.35037e-14 2.22984e-14 0 0 5.16709e-15 -2.74277e-15 6.10264e-14 1.63415e-15 0 0 3.13163e-14 -8.24755e-14 1.26466e-13 -3.98265e-14 0 0 2.97071e-14 -1.04358e-13 1.56444e-13 -7.37828e-14 0 0 -3.10312e-14 -3.91716e-14 1.19857e-13 -7.83094e-14 0 0 -5.03279e-14 -8.46101e-15 8.77605e-14 -1.15031e-14 0 0 -6.73097e-14 5.82868e-14 4.0596e-14 3.29262e-14 0 0 -6.39829e-14 8.42855e-14 4.21463e-14 1.47031e-14 0 0 4.0321e-15 8.67606e-15 8.48391e-14 1.03376e-14 0 0 2.90568e-14 -7.91247e-15 8.78122e-14 -2.81519e-14 0 0 -3.78647e-14 5.50904e-14 6.0696e-14 -3.57232e-14 0 0 -5.89628e-14 6.09124e-14 7.87415e-14 -4.83564e-14 0 0 3.02666e-15 4.65585e-15 7.4711e-14 -1.35917e-14 0 0 4.69543e-14 -1.26777e-14 3.77232e-14 -3.15204e-15 0 0 2.3629e-14 3.28957e-14 7.52947e-15 -4.6225e-14 0 0 1.09153e-14 3.04659e-14 1.64796e-14 -1.10276e-13 0 0 1.03885e-14 1.77023e-14 2.4502e-14 -1.34397e-13 0 0 1.49494e-14 -4.44623e-15 3.10031e-15 -6.66601e-14 0 0 -5.90941e-15 2.60542e-14 -2.17052e-14 -1.80704e-14 0 0 -3.74237e-14 6.40453e-14 3.39597e-14 -6.82976e-14 0 0 -3.51063e-14 4.38744e-14 9.25226e-14 -1.10754e-13 0 0 -2.24927e-14 4.73227e-14 1.04305e-13 -6.3855e-14 0 0 8.44185e-15 4.03629e-14 8.60296e-14 -1.79041e-14 0 0 1.16306e-14 5.68345e-14 6.62371e-14 4.15201e-16 0 0 2.39031e-14 6.14841e-14 9.15209e-14 5.32613e-14 0 0 3.19404e-14 1.04613e-13 7.66269e-14 1.08835e-13 0 0 2.60321e-14 1.5053e-13 6.75985e-14 1.04652e-13 0
				</DataArray>
				<DataArray Name="VitesseY" type="Float32" format="ascii">