<?xml version="1.0"?>
<VTKFile type="PolyData">
	<PolyData>
		<Piece NumberOfPoints="1206" NumberOfPolys="1000">
			<Points>
				<DataArray type="Float32" NumberOfComponents="3" format="ascii">
 0 0 0 0.02 0 0 0.04 0 0 0.06 0 0 0.08 0 0 0.1 0 0 0 0.005 0 0.02 0.005 0 0.04 0.005 0 0.06 0.005 0 0.08 0.005 0 0.1 0.005 0 0 0.01 0 0.02 0.01 0 0.04 0.01 0 0.06 0.01 0 0.08 0.01 0 0.1 0.01 0 0 0.015 0 0.02 0.015 0 0.04 0.015 0 0.06 0.015 0 0.08 0.015 0 0.1 0.015 0 0 0.02 0 0.02 0.02 0 0.04 0.02 0 0.06 0.02 0 0.08 0.02 0 0.1 0.02 0 0 0.025 0 0.02 0.025 0 0.04 0.025 0 0.06 0.025 0 0.08 0.025 0 0.1 0.025 0 0 0.03 0 0.02 0.03 0 0.04 0.03 0 0.06 0.03 0 0.08 0.03 0 0.1 0.03 0 0 0.035 0 0.02 0.035 0 0.04 0.035 0 0.06 0.035 0 0.08 0.035 0 0.1 0.035 0 0 0.04 0 0.02 0.04 0 0.04 0.04 0 0.06 0.04 0 0.08 0.04 0 0.1 0.04 0 0 0.045 0 0.02 0.045 0 0.04 0.045 0 0.06 0.045 0 0.08 0.045 0 0.1 0.045 0 0 0.05 0 0.02 0.05 0 0.04 0.05 0 0.06 0.05 0 0.08 0.05 0 0.1 0.05 0 0 0.055 0 0.02 0.055 0 0.04 0.055 0 0.06 0.055 0 0.08 0.055 0 0.1 0.055 0 0 0.06 0 0.02 0.06 0 0.04 0.06 0 0.06 0.06 0 0.08 0.06 0 0.1 0.06 0 0 0.065 0 0.02 0.065 0 0.04 0.065 0 0.06 0.065 0 0.08 0.065 0 0.1 0.065 0 0 0.07 0 0.02 0.07 0 0.04 0.07 0 0.06 0.07 0 0.08 0.07 0 0.1 0.07 0 0 0.075 0 0.02 0.075 0 0.04 0.075 0 0.06 0.075 0 0.08 0.075 0 0.1 0.075 0 0 0.08 0 0.02 0.08 0 0.04 0.08 0 0.06 0.08 0 0.08 0.08 0 0.1 0.08 0 0 0.085 0 0.02 0.085 0 0.04 0.085 0 0.06 0.085 0 0.08 0.085 0 0.1 0.085 0 0 0.09 0 0.02 0.09 0 0.04 0.09 0 0.06 0.09 0 0.08 0.09 0 0.1 0.09 0 0 0.095 0 0.02 0.095 0 0.04 0.095 0 0.06 0.095 0 0.08 0.095 0 0.1 0.095 0 0 0.1 0 0.02 0.1 0 0.04 0.1 0 0.06 0.1 0 0.08 0.1 0 0.1 0.1 0 0 0.105 0 0.02 0.105 0 0.04 0.105 0 0.06 0.105 0 0.08 0.105 0 0.1 0.105 0 0 0.11 0 0.02 0.11 0 0.04 0.11 0 0.06 0.11 0 0.08 0.11 0 0.1 0.11 0 0 0.115 0 0.02 0.115 0 0.04 0.115 0 0.06 0.115 0 0.08 0.115 0 0.1 0.115 0 0 0.12 0 0.02 0.12 0 0.04 0.12 0 0.06 0.12 0 0.08 0.12 0 0.1 0.12 0 0 0.125 0 0.02 0.125 0 0.04 0.125 0 0.06 0.125 0 0.08 0.125 0 0.1 0.125 0 0 0.13 0 0.02 0.13 0 0.04 0.13 0 0.06 0.13 0 0.08 0.13 0 0.1 0.13 0 0 0.135 0 0.02 0.135 0 0.04 0.135 0 0.06 0.135 0 0.08 0.135 0 0.1 0.135 0 0 0.14 0 0.02 0.14 0 0.04 0.14 0 0.06 0.14 0 0.08 0.14 0 0.1 0.14 0 0 0.145 0 0.02 0.145 0 0.04 0.145 0 0.06 0.145 0 0.08 0.145 0 0.1 0.145 0 0 0.15 0 0.02 0.15 0 0.04 0.15 0 0.06 0.15 0 0.08 0.15 0 0.1 0.15 0 0 0.155 0 0.02 0.155 0 0.04 0.155 0 0.06 0.155 0 0.08 0.155 0 0.1 0.155 0 0 0.16 0 0.02 0.16 0 0.04 0.16 0 0.06 0.16 0 0.08 0.16 0 0.1 0.16 0 0 0.165 0 0.02 0.165 0 0.04 0.165 0 0.06 0.165 0 0.08 0.165 0 0.1 0.165 0 0 0.17 0 0.02 0.17 0 0.04 0.17 0 0.06 0.17 0 0.08 0.17 0 0.1 0.17 0 0 0.175 0 0.02 0.175 0 0.04 0.175 0 0.06 0.175 0 0.08 0.175 0 0.1 0.175 0 0 0.18 0 0.02 0.18 0 0.04 0.18 0 0.06 0.18 0 0.08 0.18 0 0.1 0.18 0 0 0.185 0 0.02 0.185 0 0.04 0.185 0 0.06 0.185 0 0.08 0.185 0 0.1 0.185 0 0 0.19 0 0.02 0.19 0 0.04 0.19 0 0.06 0.19 0 0.08 0.19 0 0.1 0.19 0 0 0.195 0 0.02 0.195 0 0.04 0.195 0 0.06 0.195 0 0.08 0.195 0 0.1 0.195 0 0 0.2 0 0.02 0.2 0 0.04 0.2 0 0.06 0.2 0 0.08 0.2 0 0.1 0.2 0 0 0.205 0 0.02 0.205 0 0.04 0.205 0 0.06 0.205 0 0.08 0.205 0 0.1 0.205 0 0 0.21 0 0.02 0.21 0 0.04 0.21 0 0.06 0.21 0 0.08 0.21 0 0.1 0.21 0 0 0.215 0 0.02 0.215 0 0.04 0.215 0 0.06 0.215 0 0.08 0.215 0 0.1 0.215 0 0 0.22 0 0.02 0.22 0 0.04 0.22 0 0.06 0.22 0 0.08 0.22 0 0.1 0.22 0 0 0.225 0 0.02 0.225 0 0.04 0.225 0 0.06 0.225 0 0.08 0.225 0 0.1 0.225 0 0 0.23 0 0.02 0.23 0 0.04 0.23 0 0.06 0.23 0 0.08 0.23 0 0.1 0.23 0 0 0.235 0 0.02 0.235 0 0.04 0.235 0 0.06 0.235 0 0.08 0.235 0 0.1 0.235 0 0 0.24 0 0.02 0.24 0 0.04 0.24 0 0.06 0.24 0 0.08 0.24 0 0.1 0.24 0 0 0.245 0 0.02 0.245 0 0.04 0.245 0 0.06 0.245 0 0.08 0.245 0 0.1 0.245 0 0 0.25 0 0.02 0.25 0 0.04 0.25 0 0.06 0.25 0 0.08 0.25 0 0.1 0.25 0 0 0.255 0 0.02 0.255 0 0.04 0.255 0 0.06 0.255 0 0.08 0.255 0 0.1 0.255 0 0 0.26 0 0.02 0.26 0 0.04 0.26 0 0.06 0.26 0 0.08 0.26 0 0.1 0.26 0 0 0.265 0 0.02 0.265 0 0.04 0.265 0 0.06 0.265 0 0.08 0.265 0 0.1 0.265 0 0 0.27 0 0.02 0.27 0 0.04 0.27 0 0.06 0.27 0 0.08 0.27 0 0.1 0.27 0 0 0.275 0 0.02 0.275 0 0.04 0.275 0 0.06 0.275 0 0.08 0.275 0 0.1 0.275 0 0 0.28 0 0.02 0.28 0 0.04 0.28 0 0.06 0.28 0 0.08 0.28 0 0.1 0.28 0 0 0.285 0 0.02 0.285 0 0.04 0.285 0 0.06 0.285 0 0.08 0.285 0 0.1 0.285 0 0 0.29 0 0.02 0.29 0 0.04 0.29 0 0.06 0.29 0 0.08 0.29 0 0.1 0.29 0 0 0.295 0 0.02 0.295 0 0.04 0.295 0 0.06 0.295 0 0.08 0.295 0 0.1 0.295 0 0 0.3 0 0.02 0.3 0 0.04 0.3 0 0.06 0.3 0 0.08 0.3 0 0.1 0.3 0 0 0.305 0 0.02 0.305 0 0.04 0.305 0 0.06 0.305 0 0.08 0.305 0 0.1 0.305 0 0 0.31 0 0.02 0.31 0 0.04 0.31 0 0.06 0.31 0 0.08 0.31 0 0.1 0.31 0 0 0.315 0 0.02 0.315 0 0.04 0.315 0 0.06 0.315 0 0.08 0.315 0 0.1 0.315 0 0 0.32 0 0.02 0.32 0 0.04 0.32 0 0.06 0.32 0 0.08 0.32 0 0.1 0.32 0 0 0.325 0 0.02 0.325 0 0.04 0.325 0 0.06 0.325 0 0.08 0.325 0 0.1 0.325 0 0 0.33 0 0.02 0.33 0 0.04 0.33 0 0.06 0.33 0 0.08 0.33 0 0.1 0.33 0 0 0.335 0 0.02 0.335 0 0.04 0.335 0 0.06 0.335 0 0.08 0.335 0 0.1 0.335 0 0 0.340001 0 0.02 0.340001 0 0.04 0.340001 0 0.06 0.340001 0 0.08 0.340001 0 0.1 0.340001 0 0 0.345004 0 0.02 0.345004 0 0.04 0.345004 0 0.06 0.345004 0 0.08 0.345004 0 0.1 0.345004 0 0 0.350012 0 0.02 0.350012 0 0.04 0.350012 0 0.06 0.350012 0 0.08 0.350012 0 0.1 0.350012 0 0 0.355035 0 0.02 0.355035 0 0.04 0.355035 0 0.06 0.355035 0 0.08 0.355035 0 0.1 0.355035 0 0 0.360088 0 0.02 0.360088 0 0.04 0.360088 0 0.06 0.360088 0 0.08 0.360088 0 0.1 0.360088 0 0 0.365198 0 0.02 0.365198 0 0.04 0.365198 0 0.06 0.365198 0 0.08 0.365198 0 0.1 0.365198 0 0 0.370394 0 0.02 0.370394 0 0.04 0.370394 0 0.06 0.370394 0 0.08 0.370394 0 0.1 0.370394 0 0 0.37571 0 0.02 0.37571 0 0.04 0.37571 0 0.06 0.37571 0 0.08 0.37571 0 0.1 0.37571 0 0 0.381173 0 0.02 0.381173 0 0.04 0.381173 0 0.06 0.381173 0 0.08 0.381173 0 0.1 0.381173 0 0 0.386806 0 0.02 0.386806 0 0.04 0.386806 0 0.06 0.386806 0 0.08 0.386806 0 0.1 0.386806 0 0 0.392629 0 0.02 0.392629 0 0.04 0.392629 0 0.06 0.392629 0 0.08 0.392629 0 0.1 0.392629 0 0 0.398662 0 0.02 0.398662 0 0.04 0.398662 0 0.06 0.398662 0 0.08 0.398662 0 0.1 0.398662 0 0 0.404927 0 0.02 0.404927 0 0.04 0.404927 0 0.06 0.404927 0 0.08 0.404927 0 0.1 0.404927 0 0 0.411446 0 0.02 0.411446 0 0.04 0.411446 0 0.06 0.411446 0 0.08 0.411446 0 0.1 0.411446 0 0 0.418243 0 0.02 0.418243 0 0.04 0.418243 0 0.06 0.418243 0 0.08 0.418243 0 0.1 0.418243 0 0 0.425349 0 0.02 0.425349 0 0.04 0.425349 0 0.06 0.425349 0 0.08 0.425349 0 0.1 0.425349 0 0 0.432795 0 0.02 0.432795 0 0.04 0.432795 0 0.06 0.432795 0 0.08 0.432795 0 0.1 0.432795 0 0 0.440621 0 0.02 0.440621 0 0.04 0.440621 0 0.06 0.440621 0 0.08 0.440621 0 0.1 0.440621 0 0 0.44887 0 0.02 0.44887 0 0.04 0.44887 0 0.06 0.44887 0 0.08 0.44887 0 0.1 0.44887 0 0 0.457595 0 0.02 0.457595 0 0.04 0.457595 0 0.06 0.457595 0 0.08 0.457595 0 0.1 0.457595 0 0 0.466857 0 0.02 0.466857 0 0.04 0.466857 0 0.06 0.466857 0 0.08 0.466857 0 0.1 0.466857 0 0 0.476724 0 0.02 0.476724 0 0.04 0.476724 0 0.06 0.476724 0 0.08 0.476724 0 0.1 0.476724 0 0 0.487271 0 0.02 0.487271 0 0.04 0.487271 0 0.06 0.487271 0 0.08 0.487271 0 0.1 0.487271 0 0 0.498562 0 0.02 0.498562 0 0.04 0.498562 0 0.06 0.498562 0 0.08 0.498562 0 0.1 0.498562 0 0 0.510581 0 0.02 0.510581 0 0.04 0.510581 0 0.06 0.510581 0 0.08 0.510581 0 0.1 0.510581 0 0 0.523021 0 0.02 0.523021 0 0.04 0.523021 0 0.06 0.523021 0 0.08 0.523021 0 0.1 0.523021 0 0 0.535347 0 0.02 0.535347 0 0.04 0.535347 0 0.06 0.535347 0 0.08 0.535347 0 0.1 0.535347 0 0 0.547493 0 0.02 0.547493 0 0.04 0.547493 0 0.06 0.547493 0 0.08 0.547493 0 0.1 0.547493 0 0 0.559478 0 0.02 0.559478 0 0.04 0.559478 0 0.06 0.559478 0 0.08 0.559478 0 0.1 0.559478 0 0 0.571365 0 0.02 0.571365 0 0.04 0.571365 0 0.06 0.571365 0 0.08 0.571365 0 0.1 0.571365 0 0 0.583208 0 0.02 0.583208 0 0.04 0.583208 0 0.06 0.583208 0 0.08 0.583208 0 0.1 0.583208 0 0 0.595033 0 0.02 0.595033 0 0.04 0.595033 0 0.06 0.595033 0 0.08 0.595033 0 0.1 0.595033 0 0 0.606853 0 0.02 0.606853 0 0.04 0.606853 0 0.06 0.606853 0 0.08 0.606853 0 0.1 0.606853 0 0 0.609134 0 0.02 0.609134 0 0.04 0.609134 0 0.06 0.609134 0 0.08 0.609134 0 0.1 0.609134 0 0 0.611415 0 0.02 0.611415 0 0.04 0.611415 0 0.06 0.611415 0 0.08 0.611415 0 0.1 0.611415 0 0 0.613696 0 0.02 0.613696 0 0.04 0.613696 0 0.06 0.613696 0 0.08 0.613696 0 0.1 0.613696 0 0 0.615976 0 0.02 0.615976 0 0.04 0.615976 0 0.06 0.615976 0 0.08 0.615976 0 0.1 0.615976 0 0 0.618256 0 0.02 0.618256 0 0.04 0.618256 0 0.06 0.618256 0 0.08 0.618256 0 0.1 0.618256 0 0 0.620535 0 0.02 0.620535 0 0.04 0.620535 0 0.06 0.620535 0 0.08 0.620535 0 0.1 0.620535 0 0 0.622809 0 0.02 0.622809 0 0.04 0.622809 0 0.06 0.622809 0 0.08 0.622809 0 0.1 0.622809 0 0 0.625083 0 0.02 0.625083 0 0.04 0.625083 0 0.06 0.625083 0 0.08 0.625083 0 0.1 0.625083 0 0 0.627362 0 0.02 0.627362 0 0.04 0.627362 0 0.06 0.627362 0 0.08 0.627362 0 0.1 0.627362 0 0 0.629642 0 0.02 0.629642 0 0.04 0.629642 0 0.06 0.629642 0 0.08 0.629642 0 0.1 0.629642 0 0 0.631924 0 0.02 0.631924 0 0.04 0.631924 0 0.06 0.631924 0 0.08 0.631924 0 0.1 0.631924 0 0 0.634207 0 0.02 0.634207 0 0.04 0.634207 0 0.06 0.634207 0 0.08 0.634207 0 0.1 0.634207 0 0 0.63649 0 0.02 0.63649 0 0.04 0.63649 0 0.06 0.63649 0 0.08 0.63649 0 0.1 0.63649 0 0 0.638772 0 0.02 0.638772 0 0.04 0.638772 0 0.06 0.638772 0 0.08 0.638772 0 0.1 0.638772 0 0 0.641053 0 0.02 0.641053 0 0.04 0.641053 0 0.06 0.641053 0 0.08 0.641053 0 0.1 0.641053 0 0 0.643334 0 0.02 0.643334 0 0.04 0.643334 0 0.06 0.643334 0 0.08 0.643334 0 0.1 0.643334 0 0 0.645615 0 0.02 0.645615 0 0.04 0.645615 0 0.06 0.645615 0 0.08 0.645615 0 0.1 0.645615 0 0 0.647894 0 0.02 0.647894 0 0.04 0.647894 0 0.06 0.647894 0 0.08 0.647894 0 0.1 0.647894 0 0 0.650173 0 0.02 0.650173 0 0.04 0.650173 0 0.06 0.650173 0 0.08 0.650173 0 0.1 0.650173 0 0 0.652452 0 0.02 0.652452 0 0.04 0.652452 0 0.06 0.652452 0 0.08 0.652452 0 0.1 0.652452 0 0 0.654732 0 0.02 0.654732 0 0.04 0.654732 0 0.06 0.654732 0 0.08 0.654732 0 0.1 0.654732 0 0 0.657014 0 0.02 0.657014 0 0.04 0.657014 0 0.06 0.657014 0 0.
[...]
			<PointData Scalars="VitesseX">
				<DataArray Name="VitesseX" type="Float32" format="ascii">
 0 2.1731e-15 1.07574e-15 4.75895e-15 1.23411e-14 0 0 1.36013e-15 1.75963e-15 4.44814e-15 1.23262e-14 0 0 1.14771e-15 1.91897e-15 3.71782e-15 1.21495e-14 0 0 1.71135e-15 2.36293e-15 1.43493e-15 1.25845e-14 0 0 1.54893e-15 4.4366e-15 -1.40334e-15 1.21066e-14 0 0 -4.7625e-17 6.62777e-15 -2.67865e-15 9.26816e-15 0 0 -1.41389e-15 7.6428e-15 -3.38465e-15 8.77195e-15 0 0 -2.96772e-16 5.20241e-15 -2.2966e-15 9.60624e-15 0 0 4.29108e-16 2.17574e-15 9.54377e-16 7.41247e-15 0 0 1.53722e-15 -1.12574e-16 4.11086e-15 3.74883e-15 0 0 2.71408e-15 1.9064e-15 1.40958e-15 2.90595e-15 0 0 1.15989e-15 5.92386e-15 -2.65963e-15 3.8437e-15 0 0 -1.29081e-16 4.00053e-15 -7.78581e-16 4.13316e-15 0 0 2.50331e-15 1.97074e-15 1.58846e-16 4.39537e-15 0 0 6.39802e-15 -2.37293e-15 2.36387e-15 3.51819e-15 0 0 5.13481e-15 -3.8985e-15 4.08346e-15 1.71175e-15 0 0 2.1597e-15 8.22627e-16 3.0296e-15 3.38028e-16 0 0 -2.80605e-16 5.5682e-15 7.73929e-16 -8.88391e-16 0 0 8.36222e-16 3.54718e-15 3.07753e-15 -4.00127e-15 0 0 3.41225e-15 2.61489e-16 5.69075e-15 -6.36407e-15 0 0 3.83899e-15 1.06089e-15 7.80047e-16 -3.39054e-15 0 0 2.70014e-15 4.59856e-15 -1.68974e-15 -3.84535e-15 0 0 2.28553e-15 8.12359e-15 -5.98347e-15 -3.25725e-15 0 0 5.13493e-15 3.81108e-15 -2.82179e-15 -6.32009e-15 0 0 7.66394e-15 -2.11529e-15 4.09188e-15 -1.11413e-14 0 0 7.86317e-15 -7.51908e-15 1.1454e-15 -1.97893e-16 0 0 3.22398e-15 -7.03965e-15 -3.14678e-15 5.90489e-15 0 0 6.33325e-15 -5.94136e-15 -4.58052e-15 3.58068e-15 0 0 1.09081e-14 -1.11068e-14 -3.90859e-15 4.48585e-15 0 0 5.00706e-15 -7.81558e-15 -2.97506e-15 6.96916e-15 0 0 -5.28481e-16 1.15558e-15 -5.13179e-15 7.07469e-15 0 0 4.28216e-16 2.64557e-15 -5.59409e-15 9.73143e-16 0 0 1.08199e-14 -9.18307e-15 1.47961e-15 -3.4801e-15 0 0 1.03493e-14 -1.37336e-14 8.55072e-15 -2.20334e-15 0 0 -5.37218e-15 -8.26231e-16 8.50678e-15 1.03266e-14 0 0 -4.69882e-15 -4.61558e-15 7.96529e-15 2.71035e-14 0 0 1.14567e-14 -2.03464e-14 6.72946e-15 3.48297e-14 0 0 9.88691e-15 -1.21269e-14 -2.19275e-15 3.36827e-14 0 0 -7.67375e-16 -1.28529e-15 1.36435e-15 1.91862e-14 0 0 5.31124e-15 -1.0486e-14 1.12241e-14 5.70942e-15 0 0 2.99171e-15 -1.16049e-14 6.75642e-15 1.1062e-14 0 0 -1.52338e-15 -5.65684e-15 8.6796e-15 2.16892e-15 0 0 3.37407e-15 1.63102e-16 3.48272e-15 -9.86643e-16 0 0 -6.18295e-16 7.92954e-15 9.71745e-15 -1.70208e-15 0 0 -3.72186e-15 1.04789e-14 2.40505e-14 -1.99423e-14 0 0 5.35384e-16 1.33376e-14 9.69399e-15 -1.42195e-14 0 0 8.08103e-15 9.13314e-15 1.66239e-15 -9.31253e-16 0 0 6.77233e-15 6.32126e-15 -9.44851e-16 1.48063e-14 0 0 2.88171e-15 5.27556e-15 6.24789e-16 2.35263e-14 0 0 -3.01914e-15 6.3591e-15 8.56947e-15 1.57358e-14 0 0 -1.11614e-14 5.35934e-15 8.97706e-15 9.53426e-15 0 0 8.59329e-16 -1.11461e-14 8.36846e-16 1.87136e-14 0 0 1.56084e-14 -2.71729e-14 1.04482e-14 1.27533e-14 0 0 7.63105e-15 -1.5709e-14 1.18386e-14 7.86469e-15 0 0 1.21932e-15 1.31493e-15 1.00411e-15 2.10013e-14 0 0 9.25329e-15 -3.30299e-15 7.33145e-15 2.21167e-14 0 0 1.05518e-14 -3.29152e-15 1.17448e-14 1.30098e-14 0 0 7.46825e-15 4.15331e-16 8.70647e-15 2.52666e-14 0 0 1.46022e-14 4.29809e-15 1.90459e-14 2.27533e-14 0 0 5.37951e-15 1.12703e-14 3.20934e-14 -1.41107e-15 0 0 5.73211e-15 -3.93691e-15 2.89544e-14 2.26204e-14 0 0 -1.71031e-14 1.57401e-16 -1.59642e-15 4.25174e-14 0 0 -3.80379e-14 1.42302e-14 -1.83582e-14 1.67106e-14 0 0 -1.35528e-14 -6.33368e-15 8.62991e-15 -3.1159e-14 0 0 3.02591e-15 -2.4142e-14 8.40087e-16 -4.55235e-14 0 0 -7.55945e-16 -1.27637e-14 -3.50883e-14 -3.25538e-14 0 0 -7.23848e-15 1.26372e-14 -4.74286e-14 -2.38729e-14 0 0 -6.60617e-15 1.64266e-14 -3.20375e-14 -2.00511e-14 0 0 -1.97363e-14 1.21044e-14 -2.69042e-14 2.4542e-15 0 0 -1.87001e-14 -1.32509e-14 -2.35323e-14 1.92414e-14 0 0 -1.2805e-14 -9.1223e-15 -3.64443e-14 3.05385e-14 0 0 -1.97057e-14 -3.51808e-15 -5.0536e-14 4.04746e-14 0 0 -5.06907e-15 -9.05386e-15 -3.02226e-14 3.1295e-14 0 0 2.09951e-14 -2.02939e-14 -4.18285e-14 5.85163e-14 0 0 3.97669e-16 -3.01191e-14 -4.40599e-14 6.54029e-14 0 0 -2.4991e-14 -1.3638e-14 -2.92782e-14 4.8253e-14 0 0 -5.13445e-15 -3.58211e-15 -2.62489e-14 2.43398e-14 0 0 1.29423e-14 3.62316e-15 -1.18159e-14 -2.70846e-14 0 0 -3.12613e-15 3.86712e-15 -1.16599e-15 -3.56605e-14 0 0 -1.90511e-14 1.05217e-14 -2.38612e-14 -9.14999e-15 0 0 -1.04227e-14 -1.53504e-14 -2.1042e-14 1.29049e-15 0 0 -2.69871e-14 -1.43372e-14 1.56757e-14 -5.69724e-15 0 0 -4.33143e-14 2.4591e-14 4.71281e-15 -9.13137e-15 0 0 5.26606e-15 -7.11515e-16 -1.39166e-14 -1.69828e-14 0 0 3.61499e-14 -3.20459e-14 9.35603e-15 -2.9881e-14 0 0 -1.73629e-14 -4.18828e-15 -1.04689e-14 -5.53616e-15 0 0 -4.55981e-14 -2.96361e-15 -2.21891e-14 -5.20381e-16 0 0 -4.78894e-15 -7.6426e-15 -1.22962e-14 -1.34133e-14 0 0 -5.49962e-16 2.7213e-14 -2.70793e-14 -8.75224e-16 0 0 -3.9488e-16 1.87837e-14 -1.56438e-14 -9.51733e-17 0 0 1.90011e-14 -4.81391e-15 7.30896e-15 -6.32888e-15 0 0 1.02164e-15 1.95003e-14 8.15312e-15 3.74094e-14 0 0 4.48618e-15 3.74712e-14 2.66965e-14 3.6728e-14 0 0 -4.8461e-14 -7.01306e-14 -5.64945e-14 -5.67391e-14 0 0 -2.07004e-13 -3.22441e-13 -3.37113e-13 -1.86909e-13 0 0 -4.01266e-13 -6.45915e-13 -6.57963e-13 -3.9624e-13 0 0 -5.42385e-13 -8.9485e-13 -8.91102e-13 -5.57444e-13 0 0 -5.34331e-13 -8.75968e-13 -8.78747e-13 -5.48246e-13 0 0 -3.87957e-13 -6.15769e-13 -6.1155e-13 -3.98753e-13 0 0 -2.33968e-13 -3.70945e-13 -3.68581e-13 -2.33069e-13 0 0 -1.91278e-13 -3.21744e-13 -3.37763e-13 -1.71871e-13 0 0 -2.98449e-13 -4.57806e-13 -4.75525e-13 -2.67261e-13 0 0 -3.14833e-13 -4.53404e-13 -4.74653e-13 -3.14927e-13 0 0 -3.61728e-13 -5.16385e-13 -5.54145e-13 -3.4082e-13 0 0 -4.09007e-13 -6.33539e-13 -6.4744e-13 -3.91146e-13 0 0 -4.9417e-13 -7.74436e-13 -7.68786e-13 -4.90822e-13 0 0 -4.38036e-13 -6.98835e-13 -6.92543e-13 -4.30876e-13 0 0 1.59109e-13 2.0761e-13 2.25136e-13 1.65288e-13 0 0 1.04127e-12 1.65511e-12 1.62112e-12 1.04268e-12 0 0 1.81392e-12 2.99386e-12 2.88985e-12 1.82565e-12 0 0 2.12013e-12 3.53333e-12 3.4607e-12 2.17758e-12 0 0 1.98316e-12 3.28331e-12 3.25436e-12 2.09532e-12 0 0 1.66645e-12 2.71852e-12 2.71945e-12 1.76106e-12 0 0 1.30515e-12 2.12383e-12 2.12296e-12 1.3898e-12 0 0 9.65466e-13 1.57641e-12 1.55429e-12 9.96298e-13 0 0 6.4618e-13 1.12187e-12 1.08051e-12 6.55235e-13 0 0 3.97323e-13 7.26308e-13 6.71854e-13 4.27965e-13 0 0 1.94325e-13 3.62125e-13 3.575e-13 2.50086e-13 0 0 8.8567e-15 1.03574e-13 8.49804e-14 1.0405e-13 0 0 -1.39531e-13 -9.65509e-14 -1.98516e-13 -9.04e-14 0 0 -2.57614e-13 -3.28768e-13 -3.83691e-13 -2.56197e-13 0 0 -3.60423e-13 -5.39423e-13 -5.20171e-13 -3.63277e-13 0 0 -4.79409e-13 -7.11797e-13 -6.99438e-13 -4.86006e-13 0 0 -5.55466e-13 -9.40011e-13 -7.994e-13 -6.34459e-13 0 0 -6.15572e-13 -1.12572e-12 -9.52458e-13 -7.10804e-13 0 0 -7.24459e-13 -1.23354e-12 -1.19141e-12 -7.5878e-13 0 0 -8.56506e-13 -1.34561e-12 -1.32308e-12 -8.84997e-13 0 0 -9.64284e-13 -1.46997e-12 -1.51659e-12 -9.34837e-13 0 0 -1.05092e-12 -1.63234e-12 -1.68619e-12 -9.67025e-13 0 0 -1.15251e-12 -1.79281e-12 -1.75706e-12 -1.05459e-12 0 0 -1.20617e-12 -1.9367e-12 -1.78902e-12 -1.17022e-12 0 0 -1.26233e-12 -2.06648e-12 -1.90019e-12 -1.25235e-12 0 0 -1.32075e-12 -2.11413e-12 -2.0672e-12 -1.2903e-12 0 0 -1.30041e-12 -2.06685e-12 -2.12754e-12 -1.27281e-12 0 0 -1.31415e-12 -2.07789e-12 -2.22884e-12 -1.30555e-12 0 0 -1.21962e-12 -1.98039e-12 -2.10133e-12 -1.29009e-12 0 0 -1.15636e-12 -1.82395e-12 -2.0205e-12 -1.14379e-12 0 0 -1.07349e-12 -1.71679e-12 -1.85298e-12 -1.04072e-12 0 0 -8.68025e-13 -1.46878e-12 -1.45209e-12 -8.69152e-13 0 0 -7.19729e-13 -1.16542e-12 -1.19615e-12 -6.92835e-13 0 0 -5.27603e-13 -8.19173e-13 -8.79483e-13 -5.4524e-13 0 0 -3.46311e-13 -5.55916e-13 -5.65817e-13 -3.73142e-13 0 0 -1.89128e-13 -3.38803e-13 -3.2551e-13 -1.95045e-13 0 0 -9.2692e-14 -1.61859e-13 -1.99975e-13 -6.78885e-14 0 0 -4.18836e-14 -8.78747e-14 -1.04674e-13 -4.08247e-14 0 0 -1.38518e-14 -6.22214e-14 -4.87083e-14 -5.93149e-14 0 0 -1.98354e-14 -2.25274e-14 -4.43633e-14 -7.64666e-14 0 0 -2.8032e-14 -1.31592e-14 -6.76379e-14 -3.46181e-14 0 0 -6.76461e-15 -3.7955e-14 -6.55848e-14 -1.92305e-14 0 0 -3.42018e-15 -4.64342e-14 -3.87354e-14 -6.62219e-14 0 0 -1.57435e-14 -3.70602e-14 -5.23043e-14 -1.96594e-14 0 0 -1.29748e-14 -2.89147e-14 -6.87676e-14 -1.03148e-14 0 0 -1.20138e-14 -3.41615e-14 -3.09597e-14 -6.41853e-14 0 0 -1.18061e-14 -4.23129e-14 -2.63825e-14 -4.04613e-14 0 0 -2.03149e-14 -3.03465e-14 -2.69972e-14 -3.14026e-14 0 0 -2.77634e-14 -2.148e-14 -9.22969e-15 -2.81712e-14 0 0 -1.02821e-14 -3.02453e-14 -1.2004e-14 -4.22224e-15 0 0 -4.46563e-15 -2.77193e-14 -1.73016e-14 -1.22084e-14 0 0 -1.46459e-14 -5.25775e-15 -3.50322e-14 1.2072e-14 0 0 -2.35948e-15 -2.33847e-14 -1.40441e-14 6.70762e-15 0 0 -1.84407e-14 -2.63195e-15 -1.12317e-14 -3.95008e-15 0 0 -4.105e-14 3.33942e-14 -6.6723e-15 -1.95251e-14 0 0 -2.3907e-14 1.95317e-14 2.62628e-14 -6.4527e-14 0 0 4.23786e-15 -2.63825e-17 3.56203e-14 -4.10135e-14 0 0 2.55377e-14 -1.01235e-15 4.37275e-14 -1.76656e-14 0 0 2.00983e-14 4.22033e-14 6.89232e-15 5.31142e-14 0 0 1.45598e-14 8.09558e-14 -5.29525e-14 1.20791e-13 0 0 -2.3002e-14 1.20041e-13 -7.62763e-14 9.15538e-14 0 0 -5.14776e-14 1.18592e-13 -4.01354e-14 3.04053e-14 0 0 -2.57071e-14 5.13071e-14 2.09258e-14 -4.20039e-14 0 0 -1.41234e-14 1.87102e-14 4.43222e-15 -3.62605e-14 0 0 -6.83285e-14 7.98582e-14 -5.30364e-14 8.47909e-15 0 0 -9.82602e-14 1.20315e-13 -7.51931e-14 2.6071e-14 0 0 -3.96161e-14 3.87651e-14 -7.50241e-14 4.12273e-14 0 0 6.0976e-15 -5.94564e-14 -4.01035e-14 3.30846e-14 0 0 -2.24883e-14 -6.39019e-14 3.73115e-14 -1.40513e-14 0 0 -4.25809e-14 -1.60159e-14 5.62509e-14 -2.37055e-14 0 0 -1.80605e-14 1.85101e-14 1.88158e-14 -1.34967e-15 0 0 7.38626e-15 2.26532e-14 -2.71955e-14 -1.55213e-14 0 0 -2.52324e-15 6.71727e-15 -1.49244e-14 -2.61037e-14 0 0 -5.16442e-15 -2.02717e-14 2.68746e-14 -1.44603e-14 0 0 3.78769e-14 -3.09048e-14 -2.48062e-14 1.73553e-14 0 0 9.58158e-15 1.2837e-14 -6.87916e-14 4.01515e-14 0 0 -2.60677e-14 2.32936e-14 -4.71943e-14 5.29648e-14 0 0 2.48661e-14 -7.06554e-14 2.57618e-14 4.58344e-14 0 0 5.48162e-14 -8.64565e-14 4.95584e-14 -4.16856e-15 0 0 -4.01756e-15 3.80675e-14 -3.07113e-14 1.10241e-14 0 0 -2.43062e-14 6.26639e-14 -1.91868e-14 5.26283e-14 0 0 1.08136e-14 -1.00103e-14 6.43944e-14 4.02093e-14 0 0 2.21421e-14 1.02026e-14 2.83864e-14 1.84954e-14 0 0 1.18706e-14 5.11122e-14 -3.53745e-14 2.29173e-14 0 0 -3.18091e-14 6.88138e-14 -4.25495e-14 3.50102e-14 0 0 -2.57103e-14 6.96355e-14 -4.64847e-14 2.67529e-14 0 0 5.51916e-14 -7.97225e-15 8.77219e-16 -2.24023e-14 0 0 8.04694e-14 -1.01616e-14 8.15216e-15 -3.40071e-14 0 0 2.53606e-14 5.13435e-14 -1.60408e-14 -5.31201e-15 0 0 2.10287e-14 3.18711e-14 -6.55028e-16 -9.64361e-15 0 0 2.56198e-14 4.74901e-14 -3.8557e-14 -8.41467e-15 0 0 8.04728e-15 5.51904e-14 -4.86649e-14 -1.1491e-14 0 0 1.64233e-14 -6.56357e-16 1.43284e-14 -4.82552e-14 0 0 1.61779e-14 -1.97816e-14 4.71201e-14 -7.80376e-14 0
				</DataArray>
				<DataArray Name="VitesseY" type="Float32" format="ascii">