<?xml version="1.0"?>
<VTKFile type="PolyData">
	<PolyData>
		<Piece NumberOfPoints="1206" NumberOfPolys="1000">
			<Points>
				<DataArray type="Float32" NumberOfComponents="3" format="ascii">
 0 0 0 0.02 0 0 0.04 0 0 0.06 0 0 0.08 0 0 0.1 0 0 0 0.005 0 0.02 0.005 0 0.04 0.005 0 0.06 0.005 0 0.08 0.005 0 0.1 0.005 0 0 0.01 0 0.02 0.01 0 0.04 0.01 0 0.06 0.01 0 0.08 0.01 0 0.1 0.01 0 0 0.015 0 0.02 0.015 0 0.04 0.015 0 0.06 0.015 0 0.08 0.015 0 0.1 0.015 0 0 0.02 0 0.02 0.02 0 0.04 0.02 0 0.06 0.02 0 0.08 0.02 0 0.1 0.02 0 0 0.025 0 0.02 0.025 0 0.04 0.025 0 0.06 0.025 0 0.08 0.025 0 0.1 0.025 0 0 0.03 0 0.02 0.03 0 0.04 0.03 0 0.06 0.03 0 0.08 0.03 0 0.1 0.03 0 0 0.035 0 0.02 0.035 0 0.04 0.035 0 0.06 0.035 0 0.08 0.035 0 0.1 0.035 0 0 0.04 0 0.02 0.04 0 0.04 0.04 0 0.06 0.04 0 0.08 0.04 0 0.1 0.04 0 0 0.045 0 0.02 0.045 0 0.04 0.045 0 0.06 0.045 0 0.08 0.045 0 0.1 0.045 0 0 0.05 0 0.02 0.05 0 0.04 0.05 0 0.06 0.05 0 0.08 0.05 0 0.1 0.05 0 0 0.055 0 0.02 0.055 0 0.04 0.055 0 0.06 0.055 0 0.08 0.055 0 0.1 0.055 0 0 0.06 0 0.02 0.06 0 0.04 0.06 0 0.06 0.06 0 0.08 0.06 0 0.1 0.06 0 0 0.065 0 0.02 0.065 0 0.04 0.065 0 0.06 0.065 0 0.08 0.065 0 0.1 0.065 0 0 0.07 0 0.02 0.07 0 0.04 0.07 0 0.06 0.07 0 0.08 0.07 0 0.1 0.07 0 0 0.075 0 0.02 0.075 0 0.04 0.075 0 0.06 0.075 0 0.08 0.075 0 0.1 0.075 0 0 0.08 0 0.02 0.08 0 0.04 0.08 0 0.06 0.08 0 0.08 0.08 0 0.1 0.08 0 0 0.085 0 0.02 0.085 0 0.04 0.085 0 0.06 0.085 0 0.08 0.085 0 0.1 0.085 0 0 0.09 0 0.02 0.09 0 0.04 0.09 0 0.06 0.09 0 0.08 0.09 0 0.1 0.09 0 0 0.095 0 0.02 0.095 0 0.04 0.095 0 0.06 0.095 0 0.08 0.095 0 0.1 0.095 0 0 0.1 0 0.02 0.1 0 0.04 0.1 0 0.06 0.1 0 0.08 0.1 0 0.1 0.1 0 0 0.105 0 0.02 0.105 0 0.04 0.105 0 0.06 0.105 0 0.08 0.105 0 0.1 0.105 0 0 0.11 0 0.02 0.11 0 0.04 0.11 0 0.06 0.11 0 0.08 0.11 0 0.1 0.11 0 0 0.115 0 0.02 0.115 0 0.04 0.115 0 0.06 0.115 0 0.08 0.115 0 0.1 0.115 0 0 0.12 0 0.02 0.12 0 0.04 0.12 0 0.06 0.12 0 0.08 0.12 0 0.1 0.12 0 0 0.125 0 0.02 0.125 0 0.04 0.125 0 0.06 0.125 0 0.08 0.125 0 0.1 0.125 0 0 0.13 0 0.02 0.13 0 0.04 0.13 0 0.06 0.13 0 0.08 0.13 0 0.1 0.13 0 0 0.135 0 0.02 0.135 0 0.04 0.135 0 0.06 0.135 0 0.08 0.135 0 0.1 0.135 0 0 0.14 0 0.02 0.14 0 0.04 0.14 0 0.06 0.14 0 0.08 0.14 0 0.1 0.14 0 0 0.145 0 0.02 0.145 0 0.04 0.145 0 0.06 0.145 0 0.08 0.145 0 0.1 0.145 0 0 0.15 0 0.02 0.15 0 0.04 0.15 0 0.06 0.15 0 0.08 0.15 0 0.1 0.15 0 0 0.155 0 0.02 0.155 0 0.04 0.155 0 0.06 0.155 0 0.08 0.155 0 0.1 0.155 0 0 0.16 0 0.02 0.16 0 0.04 0.16 0 0.06 0.16 0 0.08 0.16 0 0.1 0.16 0 0 0.165 0 0.02 0.165 0 0.04 0.165 0 0.06 0.165 0 0.08 0.165 0 0.1 0.165 0 0 0.17 0 0.02 0.17 0 0.04 0.17 0 0.06 0.17 0 0.08 0.17 0 0.1 0.17 0 0 0.175 0 0.02 0.175 0 0.04 0.175 0 0.06 0.175 0 0.08 0.175 0 0.1 0.175 0 0 0.18 0 0.02 0.18 0 0.04 0.18 0 0.06 0.18 0 0.08 0.18 0 0.1 0.18 0 0 0.185 0 0.02 0.185 0 0.04 0.185 0 0.06 0.185 0 0.08 0.185 0 0.1 0.185 0 0 0.19 0 0.02 0.19 0 0.04 0.19 0 0.06 0.19 0 0.08 0.19 0 0.1 0.19 0 0 0.195 0 0.02 0.195 0 0.04 0.195 0 0.06 0.195 0 0.08 0.195 0 0.1 0.195 0 0 0.2 0 0.02 0.2 0 0.04 0.2 0 0.06 0.2 0 0.08 0.2 0 0.1 0.2 0 0 0.205 0 0.02 0.205 0 0.04 0.205 0 0.06 0.205 0 0.08 0.205 0 0.1 0.205 0 0 0.21 0 0.02 0.21 0 0.04 0.21 0 0.06 0.21 0 0.08 0.21 0 0.1 0.21 0 0 0.215 0 0.02 0.215 0 0.04 0.215 0 0.06 0.215 0 0.08 0.215 0 0.1 0.215 0 0 0.22 0 0.02 0.22 0 0.04 0.22 0 0.06 0.22 0 0.08 0.22 0 0.1 0.22 0 0 0.225 0 0.02 0.225 0 0.04 0.225 0 0.06 0.225 0 0.08 0.225 0 0.1 0.225 0 0 0.23 0 0.02 0.23 0 0.04 0.23 0 0.06 0.23 0 0.08 0.23 0 0.1 0.23 0 0 0.235 0 0.02 0.235 0 0.04 0.235 0 0.06 0.235 0 0.08 0.235 0 0.1 0.235 0 0 0.24 0 0.02 0.24 0 0.04 0.24 0 0.06 0.24 0 0.08 0.24 0 0.1 0.24 0 0 0.245 0 0.02 0.245 0 0.04 0.245 0 0.06 0.245 0 0.08 0.245 0 0.1 0.245 0 0 0.25 0 0.02 0.25 0 0.04 0.25 0 0.06 0.25 0 0.08 0.25 0 0.1 0.25 0 0 0.255 0 0.02 0.255 0 0.04 0.255 0 0.06 0.255 0 0.08 0.255 0 0.1 0.255 0 0 0.26 0 0.02 0.26 0 0.04 0.26 0 0.06 0.26 0 0.08 0.26 0 0.1 0.26 0 0 0.265 0 0.02 0.265 0 0.04 0.265 0 0.06 0.265 0 0.08 0.265 0 0.1 0.265 0 0 0.27 0 0.02 0.27 0 0.04 0.27 0 0.06 0.27 0 0.08 0.27 0 0.1 0.27 0 0 0.275 0 0.02 0.275 0 0.04 0.275 0 0.06 0.275 0 0.08 0.275 0 0.1 0.275 0 0 0.28 0 0.02 0.28 0 0.04 0.28 0 0.06 0.28 0 0.08 0.28 0 0.1 0.28 0 0 0.285 0 0.02 0.285 0 0.04 0.285 0 0.06 0.285 0 0.08 0.285 0 0.1 0.285 0 0 0.290002 0 0.02 0.290002 0 0.04 0.290002 0 0.06 0.290002 0 0.08 0.290002 0 0.1 0.290002 0 0 0.295005 0 0.02 0.295005 0 0.04 0.295005 0 0.06 0.295005 0 0.08 0.295005 0 0.1 0.295005 0 0 0.300013 0 0.02 0.300013 0 0.04 0.300013 0 0.06 0.300013 0 0.08 0.300013 0 0.1 0.300013 0 0 0.305034 0 0.02 0.305034 0 0.04 0.305034 0 0.06 0.305034 0 0.08 0.305034 0 0.1 0.305034 0 0 0.310078 0 0.02 0.310078 0 0.04 0.310078 0 0.06 0.310078 0 0.08 0.310078 0 0.1 0.310078 0 0 0.315163 0 0.02 0.315163 0 0.04 0.315163 0 0.06 0.315163 0 0.08 0.315163 0 0.1 0.315163 0 0 0.320308 0 0.02 0.320308 0 0.04 0.320308 0 0.06 0.320308 0 0.08 0.320308 0 0.1 0.320308 0 0 0.325535 0 0.02 0.325535 0 0.04 0.325535 0 0.06 0.325535 0 0.08 0.325535 0 0.1 0.325535 0 0 0.33086 0 0.02 0.33086 0 0.04 0.33086 0 0.06 0.33086 0 0.08 0.33086 0 0.1 0.33086 0 0 0.336299 0 0.02 0.336299 0 0.04 0.336299 0 0.06 0.336299 0 0.08 0.336299 0 0.1 0.336299 0 0 0.341863 0 0.02 0.341863 0 0.04 0.341863 0 0.06 0.341863 0 0.08 0.341863 0 0.1 0.341863 0 0 0.347564 0 0.02 0.347564 0 0.04 0.347564 0 0.06 0.347564 0 0.08 0.347564 0 0.1 0.347564 0 0 0.353412 0 0.02 0.353412 0 0.04 0.353412 0 0.06 0.353412 0 0.08 0.353412 0 0.1 0.353412 0 0 0.359417 0 0.02 0.359417 0 0.04 0.359417 0 0.06 0.359417 0 0.08 0.359417 0 0.1 0.359417 0 0 0.365589 0 0.02 0.365589 0 0.04 0.365589 0 0.06 0.365589 0 0.08 0.365589 0 0.1 0.365589 0 0 0.371941 0 0.02 0.371941 0 0.04 0.371941 0 0.06 0.371941 0 0.08 0.371941 0 0.1 0.371941 0 0 0.378485 0 0.02 0.378485 0 0.04 0.378485 0 0.06 0.378485 0 0.08 0.378485 0 0.1 0.378485 0 0 0.385236 0 0.02 0.385236 0 0.04 0.385236 0 0.06 0.385236 0 0.08 0.385236 0 0.1 0.385236 0 0 0.392208 0 0.02 0.392208 0 0.04 0.392208 0 0.06 0.392208 0 0.08 0.392208 0 0.1 0.392208 0 0 0.399418 0 0.02 0.399418 0 0.04 0.399418 0 0.06 0.399418 0 0.08 0.399418 0 0.1 0.399418 0 0 0.406885 0 0.02 0.406885 0 0.04 0.406885 0 0.06 0.406885 0 0.08 0.406885 0 0.1 0.406885 0 0 0.41463 0 0.02 0.41463 0 0.04 0.41463 0 0.06 0.41463 0 0.08 0.41463 0 0.1 0.41463 0 0 0.422678 0 0.02 0.422678 0 0.04 0.422678 0 0.06 0.422678 0 0.08 0.422678 0 0.1 0.422678 0 0 0.431053 0 0.02 0.431053 0 0.04 0.431053 0 0.06 0.431053 0 0.08 0.431053 0 0.1 0.431053 0 0 0.439788 0 0.02 0.439788 0 0.04 0.439788 0 0.06 0.439788 0 0.08 0.439788 0 0.1 0.439788 0 0 0.448915 0 0.02 0.448915 0 0.04 0.448915 0 0.06 0.448915 0 0.08 0.448915 0 0.1 0.448915 0 0 0.458472 0 0.02 0.458472 0 0.04 0.458472 0 0.06 0.458472 0 0.08 0.458472 0 0.1 0.458472 0 0 0.468501 0 0.02 0.468501 0 0.04 0.468501 0 0.06 0.468501 0 0.08 0.468501 0 0.1 0.468501 0 0 0.479046 0 0.02 0.479046 0 0.04 0.479046 0 0.06 0.479046 0 0.08 0.479046 0 0.1 0.479046 0 0 0.490147 0 0.02 0.490147 0 0.04 0.490147 0 0.06 0.490147 0 0.08 0.490147 0 0.1 0.490147 0 0 0.50182 0 0.02 0.50182 0 0.04 0.50182 0 0.06 0.50182 0 0.08 0.50182 0 0.1 0.50182 0 0 0.513992 0 0.02 0.513992 0 0.04 0.513992 0 0.06 0.513992 0 0.08 0.513992 0 0.1 0.513992 0 0 0.526349 0 0.02 0.526349 0 0.04 0.526349 0 0.06 0.526349 0 0.08 0.526349 0 0.1 0.526349 0 0 0.538594 0 0.02 0.538594 0 0.04 0.538594 0 0.06 0.538594 0 0.08 0.538594 0 0.1 0.538594 0 0 0.550706 0 0.02 0.550706 0 0.04 0.550706 0 0.06 0.550706 0 0.08 0.550706 0 0.1 0.550706 0 0 0.562694 0 0.02 0.562694 0 0.04 0.562694 0 0.06 0.562694 0 0.08 0.562694 0 0.1 0.562694 0 0 0.574595 0 0.02 0.574595 0 0.04 0.574595 0 0.06 0.574595 0 0.08 0.574595 0 0.1 0.574595 0 0 0.586445 0 0.02 0.586445 0 0.04 0.586445 0 0.06 0.586445 0 0.08 0.586445 0 0.1 0.586445 0 0 0.59827 0 0.02 0.59827 0 0.04 0.59827 0 0.06 0.59827 0 0.08 0.59827 0 0.1 0.59827 0 0 0.610085 0 0.02 0.610085 0 0.04 0.610085 0 0.06 0.610085 0 0.08 0.610085 0 0.1 0.610085 0 0 0.621896 0 0.02 0.621896 0 0.04 0.621896 0 0.06 0.621896 0 0.08 0.621896 0 0.1 0.621896 0 0 0.633705 0 0.02 0.633705 0 0.04 0.633705 0 0.06 0.633705 0 0.08 0.633705 0 0.1 0.633705 0 0 0.645516 0 0.02 0.645516 0 0.04 0.645516 0 0.06 0.645516 0 0.08 0.645516 0 0.1 0.645516 0 0 0.647797 0 0.02 0.647797 0 0.04 0.647797 0 0.06 0.647797 0 0.08 0.647797 0 0.1 0.647797 0 0 0.650078 0 0.02 0.650078 0 0.04 0.650078 0 0.06 0.650078 0 0.08 0.650078 0 0.1 0.650078 0 0 0.652359 0 0.02 0.652359 0 0.04 0.652359 0 0.06 0.652359 0 0.08 0.652359 0 0.1 0.652359 0 0 0.654639 0 0.02 0.654639 0 0.04 0.654639 0 0.06 0.654639 0 0.08 0.654639 0 0.1 0.654639 0 0 0.656919 0 0.02 0.656919 0 0.04 0.656919 0 0.06 0.656919 0 0.08 0.656919 0 0.1 0.656919 0 0 0.659198 0 0.02 0.659198 0 0.04 0.659198 0 0.06 0.659198 0 0.08 0.659198 0 0.1 0.659198 0 0 0.661472 0 0.02 0.661472 0 0.04 0.661472 0 0.06 0.661472 0 0.08 0.661472 0 0.1 0.661472 0 0 0.663746 0 0.02 0.663746 0 0.04 0.663746 0 0.06 0.663746 0 0.08 0.663746 0 0.1 0.663746 0 0 0.666025 0 0.02 0.666025 0 0.04 0.666025 0 0.06 0.666025 0 0.08 0.666025 0 0.1 0.666025 0 0 0.668304 0 0.02 0.668304 0 0.04 0.668304 0 0.06 0.668304 0 0.08 0.668304 0 0.1 0.668304 0 0 0.670583 0 0.02 0.670583 0 0.04 0.670583 0 0.06 0.670583 0 0.08 0.670583 0 0.1 0.670583 0 0 0.672864 0 0.02 0.672864 0 0.04 0.672864 0 0.06 0.672864 0 0.08 0.672864 0 0.1 0.672864 0 0 0.675145 0 0.02 0.675145 0 0.04 0.675145 0 0.06 0.675145 0 0.08 0.675145 0 0.1 0.675145 0 0 0.677425 0 0.02 0.677425 0 0.04 0.677425 0 0.06 0.677425 0 0.08 0.677425 0 0.1 0.677425 0 0 0.679706 0 0.02 0.679706 0 0.04 0.679706 0 0.06 0.679706 0 0.08 0.679706 0 0.1 0.679706 0 0 0.681986 0 0.02 0.681986 0 0.04 0.681986 0 0.06 0.681986 0 0.08 0.681986 0 0.1 0.681986 0 0 0.684265 0 0.02 0.684265 0 0.04 0.684265 0 0.06 0.684265 0 0.08 0.684265 0 0.1 0.684265 0 0 0.686544 0 0.02 0.686544 0 0.04 0.686544 0 0.06 0.686544 0 0.08 0.686544 0 0.1 0.686544 0 0 0.688822 0 0.02 0.688822 0 0.04 0.688822 0 0.06 0.688822 0 0.08 0.688822 0 0.1 0.688822 0 0 0.691101 0 0.02 0.691101 0 0.04 0.6
[...]
			<PointData Scalars="VitesseX">
				<DataArray Name="VitesseX" type="Float32" format="ascii">
 0 1.03782e-15 4.88883e-15 -2.99602e-15 5.48067e-15 0 0 1.764e-15 4.37899e-15 -3.25308e-15 5.71208e-15 0 0 2.2374e-15 3.79852e-15 -2.84443e-15 5.27257e-15 0 0 1.99254e-15 3.46345e-15 -1.51421e-15 4.27388e-15 0 0 2.24111e-15 1.67752e-15 9.48672e-16 4.23286e-15 0 0 1.54435e-15 1.30028e-15 2.55184e-15 3.99053e-15 0 0 2.11361e-15 -2.7652e-16 6.07128e-15 2.98368e-15 0 0 2.5862e-15 -1.30275e-15 7.27713e-15 4.95176e-15 0 0 9.15375e-16 1.56775e-15 3.69918e-15 7.66365e-15 0 0 4.89118e-16 2.79384e-15 2.0522e-15 7.86219e-15 0 0 6.78521e-16 1.33397e-15 1.33423e-15 7.59587e-15 0 0 1.648e-15 -1.73936e-15 2.30565e-15 6.10825e-15 0 0 6.08652e-16 1.97443e-15 -2.28419e-15 7.31559e-15 0 0 -6.65726e-16 3.15953e-15 -8.30601e-16 3.78552e-15 0 0 -1.62418e-15 3.04647e-15 1.68987e-15 -2.40507e-15 0 0 -3.60462e-15 4.83187e-15 -4.48659e-15 -4.04348e-16 0 0 1.85096e-15 -5.36244e-15 -2.01356e-15 -2.80065e-16 0 0 2.97861e-15 -9.9176e-15 4.16499e-15 -2.07004e-15 0 0 -3.37311e-15 -6.01396e-15 5.91508e-15 -1.47277e-15 0 0 -1.86748e-15 -6.79367e-15 4.59118e-15 -9.04215e-16 0 0 -5.98192e-16 -5.64751e-15 6.24706e-16 5.44607e-15 0 0 -5.88972e-15 -9.88646e-16 -1.71714e-16 8.39712e-15 0 0 -6.48255e-15 -1.63735e-15 8.28828e-16 8.12647e-15 0 0 -7.70133e-15 1.12214e-15 -3.49285e-15 1.14036e-14 0 0 -8.38131e-15 4.28501e-15 -2.03757e-15 9.45217e-15 0 0 -1.39386e-15 -2.94765e-15 3.54177e-15 5.31695e-15 0 0 -4.69554e-15 -1.65398e-15 5.75907e-15 3.19084e-15 0 0 -6.75531e-15 8.99128e-16 4.90736e-15 1.65685e-15 0 0 -4.27462e-15 2.46419e-15 -2.9432e-15 -2.25491e-15 0 0 -4.94838e-15 1.50498e-15 -2.57595e-15 -9.50237e-15 0 0 -2.39847e-15 -1.81043e-15 -9.08161e-15 -5.13009e-15 0 0 -4.46937e-15 7.04026e-15 -1.55037e-14 -9.08235e-15 0 0 2.44362e-15 1.03568e-14 -1.08985e-14 -1.67993e-14 0 0 1.4447e-14 -1.95133e-15 8.07336e-16 -1.38408e-14 0 0 8.62744e-15 1.95659e-15 2.16315e-15 -6.96692e-15 0 0 -1.66002e-15 1.97867e-14 -1.35368e-14 8.23599e-15 0 0 4.98707e-15 7.22025e-15 -4.76124e-15 9.86337e-15 0 0 5.59717e-15 5.31309e-15 -2.92109e-15 9.85035e-15 0 0 4.30661e-15 6.87946e-15 -2.6032e-15 1.41212e-14 0 0 1.2552e-14 -9.3961e-15 1.38748e-14 1.19e-14 0 0 8.19394e-15 -6.70441e-15 1.85423e-14 1.0121e-14 0 0 4.14294e-15 3.64927e-15 1.32868e-14 -3.07975e-15 0 0 6.64741e-15 4.54118e-16 2.057e-14 -2.25439e-14 0 0 2.51956e-16 1.06648e-14 1.45326e-14 -1.88421e-14 0 0 4.64545e-15 2.6921e-14 1.34425e-15 -2.02947e-14 0 0 2.05487e-14 1.17806e-14 1.47461e-14 -3.92167e-14 0 0 1.04664e-14 9.38264e-15 2.39842e-14 -4.26259e-14 0 0 -1.2375e-15 1.91549e-14 1.84646e-15 -3.85261e-14 0 0 -1.02472e-14 8.49003e-15 -1.04628e-14 -2.19731e-14 0 0 -1.14405e-14 -4.34592e-16 -3.46377e-15 -5.5815e-15 0 0 -7.38944e-15 7.93035e-15 -1.08807e-14 2.64354e-17 0 0 -1.11545e-14 1.05666e-14 -8.36682e-15 4.75578e-15 0 0 -2.59544e-15 -1.42474e-14 -3.30876e-15 -7.0876e-15 0 0 -1.68083e-14 -2.79504e-14 -1.73614e-14 -1.81452e-14 0 0 -4.04589e-14 -1.7524e-14 -2.51585e-14 -3.61958e-14 0 0 -1.4208e-14 -1.85327e-14 -1.99891e-14 -7.37521e-14 0 0 7.74015e-15 -2.65736e-14 -9.43016e-15 -8.54867e-14 0 0 2.88467e-15 -3.42243e-14 -7.87168e-15 -6.84979e-14 0 0 1.47264e-14 -2.52592e-14 -1.98292e-14 -3.39998e-14 0 0 2.38286e-16 5.76123e-16 -3.81325e-14 -8.35725e-16 0 0 -1.30646e-14 -2.06051e-14 -2.28963e-14 5.02263e-15 0 0 -7.67579e-15 -5.37823e-14 1.49481e-16 1.00378e-14 0 0 -8.5033e-15 -5.16153e-14 -4.38093e-15 3.5408e-14 0 0 7.88773e-15 -3.35215e-14 -8.45144e-15 2.58611e-14 0 0 6.30962e-15 -8.80433e-15 -4.03667e-15 -1.00409e-14 0 0 -1.41542e-14 1.68926e-15 -2.89542e-15 -2.1439e-14 0 0 3.39332e-15 -4.10524e-16 -1.84542e-14 -2.1237e-14 0 0 -5.4464e-16 -9.97284e-15 3.89848e-15 -2.77798e-14 0 0 -1.66365e-14 -1.08557e-14 1.38836e-14 -1.8487e-14 0 0 2.47746e-16 5.28151e-16 1.0551e-14 -3.43371e-14 0 0 -6.77461e-15 2.05234e-14 2.09965e-16 -5.73986e-14 0 0 -1.50008e-15 1.74989e-14 9.39542e-15 -4.77926e-14 0 0 1.38048e-14 -1.94555e-15 1.52493e-14 -2.76487e-14 0 0 -1.08275e-14 4.90688e-15 9.02721e-15 -1.01819e-14 0 0 -8.17389e-15 -2.12221e-14 -1.67418e-15 1.63197e-14 0 0 2.24936e-15 -2.03577e-14 6.04877e-15 6.10222e-15 0 0 3.03215e-15 9.95977e-15 1.983e-14 -1.42828e-14 0 0 -2.52931e-15 -1.67562e-15 8.46e-15 -8.64565e-15 0 0 -7.09191e-15 1.77235e-14 -1.09412e-14 -2.15884e-14 0 0 9.88809e-15 2.50969e-15 -1.89677e-15 -2.48436e-14 0 0 2.57591e-14 -2.24807e-14 3.51491e-15 1.62635e-14 0 0 -4.16744e-15 -2.09611e-14 -6.67837e-15 3.91545e-14 0 0 -1.9405e-14 -3.31154e-14 1.97823e-14 5.56745e-15 0 0 3.78617e-15 -5.15728e-15 -8.91532e-16 1.12765e-14 0 0 6.48717e-15 4.02873e-14 -3.63363e-14 1.24179e-14 0 0 -9.93071e-15 2.50155e-14 1.18643e-14 -1.59618e-14 0 0 -1.60822e-15 -4.30516e-15 1.13921e-14 8.03494e-15 0 0 3.05446e-14 4.48348e-15 -1.94905e-14 3.1121e-14 0 0 2.08256e-14 -9.64093e-15 3.51053e-14 1.64716e-14 0 0 -1.78711e-14 -3.42751e-14 3.10503e-14 2.83102e-15 0 0 -7.17514e-14 -9.82723e-14 -9.77515e-14 -6.53461e-14 0 0 -1.31673e-13 -2.29864e-13 -2.25793e-13 -1.63788e-13 0 0 -1.87021e-13 -3.18548e-13 -3.09501e-13 -2.02933e-13 0 0 -1.92184e-13 -2.98138e-13 -3.23389e-13 -1.79711e-13 0 0 -1.08558e-13 -1.77657e-13 -1.98287e-13 -9.60146e-14 0 0 1.50709e-14 3.23492e-14 1.59682e-14 2.99876e-14 0 0 1.55836e-13 2.43907e-13 2.49026e-13 1.60897e-13 0 0 2.67672e-13 4.21548e-13 4.28477e-13 2.6169e-13 0 0 3.31979e-13 5.41657e-13 5.54017e-13 3.2578e-13 0 0 3.27178e-13 5.25336e-13 5.4878e-13 3.23806e-13 0 0 3.18701e-13 4.95575e-13 4.85321e-13 3.16262e-13 0 0 4.28932e-13 6.9113e-13 6.28602e-13 3.95943e-13 0 0 3.62282e-13 6.55428e-13 6.10381e-13 3.50409e-13 0 0 3.05588e-13 5.641e-13 4.74709e-13 2.70964e-13 0 0 2.31038e-13 4.13299e-13 3.34042e-13 1.88397e-13 0 0 1.27527e-13 1.96159e-13 2.51468e-13 7.13142e-14 0 0 1.68165e-13 2.76202e-13 2.95179e-13 1.49541e-13 0 0 7.30497e-13 1.21418e-12 1.17611e-12 7.30789e-13 0 0 1.62434e-12 2.61978e-12 2.63048e-12 1.59809e-12 0 0 2.42973e-12 3.93081e-12 3.88909e-12 2.4673e-12 0 0 2.78071e-12 4.48587e-12 4.4077e-12 2.86992e-12 0 0 2.67341e-12 4.26605e-12 4.25186e-12 2.7136e-12 0 0 2.34896e-12 3.73876e-12 3.7268e-12 2.39235e-12 0 0 1.9926e-12 3.14006e-12 3.14701e-12 2.00039e-12 0 0 1.62158e-12 2.6152e-12 2.6221e-12 1.58425e-12 0 0 1.31752e-12 2.15336e-12 2.1266e-12 1.35019e-12 0 0 1.09467e-12 1.77115e-12 1.7322e-12 1.09174e-12 0 0 8.96114e-13 1.49636e-12 1.4791e-12 8.63554e-13 0 0 7.4865e-13 1.23873e-12 1.26079e-12 7.72089e-13 0 0 6.19283e-13 1.06439e-12 1.02367e-12 6.61527e-13 0 0 5.23935e-13 9.51324e-13 8.72923e-13 5.63355e-13 0 0 4.86797e-13 8.17028e-13 8.14758e-13 4.61015e-13 0 0 4.51843e-13 6.84847e-13 8.04948e-13 3.60933e-13 0 0 4.07772e-13 5.98104e-13 7.42304e-13 2.78944e-13 0 0 3.74541e-13 5.22195e-13 6.41821e-13 2.27795e-13 0 0 3.4637e-13 4.44705e-13 5.54126e-13 2.30853e-13 0 0 2.85359e-13 4.30404e-13 5.13486e-13 2.47717e-13 0 0 2.47986e-13 4.10149e-13 5.14688e-13 2.5169e-13 0 0 2.54865e-13 3.60551e-13 5.11257e-13 2.19748e-13 0 0 2.60392e-13 3.50195e-13 4.8136e-13 2.29045e-13 0 0 2.31737e-13 3.51871e-13 4.50582e-13 2.34017e-13 0 0 2.0189e-13 3.28152e-13 4.32731e-13 1.32461e-13 0 0 2.36296e-13 2.77304e-13 4.02087e-13 1.62337e-13 0 0 2.33796e-13 2.55103e-13 3.92919e-13 2.29031e-13 0 0 1.84282e-13 3.02575e-13 3.54803e-13 2.36955e-13 0 0 1.81759e-13 3.19161e-13 3.12658e-13 2.94386e-13 0 0 1.76465e-13 3.19446e-13 2.78343e-13 2.8697e-13 0 0 1.66677e-13 3.31381e-13 2.57775e-13 2.49425e-13 0 0 1.55298e-13 3.04793e-13 2.4569e-13 1.78755e-13 0 0 1.29e-13 3.00414e-13 2.03267e-13 1.15676e-13 0 0 1.12334e-13 2.6449e-13 2.24886e-13 9.85086e-14 0 0 1.3055e-13 1.6655e-13 2.3775e-13 3.87995e-14 0 0 1.45384e-13 1.058e-13 1.58869e-13 4.21958e-14 0 0 9.20723e-14 6.21169e-14 1.26937e-13 -2.08147e-15 0 0 3.61921e-14 1.23045e-14 1.15674e-13 -8.04469e-14 0 0 1.61782e-14 -3.3836e-14 6.66325e-14 -6.20704e-14 0 0 6.68765e-15 -9.84918e-14 2.17275e-15 -4.58306e-14 0 0 -5.03834e-14 -1.38286e-13 -1.17177e-13 -2.37639e-14 0 0 -1.1574e-13 -2.0877e-13 -1.75314e-13 -7.5945e-14 0 0 -1.50857e-13 -2.67864e-13 -2.1565e-13 -1.35813e-13 0 0 -1.9284e-13 -3.20896e-13 -3.0734e-13 -1.02973e-13 0 0 -2.21555e-13 -3.84033e-13 -3.34063e-13 -2.60471e-13 0 0 -2.26602e-13 -3.59305e-13 -3.42963e-13 -2.65345e-13 0 0 -2.28809e-13 -3.75042e-13 -3.69438e-13 -1.37569e-13 0 0 -1.99534e-13 -3.43915e-13 -3.36766e-13 -2.60166e-13 0 0 -1.63934e-13 -2.6146e-13 -2.89011e-13 -1.94591e-13 0 0 -1.31209e-13 -1.82316e-13 -2.61268e-13 -8.03606e-14 0 0 -9.16823e-14 -1.38874e-13 -1.56013e-13 -9.9772e-14 0 0 -6.66497e-14 -1.16184e-13 -8.87131e-14 -9.66496e-14 0 0 -4.93457e-14 -8.98866e-14 -1.07053e-13 -8.49146e-14 0 0 -4.43808e-14 -1.00634e-13 -1.06583e-13 -4.18872e-14 0 0 -4.19454e-14 -1.00005e-13 -9.60009e-14 -5.14141e-14 0 0 -4.77758e-14 -9.75142e-14 -1.09038e-13 -3.21515e-14 0 0 -6.5229e-14 -1.06064e-13 -1.01421e-13 -2.26166e-14 0 0 -6.80935e-14 -1.08866e-13 -8.83811e-14 -7.42434e-14 0 0 -6.1866e-14 -1.13466e-13 -9.18982e-14 -6.21486e-14 0 0 -6.53203e-14 -1.04681e-13 -9.48674e-14 -5.82923e-14 0 0 -5.93497e-14 -9.37426e-14 -9.85984e-14 -8.03929e-14 0 0 -6.12452e-14 -9.1432e-14 -8.48411e-14 -5.91122e-14 0 0 -6.16334e-14 -8.90227e-14 -8.09224e-14 -3.9614e-14 0 0 -2.84273e-14 -9.56231e-14 -7.83594e-14 -7.02095e-14 0 0 -2.93323e-14 -7.82833e-14 -9.18229e-14 -2.55708e-14 0 0 -4.39917e-14 -8.14275e-14 -7.33817e-14 -1.96282e-14 0 0 -2.21443e-14 -1.07909e-13 -2.24645e-14 -4.31921e-14 0 0 -2.52852e-14 -7.88128e-14 -4.23218e-14 5.55681e-15 0 0 -5.64507e-14 -3.87062e-14 -6.56076e-14 1.12594e-14 0 0 -6.12794e-14 -3.33585e-14 -7.58125e-14 3.4993e-14 0 0 -2.69893e-14 -5.05497e-14 -5.54352e-14 2.40544e-14 0 0 -8.7774e-15 -6.37653e-14 -1.24701e-14 -4.35042e-14 0 0 -2.74727e-14 -5.11346e-14 -6.8923e-15 -5.31242e-14 0 0 -4.93355e-14 -3.08329e-14 9.85689e-15 -3.47377e-14 0 0 -4.8097e-14 -2.14632e-14 -3.08944e-16 1.23981e-14 0 0 -3.63529e-14 -9.90676e-15 -5.25787e-14 5.38503e-14 0 0 -4.6383e-14 1.78279e-14 -9.87447e-14 5.78429e-14 0 0 -5.47126e-14 2.52517e-14 -9.77157e-14 -5.24265e-16 0 0 -3.52874e-14 1.2259e-14 -4.84586e-14 -7.24961e-14 0 0 -7.4837e-14 7.76889e-14 -1.02887e-13 1.46382e-14 0 0 -7.86753e-14 5.36286e-14 -9.08236e-14 6.07256e-14 0 0 3.67908e-14 -1.17034e-13 5.07468e-14 -5.69079e-14 0 0 1.27377e-14 -7.63178e-14 1.84784e-15 -7.57615e-14 0 0 -7.25446e-14 1.24692e-14 -3.22364e-14 -1.01592e-13 0 0 -5.00675e-14 -1.55664e-14 -2.27815e-14 -1.52793e-13 0 0 -3.58804e-14 -3.36407e-14 -5.06377e-14 -1.23222e-13 0 0 -5.0199e-14 -5.68594e-14 -2.9672e-16 -1.38145e-13 0 0 -1.04003e-13 2.55367e-15 -9.51531e-15 -1.24878e-13 0 0 -1.08146e-13 3.69869e-14 -6.72858e-14 -3.72195e-14 0 0 -3.5141e-14 -4.87708e-14 -4.37959e-14 1.31209e-14 0 0 -2.628e-15 -1.13772e-13 -1.345e-14 2.51425e-14 0 0 -4.20326e-14 -4.89813e-14 -8.98278e-14 4.92562e-14 0 0 -4.72429e-14 -2.44265e-14 -1.26957e-13 5.00591e-14 0 0 -1.53728e-14 -6.8686e-14 -1.03968e-13 4.4359e-14 0
				</DataArray>
				<DataArray Name="VitesseY" type="Float32" format="ascii">