<?xml version="1.0"?>
<VTKFile type="PolyData">
	<PolyData>
		<Piece NumberOfPoints="1206" NumberOfPolys="1000">
			<Points>
				<DataArray type="Float32" NumberOfComponents="3" format="ascii">
 0 0 0 0.02 0 0 0.04 0 0 0.06 0 0 0.08 0 0 0.1 0 0 0 0.005 0 0.02 0.005 0 0.04 0.005 0 0.06 0.005 0 0.08 0.005 0 0.1 0.005 0 0 0.01 0 0.02 0.01 0 0.04 0.01 0 0.06 0.01 0 0.08 0.01 0 0.1 0.01 0 0 0.015 0 0.02 0.015 0 0.04 0.015 0 0.06 0.015 0 0.08 0.015 0 0.1 0.015 0 0 0.02 0 0.02 0.02 0 0.04 0.02 0 0.06 0.02 0 0.08 0.02 0 0.1 0.02 0 0 0.025 0 0.02 0.025 0 0.04 0.025 0 0.06 0.025 0 0.08 0.025 0 0.1 0.025 0 0 0.03 0 0.02 0.03 0 0.04 0.03 0 0.06 0.03 0 0.08 0.03 0 0.1 0.03 0 0 0.035 0 0.02 0.035 0 0.04 0.035 0 0.06 0.035 0 0.08 0.035 0 0.1 0.035 0 0 0.04 0 0.02 0.04 0 0.04 0.04 0 0.06 0.04 0 0.08 0.04 0 0.1 0.04 0 0 0.045 0 0.02 0.045 0 0.04 0.045 0 0.06 0.045 0 0.08 0.045 0 0.1 0.045 0 0 0.05 0 0.02 0.05 0 0.04 0.05 0 0.06 0.05 0 0.08 0.05 0 0.1 0.05 0 0 0.055 0 0.02 0.055 0 0.04 0.055 0 0.06 0.055 0 0.08 0.055 0 0.1 0.055 0 0 0.06 0 0.02 0.06 0 0.04 0.06 0 0.06 0.06 0 0.08 0.06 0 0.1 0.06 0 0 0.065 0 0.02 0.065 0 0.04 0.065 0 0.06 0.065 0 0.08 0.065 0 0.1 0.065 0 0 0.07 0 0.02 0.07 0 0.04 0.07 0 0.06 0.07 0 0.08 0.07 0 0.1 0.07 0 0 0.075 0 0.02 0.075 0 0.04 0.075 0 0.06 0.075 0 0.08 0.075 0 0.1 0.075 0 0 0.08 0 0.02 0.08 0 0.04 0.08 0 0.06 0.08 0 0.08 0.08 0 0.1 0.08 0 0 0.085 0 0.02 0.085 0 0.04 0.085 0 0.06 0.085 0 0.08 0.085 0 0.1 0.085 0 0 0.09 0 0.02 0.09 0 0.04 0.09 0 0.06 0.09 0 0.08 0.09 0 0.1 0.09 0 0 0.095 0 0.02 0.095 0 0.04 0.095 0 0.06 0.095 0 0.08 0.095 0 0.1 0.095 0 0 0.1 0 0.02 0.1 0 0.04 0.1 0 0.06 0.1 0 0.08 0.1 0 0.1 0.1 0 0 0.105 0 0.02 0.105 0 0.04 0.105 0 0.06 0.105 0 0.08 0.105 0 0.1 0.105 0 0 0.11 0 0.02 0.11 0 0.04 0.11 0 0.06 0.11 0 0.08 0.11 0 0.1 0.11 0 0 0.115 0 0.02 0.115 0 0.04 0.115 0 0.06 0.115 0 0.08 0.115 0 0.1 0.115 0 0 0.12 0 0.02 0.12 0 0.04 0.12 0 0.06 0.12 0 0.08 0.12 0 0.1 0.12 0 0 0.125 0 0.02 0.125 0 0.04 0.125 0 0.06 0.125 0 0.08 0.125 0 0.1 0.125 0 0 0.13 0 0.02 0.13 0 0.04 0.13 0 0.06 0.13 0 0.08 0.13 0 0.1 0.13 0 0 0.135 0 0.02 0.135 0 0.04 0.135 0 0.06 0.135 0 0.08 0.135 0 0.1 0.135 0 0 0.14 0 0.02 0.14 0 0.04 0.14 0 0.06 0.14 0 0.08 0.14 0 0.1 0.14 0 0 0.145 0 0.02 0.145 0 0.04 0.145 0 0.06 0.145 0 0.08 0.145 0 0.1 0.145 0 0 0.15 0 0.02 0.15 0 0.04 0.15 0 0.06 0.15 0 0.08 0.15 0 0.1 0.15 0 0 0.155 0 0.02 0.155 0 0.04 0.155 0 0.06 0.155 0 0.08 0.155 0 0.1 0.155 0 0 0.16 0 0.02 0.16 0 0.04 0.16 0 0.06 0.16 0 0.08 0.16 0 0.1 0.16 0 0 0.165 0 0.02 0.165 0 0.04 0.165 0 0.06 0.165 0 0.08 0.165 0 0.1 0.165 0 0 0.17 0 0.02 0.17 0 0.04 0.17 0 0.06 0.17 0 0.08 0.17 0 0.1 0.17 0 0 0.175 0 0.02 0.175 0 0.04 0.175 0 0.06 0.175 0 0.08 0.175 0 0.1 0.175 0 0 0.18 0 0.02 0.18 0 0.04 0.18 0 0.06 0.18 0 0.08 0.18 0 0.1 0.18 0 0 0.185 0 0.02 0.185 0 0.04 0.185 0 0.06 0.185 0 0.08 0.185 0 0.1 0.185 0 0 0.19 0 0.02 0.19 0 0.04 0.19 0 0.06 0.19 0 0.08 0.19 0 0.1 0.19 0 0 0.195 0 0.02 0.195 0 0.04 0.195 0 0.06 0.195 0 0.08 0.195 0 0.1 0.195 0 0 0.2 0 0.02 0.2 0 0.04 0.2 0 0.06 0.2 0 0.08 0.2 0 0.1 0.2 0 0 0.205 0 0.02 0.205 0 0.04 0.205 0 0.06 0.205 0 0.08 0.205 0 0.1 0.205 0 0 0.21 0 0.02 0.21 0 0.04 0.21 0 0.06 0.21 0 0.08 0.21 0 0.1 0.21 0 0 0.215 0 0.02 0.215 0 0.04 0.215 0 0.06 0.215 0 0.08 0.215 0 0.1 0.215 0 0 0.22 0 0.02 0.22 0 0.04 0.22 0 0.06 0.22 0 0.08 0.22 0 0.1 0.22 0 0 0.225 0 0.02 0.225 0 0.04 0.225 0 0.06 0.225 0 0.08 0.225 0 0.1 0.225 0 0 0.23 0 0.02 0.23 0 0.04 0.23 0 0.06 0.23 0 0.08 0.23 0 0.1 0.23 0 0 0.235001 0 0.02 0.235001 0 0.04 0.235001 0 0.06 0.235001 0 0.08 0.235001 0 0.1 0.235001 0 0 0.240002 0 0.02 0.240002 0 0.04 0.240002 0 0.06 0.240002 0 0.08 0.240002 0 0.1 0.240002 0 0 0.245005 0 0.02 0.245005 0 0.04 0.245005 0 0.06 0.245005 0 0.08 0.245005 0 0.1 0.245005 0 0 0.250014 0 0.02 0.250014 0 0.04 0.250014 0 0.06 0.250014 0 0.08 0.250014 0 0.1 0.250014 0 0 0.255032 0 0.02 0.255032 0 0.04 0.255032 0 0.06 0.255032 0 0.08 0.255032 0 0.1 0.255032 0 0 0.26007 0 0.02 0.26007 0 0.04 0.26007 0 0.06 0.26007 0 0.08 0.26007 0 0.1 0.26007 0 0 0.265139 0 0.02 0.265139 0 0.04 0.265139 0 0.06 0.265139 0 0.08 0.265139 0 0.1 0.265139 0 0 0.270253 0 0.02 0.270253 0 0.04 0.270253 0 0.06 0.270253 0 0.08 0.270253 0 0.1 0.270253 0 0 0.275427 0 0.02 0.275427 0 0.04 0.275427 0 0.06 0.275427 0 0.08 0.275427 0 0.1 0.275427 0 0 0.280675 0 0.02 0.280675 0 0.04 0.280675 0 0.06 0.280675 0 0.08 0.280675 0 0.1 0.280675 0 0 0.286007 0 0.02 0.286007 0 0.04 0.286007 0 0.06 0.286007 0 0.08 0.286007 0 0.1 0.286007 0 0 0.291431 0 0.02 0.291431 0 0.04 0.291431 0 0.06 0.291431 0 0.08 0.291431 0 0.1 0.291431 0 0 0.296955 0 0.02 0.296955 0 0.04 0.296955 0 0.06 0.296955 0 0.08 0.296955 0 0.1 0.296955 0 0 0.302586 0 0.02 0.302586 0 0.04 0.302586 0 0.06 0.302586 0 0.08 0.302586 0 0.1 0.302586 0 0 0.30833 0 0.02 0.30833 0 0.04 0.30833 0 0.06 0.30833 0 0.08 0.30833 0 0.1 0.30833 0 0 0.314192 0 0.02 0.314192 0 0.04 0.314192 0 0.06 0.314192 0 0.08 0.314192 0 0.1 0.314192 0 0 0.320179 0 0.02 0.320179 0 0.04 0.320179 0 0.06 0.320179 0 0.08 0.320179 0 0.1 0.320179 0 0 0.326299 0 0.02 0.326299 0 0.04 0.326299 0 0.06 0.326299 0 0.08 0.326299 0 0.1 0.326299 0 0 0.332557 0 0.02 0.332557 0 0.04 0.332557 0 0.06 0.332557 0 0.08 0.332557 0 0.1 0.332557 0 0 0.338962 0 0.02 0.338962 0 0.04 0.338962 0 0.06 0.338962 0 0.08 0.338962 0 0.1 0.338962 0 0 0.345521 0 0.02 0.345521 0 0.04 0.345521 0 0.06 0.345521 0 0.08 0.345521 0 0.1 0.345521 0 0 0.352244 0 0.02 0.352244 0 0.04 0.352244 0 0.06 0.352244 0 0.08 0.352244 0 0.1 0.352244 0 0 0.35914 0 0.02 0.35914 0 0.04 0.35914 0 0.06 0.35914 0 0.08 0.35914 0 0.1 0.35914 0 0 0.366218 0 0.02 0.366218 0 0.04 0.366218 0 0.06 0.366218 0 0.08 0.366218 0 0.1 0.366218 0 0 0.373491 0 0.02 0.373491 0 0.04 0.373491 0 0.06 0.373491 0 0.08 0.373491 0 0.1 0.373491 0 0 0.38097 0 0.02 0.38097 0 0.04 0.38097 0 0.06 0.38097 0 0.08 0.38097 0 0.1 0.38097 0 0 0.388669 0 0.02 0.388669 0 0.04 0.388669 0 0.06 0.388669 0 0.08 0.388669 0 0.1 0.388669 0 0 0.396603 0 0.02 0.396603 0 0.04 0.396603 0 0.06 0.396603 0 0.08 0.396603 0 0.1 0.396603 0 0 0.404786 0 0.02 0.404786 0 0.04 0.404786 0 0.06 0.404786 0 0.08 0.404786 0 0.1 0.404786 0 0 0.413238 0 0.02 0.413238 0 0.04 0.413238 0 0.06 0.413238 0 0.08 0.413238 0 0.1 0.413238 0 0 0.421978 0 0.02 0.421978 0 0.04 0.421978 0 0.06 0.421978 0 0.08 0.421978 0 0.1 0.421978 0 0 0.431027 0 0.02 0.431027 0 0.04 0.431027 0 0.06 0.431027 0 0.08 0.431027 0 0.1 0.431027 0 0 0.440409 0 0.02 0.440409 0 0.04 0.440409 0 0.06 0.440409 0 0.08 0.440409 0 0.1 0.440409 0 0 0.45015 0 0.02 0.45015 0 0.04 0.45015 0 0.06 0.45015 0 0.08 0.45015 0 0.1 0.45015 0 0 0.460279 0 0.02 0.460279 0 0.04 0.460279 0 0.06 0.460279 0 0.08 0.460279 0 0.1 0.460279 0 0 0.470824 0 0.02 0.470824 0 0.04 0.470824 0 0.06 0.470824 0 0.08 0.470824 0 0.1 0.470824 0 0 0.481812 0 0.02 0.481812 0 0.04 0.481812 0 0.06 0.481812 0 0.08 0.481812 0 0.1 0.481812 0 0 0.493263 0 0.02 0.493263 0 0.04 0.493263 0 0.06 0.493263 0 0.08 0.493263 0 0.1 0.493263 0 0 0.505161 0 0.02 0.505161 0 0.04 0.505161 0 0.06 0.505161 0 0.08 0.505161 0 0.1 0.505161 0 0 0.517396 0 0.02 0.517396 0 0.04 0.517396 0 0.06 0.517396 0 0.08 0.517396 0 0.1 0.517396 0 0 0.529676 0 0.02 0.529676 0 0.04 0.529676 0 0.06 0.529676 0 0.08 0.529676 0 0.1 0.529676 0 0 0.541863 0 0.02 0.541863 0 0.04 0.541863 0 0.06 0.541863 0 0.08 0.541863 0 0.1 0.541863 0 0 0.553943 0 0.02 0.553943 0 0.04 0.553943 0 0.06 0.553943 0 0.08 0.553943 0 0.1 0.553943 0 0 0.565923 0 0.02 0.565923 0 0.04 0.565923 0 0.06 0.565923 0 0.08 0.565923 0 0.1 0.565923 0 0 0.577827 0 0.02 0.577827 0 0.04 0.577827 0 0.06 0.577827 0 0.08 0.577827 0 0.1 0.577827 0 0 0.589683 0 0.02 0.589683 0 0.04 0.589683 0 0.06 0.589683 0 0.08 0.589683 0 0.1 0.589683 0 0 0.601512 0 0.02 0.601512 0 0.04 0.601512 0 0.06 0.601512 0 0.08 0.601512 0 0.1 0.601512 0 0 0.613328 0 0.02 0.613328 0 0.04 0.613328 0 0.06 0.613328 0 0.08 0.613328 0 0.1 0.613328 0 0 0.625139 0 0.02 0.625139 0 0.04 0.625139 0 0.06 0.625139 0 0.08 0.625139 0 0.1 0.625139 0 0 0.636948 0 0.02 0.636948 0 0.04 0.636948 0 0.06 0.636948 0 0.08 0.636948 0 0.1 0.636948 0 0 0.648756 0 0.02 0.648756 0 0.04 0.648756 0 0.06 0.648756 0 0.08 0.648756 0 0.1 0.648756 0 0 0.660564 0 0.02 0.660564 0 0.04 0.660564 0 0.06 0.660564 0 0.08 0.660564 0 0.1 0.660564 0 0 0.672372 0 0.02 0.672372 0 0.04 0.672372 0 0.06 0.672372 0 0.08 0.672372 0 0.1 0.672372 0 0 0.68418 0 0.02 0.68418 0 0.04 0.68418 0 0.06 0.68418 0 0.08 0.68418 0 0.1 0.68418 0 0 0.68646 0 0.02 0.68646 0 0.04 0.68646 0 0.06 0.68646 0 0.08 0.68646 0 0.1 0.68646 0 0 0.68874 0 0.02 0.68874 0 0.04 0.68874 0 0.06 0.68874 0 0.08 0.68874 0 0.1 0.68874 0 0 0.691021 0 0.02 0.691021 0 0.04 0.691021 0 0.06 0.691021 0 0.08 0.691021 0 0.1 0.691021 0 0 0.693301 0 0.02 0.693301 0 0.04 0.693301 0 0.06 0.693301 0 0.08 0.693301 0 0.1 0.693301 0 0 0.695582 0 0.02 0.695582 0 0.04 0.695582 0 0.06 0.695582 0 0.08 0.695582 0 0.1 0.695582 0 0 0.697861 0 0.02 0.697861 0 0.04 0.697861 0 0.06 0.697861 0 0.08 0.697861 0 0.1 0.697861 0 0 0.700136 0 0.02 0.700136 0 0.04 0.700136 0 0.06 0.700136 0 0.08 0.700136 0 0.1 0.700136 0 0 0.70241 0 0.02 0.70241 0 0.04 0.70241 0 0.06 0.70241 0 0.08 0.70241 0 0.1 0.70241 0 0 0.70469 0 0.02 0.70469 0 0.04 0.70469 0 0.06 0.70469 0 0.08 0.70469 0 0.1 0.70469 0 0 0.70697 0 0.02 0.70697 0 0.04 0.70697 0 0.06 0.70697 0 0.08 0.70697 0 0.1 0.70697 0 0 0.709248 0 0.02 0.709248 0 0.04 0.709248 0 0.06 0.709248 0 0.08 0.709248 0 0.1 0.709248 0 0 0.711528 0 0.02 0.711528 0 0.04 0.711528 0 0.06 0.711528 0 0.08 0.711528 0 0.1 0.711528 0 0 0.713807 0 0.02 0.713807 0 0.04 0.713807 0 0.06 0.713807 0 0.08 0.713807 0 0.1 0.713807 0 0 0.716086 0 0.02 0.716086 0 0.04 0.716086 0 0.06 0.716086 0 0.08 0.716086 0 0.1 0.716086 0 0 0.718366 0 0.02 0.718366 0 0.04 0.718366 0 0.06 0.718366 0 0.08 0.718366 0 0.1 0.718366 0 0 0.720645 0 0.02 0.720645 0 0.04 0.720645 0 0.06 0.720645 0 0.08 0.720645 0 0.1 0.720645 0 0 0.722925 0 0.02 0.722925 0 0.04 0.722925 0 0.06 0.722925 0 0.08 0.722925 0 0.1 0.722925 0 0 0.725203 0 0.02 0.725203 0 0.04 0
[...]
			<PointData Scalars="VitesseX">
				<DataArray Name="VitesseX" type="Float32" format="ascii">
 0 -2.86106e-15 1.22534e-15 5.59201e-15 -3.31538e-15 0 0 -1.22745e-15 -5.83985e-16 6.12139e-15 -3.72114e-15 0 0 1.18806e-15 -2.30294e-15 5.83295e-15 -3.16158e-15 0 0 8.1741e-16 -1.15799e-15 4.20785e-15 -2.82131e-15 0 0 -1.61772e-15 2.38183e-15 -1.7805e-16 -1.94165e-15 0 0 -2.135e-15 4.42152e-15 -5.11096e-15 8.75274e-16 0 0 -9.09628e-16 2.88065e-15 -4.99187e-15 2.90112e-16 0 0 1.46799e-15 -4.91365e-16 -2.0459e-15 -2.80823e-15 0 0 2.15871e-15 -1.26082e-15 -2.38467e-15 -3.40251e-15 0 0 1.69864e-15 -1.06692e-15 -2.81196e-15 -2.27367e-15 0 0 9.16999e-16 -1.65784e-15 8.82864e-16 -2.61566e-15 0 0 1.15306e-15 -4.38634e-15 6.63445e-15 -2.75371e-15 0 0 2.64445e-15 -7.18521e-15 1.08036e-14 -3.33996e-15 0 0 1.15893e-15 -3.14115e-15 8.1115e-15 -1.51486e-15 0 0 1.74134e-15 -2.20607e-17 4.01919e-15 5.57716e-16 0 0 4.31474e-15 -3.04025e-15 5.5634e-15 -5.60056e-16 0 0 4.81122e-15 -3.15577e-15 5.47649e-15 1.3842e-15 0 0 8.60531e-16 3.4368e-15 -1.12527e-15 7.34745e-15 0 0 -2.13137e-15 4.56156e-15 -2.26113e-15 1.13245e-14 0 0 1.156e-15 -4.9815e-16 3.90993e-15 8.24725e-15 0 0 4.10351e-15 -2.78879e-15 4.35315e-15 1.00493e-14 0 0 6.46194e-15 -6.07334e-17 3.46743e-15 1.24252e-14 0 0 8.60891e-15 5.42848e-15 6.05088e-15 3.99972e-15 0 0 6.49142e-15 1.05137e-14 2.76893e-15 8.45533e-16 0 0 -6.52946e-16 2.16161e-14 -1.42319e-15 2.70103e-15 0 0 5.06778e-15 2.02526e-14 3.57818e-15 -1.87154e-15 0 0 1.24242e-14 1.06081e-14 9.04255e-15 -7.28675e-15 0 0 3.34247e-15 1.38936e-14 5.75296e-15 -5.80971e-15 0 0 -4.28422e-16 1.31102e-14 -4.56465e-15 6.51252e-15 0 0 -3.78068e-15 1.66577e-15 4.39143e-15 7.72081e-15 0 0 -9.46757e-15 2.60407e-15 7.13634e-15 3.17792e-15 0 0 -2.55784e-15 -2.47817e-15 7.49036e-15 -3.79445e-15 0 0 -1.14345e-15 -5.63698e-15 6.12992e-15 1.72171e-14 0 0 1.59195e-15 -3.00357e-15 5.41484e-16 3.40439e-14 0 0 6.46282e-15 -8.69868e-15 9.10624e-15 7.38382e-15 0 0 5.75486e-15 -8.25945e-15 8.07755e-15 -2.04426e-14 0 0 1.07488e-15 -6.36725e-15 -3.03673e-15 -3.18458e-14 0 0 -4.42821e-15 -1.42097e-15 -2.9438e-14 -1.43447e-14 0 0 -6.7799e-15 -3.21389e-15 -4.56317e-14 8.46569e-16 0 0 -1.58838e-14 -1.85795e-14 -3.29775e-14 3.19817e-15 0 0 -2.15199e-14 -2.05179e-14 -3.29514e-14 1.63042e-14 0 0 -2.26146e-14 -1.05745e-14 -4.03446e-14 2.58099e-14 0 0 -1.53552e-14 -3.28882e-14 -8.23097e-15 1.41962e-15 0 0 -1.27228e-14 -3.95797e-14 -2.64428e-14 -3.30285e-15 0 0 -1.65803e-14 -4.21869e-14 -5.18275e-14 -9.09695e-15 0 0 -1.45066e-14 -7.62437e-14 -1.74956e-14 -2.63068e-14 0 0 -1.37789e-14 -6.80278e-14 -2.00262e-14 -1.70423e-14 0 0 -1.39213e-14 -2.36198e-14 -5.68987e-14 7.32342e-15 0 0 -7.11152e-15 -3.17212e-15 -4.39341e-14 2.31752e-15 0 0 1.87702e-15 -2.59798e-14 1.53663e-15 -1.7405e-15 0 0 -7.21962e-15 -3.06245e-14 7.60808e-15 2.77025e-14 0 0 -1.58644e-14 -1.18083e-14 7.43779e-15 3.16584e-14 0 0 -2.16536e-14 -2.16973e-14 1.03118e-14 2.50281e-14 0 0 -3.18567e-14 -1.97449e-14 2.37351e-14 7.64035e-15 0 0 -1.89877e-14 -2.66955e-15 3.79794e-14 6.28016e-16 0 0 -2.16295e-14 9.16246e-15 3.1065e-14 -1.13181e-14 0 0 -1.36279e-14 2.20367e-14 1.38547e-14 -2.20563e-14 0 0 1.88343e-14 4.80772e-16 5.29335e-15 -2.26308e-14 0 0 1.87708e-14 -1.03676e-14 -7.1347e-16 -1.59218e-14 0 0 -1.10876e-14 3.43839e-14 -3.14662e-14 2.33202e-14 0 0 -1.42163e-14 3.59344e-14 -5.41229e-15 1.0959e-14 0 0 1.70351e-14 -1.20602e-14 4.96552e-14 -2.55994e-14 0 0 1.59995e-14 -6.02182e-15 2.72051e-14 -6.26912e-15 0 0 1.26163e-14 3.68353e-14 -1.97007e-14 2.20332e-14 0 0 1.61018e-14 2.84234e-14 -2.01583e-14 1.96327e-15 0 0 -1.12681e-15 -1.51378e-15 1.56929e-14 -1.88956e-14 0 0 -5.08977e-15 -6.70838e-15 2.62541e-14 1.98714e-14 0 0 1.02349e-14 -4.04307e-14 1.54918e-14 5.92662e-14 0 0 1.4945e-14 -6.0353e-14 2.75039e-14 4.12938e-14 0 0 -7.48678e-15 -2.15505e-14 2.19993e-14 2.64277e-14 0 0 8.12062e-15 -1.37106e-14 2.84614e-14 7.03894e-16 0 0 3.43788e-14 -1.23533e-14 3.19999e-14 -8.11095e-15 0 0 9.20035e-15 -1.12282e-15 4.20532e-15 -8.14947e-15 0 0 -1.17765e-14 -2.00342e-15 1.8969e-14 -3.76011e-14 0 0 6.79082e-15 -5.55903e-15 2.0109e-14 -3.48934e-14 0 0 -6.63015e-15 -5.50561e-15 2.43657e-14 -2.33069e-14 0 0 -5.71169e-15 1.42634e-15 2.4844e-14 8.16318e-15 0 0 2.4336e-14 1.01487e-15 -1.03536e-14 3.01793e-14 0 0 1.00526e-14 -2.5816e-14 7.62227e-15 8.57684e-15 0 0 -4.66721e-15 7.78958e-15 2.10221e-14 -2.21801e-15 0 0 1.24779e-14 4.91256e-14 7.68178e-15 -9.52183e-15 0 0 3.28724e-14 2.59024e-14 3.02823e-15 -9.5668e-15 0 0 2.26484e-14 3.58175e-14 -1.47767e-14 6.29885e-15 0 0 -1.12611e-14 2.58293e-14 1.75111e-14 7.74273e-16 0 0 2.63005e-15 -1.39052e-14 4.16808e-14 -3.20052e-15 0 0 3.13622e-14 -7.05511e-15 1.48599e-14 1.78769e-14 0 0 1.54973e-15 -1.42096e-14 -1.28769e-14 -8.95223e-16 0 0 -4.52985e-14 -7.59394e-14 -3.71369e-14 -6.78381e-14 0 0 -7.60661e-14 -9.97844e-14 -9.16584e-14 -7.9466e-14 0 0 -5.88489e-14 -8.18891e-14 -1.09606e-13 -4.68425e-14 0 0 -7.68176e-15 -3.12712e-14 -1.86577e-14 -1.65578e-14 0 0 5.98872e-14 9.31543e-14 9.57624e-14 6.24279e-14 0 0 1.4351e-13 2.43599e-13 2.32006e-13 1.46454e-13 0 0 2.23013e-13 3.53487e-13 3.5825e-13 2.07174e-13 0 0 2.57367e-13 4.05101e-13 4.15202e-13 2.61237e-13 0 0 2.44753e-13 4.018e-13 3.98193e-13 2.47428e-13 0 0 2.10025e-13 3.35852e-13 3.34287e-13 1.99265e-13 0 0 1.45735e-13 2.38646e-13 2.26791e-13 1.57915e-13 0 0 7.15052e-14 1.28962e-13 1.1592e-13 9.74999e-14 0 0 -2.43357e-14 -4.11656e-14 -3.62951e-14 -3.5274e-14 0 0 -9.61146e-14 -1.82151e-13 -1.90275e-13 -1.49727e-13 0 0 -2.53514e-13 -4.10718e-13 -3.97474e-13 -3.40068e-13 0 0 -3.19862e-13 -4.40341e-13 -4.51286e-13 -3.37936e-13 0 0 -3.72794e-13 -5.48559e-13 -5.29222e-13 -4.24462e-13 0 0 -4.43065e-13 -6.8771e-13 -6.79135e-13 -4.90828e-13 0 0 -5.46888e-13 -8.92623e-13 -8.55815e-13 -5.87663e-13 0 0 -5.13841e-13 -8.52564e-13 -7.87561e-13 -5.49638e-13 0 0 3.34673e-14 7.98015e-14 1.1018e-13 8.26413e-14 0 0 9.51883e-13 1.4495e-12 1.53858e-12 9.78377e-13 0 0 1.74021e-12 2.73863e-12 2.7719e-12 1.72399e-12 0 0 2.0482e-12 3.28496e-12 3.27189e-12 2.14664e-12 0 0 1.95012e-12 3.03949e-12 3.10575e-12 2.0096e-12 0 0 1.60988e-12 2.51373e-12 2.57567e-12 1.64989e-12 0 0 1.23766e-12 1.93189e-12 1.95957e-12 1.34519e-12 0 0 9.04675e-13 1.42301e-12 1.37709e-12 9.91769e-13 0 0 5.91574e-13 9.85303e-13 9.40732e-13 6.3375e-13 0 0 3.51742e-13 6.03952e-13 5.88114e-13 4.0613e-13 0 0 1.78242e-13 3.2897e-13 2.38084e-13 2.91263e-13 0 0 3.15137e-14 7.99187e-14 5.09616e-14 1.07027e-13 0 0 -8.05879e-14 -1.10325e-13 -1.20083e-13 -5.59699e-14 0 0 -1.50994e-13 -2.6002e-13 -2.82347e-13 -1.55598e-13 0 0 -2.12907e-13 -4.09932e-13 -3.24545e-13 -2.67388e-13 0 0 -2.71292e-13 -4.84085e-13 -4.08028e-13 -2.81628e-13 0 0 -3.10375e-13 -5.45698e-13 -5.04646e-13 -3.12802e-13 0 0 -3.27902e-13 -6.2125e-13 -5.30971e-13 -3.85812e-13 0 0 -3.36806e-13 -6.63816e-13 -5.6047e-13 -4.09608e-13 0 0 -3.76838e-13 -6.84127e-13 -5.92793e-13 -4.84041e-13 0 0 -3.96395e-13 -6.77563e-13 -5.83939e-13 -4.53435e-13 0 0 -4.05711e-13 -6.78249e-13 -5.968e-13 -4.15693e-13 0 0 -3.92619e-13 -6.72986e-13 -6.10869e-13 -3.98307e-13 0 0 -3.70677e-13 -6.59523e-13 -5.65686e-13 -3.86941e-13 0 0 -3.73004e-13 -6.40371e-13 -5.34799e-13 -3.868e-13 0 0 -3.47173e-13 -5.83849e-13 -5.16187e-13 -3.79657e-13 0 0 -3.24232e-13 -5.57956e-13 -4.6676e-13 -3.41322e-13 0 0 -3.2905e-13 -5.11842e-13 -4.64257e-13 -2.97243e-13 0 0 -3.22003e-13 -4.37211e-13 -4.77811e-13 -2.5381e-13 0 0 -2.66636e-13 -3.92965e-13 -4.2669e-13 -1.93767e-13 0 0 -2.2656e-13 -3.4017e-13 -3.95804e-13 -1.25685e-13 0 0 -1.91425e-13 -3.14412e-13 -3.10887e-13 -1.68512e-13 0 0 -1.39476e-13 -2.55449e-13 -2.34233e-13 -1.63801e-13 0 0 -1.17449e-13 -1.62416e-13 -2.20773e-13 -6.60981e-14 0 0 -8.54526e-14 -1.15237e-13 -1.34141e-13 -7.11643e-14 0 0 -4.55386e-14 -8.39758e-14 -3.03672e-14 -4.51184e-14 0 0 1.6388e-14 -3.22552e-15 3.8949e-14 2.20485e-14 0 0 7.7761e-14 8.04054e-14 7.67733e-14 9.75638e-14 0 0 1.4933e-13 1.36192e-13 1.6426e-13 1.60325e-13 0 0 2.08183e-13 2.61454e-13 2.40325e-13 2.2541e-13 0 0 2.23964e-13 3.6836e-13 2.99153e-13 2.73116e-13 0 0 2.64144e-13 4.47285e-13 3.26563e-13 3.11412e-13 0 0 3.08539e-13 4.65173e-13 3.62679e-13 3.74989e-13 0 0 3.51893e-13 4.93392e-13 4.63767e-13 3.48816e-13 0 0 3.98891e-13 5.79119e-13 5.23583e-13 3.2686e-13 0 0 4.26341e-13 6.05016e-13 5.451e-13 4.03363e-13 0 0 4.83105e-13 5.65047e-13 6.63836e-13 4.16034e-13 0 0 5.43111e-13 6.07849e-13 7.34126e-13 3.89047e-13 0 0 5.50632e-13 6.87583e-13 7.35761e-13 4.40305e-13 0 0 5.11918e-13 7.69617e-13 7.93575e-13 4.1701e-13 0 0 4.68304e-13 9.05548e-13 7.72213e-13 4.2799e-13 0 0 5.29756e-13 8.7691e-13 8.06145e-13 5.30088e-13 0 0 5.80686e-13 8.23456e-13 9.04687e-13 5.57046e-13 0 0 6.00116e-13 8.21877e-13 8.97333e-13 5.95616e-13 0 0 6.0725e-13 7.78179e-13 9.59465e-13 5.4022e-13 0 0 5.65026e-13 8.03605e-13 9.02807e-13 6.40949e-13 0 0 5.04442e-13 7.29153e-13 7.31801e-13 6.9985e-13 0 0 4.54742e-13 7.01818e-13 7.13539e-13 6.83643e-13 0 0 3.80003e-13 6.39449e-13 6.03123e-13 5.39171e-13 0 0 3.18908e-13 4.74343e-13 5.09565e-13 3.5451e-13 0 0 2.72146e-13 3.53777e-13 3.79573e-13 3.78781e-13 0 0 1.80557e-13 2.33035e-13 2.80338e-13 2.18163e-13 0 0 9.56697e-14 1.51142e-13 1.86811e-13 7.07077e-14 0 0 3.91642e-14 1.03553e-13 2.92104e-14 3.65867e-14 0 0 1.89974e-14 8.44393e-15 1.17455e-14 -5.19526e-15 0 0 -9.73673e-15 -3.96642e-14 -7.15138e-15 -2.81008e-14 0 0 -2.83378e-14 -2.29019e-14 -3.87299e-14 -3.38299e-14 0 0 -3.75205e-14 -3.12529e-14 -5.86713e-14 -5.2103e-15 0 0 -4.19269e-14 -4.04323e-14 -7.75901e-14 -7.99472e-15 0 0 -2.61184e-14 -4.51734e-14 -7.07939e-14 -2.9937e-14 0 0 -2.72508e-14 -3.6454e-14 -6.27897e-14 -3.61109e-14 0 0 -4.35132e-14 -2.41477e-14 -6.48012e-14 -4.81675e-14 0 0 -3.84532e-14 -4.03431e-14 -5.92694e-14 -4.22413e-14 0 0 -1.53683e-14 -6.65123e-14 -4.55749e-14 -6.2606e-14 0 0 -2.80176e-14 -4.44506e-14 -6.86132e-14 -5.49706e-14 0 0 -3.64204e-14 -6.01244e-14 -5.78707e-14 -4.79443e-14 0 0 -1.39769e-14 -8.97256e-14 -5.08205e-14 -5.89602e-14 0 0 -1.9395e-14 -8.15217e-14 -6.39332e-14 -4.92311e-14 0 0 -4.36994e-14 -5.2911e-14 -5.5899e-14 -7.23088e-14 0 0 -4.43024e-14 -4.81613e-14 -5.65013e-14 -7.20912e-14 0 0 -4.53537e-14 -5.42724e-14 -5.51212e-14 -8.05262e-14 0 0 -2.72431e-14 -6.63103e-14 -2.83519e-14 -7.03374e-14 0 0 -2.47121e-14 -7.20509e-14 -2.63335e-14 -2.37701e-14 0 0 -3.24339e-14 -5.38234e-14 -1.41944e-14 -7.03681e-16 0 0 1.05881e-14 -9.66807e-14 9.72292e-15 4.36981e-14 0 0 6.60877e-15 -7.88223e-14 -1.82148e-14 6.95582e-14 0 0 -3.4082e-17 -5.45077e-14 4.49996e-14 1.79685e-14 0 0 1.37403e-14 -4.10553e-14 6.87585e-14 2.4996e-14 0 0 1.03239e-14 4.09585e-17 7.7999e-14 1.34712e-14 0 0 2.03956e-14 1.55107e-14 9.57263e-14 -5.88886e-14 0 0 4.91832e-14 -2.78282e-14 6.27694e-14 -3.20108e-14 0 0 4.33424e-14 -3.83841e-14 4.43261e-14 -5.85171e-14 0 0 -1.97167e-14 1.91617e-14 9.70024e-15 -1.24405e-13 0 0 -5.48318e-14 3.19744e-14 2.74645e-16 -1.25311e-13 0
				</DataArray>
				<DataArray Name="VitesseY" type="Float32" format="ascii">