<?xml version="1.0"?>
<VTKFile type="PolyData">
	<PolyData>
		<Piece NumberOfPoints="2601" NumberOfPolys="2500">
			<Points>
				<DataArray type="Float32" NumberOfComponents="3" format="ascii">
 1e-06 0 0 0.135698 0 0 0.153852 0 0 0.171201 0 0 0.184786 0 0 0.194552 0 0 0.203168 0 0 0.210137 0 0 0.216167 0 0 0.220865 0 0 0.224935 0 0 0.229755 0 0 0.240952 0 0 0.260006 0 0 0.280001 0 0 0.300001 0 0 0.320001 0 0 0.340001 0 0 0.360001 0 0 0.380001 0 0 0.400001 0 0 0.420001 0 0 0.440001 0 0 0.460001 0 0 0.480001 0 0 0.500001 0 0 0.520001 0 0 0.540001 0 0 0.560001 0 0 0.580001 0 0 0.600001 0 0 0.620001 0 0 0.640001 0 0 0.660001 0 0 0.680001 0 0 0.700001 0 0 0.720001 0 0 0.740001 0 0 0.760001 0 0 0.780001 0 0 0.800001 0 0 0.820001 0 0 0.840001 0 0 0.860001 0 0 0.880001 0 0 0.900001 0 0 0.920001 0 0 0.940001 0 0 0.960001 0 0 0.980001 0 0 1 0 0 9.99507e-07 3.14108e-08 0 0.135631 0.00426238 0 0.153776 0.00483261 0 0.171117 0.00537755 0 0.184695 0.00580428 0 0.194456 0.00611101 0 0.203068 0.00638168 0 0.210033 0.00660056 0 0.21606 0.00678997 0 0.220756 0.00693752 0 0.224824 0.00706539 0 0.229642 0.00721679 0 0.240833 0.00756847 0 0.259878 0.008167 0 0.279863 0.00879504 0 0.299853 0.00942326 0 0.319843 0.0100515 0 0.339833 0.0106797 0 0.359823 0.0113079 0 0.379813 0.0119361 0 0.399804 0.0125643 0 0.419794 0.0131926 0 0.439784 0.0138208 0 0.459774 0.014449 0 0.479764 0.0150772 0 0.499754 0.0157054 0 0.519744 0.0163336 0 0.539735 0.0169618 0 0.559725 0.0175901 0 0.579715 0.0182183 0 0.599705 0.0188465 0 0.619695 0.0194747 0 0.639685 0.0201029 0 0.659675 0.0207311 0 0.679665 0.0213593 0 0.699656 0.0219876 0 0.719646 0.0226158 0 0.739636 0.023244 0 0.759626 0.0238722 0 0.779616 0.0245004 0 0.799606 0.0251286 0 0.819596 0.0257569 0 0.839587 0.0263851 0 0.859577 0.0270133 0 0.879567 0.0276415 0 0.899557 0.0282697 0 0.919547 0.0288979 0 0.939537 0.0295261 0 0.959527 0.0301544 0 0.979517 0.0307826 0 0.999508 0.0314108 0 9.98027e-07 6.27905e-08 0 0.13543 0.00852055 0 0.153548 0.00966045 0 0.170863 0.0107498 0 0.184422 0.0116028 0 0.194168 0.012216 0 0.202768 0.0127571 0 0.209722 0.0131946 0 0.21574 0.0135732 0 0.220429 0.0138682 0 0.224492 0.0141238 0 0.229302 0.0144265 0 0.240476 0.0151295 0 0.259493 0.0163259 0 0.279448 0.0175814 0 0.299409 0.0188372 0 0.31937 0.020093 0 0.33933 0.0213488 0 0.359291 0.0226046 0 0.379251 0.0238605 0 0.399212 0.0251163 0 0.419172 0.0263721 0 0.439133 0.0276279 0 0.459093 0.0288837 0 0.479054 0.0301395 0 0.499014 0.0313953 0 0.518975 0.0326511 0 0.538935 0.0339069 0 0.558896 0.0351628 0 0.578857 0.0364186 0 0.598817 0.0376744 0 0.618778 0.0389302 0 0.638738 0.040186 0 0.658699 0.0414418 0 0.678659 0.0426976 0 0.69862 0.0439534 0 0.71858 0.0452092 0 0.738541 0.046465 0 0.758501 0.0477209 0 0.778462 0.0489767 0 0.798422 0.0502325 0 0.818383 0.0514883 0 0.838343 0.0527441 0 0.858304 0.0539999 0 0.878265 0.0552557 0 0.898225 0.0565115 0 0.918186 0.0577673 0 0.938146 0.0590232 0 0.958107 0.060279 0 0.978067 0.0615348 0 0.998028 0.0627906 0 9.95562e-07 9.41083e-08 0 0.135096 0.0127703 0 0.153169 0.0144788 0 0.170441 0.0161114 0 0.183966 0.0173899 0 0.193688 0.0183089 0 0.202267 0.0191198 0 0.209204 0.0197756 0 0.215208 0.0203431 0 0.219884 0.0207852 0 0.223937 0.0211683 0 0.228736 0.0216219 0 0.239882 0.0226755 0 0.258852 0.0244688 0 0.278758 0.0263504 0 0.29867 0.0282326 0 0.318581 0.0301148 0 0.338492 0.0319969 0 0.358403 0.0338791 0 0.378315 0.0357613 0 0.398226 0.0376434 0 0.418137 0.0395256 0 0.438048 0.0414078 0 0.457959 0.0432899 0 0.477871 0.0451721 0 0.497782 0.0470543 0 0.517693 0.0489364 0 0.537604 0.0508186 0 0.557516 0.0527007 0 0.577427 0.0545829 0 0.597338 0.0564651 0 0.617249 0.0583472 0 0.637161 0.0602294 0 0.657072 0.0621116 0 0.676983 0.0639937 0 0.696894 0.0658759 0 0.716806 0.0677581 0 0.736717 0.0696402 0 0.756628 0.0715224 0 0.776539 0.0734046 0 0.796451 0.0752867 0 0.816362 0.0771689 0 0.836273 0.0790511 0 0.856184 0.0809332 0 0.876096 0.0828154 0 0.896007 0.0846976 0 0.915918 0.0865797 0 0.935829 0.0884619 0 0.95574 0.0903441 0 0.975652 0.0922262 0 0.995563 0.0941084 0 9.92115e-07 1.25333e-07 0 0.134628 0.0170075 0 0.152639 0.0192828 0 0.169851 0.0214572 0 0.183329 0.0231599 0 0.193017 0.0243838 0 0.201566 0.0254638 0 0.20848 0.0263371 0 0.214462 0.0270929 0 0.219123 0.0276817 0 0.223162 0.0281919 0 0.227944 0.028796 0 0.239052 0.0301992 0 0.257956 0.0325874 0 0.277793 0.0350934 0 0.297635 0.0376001 0 0.317478 0.0401068 0 0.33732 0.0426134 0 0.357162 0.0451201 0 0.377005 0.0476268 0 0.396847 0.0501334 0 0.416689 0.0526401 0 0.436531 0.0551467 0 0.456374 0.0576534 0 0.476216 0.0601601 0 0.496058 0.0626667 0 0.515901 0.0651734 0 0.535743 0.0676801 0 0.555585 0.0701867 0 0.575428 0.0726934 0 0.59527 0.0752001 0 0.615112 0.0777067 0 0.634954 0.0802134 0 0.654797 0.0827201 0 0.674639 0.0852267 0 0.694481 0.0877334 0 0.714324 0.0902401 0 0.734166 0.0927467 0 0.754008 0.0952534 0 0.77385 0.09776 0 0.793693 0.100267 0 0.813535 0.102773 0 0.833377 0.10528 0 0.85322 0.107787 0 0.873062 0.110293 0 0.892904 0.1128 0 0.912747 0.115307 0 0.932589 0.117813 0 0.952431 0.12032 0 0.972273 0.122827 0 0.992116 0.125333 0 9.87688e-07 1.56434e-07 0 0.134027 0.0212279 0 0.151958 0.0240678 0 0.169093 0.0267817 0 0.182511 0.028907 0 0.192156 0.0304346 0 0.200667 0.0317826 0 0.20755 0.0328727 0 0.213506 0.033816 0 0.218145 0.0345508 0 0.222166 0.0351877 0 0.226927 0.0359417 0 0.237985 0.0376931 0 0.256805 0.040674 0 0.276554 0.0438018 0 0.296307 0.0469305 0 0.316061 0.0500592 0 0.335815 0.0531879 0 0.355569 0.0563166 0 0.375323 0.0594453 0 0.395076 0.0625739 0 0.41483 0.0657026 0 0.434584 0.0688313 0 0.454338 0.07196 0 0.474091 0.0750887 0 0.493845 0.0782174 0 0.513599 0.0813461 0 0.533353 0.0844748 0 0.553106 0.0876035 0 0.57286 0.0907321 0 0.592614 0.0938608 0 0.612368 0.0969895 0 0.632122 0.100118 0 0.651875 0.103247 0 0.671629 0.106376 0 0.691383 0.109504 0 0.711137 0.112633 0 0.73089 0.115762 0 0.750644 0.11889 0 0.770398 0.122019 0 0.790152 0.125148 0 0.809905 0.128276 0 0.829659 0.131405 0 0.849413 0.134534 0 0.869167 0.137662 0 0.88892 0.140791 0 0.908674 0.14392 0 0.928428 0.147049 0 0.948182 0.150177 0 0.967936 0.153306 0 0.987689 0.156435 0 9.82287e-07 1.87381e-07 0 0.133295 0.0254273 0 0.151127 0.028829 0 0.168169 0.0320799 0 0.181513 0.0346255 0 0.191105 0.0364553 0 0.19957 0.03807 0 0.206415 0.0393757 0 0.212338 0.0405056 0 0.216952 0.0413859 0 0.220951 0.0421487 0 0.225686 0.0430519 0 0.236684 0.0451498 0 0.255401 0.0487203 0 0.275041 0.052467 0 0.294687 0.0562146 0 0.314333 0.0599622 0 0.333979 0.0637098 0 0.353624 0.0674575 0 0.37327 0.0712051 0 0.392916 0.0749527 0 0.412562 0.0787003 0 0.432207 0.082448 0 0.451853 0.0861956 0 0.471499 0.0899432 0 0.491145 0.0936908 0 0.51079 0.0974385 0 0.530436 0.101186 0 0.550082 0.104934 0 0.569728 0.108681 0 0.589373 0.112429 0 0.609019 0.116177 0 0.628665 0.119924 0 0.648311 0.123672 0 0.667956 0.127419 0 0.687602 0.131167 0 0.707248 0.134915 0 0.726894 0.138662 0 0.746539 0.14241 0 0.766185 0.146158 0 0.785831 0.149905 0 0.805477 0.153653 0 0.825122 0.1574 0 0.844768 0.161148 0 0.864414 0.164896 0 0.88406 0.168643 0 0.903705 0.172391 0 0.923351 0.176139 0 0.942997 0.179886 0 0.962642 0.183634 0 0.982288 0.187382 0 9.75917e-07 2.18143e-07 0 0.13243 0.0296016 0 0.150147 0.0335618 0 0.167078 0.0373463 0 0.180336 0.0403099 0 0.189866 0.0424401 0 0.198276 0.0443198 0 0.205076 0.04584 0 0.210961 0.0471554 0 0.215545 0.0481801 0 0.219518 0.0490681 0 0.224222 0.0501196 0 0.235149 0.0525619 0 0.253745 0.0567186 0 0.273258 0.0610803 0 0.292776 0.0654432 0 0.312294 0.0698061 0 0.331813 0.0741689 0 0.351331 0.0785318 0 0.370849 0.0828946 0 0.390368 0.0872575 0 0.409886 0.0916204 0 0.429404 0.0959832 0 0.448923 0.100346 0 0.468441 0.104709 0 0.487959 0.109072 0 0.507478 0.113435 0 0.526996 0.117798 0 0.546514 0.12216 0 0.566033 0.126523 0 0.585551 0.130886 0 0.605069 0.135249 0 0.624588 0.139612 0 0.644106 0.143975 0 0.663624 0.148338 0 0.683143 0.1527 0 0.702661 0.157063 0 0.722179 0.161426 0 0.741698 0.165789 0 0.761216 0.170152 0 0.780734 0.174515 0 0.800253 0.178878 0 0.819771 0.183241 0 0.839289 0.187603 0 0.858808 0.191966 0 0.878326 0.196329 0 0.897844 0.200692 0 0.917363 0.205055 0 0.936881 0.209418 0 0.956399 0.213781 0 0.975918 0.218143 0 9.68583e-07 2.4869e-07 0 0.131435 0.0337467 0 0.149018 0.0382614 0 0.165822 0.042576 0 0.178981 0.0459545 0 0.188439 0.048383 0 0.196786 0.0505259 0 0.203535 0.0522589 0 0.209376 0.0537585 0 0.213926 0.0549268 0 0.217869 0.0559392 0 0.222537 0.0571378 0 0.233382 0.0599222 0 0.251838 0.064661 0 0.271204 0.0696334 0 0.290576 0.0746072 0 0.309948 0.079581 0 0.329319 0.0845548 0 0.348691 0.0895286 0 0.368063 0.0945024 0 0.387434 0.0994762 0 0.406806 0.10445 0 0.426178 0.109424 0 0.445549 0.114398 0 0.464921 0.119371 0 0.484293 0.124345 0 0.503664 0.129319 0 0.523036 0.134293 0 0.542408 0.139267 0 0.561779 0.14424 0 0.581151 0.149214 0 0.600523 0.154188 0 0.619894 0.159162 0 0.639266 0.164136 0 0.658638 0.169109 0 0.678009 0.174083 0 0.697381 0.179057 0 0.716753 0.184031 0 0.736124 0.189005 0 0.755496 0.193978 0 0.774867 0.198952 0 0.794239 0.203926 0 0.813611 0.2089 0 0.832982 0.213874 0 0.852354 0.218847 0 0.871726 0.223821 0 0.891097 0.228795 0 0.910469 0.233769 0 0.929841 0.238743 0 0.949212 0.243716 0 0.968584 0.24869 0 9.60294e-07 2.78991e-07 0 0.13031 0.0378586 0 0.147743 0.0429233 0 0.164403 0.0477636 0 0.177449 0.0515538 0 0.186827 0.0542781 0 0.195101 0.0566822 0 0.201793 0.0586263 0 0.207584 0.0603086 0 0.212095 0.0616192 0 0.216004 0.062755 0 0.220633 0.0640997 0 0.231384 0.0672233 0 0.249683 0.0725395 0 0.268883 0.0781178 0 0.288089 0.0836976 0 0.307295 0.0892774 0 0.326501 0.0948573 0 0.345707 0.100437 0 0.364913 0.106017 0 0.384118 0.111597 0 0.403324 0.117177 0 0.42253 0.122756 0 0.441736 0.128336 0 0.460942 0.133916 0 0.480148 0.139496 0 0.499354 0.145076 0 0.51856 0.150655 0 0.537765 0.156235 0 0.556971 0.161815 0 0.576177 0.167395 0 0.595383 0.172975 0 0.614589 0.178555 0 0.633795 0.184134 0 0.653001 0
[...]
			<PointData Scalars="VitesseX">
				<DataArray Name="VitesseX" type="Float32" format="ascii">
 0 1.92913 3.01688 2.70508 3.56133 3.74086 3.77279 3.91367 4.54177 4.48682 4.64395 3.90553 0.949612 0.0108489 6.73713e-07 2.86797e-12 1.14659e-17 0 0 0 0 0 0 0 0 0 0 0 0 0 0 0 0 0 0 0 0 0 0 0 0 0 0 0 0 0 0 0 0 0 0 0 1.92818 3.01539 2.70375 3.55957 3.73901 3.77093 3.91174 4.53952 4.48461 4.64166 3.9036 0.949144 0.0108436 6.73381e-07 2.86655e-12 1.04866e-17 -7.75572e-23 0 6.93933e-23 -6.59237e-23 0 5.99306e-23 -5.73249e-23 5.49364e-23 0 0 0 0 0 0 0 0 0 7.75573e-23 0 -7.32486e-23 0 0 0 6.59237e-23 6.43158e-23 -6.27845e-23 -6.13244e-23 0 0 5.7325e-23 -5.61053e-23 0 1.07631e-22 0 0 1.92532 3.01093 2.69975 3.5543 3.73348 3.76535 3.90595 4.5328 4.47797 4.63479 3.89783 0.947738 0.0108275 6.72384e-07 2.86231e-12 8.84061e-18 7.75572e-23 0 0 0 0 0 -1.1465e-22 1.09873e-22 0 0 0 -9.41767e-23 0 0 0 0 0 0 -7.53414e-23 0 0 0 0 0 0 -6.27845e-23 0 0 0 5.7325e-23 -1.12211e-22 0 0 0 0 1.92057 3.00349 2.69308 3.54552 3.72426 3.75605 3.8963 4.52161 4.46691 4.62334 3.8882 0.945398 0.0108008 6.70723e-07 2.85524e-12 6.59371e-18 0 0 0 0 -6.27844e-23 0 0 0 -5.2739e-23 0 9.76647e-23 0 9.09293e-23 0 0 0 0 7.75573e-23 0 7.32486e-23 0 0 0 0 0 0 0 0 1.17198e-22 5.7325e-23 -5.61053e-23 0 0 0 0 1.91392 2.99309 2.68375 3.53324 3.71136 3.74304 3.88281 4.50595 4.45144 4.60734 3.87474 0.942124 0.0107634 6.68401e-07 2.84536e-12 3.18643e-18 0 -7.32485e-23 0 0 0 -5.99306e-23 5.73249e-23 -5.49364e-23 -5.2739e-23 0 -4.88324e-23 0 0 0 0 0 0 0 0 0 0 6.93934e-23 0 0 0 0 0 -5.99307e-23 5.85989e-23 -1.1465e-22 0 -5.49365e-23 -5.38153e-23 0 0 1.90538 2.97974 2.67178 3.51748 3.6948 3.72634 3.86548 4.48585 4.43158 4.58678 3.85745 0.937921 0.0107154 6.65419e-07 2.83266e-12 -3.0039e-18 3.87786e-23 -7.32485e-23 6.93933e-23 6.59237e-23 -6.27844e-23 -5.99306e-23 0 -5.49364e-23 0 5.07105e-23 -4.88324e-23 0 9.09293e-23 8.78983e-23 0 0 7.99075e-23 -7.75573e-23 -7.53414e-23 0 -7.12689e-23 -6.93934e-23 0 6.59237e-23 0 -6.27845e-23 0 0 5.85989e-23 0 1.12211e-22 -5.49365e-23 0 0 0 1.89496 2.96344 2.65717 3.49825 3.6746 3.70596 3.84435 4.46132 4.40735 4.5617 3.83635 0.932792 0.0106568 6.6178e-07 2.81717e-12 -4.19329e-18 0 0 0 0 6.27844e-23 5.99306e-23 5.73249e-23 5.49364e-23 5.2739e-23 0 4.88324e-23 -4.70884e-23 -4.54646e-23 0 -8.50629e-23 0 0 7.75573e-23 0 0 0 6.93934e-23 0 0 0 6.27845e-23 0 -5.99307e-23 -5.85989e-23 0 1.12211e-22 -5.49365e-23 5.38153e-23 0 0 1.88267 2.94422 2.63994 3.47556 3.65077 3.68193 3.81941 4.43239 4.37876 4.53211 3.81147 0.926742 0.0105877 6.57488e-07 2.79888e-12 9.321e-18 -3.87786e-23 -7.32485e-23 -3.46967e-23 6.59237e-23 0 -5.99306e-23 -5.73249e-23 0 -5.2739e-23 -5.07105e-23 -4.88324e-23 0 4.54646e-23 4.39491e-23 0 0 -7.99075e-23 0 -7.53414e-23 0 0 0 -6.76141e-23 0 0 -6.27845e-23 6.13244e-23 0 -5.85989e-23 -5.7325e-23 -5.61053e-23 0 0 0 0 1.86852 2.9221 2.6201 3.44944 3.62333 3.65426 3.79071 4.39908 4.34586 4.49806 3.78283 0.919778 0.0105081 6.52547e-07 2.77784e-12 6.18291e-18 1.16336e-22 0 1.0409e-22 -3.29618e-23 6.27844e-23 0 -5.73249e-23 0 -5.2739e-23 5.07105e-23 4.88324e-23 -4.70884e-23 -4.54646e-23 -4.39491e-23 0 4.12023e-23 0 0 0 0 7.12689e-23 0 0 0 0 0 6.13244e-23 1.19861e-22 -5.85989e-23 0 0 0 5.38153e-23 0 0 1.85253 2.89709 2.59768 3.41992 3.59232 3.62299 3.75827 4.36143 4.30866 4.45956 3.75046 0.911907 0.0104182 6.46962e-07 2.75406e-12 -1.95084e-18 -7.75572e-23 3.66242e-23 1.0409e-22 -9.88855e-23 0 0 5.73249e-23 5.49364e-23 5.2739e-23 -5.07105e-23 4.88324e-23 4.70884e-23 4.54646e-23 0 -4.25314e-23 4.12023e-23 0 -7.75573e-23 0 0 7.12689e-23 -6.93934e-23 0 0 0 -1.25569e-22 -1.22649e-22 1.19861e-22 5.85989e-23 5.7325e-23 0 0 5.38153e-23 0 0 1.83471 2.86922 2.57269 3.38702 3.55777 3.58814 3.72212 4.31948 4.26722 4.41666 3.71438 0.903135 0.010318 6.40739e-07 2.72759e-12 -1.20645e-17 3.87786e-23 -1.46497e-22 3.46967e-23 -6.59237e-23 0 -5.99306e-23 5.73249e-23 0 0 -5.07105e-23 0 0 0 4.39491e-23 -8.50629e-23 4.12023e-23 -3.99538e-23 0 0 0 0 0 6.76141e-23 -6.59237e-23 1.28632e-22 6.27845e-23 0 0 0 -5.7325e-23 -5.61053e-23 -5.49365e-23 5.38153e-23 0 0 1.81508 2.83853 2.54516 3.35078 3.5197 3.54975 3.68229 4.27326 4.22156 4.36941 3.67464 0.893472 0.0102076 6.33884e-07 2.6984e-12 -1.08557e-17 -5.81679e-23 3.66242e-23 1.38787e-22 3.29618e-23 -3.13922e-23 2.99653e-23 0 5.49364e-23 -5.2739e-23 -5.07105e-23 0 -4.70884e-23 -9.09293e-23 4.39491e-23 -4.25314e-23 4.12023e-23 0 3.87787e-23 0 0 -7.12689e-23 6.93934e-23 6.76141e-23 -6.59237e-23 -6.43158e-23 -6.27845e-23 0 -5.99307e-23 5.85989e-23 5.7325e-23 -5.61053e-23 -5.49365e-23 1.07631e-22 0 0 1.79366 2.80503 2.51512 3.31124 3.47816 3.50785 3.63884 4.22283 4.17174 4.31784 3.63127 0.882927 0.0100871 6.26403e-07 2.66659e-12 -7.19501e-18 1.93893e-23 1.83121e-23 -3.46967e-23 3.29618e-23 -3.13922e-23 2.99653e-23 -1.43312e-22 0 -2.63695e-23 -5.07105e-23 4.88324e-23 0 0 4.39491e-23 0 0 0 -7.75573e-23 -3.76707e-23 -3.66243e-23 -3.56345e-23 6.93934e-23 -6.76141e-23 0 -6.43158e-23 0 6.13244e-23 -5.99307e-23 -5.85989e-23 -5.7325e-23 -5.61053e-23 -5.49365e-23 0 0 0 1.77047 2.76876 2.4826 3.26842 3.43319 3.4625 3.59179 4.16823 4.1178 4.26201 3.58432 0.871511 0.00995666 6.18303e-07 2.63209e-12 -4.90731e-19 -1.35725e-22 1.28185e-22 8.67416e-23 -8.24046e-23 -9.41767e-23 0 8.59874e-23 5.49364e-23 -1.05478e-22 -2.53553e-23 0 4.70884e-23 0 -8.78983e-23 -4.25314e-23 -8.24047e-23 -7.99075e-23 0 7.53414e-23 3.66243e-23 -3.56345e-23 0 6.76141e-23 6.59237e-23 0 0 0 0 1.17198e-22 0 5.61053e-23 0 -5.38153e-23 0 0 1.74553 2.72976 2.44763 3.22238 3.38483 3.41372 3.54119 4.10951 4.0598 4.20198 3.53383 0.859235 0.00981641 6.09594e-07 2.59501e-12 -1.28065e-17 -8.72519e-23 0 1.56135e-22 3.29618e-23 -1.56961e-23 0 5.73249e-23 0 0 -5.07105e-23 9.76647e-23 4.70884e-23 9.09293e-23 8.78983e-23 -4.25314e-23 8.24047e-23 -3.99538e-23 -3.87787e-23 3.76707e-23 3.66243e-23 3.56345e-23 -3.46967e-23 -3.3807e-23 0 0 6.27845e-23 0 0 0 -5.7325e-23 0 5.49365e-23 -5.38153e-23 0 0 1.71887 2.68806 2.41025 3.17317 3.33313 3.36158 3.4871 4.04674 3.99779 4.13779 3.47985 0.846111 0.00966647 6.00283e-07 2.5554e-12 -1.30762e-17 -5.81679e-23 -1.28185e-22 3.46967e-23 4.94427e-23 -1.56961e-23 -1.49827e-23 1.1465e-22 5.49364e-23 2.63695e-23 -2.53553e-23 -7.32486e-23 2.35442e-23 -6.81969e-23 4.39491e-23 -4.25314e-23 4.12023e-23 3.99538e-23 0 -1.13012e-22 0 0 0 0 -6.59237e-23 -3.21579e-23 0 6.13244e-23 0 0 5.7325e-23 0 5.49365e-23 5.38153e-23 0 0 1.69051 2.64371 2.37048 3.12081 3.27814 3.30612 3.42957 3.97998 3.93183 4.06953 3.42244 0.832152 0.00950699 5.90379e-07 2.51324e-12 5.48766e-19 -3.27194e-23 1.60231e-23 -4.77079e-23 2.47214e-23 1.56961e-23 2.99653e-23 1.43312e-23 -5.49364e-23 2.63695e-23 5.07105e-23 4.88324e-23 0 0 -4.39491e-23 -8.50629e-23 -4.12023e-23 -7.99075e-23 3.87787e-23 0 3.66243e-23 7.12689e-23 1.0409e-22 6.76141e-23 3.29619e-23 6.43158e-23 -6.27845e-23 -6.13244e-23 2.99653e-23 -5.85989e-23 -5.7325e-23 0 0 -5.38153e-23 0 0 1.66048 2.59676 2.32838 3.06538 3.21991 3.2474 3.36866 3.90929 3.86199 3.99725 3.36166 0.817371 0.00933813 5.79893e-07 2.46853e-12 -8.46032e-20 0 3.89133e-23 1.95169e-23 -4.94427e-23 -9.41767e-23 4.4948e-23 2.86625e-23 -1.37341e-23 -3.95542e-23 -5.07105e-23 -7.32486e-23 -9.41767e-23 6.81969e-23 -2.19746e-23 6.37971e-23 6.18035e-23 3.99538e-23 3.87787e-23 0 -7.32486e-23 -7.12689e-23 0 -3.3807e-23 -3.29619e-23 9.64738e-23 3.13923e-23 0 0 0 5.7325e-23 5.61053e-23 5.49365e-23 -5.38153e-23 0 0 1.62882 2.54724 2.28398 3.00693 3.15851 3.18547 3.30442 3.83474 3.78835 3.92102 3.29755 0.801784 0.00916006 5.68835e-07 2.42145e-12 9.98015e-21 8.72519e-23 -1.83121e-23 6.07192e-23 4.97646e-23 -4.70883e-23 -3.74566e-23 7.16562e-23 4.12023e-23 1.05478e-22 -6.33882e-23 0 -2.35442e-23 6.81969e-23 0 -8.50629e-23 2.06012e-23 -7.99075e-23 3.87787e-23 0 7.32486e-23 1.06903e-22 -1.0409e-22 1.01421e-22 -9.88856e-23 6.43158e-23 -9.41768e-23 6.13244e-23 0 -5.85989e-23 -2.86625e-23 -2.80527e-23 0 -5.38153e-23 0 0 1.59555 2.4952 2.23732 2.9455 3.09399 3.1204 3.23692 3.75641 3.71096 3.84092 3.23019 0.785406 0.00897294 5.57215e-07 2.37195e-12 7.10608e-18 1.35725e-22 3.66242e-23 -8.67416e-24 -5.3563e-23 5.88604e-24 -3.3711e-23 4.29937e-23 -8.92717e-23 -5.2739e-23 -5.07105e-23 -3.66243e-23 5.88605e-23 -2.27323e-23 -2.19746e-23 6.37971e-23 8.24047e-23 -1.19861e-22 1.93893e-23 1.88354e-23 0 -1.06903e-22 -3.46967e-23 -3.3807e-23 -3.29619e-23 6.43158e-23 -1.56961e-22 6.13244e-23 5.99307e-23 -5.85989e-23 2.86625e-23 -5.61053e-23 5.49365e-23 -5.38153e-23 0 0 1.5607 2.44071 2.18846 2.88117 3.02642 3.05225 3.16622 3.67437 3.62991 3.75704 3.15964 0.768252 0.00877697 5.45045e-07 2.32014e-12 -2.31462e-17 -5.81679e-23 0 0 -1.15366e-22 -7.84806e-24 -3.74566e-24 1.34355e-24 -1.71676e-23 -1.31847e-23 -6.33882e-24 7.32486e-23 -7.06325e-23 5.68308e-23 5.49364e-23 6.37971e-23 -4.12023e-23 7.99075e-23 -3.87787e-23 3.76707e-23 9.15607e-23 -3.56345e-23 -3.46967e-23 -3.3807e-23 3.29619e-23 1.28632e-22 0 -3.06622e-23 5.99307e-23 2.92994e-23 -5.7325e-23 -5.61053e-23 0 0 0 0 1.52431 2.3838 2.13744 2.814 2.95586 2.98109 3.0924 3.5887 3.54528 3.66944 3.08598 0.750341 0.00857234 5.32338e-07 2.26612e-12 -1.73557e-17 1.55114e-22 9.15606e-23 3.46967e-23 0 -5.49364e-23 3.74566e-23 3.58281e-24 5.92283e-23 5.2739e-23 0 -4.88324e-23 2.35442e-23 -2.27323e-23 4.39491e-23 -1.06329e-22 0 3.99538e-23 1.93893e-23 0 1.83121e-23 1.78172e-23 -1.73484e-23 3.3807e-23 -6.59237e-23 -9.64738e-23 1.25569e-22 0 -8.9896e-23 0 0 -2.80527e-23 -5.49365e-23 -5.38153e-23 0 0 1.48642 2.32455 2.0843 2.74405 2.88238 2.90699 3.01553 3.49949 3.45715 3.57823 3.00926 0.731689 0.00835925 5.19105e-07 2.20982e-12 -2.16652e-18 -1.93893e-22 -1.09873e-22 -1.0409e-22 4.94427e-23 -4.70883e-23 1.49827e-23 -7.88218e-23 3.43353e-23 -2.30733e-23 2.02421e-24 2.44162e-23 -4.70884e-23 4.54646e-23 -1.09873e-23 6.37971e-23 -3.09017e-23 -9.98844e-24 0 -5.65061e-23 1.83121e-23 5.34517e-23 -1.38787e-22 8.45176e-23 3.29619e-23 0 -6.27845e-23 3.06622e-23 5.99307e-23 8.78983e-23 -2.86625e-23 8.4158e-23 8.24047e-23 -2.69077e-23 0 0 1.44706 2.263 2.02911 2.67139 2.80606 2.83001 2.93569 3.40683 3.36561 3.48348 2.92958 0.712315 0.00813791 5.0536e-07 2.15129e-12 -5.47903e-18 1.16336e-22 1.09873e-22 -1.38787e-22 0 1.09873e-22 7.49133e-23 -1.43312e-22 -1.37341e-23 -6.59237e-24 -4.75411e-23 6.25665e-23 -2.79587e-23 5.39892e-23 -4.94428e-23 6.91136e-23 -1.03006e-23 3.99538e-23 0 8.47591e-23 3.66243e-23 3.56345e-23 -5.20451e-23 5.07106e-23 1.64809e-23 1.12553e-22 1.56961e-23 -6.13244e-23 -2.99653e-23 0 -8.59875e-23 -2.80527e-23 0 -2.69077e-23 0 0 1.40627 2.19921 1.97192 2.5961 2.72697 2.75025 2.85294 3.3108 3.27075 3.3853 2.84701 0.692238 0.00790853 4.91116e-07 2.09063e-12 9.9159e-18 0 1.83121e-22 6.93933e-23 0 -6.27844e-23 5.99306e-23 2.86625e-23 0 0 -1.90165e-23 5.49364e-23 -6.18035e-23 9.235e-24 8.24046e-24 -1.32911e-23 -1.03006e-23 4.99422e-23 -4.84733e-23 -6.59237e-23 4.57804e-23 -2.67258e-23 -3.46967e-23 -3.3807e-23 -6.59237e-23 0 3.13923e-23 3.06622e-23 -2.99653e-23 0 0 -2.80527e-23 2.74682e-23 2.69077e-23 0 0 1.3641 2.13326 1.91278 2.51824 2.64519 2.66777 2.76738 3.21151 3.17266 3.28377 2.76163 0.671477 0.00767136 4.76387e-07 2.02792e-12 -1.02419e-17 -3.87786e-23 -3.66242e-23 2.0818e-22 -6.59237e-23 3.13922e-23 2.99653e-23 -5.73249e-23 1.37341e-23 5.2739e-23 -1.01421e-22 8.54567e-23 3.53163e-23 7.388e-23 -7.14174e-23 -5.98098e-24 -1.15882e-22 -1.99769e-23 -4.3626e-23 -6.59237e-23 -2.74682e-23 3.56345e-23 -7.80676e-23 -8.45176e-24 -1.15367e-22 -4.82369e-23 4.70884e-23 3.06622e-23 -2.99653e-23 0 2.86625e-23 -1.40263e-23 -2.74682e-23 5.38153e-23 0 0 1.32058 2.0652 1.85176 2.4379 2.56079 2.58265 2.67909 3.10905 3.07144 3.17901 2.67352 0.650054 0.00742661 4.61188e-07 1.96322e-12 -1.27169e-17 3.87786e-23 -1.46497e-22 3.46967e-23 -6.59237e-23 0 -8.98959e-23 2.86625e-23 -2.74682e-23 -9.22932e-23 3.80329e-23 -1.22081e-23 1.05949e-22 1.13662e-22 6.04301e-23 3.7215e-23 1.03006e-22 1.37341e-23 -6.66508e-23 8.71135e-23 -8.24047e-23 4.45431e-24 5.20451e-23 -3.3807e-23 4.94428e-23 3.21579e-23 1.56961e-23 -3.06622e-23 1.49827e-23 7.32486e-23 0 7.01317e-23 -8.24047e-23 6.72691e-23 0 0 1.27576 1.9951 1.7889 2.35515 2.47387 2.49499 2.58815 3.00352 2.96719 3.0711 2.58277 0.62799 0.00717453 4.45535e-07 1.89663e-12 -9.74158e-18 1.55114e-22 3.66242e-23 -1.73483e-22 1.31847e-22 1.88353e-22 -8.98959e-23 5.73249e-23 2.74682e-23 2.63695e-23 -5.07105e-23 2.44162e-23 -4.70884e-23 -5.68308e-23 -1.09873e-23 5.31643e-23 -9.27052e-23 8.9896e-23 1.21183e-23 -2.11898e-23 -5.15029e-23 1.78172e-23 1.73484e-23 8.45176e-23 -1.48328e-22 -4.01974e-23 -3.92403e-23 8.43211e-23 -7.49134e-24 0 2.86625e-23 5.61053e-23 -1.09873e-22 1.07631e-22 0 0 1.22967 1.92303 1.72429 2.27008 2.38451 2.40487 2.49467 2.89503 2.86001 2.96017 2.48948 0.605306 0.00691537 4.29441e-07 1.82813e-12 -2.52925e-17 1.55114e-22 7.32485e-23 1.38787e-22 -9.88855e-23 -6.27844e-23 1.19861e-22 2.86625e-23 8.24046e-23 2.63695e-23 1.52132e-22 -4.88324e-23 2.35442e-23 -1.13662e-23 -8.78983e-23 6.37971e-23 4.12023e-23 9.98844e-23 5.33207e-23 -2.8253e-23 -1.37341e-22 7.79504e-24 7.31884e-24 -2.95812e-23 7.41642e-23 1.6079e-22 -6.27845e-23 -1.91639e-22 2.99653e-23 -3.66243e-23 -6.44906e-23 2.80527e-23 -5.49365e-23 0 0 0 1.18238 1.84907 1.65797 2.18276 2.2928 2.31237 2.39871 2.78368 2.75 2.84631 2.39373 0.582024 0.00664939 4.12924e-07 1.75782e-12 -2.00267e-18 7.75572e-23 0 1.38787e-22 1.31847e-22 6.27844e-23 -5.99306e-23 0 8.24046e-23 -1.05478e-22 -7.60658e-23 -7.32486e-23 -4.70884e-23 4.54646e-23 -4.39491e-23 -2.12657e-23 -6.18035e-23 5.99307e-23 5.8168e-23 1.88354e-23 1.83121e-23 -2.22715e-23 -8.67418e-23 1.16212e-22 1.57084e-23 4.92418e-23 8.04427e-23 4.21605e-23 7.49134e-23 -1.02548e-22 -5.01594e-23 7.01317e-24 1.37341e-23 6.72691e-23 0 0 1.13391 1.77328 1.59001 2.0933 2.19882 2.21759 2.3004 2.66958 2.63729 2.72965 2.29561 0.558168 0.00637684 3.95999e-07 1.68571e-12 -6.10116e-19 -7.75572e-23 -1.46497e-22 6.93933e-23 1.31847e-22 -6.27844e-23 -5.99306e-23 -1.1465e-22 5.49364e-23 7.91084e-23 2.53553e-23 0 -4.70884e-23 0 -1.31847e-22 -1.06329e-22 -4.12023e-23 -5.99307e-23 -4.84733e-23 3.76707e-23 1.83121e-23 1.78172e-23 1.38787e-22 -8.87435e-23 4.94428e-23 6.2306e-23 1.07911e-23 4.4556e-23 -3.74567e-24 9.3392e-23 -4.29938e-23 7.71448e-23 3.43353e-23 -6.72691e-23 0 0 1.08433 1.69574 1.52048 2.00176 2.10267 2.12062 2.19981 2.55285 2.52197 2.61029 2.19523 0.533761 0.00609801 3.78683e-07 1.61197e-12 -4.12419e-18 -7.75572e-23 1.46497e-22 -6.93933e-23 -1.31847e-22 -6.27844e-23 0 1.71975e-22 0 -5.2739e-23 1.01421e-22 0 -2.35442e-23 2.27323e-23 2.19746e-23 6.37971e-23 -2.06012e-23 1.99769e-23 -3.87787e-23 -3.76707e-23 -1.19029e-22 -5.34517e-23 -2.60225e-23 -6.76141e-23 -7.41642e-23 -1.20592e-23 -1.09873e-22 1.30314e-22 -6.18035e-23 -8.24047e-24 1.74662e-23 6.66251e-23 1.13306e-22 5.04519e-23 0 0 1.03368 1.61653 1.44946 1.90825 2.00445 2.02156 2.09705 2.4336 2.40416 2.48836 2.09269 0.508828 0.00581315 3.60994e-07 1.53676e-12 1.22307e-17 -7.75572e-23 -7.32485e-23 1.38787e-22 -6.59237e-23 -6.27844e-23 -5.99306e-23 -5.73249e-23 1.09873e-22 0 1.01421e-22 -9.76647e-23 7.06325e-23 2.27323e-23 1.09873e-22 2.12657e-23 0 -3.99538e-23 0 1.13012e-22 -5.49364e-23 -5.34517e-23 1.73484e-23 -1.69035e-23 -4.94428e-23 -4.01974e-23 9.41768e-23 -6.13244e-23 -2.62197e-23 -2.5637e-23 6.44906e-23 4.03257e-23 -6.86706e-23 -6.59027e-23 0 0 0.982007 1.53572 1.377 1.81286 1.90425 1.92051 1.99222 2.31195 2.28398 2.36397 1.98808 0.483392 0.00552256 3.42948e-07 1.4599e-12 1.19397e-17 -2.32672e-22 -2.19745e-22 6.93933e-23 -6.59237e-23 1.25569e-22 1.19861e-22 -1.1465e-22 0 -5.2739e-23 5.07105e-23 -4.88324e-23 -4.70884e-23 0 0 0 -4.12023e-23 -1.99769e-23 -7.75573e-23 3.76707e-23 -5.49364e-23 -5.34517e-23 -3.46967e-23 5.07106e-23 1.64809e-23 -9.64738e-23 -1.41265e-22 -6.899e-23 -2.99653e-23 -5.1274e-23 -7.16563e-23 5.61053e-23 3.77688e-23 -3.6998e-23 0 0 0.929365 1.45339 1.30318 1.71568 1.80217 1.81756 1.88542 2.18801 2.16154 2.23724 1.8815 0.457479 0.00522651 3.24564e-07 1.38162e-12 -1.10161e-18 1.55114e-22 -1.46497e-22 -1.38787e-22 -6.59237e-23 0 -5.99306e-23 1.1465e-22 0 1.58217e-22 -1.01421e-22 4.88324e-23 -4.70884e-23 -9.09293e-23 0 0 0 0 0 -3.76707e-23 0 0 0 0 0 -1.6079e-23 7.84807e-23 -4.59933e-23 -4.4948e-23 -4.39492e-23 -4.29938e-23 -4.90922e-23 3.43353e-23 -7.39961e-23 0 0 0.875806 1.36964 1.22808 1.61681 1.69831 1.71281 1.77677 2.06192 2.03697 2.10831 1.77307 0.431115 0.00492531 3.05859e-07 1.30205e-12 3.22942e-18 2.32672e-22 -7.32485e-23 0 1.97771e-22 -6.27844e-23 -5.99306e-23 1.71975e-22 5.49364e-23 1.05478e-22 1.01421e-22 4.88324e-23 4.70884e-23 0 0 0 4.12023e-23 7.99075e-23 7.75573e-23 -3.76707e-23 -9.15607e-23 -7.12689e-23 -3.46967e-23 -3.3807e-23 -3.29619e-23 -8.03948e-23 -3.13923e-23 -7.66555e-23 1.49827e-23 7.32486e-23 1.43313e-23 -1.40263e-23 3.43353e-23 0 0 0 0.821383 1.28453 1.15177 1.51634 1.59278 1.60638 1.66636 1.93379 1.91039 1.9773 1.66289 0.404325 0.00461925 2.86853e-07 1.22111e-12 -2.11591e-17 -1.55114e-22 1.46497e-22 0 1.31847e-22 -1.25569e-22 -5.99306e-23 1.1465e-22 0 1.05478e-22 -5.07105e-23 0 4.70884e-23 9.09293e-23 -8.78983e-23 -8.50629e-23 4.12023e-23 7.99075e-23 7.75573e-23 0 -3.66243e-23 7.12689e-23 -6.93934e-23 -1.01421e-22 -9.88856e-23 -4.82369e-23 -4.70884e-23 -1.07318e-22 -5.99307e-23 8.78983e-23 5.7325e-23 -1.26237e-22 -1.23607e-22 1.34538e-23 0 0 0.76615 1.19815 1.07432 1.41437 1.48567 1.49836 1.5543 1.80375 1.78193 1.84434 1.55107 0.377136 0.00430863 2.67564e-07 1.13901e-12 -1.39329e-17 0 -1.46497e-22 -6.93933e-23 1.31847e-22 -1.88353e-22 -1.19861e-22 5.73249e-23 5.49364e-23 1.05478e-22 0 -4.88324e-23 -4.70884e-23 0 1.31847e-22 4.25314e-23 0 3.99538e-23 0 0 0 7.12689e-23 6.93934e-23 6.76141e-23 6.59237e-23 0 0 6.13244e-23 0 1.46497e-23 1.00319e-22 4.2079e-23 -4.12023e-23 -2.69077e-23 0 0 0.71016 1.11059 0.995808 1.31101 1.3771 1.38886 1.44072 1.67194 1.65171 1.70955 1.43772 0.349576 0.00399376 2.4801e-07 1.05576e-12 8.06657e-18 7.75572e-23 7.32485e-23 0 6.59237e-23 6.27844e-23 0 5.73249e-23 -5.49364e-23 -5.2739e-23 5.07105e-23 0 -4.70884e-23 0 -4.39491e-23 0 -8.24047e-23 -3.99538e-23 -3.87787e-23 -7.53414e-23 -3.66243e-23 0 1.0409e-22 -3.3807e-23 3.29619e-23 9.64738e-23 -3.13923e-23 0 -2.99653e-23 -2.92994e-23 2.86625e-23 2.80527e-23 -2.74682e-23 -5.38153e-23 0 0 0.653469 1.02193 0.916315 1.20636 1.26717 1.27799 1.32571 1.53847 1.51986 1.57308 1.32295 0.32167 0.00367495 2.28212e-07 9.71513e-13 5.57186e-18 0 2.92994e-22 1.38787e-22 -6.59237e-23 -6.27844e-23 5.99306e-23 -5.73249e-23 -5.49364e-23 0 1.01421e-22 9.76647e-23 -4.70884e-23 -9.09293e-23 -4.39491e-23 0 1.23607e-22 1.19861e-22 0 -7.53414e-23 -3.66243e-23 -3.56345e-23 1.0409e-22 -6.76141e-23 -3.29619e-23 -3.21579e-23 -6.27845e-23 0 0 0 5.7325e-23 5.61053e-23 -5.49365e-23 -8.0723e-23 0 0 0.596134 0.932268 0.835917 1.10051 1.15599 1.16586 1.20939 1.40348 1.3865 1.43506 1.20688 0.293446 0.00335251 2.08189e-07 8.86203e-13 -2.00552e-17 -1.55114e-22 1.46497e-22 0 1.31847e-22 1.88353e-22 1.79792e-22 -1.1465e-22 0 5.2739e-23 5.07105e-23 0 -4.70884e-23 4.54646e-23 1.31847e-22 4.25314e-23 -8.24047e-23 -7.99075e-23 7.75573e-23 -1.13012e-22 -1.46497e-22 -7.12689e-23 -3.46967e-23 6.76141e-23 9.88856e-23 -6.43158e-23 6.27845e-23 -3.06622e-23 8.9896e-23 -5.85989e-23 -5.7325e-23 5.61053e-23 5.49365e-23 -1.07631e-22 0 0 0.53821 0.841683 0.754694 0.993579 1.04367 1.05258 1.09188 1.26711 1.25178 1.29562 1.08961 0.264933 0.00302676 1.8796e-07 8.00179e-13 2.28078e-17 -1.55114e-22 1.46497e-22 -1.38787e-22 -1.31847e-22 -1.25569e-22 0 -2.293e-22 -5.49364e-23 1.05478e-22 0 9.76647e-23 -1.41265e-22 4.54646e-23 -1.31847e-22 8.50629e-23 8.24047e-23 -1.19861e-22 3.87787e-23 7.53414e-23 7.32486e-23 7.12689e-23 3.46967e-23 -6.76141e-23 6.59237e-23 0 0 6.13244e-23 5.99307e-23 5.85989e-23 -8.59875e-23 2.80527e-23 5.49365e-23 0 0 0 0.479755 0.750268 0.672727 0.885666 0.930314 0.938255 0.97329 1.12949 1.11583 1.1549 0.971266 0.236159 0.00269802 1.67546e-07 7.13223e-13 -2.13887e-18 0 0 -2.77573e-22 0 0 -1.19861e-22 0 1.09873e-22 -1.05478e-22 -1.01421e-22 1.95329e-22 4.70884e-23 9.09293e-23 1.31847e-22 -8.50629e-23 -4.120