<?xml version="1.0"?>
<VTKFile type="PolyData">
	<PolyData>
		<Piece NumberOfPoints="2601" NumberOfPolys="2500">
			<Points>
				<DataArray type="Float32" NumberOfComponents="3" format="ascii">
 1e-06 0 0 0.272293 0 0 0.308321 0 0 0.344174 0 0 0.371787 0 0 0.395401 0 0 0.415046 0 0 0.432353 0 0 0.448407 0 0 0.46301 0 0 0.476224 0 0 0.487882 0 0 0.498759 0 0 0.509011 0 0 0.51839 0 0 0.526924 0 0 0.534632 0 0 0.54219 0 0 0.549158 0 0 0.555708 0 0 0.561727 0 0 0.567367 0 0 0.572809 0 0 0.577832 0 0 0.582606 0 0 0.58702 0 0 0.591155 0 0 0.595144 0 0 0.598975 0 0 0.60354 0 0 0.610463 0 0 0.62226 0 0 0.640089 0 0 0.660001 0 0 0.680001 0 0 0.700001 0 0 0.720001 0 0 0.740001 0 0 0.760001 0 0 0.780001 0 0 0.800001 0 0 0.820001 0 0 0.840001 0 0 0.860001 0 0 0.880001 0 0 0.900001 0 0 0.920001 0 0 0.940001 0 0 0.960001 0 0 0.980001 0 0 1 0 0 9.99507e-07 3.14108e-08 0 0.272159 0.00855294 0 0.308168 0.00968458 0 0.344004 0.0108108 0 0.371604 0.0116781 0 0.395206 0.0124198 0 0.414841 0.0130369 0 0.43214 0.0135805 0 0.448185 0.0140848 0 0.462781 0.0145435 0 0.475989 0.0149585 0 0.487641 0.0153247 0 0.498513 0.0156664 0 0.50876 0.0159884 0 0.518134 0.016283 0 0.526664 0.0165511 0 0.534368 0.0167932 0 0.541923 0.0170306 0 0.548887 0.0172495 0 0.555433 0.0174552 0 0.56145 0.0176443 0 0.567087 0.0178214 0 0.572526 0.0179924 0 0.577547 0.0181501 0 0.582318 0.0183001 0 0.58673 0.0184387 0 0.590863 0.0185686 0 0.59485 0.0186939 0 0.598679 0.0188142 0 0.603242 0.0189576 0 0.610162 0.0191751 0 0.621953 0.0195457 0 0.639773 0.0201057 0 0.659675 0.0207311 0 0.679665 0.0213593 0 0.699656 0.0219876 0 0.719646 0.0226158 0 0.739636 0.023244 0 0.759626 0.0238722 0 0.779616 0.0245004 0 0.799606 0.0251286 0 0.819596 0.0257569 0 0.839587 0.0263851 0 0.859577 0.0270133 0 0.879567 0.0276415 0 0.899557 0.0282697 0 0.919547 0.0288979 0 0.939537 0.0295261 0 0.959527 0.0301544 0 0.979517 0.0307826 0 0.999508 0.0314108 0 9.98027e-07 6.27905e-08 0 0.271756 0.0170974 0 0.307712 0.0193596 0 0.343495 0.0216109 0 0.371054 0.0233447 0 0.39462 0.0248274 0 0.414227 0.0260609 0 0.4315 0.0271477 0 0.447522 0.0281557 0 0.462096 0.0290726 0 0.475284 0.0299023 0 0.486919 0.0306344 0 0.497775 0.0313174 0 0.508007 0.0319611 0 0.517367 0.03255 0 0.525884 0.0330858 0 0.533577 0.0335698 0 0.54112 0.0340444 0 0.548074 0.0344819 0 0.554611 0.0348932 0 0.560618 0.0352711 0 0.566248 0.0356253 0 0.571679 0.035967 0 0.576691 0.0362824 0 0.581456 0.0365821 0 0.585861 0.0368593 0 0.589989 0.0371189 0 0.593969 0.0373694 0 0.597793 0.0376099 0 0.602349 0.0378966 0 0.609259 0.0383313 0 0.621032 0.039072 0 0.638826 0.0401915 0 0.658699 0.0414418 0 0.678659 0.0426976 0 0.69862 0.0439534 0 0.71858 0.0452092 0 0.738541 0.046465 0 0.758501 0.0477209 0 0.778462 0.0489767 0 0.798422 0.0502325 0 0.818383 0.0514883 0 0.838343 0.0527441 0 0.858304 0.0539999 0 0.878265 0.0552557 0 0.898225 0.0565115 0 0.918186 0.0577673 0 0.938146 0.0590232 0 0.958107 0.060279 0 0.978067 0.0615348 0 0.998028 0.0627906 0 9.95562e-07 9.41083e-08 0 0.271085 0.0256251 0 0.306952 0.0290155 0 0.342647 0.0323897 0 0.370137 0.0349883 0 0.393646 0.0372105 0 0.413204 0.0390593 0 0.430434 0.040688 0 0.446417 0.0421988 0 0.460955 0.043573 0 0.47411 0.0448166 0 0.485717 0.0459138 0 0.496546 0.0469374 0 0.506752 0.0479022 0 0.51609 0.0487848 0 0.524585 0.0495879 0 0.532259 0.0503133 0 0.539784 0.0510246 0 0.546721 0.0516803 0 0.553241 0.0522967 0 0.559234 0.0528632 0 0.564849 0.053394 0 0.570267 0.0539061 0 0.575267 0.0543788 0 0.58002 0.054828 0 0.584414 0.0552434 0 0.588532 0.0556326 0 0.592502 0.056008 0 0.596316 0.0563685 0 0.600861 0.0567981 0 0.607754 0.0574497 0 0.619498 0.0585598 0 0.637249 0.0602377 0 0.657072 0.0621116 0 0.676983 0.0639937 0 0.696894 0.0658759 0 0.716806 0.0677581 0 0.736717 0.0696402 0 0.756628 0.0715224 0 0.776539 0.0734046 0 0.796451 0.0752867 0 0.816362 0.0771689 0 0.836273 0.0790511 0 0.856184 0.0809332 0 0.876096 0.0828154 0 0.896007 0.0846976 0 0.915918 0.0865797 0 0.935829 0.0884619 0 0.95574 0.0903441 0 0.975652 0.0922262 0 0.995563 0.0941084 0 9.92115e-07 1.25333e-07 0 0.270146 0.0341274 0 0.305889 0.0386428 0 0.34146 0.0431365 0 0.368856 0.0465973 0 0.392283 0.0495568 0 0.411773 0.052019 0 0.428944 0.0541882 0 0.444871 0.0562002 0 0.459359 0.0580305 0 0.472468 0.0596866 0 0.484035 0.0611478 0 0.494826 0.0625111 0 0.504997 0.063796 0 0.514303 0.0649715 0 0.522769 0.066041 0 0.530416 0.0670071 0 0.537915 0.0679544 0 0.544828 0.0688277 0 0.551326 0.0696486 0 0.557297 0.070403 0 0.562893 0.07111 0 0.568292 0.071792 0 0.573275 0.0724215 0 0.578012 0.0730198 0 0.582391 0.0735731 0 0.586494 0.0740914 0 0.590451 0.0745913 0 0.594251 0.0750714 0 0.598781 0.0756436 0 0.60565 0.0765113 0 0.617353 0.0779899 0 0.635042 0.0802245 0 0.654797 0.0827201 0 0.674639 0.0852267 0 0.694481 0.0877334 0 0.714324 0.0902401 0 0.734166 0.0927467 0 0.754008 0.0952534 0 0.77385 0.09776 0 0.793693 0.100267 0 0.813535 0.102773 0 0.833377 0.10528 0 0.85322 0.107787 0 0.873062 0.110293 0 0.892904 0.1128 0 0.912747 0.115307 0 0.932589 0.117813 0 0.952431 0.12032 0 0.972273 0.122827 0 0.992116 0.125333 0 9.87688e-07 1.56434e-07 0 0.268941 0.0425961 0 0.304525 0.048232 0 0.339937 0.0538407 0 0.36721 0.0581604 0 0.390533 0.0618543 0 0.409936 0.0649275 0 0.42703 0.067635 0 0.442886 0.0701462 0 0.457309 0.0724307 0 0.470361 0.0744978 0 0.481875 0.0763216 0 0.492619 0.0780232 0 0.502744 0.0796269 0 0.512008 0.0810941 0 0.520436 0.082429 0 0.52805 0.0836348 0 0.535515 0.0848172 0 0.542397 0.0859072 0 0.548866 0.0869318 0 0.554811 0.0878734 0 0.560382 0.0887558 0 0.565757 0.0896071 0 0.570718 0.0903928 0 0.575433 0.0911396 0 0.579792 0.0918301 0 0.583877 0.092477 0 0.587816 0.093101 0 0.5916 0.0937003 0 0.596109 0.0944144 0 0.602948 0.0954975 0 0.614599 0.0973429 0 0.632209 0.100132 0 0.651875 0.103247 0 0.671629 0.106376 0 0.691383 0.109504 0 0.711137 0.112633 0 0.73089 0.115762 0 0.750644 0.11889 0 0.770398 0.122019 0 0.790152 0.125148 0 0.809905 0.128276 0 0.829659 0.131405 0 0.849413 0.134534 0 0.869167 0.137662 0 0.88892 0.140791 0 0.908674 0.14392 0 0.928428 0.147049 0 0.948182 0.150177 0 0.967936 0.153306 0 0.987689 0.156435 0 9.82287e-07 1.87381e-07 0 0.26747 0.0510227 0 0.302859 0.0577735 0 0.338078 0.0644918 0 0.365202 0.069666 0 0.388397 0.0740907 0 0.407694 0.0777718 0 0.424695 0.0810149 0 0.440464 0.084023 0 0.454808 0.0867593 0 0.467788 0.0892354 0 0.47924 0.09142 0 0.489925 0.0934582 0 0.499995 0.0953791 0 0.509208 0.0971366 0 0.51759 0.0987356 0 0.525162 0.10018 0 0.532586 0.101596 0 0.539431 0.102902 0 0.545864 0.104129 0 0.551777 0.105257 0 0.557317 0.106314 0 0.562663 0.107334 0 0.567597 0.108275 0 0.572286 0.109169 0 0.576622 0.109996 0 0.580684 0.110771 0 0.584602 0.111519 0 0.588365 0.112237 0 0.592849 0.113092 0 0.59965 0.114389 0 0.611238 0.1166 0 0.628752 0.119941 0 0.648311 0.123672 0 0.667956 0.127419 0 0.687602 0.131167 0 0.707248 0.134915 0 0.726894 0.138662 0 0.746539 0.14241 0 0.766185 0.146158 0 0.785831 0.149905 0 0.805477 0.153653 0 0.825122 0.1574 0 0.844768 0.161148 0 0.864414 0.164896 0 0.88406 0.168643 0 0.903705 0.172391 0 0.923351 0.176139 0 0.942997 0.179886 0 0.962642 0.183634 0 0.982288 0.187382 0 9.75917e-07 2.18143e-07 0 0.265736 0.0593989 0 0.300895 0.067258 0 0.335885 0.0750793 0 0.362833 0.0811029 0 0.385878 0.086254 0 0.40505 0.0905394 0 0.421941 0.0943149 0 0.437607 0.0978169 0 0.451859 0.101002 0 0.464755 0.103885 0 0.476132 0.106428 0 0.486748 0.108801 0 0.496752 0.111037 0 0.505906 0.113083 0 0.514234 0.114945 0 0.521756 0.116626 0 0.529132 0.118275 0 0.535932 0.119795 0 0.542324 0.121224 0 0.548199 0.122537 0 0.553703 0.123767 0 0.559014 0.124954 0 0.563916 0.12605 0 0.568575 0.127091 0 0.572882 0.128054 0 0.576918 0.128957 0 0.580811 0.129827 0 0.584549 0.130662 0 0.589005 0.131658 0 0.595761 0.133168 0 0.607274 0.135742 0 0.624674 0.139631 0 0.644106 0.143975 0 0.663624 0.148338 0 0.683143 0.1527 0 0.702661 0.157063 0 0.722179 0.161426 0 0.741698 0.165789 0 0.761216 0.170152 0 0.780734 0.174515 0 0.800253 0.178878 0 0.819771 0.183241 0 0.839289 0.187603 0 0.858808 0.191966 0 0.878326 0.196329 0 0.897844 0.200692 0 0.917363 0.205055 0 0.936881 0.209418 0 0.956399 0.213781 0 0.975918 0.218143 0 9.68583e-07 2.4869e-07 0 0.263739 0.0677166 0 0.298634 0.0766762 0 0.333361 0.0855927 0 0.360107 0.0924598 0 0.382978 0.0983322 0 0.402006 0.103218 0 0.41877 0.107522 0 0.434319 0.111514 0 0.448463 0.115146 0 0.461262 0.118432 0 0.472554 0.121331 0 0.48309 0.124036 0 0.493019 0.126586 0 0.502104 0.128918 0 0.510369 0.131041 0 0.517835 0.132958 0 0.525156 0.134837 0 0.531905 0.13657 0 0.538249 0.138199 0 0.544079 0.139696 0 0.549542 0.141098 0 0.554813 0.142452 0 0.559678 0.143701 0 0.564302 0.144888 0 0.568577 0.145986 0 0.572583 0.147014 0 0.576446 0.148006 0 0.580157 0.148959 0 0.584579 0.150094 0 0.591285 0.151816 0 0.602711 0.15475 0 0.61998 0.159184 0 0.639266 0.164136 0 0.658638 0.169109 0 0.678009 0.174083 0 0.697381 0.179057 0 0.716753 0.184031 0 0.736124 0.189005 0 0.755496 0.193978 0 0.774867 0.198952 0 0.794239 0.203926 0 0.813611 0.2089 0 0.832982 0.213874 0 0.852354 0.218847 0 0.871726 0.223821 0 0.891097 0.228795 0 0.910469 0.233769 0 0.929841 0.238743 0 0.949212 0.243716 0 0.968584 0.24869 0 9.60294e-07 2.78991e-07 0 0.261482 0.0759674 0 0.296078 0.0860187 0 0.330508 0.0960216 0 0.357025 0.103725 0 0.379701 0.110313 0 0.398566 0.115794 0 0.415186 0.120623 0 0.430602 0.125101 0 0.444625 0.129176 0 0.457315 0.132862 0 0.46851 0.136115 0 0.478955 0.139149 0 0.4888 0.14201 0 0.497807 0.144626 0 0.506001 0.147007 0 0.513403 0.149158 0 0.520662 0.151266 0 0.527353 0.15321 0 0.533642 0.155037 0 0.539423 0.156717 0 0.544839 0.15829 0 0.550065 0.159809 0 0.554888 0.16121 0 0.559472 0.162542 0 0.563711 0.163773 0 0.567683 0.164927 0 0.571513 0.16604 0 0.575192 0.167109 0 0.579576 0.168382 0 0.586224 0.170314 0 0.597552 0.173605 0 0.614674 0.178579 0 0.633795 0.184134 0 0.653001 0.189714 0 0.672207 0.195294 0 0.691412 0.200874 0 0.710618 0.206454 0 0.729824 0.212034 0 0.74903 
[...]
			<PointData Scalars="VitesseX">
				<DataArray Name="VitesseX" type="Float32" format="ascii">
 0 0.792562 0.746926 0.936951 0.925155 1.00262 1.05191 1.06584 1.15754 1.16991 1.22062 1.28705 1.30183 1.34722 1.38645 1.44977 1.44717 1.46065 1.50084 1.55787 1.56498 1.59219 1.58816 1.62029 1.67507 1.69572 1.7151 1.74003 1.71682 1.57049 1.19554 0.528989 0.0426448 0.000108864 3.24446e-09 7.83821e-14 2.53738e-23 0 0 0 0 0 0 0 0 0 0 0 0 0 0 0 0.792171 0.746558 0.936489 0.924698 1.00213 1.05139 1.06531 1.15697 1.16934 1.22002 1.28642 1.30119 1.34655 1.38576 1.44905 1.44645 1.45993 1.5001 1.5571 1.56421 1.5914 1.58738 1.61949 1.67424 1.69488 1.71425 1.73917 1.71598 1.56972 1.19495 0.528728 0.0426238 0.00010881 3.24286e-09 7.83444e-14 -4.89586e-22 0 0 0 4.63464e-22 4.5216e-22 -4.41394e-22 -4.31129e-22 0 0 4.03012e-22 -3.94437e-22 0 7.56676e-22 0 0 0.790998 0.745452 0.935103 0.923329 1.00064 1.04984 1.06373 1.15526 1.16761 1.21821 1.28451 1.29926 1.34456 1.38371 1.44691 1.44431 1.45777 1.49788 1.5548 1.56189 1.58904 1.58503 1.61709 1.67176 1.69237 1.71171 1.7366 1.71344 1.56739 1.19318 0.527946 0.0425607 0.000108649 3.23806e-09 7.82092e-14 2.07009e-23 0 0 0 0 0 -4.41394e-22 0 0 0 4.03012e-22 -7.88875e-22 0 0 0 0 0.789044 0.743611 0.932793 0.921049 0.998173 1.04724 1.06111 1.1524 1.16472 1.2152 1.28134 1.29605 1.34124 1.38029 1.44333 1.44074 1.45417 1.49418 1.55096 1.55804 1.58512 1.58112 1.6131 1.66763 1.68819 1.70748 1.73231 1.7092 1.56352 1.19023 0.526642 0.0424556 0.000108381 3.23006e-09 7.80034e-14 5.36329e-22 0 0 0 0 0 0 0 0 8.23936e-22 4.03012e-22 -3.94437e-22 0 0 0 0 0.786312 0.741036 0.929563 0.91786 0.994717 1.04362 1.05743 1.14841 1.16069 1.21099 1.2769 1.29157 1.33659 1.37551 1.43834 1.43575 1.44913 1.489 1.54559 1.55264 1.57963 1.57564 1.60752 1.66186 1.68235 1.70157 1.72631 1.70329 1.55811 1.18611 0.524818 0.0423086 0.000108006 3.21888e-09 7.77241e-14 2.27045e-23 0 4.87856e-22 0 0 0 0 0 -4.21331e-22 4.11968e-22 -8.06024e-22 0 -3.8622e-22 -3.78338e-22 0 0 0.782804 0.73773 0.925416 0.913765 0.990279 1.03896 1.05271 1.14329 1.15551 1.20559 1.27121 1.2858 1.33063 1.36938 1.43192 1.42935 1.44267 1.48236 1.53869 1.54571 1.57258 1.56861 1.60034 1.65444 1.67484 1.69398 1.71861 1.69569 1.55116 1.18082 0.522477 0.0421198 0.000107524 3.20452e-09 7.7386e-14 2.20358e-23 -5.01042e-22 -4.87856e-22 0 4.63464e-22 0 -4.41394e-22 0 0 4.11968e-22 0 7.88875e-22 -3.8622e-22 0 0 0 0.778523 0.733696 0.920355 0.908768 0.984863 1.03328 1.04696 1.13704 1.14919 1.199 1.26426 1.27877 1.32335 1.36189 1.42409 1.42153 1.43478 1.47425 1.53028 1.53726 1.56398 1.56003 1.59159 1.6454 1.66568 1.68472 1.70921 1.68641 1.54267 1.17436 0.51962 0.0418895 0.000106936 3.18699e-09 7.69208e-14 2.20363e-23 0 4.87856e-22 0 0 0 4.41394e-22 0 -4.21331e-22 -4.11968e-22 0 7.88875e-22 -3.8622e-22 3.78338e-22 0 0 0.773474 0.728938 0.914387 0.902874 0.978476 1.02658 1.04017 1.12966 1.14174 1.19122 1.25606 1.27048 1.31477 1.35306 1.41485 1.41231 1.42548 1.46469 1.52035 1.52729 1.55384 1.54992 1.58127 1.63473 1.65488 1.67379 1.69813 1.67548 1.53267 1.16674 0.51625 0.0416178 0.000106242 3.16632e-09 7.64166e-14 2.27035e-23 0 0 -4.75347e-22 0 0 -4.41394e-22 4.31129e-22 0 -4.11968e-22 -4.03012e-22 -3.94437e-22 0 0 0 0 0.767662 0.72346 0.907515 0.896089 0.971123 1.01886 1.03235 1.12118 1.13316 1.18227 1.24662 1.26093 1.30489 1.34289 1.40422 1.4017 1.41476 1.45369 1.50893 1.51581 1.54216 1.53827 1.56939 1.62244 1.64244 1.66121 1.68537 1.66289 1.52115 1.15798 0.51237 0.0413051 0.000105444 3.14253e-09 7.58123e-14 2.20358e-23 5.01042e-22 0 0 0 0 0 4.31129e-22 8.42661e-22 -4.11968e-22 0 0 0 3.78338e-22 0 0 0.761092 0.717268 0.899749 0.88842 0.962812 1.01014 1.02351 1.11158 1.12346 1.17215 1.23595 1.25014 1.29372 1.33139 1.3922 1.3897 1.40266 1.44125 1.49601 1.50284 1.52897 1.5251 1.55596 1.60856 1.62839 1.647 1.67094 1.64865 1.50813 1.14807 0.507985 0.0409516 0.000104541 3.11563e-09 7.51486e-14 2.2703e-23 5.01042e-22 -4.87856e-22 0 0 0 -8.82788e-22 -8.62258e-22 8.42661e-22 4.11968e-22 4.03012e-22 0 0 3.78338e-22 0 0 0.753771 0.710369 0.891094 0.879875 0.953551 1.00043 1.01367 1.10089 1.11266 1.16088 1.22406 1.23812 1.28128 1.31859 1.37881 1.37634 1.38916 1.42738 1.48162 1.48839 1.51426 1.51043 1.54099 1.59308 1.61272 1.63115 1.65487 1.6328 1.49363 1.13702 0.503099 0.0405576 0.000103536 3.08566e-09 7.44545e-14 2.07009e-23 0 0 4.75347e-22 -4.63464e-22 9.04319e-22 4.41394e-22 0 0 0 -4.03012e-22 -3.94437e-22 -3.8622e-22 3.78338e-22 0 0 0.745706 0.702768 0.88156 0.87046 0.943348 0.989723 1.00282 1.08911 1.10075 1.14846 1.21096 1.22487 1.26757 1.30448 1.36406 1.36161 1.3743 1.41211 1.46577 1.47246 1.49806 1.49427 1.5245 1.57604 1.59547 1.6137 1.63716 1.61533 1.47765 1.12486 0.497716 0.0401237 0.000102428 3.05265e-09 7.36553e-14 2.20351e-23 -5.01042e-22 4.87856e-22 4.75347e-22 -4.63464e-22 -4.5216e-22 -4.41394e-22 0 -4.21331e-22 4.11968e-22 4.03012e-22 -3.94437e-22 -3.8622e-22 7.56676e-22 0 0 0.736905 0.694474 0.871155 0.860187 0.932215 0.978042 0.990989 1.07625 1.08776 1.1349 1.19667 1.21041 1.25261 1.28908 1.34796 1.34554 1.35808 1.39544 1.44847 1.45508 1.48038 1.47664 1.50651 1.55744 1.57664 1.59466 1.61784 1.59626 1.46021 1.11158 0.491842 0.0396502 0.000101219 3.01662e-09 7.27425e-14 -2.34109e-22 -2.50521e-22 4.87856e-22 -4.75347e-22 0 -4.5216e-22 0 4.31129e-22 -4.21331e-22 -4.11968e-22 -4.03012e-22 -3.94437e-22 -3.8622e-22 0 0 0 0.727377 0.685495 0.859891 0.849065 0.920161 0.965396 0.978175 1.06234 1.07369 1.12023 1.1812 1.19476 1.23641 1.27242 1.33053 1.32814 1.34052 1.3774 1.42974 1.43627 1.46124 1.45754 1.48703 1.5373 1.55625 1.57404 1.59692 1.57562 1.44133 1.09721 0.485483 0.0391375 9.99105e-05 2.97762e-09 7.18096e-14 2.78179e-22 -2.50521e-22 0 4.75347e-22 4.63464e-22 0 0 0 0 8.23936e-22 0 3.94437e-22 0 -3.78338e-22 0 0 0.717131 0.675839 0.847779 0.837105 0.9072 0.951797 0.964397 1.04737 1.05857 1.10445 1.16456 1.17793 1.219 1.25449 1.31179 1.30943 1.32164 1.358 1.4096 1.41604 1.44065 1.43701 1.46608 1.51565 1.53433 1.55187 1.57443 1.55343 1.42102 1.08175 0.478644 0.0385862 9.85031e-05 2.93568e-09 7.0809e-14 2.77179e-22 2.50521e-22 -2.43928e-22 -2.37674e-22 0 0 4.41394e-22 0 0 0 -4.03012e-22 0 3.8622e-22 -3.78338e-22 0 0 0.706178 0.665516 0.83483 0.824319 0.893343 0.937259 0.949666 1.03138 1.0424 1.08758 1.14677 1.15994 1.20038 1.23533 1.29175 1.28943 1.30145 1.33726 1.38807 1.39441 1.41865 1.41506 1.44369 1.49249 1.5109 1.52816 1.55038 1.5297 1.39932 1.06523 0.471333 0.0379968 9.69985e-05 2.89084e-09 6.97019e-14 1.96986e-23 0 0 0 -4.63464e-22 -2.2608e-22 0 4.31129e-22 0 0 4.03012e-22 0 3.8622e-22 3.78338e-22 0 0 0.694527 0.654536 0.821057 0.810719 0.878605 0.921796 0.933999 1.01436 1.0252 1.06964 1.12785 1.1408 1.18057 1.21495 1.27044 1.26816 1.27998 1.3152 1.36517 1.3714 1.39524 1.39172 1.41987 1.46787 1.48597 1.50295 1.5248 1.50446 1.37623 1.04766 0.463557 0.03737 9.53983e-05 2.84314e-09 6.85169e-14 2.76844e-22 5.01042e-22 7.31785e-22 4.75347e-22 2.31732e-22 4.5216e-22 -4.41394e-22 -4.31129e-22 2.10665e-22 -4.11968e-22 -4.03012e-22 0 0 -3.78338e-22 0 0 0.682191 0.642911 0.806473 0.79632 0.862999 0.905424 0.917409 0.996345 1.00699 1.05064 1.10782 1.12054 1.1596 1.19337 1.24788 1.24564 1.25725 1.29183 1.34093 1.34704 1.37046 1.367 1.39465 1.4418 1.45958 1.47626 1.49772 1.47774 1.35179 1.02905 0.455323 0.0367062 9.37038e-05 2.79264e-09 6.73302e-14 -4.94259e-22 -5.01042e-22 0 -2.37674e-22 -2.31732e-22 6.7824e-22 2.20697e-22 0 0 0 4.03012e-22 3.94437e-22 3.8622e-22 -3.78338e-22 0 0 0.669182 0.630651 0.791094 0.781134 0.846542 0.888158 0.899914 0.977345 0.987792 1.0306 1.08669 1.09917 1.13749 1.17061 1.22408 1.22188 1.23327 1.2672 1.31535 1.32136 1.34433 1.34093 1.36806 1.41431 1.43174 1.4481 1.46916 1.44956 1.32601 1.00942 0.446641 0.0360062 9.19169e-05 2.73939e-09 6.6084e-14 5.3232e-22 7.51563e-22 -7.31785e-22 7.13021e-22 -6.95196e-22 4.5216e-22 -6.62091e-22 4.31129e-22 0 -4.11968e-22 -2.01506e-22 -1.97219e-22 0 -3.78338e-22 0 0 0.655513 0.617768 0.774934 0.765178 0.82925 0.870015 0.881532 0.95738 0.967614 1.00955 1.0645 1.07672 1.11426 1.1467 1.19907 1.19692 1.20808 1.24131 1.28848 1.29437 1.31687 1.31354 1.34011 1.38541 1.4025 1.41852 1.43915 1.41995 1.29892 0.988804 0.437517 0.0352707 9.00393e-05 2.68343e-09 6.4702e-14 2.00324e-23 -7.51563e-22 -2.43928e-22 -2.37674e-22 -2.31732e-22 4.5216e-22 -1.10349e-21 4.31129e-22 4.21331e-22 -4.11968e-22 2.01506e-22 -3.94437e-22 3.8622e-22 -3.78338e-22 0 0 0.641196 0.604276 0.75801 0.748466 0.811139 0.851014 0.862279 0.936471 0.946481 0.987502 1.04125 1.0532 1.08992 1.12166 1.17289 1.17078 1.18169 1.2142 1.26034 1.2661 1.28811 1.28485 1.31084 1.35516 1.37187 1.38754 1.40772 1.38894 1.27055 0.967208 0.427961 0.0345004 8.80728e-05 2.62482e-09 6.32661e-14 6.63231e-22 -2.50521e-22 -2.43928e-22 -2.37674e-22 2.31732e-22 9.04319e-22 0 -2.15565e-22 4.21331e-22 2.05984e-22 -4.03012e-22 -3.94437e-22 0 0 0 0 0.626247 0.590187 0.740337 0.731016 0.792227 0.831173 0.842175 0.914637 0.924414 0.964479 1.01697 1.02865 1.06451 1.09551 1.14554 1.14349 1.15414 1.1859 1.23096 1.23658 1.25807 1.2549 1.28028 1.32356 1.33988 1.35519 1.3749 1.35656 1.24093 0.944658 0.417984 0.033696 8.60194e-05 2.56363e-09 6.17355e-14 1.47604e-22 1.2526e-22 -1.21964e-22 2.37674e-22 -4.63464e-22 -6.7824e-22 8.82788e-22 0 -6.31996e-22 0 0 -1.97219e-22 -3.8622e-22 -3.78338e-22 0 0 0.610679 0.575516 0.721933 0.712844 0.772534 0.810511 0.82124 0.891901 0.901435 0.940504 0.991691 1.00308 1.03805 1.06827 1.11706 1.11506 1.12545 1.15642 1.20036 1.20584 1.2268 1.2237 1.24846 1.29066 1.30657 1.3215 1.34072 1.32284 1.21008 0.921176 0.407593 0.0328584 8.38812e-05 2.4999e-09 6.01257e-14 1.47604e-22 3.75781e-22 -9.75713e-22 5.94184e-22 2.31732e-22 0 -4.41394e-22 2.15565e-22 4.21331e-22 6.17952e-22 -2.01506e-22 5.91656e-22 5.7933e-22 -1.89169e-22 0 0 0.594509 0.560278 0.702818 0.693969 0.752078 0.78905 0.799495 0.868285 0.877566 0.915601 0.965433 0.976518 1.01056 1.03999 1.08749 1.08553 1.09565 1.1258 1.16858 1.17391 1.19432 1.1913 1.2154 1.25649 1.27198 1.28651 1.30522 1.28781 1.17804 0.896784 0.396801 0.0319884 8.16601e-05 2.43371e-09 5.8696e-14 2.75509e-22 2.50521e-22 -3.65892e-22 3.56511e-22 1.15866e-22 7.91279e-22 1.10349e-22 -4.31129e-22 -2.10665e-22 0 -6.04518e-22 -1.97219e-22 0 -1.89169e-22 0 0 0.577753 0.544486 0.683008 0.674409 0.73088 0.76681 0.77696 0.843811 0.852831 0.889794 0.938221 0.948994 0.982078 1.01068 1.05683 1.05494 1.06477 1.09406 1.13564 1.14082 1.16065 1.15772 1.18114 1.22107 1.23613 1.25025 1.26843 1.25151 1.14484 0.871508 0.385617 0.0310867 7.93585e-05 2.36511e-09 5.70613e-14 3.39628e-22 -1.87891e-22 -2.43928e-22 -2.37674e-22 -4.63464e-22 0 2.20697e-22 2.15565e-22 -2.10665e-22 0 0 -1.97219e-22 1.9311e-22 1.89169e-22 0 0 0.560426 0.528157 0.662525 0.654183 0.708961 0.743813 0.753659 0.818505 0.827255 0.863109 0.910084 0.920534 0.952625 0.980365 1.02514 1.0233 1.03284 1.06125 1.10158 1.10661 1.12585 1.123 1.14572 1.18445 1.19905 1.21276 1.23039 1.21398 1.11051 0.845371 0.374052 0.0301545 7.69785e-05 2.29418e-09 5.52972e-14 -1.76082e-22 2.50521e-22 -5.48839e-22 -5.94184e-23 -8.11061e-22 -3.3912e-22 3.31046e-22 2.15565e-22 -2.10665e-22 0 2.01506e-22 -9.86093e-23 -1.9311e-22 3.78338e-22 0 0 0.542546 0.511306 0.641387 0.633312 0.686342 0.720082 0.729614 0.792392 0.800862 0.835572 0.881049 0.891165 0.922232 0.949087 0.992434 0.990653 0.999886 1.02739 1.06644 1.0713 1.08993 1.08717 1.10917 1.14666 1.1608 1.17406 1.19113 1.17525 1.07508 0.8184 0.362118 0.0291924 7.45225e-05 2.22099e-09 5.35434e-14 -5.62761e-22 3.13151e-23 3.65892e-22 -2.37674e-22 3.47598e-22 2.2608e-22 1.10349e-22 -2.15565e-22 1.05333e-22 5.1496e-22 0 4.93047e-22 -5.7933e-22 4.72922e-22 0 0 0.524131 0.493951 0.619617 0.611816 0.663046 0.695641 0.704849 0.765496 0.773679 0.80721 0.851144 0.860917 0.890929 0.916873 0.958748 0.957028 0.965947 0.992522 1.03024 1.03494 1.05293 1.05027 1.07152 1.10774 1.1214 1.13421 1.1507 1.13536 1.03858 0.790622 0.349827 0.0282015 7.19931e-05 2.1456e-09 5.16605e-14 -3.45935e-22 1.2526e-22 1.21964e-22 5.94184e-22 -1.04279e-21 -2.826e-22 -2.75871e-22 5.92802e-22 -5.26663e-23 0 2.01506e-22 3.94437e-22 -7.7244e-22 7.56676e-22 0 0 0.505198 0.476109 0.597235 0.589716 0.639096 0.670513 0.679389 0.737845 0.745732 0.778052 0.820399 0.829819 0.858747 0.883754 0.924116 0.922458 0.931055 0.956671 0.993024 0.997556 1.0149 1.01233 1.03281 1.06773 1.08089 1.09324 1.10914 1.09434 1.00107 0.762063 0.337191 0.0271828 6.93925e-05 2.0681e-09 4.97818e-14 -9.49899e-22 5.48014e-23 5.14536e-23 -2.07964e-22 5.21397e-22 1.1304e-21 -4.41394e-22 -1.34728e-21 2.10665e-22 -2.5748e-22 -4.53388e-22 1.97219e-22 -3.8622e-22 0 0 0 0.485767 0.457796 0.574264 0.567034 0.614514 0.644723 0.653258 0.709465 0.717049 0.748127 0.788844 0.797902 0.825718 0.849762 0.888572 0.886978 0.895244 0.919875 0.95483 0.959188 0.975862 0.973397 0.993088 1.02666 1.03932 1.05119 1.06648 1.05225 0.962565 0.732752 0.324221 0.0261373 6.67235e-05 1.98855e-09 4.79326e-14 1.44015e-22 -1.56576e-22 -6.09821e-22 8.17003e-22 1.10435e-22 3.46185e-22 5.65536e-22 2.96401e-22 5.26663e-22 -7.20944e-22 -3.52635e-22 4.93047e-23 9.6555e-23 4.72922e-22 0 0 0.465856 0.439032 0.550726 0.543792 0.589327 0.618298 0.626482 0.680386 0.687659 0.717462 0.756511 0.765197 0.791873 0.814932 0.852152 0.850623 0.85855 0.882171 0.915694 0.919873 0.935864 0.933499 0.952384 0.984579 0.996719 1.00811 1.02277 1.00912 0.923112 0.702718 0.310932 0.025066 6.39887e-05 1.90705e-09 4.60412e-14 1.43347e-22 1.2526e-22 9.75713e-22 -6.23893e-22 3.47598e-22 4.3803e-22 7.58646e-23 3.13242e-22 -2.63332e-23 6.56574e-22 -3.02259e-22 5.42351e-22 2.41387e-22 -4.72922e-22 0 0 0.445486 0.419835 0.526645 0.520014 0.563557 0.591262 0.599088 0.650635 0.65759 0.68609 0.723431 0.731738 0.757247 0.779298 0.81489 0.813428 0.821009 0.843597 0.875653 0.87965 0.894942 0.89268 0.910739 0.941527 0.953135 0.964027 0.978043 0.964998 0.882747 0.671991 0.297336 0.02397 6.11907e-05 1.82366e-09 4.39946e-14 -8.2262e-22 -3.75781e-22 -1.82946e-22 -4.75347e-22 -5.21397e-22 -8.47799e-23 -7.7244e-22 9.16149e-22 -4.34497e-22 -5.7933e-23 1.22793e-22 4.68394e-22 7.96578e-22 3.54692e-22 0 0 0.424676 0.400223 0.502044 0.495723 0.537232 0.563642 0.571103 0.620242 0.626872 0.654041 0.689638 0.697556 0.721874 0.742895 0.776824 0.77543 0.782657 0.80419 0.834749 0.838559 0.853136 0.850981 0.868196 0.897545 0.908612 0.918995 0.932356 0.91992 0.841512 0.6406 0.283447 0.0228502 5.83323e-05 1.73847e-09 4.17772e-14 -3.72864e-22 -3.75781e-22 1.21964e-22 -1.18837e-22 -3.47598e-22 -2.826e-22 6.62091e-22 -4.31129e-22 -1.84332e-22 -1.80236e-22 4.53388e-22 2.83502e-22 -4.82775e-22 -4.63316e-22 0 0 0.403447 0.380216 0.476947 0.470942 0.510376 0.535466 0.542554 0.589237 0.595535 0.621346 0.655163 0.662686 0.685788 0.705758 0.737992 0.736667 0.743533 0.763989 0.793021 0.79664 0.810489 0.808441 0.824796 0.852678 0.863191 0.873055 0.885749 0.873934 0.799445 0.608577 0.269278 0.021708 5.54163e-05 1.65156e-09 3.98794e-14 -3.71865e-22 -3.75781e-22 -2.43928e-22 3.56511e-22 1.15866e-22 -6.7824e-22 -9.93137e-22 -4.8502e-22 -2.10665e-22 -3.60472e-22 -5.03765e-22 3.94437e-22 2.65526e-22 -2.60107e-22 0 0 0.38182 0.359834 0.45138 0.445697 0.483017 0.506762 0.51347 0.55765 0.563611 0.588038 0.620043 0.627162 0.649026 0.667925 0.698431 0.697177 0.703675 0.723035 0.75051 0.753935 0.767042 0.765104 0.780582 0.806969 0.816919 0.826254 0.838267 0.827086 0.75659 0.575954 0.254843 0.0205443 5.24456e-05 1.56303e-09 3.76727e-14 1.16855e-23 0 0 0 0 -1.1304e-22 5.51743e-22 -3.23347e-22 -3.15998e-22 -3.08976e-22 -3.02259e-22 -3.45133e-22 2.41387e-22 -5.20214e-22 0 0 0.359816 0.339097 0.425367 0.420012 0.455181 0.477557 0.483879 0.525513 0.53113 0.55415 0.58431 0.591019 0.611623 0.629433 0.658181 0.656999 0.663122 0.681367 0.707259 0.710486 0.722838 0.721011 0.735597 0.760464 0.76984 0.778637 0.789958 0.779422 0.712988 0.542762 0.240156 0.0193603 4.94232e-05 1.47295e-09 3.54976e-14 -6.30347e-22 -5.01042e-22 -2.43928e-22 -2.37674e-22 -2.31732e-22 -5.652e-22 -2.20697e-22 -5.38911e-22 1.05333e-22 5.1496e-22 1.00753e-22 -9.86093e-23 2.41387e-22 0 0 0 0.337456 0.318026 0.398935 0.393912 0.426896 0.447882 0.453811 0.492857 0.498126 0.519715 0.548001 0.554293 0.573616 0.59032 0.617281 0.616173 0.621916 0.639026 0.663309 0.666336 0.67792 0.676207 0.689887 0.713208 0.722002 0.730253 0.74087 0.730988 0.668683 0.509034 0.225233 0.0181573 4.6352e-05 1.38142e-09 3.33195e-14 -2.45462e-22 5.01042e-22 -4.87856e-22 -7.13021e-22 -6.95196e-22 -3.3912e-22 -3.31046e-22 -7.54476e-22 -4.21331e-22 6.17952e-22 4.03012e-22 -8.87484e-22 -8.68995e-22 9.45844e-23 0 0 0.314764 0.29664 0.372108 0.367423 0.398189 0.417764 0.423294 0.459715 0.464629 0.484767 0.51115 0.51702 0.535044 0.550624 0.575772 0.574739 0.580095 0.596055 0.618705 0.621529 0.632333 0.630736 0.643496 0.665249 0.673451 0.681147 0.69105 0.681833 0.623717 0.474804 0.210087 0.0169363 4.32351e-05 1.28853e-09 3.10476e-14 7.34527e-24 5.01042e-22 4.87856e-22 4.75347e-22 4.63464e-22 0 0 4.31129e-22 0 1.02992e-22 7.05271e-22 2.95828e-22 -2.89665e-22 -1.89169e-22 0 0 0.291761 0.274962 0.344915 0.340572 0.36909 0.387234 0.39236 0.426119 0.430674 0.44934 0.473796 0.479236 0.495943 0.510385 0.533695 0.532737 0.537702 0.552496 0.573491 0.576108 0.586123 0.584642 0.596469 0.616633 0.624236 0.631369 0.640549 0.632005 0.578137 0.440106 0.194734 0.0156986 4.00755e-05 1.19437e-09 2.88338e-14 -2.47798e-22 0 7.31785e-22 -2.37674e-22 2.31732e-22 6.7824e-22 -2.20697e-22 0 -2.10665e-22 -2.05984e-22 2.01506e-22 1.97219e-22 -1.9311e-22 -3.78338e-22 0 0 0.268471 0.253012 0.317381 0.313385 0.339626 0.356322 0.361039 0.392103 0.396295 0.41347 0.435974 0.44098 0.456353 0.469642 0.491091 0.49021 0.494778 0.508391 0.52771 0.530118 0.539334 0.537971 0.548854 0.567408 0.574404 0.580968 0.589415 0.581553 0.531985 0.404973 0.179189 0.0144454 3.68764e-05 1.09902e-09 2.65153e-14 -2.47133e-22 -2.50521e-22 7.31785e-22 -4.75347e-22 -2.31732e-22 -2.2608e-22 -4.41394e-22 0 0 0 4.03012e-22 3.94437e-22 -3.8622e-22 -5.67507e-22 0 0 0.244915 0.230813 0.289534 0.285889 0.309827 0.325058 0.329361 0.3577 0.361524 0.377192 0.397721 0.402288 0.416312 0.428435 0.448003 0.447199 0.451366 0.463785 0.481409 0.483606 0.492013 0.49077 0.500698 0.517624 0.524006 0.529994 0.5377 0.530528 0.485309 0.369441 0.163467 0.013178 3.36408e-05 1.00259e-09 2.41545e-14 -1.01824e-21 -5.01042e-22 -2.43928e-22 4.75347e-22 6.95196e-22 -4.5216e-22 4.41394e-22 -2.15565e-22 6.31996e-22 -4.11968e-22 -4.03012e-22 3.94437e-22 3.8622e-22 -7.56676e-22 0 0 0.221118 0.208386 0.261401 0.25811 0.279723 0.293474 0.297359 0.322944 0.326396 0.340542 0.359076 0.363199 0.375861 0.386806 0.404472 0.403746 0.407509 0.418721 0.434632 0.436616 0.444206 0.443084 0.452047 0.467329 0.47309 0.478497 0.485454 0.478978 0.438153 0.333544 0.147583 0.0118975 3.03721e-05 9.05176e-10 2.18781e-14 5.19634e-22 5.01042e-22 2.43928e-22 -4.75347e-22 4.63464e-22 0 0 4.31129e-22 4.21331e-22 4.11968e-22 -6.04518e-22 1.97219e-22 3.8622e-22 0 0 0 0.197102 0.185753 0.23301 0.230077 0.249342 0.2616 0.265062 0.287869 0.290946 0.303556 0.320077 0.323752 0.335039 0.344795 0.360542 0.359895 0.36325 0.373243 0.387427 0.389195 0.395961 0.39496 0.40295 0.416572 0.421708 0.426527 0.432729 0.426957 0.390565 0.297318 0.131554 0.0106053 2.70734e-05 8.06864e-10 1.94324e-14 -2.50135e-22 -5.01042e-22 -2.43928e-22 -2.37674e-22 -2.31732e-22 -4.5216e-22 -2.20697e-22 -4.31129e-22 -4.21331e-22 0 -2.01506e-22 3.94437e-22 -1.9311e-22 1.89169e-22 0 0 0.172892 0.162937 0.20439 0.201816 0.218715 0.229467 0.232505 0.25251 0.255209 0.26627 0.280762 0.283986 0.293886 0.302444 0.316257 0.315689 0.318632 0.327398 0.339839 0.34139 0.347325 0.346447 0.353456 0.365404 0.36991 0.374137 0.379576 0.374513 0.342592 0.260798 0.115395 0.00930268 2.37479e-05 7.07757e-10 1.71153e-14 -5.06282e-22 2.50521e-22 0 -2.37674e-22 2.31732e-22 0 2.20697e-22 2.15565e-22 -2.10665e-22 -2.05984e-22 -2.01506e-22 0 -1.9311e-22 -1.89169e-22 0 0 0.148511 0.13996 0.175567 0.173357 0.187873 0.197108 0.199718 0.216902 0.21922 0.228721 0.24117 0.243939 0.252443 0.259794 0.271659 0.271172 0.273699 0.28122