<?xml version="1.0"?>
<VTKFile type="PolyData">
	<PolyData>
		<Piece NumberOfPoints="2601" NumberOfPolys="2500">
			<Points>
				<DataArray type="Float32" NumberOfComponents="3" format="ascii">
 1e-06 0 0 0.27151 0 0 0.309523 0 0 0.344331 0 0 0.371845 0 0 0.394595 0 0 0.413798 0 0 0.431926 0 0 0.448403 0 0 0.462984 0 0 0.476079 0 0 0.487689 0 0 0.498592 0 0 0.50886 0 0 0.518198 0 0 0.526683 0 0 0.534336 0 0 0.541828 0 0 0.548749 0 0 0.555272 0 0 0.56128 0 0 0.566946 0 0 0.572436 0 0 0.577526 0 0 0.582349 0 0 0.586799 0 0 0.590962 0 0 0.594979 0 0 0.598823 0 0 0.603394 0 0 0.610336 0 0 0.622194 0 0 0.640084 0 0 0.660001 0 0 0.680001 0 0 0.700001 0 0 0.720001 0 0 0.740001 0 0 0.760001 0 0 0.780001 0 0 0.800001 0 0 0.820001 0 0 0.840001 0 0 0.860001 0 0 0.880001 0 0 0.900001 0 0 0.920001 0 0 0.940001 0 0 0.960001 0 0 0.980001 0 0 1 0 0 9.99507e-07 3.14108e-08 0 0.271376 0.00852834 0 0.309371 0.00972236 0 0.344161 0.0108157 0 0.371662 0.0116799 0 0.3944 0.0123945 0 0.413594 0.0129977 0 0.431712 0.0135671 0 0.448181 0.0140847 0 0.462755 0.0145427 0 0.475844 0.014954 0 0.487448 0.0153187 0 0.498346 0.0156611 0 0.508609 0.0159837 0 0.517942 0.016277 0 0.526423 0.0165435 0 0.534072 0.0167839 0 0.541561 0.0170192 0 0.548478 0.0172366 0 0.554998 0.0174415 0 0.561003 0.0176302 0 0.566666 0.0178082 0 0.572154 0.0179807 0 0.577241 0.0181405 0 0.582061 0.018292 0 0.586509 0.0184318 0 0.59067 0.0185626 0 0.594686 0.0186888 0 0.598527 0.0188095 0 0.603096 0.0189531 0 0.610035 0.0191711 0 0.621887 0.0195436 0 0.639768 0.0201055 0 0.659675 0.0207311 0 0.679665 0.0213593 0 0.699656 0.0219876 0 0.719646 0.0226158 0 0.739636 0.023244 0 0.759626 0.0238722 0 0.779616 0.0245004 0 0.799606 0.0251286 0 0.819596 0.0257569 0 0.839587 0.0263851 0 0.859577 0.0270133 0 0.879567 0.0276415 0 0.899557 0.0282697 0 0.919547 0.0288979 0 0.939537 0.0295261 0 0.959527 0.0301544 0 0.979517 0.0307826 0 0.999508 0.0314108 0 9.98027e-07 6.27905e-08 0 0.270974 0.0170483 0 0.308913 0.0194351 0 0.343652 0.0216207 0 0.371111 0.0233484 0 0.393816 0.0247768 0 0.412982 0.0259826 0 0.431073 0.0271208 0 0.447518 0.0281554 0 0.46207 0.029071 0 0.47514 0.0298933 0 0.486727 0.0306222 0 0.497608 0.0313068 0 0.507856 0.0319516 0 0.517175 0.0325379 0 0.525644 0.0330707 0 0.533281 0.0335512 0 0.540759 0.0340217 0 0.547666 0.0344562 0 0.554176 0.0348658 0 0.560173 0.0352431 0 0.565827 0.0355988 0 0.571307 0.0359436 0 0.576386 0.0362631 0 0.5812 0.036566 0 0.585641 0.0368454 0 0.589796 0.0371068 0 0.593805 0.0373591 0 0.597641 0.0376004 0 0.602204 0.0378874 0 0.609132 0.0383233 0 0.620967 0.0390679 0 0.638821 0.0401912 0 0.658699 0.0414418 0 0.678659 0.0426976 0 0.69862 0.0439534 0 0.71858 0.0452092 0 0.738541 0.046465 0 0.758501 0.0477209 0 0.778462 0.0489767 0 0.798422 0.0502325 0 0.818383 0.0514883 0 0.838343 0.0527441 0 0.858304 0.0539999 0 0.878265 0.0552557 0 0.898225 0.0565115 0 0.918186 0.0577673 0 0.938146 0.0590232 0 0.958107 0.060279 0 0.978067 0.0615348 0 0.998028 0.0627906 0 9.95562e-07 9.41083e-08 0 0.270305 0.0255513 0 0.30815 0.0291287 0 0.342803 0.0324044 0 0.370195 0.0349937 0 0.392844 0.0371346 0 0.411962 0.0389418 0 0.430009 0.0406478 0 0.446413 0.0421984 0 0.460929 0.0435706 0 0.473966 0.044803 0 0.485524 0.0458956 0 0.496379 0.0469216 0 0.506602 0.047888 0 0.515898 0.0487667 0 0.524346 0.0495653 0 0.531964 0.0502854 0 0.539424 0.0509906 0 0.546313 0.0516418 0 0.552807 0.0522557 0 0.558789 0.0528211 0 0.564429 0.0533543 0 0.569896 0.053871 0 0.574963 0.05435 0 0.579764 0.0548039 0 0.584194 0.0552226 0 0.588339 0.0556144 0 0.592339 0.0559925 0 0.596165 0.0563542 0 0.600716 0.0567844 0 0.607628 0.0574377 0 0.619433 0.0585537 0 0.637243 0.0602372 0 0.657072 0.0621116 0 0.676983 0.0639937 0 0.696894 0.0658759 0 0.716806 0.0677581 0 0.736717 0.0696402 0 0.756628 0.0715224 0 0.776539 0.0734046 0 0.796451 0.0752867 0 0.816362 0.0771689 0 0.836273 0.0790511 0 0.856184 0.0809332 0 0.876096 0.0828154 0 0.896007 0.0846976 0 0.915918 0.0865797 0 0.935829 0.0884619 0 0.95574 0.0903441 0 0.975652 0.0922262 0 0.995563 0.0941084 0 9.92115e-07 1.25333e-07 0 0.269369 0.0340292 0 0.307083 0.0387936 0 0.341616 0.0431561 0 0.368913 0.0466046 0 0.391483 0.0494558 0 0.410535 0.0518627 0 0.42852 0.0541346 0 0.444867 0.0561998 0 0.459333 0.0580272 0 0.472325 0.0596685 0 0.483843 0.0611236 0 0.49466 0.0624901 0 0.504848 0.0637771 0 0.514111 0.0649474 0 0.52253 0.0660109 0 0.530122 0.06697 0 0.537556 0.0679091 0 0.544422 0.0687765 0 0.550893 0.069594 0 0.556854 0.070347 0 0.562475 0.0710571 0 0.567922 0.0717453 0 0.572972 0.0723832 0 0.577757 0.0729877 0 0.582172 0.0735454 0 0.586302 0.0740672 0 0.590288 0.0745707 0 0.594101 0.0750524 0 0.598636 0.0756253 0 0.605524 0.0764954 0 0.617288 0.0779816 0 0.635037 0.0802238 0 0.654797 0.0827201 0 0.674639 0.0852267 0 0.694481 0.0877334 0 0.714324 0.0902401 0 0.734166 0.0927467 0 0.754008 0.0952534 0 0.77385 0.09776 0 0.793693 0.100267 0 0.813535 0.102773 0 0.833377 0.10528 0 0.85322 0.107787 0 0.873062 0.110293 0 0.892904 0.1128 0 0.912747 0.115307 0 0.932589 0.117813 0 0.952431 0.12032 0 0.972273 0.122827 0 0.992116 0.125333 0 9.87688e-07 1.56434e-07 0 0.268167 0.0424735 0 0.305713 0.0484201 0 0.340092 0.0538652 0 0.367267 0.0581694 0 0.389737 0.0617282 0 0.408704 0.0647323 0 0.426608 0.0675681 0 0.442882 0.0701456 0 0.457284 0.0724266 0 0.470218 0.0744752 0 0.481685 0.0762913 0 0.492453 0.0779969 0 0.502595 0.0796033 0 0.511818 0.081064 0 0.520199 0.0823914 0 0.527757 0.0835885 0 0.535158 0.0847606 0 0.541993 0.0858432 0 0.548435 0.0868636 0 0.55437 0.0878035 0 0.559965 0.0886898 0 0.565388 0.0895487 0 0.570416 0.0903449 0 0.575179 0.0910994 0 0.579574 0.0917955 0 0.583686 0.0924468 0 0.587654 0.0930753 0 0.59145 0.0936765 0 0.595965 0.0943916 0 0.602822 0.0954776 0 0.614534 0.0973327 0 0.632203 0.100131 0 0.651875 0.103247 0 0.671629 0.106376 0 0.691383 0.109504 0 0.711137 0.112633 0 0.73089 0.115762 0 0.750644 0.11889 0 0.770398 0.122019 0 0.790152 0.125148 0 0.809905 0.128276 0 0.829659 0.131405 0 0.849413 0.134534 0 0.869167 0.137662 0 0.88892 0.140791 0 0.908674 0.14392 0 0.928428 0.147049 0 0.948182 0.150177 0 0.967936 0.153306 0 0.987689 0.156435 0 9.82287e-07 1.87381e-07 0 0.266701 0.0508759 0 0.304041 0.0579989 0 0.338232 0.0645212 0 0.365259 0.0696768 0 0.387605 0.0739397 0 0.406469 0.077538 0 0.424275 0.0809348 0 0.44046 0.0840223 0 0.454783 0.0867545 0 0.467646 0.0892083 0 0.479051 0.0913838 0 0.48976 0.0934268 0 0.499847 0.0953509 0 0.509019 0.0971006 0 0.517354 0.0986906 0 0.524871 0.100125 0 0.532231 0.101529 0 0.539029 0.102825 0 0.545436 0.104048 0 0.551338 0.105173 0 0.556903 0.106235 0 0.562297 0.107264 0 0.567296 0.108218 0 0.572034 0.109121 0 0.576405 0.109955 0 0.580494 0.110735 0 0.584441 0.111488 0 0.588216 0.112208 0 0.592706 0.113065 0 0.599526 0.114366 0 0.611174 0.116588 0 0.628746 0.11994 0 0.648311 0.123672 0 0.667956 0.127419 0 0.687602 0.131167 0 0.707248 0.134915 0 0.726894 0.138662 0 0.746539 0.14241 0 0.766185 0.146158 0 0.785831 0.149905 0 0.805477 0.153653 0 0.825122 0.1574 0 0.844768 0.161148 0 0.864414 0.164896 0 0.88406 0.168643 0 0.903705 0.172391 0 0.923351 0.176139 0 0.942997 0.179886 0 0.962642 0.183634 0 0.982288 0.187382 0 9.75917e-07 2.18143e-07 0 0.264971 0.0592281 0 0.302069 0.0675204 0 0.336038 0.0751135 0 0.36289 0.0811155 0 0.385092 0.0860782 0 0.403832 0.0902673 0 0.421523 0.0942217 0 0.437604 0.097816 0 0.451833 0.100997 0 0.464614 0.103853 0 0.475944 0.106386 0 0.486584 0.108764 0 0.496605 0.111004 0 0.505718 0.113041 0 0.513999 0.114892 0 0.521467 0.116562 0 0.528779 0.118196 0 0.535533 0.119706 0 0.541899 0.121129 0 0.547763 0.122439 0 0.553292 0.123675 0 0.55865 0.124873 0 0.563617 0.125983 0 0.568324 0.127035 0 0.572667 0.128006 0 0.57673 0.128914 0 0.58065 0.129791 0 0.584401 0.130629 0 0.588863 0.131626 0 0.595637 0.133141 0 0.60721 0.135728 0 0.624668 0.13963 0 0.644106 0.143975 0 0.663624 0.148338 0 0.683143 0.1527 0 0.702661 0.157063 0 0.722179 0.161426 0 0.741698 0.165789 0 0.761216 0.170152 0 0.780734 0.174515 0 0.800253 0.178878 0 0.819771 0.183241 0 0.839289 0.187603 0 0.858808 0.191966 0 0.878326 0.196329 0 0.897844 0.200692 0 0.917363 0.205055 0 0.936881 0.209418 0 0.956399 0.213781 0 0.975918 0.218143 0 9.68583e-07 2.4869e-07 0 0.26298 0.0675218 0 0.299799 0.0769753 0 0.333513 0.0856316 0 0.360163 0.0924741 0 0.382198 0.0981317 0 0.400798 0.102907 0 0.418356 0.107416 0 0.434315 0.111513 0 0.448438 0.115139 0 0.461122 0.118396 0 0.472367 0.121283 0 0.482928 0.123995 0 0.492874 0.126548 0 0.501917 0.128871 0 0.510137 0.130981 0 0.517548 0.132884 0 0.524806 0.134747 0 0.531509 0.136468 0 0.537827 0.13809 0 0.543646 0.139585 0 0.549134 0.140994 0 0.554452 0.142359 0 0.559382 0.143625 0 0.564053 0.144824 0 0.568363 0.145931 0 0.572396 0.146966 0 0.576287 0.147965 0 0.58001 0.148921 0 0.584437 0.150058 0 0.591161 0.151784 0 0.602647 0.154733 0 0.619974 0.159182 0 0.639266 0.164136 0 0.658638 0.169109 0 0.678009 0.174083 0 0.697381 0.179057 0 0.716753 0.184031 0 0.736124 0.189005 0 0.755496 0.193978 0 0.774867 0.198952 0 0.794239 0.203926 0 0.813611 0.2089 0 0.832982 0.213874 0 0.852354 0.218847 0 0.871726 0.223821 0 0.891097 0.228795 0 0.910469 0.233769 0 0.929841 0.238743 0 0.949212 0.243716 0 0.968584 0.24869 0 9.60294e-07 2.78991e-07 0 0.260729 0.0757489 0 0.297233 0.0863543 0 0.330659 0.0960653 0 0.357081 0.103742 0 0.378927 0.110088 0 0.397368 0.115446 0 0.414775 0.120503 0 0.430598 0.1251 0 0.4446 0.129168 0 0.457176 0.132822 0 0.468325 0.136061 0 0.478795 0.139103 0 0.488655 0.141967 0 0.497622 0.144573 0 0.505771 0.14694 0 0.513119 0.149075 0 0.520314 0.151165 0 0.52696 0.153096 0 0.533224 0.154916 0 0.538994 0.156592 0 0.544434 0.158173 0 0.549707 0.159705 0 0.554594 0.161125 0 0.559226 0.16247 0 0.563499 0.163712 0 0.567497 0.164873 0 0.571355 0.165994 0 0.575046 0.167066 0 0.579436 0.168342 0 0.586102 0.170278 0 0.597489 0.173587 0 0.614668 0.178578 0 0.633795 0.184134 0 0.653001 0.189714 0 0.672207 0.195294 0 0.691412 0.200874 0 0.710618 0.206454 0 0.729
[...]
			<PointData Scalars="VitesseX">
				<DataArray Name="VitesseX" type="Float32" format="ascii">
 0 0.826017 0.715504 0.956988 0.921971 1.00632 1.05186 1.06675 1.16598 1.16934 1.22176 1.29026 1.30115 1.35117 1.38914 1.45334 1.45111 1.46842 1.50308 1.5634 1.56274 1.59112 1.58201 1.61617 1.67285 1.69162 1.70883 1.73157 1.70953 1.56384 1.18754 0.517763 0.0402332 9.62177e-05 2.82018e-09 6.8216e-14 0 0 0 0 0 0 0 0 0 0 0 0 0 0 0 0 0.825609 0.715151 0.956516 0.921516 1.00583 1.05134 1.06622 1.1654 1.16876 1.22116 1.28962 1.30051 1.35051 1.38845 1.45262 1.4504 1.4677 1.50234 1.56263 1.56197 1.59034 1.58123 1.61537 1.67202 1.69078 1.70799 1.73072 1.70869 1.56307 1.18696 0.517508 0.0402134 9.61702e-05 2.81879e-09 6.8182e-14 -5.15207e-22 0 0 0 4.63686e-22 4.52377e-22 -4.41606e-22 -4.31336e-22 0 0 4.03205e-22 -3.94627e-22 0 7.57039e-22 0 0 0.824387 0.714092 0.9551 0.920152 1.00434 1.04979 1.06464 1.16368 1.16703 1.21935 1.28771 1.29858 1.34851 1.3864 1.45047 1.44825 1.46553 1.50012 1.56031 1.55966 1.58798 1.57889 1.61298 1.66955 1.68828 1.70546 1.72815 1.70616 1.56075 1.1852 0.516741 0.0401538 9.60278e-05 2.81462e-09 6.80802e-14 0 0 0 0 0 0 -4.41606e-22 0 0 0 4.03205e-22 -7.89253e-22 0 0 0 0 0.822351 0.712328 0.952741 0.917879 1.00186 1.04719 1.06202 1.1608 1.16415 1.21634 1.28453 1.29538 1.34518 1.38297 1.44689 1.44467 1.46191 1.49641 1.55646 1.5558 1.58406 1.57499 1.609 1.66542 1.68411 1.70125 1.72389 1.70195 1.5569 1.18227 0.515465 0.0400547 9.57907e-05 2.80767e-09 6.79168e-14 5.15207e-22 0 0 0 0 0 0 0 0 8.24331e-22 4.03205e-22 -3.94627e-22 0 0 0 0 0.819503 0.709862 0.949442 0.914701 0.998389 1.04357 1.05834 1.15678 1.16011 1.21213 1.28008 1.29089 1.34052 1.37818 1.44188 1.43967 1.45685 1.49123 1.55107 1.55042 1.57858 1.56954 1.60342 1.65966 1.67828 1.69536 1.71792 1.69605 1.55151 1.17818 0.51368 0.039916 9.5459e-05 2.79795e-09 6.77051e-14 0 0 4.88091e-22 0 0 0 0 0 -4.21533e-22 4.12166e-22 -8.06411e-22 0 -3.86405e-22 -3.78519e-22 0 0 0.815847 0.706695 0.945206 0.91062 0.993934 1.03891 1.05362 1.15162 1.15494 1.20672 1.27437 1.28513 1.33454 1.37203 1.43544 1.43325 1.45035 1.48458 1.54415 1.5435 1.57153 1.56253 1.59627 1.65225 1.67079 1.68779 1.71025 1.68849 1.54458 1.17292 0.511389 0.0397379 9.50331e-05 2.78546e-09 6.74154e-14 0 -5.01282e-22 -4.88091e-22 0 4.63686e-22 0 -4.41606e-22 0 0 4.12166e-22 0 7.89253e-22 -3.86405e-22 0 0 0 0.811386 0.70283 0.940037 0.90564 0.988499 1.03323 1.04785 1.14532 1.14862 1.20012 1.2674 1.2781 1.32724 1.36453 1.42759 1.42541 1.44241 1.47646 1.53571 1.53506 1.56294 1.55399 1.58754 1.64322 1.66165 1.67856 1.7009 1.67925 1.53614 1.16651 0.508592 0.0395206 9.45134e-05 2.77023e-09 6.7039e-14 0 0 4.88091e-22 0 0 0 4.41606e-22 0 -4.21533e-22 -4.12166e-22 0 7.89253e-22 -3.86405e-22 3.78519e-22 0 0 0.806124 0.698272 0.933941 0.899767 0.982088 1.02653 1.04106 1.1379 1.14117 1.19234 1.25918 1.26981 1.31863 1.35568 1.41833 1.41617 1.43306 1.46688 1.52575 1.5251 1.5528 1.54391 1.57725 1.63256 1.65088 1.66768 1.68987 1.66836 1.52617 1.15894 0.505294 0.0392643 9.39005e-05 2.75226e-09 6.65944e-14 0 0 0 -4.75576e-22 0 0 -4.41606e-22 4.31336e-22 0 -4.12166e-22 -4.03205e-22 -3.94627e-22 0 0 0 0 0.800066 0.693025 0.926923 0.893006 0.974708 1.01882 1.03324 1.12934 1.1326 1.18338 1.24972 1.26027 1.30872 1.3455 1.40768 1.40553 1.42229 1.45586 1.51428 1.51364 1.54114 1.53231 1.56539 1.62029 1.63847 1.65515 1.67717 1.65582 1.51471 1.15023 0.501497 0.0389692 9.31948e-05 2.73158e-09 6.61019e-14 0 5.01282e-22 0 0 0 0 0 4.31336e-22 8.43066e-22 -4.12166e-22 0 0 0 3.78519e-22 0 0 0.793219 0.687094 0.91899 0.885363 0.966366 1.0101 1.02439 1.11968 1.12291 1.17325 1.23903 1.24949 1.29752 1.33398 1.39563 1.3935 1.41012 1.4434 1.50132 1.50069 1.52795 1.5192 1.552 1.60642 1.62445 1.64098 1.66282 1.64165 1.50174 1.14039 0.497205 0.0386357 9.23972e-05 2.7082e-09 6.55315e-14 0 5.01282e-22 -4.88091e-22 0 0 0 -8.83212e-22 -8.62672e-22 8.43066e-22 4.12166e-22 4.03205e-22 0 0 3.78519e-22 0 0 0.785589 0.680484 0.91015 0.876847 0.957071 1.00038 1.01454 1.10891 1.1121 1.16197 1.22711 1.23747 1.28504 1.32115 1.3822 1.38009 1.39655 1.42952 1.48688 1.48625 1.51325 1.50458 1.53707 1.59097 1.60882 1.62519 1.64682 1.62586 1.4873 1.12942 0.492422 0.0382641 9.15085e-05 2.68215e-09 6.49548e-14 0 0 0 4.75576e-22 -4.63686e-22 9.04754e-22 4.41606e-22 0 0 0 -4.03205e-22 -3.94627e-22 -3.86405e-22 3.78519e-22 0 0 0.777183 0.673204 0.900412 0.867465 0.946831 0.989677 1.00368 1.09704 1.10021 1.14954 1.21398 1.22423 1.27129 1.30701 1.36742 1.36533 1.38161 1.41422 1.47097 1.47035 1.49706 1.48848 1.52062 1.57395 1.59161 1.60781 1.6292 1.60847 1.47138 1.11733 0.487153 0.0378547 9.05294e-05 2.65346e-09 6.42805e-14 0 -5.01282e-22 4.88091e-22 4.75576e-22 -4.63686e-22 -4.52377e-22 -4.41606e-22 0 -4.21533e-22 4.12166e-22 4.03205e-22 -3.94627e-22 -3.86405e-22 7.57039e-22 0 0 0.768011 0.665258 0.889785 0.857227 0.935656 0.977997 0.991839 1.0841 1.08722 1.13597 1.19965 1.20978 1.25629 1.29159 1.35128 1.34921 1.36531 1.39753 1.45361 1.453 1.47939 1.47092 1.50268 1.55537 1.57283 1.58883 1.60997 1.58948 1.45402 1.10415 0.481404 0.0374079 8.94609e-05 2.62214e-09 6.3466e-14 -2.57603e-22 -2.50641e-22 4.88091e-22 -4.75576e-22 0 -4.52377e-22 0 4.31336e-22 -4.21533e-22 -4.12166e-22 -4.03205e-22 -3.94627e-22 -3.86405e-22 0 0 0 0.758081 0.656657 0.87828 0.846143 0.923558 0.965352 0.979015 1.07008 1.07316 1.12128 1.18414 1.19414 1.24005 1.27489 1.33381 1.33177 1.34765 1.37946 1.43482 1.43421 1.46026 1.4519 1.48325 1.53526 1.55249 1.56829 1.58916 1.56893 1.43522 1.08987 0.475179 0.0369242 8.83042e-05 2.58824e-09 6.26722e-14 2.57603e-22 -2.50641e-22 0 4.75576e-22 4.63686e-22 0 0 0 0 8.24331e-22 0 3.94627e-22 0 -3.78519e-22 0 0 0.747402 0.647407 0.865909 0.834224 0.910549 0.951754 0.965224 1.05501 1.05805 1.10549 1.16746 1.17732 1.22258 1.25693 1.31502 1.31301 1.32867 1.36003 1.4146 1.41401 1.43969 1.43145 1.46235 1.51364 1.53062 1.5462 1.56677 1.54683 1.415 1.07452 0.468486 0.0364041 8.70604e-05 2.55178e-09 6.17606e-14 2.57603e-22 2.50641e-22 -2.44045e-22 -2.37788e-22 0 0 4.41606e-22 0 0 0 -4.03205e-22 0 3.86405e-22 -3.78519e-22 0 0 0.735986 0.637518 0.852683 0.821482 0.896641 0.937216 0.950481 1.03889 1.04189 1.0886 1.14963 1.15933 1.20391 1.23773 1.29493 1.29295 1.30838 1.33926 1.393 1.39241 1.4177 1.40958 1.44002 1.49052 1.50724 1.52258 1.54284 1.5232 1.39339 1.05811 0.46133 0.0358481 8.57306e-05 2.5128e-09 6.08225e-14 0 0 0 0 -4.63686e-22 -2.26188e-22 0 4.31336e-22 0 0 4.03205e-22 0 3.86405e-22 3.78519e-22 0 0 0.723844 0.627001 0.838615 0.807929 0.881848 0.921754 0.9348 1.02175 1.0247 1.07064 1.13066 1.14021 1.18404 1.21731 1.27357 1.27162 1.28679 1.31716 1.37002 1.36944 1.39431 1.38633 1.41626 1.46593 1.48238 1.49746 1.51739 1.49807 1.3704 1.04065 0.453719 0.0352567 8.43162e-05 2.47135e-09 5.98542e-14 2.57603e-22 5.01282e-22 7.32136e-22 4.75576e-22 2.31843e-22 4.52377e-22 -4.41606e-22 -4.31336e-22 2.10766e-22 -4.12166e-22 -4.03205e-22 0 0 -3.78519e-22 0 0 0.710987 0.615864 0.82372 0.793579 0.866185 0.905382 0.918196 1.0036 1.0065 1.05162 1.11058 1.11995 1.16301 1.19569 1.25095 1.24904 1.26393 1.29377 1.34568 1.34512 1.36955 1.3617 1.3911 1.43989 1.45605 1.47086 1.49044 1.47147 1.34606 1.02217 0.44566 0.0346304 8.28186e-05 2.42745e-09 5.88256e-14 -5.15207e-22 -5.01282e-22 0 -2.37788e-22 -2.31843e-22 6.78565e-22 2.20803e-22 0 0 0 4.03205e-22 3.94627e-22 3.86405e-22 -3.78519e-22 0 0 0.697429 0.60412 0.808012 0.778446 0.849667 0.888117 0.900687 0.984466 0.987303 1.03157 1.0894 1.0986 1.14083 1.17289 1.22709 1.22522 1.23983 1.26909 1.32002 1.31946 1.34343 1.33574 1.36458 1.41243 1.42828 1.44281 1.46201 1.44341 1.32039 1.00267 0.437162 0.03397 8.12393e-05 2.38116e-09 5.76464e-14 5.15207e-22 7.51923e-22 -7.32136e-22 7.13363e-22 -6.95529e-22 4.52377e-22 -6.62409e-22 4.31336e-22 0 -4.12166e-22 -2.01603e-22 -1.97313e-22 0 -3.78519e-22 0 0 0.683182 0.591779 0.791506 0.762544 0.832311 0.869975 0.882288 0.964356 0.967135 1.0105 1.06715 1.07616 1.11753 1.14893 1.20203 1.20019 1.2145 1.24317 1.29306 1.29251 1.31599 1.30845 1.3367 1.38358 1.3991 1.41334 1.43215 1.41392 1.29342 0.982192 0.428232 0.0332761 7.95798e-05 2.33252e-09 5.64644e-14 0 -7.51923e-22 -2.44045e-22 -2.37788e-22 -2.31843e-22 4.52377e-22 -1.10401e-21 4.31336e-22 4.21533e-22 -4.12166e-22 2.01603e-22 -3.94627e-22 3.86405e-22 -3.78519e-22 0 0 0.668262 0.578855 0.77422 0.74589 0.814133 0.850975 0.863019 0.943295 0.946012 0.988429 1.04384 1.05265 1.09312 1.12384 1.17577 1.17398 1.18798 1.21602 1.26482 1.26428 1.28725 1.27987 1.30751 1.35336 1.36855 1.38247 1.40087 1.38304 1.26517 0.960741 0.418879 0.0325494 7.78417e-05 2.28158e-09 5.52737e-14 6.44009e-22 -2.50641e-22 -2.44045e-22 -2.37788e-22 2.31843e-22 9.04754e-22 0 -2.15668e-22 4.21533e-22 2.06083e-22 -4.03205e-22 -3.94627e-22 0 0 0 0 0.652681 0.565359 0.756169 0.7285 0.795152 0.831135 0.842898 0.921302 0.923956 0.965384 1.0195 1.02811 1.06764 1.09763 1.14836 1.14661 1.16028 1.18767 1.23533 1.23481 1.25723 1.25003 1.27702 1.32181 1.33664 1.35024 1.36821 1.3508 1.23567 0.938341 0.409113 0.0317905 7.60269e-05 2.22838e-09 5.3967e-14 1.28802e-22 1.25321e-22 -1.22023e-22 2.37788e-22 -4.63686e-22 -6.78565e-22 8.83212e-22 0 -6.32299e-22 0 0 -1.97313e-22 -3.86405e-22 -3.78519e-22 0 0 0.636457 0.551305 0.737372 0.710391 0.775386 0.810474 0.821945 0.8984 0.900989 0.941386 0.99416 1.00255 1.0411 1.07035 1.11981 1.1181 1.13144 1.15814 1.20462 1.20411 1.22598 1.21896 1.24528 1.28895 1.30341 1.31668 1.3342 1.31722 1.20496 0.915016 0.398943 0.0310002 7.4137e-05 2.17299e-09 5.2634e-14 1.28802e-22 3.75962e-22 -9.76181e-22 5.94469e-22 2.31843e-22 0 -4.41606e-22 2.15668e-22 4.21533e-22 6.18248e-22 -2.01603e-22 5.9194e-22 5.79608e-22 -1.8926e-22 0 0 0.619604 0.536707 0.717848 0.691581 0.754855 0.789014 0.800181 0.874612 0.877132 0.916459 0.967836 0.976007 1.01353 1.04201 1.09016 1.0885 1.10148 1.12748 1.17272 1.17223 1.19352 1.18668 1.21231 1.25482 1.2689 1.28181 1.29887 1.28234 1.17305 0.890788 0.38838 0.0301794 7.2174e-05 2.11545e-09 5.1229e-14 2.57603e-22 2.50641e-22 -3.66068e-22 3.56682e-22 1.15922e-22 7.91659e-22 1.10401e-22 -4.31336e-22 -2.10766e-22 0 -6.04808e-22 -1.97313e-22 0 -1.8926e-22 0 0 0.60214 0.52158 0.697614 0.672088 0.733578 0.766775 0.777627 0.84996 0.852409 0.890628 0.940557 0.948497 0.984964 1.01264 1.05944 1.05782 1.07044 1.0957 1.13967 1.13919 1.15988 1.15324 1.17814 1.21945 1.23314 1.24568 1.26226 1.2462 1.13999 0.86568 0.377433 0.0293288 7.01397e-05 2.05583e-09 4.97967e-14 3.22004e-22 -1.87981e-22 -2.44045e-22 -2.37788e-22 -4.63686e-22 0 2.20803e-22 2.15668e-22 -2.10766e-22 0 0 -1.97313e-22 1.93203e-22 1.8926e-22 0 0 0.584082 0.505937 0.676693 0.651932 0.711578 0.743779 0.754306 0.82447 0.826845 0.863918 0.91235 0.920052 0.955425 0.982269 1.02766 1.02609 1.03833 1.06284 1.10549 1.10502 1.12509 1.11865 1.1428 1.18288 1.19615 1.20833 1.22441 1.20882 1.1058 0.839718 0.366114 0.0284492 6.80362e-05 1.99417e-09 4.83045e-14 -1.93203e-22 2.50641e-22 -5.49102e-22 -5.94469e-23 -8.11451e-22 -3.39283e-22 3.31204e-22 2.15668e-22 -2.10766e-22 0 2.01603e-22 -9.86567e-23 -1.93203e-22 3.78519e-22 0 0 0.565447 0.489796 0.655104 0.631133 0.688876 0.72005 0.73024 0.798166 0.800465 0.836356 0.883242 0.890698 0.924943 0.95093 0.994876 0.993356 1.00521 1.02893 1.07022 1.06977 1.0892 1.08296 1.10634 1.14514 1.15799 1.16978 1.18534 1.17026 1.07052 0.812928 0.354433 0.0275415 6.58655e-05 1.93055e-09 4.67106e-14 -5.79608e-22 3.13301e-23 3.66068e-22 -2.37788e-22 3.47765e-22 2.26188e-22 1.10401e-22 -2.15668e-22 1.05383e-22 5.15207e-22 0 4.93283e-22 -5.79608e-22 4.73149e-22 0 0 0.546255 0.473171 0.632868 0.60971 0.665494 0.695609 0.705454 0.771074 0.773295 0.807968 0.853262 0.860466 0.893548 0.918653 0.961108 0.959639 0.971086 0.994005 1.03389 1.03346 1.05223 1.0462 1.06879 1.10627 1.11869 1.13007 1.14511 1.13053 1.03418 0.785335 0.342403 0.0266067 6.36299e-05 1.86502e-09 4.5137e-14 -3.62255e-22 1.25321e-22 1.22023e-22 5.94469e-22 -1.04329e-21 -2.82735e-22 -2.76004e-22 5.93087e-22 -5.26916e-23 0 2.01603e-22 3.94627e-22 -7.7281e-22 7.57039e-22 0 0 0.526523 0.456079 0.610007 0.587686 0.641455 0.670482 0.679972 0.743221 0.745363 0.778782 0.822441 0.829384 0.861271 0.88547 0.926391 0.924975 0.936009 0.9581 0.996547 0.996128 1.01422 1.00841 1.03018 1.06631 1.07828 1.08925 1.10375 1.0897 0.996827 0.756967 0.330035 0.0256456 6.13315e-05 1.79765e-09 4.35719e-14 -9.66013e-22 5.48278e-23 5.14783e-23 -2.08064e-22 5.21647e-22 1.13094e-21 -4.41606e-22 -1.34793e-21 2.10766e-22 -2.57603e-22 -4.53606e-22 1.97313e-22 -3.86405e-22 0 0 0 0.506272 0.438537 0.586545 0.565083 0.616783 0.644694 0.653818 0.714635 0.716694 0.748828 0.790808 0.797484 0.828144 0.851412 0.890759 0.889399 0.900007 0.921249 0.958218 0.957814 0.975211 0.969626 0.990561 1.0253 1.0368 1.04735 1.06129 1.04778 0.958487 0.727852 0.317341 0.0246592 5.89725e-05 1.72851e-09 4.18545e-14 1.28802e-22 -1.56651e-22 -6.10113e-22 8.17396e-22 1.10488e-22 3.46351e-22 5.65808e-22 2.96544e-22 5.26916e-22 -7.2129e-22 -3.52805e-22 4.93283e-23 9.66013e-23 4.73149e-22 0 0 0.48552 0.420562 0.562504 0.541921 0.591502 0.618269 0.62702 0.685344 0.687318 0.718135 0.758394 0.764797 0.794201 0.816515 0.854249 0.852944 0.863118 0.883489 0.918942 0.918555 0.935239 0.929883 0.94996 0.983275 0.994308 1.00443 1.01779 1.00484 0.9192 0.698019 0.304334 0.0236485 5.65553e-05 1.65766e-09 4.01417e-14 1.28802e-22 1.25321e-22 9.76181e-22 -6.24193e-22 3.47765e-22 4.3824e-22 7.5901e-23 3.13393e-22 -2.63458e-23 6.56889e-22 -3.02404e-22 5.42612e-22 2.41503e-22 -4.73149e-22 0 0 0.46429 0.402173 0.537907 0.518225 0.565638 0.591235 0.599602 0.655376 0.657264 0.686734 0.725232 0.731355 0.759473 0.780811 0.816896 0.815648 0.825377 0.844857 0.87876 0.87839 0.894344 0.889222 0.908422 0.94028 0.95083 0.960506 0.973287 0.9609 0.879007 0.667497 0.291026 0.0226144 5.40824e-05 1.58518e-09 3.83479e-14 -8.37211e-22 -3.75962e-22 -1.83034e-22 -4.75576e-22 -5.21647e-22 -8.48206e-23 -7.7281e-22 9.16589e-22 -4.34706e-22 -5.79608e-23 1.22852e-22 4.68619e-22 7.96961e-22 3.54862e-22 0 0 0.442602 0.383386 0.51278 0.494017 0.539215 0.563616 0.571593 0.624761 0.626561 0.654654 0.691354 0.697191 0.723996 0.744337 0.778736 0.777546 0.786821 0.805391 0.83771 0.837358 0.852567 0.847684 0.865986 0.896356 0.906414 0.915637 0.927822 0.916013 0.837946 0.636316 0.277431 0.021558 5.1556e-05 1.51113e-09 3.66507e-14 -3.86405e-22 -3.75962e-22 1.22023e-22 -1.18894e-22 -3.47765e-22 -2.82735e-22 6.62409e-22 -4.31336e-22 -1.84421e-22 -1.80322e-22 4.53606e-22 2.83638e-22 -4.83007e-22 -4.63538e-22 0 0 0.420477 0.364221 0.487147 0.469321 0.51226 0.535442 0.54302 0.59353 0.59524 0.621929 0.656794 0.662339 0.687804 0.707129 0.739808 0.738678 0.747489 0.765131 0.795834 0.795499 0.809948 0.805309 0.822697 0.851548 0.861103 0.869866 0.881441 0.870223 0.796058 0.604508 0.263563 0.0204804 4.89788e-05 1.43559e-09 3.47412e-14 -3.86405e-22 -3.75962e-22 -2.44045e-22 3.56682e-22 1.15922e-22 -6.78565e-22 -9.93613e-22 -4.85253e-22 -2.10766e-22 -3.60645e-22 -5.04007e-22 3.94627e-22 2.65654e-22 -2.60232e-22 0 0 0.397937 0.344697 0.461033 0.444163 0.4848 0.506739 0.513911 0.561713 0.563332 0.58859 0.621586 0.626834 0.650933 0.669222 0.70015 0.69908 0.707419 0.724115 0.753173 0.752855 0.76653 0.76214 0.778595 0.8059 0.814943 0.823236 0.834191 0.823573 0.753384 0.572102 0.249434 0.0193825 4.63532e-05 1.35863e-09 3.2941e-14 0 0 0 0 0 -1.13094e-22 5.52007e-22 -3.23502e-22 -3.1615e-22 -3.09124e-22 -3.02404e-22 -3.45298e-22 2.41503e-22 -5.20464e-22 0 0 0.375004 0.324832 0.434464 0.418566 0.456861 0.477536 0.484294 0.529342 0.530867 0.55467 0.585765 0.59071 0.61342 0.630655 0.6598 0.658792 0.666651 0.682385 0.709768 0.709469 0.722355 0.718218 0.733725 0.759457 0.767978 0.775793 0.786117 0.776111 0.709967 0.539132 0.23506 0.0182655 4.36819e-05 1.28034e-09 3.10066e-14 -6.44009e-22 -5.01282e-22 -2.44045e-22 -2.37788e-22 -2.31843e-22 -5.65471e-22 -2.20803e-22 -5.3917e-22 1.05383e-22 5.15207e-22 1.00801e-22 -9.86567e-23 2.41503e-22 0 0 0 0.351701 0.304647 0.407466 0.392556 0.428472 0.447861 0.4542 0.496449 0.497879 0.520202 0.549365 0.554003 0.575302 0.591466 0.6188 0.617855 0.625225 0.639981 0.665662 0.665382 0.677467 0.673588 0.688131 0.712264 0.720256 0.727585 0.737267 0.727883 0.665849 0.50563 0.220453 0.0171305 4.09675e-05 1.20078e-09 2.90862e-14 -2.57603e-22 5.01282e-22 -4.88091e-22 -7.13363e-22 -6.95529e-22 -3.39283e-22 -3.31204e-22 -7.54838e-22 -4.21533e-22 6.18248e-22 4.03205e-22 -8.8791e-22 -8.69412e-22 9.46299e-23 0 0 0.328051 0.284161 0.380066 0.366159 0.399659 0.417745 0.423657 0.463065 0.464399 0.485221 0.512423 0.516749 0.536616 0.551693 0.577189 0.576307 0.583181 0.596946 0.6209 0.620639 0.631911 0.628293 0.641858 0.664368 0.671822 0.678659 0.68769 0.678937 0.621075 0.471629 0.205629 0.0159785 3.82127e-05 1.12003e-09 2.70822e-14 0 5.01282e-22 4.88091e-22 4.75576e-22 4.63686e-22 0 0 4.31336e-22 0 1.03041e-22 7.0561e-22 2.9597e-22 -2.89804e-22 -1.8926e-22 0 0 0.304077 0.263394 0.352291 0.3394 0.370452 0.387216 0.392697 0.429224 0.430461 0.449762 0.474975 0.478985 0.497401 0.511376 0.535008 0.534191 0.540563 0.553321 0.575525 0.575283 0.585732 0.582377 0.594951 0.615816 0.622726 0.629063 0.637434 0.629321 0.575687 0.437163 0.190601 0.0148108 3.54201e-05 1.03818e-09 2.51304e-14 -2.57603e-22 0 7.32136e-22 -2.37788e-22 2.31843e-22 6.78565e-22 -2.20803e-22 0 -2.10766e-22 -2.06083e-22 2.01603e-22 1.97313e-22 -1.93203e-22 -3.78519e-22 0 0 0.279803 0.242368 0.324168 0.312307 0.34088 0.356306 0.361349 0.39496 0.396098 0.413858 0.437059 0.440749 0.457694 0.470554 0.4923 0.491548 0.497411 0.509151 0.529582 0.529359 0.538974 0.535887 0.547458 0.566657 0.573015 0.578846 0.586549 0.579083 0.529731 0.402265 0.175386 0.0136285 3.25926e-05 9.55303e-10 2.31784e-14 -2.57603e-22 -2.50641e-22 7.32136e-22 -4.75576e-22 -2.31843e-22 -2.26188e-22 -4.41606e-22 0 0 0 4.03205e-22 3.94627e-22 -3.86405e-22 -5.67779e-22 0 0 0.255253 0.221103 0.295726 0.284905 0.310971 0.325043 0.329644 0.360306 0.361345 0.377546 0.398711 0.402077 0.417536 0.429267 0.449105 0.448419 0.453768 0.464478 0.483116 0.482913 0.491684 0.488868 0.499424 0.516938 0.522739 0.528058 0.535085 0.528275 0.483252 0.36697 0.159998 0.0124328 2.97329e-05 8.71485e-10 2.10648e-14 -1.03041e-21 -5.01282e-22 -2.44045e-22 4.75576e-22 6.95529e-22 -4.52377e-22 4.41606e-22 -2.15668e-22 6.32299e-22 -4.12166e-22 -4.03205e-22 3.94627e-22 3.86405e-22 -7.57039e-22 0 0 0.230451 0.199619 0.266991 0.257222 0.280755 0.29346 0.297614 0.325297 0.326234 0.340862 0.35997 0.363009 0.376966 0.387557 0.405468 0.404848 0.409677 0.419346 0.436174 0.43599 0.443909 0.441367 0.450897 0.466709 0.471946 0.476749 0.483093 0.476944 0.436297 0.331313 0.144451 0.0112247 2.68439e-05 7.86806e-10 1.90589e-14 5.15207e-22 5.01282e-22 2.44045e-22 -4.75576e-22 4.63686e-22 0 0 4.31336e-22 4.21533e-22 4.12166e-22 -6.04808e-22 1.97313e-22 3.86405e-22 0 0 0 0.205422 0.177939 0.237993 0.229285 0.250263 0.261588 0.26529 0.289966 0.290802 0.303841 0.320874 0.323583 0.336023 0.345464 0.36143 0.360878 0.365182 0.373801 0.388801 0.388637 0.395696 0.39343 0.401925 0.41602 0.420688 0.424969 0.430624 0.425143 0.38891 0.295329 0.128762 0.0100056 2.39284e-05 7.01351e-10 1.69539e-14 -2.57603e-22 -5.01282e-22 -2.44045e-22 -2.37788e-22 -2.31843e-22 -4.52377e-22 -2.20803e-22 -4.31336e-22 -4.21533e-22 0 -2.01603e-22 3.94627e-22 -1.93203e-22 1.8926e-22 0 0 0.18019 0.156082 0.208761 0.201122 0.219523 0.229457 0.232704 0.25435 0.255083 0.26652 0.281461 0.283837 0.29475 0.303031 0.317035 0.316551 0.320327 0.327887 0.341045 0.340901 0.347093 0.345105 0.352556 0.36492 0.369015 0.37277 0.377731 0.372923 0.34114 0.259054 0.112947 0.00877661 2.09892e-05 6.15204e-10 1.48848e-14 -5.15207e-22 2.50641e-22 0 -2.37788e-22 2.31843e-22 0 2.20803e-22 2.15668e-22 -2.10766e-22 -2.06083e-22 -2.01603e-22 0 -1.93203e-22 -1.8926e-22 0 0 0.15478 0.134072 0.179322 0.17276 0.188566 0.197099 0.199889 0.218482 0.219112 0.228936 0.24177 0.243811 0.253185 0.260298 0.272328 0.271912 0.275155 0.281649 0.292952 0.292828 0.298147 0.296439 0.30284 0.31346 0.316977 0.320203 0.324464 0.320334 0.293034 0.222523 0.09701