<?xml version="1.0"?>
<VTKFile type="PolyData">
	<PolyData>
		<Piece NumberOfPoints="2601" NumberOfPolys="2500">
			<Points>
				<DataArray type="Float32" NumberOfComponents="3" format="ascii">
 1e-06 0 0 0.291932 0 0 0.330949 0 0 0.369223 0 0 0.398921 0 0 0.423996 0 0 0.445098 0 0 0.46337 0 0 0.480753 0 0 0.496511 0 0 0.510833 0 0 0.523822 0 0 0.535793 0 0 0.547223 0 0 0.557764 0 0 0.567258 0 0 0.576091 0 0 0.584229 0 0 0.592138 0 0 0.599351 0 0 0.606138 0 0 0.612446 0 0 0.618556 0 0 0.624257 0 0 0.629629 0 0 0.634725 0 0 0.639503 0 0 0.644113 0 0 0.648566 0 0 0.652753 0 0 0.656761 0 0 0.660587 0 0 0.665144 0 0 0.671891 0 0 0.683078 0 0 0.700186 0 0 0.720002 0 0 0.740001 0 0 0.760001 0 0 0.780001 0 0 0.800001 0 0 0.820001 0 0 0.840001 0 0 0.860001 0 0 0.880001 0 0 0.900001 0 0 0.920001 0 0 0.940001 0 0 0.960001 0 0 0.980001 0 0 1 0 0 9.99507e-07 3.14108e-08 0 0.291788 0.00916981 0 0.330786 0.0103954 0 0.369041 0.0115976 0 0.398724 0.0125304 0 0.423786 0.013318 0 0.444878 0.0139809 0 0.463141 0.0145548 0 0.480516 0.0151008 0 0.496266 0.0155958 0 0.510581 0.0160457 0 0.523564 0.0164536 0 0.535528 0.0168297 0 0.546953 0.0171887 0 0.557489 0.0175198 0 0.566978 0.017818 0 0.575807 0.0180955 0 0.583941 0.0183511 0 0.591845 0.0185995 0 0.599055 0.0188261 0 0.605839 0.0190392 0 0.612144 0.0192374 0 0.618251 0.0194293 0 0.623949 0.0196084 0 0.629318 0.0197771 0 0.634412 0.0199372 0 0.639188 0.0200873 0 0.643796 0.0202321 0 0.648246 0.020372 0 0.652431 0.0205035 0 0.656437 0.0206294 0 0.660261 0.0207495 0 0.664815 0.0208927 0 0.671559 0.0211046 0 0.682741 0.021456 0 0.699841 0.0219934 0 0.719646 0.0226158 0 0.739636 0.023244 0 0.759626 0.0238722 0 0.779616 0.0245004 0 0.799606 0.0251286 0 0.819596 0.0257569 0 0.839587 0.0263851 0 0.859577 0.0270133 0 0.879567 0.0276415 0 0.899557 0.0282697 0 0.919547 0.0288979 0 0.939537 0.0295261 0 0.959527 0.0301544 0 0.979517 0.0307826 0 0.999508 0.0314108 0 9.98027e-07 6.27905e-08 0 0.291356 0.0183306 0 0.330296 0.0207805 0 0.368495 0.0231837 0 0.398134 0.0250484 0 0.423159 0.0266229 0 0.44422 0.0279479 0 0.462456 0.0290952 0 0.479804 0.0301867 0 0.495532 0.0311762 0 0.509825 0.0320755 0 0.522788 0.0328911 0 0.534735 0.0336427 0 0.546143 0.0343604 0 0.556663 0.0350223 0 0.566139 0.0356184 0 0.574955 0.0361731 0 0.583076 0.036684 0 0.590969 0.0371806 0 0.598168 0.0376336 0 0.604942 0.0380597 0 0.611238 0.0384558 0 0.617336 0.0388395 0 0.623025 0.0391974 0 0.628386 0.0395347 0 0.633472 0.0398547 0 0.638241 0.0401547 0 0.642842 0.0404442 0 0.647286 0.0407238 0 0.651465 0.0409867 0 0.655465 0.0412384 0 0.659284 0.0414786 0 0.663831 0.0417647 0 0.670565 0.0421884 0 0.68173 0.0428908 0 0.698805 0.0439651 0 0.718581 0.0452093 0 0.738541 0.046465 0 0.758501 0.0477209 0 0.778462 0.0489767 0 0.798422 0.0502325 0 0.818383 0.0514883 0 0.838343 0.0527441 0 0.858304 0.0539999 0 0.878265 0.0552557 0 0.898225 0.0565115 0 0.918186 0.0577673 0 0.938146 0.0590232 0 0.958107 0.060279 0 0.978067 0.0615348 0 0.998028 0.0627906 0 9.95562e-07 9.41083e-08 0 0.290636 0.0274732 0 0.329481 0.0311451 0 0.367585 0.034747 0 0.39715 0.0375418 0 0.422114 0.0399015 0 0.443123 0.0418874 0 0.461313 0.043607 0 0.478619 0.0452429 0 0.494308 0.0467258 0 0.508566 0.0480737 0 0.521497 0.049296 0 0.533415 0.0504226 0 0.544794 0.0514982 0 0.555289 0.0524902 0 0.564741 0.0533837 0 0.573535 0.054215 0 0.581636 0.0549808 0 0.58951 0.0557251 0 0.596691 0.0564039 0 0.603448 0.0570426 0 0.609728 0.0576363 0 0.615811 0.0582113 0 0.621486 0.0587477 0 0.626834 0.0592533 0 0.631908 0.0597329 0 0.636665 0.0601826 0 0.641255 0.0606164 0 0.645688 0.0610355 0 0.649856 0.0614295 0 0.653847 0.0618067 0 0.657656 0.0621668 0 0.662192 0.0625955 0 0.668909 0.0632305 0 0.680046 0.0642833 0 0.697079 0.0658934 0 0.716806 0.0677581 0 0.736717 0.0696402 0 0.756628 0.0715224 0 0.776539 0.0734046 0 0.796451 0.0752867 0 0.816362 0.0771689 0 0.836273 0.0790511 0 0.856184 0.0809332 0 0.876096 0.0828154 0 0.896007 0.0846976 0 0.915918 0.0865797 0 0.935829 0.0884619 0 0.95574 0.0903441 0 0.975652 0.0922262 0 0.995563 0.0941084 0 9.92115e-07 1.25333e-07 0 0.28963 0.0365888 0 0.32834 0.041479 0 0.366312 0.046276 0 0.395775 0.049998 0 0.420652 0.0531407 0 0.441588 0.0557856 0 0.459716 0.0580757 0 0.476962 0.0602543 0 0.492596 0.0622294 0 0.506805 0.0640244 0 0.519692 0.0656523 0 0.531568 0.0671526 0 0.542908 0.0685852 0 0.553366 0.0699064 0 0.562785 0.0710963 0 0.571549 0.0722034 0 0.579622 0.0732233 0 0.587468 0.0742145 0 0.594625 0.0751186 0 0.601358 0.0759692 0 0.607617 0.0767599 0 0.613679 0.0775257 0 0.619334 0.0782401 0 0.624664 0.0789134 0 0.62972 0.0795521 0 0.634461 0.080151 0 0.639034 0.0807288 0 0.643452 0.0812869 0 0.647606 0.0818116 0 0.651583 0.082314 0 0.655378 0.0827935 0 0.659899 0.0833646 0 0.666593 0.0842103 0 0.677692 0.0856124 0 0.694665 0.0877566 0 0.714324 0.0902401 0 0.734166 0.0927467 0 0.754008 0.0952534 0 0.77385 0.09776 0 0.793693 0.100267 0 0.813535 0.102773 0 0.833377 0.10528 0 0.85322 0.107787 0 0.873062 0.110293 0 0.892904 0.1128 0 0.912747 0.115307 0 0.932589 0.117813 0 0.952431 0.12032 0 0.972273 0.122827 0 0.992116 0.125333 0 9.87688e-07 1.56434e-07 0 0.288338 0.0456682 0 0.326875 0.0517719 0 0.364678 0.0577593 0 0.394009 0.0624049 0 0.418776 0.0663275 0 0.439618 0.0696286 0 0.457665 0.072487 0 0.474834 0.0752063 0 0.490398 0.0776715 0 0.504544 0.0799119 0 0.517373 0.0819438 0 0.529196 0.0838165 0 0.540486 0.0856045 0 0.550897 0.0872535 0 0.560274 0.0887387 0 0.568999 0.0901205 0 0.577036 0.0913936 0 0.584847 0.0926307 0 0.591972 0.0937592 0 0.598675 0.0948208 0 0.604906 0.0958077 0 0.610941 0.0967635 0 0.616571 0.0976553 0 0.621877 0.0984956 0 0.62691 0.0992928 0 0.63163 0.10004 0 0.636183 0.100762 0 0.640581 0.101458 0 0.644716 0.102113 0 0.648675 0.10274 0 0.652454 0.103339 0 0.656955 0.104051 0 0.663619 0.105107 0 0.674668 0.106857 0 0.691566 0.109533 0 0.711137 0.112633 0 0.73089 0.115762 0 0.750644 0.11889 0 0.770398 0.122019 0 0.790152 0.125148 0 0.809905 0.128276 0 0.829659 0.131405 0 0.849413 0.134534 0 0.869167 0.137662 0 0.88892 0.140791 0 0.908674 0.14392 0 0.928428 0.147049 0 0.948182 0.150177 0 0.967936 0.153306 0 0.987689 0.156435 0 9.82287e-07 1.87381e-07 0 0.286761 0.0547026 0 0.325087 0.0620137 0 0.362683 0.0691856 0 0.391855 0.0747503 0 0.416486 0.0794489 0 0.437214 0.083403 0 0.455162 0.0868269 0 0.472238 0.0900841 0 0.487717 0.0930369 0 0.501785 0.0957206 0 0.514544 0.0981545 0 0.526302 0.100398 0 0.53753 0.102539 0 0.547884 0.104515 0 0.557211 0.106294 0 0.565887 0.107949 0 0.573881 0.109474 0 0.581649 0.110956 0 0.588735 0.112307 0 0.595401 0.113579 0 0.601598 0.114761 0 0.6076 0.115906 0 0.613199 0.116974 0 0.618476 0.117981 0 0.623482 0.118936 0 0.628176 0.119831 0 0.632704 0.120695 0 0.637078 0.121529 0 0.641191 0.122314 0 0.645128 0.123065 0 0.648886 0.123782 0 0.653362 0.124635 0 0.65999 0.1259 0 0.670979 0.127996 0 0.687784 0.131202 0 0.707248 0.134915 0 0.726894 0.138662 0 0.746539 0.14241 0 0.766185 0.146158 0 0.785831 0.149905 0 0.805477 0.153653 0 0.825122 0.1574 0 0.844768 0.161148 0 0.864414 0.164896 0 0.88406 0.168643 0 0.903705 0.172391 0 0.923351 0.176139 0 0.942997 0.179886 0 0.962642 0.183634 0 0.982288 0.187382 0 9.75917e-07 2.18143e-07 0 0.284901 0.063683 0 0.322979 0.0721944 0 0.360331 0.0805436 0 0.389313 0.0870219 0 0.413784 0.0924918 0 0.434378 0.0970951 0 0.45221 0.101081 0 0.469175 0.104873 0 0.484554 0.108311 0 0.498531 0.111435 0 0.511207 0.114268 0 0.522889 0.11688 0 0.534044 0.119373 0 0.544331 0.121672 0 0.553597 0.123744 0 0.562217 0.12567 0 0.570159 0.127446 0 0.577877 0.129171 0 0.584917 0.130744 0 0.59154 0.132225 0 0.597697 0.133601 0 0.603659 0.134934 0 0.609223 0.136177 0 0.614465 0.137349 0 0.619438 0.138461 0 0.624102 0.139503 0 0.628601 0.140509 0 0.632946 0.14148 0 0.637032 0.142394 0 0.640944 0.143268 0 0.644678 0.144103 0 0.649125 0.145097 0 0.65571 0.146568 0 0.666627 0.149009 0 0.683324 0.152741 0 0.702662 0.157063 0 0.722179 0.161426 0 0.741698 0.165789 0 0.761216 0.170152 0 0.780734 0.174515 0 0.800253 0.178878 0 0.819771 0.183241 0 0.839289 0.187603 0 0.858808 0.191966 0 0.878326 0.196329 0 0.897844 0.200692 0 0.917363 0.205055 0 0.936881 0.209418 0 0.956399 0.213781 0 0.975918 0.218143 0 9.68583e-07 2.4869e-07 0 0.28276 0.0726005 0 0.320552 0.0823038 0 0.357624 0.0918221 0 0.386388 0.0992075 0 0.410675 0.105443 0 0.431114 0.110691 0 0.448812 0.115235 0 0.465649 0.119558 0 0.480912 0.123477 0 0.494784 0.127039 0 0.507365 0.130269 0 0.51896 0.133246 0 0.530031 0.136089 0 0.540241 0.13871 0 0.549437 0.141071 0 0.557992 0.143268 0 0.565874 0.145292 0 0.573535 0.147259 0 0.580521 0.149053 0 0.587095 0.15074 0 0.593205 0.152309 0 0.599123 0.153829 0 0.604645 0.155246 0 0.609848 0.156582 0 0.614784 0.15785 0 0.619412 0.159038 0 0.623877 0.160184 0 0.62819 0.161292 0 0.632245 0.162333 0 0.636128 0.16333 0 0.639834 0.164281 0 0.644247 0.165414 0 0.650782 0.167092 0 0.661618 0.169875 0 0.678189 0.174129 0 0.697381 0.179057 0 0.716753 0.184031 0 0.736124 0.189005 0 0.755496 0.193978 0 0.774867 0.198952 0 0.794239 0.203926 0 0.813611 0.2089 0 0.832982 0.213874 0 0.852354 0.218847 0 0.871726 0.223821 0 0.891097 0.228795 0 0.910469 0.233769 0 0.929841 0.238743 0 0.949212 0.243716 0 0.968584 0.24869 0 9.60294e-07 2.78991e-07 0 0.28034 0.0814464 0 0.317809 0.0923319 0 0.354563 0.10301 0 0.383081 0.111295 0 0.40716 0.118291 0 0.427425 0.124178 0 0.444971 0.129276 0 0.461664 0.134126 0 0.476797 0.138522 0 0.49055 0.142518 0 0.503023 0.146142 0 0.514518 0.149481 0 0.525495 0.15267 0 0.535617 0.155611 0 0.544735 0.15826 0 0.553217 0.160724 0 0.561031 0.162995 0 0.568626 0.165201 0 0.575553 0.167214 0 0.58207 0.169107 0 0.588128 0.170867 0 0.593996 0.172572 0 0.59947 0.174162 0 0.604628 0.175661 0 0.609522 0.177083 0 0.614111 0.178416 0 0.618538 0.179702 0 0.622814 0.180944 0 0.626834 0.182112 0 0.630684 0.183231 0 0.634358 0.184298 0 0.638733 0.185569 0 0.645213 0.187452 0 0.655955 0.190573 0 0.672385 0.195346 0 0.691413 0.200874 0 0.710618 0.206454 0 0.729824 0.212034 0 
[...]
			<PointData Scalars="VitesseX">
				<DataArray Name="VitesseX" type="Float32" format="ascii">
 0 0.491031 0.761189 0.715396 0.85215 0.870307 0.95799 0.96142 1.01131 1.05142 1.05731 1.12326 1.14839 1.16393 1.22079 1.24528 1.2749 1.29556 1.31587 1.37023 1.39132 1.38356 1.41557 1.42058 1.4662 1.49249 1.49716 1.51804 1.51986 1.53304 1.57532 1.55612 1.43125 1.12094 0.569068 0.0711328 0.000429152 2.20929e-08 6.18053e-13 3.61314e-18 0 0 0 0 0 0 0 0 0 0 0 0 0.490789 0.760813 0.715043 0.851729 0.869877 0.957518 0.960946 1.01081 1.0509 1.05679 1.12271 1.14782 1.16336 1.22018 1.24466 1.27427 1.29492 1.31522 1.36955 1.39063 1.38288 1.41487 1.41988 1.46548 1.49176 1.49642 1.5173 1.51911 1.53228 1.57454 1.55536 1.43054 1.12039 0.568787 0.0710977 0.000428941 2.2082e-08 6.17745e-13 1.76077e-18 5.63322e-22 5.49582e-22 -5.36497e-22 -5.24021e-22 0 0 4.89845e-22 -4.79423e-22 0 9.1971e-22 0 0 0.490062 0.759687 0.713984 0.850468 0.868589 0.9561 0.959523 1.00932 1.04934 1.05522 1.12105 1.14612 1.16163 1.21838 1.24282 1.27239 1.293 1.31327 1.36752 1.38857 1.38083 1.41277 1.41778 1.46331 1.48955 1.49421 1.51505 1.51686 1.53002 1.57221 1.55305 1.42842 1.11873 0.567945 0.0709924 0.000428306 2.20493e-08 6.16814e-13 -2.42274e-18 0 0 -5.36497e-22 0 0 0 4.89845e-22 -9.58846e-22 0 0 0 0 0.488852 0.75781 0.712221 0.848368 0.866444 0.953739 0.957154 1.00682 1.04675 1.05262 1.11828 1.14329 1.15877 1.21537 1.23975 1.26925 1.28981 1.31003 1.36414 1.38514 1.37742 1.40929 1.41427 1.45969 1.48587 1.49052 1.51131 1.51311 1.52624 1.56833 1.54922 1.42489 1.11597 0.566542 0.0708171 0.000427248 2.19949e-08 6.15261e-13 5.37814e-18 0 0 0 0 0 1.00146e-21 4.89845e-22 -4.79423e-22 0 0 0 0 0.487159 0.755186 0.709755 0.84543 0.863444 0.950436 0.953839 1.00334 1.04313 1.04897 1.11441 1.13934 1.15475 1.21116 1.23546 1.26485 1.28534 1.30549 1.35942 1.38035 1.37265 1.40441 1.40938 1.45464 1.48072 1.48535 1.50607 1.50787 1.52095 1.5629 1.54385 1.41996 1.1121 0.56458 0.0705718 0.000425768 2.19187e-08 6.13122e-13 1.13019e-17 0 0 0 0 -5.12111e-22 5.00731e-22 -9.79691e-22 0 -4.69435e-22 -4.59855e-22 0 0 0.484986 0.751817 0.706588 0.841658 0.859592 0.946196 0.949584 0.998862 1.03847 1.04429 1.10943 1.13425 1.1496 1.20576 1.22994 1.25921 1.27961 1.29967 1.35336 1.37419 1.36652 1.39814 1.40309 1.44815 1.47412 1.47873 1.49935 1.50114 1.51417 1.55592 1.53696 1.41362 1.10714 0.562061 0.070257 0.000423869 2.18209e-08 6.10394e-13 3.9886e-18 5.63322e-22 0 -5.36497e-22 0 0 5.00731e-22 0 9.58846e-22 -4.69435e-22 0 0 0 0.482334 0.747706 0.702724 0.837056 0.854891 0.941022 0.944391 0.993399 1.0328 1.03858 1.10337 1.12805 1.14332 1.19916 1.22322 1.25232 1.27261 1.29256 1.34595 1.36667 1.35905 1.39049 1.39542 1.44023 1.46606 1.47064 1.49116 1.49294 1.50589 1.54742 1.52856 1.40589 1.10109 0.558988 0.0698728 0.000421551 2.17016e-08 6.07068e-13 8.62282e-22 0 0 5.36497e-22 0 -5.12111e-22 -5.00731e-22 0 9.58846e-22 -4.69435e-22 4.59855e-22 0 0 0.479205 0.742857 0.698167 0.831627 0.849347 0.934919 0.938266 0.986957 1.0261 1.03185 1.09621 1.12073 1.1359 1.19139 1.21529 1.2442 1.26435 1.28418 1.33723 1.35781 1.35024 1.38148 1.38637 1.43089 1.45655 1.4611 1.48148 1.48325 1.49612 1.53738 1.51865 1.39678 1.09395 0.555363 0.0694196 0.000418817 2.15608e-08 6.03089e-13 -3.49863e-22 0 0 -5.36497e-22 5.24021e-22 0 -5.00731e-22 -4.89845e-22 -4.79423e-22 0 0 0 0 0.475604 0.737274 0.692921 0.825378 0.842964 0.927893 0.931216 0.97954 1.01839 1.02409 1.08797 1.11231 1.12736 1.18243 1.20615 1.23485 1.25485 1.27453 1.32718 1.34761 1.34009 1.37109 1.37595 1.42014 1.4456 1.45012 1.47035 1.47211 1.48488 1.52583 1.50723 1.38628 1.08573 0.551189 0.068898 0.00041567 2.13988e-08 5.98511e-13 1.08829e-17 0 0 0 5.24021e-22 1.02422e-21 -5.00731e-22 0 0 0 4.59855e-22 0 0 0.471534 0.730965 0.68699 0.818314 0.83575 0.919952 0.923246 0.971157 1.00967 1.01533 1.07866 1.10279 1.11772 1.17231 1.19583 1.22428 1.24411 1.26362 1.31582 1.33607 1.32862 1.35936 1.36417 1.40798 1.43323 1.43771 1.45777 1.45951 1.47217 1.51277 1.49434 1.37442 1.07643 0.546472 0.0683083 0.000412112 2.12157e-08 5.93336e-13 6.86971e-18 0 0 -1.07299e-21 -1.04804e-21 1.02422e-21 5.00731e-22 4.89845e-22 0 0 4.59855e-22 0 0 0.466998 0.723933 0.680382 0.810443 0.827711 0.911103 0.914365 0.961815 0.999959 1.00556 1.06829 1.09218 1.10696 1.16104 1.18433 1.21251 1.23215 1.25147 1.30316 1.32322 1.31584 1.34628 1.35105 1.39444 1.41944 1.42388 1.44375 1.44547 1.45801 1.49822 1.47996 1.3612 1.06608 0.541215 0.0676513 0.000408148 2.10116e-08 5.87647e-13 2.52362e-21 -5.63322e-22 1.09916e-21 5.36497e-22 0 0 0 -4.89845e-22 -4.79423e-22 -4.69435e-22 4.59855e-22 0 0 0.462002 0.716188 0.673102 0.801771 0.818855 0.901355 0.904582 0.951525 0.98926 0.994804 1.05686 1.0805 1.09512 1.14861 1.17166 1.19953 1.21896 1.23808 1.28922 1.30906 1.30176 1.33188 1.3366 1.37952 1.40426 1.40865 1.4283 1.43 1.44241 1.48219 1.46413 1.34663 1.05467 0.535425 0.0669274 0.000403781 2.07868e-08 5.81367e-13 2.4551e-21 -5.63322e-22 -5.49582e-22 -5.36497e-22 0 -5.12111e-22 5.00731e-22 4.89845e-22 -4.79423e-22 -4.69435e-22 9.1971e-22 0 0 0.456549 0.707735 0.665158 0.792309 0.809191 0.890717 0.893906 0.940295 0.977584 0.983063 1.04438 1.06775 1.0822 1.13506 1.15783 1.18538 1.20458 1.22346 1.274 1.29361 1.2864 1.31616 1.32082 1.36324 1.38768 1.39202 1.41144 1.41313 1.42539 1.4647 1.44685 1.33074 1.04223 0.529106 0.0661376 0.000399016 2.05415e-08 5.745e-13 -3.29643e-22 0 -5.49582e-22 0 5.24021e-22 -5.12111e-22 -5.00731e-22 -4.89845e-22 -4.79423e-22 -4.69435e-22 0 0 0 0.450646 0.698584 0.656558 0.782064 0.798728 0.8792 0.882348 0.928137 0.964944 0.970352 1.03088 1.05394 1.0682 1.12038 1.14286 1.17005 1.189 1.20765 1.25753 1.27689 1.26977 1.29914 1.30374 1.34561 1.36974 1.37403 1.39319 1.39485 1.40696 1.44576 1.42814 1.31353 1.02875 0.522264 0.0652824 0.000393857 2.02759e-08 5.67095e-13 1.21472e-21 5.63322e-22 0 0 0 0 1.00146e-21 0 4.79423e-22 0 -4.59855e-22 0 0 0.444298 0.688744 0.64731 0.771048 0.787477 0.866816 0.869919 0.915063 0.951352 0.956684 1.01636 1.03909 1.05316 1.1046 1.12676 1.15357 1.17225 1.19063 1.23982 1.2589 1.25188 1.28084 1.28538 1.32666 1.35045 1.35467 1.37357 1.37521 1.38714 1.42539 1.40802 1.29503 1.01426 0.514908 0.0643628 0.000388309 1.99903e-08 5.59035e-13 7.72734e-22 0 0 5.36497e-22 0 0 0 -4.89845e-22 0 4.69435e-22 -4.59855e-22 0 0 0.437512 0.678224 0.637423 0.759271 0.775449 0.853576 0.856632 0.901086 0.936821 0.942071 1.00084 1.02322 1.03707 1.08773 1.10955 1.13595 1.15435 1.17245 1.22088 1.23967 1.23276 1.26128 1.26575 1.3064 1.32982 1.33398 1.35259 1.3542 1.36595 1.40362 1.38652 1.27525 0.998767 0.507043 0.0633797 0.000382378 1.96849e-08 5.50508e-13 1.14317e-21 -5.63322e-22 -2.74791e-22 0 5.24021e-22 0 0 4.89845e-22 0 4.69435e-22 4.59855e-22 0 0 0.430294 0.667035 0.626906 0.746745 0.762656 0.839493 0.842499 0.88622 0.921365 0.926529 0.984324 1.00634 1.01996 1.06978 1.09124 1.11721 1.1353 1.15311 1.20074 1.21922 1.21242 1.24047 1.24486 1.28484 1.30788 1.31197 1.33027 1.33186 1.34341 1.38046 1.36364 1.25421 0.982289 0.498678 0.0623341 0.000376069 1.93602e-08 5.41479e-13 -5.88981e-17 2.81661e-22 5.49582e-22 -5.36497e-22 -5.24021e-22 2.56055e-22 -5.00731e-22 -4.89845e-22 0 0 -4.59855e-22 0 0 0.422651 0.655187 0.615771 0.733481 0.74911 0.824583 0.827535 0.870479 0.905 0.910072 0.966841 0.988468 1.00184 1.05078 1.07186 1.09736 1.11514 1.13262 1.17941 1.19756 1.19089 1.21844 1.22275 1.26202 1.28465 1.28867 1.30664 1.3082 1.31955 1.35594 1.33942 1.23193 0.964842 0.48982 0.0612269 0.000369389 1.90163e-08 5.31917e-13 -2.11511e-17 -2.81661e-22 8.24374e-22 2.68249e-22 0 0 0 4.89845e-22 4.79423e-22 4.69435e-22 -4.59855e-22 0 0 0.414591 0.642693 0.604029 0.719494 0.734824 0.808858 0.811754 0.853879 0.887742 0.892717 0.948403 0.969618 0.98274 1.03074 1.05142 1.07644 1.09387 1.11103 1.15692 1.17473 1.16818 1.1952 1.19943 1.23795 1.26015 1.26409 1.28173 1.28326 1.29439 1.33009 1.31388 1.20844 0.946443 0.48048 0.0600594 0.000362345 1.86537e-08 5.21487e-13 2.92213e-21 -8.44983e-22 5.49582e-22 -8.04746e-22 5.24021e-22 0 -5.00731e-22 -2.44923e-22 -2.39712e-22 0 -4.59855e-22 0 0 0.406122 0.629564 0.59169 0.704797 0.719814 0.792335 0.795172 0.836437 0.869608 0.874482 0.92903 0.949811 0.962665 1.00969 1.02994 1.05445 1.07153 1.08833 1.13329 1.15073 1.14431 1.17079 1.17493 1.21267 1.23441 1.23827 1.25554 1.25704 1.26795 1.30292 1.28704 1.18376 0.92711 0.470665 0.0588325 0.000354944 1.82726e-08 5.10946e-13 -1.60734e-22 -2.81661e-22 5.49582e-22 -1.34124e-21 5.24021e-22 5.12111e-22 -5.00731e-22 2.44923e-22 -4.79423e-22 4.69435e-22 -4.59855e-22 0 0 0.397252 0.615814 0.578768 0.689404 0.704093 0.775031 0.777805 0.818169 0.850616 0.855383 0.90874 0.929067 0.94164 0.987637 1.00745 1.03142 1.04813 1.06456 1.10854 1.1256 1.11932 1.14522 1.14927 1.18618 1.20745 1.21123 1.22812 1.22959 1.24026 1.27446 1.25893 1.1579 0.906861 0.460385 0.0575476 0.000347192 1.78735e-08 4.99776e-13 -4.77956e-17 2.81661e-22 1.09916e-21 0 -2.6201e-22 5.12111e-22 2.50365e-22 -4.89845e-22 -4.79423e-22 0 0 0 0 0.387991 0.601457 0.565274 0.67333 0.687677 0.756961 0.759671 0.799094 0.830784 0.83544 0.887553 0.907406 0.919686 0.964611 0.983961 1.00737 1.02369 1.03974 1.08269 1.09936 1.09323 1.11852 1.12248 1.15853 1.1793 1.18299 1.19949 1.20092 1.21134 1.24475 1.22958 1.13091 0.885718 0.449652 0.0562059 0.000339097 1.74568e-08 4.88051e-13 -3.51521e-17 -5.63322e-22 -8.24374e-22 1.07299e-21 0 -7.68166e-22 0 0 -2.39712e-22 -4.69435e-22 -4.59855e-22 0 0 0.378346 0.586506 0.551222 0.656593 0.670583 0.738144 0.740787 0.77923 0.810132 0.814672 0.86549 0.88485 0.896825 0.940632 0.959501 0.98233 0.998243 1.01389 1.05578 1.07203 1.06605 1.09071 1.09457 1.12973 1.14999 1.15358 1.16967 1.17107 1.18123 1.2138 1.19901 1.10279 0.863701 0.438474 0.0548087 0.000330668 1.70229e-08 4.75869e-13 -4.86832e-18 2.81661e-22 0 -5.36497e-22 2.6201e-22 5.12111e-22 7.51096e-22 -2.44923e-22 7.19135e-22 7.04153e-22 -2.29927e-22 0 0 0.368328 0.570976 0.536626 0.639207 0.652827 0.718599 0.721172 0.758597 0.788681 0.793101 0.842573 0.86142 0.873078 0.915726 0.934095 0.956319 0.971811 0.987048 1.02782 1.04364 1.03782 1.06183 1.06559 1.09981 1.11954 1.12304 1.1387 1.14006 1.14995 1.18166 1.16727 1.07359 0.840831 0.426864 0.0533575 0.000321912 1.65721e-08 4.63315e-13 2.39448e-17 1.40831e-22 9.61769e-22 1.34124e-22 -5.24021e-22 -2.56055e-22 0 -7.34768e-22 -2.39712e-22 0 -2.29927e-22 0 0 0.357946 0.554883 0.521501 0.62119 0.634426 0.698345 0.700845 0.737215 0.766451 0.770747 0.818824 0.837141 0.84847 0.889915 0.907767 0.929365 0.94442 0.959228 0.998851 1.01423 1.00857 1.0319 1.03556 1.06881 1.08798 1.09138 1.10661 1.10793 1.11754 1.14836 1.13437 1.04333 0.817132 0.414832 0.0518535 0.000312839 1.6105e-08 4.5032e-13 3.38555e-18 -5.63322e-22 0 2.68249e-22 2.6201e-22 -2.56055e-22 0 0 -2.39712e-22 2.34718e-22 2.29927e-22 0 0 0.347211 0.538242 0.505861 0.602561 0.6154 0.677402 0.679827 0.715106 0.743465 0.747632 0.794268 0.812035 0.823024 0.863227 0.880543 0.901493 0.916096 0.93046 0.968896 0.98381 0.978323 1.00096 1.0045 1.03676 1.05535 1.05865 1.07342 1.0747 1.08402 1.11392 1.10035 1.01204 0.792626 0.402391 0.0502985 0.000303457 1.5622e-08 4.36872e-13 1.01816e-21 -9.85814e-22 -4.12187e-22 4.02373e-22 2.6201e-22 -2.56055e-22 0 2.44923e-22 -1.19856e-22 -2.34718e-22 4.59855e-22 0 0 0.336134 0.521069 0.489722 0.583337 0.595766 0.65579 0.658138 0.692291 0.719746 0.723779 0.768927 0.786127 0.796766 0.835686 0.85245 0.872731 0.886869 0.900775 0.937984 0.952422 0.947111 0.969023 0.972453 1.00368 1.02168 1.02488 1.03917 1.04041 1.04944 1.07838 1.06524 0.979755 0.767338 0.389554 0.0486937 0.000293775 1.51236e-08 4.22936e-13 1.13776e-22 4.22492e-22 2.74791e-22 1.34124e-22 -2.6201e-22 1.28028e-22 6.25913e-22 0 5.99279e-22 -7.04153e-22 5.74819e-22 0 0 0.324725 0.503383 0.4731 0.563537 0.575544 0.63353 0.635799 0.668793 0.695316 0.699212 0.742828 0.759444 0.769722 0.807321 0.823516 0.843109 0.856767 0.8702 0.906146 0.920094 0.914964 0.936131 0.939446 0.969617 0.987003 0.99009 1.0039 1.0051 1.01382 1.04178 1.02908 0.9465 0.741292 0.376331 0.0470409 0.000283804 1.46103e-08 4.08339e-13 2.51224e-21 -1.26747e-21 -3.43489e-22 -3.35311e-22 7.20528e-22 -6.40139e-23 0 2.44923e-22 4.79423e-22 -9.3887e-22 9.1971e-22 0 0 0.312995 0.4852 0.456011 0.543181 0.554754 0.610646 0.612832 0.644635 0.6702 0.673956 0.715995 0.732012 0.741918 0.778159 0.793769 0.812654 0.825818 0.838767 0.873415 0.886859 0.881913 0.902317 0.905511 0.934592 0.951351 0.954326 0.967638 0.968793 0.977197 1.00415 0.99191 0.91231 0.714516 0.362737 0.0453417 0.000273552 1.40825e-08 3.93629e-13 -6.3145e-22 6.33737e-22 1.37396e-21 -5.36497e-22 -1.63756e-21 2.56055e-22 -3.12957e-22 -5.51076e-22 2.39712e-22 -4.69435e-22 0 0 0 0.300956 0.466538 0.438471 0.522289 0.533417 0.587159 0.589261 0.619841 0.644422 0.648034 0.688456 0.703857 0.713382 0.748229 0.763238 0.781397 0.794055 0.806506 0.839821 0.852748 0.847993 0.867611 0.870683 0.898645 0.914759 0.91762 0.93042 0.93153 0.939612 0.965524 0.953759 0.877221 0.687033 0.348785 0.0435978 0.00026303 1.35409e-08 3.78608e-13 9.57747e-22 1.34229e-22 4.20774e-22 6.87387e-22 3.60264e-22 6.40139e-22 -8.76279e-22 -4.28615e-22 5.99279e-23 1.17359e-22 5.74819e-22 0 0 0.288621 0.447415 0.420499 0.500881 0.511553 0.563093 0.565109 0.594435 0.618008 0.621472 0.660238 0.675007 0.684142 0.71756 0.731955 0.749369 0.761509 0.773449 0.805398 0.817796 0.813235 0.83205 0.834995 0.861812 0.877265 0.880009 0.892284 0.893349 0.901099 0.92595 0.914666 0.841265 0.658873 0.334489 0.0418108 0.000252249 1.29859e-08 3.63016e-13 -4.41821e-22 4.22492e-22 5.32408e-22 9.22105e-23 3.80734e-22 -3.20069e-23 7.9804e-22 -3.67384e-22 6.59207e-22 2.93397e-22 -5.74819e-22 0 0 0.276 0.427851 0.402112 0.478979 0.489185 0.538471 0.540398 0.568442 0.590985 0.594297 0.631368 0.645491 0.654227 0.686184 0.699949 0.716602 0.72821 0.739628 0.770181 0.782036 0.777675 0.795667 0.798484 0.824128 0.838905 0.841529 0.853267 0.854286 0.861697 0.885461 0.874671 0.804479 0.630063 0.319863 0.0399825 0.000241219 1.24181e-08 3.47296e-13 -2.28199e-17 -6.33737e-22 -1.03047e-22 -9.3887e-22 1.11354e-21 -5.28114e-22 -7.04153e-23 1.4925e-22 5.69315e-22 9.6821e-22 4.31114e-22 0 0 0.263108 0.407865 0.383328 0.456605 0.466334 0.513317 0.515155 0.541888 0.563378 0.566536 0.601875 0.615338 0.623666 0.65413 0.667252 0.683127 0.694194 0.705078 0.734203 0.745505 0.741348 0.758499 0.761184 0.78563 0.799718 0.802218 0.813409 0.81438 0.821445 0.844098 0.833813 0.7669 0.600631 0.304922 0.0381148 0.000229951 1.1838e-08 3.31047e-13 -2.00631e-17 -4.22492e-22 -3.43489e-22 8.04746e-22 -5.24021e-22 -2.24049e-22 -2.1907e-22 5.51076e-22 3.44585e-22 -5.86794e-22 -5.63143e-22 0 0 0.249955 0.387477 0.364166 0.43378 0.443022 0.487657 0.489403 0.5148 0.535216 0.538215 0.571788 0.584578 0.592489 0.621431 0.633897 0.648979 0.659492 0.669832 0.697501 0.708238 0.704288 0.720582 0.723134 0.746357 0.759741 0.762116 0.772747 0.77367 0.780382 0.801903 0.792131 0.728563 0.570606 0.289679 0.0362095 0.000218456 1.12462e-08 3.14656e-13 3.37265e-18 1.40831e-22 -8.24374e-22 -1.20712e-21 -5.89523e-22 -2.56055e-22 -4.38139e-22 -6.12307e-22 4.79423e-22 3.22737e-22 -3.1615e-22 0 0 0.236556 0.366705 0.344645 0.410526 0.419273 0.461515 0.463168 0.487204 0.506525 0.509364 0.541137 0.553241 0.560728 0.588119 0.599916 0.614189 0.624139 0.633925 0.660111 0.670272 0.666534 0.681955 0.684369 0.706348 0.719014 0.721262 0.731323 0.732196 0.738548 0.758916 0.749668 0.689508 0.540018 0.27415 0.0342685 0.000206746 1.06433e-08 2.97671e-13 -2.21439e-17 0 -1.37396e-22 6.70621e-22 -3.93015e-22 -3.84083e-22 -3.75548e-22 -3.67384e-22 -4.19495e-22 2.93397e-22 -6.323e-22 0 0 0.222923 0.345572 0.324783 0.386868 0.395111 0.434919 0.436476 0.459126 0.477334 0.480009 0.509951 0.521358 0.528414 0.554226 0.565343 0.578794 0.58817 0.597392 0.622069 0.631645 0.628122 0.642654 0.644929 0.665642 0.677577 0.679696 0.689178 0.69 0.695986 0.71518 0.706465 0.649772 0.508897 0.258351 0.0322936 0.000194831 1.003e-08 2.80497e-13 -6.02514e-18 -2.81661e-22 -6.86978e-22 -2.68249e-22 -6.55026e-22 1.28028e-22 6.25913e-22 1.22461e-22 -1.19856e-22 2.93397e-22 0 0 0 0.209071 0.324098 0.304601 0.362828 0.370559 0.407893 0.409353 0.430596 0.447672 0.450181 0.478263 0.488961 0.495578 0.519786 0.530213 0.542828 0.551621 0.56027 0.583414 0.592394 0.58909 0.602719 0.604853 0.624278 0.635472 0.63746 0.646352 0.647123 0.652737 0.670738 0.662565 0.609395 0.477274 0.242297 0.0302869 0.000182724 9.4067e-09 2.63105e-13 2.78227e-18 -8.44983e-22 -4.12187e-22 -4.02373e-22 -9.17036e-22 -5.12111e-22 7.51096e-22 4.89845e-22 -1.0787e-21 -1.05623e-21 1.14964e-22 0 0 0.195012 0.302304 0.284118 0.33843 0.34564 0.380464 0.381826 0.401641 0.417569 0.419909 0.446102 0.456081 0.462253 0.484833 0.494559 0.506325 0.514527 0.522595 0.544182 0.552559 0.549477 0.56219 0.56418 0.582299 0.59274 0.594594 0.602888 0.603608 0.608844 0.625635 0.618011 0.568416 0.44518 0.226004 0.0282502 0.000170437 8.77415e-09 2.45325e-13 -1.06293e-17 5.63322e-22 0 0 5.24021e-22 0 1.25183e-22 8.57229e-22 3.59567e-22 -3.52076e-22 -2.29927e-22 0 0 0.180761 0.280212 0.263355 0.313697 0.320381 0.35266 0.353922 0.372289 0.387053 0.389222 0.413501 0.422751 0.428472 0.449402 0.458417 0.469323 0.476926 0.484404 0.504414 0.512178 0.509322 0.521105 0.52295 0.539745 0.549423 0.551141 0.558829 0.559496 0.56435 0.579914 0.572847 0.526877 0.412646 0.209488 0.0261857 0.000157982 8.13294e-09 2.27537e-13 3.53347e-18 2.81661e-22 8.24374e-22 -2.68249e-22 0 -2.56055e-22 -2.50365e-22 2.44923e-22 2.39712e-22 -2.34718e-22 -4.59855e-22 0 0 0.166331 0.257843 0.242332 0.288655 0.294806 0.324508 0.32567 0.34257 0.356155 0.358151 0.380492 0.389003 0.394268 0.413527 0.421822 0.431858 0.438854 0.445735 0.464147 0.471292 0.468664 0.479506 0.481204 0.496658 0.505564 0.507145 0.514219 0.514833 0.519299 0.53362 0.527118 0.484817 0.379706 0.192765 0.0240954 0.00014537 7.4837e-09 2.09261e-13 -1.02576e-17 -2.81661e-22 -2.74791e-22 -5.36497e-22 0 0 0 4.89845e-22 4.79423e-22 -4.69435e-22 -6.89782e-22 0 0 0.151737 0.23522 0.22107 0.263329 0.26894 0.296035 0.297095 0.312513 0.324906 0.326727 0.347108 0.354872 0.359675 0.377244 0.384811 0.393967 0.400349 0.406626 0.423423 0.429941 0.427543 0.437434 0.438983 0.453081 0.461206 0.462648 0.469101 0.469661 0.473736 0.486801 0.480869 0.442279 0.34639 0.175852 0.0219812 0.000132615 6.82708e-09 1.90855e-13 4.25166e-18 8.44983e-22 -5.49582e-22 5.36497e-22 -2.6201e-22 7.68166e-22 -5.00731e-22 -4.89845e-22 4.79423e-22 4.69435e-22 -9.1971e-22 0 0 0.136993 0.212365 0.199589 0.237742 0.242808 0.267271 0.268228 0.282147 0.293336 0.29498 0.313381 0.320391 0.324727 0.340589 0.347421 0.355687 0.361449 0.367116 0.382281 0.388165 0.386 0.394931 0.396329 0.409057 0.416392 0.417694 0.423521 0.424026 0.427705 0.4395 0.434145 0.399305 0.312733 0.158765 0.0198454 0.00011973 6.16372e-09 1.72424e-13 -1.9608e-17 5.63322e-22 0 0 5.24021e-22 5.12111e-22 5.00731e-22 -7.34768e-22 2.39712e-22 4.69435e-22 0 0 0 0.122114 0.1893 0.177912 0.211921 0.216436 0.238243 0.239096 0.251503 0.261477 0.262943 0.279344 0.285593 0.289458 0.303597 0.309687 0.317056 0.322192 0.327243 0.340761 0.346006 0.344077 0.352037 0.353284 0.36463 0.371168 0.372329 0.377522 0.377973 0.381252 0.391766 0.386992 0.355936 0.278767 0.141521 0.01769 0.000106726 5.49428e-09 1.53759e-13 5.0476e-18 -2.81661e-22 -5.49582e-22 -2.68249e-22 -5.24021e-22 -5.12111e-22 0 -2.44923e-22 4.79423e-22 -2.34718e-22 2.29927e-22 0 0 0.107115 0.166048 0.156059 0.185891 0.189852 0.208979 0.209727 0.220611 0.22936 0.230645 0.245032 0.250514 0.253904 0.266306 0.271648 0.278112 0.282617 0.287048 0.298905 0.303506 0.301814 0.308796 0.30989 0.319842 0.325577 0.326595 0.331151 0.331546 0.334423 0.343645 0.339458 0.312217 0.244526 0.124138 0.0155171 9.36167e-05 4.81942e-09 1.34826e-13 2.64448e-18 2.81661e-22 0 2.68249e-22 2.6201e-22 -2.56055e-22 -2.50365e-22 -2.44923e-22 0 -2.34718e-22 -2.29927e-22 0 0 0.09201 0.142633 0.134052 0.159677 0.163079 0.17951 0.180152 0.189501 0.197016 0.19812 0.210479 0.215187 0.218099 0.228753 0.233341 0.238893 0.242763 0.246569 0.256755 0.260707 0.259253 0.26