<?xml version="1.0"?>
<VTKFile type="PolyData">
	<PolyData>
		<Piece NumberOfPoints="2601" NumberOfPolys="2500">
			<Points>
				<DataArray type="Float32" NumberOfComponents="3" format="ascii">
 1e-06 0 0 0.248742 0 0 0.283553 0 0 0.31542 0 0 0.341578 0 0 0.362808 0 0 0.380957 0 0 0.396581 0 0 0.410865 0 0 0.424177 0 0 0.435693 0 0 0.44607 0 0 0.455781 0 0 0.465027 0 0 0.473214 0 0 0.480675 0 0 0.487619 0 0 0.494147 0 0 0.500055 0 0 0.505554 0 0 0.510673 0 0 0.515474 0 0 0.519993 0 0 0.524166 0 0 0.528124 0 0 0.53202 0 0 0.537139 0 0 0.545712 0 0 0.560572 0 0 0.580006 0 0 0.600001 0 0 0.620001 0 0 0.640001 0 0 0.660001 0 0 0.680001 0 0 0.700001 0 0 0.720001 0 0 0.740001 0 0 0.760001 0 0 0.780001 0 0 0.800001 0 0 0.820001 0 0 0.840001 0 0 0.860001 0 0 0.880001 0 0 0.900001 0 0 0.920001 0 0 0.940001 0 0 0.960001 0 0 0.980001 0 0 1 0 0 9.99507e-07 3.14108e-08 0 0.248619 0.00781318 0 0.283413 0.00890662 0 0.315265 0.0099076 0 0.341409 0.0107292 0 0.362629 0.0113961 0 0.380769 0.0119662 0 0.396385 0.0124569 0 0.410662 0.0129056 0 0.423968 0.0133237 0 0.435478 0.0136855 0 0.44585 0.0140114 0 0.455556 0.0143164 0 0.464797 0.0146068 0 0.47298 0.014864 0 0.480437 0.0150984 0 0.487379 0.0153165 0 0.493903 0.0155215 0 0.499808 0.0157071 0 0.505304 0.0158798 0 0.510421 0.0160406 0 0.515219 0.0161914 0 0.519736 0.0163334 0 0.523908 0.0164645 0 0.527863 0.0165888 0 0.531757 0.0167112 0 0.536874 0.016872 0 0.545443 0.0171412 0 0.560295 0.017608 0 0.579719 0.0182184 0 0.599705 0.0188465 0 0.619695 0.0194747 0 0.639685 0.0201029 0 0.659675 0.0207311 0 0.679665 0.0213593 0 0.699656 0.0219876 0 0.719646 0.0226158 0 0.739636 0.023244 0 0.759626 0.0238722 0 0.779616 0.0245004 0 0.799606 0.0251286 0 0.819596 0.0257569 0 0.839587 0.0263851 0 0.859577 0.0270133 0 0.879567 0.0276415 0 0.899557 0.0282697 0 0.919547 0.0288979 0 0.939537 0.0295261 0 0.959527 0.0301544 0 0.979517 0.0307826 0 0.999508 0.0314108 0 9.98027e-07 6.27905e-08 0 0.248251 0.0156186 0 0.282994 0.0178045 0 0.314798 0.0198054 0 0.340904 0.0214478 0 0.362092 0.0227809 0 0.380205 0.0239205 0 0.395799 0.0249015 0 0.410054 0.0257984 0 0.42334 0.0266343 0 0.434833 0.0273574 0 0.445189 0.0280089 0 0.454881 0.0286187 0 0.464109 0.0291993 0 0.47228 0.0297133 0 0.479726 0.0301818 0 0.486657 0.0306179 0 0.493172 0.0310278 0 0.499068 0.0313987 0 0.504556 0.031744 0 0.509665 0.0320654 0 0.514457 0.0323669 0 0.518966 0.0326506 0 0.523132 0.0329127 0 0.527082 0.0331612 0 0.53097 0.0334058 0 0.536079 0.0337273 0 0.544635 0.0342655 0 0.559466 0.0351986 0 0.578861 0.0364188 0 0.598817 0.0376744 0 0.618778 0.0389302 0 0.638738 0.040186 0 0.658699 0.0414418 0 0.678659 0.0426976 0 0.69862 0.0439534 0 0.71858 0.0452092 0 0.738541 0.046465 0 0.758501 0.0477209 0 0.778462 0.0489767 0 0.798422 0.0502325 0 0.818383 0.0514883 0 0.838343 0.0527441 0 0.858304 0.0539999 0 0.878265 0.0552557 0 0.898225 0.0565115 0 0.918186 0.0577673 0 0.938146 0.0590232 0 0.958107 0.060279 0 0.978067 0.0615348 0 0.998028 0.0627906 0 9.95562e-07 9.41083e-08 0 0.247638 0.0234087 0 0.282295 0.0266847 0 0.314021 0.0296837 0 0.340062 0.0321453 0 0.361198 0.0341432 0 0.379266 0.0358512 0 0.394821 0.0373216 0 0.409041 0.0386658 0 0.422295 0.0399186 0 0.43376 0.0410024 0 0.44409 0.0419789 0 0.453758 0.0428927 0 0.462963 0.0437629 0 0.471114 0.0445334 0 0.478541 0.0452355 0 0.485455 0.045889 0 0.491954 0.0465034 0 0.497836 0.0470594 0 0.50331 0.0475768 0 0.508406 0.0480586 0 0.513186 0.0485104 0 0.517685 0.0489356 0 0.52184 0.0493284 0 0.52578 0.0497008 0 0.529659 0.0500675 0 0.534756 0.0505493 0 0.54329 0.051356 0 0.558084 0.0527545 0 0.577431 0.0545833 0 0.597338 0.0564651 0 0.617249 0.0583472 0 0.637161 0.0602294 0 0.657072 0.0621116 0 0.676983 0.0639937 0 0.696894 0.0658759 0 0.716806 0.0677581 0 0.736717 0.0696402 0 0.756628 0.0715224 0 0.776539 0.0734046 0 0.796451 0.0752867 0 0.816362 0.0771689 0 0.836273 0.0790511 0 0.856184 0.0809332 0 0.876096 0.0828154 0 0.896007 0.0846976 0 0.915918 0.0865797 0 0.935829 0.0884619 0 0.95574 0.0903441 0 0.975652 0.0922262 0 0.995563 0.0941084 0 9.92115e-07 1.25333e-07 0 0.246781 0.0311756 0 0.281317 0.0355386 0 0.312933 0.0395327 0 0.338884 0.042811 0 0.359947 0.0454719 0 0.377953 0.0477466 0 0.393454 0.0497048 0 0.407625 0.051495 0 0.420833 0.0531635 0 0.432258 0.0546068 0 0.442552 0.0559074 0 0.452187 0.0571245 0 0.46136 0.0582833 0 0.469482 0.0593094 0 0.476884 0.0602445 0 0.483774 0.0611149 0 0.490251 0.0619331 0 0.496112 0.0626735 0 0.501567 0.0633627 0 0.506646 0.0640043 0 0.511409 0.064606 0 0.515892 0.0651724 0 0.520033 0.0656954 0 0.523959 0.0661915 0 0.527825 0.0666798 0 0.532904 0.0673214 0 0.541409 0.0683958 0 0.556151 0.0702583 0 0.575432 0.072694 0 0.59527 0.0752001 0 0.615112 0.0777067 0 0.634954 0.0802134 0 0.654797 0.0827201 0 0.674639 0.0852267 0 0.694481 0.0877334 0 0.714324 0.0902401 0 0.734166 0.0927467 0 0.754008 0.0952534 0 0.77385 0.09776 0 0.793693 0.100267 0 0.813535 0.102773 0 0.833377 0.10528 0 0.85322 0.107787 0 0.873062 0.110293 0 0.892904 0.1128 0 0.912747 0.115307 0 0.932589 0.117813 0 0.952431 0.12032 0 0.972273 0.122827 0 0.992116 0.125333 0 9.87688e-07 1.56434e-07 0 0.24568 0.0389118 0 0.280062 0.0443575 0 0.311537 0.0493426 0 0.337372 0.0534345 0 0.358341 0.0567556 0 0.376267 0.0595948 0 0.391699 0.062039 0 0.405806 0.0642734 0 0.418955 0.066356 0 0.430329 0.0681574 0 0.440578 0.0697807 0 0.450169 0.0712998 0 0.459302 0.0727462 0 0.467388 0.0740269 0 0.474757 0.0751941 0 0.481616 0.0762804 0 0.488063 0.0773017 0 0.493899 0.0782259 0 0.499329 0.079086 0 0.504386 0.0798868 0 0.509127 0.0806379 0 0.513591 0.0813448 0 0.517713 0.0819977 0 0.521622 0.0826168 0 0.52547 0.0832263 0 0.530526 0.0840271 0 0.538993 0.0853681 0 0.55367 0.0876927 0 0.572865 0.0907329 0 0.592614 0.0938608 0 0.612368 0.0969895 0 0.632122 0.100118 0 0.651875 0.103247 0 0.671629 0.106376 0 0.691383 0.109504 0 0.711137 0.112633 0 0.73089 0.115762 0 0.750644 0.11889 0 0.770398 0.122019 0 0.790152 0.125148 0 0.809905 0.128276 0 0.829659 0.131405 0 0.849413 0.134534 0 0.869167 0.137662 0 0.88892 0.140791 0 0.908674 0.14392 0 0.928428 0.147049 0 0.948182 0.150177 0 0.967936 0.153306 0 0.987689 0.156435 0 9.82287e-07 1.87381e-07 0 0.244336 0.0466096 0 0.278531 0.0531326 0 0.309833 0.0591039 0 0.335527 0.0640053 0 0.356381 0.0679834 0 0.374209 0.0713843 0 0.389557 0.0743119 0 0.403587 0.0769883 0 0.416664 0.0794829 0 0.427976 0.0816408 0 0.438169 0.0835851 0 0.447707 0.0854048 0 0.45679 0.0871373 0 0.464832 0.0886714 0 0.47216 0.0900694 0 0.478982 0.0913707 0 0.485395 0.092594 0 0.491198 0.093701 0 0.496599 0.0947313 0 0.501627 0.0956905 0 0.506343 0.0965901 0 0.510782 0.0974369 0 0.514882 0.0982189 0 0.518769 0.0989605 0 0.522596 0.0996906 0 0.527625 0.10065 0 0.536046 0.102256 0 0.550643 0.105041 0 0.569732 0.108682 0 0.589373 0.112429 0 0.609019 0.116177 0 0.628665 0.119924 0 0.648311 0.123672 0 0.667956 0.127419 0 0.687602 0.131167 0 0.707248 0.134915 0 0.726894 0.138662 0 0.746539 0.14241 0 0.766185 0.146158 0 0.785831 0.149905 0 0.805477 0.153653 0 0.825122 0.1574 0 0.844768 0.161148 0 0.864414 0.164896 0 0.88406 0.168643 0 0.903705 0.172391 0 0.923351 0.176139 0 0.942997 0.179886 0 0.962642 0.183634 0 0.982288 0.187382 0 9.75917e-07 2.18143e-07 0 0.242752 0.0542614 0 0.276724 0.0618552 0 0.307824 0.0688068 0 0.333351 0.0745128 0 0.35407 0.0791441 0 0.371782 0.0831032 0 0.38703 0.0865115 0 0.40097 0.0896273 0 0.413962 0.0925314 0 0.4252 0.0950435 0 0.435327 0.0973071 0 0.444804 0.0994255 0 0.453827 0.101442 0 0.461817 0.103228 0 0.469098 0.104856 0 0.475876 0.106371 0 0.482247 0.107795 0 0.488012 0.109084 0 0.493378 0.110283 0 0.498374 0.1114 0 0.503059 0.112447 0 0.507469 0.113433 0 0.511543 0.114343 0 0.515405 0.115207 0 0.519207 0.116057 0 0.524203 0.117173 0 0.532569 0.119043 0 0.547071 0.122285 0 0.566037 0.126524 0 0.585551 0.130886 0 0.605069 0.135249 0 0.624588 0.139612 0 0.644106 0.143975 0 0.663624 0.148338 0 0.683143 0.1527 0 0.702661 0.157063 0 0.722179 0.161426 0 0.741698 0.165789 0 0.761216 0.170152 0 0.780734 0.174515 0 0.800253 0.178878 0 0.819771 0.183241 0 0.839289 0.187603 0 0.858808 0.191966 0 0.878326 0.196329 0 0.897844 0.200692 0 0.917363 0.205055 0 0.936881 0.209418 0 0.956399 0.213781 0 0.975918 0.218143 0 9.68583e-07 2.4869e-07 0 0.240927 0.0618596 0 0.274645 0.0705168 0 0.305511 0.0784419 0 0.330846 0.0849469 0 0.351409 0.0902266 0 0.368989 0.0947402 0 0.384122 0.0986257 0 0.397956 0.102178 0 0.410851 0.105489 0 0.422005 0.108352 0 0.432056 0.110933 0 0.441461 0.113348 0 0.450417 0.115647 0 0.458347 0.117683 0 0.465573 0.119539 0 0.4723 0.121266 0 0.478623 0.122889 0 0.484345 0.124359 0 0.489671 0.125726 0 0.494629 0.126999 0 0.499279 0.128193 0 0.503656 0.129317 0 0.507699 0.130355 0 0.511532 0.131339 0 0.515306 0.132308 0 0.520264 0.133581 0 0.528567 0.135713 0 0.54296 0.139409 0 0.561784 0.144242 0 0.581151 0.149214 0 0.600523 0.154188 0 0.619894 0.159162 0 0.639266 0.164136 0 0.658638 0.169109 0 0.678009 0.174083 0 0.697381 0.179057 0 0.716753 0.184031 0 0.736124 0.189005 0 0.755496 0.193978 0 0.774867 0.198952 0 0.794239 0.203926 0 0.813611 0.2089 0 0.832982 0.213874 0 0.852354 0.218847 0 0.871726 0.223821 0 0.891097 0.228795 0 0.910469 0.233769 0 0.929841 0.238743 0 0.949212 0.243716 0 0.968584 0.24869 0 9.60294e-07 2.78991e-07 0 0.238865 0.0693968 0 0.272294 0.0791088 0 0.302896 0.0879995 0 0.328015 0.0952971 0 0.348402 0.10122 0 0.365831 0.106284 0 0.380834 0.110643 0 0.394551 0.114628 0 0.407335 0.118342 0 0.418393 0.121555 0 0.428358 0.124449 0 0.437683 0.127159 0 0.446562 0.129738 0 0.454424 0.132022 0 0.461589 0.134104 0 0.468258 0.136041 0 0.474526 0.137863 0 0.4802 0.139511 0 0.48548 0.141045 0 0.490396 0.142473 0 0.495006 0.143813 0 0.499346 0.145073 0 0.503353 0.146238 0 0.507154 0.147342 0 0.510895 0.148429 0 0.515812 0.149857 0 0.524044 0.152249 0 0.538314 0.156395 0 0.556976 0.161816 0 0.576177 0.167395 0 0.595383 0.172975 0 0.614589 0.178555 0 0.633795 0.184134 0 0.653001 0.189714 0 0.672207 0.195294 0 0.691412 0.200874 0 0.710618
[...]
			<PointData Scalars="VitesseX">
				<DataArray Name="VitesseX" type="Float32" format="ascii">
 0 0.749568 0.847274 0.986823 1.07347 1.18196 1.21386 1.3249 1.35375 1.40441 1.48518 1.50488 1.5162 1.55918 1.66554 1.63372 1.68615 1.70275 1.79204 1.83349 1.82993 1.87115 1.90113 1.91172 1.96564 1.91124 1.65969 1.06359 0.228168 0.00359578 4.87948e-07 8.54082e-12 1.49673e-16 0 0 0 0 0 0 0 0 0 0 0 0 0 0 0 0 0 0 0 0.749198 0.846855 0.986336 1.07294 1.18138 1.21327 1.32425 1.35308 1.40372 1.48444 1.50414 1.51545 1.55841 1.66472 1.63291 1.68532 1.70191 1.79115 1.83259 1.82902 1.87023 1.9002 1.91078 1.96467 1.9103 1.65887 1.06307 0.228056 0.00359401 4.87707e-07 8.53662e-12 1.36267e-16 0 4.28824e-22 0 -4.05001e-22 0 0 0 3.64501e-22 3.5561e-22 -3.47143e-22 -3.3907e-22 0 0 3.16957e-22 -3.10213e-22 0 5.95103e-22 0 0 0.748089 0.845602 0.984876 1.07135 1.17963 1.21147 1.32229 1.35108 1.40164 1.48224 1.50191 1.5132 1.55611 1.66226 1.6305 1.68283 1.69939 1.7885 1.82987 1.82631 1.86746 1.89738 1.90795 1.96176 1.90747 1.65642 1.06149 0.227718 0.00358869 4.86985e-07 8.52398e-12 1.34489e-16 0 0 -4.16572e-22 0 0 0 0 0 0 -3.47143e-22 0 0 0 3.16957e-22 -6.20427e-22 0 0 0 0 0.746241 0.843513 0.982443 1.0687 1.17672 1.20848 1.31902 1.34774 1.39818 1.47858 1.4982 1.50947 1.55226 1.65815 1.62647 1.67867 1.69519 1.78408 1.82536 1.8218 1.86285 1.8927 1.90323 1.95692 1.90276 1.65233 1.05887 0.227156 0.00357982 4.85783e-07 8.50292e-12 1.18567e-16 0 4.28824e-22 0 4.05001e-22 0 0 0 0 0 0 0 0 6.48001e-22 3.16957e-22 -3.10213e-22 0 0 0 0 0.743657 0.840593 0.979042 1.065 1.17264 1.20429 1.31446 1.34308 1.39334 1.47346 1.49302 1.50424 1.54689 1.65241 1.62084 1.67286 1.68932 1.7779 1.81903 1.8155 1.8564 1.88614 1.89664 1.95014 1.89617 1.64661 1.05521 0.226369 0.00356743 4.84101e-07 8.47351e-12 9.7415e-17 0 0 0 0 0 3.83685e-22 0 0 0 0 0 -3.31364e-22 3.24001e-22 -6.33914e-22 0 -3.03751e-22 -2.97552e-22 0 0 0.740339 0.836842 0.974674 1.06025 1.16741 1.19892 1.30859 1.33708 1.38712 1.46689 1.48636 1.49753 1.53999 1.64504 1.61361 1.66539 1.68178 1.76997 1.81092 1.8074 1.84812 1.87773 1.88818 1.94144 1.88771 1.63926 1.0505 0.225359 0.00355151 4.81941e-07 8.43569e-12 1.02908e-16 4.41819e-22 -4.28824e-22 -4.16572e-22 0 -3.94055e-22 -3.83685e-22 0 3.64501e-22 0 -3.47143e-22 0 0 3.24001e-22 0 6.20427e-22 -3.03751e-22 0 0 0 0.736291 0.832266 0.969344 1.05445 1.16103 1.19236 1.30144 1.32977 1.37953 1.45887 1.47823 1.48934 1.53156 1.63604 1.60478 1.65629 1.67259 1.76029 1.80102 1.79751 1.83801 1.86746 1.87786 1.93082 1.87739 1.63029 1.04475 0.224127 0.00353209 4.79305e-07 8.38955e-12 1.09474e-16 0 4.28824e-22 0 0 0 3.83685e-22 0 0 0 3.47143e-22 0 -3.31364e-22 -3.24001e-22 0 6.20427e-22 -3.03751e-22 2.97552e-22 0 0 0.731516 0.826868 0.963057 1.04761 1.1535 1.18463 1.293 1.32115 1.37059 1.44941 1.46864 1.47968 1.52163 1.62543 1.59437 1.64555 1.66174 1.74888 1.78934 1.78586 1.82609 1.85535 1.86568 1.9183 1.86521 1.61972 1.03798 0.222673 0.00350918 4.76197e-07 8.33515e-12 7.39615e-17 -4.41819e-22 0 -4.16572e-22 0 0 0 -3.73847e-22 0 0 -3.47143e-22 3.3907e-22 0 -3.24001e-22 -3.16957e-22 -3.10213e-22 0 0 0 0 0.726019 0.820655 0.95582 1.03974 1.14483 1.17573 1.28328 1.31122 1.36029 1.43852 1.4576 1.46856 1.5102 1.61322 1.58239 1.63318 1.64925 1.73574 1.77589 1.77244 1.81237 1.84141 1.85166 1.90389 1.85119 1.60755 1.03018 0.221 0.00348281 4.72618e-07 8.27248e-12 9.37465e-17 0 0 0 0 3.94055e-22 0 0 0 0 0 3.3907e-22 6.62728e-22 -3.24001e-22 0 0 0 2.97552e-22 0 0 0.719805 0.813631 0.94764 1.03084 1.13503 1.16567 1.2723 1.3 1.34865 1.4262 1.44513 1.45599 1.49727 1.59941 1.56885 1.6192 1.63514 1.72088 1.76069 1.75727 1.79686 1.82565 1.83581 1.88759 1.83535 1.59379 1.02136 0.219108 0.00345301 4.68574e-07 8.20163e-12 9.34055e-17 0 -4.28824e-22 0 0 3.94055e-22 -3.83685e-22 0 0 0 -6.94287e-22 -6.78141e-22 6.62728e-22 3.24001e-22 3.16957e-22 0 0 2.97552e-22 0 0 0.712881 0.805805 0.938524 1.02093 1.12411 1.15445 1.26006 1.28749 1.33567 1.41249 1.43123 1.44199 1.48287 1.58403 1.55376 1.60363 1.61941 1.70433 1.74376 1.74036 1.77957 1.80809 1.81815 1.86943 1.8177 1.57846 1.01154 0.217001 0.00341979 4.64066e-07 8.12278e-12 9.14753e-17 -2.20909e-22 0 0 0 0 0 3.73847e-22 -3.64501e-22 7.11221e-22 3.47143e-22 0 0 0 -3.16957e-22 -3.10213e-22 -3.03751e-22 2.97552e-22 0 0 0.705254 0.797183 0.928483 1.01 1.11208 1.1421 1.24658 1.27372 1.32138 1.39737 1.41592 1.42656 1.467 1.56708 1.53714 1.58647 1.60208 1.68609 1.7251 1.72174 1.76053 1.78874 1.7987 1.84943 1.79825 1.56157 1.00071 0.214679 0.0033832 4.59101e-07 8.03587e-12 8.39437e-17 0 2.14412e-22 0 0 -3.94055e-22 3.83685e-22 3.73847e-22 -3.64501e-22 -3.5561e-22 -3.47143e-22 0 -3.31364e-22 3.24001e-22 3.16957e-22 -3.10213e-22 -3.03751e-22 5.95103e-22 0 0 0.696931 0.787775 0.917525 0.998083 1.09896 1.12862 1.23187 1.25869 1.30579 1.38088 1.3992 1.40972 1.44969 1.54858 1.51899 1.56775 1.58317 1.66619 1.70474 1.70142 1.73975 1.76763 1.77747 1.82761 1.77703 1.54314 0.988903 0.212145 0.00334327 4.53683e-07 7.94107e-12 2.34888e-17 0 -4.28824e-22 -2.08286e-22 -2.025e-22 -1.97027e-22 3.83685e-22 -3.73847e-22 0 -3.5561e-22 0 3.3907e-22 -3.31364e-22 -3.24001e-22 -3.16957e-22 -3.10213e-22 -3.03751e-22 0 0 0 0.687919 0.777589 0.905661 0.985178 1.08475 1.11403 1.21594 1.24241 1.2889 1.36303 1.38111 1.3915 1.43095 1.52856 1.49935 1.54748 1.5627 1.64465 1.6827 1.67942 1.71726 1.74477 1.75449 1.80397 1.75405 1.52319 0.976117 0.209402 0.00330004 4.47817e-07 7.83838e-12 1.34136e-17 -4.41819e-22 0 4.16572e-22 2.025e-22 -1.97027e-22 0 3.73847e-22 3.64501e-22 0 0 0 0 6.48001e-22 0 3.10213e-22 0 -2.97552e-22 0 0 0.678229 0.766636 0.892904 0.971301 1.06947 1.09834 1.19881 1.22491 1.27075 1.34383 1.36166 1.3719 1.41079 1.50703 1.47823 1.52568 1.54069 1.62148 1.65899 1.65577 1.69307 1.7202 1.72978 1.77856 1.72934 1.50173 0.962367 0.206453 0.00325356 4.41509e-07 7.72786e-12 -2.22836e-17 -2.20909e-22 -2.14412e-22 2.08286e-22 2.025e-22 1.97027e-22 -1.91842e-22 -1.86923e-22 0 0 3.47143e-22 0 0 0 -3.16957e-22 0 3.03751e-22 -2.97552e-22 0 0 0.66787 0.754926 0.879266 0.956465 1.05313 1.08156 1.1805 1.2062 1.25134 1.3233 1.34086 1.35094 1.38924 1.48401 1.45566 1.50237 1.51716 1.59672 1.63365 1.63048 1.66721 1.69392 1.70335 1.7514 1.70293 1.4788 0.947667 0.203299 0.00320386 4.34765e-07 7.60988e-12 -9.20757e-18 2.20909e-22 0 -6.24858e-22 0 0 0 0 -3.64501e-22 -1.77805e-22 0 3.3907e-22 0 0 3.16957e-22 0 3.03751e-22 2.97552e-22 0 0 0.656851 0.742471 0.86476 0.940685 1.03576 1.06372 1.16102 1.1863 1.23069 1.30147 1.31874 1.32865 1.36632 1.45953 1.43164 1.47759 1.49213 1.57037 1.6067 1.60358 1.6397 1.66598 1.67525 1.7225 1.67483 1.4544 0.932033 0.199945 0.00315101 4.27592e-07 7.48421e-12 6.41206e-21 -4.41819e-22 2.14412e-22 0 2.025e-22 3.94055e-22 5.75527e-22 3.73847e-22 1.8225e-22 3.5561e-22 -3.47143e-22 -3.3907e-22 1.65682e-22 -3.24001e-22 -3.16957e-22 0 0 -2.97552e-22 0 0 0.645185 0.729284 0.8494 0.923977 1.01736 1.04482 1.1404 1.16523 1.20883 1.27835 1.29532 1.30505 1.34205 1.4336 1.40621 1.45134 1.46563 1.54248 1.57816 1.57509 1.61058 1.63639 1.6455 1.69191 1.64508 1.42857 0.915478 0.196394 0.00309504 4.19997e-07 7.35146e-12 -1.40309e-17 2.20909e-22 2.14412e-22 0 -4.05001e-22 -3.94055e-22 0 -1.86923e-22 -1.8225e-22 5.33415e-22 1.73572e-22 0 0 0 3.16957e-22 3.10213e-22 3.03751e-22 -2.97552e-22 0 0 0.632881 0.715377 0.833202 0.906357 0.997963 1.0249 1.11865 1.14301 1.18578 1.25398 1.27061 1.28017 1.31646 1.40627 1.3794 1.42367 1.43768 1.51307 1.54807 1.54506 1.57987 1.60518 1.61412 1.65964 1.61371 1.40132 0.89802 0.192649 0.00303602 4.11988e-07 7.21132e-12 -3.29623e-18 -4.41819e-22 2.14412e-22 0 4.05001e-22 5.91082e-22 -5.75527e-22 5.6077e-22 -5.46751e-22 3.5561e-22 -5.20715e-22 3.3907e-22 0 -3.24001e-22 -1.58479e-22 -1.55107e-22 0 -2.97552e-22 0 0 0.619953 0.700764 0.816182 0.887843 0.977577 1.00396 1.0958 1.11966 1.16156 1.22836 1.24466 1.25402 1.28957 1.37754 1.35122 1.39459 1.40831 1.48216 1.51645 1.5135 1.5476 1.57239 1.58115 1.62574 1.58075 1.3727 0.879676 0.188713 0.002974 4.03572e-07 7.06384e-12 5.68171e-17 -6.62728e-22 1.07206e-22 1.04143e-22 0 -5.91082e-22 -1.91842e-22 -1.86923e-22 -1.8225e-22 3.5561e-22 -8.67859e-22 3.3907e-22 3.31364e-22 -3.24001e-22 1.58479e-22 -3.10213e-22 3.03751e-22 -2.97552e-22 0 0 0.606413 0.685459 0.798357 0.868452 0.956226 0.982037 1.07187 1.09521 1.13619 1.20153 1.21748 1.22663 1.2614 1.34745 1.32171 1.36413 1.37755 1.44979 1.48333 1.48044 1.5138 1.53805 1.54661 1.59024 1.54622 1.34272 0.860464 0.184592 0.00290905 3.94758e-07 6.90967e-12 -4.74756e-18 4.41819e-22 -2.14412e-22 2.08286e-22 5.06251e-22 -1.97027e-22 -1.91842e-22 -1.86923e-22 1.8225e-22 7.11221e-22 0 -1.69535e-22 3.31364e-22 1.62e-22 -3.16957e-22 -3.10213e-22 0 0 0 0 0.592275 0.669477 0.779743 0.848204 0.933932 0.959141 1.04688 1.06967 1.1097 1.17352 1.18909 1.19803 1.232 1.31604 1.29089 1.33232 1.34543 1.41599 1.44874 1.44592 1.4785 1.50219 1.51055 1.55316 1.51018 1.31141 0.840403 0.180288 0.00284122 3.85555e-07 6.74855e-12 -2.05255e-18 2.20909e-22 1.07206e-22 0 1.0125e-22 9.85137e-23 -9.59212e-23 1.86923e-22 -3.64501e-22 -5.33415e-22 6.94287e-22 0 -4.97046e-22 0 0 -1.55107e-22 -3.03751e-22 -2.97552e-22 0 0 0.577552 0.652835 0.76036 0.82712 0.910716 0.935298 1.02086 1.04308 1.08212 1.14435 1.15953 1.16825 1.20137 1.28332 1.2588 1.2992 1.31199 1.38079 1.41273 1.40998 1.44175 1.46485 1.473 1.51455 1.47264 1.27881 0.819512 0.175807 0.0027706 3.75971e-07 6.58085e-12 1.43937e-17 -5.52273e-23 0 -3.12429e-22 1.0125e-22 2.95541e-22 -7.6737e-22 4.67308e-22 1.8225e-22 0 -3.47143e-22 1.69535e-22 3.31364e-22 4.86001e-22 -1.58479e-22 4.6532e-22 4.55626e-22 -1.48776e-22 0 0 0.562259 0.635549 0.740227 0.805219 0.886602 0.910533 0.993826 1.01546 1.05346 1.11405 1.12883 1.13732 1.16956 1.24934 1.22547 1.2648 1.27725 1.34423 1.37532 1.37265 1.40357 1.42606 1.434 1.47445 1.43364 1.24495 0.797812 0.171152 0.00269723 3.66015e-07 6.40635e-12 4.42696e-17 2.20909e-22 0 4.68643e-22 2.025e-22 1.97027e-22 -2.87764e-22 2.80385e-22 9.11251e-23 6.22318e-22 8.67859e-23 -3.3907e-22 -1.65682e-22 0 -4.75436e-22 -1.55107e-22 0 -1.48776e-22 0 0 0.546411 0.617636 0.719363 0.782523 0.861612 0.884869 0.965814 0.986842 1.02377 1.08265 1.09701 1.10526 1.13659 1.21413 1.19093 1.22915 1.24125 1.30634 1.33656 1.33396 1.36401 1.38587 1.39358 1.43289 1.39323 1.20986 0.775325 0.166327 0.00262121 3.55699e-07 6.2258e-12 -1.26252e-17 2.76137e-22 -2.68015e-22 -3.645e-22 2.53125e-22 -1.4777e-22 -1.91842e-22 -1.86923e-22 -3.64501e-22 0 1.73572e-22 1.69535e-22 -1.65682e-22 0 0 -1.55107e-22 1.51875e-22 1.48776e-22 0 0 0.530024 0.599113 0.697789 0.759055 0.835773 0.858332 0.936849 0.957246 0.993068 1.05018 1.06411 1.07211 1.10251 1.17772 1.15521 1.19229 1.20402 1.26716 1.29648 1.29395 1.32311 1.3443 1.35179 1.38992 1.35145 1.17358 0.752073 0.161339 0.0025426 3.45031e-07 6.03931e-12 -2.90462e-17 -1.10455e-22 -2.41214e-22 -3.645e-22 -1.51875e-22 1.97027e-22 -4.31645e-22 -4.67308e-23 -6.37876e-22 -2.66708e-22 2.60358e-22 1.69535e-22 -1.65682e-22 0 1.58479e-22 -7.75533e-23 -1.51875e-22 2.97552e-22 0 0 0.513114 0.579999 0.675527 0.734838 0.809108 0.830947 0.90696 0.926706 0.961385 1.01667 1.03016 1.03791 1.06733 1.14014 1.11836 1.15425 1.16561 1.22673 1.25511 1.25267 1.28089 1.30142 1.30866 1.34557 1.30833 1.13614 0.728079 0.156192 0.00246148 3.34023e-07 5.8467e-12 6.08752e-19 7.59376e-23 -3.68521e-22 4.81661e-22 -4.55626e-22 2.46284e-23 2.87764e-22 -1.86923e-22 2.73375e-22 1.77805e-22 8.67859e-23 -1.69535e-22 8.2841e-23 4.05001e-22 0 3.87767e-22 -4.55626e-22 3.71939e-22 0 0 0.495698 0.560312 0.652598 0.709896 0.781645 0.802743 0.876175 0.895251 0.928753 0.982164 0.995197 1.00268 1.03111 1.10144 1.0804 1.11507 1.12605 1.18509 1.21251 1.21015 1.23742 1.25724 1.26424 1.2999 1.26393 1.09757 0.703366 0.15089 0.00237793 3.22686e-07 5.64813e-12 4.31594e-17 4.97046e-22 6.70038e-23 -1.17161e-22 -2.84766e-22 9.85137e-23 9.59212e-23 4.67308e-22 -8.20126e-22 -2.22256e-22 -2.16965e-22 4.66222e-22 -4.14205e-23 0 1.58479e-22 3.10213e-22 -6.07501e-22 5.95103e-22 0 0 0.477793 0.540072 0.629025 0.684253 0.75341 0.773746 0.844526 0.862913 0.895205 0.946687 0.959248 0.96646 0.99386 1.06166 1.04137 1.0748 1.08537 1.14229 1.16871 1.16644 1.19272 1.21183 1.21858 1.25295 1.21827 1.05793 0.677959 0.14544 0.00229204 3.1103e-07 5.44405e-12 -1.7989e-17 5.52273e-22 2.94817e-22 -1.56214e-22 -7.59376e-22 4.30997e-23 4.04668e-23 -1.63558e-22 4.10063e-22 8.89026e-22 -3.47143e-22 -1.05959e-21 1.65682e-22 -2.025e-22 -3.56577e-22 1.55107e-22 -3.03751e-22 0 0 0 0.459415 0.5193 0.604831 0.657935 0.724432 0.743986 0.812044 0.829723 0.860773 0.910275 0.922353 0.929288 0.955634 1.02082 1.00132 1.03346 1.04363 1.09835 1.12376 1.12157 1.14684 1.16522 1.17171 1.20475 1.17141 1.01724 0.651883 0.139846 0.00220388 2.99067e-07 5.23487e-12 1.58978e-17 3.31364e-22 3.21618e-22 1.04143e-22 1.0125e-22 -1.23142e-22 -4.79606e-22 6.42549e-22 8.68536e-23 2.72264e-22 4.44777e-22 2.33111e-22 4.14205e-22 -5.67001e-22 -2.77337e-22 3.87767e-23 7.59376e-23 3.71939e-22 0 0 0.440585 0.498015 0.58004 0.630967 0.694739 0.713491 0.77876 0.795715 0.825492 0.872964 0.884548 0.891198 0.916464 0.978983 0.960276 0.991097 1.00085 1.05333 1.0777 1.0756 1.09984 1.11746 1.12368 1.15537 1.1234 0.975543 0.625164 0.134114 0.00211355 2.86809e-07 5.02004e-12 -2.18055e-18 -3.31364e-22 -2.68015e-22 2.08286e-22 1.0125e-22 9.85137e-23 7.6737e-22 -4.90674e-22 2.73375e-22 3.44497e-22 5.96653e-23 2.46356e-22 -2.07103e-23 5.16376e-22 -2.37718e-22 4.26543e-22 1.89844e-22 -3.71939e-22 0 0 0.42132 0.476238 0.554677 0.603377 0.664361 0.682293 0.744707 0.760921 0.789396 0.834793 0.84587 0.852229 0.87639 0.936175 0.918287 0.947759 0.957086 1.00727 1.03058 1.02857 1.05174 1.0686 1.07455 1.10485 1.07428 0.932885 0.597827 0.12825 0.00202113 2.74268e-07 4.80073e-12 -4.24794e-17 1.10455e-22 -2.14412e-22 -2.08286e-22 -6.58126e-22 -2.95541e-22 -1.43882e-22 -3.73847e-22 -4.10063e-22 -6.66769e-23 -6.07501e-22 7.20524e-22 -3.41719e-22 -4.55626e-23 9.65729e-23 3.68378e-22 6.26485e-22 2.78955e-22 0 0 0.401639 0.453992 0.528766 0.575192 0.633326 0.650421 0.70992 0.725376 0.752521 0.795797 0.806357 0.812419 0.835451 0.892444 0.875391 0.903487 0.912377 0.960221 0.982434 0.980523 1.00261 1.01868 1.02435 1.05324 1.02409 0.889308 0.569901 0.122259 0.00192672 2.61456e-07 4.57651e-12 -1.91271e-17 -2.20909e-22 0 6.24858e-22 -3.0375e-22 -2.95541e-22 9.59212e-23 -9.34617e-23 -2.73375e-22 -2.22256e-22 5.20715e-22 -3.3907e-22 -1.44972e-22 -1.4175e-22 3.56577e-22 2.22966e-22 -3.79688e-22 -3.64384e-22 0 0 0.381561 0.431297 0.502334 0.546439 0.601667 0.617907 0.674431 0.689115 0.714903 0.756016 0.766048 0.771807 0.793688 0.847831 0.831631 0.858322 0.866769 0.91222 0.933324 0.931508 0.952495 0.967756 0.973144 1.00059 0.9729 0.844852 0.541412 0.116147 0.0018304 2.48386e-07 4.34771e-12 7.66979e-17 -1.10455e-22 -4.28824e-22 2.08286e-22 -3.0375e-22 -2.95541e-22 -1.91842e-22 2.80385e-22 9.11251e-23 -5.33415e-22 -7.81073e-22 -3.81454e-22 -1.65682e-22 -2.835e-22 -3.96196e-22 3.10213e-22 2.08828e-22 -2.04567e-22 0 0 0.361107 0.408177 0.475406 0.517146 0.569414 0.584783 0.638278 0.652174 0.67658 0.715489 0.724983 0.730433 0.751142 0.802382 0.787051 0.812311 0.820304 0.86332 0.883292 0.881573 0.901435 0.915878 0.920978 0.946954 0.920746 0.799563 0.512389 0.109921 0.00173228 2.35071e-07 4.11448e-12 -3.33492e-17 0 0 -2.08286e-22 0 0 0 0 0 -8.89026e-23 4.33929e-22 -2.54303e-22 -2.48523e-22 -2.43e-22 -2.37718e-22 -2.71437e-22 1.89844e-22 -4.09133e-22 0 0 0.340297 0.384654 0.448008 0.487343 0.536599 0.551083 0.601494 0.61459 0.637589 0.674256 0.683203 0.688339 0.707854 0.756142 0.741693 0.765498 0.773031 0.813567 0.832388 0.830769 0.849486 0.863097 0.867902 0.892382 0.867684 0.753485 0.482861 0.103586 0.00163245 2.21524e-07 3.8774e-12 3.1661e-17 4.41819e-22 4.28824e-22 -2.08286e-22 -5.06251e-22 -3.94055e-22 -1.91842e-22 -1.86923e-22 -1.8225e-22 -4.44513e-22 -1.73572e-22 -4.23838e-22 8.2841e-23 4.05001e-22 7.92393e-23 -7.75533e-23 1.89844e-22 0 0 0 0.31915 0.360752 0.420169 0.45706 0.503254 0.516838 0.564117 0.576399 0.597969 0.632357 0.640748 0.645565 0.663867 0.709155 0.695604 0.71793 0.724994 0.763012 0.780663 0.779144 0.796699 0.809463 0.81397 0.836929 0.813766 0.706663 0.452855 0.0971493 0.00153101 2.07758e-07 3.63649e-12 -7.71081e-17 4.41819e-22 4.28824e-22 0 -2.025e-22 3.94055e-22 -3.83685e-22 -5.6077e-22 -5.46751e-22 -2.66708e-22 -2.60358e-22 -5.93373e-22 -3.31364e-22 4.86001e-22 3.16957e-22 -6.9798e-22 -6.83439e-22 7.43879e-23 0 0 0.297689 0.336493 0.391915 0.426325 0.469413 0.482084 0.526183 0.537639 0.557759 0.589834 0.597661 0.602154 0.619226 0.661468 0.648828 0.669653 0.676242 0.711703 0.728168 0.726751 0.743125 0.755031 0.759235 0.78065 0.759045 0.659143 0.422403 0.0906165 0.00142806 1.93788e-07 3.39198e-12 9.27602e-17 2.20909e-22 0 0 0 3.94055e-22 3.83685e-22 3.73847e-22 3.64501e-22 0 0 3.3907e-22 0 8.10001e-23 5.54675e-22 2.3266e-22 -2.27813e-22 -1.48776e-22 0 0 0.275934 0.311902 0.363274 0.395169 0.435109 0.446853 0.48773 0.498349 0.516998 0.54673 0.553984 0.558149 0.573973 0.613128 0.601412 0.620715 0.626823 0.659692 0.674954 0.673641 0.688818 0.699854 0.703751 0.7236 0.703574 0.610974 0.391534 0.0839943 0.0013237 1.79626e-07 3.14405e-12 2.47335e-17 -2.20909e-22 -2.14412e-22 -4.16572e-22 -2.025e-22 0 5.75527e-22 -1.86923e-22 1.8225e-22 5.33415e-22 -1.73572e-22 0 -1.65682e-22 -1.62e-22 1.58479e-22 1.55107e-22 -1.51875e-22 -2.97552e-22 0 0 0.253907 0.287004 0.334274 0.363624 0.400375 0.411182 0.448796 0.458567 0.475727 0.503085 0.509761 0.513593 0.528154 0.564183 0.553403 0.571164 0.576785 0.60703 0.621073 0.619865 0.633831 0.643986 0.647572 0.665837 0.647409 0.562201 0.360279 0.0772892 0.00121803 1.65287e-07 2.89315e-12 2.14344e-17 6.62728e-22 0 -4.16572e-22 -2.025e-22 -1.97027e-22 5.75527e-22 -3.73847e-22 -1.8225e-22 -1.77805e-22 -3.47143e-22 0 0 0 3.16957e-22 3.10213e-22 -3.03751e-22 -4.46327e-22 0 0 0.231629 0.261822 0.304945 0.331719 0.365246 0.375105 0.409418 0.418332 0.433987 0.458945 0.465034 0.46853 0.481814 0.514682 0.504847 0.52105 0.526178 0.553769 0.56658 0.565478 0.578218 0.587483 0.590754 0.607416 0.590605 0.512873 0.328668 0.0705079 0.00111116 1.50784e-07 2.6392e-12 3.09079e-18 -4.41819e-22 4.28824e-22 -6.24858e-22 -8.10001e-22 -3.94055e-22 -1.91842e-22 3.73847e-22 5.46751e-22 -3.5561e-22 3.47143e-22 -1.69535e-22 4.97046e-22 -3.24001e-22 -3.16957e-22 3.10213e-22 3.03751e-22 -5.95103e-22 0 0 0.209123 0.236382 0.275315 0.299487 0.329757 0.338657 0.369637 0.377684 0.391818 0.414351 0.419849 0.423005 0.434998 0.464672 0.455793 0.470422 0.475051 0.499962 0.511528 0.510533 0.522035 0.530399 0.533353 0.548396 0.533219 0.463039 0.296733 0.0636569 0.00100319 1.36133e-07 2.38281e-12 -1.99075e-17 -6.62728e-22 2.14412e-22 4.16572e-22 4.05001e-22 3.94055e-22 1.91842e-22 -3.73847e-22 3.64501e-22 0 0 3.3907e-22 3.31364e-22 3.24001e-22 -4.75436e-22 1.55107e-22 3.03751e-22 0 0 0 0.18641 0.210708 0.245413 0.26696 0.293942 0.301876 0.32949 0.336664 0.349263 0.369348 0.374249 0.377063 0.387753 0.414204 0.40629 0.41933 0.423456 0.445661 0.455971 0.455084 0.465337 0.472793 0.475425 0.488835 0.475306 0.412749 0.264505 0.0567431 0.000894234 1.21348e-07 2.12408e-12 5.91653e-17 -2.20909e-22 -4.28824e-22 2.08286e-22 -2.025e-22 -3.94055e-22 -1.91842e-22 -1.86923e-22 -1.8225e-22 -3.5561e-22 -1.73572e-22 -3.3907e-22 -3.31364e-22 0 -1.58479e-22 3.10213e-22 -1.51875e-22 1.48776e-22 0 0 0.163513 0.184827 0.215269 0.234169 0.257837 0.264796 0.289019 0.295312 0.306363 0.323981 0.32828 0.330748 0.340125 0.363327 0.356385 0.367823 0.371443 0.39092 0.399964 0.399186 0.40818 0.414719 0.417029 0.428791 0.416924 0.362051 0.232015 0.0497734 0.000784395 1.06443e-07 1.86311e-12 2.63059e-17 2.20909e-22 8.57648e-22 -2.08286e-22 -4.05001e-22 1.97027e-22 0 -1.86923e-22 1.8225e-22 0 1.73572e-22 1.69535e-22 -1.65682e-22 -1.62e-22 -1.58479e-22 0 -1.51875e-22 -1.48776e-22 0 0 0.140455 0.158763 0.184912 0.201147 0.221477 0.227455 0.248262 0.253668 0.26316 0.278294 0.281987 0.284107 0.292162 0.312092 0.306129 0.315954 0.319063 0.335794 0.343562 0.342894 0.350619 0.356237 0.35822 0.368324 0.35813 0.31099