<?xml version="1.0"?>
<VTKFile type="PolyData">
	<PolyData>
		<Piece NumberOfPoints="2601" NumberOfPolys="2500">
			<Points>
				<DataArray type="Float32" NumberOfComponents="3" format="ascii">
 1e-06 0 0 0.135662 0 0 0.15383 0 0 0.171204 0 0 0.184804 0 0 0.194579 0 0 0.203208 0 0 0.21018 0 0 0.216215 0 0 0.220914 0 0 0.224989 0 0 0.229802 0 0 0.240963 0 0 0.260007 0 0 0.280001 0 0 0.300001 0 0 0.320001 0 0 0.340001 0 0 0.360001 0 0 0.380001 0 0 0.400001 0 0 0.420001 0 0 0.440001 0 0 0.460001 0 0 0.480001 0 0 0.500001 0 0 0.520001 0 0 0.540001 0 0 0.560001 0 0 0.580001 0 0 0.600001 0 0 0.620001 0 0 0.640001 0 0 0.660001 0 0 0.680001 0 0 0.700001 0 0 0.720001 0 0 0.740001 0 0 0.760001 0 0 0.780001 0 0 0.800001 0 0 0.820001 0 0 0.840001 0 0 0.860001 0 0 0.880001 0 0 0.900001 0 0 0.920001 0 0 0.940001 0 0 0.960001 0 0 0.980001 0 0 1 0 0 9.99507e-07 3.14108e-08 0 0.135595 0.00426124 0 0.153754 0.00483193 0 0.171119 0.00537765 0 0.184713 0.00580485 0 0.194483 0.00611186 0 0.203108 0.00638292 0 0.210076 0.00660191 0 0.216108 0.00679146 0 0.220805 0.00693907 0 0.224878 0.00706708 0 0.229688 0.00721824 0 0.240844 0.00756883 0 0.259878 0.008167 0 0.279863 0.00879504 0 0.299853 0.00942326 0 0.319843 0.0100515 0 0.339833 0.0106797 0 0.359823 0.0113079 0 0.379813 0.0119361 0 0.399804 0.0125643 0 0.419794 0.0131926 0 0.439784 0.0138208 0 0.459774 0.014449 0 0.479764 0.0150772 0 0.499754 0.0157054 0 0.519744 0.0163336 0 0.539735 0.0169618 0 0.559725 0.0175901 0 0.579715 0.0182183 0 0.599705 0.0188465 0 0.619695 0.0194747 0 0.639685 0.0201029 0 0.659675 0.0207311 0 0.679665 0.0213593 0 0.699656 0.0219876 0 0.719646 0.0226158 0 0.739636 0.023244 0 0.759626 0.0238722 0 0.779616 0.0245004 0 0.799606 0.0251286 0 0.819596 0.0257569 0 0.839587 0.0263851 0 0.859577 0.0270133 0 0.879567 0.0276415 0 0.899557 0.0282697 0 0.919547 0.0288979 0 0.939537 0.0295261 0 0.959527 0.0301544 0 0.979517 0.0307826 0 0.999508 0.0314108 0 9.98027e-07 6.27905e-08 0 0.135394 0.00851828 0 0.153527 0.00965908 0 0.170866 0.01075 0 0.18444 0.011604 0 0.194195 0.0122177 0 0.202807 0.0127595 0 0.209765 0.0131973 0 0.215788 0.0135762 0 0.220478 0.0138713 0 0.224545 0.0141272 0 0.229348 0.0144294 0 0.240488 0.0151302 0 0.259493 0.0163259 0 0.279448 0.0175814 0 0.299409 0.0188372 0 0.31937 0.020093 0 0.33933 0.0213488 0 0.359291 0.0226046 0 0.379251 0.0238605 0 0.399212 0.0251163 0 0.419172 0.0263721 0 0.439133 0.0276279 0 0.459093 0.0288837 0 0.479054 0.0301395 0 0.499014 0.0313953 0 0.518975 0.0326511 0 0.538935 0.0339069 0 0.558896 0.0351628 0 0.578857 0.0364186 0 0.598817 0.0376744 0 0.618778 0.0389302 0 0.638738 0.040186 0 0.658699 0.0414418 0 0.678659 0.0426976 0 0.69862 0.0439534 0 0.71858 0.0452092 0 0.738541 0.046465 0 0.758501 0.0477209 0 0.778462 0.0489767 0 0.798422 0.0502325 0 0.818383 0.0514883 0 0.838343 0.0527441 0 0.858304 0.0539999 0 0.878265 0.0552557 0 0.898225 0.0565115 0 0.918186 0.0577673 0 0.938146 0.0590232 0 0.958107 0.060279 0 0.978067 0.0615348 0 0.998028 0.0627906 0 9.95562e-07 9.41083e-08 0 0.13506 0.0127669 0 0.153148 0.0144767 0 0.170444 0.0161117 0 0.183984 0.0173916 0 0.193715 0.0183115 0 0.202306 0.0191236 0 0.209247 0.0197797 0 0.215255 0.0203476 0 0.219933 0.0207898 0 0.223991 0.0211734 0 0.228782 0.0216262 0 0.239894 0.0226766 0 0.258853 0.0244688 0 0.278758 0.0263504 0 0.29867 0.0282326 0 0.318581 0.0301148 0 0.338492 0.0319969 0 0.358403 0.0338791 0 0.378315 0.0357613 0 0.398226 0.0376434 0 0.418137 0.0395256 0 0.438048 0.0414078 0 0.457959 0.0432899 0 0.477871 0.0451721 0 0.497782 0.0470543 0 0.517693 0.0489364 0 0.537604 0.0508186 0 0.557516 0.0527007 0 0.577427 0.0545829 0 0.597338 0.0564651 0 0.617249 0.0583472 0 0.637161 0.0602294 0 0.657072 0.0621116 0 0.676983 0.0639937 0 0.696894 0.0658759 0 0.716806 0.0677581 0 0.736717 0.0696402 0 0.756628 0.0715224 0 0.776539 0.0734046 0 0.796451 0.0752867 0 0.816362 0.0771689 0 0.836273 0.0790511 0 0.856184 0.0809332 0 0.876096 0.0828154 0 0.896007 0.0846976 0 0.915918 0.0865797 0 0.935829 0.0884619 0 0.95574 0.0903441 0 0.975652 0.0922262 0 0.995563 0.0941084 0 9.92115e-07 1.25333e-07 0 0.134592 0.0170029 0 0.152617 0.01928 0 0.169854 0.0214575 0 0.183347 0.0231621 0 0.193044 0.0243872 0 0.201606 0.0254687 0 0.208523 0.0263425 0 0.21451 0.0270989 0 0.219172 0.0276878 0 0.223215 0.0281986 0 0.22799 0.0288018 0 0.239063 0.0302007 0 0.257956 0.0325875 0 0.277793 0.0350934 0 0.297635 0.0376001 0 0.317478 0.0401068 0 0.33732 0.0426134 0 0.357162 0.0451201 0 0.377005 0.0476268 0 0.396847 0.0501334 0 0.416689 0.0526401 0 0.436531 0.0551467 0 0.456374 0.0576534 0 0.476216 0.0601601 0 0.496058 0.0626667 0 0.515901 0.0651734 0 0.535743 0.0676801 0 0.555585 0.0701867 0 0.575428 0.0726934 0 0.59527 0.0752001 0 0.615112 0.0777067 0 0.634954 0.0802134 0 0.654797 0.0827201 0 0.674639 0.0852267 0 0.694481 0.0877334 0 0.714324 0.0902401 0 0.734166 0.0927467 0 0.754008 0.0952534 0 0.77385 0.09776 0 0.793693 0.100267 0 0.813535 0.102773 0 0.833377 0.10528 0 0.85322 0.107787 0 0.873062 0.110293 0 0.892904 0.1128 0 0.912747 0.115307 0 0.932589 0.117813 0 0.952431 0.12032 0 0.972273 0.122827 0 0.992116 0.125333 0 9.87688e-07 1.56434e-07 0 0.133992 0.0212222 0 0.151936 0.0240644 0 0.169096 0.0267822 0 0.182529 0.0289098 0 0.192183 0.0304388 0 0.200706 0.0317888 0 0.207592 0.0328794 0 0.213553 0.0338234 0 0.218194 0.0345585 0 0.222219 0.0351961 0 0.226972 0.0359489 0 0.237996 0.0376949 0 0.256805 0.040674 0 0.276554 0.0438018 0 0.296307 0.0469305 0 0.316061 0.0500592 0 0.335815 0.0531879 0 0.355569 0.0563166 0 0.375323 0.0594453 0 0.395076 0.0625739 0 0.41483 0.0657026 0 0.434584 0.0688313 0 0.454338 0.07196 0 0.474091 0.0750887 0 0.493845 0.0782174 0 0.513599 0.0813461 0 0.533353 0.0844748 0 0.553106 0.0876035 0 0.57286 0.0907321 0 0.592614 0.0938608 0 0.612368 0.0969895 0 0.632122 0.100118 0 0.651875 0.103247 0 0.671629 0.106376 0 0.691383 0.109504 0 0.711137 0.112633 0 0.73089 0.115762 0 0.750644 0.11889 0 0.770398 0.122019 0 0.790152 0.125148 0 0.809905 0.128276 0 0.829659 0.131405 0 0.849413 0.134534 0 0.869167 0.137662 0 0.88892 0.140791 0 0.908674 0.14392 0 0.928428 0.147049 0 0.948182 0.150177 0 0.967936 0.153306 0 0.987689 0.156435 0 9.82287e-07 1.87381e-07 0 0.133259 0.0254205 0 0.151106 0.0288249 0 0.168171 0.0320804 0 0.181531 0.0346289 0 0.191132 0.0364604 0 0.199609 0.0380774 0 0.206457 0.0393838 0 0.212385 0.0405146 0 0.217001 0.0413951 0 0.221004 0.0421588 0 0.225731 0.0430605 0 0.236695 0.045152 0 0.255401 0.0487204 0 0.275041 0.052467 0 0.294687 0.0562146 0 0.314333 0.0599622 0 0.333979 0.0637098 0 0.353624 0.0674575 0 0.37327 0.0712051 0 0.392916 0.0749527 0 0.412562 0.0787003 0 0.432207 0.082448 0 0.451853 0.0861956 0 0.471499 0.0899432 0 0.491145 0.0936908 0 0.51079 0.0974385 0 0.530436 0.101186 0 0.550082 0.104934 0 0.569728 0.108681 0 0.589373 0.112429 0 0.609019 0.116177 0 0.628665 0.119924 0 0.648311 0.123672 0 0.667956 0.127419 0 0.687602 0.131167 0 0.707248 0.134915 0 0.726894 0.138662 0 0.746539 0.14241 0 0.766185 0.146158 0 0.785831 0.149905 0 0.805477 0.153653 0 0.825122 0.1574 0 0.844768 0.161148 0 0.864414 0.164896 0 0.88406 0.168643 0 0.903705 0.172391 0 0.923351 0.176139 0 0.942997 0.179886 0 0.962642 0.183634 0 0.982288 0.187382 0 9.75917e-07 2.18143e-07 0 0.132395 0.0295937 0 0.150126 0.033557 0 0.167081 0.037347 0 0.180354 0.0403138 0 0.189893 0.042446 0 0.198314 0.0443285 0 0.205118 0.0458493 0 0.211007 0.0471658 0 0.215593 0.0481908 0 0.219571 0.0490799 0 0.224267 0.0501297 0 0.23516 0.0525645 0 0.253745 0.0567187 0 0.273258 0.0610803 0 0.292776 0.0654432 0 0.312294 0.0698061 0 0.331813 0.0741689 0 0.351331 0.0785318 0 0.370849 0.0828946 0 0.390368 0.0872575 0 0.409886 0.0916204 0 0.429404 0.0959832 0 0.448923 0.100346 0 0.468441 0.104709 0 0.487959 0.109072 0 0.507478 0.113435 0 0.526996 0.117798 0 0.546514 0.12216 0 0.566033 0.126523 0 0.585551 0.130886 0 0.605069 0.135249 0 0.624588 0.139612 0 0.644106 0.143975 0 0.663624 0.148338 0 0.683143 0.1527 0 0.702661 0.157063 0 0.722179 0.161426 0 0.741698 0.165789 0 0.761216 0.170152 0 0.780734 0.174515 0 0.800253 0.178878 0 0.819771 0.183241 0 0.839289 0.187603 0 0.858808 0.191966 0 0.878326 0.196329 0 0.897844 0.200692 0 0.917363 0.205055 0 0.936881 0.209418 0 0.956399 0.213781 0 0.975918 0.218143 0 9.68583e-07 2.4869e-07 0 0.1314 0.0337377 0 0.148997 0.038256 0 0.165825 0.0425767 0 0.178998 0.045959 0 0.188466 0.0483897 0 0.196824 0.0505358 0 0.203577 0.0522696 0 0.209422 0.0537704 0 0.213973 0.054939 0 0.217921 0.0559526 0 0.222582 0.0571493 0 0.233393 0.0599251 0 0.251838 0.064661 0 0.271204 0.0696334 0 0.290576 0.0746072 0 0.309948 0.079581 0 0.329319 0.0845548 0 0.348691 0.0895286 0 0.368063 0.0945024 0 0.387434 0.0994762 0 0.406806 0.10445 0 0.426178 0.109424 0 0.445549 0.114398 0 0.464921 0.119371 0 0.484293 0.124345 0 0.503664 0.129319 0 0.523036 0.134293 0 0.542408 0.139267 0 0.561779 0.14424 0 0.581151 0.149214 0 0.600523 0.154188 0 0.619894 0.159162 0 0.639266 0.164136 0 0.658638 0.169109 0 0.678009 0.174083 0 0.697381 0.179057 0 0.716753 0.184031 0 0.736124 0.189005 0 0.755496 0.193978 0 0.774867 0.198952 0 0.794239 0.203926 0 0.813611 0.2089 0 0.832982 0.213874 0 0.852354 0.218847 0 0.871726 0.223821 0 0.891097 0.228795 0 0.910469 0.233769 0 0.929841 0.238743 0 0.949212 0.243716 0 0.968584 0.24869 0 9.60294e-07 2.78991e-07 0 0.130275 0.0378485 0 0.147722 0.0429173 0 0.164406 0.0477644 0 0.177467 0.0515588 0 0.186853 0.0542857 0 0.19514 0.0566933 0 0.201834 0.0586383 0 0.20763 0.0603219 0 0.212142 0.0616329 0 0.216056 0.06277 0 0.220677 0.0641126 0 0.231395 0.0672266 0 0.249683 0.0725395 0 0.268883 0.0781178 0 0.288089 0.0836976 0 0.307295 0.0892774 0 0.326501 0.0948573 0 0.345707 0.100437 0 0.364913 0.106017 0 0.384118 0.111597 0 0.403324 0.117177 0 0.42253 0.122756 0 0.441736 0.128336 0 0.460942 0.133916 0 0.480148 0.139496 0 0.499354 0.145076 0 0.51856 0.150655 0 0.537765 0.156235 0 0.556971 0.161815 0 0.576177 0.167395 0 0.595383 0.172975 0 0.614589 0.178555 0 0.633795 0.184134 0 0.653001 0.1897
[...]
			<PointData Scalars="VitesseX">
				<DataArray Name="VitesseX" type="Float32" format="ascii">
 0 1.92423 3.00928 2.69955 3.55665 3.73476 3.76561 3.9095 4.53464 4.48065 4.63888 3.9056 0.957283 0.0110865 7.04631e-07 3.00576e-12 1.14658e-17 0 0 0 0 0 0 0 0 0 0 0 0 0 0 0 0 0 0 0 0 0 0 0 0 0 0 0 0 0 0 0 0 0 0 0 1.92328 3.0078 2.69822 3.55489 3.73291 3.76375 3.90757 4.5324 4.47844 4.63659 3.90367 0.956811 0.011081 7.04283e-07 3.00428e-12 1.04865e-17 -7.76647e-23 0 6.94895e-23 -6.6015e-23 0 6.00137e-23 -5.74044e-23 5.50125e-23 0 0 0 0 0 0 0 0 0 7.76648e-23 0 -7.33501e-23 0 0 0 6.60151e-23 6.4405e-23 -6.28715e-23 -6.14094e-23 0 0 5.74044e-23 -5.61831e-23 0 1.0778e-22 0 0 1.92044 3.00334 2.69422 3.54963 3.72739 3.75818 3.90178 4.52569 4.47181 4.62972 3.8979 0.955394 0.0110646 7.03241e-07 2.99983e-12 8.84044e-18 7.76647e-23 0 0 0 0 0 -1.14809e-22 1.10025e-22 0 0 0 -9.43072e-23 0 0 0 0 0 0 -7.54458e-23 0 0 0 0 0 0 -6.28715e-23 0 0 0 5.74044e-23 -1.12366e-22 0 0 0 0 1.91569 2.99592 2.68757 3.54087 3.71818 3.7489 3.89215 4.51451 4.46076 4.61829 3.88827 0.953034 0.0110373 7.01504e-07 2.99242e-12 6.59354e-18 0 0 0 0 -6.28714e-23 0 0 0 -5.2812e-23 0 9.78001e-23 0 9.10553e-23 0 0 0 0 7.76648e-23 0 7.33501e-23 0 0 0 0 0 0 0 0 1.1736e-22 5.74044e-23 -5.61831e-23 0 0 0 0 1.90906 2.98555 2.67826 3.5286 3.70531 3.73592 3.87867 4.49888 4.44532 4.6023 3.87481 0.949734 0.0109991 6.99075e-07 2.98206e-12 5.46013e-18 0 -7.335e-23 0 0 0 -6.00137e-23 5.74044e-23 -5.50125e-23 -5.2812e-23 0 -4.89e-23 0 0 0 0 0 0 0 0 0 0 6.94896e-23 0 0 0 0 0 -6.00137e-23 5.86801e-23 -1.14809e-22 0 -5.50126e-23 -5.38899e-23 0 0 1.90054 2.97223 2.66631 3.51286 3.68877 3.71925 3.86136 4.47881 4.42548 4.58176 3.85752 0.945497 0.01095 6.95956e-07 2.96876e-12 -1.75871e-18 3.88323e-23 -7.335e-23 6.94895e-23 6.6015e-23 -6.28714e-23 -6.00137e-23 0 -5.50125e-23 0 5.07808e-23 -4.89e-23 0 9.10553e-23 8.80201e-23 0 0 8.00183e-23 -7.76648e-23 -7.54458e-23 0 -7.13677e-23 -6.94896e-23 0 6.60151e-23 0 -6.28715e-23 0 0 5.86801e-23 0 1.12366e-22 -5.50126e-23 0 0 0 1.89015 2.95598 2.65173 3.49365 3.6686 3.69891 3.84025 4.45432 4.40128 4.55671 3.83642 0.940327 0.0108901 6.9215e-07 2.95253e-12 -4.19346e-18 0 0 0 0 6.28714e-23 6.00137e-23 5.74044e-23 5.50125e-23 5.2812e-23 0 4.89e-23 -4.71536e-23 -4.55276e-23 0 -8.51807e-23 0 0 7.76648e-23 0 0 0 6.94896e-23 0 0 0 6.28715e-23 0 -6.00137e-23 -5.86801e-23 0 1.12366e-22 -5.50126e-23 5.38899e-23 0 0 1.87789 2.93681 2.63453 3.47099 3.64481 3.67492 3.81534 4.42543 4.37274 4.52716 3.81154 0.934228 0.0108195 6.87661e-07 2.93336e-12 9.32082e-18 -3.88323e-23 -7.335e-23 -3.47447e-23 6.6015e-23 0 -6.00137e-23 -5.74044e-23 0 -5.2812e-23 -5.07808e-23 -4.89e-23 0 4.55276e-23 4.401e-23 0 0 -8.00183e-23 0 -7.54458e-23 0 0 0 -6.77078e-23 0 0 -6.28715e-23 6.14094e-23 0 -5.86801e-23 -5.74044e-23 -5.61831e-23 0 0 0 0 1.86378 2.91474 2.61474 3.44491 3.61742 3.64731 3.78667 4.39217 4.33988 4.49314 3.7829 0.927208 0.0107382 6.82494e-07 2.9113e-12 6.18274e-18 1.16497e-22 0 1.04234e-22 -3.30075e-23 6.28714e-23 0 -5.74044e-23 0 -5.2812e-23 5.07808e-23 4.89e-23 -4.71536e-23 -4.55276e-23 -4.401e-23 0 4.12594e-23 0 0 0 0 7.13677e-23 0 0 0 0 0 6.14094e-23 1.20027e-22 -5.86801e-23 0 0 0 5.38899e-23 0 0 1.84783 2.88979 2.59236 3.41543 3.58646 3.61609 3.75426 4.35458 4.30274 4.45468 3.75052 0.919273 0.0106463 6.76653e-07 2.8864e-12 -1.95099e-18 -7.76647e-23 3.6675e-23 1.04234e-22 -9.90225e-23 0 0 5.74044e-23 5.50125e-23 5.2812e-23 -5.07808e-23 4.89e-23 4.71536e-23 4.55276e-23 0 -4.25904e-23 4.12594e-23 0 -7.76648e-23 0 0 7.13677e-23 -6.94896e-23 0 0 0 -1.25743e-22 -1.22819e-22 1.20027e-22 5.86801e-23 5.74044e-23 0 0 5.38899e-23 0 0 1.83006 2.862 2.56742 3.38257 3.55196 3.58131 3.71815 4.3127 4.26135 4.41183 3.71445 0.91043 0.0105439 6.70144e-07 2.85865e-12 2.32568e-18 3.88323e-23 -1.467e-22 3.47447e-23 -6.6015e-23 0 -6.00137e-23 5.74044e-23 0 0 -5.07808e-23 0 0 0 4.401e-23 -8.51807e-23 4.12594e-23 -4.00091e-23 0 0 0 0 0 6.77078e-23 -6.60151e-23 1.2881e-22 6.28715e-23 0 0 0 -5.74044e-23 -5.61831e-23 -5.50126e-23 5.38899e-23 0 0 1.81047 2.83137 2.53995 3.34638 3.51396 3.54299 3.67837 4.26655 4.21576 4.36463 3.67471 0.900689 0.0104311 6.62974e-07 2.82804e-12 -8.42054e-18 -5.82485e-23 3.6675e-23 1.38979e-22 3.30075e-23 -3.14357e-23 3.00068e-23 0 5.50125e-23 -5.2812e-23 -5.07808e-23 0 -4.71536e-23 -9.10553e-23 4.401e-23 -4.25904e-23 4.12594e-23 0 3.88324e-23 0 0 -7.13677e-23 6.94896e-23 6.77078e-23 -6.60151e-23 -6.4405e-23 -6.28715e-23 0 -6.00137e-23 5.86801e-23 5.74044e-23 -5.61831e-23 -5.50126e-23 1.0778e-22 0 0 1.78911 2.79796 2.50998 3.30689 3.47249 3.50118 3.63496 4.2162 4.166 4.31312 3.63134 0.890059 0.010308 6.55149e-07 2.79469e-12 -2.84757e-17 1.94162e-23 1.83375e-23 -3.47447e-23 3.30075e-23 -3.14357e-23 3.00068e-23 -1.43511e-22 0 -2.6406e-23 -5.07808e-23 4.89e-23 0 0 4.401e-23 0 0 0 -7.76648e-23 -3.77229e-23 -3.6675e-23 -3.56838e-23 6.94896e-23 -6.77078e-23 0 -6.4405e-23 0 6.14094e-23 -6.00137e-23 -5.86801e-23 -5.74044e-23 -5.61831e-23 -5.50126e-23 0 0 0 1.76597 2.76178 2.47752 3.26413 3.42759 3.45591 3.58796 4.16168 4.11214 4.25735 3.58438 0.878551 0.0101747 6.46678e-07 2.75856e-12 4.03506e-18 -1.35913e-22 1.28362e-22 8.68618e-23 -8.25188e-23 -9.43072e-23 0 8.61066e-23 5.50125e-23 -1.05624e-22 -2.53904e-23 0 4.71536e-23 0 -8.80201e-23 -4.25904e-23 -8.25188e-23 -8.00183e-23 0 7.54458e-23 3.6675e-23 -3.56838e-23 0 6.77078e-23 6.60151e-23 0 0 0 0 1.1736e-22 0 5.61831e-23 0 -5.38899e-23 0 0 1.7411 2.72288 2.44262 3.21815 3.37931 3.40723 3.53742 4.10306 4.05421 4.19738 3.53389 0.866175 0.0100314 6.37569e-07 2.71969e-12 1.31236e-17 -8.73728e-23 0 1.56351e-22 3.30075e-23 -1.57179e-23 0 5.74044e-23 0 0 -5.07808e-23 9.78001e-23 4.71536e-23 9.10553e-23 8.80201e-23 -4.25904e-23 8.25188e-23 -4.00091e-23 -3.88324e-23 3.77229e-23 3.6675e-23 3.56838e-23 -3.47448e-23 -3.38539e-23 0 0 6.28715e-23 0 0 0 -5.74044e-23 0 5.50126e-23 -5.38899e-23 0 0 1.71451 2.68129 2.40532 3.169 3.32769 3.35518 3.48339 4.04039 3.99229 4.13327 3.47992 0.852945 0.00987816 6.27831e-07 2.67808e-12 -1.97919e-17 -5.82485e-23 -1.28362e-22 3.47447e-23 4.95113e-23 -1.57179e-23 -1.50034e-23 1.14809e-22 5.50125e-23 2.6406e-23 -2.53904e-23 -7.33501e-23 2.35768e-23 -6.82914e-23 4.401e-23 -4.25904e-23 4.12594e-23 4.00091e-23 0 -1.13169e-22 0 0 0 0 -6.60151e-23 -3.22025e-23 0 6.14094e-23 0 0 5.74044e-23 0 5.50126e-23 5.38899e-23 0 0 1.68622 2.63705 2.36563 3.11672 3.27279 3.29983 3.42592 3.97373 3.92642 4.06508 3.42251 0.838873 0.00971519 6.17473e-07 2.634e-12 8.26102e-19 -3.27648e-23 1.60453e-23 -4.7774e-23 2.47556e-23 1.57179e-23 3.00068e-23 1.43511e-23 -5.50125e-23 2.6406e-23 5.07808e-23 4.89e-23 0 0 -4.401e-23 -8.51807e-23 -4.12594e-23 -8.00183e-23 3.88324e-23 0 3.6675e-23 7.13677e-23 1.04234e-22 6.77078e-23 3.30075e-23 6.4405e-23 -6.28715e-23 -6.14094e-23 3.00069e-23 -5.86801e-23 -5.74044e-23 0 0 -5.38899e-23 0 0 1.65627 2.59021 2.32361 3.06136 3.21466 3.24122 3.36507 3.90315 3.85668 3.99287 3.36172 0.823974 0.00954263 6.06506e-07 2.58714e-12 -8.47475e-20 0 3.89672e-23 1.95439e-23 -4.95113e-23 -9.43072e-23 4.50102e-23 2.87022e-23 -1.37531e-23 -3.9609e-23 -5.07808e-23 -7.33501e-23 -9.43072e-23 6.82914e-23 -2.2005e-23 6.38855e-23 6.18891e-23 4.00091e-23 3.88324e-23 0 -7.33501e-23 -7.13677e-23 0 -3.38539e-23 -3.30075e-23 9.66074e-23 3.14358e-23 0 0 0 5.74044e-23 5.61831e-23 5.50126e-23 -5.38899e-23 0 0 1.62468 2.54082 2.2793 3.00298 3.15336 3.17941 3.3009 3.82872 3.78314 3.91673 3.29761 0.808261 0.00936066 5.9494e-07 2.53778e-12 9.77719e-21 8.73728e-23 -1.83375e-23 6.08033e-23 4.98336e-23 -4.71536e-23 -3.75085e-23 7.17555e-23 4.12594e-23 1.05624e-22 -6.3476e-23 0 -2.35768e-23 6.82914e-23 0 -8.51807e-23 2.06297e-23 -8.00183e-23 3.88324e-23 0 7.33501e-23 1.07051e-22 -1.04234e-22 1.01562e-22 -9.90226e-23 6.4405e-23 -9.43073e-23 6.14094e-23 0 -5.86801e-23 -2.87022e-23 -2.80915e-23 0 -5.38899e-23 0 0 1.5915 2.48892 2.23274 2.94164 3.08894 3.11446 3.23347 3.75051 3.70586 3.83672 3.23025 0.79175 0.00916944 5.82787e-07 2.48593e-12 2.94189e-22 1.35913e-22 3.6675e-23 -8.68618e-24 -5.36372e-23 5.8942e-24 -3.37577e-23 4.30533e-23 -8.93954e-23 -5.2812e-23 -5.07808e-23 -3.6675e-23 5.8942e-23 -2.27638e-23 -2.2005e-23 6.38855e-23 8.25188e-23 -1.20027e-22 1.94162e-23 1.88615e-23 0 -1.07051e-22 -3.47448e-23 -3.38539e-23 -3.30075e-23 6.4405e-23 -1.57179e-22 6.14094e-23 6.00137e-23 -5.86801e-23 2.87022e-23 -5.61831e-23 5.50126e-23 -5.38899e-23 0 0 1.55674 2.43456 2.18398 2.87739 3.02148 3.04644 3.16285 3.6686 3.62492 3.75293 3.1597 0.774458 0.00896918 5.70058e-07 2.43167e-12 -2.9083e-17 -5.82485e-23 0 0 -1.15526e-22 -7.85893e-24 -3.75085e-24 1.34541e-24 -1.71914e-23 -1.3203e-23 -6.3476e-24 7.33501e-23 -7.07304e-23 5.69095e-23 5.50126e-23 6.38855e-23 -4.12594e-23 8.00183e-23 -3.88324e-23 3.77229e-23 9.16876e-23 -3.56838e-23 -3.47448e-23 -3.38539e-23 3.30075e-23 1.2881e-22 0 -3.07047e-23 6.00137e-23 2.934e-23 -5.74044e-23 -5.61831e-23 0 0 0 0 1.52044 2.3778 2.13306 2.8103 2.95104 2.97542 3.08911 3.58307 3.54041 3.66543 3.08603 0.756402 0.00876007 5.56768e-07 2.37495e-12 -1.13935e-18 1.55329e-22 9.16875e-23 3.47447e-23 0 -5.50125e-23 3.75085e-23 3.58777e-24 5.93104e-23 5.2812e-23 0 -4.89e-23 2.35768e-23 -2.27638e-23 4.401e-23 -1.06476e-22 0 4.00091e-23 1.94162e-23 0 1.83375e-23 1.78419e-23 -1.73724e-23 3.38539e-23 -6.60151e-23 -9.66074e-23 1.25743e-22 0 -9.00206e-23 0 0 -2.80915e-23 -5.50126e-23 -5.38899e-23 0 0 1.48265 2.31869 2.08004 2.74045 2.87768 2.90145 3.01232 3.494 3.4524 3.57431 3.00932 0.737599 0.00854231 5.42928e-07 2.31593e-12 -1.31897e-17 -1.94162e-22 -1.10025e-22 -1.04234e-22 4.95113e-23 -4.71536e-23 1.50034e-23 -7.8931e-23 3.43828e-23 -2.31053e-23 2.02702e-24 2.445e-23 -4.71536e-23 4.55276e-23 -1.10025e-23 6.38855e-23 -3.09446e-23 -1.00023e-23 0 -5.65844e-23 1.83375e-23 5.35257e-23 -1.38979e-22 8.46347e-23 3.30075e-23 0 -6.28715e-23 3.07047e-23 6.00137e-23 8.80201e-23 -2.87022e-23 8.42746e-23 8.25189e-23 -2.69449e-23 0 0 1.44339 2.25729 2.02496 2.66788 2.80148 2.82463 2.93256 3.40148 3.36098 3.47967 2.92964 0.718068 0.00831612 5.28552e-07 2.25464e-12 -3.4416e-18 1.16497e-22 1.10025e-22 -1.38979e-22 0 1.10025e-22 7.50171e-23 -1.43511e-22 -1.37531e-23 -6.6015e-24 -4.7607e-23 6.26532e-23 -2.79975e-23 5.40641e-23 -4.95113e-23 6.92093e-23 -1.03149e-23 4.00091e-23 0 8.48765e-23 3.6675e-23 3.56838e-23 -5.21172e-23 5.07808e-23 1.65038e-23 1.12709e-22 1.57179e-23 -6.14094e-23 -3.00069e-23 0 -8.61067e-23 -2.80915e-23 0 -2.69449e-23 0 0 1.40271 2.19367 1.96789 2.59269 2.72252 2.74501 2.8499 3.30561 3.26625 3.38159 2.84706 0.697829 0.00808172 5.13654e-07 2.19109e-12 9.91577e-18 0 1.83375e-22 6.94895e-23 0 -6.28714e-23 6.00137e-23 2.87022e-23 0 0 -1.90428e-23 5.50125e-23 -6.18891e-23 9.2478e-24 8.25188e-24 -1.33095e-23 -1.03149e-23 5.00114e-23 -4.85405e-23 -6.60151e-23 4.58438e-23 -2.67629e-23 -3.47448e-23 -3.38539e-23 -6.60151e-23 0 3.14358e-23 3.07047e-23 -3.00069e-23 0 0 -2.80915e-23 2.75063e-23 2.69449e-23 0 0 1.36064 2.12788 1.90887 2.51493 2.64087 2.66269 2.76443 3.20647 3.1683 3.28018 2.76168 0.676901 0.00783935 4.98249e-07 2.12534e-12 -1.02421e-17 -3.88323e-23 -3.6675e-23 2.08468e-22 -6.6015e-23 3.14357e-23 3.00068e-23 -5.74044e-23 1.37531e-23 5.2812e-23 -1.01562e-22 8.55751e-23 3.53652e-23 7.39824e-23 -7.15163e-23 -5.98927e-24 -1.16042e-22 -2.00046e-23 -4.36864e-23 -6.60151e-23 -2.75063e-23 3.56838e-23 -7.81758e-23 -8.46347e-24 -1.15526e-22 -4.83037e-23 4.71536e-23 3.07047e-23 -3.00069e-23 0 2.87022e-23 -1.40458e-23 -2.75063e-23 5.38899e-23 0 0 1.31723 2.05999 1.84797 2.43469 2.55662 2.57774 2.67623 3.10417 3.06721 3.17553 2.67357 0.655305 0.00758924 4.82353e-07 2.05761e-12 -1.27171e-17 3.88323e-23 -1.467e-22 3.47447e-23 -6.6015e-23 0 -9.00205e-23 2.87022e-23 -2.75063e-23 -9.24211e-23 3.80856e-23 -1.2225e-23 1.06096e-22 1.13819e-22 6.05138e-23 3.72666e-23 1.03149e-22 1.37531e-23 -6.67432e-23 8.72342e-23 -8.25188e-23 4.46048e-24 5.21172e-23 -3.38539e-23 4.95113e-23 3.22025e-23 1.57179e-23 -3.07047e-23 1.50034e-23 7.33501e-23 0 7.02288e-23 -8.25189e-23 6.73624e-23 0 0 1.27252 1.99007 1.78524 2.35205 2.46984 2.49024 2.5854 2.99881 2.96311 3.06774 2.58282 0.633063 0.00733164 4.65981e-07 1.98774e-12 -1.88273e-18 1.55329e-22 3.6675e-23 -1.73724e-22 1.3203e-22 1.88614e-22 -9.00205e-23 5.74044e-23 2.75063e-23 2.6406e-23 -5.07808e-23 2.445e-23 -4.71536e-23 -5.69095e-23 -1.10025e-23 5.3238e-23 -9.28337e-23 9.00206e-23 1.21351e-23 -2.12191e-23 -5.15743e-23 1.78419e-23 1.73724e-23 8.46347e-23 -1.48534e-22 -4.02531e-23 -3.92947e-23 8.44379e-23 -7.50172e-24 0 2.87022e-23 5.61831e-23 -1.10025e-22 1.0778e-22 0 0 1.22655 1.91819 1.72076 2.26709 2.38062 2.40029 2.49201 2.89049 2.85607 2.95693 2.48952 0.610195 0.00706681 4.49149e-07 1.91597e-12 1.11606e-17 1.55329e-22 7.335e-23 1.38979e-22 -9.90225e-23 -6.28714e-23 1.20027e-22 2.87022e-23 8.25188e-23 2.6406e-23 1.52342e-22 -4.89e-23 2.35768e-23 -1.13819e-23 -8.80201e-23 6.38855e-23 4.12594e-23 1.00023e-22 5.33945e-23 -2.82922e-23 -1.37531e-22 7.80584e-24 7.32898e-24 -2.96222e-23 7.4267e-23 1.61012e-22 -6.28715e-23 -1.91904e-22 3.00069e-23 -3.66751e-23 -6.458e-23 2.80915e-23 -5.50126e-23 0 0 0 1.17938 1.84441 1.65457 2.1799 2.28906 2.30797 2.39616 2.77931 2.74622 2.8432 2.39377 0.586725 0.006795 4.31873e-07 1.84223e-12 -3.47347e-18 7.76647e-23 0 1.38979e-22 1.3203e-22 6.28714e-23 -6.00137e-23 0 8.25188e-23 -1.05624e-22 -7.61712e-23 -7.33501e-23 -4.71536e-23 4.55276e-23 -4.401e-23 -2.12952e-23 -6.18891e-23 6.00137e-23 5.82486e-23 1.88615e-23 1.83375e-23 -2.23024e-23 -8.6862e-23 1.16373e-22 1.57302e-23 4.93101e-23 8.05541e-23 4.2219e-23 7.50172e-23 -1.0269e-22 -5.02289e-23 7.02288e-24 1.37531e-23 6.73624e-23 0 0 1.13104 1.76881 1.58675 2.09055 2.19523 2.21337 2.29794 2.66539 2.63366 2.72666 2.29566 0.562677 0.00651649 4.14172e-07 1.7667e-12 -3.20644e-17 -7.76647e-23 -1.467e-22 6.94895e-23 1.3203e-22 -6.28714e-23 -6.00137e-23 -1.14809e-22 5.50125e-23 7.9218e-23 2.53904e-23 0 -4.71536e-23 0 -1.3203e-22 -1.06476e-22 -4.12594e-23 -6.00137e-23 -4.85405e-23 3.77229e-23 1.83375e-23 1.78419e-23 1.38979e-22 -8.88665e-23 4.95113e-23 6.23923e-23 1.0806e-23 4.46178e-23 -3.75086e-24 9.35214e-23 -4.30533e-23 7.72517e-23 3.43829e-23 -6.73624e-23 0 0 1.08158 1.69147 1.51737 1.99913 2.09924 2.11659 2.19746 2.54884 2.5185 2.60743 2.19527 0.538073 0.00623155 3.96061e-07 1.68948e-12 7.66016e-18 -7.76647e-23 1.467e-22 -6.94895e-23 -1.3203e-22 -6.28714e-23 0 1.72213e-22 0 -5.2812e-23 1.01562e-22 0 -2.35768e-23 2.27638e-23 2.2005e-23 6.38855e-23 -2.06297e-23 2.00046e-23 -3.88324e-23 -3.77229e-23 -1.19194e-22 -5.35257e-23 -2.60586e-23 -6.77078e-23 -7.4267e-23 -1.20759e-23 -1.10025e-22 1.30495e-22 -6.18892e-23 -8.25189e-24 1.74904e-23 6.67174e-23 1.13463e-22 5.05218e-23 0 0 1.03106 1.61245 1.44649 1.90575 2.00118 2.01771 2.09481 2.42978 2.40085 2.48563 2.09273 0.512938 0.00594045 3.7756e-07 1.61061e-12 1.22305e-17 -7.76647e-23 -7.335e-23 1.38979e-22 -6.6015e-23 -6.28714e-23 -6.00137e-23 -5.74044e-23 1.10025e-22 0 1.01562e-22 -9.78001e-23 7.07304e-23 2.27638e-23 1.10025e-22 2.12952e-23 0 -4.00091e-23 0 1.13169e-22 -5.50126e-23 -5.35257e-23 1.73724e-23 -1.69269e-23 -4.95113e-23 -4.02531e-23 9.43073e-23 -6.14094e-23 -2.6256e-23 -2.56725e-23 6.458e-23 4.03816e-23 -6.87657e-23 -6.59941e-23 0 0 0.979515 1.53185 1.37418 1.81048 1.90115 1.91685 1.9901 2.30832 2.28084 2.36138 1.98811 0.487297 0.0056435 3.58686e-07 1.53001e-12 1.19396e-17 -2.32994e-22 -2.2005e-22 6.94895e-23 -6.6015e-23 1.25743e-22 1.20027e-22 -1.14809e-22 0 -5.2812e-23 5.07808e-23 -4.89e-23 -4.71536e-23 0 0 0 -4.12594e-23 -2.00046e-23 -7.76648e-23 3.77229e-23 -5.50126e-23 -5.35257e-23 -3.47448e-23 5.07808e-23 1.65038e-23 -9.66074e-23 -1.41461e-22 -6.90856e-23 -3.00069e-23 -5.13451e-23 -7.17555e-23 5.61831e-23 3.78212e-23 -3.70493e-23 0 0 0.927007 1.44973 1.30052 1.71343 1.79923 1.8141 1.88341 2.18458 2.15857 2.2348 1.88154 0.461175 0.00534097 3.39459e-07 1.44804e-12 -9.21593e-18 1.55329e-22 -1.467e-22 -1.38979e-22 -6.6015e-23 0 -6.00137e-23 1.14809e-22 0 1.58436e-22 -1.01562e-22 4.89e-23 -4.71536e-23 -9.10553e-23 0 0 0 0 0 -3.77229e-23 0 0 0 0 0 -1.61012e-23 7.85894e-23 -4.6057e-23 -4.50103e-23 -4.40101e-23 -4.30533e-23 -4.91602e-23 3.43829e-23 -7.40986e-23 0 0 0.873584 1.36618 1.22557 1.61469 1.69554 1.70955 1.77487 2.05868 2.03417 2.10601 1.77311 0.434597 0.00503317 3.19896e-07 1.36452e-12 8.11849e-18 2.32994e-22 -7.335e-23 0 1.98045e-22 -6.28714e-23 -6.00137e-23 1.72213e-22 5.50125e-23 1.05624e-22 1.01562e-22 4.89e-23 4.71536e-23 0 0 0 4.12594e-23 8.00183e-23 7.76648e-23 -3.77229e-23 -9.16876e-23 -7.13677e-23 -3.47448e-23 -3.38539e-23 -3.30075e-23 -8.05062e-23 -3.14358e-23 -7.67617e-23 1.50034e-23 7.33501e-23 1.43511e-23 -1.40458e-23 3.43829e-23 0 0 0 0.819299 1.28129 1.14941 1.51435 1.59018 1.60332 1.66458 1.93075 1.90777 1.97514 1.66292 0.407591 0.00472041 3.00017e-07 1.27984e-12 -1.31062e-17 -1.55329e-22 1.467e-22 0 1.3203e-22 -1.25743e-22 -6.00137e-23 1.14809e-22 0 1.05624e-22 -5.07808e-23 0 4.71536e-23 9.10553e-23 -8.80201e-23 -8.51807e-23 4.12594e-23 8.00183e-23 7.76648e-23 0 -3.6675e-23 7.13677e-23 -6.94896e-23 -1.01562e-22 -9.90226e-23 -4.83037e-23 -4.71536e-23 -1.07466e-22 -6.00137e-23 8.80201e-23 5.74044e-23 -1.26412e-22 -1.23778e-22 1.34725e-23 0 0 0.764206 1.19513 1.07212 1.41252 1.48325 1.4955 1.55265 1.80092 1.77948 1.84232 1.5511 0.380183 0.00440299 2.79843e-07 1.19374e-12 1.73457e-17 0 -1.467e-22 -6.94895e-23 1.3203e-22 -1.88614e-22 -1.20027e-22 5.74044e-23 5.50125e-23 1.05624e-22 0 -4.89e-23 -4.71536e-23 0 1.3203e-22 4.25904e-23 0 4.00091e-23 0 0 0 7.13677e-23 6.94896e-23 6.77078e-23 6.60151e-23 0 0 6.14094e-23 0 1.467e-23 1.00458e-22 4.21373e-23 -4.12594e-23 -2.69449e-23 0 0 0.708358 1.10779 0.99377 1.30929 1.37486 1.38621 1.43918 1.66931 1.64944 1.70768 1.43775 0.352399 0.00408122 2.59392e-07 1.10646e-12 -4.03189e-18 7.76647e-23 7.335e-23 0 6.6015e-23 6.28714e-23 0 5.74044e-23 -5.50125e-23 -5.2812e-23 5.07808e-23 0 -4.71536e-23 0 -4.401e-23 0 -8.25188e-23 -4.00091e-23 -3.88324e-23 -7.54458e-23 -3.6675e-23 0 1.04234e-22 -3.38539e-23 3.30075e-23 9.66074e-23 -3.14358e-23 0 -3.00069e-23 -2.934e-23 2.87022e-23 2.80915e-23 -2.75063e-23 -5.38899e-23 0 0 0.651811 1.01936 0.914439 1.20477 1.2651 1.27555 1.32429 1.53605 1.51777 1.57136 1.32298 0.324268 0.00375542 2.38685e-07 1.01817e-12 -6.81423e-18 0 2.934e-22 1.38979e-22 -6.6015e-23 -6.28714e-23 6.00137e-23 -5.74044e-23 -5.50125e-23 0 1.01562e-22 9.78001e-23 -4.71536e-23 -9.10553e-23 -4.401e-23 0 1.23778e-22 1.20027e-22 0 -7.54458e-23 -3.6675e-23 -3.56838e-23 1.04234e-22 -6.77078e-23 -3.30075e-23 -3.22025e-23 -6.28715e-23 0 0 0 5.74044e-23 5.61831e-23 -5.50126e-23 -8.08348e-23 0 0 0.594621 0.929919 0.834206 1.09907 1.1541 1.16364 1.2081 1.40128 1.3846 1.43349 1.2069 0.295817 0.00342592 2.17743e-07 9.28833e-13 -1.13431e-18 -1.55329e-22 1.467e-22 0 1.3203e-22 1.88614e-22 1.80041e-22 -1.14809e-22 0 5.2812e-23 5.07808e-23 0 -4.71536e-23 4.55276e-23 1.3203e-22 4.25904e-23 -8.25188e-23 -8.00183e-23 7.76648e-23 -1.13169e-22 -1.467e-22 -7.13677e-23 -3.47448e-23 6.77078e-23 9.90226e-23 -6.4405e-23 6.28715e-23 -3.07047e-23 9.00206e-23 -5.86801e-23 -5.74044e-23 5.61831e-23 5.50126e-23 -1.0778e-22 0 0 0.536844 0.839562 0.75315 0.992274 1.04196 1.05057 1.09071 1.26512 1.25006 1.2942 1.08963 0.267073 0.00309304 1.96586e-07 8.38583e-13 1.09448e-17 -1.55329e-22 1.467e-22 -1.38979e-22 -1.3203e-22 -1.25743e-22 0 -2.29617e-22 -5.50125e-23 1.05624e-22 0 9.78001e-23 -1.41461e-22 4.55276e-23 -1.3203e-22 8.51807e-23 8.25188e-23 -1.20027e-22 3.88324e-23 7.54458e-23 7.33501e-23 7.13677e-23 3.47448e-23 -6.77078e-23 6.60151e-23 0 0 6.14094e-23 6.00137e-23 5.86801e-23 -8.61067e-23 2.80915e-23 5.50126e-23 0 0 0 0.478538 0.748378 0.67135 0.884503 0.928796 0.936469 0.972252 1.12772 1.11429 1.15364 0.971284 0.238067 0.0027571 1.75235e-07 7.47492e-13 -2.13891e-18 0 0 -2.77958e-22 0 0 -1.20027e-22 0 1.10025e-22 -1.05624e-22 -1.01562e-22 1.956e-22 4.71536e-23 9.10553e-23 1.3203e-22 -8.51807e-23 -4.12594e-23 -4.00091e-23 -7.76648e-23 3.77229e-23 -3.6675e-23 -7.13677e-23 -3.47448e-23 -3.38539e-23 -3.30075e-23 -6.4405e-23 -3.14358e-23