<?xml version="1.0"?>
<VTKFile type="PolyData">
	<PolyData>
		<Piece NumberOfPoints="2601" NumberOfPolys="2500">
			<Points>
				<DataArray type="Float32" NumberOfComponents="3" format="ascii">
 1e-06 0 0 0.263839 0 0 0.300682 0 0 0.334613 0 0 0.362356 0 0 0.385021 0 0 0.404495 0 0 0.421181 0 0 0.436686 0 0 0.451048 0 0 0.463495 0 0 0.474867 0 0 0.485412 0 0 0.495164 0 0 0.504094 0 0 0.51229 0 0 0.520115 0 0 0.527079 0 0 0.533691 0 0 0.539905 0 0 0.545796 0 0 0.55137 0 0 0.556377 0 0 0.561078 0 0 0.565491 0 0 0.569668 0 0 0.573689 0 0 0.577544 0 0 0.582194 0 0 0.589386 0 0 0.601765 0 0 0.620052 0 0 0.640001 0 0 0.660001 0 0 0.680001 0 0 0.700001 0 0 0.720001 0 0 0.740001 0 0 0.760001 0 0 0.780001 0 0 0.800001 0 0 0.820001 0 0 0.840001 0 0 0.860001 0 0 0.880001 0 0 0.900001 0 0 0.920001 0 0 0.940001 0 0 0.960001 0 0 0.980001 0 0 1 0 0 9.99507e-07 3.14108e-08 0 0.263709 0.00828738 0 0.300533 0.00944464 0 0.334448 0.0105104 0 0.362177 0.0113819 0 0.384831 0.0120938 0 0.404295 0.0127055 0 0.420973 0.0132296 0 0.43647 0.0137166 0 0.450826 0.0141678 0 0.463266 0.0145587 0 0.474632 0.0149159 0 0.485172 0.0152471 0 0.494919 0.0155535 0 0.503845 0.015834 0 0.512037 0.0160914 0 0.519858 0.0163372 0 0.526819 0.016556 0 0.533428 0.0167637 0 0.539639 0.0169588 0 0.545526 0.0171439 0 0.551098 0.017319 0 0.556103 0.0174762 0 0.560801 0.0176239 0 0.565212 0.0177625 0 0.569387 0.0178937 0 0.573406 0.01802 0 0.577259 0.0181411 0 0.581907 0.0182872 0 0.589096 0.0185131 0 0.601468 0.0189019 0 0.619746 0.0194763 0 0.639685 0.0201029 0 0.659675 0.0207311 0 0.679665 0.0213593 0 0.699656 0.0219876 0 0.719646 0.0226158 0 0.739636 0.023244 0 0.759626 0.0238722 0 0.779616 0.0245004 0 0.799606 0.0251286 0 0.819596 0.0257569 0 0.839587 0.0263851 0 0.859577 0.0270133 0 0.879567 0.0276415 0 0.899557 0.0282697 0 0.919547 0.0288979 0 0.939537 0.0295261 0 0.959527 0.0301544 0 0.979517 0.0307826 0 0.999508 0.0314108 0 9.98027e-07 6.27905e-08 0 0.263318 0.0165666 0 0.300088 0.01888 0 0.333953 0.0210105 0 0.361641 0.0227525 0 0.384261 0.0241757 0 0.403697 0.0253985 0 0.42035 0.0264462 0 0.435824 0.0274197 0 0.450158 0.0283216 0 0.46258 0.0291031 0 0.47393 0.0298171 0 0.484454 0.0304793 0 0.494186 0.0310916 0 0.503099 0.0316523 0 0.511279 0.0321669 0 0.519089 0.0326583 0 0.526039 0.0330956 0 0.532638 0.0335108 0 0.53884 0.0339009 0 0.544719 0.0342708 0 0.550282 0.0346208 0 0.555279 0.0349352 0 0.559971 0.0352304 0 0.564375 0.0355074 0 0.568544 0.0357697 0 0.572557 0.0360222 0 0.576404 0.0362643 0 0.581046 0.0365563 0 0.588223 0.0370079 0 0.600578 0.0377851 0 0.618828 0.0389334 0 0.638738 0.040186 0 0.658699 0.0414418 0 0.678659 0.0426976 0 0.69862 0.0439534 0 0.71858 0.0452092 0 0.738541 0.046465 0 0.758501 0.0477209 0 0.778462 0.0489767 0 0.798422 0.0502325 0 0.818383 0.0514883 0 0.838343 0.0527441 0 0.858304 0.0539999 0 0.878265 0.0552557 0 0.898225 0.0565115 0 0.918186 0.0577673 0 0.938146 0.0590232 0 0.958107 0.060279 0 0.978067 0.0615348 0 0.998028 0.0627906 0 9.95562e-07 9.41083e-08 0 0.262668 0.0248294 0 0.299347 0.0282966 0 0.333128 0.0314899 0 0.360748 0.0341007 0 0.383312 0.0362337 0 0.4027 0.0380663 0 0.419312 0.0396366 0 0.434748 0.0410958 0 0.449046 0.0424474 0 0.461438 0.0436187 0 0.472759 0.0446889 0 0.483257 0.0456813 0 0.492966 0.046599 0 0.501857 0.0474394 0 0.510016 0.0482107 0 0.517807 0.0489472 0 0.52474 0.0496026 0 0.531323 0.0502248 0 0.537509 0.0508096 0 0.543374 0.0513639 0 0.548923 0.0518885 0 0.553908 0.0523597 0 0.558588 0.0528021 0 0.562981 0.0532174 0 0.56714 0.0536105 0 0.571143 0.0539889 0 0.574981 0.0543517 0 0.579611 0.0547893 0 0.586771 0.0554662 0 0.599094 0.0566311 0 0.6173 0.058352 0 0.637161 0.0602294 0 0.657072 0.0621116 0 0.676983 0.0639937 0 0.696894 0.0658759 0 0.716806 0.0677581 0 0.736717 0.0696402 0 0.756628 0.0715224 0 0.776539 0.0734046 0 0.796451 0.0752867 0 0.816362 0.0771689 0 0.836273 0.0790511 0 0.856184 0.0809332 0 0.876096 0.0828154 0 0.896007 0.0846976 0 0.915918 0.0865797 0 0.935829 0.0884619 0 0.95574 0.0903441 0 0.975652 0.0922262 0 0.995563 0.0941084 0 9.92115e-07 1.25333e-07 0 0.261758 0.0330678 0 0.298311 0.0376854 0 0.331974 0.0419381 0 0.359498 0.0454152 0 0.381985 0.0482559 0 0.401306 0.0506967 0 0.41786 0.052788 0 0.433243 0.0547313 0 0.447492 0.0565313 0 0.45984 0.0580913 0 0.471122 0.0595166 0 0.481584 0.0608382 0 0.491259 0.0620605 0 0.500119 0.0631797 0 0.50825 0.0642069 0 0.516014 0.0651877 0 0.522923 0.0660606 0 0.529483 0.0668893 0 0.535648 0.0676681 0 0.541492 0.0684064 0 0.547023 0.069105 0 0.55199 0.0697326 0 0.556653 0.0703217 0 0.561031 0.0708748 0 0.565176 0.0713983 0 0.569165 0.0719023 0 0.57299 0.0723854 0 0.577604 0.0729683 0 0.584739 0.0738697 0 0.59702 0.0754211 0 0.615162 0.0777131 0 0.634954 0.0802134 0 0.654797 0.0827201 0 0.674639 0.0852267 0 0.694481 0.0877334 0 0.714324 0.0902401 0 0.734166 0.0927467 0 0.754008 0.0952534 0 0.77385 0.09776 0 0.793693 0.100267 0 0.813535 0.102773 0 0.833377 0.10528 0 0.85322 0.107787 0 0.873062 0.110293 0 0.892904 0.1128 0 0.912747 0.115307 0 0.932589 0.117813 0 0.952431 0.12032 0 0.972273 0.122827 0 0.992116 0.125333 0 9.87688e-07 1.56434e-07 0 0.260591 0.0412735 0 0.29698 0.047037 0 0.330493 0.052345 0 0.357895 0.0566849 0 0.380281 0.0602305 0 0.399515 0.063277 0 0.415995 0.0658872 0 0.43131 0.0683127 0 0.445495 0.0705595 0 0.457788 0.0725066 0 0.46902 0.0742855 0 0.479435 0.0759351 0 0.489067 0.0774607 0 0.497888 0.0788577 0 0.505983 0.0801398 0 0.513712 0.0813639 0 0.52059 0.0824534 0 0.527121 0.0834877 0 0.533258 0.0844598 0 0.539076 0.0853813 0 0.544582 0.0862533 0 0.549527 0.0870366 0 0.55417 0.0877719 0 0.558528 0.0884622 0 0.562654 0.0891157 0 0.566626 0.0897447 0 0.570433 0.0903478 0 0.575027 0.0910753 0 0.58213 0.0922004 0 0.594356 0.0941368 0 0.612418 0.0969975 0 0.632122 0.100118 0 0.651875 0.103247 0 0.671629 0.106376 0 0.691383 0.109504 0 0.711137 0.112633 0 0.73089 0.115762 0 0.750644 0.11889 0 0.770398 0.122019 0 0.790152 0.125148 0 0.809905 0.128276 0 0.829659 0.131405 0 0.849413 0.134534 0 0.869167 0.137662 0 0.88892 0.140791 0 0.908674 0.14392 0 0.928428 0.147049 0 0.948182 0.150177 0 0.967936 0.153306 0 0.987689 0.156435 0 9.82287e-07 1.87381e-07 0 0.259166 0.0494385 0 0.295356 0.0563421 0 0.328686 0.0627002 0 0.355937 0.0678987 0 0.378201 0.0721457 0 0.39733 0.0757948 0 0.413721 0.0789214 0 0.428951 0.0818268 0 0.443059 0.084518 0 0.455285 0.0868503 0 0.466456 0.0889811 0 0.476814 0.0909571 0 0.486393 0.0927844 0 0.495165 0.0944578 0 0.503216 0.0959936 0 0.510902 0.0974598 0 0.517743 0.0987648 0 0.524238 0.100004 0 0.530342 0.101168 0 0.536128 0.102272 0 0.541604 0.103317 0 0.546522 0.104255 0 0.55114 0.105135 0 0.555474 0.105962 0 0.559577 0.106745 0 0.563527 0.107499 0 0.567314 0.108221 0 0.571882 0.109092 0 0.578947 0.11044 0 0.591106 0.11276 0 0.609069 0.116186 0 0.628665 0.119924 0 0.648311 0.123672 0 0.667956 0.127419 0 0.687602 0.131167 0 0.707248 0.134915 0 0.726894 0.138662 0 0.746539 0.14241 0 0.766185 0.146158 0 0.785831 0.149905 0 0.805477 0.153653 0 0.825122 0.1574 0 0.844768 0.161148 0 0.864414 0.164896 0 0.88406 0.168643 0 0.903705 0.172391 0 0.923351 0.176139 0 0.942997 0.179886 0 0.962642 0.183634 0 0.982288 0.187382 0 9.75917e-07 2.18143e-07 0 0.257485 0.0575547 0 0.29344 0.0655917 0 0.326554 0.0729935 0 0.353629 0.0790455 0 0.375748 0.0839897 0 0.394754 0.0882379 0 0.411038 0.0918778 0 0.426169 0.0952601 0 0.440186 0.0983931 0 0.452332 0.101108 0 0.46343 0.103589 0 0.473721 0.105889 0 0.483238 0.108017 0 0.491954 0.109965 0 0.499952 0.111753 0 0.507589 0.11346 0 0.514386 0.114979 0 0.520838 0.116421 0 0.526903 0.117777 0 0.532651 0.119062 0 0.538092 0.120278 0 0.542978 0.12137 0 0.547565 0.122395 0 0.551872 0.123358 0 0.555948 0.124269 0 0.559873 0.125146 0 0.563635 0.125987 0 0.568173 0.127002 0 0.575192 0.128571 0 0.587273 0.131271 0 0.605119 0.13526 0 0.624588 0.139612 0 0.644106 0.143975 0 0.663624 0.148338 0 0.683143 0.1527 0 0.702661 0.157063 0 0.722179 0.161426 0 0.741698 0.165789 0 0.761216 0.170152 0 0.780734 0.174515 0 0.800253 0.178878 0 0.819771 0.183241 0 0.839289 0.187603 0 0.858808 0.191966 0 0.878326 0.196329 0 0.897844 0.200692 0 0.917363 0.205055 0 0.936881 0.209418 0 0.956399 0.213781 0 0.975918 0.218143 0 9.68583e-07 2.4869e-07 0 0.25555 0.0656141 0 0.291235 0.0747765 0 0.3241 0.0832148 0 0.350972 0.0901142 0 0.372925 0.0957508 0 0.391787 0.100594 0 0.407949 0.104743 0 0.422967 0.108599 0 0.436878 0.112171 0 0.448933 0.115266 0 0.459948 0.118095 0 0.470162 0.120717 0 0.479607 0.123142 0 0.488257 0.125363 0 0.496195 0.127401 0 0.503775 0.129347 0 0.51052 0.131079 0 0.516925 0.132724 0 0.522943 0.134269 0 0.528649 0.135734 0 0.534048 0.13712 0 0.538898 0.138365 0 0.54345 0.139534 0 0.547725 0.140632 0 0.551771 0.141671 0 0.555665 0.142671 0 0.559399 0.143629 0 0.563904 0.144786 0 0.57087 0.146574 0 0.582859 0.149653 0 0.600572 0.154201 0 0.619894 0.159162 0 0.639266 0.164136 0 0.658638 0.169109 0 0.678009 0.174083 0 0.697381 0.179057 0 0.716753 0.184031 0 0.736124 0.189005 0 0.755496 0.193978 0 0.774867 0.198952 0 0.794239 0.203926 0 0.813611 0.2089 0 0.832982 0.213874 0 0.852354 0.218847 0 0.871726 0.223821 0 0.891097 0.228795 0 0.910469 0.233769 0 0.929841 0.238743 0 0.949212 0.243716 0 0.968584 0.24869 0 9.60294e-07 2.78991e-07 0 0.253363 0.0736087 0 0.288743 0.0838875 0 0.321327 0.093354 0 0.347968 0.101094 0 0.369733 0.107417 0 0.388434 0.112851 0 0.404457 0.117506 0 0.419347 0.121832 0 0.433139 0.125838 0 0.445091 0.129311 0 0.456012 0.132484 0 0.466138 0.135426 0 0.475502 0.138146 0 0.484078 0.140638 0 0.491949 0.142924 0 0.499463 0.145107 0 0.506151 0.14705 0 0.512501 0.148895 0 0.518468 0.150629 0 0.524124 0.152272 0 0.529478 0.153827 0 0.534286 0.155224 0 0.538799 0.156536 0 0.543037 0.157767 0 0.547048 0.158932 0 0.55091 0.160054 0 0.554612 0.16113 0 0.559078 0.162427 0 0.565984 0.164434 0 0.577871 0.167887 0 0.595432 0.172989 0 0.614589 0.178555 0 0.633795 0.184134 0 0.653001 0.189714 0 0.672207 0.195294 0 0.691412 0.200874 0 0.710618 0.206454 0 0.729824 0.
[...]
			<PointData Scalars="VitesseX">
				<DataArray Name="VitesseX" type="Float32" format="ascii">
 0 0.719145 0.87695 0.892302 0.993658 1.04297 1.07555 1.16831 1.1766 1.24922 1.31104 1.32316 1.38241 1.42787 1.47724 1.45257 1.51156 1.55451 1.60396 1.59684 1.62263 1.65298 1.69721 1.75267 1.74741 1.7703 1.79923 1.77473 1.61226 1.19488 0.469616 0.0276735 3.89848e-05 9.50642e-10 2.09335e-14 0 0 0 0 0 0 0 0 0 0 0 0 0 0 0 0 0 0.718791 0.876517 0.891861 0.993168 1.04245 1.07502 1.16773 1.17602 1.2486 1.31039 1.32251 1.38172 1.42716 1.47651 1.45185 1.51082 1.55375 1.60317 1.59605 1.62183 1.65216 1.69638 1.75181 1.74655 1.76942 1.79834 1.77385 1.61146 1.19429 0.469385 0.0276598 3.89656e-05 9.50173e-10 2.09255e-14 0 -4.79e-22 0 0 0 4.311e-22 4.20586e-22 -4.10572e-22 -4.01024e-22 0 0 3.7487e-22 -3.66894e-22 0 7.03838e-22 0 0 0.717726 0.875219 0.890541 0.991697 1.04091 1.07342 1.166 1.17428 1.24676 1.30845 1.32055 1.37968 1.42505 1.47432 1.44971 1.50858 1.55145 1.60079 1.59368 1.61943 1.64972 1.69386 1.74921 1.74396 1.7668 1.79568 1.77122 1.60908 1.19252 0.46869 0.0276188 3.89079e-05 9.48767e-10 2.08875e-14 -4.92686e-22 0 0 0 0 0 0 -4.10572e-22 0 0 0 3.7487e-22 -7.33788e-22 0 0 0 0 0.715954 0.873058 0.888342 0.989248 1.03834 1.07077 1.16312 1.17138 1.24368 1.30522 1.31729 1.37627 1.42153 1.47068 1.44613 1.50485 1.54761 1.59684 1.58975 1.61543 1.64564 1.68968 1.74489 1.73965 1.76244 1.79124 1.76685 1.6051 1.18958 0.467532 0.0275506 3.88118e-05 9.46423e-10 2.08183e-14 0 4.79e-22 0 0 0 0 0 0 0 0 7.66401e-22 3.7487e-22 -3.66894e-22 0 0 0 0 0.713475 0.870035 0.885266 0.985823 1.03474 1.06707 1.15909 1.16732 1.23937 1.3007 1.31273 1.3715 1.41661 1.46559 1.44112 1.49964 1.54226 1.59131 1.58424 1.60983 1.63995 1.68383 1.73885 1.73363 1.75634 1.78504 1.76073 1.59954 1.18546 0.465913 0.0274552 3.86774e-05 9.43146e-10 2.0727e-14 0 0 0 4.5379e-22 0 0 0 0 0 -3.9191e-22 3.832e-22 -7.4974e-22 0 -3.5925e-22 -3.51919e-22 0 0 0.710292 0.866153 0.881316 0.981425 1.03013 1.06231 1.15392 1.16211 1.23384 1.2949 1.30687 1.36539 1.41029 1.45905 1.43469 1.49295 1.53537 1.58421 1.57718 1.60265 1.63263 1.67632 1.73109 1.72589 1.7485 1.77708 1.75288 1.59241 1.18017 0.463835 0.0273327 3.85048e-05 9.38938e-10 2.0623e-14 -4.92686e-22 0 -4.66054e-22 -4.5379e-22 0 4.311e-22 0 -4.10572e-22 0 0 3.832e-22 0 7.33788e-22 -3.5925e-22 0 0 0 0.706407 0.861417 0.876497 0.976058 1.0245 1.0565 1.14761 1.15576 1.22709 1.28782 1.29972 1.35792 1.40258 1.45107 1.42684 1.48479 1.52698 1.57555 1.56855 1.59389 1.6237 1.66715 1.72163 1.71646 1.73894 1.76736 1.74329 1.5837 1.17371 0.461298 0.0271833 3.82943e-05 9.33804e-10 2.04908e-14 0 0 0 4.5379e-22 0 0 0 4.10572e-22 0 -3.9191e-22 -3.832e-22 0 7.33788e-22 -3.5925e-22 3.51919e-22 0 0 0.701826 0.85583 0.870812 0.969728 1.01785 1.04964 1.14017 1.14826 1.21914 1.27947 1.29129 1.34911 1.39348 1.44166 1.41759 1.47516 1.51708 1.56533 1.55838 1.58355 1.61317 1.65634 1.71046 1.70532 1.72766 1.7559 1.73198 1.57343 1.1661 0.458307 0.027007 3.80459e-05 9.27748e-10 2.03693e-14 -4.92686e-22 0 0 0 -4.42154e-22 0 0 -4.10572e-22 4.01024e-22 0 -3.832e-22 -3.7487e-22 -3.66894e-22 0 0 0 0 0.696552 0.849399 0.864268 0.962441 1.0102 1.04176 1.1316 1.13963 1.20997 1.26985 1.28159 1.33897 1.38301 1.43083 1.40694 1.46407 1.50568 1.55357 1.54667 1.57165 1.60105 1.64389 1.69761 1.69251 1.71468 1.7427 1.71897 1.56161 1.15734 0.454863 0.026804 3.776e-05 9.20776e-10 2.01779e-14 0 0 4.66054e-22 0 0 0 0 0 4.01024e-22 7.83819e-22 -3.832e-22 0 0 0 3.51919e-22 0 0 0.690591 0.842129 0.856872 0.954204 1.00156 1.03284 1.12192 1.12988 1.19962 1.25898 1.27062 1.32752 1.37117 1.41858 1.3949 1.45154 1.49279 1.54027 1.53343 1.5582 1.58735 1.62982 1.68308 1.67802 1.7 1.72779 1.70426 1.54824 1.14743 0.45097 0.0265746 3.74368e-05 9.12896e-10 1.99417e-14 0 0 4.66054e-22 -4.5379e-22 0 0 0 -8.21144e-22 -8.02047e-22 7.83819e-22 3.832e-22 3.7487e-22 0 0 3.51919e-22 0 0 0.683948 0.834029 0.848629 0.945025 0.991922 1.02291 1.11113 1.11901 1.18808 1.24687 1.2584 1.31475 1.35798 1.40493 1.38148 1.43758 1.47843 1.52546 1.51868 1.54321 1.57208 1.61415 1.66689 1.66188 1.68365 1.71117 1.68786 1.53335 1.1364 0.446632 0.026319 3.70767e-05 9.04115e-10 1.97757e-14 0 0 0 0 4.42154e-22 -4.311e-22 8.41172e-22 4.10572e-22 0 0 0 -3.7487e-22 -3.66894e-22 -3.5925e-22 3.51919e-22 0 0 0.67663 0.825105 0.839549 0.934914 0.981309 1.01196 1.09924 1.10704 1.17537 1.23353 1.24494 1.30068 1.34345 1.3899 1.3667 1.4222 1.46261 1.50913 1.50243 1.5267 1.55526 1.59688 1.64906 1.6441 1.66564 1.69286 1.6698 1.51694 1.12424 0.441853 0.0260374 3.668e-05 8.94441e-10 1.95121e-14 0 0 -4.66054e-22 4.5379e-22 4.42154e-22 -4.311e-22 -4.20586e-22 -4.10572e-22 0 -3.9191e-22 3.832e-22 3.7487e-22 -3.66894e-22 -3.5925e-22 7.03838e-22 0 0 0.668645 0.815367 0.829641 0.92388 0.969728 1.00002 1.08626 1.09397 1.1615 1.21897 1.23024 1.28533 1.3276 1.3735 1.35057 1.40541 1.44535 1.49132 1.4847 1.50868 1.5369 1.57803 1.62959 1.6247 1.64598 1.67288 1.6501 1.49904 1.11097 0.436638 0.0257301 3.62471e-05 8.83885e-10 1.91684e-14 -2.46343e-22 -2.395e-22 -2.33027e-22 4.5379e-22 -4.42154e-22 0 -4.20586e-22 0 4.01024e-22 -3.9191e-22 -3.832e-22 -3.7487e-22 -3.66894e-22 -3.5925e-22 0 0 0 0.659999 0.804825 0.818914 0.911934 0.95719 0.987088 1.07222 1.07983 1.14648 1.20321 1.21434 1.26871 1.31043 1.35574 1.3331 1.38724 1.42666 1.47204 1.4655 1.48917 1.51703 1.55763 1.60852 1.60369 1.6247 1.65125 1.62876 1.47966 1.09661 0.430993 0.0253974 3.57785e-05 8.72456e-10 1.90781e-14 4.92686e-22 2.395e-22 -2.33027e-22 0 4.42154e-22 4.311e-22 0 0 0 0 7.66401e-22 0 3.66894e-22 0 -3.51919e-22 0 0 0.650702 0.793488 0.807379 0.899089 0.943707 0.973184 1.05712 1.06462 1.13033 1.18626 1.19723 1.25084 1.29197 1.33664 1.31433 1.3677 1.40657 1.45131 1.44486 1.4682 1.49566 1.53568 1.58587 1.5811 1.60181 1.62799 1.60582 1.45881 1.08116 0.424922 0.0250397 3.52745e-05 8.60167e-10 1.88261e-14 2.46343e-22 2.395e-22 2.33027e-22 -2.26895e-22 -2.21077e-22 0 0 4.10572e-22 0 0 0 -3.7487e-22 0 3.5925e-22 -3.51919e-22 0 0 0.640763 0.781368 0.795047 0.885356 0.929292 0.958319 1.04097 1.04836 1.11306 1.16814 1.17894 1.23173 1.27224 1.31623 1.29425 1.34681 1.38508 1.42914 1.42279 1.44577 1.47282 1.51223 1.56164 1.55695 1.57734 1.60312 1.58129 1.43653 1.06465 0.418431 0.0246572 3.47357e-05 8.47029e-10 1.86051e-14 -7.39029e-22 0 0 0 0 -4.311e-22 -2.10293e-22 0 4.01024e-22 0 0 3.7487e-22 0 3.5925e-22 3.51919e-22 0 0 0.630192 0.768477 0.78193 0.870749 0.913961 0.942509 1.0238 1.03106 1.0947 1.14887 1.15949 1.21141 1.25125 1.29451 1.2729 1.32459 1.36223 1.40556 1.39932 1.42192 1.44852 1.48728 1.53588 1.53127 1.55132 1.57667 1.5552 1.41283 1.04708 0.411528 0.0242504 3.41626e-05 8.33054e-10 1.82647e-14 0 2.395e-22 4.66054e-22 6.80685e-22 4.42154e-22 2.1555e-22 4.20586e-22 -4.10572e-22 -4.01024e-22 1.95955e-22 -3.832e-22 -3.7487e-22 0 0 -3.51919e-22 0 0 0.618999 0.754828 0.768042 0.855283 0.897727 0.925769 1.00561 1.01275 1.07526 1.12847 1.1389 1.18989 1.22903 1.27152 1.25029 1.30106 1.33804 1.38059 1.37446 1.39666 1.42279 1.46086 1.5086 1.50407 1.52377 1.54867 1.52758 1.38774 1.02848 0.404219 0.0238197 3.35558e-05 8.18258e-10 1.79455e-14 0 -4.79e-22 -4.66054e-22 0 -2.21077e-22 -2.1555e-22 6.30879e-22 2.05286e-22 0 0 0 3.7487e-22 3.66894e-22 3.5925e-22 -3.51919e-22 0 0 0.607195 0.740433 0.753395 0.838973 0.880608 0.908114 0.986434 0.993434 1.05475 1.10695 1.11718 1.1672 1.20559 1.24727 1.22645 1.27625 1.31252 1.35427 1.34825 1.37003 1.39566 1.433 1.47983 1.47539 1.49471 1.51914 1.49845 1.36127 1.00887 0.39651 0.0233655 3.29159e-05 8.02654e-10 1.74905e-14 0 4.79e-22 6.99082e-22 -6.80685e-22 6.63231e-22 -6.46651e-22 4.20586e-22 -6.15858e-22 4.01024e-22 0 -3.832e-22 -1.87435e-22 -1.83447e-22 0 -3.51919e-22 0 0 0.594791 0.725308 0.738005 0.821835 0.862619 0.889564 0.966284 0.973141 1.03321 1.08434 1.09436 1.14336 1.18096 1.22179 1.20139 1.25018 1.28571 1.3266 1.32071 1.34204 1.36715 1.40373 1.4496 1.44525 1.46418 1.48811 1.46784 1.33347 0.988261 0.388411 0.0228882 3.22436e-05 7.86258e-10 1.71696e-14 1.23172e-22 0 -6.99082e-22 -2.26895e-22 -2.21077e-22 -2.1555e-22 4.20586e-22 -1.02643e-21 4.01024e-22 3.9191e-22 -3.832e-22 1.87435e-22 -3.66894e-22 3.5925e-22 -3.51919e-22 0 0 0.581801 0.709467 0.721887 0.803886 0.84378 0.870136 0.94518 0.951887 1.01064 1.06065 1.07046 1.11839 1.15517 1.19511 1.17516 1.22288 1.25763 1.29763 1.29187 1.31273 1.33729 1.37307 1.41794 1.41368 1.4322 1.45561 1.43578 1.30434 0.966678 0.379928 0.0223883 3.15394e-05 7.69086e-10 1.6742e-14 2.46343e-22 5.98751e-22 -2.33027e-22 -2.26895e-22 -2.21077e-22 2.1555e-22 8.41172e-22 0 -2.00512e-22 3.9191e-22 1.916e-22 -3.7487e-22 -3.66894e-22 0 0 0 0 0.568236 0.692926 0.705057 0.785144 0.824107 0.849849 0.923143 0.929694 0.987078 1.03592 1.0455 1.09231 1.12824 1.16725 1.14776 1.19437 1.22831 1.26738 1.26175 1.28213 1.30611 1.34106 1.38488 1.38072 1.39881 1.42167 1.40231 1.27393 0.94414 0.37107 0.0218663 3.0804e-05 7.51155e-10 1.64335e-14 0 1.1975e-22 1.16514e-22 -1.13447e-22 2.21077e-22 -4.311e-22 -6.30879e-22 8.21144e-22 0 -5.87864e-22 0 0 -1.83447e-22 -3.5925e-22 -3.51919e-22 0 0 0.554111 0.675701 0.68753 0.765627 0.803621 0.828723 0.900196 0.906584 0.962541 1.01017 1.01951 1.06516 1.10019 1.13823 1.11923 1.16468 1.19777 1.23587 1.23038 1.25026 1.27364 1.30773 1.35046 1.3464 1.36404 1.38633 1.36745 1.24227 0.92067 0.361846 0.0213228 3.00383e-05 7.32482e-10 1.59455e-14 -3.69515e-22 1.1975e-22 3.49541e-22 -9.0758e-22 5.52693e-22 2.1555e-22 0 -4.10572e-22 2.00512e-22 3.9191e-22 5.74801e-22 -1.87435e-22 5.50341e-22 5.38876e-22 -1.75959e-22 0 0 0.539439 0.65781 0.669325 0.745354 0.782343 0.80678 0.87636 0.882578 0.937054 0.983425 0.992517 1.03696 1.07106 1.10809 1.08959 1.13384 1.16606 1.20315 1.1978 1.21715 1.23992 1.2731 1.3147 1.31075 1.32792 1.34962 1.33124 1.20937 0.896292 0.352264 0.0207582 2.92429e-05 7.13088e-10 1.55378e-14 5.54272e-22 2.395e-22 2.33027e-22 -3.40342e-22 3.31616e-22 1.07775e-22 7.36025e-22 1.02643e-22 -4.01024e-22 -1.95955e-22 0 -5.62305e-22 -1.83447e-22 0 -1.75959e-22 0 0 0.524234 0.639269 0.65046 0.724346 0.760292 0.78404 0.851659 0.857702 0.910643 0.955707 0.964542 1.00773 1.04087 1.07686 1.05888 1.10188 1.13319 1.16924 1.16404 1.18284 1.20497 1.23722 1.27764 1.27381 1.29049 1.31158 1.29372 1.17529 0.871029 0.342336 0.0201731 2.84187e-05 6.92988e-10 1.51435e-14 -4.311e-22 2.99375e-22 -1.7477e-22 -2.26895e-22 -2.21077e-22 -4.311e-22 0 2.05286e-22 2.00512e-22 -1.95955e-22 0 0 -1.83447e-22 1.79625e-22 1.75959e-22 0 0 0.508513 0.620097 0.630953 0.702622 0.73749 0.760527 0.826118 0.83198 0.883332 0.927045 0.935615 0.977508 1.00965 1.04456 1.02712 1.06884 1.09921 1.13417 1.12913 1.14737 1.16883 1.20011 1.23933 1.2356 1.25179 1.27225 1.25492 1.14004 0.844907 0.332069 0.0195681 2.75664e-05 6.72206e-10 1.47057e-14 -4.311e-22 -1.79625e-22 2.33027e-22 -5.10514e-22 -5.52693e-23 -7.54426e-22 -3.15439e-22 3.07929e-22 2.00512e-22 -1.95955e-22 0 1.87435e-22 -9.17235e-23 -1.79625e-22 3.51919e-22 0 0 0.492289 0.600313 0.610823 0.680206 0.713961 0.736263 0.799761 0.805436 0.85515 0.897468 0.905765 0.946322 0.977443 1.01124 0.994354 1.03473 1.06414 1.09799 1.09311 1.11076 1.13154 1.16182 1.19979 1.19618 1.21185 1.23166 1.21488 1.10367 0.817951 0.321475 0.0189438 2.66869e-05 6.50759e-10 1.41421e-14 5.69668e-22 -5.38875e-22 2.91284e-23 3.40342e-22 -2.21077e-22 3.23325e-22 2.10293e-22 1.02643e-22 -2.00512e-22 9.79774e-23 4.79001e-22 0 4.58618e-22 -5.38876e-22 4.39899e-22 0 0 0.475579 0.579937 0.59009 0.657118 0.689728 0.711272 0.772615 0.778098 0.826124 0.867006 0.875021 0.914201 0.944266 0.976914 0.960603 0.999613 1.02802 1.06072 1.05601 1.07306 1.09314 1.12239 1.15906 1.15558 1.17072 1.18985 1.17365 1.06621 0.790188 0.310563 0.0183008 2.57811e-05 6.28671e-10 1.3783e-14 -1.38568e-22 -3.36797e-22 1.16514e-22 1.13447e-22 5.52693e-22 -9.69976e-22 -2.62866e-22 -2.56607e-22 5.51408e-22 -4.89887e-23 0 1.87435e-22 3.66894e-22 -7.18501e-22 7.03838e-22 0 0 0.458401 0.558989 0.568774 0.633382 0.664813 0.68558 0.744707 0.749991 0.796283 0.835688 0.843414 0.881178 0.910157 0.941626 0.925904 0.963505 0.990884 1.0224 1.01786 1.0343 1.05365 1.08184 1.1172 1.11384 1.12843 1.14687 1.13125 1.02769 0.761645 0.299345 0.0176397 2.48498e-05 6.05962e-10 1.32018e-14 -1.84757e-22 -8.98126e-22 5.09747e-23 4.78607e-23 -1.93443e-22 4.84988e-22 1.05146e-21 -4.10572e-22 -1.2532e-21 1.95955e-22 -2.395e-22 -4.21729e-22 1.83447e-22 -3.5925e-22 0 0 0 0.440769 0.537489 0.546898 0.60902 0.639243 0.65921 0.716063 0.721145 0.765656 0.803545 0.810974 0.847286 0.87515 0.905408 0.890291 0.926447 0.952772 0.983078 0.978712 0.99452 1.01312 1.04023 1.07423 1.071 1.08503 1.10276 1.08774 0.988164 0.73235 0.287831 0.0169613 2.38941e-05 5.82655e-10 1.26847e-14 1.23172e-22 1.1975e-22 -1.45642e-22 -5.67237e-22 7.59953e-22 1.02723e-22 3.22011e-22 5.26045e-22 2.75704e-22 4.89887e-22 -6.70601e-22 -3.28011e-22 4.58618e-23 8.98126e-23 4.39899e-22 0 0 0.422703 0.515458 0.524482 0.584058 0.613042 0.632191 0.686713 0.691586 0.734273 0.77061 0.777734 0.812557 0.83928 0.868298 0.8538 0.888473 0.91372 0.942783 0.938596 0.953756 0.971597 0.997597 1.0302 1.0271 1.04055 1.05756 1.04316 0.947661 0.702332 0.276034 0.016266 2.29147e-05 5.58774e-10 1.21791e-14 2.46343e-22 1.1975e-22 1.16514e-22 9.0758e-22 -5.80328e-22 3.23325e-22 4.07443e-22 7.0567e-23 2.91369e-22 -2.44943e-23 6.10726e-22 -2.81153e-22 5.04479e-22 2.24532e-22 -4.39899e-22 0 0 0.40422 0.492919 0.501548 0.558519 0.586236 0.604547 0.656686 0.661346 0.702166 0.736914 0.743726 0.777027 0.802581 0.83033 0.816466 0.849623 0.873766 0.901559 0.897555 0.912052 0.929112 0.953976 0.985148 0.982189 0.995053 1.01132 0.997544 0.906223 0.671622 0.263964 0.0155548 2.19127e-05 5.3434e-10 1.16585e-14 -2.46343e-22 -7.78376e-22 -3.49541e-22 -1.70171e-22 -4.42154e-22 -4.84988e-22 -7.88598e-23 -7.18501e-22 8.52175e-22 -4.04157e-22 -5.38876e-23 1.14218e-22 4.35687e-22 7.40954e-22 3.29924e-22 0 0 0.385337 0.469893 0.478119 0.532429 0.558851 0.576307 0.62601 0.630452 0.669366 0.70249 0.708984 0.74073 0.76509 0.791543 0.778327 0.809935 0.83295 0.859444 0.855627 0.869447 0.885711 0.909413 0.939129 0.936308 0.948572 0.964074 0.950945 0.863891 0.640248 0.251633 0.0148282 2.08891e-05 5.0938e-10 1.11907e-14 7.39029e-22 -3.5925e-22 -3.49541e-22 1.13447e-22 -1.10539e-22 -3.23325e-22 -2.62866e-22 6.15858e-22 -4.01024e-22 -1.7146e-22 -1.6765e-22 4.21729e-22 2.63705e-22 -4.49063e-22 -4.30963e-22 0 0 0.366075 0.446404 0.454219 0.505813 0.530914 0.547498 0.594717 0.598937 0.635905 0.667373 0.673543 0.703702 0.726844 0.751974 0.739419 0.769447 0.791312 0.816482 0.812856 0.825984 0.841435 0.863952 0.892183 0.889503 0.901153 0.915881 0.903409 0.820706 0.608243 0.239054 0.0140869 1.98449e-05 4.83916e-10 1.05262e-14 2.46343e-22 -3.5925e-22 -3.49541e-22 -2.26895e-22 3.31616e-22 1.07775e-22 -6.30879e-22 -9.23787e-22 -4.51152e-22 -1.95955e-22 -3.353e-22 -4.68588e-22 3.66894e-22 2.46985e-22 -2.41944e-22 0 0 0.346451 0.422474 0.42987 0.478698 0.502454 0.518149 0.562836 0.56683 0.601817 0.631598 0.637437 0.665979 0.68788 0.711664 0.699782 0.7282 0.748893 0.772713 0.769281 0.781707 0.796329 0.817639 0.844356 0.84182 0.852846 0.866784 0.85498 0.776711 0.575637 0.226239 0.0133318 1.87811e-05 4.57975e-10 9.96809e-15 -2.46343e-22 0 0 0 0 0 -1.05146e-22 5.13215e-22 -3.00768e-22 -2.93932e-22 -2.874e-22 -2.81153e-22 -3.21032e-22 2.24532e-22 -4.83888e-22 0 0 0.326485 0.398127 0.405096 0.451111 0.473498 0.488288 0.5304 0.534164 0.567134 0.595199 0.600702 0.627599 0.648238 0.670651 0.659454 0.686234 0.705734 0.728182 0.724948 0.736657 0.750437 0.770519 0.795697 0.793307 0.803697 0.816832 0.805708 0.73195 0.542464 0.213201 0.0125635 1.76987e-05 4.31583e-10 9.38385e-15 -2.46343e-22 -5.98751e-22 -4.66054e-22 -2.26895e-22 -2.21077e-22 -2.1555e-22 -5.25732e-22 -2.05286e-22 -5.0128e-22 9.79774e-23 4.79001e-22 9.37175e-23 -9.17235e-23 2.24532e-22 0 0 0 0.306197 0.373387 0.379924 0.423079 0.444075 0.457946 0.497441 0.500971 0.531892 0.558213 0.563374 0.5886 0.607956 0.628976 0.618475 0.643591 0.66188 0.682933 0.6799 0.690881 0.703804 0.722638 0.746252 0.74401 0.753755 0.766074 0.755641 0.686466 0.508755 0.199953 0.0117828 1.65989e-05 4.04764e-10 8.80411e-15 0 -2.395e-22 4.66054e-22 -4.5379e-22 -6.63231e-22 -6.46651e-22 -3.15439e-22 -3.07929e-22 -7.01791e-22 -3.9191e-22 5.74801e-22 3.7487e-22 -8.25512e-22 -8.08314e-22 8.79797e-23 0 0 0.285607 0.348279 0.354376 0.394629 0.414213 0.427151 0.463991 0.467283 0.496125 0.520677 0.52549 0.549019 0.567075 0.586681 0.576886 0.600313 0.617372 0.637009 0.63418 0.644423 0.656477 0.674045 0.69607 0.693979 0.703069 0.714559 0.704828 0.640305 0.474544 0.186507 0.0109905 1.54827e-05 3.77546e-10 8.26191e-15 0 0 4.66054e-22 4.5379e-22 4.42154e-22 4.311e-22 0 0 4.01024e-22 0 9.58001e-23 6.56023e-22 2.75171e-22 -2.69438e-22 -1.75959e-22 0 0 0.264735 0.322827 0.328478 0.36579 0.383943 0.395935 0.430082 0.433134 0.459869 0.482626 0.487088 0.508897 0.525633 0.543807 0.534727 0.556443 0.572255 0.590457 0.587834 0.597329 0.608502 0.624786 0.645202 0.643264 0.651689 0.66234 0.65332 0.593512 0.439864 0.172877 0.0101873 1.43513e-05 3.49955e-10 7.67835e-15 -4.92686e-22 -2.395e-22 0 6.80685e-22 -2.21077e-22 2.1555e-22 6.30879e-22 -2.05286e-22 0 -1.95955e-22 -1.916e-22 1.87435e-22 1.83447e-22 -1.79625e-22 -3.51919e-22 0 0 0.243602 0.297056 0.302256 0.33659 0.353293 0.364329 0.39575 0.398558 0.423158 0.444099 0.448204 0.468273 0.483673 0.500396 0.492041 0.512023 0.526573 0.543322 0.540909 0.549645 0.559927 0.574911 0.593697 0.591913 0.599666 0.609466 0.601167 0.546133 0.404751 0.159077 0.00937405 1.32056e-05 3.22019e-10 7.00359e-15 -4.92686e-22 -2.395e-22 -2.33027e-22 6.80685e-22 -4.42154e-22 -2.1555e-22 -2.10293e-22 -4.10572e-22 0 0 0 3.7487e-22 3.66894e-22 -3.5925e-22 -5.27878e-22 0 0 0.222228 0.270992 0.275736 0.307057 0.322295 0.332362 0.361027 0.363588 0.38603 0.405133 0.408879 0.427187 0.441235 0.456491 0.448869 0.467098 0.480371 0.495651 0.493449 0.501419 0.510799 0.524468 0.541606 0.539979 0.547051 0.555992 0.54842 0.498215 0.369238 0.145119 0.00855157 1.2047e-05 2.93765e-10 6.46154e-15 -7.39029e-22 -9.58001e-22 -4.66054e-22 -2.26895e-22 4.42154e-22 6.46651e-22 -4.20586e-22 4.10572e-22 -2.00512e-22 5.87864e-22 -3.832e-22 -3.7487e-22 3.66894e-22 3.5925e-22 -7.03838e-22 0 0 0.200635 0.244661 0.248944 0.277222 0.290979 0.300068 0.325947 0.32826 0.348521 0.365768 0.36915 0.385679 0.398362 0.412136 0.405255 0.421712 0.433695 0.44749 0.445503 0.452699 0.461167 0.473507 0.48898 0.487511 0.493897 0.501968 0.495133 0.449806 0.333361 0.131019 0.00772065 1.08764e-05 2.65221e-10 5.84587e-15 4.92686e-22 4.79e-22 4.66054e-22 2.26895e-22 -4.42154e-22 4.311e-22 0 0 4.01024e-22 3.9191e-22 3.832e-22 -5.62305e-22 1.83447e-22 3.5925e-22 0 0 0 0.178844 0.218089 0.221906 0.247113 0.259376 0.267478 0.290546 0.292608 0.310669 0.326042 0.329056 0.34379 0.355096 0.367374 0.36124 0.37591 0.386592 0.398888 0.397117 0.403531 0.411079 0.42208 0.435872 0.434563 0.440254 0.44745 0.441356 0.400952 0.297154 0.116789 0.00688211 9.69512e-06 2.36415e-10 5.19458e-15 2.46343e-22 -2.395e-22 -4.66054e-22 -2.26895e-22 -2.21077e-22 -2.1555e-22 -4.20586e-22 -2.05286e-22 -4.01024e-22 -3.9191e-22 0 -1.87435e-22 3.66894e-22 -1.79625e-22 1.75959e-22 0 0 0.156877 0.191301 0.19465 0.21676 0.227517 0.234623 0.254858 0.256667 0.272509 0.285994 0.288638 0.301562 0.31148 0.322249 0.316869 0.329737 0.339107 0.349893 0.348339 0.353965 0.360586 0.370236 0.382334 0.381185 0.386178 0.392489 0.387144 0.351703 0.260655 0.102444 0.00603678 8.50427e-06 2.07376e-10 4.56214e-15 -2.46343e-22 -4.79e-22 2.33027e-22 0 -2.21077e-22 2.1555e-22 0 2.05286e-22 2.00512e-22 -1.95955e-22 -1.916e-22 -1.87435e-22 0 -1.79625e-22 -1.75959e-22 0 0 0.134754 0.164324 0.167201 0.186193 0.195433 0.201537 0.218919 0.220472 0.234081 0.245664 0.247935 0.259037 0.267556 0.276806 0.272185 0.283238 0.291287 0.300552 0.299217 0.30405 0.309737 0.318026 0.328418 0.327432 0.33172 0.337142 0.33255 0.302107 0.223898 0.0879973 0.00518549 7.30502e-06 1.78133e-10 3.90499e-15 0 -9.58001e-22 -4.66054e-22 4.5379e-22 6.63231e-22 -4.311e-22 6.30879e-22 -8.21144e-22 4.01024e-22