<?xml version="1.0"?>
<VTKFile type="PolyData">
	<PolyData>
		<Piece NumberOfPoints="2601" NumberOfPolys="2500">
			<Points>
				<DataArray type="Float32" NumberOfComponents="3" format="ascii">
 1e-06 0 0 0.27215 0 0 0.308228 0 0 0.344105 0 0 0.371761 0 0 0.395392 0 0 0.415056 0 0 0.432373 0 0 0.448426 0 0 0.463041 0 0 0.476262 0 0 0.487921 0 0 0.498804 0 0 0.50906 0 0 0.51844 0 0 0.526978 0 0 0.53469 0 0 0.542252 0 0 0.549221 0 0 0.555773 0 0 0.561795 0 0 0.56744 0 0 0.572884 0 0 0.577908 0 0 0.582683 0 0 0.587097 0 0 0.591234 0 0 0.595224 0 0 0.599054 0 0 0.603613 0 0 0.610519 0 0 0.622285 0 0 0.640091 0 0 0.660001 0 0 0.680001 0 0 0.700001 0 0 0.720001 0 0 0.740001 0 0 0.760001 0 0 0.780001 0 0 0.800001 0 0 0.820001 0 0 0.840001 0 0 0.860001 0 0 0.880001 0 0 0.900001 0 0 0.920001 0 0 0.940001 0 0 0.960001 0 0 0.980001 0 0 1 0 0 9.99507e-07 3.14108e-08 0 0.272015 0.00854843 0 0.308075 0.00968166 0 0.343936 0.0108086 0 0.371577 0.0116773 0 0.395197 0.0124196 0 0.414851 0.0130372 0 0.43216 0.0135812 0 0.448204 0.0140854 0 0.462812 0.0145445 0 0.476027 0.0149597 0 0.487681 0.015326 0 0.498558 0.0156678 0 0.508808 0.0159899 0 0.518184 0.0162846 0 0.526718 0.0165528 0 0.534427 0.016795 0 0.541984 0.0170325 0 0.54895 0.0172514 0 0.555499 0.0174573 0 0.561518 0.0176464 0 0.56716 0.0178237 0 0.572601 0.0179947 0 0.577623 0.0181525 0 0.582396 0.0183025 0 0.586808 0.0184412 0 0.590942 0.0185711 0 0.59493 0.0186964 0 0.598759 0.0188167 0 0.603315 0.0189599 0 0.610218 0.0191769 0 0.621978 0.0195464 0 0.639776 0.0201058 0 0.659675 0.0207311 0 0.679665 0.0213593 0 0.699656 0.0219876 0 0.719646 0.0226158 0 0.739636 0.023244 0 0.759626 0.0238722 0 0.779616 0.0245004 0 0.799606 0.0251286 0 0.819596 0.0257569 0 0.839587 0.0263851 0 0.859577 0.0270133 0 0.879567 0.0276415 0 0.899557 0.0282697 0 0.919547 0.0288979 0 0.939537 0.0295261 0 0.959527 0.0301544 0 0.979517 0.0307826 0 0.999508 0.0314108 0 9.98027e-07 6.27905e-08 0 0.271613 0.0170884 0 0.307619 0.0193538 0 0.343426 0.0216066 0 0.371027 0.023343 0 0.394611 0.0248268 0 0.414236 0.0260616 0 0.43152 0.0271489 0 0.447541 0.0281569 0 0.462127 0.0290746 0 0.475322 0.0299047 0 0.486958 0.0306368 0 0.49782 0.0313202 0 0.508055 0.0319641 0 0.517417 0.0325531 0 0.525939 0.0330892 0 0.533635 0.0335735 0 0.541182 0.0340483 0 0.548137 0.0344859 0 0.554676 0.0348973 0 0.560686 0.0352754 0 0.56632 0.0356299 0 0.571753 0.0359717 0 0.576767 0.0362871 0 0.581534 0.036587 0 0.585939 0.0368641 0 0.590067 0.0371239 0 0.594049 0.0373744 0 0.597872 0.0376149 0 0.602422 0.0379012 0 0.609315 0.0383348 0 0.621057 0.0390736 0 0.638828 0.0401917 0 0.658699 0.0414418 0 0.678659 0.0426976 0 0.69862 0.0439534 0 0.71858 0.0452092 0 0.738541 0.046465 0 0.758501 0.0477209 0 0.778462 0.0489767 0 0.798422 0.0502325 0 0.818383 0.0514883 0 0.838343 0.0527441 0 0.858304 0.0539999 0 0.878265 0.0552557 0 0.898225 0.0565115 0 0.918186 0.0577673 0 0.938146 0.0590232 0 0.958107 0.060279 0 0.978067 0.0615348 0 0.998028 0.0627906 0 9.95562e-07 9.41083e-08 0 0.270942 0.0256116 0 0.30686 0.0290068 0 0.342578 0.0323832 0 0.370111 0.0349858 0 0.393637 0.0372096 0 0.413213 0.0390602 0 0.430454 0.0406899 0 0.446436 0.0422006 0 0.460986 0.043576 0 0.474148 0.0448202 0 0.485756 0.0459174 0 0.49659 0.0469416 0 0.5068 0.0479067 0 0.516139 0.0487895 0 0.52464 0.049593 0 0.532317 0.0503188 0 0.539845 0.0510304 0 0.546783 0.0516862 0 0.553306 0.0523029 0 0.559302 0.0528696 0 0.564922 0.0534008 0 0.570341 0.0539131 0 0.575343 0.0543859 0 0.580097 0.0548354 0 0.584492 0.0552507 0 0.58861 0.05564 0 0.592582 0.0560155 0 0.596396 0.056376 0 0.600934 0.056805 0 0.60781 0.057455 0 0.619523 0.0585622 0 0.637251 0.0602379 0 0.657072 0.0621116 0 0.676983 0.0639937 0 0.696894 0.0658759 0 0.716806 0.0677581 0 0.736717 0.0696402 0 0.756628 0.0715224 0 0.776539 0.0734046 0 0.796451 0.0752867 0 0.816362 0.0771689 0 0.836273 0.0790511 0 0.856184 0.0809332 0 0.876096 0.0828154 0 0.896007 0.0846976 0 0.915918 0.0865797 0 0.935829 0.0884619 0 0.95574 0.0903441 0 0.975652 0.0922262 0 0.995563 0.0941084 0 9.92115e-07 1.25333e-07 0 0.270004 0.0341094 0 0.305797 0.0386312 0 0.341392 0.0431278 0 0.368829 0.046594 0 0.392274 0.0495557 0 0.411783 0.0520202 0 0.428963 0.0541907 0 0.44489 0.0562026 0 0.459389 0.0580344 0 0.472506 0.0596914 0 0.484074 0.0611528 0 0.494871 0.0625167 0 0.505046 0.0638021 0 0.514352 0.0649777 0 0.522823 0.0660479 0 0.530474 0.0670145 0 0.537976 0.0679622 0 0.54489 0.0688356 0 0.551391 0.0696568 0 0.557365 0.0704116 0 0.562966 0.0711191 0 0.568366 0.0718014 0 0.573351 0.072431 0 0.578089 0.0730296 0 0.582468 0.0735828 0 0.586572 0.0741012 0 0.59053 0.0746013 0 0.594331 0.0750814 0 0.598853 0.0756528 0 0.605705 0.0765184 0 0.617378 0.077993 0 0.635044 0.0802247 0 0.654797 0.0827201 0 0.674639 0.0852267 0 0.694481 0.0877334 0 0.714324 0.0902401 0 0.734166 0.0927467 0 0.754008 0.0952534 0 0.77385 0.09776 0 0.793693 0.100267 0 0.813535 0.102773 0 0.833377 0.10528 0 0.85322 0.107787 0 0.873062 0.110293 0 0.892904 0.1128 0 0.912747 0.115307 0 0.932589 0.117813 0 0.952431 0.12032 0 0.972273 0.122827 0 0.992116 0.125333 0 9.87688e-07 1.56434e-07 0 0.268799 0.0425736 0 0.304433 0.0482174 0 0.339869 0.0538299 0 0.367184 0.0581562 0 0.390524 0.0618529 0 0.409945 0.064929 0 0.42705 0.067638 0 0.442905 0.0701492 0 0.45734 0.0724355 0 0.470398 0.0745038 0 0.481914 0.0763277 0 0.492663 0.0780301 0 0.502792 0.0796345 0 0.512057 0.0811019 0 0.52049 0.0824376 0 0.528107 0.083644 0 0.535576 0.0848269 0 0.542459 0.0859171 0 0.548931 0.0869421 0 0.554878 0.0878841 0 0.560454 0.0887672 0 0.565831 0.0896188 0 0.570793 0.0904047 0 0.57551 0.0911518 0 0.579869 0.0918422 0 0.583955 0.0924893 0 0.587895 0.0931135 0 0.591679 0.0937127 0 0.596182 0.0944259 0 0.603003 0.0955063 0 0.614624 0.0973468 0 0.632211 0.100132 0 0.651875 0.103247 0 0.671629 0.106376 0 0.691383 0.109504 0 0.711137 0.112633 0 0.73089 0.115762 0 0.750644 0.11889 0 0.770398 0.122019 0 0.790152 0.125148 0 0.809905 0.128276 0 0.829659 0.131405 0 0.849413 0.134534 0 0.869167 0.137662 0 0.88892 0.140791 0 0.908674 0.14392 0 0.928428 0.147049 0 0.948182 0.150177 0 0.967936 0.153306 0 0.987689 0.156435 0 9.82287e-07 1.87381e-07 0 0.267329 0.0509958 0 0.302768 0.0577561 0 0.33801 0.0644789 0 0.365176 0.069661 0 0.388388 0.074089 0 0.407704 0.0777736 0 0.424714 0.0810186 0 0.440483 0.0840266 0 0.454839 0.0867651 0 0.467826 0.0892426 0 0.479279 0.0914273 0 0.489969 0.0934665 0 0.500043 0.0953883 0 0.509257 0.0971459 0 0.517644 0.0987459 0 0.52522 0.100191 0 0.532647 0.101608 0 0.539493 0.102914 0 0.545929 0.104141 0 0.551844 0.10527 0 0.557389 0.106328 0 0.562736 0.107348 0 0.567671 0.108289 0 0.572363 0.109184 0 0.576698 0.110011 0 0.580761 0.110786 0 0.584681 0.111534 0 0.588443 0.112252 0 0.592922 0.113106 0 0.599705 0.1144 0 0.611263 0.116605 0 0.628754 0.119941 0 0.648311 0.123672 0 0.667956 0.127419 0 0.687602 0.131167 0 0.707248 0.134915 0 0.726894 0.138662 0 0.746539 0.14241 0 0.766185 0.146158 0 0.785831 0.149905 0 0.805477 0.153653 0 0.825122 0.1574 0 0.844768 0.161148 0 0.864414 0.164896 0 0.88406 0.168643 0 0.903705 0.172391 0 0.923351 0.176139 0 0.942997 0.179886 0 0.962642 0.183634 0 0.982288 0.187382 0 9.75917e-07 2.18143e-07 0 0.265595 0.0593676 0 0.300804 0.0672378 0 0.335818 0.0750643 0 0.362807 0.0810971 0 0.385869 0.086252 0 0.40506 0.0905416 0 0.42196 0.0943192 0 0.437626 0.097821 0 0.451889 0.101009 0 0.464792 0.103893 0 0.476171 0.106437 0 0.486791 0.108811 0 0.4968 0.111048 0 0.505954 0.113094 0 0.514287 0.114957 0 0.521813 0.116639 0 0.529193 0.118289 0 0.535994 0.119809 0 0.542388 0.121238 0 0.548265 0.122552 0 0.553774 0.123783 0 0.559087 0.124971 0 0.56399 0.126067 0 0.568651 0.127108 0 0.572958 0.128071 0 0.576995 0.128974 0 0.580889 0.129844 0 0.584627 0.13068 0 0.589076 0.131674 0 0.595816 0.133181 0 0.607299 0.135747 0 0.624676 0.139632 0 0.644106 0.143975 0 0.663624 0.148338 0 0.683143 0.1527 0 0.702661 0.157063 0 0.722179 0.161426 0 0.741698 0.165789 0 0.761216 0.170152 0 0.780734 0.174515 0 0.800253 0.178878 0 0.819771 0.183241 0 0.839289 0.187603 0 0.858808 0.191966 0 0.878326 0.196329 0 0.897844 0.200692 0 0.917363 0.205055 0 0.936881 0.209418 0 0.956399 0.213781 0 0.975918 0.218143 0 9.68583e-07 2.4869e-07 0 0.2636 0.0676809 0 0.298544 0.0766531 0 0.333295 0.0855755 0 0.360081 0.0924531 0 0.38297 0.0983299 0 0.402016 0.10322 0 0.418789 0.107527 0 0.434338 0.111519 0 0.448493 0.115153 0 0.461299 0.118442 0 0.472592 0.121341 0 0.483133 0.124047 0 0.493067 0.126598 0 0.502152 0.128931 0 0.510422 0.131054 0 0.517892 0.132972 0 0.525216 0.134853 0 0.531966 0.136586 0 0.538312 0.138215 0 0.544145 0.139713 0 0.549613 0.141117 0 0.554886 0.14247 0 0.559752 0.14372 0 0.564377 0.144907 0 0.568652 0.146005 0 0.572659 0.147034 0 0.576524 0.148026 0 0.580234 0.148979 0 0.58465 0.150112 0 0.591339 0.15183 0 0.602735 0.154756 0 0.619982 0.159184 0 0.639266 0.164136 0 0.658638 0.169109 0 0.678009 0.174083 0 0.697381 0.179057 0 0.716753 0.184031 0 0.736124 0.189005 0 0.755496 0.193978 0 0.774867 0.198952 0 0.794239 0.203926 0 0.813611 0.2089 0 0.832982 0.213874 0 0.852354 0.218847 0 0.871726 0.223821 0 0.891097 0.228795 0 0.910469 0.233769 0 0.929841 0.238743 0 0.949212 0.243716 0 0.968584 0.24869 0 9.60294e-07 2.78991e-07 0 0.261344 0.0759274 0 0.295989 0.0859928 0 0.330442 0.0960023 0 0.356999 0.103718 0 0.379692 0.110311 0 0.398575 0.115797 0 0.415205 0.120628 0 0.43062 0.125107 0 0.444655 0.129184 0 0.457351 0.132873 0 0.468548 0.136126 0 0.478998 0.139162 0 0.488847 0.142023 0 0.497854 0.14464 0 0.506054 0.147022 0 0.51346 0.149174 0 0.520721 0.151283 0 0.527413 0.153228 0 0.533705 0.155056 0 0.539488 0.156736 0 0.544909 0.158311 0 0.550137 0.159829 0 0.554961 0.161231 0 0.559547 0.162563 0 0.563786 0.163795 0 0.567758 0.164949 0 0.57159 0.166062 0 0.575268 0.167131 0 0.579646 0.168403 0 0.586278 0.170329 0 0.597577 0.173612 0 0.614676 0.17858 0 0.633795 0.184134 0 0.653001 0.189714 0 0.672207 0.195294 0 0.691412 0.200874 0 0.710618 0.206454 0 0.729824 0.212034 0 0.74
[...]
			<PointData Scalars="VitesseX">
				<DataArray Name="VitesseX" type="Float32" format="ascii">
 0 0.794782 0.742725 0.937062 0.922393 1.00193 1.04965 1.06491 1.1556 1.16799 1.21934 1.2854 1.29964 1.34554 1.38485 1.44729 1.44517 1.45828 1.49906 1.55563 1.56273 1.59 1.58585 1.61833 1.67288 1.69338 1.71307 1.73769 1.7149 1.56959 1.19656 0.5321 0.0434452 0.000113603 3.41673e-09 8.27258e-14 0 0 0 0 0 0 0 0 0 0 0 0 0 0 0 0 0.794389 0.742359 0.936599 0.921938 1.00144 1.04913 1.06438 1.15503 1.16741 1.21874 1.28476 1.299 1.34488 1.38416 1.44657 1.44445 1.45756 1.49832 1.55486 1.56195 1.58921 1.58507 1.61754 1.67205 1.69254 1.71223 1.73683 1.71406 1.56882 1.19597 0.531838 0.0434238 0.000113547 3.41505e-09 8.26878e-14 -5.15663e-22 0 0 0 4.64097e-22 4.52778e-22 -4.41997e-22 -4.31718e-22 0 0 4.03563e-22 -3.94976e-22 0 7.5771e-22 0 0 0.793213 0.74126 0.935213 0.920573 0.999955 1.04758 1.0628 1.15332 1.16569 1.21694 1.28286 1.29708 1.34289 1.38211 1.44443 1.44231 1.4554 1.4961 1.55256 1.55964 1.58686 1.58272 1.61514 1.66958 1.69004 1.70969 1.73426 1.71152 1.5665 1.1942 0.53105 0.0433595 0.000113379 3.40999e-09 8.25479e-14 0 0 0 0 0 0 -4.41997e-22 0 0 0 4.03563e-22 -7.89952e-22 0 0 0 0 0.791254 0.739429 0.932903 0.9183 0.997485 1.04499 1.06018 1.15047 1.16281 1.21393 1.27969 1.29387 1.33957 1.3787 1.44086 1.43875 1.4518 1.4924 1.54873 1.55579 1.58294 1.57881 1.61115 1.66545 1.68586 1.70547 1.72998 1.70729 1.56263 1.19125 0.529739 0.0432524 0.000113099 3.40157e-09 8.23394e-14 5.15663e-22 0 0 0 0 0 0 0 0 8.25061e-22 4.03563e-22 -3.94976e-22 0 0 0 0 0.788515 0.736869 0.929673 0.91512 0.994031 1.04137 1.05651 1.14648 1.15878 1.20973 1.27526 1.28939 1.33493 1.37393 1.43588 1.43377 1.44678 1.48724 1.54336 1.5504 1.57746 1.57335 1.60557 1.65969 1.68003 1.69957 1.72399 1.70138 1.55722 1.18713 0.527905 0.0431026 0.000112707 3.38979e-09 8.20573e-14 0 0 4.88523e-22 0 0 0 0 0 -4.21906e-22 4.12531e-22 -8.07125e-22 0 -3.86748e-22 -3.78855e-22 0 0 0.784997 0.733581 0.925525 0.911037 0.989596 1.03672 1.0518 1.14137 1.15361 1.20433 1.26957 1.28364 1.32898 1.3678 1.42947 1.42737 1.44032 1.4806 1.53648 1.54349 1.57042 1.56633 1.59841 1.65228 1.67253 1.69198 1.7163 1.69379 1.55027 1.18183 0.525549 0.0429103 0.000112205 3.37467e-09 8.16736e-14 0 -5.01726e-22 -4.88523e-22 0 4.64097e-22 0 -4.41997e-22 0 0 4.12531e-22 0 7.89952e-22 -3.86748e-22 0 0 0 0.780704 0.72957 0.920464 0.906055 0.984185 1.03106 1.04604 1.13513 1.1473 1.19775 1.26263 1.27662 1.32171 1.36032 1.42165 1.41957 1.43245 1.4725 1.52808 1.53505 1.56183 1.55776 1.58967 1.64325 1.66338 1.68273 1.70691 1.68453 1.54179 1.17537 0.522675 0.0426757 0.000111591 3.35621e-09 8.11563e-14 0 0 4.88523e-22 0 0 0 4.41997e-22 0 -4.21906e-22 -4.12531e-22 0 7.89952e-22 -3.86748e-22 3.78855e-22 0 0 0.775641 0.724838 0.914494 0.900179 0.977802 1.02437 1.03926 1.12777 1.13986 1.18998 1.25444 1.26834 1.31314 1.35149 1.41243 1.41036 1.42316 1.46295 1.51817 1.52509 1.5517 1.54766 1.57936 1.63259 1.6526 1.67182 1.69584 1.6736 1.53179 1.16774 0.519286 0.0423989 0.000110867 3.33445e-09 8.06612e-14 0 0 0 -4.75997e-22 0 0 -4.41997e-22 4.31718e-22 0 -4.12531e-22 -4.03563e-22 -3.94976e-22 0 0 0 0 0.769812 0.719391 0.907622 0.893415 0.970454 1.01667 1.03145 1.11929 1.1313 1.18104 1.24501 1.25881 1.30327 1.34134 1.40182 1.39976 1.41246 1.45196 1.50676 1.51363 1.54004 1.53603 1.56749 1.62032 1.64018 1.65925 1.6831 1.66103 1.52028 1.15897 0.515383 0.0420803 0.000110034 3.30939e-09 8.00342e-14 0 5.01726e-22 0 0 0 0 0 4.31718e-22 8.43813e-22 -4.12531e-22 0 0 0 3.78855e-22 0 0 0.763224 0.713235 0.899854 0.885768 0.962149 1.00797 1.02262 1.10971 1.12161 1.17093 1.23436 1.24804 1.29212 1.32986 1.38982 1.38778 1.40037 1.43953 1.49386 1.50068 1.52686 1.52288 1.55408 1.60645 1.62614 1.64505 1.66869 1.64681 1.50727 1.14905 0.510973 0.0417201 0.000109092 3.28107e-09 7.92576e-14 0 5.01726e-22 -4.88523e-22 0 0 0 -8.83994e-22 -8.63436e-22 8.43813e-22 4.12531e-22 4.03563e-22 0 0 3.78855e-22 0 0 0.755882 0.706374 0.891199 0.877248 0.952894 0.998274 1.01279 1.09904 1.11082 1.15966 1.22249 1.23603 1.27969 1.31707 1.37645 1.37443 1.3869 1.42569 1.47949 1.48624 1.51218 1.50823 1.53913 1.591 1.6105 1.62923 1.65264 1.63097 1.49277 1.138 0.506057 0.0413188 0.000108043 3.24951e-09 7.85463e-14 0 0 0 4.75997e-22 -4.64097e-22 9.05555e-22 4.41997e-22 0 0 0 -4.03563e-22 -3.94976e-22 -3.86748e-22 3.78855e-22 0 0 0.747795 0.698816 0.881663 0.867862 0.942698 0.987593 1.00195 1.08728 1.09894 1.14726 1.20941 1.22281 1.26599 1.30298 1.36173 1.35973 1.37206 1.41043 1.46366 1.47034 1.496 1.4921 1.52266 1.57398 1.59327 1.6118 1.63496 1.61352 1.4768 1.12582 0.500643 0.0408768 0.000106887 3.21474e-09 7.77488e-14 0 -5.01726e-22 4.88523e-22 4.75997e-22 -4.64097e-22 -4.52778e-22 -4.41997e-22 0 -4.21906e-22 4.12531e-22 4.03563e-22 -3.94976e-22 -3.86748e-22 7.5771e-22 0 0 0.738969 0.690569 0.871258 0.85762 0.931573 0.975938 0.990125 1.07445 1.08597 1.13372 1.19513 1.20838 1.25105 1.2876 1.34565 1.34368 1.35587 1.39379 1.44639 1.45299 1.47834 1.47449 1.50469 1.5554 1.57446 1.59278 1.61567 1.59448 1.45937 1.11253 0.494734 0.0403943 0.000105626 3.1768e-09 7.68187e-14 -2.57832e-22 -2.50863e-22 4.88523e-22 -4.75997e-22 0 -4.52778e-22 0 4.31718e-22 -4.21906e-22 -4.12531e-22 -4.03563e-22 -3.94976e-22 -3.86748e-22 0 0 0 0.729415 0.68164 0.859993 0.846531 0.919528 0.963319 0.977322 1.06055 1.07193 1.11906 1.17968 1.19275 1.23488 1.27095 1.32826 1.32631 1.33834 1.37577 1.42769 1.4342 1.45923 1.45542 1.48523 1.53529 1.55411 1.57218 1.59477 1.57386 1.4405 1.09815 0.488338 0.039872 0.00010426 3.13572e-09 7.57693e-14 2.57832e-22 -2.50863e-22 0 4.75997e-22 4.64097e-22 0 0 0 0 8.25061e-22 0 3.94976e-22 0 -3.78855e-22 0 0 0.71914 0.672038 0.847879 0.834606 0.906575 0.949749 0.963556 1.04561 1.05683 1.1033 1.16306 1.17595 1.21748 1.25305 1.30955 1.30763 1.31949 1.35639 1.40758 1.414 1.43867 1.43492 1.46431 1.51367 1.53221 1.55004 1.57231 1.55169 1.42021 1.08268 0.481459 0.0393104 0.000102791 3.09155e-09 7.47562e-14 2.57832e-22 2.50863e-22 -2.44262e-22 -2.37998e-22 0 0 4.41997e-22 0 0 0 -4.03563e-22 0 3.86748e-22 -3.78855e-22 0 0 0.708156 0.661773 0.834928 0.821858 0.892728 0.935243 0.948838 1.02964 1.04069 1.08644 1.1453 1.15799 1.19889 1.23391 1.28954 1.28765 1.29933 1.33567 1.38608 1.3924 1.4167 1.413 1.44195 1.49055 1.50881 1.52636 1.54829 1.52799 1.39852 1.06614 0.474105 0.03871 0.000101221 3.04433e-09 7.36194e-14 0 0 0 0 -4.64097e-22 -2.26389e-22 0 4.31718e-22 0 0 4.03563e-22 0 3.86748e-22 3.78855e-22 0 0 0.696472 0.650855 0.821153 0.808299 0.878 0.919813 0.933184 1.01266 1.02352 1.06852 1.1264 1.13888 1.17911 1.21355 1.26827 1.26641 1.2779 1.31363 1.36321 1.36943 1.39333 1.38969 1.41816 1.46595 1.48392 1.50118 1.52275 1.50278 1.37545 1.04855 0.466283 0.0380713 9.95513e-05 2.99411e-09 7.2447e-14 2.57832e-22 5.01726e-22 7.32785e-22 4.75997e-22 2.32048e-22 4.52778e-22 -4.41997e-22 -4.31718e-22 2.10953e-22 -4.12531e-22 -4.03563e-22 0 0 -3.78855e-22 0 0 0.684102 0.639295 0.806568 0.793943 0.862405 0.903476 0.916609 0.99467 1.00534 1.04954 1.1064 1.11866 1.15816 1.192 1.24574 1.24392 1.2552 1.2903 1.339 1.3451 1.36858 1.36501 1.39297 1.43992 1.45756 1.47451 1.4957 1.47609 1.35102 1.02993 0.458001 0.0373951 9.77831e-05 2.94092e-09 7.11127e-14 -5.15663e-22 -5.01726e-22 0 -2.37998e-22 -2.32048e-22 6.79166e-22 2.20999e-22 0 0 0 4.03563e-22 3.94976e-22 3.86748e-22 -3.78855e-22 0 0 0.671056 0.627104 0.791187 0.778802 0.845959 0.886247 0.89913 0.975702 0.986167 1.02953 1.0853 1.09732 1.13608 1.16926 1.22199 1.22019 1.23126 1.2657 1.31346 1.31945 1.34248 1.33898 1.3664 1.41246 1.42977 1.4464 1.46718 1.44794 1.32525 1.01029 0.449267 0.036682 9.59184e-05 2.88484e-09 6.96586e-14 5.15663e-22 7.5259e-22 -7.32785e-22 7.13995e-22 -6.96145e-22 4.52778e-22 -6.62996e-22 4.31718e-22 0 -4.12531e-22 -2.01781e-22 -1.97488e-22 0 -3.78855e-22 0 0 0.657348 0.614294 0.775025 0.762894 0.828678 0.868143 0.880763 0.955771 0.966022 1.0085 1.06313 1.07491 1.11287 1.14538 1.19702 1.19527 1.20611 1.23984 1.28663 1.2925 1.31506 1.31163 1.33849 1.38361 1.40056 1.41685 1.43721 1.41836 1.29818 0.989653 0.44009 0.0359327 9.3959e-05 2.82591e-09 6.82801e-14 0 -7.5259e-22 -2.44262e-22 -2.37998e-22 -2.32048e-22 4.52778e-22 -1.10499e-21 4.31718e-22 4.21906e-22 -4.12531e-22 2.01781e-22 -3.94976e-22 3.86748e-22 -3.78855e-22 0 0 0.642992 0.600878 0.758099 0.746232 0.81058 0.849183 0.861527 0.934897 0.944924 0.98647 1.03991 1.05143 1.08857 1.12036 1.17088 1.16916 1.17977 1.21276 1.25853 1.26427 1.28633 1.28298 1.30926 1.35339 1.36997 1.38591 1.40582 1.38739 1.26983 0.968039 0.430478 0.0351479 9.19069e-05 2.76419e-09 6.6765e-14 6.44579e-22 -2.50863e-22 -2.44262e-22 -2.37998e-22 2.32048e-22 9.05555e-22 0 -2.15859e-22 4.21906e-22 2.06265e-22 -4.03563e-22 -3.94976e-22 0 0 0 0 0.628001 0.586868 0.740424 0.728834 0.791681 0.829384 0.841441 0.9131 0.922893 0.96347 1.01566 1.02692 1.06319 1.09424 1.14358 1.14191 1.15226 1.18449 1.22919 1.2348 1.25634 1.25307 1.27873 1.32183 1.33803 1.35359 1.37305 1.35504 1.24022 0.945469 0.420442 0.0343284 8.97642e-05 2.69975e-09 6.53188e-14 1.28916e-22 1.25432e-22 -1.22131e-22 2.37998e-22 -4.64097e-22 -6.79166e-22 8.83994e-22 0 -6.3286e-22 0 0 -1.97488e-22 -3.86748e-22 -3.78855e-22 0 0 0.61239 0.57228 0.722018 0.710716 0.772002 0.808767 0.820524 0.890402 0.899952 0.93952 0.990416 1.00139 1.03676 1.06704 1.11515 1.11352 1.12362 1.15504 1.19863 1.2041 1.22511 1.22192 1.24695 1.28897 1.30477 1.31995 1.33891 1.32136 1.20939 0.921967 0.40999 0.0334751 8.75328e-05 2.63264e-09 6.36766e-14 1.28916e-22 3.76295e-22 -9.77046e-22 5.94996e-22 2.32048e-22 0 -4.41997e-22 2.15859e-22 4.21906e-22 6.18796e-22 -2.01781e-22 5.92464e-22 5.80121e-22 -1.89427e-22 0 0 0.596174 0.557127 0.7029 0.691897 0.75156 0.787352 0.798798 0.866825 0.876123 0.914643 0.964191 0.974875 1.00931 1.03879 1.08563 1.08404 1.09387 1.12446 1.1669 1.17222 1.19267 1.18956 1.21393 1.25484 1.27022 1.285 1.30346 1.28637 1.17737 0.897554 0.399134 0.0325887 8.5215e-05 2.56293e-09 6.1945e-14 2.57832e-22 2.50863e-22 -3.66392e-22 3.56998e-22 1.16024e-22 7.92361e-22 1.10499e-22 -4.31718e-22 -2.10953e-22 0 -6.05344e-22 -1.97488e-22 0 -1.89427e-22 0 0 0.579371 0.541424 0.683089 0.672396 0.730377 0.76516 0.776283 0.842393 0.851428 0.888863 0.937015 0.947398 0.980858 1.00951 1.05503 1.05348 1.06304 1.09276 1.13401 1.13918 1.15906 1.15604 1.17971 1.21948 1.23442 1.24878 1.26672 1.25011 1.14419 0.872256 0.387884 0.0316702 8.28132e-05 2.49069e-09 6.02208e-14 3.2229e-22 -1.88147e-22 -2.44262e-22 -2.37998e-22 -4.64097e-22 0 2.20999e-22 2.15859e-22 -2.10953e-22 0 0 -1.97488e-22 1.93374e-22 1.89427e-22 0 0 0.561995 0.525186 0.662603 0.652231 0.708473 0.742213 0.753002 0.81713 0.825894 0.862206 0.908914 0.918985 0.951442 0.979234 1.02339 1.02189 1.03116 1.05999 1.1 1.10501 1.1243 1.12137 1.14434 1.1829 1.1974 1.21133 1.22873 1.21262 1.10987 0.846097 0.376252 0.0307204 8.03296e-05 2.41599e-09 5.83775e-14 -1.93374e-22 2.50863e-22 -5.49589e-22 -5.94996e-23 -8.1217e-22 -3.39583e-22 3.31498e-22 2.15859e-22 -2.10953e-22 0 2.01781e-22 -9.87441e-23 -1.93374e-22 3.78855e-22 0 0 0.544065 0.508431 0.641463 0.631422 0.68587 0.718533 0.728978 0.79106 0.799544 0.834698 0.879916 0.889665 0.921087 0.947993 0.990737 0.989284 0.998259 1.02617 1.0649 1.06976 1.08843 1.08559 1.10783 1.14516 1.1592 1.17268 1.18953 1.17393 1.07446 0.819103 0.364248 0.0297403 7.77668e-05 2.33891e-09 5.65259e-14 -5.80121e-22 3.13579e-23 3.66392e-22 -2.37998e-22 3.48073e-22 2.26389e-22 1.10499e-22 -2.15859e-22 1.05477e-22 5.15663e-22 0 4.9372e-22 -5.80121e-22 4.73568e-22 0 0 0.525599 0.491173 0.61969 0.60999 0.662589 0.694144 0.704235 0.764209 0.772406 0.806366 0.850049 0.859468 0.889823 0.915815 0.957109 0.955706 0.964375 0.991344 1.02876 1.03345 1.05148 1.04874 1.07022 1.10629 1.11985 1.13288 1.14916 1.13409 1.03799 0.7913 0.351884 0.0287308 7.51272e-05 2.25953e-09 5.46471e-14 -3.62576e-22 1.25432e-22 1.22131e-22 5.94996e-22 -1.04422e-21 -2.82986e-22 -2.76248e-22 5.93612e-22 -5.27383e-23 0 2.01781e-22 3.94976e-22 -7.73495e-22 7.5771e-22 0 0 0.506613 0.473431 0.597306 0.587956 0.638655 0.66907 0.678797 0.736604 0.744505 0.777239 0.819344 0.828422 0.857681 0.882734 0.922536 0.921184 0.92954 0.955534 0.991596 0.996119 1.0135 1.01086 1.03156 1.06633 1.0794 1.09195 1.10765 1.09312 1.0005 0.762717 0.339173 0.027693 7.24134e-05 2.17791e-09 5.25159e-14 -9.66869e-22 5.48763e-23 5.15239e-23 -2.08249e-22 5.22109e-22 1.13194e-21 -4.41997e-22 -1.34912e-21 2.10953e-22 -2.57832e-22 -4.54008e-22 1.97488e-22 -3.86748e-22 0 0 0 0.487127 0.455222 0.574332 0.565341 0.614091 0.643336 0.652688 0.708273 0.71587 0.747344 0.78783 0.796559 0.824692 0.848782 0.887053 0.885753 0.893788 0.918782 0.953457 0.957806 0.97452 0.971979 0.991888 1.02532 1.03788 1.04996 1.06504 1.05108 0.962015 0.733381 0.326128 0.0266279 6.96282e-05 2.09414e-09 5.06579e-14 1.28916e-22 -1.5679e-22 -6.10654e-22 8.1812e-22 1.10586e-22 3.46658e-22 5.66309e-22 2.96806e-22 5.27383e-22 -7.21929e-22 -3.53117e-22 4.9372e-23 9.66869e-23 4.73568e-22 0 0 0.467161 0.436563 0.550791 0.542169 0.588921 0.616967 0.625936 0.679242 0.686528 0.716712 0.755538 0.76391 0.79089 0.813992 0.850694 0.849447 0.857153 0.881123 0.914377 0.918547 0.934577 0.93214 0.951233 0.983293 0.995343 1.00692 1.02139 1.00799 0.922584 0.703321 0.312761 0.0255364 6.67743e-05 2.0083e-09 4.86098e-14 1.28916e-22 1.25432e-22 9.77046e-22 -6.24746e-22 3.48073e-22 4.38628e-22 7.59683e-23 3.1367e-22 -2.63692e-23 6.57471e-22 -3.02672e-22 5.43092e-22 2.41717e-22 -4.73568e-22 0 0 0.446734 0.417474 0.526707 0.518462 0.563169 0.589989 0.598566 0.649541 0.656508 0.685373 0.722501 0.730507 0.756307 0.778399 0.813496 0.812304 0.819673 0.842595 0.874394 0.878382 0.893711 0.891381 0.909639 0.940297 0.95182 0.96289 0.976728 0.963919 0.882243 0.672567 0.299085 0.0244198 6.38545e-05 1.92049e-09 4.64675e-14 -8.37953e-22 -3.76295e-22 -1.83196e-22 -4.75997e-22 -5.22109e-22 -8.48958e-23 -7.73495e-22 9.17401e-22 -4.35091e-22 -5.80121e-23 1.22961e-22 4.69034e-22 7.97667e-22 3.55176e-22 0 0 0.425865 0.397972 0.502103 0.494243 0.536862 0.562429 0.570605 0.619199 0.625841 0.653357 0.688751 0.696382 0.720977 0.742038 0.775496 0.774359 0.781383 0.803235 0.833548 0.83735 0.851963 0.849742 0.867147 0.896373 0.907357 0.917911 0.931102 0.918891 0.841031 0.64115 0.285114 0.0232791 6.08717e-05 1.83078e-09 4.42095e-14 -3.86747e-22 -3.76295e-22 1.22131e-22 -1.18999e-22 -3.48073e-22 -2.82986e-22 6.62996e-22 -4.31718e-22 -1.84584e-22 -1.80482e-22 4.54008e-22 2.83889e-22 -4.83434e-22 -4.63949e-22 0 0 0.404577 0.378078 0.477003 0.469536 0.510025 0.534314 0.542081 0.588246 0.594555 0.620696 0.654321 0.661571 0.684937 0.704944 0.736729 0.735649 0.742323 0.763082 0.79188 0.795492 0.809374 0.807264 0.823799 0.851564 0.862 0.872026 0.884557 0.872957 0.798989 0.609099 0.270861 0.0221154 5.78288e-05 1.73926e-09 4.2077e-14 -3.86747e-22 -3.76295e-22 -2.44262e-22 3.56998e-22 1.16024e-22 -6.79166e-22 -9.94494e-22 -4.85683e-22 -2.10953e-22 -3.60964e-22 -5.04453e-22 3.94976e-22 2.65889e-22 -2.60463e-22 0 0 0.382889 0.357811 0.451433 0.444366 0.482684 0.505672 0.513022 0.556712 0.562684 0.587423 0.619245 0.626107 0.64822 0.667155 0.697236 0.696214 0.70253 0.722176 0.749431 0.752849 0.765987 0.76399 0.779638 0.805915 0.815791 0.82528 0.837139 0.826161 0.756158 0.576448 0.256341 0.0209299 5.47288e-05 1.64602e-09 3.97343e-14 0 0 0 0 0 -1.13194e-22 5.52496e-22 -3.23789e-22 -3.1643e-22 -3.09398e-22 -3.02672e-22 -3.45604e-22 2.41717e-22 -5.20925e-22 0 0 0.360823 0.33719 0.425417 0.418758 0.454868 0.47653 0.483457 0.524629 0.530257 0.55357 0.583559 0.590025 0.610863 0.628707 0.657055 0.656092 0.662043 0.680557 0.706241 0.709463 0.721844 0.719961 0.734708 0.759471 0.768778 0.777719 0.788896 0.77855 0.712581 0.543228 0.241568 0.0197237 5.15748e-05 1.55116e-09 3.75477e-14 -6.44579e-22 -5.01726e-22 -2.44262e-22 -2.37998e-22 -2.32048e-22 -5.65972e-22 -2.20999e-22 -5.39648e-22 1.05477e-22 5.15663e-22 1.00891e-22 -9.87441e-23 2.41717e-22 0 0 0 0.338402 0.316237 0.398981 0.392736 0.426602 0.446918 0.453415 0.492029 0.497306 0.519171 0.547296 0.55336 0.572904 0.589639 0.616225 0.615322 0.620904 0.638267 0.662355 0.665376 0.676988 0.675223 0.689053 0.712277 0.721005 0.729391 0.739873 0.73017 0.668301 0.509471 0.226557 0.0184981 4.83699e-05 1.45477e-09 3.5107e-14 -2.57832e-22 5.01726e-22 -4.88523e-22 -7.13995e-22 -6.96145e-22 -3.39583e-22 -3.31498e-22 -7.55507e-22 -4.21906e-22 6.18796e-22 4.03563e-22 -8.88697e-22 -8.70182e-22 9.47137e-23 0 0 0.315646 0.294972 0.372152 0.366327 0.397915 0.416865 0.422925 0.458942 0.463865 0.48426 0.510493 0.51615 0.534379 0.549989 0.574787 0.573945 0.579151 0.595347 0.617815 0.620633 0.631464 0.629817 0.642718 0.66438 0.672522 0.680344 0.690121 0.68107 0.623361 0.475212 0.211323 0.0172542 4.51173e-05 1.35695e-09 3.28309e-14 0 5.01726e-22 4.88523e-22 4.75997e-22 4.64097e-22 0 0 4.31718e-22 0 1.03133e-22 7.06235e-22 2.96232e-22 -2.90061e-22 -1.89427e-22 0 0 0.292579 0.273415 0.344955 0.339556 0.368836 0.386401 0.392018 0.425403 0.429966 0.44887 0.473187 0.47843 0.495327 0.509796 0.532782 0.532001 0.536827 0.551839 0.572666 0.575278 0.585317 0.583791 0.595749 0.615828 0.623374 0.630625 0.639687 0.631298 0.577806 0.440484 0.195879 0.0159932 4.18201e-05 1.25778e-09 3.04596e-14 -2.57832e-22 0 7.32785e-22 -2.37998e-22 2.32048e-22 6.79166e-22 -2.20999e-22 0 -2.10953e-22 -2.06265e-22 2.01781e-22 1.97488e-22 -1.93374e-22 -3.78855e-22 0 0 0.269223 0.251589 0.317418 0.31245 0.339392 0.355555 0.360724 0.391444 0.395643 0.413038 0.435413 0.440238 0.455786 0.4691 0.490251 0.489533 0.493973 0.507787 0.526951 0.529354 0.538592 0.537188 0.548191 0.566667 0.573611 0.580283 0.588622 0.580903 0.531681 0.405321 0.180243 0.0147165 3.84817e-05 1.15738e-09 2.7895e-14 -2.57832e-22 -2.50863e-22 7.32785e-22 -4.75997e-22 -2.32048e-22 -2.26389e-22 -4.41997e-22 0 0 0 4.03563e-22 3.94976e-22 -3.86748e-22 -5.68282e-22 0 0 0.245601 0.229515 0.289568 0.285035 0.309614 0.324359 0.329074 0.357099 0.360929 0.376798 0.39721 0.401611 0.415795 0.427941 0.447237 0.446581 0.450632 0.463234 0.480716 0.482909 0.491336 0.490055 0.500093 0.516948 0.523283 0.529369 0.536976 0.529934 0.485031 0.369758 0.164428 0.0134253 3.51053e-05 1.05583e-09 2.55554e-14 -1.03133e-21 -5.01726e-22 -2.44262e-22 4.75997e-22 6.96145e-22 -4.52778e-22 4.41997e-22 -2.15859e-22 6.3286e-22 -4.12531e-22 -4.03563e-22 3.94976e-22 3.86748e-22 -7.5771e-22 0 0 0.221737 0.207214 0.261432 0.25734 0.27953 0.292842 0.297099 0.322401 0.325859 0.340186 0.358615 0.362588 0.375394 0.38636 0.40378 0.403189 0.406846 0.418223 0.434007 0.435987 0.443595 0.442438 0.451501 0.466718 0.472437 0.477932 0.484801 0.478443 0.437903 0.33383 0.148451 0.0121208 3.16943e-05 9.53238e-10 2.30684e-14 5.15663e-22 5.01726e-22 2.44262e-22 -4.75997e-22 4.64097e-22 0 0 4.31718e-22 4.21906e-22 4.12531e-22 -6.05344e-22 1.97488e-22 3.86748e-22 0 0 0 0.197654 0.184708 0.233038 0.22939 0.24917 0.261037 0.264831 0.287385 0.290467 0.303238 0.319666 0.323208 0.334623 0.344397 0.359926 0.359398 0.362658 0.3728 0.38687 0.388634 0.395416 0.394385 0.402463 0.416028 0.421126 0.426024 0.432146 0.426479 0.390342 0.297573 0.132328 0.0108044 2.8252e-05 8.49707e-10 2.05361e-14 -2.57832e-22 -5.01726e-22 -2.44262e-22 -2.37998e-22 -2.32048e-22 -4.52778e-22 -2.20999e-22 -4.31718e-22 -4.21906e-22 0 -2.01781e-22 3.94976e-22 -1.93374e-22 1.89427e-22 0 0 0.173376 0.162021 0.204414 0.201214 0.218565 0.228974 0.232302 0.252085 0.254789 0.265992 0.280401 0.283508 0.293521 0.302095 0.315716 0.315253 0.318113 0.327009 0.33935 0.340898 0.346847 0.345943 0.353029 0.364927 0.369399 0.373696 0.379066 0.374095 0.342396 0.261022 0.116074 0.00947728 2.47818e-05 7.45337e-10 1.80487e-14 -5.15663e-22 2.50863e-22 0 -2.37998e-22 2.32048e-22 0 2.20999e-22 2.15859e-22 -2.10953e-22 -2.06265e-22 -2.01781e-22 0 -1.93374e-22 -1.89427e-22 0 0 0.148927 0.139173 0.175588 0.172839 0.187743 0.196684 0.199543 0.216537 0.21886 0.228482 0.24086 0.243528 0.252129 0.259494 0.271195 0.270797 0.273254 0.280895 0.291496 0.292826 0.297936 0.297159 0.303246 0.313466 0.317307 0.320998 0.325611 0.321341 0.294113 0.224