<?xml version="1.0"?>
<VTKFile type="PolyData">
	<PolyData>
		<Piece NumberOfPoints="2601" NumberOfPolys="2500">
			<Points>
				<DataArray type="Float32" NumberOfComponents="3" format="ascii">
 1e-06 0 0 0.232582 0 0 0.265058 0 0 0.294387 0 0 0.318297 0 0 0.337539 0 0 0.354048 0 0 0.368268 0 0 0.381291 0 0 0.393558 0 0 0.404292 0 0 0.413699 0 0 0.422459 0 0 0.430883 0 0 0.438135 0 0 0.444682 0 0 0.450692 0 0 0.456324 0 0 0.461564 0 0 0.466365 0 0 0.470827 0 0 0.47494 0 0 0.478744 0 0 0.483029 0 0 0.48963 0 0 0.501647 0 0 0.520038 0 0 0.540001 0 0 0.560001 0 0 0.580001 0 0 0.600001 0 0 0.620001 0 0 0.640001 0 0 0.660001 0 0 0.680001 0 0 0.700001 0 0 0.720001 0 0 0.740001 0 0 0.760001 0 0 0.780001 0 0 0.800001 0 0 0.820001 0 0 0.840001 0 0 0.860001 0 0 0.880001 0 0 0.900001 0 0 0.920001 0 0 0.940001 0 0 0.960001 0 0 0.980001 0 0 1 0 0 9.99507e-07 3.14108e-08 0 0.232467 0.00730558 0 0.264928 0.00832568 0 0.294242 0.00924691 0 0.31814 0.00999796 0 0.337373 0.0106024 0 0.353873 0.0111209 0 0.368086 0.0115676 0 0.381103 0.0119767 0 0.393364 0.012362 0 0.404093 0.0126991 0 0.413494 0.0129946 0 0.422251 0.0132698 0 0.430671 0.0135344 0 0.437919 0.0137621 0 0.444462 0.0139678 0 0.450469 0.0141566 0 0.456099 0.0143335 0 0.461337 0.0144981 0 0.466135 0.0146489 0 0.470595 0.014789 0 0.474706 0.0149182 0 0.478508 0.0150377 0 0.482791 0.0151723 0 0.489389 0.0153797 0 0.5014 0.0157571 0 0.519781 0.0163348 0 0.539735 0.0169618 0 0.559725 0.0175901 0 0.579715 0.0182183 0 0.599705 0.0188465 0 0.619695 0.0194747 0 0.639685 0.0201029 0 0.659675 0.0207311 0 0.679665 0.0213593 0 0.699656 0.0219876 0 0.719646 0.0226158 0 0.739636 0.023244 0 0.759626 0.0238722 0 0.779616 0.0245004 0 0.799606 0.0251286 0 0.819596 0.0257569 0 0.839587 0.0263851 0 0.859577 0.0270133 0 0.879567 0.0276415 0 0.899557 0.0282697 0 0.919547 0.0288979 0 0.939537 0.0295261 0 0.959527 0.0301544 0 0.979517 0.0307826 0 0.999508 0.0314108 0 9.98027e-07 6.27905e-08 0 0.232123 0.0146039 0 0.264535 0.0166432 0 0.293806 0.0184847 0 0.317669 0.0199861 0 0.336873 0.0211943 0 0.353349 0.0222308 0 0.367541 0.0231237 0 0.380539 0.0239415 0 0.392782 0.0247117 0 0.403495 0.0253857 0 0.412882 0.0259763 0 0.421625 0.0265264 0 0.430033 0.0270554 0 0.43727 0.0275107 0 0.443804 0.0279218 0 0.449802 0.0282992 0 0.455423 0.0286528 0 0.460654 0.0289819 0 0.465445 0.0292833 0 0.469898 0.0295635 0 0.474003 0.0298217 0 0.4778 0.0300606 0 0.482076 0.0303297 0 0.488664 0.0307441 0 0.500657 0.0314987 0 0.519011 0.0326534 0 0.538935 0.0339069 0 0.558896 0.0351628 0 0.578857 0.0364186 0 0.598817 0.0376744 0 0.618778 0.0389302 0 0.638738 0.040186 0 0.658699 0.0414418 0 0.678659 0.0426976 0 0.69862 0.0439534 0 0.71858 0.0452092 0 0.738541 0.046465 0 0.758501 0.0477209 0 0.778462 0.0489767 0 0.798422 0.0502325 0 0.818383 0.0514883 0 0.838343 0.0527441 0 0.858304 0.0539999 0 0.878265 0.0552557 0 0.898225 0.0565115 0 0.918186 0.0577673 0 0.938146 0.0590232 0 0.958107 0.060279 0 0.978067 0.0615348 0 0.998028 0.0627906 0 9.95562e-07 9.41083e-08 0 0.23155 0.0218879 0 0.263882 0.0249442 0 0.29308 0.0277042 0 0.316885 0.0299544 0 0.336041 0.0317653 0 0.352477 0.0333188 0 0.366634 0.0346571 0 0.379599 0.0358827 0 0.391812 0.0370371 0 0.402498 0.0380473 0 0.411863 0.0389325 0 0.420584 0.0397569 0 0.428971 0.0405497 0 0.43619 0.0412321 0 0.442708 0.0418482 0 0.448691 0.0424138 0 0.454299 0.0429439 0 0.459516 0.043437 0 0.464295 0.0438888 0 0.468738 0.0443088 0 0.472832 0.0446958 0 0.47662 0.0450538 0 0.480886 0.0454571 0 0.487457 0.0460783 0 0.499421 0.0472092 0 0.51773 0.0489399 0 0.537604 0.0508186 0 0.557516 0.0527007 0 0.577427 0.0545829 0 0.597338 0.0564651 0 0.617249 0.0583472 0 0.637161 0.0602294 0 0.657072 0.0621116 0 0.676983 0.0639937 0 0.696894 0.0658759 0 0.716806 0.0677581 0 0.736717 0.0696402 0 0.756628 0.0715224 0 0.776539 0.0734046 0 0.796451 0.0752867 0 0.816362 0.0771689 0 0.836273 0.0790511 0 0.856184 0.0809332 0 0.876096 0.0828154 0 0.896007 0.0846976 0 0.915918 0.0865797 0 0.935829 0.0884619 0 0.95574 0.0903441 0 0.975652 0.0922262 0 0.995563 0.0941084 0 9.92115e-07 1.25333e-07 0 0.230748 0.0291503 0 0.262968 0.0332206 0 0.292066 0.0368965 0 0.315787 0.0398932 0 0.334878 0.0423049 0 0.351256 0.044374 0 0.365364 0.0461562 0 0.378285 0.0477885 0 0.390455 0.049326 0 0.401104 0.0506713 0 0.410436 0.0518502 0 0.419128 0.0529482 0 0.427486 0.054004 0 0.43468 0.0549128 0 0.441175 0.0557334 0 0.447138 0.0564866 0 0.452725 0.0571925 0 0.457925 0.0578494 0 0.462688 0.058451 0 0.467115 0.0590103 0 0.471195 0.0595257 0 0.474969 0.0600026 0 0.479221 0.0605396 0 0.485769 0.0613669 0 0.497691 0.062873 0 0.515937 0.065178 0 0.535743 0.0676801 0 0.555585 0.0701867 0 0.575428 0.0726934 0 0.59527 0.0752001 0 0.615112 0.0777067 0 0.634954 0.0802134 0 0.654797 0.0827201 0 0.674639 0.0852267 0 0.694481 0.0877334 0 0.714324 0.0902401 0 0.734166 0.0927467 0 0.754008 0.0952534 0 0.77385 0.09776 0 0.793693 0.100267 0 0.813535 0.102773 0 0.833377 0.10528 0 0.85322 0.107787 0 0.873062 0.110293 0 0.892904 0.1128 0 0.912747 0.115307 0 0.932589 0.117813 0 0.952431 0.12032 0 0.972273 0.122827 0 0.992116 0.125333 0 9.87688e-07 1.56434e-07 0 0.229719 0.0363838 0 0.261795 0.0414643 0 0.290762 0.0460522 0 0.314379 0.0497927 0 0.333384 0.0528028 0 0.349689 0.0553853 0 0.363734 0.0576098 0 0.376597 0.0596471 0 0.388713 0.0615661 0 0.399315 0.0632453 0 0.408605 0.0647167 0 0.417258 0.0660871 0 0.425578 0.067405 0 0.432741 0.0685394 0 0.439207 0.0695635 0 0.445143 0.0705037 0 0.450706 0.0713848 0 0.455882 0.0722046 0 0.460623 0.0729556 0 0.465031 0.0736536 0 0.469093 0.074297 0 0.47285 0.0748921 0 0.477082 0.0755624 0 0.483602 0.076595 0 0.495471 0.0784749 0 0.513635 0.0813518 0 0.533353 0.0844748 0 0.553106 0.0876035 0 0.57286 0.0907321 0 0.592614 0.0938608 0 0.612368 0.0969895 0 0.632122 0.100118 0 0.651875 0.103247 0 0.671629 0.106376 0 0.691383 0.109504 0 0.711137 0.112633 0 0.73089 0.115762 0 0.750644 0.11889 0 0.770398 0.122019 0 0.790152 0.125148 0 0.809905 0.128276 0 0.829659 0.131405 0 0.849413 0.134534 0 0.869167 0.137662 0 0.88892 0.140791 0 0.908674 0.14392 0 0.928428 0.147049 0 0.948182 0.150177 0 0.967936 0.153306 0 0.987689 0.156435 0 9.82287e-07 1.87381e-07 0 0.228462 0.0435815 0 0.260363 0.049667 0 0.289172 0.0551626 0 0.312659 0.059643 0 0.331561 0.0632486 0 0.347777 0.0663419 0 0.361745 0.0690066 0 0.374538 0.0714469 0 0.386587 0.0737455 0 0.397131 0.0757568 0 0.406371 0.0775194 0 0.414976 0.0791609 0 0.423251 0.0807395 0 0.430374 0.0820983 0 0.436805 0.083325 0 0.442709 0.0844512 0 0.448241 0.0855065 0 0.453389 0.0864885 0 0.458104 0.0873881 0 0.462488 0.0882243 0 0.466527 0.0889949 0 0.470264 0.0897077 0 0.474474 0.0905107 0 0.480957 0.0917475 0 0.492761 0.0939993 0 0.510826 0.0974453 0 0.530436 0.101186 0 0.550082 0.104934 0 0.569728 0.108681 0 0.589373 0.112429 0 0.609019 0.116177 0 0.628665 0.119924 0 0.648311 0.123672 0 0.667956 0.127419 0 0.687602 0.131167 0 0.707248 0.134915 0 0.726894 0.138662 0 0.746539 0.14241 0 0.766185 0.146158 0 0.785831 0.149905 0 0.805477 0.153653 0 0.825122 0.1574 0 0.844768 0.161148 0 0.864414 0.164896 0 0.88406 0.168643 0 0.903705 0.172391 0 0.923351 0.176139 0 0.942997 0.179886 0 0.962642 0.183634 0 0.982288 0.187382 0 9.75917e-07 2.18143e-07 0 0.226981 0.0507362 0 0.258675 0.0578207 0 0.287297 0.0642185 0 0.310632 0.0694344 0 0.32941 0.0736319 0 0.345521 0.0772331 0 0.359399 0.0803352 0 0.372109 0.0831761 0 0.38408 0.0858521 0 0.394556 0.0881937 0 0.403735 0.0902455 0 0.412285 0.0921566 0 0.420506 0.0939943 0 0.427583 0.0955761 0 0.433972 0.0970043 0 0.439838 0.0983153 0 0.445334 0.0995439 0 0.450448 0.100687 0 0.455133 0.101734 0 0.459488 0.102708 0 0.463502 0.103605 0 0.467215 0.104435 0 0.471396 0.10537 0 0.477838 0.10681 0 0.489566 0.109431 0 0.507513 0.113443 0 0.526996 0.117798 0 0.546514 0.12216 0 0.566033 0.126523 0 0.585551 0.130886 0 0.605069 0.135249 0 0.624588 0.139612 0 0.644106 0.143975 0 0.663624 0.148338 0 0.683143 0.1527 0 0.702661 0.157063 0 0.722179 0.161426 0 0.741698 0.165789 0 0.761216 0.170152 0 0.780734 0.174515 0 0.800253 0.178878 0 0.819771 0.183241 0 0.839289 0.187603 0 0.858808 0.191966 0 0.878326 0.196329 0 0.897844 0.200692 0 0.917363 0.205055 0 0.936881 0.209418 0 0.956399 0.213781 0 0.975918 0.218143 0 9.68583e-07 2.4869e-07 0 0.225275 0.0578408 0 0.256731 0.0659173 0 0.285138 0.073211 0 0.308297 0.0791573 0 0.326935 0.0839426 0 0.342925 0.0880481 0 0.356698 0.0915845 0 0.369312 0.0948233 0 0.381194 0.097874 0 0.391591 0.100543 0 0.400701 0.102883 0 0.409187 0.105061 0 0.417346 0.107156 0 0.42437 0.10896 0 0.430711 0.110588 0 0.436532 0.112082 0 0.441987 0.113483 0 0.447064 0.114786 0 0.451713 0.11598 0 0.456035 0.11709 0 0.460019 0.118113 0 0.463704 0.119059 0 0.467854 0.120125 0 0.474248 0.121766 0 0.485887 0.124755 0 0.5037 0.129328 0 0.523036 0.134293 0 0.542408 0.139267 0 0.561779 0.14424 0 0.581151 0.149214 0 0.600523 0.154188 0 0.619894 0.159162 0 0.639266 0.164136 0 0.658638 0.169109 0 0.678009 0.174083 0 0.697381 0.179057 0 0.716753 0.184031 0 0.736124 0.189005 0 0.755496 0.193978 0 0.774867 0.198952 0 0.794239 0.203926 0 0.813611 0.2089 0 0.832982 0.213874 0 0.852354 0.218847 0 0.871726 0.223821 0 0.891097 0.228795 0 0.910469 0.233769 0 0.929841 0.238743 0 0.949212 0.243716 0 0.968584 0.24869 0 9.60294e-07 2.78991e-07 0 0.223347 0.0648883 0 0.254534 0.0739489 0 0.282698 0.0821313 0 0.305659 0.0888021 0 0.324137 0.0941705 0 0.33999 0.0987762 0 0.353646 0.102744 0 0.366152 0.106377 0 0.377932 0.109799 0 0.388239 0.112794 0 0.397272 0.115418 0 0.405685 0.117862 0 0.413774 0.120213 0 0.420738 0.122236 0 0.427025 0.124062 0 0.432796 0.125739 0 0.438205 0.12731 0 0.443237 0.128772 0 0.447847 0.130112 0 0.452133 0.131357 0 0.456082 0.132504 0 0.459735 0.133565 0 0.46385 0.134761 0 0.470189 0.136602 0 0.481728 0.139955 0 0.499389 0.145086 0 0.51856 0.150655 0 0.537765 0.156235 0 0.556971 0.161815 0 0.576177 0.167395 0 0.595383 0.172975 0 0.614589 0.178555 0 0.633795 0.184134 0 0.653001 0.189714 0 0.672207 0.195294 0 0.691412 0.2008
[...]
			<PointData Scalars="VitesseX">
				<DataArray Name="VitesseX" type="Float32" format="ascii">
 0 0.859297 1.04315 1.1227 1.23602 1.35219 1.39702 1.52524 1.54452 1.57953 1.66598 1.75658 1.71468 1.81177 1.89037 1.95928 1.91591 2.01254 2.03042 2.07034 2.13592 2.1519 2.15791 2.00172 1.51463 0.562826 0.0255808 2.14487e-05 3.64811e-10 5.80499e-15 0 0 0 0 0 0 0 0 0 0 0 0 0 0 0 0 0 0 0 0 0 0 0.858873 1.04264 1.12214 1.23541 1.35152 1.39633 1.52449 1.54376 1.57875 1.66516 1.75572 1.71384 1.81088 1.88944 1.95832 1.91497 2.01154 2.02942 2.06931 2.13487 2.15084 2.15685 2.00073 1.51388 0.562548 0.0255682 2.14381e-05 3.64631e-10 5.80322e-15 0 0 0 0 3.49917e-22 0 -3.30477e-22 0 0 0 2.97429e-22 2.90175e-22 -2.83266e-22 -2.76679e-22 0 0 2.58634e-22 -2.53132e-22 0 4.85599e-22 0 0 0.857601 1.0411 1.12048 1.23358 1.34952 1.39426 1.52223 1.54148 1.57641 1.66269 1.75312 1.7113 1.8082 1.88664 1.95542 1.91213 2.00857 2.02642 2.06625 2.13171 2.14765 2.15365 1.99777 1.51164 0.561715 0.0255303 2.14064e-05 3.64091e-10 5.79206e-15 0 0 0 0 0 -3.39919e-22 0 0 0 0 0 0 -2.83266e-22 0 0 0 2.58634e-22 -5.06263e-22 0 0 0 0 0.855483 1.03852 1.11772 1.23054 1.34619 1.39082 1.51848 1.53767 1.57252 1.65859 1.74879 1.70707 1.80373 1.88198 1.95059 1.90741 2.00361 2.02141 2.06115 2.12644 2.14235 2.14833 1.99284 1.5079 0.560328 0.0254673 2.13535e-05 3.63192e-10 5.76864e-15 0 0 0 0 3.49917e-22 0 3.30477e-22 0 0 0 0 0 0 0 0 5.28764e-22 2.58634e-22 -2.53132e-22 0 0 0 0 0.852521 1.03493 1.11384 1.22628 1.34153 1.38601 1.51322 1.53234 1.56707 1.65284 1.74273 1.70116 1.79749 1.87547 1.94383 1.90081 1.99667 2.01441 2.05401 2.11908 2.13493 2.1409 1.98594 1.50268 0.558388 0.0253791 2.12796e-05 3.61935e-10 5.74071e-15 0 0 0 0 0 0 0 0 3.13084e-22 0 0 0 0 0 -2.7039e-22 2.64382e-22 -5.17269e-22 0 -2.47858e-22 -2.428e-22 0 0 0.848717 1.03031 1.10888 1.2208 1.33554 1.37982 1.50647 1.52551 1.56008 1.64547 1.73496 1.69357 1.78947 1.8671 1.93516 1.89233 1.98776 2.00543 2.04485 2.10962 2.12541 2.13134 1.97708 1.49598 0.555897 0.0252658 2.11846e-05 3.6032e-10 5.72212e-15 3.96572e-22 0 0 3.6052e-22 -3.49917e-22 -3.39919e-22 0 -3.21545e-22 -3.13084e-22 0 2.97429e-22 0 -2.83266e-22 0 0 2.64382e-22 0 5.06263e-22 -2.47858e-22 0 0 0 0.844076 1.02468 1.10281 1.21413 1.32824 1.37228 1.49823 1.51717 1.55155 1.63647 1.72547 1.68431 1.77968 1.85689 1.92458 1.88198 1.97689 1.99446 2.03366 2.09809 2.11378 2.11969 1.96626 1.4878 0.552857 0.0251277 2.10688e-05 3.58349e-10 5.67508e-15 0 -3.8378e-22 0 0 3.49917e-22 0 0 0 3.13084e-22 0 0 0 2.83266e-22 0 -2.7039e-22 -2.64382e-22 0 5.06263e-22 -2.47858e-22 2.428e-22 0 0 0.838602 1.01803 1.09566 1.20625 1.31963 1.36338 1.48851 1.50733 1.54149 1.62586 1.71428 1.67339 1.76814 1.84485 1.9121 1.86977 1.96407 1.98153 2.02047 2.08448 2.10007 2.10594 1.95351 1.47815 0.549271 0.0249647 2.09322e-05 3.56025e-10 5.63017e-15 1.98286e-22 0 0 -3.6052e-22 0 -3.39919e-22 0 0 0 -3.05056e-22 0 0 -2.83266e-22 2.76679e-22 0 -2.64382e-22 -2.58634e-22 -2.53132e-22 0 0 0 0 0.8323 1.01038 1.08743 1.19719 1.30971 1.35313 1.47733 1.496 1.5299 1.61364 1.7014 1.66081 1.75485 1.83098 1.89773 1.85572 1.94931 1.96663 2.00529 2.06882 2.08429 2.09012 1.93883 1.46704 0.545144 0.0247771 2.07749e-05 3.5335e-10 5.59848e-15 -1.98286e-22 0 1.85893e-22 0 0 0 0 3.21545e-22 0 0 0 0 0 2.76679e-22 5.40781e-22 -2.64382e-22 0 0 0 2.428e-22 0 0 0.825177 1.00173 1.07812 1.18694 1.2985 1.34155 1.46468 1.4832 1.51681 1.59983 1.68684 1.6466 1.73983 1.81531 1.88149 1.83984 1.93263 1.9498 1.98813 2.05111 2.06646 2.07223 1.92224 1.45449 0.540478 0.0245651 2.05971e-05 3.50326e-10 5.52693e-15 0 -1.9189e-22 1.85893e-22 0 -3.49917e-22 0 0 3.21545e-22 -3.13084e-22 0 0 0 -5.66532e-22 -5.53357e-22 5.40781e-22 2.64382e-22 2.58634e-22 0 0 2.428e-22 0 0 0.81724 0.992099 1.06775 1.17553 1.28601 1.32865 1.45059 1.46893 1.50222 1.58444 1.67061 1.63076 1.7231 1.79785 1.86339 1.82214 1.91404 1.93105 1.96901 2.03138 2.04658 2.0523 1.90375 1.44049 0.535279 0.0243288 2.03989e-05 3.46956e-10 5.46657e-15 1.98286e-22 -3.8378e-22 1.85893e-22 -1.8026e-22 0 0 0 0 0 3.05056e-22 -2.97429e-22 5.8035e-22 2.83266e-22 0 0 0 -2.58634e-22 -2.53132e-22 -2.47858e-22 2.428e-22 0 0 0.808496 0.981484 1.05632 1.16295 1.27225 1.31443 1.43507 1.45321 1.48615 1.56749 1.65274 1.61331 1.70466 1.77862 1.84345 1.80265 1.89356 1.91039 1.94794 2.00965 2.02468 2.03034 1.88338 1.42508 0.529552 0.0240685 2.01807e-05 3.43244e-10 5.41846e-15 1.98286e-22 -1.9189e-22 1.85893e-22 0 1.74958e-22 0 0 -3.21545e-22 3.13084e-22 3.05056e-22 -2.97429e-22 -2.90175e-22 -2.83266e-22 0 -2.7039e-22 2.64382e-22 2.58634e-22 -2.53132e-22 -2.47858e-22 4.85599e-22 0 0 0.798954 0.9699 1.04386 1.14922 1.25724 1.29892 1.41814 1.43606 1.46861 1.54899 1.63323 1.59427 1.68454 1.75762 1.8217 1.78137 1.87121 1.88784 1.92495 1.98593 2.00079 2.00637 1.86115 1.40826 0.523302 0.0237844 1.99425e-05 3.39193e-10 5.36476e-15 1.98286e-22 0 0 0 -3.49917e-22 -1.6996e-22 -1.65239e-22 -1.60773e-22 3.13084e-22 -3.05056e-22 0 -2.90175e-22 0 2.76679e-22 -2.7039e-22 -2.64382e-22 -2.58634e-22 -2.53132e-22 -2.47858e-22 0 0 0 0.788623 0.95736 1.03036 1.13436 1.24098 1.28212 1.3998 1.41749 1.44962 1.52896 1.61211 1.57366 1.66276 1.7349 1.79814 1.75834 1.84702 1.86343 1.90006 1.96025 1.97492 1.98043 1.83709 1.39005 0.516536 0.0234769 1.96847e-05 3.34807e-10 5.28374e-15 -3.96572e-22 -1.9189e-22 -3.71787e-22 -3.6052e-22 0 3.39919e-22 1.65239e-22 -1.60773e-22 0 3.05056e-22 2.97429e-22 0 0 0 0 5.28764e-22 0 2.53132e-22 0 -2.428e-22 0 0 0.777515 0.943874 1.01585 1.11839 1.2235 1.26406 1.38008 1.39753 1.4292 1.50742 1.5894 1.55149 1.63934 1.71046 1.77281 1.73357 1.821 1.83718 1.8733 1.93264 1.9471 1.95254 1.81121 1.37047 0.50926 0.0231462 1.94074e-05 3.30091e-10 5.23368e-15 3.96572e-22 -1.9189e-22 3.71787e-22 -1.8026e-22 -1.74958e-22 1.6996e-22 1.65239e-22 1.60773e-22 -1.56542e-22 -1.52528e-22 0 0 2.83266e-22 0 0 0 -2.58634e-22 0 2.47858e-22 -2.428e-22 0 0 0.765639 0.929457 1.00033 1.1013 1.20481 1.24475 1.359 1.37618 1.40737 1.4844 1.56513 1.52779 1.6143 1.68433 1.74573 1.70709 1.79318 1.80912 1.84468 1.90312 1.91736 1.92271 1.78355 1.34954 0.501482 0.0227926 1.91109e-05 3.25049e-10 5.05828e-15 1.98286e-22 -1.9189e-22 1.85893e-22 1.8026e-22 0 -5.09879e-22 0 0 0 0 -2.97429e-22 -1.45088e-22 0 2.76679e-22 0 0 2.58634e-22 0 2.47858e-22 2.428e-22 0 0 0.753007 0.914123 0.983827 1.08313 1.18493 1.22422 1.33658 1.35348 1.38415 1.45991 1.53931 1.50259 1.58767 1.65655 1.71693 1.67893 1.7636 1.77927 1.81425 1.87172 1.88572 1.89099 1.75412 1.32728 0.493208 0.0224166 1.87957e-05 3.19687e-10 4.97531e-15 -1.98286e-22 -3.8378e-22 -1.85893e-22 -3.6052e-22 1.74958e-22 0 1.65239e-22 3.21545e-22 4.69625e-22 3.05056e-22 1.48715e-22 2.90175e-22 -2.83266e-22 -2.76679e-22 1.35195e-22 -2.64382e-22 -2.58634e-22 0 0 -2.428e-22 0 0 0.739633 0.897887 0.966353 1.0639 1.16389 1.20247 1.31284 1.32944 1.35956 1.43398 1.51197 1.4759 1.55947 1.62712 1.68644 1.64911 1.73228 1.74767 1.78202 1.83848 1.85223 1.8574 1.72296 1.3037 0.484448 0.0220185 1.84618e-05 3.14008e-10 4.87924e-15 -9.91431e-23 2.87835e-22 2.7884e-22 1.8026e-22 1.74958e-22 0 -3.30477e-22 -3.21545e-22 0 -1.52528e-22 -1.48715e-22 4.35263e-22 1.41633e-22 0 0 0 2.58634e-22 2.53132e-22 2.47858e-22 -2.428e-22 0 0 0.725528 0.880764 0.947925 1.04361 1.14169 1.17954 1.28781 1.30408 1.33364 1.40663 1.48313 1.44775 1.52973 1.59609 1.65428 1.61766 1.69924 1.71434 1.74804 1.80342 1.81691 1.82198 1.69011 1.27884 0.47521 0.0215986 1.81098e-05 3.0802e-10 4.7828e-15 0 -3.8378e-22 9.29467e-23 -3.6052e-22 1.74958e-22 0 3.30477e-22 4.82318e-22 -4.69625e-22 4.57584e-22 -4.46144e-22 2.90175e-22 -4.24899e-22 2.76679e-22 0 -2.64382e-22 -1.29317e-22 -1.26566e-22 0 -2.428e-22 0 0 0.710708 0.862773 0.928561 1.02229 1.11837 1.15545 1.2615 1.27744 1.3064 1.3779 1.45284 1.41818 1.49848 1.56349 1.62049 1.58461 1.66453 1.67932 1.71233 1.76658 1.77979 1.78477 1.65558 1.25272 0.465502 0.0211574 1.77398e-05 3.01728e-10 4.63835e-15 -9.91431e-23 2.87835e-22 3.71787e-22 -5.40781e-22 8.74792e-23 8.49798e-23 0 -4.82318e-22 -1.56542e-22 -1.52528e-22 -1.48715e-22 2.90175e-22 -7.08165e-22 2.76679e-22 2.7039e-22 -2.64382e-22 1.29317e-22 -2.53132e-22 2.47858e-22 -2.428e-22 0 0 0.695186 0.843929 0.908281 0.999963 1.09395 1.13021 1.23395 1.24955 1.27786 1.34781 1.42111 1.38721 1.46576 1.52934 1.58509 1.55001 1.62818 1.64265 1.67494 1.728 1.74092 1.74579 1.61943 1.22536 0.455336 0.0206953 1.73524e-05 2.95139e-10 4.51434e-15 2.47858e-22 2.87835e-22 -1.85893e-22 3.6052e-22 -1.74958e-22 1.6996e-22 4.13096e-22 -1.60773e-22 -1.56542e-22 -1.52528e-22 1.48715e-22 5.8035e-22 0 -1.38339e-22 2.7039e-22 1.32191e-22 -2.58634e-22 -2.53132e-22 0 0 0 0 0.678977 0.824253 0.887105 0.976649 1.06844 1.10386 1.20518 1.22041 1.24807 1.31638 1.38797 1.35487 1.43158 1.49369 1.54814 1.51387 1.59022 1.60435 1.63589 1.68771 1.70033 1.70508 1.58167 1.19679 0.44472 0.0202128 1.69478e-05 2.88258e-10 4.40735e-15 1.98286e-22 -4.79725e-22 0 1.8026e-22 8.74792e-23 0 8.26193e-23 8.03863e-23 -7.82709e-23 1.52528e-22 -2.97429e-22 -4.35263e-22 5.66532e-22 0 -4.05586e-22 0 0 -1.26566e-22 -2.47858e-22 -2.428e-22 0 0 0.662099 0.803764 0.865053 0.952371 1.04188 1.07642 1.17522 1.19008 1.21705 1.28366 1.35347 1.32119 1.396 1.45656 1.50965 1.47624 1.55069 1.56447 1.59522 1.64576 1.65807 1.6627 1.54235 1.16704 0.433665 0.0197103 1.65265e-05 2.81092e-10 4.28182e-15 -4.95716e-23 2.87835e-22 -1.3942e-22 -4.50651e-23 0 -2.54939e-22 8.26193e-23 2.41159e-22 -6.26167e-22 3.8132e-22 1.48715e-22 0 -2.83266e-22 1.38339e-22 2.7039e-22 3.96573e-22 -1.29317e-22 3.79697e-22 3.71787e-22 -1.214e-22 0 0 0.644568 0.782481 0.842148 0.927154 1.01429 1.04792 1.1441 1.15856 1.18482 1.24967 1.31763 1.2862 1.35903 1.41799 1.46968 1.43715 1.50963 1.52304 1.55298 1.60218 1.61416 1.61867 1.50151 1.13614 0.422182 0.0191884 1.60889e-05 2.73649e-10 4.24705e-15 -2.23072e-22 3.11821e-22 -4.64733e-23 1.8026e-22 0 3.82409e-22 1.65239e-22 1.60773e-22 -2.34813e-22 2.28792e-22 7.43574e-23 5.07806e-22 7.08165e-23 -2.76679e-22 -1.35195e-22 0 -3.87952e-22 -1.26566e-22 0 -1.214e-22 0 0 0.6264 0.760427 0.818411 0.901021 0.985705 1.01838 1.11186 1.12591 1.15143 1.21445 1.28049 1.24995 1.32073 1.37802 1.42826 1.39664 1.46708 1.48012 1.50921 1.55702 1.56867 1.57305 1.45919 1.10411 0.410282 0.0186476 1.56354e-05 2.65936e-10 4.11334e-15 3.71787e-23 -5.99656e-23 -4.64733e-23 2.25325e-22 -2.18698e-22 -2.97429e-22 2.06548e-22 -1.20579e-22 -1.56542e-22 -1.52528e-22 -2.97429e-22 0 1.41633e-22 1.38339e-22 -1.35195e-22 0 0 -1.26566e-22 1.23929e-22 1.214e-22 0 0 0.607614 0.737621 0.793867 0.873999 0.956143 0.987843 1.07851 1.09214 1.11689 1.17803 1.24209 1.21246 1.28112 1.3367 1.38542 1.35476 1.42308 1.43573 1.46395 1.51032 1.52162 1.52587 1.41543 1.071 0.397978 0.0180883 1.51665e-05 2.57961e-10 3.9102e-15 -3.22215e-22 -2.69845e-23 -5.22825e-22 -9.01301e-23 -1.96828e-22 -2.97429e-22 -1.23929e-22 1.60773e-22 -3.52219e-22 -3.8132e-23 -5.20502e-22 -2.17631e-22 2.1245e-22 1.38339e-22 -1.35195e-22 0 1.29317e-22 -6.32829e-23 -1.23929e-22 2.428e-22 0 0 0.588229 0.714088 0.768539 0.846115 0.925638 0.956327 1.0441 1.0573 1.08126 1.14044 1.20246 1.17378 1.24024 1.29405 1.34122 1.31153 1.37768 1.38992 1.41724 1.46214 1.47308 1.47719 1.37027 1.03683 0.385281 0.0175113 1.46827e-05 2.49731e-10 3.86855e-15 2.72644e-22 1.67904e-22 4.64733e-22 6.19645e-23 -3.0071e-22 3.93032e-22 -3.71787e-22 2.00966e-23 2.34813e-22 -1.52528e-22 2.23072e-22 1.45088e-22 7.08165e-23 -1.38339e-22 6.75976e-23 3.30477e-22 0 3.16414e-22 -3.71787e-22 3.035e-22 0 0 0.568263 0.68985 0.742453 0.817396 0.89422 0.923867 1.00866 1.02141 1.04456 1.10173 1.16165 1.13394 1.19815 1.25013 1.2957 1.26702 1.33092 1.34274 1.36914 1.41251 1.42308 1.42705 1.32376 1.00164 0.372203 0.0169169 1.41843e-05 2.41254e-10 3.63591e-15 -4.95716e-23 2.39862e-22 -4.1826e-22 4.05586e-22 5.46745e-23 -9.56023e-23 -2.32367e-22 8.03863e-23 7.82709e-23 3.8132e-22 -6.69216e-22 -1.81359e-22 -1.77041e-22 3.80433e-22 -3.37988e-23 0 1.29317e-22 2.53132e-22 -4.95716e-22 4.85599e-22 0 0 0.547736 0.664931 0.715634 0.78787 0.861919 0.890495 0.972227 0.984516 1.00683 1.06194 1.11969 1.09298 1.15487 1.20497 1.24889 1.22125 1.28284 1.29424 1.31968 1.36149 1.37167 1.3755 1.27594 0.965459 0.358759 0.0163058 1.36719e-05 2.3254e-10 3.60967e-15 -3.96572e-22 2.87835e-22 1.85893e-22 4.50651e-22 2.40568e-22 -1.2747e-22 -6.19645e-22 3.5169e-23 3.30205e-23 -1.33462e-22 3.34608e-22 7.25438e-22 -2.83266e-22 -8.64621e-22 1.35195e-22 -1.65239e-22 -2.90964e-22 1.26566e-22 -2.47858e-22 0 0 0 0.526669 0.639357 0.688109 0.757567 0.828767 0.856244 0.934833 0.946649 0.968103 1.02109 1.07662 1.05094 1.11045 1.15862 1.20086 1.17428 1.2335 1.24446 1.26892 1.30912 1.31891 1.3226 1.22687 0.928325 0.34496 0.0156786 1.31461e-05 2.23595e-10 3.41081e-15 -1.98286e-22 -9.5945e-23 -2.7884e-22 2.7039e-22 2.62438e-22 8.49798e-23 8.26193e-23 -1.00483e-22 -3.91355e-22 5.24315e-22 7.08719e-23 2.22165e-22 3.62935e-22 1.90217e-22 3.37988e-22 -4.62668e-22 -2.26305e-22 3.16414e-23 6.19645e-23 3.035e-22 0 0 0.505082 0.613151 0.659905 0.726515 0.794798 0.821148 0.896516 0.907848 0.928422 0.979239 1.03249 1.00787 1.06493 1.11113 1.15164 1.12615 1.18294 1.19345 1.21691 1.25546 1.26485 1.26839 1.17658 0.890275 0.330821 0.015036 1.26072e-05 2.14431e-10 3.23083e-15 -5.94859e-22 -4.79725e-22 -1.85893e-22 -2.7039e-22 -2.18698e-22 1.6996e-22 8.26193e-23 8.03863e-23 6.26167e-22 -4.00386e-22 2.23072e-22 2.81107e-22 4.86864e-23 2.01024e-22 -1.68994e-23 4.21358e-22 -1.93976e-22 3.48056e-22 1.54911e-22 -3.035e-22 0 0 0.482996 0.58634 0.63105 0.694747 0.760044 0.785242 0.857315 0.868151 0.887826 0.93642 0.987346 0.963795 1.01837 1.06255 1.10128 1.0769 1.13121 1.14127 1.1637 1.20057 1.20955 1.21293 1.12513 0.851346 0.316355 0.0143785 1.2056e-05 2.05054e-10 3.20929e-15 9.91431e-23 2.87835e-22 -9.29467e-23 9.01301e-23 -1.74958e-22 -1.6996e-22 -5.37025e-22 -2.41159e-22 -1.17406e-22 -3.05056e-22 -3.34608e-22 -5.44078e-23 -4.95716e-22 5.87942e-22 -2.7884e-22 -3.71787e-23 7.88027e-23 3.00594e-22 5.11207e-22 2.27625e-22 0 0 0.460434 0.55895 0.601571 0.662294 0.72454 0.748561 0.817267 0.827597 0.846353 0.892677 0.941225 0.918773 0.970796 1.01291 1.04984 1.0266 1.07837 1.08796 1.10934 1.14448 1.15305 1.15627 1.07257 0.811577 0.301577 0.0137069 1.14928e-05 1.95476e-10 2.98813e-15 4.95716e-22 9.5945e-23 0 -1.8026e-22 0 5.09879e-22 -2.47858e-22 -2.41159e-22 7.82709e-23 -7.6264e-23 -2.23072e-22 -1.81359e-22 4.24899e-22 -2.76679e-22 -1.18296e-22 -1.15667e-22 2.90964e-22 1.81938e-22 -3.09822e-22 -2.97335e-22 0 0 0.437418 0.531009 0.5715 0.629186 0.688321 0.711142 0.776413 0.786226 0.804044 0.848053 0.894174 0.872845 0.922267 0.962278 0.997357 0.975279 1.02447 1.03357 1.05389 1.08727 1.09541 1.09847 1.01896 0.771007 0.286502 0.0130217 1.09183e-05 1.85704e-10 2.85025e-15 0 0 -1.85893e-22 -9.01301e-23 -3.49917e-22 1.6996e-22 -2.47858e-22 -2.41159e-22 -1.56542e-22 2.28792e-22 7.43574e-23 -4.35263e-22 -6.37349e-22 -3.11263e-22 -1.35195e-22 -2.31334e-22 -3.23293e-22 2.53132e-22 1.70402e-22 -1.66925e-22 0 0 0.413969 0.502543 0.540864 0.595458 0.651423 0.67302 0.734792 0.74408 0.760943 0.802593 0.846241 0.826055 0.872828 0.910694 0.943892 0.922998 0.969548 0.978164 0.997392 1.02899 1.03669 1.03958 0.964336 0.729677 0.271143 0.0123236 1.0333e-05 1.75749e-10 2.7752e-15 0 0 0 0 0 -1.6996e-22 0 0 0 0 0 -7.25438e-23 3.54083e-22 -2.07509e-22 -2.02793e-22 -1.98286e-22 -1.93976e-22 -2.2149e-22 1.54911e-22 -3.33849e-22 0 0 0.390112 0.473582 0.509694 0.561142 0.613882 0.634234 0.692447 0.701199 0.71709 0.75634 0.797472 0.77845 0.822528 0.858211 0.889496 0.869807 0.913673 0.921793 0.939913 0.969688 0.976942 0.979671 0.908762 0.687626 0.255518 0.0116134 9.73751e-06 1.65621e-10 2.63e-15 0 0 1.85893e-22 3.6052e-22 3.49917e-22 -1.6996e-22 -4.13096e-22 -3.21545e-22 -1.56542e-22 -1.52528e-22 -1.48715e-22 -3.62719e-22 -1.41633e-22 -3.45848e-22 6.75976e-23 3.30477e-22 6.46586e-23 -6.32829e-23 1.54911e-22 0 0 0 0.365871 0.444153 0.478021 0.526273 0.575735 0.594823 0.649418 0.657626 0.67253 0.70934 0.747917 0.730076 0.771415 0.804882 0.834222 0.815756 0.856897 0.864513 0.881506 0.909431 0.916234 0.918794 0.852291 0.644896 0.23964 0.0108918 9.13242e-06 1.55329e-10 2.45328e-15 -3.96572e-22 -3.8378e-22 1.85893e-22 3.6052e-22 3.49917e-22 0 -1.65239e-22 3.21545e-22 -3.13084e-22 -4.57584e-22 -4.46144e-22 -2.17631e-22 -2.1245e-22 -4.84188e-22 -2.7039e-22 3.96573e-22 2.58634e-22 -5.69546e-22 -5.5768e-22 6.06999e-23 0 0 0.341268 0.414286 0.445877 0.490884 0.53702 0.554824 0.605748 0.613404 0.627306 0.661641 0.697623 0.680983 0.719542 0.750758 0.778125 0.760901 0.799275 0.806379 0.822229 0.848277 0.854622 0.85701 0.794979 0.60153 0.223525 0.0101594 8.51831e-06 1.44884e-10 2.32626e-15 5.94859e-22 1.9189e-22 0 1.8026e-22 0 0 0 3.21545e-22 3.13084e-22 3.05056e-22 2.97429e-22 0 0 2.76679e-22 0 6.60954e-23 4.5261e-22 1.89849e-22 -1.85893e-22 -1.214e-22 0 0 0.316328 0.384011 0.413293 0.45501 0.497775 0.514278 0.56148 0.568577 0.581463 0.613289 0.646642 0.631217 0.666958 0.695893 0.72126 0.705295 0.740865 0.747449 0.762141 0.786285 0.792167 0.79438 0.736882 0.557571 0.20719 0.00941691 7.8958e-06 1.34296e-10 2.09653e-15 -1.98286e-22 0 -3.71787e-22 -1.8026e-22 -1.74958e-22 -3.39919e-22 -1.65239e-22 0 4.69625e-22 -1.52528e-22 1.48715e-22 4.35263e-22 -1.41633e-22 0 -1.35195e-22 -1.32191e-22 1.29317e-22 1.26566e-22 -1.23929e-22 -2.428e-22 0 0 0.291076 0.353356 0.3803 0.418687 0.458038 0.473224 0.516658 0.523189 0.535046 0.564331 0.595021 0.580828 0.613716 0.640341 0.663684 0.648993 0.681723 0.687782 0.701301 0.723518 0.72893 0.730966 0.678058 0.513061 0.19065 0.00866518 7.26549e-06 1.23575e-10 1.94826e-15 -1.98286e-22 0 5.5768e-22 5.40781e-22 0 -3.39919e-22 -1.65239e-22 -1.60773e-22 4.69625e-22 -3.05056e-22 -1.48715e-22 -1.45088e-22 -2.83266e-22 0 0 0 2.58634e-22 2.53132e-22 -2.47858e-22 -3.64199e-22 0 0 0.265537 0.322352 0.346933 0.381952 0.41785 0.431703 0.471326 0.477284 0.488101 0.514817 0.542814 0.529866 0.559869 0.584157 0.605452 0.59205 0.621908 0.627436 0.639769 0.660036 0.664973 0.666831 0.618565 0.468045 0.173923 0.0079049 6.62802e-06 1.12733e-10 1.78447e-15 5.94859e-22 1.9189e-22 -3.71787e-22 -3.6052e-22 3.49917e-22 -5.09879e-22 -6.60954e-22 -3.21545e-22 -1.56542e-22 3.05056e-22 4.46144e-22 -2.90175e-22 2.83266e-22 -1.38339e-22 4.05586e-22 -2.64382e-22 -2.58634e-22 2.53132e-22 2.47858e-22 -4.85599e-22 0 0 0.239736 0.291031 0.313223 0.344839 0.377249 0.389756 0.42553 0.430908 0.440674 0.464794 0.490071 0.478381 0.505469 0.527397 0.546623 0.534523 0.56148 0.56647 0.577605 0.595903 0.600361 0.602038 0.558462 0.422567 0.157023 0.00713681 5.984e-06 1.01779e-10 1.59328e-15 -5.94859e-22 3.8378e-22 3.71787e-22 -5.40781e-22 1.74958e-22 3.39919e-22 3.30477e-22 3.21545e-22 1.56542e-22 -3.05056e-22 2.97429e-22 0 0 2.76679e-22 2.7039e-22 2.64382e-22 -3.87952e-22 1.26566e-22 2.47858e-22 0 0 0 0.213698 0.259422 0.279204 0.307386 0.336276 0.347425 0.379313 0.384107 0.392812 0.414313 0.436845 0.426424 0.45057 0.470117 0.487254 0.476468 0.500498 0.504946 0.514871 0.531182 0.535156 0.536651 0.497807 0.376672 0.139969 0.00636168 5.33408e-06 9.0725e-11 1.44186e-15 5.94859e-22 -3.8378e-22 -1.85893e-22 -1.8026e-22 -3.49917e-22 1.6996e-22 -1.65239e-22 -3.21545e-22 -1.56542e-22 -1.52528e-22 -1.48715e-22 -2.90175e-22 -1.41633e-22 -2.76679e-22 -2.7039e-22 0 -1.29317e-22 2.53132e-22 -1.23929e-22 1.214e-22 0 0 0.18745 0.227557 0.244909 0.26963 0.294971 0.304751 0.332722 0.336927 0.344563 0.363423 0.383187 0.374046 0.395226 0.412372 0.427405 0.417944 0.439022 0.442923 0.45163 0.465937 0.469422 0.470734 0.436662 0.330405 0.122777 0.00558027 4.67889e-06 7.95811e-11 1.25348e-15 0 0 1.85893e-22 1.8026e-22 6.99834e-22 -1.6996e-22 -3.30477e-22 1.60773e-22 0 -1.52528e-22 1.48715e-22 0 1.41633e-22 1.38339e-22 -1.35195e-22 -1.32191e-22 -1.29317e-22 0 -1.23929e-22 -1.214e-22 0 0 0.161016 0.195468 0.210373 0.231607 0.253375 0.261776 0.285802 0.289415 0.295974 0.312174 0.329151 0.3213 0.339492 0.354221 0.367133 0.359006 0.377112 0.380464 0.387942 0.400232 0.403226 0.404352 0.375085 0.283813 0.105463 0.00479336 4.01909e-06 6.83588e-11 1.1092e-15 3.96572e-22