<?xml version="1.0"?>
<VTKFile type="PolyData">
	<PolyData>
		<Piece NumberOfPoints="2601" NumberOfPolys="2500">
			<Points>
				<DataArray type="Float32" NumberOfComponents="3" format="ascii">
 1e-06 0 0 0.212685 0 0 0.242441 0 0 0.269353 0 0 0.290699 0 0 0.307694 0 0 0.322588 0 0 0.335843 0 0 0.347846 0 0 0.358676 0 0 0.367972 0 0 0.375892 0 0 0.38372 0 0 0.390742 0 0 0.396998 0 0 0.402612 0 0 0.407558 0 0 0.412314 0 0 0.416629 0 0 0.420711 0 0 0.424796 0 0 0.430747 0 0 0.44192 0 0 0.460045 0 0 0.480001 0 0 0.500001 0 0 0.520001 0 0 0.540001 0 0 0.560001 0 0 0.580001 0 0 0.600001 0 0 0.620001 0 0 0.640001 0 0 0.660001 0 0 0.680001 0 0 0.700001 0 0 0.720001 0 0 0.740001 0 0 0.760001 0 0 0.780001 0 0 0.800001 0 0 0.820001 0 0 0.840001 0 0 0.860001 0 0 0.880001 0 0 0.900001 0 0 0.920001 0 0 0.940001 0 0 0.960001 0 0 0.980001 0 0 1 0 0 9.99507e-07 3.14108e-08 0 0.21258 0.00668058 0 0.242321 0.00761525 0 0.26922 0.00846058 0 0.290556 0.00913109 0 0.307542 0.00966489 0 0.322429 0.0101327 0 0.335677 0.0105491 0 0.347674 0.0109261 0 0.358499 0.0112663 0 0.367791 0.0115583 0 0.375707 0.0118071 0 0.383531 0.0120529 0 0.390549 0.0122735 0 0.396802 0.01247 0 0.402414 0.0126464 0 0.407357 0.0128017 0 0.41211 0.0129511 0 0.416423 0.0130866 0 0.420504 0.0132149 0 0.424586 0.0133432 0 0.430534 0.0135301 0 0.441702 0.0138811 0 0.459818 0.0144504 0 0.479764 0.0150772 0 0.499754 0.0157054 0 0.519744 0.0163336 0 0.539735 0.0169618 0 0.559725 0.0175901 0 0.579715 0.0182183 0 0.599705 0.0188465 0 0.619695 0.0194747 0 0.639685 0.0201029 0 0.659675 0.0207311 0 0.679665 0.0213593 0 0.699656 0.0219876 0 0.719646 0.0226158 0 0.739636 0.023244 0 0.759626 0.0238722 0 0.779616 0.0245004 0 0.799606 0.0251286 0 0.819596 0.0257569 0 0.839587 0.0263851 0 0.859577 0.0270133 0 0.879567 0.0276415 0 0.899557 0.0282697 0 0.919547 0.0288979 0 0.939537 0.0295261 0 0.959527 0.0301544 0 0.979517 0.0307826 0 0.999508 0.0314108 0 9.98027e-07 6.27905e-08 0 0.212265 0.0133546 0 0.241963 0.015223 0 0.268821 0.0169128 0 0.290126 0.0182532 0 0.307087 0.0193202 0 0.321952 0.0202555 0 0.33518 0.0210878 0 0.34716 0.0218414 0 0.357968 0.0225214 0 0.367246 0.0231052 0 0.375151 0.0236025 0 0.382963 0.024094 0 0.389971 0.0245349 0 0.396214 0.0249277 0 0.401818 0.0252802 0 0.406754 0.0255908 0 0.4115 0.0258894 0 0.415807 0.0261603 0 0.419881 0.0264167 0 0.423957 0.0266731 0 0.429897 0.0270468 0 0.441048 0.0277484 0 0.459138 0.0288865 0 0.479054 0.0301395 0 0.499014 0.0313953 0 0.518975 0.0326511 0 0.538935 0.0339069 0 0.558896 0.0351628 0 0.578857 0.0364186 0 0.598817 0.0376744 0 0.618778 0.0389302 0 0.638738 0.040186 0 0.658699 0.0414418 0 0.678659 0.0426976 0 0.69862 0.0439534 0 0.71858 0.0452092 0 0.738541 0.046465 0 0.758501 0.0477209 0 0.778462 0.0489767 0 0.798422 0.0502325 0 0.818383 0.0514883 0 0.838343 0.0527441 0 0.858304 0.0539999 0 0.878265 0.0552557 0 0.898225 0.0565115 0 0.918186 0.0577673 0 0.938146 0.0590232 0 0.958107 0.060279 0 0.978067 0.0615348 0 0.998028 0.0627906 0 9.95562e-07 9.41083e-08 0 0.211741 0.0200154 0 0.241365 0.0228157 0 0.268158 0.0253484 0 0.289409 0.0273572 0 0.306328 0.0289565 0 0.321156 0.0303582 0 0.334353 0.0316056 0 0.346302 0.0327352 0 0.357084 0.0337544 0 0.366339 0.0346292 0 0.374224 0.0353746 0 0.382017 0.0361113 0 0.389008 0.0367721 0 0.395236 0.0373608 0 0.400826 0.0378892 0 0.405749 0.0383546 0 0.410484 0.0388022 0 0.41478 0.0392082 0 0.418844 0.0395924 0 0.42291 0.0399768 0 0.428835 0.0405369 0 0.439959 0.0415884 0 0.458004 0.0432941 0 0.477871 0.0451721 0 0.497782 0.0470543 0 0.517693 0.0489364 0 0.537604 0.0508186 0 0.557516 0.0527007 0 0.577427 0.0545829 0 0.597338 0.0564651 0 0.617249 0.0583472 0 0.637161 0.0602294 0 0.657072 0.0621116 0 0.676983 0.0639937 0 0.696894 0.0658759 0 0.716806 0.0677581 0 0.736717 0.0696402 0 0.756628 0.0715224 0 0.776539 0.0734046 0 0.796451 0.0752867 0 0.816362 0.0771689 0 0.836273 0.0790511 0 0.856184 0.0809332 0 0.876096 0.0828154 0 0.896007 0.0846976 0 0.915918 0.0865797 0 0.935829 0.0884619 0 0.95574 0.0903441 0 0.975652 0.0922262 0 0.995563 0.0941084 0 9.92115e-07 1.25333e-07 0 0.211008 0.0266564 0 0.240529 0.0303859 0 0.267229 0.0337589 0 0.288407 0.0364343 0 0.305267 0.0385643 0 0.320044 0.040431 0 0.333195 0.0420923 0 0.345103 0.0435967 0 0.355848 0.044954 0 0.365071 0.0461192 0 0.372928 0.0471118 0 0.380695 0.0480929 0 0.387661 0.048973 0 0.393867 0.049757 0 0.399438 0.0504607 0 0.404344 0.0510806 0 0.409063 0.0516766 0 0.413343 0.0522174 0 0.417394 0.0527291 0 0.421446 0.053241 0 0.42735 0.0539869 0 0.438436 0.0553873 0 0.456418 0.057659 0 0.476216 0.0601601 0 0.496058 0.0626667 0 0.515901 0.0651734 0 0.535743 0.0676801 0 0.555585 0.0701867 0 0.575428 0.0726934 0 0.59527 0.0752001 0 0.615112 0.0777067 0 0.634954 0.0802134 0 0.654797 0.0827201 0 0.674639 0.0852267 0 0.694481 0.0877334 0 0.714324 0.0902401 0 0.734166 0.0927467 0 0.754008 0.0952534 0 0.77385 0.09776 0 0.793693 0.100267 0 0.813535 0.102773 0 0.833377 0.10528 0 0.85322 0.107787 0 0.873062 0.110293 0 0.892904 0.1128 0 0.912747 0.115307 0 0.932589 0.117813 0 0.952431 0.12032 0 0.972273 0.122827 0 0.992116 0.125333 0 9.87688e-07 1.56434e-07 0 0.210066 0.0332712 0 0.239456 0.0379261 0 0.266037 0.0421361 0 0.28712 0.0454754 0 0.303906 0.0481339 0 0.318617 0.0504639 0 0.331708 0.0525374 0 0.343564 0.0544151 0 0.35426 0.0561093 0 0.363442 0.0575635 0 0.371265 0.0588025 0 0.378996 0.0600271 0 0.385932 0.0611256 0 0.39211 0.0621041 0 0.397656 0.0629824 0 0.40254 0.0637561 0 0.407238 0.0645001 0 0.411499 0.0651751 0 0.415532 0.0658137 0 0.419566 0.0664527 0 0.425444 0.0673837 0 0.43648 0.0691316 0 0.454381 0.071967 0 0.474091 0.0750887 0 0.493845 0.0782174 0 0.513599 0.0813461 0 0.533353 0.0844748 0 0.553106 0.0876035 0 0.57286 0.0907321 0 0.592614 0.0938608 0 0.612368 0.0969895 0 0.632122 0.100118 0 0.651875 0.103247 0 0.671629 0.106376 0 0.691383 0.109504 0 0.711137 0.112633 0 0.73089 0.115762 0 0.750644 0.11889 0 0.770398 0.122019 0 0.790152 0.125148 0 0.809905 0.128276 0 0.829659 0.131405 0 0.849413 0.134534 0 0.869167 0.137662 0 0.88892 0.140791 0 0.908674 0.14392 0 0.928428 0.147049 0 0.948182 0.150177 0 0.967936 0.153306 0 0.987689 0.156435 0 9.82287e-07 1.87381e-07 0 0.208917 0.0398531 0 0.238147 0.0454289 0 0.264582 0.0504717 0 0.28555 0.0544716 0 0.302244 0.0576561 0 0.316874 0.060447 0 0.329894 0.0629307 0 0.341685 0.0651799 0 0.352323 0.0672092 0 0.361454 0.0689511 0 0.369234 0.0704352 0 0.376924 0.071902 0 0.383821 0.0732178 0 0.389966 0.0743899 0 0.395481 0.075442 0 0.400339 0.0763688 0 0.405011 0.0772599 0 0.409249 0.0780684 0 0.413259 0.0788334 0 0.417271 0.0795987 0 0.423117 0.0807139 0 0.434093 0.0828076 0 0.451897 0.0862039 0 0.471499 0.0899432 0 0.491145 0.0936908 0 0.51079 0.0974385 0 0.530436 0.101186 0 0.550082 0.104934 0 0.569728 0.108681 0 0.589373 0.112429 0 0.609019 0.116177 0 0.628665 0.119924 0 0.648311 0.123672 0 0.667956 0.127419 0 0.687602 0.131167 0 0.707248 0.134915 0 0.726894 0.138662 0 0.746539 0.14241 0 0.766185 0.146158 0 0.785831 0.149905 0 0.805477 0.153653 0 0.825122 0.1574 0 0.844768 0.161148 0 0.864414 0.164896 0 0.88406 0.168643 0 0.903705 0.172391 0 0.923351 0.176139 0 0.942997 0.179886 0 0.962642 0.183634 0 0.982288 0.187382 0 9.75917e-07 2.18143e-07 0 0.207562 0.0463957 0 0.236602 0.0528868 0 0.262866 0.0587575 0 0.283698 0.0634141 0 0.300283 0.0671213 0 0.314819 0.0703704 0 0.327755 0.0732619 0 0.339469 0.0758803 0 0.350038 0.0782427 0 0.35911 0.0802707 0 0.36684 0.0819984 0 0.374479 0.083706 0 0.381332 0.0852378 0 0.387437 0.0866024 0 0.392916 0.0878272 0 0.397743 0.088906 0 0.402384 0.0899435 0 0.406595 0.0908847 0 0.410579 0.0917753 0 0.414565 0.0926663 0 0.420373 0.0939645 0 0.431277 0.0964019 0 0.448966 0.100356 0 0.468441 0.104709 0 0.487959 0.109072 0 0.507478 0.113435 0 0.526996 0.117798 0 0.546514 0.12216 0 0.566033 0.126523 0 0.585551 0.130886 0 0.605069 0.135249 0 0.624588 0.139612 0 0.644106 0.143975 0 0.663624 0.148338 0 0.683143 0.1527 0 0.702661 0.157063 0 0.722179 0.161426 0 0.741698 0.165789 0 0.761216 0.170152 0 0.780734 0.174515 0 0.800253 0.178878 0 0.819771 0.183241 0 0.839289 0.187603 0 0.858808 0.191966 0 0.878326 0.196329 0 0.897844 0.200692 0 0.917363 0.205055 0 0.936881 0.209418 0 0.956399 0.213781 0 0.975918 0.218143 0 9.68583e-07 2.4869e-07 0 0.206003 0.0528925 0 0.234824 0.0602926 0 0.260891 0.0669854 0 0.281566 0.072294 0 0.298027 0.0765203 0 0.312453 0.0802244 0 0.325292 0.0835208 0 0.336918 0.0865058 0 0.347407 0.0891991 0 0.356412 0.091511 0 0.364083 0.0934807 0 0.371665 0.0954274 0 0.378466 0.0971737 0 0.384525 0.0987293 0 0.389964 0.100126 0 0.394754 0.101356 0 0.39936 0.102538 0 0.40354 0.103611 0 0.407494 0.104627 0 0.41145 0.105642 0 0.417214 0.107122 0 0.428037 0.109901 0 0.445592 0.114409 0 0.464921 0.119371 0 0.484293 0.124345 0 0.503664 0.129319 0 0.523036 0.134293 0 0.542408 0.139267 0 0.561779 0.14424 0 0.581151 0.149214 0 0.600523 0.154188 0 0.619894 0.159162 0 0.639266 0.164136 0 0.658638 0.169109 0 0.678009 0.174083 0 0.697381 0.179057 0 0.716753 0.184031 0 0.736124 0.189005 0 0.755496 0.193978 0 0.774867 0.198952 0 0.794239 0.203926 0 0.813611 0.2089 0 0.832982 0.213874 0 0.852354 0.218847 0 0.871726 0.223821 0 0.891097 0.228795 0 0.910469 0.233769 0 0.929841 0.238743 0 0.949212 0.243716 0 0.968584 0.24869 0 9.60294e-07 2.78991e-07 0 0.20424 0.0593371 0 0.232814 0.0676389 0 0.258658 0.0751471 0 0.279157 0.0811025 0 0.295476 0.0858438 0 0.309779 0.0899992 0 0.322508 0.0936972 0 0.334034 0.097046 0 0.344434 0.100067 0 0.353361 0.102661 0 0.360967 0.104871 0 0.368484 0.107055 0 0.375227 0.109014 0 0.381234 0.110759 0 0.386626 0.112325 0 0.391375 0.113705 0 0.395942 0.115032 0 0.400086 0.116236 0 0.404006 0.117375 0 0.407928 0.118514 0 0.413644 0.120175 0 0.424373 0.123292 0 0.441779 0.128349 0 0.460942 0.133916 0 0.480148 0.139496 0 0.499354 0.145076 0 0.51856 0.150655 0 0.537765 0.156235 0 0.556971 0.161815 0 0.576177 0.167395 0 0.595383 0.172975 0 0.614589 0.178555 0 0.633795 0.184134 0 0.653001 0.189714 0 0.672207 0.195294 0 0
[...]
			<PointData Scalars="VitesseX">
				<DataArray Name="VitesseX" type="Float32" format="ascii">
 0 0.947214 1.44342 1.32305 1.55742 1.56984 1.61005 1.76737 1.76505 1.82897 2.01244 2.04084 2.0508 2.15378 2.25872 2.27005 2.36233 2.37161 2.38932 2.45493 2.34416 1.85236 0.735568 0.035097 3.13817e-05 4.44929e-10 5.83158e-15 0 0 0 0 0 0 0 0 0 0 0 0 0 0 0 0 0 0 0 0 0 0 0 0 0 0.946747 1.44271 1.3224 1.55665 1.56907 1.60926 1.7665 1.76418 1.82807 2.01145 2.03983 2.04979 2.15272 2.2576 2.26893 2.36117 2.37044 2.38814 2.45372 2.34301 1.85145 0.735205 0.0350797 3.13662e-05 4.44709e-10 5.82761e-15 0 0 0 0 0 0 0 2.72112e-22 0 -2.56995e-22 0 0 0 2.31295e-22 2.25654e-22 -2.20281e-22 -2.15158e-22 0 0 2.01126e-22 -1.96847e-22 0 3.77625e-22 0 0 0.945345 1.44058 1.32044 1.55435 1.56674 1.60688 1.76388 1.76157 1.82536 2.00847 2.03681 2.04675 2.14953 2.25426 2.26557 2.35767 2.36693 2.3846 2.45009 2.33954 1.84871 0.734116 0.0350277 3.13197e-05 4.44051e-10 5.81721e-15 0 -3.30422e-22 0 0 0 0 0 0 -2.64337e-22 0 0 0 0 0 0 -2.20281e-22 0 0 0 2.01126e-22 -3.93694e-22 0 0 0 0 0.94301 1.43702 1.31718 1.55051 1.56287 1.60291 1.75952 1.75722 1.82085 2.00351 2.03178 2.0417 2.14422 2.24869 2.25997 2.35185 2.36109 2.37871 2.44404 2.33376 1.84414 0.732303 0.0349412 3.12424e-05 4.42954e-10 5.80695e-15 3.42659e-22 0 3.19028e-22 0 0 0 0 2.72112e-22 0 2.56995e-22 0 0 0 0 0 0 0 0 4.11192e-22 2.01126e-22 -1.96847e-22 0 0 0 0 0.939745 1.43204 1.31262 1.54514 1.55746 1.59736 1.75343 1.75113 1.81455 1.99657 2.02475 2.03463 2.1368 2.24091 2.25215 2.3437 2.35291 2.37048 2.43558 2.32568 1.83776 0.729767 0.0348202 3.11342e-05 4.4142e-10 5.79721e-15 -1.7133e-22 0 0 0 0 0 0 0 0 0 0 2.43469e-22 0 0 0 0 0 -2.10268e-22 2.05596e-22 -4.02253e-22 0 -1.92746e-22 -1.88813e-22 0 0 0.935552 1.42565 1.30676 1.53824 1.55051 1.59023 1.74561 1.74332 1.80645 1.98767 2.01571 2.02555 2.12726 2.23091 2.2421 2.33325 2.34242 2.3599 2.42471 2.3153 1.82956 0.726511 0.0346649 3.09953e-05 4.39451e-10 5.78115e-15 -1.7133e-22 0 3.19028e-22 3.08394e-22 0 0 2.80358e-22 -2.72112e-22 -2.64337e-22 0 -2.50049e-22 -2.43469e-22 0 2.31295e-22 0 -2.20281e-22 0 0 2.05596e-22 0 3.93694e-22 -1.92746e-22 0 0 0 0.930436 1.41786 1.29962 1.52983 1.54203 1.58154 1.73606 1.73379 1.79657 1.9768 2.00469 2.01447 2.11563 2.21871 2.22984 2.32049 2.32961 2.347 2.41145 2.30264 1.81955 0.722539 0.0344753 3.08258e-05 4.37048e-10 5.74259e-15 1.7133e-22 -1.65211e-22 -1.59514e-22 0 -2.98445e-22 0 0 2.72112e-22 0 0 0 2.43469e-22 0 0 0 2.20281e-22 0 -2.10268e-22 -2.05596e-22 0 3.93694e-22 -1.92746e-22 1.88813e-22 0 0 0.924402 1.40866 1.29119 1.51991 1.53203 1.57128 1.7248 1.72254 1.78492 1.96398 1.99169 2.00141 2.10191 2.20432 2.21538 2.30544 2.3145 2.33177 2.39581 2.28771 1.80775 0.717853 0.0342517 3.06259e-05 4.34213e-10 5.6953e-15 -1.7133e-22 0 1.59514e-22 1.54197e-22 0 0 -2.80358e-22 0 -2.64337e-22 0 0 0 -2.37226e-22 0 0 -2.20281e-22 2.15158e-22 0 -2.05596e-22 -2.01126e-22 -1.96847e-22 0 0 0 0 0.917456 1.39808 1.28148 1.50849 1.52052 1.55947 1.71184 1.7096 1.77151 1.94922 1.97672 1.98637 2.08611 2.18776 2.19873 2.28811 2.29711 2.31425 2.37781 2.27052 1.79417 0.712458 0.0339943 3.03957e-05 4.3095e-10 5.66871e-15 1.7133e-22 -1.65211e-22 -1.59514e-22 -1.54197e-22 0 1.4456e-22 0 0 0 0 2.50049e-22 0 0 0 0 0 2.15158e-22 4.20537e-22 -2.05596e-22 0 0 0 1.88813e-22 0 0 0.909604 1.38611 1.27052 1.49558 1.50751 1.54613 1.69719 1.69497 1.75635 1.93254 1.9598 1.96937 2.06826 2.16903 2.17991 2.26853 2.27745 2.29445 2.35746 2.25109 1.77881 0.706361 0.0337034 3.01356e-05 4.27262e-10 5.64455e-15 1.7133e-22 1.65211e-22 1.59514e-22 0 -1.49223e-22 1.4456e-22 0 -2.72112e-22 0 0 2.50049e-22 -2.43469e-22 0 0 0 -4.40562e-22 -4.30317e-22 4.20537e-22 2.05596e-22 2.01126e-22 0 0 1.88813e-22 0 0 0.900854 1.37278 1.2583 1.48119 1.49301 1.53125 1.68087 1.67866 1.73945 1.91395 1.94095 1.95042 2.04836 2.14817 2.15894 2.24671 2.25554 2.27238 2.33478 2.22943 1.7617 0.699566 0.0333792 2.98457e-05 4.23152e-10 5.58217e-15 0 0 0 1.54197e-22 -2.98445e-22 1.4456e-22 -1.40179e-22 0 0 0 0 0 2.37226e-22 -2.31295e-22 4.51308e-22 2.20281e-22 0 0 0 -2.01126e-22 -1.96847e-22 -1.92746e-22 1.88813e-22 0 0 0.891216 1.35809 1.24483 1.46535 1.47703 1.51487 1.66288 1.6607 1.72084 1.89347 1.92019 1.92956 2.02645 2.12518 2.13584 2.22267 2.23141 2.24806 2.3098 2.20558 1.74285 0.692081 0.0330221 2.95264e-05 4.18625e-10 5.53912e-15 0 -1.65211e-22 -3.19028e-22 1.54197e-22 -1.49223e-22 1.4456e-22 0 1.36056e-22 0 0 -2.50049e-22 2.43469e-22 2.37226e-22 -2.31295e-22 -2.25654e-22 -2.20281e-22 0 -2.10268e-22 2.05596e-22 2.01126e-22 -1.96847e-22 -1.92746e-22 3.77625e-22 0 0 0.880697 1.34206 1.23014 1.44805 1.4596 1.49699 1.64326 1.6411 1.70053 1.87112 1.89752 1.90678 2.00253 2.1001 2.11064 2.19644 2.20507 2.22153 2.28254 2.17955 1.72228 0.683913 0.0326324 2.91779e-05 4.13684e-10 5.48285e-15 1.7133e-22 0 0 1.54197e-22 0 0 0 -2.72112e-22 -1.32169e-22 -1.28497e-22 -1.25024e-22 2.43469e-22 -2.37226e-22 0 -2.25654e-22 0 2.15158e-22 -2.10268e-22 -2.05596e-22 -2.01126e-22 -1.96847e-22 -1.92746e-22 0 0 0 0.86931 1.32471 1.21424 1.42933 1.44073 1.47764 1.62201 1.61988 1.67855 1.84693 1.87299 1.88213 1.97664 2.07295 2.08335 2.16804 2.17656 2.19281 2.25303 2.15137 1.70001 0.675071 0.0322104 2.88007e-05 4.08335e-10 5.38789e-15 0 1.65211e-22 0 -3.08394e-22 -1.49223e-22 -2.89119e-22 -2.80358e-22 0 2.64337e-22 1.28497e-22 -1.25024e-22 0 2.37226e-22 2.31295e-22 0 0 0 0 4.11192e-22 0 1.96847e-22 0 -1.88813e-22 0 0 0.857065 1.30605 1.19713 1.40919 1.42043 1.45682 1.59916 1.59707 1.6549 1.82091 1.84661 1.85562 1.9488 2.04375 2.054 2.1375 2.1459 2.16192 2.22129 2.12106 1.67607 0.665561 0.0317567 2.8395e-05 4.02583e-10 5.3044e-15 3.42659e-22 1.65211e-22 3.19028e-22 3.08394e-22 -1.49223e-22 2.89119e-22 -1.40179e-22 -1.36056e-22 1.32169e-22 1.28497e-22 1.25024e-22 -1.21734e-22 -1.18613e-22 0 0 2.20281e-22 0 0 0 -2.01126e-22 0 1.92746e-22 -1.88813e-22 0 0 0.843974 1.2861 1.17885 1.38767 1.39874 1.43457 1.57474 1.57267 1.62962 1.7931 1.8184 1.82727 1.91903 2.01253 2.02263 2.10485 2.11312 2.1289 2.18736 2.08867 1.65047 0.655395 0.0312716 2.79613e-05 3.96434e-10 5.22358e-15 -2.56995e-22 8.26054e-23 -2.39271e-22 1.54197e-22 -1.49223e-22 1.4456e-22 1.40179e-22 0 -3.96506e-22 0 0 0 0 -2.31295e-22 -1.12827e-22 0 2.15158e-22 0 0 2.01126e-22 0 1.92746e-22 1.88813e-22 0 0 0.83005 1.26488 1.1594 1.36478 1.37566 1.4109 1.54876 1.54673 1.60274 1.76352 1.7884 1.79713 1.88737 1.97933 1.98926 2.07013 2.07826 2.09377 2.15127 2.05421 1.62324 0.644583 0.0307557 2.75e-05 3.89894e-10 5.15411e-15 1.7133e-22 0 0 -1.54197e-22 -2.98445e-22 -1.4456e-22 -2.80358e-22 1.36056e-22 0 1.28497e-22 2.50049e-22 3.65203e-22 2.37226e-22 1.15648e-22 2.25654e-22 -2.20281e-22 -2.15158e-22 1.05134e-22 -2.05596e-22 -2.01126e-22 0 0 -1.88813e-22 0 0 0.815307 1.24242 1.13881 1.34054 1.35123 1.38584 1.52125 1.51925 1.57427 1.73219 1.75664 1.76521 1.85385 1.94417 1.95392 2.03336 2.04135 2.05659 2.11306 2.01772 1.59441 0.633134 0.0302094 2.70115e-05 3.82969e-10 5.06595e-15 -2.56995e-22 -3.30422e-22 2.39271e-22 -7.70984e-23 2.23834e-22 2.16839e-22 1.40179e-22 1.36056e-22 0 -2.56995e-22 -2.50049e-22 0 -1.18613e-22 -1.15648e-22 3.38481e-22 1.10141e-22 0 0 0 2.01126e-22 1.96847e-22 1.92746e-22 -1.88813e-22 0 0 0.799759 1.21872 1.11709 1.31497 1.32546 1.35941 1.49224 1.49028 1.54425 1.69916 1.72314 1.73155 1.8185 1.9071 1.91666 1.99458 2.00242 2.01737 2.07277 1.97924 1.564 0.62106 0.0296334 2.64964e-05 3.75666e-10 4.94355e-15 0 -8.26054e-23 2.39271e-22 0 -2.98445e-22 7.22798e-23 -2.80358e-22 1.36056e-22 0 2.56995e-22 3.75073e-22 -3.65203e-22 3.55839e-22 -3.46943e-22 2.25654e-22 -3.30422e-22 2.15158e-22 0 -2.05596e-22 -1.00563e-22 -9.84235e-23 0 -1.88813e-22 0 0 0.783422 1.19383 1.09427 1.28811 1.29838 1.33164 1.46176 1.45984 1.51271 1.66445 1.68794 1.69617 1.78135 1.86814 1.87751 1.95384 1.96152 1.97616 2.03043 1.93881 1.53205 0.608374 0.029028 2.59552e-05 3.67992e-10 4.89984e-15 -1.28497e-22 2.06514e-22 -7.9757e-23 -7.70984e-23 2.23834e-22 2.89119e-22 -4.20537e-22 6.8028e-23 6.60844e-23 0 -3.75073e-22 -1.21734e-22 -1.18613e-22 -1.15648e-22 2.25654e-22 -5.50703e-22 2.15158e-22 2.10268e-22 -2.05596e-22 1.00563e-22 -1.96847e-22 1.92746e-22 -1.88813e-22 0 0 0.766312 1.16775 1.07037 1.25998 1.27003 1.30256 1.42983 1.42796 1.47967 1.6281 1.65107 1.65913 1.74244 1.82734 1.83651 1.91117 1.91868 1.933 1.98608 1.89647 1.49859 0.595087 0.0283941 2.53883e-05 3.59955e-10 4.77246e-15 2.56995e-22 -2.47816e-22 1.99392e-22 1.92746e-22 2.23834e-22 -1.4456e-22 2.80358e-22 -1.36056e-22 1.32169e-22 3.21243e-22 -1.25024e-22 -1.21734e-22 -1.18613e-22 1.15648e-22 4.51308e-22 0 -1.07579e-22 2.10268e-22 1.02798e-22 -2.01126e-22 -1.96847e-22 0 0 0 0 0.748446 1.14053 1.04542 1.2306 1.24042 1.27219 1.3965 1.39466 1.44517 1.59014 1.61258 1.62045 1.70182 1.78474 1.79369 1.86661 1.87394 1.88793 1.93978 1.85225 1.46365 0.581212 0.0277321 2.47964e-05 3.51563e-10 4.6508e-15 -1.7133e-22 8.26054e-23 -7.9757e-23 1.54197e-22 -3.73057e-22 0 1.40179e-22 6.8028e-23 0 6.42487e-23 6.25122e-23 -6.08672e-23 1.18613e-22 -2.31295e-22 -3.38481e-22 4.40562e-22 0 -3.15403e-22 0 0 -9.84235e-23 -1.92746e-22 -1.88813e-22 0 0 0.729841 1.11218 1.01943 1.20001 1.20958 1.24057 1.36178 1.35999 1.40925 1.55061 1.57249 1.58017 1.65951 1.74037 1.7491 1.82021 1.82736 1.841 1.89156 1.80621 1.42727 0.566765 0.0270427 2.418e-05 3.42823e-10 4.59663e-15 8.56649e-23 -1.65211e-22 1.59514e-22 -3.85492e-23 2.23834e-22 -1.0842e-22 -3.50447e-23 0 -1.98253e-22 6.42487e-23 1.87537e-22 -4.86937e-22 2.96532e-22 1.15648e-22 0 -2.20281e-22 1.07579e-22 2.10268e-22 3.08394e-22 -1.00563e-22 2.95271e-22 2.89119e-22 -9.44063e-23 0 0 0.710516 1.08273 0.992435 1.16824 1.17756 1.20772 1.32572 1.32398 1.37193 1.50956 1.53086 1.53833 1.61557 1.69429 1.70279 1.77201 1.77897 1.79225 1.84147 1.75838 1.38948 0.551757 0.0263266 2.35397e-05 3.33746e-10 4.475e-15 2.19516e-22 -9.80939e-23 1.89423e-22 -1.73471e-22 2.42487e-22 -3.61399e-23 1.40179e-22 0 2.9738e-22 1.28497e-22 1.25024e-22 -1.82602e-22 1.77919e-22 5.78238e-23 3.94894e-22 5.50703e-23 -2.15158e-22 -1.05134e-22 0 -3.0169e-22 -9.84235e-23 0 -9.44063e-23 0 0 0.690489 1.05221 0.964463 1.13531 1.14436 1.17368 1.28836 1.28667 1.33326 1.46701 1.48771 1.49497 1.57004 1.64653 1.65479 1.72207 1.72883 1.74174 1.78957 1.70882 1.35031 0.536206 0.0255846 2.28762e-05 3.24339e-10 4.40234e-15 1.92746e-22 -2.16839e-22 3.24013e-23 2.89119e-23 -4.66321e-23 -3.61399e-23 1.75224e-22 -1.7007e-22 -2.31295e-22 1.60622e-22 -9.37684e-23 -1.21734e-22 -1.18613e-22 -2.31295e-22 0 1.10141e-22 1.07579e-22 -1.05134e-22 0 0 -9.84235e-23 9.63731e-23 9.44063e-23 0 0 0.669782 1.02065 0.935538 1.10126 1.11005 1.13848 1.24972 1.24808 1.29328 1.42301 1.44309 1.45013 1.52295 1.59715 1.60517 1.67042 1.67698 1.6895 1.7359 1.65757 1.30982 0.520125 0.0248173 2.21902e-05 3.14612e-10 4.17755e-15 2.99827e-22 1.23908e-22 2.5921e-22 -2.5057e-22 -2.09844e-23 -4.06574e-22 -7.00895e-23 -1.53063e-22 -2.31295e-22 -9.6373e-23 1.25024e-22 -2.73902e-22 -2.96532e-23 -4.04767e-22 -1.6924e-22 1.65211e-22 1.07579e-22 -1.05134e-22 0 1.00563e-22 -4.92118e-23 -9.63731e-23 1.88813e-22 0 0 0.648413 0.988091 0.905691 1.06613 1.07463 1.10216 1.20985 1.20826 1.25202 1.37761 1.39705 1.40387 1.47436 1.5462 1.55395 1.61713 1.62348 1.6356 1.68052 1.60469 1.26803 0.503531 0.0240255 2.14822e-05 3.04575e-10 4.09722e-15 -4.28324e-23 3.71724e-22 3.98785e-22 2.12021e-22 1.3057e-22 3.61399e-22 4.81865e-23 -2.33846e-22 3.0564e-22 -2.89119e-22 1.56281e-23 1.82602e-22 -1.18613e-22 1.73471e-22 1.12827e-22 5.50703e-23 -1.07579e-22 5.25671e-23 2.56995e-22 0 2.46059e-22 -2.89119e-22 2.36016e-22 0 0 0.626404 0.954553 0.874949 1.02994 1.03815 1.06475 1.16878 1.16725 1.20952 1.33085 1.34963 1.35622 1.42432 1.49372 1.50121 1.56224 1.56838 1.58008 1.62348 1.55022 1.22499 0.48644 0.0232101 2.07531e-05 2.94236e-10 3.94385e-15 8.56649e-23 -1.65211e-22 -1.99392e-22 -3.85492e-23 1.86528e-22 -3.25259e-22 3.15403e-22 4.25175e-23 -7.43449e-23 -1.80699e-22 6.25122e-23 6.08672e-23 2.96532e-22 -5.20414e-22 -1.41034e-22 -1.37676e-22 2.95843e-22 -2.62836e-23 0 1.00563e-22 1.96847e-22 -3.85492e-22 3.77625e-22 0 0 0.603777 0.920073 0.843344 0.992736 1.00065 1.02629 1.12656 1.12509 1.16583 1.28278 1.30088 1.30723 1.37287 1.43976 1.44698 1.50581 1.51172 1.52301 1.56483 1.49423 1.18074 0.468868 0.0223717 2.00034e-05 2.83608e-10 3.75781e-15 -1.7133e-22 8.26054e-23 -3.98785e-23 -3.08394e-22 2.23834e-22 1.4456e-22 3.50447e-22 1.87077e-22 -9.91265e-23 -4.81865e-22 2.73491e-23 2.56783e-23 -1.03786e-22 2.60207e-22 5.64135e-22 -2.20281e-22 -6.7237e-22 1.05134e-22 -1.28497e-22 -2.26267e-22 9.84235e-23 -1.92746e-22 0 0 0 0.580554 0.884684 0.810907 0.954553 0.962167 0.986814 1.08323 1.08181 1.12099 1.23344 1.25084 1.25695 1.32007 1.38438 1.39133 1.44789 1.45358 1.46443 1.50465 1.43675 1.13533 0.450835 0.0215112 1.9234e-05 2.727e-10 3.62127e-15 -2.56995e-22 -1.65211e-22 1.59514e-22 -1.54197e-22 -7.46114e-23 -2.16839e-22 2.10268e-22 2.04084e-22 6.60844e-23 6.42487e-23 -7.81403e-23 -3.04336e-22 4.07732e-22 5.51133e-23 1.72766e-22 2.82235e-22 1.47921e-22 2.62836e-22 -3.59793e-22 -1.75986e-22 2.46059e-23 4.81865e-23 2.36016e-22 0 0 0.556758 0.848423 0.77767 0.915428 0.922729 0.946366 1.03883 1.03747 1.07504 1.18288 1.19957 1.20543 1.26596 1.32764 1.3343 1.38854 1.394 1.40441 1.44297 1.37786 1.08879 0.432356 0.0206295 1.84457e-05 2.61522e-10 3.46393e-15 0 -1.65211e-22 0 -4.6259e-22 -3.73057e-22 -1.4456e-22 -2.10268e-22 -1.7007e-22 1.32169e-22 6.42487e-23 6.25122e-23 4.86937e-22 -3.11359e-22 1.73471e-22 2.18602e-22 3.78608e-23 1.56326e-22 -1.31418e-23 3.27668e-22 -1.50845e-22 2.70665e-22 1.20466e-22 -2.36016e-22 0 0 0.532413 0.811324 0.743665 0.875399 0.882381 0.904985 0.993408 0.992105 1.02803 1.13116 1.14712 1.15272 1.2106 1.26959 1.27596 1.32783 1.33305 1.343 1.37988 1.31762 1.04118 0.41345 0.0197274 1.76391e-05 2.50087e-10 3.29659e-15 0 -8.26054e-23 7.9757e-23 7.70984e-23 2.23834e-22 -7.22798e-23 7.00895e-23 -1.36056e-22 -1.32169e-22 -4.17616e-22 -1.87537e-22 -9.13008e-23 -2.37226e-22 -2.60207e-22 -4.23101e-23 -3.85492e-22 4.57212e-22 -2.16839e-22 -2.89119e-23 6.12807e-23 2.33756e-22 3.97539e-22 1.77012e-22 0 0 0.507543 0.773425 0.708926 0.834507 0.841163 0.86271 0.947003 0.945761 0.980011 1.07832 1.09354 1.09887 1.15405 1.21028 1.21635 1.2658 1.27077 1.28026 1.31542 1.25607 0.992545 0.394137 0.0188059 1.68151e-05 2.38405e-10 3.1475e-15 -3.42659e-22 2.47816e-22 7.9757e-23 3.85492e-22 7.46114e-23 0 -1.40179e-22 0 3.96506e-22 -1.92746e-22 -1.87537e-22 6.08672e-23 -5.93065e-23 -1.73471e-22 -1.41034e-22 3.30422e-22 -2.15158e-22 -9.19925e-23 -8.99482e-23 2.26267e-22 1.41484e-22 -2.40933e-22 -2.31222e-22 0 0 0.482171 0.734762 0.673488 0.792791 0.799114 0.819584 0.899664 0.898484 0.931022 1.02442 1.03887 1.04394 1.09636 1.14978 1.15555 1.20252 1.20725 1.21626 1.24966 1.19328 0.942929 0.374434 0.0178658 1.59746e-05 2.26487e-10 2.99879e-15 -1.7133e-22 -1.65211e-22 0 0 0 -1.4456e-22 -7.00895e-23 -2.72112e-22 1.32169e-22 -1.92746e-22 -1.87537e-22 -1.21734e-22 1.77919e-22 5.78238e-23 -3.38481e-22 -4.95633e-22 -2.42053e-22 -1.05134e-22 -1.79896e-22 -2.51408e-22 1.96847e-22 1.32513e-22 -1.29809e-22 0 0 0.456324 0.695374 0.637385 0.750292 0.756277 0.77565 0.851436 0.850319 0.881113 0.969501 0.983181 0.987979 1.03759 1.08815 1.0936 1.13806 1.14253 1.15106 1.18267 1.12931 0.892382 0.354362 0.0169081 1.51182e-05 2.14346e-10 2.80895e-15 1.7133e-22 -1.65211e-22 -3.19028e-22 0 0 0 0 0 -1.32169e-22 0 0 0 0 0 -5.64135e-23 2.75352e-22 -1.61369e-22 -1.57701e-22 -1.54197e-22 -1.50845e-22 -1.72241e-22 1.20466e-22 -2.59617e-22 0 0 0.430026 0.6553 0.600653 0.707053 0.712693 0.730949 0.802368 0.801316 0.830335 0.91363 0.926521 0.931043 0.977795 1.02544 1.03058 1.07248 1.07669 1.08473 1.11452 1.06423 0.840955 0.333941 0.0159337 1.4247e-05 2.01993e-10 2.65626e-15 1.7133e-22 1.65211e-22 0 0 0 1.4456e-22 2.80358e-22 2.72112e-22 -1.32169e-22 -3.21243e-22 -2.50049e-22 -1.21734e-22 -1.18613e-22 -1.15648e-22 -2.82067e-22 -1.10141e-22 -2.68948e-22 5.25671e-23 2.56995e-22 5.02816e-23 -4.92118e-23 1.20466e-22 0 0 0 0.403304 0.61458 0.563328 0.663117 0.668406 0.685528 0.752509 0.751522 0.778738 0.856856 0.868947 0.873187 0.917034 0.961715 0.966539 1.00583 1.00978 1.01732 1.04526 0.998096 0.788697 0.313189 0.0149436 1.33617e-05 1.89441e-10 2.49114e-15 0 1.65211e-22 3.19028e-22 -3.08394e-22 -2.98445e-22 1.4456e-22 2.80358e-22 2.72112e-22 0 -1.28497e-22 2.50049e-22 -2.43469e-22 -3.55839e-22 -3.46943e-22 -1.6924e-22 -1.65211e-22 -3.76527e-22 -2.10268e-22 3.08394e-22 2.01126e-22 -4.42906e-22 -4.33679e-22 4.72031e-23 0 0 0.376184 0.573253 0.525447 0.618525 0.623459 0.63943 0.701907 0.700986 0.726372 0.799237 0.810515 0.81447 0.855368 0.897045 0.901544 0.938195 0.941882 0.948912 0.974972 0.93098 0.735662 0.292129 0.0139387 1.24632e-05 1.76702e-10 2.36699e-15 -1.7133e-22 -1.65211e-22 0 4.6259e-22 1.49223e-22 0 1.40179e-22 0 0 0 2.50049e-22 2.43469e-22 2.37226e-22 2.31295e-22 0 0 2.15158e-22 0 5.1399e-23 3.51971e-22 1.47635e-22 -1.4456e-22 -9.44063e-23 0 0 0.348693 0.53136 0.487048 0.573324 0.577897 0.592701 0.650612 0.649758 0.673289 0.740829 0.751283 0.754949 0.792859 0.831489 0.83566 0.869632 0.873049 0.879566 0.903721 0.862944 0.6819 0.27078 0.0129201 1.15524e-05 1.63789e-10 2.16634e-15 0 -1.65211e-22 0 -1.54197e-22 0 -2.89119e-22 -1.40179e-22 -1.36056e-22 -2.64337e-22 -1.28497e-22 0 3.65203e-22 -1.18613e-22 1.15648e-22 3.38481e-22 -1.10141e-22 0 -1.05134e-22 -1.02798e-22 1.00563e-22 9.84235e-23 -9.63731e-23 -1.88813e-22 0 0 0.320857 0.488942 0.448168 0.527557 0.531765 0.545387 0.598675 0.597889 0.619542 0.68169 0.691309 0.694683 0.729566 0.765113 0.768951 0.800211 0.803356 0.809352 0.831579 0.794057 0.627465 0.249165 0.0118887 1.06302e-05 1.50714e-10 1.98912e-15 3.42659e-22 -1.65211e-22 -3.19028e-22 -1.54197e-22 0 4.33679e-22 4.20537e-22 0 -2.64337e-22 -1.28497e-22 -1.25024e-22 3.65203e-22 -2.37226e-22 -1.15648e-22 -1.12827e-22 -2.20281e-22 0 0 0 2.01126e-22 1.96847e-22 -1.92746e-22 -2.83219e-22 0 0 0.292705 0.446042 0.408845 0.481269 0.485108 0.497534 0.546147 0.545431 0.565183 0.621879 0.630654 0.633731 0.665554 0.697982 0.701483 0.730001 0.732869 0.738339 0.758616 0.724386 0.572411 0.227303 0.0108456 9.69746e-06 1.3749e-10 1.80189e-15 0 -1.65211e-22 1.59514e-22 4.6259e-22 1.49223e-22 -2.89119e-22 -2.80358e-22 2.72112e-22 -3.96506e-22 -5.13989e-22 -2.50049e-22 -1.21734e-22 2.37226e-22 3.46943e-22 -2.25654e-22 2.20281e-22 -1.07579e-22 3.15403e-22 -2.05596e-22 -2.01126e-22 1.96847e-22 1.92746e-22 -3.77625e-22 0 0 0.264264 0.402702 0.369119 0.434506 0.437972 0.449191 0.49308 0.492433 0.510266 0.561453 0.569376 0.572154 0.600885 0.630162 0.633323 0.659069 0.661659 0.666598 0.684905 0.654001 0.516792 0.205217 0.00979175 8.7552e-06 1.24131e-10 1.64394e-15 3.42659e-22 -4.95633e-22 1.59514e-22 -4.6259e-22 2.98445e-22 2.89119e-22 -4.20537e-22 1.36056e-22 2.64337e-22 2.56995e-22 2.50049e-22 1.21734e-22 -2.37226e-22 2.31295e-22 0 0 2.15158e-22 2.10268e-22 2.05596e-22 -3.0169e-22 9.84235e-23 1.92746e-22 0 0 0 0.235563 0.358965 0.329029 0.387314 0.390404 0.400404 0.439527 0.43895 0.454846 0.500474 0.507536 0.510013 0.535623 0.56172 0.564538 0.587488 0.589797 0.594199 0.610517 0.58297 0.460664 0.182928 0.00872826 7.8043e-06 1.10649e-10 1.43227e-15 6.85319e-22 1.65211e-22 3.19028e-22 4.6259e-22 -2.98445e-22 -1.4456e-22 -1.40179e-22 -2.72112e-22 1.32169e-22 -1.28497e-22 -2.50049e-22 -1.21734e-22 -1.18613e-22 -1.15648e-22 -2.25654e-22 -1.10141e-22 -2.15158e-22 -2.10268e-22 0 -1.00563e-22 1.96847e-22 -9.63731e-23 9.44063e-23 0 0 0.206628 0.314873 0.288615 0.33974 0.34245 0.351223 0.385539 0.385034 0.398977 0.439001 0.445195 0.447368 0.469832 0.492724 0.495195 0.515327 0.517352 0.521213 0.535527 0.511364 0.40408 0.160459 0.00765617 6.8457e-06 9.70582e-11 1.28066e-15 0 -3.30422e-22 -3.19028e-22 0 0 1.4456e-22 1.40179e-22 5.44224e-22 -1.32169e-22 -2.56995e-22 1.25024e-22 0 -1.18613e-22 1.15648e-22 0 1.10141e-22 1.07579e-22 -1.05134e-22 -1.02798e-22 -1.00563e-22 0 -9.63731e-23 -9.44063e-23 0 0 0.17749 0.270471 0.247915 0.291831 0.294159 0.301694 0.331172 0.330737 0.342715 0.377