<?xml version="1.0"?>
<VTKFile type="PolyData">
	<PolyData>
		<Piece NumberOfPoints="2601" NumberOfPolys="2500">
			<Points>
				<DataArray type="Float32" NumberOfComponents="3" format="ascii">
 1e-06 0 0 0.2002 0 0 0.229213 0 0 0.254223 0 0 0.274844 0 0 0.291212 0 0 0.304835 0 0 0.317678 0 0 0.328975 0 0 0.338427 0 0 0.347124 0 0 0.35466 0 0 0.3614 0 0 0.367583 0 0 0.373233 0 0 0.378361 0 0 0.382932 0 0 0.387278 0 0 0.391157 0 0 0.395896 0 0 0.404344 0 0 0.420238 0 0 0.440002 0 0 0.460001 0 0 0.480001 0 0 0.500001 0 0 0.520001 0 0 0.540001 0 0 0.560001 0 0 0.580001 0 0 0.600001 0 0 0.620001 0 0 0.640001 0 0 0.660001 0 0 0.680001 0 0 0.700001 0 0 0.720001 0 0 0.740001 0 0 0.760001 0 0 0.780001 0 0 0.800001 0 0 0.820001 0 0 0.840001 0 0 0.860001 0 0 0.880001 0 0 0.900001 0 0 0.920001 0 0 0.940001 0 0 0.960001 0 0 0.980001 0 0 1 0 0 9.99507e-07 3.14108e-08 0 0.200102 0.00628844 0 0.2291 0.00719975 0 0.254097 0.00798533 0 0.274708 0.00863306 0 0.291068 0.00914719 0 0.304684 0.0095751 0 0.317521 0.0099785 0 0.328813 0.0103334 0 0.33826 0.0106303 0 0.346953 0.0109034 0 0.354485 0.0111401 0 0.361222 0.0113519 0 0.367402 0.0115461 0 0.373049 0.0117235 0 0.378174 0.0118846 0 0.382743 0.0120282 0 0.387087 0.0121647 0 0.390964 0.0122865 0 0.395701 0.0124354 0 0.404144 0.0127007 0 0.420031 0.0132 0 0.439784 0.0138208 0 0.459774 0.014449 0 0.479764 0.0150772 0 0.499754 0.0157054 0 0.519744 0.0163336 0 0.539735 0.0169618 0 0.559725 0.0175901 0 0.579715 0.0182183 0 0.599705 0.0188465 0 0.619695 0.0194747 0 0.639685 0.0201029 0 0.659675 0.0207311 0 0.679665 0.0213593 0 0.699656 0.0219876 0 0.719646 0.0226158 0 0.739636 0.023244 0 0.759626 0.0238722 0 0.779616 0.0245004 0 0.799606 0.0251286 0 0.819596 0.0257569 0 0.839587 0.0263851 0 0.859577 0.0270133 0 0.879567 0.0276415 0 0.899557 0.0282697 0 0.919547 0.0288979 0 0.939537 0.0295261 0 0.959527 0.0301544 0 0.979517 0.0307826 0 0.999508 0.0314108 0 9.98027e-07 6.27905e-08 0 0.199805 0.0125707 0 0.228761 0.0143924 0 0.253721 0.0159628 0 0.274302 0.0172576 0 0.290637 0.0182853 0 0.304233 0.0191407 0 0.317051 0.0199471 0 0.328326 0.0206565 0 0.337759 0.02125 0 0.346439 0.0217961 0 0.35396 0.0222693 0 0.360687 0.0226925 0 0.366858 0.0230807 0 0.372497 0.0234355 0 0.377614 0.0237575 0 0.382177 0.0240445 0 0.386514 0.0243174 0 0.390385 0.024561 0 0.395115 0.0248585 0 0.403546 0.025389 0 0.419409 0.026387 0 0.439133 0.0276279 0 0.459093 0.0288837 0 0.479054 0.0301395 0 0.499014 0.0313953 0 0.518975 0.0326511 0 0.538935 0.0339069 0 0.558896 0.0351628 0 0.578857 0.0364186 0 0.598817 0.0376744 0 0.618778 0.0389302 0 0.638738 0.040186 0 0.658699 0.0414418 0 0.678659 0.0426976 0 0.69862 0.0439534 0 0.71858 0.0452092 0 0.738541 0.046465 0 0.758501 0.0477209 0 0.778462 0.0489767 0 0.798422 0.0502325 0 0.818383 0.0514883 0 0.838343 0.0527441 0 0.858304 0.0539999 0 0.878265 0.0552557 0 0.898225 0.0565115 0 0.918186 0.0577673 0 0.938146 0.0590232 0 0.958107 0.060279 0 0.978067 0.0615348 0 0.998028 0.0627906 0 9.95562e-07 9.41083e-08 0 0.199312 0.0188405 0 0.228196 0.0215708 0 0.253094 0.0239245 0 0.273624 0.0258651 0 0.28992 0.0274055 0 0.303482 0.0286875 0 0.316268 0.0298961 0 0.327515 0.0309593 0 0.336925 0.0318488 0 0.345583 0.0326672 0 0.353086 0.0333765 0 0.359796 0.0340108 0 0.365952 0.0345926 0 0.371577 0.0351243 0 0.376681 0.0356069 0 0.381233 0.0360371 0 0.38556 0.0364461 0 0.389421 0.0368111 0 0.394139 0.0372571 0 0.402549 0.0380521 0 0.418373 0.0395479 0 0.438049 0.0414078 0 0.457959 0.0432899 0 0.477871 0.0451721 0 0.497782 0.0470543 0 0.517693 0.0489364 0 0.537604 0.0508186 0 0.557516 0.0527007 0 0.577427 0.0545829 0 0.597338 0.0564651 0 0.617249 0.0583472 0 0.637161 0.0602294 0 0.657072 0.0621116 0 0.676983 0.0639937 0 0.696894 0.0658759 0 0.716806 0.0677581 0 0.736717 0.0696402 0 0.756628 0.0715224 0 0.776539 0.0734046 0 0.796451 0.0752867 0 0.816362 0.0771689 0 0.836273 0.0790511 0 0.856184 0.0809332 0 0.876096 0.0828154 0 0.896007 0.0846976 0 0.915918 0.0865797 0 0.935829 0.0884619 0 0.95574 0.0903441 0 0.975652 0.0922262 0 0.995563 0.0941084 0 9.92115e-07 1.25333e-07 0 0.198622 0.0250918 0 0.227405 0.028728 0 0.252218 0.0318625 0 0.272677 0.0344471 0 0.288916 0.0364985 0 0.302431 0.0382059 0 0.315173 0.0398156 0 0.326381 0.0412315 0 0.335759 0.0424162 0 0.344387 0.0435062 0 0.351863 0.0444507 0 0.358551 0.0452955 0 0.364685 0.0460704 0 0.37029 0.0467785 0 0.375377 0.0474211 0 0.379913 0.0479942 0 0.384225 0.0485389 0 0.388073 0.049025 0 0.392775 0.049619 0 0.401155 0.0506777 0 0.416925 0.0526698 0 0.436532 0.0551468 0 0.456374 0.0576534 0 0.476216 0.0601601 0 0.496058 0.0626667 0 0.515901 0.0651734 0 0.535743 0.0676801 0 0.555585 0.0701867 0 0.575428 0.0726934 0 0.59527 0.0752001 0 0.615112 0.0777067 0 0.634954 0.0802134 0 0.654797 0.0827201 0 0.674639 0.0852267 0 0.694481 0.0877334 0 0.714324 0.0902401 0 0.734166 0.0927467 0 0.754008 0.0952534 0 0.77385 0.09776 0 0.793693 0.100267 0 0.813535 0.102773 0 0.833377 0.10528 0 0.85322 0.107787 0 0.873062 0.110293 0 0.892904 0.1128 0 0.912747 0.115307 0 0.932589 0.117813 0 0.952431 0.12032 0 0.972273 0.122827 0 0.992116 0.125333 0 9.87688e-07 1.56434e-07 0 0.197736 0.0313182 0 0.226391 0.0358568 0 0.251093 0.0397692 0 0.27146 0.0429951 0 0.287627 0.0455556 0 0.301082 0.0476867 0 0.313767 0.0496957 0 0.324925 0.051463 0 0.334261 0.0529417 0 0.34285 0.0543021 0 0.350294 0.055481 0 0.356951 0.0565355 0 0.363058 0.0575027 0 0.368638 0.0583865 0 0.373702 0.0591886 0 0.378218 0.0599038 0 0.38251 0.0605837 0 0.386341 0.0611904 0 0.391022 0.0619318 0 0.399366 0.0632533 0 0.415065 0.0657398 0 0.434584 0.0688314 0 0.454338 0.07196 0 0.474091 0.0750887 0 0.493845 0.0782174 0 0.513599 0.0813461 0 0.533353 0.0844748 0 0.553106 0.0876035 0 0.57286 0.0907321 0 0.592614 0.0938608 0 0.612368 0.0969895 0 0.632122 0.100118 0 0.651875 0.103247 0 0.671629 0.106376 0 0.691383 0.109504 0 0.711137 0.112633 0 0.73089 0.115762 0 0.750644 0.11889 0 0.770398 0.122019 0 0.790152 0.125148 0 0.809905 0.128276 0 0.829659 0.131405 0 0.849413 0.134534 0 0.869167 0.137662 0 0.88892 0.140791 0 0.908674 0.14392 0 0.928428 0.147049 0 0.948182 0.150177 0 0.967936 0.153306 0 0.987689 0.156435 0 9.82287e-07 1.87381e-07 0 0.196654 0.0375138 0 0.225153 0.0429502 0 0.24972 0.0476366 0 0.269976 0.0515006 0 0.286054 0.0545677 0 0.299435 0.0571204 0 0.312051 0.0595269 0 0.323148 0.0616437 0 0.332433 0.0634149 0 0.340975 0.0650445 0 0.348378 0.0664567 0 0.354999 0.0677197 0 0.361072 0.0688783 0 0.366622 0.0699369 0 0.371659 0.0708977 0 0.37615 0.0717544 0 0.380419 0.0725687 0 0.384229 0.0732955 0 0.388884 0.0741836 0 0.397182 0.0757665 0 0.412795 0.0787448 0 0.432208 0.0824481 0 0.451853 0.0861956 0 0.471499 0.0899432 0 0.491145 0.0936908 0 0.51079 0.0974385 0 0.530436 0.101186 0 0.550082 0.104934 0 0.569728 0.108681 0 0.589373 0.112429 0 0.609019 0.116177 0 0.628665 0.119924 0 0.648311 0.123672 0 0.667956 0.127419 0 0.687602 0.131167 0 0.707248 0.134915 0 0.726894 0.138662 0 0.746539 0.14241 0 0.766185 0.146158 0 0.785831 0.149905 0 0.805477 0.153653 0 0.825122 0.1574 0 0.844768 0.161148 0 0.864414 0.164896 0 0.88406 0.168643 0 0.903705 0.172391 0 0.923351 0.176139 0 0.942997 0.179886 0 0.962642 0.183634 0 0.982288 0.187382 0 9.75917e-07 2.18143e-07 0 0.195379 0.0436724 0 0.223693 0.0500012 0 0.2481 0.055457 0 0.268225 0.0599554 0 0.284199 0.0635259 0 0.297493 0.0664977 0 0.310027 0.0692992 0 0.321052 0.0717636 0 0.330277 0.0738256 0 0.338764 0.0757227 0 0.346119 0.0773667 0 0.352697 0.0788371 0 0.358731 0.0801858 0 0.364244 0.0814183 0 0.369248 0.0825368 0 0.37371 0.0835341 0 0.377952 0.0844822 0 0.381737 0.0853283 0 0.386362 0.0863621 0 0.394606 0.0882048 0 0.410118 0.0916722 0 0.429405 0.0959834 0 0.448923 0.100346 0 0.468441 0.104709 0 0.487959 0.109072 0 0.507478 0.113435 0 0.526996 0.117798 0 0.546514 0.12216 0 0.566033 0.126523 0 0.585551 0.130886 0 0.605069 0.135249 0 0.624588 0.139612 0 0.644106 0.143975 0 0.663624 0.148338 0 0.683143 0.1527 0 0.702661 0.157063 0 0.722179 0.161426 0 0.741698 0.165789 0 0.761216 0.170152 0 0.780734 0.174515 0 0.800253 0.178878 0 0.819771 0.183241 0 0.839289 0.187603 0 0.858808 0.191966 0 0.878326 0.196329 0 0.897844 0.200692 0 0.917363 0.205055 0 0.936881 0.209418 0 0.956399 0.213781 0 0.975918 0.218143 0 9.68583e-07 2.4869e-07 0 0.193911 0.0497878 0 0.222012 0.0570029 0 0.246236 0.0632226 0 0.266209 0.0683509 0 0.282063 0.0724215 0 0.295258 0.0758094 0 0.307697 0.0790032 0 0.31864 0.0818127 0 0.327795 0.0841634 0 0.336218 0.0863262 0 0.343518 0.0882004 0 0.350046 0.0898766 0 0.356035 0.0914143 0 0.361507 0.0928193 0 0.366474 0.0940944 0 0.370902 0.0952314 0 0.375111 0.0963122 0 0.378868 0.0972768 0 0.383459 0.0984554 0 0.39164 0.100556 0 0.407036 0.104509 0 0.426178 0.109424 0 0.445549 0.114398 0 0.464921 0.119371 0 0.484293 0.124345 0 0.503664 0.129319 0 0.523036 0.134293 0 0.542408 0.139267 0 0.561779 0.14424 0 0.581151 0.149214 0 0.600523 0.154188 0 0.619894 0.159162 0 0.639266 0.164136 0 0.658638 0.169109 0 0.678009 0.174083 0 0.697381 0.179057 0 0.716753 0.184031 0 0.736124 0.189005 0 0.755496 0.193978 0 0.774867 0.198952 0 0.794239 0.203926 0 0.813611 0.2089 0 0.832982 0.213874 0 0.852354 0.218847 0 0.871726 0.223821 0 0.891097 0.228795 0 0.910469 0.233769 0 0.929841 0.238743 0 0.949212 0.243716 0 0.968584 0.24869 0 9.60294e-07 2.78991e-07 0 0.192251 0.0558541 0 0.220112 0.0639484 0 0.244128 0.0709259 0 0.263931 0.076679 0 0.279649 0.0812455 0 0.292731 0.0850462 0 0.305064 0.0886292 0 0.315912 0.0917811 0 0.324989 0.0944182 0 0.333341 0.0968445 0 0.340578 0.098947 0 0.347051 0.100827 0 0.352988 0.102552 0 0.358413 0.104129 0 0.363337 0.105559 0 0.367728 0.106835 0 0.371901 0.108047 0 0.375626 0.109129 0 0.380177 0.110452 0 0.388289 0.112808 0 0.403552 0.117243 0 0.422531 0.122757 0 0.441736 0.128336 0 0.460942 0.133916 0 0.480148 0.139496 0 0.499354 0.145076 0 0.51856 0.150655 0 0.537765 0.156235 0 0.556971 0.161815 0 0.576177 0.167395 0 0.595383 0.172975 0 0.614589 0.178555 0 0.633795 0.184134 0 0.653001 0.189714 0 0.672207 0.
[...]
			<PointData Scalars="VitesseX">
				<DataArray Name="VitesseX" type="Float32" format="ascii">
 0 1.34583 1.31888 1.59916 1.58691 1.77856 1.8331 1.8651 2.07492 2.12666 2.06656 2.31772 2.33785 2.41761 2.48063 2.48034 2.57683 2.61146 2.63484 2.31848 1.36742 0.162241 0.000742953 1.82194e-08 2.12258e-13 0 0 0 0 0 0 0 0 0 0 0 0 0 0 0 0 0 0 0 0 0 0 0 0 0 0 0 1.34517 1.31823 1.59837 1.58612 1.77769 1.83219 1.86418 2.07389 2.12561 2.06554 2.31658 2.3367 2.41642 2.4794 2.47911 2.57556 2.61017 2.63354 2.31734 1.36675 0.162161 0.000742586 1.82104e-08 2.12153e-13 0 0 0 0 0 0 0 0 0 2.33037e-22 0 -2.20091e-22 0 0 0 1.98082e-22 1.9325e-22 -1.88649e-22 -1.84262e-22 0 0 1.72245e-22 -1.6858e-22 0 3.23399e-22 0 0 1.34318 1.31628 1.596 1.58378 1.77505 1.82948 1.86142 2.07082 2.12246 2.06248 2.31315 2.33324 2.41284 2.47573 2.47544 2.57174 2.60631 2.62964 2.31391 1.36472 0.161921 0.000741487 1.81834e-08 2.11846e-13 0 0 0 -2.82974e-22 0 0 0 0 0 0 -2.26379e-22 0 0 0 0 0 0 -1.88649e-22 0 0 0 1.72245e-22 -3.3716e-22 0 0 0 0 1.33986 1.31303 1.59206 1.57987 1.77067 1.82496 1.85682 2.06571 2.11722 2.05739 2.30744 2.32747 2.40688 2.46962 2.46933 2.56539 2.59987 2.62314 2.30819 1.36135 0.161521 0.000739656 1.81385e-08 2.1133e-13 -1.58465e-22 0 2.93454e-22 0 2.73216e-22 0 0 0 0 2.33037e-22 0 2.20091e-22 0 0 0 0 0 0 0 0 3.52145e-22 1.72245e-22 -1.6858e-22 0 0 0 0 1.33522 1.30848 1.58655 1.57439 1.76454 1.81864 1.85039 2.05856 2.10989 2.05027 2.29945 2.31941 2.39855 2.46107 2.46078 2.55651 2.59087 2.61406 2.3002 1.35664 0.160962 0.000737095 1.80757e-08 2.10594e-13 -1.58465e-22 0 -1.46727e-22 0 0 0 0 0 0 0 0 0 0 2.08507e-22 0 0 0 0 0 -1.80074e-22 1.76073e-22 -3.4449e-22 0 -1.65068e-22 -1.61699e-22 0 0 1.32926 1.30264 1.57947 1.56737 1.75667 1.81053 1.84214 2.04937 2.10048 2.04112 2.28919 2.30907 2.38785 2.45009 2.4498 2.5451 2.57931 2.6024 2.28994 1.35059 0.160244 0.000733806 1.79951e-08 2.09654e-13 0 1.5237e-22 -1.46727e-22 0 2.73216e-22 2.64109e-22 0 0 2.40099e-22 -2.33037e-22 -2.26379e-22 0 -2.14142e-22 -2.08507e-22 0 1.98082e-22 0 -1.88649e-22 0 0 1.76073e-22 0 3.3716e-22 -1.65068e-22 0 0 0 1.32199 1.29552 1.57083 1.5588 1.74706 1.80063 1.83206 2.03817 2.08899 2.02996 2.27667 2.29644 2.37479 2.43669 2.4364 2.53118 2.56521 2.58817 2.27742 1.3432 0.159368 0.000729793 1.78966e-08 2.08521e-13 1.58465e-22 0 1.46727e-22 -1.41487e-22 -1.36608e-22 0 -2.55589e-22 0 0 2.33037e-22 0 0 0 2.08507e-22 0 0 0 1.88649e-22 0 -1.80074e-22 -1.76073e-22 0 3.3716e-22 -1.65068e-22 1.61699e-22 0 0 1.31342 1.28712 1.56064 1.54869 1.73573 1.78895 1.82018 2.02495 2.07544 2.01679 2.2619 2.28155 2.35939 2.42089 2.4206 2.51477 2.54857 2.57138 2.26265 1.33449 0.158334 0.00072506 1.77806e-08 2.07153e-13 -1.58465e-22 -1.5237e-22 -1.46727e-22 0 1.36608e-22 1.32054e-22 0 0 -2.40099e-22 0 -2.26379e-22 0 0 0 -2.03161e-22 0 0 -1.88649e-22 1.84262e-22 0 -1.76073e-22 -1.72245e-22 -1.6858e-22 0 0 0 0 1.30355 1.27745 1.54892 1.53705 1.72269 1.77551 1.8065 2.00973 2.05985 2.00164 2.24491 2.2644 2.34166 2.40269 2.40241 2.49587 2.52942 2.55206 2.24564 1.32446 0.157144 0.000719612 1.7647e-08 2.05591e-13 -1.58465e-22 1.5237e-22 1.46727e-22 -1.41487e-22 -1.36608e-22 -1.32054e-22 0 1.23801e-22 0 0 0 0 2.14142e-22 0 0 0 0 0 1.84262e-22 3.60149e-22 -1.76073e-22 0 0 0 1.61699e-22 0 0 1.29239 1.26651 1.53566 1.5239 1.70794 1.76031 1.79104 1.99253 2.04222 1.98451 2.22569 2.24502 2.32162 2.38213 2.38185 2.47451 2.50777 2.53022 2.22642 1.31313 0.155799 0.000713453 1.74959e-08 2.03844e-13 1.58465e-22 -1.5237e-22 1.46727e-22 1.41487e-22 1.36608e-22 0 -1.27795e-22 1.23801e-22 0 -2.33037e-22 0 0 2.14142e-22 -2.08507e-22 0 0 0 -3.77298e-22 -3.68524e-22 3.60149e-22 1.76073e-22 1.72245e-22 0 0 1.61699e-22 0 0 1.27996 1.25433 1.52089 1.50924 1.69151 1.74338 1.77381 1.97336 2.02257 1.96542 2.20428 2.22343 2.29929 2.35922 2.35894 2.45071 2.48365 2.50588 2.20501 1.30049 0.154301 0.00070659 1.73276e-08 2.01923e-13 0 -1.5237e-22 0 0 0 1.32054e-22 -2.55589e-22 1.23801e-22 -1.20049e-22 0 0 0 0 0 2.03161e-22 -1.98082e-22 3.86501e-22 1.88649e-22 0 0 0 -1.72245e-22 -1.6858e-22 -1.65068e-22 1.61699e-22 0 0 1.26627 1.24091 1.50461 1.49309 1.67342 1.72472 1.75484 1.95225 2.00093 1.94439 2.1807 2.19964 2.27468 2.33397 2.3337 2.42449 2.45707 2.47907 2.18142 1.28658 0.15265 0.00069903 1.71422e-08 1.99732e-13 -1.58465e-22 -1.5237e-22 0 -1.41487e-22 -2.73216e-22 1.32054e-22 -1.27795e-22 1.23801e-22 0 1.16519e-22 0 0 -2.14142e-22 2.08507e-22 2.03161e-22 -1.98082e-22 -1.9325e-22 -1.88649e-22 0 -1.80074e-22 1.76073e-22 1.72245e-22 -1.6858e-22 -1.65068e-22 3.23399e-22 0 0 1.25132 1.22627 1.48686 1.47547 1.65367 1.70437 1.73413 1.92921 1.97732 1.92144 2.15496 2.17368 2.24784 2.30643 2.30616 2.39587 2.42808 2.44981 2.15567 1.2714 0.150848 0.00069078 1.69399e-08 1.974e-13 -7.92326e-23 -1.5237e-22 1.46727e-22 0 0 1.32054e-22 0 0 0 -2.33037e-22 -1.1319e-22 -1.10045e-22 -1.07071e-22 2.08507e-22 -2.03161e-22 0 -1.9325e-22 0 1.84262e-22 -1.80074e-22 -1.76073e-22 -1.72245e-22 -1.6858e-22 -1.65068e-22 0 0 0 1.23514 1.21041 1.46763 1.45639 1.63228 1.68233 1.7117 1.90427 1.95175 1.8966 2.1271 2.14557 2.21877 2.27661 2.27634 2.3649 2.39668 2.41813 2.1278 1.25496 0.148898 0.000681849 1.67209e-08 1.94861e-13 -3.1693e-22 -7.61852e-23 0 1.41487e-22 0 -2.64109e-22 -1.27795e-22 -2.47602e-22 -2.40099e-22 0 2.26379e-22 1.10045e-22 -1.07071e-22 0 2.03161e-22 1.98082e-22 0 0 0 0 3.52145e-22 0 1.6858e-22 0 -1.61699e-22 0 0 1.21775 1.19336 1.44696 1.43588 1.60929 1.65863 1.68759 1.87744 1.92426 1.86988 2.09714 2.11535 2.18752 2.24454 2.24428 2.33158 2.36292 2.38407 2.09783 1.23728 0.1468 0.000672244 1.64854e-08 1.92134e-13 0 -1.5237e-22 2.93454e-22 1.41487e-22 2.73216e-22 2.64109e-22 -1.27795e-22 2.47602e-22 -1.20049e-22 -1.16519e-22 1.1319e-22 1.10045e-22 1.07071e-22 -1.04254e-22 -1.0158e-22 0 0 1.88649e-22 0 0 0 -1.72245e-22 0 1.65068e-22 -1.61699e-22 0 0 1.19915 1.17513 1.42486 1.41395 1.58471 1.6333 1.66182 1.84877 1.89487 1.84132 2.0651 2.08304 2.15411 2.21026 2.21 2.29597 2.32683 2.34766 2.06578 1.21838 0.144558 0.000661976 1.62336e-08 1.89185e-13 7.92326e-23 -7.61852e-23 -2.20091e-22 7.07434e-23 -2.04912e-22 1.32054e-22 -1.27795e-22 1.23801e-22 1.20049e-22 0 -3.39569e-22 0 0 0 0 -1.98082e-22 -9.66252e-23 0 1.84262e-22 0 0 1.72245e-22 0 1.65068e-22 1.61699e-22 0 0 1.17936 1.15575 1.40135 1.39062 1.55857 1.60635 1.6344 1.81826 1.86361 1.81094 2.03103 2.04867 2.11857 2.17379 2.17354 2.25809 2.28844 2.30892 2.0317 1.19828 0.142173 0.000651055 1.59658e-08 1.8607e-13 7.92326e-23 1.5237e-22 1.46727e-22 0 0 -1.32054e-22 -2.55589e-22 -1.23801e-22 -2.40099e-22 1.16519e-22 0 1.10045e-22 2.14142e-22 3.12761e-22 2.03161e-22 9.90408e-23 1.9325e-22 -1.88649e-22 -1.84262e-22 9.00371e-23 -1.76073e-22 -1.72245e-22 0 0 -1.61699e-22 0 0 1.15841 1.13522 1.37646 1.36592 1.53088 1.57782 1.60537 1.78597 1.8305 1.77878 1.99496 2.01228 2.08094 2.13518 2.13493 2.21798 2.2478 2.26791 1.99562 1.177 0.139648 0.000639491 1.56822e-08 1.82794e-13 -1.18849e-22 -1.5237e-22 -2.20091e-22 -2.82974e-22 2.04912e-22 -6.60272e-23 1.91692e-22 1.85702e-22 1.20049e-22 1.16519e-22 0 -2.20091e-22 -2.14142e-22 0 -1.0158e-22 -9.90408e-23 2.89876e-22 9.43246e-23 0 0 0 1.72245e-22 1.6858e-22 1.65068e-22 -1.61699e-22 0 0 1.13632 1.11357 1.35021 1.33987 1.50169 1.54773 1.57476 1.75191 1.7956 1.74486 1.95692 1.97391 2.04126 2.09446 2.09422 2.17569 2.20493 2.22467 1.95756 1.15455 0.136985 0.000627296 1.53831e-08 1.79256e-13 3.1693e-22 -1.90463e-22 0 -7.07434e-23 2.04912e-22 0 -2.55589e-22 6.19005e-23 -2.40099e-22 1.16519e-22 0 2.20091e-22 3.21214e-22 -3.12761e-22 3.04741e-22 -2.97123e-22 1.9325e-22 -2.82974e-22 1.84262e-22 0 -1.76073e-22 -8.61225e-23 -8.42901e-23 0 -1.61699e-22 0 0 1.11311 1.09082 1.32263 1.3125 1.47102 1.51612 1.54259 1.71612 1.75892 1.70921 1.91694 1.93359 1.99956 2.05168 2.05144 2.13124 2.15989 2.17922 1.91757 1.13097 0.134187 0.000614482 1.50689e-08 1.75552e-13 -1.58465e-22 -1.5237e-22 -1.10045e-22 1.76859e-22 -6.8304e-23 -6.60272e-23 1.91692e-22 2.47602e-22 -3.60148e-22 5.82593e-23 5.65948e-23 0 -3.21214e-22 -1.04254e-22 -1.0158e-22 -9.90408e-23 1.9325e-22 -4.71623e-22 1.84262e-22 1.80074e-22 -1.76073e-22 8.61225e-23 -1.6858e-22 1.65068e-22 -1.61699e-22 0 0 1.0888 1.067 1.29374 1.28384 1.43889 1.48301 1.5089 1.67864 1.7205 1.67188 1.87508 1.89136 1.95589 2.00687 2.00664 2.0847 2.11272 2.13163 1.87569 1.10627 0.131256 0.000601062 1.47398e-08 1.71772e-13 -3.96163e-23 -1.90463e-23 2.20091e-22 -2.1223e-22 1.7076e-22 1.65068e-22 1.91692e-22 -1.23801e-22 2.40099e-22 -1.16519e-22 1.1319e-22 2.75113e-22 -1.07071e-22 -1.04254e-22 -1.0158e-22 9.90408e-23 3.86501e-22 0 -9.2131e-23 1.80074e-22 8.80363e-23 -1.72245e-22 -1.6858e-22 0 0 0 0 1.06342 1.04212 1.26358 1.2539 1.40534 1.44843 1.47372 1.63951 1.68039 1.6329 1.83136 1.84726 1.91029 1.96008 1.95985 2.03609 2.06346 2.08193 1.83196 1.08047 0.128196 0.000587048 1.43961e-08 1.6775e-13 1.58465e-22 0 -1.46727e-22 7.07434e-23 -6.8304e-23 1.32054e-22 -3.19486e-22 0 1.20049e-22 5.82593e-23 0 5.50227e-23 5.35356e-23 -5.21268e-23 1.0158e-22 -1.98082e-22 -2.89876e-22 3.77298e-22 0 -2.70111e-22 0 0 -8.42901e-23 -1.65068e-22 -1.61699e-22 0 0 1.03698 1.01622 1.23217 1.22273 1.37041 1.41242 1.43708 1.59875 1.63862 1.59231 1.78584 1.80134 1.8628 1.91136 1.91113 1.98548 2.01217 2.03018 1.78642 1.05362 0.125009 0.000572455 1.40383e-08 1.63628e-13 -6.93285e-23 6.08217e-24 7.33635e-23 -1.41487e-22 1.36608e-22 -3.30136e-23 1.91692e-22 -9.28508e-23 -3.00124e-23 0 -1.69784e-22 5.50227e-23 1.60607e-22 -4.17014e-22 2.53951e-22 9.90408e-23 0 -1.88649e-22 9.2131e-23 1.80074e-22 2.64109e-22 -8.61225e-23 2.5287e-22 2.47602e-22 -8.08497e-23 0 0 1.00952 0.989308 1.19954 1.19036 1.33412 1.37503 1.39903 1.55642 1.59523 1.55015 1.73855 1.75365 1.81348 1.86075 1.86053 1.93291 1.95889 1.97642 1.73912 1.02572 0.121699 0.000557297 1.36665e-08 1.59255e-13 -1.98082e-23 -1.42847e-22 1.87994e-22 -8.40078e-23 1.62222e-22 -1.48561e-22 2.07666e-22 -3.09503e-23 1.20049e-22 0 2.54676e-22 1.10045e-22 1.07071e-22 -1.5638e-22 1.52371e-22 4.95204e-23 3.38188e-22 4.71623e-23 -1.84262e-22 -9.00371e-23 0 -2.58367e-22 -8.42901e-23 0 -8.08497e-23 0 0 0.98107 0.961424 1.16573 1.15681 1.29652 1.33627 1.3596 1.51255 1.55027 1.50646 1.68955 1.70422 1.76236 1.8083 1.80809 1.87843 1.90367 1.92071 1.6901 0.996806 0.118269 0.000541589 1.32813e-08 1.54807e-13 0 -5.71389e-23 1.65068e-22 -1.85701e-22 2.77485e-23 2.47602e-23 -3.99358e-23 -3.09503e-23 1.50062e-22 -1.45648e-22 -1.98082e-22 1.37557e-22 -8.03034e-23 -1.04254e-22 -1.0158e-22 -1.98082e-22 0 9.43246e-23 9.2131e-23 -9.00371e-23 0 0 -8.42901e-23 8.25341e-23 8.08497e-23 0 0 0.951647 0.93259 1.13077 1.12211 1.25763 1.29619 1.31882 1.46719 1.50377 1.46128 1.63888 1.65311 1.70951 1.75407 1.75386 1.82209 1.84658 1.86311 1.63941 0.966912 0.114722 0.000525347 1.2883e-08 1.50112e-13 1.58465e-22 -3.04741e-22 2.56772e-22 1.06115e-22 2.21988e-22 -2.14588e-22 -1.79711e-23 -3.4819e-22 -6.00247e-23 -1.31083e-22 -1.98082e-22 -8.2534e-23 1.07071e-22 -2.3457e-22 -2.53951e-23 -3.46643e-22 -1.44938e-22 1.41487e-22 9.2131e-23 -9.00371e-23 0 8.61225e-23 -4.2145e-23 -8.25341e-23 1.61699e-22 0 0 0.921286 0.902837 1.0947 1.08631 1.21751 1.25484 1.27675 1.42038 1.4558 1.41466 1.58659 1.60037 1.65497 1.69811 1.69791 1.76396 1.78767 1.80367 1.58711 0.936064 0.111062 0.000508586 1.2472e-08 1.45329e-13 -2.77314e-22 1.14278e-22 -3.66818e-23 3.18345e-22 3.4152e-22 1.81575e-22 1.1182e-22 3.09503e-22 4.1267e-23 -2.00266e-22 2.61751e-22 -2.47602e-22 1.33839e-23 1.5638e-22 -1.0158e-22 1.48561e-22 9.66252e-23 4.71623e-23 -9.2131e-23 4.50186e-23 2.20091e-22 0 2.10725e-22 -2.47602e-22 2.02124e-22 0 0 0.890015 0.872192 1.05754 1.04944 1.17618 1.21225 1.23341 1.37217 1.40638 1.36664 1.53274 1.54605 1.5988 1.64047 1.64028 1.70409 1.72699 1.74245 1.53324 0.904291 0.107292 0.000491324 1.20487e-08 1.40406e-13 7.92326e-23 -1.5237e-22 7.33635e-23 -1.41487e-22 -1.7076e-22 -3.30136e-23 1.59743e-22 -2.78552e-22 2.70111e-22 3.64121e-23 -6.36691e-23 -1.54751e-22 5.35356e-23 5.21268e-23 2.53951e-22 -4.45684e-22 -1.20782e-22 -1.17906e-22 2.5336e-22 -2.25093e-23 0 8.61225e-23 1.6858e-22 -3.30136e-22 3.23399e-22 0 0 0.857866 0.840687 1.01934 1.01153 1.1337 1.16846 1.18886 1.3226 1.35558 1.31728 1.47737 1.4902 1.54104 1.58121 1.58103 1.64253 1.66461 1.67951 1.47786 0.871626 0.103417 0.000473576 1.16135e-08 1.35323e-13 7.92326e-23 4.57111e-22 -1.46727e-22 7.07434e-23 -3.4152e-23 -2.64109e-22 1.91692e-22 1.23801e-22 3.00124e-22 1.60213e-22 -8.48921e-23 -4.1267e-22 2.34218e-23 2.1991e-23 -8.88828e-23 2.22842e-22 4.83126e-22 -1.88649e-22 -5.75819e-22 9.00371e-23 -1.10045e-22 -1.93776e-22 8.42901e-23 -1.65068e-22 0 0 0 0.82487 0.808352 0.980134 0.972627 1.09009 1.12352 1.14313 1.27173 1.30344 1.26661 1.42055 1.43288 1.48177 1.52039 1.52022 1.57936 1.60058 1.61491 1.42101 0.838102 0.0994389 0.000455361 1.11668e-08 1.30169e-13 -3.1693e-22 -2.28556e-22 -2.20091e-22 -1.41487e-22 1.36608e-22 -1.32054e-22 -6.38973e-23 -1.85702e-22 1.80074e-22 1.74778e-22 5.65948e-23 5.50227e-23 -6.69195e-23 -2.60634e-22 3.49182e-22 4.71992e-23 1.47957e-22 2.41707e-22 1.2668e-22 2.25093e-22 -3.08127e-22 -1.50714e-22 2.10725e-23 4.1267e-23 2.02124e-22 0 0 0.79106 0.775219 0.93996 0.932761 1.04541 1.07747 1.09628 1.21961 1.25002 1.21469 1.36232 1.37415 1.42104 1.45808 1.45791 1.51462 1.53498 1.54872 1.36277 0.803749 0.0953631 0.000436697 1.07091e-08 1.24773e-13 2.37698e-22 7.61852e-23 0 -1.41487e-22 0 -3.96163e-22 -3.19486e-22 -1.23801e-22 -1.80074e-22 -1.45648e-22 1.1319e-22 5.50227e-23 5.35356e-23 4.17014e-22 -2.66648e-22 1.48561e-22 1.87211e-22 3.24241e-23 1.33878e-22 -1.12546e-23 2.80616e-22 -1.29184e-22 2.31798e-22 1.03168e-22 -2.02124e-22 0 0 0.75647 0.741322 0.898859 0.891975 0.999701 1.03035 1.04834 1.16628 1.19536 1.16158 1.30275 1.31407 1.3589 1.39432 1.39416 1.44839 1.46786 1.481 1.30318 0.768604 0.0911932 0.000417602 1.02408e-08 1.1934e-13 -1.58465e-22 3.04741e-22 0 -7.07434e-23 6.8304e-23 6.60272e-23 1.91692e-22 -6.19005e-23 6.00247e-23 -1.16519e-22 -1.1319e-22 -3.57647e-22 -1.60607e-22 -7.81901e-23 -2.03161e-22 -2.22842e-22 -3.62345e-23 -3.30136e-22 3.91557e-22 -1.85702e-22 -2.47602e-23 5.24809e-23 2.00189e-22 3.40453e-22 1.51593e-22 0 0 0.721133 0.706692 0.85687 0.850308 0.953002 0.982222 0.99937 1.1118 1.13952 1.10732 1.2419 1.25268 1.29542 1.32919 1.32903 1.38073 1.39929 1.41182 1.24231 0.7327 0.0869333 0.000398094 9.76242e-09 1.13762e-13 0 3.04741e-22 -2.93454e-22 2.1223e-22 6.8304e-23 3.30136e-22 6.38973e-23 0 -1.20049e-22 0 3.39569e-22 -1.65068e-22 -1.60607e-22 5.21268e-23 -5.07902e-23 -1.48561e-22 -1.20782e-22 2.82974e-22 -1.84262e-22 -7.87825e-23 -7.70318e-23 1.93776e-22 1.21167e-22 -2.06335e-22 -1.98019e-22 0 0 0.685084 0.671366 0.814036 0.807802 0.905362 0.933122 0.949413 1.05622 1.08256 1.05197 1.17982 1.19006 1.23066 1.26274 1.2626 1.31171 1.32934 1.34124 1.1802 0.696074 0.0825876 0.000378194 9.27441e-09 1.08066e-13 -1.58465e-22 1.5237e-22 -1.46727e-22 -1.41487e-22 0 0 0 -1.23801e-22 -6.00247e-23 -2.33037e-22 1.1319e-22 -1.65068e-22 -1.60607e-22 -1.04254e-22 1.52371e-22 4.95204e-23 -2.89876e-22 -4.24461e-22 -2.07295e-22 -9.00371e-23 -1.54064e-22 -2.15306e-22 1.6858e-22 1.13484e-22 -1.11168e-22 0 0 0.64836 0.635376 0.770399 0.764499 0.856829 0.883101 0.898518 0.999599 1.02453 0.995573 1.11657 1.12627 1.16469 1.19505 1.19491 1.2414 1.25808 1.26934 1.11694 0.65876 0.0781604 0.00035792 8.77725e-09 1.02276e-13 4.75396e-22 -3.04741e-22 1.46727e-22 -1.41487e-22 -2.73216e-22 0 0 0 0 0 -1.1319e-22 0 0 0 0 0 -4.83126e-23 2.35812e-22 -1.38197e-22 -1.35056e-22 -1.32054e-22 -1.29184e-22 -1.47508e-22 1.03168e-22 -2.22337e-22 0 0 0.610995 0.59876 0.726001 0.720441 0.807451 0.832208 0.846737 0.941993 0.965483 0.938199 1.05222 1.06136 1.09757 1.12618 1.12605 1.16986 1.18558 1.19619 1.05257 0.620796 0.0736561 0.000337294 8.27142e-09 9.63821e-14 3.1693e-22 3.04741e-22 1.46727e-22 1.41487e-22 0 0 0 1.23801e-22 2.40099e-22 2.33037e-22 -1.1319e-22 -2.75113e-22 -2.14142e-22 -1.04254e-22 -1.0158e-22 -9.90408e-23 -2.41563e-22 -9.43246e-23 -2.30328e-22 4.50186e-23 2.20091e-22 4.30612e-23 -4.2145e-23 1.03168e-22 0 0 0 0.573028 0.561553 0.680887 0.675673 0.757275 0.780494 0.79412 0.883457 0.905487 0.879899 0.986838 0.995408 1.02937 1.0562 1.05608 1.09716 1.11191 1.12186 0.987162 0.582219 0.0690791 0.000316334 7.75743e-09 9.03929e-14 3.1693e-22 -1.5237e-22 0 1.41487e-22 2.73216e-22 -2.64109e-22 -2.55589e-22 1.23801e-22 2.40099e-22 2.33037e-22 0 -1.10045e-22 2.14142e-22 -2.08507e-22 -3.04741e-22 -2.97123e-22 -1.44938e-22 -1.41487e-22 -3.22459e-22 -1.80074e-22 2.64109e-22 1.72245e-22 -3.79305e-22 -3.71403e-22 4.04248e-23 0 0 0.534494 0.523791 0.635101 0.630237 0.706353 0.72801 0.74072 0.824049 0.844598 0.82073 0.920478 0.928472 0.96015 0.985176 0.985061 1.02338 1.03714 1.04642 0.920781 0.543068 0.0644339 0.000295062 7.23578e-09 8.42953e-14 3.1693e-22 0 -1.46727e-22 -1.41487e-22 0 3.96163e-22 1.27795e-22 0 1.20049e-22 0 0 0 2.14142e-22 2.08507e-22 2.03161e-22 1.98082e-22 0 0 1.84262e-22 0 4.40182e-23 3.01429e-22 1.26435e-22 -1.23801e-22 -8.08497e-23 0 0 0.495434 0.485513 0.588688 0.58418 0.654733 0.674808 0.686589 0.763828 0.782875 0.760752 0.85321 0.86062 0.889982 0.91318 0.913073 0.948593 0.961343 0.969948 0.85349 0.503381 0.0597251 0.000273499 6.707e-09 7.8163e-14 -1.58465e-22 1.5237e-22 0 -1.41487e-22 0 -1.32054e-22 0 -2.47602e-22 -1.20049e-22 -1.16519e-22 -2.26379e-22 -1.10045e-22 0 3.12761e-22 -1.0158e-22 9.90408e-23 2.89876e-22 -9.43246e-23 0 -9.00371e-23 -8.80363e-23 8.61225e-23 8.42901e-23 -8.25341e-23 -1.61699e-22 0 0 0.455884 0.446755 0.541695 0.537546 0.602467 0.620939 0.63178 0.702853 0.72038 0.700023 0.7851 0.791918 0.818937 0.840283 0.840185 0.872869 0.884601 0.892519 0.785358 0.463197 0.0549573 0.000251666 6.17159e-09 7.19516e-14 0 3.04741e-22 2.93454e-22 -1.41487e-22 -2.73216e-22 -1.32054e-22 0 3.71403e-22 3.60148e-22 0 -2.26379e-22 -1.10045e-22 -1.07071e-22 3.12761e-22 -2.03161e-22 -9.90408e-23 -9.66252e-23 -1.88649e-22 0 0 0 1.72245e-22 1.6858e-22 -1.65068e-22 -2.42549e-22 0 0 0.415885 0.407557 0.494166 0.490381 0.549606 0.566458 0.576347 0.641185 0.657174 0.638602 0.716215 0.722435 0.747083 0.766556 0.766467 0.796283 0.806986 0.814209 0.716451 0.422556 0.0501354 0.000229585 5.63009e-09 6.55724e-14 1.58465e-22 1.5237e-22 0 -1.41487e-22 1.36608e-22 3.96163e-22 1.27795e-22 -2.47602e-22 -2.40099e-22 2.33037e-22 -3.39569e-22 -4.40181e-22 -2.14142e-22 -1.04254e-22 2.03161e-22 2.97123e-22 -1.9325e-22 1.88649e-22 -9.2131e-23 2.70111e-22 -1.76073e-22 -1.72245e-22 1.6858e-22 1.65068e-22 -3.23399e-22 0 0 0.375475 0.367956 0.44615 0.442733 0.496203 0.511417 0.520346 0.578884 0.593319 0.576552 0.646624 0.652239 0.674492 0.692073 0.691992 0.718912 0.728575 0.735096 0.646836 0.381498 0.0452639 0.000207277 5.08304e-09 5.92219e-14 3.1693e-22 0 2.93454e-22 -4.24461e-22 1.36608e-22 -3.96163e-22 2.55589e-22 2.47602e-22 -3.60148e-22 1.16519e-22 2.26379e-22 2.20091e-22 2.14142e-22 1.04254e-22 -2.03161e-22 1.98082e-22 0 0 1.84262e-22 1.80074e-22 1.76073e-22 -2.58367e-22 8.42901e-23 1.65068e-22 0 0 0 0.334695 0.327993 0.397694 0.394648 0.442311 0.455872 0.463831 0.516011 0.528878 0.513933 0.576394 0.581399 0.601236 0.616907 0.616835 0.640831 0.649444 0.655257 0.576583 0.340064 0.0403478 0.000184765 4.53097e-09 5.27833e-14 -3.1693e-22 -3.04741e-22 5.86908e-22 1.41487e-22 2.73216e-22 3.96163e-22 -2.55589e-22 -1.23801e-22 -1.20049e-22 -2.33037e-22 1.1319e-22 -1.10045e-22 -2.14142e-22 -1.04254e-22 -1.0158e-22 -9.90408e-23 -1.9325e-22 -9.43246e-23 -1.84262e-22 -1.80074e-22 0 -8.61225e-23 1.6858e-22 -8.25341e-23 8.08497e-23 0 0 0.293584 0.287705 0.348845 0.346173 0.387982 0.399878 0.406859 0.452629 0.463916 0.450806 0.505595 0.509986 0.527386 0.541132 0.541069 0.562117 0.569673 0.574772 0.505761 0.298293 0.0353919 0.00016207 3.97443e-09 4.63097e-14 3.1693e-22 6.09482e-22 0 -2.82974e-22 -2.73216e-22 0 0 1.23801e-22 1.20049e-22 4.66074e-22 -1.1319e-22 -2.20091e-22 1.07071e-22 0 -1.0158e-22 9.90408e-23 0 9.43246e-23 9.2131e-23 -9.00371e-23 -8.80363e-23 -8.61225e-23 0 -8.25341e-23 -8.08497e-23 0 0 0.252184 0.247134 0.299652 0.297357 0.33327 0.34348