<?xml version="1.0"?>
<VTKFile type="PolyData">
	<PolyData>
		<Piece NumberOfPoints="2601" NumberOfPolys="2500">
			<Points>
				<DataArray type="Float32" NumberOfComponents="3" format="ascii">
 1e-06 0 0 0.223423 0 0 0.254402 0 0 0.282935 0 0 0.305008 0 0 0.323118 0 0 0.338226 0 0 0.352279 0 0 0.365354 0 0 0.37655 0 0 0.386442 0 0 0.395677 0 0 0.403859 0 0 0.411263 0 0 0.418163 0 0 0.424532 0 0 0.429968 0 0 0.435179 0 0 0.439873 0 0 0.444242 0 0 0.448387 0 0 0.452246 0 0 0.457068 0 0 0.465335 0 0 0.480427 0 0 0.500003 0 0 0.520001 0 0 0.540001 0 0 0.560001 0 0 0.580001 0 0 0.600001 0 0 0.620001 0 0 0.640001 0 0 0.660001 0 0 0.680001 0 0 0.700001 0 0 0.720001 0 0 0.740001 0 0 0.760001 0 0 0.780001 0 0 0.800001 0 0 0.820001 0 0 0.840001 0 0 0.860001 0 0 0.880001 0 0 0.900001 0 0 0.920001 0 0 0.940001 0 0 0.960001 0 0 0.980001 0 0 1 0 0 9.99507e-07 3.14108e-08 0 0.223313 0.00701788 0 0.254277 0.00799097 0 0.282795 0.0088872 0 0.304858 0.00958054 0 0.322959 0.0101494 0 0.338059 0.0106239 0 0.352105 0.0110654 0 0.365174 0.011476 0 0.376364 0.0118277 0 0.386251 0.0121384 0 0.395481 0.0124285 0 0.403659 0.0126855 0 0.41106 0.0129181 0 0.417956 0.0131348 0 0.424323 0.0133349 0 0.429755 0.0135056 0 0.434964 0.0136693 0 0.439656 0.0138168 0 0.444023 0.013954 0 0.448166 0.0140842 0 0.452023 0.0142054 0 0.456843 0.0143569 0 0.465105 0.0146165 0 0.480189 0.0150906 0 0.499756 0.0157055 0 0.519744 0.0163336 0 0.539735 0.0169618 0 0.559725 0.0175901 0 0.579715 0.0182183 0 0.599705 0.0188465 0 0.619695 0.0194747 0 0.639685 0.0201029 0 0.659675 0.0207311 0 0.679665 0.0213593 0 0.699656 0.0219876 0 0.719646 0.0226158 0 0.739636 0.023244 0 0.759626 0.0238722 0 0.779616 0.0245004 0 0.799606 0.0251286 0 0.819596 0.0257569 0 0.839587 0.0263851 0 0.859577 0.0270133 0 0.879567 0.0276415 0 0.899557 0.0282697 0 0.919547 0.0288979 0 0.939537 0.0295261 0 0.959527 0.0301544 0 0.979517 0.0307826 0 0.999508 0.0314108 0 9.98027e-07 6.27905e-08 0 0.222982 0.0140288 0 0.2539 0.0159741 0 0.282376 0.0177656 0 0.304406 0.0191516 0 0.322481 0.0202888 0 0.337559 0.0212374 0 0.351584 0.0221198 0 0.364633 0.0229408 0 0.375807 0.0236437 0 0.385679 0.0242649 0 0.394896 0.0248447 0 0.403062 0.0253585 0 0.410452 0.0258234 0 0.417337 0.0262566 0 0.423694 0.0266566 0 0.429119 0.0269979 0 0.43432 0.0273251 0 0.439005 0.0276199 0 0.443365 0.0278942 0 0.447502 0.0281545 0 0.451354 0.0283968 0 0.456166 0.0286996 0 0.464416 0.0292186 0 0.479479 0.0301662 0 0.499016 0.0313955 0 0.518975 0.0326511 0 0.538935 0.0339069 0 0.558896 0.0351628 0 0.578857 0.0364186 0 0.598817 0.0376744 0 0.618778 0.0389302 0 0.638738 0.040186 0 0.658699 0.0414418 0 0.678659 0.0426976 0 0.69862 0.0439534 0 0.71858 0.0452092 0 0.738541 0.046465 0 0.758501 0.0477209 0 0.778462 0.0489767 0 0.798422 0.0502325 0 0.818383 0.0514883 0 0.838343 0.0527441 0 0.858304 0.0539999 0 0.878265 0.0552557 0 0.898225 0.0565115 0 0.918186 0.0577673 0 0.938146 0.0590232 0 0.958107 0.060279 0 0.978067 0.0615348 0 0.998028 0.0627906 0 9.95562e-07 9.41083e-08 0 0.222431 0.0210259 0 0.253273 0.0239414 0 0.281679 0.0266265 0 0.303655 0.0287038 0 0.321684 0.0304081 0 0.336725 0.0318299 0 0.350716 0.0331524 0 0.363733 0.0343828 0 0.374878 0.0354364 0 0.384727 0.0363674 0 0.393921 0.0372365 0 0.402066 0.0380064 0 0.409438 0.0387033 0 0.416307 0.0393526 0 0.422648 0.039952 0 0.428059 0.0404635 0 0.433247 0.0409539 0 0.437921 0.0413958 0 0.44227 0.0418069 0 0.446397 0.042197 0 0.450239 0.0425601 0 0.45504 0.0430139 0 0.46327 0.0437919 0 0.478294 0.0452121 0 0.497784 0.0470544 0 0.517693 0.0489364 0 0.537604 0.0508186 0 0.557516 0.0527007 0 0.577427 0.0545829 0 0.597338 0.0564651 0 0.617249 0.0583472 0 0.637161 0.0602294 0 0.657072 0.0621116 0 0.676983 0.0639937 0 0.696894 0.0658759 0 0.716806 0.0677581 0 0.736717 0.0696402 0 0.756628 0.0715224 0 0.776539 0.0734046 0 0.796451 0.0752867 0 0.816362 0.0771689 0 0.836273 0.0790511 0 0.856184 0.0809332 0 0.876096 0.0828154 0 0.896007 0.0846976 0 0.915918 0.0865797 0 0.935829 0.0884619 0 0.95574 0.0903441 0 0.975652 0.0922262 0 0.995563 0.0941084 0 9.92115e-07 1.25333e-07 0 0.221661 0.0280023 0 0.252396 0.0318851 0 0.280704 0.0354611 0 0.302603 0.0382277 0 0.32057 0.0404974 0 0.335559 0.042391 0 0.349501 0.0441523 0 0.362473 0.045791 0 0.37358 0.0471942 0 0.383395 0.048434 0 0.392557 0.0495914 0 0.400674 0.0506169 0 0.40802 0.051545 0 0.414865 0.0524097 0 0.421184 0.053208 0 0.426577 0.0538892 0 0.431747 0.0545424 0 0.436405 0.0551308 0 0.440739 0.0556783 0 0.444851 0.0561978 0 0.44868 0.0566815 0 0.453464 0.0572859 0 0.461665 0.0583219 0 0.476638 0.0602134 0 0.49606 0.062667 0 0.515901 0.0651734 0 0.535743 0.0676801 0 0.555585 0.0701867 0 0.575428 0.0726934 0 0.59527 0.0752001 0 0.615112 0.0777067 0 0.634954 0.0802134 0 0.654797 0.0827201 0 0.674639 0.0852267 0 0.694481 0.0877334 0 0.714324 0.0902401 0 0.734166 0.0927467 0 0.754008 0.0952534 0 0.77385 0.09776 0 0.793693 0.100267 0 0.813535 0.102773 0 0.833377 0.10528 0 0.85322 0.107787 0 0.873062 0.110293 0 0.892904 0.1128 0 0.912747 0.115307 0 0.932589 0.117813 0 0.952431 0.12032 0 0.972273 0.122827 0 0.992116 0.125333 0 9.87688e-07 1.56434e-07 0 0.220672 0.034951 0 0.25127 0.0397973 0 0.279451 0.0442608 0 0.301253 0.0477138 0 0.31914 0.0505468 0 0.334062 0.0529102 0 0.347942 0.0551086 0 0.360856 0.057154 0 0.371914 0.0589053 0 0.381684 0.0604528 0 0.390805 0.0618975 0 0.398886 0.0631774 0 0.4062 0.0643358 0 0.413014 0.065415 0 0.419305 0.0664114 0 0.424674 0.0672618 0 0.429821 0.068077 0 0.434458 0.0688114 0 0.438773 0.0694948 0 0.442867 0.0701432 0 0.446678 0.0707469 0 0.451441 0.0715013 0 0.459606 0.0727944 0 0.474512 0.0751553 0 0.493847 0.0782177 0 0.513599 0.0813461 0 0.533353 0.0844748 0 0.553106 0.0876035 0 0.57286 0.0907321 0 0.592614 0.0938608 0 0.612368 0.0969895 0 0.632122 0.100118 0 0.651875 0.103247 0 0.671629 0.106376 0 0.691383 0.109504 0 0.711137 0.112633 0 0.73089 0.115762 0 0.750644 0.11889 0 0.770398 0.122019 0 0.790152 0.125148 0 0.809905 0.128276 0 0.829659 0.131405 0 0.849413 0.134534 0 0.869167 0.137662 0 0.88892 0.140791 0 0.908674 0.14392 0 0.928428 0.147049 0 0.948182 0.150177 0 0.967936 0.153306 0 0.987689 0.156435 0 9.82287e-07 1.87381e-07 0 0.219465 0.0418652 0 0.249896 0.0476702 0 0.277923 0.0530167 0 0.299606 0.0571528 0 0.317395 0.0605463 0 0.332235 0.0633773 0 0.346039 0.0660105 0 0.358883 0.0684605 0 0.36988 0.0705584 0 0.379597 0.072412 0 0.388668 0.0741424 0 0.396705 0.0756755 0 0.403979 0.0770631 0 0.410756 0.0783558 0 0.417012 0.0795494 0 0.422352 0.0805679 0 0.427471 0.0815444 0 0.432082 0.0824241 0 0.436373 0.0832426 0 0.440445 0.0840194 0 0.444236 0.0847425 0 0.448972 0.0856461 0 0.457092 0.087195 0 0.471917 0.090023 0 0.491147 0.0936912 0 0.51079 0.0974385 0 0.530436 0.101186 0 0.550082 0.104934 0 0.569728 0.108681 0 0.589373 0.112429 0 0.609019 0.116177 0 0.628665 0.119924 0 0.648311 0.123672 0 0.667956 0.127419 0 0.687602 0.131167 0 0.707248 0.134915 0 0.726894 0.138662 0 0.746539 0.14241 0 0.766185 0.146158 0 0.785831 0.149905 0 0.805477 0.153653 0 0.825122 0.1574 0 0.844768 0.161148 0 0.864414 0.164896 0 0.88406 0.168643 0 0.903705 0.172391 0 0.923351 0.176139 0 0.942997 0.179886 0 0.962642 0.183634 0 0.982288 0.187382 0 9.75917e-07 2.18143e-07 0 0.218042 0.0487382 0 0.248276 0.0554962 0 0.276121 0.0617203 0 0.297663 0.0665355 0 0.315336 0.070486 0 0.330081 0.0737818 0 0.343795 0.0768473 0 0.356555 0.0796995 0 0.367481 0.0821418 0 0.377135 0.0842997 0 0.386147 0.0863142 0 0.394132 0.088099 0 0.401359 0.0897143 0 0.408092 0.0912193 0 0.414308 0.0926088 0 0.419613 0.0937945 0 0.424698 0.0949313 0 0.42928 0.0959554 0 0.433543 0.0969084 0 0.437589 0.0978126 0 0.441355 0.0986545 0 0.446061 0.0997064 0 0.454128 0.10151 0 0.468856 0.104802 0 0.487961 0.109072 0 0.507478 0.113435 0 0.526996 0.117798 0 0.546514 0.12216 0 0.566033 0.126523 0 0.585551 0.130886 0 0.605069 0.135249 0 0.624588 0.139612 0 0.644106 0.143975 0 0.663624 0.148338 0 0.683143 0.1527 0 0.702661 0.157063 0 0.722179 0.161426 0 0.741698 0.165789 0 0.761216 0.170152 0 0.780734 0.174515 0 0.800253 0.178878 0 0.819771 0.183241 0 0.839289 0.187603 0 0.858808 0.191966 0 0.878326 0.196329 0 0.897844 0.200692 0 0.917363 0.205055 0 0.936881 0.209418 0 0.956399 0.213781 0 0.975918 0.218143 0 9.68583e-07 2.4869e-07 0 0.216404 0.055563 0 0.24641 0.0632673 0 0.274046 0.070363 0 0.295426 0.0758525 0 0.312967 0.0803562 0 0.3276 0.0841135 0 0.341212 0.0876083 0 0.353876 0.0908598 0 0.36472 0.0936441 0 0.374301 0.0961042 0 0.383246 0.0984008 0 0.391171 0.100436 0 0.398343 0.102277 0 0.405025 0.103993 0 0.411195 0.105577 0 0.416459 0.106929 0 0.421507 0.108225 0 0.426054 0.109392 0 0.430285 0.110478 0 0.4343 0.111509 0 0.438038 0.112469 0 0.442709 0.113668 0 0.450715 0.115724 0 0.465333 0.119477 0 0.484295 0.124346 0 0.503664 0.129319 0 0.523036 0.134293 0 0.542408 0.139267 0 0.561779 0.14424 0 0.581151 0.149214 0 0.600523 0.154188 0 0.619894 0.159162 0 0.639266 0.164136 0 0.658638 0.169109 0 0.678009 0.174083 0 0.697381 0.179057 0 0.716753 0.184031 0 0.736124 0.189005 0 0.755496 0.193978 0 0.774867 0.198952 0 0.794239 0.203926 0 0.813611 0.2089 0 0.832982 0.213874 0 0.852354 0.218847 0 0.871726 0.223821 0 0.891097 0.228795 0 0.910469 0.233769 0 0.929841 0.238743 0 0.949212 0.243716 0 0.968584 0.24869 0 9.60294e-07 2.78991e-07 0 0.214551 0.062333 0 0.244301 0.070976 0 0.2717 0.0789363 0 0.292897 0.0850946 0 0.310288 0.0901471 0 0.324797 0.0943621 0 0.338291 0.0982827 0 0.350847 0.101931 0 0.361598 0.105054 0 0.371098 0.107814 0 0.379966 0.11039 0 0.387823 0.112673 0 0.394934 0.114739 0 0.401559 0.116664 0 0.407675 0.118441 0 0.412895 0.119957 0 0.417899 0.121411 0 0.422408 0.122721 0 0.426603 0.12394 0 0.430583 0.125096 0 0.434289 0.126173 0 0.43892 0.127518 0 0.446858 0.129824 0 0.461351 0.134035 0 0.48015 0.139496 0 0.499354 0.145076 0 0.51856 0.150655 0 0.537765 0.156235 0 0.556971 0.161815 0 0.576177 0.167395 0 0.595383 0.172975 0 0.614589 0.178555 0 0.633795 0.184134 0 0.653001 0.189714 0 0.672207 0.195294 0 0.691412 0.200874 0
[...]
			<PointData Scalars="VitesseX">
				<DataArray Name="VitesseX" type="Float32" format="ascii">
 0 1.1441 0.995074 1.33514 1.34536 1.437 1.55427 1.53984 1.67067 1.75173 1.7694 1.79564 1.97825 1.96901 2.00021 2.05779 2.11855 2.18747 2.21233 2.25817 2.29352 2.26125 1.98978 1.2574 0.218042 0.00213177 1.3448e-07 1.86137e-12 1.93007e-17 0 0 0 0 0 0 0 0 0 0 0 0 0 0 0 0 0 0 0 0 0 0 0 1.14354 0.994583 1.33448 1.34469 1.43629 1.5535 1.53908 1.66984 1.75087 1.76853 1.79476 1.97728 1.96804 1.99922 2.05678 2.11751 2.18639 2.21124 2.25706 2.29239 2.26013 1.9888 1.25678 0.217934 0.00213072 1.34413e-07 1.86045e-12 2.00496e-17 0 0 0 0 0 3.11001e-22 0 -2.93723e-22 0 0 0 2.64351e-22 2.57903e-22 -2.51763e-22 -2.45908e-22 0 0 2.2987e-22 -2.2498e-22 0 4.31593e-22 0 0 1.14185 0.993111 1.33251 1.3427 1.43417 1.5512 1.5368 1.66737 1.74827 1.76591 1.7921 1.97435 1.96512 1.99626 2.05373 2.11437 2.18316 2.20796 2.25371 2.289 2.25678 1.98586 1.25492 0.217612 0.00212757 1.34214e-07 1.85769e-12 2.28788e-17 0 0 0 0 0 0 -3.02115e-22 0 0 0 0 0 0 -2.51763e-22 0 0 0 2.2987e-22 -4.49959e-22 0 0 0 0 1.13903 0.990658 1.32922 1.33939 1.43063 1.54737 1.53301 1.66325 1.74396 1.76155 1.78767 1.96947 1.96027 1.99133 2.04866 2.10915 2.17776 2.20251 2.24815 2.28334 2.25121 1.98095 1.25182 0.217074 0.00212231 1.33883e-07 1.85311e-12 2.16613e-17 3.64622e-22 0 0 0 0 3.11001e-22 0 2.93723e-22 0 0 0 0 0 0 0 0 4.69957e-22 2.2987e-22 -2.2498e-22 0 0 0 0 1.13508 0.987228 1.32461 1.33475 1.42567 1.54201 1.5277 1.65749 1.73792 1.75545 1.78148 1.96265 1.95348 1.98444 2.04157 2.10185 2.17022 2.19488 2.24036 2.27544 2.24341 1.97409 1.24749 0.216323 0.00211496 1.33419e-07 1.84671e-12 2.69654e-17 0 0 0 0 0 0 0 0 0 2.78264e-22 0 0 0 0 0 -2.40319e-22 2.34979e-22 -4.59741e-22 0 -2.20292e-22 -2.15797e-22 0 0 1.13002 0.982823 1.3187 1.3288 1.41931 1.53513 1.52088 1.6501 1.73016 1.74762 1.77353 1.9539 1.94477 1.97558 2.03246 2.09247 2.16054 2.18509 2.23037 2.26528 2.23341 1.96529 1.24192 0.215357 0.00210553 1.32824e-07 1.83845e-12 3.27676e-17 3.64622e-22 3.52468e-22 0 0 3.20425e-22 -3.11001e-22 -3.02115e-22 0 -2.85785e-22 -2.78264e-22 0 2.64351e-22 0 -2.51763e-22 0 0 2.34979e-22 0 4.49959e-22 -2.20292e-22 0 0 0 1.12384 0.977449 1.31149 1.32153 1.41155 1.52673 1.51257 1.64108 1.7207 1.73806 1.76384 1.94321 1.93413 1.96478 2.02134 2.08103 2.14873 2.17314 2.21817 2.2529 2.22119 1.95454 1.23513 0.21418 0.00209401 1.32098e-07 1.82839e-12 3.58418e-17 -1.82311e-22 0 -3.41098e-22 0 0 3.11001e-22 0 0 0 2.78264e-22 0 0 0 2.51763e-22 0 -2.40319e-22 -2.34979e-22 0 4.49959e-22 -2.20292e-22 2.15797e-22 0 0 1.11655 0.97111 1.30299 1.31296 1.4024 1.51683 1.50276 1.63043 1.70954 1.72679 1.7524 1.93061 1.92159 1.95204 2.00823 2.06753 2.13479 2.15905 2.20379 2.23829 2.20679 1.94186 1.22712 0.212791 0.00208043 1.31241e-07 1.81652e-12 3.43911e-17 1.82311e-22 1.76234e-22 0 0 -3.20425e-22 0 -3.02115e-22 0 0 0 -2.71129e-22 0 0 -2.51763e-22 2.45908e-22 0 -2.34979e-22 -2.2987e-22 -2.2498e-22 0 0 0 0 1.10816 0.963812 1.2932 1.30309 1.39186 1.50543 1.49146 1.61818 1.6967 1.71382 1.73923 1.9161 1.90715 1.93737 1.99314 2.05199 2.11875 2.14282 2.18723 2.22147 2.1902 1.92727 1.2179 0.211192 0.0020648 1.30255e-07 1.8029e-12 3.90394e-17 -1.82311e-22 -1.76234e-22 0 1.65219e-22 0 0 0 0 2.85785e-22 0 0 0 0 0 2.45908e-22 4.80638e-22 -2.34979e-22 0 0 0 2.15797e-22 0 0 1.09868 0.955563 1.28213 1.29194 1.37995 1.49255 1.4787 1.60433 1.68218 1.69915 1.72434 1.8997 1.89083 1.92079 1.97608 2.03443 2.10062 2.12448 2.16851 2.20245 2.17146 1.91078 1.20748 0.209384 0.00204713 1.2914e-07 1.78747e-12 4.94625e-17 1.82311e-22 0 -1.70549e-22 1.65219e-22 0 -3.11001e-22 0 0 2.85785e-22 -2.78264e-22 0 0 0 -5.03526e-22 -4.91816e-22 4.80638e-22 2.34979e-22 2.2987e-22 0 0 2.15797e-22 0 0 1.08811 0.946372 1.2698 1.27951 1.36667 1.47819 1.46448 1.5889 1.66599 1.6828 1.70776 1.88143 1.87264 1.90231 1.95708 2.01486 2.08041 2.10405 2.14765 2.18127 2.15057 1.8924 1.19586 0.20737 0.00202744 1.27898e-07 1.7703e-12 4.5458e-17 0 1.76234e-22 -3.41098e-22 1.65219e-22 -1.60213e-22 0 0 0 0 0 2.71129e-22 -2.64351e-22 5.15807e-22 2.51763e-22 0 0 0 -2.2987e-22 -2.2498e-22 -2.20292e-22 2.15797e-22 0 0 1.07647 0.936246 1.25621 1.26582 1.35205 1.46238 1.44881 1.5719 1.64817 1.6648 1.68948 1.8613 1.8526 1.88196 1.93614 1.9933 2.05815 2.08154 2.12467 2.15793 2.12756 1.87215 1.18307 0.205151 0.00200575 1.26529e-07 1.75135e-12 5.63206e-17 -3.64622e-22 1.76234e-22 -1.70549e-22 1.65219e-22 0 1.55501e-22 0 0 -2.85785e-22 2.78264e-22 2.71129e-22 -2.64351e-22 -2.57903e-22 -2.51763e-22 0 -2.40319e-22 2.34979e-22 2.2987e-22 -2.2498e-22 -2.20292e-22 4.31593e-22 0 0 1.06376 0.925197 1.24138 1.25088 1.33609 1.44512 1.43171 1.55335 1.62872 1.64515 1.66954 1.83933 1.83074 1.85975 1.91329 1.96978 2.03386 2.05697 2.09959 2.13246 2.10245 1.85005 1.16911 0.20273 0.00198207 1.25036e-07 1.73066e-12 3.20188e-17 0 1.76234e-22 0 0 0 -3.11001e-22 -1.51058e-22 -1.46862e-22 -1.42892e-22 2.78264e-22 -2.71129e-22 0 -2.57903e-22 0 2.45908e-22 -2.40319e-22 -2.34979e-22 -2.2987e-22 -2.2498e-22 -2.20292e-22 0 0 0 1.05001 0.913234 1.22533 1.23471 1.31882 1.42643 1.4132 1.53326 1.60766 1.62388 1.64796 1.81555 1.80707 1.8357 1.88855 1.94431 2.00756 2.03037 2.07245 2.10489 2.07527 1.82613 1.15399 0.200109 0.00195645 1.23419e-07 1.70832e-12 5.04293e-17 0 -3.52468e-22 -1.70549e-22 -3.30439e-22 -3.20425e-22 0 3.02115e-22 1.46862e-22 -1.42892e-22 0 2.71129e-22 2.64351e-22 0 0 0 0 4.69957e-22 0 2.2498e-22 0 -2.15797e-22 0 0 1.03522 0.90037 1.20807 1.21732 1.30024 1.40634 1.39329 1.51167 1.58501 1.601 1.62474 1.78998 1.78161 1.80984 1.86195 1.91692 1.97928 2.00177 2.04325 2.07524 2.04604 1.80041 1.13773 0.19729 0.00192889 1.21681e-07 1.68422e-12 3.70545e-17 3.64622e-22 3.52468e-22 -1.70549e-22 3.30439e-22 -1.60213e-22 -1.55501e-22 1.51058e-22 1.46862e-22 1.42892e-22 -1.39132e-22 -1.35565e-22 0 0 2.51763e-22 0 0 0 -2.2987e-22 0 2.20292e-22 -2.15797e-22 0 0 1.0194 0.886618 1.18962 1.19872 1.28038 1.38486 1.37201 1.48858 1.5608 1.57655 1.59993 1.76264 1.7544 1.7822 1.83351 1.88764 1.94905 1.9712 2.01204 2.04354 2.01478 1.77291 1.12036 0.194277 0.00189942 1.19822e-07 1.65849e-12 6.83201e-17 -2.73466e-22 1.76234e-22 -1.70549e-22 1.65219e-22 1.60213e-22 0 -4.53173e-22 0 0 0 0 -2.64351e-22 -1.28952e-22 0 2.45908e-22 0 0 2.2987e-22 0 2.20292e-22 2.15797e-22 0 0 1.00259 0.87199 1.16999 1.17895 1.25926 1.36201 1.34937 1.46402 1.53505 1.55054 1.57353 1.73356 1.72546 1.7528 1.80326 1.8565 1.9169 1.93868 1.97885 2.00983 1.98154 1.74366 1.10187 0.191072 0.00186809 1.17846e-07 1.6311e-12 1.00965e-16 0 -1.76234e-22 -3.41098e-22 -1.65219e-22 -3.20425e-22 1.55501e-22 0 1.46862e-22 2.85785e-22 4.17396e-22 2.71129e-22 1.32175e-22 2.57903e-22 -2.51763e-22 -2.45908e-22 1.2016e-22 -2.34979e-22 -2.2987e-22 0 0 -2.15797e-22 0 0 0.984778 0.856502 1.14921 1.15801 1.23689 1.33782 1.32541 1.43801 1.50779 1.523 1.54558 1.70277 1.69481 1.72166 1.77123 1.82353 1.88285 1.90424 1.9437 1.97413 1.94635 1.71269 1.0823 0.187678 0.00183491 1.15752e-07 1.60211e-12 1.12574e-16 2.73466e-22 -8.81169e-23 2.55823e-22 2.47829e-22 1.60213e-22 1.55501e-22 0 -2.93723e-22 -2.85785e-22 0 -1.35565e-22 -1.32175e-22 3.86855e-22 1.25881e-22 0 0 0 2.2987e-22 2.2498e-22 2.20292e-22 -2.15797e-22 0 0 0.965999 0.840169 1.1273 1.13592 1.2133 1.31231 1.30013 1.41059 1.47903 1.49396 1.51611 1.67029 1.66249 1.68883 1.73745 1.78875 1.84694 1.86793 1.90664 1.93648 1.90923 1.68003 1.06166 0.184099 0.00179992 1.13545e-07 1.57161e-12 9.60292e-17 2.73466e-22 0 -3.41098e-22 8.26096e-23 -3.20425e-22 1.55501e-22 0 2.93723e-22 4.28677e-22 -4.17396e-22 4.06694e-22 -3.96526e-22 2.57903e-22 -3.77644e-22 2.45908e-22 0 -2.34979e-22 -1.14935e-22 -1.1249e-22 0 -2.15797e-22 0 0 0.946266 0.823007 1.10427 1.11272 1.18852 1.2855 1.27357 1.38178 1.44882 1.46344 1.48514 1.63617 1.62853 1.65433 1.70196 1.75221 1.80922 1.82977 1.86769 1.89693 1.87023 1.64571 1.03998 0.180338 0.00176315 1.11226e-07 1.53949e-12 9.14332e-17 -9.11554e-23 -8.81169e-23 2.55823e-22 3.30439e-22 -4.80638e-22 7.77503e-23 7.55288e-23 0 -4.28677e-22 -1.39132e-22 -1.35565e-22 -1.32175e-22 2.57903e-22 -6.29407e-22 2.45908e-22 2.40319e-22 -2.34979e-22 1.14935e-22 -2.2498e-22 2.20292e-22 -2.15797e-22 0 0 0.925599 0.805032 1.08015 1.08842 1.16256 1.25743 1.24576 1.3516 1.41718 1.43148 1.4527 1.60044 1.59296 1.6182 1.66479 1.71394 1.7697 1.78981 1.8269 1.8555 1.82939 1.60977 1.01726 0.1764 0.00172464 1.08796e-07 1.50584e-12 1.05668e-16 2.27889e-22 2.20292e-22 2.55823e-22 -1.65219e-22 3.20425e-22 -1.55501e-22 1.51058e-22 3.67154e-22 -1.42892e-22 -1.39132e-22 -1.35565e-22 1.32175e-22 5.15807e-22 0 -1.22954e-22 2.40319e-22 1.17489e-22 -2.2987e-22 -2.2498e-22 0 0 0 0 0.904019 0.786263 1.05497 1.06304 1.13546 1.22811 1.21671 1.32009 1.38414 1.3981 1.41883 1.56313 1.55582 1.58048 1.62597 1.67398 1.72844 1.74808 1.7843 1.81224 1.78673 1.57224 0.993545 0.172287 0.00168443 1.0626e-07 1.47082e-12 7.21548e-17 -9.11554e-23 1.76234e-22 -4.26372e-22 0 1.60213e-22 7.77503e-23 0 7.34308e-23 7.14462e-23 -6.9566e-23 1.35565e-22 -2.64351e-22 -3.86855e-22 5.03526e-22 0 -3.60479e-22 0 0 -1.1249e-22 -2.20292e-22 -2.15797e-22 0 0 0.881547 0.766718 1.02874 1.03662 1.10723 1.19758 1.18647 1.28727 1.34973 1.36335 1.38357 1.52427 1.51715 1.54119 1.58556 1.63237 1.68548 1.70463 1.73995 1.76719 1.74232 1.53316 0.968847 0.168004 0.00164256 1.03619e-07 1.43421e-12 1.33823e-16 1.82311e-22 -4.40585e-23 2.55823e-22 -1.23914e-22 -4.00532e-23 0 -2.26586e-22 7.34308e-23 2.14339e-22 -5.56528e-22 3.38911e-22 1.32175e-22 0 -2.51763e-22 1.22954e-22 2.40319e-22 3.52468e-22 -1.14935e-22 3.37469e-22 3.30439e-22 -1.07898e-22 0 0 0.858205 0.746416 1.0015 1.00917 1.07791 1.16587 1.15505 1.25319 1.31399 1.32725 1.34693 1.48391 1.47698 1.50038 1.54357 1.58915 1.64085 1.65949 1.69388 1.7204 1.69619 1.49256 0.943193 0.163556 0.00159907 1.00875e-07 1.39623e-12 5.02258e-17 2.16494e-22 -1.98263e-22 2.77142e-22 -4.13048e-23 1.60213e-22 0 3.3988e-22 1.46862e-22 1.42892e-22 -2.08698e-22 2.03347e-22 6.60877e-23 4.51331e-22 6.29407e-23 -2.45908e-22 -1.2016e-22 0 -3.44806e-22 -1.1249e-22 0 -1.07898e-22 0 0 0.834016 0.725378 0.973277 0.980724 1.04753 1.13301 1.1225 1.21786 1.27696 1.28984 1.30897 1.44208 1.43535 1.45809 1.50007 1.54436 1.5946 1.61272 1.64614 1.67191 1.64838 1.45049 0.916609 0.158946 0.001554 9.80316e-08 1.35696e-12 4.83533e-17 3.70319e-23 3.30439e-23 -5.32965e-23 -4.13048e-23 2.00266e-22 -1.94376e-22 -2.64351e-22 1.83577e-22 -1.07169e-22 -1.39132e-22 -1.35565e-22 -2.64351e-22 0 1.25881e-22 1.22954e-22 -1.2016e-22 0 0 -1.1249e-22 1.10146e-22 1.07898e-22 0 0 0.809004 0.703624 0.944088 0.951312 1.01612 1.09903 1.08883 1.18134 1.23866 1.25116 1.26971 1.39884 1.3923 1.41436 1.45508 1.49804 1.54678 1.56435 1.59677 1.62176 1.59894 1.40699 0.88912 0.154179 0.00150739 9.50916e-08 1.3163e-12 8.00661e-17 2.96255e-22 -2.8638e-22 -2.39834e-23 -4.64679e-22 -8.01063e-23 -1.74938e-22 -2.64351e-22 -1.10146e-22 1.42892e-22 -3.13047e-22 -3.38911e-23 -4.62614e-22 -1.93428e-22 1.88822e-22 1.22954e-22 -1.2016e-22 0 1.14935e-22 -5.62449e-23 -1.10146e-22 2.15797e-22 0 0 0.783193 0.681175 0.913968 0.920961 0.983697 1.06397 1.05409 1.14365 1.19914 1.21124 1.2292 1.35421 1.34788 1.36924 1.40866 1.45025 1.49743 1.51444 1.54582 1.57002 1.54793 1.3621 0.860753 0.14926 0.0014593 9.20578e-08 1.2742e-12 5.90709e-17 4.55777e-22 2.42322e-22 1.4923e-22 4.13048e-22 5.50731e-23 -2.67266e-22 3.49321e-22 -3.30439e-22 1.78615e-23 2.08698e-22 -1.35565e-22 1.98263e-22 1.28952e-22 6.29407e-23 -1.22954e-22 6.00798e-23 2.93723e-22 0 2.81224e-22 -3.30439e-22 2.69746e-22 0 0 0.756609 0.658054 0.882945 0.889702 0.950308 1.02785 1.01831 1.10483 1.15844 1.17013 1.18748 1.30824 1.30213 1.32276 1.36084 1.40102 1.4466 1.46304 1.49335 1.51673 1.49539 1.31587 0.831537 0.144194 0.00140977 8.89331e-08 1.23088e-12 1.08224e-16 -2.27889e-22 -4.40585e-23 2.13186e-22 -3.71743e-22 3.60478e-22 4.85939e-23 -8.49699e-23 -2.06524e-22 7.14462e-23 6.9566e-23 3.38911e-22 -5.9479e-22 -1.6119e-22 -1.57352e-22 3.38123e-22 -3.00399e-23 0 1.14935e-22 2.2498e-22 -4.40585e-22 4.31593e-22 0 0 0.729279 0.634284 0.851052 0.857564 0.915981 0.990726 0.981531 1.06492 1.1166 1.12786 1.14458 1.26099 1.25509 1.27498 1.31169 1.35041 1.39435 1.41019 1.43941 1.46195 1.44137 1.26834 0.8015 0.138985 0.00135884 8.57207e-08 1.18649e-12 1.56781e-17 -4.55777e-23 -3.52468e-22 2.55823e-22 1.65219e-22 4.00532e-22 2.13813e-22 -1.13293e-22 -5.50731e-22 3.12577e-23 2.93482e-23 -1.18619e-22 2.97395e-22 6.44758e-22 -2.51763e-22 -7.68462e-22 1.2016e-22 -1.46862e-22 -2.58604e-22 1.1249e-22 -2.20292e-22 0 0 0 0.701229 0.609888 0.818318 0.82458 0.88075 0.95262 0.943779 1.02396 1.07365 1.08448 1.10056 1.21248 1.20682 1.22594 1.26124 1.29847 1.34072 1.35595 1.38405 1.40572 1.38593 1.21955 0.770672 0.133639 0.00130658 8.24236e-08 1.1409e-12 6.02399e-17 1.82311e-22 -1.76234e-22 -8.52745e-23 -2.47829e-22 2.40319e-22 2.33251e-22 7.55288e-23 7.34308e-23 -8.93077e-23 -3.4783e-22 4.66003e-22 6.29899e-23 1.97457e-22 3.22571e-22 1.69062e-22 3.00399e-22 -4.11213e-22 -2.01137e-22 2.81224e-23 5.50731e-23 2.69746e-22 0 0 0.672487 0.58489 0.784777 0.790782 0.84465 0.913574 0.905096 0.981994 1.02964 1.04003 1.05545 1.16279 1.15735 1.17569 1.20954 1.24525 1.28576 1.30037 1.32732 1.3481 1.32913 1.16957 0.739084 0.128162 0.00125303 7.90453e-08 1.09416e-12 1.18091e-16 0 -5.28702e-22 -4.26372e-22 -1.65219e-22 -2.40319e-22 -1.94376e-22 1.51058e-22 7.34308e-23 7.14462e-23 5.56528e-22 -3.55857e-22 1.98263e-22 2.49844e-22 4.32717e-23 1.78667e-22 -1.50199e-23 3.74497e-22 -1.72403e-22 3.09347e-22 1.37683e-22 -2.69746e-22 0 0 0.643082 0.559315 0.750461 0.756204 0.807716 0.873627 0.865519 0.939055 0.984619 0.994553 1.0093 1.11194 1.10675 1.12428 1.15665 1.1908 1.22954 1.24351 1.26928 1.28915 1.27101 1.11842 0.706766 0.122558 0.00119823 7.55889e-08 1.04617e-12 5.00204e-17 9.11554e-23 8.81169e-23 2.55823e-22 -8.26096e-23 8.01063e-23 -1.55501e-22 -1.51058e-22 -4.773e-22 -2.14339e-22 -1.04349e-22 -2.71129e-22 -2.97395e-22 -4.83569e-23 -4.40585e-22 5.22554e-22 -2.47829e-22 -3.30439e-23 7.00386e-23 2.67163e-22 4.54353e-22 2.02309e-22 0 0 0.613041 0.533187 0.715405 0.720879 0.769985 0.832817 0.825088 0.895189 0.938624 0.948094 0.962153 1.06 1.05505 1.07177 1.10262 1.13518 1.17211 1.18542 1.20999 1.22893 1.21164 1.06618 0.673751 0.116833 0.00114226 7.20579e-08 9.97384e-13 4.28492e-17 9.11554e-23 4.40585e-22 8.52745e-23 0 -1.60213e-22 0 4.53173e-22 -2.20292e-22 -2.14339e-22 6.9566e-23 -6.77823e-23 -1.98263e-22 -1.6119e-22 3.77644e-22 -2.45908e-22 -1.0514e-22 -1.02803e-22 2.58604e-22 1.61704e-22 -2.75366e-22 -2.64267e-22 0 0 0.582396 0.506534 0.679643 0.684843 0.731495 0.791185 0.783843 0.850439 0.891703 0.9007 0.914056 1.00701 1.00231 1.01819 1.0475 1.07843 1.11351 1.12617 1.1495 1.1675 1.15107 1.01288 0.640071 0.110992 0.00108516 6.84558e-08 9.47553e-13 6.95058e-17 0 0 0 -1.65219e-22 -8.01063e-23 -3.11001e-22 1.51058e-22 -2.20292e-22 -2.14339e-22 -1.39132e-22 2.03347e-22 6.60877e-23 -3.86855e-22 -5.66466e-22 -2.76646e-22 -1.2016e-22 -2.05606e-22 -2.87338e-22 2.2498e-22 1.51451e-22 -1.4836e-22 0 0 0.551176 0.479381 0.64321 0.648132 0.692282 0.748773 0.741824 0.80485 0.843903 0.852417 0.865057 0.95303 0.948578 0.963608 0.991349 1.02062 1.05382 1.0658 1.08788 1.10491 1.08936 0.958586 0.605759 0.105043 0.00102699 6.47862e-08 8.96648e-13 1.80968e-17 -3.64622e-22 0 0 0 0 0 -1.51058e-22 0 0 0 0 0 -6.44758e-23 3.14703e-22 -1.84431e-22 -1.80239e-22 -1.76234e-22 -1.72403e-22 -1.96857e-22 1.37683e-22 -2.9672e-22 0 0 0.519412 0.451754 0.606142 0.61078 0.652386 0.705622 0.699073 0.758467 0.795269 0.803293 0.815204 0.898108 0.893912 0.908076 0.934218 0.961802 0.993092 1.00438 1.02519 1.04124 1.02658 0.903343 0.57085 0.098989 0.000967805 6.10526e-08 8.45024e-13 -2.0132e-18 0 0 0 1.65219e-22 3.20425e-22 3.11001e-22 -1.51058e-22 -3.67154e-22 -2.85785e-22 -1.39132e-22 -1.35565e-22 -1.32175e-22 -3.22379e-22 -1.25881e-22 -3.07385e-22 6.00798e-23 2.93723e-22 5.74676e-23 -5.62449e-23 1.37683e-22 0 0 0 0.487136 0.423682 0.568476 0.572826 0.611847 0.661774 0.655632 0.711336 0.745851 0.753376 0.764547 0.842299 0.838364 0.851648 0.876165 0.902035 0.931381 0.941963 0.961482 0.976534 0.962791 0.847209 0.535377 0.0928377 0.000907665 5.72587e-08 7.92584e-13 4.11724e-17 3.64622e-22 -3.52468e-22 -3.41098e-22 1.65219e-22 3.20425e-22 3.11001e-22 0 -1.46862e-22 2.85785e-22 -2.78264e-22 -4.06694e-22 -3.96526e-22 -1.93428e-22 -1.88822e-22 -4.30339e-22 -2.40319e-22 3.52468e-22 2.2987e-22 -5.06204e-22 -4.95658e-22 5.39492e-23 0 0 0.454378 0.395192 0.530249 0.534306 0.570703 0.617273 0.611544 0.663502 0.695696 0.702715 0.713135 0.785659 0.781988 0.794379 0.817248 0.841378 0.86875 0.878621 0.896827 0.910867 0.898049 0.790239 0.499376 0.0865949 0.00084663 5.34084e-08 7.39227e-13 2.68769e-18 0 5.28702e-22 1.70549e-22 0 1.60213e-22 0 0 0 2.85785e-22 2.78264e-22 2.71129e-22 2.64351e-22 0 0 2.45908e-22 0 5.87447e-23 4.02273e-22 1.68735e-22 -1.65219e-22 -1.07898e-22 0 0 0.421173 0.366311 0.491499 0.49526 0.528996 0.572163 0.566853 0.615014 0.644855 0.651361 0.66102 0.728243 0.724841 0.736326 0.757524 0.77989 0.805262 0.814412 0.831288 0.844302 0.83242 0.732488 0.462882 0.0802666 0.000784758 4.95053e-08 6.85227e-13 3.56216e-17 0 -1.76234e-22 0 -3.30439e-22 -1.60213e-22 -1.55501e-22 -3.02115e-22 -1.46862e-22 0 4.17396e-22 -1.35565e-22 1.32175e-22 3.86855e-22 -1.25881e-22 0 -1.2016e-22 -1.17489e-22 1.14935e-22 1.1249e-22 -1.10146e-22 -2.15797e-22 0 0 0.387551 0.337069 0.452263 0.455724 0.486768 0.526488 0.521602 0.565919 0.593378 0.599364 0.608252 0.670109 0.666978 0.677547 0.697052 0.717633 0.74098 0.749399 0.764928 0.776903 0.76597 0.674015 0.425931 0.0738591 0.000722113 4.55534e-08 6.30482e-13 -6.00579e-19 -3.64622e-22 -1.76234e-22 0 4.95658e-22 4.80638e-22 0 -3.02115e-22 -1.46862e-22 -1.42892e-22 4.17396e-22 -2.71129e-22 -1.32175e-22 -1.28952e-22 -2.51763e-22 0 0 0 2.2987e-22 2.2498e-22 -2.20292e-22 -3.23695e-22 0 0 0.353548 0.307495 0.412582 0.415739 0.444059 0.480294 0.475837 0.516265 0.541314 0.546776 0.554884 0.611314 0.608457 0.618099 0.635893 0.654668 0.675966 0.683647 0.697813 0.708737 0.698763 0.614877 0.388559 0.0673787 0.000658754 4.15566e-08 5.75217e-13 1.01837e-17 1.82311e-22 5.28702e-22 1.70549e-22 -3.30439e-22 -3.20425e-22 3.11001e-22 -4.53173e-22 -5.87446e-22 -2.85785e-22 -1.39132e-22 2.71129e-22 3.96526e-22 -2.57903e-22 2.51763e-22 -1.22954e-22 3.60479e-22 -2.34979e-22 -2.2987e-22 2.2498e-22 2.20292e-22 -4.31593e-22 0 0 0.319195 0.277617 0.372493 0.375343 0.400911 0.433626 0.429602 0.466102 0.488717 0.493648 0.500968 0.551915 0.549336 0.558041 0.574106 0.591057 0.610285 0.61722 0.630009 0.639872 0.630867 0.555132 0.350805 0.0608318 0.000594746 3.75187e-08 5.19322e-13 9.234e-18 1.82311e-22 -5.28702e-22 3.41098e-22 3.30439e-22 -4.80638e-22 1.55501e-22 3.02115e-22 2.93723e-22 2.85785e-22 1.39132e-22 -2.71129e-22 2.64351e-22 0 0 2.45908e-22 2.40319e-22 2.34979e-22 -3.44806e-22 1.1249e-22 2.20292e-22 0 0 0 0.284527 0.247465 0.332036 0.334577 0.357368 0.38653 0.382943 0.415478 0.435638 0.440033 0.446558 0.491971 0.489673 0.497432 0.511752 0.526862 0.544002 0.550184 0.561584 0.570376 0.562349 0.494839 0.312704 0.0542248 0.000530151 3.34438e-08 4.62885e-13 2.30704e-17 3.64622e-22 5.28702e-22 -3.41098e-22 -1.65219e-22 -1.60213e-22 -3.11001e-22 1.51058e-22 -1.46862e-22 -2.85785e-22 -1.39132e-22 -1.35565e-22 -1.32175e-22 -2.57903e-22 -1.25881e-22 -2.45908e-22 -2.40319e-22 0 -1.14935e-22 2.2498e-22 -1.10146e-22 1.07898e-22 0 0 0.249579 0.217069 0.291252 0.293481 0.313473 0.339052 0.335906 0.364445 0.382128 0.385984 0.391707 0.431542 0.429526 0.436332 0.448893 0.462147 0.477182 0.482604 0.492605 0.500316 0.493275 0.434058 0.274294 0.0475644 0.000465032 2.93359e-08 4.06044e-13 1.16964e-18 -3.64622e-22 0 0 1.65219e-22 1.60213e-22 6.22002e-22 -1.51058e-22 -2.93723e-22 1.42892e-22 0 -1.35565e-22 1.32175e-22 0 1.25881e-22 1.22954e-22 -1.2016e-22 -1.17489e-22 -1.14935e-22 0 -1.10146e-22 -1.07898e-22 0 0 0.214384 0.186458 0.250181 0.252095 0.269268 0.29124 0.288537 0.313052 0.328242 0.331553 0.33647 0.370688 0.368956 0.374802 0.385592 0.396977 0.409892 0.