<?xml version="1.0"?>
<VTKFile type="PolyData">
	<PolyData>
		<Piece NumberOfPoints="2601" NumberOfPolys="2500">
			<Points>
				<DataArray type="Float32" NumberOfComponents="3" format="ascii">
 1e-06 0 0 0.242114 0 0 0.273849 0 0 0.305816 0 0 0.329984 0 0 0.350762 0 0 0.367945 0 0 0.382768 0 0 0.396759 0 0 0.409146 0 0 0.420346 0 0 0.430505 0 0 0.439837 0 0 0.448201 0 0 0.456268 0 0 0.463443 0 0 0.469968 0 0 0.475719 0 0 0.481326 0 0 0.486577 0 0 0.49139 0 0 0.495907 0 0 0.500061 0 0 0.503885 0 0 0.507893 0 0 0.513562 0 0 0.523514 0 0 0.540192 0 0 0.560001 0 0 0.580001 0 0 0.600001 0 0 0.620001 0 0 0.640001 0 0 0.660001 0 0 0.680001 0 0 0.700001 0 0 0.720001 0 0 0.740001 0 0 0.760001 0 0 0.780001 0 0 0.800001 0 0 0.820001 0 0 0.840001 0 0 0.860001 0 0 0.880001 0 0 0.900001 0 0 0.920001 0 0 0.940001 0 0 0.960001 0 0 0.980001 0 0 1 0 0 9.99507e-07 3.14108e-08 0 0.241994 0.00760498 0 0.273714 0.0086018 0 0.305665 0.00960591 0 0.329821 0.0103651 0 0.350589 0.0110177 0 0.367764 0.0115574 0 0.382579 0.012023 0 0.396563 0.0124625 0 0.408944 0.0128516 0 0.420139 0.0132034 0 0.430292 0.0135225 0 0.43962 0.0138156 0 0.44798 0.0140783 0 0.456043 0.0143317 0 0.463214 0.0145571 0 0.469736 0.014762 0 0.475484 0.0149427 0 0.481088 0.0151188 0 0.486337 0.0152837 0 0.491148 0.0154349 0 0.495662 0.0155768 0 0.499814 0.0157073 0 0.503636 0.0158274 0 0.507643 0.0159533 0 0.513308 0.0161314 0 0.523255 0.016444 0 0.539926 0.0169679 0 0.559725 0.0175901 0 0.579715 0.0182183 0 0.599705 0.0188465 0 0.619695 0.0194747 0 0.639685 0.0201029 0 0.659675 0.0207311 0 0.679665 0.0213593 0 0.699656 0.0219876 0 0.719646 0.0226158 0 0.739636 0.023244 0 0.759626 0.0238722 0 0.779616 0.0245004 0 0.799606 0.0251286 0 0.819596 0.0257569 0 0.839587 0.0263851 0 0.859577 0.0270133 0 0.879567 0.0276415 0 0.899557 0.0282697 0 0.919547 0.0288979 0 0.939537 0.0295261 0 0.959527 0.0301544 0 0.979517 0.0307826 0 0.999508 0.0314108 0 9.98027e-07 6.27905e-08 0 0.241636 0.0152025 0 0.273308 0.0171951 0 0.305212 0.0192023 0 0.329333 0.0207199 0 0.35007 0.0220245 0 0.367219 0.0231035 0 0.382013 0.0240342 0 0.395976 0.0249127 0 0.408338 0.0256905 0 0.419517 0.0263938 0 0.429655 0.0270316 0 0.43897 0.0276176 0 0.447317 0.0281428 0 0.455368 0.0286493 0 0.462528 0.0290998 0 0.46904 0.0295095 0 0.47478 0.0298706 0 0.480376 0.0302227 0 0.485616 0.0305524 0 0.49042 0.0308546 0 0.494928 0.0311382 0 0.499074 0.0313991 0 0.50289 0.0316392 0 0.506891 0.0318909 0 0.512548 0.0322468 0 0.522481 0.0328717 0 0.539126 0.033919 0 0.558896 0.0351628 0 0.578857 0.0364186 0 0.598817 0.0376744 0 0.618778 0.0389302 0 0.638738 0.040186 0 0.658699 0.0414418 0 0.678659 0.0426976 0 0.69862 0.0439534 0 0.71858 0.0452092 0 0.738541 0.046465 0 0.758501 0.0477209 0 0.778462 0.0489767 0 0.798422 0.0502325 0 0.818383 0.0514883 0 0.838343 0.0527441 0 0.858304 0.0539999 0 0.878265 0.0552557 0 0.898225 0.0565115 0 0.918186 0.0577673 0 0.938146 0.0590232 0 0.958107 0.060279 0 0.978067 0.0615348 0 0.998028 0.0627906 0 9.95562e-07 9.41083e-08 0 0.241039 0.0227849 0 0.272633 0.0257714 0 0.304459 0.0287798 0 0.32852 0.0310542 0 0.349206 0.0330096 0 0.366312 0.0346267 0 0.381069 0.0360217 0 0.394998 0.0373383 0 0.40733 0.038504 0 0.418481 0.0395581 0 0.428594 0.0405141 0 0.437885 0.0413924 0 0.446212 0.0421795 0 0.454243 0.0429386 0 0.461386 0.0436138 0 0.467882 0.0442279 0 0.473608 0.0447691 0 0.479189 0.0452967 0 0.484417 0.0457909 0 0.489209 0.0462439 0 0.493706 0.0466689 0 0.497842 0.0470599 0 0.501648 0.0474197 0 0.505639 0.047797 0 0.511282 0.0483304 0 0.52119 0.049267 0 0.537795 0.0508366 0 0.557516 0.0527008 0 0.577427 0.0545829 0 0.597338 0.0564651 0 0.617249 0.0583472 0 0.637161 0.0602294 0 0.657072 0.0621116 0 0.676983 0.0639937 0 0.696894 0.0658759 0 0.716806 0.0677581 0 0.736717 0.0696402 0 0.756628 0.0715224 0 0.776539 0.0734046 0 0.796451 0.0752867 0 0.816362 0.0771689 0 0.836273 0.0790511 0 0.856184 0.0809332 0 0.876096 0.0828154 0 0.896007 0.0846976 0 0.915918 0.0865797 0 0.935829 0.0884619 0 0.95574 0.0903441 0 0.975652 0.0922262 0 0.995563 0.0941084 0 9.92115e-07 1.25333e-07 0 0.240205 0.0303449 0 0.271689 0.0343224 0 0.303404 0.0383289 0 0.327382 0.041358 0 0.347996 0.0439622 0 0.365044 0.0461158 0 0.37975 0.0479736 0 0.39363 0.049727 0 0.405919 0.0512796 0 0.417032 0.0526833 0 0.42711 0.0539565 0 0.436369 0.0551262 0 0.444667 0.0561745 0 0.452671 0.0571856 0 0.459788 0.0580848 0 0.466262 0.0589026 0 0.471968 0.0596234 0 0.47753 0.0603261 0 0.48274 0.0609842 0 0.487515 0.0615875 0 0.491996 0.0621536 0 0.496118 0.0626743 0 0.499911 0.0631535 0 0.503888 0.0636559 0 0.509512 0.0643663 0 0.519386 0.0656137 0 0.535933 0.0677041 0 0.555586 0.0701868 0 0.575428 0.0726934 0 0.59527 0.0752001 0 0.615112 0.0777067 0 0.634954 0.0802134 0 0.654797 0.0827201 0 0.674639 0.0852267 0 0.694481 0.0877334 0 0.714324 0.0902401 0 0.734166 0.0927467 0 0.754008 0.0952534 0 0.77385 0.09776 0 0.793693 0.100267 0 0.813535 0.102773 0 0.833377 0.10528 0 0.85322 0.107787 0 0.873062 0.110293 0 0.892904 0.1128 0 0.912747 0.115307 0 0.932589 0.117813 0 0.952431 0.12032 0 0.972273 0.122827 0 0.992116 0.125333 0 9.87688e-07 1.56434e-07 0 0.239133 0.0378749 0 0.270477 0.0428394 0 0.302051 0.0478401 0 0.325921 0.0516209 0 0.346444 0.0548713 0 0.363415 0.0575593 0 0.378056 0.0598781 0 0.391874 0.0620667 0 0.404108 0.0640045 0 0.415171 0.0657566 0 0.425204 0.0673458 0 0.434422 0.0688057 0 0.442683 0.0701141 0 0.450651 0.0713761 0 0.457737 0.0724984 0 0.464182 0.0735192 0 0.469862 0.0744188 0 0.4754 0.0752959 0 0.480586 0.0761174 0 0.48534 0.0768703 0 0.489801 0.0775769 0 0.493905 0.0782268 0 0.497681 0.0788249 0 0.50164 0.079452 0 0.507239 0.0803387 0 0.517068 0.0818956 0 0.533542 0.0845047 0 0.553107 0.0876035 0 0.57286 0.0907321 0 0.592614 0.0938608 0 0.612368 0.0969895 0 0.632122 0.100118 0 0.651875 0.103247 0 0.671629 0.106376 0 0.691383 0.109504 0 0.711137 0.112633 0 0.73089 0.115762 0 0.750644 0.11889 0 0.770398 0.122019 0 0.790152 0.125148 0 0.809905 0.128276 0 0.829659 0.131405 0 0.849413 0.134534 0 0.869167 0.137662 0 0.88892 0.140791 0 0.908674 0.14392 0 0.928428 0.147049 0 0.948182 0.150177 0 0.967936 0.153306 0 0.987689 0.156435 0 9.82287e-07 1.87381e-07 0 0.237825 0.0453676 0 0.268998 0.0513141 0 0.300399 0.0573042 0 0.324139 0.0618329 0 0.344549 0.0657263 0 0.361428 0.0689461 0 0.375988 0.0717236 0 0.389731 0.0743452 0 0.401899 0.0766663 0 0.412901 0.078765 0 0.422879 0.0806685 0 0.432047 0.0824173 0 0.440262 0.0839845 0 0.448187 0.0854962 0 0.455234 0.0868405 0 0.461643 0.0880632 0 0.467292 0.0891408 0 0.4728 0.0901914 0 0.477958 0.0911754 0 0.482686 0.0920773 0 0.487123 0.0929236 0 0.491204 0.0937021 0 0.494959 0.0944185 0 0.498897 0.0951697 0 0.504465 0.0962319 0 0.514241 0.0980967 0 0.530624 0.101222 0 0.550082 0.104934 0 0.569728 0.108681 0 0.589373 0.112429 0 0.609019 0.116177 0 0.628665 0.119924 0 0.648311 0.123672 0 0.667956 0.127419 0 0.687602 0.131167 0 0.707248 0.134915 0 0.726894 0.138662 0 0.746539 0.14241 0 0.766185 0.146158 0 0.785831 0.149905 0 0.805477 0.153653 0 0.825122 0.1574 0 0.844768 0.161148 0 0.864414 0.164896 0 0.88406 0.168643 0 0.903705 0.172391 0 0.923351 0.176139 0 0.942997 0.179886 0 0.962642 0.183634 0 0.982288 0.187382 0 9.75917e-07 2.18143e-07 0 0.236283 0.0528155 0 0.267254 0.0597383 0 0.298451 0.0667117 0 0.322037 0.0719838 0 0.342315 0.0765164 0 0.359084 0.0802648 0 0.37355 0.0834983 0 0.387203 0.0865502 0 0.399292 0.0892524 0 0.410223 0.0916957 0 0.420137 0.0939117 0 0.429245 0.0959476 0 0.437407 0.0977721 0 0.44528 0.0995319 0 0.452281 0.101097 0 0.458649 0.10252 0 0.464262 0.103775 0 0.469734 0.104998 0 0.474858 0.106143 0 0.479556 0.107193 0 0.483964 0.108179 0 0.488018 0.109085 0 0.491749 0.109919 0 0.495662 0.110794 0 0.501193 0.11203 0 0.510906 0.114201 0 0.527183 0.117839 0 0.546515 0.122161 0 0.566033 0.126523 0 0.585551 0.130886 0 0.605069 0.135249 0 0.624588 0.139612 0 0.644106 0.143975 0 0.663624 0.148338 0 0.683143 0.1527 0 0.702661 0.157063 0 0.722179 0.161426 0 0.741698 0.165789 0 0.761216 0.170152 0 0.780734 0.174515 0 0.800253 0.178878 0 0.819771 0.183241 0 0.839289 0.187603 0 0.858808 0.191966 0 0.878326 0.196329 0 0.897844 0.200692 0 0.917363 0.205055 0 0.936881 0.209418 0 0.956399 0.213781 0 0.975918 0.218143 0 9.68583e-07 2.4869e-07 0 0.234507 0.0602113 0 0.265245 0.0681034 0 0.296208 0.0760533 0 0.319617 0.0820637 0 0.339742 0.087231 0 0.356386 0.0915043 0 0.370743 0.0951905 0 0.384294 0.0986699 0 0.396292 0.10175 0 0.40714 0.104536 0 0.41698 0.107062 0 0.426019 0.109383 0 0.43412 0.111463 0 0.441934 0.113469 0 0.448883 0.115253 0 0.455203 0.116876 0 0.460773 0.118306 0 0.466204 0.119701 0 0.47129 0.121007 0 0.475952 0.122204 0 0.480327 0.123327 0 0.484351 0.12436 0 0.488054 0.125311 0 0.491937 0.126308 0 0.497427 0.127718 0 0.507067 0.130193 0 0.523221 0.13434 0 0.542408 0.139267 0 0.561779 0.14424 0 0.581151 0.149214 0 0.600523 0.154188 0 0.619894 0.159162 0 0.639266 0.164136 0 0.658638 0.169109 0 0.678009 0.174083 0 0.697381 0.179057 0 0.716753 0.184031 0 0.736124 0.189005 0 0.755496 0.193978 0 0.774867 0.198952 0 0.794239 0.203926 0 0.813611 0.2089 0 0.832982 0.213874 0 0.852354 0.218847 0 0.871726 0.223821 0 0.891097 0.228795 0 0.910469 0.233769 0 0.929841 0.238743 0 0.949212 0.243716 0 0.968584 0.24869 0 9.60294e-07 2.78991e-07 0 0.2325 0.0675476 0 0.262975 0.0764014 0 0.293673 0.0853199 0 0.316882 0.0920626 0 0.336835 0.0978595 0 0.353336 0.102653 0 0.36757 0.106789 0 0.381005 0.110692 0 0.3929 0.114148 0 0.403656 0.117273 0 0.413411 0.120107 0 0.422373 0.122711 0 0.430405 0.125044 0 0.438152 0.127295 0 0.445041 0.129296 0 0.451307 0.131117 0 0.45683 0.132721 0 0.462214 0.134286 0 0.467256 0.135751 0 0.471879 0.137093 0 0.476216 0.138354 0 0.480206 0.139513 0 0.483877 0.140579 0 0.487727 0.141698 0 0.49317 0.143279 0 0.502727 0.146056 0 0.518743 0.150709 0 0.537766 0.156235 0 0.556971 0.161815 0 0.576177 0.167395 0 0.595383 0.172975 0 0.614589 0.178555 0 0.633795 0.184134 0 0.653001 0.189714 0 0.672207 0.195294 0 0.691412 0.200874 0 0.710618
[...]
			<PointData Scalars="VitesseX">
				<DataArray Name="VitesseX" type="Float32" format="ascii">
 0 0.792576 0.915084 1.02782 1.1596 1.22894 1.35608 1.37562 1.46799 1.53066 1.53688 1.56942 1.66848 1.70259 1.68568 1.76826 1.84095 1.87347 1.89832 1.91494 1.96075 2.00116 2.02753 2.07022 1.97156 1.62353 0.865826 0.0997326 0.000473618 1.55126e-08 2.81391e-13 1.09095e-22 0 0 0 0 0 0 0 0 0 0 0 0 0 0 0 0 0 0 0 0 0.792185 0.914632 1.02732 1.15903 1.22833 1.35542 1.37494 1.46726 1.52991 1.53613 1.56865 1.66766 1.70175 1.68485 1.76739 1.84004 1.87255 1.89738 1.91399 1.95978 2.00017 2.02653 2.0692 1.97059 1.62273 0.865399 0.0996834 0.000473385 1.55049e-08 2.81248e-13 1.08437e-22 0 0 3.89046e-22 0 -3.67433e-22 0 0 0 3.3069e-22 3.22624e-22 -3.14942e-22 -3.07618e-22 0 0 2.87556e-22 -2.81438e-22 0 5.39901e-22 0 0 0.791012 0.913278 1.0258 1.15732 1.22651 1.35341 1.3729 1.46509 1.52764 1.53385 1.56633 1.66519 1.69923 1.68236 1.76477 1.83731 1.86978 1.89457 1.91116 1.95688 1.99721 2.02353 2.06614 1.96767 1.62033 0.864117 0.0995358 0.000472684 1.54819e-08 2.80817e-13 1.05815e-22 0 0 0 -3.77931e-22 0 0 0 0 0 0 -3.14942e-22 0 0 0 2.87556e-22 -5.62876e-22 0 0 0 0 0.789059 0.911023 1.02326 1.15446 1.22348 1.35007 1.36951 1.46147 1.52387 1.53006 1.56246 1.66108 1.69503 1.6782 1.76041 1.83278 1.86516 1.88989 1.90644 1.95205 1.99228 2.01853 2.06103 1.96281 1.61633 0.861983 0.09929 0.000471516 1.54437e-08 2.80103e-13 1.07124e-22 0 0 3.89046e-22 0 3.67433e-22 0 0 0 0 0 0 0 0 5.87893e-22 2.87556e-22 -2.81438e-22 0 0 0 0 0.786326 0.907868 1.01972 1.15046 1.21925 1.34539 1.36477 1.45641 1.51859 1.52477 1.55705 1.65532 1.68916 1.67239 1.75432 1.82643 1.8587 1.88335 1.89984 1.94529 1.98538 2.01154 2.0539 1.95602 1.61073 0.858999 0.0989462 0.000469884 1.53902e-08 2.79133e-13 1.08437e-22 0 0 0 0 0 0 3.48094e-22 0 0 0 0 0 -3.00627e-22 2.93946e-22 -5.75112e-22 0 -2.75575e-22 -2.69951e-22 0 0 0.782818 0.903818 1.01517 1.14533 1.21381 1.33939 1.35868 1.44991 1.51182 1.51796 1.5501 1.64794 1.68162 1.66493 1.74649 1.81828 1.85041 1.87494 1.89136 1.93661 1.97652 2.00257 2.04473 1.94729 1.60355 0.855166 0.0985048 0.000467787 1.53216e-08 2.77842e-13 1.07783e-22 0 4.00836e-22 -3.89046e-22 -3.77931e-22 0 -3.57502e-22 -3.48094e-22 0 3.3069e-22 0 -3.14942e-22 0 0 2.93946e-22 0 5.62876e-22 -2.75575e-22 0 0 0 0.778537 0.898875 1.00962 1.13906 1.20717 1.33206 1.35125 1.44198 1.50355 1.50966 1.54162 1.63893 1.67243 1.65583 1.73694 1.80834 1.84029 1.86469 1.88102 1.92602 1.96571 1.99161 2.03355 1.93664 1.59478 0.85049 0.0979661 0.000465229 1.52378e-08 2.76342e-13 -3.17603e-22 0 0 3.89046e-22 0 0 0 3.48094e-22 0 0 0 3.14942e-22 0 -3.00627e-22 -2.93946e-22 0 5.62876e-22 -2.75575e-22 2.69951e-22 0 0 0.773488 0.893046 1.00307 1.13168 1.19934 1.32343 1.34249 1.43263 1.4938 1.49987 1.53163 1.6283 1.66158 1.64509 1.72568 1.79661 1.82835 1.8526 1.86882 1.91353 1.95296 1.9787 2.02036 1.92408 1.58443 0.844974 0.0973307 0.000462212 1.5139e-08 2.74581e-13 1.04497e-22 0 -4.00836e-22 0 -3.77931e-22 0 0 0 -3.39169e-22 0 0 -3.14942e-22 3.07618e-22 0 -2.93946e-22 -2.87556e-22 -2.81438e-22 0 0 0 0 0.767676 0.886335 0.995533 1.12317 1.19033 1.31348 1.3324 1.42187 1.48257 1.4886 1.52012 1.61606 1.6491 1.63272 1.71271 1.78311 1.81462 1.83868 1.85477 1.89915 1.93829 1.96383 2.00518 1.90962 1.57253 0.838624 0.0965993 0.000458739 1.50252e-08 2.72494e-13 1.05807e-22 2.06681e-22 0 0 0 0 3.57502e-22 0 0 0 0 0 3.07618e-22 6.01254e-22 -2.93946e-22 0 0 0 2.69951e-22 0 0 0.761106 0.878749 0.987013 1.11356 1.18014 1.30224 1.321 1.4097 1.46989 1.47586 1.50711 1.60223 1.63498 1.61875 1.69805 1.76785 1.79908 1.82294 1.8389 1.8829 1.9217 1.94702 1.98802 1.89328 1.55907 0.831447 0.0957726 0.000454813 1.48966e-08 2.70144e-13 -1.10494e-22 2.06681e-22 0 -3.89046e-22 0 0 3.57502e-22 -3.48094e-22 0 0 0 -6.29885e-22 -6.15236e-22 6.01254e-22 2.93946e-22 2.87556e-22 0 0 2.69951e-22 0 0 0.753785 0.870297 0.977518 1.10285 1.16879 1.28971 1.30829 1.39614 1.45575 1.46166 1.49261 1.58682 1.61925 1.60318 1.68172 1.75084 1.78178 1.80541 1.82121 1.86479 1.90322 1.92829 1.9689 1.87507 1.54407 0.823449 0.0948514 0.000450438 1.47533e-08 2.67562e-13 -3.19906e-22 2.06681e-22 -2.00418e-22 0 0 0 0 0 3.39169e-22 -3.3069e-22 6.45248e-22 3.14942e-22 0 0 0 -2.87556e-22 -2.81438e-22 -2.75575e-22 2.69951e-22 0 0 0.74572 0.860985 0.96706 1.09105 1.15628 1.27591 1.29429 1.3812 1.44017 1.44603 1.47664 1.56984 1.60193 1.58603 1.66372 1.73211 1.76272 1.78609 1.80173 1.84483 1.88285 1.90766 1.94783 1.85501 1.52755 0.814639 0.0938365 0.000445618 1.45955e-08 2.64689e-13 -1.11153e-22 2.06681e-22 0 1.94523e-22 0 0 -3.57502e-22 3.48094e-22 3.39169e-22 -3.3069e-22 -3.22624e-22 -3.14942e-22 0 -3.00627e-22 2.93946e-22 2.87556e-22 -2.81438e-22 -2.75575e-22 5.39901e-22 0 0 0.736919 0.850824 0.955646 1.07817 1.14264 1.26086 1.27902 1.3649 1.42317 1.42896 1.45921 1.55131 1.58302 1.56731 1.64409 1.71167 1.74191 1.76501 1.78046 1.82306 1.86063 1.88515 1.92484 1.83311 1.50952 0.805025 0.0927291 0.000440359 1.44232e-08 2.61548e-13 1.00555e-22 0 0 -3.89046e-22 -1.88965e-22 -1.83716e-22 -1.78751e-22 3.48094e-22 -3.39169e-22 0 -3.22624e-22 0 3.07618e-22 -3.00627e-22 -2.93946e-22 -2.87556e-22 -2.81438e-22 -2.75575e-22 0 0 0 0.72739 0.839823 0.94329 1.06423 1.12786 1.24455 1.26248 1.34725 1.40477 1.41048 1.44034 1.53126 1.56256 1.54704 1.62283 1.68954 1.71939 1.74219 1.75744 1.79949 1.83657 1.86077 1.89995 1.80941 1.49001 0.794616 0.0915301 0.000434665 1.42367e-08 2.58135e-13 -1.09844e-22 -4.13362e-22 -4.00836e-22 0 3.77931e-22 1.83716e-22 -1.78751e-22 0 3.39169e-22 3.3069e-22 0 0 0 0 5.87893e-22 0 2.81438e-22 0 -2.69951e-22 0 0 0.717144 0.827993 0.930003 1.04924 1.11198 1.22702 1.2447 1.32827 1.38499 1.39062 1.42006 1.50969 1.54055 1.52525 1.59997 1.66574 1.69517 1.71765 1.73269 1.77414 1.8107 1.83456 1.87319 1.78392 1.46902 0.783423 0.0902408 0.000428543 1.40362e-08 2.54445e-13 -1.105e-22 4.13362e-22 -2.00418e-22 -1.94523e-22 1.88965e-22 1.83716e-22 1.78751e-22 -1.74047e-22 -1.69584e-22 0 0 3.14942e-22 0 0 0 -2.87556e-22 0 2.75575e-22 -2.69951e-22 0 0 0.706191 0.815346 0.915798 1.03321 1.09499 1.20828 1.22568 1.30799 1.36383 1.36937 1.39837 1.48663 1.51701 1.50195 1.57553 1.64029 1.66928 1.69141 1.70622 1.74704 1.78305 1.80654 1.84458 1.75668 1.44658 0.771456 0.0888624 0.000421997 1.38218e-08 2.50632e-13 -1.1116e-22 2.06681e-22 2.00418e-22 0 -5.66896e-22 0 0 0 0 -3.3069e-22 -1.61312e-22 0 3.07618e-22 0 0 2.87556e-22 0 2.75575e-22 2.69951e-22 0 0 0.69454 0.801894 0.900689 1.01617 1.07693 1.18835 1.20546 1.28641 1.34133 1.34678 1.3753 1.4621 1.49199 1.47718 1.54954 1.61323 1.64174 1.66351 1.67807 1.71822 1.75363 1.77674 1.81415 1.72769 1.42271 0.758729 0.0873964 0.000415035 1.35938e-08 2.4645e-13 -3.29432e-22 -2.06681e-22 -4.00836e-22 1.94523e-22 0 1.83716e-22 3.57502e-22 5.22141e-22 3.39169e-22 1.65345e-22 3.22624e-22 -3.14942e-22 -3.07618e-22 1.50313e-22 -2.93946e-22 -2.87556e-22 0 0 -2.69951e-22 0 0 0.682204 0.787651 0.884691 0.99812 1.0578 1.16724 1.18405 1.26356 1.31751 1.32286 1.35087 1.43613 1.46549 1.45094 1.52202 1.58458 1.61258 1.63396 1.64827 1.6877 1.72248 1.74518 1.78193 1.69701 1.39744 0.745253 0.0858441 0.000407663 1.33523e-08 2.42082e-13 4.1039e-22 3.10021e-22 2.00418e-22 1.94523e-22 0 -3.67433e-22 -3.57502e-22 0 -1.69584e-22 -1.65345e-22 4.83936e-22 1.57471e-22 0 0 0 2.87556e-22 2.81438e-22 2.75575e-22 -2.69951e-22 0 0 0.669194 0.772631 0.86782 0.979086 1.03763 1.14498 1.16147 1.23946 1.29238 1.29763 1.32511 1.40874 1.43754 1.42327 1.49299 1.55436 1.58183 1.6028 1.61683 1.65552 1.68963 1.7119 1.74794 1.66465 1.37079 0.731041 0.084207 0.000399889 1.30977e-08 2.37368e-13 -3.3518e-22 1.0334e-22 -4.00836e-22 1.94523e-22 0 3.67433e-22 5.36253e-22 -5.22141e-22 5.08753e-22 -4.96034e-22 3.22624e-22 -4.72414e-22 3.07618e-22 0 -2.93946e-22 -1.43778e-22 -1.40719e-22 0 -2.69951e-22 0 0 0.655524 0.756848 0.850093 0.959086 1.01643 1.12159 1.13775 1.21414 1.26598 1.27113 1.29804 1.37997 1.40818 1.3942 1.46249 1.52261 1.54951 1.57006 1.58381 1.6217 1.65512 1.67693 1.71224 1.63064 1.34279 0.716108 0.0824869 0.00039172 1.28301e-08 2.32544e-13 4.09402e-22 4.13362e-22 -6.01254e-22 9.72616e-23 9.44827e-23 0 -5.36253e-22 -1.74047e-22 -1.69584e-22 -1.65345e-22 3.22624e-22 -7.87356e-22 3.07618e-22 3.00627e-22 -2.93946e-22 1.43778e-22 -2.81438e-22 2.75575e-22 -2.69951e-22 0 0 0.641208 0.740318 0.831527 0.938139 0.994232 1.0971 1.1129 1.18763 1.23833 1.24337 1.26969 1.34983 1.37742 1.36375 1.43055 1.48936 1.51567 1.53577 1.54922 1.58628 1.61897 1.6403 1.67484 1.59503 1.31347 0.700468 0.0806854 0.000383165 1.25499e-08 2.27503e-13 4.06117e-22 -2.06681e-22 4.00836e-22 -1.94523e-22 1.88965e-22 4.59291e-22 -1.78751e-22 -1.74047e-22 -1.69584e-22 1.65345e-22 6.45248e-22 0 -1.53809e-22 3.00627e-22 1.46973e-22 -2.87556e-22 -2.81438e-22 0 0 0 0 0.626258 0.723058 0.81214 0.916267 0.971052 1.07152 1.08695 1.15994 1.20946 1.21438 1.24009 1.31836 1.34531 1.33195 1.3972 1.45463 1.48033 1.49996 1.5131 1.5493 1.58123 1.60206 1.63579 1.55784 1.28284 0.684137 0.0788042 0.000374232 1.22573e-08 2.22279e-13 -4.46785e-22 0 2.00418e-22 9.72616e-23 0 9.18582e-23 8.93756e-23 -8.70236e-23 1.69584e-22 -3.3069e-22 -4.83936e-22 6.29885e-22 0 -4.5094e-22 0 0 -1.40719e-22 -2.75575e-22 -2.69951e-22 0 0 0.61069 0.705084 0.791952 0.89349 0.946914 1.04488 1.05993 1.1311 1.1794 1.18419 1.20926 1.28559 1.31186 1.29884 1.36247 1.41847 1.44354 1.46268 1.47548 1.51079 1.54192 1.56224 1.59513 1.51912 1.25095 0.66713 0.0768453 0.000364929 1.19526e-08 2.16639e-13 4.02173e-22 -1.55011e-22 -5.01045e-23 0 -2.83448e-22 9.18582e-23 2.68127e-22 -6.96189e-22 4.23961e-22 1.65345e-22 0 -3.14942e-22 1.53809e-22 3.00627e-22 4.4092e-22 -1.43778e-22 4.22157e-22 4.13362e-22 -1.34975e-22 0 0 0.59452 0.686415 0.770982 0.869832 0.921841 1.01721 1.03187 1.10115 1.14817 1.15283 1.17724 1.25155 1.27713 1.26445 1.32639 1.38091 1.40531 1.42395 1.43641 1.47078 1.50109 1.52087 1.5529 1.47889 1.21783 0.649466 0.0748106 0.000355266 1.16361e-08 2.10909e-13 4.2921e-22 -5.16702e-23 2.00418e-22 0 4.25172e-22 1.83716e-22 1.78751e-22 -2.61071e-22 2.54377e-22 8.26724e-23 5.64592e-22 7.87356e-23 -3.07618e-22 -1.50313e-22 0 -4.31334e-22 -1.40719e-22 0 -1.34975e-22 0 0 0.577763 0.667067 0.749251 0.845315 0.895858 0.988543 1.00278 1.07012 1.11581 1.12034 1.14406 1.21627 1.24113 1.22881 1.28901 1.34199 1.3657 1.38381 1.39593 1.42933 1.45878 1.478 1.50913 1.43721 1.18351 0.63116 0.072702 0.000345253 1.13082e-08 2.05042e-13 1.0307e-23 -5.16702e-23 2.50522e-22 -2.43154e-22 -3.3069e-22 2.29646e-22 -1.34063e-22 -1.74047e-22 -1.69584e-22 -3.3069e-22 0 1.57471e-22 1.53809e-22 -1.50313e-22 0 0 -1.40719e-22 1.37787e-22 1.34975e-22 0 0 0.560436 0.647062 0.726781 0.819964 0.868991 0.958897 0.972709 1.03802 1.08234 1.08674 1.10975 1.17979 1.20391 1.19196 1.25035 1.30175 1.32475 1.34231 1.35406 1.38646 1.41503 1.43368 1.46387 1.39411 1.14801 0.612231 0.0705216 0.000334899 1.0969e-08 1.98863e-13 4.90953e-23 -5.8129e-22 -1.00209e-22 -2.18839e-22 -3.3069e-22 -1.37787e-22 1.78751e-22 -3.91606e-22 -4.23961e-23 -5.78707e-22 -2.41968e-22 2.36207e-22 1.53809e-22 -1.50313e-22 0 1.43778e-22 -7.03595e-23 -1.37787e-22 2.69951e-22 0 0 0.542556 0.626418 0.703594 0.793804 0.841267 0.928304 0.941675 1.00491 1.04781 1.05207 1.07434 1.14215 1.1655 1.15393 1.21046 1.26021 1.28248 1.29949 1.31086 1.34223 1.36989 1.38794 1.41716 1.34963 1.11139 0.592699 0.0682717 0.000324214 1.06191e-08 1.92473e-13 2.60205e-22 5.16702e-22 6.88936e-23 -3.34337e-22 4.36983e-22 -4.13362e-22 2.23439e-23 2.61071e-22 -1.69584e-22 2.48017e-22 1.61312e-22 7.87356e-23 -1.53809e-22 7.51567e-23 3.67433e-22 0 3.51797e-22 -4.13362e-22 3.37438e-22 0 0 0.52414 0.605156 0.679712 0.76686 0.812712 0.896795 0.909713 0.970797 1.01225 1.01636 1.03788 1.10339 1.12594 1.11476 1.16937 1.21744 1.23895 1.25538 1.26637 1.29667 1.32339 1.34083 1.36906 1.30382 1.07366 0.572581 0.0659544 0.000313209 1.02586e-08 1.85988e-13 3.38812e-22 -4.65032e-22 4.5094e-22 6.07885e-23 -1.06293e-22 -2.58351e-22 8.93756e-23 8.70236e-23 4.23961e-22 -7.44052e-22 -2.0164e-22 -1.96839e-22 4.22975e-22 -3.75784e-23 0 1.43778e-22 2.81438e-22 -5.51149e-22 5.39901e-22 0 0 0.505207 0.583296 0.655159 0.739159 0.783355 0.864401 0.876852 0.93573 0.975682 0.979647 1.00039 1.06353 1.08527 1.0745 1.12713 1.17346 1.1942 1.21003 1.22063 1.24983 1.27559 1.29239 1.31961 1.25672 1.03488 0.551898 0.063572 0.000301896 9.88807e-09 1.79251e-13 -1.18952e-23 2.06681e-22 5.01045e-22 2.67469e-22 -1.41724e-22 -6.88937e-22 3.91018e-23 3.67131e-23 -1.48386e-22 3.72026e-22 8.0656e-22 -3.14942e-22 -9.61307e-22 1.50313e-22 -1.83716e-22 -3.23501e-22 1.40719e-22 -2.75575e-22 0 0 0 0.485776 0.560861 0.62996 0.71073 0.753225 0.831154 0.843126 0.899739 0.938154 0.941968 0.96191 1.02262 1.04353 1.03317 1.08378 1.12833 1.14827 1.16349 1.17368 1.20176 1.22652 1.24269 1.26885 1.20839 0.995075 0.530671 0.0611268 0.000290284 9.50775e-09 1.72297e-13 -3.81084e-22 -3.10021e-22 3.00627e-22 2.91785e-22 9.44827e-23 9.18582e-23 -1.11719e-22 -4.35118e-22 5.82946e-22 7.87971e-23 2.47009e-22 4.0352e-22 2.11488e-22 3.75784e-22 -5.14406e-22 -2.51612e-22 3.51797e-23 6.88937e-23 3.37438e-22 0 0 0.465865 0.537873 0.60414 0.681598 0.722352 0.797087 0.808568 0.862861 0.899701 0.903358 0.922483 0.980708 1.00075 0.99082 1.03936 1.08208 1.1012 1.1158 1.12557 1.1525 1.17625 1.19175 1.21684 1.15886 0.954289 0.50892 0.0586214 0.000278386 9.11805e-09 1.65274e-13 -8.61918e-24 -2.06681e-22 -3.00627e-22 -2.43154e-22 1.88965e-22 9.18582e-23 8.93756e-23 6.96189e-22 -4.45159e-22 2.48017e-22 3.12542e-22 5.41307e-23 2.23504e-22 -1.87892e-23 4.68477e-22 -2.15667e-22 3.86977e-22 1.72234e-22 -3.37438e-22 0 0 0.445494 0.514353 0.577723 0.651794 0.690766 0.762233 0.773212 0.825131 0.86036 0.863857 0.882146 0.937825 0.956995 0.947495 0.99391 1.03476 1.05305 1.06701 1.07635 1.10211 1.12482 1.13964 1.16364 1.10818 0.912561 0.486666 0.0560581 0.000266213 8.71935e-09 1.58042e-13 4.94066e-22 -1.0334e-22 1.00209e-22 -1.94523e-22 -1.88965e-22 -5.97078e-22 -2.68127e-22 -1.30535e-22 -3.39169e-22 -3.72026e-22 -6.0492e-23 -5.51149e-22 6.53689e-22 -3.10022e-22 -4.13362e-23 8.76148e-23 3.34208e-22 5.68373e-22 2.53079e-22 0 0 0.424684 0.490326 0.550735 0.621347 0.658498 0.726627 0.737093 0.786586 0.82017 0.823504 0.840939 0.894016 0.912291 0.903234 0.947482 0.986428 1.00386 1.01717 1.02607 1.05062 1.07227 1.0864 1.10928 1.05642 0.869933 0.463933 0.0534394 0.000253777 8.31204e-09 1.50674e-13 1.20236e-22 0 -2.00418e-22 0 5.66896e-22 -2.75575e-22 -2.68127e-22 8.70236e-23 -8.47922e-23 -2.48017e-22 -2.0164e-22 4.72414e-22 -3.07618e-22 -1.31524e-22 -1.28602e-22 3.23501e-22 2.02284e-22 -3.44468e-22 -3.30584e-22 0 0 0.403454 0.465816 0.523205 0.590286 0.625581 0.690303 0.700247 0.747266 0.779171 0.782338 0.798901 0.849325 0.866686 0.858083 0.900118 0.937118 0.953676 0.966321 0.974781 0.998104 1.01867 1.0321 1.05383 1.00361 0.826446 0.440741 0.050768 0.000241091 7.89653e-09 1.43079e-13 5.61898e-23 -2.06681e-22 -1.00209e-22 -3.89046e-22 1.88965e-22 -2.75575e-22 -2.68127e-22 -1.74047e-22 2.54377e-22 8.26724e-23 -4.83936e-22 -7.08621e-22 -3.46071e-22 -1.50313e-22 -2.57203e-22 -3.59445e-22 2.81438e-22 1.89458e-22 -1.85591e-22 0 0 0.381826 0.440845 0.495158 0.558644 0.592046 0.653299 0.662709 0.707208 0.737403 0.7404 0.756075 0.803796 0.820227 0.812084 0.851866 0.886882 0.902553 0.91452 0.922527 0.944599 0.964066 0.976769 0.997336 0.949808 0.782143 0.417115 0.0480466 0.000228167 7.47323e-09 1.35559e-13 5.19195e-23 0 0 0 -1.88965e-22 0 0 0 0 0 -8.0656e-23 3.93678e-22 -2.30714e-22 -2.2547e-22 -2.2046e-22 -2.15667e-22 -2.46258e-22 1.72234e-22 -3.71182e-22 0 0 0.359822 0.415439 0.466622 0.526449 0.557927 0.61565 0.624518 0.666452 0.694907 0.697731 0.712503 0.757474 0.772958 0.765284 0.802774 0.835772 0.850539 0.861817 0.869362 0.890163 0.908507 0.920478 0.93986 0.895071 0.737069 0.393077 0.0452777 0.000215018 7.04255e-09 1.27619e-13 5.12604e-23 2.06681e-22 4.00836e-22 3.89046e-22 -1.88965e-22 -4.59291e-22 -3.57502e-22 -1.74047e-22 -1.69584e-22 -1.65345e-22 -4.0328e-22 -1.57471e-22 -3.84523e-22 7.51567e-23 3.67433e-22 7.18891e-23 -7.03595e-23 1.72234e-22 0 0 0 0.337463 0.389624 0.437626 0.493735 0.523257 0.577393 0.58571 0.625038 0.651725 0.654374 0.668228 0.710404 0.724926 0.717729 0.752889 0.783837 0.797686 0.808263 0.81534 0.834848 0.852052 0.863279 0.881457 0.839451 0.691267 0.368651 0.0424641 0.000201657 6.60492e-09 1.19731e-13 -3.72814e-22 2.06681e-22 4.00836e-22 3.89046e-22 0 -1.83716e-22 3.57502e-22 -3.48094e-22 -5.08753e-22 -4.96034e-22 -2.41968e-22 -2.36207e-22 -5.38332e-22 -3.00627e-22 4.4092e-22 2.87556e-22 -6.33235e-22 -6.20043e-22 6.74877e-23 0 0 0.31477 0.363424 0.408198 0.460534 0.48807 0.538566 0.546324 0.583008 0.6079 0.610371 0.623293 0.662633 0.676178 0.669466 0.702261 0.731128 0.744046 0.753912 0.760513 0.778708 0.794756 0.805228 0.822184 0.783002 0.644783 0.343861 0.0396086 0.000188097 6.16078e-09 1.11697e-13 2.52458e-22 0 2.00418e-22 0 0 0 3.57502e-22 3.48094e-22 3.39169e-22 3.3069e-22 0 0 3.07618e-22 0 7.34866e-23 5.03223e-22 2.11078e-22 -2.06681e-22 -1.34975e-22 0 0 0.291767 0.336865 0.378367 0.426879 0.452403 0.499208 0.506399 0.540402 0.563475 0.565765 0.577743 0.614208 0.626763 0.620541 0.65094 0.677697 0.689672 0.698816 0.704935 0.721801 0.736676 0.746383 0.762099 0.725781 0.597663 0.318732 0.036714 0.000174351 5.71055e-09 1.03597e-13 4.27147e-23 -4.13362e-22 -2.00418e-22 -1.94523e-22 -3.77931e-22 -1.83716e-22 0 5.22141e-22 -1.69584e-22 1.65345e-22 4.83936e-22 -1.57471e-22 0 -1.50313e-22 -1.46973e-22 1.43778e-22 1.40719e-22 -1.37787e-22 -2.69951e-22 0 0 0.268476 0.309974 0.348163 0.392802 0.416288 0.459357 0.465974 0.497263 0.518494 0.520601 0.531623 0.565177 0.57673 0.571005 0.598977 0.623598 0.634617 0.643031 0.648661 0.664181 0.677869 0.6868 0.701262 0.667843 0.549952 0.293288 0.0337832 0.000160432 5.25469e-09 9.52271e-14 3.67977e-23 6.20043e-22 6.01254e-22 0 -3.77931e-22 -1.83716e-22 -1.78751e-22 5.22141e-22 -3.39169e-22 -1.65345e-22 -1.61312e-22 -3.14942e-22 0 0 0 2.87556e-22 2.81438e-22 -2.75575e-22 -4.04926e-22 0 0 0.244919 0.282776 0.317615 0.358337 0.379763 0.419053 0.425089 0.453633 0.473001 0.474924 0.484978 0.515589 0.526128 0.520905 0.546423 0.568884 0.578935 0.586612 0.591748 0.605906 0.618392 0.62654 0.639733 0.609247 0.5017 0.267555 0.0308191 0.000146356 4.79364e-09 8.69866e-14 2.41945e-22 -4.13362e-22 -4.00836e-22 3.89046e-22 -5.66896e-22 -7.34866e-22 -3.57502e-22 -1.74047e-22 3.39169e-22 4.96034e-22 -3.22624e-22 3.14942e-22 -1.53809e-22 4.5094e-22 -2.93946e-22 -2.87556e-22 2.81438e-22 2.75575e-22 -5.39901e-22 0 0 0.221122 0.2553 0.286754 0.323519 0.342863 0.378336 0.383785 0.409555 0.427041 0.428777 0.437855 0.465491 0.475006 0.470291 0.493329 0.513607 0.522683 0.529613 0.53425 0.547032 0.558306 0.565662 0.577573 0.550049 0.452952 0.241558 0.0278245 0.000132135 4.32786e-09 7.84879e-14 4.50365e-22 4.13362e-22 -6.01254e-22 1.94523e-22 3.77931e-22 3.67433e-22 3.57502e-22 1.74047e-22 -3.39169e-22 3.3069e-22 0 0 3.07618e-22 3.00627e-22 2.93946e-22 -4.31334e-22 1.40719e-22 2.75575e-22 0 0 0 0.197106 0.227572 0.255609 0.288382 0.305625 0.337245 0.342102 0.365073 0.380661 0.382208 0.390299 0.414934 0.423416 0.419212 0.439749 0.457825 0.465914 0.472092 0.476225 0.487619 0.497668 0.504226 0.514843 0.490308 0.403756 0.215322 0.0248025 0.000117784 3.85781e-09 6.99602e-14 -3.95156e-22 -2.06681e-22 -2.00418e-22 -3.89046e-22 1.88965e-22 -1.83716e-22 -3.57502e-22 -1.74047e-22 -1.69584e-22 -1.65345e-22 -3.22624e-22 -1.57471e-22 -3.07618e-22 -3.00627e-22 0 -1.43778e-22 2.81438e-22 -1.37787e-22 1.34975e-22 0 0 0.172895 0.199619 0.224213 0.25296 0.268085 0.295821 0.300082 0.320231 0.333904 0.335261 0.342359 0.363968 0.371407 0.36772 0.385734 0.40159 0.408686 0.414105 0.41773 0.427725 0.436539 0.442291 0.451605 0.430083 0.354163 0.188874 0.021756 0.000103317 3.38396e-09 6.13441e-14 2.43183e-23 2.06681e-22 2.00418e-22 7.78093e-22 -1.88965e-22 -3.67433e-22 1.78751e-22 0 -1.69584e-22 1.65345e-22 0 1.57471e-22 1.53809e-22 -1.50313e-22 -1.46973e-22 -1.43778e-22 0 -1.37787e-22 -1.34975e-22 0 0 0.148514 0.17147 0.192595 0.217288 0.23028 0.