<?xml version="1.0"?>
<VTKFile type="PolyData">
	<PolyData>
		<Piece NumberOfPoints="2601" NumberOfPolys="2500">
			<Points>
				<DataArray type="Float32" NumberOfComponents="3" format="ascii">
 1e-06 0 0 0.297081 0 0 0.338295 0 0 0.376439 0 0 0.407325 0 0 0.432762 0 0 0.454478 0 0 0.47322 0 0 0.490766 0 0 0.507114 0 0 0.521557 0 0 0.534898 0 0 0.547368 0 0 0.558937 0 0 0.569798 0 0 0.579755 0 0 0.588756 0 0 0.597301 0 0 0.605217 0 0 0.612923 0 0 0.61997 0 0 0.626562 0 0 0.632636 0 0 0.638546 0 0 0.644176 0 0 0.649509 0 0 0.654608 0 0 0.659342 0 0 0.663848 0 0 0.66821 0 0 0.672327 0 0 0.676342 0 0 0.680217 0 0 0.684863 0 0 0.69174 0 0 0.703048 0 0 0.720188 0 0 0.740002 0 0 0.760001 0 0 0.780001 0 0 0.800001 0 0 0.820001 0 0 0.840001 0 0 0.860001 0 0 0.880001 0 0 0.900001 0 0 0.920001 0 0 0.940001 0 0 0.960001 0 0 0.980001 0 0 1 0 0 9.99507e-07 3.14108e-08 0 0.296934 0.00933154 0 0.338128 0.0106261 0 0.376253 0.0118242 0 0.407124 0.0127944 0 0.432549 0.0135934 0 0.454254 0.0142755 0 0.472987 0.0148642 0 0.490524 0.0154153 0 0.506863 0.0159288 0 0.521299 0.0163825 0 0.534634 0.0168015 0 0.547098 0.0171932 0 0.558661 0.0175566 0 0.569517 0.0178978 0 0.579469 0.0182105 0 0.588465 0.0184933 0 0.597006 0.0187617 0 0.604918 0.0190103 0 0.612621 0.0192524 0 0.619664 0.0194737 0 0.626253 0.0196808 0 0.632324 0.0198716 0 0.638231 0.0200572 0 0.643859 0.0202341 0 0.649188 0.0204016 0 0.654285 0.0205617 0 0.659016 0.0207104 0 0.663521 0.020852 0 0.66788 0.020989 0 0.671995 0.0211183 0 0.676008 0.0212444 0 0.679881 0.0213661 0 0.684525 0.0215121 0 0.691398 0.0217281 0 0.702701 0.0220833 0 0.719832 0.0226216 0 0.739636 0.023244 0 0.759626 0.0238722 0 0.779616 0.0245004 0 0.799606 0.0251286 0 0.819596 0.0257569 0 0.839587 0.0263851 0 0.859577 0.0270133 0 0.879567 0.0276415 0 0.899557 0.0282697 0 0.919547 0.0288979 0 0.939537 0.0295261 0 0.959527 0.0301544 0 0.979517 0.0307826 0 0.999508 0.0314108 0 9.98027e-07 6.27905e-08 0 0.296495 0.0186539 0 0.337627 0.0212417 0 0.375696 0.0236368 0 0.406521 0.0255762 0 0.431908 0.0271734 0 0.453581 0.0285369 0 0.472286 0.0297137 0 0.489798 0.0308155 0 0.506113 0.0318419 0 0.520528 0.0327488 0 0.533842 0.0335865 0 0.546288 0.0343695 0 0.557834 0.035096 0 0.568674 0.0357779 0 0.578611 0.0364031 0 0.587594 0.0369683 0 0.596122 0.0375048 0 0.604022 0.0380019 0 0.611713 0.0384858 0 0.618747 0.0389282 0 0.625325 0.0393421 0 0.631388 0.0397235 0 0.637286 0.0400947 0 0.642905 0.0404482 0 0.648227 0.040783 0 0.653316 0.0411032 0 0.658041 0.0414004 0 0.662538 0.0416834 0 0.666892 0.0419573 0 0.671 0.0422157 0 0.675007 0.0424679 0 0.678874 0.0427111 0 0.683511 0.0430029 0 0.690375 0.0434347 0 0.701661 0.0441448 0 0.718767 0.045221 0 0.738541 0.0464651 0 0.758501 0.0477209 0 0.778462 0.0489767 0 0.798422 0.0502325 0 0.818383 0.0514883 0 0.838343 0.0527441 0 0.858304 0.0539999 0 0.878265 0.0552557 0 0.898225 0.0565115 0 0.918186 0.0577673 0 0.938146 0.0590232 0 0.958107 0.060279 0 0.978067 0.0615348 0 0.998028 0.0627906 0 9.95562e-07 9.41083e-08 0 0.295763 0.0279578 0 0.336793 0.0318364 0 0.374768 0.035426 0 0.405517 0.0383327 0 0.430841 0.0407265 0 0.452461 0.0427702 0 0.47112 0.044534 0 0.488588 0.0461852 0 0.504863 0.0477236 0 0.519242 0.0490828 0 0.532524 0.0503383 0 0.544939 0.0515119 0 0.556457 0.0526006 0 0.567269 0.0536228 0 0.577182 0.0545598 0 0.586143 0.0554068 0 0.59465 0.056211 0 0.602531 0.0569559 0 0.610203 0.0576811 0 0.617219 0.0583443 0 0.623781 0.0589647 0 0.629828 0.0595363 0 0.635713 0.0600925 0 0.641318 0.0606224 0 0.646626 0.0611242 0 0.651703 0.061604 0 0.656415 0.0620495 0 0.660902 0.0624736 0 0.665245 0.0628841 0 0.669343 0.0632715 0 0.67334 0.0636494 0 0.677198 0.064014 0 0.681823 0.0644513 0 0.68867 0.0650984 0 0.699928 0.0661627 0 0.716992 0.0677757 0 0.736717 0.0696403 0 0.756628 0.0715224 0 0.776539 0.0734046 0 0.796451 0.0752867 0 0.816362 0.0771689 0 0.836273 0.0790511 0 0.856184 0.0809332 0 0.876096 0.0828154 0 0.896007 0.0846976 0 0.915918 0.0865797 0 0.935829 0.0884619 0 0.95574 0.0903441 0 0.975652 0.0922262 0 0.995563 0.0941084 0 9.92115e-07 1.25333e-07 0 0.294738 0.0372341 0 0.335627 0.0423996 0 0.37347 0.0471803 0 0.404113 0.0510514 0 0.42935 0.0542395 0 0.450894 0.0569612 0 0.469489 0.0593102 0 0.486896 0.0615093 0 0.503115 0.0635582 0 0.517444 0.0653684 0 0.53068 0.0670404 0 0.543052 0.0686034 0 0.55453 0.0700534 0 0.565305 0.0714147 0 0.575184 0.0726626 0 0.584113 0.0737907 0 0.592591 0.0748616 0 0.600444 0.0758538 0 0.60809 0.0768196 0 0.615081 0.0777028 0 0.621621 0.078529 0 0.627647 0.0792903 0 0.633511 0.0800311 0 0.639097 0.0807367 0 0.644387 0.081405 0 0.649446 0.0820441 0 0.654143 0.0826374 0 0.658614 0.0832023 0 0.662941 0.0837489 0 0.667025 0.0842649 0 0.671009 0.0847681 0 0.674853 0.0852537 0 0.679463 0.0858361 0 0.686285 0.086698 0 0.697504 0.0881153 0 0.714509 0.0902635 0 0.734166 0.0927468 0 0.754008 0.0952534 0 0.77385 0.09776 0 0.793693 0.100267 0 0.813535 0.102773 0 0.833377 0.10528 0 0.85322 0.107787 0 0.873062 0.110293 0 0.892904 0.1128 0 0.912747 0.115307 0 0.932589 0.117813 0 0.952431 0.12032 0 0.972273 0.122827 0 0.992116 0.125333 0 9.87688e-07 1.56434e-07 0 0.293423 0.0464737 0 0.33413 0.052921 0 0.371804 0.058888 0 0.40231 0.0637197 0 0.427434 0.0676989 0 0.448883 0.071096 0 0.467394 0.074028 0 0.484724 0.0767727 0 0.50087 0.07933 0 0.515136 0.0815895 0 0.528312 0.0836764 0 0.540629 0.0856272 0 0.552056 0.087437 0 0.562783 0.0891361 0 0.572617 0.0906937 0 0.581507 0.0921017 0 0.589947 0.0934384 0 0.597765 0.0946767 0 0.605377 0.0958823 0 0.612337 0.0969847 0 0.618848 0.0980159 0 0.624847 0.0989661 0 0.630685 0.0998907 0 0.636246 0.100771 0 0.641512 0.101606 0 0.646548 0.102403 0 0.651224 0.103144 0 0.655675 0.103849 0 0.659983 0.104531 0 0.664049 0.105175 0 0.668015 0.105803 0 0.671842 0.106409 0 0.676431 0.107136 0 0.683223 0.108212 0 0.694392 0.109981 0 0.711321 0.112662 0 0.730891 0.115762 0 0.750644 0.11889 0 0.770398 0.122019 0 0.790152 0.125148 0 0.809905 0.128276 0 0.829659 0.131405 0 0.849413 0.134534 0 0.869167 0.137662 0 0.88892 0.140791 0 0.908674 0.14392 0 0.928428 0.147049 0 0.948182 0.150177 0 0.967936 0.153306 0 0.987689 0.156435 0 9.82287e-07 1.87381e-07 0 0.291819 0.0556674 0 0.332303 0.0633901 0 0.369771 0.0705376 0 0.40011 0.0763251 0 0.425097 0.0810915 0 0.446428 0.0851607 0 0.464838 0.0886726 0 0.482073 0.0919604 0 0.498131 0.0950236 0 0.512319 0.09773 0 0.525423 0.10023 0 0.537673 0.102567 0 0.549037 0.104734 0 0.559706 0.10677 0 0.569486 0.108635 0 0.578327 0.110322 0 0.586721 0.111923 0 0.594497 0.113406 0 0.602066 0.11485 0 0.608989 0.116171 0 0.615464 0.117406 0 0.62143 0.118544 0 0.627236 0.119652 0 0.632766 0.120707 0 0.638004 0.121706 0 0.643013 0.122661 0 0.647663 0.123548 0 0.65209 0.124393 0 0.656374 0.12521 0 0.660418 0.125981 0 0.664362 0.126734 0 0.668168 0.12746 0 0.672732 0.128331 0 0.679487 0.129619 0 0.690595 0.131738 0 0.707431 0.13495 0 0.726894 0.138662 0 0.746539 0.14241 0 0.766185 0.146158 0 0.785831 0.149905 0 0.805477 0.153653 0 0.825122 0.1574 0 0.844768 0.161148 0 0.864414 0.164896 0 0.88406 0.168643 0 0.903705 0.172391 0 0.923351 0.176139 0 0.942997 0.179886 0 0.962642 0.183634 0 0.982288 0.187382 0 9.75917e-07 2.18143e-07 0 0.289926 0.0648062 0 0.330148 0.0737967 0 0.367373 0.0821175 0 0.397515 0.0888552 0 0.42234 0.0944041 0 0.443533 0.0991413 0 0.461824 0.10323 0 0.478947 0.107057 0 0.494901 0.110623 0 0.508996 0.113774 0 0.522015 0.116684 0 0.534186 0.119405 0 0.545476 0.121928 0 0.556076 0.124298 0 0.565793 0.12647 0 0.574577 0.128433 0 0.582916 0.130297 0 0.590641 0.132024 0 0.598162 0.133705 0 0.605039 0.135242 0 0.611472 0.13668 0 0.6174 0.138005 0 0.623168 0.139295 0 0.628663 0.140523 0 0.633867 0.141686 0 0.638843 0.142798 0 0.643463 0.143831 0 0.647861 0.144814 0 0.652118 0.145766 0 0.656135 0.146664 0 0.660053 0.147539 0 0.663835 0.148385 0 0.668369 0.149398 0 0.67508 0.150898 0 0.686116 0.153365 0 0.702843 0.157104 0 0.72218 0.161426 0 0.741698 0.165789 0 0.761216 0.170152 0 0.780734 0.174515 0 0.800253 0.178878 0 0.819771 0.183241 0 0.839289 0.187603 0 0.858808 0.191966 0 0.878326 0.196329 0 0.897844 0.200692 0 0.917363 0.205055 0 0.936881 0.209418 0 0.956399 0.213781 0 0.975918 0.218143 0 9.68583e-07 2.4869e-07 0 0.287748 0.073881 0 0.327667 0.0841305 0 0.364612 0.0936165 0 0.394528 0.101298 0 0.419166 0.107624 0 0.4402 0.113024 0 0.458353 0.117685 0 0.475348 0.122049 0 0.491182 0.126114 0 0.505171 0.129706 0 0.518093 0.133024 0 0.530171 0.136125 0 0.541377 0.139002 0 0.551897 0.141703 0 0.561541 0.144179 0 0.570259 0.146418 0 0.578536 0.148543 0 0.586203 0.150511 0 0.593667 0.152428 0 0.600492 0.15418 0 0.606877 0.15582 0 0.61276 0.15733 0 0.618485 0.1588 0 0.623938 0.1602 0 0.629103 0.161526 0 0.634042 0.162794 0 0.638627 0.163972 0 0.642992 0.165092 0 0.647217 0.166177 0 0.651204 0.167201 0 0.655093 0.168199 0 0.658846 0.169163 0 0.663347 0.170318 0 0.670007 0.172029 0 0.68096 0.174841 0 0.697562 0.179103 0 0.716753 0.184031 0 0.736124 0.189005 0 0.755496 0.193978 0 0.774867 0.198952 0 0.794239 0.203926 0 0.813611 0.2089 0 0.832982 0.213874 0 0.852354 0.218847 0 0.871726 0.223821 0 0.891097 0.228795 0 0.910469 0.233769 0 0.929841 0.238743 0 0.949212 0.243716 0 0.968584 0.24869 0 9.60294e-07 2.78991e-07 0 0.285285 0.082883 0 0.324862 0.0943812 0 0.361492 0.105023 0 0.391152 0.11364 0 0.415579 0.120737 0 0.436432 0.126795 0 0.45443 0.132024 0 0.47128 0.136919 0 0.486978 0.14148 0 0.500848 0.14551 0 0.513659 0.149232 0 0.525634 0.152711 0 0.536744 0.155939 0 0.547174 0.158969 0 0.556735 0.161747 0 0.565378 0.164258 0 0.573584 0.166642 0 0.581186 0.16885 0 0.588586 0.171 0 0.595353 0.172966 0 0.601683 0.174805 0 0.607516 0.1765 0 0.613192 0.178149 0 0.618599 0.179719 0 0.623719 0.181207 0 0.628616 0.18263 0 0.633162 0.18395 0 0.637489 0.185208 0 0.641678 0.186425 0 0.645631 0.187573 0 0.649487 0.188693 0 0.653208 0.189774 0 0.65767 0.191071 0 0.664273 0.192989 0 0.675133 0.196144 0 0.691592 0.200926 0 0.710619 0.206454 0 0.729824 0.212034 0 0.74903 0.217613 0 0.768236 0.22
[...]
			<PointData Scalars="VitesseX">
				<DataArray Name="VitesseX" type="Float32" format="ascii">
 0 0.599959 0.612871 0.737886 0.779511 0.858781 0.881813 0.962456 0.966488 1.01625 1.05358 1.05623 1.11181 1.14077 1.14792 1.19635 1.2222 1.25105 1.27449 1.28292 1.32764 1.36567 1.36352 1.3862 1.38772 1.41832 1.45201 1.46394 1.49147 1.49137 1.4926 1.5227 1.50059 1.3756 1.07262 0.54333 0.0689749 0.000432515 2.36716e-08 6.96333e-13 9.22213e-18 0 0 0 0 0 0 0 0 0 0 0 0.599663 0.612568 0.737522 0.779126 0.858357 0.881378 0.961981 0.966012 1.01575 1.05306 1.05571 1.11126 1.14021 1.14735 1.19576 1.22159 1.25043 1.27386 1.28229 1.32699 1.365 1.36285 1.38552 1.38703 1.41762 1.45129 1.46322 1.49073 1.49064 1.49186 1.52195 1.49985 1.37492 1.07209 0.543062 0.0689409 0.000432302 2.36599e-08 6.95981e-13 4.49699e-18 5.82325e-22 -5.6846e-22 -5.5524e-22 0 0 5.19028e-22 -5.07985e-22 0 9.74502e-22 0 0 0.598775 0.611661 0.73643 0.777973 0.857086 0.880073 0.960556 0.964581 1.01425 1.05151 1.05415 1.10962 1.13852 1.14566 1.19399 1.21979 1.24858 1.27197 1.28039 1.32502 1.36298 1.36083 1.38347 1.38498 1.41552 1.44914 1.46106 1.48852 1.48843 1.48965 1.51969 1.49763 1.37288 1.0705 0.542258 0.0688388 0.000431662 2.36249e-08 6.94959e-13 -2.37393e-18 0 -5.6846e-22 0 0 0 5.19028e-22 -1.01597e-21 0 0 0 0 0.597296 0.610151 0.734612 0.776051 0.85497 0.8779 0.958184 0.962199 1.01174 1.04891 1.05154 1.10688 1.13571 1.14283 1.19104 1.21677 1.24549 1.26883 1.27723 1.32175 1.35961 1.35747 1.38005 1.38156 1.41202 1.44556 1.45745 1.48485 1.48476 1.48597 1.51594 1.49393 1.36949 1.06786 0.540919 0.0686688 0.000430596 2.35665e-08 6.93231e-13 -1.19481e-17 0 0 0 0 1.06112e-21 5.19028e-22 -5.07985e-22 0 0 0 0 0.595228 0.608038 0.732068 0.773364 0.852009 0.87486 0.954866 0.958867 1.00824 1.04528 1.0479 1.10305 1.13178 1.13887 1.18692 1.21256 1.24118 1.26444 1.2728 1.31717 1.3549 1.35277 1.37527 1.37677 1.40713 1.44056 1.4524 1.47971 1.47961 1.48083 1.51069 1.48876 1.36475 1.06416 0.539046 0.068431 0.000429105 2.34849e-08 6.90844e-13 -1.82959e-17 0 0 0 -5.42621e-22 5.30562e-22 -1.03806e-21 0 -4.97402e-22 -4.87251e-22 0 0 0.592572 0.605325 0.728802 0.769914 0.848208 0.870957 0.950606 0.954589 1.00374 1.04061 1.04323 1.09812 1.12673 1.13379 1.18162 1.20715 1.23564 1.2588 1.26713 1.3113 1.34886 1.34674 1.36914 1.37063 1.40085 1.43413 1.44592 1.4731 1.47301 1.47422 1.50395 1.48212 1.35866 1.05941 0.536641 0.0681257 0.00042719 2.33801e-08 6.87733e-13 -1.30965e-17 0 -5.6846e-22 0 0 5.30562e-22 0 1.01597e-21 -4.97402e-22 0 0 0 0.589332 0.602015 0.724816 0.765703 0.843569 0.866194 0.945408 0.949369 0.99825 1.03492 1.03752 1.09212 1.12056 1.12759 1.17516 1.20055 1.22889 1.25191 1.2602 1.30413 1.34148 1.33937 1.36165 1.36314 1.39319 1.42629 1.43801 1.46505 1.46496 1.46616 1.49573 1.47401 1.35123 1.05362 0.533706 0.0677532 0.000424854 2.32523e-08 6.8395e-13 -1.94618e-17 0 5.6846e-22 0 -5.42621e-22 -5.30562e-22 0 1.01597e-21 -4.97402e-22 4.87251e-22 0 0 0.58551 0.598111 0.720116 0.760738 0.838099 0.860576 0.939276 0.943212 0.991776 1.02821 1.03079 1.08504 1.1133 1.12027 1.16754 1.19276 1.22092 1.24379 1.25202 1.29567 1.33278 1.33068 1.35282 1.3543 1.38416 1.41704 1.42869 1.45555 1.45546 1.45665 1.48603 1.46445 1.34247 1.04678 0.530245 0.0673138 0.000422099 2.31015e-08 6.79498e-13 -1.11427e-17 0 -5.6846e-22 5.5524e-22 0 -5.30562e-22 -5.19028e-22 -5.07985e-22 0 0 0 0 0.58111 0.593616 0.714704 0.755021 0.831801 0.854109 0.932218 0.936124 0.984323 1.02048 1.02305 1.07688 1.10493 1.11186 1.15876 1.1838 1.21174 1.23445 1.24262 1.28593 1.32277 1.32068 1.34265 1.34412 1.37376 1.40639 1.41795 1.44461 1.44452 1.4457 1.47486 1.45345 1.33238 1.03892 0.526261 0.0668079 0.000418927 2.29279e-08 6.74369e-13 8.99166e-22 0 0 5.5524e-22 1.08524e-21 -5.30562e-22 0 0 0 4.87251e-22 0 0 0.576137 0.588536 0.708588 0.748559 0.824682 0.8468 0.92424 0.928113 0.975899 1.01175 1.01429 1.06767 1.09547 1.10234 1.14885 1.17367 1.20137 1.22388 1.23198 1.27493 1.31145 1.30938 1.33116 1.33261 1.362 1.39435 1.40582 1.43225 1.43216 1.43333 1.46224 1.44101 1.32098 1.03003 0.521757 0.0662362 0.000415342 2.27317e-08 6.6856e-13 1.35487e-21 0 -1.13692e-21 -1.11048e-21 1.08524e-21 5.30562e-22 5.19028e-22 0 0 4.87251e-22 0 0 0.570595 0.582875 0.701772 0.741359 0.816749 0.838654 0.91535 0.919185 0.966512 1.00202 1.00454 1.0574 1.08494 1.09174 1.1378 1.16238 1.18981 1.21211 1.22013 1.26266 1.29883 1.29679 1.31836 1.3198 1.3489 1.38094 1.39229 1.41847 1.41838 1.41954 1.44817 1.42715 1.30827 1.02012 0.516738 0.065599 0.000411347 2.2513e-08 6.62052e-13 -1.09916e-17 1.16465e-21 5.6846e-22 0 0 0 -5.19028e-22 -5.07985e-22 -4.97402e-22 4.87251e-22 0 0 0.56449 0.576638 0.694263 0.733427 0.80801 0.829681 0.905556 0.90935 0.95617 0.991297 0.993788 1.04608 1.07333 1.08006 1.12562 1.14994 1.17708 1.19914 1.20708 1.24915 1.28494 1.28291 1.30425 1.30568 1.33447 1.36617 1.3774 1.40329 1.40321 1.40435 1.43268 1.41188 1.29427 1.0092 0.511209 0.0648971 0.000406945 2.22721e-08 6.55014e-13 4.87362e-18 -5.82325e-22 -5.6846e-22 0 -5.42621e-22 5.30562e-22 5.19028e-22 -5.07985e-22 -4.97402e-22 9.74502e-22 0 0 0.557828 0.569833 0.686069 0.724771 0.798474 0.819889 0.894869 0.898618 0.944886 0.979598 0.982059 1.03374 1.06066 1.06731 1.11234 1.13637 1.16319 1.18499 1.19283 1.23441 1.26977 1.26777 1.28886 1.29027 1.31872 1.35004 1.36114 1.38673 1.38665 1.38778 1.41577 1.39522 1.279 0.997293 0.505176 0.0641312 0.000402143 2.20093e-08 6.47345e-13 5.92465e-18 -5.82325e-22 0 5.5524e-22 -5.42621e-22 -5.30562e-22 -5.19028e-22 -5.07985e-22 -4.97402e-22 0 0 0 0.550615 0.562465 0.677199 0.7154 0.78815 0.809288 0.883298 0.886999 0.932669 0.966932 0.969361 1.02037 1.04695 1.05351 1.09796 1.12168 1.14815 1.16967 1.17741 1.21845 1.25335 1.25138 1.2722 1.27358 1.30167 1.33259 1.34354 1.3688 1.36872 1.36984 1.39746 1.37718 1.26246 0.984399 0.498644 0.063302 0.000396943 2.17247e-08 6.38975e-13 1.13218e-17 0 0 0 0 1.06112e-21 0 5.07985e-22 0 -4.87251e-22 0 0 0.542859 0.554542 0.66766 0.705322 0.777048 0.797888 0.870856 0.874505 0.919531 0.953312 0.955707 1.006 1.0322 1.03867 1.08249 1.10588 1.13198 1.15319 1.16082 1.20129 1.2357 1.23375 1.25428 1.25564 1.28333 1.31381 1.32462 1.34952 1.34944 1.35054 1.37778 1.35778 1.24468 0.970532 0.49162 0.0624103 0.000391352 2.14187e-08 6.29951e-13 -6.12711e-18 0 5.6846e-22 0 0 0 -5.19028e-22 0 4.97402e-22 -4.87251e-22 0 0 0.534567 0.546072 0.657462 0.694549 0.765179 0.785701 0.857554 0.861147 0.905486 0.938751 0.941109 0.990632 1.01643 1.0228 1.06596 1.08899 1.11469 1.13558 1.14309 1.18294 1.21682 1.21491 1.23512 1.23646 1.26373 1.29375 1.30438 1.32891 1.32882 1.32991 1.35673 1.33704 1.22567 0.955708 0.484111 0.0614571 0.000385374 2.10915e-08 6.20307e-13 -4.94897e-18 -2.91162e-22 0 5.5524e-22 0 0 5.19028e-22 0 4.97402e-22 4.87251e-22 0 0 0.525748 0.537063 0.646615 0.68309 0.752555 0.772739 0.843406 0.84694 0.890547 0.923263 0.925582 0.974289 0.999665 1.00593 1.04837 1.07102 1.0963 1.11684 1.12423 1.16342 1.19675 1.19486 1.21474 1.21606 1.24288 1.2724 1.28286 1.30698 1.3069 1.30797 1.33435 1.31498 1.20545 0.939941 0.476124 0.0604432 0.000379016 2.07436e-08 6.09944e-13 2.30927e-17 5.82325e-22 -5.6846e-22 -5.5524e-22 2.7131e-22 -5.30562e-22 -5.19028e-22 0 0 -4.87251e-22 0 0 0.51641 0.527523 0.63513 0.670958 0.739189 0.759014 0.828426 0.831897 0.874729 0.906864 0.909143 0.956984 0.981909 0.988063 1.02975 1.052 1.07683 1.09701 1.10426 1.14276 1.17549 1.17364 1.19316 1.19447 1.2208 1.2498 1.26008 1.28377 1.28369 1.28474 1.31065 1.29162 1.18404 0.923246 0.467667 0.0593696 0.000372284 2.03751e-08 5.99154e-13 8.55034e-18 8.73487e-22 2.8423e-22 0 0 0 5.19028e-22 5.07985e-22 4.97402e-22 -4.87251e-22 0 0 0.506562 0.517464 0.623018 0.658163 0.725093 0.744539 0.812628 0.816033 0.858049 0.889571 0.891806 0.938734 0.963185 0.969221 1.01011 1.03194 1.05629 1.07609 1.08321 1.12097 1.15308 1.15126 1.17041 1.17169 1.19752 1.22597 1.23605 1.25929 1.25921 1.26024 1.28566 1.26699 1.16146 0.90564 0.458749 0.0582374 0.000365185 1.99866e-08 5.87721e-13 -2.3279e-17 5.82325e-22 -8.52689e-22 5.5524e-22 0 -5.30562e-22 -2.59514e-22 -2.53993e-22 0 -4.87251e-22 0 0 0.496214 0.506893 0.610291 0.644718 0.710281 0.72933 0.796028 0.799364 0.840521 0.871399 0.873588 0.919559 0.943509 0.949423 0.989478 1.01086 1.03472 1.0541 1.06108 1.09807 1.12952 1.12774 1.1465 1.14775 1.17306 1.20093 1.2108 1.23356 1.23349 1.2345 1.25939 1.24111 1.13773 0.88714 0.449378 0.0570478 0.000357725 1.95783e-08 5.75685e-13 -7.16734e-18 5.82325e-22 -1.42115e-21 5.5524e-22 5.42621e-22 -5.30562e-22 2.59514e-22 -5.07985e-22 4.97402e-22 -4.87251e-22 0 0 0.485377 0.495823 0.596963 0.630637 0.694768 0.713402 0.778643 0.781906 0.822164 0.852368 0.854509 0.899475 0.922903 0.928687 0.967867 0.988779 1.01212 1.03108 1.0379 1.07409 1.10485 1.10311 1.12146 1.12269 1.14744 1.1747 1.18436 1.20662 1.20655 1.20754 1.23189 1.214 1.11288 0.867765 0.439563 0.0558019 0.000349912 1.91507e-08 5.62974e-13 -4.67556e-17 1.16465e-21 0 -2.7762e-22 5.42621e-22 2.65281e-22 -5.19028e-22 -5.07985e-22 0 0 0 0 0.474061 0.484263 0.583045 0.615934 0.67857 0.696769 0.760489 0.763676 0.802995 0.832495 0.834586 0.878504 0.901386 0.907035 0.945302 0.965726 0.98852 1.00704 1.01371 1.04904 1.07909 1.07739 1.09532 1.09651 1.12069 1.14731 1.15674 1.17849 1.17842 1.17938 1.20317 1.1857 1.08694 0.847533 0.429315 0.0545009 0.000341754 1.87042e-08 5.49974e-13 -1.15089e-17 -8.73487e-22 1.13692e-21 0 -8.13931e-22 0 0 -2.53993e-22 -4.97402e-22 -4.87251e-22 0 0 0.462276 0.472225 0.568551 0.600623 0.661702 0.679449 0.741585 0.744692 0.783034 0.811801 0.81384 0.856666 0.878979 0.884488 0.921804 0.94172 0.963947 0.98201 0.988507 1.02297 1.05227 1.05061 1.06809 1.06925 1.09283 1.11879 1.12799 1.1492 1.14912 1.15006 1.17326 1.15623 1.05992 0.826465 0.418643 0.0531461 0.000333259 1.82393e-08 5.3622e-13 -4.67625e-17 0 -5.6846e-22 2.7762e-22 5.42621e-22 7.95844e-22 -2.59514e-22 7.61978e-22 7.46103e-22 -2.43626e-22 0 0 0.450036 0.459721 0.553497 0.58472 0.644181 0.661458 0.721949 0.724974 0.762301 0.790305 0.792291 0.833983 0.855705 0.861068 0.897395 0.916784 0.938423 0.956007 0.962333 0.99588 1.02441 1.02279 1.03981 1.04094 1.06389 1.08917 1.09812 1.11877 1.1187 1.11961 1.14219 1.12561 1.03185 0.804581 0.407558 0.0517388 0.000324435 1.77563e-08 5.22186e-13 1.47137e-17 1.01907e-21 1.42115e-22 -5.5524e-22 -2.7131e-22 0 -7.78543e-22 -2.53993e-22 0 -2.43626e-22 0 0 0.437351 0.446763 0.537896 0.568239 0.626024 0.642814 0.7016 0.70454 0.740815 0.76803 0.769959 0.810477 0.831586 0.836798 0.872102 0.890944 0.911973 0.929062 0.935209 0.967811 0.995533 0.993965 1.0105 1.0116 1.03391 1.05847 1.06717 1.08723 1.08717 1.08806 1.11 1.09388 1.00277 0.781904 0.396071 0.0502805 0.00031529 1.72558e-08 5.07282e-13 3.5949e-18 0 2.8423e-22 2.7762e-22 -2.7131e-22 0 0 -2.53993e-22 2.48701e-22 2.43626e-22 0 0 0.424235 0.433365 0.521764 0.551197 0.60725 0.623536 0.680559 0.683411 0.718598 0.744997 0.746868 0.78617 0.806647 0.811702 0.845947 0.864224 0.884622 0.901199 0.907162 0.938786 0.965676 0.964156 0.980195 0.981263 1.0029 1.02672 1.03516 1.05463 1.05456 1.05542 1.07671 1.06108 0.972695 0.758454 0.384193 0.0487726 0.000305835 1.67383e-08 4.92286e-13 -1.23018e-21 -4.36743e-22 4.26345e-22 2.7762e-22 -2.7131e-22 0 2.59514e-22 -1.26996e-22 -2.48701e-22 4.87251e-22 0 0 0.4107 0.419539 0.505118 0.533612 0.587876 0.603643 0.658846 0.661607 0.695671 0.721228 0.72304 0.761088 0.780911 0.785806 0.818958 0.836652 0.856399 0.872447 0.87822 0.908835 0.934867 0.933395 0.948922 0.949957 0.970904 0.993967 1.00214 1.02098 1.02092 1.02175 1.04236 1.02723 0.941662 0.734256 0.371935 0.0472166 0.000296077 1.62043e-08 4.7639e-13 4.5206e-22 2.91162e-22 1.42115e-22 -2.7762e-22 1.35655e-22 6.63203e-22 0 6.34982e-22 -7.46103e-22 6.09064e-22 0 0 0.39676 0.405299 0.487973 0.5155 0.567922 0.583153 0.636483 0.63915 0.672058 0.696748 0.698498 0.735255 0.754405 0.759133 0.79116 0.808254 0.827331 0.842834 0.848411 0.877987 0.903136 0.901714 0.916714 0.917713 0.937949 0.960229 0.968124 0.986325 0.986264 0.987071 1.00698 0.99236 0.9097 0.709334 0.359311 0.0456139 0.000286028 1.56543e-08 4.60393e-13 -2.2989e-17 -3.63953e-22 -3.55287e-22 7.63455e-22 -6.78276e-23 0 2.59514e-22 5.07985e-22 -9.94805e-22 9.74502e-22 0 0 0.382428 0.390658 0.470346 0.496879 0.547407 0.562089 0.613492 0.616063 0.647782 0.67158 0.673267 0.708696 0.727155 0.731712 0.762582 0.779058 0.797446 0.812389 0.817765 0.846272 0.870513 0.869142 0.8836 0.884563 0.904068 0.925544 0.933153 0.950697 0.950638 0.951416 0.970605 0.956514 0.87684 0.683711 0.346332 0.0439663 0.000275696 1.50888e-08 4.43794e-13 -6.68797e-19 1.45581e-21 -5.6846e-22 -1.73512e-21 2.7131e-22 -3.31601e-22 -5.83907e-22 2.53993e-22 -4.97402e-22 0 0 0 0.367719 0.375633 0.452256 0.477768 0.526353 0.540469 0.589896 0.592368 0.622867 0.645749 0.647372 0.681438 0.699186 0.703568 0.733251 0.749094 0.766774 0.781143 0.786311 0.813722 0.83703 0.835713 0.849615 0.850541 0.869295 0.889945 0.897262 0.914131 0.914074 0.914822 0.933273 0.919724 0.843114 0.657414 0.333011 0.0422752 0.000265092 1.45085e-08 4.2649e-13 -6.80156e-17 4.45842e-22 7.28339e-22 3.81727e-22 6.78276e-22 -9.28484e-22 -4.5415e-22 6.34982e-23 1.24351e-22 6.09064e-22 0 0 0.352647 0.360236 0.433719 0.458185 0.504779 0.518317 0.565717 0.568088 0.597337 0.619281 0.620837 0.653507 0.670528 0.674731 0.703197 0.71839 0.735346 0.749125 0.754082 0.780369 0.802722 0.801458 0.814791 0.815679 0.833665 0.853468 0.860485 0.876662 0.876608 0.877326 0.89502 0.882026 0.808557 0.630468 0.319362 0.0405424 0.000254226 1.39138e-08 4.09102e-13 -8.75168e-17 5.64127e-22 9.7704e-23 4.03416e-22 -3.39138e-23 8.45584e-22 -3.89271e-22 6.9848e-22 3.10876e-22 -6.09064e-22 0 0 0.337227 0.344484 0.414754 0.43815 0.482706 0.495652 0.54098 0.543247 0.571217 0.592202 0.59369 0.624931 0.641208 0.645227 0.672448 0.686977 0.703192 0.716368 0.721108 0.746247 0.767622 0.766413 0.779163 0.780012 0.797211 0.816149 0.822859 0.838329 0.838277 0.838963 0.855884 0.843458 0.773201 0.6029 0.305397 0.0387696 0.00024311 1.33054e-08 3.91333e-13 -1.61275e-17 -1.09186e-22 -9.94804e-22 1.17988e-21 -5.59578e-22 -7.46103e-23 1.58141e-22 6.03233e-22 1.02589e-21 4.56798e-22 0 0 0.321474 0.328392 0.395379 0.417683 0.460158 0.472499 0.515709 0.51787 0.544534 0.564539 0.565957 0.595739 0.611256 0.615086 0.641036 0.654886 0.670343 0.682905 0.687423 0.711387 0.731764 0.730612 0.742766 0.743575 0.759971 0.778024 0.784421 0.799168 0.799119 0.799773 0.815903 0.804058 0.737083 0.574737 0.291131 0.0369586 0.000231753 1.26839e-08 3.72956e-13 -1.97644e-17 -3.63953e-22 8.52689e-22 -5.5524e-22 -2.37397e-22 -2.32121e-22 5.83907e-22 3.65114e-22 -6.21753e-22 -5.96692e-22 0 0 0.305404 0.311977 0.375615 0.396803 0.437155 0.448879 0.48993 0.491983 0.517314 0.536318 0.537665 0.565959 0.5807 0.584339 0.608992 0.622149 0.636834 0.648767 0.65306 0.675826 0.695184 0.694089 0.705636 0.706405 0.721981 0.739132 0.745208 0.759218 0.759172 0.759793 0.775117 0.763864 0.700237 0.546006 0.276578 0.0351111 0.000220168 1.20498e-08 3.54342e-13 2.99785e-18 -8.73487e-22 -1.27903e-21 -6.24645e-22 -2.7131e-22 -4.64242e-22 -6.48786e-22 5.07985e-22 3.41964e-22 -3.34985e-22 0 0 0.289032 0.295253 0.355479 0.375532 0.413721 0.424817 0.463666 0.465609 0.489582 0.507568 0.508843 0.53562 0.549571 0.553015 0.576346 0.588798 0.602696 0.613989 0.618052 0.639597 0.657918 0.656882 0.667809 0.668537 0.683279 0.69951 0.705261 0.71852 0.718475 0.719063 0.733566 0.722916 0.6627 0.516737 0.261751 0.0332289 0.000208366 1.14039e-08 3.35386e-13 -1.07453e-17 -1.45581e-22 7.10575e-22 -4.1643e-22 -4.06965e-22 -3.97922e-22 -3.89271e-22 -4.44487e-22 3.10876e-22 -6.6997e-22 0 0 0.272376 0.278237 0.334993 0.35389 0.389878 0.400335 0.436946 0.438777 0.461368 0.478317 0.479519 0.504752 0.517899 0.521145 0.543132 0.554866 0.567963 0.578605 0.582434 0.602738 0.620002 0.619026 0.629324 0.63001 0.643902 0.659197 0.664617 0.677112 0.67707 0.677624 0.691291 0.681255 0.624509 0.486958 0.246667 0.0313139 0.000196358 1.07467e-08 3.16038e-13 2.22357e-18 -7.27906e-22 -2.8423e-22 -6.9405e-22 1.35655e-22 6.63203e-22 1.29757e-22 -1.26996e-22 3.10876e-22 0 0 0 0.25545 0.260948 0.314177 0.3319 0.365651 0.375458 0.409794 0.411511 0.432698 0.448594 0.449721 0.473387 0.485717 0.488761 0.509381 0.520386 0.532669 0.54265 0.546241 0.565283 0.581475 0.58056 0.590217 0.590861 0.603889 0.618234 0.623317 0.635036 0.634997 0.635516 0.648334 0.638921 0.585701 0.456698 0.231339 0.0293681 0.000184156 1.00789e-08 2.96479e-13 -2.75812e-22 -4.36743e-22 -4.26345e-22 -9.71669e-22 -5.42621e-22 7.95844e-22 5.19028e-22 -1.14297e-21 -1.11916e-21 1.21813e-22 0 0 0.238272 0.2434 0.29305 0.309581 0.341063 0.35021 0.382237 0.383839 0.403602 0.418429 0.41948 0.441554 0.453055 0.455894 0.475128 0.485393 0.49685 0.50616 0.509509 0.527271 0.542374 0.54152 0.550528 0.551128 0.563281 0.576661 0.581402 0.592333 0.592296 0.592781 0.604737 0.595957 0.546316 0.425987 0.215782 0.0273932 0.000171773 9.40111e-09 2.76525e-13 1.02666e-17 0 0 5.5524e-22 0 1.32641e-22 9.083e-22 3.80989e-22 -3.73052e-22 -2.43626e-22 0 0 0.22086 0.225613 0.271634 0.286957 0.316138 0.324617 0.354304 0.355788 0.374107 0.38785 0.388825 0.409286 0.419946 0.422578 0.440406 0.449921 0.46054 0.46917 0.472275 0.488738 0.502738 0.501946 0.510296 0.510852 0.522117 0.534519 0.538914 0.549046 0.549012 0.549461 0.560543 0.552405 0.506392 0.394856 0.200013 0.0253914 0.00015922 8.71408e-09 2.56345e-13 -3.29547e-18 8.73487e-22 -2.8423e-22 0 -2.7131e-22 -2.65281e-22 2.59514e-22 2.53993e-22 -2.48701e-22 -4.87251e-22 0 0 0.203229 0.207603 0.24995 0.26405 0.290902 0.298704 0.32602 0.327386 0.344243 0.356889 0.357786 0.376613 0.386422 0.388844 0.405249 0.414005 0.423776 0.431717 0.434574 0.449723 0.462605 0.461877 0.46956 0.470072 0.480437 0.49185 0.495893 0.505216 0.505185 0.505599 0.515796 0.508308 0.465967 0.363336 0.184047 0.0233644 0.000146509 8.01846e-09 2.35811e-13 -3.95685e-17 -2.91162e-22 -5.6846e-22 0 0 0 5.19028e-22 5.07985e-22 -4.97402e-22 -7.30877e-22 0 0 0.185398 0.189387 0.228019 0.240882 0.265378 0.272495 0.297415 0.298661 0.314039 0.325575 0.326393 0.343569 0.352518 0.354727 0.369692 0.37768 0.386594 0.393838 0.396444 0.410265 0.422016 0.421352 0.428361 0.428828 0.438283 0.448695 0.452384 0.460889 0.46086 0.461237 0.47054 0.463709 0.425083 0.331457 0.167898 0.0213144 0.000133655 7.31492e-09 2.15154e-13 1.59719e-17 -5.82325e-22 5.6846e-22 -2.7762e-22 8.13931e-22 -5.30562e-22 -5.19028e-22 5.07985e-22 4.97402e-22 -9.74502e-22 0 0 0.167383 0.170985 0.205864 0.217477 0.239592 0.246018 0.268517 0.269642 0.283525 0.293941 0.294679 0.310186 0.318265 0.32026 0.333771 0.340982 0.34903 0.355571 0.357923 0.370401 0.381011 0.380411 0.386739 0.38716 0.395697 0.405097 0.408427 0.416106 0.41608 0.416421 0.42482 0.418652 0.38378 0.29925 0.151584 0.0192434 0.000120668 6.60416e-09 1.94178e-13 1.97604e-21 0 0 5.5524e-22 5.42621e-22 5.30562e-22 -7.78543e-22 2.53993e-22 4.97402e-22 0 0 0 0.149204 0.152415 0.183505 0.193856 0.21357 0.219298 0.239353 0.240356 0.252731 0.262016 0.262674 0.276497 0.283698 0.285476 0.29752 0.303948 0.311122 0.316952 0.319049 0.330172 0.339629 0.339094 0.344735 0.345111 0.352721 0.361099 0.364068 0.370913 0.37089 0.371193 0.37868 0.373182 0.342097 0.266749 0.135121 0.0171534 0.000107562 5.88688e-09 1.73166e-13 -8.67263e-22 -5.82325e-22 -2.8423e-22 -5.5524e-22 -5.42621e-22 0 -2.59514e-22 5.07985e-22 -2.48701e-22 2.43626e-22 0 0 0.130877 0.133694 0.160965 0.170045 0.187337 0.192362 0.209953 0.210833 0.221688 0.229832 0.23041 0.242534 0.248851 0.250411 0.260976 0.266614 0.272907 0.278021 0.279861 0.289617 0.297912 0.297443 0.302391 0.302721 0.309396 0.316745 0.31935 0.325353 0.325333 0.3256 0.332167 0.327344 0.300078 0.233984 0.118524 0.0150464 9.43503e-05 5.16379e-09 1.519e-13 -4.51484e-18 0 2.8423e-22 2.7762e-22 -2.7131e-22 -2.65281e-22 -2.59514e-22 0 -2.48701e-22 -2.43626e-22 0 0 0.112421 0.11484 0.138266 0.146066 0.160919 0.165235 0.180346 0.181102 0.190426 0.197422 0.197918 0.208333 0.213759 0.215099 0.224174 0.229017 0.234422 0.238815 0.240395 0.248776 0.255902 0.255499 0.259749 0.260032 0.265766 0.272079 0.274316 0.27