<?xml version="1.0"?>
<VTKFile type="PolyData">
	<PolyData>
		<Piece NumberOfPoints="2601" NumberOfPolys="2500">
			<Points>
				<DataArray type="Float32" NumberOfComponents="3" format="ascii">
 1e-06 0 0 0.248368 0 0 0.284177 0 0 0.315522 0 0 0.34143 0 0 0.361859 0 0 0.379689 0 0 0.396011 0 0 0.410705 0 0 0.423964 0 0 0.435301 0 0 0.445586 0 0 0.455254 0 0 0.464432 0 0 0.472543 0 0 0.479975 0 0 0.486887 0 0 0.493431 0 0 0.499347 0 0 0.504866 0 0 0.510035 0 0 0.514898 0 0 0.519482 0 0 0.523703 0 0 0.527717 0 0 0.531649 0 0 0.536814 0 0 0.54549 0 0 0.560522 0 0 0.580005 0 0 0.600001 0 0 0.620001 0 0 0.640001 0 0 0.660001 0 0 0.680001 0 0 0.700001 0 0 0.720001 0 0 0.740001 0 0 0.760001 0 0 0.780001 0 0 0.800001 0 0 0.820001 0 0 0.840001 0 0 0.860001 0 0 0.880001 0 0 0.900001 0 0 0.920001 0 0 0.940001 0 0 0.960001 0 0 0.980001 0 0 1 0 0 9.99507e-07 3.14108e-08 0 0.248245 0.00780141 0 0.284037 0.00892622 0 0.315366 0.00991079 0 0.341262 0.0107246 0 0.361681 0.0113663 0 0.379502 0.0119263 0 0.395816 0.012439 0 0.410502 0.0129005 0 0.423755 0.013317 0 0.435086 0.0136731 0 0.445366 0.0139962 0 0.45503 0.0142999 0 0.464203 0.0145882 0 0.47231 0.0148429 0 0.479738 0.0150764 0 0.486647 0.0152935 0 0.493188 0.0154991 0 0.499101 0.0156849 0 0.504617 0.0158582 0 0.509783 0.0160206 0 0.514644 0.0161733 0 0.519225 0.0163173 0 0.523444 0.0164499 0 0.527457 0.016576 0 0.531386 0.0166995 0 0.53655 0.0168617 0 0.545221 0.0171343 0 0.560246 0.0176064 0 0.579719 0.0182184 0 0.599705 0.0188465 0 0.619695 0.0194747 0 0.639685 0.0201029 0 0.659675 0.0207311 0 0.679665 0.0213593 0 0.699656 0.0219876 0 0.719646 0.0226158 0 0.739636 0.023244 0 0.759626 0.0238722 0 0.779616 0.0245004 0 0.799606 0.0251286 0 0.819596 0.0257569 0 0.839587 0.0263851 0 0.859577 0.0270133 0 0.879567 0.0276415 0 0.899557 0.0282697 0 0.919547 0.0288979 0 0.939537 0.0295261 0 0.959527 0.0301544 0 0.979517 0.0307826 0 0.999508 0.0314108 0 9.98027e-07 6.27905e-08 0 0.247877 0.0155951 0 0.283616 0.0178436 0 0.3149 0.0198118 0 0.340757 0.0214386 0 0.361145 0.0227213 0 0.37894 0.0238409 0 0.39523 0.0248658 0 0.409894 0.0257884 0 0.423128 0.0266209 0 0.434442 0.0273328 0 0.444706 0.0279785 0 0.454356 0.0285857 0 0.463515 0.0291619 0 0.471611 0.0296712 0 0.479028 0.0301379 0 0.485926 0.0305719 0 0.492458 0.0309828 0 0.498362 0.0313543 0 0.50387 0.0317008 0 0.509029 0.0320254 0 0.513882 0.0323307 0 0.518457 0.0326185 0 0.522669 0.0328836 0 0.526676 0.0331356 0 0.5306 0.0333825 0 0.535755 0.0337069 0 0.544414 0.0342516 0 0.559416 0.0351955 0 0.57886 0.0364188 0 0.598817 0.0376744 0 0.618778 0.0389302 0 0.638738 0.040186 0 0.658699 0.0414418 0 0.678659 0.0426976 0 0.69862 0.0439534 0 0.71858 0.0452092 0 0.738541 0.046465 0 0.758501 0.0477209 0 0.778462 0.0489767 0 0.798422 0.0502325 0 0.818383 0.0514883 0 0.838343 0.0527441 0 0.858304 0.0539999 0 0.878265 0.0552557 0 0.898225 0.0565115 0 0.918186 0.0577673 0 0.938146 0.0590232 0 0.958107 0.060279 0 0.978067 0.0615348 0 0.998028 0.0627906 0 9.95562e-07 9.41083e-08 0 0.247265 0.0233735 0 0.282916 0.0267434 0 0.314122 0.0296933 0 0.339915 0.0321314 0 0.360254 0.034054 0 0.378004 0.0357319 0 0.394254 0.037268 0 0.408882 0.0386507 0 0.422083 0.0398986 0 0.433369 0.0409654 0 0.443608 0.0419333 0 0.453234 0.0428432 0 0.462371 0.0437069 0 0.470446 0.0444703 0 0.477845 0.0451697 0 0.484726 0.0458201 0 0.491241 0.046436 0 0.497131 0.0469927 0 0.502625 0.0475121 0 0.507772 0.0479985 0 0.512613 0.0484562 0 0.517176 0.0488876 0 0.521378 0.0492848 0 0.525375 0.0496626 0 0.529289 0.0500326 0 0.534432 0.0505187 0 0.543069 0.0513352 0 0.558035 0.0527498 0 0.577431 0.0545833 0 0.597338 0.0564651 0 0.617249 0.0583472 0 0.637161 0.0602294 0 0.657072 0.0621116 0 0.676983 0.0639937 0 0.696894 0.0658759 0 0.716806 0.0677581 0 0.736717 0.0696402 0 0.756628 0.0715224 0 0.776539 0.0734046 0 0.796451 0.0752867 0 0.816362 0.0771689 0 0.836273 0.0790511 0 0.856184 0.0809332 0 0.876096 0.0828154 0 0.896007 0.0846976 0 0.915918 0.0865797 0 0.935829 0.0884619 0 0.95574 0.0903441 0 0.975652 0.0922262 0 0.995563 0.0941084 0 9.92115e-07 1.25333e-07 0 0.246409 0.0311287 0 0.281936 0.0356168 0 0.313034 0.0395454 0 0.338738 0.0427926 0 0.359006 0.045353 0 0.376695 0.0475877 0 0.392889 0.0496334 0 0.407466 0.051475 0 0.420621 0.0531368 0 0.431868 0.0545577 0 0.442072 0.0558467 0 0.451664 0.0570585 0 0.46077 0.0582087 0 0.468817 0.0592254 0 0.47619 0.0601568 0 0.483048 0.0610231 0 0.48954 0.0618433 0 0.49541 0.0625848 0 0.500885 0.0632765 0 0.506013 0.0639243 0 0.510838 0.0645338 0 0.515385 0.0651083 0 0.519573 0.0656373 0 0.523556 0.0661405 0 0.527456 0.0666332 0 0.532581 0.0672807 0 0.541189 0.0683681 0 0.556103 0.0702521 0 0.575431 0.0726939 0 0.59527 0.0752001 0 0.615112 0.0777067 0 0.634954 0.0802134 0 0.654797 0.0827201 0 0.674639 0.0852267 0 0.694481 0.0877334 0 0.714324 0.0902401 0 0.734166 0.0927467 0 0.754008 0.0952534 0 0.77385 0.09776 0 0.793693 0.100267 0 0.813535 0.102773 0 0.833377 0.10528 0 0.85322 0.107787 0 0.873062 0.110293 0 0.892904 0.1128 0 0.912747 0.115307 0 0.932589 0.117813 0 0.952431 0.12032 0 0.972273 0.122827 0 0.992116 0.125333 0 9.87688e-07 1.56434e-07 0 0.24531 0.0388532 0 0.280679 0.0444551 0 0.311638 0.0493585 0 0.337227 0.0534115 0 0.357404 0.0566073 0 0.375015 0.0593965 0 0.391136 0.0619498 0 0.405648 0.0642484 0 0.418745 0.0663226 0 0.429941 0.068096 0 0.4401 0.0697049 0 0.449649 0.0712175 0 0.458714 0.0726531 0 0.466725 0.0739221 0 0.474066 0.0750847 0 0.480892 0.0761659 0 0.487356 0.0771897 0 0.493199 0.0781151 0 0.49865 0.0789784 0 0.503756 0.0797871 0 0.508559 0.0805478 0 0.513086 0.0812649 0 0.517255 0.0819251 0 0.52122 0.0825531 0 0.525103 0.0831682 0 0.530205 0.0839763 0 0.538774 0.0853335 0 0.553621 0.087685 0 0.572864 0.0907327 0 0.592614 0.0938608 0 0.612368 0.0969895 0 0.632122 0.100118 0 0.651875 0.103247 0 0.671629 0.106376 0 0.691383 0.109504 0 0.711137 0.112633 0 0.73089 0.115762 0 0.750644 0.11889 0 0.770398 0.122019 0 0.790152 0.125148 0 0.809905 0.128276 0 0.829659 0.131405 0 0.849413 0.134534 0 0.869167 0.137662 0 0.88892 0.140791 0 0.908674 0.14392 0 0.928428 0.147049 0 0.948182 0.150177 0 0.967936 0.153306 0 0.987689 0.156435 0 9.82287e-07 1.87381e-07 0 0.243968 0.0465394 0 0.279144 0.0532495 0 0.309933 0.059123 0 0.335383 0.0639777 0 0.35545 0.0678057 0 0.372964 0.0711467 0 0.388997 0.0742051 0 0.40343 0.0769584 0 0.416455 0.079443 0 0.42759 0.0815672 0 0.437693 0.0834944 0 0.447191 0.0853062 0 0.456205 0.0870258 0 0.464173 0.0885458 0 0.471474 0.0899384 0 0.478263 0.0912335 0 0.484691 0.0924598 0 0.490502 0.0935683 0 0.495923 0.0946025 0 0.501001 0.095571 0 0.505778 0.0964822 0 0.51028 0.0973412 0 0.514426 0.0981321 0 0.51837 0.0988843 0 0.522232 0.099621 0 0.527306 0.100589 0 0.535828 0.102215 0 0.550594 0.105031 0 0.569731 0.108682 0 0.589373 0.112429 0 0.609019 0.116177 0 0.628665 0.119924 0 0.648311 0.123672 0 0.667956 0.127419 0 0.687602 0.131167 0 0.707248 0.134915 0 0.726894 0.138662 0 0.746539 0.14241 0 0.766185 0.146158 0 0.785831 0.149905 0 0.805477 0.153653 0 0.825122 0.1574 0 0.844768 0.161148 0 0.864414 0.164896 0 0.88406 0.168643 0 0.903705 0.172391 0 0.923351 0.176139 0 0.942997 0.179886 0 0.962642 0.183634 0 0.982288 0.187382 0 9.75917e-07 2.18143e-07 0 0.242386 0.0541797 0 0.277333 0.0619913 0 0.307923 0.068829 0 0.333208 0.0744807 0 0.353145 0.0789372 0 0.370545 0.0828267 0 0.386474 0.0863872 0 0.400814 0.0895925 0 0.413754 0.0924849 0 0.424817 0.0949579 0 0.434854 0.0972015 0 0.44429 0.0993107 0 0.453247 0.101313 0 0.461163 0.103082 0 0.468416 0.104703 0 0.475161 0.106211 0 0.481548 0.107639 0 0.487321 0.108929 0 0.492707 0.110133 0 0.497752 0.111261 0 0.502497 0.112321 0 0.506971 0.113321 0 0.51109 0.114242 0 0.515008 0.115118 0 0.518845 0.115976 0 0.523886 0.117102 0 0.532353 0.118995 0 0.547023 0.122274 0 0.566036 0.126524 0 0.585551 0.130886 0 0.605069 0.135249 0 0.624588 0.139612 0 0.644106 0.143975 0 0.663624 0.148338 0 0.683143 0.1527 0 0.702661 0.157063 0 0.722179 0.161426 0 0.741698 0.165789 0 0.761216 0.170152 0 0.780734 0.174515 0 0.800253 0.178878 0 0.819771 0.183241 0 0.839289 0.187603 0 0.858808 0.191966 0 0.878326 0.196329 0 0.897844 0.200692 0 0.917363 0.205055 0 0.936881 0.209418 0 0.956399 0.213781 0 0.975918 0.218143 0 9.68583e-07 2.4869e-07 0 0.240565 0.0617665 0 0.275249 0.070672 0 0.305609 0.0784672 0 0.330704 0.0849103 0 0.350491 0.0899908 0 0.367761 0.0944249 0 0.38357 0.098484 0 0.397802 0.102138 0 0.410645 0.105436 0 0.421625 0.108255 0 0.431587 0.110813 0 0.440952 0.113217 0 0.449841 0.115499 0 0.457697 0.117517 0 0.464896 0.119365 0 0.47159 0.121084 0 0.477929 0.122711 0 0.483659 0.124183 0 0.489005 0.125555 0 0.494011 0.126841 0 0.498721 0.12805 0 0.503161 0.12919 0 0.50725 0.13024 0 0.511138 0.131238 0 0.514946 0.132216 0 0.519949 0.1335 0 0.528353 0.135658 0 0.542913 0.139396 0 0.561783 0.144241 0 0.581151 0.149214 0 0.600523 0.154188 0 0.619894 0.159162 0 0.639266 0.164136 0 0.658638 0.169109 0 0.678009 0.174083 0 0.697381 0.179057 0 0.716753 0.184031 0 0.736124 0.189005 0 0.755496 0.193978 0 0.774867 0.198952 0 0.794239 0.203926 0 0.813611 0.2089 0 0.832982 0.213874 0 0.852354 0.218847 0 0.871726 0.223821 0 0.891097 0.228795 0 0.910469 0.233769 0 0.929841 0.238743 0 0.949212 0.243716 0 0.968584 0.24869 0 9.60294e-07 2.78991e-07 0 0.238506 0.0692923 0 0.272894 0.0792829 0 0.302994 0.0880279 0 0.327873 0.095256 0 0.347491 0.100956 0 0.364613 0.10593 0 0.380287 0.110484 0 0.394397 0.114583 0 0.40713 0.118282 0 0.418017 0.121445 0 0.427893 0.124314 0 0.437178 0.127012 0 0.445991 0.129572 0 0.45378 0.131835 0 0.460917 0.133909 0 0.467554 0.135837 0 0.473839 0.137663 0 0.47952 0.139313 0 0.48482 0.140853 0 0.489783 0.142295 0 0.494453 0.143652 0 0.498855 0.144931 0 0.502908 0.146108 0 0.506763 0.147228 0 0.510539 0.148325 0 0.515499 0.149766 0 0.523831 0.152187 0 0.538266 0.156381 0 0.556975 0.161816 0 0.576177 0.167395 0 0.595383 0.172975 0 0.614589 0.178555 0 0.633795 0.184134 0 0.653001 0.189714 0 0.672207 0.195294 0 0.691412 0.200874 0 0.710618 0.206454
[...]
			<PointData Scalars="VitesseX">
				<DataArray Name="VitesseX" type="Float32" format="ascii">
 0 0.663223 0.932447 0.957424 1.08347 1.18296 1.19836 1.32811 1.3497 1.40833 1.48948 1.50947 1.52853 1.57227 1.66955 1.63771 1.68217 1.70492 1.78972 1.83364 1.82039 1.86878 1.89802 1.9111 1.96465 1.91052 1.65439 1.0465 0.213035 0.00304269 3.55196e-07 6.22656e-12 1.09669e-16 0 0 0 0 0 0 0 0 0 0 0 0 0 0 0 0 0 0 0 0.662895 0.931987 0.956952 1.08293 1.18238 1.19777 1.32745 1.34904 1.40763 1.48874 1.50872 1.52778 1.5715 1.66873 1.63691 1.68134 1.70407 1.78884 1.83274 1.8195 1.86785 1.89708 1.91016 1.96368 1.90958 1.65358 1.04598 0.21293 0.00304119 3.55021e-07 6.22349e-12 1.12914e-16 0 4.27959e-22 0 -4.04184e-22 0 0 0 3.63765e-22 3.54893e-22 -3.46443e-22 -3.38387e-22 0 0 3.16318e-22 -3.09588e-22 0 5.93903e-22 0 0 0.661914 0.930607 0.955535 1.08133 1.18063 1.196 1.32549 1.34704 1.40555 1.48654 1.50649 1.52552 1.56917 1.66626 1.63448 1.67885 1.70155 1.78619 1.83002 1.8168 1.86509 1.89427 1.90733 1.96077 1.90675 1.65113 1.04443 0.212614 0.00303669 3.54495e-07 6.21427e-12 1.14459e-16 0 0 -4.15732e-22 0 0 0 0 0 0 -3.46443e-22 0 0 0 3.16318e-22 -6.19175e-22 0 0 0 0 0.660279 0.928309 0.953175 1.07866 1.17771 1.19304 1.32221 1.34371 1.40208 1.48287 1.50277 1.52175 1.56529 1.66214 1.63045 1.6747 1.69735 1.78178 1.8255 1.81232 1.86048 1.8896 1.90262 1.95593 1.90205 1.64705 1.04186 0.212089 0.00302919 3.5362e-07 6.19893e-12 1.24258e-16 0 4.27959e-22 0 4.04184e-22 0 0 0 0 0 0 0 0 6.46694e-22 3.16318e-22 -3.09588e-22 0 0 0 0 0.657993 0.925094 0.949875 1.07492 1.17363 1.18891 1.31763 1.33906 1.39722 1.47773 1.49756 1.51648 1.55987 1.65639 1.6248 1.6689 1.69147 1.77561 1.81918 1.80604 1.85404 1.88305 1.89603 1.94916 1.89546 1.64135 1.03825 0.211355 0.0030187 3.52395e-07 6.17746e-12 1.24585e-16 0 0 0 0 0 3.82911e-22 0 0 0 0 0 -3.30696e-22 3.23347e-22 -6.32636e-22 0 -3.03138e-22 -2.96951e-22 0 0 0.655057 0.920967 0.945637 1.07013 1.1684 1.18361 1.31175 1.33309 1.39099 1.47114 1.49088 1.50971 1.55292 1.649 1.61755 1.66146 1.68392 1.76769 1.81107 1.79798 1.84577 1.87465 1.88758 1.94046 1.887 1.63402 1.03362 0.210412 0.00300523 3.50823e-07 6.14993e-12 1.29134e-16 4.40928e-22 -4.27959e-22 -4.15732e-22 0 -3.9326e-22 -3.82911e-22 0 3.63765e-22 0 -3.46443e-22 0 0 3.23347e-22 0 6.19175e-22 -3.03138e-22 0 0 0 0.651475 0.915931 0.940466 1.06427 1.16201 1.17714 1.30458 1.3258 1.38338 1.46309 1.48273 1.50146 1.54442 1.63998 1.6087 1.65237 1.67472 1.75802 1.80116 1.78815 1.83568 1.8644 1.87725 1.92985 1.87668 1.62509 1.02796 0.209261 0.0029888 3.48905e-07 6.11629e-12 1.4599e-16 0 4.27959e-22 0 0 0 3.82911e-22 0 0 0 3.46443e-22 0 -3.30696e-22 -3.23347e-22 0 6.19175e-22 -3.03138e-22 2.96951e-22 0 0 0.64725 0.90999 0.934367 1.05737 1.15447 1.1695 1.29612 1.3172 1.37441 1.45361 1.47311 1.49172 1.53441 1.62934 1.59827 1.64166 1.66386 1.74662 1.78948 1.77655 1.82377 1.85231 1.86508 1.91734 1.86451 1.61455 1.0213 0.207904 0.00296941 3.46642e-07 6.07662e-12 1.32738e-16 -4.40928e-22 0 -4.15732e-22 0 0 0 -3.73093e-22 0 0 -3.46443e-22 3.38387e-22 0 -3.23347e-22 -3.16318e-22 -3.09588e-22 0 0 0 0 0.642386 0.903152 0.927345 1.04943 1.14579 1.16071 1.28638 1.3073 1.36408 1.44268 1.46204 1.48051 1.52288 1.6171 1.58626 1.62932 1.65135 1.73349 1.77603 1.7632 1.81007 1.83839 1.85106 1.90293 1.8505 1.60242 1.01362 0.206342 0.0029471 3.44037e-07 6.03095e-12 1.5757e-16 0 0 0 0 3.9326e-22 0 0 0 0 0 3.38387e-22 6.61392e-22 -3.23347e-22 0 0 0 2.96951e-22 0 0 0.636888 0.895423 0.919409 1.04045 1.13599 1.15078 1.27537 1.29611 1.35241 1.43034 1.44953 1.46784 1.50984 1.60326 1.57269 1.61538 1.63722 1.71866 1.76083 1.74811 1.79457 1.82266 1.83522 1.88664 1.83466 1.5887 1.00495 0.204576 0.00292188 3.41093e-07 5.97934e-12 1.33913e-16 0 -4.27959e-22 0 0 3.9326e-22 -3.82911e-22 0 0 0 -6.92887e-22 -6.76773e-22 6.61392e-22 3.23347e-22 3.16318e-22 0 0 2.96951e-22 0 0 0.630762 0.88681 0.910565 1.03044 1.12506 1.13971 1.2631 1.28364 1.3394 1.41658 1.43559 1.45372 1.49532 1.58784 1.55756 1.59984 1.62147 1.70213 1.7439 1.7313 1.77731 1.80512 1.81757 1.86849 1.81702 1.57342 0.99528 0.202608 0.00289377 3.37812e-07 5.92187e-12 1.4039e-16 -2.20464e-22 0 0 0 0 0 3.73093e-22 -3.63765e-22 7.09786e-22 3.46443e-22 0 0 0 -3.16318e-22 -3.09588e-22 -3.03138e-22 2.96951e-22 0 0 0.624013 0.877321 0.900822 1.01941 1.11302 1.12752 1.24959 1.26991 1.32507 1.40142 1.42023 1.43817 1.47932 1.57085 1.54089 1.58272 1.60412 1.68391 1.72524 1.71277 1.7583 1.78581 1.79812 1.8485 1.79758 1.55659 0.984631 0.20044 0.00286281 3.34197e-07 5.85847e-12 1.81649e-16 0 2.1398e-22 0 0 -3.9326e-22 3.82911e-22 3.73093e-22 -3.63765e-22 -3.54893e-22 -3.46443e-22 0 -3.30696e-22 3.23347e-22 3.16318e-22 -3.09588e-22 -3.03138e-22 5.93903e-22 0 0 0.616649 0.866967 0.890191 1.00738 1.09989 1.11421 1.23484 1.25492 1.30943 1.38488 1.40347 1.42119 1.46186 1.55231 1.52271 1.56404 1.58519 1.66404 1.70488 1.69256 1.73754 1.76473 1.7769 1.82669 1.77636 1.53822 0.973011 0.198075 0.00282902 3.30253e-07 5.78927e-12 2.58596e-16 0 -4.27959e-22 -2.07866e-22 -2.02092e-22 -1.9663e-22 3.82911e-22 -3.73093e-22 0 -3.54893e-22 0 3.38387e-22 -3.30696e-22 -3.23347e-22 -3.16318e-22 -3.09588e-22 -3.03138e-22 0 0 0 0.608676 0.855757 0.878681 0.994356 1.08567 1.0998 1.21888 1.2387 1.2925 1.36697 1.38532 1.40282 1.44296 1.53224 1.50302 1.54382 1.56469 1.64252 1.68283 1.67068 1.71508 1.74192 1.75392 1.80307 1.75339 1.51833 0.96043 0.195514 0.00279244 3.25983e-07 5.71434e-12 2.1684e-16 -4.40928e-22 0 4.15732e-22 2.02092e-22 -1.9663e-22 0 3.73093e-22 3.63765e-22 0 0 0 0 6.46694e-22 0 3.09588e-22 0 -2.96951e-22 0 0 0.600102 0.843703 0.866304 0.980349 1.07037 1.08431 1.20171 1.22125 1.27429 1.34772 1.36581 1.38306 1.42263 1.51066 1.48185 1.52207 1.54265 1.61939 1.65913 1.64714 1.69092 1.71738 1.72922 1.77767 1.72869 1.49694 0.946901 0.19276 0.00275311 3.21391e-07 5.63394e-12 2.00513e-16 -2.20464e-22 -2.1398e-22 2.07866e-22 2.02092e-22 1.9663e-22 -1.91456e-22 -1.86546e-22 0 0 3.46443e-22 0 0 0 -3.16318e-22 0 3.03138e-22 -2.96951e-22 0 0 0.590936 0.830816 0.853071 0.965375 1.05402 1.06775 1.18335 1.20259 1.25483 1.32713 1.34494 1.36193 1.4009 1.48758 1.45921 1.49882 1.51909 1.59465 1.63379 1.62198 1.66509 1.69115 1.70281 1.75052 1.70229 1.47407 0.932438 0.189815 0.00271106 3.16482e-07 5.54786e-12 1.74836e-16 2.20464e-22 0 -6.23598e-22 0 0 0 0 -3.63765e-22 -1.77447e-22 0 3.38387e-22 0 0 3.16318e-22 0 3.03138e-22 2.96951e-22 0 0 0.581186 0.817109 0.838997 0.949448 1.03664 1.05013 1.16383 1.18275 1.23413 1.30524 1.32275 1.33946 1.37779 1.46304 1.43514 1.4741 1.49403 1.56834 1.60683 1.59522 1.63762 1.66325 1.67471 1.72164 1.67421 1.44976 0.917055 0.186684 0.00266633 3.11261e-07 5.45636e-12 1.62878e-16 -4.40928e-22 2.1398e-22 0 2.02092e-22 3.9326e-22 5.74367e-22 3.73093e-22 1.81883e-22 3.54893e-22 -3.46443e-22 -3.38387e-22 1.65348e-22 -3.23347e-22 -3.16318e-22 0 0 -2.96951e-22 0 0 0.570864 0.802596 0.824095 0.932585 1.01822 1.03148 1.14316 1.16175 1.21221 1.28206 1.29926 1.31567 1.35332 1.43705 1.40965 1.44791 1.46749 1.54049 1.57829 1.56689 1.60853 1.6337 1.64497 1.69106 1.64447 1.42401 0.900766 0.183368 0.00261897 3.05732e-07 5.35945e-12 1.31914e-16 2.20464e-22 2.1398e-22 0 -4.04184e-22 -3.9326e-22 0 -1.86546e-22 -1.81883e-22 5.3234e-22 1.73222e-22 0 0 0 3.16318e-22 3.09588e-22 3.03138e-22 -2.96951e-22 0 0 0.559977 0.787291 0.80838 0.9148 0.998806 1.01181 1.12136 1.13959 1.18909 1.25761 1.27448 1.29058 1.32751 1.40965 1.38277 1.4203 1.43951 1.51111 1.5482 1.53701 1.57786 1.60255 1.6136 1.65881 1.61311 1.39685 0.883589 0.179871 0.00256903 2.99902e-07 5.25733e-12 1.78602e-16 -4.40928e-22 2.1398e-22 0 4.04184e-22 5.8989e-22 -5.74367e-22 5.59639e-22 -5.45648e-22 3.54893e-22 -5.19665e-22 3.38387e-22 0 -3.23347e-22 -1.58159e-22 -1.54794e-22 0 -2.96951e-22 0 0 0.548539 0.771209 0.791867 0.896114 0.978403 0.991143 1.09845 1.11631 1.1648 1.23192 1.24845 1.26422 1.3004 1.38085 1.35452 1.39129 1.4101 1.48024 1.51657 1.50561 1.54563 1.56981 1.58064 1.62492 1.58016 1.36832 0.86554 0.176197 0.00251655 2.93776e-07 5.14979e-12 1.59356e-16 -6.61392e-22 1.0699e-22 1.03933e-22 0 -5.8989e-22 -1.91456e-22 -1.86546e-22 -1.81883e-22 3.54893e-22 -8.66108e-22 3.38387e-22 3.30696e-22 -3.23347e-22 1.58159e-22 -3.09588e-22 3.03138e-22 -2.96951e-22 0 0 0.536558 0.754365 0.774573 0.876542 0.957034 0.969496 1.07446 1.09193 1.13936 1.20501 1.22118 1.23661 1.272 1.3507 1.32494 1.3609 1.37931 1.44791 1.48345 1.47273 1.51187 1.53553 1.54612 1.58944 1.54565 1.33843 0.846636 0.172349 0.00246159 2.8736e-07 5.03737e-12 1.78861e-16 4.40928e-22 -2.1398e-22 2.07866e-22 5.0523e-22 -1.9663e-22 -1.91456e-22 -1.86546e-22 1.81883e-22 7.09786e-22 0 -1.69193e-22 3.30696e-22 1.61674e-22 -3.16318e-22 -3.09588e-22 0 0 0 0 0.524049 0.736777 0.756514 0.856106 0.934721 0.946892 1.04941 1.06647 1.1128 1.17692 1.19271 1.20778 1.24234 1.3192 1.29405 1.32917 1.34715 1.41416 1.44886 1.43839 1.47662 1.49973 1.51007 1.55238 1.50961 1.30723 0.826897 0.16833 0.0024042 2.8066e-07 4.91993e-12 2.08204e-16 2.20464e-22 1.0699e-22 0 1.01046e-22 9.8315e-23 -9.57278e-23 1.86546e-22 -3.63765e-22 -5.3234e-22 6.92887e-22 0 -4.96044e-22 0 0 -1.54794e-22 -3.03138e-22 -2.96951e-22 0 0 0.511022 0.718463 0.737708 0.834825 0.911486 0.923354 1.02332 1.03996 1.08514 1.14766 1.16306 1.17775 1.21146 1.28641 1.26188 1.29613 1.31366 1.379 1.41285 1.40264 1.43992 1.46245 1.47253 1.51379 1.47208 1.27473 0.806342 0.164146 0.00234443 2.73683e-07 4.79759e-12 1.34855e-16 -5.5116e-23 0 -3.11799e-22 1.01046e-22 2.94945e-22 -7.65822e-22 4.66366e-22 1.81883e-22 0 -3.46443e-22 1.69193e-22 3.30696e-22 4.85021e-22 -1.58159e-22 4.64382e-22 4.54707e-22 -1.48476e-22 0 0 0.497491 0.699439 0.718175 0.81272 0.887351 0.898905 0.996227 1.01243 1.0564 1.11727 1.13227 1.14657 1.17938 1.25235 1.22847 1.26181 1.27888 1.34249 1.37544 1.3655 1.40179 1.42373 1.43354 1.47371 1.43311 1.24098 0.784991 0.1598 0.00228236 2.66437e-07 4.67062e-12 1.09498e-16 2.20464e-22 0 4.67698e-22 2.02092e-22 1.9663e-22 -2.87183e-22 2.7982e-22 9.09414e-23 6.21063e-22 8.66108e-23 -3.38387e-22 -1.65348e-22 0 -4.74477e-22 -1.54794e-22 0 -1.48476e-22 0 0 0.483468 0.679724 0.697932 0.789813 0.86234 0.873569 0.968148 0.983891 1.02663 1.08578 1.10035 1.11425 1.14614 1.21705 1.19384 1.22625 1.24283 1.30465 1.33667 1.32701 1.36228 1.3836 1.39314 1.43217 1.39271 1.206 0.762865 0.155296 0.00221803 2.58927e-07 4.53901e-12 1.48733e-16 2.7558e-22 -2.67475e-22 -3.63765e-22 2.52615e-22 -1.47472e-22 -1.91456e-22 -1.86546e-22 -3.63765e-22 0 1.73222e-22 1.69193e-22 -1.65348e-22 0 0 -1.54794e-22 1.51569e-22 1.48476e-22 0 0 0.468969 0.659339 0.677001 0.766126 0.836479 0.84737 0.939113 0.954384 0.995839 1.05322 1.06735 1.08084 1.11176 1.18055 1.15804 1.18947 1.20556 1.26552 1.29658 1.28721 1.32142 1.3421 1.35135 1.38922 1.35094 1.16983 0.739987 0.150638 0.00215151 2.51162e-07 4.4028e-12 1.31584e-16 -1.10232e-22 -2.40727e-22 -3.63765e-22 -1.51569e-22 1.9663e-22 -4.30775e-22 -4.66366e-23 -6.3659e-22 -2.6617e-22 2.59833e-22 1.69193e-22 -1.65348e-22 0 1.58159e-22 -7.73969e-23 -1.51569e-22 2.96951e-22 0 0 0.454007 0.638304 0.655402 0.741683 0.809791 0.820336 0.909151 0.923935 0.964068 1.01962 1.0333 1.04635 1.07629 1.14289 1.12109 1.15152 1.16709 1.22515 1.25521 1.24615 1.27927 1.29928 1.30824 1.3449 1.30784 1.13251 0.716378 0.145832 0.00208287 2.43149e-07 4.26247e-12 1.7055e-16 7.57845e-23 -3.67778e-22 4.8069e-22 -4.54707e-22 2.45787e-23 2.87183e-22 -1.86546e-22 2.72824e-22 1.77447e-22 8.66108e-23 -1.69193e-22 8.2674e-23 4.04184e-22 0 3.86985e-22 -4.54707e-22 3.71189e-22 0 0 0.438597 0.616638 0.633156 0.716509 0.782305 0.792492 0.878292 0.892574 0.931345 0.985009 0.998228 1.01084 1.03976 1.10409 1.08304 1.11244 1.12748 1.18356 1.21261 1.20385 1.23584 1.25518 1.26384 1.29925 1.26345 1.09407 0.692063 0.140882 0.00201217 2.34896e-07 4.11768e-12 9.18307e-17 4.96044e-22 6.68686e-23 -1.16925e-22 -2.84192e-22 9.8315e-23 9.57278e-23 4.66366e-22 -8.18472e-22 -2.21808e-22 -2.16527e-22 4.65281e-22 -4.1337e-23 0 1.58159e-22 3.09588e-22 -6.06276e-22 5.93903e-22 0 0 0.422754 0.594364 0.610285 0.690627 0.754047 0.763865 0.846567 0.860333 0.897703 0.949429 0.96217 0.974323 1.0022 1.06421 1.04392 1.07225 1.08675 1.14081 1.16881 1.16036 1.1912 1.20984 1.21818 1.25232 1.21781 1.05455 0.667064 0.135793 0.00193948 2.26411e-07 3.96902e-12 1.64007e-16 5.5116e-22 2.94222e-22 -1.55899e-22 -7.57845e-22 4.30128e-23 4.03851e-23 -1.63228e-22 4.09236e-22 8.87233e-22 -3.46443e-22 -1.05746e-21 1.65348e-22 -2.02092e-22 -3.55858e-22 1.54794e-22 -3.03138e-22 0 0 0 0.406494 0.571503 0.586812 0.664064 0.725044 0.734485 0.814006 0.827242 0.863175 0.912911 0.925162 0.936848 0.963657 1.02328 1.00377 1.03101 1.04495 1.09693 1.12385 1.11573 1.14539 1.16331 1.17133 1.20415 1.17097 1.01399 0.641407 0.130571 0.00186489 2.17702e-07 3.81629e-12 1.37488e-16 3.30696e-22 3.20969e-22 1.03933e-22 1.01046e-22 -1.22894e-22 -4.78639e-22 6.41253e-22 8.66785e-23 2.71715e-22 4.43881e-22 2.32641e-22 4.1337e-22 -5.65858e-22 -2.76778e-22 3.86985e-23 7.57845e-23 3.71189e-22 0 0 0.389832 0.548078 0.56276 0.636845 0.695326 0.70438 0.780641 0.793335 0.827795 0.875493 0.887242 0.898449 0.924158 0.981338 0.962624 0.988754 1.00212 1.05197 1.07779 1.07 1.09844 1.11563 1.12332 1.15479 1.12298 0.972428 0.615117 0.125219 0.00178845 2.08779e-07 3.65996e-12 1.47792e-16 -3.30696e-22 -2.67475e-22 2.07866e-22 1.01046e-22 9.8315e-23 7.65822e-22 -4.89684e-22 2.72824e-22 3.43803e-22 5.9545e-23 2.45859e-22 -2.06685e-23 5.15335e-22 -2.37238e-22 4.25683e-22 1.89461e-22 -3.71189e-22 0 0 0.372786 0.524113 0.538152 0.608998 0.664922 0.67358 0.746506 0.758645 0.791599 0.83721 0.848446 0.859163 0.883748 0.938427 0.920531 0.945519 0.958304 1.00597 1.03066 1.02321 1.05041 1.06685 1.0742 1.1043 1.07387 0.929907 0.58822 0.119743 0.00171025 1.9965e-07 3.49988e-12 1.39297e-16 1.10232e-22 -2.1398e-22 -2.07866e-22 -6.56799e-22 -2.94945e-22 -1.43592e-22 -3.73093e-22 -4.09236e-22 -6.65425e-23 -6.06276e-22 7.19071e-22 -3.4103e-22 -4.54707e-23 9.63781e-23 3.67635e-22 6.25222e-22 2.78392e-22 0 0 0.355372 0.49963 0.513014 0.58055 0.633861 0.642115 0.711635 0.723207 0.754621 0.798102 0.808812 0.819029 0.842466 0.894591 0.877531 0.901351 0.913539 0.95898 0.982514 0.975416 1.00134 1.01701 1.02402 1.05271 1.02371 0.886468 0.560743 0.11415 0.00163036 1.90324e-07 3.33631e-12 1.32787e-16 -2.20464e-22 0 6.23598e-22 -3.03138e-22 -2.94945e-22 9.57278e-23 -9.32732e-23 -2.72824e-22 -2.21808e-22 5.19665e-22 -3.38387e-22 -1.44679e-22 -1.41464e-22 3.55858e-22 2.22516e-22 -3.78922e-22 -3.6365e-22 0 0 0.337608 0.474654 0.487369 0.551529 0.602175 0.610016 0.676061 0.687054 0.716898 0.758206 0.768381 0.778086 0.800352 0.849871 0.833664 0.856293 0.867872 0.911042 0.9334 0.926656 0.951285 0.96617 0.972831 1.00009 0.972536 0.842154 0.532712 0.108444 0.00154886 1.8081e-07 3.16955e-12 9.82383e-17 -1.10232e-22 -4.27959e-22 2.07866e-22 -3.03138e-22 -2.94945e-22 -1.91456e-22 2.7982e-22 9.09414e-23 -5.3234e-22 -7.79498e-22 -3.80685e-22 -1.65348e-22 -2.82929e-22 -3.95397e-22 3.09588e-22 2.08407e-22 -2.04154e-22 0 0 0.31951 0.44921 0.461243 0.521964 0.569895 0.577316 0.63982 0.650224 0.678468 0.717561 0.727191 0.736376 0.757448 0.804313 0.788974 0.810391 0.821349 0.862204 0.883364 0.876982 0.90029 0.914378 0.920682 0.946478 0.920402 0.79701 0.504155 0.10263 0.00146583 1.71117e-07 2.99966e-12 7.18213e-17 0 0 -2.07866e-22 0 0 0 0 0 -8.87233e-23 4.33054e-22 -2.5379e-22 -2.48022e-22 -2.4251e-22 -2.37238e-22 -2.70889e-22 1.89461e-22 -4.08308e-22 0 0 0.301097 0.423322 0.434662 0.491883 0.537052 0.544045 0.602948 0.612752 0.639368 0.676209 0.685283 0.693939 0.713797 0.757961 0.743506 0.763688 0.774015 0.812516 0.832456 0.826442 0.848407 0.861683 0.867623 0.891933 0.86736 0.751079 0.475101 0.0967158 0.00138135 1.61256e-07 2.82684e-12 8.8705e-17 4.40928e-22 4.27959e-22 -2.07866e-22 -5.0523e-22 -3.9326e-22 -1.91456e-22 -1.86546e-22 -1.81883e-22 -4.43616e-22 -1.73222e-22 -4.22983e-22 8.2674e-23 4.04184e-22 7.90795e-23 -7.73969e-23 1.89461e-22 0 0 0 0.282386 0.397017 0.407652 0.461317 0.50368 0.510238 0.56548 0.574675 0.599638 0.634189 0.642699 0.650817 0.669441 0.710861 0.697304 0.716232 0.725918 0.762026 0.780727 0.775086 0.795686 0.808137 0.813709 0.836508 0.813462 0.704406 0.445578 0.0907058 0.00129552 1.51235e-07 2.65116e-12 1.19776e-16 4.40928e-22 4.27959e-22 0 -2.02092e-22 3.9326e-22 -3.82911e-22 -5.59639e-22 -5.45648e-22 -2.6617e-22 -2.59833e-22 -5.92176e-22 -3.30696e-22 4.85021e-22 3.16318e-22 -6.96572e-22 -6.8206e-22 7.42379e-23 0 0 0.263397 0.370319 0.380239 0.430296 0.46981 0.475927 0.527455 0.536031 0.559315 0.591543 0.599481 0.607053 0.624425 0.663059 0.650414 0.66807 0.677103 0.710784 0.728227 0.722966 0.742181 0.753794 0.758991 0.780257 0.758761 0.657039 0.415615 0.0846063 0.0012084 1.41065e-07 2.47281e-12 4.48987e-17 2.20464e-22 0 0 0 3.9326e-22 3.82911e-22 3.73093e-22 3.63765e-22 0 0 3.38387e-22 0 8.08368e-23 5.53556e-22 2.32191e-22 -2.27353e-22 -1.48476e-22 0 0 0.244149 0.343257 0.352451 0.39885 0.435476 0.441147 0.488908 0.496859 0.518441 0.548313 0.555671 0.56269 0.578792 0.614603 0.602882 0.619247 0.627621 0.65884 0.675009 0.670132 0.687943 0.698708 0.703524 0.723236 0.703311 0.609023 0.385242 0.0784233 0.00112009 1.30756e-07 2.29212e-12 8.71434e-17 -2.20464e-22 -2.1398e-22 -4.15732e-22 -2.02092e-22 0 5.74367e-22 -1.86546e-22 1.81883e-22 5.3234e-22 -1.73222e-22 0 -1.65348e-22 -1.61674e-22 1.58159e-22 1.54794e-22 -1.51569e-22 -2.96951e-22 0 0 0.224659 0.315855 0.324316 0.367011 0.400713 0.405931 0.44988 0.457195 0.477055 0.504542 0.511313 0.517772 0.532588 0.56554 0.554756 0.569814 0.577519 0.606246 0.621124 0.616637 0.633026 0.642931 0.647364 0.665502 0.647167 0.560406 0.354489 0.072163 0.00103068 1.20318e-07 2.10917e-12 4.39716e-17 6.61392e-22 0 -4.15732e-22 -2.02092e-22 -1.9663e-22 5.74367e-22 -3.73093e-22 -1.81883e-22 -1.77447e-22 -3.46443e-22 0 0 0 3.16318e-22 3.09588e-22 -3.03138e-22 -4.45427e-22 0 0 0.204947 0.288142 0.29586 0.334809 0.365555 0.370314 0.410407 0.417081 0.435198 0.460274 0.466451 0.472343 0.485859 0.51592 0.506081 0.519819 0.526848 0.553054 0.566627 0.562533 0.577484 0.58652 0.590564 0.607111 0.590384 0.511235 0.323386 0.0658314 0.000940243 1.09762e-07 1.92407e-12 5.10568e-17 -4.40928e-22 4.27959e-22 -6.23598e-22 -8.08368e-22 -3.9326e-22 -1.91456e-22 3.73093e-22 5.45648e-22 -3.54893e-22 3.46443e-22 -1.69193e-22 4.96044e-22 -3.23347e-22 -3.16318e-22 3.09588e-22 3.03138e-22 -5.93903e-22 0 0 0.185033 0.260144 0.267113 0.302277 0.330035 0.334333 0.37053 0.376555 0.392911 0.415551 0.421128 0.426447 0.43865 0.46579 0.456907 0.46931 0.475656 0.499316 0.51157 0.507874 0.521372 0.529531 0.533181 0.54812 0.533019 0.461561 0.291964 0.0594348 0.000848884 9.90966e-08 1.73717e-12 3.97991e-17 -6.61392e-22 2.1398e-22 4.15732e-22 4.04184e-22 3.9326e-22 1.91456e-22 -3.73093e-22 3.63765e-22 0 0 3.38387e-22 3.30696e-22 3.23347e-22 -4.74477e-22 1.54794e-22 3.03138e-22 0 0 0 0.164937 0.23189 0.238102 0.269447 0.29419 0.298021 0.330287 0.335657 0.350237 0.370418 0.375389 0.380131 0.391008 0.415201 0.407283 0.418338 0.423995 0.445085 0.456008 0.452714 0.464746 0.472018 0.475272 0.488589 0.475128 0.411431 0.260254 0.0529796 0.000756687 8.83337e-08 1.54845e-12 4.47023e-17 -2.20464e-22 -4.27959e-22 2.07866e-22 -2.02092e-22 -3.9326e-22 -1.91456e-22 -1.86546e-22 -1.81883e-22 -3.54893e-22 -1.73222e-22 -3.38387e-22 -3.30696e-22 0 -1.58159e-22 3.09588e-22 -1.51569e-22 1.48476e-22 0 0 0.144678 0.203407 0.208856 0.236351 0.258055 0.261415 0.289717 0.294428 0.307218 0.324919 0.32928 0.333439 0.342981 0.364201 0.357256 0.366954 0.371916 0.390415 0.399997 0.397107 0.407661 0.41404 0.416894 0.428575 0.416768 0.360895 0.228287 0.0464721 0.000663743 7.74837e-08 1.35829e-12 2.99807e-17 2.20464e-22 8.55919e-22 -2.07866e-22 -4.04184e-22 1.9663e-22 0 -1.86546e-22 1.81883e-22 0 1.73222e-22 1.69193e-22 -1.65348e-22 -1.61674e-22 -1.58159e-22 0 -1.51569e-22 -1.48476e-22 0 0 0.124276 0.174723 0.179403 0.203021 0.221664 0.224551 0.248862 0.252909 0.263895 0.2791 0.282846 0.286418 0.294614 0.312843 0.306877 0.315207 0.319469 0.33536 0.34359 0.341108 0.350174 0.355653 0.358105 0.368