<?xml version="1.0"?>
<VTKFile type="PolyData">
	<PolyData>
		<Piece NumberOfPoints="2601" NumberOfPolys="2500">
			<Points>
				<DataArray type="Float32" NumberOfComponents="3" format="ascii">
 1e-06 0 0 0.302678 0 0 0.345166 0 0 0.384189 0 0 0.415027 0 0 0.440472 0 0 0.461967 0 0 0.482303 0 0 0.500676 0 0 0.517195 0 0 0.531946 0 0 0.54523 0 0 0.557959 0 0 0.56992 0 0 0.5808 0 0 0.590904 0 0 0.60029 0 0 0.608894 0 0 0.617219 0 0 0.624887 0 0 0.632327 0 0 0.639166 0 0 0.645651 0 0 0.65163 0 0 0.657385 0 0 0.662952 0 0 0.668201 0 0 0.673235 0 0 0.677923 0 0 0.682314 0 0 0.686571 0 0 0.690595 0 0 0.694511 0 0 0.698444 0 0 0.70329 0 0 0.710574 0 0 0.722508 0 0 0.740128 0 0 0.760001 0 0 0.780001 0 0 0.800001 0 0 0.820001 0 0 0.840001 0 0 0.860001 0 0 0.880001 0 0 0.900001 0 0 0.920001 0 0 0.940001 0 0 0.960001 0 0 0.980001 0 0 1 0 0 9.99507e-07 3.14108e-08 0 0.302529 0.00950736 0 0.344996 0.0108419 0 0.383999 0.0120677 0 0.414822 0.0130363 0 0.440255 0.0138356 0 0.461739 0.0145107 0 0.482065 0.0151495 0 0.500429 0.0157266 0 0.516939 0.0162455 0 0.531684 0.0167088 0 0.544961 0.0171261 0 0.557684 0.0175259 0 0.569639 0.0179016 0 0.580513 0.0182434 0 0.590613 0.0185608 0 0.599993 0.0188556 0 0.608593 0.0191258 0 0.616915 0.0193873 0 0.624578 0.0196282 0 0.632015 0.0198619 0 0.638851 0.0200767 0 0.645332 0.0202804 0 0.651308 0.0204682 0 0.657061 0.020649 0 0.662625 0.0208238 0 0.667871 0.0209887 0 0.672903 0.0211468 0 0.677588 0.0212941 0 0.681977 0.021432 0 0.686232 0.0215657 0 0.690254 0.0216921 0 0.694169 0.0218151 0 0.698099 0.0219387 0 0.702943 0.0220909 0 0.710223 0.0223197 0 0.722151 0.0226945 0 0.739763 0.023248 0 0.759626 0.0238722 0 0.779616 0.0245004 0 0.799606 0.0251286 0 0.819596 0.0257569 0 0.839587 0.0263851 0 0.859577 0.0270133 0 0.879567 0.0276415 0 0.899557 0.0282697 0 0.919547 0.0288979 0 0.939537 0.0295261 0 0.959527 0.0301544 0 0.979517 0.0307826 0 0.999508 0.0314108 0 9.98027e-07 6.27905e-08 0 0.302081 0.0190053 0 0.344485 0.0216731 0 0.383431 0.0241234 0 0.414208 0.0260598 0 0.439603 0.0276575 0 0.461055 0.0290071 0 0.481351 0.0302841 0 0.499688 0.0314377 0 0.516174 0.0324749 0 0.530896 0.0334012 0 0.544154 0.0342353 0 0.556858 0.0350345 0 0.568796 0.0357856 0 0.579654 0.0364687 0 0.589738 0.0371032 0 0.599105 0.0376925 0 0.607692 0.0382328 0 0.616002 0.0387555 0 0.623654 0.039237 0 0.631079 0.0397041 0 0.637905 0.0401336 0 0.644377 0.0405407 0 0.650344 0.0409162 0 0.656088 0.0412776 0 0.661644 0.0416271 0 0.666883 0.0419567 0 0.671906 0.0422728 0 0.676585 0.0425671 0 0.680968 0.0428429 0 0.685216 0.0431101 0 0.689232 0.0433628 0 0.693141 0.0436087 0 0.697066 0.0438557 0 0.701902 0.0441599 0 0.709172 0.0446173 0 0.721082 0.0453666 0 0.738667 0.046473 0 0.758502 0.0477209 0 0.778462 0.0489767 0 0.798422 0.0502325 0 0.818383 0.0514883 0 0.838343 0.0527441 0 0.858304 0.0539999 0 0.878265 0.0552557 0 0.898225 0.0565115 0 0.918186 0.0577673 0 0.938146 0.0590232 0 0.958107 0.060279 0 0.978067 0.0615348 0 0.998028 0.0627906 0 9.95562e-07 9.41083e-08 0 0.301335 0.0284845 0 0.343634 0.032483 0 0.382484 0.0361554 0 0.413185 0.0390575 0 0.438517 0.0414521 0 0.459917 0.0434749 0 0.480162 0.0453887 0 0.498454 0.0471178 0 0.514899 0.0486723 0 0.529585 0.0500606 0 0.54281 0.0513107 0 0.555483 0.0525086 0 0.567391 0.0536342 0 0.578222 0.0546581 0 0.588282 0.055609 0 0.597626 0.0564923 0 0.606192 0.057302 0 0.61448 0.0580855 0 0.622114 0.058807 0 0.629521 0.0595072 0 0.636329 0.0601508 0 0.642785 0.0607611 0 0.648738 0.0613238 0 0.654468 0.0618654 0 0.66001 0.0623893 0 0.665236 0.0628833 0 0.670247 0.063357 0 0.674914 0.0637982 0 0.679286 0.0642114 0 0.683524 0.064612 0 0.68753 0.0649907 0 0.691429 0.0653593 0 0.695344 0.0657294 0 0.700168 0.0661854 0 0.70742 0.0668709 0 0.719301 0.067994 0 0.736843 0.0696522 0 0.756628 0.0715224 0 0.776539 0.0734046 0 0.796451 0.0752867 0 0.816362 0.0771689 0 0.836273 0.0790511 0 0.856184 0.0809332 0 0.876096 0.0828154 0 0.896007 0.0846976 0 0.915918 0.0865797 0 0.935829 0.0884619 0 0.95574 0.0903441 0 0.975652 0.0922262 0 0.995563 0.0941084 0 9.92115e-07 1.25333e-07 0 0.300292 0.0379357 0 0.342444 0.0432608 0 0.381159 0.0481516 0 0.411755 0.0520167 0 0.436999 0.0552058 0 0.458324 0.0578998 0 0.4785 0.0604486 0 0.496728 0.0627513 0 0.513116 0.0648217 0 0.527752 0.0666705 0 0.540931 0.0683354 0 0.553559 0.0699308 0 0.565426 0.0714299 0 0.57622 0.0727935 0 0.586245 0.07406 0 0.595556 0.0752362 0 0.604093 0.0763146 0 0.612353 0.0773581 0 0.619959 0.0783191 0 0.627341 0.0792516 0 0.634126 0.0801088 0 0.640559 0.0809215 0 0.646491 0.0816709 0 0.652202 0.0823922 0 0.657725 0.08309 0 0.662932 0.0837478 0 0.667926 0.0843787 0 0.672577 0.0849663 0 0.676934 0.0855166 0 0.681157 0.0860501 0 0.685149 0.0865545 0 0.689035 0.0870454 0 0.692937 0.0875383 0 0.697744 0.0881456 0 0.704971 0.0890585 0 0.716811 0.0905542 0 0.734292 0.0927626 0 0.754008 0.0952534 0 0.77385 0.09776 0 0.793693 0.100267 0 0.813535 0.102773 0 0.833377 0.10528 0 0.85322 0.107787 0 0.873062 0.110293 0 0.892904 0.1128 0 0.912747 0.115307 0 0.932589 0.117813 0 0.952431 0.12032 0 0.972273 0.122827 0 0.992116 0.125333 0 9.87688e-07 1.56434e-07 0 0.298952 0.0473493 0 0.340916 0.0539958 0 0.379459 0.0601004 0 0.409918 0.0649246 0 0.435049 0.068905 0 0.456279 0.0722675 0 0.476365 0.0754488 0 0.494512 0.078323 0 0.510827 0.0809071 0 0.525397 0.0832147 0 0.538517 0.0852928 0 0.55109 0.087284 0 0.562903 0.0891551 0 0.573649 0.0908571 0 0.583629 0.0924378 0 0.592899 0.093906 0 0.601397 0.095252 0 0.60962 0.0965544 0 0.617193 0.0977538 0 0.624542 0.0989178 0 0.631297 0.0999876 0 0.637702 0.101002 0 0.643607 0.101937 0 0.649292 0.102838 0 0.65479 0.103709 0 0.659974 0.10453 0 0.664946 0.105317 0 0.669577 0.106051 0 0.673914 0.106737 0 0.678118 0.107403 0 0.682092 0.108033 0 0.685961 0.108646 0 0.689845 0.109261 0 0.694631 0.110019 0 0.701825 0.111158 0 0.713613 0.113025 0 0.731016 0.115781 0 0.750644 0.11889 0 0.770398 0.122019 0 0.790152 0.125148 0 0.809905 0.128276 0 0.829659 0.131405 0 0.849413 0.134534 0 0.869167 0.137662 0 0.88892 0.140791 0 0.908674 0.14392 0 0.928428 0.147049 0 0.948182 0.150177 0 0.967936 0.153306 0 0.987689 0.156435 0 9.82287e-07 1.87381e-07 0 0.297317 0.0567163 0 0.339052 0.0646776 0 0.377384 0.0719898 0 0.407676 0.0777683 0 0.43267 0.0825362 0 0.453784 0.086564 0 0.47376 0.0903746 0 0.491808 0.0938173 0 0.508034 0.0969126 0 0.522524 0.0996768 0 0.535573 0.102166 0 0.548076 0.104551 0 0.559825 0.106792 0 0.570512 0.108831 0 0.580438 0.110724 0 0.589657 0.112483 0 0.598109 0.114095 0 0.606287 0.115655 0 0.613818 0.117092 0 0.621127 0.118486 0 0.627845 0.119768 0 0.634214 0.120983 0 0.640088 0.122103 0 0.645741 0.123182 0 0.65121 0.124225 0 0.656365 0.125208 0 0.66131 0.126152 0 0.665915 0.12703 0 0.670228 0.127853 0 0.67441 0.128651 0 0.678362 0.129405 0 0.68221 0.130138 0 0.686073 0.130875 0 0.690832 0.131783 0 0.697988 0.133148 0 0.70971 0.135384 0 0.727018 0.138686 0 0.74654 0.14241 0 0.766185 0.146158 0 0.785831 0.149905 0 0.805477 0.153653 0 0.825122 0.1574 0 0.844768 0.161148 0 0.864414 0.164896 0 0.88406 0.168643 0 0.903705 0.172391 0 0.923351 0.176139 0 0.942997 0.179886 0 0.962642 0.183634 0 0.982288 0.187382 0 9.75917e-07 2.18143e-07 0 0.295389 0.0660272 0 0.336853 0.0752956 0 0.374936 0.0838082 0 0.405032 0.0905354 0 0.429864 0.096086 0 0.450841 0.100775 0 0.470688 0.105211 0 0.488618 0.109219 0 0.504739 0.112823 0 0.519135 0.11604 0 0.532099 0.118938 0 0.544522 0.121715 0 0.556195 0.124324 0 0.566812 0.126698 0 0.576674 0.128902 0 0.585833 0.130949 0 0.59423 0.132826 0 0.602355 0.134642 0 0.609838 0.136315 0 0.617099 0.137938 0 0.623773 0.13943 0 0.630101 0.140844 0 0.635936 0.142149 0 0.641553 0.143404 0 0.646986 0.144619 0 0.652109 0.145764 0 0.657021 0.146862 0 0.661596 0.147884 0 0.665882 0.148842 0 0.670036 0.149771 0 0.673963 0.150649 0 0.677785 0.151503 0 0.681623 0.152361 0 0.686352 0.153418 0 0.693461 0.155007 0 0.705107 0.15761 0 0.722303 0.161454 0 0.741698 0.165789 0 0.761216 0.170152 0 0.780734 0.174515 0 0.800253 0.178878 0 0.819771 0.183241 0 0.839289 0.187603 0 0.858808 0.191966 0 0.878326 0.196329 0 0.897844 0.200692 0 0.917363 0.205055 0 0.936881 0.209418 0 0.956399 0.213781 0 0.975918 0.218143 0 9.68583e-07 2.4869e-07 0 0.293169 0.075273 0 0.334322 0.0858393 0 0.372119 0.0955438 0 0.401988 0.103213 0 0.426634 0.109541 0 0.447453 0.114886 0 0.46715 0.119944 0 0.484946 0.124513 0 0.500946 0.128621 0 0.515234 0.13229 0 0.528101 0.135593 0 0.54043 0.138759 0 0.552015 0.141733 0 0.562553 0.144439 0 0.57234 0.146952 0 0.58143 0.149286 0 0.589764 0.151426 0 0.597828 0.153496 0 0.605255 0.155403 0 0.612461 0.157253 0 0.619086 0.158954 0 0.625366 0.160567 0 0.631158 0.162054 0 0.636732 0.163485 0 0.642125 0.16487 0 0.647208 0.166175 0 0.652084 0.167427 0 0.656625 0.168593 0 0.660878 0.169685 0 0.665001 0.170743 0 0.668898 0.171744 0 0.672692 0.172718 0 0.676501 0.173696 0 0.681194 0.174901 0 0.68825 0.176713 0 0.699809 0.17968 0 0.716875 0.184062 0 0.736124 0.189005 0 0.755496 0.193978 0 0.774867 0.198952 0 0.794239 0.203926 0 0.813611 0.2089 0 0.832982 0.213874 0 0.852354 0.218847 0 0.871726 0.223821 0 0.891097 0.228795 0 0.910469 0.233769 0 0.929841 0.238743 0 0.949212 0.243716 0 0.968584 0.24869 0 9.60294e-07 2.78991e-07 0 0.29066 0.0844446 0 0.331461 0.0962982 0 0.368934 0.107185 0 0.398548 0.115789 0 0.422982 0.122888 0 0.443624 0.128885 0 0.463152 0.134558 0 0.480796 0.139684 0 0.496659 0.144293 0 0.510825 0.148408 0 0.523581 0.152114 0 0.535805 0.155666 0 0.547291 0.159003 0 0.557738 0.162038 0 0.567442 0.164857 0 0.576454 0.167475 0 0.584717 0.169876 0 0.592712 0.172199 0 0.600075 0.174338 0 0.60722 0.176414 0 0.613787 0.178322 0 0.620014 0.180131 0 0.625756 0.181799 0 0.631283 0.183405 0 0.636629 0.184958 0 0.641669 0.186422 0 0.646503 0.187827 0 0.651005 0.189134 0 0.655222 0.19036 0 0.65931 0.191547 0 0.663174 0.19267 0 0.666935 0.193763 0 0.670711 0.19486 0 0.675365 0.196212 0 0.68236 0.198244 0 0.69382 0.201573 0 0.71074 0.206489 0 0.729824 0.212034 0 0.74903 0.217613 0 0.
[...]
			<PointData Scalars="VitesseX">
				<DataArray Name="VitesseX" type="Float32" format="ascii">
 0 0.639903 0.551093 0.752303 0.742034 0.83067 0.866299 0.905145 0.975705 0.977936 1.03042 1.05398 1.05425 1.10452 1.13193 1.13196 1.17851 1.19703 1.2285 1.25069 1.26098 1.28769 1.33499 1.34294 1.36483 1.36647 1.38439 1.41675 1.42748 1.46077 1.46693 1.46292 1.4794 1.44414 1.30596 0.989541 0.463009 0.0481746 0.000208187 9.41604e-09 2.9604e-13 0 0 0 0 0 0 0 0 0 0 0 0.639588 0.550821 0.751931 0.741668 0.83026 0.865871 0.904698 0.975224 0.977454 1.02991 1.05346 1.05373 1.10397 1.13137 1.1314 1.17792 1.19644 1.2279 1.25007 1.26036 1.28706 1.33433 1.34228 1.36416 1.36579 1.3837 1.41605 1.42678 1.46005 1.46621 1.4622 1.47867 1.44343 1.30532 0.989053 0.46278 0.0481508 0.000208084 9.41139e-09 2.95895e-13 6.14118e-22 -5.99496e-22 -5.85554e-22 0 0 5.47366e-22 -5.3572e-22 0 1.02771e-21 0 0 0.638641 0.550005 0.750818 0.74057 0.829031 0.864589 0.903359 0.97378 0.976007 1.02838 1.0519 1.05217 1.10234 1.1297 1.12973 1.17618 1.19467 1.22608 1.24822 1.25849 1.28515 1.33235 1.34029 1.36214 1.36377 1.38166 1.41395 1.42467 1.45789 1.46404 1.46004 1.47648 1.44129 1.30338 0.987589 0.462095 0.0480795 0.000207776 9.39746e-09 2.95468e-13 0 -5.99496e-22 0 0 0 5.47366e-22 -1.07144e-21 0 0 0 0 0.637064 0.548647 0.748964 0.738741 0.826984 0.862454 0.901128 0.971375 0.973596 1.02584 1.0493 1.04957 1.09962 1.12691 1.12694 1.17328 1.19172 1.22305 1.24514 1.25539 1.28198 1.32906 1.33698 1.35878 1.3604 1.37824 1.41046 1.42115 1.45429 1.46042 1.45643 1.47283 1.43773 1.30016 0.98515 0.460954 0.0479608 0.000207263 9.37425e-09 2.94757e-13 0 0 0 0 1.11906e-21 5.47366e-22 -5.3572e-22 0 0 0 0 0.634858 0.546747 0.746371 0.736183 0.82412 0.859468 0.898008 0.968011 0.970225 1.02229 1.04567 1.04594 1.09581 1.12301 1.12303 1.16921 1.18759 1.21881 1.24083 1.25104 1.27754 1.32446 1.33235 1.35407 1.35569 1.37347 1.40558 1.41623 1.44925 1.45536 1.45139 1.46773 1.43275 1.29566 0.981738 0.459358 0.0477947 0.000206545 9.34179e-09 2.9374e-13 0 0 0 -5.72246e-22 5.5953e-22 -1.09473e-21 0 -5.24559e-22 -5.13854e-22 0 0 0.632025 0.544308 0.743041 0.732899 0.820443 0.855633 0.894001 0.963692 0.965896 1.01773 1.04101 1.04127 1.09092 1.118 1.11802 1.164 1.18229 1.21338 1.23529 1.24546 1.27184 1.31855 1.32641 1.34803 1.34964 1.36734 1.39931 1.40991 1.44278 1.44887 1.44491 1.46118 1.42636 1.28988 0.977358 0.457309 0.0475815 0.000205624 9.30011e-09 2.92435e-13 0 -5.99496e-22 0 0 5.5953e-22 0 1.07144e-21 -5.24559e-22 0 0 0 0.628569 0.541331 0.738977 0.728891 0.815957 0.850954 0.889112 0.958423 0.960614 1.01217 1.03531 1.03558 1.08495 1.11188 1.11191 1.15763 1.17583 1.20674 1.22854 1.23865 1.26488 1.31134 1.31916 1.34066 1.34226 1.35987 1.39166 1.4022 1.43489 1.44095 1.43701 1.45319 1.41856 1.28283 0.972014 0.454808 0.0473213 0.000204499 9.24925e-09 2.9086e-13 0 5.99496e-22 0 -5.72246e-22 -5.5953e-22 0 1.07144e-21 -5.24559e-22 5.13854e-22 0 0 0.624492 0.537821 0.734185 0.724164 0.810665 0.845435 0.883346 0.952207 0.954385 1.0056 1.0286 1.02886 1.07792 1.10467 1.1047 1.15012 1.1682 1.19892 1.22057 1.23061 1.25668 1.30284 1.3106 1.33196 1.33356 1.35105 1.38263 1.39311 1.42559 1.4316 1.42769 1.44377 1.40936 1.27451 0.96571 0.451858 0.0470144 0.000203173 9.18927e-09 2.88974e-13 0 -5.99496e-22 5.85554e-22 0 -5.5953e-22 -5.47366e-22 -5.3572e-22 0 0 0 0 0.6198 0.533779 0.728668 0.718722 0.804573 0.839082 0.876708 0.945051 0.947213 0.998044 1.02087 1.02113 1.06982 1.09637 1.0964 1.14148 1.15942 1.18991 1.2114 1.22137 1.24724 1.29305 1.30075 1.32195 1.32354 1.34089 1.37224 1.38264 1.41488 1.42084 1.41696 1.43292 1.39877 1.26493 0.958453 0.448463 0.0466611 0.000201646 9.12022e-09 2.86828e-13 0 0 5.85554e-22 1.14449e-21 -5.5953e-22 0 0 0 5.13854e-22 0 0 0.614495 0.529211 0.722432 0.712571 0.797688 0.831901 0.869205 0.936963 0.939106 0.989503 1.01213 1.01239 1.06066 1.08699 1.08701 1.13171 1.1495 1.17972 1.20103 1.21091 1.23656 1.28198 1.28962 1.31064 1.31221 1.32942 1.3605 1.3708 1.40277 1.40868 1.40484 1.42066 1.3868 1.25411 0.95025 0.444625 0.0462617 0.00019992 9.04216e-09 2.84427e-13 -6.81867e-25 -1.19899e-21 -1.17111e-21 1.14449e-21 5.5953e-22 5.47366e-22 0 0 5.13854e-22 0 0 0.608584 0.52412 0.715482 0.705717 0.790014 0.823899 0.860844 0.927951 0.930073 0.979984 1.0024 1.00265 1.05046 1.07653 1.07656 1.12083 1.13844 1.16837 1.18948 1.19927 1.22467 1.26965 1.27721 1.29803 1.29959 1.31663 1.34741 1.35762 1.38927 1.39513 1.39132 1.40699 1.37346 1.24204 0.94111 0.440348 0.0458167 0.000197997 8.95518e-09 2.81639e-13 1.08131e-17 5.99496e-22 0 0 0 -5.47366e-22 -5.3572e-22 -5.24559e-22 5.13854e-22 0 0 0.602073 0.518513 0.707827 0.698166 0.781562 0.815084 0.851634 0.918022 0.920122 0.969499 0.991672 0.991926 1.03922 1.06501 1.06504 1.10883 1.12626 1.15587 1.17675 1.18643 1.21156 1.25606 1.26355 1.28415 1.28568 1.30254 1.33299 1.34309 1.37441 1.38021 1.37644 1.39194 1.35876 1.22875 0.93104 0.435636 0.0453265 0.000195879 8.85937e-09 2.78615e-13 6.22657e-18 -5.99496e-22 0 -5.72246e-22 5.5953e-22 5.47366e-22 -5.3572e-22 -5.24559e-22 1.02771e-21 0 0 0.594967 0.512393 0.699473 0.689926 0.772338 0.805464 0.841583 0.907188 0.909262 0.958057 0.979968 0.980219 1.02696 1.05244 1.05247 1.09575 1.11297 1.14223 1.16286 1.17243 1.19727 1.24124 1.24864 1.26899 1.27051 1.28717 1.31726 1.32724 1.35819 1.36392 1.36019 1.37551 1.34273 1.21425 0.920052 0.430495 0.0447916 0.000193567 8.75481e-09 2.75323e-13 -6.14118e-22 0 5.85554e-22 -5.72246e-22 -5.5953e-22 -5.47366e-22 -5.3572e-22 -5.24559e-22 0 0 0 0.587274 0.505768 0.690429 0.681006 0.762352 0.79505 0.830701 0.895458 0.897506 0.94567 0.967297 0.967545 1.01368 1.03884 1.03886 1.08158 1.09858 1.12746 1.14783 1.15727 1.18178 1.22519 1.23249 1.25258 1.25408 1.27053 1.30023 1.31008 1.34063 1.34628 1.3426 1.35772 1.32537 1.19855 0.908156 0.424929 0.0442124 0.000191064 8.64161e-09 2.71836e-13 0 0 0 0 1.11906e-21 0 5.3572e-22 0 -5.13854e-22 0 0 0.579002 0.498644 0.680704 0.671413 0.751613 0.78385 0.819 0.882844 0.884863 0.932349 0.953672 0.953916 0.999398 1.0242 1.02423 1.06634 1.0831 1.11158 1.13166 1.14097 1.16514 1.20793 1.21513 1.23494 1.23642 1.25263 1.28191 1.29163 1.32174 1.32732 1.32369 1.3386 1.3067 1.18167 0.895364 0.418943 0.0435896 0.000188373 8.51989e-09 2.67971e-13 0 5.99496e-22 0 0 0 -5.47366e-22 0 5.24559e-22 -5.13854e-22 0 0 0.570158 0.491027 0.670307 0.661158 0.740133 0.771878 0.80649 0.86936 0.871348 0.918108 0.939105 0.939346 0.984133 1.00856 1.00858 1.05006 1.06656 1.0946 1.11437 1.12354 1.14734 1.18948 1.19657 1.21608 1.21753 1.2335 1.26233 1.2719 1.30155 1.30704 1.30347 1.31815 1.28674 1.16362 0.881688 0.412544 0.0429238 0.000185496 8.38975e-09 2.64014e-13 -3.07059e-22 0 5.85554e-22 0 0 5.47366e-22 0 5.24559e-22 5.13854e-22 0 0 0.560752 0.482926 0.659248 0.65025 0.727922 0.759143 0.793185 0.855017 0.856972 0.902961 0.923612 0.923849 0.967897 0.991919 0.991944 1.03273 1.04896 1.07654 1.09599 1.10501 1.12841 1.16986 1.17683 1.19601 1.19744 1.21315 1.24151 1.25091 1.28008 1.28548 1.28197 1.29641 1.26551 1.14442 0.867142 0.405738 0.0422157 0.000182435 8.25134e-09 2.59708e-13 6.14118e-22 -5.99496e-22 -5.85554e-22 2.86123e-22 -5.5953e-22 -5.47366e-22 0 0 -5.13854e-22 0 0 0.550792 0.474349 0.647539 0.6387 0.714993 0.74566 0.779096 0.83983 0.841751 0.886923 0.907207 0.90744 0.950705 0.974301 0.974326 1.01439 1.03033 1.05742 1.07652 1.08538 1.10837 1.14908 1.15593 1.17477 1.17617 1.1916 1.21946 1.2287 1.25734 1.26265 1.2592 1.27338 1.24303 1.12409 0.85174 0.398531 0.0414659 0.000179195 8.10478e-09 2.55063e-13 9.21177e-22 2.99748e-22 0 0 0 5.47366e-22 5.3572e-22 5.24559e-22 -5.13854e-22 0 0 0.540288 0.465303 0.63519 0.62652 0.701358 0.73144 0.764239 0.823815 0.825699 0.87001 0.889907 0.890135 0.932576 0.955722 0.955745 0.995046 1.01068 1.03726 1.05599 1.06468 1.08723 1.12717 1.13388 1.15237 1.15375 1.16888 1.1962 1.20526 1.23337 1.23857 1.23519 1.2491 1.21933 1.10266 0.835497 0.390931 0.0406751 0.000175778 7.95022e-09 2.50136e-13 2.28243e-17 -8.99244e-22 5.85554e-22 0 -5.5953e-22 -2.73683e-22 -2.6786e-22 0 -5.13854e-22 0 0 0.529252 0.455798 0.622215 0.613722 0.687031 0.716499 0.748628 0.806987 0.808832 0.852238 0.871728 0.871952 0.913526 0.936199 0.936222 0.974719 0.990038 1.01607 1.03442 1.04293 1.06502 1.10414 1.11072 1.12883 1.13018 1.145 1.17177 1.18064 1.20817 1.21327 1.20996 1.22358 1.19442 1.08013 0.81843 0.382946 0.0398442 0.000172187 7.78782e-09 2.45019e-13 7.28277e-18 -1.49874e-21 5.85554e-22 5.72246e-22 -5.5953e-22 2.73683e-22 -5.3572e-22 5.24559e-22 -5.13854e-22 0 0 0.517693 0.445843 0.608626 0.600319 0.672026 0.70085 0.732278 0.789362 0.791167 0.833625 0.85269 0.852908 0.893574 0.915752 0.915775 0.953431 0.968416 0.993878 1.01183 1.02016 1.04176 1.08003 1.08646 1.10417 1.10549 1.11999 1.14617 1.15486 1.18179 1.18677 1.18353 1.19686 1.16833 1.05654 0.800556 0.374582 0.038974 0.000168427 7.61773e-09 2.39791e-13 8.64119e-22 0 -2.92777e-22 5.72246e-22 2.79765e-22 -5.47366e-22 -5.3572e-22 0 0 0 0 0.505623 0.435449 0.594436 0.586322 0.656358 0.68451 0.715205 0.770958 0.772721 0.814189 0.83281 0.833023 0.872741 0.894402 0.894424 0.931202 0.945837 0.970706 0.988238 0.996372 1.01748 1.05485 1.06113 1.07843 1.07972 1.09388 1.11945 1.12793 1.15423 1.1591 1.15594 1.16895 1.14109 1.03191 0.781891 0.365849 0.0380654 0.0001645 7.44013e-09 2.3408e-13 2.29041e-17 1.19899e-21 0 -8.5837e-22 0 0 -2.6786e-22 -5.24559e-22 -5.13854e-22 0 0 0.493054 0.424624 0.579659 0.571747 0.640043 0.667495 0.697426 0.751794 0.753513 0.79395 0.812107 0.812316 0.851046 0.872168 0.87219 0.908055 0.922326 0.946577 0.963672 0.971604 0.992183 1.02863 1.03476 1.05162 1.05288 1.06669 1.09162 1.0999 1.12554 1.13029 1.1272 1.13989 1.11273 1.00626 0.762455 0.356755 0.0371191 0.000160411 7.25518e-09 2.28139e-13 5.20602e-18 -5.99496e-22 2.92777e-22 5.72246e-22 8.39295e-22 -2.73683e-22 8.0358e-22 7.86839e-22 -2.56927e-22 0 0 0.479999 0.413381 0.564311 0.556608 0.623095 0.64982 0.678959 0.731887 0.733561 0.772927 0.790604 0.790807 0.828511 0.849075 0.849096 0.88401 0.897904 0.921512 0.938155 0.945877 0.965911 1.00139 1.00736 1.02378 1.025 1.03844 1.06272 1.07077 1.09574 1.10036 1.09735 1.10971 1.08326 0.979615 0.742266 0.347308 0.0361363 0.000156163 7.06307e-09 2.22176e-13 1.07471e-21 1.49874e-22 -5.85554e-22 -2.86123e-22 0 -8.21049e-22 -2.6786e-22 0 -2.56927e-22 0 0 0.46647 0.401729 0.548405 0.54092 0.605533 0.631504 0.659822 0.711258 0.712885 0.751141 0.76832 0.768517 0.805159 0.825143 0.825163 0.859094 0.872596 0.895539 0.911713 0.919217 0.938687 0.973164 0.978963 0.994921 0.996111 1.00918 1.03277 1.04059 1.06485 1.06935 1.06642 1.07843 1.05273 0.952004 0.721345 0.337519 0.0351177 0.000151762 6.864e-09 2.15973e-13 0 2.99748e-22 2.92777e-22 -2.86123e-22 0 0 -2.6786e-22 2.6228e-22 2.56927e-22 0 0 0.45248 0.389681 0.531958 0.524698 0.587373 0.612566 0.640034 0.689928 0.691505 0.728615 0.745278 0.745469 0.781012 0.800397 0.800417 0.83333 0.846426 0.868682 0.884371 0.891649 0.910535 0.943978 0.949604 0.965083 0.966237 0.97891 1.00179 1.00938 1.03292 1.03728 1.03444 1.04609 1.02116 0.923453 0.699711 0.327397 0.0340646 0.00014721 6.65814e-09 2.09434e-13 -4.60589e-22 4.49622e-22 2.92777e-22 -2.86123e-22 0 2.73683e-22 -1.3393e-22 -2.6228e-22 5.13854e-22 0 0 0.438044 0.377249 0.514987 0.507958 0.568633 0.593022 0.619614 0.667916 0.669444 0.705369 0.721501 0.721686 0.756095 0.774861 0.77488 0.806743 0.819422 0.840967 0.856155 0.863202 0.881485 0.913862 0.919308 0.934293 0.93541 0.947679 0.969832 0.97718 0.999965 1.00418 1.00144 1.01272 0.988581 0.893991 0.677388 0.316951 0.0329778 0.000142514 6.44572e-09 2.0279e-13 3.07059e-22 1.49874e-22 -2.92777e-22 1.43062e-22 6.99412e-22 0 6.6965e-22 -7.86839e-22 6.42317e-22 0 0 0.423176 0.364444 0.497507 0.490716 0.549332 0.572894 0.598583 0.645245 0.646721 0.681427 0.697011 0.69719 0.730431 0.74856 0.748579 0.77936 0.791609 0.812422 0.827095 0.833903 0.851565 0.882843 0.888104 0.902581 0.90366 0.915512 0.936913 0.944012 0.966023 0.970098 0.967448 0.978343 0.955026 0.863647 0.654395 0.306193 0.0318584 0.000137676 6.22694e-09 1.95956e-13 -3.83824e-22 -3.74685e-22 8.05137e-22 -7.15308e-23 0 2.73683e-22 5.3572e-22 -1.04912e-21 1.02771e-21 0 0 0.40789 0.35128 0.479536 0.472991 0.529489 0.552199 0.576961 0.621938 0.62336 0.656812 0.671834 0.672006 0.704046 0.72152 0.721538 0.751208 0.763014 0.783076 0.797219 0.803781 0.820805 0.850953 0.856024 0.869978 0.871018 0.882442 0.90307 0.909913 0.931129 0.935056 0.932502 0.943003 0.920529 0.83245 0.630757 0.295133 0.0307076 0.000132703 6.00201e-09 1.88858e-13 1.5353e-21 -5.99496e-22 -1.82986e-21 2.86123e-22 -3.49706e-22 -6.15787e-22 2.6786e-22 -5.24559e-22 0 0 0 0.392201 0.337769 0.461092 0.454798 0.509124 0.530961 0.55477 0.598016 0.599384 0.63155 0.645993 0.646159 0.676967 0.693769 0.693786 0.722315 0.733667 0.752957 0.766556 0.772865 0.789235 0.818223 0.823099 0.836516 0.837517 0.848501 0.868336 0.874915 0.895315 0.899092 0.896636 0.906733 0.885123 0.800432 0.606497 0.283781 0.0295265 0.000127599 5.77116e-09 1.81617e-13 4.41749e-17 7.68104e-22 4.02569e-22 7.15308e-22 -9.79177e-22 -4.78945e-22 6.6965e-23 1.3114e-22 6.42317e-22 0 0 0.376126 0.323924 0.442192 0.436157 0.488256 0.509198 0.532031 0.573505 0.574817 0.605664 0.619515 0.619674 0.64922 0.665333 0.665349 0.692708 0.703595 0.722095 0.735136 0.741187 0.756886 0.784686 0.789362 0.802229 0.803189 0.813723 0.832745 0.839054 0.858618 0.86224 0.859885 0.869568 0.848844 0.767624 0.581638 0.27215 0.0283163 0.000122369 5.53461e-09 1.74059e-13 -1.00769e-18 1.03038e-22 4.25442e-22 -3.57654e-23 8.91751e-22 -4.10525e-22 7.36615e-22 3.2785e-22 -6.42317e-22 0 0 0.359679 0.30976 0.422857 0.417085 0.466906 0.486932 0.508767 0.548428 0.549682 0.57918 0.592426 0.592578 0.620831 0.63624 0.636256 0.662419 0.672829 0.69052 0.702991 0.708777 0.72379 0.750374 0.754846 0.76715 0.768068 0.778141 0.796331 0.802365 0.821073 0.824537 0.822285 0.831544 0.811727 0.734058 0.556205 0.26025 0.0270781 0.000117018 5.2926e-09 1.66449e-13 -9.57565e-23 -1.04912e-21 1.2443e-21 -5.90129e-22 -7.86839e-23 1.66776e-22 6.36168e-22 1.0819e-21 4.81738e-22 0 0 0.342877 0.29529 0.403104 0.397602 0.445095 0.464186 0.485001 0.522809 0.524005 0.552125 0.564752 0.564897 0.59183 0.606519 0.606534 0.631475 0.6414 0.658264 0.670153 0.675668 0.689979 0.715322 0.719585 0.731314 0.732189 0.741792 0.759132 0.764884 0.782719 0.78602 0.783873 0.7927 0.773808 0.699768 0.530223 0.248093 0.0258132 0.000111552 5.04537e-09 1.58743e-13 -3.83824e-22 8.99244e-22 -5.85554e-22 -2.50358e-22 -2.44794e-22 6.15787e-22 3.85049e-22 -6.55699e-22 -6.2927e-22 0 0 0.325737 0.280529 0.382953 0.377726 0.422846 0.440982 0.460756 0.496674 0.49781 0.524525 0.536521 0.536658 0.562246 0.5762 0.576215 0.599908 0.609337 0.625358 0.636652 0.641892 0.655488 0.679564 0.683614 0.694757 0.695588 0.704711 0.721184 0.726649 0.743591 0.746728 0.744688 0.753074 0.735127 0.664788 0.503718 0.235691 0.0245228 0.000105976 4.79315e-09 1.50779e-13 -9.21177e-22 -1.34887e-21 -6.58749e-22 -2.86123e-22 -4.89589e-22 -6.84208e-22 5.3572e-22 3.60634e-22 -3.53275e-22 0 0 0.308276 0.265491 0.362425 0.357478 0.400179 0.417343 0.436057 0.470049 0.471124 0.496407 0.50776 0.50789 0.532106 0.545312 0.545326 0.56775 0.576672 0.591835 0.602524 0.607483 0.62035 0.643135 0.646968 0.657514 0.6583 0.666934 0.682524 0.687696 0.70373 0.706699 0.704769 0.712705 0.695719 0.629151 0.476715 0.223056 0.0232083 0.000100295 4.53621e-09 1.427e-13 -1.5353e-22 7.4937e-22 -4.39166e-22 -4.29185e-22 -4.19647e-22 -4.10525e-22 -4.68755e-22 3.2785e-22 -7.06549e-22 0 0 0.29051 0.250191 0.341538 0.336877 0.377116 0.393291 0.410927 0.442961 0.443974 0.467799 0.478498 0.478621 0.501441 0.513886 0.513899 0.535031 0.543439 0.557728 0.567801 0.572474 0.5846 0.606071 0.609683 0.619621 0.620363 0.628499 0.643191 0.648064 0.663175 0.665972 0.664153 0.671632 0.655625 0.592893 0.449242 0.210202 0.0218708 9.45148e-05 4.27479e-09 1.34465e-13 -7.67648e-22 -2.99748e-22 -7.31943e-22 1.43062e-22 6.99412e-22 1.36842e-22 -1.3393e-22 3.2785e-22 0 0 0 0.272458 0.234644 0.320315 0.315943 0.353682 0.368852 0.385392 0.415435 0.416385 0.43873 0.448764 0.448879 0.470281 0.481953 0.481965 0.501783 0.50967 0.52307 0.532517 0.5369 0.548272 0.56841 0.571797 0.581118 0.581813 0.589444 0.603223 0.607793 0.621965 0.624588 0.622882 0.629897 0.614885 0.556051 0.421326 0.19714 0.0205117 8.86416e-05 4.00915e-09 1.26101e-13 -4.60589e-22 -4.49622e-22 -1.02472e-21 -5.72246e-22 8.39295e-22 5.47366e-22 -1.20537e-21 -1.18026e-21 1.28463e-22 0 0 0.254136 0.218865 0.298775 0.294697 0.329899 0.344049 0.359476 0.387499 0.388385 0.409228 0.418587 0.418694 0.438657 0.449544 0.449556 0.468041 0.475397 0.487897 0.496708 0.500797 0.511404 0.530187 0.533347 0.542041 0.542689 0.549807 0.562659 0.566922 0.580141 0.582588 0.580997 0.587539 0.573537 0.518659 0.392994 0.183883 0.0191324 8.26809e-05 3.73956e-09 1.17603e-13 0 0 5.85554e-22 0 1.39882e-22 9.57891e-22 4.0179e-22 -3.93419e-22 -2.56927e-22 0 0 0.235564 0.202871 0.276941 0.273161 0.30579 0.318906 0.333206 0.359181 0.360002 0.379322 0.387997 0.388096 0.4066 0.416692 0.416702 0.433837 0.440655 0.452241 0.460409 0.464199 0.474031 0.491442 0.49437 0.502429 0.50303 0.509627 0.52154 0.525492 0.537745 0.540013 0.538538 0.544602 0.531623 0.480756 0.364274 0.170445 0.0177342 7.66386e-05 3.46627e-09 1.08984e-13 9.21177e-22 -2.99748e-22 0 -2.86123e-22 -2.79765e-22 2.73683e-22 2.6786e-22 -2.6228e-22 -5.13854e-22 0 0 0.21676 0.186676 0.254833 0.251355 0.28138 0.293448 0.306607 0.330508 0.331264 0.349041 0.357024 0.357115 0.374142 0.383428 0.383438 0.399205 0.405479 0.41614 0.423656 0.427143 0.43619 0.452211 0.454906 0.462321 0.462874 0.468945 0.479907 0.483543 0.494818 0.496905 0.495547 0.501128 0.489185 0.442378 0.335195 0.156839 0.0163186 7.05207e-05 3.18957e-09 1.00323e-13 -3.07059e-22 -5.99496e-22 0 0 0 5.47366e-22 5.3572e-22 -5.24559e-22 -7.70781e-22 0 0 0.197741 0.170297 0.232474 0.229301 0.256691 0.267701 0.279705 0.301509 0.302199 0.318416 0.325698 0.325782 0.341315 0.349786 0.349795 0.364178 0.369902 0.379628 0.386484 0.389665 0.397918 0.412534 0.414992 0.421757 0.422261 0.427799 0.4378 0.441117 0.451402 0.453306 0.452068 0.457159 0.446264 0.403564 0.305785 0.143078 0.0148868 6.43332e-05 2.90972e-09 9.14816e-14 -6.14118e-22 5.99496e-22 -2.92777e-22 8.5837e-22 -5.5953e-22 -5.47366e-22 5.3572e-22 5.24559e-22 -1.02771e-21 0 0 0.178527 0.15375 0.209886 0.207021 0.23175 0.24169 0.252527 0.272213 0.272836 0.287477 0.294052 0.294127 0.308151 0.315799 0.315807 0.328793 0.33396 0.342741 0.348931 0.351803 0.359254 0.37245 0.374669 0.380776 0.381232 0.386232 0.395261 0.398255 0.407541 0.40926 0.408142 0.412739 0.402902 0.364351 0.276073 0.129175 0.0134403 5.80822e-05 2.62699e-09 8.26509e-14 -1.47283e-22 0 5.85554e-22 5.72246e-22 5.5953e-22 -8.21049e-22 2.6786e-22 5.24559e-22 0 0 0 0.159138 0.137051 0.18709 0.184536 0.206579 0.21544 0.2251 0.242648 0.243203 0.256254 0.262115 0.262182 0.274683 0.2815 0.281507 0.293083 0.297689 0.305516 0.311034 0.313594 0.320236 0.331998 0.333976 0.33942 0.339826 0.344283 0.352331 0.355001 0.363278 0.364811 0.363814 0.367911 0.359143 0.324779 0.246089 0.115146 0.0119805 5.17739e-05 2.34167e-09 7.36271e-14 -5.43545e-22 -2.99748e-22 -5.85554e-22 -5.72246e-22 0 -2.73683e-22 5.3572e-22 -2.6228e-22 2.56927e-22 0 0 0.139591 0.120217 0.16411 0.16187 0.181205 0.188977 0.197451 0.212843 0.21333 0.224778 0.229919 0.229978 0.240943 0.246923 0.246929 0.257083 0.261124 0.267989 0.272829 0.275075 0.280901 0.291218 0.292954 0.297729 0.298085 0.301995 0.309054 0.311396 0.318657 0.320001 0.319127 0.32272 0.315029 0.284886 0.215862 0.101002 0.010509 4.54145e-05 2.05405e-09 6.46003e-14 0 2.99748e-22 2.92777e-22 -2.86123e-22 -2.79765e-22 -2.73683e-22 0 -2.6228e-22 -2.56927e-22 0 0 0.119906 0.103264 0.140967 0.139043 0.155652 0.162328 0.169607 0.182829 0.183247 0.193081 0.197497 0.197547 0.206966 0.212103 0.212108 0.22083 0.224301 0.230198 0.234356 0.236285 0.241289 0.250152 0.251642 0.255744 0.25605 0.259408 0.265472 0.267484 0.273721 0.274875 0.274124 0.277211 0.270605 0.244712 0.185422 0.0867592 0.00902701 3.90103e-0