<?xml version="1.0"?>
<VTKFile type="PolyData">
	<PolyData>
		<Piece NumberOfPoints="2601" NumberOfPolys="2500">
			<Points>
				<DataArray type="Float32" NumberOfComponents="3" format="ascii">
 1e-06 0 0 0.256501 0 0 0.292172 0 0 0.325671 0 0 0.35172 0 0 0.373372 0 0 0.391609 0 0 0.408521 0 0 0.424103 0 0 0.437536 0 0 0.449623 0 0 0.460427 0 0 0.470398 0 0 0.479701 0 0 0.488446 0 0 0.496364 0 0 0.503387 0 0 0.510062 0 0 0.516492 0 0 0.522525 0 0 0.528115 0 0 0.533124 0 0 0.537905 0 0 0.542479 0 0 0.546711 0 0 0.550771 0 0 0.554673 0 0 0.559548 0 0 0.567392 0 0 0.581028 0 0 0.600017 0 0 0.620001 0 0 0.640001 0 0 0.660001 0 0 0.680001 0 0 0.700001 0 0 0.720001 0 0 0.740001 0 0 0.760001 0 0 0.780001 0 0 0.800001 0 0 0.820001 0 0 0.840001 0 0 0.860001 0 0 0.880001 0 0 0.900001 0 0 0.920001 0 0 0.940001 0 0 0.960001 0 0 0.980001 0 0 1 0 0 9.99507e-07 3.14108e-08 0 0.256374 0.00805688 0 0.292028 0.00917735 0 0.32551 0.0102296 0 0.351547 0.0110478 0 0.373188 0.0117279 0 0.391416 0.0123007 0 0.408319 0.0128319 0 0.423894 0.0133214 0 0.43732 0.0137433 0 0.449402 0.014123 0 0.4602 0.0144624 0 0.470166 0.0147756 0 0.479465 0.0150678 0 0.488205 0.0153424 0 0.496119 0.0155912 0 0.503138 0.0158118 0 0.50981 0.0160214 0 0.516237 0.0162234 0 0.522267 0.0164129 0 0.527854 0.0165885 0 0.532861 0.0167458 0 0.53764 0.016896 0 0.542211 0.0170397 0 0.546442 0.0171726 0 0.550499 0.0173001 0 0.554399 0.0174227 0 0.559272 0.0175758 0 0.567112 0.0178222 0 0.580741 0.0182505 0 0.599721 0.018847 0 0.619695 0.0194747 0 0.639685 0.0201029 0 0.659675 0.0207311 0 0.679665 0.0213593 0 0.699656 0.0219876 0 0.719646 0.0226158 0 0.739636 0.023244 0 0.759626 0.0238722 0 0.779616 0.0245004 0 0.799606 0.0251286 0 0.819596 0.0257569 0 0.839587 0.0263851 0 0.859577 0.0270133 0 0.879567 0.0276415 0 0.899557 0.0282697 0 0.919547 0.0288979 0 0.939537 0.0295261 0 0.959527 0.0301544 0 0.979517 0.0307826 0 0.999508 0.0314108 0 9.98027e-07 6.27905e-08 0 0.255994 0.0161058 0 0.291596 0.0183457 0 0.325029 0.0204491 0 0.351026 0.0220847 0 0.372635 0.0234442 0 0.390836 0.0245893 0 0.407715 0.0256512 0 0.423267 0.0266297 0 0.436672 0.0274731 0 0.448736 0.0282321 0 0.459519 0.0289105 0 0.46947 0.0295365 0 0.478755 0.0301207 0 0.487482 0.0306698 0 0.495385 0.031167 0 0.502393 0.0316079 0 0.509055 0.032027 0 0.515473 0.0324308 0 0.521494 0.0328096 0 0.527073 0.0331606 0 0.532072 0.0334752 0 0.536844 0.0337753 0 0.541408 0.0340625 0 0.545632 0.0343283 0 0.549684 0.0345832 0 0.553579 0.0348282 0 0.558444 0.0351343 0 0.566272 0.0356268 0 0.579881 0.0364831 0 0.598833 0.0376754 0 0.618778 0.0389302 0 0.638738 0.040186 0 0.658699 0.0414418 0 0.678659 0.0426976 0 0.69862 0.0439534 0 0.71858 0.0452092 0 0.738541 0.046465 0 0.758501 0.0477209 0 0.778462 0.0489767 0 0.798422 0.0502325 0 0.818383 0.0514883 0 0.838343 0.0527441 0 0.858304 0.0539999 0 0.878265 0.0552557 0 0.898225 0.0565115 0 0.918186 0.0577673 0 0.938146 0.0590232 0 0.958107 0.060279 0 0.978067 0.0615348 0 0.998028 0.0627906 0 9.95562e-07 9.41083e-08 0 0.255362 0.0241388 0 0.290876 0.0274958 0 0.324226 0.0306484 0 0.350159 0.0330998 0 0.371715 0.0351374 0 0.389871 0.0368536 0 0.406708 0.0384452 0 0.422221 0.0399117 0 0.435594 0.0411757 0 0.447628 0.0423133 0 0.458384 0.04333 0 0.468311 0.0442684 0 0.477573 0.0451439 0 0.486278 0.0459668 0 0.494161 0.046712 0 0.501152 0.0473729 0 0.507798 0.048001 0 0.514199 0.0486062 0 0.520206 0.0491739 0 0.525771 0.0497 0 0.530758 0.0501714 0 0.535518 0.0506213 0 0.540071 0.0510517 0 0.544285 0.0514501 0 0.548327 0.0518321 0 0.552211 0.0521994 0 0.557065 0.0526581 0 0.564874 0.0533963 0 0.578449 0.0546796 0 0.597354 0.0564666 0 0.617249 0.0583472 0 0.637161 0.0602294 0 0.657072 0.0621116 0 0.676983 0.0639937 0 0.696894 0.0658759 0 0.716806 0.0677581 0 0.736717 0.0696402 0 0.756628 0.0715224 0 0.776539 0.0734046 0 0.796451 0.0752867 0 0.816362 0.0771689 0 0.836273 0.0790511 0 0.856184 0.0809332 0 0.876096 0.0828154 0 0.896007 0.0846976 0 0.915918 0.0865797 0 0.935829 0.0884619 0 0.95574 0.0903441 0 0.975652 0.0922262 0 0.995563 0.0941084 0 9.92115e-07 1.25333e-07 0 0.254478 0.032148 0 0.289868 0.0366189 0 0.323103 0.0408174 0 0.348947 0.0440822 0 0.370428 0.0467959 0 0.388521 0.0490816 0 0.405299 0.0512012 0 0.420759 0.0531543 0 0.434085 0.0548377 0 0.446078 0.0563528 0 0.456797 0.0577068 0 0.466689 0.0589565 0 0.475919 0.0601225 0 0.484594 0.0612185 0 0.49245 0.062211 0 0.499417 0.0630911 0 0.50604 0.0639277 0 0.512419 0.0647336 0 0.518404 0.0654897 0 0.52395 0.0661903 0 0.528921 0.0668182 0 0.533663 0.0674174 0 0.538201 0.0679906 0 0.5424 0.0685211 0 0.546428 0.0690299 0 0.550299 0.069519 0 0.555136 0.0701299 0 0.562918 0.0711131 0 0.576446 0.0728221 0 0.595285 0.075202 0 0.615112 0.0777067 0 0.634954 0.0802134 0 0.654797 0.0827201 0 0.674639 0.0852267 0 0.694481 0.0877334 0 0.714324 0.0902401 0 0.734166 0.0927467 0 0.754008 0.0952534 0 0.77385 0.09776 0 0.793693 0.100267 0 0.813535 0.102773 0 0.833377 0.10528 0 0.85322 0.107787 0 0.873062 0.110293 0 0.892904 0.1128 0 0.912747 0.115307 0 0.932589 0.117813 0 0.952431 0.12032 0 0.972273 0.122827 0 0.992116 0.125333 0 9.87688e-07 1.56434e-07 0 0.253343 0.0401255 0 0.288575 0.0457058 0 0.321662 0.0509462 0 0.34739 0.0550212 0 0.368775 0.0584083 0 0.386787 0.0612611 0 0.403491 0.0639067 0 0.418882 0.0663444 0 0.432149 0.0684456 0 0.444088 0.0703366 0 0.454758 0.0720267 0 0.464607 0.0735865 0 0.473796 0.0750418 0 0.482432 0.0764097 0 0.490253 0.0776485 0 0.497189 0.078747 0 0.503782 0.0797912 0 0.510133 0.0807971 0 0.516092 0.0817409 0 0.521613 0.0826154 0 0.526561 0.083399 0 0.531282 0.0841469 0 0.5358 0.0848623 0 0.53998 0.0855245 0 0.54399 0.0861596 0 0.547844 0.08677 0 0.552659 0.0875326 0 0.560407 0.0887597 0 0.573875 0.0908928 0 0.59263 0.0938633 0 0.612368 0.0969895 0 0.632122 0.100118 0 0.651875 0.103247 0 0.671629 0.106376 0 0.691383 0.109504 0 0.711137 0.112633 0 0.73089 0.115762 0 0.750644 0.11889 0 0.770398 0.122019 0 0.790152 0.125148 0 0.809905 0.128276 0 0.829659 0.131405 0 0.849413 0.134534 0 0.869167 0.137662 0 0.88892 0.140791 0 0.908674 0.14392 0 0.928428 0.147049 0 0.948182 0.150177 0 0.967936 0.153306 0 0.987689 0.156435 0 9.82287e-07 1.87381e-07 0 0.251957 0.0480634 0 0.286997 0.0547476 0 0.319903 0.0610247 0 0.34549 0.0659058 0 0.366759 0.0699629 0 0.384672 0.0733802 0 0.401285 0.0765492 0 0.416591 0.0794691 0 0.429786 0.081986 0 0.441659 0.084251 0 0.452272 0.0862754 0 0.462066 0.0881438 0 0.471205 0.0898871 0 0.479794 0.0915256 0 0.487572 0.0930094 0 0.49447 0.0943252 0 0.501027 0.095576 0 0.507343 0.0967809 0 0.513269 0.0979114 0 0.51876 0.0989588 0 0.523681 0.0998975 0 0.528377 0.100793 0 0.53287 0.10165 0 0.537028 0.102443 0 0.541015 0.103204 0 0.544848 0.103935 0 0.549637 0.104849 0 0.557342 0.106319 0 0.570736 0.108874 0 0.589389 0.112432 0 0.609019 0.116177 0 0.628665 0.119924 0 0.648311 0.123672 0 0.667956 0.127419 0 0.687602 0.131167 0 0.707248 0.134915 0 0.726894 0.138662 0 0.746539 0.14241 0 0.766185 0.146158 0 0.785831 0.149905 0 0.805477 0.153653 0 0.825122 0.1574 0 0.844768 0.161148 0 0.864414 0.164896 0 0.88406 0.168643 0 0.903705 0.172391 0 0.923351 0.176139 0 0.942997 0.179886 0 0.962642 0.183634 0 0.982288 0.187382 0 9.75917e-07 2.18143e-07 0 0.250323 0.0559539 0 0.285136 0.0637354 0 0.317828 0.071043 0 0.34325 0.0767254 0 0.36438 0.0814486 0 0.382178 0.0854268 0 0.398682 0.089116 0 0.41389 0.0925153 0 0.426998 0.0954454 0 0.438795 0.0980823 0 0.449339 0.100439 0 0.459069 0.102614 0 0.468149 0.104644 0 0.476682 0.106551 0 0.48441 0.108279 0 0.491263 0.10981 0 0.497778 0.111266 0 0.504053 0.112669 0 0.509941 0.113985 0 0.515396 0.115205 0 0.520285 0.116297 0 0.524951 0.11734 0 0.529414 0.118338 0 0.533545 0.119261 0 0.537507 0.120147 0 0.541315 0.120998 0 0.546072 0.122062 0 0.553727 0.123773 0 0.567035 0.126747 0 0.585566 0.13089 0 0.605069 0.135249 0 0.624588 0.139612 0 0.644106 0.143975 0 0.663624 0.148338 0 0.683143 0.1527 0 0.702661 0.157063 0 0.722179 0.161426 0 0.741698 0.165789 0 0.761216 0.170152 0 0.780734 0.174515 0 0.800253 0.178878 0 0.819771 0.183241 0 0.839289 0.187603 0 0.858808 0.191966 0 0.878326 0.196329 0 0.897844 0.200692 0 0.917363 0.205055 0 0.936881 0.209418 0 0.956399 0.213781 0 0.975918 0.218143 0 9.68583e-07 2.4869e-07 0 0.248442 0.0637891 0 0.282993 0.0726603 0 0.31544 0.0809911 0 0.34067 0.0874693 0 0.361642 0.0928539 0 0.379306 0.0973891 0 0.395686 0.101595 0 0.410779 0.10547 0 0.42379 0.108811 0 0.435498 0.111817 0 0.445962 0.114504 0 0.45562 0.116983 0 0.464631 0.119297 0 0.4731 0.121471 0 0.48077 0.123441 0 0.487572 0.125187 0 0.494037 0.126847 0 0.500265 0.128446 0 0.506109 0.129947 0 0.511523 0.131337 0 0.516375 0.132583 0 0.521006 0.133772 0 0.525436 0.134909 0 0.529535 0.135962 0 0.533467 0.136971 0 0.537247 0.137942 0 0.541969 0.139154 0 0.549566 0.141105 0 0.562774 0.144496 0 0.581166 0.149218 0 0.600523 0.154188 0 0.619894 0.159162 0 0.639266 0.164136 0 0.658638 0.169109 0 0.678009 0.174083 0 0.697381 0.179057 0 0.716753 0.184031 0 0.736124 0.189005 0 0.755496 0.193978 0 0.774867 0.198952 0 0.794239 0.203926 0 0.813611 0.2089 0 0.832982 0.213874 0 0.852354 0.218847 0 0.871726 0.223821 0 0.891097 0.228795 0 0.910469 0.233769 0 0.929841 0.238743 0 0.949212 0.243716 0 0.968584 0.24869 0 9.60294e-07 2.78991e-07 0 0.246316 0.0715614 0 0.280571 0.0815135 0 0.31274 0.0908594 0 0.337755 0.0981268 0 0.358547 0.104167 0 0.376059 0.109255 0 0.3923 0.113974 0 0.407264 0.118321 0 0.420163 0.122069 0 0.431771 0.125441 0 0.442145 0.128455 0 0.45172 0.131237 0 0.460654 0.133832 0 0.469051 0.136272 0 0.476656 0.138481 0 0.483399 0.14044 0 0.489809 0.142303 0 0.495984 0.144097 0 0.501777 0.14578 0 0.507145 0.147339 0 0.511956 0.148737 0 0.516547 0.150071 0 0.520939 0.151347 0 0.525003 0.152528 0 0.528902 0.15366 0 0.532649 0.154749 0 0.53733 0.156109 0 0.544863 0.158297 0 0.557958 0.162102 0 0.576192 0.167399 0 0.595383 0.172975 0 0.614589 0.178555 0 0.633795 0.184134 0 0.653001 0.189714 0 0.672207 0.195294 0 0.691412 0.200874 0 0.710618 0.206454 0 0.729824 0.21203
[...]
			<PointData Scalars="VitesseX">
				<DataArray Name="VitesseX" type="Float32" format="ascii">
 0 0.841385 0.779514 0.989596 1.02047 1.08213 1.18671 1.18429 1.29031 1.32997 1.35795 1.44011 1.47812 1.50606 1.49751 1.60279 1.60675 1.64501 1.63131 1.68753 1.75362 1.77122 1.80418 1.80713 1.83521 1.87187 1.83793 1.63784 1.13744 0.337328 0.0104579 4.52081e-06 8.86096e-11 1.69516e-15 0 0 0 0 0 0 0 0 0 0 0 0 0 0 0 0 0 0 0.840969 0.779129 0.989107 1.01997 1.08159 1.18612 1.1837 1.28968 1.32931 1.35728 1.4394 1.47739 1.50531 1.49677 1.602 1.60596 1.6442 1.63051 1.68669 1.75276 1.77035 1.80329 1.80623 1.83431 1.87095 1.83702 1.63703 1.13688 0.337161 0.0104528 4.51858e-06 8.85659e-11 1.69596e-15 4.66826e-22 0 -4.40892e-22 0 0 0 3.96803e-22 3.87124e-22 -3.77907e-22 -3.69119e-22 0 0 3.45046e-22 -3.37704e-22 0 6.47841e-22 0 0 0.839724 0.777976 0.987643 1.01846 1.07999 1.18437 1.18195 1.28777 1.32735 1.35527 1.43727 1.47521 1.50308 1.49456 1.59962 1.60358 1.64176 1.62809 1.6842 1.75016 1.76773 1.80062 1.80356 1.83159 1.86818 1.8343 1.63461 1.1352 0.336662 0.0104373 4.51189e-06 8.84347e-11 1.7037e-15 0 -4.53489e-22 0 0 0 0 0 0 -3.77907e-22 0 0 0 3.45046e-22 -6.75409e-22 0 0 0 0 0.83765 0.776054 0.985204 1.01594 1.07733 1.18144 1.17903 1.28459 1.32407 1.35193 1.43372 1.47156 1.49937 1.49087 1.59567 1.59962 1.63771 1.62407 1.68004 1.74584 1.76336 1.79617 1.79911 1.82707 1.86356 1.82977 1.63057 1.1324 0.335831 0.0104115 4.50075e-06 8.82163e-11 1.70583e-15 4.66826e-22 0 4.40892e-22 0 0 0 0 0 0 0 0 7.05427e-22 3.45046e-22 -3.37704e-22 0 0 0 0 0.83475 0.773367 0.981793 1.01243 1.0736 1.17735 1.17495 1.28014 1.31948 1.34725 1.42876 1.46647 1.49418 1.4857 1.59015 1.59408 1.63204 1.61845 1.67422 1.7398 1.75726 1.78995 1.79288 1.82074 1.85711 1.82343 1.62492 1.12847 0.334668 0.0103755 4.48516e-06 8.79108e-11 1.72143e-15 0 0 0 0 4.17687e-22 0 0 0 0 0 -3.6073e-22 3.52713e-22 -6.90092e-22 0 -3.30669e-22 -3.23921e-22 0 0 0.831026 0.769917 0.977412 1.00791 1.06881 1.1721 1.16971 1.27443 1.3136 1.34123 1.42238 1.45992 1.48751 1.47908 1.58305 1.58697 1.62476 1.61123 1.66675 1.73203 1.74942 1.78196 1.78488 1.81262 1.84882 1.8153 1.61767 1.12344 0.333175 0.0103292 4.46515e-06 8.75186e-11 1.74587e-15 -4.66826e-22 -4.53489e-22 0 -4.28976e-22 -4.17687e-22 0 3.96803e-22 0 -3.77907e-22 0 0 3.52713e-22 0 6.75409e-22 -3.30669e-22 0 0 0 0.826481 0.765706 0.972067 1.0024 1.06296 1.16569 1.16331 1.26746 1.30641 1.3339 1.4146 1.45194 1.47938 1.47099 1.5744 1.57829 1.61587 1.60242 1.65764 1.72256 1.73985 1.77222 1.77512 1.80271 1.83871 1.80537 1.60883 1.1173 0.331353 0.0102727 4.44073e-06 8.704e-11 1.75276e-15 4.66826e-22 0 0 0 4.17687e-22 0 0 0 3.77907e-22 0 -3.6073e-22 -3.52713e-22 0 6.75409e-22 -3.30669e-22 3.23921e-22 0 0 0.821121 0.760741 0.965763 0.995896 1.05607 1.15813 1.15577 1.25924 1.29794 1.32525 1.40543 1.44252 1.46978 1.46145 1.56419 1.56805 1.60539 1.59202 1.64689 1.71139 1.72857 1.76073 1.7636 1.79102 1.82679 1.79366 1.59839 1.11005 0.329204 0.0102061 4.41193e-06 8.64755e-11 1.71535e-15 0 -4.53489e-22 0 0 0 -4.06977e-22 0 0 -3.77907e-22 3.69119e-22 0 -3.52713e-22 -3.45046e-22 -3.37704e-22 0 0 0 0 0.814951 0.755024 0.958506 0.988412 1.04813 1.14943 1.14708 1.24978 1.28819 1.31529 1.39487 1.43168 1.45874 1.45047 1.55243 1.55627 1.59333 1.58006 1.63451 1.69853 1.71558 1.74749 1.75035 1.77756 1.81306 1.78018 1.58638 1.10171 0.32673 0.0101294 4.37878e-06 8.58258e-11 1.69521e-15 0 0 0 4.28976e-22 0 0 0 0 0 3.69119e-22 7.21459e-22 -3.52713e-22 0 0 0 3.23921e-22 0 0 0.807976 0.748562 0.950303 0.979953 1.03916 1.13959 1.13726 1.23908 1.27716 1.30403 1.38293 1.41943 1.44626 1.43805 1.53915 1.54295 1.57969 1.56654 1.62052 1.68399 1.70089 1.73254 1.73537 1.76234 1.79754 1.76495 1.5728 1.09228 0.323934 0.0100427 4.34131e-06 8.50912e-11 1.71927e-15 -4.66826e-22 0 0 4.28976e-22 -4.17687e-22 0 0 0 -7.55814e-22 -7.38237e-22 7.21459e-22 3.52713e-22 3.45046e-22 0 0 3.23921e-22 0 0 0.800204 0.741362 0.941161 0.970526 1.02917 1.12863 1.12632 1.22716 1.26488 1.29149 1.36963 1.40578 1.43234 1.42422 1.52434 1.52811 1.5645 1.55147 1.60493 1.66779 1.68453 1.71587 1.71868 1.74539 1.78025 1.74797 1.55768 1.08177 0.320818 0.00994607 4.29955e-06 8.42727e-11 1.65081e-15 0 0 0 0 0 4.06977e-22 -3.96803e-22 7.74249e-22 3.77907e-22 0 0 0 -3.45046e-22 -3.37704e-22 -3.30669e-22 3.23921e-22 0 0 0.791643 0.73343 0.931092 0.960142 1.01815 1.11655 1.11427 1.21403 1.25134 1.27767 1.35497 1.39074 1.41702 1.40898 1.50803 1.51176 1.54776 1.53487 1.58776 1.64995 1.66651 1.69751 1.70029 1.72672 1.76121 1.72927 1.54101 1.0702 0.317385 0.00983965 4.25354e-06 8.33711e-11 1.73142e-15 2.33413e-22 0 0 -4.28976e-22 4.17687e-22 4.06977e-22 -3.96803e-22 -3.87124e-22 -3.77907e-22 0 -3.6073e-22 3.52713e-22 3.45046e-22 -3.37704e-22 -3.30669e-22 6.47841e-22 0 0 0.7823 0.724774 0.920103 0.948811 1.00614 1.10337 1.10112 1.1997 1.23657 1.26259 1.33898 1.37432 1.40029 1.39235 1.49023 1.49392 1.52949 1.51675 1.56902 1.63048 1.64684 1.67748 1.68022 1.70634 1.74042 1.70886 1.52282 1.05757 0.31364 0.00972352 4.20334e-06 8.23871e-11 1.68529e-15 -4.66826e-22 -2.26744e-22 -2.20446e-22 -2.14488e-22 4.17687e-22 -4.06977e-22 0 -3.87124e-22 0 3.69119e-22 -3.6073e-22 -3.52713e-22 -3.45046e-22 -3.37704e-22 -3.30669e-22 0 0 0 0.772185 0.715402 0.908206 0.936543 0.993129 1.08911 1.08689 1.18419 1.22059 1.24627 1.32167 1.35655 1.38219 1.37435 1.47097 1.4746 1.50971 1.49714 1.54874 1.6094 1.62555 1.65579 1.6585 1.68428 1.71792 1.68677 1.50313 1.04389 0.309584 0.0095978 4.14899e-06 8.13219e-11 1.67536e-15 0 4.53489e-22 2.20446e-22 -2.14488e-22 0 4.06977e-22 3.96803e-22 0 0 0 0 7.05427e-22 0 3.37704e-22 0 -3.23921e-22 0 0 0.761307 0.705325 0.895413 0.923351 0.979139 1.07377 1.07158 1.16751 1.20339 1.22871 1.30305 1.33744 1.36272 1.35499 1.45025 1.45383 1.48845 1.47605 1.52692 1.58673 1.60265 1.63247 1.63514 1.66055 1.69372 1.66301 1.48196 1.02919 0.305223 0.0094626 4.09055e-06 8.01763e-11 1.64683e-15 -2.33413e-22 2.26744e-22 2.20446e-22 2.14488e-22 -2.08843e-22 -2.03488e-22 0 0 3.77907e-22 0 0 0 -3.45046e-22 0 3.30669e-22 -3.23921e-22 0 0 0.749679 0.694552 0.881736 0.909247 0.964184 1.05737 1.05521 1.14968 1.18501 1.20995 1.28315 1.31702 1.34191 1.33429 1.42809 1.43163 1.46571 1.45351 1.5036 1.56249 1.57817 1.60753 1.61016 1.63519 1.66785 1.6376 1.45932 1.01347 0.300561 0.00931807 4.02807e-06 7.89517e-11 1.59825e-15 0 -6.80233e-22 0 0 0 0 -3.96803e-22 -1.93562e-22 0 3.69119e-22 0 0 3.45046e-22 0 3.30669e-22 3.23921e-22 0 0 0.737311 0.683093 0.867189 0.894246 0.948277 1.03992 1.0378 1.13071 1.16546 1.18998 1.26198 1.29529 1.31977 1.31228 1.40453 1.40801 1.44153 1.42953 1.47879 1.53671 1.55213 1.58101 1.5836 1.60821 1.64033 1.61059 1.43525 0.99675 0.295603 0.00916434 3.96162e-06 7.76491e-11 1.55373e-15 2.33413e-22 0 2.20446e-22 4.28976e-22 6.2653e-22 4.06977e-22 1.98401e-22 3.87124e-22 -3.77907e-22 -3.69119e-22 1.80365e-22 -3.52713e-22 -3.45046e-22 0 0 -3.23921e-22 0 0 0.724215 0.67096 0.851787 0.878363 0.931434 1.02145 1.01937 1.11063 1.14476 1.16885 1.23957 1.27228 1.29633 1.28897 1.37959 1.383 1.41593 1.40414 1.45253 1.50942 1.52457 1.55293 1.55547 1.57965 1.6112 1.58198 1.40976 0.979046 0.290352 0.00900157 3.89125e-06 7.62699e-11 1.59021e-15 2.33413e-22 0 -4.40892e-22 -4.28976e-22 0 -2.03488e-22 -1.98401e-22 5.80687e-22 1.88954e-22 0 0 0 3.45046e-22 3.37704e-22 3.30669e-22 -3.23921e-22 0 0 0.710404 0.658165 0.835543 0.861613 0.913671 1.00197 0.999928 1.08945 1.12293 1.14656 1.21593 1.24802 1.2716 1.26439 1.35328 1.35662 1.38893 1.37736 1.42483 1.48063 1.49549 1.52332 1.52581 1.54952 1.58047 1.55181 1.38287 0.960376 0.284815 0.00882991 3.81705e-06 7.48155e-11 1.56495e-15 2.33413e-22 0 4.40892e-22 6.43464e-22 -6.2653e-22 6.10465e-22 -5.95204e-22 3.87124e-22 -5.66861e-22 3.69119e-22 0 -3.52713e-22 -1.72523e-22 -1.68852e-22 0 -3.23921e-22 0 0 0.695893 0.644721 0.818475 0.844012 0.895008 0.981505 0.979502 1.06719 1.09999 1.12314 1.19109 1.22253 1.24563 1.23856 1.32563 1.32891 1.36055 1.34923 1.39572 1.45039 1.46494 1.4922 1.49464 1.51787 1.54819 1.52011 1.35462 0.940758 0.278997 0.00864954 3.73907e-06 7.32873e-11 1.46055e-15 1.16707e-22 1.13372e-22 0 -6.43464e-22 -2.08843e-22 -2.03488e-22 -1.98401e-22 3.87124e-22 -9.44768e-22 3.69119e-22 3.6073e-22 -3.52713e-22 1.72523e-22 -3.37704e-22 3.30669e-22 -3.23921e-22 0 0 0.680694 0.63064 0.8006 0.825579 0.87546 0.960068 0.958109 1.04389 1.07597 1.09861 1.16508 1.19583 1.21842 1.21151 1.29668 1.29989 1.33084 1.31976 1.36524 1.41871 1.43295 1.45961 1.462 1.48472 1.51437 1.48691 1.32504 0.920211 0.272904 0.00846063 3.65741e-06 7.16867e-11 1.44183e-15 -2.33413e-22 2.26744e-22 5.51115e-22 -2.14488e-22 -2.08843e-22 -2.03488e-22 1.98401e-22 7.74249e-22 0 -1.84559e-22 3.6073e-22 1.76357e-22 -3.45046e-22 -3.37704e-22 0 0 0 0 0.664824 0.615937 0.781934 0.806331 0.855049 0.937685 0.935771 1.01955 1.05088 1.07299 1.13791 1.16795 1.19002 1.18327 1.26645 1.26958 1.29981 1.28899 1.33341 1.38563 1.39954 1.42558 1.42791 1.4501 1.47907 1.45225 1.29415 0.898757 0.266541 0.00826337 3.57214e-06 7.00154e-11 1.42713e-15 1.16707e-22 0 1.10223e-22 1.07244e-22 -1.04422e-22 2.03488e-22 -3.96803e-22 -5.80687e-22 7.55814e-22 0 -5.41094e-22 0 0 -1.68852e-22 -3.30669e-22 -3.23921e-22 0 0 0.648298 0.600626 0.762497 0.786287 0.833794 0.914376 0.91251 0.994204 1.02476 1.04632 1.10963 1.13891 1.16044 1.15385 1.23497 1.23802 1.2675 1.25695 1.30026 1.35119 1.36475 1.39014 1.39241 1.41406 1.4423 1.41615 1.26198 0.876416 0.259916 0.00805796 3.48334e-06 6.82749e-11 1.40768e-15 0 -3.40116e-22 1.10223e-22 3.21732e-22 -8.35374e-22 5.08721e-22 1.98401e-22 0 -3.77907e-22 1.84559e-22 3.6073e-22 5.2907e-22 -1.72523e-22 5.06557e-22 4.96003e-22 -1.6196e-22 0 0 0.631132 0.584722 0.742307 0.765467 0.811717 0.890164 0.888348 0.967879 0.997625 1.01862 1.08024 1.10876 1.12971 1.1233 1.20227 1.20524 1.23394 1.22366 1.26583 1.31541 1.32861 1.35333 1.35555 1.37661 1.40411 1.37865 1.22856 0.853209 0.253033 0.0078446 3.39111e-06 6.6467e-11 1.34407e-15 0 5.10175e-22 2.20446e-22 2.14488e-22 -3.13265e-22 3.05233e-22 9.92006e-23 6.77468e-22 9.44768e-23 -3.69119e-22 -1.80365e-22 0 -5.17569e-22 -1.68852e-22 0 -1.6196e-22 0 0 0.613343 0.568241 0.721384 0.743892 0.788838 0.865074 0.863309 0.940598 0.969507 0.989905 1.0498 1.0775 1.09787 1.09164 1.16838 1.17127 1.19916 1.18917 1.23015 1.27834 1.29117 1.31519 1.31734 1.33781 1.36453 1.33979 1.19393 0.829161 0.245901 0.00762349 3.29553e-06 6.45936e-11 1.28976e-15 -2.91767e-22 -3.96802e-22 2.75557e-22 -1.60866e-22 -2.08843e-22 -2.03488e-22 -3.96803e-22 0 1.88954e-22 1.84559e-22 -1.80365e-22 0 0 -1.68852e-22 1.65334e-22 1.6196e-22 0 0 0.594949 0.551199 0.69975 0.721583 0.76518 0.839131 0.837418 0.91239 0.940431 0.960218 1.01831 1.04519 1.06494 1.0589 1.13334 1.13614 1.1632 1.15351 1.19326 1.24 1.25244 1.27574 1.27783 1.29769 1.32361 1.29961 1.15813 0.804294 0.238527 0.00739486 3.1967e-06 6.26564e-11 1.2503e-15 -2.6259e-22 -3.96802e-22 -1.65334e-22 2.14488e-22 -4.69898e-22 -5.08721e-23 -6.94404e-22 -2.90343e-22 2.8343e-22 1.84559e-22 -1.80365e-22 0 1.72523e-22 -8.44261e-23 -1.65334e-22 3.23921e-22 0 0 0.575967 0.533614 0.677425 0.698561 0.740768 0.812359 0.810701 0.883281 0.910427 0.929583 0.985825 1.01184 1.03097 1.02512 1.09718 1.0999 1.12609 1.11671 1.15519 1.20044 1.21249 1.23504 1.23706 1.25629 1.28138 1.25815 1.12118 0.778634 0.230917 0.00715894 3.09471e-06 6.06575e-11 1.18244e-15 -4.01179e-22 5.24346e-22 -4.96003e-22 2.6811e-23 3.13265e-22 -2.03488e-22 2.97602e-22 1.93562e-22 9.44768e-23 -1.84559e-22 9.01824e-23 4.40892e-22 0 4.2213e-22 -4.96003e-22 4.04901e-22 0 0 0.556418 0.515502 0.654431 0.67485 0.715624 0.784785 0.783184 0.8533 0.879525 0.898031 0.952363 0.9775 0.995972 0.990323 1.05994 1.06256 1.08786 1.0788 1.11598 1.15969 1.17133 1.19312 1.19507 1.21365 1.23789 1.21544 1.08312 0.752205 0.223079 0.00691594 2.98967e-06 5.85986e-11 1.18431e-15 7.29416e-23 -1.27544e-22 -3.10002e-22 1.07244e-22 1.04422e-22 5.08721e-22 -8.92806e-22 -2.41953e-22 -2.36192e-22 5.07538e-22 -4.50912e-23 0 1.72523e-22 3.37704e-22 -6.61338e-22 6.47841e-22 0 0 0.536319 0.496881 0.630792 0.650473 0.689775 0.756437 0.754894 0.822477 0.847755 0.865592 0.917962 0.942191 0.959996 0.954551 1.02166 1.02418 1.04857 1.03984 1.07567 1.1178 1.12902 1.15002 1.15191 1.16981 1.19317 1.17154 1.044 0.725034 0.215021 0.00666613 2.88167e-06 5.64819e-11 1.14003e-15 3.20943e-22 -1.70058e-22 -8.26672e-22 4.69192e-23 4.40529e-23 -1.78052e-22 4.46403e-22 9.67811e-22 -3.77907e-22 -1.1535e-21 1.80365e-22 -2.20446e-22 -3.88176e-22 1.68852e-22 -3.30669e-22 0 0 0 0.515691 0.477769 0.60653 0.625454 0.663244 0.727343 0.725859 0.790842 0.815148 0.832299 0.882655 0.905952 0.923072 0.917836 0.98236 0.984789 1.00824 0.999842 1.0343 1.07481 1.0856 1.10579 1.1076 1.12482 1.14728 1.12648 1.00384 0.697147 0.206751 0.00640973 2.77084e-06 5.43095e-11 1.09619e-15 3.5012e-22 1.13372e-22 1.10223e-22 -1.34055e-22 -5.22109e-22 6.99492e-22 9.45506e-23 2.96392e-22 4.84194e-22 2.53769e-22 4.50912e-22 -6.17249e-22 -3.01915e-22 4.2213e-23 8.26672e-23 4.04901e-22 0 0 0.494553 0.458187 0.58167 0.599818 0.636059 0.697531 0.696107 0.758427 0.781737 0.798185 0.846477 0.868818 0.885237 0.880216 0.942095 0.944424 0.966912 0.95886 0.991903 1.03075 1.0411 1.06047 1.0622 1.07871 1.10026 1.08031 0.962697 0.668573 0.198276 0.00614701 2.65727e-06 5.20834e-11 1.10634e-15 -2.91767e-22 2.26744e-22 1.10223e-22 1.07244e-22 8.35374e-22 -5.34157e-22 2.97602e-22 3.75027e-22 6.49528e-23 2.68188e-22 -2.25456e-23 5.62137e-22 -2.58784e-22 4.64344e-22 2.06668e-22 -4.04901e-22 0 0 0.472928 0.438152 0.556235 0.57359 0.608246 0.66703 0.665669 0.725264 0.747554 0.763283 0.809463 0.830828 0.846529 0.841727 0.9009 0.903128 0.924632 0.916932 0.948531 0.985683 0.995575 1.0141 1.01576 1.03154 1.05215 1.03307 0.920601 0.639338 0.189606 0.00587822 2.54107e-06 4.9806e-11 1.00991e-15 -2.33413e-22 -2.26744e-22 -7.16449e-22 -3.21732e-22 -1.56633e-22 -4.06977e-22 -4.46403e-22 -7.25858e-23 -6.61338e-22 7.84377e-22 -3.72002e-22 -4.96003e-23 1.05131e-22 4.01024e-22 6.82005e-22 3.03675e-22 0 0 0.450836 0.417684 0.530252 0.546796 0.579833 0.635871 0.634573 0.691385 0.712634 0.727628 0.771651 0.792017 0.806985 0.802408 0.858817 0.86094 0.88144 0.8741 0.904222 0.939638 0.949069 0.966726 0.968307 0.983356 1.003 0.98481 0.877597 0.609473 0.180749 0.00560363 2.42237e-06 4.74794e-11 9.82795e-16 0 6.80233e-22 -3.30669e-22 -3.21732e-22 1.04422e-22 -1.01744e-22 -2.97602e-22 -2.41953e-22 5.66861e-22 -3.69119e-22 -1.57819e-22 -1.54312e-22 3.88176e-22 2.42725e-22 -4.13336e-22 -3.96676e-22 0 0 0.4283 0.396805 0.503745 0.519462 0.550848 0.604084 0.602852 0.656823 0.67701 0.691255 0.733077 0.752425 0.766645 0.762296 0.815885 0.817903 0.837377 0.830405 0.859021 0.892667 0.901626 0.9184 0.919902 0.934199 0.952859 0.93558 0.833727 0.579006 0.171714 0.00532351 2.30128e-06 4.51059e-11 9.04163e-16 -4.66826e-22 2.26744e-22 -3.30669e-22 -3.21732e-22 -2.08843e-22 3.05233e-22 9.92006e-23 -5.80687e-22 -8.50291e-22 -4.15259e-22 -1.80365e-22 -3.08624e-22 -4.31307e-22 3.37704e-22 2.27335e-22 -2.22695e-22 0 0 0.40534 0.375534 0.476741 0.491616 0.521319 0.571702 0.570535 0.621613 0.640718 0.654199 0.693779 0.712091 0.725548 0.721432 0.772149 0.774058 0.792489 0.78589 0.812972 0.844815 0.853293 0.869168 0.87059 0.884121 0.90178 0.885428 0.789034 0.547968 0.162509 0.00503814 2.17792e-06 4.2688e-11 9.28427e-16 0 -2.26744e-22 0 0 0 0 0 -9.67811e-23 4.72384e-22 -2.76839e-22 -2.70547e-22 -2.64535e-22 -2.58784e-22 -2.95491e-22 2.06668e-22 -4.45391e-22 0 0 0.381981 0.353892 0.449267 0.463285 0.491276 0.538755 0.537656 0.58579 0.603794 0.616498 0.653797 0.671053 0.683735 0.679857 0.72765 0.729449 0.746818 0.740599 0.766121 0.796128 0.804119 0.819079 0.820418 0.833169 0.849811 0.834401 0.743563 0.516389 0.153144 0.00474779 2.0524e-06 4.02279e-11 8.05242e-16 4.66826e-22 -2.26744e-22 -5.51115e-22 -4.28976e-22 -2.08843e-22 -2.03488e-22 -1.98401e-22 -4.83906e-22 -1.88954e-22 -4.61398e-22 9.01824e-23 4.40892e-22 8.62614e-23 -8.44261e-23 2.06668e-22 0 0 0 0.358244 0.331901 0.421349 0.434496 0.460748 0.505276 0.504245 0.549389 0.566274 0.578188 0.61317 0.629354 0.641247 0.63761 0.682434 0.684121 0.700411 0.694578 0.718514 0.746657 0.75415 0.768181 0.769437 0.781396 0.797003 0.782551 0.697357 0.4843 0.143627 0.00445276 1.92487e-06 3.77281e-11 7.57114e-16 4.66826e-22 0 -2.20446e-22 4.28976e-22 -4.17687e-22 -6.10465e-22 -5.95204e-22 -2.90343e-22 -2.8343e-22 -6.45958e-22 -3.6073e-22 5.2907e-22 3.45046e-22 -7.59835e-22 -7.44005e-22 8.09801e-23 0 0 0.334154 0.309582 0.393016 0.405278 0.429765 0.471299 0.470338 0.512445 0.528195 0.539308 0.571938 0.587033 0.598127 0.594734 0.636544 0.638118 0.653312 0.647871 0.670198 0.696448 0.703438 0.716525 0.717696 0.728851 0.743409 0.729928 0.650464 0.451733 0.133969 0.00415334 1.79543e-06 3.51911e-11 7.10298e-16 0 0 0 4.28976e-22 4.17687e-22 4.06977e-22 3.96803e-22 0 0 3.69119e-22 0 8.81784e-23 6.0383e-22 2.53278e-22 -2.48002e-22 -1.6196e-22 0 0 0.309734 0.286958 0.364294 0.375661 0.398358 0.436857 0.435966 0.474996 0.489595 0.499896 0.530141 0.544133 0.554416 0.551271 0.590025 0.591484 0.605568 0.600525 0.62122 0.645552 0.652031 0.664161 0.665248 0.675587 0.689081 0.676586 0.602928 0.418721 0.124179 0.00384982 1.66422e-06 3.26193e-11 6.20284e-16 -2.33413e-22 -4.53489e-22 -2.20446e-22 0 6.2653e-22 -2.03488e-22 1.98401e-22 5.80687e-22 -1.88954e-22 0 -1.80365e-22 -1.76357e-22 1.72523e-22 1.68852e-22 -1.65334e-22 -3.23921e-22 0 0 0.285009 0.264051 0.335214 0.345673 0.366558 0.401984 0.401163 0.437078 0.450511 0.45999 0.487821 0.500696 0.510158 0.507264 0.542925 0.544267 0.557227 0.552587 0.571629 0.594019 0.599981 0.611143 0.612142 0.621656 0.634073 0.622575 0.554798 0.385295 0.114266 0.00354249 1.53137e-06 3.00154e-11 5.9762e-16 0 -4.53489e-22 -2.20446e-22 -2.14488e-22 6.2653e-22 -4.06977e-22 -1.98401e-22 -1.93562e-22 -3.77907e-22 0 0 0 3.45046e-22 3.37704e-22 -3.30669e-22 -4.85881e-22 0 0 0.260002 0.240883 0.305802 0.315343 0.334396 0.366714 0.365965 0.398729 0.410983 0.419631 0.445019 0.456765 0.465397 0.462757 0.495289 0.496513 0.508336 0.504103 0.521474 0.541899 0.547338 0.557521 0.558433 0.567112 0.578439 0.56795 0.50612 0.351489 0.10424 0.00323167 1.39701e-06 2.73819e-11 5.40162e-16 4.66826e-22 -6.80233e-22 -8.81783e-22 -4.28976e-22 -2.08843e-22 4.06977e-22 5.95204e-22 -3.87124e-22 3.77907e-22 -1.84559e-22 5.41094e-22 -3.52713e-22 -3.45046e-22 3.37704e-22 3.30669e-22 -6.47841e-22 0 0 0.234739 0.217477 0.276088 0.284703 0.301904 0.331081 0.330406 0.359986 0.37105 0.378857 0.401779 0.412383 0.420176 0.417793 0.447163 0.448269 0.458943 0.455121 0.470805 0.489245 0.494156 0.503349 0.504172 0.512008 0.522235 0.512765 0.456942 0.317337 0.0941115 0.00291767 1.26127e-06 2.47213e-11 4.75549e-16 2.33413e-22 4.53489e-22 4.40892e-22 4.28976e-22 2.08843e-22 -4.06977e-22 3.96803e-22 0 0 3.69119e-22 3.6073e-22 3.52713e-22 -5.17569e-22 1.68852e-22 3.30669e-22 0 0 0 0.209244 0.193857 0.246102 0.253781 0.269114 0.295123 0.29452 0.320888 0.33075 0.337709 0.358141 0.367594 0.374541 0.372416 0.398597 0.399583 0.409097 0.40569 0.419671 0.436108 0.440485 0.44868 0.449414 0.456399 0.465515 0.457074 0.407314 0.282871 0.08389 0.00260078 1.12428e-06 2.20363e-11 4.35442e-16 -4.66826e-22 2.26744e-22 -2.20446e-22 -4.28976e-22 -2.08843e-22 -2.03488e-22 -1.98401e-22 -3.87124e-22 -1.88954e-22 -3.69119e-22 -3.6073e-22 0 -1.72523e-22 3.37704e-22 -1.65334e-22 1.6196e-22 0 0 0.183542 0.170046 0.215874 0.222609 0.236059 0.258873 0.258344 0.281473 0.290124 0.296228 0.314151 0.322442 0.328536 0.326672 0.349637 0.350502 0.358847 0.355859 0.368123 0.382541 0.38638 0.393569 0.394212 0.400339 0.408336 0.400931 0.357283 0.248126 0.0735858 0.00228132 9.86184e-07 1.93296e-11 3.90802e-16 9.33653e-22 -2.26744e-22 -4.40892e-22 2.14488e-22 0 -2.03488e-22 1.98401e-22 0 1.88954e-22 1.84559e-22 -1.80365e-22 -1.76357e-22 -1.72523e-22 0 -1.65334e-22 -1.6196e-22 0 0 0.15766 0.146066 0.185432 0.191217 0.202771 0.222367 0.221913 0.241781 0.249212 0.254455 0.26985 0.276972 0.282207 0.280606 0.300332 0.301075 0.308244 0.305677 0.316211 0.328596 0.331894 0.338069 0.338622 0.343885 0.35075