<?xml version="1.0"?>
<VTKFile type="PolyData">
	<PolyData>
		<Piece NumberOfPoints="2601" NumberOfPolys="2500">
			<Points>
				<DataArray type="Float32" NumberOfComponents="3" format="ascii">
 1e-06 0 0 0.291808 0 0 0.330836 0 0 0.369166 0 0 0.398886 0 0 0.423986 0 0 0.445098 0 0 0.463382 0 0 0.480766 0 0 0.496535 0 0 0.510866 0 0 0.523857 0 0 0.535831 0 0 0.547268 0 0 0.557813 0 0 0.56731 0 0 0.576149 0 0 0.584289 0 0 0.592197 0 0 0.599413 0 0 0.606203 0 0 0.612515 0 0 0.618629 0 0 0.62433 0 0 0.629703 0 0 0.6348 0 0 0.63958 0 0 0.644193 0 0 0.648647 0 0 0.652835 0 0 0.656845 0 0 0.66067 0 0 0.66522 0 0 0.671951 0 0 0.683109 0 0 0.70019 0 0 0.720002 0 0 0.740001 0 0 0.760001 0 0 0.780001 0 0 0.800001 0 0 0.820001 0 0 0.840001 0 0 0.860001 0 0 0.880001 0 0 0.900001 0 0 0.920001 0 0 0.940001 0 0 0.960001 0 0 0.980001 0 0 1 0 0 9.99507e-07 3.14108e-08 0 0.291664 0.00916592 0 0.330673 0.0103918 0 0.368984 0.0115958 0 0.398689 0.0125293 0 0.423777 0.0133177 0 0.444878 0.0139809 0 0.463153 0.0145552 0 0.480529 0.0151012 0 0.49629 0.0155965 0 0.510614 0.0160467 0 0.523598 0.0164547 0 0.535567 0.0168309 0 0.546998 0.0171901 0 0.557538 0.0175213 0 0.56703 0.0178196 0 0.575865 0.0180973 0 0.584001 0.018353 0 0.591905 0.0186014 0 0.599117 0.018828 0 0.605904 0.0190413 0 0.612213 0.0192396 0 0.618324 0.0194316 0 0.624022 0.0196107 0 0.629393 0.0197795 0 0.634487 0.0199395 0 0.639264 0.0200897 0 0.643875 0.0202346 0 0.648327 0.0203745 0 0.652513 0.020506 0 0.656521 0.020632 0 0.660344 0.0207522 0 0.664892 0.0208951 0 0.671619 0.0211065 0 0.682771 0.021457 0 0.699845 0.0219935 0 0.719646 0.0226158 0 0.739636 0.023244 0 0.759626 0.0238722 0 0.779616 0.0245004 0 0.799606 0.0251286 0 0.819596 0.0257569 0 0.839587 0.0263851 0 0.859577 0.0270133 0 0.879567 0.0276415 0 0.899557 0.0282697 0 0.919547 0.0288979 0 0.939537 0.0295261 0 0.959527 0.0301544 0 0.979517 0.0307826 0 0.999508 0.0314108 0 9.98027e-07 6.27905e-08 0 0.291232 0.0183228 0 0.330183 0.0207734 0 0.368437 0.0231801 0 0.398099 0.0250463 0 0.423149 0.0266223 0 0.444219 0.0279479 0 0.462468 0.029096 0 0.479817 0.0301875 0 0.495555 0.0311777 0 0.509858 0.0320776 0 0.522823 0.0328932 0 0.534774 0.0336451 0 0.546188 0.0343632 0 0.556712 0.0350254 0 0.566191 0.0356217 0 0.575012 0.0361767 0 0.583136 0.0366878 0 0.591028 0.0371844 0 0.59823 0.0376374 0 0.605007 0.0380638 0 0.611307 0.0384602 0 0.617409 0.0388441 0 0.623098 0.039202 0 0.628461 0.0395394 0 0.633547 0.0398594 0 0.638318 0.0401596 0 0.642922 0.0404492 0 0.647367 0.0407289 0 0.651547 0.0409918 0 0.655549 0.0412437 0 0.659367 0.0414838 0 0.663907 0.0417695 0 0.670625 0.0421921 0 0.681761 0.0428927 0 0.698809 0.0439653 0 0.718581 0.0452093 0 0.738541 0.046465 0 0.758501 0.0477209 0 0.778462 0.0489767 0 0.798422 0.0502325 0 0.818383 0.0514883 0 0.838343 0.0527441 0 0.858304 0.0539999 0 0.878265 0.0552557 0 0.898225 0.0565115 0 0.918186 0.0577673 0 0.938146 0.0590232 0 0.958107 0.060279 0 0.978067 0.0615348 0 0.998028 0.0627906 0 9.95562e-07 9.41083e-08 0 0.290513 0.0274616 0 0.329368 0.0311344 0 0.367527 0.0347416 0 0.397116 0.0375385 0 0.422104 0.0399006 0 0.443122 0.0418874 0 0.461326 0.0436081 0 0.478632 0.0452441 0 0.494331 0.0467281 0 0.508599 0.0480768 0 0.521532 0.0492993 0 0.533453 0.0504262 0 0.544839 0.0515025 0 0.555337 0.0524948 0 0.564792 0.0533886 0 0.573592 0.0542204 0 0.581696 0.0549865 0 0.589569 0.0557307 0 0.596753 0.0564097 0 0.603513 0.0570487 0 0.609797 0.0576428 0 0.615884 0.0582182 0 0.621559 0.0587546 0 0.626909 0.0592603 0 0.631983 0.05974 0 0.636742 0.0601898 0 0.641334 0.0606239 0 0.645768 0.0610431 0 0.649938 0.0614372 0 0.65393 0.0618146 0 0.657738 0.0621746 0 0.662268 0.0626027 0 0.668969 0.0632362 0 0.680077 0.0642862 0 0.697083 0.0658937 0 0.716806 0.0677581 0 0.736717 0.0696402 0 0.756628 0.0715224 0 0.776539 0.0734046 0 0.796451 0.0752867 0 0.816362 0.0771689 0 0.836273 0.0790511 0 0.856184 0.0809332 0 0.876096 0.0828154 0 0.896007 0.0846976 0 0.915918 0.0865797 0 0.935829 0.0884619 0 0.95574 0.0903441 0 0.975652 0.0922262 0 0.995563 0.0941084 0 9.92115e-07 1.25333e-07 0 0.289507 0.0365733 0 0.328227 0.0414647 0 0.366255 0.0462687 0 0.395741 0.0499937 0 0.420642 0.0531395 0 0.441588 0.0557855 0 0.459728 0.0580772 0 0.476975 0.060256 0 0.49262 0.0622323 0 0.506838 0.0640285 0 0.519726 0.0656567 0 0.531606 0.0671575 0 0.542953 0.0685909 0 0.553414 0.0699125 0 0.562837 0.0711028 0 0.571606 0.0722106 0 0.579682 0.0732309 0 0.587527 0.074222 0 0.594686 0.0751263 0 0.601423 0.0759774 0 0.607686 0.0767685 0 0.613751 0.0775348 0 0.619407 0.0782493 0 0.624738 0.0789228 0 0.629794 0.0795615 0 0.634537 0.0801606 0 0.639113 0.0807388 0 0.643532 0.081297 0 0.647687 0.0818219 0 0.651666 0.0823246 0 0.655461 0.0828039 0 0.659975 0.0833742 0 0.666652 0.0842178 0 0.677722 0.0856162 0 0.694669 0.0877571 0 0.714324 0.0902401 0 0.734166 0.0927467 0 0.754008 0.0952534 0 0.77385 0.09776 0 0.793693 0.100267 0 0.813535 0.102773 0 0.833377 0.10528 0 0.85322 0.107787 0 0.873062 0.110293 0 0.892904 0.1128 0 0.912747 0.115307 0 0.932589 0.117813 0 0.952431 0.12032 0 0.972273 0.122827 0 0.992116 0.125333 0 9.87688e-07 1.56434e-07 0 0.288215 0.0456489 0 0.326763 0.0517541 0 0.364621 0.0577502 0 0.393975 0.0623995 0 0.418766 0.066326 0 0.439618 0.0696286 0 0.457677 0.0724889 0 0.474847 0.0752084 0 0.490422 0.0776752 0 0.504577 0.0799171 0 0.517407 0.0819493 0 0.529234 0.0838225 0 0.54053 0.0856116 0 0.550945 0.0872612 0 0.560326 0.0887469 0 0.569056 0.0901296 0 0.577096 0.091403 0 0.584906 0.09264 0 0.592033 0.0937688 0 0.59874 0.0948311 0 0.604974 0.0958185 0 0.611013 0.096775 0 0.616643 0.0976667 0 0.621951 0.0985073 0 0.626984 0.0993046 0 0.631706 0.100052 0 0.636262 0.100774 0 0.640661 0.101471 0 0.644797 0.102126 0 0.648759 0.102753 0 0.652536 0.103352 0 0.65703 0.104063 0 0.663678 0.105116 0 0.674698 0.106862 0 0.69157 0.109534 0 0.711137 0.112633 0 0.73089 0.115762 0 0.750644 0.11889 0 0.770398 0.122019 0 0.790152 0.125148 0 0.809905 0.128276 0 0.829659 0.131405 0 0.849413 0.134534 0 0.869167 0.137662 0 0.88892 0.140791 0 0.908674 0.14392 0 0.928428 0.147049 0 0.948182 0.150177 0 0.967936 0.153306 0 0.987689 0.156435 0 9.82287e-07 1.87381e-07 0 0.286639 0.0546794 0 0.324976 0.0619925 0 0.362627 0.0691748 0 0.391821 0.0747438 0 0.416476 0.079447 0 0.437214 0.083403 0 0.455174 0.0868291 0 0.47225 0.0900866 0 0.48774 0.0930414 0 0.501817 0.0957268 0 0.514578 0.098161 0 0.52634 0.100405 0 0.537574 0.102548 0 0.547933 0.104524 0 0.557262 0.106303 0 0.565944 0.10796 0 0.57394 0.109485 0 0.581708 0.110967 0 0.588796 0.112319 0 0.595466 0.113591 0 0.601666 0.114774 0 0.607672 0.11592 0 0.613271 0.116988 0 0.61855 0.117995 0 0.623556 0.11895 0 0.628251 0.119845 0 0.632783 0.12071 0 0.637158 0.121544 0 0.641271 0.122329 0 0.645211 0.123081 0 0.648968 0.123797 0 0.653437 0.12465 0 0.660049 0.125911 0 0.671009 0.128002 0 0.687788 0.131203 0 0.707248 0.134915 0 0.726894 0.138662 0 0.746539 0.14241 0 0.766185 0.146158 0 0.785831 0.149905 0 0.805477 0.153653 0 0.825122 0.1574 0 0.844768 0.161148 0 0.864414 0.164896 0 0.88406 0.168643 0 0.903705 0.172391 0 0.923351 0.176139 0 0.942997 0.179886 0 0.962642 0.183634 0 0.982288 0.187382 0 9.75917e-07 2.18143e-07 0 0.28478 0.063656 0 0.322868 0.0721696 0 0.360275 0.080531 0 0.38928 0.0870143 0 0.413775 0.0924896 0 0.434378 0.097095 0 0.452222 0.101084 0 0.469188 0.104876 0 0.484577 0.108316 0 0.498563 0.111442 0 0.511241 0.114276 0 0.522927 0.116888 0 0.534088 0.119383 0 0.544379 0.121683 0 0.553647 0.123755 0 0.562273 0.125683 0 0.570218 0.127459 0 0.577935 0.129184 0 0.584977 0.130758 0 0.591604 0.132239 0 0.597764 0.133616 0 0.603731 0.13495 0 0.609294 0.136193 0 0.614538 0.137366 0 0.619512 0.138477 0 0.624177 0.13952 0 0.628679 0.140526 0 0.633025 0.141498 0 0.637113 0.142412 0 0.641027 0.143286 0 0.644759 0.144121 0 0.649199 0.145113 0 0.655768 0.146582 0 0.666657 0.149016 0 0.683327 0.152742 0 0.702662 0.157063 0 0.722179 0.161426 0 0.741698 0.165789 0 0.761216 0.170152 0 0.780734 0.174515 0 0.800253 0.178878 0 0.819771 0.183241 0 0.839289 0.187603 0 0.858808 0.191966 0 0.878326 0.196329 0 0.897844 0.200692 0 0.917363 0.205055 0 0.936881 0.209418 0 0.956399 0.213781 0 0.975918 0.218143 0 9.68583e-07 2.4869e-07 0 0.28264 0.0725697 0 0.320442 0.0822755 0 0.357568 0.0918078 0 0.386354 0.0991989 0 0.410665 0.105441 0 0.431114 0.110691 0 0.448824 0.115238 0 0.465662 0.119562 0 0.480935 0.123483 0 0.494816 0.127047 0 0.507399 0.130278 0 0.518997 0.133256 0 0.530075 0.1361 0 0.540288 0.138722 0 0.549487 0.141084 0 0.558048 0.143282 0 0.565933 0.145307 0 0.573592 0.147273 0 0.580581 0.149068 0 0.587158 0.150757 0 0.593272 0.152326 0 0.599194 0.153847 0 0.604715 0.155265 0 0.60992 0.156601 0 0.614857 0.157868 0 0.619486 0.159057 0 0.623954 0.160204 0 0.628269 0.161312 0 0.632325 0.162353 0 0.636209 0.163351 0 0.639914 0.164302 0 0.644321 0.165433 0 0.65084 0.167107 0 0.661647 0.169882 0 0.678193 0.17413 0 0.697381 0.179057 0 0.716753 0.184031 0 0.736124 0.189005 0 0.755496 0.193978 0 0.774867 0.198952 0 0.794239 0.203926 0 0.813611 0.2089 0 0.832982 0.213874 0 0.852354 0.218847 0 0.871726 0.223821 0 0.891097 0.228795 0 0.910469 0.233769 0 0.929841 0.238743 0 0.949212 0.243716 0 0.968584 0.24869 0 9.60294e-07 2.78991e-07 0 0.280222 0.0814119 0 0.3177 0.0923003 0 0.354508 0.102994 0 0.383048 0.111286 0 0.407151 0.118288 0 0.427424 0.124178 0 0.444983 0.129279 0 0.461677 0.134129 0 0.476819 0.138529 0 0.490582 0.142527 0 0.503056 0.146151 0 0.514556 0.149492 0 0.525538 0.152683 0 0.535664 0.155625 0 0.544784 0.158274 0 0.553272 0.16074 0 0.561089 0.163012 0 0.568683 0.165218 0 0.575612 0.167231 0 0.582133 0.169125 0 0.588195 0.170886 0 0.594066 0.172592 0 0.59954 0.174183 0 0.6047 0.175682 0 0.609594 0.177104 0 0.614185 0.178437 0 0.618614 0.179724 0 0.622892 0.180967 0 0.626913 0.182135 0 0.630765 0.183254 0 0.634438 0.184321 0 0.638807 0.18559 0 0.64527 0.187468 0 0.655985 0.190581 0 0.672388 0.195347 0 0.691413 0.200874 0 0.710618 0.206454 0 0.729824 0.212034 0 0.74903 0.21
[...]
			<PointData Scalars="VitesseX">
				<DataArray Name="VitesseX" type="Float32" format="ascii">
 0 0.492425 0.75818 0.715753 0.850462 0.869235 0.956828 0.959583 1.01012 1.04924 1.05575 1.12188 1.14631 1.16224 1.21945 1.24363 1.27279 1.29426 1.3141 1.36862 1.38914 1.38161 1.41353 1.41865 1.46443 1.49025 1.49511 1.51597 1.51764 1.53113 1.57325 1.55449 1.4305 1.1218 0.571771 0.0722857 0.000445771 2.33434e-08 6.52947e-13 7.08067e-18 0 0 0 0 0 0 0 0 0 0 0 0 0.492182 0.757806 0.7154 0.850043 0.868806 0.956356 0.959109 1.00962 1.04872 1.05522 1.12133 1.14574 1.16167 1.21885 1.24301 1.27216 1.29362 1.31345 1.36794 1.38846 1.38093 1.41283 1.41795 1.4637 1.48952 1.49437 1.51523 1.51689 1.53037 1.57247 1.55372 1.42979 1.12125 0.571489 0.0722501 0.000445551 2.33319e-08 6.52618e-13 7.07735e-18 5.64087e-22 5.50328e-22 -5.37225e-22 -5.24732e-22 0 0 4.9051e-22 -4.80074e-22 0 9.20958e-22 0 0 0.491454 0.756684 0.714341 0.848784 0.86752 0.95494 0.957689 1.00813 1.04717 1.05366 1.11967 1.14404 1.15995 1.21704 1.24117 1.27027 1.29171 1.31151 1.36591 1.3864 1.37888 1.41074 1.41585 1.46154 1.48731 1.49216 1.51298 1.51464 1.5281 1.57014 1.55142 1.42768 1.11959 0.570643 0.0721431 0.000444891 2.32974e-08 6.51644e-13 9.32097e-19 0 0 -5.37225e-22 0 0 0 4.9051e-22 -9.60148e-22 0 0 0 0 0.49024 0.754815 0.712577 0.846688 0.865377 0.952582 0.955324 1.00564 1.04458 1.05106 1.1169 1.14122 1.15708 1.21404 1.23811 1.26714 1.28852 1.30827 1.36254 1.38298 1.37548 1.40726 1.41235 1.45793 1.48364 1.48847 1.50925 1.5109 1.52433 1.56627 1.54759 1.42415 1.11683 0.569233 0.0719649 0.000443793 2.32398e-08 6.50021e-13 3.48741e-19 0 0 0 0 0 1.00282e-21 4.9051e-22 -4.80074e-22 0 0 0 0 0.488542 0.752201 0.710109 0.843756 0.862381 0.949283 0.952016 1.00216 1.04096 1.04742 1.11304 1.13727 1.15308 1.20983 1.23382 1.26275 1.28406 1.30374 1.35782 1.37819 1.37071 1.40239 1.40746 1.45288 1.4785 1.48332 1.50402 1.50567 1.51905 1.56084 1.54223 1.41922 1.11296 0.567262 0.0717158 0.000442256 2.31594e-08 6.47771e-13 2.06231e-18 0 0 0 0 -5.12806e-22 5.0141e-22 -9.8102e-22 0 -4.70072e-22 -4.60479e-22 0 0 0.486363 0.748845 0.706941 0.839992 0.858533 0.945048 0.947769 0.997686 1.03632 1.04275 1.10807 1.13219 1.14793 1.20443 1.22832 1.25712 1.27833 1.29792 1.35177 1.37204 1.3646 1.39613 1.40118 1.4464 1.47191 1.4767 1.49731 1.49895 1.51227 1.55388 1.53535 1.41289 1.10799 0.564732 0.0713958 0.000440283 2.3056e-08 6.44878e-13 3.96274e-22 5.64087e-22 0 -5.37225e-22 0 0 5.0141e-22 0 9.60148e-22 -4.70072e-22 0 0 0 0.483703 0.74475 0.703075 0.835398 0.853838 0.93988 0.942586 0.99223 1.03065 1.03705 1.10201 1.126 1.14165 1.19785 1.2216 1.25024 1.27134 1.29082 1.34437 1.36454 1.35714 1.38849 1.39352 1.43849 1.46386 1.46863 1.48912 1.49075 1.504 1.54538 1.52695 1.40516 1.10193 0.561643 0.0710054 0.000437875 2.29299e-08 6.41329e-13 7.97889e-22 0 0 5.37225e-22 0 -5.12806e-22 -5.0141e-22 0 9.60148e-22 -4.70072e-22 4.60479e-22 0 0 0.480566 0.73992 0.698516 0.82998 0.848301 0.933785 0.936473 0.985795 1.02397 1.03032 1.09486 1.1187 1.13425 1.19008 1.21368 1.24213 1.26309 1.28245 1.33565 1.35569 1.34833 1.37949 1.38448 1.42916 1.45436 1.4591 1.47946 1.48109 1.49425 1.53536 1.51705 1.39605 1.09479 0.558001 0.0705449 0.000435035 2.27812e-08 6.37117e-13 -5.40374e-18 0 0 -5.37225e-22 5.24732e-22 0 -5.0141e-22 -4.9051e-22 -4.80074e-22 0 0 0 0 0.476955 0.73436 0.693267 0.823744 0.841926 0.926768 0.929436 0.978387 1.01627 1.02258 1.08664 1.11029 1.12573 1.18114 1.20456 1.2328 1.2536 1.27281 1.32562 1.3455 1.3382 1.36912 1.37408 1.41842 1.44344 1.44814 1.46835 1.46996 1.48302 1.52382 1.50565 1.38556 1.08656 0.553808 0.0700148 0.000431766 2.261e-08 6.32249e-13 -1.44957e-17 0 0 0 5.24732e-22 1.02561e-21 -5.0141e-22 0 0 0 4.60479e-22 0 0 0.472873 0.728075 0.687333 0.816694 0.834721 0.918836 0.921481 0.970014 1.00758 1.01383 1.07734 1.10079 1.11609 1.17103 1.19425 1.22225 1.24287 1.26192 1.31427 1.33398 1.32675 1.35741 1.36232 1.40628 1.43108 1.43574 1.45578 1.45738 1.47033 1.51078 1.49277 1.3737 1.07726 0.549068 0.0694155 0.000428071 2.24165e-08 6.26789e-13 -6.86636e-18 0 0 -1.07445e-21 -1.04946e-21 1.02561e-21 5.0141e-22 4.9051e-22 0 0 4.60479e-22 0 0 0.468324 0.721072 0.680722 0.808838 0.826692 0.909998 0.912617 0.960683 0.997883 1.00407 1.06697 1.0902 1.10536 1.15976 1.18276 1.21049 1.23092 1.24978 1.30163 1.32115 1.31399 1.34435 1.34922 1.39275 1.41732 1.42193 1.44178 1.44336 1.45619 1.49625 1.47841 1.36049 1.0669 0.543786 0.0687478 0.000423953 2.22009e-08 6.20833e-13 2.50011e-21 -5.64087e-22 1.10066e-21 5.37225e-22 0 0 0 -4.9051e-22 -4.80074e-22 -4.70072e-22 4.60479e-22 0 0 0.463314 0.713357 0.673439 0.800184 0.817846 0.900261 0.902853 0.950404 0.987207 0.993331 1.05556 1.07854 1.09353 1.14735 1.17011 1.19754 1.21775 1.23641 1.2877 1.30702 1.29993 1.32997 1.33478 1.37785 1.40215 1.40672 1.42635 1.42791 1.44061 1.48024 1.46259 1.34593 1.05548 0.537968 0.0680123 0.000419417 2.19634e-08 6.1422e-13 2.1805e-21 -5.64087e-22 -5.50328e-22 -5.37225e-22 0 -5.12806e-22 5.0141e-22 4.9051e-22 -4.80074e-22 -4.70072e-22 9.20958e-22 0 0 0.457846 0.704938 0.665491 0.79074 0.808194 0.889636 0.892198 0.939188 0.975556 0.981607 1.0431 1.06581 1.08062 1.13381 1.1563 1.18341 1.20337 1.22182 1.27251 1.29159 1.28459 1.31427 1.31903 1.36159 1.3856 1.39012 1.40952 1.41106 1.4236 1.46277 1.44533 1.33005 1.04303 0.531619 0.0672096 0.000414467 2.17042e-08 6.07028e-13 -4.43078e-22 0 -5.50328e-22 0 5.24732e-22 -5.12806e-22 -5.0141e-22 -4.9051e-22 -4.80074e-22 -4.70072e-22 0 0 0 0.451926 0.695823 0.656886 0.780516 0.797744 0.878134 0.880662 0.927044 0.962942 0.968915 1.02961 1.05203 1.06665 1.11915 1.14135 1.16811 1.18781 1.20602 1.25605 1.27489 1.26798 1.29728 1.30197 1.34398 1.36769 1.37214 1.39129 1.39282 1.4052 1.44386 1.42664 1.31285 1.02954 0.524745 0.0663406 0.000409108 2.14235e-08 5.99197e-13 -1.15157e-17 5.64087e-22 0 0 0 0 1.00282e-21 0 4.80074e-22 0 -4.60479e-22 0 0 0.44556 0.686022 0.647633 0.769521 0.786507 0.865764 0.868256 0.913986 0.949378 0.955267 1.01511 1.03721 1.05163 1.10339 1.12527 1.15165 1.17108 1.18903 1.23836 1.25693 1.25012 1.279 1.28363 1.32505 1.34842 1.35281 1.37169 1.3732 1.3854 1.42352 1.40654 1.29436 1.01504 0.517354 0.0654061 0.000403346 2.11218e-08 5.9068e-13 -5.25559e-18 0 0 5.37225e-22 0 0 0 -4.9051e-22 0 4.70072e-22 -4.60479e-22 0 0 0.438754 0.675543 0.637741 0.757768 0.774494 0.85254 0.854995 0.900025 0.934877 0.940676 0.999604 1.02137 1.03556 1.08654 1.10808 1.13406 1.15319 1.17087 1.21945 1.23773 1.23102 1.25947 1.26403 1.30481 1.32783 1.33215 1.35074 1.35222 1.36424 1.40177 1.38506 1.27459 0.999535 0.509452 0.0644071 0.000397185 2.07991e-08 5.81592e-13 8.75886e-22 -5.64087e-22 -2.75164e-22 0 5.24732e-22 0 0 4.9051e-22 0 4.70072e-22 4.60479e-22 0 0 0.431516 0.664398 0.627219 0.745266 0.761716 0.838475 0.840889 0.885177 0.919453 0.925157 0.983113 1.00452 1.01848 1.06861 1.0898 1.11535 1.13417 1.15155 1.19933 1.21731 1.21071 1.23869 1.24317 1.28329 1.30592 1.31017 1.32846 1.32991 1.34174 1.37865 1.36221 1.25356 0.983045 0.501047 0.0633445 0.000390632 2.0456e-08 5.71948e-13 -5.88069e-17 2.82043e-22 5.50328e-22 -5.37225e-22 -5.24732e-22 2.56403e-22 -5.0141e-22 -4.9051e-22 0 0 -4.60479e-22 0 0 0.423851 0.652597 0.616079 0.732029 0.748187 0.823582 0.825953 0.869455 0.903122 0.908725 0.965651 0.986675 1.00039 1.04963 1.07044 1.09554 1.11402 1.1311 1.17802 1.19569 1.18921 1.21669 1.22109 1.26049 1.28272 1.2869 1.30486 1.30629 1.3179 1.35416 1.33801 1.23129 0.965584 0.492147 0.0622194 0.000383694 2.00927e-08 5.61952e-13 -2.11186e-17 -2.82043e-22 8.25493e-22 2.68613e-22 0 0 0 4.9051e-22 4.80074e-22 4.70072e-22 -4.60479e-22 0 0 0.415769 0.640152 0.604331 0.718069 0.733919 0.807877 0.810203 0.852874 0.8859 0.891396 0.947237 0.967859 0.981313 1.02961 1.05003 1.07465 1.09278 1.10953 1.15556 1.17289 1.16653 1.19348 1.19781 1.23646 1.25826 1.26236 1.27998 1.28138 1.29277 1.32834 1.3125 1.20781 0.947171 0.482762 0.0610329 0.000376377 1.97095e-08 5.51104e-13 2.51036e-21 -8.4613e-22 5.50328e-22 -8.05838e-22 5.24732e-22 0 -5.0141e-22 -2.45255e-22 -2.40037e-22 0 -4.60479e-22 0 0 0.407275 0.627076 0.591986 0.703401 0.718927 0.791374 0.793652 0.835452 0.867803 0.873187 0.927887 0.948088 0.961267 1.00858 1.02858 1.0527 1.07046 1.08687 1.13196 1.14893 1.1427 1.16911 1.17334 1.2112 1.23256 1.23657 1.25383 1.25521 1.26636 1.3012 1.28569 1.18314 0.927823 0.472901 0.0597861 0.000368689 1.93069e-08 5.39718e-13 -2.38977e-17 -2.82043e-22 5.50328e-22 -1.34306e-21 5.24732e-22 5.12806e-22 -5.0141e-22 2.45255e-22 -4.80074e-22 4.70072e-22 -4.60479e-22 0 0 0.398381 0.61338 0.579057 0.688038 0.703226 0.77409 0.776319 0.817206 0.84885 0.854116 0.907622 0.927382 0.940273 0.986554 1.00612 1.02971 1.04708 1.06313 1.10723 1.12384 1.11774 1.14357 1.14771 1.18475 1.20564 1.20957 1.22645 1.22779 1.23871 1.27278 1.25761 1.1573 0.907559 0.462572 0.0584804 0.000360636 1.88852e-08 5.27829e-13 -3.02773e-17 2.82043e-22 1.10066e-21 0 -2.62366e-22 5.12806e-22 2.50705e-22 -4.9051e-22 -4.80074e-22 0 0 0 0 0.389092 0.59908 0.565556 0.671997 0.68683 0.756043 0.758219 0.798153 0.82906 0.834203 0.886461 0.90576 0.918351 0.963552 0.982659 1.0057 1.02267 1.03834 1.08142 1.09764 1.09168 1.11691 1.12095 1.15712 1.17753 1.18137 1.19785 1.19917 1.20983 1.24311 1.22829 1.13032 0.8864 0.451788 0.0571169 0.000352228 1.84449e-08 5.15724e-13 -5.33519e-17 -5.64087e-22 -8.25493e-22 1.07445e-21 0 -7.69209e-22 0 0 -2.40037e-22 -4.70072e-22 -4.60479e-22 0 0 0.37942 0.584188 0.551497 0.655293 0.669757 0.737249 0.739371 0.778312 0.808451 0.813466 0.864425 0.883245 0.895522 0.9396 0.958232 0.980699 0.997245 1.01253 1.05454 1.07035 1.06455 1.08915 1.09309 1.12836 1.14826 1.152 1.16808 1.16936 1.17975 1.21221 1.19775 1.10222 0.864365 0.440557 0.0556971 0.000343472 1.79864e-08 5.02967e-13 -9.69959e-18 2.82043e-22 0 -5.37225e-22 2.62366e-22 5.12806e-22 7.52116e-22 -2.45255e-22 7.20111e-22 7.05108e-22 -2.30239e-22 0 0 0.369374 0.568719 0.536894 0.637941 0.652023 0.717727 0.719794 0.757704 0.787044 0.791927 0.841536 0.859858 0.87181 0.914721 0.932859 0.954731 0.970839 0.98572 1.02661 1.04201 1.03636 1.06031 1.06414 1.09848 1.11786 1.1215 1.13715 1.1384 1.14851 1.18011 1.16604 1.07303 0.841478 0.428892 0.0542223 0.000334378 1.75102e-08 4.89553e-13 1.78725e-21 1.41022e-22 9.63075e-22 1.34306e-22 -5.24732e-22 -2.56403e-22 0 -7.35765e-22 -2.40037e-22 0 -2.30239e-22 0 0 0.358963 0.552689 0.521762 0.61996 0.633645 0.697498 0.699506 0.736347 0.764861 0.769605 0.817817 0.835622 0.847237 0.888939 0.906566 0.927821 0.943475 0.957937 0.997678 1.01264 1.00715 1.03042 1.03415 1.06752 1.08635 1.08989 1.1051 1.10631 1.11614 1.14685 1.13317 1.04279 0.81776 0.416803 0.052694 0.000324953 1.70166e-08 4.75747e-13 -7.95163e-23 -5.64087e-22 0 2.68613e-22 2.62366e-22 -2.56403e-22 0 0 -2.40037e-22 2.35036e-22 2.30239e-22 0 0 0.348197 0.536114 0.506114 0.601368 0.614642 0.67658 0.678527 0.714264 0.741922 0.746525 0.793291 0.810561 0.821829 0.862279 0.879378 0.899996 0.915181 0.929208 0.967757 0.982271 0.976945 0.999518 1.00314 1.03551 1.05377 1.0572 1.07196 1.07313 1.08267 1.11245 1.09919 1.01152 0.793236 0.404303 0.0511137 0.000315208 1.65063e-08 4.61577e-13 6.64901e-22 -9.87152e-22 -4.12746e-22 4.02919e-22 2.62366e-22 -2.56403e-22 0 2.45255e-22 -1.20018e-22 -2.35036e-22 4.60479e-22 0 0 0.337088 0.51901 0.489967 0.582182 0.595032 0.654994 0.65688 0.691476 0.718252 0.722708 0.767981 0.784701 0.795609 0.834769 0.851322 0.871282 0.885982 0.899563 0.936882 0.950932 0.945776 0.967629 0.971132 1.00247 1.02015 1.02347 1.03776 1.03889 1.04813 1.07696 1.06412 0.979245 0.767928 0.391404 0.049483 0.000305151 1.59797e-08 4.4686e-13 -2.30025e-22 4.23065e-22 2.75164e-22 1.34306e-22 -2.62366e-22 1.28202e-22 6.26763e-22 0 6.00092e-22 -7.05108e-22 5.75599e-22 0 0 0.325647 0.501393 0.473336 0.562421 0.574835 0.632762 0.634583 0.668006 0.693873 0.698177 0.741914 0.758066 0.768604 0.806435 0.822426 0.841709 0.85591 0.869029 0.905082 0.918655 0.913674 0.934786 0.93817 0.968442 0.985523 0.988732 1.00253 1.00363 1.01255 1.04041 1.028 0.946007 0.741863 0.378119 0.0478034 0.000294794 1.54373e-08 4.31692e-13 2.18032e-21 -1.26919e-21 -3.43955e-22 -3.35766e-22 7.21506e-22 -6.41008e-23 0 2.45255e-22 4.80074e-22 -9.40145e-22 9.20958e-22 0 0 0.313884 0.483282 0.456238 0.542105 0.554071 0.609905 0.611661 0.643876 0.668809 0.672958 0.715115 0.730684 0.74084 0.777305 0.792718 0.811304 0.824993 0.837638 0.872388 0.885472 0.88067 0.901019 0.904281 0.93346 0.949924 0.953018 0.966318 0.967378 0.975976 1.00283 0.990868 0.911835 0.715065 0.364461 0.0460767 0.000284145 1.48797e-08 4.16002e-13 -9.52574e-22 6.34597e-22 1.37582e-21 -5.37225e-22 -1.63979e-21 2.56403e-22 -3.13381e-22 -5.51824e-22 2.40037e-22 -4.70072e-22 0 0 0 0.301811 0.464694 0.43869 0.521254 0.53276 0.586447 0.588135 0.619111 0.643085 0.647074 0.68761 0.70258 0.712346 0.747408 0.762228 0.7801 0.793262 0.805421 0.838834 0.851414 0.846797 0.866364 0.8695 0.897557 0.913388 0.916362 0.929151 0.93017 0.938438 0.964255 0.952757 0.876764 0.687562 0.350442 0.0443044 0.000273216 1.43073e-08 4.00026e-13 6.47681e-22 1.34411e-22 4.21345e-22 6.8832e-22 3.60753e-22 6.41008e-22 -8.77468e-22 -4.29196e-22 6.00092e-23 1.17518e-22 5.75599e-22 0 0 0.28944 0.445647 0.420709 0.499889 0.510923 0.56241 0.564029 0.593735 0.616726 0.620552 0.659426 0.673782 0.683148 0.716773 0.730986 0.748125 0.760747 0.772408 0.804452 0.816517 0.812089 0.830853 0.833861 0.860768 0.87595 0.878802 0.891067 0.892044 0.899973 0.924732 0.913706 0.840827 0.65938 0.336079 0.0424885 0.000262018 1.37209e-08 3.83579e-13 -2.30289e-17 4.23065e-22 5.33131e-22 9.23356e-23 3.8125e-22 -3.20504e-23 7.99123e-22 -3.67883e-22 6.60101e-22 2.93795e-22 -5.75599e-22 0 0 0.276784 0.42616 0.402313 0.478031 0.488582 0.537817 0.539366 0.567773 0.589759 0.593417 0.630591 0.64432 0.653276 0.685431 0.699023 0.715412 0.727482 0.738633 0.769276 0.780813 0.776579 0.794523 0.797399 0.823129 0.837647 0.840375 0.852104 0.853038 0.86062 0.884296 0.873752 0.804061 0.630548 0.321383 0.0406306 0.00025056 1.3121e-08 3.66832e-13 -2.09549e-17 -6.34597e-22 -1.03187e-22 -9.40144e-22 1.11505e-21 -5.28831e-22 -7.05108e-23 1.49452e-22 5.70088e-22 9.69524e-22 4.31699e-22 0 0 0.263855 0.406253 0.38352 0.455701 0.465759 0.512694 0.51417 0.54125 0.562209 0.565697 0.601135 0.614222 0.62276 0.653412 0.666369 0.681993 0.6935 0.70413 0.733341 0.744339 0.740303 0.757408 0.76015 0.784679 0.798518 0.801119 0.8123 0.81319 0.820418 0.842988 0.832937 0.7665 0.601093 0.30637 0.0387326 0.000238856 1.2508e-08 3.49708e-13 -2.00634e-17 -4.23065e-22 -3.43955e-22 8.05838e-22 -5.24732e-22 -2.24353e-22 -2.19367e-22 5.51824e-22 3.45053e-22 -5.8759e-22 -5.63907e-22 0 0 0.250665 0.385945 0.364348 0.432921 0.442477 0.487065 0.488467 0.514194 0.534105 0.537418 0.571085 0.583518 0.591629 0.620749 0.633058 0.647901 0.658832 0.668931 0.696682 0.70713 0.703296 0.719546 0.722151 0.745453 0.758601 0.761072 0.771694 0.77254 0.779406 0.800848 0.791299 0.728184 0.571045 0.291055 0.0367964 0.000226916 1.18828e-08 3.32383e-13 2.57925e-17 1.41022e-22 -8.25493e-22 -1.20876e-21 -5.90323e-22 -2.56403e-22 -4.38734e-22 -6.13138e-22 4.80074e-22 3.23175e-22 -3.16579e-22 0 0 0.237228 0.365256 0.344817 0.409713 0.418757 0.460955 0.462283 0.48663 0.505474 0.508609 0.540471 0.552238 0.559914 0.587473 0.599122 0.613169 0.623515 0.633072 0.659335 0.669224 0.665595 0.680974 0.68344 0.705492 0.717936 0.720274 0.730326 0.731127 0.737625 0.757918 0.748881 0.689149 0.540434 0.275453 0.0348239 0.000214752 1.12458e-08 3.14439e-13 6.91347e-18 0 -1.37582e-22 6.71532e-22 -3.93549e-22 -3.84605e-22 -3.76058e-22 -3.67883e-22 -4.20065e-22 2.93795e-22 -6.33159e-22 0 0 0.223556 0.344206 0.324945 0.386102 0.394624 0.434391 0.435641 0.458586 0.476343 0.479298 0.509324 0.520412 0.527646 0.553617 0.564595 0.577833 0.587582 0.596589 0.621338 0.630657 0.627237 0.64173 0.644053 0.664835 0.676561 0.678765 0.688238 0.688993 0.695116 0.714239 0.705723 0.649434 0.509289 0.259579 0.032817 0.000202376 1.05977e-08 2.96356e-13 -1.32955e-17 -2.82043e-22 -6.8791e-22 -2.68613e-22 -6.55915e-22 1.28202e-22 6.26763e-22 1.22628e-22 -1.20018e-22 2.93795e-22 0 0 0 0.209665 0.322817 0.304753 0.362109 0.370102 0.407398 0.40857 0.430089 0.446743 0.449515 0.477674 0.488074 0.494858 0.519215 0.529511 0.541926 0.551069 0.559516 0.582728 0.591467 0.58826 0.601853 0.604032 0.623522 0.63452 0.636586 0.64547 0.646178 0.651921 0.669856 0.661869 0.609077 0.477641 0.243448 0.0307778 0.0001898 9.93915e-09 2.78004e-13 2.78221e-18 -8.4613e-22 -4.12746e-22 -4.02919e-22 -9.18281e-22 -5.12806e-22 7.52116e-22 4.9051e-22 -1.08017e-21 -1.05766e-21 1.1512e-22 0 0 0.195566 0.30111 0.28426 0.337759 0.345215 0.380002 0.381096 0.401168 0.416702 0.419287 0.445553 0.455253 0.461582 0.484301 0.493904 0.505484 0.514013 0.521892 0.543543 0.551694 0.548703 0.561381 0.563414 0.581594 0.591851 0.593779 0.602066 0.602726 0.608083 0.624812 0.617362 0.56812 0.445522 0.227078 0.0287081 0.000177037 9.27079e-09 2.59237e-13 1.05507e-17 5.64087e-22 0 0 5.24732e-22 0 1.25353e-22 8.58393e-22 3.60055e-22 -3.52554e-22 -2.30239e-22 0 0 0.181274 0.279105 0.263486 0.313076 0.319987 0.352232 0.353246 0.371851 0.38625 0.388646 0.412992 0.421984 0.42785 0.448908 0.45781 0.468544 0.476449 0.483752 0.503821 0.511377 0.508604 0.520356 0.52224 0.539091 0.548599 0.550386 0.558067 0.558679 0.563645 0.579151 0.572245 0.526602 0.412964 0.210483 0.0266102 0.000164099 8.59329e-09 2.40326e-13 -3.50729e-18 2.82043e-22 8.25493e-22 -2.68613e-22 0 -2.56403e-22 -2.50705e-22 2.45255e-22 2.40037e-22 -2.35036e-22 -4.60479e-22 0 0 0.166803 0.256824 0.242453 0.288084 0.294443 0.324114 0.325047 0.342167 0.355416 0.357621 0.380024 0.388298 0.393695 0.413073 0.421264 0.431141 0.438415 0.445135 0.463602 0.470555 0.468003 0.478817 0.48055 0.496057 0.504806 0.50645 0.513518 0.514081 0.51865 0.532919 0.526564 0.484565 0.379998 0.193681 0.0244859 0.000151 7.9073e-09 2.21116e-13 -1.0258e-17 -2.82043e-22 -2.75164e-22 -5.37225e-22 0 0 0 4.9051e-22 4.80074e-22 -4.70072e-22 -6.90718e-22 0 0 0.152168 0.23429 0.22118 0.262807 0.268608 0.295676 0.296527 0.312145 0.324232 0.326243 0.346681 0.354228 0.359152 0.37683 0.384302 0.393313 0.399949 0.406079 0.422925 0.429268 0.42694 0.436806 0.438387 0.452532 0.460514 0.462014 0.468462 0.468975 0.473144 0.48616 0.480363 0.442049 0.346657 0.176687 0.0223375 0.000137751 7.21351e-09 2.01727e-13 4.2516e-18 8.4613e-22 -5.50328e-22 5.37225e-22 -2.62366e-22 7.69209e-22 -5.0141e-22 -4.9051e-22 4.80074e-22 4.70072e-22 -9.20958e-22 0 0 0.137382 0.211525 0.199689 0.237271 0.242509 0.266947 0.267715 0.281815 0.292728 0.294544 0.312995 0.319809 0.324255 0.340215 0.346961 0.355096 0.361087 0.366622 0.381831 0.387558 0.385456 0.394363 0.395791 0.408562 0.415768 0.417122 0.422943 0.423407 0.42717 0.438922 0.433689 0.399097 0.312974 0.159519 0.0201671 0.000124366 6.51261e-09 1.82156e-13 -9.76713e-18 5.64087e-22 0 0 5.24732e-22 5.12806e-22 5.0141e-22 -7.35765e-22 2.40037e-22 4.70072e-22 0 0 0 0.122461 0.188552 0.178001 0.211501 0.21617 0.237953 0.238639 0.251207 0.260935 0.262553 0.279001 0.285075 0.289038 0.303264 0.309278 0.316529 0.32187 0.326803 0.340361 0.345465 0.343592 0.351531 0.352804 0.364188 0.370611 0.371818 0.377007 0.377421 0.380775 0.391251 0.386586 0.355751 0.278981 0.142194 0.0179767 0.000110859 5.80527e-09 1.62376e-13 1.00302e-19 -2.82043e-22 -5.50328e-22 -2.68613e-22 -5.24732e-22 -5.12806e-22 0 -2.45255e-22 4.80074e-22 -2.35036e-22 2.30239e-22 0 0 0.107419 0.165392 0.156137 0.185523 0.189618 0.208726 0.209326 0.220351 0.228884 0.230304 0.244731 0.250059 0.253535 0.266014 0.271289 0.27765 0.282334 0.286662 0.298554 0.303032 0.301388 0.308353 0.309469 0.319455 0.325089 0.326148 0.3307 0.331062 0.334005 0.343193 0.339101 0.312054 0.244714 0.124728 0.0157686 9.72419e-05 5.09221e-09 1.42427e-13 -2.04943e-18 2.82043e-22 0 2.68613e-22 2.62366e-22 -2.56403e-22 -2.50705e-22 -2.45255e-22 0 -2.35036e-22 -2.30239e-22 0 0 0.0922713 0.142069 0.134119 0.159361 0.162878 0.179292 0.179808 0.189278 0.196607 0.197827 0.21022 0.214797 0.217782 0.228502 0.233033 0.238496 0.24252 0.246238 0.256453 0.260299 0.258888 0.264