<?xml version="1.0"?>
<VTKFile type="PolyData">
	<PolyData>
		<Piece NumberOfPoints="2601" NumberOfPolys="2500">
			<Points>
				<DataArray type="Float32" NumberOfComponents="3" format="ascii">
 1e-06 0 0 0.232483 0 0 0.264991 0 0 0.29435 0 0 0.318288 0 0 0.337542 0 0 0.354068 0 0 0.368287 0 0 0.381317 0 0 0.393594 0 0 0.404332 0 0 0.413744 0 0 0.422508 0 0 0.430936 0 0 0.438191 0 0 0.444743 0 0 0.450754 0 0 0.456391 0 0 0.461633 0 0 0.466435 0 0 0.4709 0 0 0.475015 0 0 0.478821 0 0 0.483102 0 0 0.489685 0 0 0.501668 0 0 0.520038 0 0 0.540001 0 0 0.560001 0 0 0.580001 0 0 0.600001 0 0 0.620001 0 0 0.640001 0 0 0.660001 0 0 0.680001 0 0 0.700001 0 0 0.720001 0 0 0.740001 0 0 0.760001 0 0 0.780001 0 0 0.800001 0 0 0.820001 0 0 0.840001 0 0 0.860001 0 0 0.880001 0 0 0.900001 0 0 0.920001 0 0 0.940001 0 0 0.960001 0 0 0.980001 0 0 1 0 0 9.99507e-07 3.14108e-08 0 0.232369 0.00730248 0 0.264861 0.00832358 0 0.294205 0.00924577 0 0.318131 0.00999767 0 0.337375 0.0106024 0 0.353893 0.0111215 0 0.368105 0.0115682 0 0.381129 0.0119775 0 0.3934 0.0123631 0 0.404132 0.0127004 0 0.41354 0.012996 0 0.422299 0.0132713 0 0.430723 0.013536 0 0.437975 0.0137639 0 0.444523 0.0139697 0 0.450532 0.0141585 0 0.456166 0.0143356 0 0.461405 0.0145002 0 0.466205 0.0146511 0 0.470668 0.0147913 0 0.474781 0.0149206 0 0.478585 0.0150401 0 0.482863 0.0151746 0 0.489444 0.0153814 0 0.50142 0.0157578 0 0.519782 0.0163348 0 0.539735 0.0169618 0 0.559725 0.0175901 0 0.579715 0.0182183 0 0.599705 0.0188465 0 0.619695 0.0194747 0 0.639685 0.0201029 0 0.659675 0.0207311 0 0.679665 0.0213593 0 0.699656 0.0219876 0 0.719646 0.0226158 0 0.739636 0.023244 0 0.759626 0.0238722 0 0.779616 0.0245004 0 0.799606 0.0251286 0 0.819596 0.0257569 0 0.839587 0.0263851 0 0.859577 0.0270133 0 0.879567 0.0276415 0 0.899557 0.0282697 0 0.919547 0.0288979 0 0.939537 0.0295261 0 0.959527 0.0301544 0 0.979517 0.0307826 0 0.999508 0.0314108 0 9.98027e-07 6.27905e-08 0 0.232025 0.0145978 0 0.264468 0.0166389 0 0.29377 0.0184824 0 0.31766 0.0199855 0 0.336876 0.0211944 0 0.353369 0.0222321 0 0.36756 0.0231249 0 0.380565 0.0239431 0 0.392817 0.024714 0 0.403534 0.0253882 0 0.412928 0.0259792 0 0.421674 0.0265295 0 0.430086 0.0270587 0 0.437327 0.0275143 0 0.443865 0.0279256 0 0.449865 0.0283031 0 0.45549 0.028657 0 0.460722 0.0289862 0 0.465514 0.0292877 0 0.469971 0.0295681 0 0.474078 0.0298264 0 0.477876 0.0300654 0 0.482148 0.0303342 0 0.488719 0.0307476 0 0.500678 0.0315 0 0.519012 0.0326535 0 0.538935 0.0339069 0 0.558896 0.0351628 0 0.578857 0.0364186 0 0.598817 0.0376744 0 0.618778 0.0389302 0 0.638738 0.040186 0 0.658699 0.0414418 0 0.678659 0.0426976 0 0.69862 0.0439534 0 0.71858 0.0452092 0 0.738541 0.046465 0 0.758501 0.0477209 0 0.778462 0.0489767 0 0.798422 0.0502325 0 0.818383 0.0514883 0 0.838343 0.0527441 0 0.858304 0.0539999 0 0.878265 0.0552557 0 0.898225 0.0565115 0 0.918186 0.0577673 0 0.938146 0.0590232 0 0.958107 0.060279 0 0.978067 0.0615348 0 0.998028 0.0627906 0 9.95562e-07 9.41083e-08 0 0.231452 0.0218786 0 0.263815 0.0249379 0 0.293044 0.0277008 0 0.316875 0.0299535 0 0.336044 0.0317655 0 0.352496 0.0333207 0 0.366652 0.0346589 0 0.379625 0.0358851 0 0.391847 0.0370405 0 0.402537 0.038051 0 0.411908 0.0389368 0 0.420633 0.0397615 0 0.429024 0.0405547 0 0.436247 0.0412374 0 0.442769 0.041854 0 0.448754 0.0424197 0 0.454365 0.0429502 0 0.459584 0.0434435 0 0.464365 0.0438954 0 0.468811 0.0443156 0 0.472907 0.0447029 0 0.476696 0.0450611 0 0.480958 0.0454639 0 0.487512 0.0460835 0 0.499441 0.0472111 0 0.517731 0.0489399 0 0.537604 0.0508186 0 0.557516 0.0527007 0 0.577427 0.0545829 0 0.597338 0.0564651 0 0.617249 0.0583472 0 0.637161 0.0602294 0 0.657072 0.0621116 0 0.676983 0.0639937 0 0.696894 0.0658759 0 0.716806 0.0677581 0 0.736717 0.0696402 0 0.756628 0.0715224 0 0.776539 0.0734046 0 0.796451 0.0752867 0 0.816362 0.0771689 0 0.836273 0.0790511 0 0.856184 0.0809332 0 0.876096 0.0828154 0 0.896007 0.0846976 0 0.915918 0.0865797 0 0.935829 0.0884619 0 0.95574 0.0903441 0 0.975652 0.0922262 0 0.995563 0.0941084 0 9.92115e-07 1.25333e-07 0 0.23065 0.0291379 0 0.262902 0.0332122 0 0.292029 0.0368919 0 0.315778 0.0398921 0 0.33488 0.0423052 0 0.351276 0.0443764 0 0.365383 0.0461586 0 0.37831 0.0477917 0 0.39049 0.0493304 0 0.401143 0.0506762 0 0.410482 0.0518559 0 0.419176 0.0529543 0 0.427538 0.0540106 0 0.434736 0.0549199 0 0.441236 0.055741 0 0.4472 0.0564945 0 0.452792 0.0572009 0 0.457993 0.057858 0 0.462757 0.0584598 0 0.467187 0.0590195 0 0.471269 0.0595352 0 0.475046 0.0600122 0 0.479292 0.0605487 0 0.485824 0.0613738 0 0.497712 0.0628757 0 0.515938 0.0651781 0 0.535743 0.0676801 0 0.555585 0.0701867 0 0.575428 0.0726934 0 0.59527 0.0752001 0 0.615112 0.0777067 0 0.634954 0.0802134 0 0.654797 0.0827201 0 0.674639 0.0852267 0 0.694481 0.0877334 0 0.714324 0.0902401 0 0.734166 0.0927467 0 0.754008 0.0952534 0 0.77385 0.09776 0 0.793693 0.100267 0 0.813535 0.102773 0 0.833377 0.10528 0 0.85322 0.107787 0 0.873062 0.110293 0 0.892904 0.1128 0 0.912747 0.115307 0 0.932589 0.117813 0 0.952431 0.12032 0 0.972273 0.122827 0 0.992116 0.125333 0 9.87688e-07 1.56434e-07 0 0.229621 0.0363684 0 0.261729 0.0414538 0 0.290727 0.0460466 0 0.314369 0.0497912 0 0.333386 0.0528032 0 0.349708 0.0553884 0 0.363753 0.0576128 0 0.376623 0.0596512 0 0.388748 0.0615717 0 0.399354 0.0632514 0 0.408651 0.0647239 0 0.417306 0.0660948 0 0.425631 0.0674132 0 0.432796 0.0685482 0 0.439267 0.0695731 0 0.445205 0.0705135 0 0.450772 0.0713953 0 0.45595 0.0722153 0 0.460692 0.0729665 0 0.465103 0.073665 0 0.469167 0.0743087 0 0.472926 0.0749042 0 0.477154 0.0755738 0 0.483656 0.0766037 0 0.495492 0.0784782 0 0.513636 0.0813519 0 0.533353 0.0844748 0 0.553106 0.0876035 0 0.57286 0.0907321 0 0.592614 0.0938608 0 0.612368 0.0969895 0 0.632122 0.100118 0 0.651875 0.103247 0 0.671629 0.106376 0 0.691383 0.109504 0 0.711137 0.112633 0 0.73089 0.115762 0 0.750644 0.11889 0 0.770398 0.122019 0 0.790152 0.125148 0 0.809905 0.128276 0 0.829659 0.131405 0 0.849413 0.134534 0 0.869167 0.137662 0 0.88892 0.140791 0 0.908674 0.14392 0 0.928428 0.147049 0 0.948182 0.150177 0 0.967936 0.153306 0 0.987689 0.156435 0 9.82287e-07 1.87381e-07 0 0.228366 0.0435631 0 0.260298 0.0496544 0 0.289137 0.0551558 0 0.31265 0.0596412 0 0.331563 0.063249 0 0.347796 0.0663457 0 0.361763 0.0690101 0 0.374563 0.0714517 0 0.386622 0.0737521 0 0.39717 0.0757642 0 0.406416 0.077528 0 0.415024 0.0791701 0 0.423303 0.0807494 0 0.43043 0.0821089 0 0.436865 0.0833365 0 0.44277 0.0844629 0 0.448307 0.0855191 0 0.453456 0.0865014 0 0.458173 0.0874012 0 0.462559 0.0882379 0 0.466601 0.0890089 0 0.47034 0.0897222 0 0.474545 0.0905242 0 0.481012 0.0917579 0 0.492782 0.0940032 0 0.510827 0.0974455 0 0.530436 0.101186 0 0.550082 0.104934 0 0.569728 0.108681 0 0.589373 0.112429 0 0.609019 0.116177 0 0.628665 0.119924 0 0.648311 0.123672 0 0.667956 0.127419 0 0.687602 0.131167 0 0.707248 0.134915 0 0.726894 0.138662 0 0.746539 0.14241 0 0.766185 0.146158 0 0.785831 0.149905 0 0.805477 0.153653 0 0.825122 0.1574 0 0.844768 0.161148 0 0.864414 0.164896 0 0.88406 0.168643 0 0.903705 0.172391 0 0.923351 0.176139 0 0.942997 0.179886 0 0.962642 0.183634 0 0.982288 0.187382 0 9.75917e-07 2.18143e-07 0 0.226885 0.0507147 0 0.258609 0.0578061 0 0.287262 0.0642106 0 0.310623 0.0694324 0 0.329413 0.0736325 0 0.345541 0.0772375 0 0.359417 0.0803393 0 0.372134 0.0831818 0 0.384115 0.0858599 0 0.394594 0.0882022 0 0.40378 0.0902556 0 0.412332 0.0921672 0 0.420558 0.0940058 0 0.427638 0.0955885 0 0.434032 0.0970176 0 0.439899 0.098329 0 0.445399 0.0995586 0 0.450515 0.100702 0 0.455202 0.10175 0 0.45956 0.102724 0 0.463575 0.103621 0 0.46729 0.104452 0 0.471467 0.105385 0 0.477892 0.106822 0 0.489586 0.109435 0 0.507514 0.113443 0 0.526996 0.117798 0 0.546514 0.12216 0 0.566033 0.126523 0 0.585551 0.130886 0 0.605069 0.135249 0 0.624588 0.139612 0 0.644106 0.143975 0 0.663624 0.148338 0 0.683143 0.1527 0 0.702661 0.157063 0 0.722179 0.161426 0 0.741698 0.165789 0 0.761216 0.170152 0 0.780734 0.174515 0 0.800253 0.178878 0 0.819771 0.183241 0 0.839289 0.187603 0 0.858808 0.191966 0 0.878326 0.196329 0 0.897844 0.200692 0 0.917363 0.205055 0 0.936881 0.209418 0 0.956399 0.213781 0 0.975918 0.218143 0 9.68583e-07 2.4869e-07 0 0.22518 0.0578163 0 0.256666 0.0659007 0 0.285103 0.073202 0 0.308288 0.079155 0 0.326937 0.0839432 0 0.342944 0.088053 0 0.356716 0.0915892 0 0.369338 0.0948298 0 0.381228 0.0978828 0 0.391629 0.100553 0 0.400746 0.102894 0 0.409234 0.105073 0 0.417397 0.107169 0 0.424425 0.108974 0 0.43077 0.110603 0 0.436593 0.112098 0 0.442052 0.1135 0 0.44713 0.114803 0 0.451781 0.115998 0 0.456106 0.117108 0 0.460091 0.118131 0 0.463778 0.119078 0 0.467924 0.120143 0 0.474301 0.12178 0 0.485907 0.12476 0 0.503701 0.129328 0 0.523036 0.134293 0 0.542408 0.139267 0 0.561779 0.14424 0 0.581151 0.149214 0 0.600523 0.154188 0 0.619894 0.159162 0 0.639266 0.164136 0 0.658638 0.169109 0 0.678009 0.174083 0 0.697381 0.179057 0 0.716753 0.184031 0 0.736124 0.189005 0 0.755496 0.193978 0 0.774867 0.198952 0 0.794239 0.203926 0 0.813611 0.2089 0 0.832982 0.213874 0 0.852354 0.218847 0 0.871726 0.223821 0 0.891097 0.228795 0 0.910469 0.233769 0 0.929841 0.238743 0 0.949212 0.243716 0 0.968584 0.24869 0 9.60294e-07 2.78991e-07 0 0.223252 0.0648608 0 0.254469 0.0739302 0 0.282663 0.0821212 0 0.30565 0.0887995 0 0.324139 0.0941712 0 0.340009 0.0987817 0 0.353664 0.102749 0 0.366177 0.106384 0 0.377966 0.109809 0 0.388277 0.112805 0 0.397316 0.115431 0 0.405732 0.117876 0 0.413825 0.120227 0 0.420792 0.122251 0 0.427084 0.124079 0 0.432856 0.125756 0 0.438269 0.127329 0 0.443303 0.128791 0 0.447914 0.130131 0 0.452203 0.131377 0 0.456154 0.132525 0 0.459809 0.133587 0 0.463919 0.134781 0 0.470242 0.136618 0 0.481749 0.139961 0 0.49939 0.145086 0 0.51856 0.150655 0 0.537765 0.156235 0 0.556971 0.161815 0 0.576177 0.167395 0 0.595383 0.172975 0 0.614589 0.178555 0 0.633795 0.184134 0 0.653001 0.189714 0 0.672207 0.195294 0 0.691412 0.200874 0 0.71
[...]
			<PointData Scalars="VitesseX">
				<DataArray Name="VitesseX" type="Float32" format="ascii">
 0 0.853757 1.04521 1.11896 1.23575 1.34915 1.39525 1.52299 1.5414 1.57747 1.66384 1.75356 1.71239 1.80937 1.88839 1.95639 1.91331 2.00982 2.0274 2.06787 2.13314 2.14859 2.15517 2.00021 1.51583 0.566968 0.0261447 2.25128e-05 3.85005e-10 6.1622e-15 0 0 0 0 0 0 0 0 0 0 0 0 0 0 0 0 0 0 0 0 0 0 0.853335 1.04469 1.1184 1.23514 1.34849 1.39456 1.52223 1.54063 1.57669 1.66302 1.75269 1.71155 1.80848 1.88746 1.95542 1.91237 2.00883 2.02639 2.06685 2.13208 2.14753 2.15411 1.99923 1.51508 0.566688 0.0261318 2.25017e-05 3.84815e-10 6.15292e-15 0 0 0 0 3.50401e-22 0 -3.30935e-22 0 0 0 2.97841e-22 2.90577e-22 -2.83658e-22 -2.77062e-22 0 0 2.58992e-22 -2.53482e-22 0 4.86272e-22 0 0 0.852072 1.04314 1.11675 1.23331 1.34649 1.3925 1.51998 1.53835 1.57436 1.66056 1.7501 1.70901 1.8058 1.88467 1.95253 1.90954 2.00586 2.02339 2.06379 2.12893 2.14435 2.15092 1.99627 1.51284 0.565849 0.0260931 2.24684e-05 3.84246e-10 6.14376e-15 0 0 0 0 0 -3.4039e-22 0 0 0 0 0 0 -2.83658e-22 0 0 0 2.58992e-22 -5.06964e-22 0 0 0 0 0.849968 1.04057 1.11399 1.23026 1.34317 1.38906 1.51623 1.53455 1.57047 1.65646 1.74578 1.70479 1.80134 1.88001 1.94771 1.90482 2.0009 2.0184 2.05869 2.12367 2.13906 2.14561 1.99134 1.5091 0.564451 0.0260287 2.24129e-05 3.83297e-10 6.13061e-15 0 0 0 0 3.50401e-22 0 3.30935e-22 0 0 0 0 0 0 0 0 5.29496e-22 2.58992e-22 -2.53482e-22 0 0 0 0 0.847025 1.03696 1.11013 1.226 1.33852 1.38425 1.51098 1.52924 1.56503 1.65072 1.73973 1.69889 1.7951 1.8735 1.94096 1.89822 1.99397 2.01141 2.05156 2.11632 2.13165 2.13818 1.98444 1.50388 0.562497 0.0259386 2.23353e-05 3.81969e-10 6.0993e-15 0 0 0 0 0 0 0 0 3.13517e-22 0 0 0 0 0 -2.70765e-22 2.64748e-22 -5.17985e-22 0 -2.48201e-22 -2.43136e-22 0 0 0.843245 1.03234 1.10518 1.22053 1.33254 1.37807 1.50423 1.52242 1.55805 1.64336 1.73197 1.69131 1.78709 1.86515 1.9323 1.88975 1.98508 2.00243 2.04241 2.10687 2.12214 2.12864 1.97559 1.49717 0.559987 0.0258228 2.22356e-05 3.80265e-10 6.07573e-15 3.97122e-22 0 0 3.6102e-22 -3.50401e-22 -3.4039e-22 0 -3.21991e-22 -3.13517e-22 0 2.97841e-22 0 -2.83658e-22 0 0 2.64748e-22 0 5.06964e-22 -2.48201e-22 0 0 0 0.838634 1.02669 1.09914 1.21386 1.32526 1.37054 1.49601 1.51409 1.54953 1.63437 1.7225 1.68206 1.77732 1.85495 1.92174 1.87942 1.97422 1.99148 2.03124 2.09535 2.11053 2.117 1.96479 1.48898 0.556925 0.0256816 2.2114e-05 3.78186e-10 6.00737e-15 0 -3.84311e-22 0 0 3.50401e-22 0 0 0 3.13517e-22 0 0 0 2.83658e-22 0 -2.70765e-22 -2.64748e-22 0 5.06964e-22 -2.48201e-22 2.43136e-22 0 0 0.833195 1.02003 1.09201 1.20599 1.31666 1.36165 1.48631 1.50427 1.53948 1.62377 1.71133 1.67115 1.76579 1.84292 1.90927 1.86723 1.96142 1.97857 2.01807 2.08176 2.09685 2.10327 1.95204 1.47932 0.553313 0.0255151 2.19706e-05 3.75733e-10 5.93455e-15 1.98561e-22 0 0 -3.6102e-22 0 -3.4039e-22 0 0 0 -3.05478e-22 0 0 -2.83658e-22 2.77062e-22 0 -2.64748e-22 -2.58992e-22 -2.53482e-22 0 0 0 0 0.826934 1.01237 1.0838 1.19692 1.30677 1.35142 1.47514 1.49297 1.52791 1.61157 1.69847 1.6586 1.75252 1.82907 1.89493 1.8532 1.94668 1.9637 2.0029 2.06612 2.08109 2.08746 1.93737 1.46821 0.549155 0.0253233 2.18055e-05 3.7291e-10 5.90607e-15 -1.98561e-22 0 1.86151e-22 0 0 0 0 3.21991e-22 0 0 0 0 0 2.77062e-22 5.4153e-22 -2.64748e-22 0 0 0 2.43136e-22 0 0 0.819857 1.0037 1.07453 1.18668 1.29558 1.33985 1.46251 1.48019 1.51484 1.59778 1.68393 1.6444 1.73752 1.81341 1.87871 1.83734 1.93002 1.94689 1.98576 2.04844 2.06328 2.0696 1.92079 1.45564 0.544455 0.0251066 2.16189e-05 3.69718e-10 5.83931e-15 0 -1.92156e-22 1.86151e-22 0 -3.50401e-22 0 0 3.21991e-22 -3.13517e-22 0 0 0 -5.67317e-22 -5.54123e-22 5.4153e-22 2.64748e-22 2.58992e-22 0 0 2.43136e-22 0 0 0.811971 0.99405 1.06419 1.17527 1.28312 1.32696 1.44844 1.46595 1.50026 1.58241 1.66773 1.62858 1.72081 1.79597 1.86064 1.81967 1.91145 1.92817 1.96666 2.02873 2.04343 2.04969 1.90232 1.44164 0.539218 0.0248651 2.14109e-05 3.66162e-10 5.78989e-15 1.98561e-22 -3.84311e-22 1.86151e-22 -1.8051e-22 0 0 0 0 0 3.05478e-22 -2.97841e-22 5.81154e-22 2.83658e-22 0 0 0 -2.58992e-22 -2.53482e-22 -2.48201e-22 2.43136e-22 0 0 0.803283 0.983414 1.0528 1.16269 1.26939 1.31277 1.43295 1.45027 1.48421 1.56548 1.64989 1.61116 1.7024 1.77675 1.84073 1.8002 1.891 1.90754 1.94562 2.00703 2.02157 2.02776 1.88196 1.42622 0.533449 0.0245991 2.11819e-05 3.62244e-10 5.72366e-15 1.98561e-22 -1.92156e-22 1.86151e-22 0 1.75201e-22 0 0 -3.21991e-22 3.13517e-22 3.05478e-22 -2.97841e-22 -2.90577e-22 -2.83658e-22 0 -2.70765e-22 2.64748e-22 2.58992e-22 -2.53482e-22 -2.48201e-22 4.86272e-22 0 0 0.793803 0.971808 1.04038 1.14897 1.25441 1.29727 1.41604 1.43315 1.4667 1.547 1.63042 1.59214 1.68231 1.75578 1.819 1.77895 1.86868 1.88502 1.92266 1.98334 1.99771 2.00383 1.85975 1.40938 0.527153 0.0243087 2.09319e-05 3.57969e-10 5.65728e-15 1.98561e-22 0 0 0 -3.50401e-22 -1.70195e-22 -1.65467e-22 -1.60995e-22 3.13517e-22 -3.05478e-22 0 -2.90577e-22 0 2.77062e-22 -2.70765e-22 -2.64748e-22 -2.58992e-22 -2.53482e-22 -2.48201e-22 0 0 0 0.783539 0.959243 1.02693 1.13411 1.23819 1.2805 1.39773 1.41462 1.44773 1.527 1.60934 1.57156 1.66056 1.73308 1.79549 1.75595 1.84452 1.86065 1.8978 1.9577 1.97188 1.97792 1.83571 1.39116 0.520337 0.0239944 2.06612e-05 3.5334e-10 5.60161e-15 -3.97122e-22 -1.92156e-22 -3.72302e-22 -3.6102e-22 0 3.4039e-22 1.65467e-22 -1.60995e-22 0 3.05478e-22 2.97841e-22 0 0 0 0 5.29496e-22 0 2.53482e-22 0 -2.43136e-22 0 0 0.772502 0.945731 1.01246 1.11814 1.22075 1.26246 1.37804 1.3947 1.42734 1.50549 1.58667 1.54942 1.63717 1.70867 1.77019 1.73122 1.81854 1.83444 1.87106 1.93012 1.9441 1.95006 1.80985 1.37156 0.513008 0.0236564 2.03702e-05 3.48363e-10 5.52791e-15 3.97122e-22 -1.92156e-22 3.72302e-22 -1.8051e-22 -1.75201e-22 1.70195e-22 1.65467e-22 1.60995e-22 -1.56759e-22 -1.52739e-22 0 0 2.83658e-22 0 0 0 -2.58992e-22 0 2.48201e-22 -2.43136e-22 0 0 0.760703 0.931285 0.996996 1.10106 1.20211 1.24318 1.35699 1.37339 1.40554 1.4825 1.56243 1.52575 1.61216 1.68257 1.74316 1.70477 1.79076 1.80642 1.84248 1.90064 1.91441 1.92027 1.7822 1.35061 0.505172 0.0232951 2.00591e-05 3.43042e-10 5.37593e-15 1.98561e-22 -1.92156e-22 1.86151e-22 1.8051e-22 0 -5.10585e-22 0 0 0 0 -2.97841e-22 -1.45288e-22 0 2.77062e-22 0 0 2.58992e-22 0 2.48201e-22 2.43136e-22 0 0 0.748153 0.915921 0.980548 1.08289 1.18227 1.22267 1.3346 1.35074 1.38235 1.45804 1.53666 1.50058 1.58556 1.65481 1.7144 1.67665 1.76122 1.77662 1.81209 1.86928 1.88282 1.88859 1.7528 1.32833 0.496837 0.0229108 1.97281e-05 3.37383e-10 5.253e-15 -1.98561e-22 -3.84311e-22 -1.86151e-22 -3.6102e-22 1.75201e-22 0 1.65467e-22 3.21991e-22 4.70276e-22 3.05478e-22 1.48921e-22 2.90577e-22 -2.83658e-22 -2.77062e-22 1.35382e-22 -2.64748e-22 -2.58992e-22 0 0 -2.43136e-22 0 0 0.734864 0.899653 0.963132 1.06366 1.16127 1.20095 1.3109 1.32674 1.3578 1.43214 1.50936 1.47393 1.5574 1.62542 1.68395 1.64687 1.72994 1.74506 1.7799 1.83608 1.84938 1.85505 1.72167 1.30474 0.488013 0.0225039 1.93777e-05 3.3139e-10 5.15595e-15 -9.92804e-23 2.88233e-22 2.79226e-22 1.8051e-22 1.75201e-22 0 -3.30935e-22 -3.21991e-22 0 -1.52739e-22 -1.48921e-22 4.35865e-22 1.41829e-22 0 0 0 2.58992e-22 2.53482e-22 2.48201e-22 -2.43136e-22 0 0 0.720851 0.882497 0.944765 1.04338 1.13913 1.17805 1.2859 1.30144 1.3319 1.40483 1.48058 1.44582 1.5277 1.59442 1.65183 1.61546 1.69695 1.71179 1.74596 1.80107 1.81412 1.81967 1.68884 1.27986 0.478707 0.0220747 1.90082e-05 3.25071e-10 5.1658e-15 0 -3.84311e-22 9.30754e-23 -3.6102e-22 1.75201e-22 0 3.30935e-22 4.82986e-22 -4.70276e-22 4.58217e-22 -4.46762e-22 2.90577e-22 -4.25488e-22 2.77062e-22 0 -2.64748e-22 -1.29496e-22 -1.26741e-22 0 -2.43136e-22 0 0 0.706126 0.86447 0.925466 1.02206 1.11586 1.15399 1.25963 1.27486 1.3047 1.37613 1.45034 1.41629 1.49649 1.56185 1.61809 1.58246 1.66228 1.67682 1.71029 1.76428 1.77706 1.7825 1.65434 1.25371 0.468928 0.0216238 1.86199e-05 3.1843e-10 5.00217e-15 -9.92804e-23 2.88233e-22 3.72302e-22 -5.41529e-22 8.76004e-23 8.50975e-23 0 -4.82986e-22 -1.56759e-22 -1.52739e-22 -1.48921e-22 2.90577e-22 -7.09146e-22 2.77062e-22 2.70765e-22 -2.64748e-22 1.29496e-22 -2.53482e-22 2.48201e-22 -2.43136e-22 0 0 0.690704 0.845589 0.905254 0.99974 1.09149 1.12878 1.23212 1.24702 1.2762 1.34608 1.41866 1.38536 1.46381 1.52774 1.58275 1.5479 1.62598 1.6402 1.67294 1.72574 1.73825 1.74357 1.61821 1.22633 0.458686 0.0211515 1.82132e-05 3.11476e-10 4.78707e-15 2.48201e-22 2.88233e-22 -1.86151e-22 3.6102e-22 -1.75201e-22 1.70195e-22 4.13668e-22 -1.60995e-22 -1.56759e-22 -1.52739e-22 1.48921e-22 5.81154e-22 0 -1.38531e-22 2.70765e-22 1.32374e-22 -2.58992e-22 -2.53482e-22 0 0 0 0 0.6746 0.825875 0.884148 0.976432 1.06604 1.10247 1.20339 1.21794 1.24645 1.3147 1.38558 1.35306 1.42968 1.49212 1.54585 1.51181 1.58807 1.60196 1.63394 1.68551 1.69772 1.70292 1.58048 1.19774 0.447992 0.0206584 1.77886e-05 3.04214e-10 4.71171e-15 1.98561e-22 -4.80389e-22 0 1.8051e-22 8.76004e-23 0 8.27337e-23 8.04976e-23 -7.83793e-23 1.52739e-22 -2.97841e-22 -4.35865e-22 5.67317e-22 0 -4.06147e-22 0 0 -1.26741e-22 -2.48201e-22 -2.43136e-22 0 0 0.657831 0.805345 0.86217 0.952159 1.03954 1.07506 1.17348 1.18767 1.21546 1.28201 1.35114 1.31942 1.39414 1.45503 1.50742 1.47423 1.54859 1.56213 1.59332 1.64361 1.65552 1.66059 1.54119 1.16797 0.436856 0.0201448 1.73464e-05 2.96652e-10 4.55104e-15 -4.96402e-23 2.88233e-22 -1.39613e-22 -4.51275e-23 0 -2.55292e-22 8.27337e-23 2.41493e-22 -6.27034e-22 3.81848e-22 1.48921e-22 0 -2.83658e-22 1.38531e-22 2.70765e-22 3.97122e-22 -1.29496e-22 3.80223e-22 3.72302e-22 -1.21568e-22 0 0 0.640412 0.784021 0.839341 0.926947 1.01202 1.04659 1.14241 1.15622 1.18328 1.24807 1.31536 1.28448 1.35723 1.41651 1.46751 1.4352 1.50759 1.52077 1.55113 1.60009 1.61168 1.61662 1.50038 1.13704 0.425289 0.0196114 1.68871e-05 2.88797e-10 4.4597e-15 -2.23381e-22 3.12253e-22 -4.65377e-23 1.8051e-22 0 3.82939e-22 1.65467e-22 1.60995e-22 -2.35138e-22 2.29109e-22 7.44603e-23 5.0851e-22 7.09146e-23 -2.77062e-22 -1.35382e-22 0 -3.88489e-22 -1.26741e-22 0 -1.21568e-22 0 0 0.622362 0.761922 0.815683 0.900821 0.983491 1.01709 1.11021 1.12363 1.14993 1.21289 1.27829 1.24828 1.31897 1.37658 1.42615 1.39474 1.4651 1.47791 1.50741 1.55499 1.56626 1.57105 1.45809 1.10499 0.413302 0.0190587 1.64111e-05 2.80657e-10 4.39866e-15 3.72301e-23 -6.00486e-23 -4.65377e-23 2.25637e-22 -2.19001e-22 -2.97841e-22 2.06834e-22 -1.20746e-22 -1.56759e-22 -1.52739e-22 -2.97841e-22 0 1.41829e-22 1.38531e-22 -1.35382e-22 0 0 -1.26741e-22 1.24101e-22 1.21568e-22 0 0 0.603697 0.739072 0.791221 0.873805 0.953996 0.986592 1.07691 1.08993 1.11544 1.17652 1.23995 1.21084 1.27942 1.3353 1.38338 1.35291 1.42116 1.43358 1.4622 1.50836 1.51928 1.52394 1.41437 1.07185 0.400907 0.0184871 1.5919e-05 2.7224e-10 4.1383e-15 -3.22661e-22 -2.70219e-23 -5.23549e-22 -9.02549e-23 -1.97101e-22 -2.97841e-22 -1.24101e-22 1.60995e-22 -3.52707e-22 -3.81848e-23 -5.21222e-22 -2.17933e-22 2.12744e-22 1.38531e-22 -1.35382e-22 0 1.29496e-22 -6.33705e-23 -1.24101e-22 2.43136e-22 0 0 0.584437 0.715493 0.765978 0.845927 0.92356 0.955116 1.04256 1.05516 1.07985 1.13898 1.20039 1.17221 1.2386 1.29269 1.33924 1.30975 1.37582 1.38785 1.41555 1.46023 1.47081 1.47532 1.36924 1.03766 0.388116 0.0178973 1.54111e-05 2.63554e-10 4.15523e-15 2.73021e-22 1.68136e-22 4.65377e-22 6.20503e-23 -3.01126e-22 3.93576e-22 -3.72302e-22 2.01244e-23 2.35138e-22 -1.52739e-22 2.23381e-22 1.45288e-22 7.09146e-23 -1.38531e-22 6.76912e-23 3.30935e-22 0 3.16853e-22 -3.72302e-22 3.0392e-22 0 0 0.564599 0.691207 0.739978 0.817214 0.892212 0.922697 1.00717 1.01934 1.0432 1.10032 1.15965 1.13243 1.19656 1.24882 1.29378 1.2653 1.32912 1.34074 1.36751 1.41067 1.42089 1.42524 1.32277 1.00244 0.374942 0.0172898 1.4888e-05 2.54608e-10 3.87651e-15 -4.96402e-23 2.40195e-22 -4.18839e-22 4.06147e-22 5.47502e-23 -9.57347e-23 -2.32688e-22 8.04976e-23 7.83793e-23 3.81848e-22 -6.70143e-22 -1.81611e-22 -1.77286e-22 3.8096e-22 -3.38456e-23 0 1.29496e-22 2.53482e-22 -4.96402e-22 4.86272e-22 0 0 0.544205 0.666239 0.713249 0.787695 0.859984 0.889367 0.970787 0.982523 1.00552 1.06057 1.11776 1.09152 1.15333 1.20371 1.24705 1.21959 1.28111 1.29231 1.31811 1.35971 1.36956 1.37376 1.27498 0.966227 0.361399 0.0166653 1.43502e-05 2.45412e-10 3.82891e-15 -3.97122e-22 2.88233e-22 1.86151e-22 4.51275e-22 2.40901e-22 -1.27646e-22 -6.20503e-22 3.52177e-23 3.30663e-23 -1.33647e-22 3.35071e-22 7.26442e-22 -2.83658e-22 -8.65818e-22 1.35382e-22 -1.65467e-22 -2.91367e-22 1.26741e-22 -2.48201e-22 0 0 0 0.523273 0.640614 0.685816 0.757398 0.826906 0.85516 0.933448 0.944732 0.966843 1.01978 1.07477 1.04954 1.10897 1.15741 1.19908 1.17268 1.23183 1.2426 1.26741 1.30741 1.31689 1.32092 1.22595 0.929063 0.347498 0.0160243 1.37983e-05 2.35972e-10 3.67129e-15 -1.98561e-22 -9.60778e-23 -2.79226e-22 2.70765e-22 2.62801e-22 8.50975e-23 8.27337e-23 -1.00622e-22 -3.91896e-22 5.25041e-22 7.097e-23 2.22473e-22 3.63437e-22 1.9048e-22 3.38456e-22 -4.63309e-22 -2.26618e-22 3.16853e-23 6.20503e-23 3.0392e-22 0 0 0.501826 0.614357 0.657705 0.726354 0.793013 0.820108 0.895188 0.90601 0.927214 0.977983 1.03072 1.00652 1.06352 1.10997 1.14994 1.12462 1.18134 1.19167 1.21546 1.25383 1.26291 1.26678 1.1757 0.890983 0.333255 0.0153675 1.32327e-05 2.26301e-10 3.39395e-15 -5.95682e-22 -4.80389e-22 -1.86151e-22 -2.70765e-22 -2.19001e-22 1.70195e-22 8.27337e-23 8.04976e-23 6.27034e-22 -4.0094e-22 2.23381e-22 2.81496e-22 4.87538e-23 2.01303e-22 -1.69228e-23 4.21942e-22 -1.94244e-22 3.48538e-22 1.55126e-22 -3.0392e-22 0 0 0.479882 0.587493 0.628946 0.694593 0.758337 0.784248 0.856045 0.866393 0.88667 0.935219 0.985647 0.962508 1.01702 1.06144 1.09965 1.07544 1.12969 1.13957 1.16231 1.199 1.20769 1.21139 1.12429 0.852023 0.318683 0.0146955 1.26541e-05 2.16405e-10 3.39574e-15 9.92804e-23 2.88233e-22 -9.30754e-23 9.02549e-23 -1.75201e-22 -1.70195e-22 -5.37769e-22 -2.41493e-22 -1.17569e-22 -3.05478e-22 -3.35071e-22 -5.44832e-23 -4.96402e-22 5.88756e-22 -2.79226e-22 -3.72302e-23 7.89118e-23 3.0101e-22 5.11915e-22 2.2794e-22 0 0 0.457466 0.560049 0.599566 0.662146 0.722913 0.747613 0.816056 0.825921 0.845251 0.891532 0.939605 0.917546 0.969508 1.01185 1.04829 1.0252 1.07692 1.08633 1.10802 1.14299 1.15127 1.1548 1.07177 0.812222 0.303796 0.014009 1.2063e-05 2.06296e-10 3.11535e-15 4.96402e-22 9.60778e-23 0 -1.8051e-22 0 5.10585e-22 -2.48201e-22 -2.41493e-22 7.83793e-23 -7.63696e-23 -2.23381e-22 -1.81611e-22 4.25488e-22 -2.77062e-22 -1.1846e-22 -1.15827e-22 2.91367e-22 1.8219e-22 -3.10251e-22 -2.97746e-22 0 0 0.434597 0.532053 0.569595 0.629046 0.686776 0.710241 0.775263 0.784634 0.802998 0.846966 0.892635 0.871679 0.921043 0.961271 0.995883 0.973954 1.02308 1.03203 1.05263 1.08585 1.09372 1.09707 1.01819 0.77162 0.28861 0.0133087 1.14599e-05 1.95984e-10 3.12354e-15 0 0 -1.86151e-22 -9.02549e-23 -3.50401e-22 1.70195e-22 -2.48201e-22 -2.41493e-22 -1.56759e-22 2.29109e-22 7.44603e-23 -4.35865e-22 -6.38231e-22 -3.11694e-22 -1.35382e-22 -2.31654e-22 -3.23741e-22 2.53482e-22 1.70638e-22 -1.67156e-22 0 0 0.4113 0.503532 0.539061 0.595326 0.64996 0.672168 0.733704 0.742573 0.759952 0.801563 0.844784 0.824952 0.87167 0.909741 0.942498 0.921744 0.968239 0.976705 0.996204 1.02765 1.03509 1.03826 0.963611 0.730257 0.273139 0.0125953 1.08456e-05 1.85478e-10 2.90153e-15 0 0 0 0 0 -1.70195e-22 0 0 0 0 0 -7.26442e-23 3.54573e-22 -2.07796e-22 -2.03074e-22 -1.98561e-22 -1.94244e-22 -2.21797e-22 1.55126e-22 -3.34312e-22 0 0 0.387597 0.474514 0.507995 0.561017 0.612503 0.633431 0.691421 0.699779 0.716157 0.75537 0.7961 0.77741 0.821436 0.857313 0.888182 0.868625 0.91244 0.920418 0.938793 0.968424 0.97544 0.978427 0.908078 0.688173 0.257398 0.0118695 1.02206e-05 1.74789e-10 2.72368e-15 0 0 1.86151e-22 3.6102e-22 3.50401e-22 -1.70195e-22 -4.13668e-22 -3.21991e-22 -1.56759e-22 -1.52739e-22 -1.48921e-22 -3.63221e-22 -1.41829e-22 -3.46327e-22 6.76912e-23 3.30935e-22 6.47481e-23 -6.33705e-23 1.55126e-22 0 0 0 0.363512 0.445027 0.476428 0.526155 0.574442 0.594069 0.648456 0.656294 0.671655 0.708431 0.74663 0.729101 0.770391 0.804039 0.83299 0.814648 0.85574 0.863223 0.880456 0.908245 0.914826 0.917627 0.85165 0.645409 0.241403 0.0111319 9.58548e-06 1.63927e-10 2.62836e-15 -3.97122e-22 -3.84311e-22 1.86151e-22 3.6102e-22 3.50401e-22 0 -1.65467e-22 3.21991e-22 -3.13517e-22 -4.58217e-22 -4.46762e-22 -2.17933e-22 -2.12744e-22 -4.84858e-22 -2.70765e-22 3.97122e-22 2.58992e-22 -5.70335e-22 -5.58453e-22 6.0784e-23 0 0 0.339068 0.415101 0.444391 0.490774 0.535814 0.554121 0.60485 0.612162 0.626489 0.660792 0.696423 0.680073 0.718587 0.749972 0.776976 0.759867 0.798196 0.805176 0.82125 0.847171 0.853308 0.855922 0.794381 0.602009 0.22517 0.0103833 8.94091e-06 1.52904e-10 2.42619e-15 5.95682e-22 1.92156e-22 0 1.8051e-22 0 0 0 3.21991e-22 3.13517e-22 3.05478e-22 2.97841e-22 0 0 2.77062e-22 0 6.6187e-23 4.53237e-22 1.90112e-22 -1.86151e-22 -1.21568e-22 0 0 0.314289 0.384766 0.411915 0.454909 0.496657 0.513626 0.560648 0.567426 0.580706 0.612502 0.645529 0.630374 0.666073 0.695164 0.720195 0.704337 0.739864 0.746334 0.761233 0.78526 0.790949 0.793372 0.736328 0.558014 0.208715 0.00962451 8.28751e-06 1.4173e-10 2.21171e-15 -1.98561e-22 0 -3.72302e-22 -1.8051e-22 -1.75201e-22 -3.4039e-22 -1.65467e-22 0 4.70276e-22 -1.52739e-22 1.48921e-22 4.35865e-22 -1.41829e-22 0 -1.35382e-22 -1.32374e-22 1.29496e-22 1.26741e-22 -1.24101e-22 -2.43136e-22 0 0 0.2892 0.354051 0.379033 0.418594 0.45701 0.472625 0.515893 0.522129 0.534349 0.563607 0.593997 0.580052 0.612902 0.639671 0.662703 0.648111 0.680803 0.686756 0.700466 0.722574 0.727809 0.730038 0.677548 0.513469 0.192053 0.00885621 7.62594e-06 1.30416e-10 2.01438e-15 -1.98561e-22 0 5.58452e-22 5.41529e-22 0 -3.4039e-22 -1.65467e-22 -1.60995e-22 4.70276e-22 -3.05478e-22 -1.48921e-22 -1.45288e-22 -2.83658e-22 0 0 0 2.58992e-22 2.53482e-22 -2.48201e-22 -3.64704e-22 0 0 0.263825 0.322986 0.345776 0.381867 0.416912 0.431157 0.470628 0.476317 0.487465 0.514156 0.54188 0.529159 0.559125 0.583546 0.604558 0.591246 0.621069 0.6265 0.639007 0.659175 0.663951 0.665985 0.6181 0.468417 0.175203 0.00807916 6.95684e-06 1.18973e-10 1.89789e-15 5.95682e-22 1.92156e-22 -3.72302e-22 -3.6102e-22 3.50401e-22 -5.10585e-22 -6.61869e-22 -3.21991e-22 -1.56759e-22 3.05478e-22 4.46762e-22 -2.90577e-22 2.83658e-22 -1.38531e-22 4.06147e-22 -2.64748e-22 -2.58992e-22 2.53482e-22 2.48201e-22 -4.86272e-22 0 0 0.238191 0.291603 0.312179 0.344762 0.376402 0.389263 0.424899 0.430036 0.4401 0.464198 0.489228 0.477742 0.504798 0.526845 0.545815 0.533797 0.560722 0.565625 0.576917 0.595126 0.599438 0.601274 0.558042 0.422903 0.158179 0.00729414 6.28087e-06 1.07413e-10 1.72096e-15 -5.95682e-22 3.84311e-22 3.72302e-22 -5.41529e-22 1.75201e-22 3.4039e-22 3.30935e-22 3.21991e-22 1.56759e-22 -3.05478e-22 2.97841e-22 0 0 2.77062e-22 2.70765e-22 2.64748e-22 -3.88489e-22 1.26741e-22 2.48201e-22 0 0 0 0.212321 0.259932 0.278273 0.307318 0.335521 0.346985 0.378751 0.383329 0.392301 0.413781 0.436093 0.425855 0.449972 0.469625 0.486534 0.475821 0.499822 0.504193 0.514258 0.530489 0.534333 0.535969 0.497433 0.376972 0.140999 0.00650193 5.59871e-06 9.5747e-11 1.52642e-15 5.95682e-22 -3.84311e-22 -1.86151e-22 -1.8051e-22 -3.50401e-22 1.70195e-22 -1.65467e-22 -3.21991e-22 -1.56759e-22 -1.52739e-22 -1.48921e-22 -2.90577e-22 -1.41829e-22 -2.77062e-22 -2.70765e-22 0 -1.29496e-22 2.53482e-22 -1.24101e-22 1.21568e-22 0 0 0.186241 0.228005 0.244093 0.26957 0.294309 0.304365 0.332229 0.336245 0.344115 0.362956 0.382527 0.373547 0.394701 0.41194 0.426773 0.417376 0.438429 0.442263 0.451092 0.465329 0.468701 0.470136 0.436333 0.330668 0.12368 0.00570329 4.91102e-06 8.39863e-11 1.31094e-15 0 0 1.86151e-22 1.8051e-22 7.00803e-22 -1.70195e-22 -3.30935e-22 1.60995e-22 0 -1.52739e-22 1.48921e-22 0 1.41829e-22 1.38531e-22 -1.35382e-22 -1.32374e-22 -1.29496e-22 0 -1.24101e-22 -1.21568e-22 0 0 0.159978 0.195852 0.209671 0.231556 0.252806 0.261444 0.285379 0.288829 0.295589 0.311773 0.328584 0.32087 0.339042 0.35385 0.366591 0.358519 0.376603 0.379896 0.38748 0.39971 0.402606 0.403839 0.3748