<?xml version="1.0"?>
<VTKFile type="PolyData">
	<PolyData>
		<Piece NumberOfPoints="2601" NumberOfPolys="2500">
			<Points>
				<DataArray type="Float32" NumberOfComponents="3" format="ascii">
 1e-06 0 0 0.291567 0 0 0.33185 0 0 0.36959 0 0 0.399 0 0 0.423273 0 0 0.443983 0 0 0.463095 0 0 0.480974 0 0 0.49665 0 0 0.510828 0 0 0.523728 0 0 0.535665 0 0 0.547087 0 0 0.557571 0 0 0.566992 0 0 0.575781 0 0 0.583872 0 0 0.591759 0 0 0.598948 0 0 0.605742 0 0 0.612046 0 0 0.618175 0 0 0.623904 0 0 0.62929 0 0 0.634403 0 0 0.639182 0 0 0.64379 0 0 0.64824 0 0 0.652425 0 0 0.656416 0 0 0.660236 0 0 0.664805 0 0 0.671606 0 0 0.682922 0 0 0.700167 0 0 0.720001 0 0 0.740001 0 0 0.760001 0 0 0.780001 0 0 0.800001 0 0 0.820001 0 0 0.840001 0 0 0.860001 0 0 0.880001 0 0 0.900001 0 0 0.920001 0 0 0.940001 0 0 0.960001 0 0 0.980001 0 0 1 0 0 9.99507e-07 3.14108e-08 0 0.291424 0.00915835 0 0.331686 0.0104237 0 0.369408 0.0116091 0 0.398803 0.0125329 0 0.423064 0.0132953 0 0.443764 0.0139459 0 0.462866 0.0145462 0 0.480736 0.0151077 0 0.496405 0.0156001 0 0.510576 0.0160455 0 0.52347 0.0164507 0 0.535401 0.0168256 0 0.546817 0.0171844 0 0.557296 0.0175137 0 0.566712 0.0178096 0 0.575496 0.0180857 0 0.583584 0.0183399 0 0.591467 0.0185876 0 0.598653 0.0188134 0 0.605443 0.0190268 0 0.611744 0.0192248 0 0.61787 0.0194174 0 0.623596 0.0195973 0 0.628979 0.0197665 0 0.63409 0.0199271 0 0.638867 0.0200772 0 0.643472 0.0202219 0 0.64792 0.0203617 0 0.652103 0.0204932 0 0.656092 0.0206185 0 0.65991 0.0207385 0 0.664477 0.020882 0 0.671275 0.0210957 0 0.682585 0.0214511 0 0.699821 0.0219928 0 0.719646 0.0226158 0 0.739636 0.023244 0 0.759626 0.0238722 0 0.779616 0.0245004 0 0.799606 0.0251286 0 0.819596 0.0257569 0 0.839587 0.0263851 0 0.859577 0.0270133 0 0.879567 0.0276415 0 0.899557 0.0282697 0 0.919547 0.0288979 0 0.939537 0.0295261 0 0.959527 0.0301544 0 0.979517 0.0307826 0 0.999508 0.0314108 0 9.98027e-07 6.27905e-08 0 0.290992 0.0183077 0 0.331195 0.020837 0 0.368861 0.0232068 0 0.398212 0.0250534 0 0.422437 0.0265775 0 0.443107 0.027878 0 0.462181 0.029078 0 0.480025 0.0302006 0 0.49567 0.0311849 0 0.50982 0.0320752 0 0.522695 0.0328852 0 0.534608 0.0336347 0 0.546008 0.0343519 0 0.556471 0.0350102 0 0.565873 0.0356017 0 0.574644 0.0361536 0 0.58272 0.0366616 0 0.590591 0.0371568 0 0.597766 0.0376083 0 0.604547 0.0380348 0 0.610839 0.0384307 0 0.616955 0.0388155 0 0.622673 0.0391752 0 0.628048 0.0395134 0 0.633151 0.0398345 0 0.637921 0.0401346 0 0.642519 0.0404239 0 0.646961 0.0407033 0 0.651138 0.0409661 0 0.65512 0.0412167 0 0.658933 0.0414565 0 0.663493 0.0417434 0 0.670281 0.0421705 0 0.681574 0.042881 0 0.698785 0.0439638 0 0.718581 0.0452093 0 0.738541 0.046465 0 0.758501 0.0477209 0 0.778462 0.0489767 0 0.798422 0.0502325 0 0.818383 0.0514883 0 0.838343 0.0527441 0 0.858304 0.0539999 0 0.878265 0.0552557 0 0.898225 0.0565115 0 0.918186 0.0577673 0 0.938146 0.0590232 0 0.958107 0.060279 0 0.978067 0.0615348 0 0.998028 0.0627906 0 9.95562e-07 9.41083e-08 0 0.290273 0.0274389 0 0.330377 0.0312298 0 0.36795 0.0347815 0 0.397229 0.0375492 0 0.421394 0.0398335 0 0.442013 0.0417825 0 0.461039 0.0435811 0 0.478839 0.0452636 0 0.494446 0.0467389 0 0.508561 0.0480732 0 0.521404 0.0492872 0 0.533288 0.0504105 0 0.544659 0.0514855 0 0.555096 0.052472 0 0.564475 0.0533586 0 0.573225 0.0541857 0 0.581281 0.0549472 0 0.589133 0.0556894 0 0.59629 0.056366 0 0.603054 0.0570053 0 0.60933 0.0575987 0 0.615432 0.0581754 0 0.621135 0.0587145 0 0.626497 0.0592214 0 0.631588 0.0597026 0 0.636346 0.0601524 0 0.640932 0.060586 0 0.645363 0.0610048 0 0.64953 0.0613986 0 0.653502 0.0617742 0 0.657306 0.0621337 0 0.661854 0.0625637 0 0.668625 0.0632037 0 0.679891 0.0642686 0 0.697059 0.0658915 0 0.716806 0.0677581 0 0.736717 0.0696402 0 0.756628 0.0715224 0 0.776539 0.0734046 0 0.796451 0.0752867 0 0.816362 0.0771689 0 0.836273 0.0790511 0 0.856184 0.0809332 0 0.876096 0.0828154 0 0.896007 0.0846976 0 0.915918 0.0865797 0 0.935829 0.0884619 0 0.95574 0.0903441 0 0.975652 0.0922262 0 0.995563 0.0941084 0 9.92115e-07 1.25333e-07 0 0.289268 0.0365431 0 0.329233 0.0415918 0 0.366676 0.0463219 0 0.395853 0.0500079 0 0.419935 0.0530501 0 0.440483 0.0556459 0 0.459443 0.0580411 0 0.477181 0.060282 0 0.492733 0.0622467 0 0.5068 0.0640237 0 0.519598 0.0656405 0 0.531441 0.0671366 0 0.542773 0.0685682 0 0.553174 0.0698821 0 0.562521 0.0710629 0 0.57124 0.0721644 0 0.579268 0.0731785 0 0.587093 0.0741671 0 0.594225 0.0750681 0 0.600965 0.0759196 0 0.60722 0.0767098 0 0.613301 0.0774779 0 0.618984 0.0781959 0 0.624328 0.0788709 0 0.629401 0.0795118 0 0.634142 0.0801108 0 0.638713 0.0806882 0 0.643128 0.081246 0 0.64728 0.0817705 0 0.65124 0.0822707 0 0.65503 0.0827495 0 0.659563 0.0833221 0 0.66631 0.0841746 0 0.677537 0.0855928 0 0.694645 0.0877541 0 0.714324 0.0902401 0 0.734166 0.0927467 0 0.754008 0.0952534 0 0.77385 0.09776 0 0.793693 0.100267 0 0.813535 0.102773 0 0.833377 0.10528 0 0.85322 0.107787 0 0.873062 0.110293 0 0.892904 0.1128 0 0.912747 0.115307 0 0.932589 0.117813 0 0.952431 0.12032 0 0.972273 0.122827 0 0.992116 0.125333 0 9.87688e-07 1.56434e-07 0 0.287978 0.0456112 0 0.327764 0.0519127 0 0.36504 0.0578166 0 0.394087 0.0624173 0 0.418061 0.0662144 0 0.438517 0.0694543 0 0.457393 0.072444 0 0.475052 0.0752409 0 0.490535 0.0776931 0 0.504539 0.0799111 0 0.51728 0.0819291 0 0.52907 0.0837965 0 0.540352 0.0855833 0 0.550706 0.0872233 0 0.560011 0.088697 0 0.568692 0.0900719 0 0.576683 0.0913377 0 0.584473 0.0925715 0 0.591574 0.0936962 0 0.598284 0.0947589 0 0.604511 0.0957452 0 0.610564 0.0967039 0 0.616222 0.0976 0 0.621542 0.0984426 0 0.626593 0.0992425 0 0.631313 0.0999902 0 0.635863 0.100711 0 0.640259 0.101407 0 0.644393 0.102062 0 0.648334 0.102686 0 0.652107 0.103284 0 0.65662 0.103998 0 0.663337 0.105062 0 0.674514 0.106833 0 0.691546 0.10953 0 0.711137 0.112633 0 0.73089 0.115762 0 0.750644 0.11889 0 0.770398 0.122019 0 0.790152 0.125148 0 0.809905 0.128276 0 0.829659 0.131405 0 0.849413 0.134534 0 0.869167 0.137662 0 0.88892 0.140791 0 0.908674 0.14392 0 0.928428 0.147049 0 0.948182 0.150177 0 0.967936 0.153306 0 0.987689 0.156435 0 9.82287e-07 1.87381e-07 0 0.286403 0.0546343 0 0.325972 0.0621824 0 0.363044 0.0692543 0 0.391932 0.0747651 0 0.415775 0.0793134 0 0.436119 0.0831942 0 0.454892 0.0867753 0 0.472454 0.0901255 0 0.487853 0.0930629 0 0.50178 0.0957196 0 0.514451 0.0981368 0 0.526177 0.100374 0 0.537397 0.102514 0 0.547695 0.104478 0 0.556949 0.106244 0 0.565582 0.107891 0 0.57353 0.109407 0 0.581277 0.110885 0 0.588339 0.112232 0 0.595012 0.113505 0 0.601205 0.114686 0 0.607226 0.115834 0 0.612853 0.116908 0 0.618144 0.117917 0 0.623166 0.118875 0 0.627861 0.119771 0 0.632386 0.120634 0 0.636758 0.121468 0 0.640869 0.122252 0 0.644789 0.123 0 0.648541 0.123716 0 0.653029 0.124572 0 0.65971 0.125846 0 0.670825 0.127967 0 0.687765 0.131198 0 0.707248 0.134915 0 0.726894 0.138662 0 0.746539 0.14241 0 0.766185 0.146158 0 0.785831 0.149905 0 0.805477 0.153653 0 0.825122 0.1574 0 0.844768 0.161148 0 0.864414 0.164896 0 0.88406 0.168643 0 0.903705 0.172391 0 0.923351 0.176139 0 0.942997 0.179886 0 0.962642 0.183634 0 0.982288 0.187382 0 9.75917e-07 2.18143e-07 0 0.284546 0.0636035 0 0.323858 0.0723908 0 0.360689 0.0806236 0 0.38939 0.0870391 0 0.413079 0.0923341 0 0.433291 0.096852 0 0.451942 0.101021 0 0.46939 0.104921 0 0.484689 0.108341 0 0.498526 0.111434 0 0.511115 0.114248 0 0.522764 0.116852 0 0.533912 0.119343 0 0.544143 0.12163 0 0.553337 0.123685 0 0.561914 0.125603 0 0.56981 0.127368 0 0.577507 0.129088 0 0.584524 0.130657 0 0.591154 0.132138 0 0.597306 0.133514 0 0.603288 0.134851 0 0.608878 0.1361 0 0.614135 0.137275 0 0.619125 0.138391 0 0.623789 0.139433 0 0.628285 0.140438 0 0.632628 0.141409 0 0.636713 0.142322 0 0.640607 0.143193 0 0.644335 0.144026 0 0.648794 0.145023 0 0.655432 0.146506 0 0.666475 0.148975 0 0.683304 0.152737 0 0.702661 0.157063 0 0.722179 0.161426 0 0.741698 0.165789 0 0.761216 0.170152 0 0.780734 0.174515 0 0.800253 0.178878 0 0.819771 0.183241 0 0.839289 0.187603 0 0.858808 0.191966 0 0.878326 0.196329 0 0.897844 0.200692 0 0.917363 0.205055 0 0.936881 0.209418 0 0.956399 0.213781 0 0.975918 0.218143 0 9.68583e-07 2.4869e-07 0 0.282407 0.0725099 0 0.321424 0.0825277 0 0.357979 0.0919133 0 0.386464 0.0992272 0 0.409975 0.105264 0 0.430035 0.110414 0 0.448546 0.115167 0 0.465863 0.119613 0 0.481047 0.123512 0 0.494779 0.127038 0 0.507274 0.130246 0 0.518836 0.133214 0 0.5299 0.136055 0 0.540054 0.138662 0 0.549178 0.141005 0 0.557691 0.143191 0 0.565528 0.145203 0 0.573168 0.147164 0 0.580131 0.148952 0 0.586711 0.150642 0 0.592818 0.15221 0 0.598754 0.153734 0 0.604303 0.155159 0 0.60952 0.156498 0 0.614472 0.15777 0 0.619101 0.158958 0 0.623564 0.160104 0 0.627874 0.161211 0 0.631928 0.162252 0 0.635793 0.163244 0 0.639493 0.164194 0 0.643919 0.16533 0 0.650506 0.167022 0 0.661467 0.169836 0 0.67817 0.174124 0 0.697381 0.179057 0 0.716753 0.184031 0 0.736124 0.189005 0 0.755496 0.193978 0 0.774867 0.198952 0 0.794239 0.203926 0 0.813611 0.2089 0 0.832982 0.213874 0 0.852354 0.218847 0 0.871726 0.223821 0 0.891097 0.228795 0 0.910469 0.233769 0 0.929841 0.238743 0 0.949212 0.243716 0 0.968584 0.24869 0 9.60294e-07 2.78991e-07 0 0.27999 0.0813447 0 0.318673 0.0925831 0 0.354915 0.103112 0 0.383157 0.111317 0 0.406466 0.118089 0 0.426355 0.123867 0 0.444707 0.129199 0 0.461876 0.134187 0 0.47693 0.138561 0 0.490545 0.142516 0 0.502933 0.146115 0 0.514396 0.149446 0 0.525364 0.152632 0 0.535432 0.155557 0 0.544478 0.158186 0 0.552918 0.160638 0 0.560688 0.162895 0 0.568262 0.165095 0 0.575166 0.167101 0 0.58169 0.168997 0 0.587744 0.170756 0 0.59363 0.172465 0 0.599131 0.174064 0 0.604303 0.175566 0 0.609213 0.176993 0 0.613803 0.178326 0 0.618227 0.179612 0 0.622501 0.180853 0 0.62652 0.182021 0 0.630352 0.183134 0 0.63402 0.1842 0 0.638408 0.185475 0 0.644939 0.187372 0 0.655806 0.190529 0 0.672365 0.19534 0 0.691413 0.200874 0 0.710618 0.206454 0 0.729824 0.212034 0 0.74903 0.217613 0 0.7
[...]
			<PointData Scalars="VitesseX">
				<DataArray Name="VitesseX" type="Float32" format="ascii">
 0 0.573118 0.702387 0.743087 0.857634 0.865181 0.973103 0.960782 1.02733 1.05744 1.0627 1.13096 1.15158 1.16317 1.22247 1.24317 1.27213 1.29357 1.31577 1.36797 1.39132 1.38646 1.4164 1.42361 1.46833 1.49325 1.49718 1.51377 1.51675 1.5286 1.57285 1.55199 1.42467 1.10924 0.550713 0.0646018 0.00034628 1.64728e-08 4.65748e-13 8.09205e-18 0 0 0 0 0 0 0 0 0 0 0 0 0.572836 0.70204 0.74272 0.85721 0.864755 0.972623 0.960308 1.02682 1.05691 1.06218 1.1304 1.15101 1.16259 1.22187 1.24256 1.2715 1.29293 1.31512 1.3673 1.39064 1.38578 1.4157 1.4229 1.4676 1.49252 1.49644 1.51303 1.516 1.52785 1.57207 1.55122 1.42397 1.1087 0.550441 0.0645699 0.000346109 1.64647e-08 4.65517e-13 7.49589e-18 5.63488e-22 5.49745e-22 -5.36655e-22 -5.24175e-22 0 0 4.8999e-22 -4.79564e-22 0 9.19981e-22 0 0 0.571987 0.701001 0.741621 0.855941 0.863474 0.971183 0.958886 1.0253 1.05535 1.06061 1.12873 1.14931 1.16087 1.22006 1.24072 1.26962 1.29102 1.31317 1.36527 1.38858 1.38373 1.41361 1.4208 1.46543 1.49031 1.49422 1.51079 1.51376 1.52558 1.56974 1.54892 1.42186 1.10706 0.549626 0.0644743 0.000345597 1.64403e-08 4.64827e-13 5.7106e-18 0 0 -5.36655e-22 0 0 0 4.8999e-22 -9.59129e-22 0 0 0 0 0.570575 0.69927 0.739789 0.853827 0.861342 0.968784 0.956518 1.02277 1.05274 1.05799 1.12594 1.14647 1.158 1.21705 1.23765 1.26648 1.28783 1.30993 1.3619 1.38515 1.38031 1.41012 1.41729 1.46181 1.48663 1.49053 1.50706 1.51002 1.52182 1.56587 1.5451 1.41835 1.10432 0.548269 0.0643151 0.000344743 1.63997e-08 4.63693e-13 4.60353e-18 0 0 0 0 0 1.00176e-21 4.8999e-22 -4.79564e-22 0 0 0 0 0.568599 0.696848 0.737227 0.850871 0.858359 0.96543 0.953206 1.01923 1.0491 1.05432 1.12204 1.1425 1.15399 1.21283 1.23337 1.2621 1.28337 1.30539 1.35719 1.38035 1.37553 1.40523 1.41238 1.45675 1.48148 1.48537 1.50184 1.50479 1.51655 1.56044 1.53975 1.41344 1.1005 0.54637 0.0640924 0.000343549 1.63429e-08 4.62105e-13 1.22439e-17 0 0 0 0 -5.12262e-22 5.00878e-22 -9.7998e-22 0 -4.69574e-22 -4.5999e-22 0 0 0.566062 0.693739 0.733938 0.847075 0.85453 0.961123 0.948953 1.01468 1.04442 1.04962 1.11703 1.1374 1.14885 1.20742 1.22786 1.25646 1.27765 1.29957 1.35113 1.37419 1.36939 1.39896 1.40608 1.45025 1.47487 1.47875 1.49514 1.49808 1.50978 1.55348 1.53288 1.40713 1.09559 0.543933 0.0638064 0.000342017 1.627e-08 4.60033e-13 8.0383e-18 5.63488e-22 0 -5.36655e-22 0 0 5.00878e-22 0 9.59129e-22 -4.69574e-22 0 0 0 0.562967 0.689946 0.729925 0.842443 0.849857 0.955867 0.943764 1.00913 1.03871 1.04388 1.11093 1.13118 1.14256 1.20082 1.22115 1.24959 1.27066 1.29246 1.34374 1.36668 1.3619 1.39131 1.39839 1.44232 1.4668 1.47066 1.48696 1.48988 1.50152 1.54499 1.5245 1.39944 1.0896 0.540958 0.0634575 0.000340146 1.6181e-08 4.57531e-13 1.05536e-17 0 0 5.36655e-22 0 -5.12262e-22 -5.00878e-22 0 9.59129e-22 -4.69574e-22 4.5999e-22 0 0 0.559316 0.685471 0.725191 0.836979 0.844345 0.949668 0.937643 1.00258 1.03197 1.03711 1.10372 1.12384 1.13515 1.19303 1.21323 1.24149 1.26242 1.28408 1.33503 1.35782 1.35307 1.38229 1.38932 1.43296 1.45729 1.46112 1.47732 1.48022 1.49179 1.53497 1.51461 1.39036 1.08253 0.53745 0.0630459 0.00033794 1.60761e-08 4.54576e-13 1.28705e-17 0 0 -5.36655e-22 5.24175e-22 0 -5.00878e-22 -4.8999e-22 -4.79564e-22 0 0 0 0 0.555113 0.68032 0.719741 0.83069 0.838 0.942531 0.930597 0.99505 1.02421 1.02932 1.09543 1.1154 1.12662 1.18407 1.20411 1.23216 1.25293 1.27443 1.325 1.34761 1.3429 1.3719 1.37888 1.4222 1.44634 1.45014 1.46622 1.4691 1.48058 1.52343 1.50323 1.37992 1.0744 0.533411 0.0625722 0.000335401 1.59553e-08 4.51227e-13 2.53795e-17 0 0 0 5.24175e-22 1.02452e-21 -5.00878e-22 0 0 0 4.5999e-22 0 0 0.550362 0.674498 0.713582 0.82358 0.830828 0.934465 0.922633 0.986534 1.01545 1.02051 1.08605 1.10585 1.11698 1.17393 1.19381 1.22162 1.24221 1.26352 1.31366 1.33608 1.33141 1.36016 1.36708 1.41002 1.43396 1.43773 1.45367 1.45653 1.46791 1.51039 1.49036 1.36811 1.0652 0.528846 0.0620367 0.00033253 1.58187e-08 4.47351e-13 3.58015e-17 0 0 -1.07331e-21 -1.04835e-21 1.02452e-21 5.00878e-22 4.8999e-22 0 0 4.5999e-22 0 0 0.545068 0.66801 0.706718 0.815658 0.822836 0.925476 0.913758 0.977045 1.00568 1.01069 1.07561 1.09522 1.10624 1.16264 1.18232 1.20986 1.23026 1.25137 1.30102 1.32323 1.3186 1.34708 1.35393 1.39646 1.42017 1.4239 1.43969 1.44251 1.45379 1.49586 1.47603 1.35495 1.05495 0.523759 0.0614399 0.000329332 1.56666e-08 4.42958e-13 2.4288e-17 -5.63488e-22 1.09949e-21 5.36655e-22 0 0 0 -4.8999e-22 -4.79564e-22 -4.69574e-22 4.5999e-22 0 0 0.539236 0.660862 0.699156 0.806931 0.814033 0.915574 0.903981 0.966591 0.99492 0.999878 1.0641 1.0835 1.0944 1.1502 1.16967 1.19692 1.2171 1.23798 1.2871 1.30907 1.3045 1.33267 1.33944 1.38152 1.40497 1.40867 1.42428 1.42708 1.43823 1.47986 1.46023 1.34045 1.04367 0.518155 0.0607826 0.000325808 1.54989e-08 4.38208e-13 2.88367e-17 -5.63488e-22 -5.49745e-22 -5.36655e-22 0 -5.12262e-22 5.00878e-22 4.8999e-22 -4.79564e-22 -4.69574e-22 9.19981e-22 0 0 0.532872 0.653063 0.690905 0.797408 0.804425 0.904768 0.893313 0.955183 0.983178 0.988077 1.05154 1.07071 1.08148 1.13663 1.15587 1.18279 1.20273 1.22337 1.27191 1.29362 1.2891 1.31694 1.32364 1.36522 1.38839 1.39204 1.40747 1.41024 1.42126 1.46239 1.443 1.32463 1.03135 0.51204 0.0600652 0.000321963 1.5316e-08 4.33072e-13 1.18369e-17 0 -5.49745e-22 0 5.24175e-22 -5.12262e-22 -5.00878e-22 -4.8999e-22 -4.79564e-22 -4.69574e-22 0 0 0 0.525982 0.644619 0.681971 0.787097 0.794024 0.89307 0.881762 0.942833 0.970466 0.975301 1.03794 1.05687 1.0675 1.12193 1.14092 1.1675 1.18718 1.20755 1.25546 1.27689 1.27243 1.29991 1.30652 1.34756 1.37044 1.37404 1.38927 1.392 1.40288 1.44349 1.42434 1.3075 1.01801 0.505419 0.0592886 0.0003178 1.5118e-08 4.27495e-13 3.17414e-22 5.63488e-22 0 0 0 0 1.00176e-21 0 4.79564e-22 0 -4.5999e-22 0 0 0.518573 0.635539 0.672365 0.77601 0.78284 0.88049 0.869342 0.929552 0.956796 0.961563 1.02332 1.04198 1.05246 1.10613 1.12485 1.15105 1.17046 1.19054 1.23778 1.25891 1.25451 1.2816 1.28812 1.32858 1.35114 1.35469 1.3697 1.3724 1.38312 1.42315 1.40428 1.28908 1.00367 0.4983 0.0584534 0.000313323 1.4905e-08 4.21446e-13 2.32206e-17 0 0 5.36655e-22 0 0 0 -4.8999e-22 0 4.69574e-22 -4.5999e-22 0 0 0.510652 0.625831 0.662095 0.764157 0.770882 0.867041 0.856063 0.915354 0.942182 0.946876 1.00769 1.02606 1.03639 1.08923 1.10767 1.13347 1.15258 1.17236 1.21887 1.23968 1.23535 1.26202 1.26844 1.30829 1.3305 1.334 1.34878 1.35143 1.36199 1.40142 1.38283 1.26939 0.988344 0.490689 0.0575606 0.000308538 1.46774e-08 4.15004e-13 3.32179e-17 -5.63488e-22 -2.74872e-22 0 5.24175e-22 0 0 4.8999e-22 0 4.69574e-22 4.5999e-22 0 0 0.502227 0.615506 0.651172 0.75155 0.758164 0.852737 0.84194 0.900252 0.926638 0.931254 0.991066 1.00914 1.01929 1.07126 1.0894 1.11477 1.13357 1.15301 1.19876 1.21923 1.21497 1.2412 1.24752 1.2867 1.30855 1.31199 1.32653 1.32914 1.33952 1.3783 1.36002 1.24845 0.972039 0.482593 0.056611 0.000303447 1.44352e-08 4.08203e-13 3.26704e-17 2.81744e-22 5.49745e-22 -5.36655e-22 -5.24175e-22 2.56131e-22 -5.00878e-22 -4.8999e-22 0 0 -4.5999e-22 0 0 0.493307 0.604574 0.639606 0.738201 0.744698 0.837591 0.826985 0.884262 0.910179 0.914714 0.973463 0.991212 1.00119 1.05223 1.07005 1.09497 1.11343 1.13254 1.17747 1.19757 1.19339 1.21916 1.22536 1.26385 1.28531 1.28868 1.30297 1.30553 1.31573 1.35381 1.33586 1.22628 0.954774 0.474022 0.0556055 0.000298058 1.41788e-08 4.00991e-13 3.20898e-17 -2.81744e-22 8.24617e-22 2.68328e-22 0 0 0 4.8999e-22 4.79564e-22 4.69574e-22 -4.5999e-22 0 0 0.4839 0.593045 0.627409 0.724124 0.730497 0.821618 0.811215 0.8674 0.892822 0.897271 0.9549 0.97231 0.982093 1.03217 1.04964 1.07409 1.0922 1.11094 1.15502 1.17473 1.17063 1.19591 1.20199 1.23975 1.2608 1.26411 1.27812 1.28063 1.29064 1.328 1.31038 1.20289 0.936566 0.464982 0.0545451 0.000292374 1.39084e-08 3.93325e-13 7.90417e-17 -8.45232e-22 5.49745e-22 -8.04983e-22 5.24175e-22 0 -5.00878e-22 -2.44995e-22 -2.39782e-22 0 -4.5999e-22 0 0 0.474015 0.58093 0.614593 0.709332 0.715575 0.804835 0.794644 0.849681 0.874584 0.878942 0.935393 0.952448 0.962032 1.01108 1.0282 1.05215 1.06989 1.08824 1.13142 1.15074 1.14672 1.17148 1.17744 1.21442 1.23504 1.23829 1.25201 1.25447 1.26428 1.30087 1.28362 1.17832 0.917435 0.455484 0.0534309 0.000286401 1.36243e-08 3.85313e-13 4.50108e-17 -2.81744e-22 5.49745e-22 -1.34164e-21 5.24175e-22 5.12262e-22 -5.00878e-22 2.44995e-22 -4.79564e-22 4.69574e-22 -4.5999e-22 0 0 0.463663 0.568243 0.60117 0.69384 0.699946 0.787257 0.777289 0.831124 0.855483 0.859745 0.914964 0.931646 0.941021 0.989001 1.00575 1.02917 1.04652 1.06448 1.10671 1.1256 1.12167 1.14589 1.15172 1.1879 1.20807 1.21124 1.22467 1.22708 1.23666 1.27246 1.25558 1.15259 0.897398 0.445536 0.0522639 0.000280146 1.33268e-08 3.76883e-13 5.41293e-17 2.81744e-22 1.09949e-21 0 -2.62088e-22 5.12262e-22 2.50439e-22 -4.8999e-22 -4.79564e-22 0 0 0 0 0.452852 0.554994 0.587154 0.677664 0.683627 0.768902 0.759167 0.811747 0.835538 0.839701 0.893632 0.909925 0.919081 0.965943 0.982297 1.00518 1.02212 1.03966 1.08091 1.09936 1.09552 1.11918 1.12487 1.16021 1.1799 1.183 1.19612 1.19847 1.20783 1.24279 1.22631 1.12571 0.876475 0.435149 0.0510454 0.000273615 1.30161e-08 3.68207e-13 3.5062e-17 -5.63488e-22 -8.24617e-22 1.07331e-21 0 -7.68393e-22 0 0 -2.39782e-22 -4.69574e-22 -4.5999e-22 0 0 0.441595 0.541198 0.572558 0.660818 0.666634 0.749789 0.740295 0.791568 0.814768 0.818827 0.871418 0.887306 0.896235 0.941932 0.957878 0.98019 0.996715 1.01382 1.05404 1.07203 1.06829 1.09136 1.09691 1.13136 1.15057 1.1536 1.16638 1.16868 1.17781 1.2119 1.19583 1.09773 0.854688 0.424332 0.0497765 0.000266813 1.26925e-08 3.59036e-13 2.88184e-17 2.81744e-22 0 -5.36655e-22 2.62088e-22 5.12262e-22 7.51318e-22 -2.44995e-22 7.19347e-22 7.0436e-22 -2.29995e-22 0 0 0.429902 0.526868 0.557398 0.643321 0.648982 0.729935 0.720693 0.770608 0.793194 0.797146 0.848344 0.863812 0.872504 0.916991 0.932515 0.954236 0.970323 0.986971 1.02613 1.04365 1.04 1.06246 1.06786 1.10141 1.12011 1.12305 1.1355 1.13773 1.14662 1.17981 1.16416 1.06866 0.832057 0.413096 0.0484585 0.000259748 1.23564e-08 3.49568e-13 4.12957e-18 1.40872e-22 9.62053e-22 1.34164e-22 -5.24175e-22 -2.56131e-22 0 -7.34985e-22 -2.39782e-22 0 -2.29995e-22 0 0 0.417785 0.512018 0.541687 0.625188 0.63069 0.709362 0.70038 0.748888 0.770837 0.774678 0.824433 0.839464 0.847911 0.891144 0.906232 0.92734 0.942974 0.959152 0.99721 1.01423 1.01069 1.03251 1.03776 1.07036 1.08854 1.0914 1.10349 1.10566 1.1143 1.14656 1.13135 1.03854 0.808605 0.401452 0.0470927 0.000252427 1.20082e-08 3.39722e-13 -2.88968e-22 -5.63488e-22 0 2.68328e-22 2.62088e-22 -2.56131e-22 0 0 -2.39782e-22 2.34787e-22 2.29995e-22 0 0 0.405256 0.496662 0.525442 0.606439 0.611776 0.688088 0.679375 0.726429 0.74772 0.751445 0.799708 0.814289 0.822483 0.864419 0.879054 0.899529 0.914694 0.930387 0.967303 0.983815 0.980377 1.00155 1.00664 1.03826 1.05589 1.05866 1.0704 1.0725 1.08088 1.11217 1.09742 1.0074 0.784355 0.389413 0.0456803 0.000244857 1.1648e-08 3.29579e-13 -7.22421e-23 -9.86104e-22 -4.12308e-22 4.02492e-22 2.62088e-22 -2.56131e-22 0 2.44995e-22 -1.19891e-22 -2.34787e-22 4.5999e-22 0 0 0.392327 0.480817 0.508678 0.587091 0.592257 0.666135 0.657701 0.703253 0.723864 0.727471 0.774194 0.78831 0.796242 0.83684 0.851008 0.870831 0.885512 0.900704 0.936442 0.952427 0.949099 0.969595 0.974526 1.00514 1.0222 1.02489 1.03625 1.03829 1.0464 1.07669 1.06241 0.975257 0.75933 0.376989 0.044223 0.000237045 1.12764e-08 3.18972e-13 -2.89223e-22 4.22616e-22 2.74872e-22 1.34164e-22 -2.62088e-22 1.28066e-22 6.26098e-22 0 5.99456e-22 -7.0436e-22 5.74988e-22 0 0 0.37901 0.464497 0.491412 0.567163 0.572155 0.643525 0.635377 0.679383 0.699294 0.702779 0.747916 0.761552 0.769215 0.808436 0.822123 0.841272 0.855455 0.870132 0.904657 0.920099 0.916884 0.936684 0.941448 0.971022 0.987506 0.990102 1.00108 1.00304 1.01088 1.04014 1.02635 0.942154 0.733557 0.364193 0.0427219 0.000228999 1.08937e-08 3.08114e-13 2.35234e-17 -1.26785e-21 -3.4359e-22 -3.3541e-22 7.20741e-22 -6.40328e-23 0 2.44995e-22 4.79564e-22 -9.39147e-22 9.19981e-22 0 0 0.365319 0.447718 0.473661 0.546676 0.551487 0.620279 0.612425 0.654842 0.674035 0.677393 0.7209 0.734044 0.74143 0.779234 0.792426 0.810884 0.824554 0.838701 0.871979 0.886863 0.883764 0.902849 0.907441 0.935946 0.951836 0.954337 0.964916 0.966813 0.974367 1.00257 0.989273 0.908122 0.707059 0.351038 0.0411787 0.000220727 1.05002e-08 2.97128e-13 3.82078e-19 6.33924e-22 1.37436e-21 -5.36655e-22 -1.63805e-21 2.56131e-22 -3.13049e-22 -5.51239e-22 2.39782e-22 -4.69574e-22 0 0 0 0.351268 0.430498 0.455443 0.52565 0.530276 0.596422 0.58887 0.629655 0.648109 0.651339 0.693172 0.70581 0.712913 0.749262 0.761947 0.779695 0.79284 0.806442 0.838441 0.852752 0.849772 0.868124 0.872538 0.899947 0.915226 0.917631 0.927803 0.929627 0.93689 0.964008 0.951223 0.873193 0.679864 0.337536 0.0395949 0.000212237 1.00963e-08 2.85534e-13 2.33075e-17 1.34269e-22 4.20898e-22 6.8759e-22 3.6037e-22 6.40328e-22 -8.76537e-22 -4.28741e-22 5.99456e-23 1.17393e-22 5.74988e-22 0 0 0.336871 0.412853 0.436776 0.504104 0.508541 0.571976 0.564733 0.603847 0.621545 0.624642 0.664761 0.676881 0.683692 0.718552 0.730717 0.747737 0.760343 0.773388 0.804075 0.8178 0.814942 0.832541 0.836775 0.86306 0.877712 0.880019 0.889774 0.891523 0.898489 0.924495 0.912234 0.837403 0.651998 0.323701 0.037972 0.000203538 9.68247e-09 2.73929e-13 -1.12229e-18 4.22616e-22 5.32565e-22 9.22376e-23 3.80846e-22 -3.20164e-23 7.98275e-22 -3.67492e-22 6.59401e-22 2.93483e-22 -5.74988e-22 0 0 0.32214 0.3948 0.417677 0.482062 0.486304 0.546965 0.54004 0.577443 0.594367 0.597328 0.635693 0.647283 0.653796 0.687132 0.698765 0.715041 0.727096 0.73957 0.768915 0.78204 0.779307 0.796137 0.800186 0.825322 0.839333 0.841539 0.850868 0.85254 0.859201 0.88407 0.872345 0.800786 0.623488 0.309547 0.0363116 0.000194638 9.25909e-09 2.61958e-13 2.28207e-17 -6.33924e-22 -1.03077e-22 -9.39147e-22 1.11387e-21 -5.2827e-22 -7.0436e-23 1.49294e-22 5.69483e-22 9.68495e-22 4.31241e-22 0 0 0.307092 0.376358 0.398166 0.459543 0.463587 0.521415 0.514813 0.550469 0.566602 0.569425 0.605998 0.617047 0.623255 0.655034 0.666123 0.68164 0.693131 0.705023 0.732997 0.745509 0.742904 0.758947 0.762806 0.786768 0.800125 0.802228 0.811121 0.812715 0.819065 0.842773 0.831595 0.763379 0.594363 0.295087 0.0346154 0.000185546 8.82657e-09 2.49595e-13 2.0063e-17 -4.22616e-22 -3.4359e-22 8.04983e-22 -5.24175e-22 -2.24115e-22 -2.19134e-22 5.51239e-22 3.44687e-22 -5.86967e-22 -5.63309e-22 0 0 0.291741 0.357544 0.378262 0.436571 0.440413 0.49535 0.489078 0.522951 0.538278 0.54096 0.575705 0.586201 0.5921 0.622289 0.632825 0.647565 0.658482 0.669779 0.696355 0.708242 0.705767 0.721008 0.724675 0.747439 0.760128 0.762126 0.770574 0.772088 0.778121 0.800644 0.790025 0.725219 0.564652 0.280336 0.032885 0.000176271 8.38534e-09 2.37135e-13 4.13867e-17 1.40872e-22 -8.24617e-22 -1.20747e-21 -5.89697e-22 -2.56131e-22 -4.38269e-22 -6.12487e-22 4.79564e-22 3.22832e-22 -3.16243e-22 0 0 0.276102 0.338377 0.357985 0.413168 0.416804 0.468796 0.46286 0.494918 0.509423 0.511961 0.544843 0.554777 0.560359 0.588931 0.598901 0.612852 0.623184 0.633875 0.659026 0.670276 0.667933 0.682357 0.685828 0.707372 0.71938 0.721271 0.729267 0.7307 0.736409 0.757724 0.747675 0.686342 0.534383 0.265308 0.0311221 0.000166822 7.93583e-09 2.24323e-13 -8.21185e-18 0 -1.37436e-22 6.70819e-22 -3.93131e-22 -3.84197e-22 -3.75659e-22 -3.67492e-22 -4.19619e-22 2.93483e-22 -6.32487e-22 0 0 0.26019 0.318877 0.337354 0.389358 0.392784 0.44178 0.436186 0.466396 0.480066 0.482457 0.513444 0.522806 0.528066 0.554991 0.564387 0.577533 0.58727 0.597345 0.621047 0.631648 0.629441 0.643034 0.646304 0.666606 0.677923 0.679705 0.687239 0.68859 0.69397 0.714057 0.704587 0.646789 0.503587 0.250018 0.0293286 0.000157208 7.4785e-09 2.11477e-13 1.088e-17 -2.81744e-22 -6.87181e-22 -2.68328e-22 -6.55219e-22 1.28066e-22 6.26098e-22 1.22497e-22 -1.19891e-22 2.93483e-22 0 0 0 0.244022 0.299062 0.316391 0.365163 0.368376 0.414327 0.409081 0.437414 0.450234 0.452477 0.481539 0.490318 0.495252 0.520504 0.529316 0.541645 0.550777 0.560226 0.582455 0.592397 0.590327 0.603075 0.606142 0.625183 0.635796 0.637467 0.644534 0.645801 0.650846 0.669685 0.660803 0.606597 0.472293 0.234482 0.0275061 0.000147439 7.01378e-09 1.98331e-13 7.93577e-18 -8.45232e-22 -4.12308e-22 -4.02492e-22 -9.17306e-22 -5.12262e-22 7.51318e-22 4.8999e-22 -1.07902e-21 -1.05654e-21 1.14998e-22 0 0 0.227613 0.278951 0.295115 0.340607 0.343605 0.386466 0.381573 0.408 0.419958 0.422051 0.449158 0.457347 0.461949 0.485503 0.493722 0.505222 0.51374 0.522554 0.543288 0.552562 0.550631 0.562522 0.565382 0.583143 0.593043 0.594601 0.601192 0.602374 0.60708 0.624652 0.616368 0.565807 0.440534 0.218714 0.0256565 0.000137524 6.54214e-09 1.8501e-13 2.8585e-17 5.63488e-22 0 0 5.24175e-22 0 1.2522e-22 8.57482e-22 3.59673e-22 -3.5218e-22 -2.29995e-22 0 0 0.210979 0.258566 0.273549 0.315716 0.318495 0.358223 0.353687 0.378184 0.389268 0.391207 0.416333 0.423924 0.42819 0.450022 0.457641 0.468301 0.476196 0.484366 0.503585 0.512181 0.510391 0.521413 0.524064 0.540527 0.549703 0.551148 0.557258 0.558353 0.562715 0.579003 0.571324 0.524458 0.40834 0.202731 0.0237815 0.000127474 6.06404e-09 1.71443e-13 -1.05482e-17 2.81744e-22 8.24617e-22 -2.68328e-22 0 -2.56131e-22 -2.50439e-22 2.44995e-22 2.39782e-22 -2.34787e-22 -4.5999e-22 0 0 0.194137 0.237925 0.251712 0.290513 0.29307 0.329627 0.325453 0.347994 0.358193 0.359978 0.383098 0.390083 0.394008 0.414098 0.421109 0.430918 0.438182 0.4457 0.463385 0.471294 0.469647 0.479789 0.482229 0.497378 0.505822 0.507151 0.512773 0.513781 0.517795 0.532782 0.525716 0.482591 0.375743 0.186547 0.0218831 0.000117298 5.57996e-09 1.57826e-13 1.02554e-17 -2.81744e-22 -2.74872e-22 -5.36655e-22 0 0 0 4.8999e-22 4.79564e-22 -4.69574e-22 -6.89986e-22 0 0 0.177103 0.217049 0.229626 0.265023 0.267356 0.300705 0.296898 0.317461 0.326765 0.328394 0.349485 0.355857 0.359438 0.377765 0.38416 0.393109 0.399736 0.406594 0.422727 0.429943 0.42844 0.437693 0.439919 0.453738 0.461441 0.462653 0.467782 0.468701 0.472364 0.486036 0.47959 0.440249 0.342776 0.17018 0.019963 0.000107006 5.09038e-09 1.43952e-13 1.57061e-17 8.45232e-22 -5.49745e-22 5.36655e-22 -2.62088e-22 7.68393e-22 -5.00878e-22 -4.8999e-22 4.79564e-22 4.69574e-22 -9.19981e-22 0 0 0.159895 0.19596 0.207315 0.239272 0.241378 0.271487 0.26805 0.286615 0.295015 0.296485 0.315527 0.32128 0.324513 0.341059 0.346833 0.354912 0.360895 0.367087 0.381652 0.388167 0.386811 0.395164 0.397174 0.40965 0.416604 0.417699 0.42233 0.42316 0.426466 0.43881 0.43299 0.397472 0.309469 0.153644 0.0180233 9.6609e-05 4.59576e-09 1.29934e-13 6.34056e-19 5.63488e-22 0 0 5.24175e-22 5.12262e-22 5.00878e-22 -7.34985e-22 2.39782e-22 4.69574e-22 0 0 0 0.142529 0.174676 0.184798 0.213285 0.215162 0.242001 0.238937 0.255486 0.262973 0.264284 0.281258 0.286386 0.289268 0.304017 0.309164 0.316365 0.321699 0.327218 0.340201 0.346008 0.344799 0.352245 0.354037 0.365158 0.371357 0.372333 0.37646 0.3772 0.380147 0.391151 0.385963 0.354302 0.275858 0.136957 0.0160658 8.61163e-05 4.09662e-09 1.15828e-13 9.44529e-18 -2.81744e-22 -5.49745e-22 -2.68328e-22 -5.24175e-22 -5.12262e-22 0 -2.44995e-22 4.79564e-22 -2.34787e-22 2.29995e-22 0 0 0.125022 0.153221 0.162099 0.187087 0.188733 0.212276 0.209588 0.224104 0.230672 0.231822 0.246711 0.251209 0.253737 0.266674 0.271189 0.277506 0.282184 0.287025 0.298414 0.303508 0.302447 0.308979 0.31055 0.320305 0.325743 0.326599 0.33022 0.330869 0.333454 0.343106 0.338555 0.310783 0.241974 0.120134 0.0140924 7.55386e-05 3.59343e-09 1.01612e-13 -3.20053e-18 2.81744e-22 0 2.68328e-22 2.62088e-22 -2.56131e-22 -2.50439e-22 -2.44995e-22 0 -2.34787e-22 -2.29995e-22 0 0 0.107392 0.131614 0.139241 0.160705 0.162119 0.182341 0.180033 0.192502 0.198144 0.199131 0.21192 0.215784 0.217956 0.229069 0.232947 0.238373 0.242391 0.24655 0.256333 0.260708 0.259797 0.265407 0.266757 0.275137 0.279808 0.280543 0.283653 0.284211 0.286431 0.2