<?xml version="1.0"?>
<VTKFile type="PolyData">
	<PolyData>
		<Piece NumberOfPoints="2601" NumberOfPolys="2500">
			<Points>
				<DataArray type="Float32" NumberOfComponents="3" format="ascii">
 1e-06 0 0 0.174697 0 0 0.19847 0 0 0.220688 0 0 0.237693 0 0 0.251081 0 0 0.262908 0 0 0.272946 0 0 0.281965 0 0 0.290126 0 0 0.296843 0 0 0.302849 0 0 0.308119 0 0 0.312771 0 0 0.317168 0 0 0.321266 0 0 0.327519 0 0 0.340683 0 0 0.360005 0 0 0.380001 0 0 0.400001 0 0 0.420001 0 0 0.440001 0 0 0.460001 0 0 0.480001 0 0 0.500001 0 0 0.520001 0 0 0.540001 0 0 0.560001 0 0 0.580001 0 0 0.600001 0 0 0.620001 0 0 0.640001 0 0 0.660001 0 0 0.680001 0 0 0.700001 0 0 0.720001 0 0 0.740001 0 0 0.760001 0 0 0.780001 0 0 0.800001 0 0 0.820001 0 0 0.840001 0 0 0.860001 0 0 0.880001 0 0 0.900001 0 0 0.920001 0 0 0.940001 0 0 0.960001 0 0 0.980001 0 0 1 0 0 9.99507e-07 3.14108e-08 0 0.174611 0.00548738 0 0.198372 0.00623409 0 0.220579 0.00693197 0 0.237576 0.00746612 0 0.250957 0.00788664 0 0.262779 0.00825815 0 0.272812 0.00857345 0 0.281826 0.00885673 0 0.289983 0.00911308 0 0.296697 0.00932407 0 0.3027 0.00951272 0 0.307967 0.00967826 0 0.312616 0.00982436 0 0.317012 0.0099625 0 0.321108 0.0100912 0 0.327358 0.0102876 0 0.340515 0.0107011 0 0.359827 0.011308 0 0.379813 0.0119361 0 0.399804 0.0125643 0 0.419794 0.0131926 0 0.439784 0.0138208 0 0.459774 0.014449 0 0.479764 0.0150772 0 0.499754 0.0157054 0 0.519744 0.0163336 0 0.539735 0.0169618 0 0.559725 0.0175901 0 0.579715 0.0182183 0 0.599705 0.0188465 0 0.619695 0.0194747 0 0.639685 0.0201029 0 0.659675 0.0207311 0 0.679665 0.0213593 0 0.699656 0.0219876 0 0.719646 0.0226158 0 0.739636 0.023244 0 0.759626 0.0238722 0 0.779616 0.0245004 0 0.799606 0.0251286 0 0.819596 0.0257569 0 0.839587 0.0263851 0 0.859577 0.0270133 0 0.879567 0.0276415 0 0.899557 0.0282697 0 0.919547 0.0288979 0 0.939537 0.0295261 0 0.959527 0.0301544 0 0.979517 0.0307826 0 0.999508 0.0314108 0 9.98027e-07 6.27905e-08 0 0.174353 0.0109693 0 0.198078 0.012462 0 0.220252 0.0138571 0 0.237224 0.0149249 0 0.250586 0.0157655 0 0.262389 0.0165081 0 0.272408 0.0171384 0 0.281408 0.0177047 0 0.289554 0.0182172 0 0.296257 0.0186389 0 0.302252 0.0190161 0 0.307511 0.019347 0 0.312153 0.019639 0 0.316543 0.0199152 0 0.320632 0.0201725 0 0.326873 0.0205651 0 0.340011 0.0213917 0 0.359295 0.0226049 0 0.379251 0.0238605 0 0.399212 0.0251163 0 0.419172 0.0263721 0 0.439133 0.0276279 0 0.459093 0.0288837 0 0.479054 0.0301395 0 0.499014 0.0313953 0 0.518975 0.0326511 0 0.538935 0.0339069 0 0.558896 0.0351628 0 0.578857 0.0364186 0 0.598817 0.0376744 0 0.618778 0.0389302 0 0.638738 0.040186 0 0.658699 0.0414418 0 0.678659 0.0426976 0 0.69862 0.0439534 0 0.71858 0.0452092 0 0.738541 0.046465 0 0.758501 0.0477209 0 0.778462 0.0489767 0 0.798422 0.0502325 0 0.818383 0.0514883 0 0.838343 0.0527441 0 0.858304 0.0539999 0 0.878265 0.0552557 0 0.898225 0.0565115 0 0.918186 0.0577673 0 0.938146 0.0590232 0 0.958107 0.060279 0 0.978067 0.0615348 0 0.998028 0.0627906 0 9.95562e-07 9.41083e-08 0 0.173922 0.0164405 0 0.197589 0.0186777 0 0.219708 0.0207686 0 0.236638 0.0223689 0 0.249967 0.0236288 0 0.261741 0.0247419 0 0.271735 0.0256865 0 0.280713 0.0265352 0 0.288838 0.0273033 0 0.295526 0.0279354 0 0.301505 0.0285006 0 0.306752 0.0289966 0 0.311383 0.0294343 0 0.315761 0.0298482 0 0.319841 0.0302338 0 0.326066 0.0308223 0 0.339171 0.0320611 0 0.358407 0.0338795 0 0.378315 0.0357613 0 0.398226 0.0376434 0 0.418137 0.0395256 0 0.438048 0.0414078 0 0.457959 0.0432899 0 0.477871 0.0451721 0 0.497782 0.0470543 0 0.517693 0.0489364 0 0.537604 0.0508186 0 0.557516 0.0527007 0 0.577427 0.0545829 0 0.597338 0.0564651 0 0.617249 0.0583472 0 0.637161 0.0602294 0 0.657072 0.0621116 0 0.676983 0.0639937 0 0.696894 0.0658759 0 0.716806 0.0677581 0 0.736717 0.0696402 0 0.756628 0.0715224 0 0.776539 0.0734046 0 0.796451 0.0752867 0 0.816362 0.0771689 0 0.836273 0.0790511 0 0.856184 0.0809332 0 0.876096 0.0828154 0 0.896007 0.0846976 0 0.915918 0.0865797 0 0.935829 0.0884619 0 0.95574 0.0903441 0 0.975652 0.0922262 0 0.995563 0.0941084 0 9.92115e-07 1.25333e-07 0 0.17332 0.0218954 0 0.196905 0.0248749 0 0.218948 0.0276595 0 0.235819 0.0297908 0 0.249101 0.0314688 0 0.260835 0.0329511 0 0.270794 0.0342092 0 0.279741 0.0353396 0 0.287838 0.0363624 0 0.294503 0.0372043 0 0.300461 0.0379571 0 0.30569 0.0386176 0 0.310304 0.0392006 0 0.314667 0.0397517 0 0.318733 0.0402653 0 0.324937 0.041049 0 0.337997 0.0426989 0 0.357166 0.0451206 0 0.377005 0.0476268 0 0.396847 0.0501334 0 0.416689 0.0526401 0 0.436531 0.0551467 0 0.456374 0.0576534 0 0.476216 0.0601601 0 0.496058 0.0626667 0 0.515901 0.0651734 0 0.535743 0.0676801 0 0.555585 0.0701867 0 0.575428 0.0726934 0 0.59527 0.0752001 0 0.615112 0.0777067 0 0.634954 0.0802134 0 0.654797 0.0827201 0 0.674639 0.0852267 0 0.694481 0.0877334 0 0.714324 0.0902401 0 0.734166 0.0927467 0 0.754008 0.0952534 0 0.77385 0.09776 0 0.793693 0.100267 0 0.813535 0.102773 0 0.833377 0.10528 0 0.85322 0.107787 0 0.873062 0.110293 0 0.892904 0.1128 0 0.912747 0.115307 0 0.932589 0.117813 0 0.952431 0.12032 0 0.972273 0.122827 0 0.992116 0.125333 0 9.87688e-07 1.56434e-07 0 0.172547 0.0273287 0 0.196026 0.0310475 0 0.217971 0.0345232 0 0.234767 0.0371834 0 0.24799 0.0392777 0 0.259671 0.0411279 0 0.269586 0.0426982 0 0.278493 0.044109 0 0.286554 0.0453857 0 0.293189 0.0464365 0 0.299121 0.047376 0 0.304326 0.0482005 0 0.30892 0.0489281 0 0.313264 0.0496161 0 0.317311 0.0502571 0 0.323487 0.0512353 0 0.336489 0.0532946 0 0.355573 0.0563172 0 0.375323 0.0594453 0 0.395076 0.0625739 0 0.41483 0.0657026 0 0.434584 0.0688313 0 0.454338 0.07196 0 0.474091 0.0750887 0 0.493845 0.0782174 0 0.513599 0.0813461 0 0.533353 0.0844748 0 0.553106 0.0876035 0 0.57286 0.0907321 0 0.592614 0.0938608 0 0.612368 0.0969895 0 0.632122 0.100118 0 0.651875 0.103247 0 0.671629 0.106376 0 0.691383 0.109504 0 0.711137 0.112633 0 0.73089 0.115762 0 0.750644 0.11889 0 0.770398 0.122019 0 0.790152 0.125148 0 0.809905 0.128276 0 0.829659 0.131405 0 0.849413 0.134534 0 0.869167 0.137662 0 0.88892 0.140791 0 0.908674 0.14392 0 0.928428 0.147049 0 0.948182 0.150177 0 0.967936 0.153306 0 0.987689 0.156435 0 9.82287e-07 1.87381e-07 0 0.171603 0.032735 0 0.194954 0.0371895 0 0.216779 0.0413528 0 0.233483 0.0445392 0 0.246634 0.0470479 0 0.258251 0.0492641 0 0.268112 0.051145 0 0.27697 0.0528349 0 0.284987 0.0543642 0 0.291585 0.0556229 0 0.297485 0.0567483 0 0.302662 0.0577358 0 0.307231 0.0586074 0 0.31155 0.0594314 0 0.315576 0.0601993 0 0.321718 0.061371 0 0.334649 0.0638377 0 0.353628 0.0674582 0 0.37327 0.0712051 0 0.392916 0.0749527 0 0.412562 0.0787003 0 0.432207 0.082448 0 0.451853 0.0861956 0 0.471499 0.0899432 0 0.491145 0.0936908 0 0.51079 0.0974385 0 0.530436 0.101186 0 0.550082 0.104934 0 0.569728 0.108681 0 0.589373 0.112429 0 0.609019 0.116177 0 0.628665 0.119924 0 0.648311 0.123672 0 0.667956 0.127419 0 0.687602 0.131167 0 0.707248 0.134915 0 0.726894 0.138662 0 0.746539 0.14241 0 0.766185 0.146158 0 0.785831 0.149905 0 0.805477 0.153653 0 0.825122 0.1574 0 0.844768 0.161148 0 0.864414 0.164896 0 0.88406 0.168643 0 0.903705 0.172391 0 0.923351 0.176139 0 0.942997 0.179886 0 0.962642 0.183634 0 0.982288 0.187382 0 9.75917e-07 2.18143e-07 0 0.17049 0.0381091 0 0.19369 0.0432949 0 0.215373 0.0481416 0 0.231969 0.0518511 0 0.245034 0.0547716 0 0.256577 0.0573517 0 0.266373 0.0595414 0 0.275174 0.0615087 0 0.283139 0.063289 0 0.289694 0.0647543 0 0.295556 0.0660645 0 0.300699 0.0672142 0 0.305238 0.0682288 0 0.30953 0.0691881 0 0.313529 0.0700821 0 0.319631 0.0714461 0 0.332479 0.0743178 0 0.351335 0.0785326 0 0.370849 0.0828946 0 0.390368 0.0872575 0 0.409886 0.0916204 0 0.429404 0.0959832 0 0.448923 0.100346 0 0.468441 0.104709 0 0.487959 0.109072 0 0.507478 0.113435 0 0.526996 0.117798 0 0.546514 0.12216 0 0.566033 0.126523 0 0.585551 0.130886 0 0.605069 0.135249 0 0.624588 0.139612 0 0.644106 0.143975 0 0.663624 0.148338 0 0.683143 0.1527 0 0.702661 0.157063 0 0.722179 0.161426 0 0.741698 0.165789 0 0.761216 0.170152 0 0.780734 0.174515 0 0.800253 0.178878 0 0.819771 0.183241 0 0.839289 0.187603 0 0.858808 0.191966 0 0.878326 0.196329 0 0.897844 0.200692 0 0.917363 0.205055 0 0.936881 0.209418 0 0.956399 0.213781 0 0.975918 0.218143 0 9.68583e-07 2.4869e-07 0 0.169209 0.0434455 0 0.192235 0.0493575 0 0.213755 0.0548828 0 0.230226 0.0591119 0 0.243193 0.0624413 0 0.254649 0.0653826 0 0.264371 0.067879 0 0.273106 0.0701218 0 0.281011 0.0721514 0 0.287517 0.0738219 0 0.293335 0.0753155 0 0.298439 0.0766262 0 0.302944 0.0777829 0 0.307204 0.0788766 0 0.311173 0.0798957 0 0.31723 0.0814507 0 0.32998 0.0847245 0 0.348695 0.0895296 0 0.368063 0.0945024 0 0.387434 0.0994762 0 0.406806 0.10445 0 0.426178 0.109424 0 0.445549 0.114398 0 0.464921 0.119371 0 0.484293 0.124345 0 0.503664 0.129319 0 0.523036 0.134293 0 0.542408 0.139267 0 0.561779 0.14424 0 0.581151 0.149214 0 0.600523 0.154188 0 0.619894 0.159162 0 0.639266 0.164136 0 0.658638 0.169109 0 0.678009 0.174083 0 0.697381 0.179057 0 0.716753 0.184031 0 0.736124 0.189005 0 0.755496 0.193978 0 0.774867 0.198952 0 0.794239 0.203926 0 0.813611 0.2089 0 0.832982 0.213874 0 0.852354 0.218847 0 0.871726 0.223821 0 0.891097 0.228795 0 0.910469 0.233769 0 0.929841 0.238743 0 0.949212 0.243716 0 0.968584 0.24869 0 9.60294e-07 2.78991e-07 0 0.167761 0.048739 0 0.190589 0.0553713 0 0.211925 0.0615699 0 0.228255 0.0663143 0 0.241111 0.0700494 0 0.252469 0.0733491 0 0.262109 0.0761496 0 0.270769 0.0786657 0 0.278606 0.0809426 0 0.285057 0.0828166 0 0.290824 0.0844922 0 0.295885 0.0859626 0 0.300352 0.0872602 0 0.304575 0.0884872 0 0.30851 0.0896304 0 0.314515 0.0913749 0 0.327156 0.0950476 0 0.34571 0.100438 0 0.364913 0.106017 0 0.384118 0.111597 0 0.403324 0.117177 0 0.42253 0.122756 0 0.441736 0.128336 0 0.460942 0.133916 0 0.480148 0.139496 0 0.499354 0.145076 0 0.51856 0.150655 0 0.537765 0.156235 0 0.556971 0.161815 0 0.576177 0.167395 0 0.595383 0.172975 0 0.614589 0.178555 0 0.633795 0.184134 0 0.653001 0.1
[...]
			<PointData Scalars="VitesseX">
				<DataArray Name="VitesseX" type="Float32" format="ascii">
 0 1.30404 1.83589 1.78662 2.21602 2.27398 2.36993 2.72393 2.62245 2.81898 2.81778 3.06117 3.09511 3.18201 3.18585 3.06204 2.26736 0.475228 0.00541785 3.70792e-07 2.84282e-12 2.24657e-17 0 0 0 0 0 0 0 0 0 0 0 0 0 0 0 0 0 0 0 0 0 0 0 0 0 0 0 0 0 0 1.30339 1.83498 1.78574 2.21493 2.27286 2.36876 2.72258 2.62116 2.81759 2.81639 3.05966 3.09359 3.18044 3.18427 3.06053 2.26625 0.474993 0.00541517 3.70609e-07 2.84142e-12 2.2013e-17 1.20037e-22 -1.14818e-22 1.10034e-22 0 0 0 0 0 0 0 0 0 1.55343e-22 0 -1.46712e-22 0 0 0 1.32041e-22 1.28821e-22 -1.25754e-22 -1.22829e-22 0 0 1.14818e-22 -1.12375e-22 0 2.15577e-22 0 0 1.30146 1.83226 1.7831 2.21165 2.26949 2.36525 2.71855 2.61727 2.81342 2.81222 3.05513 3.08901 3.17573 3.17956 3.056 2.26289 0.47429 0.00540715 3.7006e-07 2.83721e-12 2.37104e-17 0 -2.29637e-22 2.20068e-22 0 0 0 -1.8863e-22 0 0 0 0 0 0 -1.50904e-22 0 0 0 0 0 0 -1.25754e-22 0 0 0 1.14818e-22 -2.24751e-22 0 0 0 0 1.29825 1.82774 1.77869 2.20619 2.26389 2.35941 2.71184 2.61081 2.80647 2.80528 3.04758 3.08138 3.16789 3.17171 3.04845 2.2573 0.473119 0.0053938 3.69146e-07 2.8302e-12 2.45116e-17 0 0 0 -1.05633e-22 0 1.95616e-22 0 1.82126e-22 0 0 0 0 1.55343e-22 0 1.46712e-22 0 0 0 0 0 0 0 0 2.3474e-22 1.14818e-22 -1.12375e-22 0 0 0 0 1.29375 1.82141 1.77253 2.19855 2.25605 2.35124 2.70245 2.60177 2.79675 2.79556 3.03703 3.07071 3.15692 3.16072 3.0379 2.24949 0.47148 0.00537512 3.67868e-07 2.82042e-12 1.90855e-17 -1.20037e-22 1.14818e-22 -1.10034e-22 -1.05633e-22 0 -9.78082e-23 0 0 0 0 0 0 0 0 0 0 1.38991e-22 0 0 0 0 0 -1.20037e-22 1.1737e-22 -2.29637e-22 0 -1.10034e-22 -1.07789e-22 0 0 1.28798 1.81328 1.76463 2.18874 2.24598 2.34075 2.69039 2.59016 2.78428 2.78309 3.02348 3.05701 3.14284 3.14662 3.02434 2.23945 0.469377 0.00535114 3.66227e-07 2.80783e-12 2.75664e-17 -1.20037e-22 0 -1.10034e-22 0 1.0157e-22 -9.78082e-23 0 1.82126e-22 1.76055e-22 0 0 1.6005e-22 -1.55343e-22 -1.50904e-22 0 -1.42747e-22 -1.38991e-22 0 1.32041e-22 0 -1.25754e-22 0 0 1.1737e-22 0 2.24751e-22 -1.10034e-22 0 0 0 1.28094 1.80337 1.75498 2.17677 2.2337 2.32795 2.67568 2.576 2.76905 2.76787 3.00695 3.04029 3.12565 3.12942 3.0078 2.2272 0.46681 0.00532188 3.64224e-07 2.79245e-12 4.07992e-17 1.20037e-22 1.14818e-22 1.10034e-22 1.05633e-22 0 9.78082e-23 -9.43151e-23 -9.10628e-23 0 -1.70376e-22 0 0 1.55343e-22 0 0 0 1.38991e-22 0 0 0 1.25754e-22 0 -1.20037e-22 -1.1737e-22 0 2.24751e-22 -1.10034e-22 1.07789e-22 0 0 1.27263 1.79167 1.74359 2.16265 2.21921 2.31286 2.65832 2.55929 2.75109 2.74992 2.98745 3.02057 3.10538 3.10912 2.9883 2.21276 0.463783 0.00528737 3.61862e-07 2.77433e-12 5.20609e-17 -1.20037e-22 -1.14818e-22 0 -1.05633e-22 -1.0157e-22 -9.78082e-23 0 9.10628e-23 8.80274e-23 0 0 -1.6005e-22 0 -1.50904e-22 0 0 0 -1.35427e-22 0 0 -1.25754e-22 1.22829e-22 0 -1.1737e-22 -1.14818e-22 -1.12375e-22 0 0 0 0 1.26307 1.77821 1.73049 2.1464 2.20254 2.29548 2.63835 2.54006 2.73042 2.72926 2.965 2.99788 3.08204 3.08576 2.96584 2.19613 0.460298 0.00524763 3.59143e-07 2.75351e-12 5.14307e-17 0 -1.14818e-22 0 -1.05633e-22 1.0157e-22 9.78082e-23 -9.43151e-23 -9.10628e-23 -8.80274e-23 0 8.25257e-23 0 0 0 0 1.42747e-22 0 0 0 0 0 1.22829e-22 2.40075e-22 -1.1737e-22 0 0 0 1.07789e-22 0 0 1.25226 1.76299 1.71568 2.12803 2.18369 2.27583 2.61577 2.51832 2.70705 2.7059 2.93962 2.97222 3.05567 3.05935 2.94046 2.17734 0.456358 0.00520272 3.56069e-07 2.72994e-12 3.59613e-17 0 1.14818e-22 1.10034e-22 1.05633e-22 -1.0157e-22 9.78082e-23 9.43151e-23 9.10628e-23 0 -8.51878e-23 8.25257e-23 0 -1.55343e-22 0 0 1.42747e-22 -1.38991e-22 0 0 0 -2.51507e-22 -2.45658e-22 2.40075e-22 1.1737e-22 1.14818e-22 0 0 1.07789e-22 0 0 1.24021 1.74603 1.69918 2.10756 2.16268 2.25394 2.59061 2.4941 2.68101 2.67987 2.91135 2.94363 3.02627 3.02992 2.91217 2.15639 0.451968 0.00515268 3.52644e-07 2.70368e-12 3.50443e-17 -1.20037e-22 1.14818e-22 0 0 -1.0157e-22 0 0 0 8.80274e-23 -1.70376e-22 8.25257e-23 -8.00249e-23 0 0 0 0 0 1.35427e-22 -1.32041e-22 2.57641e-22 1.25754e-22 0 0 0 -1.14818e-22 -1.12375e-22 -1.10034e-22 1.07789e-22 0 0 1.22694 1.72735 1.681 2.08501 2.13954 2.22982 2.56289 2.46741 2.65233 2.6512 2.8802 2.91213 2.99389 2.9975 2.88102 2.13332 0.447133 0.00509755 3.48871e-07 2.67479e-12 3.62207e-17 6.00187e-23 0 1.10034e-22 -1.05633e-22 -1.0157e-22 0 -9.43151e-23 -1.82126e-22 8.80274e-23 -8.51878e-23 8.25257e-23 0 7.76713e-23 0 0 -1.42747e-22 1.38991e-22 1.35427e-22 -1.32041e-22 -1.28821e-22 -1.25754e-22 0 -1.20037e-22 1.1737e-22 1.14818e-22 -1.12375e-22 -1.10034e-22 2.15577e-22 0 0 1.21246 1.70696 1.66116 2.0604 2.11429 2.20351 2.53264 2.43829 2.62102 2.61991 2.8462 2.87776 2.95856 2.96212 2.84701 2.10814 0.441856 0.00503738 3.44753e-07 2.6432e-12 4.04058e-17 6.00187e-23 -2.87046e-22 0 -5.28164e-23 -1.0157e-22 9.78082e-23 0 0 8.80274e-23 0 0 0 -1.55343e-22 -7.54521e-23 -7.33562e-23 -7.13736e-23 1.38991e-22 -1.35427e-22 0 -1.28821e-22 0 1.22829e-22 -1.20037e-22 -1.1737e-22 -1.14818e-22 -1.12375e-22 -1.10034e-22 0 0 0 1.19678 1.68489 1.63968 2.03376 2.08695 2.17502 2.4999 2.40677 2.58713 2.58603 2.8094 2.84056 2.92031 2.92382 2.8102 2.08088 0.436143 0.00497225 3.40296e-07 2.60902e-12 5.57263e-17 0 1.72227e-22 1.10034e-22 -2.11266e-22 -5.0785e-23 0 9.43151e-23 0 -1.76055e-22 -8.51878e-23 -1.65051e-22 -1.6005e-22 0 1.50904e-22 7.33562e-23 -7.13736e-23 0 1.35427e-22 1.32041e-22 0 0 0 0 2.3474e-22 0 1.12375e-22 0 -1.07789e-22 0 0 1.17993 1.66116 1.61658 2.00512 2.05756 2.14438 2.46468 2.37286 2.55069 2.54961 2.76983 2.80054 2.87917 2.88264 2.77062 2.05157 0.429999 0.00490221 3.35502e-07 2.57225e-12 9.25373e-17 0 1.14818e-22 0 0 -1.0157e-22 1.95616e-22 9.43151e-23 1.82126e-22 1.76055e-22 -8.51878e-23 1.65051e-22 -8.00249e-23 -7.76713e-23 7.54521e-23 7.33562e-23 7.13736e-23 -6.94954e-23 -6.77134e-23 0 0 1.25754e-22 0 0 0 -1.14818e-22 0 1.10034e-22 -1.07789e-22 0 0 1.1619 1.63579 1.59189 1.97449 2.02613 2.11162 2.42704 2.33662 2.51173 2.51066 2.72752 2.75777 2.83519 2.83861 2.7283 2.02024 0.423431 0.00482734 3.30378e-07 2.53292e-12 8.18918e-17 -3.00093e-23 2.29637e-22 1.10034e-22 5.28164e-23 -5.0785e-23 -1.46712e-22 4.71575e-23 -1.36594e-22 8.80274e-23 -8.51878e-23 8.25257e-23 8.00249e-23 0 -2.26356e-22 0 0 0 0 -1.32041e-22 -6.44103e-23 0 1.22829e-22 0 0 1.14818e-22 0 1.10034e-22 1.07789e-22 0 0 1.14273 1.6088 1.56563 1.94191 1.9927 2.07679 2.38699 2.29807 2.47029 2.46924 2.68252 2.71227 2.78842 2.79178 2.68329 1.98691 0.416445 0.00474769 3.24927e-07 2.49117e-12 5.81522e-17 6.00187e-23 2.87046e-23 -1.10034e-22 5.28164e-23 1.0157e-22 9.78082e-23 0 0 -8.80274e-23 -1.70376e-22 -8.25257e-23 -1.6005e-22 7.76713e-23 0 7.33562e-23 1.42747e-22 2.08486e-22 1.35427e-22 6.60206e-23 1.28821e-22 -1.25754e-22 -1.22829e-22 6.00187e-23 -1.1737e-22 -1.14818e-22 0 0 -1.07789e-22 0 0 1.12244 1.58022 1.53782 1.90742 1.95731 2.0399 2.3446 2.25725 2.42642 2.42538 2.63488 2.66409 2.73889 2.74219 2.63563 1.95162 0.409049 0.00466337 3.19156e-07 2.44701e-12 5.51967e-17 9.0028e-23 5.74092e-23 -2.75086e-23 -7.92246e-23 -1.0157e-22 -1.46712e-22 -1.8863e-22 1.36594e-22 -4.40137e-23 1.27782e-22 1.23789e-22 8.00249e-23 7.76713e-23 0 -1.46712e-22 -1.42747e-22 0 -6.77134e-23 -6.60206e-23 1.93231e-22 6.28768e-23 0 0 0 1.14818e-22 1.12375e-22 1.10034e-22 -1.07789e-22 0 0 1.10103 1.55009 1.50849 1.87105 1.91998 2.001 2.29989 2.21421 2.38015 2.37913 2.58463 2.61329 2.68666 2.6899 2.58537 1.9144 0.401248 0.00457444 3.1307e-07 2.40031e-12 5.39669e-17 -7.50233e-23 1.43523e-22 8.25257e-23 2.11266e-22 -1.26963e-22 0 -4.71575e-23 1.36594e-22 0 -1.70376e-22 4.12629e-23 -1.6005e-22 7.76713e-23 0 1.46712e-22 2.14121e-22 -2.08486e-22 2.0314e-22 -1.98062e-22 1.28821e-22 -1.8863e-22 1.22829e-22 0 -1.1737e-22 -5.74092e-23 -5.61877e-23 0 -1.07789e-22 0 0 1.07854 1.51842 1.47768 1.83283 1.88076 1.96012 2.25291 2.16898 2.33153 2.33053 2.53183 2.55991 2.63178 2.63495 2.53256 1.87529 0.393052 0.00448099 3.06675e-07 2.35129e-12 4.2205e-17 -6.7521e-23 8.61137e-23 -1.78806e-22 -1.05633e-22 -1.0157e-22 -7.33562e-23 1.17894e-22 -4.55314e-23 -4.40137e-23 1.27782e-22 1.65051e-22 -2.40075e-22 3.88356e-23 3.7726e-23 0 -2.14121e-22 -6.94954e-23 -6.77134e-23 -6.60206e-23 1.28821e-22 -3.14384e-22 1.22829e-22 1.20037e-22 -1.1737e-22 5.74092e-23 -1.12375e-22 1.10034e-22 -1.07789e-22 0 0 1.05499 1.48526 1.44541 1.7928 1.83969 1.91731 2.2037 2.12161 2.28061 2.27963 2.47654 2.504 2.5743 2.5774 2.47724 1.83434 0.384467 0.00438313 2.99977e-07 2.29996e-12 7.40174e-17 -7.50233e-24 2.69105e-24 -3.43857e-23 -2.64082e-23 -1.26963e-23 1.46712e-22 -1.41473e-22 1.13829e-22 1.10034e-22 1.27782e-22 -8.25257e-23 1.6005e-22 -7.76713e-23 7.54521e-23 1.8339e-22 -7.13736e-23 -6.94954e-23 -6.77134e-23 6.60206e-23 2.57641e-22 0 -6.14145e-23 1.20037e-22 5.8685e-23 -1.14818e-22 -1.12375e-22 0 0 0 0 1.03039 1.45063 1.41171 1.751 1.7968 1.87261 2.15232 2.07214 2.22743 2.22649 2.4188 2.44562 2.51428 2.51731 2.41949 1.79157 0.375504 0.00428094 2.92983e-07 2.24621e-12 3.80117e-17 7.50233e-23 7.17614e-24 1.18631e-22 1.05633e-22 0 -9.78082e-23 4.71575e-23 -4.55314e-23 8.80274e-23 -2.1297e-22 0 8.00249e-23 3.88356e-23 0 3.66781e-23 3.56868e-23 -3.47477e-23 6.77134e-23 -1.32041e-22 -1.93231e-22 2.51507e-22 0 -1.80056e-22 0 0 -5.61877e-23 -1.10034e-22 -1.07789e-22 0 0 1.00478 1.41457 1.37662 1.70747 1.75213 1.82606 2.09882 2.02063 2.17206 2.17114 2.35867 2.38483 2.45178 2.45474 2.35934 1.74703 0.366169 0.00417452 2.857e-07 2.19045e-12 3.94049e-17 3.00093e-23 -1.57875e-22 6.87714e-23 -4.62144e-23 4.05437e-24 4.89041e-23 -9.43151e-23 9.10628e-23 -2.20069e-23 1.27782e-22 -6.18943e-23 -2.00062e-23 0 -1.13178e-22 3.66781e-23 1.0706e-22 -2.77981e-22 1.69284e-22 6.60206e-23 0 -1.25754e-22 6.14145e-23 1.20037e-22 1.76055e-22 -5.74092e-23 1.68563e-22 1.65052e-22 -5.38944e-23 0 0 0.978171 1.37712 1.34016 1.66226 1.70574 1.77771 2.04325 1.96713 2.11455 2.11365 2.29622 2.32168 2.38686 2.38974 2.29687 1.70078 0.356474 0.00406399 2.78135e-07 2.13242e-12 7.18137e-17 1.50047e-22 -2.87046e-22 -2.75086e-23 -1.32041e-23 -9.52219e-23 1.25317e-22 -5.59996e-23 1.08137e-22 -9.90308e-23 1.3843e-22 -2.06314e-23 8.00249e-23 0 1.69767e-22 7.33562e-23 7.13736e-23 -1.04243e-22 1.0157e-22 3.30103e-23 2.25436e-22 3.14384e-23 -1.22829e-22 -6.00187e-23 0 -1.72228e-22 -5.61877e-23 0 -5.38944e-23 0 0 0.950601 1.3383 1.30239 1.61541 1.65766 1.72761 1.98566 1.91168 2.05495 2.05408 2.2315 2.25624 2.31959 2.32238 2.23213 1.65284 0.346426 0.00394944 2.70296e-07 2.07232e-12 4.28651e-17 1.20037e-22 5.74092e-23 0 0 -3.80888e-23 1.10034e-22 -1.23789e-22 1.84971e-23 1.65051e-23 -2.66212e-23 -2.06314e-23 1.00031e-22 -9.70891e-23 -1.32041e-22 9.16952e-23 -5.35302e-23 -6.94954e-23 -6.77134e-23 -1.32041e-22 0 6.28768e-23 6.14145e-23 -6.00187e-23 0 0 -5.61877e-23 5.50172e-23 5.38944e-23 0 0 0.922092 1.29817 1.26333 1.56696 1.60795 1.67579 1.92611 1.85435 1.99332 1.99247 2.16457 2.18858 2.25002 2.25273 2.16519 1.60327 0.336037 0.00383099 2.62189e-07 2.01016e-12 3.39872e-17 6.00187e-23 -1.14818e-22 2.75086e-23 1.05633e-22 -2.0314e-22 1.71164e-22 7.07363e-23 1.47977e-22 -1.43045e-22 -1.19795e-23 -2.32104e-22 -4.00125e-23 -8.73802e-23 -1.32041e-22 -5.50171e-23 7.13736e-23 -1.56365e-22 -1.69284e-23 -2.31072e-22 -9.66155e-23 9.43151e-23 6.14145e-23 -6.00187e-23 0 5.74092e-23 -2.80939e-23 -5.50172e-23 1.07789e-22 0 0 0.892674 1.25675 1.22303 1.51697 1.55665 1.62233 1.86466 1.79519 1.92973 1.92891 2.09551 2.11875 2.17824 2.18086 2.09611 1.55212 0.325316 0.00370877 2.53824e-07 1.94607e-12 2.36474e-17 -1.80056e-22 5.74092e-23 -5.50171e-23 -1.84858e-22 7.61776e-23 -2.44521e-23 2.12209e-22 2.27657e-22 1.21038e-22 7.45393e-23 2.06314e-22 2.75086e-23 -1.33497e-22 1.74483e-22 -1.65051e-22 8.9217e-24 1.04243e-22 -6.77134e-23 9.90309e-23 6.44103e-23 3.14384e-23 -6.14145e-23 3.00094e-23 1.46712e-22 0 1.40469e-22 -1.65052e-22 1.34736e-22 0 0 0.862374 1.21409 1.18151 1.46548 1.50381 1.56726 1.80136 1.73426 1.86423 1.86343 2.02439 2.04684 2.1043 2.10684 2.02496 1.49943 0.314274 0.00358289 2.45209e-07 1.88002e-12 4.8286e-17 -1.80056e-22 1.14818e-22 5.50171e-23 5.28164e-23 -1.0157e-22 4.89041e-23 -9.43151e-23 -1.13829e-22 -2.20069e-23 1.06485e-22 -1.85683e-22 1.80056e-22 2.42723e-23 -4.24418e-23 -1.03157e-22 3.56868e-23 3.47477e-23 1.69284e-22 -2.97093e-22 -8.05129e-23 -7.85959e-23 1.6889e-22 -1.50047e-23 0 5.74092e-23 1.12375e-22 -2.20069e-22 2.15577e-22 0 0 0.831223 1.17024 1.13884 1.41254 1.44949 1.51065 1.7363 1.67161 1.79689 1.79612 1.95126 1.9729 2.02829 2.03073 1.95182 1.44527 0.302922 0.00345346 2.36352e-07 1.81206e-12 2.93647e-17 2.40075e-22 5.74092e-23 1.65051e-22 5.28164e-23 3.0471e-22 -9.78082e-23 4.71575e-23 -2.27657e-23 -1.76055e-22 1.27782e-22 8.25257e-23 2.00062e-22 1.06798e-22 -5.65891e-23 -2.75086e-22 1.5613e-23 1.46592e-23 -5.92492e-23 1.48546e-22 3.22052e-22 -1.25754e-22 -3.83841e-22 6.00187e-23 -7.33562e-23 -1.29171e-22 5.61877e-23 -1.10034e-22 0 0 0 0.799252 1.12523 1.09503 1.35821 1.39374 1.45255 1.66951 1.60732 1.72777 1.72704 1.87621 1.89702 1.95028 1.95263 1.87675 1.38968 0.29127 0.00332064 2.27261e-07 1.74241e-12 5.43671e-17 -1.20037e-22 0 1.65051e-22 -2.11266e-22 -1.52355e-22 -1.46712e-22 -9.43151e-23 9.10628e-23 -8.80274e-23 -4.25939e-23 -1.23789e-22 1.20037e-22 1.16507e-22 3.7726e-23 3.66781e-23 -4.46085e-23 -1.73738e-22 2.32765e-22 3.14629e-23 9.86283e-23 1.61122e-22 8.44449e-23 1.50047e-22 -2.05397e-22 -1.00466e-22 1.40469e-23 2.75086e-23 1.34736e-22 0 0 0.766493 1.07911 1.05015 1.30254 1.33661 1.39301 1.60108 1.54144 1.65696 1.65625 1.79931 1.81926 1.87034 1.87259 1.79982 1.33272 0.279332 0.00318453 2.17946e-07 1.67094e-12 6.83129e-17 -1.20037e-22 -2.29637e-22 1.10034e-22 1.58449e-22 5.0785e-23 0 -9.43151e-23 0 -2.64082e-22 -2.1297e-22 -8.25257e-23 -1.20037e-22 -9.70891e-23 7.54521e-23 3.66781e-23 3.56868e-23 2.77981e-22 -1.77748e-22 9.90309e-23 1.24795e-22 2.16139e-23 8.9243e-23 -7.50234e-24 1.87058e-22 -8.61138e-23 1.54516e-22 6.87715e-23 -1.34736e-22 0 0 0.732977 1.03192 1.00423 1.24559 1.27817 1.3321 1.53107 1.47404 1.5845 1.58383 1.72063 1.73971 1.78856 1.79071 1.72112 1.27445 0.267118 0.00304528 2.08416e-07 1.59786e-12 -9.01626e-20 0 3.44455e-22 0 -1.05633e-22 2.0314e-22 0 -4.71575e-23 4.55314e-23 4.40137e-23 1.27782e-22 -4.12629e-23 4.00125e-23 -7.76713e-23 -7.54521e-23 -2.38408e-22 -1.0706e-22 -5.21215e-23 -1.35427e-22 -1.48546e-22 -2.41539e-23 -2.20069e-22 2.61012e-22 -1.23789e-22 -1.65051e-23 3.49837e-23 1.33446e-22 2.26946e-22 1.01052e-22 0 0 0.698737 0.983716 0.95732 1.1874 1.21846 1.26987 1.45955 1.40518 1.51049 1.50984 1.64026 1.65845 1.70501 1.70706 1.64072 1.21491 0.25464 0.00290303 1.9868e-07 1.52338e-12 8.9829e-17 -1.20037e-22 -1.14818e-22 2.20068e-22 0 2.0314e-22 -1.95616e-22 1.41473e-22 4.55314e-23 2.20069e-22 4.25939e-23 0 -8.00249e-23 0 2.26356e-22 -1.10034e-22 -1.0706e-22 3.47477e-23 -3.38567e-23 -9.90309e-23 -8.05129e-23 1.8863e-22 -1.22829e-22 -5.25164e-23 -5.13494e-23 1.29171e-22 8.07699e-23 -1.37543e-22 -1.31999e-22 0 0 0.663808 0.934542 0.909464 1.12805 1.15755 1.20639 1.38659 1.33494 1.43498 1.43437 1.55826 1.57554 1.61978 1.62173 1.55871 1.15418 0.241911 0.00275791 1.88748e-07 1.44705e-12 2.4122e-17 2.40075e-22 -2.29637e-22 0 -1.05633e-22 1.0157e-22 -9.78082e-23 -9.43151e-23 0 0 0 -8.25257e-23 -4.00125e-23 -1.55343e-22 7.54521e-23 -1.10034e-22 -1.0706e-22 -6.94954e-23 1.0157e-22 3.30103e-23 -1.93231e-22 -2.82945e-22 -1.38183e-22 -6.00187e-23 -1.02699e-22 -1.43523e-22 1.12375e-22 7.56486e-23 -7.41048e-23 0 0 0.628224 0.884444 0.860711 1.06758 1.0955 1.14172 1.31226 1.26337 1.35806 1.35748 1.47473 1.49108 1.53295 1.53479 1.47515 1.09231 0.228943 0.00261007 1.7863e-07 1.36951e-12 1.40198e-17 -1.20037e-22 2.29637e-22 0 3.16899e-22 -2.0314e-22 9.78082e-23 -9.43151e-23 -1.82126e-22 0 0 0 0 0 -7.54521e-23 0 0 0 0 0 -3.22052e-23 1.57192e-22 -9.21218e-23 -9.00281e-23 -8.80275e-23 -8.61138e-23 -9.83286e-23 6.87715e-23 -1.4821e-22 0 0 0.59202 0.833474 0.811109 1.00605 1.03236 1.07593 1.23664 1.19057 1.27979 1.27925 1.38974 1.40515 1.4446 1.44634 1.39014 1.02936 0.215749 0.00245965 1.68336e-07 1.29058e-12 4.04578e-17 -1.20037e-22 3.44455e-22 1.10034e-22 2.11266e-22 2.0314e-22 9.78082e-23 9.43151e-23 0 0 0 8.25257e-23 1.6005e-22 1.55343e-22 -7.54521e-23 -1.8339e-22 -1.42747e-22 -6.94954e-23 -6.77134e-23 -6.60206e-23 -1.61026e-22 -6.28768e-23 -1.53536e-22 3.00094e-23 1.46712e-22 2.87046e-23 -2.80939e-23 6.87715e-23 0 0 0 0.555231 0.781682 0.760706 0.943536 0.968213 1.00907 1.15979 1.11658 1.20026 1.19975 1.30338 1.31784 1.35484 1.35647 1.30375 0.965397 0.202342 0.00230681 1.57875e-07 1.21041e-12 1.28822e-17 -1.20037e-22 2.29637e-22 0 2.11266e-22 -1.0157e-22 0 9.43151e-23 1.82126e-22 -1.76055e-22 -1.70376e-22 8.25257e-23 1.6005e-22 1.55343e-22 0 -7.33562e-23 1.42747e-22 -1.38991e-22 -2.0314e-22 -1.98062e-22 -9.66155e-23 -9.43151e-23 -2.14951e-22 -1.20037e-22 1.76055e-22 1.14818e-22 -2.52845e-22 -2.47577e-22 2.69472e-23 0 0 0.517895 0.729118 0.709553 0.880088 0.903106 0.941213 1.0818 1.0415 1.11955 1.11908 1.21574 1.22922 1.26373 1.26525 1.21608 0.900479 0.188736 0.00215169 1.47259e-07 1.12902e-12 3.23683e-18 -2.40075e-22 1.14818e-22 1.10034e-22 2.11266e-22 0 -9.78082e-23 -9.43151e-23 0 2.64082e-22 8.51878e-23 0 8.00249e-23 0 0 0 1.42747e-22 1.38991e-22 1.35427e-22 1.32041e-22 0 0 1.22829e-22 0 2.93425e-23 2.00932e-22 8.42816e-23 -8.25258e-23 -5.38944e-23 0 0 0.480047 0.675834 0.657699 0.815771 0.837107 0.87243 1.00274 0.965388 1.03774 1.0373 1.12689 1.13939 1.17138 1.17279 1.12721 0.834672 0.174943 0.00199444 1.36498e-07 1.0465e-12 2.31073e-17 0 1.14818e-22 -1.10034e-22 -1.05633e-22 1.0157e-22 0 -9.43151e-23 0 -8.80274e-23 0 -1.65051e-22 -8.00249e-23 -7.76713e-23 -1.50904e-22 -7.33562e-23 0 2.08486e-22 -6.77134e-23 6.60206e-23 1.93231e-22 -6.28768e-23 0 -6.00187e-23 -5.8685e-23 5.74092e-23 5.61877e-23 -5.50172e-23 -1.07789e-22 0 0 0.441726 0.621884 0.605196 0.75065 0.770283 0.802786 0.922697 0.888323 0.954896 0.95449 1.03693 1.04843 1.07787 1.07917 1.03723 0.768042 0.160978 0.00183523 1.25601e-07 9.62989e-13 1.52754e-17 1.20037e-22 -1.14818e-22 -1.10034e-22 0 2.0314e-22 1.95616e-22 -9.43151e-23 -1.82126e-22 -8.80274e-23 0 2.47577e-22 2.40075e-22 0 -1.50904e-22 -7.33562e-23 -7.13736e-23 2.08486e-22 -1.35427e-22 -6.60206e-23 -6.44103e-23 -1.25754e-22 0 0 0 1.14818e-22 1.12375e-22 -1.10034e-22 -1.61683e-22 0 0 0.402969 0.56732 0.552096 0.684788 0.702698 0.732349 0.841739 0.810381 0.871114 0.870743 0.945953 0.956443 0.983296 0.98448 0.946223 0.700654 0.146853 0.00167421 1.14581e-07 8.78478e-13 2.48711e-17 3.60112e-22 -2.29637e-22 0 1.05633e-22 1.0157e-22 0 -9.43151e-23 9.10628e-23 2.64082e-22 8.51878e-23 -1.65051e-22 -1.6005e-22 1.55343e-22 -2.26356e-22 -2.93425e-22 -1.42747e-22 -6.94954e-23 1.35427e-22 1.98062e-22 -1.28821e-22 1.25754e-22 -6.14145e-23 1.80056e-22 -1.1737e-22 -1.14818e-22 1.12375e-22 1.10034e-22 -2.15577e-22 0 0 0.363814 0.512196 0.498451 0.61825 0.63442 0.66119 0.759951 0.73164 0.786471 0.786136 0.854039 0.863509 0.887753 0.888823 0.854282 0.632574 0.132584 0.00151153 1.03448e-07 7.93116e-13 1.5975e-17 0 -4.59273e-22 -1.10034e-22 2.11266e-22 0 1.95616e-22 -2.82945e-22 9.10628e-23 -2.64082e-22 1.70376e-22 1.65051e-22 -2.40075e-22 7.76713e-23 1.50904e-22 1.46712e-22 1.42747e-22 6.94954e-23 -1.35427e-22 1.32041e-22 0 0 1.22829e-22 1.20037e-22 1.1737e-22 -1.72228e-22 5.61877e-23 1.10034e-22 0 0 0 0.3243 0.456566 0.444315 0.551102 0.565515 0.589378 0.677413 0.652177 0.701053 0.700754 0.761282 0.769724 0.791334 0.792288 0.761499 0.563871 0.118184 0.00134736 9.22122e-08 7.06962e-13 -7.42392e-18 -2.40075e-22 0 2.20068e-22 -2.11266e-22 -2.0314e-22 3.91233e-22 9.43151e-23 1.82126e-22 2.64082e-22 -1.70376e-22 -8.25257e-23 -8.00249e-23 -1.55343e-22 7.54521e-23 -7.33562e-23 -1.42747e-22 -6.94954e-23 -6.77134e-23 -6.60206e-23 -1.28821e-22 -6.28768e-23 -1.22829e-22 -1.20037e-22 0 -5.74092e-23 1.12375e-22 -5.50172e-23 5.38944e-23 0 0 0.284466 0.400486 0.389739 0.48341 0.496053 0.516985 0.594206 0.57207 0.614942 0.61468 0.667773 0.675178 0.694135 0.694971 0.667964 0.49461 0.103668 0.00118187 8.08857e-08 6.20144e-13 2.04564e-17 