<?xml version="1.0"?>
<VTKFile type="PolyData">
	<PolyData>
		<Piece NumberOfPoints="2601" NumberOfPolys="2500">
			<Points>
				<DataArray type="Float32" NumberOfComponents="3" format="ascii">
 1e-06 0 0 0.224082 0 0 0.253427 0 0 0.28284 0 0 0.304943 0 0 0.323828 0 0 0.33926 0 0 0.352767 0 0 0.36556 0 0 0.376833 0 0 0.386807 0 0 0.39606 0 0 0.404203 0 0 0.411591 0 0 0.418475 0 0 0.424835 0 0 0.430306 0 0 0.435532 0 0 0.44024 0 0 0.444661 0 0 0.448866 0 0 0.452751 0 0 0.457542 0 0 0.465663 0 0 0.48049 0 0 0.500004 0 0 0.520001 0 0 0.540001 0 0 0.560001 0 0 0.580001 0 0 0.600001 0 0 0.620001 0 0 0.640001 0 0 0.660001 0 0 0.680001 0 0 0.700001 0 0 0.720001 0 0 0.740001 0 0 0.760001 0 0 0.780001 0 0 0.800001 0 0 0.820001 0 0 0.840001 0 0 0.860001 0 0 0.880001 0 0 0.900001 0 0 0.920001 0 0 0.940001 0 0 0.960001 0 0 0.980001 0 0 1 0 0 9.99507e-07 3.14108e-08 0 0.223971 0.00703858 0 0.253302 0.00796035 0 0.282701 0.00888423 0 0.304793 0.0095785 0 0.323668 0.0101717 0 0.339093 0.0106564 0 0.352593 0.0110807 0 0.365379 0.0114825 0 0.376647 0.0118366 0 0.386616 0.0121499 0 0.395865 0.0124406 0 0.404003 0.0126963 0 0.411388 0.0129284 0 0.418269 0.0131446 0 0.424626 0.0133444 0 0.430094 0.0135162 0 0.435317 0.0136804 0 0.440023 0.0138283 0 0.444442 0.0139672 0 0.448644 0.0140992 0 0.452528 0.0142213 0 0.457316 0.0143717 0 0.465433 0.0146268 0 0.480253 0.0150926 0 0.499757 0.0157055 0 0.519744 0.0163336 0 0.539735 0.0169618 0 0.559725 0.0175901 0 0.579715 0.0182183 0 0.599705 0.0188465 0 0.619695 0.0194747 0 0.639685 0.0201029 0 0.659675 0.0207311 0 0.679665 0.0213593 0 0.699656 0.0219876 0 0.719646 0.0226158 0 0.739636 0.023244 0 0.759626 0.0238722 0 0.779616 0.0245004 0 0.799606 0.0251286 0 0.819596 0.0257569 0 0.839587 0.0263851 0 0.859577 0.0270133 0 0.879567 0.0276415 0 0.899557 0.0282697 0 0.919547 0.0288979 0 0.939537 0.0295261 0 0.959527 0.0301544 0 0.979517 0.0307826 0 0.999508 0.0314108 0 9.98027e-07 6.27905e-08 0 0.22364 0.0140702 0 0.252927 0.0159128 0 0.282282 0.0177597 0 0.304342 0.0191475 0 0.323189 0.0203333 0 0.338591 0.0213023 0 0.35207 0.0221504 0 0.364838 0.0229537 0 0.37609 0.0236615 0 0.386044 0.0242878 0 0.395279 0.0248688 0 0.403405 0.0253801 0 0.410779 0.025844 0 0.41765 0.0262763 0 0.423997 0.0266756 0 0.429457 0.0270191 0 0.434673 0.0273473 0 0.439371 0.0276429 0 0.443784 0.0279205 0 0.44798 0.0281845 0 0.451858 0.0284285 0 0.456639 0.0287293 0 0.464744 0.0292392 0 0.479542 0.0301702 0 0.499017 0.0313955 0 0.518975 0.0326511 0 0.538935 0.0339069 0 0.558896 0.0351628 0 0.578857 0.0364186 0 0.598817 0.0376744 0 0.618778 0.0389302 0 0.638738 0.040186 0 0.658699 0.0414418 0 0.678659 0.0426976 0 0.69862 0.0439534 0 0.71858 0.0452092 0 0.738541 0.046465 0 0.758501 0.0477209 0 0.778462 0.0489767 0 0.798422 0.0502325 0 0.818383 0.0514883 0 0.838343 0.0527441 0 0.858304 0.0539999 0 0.878265 0.0552557 0 0.898225 0.0565115 0 0.918186 0.0577673 0 0.938146 0.0590232 0 0.958107 0.060279 0 0.978067 0.0615348 0 0.998028 0.0627906 0 9.95562e-07 9.41083e-08 0 0.223087 0.021088 0 0.252303 0.0238496 0 0.281585 0.0266176 0 0.30359 0.0286977 0 0.322391 0.0304749 0 0.337755 0.0319272 0 0.351201 0.0331983 0 0.363937 0.0344022 0 0.375161 0.0354631 0 0.385091 0.0364018 0 0.394303 0.0372726 0 0.402409 0.0380389 0 0.409764 0.0387341 0 0.416618 0.039382 0 0.42295 0.0399805 0 0.428396 0.0404954 0 0.433599 0.0409872 0 0.438286 0.0414302 0 0.442688 0.0418463 0 0.446874 0.042242 0 0.450742 0.0426077 0 0.455511 0.0430585 0 0.463597 0.0438228 0 0.478357 0.0452181 0 0.497785 0.0470545 0 0.517693 0.0489364 0 0.537604 0.0508186 0 0.557516 0.0527007 0 0.577427 0.0545829 0 0.597338 0.0564651 0 0.617249 0.0583472 0 0.637161 0.0602294 0 0.657072 0.0621116 0 0.676983 0.0639937 0 0.696894 0.0658759 0 0.716806 0.0677581 0 0.736717 0.0696402 0 0.756628 0.0715224 0 0.776539 0.0734046 0 0.796451 0.0752867 0 0.816362 0.0771689 0 0.836273 0.0790511 0 0.856184 0.0809332 0 0.876096 0.0828154 0 0.896007 0.0846976 0 0.915918 0.0865797 0 0.935829 0.0884619 0 0.95574 0.0903441 0 0.975652 0.0922262 0 0.995563 0.0941084 0 9.92115e-07 1.25333e-07 0 0.222315 0.0280849 0 0.251429 0.0317629 0 0.28061 0.0354493 0 0.302539 0.0382195 0 0.321274 0.0405864 0 0.336585 0.0425206 0 0.349985 0.0442134 0 0.362677 0.0458168 0 0.373862 0.0472297 0 0.383757 0.0484798 0 0.392937 0.0496395 0 0.401016 0.0506601 0 0.408346 0.051586 0 0.415176 0.0524489 0 0.421485 0.053246 0 0.426913 0.0539317 0 0.432098 0.0545866 0 0.436768 0.0551767 0 0.441155 0.0557308 0 0.445326 0.0562578 0 0.449181 0.0567448 0 0.453934 0.0573452 0 0.461991 0.0583631 0 0.476701 0.0602214 0 0.496061 0.0626671 0 0.515901 0.0651734 0 0.535743 0.0676801 0 0.555585 0.0701867 0 0.575428 0.0726934 0 0.59527 0.0752001 0 0.615112 0.0777067 0 0.634954 0.0802134 0 0.654797 0.0827201 0 0.674639 0.0852267 0 0.694481 0.0877334 0 0.714324 0.0902401 0 0.734166 0.0927467 0 0.754008 0.0952534 0 0.77385 0.09776 0 0.793693 0.100267 0 0.813535 0.102773 0 0.833377 0.10528 0 0.85322 0.107787 0 0.873062 0.110293 0 0.892904 0.1128 0 0.912747 0.115307 0 0.932589 0.117813 0 0.952431 0.12032 0 0.972273 0.122827 0 0.992116 0.125333 0 9.87688e-07 1.56434e-07 0 0.221323 0.0350541 0 0.250307 0.0396448 0 0.279358 0.044246 0 0.301189 0.0477036 0 0.319841 0.0506578 0 0.335083 0.053072 0 0.348423 0.0551849 0 0.361059 0.0571862 0 0.372194 0.0589497 0 0.382045 0.06051 0 0.391184 0.0619575 0 0.399226 0.0632313 0 0.406524 0.064387 0 0.413323 0.065464 0 0.419605 0.0664589 0 0.425008 0.0673147 0 0.43017 0.0681322 0 0.43482 0.0688687 0 0.439187 0.0695604 0 0.443339 0.0702181 0 0.447177 0.0708259 0 0.451909 0.0715753 0 0.45993 0.0728458 0 0.474574 0.0751652 0 0.493848 0.0782178 0 0.513599 0.0813461 0 0.533353 0.0844748 0 0.553106 0.0876035 0 0.57286 0.0907321 0 0.592614 0.0938608 0 0.612368 0.0969895 0 0.632122 0.100118 0 0.651875 0.103247 0 0.671629 0.106376 0 0.691383 0.109504 0 0.711137 0.112633 0 0.73089 0.115762 0 0.750644 0.11889 0 0.770398 0.122019 0 0.790152 0.125148 0 0.809905 0.128276 0 0.829659 0.131405 0 0.849413 0.134534 0 0.869167 0.137662 0 0.88892 0.140791 0 0.908674 0.14392 0 0.928428 0.147049 0 0.948182 0.150177 0 0.967936 0.153306 0 0.987689 0.156435 0 9.82287e-07 1.87381e-07 0 0.220113 0.0419888 0 0.248939 0.0474876 0 0.27783 0.052999 0 0.299542 0.0571407 0 0.318092 0.0606793 0 0.333251 0.063571 0 0.346518 0.0661019 0 0.359085 0.0684991 0 0.370158 0.0706115 0 0.379956 0.0724805 0 0.389045 0.0742143 0 0.397043 0.0757401 0 0.404301 0.0771245 0 0.411063 0.0784145 0 0.41731 0.0796062 0 0.422684 0.0806313 0 0.427818 0.0816106 0 0.432442 0.0824927 0 0.436785 0.0833212 0 0.440915 0.084109 0 0.444732 0.0848372 0 0.449438 0.0857348 0 0.457415 0.0872566 0 0.471979 0.0900348 0 0.491147 0.0936914 0 0.51079 0.0974385 0 0.530436 0.101186 0 0.550082 0.104934 0 0.569728 0.108681 0 0.589373 0.112429 0 0.609019 0.116177 0 0.628665 0.119924 0 0.648311 0.123672 0 0.667956 0.127419 0 0.687602 0.131167 0 0.707248 0.134915 0 0.726894 0.138662 0 0.746539 0.14241 0 0.766185 0.146158 0 0.785831 0.149905 0 0.805477 0.153653 0 0.825122 0.1574 0 0.844768 0.161148 0 0.864414 0.164896 0 0.88406 0.168643 0 0.903705 0.172391 0 0.923351 0.176139 0 0.942997 0.179886 0 0.962642 0.183634 0 0.982288 0.187382 0 9.75917e-07 2.18143e-07 0 0.218685 0.0488819 0 0.247324 0.0552835 0 0.276028 0.0616997 0 0.297599 0.0665213 0 0.316029 0.0706408 0 0.33109 0.0740073 0 0.344271 0.0769536 0 0.356756 0.0797444 0 0.367758 0.0822036 0 0.377492 0.0843794 0 0.386522 0.0863979 0 0.394468 0.0881741 0 0.401679 0.0897858 0 0.408397 0.0912876 0 0.414604 0.0926749 0 0.419943 0.0938684 0 0.425043 0.0950084 0 0.429637 0.0960354 0 0.433952 0.0969999 0 0.438056 0.097917 0 0.441848 0.0987647 0 0.446523 0.0998097 0 0.454449 0.101581 0 0.468918 0.104816 0 0.487962 0.109072 0 0.507478 0.113435 0 0.526996 0.117798 0 0.546514 0.12216 0 0.566033 0.126523 0 0.585551 0.130886 0 0.605069 0.135249 0 0.624588 0.139612 0 0.644106 0.143975 0 0.663624 0.148338 0 0.683143 0.1527 0 0.702661 0.157063 0 0.722179 0.161426 0 0.741698 0.165789 0 0.761216 0.170152 0 0.780734 0.174515 0 0.800253 0.178878 0 0.819771 0.183241 0 0.839289 0.187603 0 0.858808 0.191966 0 0.878326 0.196329 0 0.897844 0.200692 0 0.917363 0.205055 0 0.936881 0.209418 0 0.956399 0.213781 0 0.975918 0.218143 0 9.68583e-07 2.4869e-07 0 0.217042 0.0557269 0 0.245466 0.0630249 0 0.273954 0.0703395 0 0.295363 0.0758363 0 0.313654 0.0805327 0 0.328602 0.0843706 0 0.341684 0.0877295 0 0.354075 0.090911 0 0.364994 0.0937146 0 0.374655 0.0961951 0 0.383617 0.0984962 0 0.391504 0.100521 0 0.39866 0.102359 0 0.405328 0.104071 0 0.411488 0.105652 0 0.416787 0.107013 0 0.421849 0.108312 0 0.426409 0.109483 0 0.430692 0.110583 0 0.434764 0.111628 0 0.438527 0.112595 0 0.443168 0.113786 0 0.451034 0.115806 0 0.465394 0.119493 0 0.484295 0.124346 0 0.503664 0.129319 0 0.523036 0.134293 0 0.542408 0.139267 0 0.561779 0.14424 0 0.581151 0.149214 0 0.600523 0.154188 0 0.619894 0.159162 0 0.639266 0.164136 0 0.658638 0.169109 0 0.678009 0.174083 0 0.697381 0.179057 0 0.716753 0.184031 0 0.736124 0.189005 0 0.755496 0.193978 0 0.774867 0.198952 0 0.794239 0.203926 0 0.813611 0.2089 0 0.832982 0.213874 0 0.852354 0.218847 0 0.871726 0.223821 0 0.891097 0.228795 0 0.910469 0.233769 0 0.929841 0.238743 0 0.949212 0.243716 0 0.968584 0.24869 0 9.60294e-07 2.78991e-07 0 0.215184 0.0625168 0 0.243365 0.070704 0 0.27161 0.0789099 0 0.292835 0.0850765 0 0.31097 0.0903451 0 0.325789 0.0946506 0 0.33876 0.0984187 0 0.351045 0.101988 0 0.361871 0.105133 0 0.371449 0.107916 0 0.380334 0.110497 0 0.388153 0.112769 0 0.395248 0.11483 0 0.401859 0.116751 0 0.407967 0.118525 0 0.41322 0.120052 0 0.418239 0.12151 0 0.42276 0.122823 0 0.427006 0.124057 0 0.431043 0.12523 0 0.434774 0.126314 0 0.439375 0.12765 0 0.447174 0.129916 0 0.461411 0.134052 0 0.480151 0.139497 0 0.499354 0.145076 0 0.51856 0.150655 0 0.537765 0.156235 0 0.556971 0.161815 0 0.576177 0.167395 0 0.595383 0.172975 0 0.614589 0.178555 0 0.633795 0.184134 0 0.653001 0.189714 0 0.672207 0.195294 0 0.691412 0.2
[...]
			<PointData Scalars="VitesseX">
				<DataArray Name="VitesseX" type="Float32" format="ascii">
 0 1.10554 1.05493 1.32125 1.35161 1.44641 1.54473 1.53919 1.65722 1.75945 1.78164 1.8087 1.99253 1.98274 2.01897 2.06888 2.12823 2.19516 2.20518 2.247 2.27367 2.24723 1.98859 1.28393 0.241871 0.0027499 2.14381e-07 2.95074e-12 3.45711e-17 0 0 0 0 0 0 0 0 0 0 0 0 0 0 0 0 0 0 0 0 0 0 0 1.105 1.05441 1.3206 1.35094 1.4457 1.54397 1.53843 1.6564 1.75858 1.78076 1.80781 1.99154 1.98176 2.01798 2.06786 2.12718 2.19408 2.20409 2.24589 2.27255 2.24612 1.98761 1.28329 0.241751 0.00274854 2.14275e-07 2.94928e-12 3.66396e-17 0 0 0 0 0 3.11151e-22 0 -2.93865e-22 0 0 0 2.64478e-22 2.58028e-22 -2.51884e-22 -2.46026e-22 0 0 2.29981e-22 -2.25088e-22 0 4.31801e-22 0 0 1.10336 1.05285 1.31864 1.34894 1.44355 1.54168 1.53615 1.65395 1.75597 1.77812 1.80513 1.9886 1.97882 2.01499 2.0648 2.12403 2.19083 2.20082 2.24256 2.26919 2.24279 1.98467 1.28139 0.241393 0.00274447 2.13958e-07 2.94491e-12 3.40885e-17 0 0 0 0 0 0 -3.02261e-22 0 0 0 0 0 0 -2.51884e-22 0 0 0 2.29981e-22 -4.50176e-22 0 0 0 0 1.10063 1.05025 1.31539 1.34561 1.43999 1.53787 1.53235 1.64986 1.75164 1.77373 1.80067 1.98369 1.97394 2.01001 2.0597 2.11878 2.18542 2.19539 2.23703 2.26358 2.23726 1.97976 1.27823 0.240797 0.00273769 2.13429e-07 2.93765e-12 2.41763e-17 3.64797e-22 0 0 0 0 3.11151e-22 0 2.93865e-22 0 0 0 0 0 0 0 0 4.70184e-22 2.29981e-22 -2.25088e-22 0 0 0 0 1.09682 1.04661 1.31083 1.34095 1.435 1.53255 1.52705 1.64415 1.74557 1.76759 1.79444 1.97682 1.9671 2.00305 2.05257 2.11145 2.17786 2.18779 2.22928 2.25575 2.22951 1.97291 1.2738 0.239963 0.00272821 2.1269e-07 2.92747e-12 1.44979e-17 0 0 0 0 0 0 0 0 0 2.78398e-22 0 0 0 0 0 -2.40435e-22 2.35092e-22 -4.59962e-22 0 -2.20399e-22 -2.15901e-22 0 0 1.09193 1.04194 1.30498 1.33497 1.4286 1.52571 1.52024 1.63682 1.73778 1.7597 1.78643 1.968 1.95833 1.99412 2.04341 2.10203 2.16814 2.17803 2.21933 2.24568 2.21956 1.96411 1.26812 0.238893 0.00271604 2.11741e-07 2.9144e-12 4.3968e-18 3.64797e-22 3.52638e-22 0 0 3.2058e-22 -3.11151e-22 -3.02261e-22 0 -2.85922e-22 -2.78398e-22 0 2.64478e-22 0 -2.51884e-22 0 0 2.35092e-22 0 4.50176e-22 -2.20399e-22 0 0 0 1.08596 1.03625 1.29785 1.32767 1.42079 1.51737 1.51192 1.62787 1.72828 1.75008 1.77666 1.95723 1.94762 1.98321 2.03223 2.09053 2.15628 2.16612 2.2072 2.2334 2.20742 1.95337 1.26119 0.237587 0.00270119 2.10583e-07 2.89848e-12 -3.32192e-18 -1.82399e-22 0 -3.41262e-22 0 0 3.11151e-22 0 0 0 2.78398e-22 0 0 0 2.51884e-22 0 -2.40435e-22 -2.35092e-22 0 4.50176e-22 -2.20399e-22 2.15901e-22 0 0 1.07892 1.02952 1.28943 1.31906 1.41157 1.50753 1.50212 1.61731 1.71707 1.73873 1.76514 1.94454 1.93499 1.97035 2.01905 2.07698 2.1423 2.15207 2.19288 2.21892 2.19311 1.9407 1.25301 0.236046 0.00268367 2.09218e-07 2.87967e-12 4.70125e-18 1.82399e-22 1.76319e-22 0 0 -3.2058e-22 0 -3.02261e-22 0 0 0 -2.7126e-22 0 0 -2.51884e-22 2.46026e-22 0 -2.35092e-22 -2.29981e-22 -2.25088e-22 0 0 0 0 1.07081 1.02179 1.27974 1.30915 1.40097 1.4962 1.49083 1.60515 1.70417 1.72566 1.75188 1.92993 1.92044 1.95555 2.00388 2.06137 2.1262 2.1359 2.17641 2.20224 2.17663 1.92612 1.24359 0.234272 0.0026635 2.07646e-07 2.85804e-12 3.79404e-18 -1.82399e-22 -1.76319e-22 0 1.65299e-22 0 0 0 0 2.85922e-22 0 0 0 0 0 2.46026e-22 4.8087e-22 -2.35092e-22 0 0 0 2.15901e-22 0 0 1.06164 1.01304 1.26879 1.29794 1.38898 1.48339 1.47807 1.59142 1.68958 1.71089 1.73688 1.91341 1.90401 1.93881 1.98673 2.04373 2.108 2.11762 2.15778 2.18339 2.158 1.90963 1.23295 0.232267 0.00264071 2.05868e-07 2.8336e-12 -6.99499e-18 1.82399e-22 0 -1.70631e-22 1.65299e-22 0 -3.11151e-22 0 0 2.85922e-22 -2.78398e-22 0 0 0 -5.03768e-22 -4.92053e-22 4.8087e-22 2.35092e-22 2.29981e-22 0 0 2.15901e-22 0 0 1.05143 1.0033 1.25658 1.28546 1.37562 1.46912 1.46385 1.57611 1.67333 1.69444 1.72017 1.89501 1.88569 1.92016 1.96762 2.02407 2.08773 2.09725 2.13702 2.16239 2.13724 1.89126 1.22109 0.230033 0.00261531 2.03888e-07 2.80627e-12 -3.32031e-18 0 1.76319e-22 -3.41262e-22 1.65299e-22 -1.6029e-22 0 0 0 0 0 2.7126e-22 -2.64478e-22 5.16055e-22 2.51884e-22 0 0 0 -2.29981e-22 -2.25088e-22 -2.20399e-22 2.15901e-22 0 0 1.04018 0.992564 1.24314 1.2717 1.3609 1.45341 1.44819 1.55925 1.65543 1.67631 1.70177 1.87473 1.86552 1.89961 1.94657 2.00241 2.06539 2.07481 2.11416 2.13926 2.11437 1.87103 1.20802 0.227571 0.00258732 2.01707e-07 2.77617e-12 -1.46775e-17 -3.64797e-22 1.76319e-22 -1.70631e-22 1.65299e-22 0 1.55575e-22 0 0 -2.85922e-22 2.78398e-22 2.7126e-22 -2.64478e-22 -2.58028e-22 -2.51884e-22 0 -2.40435e-22 2.35092e-22 2.29981e-22 -2.25088e-22 -2.20399e-22 4.31801e-22 0 0 1.02791 0.98085 1.22847 1.25669 1.34484 1.43625 1.4311 1.54084 1.63589 1.65652 1.68169 1.85261 1.8435 1.8772 1.9236 1.97878 2.04101 2.05032 2.08921 2.11401 2.08942 1.84894 1.19377 0.224886 0.00255679 1.99326e-07 2.74351e-12 -5.74573e-18 0 1.76319e-22 0 0 0 -3.11151e-22 -1.5113e-22 -1.46932e-22 -1.42961e-22 2.78398e-22 -2.7126e-22 0 -2.58028e-22 0 2.46026e-22 -2.40435e-22 -2.35092e-22 -2.29981e-22 -2.25088e-22 -2.20399e-22 0 0 0 1.01462 0.968168 1.21258 1.24044 1.32745 1.41768 1.41259 1.52092 1.61474 1.6351 1.65994 1.82865 1.81967 1.85292 1.89872 1.95319 2.01462 2.02381 2.06219 2.08667 2.0624 1.82504 1.17833 0.221978 0.00252373 1.96749e-07 2.70804e-12 7.57915e-18 0 -3.52638e-22 -1.70631e-22 -3.30598e-22 -3.2058e-22 0 3.02261e-22 1.46932e-22 -1.42961e-22 0 2.7126e-22 2.64478e-22 0 0 0 0 4.70184e-22 0 2.25088e-22 0 -2.15901e-22 0 0 1.00032 0.95453 1.1955 1.22297 1.30875 1.39771 1.3927 1.4995 1.59199 1.61207 1.63656 1.80289 1.79403 1.82682 1.87198 1.92568 1.98624 1.9953 2.03315 2.05728 2.03335 1.79933 1.16173 0.218851 0.00248818 1.93977e-07 2.66987e-12 1.7659e-17 3.64797e-22 3.52638e-22 -1.70631e-22 3.30598e-22 -1.6029e-22 -1.55575e-22 1.5113e-22 1.46932e-22 1.42961e-22 -1.39199e-22 -1.3563e-22 0 0 2.51884e-22 0 0 0 -2.29981e-22 0 2.20399e-22 -2.15901e-22 0 0 0.985044 0.93995 1.17724 1.20429 1.28876 1.37636 1.37142 1.47659 1.56768 1.58745 1.61156 1.77536 1.76663 1.79892 1.84338 1.89627 1.95591 1.96483 2.00209 2.02586 2.0023 1.77185 1.14399 0.215508 0.00245018 1.91015e-07 2.62906e-12 1.96191e-17 -2.73598e-22 1.76319e-22 -1.70631e-22 1.65299e-22 1.6029e-22 0 -4.53391e-22 0 0 0 0 -2.64478e-22 -1.29014e-22 0 2.46026e-22 0 0 2.29981e-22 0 2.20399e-22 2.15901e-22 0 0 0.968793 0.924443 1.15782 1.18442 1.2675 1.35366 1.3488 1.45223 1.54181 1.56126 1.58497 1.74607 1.73748 1.76924 1.81297 1.86498 1.92364 1.93241 1.96906 1.99244 1.96926 1.74261 1.12511 0.211953 0.00240975 1.87863e-07 2.58569e-12 3.69724e-18 0 -1.76319e-22 -3.41262e-22 -1.65299e-22 -3.2058e-22 1.55575e-22 0 1.46932e-22 2.85922e-22 4.17597e-22 2.7126e-22 1.32239e-22 2.58028e-22 -2.51884e-22 -2.46026e-22 1.20217e-22 -2.35092e-22 -2.29981e-22 0 0 -2.15901e-22 0 0 0.951585 0.908023 1.13726 1.16339 1.24499 1.32961 1.32484 1.42644 1.51443 1.53353 1.55682 1.71505 1.70662 1.73782 1.78077 1.83186 1.88947 1.89809 1.93409 1.95705 1.93428 1.71166 1.10513 0.208188 0.00236695 1.84527e-07 2.53977e-12 -3.16459e-17 2.73598e-22 -8.81594e-23 2.55947e-22 2.47948e-22 1.6029e-22 1.55575e-22 0 -2.93865e-22 -2.85922e-22 0 -1.3563e-22 -1.32239e-22 3.87041e-22 1.25942e-22 0 0 0 2.29981e-22 2.25088e-22 2.20399e-22 -2.15901e-22 0 0 0.933439 0.890708 1.11557 1.1412 1.22124 1.30426 1.29958 1.39924 1.48555 1.50428 1.52713 1.68235 1.67408 1.70468 1.74681 1.79692 1.85344 1.86189 1.8972 1.91973 1.8974 1.67902 1.08406 0.204218 0.00232181 1.81008e-07 2.49131e-12 -3.73348e-17 2.73598e-22 0 -3.41262e-22 8.26494e-23 -3.2058e-22 1.55575e-22 0 2.93865e-22 4.28884e-22 -4.17597e-22 4.0689e-22 -3.96717e-22 2.58028e-22 -3.77826e-22 2.46026e-22 0 -2.35092e-22 -1.14991e-22 -1.12544e-22 0 -2.15901e-22 0 0 0.914371 0.872513 1.09278 1.11789 1.1963 1.27762 1.27303 1.37065 1.4552 1.47356 1.49594 1.64798 1.63988 1.66985 1.71113 1.76022 1.81558 1.82386 1.85845 1.88051 1.85864 1.64472 1.06191 0.200047 0.00227439 1.7731e-07 2.44048e-12 -6.87904e-17 -9.11994e-23 -8.81594e-23 2.55947e-22 3.30598e-22 -4.80869e-22 7.77877e-23 7.55652e-23 0 -4.28884e-22 -1.39199e-22 -1.3563e-22 -1.32239e-22 2.58028e-22 -6.2971e-22 2.46026e-22 2.40435e-22 -2.35092e-22 1.14991e-22 -2.25088e-22 2.20399e-22 -2.15901e-22 0 0 0.894401 0.853457 1.06891 1.09347 1.17017 1.24971 1.24523 1.34072 1.42342 1.44137 1.46327 1.61199 1.60407 1.63338 1.67376 1.72177 1.77593 1.78402 1.81786 1.83944 1.81805 1.6088 1.03872 0.195678 0.00222471 1.73438e-07 2.38709e-12 -2.28537e-17 2.27998e-22 2.20398e-22 2.55947e-22 -1.65299e-22 3.2058e-22 -1.55575e-22 1.5113e-22 3.67331e-22 -1.42961e-22 -1.39199e-22 -1.3563e-22 1.32239e-22 5.16055e-22 0 -1.23013e-22 2.40435e-22 1.17546e-22 -2.29981e-22 -2.25088e-22 0 0 0 0 0.873549 0.833559 1.04399 1.06798 1.14289 1.22058 1.2162 1.30946 1.39023 1.40777 1.42915 1.57441 1.56667 1.5953 1.63474 1.68163 1.73452 1.74243 1.77548 1.79656 1.77566 1.57129 1.0145 0.191115 0.00217284 1.69394e-07 2.33154e-12 -1.13651e-18 -9.11994e-23 1.76319e-22 -4.26578e-22 0 1.6029e-22 7.77877e-23 0 7.34662e-23 7.14806e-23 -6.95995e-23 1.3563e-22 -2.64478e-22 -3.87041e-22 5.03768e-22 0 -3.60652e-22 0 0 -1.12544e-22 -2.20399e-22 -2.15901e-22 0 0 0.851834 0.812838 1.01804 1.04143 1.11448 1.19023 1.18596 1.27691 1.35568 1.37277 1.39363 1.53527 1.52772 1.55565 1.5941 1.63983 1.6914 1.69912 1.73134 1.7519 1.73152 1.53224 0.989284 0.186365 0.00211883 1.65183e-07 2.27344e-12 -8.20897e-17 1.82399e-22 -4.40797e-23 2.55947e-22 -1.23974e-22 -4.00725e-23 0 -2.26696e-22 7.34662e-23 2.14442e-22 -5.56796e-22 3.39075e-22 1.32239e-22 0 -2.51884e-22 1.23013e-22 2.40435e-22 3.52638e-22 -1.14991e-22 3.37632e-22 3.30598e-22 -1.0795e-22 0 0 0.829278 0.791315 0.991084 1.01386 1.08497 1.15872 1.15456 1.2431 1.31978 1.33642 1.35673 1.49462 1.48727 1.51446 1.55189 1.59641 1.64662 1.65413 1.6855 1.70551 1.68567 1.49166 0.963089 0.18143 0.00206273 1.60809e-07 2.21321e-12 -4.75782e-19 2.16598e-22 -1.98359e-22 2.77276e-22 -4.13247e-23 1.6029e-22 0 3.40043e-22 1.46932e-22 1.42961e-22 -2.08799e-22 2.03445e-22 6.61196e-23 4.51548e-22 6.2971e-23 -2.46026e-22 -1.20217e-22 0 -3.44972e-22 -1.12544e-22 0 -1.0795e-22 0 0 0.805904 0.769012 0.96315 0.98528 1.05439 1.12606 1.12202 1.20806 1.28258 1.29876 1.31848 1.45249 1.44535 1.47177 1.50815 1.55141 1.60021 1.6075 1.63799 1.65744 1.63816 1.44962 0.935943 0.176316 0.00200459 1.56277e-07 2.1509e-12 -1.65408e-17 3.70497e-23 3.30598e-23 -5.33222e-23 -4.13247e-23 2.00362e-22 -1.94469e-22 -2.64478e-22 1.83665e-22 -1.07221e-22 -1.39199e-22 -1.3563e-22 -2.64478e-22 0 1.25942e-22 1.23013e-22 -1.20217e-22 0 0 -1.12544e-22 1.10199e-22 1.0795e-22 0 0 0.781735 0.745949 0.934265 0.955731 1.02277 1.09229 1.08837 1.17183 1.24412 1.25981 1.27894 1.40893 1.40201 1.42763 1.46292 1.50489 1.55222 1.55929 1.58887 1.60773 1.58903 1.40615 0.907874 0.171028 0.00194447 1.5159e-07 2.08631e-12 -3.22131e-17 2.96398e-22 -2.86518e-22 -2.3995e-23 -4.64903e-22 -8.01449e-23 -1.75022e-22 -2.64478e-22 -1.10199e-22 1.42961e-22 -3.13198e-22 -3.39075e-23 -4.62837e-22 -1.93521e-22 1.88913e-22 1.23013e-22 -1.20217e-22 0 1.14991e-22 -5.6272e-23 -1.10199e-22 2.15901e-22 0 0 0.756795 0.72215 0.904458 0.92524 0.990135 1.05744 1.05365 1.13444 1.20442 1.21961 1.23814 1.36398 1.35728 1.38208 1.41625 1.45687 1.50269 1.50955 1.53818 1.55644 1.53833 1.36128 0.878909 0.165572 0.00188243 1.46754e-07 2.01972e-12 -3.02695e-17 4.55997e-22 2.42438e-22 1.49302e-22 4.13247e-22 5.50996e-23 -2.67395e-22 3.49489e-22 -3.30598e-22 1.78702e-23 2.08799e-22 -1.3563e-22 1.98359e-22 1.29014e-22 6.2971e-23 -1.23013e-22 6.01087e-23 2.93865e-22 0 2.8136e-22 -3.30598e-22 2.69876e-22 0 0 0.731107 0.697638 0.873758 0.893835 0.956527 1.02155 1.01788 1.09594 1.16354 1.17822 1.19611 1.31768 1.31121 1.33517 1.36817 1.40742 1.45169 1.45831 1.48597 1.50361 1.48612 1.31508 0.849077 0.159952 0.00181854 1.41773e-07 1.95136e-12 -6.23625e-17 -2.27998e-22 -4.40797e-23 2.13289e-22 -3.71922e-22 3.60652e-22 4.86173e-23 -8.50109e-23 -2.06624e-22 7.14806e-23 6.95995e-23 3.39075e-22 -5.95076e-22 -1.61267e-22 -1.57428e-22 3.38286e-22 -3.00544e-23 0 1.14991e-22 2.25088e-22 -4.40797e-22 4.31801e-22 0 0 0.704698 0.672438 0.842197 0.861548 0.921976 0.984647 0.981114 1.05635 1.12151 1.13566 1.15291 1.27009 1.26384 1.28694 1.31875 1.35658 1.39925 1.40563 1.43229 1.44929 1.43244 1.26758 0.818407 0.154174 0.00175285 1.36651e-07 1.8809e-12 5.97976e-17 -4.55997e-23 -3.52638e-22 2.55947e-22 1.65299e-22 4.00725e-22 2.13916e-22 -1.13348e-22 -5.50996e-22 3.12728e-23 2.93623e-23 -1.18676e-22 2.97538e-22 6.45069e-22 -2.51884e-22 -7.68832e-22 1.20217e-22 -1.46932e-22 -2.58729e-22 1.12544e-22 -2.20399e-22 0 0 0 0.677594 0.646575 0.809804 0.82841 0.886514 0.946775 0.943378 1.01572 1.07838 1.09198 1.10856 1.22123 1.21523 1.23744 1.26803 1.30441 1.34543 1.35157 1.3772 1.39355 1.37734 1.21882 0.786929 0.148244 0.00168543 1.31395e-07 1.80834e-12 -4.2198e-17 1.82399e-22 -1.76319e-22 -8.53155e-23 -2.47948e-22 2.40435e-22 2.33363e-22 7.55652e-23 7.34662e-23 -8.93508e-23 -3.47998e-22 4.66228e-22 6.30202e-23 1.97552e-22 3.22726e-22 1.69143e-22 3.00544e-22 -4.11411e-22 -2.01233e-22 2.8136e-23 5.50997e-23 2.69876e-22 0 0 0.649821 0.620073 0.776611 0.794455 0.850178 0.907969 0.904711 0.974089 1.03418 1.04722 1.06313 1.17118 1.16542 1.18672 1.21606 1.25094 1.29029 1.29617 1.32075 1.33643 1.32089 1.16886 0.754674 0.142168 0.00161635 1.2601e-07 1.73435e-12 5.66457e-17 0 -5.28956e-22 -4.26578e-22 -1.65299e-22 -2.40435e-22 -1.94469e-22 1.5113e-22 7.34662e-23 7.14806e-23 5.56796e-22 -3.56028e-22 1.98359e-22 2.49964e-22 4.32926e-23 1.78753e-22 -1.50272e-23 3.74678e-22 -1.72486e-22 3.09496e-22 1.37749e-22 -2.69876e-22 0 0 0.621406 0.592959 0.742653 0.759717 0.813002 0.868267 0.865151 0.931495 0.988955 1.00143 1.01664 1.11997 1.11446 1.13483 1.16288 1.19624 1.23387 1.23949 1.263 1.27799 1.26313 1.11775 0.721675 0.135952 0.00154567 1.205e-07 1.6585e-12 -6.15131e-17 9.11994e-23 8.81594e-23 2.55947e-22 -8.26494e-23 8.01449e-23 -1.55575e-22 -1.5113e-22 -4.7753e-22 -2.14442e-22 -1.04399e-22 -2.7126e-22 -2.97538e-22 -4.83802e-23 -4.40797e-22 5.22806e-22 -2.47948e-22 -3.30598e-23 7.00724e-23 2.67292e-22 4.54572e-22 2.02407e-22 0 0 0.592378 0.56526 0.707961 0.724228 0.775025 0.827707 0.824737 0.887982 0.942758 0.954648 0.969149 1.06765 1.0624 1.08182 1.10856 1.14036 1.17623 1.18159 1.204 1.2183 1.20413 1.06554 0.687963 0.129601 0.00147347 1.14871e-07 1.58111e-12 -2.75564e-18 9.11994e-23 4.40797e-22 8.53155e-23 0 -1.6029e-22 0 4.53391e-22 -2.20399e-22 -2.14442e-22 6.95995e-23 -6.78149e-23 -1.98359e-22 -1.61267e-22 3.77826e-22 -2.46026e-22 -1.0519e-22 -1.02853e-22 2.58729e-22 1.61782e-22 -2.75498e-22 -2.64394e-22 0 0 0.562766 0.537004 0.672571 0.688025 0.736282 0.786331 0.783509 0.843593 0.895631 0.906926 0.920703 1.01428 1.00929 1.02774 1.05315 1.08336 1.11743 1.12253 1.14382 1.15739 1.14393 1.01227 0.653573 0.123122 0.00139981 1.09129e-07 1.50202e-12 -5.20446e-17 0 0 0 -1.65299e-22 -8.01449e-23 -3.11151e-22 1.5113e-22 -2.20399e-22 -2.14442e-22 -1.39199e-22 2.03445e-22 6.61196e-23 -3.87041e-22 -5.66739e-22 -2.7678e-22 -1.20217e-22 -2.05705e-22 -2.87476e-22 2.25088e-22 1.51524e-22 -1.48432e-22 0 0 0.532598 0.508217 0.636517 0.651142 0.696813 0.744179 0.741508 0.798371 0.84762 0.858309 0.871347 0.959908 0.95519 0.972649 0.99669 1.02528 1.05753 1.06235 1.0825 1.09535 1.08261 0.958011 0.618537 0.116522 0.00132477 1.03279e-07 1.42157e-12 3.55826e-17 -3.64797e-22 0 0 0 0 0 -1.5113e-22 0 0 0 0 0 -6.45069e-23 3.14855e-22 -1.8452e-22 -1.80326e-22 -1.76319e-22 -1.72486e-22 -1.96952e-22 1.37749e-22 -2.96863e-22 0 0 0.501905 0.478929 0.599835 0.613617 0.656656 0.701292 0.698776 0.752362 0.798772 0.808846 0.821132 0.904589 0.900143 0.916595 0.939252 0.966196 0.996584 1.00113 1.02012 1.03223 1.02022 0.902801 0.582891 0.109807 0.00124843 9.73268e-08 1.33959e-12 1.80268e-17 0 0 0 1.65299e-22 3.2058e-22 3.11151e-22 -1.5113e-22 -3.67331e-22 -2.85922e-22 -1.39199e-22 -1.3563e-22 -1.32239e-22 -3.22534e-22 -1.25942e-22 -3.07533e-22 6.01087e-23 2.93865e-22 5.74953e-23 -5.6272e-23 1.37749e-22 0 0 0 0.470716 0.449168 0.562561 0.575487 0.615851 0.657714 0.655353 0.70561 0.749136 0.758583 0.770107 0.848377 0.844208 0.859638 0.880886 0.906156 0.934656 0.938918 0.956726 0.968083 0.956824 0.846701 0.54667 0.102984 0.00117085 9.12789e-08 1.25633e-12 -9.65612e-18 3.64797e-22 -3.52638e-22 -3.41262e-22 1.65299e-22 3.2058e-22 3.11151e-22 0 -1.46932e-22 2.85922e-22 -2.78398e-22 -4.0689e-22 -3.96717e-22 -1.93521e-22 -1.88913e-22 -4.30546e-22 -2.40435e-22 3.52638e-22 2.29981e-22 -5.06448e-22 -4.95897e-22 5.39752e-23 0 0 0.439063 0.418964 0.524732 0.536788 0.574438 0.613486 0.611284 0.658161 0.69876 0.707573 0.718321 0.791328 0.78744 0.801832 0.821651 0.845222 0.871805 0.875781 0.892391 0.902985 0.892482 0.789764 0.509909 0.0960584 0.00109212 8.51409e-08 1.17188e-12 -3.7446e-20 0 5.28956e-22 1.70631e-22 0 1.6029e-22 0 0 0 2.85922e-22 2.78398e-22 2.7126e-22 2.64478e-22 0 0 2.46026e-22 0 5.8773e-23 4.02467e-22 1.68816e-22 -1.65299e-22 -1.0795e-22 0 0 0.406977 0.388346 0.486385 0.49756 0.532459 0.568653 0.566612 0.610063 0.647695 0.655864 0.665826 0.733499 0.729894 0.743234 0.761605 0.783454 0.808094 0.811779 0.827175 0.836995 0.82726 0.732049 0.472645 0.0890385 0.0010123 7.89188e-08 1.08617e-12 -2.34337e-17 0 -1.76319e-22 0 -3.30598e-22 -1.6029e-22 -1.55575e-22 -3.02261e-22 -1.46932e-22 0 4.17597e-22 -1.3563e-22 1.32239e-22 3.87041e-22 -1.25942e-22 0 -1.20217e-22 -1.17546e-22 1.14991e-22 1.12544e-22 -1.10199e-22 -2.15901e-22 0 0 0.374489 0.357345 0.447558 0.457841 0.489954 0.523258 0.521381 0.561363 0.595991 0.603507 0.612675 0.674945 0.671628 0.683903 0.700808 0.720912 0.743586 0.746976 0.761144 0.77018 0.761222 0.673611 0.434915 0.0819308 0.000931494 7.26189e-08 9.99571e-13 2.73072e-17 -3.64797e-22 -1.76319e-22 0 4.95897e-22 4.80869e-22 0 -3.02261e-22 -1.46932e-22 -1.42961e-22 4.17597e-22 -2.7126e-22 -1.32239e-22 -1.29014e-22 -2.51884e-22 0 0 0 2.29981e-22 2.25088e-22 -2.20399e-22 -3.23851e-22 0 0 0.341631 0.325992 0.408289 0.41767 0.446965 0.477348 0.475635 0.512109 0.543699 0.550556 0.558919 0.615725 0.612699 0.623898 0.639319 0.657659 0.678343 0.681437 0.694361 0.702604 0.694432 0.614508 0.396756 0.0747422 0.000849765 6.62473e-08 9.11768e-13 -7.27003e-19 1.82399e-22 5.28956e-22 1.70631e-22 -3.30598e-22 -3.2058e-22 3.11151e-22 -4.53391e-22 -5.87729e-22 -2.85922e-22 -1.39199e-22 2.7126e-22 3.96717e-22 -2.58028e-22 2.51884e-22 -1.23013e-22 3.60652e-22 -2.35092e-22 -2.29981e-22 2.25088e-22 2.20399e-22 -4.31801e-22 0 0 0.308436 0.294316 0.368617 0.377087 0.403535 0.430966 0.429419 0.462349 0.49087 0.49706 0.504611 0.555898 0.553166 0.563276 0.577199 0.593757 0.612431 0.615224 0.626893 0.634335 0.626957 0.554799 0.358205 0.0674798 0.000767197 5.98103e-08 8.23234e-13 3.01716e-18 1.82399e-22 -5.28956e-22 3.41262e-22 3.30598e-22 -4.80869e-22 1.55575e-22 3.02261e-22 2.93865e-22 2.85922e-22 1.39199e-22 -2.7126e-22 2.64478e-22 0 0 2.46026e-22 2.40435e-22 2.35092e-22 -3.44972e-22 1.12544e-22 2.20399e-22 0 0 0 0.274937 0.262351 0.328582 0.336131 0.359707 0.384159 0.38278 0.412134 0.437556 0.443075 0.449805 0.495522 0.493086 0.502099 0.514509 0.529269 0.545915 0.548405 0.558806 0.56544 0.558863 0.494542 0.3193 0.0601508 0.000683871 5.33143e-08 7.33804e-13 2.86595e-17 3.64797e-22 5.28956e-22 -3.41262e-22 -1.65299e-22 -1.6029e-22 -3.11151e-22 1.5113e-22 -1.46932e-22 -2.85922e-22 -1.39199e-22 -1.3563e-22 -1.32239e-22 -2.58028e-22 -1.25942e-22 -2.46026e-22 -2.40435e-22 0 -1.14991e-22 2.25088e-22 -1.10199e-22 1.0795e-22 0 0 0.241166 0.230126 0.288222 0.294844 0.315524 0.336972 0.335763 0.361511 0.383811 0.388652 0.394555 0.434657 0.432521 0.440426 0.451312 0.464259 0.47886 0.481044 0.490168 0.495987 0.490218 0.433798 0.28008 0.0527625 0.000599871 4.67657e-08 6.43678e-13 -2.91266e-17 -3.64797e-22 0 0 1.65299e-22 1.6029e-22 6.22302e-22 -1.5113e-22 -2.93865e-22 1.42961e-22 0 -1.3563e-22 1.32239e-22 0 1.25942e-22 1.23013e-22 -1.20217e-22 -1.17546e-22 -1.14991e-22 0 -1.10199e-22 -1.0795e-22 0 0 0.207158 0.197674 0.247578 0.253266 0.27103 0.289453 0.288415 0.310532 0.329687 0.333845 0.338916 0.373363 0.371528 0.378318 0.387669 0.398