<?xml version="1.0"?>
<VTKFile type="PolyData">
	<PolyData>
		<Piece NumberOfPoints="2601" NumberOfPolys="2500">
			<Points>
				<DataArray type="Float32" NumberOfComponents="3" format="ascii">
 1e-06 0 0 0.257293 0 0 0.291311 0 0 0.32571 0 0 0.351886 0 0 0.374364 0 0 0.392982 0 0 0.409139 0 0 0.424292 0 0 0.437781 0 0 0.449993 0 0 0.460865 0 0 0.470856 0 0 0.480185 0 0 0.488999 0 0 0.49702 0 0 0.504074 0 0 0.510786 0 0 0.517191 0 0 0.523214 0 0 0.528768 0 0 0.533754 0 0 0.538463 0 0 0.542962 0 0 0.547131 0 0 0.551149 0 0 0.555026 0 0 0.559867 0 0 0.567631 0 0 0.581106 0 0 0.600019 0 0 0.620001 0 0 0.640001 0 0 0.660001 0 0 0.680001 0 0 0.700001 0 0 0.720001 0 0 0.740001 0 0 0.760001 0 0 0.780001 0 0 0.800001 0 0 0.820001 0 0 0.840001 0 0 0.860001 0 0 0.880001 0 0 0.900001 0 0 0.920001 0 0 0.940001 0 0 0.960001 0 0 0.980001 0 0 1 0 0 9.99507e-07 3.14108e-08 0 0.257166 0.00808178 0 0.291168 0.00915031 0 0.325549 0.0102308 0 0.351713 0.011053 0 0.374179 0.0117591 0 0.392788 0.0123439 0 0.408937 0.0128514 0 0.424082 0.0133273 0 0.437565 0.013751 0 0.44977 0.0141346 0 0.460637 0.0144761 0 0.470624 0.0147899 0 0.479948 0.015083 0 0.488757 0.0153598 0 0.496775 0.0156118 0 0.503825 0.0158333 0 0.510534 0.0160442 0 0.516936 0.0162454 0 0.522956 0.0164346 0 0.528507 0.016609 0 0.533491 0.0167656 0 0.538197 0.0169135 0 0.542694 0.0170549 0 0.546861 0.0171858 0 0.550877 0.017312 0 0.554752 0.0174338 0 0.559591 0.0175859 0 0.567351 0.0178297 0 0.580819 0.018253 0 0.599723 0.0188471 0 0.619695 0.0194747 0 0.639685 0.0201029 0 0.659675 0.0207311 0 0.679665 0.0213593 0 0.699656 0.0219876 0 0.719646 0.0226158 0 0.739636 0.023244 0 0.759626 0.0238722 0 0.779616 0.0245004 0 0.799606 0.0251286 0 0.819596 0.0257569 0 0.839587 0.0263851 0 0.859577 0.0270133 0 0.879567 0.0276415 0 0.899557 0.0282697 0 0.919547 0.0288979 0 0.939537 0.0295261 0 0.959527 0.0301544 0 0.979517 0.0307826 0 0.999508 0.0314108 0 9.98027e-07 6.27905e-08 0 0.256786 0.0161556 0 0.290737 0.0182916 0 0.325067 0.0204515 0 0.351192 0.0220951 0 0.373625 0.0235065 0 0.392207 0.0246755 0 0.408332 0.0256901 0 0.423455 0.0266415 0 0.436918 0.0274885 0 0.449105 0.0282553 0 0.459955 0.0289379 0 0.469927 0.0295653 0 0.479237 0.030151 0 0.488034 0.0307045 0 0.49604 0.0312082 0 0.503079 0.031651 0 0.509778 0.0320725 0 0.516171 0.0324747 0 0.522182 0.0328529 0 0.527725 0.0332016 0 0.532701 0.0335147 0 0.5374 0.0338104 0 0.541891 0.0340929 0 0.546051 0.0343546 0 0.550062 0.034607 0 0.55393 0.0348503 0 0.558762 0.0351543 0 0.566511 0.0356419 0 0.579959 0.036488 0 0.598835 0.0376755 0 0.618778 0.0389302 0 0.638738 0.040186 0 0.658699 0.0414418 0 0.678659 0.0426976 0 0.69862 0.0439534 0 0.71858 0.0452092 0 0.738541 0.046465 0 0.758501 0.0477209 0 0.778462 0.0489767 0 0.798422 0.0502325 0 0.818383 0.0514883 0 0.838343 0.0527441 0 0.858304 0.0539999 0 0.878265 0.0552557 0 0.898225 0.0565115 0 0.918186 0.0577673 0 0.938146 0.0590232 0 0.958107 0.060279 0 0.978067 0.0615348 0 0.998028 0.0627906 0 9.95562e-07 9.41083e-08 0 0.256152 0.0242134 0 0.290019 0.0274148 0 0.324265 0.030652 0 0.350325 0.0331154 0 0.372703 0.0352308 0 0.391238 0.0369829 0 0.407323 0.0385034 0 0.422409 0.0399294 0 0.435839 0.0411989 0 0.447995 0.042348 0 0.458819 0.0433712 0 0.468766 0.0443115 0 0.478054 0.0451894 0 0.486828 0.0460188 0 0.494815 0.0467738 0 0.501837 0.0474375 0 0.508519 0.0480692 0 0.514896 0.048672 0 0.520892 0.0492388 0 0.526422 0.0497615 0 0.531385 0.0502307 0 0.536073 0.0506738 0 0.540552 0.0510972 0 0.544703 0.0514896 0 0.548703 0.0518677 0 0.552562 0.0522325 0 0.557382 0.0526881 0 0.565112 0.0534188 0 0.578527 0.0546869 0 0.597357 0.0564668 0 0.617249 0.0583472 0 0.637161 0.0602294 0 0.657072 0.0621116 0 0.676983 0.0639937 0 0.696894 0.0658759 0 0.716806 0.0677581 0 0.736717 0.0696402 0 0.756628 0.0715224 0 0.776539 0.0734046 0 0.796451 0.0752867 0 0.816362 0.0771689 0 0.836273 0.0790511 0 0.856184 0.0809332 0 0.876096 0.0828154 0 0.896007 0.0846976 0 0.915918 0.0865797 0 0.935829 0.0884619 0 0.95574 0.0903441 0 0.975652 0.0922262 0 0.995563 0.0941084 0 9.92115e-07 1.25333e-07 0 0.255265 0.0322474 0 0.289014 0.036511 0 0.323142 0.0408223 0 0.349112 0.044103 0 0.371412 0.0469203 0 0.389883 0.0492537 0 0.405913 0.0512787 0 0.420946 0.0531779 0 0.434329 0.0548686 0 0.446444 0.056399 0 0.457231 0.0577617 0 0.467143 0.0590139 0 0.476398 0.0601831 0 0.485143 0.0612878 0 0.493101 0.0622932 0 0.500099 0.0631772 0 0.506758 0.0640184 0 0.513113 0.0648212 0 0.519088 0.0655761 0 0.524599 0.0662723 0 0.529545 0.0668971 0 0.534217 0.0674873 0 0.538681 0.0680512 0 0.542817 0.0685737 0 0.546803 0.0690773 0 0.550649 0.0695632 0 0.555452 0.07017 0 0.563155 0.0711431 0 0.576524 0.0728319 0 0.595288 0.0752024 0 0.615112 0.0777067 0 0.634954 0.0802134 0 0.654797 0.0827201 0 0.674639 0.0852267 0 0.694481 0.0877334 0 0.714324 0.0902401 0 0.734166 0.0927467 0 0.754008 0.0952534 0 0.77385 0.09776 0 0.793693 0.100267 0 0.813535 0.102773 0 0.833377 0.10528 0 0.85322 0.107787 0 0.873062 0.110293 0 0.892904 0.1128 0 0.912747 0.115307 0 0.932589 0.117813 0 0.952431 0.12032 0 0.972273 0.122827 0 0.992116 0.125333 0 9.87688e-07 1.56434e-07 0 0.254126 0.0402496 0 0.287725 0.0455711 0 0.3217 0.0509523 0 0.347554 0.0550471 0 0.369755 0.0585635 0 0.388144 0.0614759 0 0.404102 0.0640035 0 0.419068 0.0663739 0 0.432392 0.0684841 0 0.444452 0.0703943 0 0.455191 0.0720951 0 0.465059 0.0736581 0 0.474273 0.0751174 0 0.482978 0.0764962 0 0.490901 0.0777511 0 0.497868 0.0788545 0 0.504497 0.0799045 0 0.510824 0.0809065 0 0.516773 0.0818487 0 0.522258 0.0827176 0 0.527183 0.0834975 0 0.531833 0.0842341 0 0.536277 0.084938 0 0.540395 0.0855901 0 0.544364 0.0862187 0 0.548192 0.0868251 0 0.552974 0.0875825 0 0.560643 0.0887971 0 0.573952 0.090905 0 0.592632 0.0938637 0 0.612368 0.0969895 0 0.632122 0.100118 0 0.651875 0.103247 0 0.671629 0.106376 0 0.691383 0.109504 0 0.711137 0.112633 0 0.73089 0.115762 0 0.750644 0.11889 0 0.770398 0.122019 0 0.790152 0.125148 0 0.809905 0.128276 0 0.829659 0.131405 0 0.849413 0.134534 0 0.869167 0.137662 0 0.88892 0.140791 0 0.908674 0.14392 0 0.928428 0.147049 0 0.948182 0.150177 0 0.967936 0.153306 0 0.987689 0.156435 0 9.82287e-07 1.87381e-07 0 0.252736 0.048212 0 0.286151 0.0545863 0 0.319941 0.061032 0 0.345653 0.0659369 0 0.367733 0.0701489 0 0.386021 0.0736375 0 0.401892 0.076665 0 0.416776 0.0795044 0 0.430027 0.0820321 0 0.442022 0.0843202 0 0.452702 0.0863574 0 0.462516 0.0882296 0 0.471679 0.0899776 0 0.480337 0.0916292 0 0.488217 0.0931323 0 0.495145 0.094454 0 0.501738 0.0957117 0 0.50803 0.096912 0 0.513947 0.0980406 0 0.519402 0.0990813 0 0.5243 0.100016 0 0.528925 0.100898 0 0.533345 0.101741 0 0.53744 0.102522 0 0.541387 0.103275 0 0.545195 0.104001 0 0.54995 0.104909 0 0.557577 0.106363 0 0.570813 0.108888 0 0.589391 0.112432 0 0.609019 0.116177 0 0.628665 0.119924 0 0.648311 0.123672 0 0.667956 0.127419 0 0.687602 0.131167 0 0.707248 0.134915 0 0.726894 0.138662 0 0.746539 0.14241 0 0.766185 0.146158 0 0.785831 0.149905 0 0.805477 0.153653 0 0.825122 0.1574 0 0.844768 0.161148 0 0.864414 0.164896 0 0.88406 0.168643 0 0.903705 0.172391 0 0.923351 0.176139 0 0.942997 0.179886 0 0.962642 0.183634 0 0.982288 0.187382 0 9.75917e-07 2.18143e-07 0 0.251097 0.0561268 0 0.284296 0.0635476 0 0.317866 0.0710515 0 0.343412 0.0767616 0 0.365348 0.081665 0 0.383518 0.0857264 0 0.399286 0.0892509 0 0.414074 0.0925564 0 0.427238 0.0954991 0 0.439155 0.0981628 0 0.449766 0.100535 0 0.459516 0.102714 0 0.46862 0.104749 0 0.477222 0.106672 0 0.485051 0.108422 0 0.491934 0.10996 0 0.498484 0.111424 0 0.504736 0.112822 0 0.510613 0.114136 0 0.516034 0.115347 0 0.520899 0.116435 0 0.525495 0.117462 0 0.529886 0.118444 0 0.533954 0.119353 0 0.537876 0.12023 0 0.541659 0.121075 0 0.546384 0.122131 0 0.553961 0.123825 0 0.567111 0.126764 0 0.585569 0.13089 0 0.605069 0.135249 0 0.624588 0.139612 0 0.644106 0.143975 0 0.663624 0.148338 0 0.683143 0.1527 0 0.702661 0.157063 0 0.722179 0.161426 0 0.741698 0.165789 0 0.761216 0.170152 0 0.780734 0.174515 0 0.800253 0.178878 0 0.819771 0.183241 0 0.839289 0.187603 0 0.858808 0.191966 0 0.878326 0.196329 0 0.897844 0.200692 0 0.917363 0.205055 0 0.936881 0.209418 0 0.956399 0.213781 0 0.975918 0.218143 0 9.68583e-07 2.4869e-07 0 0.24921 0.0639863 0 0.282159 0.0724462 0 0.315477 0.0810008 0 0.340831 0.0875106 0 0.362603 0.0931006 0 0.380636 0.0977306 0 0.396285 0.101749 0 0.410962 0.105517 0 0.424028 0.108872 0 0.435855 0.111909 0 0.446386 0.114612 0 0.456063 0.117097 0 0.465099 0.119417 0 0.473636 0.121609 0 0.481406 0.123604 0 0.488237 0.125358 0 0.494738 0.127027 0 0.500943 0.12862 0 0.506776 0.130118 0 0.512156 0.131499 0 0.516985 0.132739 0 0.521546 0.13391 0 0.525904 0.135029 0 0.529942 0.136066 0 0.533834 0.137065 0 0.537588 0.138029 0 0.542278 0.139233 0 0.549798 0.141164 0 0.56285 0.144515 0 0.581169 0.149219 0 0.600523 0.154188 0 0.619894 0.159162 0 0.639266 0.164136 0 0.658638 0.169109 0 0.678009 0.174083 0 0.697381 0.179057 0 0.716753 0.184031 0 0.736124 0.189005 0 0.755496 0.193978 0 0.774867 0.198952 0 0.794239 0.203926 0 0.813611 0.2089 0 0.832982 0.213874 0 0.852354 0.218847 0 0.871726 0.223821 0 0.891097 0.228795 0 0.910469 0.233769 0 0.929841 0.238743 0 0.949212 0.243716 0 0.968584 0.24869 0 9.60294e-07 2.78991e-07 0 0.247077 0.0717826 0 0.279744 0.0812733 0 0.312777 0.0908703 0 0.337914 0.0981731 0 0.3595 0.104444 0 0.377378 0.109638 0 0.392894 0.114146 0 0.407445 0.118374 0 0.420399 0.122137 0 0.432125 0.125544 0 0.442565 0.128577 0 0.45216 0.131365 0 0.461118 0.133967 0 0.469582 0.136426 0 0.477286 0.138664 0 0.484059 0.140632 0 0.490504 0.142505 0 0.496655 0.144292 0 0.502439 0.145972 0 0.507773 0.147522 0 0.512561 0.148913 0 0.517082 0.150226 0 0.521403 0.151482 0 0.525406 0.152645 0 0.529265 0.153766 0 0.532988 0.154847 0 0.537637 0.156198 0 0.545093 0.158364 0 0.558033 0.162123 0 0.576195 0.1674 0 0.595383 0.172975 0 0.614589 0.178555 0 0.633795 0.184134 0 0.653001 0.189714 0 0.672207 0.195294 0 0.691412 0.200874 0 0.710618 0.206454 
[...]
			<PointData Scalars="VitesseX">
				<DataArray Name="VitesseX" type="Float32" format="ascii">
 0 0.748444 0.844678 0.953708 1.02831 1.08668 1.18407 1.19457 1.28751 1.33441 1.35768 1.43379 1.47521 1.49884 1.48549 1.59377 1.60203 1.64528 1.63326 1.69032 1.75371 1.77665 1.81175 1.81596 1.84047 1.87589 1.84259 1.64563 1.15308 0.356227 0.0119991 6.00296e-06 1.18925e-10 2.29587e-15 0 0 0 0 0 0 0 0 0 0 0 0 0 0 0 0 0 0 0.748075 0.844262 0.953238 1.02781 1.08615 1.18348 1.19398 1.28687 1.33375 1.35701 1.43309 1.47448 1.4981 1.48475 1.59299 1.60123 1.64447 1.63245 1.68949 1.75285 1.77577 1.81086 1.81506 1.83956 1.87497 1.84168 1.64482 1.15251 0.356052 0.0119932 6e-06 1.18866e-10 2.29187e-15 4.67198e-22 0 -4.41243e-22 0 0 0 3.97119e-22 3.87433e-22 -3.78208e-22 -3.69413e-22 0 0 3.45321e-22 -3.37973e-22 0 6.48357e-22 0 0 0.746967 0.843012 0.951826 1.02628 1.08454 1.18173 1.19222 1.28497 1.33178 1.355 1.43096 1.4723 1.49588 1.48256 1.59063 1.59886 1.64203 1.63004 1.68699 1.75025 1.77314 1.80818 1.81237 1.83684 1.87219 1.83896 1.64238 1.1508 0.355524 0.0119754 5.99112e-06 1.1869e-10 2.27433e-15 0 -4.5385e-22 0 0 0 0 0 0 -3.78208e-22 0 0 0 3.45321e-22 -6.75947e-22 0 0 0 0 0.745123 0.84093 0.949476 1.02375 1.08186 1.17881 1.18927 1.28179 1.32849 1.35165 1.42743 1.46866 1.49219 1.47889 1.5867 1.59492 1.63798 1.62601 1.68282 1.74593 1.76876 1.80371 1.8079 1.8323 1.86757 1.83441 1.63833 1.14796 0.354646 0.0119458 5.97632e-06 1.18397e-10 2.25448e-15 4.67198e-22 0 4.41243e-22 0 0 0 0 0 0 0 0 7.05989e-22 3.45321e-22 -3.37973e-22 0 0 0 0 0.742542 0.838018 0.946188 1.0202 1.07811 1.17473 1.18515 1.27735 1.32389 1.34697 1.42249 1.46357 1.48702 1.47377 1.58121 1.58939 1.6323 1.62038 1.677 1.73988 1.76264 1.79747 1.80164 1.82596 1.8611 1.82806 1.63265 1.14399 0.353418 0.0119045 5.95563e-06 1.17987e-10 2.22621e-15 0 0 0 0 4.18019e-22 0 0 0 0 0 -3.61017e-22 3.52994e-22 -6.90641e-22 0 -3.30932e-22 -3.24178e-22 0 0 0.73923 0.834279 0.941966 1.01565 1.0733 1.16949 1.17987 1.27165 1.31798 1.34096 1.41614 1.45704 1.48038 1.4672 1.57415 1.5823 1.62502 1.61315 1.66951 1.73212 1.75478 1.78945 1.7936 1.81781 1.8528 1.81991 1.62537 1.13888 0.351842 0.0118513 5.92905e-06 1.17461e-10 2.18281e-15 -4.67198e-22 -4.5385e-22 0 -4.29317e-22 -4.18019e-22 0 3.97119e-22 0 -3.78208e-22 0 0 3.52994e-22 0 6.75947e-22 -3.30932e-22 0 0 0 0.735187 0.829717 0.936815 1.0101 1.06743 1.1631 1.17341 1.2647 1.31077 1.33363 1.4084 1.44908 1.47229 1.45918 1.56554 1.57365 1.61614 1.60433 1.66038 1.72265 1.74518 1.77966 1.78379 1.80787 1.84266 1.80995 1.61648 1.13265 0.349918 0.0117865 5.89663e-06 1.16818e-10 2.14437e-15 4.67198e-22 0 0 0 4.18019e-22 0 0 0 3.78208e-22 0 -3.61017e-22 -3.52994e-22 0 6.75947e-22 -3.30932e-22 3.24178e-22 0 0 0.730419 0.824336 0.93074 1.00355 1.06051 1.15555 1.1658 1.2565 1.30227 1.32498 1.39926 1.43968 1.46274 1.44971 1.55539 1.56344 1.60565 1.59393 1.64962 1.71148 1.73386 1.76812 1.77222 1.79615 1.83071 1.79822 1.606 1.12531 0.347648 0.0117101 5.85839e-06 1.16061e-10 2.14628e-15 0 -4.5385e-22 0 0 0 -4.07301e-22 0 0 -3.78208e-22 3.69413e-22 0 -3.52994e-22 -3.45321e-22 -3.37973e-22 0 0 0 0 0.72493 0.818141 0.923746 0.996007 1.05254 1.14687 1.15704 1.24706 1.29249 1.31502 1.38875 1.42886 1.45175 1.43882 1.5437 1.55169 1.59359 1.58195 1.63722 1.69862 1.72083 1.75483 1.75891 1.78265 1.81696 1.7847 1.59393 1.11685 0.345036 0.0116221 5.81437e-06 1.15188e-10 2.109e-15 0 0 0 4.29317e-22 0 0 0 0 0 3.69413e-22 7.22034e-22 -3.52994e-22 0 0 0 3.24178e-22 0 0 0.718726 0.811139 0.91584 0.987483 1.04353 1.13705 1.14714 1.23638 1.28143 1.30377 1.37686 1.41663 1.43932 1.4265 1.53049 1.53841 1.57995 1.56841 1.62321 1.68408 1.7061 1.73981 1.74385 1.76739 1.80141 1.76943 1.58029 1.10729 0.342083 0.0115226 5.76461e-06 1.14203e-10 2.11235e-15 -4.67198e-22 0 0 4.29317e-22 -4.18019e-22 0 0 0 -7.56416e-22 -7.38825e-22 7.22034e-22 3.52994e-22 3.45321e-22 0 0 3.24178e-22 0 0 0.711813 0.803337 0.90703 0.977984 1.0335 1.12612 1.13611 1.22449 1.2691 1.29123 1.36362 1.40301 1.42548 1.41278 1.51577 1.52362 1.56475 1.55332 1.60759 1.66788 1.68969 1.72308 1.72708 1.75039 1.78408 1.75241 1.56509 1.09664 0.338792 0.0114118 5.70916e-06 1.13104e-10 2.04053e-15 0 0 0 0 0 4.07301e-22 -3.97119e-22 7.74865e-22 3.78208e-22 0 0 0 -3.45321e-22 -3.37973e-22 -3.30932e-22 3.24178e-22 0 0 0.704197 0.794742 0.897326 0.96752 1.02244 1.11407 1.12395 1.21139 1.25552 1.27741 1.34903 1.38799 1.41023 1.39767 1.49955 1.50731 1.54801 1.5367 1.59039 1.65003 1.67161 1.70464 1.7086 1.73166 1.76499 1.73366 1.54834 1.08491 0.335168 0.0112897 5.64807e-06 1.11894e-10 2.07538e-15 2.33599e-22 0 0 -4.29317e-22 4.18019e-22 4.07301e-22 -3.97119e-22 -3.87433e-22 -3.78208e-22 0 -3.61017e-22 3.52994e-22 3.45321e-22 -3.37973e-22 -3.30932e-22 6.48357e-22 0 0 0.695886 0.785362 0.886735 0.956101 1.01037 1.10092 1.11069 1.19709 1.2407 1.26234 1.33311 1.37161 1.39358 1.38117 1.48185 1.48953 1.52974 1.51857 1.57162 1.63056 1.65189 1.68452 1.68843 1.71123 1.74416 1.7132 1.53007 1.07211 0.331212 0.0111565 5.58141e-06 1.10573e-10 2.00658e-15 -4.67198e-22 -2.26925e-22 -2.20621e-22 -2.14659e-22 4.18019e-22 -4.07301e-22 0 -3.87433e-22 0 3.69413e-22 -3.61017e-22 -3.52994e-22 -3.45321e-22 -3.37973e-22 -3.30932e-22 0 0 0 0.686888 0.775207 0.87527 0.943739 0.997308 1.08668 1.09633 1.18161 1.22466 1.24601 1.31587 1.35388 1.37557 1.36331 1.46269 1.47027 1.50996 1.49893 1.5513 1.60948 1.63053 1.66274 1.6666 1.6891 1.72161 1.69105 1.51028 1.05824 0.326929 0.0110122 5.50925e-06 1.09144e-10 1.9004e-15 0 4.5385e-22 2.20621e-22 -2.14659e-22 0 4.07301e-22 3.97119e-22 0 0 0 0 7.05989e-22 0 3.37973e-22 0 -3.24178e-22 0 0 0.677213 0.764288 0.862941 0.930445 0.98326 1.07138 1.08088 1.16497 1.20741 1.22846 1.29733 1.33481 1.35619 1.34411 1.44209 1.44956 1.48869 1.47782 1.52945 1.58681 1.60756 1.63932 1.64313 1.66531 1.69736 1.66723 1.48901 1.04334 0.322324 0.0108571 5.43164e-06 1.07606e-10 1.88406e-15 -2.33599e-22 2.26925e-22 2.20621e-22 2.14659e-22 -2.0901e-22 -2.03651e-22 0 0 3.78208e-22 0 0 0 -3.45321e-22 0 3.30932e-22 -3.24178e-22 0 0 0.666869 0.752614 0.84976 0.916234 0.968241 1.05501 1.06437 1.14718 1.18897 1.2097 1.27752 1.31442 1.33547 1.32358 1.42006 1.42741 1.46595 1.45525 1.50609 1.56257 1.58301 1.61428 1.61803 1.63987 1.67143 1.64176 1.46627 1.0274 0.317401 0.0106913 5.34868e-06 1.05963e-10 1.87877e-15 0 -6.80775e-22 0 0 0 0 -3.97119e-22 -1.93716e-22 0 3.69413e-22 0 0 3.45321e-22 0 3.30932e-22 3.24178e-22 0 0 0.655867 0.740197 0.835741 0.901118 0.952267 1.03761 1.04681 1.12825 1.16935 1.18974 1.25644 1.29273 1.31344 1.30174 1.39663 1.40387 1.44177 1.43124 1.48124 1.53679 1.55689 1.58765 1.59133 1.61282 1.64386 1.61468 1.44208 1.01045 0.312164 0.0105149 5.26044e-06 1.04215e-10 1.7981e-15 2.33599e-22 0 2.20621e-22 4.29317e-22 6.27029e-22 4.07301e-22 1.98559e-22 3.87433e-22 -3.78208e-22 -3.69413e-22 1.80508e-22 -3.52994e-22 -3.45321e-22 0 0 -3.24178e-22 0 0 0.644217 0.72705 0.820897 0.885112 0.935353 1.01918 1.02822 1.10821 1.14858 1.16861 1.23413 1.26977 1.29011 1.27862 1.37183 1.37893 1.41616 1.40582 1.45493 1.50949 1.52924 1.55945 1.56307 1.58417 1.61466 1.586 1.41646 0.992504 0.30662 0.0103281 5.167e-06 1.02364e-10 1.87235e-15 2.33599e-22 0 -4.41243e-22 -4.29317e-22 0 -2.03651e-22 -1.98559e-22 5.81149e-22 1.89104e-22 0 0 0 3.45321e-22 3.37973e-22 3.30932e-22 -3.24178e-22 0 0 0.631932 0.713186 0.805242 0.868233 0.917516 0.999742 1.00861 1.08708 1.12668 1.14632 1.21059 1.24556 1.26551 1.25424 1.34567 1.35263 1.38915 1.37901 1.42719 1.48071 1.50007 1.52971 1.53326 1.55396 1.58387 1.55575 1.38945 0.973577 0.300773 0.0101312 5.06847e-06 1.00411e-10 1.71928e-15 2.33599e-22 0 4.41243e-22 6.43976e-22 -6.27029e-22 6.10952e-22 -5.95678e-22 3.87433e-22 -5.67312e-22 3.69413e-22 0 -3.52994e-22 -1.7266e-22 -1.68987e-22 0 -3.24178e-22 0 0 0.619024 0.698617 0.788794 0.850498 0.898774 0.97932 0.988008 1.06487 1.10366 1.12291 1.18586 1.22012 1.23966 1.22862 1.31818 1.325 1.36078 1.35084 1.39803 1.45046 1.46943 1.49847 1.50194 1.52222 1.55151 1.52397 1.36107 0.953689 0.294629 0.0099242 4.96493e-06 9.83604e-11 1.71658e-15 1.168e-22 1.13462e-22 0 -6.43976e-22 -2.0901e-22 -2.03651e-22 -1.98559e-22 3.87433e-22 -9.4552e-22 3.69413e-22 3.61017e-22 -3.52994e-22 1.7266e-22 -3.37973e-22 3.30932e-22 -3.24178e-22 0 0 0.605504 0.683359 0.771566 0.831923 0.879145 0.957931 0.96643 1.04161 1.07956 1.09838 1.15996 1.19347 1.21259 1.20178 1.28939 1.29607 1.33106 1.32134 1.3675 1.41878 1.43734 1.46574 1.46914 1.48897 1.51763 1.49069 1.33134 0.932861 0.288194 0.00970746 4.8565e-06 9.6212e-11 1.6936e-15 -2.33599e-22 2.26925e-22 5.51553e-22 -2.14659e-22 -2.0901e-22 -2.03651e-22 1.98559e-22 7.74865e-22 0 -1.84706e-22 3.61017e-22 1.76497e-22 -3.45321e-22 -3.37973e-22 0 0 0 0 0.591387 0.667427 0.753577 0.812527 0.858648 0.935597 0.943898 1.01733 1.05439 1.07277 1.13292 1.16564 1.18431 1.17377 1.25933 1.26585 1.30002 1.29053 1.33562 1.38571 1.40383 1.43157 1.43489 1.45426 1.48224 1.45593 1.3003 0.911111 0.281475 0.00948113 4.74327e-06 9.3969e-11 1.72386e-15 1.168e-22 0 1.10311e-22 1.07329e-22 -1.04505e-22 2.03651e-22 -3.97119e-22 -5.81149e-22 7.56416e-22 0 -5.41525e-22 0 0 -1.68987e-22 -3.30932e-22 -3.24178e-22 0 0 0.576686 0.650836 0.734845 0.792329 0.837303 0.91234 0.920434 0.99204 1.02818 1.04611 1.10476 1.13667 1.15487 1.14459 1.22802 1.23438 1.26771 1.25845 1.30242 1.35126 1.36893 1.39598 1.39922 1.41811 1.4454 1.41974 1.26798 0.888463 0.274478 0.00924545 4.62536e-06 9.16331e-11 1.66339e-15 0 -3.40387e-22 1.10311e-22 3.21988e-22 -8.36039e-22 5.09126e-22 1.98559e-22 0 -3.78208e-22 1.84706e-22 3.61017e-22 5.29491e-22 -1.7266e-22 5.0696e-22 4.96398e-22 -1.62089e-22 0 0 0.561416 0.633603 0.715387 0.771349 0.815133 0.888183 0.896063 0.965773 1.00096 1.01841 1.0755 1.10657 1.12429 1.11428 1.19551 1.2017 1.23414 1.22513 1.26793 1.31548 1.33268 1.35902 1.36217 1.38056 1.40713 1.38215 1.2344 0.864937 0.26721 0.00900064 4.50289e-06 8.92068e-11 1.54612e-15 0 5.10581e-22 2.20621e-22 2.14659e-22 -3.13515e-22 3.05476e-22 9.92796e-23 6.78007e-22 9.4552e-23 -3.69413e-22 -1.80508e-22 0 -5.17981e-22 -1.68987e-22 0 -1.62089e-22 0 0 0.545592 0.615744 0.695223 0.749608 0.792157 0.863149 0.870806 0.938552 0.972743 0.989703 1.04519 1.07538 1.09261 1.08287 1.16181 1.16783 1.19936 1.1906 1.23219 1.2784 1.29512 1.32071 1.32378 1.34165 1.36747 1.34319 1.19961 0.840558 0.259679 0.00874695 4.37597e-06 8.66924e-11 1.59451e-15 -2.91999e-22 -3.97118e-22 2.75777e-22 -1.60994e-22 -2.0901e-22 -2.03651e-22 -3.97119e-22 0 1.89104e-22 1.84706e-22 -1.80508e-22 0 0 -1.68987e-22 1.65466e-22 1.62089e-22 0 0 0.52923 0.597278 0.674374 0.727127 0.768401 0.837263 0.844691 0.910404 0.94357 0.960022 1.01384 1.04313 1.05984 1.0504 1.12697 1.1328 1.16339 1.15489 1.19524 1.24006 1.25628 1.2811 1.28408 1.30141 1.32646 1.30291 1.16364 0.81535 0.251891 0.00848463 4.24473e-06 8.40924e-11 1.51017e-15 -2.62799e-22 -3.97118e-22 -1.65466e-22 2.14659e-22 -4.70272e-22 -5.09126e-23 -6.94957e-22 -2.90575e-22 2.83656e-22 1.84706e-22 -1.80508e-22 0 1.7266e-22 -8.44933e-23 -1.65466e-22 3.24178e-22 0 0 0.512345 0.578222 0.652858 0.703929 0.743885 0.81055 0.817742 0.881359 0.913467 0.929393 0.981499 1.00985 1.02602 1.01689 1.09101 1.09666 1.12627 1.11804 1.15711 1.2005 1.2162 1.24023 1.24311 1.25989 1.28414 1.26134 1.12651 0.789337 0.243854 0.00821393 4.10931e-06 8.14095e-11 1.43278e-15 -4.01498e-22 5.24764e-22 -4.96398e-22 2.68323e-23 3.13515e-22 -2.03651e-22 2.97839e-22 1.93716e-22 9.4552e-23 -1.84706e-22 9.02542e-23 4.41243e-22 0 4.22467e-22 -4.96398e-22 4.05223e-22 0 0 0.494955 0.558596 0.630699 0.680036 0.718636 0.783038 0.789985 0.851443 0.882461 0.897847 0.948184 0.975572 0.991199 0.98237 1.05398 1.05944 1.08804 1.08009 1.11783 1.15975 1.17492 1.19813 1.20091 1.21712 1.24055 1.21853 1.08827 0.762545 0.235577 0.00793513 3.96983e-06 7.86464e-11 1.31474e-15 7.29997e-23 -1.27645e-22 -3.10249e-22 1.07329e-22 1.04505e-22 5.09126e-22 -8.93517e-22 -2.42145e-22 -2.3638e-22 5.07942e-22 -4.51271e-23 0 1.7266e-22 3.37973e-22 -6.61864e-22 6.48357e-22 0 0 0.477076 0.538418 0.607917 0.655471 0.692678 0.754753 0.76145 0.820687 0.850585 0.865415 0.913934 0.940332 0.955395 0.946885 1.01591 1.02117 1.04874 1.04108 1.07745 1.11786 1.13248 1.15485 1.15753 1.17316 1.19574 1.17451 1.04896 0.735 0.227068 0.0076485 3.82643e-06 7.58055e-11 1.38092e-15 3.21199e-22 -1.70194e-22 -8.2733e-22 4.69566e-23 4.4088e-23 -1.78194e-22 4.46758e-22 9.68582e-22 -3.78208e-22 -1.15441e-21 1.80508e-22 -2.20621e-22 -3.88486e-22 1.68987e-22 -3.30932e-22 0 0 0 0.458727 0.517709 0.584534 0.63026 0.666035 0.725724 0.732162 0.789122 0.817869 0.832129 0.878782 0.904165 0.918648 0.910466 0.976835 0.981892 1.0084 1.00104 1.03601 1.07486 1.08892 1.11044 1.11301 1.12804 1.14975 1.12934 1.00862 0.70673 0.218334 0.00735432 3.67926e-06 7.28898e-11 1.37586e-15 3.50399e-22 1.13462e-22 1.10311e-22 -1.34162e-22 -5.22524e-22 7.00049e-22 9.46259e-23 2.96628e-22 4.84579e-22 2.53971e-22 4.51271e-22 -6.1774e-22 -3.02155e-22 4.22467e-23 8.2733e-23 4.05223e-22 0 0 0.439924 0.496489 0.560576 0.604427 0.638736 0.695978 0.702153 0.756777 0.784347 0.798022 0.842762 0.867105 0.880995 0.873147 0.936796 0.941647 0.96707 0.960006 0.993547 1.03081 1.04429 1.06492 1.06739 1.0818 1.10262 1.08305 0.967277 0.677763 0.209385 0.00705288 3.52845e-06 6.99021e-11 1.1489e-15 -2.91999e-22 2.26925e-22 1.10311e-22 1.07329e-22 8.36039e-22 -5.34583e-22 2.97839e-22 3.75325e-22 6.50045e-23 2.68401e-22 -2.25636e-23 5.62585e-22 -2.5899e-22 4.64713e-22 2.06833e-22 -4.05223e-22 0 0 0.420688 0.47478 0.536064 0.577998 0.610806 0.665545 0.67145 0.723686 0.75005 0.763127 0.805911 0.829189 0.842472 0.834968 0.895833 0.900472 0.924783 0.918028 0.950103 0.985733 0.998625 1.01836 1.02072 1.0345 1.05441 1.03569 0.924981 0.648127 0.20023 0.00674448 3.37416e-06 6.68457e-11 1.14691e-15 -2.33599e-22 -2.26925e-22 -7.1702e-22 -3.21988e-22 -1.56757e-22 -4.07301e-22 -4.46758e-22 -7.26436e-23 -6.61864e-22 7.85002e-22 -3.72299e-22 -4.96398e-23 1.05215e-22 4.01343e-22 6.82548e-22 3.03917e-22 0 0 0.401036 0.452601 0.511022 0.550998 0.582274 0.634455 0.640084 0.68988 0.715013 0.727479 0.768265 0.790455 0.803117 0.795964 0.853986 0.858408 0.881584 0.875144 0.905721 0.939686 0.951976 0.970786 0.973038 0.986173 1.00515 0.98731 0.881772 0.617851 0.190876 0.00642943 3.21655e-06 6.37231e-11 1.1842e-15 0 6.80775e-22 -3.30932e-22 -3.21988e-22 1.04505e-22 -1.01825e-22 -2.97839e-22 -2.42145e-22 5.67312e-22 -3.69413e-22 -1.57945e-22 -1.54435e-22 3.88486e-22 2.42918e-22 -4.13665e-22 -3.96992e-22 0 0 0.380989 0.429976 0.485477 0.523454 0.553166 0.60274 0.608087 0.655394 0.67927 0.691113 0.72986 0.750941 0.76297 0.756174 0.811296 0.815497 0.837514 0.831397 0.860445 0.892713 0.904388 0.922257 0.924397 0.936876 0.954906 0.937955 0.837694 0.586965 0.181335 0.00610803 3.05576e-06 6.05375e-11 1.10705e-15 -4.67198e-22 2.26925e-22 -3.30932e-22 -3.21988e-22 -2.0901e-22 3.05476e-22 9.92796e-23 -5.81149e-22 -8.50968e-22 -4.15589e-22 -1.80508e-22 -3.0887e-22 -4.31651e-22 3.37973e-22 2.27516e-22 -2.22873e-22 0 0 0.360566 0.406927 0.459452 0.495394 0.523513 0.570429 0.57549 0.620261 0.642857 0.654066 0.690735 0.710686 0.722071 0.715639 0.767806 0.771781 0.792618 0.786829 0.81432 0.844858 0.855907 0.872818 0.874844 0.886653 0.903717 0.887675 0.792788 0.5555 0.171614 0.0057806 2.89195e-06 5.72923e-11 1.02104e-15 0 -2.26925e-22 0 0 0 0 0 -9.68582e-23 4.7276e-22 -2.77059e-22 -2.70763e-22 -2.64746e-22 -2.5899e-22 -2.95727e-22 2.06833e-22 -4.45745e-22 0 0 0.339787 0.383476 0.432974 0.466844 0.493344 0.537556 0.542325 0.584516 0.605809 0.616372 0.650928 0.66973 0.680458 0.674397 0.723558 0.727304 0.74694 0.741485 0.767391 0.796169 0.806582 0.822518 0.824427 0.835556 0.851637 0.836519 0.7471 0.523487 0.161724 0.00544747 2.72529e-06 5.39907e-11 9.55675e-16 4.67198e-22 -2.26925e-22 -5.51553e-22 -4.29317e-22 -2.0901e-22 -2.03651e-22 -1.98559e-22 -4.84291e-22 -1.89104e-22 -4.61766e-22 9.02542e-23 4.41243e-22 8.63301e-23 -8.44933e-23 2.06833e-22 0 0 0 0.318672 0.359647 0.406069 0.437834 0.462687 0.504152 0.508625 0.548193 0.568164 0.57807 0.610479 0.628113 0.638174 0.63249 0.678595 0.682109 0.700525 0.695408 0.719705 0.746695 0.75646 0.771407 0.773197 0.783634 0.798715 0.784537 0.700675 0.490957 0.151674 0.00510896 2.55594e-06 5.06356e-11 8.6089e-16 4.67198e-22 0 -2.20621e-22 4.29317e-22 -4.18019e-22 -6.10952e-22 -5.95678e-22 -2.90575e-22 -2.83656e-22 -6.46472e-22 -3.61017e-22 5.29491e-22 3.45321e-22 -7.6044e-22 -7.44597e-22 8.10446e-23 0 0 0.297243 0.335462 0.378763 0.408392 0.431574 0.47025 0.474422 0.51133 0.529958 0.539198 0.569428 0.585875 0.59526 0.589958 0.632964 0.636241 0.653419 0.648646 0.671309 0.696483 0.705592 0.719534 0.721203 0.730939 0.745006 0.731781 0.653558 0.457943 0.141475 0.00476541 2.38406e-06 4.72307e-11 8.28178e-16 0 0 0 4.29317e-22 4.18019e-22 4.07301e-22 3.97119e-22 0 0 3.69413e-22 0 8.82486e-23 6.04311e-22 2.5348e-22 -2.48199e-22 -1.62089e-22 0 0 0.275521 0.310947 0.351083 0.378547 0.400035 0.435885 0.439752 0.473963 0.491229 0.499794 0.527814 0.54306 0.551759 0.546844 0.586707 0.589745 0.605667 0.601243 0.62225 0.645585 0.654028 0.666951 0.668498 0.677522 0.690561 0.678303 0.605797 0.424477 0.131136 0.00441715 2.20984e-06 4.37792e-11 7.75896e-16 -2.33599e-22 -4.5385e-22 -2.20621e-22 0 6.27029e-22 -2.03651e-22 1.98559e-22 5.81149e-22 -1.89104e-22 0 -1.80508e-22 -1.76497e-22 1.7266e-22 1.68987e-22 -1.65466e-22 -3.24178e-22 0 0 0.253526 0.286125 0.323057 0.348329 0.368101 0.401089 0.404647 0.436127 0.452015 0.459896 0.48568 0.499709 0.507713 0.503191 0.539871 0.542667 0.557318 0.553247 0.572577 0.594049 0.601818 0.613709 0.615133 0.623437 0.635435 0.624156 0.557437 0.390592 0.120668 0.00406454 2.03343e-06 4.02843e-11 7.0286e-16 0 -4.5385e-22 -2.20621e-22 -2.14659e-22 6.27029e-22 -4.07301e-22 -1.98559e-22 -1.93716e-22 -3.78208e-22 0 0 0 3.45321e-22 3.37973e-22 -3.30932e-22 -4.86268e-22 0 0 0.231282 0.26102 0.294712 0.317766 0.335803 0.365897 0.369143 0.397861 0.412355 0.419545 0.443066 0.455864 0.463166 0.459041 0.492503 0.495053 0.508419 0.504705 0.522339 0.541927 0.549015 0.559862 0.561161 0.568737 0.579682 0.569392 0.508527 0.356321 0.11008 0.00370792 1.85502e-06 3.67498e-11 6.68386e-16 4.67198e-22 -6.80775e-22 -8.82486e-22 -4.29317e-22 -2.0901e-22 4.07301e-22 5.95678e-22 -3.87433e-22 3.78208e-22 -1.84706e-22 5.41525e-22 -3.52994e-22 -3.45321e-22 3.37973e-22 3.30932e-22 -6.48357e-22 0 0 0.208809 0.235658 0.266076 0.28689 0.303175 0.330344 0.333275 0.359203 0.372289 0.37878 0.400016 0.41157 0.418162 0.414438 0.444648 0.446951 0.459018 0.455665 0.471585 0.48927 0.495669 0.505463 0.506636 0.513475 0.523357 0.514067 0.459116 0.321699 0.0993843 0.00334764 1.67477e-06 3.3179e-11 6.65178e-16 2.33599e-22 4.5385e-22 4.41243e-22 4.29317e-22 2.0901e-22 -4.07301e-22 3.97119e-22 0 0 3.69413e-22 3.61017e-22 3.52994e-22 -5.17981e-22 1.68987e-22 3.30932e-22 0 0 0 0.186131 0.210063 0.237178 0.255731 0.270247 0.294466 0.297078 0.32019 0.331854 0.33764 0.35657 0.366869 0.372746 0.369426 0.396355 0.398407 0.409164 0.406175 0.420366 0.436131 0.441835 0.450565 0.45161 0.457706 0.466515 0.458234 0.409251 0.286759 0.0885902 0.00298405 1.49288e-06 2.95754e-11 5.76223e-16 -4.67198e-22 2.26925e-22 -2.20621e-22 -4.29317e-22 -2.0901e-22 -2.03651e-22 -1.98559e-22 -3.87433e-22 -1.89104e-22 -3.69413e-22 -3.61017e-22 0 -1.7266e-22 3.37973e-22 -1.65466e-22 1.62089e-22 0 0 0.163268 0.184261 0.208045 0.22432 0.237052 0.258296 0.260588 0.280861 0.291093 0.296168 0.312772 0.321806 0.326961 0.324049 0.347671 0.349471 0.358906 0.356285 0.368733 0.382561 0.387564 0.395222 0.396139 0.401486 0.409213 0.401949 0.358983 0.251536 0.0777086 0.00261752 1.30951e-06 2.59425e-11 4.7922e-16 9.34396e-22 -2.26925e-22 -4.41243e-22 2.14659e-22 0 -2.03651e-22 1.98559e-22 0 1.89104e-22 1.84706e-22 -1.80508e-22 -1.76497e-22 -1.7266e-22 0 -1.65466e-22 -1.62089e-22 0 0 0.140244 0.158277 0.178707 0.192687 0.203624 0.221872 0.223841 0.241255 0.250044 0.254403 0.268666 0.276426 0.280854 0.278353 0.298643 0.30019 0.308294 0.306042 0.316735 0.328613 0.332911 0.339489 0.340276 0.34487 0.351507 0.345267 0.30836 0.216065 0.0667504 0