<?xml version="1.0"?>
<VTKFile type="PolyData">
	<PolyData>
		<Piece NumberOfPoints="2601" NumberOfPolys="2500">
			<Points>
				<DataArray type="Float32" NumberOfComponents="3" format="ascii">
 1e-06 0 0 0.27857 0 0 0.31683 0 0 0.352697 0 0 0.381327 0 0 0.405067 0 0 0.42545 0 0 0.442922 0 0 0.459542 0 0 0.474693 0 0 0.488064 0 0 0.500384 0 0 0.511652 0 0 0.522172 0 0 0.532 0 0 0.540909 0 0 0.549144 0 0 0.556583 0 0 0.56388 0 0 0.570736 0 0 0.577182 0 0 0.583056 0 0 0.588526 0 0 0.593783 0 0 0.59875 0 0 0.603545 0 0 0.60804 0 0 0.61218 0 0 0.616123 0 0 0.619929 0 0 0.624451 0 0 0.631225 0 0 0.642656 0 0 0.660129 0 0 0.680001 0 0 0.700001 0 0 0.720001 0 0 0.740001 0 0 0.760001 0 0 0.780001 0 0 0.800001 0 0 0.820001 0 0 0.840001 0 0 0.860001 0 0 0.880001 0 0 0.900001 0 0 0.920001 0 0 0.940001 0 0 0.960001 0 0 0.980001 0 0 1 0 0 9.99507e-07 3.14108e-08 0 0.278433 0.00875011 0 0.316673 0.00995186 0 0.352523 0.0110785 0 0.381139 0.0119778 0 0.404867 0.0127235 0 0.42524 0.0133637 0 0.442703 0.0139125 0 0.459316 0.0144346 0 0.474459 0.0149105 0 0.487823 0.0153305 0 0.500137 0.0157174 0 0.5114 0.0160714 0 0.521914 0.0164018 0 0.531738 0.0167105 0 0.540642 0.0169904 0 0.548873 0.017249 0 0.556308 0.0174827 0 0.563602 0.0177119 0 0.570454 0.0179272 0 0.576897 0.0181297 0 0.582768 0.0183142 0 0.588236 0.018486 0 0.59349 0.0186512 0 0.598455 0.0188072 0 0.603247 0.0189578 0 0.60774 0.019099 0 0.611878 0.019229 0 0.615819 0.0193529 0 0.619624 0.0194725 0 0.624143 0.0196145 0 0.630913 0.0198273 0 0.642339 0.0201863 0 0.659803 0.0207352 0 0.679666 0.0213594 0 0.699656 0.0219876 0 0.719646 0.0226158 0 0.739636 0.023244 0 0.759626 0.0238722 0 0.779616 0.0245004 0 0.799606 0.0251286 0 0.819596 0.0257569 0 0.839587 0.0263851 0 0.859577 0.0270133 0 0.879567 0.0276415 0 0.899557 0.0282697 0 0.919547 0.0288979 0 0.939537 0.0295261 0 0.959527 0.0301544 0 0.979517 0.0307826 0 0.999508 0.0314108 0 9.98027e-07 6.27905e-08 0 0.278021 0.0174916 0 0.316205 0.0198939 0 0.352001 0.022146 0 0.380574 0.0239437 0 0.404268 0.0254344 0 0.42461 0.0267142 0 0.442048 0.0278113 0 0.458636 0.0288549 0 0.473756 0.0298062 0 0.487101 0.0306458 0 0.499396 0.0314193 0 0.510642 0.0321269 0 0.521142 0.0327875 0 0.530951 0.0334046 0 0.539841 0.0339639 0 0.54806 0.034481 0 0.555485 0.0349481 0 0.562767 0.0354063 0 0.56961 0.0358368 0 0.576043 0.0362416 0 0.581905 0.0366104 0 0.587365 0.0369539 0 0.592611 0.0372839 0 0.597569 0.0375958 0 0.602354 0.0378969 0 0.60684 0.0381791 0 0.610972 0.0384391 0 0.614908 0.0386867 0 0.618706 0.0389257 0 0.623218 0.0392096 0 0.629979 0.0396349 0 0.641388 0.0403527 0 0.658826 0.0414498 0 0.678659 0.0426976 0 0.69862 0.0439534 0 0.71858 0.0452092 0 0.738541 0.046465 0 0.758501 0.0477209 0 0.778462 0.0489767 0 0.798422 0.0502325 0 0.818383 0.0514883 0 0.838343 0.0527441 0 0.858304 0.0539999 0 0.878265 0.0552557 0 0.898225 0.0565115 0 0.918186 0.0577673 0 0.938146 0.0590232 0 0.958107 0.060279 0 0.978067 0.0615348 0 0.998028 0.0627906 0 9.95562e-07 9.41083e-08 0 0.277334 0.0262158 0 0.315424 0.0298163 0 0.351132 0.0331917 0 0.379635 0.035886 0 0.403269 0.0381202 0 0.423562 0.0400384 0 0.440956 0.0416826 0 0.457503 0.0432468 0 0.472586 0.0446726 0 0.485898 0.0459309 0 0.498163 0.0470903 0 0.509381 0.0481507 0 0.519855 0.0491407 0 0.529639 0.0500657 0 0.538508 0.050904 0 0.546707 0.051679 0 0.554113 0.0523791 0 0.561377 0.0530658 0 0.568203 0.053711 0 0.57462 0.0543176 0 0.580468 0.0548704 0 0.585914 0.0553852 0 0.591147 0.0558799 0 0.596093 0.0563474 0 0.600866 0.0567986 0 0.605341 0.0572216 0 0.609463 0.0576112 0 0.613389 0.0579823 0 0.617178 0.0583405 0 0.621679 0.058766 0 0.628424 0.0594035 0 0.639804 0.0604793 0 0.657199 0.0621236 0 0.676983 0.0639938 0 0.696894 0.0658759 0 0.716806 0.0677581 0 0.736717 0.0696402 0 0.756628 0.0715224 0 0.776539 0.0734046 0 0.796451 0.0752867 0 0.816362 0.0771689 0 0.836273 0.0790511 0 0.856184 0.0809332 0 0.876096 0.0828154 0 0.896007 0.0846976 0 0.915918 0.0865797 0 0.935829 0.0884619 0 0.95574 0.0903441 0 0.975652 0.0922262 0 0.995563 0.0941084 0 9.92115e-07 1.25333e-07 0 0.276374 0.0349141 0 0.314331 0.0397093 0 0.349916 0.0442047 0 0.37832 0.0477929 0 0.401873 0.0507683 0 0.422095 0.053323 0 0.439429 0.0555128 0 0.455919 0.0575959 0 0.47095 0.0594948 0 0.484215 0.0611706 0 0.496438 0.0627147 0 0.507618 0.064127 0 0.518055 0.0654455 0 0.527805 0.0666773 0 0.536643 0.0677938 0 0.544813 0.068826 0 0.552194 0.0697583 0 0.559434 0.0706729 0 0.566236 0.0715322 0 0.572631 0.0723401 0 0.578458 0.0730763 0 0.583885 0.0737619 0 0.589101 0.0744207 0 0.594029 0.0750433 0 0.598786 0.0756442 0 0.603245 0.0762076 0 0.607353 0.0767265 0 0.611265 0.0772207 0 0.615041 0.0776978 0 0.619527 0.0782644 0 0.626248 0.0791135 0 0.637589 0.0805462 0 0.654924 0.0827361 0 0.674639 0.0852268 0 0.694481 0.0877334 0 0.714324 0.0902401 0 0.734166 0.0927467 0 0.754008 0.0952534 0 0.77385 0.09776 0 0.793693 0.100267 0 0.813535 0.102773 0 0.833377 0.10528 0 0.85322 0.107787 0 0.873062 0.110293 0 0.892904 0.1128 0 0.912747 0.115307 0 0.932589 0.117813 0 0.952431 0.12032 0 0.972273 0.122827 0 0.992116 0.125333 0 9.87688e-07 1.56434e-07 0 0.275141 0.043578 0 0.312929 0.0495631 0 0.348355 0.055174 0 0.376632 0.0596527 0 0.40008 0.0633664 0 0.420212 0.066555 0 0.437469 0.0692883 0 0.453885 0.0718883 0 0.468849 0.0742584 0 0.482055 0.07635 0 0.494223 0.0782772 0 0.505353 0.08004 0 0.515743 0.0816857 0 0.525451 0.0832232 0 0.534249 0.0846168 0 0.542383 0.085905 0 0.54973 0.0870687 0 0.556938 0.0882102 0 0.563709 0.0892828 0 0.570076 0.0902912 0 0.575878 0.09121 0 0.58128 0.0920658 0 0.586472 0.0928881 0 0.591379 0.0936652 0 0.596114 0.0944152 0 0.600554 0.0951184 0 0.604643 0.0957661 0 0.608538 0.0963829 0 0.612297 0.0969783 0 0.616763 0.0976856 0 0.623454 0.0987453 0 0.634744 0.100534 0 0.652002 0.103267 0 0.671629 0.106376 0 0.691383 0.109504 0 0.711137 0.112633 0 0.73089 0.115762 0 0.750644 0.11889 0 0.770398 0.122019 0 0.790152 0.125148 0 0.809905 0.128276 0 0.829659 0.131405 0 0.849413 0.134534 0 0.869167 0.137662 0 0.88892 0.140791 0 0.908674 0.14392 0 0.928428 0.147049 0 0.948182 0.150177 0 0.967936 0.153306 0 0.987689 0.156435 0 9.82287e-07 1.87381e-07 0 0.273636 0.0521989 0 0.311218 0.059368 0 0.34645 0.0660889 0 0.374573 0.0714535 0 0.397892 0.075902 0 0.417914 0.0797214 0 0.435077 0.0829953 0 0.451403 0.0861097 0 0.466285 0.0889486 0 0.479419 0.0914541 0 0.49152 0.0937625 0 0.502589 0.095874 0 0.512923 0.0978453 0 0.522577 0.0996869 0 0.531328 0.101356 0 0.539417 0.102899 0 0.546724 0.104293 0 0.553892 0.105661 0 0.560627 0.106945 0 0.566959 0.108153 0 0.572728 0.109254 0 0.578102 0.110279 0 0.583265 0.111264 0 0.588145 0.112195 0 0.592855 0.113093 0 0.59727 0.113935 0 0.601337 0.114711 0 0.60521 0.11545 0 0.608949 0.116163 0 0.61339 0.11701 0 0.620044 0.11828 0 0.631273 0.120422 0 0.648436 0.123696 0 0.667957 0.12742 0 0.687602 0.131167 0 0.707248 0.134915 0 0.726894 0.138662 0 0.746539 0.14241 0 0.766185 0.146158 0 0.785831 0.149905 0 0.805477 0.153653 0 0.825122 0.1574 0 0.844768 0.161148 0 0.864414 0.164896 0 0.88406 0.168643 0 0.903705 0.172391 0 0.923351 0.176139 0 0.942997 0.179886 0 0.962642 0.183634 0 0.982288 0.187382 0 9.75917e-07 2.18143e-07 0 0.271862 0.0607683 0 0.309199 0.0691143 0 0.344203 0.0769385 0 0.372143 0.0831839 0 0.395312 0.0883626 0 0.415204 0.092809 0 0.432255 0.0966204 0 0.448475 0.100246 0 0.463261 0.103551 0 0.47631 0.106468 0 0.488333 0.109155 0 0.49933 0.111613 0 0.509596 0.113908 0 0.519188 0.116052 0 0.527882 0.117996 0 0.535918 0.119792 0 0.543178 0.121415 0 0.5503 0.123007 0 0.556991 0.124502 0 0.563282 0.125908 0 0.569014 0.12719 0 0.574352 0.128383 0 0.579482 0.12953 0 0.584331 0.130613 0 0.58901 0.131659 0 0.593396 0.13264 0 0.597437 0.133543 0 0.601285 0.134403 0 0.605 0.135233 0 0.609412 0.13622 0 0.616023 0.137697 0 0.627179 0.140191 0 0.644231 0.144003 0 0.663625 0.148338 0 0.683143 0.1527 0 0.702661 0.157063 0 0.722179 0.161426 0 0.741698 0.165789 0 0.761216 0.170152 0 0.780734 0.174515 0 0.800253 0.178878 0 0.819771 0.183241 0 0.839289 0.187603 0 0.858808 0.191966 0 0.878326 0.196329 0 0.897844 0.200692 0 0.917363 0.205055 0 0.936881 0.209418 0 0.956399 0.213781 0 0.975918 0.218143 0 9.68583e-07 2.4869e-07 0 0.269819 0.0692777 0 0.306876 0.0787924 0 0.341617 0.0877122 0 0.369347 0.0948321 0 0.392341 0.100736 0 0.412084 0.105805 0 0.429007 0.11015 0 0.445105 0.114284 0 0.45978 0.118051 0 0.472731 0.121377 0 0.484663 0.12444 0 0.495578 0.127243 0 0.505767 0.129859 0 0.515287 0.132303 0 0.523915 0.134519 0 0.531891 0.136566 0 0.539097 0.138417 0 0.546165 0.140231 0 0.552805 0.141936 0 0.559049 0.143539 0 0.564738 0.145 0 0.570036 0.14636 0 0.575128 0.147668 0 0.57994 0.148903 0 0.584584 0.150096 0 0.588937 0.151213 0 0.592947 0.152243 0 0.596767 0.153224 0 0.600453 0.15417 0 0.604832 0.155295 0 0.611394 0.156979 0 0.622466 0.159822 0 0.63939 0.164167 0 0.658638 0.169109 0 0.678009 0.174083 0 0.697381 0.179057 0 0.716753 0.184031 0 0.736124 0.189005 0 0.755496 0.193978 0 0.774867 0.198952 0 0.794239 0.203926 0 0.813611 0.2089 0 0.832982 0.213874 0 0.852354 0.218847 0 0.871726 0.223821 0 0.891097 0.228795 0 0.910469 0.233769 0 0.929841 0.238743 0 0.949212 0.243716 0 0.968584 0.24869 0 9.60294e-07 2.78991e-07 0 0.267509 0.0777187 0 0.30425 0.0883927 0 0.338693 0.0983994 0 0.366186 0.106387 0 0.388983 0.11301 0 0.408557 0.118697 0 0.425335 0.123571 0 0.441296 0.128208 0 0.455845 0.132435 0 0.468685 0.136166 0 0.480515 0.139603 0 0.491336 0.142746 0 0.501439 0.145681 0 0.510877 0.148423 0 0.519431 0.150909 0 0.527339 0.153206 0 0.534483 0.155282 0 0.54149 0.157317 0 0.548074 0.15923 0 0.554264 0.161029 0 0.559905 0.162667 0 0.565158 0.164194 0 0.570206 0.16566 0 0.574976 0.167046 0 0.57958 0.168384 0 0.583897 0.169638 0 0.587873 0.170793 0 0.591659 0.171893 0 0.595314 0.172955 0 0.599656 0.174216 0 0.606161 0.176106 0 0.617139 0.179295 0 0.633918 0.18417 0 0.653001 0.189714 0 0.672207 0.195294 0 0.691412 0.200874 0 0.710618 0.206454 0 0.729824 0.212034 0 0.74903 0.217613 0 0.768236
[...]
			<PointData Scalars="VitesseX">
				<DataArray Name="VitesseX" type="Float32" format="ascii">
 0 0.558827 0.864871 0.799152 0.94827 0.945987 1.00321 1.0537 1.06355 1.14467 1.15977 1.19566 1.26274 1.28466 1.3233 1.35047 1.40711 1.43385 1.43037 1.44895 1.50357 1.51803 1.56188 1.55157 1.56388 1.60046 1.6261 1.65861 1.68663 1.66284 1.52634 1.1809 0.562107 0.0561841 0.000217244 7.98112e-09 2.05167e-13 1.28752e-22 0 0 0 0 0 0 0 0 0 0 0 0 0 0 0.558552 0.864445 0.798758 0.947802 0.94552 1.00271 1.05318 1.06303 1.14411 1.1592 1.19507 1.26211 1.28403 1.32264 1.34981 1.40642 1.43314 1.42966 1.44824 1.50283 1.51728 1.5611 1.55081 1.56311 1.59967 1.6253 1.6578 1.68579 1.66202 1.52559 1.18032 0.56183 0.0561564 0.000217136 7.97718e-09 2.05069e-13 1.27413e-22 0 0 4.96515e-22 4.84405e-22 -4.72871e-22 -4.61874e-22 0 0 4.31752e-22 -4.22566e-22 0 8.10637e-22 0 0 0.557725 0.863165 0.797575 0.946399 0.94412 1.00123 1.05162 1.06145 1.14241 1.15748 1.1933 1.26024 1.28212 1.32068 1.34781 1.40433 1.43102 1.42754 1.44609 1.5006 1.51503 1.55879 1.54851 1.56079 1.5973 1.62289 1.65534 1.6833 1.65956 1.52333 1.17857 0.560998 0.0560732 0.000216815 7.96537e-09 2.04752e-13 1.29424e-22 0 0 0 0 -4.72871e-22 0 0 0 4.31752e-22 -8.45132e-22 0 0 0 0 0.556347 0.861033 0.795605 0.944062 0.941789 0.998757 1.04902 1.05883 1.13959 1.15462 1.19036 1.25713 1.27896 1.31742 1.34448 1.40087 1.42749 1.42402 1.44252 1.4969 1.51129 1.55494 1.54469 1.55694 1.59335 1.61888 1.65125 1.67914 1.65546 1.51957 1.17566 0.559613 0.0559347 0.000216279 7.9457e-09 2.04243e-13 1.26073e-22 0 0 0 0 0 0 0 8.82693e-22 4.31752e-22 -4.22566e-22 0 0 0 0 0.554421 0.858051 0.79285 0.940793 0.938528 0.995299 1.04539 1.05517 1.13564 1.15063 1.18623 1.25278 1.27453 1.31286 1.33982 1.39601 1.42254 1.41909 1.43753 1.49171 1.50606 1.54956 1.53934 1.55155 1.58784 1.61328 1.64553 1.67333 1.64973 1.51431 1.17159 0.557675 0.0557411 0.00021553 7.91818e-09 2.0349e-13 1.28755e-22 5.22647e-22 0 0 0 0 0 -4.51377e-22 4.41347e-22 -8.63504e-22 0 -4.13762e-22 -4.05318e-22 0 0 0.551947 0.854223 0.789313 0.936595 0.93434 0.990858 1.04073 1.05046 1.13058 1.14549 1.18094 1.24719 1.26884 1.307 1.33385 1.38979 1.4162 1.41276 1.43111 1.48506 1.49934 1.54265 1.53247 1.54463 1.58075 1.60608 1.63819 1.66586 1.64237 1.50755 1.16637 0.555187 0.0554924 0.000214569 7.88286e-09 2.02567e-13 -4.09361e-22 -5.22647e-22 0 4.96515e-22 0 -4.72871e-22 0 0 4.41347e-22 0 8.45132e-22 -4.13762e-22 0 0 0 0.548929 0.849552 0.784997 0.931474 0.929231 0.98544 1.03503 1.04471 1.1244 1.13923 1.17448 1.24037 1.2619 1.29986 1.32655 1.38219 1.40845 1.40503 1.42329 1.47694 1.49114 1.53421 1.52409 1.53618 1.57211 1.5973 1.62923 1.65675 1.63338 1.49931 1.15999 0.552151 0.0551889 0.000213396 7.83975e-09 2.01465e-13 1.25401e-22 5.22647e-22 0 0 0 4.72871e-22 0 -4.51377e-22 -4.41347e-22 0 8.45132e-22 -4.13762e-22 4.05318e-22 0 0 0.545369 0.844042 0.779906 0.925433 0.923205 0.979049 1.02832 1.03794 1.1171 1.13184 1.16687 1.23232 1.25372 1.29143 1.31795 1.37322 1.39932 1.39592 1.41406 1.46736 1.48147 1.52426 1.51421 1.52622 1.56191 1.58694 1.61867 1.64601 1.62279 1.48959 1.15246 0.54857 0.054831 0.000212012 7.78891e-09 2.00141e-13 1.22051e-22 0 -5.09246e-22 0 0 -4.72871e-22 4.61874e-22 0 -4.41347e-22 -4.31752e-22 -4.22566e-22 0 0 0 0 0.541271 0.8377 0.774045 0.918479 0.916267 0.971692 1.02059 1.03014 1.10871 1.12333 1.1581 1.22306 1.2443 1.28172 1.30805 1.3629 1.3888 1.38543 1.40343 1.45633 1.47034 1.51281 1.50283 1.51475 1.55017 1.57501 1.60651 1.63364 1.6106 1.47839 1.1438 0.544448 0.054419 0.000210418 7.73038e-09 1.98633e-13 6.55473e-22 0 0 0 0 0 4.61874e-22 9.02754e-22 -4.41347e-22 0 0 0 4.05318e-22 0 0 0.536638 0.83053 0.767421 0.910618 0.908425 0.963376 1.01186 1.02132 1.09922 1.11372 1.14819 1.2126 1.23365 1.27075 1.29685 1.35124 1.37692 1.37357 1.39142 1.44387 1.45775 1.49986 1.48997 1.50178 1.53691 1.56153 1.59276 1.61966 1.59681 1.46574 1.13401 0.539788 0.0539532 0.000208618 7.66422e-09 1.96869e-13 6.55473e-22 -5.22647e-22 0 0 0 -9.45743e-22 -9.23749e-22 9.02754e-22 4.41347e-22 4.31752e-22 0 0 4.05318e-22 0 0 0.531476 0.822541 0.760039 0.901859 0.899687 0.954109 1.00213 1.0115 1.08865 1.10301 1.13714 1.20093 1.22178 1.25853 1.28438 1.33824 1.36367 1.36036 1.37803 1.42998 1.44373 1.48543 1.47563 1.48734 1.52212 1.54651 1.57744 1.60408 1.58145 1.45164 1.12311 0.534596 0.0534342 0.000206611 7.59049e-09 1.9489e-13 1.2205e-22 0 5.09246e-22 -4.96515e-22 9.68809e-22 4.72871e-22 0 0 0 -4.31752e-22 -4.22566e-22 -4.13762e-22 4.05318e-22 0 0 0.52579 0.813741 0.751907 0.892209 0.890061 0.943901 0.991405 1.00068 1.077 1.09121 1.12498 1.18808 1.20871 1.24506 1.27063 1.32392 1.34908 1.3458 1.36329 1.41468 1.42829 1.46954 1.45984 1.47142 1.50584 1.52997 1.56056 1.58691 1.56453 1.43611 1.11109 0.528876 0.0528625 0.0002044 7.50928e-09 1.92862e-13 -4.14055e-22 5.22647e-22 5.09246e-22 -4.96515e-22 -4.84405e-22 -4.72871e-22 0 -4.51377e-22 4.41347e-22 4.31752e-22 -4.22566e-22 -4.13762e-22 8.10637e-22 0 0 0.519585 0.804137 0.743033 0.881679 0.879557 0.932761 0.979704 0.988866 1.06429 1.07833 1.1117 1.17406 1.19445 1.23037 1.25564 1.3083 1.33316 1.32992 1.3472 1.39798 1.41143 1.4522 1.44262 1.45406 1.48807 1.51191 1.54214 1.56818 1.54607 1.41916 1.09798 0.522634 0.0522386 0.000201988 7.42066e-09 1.90593e-13 -1.48686e-22 5.22647e-22 -5.09246e-22 0 -4.84405e-22 0 4.61874e-22 -4.51377e-22 -4.41347e-22 -4.31752e-22 -4.22566e-22 -4.13762e-22 0 0 0 0.512866 0.79374 0.733425 0.870279 0.868184 0.9207 0.967037 0.97608 1.05053 1.06438 1.09733 1.15888 1.179 1.21446 1.2394 1.29138 1.31592 1.31273 1.32978 1.37991 1.39318 1.43342 1.42396 1.43526 1.46883 1.49236 1.5222 1.54791 1.52608 1.40081 1.08378 0.515877 0.0515632 0.000199376 7.32471e-09 1.8805e-13 -1.47679e-22 0 5.09246e-22 4.96515e-22 0 0 0 0 8.82693e-22 0 4.22566e-22 0 -4.05318e-22 0 0 0.505642 0.782559 0.723094 0.858021 0.855955 0.907731 0.953415 0.962331 1.03573 1.04939 1.08187 1.14256 1.16239 1.19735 1.22194 1.27319 1.29739 1.29423 1.31105 1.36047 1.37355 1.41323 1.4039 1.41504 1.44814 1.47134 1.50076 1.5261 1.50458 1.38108 1.06851 0.50861 0.0508369 0.000196568 7.22153e-09 1.85473e-13 3.80714e-22 -2.61324e-22 -2.54623e-22 0 0 4.72871e-22 0 0 0 -4.31752e-22 0 4.13762e-22 -4.05318e-22 0 0 0.497919 0.770606 0.71205 0.844915 0.842881 0.893866 0.938853 0.947632 1.01991 1.03336 1.06534 1.12511 1.14464 1.17907 1.20328 1.25374 1.27757 1.27447 1.29102 1.33969 1.35257 1.39164 1.38246 1.39343 1.42602 1.44887 1.47784 1.50279 1.4816 1.35998 1.05219 0.500841 0.0500604 0.000193565 7.11123e-09 1.82656e-13 1.10648e-22 0 0 -4.96515e-22 -2.42202e-22 0 4.61874e-22 0 0 4.31752e-22 0 4.13762e-22 4.05318e-22 0 0 0.489704 0.757892 0.700302 0.830976 0.828975 0.879119 0.923363 0.931998 1.00308 1.01631 1.04777 1.10654 1.12576 1.15961 1.18343 1.23306 1.25649 1.25344 1.26973 1.31759 1.33026 1.36868 1.35965 1.37044 1.40249 1.42496 1.45345 1.478 1.45716 1.33755 1.03483 0.492579 0.0492345 0.000190372 6.99391e-09 1.79633e-13 6.46079e-22 7.83971e-22 5.09246e-22 2.48257e-22 4.84405e-22 -4.72871e-22 -4.61874e-22 2.25689e-22 -4.41347e-22 -4.31752e-22 0 0 -4.05318e-22 0 0 0.481006 0.744431 0.687864 0.816216 0.814251 0.863505 0.906963 0.915445 0.985266 0.998263 1.02916 1.08689 1.10576 1.13902 1.16241 1.21116 1.23417 1.23118 1.24717 1.29419 1.30663 1.34437 1.3355 1.3461 1.37758 1.39965 1.42764 1.45175 1.43127 1.31379 1.01645 0.48383 0.04836 0.000186991 6.86968e-09 1.76442e-13 -4.22437e-22 0 -2.54623e-22 -2.48257e-22 7.26607e-22 2.36436e-22 0 0 0 4.31752e-22 4.22566e-22 4.13762e-22 -4.05318e-22 0 0 0.471834 0.730235 0.674746 0.800651 0.798723 0.847038 0.889667 0.897987 0.966478 0.979227 1.00953 1.06616 1.08467 1.1173 1.14024 1.18806 1.21064 1.2077 1.22339 1.26951 1.28171 1.31874 1.31004 1.32043 1.35131 1.37296 1.40041 1.42407 1.40398 1.28874 0.99707 0.474603 0.0474378 0.000183425 6.73868e-09 1.73116e-13 9.10776e-22 -7.83971e-22 7.63869e-22 -7.44772e-22 4.84405e-22 -7.09307e-22 4.61874e-22 0 -4.41347e-22 -2.15876e-22 -2.11283e-22 0 -4.05318e-22 0 0 0.462195 0.715318 0.660963 0.784296 0.782408 0.829735 0.871494 0.879644 0.946735 0.959224 0.98891 1.04438 1.06252 1.09447 1.11695 1.16379 1.18591 1.18303 1.1984 1.24357 1.25553 1.2918 1.28328 1.29345 1.32371 1.34492 1.37181 1.39498 1.3753 1.26241 0.976703 0.464908 0.0464688 0.000179678 6.60103e-09 1.69603e-13 -6.97863e-22 -2.61324e-22 -2.54623e-22 -2.48257e-22 4.84405e-22 -1.18218e-21 4.61874e-22 4.51377e-22 -4.41347e-22 2.15876e-22 -4.22566e-22 4.13762e-22 -4.05318e-22 0 0 0.452101 0.699696 0.646528 0.767167 0.76532 0.811614 0.85246 0.860432 0.926058 0.938274 0.967312 1.02157 1.03931 1.07057 1.09256 1.13838 1.16001 1.15719 1.17223 1.21641 1.22811 1.26358 1.25525 1.2652 1.2948 1.31554 1.34185 1.36451 1.34526 1.23484 0.955372 0.454754 0.0454539 0.000175754 6.45686e-09 1.65889e-13 -1.626e-22 -2.61324e-22 -2.54623e-22 2.48257e-22 9.68809e-22 0 -2.30937e-22 4.51377e-22 2.20673e-22 -4.31752e-22 -4.22566e-22 0 0 0 0 0.44156 0.683382 0.631454 0.749281 0.747476 0.792691 0.832585 0.840372 0.904468 0.916399 0.944759 0.997757 1.01508 1.04561 1.06708 1.11184 1.13296 1.13021 1.1449 1.18805 1.19948 1.23412 1.22598 1.23571 1.26461 1.28487 1.31056 1.3327 1.3139 1.20605 0.933097 0.444152 0.0443941 0.000171656 6.30632e-09 1.62019e-13 2.36963e-22 -1.30662e-22 2.54623e-22 -4.96515e-22 -7.26607e-22 9.45743e-22 0 -6.77066e-22 0 0 -2.11283e-22 -4.13762e-22 -4.05318e-22 0 0 0.430584 0.666395 0.615757 0.730655 0.728896 0.772986 0.811889 0.819481 0.881984 0.893619 0.921274 0.972955 0.989847 1.01962 1.04056 1.0842 1.1048 1.10212 1.11644 1.15852 1.16966 1.20345 1.19551 1.20499 1.23317 1.25293 1.27798 1.29957 1.28124 1.17607 0.909902 0.433111 0.0432906 0.000167389 6.14956e-09 1.57914e-13 5.03505e-22 -1.04529e-21 6.36557e-22 2.48257e-22 0 -4.72871e-22 2.30937e-22 4.51377e-22 6.6202e-22 -2.15876e-22 6.33849e-22 6.20644e-22 -2.02659e-22 0 0 0.419183 0.64875 0.599453 0.711308 0.709595 0.752519 0.790391 0.797783 0.85863 0.869957 0.89688 0.947192 0.963637 0.992619 1.013 1.05549 1.07555 1.07293 1.08687 1.12784 1.13869 1.17158 1.16385 1.17308 1.20052 1.21976 1.24414 1.26516 1.24731 1.14493 0.885809 0.421643 0.0421443 0.000162957 5.98673e-09 1.53708e-13 3.66796e-22 -3.91985e-22 3.81934e-22 1.24129e-22 8.47708e-22 1.18218e-22 -4.61874e-22 -2.25689e-22 0 -6.47628e-22 -2.11283e-22 0 -2.02659e-22 0 0 0.407368 0.630464 0.582557 0.691259 0.689595 0.731308 0.768113 0.775297 0.834429 0.845436 0.871601 0.920495 0.936476 0.964641 0.984453 1.02574 1.04523 1.04269 1.05624 1.09606 1.1066 1.13856 1.13105 1.14002 1.16668 1.18538 1.20908 1.2295 1.21216 1.11266 0.860842 0.409759 0.0409564 0.000158364 5.81798e-09 1.49451e-13 -1.05562e-22 -2.61324e-22 -2.54623e-22 -4.96515e-22 0 2.36436e-22 2.30937e-22 -2.25689e-22 0 0 -2.11283e-22 2.06881e-22 2.02659e-22 0 0 0.395151 0.611556 0.565086 0.670528 0.668914 0.709376 0.745078 0.752045 0.809405 0.820082 0.845461 0.892889 0.908391 0.935712 0.954929 0.994977 1.01388 1.01142 1.02456 1.06318 1.07341 1.10441 1.09713 1.10583 1.13169 1.14983 1.17282 1.19262 1.1758 1.07929 0.835025 0.39747 0.0397282 0.000153614 5.6435e-09 1.45028e-13 3.4912e-22 -5.87978e-22 -6.36557e-23 -8.68901e-22 -3.63304e-22 3.54653e-22 2.30937e-22 -2.25689e-22 0 2.15876e-22 -1.05641e-22 -2.06881e-22 4.05318e-22 0 0 0.382544 0.592045 0.547057 0.649136 0.647573 0.686744 0.721306 0.728052 0.783581 0.793918 0.818488 0.864402 0.87941 0.905858 0.924462 0.963233 0.981537 0.979153 0.991875 1.02926 1.03916 1.06918 1.06212 1.07055 1.09559 1.11314 1.1354 1.15457 1.13829 1.04485 0.808385 0.384789 0.0384607 0.000148713 5.46345e-09 1.40238e-13 1.23618e-22 3.91985e-22 -2.54623e-22 3.72386e-22 2.42202e-22 1.18218e-22 -2.30937e-22 1.12844e-22 5.51683e-22 0 5.28207e-22 -6.20644e-22 5.06648e-22 0 0 0.369559 0.57195 0.528489 0.627102 0.625592 0.663434 0.696824 0.70334 0.756985 0.76697 0.790706 0.835062 0.84956 0.875111 0.893084 0.930539 0.948221 0.945918 0.958208 0.994329 1.00389 1.03289 1.02607 1.03421 1.0584 1.07536 1.09686 1.11539 1.09965 1.00939 0.780946 0.371728 0.0371552 0.000143666 5.27801e-09 1.35561e-13 2.13764e-22 1.30662e-22 6.36557e-22 -1.11716e-21 -3.02753e-22 -2.95545e-22 6.35077e-22 -5.64221e-23 0 2.15876e-22 4.22566e-22 -8.27525e-22 8.10637e-22 0 0 0.35621 0.55129 0.509399 0.60445 0.602995 0.63947 0.671653 0.677934 0.729641 0.739266 0.762144 0.804898 0.818873 0.843501 0.860824 0.896926 0.91397 0.91175 0.923596 0.958411 0.967629 0.995577 0.98901 0.996854 1.02017 1.03652 1.05724 1.0751 1.05993 0.972929 0.752737 0.358301 0.0358131 0.000138476 5.08736e-09 1.30728e-13 1.43708e-22 5.51229e-23 -2.22795e-22 5.58579e-22 1.21101e-21 -4.72871e-22 -1.44336e-21 2.25689e-22 -2.75842e-22 -4.85721e-22 2.11283e-22 -4.13762e-22 0 0 0 0.342509 0.530086 0.489806 0.581202 0.579802 0.614874 0.645819 0.651859 0.701577 0.710832 0.73283 0.77394 0.787377 0.811057 0.827714 0.862428 0.878816 0.876682 0.888072 0.921549 0.930411 0.957284 0.95097 0.958513 0.98093 0.996648 1.01658 1.03374 1.01916 0.935507 0.723784 0.34452 0.0344356 0.00013315 4.89168e-09 1.25724e-13 -9.4726e-23 -6.53309e-22 8.75267e-22 1.1831e-22 3.70872e-22 6.05866e-22 3.17539e-22 5.64221e-22 -7.72357e-22 -3.77783e-22 5.28207e-23 1.03441e-22 5.06648e-22 0 0 0.328471 0.508359 0.46973 0.557379 0.556037 0.589672 0.619349 0.625141 0.672821 0.681696 0.702793 0.742217 0.755104 0.777814 0.793788 0.827079 0.842795 0.840748 0.851672 0.883776 0.892276 0.918047 0.911991 0.919225 0.940724 0.955798 0.974909 0.991374 0.977391 0.897163 0.694118 0.330398 0.0330242 0.000127693 4.69118e-09 1.20557e-13 2.11477e-22 1.04529e-21 -6.68385e-22 3.72386e-22 4.69267e-22 8.12748e-23 3.35581e-22 -2.82111e-23 7.03396e-22 -3.23814e-22 5.81028e-22 2.58602e-22 -5.06648e-22 0 0 0.314108 0.48613 0.44919 0.533007 0.531724 0.563887 0.592267 0.597805 0.643401 0.651888 0.672062 0.709763 0.722086 0.743803 0.759078 0.790913 0.805943 0.803985 0.814431 0.845132 0.853259 0.877904 0.872113 0.87903 0.899589 0.914004 0.932279 0.948024 0.934653 0.857933 0.663767 0.315951 0.0315801 0.000122109 4.48605e-09 1.15149e-13 -3.27895e-22 -1.95993e-22 -5.09246e-22 -5.58579e-22 -9.08259e-23 -8.27525e-22 9.81483e-22 -4.65483e-22 -6.20644e-23 1.31549e-22 5.01797e-22 8.53385e-22 3.79986e-22 0 0 0.299435 0.463421 0.428207 0.508109 0.506885 0.537547 0.5646 0.56988 0.613345 0.621436 0.640668 0.676608 0.688355 0.709057 0.72362 0.753967 0.768295 0.766429 0.776387 0.805653 0.813401 0.836895 0.831374 0.837968 0.857567 0.871308 0.88873 0.903739 0.890993 0.817856 0.63276 0.301192 0.0301049 0.000116405 4.2765e-09 1.09922e-13 -3.32672e-22 1.30662e-22 -1.27311e-22 -3.72386e-22 -3.02753e-22 7.09307e-22 -4.61874e-22 -1.97478e-22 -1.93089e-22 4.85721e-22 3.03719e-22 -5.17203e-22 -4.96357e-22 0 0 0.284466 0.440255 0.406801 0.482709 0.481547 0.510675 0.536376 0.541392 0.582685 0.590371 0.608642 0.642785 0.653945 0.673612 0.687447 0.716277 0.729888 0.728116 0.737576 0.765379 0.77274 0.795059 0.789815 0.796079 0.814698 0.827752 0.844303 0.858562 0.846453 0.776973 0.601129 0.286136 0.0286 0.000110586 4.06272e-09 1.04383e-13 -3.35523e-22 -2.61324e-22 3.81934e-22 1.24129e-22 -7.26607e-22 -1.06396e-21 -5.19609e-22 -2.25689e-22 -3.86178e-22 -5.3969e-22 4.22566e-22 2.84462e-22 -2.78656e-22 0 0 0.269217 0.416655 0.384994 0.456833 0.455733 0.4833 0.507623 0.51237 0.551449 0.558724 0.576015 0.608328 0.618889 0.637503 0.650595 0.677881 0.690762 0.689084 0.698037 0.72435 0.731316 0.752439 0.747476 0.753404 0.771025 0.78338 0.799043 0.812538 0.801078 0.735322 0.568905 0.270797 0.0270669 0.000104658 3.84493e-09 9.87552e-14 6.26997e-23 0 0 0 -1.21101e-22 5.91089e-22 -3.46406e-22 -3.38533e-22 -3.3101e-22 -3.23814e-22 -3.69745e-22 2.58602e-22 -5.57313e-22 0 0 0.253702 0.392643 0.362807 0.430506 0.429469 0.455448 0.478369 0.482843 0.51967 0.526525 0.54282 0.57327 0.583223 0.600764 0.613102 0.638815 0.650954 0.649373 0.65781 0.682606 0.689171 0.709077 0.704399 0.709986 0.726592 0.738234 0.752995 0.765712 0.754912 0.692946 0.536119 0.255191 0.025507 9.86265e-05 3.62335e-09 9.31195e-14 -4.76423e-22 -2.61324e-22 -2.54623e-22 -2.48257e-22 -6.05506e-22 -2.36436e-22 -5.77343e-22 1.12844e-22 5.51683e-22 1.07938e-22 -1.05641e-22 2.58602e-22 0 0 0 0.237937 0.368244 0.340262 0.403754 0.402782 0.427146 0.448643 0.452839 0.487377 0.493806 0.509088 0.537647 0.546981 0.563432 0.575003 0.599118 0.610503 0.609021 0.616933 0.640189 0.646346 0.665014 0.660627 0.665867 0.681441 0.69236 0.706203 0.71813 0.708002 0.649886 0.502805 0.239334 0.023922 9.24978e-05 3.39819e-09 8.72505e-14 5.82379e-22 -5.22647e-22 -7.63869e-22 -7.44772e-22 -3.63304e-22 -3.54653e-22 -8.0828e-22 -4.51377e-22 6.6202e-22 4.31752e-22 -9.50773e-22 -9.30966e-22 1.0133e-22 0 0 0.221937 0.343482 0.317382 0.376604 0.375697 0.398423 0.418474 0.422388 0.454604 0.4606 0.474855 0.501493 0.5102 0.525544 0.536338 0.558831 0.56945 0.568067 0.575448 0.59714 0.602882 0.620296 0.616204 0.621091 0.635617 0.645802 0.658715 0.66984 0.660392 0.606185 0.468994 0.22324 0.0223134 8.62778e-05 3.16968e-09 8.14844e-14 5.81375e-22 5.22647e-22 5.09246e-22 4.96515e-22 0 0 4.61874e-22 0 1.10337e-22 7.55566e-22 3.16924e-22 -3.10322e-22 -2.02659e-22 0 0 0.205718 0.31838 0.294187 0.349082 0.348241 0.369306 0.387892 0.39152 0.421381 0.42694 0.440153 0.464844 0.472915 0.487138 0.497142 0.517992 0.527835 0.526553 0.533394 0.553501 0.558824 0.574965 0.571172 0.575702 0.589167 0.598607 0.610576 0.620888 0.612131 0.561885 0.43472 0.206926 0.0206827 7.99727e-05 2.93805e-09 7.55042e-14 4.79473e-23 7.83971e-22 -2.54623e-22 2.48257e-22 7.26607e-22 -2.36436e-22 0 -2.25689e-22 -2.20673e-22 2.15876e-22 2.11283e-22 -2.06881e-22 -4.05318e-22 0 0 0.189296 0.292965 0.270703 0.321215 0.320442 0.339825 0.356928 0.360266 0.387743 0.392858 0.405016 0.427736 0.435163 0.448251 0.457456 0.476642 0.485699 0.484519 0.490815 0.509316 0.514214 0.529066 0.525576 0.529745 0.542135 0.550822 0.561835 0.571324 0.563266 0.517031 0.400017 0.190407 0.0190317 7.35886e-05 2.70351e-09 6.94094e-14 -2.24463e-22 7.83971e-22 -5.09246e-22 -2.48257e-22 -2.42202e-22 -4.72871e-22 0 0 0 4.31752e-22 4.22566e-22 -4.13762e-22 -6.07978e-22 0 0 0.172687 0.26726 0.246952 0.293032 0.292326 0.310009 0.325611 0.328656 0.353723 0.358389 0.36948 0.390207 0.396982 0.408921 0.417319 0.434821 0.443084 0.442008 0.44775 0.464629 0.469097 0.482646 0.479462 0.483265 0.494568 0.502492 0.51254 0.521196 0.513845 0.471666 0.364919 0.173701 0.0173618 6.71319e-05 2.4663e-09 6.33891e-14 -4.93187e-22 -2.61324e-22 5.09246e-22 7.44772e-22 -4.84405e-22 4.72871e-22 -2.30937e-22 6.77066e-22 -4.41347e-22 -4.31752e-22 4.22566e-22 4.13762e-22 -8.10637e-22 0 0 0.155908 0.241291 0.222956 0.264559 0.263922 0.279887 0.293973 0.296722 0.319353 0.323566 0.333579 0.352292 0.358409 0.369188 0.37677 0.392571 0.400031 0.39906 0.404244 0.419483 0.423517 0.435749 0.432875 0.436308 0.446513 0.453667 0.462738 0.470554 0.463917 0.425837 0.329462 0.156823 0.0156749 6.0609e-05 2.22666e-09 5.72226e-14 5.69635e-22 2.61324e-22 -5.09246e-22 4.96515e-22 0 0 4.61874e-22 4.51377e-22 4.41347e-22 -6.47628e-22 2.11283e-22 4.13762e-22 0 0 0 0.138975 0.215085 0.198741 0.235825 0.235257 0.249488 0.262044 0.264495 0.284668 0.288423 0.297349 0.31403 0.319482 0.32909 0.335849 0.349934 0.356584 0.355718 0.360339 0.373923 0.377519 0.388423 0.38586 0.388921 0.398017 0.404395 0.41248 0.419447 0.413531 0.379586 0.293679 0.13979 0.0139724 5.40263e-05 1.98482e-09 5.10134e-14 -5.00566e-22 -2.61324e-22 -2.54623e-22 -2.48257e-22 -4.84405e-22 -2.36436e-22 -4.61874e-22 -4.51377e-22 0 -2.15876e-22 4.22566e-22 -2.06881e-22 2.02659e-22 0 0 0.121904 0.188666 0.17433 0.206859 0.206361 0.218843 0.229857 0.232007 0.249702 0.252996 0.260826 0.275457 0.28024 0.288668 0.294597 0.306952 0.312784 0.312025 0.316079 0.327994 0.331148 0.340713 0.338465 0.34115 0.349129 0.354723 0.361815 0.367926 0.362737 0.332962 0.257606 0.12262 0.0122562 4.73902e-05 1.74103e-09 4.47423e-14 2.96218e-22 0 -2.54623e-22 2.48257e-22 0 2.36436e-22 2.30937e-22 -2.25689e-22 -2.20673e-22 -2.15876e-22 0 -2.06881e-22 -2.02659e-22 0 0 0.104714 0.162061 0.149746 0.177688 0.17726 0.187983 0.197443 0.19929 0.21449 0.217319 0.224045 0.236613 0.240721 0.247961 0.253053 0.2636