<?xml version="1.0"?>
<VTKFile type="PolyData">
	<PolyData>
		<Piece NumberOfPoints="2601" NumberOfPolys="2500">
			<Points>
				<DataArray type="Float32" NumberOfComponents="3" format="ascii">
 1e-06 0 0 0.223982 0 0 0.253365 0 0 0.282799 0 0 0.304934 0 0 0.323834 0 0 0.339278 0 0 0.352794 0 0 0.365588 0 0 0.376868 0 0 0.386851 0 0 0.396105 0 0 0.404251 0 0 0.411641 0 0 0.418531 0 0 0.424895 0 0 0.430369 0 0 0.435597 0 0 0.440306 0 0 0.444731 0 0 0.44894 0 0 0.452826 0 0 0.457609 0 0 0.465707 0 0 0.480498 0 0 0.500004 0 0 0.520001 0 0 0.540001 0 0 0.560001 0 0 0.580001 0 0 0.600001 0 0 0.620001 0 0 0.640001 0 0 0.660001 0 0 0.680001 0 0 0.700001 0 0 0.720001 0 0 0.740001 0 0 0.760001 0 0 0.780001 0 0 0.800001 0 0 0.820001 0 0 0.840001 0 0 0.860001 0 0 0.880001 0 0 0.900001 0 0 0.920001 0 0 0.940001 0 0 0.960001 0 0 0.980001 0 0 1 0 0 9.99507e-07 3.14108e-08 0 0.223871 0.00703544 0 0.25324 0.0079584 0 0.282659 0.00888292 0 0.304784 0.00957822 0 0.323674 0.0101719 0 0.339111 0.010657 0 0.35262 0.0110815 0 0.365408 0.0114834 0 0.376682 0.0118377 0 0.38666 0.0121513 0 0.39591 0.012442 0 0.404051 0.0126978 0 0.411438 0.01293 0 0.418324 0.0131464 0 0.424685 0.0133463 0 0.430157 0.0135182 0 0.435382 0.0136824 0 0.440089 0.0138303 0 0.444512 0.0139693 0 0.448718 0.0141015 0 0.452603 0.0142236 0 0.457383 0.0143738 0 0.465477 0.0146282 0 0.480261 0.0150928 0 0.499757 0.0157055 0 0.519744 0.0163336 0 0.539735 0.0169618 0 0.559725 0.0175901 0 0.579715 0.0182183 0 0.599705 0.0188465 0 0.619695 0.0194747 0 0.639685 0.0201029 0 0.659675 0.0207311 0 0.679665 0.0213593 0 0.699656 0.0219876 0 0.719646 0.0226158 0 0.739636 0.023244 0 0.759626 0.0238722 0 0.779616 0.0245004 0 0.799606 0.0251286 0 0.819596 0.0257569 0 0.839587 0.0263851 0 0.859577 0.0270133 0 0.879567 0.0276415 0 0.899557 0.0282697 0 0.919547 0.0288979 0 0.939537 0.0295261 0 0.959527 0.0301544 0 0.979517 0.0307826 0 0.999508 0.0314108 0 9.98027e-07 6.27905e-08 0 0.22354 0.0140639 0 0.252866 0.0159089 0 0.282241 0.0177571 0 0.304333 0.019147 0 0.323195 0.0203337 0 0.338609 0.0213034 0 0.352098 0.0221521 0 0.364867 0.0229555 0 0.376124 0.0236637 0 0.386088 0.0242906 0 0.395324 0.0248716 0 0.403453 0.0253831 0 0.410829 0.0258472 0 0.417705 0.0262798 0 0.424056 0.0266794 0 0.42952 0.0270231 0 0.434738 0.0273514 0 0.439437 0.027647 0 0.443854 0.0279249 0 0.448054 0.0281892 0 0.451933 0.0284332 0 0.456706 0.0287335 0 0.464788 0.029242 0 0.47955 0.0301707 0 0.499017 0.0313955 0 0.518975 0.0326511 0 0.538935 0.0339069 0 0.558896 0.0351628 0 0.578857 0.0364186 0 0.598817 0.0376744 0 0.618778 0.0389302 0 0.638738 0.040186 0 0.658699 0.0414418 0 0.678659 0.0426976 0 0.69862 0.0439534 0 0.71858 0.0452092 0 0.738541 0.046465 0 0.758501 0.0477209 0 0.778462 0.0489767 0 0.798422 0.0502325 0 0.818383 0.0514883 0 0.838343 0.0527441 0 0.858304 0.0539999 0 0.878265 0.0552557 0 0.898225 0.0565115 0 0.918186 0.0577673 0 0.938146 0.0590232 0 0.958107 0.060279 0 0.978067 0.0615348 0 0.998028 0.0627906 0 9.95562e-07 9.41083e-08 0 0.222988 0.0210786 0 0.252241 0.0238438 0 0.281543 0.0266137 0 0.303581 0.0286968 0 0.322397 0.0304755 0 0.337772 0.0319289 0 0.351229 0.0332009 0 0.363966 0.0344049 0 0.375195 0.0354664 0 0.385134 0.0364059 0 0.394347 0.0372768 0 0.402457 0.0380433 0 0.409814 0.0387389 0 0.416673 0.0393872 0 0.423009 0.0399861 0 0.428459 0.0405013 0 0.433664 0.0409933 0 0.438352 0.0414364 0 0.442758 0.0418529 0 0.446947 0.0422489 0 0.450817 0.0426147 0 0.455578 0.0430648 0 0.46364 0.0438269 0 0.478366 0.0452189 0 0.497785 0.0470545 0 0.517693 0.0489364 0 0.537604 0.0508186 0 0.557516 0.0527007 0 0.577427 0.0545829 0 0.597338 0.0564651 0 0.617249 0.0583472 0 0.637161 0.0602294 0 0.657072 0.0621116 0 0.676983 0.0639937 0 0.696894 0.0658759 0 0.716806 0.0677581 0 0.736717 0.0696402 0 0.756628 0.0715224 0 0.776539 0.0734046 0 0.796451 0.0752867 0 0.816362 0.0771689 0 0.836273 0.0790511 0 0.856184 0.0809332 0 0.876096 0.0828154 0 0.896007 0.0846976 0 0.915918 0.0865797 0 0.935829 0.0884619 0 0.95574 0.0903441 0 0.975652 0.0922262 0 0.995563 0.0941084 0 9.92115e-07 1.25333e-07 0 0.222216 0.0280724 0 0.251368 0.0317551 0 0.280569 0.0354441 0 0.30253 0.0382184 0 0.32128 0.0405872 0 0.336603 0.0425228 0 0.350012 0.0442169 0 0.362706 0.0458204 0 0.373896 0.047234 0 0.3838 0.0484853 0 0.392982 0.0496451 0 0.401063 0.050666 0 0.408395 0.0515923 0 0.41523 0.0524558 0 0.421544 0.0532534 0 0.426976 0.0539396 0 0.432162 0.0545948 0 0.436834 0.0551849 0 0.441224 0.0557396 0 0.4454 0.0562671 0 0.449256 0.0567542 0 0.454001 0.0573536 0 0.462035 0.0583686 0 0.476709 0.0602224 0 0.496061 0.0626671 0 0.515901 0.0651734 0 0.535743 0.0676801 0 0.555585 0.0701867 0 0.575428 0.0726934 0 0.59527 0.0752001 0 0.615112 0.0777067 0 0.634954 0.0802134 0 0.654797 0.0827201 0 0.674639 0.0852267 0 0.694481 0.0877334 0 0.714324 0.0902401 0 0.734166 0.0927467 0 0.754008 0.0952534 0 0.77385 0.09776 0 0.793693 0.100267 0 0.813535 0.102773 0 0.833377 0.10528 0 0.85322 0.107787 0 0.873062 0.110293 0 0.892904 0.1128 0 0.912747 0.115307 0 0.932589 0.117813 0 0.952431 0.12032 0 0.972273 0.122827 0 0.992116 0.125333 0 9.87688e-07 1.56434e-07 0 0.221224 0.0350385 0 0.250246 0.0396351 0 0.279317 0.0442394 0 0.30118 0.0477022 0 0.319847 0.0506588 0 0.335101 0.0530748 0 0.348451 0.0551892 0 0.361087 0.0571906 0 0.372228 0.0589551 0 0.382088 0.0605168 0 0.391228 0.0619645 0 0.399274 0.0632387 0 0.406573 0.0643949 0 0.413378 0.0654726 0 0.419663 0.0664682 0 0.425071 0.0673246 0 0.430234 0.0681424 0 0.434885 0.068879 0 0.439256 0.0695713 0 0.443412 0.0702296 0 0.447251 0.0708376 0 0.451975 0.0715858 0 0.459973 0.0728526 0 0.474583 0.0751665 0 0.493848 0.0782178 0 0.513599 0.0813461 0 0.533353 0.0844748 0 0.553106 0.0876035 0 0.57286 0.0907321 0 0.592614 0.0938608 0 0.612368 0.0969895 0 0.632122 0.100118 0 0.651875 0.103247 0 0.671629 0.106376 0 0.691383 0.109504 0 0.711137 0.112633 0 0.73089 0.115762 0 0.750644 0.11889 0 0.770398 0.122019 0 0.790152 0.125148 0 0.809905 0.128276 0 0.829659 0.131405 0 0.849413 0.134534 0 0.869167 0.137662 0 0.88892 0.140791 0 0.908674 0.14392 0 0.928428 0.147049 0 0.948182 0.150177 0 0.967936 0.153306 0 0.987689 0.156435 0 9.82287e-07 1.87381e-07 0 0.220015 0.04197 0 0.248878 0.047476 0 0.277789 0.0529912 0 0.299533 0.057139 0 0.318098 0.0606804 0 0.333268 0.0635744 0 0.346545 0.0661071 0 0.359113 0.0685044 0 0.370192 0.0706179 0 0.379999 0.0724886 0 0.389089 0.0742227 0 0.39709 0.075749 0 0.40435 0.0771339 0 0.411117 0.0784248 0 0.417369 0.0796173 0 0.422746 0.0806432 0 0.427882 0.0816228 0 0.432507 0.0825051 0 0.436854 0.0833343 0 0.440988 0.0841229 0 0.444806 0.0848512 0 0.449504 0.0857474 0 0.457458 0.0872648 0 0.471987 0.0900364 0 0.491147 0.0936914 0 0.51079 0.0974385 0 0.530436 0.101186 0 0.550082 0.104934 0 0.569728 0.108681 0 0.589373 0.112429 0 0.609019 0.116177 0 0.628665 0.119924 0 0.648311 0.123672 0 0.667956 0.127419 0 0.687602 0.131167 0 0.707248 0.134915 0 0.726894 0.138662 0 0.746539 0.14241 0 0.766185 0.146158 0 0.785831 0.149905 0 0.805477 0.153653 0 0.825122 0.1574 0 0.844768 0.161148 0 0.864414 0.164896 0 0.88406 0.168643 0 0.903705 0.172391 0 0.923351 0.176139 0 0.942997 0.179886 0 0.962642 0.183634 0 0.982288 0.187382 0 9.75917e-07 2.18143e-07 0 0.218588 0.0488602 0 0.247264 0.05527 0 0.275988 0.0616906 0 0.29759 0.0665193 0 0.316035 0.0706422 0 0.331107 0.0740112 0 0.344298 0.0769597 0 0.356784 0.0797506 0 0.367791 0.0822111 0 0.377534 0.0843889 0 0.386566 0.0864077 0 0.394515 0.0881845 0 0.401727 0.0897967 0 0.408451 0.0912996 0 0.414662 0.0926879 0 0.420005 0.0938822 0 0.425107 0.0950226 0 0.429702 0.0960497 0 0.434021 0.0970151 0 0.438128 0.0979331 0 0.441921 0.098781 0 0.446588 0.0998243 0 0.454491 0.101591 0 0.468926 0.104817 0 0.487962 0.109072 0 0.507478 0.113435 0 0.526996 0.117798 0 0.546514 0.12216 0 0.566033 0.126523 0 0.585551 0.130886 0 0.605069 0.135249 0 0.624588 0.139612 0 0.644106 0.143975 0 0.663624 0.148338 0 0.683143 0.1527 0 0.702661 0.157063 0 0.722179 0.161426 0 0.741698 0.165789 0 0.761216 0.170152 0 0.780734 0.174515 0 0.800253 0.178878 0 0.819771 0.183241 0 0.839289 0.187603 0 0.858808 0.191966 0 0.878326 0.196329 0 0.897844 0.200692 0 0.917363 0.205055 0 0.936881 0.209418 0 0.956399 0.213781 0 0.975918 0.218143 0 9.68583e-07 2.4869e-07 0 0.216945 0.0557021 0 0.245406 0.0630094 0 0.273914 0.0703291 0 0.295354 0.0758341 0 0.31366 0.0805342 0 0.328619 0.084375 0 0.341711 0.0877364 0 0.354103 0.0909181 0 0.365028 0.0937231 0 0.374697 0.0962059 0 0.383661 0.0985073 0 0.39155 0.100533 0 0.398709 0.102371 0 0.405382 0.104084 0 0.411546 0.105667 0 0.416849 0.107029 0 0.421912 0.108329 0 0.426473 0.1095 0 0.430759 0.1106 0 0.434835 0.111647 0 0.4386 0.112613 0 0.443232 0.113803 0 0.451076 0.115817 0 0.465403 0.119495 0 0.484295 0.124346 0 0.503664 0.129319 0 0.523036 0.134293 0 0.542408 0.139267 0 0.561779 0.14424 0 0.581151 0.149214 0 0.600523 0.154188 0 0.619894 0.159162 0 0.639266 0.164136 0 0.658638 0.169109 0 0.678009 0.174083 0 0.697381 0.179057 0 0.716753 0.184031 0 0.736124 0.189005 0 0.755496 0.193978 0 0.774867 0.198952 0 0.794239 0.203926 0 0.813611 0.2089 0 0.832982 0.213874 0 0.852354 0.218847 0 0.871726 0.223821 0 0.891097 0.228795 0 0.910469 0.233769 0 0.929841 0.238743 0 0.949212 0.243716 0 0.968584 0.24869 0 9.60294e-07 2.78991e-07 0 0.215088 0.062489 0 0.243305 0.0706867 0 0.27157 0.0788983 0 0.292826 0.0850739 0 0.310976 0.0903468 0 0.325807 0.0946556 0 0.338786 0.0984265 0 0.351072 0.101996 0 0.361903 0.105143 0 0.37149 0.107928 0 0.380377 0.11051 0 0.388199 0.112782 0 0.395296 0.114844 0 0.401912 0.116766 0 0.408024 0.118542 0 0.413281 0.120069 0 0.418301 0.121528 0 0.422823 0.122841 0 0.427073 0.124076 0 0.431114 0.12525 0 0.434846 0.126335 0 0.439439 0.127669 0 0.447216 0.129928 0 0.46142 0.134055 0 0.480151 0.139497 0 0.499354 0.145076 0 0.51856 0.150655 0 0.537765 0.156235 0 0.556971 0.161815 0 0.576177 0.167395 0 0.595383 0.172975 0 0.614589 0.178555 0 0.633795 0.184134 0 0.653001 0.189714 0 0.672207 0.195294 0 0.691412 0.200874
[...]
			<PointData Scalars="VitesseX">
				<DataArray Name="VitesseX" type="Float32" format="ascii">
 0 1.10729 1.05035 1.32154 1.34829 1.44538 1.5415 1.53654 1.65516 1.75623 1.77904 1.8065 1.98996 1.97985 2.01615 2.06565 2.12607 2.19205 2.20189 2.24394 2.27013 2.2446 1.98803 1.28708 0.24486 0.0028359 2.27179e-07 3.12734e-12 3.73797e-17 0 0 0 0 0 0 0 0 0 0 0 0 0 0 0 0 0 0 0 0 0 0 0 1.10675 1.04984 1.32088 1.34763 1.44467 1.54074 1.53578 1.65435 1.75536 1.77816 1.80561 1.98898 1.97887 2.01516 2.06463 2.12502 2.19097 2.20081 2.24284 2.26901 2.24349 1.98705 1.28645 0.244739 0.0028345 2.27067e-07 3.12579e-12 3.86885e-17 0 0 0 0 0 3.11581e-22 0 -2.94271e-22 0 0 0 2.64844e-22 2.58384e-22 -2.52232e-22 -2.46366e-22 0 0 2.30299e-22 -2.25399e-22 0 4.32398e-22 0 0 1.10511 1.04828 1.31893 1.34563 1.44253 1.53846 1.53351 1.6519 1.75276 1.77553 1.80294 1.98604 1.97594 2.01217 2.06157 2.12187 2.18773 2.19755 2.23952 2.26565 2.24017 1.98411 1.28454 0.244377 0.0028303 2.26731e-07 3.12115e-12 3.47109e-17 0 0 0 0 0 0 -3.02678e-22 0 0 0 0 0 0 -2.52232e-22 0 0 0 2.30299e-22 -4.50798e-22 0 0 0 0 1.10238 1.04569 1.31567 1.34231 1.43897 1.53466 1.52972 1.64782 1.74843 1.77114 1.79849 1.98113 1.97106 2.0072 2.05648 2.11663 2.18232 2.19212 2.23399 2.26005 2.23463 1.97921 1.28137 0.243773 0.00282331 2.26171e-07 3.11344e-12 1.96025e-17 3.65301e-22 0 0 0 0 3.11581e-22 0 2.94271e-22 0 0 0 0 0 0 0 0 4.70833e-22 2.30299e-22 -2.25399e-22 0 0 0 0 1.09856 1.04207 1.31112 1.33766 1.43398 1.52934 1.52442 1.64211 1.74238 1.76501 1.79226 1.97427 1.96424 2.00025 2.04936 2.1093 2.17477 2.18453 2.22625 2.25223 2.2269 1.97235 1.27693 0.242929 0.00281354 2.25388e-07 3.10266e-12 2.04375e-17 0 0 0 0 0 0 0 0 0 2.78783e-22 0 0 0 0 0 -2.40767e-22 2.35417e-22 -4.60598e-22 0 -2.20703e-22 -2.16199e-22 0 0 1.09366 1.03742 1.30527 1.33169 1.42759 1.52252 1.51762 1.63479 1.73461 1.75714 1.78426 1.96546 1.95547 1.99133 2.04022 2.09989 2.16506 2.17478 2.21632 2.24218 2.21696 1.96355 1.27124 0.241845 0.00280099 2.24382e-07 3.08881e-12 2.08534e-17 3.65301e-22 3.53125e-22 0 0 3.21022e-22 -3.11581e-22 -3.02678e-22 0 -2.86317e-22 -2.78783e-22 0 2.64844e-22 0 -2.52232e-22 0 0 2.35417e-22 0 4.50798e-22 -2.20703e-22 0 0 0 1.08768 1.03175 1.29813 1.32441 1.41978 1.5142 1.50932 1.62585 1.72512 1.74753 1.7745 1.95472 1.94478 1.98044 2.02906 2.08841 2.15323 2.16289 2.2042 2.22992 2.20484 1.95282 1.26428 0.240523 0.00278567 2.23155e-07 3.07194e-12 3.09112e-18 -1.82651e-22 0 -3.41734e-22 0 0 3.11581e-22 0 0 0 2.78783e-22 0 0 0 2.52232e-22 0 -2.40767e-22 -2.35417e-22 0 4.50798e-22 -2.20703e-22 2.16199e-22 0 0 1.08063 1.02506 1.28971 1.31582 1.41057 1.50437 1.49953 1.6153 1.71393 1.73619 1.763 1.94204 1.93217 1.9676 2.0159 2.07487 2.13926 2.14887 2.1899 2.21546 2.19054 1.94015 1.25608 0.238963 0.0027676 2.21708e-07 3.05203e-12 -2.08317e-18 1.82651e-22 1.76562e-22 0 0 -3.21022e-22 0 -3.02678e-22 0 0 0 -2.71634e-22 0 0 -2.52232e-22 2.46366e-22 0 -2.35417e-22 -2.30299e-22 -2.25399e-22 0 0 0 0 1.07251 1.01736 1.28002 1.30593 1.39997 1.49307 1.48827 1.60316 1.70105 1.72315 1.74975 1.92745 1.91765 1.95281 2.00075 2.05928 2.12319 2.13272 2.17345 2.19881 2.17408 1.92557 1.24665 0.237167 0.0027468 2.20042e-07 3.02908e-12 -4.04742e-20 -1.82651e-22 -1.76562e-22 0 1.65527e-22 0 0 0 0 2.86317e-22 0 0 0 0 0 2.46366e-22 4.81534e-22 -2.35417e-22 0 0 0 2.16199e-22 0 0 1.06333 1.00865 1.26906 1.29476 1.38799 1.48029 1.47553 1.58944 1.6865 1.7084 1.73477 1.91095 1.90123 1.9361 1.98363 2.04165 2.10501 2.11446 2.15485 2.17999 2.15547 1.90909 1.23598 0.235138 0.0027233 2.18158e-07 3.00316e-12 -1.40719e-17 1.82651e-22 0 -1.70867e-22 1.65527e-22 0 -3.11581e-22 0 0 2.86317e-22 -2.78783e-22 0 0 0 -5.04464e-22 -4.92732e-22 4.81534e-22 2.35417e-22 2.30299e-22 0 0 2.16199e-22 0 0 1.0531 0.998946 1.25686 1.2823 1.37464 1.46605 1.46134 1.57415 1.67027 1.69197 1.71809 1.89257 1.88295 1.91747 1.96455 2.02201 2.08477 2.09413 2.13412 2.15902 2.13474 1.89073 1.22409 0.232876 0.0026971 2.1606e-07 2.97426e-12 -2.11045e-17 0 1.76562e-22 -3.41734e-22 1.65527e-22 -1.60511e-22 0 0 0 0 0 2.71634e-22 -2.64844e-22 5.16768e-22 2.52232e-22 0 0 0 -2.30299e-22 -2.25399e-22 -2.20703e-22 2.16199e-22 0 0 1.04183 0.988258 1.24341 1.26858 1.35993 1.45037 1.4457 1.55731 1.6524 1.67386 1.6997 1.87232 1.8628 1.89696 1.94353 2.00038 2.06246 2.07172 2.11128 2.13592 2.1119 1.8705 1.21099 0.230384 0.00266824 2.13748e-07 2.94241e-12 -2.0915e-17 -3.65301e-22 1.76562e-22 -1.70867e-22 1.65527e-22 0 1.5579e-22 0 0 -2.86317e-22 2.78783e-22 2.71634e-22 -2.64844e-22 -2.58384e-22 -2.52232e-22 0 -2.40767e-22 2.35417e-22 2.30299e-22 -2.25399e-22 -2.20703e-22 4.32398e-22 0 0 1.02953 0.976595 1.22873 1.25361 1.34388 1.43325 1.42864 1.53893 1.6329 1.65411 1.67964 1.85022 1.84082 1.87457 1.92059 1.97677 2.03812 2.04727 2.08637 2.11071 2.08697 1.84842 1.1967 0.227665 0.00263675 2.11226e-07 2.90767e-12 -1.31266e-17 0 1.76562e-22 0 0 0 -3.11581e-22 -1.51339e-22 -1.47135e-22 -1.43159e-22 2.78783e-22 -2.71634e-22 0 -2.58384e-22 0 2.46366e-22 -2.40767e-22 -2.35417e-22 -2.30299e-22 -2.25399e-22 -2.20703e-22 0 0 0 1.01622 0.963968 1.21285 1.2374 1.32651 1.41472 1.41017 1.51903 1.61179 1.63272 1.65793 1.8263 1.81701 1.85033 1.89576 1.95121 2.01177 2.0208 2.05939 2.08342 2.05999 1.82452 1.18123 0.224721 0.00260266 2.08494e-07 2.87012e-12 2.7542e-17 0 -3.53125e-22 -1.70867e-22 -3.31054e-22 -3.21022e-22 0 3.02678e-22 1.47135e-22 -1.43159e-22 0 2.71634e-22 2.64844e-22 0 0 0 0 4.70833e-22 0 2.25399e-22 0 -2.16199e-22 0 0 1.00191 0.950389 1.19576 1.21997 1.30782 1.39479 1.3903 1.49764 1.58908 1.60972 1.63457 1.80057 1.79142 1.82427 1.86905 1.92373 1.98343 1.99233 2.03038 2.05407 2.03097 1.79882 1.16459 0.221556 0.002566 2.05558e-07 2.82959e-12 2.48168e-17 3.65301e-22 3.53125e-22 -1.70867e-22 3.31054e-22 -1.60511e-22 -1.5579e-22 1.51339e-22 1.47135e-22 1.43159e-22 -1.39391e-22 -1.35817e-22 0 0 2.52232e-22 0 0 0 -2.30299e-22 0 2.20703e-22 -2.16199e-22 0 0 0.986605 0.935873 1.1775 1.20134 1.28784 1.37349 1.36907 1.47476 1.56481 1.58513 1.60961 1.77307 1.76406 1.7964 1.84051 1.89434 1.95313 1.9619 1.99937 2.0227 1.99995 1.77135 1.1468 0.218172 0.00252681 2.02418e-07 2.7864e-12 1.96416e-17 -2.73976e-22 1.76562e-22 -1.70867e-22 1.65527e-22 1.60511e-22 0 -4.54017e-22 0 0 0 0 -2.64844e-22 -1.29192e-22 0 2.46366e-22 0 0 2.30299e-22 0 2.20703e-22 2.16199e-22 0 0 0.970328 0.920433 1.15807 1.18152 1.2666 1.35083 1.34648 1.45043 1.539 1.55898 1.58305 1.74382 1.73495 1.76677 1.81014 1.86309 1.92091 1.92953 1.96638 1.98933 1.96695 1.74212 1.12788 0.214573 0.00248512 1.99078e-07 2.74045e-12 3.69593e-18 0 -1.76562e-22 -3.41734e-22 -1.65527e-22 -3.21022e-22 1.5579e-22 0 1.47135e-22 2.86317e-22 4.18174e-22 2.71634e-22 1.32422e-22 2.58384e-22 -2.52232e-22 -2.46366e-22 1.20383e-22 -2.35417e-22 -2.30299e-22 0 0 -2.16199e-22 0 0 0.953094 0.904084 1.1375 1.16053 1.2441 1.32683 1.32256 1.42467 1.51166 1.53129 1.55493 1.71285 1.70414 1.73539 1.77799 1.83 1.88679 1.89526 1.93146 1.95399 1.93202 1.71118 1.10785 0.210761 0.00244098 1.95542e-07 2.69173e-12 -6.32963e-17 2.73976e-22 -8.82812e-23 2.563e-22 2.48291e-22 1.60511e-22 1.5579e-22 0 -2.94271e-22 -2.86317e-22 0 -1.35817e-22 -1.32422e-22 3.87576e-22 1.26116e-22 0 0 0 2.30299e-22 2.25399e-22 2.20703e-22 -2.16199e-22 0 0 0.934918 0.886844 1.11581 1.1384 1.22038 1.30153 1.29734 1.3975 1.48283 1.50209 1.52528 1.68018 1.67164 1.70229 1.74408 1.7951 1.85081 1.85912 1.89462 1.91673 1.89517 1.67855 1.08672 0.206742 0.00239443 1.91813e-07 2.64029e-12 -4.27194e-17 2.73976e-22 0 -3.41734e-22 8.27636e-23 -3.21022e-22 1.5579e-22 0 2.94271e-22 4.29476e-22 -4.18174e-22 4.07452e-22 -3.97265e-22 2.58384e-22 -3.78348e-22 2.46366e-22 0 -2.35417e-22 -1.15149e-22 -1.12699e-22 0 -2.16199e-22 0 0 0.91582 0.868728 1.09302 1.11515 1.19545 1.27494 1.27084 1.36895 1.45254 1.47141 1.49412 1.64586 1.63749 1.66752 1.70846 1.75843 1.813 1.82114 1.85592 1.87758 1.85646 1.64426 1.06452 0.202519 0.00234552 1.87895e-07 2.58641e-12 -2.04597e-17 -9.13253e-23 -8.82812e-23 2.563e-22 3.31054e-22 -4.81534e-22 7.78951e-23 7.56696e-23 0 -4.29476e-22 -1.39391e-22 -1.35817e-22 -1.32422e-22 2.58384e-22 -6.3058e-22 2.46366e-22 2.40767e-22 -2.35417e-22 1.15149e-22 -2.25399e-22 2.20703e-22 -2.16199e-22 0 0 0.895819 0.849755 1.06914 1.09079 1.16934 1.2471 1.24309 1.33905 1.42082 1.43927 1.46149 1.60991 1.60173 1.6311 1.67114 1.72003 1.77341 1.78137 1.81539 1.83657 1.81592 1.60835 1.04127 0.198096 0.00229429 1.83792e-07 2.52988e-12 1.45765e-17 2.28313e-22 2.20703e-22 2.563e-22 -1.65527e-22 3.21022e-22 -1.5579e-22 1.51339e-22 3.67838e-22 -1.43159e-22 -1.39391e-22 -1.35817e-22 1.32422e-22 5.16768e-22 0 -1.23183e-22 2.40767e-22 1.17708e-22 -2.30299e-22 -2.25399e-22 0 0 0 0 0.874933 0.829943 1.04422 1.06536 1.14208 1.21802 1.2141 1.30784 1.38769 1.40572 1.42742 1.57238 1.56439 1.59307 1.63218 1.67992 1.73206 1.73984 1.77306 1.79375 1.77358 1.57085 1.01699 0.193477 0.0022408 1.79507e-07 2.47093e-12 -3.15259e-17 -9.13253e-23 1.76562e-22 -4.27167e-22 0 1.60511e-22 7.78951e-23 0 7.35676e-23 7.15793e-23 -6.96957e-23 1.35817e-22 -2.64844e-22 -3.87576e-22 5.04464e-22 0 -3.6115e-22 0 0 -1.12699e-22 -2.20703e-22 -2.16199e-22 0 0 0.853184 0.809312 1.01826 1.03888 1.11369 1.18775 1.18392 1.27532 1.3532 1.37077 1.39193 1.53329 1.5255 1.55347 1.59161 1.63816 1.68901 1.69659 1.72899 1.74916 1.72949 1.5318 0.991714 0.188668 0.0021851 1.75044e-07 2.40963e-12 -5.04855e-17 1.82651e-22 -4.41406e-23 2.563e-22 -1.24145e-22 -4.01278e-23 0 -2.27009e-22 7.35676e-23 2.14738e-22 -5.57565e-22 3.39543e-22 1.32422e-22 0 -2.52232e-22 1.23183e-22 2.40767e-22 3.53125e-22 -1.15149e-22 3.38098e-22 3.31055e-22 -1.08099e-22 0 0 0.830593 0.787883 0.991299 1.01137 1.0842 1.1563 1.15258 1.24156 1.31737 1.33448 1.35508 1.49269 1.48511 1.51234 1.54946 1.59479 1.64428 1.65166 1.68321 1.70285 1.6837 1.49124 0.965454 0.183672 0.00212724 1.70409e-07 2.34579e-12 1.62024e-17 2.16898e-22 -1.98633e-22 2.77658e-22 -4.13818e-23 1.60511e-22 0 3.40513e-22 1.47135e-22 1.43159e-22 -2.09087e-22 2.03726e-22 6.62109e-23 4.52172e-22 6.3058e-23 -2.46366e-22 -1.20383e-22 0 -3.45448e-22 -1.12699e-22 0 -1.08099e-22 0 0 0.807182 0.765675 0.963358 0.982863 1.05364 1.1237 1.12009 1.20656 1.28024 1.29686 1.31688 1.45062 1.44325 1.46971 1.50579 1.54984 1.59794 1.60511 1.63576 1.65485 1.63624 1.44921 0.938242 0.178495 0.00206728 1.65606e-07 2.27967e-12 -5.00555e-17 3.71009e-23 3.31054e-23 -5.33959e-23 -4.13818e-23 2.00639e-22 -1.94738e-22 -2.64844e-22 1.83919e-22 -1.07369e-22 -1.39391e-22 -1.35817e-22 -2.64844e-22 0 1.26116e-22 1.23183e-22 -1.20383e-22 0 0 -1.12699e-22 1.10352e-22 1.08099e-22 0 0 0.782974 0.742713 0.934467 0.953387 1.02204 1.09 1.0865 1.17038 1.24184 1.25797 1.27739 1.40712 1.39996 1.42563 1.46063 1.50336 1.55002 1.55697 1.58671 1.60522 1.58717 1.40575 0.910104 0.173142 0.00200528 1.6064e-07 2.21132e-12 -1.37357e-17 2.96807e-22 -2.86914e-22 -2.40281e-23 -4.65545e-22 -8.02556e-23 -1.75264e-22 -2.64844e-22 -1.10351e-22 1.43159e-22 -3.13631e-22 -3.39543e-23 -4.63476e-22 -1.93788e-22 1.89174e-22 1.23183e-22 -1.20383e-22 0 1.15149e-22 -5.63497e-23 -1.10352e-22 2.16199e-22 0 0 0.757994 0.719017 0.904654 0.92297 0.989432 1.05523 1.05183 1.13304 1.20222 1.21784 1.23664 1.36222 1.3553 1.38015 1.41403 1.45539 1.50056 1.5073 1.53609 1.55401 1.53653 1.3609 0.881068 0.167618 0.00194131 1.55515e-07 2.14074e-12 -1.51345e-17 4.56627e-22 2.42773e-22 1.49508e-22 4.13818e-22 5.51757e-23 -2.67765e-22 3.49972e-22 -3.31054e-22 1.78948e-23 2.09087e-22 -1.35817e-22 1.98633e-22 1.29192e-22 6.3058e-23 -1.23183e-22 6.01917e-23 2.94271e-22 0 2.81749e-22 -3.31055e-22 2.70249e-22 0 0 0.732266 0.694612 0.873947 0.891642 0.955848 1.01941 1.01613 1.09458 1.16142 1.1765 1.19466 1.31599 1.3093 1.3333 1.36604 1.406 1.44963 1.45614 1.48395 1.50126 1.48438 1.31471 0.851162 0.161929 0.00187541 1.50236e-07 2.06806e-12 -1.46164e-17 -2.28313e-22 -4.41406e-23 2.13583e-22 -3.72436e-22 3.6115e-22 4.86845e-23 -8.51283e-23 -2.06909e-22 7.15793e-23 6.96957e-23 3.39543e-22 -5.95898e-22 -1.6149e-22 -1.57645e-22 3.38753e-22 -3.00959e-23 0 1.15149e-22 2.25399e-22 -4.41406e-22 4.32398e-22 0 0 0.705815 0.669521 0.842379 0.859434 0.921321 0.982589 0.979427 1.05504 1.11946 1.134 1.15151 1.26845 1.262 1.28514 1.31669 1.35521 1.39727 1.40354 1.43034 1.44703 1.43076 1.26722 0.820417 0.15608 0.00180767 1.44809e-07 1.99336e-12 2.50601e-18 -4.56627e-23 -3.53125e-22 2.563e-22 1.65527e-22 4.01278e-22 2.14212e-22 -1.13504e-22 -5.51757e-22 3.1316e-23 2.94029e-23 -1.1884e-22 2.97949e-22 6.4596e-22 -2.52232e-22 -7.69894e-22 1.20383e-22 -1.47135e-22 -2.59086e-22 1.12699e-22 -2.20703e-22 0 0 0 0.678668 0.64377 0.809979 0.826378 0.885884 0.944796 0.941756 1.01446 1.07641 1.09039 1.10722 1.21966 1.21346 1.23571 1.26605 1.30308 1.34352 1.34956 1.37533 1.39138 1.37573 1.21848 0.788862 0.150076 0.00173814 1.3924e-07 1.91658e-12 -3.31416e-17 1.82651e-22 -1.76562e-22 -8.54334e-23 -2.48291e-22 2.40767e-22 2.33685e-22 7.56696e-23 7.35676e-23 -8.94742e-23 -3.48478e-22 4.66872e-22 6.31073e-23 1.97825e-22 3.23172e-22 1.69377e-22 3.00959e-22 -4.11979e-22 -2.01511e-22 2.81749e-23 5.51758e-23 2.70249e-22 0 0 0.65085 0.617383 0.776779 0.792507 0.849574 0.90607 0.903155 0.97288 1.03229 1.04569 1.06184 1.16967 1.16373 1.18506 1.21416 1.24967 1.28846 1.29424 1.31896 1.33435 1.31934 1.16853 0.756528 0.143925 0.0016669 1.33532e-07 1.83819e-12 4.01195e-17 0 -5.29687e-22 -4.27167e-22 -1.65527e-22 -2.40767e-22 -1.94738e-22 1.51339e-22 7.35676e-23 7.15793e-23 5.57565e-22 -3.5652e-22 1.98633e-22 2.50309e-22 4.33524e-23 1.79e-22 -1.50479e-23 3.75195e-22 -1.72724e-22 3.09923e-22 1.37939e-22 -2.70249e-22 0 0 0.622391 0.590387 0.742813 0.757853 0.812425 0.866451 0.863663 0.93034 0.987147 0.999968 1.0154 1.11853 1.11284 1.13325 1.16107 1.19503 1.23212 1.23765 1.26128 1.276 1.26165 1.11744 0.723447 0.137632 0.00159401 1.27693e-07 1.75767e-12 -2.45446e-17 9.13253e-23 8.82812e-23 2.563e-22 -8.27636e-23 8.02556e-23 -1.5579e-22 -1.51339e-22 -4.7819e-22 -2.14738e-22 -1.04544e-22 -2.71634e-22 -2.97949e-22 -4.8447e-23 -4.41406e-22 5.23528e-22 -2.48291e-22 -3.31054e-23 7.01692e-23 2.67661e-22 4.552e-22 2.02686e-22 0 0 0.593317 0.562808 0.708114 0.722452 0.774474 0.825977 0.823319 0.886881 0.941035 0.953256 0.967972 1.06628 1.06086 1.08031 1.10683 1.13921 1.17456 1.17983 1.20237 1.2164 1.20271 1.06524 0.689653 0.131203 0.00151955 1.21729e-07 1.67565e-12 -1.18408e-17 9.13253e-23 4.41406e-22 8.54334e-23 0 -1.60511e-22 0 4.54017e-22 -2.20703e-22 -2.14738e-22 6.96957e-23 -6.79086e-23 -1.98633e-22 -1.6149e-22 3.78348e-22 -2.46366e-22 -1.05336e-22 -1.02995e-22 2.59086e-22 1.62005e-22 -2.75879e-22 -2.64759e-22 0 0 0.563658 0.534674 0.672716 0.686337 0.735759 0.784687 0.782162 0.842546 0.893993 0.905604 0.919585 1.01297 1.00782 1.0263 1.0515 1.08226 1.11585 1.12086 1.14226 1.15559 1.14259 1.01199 0.655178 0.124644 0.00144359 1.15643e-07 1.59192e-12 -5.20446e-17 0 0 0 -1.65527e-22 -8.02556e-23 -3.11581e-22 1.51339e-22 -2.20703e-22 -2.14738e-22 -1.39391e-22 2.03726e-22 6.62109e-23 -3.87576e-22 -5.67522e-22 -2.77162e-22 -1.20383e-22 -2.05989e-22 -2.87873e-22 2.25399e-22 1.51733e-22 -1.48637e-22 0 0 0.533442 0.506012 0.636655 0.649545 0.696318 0.742623 0.740233 0.797381 0.84607 0.857058 0.870289 0.958672 0.953799 0.971288 0.995133 1.02424 1.05603 1.06077 1.08103 1.09364 1.08134 0.957741 0.620056 0.117962 0.00136621 1.09444e-07 1.50666e-12 2.74435e-17 -3.65301e-22 0 0 0 0 0 -1.51339e-22 0 0 0 0 0 -6.4596e-23 3.1529e-22 -1.84775e-22 -1.80575e-22 -1.76562e-22 -1.72724e-22 -1.97224e-22 1.37939e-22 -2.97273e-22 0 0 0.5027 0.476851 0.599965 0.612112 0.656189 0.699826 0.697574 0.751428 0.797311 0.807667 0.820135 0.903425 0.898832 0.915313 0.937784 0.965215 0.995171 0.999639 1.01873 1.03062 1.01903 0.902547 0.584323 0.111164 0.00128747 1.03137e-07 1.41971e-12 2.10558e-17 0 0 0 1.65527e-22 3.21022e-22 3.11581e-22 -1.51339e-22 -3.67838e-22 -2.86317e-22 -1.39391e-22 -1.35817e-22 -1.32422e-22 -3.2298e-22 -1.26116e-22 -3.07958e-22 6.01917e-23 2.94271e-22 5.75747e-23 -5.63497e-23 1.37939e-22 0 0 0 0.471462 0.447219 0.562683 0.574075 0.615413 0.656338 0.654227 0.704734 0.747766 0.757478 0.769171 0.847285 0.842978 0.858435 0.87951 0.905236 0.933331 0.937521 0.955425 0.966574 0.955702 0.846462 0.548013 0.104256 0.00120747 9.67281e-08 1.33155e-12 -1.76618e-17 3.65301e-22 -3.53125e-22 -3.41734e-22 1.65527e-22 3.21022e-22 3.11581e-22 0 -1.47135e-22 2.86317e-22 -2.78783e-22 -4.07452e-22 -3.97265e-22 -1.93788e-22 -1.89174e-22 -4.31141e-22 -2.40767e-22 3.53125e-22 2.30299e-22 -5.07147e-22 -4.96582e-22 5.40497e-23 0 0 0.439759 0.417146 0.524845 0.535472 0.57403 0.612203 0.610233 0.657344 0.697483 0.706541 0.717449 0.79031 0.786292 0.80071 0.820367 0.844364 0.870569 0.874477 0.891178 0.901577 0.891437 0.789542 0.511162 0.0972457 0.00112627 9.02236e-08 1.24201e-12 3.47443e-18 0 5.29687e-22 1.70867e-22 0 1.60511e-22 0 0 0 2.86317e-22 2.78783e-22 2.71634e-22 2.64844e-22 0 0 2.46366e-22 0 5.88541e-23 4.03023e-22 1.69049e-22 -1.65527e-22 -1.08099e-22 0 0 0.407622 0.386661 0.48649 0.49634 0.53208 0.567464 0.565638 0.609306 0.646511 0.654908 0.665018 0.732555 0.72883 0.742195 0.760415 0.782658 0.806948 0.810571 0.826051 0.83569 0.826291 0.731843 0.473806 0.090139 0.00104396 8.36301e-08 1.15116e-12 -2.34342e-17 0 -1.76562e-22 0 -3.31054e-22 -1.60511e-22 -1.5579e-22 -3.02678e-22 -1.47135e-22 0 4.18174e-22 -1.35817e-22 1.32422e-22 3.87576e-22 -1.26116e-22 0 -1.20383e-22 -1.17708e-22 1.15149e-22 1.12699e-22 -1.10352e-22 -2.16199e-22 0 0 0.375082 0.355795 0.447654 0.456718 0.489605 0.522164 0.520484 0.560666 0.594901 0.602628 0.611931 0.674076 0.670649 0.682947 0.699713 0.72018 0.742531 0.745865 0.760109 0.768979 0.76033 0.673421 0.435983 0.0829434 0.000960627 7.69541e-08 1.05939e-12 2.73069e-17 -3.65301e-22 -1.76562e-22 0 4.96582e-22 4.81534e-22 0 -3.02678e-22 -1.47135e-22 -1.43159e-22 4.18174e-22 -2.71634e-22 -1.32422e-22 -1.29192e-22 -2.52232e-22 0 0 0 2.30299e-22 2.25399e-22 -2.20703e-22 -3.24298e-22 0 0 0.342172 0.324577 0.408377 0.416645 0.446647 0.476349 0.474817 0.511473 0.542705 0.549753 0.55824 0.614933 0.611806 0.623025 0.63832 0.656992 0.677381 0.680423 0.693417 0.701508 0.693618 0.614335 0.39773 0.0756659 0.000876341 7.02021e-08 9.66351e-13 -7.27332e-19 1.82651e-22 5.29687e-22 1.70867e-22 -3.31054e-22 -3.21022e-22 3.11581e-22 -4.54017e-22 -5.88541e-22 -2.86317e-22 -1.39391e-22 2.71634e-22 3.97265e-22 -2.58384e-22 2.52232e-22 -1.23183e-22 3.6115e-22 -2.35417e-22 -2.30299e-22 2.25399e-22 2.20703e-22 -4.32398e-22 0 0 0.308925 0.29304 0.368697 0.376162 0.403249 0.430065 0.428681 0.461776 0.489972 0.496336 0.503998 0.555182 0.55236 0.562488 0.576297 0.593155 0.611563 0.614309 0.62604 0.633346 0.626222 0.554643 0.359084 0.0683138 0.000791191 6.33809e-08 8.72474e-13 3.01685e-18 1.82651e-22 -5.29687e-22 3.41734e-22 3.31054e-22 -4.81534e-22 1.5579e-22 3.02678e-22 2.94271e-22 2.86317e-22 1.39391e-22 -2.71634e-22 2.64844e-22 0 0 2.46366e-22 2.40767e-22 2.35417e-22 -3.45448e-22 1.12699e-22 2.20703e-22 0 0 0 0.275373 0.261213 0.328653 0.335307 0.359452 0.383355 0.382122 0.411622 0.436756 0.442429 0.449259 0.494884 0.492368 0.501396 0.513706 0.528732 0.545141 0.547589 0.558046 0.564558 0.558208 0.494403 0.320084 0.0608942 0.00070526 5.64971e-08 7.77728e-13 2.86593e-17 3.65301e-22 5.29687e-22 -3.41734e-22 -1.65527e-22 -1.60511e-22 -3.11581e-22 1.51339e-22 -1.47135e-22 -2.86317e-22 -1.39391e-22 -1.35817e-22 -1.32422e-22 -2.58384e-22 -1.26116e-22 -2.46366e-22 -2.40767e-22 0 -1.15149e-22 2.25399e-22 -1.10352e-22 1.08099e-22 0 0 0.241548 0.229128 0.288284 0.294121 0.3153 0.336268 0.335186 0.361063 0.383109 0.388085 0.394076 0.434097 0.43189 0.43981 0.450607 0.463788 0.478181 0.480328 0.489501 0.495213 0.489643 0.433675 0.280768 0.0534146 0.000618632 4.95575e-08 6.82218e-13 -1.83056e-17 -3.65301e-22 0 0 1.65527e-22 1.60511e-22 6.23161e-22 -1.51339e-22 -2.94271e-22 1.43159e-22 0 -1.35817e-22 1.32422e-22 0 1.26116e-22 1.23183e-22 -1.20383e-22 -1.17708e-22 -1.15149e-22 0 -1.10352e-22 -1.08099e-22 0 0 0.207486 0.196817 0.247631 0.252645 0.270837 0.288848 0.287919 0.310147 0.329084 0.333359 0.338505 0.372882 0.370986 0.377789 