<?xml version="1.0"?>
<VTKFile type="PolyData">
	<PolyData>
		<Piece NumberOfPoints="2601" NumberOfPolys="2500">
			<Points>
				<DataArray type="Float32" NumberOfComponents="3" format="ascii">
 1e-06 0 0 0.303545 0 0 0.343866 0 0 0.383967 0 0 0.414891 0 0 0.441233 0 0 0.463218 0 0 0.482587 0 0 0.500522 0 0 0.517077 0 0 0.532051 0 0 0.545466 0 0 0.558225 0 0 0.57025 0 0 0.58124 0 0 0.591425 0 0 0.600881 0 0 0.609554 0 0 0.617908 0 0 0.625594 0 0 0.633025 0 0 0.639864 0 0 0.646316 0 0 0.65225 0 0 0.657985 0 0 0.663532 0 0 0.668786 0 0 0.673856 0 0 0.678567 0 0 0.683002 0 0 0.687287 0 0 0.691324 0 0 0.695256 0 0 0.69918 0 0 0.70397 0 0 0.711112 0 0 0.722777 0 0 0.740159 0 0 0.760001 0 0 0.780001 0 0 0.800001 0 0 0.820001 0 0 0.840001 0 0 0.860001 0 0 0.880001 0 0 0.900001 0 0 0.920001 0 0 0.940001 0 0 0.960001 0 0 0.980001 0 0 1 0 0 9.99507e-07 3.14108e-08 0 0.303396 0.00953459 0 0.343696 0.0108011 0 0.383777 0.0120607 0 0.414687 0.0130321 0 0.441016 0.0138595 0 0.462989 0.01455 0 0.482349 0.0151584 0 0.500275 0.0157218 0 0.516822 0.0162418 0 0.531788 0.0167121 0 0.545197 0.0171335 0 0.557949 0.0175343 0 0.569969 0.017912 0 0.580953 0.0182572 0 0.591133 0.0185771 0 0.600585 0.0188741 0 0.609253 0.0191465 0 0.617603 0.019409 0 0.625285 0.0196504 0 0.632713 0.0198838 0 0.639548 0.0200986 0 0.645997 0.0203013 0 0.651929 0.0204877 0 0.65766 0.0206678 0 0.663204 0.020842 0 0.668456 0.0210071 0 0.673523 0.0211663 0 0.678232 0.0213143 0 0.682665 0.0214536 0 0.686948 0.0215882 0 0.690983 0.021715 0 0.694913 0.0218385 0 0.698835 0.0219618 0 0.703623 0.0221122 0 0.710761 0.0223366 0 0.72242 0.022703 0 0.739793 0.0232489 0 0.759626 0.0238722 0 0.779616 0.0245004 0 0.799606 0.0251286 0 0.819596 0.0257569 0 0.839587 0.0263851 0 0.859577 0.0270133 0 0.879567 0.0276415 0 0.899557 0.0282697 0 0.919547 0.0288979 0 0.939537 0.0295261 0 0.959527 0.0301544 0 0.979517 0.0307826 0 0.999508 0.0314108 0 9.98027e-07 6.27905e-08 0 0.302946 0.0190598 0 0.343187 0.0215915 0 0.383209 0.0241095 0 0.414073 0.0260512 0 0.440363 0.0277053 0 0.462304 0.0290857 0 0.481634 0.0303019 0 0.499534 0.031428 0 0.516057 0.0324675 0 0.531001 0.0334077 0 0.54439 0.0342501 0 0.557123 0.0350512 0 0.569125 0.0358063 0 0.580093 0.0364964 0 0.590258 0.0371359 0 0.599695 0.0377296 0 0.608351 0.0382742 0 0.616689 0.0387988 0 0.624359 0.0392814 0 0.631776 0.039748 0 0.638601 0.0401774 0 0.645041 0.0405825 0 0.650963 0.0409551 0 0.656687 0.0413152 0 0.662222 0.0416635 0 0.667466 0.0419934 0 0.672526 0.0423118 0 0.677228 0.0426076 0 0.681654 0.042886 0 0.68593 0.0431551 0 0.68996 0.0434086 0 0.693885 0.0436555 0 0.6978 0.0439019 0 0.702581 0.0442027 0 0.709708 0.0446511 0 0.721351 0.0453835 0 0.738698 0.0464749 0 0.758502 0.0477209 0 0.778462 0.0489767 0 0.798422 0.0502325 0 0.818383 0.0514883 0 0.838343 0.0527441 0 0.858304 0.0539999 0 0.878265 0.0552557 0 0.898225 0.0565115 0 0.918186 0.0577673 0 0.938146 0.0590232 0 0.958107 0.060279 0 0.978067 0.0615348 0 0.998028 0.0627906 0 9.95562e-07 9.41083e-08 0 0.302198 0.0285662 0 0.34234 0.0323606 0 0.382263 0.0361345 0 0.41305 0.0390447 0 0.439275 0.0415237 0 0.461162 0.0435926 0 0.480445 0.0454154 0 0.498301 0.0471033 0 0.514782 0.0486613 0 0.529689 0.0500704 0 0.543045 0.0513329 0 0.555748 0.0525336 0 0.567719 0.0536653 0 0.578661 0.0546995 0 0.5888 0.055658 0 0.598214 0.0565479 0 0.606849 0.0573641 0 0.615166 0.0581503 0 0.622818 0.0588736 0 0.630216 0.0595729 0 0.637024 0.0602165 0 0.643448 0.0608237 0 0.649356 0.0613822 0 0.655065 0.0619219 0 0.660587 0.0624438 0 0.665818 0.0629383 0 0.670865 0.0634154 0 0.675555 0.0638588 0 0.679971 0.0642761 0 0.684236 0.0646794 0 0.688256 0.0650594 0 0.692171 0.0654294 0 0.696077 0.0657986 0 0.700846 0.0662495 0 0.707956 0.0669215 0 0.719569 0.0680193 0 0.736874 0.0696551 0 0.756629 0.0715225 0 0.776539 0.0734046 0 0.796451 0.0752867 0 0.816362 0.0771689 0 0.836273 0.0790511 0 0.856184 0.0809332 0 0.876096 0.0828154 0 0.896007 0.0846976 0 0.915918 0.0865797 0 0.935829 0.0884619 0 0.95574 0.0903441 0 0.975652 0.0922262 0 0.995563 0.0941084 0 9.92115e-07 1.25333e-07 0 0.301152 0.0380443 0 0.341154 0.0430978 0 0.380939 0.0481238 0 0.41162 0.0519997 0 0.437754 0.0553012 0 0.459565 0.0580566 0 0.478781 0.0604841 0 0.496575 0.0627321 0 0.513 0.064807 0 0.527855 0.0666836 0 0.541165 0.068365 0 0.553823 0.0699641 0 0.565754 0.0714713 0 0.576657 0.0728487 0 0.586762 0.0741252 0 0.596143 0.0753104 0 0.604747 0.0763973 0 0.613035 0.0774444 0 0.620661 0.0784077 0 0.628033 0.0793391 0 0.634818 0.0801962 0 0.64122 0.0810049 0 0.647107 0.0817487 0 0.652797 0.0824674 0 0.6583 0.0831626 0 0.663512 0.0838211 0 0.668542 0.0844565 0 0.673216 0.085047 0 0.677616 0.0856028 0 0.681867 0.0861399 0 0.685873 0.0866459 0 0.689774 0.0871387 0 0.693667 0.0876305 0 0.698419 0.0882309 0 0.705504 0.0891259 0 0.717078 0.090588 0 0.734322 0.0927665 0 0.754009 0.0952534 0 0.77385 0.09776 0 0.793693 0.100267 0 0.813535 0.102773 0 0.833377 0.10528 0 0.85322 0.107787 0 0.873062 0.110293 0 0.892904 0.1128 0 0.912747 0.115307 0 0.932589 0.117813 0 0.952431 0.12032 0 0.972273 0.122827 0 0.992116 0.125333 0 9.87688e-07 1.56434e-07 0 0.299808 0.047485 0 0.339632 0.0537925 0 0.379239 0.0600656 0 0.409783 0.0649033 0 0.435801 0.0690241 0 0.457515 0.0724632 0 0.476645 0.0754932 0 0.49436 0.0782989 0 0.510711 0.0808887 0 0.5255 0.083231 0 0.538751 0.0853297 0 0.551352 0.0873256 0 0.56323 0.0892068 0 0.574084 0.090926 0 0.584144 0.0925193 0 0.593483 0.0939985 0 0.602049 0.0953552 0 0.6103 0.0966621 0 0.617892 0.0978645 0 0.625231 0.0990269 0 0.631986 0.100097 0 0.638359 0.101106 0 0.64422 0.102034 0 0.649884 0.102932 0 0.655363 0.103799 0 0.660552 0.104621 0 0.66556 0.105414 0 0.670212 0.106151 0 0.674593 0.106845 0 0.678825 0.107515 0 0.682813 0.108147 0 0.686697 0.108762 0 0.690572 0.109376 0 0.695303 0.110125 0 0.702357 0.111242 0 0.713878 0.113067 0 0.731046 0.115786 0 0.750645 0.11889 0 0.770398 0.122019 0 0.790152 0.125148 0 0.809905 0.128276 0 0.829659 0.131405 0 0.849413 0.134534 0 0.869167 0.137662 0 0.88892 0.140791 0 0.908674 0.14392 0 0.928428 0.147049 0 0.948182 0.150177 0 0.967936 0.153306 0 0.987689 0.156435 0 9.82287e-07 1.87381e-07 0 0.298169 0.0568787 0 0.337775 0.064434 0 0.377166 0.0719482 0 0.407543 0.0777429 0 0.433418 0.0826789 0 0.455013 0.0867983 0 0.474039 0.0904277 0 0.491656 0.0937885 0 0.507918 0.0968906 0 0.522627 0.0996963 0 0.535804 0.10221 0 0.548337 0.104601 0 0.56015 0.106854 0 0.570945 0.108914 0 0.580949 0.110822 0 0.590238 0.112594 0 0.598757 0.114219 0 0.606963 0.115784 0 0.614513 0.117225 0 0.621812 0.118617 0 0.62853 0.119898 0 0.634868 0.121108 0 0.640697 0.12222 0 0.64633 0.123294 0 0.651779 0.124333 0 0.65694 0.125318 0 0.66192 0.126268 0 0.666547 0.127151 0 0.670904 0.127982 0 0.675113 0.128785 0 0.679079 0.129541 0 0.682942 0.130278 0 0.686795 0.131013 0 0.691501 0.131911 0 0.698516 0.133249 0 0.709975 0.135435 0 0.727048 0.138692 0 0.74654 0.14241 0 0.766185 0.146158 0 0.785831 0.149905 0 0.805477 0.153653 0 0.825122 0.1574 0 0.844768 0.161148 0 0.864414 0.164896 0 0.88406 0.168643 0 0.903705 0.172391 0 0.923351 0.176139 0 0.942997 0.179886 0 0.962642 0.183634 0 0.982288 0.187382 0 9.75917e-07 2.18143e-07 0 0.296235 0.0662164 0 0.335584 0.075012 0 0.374719 0.0837597 0 0.404899 0.0905058 0 0.430607 0.0962521 0 0.452062 0.101048 0 0.470964 0.105273 0 0.488468 0.109186 0 0.504624 0.112797 0 0.519237 0.116063 0 0.53233 0.11899 0 0.544781 0.121773 0 0.556517 0.124396 0 0.567242 0.126794 0 0.577182 0.129015 0 0.58641 0.131078 0 0.594874 0.13297 0 0.603027 0.134792 0 0.610528 0.136469 0 0.61778 0.13809 0 0.624454 0.139582 0 0.630751 0.14099 0 0.636542 0.142284 0 0.642139 0.143535 0 0.647552 0.144745 0 0.652679 0.145891 0 0.657627 0.146997 0 0.662225 0.148025 0 0.666553 0.148992 0 0.670735 0.149927 0 0.674675 0.150808 0 0.678512 0.151665 0 0.682341 0.152521 0 0.687017 0.153566 0 0.693986 0.155124 0 0.70537 0.157669 0 0.722333 0.161461 0 0.741698 0.165789 0 0.761216 0.170152 0 0.780734 0.174515 0 0.800253 0.178878 0 0.819771 0.183241 0 0.839289 0.187603 0 0.858808 0.191966 0 0.878326 0.196329 0 0.897844 0.200692 0 0.917363 0.205055 0 0.936881 0.209418 0 0.956399 0.213781 0 0.975918 0.218143 0 9.68583e-07 2.4869e-07 0 0.294009 0.0754887 0 0.333063 0.0855159 0 0.371904 0.0954886 0 0.401857 0.103179 0 0.427371 0.10973 0 0.448665 0.115198 0 0.467425 0.120014 0 0.484797 0.124475 0 0.500832 0.128592 0 0.515335 0.132316 0 0.528329 0.135652 0 0.540687 0.138825 0 0.552335 0.141815 0 0.56298 0.144549 0 0.572844 0.147081 0 0.582003 0.149433 0 0.590403 0.15159 0 0.598495 0.153667 0 0.60594 0.155579 0 0.613137 0.157427 0 0.619761 0.159128 0 0.626011 0.160732 0 0.631759 0.162208 0 0.637313 0.163634 0 0.642686 0.165014 0 0.647775 0.16632 0 0.652685 0.167581 0 0.657248 0.168753 0 0.661544 0.169856 0 0.665694 0.170921 0 0.669605 0.171925 0 0.673414 0.172903 0 0.677214 0.173879 0 0.681854 0.17507 0 0.688771 0.176846 0 0.70007 0.179747 0 0.716905 0.18407 0 0.736125 0.189005 0 0.755496 0.193978 0 0.774867 0.198952 0 0.794239 0.203926 0 0.813611 0.2089 0 0.832982 0.213874 0 0.852354 0.218847 0 0.871726 0.223821 0 0.891097 0.228795 0 0.910469 0.233769 0 0.929841 0.238743 0 0.949212 0.243716 0 0.968584 0.24869 0 9.60294e-07 2.78991e-07 0 0.291493 0.0846865 0 0.330212 0.0959355 0 0.368721 0.107123 0 0.398418 0.115751 0 0.423714 0.1231 0 0.444825 0.129234 0 0.463425 0.134637 0 0.480648 0.139641 0 0.496546 0.14426 0 0.510925 0.148437 0 0.523808 0.15218 0 0.53606 0.15574 0 0.547608 0.159095 0 0.558161 0.162161 0 0.567942 0.165002 0 0.577022 0.16764 0 0.585351 0.17006 0 0.593373 0.172391 0 0.600754 0.174535 0 0.60789 0.176608 0 0.614457 0.178516 0 0.620654 0.180317 0 0.626352 0.181972 0 0.631859 0.183572 0 0.637185 0.185119 0 0.642231 0.186585 0 0.647099 0.188 0 0.651623 0.189314 0 0.655882 0.190551 0 0.659997 0.191747 0 0.663874 0.192873 0 0.66765 0.19397 0 0.671418 0.195065 0 0.676018 0.196402 0 0.682876 0.198394 0 0.694078 0.201648 0 0.71077 0.206498 0 0.729825 0.212034 0 0.74903 0.217613 0 0.768236 0.223193 0 
[...]
			<PointData Scalars="VitesseX">
				<DataArray Name="VitesseX" type="Float32" format="ascii">
 0 0.591712 0.576348 0.717516 0.748038 0.811902 0.866227 0.895041 0.967952 0.974216 1.02026 1.05025 1.05248 1.0988 1.12963 1.1331 1.17639 1.1989 1.2287 1.25457 1.26168 1.28891 1.33606 1.34289 1.36378 1.36471 1.38143 1.41326 1.42388 1.46002 1.46548 1.46487 1.48187 1.44904 1.31605 1.00971 0.493257 0.0577763 0.000312599 1.60005e-08 4.99826e-13 3.40949e-18 0 0 0 0 0 0 0 0 0 0 0.59142 0.576063 0.717162 0.747669 0.811501 0.865799 0.894599 0.967475 0.973735 1.01975 1.04973 1.05196 1.09826 1.12907 1.13254 1.17581 1.19831 1.22809 1.25395 1.26106 1.28828 1.3354 1.34222 1.3631 1.36404 1.38075 1.41256 1.42318 1.4593 1.46475 1.46415 1.48114 1.44833 1.3154 1.00921 0.493014 0.0577478 0.000312445 1.59926e-08 4.99553e-13 6.36621e-18 -6.00008e-22 -5.86054e-22 0 0 5.47833e-22 -5.36177e-22 0 1.02858e-21 0 0 0.590544 0.575211 0.7161 0.746562 0.8103 0.864518 0.893274 0.966042 0.972294 1.01824 1.04818 1.0504 1.09664 1.1274 1.13086 1.17406 1.19653 1.22628 1.25209 1.25919 1.28637 1.33342 1.34024 1.36109 1.36202 1.37871 1.41047 1.42107 1.45714 1.46258 1.46198 1.47895 1.44618 1.31345 1.00772 0.492284 0.0576623 0.000311982 1.5969e-08 4.98795e-13 4.36663e-18 -6.00008e-22 0 0 0 5.47833e-22 -1.07235e-21 0 0 0 0 0.589085 0.57379 0.714331 0.744718 0.808299 0.862383 0.891068 0.963657 0.969892 1.01573 1.04559 1.04781 1.09393 1.12461 1.12807 1.17116 1.19358 1.22325 1.249 1.25608 1.28319 1.33013 1.33693 1.35772 1.35865 1.3753 1.40699 1.41756 1.45354 1.45897 1.45837 1.4753 1.44261 1.31021 1.00523 0.491068 0.0575199 0.000311212 1.59295e-08 4.9757e-13 2.45188e-18 0 0 0 1.12001e-21 5.47833e-22 -5.36177e-22 0 0 0 0 0.587046 0.571803 0.711858 0.74214 0.8055 0.859396 0.887983 0.96032 0.966534 1.01221 1.04197 1.04418 1.09014 1.12072 1.12416 1.16711 1.18944 1.21901 1.24467 1.25173 1.27875 1.32552 1.3323 1.35302 1.35395 1.37054 1.40212 1.41265 1.44851 1.45392 1.45332 1.47019 1.43762 1.30567 1.00175 0.489368 0.0573207 0.000310134 1.58744e-08 4.95786e-13 2.06091e-18 0 0 -5.72735e-22 5.60007e-22 -1.09567e-21 0 -5.25007e-22 -5.14292e-22 0 0 0.584427 0.569252 0.708682 0.738829 0.801906 0.855562 0.884021 0.956035 0.962222 1.0077 1.03732 1.03952 1.08528 1.11572 1.11915 1.1619 1.18414 1.21357 1.23912 1.24615 1.27305 1.31961 1.32635 1.34699 1.34791 1.36443 1.39586 1.40635 1.44205 1.44743 1.44684 1.46363 1.4312 1.29985 0.997277 0.487184 0.057065 0.00030875 1.58035e-08 4.9356e-13 -5.08355e-18 -6.00008e-22 0 0 5.60007e-22 0 1.07235e-21 -5.25007e-22 0 0 0 0.581231 0.566139 0.704807 0.734788 0.797521 0.850884 0.879187 0.950807 0.95696 1.00219 1.03165 1.03384 1.07934 1.10962 1.11303 1.15555 1.17766 1.20694 1.23235 1.23933 1.26608 1.31239 1.3191 1.33962 1.34054 1.35696 1.38823 1.39866 1.43416 1.43952 1.43893 1.45563 1.42338 1.29274 0.991824 0.48452 0.0567529 0.000307062 1.57171e-08 4.9085e-13 -3.85725e-18 6.00008e-22 0 -5.72735e-22 -5.60007e-22 0 1.07235e-21 -5.25007e-22 5.14292e-22 0 0 0.577461 0.562468 0.700236 0.730023 0.792349 0.845365 0.873485 0.944641 0.950754 0.995687 1.02496 1.02713 1.07234 1.10242 1.10581 1.14805 1.17003 1.19911 1.22435 1.2313 1.25787 1.30388 1.31055 1.33093 1.33184 1.34816 1.37923 1.38959 1.42486 1.43018 1.42959 1.44619 1.41415 1.28435 0.985392 0.481378 0.0563849 0.00030507 1.56152e-08 4.87631e-13 -1.04063e-17 -6.00008e-22 5.86054e-22 0 -5.60007e-22 -5.47833e-22 -5.36177e-22 0 0 0 0 0.573122 0.558241 0.694974 0.724537 0.786394 0.839013 0.866921 0.937542 0.943609 0.988204 1.01726 1.01941 1.06428 1.09414 1.0975 1.13943 1.16123 1.1901 1.21515 1.22204 1.24842 1.29408 1.3007 1.32093 1.32184 1.33803 1.36886 1.37915 1.41415 1.41944 1.41885 1.43532 1.40352 1.2747 0.977987 0.477761 0.0559611 0.000302778 1.54978e-08 4.83952e-13 -7.10274e-18 0 5.86054e-22 1.14547e-21 -5.60007e-22 0 0 0 5.14292e-22 0 0 0.568217 0.553463 0.689026 0.718336 0.779664 0.831832 0.859502 0.929519 0.935533 0.979747 1.00855 1.01069 1.05517 1.08477 1.08811 1.12968 1.15129 1.17991 1.20475 1.21158 1.23774 1.28301 1.28957 1.30963 1.31052 1.32658 1.35715 1.36734 1.40205 1.40729 1.40671 1.42303 1.39151 1.26379 0.969617 0.473672 0.0554822 0.000300187 1.53652e-08 4.79825e-13 2.85449e-22 -1.20002e-21 -1.17211e-21 1.14547e-21 5.60007e-22 5.47833e-22 0 0 5.14292e-22 0 0 0.562751 0.548139 0.682398 0.711427 0.772165 0.823831 0.851234 0.920577 0.926534 0.970323 0.998848 1.00097 1.04502 1.07434 1.07764 1.11881 1.14022 1.16856 1.19316 1.19993 1.22583 1.27066 1.27716 1.29703 1.29792 1.31382 1.34409 1.35419 1.38856 1.39375 1.39318 1.40935 1.37812 1.25164 0.96029 0.469115 0.0549485 0.000297299 1.52174e-08 4.75219e-13 2.60857e-21 6.00008e-22 0 0 0 -5.47833e-22 -5.36177e-22 -5.25007e-22 5.14292e-22 0 0 0.55673 0.542275 0.675097 0.703815 0.763903 0.815016 0.842126 0.910728 0.916621 0.959941 0.988161 0.990258 1.03384 1.06285 1.06611 1.10684 1.12802 1.15606 1.1804 1.18709 1.21271 1.25707 1.2635 1.28315 1.28403 1.29976 1.32971 1.3397 1.37371 1.37884 1.37827 1.39427 1.36338 1.23824 0.950015 0.464096 0.0543606 0.000294118 1.50546e-08 4.70139e-13 8.85856e-23 -6.00008e-22 0 -5.72735e-22 5.60007e-22 5.47833e-22 -5.36177e-22 -5.25007e-22 1.02858e-21 0 0 0.550159 0.535875 0.667129 0.695508 0.754887 0.805397 0.832188 0.899979 0.905803 0.948612 0.976498 0.978571 1.02164 1.0503 1.05353 1.09378 1.11471 1.14242 1.16647 1.17308 1.1984 1.24223 1.24858 1.26801 1.26888 1.28442 1.31402 1.32389 1.35749 1.36257 1.362 1.37781 1.34729 1.22363 0.938803 0.458619 0.053719 0.000290647 1.48769e-08 4.64613e-13 1.10275e-17 0 5.86054e-22 -5.72735e-22 -5.60007e-22 -5.47833e-22 -5.36177e-22 -5.25007e-22 0 0 0 0.543046 0.528946 0.658503 0.686515 0.745127 0.794984 0.821428 0.888343 0.894091 0.936346 0.963872 0.965919 1.00843 1.03672 1.0399 1.07963 1.10029 1.12765 1.15139 1.15791 1.18291 1.22617 1.23244 1.25161 1.25247 1.26782 1.29703 1.30677 1.33994 1.34495 1.34439 1.36 1.32987 1.20781 0.926665 0.452689 0.0530245 0.000286889 1.46846e-08 4.58589e-13 5.61184e-18 0 0 0 1.12001e-21 0 5.36177e-22 0 -5.14292e-22 0 0 0.535397 0.521495 0.649228 0.676845 0.734631 0.783786 0.809857 0.87583 0.881497 0.923157 0.950295 0.952313 0.994227 1.02212 1.02526 1.06443 1.0848 1.11176 1.13517 1.1416 1.16624 1.2089 1.21508 1.23398 1.23483 1.24996 1.27876 1.28837 1.32107 1.326 1.32546 1.34084 1.31113 1.1908 0.913612 0.446312 0.0522776 0.000282848 1.44777e-08 4.5213e-13 -2.80127e-22 6.00008e-22 0 0 0 -5.47833e-22 0 5.25007e-22 -5.14292e-22 0 0 0.527219 0.51353 0.639311 0.666507 0.72341 0.771814 0.797487 0.862452 0.868033 0.909056 0.93578 0.937767 0.979041 1.00651 1.0096 1.04817 1.06823 1.09478 1.11783 1.12417 1.14843 1.19043 1.19652 1.21513 1.21597 1.23087 1.25922 1.26869 1.30089 1.30575 1.30521 1.32036 1.29111 1.17261 0.899657 0.439495 0.0514791 0.000278528 1.42566e-08 4.4504e-13 5.18479e-22 0 5.86054e-22 0 0 5.47833e-22 0 5.25007e-22 5.14292e-22 0 0 0.518521 0.505057 0.628764 0.655511 0.711475 0.75908 0.78433 0.848223 0.853712 0.894059 0.920342 0.922295 0.962889 0.989901 0.99294 1.03087 1.0506 1.07672 1.09939 1.10562 1.12948 1.17079 1.17678 1.19509 1.19591 1.21056 1.23845 1.24776 1.27943 1.28421 1.28368 1.29858 1.26981 1.15326 0.884814 0.432245 0.0506297 0.000273932 1.40214e-08 4.3758e-13 -4.5217e-17 -6.00008e-22 -5.86054e-22 2.86367e-22 -5.60007e-22 -5.47833e-22 0 0 -5.14292e-22 0 0 0.509311 0.496087 0.617596 0.643868 0.698838 0.745598 0.770399 0.833157 0.838549 0.878179 0.903995 0.905914 0.945787 0.972319 0.975304 1.01256 1.03194 1.05759 1.07986 1.08598 1.10942 1.15 1.15588 1.17386 1.17466 1.18906 1.21645 1.22559 1.2567 1.2614 1.26088 1.27551 1.24725 1.13278 0.869099 0.424567 0.0497305 0.000269067 1.37723e-08 4.29908e-13 -8.53837e-17 3.00004e-22 0 0 0 5.47833e-22 5.36177e-22 5.25007e-22 -5.14292e-22 0 0 0.499599 0.486627 0.605819 0.63159 0.685511 0.73138 0.755708 0.817269 0.822558 0.861432 0.886756 0.888638 0.927751 0.953777 0.956705 0.993255 1.01226 1.03743 1.05927 1.06527 1.08827 1.12807 1.13384 1.15147 1.15226 1.16638 1.19326 1.20222 1.23274 1.23734 1.23683 1.25119 1.22347 1.11118 0.852525 0.416471 0.0487821 0.000263936 1.35097e-08 4.21821e-13 -1.02182e-18 -9.00012e-22 5.86054e-22 0 -5.60007e-22 -2.73917e-22 -2.68089e-22 0 -5.14292e-22 0 0 0.489393 0.476686 0.593443 0.618688 0.671508 0.716439 0.740271 0.800575 0.805755 0.843835 0.868642 0.870486 0.908799 0.934294 0.937162 0.972966 0.991586 1.01623 1.03763 1.04351 1.06604 1.10503 1.11068 1.12795 1.12873 1.14256 1.16888 1.17766 1.20755 1.21207 1.21157 1.22563 1.19848 1.08848 0.83511 0.407963 0.0477856 0.000258544 1.32337e-08 4.13111e-13 -1.55895e-17 -1.50002e-21 5.86054e-22 5.72735e-22 -5.60007e-22 2.73917e-22 -5.36177e-22 5.25007e-22 -5.14292e-22 0 0 0.478705 0.466275 0.580482 0.605176 0.656842 0.700792 0.724103 0.78309 0.788157 0.825406 0.849671 0.851474 0.888951 0.913888 0.916694 0.951716 0.969929 0.99404 1.01497 1.02072 1.04275 1.08089 1.08642 1.10332 1.10407 1.1176 1.14335 1.15194 1.18118 1.18559 1.18511 1.19886 1.1723 1.06471 0.816871 0.399053 0.046742 0.000252898 1.29447e-08 4.04097e-13 -2.94956e-17 0 -2.93027e-22 5.72735e-22 2.80004e-22 -5.47833e-22 -5.36177e-22 0 0 0 0 0.467544 0.455404 0.566949 0.591066 0.641528 0.684454 0.707221 0.764832 0.769782 0.806162 0.829861 0.831623 0.868225 0.892581 0.895322 0.929527 0.947316 0.970864 0.991303 0.996924 1.01844 1.05569 1.06109 1.07759 1.07833 1.09155 1.1167 1.12509 1.15364 1.15795 1.15748 1.17091 1.14497 1.03988 0.797826 0.38975 0.0456522 0.000247002 1.26429e-08 3.94669e-13 -2.88084e-17 1.20002e-21 0 -8.59102e-22 0 0 -2.68089e-22 -5.25007e-22 -5.14292e-22 0 0 0.455922 0.444084 0.552855 0.576373 0.625581 0.667439 0.689641 0.74582 0.750646 0.786122 0.809232 0.81095 0.846643 0.870394 0.873066 0.906421 0.923767 0.94673 0.966661 0.972142 0.993126 1.02945 1.03471 1.05081 1.05153 1.06441 1.08894 1.09712 1.12497 1.12917 1.1287 1.1418 1.11651 1.01403 0.777994 0.380061 0.0445174 0.000240862 1.23286e-08 3.84924e-13 -5.20531e-18 -6.00008e-22 2.93027e-22 5.72735e-22 8.40011e-22 -2.73917e-22 8.04266e-22 7.8751e-22 -2.57146e-22 0 0 0.443849 0.432325 0.538217 0.561112 0.609017 0.649766 0.67138 0.726072 0.73077 0.765307 0.787805 0.789477 0.824225 0.847347 0.849948 0.88242 0.899307 0.921662 0.941065 0.946401 0.966829 1.00219 1.00731 1.02298 1.02368 1.03623 1.0601 1.06807 1.09518 1.09927 1.09882 1.11157 1.08694 0.987182 0.757394 0.369998 0.0433386 0.000234484 1.20022e-08 3.74723e-13 1.06706e-21 1.50002e-22 -5.86054e-22 -2.86367e-22 0 -8.2175e-22 -2.68089e-22 0 -2.57146e-22 0 0 0.431339 0.42014 0.523046 0.545296 0.591851 0.631452 0.652457 0.705607 0.710173 0.743736 0.7656 0.767225 0.800993 0.823464 0.825992 0.857548 0.873959 0.895684 0.91454 0.919726 0.939578 0.973943 0.978922 0.99415 0.994831 1.00702 1.03022 1.03796 1.06431 1.06829 1.06785 1.08024 1.05631 0.959358 0.736046 0.359569 0.0421171 0.000227875 1.16639e-08 3.64208e-13 1.00919e-21 3.00004e-22 2.93027e-22 -2.86367e-22 0 0 -2.68089e-22 2.62503e-22 2.57146e-22 0 0 0.418403 0.407539 0.50736 0.528943 0.574101 0.612515 0.632889 0.684446 0.688875 0.721431 0.742639 0.744216 0.776972 0.798768 0.80122 0.83183 0.847749 0.868823 0.887113 0.892144 0.9114 0.944734 0.949564 0.964336 0.964996 0.976821 0.999326 1.00684 1.03239 1.03625 1.03582 1.04784 1.02463 0.930587 0.713972 0.348785 0.040854 0.000221041 1.13141e-08 3.53107e-13 7.10103e-22 4.50006e-22 2.93027e-22 -2.86367e-22 0 2.73917e-22 -1.34044e-22 -2.62503e-22 5.14292e-22 0 0 0.405054 0.394537 0.491173 0.512067 0.555785 0.592973 0.612697 0.662609 0.666897 0.698414 0.718946 0.720472 0.752183 0.773284 0.775658 0.805291 0.820703 0.841104 0.85881 0.86368 0.882323 0.914593 0.919269 0.933569 0.934209 0.945656 0.967444 0.974713 0.999453 1.00319 1.00277 1.01441 0.991938 0.900897 0.691193 0.337658 0.0395506 0.000213989 1.09531e-08 3.41981e-13 3.45703e-22 1.50002e-22 -2.93027e-22 1.43184e-22 7.00009e-22 0 6.70221e-22 -7.8751e-22 6.42866e-22 0 0 0.391306 0.381146 0.474502 0.494687 0.53692 0.572846 0.591901 0.640118 0.644261 0.674709 0.694543 0.696018 0.726652 0.747037 0.74933 0.777958 0.792846 0.812555 0.82966 0.834365 0.852374 0.883549 0.888067 0.901882 0.902499 0.913558 0.934606 0.941629 0.965529 0.969137 0.968738 0.979981 0.958269 0.870318 0.667732 0.326197 0.0382081 0.000206725 1.05813e-08 3.30319e-13 -8.5707e-23 -3.75005e-22 8.05824e-22 -7.15918e-23 0 2.73917e-22 5.36177e-22 -1.05001e-21 1.02858e-21 0 0 0.377171 0.367378 0.457362 0.476817 0.517526 0.552154 0.57052 0.616996 0.620989 0.650337 0.669455 0.670876 0.700404 0.720052 0.722263 0.749856 0.764207 0.783203 0.799691 0.804226 0.821585 0.851634 0.855988 0.869304 0.869899 0.880559 0.900847 0.907616 0.930652 0.93413 0.933745 0.944582 0.923655 0.838881 0.643612 0.314414 0.036828 0.000199258 1.01991e-08 3.18337e-13 1.84188e-21 -6.00008e-22 -1.83142e-21 2.86367e-22 -3.50005e-22 -6.16312e-22 2.68089e-22 -5.25007e-22 0 0 0 0.362664 0.353248 0.43977 0.458478 0.49762 0.530917 0.548577 0.593265 0.597104 0.625323 0.643706 0.645073 0.673465 0.692357 0.694483 0.721015 0.734813 0.75308 0.768933 0.773294 0.789985 0.818878 0.823064 0.835868 0.836441 0.84669 0.866198 0.872707 0.894857 0.898201 0.897831 0.908251 0.888129 0.806615 0.618858 0.302321 0.0354115 0.000191594 9.80684e-09 3.05863e-13 -8.83435e-17 7.6876e-22 4.02912e-22 7.15918e-22 -9.80013e-22 -4.79354e-22 6.70221e-23 1.31252e-22 6.42866e-22 0 0 0.347799 0.338769 0.421745 0.439686 0.477224 0.509155 0.526092 0.568948 0.57263 0.599692 0.617322 0.618632 0.645861 0.663979 0.666017 0.691462 0.704695 0.722212 0.737416 0.741598 0.757605 0.785314 0.789329 0.801608 0.802157 0.811986 0.830694 0.836936 0.858179 0.861385 0.861031 0.871024 0.851726 0.773554 0.593492 0.289929 0.0339601 0.000183741 9.40488e-09 2.93666e-13 -1.99187e-17 1.03126e-22 4.25805e-22 -3.57959e-23 8.92512e-22 -4.10875e-22 7.37244e-22 3.28129e-22 -6.42866e-22 0 0 0.332591 0.323956 0.403304 0.42046 0.456357 0.486892 0.503087 0.54407 0.547591 0.57347 0.590328 0.591582 0.617619 0.634945 0.636895 0.661227 0.673881 0.690632 0.705171 0.70917 0.724477 0.750975 0.754814 0.766556 0.767081 0.776481 0.794371 0.80034 0.820653 0.82372 0.823381 0.832937 0.814483 0.739729 0.56754 0.277252 0.0324751 0.000175707 8.99363e-09 2.80642e-13 1.22524e-18 -1.05001e-21 1.24536e-21 -5.90633e-22 -7.8751e-23 1.66918e-22 6.3671e-22 1.08283e-21 4.82149e-22 0 0 0.317055 0.308823 0.384464 0.400819 0.435039 0.464148 0.479587 0.518655 0.522011 0.546681 0.562752 0.563947 0.588768 0.605285 0.607143 0.630339 0.642402 0.658371 0.672231 0.676043 0.690635 0.715894 0.719554 0.730748 0.731249 0.740209 0.757263 0.762953 0.782318 0.785241 0.784918 0.794028 0.776436 0.705174 0.541029 0.2643 0.0309581 0.000167499 8.57351e-09 2.67645e-13 -4.28677e-17 9.00012e-22 -5.86054e-22 -2.50571e-22 -2.45003e-22 6.16312e-22 3.85377e-22 -6.56259e-22 -6.29807e-22 0 0 0.301206 0.293385 0.365245 0.380782 0.413292 0.440945 0.455613 0.492728 0.495916 0.519353 0.534621 0.535756 0.559337 0.575028 0.576793 0.598829 0.610289 0.62546 0.638627 0.642248 0.656111 0.680108 0.683585 0.694219 0.694694 0.703207 0.719408 0.724814 0.743211 0.745988 0.745681 0.754335 0.737623 0.669923 0.513983 0.251088 0.0294105 0.000159126 8.14493e-09 2.54258e-13 5.30272e-18 -1.35002e-21 -6.59311e-22 -2.86367e-22 -4.90006e-22 -6.84791e-22 5.36177e-22 3.60942e-22 -3.53576e-22 0 0 0.285059 0.277658 0.345666 0.36037 0.391137 0.417308 0.431189 0.466315 0.469332 0.491513 0.505962 0.507036 0.529353 0.544203 0.545873 0.566728 0.577574 0.591931 0.604392 0.60782 0.620939 0.64365 0.64694 0.657004 0.657454 0.665511 0.680844 0.68596 0.70337 0.705998 0.705708 0.713898 0.698082 0.634011 0.486431 0.237628 0.0278339 0.000150596 7.70832e-09 2.40625e-13 1.63327e-21 7.5001e-22 -4.39541e-22 -4.29551e-22 -4.20005e-22 -4.10875e-22 -4.69155e-22 3.28129e-22 -7.07152e-22 0 0 0.268631 0.261656 0.325745 0.339602 0.368596 0.393259 0.40634 0.439441 0.442285 0.463187 0.476804 0.477816 0.498846 0.51284 0.514415 0.534068 0.544289 0.557819 0.569562 0.572791 0.585155 0.606557 0.609658 0.619142 0.619566 0.627158 0.641607 0.646428 0.662836 0.665312 0.665038 0.672757 0.657852 0.597473 0.458398 0.223934 0.0262299 0.000141917 7.26409e-09 2.26835e-13 -5.14988e-17 -3.00004e-22 -7.32568e-22 1.43184e-22 7.00009e-22 1.36958e-22 -1.34044e-22 3.28129e-22 0 0 0 0.251939 0.245397 0.305503 0.318499 0.345691 0.368821 0.38109 0.412134 0.414801 0.434405 0.447175 0.448124 0.467848 0.480972 0.482449 0.500881 0.510466 0.523155 0.534169 0.537198 0.548793 0.568865 0.571773 0.580668 0.581066 0.588186 0.601737 0.606259 0.621647 0.623969 0.623713 0.630951 0.616973 0.560346 0.429913 0.210019 0.0245999 0.000133098 6.8127e-09 2.12817e-13 1.19473e-17 -4.50006e-22 -1.02559e-21 -5.72735e-22 8.40011e-22 5.47833e-22 -1.2064e-21 -1.18127e-21 1.28573e-22 0 0 0.234997 0.228895 0.28496 0.297082 0.322445 0.34402 0.355463 0.38442 0.386908 0.405193 0.417105 0.41799 0.436388 0.448629 0.450007 0.467199 0.47614 0.487976 0.498249 0.501074 0.51189 0.530612 0.533324 0.541621 0.541992 0.548633 0.561274 0.565491 0.579844 0.582011 0.581771 0.588523 0.575484 0.522666 0.401004 0.195896 0.0229457 0.000124148 6.35458e-09 1.9846e-13 4.38931e-22 0 5.86054e-22 0 1.40002e-22 9.58708e-22 4.02133e-22 -3.93755e-22 -2.57146e-22 0 0 0.217824 0.212168 0.264135 0.275371 0.298881 0.318879 0.329486 0.356327 0.358633 0.375582 0.386623 0.387444 0.404497 0.415844 0.417121 0.433056 0.441344 0.452315 0.461837 0.464456 0.474481 0.491835 0.494349 0.50204 0.502383 0.508539 0.520256 0.524165 0.537469 0.539478 0.539256 0.545514 0.533428 0.48447 0.371699 0.18158 0.0212689 0.000115075 5.89019e-09 1.83964e-13 1.1936e-21 -3.00004e-22 0 -2.86367e-22 -2.80004e-22 2.73917e-22 2.68089e-22 -2.62503e-22 -5.14292e-22 0 0 0.200435 0.195231 0.24305 0.253389 0.275022 0.293424 0.303184 0.327882 0.330004 0.3456 0.35576 0.356515 0.372206 0.382648 0.383823 0.398486 0.406112 0.416208 0.42497 0.427379 0.436604 0.452573 0.454886 0.461963 0.462279 0.467944 0.478725 0.482322 0.494564 0.496412 0.496208 0.501967 0.490846 0.445795 0.342027 0.167085 0.019571 0.000105889 5.41999e-09 1.69188e-13 -1.92236e-17 -6.00008e-22 0 0 0 5.47833e-22 5.36177e-22 -5.25007e-22 -7.71439e-22 0 0 0.182849 0.178101 0.221725 0.231157 0.250891 0.267679 0.276583 0.299114 0.301049 0.315277 0.324545 0.325234 0.339549 0.349074 0.350146 0.363523 0.37048 0.379689 0.387683 0.389881 0.398296 0.412864 0.414975 0.42143 0.421719 0.426886 0.436722 0.440003 0.451171 0.452857 0.452671 0.457924 0.447779 0.406681 0.312017 0.152425 0.0178539 9.65984e-05 4.94444e-09 1.54455e-13 7.55594e-18 6.00008e-22 -2.93027e-22 8.59102e-22 -5.60007e-22 -5.47833e-22 5.36177e-22 5.25007e-22 -1.02858e-21 0 0 0.165082 0.160796 0.200181 0.208696 0.226513 0.24167 0.249708 0.27005 0.271798 0.284643 0.293011 0.293633 0.306556 0.315156 0.316124 0.328201 0.334482 0.342797 0.350013 0.351998 0.359596 0.372748 0.374653 0.380482 0.380742 0.385408 0.394287 0.39725 0.407333 0.408855 0.408686 0.41343 0.40427 0.367166 0.2817 0.137614 0.0161191 8.72123e-05 4.46401e-09 1.39437e-13 -2.42934e-22 0 5.86054e-22 5.72735e-22 5.60007e-22 -8.2175e-22 2.68089e-22 5.25007e-22 0 0 0 0.147153 0.143332 0.178439 0.18603 0.201912 0.215422 0.222588 0.24072 0.242278 0.253728 0.261187 0.261741 0.273261 0.280927 0.28179 0.292555 0.298154 0.305566 0.311998 0.313767 0.32054 0.332263 0.333962 0.339157 0.33939 0.343548 0.351464 0.354105 0.363092 0.364449 0.364299 0.368527 0.360362 0.327288 0.251104 0.122668 0.0143684 7.77402e-05 3.97917e-09 1.24248e-13 -8.98335e-18 -3.00004e-22 -5.86054e-22 -5.72735e-22 0 -2.73917e-22 5.36177e-22 -2.62503e-22 2.57146e-22 0 0 0.129078 0.125726 0.156521 0.163179 0.177111 0.188962 0.195247 0.211152 0.212519 0.222562 0.229105 0.229591 0.239697 0.246421 0.247177 0.256621 0.261532 0.268033 0.273675 0.275227 0.281168 0.291451 0.292942 0.297499 0.297702 0.30135 0.308293 0.31061 0.318494 0.319684 0.319552 0.323261 0.316099 0.287087 0.220261 0.107601 0.0126035 6.81913e-05 3.49041e-09 1.0904e-13 4.77842e-18 3.00004e-22 2.93027e-22 -2.86367e-22 -2.80004e-22 -2.73917e-22 0 -2.62503e-22 -2.57146e-22 0 0 0.110876 0.107997 0.134449 0.140168 0.152135 0.162315 0.167714 0.181376 0.18255 0.191177 0.196797 0.197215 0.205895 0.211671 0.212321 0.220433 0.2246