<?xml version="1.0"?>
<VTKFile type="PolyData">
	<PolyData>
		<Piece NumberOfPoints="2601" NumberOfPolys="2500">
			<Points>
				<DataArray type="Float32" NumberOfComponents="3" format="ascii">
 1e-06 0 0 0.241349 0 0 0.274582 0 0 0.305777 0 0 0.329871 0 0 0.349901 0 0 0.366791 0 0 0.382269 0 0 0.396638 0 0 0.408931 0 0 0.419974 0 0 0.430012 0 0 0.439279 0 0 0.447629 0 0 0.455687 0 0 0.462848 0 0 0.469361 0 0 0.475124 0 0 0.480753 0 0 0.486061 0 0 0.490901 0 0 0.495467 0 0 0.499669 0 0 0.503544 0 0 0.507578 0 0 0.513291 0 0 0.523357 0 0 0.540174 0 0 0.560001 0 0 0.580001 0 0 0.600001 0 0 0.620001 0 0 0.640001 0 0 0.660001 0 0 0.680001 0 0 0.700001 0 0 0.720001 0 0 0.740001 0 0 0.760001 0 0 0.780001 0 0 0.800001 0 0 0.820001 0 0 0.840001 0 0 0.860001 0 0 0.880001 0 0 0.900001 0 0 0.920001 0 0 0.940001 0 0 0.960001 0 0 0.980001 0 0 1 0 0 9.99507e-07 3.14108e-08 0 0.24123 0.00758096 0 0.274447 0.00862484 0 0.305626 0.00960468 0 0.329708 0.0103615 0 0.349728 0.0109907 0 0.36661 0.0115212 0 0.38208 0.0120074 0 0.396443 0.0124587 0 0.408729 0.0128448 0 0.419767 0.0131917 0 0.4298 0.013507 0 0.439062 0.0137981 0 0.447408 0.0140604 0 0.455462 0.0143135 0 0.46262 0.0145384 0 0.469129 0.014743 0 0.474889 0.014924 0 0.480516 0.0151008 0 0.485821 0.0152675 0 0.490659 0.0154196 0 0.495222 0.015563 0 0.499423 0.015695 0 0.503296 0.0158167 0 0.507327 0.0159434 0 0.513038 0.0161229 0 0.523099 0.016439 0 0.539907 0.0169673 0 0.559725 0.0175901 0 0.579715 0.0182183 0 0.599705 0.0188465 0 0.619695 0.0194747 0 0.639685 0.0201029 0 0.659675 0.0207311 0 0.679665 0.0213593 0 0.699656 0.0219876 0 0.719646 0.0226158 0 0.739636 0.023244 0 0.759626 0.0238722 0 0.779616 0.0245004 0 0.799606 0.0251286 0 0.819596 0.0257569 0 0.839587 0.0263851 0 0.859577 0.0270133 0 0.879567 0.0276415 0 0.899557 0.0282697 0 0.919547 0.0288979 0 0.939537 0.0295261 0 0.959527 0.0301544 0 0.979517 0.0307826 0 0.999508 0.0314108 0 9.98027e-07 6.27905e-08 0 0.240873 0.0151544 0 0.27404 0.0172412 0 0.305174 0.0191999 0 0.32922 0.0207128 0 0.34921 0.0219705 0 0.366067 0.023031 0 0.381514 0.0240029 0 0.395856 0.0249051 0 0.408124 0.025677 0 0.419145 0.0263704 0 0.429164 0.0270007 0 0.438412 0.0275825 0 0.446745 0.0281068 0 0.454788 0.0286128 0 0.461935 0.0290625 0 0.468435 0.0294714 0 0.474186 0.0298333 0 0.479804 0.0301867 0 0.485102 0.03052 0 0.489932 0.0308239 0 0.494489 0.0311106 0 0.498683 0.0313745 0 0.502551 0.0316178 0 0.506576 0.0318711 0 0.512278 0.0322298 0 0.522324 0.0328618 0 0.539108 0.0339178 0 0.558896 0.0351628 0 0.578857 0.0364186 0 0.598817 0.0376744 0 0.618778 0.0389302 0 0.638738 0.040186 0 0.658699 0.0414418 0 0.678659 0.0426976 0 0.69862 0.0439534 0 0.71858 0.0452092 0 0.738541 0.046465 0 0.758501 0.0477209 0 0.778462 0.0489767 0 0.798422 0.0502325 0 0.818383 0.0514883 0 0.838343 0.0527441 0 0.858304 0.0539999 0 0.878265 0.0552557 0 0.898225 0.0565115 0 0.918186 0.0577673 0 0.938146 0.0590232 0 0.958107 0.060279 0 0.978067 0.0615348 0 0.998028 0.0627906 0 9.95562e-07 9.41083e-08 0 0.240278 0.022713 0 0.273364 0.0258405 0 0.30442 0.0287761 0 0.328407 0.0310436 0 0.348348 0.0329286 0 0.365163 0.0345181 0 0.380572 0.0359747 0 0.394878 0.037327 0 0.407116 0.0384838 0 0.41811 0.039523 0 0.428104 0.0404677 0 0.437329 0.0413398 0 0.445642 0.0421256 0 0.453665 0.0428839 0 0.460794 0.0435578 0 0.467278 0.0441708 0 0.473015 0.0447131 0 0.47862 0.0452429 0 0.483904 0.0457424 0 0.488722 0.0461979 0 0.493268 0.0466275 0 0.497452 0.047023 0 0.50131 0.0473877 0 0.505325 0.0477673 0 0.511013 0.048305 0 0.521034 0.0492522 0 0.537776 0.0508348 0 0.557516 0.0527008 0 0.577427 0.0545829 0 0.597338 0.0564651 0 0.617249 0.0583472 0 0.637161 0.0602294 0 0.657072 0.0621116 0 0.676983 0.0639937 0 0.696894 0.0658759 0 0.716806 0.0677581 0 0.736717 0.0696402 0 0.756628 0.0715224 0 0.776539 0.0734046 0 0.796451 0.0752867 0 0.816362 0.0771689 0 0.836273 0.0790511 0 0.856184 0.0809332 0 0.876096 0.0828154 0 0.896007 0.0846976 0 0.915918 0.0865797 0 0.935829 0.0884619 0 0.95574 0.0903441 0 0.975652 0.0922262 0 0.995563 0.0941084 0 9.92115e-07 1.25333e-07 0 0.239446 0.0302491 0 0.272417 0.0344143 0 0.303366 0.038324 0 0.32727 0.0413438 0 0.347142 0.0438542 0 0.363899 0.0459711 0 0.379254 0.047911 0 0.393511 0.049712 0 0.405706 0.0512526 0 0.416662 0.0526367 0 0.426622 0.0538948 0 0.435815 0.0550562 0 0.444099 0.0561027 0 0.452094 0.0571127 0 0.459198 0.0580102 0 0.46566 0.0588265 0 0.471377 0.0595488 0 0.476962 0.0602543 0 0.482228 0.0609196 0 0.48703 0.0615262 0 0.49156 0.0620985 0 0.495729 0.0626252 0 0.499574 0.0631109 0 0.503575 0.0636164 0 0.509244 0.0643324 0 0.51923 0.065594 0 0.535914 0.0677017 0 0.555586 0.0701868 0 0.575428 0.0726934 0 0.59527 0.0752001 0 0.615112 0.0777067 0 0.634954 0.0802134 0 0.654797 0.0827201 0 0.674639 0.0852267 0 0.694481 0.0877334 0 0.714324 0.0902401 0 0.734166 0.0927467 0 0.754008 0.0952534 0 0.77385 0.09776 0 0.793693 0.100267 0 0.813535 0.102773 0 0.833377 0.10528 0 0.85322 0.107787 0 0.873062 0.110293 0 0.892904 0.1128 0 0.912747 0.115307 0 0.932589 0.117813 0 0.952431 0.12032 0 0.972273 0.122827 0 0.992116 0.125333 0 9.87688e-07 1.56434e-07 0 0.238378 0.0377553 0 0.271202 0.0429541 0 0.302012 0.047834 0 0.32581 0.0516032 0 0.345593 0.0547366 0 0.362275 0.0573787 0 0.377562 0.0598 0 0.391755 0.0620479 0 0.403896 0.0639709 0 0.414803 0.0656984 0 0.424718 0.0672687 0 0.43387 0.0687183 0 0.442118 0.0700245 0 0.450077 0.0712852 0 0.45715 0.0724054 0 0.463582 0.0734242 0 0.469274 0.0743257 0 0.474834 0.0752064 0 0.480077 0.0760367 0 0.484857 0.0767938 0 0.489367 0.0775081 0 0.493517 0.0781655 0 0.497345 0.0787717 0 0.501329 0.0794027 0 0.506972 0.0802964 0 0.516913 0.081871 0 0.533523 0.0845018 0 0.553107 0.0876035 0 0.57286 0.0907321 0 0.592614 0.0938608 0 0.612368 0.0969895 0 0.632122 0.100118 0 0.651875 0.103247 0 0.671629 0.106376 0 0.691383 0.109504 0 0.711137 0.112633 0 0.73089 0.115762 0 0.750644 0.11889 0 0.770398 0.122019 0 0.790152 0.125148 0 0.809905 0.128276 0 0.829659 0.131405 0 0.849413 0.134534 0 0.869167 0.137662 0 0.88892 0.140791 0 0.908674 0.14392 0 0.928428 0.147049 0 0.948182 0.150177 0 0.967936 0.153306 0 0.987689 0.156435 0 9.82287e-07 1.87381e-07 0 0.237074 0.0452243 0 0.269719 0.0514516 0 0.300361 0.0572969 0 0.324028 0.0618117 0 0.343703 0.0655649 0 0.360294 0.0687298 0 0.375498 0.07163 0 0.389613 0.0743226 0 0.401688 0.076626 0 0.412535 0.0786953 0 0.422396 0.0805763 0 0.431498 0.0823126 0 0.4397 0.0838772 0 0.447616 0.0853872 0 0.45465 0.0867291 0 0.461047 0.0879494 0 0.466708 0.0890293 0 0.472238 0.0900842 0 0.477451 0.0910787 0 0.482206 0.0919857 0 0.486691 0.0928412 0 0.490819 0.0936287 0 0.494625 0.0943548 0 0.498587 0.0951106 0 0.504199 0.0961812 0 0.514087 0.0980673 0 0.530606 0.101218 0 0.550082 0.104934 0 0.569728 0.108681 0 0.589373 0.112429 0 0.609019 0.116177 0 0.628665 0.119924 0 0.648311 0.123672 0 0.667956 0.127419 0 0.687602 0.131167 0 0.707248 0.134915 0 0.726894 0.138662 0 0.746539 0.14241 0 0.766185 0.146158 0 0.785831 0.149905 0 0.805477 0.153653 0 0.825122 0.1574 0 0.844768 0.161148 0 0.864414 0.164896 0 0.88406 0.168643 0 0.903705 0.172391 0 0.923351 0.176139 0 0.942997 0.179886 0 0.962642 0.183634 0 0.982288 0.187382 0 9.75917e-07 2.18143e-07 0 0.235537 0.0526487 0 0.267969 0.0598983 0 0.298413 0.0667032 0 0.321927 0.0719592 0 0.341474 0.0763285 0 0.357957 0.0800129 0 0.373063 0.0833893 0 0.387086 0.086524 0 0.399083 0.0892055 0 0.40986 0.0916145 0 0.419656 0.0938043 0 0.428699 0.0958256 0 0.436848 0.0976471 0 0.444713 0.099405 0 0.451701 0.100967 0 0.458057 0.102388 0 0.463681 0.103645 0 0.469175 0.104873 0 0.474355 0.106031 0 0.479078 0.107087 0 0.483534 0.108083 0 0.487636 0.108999 0 0.491417 0.109845 0 0.495354 0.110725 0 0.500929 0.111971 0 0.510753 0.114167 0 0.527165 0.117835 0 0.546515 0.122161 0 0.566033 0.126523 0 0.585551 0.130886 0 0.605069 0.135249 0 0.624588 0.139612 0 0.644106 0.143975 0 0.663624 0.148338 0 0.683143 0.1527 0 0.702661 0.157063 0 0.722179 0.161426 0 0.741698 0.165789 0 0.761216 0.170152 0 0.780734 0.174515 0 0.800253 0.178878 0 0.819771 0.183241 0 0.839289 0.187603 0 0.858808 0.191966 0 0.878326 0.196329 0 0.897844 0.200692 0 0.917363 0.205055 0 0.936881 0.209418 0 0.956399 0.213781 0 0.975918 0.218143 0 9.68583e-07 2.4869e-07 0 0.233767 0.0600211 0 0.265956 0.0682858 0 0.29617 0.0760436 0 0.319508 0.0820356 0 0.338908 0.0870168 0 0.355267 0.0912172 0 0.370259 0.0950664 0 0.384177 0.09864 0 0.396084 0.101697 0 0.40678 0.104443 0 0.416503 0.10694 0 0.425478 0.109244 0 0.433565 0.111321 0 0.441371 0.113325 0 0.448307 0.115106 0 0.454615 0.116725 0 0.460197 0.118158 0 0.465649 0.119558 0 0.47079 0.120878 0 0.475478 0.122082 0 0.479901 0.123218 0 0.483971 0.124263 0 0.487725 0.125226 0 0.491631 0.126229 0 0.497165 0.12765 0 0.506915 0.130154 0 0.523203 0.134336 0 0.542408 0.139267 0 0.561779 0.14424 0 0.581151 0.149214 0 0.600523 0.154188 0 0.619894 0.159162 0 0.639266 0.164136 0 0.658638 0.169109 0 0.678009 0.174083 0 0.697381 0.179057 0 0.716753 0.184031 0 0.736124 0.189005 0 0.755496 0.193978 0 0.774867 0.198952 0 0.794239 0.203926 0 0.813611 0.2089 0 0.832982 0.213874 0 0.852354 0.218847 0 0.871726 0.223821 0 0.891097 0.228795 0 0.910469 0.233769 0 0.929841 0.238743 0 0.949212 0.243716 0 0.968584 0.24869 0 9.60294e-07 2.78991e-07 0 0.231766 0.0673342 0 0.26368 0.076606 0 0.293636 0.085309 0 0.316773 0.0920311 0 0.336008 0.0976192 0 0.352227 0.102331 0 0.36709 0.10665 0 0.380889 0.110659 0 0.392694 0.114088 0 0.403298 0.117169 0 0.412938 0.11997 0 0.421836 0.122555 0 0.429855 0.124884 0 0.437593 0.127133 0 0.44447 0.12913 0 0.450724 0.130947 0 0.456258 0.132555 0 0.461664 0.134126 0 0.466761 0.135607 0 0.471409 0.136957 0 0.475794 0.138231 0 0.479829 0.139403 0 0.483551 0.140484 0 0.487424 0.14161 0 0.49291 0.143204 0 0.502576 0.146012 0 0.518725 0.150704 0 0.537766 0.156235 0 0.556971 0.161815 0 0.576177 0.167395 0 0.595383 0.172975 0 0.614589 0.178555 0 0.633795 0.184134 0 0.653001 0.189714 0 0.672207 0.195294 0 0.691412 0.200874 0 0.710618 0.206454 0 0.729
[...]
			<PointData Scalars="VitesseX">
				<DataArray Name="VitesseX" type="Float32" format="ascii">
 0 0.884659 0.835909 1.06272 1.1455 1.21534 1.35536 1.36599 1.47469 1.5324 1.54252 1.57967 1.67047 1.6976 1.68309 1.75834 1.83841 1.86414 1.8867 1.90775 1.95649 1.99872 2.02086 2.07305 1.97547 1.62132 0.847759 0.0920269 0.000392685 1.19225e-08 2.16447e-13 0 0 0 0 0 0 0 0 0 0 0 0 0 0 0 0 0 0 0 0 0 0.884222 0.835496 1.0622 1.14494 1.21474 1.35469 1.36532 1.47396 1.53164 1.54176 1.57889 1.66965 1.69676 1.68226 1.75748 1.8375 1.86322 1.88577 1.9068 1.95553 1.99774 2.01986 2.07202 1.97449 1.62052 0.847341 0.0919815 0.000392491 1.19166e-08 2.1634e-13 0 0 0 3.88794e-22 0 -3.67195e-22 0 0 0 3.30475e-22 3.22415e-22 -3.14738e-22 -3.07419e-22 0 0 2.8737e-22 -2.81256e-22 0 5.39552e-22 0 0 0.882913 0.834259 1.06063 1.14324 1.21294 1.35268 1.3633 1.47178 1.52938 1.53948 1.57655 1.66718 1.69425 1.67977 1.75487 1.83478 1.86046 1.88298 1.90398 1.95263 1.99478 2.01687 2.06896 1.97157 1.61812 0.846086 0.0918453 0.00039191 1.1899e-08 2.16028e-13 0 0 0 0 -3.77686e-22 0 0 0 0 0 0 -3.14738e-22 0 0 0 2.8737e-22 -5.62511e-22 0 0 0 0 0.880733 0.832199 1.05801 1.14042 1.20994 1.34934 1.35993 1.46814 1.5256 1.53568 1.57266 1.66306 1.69006 1.67562 1.75054 1.83025 1.85587 1.87833 1.89928 1.94781 1.98985 2.01189 2.06385 1.9667 1.61412 0.843997 0.0916185 0.000390942 1.18696e-08 2.15505e-13 0 0 0 3.88794e-22 0 3.67195e-22 0 0 0 0 0 0 0 0 5.87512e-22 2.8737e-22 -2.81256e-22 0 0 0 0 0.877683 0.829317 1.05434 1.13647 1.20575 1.34467 1.35522 1.46306 1.52032 1.53036 1.56721 1.6573 1.68421 1.66982 1.74448 1.82391 1.84944 1.87182 1.8927 1.94106 1.98296 2.00492 2.0567 1.95989 1.60853 0.841074 0.0913013 0.000389588 1.18285e-08 2.14764e-13 0 0 0 0 0 0 0 3.47869e-22 0 0 0 0 0 -3.00432e-22 2.93756e-22 -5.7474e-22 0 -2.75396e-22 -2.69776e-22 0 0 0.873767 0.825617 1.04964 1.1314 1.20037 1.33867 1.34917 1.45653 1.51353 1.52353 1.56022 1.64991 1.6767 1.66237 1.7367 1.81577 1.84119 1.86347 1.88426 1.9324 1.97412 1.99598 2.04752 1.95115 1.60136 0.837322 0.0908939 0.00038785 1.17757e-08 2.13818e-13 0 0 4.00576e-22 -3.88794e-22 -3.77686e-22 0 -3.57271e-22 -3.47869e-22 0 3.30475e-22 0 -3.14738e-22 0 0 2.93756e-22 0 5.62511e-22 -2.75396e-22 0 0 0 0.868989 0.821102 1.0439 1.12521 1.19381 1.33135 1.3418 1.44857 1.50526 1.5152 1.55169 1.64089 1.66753 1.65328 1.7272 1.80584 1.83112 1.85328 1.87395 1.92184 1.96332 1.98506 2.03633 1.94048 1.5926 0.832743 0.0903969 0.000385729 1.17113e-08 2.12671e-13 -4.2642e-22 0 0 3.88794e-22 0 0 0 3.47869e-22 0 0 0 3.14738e-22 0 -3.00432e-22 -2.93756e-22 0 5.62511e-22 -2.75396e-22 2.69776e-22 0 0 0.863353 0.815777 1.03713 1.11792 1.18607 1.32271 1.33309 1.43917 1.49549 1.50538 1.54163 1.63024 1.65671 1.64256 1.716 1.79413 1.81925 1.84126 1.8618 1.90937 1.95059 1.97219 2.02312 1.92789 1.58227 0.827342 0.0898106 0.000383228 1.16354e-08 2.11273e-13 0 0 -4.00576e-22 0 -3.77686e-22 0 0 0 -3.38949e-22 0 0 -3.14738e-22 3.07419e-22 0 -2.93756e-22 -2.8737e-22 -2.81256e-22 0 0 0 0 0.856866 0.809647 1.02934 1.10951 1.17715 1.31278 1.32308 1.42836 1.48426 1.49406 1.53004 1.61799 1.64426 1.63021 1.7031 1.78065 1.80558 1.82742 1.84781 1.89502 1.93593 1.95737 2.00792 1.9134 1.57038 0.821125 0.0891357 0.000380348 1.15479e-08 2.09687e-13 0 2.06547e-22 0 0 0 0 3.57271e-22 0 0 0 0 0 3.07419e-22 6.00864e-22 -2.93756e-22 0 0 0 2.69776e-22 0 0 0.849532 0.802718 1.02053 1.10002 1.16708 1.30154 1.31175 1.41613 1.47155 1.48128 1.51695 1.60415 1.63019 1.61626 1.68853 1.76541 1.79012 1.81178 1.832 1.87881 1.91936 1.94062 1.99073 1.89703 1.55694 0.814098 0.0883729 0.000377093 1.14491e-08 2.07857e-13 -2.1321e-22 2.06547e-22 0 -3.88794e-22 0 0 3.57271e-22 -3.47869e-22 0 0 0 -6.29477e-22 -6.14838e-22 6.00864e-22 2.93756e-22 2.8737e-22 0 0 2.69776e-22 0 0 0.841361 0.794996 1.01071 1.08944 1.15585 1.28902 1.29913 1.40251 1.4574 1.46703 1.50236 1.58872 1.61451 1.60071 1.67228 1.74843 1.7729 1.79436 1.81437 1.86073 1.9009 1.92195 1.97158 1.87878 1.54196 0.806267 0.0875228 0.000373465 1.1339e-08 2.05867e-13 -4.2642e-22 2.06547e-22 -2.00288e-22 0 0 0 0 0 3.38949e-22 -3.30475e-22 6.4483e-22 3.14738e-22 0 0 0 -2.8737e-22 -2.81256e-22 -2.75396e-22 2.69776e-22 0 0 0.832359 0.78649 0.999896 1.07778 1.14349 1.27523 1.28523 1.3875 1.44181 1.45133 1.48628 1.57172 1.59724 1.58359 1.65439 1.72972 1.75393 1.77516 1.79496 1.84082 1.88056 1.90139 1.95049 1.85868 1.52547 0.79764 0.0865864 0.00036947 1.12176e-08 2.03709e-13 -2.1321e-22 2.06547e-22 0 1.94397e-22 0 0 -3.57271e-22 3.47869e-22 3.38949e-22 -3.30475e-22 -3.22415e-22 -3.14738e-22 0 -3.00432e-22 2.93756e-22 2.8737e-22 -2.81256e-22 -2.75396e-22 5.39552e-22 0 0 0.822535 0.777208 0.988095 1.06506 1.12999 1.26018 1.27007 1.37113 1.42479 1.4342 1.46874 1.55317 1.57839 1.5649 1.63487 1.70931 1.73323 1.75421 1.77378 1.8191 1.85837 1.87895 1.92747 1.83674 1.50746 0.788227 0.0855645 0.000365109 1.10852e-08 2.01296e-13 0 0 0 -3.88794e-22 -1.88843e-22 -1.83597e-22 -1.78635e-22 3.47869e-22 -3.38949e-22 0 -3.22415e-22 0 3.07419e-22 -3.00432e-22 -2.93756e-22 -2.8737e-22 -2.81256e-22 -2.75396e-22 0 0 0 0.8119 0.767159 0.975319 1.05129 1.11538 1.24388 1.25364 1.3534 1.40637 1.41566 1.44975 1.53309 1.55798 1.54466 1.61373 1.68721 1.71082 1.73153 1.75084 1.79558 1.83434 1.85465 1.90255 1.81299 1.48797 0.778035 0.0844581 0.000360388 1.09419e-08 1.98748e-13 -2.1321e-22 -4.13094e-22 -4.00576e-22 0 3.77686e-22 1.83597e-22 -1.78635e-22 0 3.38949e-22 3.30475e-22 0 0 0 0 5.87512e-22 0 2.81256e-22 0 -2.69776e-22 0 0 0.800463 0.756353 0.961581 1.03648 1.09967 1.22636 1.23599 1.33434 1.38656 1.39572 1.42933 1.51149 1.53603 1.52291 1.591 1.66344 1.68673 1.70714 1.72618 1.77029 1.8085 1.82853 1.87575 1.78746 1.46701 0.767075 0.0832685 0.000355312 1.07878e-08 1.95936e-13 -2.1321e-22 4.13094e-22 -2.00288e-22 -1.94397e-22 1.88843e-22 1.83597e-22 1.78635e-22 -1.73934e-22 -1.69475e-22 0 0 3.14738e-22 0 0 0 -2.8737e-22 0 2.75396e-22 -2.69776e-22 0 0 0.788237 0.7448 0.946894 1.02065 1.08287 1.20763 1.21711 1.31396 1.36538 1.3744 1.4075 1.4884 1.51257 1.49965 1.5667 1.63803 1.66096 1.68106 1.69981 1.74325 1.78088 1.8006 1.8471 1.76015 1.4446 0.755359 0.0819966 0.000349885 1.0623e-08 1.92917e-13 -2.1321e-22 2.06547e-22 2.00288e-22 0 -5.66529e-22 0 0 0 0 -3.30475e-22 -1.61207e-22 0 3.07419e-22 0 0 2.8737e-22 0 2.75396e-22 2.69776e-22 0 0 0.775233 0.732512 0.931272 1.00381 1.06501 1.18771 1.19703 1.29228 1.34285 1.35172 1.38428 1.46385 1.48762 1.4749 1.54085 1.61101 1.63356 1.65333 1.67177 1.71449 1.75149 1.77089 1.81662 1.73112 1.42077 0.742897 0.0806438 0.000344112 1.04478e-08 1.8973e-13 -4.2642e-22 -2.06547e-22 -4.00576e-22 1.94397e-22 0 1.83597e-22 3.57271e-22 5.21803e-22 3.38949e-22 1.65238e-22 3.22415e-22 -3.14738e-22 -3.07419e-22 1.50216e-22 -2.93756e-22 -2.8737e-22 0 0 -2.69776e-22 0 0 0.761463 0.719502 0.914731 0.985983 1.04609 1.16661 1.17577 1.26932 1.319 1.32772 1.35969 1.43785 1.46119 1.44871 1.51348 1.58239 1.60454 1.62396 1.64208 1.68403 1.72039 1.73944 1.78436 1.70037 1.39554 0.729702 0.0792114 0.000338 1.02622e-08 1.86375e-13 3.19815e-22 3.0982e-22 2.00288e-22 1.94397e-22 0 -3.67195e-22 -3.57271e-22 0 -1.69475e-22 -1.65238e-22 4.83622e-22 1.57369e-22 0 0 0 2.8737e-22 2.81256e-22 2.75396e-22 -2.69776e-22 0 0 0.746942 0.705781 0.897287 0.96718 1.02614 1.14437 1.15334 1.24512 1.29385 1.3024 1.33376 1.41043 1.43333 1.42108 1.48462 1.55222 1.57395 1.59299 1.61076 1.65192 1.68758 1.70627 1.75033 1.66794 1.36892 0.715787 0.0777009 0.000331555 1.00665e-08 1.82869e-13 -4.2642e-22 1.03273e-22 -4.00576e-22 1.94397e-22 0 3.67195e-22 5.35906e-22 -5.21803e-22 5.08424e-22 -4.95713e-22 3.22415e-22 -4.72108e-22 3.07419e-22 0 -2.93756e-22 -1.43685e-22 -1.40628e-22 0 -2.69776e-22 0 0 0.731684 0.691364 0.878958 0.947423 1.00518 1.12099 1.12978 1.21968 1.26742 1.27579 1.30651 1.38162 1.40405 1.39205 1.45429 1.52051 1.54179 1.56045 1.57786 1.61818 1.65311 1.67141 1.71458 1.63387 1.34096 0.701165 0.0761137 0.000324782 9.86086e-09 1.79127e-13 3.19815e-22 4.13094e-22 -6.00864e-22 9.71986e-23 9.44215e-23 0 -5.35906e-22 -1.73934e-22 -1.69475e-22 -1.65238e-22 3.22415e-22 -7.86846e-22 3.07419e-22 3.00432e-22 -2.93756e-22 1.43685e-22 -2.81256e-22 2.75396e-22 -2.69776e-22 0 0 0.715704 0.676264 0.859761 0.926731 0.983227 1.09651 1.10511 1.19305 1.23974 1.24793 1.27798 1.35144 1.37339 1.36165 1.42253 1.4873 1.50812 1.52637 1.5434 1.58283 1.617 1.63491 1.67713 1.59819 1.31167 0.685852 0.0744514 0.000317689 9.64549e-09 1.75243e-13 3.19815e-22 -2.06547e-22 4.00576e-22 -1.94397e-22 1.88843e-22 4.58993e-22 -1.78635e-22 -1.73934e-22 -1.69475e-22 1.65238e-22 6.4483e-22 0 -1.53709e-22 3.00432e-22 1.46878e-22 -2.8737e-22 -2.81256e-22 0 0 0 0 0.699018 0.660497 0.839716 0.905125 0.960303 1.07094 1.07934 1.16523 1.21083 1.21883 1.24818 1.31993 1.34137 1.3299 1.38936 1.45263 1.47296 1.49078 1.50741 1.54593 1.5793 1.59679 1.63803 1.56093 1.28109 0.669861 0.0727155 0.000310282 9.42061e-09 1.71085e-13 -5.33024e-22 0 2.00288e-22 9.71986e-23 0 9.17987e-23 8.93176e-23 -8.69672e-23 1.69475e-22 -3.30475e-22 -4.83622e-22 6.29477e-22 0 -4.50648e-22 0 0 -1.40628e-22 -2.75396e-22 -2.69776e-22 0 0 0.681641 0.644079 0.818843 0.882625 0.936432 1.04432 1.05251 1.13627 1.18073 1.18854 1.21716 1.28712 1.30802 1.29684 1.35483 1.41652 1.43635 1.45373 1.46994 1.5075 1.54004 1.5571 1.59731 1.52212 1.24925 0.65321 0.070908 0.000302569 9.18643e-09 1.66855e-13 3.19815e-22 -1.5491e-22 -5.0072e-23 0 -2.83264e-22 9.17987e-23 2.67953e-22 -6.95737e-22 4.23686e-22 1.65238e-22 0 -3.14738e-22 1.53709e-22 3.00432e-22 4.40634e-22 -1.43685e-22 4.21883e-22 4.13094e-22 -1.34888e-22 0 0 0.663592 0.627024 0.797161 0.859254 0.911636 1.01667 1.02464 1.10618 1.14947 1.15706 1.18493 1.25304 1.27339 1.26251 1.31895 1.37901 1.39831 1.41523 1.43102 1.46759 1.49926 1.51587 1.55501 1.48182 1.21617 0.635914 0.0690304 0.000294557 8.94319e-09 1.6247e-13 3.46466e-22 -5.16367e-23 2.00288e-22 0 4.24897e-22 1.83597e-22 1.78635e-22 -2.60902e-22 2.54212e-22 8.26188e-23 5.64226e-22 7.86846e-23 -3.07419e-22 -1.50216e-22 0 -4.31055e-22 -1.40628e-22 0 -1.34888e-22 0 0 0.644889 0.609351 0.774692 0.835036 0.885941 0.988012 0.995764 1.075 1.11707 1.12445 1.15153 1.21772 1.2375 1.22692 1.28178 1.34014 1.3589 1.37534 1.39069 1.42622 1.45701 1.47314 1.51119 1.44005 1.18189 0.61799 0.0670847 0.000286255 8.69112e-09 1.57877e-13 -6.66281e-23 -5.16367e-23 2.5036e-22 -2.42996e-22 -3.30475e-22 2.29497e-22 -1.33976e-22 -1.73934e-22 -1.69475e-22 -3.30475e-22 0 1.57369e-22 1.53709e-22 -1.50216e-22 0 0 -1.40628e-22 1.37698e-22 1.34888e-22 0 0 0.625548 0.591077 0.751459 0.809993 0.859372 0.958382 0.965901 1.04276 1.08357 1.09073 1.117 1.1812 1.20038 1.19013 1.24334 1.29995 1.31815 1.3341 1.34898 1.38345 1.41331 1.42896 1.46586 1.39687 1.14644 0.599456 0.0650729 0.00027767 8.43047e-09 1.53095e-13 -2.99826e-23 -5.80913e-22 -1.00144e-22 -2.18697e-22 -3.30475e-22 -1.37698e-22 1.78635e-22 -3.91352e-22 -4.23686e-23 -5.78332e-22 -2.41811e-22 2.36054e-22 1.53709e-22 -1.50216e-22 0 1.43685e-22 -7.03139e-23 -1.37698e-22 2.69776e-22 0 0 0.605591 0.572219 0.727484 0.784151 0.831954 0.927805 0.935085 1.00949 1.049 1.05593 1.08136 1.14352 1.16209 1.15216 1.20367 1.25848 1.27609 1.29153 1.30594 1.33931 1.36822 1.38337 1.4191 1.3523 1.10987 0.580331 0.0629968 0.000268811 8.1615e-09 1.48258e-13 1.86559e-22 5.16367e-22 6.8849e-23 -3.3412e-22 4.36699e-22 -4.13094e-22 2.23294e-23 2.60902e-22 -1.69475e-22 2.47856e-22 1.61207e-22 7.86846e-23 -1.53709e-22 7.5108e-23 3.67195e-22 0 3.5157e-22 -4.13094e-22 3.3722e-22 0 0 0.585035 0.552796 0.702792 0.757535 0.803716 0.896313 0.903346 0.975228 1.01339 1.02009 1.04465 1.1047 1.12264 1.11305 1.16281 1.21576 1.23278 1.2477 1.26161 1.29385 1.32178 1.33642 1.37093 1.3064 1.0722 0.560633 0.0608585 0.000259687 7.88448e-09 1.43208e-13 2.66512e-22 -4.64731e-22 4.50648e-22 6.07491e-23 -1.06224e-22 -2.58184e-22 8.93176e-23 8.69672e-23 4.23686e-22 -7.43569e-22 -2.01509e-22 -1.96711e-22 4.22701e-22 -3.7554e-23 0 1.43685e-22 2.81256e-22 -5.50792e-22 5.39552e-22 0 0 0.563903 0.532828 0.677405 0.730171 0.774684 0.863937 0.870715 0.94 0.976788 0.983242 1.00692 1.0648 1.08209 1.07284 1.12081 1.17184 1.18825 1.20263 1.21604 1.24711 1.27403 1.28814 1.32141 1.25921 1.03347 0.540382 0.0586602 0.000250307 7.59968e-09 1.38113e-13 3.19815e-22 2.06547e-22 5.0072e-22 2.67296e-22 -1.41632e-22 -6.8849e-22 3.90765e-23 3.66893e-23 -1.4829e-22 3.71785e-22 8.06037e-22 -3.14738e-22 -9.60684e-22 1.50216e-22 -1.83597e-22 -3.23291e-22 1.40628e-22 -2.75396e-22 0 0 0 0.542214 0.512334 0.651351 0.702087 0.744888 0.830707 0.837225 0.903846 0.939219 0.945424 0.968191 1.02385 1.04047 1.03158 1.0777 1.12677 1.14255 1.15637 1.16927 1.19915 1.22503 1.2386 1.27058 1.21078 0.993716 0.519598 0.056404 0.000240679 7.30738e-09 1.32716e-13 -1.06605e-22 -3.0982e-22 3.00432e-22 2.91596e-22 9.44215e-23 9.17987e-23 -1.11647e-22 -4.34836e-22 5.82569e-22 7.87461e-23 2.46849e-22 4.03259e-22 2.1135e-22 3.7554e-22 -5.14073e-22 -2.51449e-22 3.5157e-23 6.8849e-23 3.3722e-22 0 0 0.519989 0.491335 0.624653 0.67331 0.714356 0.796658 0.802909 0.866799 0.900722 0.906673 0.928507 0.981881 0.997823 0.989296 1.03353 1.08059 1.09571 1.10897 1.12134 1.15 1.17482 1.18783 1.21851 1.16115 0.952986 0.4983 0.0540921 0.000230814 7.00786e-09 1.27272e-13 -5.33024e-22 -2.06547e-22 -3.00432e-22 -2.42996e-22 1.88843e-22 9.17987e-23 8.93176e-23 6.95737e-22 -4.44871e-22 2.47856e-22 3.12339e-22 5.40957e-23 2.23359e-22 -1.8777e-23 4.68173e-22 -2.15527e-22 3.86726e-22 1.72123e-22 -3.3722e-22 0 0 0.497252 0.46985 0.597339 0.643868 0.68312 0.761823 0.767801 0.828897 0.861336 0.867028 0.887906 0.938946 0.954192 0.946038 0.988336 1.03334 1.0478 1.06048 1.07231 1.09971 1.12345 1.13589 1.16522 1.11038 0.911315 0.476511 0.0517268 0.000220722 6.70143e-09 1.21755e-13 3.19815e-22 -1.03273e-22 1.00144e-22 -1.94397e-22 -1.88843e-22 -5.96691e-22 -2.67953e-22 -1.30451e-22 -3.38949e-22 -3.71785e-22 -6.04528e-23 -5.50792e-22 6.53265e-22 -3.09821e-22 -4.13094e-23 8.7558e-23 3.33991e-22 5.68005e-22 2.52915e-22 0 0 0.474024 0.447902 0.569436 0.613791 0.651209 0.726236 0.731934 0.790176 0.821101 0.826526 0.84643 0.895085 0.909618 0.901845 0.942168 0.985068 0.998857 1.01094 1.02222 1.04834 1.07097 1.08283 1.11079 1.05851 0.868745 0.454252 0.0493105 0.000210411 6.38839e-09 1.16043e-13 1.06605e-22 0 -2.00288e-22 0 5.66529e-22 -2.75396e-22 -2.67953e-22 8.69672e-23 -8.47373e-23 -2.47856e-22 -2.01509e-22 4.72108e-22 -3.07419e-22 -1.31439e-22 -1.28518e-22 3.23291e-22 2.02152e-22 -3.44245e-22 -3.3037e-22 0 0 0.450328 0.425512 0.54097 0.583108 0.618656 0.689932 0.695346 0.750676 0.780055 0.785209 0.804117 0.850341 0.864148 0.856763 0.89507 0.935825 0.948925 0.960408 0.971121 0.995935 1.01743 1.0287 1.05527 1.00559 0.825317 0.431545 0.0468455 0.000199893 6.06904e-09 1.10245e-13 0 -2.06547e-22 -1.00144e-22 -3.88794e-22 1.88843e-22 -2.75396e-22 -2.67953e-22 -1.73934e-22 2.54212e-22 8.26188e-23 -4.83622e-22 -7.08161e-22 -3.45846e-22 -1.50216e-22 -2.57036e-22 -3.59212e-22 2.81256e-22 1.89335e-22 -1.85471e-22 0 0 0.426188 0.402702 0.511971 0.55185 0.585492 0.652948 0.658071 0.710436 0.738239 0.743117 0.761012 0.804757 0.817824 0.810835 0.847089 0.885659 0.898057 0.908924 0.919063 0.942547 0.962892 0.973557 0.998697 0.951689 0.781075 0.408411 0.0443343 0.000189177 5.7437e-09 1.04291e-13 0 0 0 0 -1.88843e-22 0 0 0 0 0 -8.06037e-23 3.93423e-22 -2.30564e-22 -2.25324e-22 -2.20317e-22 -2.15527e-22 -2.46099e-22 1.72123e-22 -3.70942e-22 0 0 0.401627 0.379495 0.482466 0.520047 0.551751 0.615319 0.620147 0.669494 0.695695 0.700292 0.717155 0.75838 0.770693 0.764107 0.798272 0.834619 0.846302 0.856543 0.866098 0.888228 0.907401 0.917451 0.941143 0.896843 0.736062 0.384875 0.0417794 0.000178275 5.4127e-09 9.83383e-14 0 2.06547e-22 4.00576e-22 3.88794e-22 -1.88843e-22 -4.58993e-22 -3.57271e-22 -1.73934e-22 -1.69475e-22 -1.65238e-22 -4.03019e-22 -1.57369e-22 -3.84274e-22 7.5108e-23 3.67195e-22 7.18425e-23 -7.03139e-23 1.72123e-22 0 0 0 0.376669 0.355913 0.452486 0.487731 0.517465 0.577083 0.581611 0.627891 0.652464 0.656775 0.672591 0.711254 0.722802 0.716625 0.748667 0.782756 0.793713 0.803317 0.812278 0.833033 0.851015 0.86044 0.88266 0.841113 0.690323 0.360958 0.0391832 0.000167197 5.07635e-09 9.214e-14 -4.2642e-22 2.06547e-22 4.00576e-22 3.88794e-22 0 -1.83597e-22 3.57271e-22 -3.47869e-22 -5.08424e-22 -4.95713e-22 -2.41811e-22 -2.36054e-22 -5.37983e-22 -3.00432e-22 4.40634e-22 2.8737e-22 -6.32825e-22 -6.19641e-22 6.7444e-23 0 0 0.35134 0.331979 0.422058 0.454934 0.482668 0.538277 0.5425 0.585669 0.608589 0.61261 0.627363 0.663426 0.674197 0.668436 0.698323 0.73012 0.74034 0.749298 0.757657 0.777016 0.793789 0.80258 0.823306 0.784553 0.643902 0.336686 0.0365483 0.000155954 4.73499e-09 8.59772e-14 2.1321e-22 0 2.00288e-22 0 0 0 3.57271e-22 3.47869e-22 3.38949e-22 3.30475e-22 0 0 3.07419e-22 0 7.3439e-23 5.02897e-22 2.10942e-22 -2.06547e-22 -1.34888e-22 0 0 0.325665 0.307718 0.391215 0.421688 0.447395 0.49894 0.502855 0.542868 0.564114 0.567841 0.581515 0.614943 0.624927 0.619587 0.64729 0.676763 0.686236 0.69454 0.702288 0.720232 0.735779 0.743928 0.763139 0.727218 0.596846 0.312081 0.0338774 0.000144557 4.38896e-09 7.96982e-14 0 -4.13094e-22 -2.00288e-22 -1.94397e-22 -3.77686e-22 -1.83597e-22 0 5.21803e-22 -1.69475e-22 1.65238e-22 4.83622e-22 -1.57369e-22 0 -1.50216e-22 -1.46878e-22 1.43685e-22 1.40628e-22 -1.37698e-22 -2.69776e-22 0 0 0.299668 0.283154 0.359985 0.388025 0.41168 0.459111 0.462713 0.499532 0.519082 0.522512 0.535094 0.565853 0.575041 0.570127 0.595618 0.622738 0.631455 0.639096 0.646226 0.662738 0.677043 0.684542 0.702219 0.669166 0.549201 0.287168 0.031173 0.000133017 4.0386e-09 7.33404e-14 0 6.19641e-22 6.00864e-22 0 -3.77686e-22 -1.83597e-22 -1.78635e-22 5.21803e-22 -3.38949e-22 -1.65238e-22 -1.61207e-22 -3.14738e-22 0 0 0 2.8737e-22 2.81256e-22 -2.75396e-22 -4.04664e-22 0 0 0.273375 0.25831 0.3284 0.35398 0.375559 0.418828 0.422114 0.455703 0.473538 0.476666 0.488145 0.516205 0.524587 0.520104 0.543358 0.568099 0.576051 0.583022 0.589526 0.604589 0.61764 0.62448 0.640606 0.610453 0.501014 0.261972 0.0284379 0.000121346 3.68425e-09 6.68536e-14 2.1321e-22 -4.13094e-22 -4.00576e-22 3.88794e-22 -5.66529e-22 -7.34389e-22 -3.57271e-22 -1.73934e-22 3.38949e-22 4.95713e-22 -3.22415e-22 3.14738e-22 -1.53709e-22 4.50648e-22 -2.93756e-22 -2.8737e-22 2.81256e-22 2.75396e-22 -5.39552e-22 0 0 0.246812 0.233211 0.29649 0.319585 0.339068 0.378132 0.381099 0.411424 0.427526 0.430351 0.440714 0.466048 0.473615 0.469567 0.490562 0.512899 0.520079 0.526372 0.532244 0.545844 0.557626 0.563802 0.578361 0.551138 0.452333 0.236517 0.0256747 0.000109556 3.32627e-09 6.0422e-14 4.2642e-22 4.13094e-22 -6.00864e-22 1.94397e-22 3.77686e-22 3.67195e-22 3.57271e-22 1.73934e-22 -3.38949e-22 3.30475e-22 0 0 3.07419e-22 3.00432e-22 2.93756e-22 -4.31055e-22 1.40628e-22 2.75396e-22 0 0 0 0.220006 0.207882 0.264289 0.284875 0.302242 0.337063 0.339708 0.36674 0.381092 0.38361 0.392848 0.41543 0.422175 0.418568 0.437282 0.457193 0.463593 0.469203 0.474437 0.486559 0.497062 0.502567 0.515546 0.491279 0.403205 0.210829 0.0228862 9.76567e-05 2.965e-09 5.38185e-14 -4.2642e-22 -2.06547e-22 -2.00288e-22 -3.88794e-22 1.88843e-22 -1.83597e-22 -3.57271e-22 -1.73934e-22 -1.69475e-22 -1.65238e-22 -3.22415e-22 -1.57369e-22 -3.07419e-22 -3.00432e-22 0 -1.43685e-22 2.81256e-22 -1.37698e-22 1.34888e-22 0 0 0.192982 0.182348 0.231826 0.249884 0.265117 0.295662 0.297982 0.321693 0.334283 0.336491 0.344594 0.364403 0.37032 0.367155 0.383571 0.401036 0.40665 0.411571 0.416162 0.426795 0.436008 0.440837 0.452221 0.430935 0.353679 0.184933 0.0200751 8.56615e-05 2.60081e-09 4.72287e-14 0 2.06547e-22 2.00288e-22 7.77589e-22 -1.88843e-22 -3.67195e-22 1.78635e-22 0 -1.69475e-22 1.65238e-22 0 1.57369e-22 1.53709e-22 -1.50216e-22 -1.46878e-22 -1.43685e-22 0 -1.37698e-22 -1.34888e-22 0 0 0.165769 0.156634 0.199135 0.214646 0.227731 0.253968 0.255961 0.276329 0.287143 0.28904 0.296001 0.313016 0.318098 0.31538 0.329481 0.344483 0.349305 0.353532 0.357476 0.36661 0.374523 0.378671 0.38845 0.370166 0.303804 0.158854 0.0172441 7.35818e-05 2.23