<?xml version="1.0"?>
<VTKFile type="PolyData">
	<PolyData>
		<Piece NumberOfPoints="2601" NumberOfPolys="2500">
			<Points>
				<DataArray type="Float32" NumberOfComponents="3" format="ascii">
 1e-06 0 0 0.303272 0 0 0.343648 0 0 0.383742 0 0 0.414702 0 0 0.441048 0 0 0.463036 0 0 0.482404 0 0 0.500323 0 0 0.516889 0 0 0.531859 0 0 0.545273 0 0 0.558039 0 0 0.570057 0 0 0.581047 0 0 0.591238 0 0 0.600689 0 0 0.609356 0 0 0.617706 0 0 0.625391 0 0 0.632823 0 0 0.639657 0 0 0.646102 0 0 0.652035 0 0 0.657768 0 0 0.663316 0 0 0.668568 0 0 0.673633 0 0 0.678343 0 0 0.682772 0 0 0.687058 0 0 0.691097 0 0 0.695028 0 0 0.698957 0 0 0.703768 0 0 0.710956 0 0 0.722701 0 0 0.74015 0 0 0.760001 0 0 0.780001 0 0 0.800001 0 0 0.820001 0 0 0.840001 0 0 0.860001 0 0 0.880001 0 0 0.900001 0 0 0.920001 0 0 0.940001 0 0 0.960001 0 0 0.980001 0 0 1 0 0 9.99507e-07 3.14108e-08 0 0.303122 0.009526 0 0.343478 0.0107942 0 0.383553 0.0120536 0 0.414497 0.0130261 0 0.44083 0.0138537 0 0.462807 0.0145443 0 0.482166 0.0151527 0 0.500076 0.0157155 0 0.516634 0.0162359 0 0.531596 0.0167061 0 0.545004 0.0171275 0 0.557763 0.0175284 0 0.569776 0.0179059 0 0.58076 0.0182511 0 0.590947 0.0185712 0 0.600393 0.0188681 0 0.609056 0.0191403 0 0.617401 0.0194026 0 0.625082 0.019644 0 0.63251 0.0198774 0 0.639342 0.0200921 0 0.645783 0.0202946 0 0.651714 0.0204809 0 0.657444 0.020661 0 0.662989 0.0208353 0 0.668239 0.0210002 0 0.673301 0.0211593 0 0.678008 0.0213073 0 0.682435 0.0214464 0 0.686719 0.021581 0 0.690756 0.0217079 0 0.694685 0.0218314 0 0.698612 0.0219548 0 0.703421 0.0221059 0 0.710605 0.0223317 0 0.722344 0.0227006 0 0.739784 0.0232487 0 0.759626 0.0238722 0 0.779616 0.0245004 0 0.799606 0.0251286 0 0.819596 0.0257569 0 0.839587 0.0263851 0 0.859577 0.0270133 0 0.879567 0.0276415 0 0.899557 0.0282697 0 0.919547 0.0288979 0 0.939537 0.0295261 0 0.959527 0.0301544 0 0.979517 0.0307826 0 0.999508 0.0314108 0 9.98027e-07 6.27905e-08 0 0.302673 0.0190426 0 0.34297 0.0215778 0 0.382985 0.0240954 0 0.413884 0.0260394 0 0.440178 0.0276936 0 0.462122 0.0290743 0 0.481452 0.0302904 0 0.499335 0.0314155 0 0.515869 0.0324557 0 0.530809 0.0333957 0 0.544198 0.034238 0 0.556937 0.0350395 0 0.568932 0.0357942 0 0.5799 0.0364842 0 0.590072 0.0371242 0 0.599504 0.0377176 0 0.608154 0.0382618 0 0.616487 0.0387861 0 0.624157 0.0392686 0 0.631574 0.0397353 0 0.638395 0.0401644 0 0.644827 0.0405691 0 0.650749 0.0409416 0 0.656471 0.0413016 0 0.662007 0.04165 0 0.667249 0.0419798 0 0.672304 0.0422978 0 0.677004 0.0425935 0 0.681425 0.0428716 0 0.685702 0.0431407 0 0.689733 0.0433943 0 0.693657 0.0436412 0 0.697578 0.0438879 0 0.702379 0.04419 0 0.709553 0.0446413 0 0.721275 0.0453788 0 0.738689 0.0464744 0 0.758502 0.0477209 0 0.778462 0.0489767 0 0.798422 0.0502325 0 0.818383 0.0514883 0 0.838343 0.0527441 0 0.858304 0.0539999 0 0.878265 0.0552557 0 0.898225 0.0565115 0 0.918186 0.0577673 0 0.938146 0.0590232 0 0.958107 0.060279 0 0.978067 0.0615348 0 0.998028 0.0627906 0 9.95562e-07 9.41083e-08 0 0.301926 0.0285404 0 0.342123 0.0323401 0 0.382039 0.0361133 0 0.412862 0.0390269 0 0.439091 0.0415063 0 0.460981 0.0435755 0 0.480263 0.0453983 0 0.498102 0.0470845 0 0.514595 0.0486436 0 0.529498 0.0500523 0 0.542854 0.0513148 0 0.555562 0.0525161 0 0.567527 0.0536471 0 0.578468 0.0546813 0 0.588615 0.0556405 0 0.598023 0.0565298 0 0.606652 0.0573455 0 0.614965 0.0581313 0 0.622615 0.0588545 0 0.630014 0.0595539 0 0.636818 0.0601971 0 0.643235 0.0608036 0 0.649142 0.0613619 0 0.654849 0.0619015 0 0.660372 0.0624235 0 0.665601 0.0629178 0 0.670644 0.0633945 0 0.675332 0.0638377 0 0.679742 0.0642546 0 0.684009 0.0646579 0 0.68803 0.065038 0 0.691943 0.0654079 0 0.695855 0.0657776 0 0.700645 0.0662304 0 0.707801 0.0669069 0 0.719493 0.0680122 0 0.736865 0.0696542 0 0.756628 0.0715224 0 0.776539 0.0734046 0 0.796451 0.0752867 0 0.816362 0.0771689 0 0.836273 0.0790511 0 0.856184 0.0809332 0 0.876096 0.0828154 0 0.896007 0.0846976 0 0.915918 0.0865797 0 0.935829 0.0884619 0 0.95574 0.0903441 0 0.975652 0.0922262 0 0.995563 0.0941084 0 9.92115e-07 1.25333e-07 0 0.30088 0.03801 0 0.340938 0.0430705 0 0.380716 0.0480956 0 0.411432 0.0519759 0 0.43757 0.055278 0 0.459385 0.0580338 0 0.4786 0.0604613 0 0.496377 0.0627071 0 0.512813 0.0647834 0 0.527665 0.0666595 0 0.540974 0.0683409 0 0.553638 0.0699408 0 0.565562 0.0714471 0 0.576465 0.0728245 0 0.586576 0.0741018 0 0.595953 0.0752863 0 0.604551 0.0763726 0 0.612835 0.0774191 0 0.620459 0.0783822 0 0.627833 0.0793137 0 0.634613 0.0801703 0 0.641007 0.0809781 0 0.646894 0.0817217 0 0.652582 0.0824402 0 0.658086 0.0831355 0 0.663297 0.0837938 0 0.668322 0.0844287 0 0.672994 0.0850189 0 0.677389 0.0855741 0 0.68164 0.0861112 0 0.685648 0.0866174 0 0.689548 0.0871101 0 0.693445 0.0876025 0 0.698219 0.0882055 0 0.70535 0.0891064 0 0.717002 0.0905784 0 0.734313 0.0927653 0 0.754009 0.0952534 0 0.77385 0.09776 0 0.793693 0.100267 0 0.813535 0.102773 0 0.833377 0.10528 0 0.85322 0.107787 0 0.873062 0.110293 0 0.892904 0.1128 0 0.912747 0.115307 0 0.932589 0.117813 0 0.952431 0.12032 0 0.972273 0.122827 0 0.992116 0.125333 0 9.87688e-07 1.56434e-07 0 0.299538 0.0474422 0 0.339417 0.0537583 0 0.379018 0.0600305 0 0.409596 0.0648737 0 0.435618 0.0689951 0 0.457335 0.0724348 0 0.476465 0.0754647 0 0.494163 0.0782677 0 0.510525 0.0808593 0 0.52531 0.083201 0 0.53856 0.0852996 0 0.551168 0.0872965 0 0.563039 0.0891766 0 0.573893 0.0908957 0 0.583959 0.0924901 0 0.593294 0.0939685 0 0.601854 0.0953243 0 0.610101 0.0966305 0 0.617691 0.0978327 0 0.625032 0.0989953 0 0.631782 0.100064 0 0.638147 0.101073 0 0.644008 0.102001 0 0.64967 0.102898 0 0.655149 0.103765 0 0.660337 0.104587 0 0.66534 0.105379 0 0.669991 0.106116 0 0.674366 0.106809 0 0.678599 0.10748 0 0.682588 0.108111 0 0.686471 0.108726 0 0.690351 0.109341 0 0.695103 0.110094 0 0.702203 0.111218 0 0.713803 0.113055 0 0.731037 0.115785 0 0.750645 0.11889 0 0.770398 0.122019 0 0.790152 0.125148 0 0.809905 0.128276 0 0.829659 0.131405 0 0.849413 0.134534 0 0.869167 0.137662 0 0.88892 0.140791 0 0.908674 0.14392 0 0.928428 0.147049 0 0.948182 0.150177 0 0.967936 0.153306 0 0.987689 0.156435 0 9.82287e-07 1.87381e-07 0 0.2979 0.0568275 0 0.337561 0.0643931 0 0.376945 0.0719061 0 0.407356 0.0777074 0 0.433236 0.0826442 0 0.454834 0.0867643 0 0.47386 0.0903936 0 0.491461 0.0937511 0 0.507733 0.0968553 0 0.522438 0.0996603 0 0.535615 0.102174 0 0.548154 0.104566 0 0.55996 0.106818 0 0.570755 0.108877 0 0.580766 0.110787 0 0.590049 0.112558 0 0.598563 0.114182 0 0.606765 0.115747 0 0.614313 0.117187 0 0.621614 0.118579 0 0.628327 0.11986 0 0.634658 0.121067 0 0.640486 0.122179 0 0.646118 0.123254 0 0.651567 0.124293 0 0.656726 0.125277 0 0.661701 0.126226 0 0.666327 0.127109 0 0.670679 0.127939 0 0.674888 0.128742 0 0.678856 0.129499 0 0.682717 0.130235 0 0.686576 0.130971 0 0.691302 0.131873 0 0.698363 0.13322 0 0.7099 0.135421 0 0.72704 0.13869 0 0.74654 0.14241 0 0.766185 0.146158 0 0.785831 0.149905 0 0.805477 0.153653 0 0.825122 0.1574 0 0.844768 0.161148 0 0.864414 0.164896 0 0.88406 0.168643 0 0.903705 0.172391 0 0.923351 0.176139 0 0.942997 0.179886 0 0.962642 0.183634 0 0.982288 0.187382 0 9.75917e-07 2.18143e-07 0 0.295968 0.0661567 0 0.335371 0.0749644 0 0.3745 0.0837107 0 0.404715 0.0904644 0 0.430426 0.0962117 0 0.451884 0.101008 0 0.470786 0.105233 0 0.488273 0.109142 0 0.504441 0.112756 0 0.51905 0.116021 0 0.532142 0.118948 0 0.544599 0.121732 0 0.556328 0.124354 0 0.567053 0.126751 0 0.577 0.128975 0 0.586223 0.131036 0 0.594681 0.132927 0 0.60283 0.134748 0 0.610329 0.136425 0 0.617582 0.138046 0 0.624252 0.139537 0 0.630542 0.140943 0 0.636332 0.142237 0 0.641927 0.143488 0 0.647341 0.144698 0 0.652467 0.145844 0 0.65741 0.146949 0 0.662006 0.147976 0 0.666329 0.148942 0 0.670511 0.149877 0 0.674453 0.150758 0 0.67829 0.151616 0 0.682124 0.152473 0 0.686819 0.153522 0 0.693834 0.15509 0 0.705296 0.157652 0 0.722324 0.161459 0 0.741698 0.165789 0 0.761216 0.170152 0 0.780734 0.174515 0 0.800253 0.178878 0 0.819771 0.183241 0 0.839289 0.187603 0 0.858808 0.191966 0 0.878326 0.196329 0 0.897844 0.200692 0 0.917363 0.205055 0 0.936881 0.209418 0 0.956399 0.213781 0 0.975918 0.218143 0 9.68583e-07 2.4869e-07 0 0.293744 0.0754206 0 0.332851 0.0854617 0 0.371686 0.0954328 0 0.401673 0.103132 0 0.427192 0.109684 0 0.448489 0.115152 0 0.467249 0.119969 0 0.484604 0.124425 0 0.50065 0.128545 0 0.515149 0.132268 0 0.528143 0.135604 0 0.540507 0.138779 0 0.552148 0.141767 0 0.562792 0.1445 0 0.572664 0.147035 0 0.581817 0.149385 0 0.590212 0.151541 0 0.5983 0.153617 0 0.605743 0.155528 0 0.612941 0.157377 0 0.619561 0.159076 0 0.625804 0.160679 0 0.63155 0.162155 0 0.637103 0.16358 0 0.642477 0.16496 0 0.647564 0.166266 0 0.65247 0.167526 0 0.657031 0.168697 0 0.661322 0.169799 0 0.665473 0.170864 0 0.669385 0.171869 0 0.673192 0.172846 0 0.676998 0.173823 0 0.681658 0.17502 0 0.68862 0.176808 0 0.699996 0.179728 0 0.716896 0.184068 0 0.736125 0.189005 0 0.755496 0.193978 0 0.774867 0.198952 0 0.794239 0.203926 0 0.813611 0.2089 0 0.832982 0.213874 0 0.852354 0.218847 0 0.871726 0.223821 0 0.891097 0.228795 0 0.910469 0.233769 0 0.929841 0.238743 0 0.949212 0.243716 0 0.968584 0.24869 0 9.60294e-07 2.78991e-07 0 0.29123 0.0846101 0 0.330003 0.0958746 0 0.368505 0.107061 0 0.398236 0.115698 0 0.423536 0.123049 0 0.44465 0.129183 0 0.46325 0.134587 0 0.480457 0.139586 0 0.496365 0.144207 0 0.51074 0.148384 0 0.523623 0.152126 0 0.535881 0.155688 0 0.547422 0.159041 0 0.557976 0.162107 0 0.567763 0.16495 0 0.576838 0.167587 0 0.585161 0.170005 0 0.593179 0.172335 0 0.600559 0.174478 0 0.607696 0.176552 0 0.614259 0.178459 0 0.620448 0.180257 0 0.626145 0.181912 0 0.631651 0.183512 0 0.636978 0.185059 0 0.642022 0.186525 0 0.646886 0.187938 0 0.651408 0.189252 0 0.655662 0.190487 0 0.659777 0.191683 0 0.663656 0.19281 0 0.667431 0.193907 0 0.671204 0.195003 0 0.675824 0.196345 0 0.682727 0.19835 0 0.694005 0.201627 0 0.710761 0.206495 0 0.729825 0.212034 0 0.74903 0.217613 0 0.7
[...]
			<PointData Scalars="VitesseX">
				<DataArray Name="VitesseX" type="Float32" format="ascii">
 0 0.599588 0.568434 0.720706 0.745239 0.813339 0.864117 0.895789 0.966588 0.972982 1.02018 1.0483 1.05168 1.09891 1.12826 1.13193 1.17657 1.19802 1.22845 1.25281 1.26151 1.28834 1.33616 1.34144 1.36224 1.36387 1.3802 1.41314 1.42344 1.45862 1.46477 1.46325 1.4808 1.44713 1.31242 1.00326 0.484611 0.0550093 0.000280099 1.38253e-08 4.33015e-13 9.02576e-23 0 0 0 0 0 0 0 0 0 0 0.599292 0.568153 0.72035 0.744872 0.812937 0.863691 0.895347 0.966111 0.972502 1.01967 1.04778 1.05116 1.09837 1.1277 1.13137 1.17599 1.19743 1.22785 1.25219 1.26089 1.28771 1.3355 1.34078 1.36157 1.36319 1.37952 1.41244 1.42273 1.4579 1.46404 1.46253 1.48007 1.44641 1.31177 1.00277 0.484372 0.0549821 0.000279961 1.38184e-08 4.32791e-13 6.97791e-18 -6.00152e-22 -5.86195e-22 0 0 5.47965e-22 -5.36307e-22 0 1.02883e-21 0 0 0.598405 0.567312 0.719283 0.743769 0.811734 0.862412 0.894021 0.964681 0.971062 1.01816 1.04623 1.0496 1.09674 1.12603 1.1297 1.17425 1.19566 1.22603 1.25034 1.25902 1.2858 1.33352 1.33879 1.35955 1.36118 1.37748 1.41035 1.42063 1.45575 1.46188 1.46036 1.47787 1.44427 1.30983 1.00128 0.483655 0.0549007 0.000279546 1.3798e-08 4.32148e-13 6.4786e-18 -6.00152e-22 0 0 0 5.47965e-22 -1.07261e-21 0 0 0 0 0.596927 0.565911 0.717507 0.741932 0.809729 0.860282 0.891813 0.962298 0.968664 1.01565 1.04365 1.04701 1.09403 1.12325 1.12691 1.17135 1.1927 1.223 1.24725 1.25591 1.28263 1.33023 1.33548 1.35619 1.35781 1.37407 1.40687 1.41712 1.45215 1.45827 1.45676 1.47422 1.4407 1.30659 0.998811 0.48246 0.0547652 0.000278856 1.37639e-08 4.31057e-13 -4.2348e-23 0 0 0 1.12028e-21 5.47965e-22 -5.36307e-22 0 0 0 0 0.59486 0.563951 0.715023 0.739363 0.806925 0.857303 0.888725 0.958966 0.96531 1.01213 1.04003 1.04339 1.09024 1.11936 1.123 1.16729 1.18857 1.21877 1.24293 1.25156 1.27819 1.32562 1.33086 1.3515 1.35311 1.36932 1.402 1.41221 1.44712 1.45322 1.45171 1.46912 1.43571 1.30207 0.995353 0.48079 0.0545755 0.000277891 1.37162e-08 4.29524e-13 2.52255e-22 0 0 -5.72873e-22 5.60142e-22 -1.09593e-21 0 -5.25133e-22 -5.14416e-22 0 0 0.592206 0.561435 0.711833 0.736064 0.803325 0.853478 0.88476 0.954688 0.961003 1.00762 1.03539 1.03873 1.08538 1.11437 1.11799 1.16208 1.18327 1.21333 1.23738 1.24598 1.27248 1.31971 1.32492 1.34547 1.34708 1.36321 1.39574 1.40591 1.44067 1.44673 1.44524 1.46257 1.42931 1.29626 0.990912 0.478645 0.054332 0.000276651 1.36551e-08 4.27592e-13 4.13605e-22 -6.00152e-22 0 0 5.60142e-22 0 1.07261e-21 -5.25133e-22 0 0 0 0.588968 0.558365 0.70794 0.732039 0.798932 0.848811 0.879922 0.949467 0.955748 1.00211 1.02973 1.03305 1.07944 1.10827 1.11188 1.15573 1.1768 1.20669 1.23062 1.23916 1.26552 1.31249 1.31768 1.33811 1.33971 1.35575 1.38811 1.39822 1.43279 1.43882 1.43733 1.45457 1.42149 1.28917 0.985493 0.476027 0.0540349 0.000275138 1.35804e-08 4.25234e-13 2.04447e-22 6.00152e-22 0 -5.72873e-22 -5.60142e-22 0 1.07261e-21 -5.25133e-22 5.14416e-22 0 0 0.585148 0.554744 0.703349 0.727292 0.793751 0.843306 0.874215 0.943309 0.949549 0.995606 1.02305 1.02635 1.07244 1.10109 1.10467 1.14823 1.16917 1.19887 1.22264 1.23113 1.25732 1.30398 1.30913 1.32943 1.33102 1.34696 1.37911 1.38916 1.4235 1.42949 1.42801 1.44513 1.41227 1.28081 0.979102 0.47294 0.0536845 0.000273354 1.34923e-08 4.22488e-13 -1.04074e-17 -6.00152e-22 5.86195e-22 0 -5.60142e-22 -5.47965e-22 -5.36307e-22 0 0 0 0 0.580751 0.550575 0.698063 0.721826 0.787786 0.836969 0.867646 0.936221 0.942414 0.988125 1.01537 1.01864 1.06438 1.09281 1.09637 1.1396 1.16038 1.18986 1.21345 1.22188 1.24787 1.29418 1.29929 1.31944 1.32102 1.33684 1.36874 1.37872 1.4128 1.41875 1.41728 1.43427 1.40166 1.27118 0.971744 0.469386 0.0532811 0.000271299 1.33909e-08 4.19317e-13 -7.10373e-18 0 5.86195e-22 1.14575e-21 -5.60142e-22 0 0 0 5.14416e-22 0 0 0.575781 0.545863 0.692089 0.715649 0.781044 0.829806 0.86022 0.928208 0.934348 0.979668 1.00668 1.00992 1.05527 1.08346 1.08698 1.12985 1.15045 1.17968 1.20306 1.21142 1.23719 1.2831 1.28817 1.30815 1.30971 1.3254 1.35703 1.36692 1.40071 1.40661 1.40515 1.422 1.38967 1.2603 0.963428 0.465369 0.0528251 0.000268977 1.32763e-08 4.15724e-13 -2.13751e-17 -1.2003e-21 -1.17239e-21 1.14575e-21 5.60142e-22 5.47965e-22 0 0 5.14416e-22 0 0 0.570242 0.540613 0.685432 0.708765 0.773531 0.821824 0.851946 0.91928 0.925361 0.970245 0.996992 1.00021 1.04512 1.07304 1.07653 1.11898 1.13939 1.16833 1.19149 1.19977 1.22529 1.27076 1.27578 1.29557 1.29711 1.31265 1.34398 1.35377 1.38723 1.39308 1.39163 1.40832 1.3763 1.24818 0.95416 0.460893 0.0523169 0.00026639 1.31486e-08 4.11717e-13 -2.23803e-18 6.00152e-22 0 0 0 -5.47965e-22 -5.36307e-22 -5.25133e-22 5.14416e-22 0 0 0.564141 0.534828 0.678098 0.701181 0.765255 0.813031 0.842831 0.909444 0.91546 0.959864 0.986325 0.989505 1.03394 1.06156 1.06501 1.10701 1.12719 1.15583 1.17874 1.18693 1.21218 1.25717 1.26213 1.2817 1.28324 1.2986 1.3296 1.33928 1.37239 1.37817 1.37674 1.39325 1.36157 1.23483 0.943951 0.455961 0.0517572 0.00026354 1.30079e-08 4.07212e-13 6.22635e-18 -6.00152e-22 0 -5.72873e-22 5.60142e-22 5.47965e-22 -5.36307e-22 -5.25133e-22 1.02883e-21 0 0 0.557483 0.528516 0.670095 0.692906 0.756223 0.803436 0.832883 0.898711 0.904656 0.948535 0.974684 0.977827 1.02174 1.04903 1.05244 1.09394 1.11389 1.14219 1.16483 1.17292 1.19787 1.24233 1.24724 1.26658 1.26809 1.28328 1.3139 1.32348 1.35619 1.36191 1.3605 1.37681 1.3455 1.22025 0.932811 0.45058 0.0511463 0.00026043 1.28544e-08 4.0247e-13 -5.43622e-22 0 5.86195e-22 -5.72873e-22 -5.60142e-22 -5.47965e-22 -5.36307e-22 -5.25133e-22 0 0 0 0.550275 0.521683 0.661431 0.683947 0.746445 0.793047 0.822114 0.887091 0.892959 0.936271 0.962082 0.965184 1.00853 1.03546 1.03883 1.0798 1.09949 1.12742 1.14977 1.15776 1.18238 1.22627 1.23111 1.2502 1.2517 1.26668 1.29692 1.30637 1.33866 1.3443 1.3429 1.35901 1.32811 1.20447 0.92075 0.444754 0.050485 0.000257062 1.26882e-08 3.97222e-13 1.47359e-24 0 0 0 1.12028e-21 0 5.36307e-22 0 -5.14416e-22 0 0 0.542523 0.514334 0.652114 0.674313 0.735931 0.781876 0.810534 0.874595 0.88038 0.923082 0.94853 0.951589 0.994321 1.02088 1.0242 1.06459 1.084 1.11154 1.13358 1.14145 1.16573 1.20899 1.21377 1.23259 1.23406 1.24884 1.27865 1.28796 1.3198 1.32536 1.32399 1.33986 1.3094 1.18751 0.90778 0.438489 0.0497739 0.000253441 1.25095e-08 3.91628e-13 -6.19338e-22 6.00152e-22 0 0 0 -5.47965e-22 0 5.25133e-22 -5.14416e-22 0 0 0.534237 0.506478 0.642153 0.664013 0.72469 0.769934 0.798154 0.861236 0.866933 0.908983 0.934042 0.937054 0.979134 1.00529 1.00856 1.04833 1.06744 1.09456 1.11626 1.12401 1.14792 1.19053 1.19523 1.21376 1.21521 1.22977 1.25912 1.26829 1.29964 1.30512 1.30377 1.3194 1.2894 1.16937 0.893914 0.431792 0.0490136 0.00024957 1.23184e-08 3.85554e-13 2.24478e-17 0 5.86195e-22 0 0 5.47965e-22 0 5.25133e-22 5.14416e-22 0 0 0.525423 0.498122 0.631559 0.653058 0.712734 0.757232 0.784986 0.847028 0.85263 0.893987 0.918632 0.921594 0.96298 0.988701 0.991917 1.03103 1.04983 1.0765 1.09784 1.10547 1.12898 1.17088 1.17551 1.19374 1.19517 1.20948 1.23834 1.24737 1.2782 1.28358 1.28226 1.29763 1.26813 1.15008 0.879167 0.424668 0.048205 0.000245453 1.21152e-08 3.78865e-13 -3.59625e-17 -6.00152e-22 -5.86195e-22 2.86436e-22 -5.60142e-22 -5.47965e-22 0 0 -5.14416e-22 0 0 0.516091 0.489275 0.620342 0.641459 0.700075 0.743782 0.771043 0.831983 0.837486 0.878108 0.902315 0.905225 0.945876 0.97114 0.974299 1.01272 1.03119 1.05738 1.07835 1.08583 1.10893 1.15009 1.15463 1.17254 1.17394 1.188 1.21635 1.22521 1.2555 1.26079 1.25948 1.27458 1.2456 1.12965 0.863551 0.417125 0.0473488 0.000241093 1.19e-08 3.72307e-13 -8.53852e-17 3.00076e-22 0 0 0 5.47965e-22 5.36307e-22 5.25133e-22 -5.14416e-22 0 0 0.506249 0.479944 0.608512 0.629226 0.686724 0.729598 0.75634 0.816117 0.821516 0.861363 0.885109 0.887963 0.927838 0.952621 0.95572 0.993409 1.01152 1.03722 1.05778 1.06513 1.08779 1.12816 1.13261 1.15018 1.15155 1.16534 1.19315 1.20185 1.23156 1.23674 1.23546 1.25028 1.22185 1.10811 0.847083 0.409171 0.0464459 0.000236496 1.16731e-08 3.65393e-13 -1.11628e-18 -9.00229e-22 5.86195e-22 0 -5.60142e-22 -2.73983e-22 -2.68153e-22 0 -5.14416e-22 0 0 0.495908 0.47014 0.596082 0.616373 0.672697 0.714694 0.74089 0.799446 0.804734 0.843767 0.867028 0.869824 0.908885 0.933161 0.936197 0.973116 0.990859 1.01603 1.03617 1.04337 1.06556 1.10511 1.10948 1.12668 1.12803 1.14154 1.16878 1.1773 1.2064 1.21148 1.21023 1.22474 1.19689 1.08547 0.82978 0.400812 0.0454971 0.000231665 1.14346e-08 3.57999e-13 7.25352e-18 -1.50038e-21 5.86195e-22 5.72873e-22 -5.60142e-22 2.73983e-22 -5.36307e-22 5.25133e-22 -5.14416e-22 0 0 0.485077 0.459873 0.583063 0.602911 0.658005 0.699085 0.724708 0.781986 0.787159 0.825339 0.848092 0.850827 0.889035 0.912781 0.91575 0.951863 0.969219 0.993839 1.01354 1.02058 1.04229 1.08097 1.08525 1.10207 1.10339 1.11661 1.14325 1.15158 1.18005 1.18502 1.18379 1.19799 1.17075 1.06177 0.811657 0.392059 0.0445035 0.000226605 1.11849e-08 3.50121e-13 5.00311e-22 0 -2.93098e-22 5.72873e-22 2.80071e-22 -5.47965e-22 -5.36307e-22 0 0 0 0 0.473767 0.449151 0.569469 0.588855 0.642664 0.682786 0.707812 0.763754 0.768806 0.806097 0.828319 0.83099 0.868307 0.891499 0.8944 0.929671 0.946622 0.970668 0.989913 0.996787 1.01799 1.05577 1.05994 1.07638 1.07767 1.09057 1.1166 1.12474 1.15254 1.15739 1.15619 1.17006 1.14345 1.03701 0.792734 0.382918 0.0434659 0.000221322 1.09241e-08 3.41885e-13 -2.29052e-17 1.2003e-21 0 -8.59309e-22 0 0 -2.68153e-22 -5.25133e-22 -5.14416e-22 0 0 0.461991 0.437986 0.555313 0.574217 0.626688 0.665814 0.690217 0.744769 0.749695 0.786059 0.807729 0.810333 0.846723 0.869338 0.872167 0.906561 0.92309 0.946539 0.965306 0.972009 0.992686 1.02953 1.0336 1.04962 1.05088 1.06346 1.08884 1.09678 1.12389 1.12862 1.12745 1.14097 1.11503 1.01123 0.773028 0.373399 0.0423854 0.00021582 1.06525e-08 3.33347e-13 -5.20577e-18 -6.00152e-22 2.93098e-22 5.72873e-22 8.40213e-22 -2.73983e-22 8.0446e-22 7.877e-22 -2.57208e-22 0 0 0.449758 0.426388 0.540609 0.559012 0.610094 0.648184 0.671941 0.725048 0.729844 0.765245 0.786341 0.788877 0.824303 0.84632 0.849073 0.882556 0.898648 0.921476 0.939746 0.946272 0.966401 1.00227 1.00623 1.02183 1.02305 1.0353 1.06001 1.06774 1.09413 1.09874 1.0976 1.11076 1.08551 0.984457 0.752559 0.363512 0.0412631 0.000210106 1.03705e-08 3.24418e-13 1.07588e-21 1.50038e-22 -5.86195e-22 -2.86436e-22 0 -8.21948e-22 -2.68153e-22 0 -2.57208e-22 0 0 0.437081 0.41437 0.525372 0.543256 0.592898 0.629914 0.653002 0.704612 0.709273 0.743676 0.764177 0.766642 0.801069 0.822465 0.825141 0.857681 0.873319 0.895503 0.913259 0.9196 0.939163 0.974017 0.977866 0.99303 0.994216 1.00612 1.03013 1.03764 1.06329 1.06777 1.06666 1.07945 1.05491 0.956709 0.731348 0.353266 0.0401 0.000204184 1.00782e-08 3.15424e-13 0 3.00076e-22 2.93098e-22 -2.86436e-22 0 0 -2.68153e-22 2.62567e-22 2.57208e-22 0 0 0.423973 0.401943 0.509616 0.526964 0.575117 0.611023 0.633418 0.683481 0.688002 0.721373 0.74126 0.74365 0.777045 0.7978 0.800395 0.831959 0.847128 0.868647 0.88587 0.892021 0.910997 0.944807 0.94854 0.963248 0.9644 0.975949 0.999241 1.00652 1.0314 1.03575 1.03467 1.04708 1.02327 0.928018 0.709414 0.342672 0.0388974 0.00019806 9.77594e-09 3.05943e-13 -4.61093e-22 4.50114e-22 2.93098e-22 -2.86436e-22 0 2.73983e-22 -1.34077e-22 -2.62567e-22 5.14416e-22 0 0 0.410446 0.38912 0.493357 0.510151 0.556769 0.591529 0.61321 0.661675 0.666052 0.698358 0.71761 0.719925 0.752254 0.772346 0.774859 0.805416 0.820101 0.840934 0.857607 0.863562 0.881932 0.914663 0.918277 0.932517 0.933631 0.944812 0.967361 0.974409 0.998497 1.0027 1.00166 1.01367 0.990626 0.89841 0.686781 0.331739 0.0376565 0.000191741 9.46404e-09 2.96153e-13 3.07395e-22 1.50038e-22 -2.93098e-22 1.43218e-22 7.00178e-22 0 6.70383e-22 -7.877e-22 6.43021e-22 0 0 0.396515 0.375912 0.476611 0.492836 0.53787 0.571451 0.592396 0.639216 0.643444 0.674654 0.693253 0.695488 0.72672 0.746131 0.748558 0.778078 0.792265 0.81239 0.828498 0.834251 0.851997 0.883617 0.887109 0.900865 0.901942 0.912743 0.934526 0.941335 0.964605 0.968667 0.967665 0.979268 0.957001 0.867916 0.66347 0.320479 0.0363783 0.000185233 9.14281e-09 2.86122e-13 -3.8356e-22 -3.75095e-22 8.06019e-22 -7.16091e-23 0 2.73983e-22 5.36307e-22 -1.05027e-21 1.02883e-21 0 0 0.382192 0.362333 0.459395 0.475033 0.518442 0.550809 0.570997 0.616126 0.620202 0.650284 0.668211 0.670366 0.70047 0.719179 0.721519 0.749972 0.763647 0.783045 0.798571 0.804116 0.821222 0.851699 0.855064 0.868324 0.869362 0.879772 0.90077 0.907333 0.929762 0.933677 0.932711 0.943895 0.922433 0.836565 0.639504 0.308903 0.0350642 0.000178542 8.81255e-09 2.75834e-13 1.18214e-21 -6.00152e-22 -1.83186e-21 2.86436e-22 -3.50089e-22 -6.16461e-22 2.68153e-22 -5.25133e-22 0 0 0 0.367492 0.348397 0.441726 0.456762 0.498501 0.529623 0.549035 0.592429 0.596347 0.625273 0.64251 0.644582 0.673528 0.691518 0.693768 0.721126 0.734275 0.752927 0.767856 0.773188 0.789635 0.818941 0.822176 0.834926 0.835924 0.845934 0.866124 0.872434 0.894001 0.897765 0.896836 0.90759 0.886954 0.804388 0.614907 0.297022 0.0337156 0.000171675 8.4736e-09 2.65179e-13 -4.41711e-17 7.68945e-22 4.03009e-22 7.16091e-22 -9.80249e-22 -4.7947e-22 6.70383e-23 1.31283e-22 6.43021e-22 0 0 0.352429 0.334117 0.42362 0.438041 0.478068 0.507915 0.526532 0.568146 0.571904 0.599644 0.616175 0.618162 0.645922 0.663174 0.665331 0.691569 0.704179 0.722066 0.736383 0.741496 0.75727 0.785374 0.788477 0.800704 0.801661 0.811261 0.830623 0.836675 0.857357 0.860968 0.860077 0.87039 0.850599 0.771418 0.589704 0.284847 0.0323336 0.000164638 8.12629e-09 2.54267e-13 1.00812e-18 1.03151e-22 4.25908e-22 -3.58046e-23 8.92727e-22 -4.10974e-22 7.37421e-22 3.28208e-22 -6.43021e-22 0 0 0.337018 0.319507 0.405097 0.418887 0.457164 0.485706 0.503508 0.543303 0.546897 0.573424 0.589232 0.591132 0.617678 0.634176 0.636239 0.661329 0.673387 0.690493 0.704183 0.709073 0.724157 0.751032 0.754 0.765692 0.766607 0.775787 0.794303 0.80009 0.819868 0.823321 0.822469 0.832331 0.813405 0.737687 0.563918 0.272392 0.0309198 0.000157439 7.77095e-09 2.43197e-13 -4.3899e-22 -1.05027e-21 1.24567e-21 -5.90775e-22 -7.877e-23 1.66958e-22 6.36864e-22 1.08309e-21 4.82265e-22 0 0 0.321275 0.304582 0.386173 0.399319 0.435809 0.463017 0.479988 0.517924 0.52135 0.546637 0.561707 0.563518 0.588824 0.604551 0.606518 0.630436 0.641931 0.658238 0.671289 0.67595 0.690329 0.715949 0.718778 0.729924 0.730797 0.739548 0.757198 0.762715 0.78157 0.784861 0.784049 0.79345 0.775409 0.703227 0.537575 0.259668 0.0294755 0.000150085 7.40795e-09 2.31936e-13 -4.28676e-17 9.00229e-22 -5.86195e-22 -2.50632e-22 -2.45062e-22 6.16461e-22 3.8547e-22 -6.56417e-22 -6.29959e-22 0 0 0.305215 0.289356 0.366869 0.379358 0.414023 0.439871 0.455994 0.492033 0.495288 0.519312 0.533628 0.535349 0.559389 0.574331 0.576199 0.598922 0.609842 0.625333 0.637732 0.64216 0.655821 0.68016 0.682847 0.693436 0.694265 0.702579 0.719347 0.724588 0.7425 0.745627 0.744855 0.753787 0.736647 0.668074 0.510703 0.246687 0.028002 0.000142582 7.03763e-09 2.20162e-13 5.30278e-18 -1.35034e-21 -6.5947e-22 -2.86436e-22 -4.90125e-22 -6.84957e-22 5.36307e-22 3.61029e-22 -3.53661e-22 0 0 0.288854 0.273845 0.347203 0.359022 0.391829 0.416292 0.43155 0.465657 0.468738 0.491473 0.505022 0.506651 0.529403 0.543543 0.545311 0.566816 0.577151 0.591812 0.603545 0.607736 0.620665 0.643699 0.646242 0.656264 0.657048 0.664916 0.680786 0.685746 0.702697 0.705656 0.704926 0.713379 0.697158 0.632261 0.483326 0.233463 0.0265009 0.000134939 6.66037e-09 2.08418e-13 -2.08493e-17 7.50191e-22 -4.39647e-22 -4.29655e-22 -4.20107e-22 -4.10974e-22 -4.69268e-22 3.28208e-22 -7.07323e-22 0 0 0.272207 0.258064 0.327194 0.338332 0.369248 0.392301 0.40668 0.438822 0.441724 0.46315 0.475918 0.477453 0.498893 0.512219 0.513885 0.53415 0.54389 0.557706 0.568763 0.572713 0.584896 0.606603 0.609 0.618444 0.619183 0.626598 0.641552 0.646227 0.662201 0.66499 0.664302 0.672267 0.656981 0.595824 0.455472 0.220009 0.0249737 0.000127162 6.27654e-09 1.96483e-13 4.06419e-18 -3.00076e-22 -7.32744e-22 1.43218e-22 7.00178e-22 1.36991e-22 -1.34077e-22 3.28208e-22 0 0 0 0.255292 0.242027 0.306862 0.317307 0.346303 0.367923 0.381408 0.411553 0.414276 0.43437 0.446344 0.447784 0.467892 0.480389 0.481952 0.500958 0.510092 0.52305 0.53342 0.537124 0.54855 0.568908 0.571156 0.580013 0.580706 0.58766 0.601686 0.60607 0.621052 0.623667 0.623022 0.630492 0.616156 0.558799 0.427169 0.206337 0.0234218 0.00011926 5.88651e-09 1.84366e-13 -2.87199e-22 -4.50114e-22 -1.02584e-21 -5.72873e-22 8.40213e-22 5.47965e-22 -1.20669e-21 -1.18155e-21 1.28604e-22 0 0 0.238125 0.225752 0.286227 0.29597 0.323016 0.343182 0.355761 0.383878 0.386418 0.405161 0.41633 0.417672 0.436429 0.448086 0.449543 0.467271 0.475791 0.487877 0.49755 0.501005 0.511663 0.530652 0.532749 0.54101 0.541657 0.548143 0.561226 0.565315 0.579289 0.581729 0.581127 0.588095 0.574723 0.521223 0.398444 0.192462 0.0218468 0.000111241 5.49067e-09 1.71878e-13 2.31019e-22 0 5.86195e-22 0 1.40036e-22 9.58939e-22 4.0223e-22 -3.9385e-22 -2.57208e-22 0 0 0.220723 0.209254 0.265309 0.274341 0.29941 0.318103 0.329762 0.355825 0.358178 0.375552 0.385905 0.387149 0.404535 0.41534 0.416691 0.433123 0.441021 0.452224 0.46119 0.464392 0.474271 0.491873 0.493816 0.501474 0.502073 0.508085 0.520212 0.524002 0.536955 0.539216 0.538658 0.545117 0.532723 0.483132 0.369326 0.178397 0.0202503 0.000103111 5.08942e-09 1.59324e-13 9.77259e-22 -3.00076e-22 0 -2.86436e-22 -2.80071e-22 2.73983e-22 2.68153e-22 -2.62567e-22 -5.14416e-22 0 0 0.203103 0.19255 0.24413 0.252441 0.275509 0.292709 0.303438 0.32742 0.329586 0.345572 0.355099 0.356244 0.372242 0.382184 0.383427 0.398548 0.405815 0.416123 0.424374 0.427321 0.436411 0.452607 0.454396 0.461442 0.461994 0.467526 0.478684 0.482172 0.494091 0.496172 0.495658 0.501602 0.490196 0.444565 0.339843 0.164156 0.0186337 9.48802e-05 4.68314e-09 1.46628e-13 -5.40584e-23 -6.00152e-22 0 0 0 5.47965e-22 5.36307e-22 -5.25133e-22 -7.71625e-22 0 0 0.185283 0.175656 0.22271 0.230292 0.251335 0.267027 0.276814 0.298692 0.300668 0.315252 0.323942 0.324987 0.339581 0.348651 0.349785 0.363579 0.370209 0.379613 0.387139 0.389828 0.39812 0.412896 0.414527 0.420955 0.421458 0.426505 0.436684 0.439866 0.450739 0.452638 0.452169 0.457591 0.447186 0.405559 0.310025 0.149753 0.0169988 8.65554e-05 4.27224e-09 1.33776e-13 -8.84448e-22 6.00152e-22 -2.93098e-22 8.59309e-22 -5.60142e-22 -5.47965e-22 5.36307e-22 5.25133e-22 -1.02883e-21 0 0 0.16728 0.158588 0.20107 0.207915 0.226914 0.241081 0.249917 0.269669 0.271453 0.28462 0.292466 0.293409 0.306585 0.314774 0.315798 0.328252 0.334237 0.342727 0.349523 0.35195 0.359437 0.372776 0.374249 0.380053 0.380507 0.385063 0.394254 0.397126 0.406943 0.408657 0.408234 0.413129 0.403735 0.366152 0.279902 0.135202 0.0153471 7.81452e-05 3.85713e-09 1.20817e-13 -6.68072e-22 0 5.86195e-22 5.72873e-22 5.60142e-22 -8.21948e-22 2.68153e-22 5.25133e-22 0 0 0 0.149111 0.141364 0.179232 0.185333 0.202269 0.214897 0.222774 0.240381 0.241971 0.253707 0.260701 0.261542 0.273287 0.280587 0.281499 0.2926 0.297936 0.305504 0.311561 0.313724 0.320398 0.332289 0.333602 0.338775 0.33918 0.343242 0.351434 0.353994 0.362745 0.364273 0.363896 0.368259 0.359886 0.326384 0.249501 0.120518 0.0136803 6.96578e-05 3.4382e-09 1.07676e-13 -1.1615e-22 -3.00076e-22 -5.86195e-22 -5.72873e-22 0 -2.73983e-22 5.36307e-22 -2.62567e-22 2.57208e-22 0 0 0.130796 0.124 0.157217 0.162569 0.177424 0.188501 0.19541 0.210855 0.212249 0.222544 0.228679 0.229417 0.239719 0.246122 0.246923 0.25666 0.26134 0.267979 0.273292 0.27519 0.281044 0.291474 0.292626 0.297163 0.297518 0.301081 0.308267 0.310513 0.318189 0.319529 0.319198 0.323026 0.315681 0.286294 0.218855 0.105715 0.0119999 6.11017e-05 3.01589e-09 9.44232e-14 -5.59884e-22 3.00076e-22 2.93098e-22 -2.86436e-22 -2.80071e-22 -2.73983e-22 0 -2.62567e-22 -2.57208e-22 0 0 0.112352 0.106514 0.135047 0.139644 0.152404 0.161919 0.167854 0.181121 0.182319 0.191162 0.196432 0.197065 0.205915 0.211415 0.212102 0.220467 0.224487 0.230189 0.234753 0.2363