<?xml version="1.0"?>
<VTKFile type="PolyData">
	<PolyData>
		<Piece NumberOfPoints="2601" NumberOfPolys="2500">
			<Points>
				<DataArray type="Float32" NumberOfComponents="3" format="ascii">
 1e-06 0 0 0.17498 0 0 0.198032 0 0 0.220339 0 0 0.23739 0 0 0.251213 0 0 0.26322 0 0 0.272885 0 0 0.281818 0 0 0.290234 0 0 0.297153 0 0 0.303247 0 0 0.308542 0 0 0.313198 0 0 0.31761 0 0 0.321703 0 0 0.327872 0 0 0.340767 0 0 0.360006 0 0 0.380001 0 0 0.400001 0 0 0.420001 0 0 0.440001 0 0 0.460001 0 0 0.480001 0 0 0.500001 0 0 0.520001 0 0 0.540001 0 0 0.560001 0 0 0.580001 0 0 0.600001 0 0 0.620001 0 0 0.640001 0 0 0.660001 0 0 0.680001 0 0 0.700001 0 0 0.720001 0 0 0.740001 0 0 0.760001 0 0 0.780001 0 0 0.800001 0 0 0.820001 0 0 0.840001 0 0 0.860001 0 0 0.880001 0 0 0.900001 0 0 0.920001 0 0 0.940001 0 0 0.960001 0 0 0.980001 0 0 1 0 0 9.99507e-07 3.14108e-08 0 0.174894 0.00549626 0 0.197934 0.00622034 0 0.220231 0.00692103 0 0.237273 0.00745659 0 0.251089 0.0078908 0 0.26309 0.00826793 0 0.27275 0.00857152 0 0.281679 0.00885212 0 0.290091 0.00911648 0 0.297006 0.00933379 0 0.303098 0.00952523 0 0.30839 0.00969154 0 0.313044 0.00983779 0 0.317453 0.00997636 0 0.321544 0.0101049 0 0.32771 0.0102987 0 0.340599 0.0107037 0 0.359828 0.0113081 0 0.379813 0.0119361 0 0.399804 0.0125643 0 0.419794 0.0131926 0 0.439784 0.0138208 0 0.459774 0.014449 0 0.479764 0.0150772 0 0.499754 0.0157054 0 0.519744 0.0163336 0 0.539735 0.0169618 0 0.559725 0.0175901 0 0.579715 0.0182183 0 0.599705 0.0188465 0 0.619695 0.0194747 0 0.639685 0.0201029 0 0.659675 0.0207311 0 0.679665 0.0213593 0 0.699656 0.0219876 0 0.719646 0.0226158 0 0.739636 0.023244 0 0.759626 0.0238722 0 0.779616 0.0245004 0 0.799606 0.0251286 0 0.819596 0.0257569 0 0.839587 0.0263851 0 0.859577 0.0270133 0 0.879567 0.0276415 0 0.899557 0.0282697 0 0.919547 0.0288979 0 0.939537 0.0295261 0 0.959527 0.0301544 0 0.979517 0.0307826 0 0.999508 0.0314108 0 9.98027e-07 6.27905e-08 0 0.174635 0.0109871 0 0.197641 0.0124345 0 0.219905 0.0138352 0 0.236921 0.0149058 0 0.250718 0.0157738 0 0.2627 0.0165277 0 0.272346 0.0171346 0 0.281262 0.0176955 0 0.289662 0.018224 0 0.296566 0.0186584 0 0.302649 0.0190411 0 0.307933 0.0193735 0 0.31258 0.0196659 0 0.316983 0.0199429 0 0.321068 0.0201999 0 0.327225 0.0205873 0 0.340094 0.0213969 0 0.359296 0.022605 0 0.379251 0.0238605 0 0.399212 0.0251163 0 0.419172 0.0263721 0 0.439133 0.0276279 0 0.459093 0.0288837 0 0.479054 0.0301395 0 0.499014 0.0313953 0 0.518975 0.0326511 0 0.538935 0.0339069 0 0.558896 0.0351628 0 0.578857 0.0364186 0 0.598817 0.0376744 0 0.618778 0.0389302 0 0.638738 0.040186 0 0.658699 0.0414418 0 0.678659 0.0426976 0 0.69862 0.0439534 0 0.71858 0.0452092 0 0.738541 0.046465 0 0.758501 0.0477209 0 0.778462 0.0489767 0 0.798422 0.0502325 0 0.818383 0.0514883 0 0.838343 0.0527441 0 0.858304 0.0539999 0 0.878265 0.0552557 0 0.898225 0.0565115 0 0.918186 0.0577673 0 0.938146 0.0590232 0 0.958107 0.060279 0 0.978067 0.0615348 0 0.998028 0.0627906 0 9.95562e-07 9.41083e-08 0 0.174204 0.0164671 0 0.197153 0.0186365 0 0.219362 0.0207358 0 0.236336 0.0223403 0 0.250098 0.0236413 0 0.262051 0.0247712 0 0.271674 0.0256807 0 0.280567 0.0265214 0 0.288946 0.0273135 0 0.295834 0.0279645 0 0.301902 0.0285381 0 0.307173 0.0290364 0 0.311808 0.0294745 0 0.3162 0.0298897 0 0.320275 0.0302749 0 0.326417 0.0308555 0 0.339255 0.032069 0 0.358408 0.0338796 0 0.378315 0.0357613 0 0.398226 0.0376434 0 0.418137 0.0395256 0 0.438048 0.0414078 0 0.457959 0.0432899 0 0.477871 0.0451721 0 0.497782 0.0470543 0 0.517693 0.0489364 0 0.537604 0.0508186 0 0.557516 0.0527007 0 0.577427 0.0545829 0 0.597338 0.0564651 0 0.617249 0.0583472 0 0.637161 0.0602294 0 0.657072 0.0621116 0 0.676983 0.0639937 0 0.696894 0.0658759 0 0.716806 0.0677581 0 0.736717 0.0696402 0 0.756628 0.0715224 0 0.776539 0.0734046 0 0.796451 0.0752867 0 0.816362 0.0771689 0 0.836273 0.0790511 0 0.856184 0.0809332 0 0.876096 0.0828154 0 0.896007 0.0846976 0 0.915918 0.0865797 0 0.935829 0.0884619 0 0.95574 0.0903441 0 0.975652 0.0922262 0 0.995563 0.0941084 0 9.92115e-07 1.25333e-07 0 0.1736 0.0219308 0 0.196471 0.02482 0 0.218602 0.0276159 0 0.235518 0.0297528 0 0.249232 0.0314854 0 0.261144 0.0329902 0 0.270733 0.0342015 0 0.279596 0.0353212 0 0.287946 0.036376 0 0.29481 0.0372431 0 0.300856 0.038007 0 0.306109 0.0386706 0 0.310728 0.0392541 0 0.315105 0.0398071 0 0.319166 0.04032 0 0.325287 0.0410933 0 0.33808 0.0427094 0 0.357167 0.0451207 0 0.377005 0.0476268 0 0.396847 0.0501334 0 0.416689 0.0526401 0 0.436531 0.0551467 0 0.456374 0.0576534 0 0.476216 0.0601601 0 0.496058 0.0626667 0 0.515901 0.0651734 0 0.535743 0.0676801 0 0.555585 0.0701867 0 0.575428 0.0726934 0 0.59527 0.0752001 0 0.615112 0.0777067 0 0.634954 0.0802134 0 0.654797 0.0827201 0 0.674639 0.0852267 0 0.694481 0.0877334 0 0.714324 0.0902401 0 0.734166 0.0927467 0 0.754008 0.0952534 0 0.77385 0.09776 0 0.793693 0.100267 0 0.813535 0.102773 0 0.833377 0.10528 0 0.85322 0.107787 0 0.873062 0.110293 0 0.892904 0.1128 0 0.912747 0.115307 0 0.932589 0.117813 0 0.952431 0.12032 0 0.972273 0.122827 0 0.992116 0.125333 0 9.87688e-07 1.56434e-07 0 0.172826 0.0273729 0 0.195594 0.0309791 0 0.217627 0.0344687 0 0.234467 0.0371359 0 0.24812 0.0392984 0 0.259979 0.0411766 0 0.269525 0.0426886 0 0.278348 0.044086 0 0.286661 0.0454027 0 0.293494 0.0464849 0 0.299514 0.0474383 0 0.304743 0.0482666 0 0.309342 0.048995 0 0.313699 0.0496851 0 0.317742 0.0503254 0 0.323836 0.0512905 0 0.336571 0.0533077 0 0.355574 0.0563173 0 0.375323 0.0594453 0 0.395076 0.0625739 0 0.41483 0.0657026 0 0.434584 0.0688313 0 0.454338 0.07196 0 0.474091 0.0750887 0 0.493845 0.0782174 0 0.513599 0.0813461 0 0.533353 0.0844748 0 0.553106 0.0876035 0 0.57286 0.0907321 0 0.592614 0.0938608 0 0.612368 0.0969895 0 0.632122 0.100118 0 0.651875 0.103247 0 0.671629 0.106376 0 0.691383 0.109504 0 0.711137 0.112633 0 0.73089 0.115762 0 0.750644 0.11889 0 0.770398 0.122019 0 0.790152 0.125148 0 0.809905 0.128276 0 0.829659 0.131405 0 0.849413 0.134534 0 0.869167 0.137662 0 0.88892 0.140791 0 0.908674 0.14392 0 0.928428 0.147049 0 0.948182 0.150177 0 0.967936 0.153306 0 0.987689 0.156435 0 9.82287e-07 1.87381e-07 0 0.171881 0.032788 0 0.194524 0.0371075 0 0.216437 0.0412875 0 0.233185 0.0444824 0 0.246764 0.0470727 0 0.258557 0.0493224 0 0.268051 0.0511335 0 0.276826 0.0528074 0 0.285093 0.0543845 0 0.291889 0.0556809 0 0.297876 0.0568229 0 0.303077 0.057815 0 0.307651 0.0586875 0 0.311984 0.0595141 0 0.316004 0.060281 0 0.322065 0.0614371 0 0.334731 0.0638533 0 0.353629 0.0674584 0 0.37327 0.0712051 0 0.392916 0.0749527 0 0.412562 0.0787003 0 0.432207 0.082448 0 0.451853 0.0861956 0 0.471499 0.0899432 0 0.491145 0.0936908 0 0.51079 0.0974385 0 0.530436 0.101186 0 0.550082 0.104934 0 0.569728 0.108681 0 0.589373 0.112429 0 0.609019 0.116177 0 0.628665 0.119924 0 0.648311 0.123672 0 0.667956 0.127419 0 0.687602 0.131167 0 0.707248 0.134915 0 0.726894 0.138662 0 0.746539 0.14241 0 0.766185 0.146158 0 0.785831 0.149905 0 0.805477 0.153653 0 0.825122 0.1574 0 0.844768 0.161148 0 0.864414 0.164896 0 0.88406 0.168643 0 0.903705 0.172391 0 0.923351 0.176139 0 0.942997 0.179886 0 0.962642 0.183634 0 0.982288 0.187382 0 9.75917e-07 2.18143e-07 0 0.170766 0.0381707 0 0.193263 0.0431994 0 0.215033 0.0480656 0 0.231673 0.0517849 0 0.245163 0.0548005 0 0.25688 0.0574196 0 0.266313 0.059528 0 0.275031 0.0614767 0 0.283245 0.0633127 0 0.289996 0.0648219 0 0.295944 0.0661514 0 0.301111 0.0673064 0 0.305655 0.0683221 0 0.309961 0.0692844 0 0.313955 0.0701772 0 0.319976 0.0715231 0 0.33256 0.074336 0 0.351336 0.0785329 0 0.370849 0.0828946 0 0.390368 0.0872575 0 0.409886 0.0916204 0 0.429404 0.0959832 0 0.448923 0.100346 0 0.468441 0.104709 0 0.487959 0.109072 0 0.507478 0.113435 0 0.526996 0.117798 0 0.546514 0.12216 0 0.566033 0.126523 0 0.585551 0.130886 0 0.605069 0.135249 0 0.624588 0.139612 0 0.644106 0.143975 0 0.663624 0.148338 0 0.683143 0.1527 0 0.702661 0.157063 0 0.722179 0.161426 0 0.741698 0.165789 0 0.761216 0.170152 0 0.780734 0.174515 0 0.800253 0.178878 0 0.819771 0.183241 0 0.839289 0.187603 0 0.858808 0.191966 0 0.878326 0.196329 0 0.897844 0.200692 0 0.917363 0.205055 0 0.936881 0.209418 0 0.956399 0.213781 0 0.975918 0.218143 0 9.68583e-07 2.4869e-07 0 0.169483 0.0435158 0 0.191811 0.0492486 0 0.213417 0.0547962 0 0.229932 0.0590364 0 0.243321 0.0624742 0 0.25495 0.0654601 0 0.264312 0.0678637 0 0.272964 0.0700853 0 0.281116 0.0721783 0 0.287817 0.0738989 0 0.29372 0.0754146 0 0.298849 0.0767313 0 0.303358 0.0778892 0 0.307631 0.0789863 0 0.311596 0.0800042 0 0.317572 0.0815385 0 0.330061 0.0847453 0 0.348696 0.0895298 0 0.368063 0.0945024 0 0.387434 0.0994762 0 0.406806 0.10445 0 0.426178 0.109424 0 0.445549 0.114398 0 0.464921 0.119371 0 0.484293 0.124345 0 0.503664 0.129319 0 0.523036 0.134293 0 0.542408 0.139267 0 0.561779 0.14424 0 0.581151 0.149214 0 0.600523 0.154188 0 0.619894 0.159162 0 0.639266 0.164136 0 0.658638 0.169109 0 0.678009 0.174083 0 0.697381 0.179057 0 0.716753 0.184031 0 0.736124 0.189005 0 0.755496 0.193978 0 0.774867 0.198952 0 0.794239 0.203926 0 0.813611 0.2089 0 0.832982 0.213874 0 0.852354 0.218847 0 0.871726 0.223821 0 0.891097 0.228795 0 0.910469 0.233769 0 0.929841 0.238743 0 0.949212 0.243716 0 0.968584 0.24869 0 9.60294e-07 2.78991e-07 0 0.168032 0.0488179 0 0.190169 0.0552492 0 0.211591 0.0614728 0 0.227964 0.0662296 0 0.241239 0.0700863 0 0.252768 0.0734359 0 0.26205 0.0761325 0 0.270628 0.0786247 0 0.27871 0.0809728 0 0.285354 0.082903 0 0.291207 0.0846033 0 0.296291 0.0860805 0 0.300762 0.0873795 0 0.304999 0.0886103 0 0.308929 0.0897521 0 0.314854 0.0914734 0 0.327236 0.0950709 0 0.345711 0.100438 0 0.364913 0.106017 0 0.384118 0.111597 0 0.403324 0.117177 0 0.42253 0.122756 0 0.441736 0.128336 0 0.460942 0.133916 0 0.480148 0.139496 0 0.499354 0.145076 0 0.51856 0.150655 0 0.537765 0.156235 0 0.556971 0.161815 0 0.576177 0.167395 0 0.595383 0.172975 0 0.614589 0.178555 0 0.633795 0.184134 0 0.653001 0.189714 0 0.67
[...]
			<PointData Scalars="VitesseX">
				<DataArray Name="VitesseX" type="Float32" format="ascii">
 0 1.274 1.95854 1.79565 2.27059 2.27098 2.38687 2.69368 2.56231 2.76291 2.79937 3.04784 3.09674 3.19198 3.19731 3.08425 2.31266 0.522231 0.00677064 5.68793e-07 4.33161e-12 2.83725e-17 0 0 0 0 0 0 0 0 0 0 0 0 0 0 0 0 0 0 0 0 0 0 0 0 0 0 0 0 0 0 1.27338 1.95758 1.79476 2.26947 2.26986 2.38569 2.69235 2.56105 2.76155 2.79799 3.04633 3.09521 3.1904 3.19574 3.08273 2.31152 0.521974 0.0067673 5.68512e-07 4.32947e-12 2.97934e-17 1.2006e-22 -1.1484e-22 1.10055e-22 0 0 0 0 0 0 0 0 0 1.55372e-22 0 -1.4674e-22 0 0 0 1.32066e-22 1.28845e-22 -1.25777e-22 -1.22852e-22 0 0 1.1484e-22 -1.12397e-22 0 2.15618e-22 0 0 1.27149 1.95468 1.7921 2.26611 2.2665 2.38216 2.68836 2.55726 2.75746 2.79385 3.04182 3.09063 3.18568 3.19101 3.07816 2.3081 0.521201 0.00675728 5.6767e-07 4.32305e-12 2.54088e-17 0 -2.2968e-22 2.2011e-22 0 0 0 -1.88666e-22 0 0 0 0 0 0 -1.50932e-22 0 0 0 0 0 0 -1.25777e-22 0 0 0 1.1484e-22 -2.24793e-22 0 0 0 0 1.26835 1.94985 1.78768 2.26051 2.2609 2.37628 2.68172 2.55094 2.75065 2.78695 3.03431 3.083 3.17781 3.18313 3.07056 2.3024 0.519914 0.0067406 5.66268e-07 4.31237e-12 2.15856e-17 0 0 0 -1.05653e-22 0 1.95653e-22 0 1.8216e-22 0 0 0 0 1.55372e-22 0 1.4674e-22 0 0 0 0 0 0 0 0 2.34784e-22 1.1484e-22 -1.12397e-22 0 0 0 0 1.26396 1.9431 1.78149 2.25269 2.25308 2.36805 2.67244 2.54211 2.74112 2.7773 3.0238 3.07232 3.16681 3.1721 3.05993 2.29443 0.518113 0.00671725 5.64307e-07 4.29744e-12 2.59804e-17 -1.2006e-22 1.1484e-22 -1.10055e-22 -1.05653e-22 0 -9.78266e-23 0 0 0 0 0 0 0 0 0 0 1.39017e-22 0 0 0 0 0 -1.2006e-22 1.17392e-22 -2.2968e-22 0 -1.10055e-22 -1.07809e-22 0 0 1.25832 1.93443 1.77354 2.24264 2.24302 2.35748 2.66052 2.53077 2.72889 2.76491 3.01031 3.05861 3.15268 3.15795 3.04627 2.28419 0.515802 0.00668729 5.6179e-07 4.27828e-12 2.25736e-17 -1.2006e-22 0 -1.10055e-22 0 1.01589e-22 -9.78266e-23 0 1.8216e-22 1.76088e-22 0 0 1.6008e-22 -1.55372e-22 -1.50932e-22 0 -1.42774e-22 -1.39017e-22 0 1.32066e-22 0 -1.25777e-22 0 0 1.17392e-22 0 2.24793e-22 -1.10055e-22 0 0 0 1.25144 1.92385 1.76384 2.23037 2.23076 2.34459 2.64597 2.51693 2.71397 2.74979 2.99385 3.04189 3.13544 3.14068 3.02962 2.2717 0.512981 0.00665072 5.58718e-07 4.25491e-12 2.73335e-18 1.2006e-22 1.1484e-22 1.10055e-22 1.05653e-22 0 9.78266e-23 -9.43328e-23 -9.10799e-23 0 -1.70408e-22 0 0 1.55372e-22 0 0 0 1.39017e-22 0 0 0 1.25777e-22 0 -1.2006e-22 -1.17392e-22 0 2.24793e-22 -1.10055e-22 1.07809e-22 0 0 1.24332 1.91138 1.7524 2.21591 2.21629 2.32939 2.62881 2.50061 2.69637 2.73195 2.97443 3.02216 3.11511 3.12031 3.00997 2.25697 0.509654 0.00660758 5.55094e-07 4.2273e-12 6.33377e-18 -1.2006e-22 -1.1484e-22 0 -1.05653e-22 -1.01589e-22 -9.78266e-23 0 9.10799e-23 8.80439e-23 0 0 -1.6008e-22 0 -1.50932e-22 0 0 0 -1.35452e-22 0 0 -1.25777e-22 1.22852e-22 0 -1.17392e-22 -1.1484e-22 -1.12397e-22 0 0 0 0 1.23398 1.89701 1.73923 2.19926 2.19964 2.31188 2.60905 2.48181 2.67611 2.71142 2.95208 2.99945 3.0917 3.09687 2.98735 2.24001 0.505825 0.00655793 5.50923e-07 4.1955e-12 1.23944e-17 0 -1.1484e-22 0 -1.05653e-22 1.01589e-22 9.78266e-23 -9.43328e-23 -9.10799e-23 -8.80439e-23 0 8.25412e-23 0 0 0 0 1.42774e-22 0 0 0 0 0 1.22852e-22 2.4012e-22 -1.17392e-22 0 0 0 1.07809e-22 0 0 1.22342 1.88078 1.72435 2.18043 2.18081 2.2921 2.58672 2.46057 2.6532 2.68822 2.92682 2.97378 3.06524 3.07036 2.96178 2.22084 0.501495 0.00650181 5.46208e-07 4.15961e-12 -9.77481e-18 0 1.1484e-22 1.10055e-22 1.05653e-22 -1.01589e-22 9.78266e-23 9.43328e-23 9.10799e-23 0 -8.52038e-23 8.25412e-23 0 -1.55372e-22 0 0 1.42774e-22 -1.39017e-22 0 0 0 -2.51554e-22 -2.45704e-22 2.4012e-22 1.17392e-22 1.1484e-22 0 0 1.07809e-22 0 0 1.21165 1.86269 1.70776 2.15946 2.15983 2.27005 2.56184 2.43691 2.62768 2.66236 2.89866 2.94517 3.03575 3.04083 2.93329 2.19947 0.496672 0.00643926 5.40954e-07 4.1196e-12 4.34933e-18 -1.2006e-22 1.1484e-22 0 0 -1.01589e-22 0 0 0 8.80439e-23 -1.70408e-22 8.25412e-23 -8.00399e-23 0 0 0 0 0 1.35452e-22 -1.32066e-22 2.5769e-22 1.25777e-22 0 0 0 -1.1484e-22 -1.12397e-22 -1.10055e-22 1.07809e-22 0 0 1.19869 1.84276 1.68949 2.13636 2.13672 2.24576 2.53443 2.41083 2.59957 2.63388 2.86765 2.91366 3.00327 3.00829 2.90191 2.17594 0.491357 0.00637037 5.35166e-07 4.07548e-12 2.6856e-18 6.00299e-23 0 1.10055e-22 -1.05653e-22 -1.01589e-22 0 -9.43328e-23 -1.8216e-22 8.80439e-23 -8.52038e-23 8.25412e-23 0 7.76858e-23 0 0 -1.42774e-22 1.39017e-22 1.35452e-22 -1.32066e-22 -1.28845e-22 -1.25777e-22 0 -1.2006e-22 1.17392e-22 1.1484e-22 -1.12397e-22 -1.10055e-22 2.15618e-22 0 0 1.18454 1.82101 1.66955 2.11114 2.11151 2.21925 2.50452 2.38238 2.56889 2.60279 2.83381 2.87928 2.96783 2.97279 2.86766 2.15026 0.485558 0.00629519 5.2885e-07 4.02741e-12 1.42076e-17 6.00299e-23 -2.871e-22 0 -5.28263e-23 -1.01589e-22 9.78266e-23 0 0 8.80439e-23 0 0 0 -1.55372e-22 -7.54662e-23 -7.33699e-23 -7.1387e-23 1.39017e-22 -1.35452e-22 0 -1.28845e-22 0 1.22852e-22 -1.2006e-22 -1.17392e-22 -1.1484e-22 -1.12397e-22 -1.10055e-22 0 0 0 1.16922 1.79746 1.64796 2.08385 2.08421 2.19056 2.47214 2.35158 2.53567 2.56914 2.79717 2.84205 2.92945 2.93435 2.83058 2.12246 0.47928 0.00621379 5.22012e-07 3.97531e-12 1.27477e-17 0 1.7226e-22 1.10055e-22 -2.11305e-22 -5.07946e-23 0 9.43328e-23 0 -1.76088e-22 -8.52038e-23 -1.65082e-22 -1.6008e-22 0 1.50932e-22 7.33699e-23 -7.1387e-23 0 1.35452e-22 1.32066e-22 0 0 0 0 2.34784e-22 0 1.12397e-22 0 -1.07809e-22 0 0 1.15275 1.77214 1.62475 2.05449 2.05485 2.1597 2.43731 2.31845 2.49995 2.53295 2.75776 2.80201 2.88819 2.89302 2.79071 2.09256 0.472529 0.00612626 5.14659e-07 3.91934e-12 -1.79999e-17 0 1.1484e-22 0 0 -1.01589e-22 1.95653e-22 9.43328e-23 1.8216e-22 1.76088e-22 -8.52038e-23 1.65082e-22 -8.00399e-23 -7.76858e-23 7.54662e-23 7.33699e-23 7.1387e-23 -6.95084e-23 -6.77261e-23 0 0 1.25777e-22 0 0 0 -1.1484e-22 0 1.10055e-22 -1.07809e-22 0 0 1.13515 1.74508 1.59993 2.02311 2.02346 2.12672 2.40009 2.28304 2.46177 2.49426 2.71564 2.75922 2.84407 2.84883 2.74808 2.0606 0.465312 0.00603269 5.06798e-07 3.8595e-12 -4.29683e-17 -3.0015e-23 2.2968e-22 1.10055e-22 5.28263e-23 -5.07946e-23 -1.4674e-22 4.71664e-23 -1.3662e-22 8.80439e-23 -8.52038e-23 8.25412e-23 8.00399e-23 0 -2.26399e-22 0 0 0 0 -1.32066e-22 -6.44224e-23 0 1.22852e-22 0 0 1.1484e-22 0 1.10055e-22 1.07809e-22 0 0 1.11642 1.71629 1.57354 1.98973 1.99008 2.09163 2.36049 2.24537 2.42116 2.45311 2.67084 2.71369 2.79715 2.80183 2.70275 2.0266 0.457635 0.00593316 4.98437e-07 3.79581e-12 -3.93332e-18 6.00299e-23 2.871e-23 -1.10055e-22 5.28263e-23 1.01589e-22 9.78266e-23 0 0 -8.80439e-23 -1.70408e-22 -8.25412e-23 -1.6008e-22 7.76858e-23 0 7.33699e-23 1.42774e-22 2.08525e-22 1.35452e-22 6.6033e-23 1.28845e-22 -1.25777e-22 -1.22852e-22 6.003e-23 -1.17392e-22 -1.1484e-22 0 0 -1.07809e-22 0 0 1.09659 1.6858 1.54559 1.95439 1.95473 2.05448 2.31856 2.20549 2.37815 2.40954 2.6234 2.66549 2.74747 2.75206 2.65474 1.99061 0.449506 0.00582778 4.89584e-07 3.72836e-12 2.3029e-21 9.00449e-23 5.74199e-23 -2.75137e-23 -7.92395e-23 -1.01589e-22 -1.4674e-22 -1.88666e-22 1.3662e-22 -4.4022e-23 1.27806e-22 1.23812e-22 8.00399e-23 7.76858e-23 0 -1.4674e-22 -1.42774e-22 0 -6.77261e-23 -6.6033e-23 1.93267e-22 6.28885e-23 0 0 0 1.1484e-22 1.12397e-22 1.10055e-22 -1.07809e-22 0 0 1.07568 1.65365 1.51611 1.91712 1.91745 2.0153 2.27435 2.16343 2.3328 2.36359 2.57337 2.61466 2.69508 2.69958 2.60412 1.95265 0.440935 0.00571664 4.80247e-07 3.65725e-12 -1.05186e-17 -7.50374e-23 1.4355e-22 8.25411e-23 2.11305e-22 -1.26986e-22 0 -4.71664e-23 1.3662e-22 0 -1.70408e-22 4.12706e-23 -1.6008e-22 7.76858e-23 0 1.4674e-22 2.14161e-22 -2.08525e-22 2.03178e-22 -1.98099e-22 1.28845e-22 -1.88666e-22 1.22852e-22 0 -1.17392e-22 -5.742e-23 -5.61983e-23 0 -1.07809e-22 0 0 1.0537 1.61987 1.48514 1.87796 1.87829 1.97413 2.22789 2.11924 2.28515 2.31531 2.52081 2.56125 2.64002 2.64444 2.55092 1.91276 0.431927 0.00559987 4.70437e-07 3.58254e-12 -4.2704e-17 -6.75336e-23 8.61299e-23 -1.78839e-22 -1.05653e-22 -1.01589e-22 -7.33699e-23 1.17916e-22 -4.554e-23 -4.4022e-23 1.27806e-22 1.65082e-22 -2.4012e-22 3.88429e-23 3.77331e-23 0 -2.14161e-22 -6.95084e-23 -6.77261e-23 -6.6033e-23 1.28845e-22 -3.14443e-22 1.22852e-22 1.2006e-22 -1.17392e-22 5.742e-23 -1.12397e-22 1.10055e-22 -1.07809e-22 0 0 1.03069 1.5845 1.45271 1.83695 1.83726 1.93102 2.17923 2.07296 2.23524 2.26474 2.46575 2.50532 2.58236 2.58668 2.49521 1.87098 0.422494 0.00547757 4.60163e-07 3.50438e-12 1.27457e-17 -7.50374e-24 2.69156e-24 -3.43921e-23 -2.64132e-23 -1.26986e-23 1.4674e-22 -1.41499e-22 1.1385e-22 1.10055e-22 1.27806e-22 -8.25412e-23 1.6008e-22 -7.76858e-23 7.54662e-23 1.83425e-22 -7.1387e-23 -6.95084e-23 -6.77261e-23 6.6033e-23 2.5769e-22 0 -6.1426e-23 1.2006e-22 5.8696e-23 -1.1484e-22 -1.12397e-22 0 0 0 0 1.00666 1.54755 1.41884 1.79412 1.79443 1.886 2.12842 2.02463 2.18313 2.21194 2.40826 2.4469 2.52216 2.52637 2.43703 1.82736 0.412644 0.00534986 4.49434e-07 3.42264e-12 1.00775e-17 7.50374e-23 7.17749e-24 1.18653e-22 1.05653e-22 0 -9.78266e-23 4.71664e-23 -4.554e-23 8.80439e-23 -2.13009e-22 0 8.00399e-23 3.88429e-23 0 3.6685e-23 3.56935e-23 -3.47542e-23 6.77261e-23 -1.32066e-22 -1.93267e-22 2.51554e-22 0 -1.8009e-22 0 0 -5.61983e-23 -1.10055e-22 -1.07809e-22 0 0 0.981637 1.50908 1.38357 1.74952 1.74982 1.83911 2.07552 1.9743 2.12886 2.15695 2.3484 2.38608 2.45946 2.46357 2.37645 1.78194 0.402386 0.00521687 4.38262e-07 3.33746e-12 -1.18386e-18 3.0015e-23 -1.57905e-22 6.87843e-23 -4.6223e-23 4.05513e-24 4.89133e-23 -9.43328e-23 9.10799e-23 -2.2011e-23 1.27806e-22 -6.19059e-23 -2.001e-23 0 -1.13199e-22 3.6685e-23 1.0708e-22 -2.78034e-22 1.69315e-22 6.6033e-23 0 -1.25777e-22 6.1426e-23 1.2006e-22 1.76088e-22 -5.742e-23 1.68595e-22 1.65082e-22 -5.39045e-23 0 0 0.955645 1.46913 1.34693 1.7032 1.70349 1.79042 2.02056 1.92202 2.07249 2.09984 2.28622 2.3229 2.39434 2.39834 2.31353 1.73476 0.391732 0.00507873 4.26658e-07 3.24905e-12 -6.68846e-17 1.50075e-22 -2.871e-22 -2.75137e-23 -1.32066e-23 -9.52398e-23 1.2534e-22 -5.60101e-23 1.08157e-22 -9.90494e-23 1.38456e-22 -2.06353e-23 8.00399e-23 0 1.69799e-22 7.33699e-23 7.1387e-23 -1.04263e-22 1.01589e-22 3.30165e-23 2.25478e-22 3.14443e-23 -1.22852e-22 -6.003e-23 0 -1.7226e-22 -5.61983e-23 0 -5.39045e-23 0 0 0.928709 1.42772 1.30897 1.65519 1.65548 1.73995 1.96361 1.86785 2.01407 2.04065 2.22178 2.25743 2.32685 2.33074 2.24832 1.68586 0.38069 0.00493559 4.14632e-07 3.15759e-12 1.13514e-17 1.2006e-22 5.74199e-23 0 0 -3.80959e-23 1.10055e-22 -1.23812e-22 1.85006e-23 1.65082e-23 -2.66262e-23 -2.06353e-23 1.0005e-22 -9.71073e-23 -1.32066e-22 9.17124e-23 -5.35402e-23 -6.95084e-23 -6.77261e-23 -1.32066e-22 0 6.28885e-23 6.1426e-23 -6.003e-23 0 0 -5.61983e-23 5.50275e-23 5.39045e-23 0 0 0.900857 1.3849 1.26971 1.60555 1.60583 1.68777 1.90472 1.81183 1.95367 1.97946 2.15515 2.18973 2.25707 2.26084 2.18089 1.6353 0.369273 0.00478757 4.02197e-07 3.06296e-12 -1.12619e-17 6.00299e-23 -1.1484e-22 2.75137e-23 1.05653e-22 -2.03178e-22 1.71196e-22 7.07496e-23 1.48005e-22 -1.43071e-22 -1.19818e-23 -2.32147e-22 -4.002e-23 -8.73965e-23 -1.32066e-22 -5.50275e-23 7.1387e-23 -1.56394e-22 -1.69315e-23 -2.31115e-22 -9.66336e-23 9.43328e-23 6.1426e-23 -6.003e-23 0 5.742e-23 -2.80991e-23 -5.50275e-23 1.07809e-22 0 0 0.872116 1.34072 1.2292 1.55433 1.55459 1.63392 1.84395 1.75403 1.89134 1.9163 2.08639 2.11986 2.18506 2.18871 2.11131 1.58313 0.357492 0.00463482 3.89365e-07 2.96514e-12 1.40507e-17 -1.8009e-22 5.74199e-23 -5.50274e-23 -1.84892e-22 7.61918e-23 -2.44566e-23 2.12249e-22 2.277e-22 1.2106e-22 7.45533e-23 2.06353e-22 2.75137e-23 -1.33523e-22 1.74516e-22 -1.65082e-22 8.92337e-24 1.04263e-22 -6.77261e-23 9.90494e-23 6.44224e-23 3.14443e-23 -6.1426e-23 3.0015e-23 1.4674e-22 0 1.40496e-22 -1.65082e-22 1.34761e-22 0 0 0.842514 1.29521 1.18748 1.50157 1.50183 1.57846 1.78136 1.69449 1.82714 1.85126 2.01557 2.04791 2.11089 2.11442 2.03965 1.52939 0.345358 0.00447751 3.76149e-07 2.8645e-12 -1.43828e-17 -1.8009e-22 1.1484e-22 5.50274e-23 5.28263e-23 -1.01589e-22 4.89133e-23 -9.43328e-23 -1.1385e-22 -2.2011e-23 1.06505e-22 -1.85718e-22 1.8009e-22 2.42768e-23 -4.24498e-23 -1.03176e-22 3.56935e-23 3.47542e-23 1.69315e-22 -2.97148e-22 -8.0528e-23 -7.86107e-23 1.68922e-22 -1.50075e-23 0 5.742e-23 1.12397e-22 -2.2011e-22 2.15618e-22 0 0 0.812081 1.24842 1.14459 1.44733 1.44758 1.52145 1.71702 1.63328 1.76114 1.78439 1.94276 1.97394 2.03464 2.03805 1.96597 1.47415 0.332883 0.00431577 3.62562e-07 2.76102e-12 1.47529e-17 2.4012e-22 5.74199e-23 1.65082e-22 5.28263e-23 3.04767e-22 -9.78266e-23 4.71664e-23 -2.277e-23 -1.76088e-22 1.27806e-22 8.25412e-23 2.001e-22 1.06818e-22 -5.65997e-23 -2.75137e-22 1.56159e-23 1.46619e-23 -5.92603e-23 1.48574e-22 3.22112e-22 -1.25777e-22 -3.83913e-22 6.003e-23 -7.337e-23 -1.29195e-22 5.61983e-23 -1.10055e-22 0 0 0 0.780846 1.20041 1.10056 1.39166 1.3919 1.46293 1.65098 1.57046 1.69341 1.71575 1.86804 1.89801 1.95639 1.95966 1.89036 1.41745 0.320079 0.00414978 3.48617e-07 2.65476e-12 -1.51266e-17 -1.2006e-22 0 1.65082e-22 -2.11305e-22 -1.52384e-22 -1.4674e-22 -9.43328e-23 9.10799e-23 -8.80439e-23 -4.26019e-23 -1.23812e-22 1.2006e-22 1.16529e-22 3.77331e-23 3.6685e-23 -4.46169e-23 -1.73771e-22 2.32809e-22 3.14688e-23 9.86468e-23 1.61152e-22 8.44608e-23 1.50075e-22 -2.05436e-22 -1.00485e-22 1.40496e-23 2.75137e-23 1.34761e-22 0 0 0.748841 1.1512 1.05545 1.33462 1.33485 1.40297 1.58331 1.50609 1.624 1.64543 1.79147 1.82022 1.8762 1.87933 1.81287 1.35935 0.30696 0.00397968 3.34328e-07 2.54604e-12 -5.36711e-17 -1.2006e-22 -2.2968e-22 1.10055e-22 1.58479e-22 5.07946e-23 0 -9.43328e-23 0 -2.64132e-22 -2.13009e-22 -8.25412e-23 -1.2006e-22 -9.71073e-23 7.54662e-23 3.6685e-23 3.56935e-23 2.78034e-22 -1.77781e-22 9.90494e-23 1.24818e-22 2.16179e-23 8.92597e-23 -7.50375e-24 1.87093e-22 -8.613e-23 1.54545e-22 6.87843e-23 -1.34761e-22 0 0 0.716097 1.10087 1.0093 1.27626 1.27648 1.34162 1.51407 1.44023 1.55298 1.57348 1.71314 1.74063 1.79416 1.79716 1.7336 1.29991 0.293538 0.00380567 3.19709e-07 2.43467e-12 2.17276e-17 0 3.44519e-22 0 -1.05653e-22 2.03178e-22 0 -4.71664e-23 4.554e-23 4.4022e-23 1.27806e-22 -4.12706e-23 4.002e-23 -7.76858e-23 -7.54662e-23 -2.38452e-22 -1.0708e-22 -5.21313e-23 -1.35452e-22 -1.48574e-22 -2.41584e-23 -2.2011e-22 2.61061e-22 -1.23812e-22 -1.65082e-23 3.49903e-23 1.33471e-22 2.26988e-22 1.01071e-22 0 0 0.682646 1.04944 0.962155 1.21664 1.21685 1.27895 1.44335 1.37296 1.48044 1.49998 1.63311 1.65932 1.71035 1.71321 1.65262 1.23919 0.279826 0.00362789 3.04774e-07 2.32105e-12 1.15971e-17 -1.2006e-22 -1.1484e-22 2.2011e-22 0 2.03178e-22 -1.95653e-22 1.41499e-22 4.554e-23 2.2011e-22 4.26019e-23 0 -8.00399e-23 0 2.26399e-22 -1.10055e-22 -1.0708e-22 3.47542e-23 -3.38631e-23 -9.90494e-23 -8.0528e-23 1.88666e-22 -1.22852e-22 -5.25262e-23 -5.1359e-23 1.29195e-22 8.0785e-23 -1.37569e-22 -1.32024e-22 0 0 0.648521 0.99698 0.914058 1.15582 1.15602 1.21502 1.37119 1.30432 1.40643 1.425 1.55147 1.57637 1.62485 1.62757 1.57001 1.17724 0.265837 0.00344654 2.89539e-07 2.20486e-12 -3.96854e-17 2.4012e-22 -2.2968e-22 0 -1.05653e-22 1.01589e-22 -9.78266e-23 -9.43328e-23 0 0 0 -8.25412e-23 -4.002e-23 -1.55372e-22 7.54662e-23 -1.10055e-22 -1.0708e-22 -6.95084e-23 1.01589e-22 3.30165e-23 -1.93267e-22 -2.82998e-22 -1.38209e-22 -6.003e-23 -1.02718e-22 -1.4355e-22 1.12397e-22 7.56628e-23 -7.41186e-23 0 0 0.613756 0.943536 0.865059 1.09387 1.09405 1.14988 1.29769 1.2344 1.33104 1.34861 1.46831 1.49187 1.53775 1.54032 1.48585 1.11413 0.251587 0.00326178 2.74018e-07 2.08683e-12 4.47457e-18 -1.2006e-22 2.2968e-22 0 3.16958e-22 -2.03178e-22 9.78266e-23 -9.43328e-23 -1.8216e-22 0 0 0 0 0 -7.54662e-23 0 0 0 0 0 -3.22112e-23 1.57221e-22 -9.2139e-23 -9.0045e-23 -8.8044e-23 -8.613e-23 -9.8347e-23 6.87843e-23 -1.48237e-22 0 0 0.578386 0.889161 0.815206 1.03083 1.031 1.08362 1.2229 1.16327 1.25433 1.27089 1.38369 1.40589 1.44913 1.45155 1.40022 1.04993 0.237088 0.00307381 2.58226e-07 1.9665e-12 -3.44535e-17 -1.2006e-22 3.44519e-22 1.10055e-22 2.11305e-22 2.03178e-22 9.78266e-23 9.43328e-23 0 0 0 8.25412e-23 1.6008e-22 1.55372e-22 -7.54662e-23 -1.83425e-22 -1.42774e-22 -6.95084e-23 -6.77261e-23 -6.6033e-23 -1.61056e-22 -6.28885e-23 -1.53565e-22 3.0015e-23 1.4674e-22 2.871e-23 -2.80991e-23 6.87843e-23 0 0 0 0.542445 0.833908 0.764549 0.966771 0.966937 1.01628 1.14691 1.09098 1.17639 1.19191 1.29771 1.31853 1.35908 1.36135 1.31321 0.984685 0.222355 0.0028828 2.4218e-07 1.84429e-12 1.51455e-17 -1.2006e-22 2.2968e-22 0 2.11305e-22 -1.01589e-22 0 9.43328e-23 1.8216e-22 -1.76088e-22 -1.70408e-22 8.25412e-23 1.6008e-22 1.55372e-22 0 -7.33699e-23 1.42774e-22 -1.39017e-22 -2.03178e-22 -1.98099e-22 -9.66336e-23 -9.43328e-23 -2.14991e-22 -1.2006e-22 1.76088e-22 1.1484e-22 -2.52892e-22 -2.47624e-22 2.69522e-23 0 0 0.505968 0.777832 0.713137 0.90176 0.901916 0.94794 1.06979 1.01762 1.09728 1.11176 1.21044 1.22986 1.26769 1.26981 1.2249 0.91847 0.207403 0.00268895 2.25895e-07 1.72032e-12 -1.3874e-17 -2.4012e-22 1.1484e-22 1.10055e-22 2.11305e-22 0 -9.78266e-23 -9.43328e-23 0 2.64132e-22 8.52038e-23 0 8.00399e-23 0 0 0 1.42774e-22 1.39017e-22 1.35452e-22 1.32066e-22 0 0 1.22852e-22 0 2.9348e-23 2.0097e-22 8.42974e-23 -8.25412e-23 -5.39045e-23 0 0 0.468992 0.720988 0.661021 0.83586 0.836005 0.878665 0.99161 0.943251 1.01709 1.03052 1.12198 1.13999 1.17505 1.17701 1.13539 0.851349 0.192246 0.00249244 2.09387e-07 1.59457e-12 4.18441e-18 0 1.1484e-22 -1.10055e-22 -1.05653e-22 1.01589e-22 0 -9.43328e-23 0 -8.80439e-23 0 -1.65082e-22 -8.00399e-23 -7.76858e-23 -1.50932e-22 -7.33699e-23 0 2.08525e-22 -6.77261e-23 6.6033e-23 1.93267e-22 -6.28885e-23 0 -6.003e-23 -5.8696e-23 5.742e-23 5.61983e-23 -5.50275e-23 -1.07809e-22 0 0 0.431554 0.663433 0.608253 0.769135 0.769268 0.808523 0.912451 0.867953 0.935902 0.948253 1.03242 1.04898 1.08124 1.08305 1.04475 0.783387 0.1769 0.00229347 1.92672e-07 1.46727e-12 2.03418e-17 1.2006e-22 -1.1484e-22 -1.10055e-22 0 2.03178e-22 1.95653e-22 -9.43328e-23 -1.8216e-22 -8.80439e-23 0 2.47624e-22 2.4012e-22 0 -1.50932e-22 -7.33699e-23 -7.1387e-23 2.08525e-22 -1.35452e-22 -6.6033e-23 -6.44224e-23 -1.25777e-22 0 0 0 1.1484e-22 1.12397e-22 -1.10055e-22 -1.61713e-22 0 0 0.393689 0.605223 0.554885 0.701651 0.701772 0.737583 0.832393 0.791799 0.853786 0.865054 0.941833 0.956945 0.986376 0.988025 0.953085 0.714653 0.161378 0.00209224 1.75767e-07 1.33853e-12 -4.41058e-17 3.60179e-22 -2.2968e-22 0 1.05653e-22 1.01589e-22 0 -9.43328e-23 9.10799e-23 2.64132e-22 8.52038e-23 -1.65082e-22 -1.6008e-22 1.55372e-22 -2.26399e-22 -2.9348e-22 -1.42774e-22 -6.95084e-23 1.35452e-22 1.98099e-22 -1.28845e-22 1.25777e-22 -6.1426e-23 1.8009e-22 -1.17392e-22 -1.1484e-22 1.12397e-22 1.10055e-22 -2.15618e-22 0 0 0.355436 0.546416 0.500969 0.633475 0.633584 0.665915 0.751513 0.714863 0.770827 0.781 0.850319 0.863963 0.890534 0.892022 0.860478 0.645213 0.145698 0.00188895 1.58688e-07 1.20847e-12 2.79227e-17 0 -4.59359e-22 -1.10055e-22 2.11305e-22 0 1.95653e-22 -2.82998e-22 9.10799e-23 -2.64132e-22 1.70408e-22 1.65082e-22 -2.4012e-22 7.76858e-23 1.50932e-22 1.4674e-22 1.42774e-22 6.95084e-23 -1.35452e-22 1.32066e-22 0 0 1.22852e-22 1.2006e-22 1.17392e-22 -1.7226e-22 5.61983e-23 1.10055e-22 0 0 0 0.316832 0.48707 0.446559 0.564673 0.56477 0.59359 0.669891 0.637222 0.687107 0.696176 0.757966 0.770128 0.793813 0.79514 0.767021 0.575136 0.129874 0.00168379 1.41453e-07 1.07724e-12 -3.93805e-18 -2.4012e-22 0 2.2011e-22 -2.11305e-22 -2.03178e-22 3.91306e-22 9.43328e-23 1.8216e-22 2.64132e-22 -1.70408e-22 -8.25412e-23 -8.00399e-23 -1.55372e-22 7.54662e-23 -7.33699e-23 -1.42774e-22 -6.95084e-23 -6.77261e-23 -6.6033e-23 -1.28845e-22 -6.28885e-23 -1.22852e-22 -1.2006e-22 0 -5.742e-23 1.12397e-22 -5.50275e-23 5.39045e-23 0 0 0.277915 0.427243 0.391708 0.495314 0.4954 0.520679 0.587608 0.558952 0.60271 0.610664 0.664865 0.675533 0.696309 0.697473 0.672808 0.504492 0.113921 0.00147697 1.24078e-07 9.44913e-13 -1.07338e-17 0 0 2.2011e-22 2.11305e-22 4.06356e-22 0 -1.88666e-22 -1.8216e-22 0 0 8.25412e-23 8.00399e-23 3.10743e-22 -7.54662e-23 -1.4674e-22 7.1387e-23 