<?xml version="1.0"?>
<VTKFile type="PolyData">
	<PolyData>
		<Piece NumberOfPoints="2601" NumberOfPolys="2500">
			<Points>
				<DataArray type="Float32" NumberOfComponents="3" format="ascii">
 1e-06 0 0 0.188868 0 0 0.213455 0 0 0.238675 0 0 0.257208 0 0 0.27314 0 0 0.286104 0 0 0.296749 0 0 0.307084 0 0 0.316023 0 0 0.323571 0 0 0.330553 0 0 0.336846 0 0 0.342588 0 0 0.347747 0 0 0.352277 0 0 0.356178 0 0 0.360276 0 0 0.36701 0 0 0.380641 0 0 0.400005 0 0 0.420001 0 0 0.440001 0 0 0.460001 0 0 0.480001 0 0 0.500001 0 0 0.520001 0 0 0.540001 0 0 0.560001 0 0 0.580001 0 0 0.600001 0 0 0.620001 0 0 0.640001 0 0 0.660001 0 0 0.680001 0 0 0.700001 0 0 0.720001 0 0 0.740001 0 0 0.760001 0 0 0.780001 0 0 0.800001 0 0 0.820001 0 0 0.840001 0 0 0.860001 0 0 0.880001 0 0 0.900001 0 0 0.920001 0 0 0.940001 0 0 0.960001 0 0 0.980001 0 0 1 0 0 9.99507e-07 3.14108e-08 0 0.188774 0.00593247 0 0.21335 0.00670478 0 0.238557 0.00749695 0 0.257081 0.00807909 0 0.273005 0.00857953 0 0.285963 0.00898675 0 0.296602 0.00932111 0 0.306933 0.00964576 0 0.315867 0.00992653 0 0.323411 0.0101636 0 0.33039 0.0103829 0 0.33668 0.0105806 0 0.342419 0.0107609 0 0.347575 0.010923 0 0.352103 0.0110653 0 0.356002 0.0111878 0 0.360098 0.0113165 0 0.366829 0.0115281 0 0.380454 0.0119562 0 0.399807 0.0125645 0 0.419794 0.0131926 0 0.439784 0.0138208 0 0.459774 0.014449 0 0.479764 0.0150772 0 0.499754 0.0157054 0 0.519744 0.0163336 0 0.539735 0.0169618 0 0.559725 0.0175901 0 0.579715 0.0182183 0 0.599705 0.0188465 0 0.619695 0.0194747 0 0.639685 0.0201029 0 0.659675 0.0207311 0 0.679665 0.0213593 0 0.699656 0.0219876 0 0.719646 0.0226158 0 0.739636 0.023244 0 0.759626 0.0238722 0 0.779616 0.0245004 0 0.799606 0.0251286 0 0.819596 0.0257569 0 0.839587 0.0263851 0 0.859577 0.0270133 0 0.879567 0.0276415 0 0.899557 0.0282697 0 0.919547 0.0288979 0 0.939537 0.0295261 0 0.959527 0.0301544 0 0.979517 0.0307826 0 0.999508 0.0314108 0 9.98027e-07 6.27905e-08 0 0.188495 0.0118591 0 0.213034 0.0134029 0 0.238204 0.0149865 0 0.2567 0.0161502 0 0.272601 0.0171506 0 0.28554 0.0179646 0 0.296163 0.018633 0 0.306478 0.019282 0 0.3154 0.0198433 0 0.322932 0.0203172 0 0.329901 0.0207556 0 0.336181 0.0211507 0 0.341912 0.0215113 0 0.347061 0.0218352 0 0.351582 0.0221196 0 0.355475 0.0223646 0 0.359565 0.0226219 0 0.366286 0.0230448 0 0.37989 0.0239007 0 0.399216 0.0251165 0 0.419172 0.0263721 0 0.439133 0.0276279 0 0.459093 0.0288837 0 0.479054 0.0301395 0 0.499014 0.0313953 0 0.518975 0.0326511 0 0.538935 0.0339069 0 0.558896 0.0351628 0 0.578857 0.0364186 0 0.598817 0.0376744 0 0.618778 0.0389302 0 0.638738 0.040186 0 0.658699 0.0414418 0 0.678659 0.0426976 0 0.69862 0.0439534 0 0.71858 0.0452092 0 0.738541 0.046465 0 0.758501 0.0477209 0 0.778462 0.0489767 0 0.798422 0.0502325 0 0.818383 0.0514883 0 0.838343 0.0527441 0 0.858304 0.0539999 0 0.878265 0.0552557 0 0.898225 0.0565115 0 0.918186 0.0577673 0 0.938146 0.0590232 0 0.958107 0.060279 0 0.978067 0.0615348 0 0.998028 0.0627906 0 9.95562e-07 9.41083e-08 0 0.188029 0.017774 0 0.212508 0.0200879 0 0.237615 0.0224613 0 0.256066 0.0242054 0 0.271928 0.0257047 0 0.284834 0.0269248 0 0.295432 0.0279265 0 0.305722 0.0288992 0 0.314621 0.0297404 0 0.322135 0.0304507 0 0.329086 0.0311078 0 0.335351 0.0317 0 0.341067 0.0322404 0 0.346204 0.0327259 0 0.350713 0.0331522 0 0.354597 0.0335193 0 0.358677 0.0339049 0 0.365381 0.0345387 0 0.378952 0.0358215 0 0.39823 0.0376438 0 0.418137 0.0395256 0 0.438048 0.0414078 0 0.457959 0.0432899 0 0.477871 0.0451721 0 0.497782 0.0470543 0 0.517693 0.0489364 0 0.537604 0.0508186 0 0.557516 0.0527007 0 0.577427 0.0545829 0 0.597338 0.0564651 0 0.617249 0.0583472 0 0.637161 0.0602294 0 0.657072 0.0621116 0 0.676983 0.0639937 0 0.696894 0.0658759 0 0.716806 0.0677581 0 0.736717 0.0696402 0 0.756628 0.0715224 0 0.776539 0.0734046 0 0.796451 0.0752867 0 0.816362 0.0771689 0 0.836273 0.0790511 0 0.856184 0.0809332 0 0.876096 0.0828154 0 0.896007 0.0846976 0 0.915918 0.0865797 0 0.935829 0.0884619 0 0.95574 0.0903441 0 0.975652 0.0922262 0 0.995563 0.0941084 0 9.92115e-07 1.25333e-07 0 0.187378 0.0236714 0 0.211772 0.026753 0 0.236793 0.0299139 0 0.25518 0.0322367 0 0.270986 0.0342335 0 0.283848 0.0358584 0 0.294409 0.0371925 0 0.304663 0.0384879 0 0.313531 0.0396082 0 0.321019 0.0405542 0 0.327947 0.0414293 0 0.33419 0.042218 0 0.339886 0.0429376 0 0.345005 0.0435842 0 0.349499 0.044152 0 0.353369 0.0446409 0 0.357435 0.0451545 0 0.364116 0.0459986 0 0.37764 0.047707 0 0.396851 0.0501339 0 0.416689 0.0526401 0 0.436531 0.0551467 0 0.456374 0.0576534 0 0.476216 0.0601601 0 0.496058 0.0626667 0 0.515901 0.0651734 0 0.535743 0.0676801 0 0.555585 0.0701867 0 0.575428 0.0726934 0 0.59527 0.0752001 0 0.615112 0.0777067 0 0.634954 0.0802134 0 0.654797 0.0827201 0 0.674639 0.0852267 0 0.694481 0.0877334 0 0.714324 0.0902401 0 0.734166 0.0927467 0 0.754008 0.0952534 0 0.77385 0.09776 0 0.793693 0.100267 0 0.813535 0.102773 0 0.833377 0.10528 0 0.85322 0.107787 0 0.873062 0.110293 0 0.892904 0.1128 0 0.912747 0.115307 0 0.932589 0.117813 0 0.952431 0.12032 0 0.972273 0.122827 0 0.992116 0.125333 0 9.87688e-07 1.56434e-07 0 0.186542 0.0295454 0 0.210827 0.0333917 0 0.235736 0.0373369 0 0.254041 0.0402361 0 0.269777 0.0427285 0 0.282582 0.0447566 0 0.293095 0.0464217 0 0.303304 0.0480386 0 0.312133 0.049437 0 0.319587 0.0506176 0 0.326484 0.0517099 0 0.332699 0.0526943 0 0.33837 0.0535925 0 0.343466 0.0543996 0 0.34794 0.0551082 0 0.351793 0.0557185 0 0.35584 0.0563595 0 0.362492 0.057413 0 0.375955 0.0595454 0 0.39508 0.0625745 0 0.41483 0.0657026 0 0.434584 0.0688313 0 0.454338 0.07196 0 0.474091 0.0750887 0 0.493845 0.0782174 0 0.513599 0.0813461 0 0.533353 0.0844748 0 0.553106 0.0876035 0 0.57286 0.0907321 0 0.592614 0.0938608 0 0.612368 0.0969895 0 0.632122 0.100118 0 0.651875 0.103247 0 0.671629 0.106376 0 0.691383 0.109504 0 0.711137 0.112633 0 0.73089 0.115762 0 0.750644 0.11889 0 0.770398 0.122019 0 0.790152 0.125148 0 0.809905 0.128276 0 0.829659 0.131405 0 0.849413 0.134534 0 0.869167 0.137662 0 0.88892 0.140791 0 0.908674 0.14392 0 0.928428 0.147049 0 0.948182 0.150177 0 0.967936 0.153306 0 0.987689 0.156435 0 9.82287e-07 1.87381e-07 0 0.185522 0.0353903 0 0.209674 0.0399975 0 0.234447 0.0447232 0 0.252652 0.0481959 0 0.268302 0.0511813 0 0.281037 0.0536106 0 0.291493 0.0556052 0 0.301645 0.0575419 0 0.310426 0.0592169 0 0.317839 0.0606311 0 0.324698 0.0619395 0 0.330879 0.0631186 0 0.33652 0.0641946 0 0.341587 0.0651613 0 0.346037 0.0660101 0 0.349869 0.0667411 0 0.353894 0.0675089 0 0.360509 0.0687708 0 0.373899 0.0713251 0 0.39292 0.0749534 0 0.412562 0.0787003 0 0.432207 0.082448 0 0.451853 0.0861956 0 0.471499 0.0899432 0 0.491145 0.0936908 0 0.51079 0.0974385 0 0.530436 0.101186 0 0.550082 0.104934 0 0.569728 0.108681 0 0.589373 0.112429 0 0.609019 0.116177 0 0.628665 0.119924 0 0.648311 0.123672 0 0.667956 0.127419 0 0.687602 0.131167 0 0.707248 0.134915 0 0.726894 0.138662 0 0.746539 0.14241 0 0.766185 0.146158 0 0.785831 0.149905 0 0.805477 0.153653 0 0.825122 0.1574 0 0.844768 0.161148 0 0.864414 0.164896 0 0.88406 0.168643 0 0.903705 0.172391 0 0.923351 0.176139 0 0.942997 0.179886 0 0.962642 0.183634 0 0.982288 0.187382 0 9.75917e-07 2.18143e-07 0 0.184319 0.0412002 0 0.208314 0.0465637 0 0.232926 0.0520652 0 0.251013 0.0561081 0 0.266562 0.0595836 0 0.279214 0.0624117 0 0.289602 0.0647338 0 0.299689 0.0669884 0 0.308413 0.0689384 0 0.315778 0.0705848 0 0.322593 0.072108 0 0.328734 0.0734806 0 0.334337 0.0747332 0 0.339372 0.0758586 0 0.343793 0.0768468 0 0.3476 0.0776978 0 0.351599 0.0785917 0 0.358171 0.0800608 0 0.371474 0.0830344 0 0.390371 0.0872584 0 0.409886 0.0916204 0 0.429404 0.0959832 0 0.448923 0.100346 0 0.468441 0.104709 0 0.487959 0.109072 0 0.507478 0.113435 0 0.526996 0.117798 0 0.546514 0.12216 0 0.566033 0.126523 0 0.585551 0.130886 0 0.605069 0.135249 0 0.624588 0.139612 0 0.644106 0.143975 0 0.663624 0.148338 0 0.683143 0.1527 0 0.702661 0.157063 0 0.722179 0.161426 0 0.741698 0.165789 0 0.761216 0.170152 0 0.780734 0.174515 0 0.800253 0.178878 0 0.819771 0.183241 0 0.839289 0.187603 0 0.858808 0.191966 0 0.878326 0.196329 0 0.897844 0.200692 0 0.917363 0.205055 0 0.936881 0.209418 0 0.956399 0.213781 0 0.975918 0.218143 0 9.68583e-07 2.4869e-07 0 0.182934 0.0469695 0 0.206749 0.0530841 0 0.231176 0.0593559 0 0.249127 0.0639649 0 0.264559 0.0679271 0 0.277116 0.0711512 0 0.287426 0.0737984 0 0.297437 0.0763688 0 0.306095 0.0785918 0 0.313405 0.0804688 0 0.320168 0.0822053 0 0.326263 0.0837702 0 0.331825 0.0851981 0 0.336822 0.0864811 0 0.341209 0.0876077 0 0.344988 0.0885778 0 0.348957 0.0895969 0 0.35548 0.0912717 0 0.368683 0.0946617 0 0.387438 0.0994772 0 0.406806 0.10445 0 0.426178 0.109424 0 0.445549 0.114398 0 0.464921 0.119371 0 0.484293 0.124345 0 0.503664 0.129319 0 0.523036 0.134293 0 0.542408 0.139267 0 0.561779 0.14424 0 0.581151 0.149214 0 0.600523 0.154188 0 0.619894 0.159162 0 0.639266 0.164136 0 0.658638 0.169109 0 0.678009 0.174083 0 0.697381 0.179057 0 0.716753 0.184031 0 0.736124 0.189005 0 0.755496 0.193978 0 0.774867 0.198952 0 0.794239 0.203926 0 0.813611 0.2089 0 0.832982 0.213874 0 0.852354 0.218847 0 0.871726 0.223821 0 0.891097 0.228795 0 0.910469 0.233769 0 0.929841 0.238743 0 0.949212 0.243716 0 0.968584 0.24869 0 9.60294e-07 2.78991e-07 0 0.181368 0.0526924 0 0.204979 0.059552 0 0.229198 0.0665881 0 0.246995 0.0717587 0 0.262294 0.0762036 0 0.274744 0.0798205 0 0.284966 0.0827903 0 0.294891 0.0856738 0 0.303475 0.0881677 0 0.310723 0.0902733 0 0.317428 0.0922214 0 0.323471 0.093977 0 0.328985 0.095579 0 0.333939 0.0970183 0 0.338289 0.0982821 0 0.342035 0.0993704 0 0.34597 0.100514 0 0.352437 0.102393 0 0.365528 0.106196 0 0.384122 0.111598 0 0.403324 0.117177 0 0.42253 0.122756 0 0.441736 0.128336 0 0.460942 0.133916 0 0.480148 0.139496 0 0.499354 0.145076 0 0.51856 0.150655 0 0.537765 0.156235 0 0.556971 0.161815 0 0.576177 0.167395 0 0.595383 0.172975 0 0.614589 0.178555 0 0.633795 0.184134 0 0.653001 0.189714 0 0.672207 
[...]
			<PointData Scalars="VitesseX">
				<DataArray Name="VitesseX" type="Float32" format="ascii">
 0 1.30598 1.41099 1.68731 1.87655 1.94161 2.19731 2.23392 2.23375 2.50472 2.44327 2.56139 2.53955 2.6662 2.75754 2.83953 2.93939 2.73659 1.94191 0.402259 0.00479249 3.63454e-07 3.29014e-12 2.64101e-17 0 0 0 0 0 0 0 0 0 0 0 0 0 0 0 0 0 0 0 0 0 0 0 0 0 0 0 0 1.30533 1.41029 1.68648 1.87563 1.94065 2.19622 2.23282 2.23265 2.50349 2.44207 2.56013 2.5383 2.66489 2.75618 2.83813 2.93794 2.73524 1.94096 0.402061 0.00479013 3.63275e-07 3.28851e-12 2.61667e-17 1.37623e-22 0 0 0 0 0 0 0 0 0 1.94291e-22 0 -1.83497e-22 0 0 0 1.65148e-22 1.6112e-22 -1.57283e-22 -1.53626e-22 0 0 1.43607e-22 -1.40551e-22 0 2.69629e-22 0 0 1.3034 1.4082 1.68399 1.87285 1.93778 2.19297 2.22951 2.22935 2.49978 2.43845 2.55634 2.53454 2.66094 2.75209 2.83393 2.93359 2.73119 1.93808 0.401465 0.00478304 3.62737e-07 3.28364e-12 1.92691e-17 2.75246e-22 0 0 0 -2.35925e-22 0 0 0 0 0 0 -1.8874e-22 0 0 0 0 0 0 -1.57283e-22 0 0 0 1.43607e-22 -2.81102e-22 0 0 0 0 1.30018 1.40473 1.67983 1.86823 1.93299 2.18756 2.224 2.22384 2.49361 2.43243 2.55002 2.52828 2.65437 2.7453 2.82693 2.92634 2.72444 1.9333 0.400474 0.00477122 3.61841e-07 3.27554e-12 9.35635e-18 0 -1.32118e-22 0 2.44663e-22 0 2.2779e-22 0 0 0 0 1.94291e-22 0 1.83497e-22 0 0 0 0 0 0 0 0 2.93596e-22 1.43607e-22 -1.40551e-22 0 0 0 0 1.29568 1.39986 1.67401 1.86176 1.9263 2.17998 2.2163 2.21614 2.48497 2.42401 2.54119 2.51953 2.64518 2.73579 2.81714 2.91621 2.71501 1.9266 0.399087 0.0047547 3.60588e-07 3.26421e-12 7.83161e-18 -1.37623e-22 -1.32118e-22 0 -1.22331e-22 0 0 0 0 0 0 0 0 0 0 1.7384e-22 0 0 0 0 0 -1.50134e-22 1.46798e-22 -2.87213e-22 0 -1.37623e-22 -1.34814e-22 0 0 1.2899 1.39362 1.66654 1.85345 1.91771 2.17026 2.20642 2.20625 2.47388 2.41319 2.52985 2.50829 2.63338 2.72359 2.80457 2.9032 2.7029 1.91801 0.397307 0.00473349 3.58979e-07 3.24964e-12 9.06005e-18 -1.37623e-22 0 1.27037e-22 -1.22331e-22 0 2.2779e-22 2.20197e-22 0 0 2.00179e-22 -1.94291e-22 -1.8874e-22 0 -1.78538e-22 -1.7384e-22 0 1.65148e-22 0 -1.57283e-22 0 0 1.46798e-22 0 2.81102e-22 -1.37623e-22 0 0 0 1.28284 1.386 1.65743 1.84332 1.90722 2.15839 2.19435 2.19419 2.46036 2.39999 2.51602 2.49457 2.61898 2.70869 2.78924 2.88732 2.68812 1.90752 0.395134 0.00470761 3.57016e-07 3.23186e-12 -1.18629e-17 1.37623e-22 1.32118e-22 0 1.22331e-22 -1.17963e-22 -1.13895e-22 0 -2.13094e-22 0 0 1.94291e-22 0 0 0 1.7384e-22 0 0 0 1.57283e-22 0 -1.50134e-22 -1.46798e-22 0 2.81102e-22 -1.37623e-22 1.34814e-22 0 0 1.27452 1.37701 1.64668 1.83136 1.89485 2.14439 2.18012 2.17996 2.4444 2.38443 2.4997 2.47839 2.60199 2.69113 2.77115 2.8686 2.67068 1.89515 0.392571 0.00467707 3.54701e-07 3.21091e-12 -1.61924e-17 0 -1.32118e-22 -1.27037e-22 -1.22331e-22 0 1.13895e-22 1.10098e-22 0 0 -2.00179e-22 0 -1.8874e-22 0 0 0 -1.69382e-22 0 0 -1.57283e-22 1.53626e-22 0 -1.46798e-22 -1.43607e-22 -1.40551e-22 0 0 0 0 1.26495 1.36666 1.6343 1.8176 1.88061 2.12828 2.16374 2.16358 2.42603 2.36651 2.48092 2.45977 2.58244 2.6709 2.75033 2.84704 2.65061 1.88091 0.389621 0.00464193 3.52036e-07 3.18678e-12 -1.58898e-17 0 -1.32118e-22 1.27037e-22 1.22331e-22 -1.17963e-22 -1.13895e-22 -1.10098e-22 0 1.03217e-22 0 0 0 0 1.78538e-22 0 0 0 0 0 1.53626e-22 3.00268e-22 -1.46798e-22 0 0 0 1.34814e-22 0 0 1.25412 1.35496 1.62032 1.80204 1.86452 2.11006 2.14522 2.14506 2.40527 2.34626 2.45969 2.43872 2.56034 2.64804 2.72679 2.82267 2.62793 1.86481 0.386287 0.0046022 3.49023e-07 3.15951e-12 7.00485e-18 1.37623e-22 1.32118e-22 -1.27037e-22 1.22331e-22 1.17963e-22 1.13895e-22 0 -1.06547e-22 1.03217e-22 0 -1.94291e-22 0 0 1.78538e-22 -1.7384e-22 0 0 0 -3.14567e-22 -3.07251e-22 3.00268e-22 1.46798e-22 1.43607e-22 0 0 1.34814e-22 0 0 1.24206 1.34193 1.60473 1.78471 1.84658 2.08976 2.12458 2.12443 2.38213 2.32369 2.43603 2.41526 2.53571 2.62257 2.70056 2.79552 2.60265 1.84687 0.382571 0.00455793 3.45665e-07 3.12908e-12 1.73703e-17 0 0 -1.27037e-22 0 0 0 1.10098e-22 -2.13094e-22 1.03217e-22 -1.00089e-22 0 0 0 0 0 1.69382e-22 -1.65148e-22 3.22239e-22 1.57283e-22 0 0 0 -1.43607e-22 -1.40551e-22 -1.37623e-22 1.34814e-22 0 0 1.22877 1.32757 1.58756 1.76561 1.82683 2.06741 2.10185 2.1017 2.35664 2.29883 2.40996 2.38941 2.50858 2.59451 2.67166 2.76561 2.5748 1.82711 0.378478 0.00450916 3.41967e-07 3.0956e-12 8.69677e-18 1.37623e-22 -1.32118e-22 -1.27037e-22 0 -1.17963e-22 -2.2779e-22 1.10098e-22 -1.06547e-22 1.03217e-22 0 9.71456e-23 0 0 -1.78538e-22 1.7384e-22 1.69382e-22 -1.65148e-22 -1.6112e-22 -1.57283e-22 0 -1.50134e-22 1.46798e-22 1.43607e-22 -1.40551e-22 -1.37623e-22 2.69629e-22 0 0 1.21427 1.3119 1.56883 1.74478 1.80526 2.04301 2.07704 2.07689 2.32883 2.2717 2.38152 2.36122 2.47897 2.56389 2.64013 2.73297 2.54442 1.80555 0.374011 0.00445595 3.37931e-07 3.05908e-12 -7.4725e-18 0 -6.6059e-23 -1.27037e-22 1.22331e-22 0 0 1.10098e-22 0 0 0 -1.94291e-22 -9.43701e-23 -9.17487e-23 -8.9269e-23 1.7384e-22 -1.69382e-22 0 -1.6112e-22 0 1.53626e-22 -1.50134e-22 -1.46798e-22 -1.43607e-22 -1.40551e-22 -1.37623e-22 0 0 0 1.19857 1.29494 1.54854 1.72222 1.78192 2.01659 2.05019 2.05004 2.29872 2.24232 2.35073 2.33068 2.44692 2.53074 2.606 2.69764 2.51152 1.7822 0.369175 0.00439833 3.33562e-07 3.0195e-12 -2.29173e-18 1.37623e-22 -2.64236e-22 -6.35183e-23 0 1.17963e-22 0 -2.20197e-22 -1.06547e-22 -2.06434e-22 -2.00179e-22 0 1.8874e-22 9.17487e-23 -8.9269e-23 0 1.69382e-22 1.65148e-22 0 0 0 0 2.93596e-22 0 1.40551e-22 0 -1.34814e-22 0 0 1.18168 1.2767 1.52673 1.69796 1.75682 1.98818 2.02131 2.02116 2.26634 2.21074 2.31761 2.29785 2.41245 2.49509 2.56929 2.65964 2.47614 1.7571 0.363975 0.00433638 3.28863e-07 2.97696e-12 -2.72817e-17 0 0 -1.27037e-22 2.44663e-22 1.17963e-22 2.2779e-22 2.20197e-22 -1.06547e-22 2.06434e-22 -1.00089e-22 -9.71456e-23 9.43701e-23 9.17487e-23 8.9269e-23 -8.69198e-23 -8.46911e-23 0 0 1.57283e-22 0 0 0 -1.43607e-22 0 1.37623e-22 -1.34814e-22 0 0 1.16363 1.2572 1.50341 1.67202 1.72999 1.95782 1.99044 1.99029 2.23172 2.17697 2.28221 2.26276 2.3756 2.45698 2.53004 2.61901 2.43832 1.73026 0.358415 0.00427014 3.2384e-07 2.93151e-12 -1.42214e-17 1.37623e-22 6.6059e-23 -6.35183e-23 -1.83497e-22 5.89813e-23 -1.70842e-22 1.10098e-22 -1.06547e-22 1.03217e-22 1.00089e-22 0 -2.8311e-22 0 0 0 0 -1.65148e-22 -8.05598e-23 0 1.53626e-22 0 0 1.43607e-22 0 1.37623e-22 1.34814e-22 0 0 1.14444 1.23646 1.47861 1.64444 1.70145 1.92552 1.9576 1.95745 2.1949 2.14106 2.24456 2.22543 2.33641 2.41645 2.4883 2.5758 2.39809 1.70171 0.352502 0.00419969 3.18497e-07 2.88314e-12 -3.89113e-17 -1.37623e-22 6.6059e-23 1.27037e-22 1.22331e-22 0 0 -1.10098e-22 -2.13094e-22 -1.03217e-22 -2.00179e-22 9.71456e-23 0 9.17487e-23 1.78538e-22 2.60759e-22 1.69382e-22 8.25738e-23 1.6112e-22 -1.57283e-22 -1.53626e-22 7.50671e-23 -1.46798e-22 -1.43607e-22 0 0 -1.34814e-22 0 0 1.12411 1.2145 1.45234 1.61523 1.67123 1.89132 1.92283 1.92269 2.15592 2.10303 2.2047 2.1859 2.29491 2.37353 2.44411 2.53005 2.3555 1.67149 0.346241 0.0041251 3.1284e-07 2.83198e-12 -2.31162e-17 -3.44057e-23 -9.90885e-23 -1.27037e-22 -1.83497e-22 -2.35925e-22 1.70842e-22 -5.50492e-23 1.5982e-22 1.54826e-22 1.00089e-22 9.71456e-23 0 -1.83497e-22 -1.78538e-22 0 -8.46911e-23 -8.25738e-23 2.41679e-22 7.86417e-23 0 0 0 1.43607e-22 1.40551e-22 1.37623e-22 -1.34814e-22 0 0 1.10267 1.19134 1.42465 1.58443 1.63936 1.85525 1.88616 1.88602 2.11481 2.06292 2.16265 2.14421 2.25115 2.32826 2.3975 2.48181 2.31058 1.63961 0.339639 0.00404644 3.06874e-07 2.7779e-12 -1.36254e-18 1.03217e-22 2.64236e-22 -1.58796e-22 0 -5.89813e-23 1.70842e-22 0 -2.13094e-22 5.16086e-23 -2.00179e-22 9.71456e-23 0 1.83497e-22 2.67807e-22 -2.60759e-22 2.54073e-22 -2.47721e-22 1.6112e-22 -2.35925e-22 1.53626e-22 0 -1.46798e-22 -7.18033e-23 -7.02756e-23 0 -1.34814e-22 0 0 1.08015 1.167 1.39555 1.55206 1.60587 1.81735 1.84763 1.8475 2.07161 2.02078 2.11848 2.10041 2.20516 2.2807 2.34852 2.43111 2.26338 1.60612 0.332701 0.00396378 3.00606e-07 2.7211e-12 -9.7873e-18 -2.23637e-22 -1.32118e-22 -1.27037e-22 -9.17486e-23 1.47453e-22 -5.69474e-23 -5.50492e-23 1.5982e-22 2.06434e-22 -3.00268e-22 4.85728e-23 4.7185e-23 0 -2.67807e-22 -8.69198e-23 -8.46911e-23 -8.25738e-23 1.6112e-22 -3.93209e-22 1.53626e-22 1.50134e-22 -1.46798e-22 7.18033e-23 -1.40551e-22 1.37623e-22 -1.34814e-22 0 0 1.05656 1.14151 1.36507 1.51816 1.5708 1.77766 1.80728 1.80715 2.02636 1.97665 2.07221 2.05454 2.157 2.23089 2.29723 2.37801 2.21395 1.57104 0.325434 0.00387721 2.94041e-07 2.66171e-12 -9.92102e-18 -4.30072e-23 -3.30295e-23 -1.58796e-23 1.83497e-22 -1.76944e-22 1.42369e-22 1.37623e-22 1.5982e-22 -1.03217e-22 2.00179e-22 -9.71456e-23 9.43701e-23 2.29372e-22 -8.9269e-23 -8.69198e-23 -8.46911e-23 8.25738e-23 3.22239e-22 0 -7.68129e-23 1.50134e-22 7.3399e-23 -1.43607e-22 -1.40551e-22 0 0 0 0 1.03192 1.1149 1.33324 1.48277 1.53417 1.73621 1.76514 1.76501 1.97912 1.93056 2.02389 2.00664 2.10671 2.17888 2.24367 2.32257 2.16233 1.53441 0.317847 0.00378681 2.87185e-07 2.59971e-12 -9.6901e-18 1.48375e-22 1.32118e-22 0 -1.22331e-22 5.89813e-23 -5.69474e-23 1.10098e-22 -2.66367e-22 0 1.00089e-22 4.85728e-23 0 4.58743e-23 4.46345e-23 -4.34599e-23 8.46911e-23 -1.65148e-22 -2.41679e-22 3.14567e-22 0 -2.25201e-22 0 0 -7.02756e-23 -1.37623e-22 -1.34814e-22 0 0 1.00627 1.08719 1.3001 1.44591 1.49604 1.69306 1.72126 1.72114 1.92992 1.88257 1.97358 1.95676 2.05434 2.12472 2.1879 2.26484 2.10858 1.49627 0.309946 0.00369268 2.80046e-07 2.53509e-12 -1.95241e-17 8.60143e-23 -5.78016e-23 5.07092e-24 6.11657e-23 -1.17963e-22 1.13895e-22 -2.75246e-23 1.5982e-22 -7.74129e-23 -2.50224e-23 0 -1.41555e-22 4.58743e-23 1.33903e-22 -3.47679e-22 2.11728e-22 8.25738e-23 0 -1.57283e-22 7.68129e-23 1.50134e-22 2.20197e-22 -7.18033e-23 2.10827e-22 2.06435e-22 -6.74072e-23 0 0 0.979628 1.0584 1.26567 1.40762 1.45642 1.64823 1.67569 1.67556 1.87882 1.83273 1.92133 1.90495 1.99995 2.06846 2.12997 2.20487 2.05275 1.45665 0.301739 0.0035949 2.72631e-07 2.46793e-12 -2.84574e-17 -3.44057e-23 -1.65147e-23 -1.19097e-22 1.56737e-22 -7.00402e-23 1.3525e-22 -1.23861e-22 1.73139e-22 -2.58043e-23 1.00089e-22 0 2.12333e-22 9.17487e-23 8.9269e-23 -1.3038e-22 1.27037e-22 4.12869e-23 2.81959e-22 3.93209e-23 -1.53626e-22 -7.50671e-23 0 -2.1541e-22 -7.02756e-23 0 -6.74072e-23 0 0 0.952016 1.02857 1.23 1.36795 1.41537 1.60177 1.62846 1.62834 1.82586 1.78107 1.86717 1.85125 1.94358 2.01016 2.06993 2.14272 1.99489 1.41559 0.293234 0.00349358 2.64947e-07 2.39835e-12 -2.67399e-17 0 0 -4.76387e-23 1.37623e-22 -1.54826e-22 2.31349e-23 2.06434e-23 -3.32959e-23 -2.58043e-23 1.25112e-22 -1.21432e-22 -1.65148e-22 1.14686e-22 -6.69517e-23 -8.69198e-23 -8.46911e-23 -1.65148e-22 0 7.86417e-23 7.68129e-23 -7.50671e-23 0 0 -7.02756e-23 6.88115e-23 6.74072e-23 0 0 0.923465 0.99772 1.19311 1.32692 1.37293 1.55373 1.57962 1.5795 1.77111 1.72765 1.81118 1.79573 1.88529 1.94987 2.00785 2.07846 1.93506 1.37314 0.28444 0.0033888 2.57001e-07 2.3265e-12 1.50497e-17 3.44057e-23 1.32118e-22 -2.54073e-22 2.1408e-22 8.84719e-23 1.85079e-22 -1.7891e-22 -1.49831e-23 -2.90298e-22 -5.00447e-23 -1.09289e-22 -1.65148e-22 -6.88115e-23 8.9269e-23 -1.9557e-22 -2.11728e-23 -2.89008e-22 -1.2084e-22 1.17963e-22 7.68129e-23 -7.50671e-23 0 7.18033e-23 -3.51378e-23 -6.88115e-23 1.34814e-22 0 0 0.894003 0.965888 1.15505 1.28459 1.32912 1.50416 1.52922 1.52911 1.7146 1.67253 1.75339 1.73844 1.82514 1.88766 1.94379 2.01215 1.87332 1.32933 0.275365 0.00328069 2.48801e-07 2.25224e-12 8.398e-18 -6.88115e-23 -2.31206e-22 9.52774e-23 -3.05829e-23 2.65416e-22 2.84737e-22 1.51385e-22 9.32285e-23 2.58043e-22 3.44057e-23 -1.66969e-22 2.18231e-22 -2.06435e-22 1.11586e-23 1.3038e-22 -8.46911e-23 1.23861e-22 8.05598e-23 3.93209e-23 -7.68129e-23 3.75336e-23 1.83497e-22 0 1.75689e-22 -2.06435e-22 1.68518e-22 0 0 0.863658 0.933104 1.11584 1.24099 1.28401 1.45311 1.47732 1.47721 1.6564 1.61576 1.69388 1.67944 1.76319 1.82359 1.87782 1.94385 1.80974 1.28421 0.266019 0.00316933 2.40357e-07 2.17577e-12 8.11246e-18 6.88115e-23 6.6059e-23 -1.27037e-22 6.11657e-23 -1.17963e-22 -1.42369e-22 -2.75246e-23 1.33184e-22 -2.32239e-22 2.25201e-22 3.0358e-23 -5.30832e-23 -1.29022e-22 4.46345e-23 4.34599e-23 2.11728e-22 -3.71582e-22 -1.007e-22 -9.83022e-23 2.11235e-22 -1.87668e-23 0 7.18033e-23 1.40551e-22 -2.75246e-22 2.69629e-22 0 0 0.832461 0.899398 1.07553 1.19616 1.23763 1.40062 1.42395 1.42385 1.59657 1.5574 1.63269 1.61877 1.6995 1.75772 1.80999 1.87364 1.74437 1.23782 0.25641 0.00305485 2.31674e-07 2.09717e-12 -3.36826e-17 2.06434e-22 6.6059e-23 3.8111e-22 -1.22331e-22 5.89813e-23 -2.84737e-23 -2.20197e-22 1.5982e-22 1.03217e-22 2.50224e-22 1.33575e-22 -7.07775e-23 -3.44058e-22 1.95276e-23 1.83346e-23 -7.41047e-23 1.85791e-22 4.02799e-22 -1.57283e-22 -4.8008e-22 7.50671e-23 -9.17487e-23 -1.61557e-22 7.02756e-23 -1.37623e-22 0 0 0 0.800442 0.864805 1.03417 1.15015 1.19003 1.34675 1.36918 1.36908 1.53516 1.4975 1.56989 1.55651 1.63413 1.69011 1.74037 1.80157 1.67727 1.19021 0.246547 0.00293735 2.22764e-07 2.01653e-12 -1.77095e-18 2.06434e-22 -2.64236e-22 -1.90555e-22 -1.83497e-22 -1.17963e-22 1.13895e-22 -1.10098e-22 -5.32734e-23 -1.54826e-22 1.50134e-22 1.45718e-22 4.7185e-23 4.58743e-23 -5.57931e-23 -2.17299e-22 2.91126e-22 3.93516e-23 1.23357e-22 2.01519e-22 1.05618e-22 1.87668e-22 -2.56896e-22 -1.25656e-22 1.75689e-23 3.44058e-23 1.68518e-22 0 0 0.767634 0.829358 0.991779 1.10301 1.14125 1.29155 1.31306 1.31297 1.47224 1.43612 1.50555 1.49271 1.56715 1.62084 1.66904 1.72773 1.60853 1.14143 0.236442 0.00281696 2.13633e-07 1.93387e-12 1.35782e-17 1.37623e-22 1.98177e-22 6.35183e-23 0 -1.17963e-22 0 -3.30295e-22 -2.66367e-22 -1.03217e-22 -1.50134e-22 -1.21432e-22 9.43701e-23 4.58743e-23 4.46345e-23 3.47679e-22 -2.22314e-22 1.23861e-22 1.56085e-22 2.70331e-23 1.11619e-22 -9.38339e-24 2.33959e-22 -1.07705e-22 1.93258e-22 8.60144e-23 -1.68518e-22 0 0 0.734068 0.793093 0.948412 1.05478 1.09135 1.23507 1.25565 1.25556 1.40786 1.37332 1.43971 1.42744 1.49863 1.54997 1.59606 1.65218 1.53819 1.09152 0.226103 0.00269378 2.04292e-07 1.84924e-12 -3.49189e-18 0 -1.32118e-22 2.54073e-22 0 -5.89813e-23 5.69474e-23 5.50492e-23 1.5982e-22 -5.16086e-23 5.00447e-23 -9.71456e-23 -9.43701e-23 -2.98183e-22 -1.33903e-22 -6.51898e-23 -1.69382e-22 -1.85791e-22 -3.02099e-23 -2.75246e-22 3.26455e-22 -1.54826e-22 -2.06435e-23 4.37552e-23 1.66905e-22 2.83848e-22 1.26389e-22 0 0 0.699777 0.756046 0.904108 1.00551 1.04037 1.17738 1.19699 1.19691 1.3421 1.30917 1.37246 1.36076 1.42862 1.47756 1.5215 1.575 1.46634 1.04053 0.215541 0.00256795 1.94748e-07 1.76293e-12 1.2629e-21 2.75246e-22 0 2.54073e-22 -2.44663e-22 1.76944e-22 5.69474e-23 2.75246e-22 5.32734e-23 0 -1.00089e-22 0 2.8311e-22 -1.37623e-22 -1.33903e-22 4.34599e-23 -4.23455e-23 -1.23861e-22 -1.007e-22 2.35925e-22 -1.53626e-22 -6.56837e-23 -6.42241e-23 1.61557e-22 1.01021e-22 -1.72029e-22 -1.65095e-22 0 0 0.664796 0.718252 0.858913 0.955244 0.988361 1.11852 1.13716 1.13707 1.27501 1.24373 1.30385 1.29274 1.35721 1.4037 1.44544 1.49627 1.39304 0.988515 0.204766 0.00243958 1.85013e-07 1.67478e-12 -5.15417e-17 0 -1.32118e-22 1.27037e-22 -1.22331e-22 -1.17963e-22 0 0 0 -1.03217e-22 -5.00447e-23 -1.94291e-22 9.43701e-23 -1.37623e-22 -1.33903e-22 -8.69198e-23 1.27037e-22 4.12869e-23 -2.41679e-22 -3.53888e-22 -1.72829e-22 -7.50671e-23 -1.28448e-22 -1.79508e-22 1.40551e-22 9.46158e-23 -9.26849e-23 0 0 0.629159 0.679749 0.81287 0.904037 0.935379 1.05856 1.0762 1.07612 1.20666 1.17706 1.23396 1.22344 1.28445 1.32845 1.36796 1.41606 1.31836 0.935524 0.19379 0.0023088 1.75095e-07 1.58506e-12 1.17071e-17 0 3.96354e-22 -2.54073e-22 1.22331e-22 -1.17963e-22 -2.2779e-22 0 0 0 0 0 -9.43701e-23 0 0 0 0 0 -4.02799e-23 1.96604e-22 -1.15219e-22 -1.12601e-22 -1.10098e-22 -1.07705e-22 -1.22982e-22 8.60144e-23 -1.8537e-22 0 0 0.592901 0.640576 0.766025 0.851938 0.881473 0.997557 1.01418 1.0141 1.13712 1.10922 1.16285 1.15293 1.21043 1.2519 1.28912 1.33445 1.24239 0.881611 0.182622 0.00217575 1.65005e-07 1.49365e-12 -5.42413e-18 1.37623e-22 2.64236e-22 2.54073e-22 1.22331e-22 1.17963e-22 0 0 0 1.03217e-22 2.00179e-22 1.94291e-22 -9.43701e-23 -2.29372e-22 -1.78538e-22 -8.69198e-23 -8.46911e-23 -8.25738e-23 -2.014e-22 -7.86417e-23 -1.92032e-22 3.75336e-23 1.83497e-22 3.59017e-23 -3.51378e-23 8.60144e-23 0 0 0 0.556058 0.60077 0.718424 0.798998 0.826698 0.935569 0.951156 0.951086 1.06646 1.04029 1.09059 1.08129 1.13521 1.1741 1.20901 1.25153 1.16518 0.826827 0.171274 0.00204054 1.54751e-07 1.40084e-12 -5.61525e-17 0 2.64236e-22 -1.27037e-22 0 1.17963e-22 2.2779e-22 -2.20197e-22 -2.13094e-22 1.03217e-22 2.00179e-22 1.94291e-22 0 -9.17487e-23 1.78538e-22 -1.7384e-22 -2.54073e-22 -2.47721e-22 -1.2084e-22 -1.17963e-22 -2.68845e-22 -1.50134e-22 2.20197e-22 1.43607e-22 -3.1624e-22 -3.09652e-22 3.37036e-23 0 0 0.518666 0.560371 0.670114 0.74527 0.771107 0.872656 0.887196 0.887131 0.994745 0.97034 1.01725 1.00858 1.05888 1.09515 1.12772 1.16737 1.08683 0.771227 0.159756 0.00190333 1.44345e-07 1.30674e-12 5.15994e-17 1.37623e-22 2.64236e-22 0 -1.22331e-22 -1.17963e-22 0 3.30295e-22 1.06547e-22 0 1.00089e-22 0 0 0 1.78538e-22 1.7384e-22 1.69382e-22 1.65148e-22 0 0 1.53626e-22 0 3.66995e-23 2.51312e-22 1.05413e-22 -1.03217e-22 -6.74072e-23 0 0 0.480762 0.51942 0.621142 0.690806 0.714755 0.808883 0.82236 0.8223 0.92205 0.899428 0.94291 0.934871 0.981494 1.01512 1.0453 1.08206 1.00741 0.714866 0.148081 0.00176423 1.33796e-07 1.21116e-12 -3.11121e-17 -1.37623e-22 -1.32118e-22 1.27037e-22 0 -1.17963e-22 0 -1.10098e-22 0 -2.06434e-22 -1.00089e-22 -9.71456e-23 -1.8874e-22 -9.17487e-23 0 2.60759e-22 -8.46911e-23 8.25738e-23 2.41679e-22 -7.86417e-23 0 -7.50671e-23 -7.3399e-23 7.18033e-23 7.02756e-23 -6.88115e-23 -1.34814e-22 0 0 0.442384 0.477955 0.571558 0.63566 0.657697 0.744312 0.756713 0.756657 0.848444 0.827629 0.86764 0.860242 0.903144 0.934082 0.961858 0.995682 0.926987 0.6578 0.13626 0.0016234 1.23116e-07 1.11453e-12 5.13525e-17 -1.37623e-22 0 2.54073e-22 2.44663e-22 -1.17963e-22 -2.2779e-22 -1.10098e-22 0 3.09652e-22 3.00268e-22 0 -1.8874e-22 -9.17487e-23 -8.9269e-23 2.60759e-22 -1.69382e-22 -8.25738e-23 -8.05598e-23 -1.57283e-22 0 0 0 1.43607e-22 1.40551e-22 -1.37623e-22 -2.02222e-22 0 0 0.403569 0.43602 0.521409 0.579887 0.599991 0.679006 0.690319 0.690268 0.774002 0.755012 0.791513 0.784765 0.823902 0.852125 0.877464 0.908321 0.845653 0.600085 0.124305 0.00148096 1.12314e-07 1.01665e-12 -1.93425e-17 0 1.32118e-22 1.27037e-22 0 -1.17963e-22 1.13895e-22 3.30295e-22 1.06547e-22 -2.06434e-22 -2.00179e-22 1.94291e-22 -2.8311e-22 -3.66995e-22 -1.78538e-22 -8.69198e-23 1.69382e-22 2.47721e-22 -1.6112e-22 1.57283e-22 -7.68129e-23 2.25201e-22 -1.46798e-22 -1.43607e-22 1.40551e-22 1.37623e-22 -2.69629e-22 0 0 0.364356 0.393653 0.470746 0.523542 0.541692 0.61303 0.623243 0.623198 0.698795 0.681651 0.714605 0.708512 0.743847 0.769328 0.792205 0.820063 0.763484 0.541777 0.112227 0.00133706 1.014e-07 9.17933e-13 -3.14558e-18 -1.37623e-22 2.64236e-22 0 2.44663e-22 -3.53888e-22 1.13895e-22 -3.30295e-22 2.13094e-22 2.06434e-22 -3.00268e-22 9.71456e-23 1.8874e-22 1.83497e-22 1.78538e-22 8.69198e-23 -1.69382e-22 1.65148e-22 0 0 1.53626e-22 1.50134e-22 1.46798e-22 -2.1541e-22 7.02756e-23 1.37623e-22 0 0 0 0.324783 0.350899 0.419618 0.46668 0.482859 0.546448 0.555553 0.555512 0.622899 0.607617 0.636992 0.631561 0.663058 0.685771 0.706163 0.730996 0.680562 0.482934 0.100038 0.00119184 9.03874e-08 8.18175e-13 -9.56655e-18 2.75246e-22 -2.64236e-22 -2.54073e-22 4.89326e-22 1.17963e-22 2.2779e-22 3.30295e-22 -2.13094e-22 -1.03217e-22 -1.00089e-22 -1.94291e-22 9.43701e-23 -9.17487e-23 -1.78538e-22 -8.69198e-23 -8.46911e-23 -8.25738e-23 -1.6112e-22 -7.86417e-23 -1.53626e-22 -1.50134e-22 0 -7.18033e-23 1.40551e-22 -6.88115e-23 6.74072e-23 0 0 0.28489 0.307798 0.368076 0.409358 0.423549 0.479328 0.487314 0.487278 0.546388 0.532983 0.55875 0.553986 0.581614 0.601538 0.619425 0.641207 0.596968 0.423615 0.0877501 0.00104545 7.92851e-08 7.17729e-13 -7.37157e-18 2.75246e-22 2.64236e-22 5.08146e-22 0 -2.35925e-22 -2.2779e-22 0 0 1.03217e-22 1.00089e-22 3.88583e-22 -9.43701e-23 -1.83497e-22 8.9269e-23 0 -8.4