<?xml version="1.0"?>
<VTKFile type="PolyData">
	<PolyData>
		<Piece NumberOfPoints="2601" NumberOfPolys="2500">
			<Points>
				<DataArray type="Float32" NumberOfComponents="3" format="ascii">
 1e-06 0 0 0.257174 0 0 0.291225 0 0 0.325657 0 0 0.351865 0 0 0.374363 0 0 0.392993 0 0 0.409161 0 0 0.424313 0 0 0.437812 0 0 0.450033 0 0 0.460905 0 0 0.4709 0 0 0.480236 0 0 0.489055 0 0 0.497081 0 0 0.504136 0 0 0.510852 0 0 0.517258 0 0 0.523284 0 0 0.52884 0 0 0.533827 0 0 0.538538 0 0 0.543038 0 0 0.547209 0 0 0.551229 0 0 0.555104 0 0 0.559937 0 0 0.567681 0 0 0.581122 0 0 0.60002 0 0 0.620001 0 0 0.640001 0 0 0.660001 0 0 0.680001 0 0 0.700001 0 0 0.720001 0 0 0.740001 0 0 0.760001 0 0 0.780001 0 0 0.800001 0 0 0.820001 0 0 0.840001 0 0 0.860001 0 0 0.880001 0 0 0.900001 0 0 0.920001 0 0 0.940001 0 0 0.960001 0 0 0.980001 0 0 1 0 0 9.99507e-07 3.14108e-08 0 0.257047 0.00807803 0 0.291081 0.0091476 0 0.325496 0.0102291 0 0.351691 0.0110523 0 0.374179 0.011759 0 0.392799 0.0123442 0 0.408959 0.0128521 0 0.424104 0.013328 0 0.437596 0.013752 0 0.449811 0.0141359 0 0.460678 0.0144774 0 0.470668 0.0147913 0 0.479999 0.0150846 0 0.488813 0.0153616 0 0.496836 0.0156137 0 0.503887 0.0158353 0 0.5106 0.0160462 0 0.517003 0.0162475 0 0.523026 0.0164367 0 0.528579 0.0166113 0 0.533564 0.0167679 0 0.538273 0.0169159 0 0.54277 0.0170572 0 0.546939 0.0171882 0 0.550957 0.0173145 0 0.55483 0.0174362 0 0.559661 0.0175881 0 0.5674 0.0178313 0 0.580835 0.0182535 0 0.599724 0.0188471 0 0.619695 0.0194747 0 0.639685 0.0201029 0 0.659675 0.0207311 0 0.679665 0.0213593 0 0.699656 0.0219876 0 0.719646 0.0226158 0 0.739636 0.023244 0 0.759626 0.0238722 0 0.779616 0.0245004 0 0.799606 0.0251286 0 0.819596 0.0257569 0 0.839587 0.0263851 0 0.859577 0.0270133 0 0.879567 0.0276415 0 0.899557 0.0282697 0 0.919547 0.0288979 0 0.939537 0.0295261 0 0.959527 0.0301544 0 0.979517 0.0307826 0 0.999508 0.0314108 0 9.98027e-07 6.27905e-08 0 0.256667 0.0161481 0 0.29065 0.0182862 0 0.325015 0.0204482 0 0.351171 0.0220938 0 0.373625 0.0235065 0 0.392218 0.0246762 0 0.408353 0.0256914 0 0.423476 0.0266428 0 0.436948 0.0274904 0 0.449145 0.0282578 0 0.459996 0.0289405 0 0.469971 0.0295681 0 0.479289 0.0301543 0 0.48809 0.030708 0 0.4961 0.031212 0 0.503141 0.0316549 0 0.509844 0.0320767 0 0.516238 0.0324789 0 0.522251 0.0328573 0 0.527797 0.0332061 0 0.532774 0.0335193 0 0.537476 0.0338151 0 0.541967 0.0340977 0 0.546129 0.0343595 0 0.550142 0.034612 0 0.554009 0.0348553 0 0.558832 0.0351587 0 0.56656 0.035645 0 0.579975 0.0364889 0 0.598836 0.0376756 0 0.618778 0.0389302 0 0.638738 0.040186 0 0.658699 0.0414418 0 0.678659 0.0426976 0 0.69862 0.0439534 0 0.71858 0.0452092 0 0.738541 0.046465 0 0.758501 0.0477209 0 0.778462 0.0489767 0 0.798422 0.0502325 0 0.818383 0.0514883 0 0.838343 0.0527441 0 0.858304 0.0539999 0 0.878265 0.0552557 0 0.898225 0.0565115 0 0.918186 0.0577673 0 0.938146 0.0590232 0 0.958107 0.060279 0 0.978067 0.0615348 0 0.998028 0.0627906 0 9.95562e-07 9.41083e-08 0 0.256033 0.0242022 0 0.289933 0.0274067 0 0.324212 0.030647 0 0.350303 0.0331134 0 0.372702 0.0352307 0 0.391249 0.0369839 0 0.407345 0.0385054 0 0.42243 0.0399314 0 0.435869 0.0412018 0 0.448036 0.0423518 0 0.45886 0.043375 0 0.46881 0.0443156 0 0.478105 0.0451942 0 0.486884 0.0460241 0 0.494875 0.0467795 0 0.501898 0.0474434 0 0.508585 0.0480754 0 0.514963 0.0486783 0 0.520961 0.0492454 0 0.526493 0.0497682 0 0.531458 0.0502376 0 0.536148 0.0506809 0 0.540628 0.0511044 0 0.54478 0.0514969 0 0.548783 0.0518753 0 0.552641 0.0522399 0 0.557452 0.0526947 0 0.565161 0.0534235 0 0.578543 0.0546884 0 0.597357 0.0564669 0 0.617249 0.0583472 0 0.637161 0.0602294 0 0.657072 0.0621116 0 0.676983 0.0639937 0 0.696894 0.0658759 0 0.716806 0.0677581 0 0.736717 0.0696402 0 0.756628 0.0715224 0 0.776539 0.0734046 0 0.796451 0.0752867 0 0.816362 0.0771689 0 0.836273 0.0790511 0 0.856184 0.0809332 0 0.876096 0.0828154 0 0.896007 0.0846976 0 0.915918 0.0865797 0 0.935829 0.0884619 0 0.95574 0.0903441 0 0.975652 0.0922262 0 0.995563 0.0941084 0 9.92115e-07 1.25333e-07 0 0.255146 0.0322324 0 0.288929 0.0365002 0 0.323089 0.0408157 0 0.34909 0.0441004 0 0.371411 0.0469202 0 0.389894 0.0492551 0 0.405934 0.0512814 0 0.420967 0.0531805 0 0.43436 0.0548724 0 0.446484 0.0564041 0 0.457271 0.0577668 0 0.467187 0.0590194 0 0.47645 0.0601896 0 0.485198 0.0612948 0 0.493162 0.0623008 0 0.500161 0.063185 0 0.506824 0.0640267 0 0.51318 0.0648297 0 0.519158 0.0655849 0 0.52467 0.0662812 0 0.529618 0.0669063 0 0.534292 0.0674967 0 0.538756 0.0680608 0 0.542894 0.0685834 0 0.546883 0.0690873 0 0.550727 0.069573 0 0.555522 0.0701787 0 0.563204 0.0711492 0 0.576539 0.0728339 0 0.595289 0.0752024 0 0.615112 0.0777067 0 0.634954 0.0802134 0 0.654797 0.0827201 0 0.674639 0.0852267 0 0.694481 0.0877334 0 0.714324 0.0902401 0 0.734166 0.0927467 0 0.754008 0.0952534 0 0.77385 0.09776 0 0.793693 0.100267 0 0.813535 0.102773 0 0.833377 0.10528 0 0.85322 0.107787 0 0.873062 0.110293 0 0.892904 0.1128 0 0.912747 0.115307 0 0.932589 0.117813 0 0.952431 0.12032 0 0.972273 0.122827 0 0.992116 0.125333 0 9.87688e-07 1.56434e-07 0 0.254008 0.0402309 0 0.28764 0.0455576 0 0.321648 0.050944 0 0.347533 0.0550438 0 0.369754 0.0585633 0 0.388155 0.0614777 0 0.404123 0.0640069 0 0.419089 0.0663772 0 0.432422 0.0684889 0 0.444492 0.0704006 0 0.455231 0.0721015 0 0.465103 0.073665 0 0.474324 0.0751255 0 0.483034 0.076505 0 0.490961 0.0777606 0 0.497929 0.0788642 0 0.504562 0.0799148 0 0.51089 0.080917 0 0.516841 0.0818596 0 0.522329 0.0827288 0 0.527255 0.083509 0 0.531908 0.084246 0 0.536353 0.0849499 0 0.540472 0.0856023 0 0.544443 0.0862312 0 0.54827 0.0868374 0 0.553043 0.0875935 0 0.560691 0.0888048 0 0.573967 0.0909075 0 0.592633 0.0938638 0 0.612368 0.0969895 0 0.632122 0.100118 0 0.651875 0.103247 0 0.671629 0.106376 0 0.691383 0.109504 0 0.711137 0.112633 0 0.73089 0.115762 0 0.750644 0.11889 0 0.770398 0.122019 0 0.790152 0.125148 0 0.809905 0.128276 0 0.829659 0.131405 0 0.849413 0.134534 0 0.869167 0.137662 0 0.88892 0.140791 0 0.908674 0.14392 0 0.928428 0.147049 0 0.948182 0.150177 0 0.967936 0.153306 0 0.987689 0.156435 0 9.82287e-07 1.87381e-07 0 0.252619 0.0481896 0 0.286067 0.0545701 0 0.319889 0.0610221 0 0.345632 0.0659329 0 0.367732 0.0701487 0 0.386032 0.0736396 0 0.401913 0.0766691 0 0.416797 0.0795083 0 0.430057 0.0820378 0 0.442061 0.0843277 0 0.452742 0.0863651 0 0.462559 0.0882379 0 0.47173 0.0899873 0 0.480392 0.0916397 0 0.488277 0.0931437 0 0.495206 0.0944656 0 0.501803 0.0957241 0 0.508096 0.0969245 0 0.514015 0.0980536 0 0.519473 0.0990947 0 0.524372 0.100029 0 0.528999 0.100912 0 0.53342 0.101755 0 0.537516 0.102537 0 0.541465 0.10329 0 0.545272 0.104016 0 0.550019 0.104922 0 0.557625 0.106373 0 0.570828 0.108891 0 0.589392 0.112433 0 0.609019 0.116177 0 0.628665 0.119924 0 0.648311 0.123672 0 0.667956 0.127419 0 0.687602 0.131167 0 0.707248 0.134915 0 0.726894 0.138662 0 0.746539 0.14241 0 0.766185 0.146158 0 0.785831 0.149905 0 0.805477 0.153653 0 0.825122 0.1574 0 0.844768 0.161148 0 0.864414 0.164896 0 0.88406 0.168643 0 0.903705 0.172391 0 0.923351 0.176139 0 0.942997 0.179886 0 0.962642 0.183634 0 0.982288 0.187382 0 9.75917e-07 2.18143e-07 0 0.25098 0.0561008 0 0.284211 0.0635288 0 0.317814 0.0710399 0 0.343391 0.076757 0 0.365347 0.0816648 0 0.383529 0.0857288 0 0.399307 0.0892557 0 0.414094 0.092561 0 0.427268 0.0955057 0 0.439195 0.0981716 0 0.449805 0.100543 0 0.459559 0.102724 0 0.468671 0.10476 0 0.477277 0.106684 0 0.48511 0.108435 0 0.491995 0.109974 0 0.498549 0.111439 0 0.504801 0.112836 0 0.510681 0.114151 0 0.516104 0.115363 0 0.520971 0.116451 0 0.525569 0.117478 0 0.52996 0.11846 0 0.53403 0.11937 0 0.537954 0.120247 0 0.541735 0.121092 0 0.546452 0.122147 0 0.554009 0.123836 0 0.567126 0.126768 0 0.58557 0.13089 0 0.605069 0.135249 0 0.624588 0.139612 0 0.644106 0.143975 0 0.663624 0.148338 0 0.683143 0.1527 0 0.702661 0.157063 0 0.722179 0.161426 0 0.741698 0.165789 0 0.761216 0.170152 0 0.780734 0.174515 0 0.800253 0.178878 0 0.819771 0.183241 0 0.839289 0.187603 0 0.858808 0.191966 0 0.878326 0.196329 0 0.897844 0.200692 0 0.917363 0.205055 0 0.936881 0.209418 0 0.956399 0.213781 0 0.975918 0.218143 0 9.68583e-07 2.4869e-07 0 0.249094 0.0639566 0 0.282076 0.0724247 0 0.315426 0.0809876 0 0.34081 0.0875053 0 0.362602 0.0931004 0 0.380647 0.0977334 0 0.396306 0.101754 0 0.410982 0.105522 0 0.424057 0.108879 0 0.435894 0.111919 0 0.446425 0.114623 0 0.456106 0.117108 0 0.465149 0.11943 0 0.47369 0.121623 0 0.481465 0.123619 0 0.488297 0.125373 0 0.494803 0.127044 0 0.501008 0.128637 0 0.506844 0.130135 0 0.512226 0.131517 0 0.517056 0.132757 0 0.521619 0.133929 0 0.525978 0.135048 0 0.530017 0.136085 0 0.533911 0.137085 0 0.537664 0.138049 0 0.542346 0.139251 0 0.549846 0.141176 0 0.562865 0.144519 0 0.581169 0.149219 0 0.600523 0.154188 0 0.619894 0.159162 0 0.639266 0.164136 0 0.658638 0.169109 0 0.678009 0.174083 0 0.697381 0.179057 0 0.716753 0.184031 0 0.736124 0.189005 0 0.755496 0.193978 0 0.774867 0.198952 0 0.794239 0.203926 0 0.813611 0.2089 0 0.832982 0.213874 0 0.852354 0.218847 0 0.871726 0.223821 0 0.891097 0.228795 0 0.910469 0.233769 0 0.929841 0.238743 0 0.949212 0.243716 0 0.968584 0.24869 0 9.60294e-07 2.78991e-07 0 0.246963 0.0717493 0 0.279662 0.0812492 0 0.312727 0.0908555 0 0.337894 0.0981672 0 0.359499 0.104444 0 0.377389 0.109642 0 0.392915 0.114152 0 0.407465 0.11838 0 0.420428 0.122146 0 0.432164 0.125555 0 0.442605 0.128589 0 0.452202 0.131377 0 0.461168 0.133982 0 0.469636 0.136442 0 0.477344 0.138681 0 0.484118 0.140649 0 0.490568 0.142523 0 0.49672 0.14431 0 0.502506 0.145992 0 0.507842 0.147542 0 0.512631 0.148933 0 0.517155 0.150247 0 0.521476 0.151503 0 0.525481 0.152666 0 0.529342 0.153788 0 0.533063 0.154869 0 0.537704 0.156218 0 0.54514 0.158378 0 0.558047 0.162128 0 0.576195 0.1674 0 0.595383 0.172975 0 0.614589 0.178555 0 0.633795 0.184134 0 0.653001 0.189714 0 0.672207 0.195294 0 0.691412 0.200874 0 0.710618 0.206454 0 0.729824 0.21
[...]
			<PointData Scalars="VitesseX">
				<DataArray Name="VitesseX" type="Float32" format="ascii">
 0 0.750435 0.838932 0.953738 1.0253 1.08594 1.18183 1.19288 1.28631 1.33239 1.35582 1.43233 1.47265 1.49647 1.48374 1.59138 1.59976 1.64274 1.63087 1.68825 1.75115 1.77448 1.80937 1.81326 1.838 1.8733 1.8407 1.64513 1.15494 0.359408 0.0122949 6.32537e-06 1.2581e-10 2.43935e-15 0 0 0 0 0 0 0 0 0 0 0 0 0 0 0 0 0 0 0.750064 0.838518 0.953268 1.0248 1.0854 1.18124 1.19229 1.28567 1.33173 1.35515 1.43163 1.47192 1.49574 1.483 1.59059 1.59897 1.64193 1.63007 1.68742 1.75028 1.77361 1.80848 1.81237 1.8371 1.87238 1.8398 1.64431 1.15437 0.359231 0.0122888 6.32225e-06 1.25748e-10 2.432e-15 4.67842e-22 0 -4.41851e-22 0 0 0 3.97666e-22 3.87966e-22 -3.78729e-22 -3.69921e-22 0 0 3.45796e-22 -3.38439e-22 0 6.4925e-22 0 0 0.748954 0.837277 0.951856 1.02328 1.08379 1.1795 1.19052 1.28377 1.32976 1.35314 1.42951 1.46975 1.49352 1.48081 1.58824 1.5966 1.6395 1.62765 1.68492 1.74769 1.77098 1.8058 1.80968 1.83438 1.86961 1.83707 1.64188 1.15266 0.358699 0.0122706 6.31289e-06 1.25562e-10 2.42465e-15 0 -4.54475e-22 0 0 0 0 0 0 -3.78729e-22 0 0 0 3.45796e-22 -6.76878e-22 0 0 0 0 0.747104 0.835209 0.949506 1.02075 1.08112 1.17658 1.18758 1.2806 1.32648 1.3498 1.42598 1.46612 1.48983 1.47715 1.58431 1.59266 1.63545 1.62364 1.68076 1.74338 1.76661 1.80134 1.80522 1.82985 1.86499 1.83254 1.63783 1.14981 0.357813 0.0122403 6.2973e-06 1.25252e-10 2.40814e-15 4.67842e-22 0 4.41851e-22 0 0 0 0 0 0 0 0 7.06961e-22 3.45796e-22 -3.38439e-22 0 0 0 0 0.744517 0.832317 0.946218 1.01722 1.07737 1.17251 1.18347 1.27616 1.32189 1.34513 1.42104 1.46104 1.48467 1.47204 1.57883 1.58714 1.62978 1.61801 1.67494 1.73734 1.76049 1.7951 1.79896 1.82351 1.85853 1.82619 1.63215 1.14583 0.356574 0.0121979 6.27549e-06 1.24818e-10 2.35828e-15 0 0 0 0 4.18595e-22 0 0 0 0 0 -3.61514e-22 3.53481e-22 -6.91592e-22 0 -3.31388e-22 -3.24625e-22 0 0 0.741196 0.828603 0.941996 1.01268 1.07257 1.16728 1.17819 1.27047 1.31599 1.33913 1.4147 1.45452 1.47805 1.46547 1.57178 1.58006 1.62251 1.61079 1.66747 1.72959 1.75264 1.78709 1.79094 1.81537 1.85024 1.81804 1.62487 1.14072 0.354983 0.0121435 6.24749e-06 1.24261e-10 2.27426e-15 -4.67842e-22 -4.54475e-22 0 -4.29909e-22 -4.18595e-22 0 3.97666e-22 0 -3.78729e-22 0 0 3.53481e-22 0 6.76878e-22 -3.31388e-22 0 0 0 0.737142 0.824072 0.936845 1.00714 1.0667 1.16089 1.17175 1.26352 1.30879 1.3318 1.40696 1.44657 1.46997 1.45746 1.56319 1.57142 1.61364 1.60199 1.65835 1.72013 1.74305 1.77732 1.78114 1.80545 1.84012 1.8081 1.61599 1.13448 0.353042 0.0120771 6.21333e-06 1.23582e-10 2.29073e-15 4.67842e-22 0 0 0 4.18595e-22 0 0 0 3.78729e-22 0 -3.61514e-22 -3.53481e-22 0 6.76878e-22 -3.31388e-22 3.24625e-22 0 0 0.732362 0.818728 0.930769 1.00061 1.05978 1.15336 1.16415 1.25533 1.3003 1.32316 1.39784 1.43719 1.46043 1.448 1.55305 1.56123 1.60317 1.5916 1.6476 1.70897 1.73175 1.7658 1.76959 1.79374 1.82819 1.79637 1.60551 1.12712 0.350753 0.0119988 6.17303e-06 1.2278e-10 2.30263e-15 0 -4.54475e-22 0 0 0 -4.07862e-22 0 0 -3.78729e-22 3.69921e-22 0 -3.53481e-22 -3.45796e-22 -3.38439e-22 0 0 0 0 0.726858 0.812575 0.923775 0.993093 1.05182 1.1447 1.1554 1.24589 1.29053 1.31322 1.38733 1.42639 1.44946 1.43712 1.54138 1.5495 1.59113 1.57964 1.63521 1.69613 1.71873 1.75253 1.7563 1.78026 1.81445 1.78288 1.59344 1.11865 0.348117 0.0119086 6.12665e-06 1.21857e-10 2.26148e-15 0 0 0 4.29909e-22 0 0 0 0 0 3.69921e-22 7.23028e-22 -3.53481e-22 0 0 0 3.24625e-22 0 0 0.720638 0.805621 0.915869 0.984593 1.04282 1.1349 1.14551 1.23523 1.27949 1.30198 1.37546 1.41418 1.43705 1.42482 1.52819 1.53624 1.57751 1.56612 1.62122 1.68162 1.70402 1.73753 1.74126 1.76502 1.79892 1.76762 1.5798 1.10908 0.345138 0.0118067 6.07421e-06 1.20815e-10 2.22223e-15 -4.67842e-22 0 0 4.29909e-22 -4.18595e-22 0 0 0 -7.57458e-22 -7.39843e-22 7.23028e-22 3.53481e-22 3.45796e-22 0 0 3.24625e-22 0 0 0.713706 0.797872 0.907059 0.975123 1.03279 1.12398 1.13449 1.22335 1.26718 1.28946 1.36223 1.40057 1.42323 1.41112 1.51349 1.52146 1.56234 1.55105 1.60562 1.66544 1.68763 1.72081 1.72452 1.74804 1.78162 1.75061 1.56461 1.09841 0.341818 0.0116931 6.01578e-06 1.19652e-10 2.18108e-15 0 0 0 0 0 4.07862e-22 -3.97666e-22 7.75933e-22 3.78729e-22 0 0 0 -3.45796e-22 -3.38439e-22 -3.31388e-22 3.24625e-22 0 0 0.706069 0.789335 0.897354 0.964689 1.02174 1.11196 1.12236 1.21026 1.25362 1.27566 1.34765 1.38559 1.408 1.39602 1.4973 1.50518 1.54562 1.53446 1.58845 1.64762 1.66958 1.7024 1.70606 1.72934 1.76255 1.73188 1.54787 1.08666 0.33816 0.011568 5.95142e-06 1.18372e-10 2.15756e-15 2.33921e-22 0 0 -4.29909e-22 4.18595e-22 4.07862e-22 -3.97666e-22 -3.87966e-22 -3.78729e-22 0 -3.61514e-22 3.53481e-22 3.45796e-22 -3.38439e-22 -3.31388e-22 6.4925e-22 0 0 0.697736 0.780019 0.886763 0.953304 1.00968 1.09884 1.10911 1.19598 1.23883 1.26061 1.33175 1.36924 1.39139 1.37954 1.47962 1.48742 1.52738 1.51635 1.5697 1.62818 1.64987 1.68231 1.68593 1.70893 1.74175 1.71144 1.5296 1.07383 0.334169 0.0114315 5.88118e-06 1.16975e-10 2.12231e-15 -4.67842e-22 -2.27237e-22 -2.20925e-22 -2.14954e-22 4.18595e-22 -4.07862e-22 0 -3.87966e-22 0 3.69921e-22 -3.61514e-22 -3.53481e-22 -3.45796e-22 -3.38439e-22 -3.31388e-22 0 0 0 0.688715 0.769934 0.875298 0.940978 0.996624 1.08463 1.09477 1.18051 1.22281 1.24431 1.31453 1.35153 1.3734 1.36171 1.46049 1.46818 1.50763 1.49674 1.5494 1.60712 1.62854 1.66056 1.66413 1.68684 1.71923 1.68931 1.50982 1.05995 0.329849 0.0112837 5.80514e-06 1.15463e-10 2.01018e-15 0 4.54475e-22 2.20925e-22 -2.14954e-22 0 4.07862e-22 3.97666e-22 0 0 0 0 7.06961e-22 0 3.38439e-22 0 -3.24625e-22 0 0 0.679014 0.759088 0.862968 0.927723 0.982586 1.06935 1.07935 1.16388 1.20558 1.22678 1.29601 1.3325 1.35405 1.34252 1.43992 1.4475 1.48639 1.47566 1.52758 1.58449 1.6056 1.63717 1.64069 1.66307 1.69502 1.66552 1.48855 1.04502 0.325202 0.0111247 5.72337e-06 1.13836e-10 2.08231e-15 -2.33921e-22 2.27237e-22 2.20925e-22 2.14954e-22 -2.09298e-22 -2.03931e-22 0 0 3.78729e-22 0 0 0 -3.45796e-22 0 3.31388e-22 -3.24625e-22 0 0 0.668642 0.747494 0.849787 0.913553 0.967577 1.05302 1.06286 1.14611 1.18717 1.20804 1.27622 1.31214 1.33337 1.32202 1.41793 1.42539 1.46369 1.45312 1.50425 1.56028 1.58108 1.61216 1.61563 1.63767 1.66913 1.64008 1.46582 1.02906 0.320235 0.0109548 5.63595e-06 1.12097e-10 2.07375e-15 0 -6.81712e-22 0 0 0 0 -3.97666e-22 -1.93983e-22 0 3.69921e-22 0 0 3.45796e-22 0 3.31388e-22 3.24625e-22 0 0 0.657611 0.735162 0.835767 0.898481 0.951614 1.03564 1.04533 1.1272 1.16758 1.18811 1.25516 1.29049 1.31137 1.30021 1.39453 1.40188 1.43954 1.42915 1.47943 1.53454 1.55499 1.58556 1.58897 1.61065 1.64159 1.61302 1.44164 1.01208 0.314952 0.0107741 5.54296e-06 1.10248e-10 2.03034e-15 2.33921e-22 0 2.20925e-22 4.29909e-22 6.27893e-22 4.07862e-22 1.98833e-22 3.87966e-22 -3.78729e-22 -3.69921e-22 1.80757e-22 -3.53481e-22 -3.45796e-22 0 0 -3.24625e-22 0 0 0.645931 0.722104 0.820923 0.882523 0.934712 1.01725 1.02676 1.10718 1.14685 1.16701 1.23287 1.26757 1.28808 1.27711 1.36977 1.37698 1.41397 1.40376 1.45315 1.50729 1.52737 1.5574 1.56075 1.58205 1.61243 1.58437 1.41603 0.994104 0.309358 0.0105827 5.44451e-06 1.0829e-10 1.89864e-15 2.33921e-22 0 -4.41851e-22 -4.29909e-22 0 -2.03931e-22 -1.98833e-22 5.8195e-22 1.89365e-22 0 0 0 3.45796e-22 3.38439e-22 3.31388e-22 -3.24625e-22 0 0 0.633613 0.708334 0.805268 0.865693 0.916887 0.99785 1.00718 1.08606 1.12498 1.14475 1.20936 1.2434 1.26352 1.25276 1.34364 1.35072 1.38701 1.37699 1.42544 1.47854 1.49825 1.5277 1.53099 1.55188 1.58168 1.55416 1.38903 0.975147 0.303459 0.0103809 5.34069e-06 1.06225e-10 1.80858e-15 2.33921e-22 0 4.41851e-22 6.44863e-22 -6.27893e-22 6.11793e-22 -5.96498e-22 3.87966e-22 -5.68094e-22 3.69921e-22 0 -3.53481e-22 -1.72898e-22 -1.69219e-22 0 -3.24625e-22 0 0 0.62067 0.693864 0.788818 0.848009 0.898158 0.977466 0.986606 1.06388 1.102 1.12137 1.18465 1.218 1.2377 1.22717 1.3162 1.32313 1.35868 1.34886 1.39632 1.44834 1.46764 1.4965 1.49971 1.52018 1.54937 1.52241 1.36065 0.955227 0.29726 0.0101688 5.23159e-06 1.04055e-10 1.73733e-15 1.1696e-22 1.13619e-22 0 -6.44863e-22 -2.09298e-22 -2.03931e-22 -1.98833e-22 3.87966e-22 -9.46823e-22 3.69921e-22 3.61514e-22 -3.53481e-22 1.72898e-22 -3.38439e-22 3.31388e-22 -3.24625e-22 0 0 0.607114 0.67871 0.77159 0.829489 0.878542 0.956118 0.965059 1.04064 1.07793 1.09688 1.15878 1.1914 1.21067 1.20037 1.28745 1.29423 1.329 1.3194 1.36583 1.41671 1.43559 1.46381 1.46696 1.48698 1.51553 1.48916 1.33094 0.934365 0.290767 0.00994675 5.11733e-06 1.01783e-10 1.66578e-15 -2.33921e-22 2.27237e-22 5.52313e-22 -2.14954e-22 -2.09298e-22 -2.03931e-22 1.98833e-22 7.75933e-22 0 -1.84961e-22 3.61514e-22 1.7674e-22 -3.45796e-22 -3.38439e-22 0 0 0 0 0.59296 0.662886 0.753601 0.81015 0.858059 0.933827 0.942559 1.01638 1.0528 1.07131 1.13176 1.16362 1.18245 1.17238 1.25743 1.26406 1.29802 1.28864 1.33398 1.38368 1.40212 1.42968 1.43276 1.45231 1.4802 1.45444 1.2999 0.91258 0.283988 0.00971484 4.99802e-06 9.94095e-11 1.77532e-15 1.1696e-22 0 1.10463e-22 1.07477e-22 -1.04649e-22 2.03931e-22 -3.97666e-22 -5.8195e-22 7.57458e-22 0 -5.42271e-22 0 0 -1.69219e-22 -3.31388e-22 -3.24625e-22 0 0 0.57822 0.646408 0.734868 0.790011 0.836729 0.910613 0.919128 0.991115 1.02663 1.04468 1.10363 1.1347 1.15305 1.14324 1.22618 1.23263 1.26575 1.25661 1.30082 1.34928 1.36726 1.39414 1.39714 1.41621 1.4434 1.41829 1.26759 0.889895 0.276929 0.00947335 4.87378e-06 9.69383e-11 1.68396e-15 0 -3.40856e-22 1.10463e-22 3.22431e-22 -8.37191e-22 5.09828e-22 1.98833e-22 0 -3.78729e-22 1.84961e-22 3.61514e-22 5.30221e-22 -1.72898e-22 5.07658e-22 4.97082e-22 -1.62312e-22 0 0 0.562909 0.629292 0.71541 0.769092 0.814574 0.886502 0.894791 0.964872 0.999442 1.01701 1.07441 1.10465 1.12252 1.11297 1.19371 1.2 1.23224 1.22334 1.26638 1.31356 1.33106 1.35723 1.36015 1.37871 1.40519 1.38073 1.23403 0.866332 0.269596 0.00922251 4.74473e-06 9.43715e-11 1.77122e-15 0 5.11284e-22 2.20925e-22 2.14954e-22 -3.13946e-22 3.05897e-22 9.94164e-23 6.78941e-22 9.46823e-23 -3.69921e-22 -1.80757e-22 0 -5.18694e-22 -1.69219e-22 0 -1.62312e-22 0 0 0.547043 0.611555 0.695245 0.747415 0.791614 0.861515 0.869571 0.937676 0.971272 0.988348 1.04413 1.07352 1.09088 1.0816 1.16006 1.16617 1.1975 1.18886 1.23068 1.27653 1.29354 1.31897 1.32181 1.33985 1.36558 1.34182 1.19925 0.841914 0.261997 0.00896256 4.611e-06 9.17114e-11 1.62128e-15 -2.92401e-22 -3.97665e-22 2.76157e-22 -1.61216e-22 -2.09298e-22 -2.03931e-22 -3.97666e-22 0 1.89365e-22 1.84961e-22 -1.80757e-22 0 0 -1.69219e-22 1.65694e-22 1.62312e-22 0 0 0.530637 0.593215 0.674395 0.725 0.767874 0.835678 0.843492 0.909555 0.942143 0.958708 1.01281 1.04132 1.05817 1.04916 1.12527 1.1312 1.16159 1.1532 1.19378 1.23825 1.25475 1.27942 1.28217 1.29966 1.32463 1.30157 1.16328 0.816665 0.25414 0.00869378 4.47271e-06 8.89611e-11 1.5524e-15 -2.63161e-22 -3.97665e-22 -1.65694e-22 2.14954e-22 -4.7092e-22 -5.09828e-23 -6.95915e-22 -2.90975e-22 2.84047e-22 1.84961e-22 -1.80757e-22 0 1.72898e-22 -8.46097e-23 -1.65694e-22 3.24625e-22 0 0 0.513708 0.574289 0.652879 0.701869 0.743375 0.809016 0.816581 0.880536 0.912085 0.928121 0.980499 1.0081 1.02441 1.01569 1.08937 1.09511 1.12453 1.11641 1.15569 1.19874 1.21472 1.2386 1.24126 1.2582 1.28236 1.26005 1.12617 0.79061 0.246032 0.00841641 4.33001e-06 8.61228e-11 1.5725e-15 -4.02051e-22 5.25486e-22 -4.97082e-22 2.68693e-23 3.13946e-22 -2.03931e-22 2.98249e-22 1.93983e-22 9.46823e-23 -1.84961e-22 9.03785e-23 4.41851e-22 0 4.23049e-22 -4.97082e-22 4.05781e-22 0 0 0.496271 0.554796 0.630718 0.678046 0.718143 0.781556 0.788864 0.850649 0.881127 0.896618 0.947219 0.973882 0.989636 0.981212 1.0524 1.05794 1.08636 1.07852 1.11646 1.15805 1.17349 1.19656 1.19913 1.21549 1.23884 1.21728 1.08794 0.763774 0.237681 0.00813073 4.18304e-06 8.31996e-11 1.54668e-15 7.31003e-23 -1.27821e-22 -3.10676e-22 1.07477e-22 1.04649e-22 5.09828e-22 -8.94747e-22 -2.42479e-22 -2.36706e-22 5.08642e-22 -4.51893e-23 0 1.72898e-22 3.38439e-22 -6.62776e-22 6.4925e-22 0 0 0.478345 0.534755 0.607936 0.653554 0.692203 0.753325 0.760369 0.819922 0.849299 0.864231 0.913003 0.938703 0.953889 0.945769 1.01438 1.01972 1.04712 1.03956 1.07613 1.11622 1.1311 1.15334 1.15582 1.17159 1.19409 1.17331 1.04864 0.736185 0.229096 0.00783704 4.03194e-06 8.01942e-11 1.4203e-15 3.21641e-22 -1.70428e-22 -8.2847e-22 4.70213e-23 4.41487e-23 -1.7844e-22 4.47374e-22 9.69916e-22 -3.78729e-22 -1.156e-21 1.80757e-22 -2.20925e-22 -3.89021e-22 1.69219e-22 -3.31388e-22 0 0 0 0.459947 0.514187 0.584553 0.628416 0.665579 0.72435 0.731123 0.788385 0.816632 0.83099 0.877887 0.902599 0.9172 0.909392 0.975366 0.980502 1.00684 0.999574 1.03474 1.07329 1.08759 1.10898 1.11136 1.12652 1.14816 1.12818 1.00831 0.70787 0.220284 0.0075356 3.87686e-06 7.71099e-11 1.4117e-15 3.50881e-22 1.13619e-22 1.10463e-22 -1.34346e-22 -5.23244e-22 7.01013e-22 9.47562e-23 2.97037e-22 4.85247e-22 2.54321e-22 4.51893e-22 -6.18591e-22 -3.02572e-22 4.23049e-23 8.2847e-23 4.05781e-22 0 0 0.441094 0.493112 0.560593 0.602659 0.638298 0.694661 0.701156 0.756071 0.78316 0.796929 0.841904 0.865603 0.879606 0.872118 0.935388 0.940314 0.965576 0.958603 0.992331 1.0293 1.04301 1.06352 1.06581 1.08035 1.1011 1.08194 0.966981 0.678856 0.211255 0.00722674 3.71796e-06 7.39492e-11 1.29486e-15 -2.92401e-22 2.27237e-22 1.10463e-22 1.07477e-22 8.37191e-22 -5.35319e-22 2.98249e-22 3.75842e-22 6.50941e-23 2.68771e-22 -2.25946e-23 5.6336e-22 -2.59347e-22 4.65353e-22 2.07118e-22 -4.05781e-22 0 0 0.421807 0.47155 0.53608 0.576307 0.610387 0.664285 0.670497 0.723011 0.748915 0.762082 0.80509 0.827753 0.841143 0.833983 0.894487 0.899197 0.923355 0.916687 0.94894 0.984291 0.997407 1.01702 1.0192 1.03311 1.05295 1.03463 0.924698 0.649172 0.202017 0.00691073 3.55538e-06 7.07157e-11 1.28617e-15 -2.33921e-22 -2.27237e-22 -7.18007e-22 -3.22431e-22 -1.56973e-22 -4.07862e-22 -4.47374e-22 -7.27437e-23 -6.62776e-22 7.86083e-22 -3.72811e-22 -4.97082e-23 1.0536e-22 4.01896e-22 6.83488e-22 3.04336e-22 0 0 0.402103 0.449522 0.511039 0.549386 0.581874 0.633255 0.639176 0.689237 0.713931 0.726483 0.767482 0.789086 0.801851 0.795026 0.852702 0.857193 0.880222 0.873866 0.904612 0.938312 0.950815 0.96951 0.971595 0.984851 1.00377 0.986299 0.881503 0.618847 0.192581 0.00658791 3.3893e-06 6.74123e-11 1.15181e-15 0 6.81712e-22 -3.31388e-22 -3.22431e-22 1.04649e-22 -1.01966e-22 -2.98249e-22 -2.42479e-22 5.68094e-22 -3.69921e-22 -1.58162e-22 -1.54648e-22 3.89021e-22 2.43253e-22 -4.14235e-22 -3.97539e-22 0 0 0.382002 0.427051 0.485492 0.521922 0.552787 0.601599 0.607224 0.654783 0.678243 0.690167 0.729117 0.749641 0.761767 0.755283 0.810077 0.814343 0.836221 0.830182 0.859391 0.891407 0.903285 0.921045 0.923026 0.935619 0.953589 0.936995 0.837438 0.587911 0.182954 0.00625859 3.21987e-06 6.40425e-11 1.20129e-15 -4.67842e-22 2.27237e-22 -3.31388e-22 -3.22431e-22 -2.09298e-22 3.05897e-22 9.94164e-23 -5.8195e-22 -8.5214e-22 -4.16162e-22 -1.80757e-22 -3.09295e-22 -4.32245e-22 3.38439e-22 2.27829e-22 -2.2318e-22 0 0 0.361525 0.404159 0.459467 0.493944 0.523154 0.56935 0.574673 0.619682 0.641885 0.65317 0.690032 0.709455 0.720932 0.714795 0.766652 0.770689 0.791394 0.785679 0.813323 0.843622 0.854864 0.871671 0.873546 0.885464 0.902471 0.886766 0.792546 0.556396 0.173146 0.00592309 3.04727e-06 6.06094e-11 1.04933e-15 0 -2.27237e-22 0 0 0 0 0 -9.69916e-23 4.73411e-22 -2.77441e-22 -2.71136e-22 -2.6511e-22 -2.59347e-22 -2.96134e-22 2.07118e-22 -4.46359e-22 0 0 0.34069 0.380867 0.432988 0.465479 0.493005 0.536538 0.541555 0.58397 0.604893 0.615528 0.650265 0.66857 0.679385 0.673602 0.72247 0.726275 0.745787 0.740401 0.766451 0.795005 0.805598 0.821437 0.823204 0.834436 0.850462 0.835662 0.746872 0.524331 0.163168 0.00558175 2.87166e-06 5.71166e-11 1.0718e-15 4.67842e-22 -2.27237e-22 -5.52313e-22 -4.29909e-22 -2.09298e-22 -2.03931e-22 -1.98833e-22 -4.84958e-22 -1.89365e-22 -4.62402e-22 9.03785e-23 4.41851e-22 8.6449e-23 -8.46097e-23 2.07118e-22 0 0 0 0.31952 0.3572 0.406082 0.436553 0.46237 0.503198 0.507903 0.547682 0.567305 0.577279 0.609858 0.627025 0.637168 0.631744 0.677575 0.681143 0.699443 0.694392 0.718824 0.745603 0.755538 0.770393 0.77205 0.782583 0.797614 0.783734 0.700461 0.491749 0.153029 0.0052349 2.69321e-06 5.35672e-11 9.08137e-16 4.67842e-22 0 -2.20925e-22 4.29909e-22 -4.18595e-22 -6.11793e-22 -5.96498e-22 -2.90975e-22 -2.84047e-22 -6.47363e-22 -3.61514e-22 5.30221e-22 3.45796e-22 -7.61487e-22 -7.45623e-22 8.11562e-23 0 0 0.298034 0.33318 0.378775 0.407198 0.431278 0.46936 0.473749 0.510853 0.529157 0.53846 0.568848 0.58486 0.594322 0.589263 0.632012 0.63534 0.652409 0.647698 0.670487 0.695465 0.704732 0.718588 0.720134 0.729959 0.743978 0.731032 0.653359 0.458681 0.142738 0.00488288 2.51211e-06 4.99653e-11 8.97461e-16 0 0 0 4.29909e-22 4.18595e-22 4.07862e-22 3.97666e-22 0 0 3.69921e-22 0 8.83701e-23 6.05143e-22 2.53829e-22 -2.48541e-22 -1.62312e-22 0 0 0.276253 0.308831 0.351094 0.37744 0.39976 0.43506 0.439128 0.47352 0.490486 0.49911 0.527277 0.542119 0.550889 0.5462 0.585825 0.58891 0.604732 0.600364 0.621488 0.644641 0.653231 0.666074 0.667507 0.676614 0.689609 0.677608 0.605611 0.425161 0.132307 0.00452604 2.32852e-06 4.63138e-11 7.97551e-16 -2.33921e-22 -4.54475e-22 -2.20925e-22 0 6.27893e-22 -2.03931e-22 1.98833e-22 5.8195e-22 -1.89365e-22 0 -1.80757e-22 -1.7674e-22 1.72898e-22 1.69219e-22 -1.65694e-22 -3.24625e-22 0 0 0.254201 0.284178 0.323067 0.34731 0.367848 0.40033 0.404073 0.43572 0.451332 0.459267 0.485185 0.498843 0.506913 0.502598 0.53906 0.541898 0.556457 0.552439 0.571876 0.59318 0.601085 0.612903 0.614221 0.622601 0.634559 0.623516 0.557267 0.391221 0.121745 0.00416473 2.14264e-06 4.26167e-11 8.37369e-16 0 -4.54475e-22 -2.20925e-22 -2.14954e-22 6.27893e-22 -4.07862e-22 -1.98833e-22 -1.93983e-22 -3.78729e-22 0 0 0 3.45796e-22 3.38439e-22 -3.31388e-22 -4.86937e-22 0 0 0.231897 0.259244 0.294721 0.316837 0.335573 0.365205 0.36862 0.39749 0.411732 0.418971 0.442615 0.455074 0.462436 0.4585 0.491763 0.494352 0.507634 0.503968 0.521699 0.541134 0.548345 0.559126 0.560329 0.567974 0.578882 0.568809 0.508372 0.356896 0.111063 0.00379932 1.95465e-06 3.88774e-11 7.25364e-16 4.67842e-22 -6.81712e-22 -8.83701e-22 -4.29909e-22 -2.09298e-22 4.07862e-22 5.96498e-22 -3.87966e-22 3.78729e-22 -1.84961e-22 5.42271e-22 -3.53481e-22 -3.45796e-22 3.38439e-22 3.31388e-22 -6.4925e-22 0 0 0.209365 0.234055 0.266084 0.286051 0.302967 0.329719 0.332802 0.358868 0.371725 0.378261 0.399608 0.410857 0.417503 0.413949 0.44398 0.446318 0.458309 0.454999 0.471008 0.488555 0.495065 0.504798 0.505884 0.512786 0.522635 0.51354 0.458976 0.322218 0.100272 0.00343016 1.76472e-06 3.50998e-11 6.66898e-16 2.33921e-22 4.54475e-22 4.41851e-22 4.29909e-22 2.09298e-22 -4.07862e-22 3.97666e-22 0 0 3.69921e-22 3.61514e-22 3.53481e-22 -5.18694e-22 1.69219e-22 3.31388e-22 0 0 0 0.186626 0.208634 0.237185 0.254983 0.270062 0.293908 0.296657 0.319891 0.331352 0.337178 0.356207 0.366234 0.372158 0.36899 0.395759 0.397843 0.408532 0.405582 0.419852 0.435493 0.441296 0.449972 0.45094 0.457093 0.465872 0.457765 0.409126 0.287222 0.0893812 0.00305761 1.57306e-06 3.12877e-11 5.53267e-16 -4.67842e-22 2.27237e-22 -2.20925e-22 -4.29909e-22 -2.09298e-22 -2.03931e-22 -1.98833e-22 -3.87966e-22 -1.89365e-22 -3.69921e-22 -3.61514e-22 0 -1.72898e-22 3.38439e-22 -1.65694e-22 1.62312e-22 0 0 0.163702 0.183007 0.208052 0.223663 0.23689 0.257808 0.260218 0.280599 0.290652 0.295762 0.312454 0.321249 0.326446 0.323667 0.347148 0.348976 0.358352 0.355764 0.368281 0.382001 0.387091 0.394702 0.395551 0.400948 0.408648 0.401537 0.358873 0.251942 0.0784025 0.00268204 1.37984e-06 2.74446e-11 5.61308e-16 9.35683e-22 -2.27237e-22 -4.41851e-22 2.14954e-22 0 -2.03931e-22 1.98833e-22 0 1.89365e-22 1.84961e-22 -1.80757e-22 -1.7674e-22 -1.72898e-22 0 -1.65694e-22 -1.62312e-22 0 0 0.140617 0.1572 0.178713 0.192123 0.203484 0.221452 0.223523 0.24103 0.249665 0.254055 0.268392 0.275947 0.280411 0.278024 0.298194 0.299765 0.307818 0.305595 0.316347 0.328132 0.332505 0.339042 0.339772 0.344407 0.351022 0.344914 0.308266 0.216414 0