<?xml version="1.0"?>
<VTKFile type="PolyData">
	<PolyData>
		<Piece NumberOfPoints="2601" NumberOfPolys="2500">
			<Points>
				<DataArray type="Float32" NumberOfComponents="3" format="ascii">
 1e-06 0 0 0.278434 0 0 0.317513 0 0 0.353072 0 0 0.381392 0 0 0.404224 0 0 0.424288 0 0 0.442479 0 0 0.459635 0 0 0.474698 0 0 0.487928 0 0 0.500222 0 0 0.5115 0 0 0.522024 0 0 0.531834 0 0 0.540683 0 0 0.548868 0 0 0.55626 0 0 0.563516 0 0 0.570323 0 0 0.576757 0 0 0.582624 0 0 0.588127 0 0 0.593427 0 0 0.598452 0 0 0.603294 0 0 0.607808 0 0 0.611951 0 0 0.615894 0 0 0.619707 0 0 0.624239 0 0 0.631045 0 0 0.642561 0 0 0.660119 0 0 0.680001 0 0 0.700001 0 0 0.720001 0 0 0.740001 0 0 0.760001 0 0 0.780001 0 0 0.800001 0 0 0.820001 0 0 0.840001 0 0 0.860001 0 0 0.880001 0 0 0.900001 0 0 0.920001 0 0 0.940001 0 0 0.960001 0 0 0.980001 0 0 1 0 0 9.99507e-07 3.14108e-08 0 0.278296 0.00874582 0 0.317357 0.00997333 0 0.352898 0.0110903 0 0.381204 0.0119798 0 0.404025 0.012697 0 0.424078 0.0133272 0 0.442261 0.0138986 0 0.459408 0.0144375 0 0.474464 0.0149106 0 0.487687 0.0153262 0 0.499975 0.0157124 0 0.511248 0.0160666 0 0.521766 0.0163972 0 0.531571 0.0167053 0 0.540416 0.0169833 0 0.548598 0.0172404 0 0.555985 0.0174725 0 0.563238 0.0177005 0 0.570042 0.0179143 0 0.576472 0.0181164 0 0.582336 0.0183007 0 0.587837 0.0184735 0 0.593135 0.01864 0 0.598157 0.0187978 0 0.602997 0.0189499 0 0.607508 0.0190917 0 0.611649 0.0192218 0 0.61559 0.0193457 0 0.619401 0.0194655 0 0.623931 0.0196078 0 0.630734 0.0198216 0 0.642244 0.0201833 0 0.659793 0.0207348 0 0.679666 0.0213594 0 0.699656 0.0219876 0 0.719646 0.0226158 0 0.739636 0.023244 0 0.759626 0.0238722 0 0.779616 0.0245004 0 0.799606 0.0251286 0 0.819596 0.0257569 0 0.839587 0.0263851 0 0.859577 0.0270133 0 0.879567 0.0276415 0 0.899557 0.0282697 0 0.919547 0.0288979 0 0.939537 0.0295261 0 0.959527 0.0301544 0 0.979517 0.0307826 0 0.999508 0.0314108 0 9.98027e-07 6.27905e-08 0 0.277884 0.017483 0 0.316887 0.0199368 0 0.352376 0.0221696 0 0.38064 0.0239478 0 0.403427 0.0253815 0 0.42345 0.0266412 0 0.441606 0.0277835 0 0.458728 0.0288607 0 0.473761 0.0298065 0 0.486965 0.0306373 0 0.499235 0.0314092 0 0.510491 0.0321174 0 0.520994 0.0327781 0 0.530784 0.0333941 0 0.539616 0.0339498 0 0.547785 0.0344637 0 0.555162 0.0349278 0 0.562404 0.0353834 0 0.569198 0.0358109 0 0.575619 0.0362149 0 0.581474 0.0365833 0 0.586966 0.0369288 0 0.592256 0.0372616 0 0.597271 0.0375771 0 0.602104 0.0378812 0 0.606608 0.0381646 0 0.610743 0.0384247 0 0.614679 0.0386723 0 0.618484 0.0389117 0 0.623007 0.0391963 0 0.6298 0.0396237 0 0.641293 0.0403467 0 0.658817 0.0414492 0 0.678659 0.0426976 0 0.69862 0.0439534 0 0.71858 0.0452092 0 0.738541 0.046465 0 0.758501 0.0477209 0 0.778462 0.0489767 0 0.798422 0.0502325 0 0.818383 0.0514883 0 0.838343 0.0527441 0 0.858304 0.0539999 0 0.878265 0.0552557 0 0.898225 0.0565115 0 0.918186 0.0577673 0 0.938146 0.0590232 0 0.958107 0.060279 0 0.978067 0.0615348 0 0.998028 0.0627906 0 9.95562e-07 9.41083e-08 0 0.277198 0.0262029 0 0.316104 0.0298806 0 0.351505 0.033227 0 0.3797 0.0358922 0 0.40243 0.0380409 0 0.422405 0.039929 0 0.440516 0.041641 0 0.457595 0.0432555 0 0.472591 0.044673 0 0.485763 0.0459181 0 0.498002 0.0470751 0 0.50923 0.0481364 0 0.519707 0.0491268 0 0.529473 0.05005 0 0.538284 0.0508828 0 0.546432 0.0516531 0 0.553791 0.0523486 0 0.561015 0.0530315 0 0.567792 0.0536722 0 0.574197 0.0542776 0 0.580038 0.0548297 0 0.585517 0.0553476 0 0.590794 0.0558465 0 0.595796 0.0563193 0 0.600617 0.056775 0 0.60511 0.0571998 0 0.609235 0.0575897 0 0.61316 0.0579607 0 0.616957 0.0583196 0 0.621469 0.0587461 0 0.628245 0.0593866 0 0.639709 0.0604703 0 0.65719 0.0621227 0 0.676983 0.0639938 0 0.696894 0.0658759 0 0.716806 0.0677581 0 0.736717 0.0696402 0 0.756628 0.0715224 0 0.776539 0.0734046 0 0.796451 0.0752867 0 0.816362 0.0771689 0 0.836273 0.0790511 0 0.856184 0.0809332 0 0.876096 0.0828154 0 0.896007 0.0846976 0 0.915918 0.0865797 0 0.935829 0.0884619 0 0.95574 0.0903441 0 0.975652 0.0922262 0 0.995563 0.0941084 0 9.92115e-07 1.25333e-07 0 0.276238 0.034897 0 0.31501 0.039795 0 0.350288 0.0442517 0 0.378385 0.0478012 0 0.401037 0.0506627 0 0.420942 0.0531773 0 0.43899 0.0554574 0 0.45601 0.0576075 0 0.470955 0.0594954 0 0.484081 0.0611536 0 0.496278 0.0626945 0 0.507467 0.064108 0 0.517907 0.0654269 0 0.52764 0.0666564 0 0.53642 0.0677656 0 0.54454 0.0687914 0 0.551873 0.0697178 0 0.559072 0.0706273 0 0.565826 0.0714805 0 0.572209 0.0722868 0 0.57803 0.0730221 0 0.583489 0.0737119 0 0.588748 0.0743762 0 0.593733 0.0750059 0 0.598537 0.0756128 0 0.603015 0.0761785 0 0.607125 0.0766978 0 0.611037 0.077192 0 0.614821 0.0776699 0 0.619317 0.0782379 0 0.626069 0.0790909 0 0.637494 0.0805342 0 0.654914 0.0827349 0 0.674639 0.0852268 0 0.694481 0.0877334 0 0.714324 0.0902401 0 0.734166 0.0927467 0 0.754008 0.0952534 0 0.77385 0.09776 0 0.793693 0.100267 0 0.813535 0.102773 0 0.833377 0.10528 0 0.85322 0.107787 0 0.873062 0.110293 0 0.892904 0.1128 0 0.912747 0.115307 0 0.932589 0.117813 0 0.952431 0.12032 0 0.972273 0.122827 0 0.992116 0.125333 0 9.87688e-07 1.56434e-07 0 0.275006 0.0435566 0 0.313604 0.04967 0 0.348725 0.0552327 0 0.376697 0.0596629 0 0.399248 0.0632346 0 0.419064 0.0663732 0 0.437032 0.069219 0 0.453976 0.0719027 0 0.468854 0.0742591 0 0.481921 0.0763288 0 0.494064 0.078252 0 0.505203 0.0800163 0 0.515597 0.0816625 0 0.525286 0.0831971 0 0.534026 0.0845815 0 0.542111 0.0858619 0 0.549411 0.0870182 0 0.556578 0.0881533 0 0.563302 0.0892182 0 0.569656 0.0902247 0 0.575451 0.0911424 0 0.580886 0.0920033 0 0.586121 0.0928325 0 0.591084 0.0936185 0 0.595867 0.094376 0 0.600325 0.0950821 0 0.604417 0.0957302 0 0.608311 0.096347 0 0.612078 0.0969436 0 0.616554 0.0976525 0 0.623276 0.0987172 0 0.63465 0.100519 0 0.651992 0.103265 0 0.671629 0.106376 0 0.691383 0.109504 0 0.711137 0.112633 0 0.73089 0.115762 0 0.750644 0.11889 0 0.770398 0.122019 0 0.790152 0.125148 0 0.809905 0.128276 0 0.829659 0.131405 0 0.849413 0.134534 0 0.869167 0.137662 0 0.88892 0.140791 0 0.908674 0.14392 0 0.928428 0.147049 0 0.948182 0.150177 0 0.967936 0.153306 0 0.987689 0.156435 0 9.82287e-07 1.87381e-07 0 0.273502 0.0521733 0 0.311889 0.0594961 0 0.346818 0.0661592 0 0.374637 0.0714658 0 0.397064 0.0757441 0 0.416772 0.0795036 0 0.434642 0.0829124 0 0.451493 0.086127 0 0.46629 0.0889495 0 0.479286 0.0914286 0 0.491362 0.0937323 0 0.50244 0.0958456 0 0.512777 0.0978175 0 0.522413 0.0996557 0 0.531106 0.101314 0 0.539146 0.102848 0 0.546407 0.104233 0 0.553534 0.105592 0 0.560221 0.106868 0 0.566541 0.108073 0 0.572304 0.109173 0 0.57771 0.110204 0 0.582916 0.111197 0 0.587852 0.112139 0 0.592608 0.113046 0 0.597042 0.113892 0 0.601111 0.114668 0 0.604985 0.115407 0 0.608731 0.116122 0 0.613182 0.116971 0 0.619868 0.118246 0 0.631179 0.120404 0 0.648427 0.123694 0 0.667957 0.12742 0 0.687602 0.131167 0 0.707248 0.134915 0 0.726894 0.138662 0 0.746539 0.14241 0 0.766185 0.146158 0 0.785831 0.149905 0 0.805477 0.153653 0 0.825122 0.1574 0 0.844768 0.161148 0 0.864414 0.164896 0 0.88406 0.168643 0 0.903705 0.172391 0 0.923351 0.176139 0 0.942997 0.179886 0 0.962642 0.183634 0 0.982288 0.187382 0 9.75917e-07 2.18143e-07 0 0.271728 0.0607384 0 0.309867 0.0692634 0 0.344569 0.0770203 0 0.372207 0.0831982 0 0.394489 0.0881788 0 0.414069 0.0925555 0 0.431823 0.0965239 0 0.448565 0.100266 0 0.463266 0.103552 0 0.476177 0.106438 0 0.488175 0.10912 0 0.499182 0.11158 0 0.509452 0.113876 0 0.519025 0.116016 0 0.527662 0.117946 0 0.53565 0.119732 0 0.542863 0.121344 0 0.549944 0.122927 0 0.556588 0.124412 0 0.562867 0.125816 0 0.568592 0.127095 0 0.573963 0.128296 0 0.579136 0.129452 0 0.584039 0.130548 0 0.588765 0.131605 0 0.59317 0.132589 0 0.597213 0.133493 0 0.601061 0.134353 0 0.604783 0.135185 0 0.609205 0.136174 0 0.615848 0.137658 0 0.627086 0.14017 0 0.644221 0.144001 0 0.663625 0.148338 0 0.683143 0.1527 0 0.702661 0.157063 0 0.722179 0.161426 0 0.741698 0.165789 0 0.761216 0.170152 0 0.780734 0.174515 0 0.800253 0.178878 0 0.819771 0.183241 0 0.839289 0.187603 0 0.858808 0.191966 0 0.878326 0.196329 0 0.897844 0.200692 0 0.917363 0.205055 0 0.936881 0.209418 0 0.956399 0.213781 0 0.975918 0.218143 0 9.68583e-07 2.4869e-07 0 0.269686 0.0692437 0 0.307538 0.0789623 0 0.34198 0.0878055 0 0.36941 0.0948485 0 0.391525 0.100527 0 0.410958 0.105516 0 0.428578 0.11004 0 0.445195 0.114307 0 0.459784 0.118053 0 0.472599 0.121343 0 0.484507 0.1244 0 0.49543 0.127205 0 0.505623 0.129822 0 0.515125 0.132262 0 0.523697 0.134462 0 0.531625 0.136498 0 0.538784 0.138336 0 0.545812 0.140141 0 0.552405 0.141834 0 0.558637 0.143434 0 0.56432 0.144893 0 0.56965 0.146261 0 0.574784 0.147579 0 0.579651 0.148829 0 0.584341 0.150033 0 0.588712 0.151156 0 0.592725 0.152186 0 0.596544 0.153167 0 0.600238 0.154115 0 0.604628 0.155242 0 0.61122 0.156935 0 0.622373 0.159798 0 0.63938 0.164165 0 0.658638 0.169109 0 0.678009 0.174083 0 0.697381 0.179057 0 0.716753 0.184031 0 0.736124 0.189005 0 0.755496 0.193978 0 0.774867 0.198952 0 0.794239 0.203926 0 0.813611 0.2089 0 0.832982 0.213874 0 0.852354 0.218847 0 0.871726 0.223821 0 0.891097 0.228795 0 0.910469 0.233769 0 0.929841 0.238743 0 0.949212 0.243716 0 0.968584 0.24869 0 9.60294e-07 2.78991e-07 0 0.267378 0.0776805 0 0.304906 0.0885834 0 0.339053 0.098504 0 0.366249 0.106405 0 0.388174 0.112775 0 0.407441 0.118372 0 0.42491 0.123448 0 0.441384 0.128234 0 0.455849 0.132436 0 0.468554 0.136128 0 0.48036 0.139558 0 0.49119 0.142704 0 0.501296 0.14564 0 0.510716 0.148377 0 0.519215 0.150846 0 0.527075 0.153129 0 0.534173 0.155191 0 0.541141 0.157216 0 0.547678 0.159115 0 0.553856 0.16091 0 0.55949 0.162547 0 0.564775 0.164082 0 0.569865 0.165561 0 0.57469 0.166963 0 0.57934 0.168314 0 0.583674 0.169573 0 0.587652 0.170729 0 0.591439 0.171829 0 0.595101 0.172893 0 0.599453 0.174157 0 0.605989 0.176056 0 0.617047 0.179269 0 0.633908 0.184167 0 0.653001 0.189714 0 0.672207 0.195294 0 0.691412 0.200874 0 0.710618 0.206454 0 0.729824 0.212034 0 0.74903 0
[...]
			<PointData Scalars="VitesseX">
				<DataArray Name="VitesseX" type="Float32" format="ascii">
 0 0.564139 0.865407 0.79516 0.957925 0.941703 1.01247 1.05679 1.06955 1.15312 1.16238 1.19773 1.26712 1.28352 1.32476 1.35155 1.40812 1.4346 1.43579 1.45034 1.50778 1.52016 1.56086 1.54956 1.55862 1.59751 1.62324 1.65603 1.6803 1.65572 1.51854 1.17055 0.547726 0.0522989 0.000186138 6.60653e-09 1.7066e-13 0 0 0 0 0 0 0 0 0 0 0 0 0 0 0 0.56386 0.86498 0.794768 0.957452 0.941239 1.01197 1.05626 1.06902 1.15256 1.1618 1.19714 1.26649 1.28289 1.32411 1.35089 1.40743 1.43389 1.43508 1.44962 1.50703 1.51941 1.56009 1.54879 1.55785 1.59673 1.62244 1.65521 1.67947 1.6549 1.51779 1.16998 0.547455 0.0522731 0.000186046 6.60327e-09 1.70578e-13 0 0 0 4.96729e-22 4.84614e-22 -4.73075e-22 -4.62074e-22 0 0 4.31938e-22 -4.22748e-22 0 8.10986e-22 0 0 0.563025 0.863699 0.793591 0.956035 0.939845 1.01047 1.0547 1.06744 1.15085 1.16008 1.19537 1.26461 1.28099 1.32215 1.34889 1.40535 1.43177 1.43296 1.44747 1.5048 1.51716 1.55778 1.5465 1.55554 1.59436 1.62004 1.65276 1.67698 1.65245 1.51555 1.16824 0.546645 0.0521957 0.000185771 6.59349e-09 1.70333e-13 0 0 0 0 0 -4.73075e-22 0 0 0 4.31938e-22 -8.45496e-22 0 0 0 0 0.561635 0.861566 0.791631 0.953674 0.937524 1.00798 1.0521 1.0648 1.14801 1.15722 1.19242 1.26149 1.27783 1.31888 1.34556 1.40187 1.42823 1.42942 1.4439 1.50109 1.51342 1.55393 1.54268 1.5517 1.59042 1.61604 1.64868 1.67284 1.64837 1.5118 1.16536 0.545295 0.0520668 0.000185312 6.57721e-09 1.69925e-13 0 0 0 0 0 0 0 0 8.83074e-22 4.31938e-22 -4.22748e-22 0 0 0 0 0.55969 0.858583 0.78889 0.950371 0.934278 1.00449 1.04845 1.06111 1.14403 1.15321 1.18829 1.25712 1.2734 1.31432 1.3409 1.39702 1.42329 1.42447 1.4389 1.49589 1.50818 1.54855 1.53734 1.54633 1.58492 1.61044 1.64297 1.66705 1.64266 1.50657 1.16132 0.543407 0.0518865 0.00018467 6.55444e-09 1.69373e-13 0 5.22873e-22 0 0 0 0 0 -4.51572e-22 4.41537e-22 -8.63877e-22 0 -4.13941e-22 -4.05493e-22 0 0 0.557193 0.854752 0.78537 0.946131 0.930109 1 1.04377 1.05638 1.13893 1.14807 1.18299 1.25151 1.26772 1.30845 1.33491 1.39079 1.41694 1.41811 1.43248 1.48921 1.50145 1.54164 1.53048 1.53943 1.57785 1.60325 1.63564 1.65961 1.63533 1.49985 1.15614 0.540982 0.051655 0.000183847 6.52519e-09 1.68619e-13 -5.37004e-22 -5.22873e-22 0 4.96729e-22 0 -4.73075e-22 0 0 4.41537e-22 0 8.45496e-22 -4.13941e-22 0 0 0 0.554146 0.850078 0.781076 0.940957 0.925023 0.994536 1.03807 1.0506 1.1327 1.14179 1.17652 1.24467 1.26079 1.3013 1.32761 1.38318 1.40919 1.41036 1.42465 1.48107 1.49324 1.53321 1.52211 1.53101 1.56922 1.59449 1.6267 1.65053 1.62639 1.49165 1.14982 0.538024 0.0513726 0.000182841 6.48951e-09 1.67675e-13 0 5.22873e-22 0 0 0 4.73075e-22 0 -4.51572e-22 -4.41537e-22 0 8.45496e-22 -4.13941e-22 4.05493e-22 0 0 0.550552 0.844565 0.77601 0.934855 0.919024 0.988086 1.03133 1.04379 1.12535 1.13438 1.16889 1.2366 1.25261 1.29286 1.319 1.37421 1.40005 1.40121 1.41541 1.47147 1.48355 1.52327 1.51224 1.52108 1.55904 1.58415 1.61615 1.63983 1.61584 1.48197 1.14236 0.534535 0.0510394 0.000181655 6.44742e-09 1.66572e-13 0 0 -5.09466e-22 0 0 -4.73075e-22 4.62074e-22 0 -4.41537e-22 -4.31938e-22 -4.22748e-22 0 0 0 0 0.546415 0.838218 0.770179 0.92783 0.912118 0.980661 1.02358 1.03594 1.1169 1.12586 1.1601 1.22731 1.2432 1.28314 1.30909 1.36389 1.38953 1.39068 1.40477 1.46041 1.47241 1.51182 1.50088 1.50965 1.54732 1.57224 1.604 1.62751 1.6037 1.47084 1.13378 0.530518 0.0506559 0.00018029 6.39897e-09 1.6537e-13 5.37004e-22 0 0 0 0 0 4.62074e-22 9.03144e-22 -4.41537e-22 0 0 0 4.05493e-22 0 0 0.541739 0.831044 0.763587 0.919889 0.904312 0.972268 1.01482 1.02708 1.10734 1.11622 1.15017 1.2168 1.23256 1.27216 1.29789 1.35221 1.37764 1.37878 1.39275 1.44791 1.4598 1.49888 1.48803 1.49673 1.53408 1.55879 1.59027 1.61358 1.58997 1.45825 1.12408 0.525977 0.0502223 0.000178747 6.34421e-09 1.64055e-13 5.37004e-22 -5.22873e-22 0 0 0 -9.46151e-22 -9.24147e-22 9.03144e-22 4.41537e-22 4.31938e-22 0 0 4.05493e-22 0 0 0.536528 0.823051 0.756242 0.911041 0.895613 0.962916 1.00506 1.0172 1.09669 1.10549 1.13911 1.2051 1.2207 1.25992 1.2854 1.33921 1.36438 1.36552 1.37935 1.43398 1.44576 1.48447 1.47372 1.48234 1.51933 1.54379 1.57498 1.59806 1.57468 1.44422 1.11326 0.520918 0.0497392 0.000177028 6.28318e-09 1.62456e-13 0 0 5.09466e-22 -4.96729e-22 9.69227e-22 4.73075e-22 0 0 0 -4.31938e-22 -4.22748e-22 -4.13941e-22 4.05493e-22 0 0 0.530787 0.814244 0.748151 0.901293 0.886031 0.952613 0.994309 1.00632 1.08495 1.09366 1.12692 1.1922 1.20764 1.24644 1.27165 1.32488 1.34979 1.35091 1.36459 1.41864 1.43029 1.46858 1.45795 1.46647 1.50307 1.52727 1.55813 1.58096 1.55783 1.42877 1.10135 0.515344 0.049207 0.000175134 6.21596e-09 1.60697e-13 -5.37004e-22 5.22873e-22 5.09466e-22 -4.96729e-22 -4.84614e-22 -4.73075e-22 0 -4.51572e-22 4.41537e-22 4.31938e-22 -4.22748e-22 -4.13941e-22 8.10986e-22 0 0 0.524523 0.804635 0.739321 0.890656 0.875574 0.941371 0.982574 0.994439 1.07215 1.08075 1.11362 1.17813 1.19339 1.23173 1.25664 1.30924 1.33386 1.33496 1.34849 1.4019 1.41341 1.45125 1.44074 1.44917 1.48533 1.50925 1.53974 1.5623 1.53945 1.41191 1.08835 0.509262 0.0486263 0.000173067 6.1426e-09 1.58782e-13 -2.68502e-22 5.22873e-22 -5.09466e-22 0 -4.84614e-22 0 4.62074e-22 -4.51572e-22 -4.41537e-22 -4.31938e-22 -4.22748e-22 -4.13941e-22 0 0 0 0.517741 0.794231 0.729762 0.87914 0.864253 0.929199 0.96987 0.981581 1.05829 1.06678 1.09922 1.1629 1.17796 1.21581 1.24039 1.29231 1.31661 1.3177 1.33105 1.38377 1.39514 1.43249 1.42211 1.43043 1.46613 1.48974 1.51983 1.5421 1.51954 1.39365 1.07428 0.502678 0.0479976 0.000170829 6.06317e-09 1.56705e-13 -2.68502e-22 0 5.09466e-22 4.96729e-22 0 0 0 0 8.83074e-22 0 4.22748e-22 0 -4.05493e-22 0 0 0.510448 0.783043 0.719482 0.866756 0.852079 0.91611 0.956208 0.967754 1.04338 1.05175 1.08374 1.14652 1.16137 1.19868 1.22292 1.27411 1.29806 1.29914 1.3123 1.36428 1.37549 1.41231 1.40208 1.41028 1.44547 1.46875 1.49842 1.52038 1.49814 1.37402 1.05915 0.495597 0.0473215 0.000168423 5.97777e-09 1.5448e-13 2.68502e-22 -2.61436e-22 -2.54733e-22 0 0 4.73075e-22 0 0 0 -4.31938e-22 0 4.13941e-22 -4.05493e-22 0 0 0.502651 0.771083 0.708493 0.853517 0.839064 0.902117 0.941603 0.952972 1.02744 1.03569 1.06719 1.12901 1.14363 1.18037 1.20424 1.25465 1.27824 1.2793 1.29226 1.34344 1.35448 1.39074 1.38067 1.38874 1.42339 1.44632 1.47553 1.49715 1.47525 1.35303 1.04297 0.488027 0.0465987 0.00016585 5.88646e-09 1.5214e-13 0 0 0 -4.96729e-22 -2.42307e-22 0 4.62074e-22 0 0 4.31938e-22 0 4.13941e-22 4.05493e-22 0 0 0.494358 0.758362 0.696804 0.839436 0.825221 0.887234 0.926068 0.93725 1.01049 1.0186 1.04958 1.11038 1.12476 1.1609 1.18438 1.23395 1.25715 1.25819 1.27094 1.32128 1.33213 1.36779 1.35789 1.36583 1.39991 1.42246 1.45119 1.47245 1.45092 1.33071 1.02576 0.479976 0.0458299 0.000163114 5.78935e-09 1.49652e-13 5.37004e-22 7.84309e-22 5.09466e-22 2.48365e-22 4.84614e-22 -4.73075e-22 -4.62074e-22 2.25786e-22 -4.41537e-22 -4.31938e-22 0 0 -4.05493e-22 0 0 0.485578 0.744892 0.684428 0.824526 0.810564 0.871475 0.90962 0.920603 0.992543 1.00051 1.03094 1.09066 1.10478 1.14028 1.16334 1.21203 1.23482 1.23585 1.24837 1.29781 1.30847 1.3435 1.33377 1.34157 1.37505 1.39719 1.42541 1.4463 1.42514 1.30707 1.00755 0.47145 0.0450159 0.000160217 5.68652e-09 1.46973e-13 -5.37004e-22 0 -2.54733e-22 -2.48365e-22 7.26921e-22 2.36538e-22 0 0 0 4.31938e-22 4.22748e-22 4.13941e-22 -4.05493e-22 0 0 0.476318 0.730687 0.671376 0.808803 0.795106 0.854857 0.892274 0.903047 0.973615 0.981427 1.01128 1.06986 1.08371 1.11853 1.14115 1.18892 1.21127 1.21228 1.22456 1.27306 1.28352 1.31788 1.30834 1.31599 1.34883 1.37055 1.39823 1.41872 1.39797 1.28215 0.988332 0.46246 0.0441574 0.000157162 5.57808e-09 1.44226e-13 8.05506e-22 -7.84309e-22 7.64198e-22 -7.45094e-22 4.84614e-22 -7.09613e-22 4.62074e-22 0 -4.41537e-22 -2.15969e-22 -2.11374e-22 0 -4.05493e-22 0 0 0.466588 0.715761 0.657661 0.792281 0.778865 0.837394 0.874047 0.884601 0.953727 0.961379 0.990621 1.04801 1.06158 1.09569 1.11784 1.16463 1.18653 1.18751 1.19955 1.24705 1.2573 1.29096 1.28161 1.2891 1.32127 1.34255 1.36967 1.38974 1.36941 1.25596 0.968143 0.453013 0.0432554 0.000153951 5.46413e-09 1.41222e-13 -8.05506e-22 -2.61436e-22 -2.54733e-22 -2.48365e-22 4.84614e-22 -1.18269e-21 4.62074e-22 4.51572e-22 -4.41537e-22 2.15969e-22 -4.22748e-22 4.13941e-22 -4.05493e-22 0 0 0.456398 0.700129 0.643298 0.774978 0.761854 0.819105 0.854957 0.865281 0.932897 0.940382 0.968986 1.02512 1.03839 1.07176 1.09343 1.1392 1.16061 1.16158 1.17335 1.21982 1.22984 1.26276 1.25362 1.26095 1.29242 1.31323 1.33976 1.35939 1.3395 1.22853 0.946999 0.443119 0.0423107 0.000150589 5.3448e-09 1.38144e-13 -2.68502e-22 -2.61436e-22 -2.54733e-22 2.48365e-22 9.69227e-22 0 -2.31037e-22 4.51572e-22 2.20768e-22 -4.31938e-22 -4.22748e-22 0 0 0 0 0.445757 0.683805 0.6283 0.756909 0.744092 0.800008 0.835024 0.845107 0.911147 0.918458 0.946394 1.00122 1.01418 1.04677 1.06794 1.11264 1.13356 1.1345 1.14599 1.19138 1.20117 1.23332 1.22439 1.23155 1.26228 1.28261 1.30852 1.32769 1.30827 1.19988 0.92492 0.432788 0.0413243 0.000147078 5.22018e-09 1.34928e-13 1.34251e-22 -1.30718e-22 2.54733e-22 -4.96729e-22 -7.26921e-22 9.46151e-22 0 -6.77358e-22 0 0 -2.11374e-22 -4.13941e-22 -4.05493e-22 0 0 0.434676 0.666807 0.612681 0.738094 0.725595 0.780121 0.814267 0.824099 0.888498 0.895627 0.922869 0.976329 0.988971 1.02075 1.04139 1.08498 1.10538 1.1063 1.1175 1.16176 1.17131 1.20266 1.19396 1.20094 1.23091 1.25073 1.27599 1.29469 1.27575 1.17006 0.901928 0.42203 0.040297 0.000143422 5.09042e-09 1.31587e-13 4.02753e-22 -1.04575e-21 6.36832e-22 2.48365e-22 0 -4.73075e-22 2.31037e-22 4.51572e-22 6.62305e-22 -2.15969e-22 6.34122e-22 6.20911e-22 -2.02747e-22 0 0 0.423167 0.649151 0.596458 0.71855 0.706382 0.759465 0.792707 0.802278 0.864971 0.871912 0.898432 0.950477 0.962785 0.99372 1.01382 1.05625 1.07611 1.077 1.08791 1.131 1.14029 1.17082 1.16234 1.16914 1.19831 1.21761 1.24221 1.26041 1.24197 1.13908 0.878046 0.410855 0.03923 0.000139624 4.95563e-09 1.28105e-13 2.68502e-22 -3.92154e-22 3.82099e-22 1.24182e-22 8.48074e-22 1.18269e-22 -4.62074e-22 -2.25786e-22 0 -6.47908e-22 -2.11374e-22 0 -2.02747e-22 0 0 0.411239 0.630854 0.579647 0.698297 0.686472 0.738059 0.770364 0.779665 0.840592 0.847336 0.873109 0.923687 0.935648 0.965711 0.98524 1.02648 1.04578 1.04665 1.05725 1.09912 1.10815 1.13782 1.12958 1.13618 1.16454 1.18329 1.20719 1.22488 1.20697 1.10697 0.853298 0.399275 0.0381243 0.000135689 4.81595e-09 1.24469e-13 -2.01377e-22 -2.61436e-22 -2.54733e-22 -4.96729e-22 0 2.36538e-22 2.31037e-22 -2.25786e-22 0 0 -2.11374e-22 2.0697e-22 2.02747e-22 0 0 0.398906 0.611935 0.562263 0.677355 0.665885 0.715924 0.74726 0.756283 0.815382 0.821924 0.846925 0.895986 0.907588 0.936749 0.955693 0.995694 1.01441 1.01526 1.02554 1.06616 1.07492 1.1037 1.0957 1.10211 1.12961 1.1478 1.17099 1.18815 1.17077 1.07377 0.827707 0.3873 0.0369809 0.00013162 4.67152e-09 1.20759e-13 2.68502e-22 -5.88232e-22 -6.36832e-23 -8.69276e-22 -3.6346e-22 3.54806e-22 2.31037e-22 -2.25786e-22 0 2.15969e-22 -1.05687e-22 -2.0697e-22 4.05493e-22 0 0 0.386179 0.592412 0.544325 0.655745 0.64464 0.693083 0.723419 0.732155 0.789368 0.795702 0.819904 0.8674 0.878632 0.906863 0.925202 0.963927 0.98205 0.982866 0.992824 1.03214 1.04062 1.06848 1.06075 1.06695 1.09357 1.11118 1.13363 1.15024 1.13342 1.03951 0.8013 0.374944 0.0358011 0.00012742 4.52248e-09 1.16882e-13 3.35628e-23 3.92154e-22 -2.54733e-22 3.72547e-22 2.42307e-22 1.18269e-22 -2.31037e-22 1.12893e-22 5.51921e-22 0 5.28435e-22 -6.20911e-22 5.06866e-22 0 0 0.373072 0.572304 0.525849 0.633487 0.62276 0.669558 0.698865 0.707303 0.762575 0.768693 0.792075 0.837958 0.848809 0.876082 0.893798 0.931209 0.948717 0.949505 0.959125 0.997111 1.0053 1.03222 1.02474 1.03073 1.05645 1.07347 1.09515 1.1112 1.09494 1.00423 0.774102 0.362217 0.0345859 0.000123095 4.36898e-09 1.12952e-13 1.34251e-22 1.30718e-22 6.36832e-22 -1.11764e-21 -3.02884e-22 -2.95672e-22 6.35351e-22 -5.64465e-23 0 2.15969e-22 4.22748e-22 -8.27882e-22 8.10986e-22 0 0 0.359596 0.551631 0.506854 0.610604 0.600264 0.645373 0.67362 0.681754 0.735029 0.740927 0.763463 0.80769 0.818148 0.844436 0.861513 0.897572 0.914448 0.915207 0.924479 0.961094 0.968989 0.99493 0.987726 0.993501 1.01829 1.03469 1.05559 1.07106 1.05539 0.967956 0.74614 0.349133 0.0333366 0.000118649 4.21116e-09 1.08834e-13 5.87348e-23 5.51467e-23 -2.22891e-22 5.5882e-22 1.21153e-21 -4.73075e-22 -1.44398e-21 2.25786e-22 -2.75961e-22 -4.85931e-22 2.11374e-22 -4.13941e-22 0 0 0 0.345765 0.530414 0.487359 0.587119 0.577177 0.62055 0.647711 0.655532 0.706758 0.712429 0.734099 0.776624 0.78668 0.811957 0.828377 0.863049 0.879276 0.880006 0.888921 0.924128 0.93172 0.956663 0.949736 0.955289 0.979127 0.994895 1.01499 1.02986 1.0148 0.930726 0.717441 0.335705 0.0320544 0.000114085 4.04919e-09 1.04687e-13 -1.67814e-22 -6.53591e-22 8.75644e-22 1.18361e-22 3.71032e-22 6.06128e-22 3.17676e-22 5.64465e-22 -7.7269e-22 -3.77946e-22 5.28435e-23 1.03485e-22 5.06866e-22 0 0 0.331592 0.508673 0.467383 0.563054 0.553519 0.595115 0.621163 0.628663 0.67779 0.683228 0.704009 0.744792 0.754436 0.778676 0.794423 0.827675 0.843236 0.843936 0.852486 0.88625 0.89353 0.917451 0.910808 0.916133 0.938995 0.954116 0.97339 0.987653 0.973206 0.892577 0.688035 0.321945 0.0307405 0.000109409 3.88322e-09 1.00419e-13 1.34251e-22 1.04575e-21 -6.68674e-22 3.72547e-22 4.6947e-22 8.13098e-23 3.35725e-22 -2.82232e-23 7.037e-22 -3.23954e-22 5.81279e-22 2.58713e-22 -5.06866e-22 0 0 0.317093 0.486431 0.446946 0.538434 0.529316 0.569092 0.594002 0.601174 0.648152 0.653353 0.673225 0.712224 0.721447 0.744627 0.759686 0.791483 0.806364 0.807034 0.81521 0.847497 0.854459 0.877334 0.870981 0.876074 0.897936 0.912396 0.930827 0.944466 0.930651 0.853548 0.657949 0.307867 0.0293964 0.000104625 3.71342e-09 9.60885e-14 -4.02753e-22 -1.96077e-22 -5.09466e-22 -5.5882e-22 -9.08651e-23 -8.27882e-22 9.81906e-22 -4.65683e-22 -6.20911e-23 1.31606e-22 5.02013e-22 8.53753e-22 3.8015e-22 0 0 0.302281 0.463708 0.426068 0.513282 0.50459 0.542508 0.566254 0.573091 0.617875 0.622833 0.641777 0.678954 0.687746 0.709844 0.724199 0.754511 0.768696 0.769335 0.777129 0.807908 0.814545 0.836351 0.830295 0.83515 0.85599 0.869775 0.887345 0.900347 0.887177 0.813676 0.627215 0.293486 0.0280232 9.97379e-05 3.53996e-09 9.14939e-14 -4.02753e-22 1.30718e-22 -1.27366e-22 -3.72547e-22 -3.02884e-22 7.09613e-22 -4.62074e-22 -1.97563e-22 -1.93172e-22 4.85931e-22 3.0385e-22 -5.17426e-22 -4.96571e-22 0 0 0.28717 0.440528 0.404769 0.487623 0.479366 0.515389 0.537948 0.544443 0.586988 0.591698 0.609695 0.645014 0.653366 0.674359 0.687997 0.716794 0.73027 0.730877 0.738281 0.767521 0.773827 0.794543 0.78879 0.793402 0.8132 0.826296 0.842988 0.85534 0.842828 0.773001 0.595861 0.278815 0.0266223 9.47521e-05 3.363e-09 8.69226e-14 -4.02753e-22 -2.61436e-22 3.82099e-22 1.24182e-22 -7.26921e-22 -1.06442e-21 -5.19833e-22 -2.25786e-22 -3.86345e-22 -5.39923e-22 4.22748e-22 2.84584e-22 -2.78777e-22 0 0 0.271776 0.416913 0.383071 0.461484 0.453669 0.487761 0.50911 0.515258 0.555522 0.559979 0.577012 0.610437 0.618342 0.63821 0.651116 0.678369 0.691123 0.691697 0.698705 0.726378 0.732345 0.75195 0.746506 0.750871 0.769608 0.782001 0.797798 0.809488 0.797647 0.731564 0.563919 0.263869 0.0251952 8.96728e-05 3.18272e-09 8.22653e-14 0 0 0 0 -1.21153e-22 5.91344e-22 -3.46555e-22 -3.38679e-22 -3.31153e-22 -3.23954e-22 -3.69905e-22 2.58713e-22 -5.57553e-22 0 0 0.256114 0.392886 0.360995 0.434889 0.427524 0.459652 0.479771 0.485564 0.523508 0.527708 0.543759 0.575258 0.582707 0.60143 0.613592 0.639275 0.651294 0.651835 0.658439 0.684517 0.69014 0.708616 0.703485 0.707598 0.725256 0.736935 0.751822 0.762838 0.751679 0.689404 0.531421 0.248662 0.0237432 8.4505e-05 2.9993e-09 7.75005e-14 -5.37004e-22 -2.61436e-22 -2.54733e-22 -2.48365e-22 -6.05767e-22 -2.36538e-22 -5.77592e-22 1.12893e-22 5.51921e-22 1.07985e-22 -1.05687e-22 2.58713e-22 0 0 0 0.240199 0.368472 0.338563 0.407865 0.400958 0.431089 0.449957 0.45539 0.490977 0.494916 0.50997 0.539511 0.546497 0.564057 0.575464 0.59955 0.610822 0.61133 0.617523 0.641981 0.647255 0.664582 0.65977 0.663628 0.680188 0.691142 0.705103 0.715435 0.70497 0.646564 0.498398 0.23321 0.0222678 7.92538e-05 2.81292e-09 7.2714e-14 5.37004e-22 -5.22873e-22 -7.64198e-22 -7.45094e-22 -3.6346e-22 -3.54806e-22 -8.08629e-22 -4.51572e-22 6.62305e-22 4.31938e-22 -9.51183e-22 -9.31367e-22 1.01373e-22 0 0 0.224046 0.343694 0.315796 0.380438 0.373995 0.4021 0.4197 0.424768 0.457961 0.461635 0.475677 0.503232 0.509748 0.526127 0.536767 0.559234 0.569748 0.570221 0.575998 0.598811 0.60373 0.619893 0.615404 0.619002 0.634449 0.644666 0.657689 0.667326 0.657564 0.603086 0.464883 0.217528 0.0207704 7.39244e-05 2.62377e-09 6.78294e-14 5.37004e-22 5.22873e-22 5.09466e-22 4.96729e-22 0 0 4.62074e-22 0 1.10384e-22 7.55892e-22 3.17061e-22 -3.10456e-22 -2.02747e-22 0 0 0.207673 0.318577 0.292718 0.352636 0.346664 0.372715 0.389029 0.393726 0.424493 0.427899 0.440915 0.466456 0.472496 0.487678 0.49754 0.518365 0.528111 0.52855 0.533904 0.55505 0.55961 0.574591 0.570431 0.573766 0.588084 0.597554 0.609625 0.618558 0.60951 0.559013 0.43091 0.201631 0.0192525 6.85221e-05 2.43203e-09 6.28346e-14 0 7.84309e-22 -2.54733e-22 2.48365e-22 7.26921e-22 -2.36538e-22 0 -2.25786e-22 -2.20768e-22 2.15969e-22 2.11374e-22 -2.0697e-22 -4.05493e-22 0 0 0.191095 0.293146 0.269351 0.324485 0.318991 0.342962 0.357973 0.362296 0.390607 0.393741 0.405717 0.42922 0.434778 0.448748 0.457822 0.476985 0.485953 0.486357 0.491284 0.510742 0.514937 0.528723 0.524894 0.527963 0.541138 0.549853 0.56096 0.56918 0.560854 0.514388 0.396511 0.185535 0.0177156 6.30521e-05 2.23788e-09 5.78866e-14 -2.68502e-22 7.84309e-22 -5.09466e-22 -2.48365e-22 -2.42307e-22 -4.73075e-22 0 0 0 4.31938e-22 4.22748e-22 -4.13941e-22 -6.0824e-22 0 0 0.174328 0.267425 0.245718 0.296015 0.291002 0.31287 0.326565 0.330508 0.356335 0.359194 0.37012 0.39156 0.39663 0.409374 0.417653 0.435134 0.443315 0.443684 0.448179 0.465929 0.469757 0.482333 0.47884 0.48164 0.493659 0.501608 0.511741 0.51924 0.511644 0.469256 0.361721 0.169257 0.0161613 5.75199e-05 2.04153e-09 5.27312e-14 -5.37004e-22 -2.61436e-22 5.09466e-22 7.45094e-22 -4.84614e-22 4.73075e-22 -2.31037e-22 6.77358e-22 -4.41537e-22 -4.31938e-22 4.22748e-22 4.13941e-22 -8.10986e-22 0 0 0.15739 0.241441 0.221843 0.267253 0.262727 0.28247 0.294834 0.298394 0.321711 0.324293 0.334157 0.353514 0.358091 0.369597 0.377071 0.392854 0.40024 0.400573 0.404631 0.420657 0.424112 0.435466 0.432313 0.434841 0.445692 0.452869 0.462017 0.468787 0.46193 0.42366 0.326574 0.152811 0.0145909 5.19309e-05 1.84316e-09 4.76194e-14 5.37004e-22 2.61436e-22 -5.09466e-22 4.96729e-22 0 0 4.62074e-22 4.51572e-22 4.41537e-22 -6.47908e-22 2.11374e-22 4.13941e-22 0 0 0 0.140296 0.215218 0.197748 0.238226 0.234192 0.251791 0.262812 0.265985 0.28677 0.289071 0.297864 0.315119 0.319199 0.329455 0.336118 0.350186 0.35677 0.357067 0.360684 0.374969 0.37805 0.38817 0.38536 0.387613 0.397285 0.403683 0.411838 0.417872 0.41176 0.377646 0.291105 0.136214 0.0130062 4.62907e-05 1.64298e-09 4.24523e-14 -5.37004e-22 -2.61436e-22 -2.54733e-22 -2.48365e-22 -4.84614e-22 -2.36538e-22 -4.62074e-22 -4.51572e-22 0 -2.15969e-22 4.22748e-22 -2.0697e-22 2.02747e-22 0 0 0.123063 0.188783 0.173459 0.208965 0.205426 0.220863 0.230531 0.233314 0.251546 0.253565 0.261277 0.276413 0.279992 0.288988 0.294832 0.307173 0.312948 0.313208 0.316381 0.328912 0.331614 0.340491 0.338026 0.340002 0.348487 0.354099 0.361252 0.366545 0.361183 0.33126 0.255349 0.119483 0.0114087 4.06048e-05 1.44117e-09 3.72379e-14 2.68502e-22 0 -2.54733e-22 2.48365e-22 0 2.36538e-22 2.31037e-22 -2.25786e-22 -2.20768e-22 -2.15969e-22 0 -2.0697e-22 -2.02747e-22 0 0 0.105709 0.162161 0.148998 0.179497 0.176458 0.189718 0.198022 0.200413 0.216074 0.217808 0.224433 0.237434 0.240508 0.248236 0.253256 0.263856 0.268817 0.26904 0.271766 0.282529 0.28485 0.292476 0.290358 0.292056 0.299344 0.304165 0.310309 0.314856 0.31025 0.2845