<?xml version="1.0"?>
<VTKFile type="PolyData">
	<PolyData>
		<Piece NumberOfPoints="2601" NumberOfPolys="2500">
			<Points>
				<DataArray type="Float32" NumberOfComponents="3" format="ascii">
 1e-06 0 0 0.200657 0 0 0.228358 0 0 0.254138 0 0 0.274876 0 0 0.291914 0 0 0.305797 0 0 0.317998 0 0 0.328944 0 0 0.338378 0 0 0.347142 0 0 0.354681 0 0 0.361476 0 0 0.36772 0 0 0.373525 0 0 0.378794 0 0 0.38348 0 0 0.387901 0 0 0.391812 0 0 0.396497 0 0 0.40473 0 0 0.42029 0 0 0.440002 0 0 0.460001 0 0 0.480001 0 0 0.500001 0 0 0.520001 0 0 0.540001 0 0 0.560001 0 0 0.580001 0 0 0.600001 0 0 0.620001 0 0 0.640001 0 0 0.660001 0 0 0.680001 0 0 0.700001 0 0 0.720001 0 0 0.740001 0 0 0.760001 0 0 0.780001 0 0 0.800001 0 0 0.820001 0 0 0.840001 0 0 0.860001 0 0 0.880001 0 0 0.900001 0 0 0.920001 0 0 0.940001 0 0 0.960001 0 0 0.980001 0 0 1 0 0 9.99507e-07 3.14108e-08 0 0.200558 0.00630278 0 0.228245 0.00717289 0 0.254012 0.00798265 0 0.27474 0.00863406 0 0.29177 0.00916924 0 0.305646 0.00960532 0 0.317841 0.00998856 0 0.328781 0.0103324 0 0.338211 0.0106287 0 0.34697 0.010904 0 0.354506 0.0111408 0 0.361298 0.0113542 0 0.367539 0.0115504 0 0.37334 0.0117327 0 0.378607 0.0118982 0 0.38329 0.0120454 0 0.387709 0.0121843 0 0.391618 0.0123071 0 0.396302 0.0124543 0 0.40453 0.0127129 0 0.420082 0.0132016 0 0.439785 0.0138208 0 0.459774 0.014449 0 0.479764 0.0150772 0 0.499754 0.0157054 0 0.519744 0.0163336 0 0.539735 0.0169618 0 0.559725 0.0175901 0 0.579715 0.0182183 0 0.599705 0.0188465 0 0.619695 0.0194747 0 0.639685 0.0201029 0 0.659675 0.0207311 0 0.679665 0.0213593 0 0.699656 0.0219876 0 0.719646 0.0226158 0 0.739636 0.023244 0 0.759626 0.0238722 0 0.779616 0.0245004 0 0.799606 0.0251286 0 0.819596 0.0257569 0 0.839587 0.0263851 0 0.859577 0.0270133 0 0.879567 0.0276415 0 0.899557 0.0282697 0 0.919547 0.0288979 0 0.939537 0.0295261 0 0.959527 0.0301544 0 0.979517 0.0307826 0 0.999508 0.0314108 0 9.98027e-07 6.27905e-08 0 0.200261 0.0125993 0 0.227907 0.0143387 0 0.253636 0.0159574 0 0.274334 0.0172596 0 0.291338 0.0183294 0 0.305194 0.0192012 0 0.317371 0.0199673 0 0.328295 0.0206545 0 0.337711 0.021247 0 0.346457 0.0217972 0 0.353981 0.0222706 0 0.360763 0.0226973 0 0.366994 0.0230893 0 0.372788 0.0234538 0 0.378047 0.0237847 0 0.382723 0.0240789 0 0.387135 0.0243565 0 0.391039 0.0246021 0 0.395715 0.0248963 0 0.403931 0.0254132 0 0.41946 0.0263902 0 0.439134 0.0276279 0 0.459093 0.0288837 0 0.479054 0.0301395 0 0.499014 0.0313953 0 0.518975 0.0326511 0 0.538935 0.0339069 0 0.558896 0.0351628 0 0.578857 0.0364186 0 0.598817 0.0376744 0 0.618778 0.0389302 0 0.638738 0.040186 0 0.658699 0.0414418 0 0.678659 0.0426976 0 0.69862 0.0439534 0 0.71858 0.0452092 0 0.738541 0.046465 0 0.758501 0.0477209 0 0.778462 0.0489767 0 0.798422 0.0502325 0 0.818383 0.0514883 0 0.838343 0.0527441 0 0.858304 0.0539999 0 0.878265 0.0552557 0 0.898225 0.0565115 0 0.918186 0.0577673 0 0.938146 0.0590232 0 0.958107 0.060279 0 0.978067 0.0615348 0 0.998028 0.0627906 0 9.95562e-07 9.41083e-08 0 0.199766 0.0188835 0 0.227344 0.0214904 0 0.25301 0.0239165 0 0.273656 0.0258681 0 0.290618 0.0274715 0 0.30444 0.028778 0 0.316587 0.0299263 0 0.327484 0.0309563 0 0.336877 0.0318442 0 0.345601 0.0326689 0 0.353107 0.0333785 0 0.359872 0.0340179 0 0.366088 0.0346055 0 0.371867 0.0351518 0 0.377113 0.0356477 0 0.381778 0.0360886 0 0.386179 0.0365047 0 0.390073 0.0368727 0 0.394737 0.0373137 0 0.402934 0.0380885 0 0.418424 0.0395528 0 0.438049 0.0414078 0 0.457959 0.0432899 0 0.477871 0.0451721 0 0.497782 0.0470543 0 0.517693 0.0489364 0 0.537604 0.0508186 0 0.557516 0.0527007 0 0.577427 0.0545829 0 0.597338 0.0564651 0 0.617249 0.0583472 0 0.637161 0.0602294 0 0.657072 0.0621116 0 0.676983 0.0639937 0 0.696894 0.0658759 0 0.716806 0.0677581 0 0.736717 0.0696402 0 0.756628 0.0715224 0 0.776539 0.0734046 0 0.796451 0.0752867 0 0.816362 0.0771689 0 0.836273 0.0790511 0 0.856184 0.0809332 0 0.876096 0.0828154 0 0.896007 0.0846976 0 0.915918 0.0865797 0 0.935829 0.0884619 0 0.95574 0.0903441 0 0.975652 0.0922262 0 0.995563 0.0941084 0 9.92115e-07 1.25333e-07 0 0.199075 0.025149 0 0.226557 0.0286208 0 0.252134 0.0318519 0 0.272708 0.0344511 0 0.289612 0.0365865 0 0.303386 0.0383265 0 0.315491 0.0398557 0 0.32635 0.0412276 0 0.33571 0.0424101 0 0.344404 0.0435084 0 0.351885 0.0444534 0 0.358626 0.045305 0 0.36482 0.0460875 0 0.370579 0.0468151 0 0.375807 0.0474755 0 0.380456 0.0480627 0 0.384842 0.0486169 0 0.388722 0.049107 0 0.393371 0.0496943 0 0.401539 0.0507261 0 0.416976 0.0526763 0 0.436532 0.0551469 0 0.456374 0.0576534 0 0.476216 0.0601601 0 0.496058 0.0626667 0 0.515901 0.0651734 0 0.535743 0.0676801 0 0.555585 0.0701867 0 0.575428 0.0726934 0 0.59527 0.0752001 0 0.615112 0.0777067 0 0.634954 0.0802134 0 0.654797 0.0827201 0 0.674639 0.0852267 0 0.694481 0.0877334 0 0.714324 0.0902401 0 0.734166 0.0927467 0 0.754008 0.0952534 0 0.77385 0.09776 0 0.793693 0.100267 0 0.813535 0.102773 0 0.833377 0.10528 0 0.85322 0.107787 0 0.873062 0.110293 0 0.892904 0.1128 0 0.912747 0.115307 0 0.932589 0.117813 0 0.952431 0.12032 0 0.972273 0.122827 0 0.992116 0.125333 0 9.87688e-07 1.56434e-07 0 0.198186 0.0313896 0 0.225546 0.035723 0 0.251009 0.0397559 0 0.271492 0.0430001 0 0.28832 0.0456654 0 0.302032 0.0478372 0 0.314083 0.0497459 0 0.324894 0.0514581 0 0.334212 0.052934 0 0.342868 0.0543049 0 0.350315 0.0554844 0 0.357026 0.0565473 0 0.363193 0.0575241 0 0.368926 0.0584321 0 0.37413 0.0592564 0 0.378758 0.0599894 0 0.383125 0.0606811 0 0.386988 0.0612929 0 0.391616 0.0620258 0 0.399747 0.0633137 0 0.415115 0.0657478 0 0.434585 0.0688315 0 0.454338 0.07196 0 0.474091 0.0750887 0 0.493845 0.0782174 0 0.513599 0.0813461 0 0.533353 0.0844748 0 0.553106 0.0876035 0 0.57286 0.0907321 0 0.592614 0.0938608 0 0.612368 0.0969895 0 0.632122 0.100118 0 0.651875 0.103247 0 0.671629 0.106376 0 0.691383 0.109504 0 0.711137 0.112633 0 0.73089 0.115762 0 0.750644 0.11889 0 0.770398 0.122019 0 0.790152 0.125148 0 0.809905 0.128276 0 0.829659 0.131405 0 0.849413 0.134534 0 0.869167 0.137662 0 0.88892 0.140791 0 0.908674 0.14392 0 0.928428 0.147049 0 0.948182 0.150177 0 0.967936 0.153306 0 0.987689 0.156435 0 9.82287e-07 1.87381e-07 0 0.197103 0.0375993 0 0.224313 0.04279 0 0.249636 0.0476206 0 0.270007 0.0515066 0 0.286743 0.0546992 0 0.30038 0.0573006 0 0.312366 0.0595869 0 0.323117 0.0616379 0 0.332385 0.0634058 0 0.340993 0.0650479 0 0.348399 0.0664606 0 0.355073 0.0677339 0 0.361207 0.0689039 0 0.366909 0.0699915 0 0.372085 0.0709789 0 0.376687 0.0718569 0 0.38103 0.0726854 0 0.384872 0.0734182 0 0.389474 0.0742962 0 0.397561 0.0758389 0 0.412845 0.0787544 0 0.432208 0.0824481 0 0.451853 0.0861956 0 0.471499 0.0899432 0 0.491145 0.0936908 0 0.51079 0.0974385 0 0.530436 0.101186 0 0.550082 0.104934 0 0.569728 0.108681 0 0.589373 0.112429 0 0.609019 0.116177 0 0.628665 0.119924 0 0.648311 0.123672 0 0.667956 0.127419 0 0.687602 0.131167 0 0.707248 0.134915 0 0.726894 0.138662 0 0.746539 0.14241 0 0.766185 0.146158 0 0.785831 0.149905 0 0.805477 0.153653 0 0.825122 0.1574 0 0.844768 0.161148 0 0.864414 0.164896 0 0.88406 0.168643 0 0.903705 0.172391 0 0.923351 0.176139 0 0.942997 0.179886 0 0.962642 0.183634 0 0.982288 0.187382 0 9.75917e-07 2.18143e-07 0 0.195824 0.0437719 0 0.222858 0.0498147 0 0.248017 0.0554384 0 0.268256 0.0599623 0 0.284884 0.0636791 0 0.298432 0.0667075 0 0.31034 0.0693692 0 0.321022 0.0717568 0 0.330229 0.073815 0 0.338781 0.0757266 0 0.346139 0.0773713 0 0.352771 0.0788536 0 0.358864 0.0802156 0 0.364529 0.0814819 0 0.369671 0.0826314 0 0.374244 0.0836535 0 0.378559 0.0846179 0 0.382376 0.0854711 0 0.386948 0.0864932 0 0.394983 0.0882891 0 0.410168 0.0916833 0 0.429405 0.0959834 0 0.448923 0.100346 0 0.468441 0.104709 0 0.487959 0.109072 0 0.507478 0.113435 0 0.526996 0.117798 0 0.546514 0.12216 0 0.566033 0.126523 0 0.585551 0.130886 0 0.605069 0.135249 0 0.624588 0.139612 0 0.644106 0.143975 0 0.663624 0.148338 0 0.683143 0.1527 0 0.702661 0.157063 0 0.722179 0.161426 0 0.741698 0.165789 0 0.761216 0.170152 0 0.780734 0.174515 0 0.800253 0.178878 0 0.819771 0.183241 0 0.839289 0.187603 0 0.858808 0.191966 0 0.878326 0.196329 0 0.897844 0.200692 0 0.917363 0.205055 0 0.936881 0.209418 0 0.956399 0.213781 0 0.975918 0.218143 0 9.68583e-07 2.4869e-07 0 0.194353 0.0499013 0 0.221184 0.0567903 0 0.246153 0.0632014 0 0.26624 0.0683589 0 0.282743 0.0725961 0 0.29619 0.0760486 0 0.308008 0.0790829 0 0.318609 0.081805 0 0.327748 0.0841513 0 0.336236 0.0863306 0 0.343538 0.0882057 0 0.35012 0.0898955 0 0.356167 0.0914483 0 0.36179 0.0928918 0 0.366894 0.0942022 0 0.371432 0.0953675 0 0.375714 0.096467 0 0.379502 0.0974396 0 0.38404 0.0986048 0 0.392015 0.100652 0 0.407085 0.104522 0 0.426178 0.109424 0 0.445549 0.114398 0 0.464921 0.119371 0 0.484293 0.124345 0 0.503664 0.129319 0 0.523036 0.134293 0 0.542408 0.139267 0 0.561779 0.14424 0 0.581151 0.149214 0 0.600523 0.154188 0 0.619894 0.159162 0 0.639266 0.164136 0 0.658638 0.169109 0 0.678009 0.174083 0 0.697381 0.179057 0 0.716753 0.184031 0 0.736124 0.189005 0 0.755496 0.193978 0 0.774867 0.198952 0 0.794239 0.203926 0 0.813611 0.2089 0 0.832982 0.213874 0 0.852354 0.218847 0 0.871726 0.223821 0 0.891097 0.228795 0 0.910469 0.233769 0 0.929841 0.238743 0 0.949212 0.243716 0 0.968584 0.24869 0 9.60294e-07 2.78991e-07 0 0.192689 0.0559815 0 0.219291 0.0637098 0 0.244047 0.0709021 0 0.263962 0.076688 0 0.280323 0.0814414 0 0.293655 0.0853146 0 0.305372 0.0887187 0 0.315883 0.0917724 0 0.324943 0.0944046 0 0.333358 0.0968495 0 0.340598 0.0989529 0 0.347123 0.100849 0 0.353119 0.102591 0 0.358693 0.10421 0 0.363754 0.10568 0 0.368253 0.106987 0 0.372499 0.108221 0 0.376254 0.109312 0 0.380754 0.110619 0 0.38866 0.112916 0 0.403602 0.117257 0 0.422531 0.122757 0 0.441736 0.128336 0 0.460942 0.133916 0 0.480148 0.139496 0 0.499354 0.145076 0 0.51856 0.150655 0 0.537765 0.156235 0 0.556971 0.161815 0 0.576177 0.167395 0 0.595383 0.172975 0 0.614589 0.178555 0 0.633795 0.184134 0 0.653001 0.189714 0 0.672207 0.195
[...]
			<PointData Scalars="VitesseX">
				<DataArray Name="VitesseX" type="Float32" format="ascii">
 0 1.42876 1.21457 1.62268 1.55651 1.79797 1.85764 1.88842 2.09961 2.14364 2.09105 2.32365 2.33491 2.39917 2.4475 2.45363 2.56299 2.59461 2.63531 2.33671 1.42775 0.190516 0.00107381 3.1917e-08 3.63337e-13 8.13055e-23 0 0 0 0 0 0 0 0 0 0 0 0 0 0 0 0 0 0 0 0 0 0 0 0 0 0 1.42805 1.21397 1.62188 1.55574 1.79708 1.85673 1.88749 2.09858 2.14258 2.09002 2.3225 2.33376 2.39799 2.4463 2.45242 2.56173 2.59333 2.63401 2.33555 1.42705 0.190422 0.00107328 3.19012e-08 3.63157e-13 9.76142e-23 0 0 0 0 0 0 0 0 2.33167e-22 0 -2.20213e-22 0 0 0 1.98192e-22 1.93358e-22 -1.88754e-22 -1.84365e-22 0 0 1.72341e-22 -1.68674e-22 0 3.23579e-22 0 0 1.42594 1.21217 1.61947 1.55344 1.79442 1.85398 1.88469 2.09547 2.13941 2.08692 2.31906 2.33031 2.39444 2.44267 2.44879 2.55794 2.58949 2.63011 2.33209 1.42493 0.190141 0.00107169 3.1854e-08 3.62615e-13 7.87927e-23 0 0 -2.83131e-22 0 0 0 0 0 0 -2.26505e-22 0 0 0 0 0 0 -1.88754e-22 0 0 0 1.72341e-22 -3.37348e-22 0 0 0 0 1.42242 1.20918 1.61547 1.5496 1.78999 1.8494 1.88004 2.0903 2.13413 2.08177 2.31334 2.32455 2.38853 2.43664 2.44274 2.55162 2.5831 2.62362 2.32633 1.42142 0.189671 0.00106904 3.17753e-08 3.61708e-13 -7.44227e-23 0 2.93617e-22 0 2.73368e-22 0 0 0 0 2.33167e-22 0 2.20213e-22 0 0 0 0 0 0 0 0 3.52341e-22 1.72341e-22 -1.68674e-22 0 0 0 0 1.41749 1.20499 1.60988 1.54424 1.78379 1.843 1.87353 2.08306 2.12674 2.07456 2.30533 2.3165 2.38026 2.4282 2.43428 2.54278 2.57415 2.61453 2.31828 1.41649 0.189014 0.00106534 3.16653e-08 3.60453e-13 -8.28958e-23 0 -1.46809e-22 0 0 0 0 0 0 0 0 0 0 2.08623e-22 0 0 0 0 0 -1.80174e-22 1.76171e-22 -3.44682e-22 0 -1.6516e-22 -1.61789e-22 0 0 1.41117 1.19962 1.6027 1.53735 1.77584 1.83477 1.86517 2.07376 2.11725 2.0653 2.29504 2.30617 2.36964 2.41737 2.42342 2.53144 2.56267 2.60287 2.30794 1.41017 0.188171 0.00106059 3.1524e-08 3.58826e-13 1.08269e-22 1.52455e-22 -1.46809e-22 0 2.73368e-22 2.64256e-22 0 0 2.40233e-22 -2.33167e-22 -2.26505e-22 0 -2.14262e-22 -2.08623e-22 0 1.98192e-22 0 -1.88754e-22 0 0 1.76171e-22 0 3.37348e-22 -1.6516e-22 0 0 0 1.40345 1.19306 1.59393 1.52894 1.76612 1.82474 1.85497 2.06242 2.10567 2.05401 2.28249 2.29356 2.35668 2.40415 2.41017 2.5176 2.54865 2.58863 2.29532 1.40246 0.187142 0.00105479 3.13517e-08 3.56861e-13 2.61197e-22 0 1.46809e-22 -1.41566e-22 -1.36684e-22 0 -2.55731e-22 0 0 2.33167e-22 0 0 0 2.08623e-22 0 0 0 1.88754e-22 0 -1.80174e-22 -1.76171e-22 0 3.37348e-22 -1.6516e-22 1.61789e-22 0 0 1.39435 1.18532 1.5836 1.51902 1.75467 1.81291 1.84294 2.04905 2.09202 2.04069 2.26769 2.27868 2.34139 2.38856 2.39454 2.50127 2.53213 2.57185 2.28043 1.39337 0.185928 0.00104795 3.11483e-08 3.54564e-13 -7.78751e-23 -1.52455e-22 -1.46809e-22 0 1.36684e-22 1.32128e-22 0 0 -2.40233e-22 0 -2.26505e-22 0 0 0 -2.03274e-22 0 0 -1.88754e-22 1.84365e-22 0 -1.76171e-22 -1.72341e-22 -1.68674e-22 0 0 0 0 1.38387 1.17641 1.5717 1.50761 1.74149 1.79928 1.82909 2.03365 2.0763 2.02535 2.25065 2.26156 2.3238 2.37061 2.37655 2.48247 2.5131 2.55252 2.26329 1.3829 0.184531 0.00104007 3.09143e-08 3.51902e-13 -3.17963e-23 1.52455e-22 1.46809e-22 -1.41566e-22 -1.36684e-22 -1.32128e-22 0 1.2387e-22 0 0 0 0 2.14262e-22 0 0 0 0 0 1.84365e-22 3.60349e-22 -1.76171e-22 0 0 0 1.61789e-22 0 0 1.37203 1.16635 1.55825 1.49471 1.72658 1.78388 1.81344 2.01625 2.05853 2.00802 2.23138 2.2422 2.30391 2.35032 2.35621 2.46123 2.49159 2.53067 2.24392 1.37106 0.182952 0.00103117 3.06497e-08 3.48865e-13 3.54166e-23 -1.52455e-22 1.46809e-22 1.41566e-22 1.36684e-22 0 -1.27866e-22 1.2387e-22 0 -2.33167e-22 0 0 2.14262e-22 -2.08623e-22 0 0 0 -3.77508e-22 -3.68729e-22 3.60349e-22 1.76171e-22 1.72341e-22 0 0 1.61789e-22 0 0 1.35883 1.15513 1.54326 1.48033 1.70997 1.76672 1.79599 1.99685 2.03872 1.9887 2.20992 2.22063 2.28175 2.32771 2.33354 2.43755 2.46762 2.50633 2.22234 1.35787 0.181192 0.00102125 3.03549e-08 3.4547e-13 7.34706e-23 -1.52455e-22 0 0 0 1.32128e-22 -2.55731e-22 1.2387e-22 -1.20116e-22 0 0 0 0 0 2.03274e-22 -1.98192e-22 3.86716e-22 1.88754e-22 0 0 0 -1.72341e-22 -1.68674e-22 -1.6516e-22 1.61789e-22 0 0 1.34429 1.14277 1.52675 1.46449 1.69168 1.74782 1.77678 1.97549 2.01691 1.96743 2.18628 2.19687 2.25734 2.30281 2.30858 2.41147 2.44122 2.47952 2.19856 1.34334 0.179253 0.00101033 3.00301e-08 3.41762e-13 4.75571e-23 -1.52455e-22 0 -1.41566e-22 -2.73368e-22 1.32128e-22 -1.27866e-22 1.2387e-22 0 1.16583e-22 0 0 -2.14262e-22 2.08623e-22 2.03274e-22 -1.98192e-22 -1.93358e-22 -1.88754e-22 0 -1.80174e-22 1.76171e-22 1.72341e-22 -1.68674e-22 -1.6516e-22 3.23579e-22 0 0 1.32843 1.12928 1.50873 1.44721 1.67171 1.72719 1.75581 1.95217 1.99311 1.94421 2.16047 2.17095 2.2307 2.27563 2.28133 2.38301 2.41241 2.45025 2.17261 1.32749 0.177138 0.000998403 2.96757e-08 3.37738e-13 -6.39761e-23 -1.52455e-22 1.46809e-22 0 0 1.32128e-22 0 0 0 -2.33167e-22 -1.13253e-22 -1.10107e-22 -1.07131e-22 2.08623e-22 -2.03274e-22 0 -1.93358e-22 0 1.84365e-22 -1.80174e-22 -1.76171e-22 -1.72341e-22 -1.68674e-22 -1.6516e-22 0 0 0 1.31125 1.11468 1.48922 1.42849 1.6501 1.70486 1.73311 1.92693 1.96734 1.91907 2.13254 2.14288 2.20185 2.24621 2.25183 2.3522 2.38122 2.41857 2.14452 1.31033 0.174847 0.000985494 2.9292e-08 3.33356e-13 -1.71829e-22 -7.62276e-23 0 1.41566e-22 0 -2.64256e-22 -1.27866e-22 -2.4774e-22 -2.40233e-22 0 2.26505e-22 1.10107e-22 -1.07131e-22 0 2.03274e-22 1.98192e-22 0 0 0 0 3.52341e-22 0 1.68674e-22 0 -1.61789e-22 0 0 1.29278 1.09898 1.46824 1.40837 1.62685 1.68085 1.70869 1.89979 1.93963 1.89204 2.1025 2.11269 2.17084 2.21457 2.22011 2.31907 2.34767 2.3845 2.11431 1.29187 0.172384 0.000971612 2.88794e-08 3.287e-13 2.45415e-24 -1.52455e-22 2.93617e-22 1.41566e-22 2.73368e-22 2.64256e-22 -1.27866e-22 2.4774e-22 -1.20116e-22 -1.16583e-22 1.13253e-22 1.10107e-22 1.07131e-22 -1.04312e-22 -1.01637e-22 0 0 1.88754e-22 0 0 0 -1.72341e-22 0 1.6516e-22 -1.61789e-22 0 0 1.27303 1.08219 1.44582 1.38686 1.602 1.65517 1.6826 1.87077 1.91 1.86314 2.07039 2.08042 2.13768 2.18074 2.1862 2.28364 2.31182 2.34808 2.08202 1.27214 0.169751 0.000956771 2.84382e-08 3.23636e-13 1.32217e-22 -7.62276e-23 -2.20213e-22 7.07828e-23 -2.05026e-22 1.32128e-22 -1.27866e-22 1.2387e-22 1.20116e-22 0 -3.39758e-22 0 0 0 0 -1.98192e-22 -9.6679e-23 0 1.84365e-22 0 0 1.72341e-22 0 1.6516e-22 1.61789e-22 0 0 1.25203 1.06434 1.42196 1.36398 1.57557 1.62787 1.65484 1.83991 1.87849 1.8324 2.03623 2.0461 2.10241 2.14476 2.15013 2.24597 2.27368 2.30934 2.04767 1.25115 0.166951 0.000940986 2.79691e-08 3.18304e-13 2.49671e-22 1.52455e-22 1.46809e-22 0 0 -1.32128e-22 -2.55731e-22 -1.2387e-22 -2.40233e-22 1.16583e-22 0 1.10107e-22 2.14262e-22 3.12935e-22 2.03274e-22 9.9096e-23 1.93358e-22 -1.88754e-22 -1.84365e-22 9.00872e-23 -1.76171e-22 -1.72341e-22 0 0 -1.61789e-22 0 0 1.22979 1.04543 1.39671 1.33975 1.54759 1.59895 1.62544 1.80723 1.84512 1.79985 2.00006 2.00976 2.06507 2.10667 2.11194 2.20608 2.23329 2.26832 2.0113 1.22893 0.163986 0.000924273 2.74723e-08 3.12626e-13 -3.34434e-22 -1.52455e-22 -2.20213e-22 -2.83131e-22 2.05026e-22 -6.60639e-23 1.91799e-22 1.85805e-22 1.20116e-22 1.16583e-22 0 -2.20213e-22 -2.14262e-22 0 -1.01637e-22 -9.9096e-23 2.90037e-22 9.43771e-23 0 0 0 1.72341e-22 1.68674e-22 1.6516e-22 -1.61789e-22 0 0 1.20634 1.0255 1.37007 1.3142 1.51808 1.56846 1.59445 1.77276 1.80994 1.76553 1.96192 1.97143 2.02569 2.0665 2.07167 2.16401 2.1907 2.22507 1.97295 1.20549 0.160858 0.000906647 2.69484e-08 3.06698e-13 3.50721e-22 -1.90569e-22 0 -7.07828e-23 2.05026e-22 0 -2.55731e-22 6.1935e-23 -2.40233e-22 1.16583e-22 0 2.20213e-22 3.21392e-22 -3.12935e-22 3.04911e-22 -2.97288e-22 1.93358e-22 -2.83131e-22 1.84365e-22 0 -1.76171e-22 -8.61704e-23 -8.4337e-23 0 -1.61789e-22 0 0 1.1817 1.00455 1.34208 1.28736 1.48707 1.53642 1.56188 1.73655 1.77296 1.72947 1.92184 1.93116 1.98431 2.02428 2.02935 2.1198 2.14595 2.17962 1.93264 1.18087 0.157572 0.000888127 2.63979e-08 3.00455e-13 1.3019e-23 -1.52455e-22 -1.10107e-22 1.76957e-22 -6.8342e-23 -6.60639e-23 1.91799e-22 2.4774e-22 -3.60349e-22 5.82917e-23 5.66263e-23 0 -3.21392e-22 -1.04312e-22 -1.01637e-22 -9.9096e-23 1.93358e-22 -4.71886e-22 1.84365e-22 1.80174e-22 -1.76171e-22 8.61704e-23 -1.68674e-22 1.6516e-22 -1.61789e-22 0 0 1.15589 0.982609 1.31277 1.25924 1.45459 1.50287 1.52776 1.69862 1.73424 1.69169 1.87987 1.88898 1.94097 1.98007 1.98503 2.07351 2.09909 2.13201 1.89043 1.15508 0.154131 0.00086873 2.58214e-08 2.93837e-13 -7.17743e-23 -1.90569e-23 2.20213e-22 -2.12348e-22 1.70855e-22 1.6516e-22 1.91799e-22 -1.2387e-22 2.40233e-22 -1.16583e-22 1.13253e-22 2.75267e-22 -1.07131e-22 -1.04312e-22 -1.01637e-22 9.9096e-23 3.86716e-22 0 -9.21823e-23 1.80174e-22 8.80853e-23 -1.72341e-22 -1.68674e-22 0 0 0 0 1.12894 0.9597 1.28217 1.22988 1.42068 1.46783 1.49214 1.65902 1.69381 1.65225 1.83604 1.84494 1.89572 1.93391 1.93875 2.02516 2.05015 2.08231 1.84636 1.12815 0.150538 0.000848476 2.52194e-08 2.87014e-13 2.19318e-22 0 -1.46809e-22 7.07828e-23 -6.8342e-23 1.32128e-22 -3.19664e-22 0 1.20116e-22 5.82917e-23 0 5.50533e-23 5.35654e-23 -5.21558e-23 1.01637e-22 -1.98192e-22 -2.90037e-22 3.77508e-22 0 -2.70262e-22 0 0 -8.4337e-23 -1.6516e-22 -1.61789e-22 0 0 1.10088 0.935844 1.25029 1.19931 1.38536 1.43134 1.45505 1.61778 1.6517 1.61118 1.7904 1.79908 1.8486 1.88583 1.89056 1.97482 1.99918 2.03054 1.80046 1.1001 0.146795 0.000827384 2.45925e-08 2.79831e-13 -4.9696e-24 6.08555e-24 7.34044e-23 -1.41566e-22 1.36684e-22 -3.3032e-23 1.91799e-22 -9.29024e-23 -3.00291e-23 0 -1.69879e-22 5.50533e-23 1.60696e-22 -4.17246e-22 2.54092e-22 9.9096e-23 0 -1.88754e-22 9.21823e-23 1.80174e-22 2.64256e-22 -8.61704e-23 2.53011e-22 2.4774e-22 -8.08947e-23 0 0 1.07173 0.911064 1.21719 1.16755 1.34868 1.39344 1.41653 1.57494 1.60797 1.56852 1.74299 1.75144 1.79965 1.8359 1.8405 1.92253 1.94625 1.97678 1.75279 1.07097 0.142908 0.000805476 2.39413e-08 2.72423e-13 4.24482e-23 -1.42927e-22 1.88099e-22 -8.40546e-23 1.62312e-22 -1.48644e-22 2.07782e-22 -3.09675e-23 1.20116e-22 0 2.54818e-22 1.10107e-22 1.07131e-22 -1.56467e-22 1.52455e-22 4.9548e-23 3.38376e-22 4.71886e-23 -1.84365e-22 -9.00872e-23 0 -2.58511e-22 -8.4337e-23 0 -8.08947e-23 0 0 1.04152 0.885385 1.18288 1.13465 1.31067 1.35416 1.3766 1.53055 1.56265 1.52431 1.69387 1.70208 1.74892 1.78415 1.78862 1.86834 1.89139 1.92106 1.70338 1.04079 0.138881 0.000782773 2.32665e-08 2.64813e-13 6.11329e-23 -5.71707e-23 1.6516e-22 -1.85805e-22 2.77639e-23 2.4774e-23 -3.9958e-23 -3.09675e-23 1.50145e-22 -1.45729e-22 -1.98192e-22 1.37633e-22 -8.03481e-23 -1.04312e-22 -1.01637e-22 -1.98192e-22 0 9.43771e-23 9.21823e-23 -9.00872e-23 0 0 -8.4337e-23 8.258e-23 8.08947e-23 0 0 1.01028 0.858832 1.14741 1.10062 1.27136 1.31355 1.33532 1.48465 1.51578 1.47859 1.64307 1.65103 1.69647 1.73065 1.73498 1.81231 1.83467 1.86345 1.6523 1.00957 0.134715 0.000759298 2.25687e-08 2.56767e-13 2.14376e-22 -3.0491e-22 2.56915e-22 1.06174e-22 2.22112e-22 -2.14708e-22 -1.79811e-23 -3.48384e-22 -6.00581e-23 -1.31156e-22 -1.98192e-22 -8.258e-23 1.07131e-22 -2.34701e-22 -2.54092e-23 -3.46836e-22 -1.45018e-22 1.41566e-22 9.21823e-23 -9.00872e-23 0 8.61704e-23 -4.21685e-23 -8.258e-23 1.61789e-22 0 0 0.978052 0.831432 1.1108 1.0655 1.2308 1.27164 1.29271 1.43729 1.46742 1.43142 1.59065 1.59836 1.64235 1.67543 1.67963 1.75449 1.77613 1.804 1.59958 0.977363 0.130417 0.000735073 2.18487e-08 2.48666e-13 -2.20868e-22 1.14341e-22 -3.67022e-23 3.18523e-22 3.4171e-22 1.81676e-22 1.11882e-22 3.09675e-22 4.129e-23 -2.00378e-22 2.61896e-22 -2.4774e-22 1.33913e-23 1.56467e-22 -1.01637e-22 1.48644e-22 9.6679e-23 4.71886e-23 -9.21823e-23 4.50436e-23 2.20213e-22 0 2.10843e-22 -2.4774e-22 2.02237e-22 0 0 0.944855 0.803211 1.0731 1.02934 1.18902 1.22848 1.24883 1.3885 1.41762 1.38283 1.53666 1.54411 1.5866 1.61856 1.62262 1.69494 1.71585 1.74276 1.54529 0.944189 0.125991 0.000710123 2.11071e-08 2.40232e-13 1.33999e-22 -1.52455e-22 7.34044e-23 -1.41566e-22 -1.70855e-22 -3.3032e-23 1.59832e-22 -2.78707e-22 2.70262e-22 3.64323e-23 -6.37045e-23 -1.54837e-22 5.35654e-23 5.21558e-23 2.54092e-22 -4.45932e-22 -1.20849e-22 -1.17971e-22 2.53501e-22 -2.25218e-23 0 8.61704e-23 1.68674e-22 -3.3032e-22 3.23579e-22 0 0 0.910725 0.774197 1.03433 0.992156 1.14607 1.18411 1.20372 1.33834 1.36641 1.33288 1.48115 1.48833 1.52929 1.5601 1.564 1.63371 1.65387 1.67981 1.48947 0.910083 0.12144 0.000684472 2.03447e-08 2.31561e-13 1.28845e-22 4.57366e-22 -1.46809e-22 7.07828e-23 -3.4171e-23 -2.64256e-22 1.91799e-22 1.2387e-22 3.00291e-22 1.60302e-22 -8.49394e-23 -4.129e-22 2.34349e-23 2.20032e-23 -8.89323e-23 2.22966e-22 4.83395e-22 -1.88754e-22 -5.76139e-22 9.00872e-23 -1.10107e-22 -1.93883e-22 8.4337e-23 -1.6516e-22 0 0 0 0.875696 0.74442 0.99455 0.953996 1.10199 1.13856 1.15743 1.28687 1.31385 1.28162 1.42418 1.43108 1.47047 1.50009 1.50385 1.57088 1.59026 1.6152 1.43218 0.875079 0.116769 0.000658145 1.95621e-08 2.22662e-13 -2.63797e-22 -2.28683e-22 -2.20213e-22 -1.41566e-22 1.36684e-22 -1.32128e-22 -6.39329e-23 -1.85805e-22 1.80174e-22 1.74875e-22 5.66263e-23 5.50533e-23 -6.69567e-23 -2.60779e-22 3.49377e-22 4.72254e-23 1.4804e-22 2.41841e-22 1.26751e-22 2.25218e-22 -3.08299e-22 -1.50798e-22 2.10843e-23 4.129e-23 2.02237e-22 0 0 0.839803 0.713907 0.953785 0.914893 1.05682 1.0919 1.10999 1.23412 1.26 1.22909 1.36581 1.37243 1.4102 1.43861 1.44221 1.50649 1.52507 1.549 1.37348 0.839211 0.111983 0.000631169 1.87603e-08 2.13504e-13 1.74989e-22 7.62276e-23 0 -1.41566e-22 0 -3.96384e-22 -3.19664e-22 -1.2387e-22 -1.80174e-22 -1.45729e-22 1.13253e-22 5.50533e-23 5.35654e-23 4.17246e-22 -2.66797e-22 1.48644e-22 1.87316e-22 3.24421e-23 1.33952e-22 -1.12609e-23 2.80772e-22 -1.29256e-22 2.31927e-22 1.03225e-22 -2.02237e-22 0 0 0.803081 0.682691 0.912079 0.874888 1.01061 1.04415 1.06145 1.18016 1.20491 1.17534 1.30608 1.31242 1.34854 1.3757 1.37915 1.44062 1.45839 1.48127 1.31342 0.802516 0.107086 0.00060357 1.794e-08 2.04147e-13 -7.96689e-23 3.0491e-22 0 -7.07828e-23 6.8342e-23 6.60639e-23 1.91799e-22 -6.1935e-23 6.00581e-23 -1.16583e-22 -1.13253e-22 -3.57846e-22 -1.60696e-22 -7.82336e-23 -2.03274e-22 -2.22966e-22 -3.62546e-23 -3.3032e-22 3.91775e-22 -1.85805e-22 -2.4774e-23 5.25101e-23 2.003e-22 3.40642e-22 1.51678e-22 0 0 0.765567 0.6508 0.869474 0.834019 0.963402 0.995375 1.01187 1.12503 1.14862 1.12044 1.24507 1.25111 1.28554 1.31144 1.31472 1.37332 1.39026 1.41207 1.25207 0.765028 0.102084 0.000575376 1.7102e-08 1.94668e-13 -1.70712e-22 3.0491e-22 -2.93617e-22 2.12348e-22 6.8342e-23 3.3032e-22 6.39329e-23 0 -1.20116e-22 0 3.39758e-22 -1.6516e-22 -1.60696e-22 5.21558e-23 -5.08184e-23 -1.48644e-22 -1.20849e-22 2.83131e-22 -1.84365e-22 -7.88263e-23 -7.70746e-23 1.93883e-22 1.21234e-22 -2.0645e-22 -1.98129e-22 0 0 0.727297 0.618267 0.82601 0.792328 0.915242 0.945617 0.961284 1.06879 1.0912 1.06443 1.18283 1.18857 1.22128 1.24588 1.249 1.30467 1.32076 1.34148 1.18948 0.726785 0.0969808 0.000546614 1.62471e-08 1.84931e-13 1.72486e-22 1.52455e-22 -1.46809e-22 -1.41566e-22 0 0 0 -1.2387e-22 -6.00581e-23 -2.33167e-22 1.13253e-22 -1.6516e-22 -1.60696e-22 -1.04312e-22 1.52455e-22 4.9548e-23 -2.90037e-22 -4.24697e-22 -2.0741e-22 -9.00872e-23 -1.54149e-22 -2.15426e-22 1.68674e-22 1.13547e-22 -1.1123e-22 0 0 0.688309 0.585124 0.78173 0.749854 0.86618 0.894926 0.909754 1.0115 1.03271 1.00737 1.11943 1.12485 1.15581 1.17909 1.18205 1.23473 1.24996 1.26957 1.12572 0.687825 0.091782 0.000517312 1.53761e-08 1.75014e-13 4.25099e-22 -3.0491e-22 1.46809e-22 -1.41566e-22 -2.73368e-22 0 0 0 0 0 -1.13253e-22 0 0 0 0 0 -4.83395e-23 2.35943e-22 -1.38273e-22 -1.35131e-22 -1.32128e-22 -1.29256e-22 -1.4759e-22 1.03225e-22 -2.2246e-22 0 0 0.648643 0.551404 0.73668 0.70664 0.816262 0.843352 0.857325 0.953205 0.973193 0.949316 1.05491 1.06003 1.0892 1.11114 1.11393 1.16357 1.17793 1.19641 1.06084 0.648186 0.0864927 0.000487499 1.449e-08 1.64879e-13 2.452e-22 3.0491e-22 1.46809e-22 1.41566e-22 0 0 0 1.2387e-22 2.40233e-22 2.33167e-22 -1.13253e-22 -2.75267e-22 -2.14262e-22 -1.04312e-22 -1.01637e-22 -9.9096e-23 -2.41697e-22 -9.43771e-23 -2.30456e-22 4.50436e-23 2.20213e-22 4.30852e-23 -4.21685e-23 1.03225e-22 0 0 0 0.608336 0.517139 0.690902 0.662729 0.765539 0.790946 0.80405 0.893972 0.912718 0.890325 0.989361 0.994157 1.02152 1.0421 1.04471 1.09127 1.10473 1.12206 0.994921 0.607907 0.081118 0.000457206 1.35896e-08 1.54663e-13 2.88195e-22 -1.52455e-22 0 1.41566e-22 2.73368e-22 -2.64256e-22 -2.55731e-22 1.2387e-22 2.40233e-22 2.33167e-22 0 -1.10107e-22 2.14262e-22 -2.08623e-22 -3.04911e-22 -2.97288e-22 -1.45018e-22 -1.41566e-22 -3.22638e-22 -1.80174e-22 2.64256e-22 1.72341e-22 -3.79517e-22 -3.7161e-22 4.04473e-23 0 0 0.567428 0.482365 0.644443 0.618164 0.714061 0.737759 0.749982 0.833858 0.851343 0.830455 0.922832 0.927306 0.952827 0.972021 0.974455 1.01789 1.03044 1.04661 0.928017 0.567029 0.0756632 0.000426461 1.26758e-08 1.44307e-13 2.90699e-22 0 -1.46809e-22 -1.41566e-22 0 3.96384e-22 1.27866e-22 0 1.20116e-22 0 0 0 2.14262e-22 2.08623e-22 2.03274e-22 1.98192e-22 0 0 1.84365e-22 0 4.40427e-23 3.01596e-22 1.26506e-22 -1.2387e-22 -8.08947e-23 0 0 0.525961 0.447114 0.597347 0.572989 0.661878 0.683844 0.695174 0.77292 0.789127 0.769766 0.855392 0.859539 0.883195 0.900986 0.903242 0.943501 0.95514 0.970123 0.860199 0.52559 0.0701338 0.000395296 1.17494e-08 1.33672e-13 -7.08572e-23 1.52455e-22 0 -1.41566e-22 0 -1.32128e-22 0 -2.4774e-22 -1.20116e-22 -1.16583e-22 -2.26505e-22 -1.10107e-22 0 3.12935e-22 -1.01637e-22 9.9096e-23 2.90037e-22 -9.43771e-23 0 -9.00872e-23 -8.80853e-23 8.61704e-23 8.4337e-23 -8.258e-23 -1.61789e-22 0 0 0.483974 0.411421 0.549662 0.527249 0.609041 0.629254 0.63968 0.711219 0.726133 0.708317 0.787108 0.790923 0.812691 0.829062 0.831138 0.868183 0.878893 0.89268 0.791531 0.483634 0.0645351 0.00036374 1.08115e-08 1.23095e-13 2.33848e-22 3.0491e-22 2.93617e-22 -1.41566e-22 -2.73368e-22 -1.32128e-22 0 3.7161e-22 3.60349e-22 0 -2.26505e-22 -1.10107e-22 -1.07131e-22 3.12935e-22 -2.03274e-22 -9.9096e-23 -9.6679e-23 -1.88754e-22 0 0 0 1.72341e-22 1.68674e-22 -1.6516e-22 -2.42684e-22 0 0 0.44151 0.375323 0.501435 0.480988 0.555604 0.574043 0.583554 0.648817 0.662422 0.646169 0.718047 0.721528 0.741386 0.75632 0.758214 0.792008 0.801779 0.814356 0.722082 0.4412 0.0588728 0.000331825 9.86289e-09 1.12244e-13 -3.87571e-23 1.52455e-22 0 -1.41566e-22 1.36684e-22 3.96384e-22 1.27866e-22 -2.4774e-22 -2.40233e-22 2.33167e-22 -3.39758e-22 -4.40426e-22 -2.14262e-22 -1.04312e-22 2.03274e-22 2.97288e-22 -1.93358e-22 1.88754e-22 -9.21823e-23 2.70262e-22 -1.76171e-22 -1.72341e-22 1.68674e-22 1.6516e-22 -3.23579e-22 0 0 0.398611 0.338855 0.452712 0.434252 0.501618 0.518266 0.526853 0.585774 0.598057 0.583384 0.648277 0.65142 0.669348 0.682832 0.684542 0.715052 0.723874 0.735229 0.65192 0.39833 0.0531524 0.000299583 8.90456e-09 1.01353e-13 4.46583e-22 0 2.93617e-22 -4.24697e-22 1.36684e-22 -3.96384e-22 2.55731e-22 2.4774e-22 -3.60349e-22 1.16583e-22 2.26505e-22 2.20213e-22 2.14262e-22 1.04312e-22 -2.03274e-22 1.98192e-22 0 0 1.84365e-22 1.80174e-22 1.76171e-22 -2.58511e-22 8.4337e-23 1.6516e-22 0 0 0 0.355318 0.302052 0.403543 0.387088 0.447137 0.461977 0.469631 0.522153 0.533102 0.520022 0.577868 0.580669 0.59665 0.608669 0.610194 0.637391 0.645254 0.655376 0.581115 0.355067 0.0473795 0.000267046 7.93743e-09 9.03966e-14 -3.72393e-22 -3.0491e-22 5.87235e-22 1.41566e-22 2.73368e-22 3.96384e-22 -2.55731e-22 -1.2387e-22 -1.20116e-22 -2.33167e-22 1.13253e-22 -1.10107e-22 -2.14262e-22 -1.04312e-22 -1.01637e-22 -9.9096e-23 -1.93358e-22 -9.43771e-23 -1.84365e-22 -1.80174e-22 0 -8.61704e-23 1.68674e-22 -8.258e-23 8.08947e-23 0 0 0.311674 0.264951 0.353976 0.339542 0.392215 0.405232 0.411946 0.458017 0.467621 0.456148 0.506888 0.509345 0.523364 0.533906 0.535243 0.5591 0.565997 0.574876 0.509736 0.311454 0.0415599 0.000234244 6.96248e-09 7.92388e-14 4.13046e-22 6.09821e-22 0 -2.83131e-22 -2.73368e-22 0 0 1.2387e-22 1.20116e-22 4.66334e-22 -1.13253e-22 -2.20213e-22 1.07131e-22 0 -1.01637e-22 9.9096e-23 0 9.43771e-23 9.21823e-23 -9.00872e-23 -8.80853e-23 -8.61704e-23 0 -8.258e-23 -8.08947e-23 0 0 0.267