<?xml version="1.0"?>
<VTKFile type="PolyData">
	<PolyData>
		<Piece NumberOfPoints="1206" NumberOfPolys="1000">
			<Points>
				<DataArray type="Float32" NumberOfComponents="3" format="ascii">
 0 0 0 0.02 0 0 0.04 0 0 0.06 0 0 0.08 0 0 0.1 0 0 0 0.005 0 0.02 0.005 0 0.04 0.005 0 0.06 0.005 0 0.08 0.005 0 0.1 0.005 0 0 0.01 0 0.02 0.01 0 0.04 0.01 0 0.06 0.01 0 0.08 0.01 0 0.1 0.01 0 0 0.015 0 0.02 0.015 0 0.04 0.015 0 0.06 0.015 0 0.08 0.015 0 0.1 0.015 0 0 0.02 0 0.02 0.02 0 0.04 0.02 0 0.06 0.02 0 0.08 0.02 0 0.1 0.02 0 0 0.025 0 0.02 0.025 0 0.04 0.025 0 0.06 0.025 0 0.08 0.025 0 0.1 0.025 0 0 0.03 0 0.02 0.03 0 0.04 0.03 0 0.06 0.03 0 0.08 0.03 0 0.1 0.03 0 0 0.035 0 0.02 0.035 0 0.04 0.035 0 0.06 0.035 0 0.08 0.035 0 0.1 0.035 0 0 0.04 0 0.02 0.04 0 0.04 0.04 0 0.06 0.04 0 0.08 0.04 0 0.1 0.04 0 0 0.045 0 0.02 0.045 0 0.04 0.045 0 0.06 0.045 0 0.08 0.045 0 0.1 0.045 0 0 0.05 0 0.02 0.05 0 0.04 0.05 0 0.06 0.05 0 0.08 0.05 0 0.1 0.05 0 0 0.055 0 0.02 0.055 0 0.04 0.055 0 0.06 0.055 0 0.08 0.055 0 0.1 0.055 0 0 0.06 0 0.02 0.06 0 0.04 0.06 0 0.06 0.06 0 0.08 0.06 0 0.1 0.06 0 0 0.065 0 0.02 0.065 0 0.04 0.065 0 0.06 0.065 0 0.08 0.065 0 0.1 0.065 0 0 0.07 0 0.02 0.07 0 0.04 0.07 0 0.06 0.07 0 0.08 0.07 0 0.1 0.07 0 0 0.075 0 0.02 0.075 0 0.04 0.075 0 0.06 0.075 0 0.08 0.075 0 0.1 0.075 0 0 0.08 0 0.02 0.08 0 0.04 0.08 0 0.06 0.08 0 0.08 0.08 0 0.1 0.08 0 0 0.085 0 0.02 0.085 0 0.04 0.085 0 0.06 0.085 0 0.08 0.085 0 0.1 0.085 0 0 0.09 0 0.02 0.09 0 0.04 0.09 0 0.06 0.09 0 0.08 0.09 0 0.1 0.09 0 0 0.095 0 0.02 0.095 0 0.04 0.095 0 0.06 0.095 0 0.08 0.095 0 0.1 0.095 0 0 0.1 0 0.02 0.1 0 0.04 0.1 0 0.06 0.1 0 0.08 0.1 0 0.1 0.1 0 0 0.105 0 0.02 0.105 0 0.04 0.105 0 0.06 0.105 0 0.08 0.105 0 0.1 0.105 0 0 0.11 0 0.02 0.11 0 0.04 0.11 0 0.06 0.11 0 0.08 0.11 0 0.1 0.11 0 0 0.115 0 0.02 0.115 0 0.04 0.115 0 0.06 0.115 0 0.08 0.115 0 0.1 0.115 0 0 0.12 0 0.02 0.12 0 0.04 0.12 0 0.06 0.12 0 0.08 0.12 0 0.1 0.12 0 0 0.125 0 0.02 0.125 0 0.04 0.125 0 0.06 0.125 0 0.08 0.125 0 0.1 0.125 0 0 0.13 0 0.02 0.13 0 0.04 0.13 0 0.06 0.13 0 0.08 0.13 0 0.1 0.13 0 0 0.135 0 0.02 0.135 0 0.04 0.135 0 0.06 0.135 0 0.08 0.135 0 0.1 0.135 0 0 0.14 0 0.02 0.14 0 0.04 0.14 0 0.06 0.14 0 0.08 0.14 0 0.1 0.14 0 0 0.145 0 0.02 0.145 0 0.04 0.145 0 0.06 0.145 0 0.08 0.145 0 0.1 0.145 0 0 0.15 0 0.02 0.15 0 0.04 0.15 0 0.06 0.15 0 0.08 0.15 0 0.1 0.15 0 0 0.155 0 0.02 0.155 0 0.04 0.155 0 0.06 0.155 0 0.08 0.155 0 0.1 0.155 0 0 0.16 0 0.02 0.16 0 0.04 0.16 0 0.06 0.16 0 0.08 0.16 0 0.1 0.16 0 0 0.165 0 0.02 0.165 0 0.04 0.165 0 0.06 0.165 0 0.08 0.165 0 0.1 0.165 0 0 0.17 0 0.02 0.17 0 0.04 0.17 0 0.06 0.17 0 0.08 0.17 0 0.1 0.17 0 0 0.175 0 0.02 0.175 0 0.04 0.175 0 0.06 0.175 0 0.08 0.175 0 0.1 0.175 0 0 0.18 0 0.02 0.18 0 0.04 0.18 0 0.06 0.18 0 0.08 0.18 0 0.1 0.18 0 0 0.185 0 0.02 0.185 0 0.04 0.185 0 0.06 0.185 0 0.08 0.185 0 0.1 0.185 0 0 0.19 0 0.02 0.19 0 0.04 0.19 0 0.06 0.19 0 0.08 0.19 0 0.1 0.19 0 0 0.195 0 0.02 0.195 0 0.04 0.195 0 0.06 0.195 0 0.08 0.195 0 0.1 0.195 0 0 0.2 0 0.02 0.2 0 0.04 0.2 0 0.06 0.2 0 0.08 0.2 0 0.1 0.2 0 0 0.205 0 0.02 0.205 0 0.04 0.205 0 0.06 0.205 0 0.08 0.205 0 0.1 0.205 0 0 0.21 0 0.02 0.21 0 0.04 0.21 0 0.06 0.21 0 0.08 0.21 0 0.1 0.21 0 0 0.215 0 0.02 0.215 0 0.04 0.215 0 0.06 0.215 0 0.08 0.215 0 0.1 0.215 0 0 0.22 0 0.02 0.22 0 0.04 0.22 0 0.06 0.22 0 0.08 0.22 0 0.1 0.22 0 0 0.225 0 0.02 0.225 0 0.04 0.225 0 0.06 0.225 0 0.08 0.225 0 0.1 0.225 0 0 0.23 0 0.02 0.23 0 0.04 0.23 0 0.06 0.23 0 0.08 0.23 0 0.1 0.23 0 0 0.235 0 0.02 0.235 0 0.04 0.235 0 0.06 0.235 0 0.08 0.235 0 0.1 0.235 0 0 0.24 0 0.02 0.24 0 0.04 0.24 0 0.06 0.24 0 0.08 0.24 0 0.1 0.24 0 0 0.245 0 0.02 0.245 0 0.04 0.245 0 0.06 0.245 0 0.08 0.245 0 0.1 0.245 0 0 0.25 0 0.02 0.25 0 0.04 0.25 0 0.06 0.25 0 0.08 0.25 0 0.1 0.25 0 0 0.255 0 0.02 0.255 0 0.04 0.255 0 0.06 0.255 0 0.08 0.255 0 0.1 0.255 0 0 0.26 0 0.02 0.26 0 0.04 0.26 0 0.06 0.26 0 0.08 0.26 0 0.1 0.26 0 0 0.265 0 0.02 0.265 0 0.04 0.265 0 0.06 0.265 0 0.08 0.265 0 0.1 0.265 0 0 0.27 0 0.02 0.27 0 0.04 0.27 0 0.06 0.27 0 0.08 0.27 0 0.1 0.27 0 0 0.275 0 0.02 0.275 0 0.04 0.275 0 0.06 0.275 0 0.08 0.275 0 0.1 0.275 0 0 0.28 0 0.02 0.28 0 0.04 0.28 0 0.06 0.28 0 0.08 0.28 0 0.1 0.28 0 0 0.285 0 0.02 0.285 0 0.04 0.285 0 0.06 0.285 0 0.08 0.285 0 0.1 0.285 0 0 0.29 0 0.02 0.29 0 0.04 0.29 0 0.06 0.29 0 0.08 0.29 0 0.1 0.29 0 0 0.295 0 0.02 0.295 0 0.04 0.295 0 0.06 0.295 0 0.08 0.295 0 0.1 0.295 0 0 0.3 0 0.02 0.3 0 0.04 0.3 0 0.06 0.3 0 0.08 0.3 0 0.1 0.3 0 0 0.305 0 0.02 0.305 0 0.04 0.305 0 0.06 0.305 0 0.08 0.305 0 0.1 0.305 0 0 0.31 0 0.02 0.31 0 0.04 0.31 0 0.06 0.31 0 0.08 0.31 0 0.1 0.31 0 0 0.315 0 0.02 0.315 0 0.04 0.315 0 0.06 0.315 0 0.08 0.315 0 0.1 0.315 0 0 0.32 0 0.02 0.32 0 0.04 0.32 0 0.06 0.32 0 0.08 0.32 0 0.1 0.32 0 0 0.325 0 0.02 0.325 0 0.04 0.325 0 0.06 0.325 0 0.08 0.325 0 0.1 0.325 0 0 0.33 0 0.02 0.33 0 0.04 0.33 0 0.06 0.33 0 0.08 0.33 0 0.1 0.33 0 0 0.335 0 0.02 0.335 0 0.04 0.335 0 0.06 0.335 0 0.08 0.335 0 0.1 0.335 0 0 0.34 0 0.02 0.34 0 0.04 0.34 0 0.06 0.34 0 0.08 0.34 0 0.1 0.34 0 0 0.345 0 0.02 0.345 0 0.04 0.345 0 0.06 0.345 0 0.08 0.345 0 0.1 0.345 0 0 0.35 0 0.02 0.35 0 0.04 0.35 0 0.06 0.35 0 0.08 0.35 0 0.1 0.35 0 0 0.355 0 0.02 0.355 0 0.04 0.355 0 0.06 0.355 0 0.08 0.355 0 0.1 0.355 0 0 0.36 0 0.02 0.36 0 0.04 0.36 0 0.06 0.36 0 0.08 0.36 0 0.1 0.36 0 0 0.365 0 0.02 0.365 0 0.04 0.365 0 0.06 0.365 0 0.08 0.365 0 0.1 0.365 0 0 0.37 0 0.02 0.37 0 0.04 0.37 0 0.06 0.37 0 0.08 0.37 0 0.1 0.37 0 0 0.375 0 0.02 0.375 0 0.04 0.375 0 0.06 0.375 0 0.08 0.375 0 0.1 0.375 0 0 0.38 0 0.02 0.38 0 0.04 0.38 0 0.06 0.38 0 0.08 0.38 0 0.1 0.38 0 0 0.385 0 0.02 0.385 0 0.04 0.385 0 0.06 0.385 0 0.08 0.385 0 0.1 0.385 0 0 0.39 0 0.02 0.39 0 0.04 0.39 0 0.06 0.39 0 0.08 0.39 0 0.1 0.39 0 0 0.395 0 0.02 0.395 0 0.04 0.395 0 0.06 0.395 0 0.08 0.395 0 0.1 0.395 0 0 0.4 0 0.02 0.4 0 0.04 0.4 0 0.06 0.4 0 0.08 0.4 0 0.1 0.4 0 0 0.405 0 0.02 0.405 0 0.04 0.405 0 0.06 0.405 0 0.08 0.405 0 0.1 0.405 0 0 0.41 0 0.02 0.41 0 0.04 0.41 0 0.06 0.41 0 0.08 0.41 0 0.1 0.41 0 0 0.415 0 0.02 0.415 0 0.04 0.415 0 0.06 0.415 0 0.08 0.415 0 0.1 0.415 0 0 0.42 0 0.02 0.42 0 0.04 0.42 0 0.06 0.42 0 0.08 0.42 0 0.1 0.42 0 0 0.425 0 0.02 0.425 0 0.04 0.425 0 0.06 0.425 0 0.08 0.425 0 0.1 0.425 0 0 0.43 0 0.02 0.43 0 0.04 0.43 0 0.06 0.43 0 0.08 0.43 0 0.1 0.43 0 0 0.435 0 0.02 0.435 0 0.04 0.435 0 0.06 0.435 0 0.08 0.435 0 0.1 0.435 0 0 0.44 0 0.02 0.44 0 0.04 0.44 0 0.06 0.44 0 0.08 0.44 0 0.1 0.44 0 0 0.445 0 0.02 0.445 0 0.04 0.445 0 0.06 0.445 0 0.08 0.445 0 0.1 0.445 0 0 0.45 0 0.02 0.45 0 0.04 0.45 0 0.06 0.45 0 0.08 0.45 0 0.1 0.45 0 0 0.455 0 0.02 0.455 0 0.04 0.455 0 0.06 0.455 0 0.08 0.455 0 0.1 0.455 0 0 0.46 0 0.02 0.46 0 0.04 0.46 0 0.06 0.46 0 0.08 0.46 0 0.1 0.46 0 0 0.465 0 0.02 0.465 0 0.04 0.465 0 0.06 0.465 0 0.08 0.465 0 0.1 0.465 0 0 0.47 0 0.02 0.47 0 0.04 0.47 0 0.06 0.47 0 0.08 0.47 0 0.1 0.47 0 0 0.475 0 0.02 0.475 0 0.04 0.475 0 0.06 0.475 0 0.08 0.475 0 0.1 0.475 0 0 0.48 0 0.02 0.48 0 0.04 0.48 0 0.06 0.48 0 0.08 0.48 0 0.1 0.48 0 0 0.485 0 0.02 0.485 0 0.04 0.485 0 0.06 0.485 0 0.08 0.485 0 0.1 0.485 0 0 0.49 0 0.02 0.49 0 0.04 0.49 0 0.06 0.49 0 0.08 0.49 0 0.1 0.49 0 0 0.495 0 0.02 0.495 0 0.04 0.495 0 0.06 0.495 0 0.08 0.495 0 0.1 0.495 0 0 0.5 0 0.02 0.5 0 0.04 0.5 0 0.06 0.5 0 0.08 0.5 0 0.1 0.5 0 0 0.505 0 0.02 0.505 0 0.04 0.505 0 0.06 0.505 0 0.08 0.505 0 0.1 0.505 0 0 0.51 0 0.02 0.51 0 0.04 0.51 0 0.06 0.51 0 0.08 0.51 0 0.1 0.51 0 0 0.515 0 0.02 0.515 0 0.04 0.515 0 0.06 0.515 0 0.08 0.515 0 0.1 0.515 0 0 0.52 0 0.02 0.52 0 0.04 0.52 0 0.06 0.52 0 0.08 0.52 0 0.1 0.52 0 0 0.525 0 0.02 0.525 0 0.04 0.525 0 0.06 0.525 0 0.08 0.525 0 0.1 0.525 0 0 0.53 0 0.02 0.53 0 0.04 0.53 0 0.06 0.53 0 0.08 0.53 0 0.1 0.53 0 0 0.535 0 0.02 0.535 0 0.04 0.535 0 0.06 0.535 0 0.08 0.535 0 0.1 0.535 0 0 0.54 0 0.02 0.54 0 0.04 0.54 0 0.06 0.54 0 0.08 0.54 0 0.1 0.54 0 0 0.545 0 0.02 0.545 0 0.04 0.545 0 0.06 0.545 0 0.08 0.545 0 0.1 0.545 0 0 0.55 0 0.02 0.55 0 0.04 0.55 0 0.06 0.55 0 0.08 0.55 0 0.1 0.55 0 0 0.555 0 0.02 0.555 0 0.04 0.555 0 0.06 0.555 0 0.08 0.555 0 0.1 0.555 0 0 0.56 0 0.02 0.56 0 0.04 0.56 0 0.06 0.56 0 0.08 0.56 0 0.1 0.56 0 0 0.565 0 0.02 0.565 0 0.04 0.565 0 0.06 0.565 0 0.08 0.565 0 0.1 0.565 0 0 0.57 0 0.02 0.57 0 0.04 0.57 0 0.06 0.57 0 0.08 0.57 0 0.1 0.57 0 0 0.575 0 0.02 0.575 0 0.04 0.575 0 0.06 0.575 0 0.08 0.575 0 0.1 0.575 0 0 0.58 0 0.02 0.58 0 0.04 0.58 0 0.06 0.58 0 0.08 0.58 0 0.1 0.58 0 0 0.585 0 0.02 0.585 0 0.04 0.585 0 0.06 0.585 0 0.08 0.585 0 0.1 0.585 0 0 0.59 0 0.02 0.59 0 0.04 0.59 0 0.06 0.59 0 0.08 0.59 0 0.1 0.59 0 0 0.595 0 0.02 0.595 0 0.04 0.595 0 0.06 0.595 0 0.08 0.595 0 0.1 0.595 0 0 0.6 0 0.02 0.6 0 0.04 0.6 0 0.06 0.6 0 0.08 0.6 0 0.1 0.6 0 0 0.605 0 0.02 0.605 0 0.04 0.605 0 0.06 0.605 0 0.08 0.605 0 0.1 0.605 0 0 0.61 0 0.02 0.61 0 0.04 0.61 0 0.06 0.61 0 0.08 0.61 0 0.1 0.61 0 0 0.615 0 0.02 0.615 0 0.04 0.615 0 0.06 0.615 0 0.08 0.615 0 0.1 0.615 0 0 0.62 0 0.02 0.62 0 0.04 0.62 0 0.06 0.62 0 0.08 0.62 0 0.1 0.62 0 0 0.625 0 0.02 0.625 0 0.04 0.625 0 0.06 0.625 0 0.08 0.625 0 0.1 0.625 0 0 0.63 0 0.02 0.63 0 0.04 0.63 0 0.06 0.63 0 0.08 0.63 0 0.1 0.63 0 0 0.635 0 0.02 0.635 0 0.04 0.635 0 0.06 0.635 0 0.08 0.635 0 0.1 0.635 0 0 0.64 0 0.02 0.64 0 0.04 0.64 0 0.06 0.64 0 0.08 0.64 0 0.1 0.64 0 0 0.645 0 0.02 0.645 0 0.04 0.645 0 0.06 0.645 0 0.08 0.645 0 0.1 0.645 0 0 0.65 0 0.02 0.65 0 0.04 0.65 0 0.06 0.65 0 0.08 0.65 0 0.1 0.65 0 0 0.655 0 0.02 0.655 0 0.04 0.655 0 0.06 0.655 0 0.08 0.655 0 0.1 0.655 0 0 0.66 0 0.02 0.66 0 0.04 0.66 0 0.06 0.66 0 0.08 0.66 0 0.1 0.66 0 0 0.665 0 0.02 0.665 0 0.04 0.665 0 0.06 0.665 0 0.08 0.665 0 0.1 0.665 0 0 0.67 0 0.02 0.67 0 0.04 0.67 0 0.06 0.67 0 0.08 0.67 0 0.1 0.67 0 0 0.675 0 0.02 0.675 0 0.04 0.675 0 0.06 0.675 0 0.08 0.675 0 0.1 0.675 0 0 0.68 0 0.02 0.68 0 0.04 0.68 0 0.06 0.68 0 0.08 0.68 0 0.1 0.68 0 0 0.685 0 0.02 0.685 0 0.04 0.685 0 0.06 0.685 0 0.08 0.685 0 0.1 0.685 0 0 0.69 0 0.02 0.69 0 0.04 0.69 0 0.06 0.69 0 0.08 0.69 0 0.1 
[...]
			<PointData Scalars="VitesseX">
				<DataArray Name="VitesseX" type="Float32" format="ascii">
 0 1.33712e-15 -1.17319e-14 1.47859e-14 -2.8154e-14 0 0 5.55141e-15 -1.47563e-14 1.49839e-14 -2.42368e-14 0 0 9.03147e-16 2.70893e-15 -1.09266e-14 5.54812e-15 0 0 2.15051e-14 -1.99791e-14 8.79922e-15 8.96032e-15 0 0 2.235e-14 -1.33443e-14 1.46492e-14 1.15235e-14 0 0 -1.49457e-14 4.60515e-14 -1.65775e-14 2.79203e-14 0 0 -1.07964e-14 2.7613e-14 3.33667e-14 -5.00174e-15 0 0 1.75261e-14 -1.80117e-14 8.97646e-14 -3.73382e-14 0 0 1.01048e-14 1.00505e-14 6.74782e-14 -2.39666e-14 0 0 1.27332e-14 4.07618e-14 2.44537e-14 1.07556e-14 0 0 6.79004e-14 -1.31579e-14 4.34328e-14 1.44861e-14 0 0 4.04502e-14 3.40735e-14 -2.87969e-14 6.65747e-14 0 0 6.53166e-14 -3.25084e-14 3.62645e-14 1.9255e-14 0 0 6.07169e-14 -3.8013e-14 5.4801e-14 -2.16891e-14 0 0 3.81775e-14 -6.1475e-15 1.82022e-14 -5.3786e-15 0 0 9.14284e-14 -1.04153e-13 1.14918e-13 -5.36589e-14 0 0 1.24791e-14 3.66549e-14 -1.56833e-14 2.79254e-14 0 0 2.64785e-14 3.50671e-14 4.67638e-15 9.8722e-15 0 0 5.0812e-14 2.61234e-15 6.86474e-14 -3.97816e-14 0 0 2.46898e-14 5.70356e-14 7.91259e-15 -2.94553e-15 0 0 7.9474e-14 -4.65872e-14 1.00686e-13 -6.98757e-14 0 0 7.20355e-14 -7.99042e-14 1.33008e-13 -8.92107e-14 0 0 -7.92603e-15 3.4469e-14 -3.52541e-14 4.5086e-14 0 0 -7.71056e-14 1.30128e-13 -1.6603e-13 1.4281e-13 0 0 3.91341e-14 -3.38958e-14 -1.05388e-14 4.86351e-14 0 0 1.59476e-13 -1.99996e-13 1.75309e-13 -5.84787e-14 0 0 2.51918e-14 -2.65518e-14 5.8925e-14 3.85542e-14 0 0 -3.97812e-14 4.61433e-14 -3.08641e-15 1.32963e-13 0 0 8.46366e-15 -4.84817e-14 9.4458e-14 1.03324e-13 0 0 4.62673e-14 -1.07917e-13 1.49261e-13 8.54081e-14 0 0 3.57001e-14 -3.68995e-14 5.86724e-14 1.06414e-13 0 0 3.62931e-14 9.67172e-15 1.65005e-14 3.81641e-14 0 0 5.35956e-14 -1.95334e-14 4.31044e-14 -3.05058e-14 0 0 -2.8455e-14 9.14412e-14 -7.06254e-14 7.84587e-15 0 0 2.48676e-14 1.77388e-14 -2.07629e-14 -2.39793e-14 0 0 9.21344e-14 -5.69845e-14 2.93699e-14 -5.02871e-14 0 0 1.01962e-13 -7.98712e-14 7.5772e-14 -1.05192e-13 0 0 2.01424e-14 5.01749e-14 -4.79412e-14 -2.35721e-14 0 0 6.17307e-14 -7.64379e-15 2.49652e-14 -5.37984e-14 0 0 7.95685e-14 -2.85749e-14 7.04123e-14 -9.77984e-14 0 0 -1.21089e-14 7.55596e-14 1.71202e-14 -1.0102e-13 0 0 1.77331e-15 -3.56282e-15 1.53537e-13 -1.8409e-13 0 0 -1.27041e-13 1.8697e-13 -2.76202e-14 -4.6707e-14 0 0 -5.43416e-14 1.19919e-13 -2.65201e-14 4.114e-15 0 0 1.54378e-13 -1.33029e-13 1.5249e-13 -3.17774e-14 0 0 9.41165e-14 3.30977e-14 -5.62144e-14 1.16123e-13 0 0 1.30642e-13 3.64422e-14 -9.41582e-14 9.29662e-14 0 0 9.82212e-14 8.07648e-14 -1.31451e-13 7.37561e-14 0 0 2.74056e-14 1.68694e-13 -1.74687e-13 5.22179e-14 0 0 1.16332e-13 3.66164e-14 -2.15448e-14 -9.27951e-14 0 0 2.26833e-13 -8.57659e-14 6.53277e-14 -1.44863e-13 0 0 2.93628e-13 -1.57164e-13 1.10824e-13 -1.49975e-13 0 0 -1.03996e-13 4.35884e-13 -5.17777e-13 2.93978e-13 0 0 1.36722e-14 1.45497e-13 -2.03775e-13 1.45078e-13 0 0 3.92452e-13 -4.62412e-13 4.17327e-13 -3.09683e-13 0 0 2.08185e-13 -3.29808e-14 -8.00932e-14 -1.02355e-13 0 0 2.34271e-13 -3.78358e-14 -1.00145e-13 -1.21421e-13 0 0 1.34815e-13 1.25549e-13 -3.16131e-13 2.20297e-14 0 0 1.38694e-13 1.67609e-13 -3.8714e-13 1.05179e-14 0 0 3.04647e-13 -1.11972e-13 -1.26013e-13 -1.50412e-13 0 0 1.63212e-13 -1.42674e-14 -1.62721e-13 -8.33465e-14 0 0 2.16961e-14 4.39893e-14 -7.21422e-14 -1.73339e-13 0 0 -6.17703e-16 3.33026e-14 -7.40443e-14 -1.24533e-13 0 0 1.42562e-13 -1.95098e-13 1.06805e-13 -1.75839e-13 0 0 6.31394e-14 -7.41774e-14 6.24606e-14 -1.77198e-13 0 0 -5.21733e-14 1.22123e-13 -7.1548e-14 -7.44926e-14 0 0 2.78875e-14 2.54254e-15 5.83981e-14 -8.2071e-14 0 0 1.38132e-14 4.86425e-14 -2.31067e-14 3.98891e-14 0 0 1.80464e-13 -1.5316e-13 1.34494e-13 -4.36388e-14 0 0 2.52741e-13 -1.39573e-13 1.11832e-13 -1.15832e-13 0 0 4.79587e-14 2.9764e-13 -3.13178e-13 5.71483e-14 0 0 1.96487e-13 7.47488e-14 -4.67945e-14 -1.39154e-13 0 0 3.25701e-13 -1.1065e-13 1.37316e-13 -1.92756e-13 0 0 4.3976e-13 -2.8148e-13 3.06469e-13 -2.31647e-13 0 0 2.40225e-13 2.86279e-14 -6.16602e-16 -2.49486e-14 0 0 5.53829e-14 3.9984e-13 -3.30598e-13 1.56931e-13 0 0 5.56039e-13 -1.77675e-13 2.35354e-13 -1.78746e-13 0 0 5.54766e-13 -1.24341e-14 9.66302e-14 -1.39818e-13 0 0 3.78003e-13 8.02336e-14 2.68674e-13 -3.61774e-13 0 0 2.09697e-13 3.32177e-13 -5.39525e-14 -1.60164e-14 0 0 4.57381e-13 2.50655e-14 -5.53544e-14 3.23523e-13 0 0 6.65441e-13 -5.07779e-13 5.21436e-13 2.36488e-13 0 0 -7.42889e-14 5.70585e-13 -4.50514e-13 9.20014e-13 0 0 1.78125e-13 8.98595e-14 1.1143e-13 5.04527e-13 0 0 8.7438e-13 -1.04738e-12 1.27193e-12 -3.36571e-13 0 0 -1.64475e-14 1.46031e-13 1.54549e-13 3.09804e-13 0 0 -9.34472e-13 8.3693e-13 -1.90748e-13 5.31975e-13 0 0 -2.96692e-13 -5.35113e-14 5.84719e-13 1.66669e-13 0 0 4.37196e-13 -3.25473e-13 1.19387e-13 7.83373e-13 0 0 5.36648e-13 -5.38565e-13 4.30844e-13 3.62529e-13 0 0 5.82093e-14 6.93936e-14 3.21859e-13 -3.20921e-14 0 0 -5.35133e-13 8.87123e-13 -2.63429e-13 3.257e-13 0 0 -4.33883e-13 5.24028e-13 1.23399e-13 1.30513e-13 0 0 -1.56182e-13 2.18072e-14 4.27516e-13 1.01023e-13 0 0 1.8091e-13 -3.50763e-13 4.32048e-13 2.27628e-13 0 0 1.29553e-13 -3.54453e-13 4.64881e-13 1.60225e-13 0 0 -1.2257e-13 -1.59333e-13 3.37965e-13 1.25228e-13 0 0 -2.43212e-13 1.51135e-13 1.14372e-14 2.45616e-13 0 0 -9.97335e-14 2.20041e-13 -4.32838e-13 5.10032e-13 0 0 1.85171e-13 1.28204e-13 -5.8101e-13 7.33403e-13 0 0 2.78669e-13 -4.07189e-14 -5.4143e-13 7.50811e-13 0 0 2.0571e-13 -1.40558e-13 -3.86035e-13 6.47784e-13 0 0 3.96928e-14 -1.46144e-13 -1.34866e-13 3.99763e-13 0 0 -7.32805e-14 -8.92322e-14 -1.48573e-14 2.34849e-13 0 0 -1.17029e-13 3.28139e-14 -3.27545e-14 1.6909e-13 0 0 -1.20568e-13 2.02017e-13 -1.30235e-13 1.03419e-13 0 0 -9.68608e-14 2.76527e-13 -1.56131e-13 6.30904e-15 0 0 -4.5652e-14 2.73572e-13 -1.28333e-13 -1.47704e-13 0 0 4.01688e-14 1.7681e-13 1.33045e-14 -3.98518e-13 0 0 6.67641e-14 2.57109e-14 5.47842e-14 -4.7473e-13 0 0 5.93692e-14 5.63462e-16 -5.14474e-14 -3.948e-13 0 0 3.98245e-14 -8.40219e-14 -5.19241e-14 -3.28876e-13 0 0 -3.34621e-14 -1.13657e-13 -6.27713e-14 -2.40779e-13 0 0 -1.33532e-13 -6.64634e-14 -2.18076e-13 -4.85466e-14 0 0 -1.23037e-13 -1.36934e-13 -1.54343e-13 -6.44375e-14 0 0 -1.22896e-13 -1.88354e-13 -6.7627e-14 -8.9495e-14 0 0 -1.37559e-13 -1.43018e-13 -3.97661e-14 -8.05245e-14 0 0 -6.70338e-14 -1.5485e-13 -4.14527e-14 -1.29314e-13 0 0 -1.94216e-14 -1.31514e-13 -1.14359e-14 -1.76196e-13 0 0 -3.69042e-14 -8.44816e-14 9.62871e-14 -1.59835e-13 0 0 -7.45369e-14 4.48398e-14 2.46122e-14 -3.68218e-14 0 0 -1.85455e-15 5.30671e-14 1.45405e-14 -2.13815e-14 0 0 1.86429e-13 -1.44957e-13 1.80535e-13 -1.3501e-13 0 0 8.27493e-14 1.08624e-13 -1.16947e-13 4.09478e-14 0 0 1.25862e-13 9.74966e-14 -1.08595e-13 2.43317e-15 0 0 1.265e-13 6.96053e-14 1.7686e-14 -9.89335e-14 0 0 4.35532e-14 1.74753e-13 -7.6551e-14 1.72862e-14 0 0 2.29291e-13 -1.07599e-13 1.14064e-13 -3.42641e-14 0 0 1.7774e-13 5.44271e-14 -1.54694e-13 1.59629e-13 0 0 2.19088e-13 4.89227e-14 -2.20048e-13 1.89632e-13 0 0 1.55849e-13 1.28138e-13 -2.54859e-13 1.6443e-13 0 0 6.64779e-14 1.94079e-13 -2.42151e-13 1.30238e-13 0 0 2.16838e-13 -1.14081e-13 7.03273e-14 -1.11033e-13 0 0 1.04051e-13 5.21996e-14 -1.72555e-13 2.26304e-14 0 0 1.97599e-13 -1.61216e-13 -3.45492e-14 1.81173e-14 0 0 1.26227e-13 -1.48609e-13 -5.01386e-14 1.01494e-13 0 0 3.36304e-14 -5.3501e-14 -1.36779e-13 2.25217e-13 0 0 2.65258e-13 -4.4855e-13 3.14774e-13 -7.4548e-14 0 0 -5.69604e-14 3.21369e-14 -4.39264e-14 1.07519e-13 0 0 -2.03056e-13 2.26033e-13 -1.19246e-13 1.70563e-13 0 0 -7.28402e-14 -9.14018e-15 2.38861e-13 1.99248e-14 0 0 -3.09582e-13 3.66884e-13 -6.6152e-14 3.37712e-13 0 0 8.38129e-14 -2.29805e-13 4.67565e-13 1.28871e-13 0 0 2.14874e-13 -4.03438e-13 5.37353e-13 7.57503e-14 0 0 -8.97084e-14 6.40082e-14 1.24119e-13 2.45459e-13 0 0 1.37422e-13 -3.17835e-13 6.0312e-13 -5.32562e-14 0 0 -2.03323e-13 2.78839e-13 2.35045e-13 1.1626e-15 0 0 -7.06198e-14 2.55281e-13 3.95969e-13 -1.52032e-13 0 0 1.64035e-13 3.47537e-14 5.45795e-13 -9.91959e-14 0 0 -1.16153e-14 3.6393e-13 2.37132e-13 1.27919e-14 0 0 3.94939e-13 -2.72238e-13 7.07642e-13 -2.63568e-13 0 0 -3.54641e-14 2.87546e-13 8.50984e-14 3.30503e-14 0 0 -4.50507e-14 3.10991e-13 5.16556e-14 -1.84819e-13 0 0 2.28828e-13 5.45602e-14 -1.56111e-14 1.51895e-14 0 0 1.96669e-13 -2.76895e-15 -1.36015e-13 3.14782e-13 0 0 -5.28852e-14 -1.33513e-14 4.67207e-14 2.89444e-13 0 0 -4.42017e-13 3.61931e-13 -1.41449e-13 3.42342e-13 0 0 -4.37632e-14 -1.89415e-13 1.67698e-13 1.35595e-13 0 0 1.62593e-13 -3.92849e-13 3.66019e-14 2.41373e-13 0 0 2.48628e-13 -6.53243e-13 2.37705e-13 -2.81075e-15 0 0 -1.09414e-13 -3.17251e-13 7.37419e-14 -6.71854e-14 0 0 -4.28504e-13 6.0092e-14 -3.26711e-14 -1.83251e-13 0 0 -3.32215e-13 -7.16802e-14 1.51153e-13 -2.33984e-13 0 0 -3.62461e-13 8.28158e-15 -3.89122e-14 1.81234e-13 0 0 -9.4357e-14 -4.05322e-13 9.8865e-14 5.26581e-13 0 0 1.33281e-13 -7.35439e-13 1.38384e-13 7.61369e-13 0 0 2.81681e-14 -5.88592e-13 1.24243e-13 6.13191e-13 0 0 -2.0309e-13 -2.45725e-13 1.12723e-13 3.53699e-13 0 0 -6.79025e-13 4.69189e-13 -5.25128e-13 6.06317e-13 0 0 -3.82637e-13 -3.84266e-14 -2.68548e-13 5.36285e-13 0 0 1.99421e-13 -8.56168e-13 1.43614e-13 4.44176e-13 0 0 4.81507e-14 -5.03661e-13 -2.60476e-13 5.66576e-13 0 0 6.76128e-14 -5.91548e-13 9.59535e-14 1.0287e-13 0 0 -2.21847e-13 -2.13249e-13 -1.08858e-14 -2.26298e-14 0 0 -3.42443e-13 -1.33567e-13 -5.24972e-14 -7.12987e-14 0 0 -1.58617e-13 -3.57405e-13 8.64623e-14 -3.34232e-13 0 0 -1.15905e-13 -1.86756e-13 -1.51634e-13 -3.27323e-13 0 0 1.99585e-13 -6.09374e-13 1.21003e-13 -2.69975e-13 0 0 -2.19256e-13 -7.30509e-14 -3.61056e-13 2.08494e-13 0 0 -4.34188e-13 1.10813e-13 -4.36582e-13 3.08711e-13 0 0 -1.08525e-13 -4.03514e-13 2.62468e-14 -2.63141e-14 0 0 -1.63793e-13 -2.40108e-13 -3.55773e-13 1.91153e-13 0 0 3.98159e-14 -5.15426e-13 -1.94035e-13 1.06483e-13 0 0 -2.15427e-13 -1.88121e-13 -2.97954e-13 9.08545e-14 0 0 -3.56351e-13 -9.81539e-14 -9.82991e-14 -1.20773e-13 0 0 -1.89058e-13 -3.85317e-13 4.06619e-13 -4.82367e-13 0 0 -3.21957e-13 -2.07475e-13 3.18813e-13 -4.52895e-13 0 0 -3.32127e-14 -6.73331e-13 6.94606e-13 -6.5255e-13 0 0 -3.37127e-13 -1.33853e-13 2.95865e-14 -1.06324e-13 0 0 -2.90728e-13 -1.18088e-13 -2.51174e-14 -2.30836e-14 0 0 1.80854e-13 -6.68421e-13 5.73137e-13 -5.15602e-13 0 0 -4.87852e-13 5.3209e-13 -4.74124e-13 -8.70639e-14 0 0 -1.05321e-13 -7.22114e-14 1.50785e-14 -2.71069e-13 0 0 2.33488e-13 -7.1858e-13 5.72705e-13 -4.0954e-13 0 0 -1.80388e-13 -2.27691e-13 3.69961e-13 -3.3629e-13 0 0 4.19201e-14 -6.39604e-13 7.81795e-13 -4.88717e-13 0 0 -2.84898e-13 -5.33735e-14 2.59433e-13 -2.96036e-13 0 0 -1.26242e-14 -3.77582e-13 9.15725e-13 -1.19887e-12 0 0 -4.89507e-14 -2.07176e-13 7.86439e-13 -1.38778e-12 0 0 -2.59912e-13 3.3423e-13 -1.07936e-13 -6.95324e-13 0 0 2.02582e-13 -2.50173e-13 1.95275e-13 -7.31395e-13 0
				</DataArray>
				<DataArray Name="VitesseY" type="Float32" format="ascii">