<?xml version="1.0"?>
<VTKFile type="PolyData">
	<PolyData>
		<Piece NumberOfPoints="1206" NumberOfPolys="1000">
			<Points>
				<DataArray type="Float32" NumberOfComponents="3" format="ascii">
 0 0 0 0.02 0 0 0.04 0 0 0.06 0 0 0.08 0 0 0.1 0 0 0 0.005 0 0.02 0.005 0 0.04 0.005 0 0.06 0.005 0 0.08 0.005 0 0.1 0.005 0 0 0.01 0 0.02 0.01 0 0.04 0.01 0 0.06 0.01 0 0.08 0.01 0 0.1 0.01 0 0 0.015 0 0.02 0.015 0 0.04 0.015 0 0.06 0.015 0 0.08 0.015 0 0.1 0.015 0 0 0.02 0 0.02 0.02 0 0.04 0.02 0 0.06 0.02 0 0.08 0.02 0 0.1 0.02 0 0 0.025 0 0.02 0.025 0 0.04 0.025 0 0.06 0.025 0 0.08 0.025 0 0.1 0.025 0 0 0.03 0 0.02 0.03 0 0.04 0.03 0 0.06 0.03 0 0.08 0.03 0 0.1 0.03 0 0 0.035 0 0.02 0.035 0 0.04 0.035 0 0.06 0.035 0 0.08 0.035 0 0.1 0.035 0 0 0.04 0 0.02 0.04 0 0.04 0.04 0 0.06 0.04 0 0.08 0.04 0 0.1 0.04 0 0 0.045 0 0.02 0.045 0 0.04 0.045 0 0.06 0.045 0 0.08 0.045 0 0.1 0.045 0 0 0.05 0 0.02 0.05 0 0.04 0.05 0 0.06 0.05 0 0.08 0.05 0 0.1 0.05 0 0 0.055 0 0.02 0.055 0 0.04 0.055 0 0.06 0.055 0 0.08 0.055 0 0.1 0.055 0 0 0.06 0 0.02 0.06 0 0.04 0.06 0 0.06 0.06 0 0.08 0.06 0 0.1 0.06 0 0 0.065 0 0.02 0.065 0 0.04 0.065 0 0.06 0.065 0 0.08 0.065 0 0.1 0.065 0 0 0.07 0 0.02 0.07 0 0.04 0.07 0 0.06 0.07 0 0.08 0.07 0 0.1 0.07 0 0 0.075 0 0.02 0.075 0 0.04 0.075 0 0.06 0.075 0 0.08 0.075 0 0.1 0.075 0 0 0.08 0 0.02 0.08 0 0.04 0.08 0 0.06 0.08 0 0.08 0.08 0 0.1 0.08 0 0 0.085 0 0.02 0.085 0 0.04 0.085 0 0.06 0.085 0 0.08 0.085 0 0.1 0.085 0 0 0.09 0 0.02 0.09 0 0.04 0.09 0 0.06 0.09 0 0.08 0.09 0 0.1 0.09 0 0 0.095 0 0.02 0.095 0 0.04 0.095 0 0.06 0.095 0 0.08 0.095 0 0.1 0.095 0 0 0.1 0 0.02 0.1 0 0.04 0.1 0 0.06 0.1 0 0.08 0.1 0 0.1 0.1 0 0 0.105 0 0.02 0.105 0 0.04 0.105 0 0.06 0.105 0 0.08 0.105 0 0.1 0.105 0 0 0.11 0 0.02 0.11 0 0.04 0.11 0 0.06 0.11 0 0.08 0.11 0 0.1 0.11 0 0 0.115 0 0.02 0.115 0 0.04 0.115 0 0.06 0.115 0 0.08 0.115 0 0.1 0.115 0 0 0.12 0 0.02 0.12 0 0.04 0.12 0 0.06 0.12 0 0.08 0.12 0 0.1 0.12 0 0 0.125 0 0.02 0.125 0 0.04 0.125 0 0.06 0.125 0 0.08 0.125 0 0.1 0.125 0 0 0.13 0 0.02 0.13 0 0.04 0.13 0 0.06 0.13 0 0.08 0.13 0 0.1 0.13 0 0 0.135 0 0.02 0.135 0 0.04 0.135 0 0.06 0.135 0 0.08 0.135 0 0.1 0.135 0 0 0.14 0 0.02 0.14 0 0.04 0.14 0 0.06 0.14 0 0.08 0.14 0 0.1 0.14 0 0 0.145 0 0.02 0.145 0 0.04 0.145 0 0.06 0.145 0 0.08 0.145 0 0.1 0.145 0 0 0.15 0 0.02 0.15 0 0.04 0.15 0 0.06 0.15 0 0.08 0.15 0 0.1 0.15 0 0 0.155 0 0.02 0.155 0 0.04 0.155 0 0.06 0.155 0 0.08 0.155 0 0.1 0.155 0 0 0.16 0 0.02 0.16 0 0.04 0.16 0 0.06 0.16 0 0.08 0.16 0 0.1 0.16 0 0 0.165 0 0.02 0.165 0 0.04 0.165 0 0.06 0.165 0 0.08 0.165 0 0.1 0.165 0 0 0.17 0 0.02 0.17 0 0.04 0.17 0 0.06 0.17 0 0.08 0.17 0 0.1 0.17 0 0 0.175 0 0.02 0.175 0 0.04 0.175 0 0.06 0.175 0 0.08 0.175 0 0.1 0.175 0 0 0.18 0 0.02 0.18 0 0.04 0.18 0 0.06 0.18 0 0.08 0.18 0 0.1 0.18 0 0 0.185 0 0.02 0.185 0 0.04 0.185 0 0.06 0.185 0 0.08 0.185 0 0.1 0.185 0 0 0.19 0 0.02 0.19 0 0.04 0.19 0 0.06 0.19 0 0.08 0.19 0 0.1 0.19 0 0 0.195 0 0.02 0.195 0 0.04 0.195 0 0.06 0.195 0 0.08 0.195 0 0.1 0.195 0 0 0.2 0 0.02 0.2 0 0.04 0.2 0 0.06 0.2 0 0.08 0.2 0 0.1 0.2 0 0 0.205 0 0.02 0.205 0 0.04 0.205 0 0.06 0.205 0 0.08 0.205 0 0.1 0.205 0 0 0.21 0 0.02 0.21 0 0.04 0.21 0 0.06 0.21 0 0.08 0.21 0 0.1 0.21 0 0 0.215 0 0.02 0.215 0 0.04 0.215 0 0.06 0.215 0 0.08 0.215 0 0.1 0.215 0 0 0.22 0 0.02 0.22 0 0.04 0.22 0 0.06 0.22 0 0.08 0.22 0 0.1 0.22 0 0 0.225 0 0.02 0.225 0 0.04 0.225 0 0.06 0.225 0 0.08 0.225 0 0.1 0.225 0 0 0.23 0 0.02 0.23 0 0.04 0.23 0 0.06 0.23 0 0.08 0.23 0 0.1 0.23 0 0 0.235 0 0.02 0.235 0 0.04 0.235 0 0.06 0.235 0 0.08 0.235 0 0.1 0.235 0 0 0.24 0 0.02 0.24 0 0.04 0.24 0 0.06 0.24 0 0.08 0.24 0 0.1 0.24 0 0 0.245 0 0.02 0.245 0 0.04 0.245 0 0.06 0.245 0 0.08 0.245 0 0.1 0.245 0 0 0.25 0 0.02 0.25 0 0.04 0.25 0 0.06 0.25 0 0.08 0.25 0 0.1 0.25 0 0 0.255 0 0.02 0.255 0 0.04 0.255 0 0.06 0.255 0 0.08 0.255 0 0.1 0.255 0 0 0.26 0 0.02 0.26 0 0.04 0.26 0 0.06 0.26 0 0.08 0.26 0 0.1 0.26 0 0 0.265 0 0.02 0.265 0 0.04 0.265 0 0.06 0.265 0 0.08 0.265 0 0.1 0.265 0 0 0.27 0 0.02 0.27 0 0.04 0.27 0 0.06 0.27 0 0.08 0.27 0 0.1 0.27 0 0 0.275 0 0.02 0.275 0 0.04 0.275 0 0.06 0.275 0 0.08 0.275 0 0.1 0.275 0 0 0.28 0 0.02 0.28 0 0.04 0.28 0 0.06 0.28 0 0.08 0.28 0 0.1 0.28 0 0 0.285 0 0.02 0.285 0 0.04 0.285 0 0.06 0.285 0 0.08 0.285 0 0.1 0.285 0 0 0.29 0 0.02 0.29 0 0.04 0.29 0 0.06 0.29 0 0.08 0.29 0 0.1 0.29 0 0 0.295 0 0.02 0.295 0 0.04 0.295 0 0.06 0.295 0 0.08 0.295 0 0.1 0.295 0 0 0.3 0 0.02 0.3 0 0.04 0.3 0 0.06 0.3 0 0.08 0.3 0 0.1 0.3 0 0 0.305 0 0.02 0.305 0 0.04 0.305 0 0.06 0.305 0 0.08 0.305 0 0.1 0.305 0 0 0.31 0 0.02 0.31 0 0.04 0.31 0 0.06 0.31 0 0.08 0.31 0 0.1 0.31 0 0 0.315 0 0.02 0.315 0 0.04 0.315 0 0.06 0.315 0 0.08 0.315 0 0.1 0.315 0 0 0.32 0 0.02 0.32 0 0.04 0.32 0 0.06 0.32 0 0.08 0.32 0 0.1 0.32 0 0 0.325 0 0.02 0.325 0 0.04 0.325 0 0.06 0.325 0 0.08 0.325 0 0.1 0.325 0 0 0.33 0 0.02 0.33 0 0.04 0.33 0 0.06 0.33 0 0.08 0.33 0 0.1 0.33 0 0 0.335 0 0.02 0.335 0 0.04 0.335 0 0.06 0.335 0 0.08 0.335 0 0.1 0.335 0 0 0.34 0 0.02 0.34 0 0.04 0.34 0 0.06 0.34 0 0.08 0.34 0 0.1 0.34 0 0 0.345 0 0.02 0.345 0 0.04 0.345 0 0.06 0.345 0 0.08 0.345 0 0.1 0.345 0 0 0.35 0 0.02 0.35 0 0.04 0.35 0 0.06 0.35 0 0.08 0.35 0 0.1 0.35 0 0 0.355 0 0.02 0.355 0 0.04 0.355 0 0.06 0.355 0 0.08 0.355 0 0.1 0.355 0 0 0.36 0 0.02 0.36 0 0.04 0.36 0 0.06 0.36 0 0.08 0.36 0 0.1 0.36 0 0 0.365 0 0.02 0.365 0 0.04 0.365 0 0.06 0.365 0 0.08 0.365 0 0.1 0.365 0 0 0.37 0 0.02 0.37 0 0.04 0.37 0 0.06 0.37 0 0.08 0.37 0 0.1 0.37 0 0 0.375 0 0.02 0.375 0 0.04 0.375 0 0.06 0.375 0 0.08 0.375 0 0.1 0.375 0 0 0.38 0 0.02 0.38 0 0.04 0.38 0 0.06 0.38 0 0.08 0.38 0 0.1 0.38 0 0 0.385 0 0.02 0.385 0 0.04 0.385 0 0.06 0.385 0 0.08 0.385 0 0.1 0.385 0 0 0.39 0 0.02 0.39 0 0.04 0.39 0 0.06 0.39 0 0.08 0.39 0 0.1 0.39 0 0 0.395 0 0.02 0.395 0 0.04 0.395 0 0.06 0.395 0 0.08 0.395 0 0.1 0.395 0 0 0.4 0 0.02 0.4 0 0.04 0.4 0 0.06 0.4 0 0.08 0.4 0 0.1 0.4 0 0 0.405 0 0.02 0.405 0 0.04 0.405 0 0.06 0.405 0 0.08 0.405 0 0.1 0.405 0 0 0.41 0 0.02 0.41 0 0.04 0.41 0 0.06 0.41 0 0.08 0.41 0 0.1 0.41 0 0 0.415 0 0.02 0.415 0 0.04 0.415 0 0.06 0.415 0 0.08 0.415 0 0.1 0.415 0 0 0.42 0 0.02 0.42 0 0.04 0.42 0 0.06 0.42 0 0.08 0.42 0 0.1 0.42 0 0 0.425 0 0.02 0.425 0 0.04 0.425 0 0.06 0.425 0 0.08 0.425 0 0.1 0.425 0 0 0.43 0 0.02 0.43 0 0.04 0.43 0 0.06 0.43 0 0.08 0.43 0 0.1 0.43 0 0 0.435 0 0.02 0.435 0 0.04 0.435 0 0.06 0.435 0 0.08 0.435 0 0.1 0.435 0 0 0.44 0 0.02 0.44 0 0.04 0.44 0 0.06 0.44 0 0.08 0.44 0 0.1 0.44 0 0 0.445 0 0.02 0.445 0 0.04 0.445 0 0.06 0.445 0 0.08 0.445 0 0.1 0.445 0 0 0.45 0 0.02 0.45 0 0.04 0.45 0 0.06 0.45 0 0.08 0.45 0 0.1 0.45 0 0 0.455 0 0.02 0.455 0 0.04 0.455 0 0.06 0.455 0 0.08 0.455 0 0.1 0.455 0 0 0.46 0 0.02 0.46 0 0.04 0.46 0 0.06 0.46 0 0.08 0.46 0 0.1 0.46 0 0 0.465 0 0.02 0.465 0 0.04 0.465 0 0.06 0.465 0 0.08 0.465 0 0.1 0.465 0 0 0.47 0 0.02 0.47 0 0.04 0.47 0 0.06 0.47 0 0.08 0.47 0 0.1 0.47 0 0 0.475 0 0.02 0.475 0 0.04 0.475 0 0.06 0.475 0 0.08 0.475 0 0.1 0.475 0 0 0.48 0 0.02 0.48 0 0.04 0.48 0 0.06 0.48 0 0.08 0.48 0 0.1 0.48 0 0 0.485 0 0.02 0.485 0 0.04 0.485 0 0.06 0.485 0 0.08 0.485 0 0.1 0.485 0 0 0.49 0 0.02 0.49 0 0.04 0.49 0 0.06 0.49 0 0.08 0.49 0 0.1 0.49 0 0 0.495 0 0.02 0.495 0 0.04 0.495 0 0.06 0.495 0 0.08 0.495 0 0.1 0.495 0 0 0.5 0 0.02 0.5 0 0.04 0.5 0 0.06 0.5 0 0.08 0.5 0 0.1 0.5 0 0 0.505 0 0.02 0.505 0 0.04 0.505 0 0.06 0.505 0 0.08 0.505 0 0.1 0.505 0 0 0.51 0 0.02 0.51 0 0.04 0.51 0 0.06 0.51 0 0.08 0.51 0 0.1 0.51 0 0 0.515 0 0.02 0.515 0 0.04 0.515 0 0.06 0.515 0 0.08 0.515 0 0.1 0.515 0 0 0.52 0 0.02 0.52 0 0.04 0.52 0 0.06 0.52 0 0.08 0.52 0 0.1 0.52 0 0 0.525 0 0.02 0.525 0 0.04 0.525 0 0.06 0.525 0 0.08 0.525 0 0.1 0.525 0 0 0.53 0 0.02 0.53 0 0.04 0.53 0 0.06 0.53 0 0.08 0.53 0 0.1 0.53 0 0 0.535 0 0.02 0.535 0 0.04 0.535 0 0.06 0.535 0 0.08 0.535 0 0.1 0.535 0 0 0.54 0 0.02 0.54 0 0.04 0.54 0 0.06 0.54 0 0.08 0.54 0 0.1 0.54 0 0 0.545 0 0.02 0.545 0 0.04 0.545 0 0.06 0.545 0 0.08 0.545 0 0.1 0.545 0 0 0.55 0 0.02 0.55 0 0.04 0.55 0 0.06 0.55 0 0.08 0.55 0 0.1 0.55 0 0 0.555 0 0.02 0.555 0 0.04 0.555 0 0.06 0.555 0 0.08 0.555 0 0.1 0.555 0 0 0.56 0 0.02 0.56 0 0.04 0.56 0 0.06 0.56 0 0.08 0.56 0 0.1 0.56 0 0 0.565 0 0.02 0.565 0 0.04 0.565 0 0.06 0.565 0 0.08 0.565 0 0.1 0.565 0 0 0.57 0 0.02 0.57 0 0.04 0.57 0 0.06 0.57 0 0.08 0.57 0 0.1 0.57 0 0 0.575 0 0.02 0.575 0 0.04 0.575 0 0.06 0.575 0 0.08 0.575 0 0.1 0.575 0 0 0.58 0 0.02 0.58 0 0.04 0.58 0 0.06 0.58 0 0.08 0.58 0 0.1 0.58 0 0 0.585 0 0.02 0.585 0 0.04 0.585 0 0.06 0.585 0 0.08 0.585 0 0.1 0.585 0 0 0.59 0 0.02 0.59 0 0.04 0.59 0 0.06 0.59 0 0.08 0.59 0 0.1 0.59 0 0 0.595 0 0.02 0.595 0 0.04 0.595 0 0.06 0.595 0 0.08 0.595 0 0.1 0.595 0 0 0.6 0 0.02 0.6 0 0.04 0.6 0 0.06 0.6 0 0.08 0.6 0 0.1 0.6 0 0 0.605 0 0.02 0.605 0 0.04 0.605 0 0.06 0.605 0 0.08 0.605 0 0.1 0.605 0 0 0.61 0 0.02 0.61 0 0.04 0.61 0 0.06 0.61 0 0.08 0.61 0 0.1 0.61 0 0 0.615 0 0.02 0.615 0 0.04 0.615 0 0.06 0.615 0 0.08 0.615 0 0.1 0.615 0 0 0.62 0 0.02 0.62 0 0.04 0.62 0 0.06 0.62 0 0.08 0.62 0 0.1 0.62 0 0 0.625 0 0.02 0.625 0 0.04 0.625 0 0.06 0.625 0 0.08 0.625 0 0.1 0.625 0 0 0.63 0 0.02 0.63 0 0.04 0.63 0 0.06 0.63 0 0.08 0.63 0 0.1 0.63 0 0 0.635 0 0.02 0.635 0 0.04 0.635 0 0.06 0.635 0 0.08 0.635 0 0.1 0.635 0 0 0.64 0 0.02 0.64 0 0.04 0.64 0 0.06 0.64 0 0.08 0.64 0 0.1 0.64 0 0 0.645 0 0.02 0.645 0 0.04 0.645 0 0.06 0.645 0 0.08 0.645 0 0.1 0.645 0 0 0.65 0 0.02 0.65 0 0.04 0.65 0 0.06 0.65 0 0.08 0.65 0 0.1 0.65 0 0 0.655 0 0.02 0.655 0 0.04 0.655 0 0.06 0.655 0 0.08 0.655 0 0.1 0.655 0 0 0.66 0 0.02 0.66 0 0.04 0.66 0 0.06 0.66 0 0.08 0.66 0 0.1 0.66 0 0 0.665 0 0.02 0.665 0 0.04 0.665 0 0.06 0.665 0 0.08 0.665 0 0.1 0.665 0 0 0.67 0 0.02 0.67 0 0.04 0.67 0 0.06 0.67 0 0.08 0.67 0 0.1 0.67 0 0 0.675 0 0.02 0.675 0 0.04 0.675 0 0.06 0.675 0 0.08 0.675 0 0.1 0.675 0 0 0.68 0 0.02 0.68 0 0.04 0.68 0 0.06 0.68 0 0.08 0.68 0 0.1 0.68 0 0 0.685 0 0.02 0.685 0 0.04 0.685 0 0.06 0.685 0 0.08 0.685 0 0.1 0.685 0 0 0.69 0 0.02 0.69 0 0.04 0.69 0 0.06 0.69 0 0.08 0.69 0 0.1 
[...]
			<PointData Scalars="VitesseX">
				<DataArray Name="VitesseX" type="Float32" format="ascii">
 0 1.14881e-14 -7.56407e-15 1.65649e-14 2.4259e-14 0 0 5.96922e-15 5.4031e-16 1.4411e-14 2.34241e-14 0 0 -2.19157e-15 1.06665e-14 1.72188e-14 1.89288e-14 0 0 -7.04765e-15 1.54495e-14 2.68269e-14 1.17804e-14 0 0 -1.03065e-14 1.98043e-14 3.11802e-14 1.20143e-14 0 0 -8.33999e-15 2.08273e-14 2.75662e-14 1.83978e-14 0 0 9.68454e-15 -3.31816e-15 5.13151e-14 1.7035e-15 0 0 1.09011e-14 -7.28299e-15 5.541e-14 2.80065e-15 0 0 9.02054e-16 -1.95021e-15 5.29579e-14 1.16434e-14 0 0 -4.05855e-15 7.43534e-16 4.61244e-14 2.34061e-14 0 0 -1.09768e-14 2.97538e-14 -3.65535e-15 5.90415e-14 0 0 1.07818e-14 1.05344e-14 7.79731e-15 4.99156e-14 0 0 3.19004e-14 -2.36501e-14 5.2835e-14 1.96359e-14 0 0 4.49609e-15 3.15699e-14 5.52972e-15 4.13472e-14 0 0 1.672e-15 4.97672e-14 -1.94443e-15 2.97568e-14 0 0 2.85168e-14 1.74924e-14 4.47995e-14 -1.0199e-14 0 0 2.75067e-14 2.75015e-14 4.30549e-14 -1.00249e-14 0 0 1.80899e-14 4.07051e-14 3.58923e-14 -7.35676e-15 0 0 9.46595e-15 5.61624e-14 1.15666e-14 1.34897e-14 0 0 -2.39646e-15 6.27056e-14 3.69342e-15 1.79965e-14 0 0 -9.29824e-15 4.82099e-14 4.54038e-14 -2.10355e-14 0 0 -1.84314e-14 4.59121e-14 6.25553e-14 -3.52028e-14 0 0 -2.26429e-14 5.58679e-14 3.30514e-14 -1.18905e-14 0 0 -4.61978e-14 1.15091e-13 -7.84894e-14 7.66359e-14 0 0 -1.27786e-14 3.94203e-14 -1.30681e-14 5.29856e-14 0 0 1.72733e-14 -4.5838e-14 9.27782e-14 -2.76548e-15 0 0 -7.12279e-15 -1.42291e-14 4.42708e-14 5.41418e-14 0 0 -1.27612e-15 -3.16544e-14 7.88585e-14 3.51837e-14 0 0 1.92064e-14 -5.81555e-14 1.12687e-13 1.60703e-14 0 0 1.72413e-14 -1.2968e-14 4.41389e-14 5.7124e-14 0 0 9.97506e-15 5.25805e-14 -1.78692e-14 9.12915e-14 0 0 -3.14853e-15 7.63222e-14 2.00511e-14 5.56425e-14 0 0 1.55224e-15 7.26802e-14 6.88782e-14 2.66918e-14 0 0 -1.81973e-14 1.34858e-13 1.18274e-14 7.83615e-14 0 0 2.70757e-14 7.60167e-14 7.63442e-14 1.74877e-14 0 0 1.154e-13 -5.80791e-14 1.99371e-13 -7.27216e-14 0 0 4.90357e-14 2.76226e-14 9.72777e-14 3.11184e-14 0 0 2.75052e-14 2.90834e-14 5.92845e-14 1.39883e-13 0 0 4.51623e-15 5.3405e-14 4.48513e-14 1.54719e-13 0 0 -8.29789e-15 5.99702e-14 1.04392e-13 6.11581e-14 0 0 -1.95439e-14 6.76322e-14 1.54958e-13 -1.6114e-14 0 0 -5.23051e-14 1.60881e-13 1.58049e-14 7.95135e-14 0 0 -3.46755e-14 1.25159e-13 3.80439e-14 7.90688e-14 0 0 -1.67834e-14 1.01309e-13 1.01208e-13 1.16757e-15 0 0 4.94692e-14 6.72134e-14 1.05951e-13 -1.86568e-14 0 0 2.28469e-14 8.30877e-14 8.90549e-14 1.263e-15 0 0 -6.0399e-14 2.36592e-13 -1.03853e-13 1.07245e-13 0 0 -3.8553e-14 2.76103e-13 -1.69421e-13 1.27884e-13 0 0 5.26255e-14 1.33903e-13 1.0445e-14 1.44493e-14 0 0 1.12277e-13 8.26082e-15 1.70008e-13 -6.77174e-14 0 0 1.66866e-13 -1.21821e-13 3.28905e-13 -1.40333e-13 0 0 1.1315e-13 -5.30402e-15 2.1188e-13 -6.37446e-14 0 0 -2.45569e-14 2.41975e-13 -5.90253e-14 1.3599e-13 0 0 -1.29593e-13 3.69412e-13 -1.61897e-13 1.85635e-13 0 0 1.00777e-13 3.00245e-14 1.44665e-13 -2.87928e-14 0 0 2.70813e-13 -1.65978e-13 2.59533e-13 -9.89024e-14 0 0 9.4905e-14 1.06496e-13 3.34936e-14 -2.61991e-15 0 0 6.85909e-14 7.34587e-14 2.02498e-13 -1.34979e-13 0 0 4.41234e-14 9.98836e-14 2.55069e-13 -1.16867e-13 0 0 1.02491e-13 5.94347e-14 2.8119e-13 -1.28409e-14 0 0 1.16309e-13 3.24931e-14 3.00237e-13 8.46657e-14 0 0 -2.10545e-14 2.15046e-13 1.50659e-13 2.38435e-13 0 0 7.29538e-14 1.02021e-13 2.59228e-13 1.8945e-13 0 0 7.4155e-14 7.65375e-14 3.40029e-13 1.16233e-13 0 0 -1.73851e-14 1.59432e-13 3.44055e-13 1.07379e-13 0 0 9.28068e-14 6.20494e-14 4.17056e-13 3.18235e-14 0 0 -1.45637e-14 2.94692e-13 1.82976e-13 1.05164e-13 0 0 -3.20519e-14 2.20372e-13 3.09412e-13 4.90407e-14 0 0 1.34271e-13 -8.03885e-14 6.01926e-13 -3.92487e-14 0 0 -1.6898e-15 1.51278e-13 3.89312e-13 1.08043e-13 0 0 -1.04623e-13 2.64857e-13 3.32678e-13 9.09608e-14 0 0 -2.37678e-14 2.11538e-13 2.7479e-13 9.17041e-14 0 0 2.92629e-13 -1.42359e-13 4.5244e-13 -8.20274e-14 0 0 3.38023e-13 -1.0798e-13 4.14805e-13 -1.36233e-13 0 0 8.77028e-14 1.89983e-13 2.4364e-13 6.24074e-15 0 0 9.09063e-15 1.65293e-13 2.57015e-13 1.76021e-13 0 0 1.19964e-14 2.00012e-13 1.7443e-13 2.92773e-13 0 0 2.29985e-13 -5.85554e-14 5.48201e-13 -9.27289e-14 0 0 2.58284e-13 9.61362e-15 5.44718e-13 -3.08852e-13 0 0 1.28287e-13 3.53269e-13 1.49504e-13 -1.26457e-13 0 0 2.80805e-13 1.41832e-13 2.00714e-13 -7.24837e-14 0 0 4.41367e-13 -5.49961e-14 1.45696e-13 5.30442e-14 0 0 2.86765e-13 9.76508e-14 -2.82082e-14 2.02392e-13 0 0 9.38861e-14 2.26695e-13 -1.6098e-13 3.59487e-13 0 0 2.9685e-14 1.80914e-13 -3.68683e-14 3.02493e-13 0 0 5.27738e-14 -1.74608e-15 2.13102e-13 2.01411e-13 0 0 1.86068e-13 -3.83524e-13 6.27062e-13 -3.14435e-14 0 0 1.96659e-13 -4.52118e-13 6.54144e-13 -2.21553e-14 0 0 2.00676e-14 -2.01928e-13 4.24783e-13 1.23169e-13 0 0 -8.49955e-14 7.09628e-14 1.76809e-14 3.81765e-13 0 0 -2.85596e-14 7.11058e-14 -6.4188e-14 5.02759e-13 0 0 1.59777e-13 -6.10628e-14 -1.97668e-14 4.94628e-13 0 0 3.8264e-13 -2.74366e-13 8.49331e-14 4.42548e-13 0 0 4.24275e-13 -3.0684e-13 1.66777e-13 3.60672e-13 0 0 4.04655e-13 -2.68058e-13 1.75358e-13 2.94569e-13 0 0 3.54058e-13 -1.6995e-13 1.50958e-13 2.72608e-13 0 0 2.71563e-13 -1.96702e-14 1.18325e-13 2.48941e-13 0 0 1.56181e-13 1.72962e-13 1.06341e-13 1.94435e-13 0 0 5.58842e-14 3.73959e-13 1.05576e-13 1.14134e-13 0 0 2.72384e-14 4.77342e-13 1.2175e-13 4.70742e-14 0 0 3.60521e-14 4.85903e-13 1.70055e-13 1.24038e-15 0 0 5.57499e-14 4.62228e-13 2.42702e-13 -2.18583e-14 0 0 8.43451e-14 4.11233e-13 3.21763e-13 -2.9993e-14 0 0 1.19671e-13 3.62094e-13 4.05823e-13 -4.55698e-14 0 0 1.38474e-13 3.55033e-13 5.12598e-13 -8.66681e-14 0 0 1.355e-13 3.78968e-13 5.47719e-13 -1.44305e-13 0 0 1.13173e-13 4.47464e-13 5.11746e-13 -1.28515e-13 0 0 7.9384e-14 5.5918e-13 4.19257e-13 -8.1866e-14 0 0 9.26289e-14 6.52893e-13 2.50644e-13 -4.4731e-15 0 0 1.40227e-13 6.70108e-13 1.16152e-13 1.26131e-13 0 0 2.06389e-13 6.41183e-13 1.18495e-13 1.10949e-13 0 0 2.15321e-13 5.97552e-13 1.55862e-13 9.25091e-14 0 0 2.18519e-13 5.57004e-13 2.33406e-13 6.1008e-14 0 0 2.17162e-13 5.59654e-13 2.32461e-13 3.04518e-14 0 0 1.67645e-13 6.37009e-13 1.67353e-13 6.21272e-14 0 0 1.2215e-13 6.81014e-13 1.68359e-13 5.05549e-14 0 0 1.07905e-13 6.74841e-13 1.75986e-13 2.75921e-14 0 0 9.97787e-14 6.62701e-13 1.78521e-13 1.15791e-14 0 0 9.87928e-14 6.53511e-13 1.66899e-13 8.01691e-15 0 0 1.16137e-13 6.24309e-13 1.67843e-13 -8.02322e-16 0 0 1.67706e-13 5.3277e-13 2.00116e-13 -1.30899e-14 0 0 2.04795e-13 3.70794e-13 2.85263e-13 -5.19102e-15 0 0 1.92458e-13 2.95158e-13 3.22697e-13 2.23926e-14 0 0 1.93178e-13 2.52782e-13 2.94646e-13 9.70905e-14 0 0 2.03142e-13 1.93071e-13 2.88871e-13 1.11068e-13 0 0 1.83868e-13 1.66559e-13 3.18546e-13 1.20057e-13 0 0 1.59594e-13 1.69048e-13 3.14146e-13 1.30471e-13 0 0 1.30204e-13 2.11424e-13 2.48123e-13 1.65015e-13 0 0 1.40066e-13 1.81627e-13 2.74042e-13 1.5991e-13 0 0 1.54809e-13 1.33636e-13 3.13782e-13 2.03747e-13 0 0 1.16422e-13 1.87127e-13 2.78484e-13 1.75882e-13 0 0 8.37507e-14 2.67045e-13 2.4853e-13 7.77371e-14 0 0 8.3194e-14 2.84028e-13 1.99385e-13 1.71953e-13 0 0 9.16041e-14 2.73928e-13 1.92257e-13 2.53069e-13 0 0 1.2347e-13 2.30934e-13 2.0371e-13 2.31853e-13 0 0 1.32548e-13 1.72894e-13 2.7885e-13 1.44668e-13 0 0 1.15469e-13 1.6355e-13 2.94574e-13 1.0379e-13 0 0 1.10007e-13 1.42817e-13 3.3884e-13 1.3403e-14 0 0 1.08859e-13 1.21749e-13 3.88342e-13 -1.62186e-14 0 0 1.07847e-13 1.00679e-13 3.77659e-13 9.33751e-14 0 0 8.38193e-14 1.57068e-13 3.58906e-13 1.22119e-13 0 0 1.02906e-13 2.12254e-13 3.34492e-13 1.03855e-13 0 0 1.23641e-13 2.52787e-13 3.49863e-13 1.15642e-13 0 0 1.03153e-13 3.46161e-13 3.01288e-13 2.91413e-13 0 0 9.94445e-14 3.6954e-13 3.46236e-13 3.3045e-13 0 0 1.05546e-13 3.56198e-13 4.92569e-13 1.3716e-13 0 0 7.57637e-14 3.86105e-13 5.63561e-13 6.70297e-14 0 0 9.60082e-14 3.63824e-13 6.16728e-13 1.29644e-13 0 0 1.29927e-13 3.66568e-13 6.18371e-13 1.54596e-13 0 0 9.51777e-14 4.23293e-13 6.07864e-13 1.77957e-13 0 0 1.84188e-13 3.1384e-13 7.53366e-13 1.87596e-13 0 0 1.9714e-13 3.71356e-13 6.97596e-13 2.93686e-13 0 0 1.7554e-13 4.0538e-13 6.92179e-13 3.30244e-13 0 0 1.63312e-13 4.42353e-13 6.66074e-13 4.03524e-13 0 0 1.80127e-13 4.78629e-13 6.57066e-13 4.32429e-13 0 0 2.60477e-13 4.47161e-13 6.89531e-13 3.95488e-13 0 0 3.04295e-13 5.05769e-13 5.41374e-13 5.28173e-13 0 0 4.1219e-13 4.29359e-13 6.19462e-13 4.11621e-13 0 0 4.46173e-13 4.47418e-13 6.29417e-13 3.78892e-13 0 0 4.03618e-13 5.57965e-13 5.43738e-13 3.85941e-13 0 0 3.91093e-13 6.43176e-13 5.29258e-13 2.48702e-13 0 0 4.55826e-13 5.97127e-13 6.28516e-13 1.75838e-13 0 0 5.30197e-13 5.73446e-13 6.33773e-13 1.46812e-13 0 0 5.08236e-13 7.26924e-13 4.01466e-13 3.26283e-13 0 0 5.89923e-13 5.86568e-13 5.60286e-13 2.6805e-13 0 0 5.65034e-13 6.07171e-13 5.89193e-13 1.70255e-13 0 0 5.39649e-13 6.51882e-13 5.51928e-13 2.04534e-13 0 0 5.89927e-13 5.79173e-13 6.46281e-13 7.89624e-14 0 0 4.05897e-13 9.80359e-13 1.47801e-13 2.48009e-13 0 0 4.57719e-13 8.67362e-13 3.34798e-13 7.52829e-14 0 0 6.04786e-13 4.88117e-13 8.74384e-13 -3.00026e-13 0 0 4.55945e-13 7.08956e-13 5.05428e-13 1.01841e-13 0 0 5.1601e-13 5.78839e-13 5.24888e-13 2.23464e-13 0 0 4.30129e-13 6.36982e-13 5.02054e-13 2.53214e-13 0 0 2.72815e-13 8.9656e-13 1.56557e-13 5.45683e-13 0 0 3.571e-13 6.63084e-13 4.19757e-13 4.01563e-13 0 0 4.26794e-13 3.49634e-13 9.8295e-13 2.78591e-14 0 0 5.49862e-13 3.47355e-13 8.36531e-13 1.08686e-13 0 0 5.78519e-13 5.75943e-13 3.57835e-13 3.88447e-13 0 0 4.4302e-13 7.58721e-13 3.05429e-13 2.61302e-13 0 0 3.89744e-13 7.74772e-13 3.52032e-13 1.36342e-13 0 0 4.83579e-13 6.13615e-13 5.4651e-13 3.66146e-14 0 0 5.40907e-13 4.58924e-13 8.56238e-13 -2.01492e-13 0 0 4.1843e-13 5.91325e-13 7.526e-13 -1.58386e-13 0 0 3.69244e-13 6.49176e-13 5.37484e-13 8.06977e-14 0 0 3.31244e-13 6.38607e-13 5.17308e-13 1.38705e-13 0 0 2.685e-13 5.56609e-13 6.91778e-13 7.80193e-14 0 0 2.29607e-13 5.16584e-13 6.99847e-13 1.32783e-13 0 0 -4.79299e-14 8.6625e-13 4.51628e-13 2.61176e-13 0 0 -2.47661e-14 7.30872e-13 7.61644e-13 -1.07705e-14 0 0 6.38992e-14 5.73134e-13 9.16103e-13 -1.41471e-13 0 0 -2.14271e-14 7.53112e-13 4.93296e-13 3.18844e-13 0 0 1.7494e-13 5.87973e-13 3.32685e-13 6.02401e-13 0 0 1.41519e-13 7.0528e-13 2.21045e-13 5.50498e-13 0 0 -4.15478e-14 8.66676e-13 3.39199e-13 2.75067e-13 0 0 -9.95839e-14 7.08363e-13 8.35202e-13 -1.4325e-13 0 0 4.38484e-14 4.26524e-13 1.2043e-12 -3.68142e-13 0 0 3.9051e-14 4.69554e-13 9.5478e-13 -7.74736e-14 0 0 -9.25153e-14 7.41081e-13 4.05574e-13 4.04295e-13 0 0 8.9704e-14 5.17976e-13 5.82693e-13 3.03131e-13 0 0 1.45898e-13 4.0042e-13 8.38709e-13 7.25116e-14 0
				</DataArray>
				<DataArray Name="VitesseY" type="Float32" format="ascii">