<?xml version="1.0"?>
<VTKFile type="PolyData">
	<PolyData>
		<Piece NumberOfPoints="1206" NumberOfPolys="1000">
			<Points>
				<DataArray type="Float32" NumberOfComponents="3" format="ascii">
 0 0 0 0.02 0 0 0.04 0 0 0.06 0 0 0.08 0 0 0.1 0 0 0 0.005 0 0.02 0.005 0 0.04 0.005 0 0.06 0.005 0 0.08 0.005 0 0.1 0.005 0 0 0.01 0 0.02 0.01 0 0.04 0.01 0 0.06 0.01 0 0.08 0.01 0 0.1 0.01 0 0 0.015 0 0.02 0.015 0 0.04 0.015 0 0.06 0.015 0 0.08 0.015 0 0.1 0.015 0 0 0.02 0 0.02 0.02 0 0.04 0.02 0 0.06 0.02 0 0.08 0.02 0 0.1 0.02 0 0 0.025 0 0.02 0.025 0 0.04 0.025 0 0.06 0.025 0 0.08 0.025 0 0.1 0.025 0 0 0.03 0 0.02 0.03 0 0.04 0.03 0 0.06 0.03 0 0.08 0.03 0 0.1 0.03 0 0 0.035 0 0.02 0.035 0 0.04 0.035 0 0.06 0.035 0 0.08 0.035 0 0.1 0.035 0 0 0.04 0 0.02 0.04 0 0.04 0.04 0 0.06 0.04 0 0.08 0.04 0 0.1 0.04 0 0 0.045 0 0.02 0.045 0 0.04 0.045 0 0.06 0.045 0 0.08 0.045 0 0.1 0.045 0 0 0.05 0 0.02 0.05 0 0.04 0.05 0 0.06 0.05 0 0.08 0.05 0 0.1 0.05 0 0 0.055 0 0.02 0.055 0 0.04 0.055 0 0.06 0.055 0 0.08 0.055 0 0.1 0.055 0 0 0.06 0 0.02 0.06 0 0.04 0.06 0 0.06 0.06 0 0.08 0.06 0 0.1 0.06 0 0 0.065 0 0.02 0.065 0 0.04 0.065 0 0.06 0.065 0 0.08 0.065 0 0.1 0.065 0 0 0.07 0 0.02 0.07 0 0.04 0.07 0 0.06 0.07 0 0.08 0.07 0 0.1 0.07 0 0 0.075 0 0.02 0.075 0 0.04 0.075 0 0.06 0.075 0 0.08 0.075 0 0.1 0.075 0 0 0.08 0 0.02 0.08 0 0.04 0.08 0 0.06 0.08 0 0.08 0.08 0 0.1 0.08 0 0 0.085 0 0.02 0.085 0 0.04 0.085 0 0.06 0.085 0 0.08 0.085 0 0.1 0.085 0 0 0.09 0 0.02 0.09 0 0.04 0.09 0 0.06 0.09 0 0.08 0.09 0 0.1 0.09 0 0 0.095 0 0.02 0.095 0 0.04 0.095 0 0.06 0.095 0 0.08 0.095 0 0.1 0.095 0 0 0.1 0 0.02 0.1 0 0.04 0.1 0 0.06 0.1 0 0.08 0.1 0 0.1 0.1 0 0 0.105 0 0.02 0.105 0 0.04 0.105 0 0.06 0.105 0 0.08 0.105 0 0.1 0.105 0 0 0.11 0 0.02 0.11 0 0.04 0.11 0 0.06 0.11 0 0.08 0.11 0 0.1 0.11 0 0 0.115 0 0.02 0.115 0 0.04 0.115 0 0.06 0.115 0 0.08 0.115 0 0.1 0.115 0 0 0.12 0 0.02 0.12 0 0.04 0.12 0 0.06 0.12 0 0.08 0.12 0 0.1 0.12 0 0 0.125 0 0.02 0.125 0 0.04 0.125 0 0.06 0.125 0 0.08 0.125 0 0.1 0.125 0 0 0.13 0 0.02 0.13 0 0.04 0.13 0 0.06 0.13 0 0.08 0.13 0 0.1 0.13 0 0 0.135 0 0.02 0.135 0 0.04 0.135 0 0.06 0.135 0 0.08 0.135 0 0.1 0.135 0 0 0.14 0 0.02 0.14 0 0.04 0.14 0 0.06 0.14 0 0.08 0.14 0 0.1 0.14 0 0 0.145 0 0.02 0.145 0 0.04 0.145 0 0.06 0.145 0 0.08 0.145 0 0.1 0.145 0 0 0.15 0 0.02 0.15 0 0.04 0.15 0 0.06 0.15 0 0.08 0.15 0 0.1 0.15 0 0 0.155 0 0.02 0.155 0 0.04 0.155 0 0.06 0.155 0 0.08 0.155 0 0.1 0.155 0 0 0.16 0 0.02 0.16 0 0.04 0.16 0 0.06 0.16 0 0.08 0.16 0 0.1 0.16 0 0 0.165 0 0.02 0.165 0 0.04 0.165 0 0.06 0.165 0 0.08 0.165 0 0.1 0.165 0 0 0.17 0 0.02 0.17 0 0.04 0.17 0 0.06 0.17 0 0.08 0.17 0 0.1 0.17 0 0 0.175 0 0.02 0.175 0 0.04 0.175 0 0.06 0.175 0 0.08 0.175 0 0.1 0.175 0 0 0.18 0 0.02 0.18 0 0.04 0.18 0 0.06 0.18 0 0.08 0.18 0 0.1 0.18 0 0 0.185 0 0.02 0.185 0 0.04 0.185 0 0.06 0.185 0 0.08 0.185 0 0.1 0.185 0 0 0.19 0 0.02 0.19 0 0.04 0.19 0 0.06 0.19 0 0.08 0.19 0 0.1 0.19 0 0 0.195 0 0.02 0.195 0 0.04 0.195 0 0.06 0.195 0 0.08 0.195 0 0.1 0.195 0 0 0.2 0 0.02 0.2 0 0.04 0.2 0 0.06 0.2 0 0.08 0.2 0 0.1 0.2 0 0 0.205 0 0.02 0.205 0 0.04 0.205 0 0.06 0.205 0 0.08 0.205 0 0.1 0.205 0 0 0.21 0 0.02 0.21 0 0.04 0.21 0 0.06 0.21 0 0.08 0.21 0 0.1 0.21 0 0 0.215 0 0.02 0.215 0 0.04 0.215 0 0.06 0.215 0 0.08 0.215 0 0.1 0.215 0 0 0.22 0 0.02 0.22 0 0.04 0.22 0 0.06 0.22 0 0.08 0.22 0 0.1 0.22 0 0 0.225 0 0.02 0.225 0 0.04 0.225 0 0.06 0.225 0 0.08 0.225 0 0.1 0.225 0 0 0.23 0 0.02 0.23 0 0.04 0.23 0 0.06 0.23 0 0.08 0.23 0 0.1 0.23 0 0 0.235 0 0.02 0.235 0 0.04 0.235 0 0.06 0.235 0 0.08 0.235 0 0.1 0.235 0 0 0.24 0 0.02 0.24 0 0.04 0.24 0 0.06 0.24 0 0.08 0.24 0 0.1 0.24 0 0 0.245 0 0.02 0.245 0 0.04 0.245 0 0.06 0.245 0 0.08 0.245 0 0.1 0.245 0 0 0.25 0 0.02 0.25 0 0.04 0.25 0 0.06 0.25 0 0.08 0.25 0 0.1 0.25 0 0 0.255 0 0.02 0.255 0 0.04 0.255 0 0.06 0.255 0 0.08 0.255 0 0.1 0.255 0 0 0.26 0 0.02 0.26 0 0.04 0.26 0 0.06 0.26 0 0.08 0.26 0 0.1 0.26 0 0 0.265 0 0.02 0.265 0 0.04 0.265 0 0.06 0.265 0 0.08 0.265 0 0.1 0.265 0 0 0.27 0 0.02 0.27 0 0.04 0.27 0 0.06 0.27 0 0.08 0.27 0 0.1 0.27 0 0 0.275 0 0.02 0.275 0 0.04 0.275 0 0.06 0.275 0 0.08 0.275 0 0.1 0.275 0 0 0.28 0 0.02 0.28 0 0.04 0.28 0 0.06 0.28 0 0.08 0.28 0 0.1 0.28 0 0 0.285 0 0.02 0.285 0 0.04 0.285 0 0.06 0.285 0 0.08 0.285 0 0.1 0.285 0 0 0.29 0 0.02 0.29 0 0.04 0.29 0 0.06 0.29 0 0.08 0.29 0 0.1 0.29 0 0 0.295 0 0.02 0.295 0 0.04 0.295 0 0.06 0.295 0 0.08 0.295 0 0.1 0.295 0 0 0.3 0 0.02 0.3 0 0.04 0.3 0 0.06 0.3 0 0.08 0.3 0 0.1 0.3 0 0 0.305 0 0.02 0.305 0 0.04 0.305 0 0.06 0.305 0 0.08 0.305 0 0.1 0.305 0 0 0.31 0 0.02 0.31 0 0.04 0.31 0 0.06 0.31 0 0.08 0.31 0 0.1 0.31 0 0 0.315 0 0.02 0.315 0 0.04 0.315 0 0.06 0.315 0 0.08 0.315 0 0.1 0.315 0 0 0.32 0 0.02 0.32 0 0.04 0.32 0 0.06 0.32 0 0.08 0.32 0 0.1 0.32 0 0 0.325 0 0.02 0.325 0 0.04 0.325 0 0.06 0.325 0 0.08 0.325 0 0.1 0.325 0 0 0.33 0 0.02 0.33 0 0.04 0.33 0 0.06 0.33 0 0.08 0.33 0 0.1 0.33 0 0 0.335 0 0.02 0.335 0 0.04 0.335 0 0.06 0.335 0 0.08 0.335 0 0.1 0.335 0 0 0.34 0 0.02 0.34 0 0.04 0.34 0 0.06 0.34 0 0.08 0.34 0 0.1 0.34 0 0 0.345 0 0.02 0.345 0 0.04 0.345 0 0.06 0.345 0 0.08 0.345 0 0.1 0.345 0 0 0.35 0 0.02 0.35 0 0.04 0.35 0 0.06 0.35 0 0.08 0.35 0 0.1 0.35 0 0 0.355 0 0.02 0.355 0 0.04 0.355 0 0.06 0.355 0 0.08 0.355 0 0.1 0.355 0 0 0.36 0 0.02 0.36 0 0.04 0.36 0 0.06 0.36 0 0.08 0.36 0 0.1 0.36 0 0 0.365 0 0.02 0.365 0 0.04 0.365 0 0.06 0.365 0 0.08 0.365 0 0.1 0.365 0 0 0.37 0 0.02 0.37 0 0.04 0.37 0 0.06 0.37 0 0.08 0.37 0 0.1 0.37 0 0 0.375 0 0.02 0.375 0 0.04 0.375 0 0.06 0.375 0 0.08 0.375 0 0.1 0.375 0 0 0.38 0 0.02 0.38 0 0.04 0.38 0 0.06 0.38 0 0.08 0.38 0 0.1 0.38 0 0 0.385 0 0.02 0.385 0 0.04 0.385 0 0.06 0.385 0 0.08 0.385 0 0.1 0.385 0 0 0.39 0 0.02 0.39 0 0.04 0.39 0 0.06 0.39 0 0.08 0.39 0 0.1 0.39 0 0 0.395 0 0.02 0.395 0 0.04 0.395 0 0.06 0.395 0 0.08 0.395 0 0.1 0.395 0 0 0.4 0 0.02 0.4 0 0.04 0.4 0 0.06 0.4 0 0.08 0.4 0 0.1 0.4 0 0 0.405 0 0.02 0.405 0 0.04 0.405 0 0.06 0.405 0 0.08 0.405 0 0.1 0.405 0 0 0.41 0 0.02 0.41 0 0.04 0.41 0 0.06 0.41 0 0.08 0.41 0 0.1 0.41 0 0 0.415 0 0.02 0.415 0 0.04 0.415 0 0.06 0.415 0 0.08 0.415 0 0.1 0.415 0 0 0.42 0 0.02 0.42 0 0.04 0.42 0 0.06 0.42 0 0.08 0.42 0 0.1 0.42 0 0 0.425 0 0.02 0.425 0 0.04 0.425 0 0.06 0.425 0 0.08 0.425 0 0.1 0.425 0 0 0.43 0 0.02 0.43 0 0.04 0.43 0 0.06 0.43 0 0.08 0.43 0 0.1 0.43 0 0 0.435 0 0.02 0.435 0 0.04 0.435 0 0.06 0.435 0 0.08 0.435 0 0.1 0.435 0 0 0.44 0 0.02 0.44 0 0.04 0.44 0 0.06 0.44 0 0.08 0.44 0 0.1 0.44 0 0 0.445 0 0.02 0.445 0 0.04 0.445 0 0.06 0.445 0 0.08 0.445 0 0.1 0.445 0 0 0.45 0 0.02 0.45 0 0.04 0.45 0 0.06 0.45 0 0.08 0.45 0 0.1 0.45 0 0 0.455 0 0.02 0.455 0 0.04 0.455 0 0.06 0.455 0 0.08 0.455 0 0.1 0.455 0 0 0.46 0 0.02 0.46 0 0.04 0.46 0 0.06 0.46 0 0.08 0.46 0 0.1 0.46 0 0 0.465 0 0.02 0.465 0 0.04 0.465 0 0.06 0.465 0 0.08 0.465 0 0.1 0.465 0 0 0.47 0 0.02 0.47 0 0.04 0.47 0 0.06 0.47 0 0.08 0.47 0 0.1 0.47 0 0 0.475 0 0.02 0.475 0 0.04 0.475 0 0.06 0.475 0 0.08 0.475 0 0.1 0.475 0 0 0.48 0 0.02 0.48 0 0.04 0.48 0 0.06 0.48 0 0.08 0.48 0 0.1 0.48 0 0 0.485 0 0.02 0.485 0 0.04 0.485 0 0.06 0.485 0 0.08 0.485 0 0.1 0.485 0 0 0.49 0 0.02 0.49 0 0.04 0.49 0 0.06 0.49 0 0.08 0.49 0 0.1 0.49 0 0 0.495 0 0.02 0.495 0 0.04 0.495 0 0.06 0.495 0 0.08 0.495 0 0.1 0.495 0 0 0.5 0 0.02 0.5 0 0.04 0.5 0 0.06 0.5 0 0.08 0.5 0 0.1 0.5 0 0 0.505 0 0.02 0.505 0 0.04 0.505 0 0.06 0.505 0 0.08 0.505 0 0.1 0.505 0 0 0.51 0 0.02 0.51 0 0.04 0.51 0 0.06 0.51 0 0.08 0.51 0 0.1 0.51 0 0 0.515 0 0.02 0.515 0 0.04 0.515 0 0.06 0.515 0 0.08 0.515 0 0.1 0.515 0 0 0.52 0 0.02 0.52 0 0.04 0.52 0 0.06 0.52 0 0.08 0.52 0 0.1 0.52 0 0 0.525 0 0.02 0.525 0 0.04 0.525 0 0.06 0.525 0 0.08 0.525 0 0.1 0.525 0 0 0.53 0 0.02 0.53 0 0.04 0.53 0 0.06 0.53 0 0.08 0.53 0 0.1 0.53 0 0 0.535 0 0.02 0.535 0 0.04 0.535 0 0.06 0.535 0 0.08 0.535 0 0.1 0.535 0 0 0.54 0 0.02 0.54 0 0.04 0.54 0 0.06 0.54 0 0.08 0.54 0 0.1 0.54 0 0 0.545 0 0.02 0.545 0 0.04 0.545 0 0.06 0.545 0 0.08 0.545 0 0.1 0.545 0 0 0.55 0 0.02 0.55 0 0.04 0.55 0 0.06 0.55 0 0.08 0.55 0 0.1 0.55 0 0 0.555 0 0.02 0.555 0 0.04 0.555 0 0.06 0.555 0 0.08 0.555 0 0.1 0.555 0 0 0.56 0 0.02 0.56 0 0.04 0.56 0 0.06 0.56 0 0.08 0.56 0 0.1 0.56 0 0 0.565 0 0.02 0.565 0 0.04 0.565 0 0.06 0.565 0 0.08 0.565 0 0.1 0.565 0 0 0.57 0 0.02 0.57 0 0.04 0.57 0 0.06 0.57 0 0.08 0.57 0 0.1 0.57 0 0 0.575 0 0.02 0.575 0 0.04 0.575 0 0.06 0.575 0 0.08 0.575 0 0.1 0.575 0 0 0.58 0 0.02 0.58 0 0.04 0.58 0 0.06 0.58 0 0.08 0.58 0 0.1 0.58 0 0 0.585 0 0.02 0.585 0 0.04 0.585 0 0.06 0.585 0 0.08 0.585 0 0.1 0.585 0 0 0.59 0 0.02 0.59 0 0.04 0.59 0 0.06 0.59 0 0.08 0.59 0 0.1 0.59 0 0 0.595 0 0.02 0.595 0 0.04 0.595 0 0.06 0.595 0 0.08 0.595 0 0.1 0.595 0 0 0.6 0 0.02 0.6 0 0.04 0.6 0 0.06 0.6 0 0.08 0.6 0 0.1 0.6 0 0 0.605 0 0.02 0.605 0 0.04 0.605 0 0.06 0.605 0 0.08 0.605 0 0.1 0.605 0 0 0.61 0 0.02 0.61 0 0.04 0.61 0 0.06 0.61 0 0.08 0.61 0 0.1 0.61 0 0 0.615 0 0.02 0.615 0 0.04 0.615 0 0.06 0.615 0 0.08 0.615 0 0.1 0.615 0 0 0.62 0 0.02 0.62 0 0.04 0.62 0 0.06 0.62 0 0.08 0.62 0 0.1 0.62 0 0 0.625 0 0.02 0.625 0 0.04 0.625 0 0.06 0.625 0 0.08 0.625 0 0.1 0.625 0 0 0.63 0 0.02 0.63 0 0.04 0.63 0 0.06 0.63 0 0.08 0.63 0 0.1 0.63 0 0 0.635 0 0.02 0.635 0 0.04 0.635 0 0.06 0.635 0 0.08 0.635 0 0.1 0.635 0 0 0.64 0 0.02 0.64 0 0.04 0.64 0 0.06 0.64 0 0.08 0.64 0 0.1 0.64 0 0 0.645 0 0.02 0.645 0 0.04 0.645 0 0.06 0.645 0 0.08 0.645 0 0.1 0.645 0 0 0.65 0 0.02 0.65 0 0.04 0.65 0 0.06 0.65 0 0.08 0.65 0 0.1 0.65 0 0 0.655 0 0.02 0.655 0 0.04 0.655 0 0.06 0.655 0 0.08 0.655 0 0.1 0.655 0 0 0.66 0 0.02 0.66 0 0.04 0.66 0 0.06 0.66 0 0.08 0.66 0 0.1 0.66 0 0 0.665 0 0.02 0.665 0 0.04 0.665 0 0.06 0.665 0 0.08 0.665 0 0.1 0.665 0 0 0.67 0 0.02 0.67 0 0.04 0.67 0 0.06 0.67 0 0.08 0.67 0 0.1 0.67 0 0 0.675 0 0.02 0.675 0 0.04 0.675 0 0.06 0.675 0 0.08 0.675 0 0.1 0.675 0 0 0.68 0 0.02 0.68 0 0.04 0.68 0 0.06 0.68 0 0.08 0.68 0 0.1 0.68 0 0 0.685 0 0.02 0.685 0 0.04 0.685 0 0.06 0.685 0 0.08 0.685 0 0.1 0.685 0 0 0.69 0 0.02 0.69 0 0.04 0.69 0 0.06 0.69 0 0.08 0.69 0 0.1 
[...]
			<PointData Scalars="VitesseX">
				<DataArray Name="VitesseX" type="Float32" format="ascii">
 0 3.75349e-15 -5.60829e-15 -1.70651e-14 -1.77431e-14 0 0 1.67592e-15 -5.31753e-15 -1.64431e-14 -1.86642e-14 0 0 -3.73609e-15 -2.80182e-15 -1.56643e-14 -2.30037e-14 0 0 -5.70508e-15 -6.36177e-15 -1.12998e-14 -2.59895e-14 0 0 -5.49089e-15 -1.63296e-14 -2.92452e-15 -3.29179e-14 0 0 -1.05479e-14 -2.07907e-14 -9.2434e-16 -3.84363e-14 0 0 -2.1706e-14 -1.27073e-14 -1.53079e-14 -2.78175e-14 0 0 -2.08695e-14 -1.92088e-14 -1.90864e-14 -2.46993e-14 0 0 -1.234e-14 -4.23807e-14 -1.05531e-14 -1.99759e-14 0 0 -9.81446e-15 -5.21472e-14 -1.5285e-14 -8.78392e-15 0 0 -1.82249e-14 -4.22787e-14 -2.84814e-14 -5.26561e-15 0 0 -3.00108e-14 -3.65363e-14 -2.48036e-14 -8.79025e-15 0 0 -3.36975e-14 -3.7353e-14 -2.38242e-14 -3.42263e-15 0 0 -1.6555e-14 -5.58892e-14 -1.90834e-14 2.67836e-15 0 0 3.55364e-15 -7.41321e-14 -5.3853e-15 7.34503e-16 0 0 -1.06007e-14 -3.98379e-14 -3.5682e-14 3.12461e-14 0 0 2.6183e-15 -5.10141e-14 -2.54944e-14 4.77091e-14 0 0 -3.85099e-15 -2.4103e-14 -4.78287e-14 7.3978e-14 0 0 -2.49869e-14 2.40345e-14 -8.4575e-14 8.81736e-14 0 0 -3.2004e-15 -1.51488e-14 -1.30229e-14 2.05285e-14 0 0 -2.29484e-14 6.6155e-15 -7.6075e-15 -4.5923e-15 0 0 -4.48475e-14 3.46783e-14 -4.45619e-14 1.31959e-14 0 0 -8.39607e-15 -2.85378e-14 1.08946e-14 -3.63538e-14 0 0 -1.60194e-14 -2.13208e-14 -1.3854e-14 -3.42501e-14 0 0 -3.01717e-14 -1.06989e-14 -3.84423e-14 -2.19555e-14 0 0 -7.76361e-15 -5.29803e-14 8.77953e-16 -4.69357e-14 0 0 -1.62457e-14 -3.23448e-14 -3.10493e-14 -1.54793e-14 0 0 -2.33055e-14 -1.4841e-14 -4.53559e-14 -1.07128e-14 0 0 -3.78194e-14 -1.30299e-14 -1.68071e-14 -5.15296e-14 0 0 -3.79046e-14 -1.44497e-14 -1.4629e-14 -5.44841e-14 0 0 3.22834e-14 -1.03727e-13 4.5979e-14 -9.62162e-14 0 0 -1.03877e-14 -4.87631e-14 -2.12079e-14 -5.20921e-14 0 0 -7.34145e-14 3.55188e-14 -1.06564e-13 -1.47984e-14 0 0 -2.741e-14 -4.12015e-14 -1.95199e-14 -9.0987e-14 0 0 -2.50481e-14 -1.78566e-14 -7.40483e-14 -3.17995e-14 0 0 -1.93615e-14 -4.63894e-14 -6.1702e-14 -4.61382e-15 0 0 -7.60331e-15 -8.63037e-14 -4.4327e-14 4.42935e-14 0 0 -2.26561e-14 -5.06945e-14 -5.5215e-14 4.35691e-14 0 0 -2.37281e-14 -7.02859e-14 1.9793e-14 -5.971e-14 0 0 -4.36914e-14 -6.00214e-14 1.62785e-14 -6.58476e-14 0 0 -1.08165e-13 9.76038e-15 2.04555e-16 -8.445e-14 0 0 -8.80944e-14 -3.72117e-15 2.08076e-14 -1.02186e-13 0 0 -7.36995e-14 -3.93279e-15 1.87387e-14 -9.48846e-14 0 0 -1.61182e-13 1.11394e-13 -3.56708e-14 -9.11023e-14 0 0 -1.14476e-13 8.40906e-14 8.20993e-15 -8.77139e-14 0 0 -3.14489e-14 3.71933e-14 1.40543e-14 -1.82751e-14 0 0 -1.11803e-13 1.2693e-13 -4.05051e-14 5.35532e-14 0 0 -1.17603e-13 1.65539e-14 1.18174e-13 -1.08269e-14 0 0 -1.04027e-13 -7.69961e-14 1.99846e-13 -3.17994e-14 0 0 -1.36666e-13 -5.71942e-14 1.50667e-13 -8.06967e-15 0 0 -7.66962e-14 -1.23376e-13 1.42394e-13 -6.24111e-15 0 0 -2.77524e-14 -9.68372e-14 2.2931e-14 3.76661e-14 0 0 -1.1386e-13 4.55712e-14 -1.40873e-13 6.26503e-14 0 0 -1.22723e-13 1.52733e-14 -9.00192e-14 -5.05322e-14 0 0 -7.04433e-14 -1.04445e-13 3.38502e-14 -1.69621e-13 0 0 -5.57385e-14 -1.8478e-13 1.09821e-13 -2.00789e-13 0 0 -5.63144e-14 -2.3737e-13 1.71288e-13 -2.07353e-13 0 0 -1.79386e-13 -1.00345e-13 -1.46347e-14 -7.04791e-14 0 0 -1.19337e-13 -1.94115e-13 -5.85065e-14 -4.17705e-14 0 0 -2.88007e-14 -3.38864e-13 4.80305e-14 -1.78209e-13 0 0 -9.85671e-14 -2.22197e-13 -5.93275e-14 -2.22115e-13 0 0 -5.89558e-14 -2.02008e-13 -1.06626e-13 -2.28558e-13 0 0 -3.89945e-14 -1.86071e-13 -8.33202e-14 -2.30411e-13 0 0 -6.32189e-14 -1.9071e-13 -3.61905e-14 -2.37112e-13 0 0 -7.03463e-14 -2.95038e-13 8.70914e-14 -2.80544e-13 0 0 -1.6668e-13 -2.48211e-13 3.87086e-14 -2.31315e-13 0 0 -2.55981e-13 -1.29914e-13 -8.14407e-14 -1.71693e-13 0 0 -2.88915e-13 -1.06258e-13 -7.18597e-14 -2.22107e-13 0 0 -2.4483e-13 -1.39894e-13 -2.92466e-14 -3.16581e-13 0 0 -1.82794e-13 -1.689e-13 -6.10661e-14 -3.70802e-13 0 0 -1.44735e-13 -2.20452e-13 -7.2401e-14 -3.64177e-13 0 0 -1.58497e-13 -2.6786e-13 -9.74362e-14 -3.41548e-13 0 0 -2.05846e-13 -2.9522e-13 -7.51864e-14 -3.18603e-13 0 0 -2.58139e-13 -2.99879e-13 -7.12588e-14 -3.28078e-13 0 0 -3.08316e-13 -3.26371e-13 -5.15422e-14 -3.18455e-13 0 0 -3.22929e-13 -3.96575e-13 2.86239e-14 -3.37202e-13 0 0 -3.35651e-13 -4.28821e-13 8.20837e-14 -3.38376e-13 0 0 -3.77199e-13 -3.97033e-13 7.32091e-14 -2.37943e-13 0 0 -4.55773e-13 -3.12111e-13 5.206e-14 -1.12298e-13 0 0 -5.00234e-13 -2.68111e-13 6.81559e-14 -1.04247e-13 0 0 -4.97612e-13 -2.71607e-13 1.54709e-13 -1.44723e-13 0 0 -4.7705e-13 -2.97356e-13 2.34231e-13 -2.52117e-13 0 0 -4.27104e-13 -3.26603e-13 2.41302e-13 -3.00248e-13 0 0 -3.58356e-13 -3.49243e-13 2.03331e-13 -2.95203e-13 0 0 -2.85402e-13 -3.55478e-13 1.26193e-13 -2.73763e-13 0 0 -2.10866e-13 -3.44342e-13 3.11223e-14 -2.45793e-13 0 0 -1.46868e-13 -3.16285e-13 -7.57064e-14 -2.15835e-13 0 0 -9.9085e-14 -2.83147e-13 -1.55604e-13 -2.00913e-13 0 0 -8.13001e-14 -2.52888e-13 -2.31544e-13 -1.82507e-13 0 0 -9.04439e-14 -2.12946e-13 -3.01964e-13 -1.85654e-13 0 0 -9.56658e-14 -2.10014e-13 -3.01441e-13 -2.06903e-13 0 0 -7.56777e-14 -2.40317e-13 -2.69834e-13 -2.50404e-13 0 0 -2.23124e-14 -3.08615e-13 -2.16328e-13 -2.9145e-13 0 0 4.21203e-14 -3.69006e-13 -1.98504e-13 -3.36535e-13 0 0 7.65332e-14 -3.8542e-13 -2.02282e-13 -4.01476e-13 0 0 8.23033e-14 -3.73037e-13 -2.35292e-13 -4.45892e-13 0 0 7.30097e-14 -3.18228e-13 -3.05927e-13 -4.46706e-13 0 0 7.84906e-14 -2.37841e-13 -4.2056e-13 -4.29204e-13 0 0 1.00541e-13 -2.10106e-13 -5.26232e-13 -3.95313e-13 0 0 1.35497e-13 -2.1284e-13 -5.8632e-13 -3.55502e-13 0 0 1.76902e-13 -2.31508e-13 -6.2045e-13 -3.08348e-13 0 0 2.29051e-13 -2.70707e-13 -6.2831e-13 -2.61979e-13 0 0 2.66013e-13 -3.23231e-13 -6.28883e-13 -2.30842e-13 0 0 2.6923e-13 -3.58741e-13 -6.18277e-13 -2.12407e-13 0 0 2.6144e-13 -3.97359e-13 -5.94727e-13 -2.12185e-13 0 0 2.29954e-13 -4.06139e-13 -5.74166e-13 -2.04589e-13 0 0 1.6647e-13 -3.965e-13 -5.62345e-13 -1.79499e-13 0 0 8.35583e-14 -3.78668e-13 -5.39613e-13 -1.70182e-13 0 0 -2.13935e-15 -3.42282e-13 -5.07327e-13 -1.73976e-13 0 0 -7.51154e-14 -3.27241e-13 -4.42838e-13 -1.99833e-13 0 0 -1.33958e-13 -3.2091e-13 -3.73906e-13 -2.4753e-13 0 0 -2.01736e-13 -2.89493e-13 -3.37536e-13 -2.95833e-13 0 0 -2.4277e-13 -2.80361e-13 -3.09486e-13 -2.94329e-13 0 0 -2.79782e-13 -2.67703e-13 -2.98296e-13 -2.74892e-13 0 0 -2.95047e-13 -2.40567e-13 -2.97953e-13 -2.6627e-13 0 0 -2.82216e-13 -2.83542e-13 -2.3085e-13 -2.94466e-13 0 0 -2.79477e-13 -3.28873e-13 -1.45667e-13 -2.62583e-13 0 0 -2.90459e-13 -3.12794e-13 -1.48363e-13 -2.30763e-13 0 0 -3.12187e-13 -2.50982e-13 -1.64365e-13 -2.14515e-13 0 0 -3.25523e-13 -2.39365e-13 -1.59741e-13 -1.65262e-13 0 0 -3.41066e-13 -2.2817e-13 -1.34367e-13 -1.35145e-13 0 0 -3.61419e-13 -1.88867e-13 -1.41964e-13 -6.54623e-14 0 0 -3.70484e-13 -1.89745e-13 -1.04945e-13 -6.92436e-14 0 0 -3.87096e-13 -1.84235e-13 -6.73878e-14 -6.67934e-14 0 0 -4.33604e-13 -1.56557e-13 -7.08907e-14 -1.90754e-14 0 0 -4.7403e-13 -1.07663e-13 -7.16384e-14 -2.33324e-16 0 0 -4.79196e-13 -7.65995e-14 -7.29586e-14 1.91772e-14 0 0 -4.75576e-13 -4.91998e-14 -8.18357e-14 4.81094e-14 0 0 -4.63843e-13 -5.10078e-14 -9.64877e-14 4.44786e-14 0 0 -4.39277e-13 -5.77359e-14 -9.54315e-14 3.03031e-14 0 0 -4.08778e-13 -6.45032e-14 -9.34192e-14 2.90925e-14 0 0 -3.82732e-13 -7.77002e-14 -9.8513e-14 2.65553e-14 0 0 -3.44339e-13 -1.30079e-13 -8.14255e-14 2.08434e-14 0 0 -2.93268e-13 -1.9649e-13 -9.68469e-14 4.33154e-15 0 0 -2.52627e-13 -2.16545e-13 -1.33812e-13 -1.42955e-14 0 0 -2.16701e-13 -2.56428e-13 -1.12299e-13 -3.03753e-14 0 0 -2.08405e-13 -2.18943e-13 -1.50786e-13 -8.68242e-14 0 0 -2.00254e-13 -1.87349e-13 -1.99049e-13 -7.53982e-14 0 0 -2.00692e-13 -2.04856e-13 -1.87382e-13 -6.36815e-14 0 0 -1.82349e-13 -2.13005e-13 -1.85306e-13 -1.00401e-13 0 0 -1.77201e-13 -1.79462e-13 -1.92699e-13 -1.21832e-13 0 0 -1.90665e-13 -1.69689e-13 -1.54343e-13 -1.52994e-13 0 0 -1.77436e-13 -1.84396e-13 -1.7415e-13 -1.30159e-13 0 0 -1.68296e-13 -1.7736e-13 -2.05632e-13 -1.51048e-13 0 0 -1.64498e-13 -1.95222e-13 -1.85515e-13 -1.43827e-13 0 0 -1.58863e-13 -2.09666e-13 -2.08134e-13 -1.09545e-13 0 0 -1.49627e-13 -2.26846e-13 -2.37238e-13 -1.44623e-13 0 0 -1.68377e-13 -2.22366e-13 -3.14282e-13 -1.18016e-13 0 0 -1.84717e-13 -2.51325e-13 -2.82656e-13 -1.5743e-13 0 0 -1.79705e-13 -2.75929e-13 -2.95933e-13 -1.20801e-13 0 0 -1.65781e-13 -3.17883e-13 -3.57198e-13 -1.0786e-13 0 0 -1.41129e-13 -3.85557e-13 -3.84593e-13 -2.77172e-13 0 0 -1.45771e-13 -3.67936e-13 -4.75122e-13 -4.20108e-13 0 0 -1.77751e-13 -2.9592e-13 -5.39773e-13 -4.5318e-13 0 0 -1.88689e-13 -2.99124e-13 -4.95055e-13 -4.80002e-13 0 0 -1.76511e-13 -3.53278e-13 -3.46622e-13 -3.65582e-13 0 0 -1.49551e-13 -4.4972e-13 -1.75473e-13 -1.11718e-13 0 0 -1.84952e-13 -4.53656e-13 -1.5181e-14 -1.19673e-13 0 0 -2.23644e-13 -4.16072e-13 -1.93667e-14 -2.28412e-13 0 0 -1.92464e-13 -4.27733e-13 -3.05182e-14 -3.22558e-13 0 0 -9.25882e-14 -4.56908e-13 1.98106e-15 -3.659e-13 0 0 -5.95878e-14 -3.99031e-13 -1.10503e-13 -2.64632e-13 0 0 -2.16562e-13 -1.78192e-13 -3.61459e-13 -1.52364e-13 0 0 -2.26698e-13 -2.16994e-13 -3.20055e-13 -1.37662e-13 0 0 -2.36086e-13 -1.47785e-13 -3.00024e-13 -1.56268e-13 0 0 -1.23671e-13 -2.69604e-13 -2.00093e-13 -1.2939e-13 0 0 -7.21966e-14 -3.23206e-13 -2.67643e-13 5.35202e-14 0 0 -1.44481e-13 -1.97798e-13 -3.52922e-13 5.32161e-15 0 0 -1.20837e-13 -2.65002e-13 -1.51617e-13 -1.89105e-13 0 0 -2.25814e-13 -1.39547e-13 -1.8504e-13 -1.16164e-13 0 0 -2.36202e-13 -1.33707e-13 -1.44937e-13 -7.66977e-14 0 0 -2.45128e-13 -9.77768e-14 -1.23193e-13 -1.20743e-13 0 0 -2.35652e-13 -9.27344e-14 -1.28872e-13 -1.02094e-13 0 0 -1.98712e-13 -1.42494e-13 -8.90588e-14 -4.36379e-14 0 0 -2.24867e-13 -1.08915e-13 -4.43589e-14 -8.59407e-14 0 0 -1.68408e-13 -1.07299e-13 -8.12e-14 -4.3549e-14 0 0 -1.13015e-13 -1.30825e-13 -2.83577e-14 -3.79074e-14 0 0 -1.53045e-13 -8.70655e-14 2.8862e-14 -1.15886e-13 0 0 -1.63889e-13 -5.19862e-14 -6.68154e-14 -1.24811e-14 0 0 -1.43304e-13 -7.29237e-14 -5.865e-14 -3.05231e-14 0 0 -6.55265e-14 -1.62872e-13 6.9775e-14 -1.29684e-13 0 0 -8.45151e-14 -8.61115e-14 -9.11053e-14 1.09918e-13 0 0 -1.12941e-13 -7.20643e-15 -2.04278e-13 1.80395e-13 0 0 6.97902e-14 -3.60193e-13 1.7482e-13 -1.06063e-13 0 0 3.1948e-15 -2.80483e-13 -3.11714e-15 5.9314e-14 0 0 -3.42653e-14 -1.33494e-13 -2.47079e-13 2.19079e-13 0 0 1.72193e-13 -3.93787e-13 1.80905e-14 -2.91981e-14 0 0 9.25561e-14 -2.41868e-13 -5.42097e-14 -1.21184e-13 0 0 -1.619e-13 7.45547e-14 -3.2421e-13 -2.55513e-14 0 0 -2.44779e-13 1.07077e-13 -4.6259e-13 1.21212e-13 0 0 -2.36643e-13 1.49072e-13 -5.7231e-13 1.09248e-13 0 0 5.74962e-14 -3.22612e-13 6.3515e-15 -3.36854e-13 0 0 -7.5193e-15 -3.21261e-13 2.18595e-13 -5.88441e-13 0 0 -3.26969e-13 1.85188e-13 -2.30233e-13 -4.04649e-13 0 0 -7.53221e-14 -8.57712e-14 -1.85091e-13 -3.47025e-13 0 0 -3.76918e-15 -8.80674e-14 -3.88443e-13 -1.3236e-13 0 0 -1.6708e-13 7.08615e-15 -4.0125e-13 -1.04496e-13 0 0 -1.37688e-13 -3.21943e-13 8.93207e-14 -4.20448e-13 0 0 -1.69247e-13 -3.38515e-13 5.91809e-14 -3.13037e-13 0 0 -2.33406e-13 -2.48139e-13 9.62594e-14 -3.51783e-13 0 0 -1.91957e-13 -3.59467e-13 4.0725e-13 -6.21382e-13 0
				</DataArray>
				<DataArray Name="VitesseY" type="Float32" format="ascii">