<?xml version="1.0"?>
<VTKFile type="PolyData">
	<PolyData>
		<Piece NumberOfPoints="1206" NumberOfPolys="1000">
			<Points>
				<DataArray type="Float32" NumberOfComponents="3" format="ascii">
 0 0 0 0.02 0 0 0.04 0 0 0.06 0 0 0.08 0 0 0.1 0 0 0 0.005 0 0.02 0.005 0 0.04 0.005 0 0.06 0.005 0 0.08 0.005 0 0.1 0.005 0 0 0.01 0 0.02 0.01 0 0.04 0.01 0 0.06 0.01 0 0.08 0.01 0 0.1 0.01 0 0 0.015 0 0.02 0.015 0 0.04 0.015 0 0.06 0.015 0 0.08 0.015 0 0.1 0.015 0 0 0.02 0 0.02 0.02 0 0.04 0.02 0 0.06 0.02 0 0.08 0.02 0 0.1 0.02 0 0 0.025 0 0.02 0.025 0 0.04 0.025 0 0.06 0.025 0 0.08 0.025 0 0.1 0.025 0 0 0.03 0 0.02 0.03 0 0.04 0.03 0 0.06 0.03 0 0.08 0.03 0 0.1 0.03 0 0 0.035 0 0.02 0.035 0 0.04 0.035 0 0.06 0.035 0 0.08 0.035 0 0.1 0.035 0 0 0.04 0 0.02 0.04 0 0.04 0.04 0 0.06 0.04 0 0.08 0.04 0 0.1 0.04 0 0 0.045 0 0.02 0.045 0 0.04 0.045 0 0.06 0.045 0 0.08 0.045 0 0.1 0.045 0 0 0.05 0 0.02 0.05 0 0.04 0.05 0 0.06 0.05 0 0.08 0.05 0 0.1 0.05 0 0 0.055 0 0.02 0.055 0 0.04 0.055 0 0.06 0.055 0 0.08 0.055 0 0.1 0.055 0 0 0.06 0 0.02 0.06 0 0.04 0.06 0 0.06 0.06 0 0.08 0.06 0 0.1 0.06 0 0 0.065 0 0.02 0.065 0 0.04 0.065 0 0.06 0.065 0 0.08 0.065 0 0.1 0.065 0 0 0.07 0 0.02 0.07 0 0.04 0.07 0 0.06 0.07 0 0.08 0.07 0 0.1 0.07 0 0 0.075 0 0.02 0.075 0 0.04 0.075 0 0.06 0.075 0 0.08 0.075 0 0.1 0.075 0 0 0.08 0 0.02 0.08 0 0.04 0.08 0 0.06 0.08 0 0.08 0.08 0 0.1 0.08 0 0 0.085 0 0.02 0.085 0 0.04 0.085 0 0.06 0.085 0 0.08 0.085 0 0.1 0.085 0 0 0.09 0 0.02 0.09 0 0.04 0.09 0 0.06 0.09 0 0.08 0.09 0 0.1 0.09 0 0 0.095 0 0.02 0.095 0 0.04 0.095 0 0.06 0.095 0 0.08 0.095 0 0.1 0.095 0 0 0.1 0 0.02 0.1 0 0.04 0.1 0 0.06 0.1 0 0.08 0.1 0 0.1 0.1 0 0 0.105 0 0.02 0.105 0 0.04 0.105 0 0.06 0.105 0 0.08 0.105 0 0.1 0.105 0 0 0.11 0 0.02 0.11 0 0.04 0.11 0 0.06 0.11 0 0.08 0.11 0 0.1 0.11 0 0 0.115 0 0.02 0.115 0 0.04 0.115 0 0.06 0.115 0 0.08 0.115 0 0.1 0.115 0 0 0.12 0 0.02 0.12 0 0.04 0.12 0 0.06 0.12 0 0.08 0.12 0 0.1 0.12 0 0 0.125 0 0.02 0.125 0 0.04 0.125 0 0.06 0.125 0 0.08 0.125 0 0.1 0.125 0 0 0.13 0 0.02 0.13 0 0.04 0.13 0 0.06 0.13 0 0.08 0.13 0 0.1 0.13 0 0 0.135 0 0.02 0.135 0 0.04 0.135 0 0.06 0.135 0 0.08 0.135 0 0.1 0.135 0 0 0.14 0 0.02 0.14 0 0.04 0.14 0 0.06 0.14 0 0.08 0.14 0 0.1 0.14 0 0 0.145 0 0.02 0.145 0 0.04 0.145 0 0.06 0.145 0 0.08 0.145 0 0.1 0.145 0 0 0.15 0 0.02 0.15 0 0.04 0.15 0 0.06 0.15 0 0.08 0.15 0 0.1 0.15 0 0 0.155 0 0.02 0.155 0 0.04 0.155 0 0.06 0.155 0 0.08 0.155 0 0.1 0.155 0 0 0.16 0 0.02 0.16 0 0.04 0.16 0 0.06 0.16 0 0.08 0.16 0 0.1 0.16 0 0 0.165 0 0.02 0.165 0 0.04 0.165 0 0.06 0.165 0 0.08 0.165 0 0.1 0.165 0 0 0.17 0 0.02 0.17 0 0.04 0.17 0 0.06 0.17 0 0.08 0.17 0 0.1 0.17 0 0 0.175 0 0.02 0.175 0 0.04 0.175 0 0.06 0.175 0 0.08 0.175 0 0.1 0.175 0 0 0.18 0 0.02 0.18 0 0.04 0.18 0 0.06 0.18 0 0.08 0.18 0 0.1 0.18 0 0 0.185 0 0.02 0.185 0 0.04 0.185 0 0.06 0.185 0 0.08 0.185 0 0.1 0.185 0 0 0.19 0 0.02 0.19 0 0.04 0.19 0 0.06 0.19 0 0.08 0.19 0 0.1 0.19 0 0 0.195 0 0.02 0.195 0 0.04 0.195 0 0.06 0.195 0 0.08 0.195 0 0.1 0.195 0 0 0.2 0 0.02 0.2 0 0.04 0.2 0 0.06 0.2 0 0.08 0.2 0 0.1 0.2 0 0 0.205 0 0.02 0.205 0 0.04 0.205 0 0.06 0.205 0 0.08 0.205 0 0.1 0.205 0 0 0.21 0 0.02 0.21 0 0.04 0.21 0 0.06 0.21 0 0.08 0.21 0 0.1 0.21 0 0 0.215 0 0.02 0.215 0 0.04 0.215 0 0.06 0.215 0 0.08 0.215 0 0.1 0.215 0 0 0.22 0 0.02 0.22 0 0.04 0.22 0 0.06 0.22 0 0.08 0.22 0 0.1 0.22 0 0 0.225 0 0.02 0.225 0 0.04 0.225 0 0.06 0.225 0 0.08 0.225 0 0.1 0.225 0 0 0.23 0 0.02 0.23 0 0.04 0.23 0 0.06 0.23 0 0.08 0.23 0 0.1 0.23 0 0 0.235 0 0.02 0.235 0 0.04 0.235 0 0.06 0.235 0 0.08 0.235 0 0.1 0.235 0 0 0.24 0 0.02 0.24 0 0.04 0.24 0 0.06 0.24 0 0.08 0.24 0 0.1 0.24 0 0 0.245 0 0.02 0.245 0 0.04 0.245 0 0.06 0.245 0 0.08 0.245 0 0.1 0.245 0 0 0.25 0 0.02 0.25 0 0.04 0.25 0 0.06 0.25 0 0.08 0.25 0 0.1 0.25 0 0 0.255 0 0.02 0.255 0 0.04 0.255 0 0.06 0.255 0 0.08 0.255 0 0.1 0.255 0 0 0.26 0 0.02 0.26 0 0.04 0.26 0 0.06 0.26 0 0.08 0.26 0 0.1 0.26 0 0 0.265 0 0.02 0.265 0 0.04 0.265 0 0.06 0.265 0 0.08 0.265 0 0.1 0.265 0 0 0.27 0 0.02 0.27 0 0.04 0.27 0 0.06 0.27 0 0.08 0.27 0 0.1 0.27 0 0 0.275 0 0.02 0.275 0 0.04 0.275 0 0.06 0.275 0 0.08 0.275 0 0.1 0.275 0 0 0.28 0 0.02 0.28 0 0.04 0.28 0 0.06 0.28 0 0.08 0.28 0 0.1 0.28 0 0 0.285 0 0.02 0.285 0 0.04 0.285 0 0.06 0.285 0 0.08 0.285 0 0.1 0.285 0 0 0.29 0 0.02 0.29 0 0.04 0.29 0 0.06 0.29 0 0.08 0.29 0 0.1 0.29 0 0 0.295 0 0.02 0.295 0 0.04 0.295 0 0.06 0.295 0 0.08 0.295 0 0.1 0.295 0 0 0.3 0 0.02 0.3 0 0.04 0.3 0 0.06 0.3 0 0.08 0.3 0 0.1 0.3 0 0 0.305 0 0.02 0.305 0 0.04 0.305 0 0.06 0.305 0 0.08 0.305 0 0.1 0.305 0 0 0.31 0 0.02 0.31 0 0.04 0.31 0 0.06 0.31 0 0.08 0.31 0 0.1 0.31 0 0 0.315 0 0.02 0.315 0 0.04 0.315 0 0.06 0.315 0 0.08 0.315 0 0.1 0.315 0 0 0.32 0 0.02 0.32 0 0.04 0.32 0 0.06 0.32 0 0.08 0.32 0 0.1 0.32 0 0 0.325 0 0.02 0.325 0 0.04 0.325 0 0.06 0.325 0 0.08 0.325 0 0.1 0.325 0 0 0.33 0 0.02 0.33 0 0.04 0.33 0 0.06 0.33 0 0.08 0.33 0 0.1 0.33 0 0 0.335 0 0.02 0.335 0 0.04 0.335 0 0.06 0.335 0 0.08 0.335 0 0.1 0.335 0 0 0.34 0 0.02 0.34 0 0.04 0.34 0 0.06 0.34 0 0.08 0.34 0 0.1 0.34 0 0 0.345 0 0.02 0.345 0 0.04 0.345 0 0.06 0.345 0 0.08 0.345 0 0.1 0.345 0 0 0.35 0 0.02 0.35 0 0.04 0.35 0 0.06 0.35 0 0.08 0.35 0 0.1 0.35 0 0 0.355 0 0.02 0.355 0 0.04 0.355 0 0.06 0.355 0 0.08 0.355 0 0.1 0.355 0 0 0.36 0 0.02 0.36 0 0.04 0.36 0 0.06 0.36 0 0.08 0.36 0 0.1 0.36 0 0 0.365 0 0.02 0.365 0 0.04 0.365 0 0.06 0.365 0 0.08 0.365 0 0.1 0.365 0 0 0.37 0 0.02 0.37 0 0.04 0.37 0 0.06 0.37 0 0.08 0.37 0 0.1 0.37 0 0 0.375 0 0.02 0.375 0 0.04 0.375 0 0.06 0.375 0 0.08 0.375 0 0.1 0.375 0 0 0.38 0 0.02 0.38 0 0.04 0.38 0 0.06 0.38 0 0.08 0.38 0 0.1 0.38 0 0 0.385 0 0.02 0.385 0 0.04 0.385 0 0.06 0.385 0 0.08 0.385 0 0.1 0.385 0 0 0.39 0 0.02 0.39 0 0.04 0.39 0 0.06 0.39 0 0.08 0.39 0 0.1 0.39 0 0 0.395 0 0.02 0.395 0 0.04 0.395 0 0.06 0.395 0 0.08 0.395 0 0.1 0.395 0 0 0.4 0 0.02 0.4 0 0.04 0.4 0 0.06 0.4 0 0.08 0.4 0 0.1 0.4 0 0 0.405 0 0.02 0.405 0 0.04 0.405 0 0.06 0.405 0 0.08 0.405 0 0.1 0.405 0 0 0.41 0 0.02 0.41 0 0.04 0.41 0 0.06 0.41 0 0.08 0.41 0 0.1 0.41 0 0 0.415 0 0.02 0.415 0 0.04 0.415 0 0.06 0.415 0 0.08 0.415 0 0.1 0.415 0 0 0.42 0 0.02 0.42 0 0.04 0.42 0 0.06 0.42 0 0.08 0.42 0 0.1 0.42 0 0 0.425 0 0.02 0.425 0 0.04 0.425 0 0.06 0.425 0 0.08 0.425 0 0.1 0.425 0 0 0.43 0 0.02 0.43 0 0.04 0.43 0 0.06 0.43 0 0.08 0.43 0 0.1 0.43 0 0 0.435 0 0.02 0.435 0 0.04 0.435 0 0.06 0.435 0 0.08 0.435 0 0.1 0.435 0 0 0.44 0 0.02 0.44 0 0.04 0.44 0 0.06 0.44 0 0.08 0.44 0 0.1 0.44 0 0 0.445 0 0.02 0.445 0 0.04 0.445 0 0.06 0.445 0 0.08 0.445 0 0.1 0.445 0 0 0.45 0 0.02 0.45 0 0.04 0.45 0 0.06 0.45 0 0.08 0.45 0 0.1 0.45 0 0 0.455 0 0.02 0.455 0 0.04 0.455 0 0.06 0.455 0 0.08 0.455 0 0.1 0.455 0 0 0.46 0 0.02 0.46 0 0.04 0.46 0 0.06 0.46 0 0.08 0.46 0 0.1 0.46 0 0 0.465 0 0.02 0.465 0 0.04 0.465 0 0.06 0.465 0 0.08 0.465 0 0.1 0.465 0 0 0.47 0 0.02 0.47 0 0.04 0.47 0 0.06 0.47 0 0.08 0.47 0 0.1 0.47 0 0 0.475 0 0.02 0.475 0 0.04 0.475 0 0.06 0.475 0 0.08 0.475 0 0.1 0.475 0 0 0.48 0 0.02 0.48 0 0.04 0.48 0 0.06 0.48 0 0.08 0.48 0 0.1 0.48 0 0 0.485 0 0.02 0.485 0 0.04 0.485 0 0.06 0.485 0 0.08 0.485 0 0.1 0.485 0 0 0.49 0 0.02 0.49 0 0.04 0.49 0 0.06 0.49 0 0.08 0.49 0 0.1 0.49 0 0 0.495 0 0.02 0.495 0 0.04 0.495 0 0.06 0.495 0 0.08 0.495 0 0.1 0.495 0 0 0.5 0 0.02 0.5 0 0.04 0.5 0 0.06 0.5 0 0.08 0.5 0 0.1 0.5 0 0 0.505 0 0.02 0.505 0 0.04 0.505 0 0.06 0.505 0 0.08 0.505 0 0.1 0.505 0 0 0.51 0 0.02 0.51 0 0.04 0.51 0 0.06 0.51 0 0.08 0.51 0 0.1 0.51 0 0 0.515 0 0.02 0.515 0 0.04 0.515 0 0.06 0.515 0 0.08 0.515 0 0.1 0.515 0 0 0.52 0 0.02 0.52 0 0.04 0.52 0 0.06 0.52 0 0.08 0.52 0 0.1 0.52 0 0 0.525 0 0.02 0.525 0 0.04 0.525 0 0.06 0.525 0 0.08 0.525 0 0.1 0.525 0 0 0.53 0 0.02 0.53 0 0.04 0.53 0 0.06 0.53 0 0.08 0.53 0 0.1 0.53 0 0 0.535 0 0.02 0.535 0 0.04 0.535 0 0.06 0.535 0 0.08 0.535 0 0.1 0.535 0 0 0.54 0 0.02 0.54 0 0.04 0.54 0 0.06 0.54 0 0.08 0.54 0 0.1 0.54 0 0 0.545 0 0.02 0.545 0 0.04 0.545 0 0.06 0.545 0 0.08 0.545 0 0.1 0.545 0 0 0.55 0 0.02 0.55 0 0.04 0.55 0 0.06 0.55 0 0.08 0.55 0 0.1 0.55 0 0 0.555 0 0.02 0.555 0 0.04 0.555 0 0.06 0.555 0 0.08 0.555 0 0.1 0.555 0 0 0.56 0 0.02 0.56 0 0.04 0.56 0 0.06 0.56 0 0.08 0.56 0 0.1 0.56 0 0 0.565 0 0.02 0.565 0 0.04 0.565 0 0.06 0.565 0 0.08 0.565 0 0.1 0.565 0 0 0.57 0 0.02 0.57 0 0.04 0.57 0 0.06 0.57 0 0.08 0.57 0 0.1 0.57 0 0 0.575 0 0.02 0.575 0 0.04 0.575 0 0.06 0.575 0 0.08 0.575 0 0.1 0.575 0 0 0.58 0 0.02 0.58 0 0.04 0.58 0 0.06 0.58 0 0.08 0.58 0 0.1 0.58 0 0 0.585 0 0.02 0.585 0 0.04 0.585 0 0.06 0.585 0 0.08 0.585 0 0.1 0.585 0 0 0.59 0 0.02 0.59 0 0.04 0.59 0 0.06 0.59 0 0.08 0.59 0 0.1 0.59 0 0 0.595 0 0.02 0.595 0 0.04 0.595 0 0.06 0.595 0 0.08 0.595 0 0.1 0.595 0 0 0.6 0 0.02 0.6 0 0.04 0.6 0 0.06 0.6 0 0.08 0.6 0 0.1 0.6 0 0 0.605 0 0.02 0.605 0 0.04 0.605 0 0.06 0.605 0 0.08 0.605 0 0.1 0.605 0 0 0.61 0 0.02 0.61 0 0.04 0.61 0 0.06 0.61 0 0.08 0.61 0 0.1 0.61 0 0 0.615 0 0.02 0.615 0 0.04 0.615 0 0.06 0.615 0 0.08 0.615 0 0.1 0.615 0 0 0.62 0 0.02 0.62 0 0.04 0.62 0 0.06 0.62 0 0.08 0.62 0 0.1 0.62 0 0 0.625 0 0.02 0.625 0 0.04 0.625 0 0.06 0.625 0 0.08 0.625 0 0.1 0.625 0 0 0.63 0 0.02 0.63 0 0.04 0.63 0 0.06 0.63 0 0.08 0.63 0 0.1 0.63 0 0 0.635 0 0.02 0.635 0 0.04 0.635 0 0.06 0.635 0 0.08 0.635 0 0.1 0.635 0 0 0.64 0 0.02 0.64 0 0.04 0.64 0 0.06 0.64 0 0.08 0.64 0 0.1 0.64 0 0 0.645 0 0.02 0.645 0 0.04 0.645 0 0.06 0.645 0 0.08 0.645 0 0.1 0.645 0 0 0.65 0 0.02 0.65 0 0.04 0.65 0 0.06 0.65 0 0.08 0.65 0 0.1 0.65 0 0 0.655 0 0.02 0.655 0 0.04 0.655 0 0.06 0.655 0 0.08 0.655 0 0.1 0.655 0 0 0.66 0 0.02 0.66 0 0.04 0.66 0 0.06 0.66 0 0.08 0.66 0 0.1 0.66 0 0 0.665 0 0.02 0.665 0 0.04 0.665 0 0.06 0.665 0 0.08 0.665 0 0.1 0.665 0 0 0.67 0 0.02 0.67 0 0.04 0.67 0 0.06 0.67 0 0.08 0.67 0 0.1 0.67 0 0 0.675 0 0.02 0.675 0 0.04 0.675 0 0.06 0.675 0 0.08 0.675 0 0.1 0.675 0 0 0.68 0 0.02 0.68 0 0.04 0.68 0 0.06 0.68 0 0.08 0.68 0 0.1 0.68 0 0 0.685 0 0.02 0.685 0 0.04 0.685 0 0.06 0.685 0 0.08 0.685 0 0.1 0.685 0 0 0.69 0 0.02 0.69 0 0.04 0.69 0 0.06 0.69 0 0.08 0.69 0 0.1 
[...]
			<PointData Scalars="VitesseX">
				<DataArray Name="VitesseX" type="Float32" format="ascii">
 0 -2.9521e-14 1.37474e-14 -1.241e-14 -2.73813e-15 0 0 -2.48161e-14 2.61582e-15 -4.09053e-15 -5.36352e-15 0 0 -1.59814e-14 -2.45886e-14 2.48187e-14 -2.19626e-14 0 0 -5.05073e-14 1.63853e-14 -4.61769e-15 -1.14945e-14 0 0 -3.56475e-14 -2.72035e-15 6.83911e-15 -1.991e-14 0 0 2.28723e-14 -7.47653e-14 4.37535e-14 -2.63088e-14 0 0 -7.96321e-15 -1.46204e-14 -4.50513e-14 4.84599e-14 0 0 -5.53213e-14 5.7384e-14 -1.19334e-13 1.07571e-13 0 0 -3.22998e-14 9.28815e-15 -5.10913e-14 7.21686e-14 0 0 -9.09871e-15 -5.71727e-14 6.32927e-14 -1.15768e-14 0 0 -6.90013e-14 8.59089e-15 4.3969e-14 -1.48714e-14 0 0 -5.06765e-14 -2.41335e-14 8.39593e-14 -3.92927e-14 0 0 -8.61573e-14 5.50972e-14 -1.72575e-14 3.59311e-14 0 0 -4.39866e-14 1.64578e-14 3.90079e-15 3.81357e-14 0 0 -6.94885e-15 -2.8429e-14 6.25572e-14 -1.01631e-14 0 0 -8.73253e-14 1.21137e-13 -1.06101e-13 7.44555e-14 0 0 4.12204e-14 -5.52009e-14 1.38045e-14 -2.62969e-14 0 0 1.19076e-14 -2.82674e-14 -2.39159e-14 -3.23702e-14 0 0 -9.58355e-15 -3.96181e-14 -2.74541e-14 -2.21516e-14 0 0 2.80428e-15 -7.19761e-14 -3.6475e-14 1.5979e-15 0 0 -1.24071e-13 1.24297e-13 -2.11851e-13 9.67866e-14 0 0 -1.31788e-13 1.30544e-13 -1.73887e-13 6.16858e-14 0 0 3.08541e-15 -8.32892e-14 5.02391e-14 -6.46566e-14 0 0 5.97725e-14 -1.98992e-13 1.62636e-13 -1.15415e-13 0 0 -1.22912e-13 4.62909e-14 -7.37434e-14 1.63869e-14 0 0 -2.59759e-13 2.28672e-13 -2.43803e-13 8.19411e-14 0 0 -1.08751e-13 -3.33406e-15 -5.6212e-14 -5.04855e-14 0 0 7.30432e-15 -1.42094e-13 5.11719e-14 -1.73496e-13 0 0 -9.64043e-14 2.01013e-14 -7.12909e-14 -1.58389e-13 0 0 -2.06106e-13 1.53855e-13 -2.07819e-13 -2.46956e-14 0 0 -1.03279e-13 -3.67918e-14 -6.54624e-14 -2.88207e-14 0 0 -1.27539e-13 -4.0092e-14 -1.02919e-14 -5.51486e-14 0 0 -1.63571e-13 2.73122e-14 -2.40688e-14 -1.05626e-14 0 0 7.00279e-14 -2.55141e-13 2.40358e-13 -9.09812e-14 0 0 -1.14716e-13 6.39837e-14 -3.85881e-14 9.86413e-14 0 0 -2.51649e-13 2.21961e-13 -1.4296e-13 1.50118e-13 0 0 -1.9478e-13 1.03916e-13 6.39499e-15 1.7722e-14 0 0 -7.40847e-15 -1.64634e-13 2.73051e-13 -2.13068e-13 0 0 -4.46892e-14 -1.35632e-13 2.7986e-13 -2.82949e-13 0 0 -2.01239e-13 7.46394e-14 7.46685e-14 -1.52248e-13 0 0 -1.60985e-13 6.32546e-14 -1.68317e-14 -6.39015e-15 0 0 -1.54588e-13 9.13988e-14 -1.34962e-13 1.18987e-13 0 0 2.33219e-14 -1.77438e-13 3.97784e-14 2.61252e-14 0 0 -1.22564e-13 2.84088e-14 -1.81403e-13 9.68514e-14 0 0 -3.46624e-13 2.70275e-13 -3.11532e-13 4.20489e-14 0 0 -1.59815e-13 -1.5618e-13 1.89732e-13 -3.13877e-13 0 0 -1.69447e-13 -2.04915e-13 2.9651e-13 -4.1819e-13 0 0 -1.80609e-13 -1.58819e-13 2.90538e-13 -4.36259e-13 0 0 -1.25144e-13 -1.27307e-13 1.64955e-13 -2.89286e-13 0 0 -2.83125e-13 2.30646e-13 -2.77955e-13 2.41088e-14 0 0 -4.13508e-13 4.1577e-13 -3.87392e-13 -1.53695e-14 0 0 -4.56032e-13 4.64495e-13 -3.77918e-13 -1.50555e-13 0 0 1.26293e-13 -4.25858e-13 4.7859e-13 -6.928e-13 0 0 -6.44671e-15 -1.92464e-13 2.90442e-13 -6.20926e-13 0 0 -4.44372e-13 5.25135e-13 -3.9627e-13 -2.41798e-13 0 0 -2.02129e-13 1.21092e-13 -1.31699e-14 -4.27371e-13 0 0 -3.52676e-13 2.79626e-13 -1.66993e-13 -2.47092e-13 0 0 -1.86693e-13 -1.41211e-13 2.75636e-13 -4.66936e-13 0 0 -3.27159e-13 -5.93865e-14 2.12818e-13 -3.82106e-13 0 0 -5.82221e-13 4.06679e-13 -3.48297e-13 -1.99832e-14 0 0 -2.19852e-13 2.02107e-14 -8.43277e-14 -2.48012e-13 0 0 2.05486e-16 -1.5464e-13 -2.72675e-14 -3.23907e-13 0 0 -6.25716e-14 -4.51891e-14 -2.17281e-13 -1.7138e-13 0 0 -3.0858e-13 3.30555e-13 -6.33642e-13 1.60935e-13 0 0 -2.23929e-13 2.38857e-13 -5.80804e-13 1.77472e-13 0 0 8.01085e-16 -1.58005e-13 -1.08574e-13 -1.25832e-13 0 0 3.57434e-14 -2.2253e-13 3.59538e-14 -2.08506e-13 0 0 -4.66829e-14 -1.47867e-13 3.36921e-15 -1.2034e-13 0 0 -4.76104e-13 3.93038e-13 -3.42515e-13 1.30017e-13 0 0 -4.54878e-13 3.28559e-13 -1.60582e-13 3.18424e-14 0 0 6.80587e-14 -4.35078e-13 5.84344e-13 -4.07114e-13 0 0 -1.89075e-13 -6.71579e-15 2.1559e-13 -1.88855e-13 0 0 -4.42614e-13 3.75026e-13 -1.27561e-13 -4.12046e-14 0 0 -5.79807e-13 6.18695e-13 -3.25212e-13 -9.01263e-14 0 0 -2.15186e-13 1.77946e-13 4.56843e-14 -3.92094e-13 0 0 8.98705e-14 -2.45802e-13 4.29078e-13 -6.38844e-13 0 0 -5.06385e-13 5.59294e-13 -2.56239e-13 -2.0478e-13 0 0 -4.61998e-13 3.38882e-13 -1.50781e-13 -4.81463e-14 0 0 -3.67596e-13 1.88856e-13 -2.70163e-13 2.6902e-13 0 0 -2.49141e-14 -2.68032e-13 9.95327e-14 7.04054e-14 0 0 -2.93028e-13 7.80086e-15 8.32023e-14 -1.33795e-13 0 0 -6.09213e-13 4.20375e-13 -2.53619e-13 -6.2794e-14 0 0 3.64623e-13 -9.4037e-13 7.29582e-13 -5.37644e-13 0 0 -1.15399e-13 -2.58379e-13 2.57944e-14 -1.22322e-13 0 0 -1.096e-12 1.08571e-12 -1.21971e-12 5.64136e-13 0 0 2.55646e-14 -4.01366e-13 -1.78122e-13 9.8654e-14 0 0 6.82988e-13 -1.20623e-12 4.62016e-13 -1.89155e-13 0 0 -2.2013e-13 6.03178e-15 -4.02636e-13 1.89655e-13 0 0 -5.00047e-13 2.47152e-13 -4.61728e-13 1.91798e-13 0 0 -7.96248e-13 3.20681e-13 -6.75104e-13 5.16452e-13 0 0 -1.55392e-13 -7.98758e-13 6.86634e-14 2.41519e-13 0 0 4.26646e-13 -1.46298e-12 6.61813e-13 3.45375e-15 0 0 -5.04528e-13 -2.43119e-14 -4.08024e-13 3.78588e-13 0 0 -7.68006e-13 6.69865e-13 -4.69749e-13 7.4533e-15 0 0 -7.91077e-13 8.4124e-13 -4.51096e-13 -1.158e-13 0 0 3.58179e-13 -8.21874e-13 5.33478e-13 -5.74195e-13 0 0 7.39318e-13 -1.17168e-12 9.34056e-13 -6.43321e-13 0 0 -4.08064e-13 1.54704e-13 2.79201e-13 -5.6385e-13 0 0 -1.085e-12 8.2111e-13 1.21278e-13 -6.84075e-13 0 0 -7.14877e-13 4.6093e-13 1.15534e-13 -6.53003e-13 0 0 4.16776e-14 3.94752e-15 -2.99565e-14 -4.82456e-13 0 0 2.07201e-13 8.42571e-14 -4.11646e-13 -1.8838e-13 0 0 1.06153e-13 3.6011e-13 -9.05451e-13 1.10247e-13 0 0 -9.29026e-14 4.00233e-13 -9.60506e-13 1.2836e-13 0 0 -1.62028e-13 2.50738e-13 -8.51462e-13 6.12122e-14 0 0 -1.68253e-13 -9.80437e-14 -5.48404e-13 -1.62264e-13 0 0 -1.76167e-13 -3.89792e-13 -2.76577e-13 -4.07269e-13 0 0 -2.42686e-13 -4.04529e-13 -2.94819e-13 -3.91085e-13 0 0 -3.79885e-13 -2.5805e-13 -4.52164e-13 -2.84706e-13 0 0 -3.80868e-13 -2.70636e-13 -3.6332e-13 -3.65368e-13 0 0 -2.52088e-13 -4.91086e-13 2.41175e-14 -5.20857e-13 0 0 -2.17442e-13 -4.38241e-13 -8.96467e-14 -2.89142e-13 0 0 -3.61841e-13 -1.39486e-14 -5.5046e-13 1.15779e-13 0 0 -4.64995e-13 1.82612e-13 -6.26928e-13 2.27543e-13 0 0 -1.26609e-13 -3.14454e-13 -1.61867e-13 -2.92502e-14 0 0 2.18946e-13 -8.16716e-13 2.99189e-13 -3.29941e-13 0 0 -1.32847e-13 -2.9678e-13 -1.56955e-13 -9.6787e-14 0 0 -6.06992e-13 4.15708e-13 -8.09621e-13 2.79305e-13 0 0 -2.78823e-13 -9.58975e-14 -2.59032e-13 -1.56684e-13 0 0 -1.84068e-13 -2.06634e-13 -7.88487e-14 -3.96559e-13 0 0 -7.95144e-14 -2.52206e-13 -6.28256e-14 -4.08375e-13 0 0 -7.55046e-14 -2.12405e-13 -1.24076e-13 -2.81997e-13 0 0 -6.40285e-13 5.80801e-13 -8.81529e-13 3.26154e-13 0 0 -1.77239e-13 -2.57982e-13 -4.74976e-14 -1.19579e-13 0 0 -1.33602e-13 -3.75583e-13 1.1355e-13 -3.26243e-13 0 0 -2.64787e-14 -3.86502e-13 -1.22205e-16 -3.34231e-13 0 0 -7.2681e-14 -2.46209e-13 -2.13454e-13 -2.22123e-13 0 0 -7.95137e-13 7.55502e-13 -1.08489e-12 3.13993e-13 0 0 -2.85378e-13 -1.5316e-13 -1.76028e-13 -1.45313e-13 0 0 -2.6521e-13 -2.52483e-13 -6.4972e-14 -2.49134e-13 0 0 -1.39705e-13 -3.43515e-13 -1.56991e-14 -3.97649e-13 0 0 -1.3319e-13 -3.60839e-13 -4.79328e-14 -3.59844e-13 0 0 -9.08831e-13 6.87182e-13 -1.11963e-12 4.66553e-13 0 0 -3.01234e-13 -2.62397e-13 -2.81919e-13 6.5844e-14 0 0 -2.84581e-13 -2.24346e-13 -1.37006e-13 -2.73024e-13 0 0 -2.02162e-13 -1.7507e-13 -2.26698e-13 -4.35543e-13 0 0 -1.27184e-13 -3.50235e-13 -2.28347e-13 -4.4125e-13 0 0 -9.39992e-13 6.06632e-13 -1.13984e-12 2.37082e-13 0 0 -3.0796e-13 -4.07902e-13 -2.68147e-13 -1.28468e-13 0 0 -1.50743e-13 -5.99385e-13 6.0815e-14 -4.89569e-13 0 0 -4.54004e-13 -1.44064e-13 -2.76705e-13 -4.62829e-13 0 0 1.29274e-13 -1.10057e-12 5.26646e-13 -9.11593e-13 0 0 -9.00132e-13 2.71838e-13 -6.61587e-13 -1.00153e-13 0 0 -1.18631e-12 7.4539e-13 -9.77669e-13 1.32764e-13 0 0 2.06685e-13 -9.42882e-13 6.81827e-13 -8.80378e-13 0 0 -2.20091e-13 -1.85685e-13 2.1985e-13 -6.28605e-13 0 0 -2.07937e-13 -3.37767e-13 2.8776e-13 -4.11438e-13 0 0 -6.27376e-13 1.375e-13 -4.39432e-13 4.8138e-13 0 0 -1.04088e-12 5.59221e-13 -7.68112e-13 7.25738e-13 0 0 -1.51648e-14 -8.90504e-13 7.59965e-13 -4.32375e-13 0 0 -4.60885e-13 -1.24109e-13 2.43703e-13 -3.50193e-13 0 0 -3.0141e-13 -4.04766e-13 3.15744e-13 -7.73985e-14 0 0 -6.43229e-13 -3.38406e-14 -3.66612e-13 8.29988e-13 0 0 -8.54685e-13 1.36147e-13 -5.00836e-13 8.09693e-13 0 0 -4.78385e-13 -3.47488e-13 4.94329e-14 4.21343e-15 0 0 -1.74655e-13 -5.30923e-13 -1.11796e-13 -1.98078e-13 0 0 -8.50506e-14 -5.63854e-13 -4.85503e-13 -8.24843e-14 0 0 -9.2927e-13 4.65249e-13 -1.30989e-12 2.4128e-13 0 0 -6.49722e-13 -2.95212e-13 -2.66623e-13 -4.30964e-13 0 0 -2.69679e-13 -9.71561e-13 5.02696e-13 -1.06002e-12 0 0 8.19739e-14 -1.16934e-12 4.47321e-13 -1.24479e-12 0 0 -3.77199e-13 -4.90357e-14 -1.15766e-12 -5.90712e-14 0 0 -9.18344e-13 8.77121e-13 -2.22645e-12 8.10375e-13 0 0 -2.58806e-13 -4.52543e-13 -5.54098e-13 -3.54814e-13 0 0 -2.55863e-15 -1.14652e-12 5.27327e-13 -1.33861e-12 0 0 -2.52239e-13 -7.07913e-13 1.48511e-13 -1.36256e-12 0 0 -6.9746e-13 2.22573e-14 -9.17564e-13 -4.50821e-13 0 0 -8.84563e-13 4.2356e-13 -1.87126e-12 7.51645e-13 0 0 3.20996e-14 -8.37714e-13 -9.78711e-13 5.51444e-13 0 0 -2.94492e-13 -4.30294e-13 -9.70266e-13 1.93372e-13 0 0 -7.88401e-13 2.26665e-13 -1.11359e-12 -2.75305e-13 0 0 -9.5695e-14 -9.913e-13 2.92044e-13 -1.37212e-12 0 0 -7.88831e-13 -9.44566e-14 -4.56495e-13 -9.70855e-13 0 0 -5.5956e-13 -2.14226e-13 -7.62082e-13 -6.51938e-13 0 0 -4.33039e-13 -2.57948e-13 -1.00669e-12 -4.50272e-13 0 0 -5.85954e-13 -5.51803e-14 -1.05748e-12 -4.44338e-13 0 0 -1.98745e-14 -1.18856e-12 3.6642e-13 -1.18888e-12 0 0 -7.76222e-13 -3.89209e-13 -1.44657e-13 -6.31252e-13 0 0 -5.05572e-13 -4.69602e-13 -5.24179e-13 -2.05561e-13 0 0 -4.25067e-13 -1.78842e-13 -1.21119e-12 1.60135e-14 0 0 -5.91528e-13 1.17493e-14 -1.25917e-12 -1.54002e-13 0 0 1.05936e-13 -1.36419e-12 5.19589e-13 -1.184e-12 0 0 -6.66741e-13 -4.17006e-13 6.33066e-14 -9.61276e-13 0 0 -4.98225e-13 -3.75213e-13 -4.47229e-13 -4.81109e-13 0 0 -3.81639e-13 -3.27522e-13 -8.45466e-13 -3.27326e-13 0 0 -6.15474e-13 -1.35351e-13 -8.16475e-13 -7.58591e-13 0 0 -3.55903e-15 -1.3459e-12 5.15213e-13 -1.50906e-12 0 0 -7.46955e-13 -2.57681e-13 -3.82012e-13 -7.97364e-13 0 0 -6.48882e-13 -1.72308e-14 -7.92669e-13 -4.52948e-13 0 0 -1.08925e-12 4.6774e-13 -9.46363e-13 -4.50961e-13 0 0 -1.29983e-12 3.12037e-13 -6.21551e-13 -5.96311e-13 0 0 2.46936e-13 -2.1958e-12 1.51888e-12 -1.59502e-12 0 0 -1.22108e-12 1.66189e-13 -6.91013e-13 -3.61141e-13 0 0 -1.98238e-12 1.6573e-12 -2.02991e-12 1.15186e-13 0 0 -2.97941e-13 -5.3458e-13 1.13537e-13 -1.42708e-12 0 0 -3.80677e-14 -9.16405e-13 5.33505e-13 -1.71098e-12 0 0 2.84013e-13 -1.56106e-12 8.97579e-13 -1.71008e-12 0 0 -1.0771e-12 7.23571e-13 -1.76042e-12 1.783e-13 0 0 -1.32579e-12 1.13415e-12 -1.97212e-12 3.24427e-13 0 0 2.05897e-14 -1.27889e-12 1.00736e-12 -1.67658e-12 0 0 -2.15333e-13 -1.15708e-12 1.2393e-12 -1.90966e-12 0
				</DataArray>
				<DataArray Name="VitesseY" type="Float32" format="ascii">