<?xml version="1.0"?>
<VTKFile type="PolyData">
	<PolyData>
		<Piece NumberOfPoints="1206" NumberOfPolys="1000">
			<Points>
				<DataArray type="Float32" NumberOfComponents="3" format="ascii">
 0 0 0 0.02 0 0 0.04 0 0 0.06 0 0 0.08 0 0 0.1 0 0 0 0.005 0 0.02 0.005 0 0.04 0.005 0 0.06 0.005 0 0.08 0.005 0 0.1 0.005 0 0 0.01 0 0.02 0.01 0 0.04 0.01 0 0.06 0.01 0 0.08 0.01 0 0.1 0.01 0 0 0.015 0 0.02 0.015 0 0.04 0.015 0 0.06 0.015 0 0.08 0.015 0 0.1 0.015 0 0 0.02 0 0.02 0.02 0 0.04 0.02 0 0.06 0.02 0 0.08 0.02 0 0.1 0.02 0 0 0.025 0 0.02 0.025 0 0.04 0.025 0 0.06 0.025 0 0.08 0.025 0 0.1 0.025 0 0 0.03 0 0.02 0.03 0 0.04 0.03 0 0.06 0.03 0 0.08 0.03 0 0.1 0.03 0 0 0.035 0 0.02 0.035 0 0.04 0.035 0 0.06 0.035 0 0.08 0.035 0 0.1 0.035 0 0 0.04 0 0.02 0.04 0 0.04 0.04 0 0.06 0.04 0 0.08 0.04 0 0.1 0.04 0 0 0.045 0 0.02 0.045 0 0.04 0.045 0 0.06 0.045 0 0.08 0.045 0 0.1 0.045 0 0 0.05 0 0.02 0.05 0 0.04 0.05 0 0.06 0.05 0 0.08 0.05 0 0.1 0.05 0 0 0.055 0 0.02 0.055 0 0.04 0.055 0 0.06 0.055 0 0.08 0.055 0 0.1 0.055 0 0 0.06 0 0.02 0.06 0 0.04 0.06 0 0.06 0.06 0 0.08 0.06 0 0.1 0.06 0 0 0.065 0 0.02 0.065 0 0.04 0.065 0 0.06 0.065 0 0.08 0.065 0 0.1 0.065 0 0 0.07 0 0.02 0.07 0 0.04 0.07 0 0.06 0.07 0 0.08 0.07 0 0.1 0.07 0 0 0.075 0 0.02 0.075 0 0.04 0.075 0 0.06 0.075 0 0.08 0.075 0 0.1 0.075 0 0 0.08 0 0.02 0.08 0 0.04 0.08 0 0.06 0.08 0 0.08 0.08 0 0.1 0.08 0 0 0.085 0 0.02 0.085 0 0.04 0.085 0 0.06 0.085 0 0.08 0.085 0 0.1 0.085 0 0 0.09 0 0.02 0.09 0 0.04 0.09 0 0.06 0.09 0 0.08 0.09 0 0.1 0.09 0 0 0.095 0 0.02 0.095 0 0.04 0.095 0 0.06 0.095 0 0.08 0.095 0 0.1 0.095 0 0 0.1 0 0.02 0.1 0 0.04 0.1 0 0.06 0.1 0 0.08 0.1 0 0.1 0.1 0 0 0.105 0 0.02 0.105 0 0.04 0.105 0 0.06 0.105 0 0.08 0.105 0 0.1 0.105 0 0 0.11 0 0.02 0.11 0 0.04 0.11 0 0.06 0.11 0 0.08 0.11 0 0.1 0.11 0 0 0.115 0 0.02 0.115 0 0.04 0.115 0 0.06 0.115 0 0.08 0.115 0 0.1 0.115 0 0 0.12 0 0.02 0.12 0 0.04 0.12 0 0.06 0.12 0 0.08 0.12 0 0.1 0.12 0 0 0.125 0 0.02 0.125 0 0.04 0.125 0 0.06 0.125 0 0.08 0.125 0 0.1 0.125 0 0 0.13 0 0.02 0.13 0 0.04 0.13 0 0.06 0.13 0 0.08 0.13 0 0.1 0.13 0 0 0.135 0 0.02 0.135 0 0.04 0.135 0 0.06 0.135 0 0.08 0.135 0 0.1 0.135 0 0 0.14 0 0.02 0.14 0 0.04 0.14 0 0.06 0.14 0 0.08 0.14 0 0.1 0.14 0 0 0.145 0 0.02 0.145 0 0.04 0.145 0 0.06 0.145 0 0.08 0.145 0 0.1 0.145 0 0 0.15 0 0.02 0.15 0 0.04 0.15 0 0.06 0.15 0 0.08 0.15 0 0.1 0.15 0 0 0.155 0 0.02 0.155 0 0.04 0.155 0 0.06 0.155 0 0.08 0.155 0 0.1 0.155 0 0 0.16 0 0.02 0.16 0 0.04 0.16 0 0.06 0.16 0 0.08 0.16 0 0.1 0.16 0 0 0.165 0 0.02 0.165 0 0.04 0.165 0 0.06 0.165 0 0.08 0.165 0 0.1 0.165 0 0 0.17 0 0.02 0.17 0 0.04 0.17 0 0.06 0.17 0 0.08 0.17 0 0.1 0.17 0 0 0.175 0 0.02 0.175 0 0.04 0.175 0 0.06 0.175 0 0.08 0.175 0 0.1 0.175 0 0 0.18 0 0.02 0.18 0 0.04 0.18 0 0.06 0.18 0 0.08 0.18 0 0.1 0.18 0 0 0.185 0 0.02 0.185 0 0.04 0.185 0 0.06 0.185 0 0.08 0.185 0 0.1 0.185 0 0 0.19 0 0.02 0.19 0 0.04 0.19 0 0.06 0.19 0 0.08 0.19 0 0.1 0.19 0 0 0.195 0 0.02 0.195 0 0.04 0.195 0 0.06 0.195 0 0.08 0.195 0 0.1 0.195 0 0 0.2 0 0.02 0.2 0 0.04 0.2 0 0.06 0.2 0 0.08 0.2 0 0.1 0.2 0 0 0.205 0 0.02 0.205 0 0.04 0.205 0 0.06 0.205 0 0.08 0.205 0 0.1 0.205 0 0 0.21 0 0.02 0.21 0 0.04 0.21 0 0.06 0.21 0 0.08 0.21 0 0.1 0.21 0 0 0.215 0 0.02 0.215 0 0.04 0.215 0 0.06 0.215 0 0.08 0.215 0 0.1 0.215 0 0 0.22 0 0.02 0.22 0 0.04 0.22 0 0.06 0.22 0 0.08 0.22 0 0.1 0.22 0 0 0.225 0 0.02 0.225 0 0.04 0.225 0 0.06 0.225 0 0.08 0.225 0 0.1 0.225 0 0 0.23 0 0.02 0.23 0 0.04 0.23 0 0.06 0.23 0 0.08 0.23 0 0.1 0.23 0 0 0.235 0 0.02 0.235 0 0.04 0.235 0 0.06 0.235 0 0.08 0.235 0 0.1 0.235 0 0 0.24 0 0.02 0.24 0 0.04 0.24 0 0.06 0.24 0 0.08 0.24 0 0.1 0.24 0 0 0.245 0 0.02 0.245 0 0.04 0.245 0 0.06 0.245 0 0.08 0.245 0 0.1 0.245 0 0 0.25 0 0.02 0.25 0 0.04 0.25 0 0.06 0.25 0 0.08 0.25 0 0.1 0.25 0 0 0.255 0 0.02 0.255 0 0.04 0.255 0 0.06 0.255 0 0.08 0.255 0 0.1 0.255 0 0 0.26 0 0.02 0.26 0 0.04 0.26 0 0.06 0.26 0 0.08 0.26 0 0.1 0.26 0 0 0.265 0 0.02 0.265 0 0.04 0.265 0 0.06 0.265 0 0.08 0.265 0 0.1 0.265 0 0 0.27 0 0.02 0.27 0 0.04 0.27 0 0.06 0.27 0 0.08 0.27 0 0.1 0.27 0 0 0.275 0 0.02 0.275 0 0.04 0.275 0 0.06 0.275 0 0.08 0.275 0 0.1 0.275 0 0 0.28 0 0.02 0.28 0 0.04 0.28 0 0.06 0.28 0 0.08 0.28 0 0.1 0.28 0 0 0.285 0 0.02 0.285 0 0.04 0.285 0 0.06 0.285 0 0.08 0.285 0 0.1 0.285 0 0 0.29 0 0.02 0.29 0 0.04 0.29 0 0.06 0.29 0 0.08 0.29 0 0.1 0.29 0 0 0.295 0 0.02 0.295 0 0.04 0.295 0 0.06 0.295 0 0.08 0.295 0 0.1 0.295 0 0 0.3 0 0.02 0.3 0 0.04 0.3 0 0.06 0.3 0 0.08 0.3 0 0.1 0.3 0 0 0.305 0 0.02 0.305 0 0.04 0.305 0 0.06 0.305 0 0.08 0.305 0 0.1 0.305 0 0 0.31 0 0.02 0.31 0 0.04 0.31 0 0.06 0.31 0 0.08 0.31 0 0.1 0.31 0 0 0.315 0 0.02 0.315 0 0.04 0.315 0 0.06 0.315 0 0.08 0.315 0 0.1 0.315 0 0 0.32 0 0.02 0.32 0 0.04 0.32 0 0.06 0.32 0 0.08 0.32 0 0.1 0.32 0 0 0.325 0 0.02 0.325 0 0.04 0.325 0 0.06 0.325 0 0.08 0.325 0 0.1 0.325 0 0 0.33 0 0.02 0.33 0 0.04 0.33 0 0.06 0.33 0 0.08 0.33 0 0.1 0.33 0 0 0.335 0 0.02 0.335 0 0.04 0.335 0 0.06 0.335 0 0.08 0.335 0 0.1 0.335 0 0 0.34 0 0.02 0.34 0 0.04 0.34 0 0.06 0.34 0 0.08 0.34 0 0.1 0.34 0 0 0.345 0 0.02 0.345 0 0.04 0.345 0 0.06 0.345 0 0.08 0.345 0 0.1 0.345 0 0 0.35 0 0.02 0.35 0 0.04 0.35 0 0.06 0.35 0 0.08 0.35 0 0.1 0.35 0 0 0.355 0 0.02 0.355 0 0.04 0.355 0 0.06 0.355 0 0.08 0.355 0 0.1 0.355 0 0 0.36 0 0.02 0.36 0 0.04 0.36 0 0.06 0.36 0 0.08 0.36 0 0.1 0.36 0 0 0.365 0 0.02 0.365 0 0.04 0.365 0 0.06 0.365 0 0.08 0.365 0 0.1 0.365 0 0 0.37 0 0.02 0.37 0 0.04 0.37 0 0.06 0.37 0 0.08 0.37 0 0.1 0.37 0 0 0.375 0 0.02 0.375 0 0.04 0.375 0 0.06 0.375 0 0.08 0.375 0 0.1 0.375 0 0 0.38 0 0.02 0.38 0 0.04 0.38 0 0.06 0.38 0 0.08 0.38 0 0.1 0.38 0 0 0.385 0 0.02 0.385 0 0.04 0.385 0 0.06 0.385 0 0.08 0.385 0 0.1 0.385 0 0 0.39 0 0.02 0.39 0 0.04 0.39 0 0.06 0.39 0 0.08 0.39 0 0.1 0.39 0 0 0.395 0 0.02 0.395 0 0.04 0.395 0 0.06 0.395 0 0.08 0.395 0 0.1 0.395 0 0 0.4 0 0.02 0.4 0 0.04 0.4 0 0.06 0.4 0 0.08 0.4 0 0.1 0.4 0 0 0.405 0 0.02 0.405 0 0.04 0.405 0 0.06 0.405 0 0.08 0.405 0 0.1 0.405 0 0 0.41 0 0.02 0.41 0 0.04 0.41 0 0.06 0.41 0 0.08 0.41 0 0.1 0.41 0 0 0.415 0 0.02 0.415 0 0.04 0.415 0 0.06 0.415 0 0.08 0.415 0 0.1 0.415 0 0 0.42 0 0.02 0.42 0 0.04 0.42 0 0.06 0.42 0 0.08 0.42 0 0.1 0.42 0 0 0.425 0 0.02 0.425 0 0.04 0.425 0 0.06 0.425 0 0.08 0.425 0 0.1 0.425 0 0 0.43 0 0.02 0.43 0 0.04 0.43 0 0.06 0.43 0 0.08 0.43 0 0.1 0.43 0 0 0.435 0 0.02 0.435 0 0.04 0.435 0 0.06 0.435 0 0.08 0.435 0 0.1 0.435 0 0 0.44 0 0.02 0.44 0 0.04 0.44 0 0.06 0.44 0 0.08 0.44 0 0.1 0.44 0 0 0.445 0 0.02 0.445 0 0.04 0.445 0 0.06 0.445 0 0.08 0.445 0 0.1 0.445 0 0 0.45 0 0.02 0.45 0 0.04 0.45 0 0.06 0.45 0 0.08 0.45 0 0.1 0.45 0 0 0.455 0 0.02 0.455 0 0.04 0.455 0 0.06 0.455 0 0.08 0.455 0 0.1 0.455 0 0 0.46 0 0.02 0.46 0 0.04 0.46 0 0.06 0.46 0 0.08 0.46 0 0.1 0.46 0 0 0.465 0 0.02 0.465 0 0.04 0.465 0 0.06 0.465 0 0.08 0.465 0 0.1 0.465 0 0 0.47 0 0.02 0.47 0 0.04 0.47 0 0.06 0.47 0 0.08 0.47 0 0.1 0.47 0 0 0.475 0 0.02 0.475 0 0.04 0.475 0 0.06 0.475 0 0.08 0.475 0 0.1 0.475 0 0 0.48 0 0.02 0.48 0 0.04 0.48 0 0.06 0.48 0 0.08 0.48 0 0.1 0.48 0 0 0.485 0 0.02 0.485 0 0.04 0.485 0 0.06 0.485 0 0.08 0.485 0 0.1 0.485 0 0 0.49 0 0.02 0.49 0 0.04 0.49 0 0.06 0.49 0 0.08 0.49 0 0.1 0.49 0 0 0.495 0 0.02 0.495 0 0.04 0.495 0 0.06 0.495 0 0.08 0.495 0 0.1 0.495 0 0 0.5 0 0.02 0.5 0 0.04 0.5 0 0.06 0.5 0 0.08 0.5 0 0.1 0.5 0 0 0.505 0 0.02 0.505 0 0.04 0.505 0 0.06 0.505 0 0.08 0.505 0 0.1 0.505 0 0 0.51 0 0.02 0.51 0 0.04 0.51 0 0.06 0.51 0 0.08 0.51 0 0.1 0.51 0 0 0.515 0 0.02 0.515 0 0.04 0.515 0 0.06 0.515 0 0.08 0.515 0 0.1 0.515 0 0 0.52 0 0.02 0.52 0 0.04 0.52 0 0.06 0.52 0 0.08 0.52 0 0.1 0.52 0 0 0.525 0 0.02 0.525 0 0.04 0.525 0 0.06 0.525 0 0.08 0.525 0 0.1 0.525 0 0 0.53 0 0.02 0.53 0 0.04 0.53 0 0.06 0.53 0 0.08 0.53 0 0.1 0.53 0 0 0.535 0 0.02 0.535 0 0.04 0.535 0 0.06 0.535 0 0.08 0.535 0 0.1 0.535 0 0 0.54 0 0.02 0.54 0 0.04 0.54 0 0.06 0.54 0 0.08 0.54 0 0.1 0.54 0 0 0.545 0 0.02 0.545 0 0.04 0.545 0 0.06 0.545 0 0.08 0.545 0 0.1 0.545 0 0 0.55 0 0.02 0.55 0 0.04 0.55 0 0.06 0.55 0 0.08 0.55 0 0.1 0.55 0 0 0.555 0 0.02 0.555 0 0.04 0.555 0 0.06 0.555 0 0.08 0.555 0 0.1 0.555 0 0 0.56 0 0.02 0.56 0 0.04 0.56 0 0.06 0.56 0 0.08 0.56 0 0.1 0.56 0 0 0.565 0 0.02 0.565 0 0.04 0.565 0 0.06 0.565 0 0.08 0.565 0 0.1 0.565 0 0 0.57 0 0.02 0.57 0 0.04 0.57 0 0.06 0.57 0 0.08 0.57 0 0.1 0.57 0 0 0.575 0 0.02 0.575 0 0.04 0.575 0 0.06 0.575 0 0.08 0.575 0 0.1 0.575 0 0 0.58 0 0.02 0.58 0 0.04 0.58 0 0.06 0.58 0 0.08 0.58 0 0.1 0.58 0 0 0.585 0 0.02 0.585 0 0.04 0.585 0 0.06 0.585 0 0.08 0.585 0 0.1 0.585 0 0 0.59 0 0.02 0.59 0 0.04 0.59 0 0.06 0.59 0 0.08 0.59 0 0.1 0.59 0 0 0.595 0 0.02 0.595 0 0.04 0.595 0 0.06 0.595 0 0.08 0.595 0 0.1 0.595 0 0 0.6 0 0.02 0.6 0 0.04 0.6 0 0.06 0.6 0 0.08 0.6 0 0.1 0.6 0 0 0.605 0 0.02 0.605 0 0.04 0.605 0 0.06 0.605 0 0.08 0.605 0 0.1 0.605 0 0 0.61 0 0.02 0.61 0 0.04 0.61 0 0.06 0.61 0 0.08 0.61 0 0.1 0.61 0 0 0.615 0 0.02 0.615 0 0.04 0.615 0 0.06 0.615 0 0.08 0.615 0 0.1 0.615 0 0 0.62 0 0.02 0.62 0 0.04 0.62 0 0.06 0.62 0 0.08 0.62 0 0.1 0.62 0 0 0.625 0 0.02 0.625 0 0.04 0.625 0 0.06 0.625 0 0.08 0.625 0 0.1 0.625 0 0 0.63 0 0.02 0.63 0 0.04 0.63 0 0.06 0.63 0 0.08 0.63 0 0.1 0.63 0 0 0.635 0 0.02 0.635 0 0.04 0.635 0 0.06 0.635 0 0.08 0.635 0 0.1 0.635 0 0 0.64 0 0.02 0.64 0 0.04 0.64 0 0.06 0.64 0 0.08 0.64 0 0.1 0.64 0 0 0.645 0 0.02 0.645 0 0.04 0.645 0 0.06 0.645 0 0.08 0.645 0 0.1 0.645 0 0 0.65 0 0.02 0.65 0 0.04 0.65 0 0.06 0.65 0 0.08 0.65 0 0.1 0.65 0 0 0.655 0 0.02 0.655 0 0.04 0.655 0 0.06 0.655 0 0.08 0.655 0 0.1 0.655 0 0 0.66 0 0.02 0.66 0 0.04 0.66 0 0.06 0.66 0 0.08 0.66 0 0.1 0.66 0 0 0.665 0 0.02 0.665 0 0.04 0.665 0 0.06 0.665 0 0.08 0.665 0 0.1 0.665 0 0 0.67 0 0.02 0.67 0 0.04 0.67 0 0.06 0.67 0 0.08 0.67 0 0.1 0.67 0 0 0.675 0 0.02 0.675 0 0.04 0.675 0 0.06 0.675 0 0.08 0.675 0 0.1 0.675 0 0 0.68 0 0.02 0.68 0 0.04 0.68 0 0.06 0.68 0 0.08 0.68 0 0.1 0.68 0 0 0.685 0 0.02 0.685 0 0.04 0.685 0 0.06 0.685 0 0.08 0.685 0 0.1 0.685 0 0 0.69 0 0.02 0.69 0 0.04 0.69 0 0.06 0.69 0 0.08 0.69 0 0.1 
[...]
			<PointData Scalars="VitesseX">
				<DataArray Name="VitesseX" type="Float32" format="ascii">
 0 -2.91619e-15 -8.81133e-15 7.30418e-15 2.44762e-14 0 0 -5.85226e-15 -5.71491e-15 9.47722e-15 2.17368e-14 0 0 -8.56425e-15 -4.83549e-15 1.87503e-14 1.55939e-14 0 0 -1.39343e-14 3.17616e-15 1.55112e-14 2.11424e-14 0 0 -1.42641e-14 1.0105e-14 1.07419e-14 2.63714e-14 0 0 -2.95985e-15 -2.61721e-15 2.82247e-14 1.64898e-14 0 0 5.99382e-15 -1.649e-14 4.71181e-14 5.74887e-15 0 0 3.86772e-15 -9.67788e-15 4.88326e-14 8.0991e-15 0 0 -1.73616e-15 3.33747e-15 4.80903e-14 1.0704e-14 0 0 -1.18958e-15 1.30122e-14 2.98753e-14 3.10581e-14 0 0 -9.32073e-15 3.09331e-14 -3.3012e-15 5.92541e-14 0 0 -3.62009e-15 1.927e-14 1.10794e-14 4.17022e-14 0 0 1.05527e-14 -6.91677e-16 2.82244e-14 2.51926e-14 0 0 9.80791e-15 8.77671e-15 1.58502e-14 9.63467e-15 0 0 4.4571e-15 2.34992e-14 -3.90872e-15 4.6143e-16 0 0 1.15598e-14 -1.08763e-15 1.95771e-14 -2.43929e-14 0 0 8.53034e-15 -4.5918e-15 3.25544e-14 -5.36636e-14 0 0 -1.93968e-15 1.59409e-14 3.19613e-16 -2.9501e-14 0 0 -1.93907e-14 2.90913e-14 -2.96534e-14 1.69561e-14 0 0 -1.68878e-14 1.08897e-14 -2.88878e-14 3.07274e-14 0 0 -1.59243e-15 -4.41161e-14 4.74246e-14 -3.70017e-14 0 0 -1.0795e-14 -5.94661e-14 8.23091e-14 -6.59294e-14 0 0 9.10537e-16 -6.84964e-14 4.88526e-14 -3.16943e-14 0 0 -5.49048e-15 -2.70522e-14 -3.02429e-14 2.30026e-14 0 0 -1.38471e-14 -1.50667e-15 -4.62024e-14 3.60304e-14 0 0 1.19549e-14 -5.17105e-14 4.09989e-14 -1.88346e-14 0 0 -1.31959e-14 -5.23178e-15 1.58982e-14 -4.35901e-15 0 0 -4.07655e-14 2.66698e-14 1.48966e-14 -1.42719e-14 0 0 1.9319e-14 -7.61745e-14 1.21993e-13 -6.71336e-14 0 0 -1.65676e-14 -1.83174e-14 4.90106e-14 -1.31292e-15 0 0 -3.39501e-14 3.17649e-14 -1.56162e-14 4.67083e-14 0 0 3.30322e-15 -1.29856e-14 2.33582e-14 4.67175e-14 0 0 -1.3342e-14 1.23308e-14 1.39811e-14 7.62436e-14 0 0 -8.24656e-15 1.10048e-14 5.12466e-14 5.62366e-14 0 0 2.39873e-14 -4.29887e-14 1.35874e-13 1.99428e-14 0 0 2.05509e-14 -2.29547e-14 7.51726e-14 1.01278e-13 0 0 -1.51819e-14 -5.13331e-16 3.46014e-14 1.63835e-13 0 0 -5.01265e-14 -1.15132e-14 1.06178e-13 1.25085e-13 0 0 -1.13168e-13 7.94403e-14 5.09939e-14 1.41082e-13 0 0 -7.78324e-14 5.16816e-14 1.05351e-13 7.06181e-14 0 0 -4.8481e-14 4.61227e-14 9.92172e-14 5.85675e-14 0 0 -6.22453e-14 1.146e-13 -2.51644e-14 1.31443e-13 0 0 -1.22561e-14 4.51337e-14 4.51189e-14 5.74388e-14 0 0 7.03114e-14 -6.0859e-14 1.5252e-13 -3.24865e-14 0 0 9.90266e-14 -7.06903e-14 1.53319e-13 -4.36504e-14 0 0 7.94625e-14 -2.57626e-14 1.03553e-13 -5.42366e-15 0 0 2.11441e-14 9.51872e-14 -5.53911e-14 9.43769e-14 0 0 -3.68049e-15 1.41604e-13 -1.36636e-13 1.48603e-13 0 0 1.14136e-13 -3.48259e-14 1.39109e-14 7.37974e-14 0 0 2.05188e-13 -1.80249e-13 1.98089e-13 -6.50857e-14 0 0 1.92398e-13 -1.54983e-13 2.27304e-13 -1.24831e-13 0 0 2.02625e-13 -9.31844e-14 9.90451e-14 -3.41048e-14 0 0 2.02667e-13 -4.66224e-14 -1.89274e-14 8.33991e-14 0 0 6.41518e-14 1.40112e-13 -9.92496e-14 8.15772e-14 0 0 1.18218e-13 3.72786e-14 1.0257e-13 -4.95572e-14 0 0 2.92641e-13 -2.09435e-13 3.56188e-13 -1.6068e-13 0 0 1.4704e-13 7.95919e-14 1.2536e-13 -4.70563e-14 0 0 1.3128e-13 1.62008e-13 4.77907e-14 3.28358e-14 0 0 2.44431e-13 -1.19299e-14 1.81547e-13 9.03034e-15 0 0 1.53163e-13 7.8659e-14 7.88292e-14 1.27588e-13 0 0 7.15467e-14 1.03513e-13 1.4076e-13 1.06358e-13 0 0 4.73457e-14 1.264e-13 1.67262e-13 7.87103e-14 0 0 6.76215e-14 1.18763e-13 1.96032e-13 3.48895e-14 0 0 1.25253e-13 6.05509e-14 2.01099e-13 3.41601e-14 0 0 1.32723e-13 6.98334e-14 1.29111e-13 9.82235e-14 0 0 4.98893e-14 7.91024e-14 2.05623e-13 5.79177e-14 0 0 -4.89766e-14 1.17062e-13 2.62852e-13 7.03417e-14 0 0 2.3297e-14 -2.59126e-14 4.3172e-13 -1.74067e-15 0 0 3.88546e-14 -1.4572e-14 3.39291e-13 4.19739e-14 0 0 8.99485e-14 -2.36489e-15 1.84851e-13 1.13151e-13 0 0 2.99161e-13 -1.74723e-13 2.18914e-13 3.10719e-14 0 0 3.22158e-13 -3.78011e-14 1.33625e-14 1.08605e-13 0 0 3.3288e-13 2.2119e-14 -1.60444e-14 1.51385e-13 0 0 2.11866e-13 1.36568e-13 -8.61246e-14 2.40857e-13 0 0 2.85735e-13 -1.78838e-14 -1.51411e-14 3.04575e-13 0 0 4.80539e-13 -2.15217e-13 9.67061e-14 3.36253e-13 0 0 3.9396e-13 1.06547e-14 -5.62811e-14 3.81545e-13 0 0 3.70588e-13 9.94042e-14 -5.53761e-14 2.31487e-13 0 0 4.59971e-13 -2.83127e-16 1.09809e-14 1.33318e-16 0 0 5.07736e-13 -7.11538e-14 -2.51989e-14 1.1362e-14 0 0 5.20798e-13 -1.91957e-13 2.73975e-14 4.42618e-14 0 0 3.94618e-13 -1.06653e-13 -8.65576e-14 1.63794e-13 0 0 1.92563e-13 9.03664e-14 -3.32858e-13 3.18889e-13 0 0 7.73959e-14 8.57668e-14 -2.76892e-13 2.73126e-13 0 0 -1.58156e-14 -1.46815e-14 -6.78497e-14 1.37474e-13 0 0 -1.91862e-13 1.24902e-14 7.26034e-15 1.38303e-13 0 0 -2.50516e-13 1.58285e-14 3.71434e-14 1.87091e-13 0 0 -1.51451e-13 -1.58952e-13 9.68745e-14 2.54197e-13 0 0 5.48007e-15 -3.69281e-13 1.35974e-13 3.24277e-13 0 0 3.73188e-14 -4.04021e-13 1.06447e-13 3.99192e-13 0 0 -1.23439e-14 -3.55144e-13 -1.67906e-15 4.54629e-13 0 0 -9.77732e-14 -3.10727e-13 5.47628e-15 4.19551e-13 0 0 -1.29344e-13 -3.11389e-13 7.74777e-14 3.33671e-13 0 0 -9.41608e-14 -3.69777e-13 2.34397e-13 1.87543e-13 0 0 -8.31652e-14 -3.69054e-13 3.28797e-13 3.64688e-14 0 0 -9.61375e-14 -3.33873e-13 3.2858e-13 -3.82452e-14 0 0 -1.0171e-13 -2.69221e-13 2.89008e-13 -5.04841e-14 0 0 -1.04597e-13 -1.79239e-13 2.04158e-13 -2.22354e-14 0 0 -1.26332e-13 -5.8237e-14 8.54719e-14 4.98103e-14 0 0 -1.65483e-13 9.3024e-14 1.06993e-14 1.21654e-13 0 0 -1.57879e-13 1.90905e-13 3.80422e-15 1.35852e-13 0 0 -1.31369e-13 2.21254e-13 3.26749e-14 1.19213e-13 0 0 -8.49953e-14 2.19544e-13 1.04452e-13 7.89199e-14 0 0 -1.35172e-14 1.88196e-13 2.04984e-13 4.02163e-14 0 0 8.4391e-14 1.11277e-13 3.32325e-13 4.10853e-14 0 0 1.69577e-13 5.48915e-14 4.27116e-13 5.15827e-14 0 0 2.02876e-13 5.53306e-14 4.32209e-13 7.67133e-14 0 0 2.04402e-13 9.65548e-14 3.94592e-13 1.27206e-13 0 0 1.88841e-13 2.03091e-13 3.01184e-13 2.16187e-13 0 0 1.70256e-13 3.64328e-13 1.45986e-13 2.43482e-13 0 0 1.84113e-13 4.2366e-13 3.04723e-14 2.79034e-13 0 0 2.36878e-13 4.43789e-13 -5.75616e-14 3.5059e-13 0 0 2.59503e-13 4.39579e-13 -3.83735e-14 3.25636e-13 0 0 2.72546e-13 4.16922e-13 2.94993e-14 2.38975e-13 0 0 2.96149e-13 3.58869e-13 1.66083e-13 9.95483e-14 0 0 3.19487e-13 3.45119e-13 1.98691e-13 4.43078e-14 0 0 3.39502e-13 3.54392e-13 1.89716e-13 3.28894e-14 0 0 3.40838e-13 3.51895e-13 1.93004e-13 1.44466e-14 0 0 3.26571e-13 3.49776e-13 2.09505e-13 -2.19507e-14 0 0 2.93527e-13 3.43827e-13 2.45774e-13 -6.36544e-14 0 0 2.54407e-13 3.40704e-13 2.6367e-13 -9.0235e-14 0 0 2.28134e-13 3.34024e-13 2.60893e-13 -1.06439e-13 0 0 2.07488e-13 2.99418e-13 2.64889e-13 -1.06152e-13 0 0 2.11583e-13 1.8568e-13 2.9892e-13 -1.06736e-13 0 0 2.0896e-13 1.5453e-13 2.74428e-13 -9.00622e-14 0 0 1.71108e-13 1.99079e-13 1.87146e-13 -9.16718e-14 0 0 1.61991e-13 1.71123e-13 1.98794e-13 -7.2197e-14 0 0 1.51224e-13 1.64071e-13 1.55988e-13 4.826e-14 0 0 1.30978e-13 1.6837e-13 1.08913e-13 7.54928e-14 0 0 1.34913e-13 1.50586e-13 1.12407e-13 6.02736e-14 0 0 1.24551e-13 1.57717e-13 8.91318e-14 1.24113e-13 0 0 1.3793e-13 1.28488e-13 1.30752e-13 5.82683e-14 0 0 1.41325e-13 9.90103e-14 1.52961e-13 3.80679e-14 0 0 1.33476e-13 1.04355e-13 1.45734e-13 5.53834e-14 0 0 1.32809e-13 1.16e-13 1.19584e-13 4.49467e-14 0 0 1.16201e-13 1.14007e-13 8.99762e-14 8.13709e-14 0 0 9.02641e-14 5.34147e-14 1.64654e-13 3.08469e-14 0 0 4.65e-14 3.56122e-14 1.6538e-13 7.01861e-14 0 0 1.93341e-14 2.45695e-14 1.27802e-13 8.35213e-14 0 0 1.8592e-14 -2.90044e-14 1.43866e-13 5.92e-14 0 0 -1.02275e-14 -1.78602e-14 8.65697e-14 1.48881e-13 0 0 -3.4004e-14 -1.74104e-14 4.23798e-14 2.19677e-13 0 0 -4.01557e-15 -3.42046e-14 6.26707e-14 1.69324e-13 0 0 -2.76925e-15 2.8297e-14 7.22349e-15 1.59757e-13 0 0 -2.98649e-14 6.04794e-14 9.93081e-14 1.54038e-13 0 0 -4.5244e-14 1.38168e-13 2.03447e-13 2.33956e-13 0 0 2.11207e-14 1.46566e-13 2.75846e-13 1.7917e-13 0 0 1.14671e-13 1.0199e-13 4.20868e-13 8.01776e-14 0 0 9.46599e-14 1.96905e-13 3.6977e-13 2.67702e-13 0 0 3.01716e-14 3.75887e-13 2.42554e-13 3.54713e-13 0 0 3.59132e-14 3.74115e-13 3.35828e-13 3.02935e-13 0 0 1.14967e-13 2.75375e-13 4.69479e-13 2.91312e-13 0 0 1.45997e-13 3.06142e-13 4.55106e-13 3.36338e-13 0 0 1.69347e-13 3.12454e-13 5.03167e-13 2.58877e-13 0 0 1.79069e-13 3.39128e-13 5.13647e-13 1.32606e-13 0 0 1.28981e-13 5.1234e-13 3.41055e-13 2.08367e-13 0 0 1.76497e-13 4.80662e-13 3.78248e-13 2.24341e-13 0 0 2.81585e-13 2.96237e-13 5.42431e-13 1.51125e-13 0 0 2.67052e-13 3.55006e-13 4.66875e-13 1.91953e-13 0 0 2.21171e-13 4.80636e-13 3.60325e-13 2.81749e-13 0 0 2.62578e-13 4.78001e-13 3.52222e-13 2.95397e-13 0 0 4.06205e-13 3.38206e-13 4.71123e-13 1.34779e-13 0 0 5.43944e-13 2.08975e-13 5.19396e-13 1.88283e-13 0 0 4.68425e-13 3.95133e-13 3.44513e-13 2.83873e-13 0 0 4.00442e-13 5.46717e-13 2.33694e-13 3.02067e-13 0 0 4.3117e-13 4.92536e-13 3.79322e-13 1.76708e-13 0 0 3.74538e-13 6.08e-13 3.36705e-13 9.43868e-14 0 0 3.96648e-13 6.56603e-13 1.70225e-13 2.52299e-13 0 0 5.24552e-13 5.5387e-13 1.66919e-13 3.64669e-13 0 0 4.35283e-13 6.77724e-13 5.78004e-14 5.57614e-13 0 0 3.74233e-13 6.95322e-13 2.0645e-13 3.85887e-13 0 0 5.34566e-13 5.13175e-13 4.87249e-13 3.62377e-14 0 0 5.60732e-13 4.97119e-13 5.53028e-13 -4.1569e-14 0 0 5.27631e-13 5.12e-13 4.42652e-13 2.20709e-13 0 0 4.16109e-13 6.15139e-13 3.23266e-13 3.67225e-13 0 0 3.69238e-13 6.39601e-13 4.99803e-13 8.95496e-14 0 0 3.93037e-13 6.89305e-13 4.03203e-13 1.77635e-13 0 0 3.92675e-13 6.30377e-13 4.73042e-13 2.49038e-13 0 0 5.04829e-13 4.85056e-13 5.17235e-13 4.69271e-13 0 0 5.8237e-13 4.66449e-13 4.86451e-13 5.81175e-13 0 0 4.553e-13 6.42525e-13 5.21411e-13 4.04122e-13 0 0 3.69087e-13 7.56649e-13 5.82785e-13 2.4095e-13 0 0 2.72545e-13 8.32312e-13 6.34521e-13 1.42841e-13 0 0 1.41695e-13 8.56667e-13 5.90921e-13 3.15935e-13 0 0 1.56911e-13 6.45601e-13 7.79016e-13 4.26037e-13 0 0 2.22051e-13 6.04608e-13 6.88348e-13 5.45029e-13 0 0 3.01188e-13 5.02899e-13 8.28692e-13 3.29714e-13 0 0 1.99982e-13 6.26874e-13 8.40665e-13 2.50148e-13 0 0 1.42948e-13 8.07746e-13 6.26058e-13 3.90607e-13 0 0 3.79491e-13 5.63455e-13 8.596e-13 1.07058e-13 0 0 4.45768e-13 6.3357e-13 6.90873e-13 6.58492e-14 0 0 1.74455e-13 1.01045e-12 1.94242e-13 3.71485e-13 0 0 2.84894e-13 6.90209e-13 4.03369e-13 2.83843e-13 0 0 5.68533e-13 7.39627e-14 9.92557e-13 -7.57699e-14 0 0 3.09324e-13 2.11868e-13 8.71563e-13 -2.85257e-14 0 0 -7.89699e-15 6.39942e-13 4.01566e-13 2.14341e-13 0 0 2.83807e-14 5.56997e-13 6.76939e-13 -1.53193e-15 0 0 3.49269e-13 2.35788e-13 1.12e-12 -3.7322e-13 0 0 1.48108e-13 6.87559e-13 6.28815e-13 -1.45809e-13 0 0 -4.37654e-13 1.48997e-12 5.78446e-14 7.15368e-14 0 0 -5.54809e-13 1.65723e-12 8.62792e-14 -6.82271e-14 0
				</DataArray>
				<DataArray Name="VitesseY" type="Float32" format="ascii">