<?xml version="1.0"?>
<VTKFile type="PolyData">
	<PolyData>
		<Piece NumberOfPoints="1206" NumberOfPolys="1000">
			<Points>
				<DataArray type="Float32" NumberOfComponents="3" format="ascii">
 0 0 0 0.02 0 0 0.04 0 0 0.06 0 0 0.08 0 0 0.1 0 0 0 0.005 0 0.02 0.005 0 0.04 0.005 0 0.06 0.005 0 0.08 0.005 0 0.1 0.005 0 0 0.01 0 0.02 0.01 0 0.04 0.01 0 0.06 0.01 0 0.08 0.01 0 0.1 0.01 0 0 0.015 0 0.02 0.015 0 0.04 0.015 0 0.06 0.015 0 0.08 0.015 0 0.1 0.015 0 0 0.02 0 0.02 0.02 0 0.04 0.02 0 0.06 0.02 0 0.08 0.02 0 0.1 0.02 0 0 0.025 0 0.02 0.025 0 0.04 0.025 0 0.06 0.025 0 0.08 0.025 0 0.1 0.025 0 0 0.03 0 0.02 0.03 0 0.04 0.03 0 0.06 0.03 0 0.08 0.03 0 0.1 0.03 0 0 0.035 0 0.02 0.035 0 0.04 0.035 0 0.06 0.035 0 0.08 0.035 0 0.1 0.035 0 0 0.04 0 0.02 0.04 0 0.04 0.04 0 0.06 0.04 0 0.08 0.04 0 0.1 0.04 0 0 0.045 0 0.02 0.045 0 0.04 0.045 0 0.06 0.045 0 0.08 0.045 0 0.1 0.045 0 0 0.05 0 0.02 0.05 0 0.04 0.05 0 0.06 0.05 0 0.08 0.05 0 0.1 0.05 0 0 0.055 0 0.02 0.055 0 0.04 0.055 0 0.06 0.055 0 0.08 0.055 0 0.1 0.055 0 0 0.06 0 0.02 0.06 0 0.04 0.06 0 0.06 0.06 0 0.08 0.06 0 0.1 0.06 0 0 0.065 0 0.02 0.065 0 0.04 0.065 0 0.06 0.065 0 0.08 0.065 0 0.1 0.065 0 0 0.07 0 0.02 0.07 0 0.04 0.07 0 0.06 0.07 0 0.08 0.07 0 0.1 0.07 0 0 0.075 0 0.02 0.075 0 0.04 0.075 0 0.06 0.075 0 0.08 0.075 0 0.1 0.075 0 0 0.08 0 0.02 0.08 0 0.04 0.08 0 0.06 0.08 0 0.08 0.08 0 0.1 0.08 0 0 0.085 0 0.02 0.085 0 0.04 0.085 0 0.06 0.085 0 0.08 0.085 0 0.1 0.085 0 0 0.09 0 0.02 0.09 0 0.04 0.09 0 0.06 0.09 0 0.08 0.09 0 0.1 0.09 0 0 0.095 0 0.02 0.095 0 0.04 0.095 0 0.06 0.095 0 0.08 0.095 0 0.1 0.095 0 0 0.1 0 0.02 0.1 0 0.04 0.1 0 0.06 0.1 0 0.08 0.1 0 0.1 0.1 0 0 0.105 0 0.02 0.105 0 0.04 0.105 0 0.06 0.105 0 0.08 0.105 0 0.1 0.105 0 0 0.11 0 0.02 0.11 0 0.04 0.11 0 0.06 0.11 0 0.08 0.11 0 0.1 0.11 0 0 0.115 0 0.02 0.115 0 0.04 0.115 0 0.06 0.115 0 0.08 0.115 0 0.1 0.115 0 0 0.12 0 0.02 0.12 0 0.04 0.12 0 0.06 0.12 0 0.08 0.12 0 0.1 0.12 0 0 0.125 0 0.02 0.125 0 0.04 0.125 0 0.06 0.125 0 0.08 0.125 0 0.1 0.125 0 0 0.13 0 0.02 0.13 0 0.04 0.13 0 0.06 0.13 0 0.08 0.13 0 0.1 0.13 0 0 0.135 0 0.02 0.135 0 0.04 0.135 0 0.06 0.135 0 0.08 0.135 0 0.1 0.135 0 0 0.14 0 0.02 0.14 0 0.04 0.14 0 0.06 0.14 0 0.08 0.14 0 0.1 0.14 0 0 0.145 0 0.02 0.145 0 0.04 0.145 0 0.06 0.145 0 0.08 0.145 0 0.1 0.145 0 0 0.15 0 0.02 0.15 0 0.04 0.15 0 0.06 0.15 0 0.08 0.15 0 0.1 0.15 0 0 0.155 0 0.02 0.155 0 0.04 0.155 0 0.06 0.155 0 0.08 0.155 0 0.1 0.155 0 0 0.16 0 0.02 0.16 0 0.04 0.16 0 0.06 0.16 0 0.08 0.16 0 0.1 0.16 0 0 0.165 0 0.02 0.165 0 0.04 0.165 0 0.06 0.165 0 0.08 0.165 0 0.1 0.165 0 0 0.17 0 0.02 0.17 0 0.04 0.17 0 0.06 0.17 0 0.08 0.17 0 0.1 0.17 0 0 0.175 0 0.02 0.175 0 0.04 0.175 0 0.06 0.175 0 0.08 0.175 0 0.1 0.175 0 0 0.18 0 0.02 0.18 0 0.04 0.18 0 0.06 0.18 0 0.08 0.18 0 0.1 0.18 0 0 0.185 0 0.02 0.185 0 0.04 0.185 0 0.06 0.185 0 0.08 0.185 0 0.1 0.185 0 0 0.19 0 0.02 0.19 0 0.04 0.19 0 0.06 0.19 0 0.08 0.19 0 0.1 0.19 0 0 0.195 0 0.02 0.195 0 0.04 0.195 0 0.06 0.195 0 0.08 0.195 0 0.1 0.195 0 0 0.2 0 0.02 0.2 0 0.04 0.2 0 0.06 0.2 0 0.08 0.2 0 0.1 0.2 0 0 0.205 0 0.02 0.205 0 0.04 0.205 0 0.06 0.205 0 0.08 0.205 0 0.1 0.205 0 0 0.21 0 0.02 0.21 0 0.04 0.21 0 0.06 0.21 0 0.08 0.21 0 0.1 0.21 0 0 0.215 0 0.02 0.215 0 0.04 0.215 0 0.06 0.215 0 0.08 0.215 0 0.1 0.215 0 0 0.22 0 0.02 0.22 0 0.04 0.22 0 0.06 0.22 0 0.08 0.22 0 0.1 0.22 0 0 0.225 0 0.02 0.225 0 0.04 0.225 0 0.06 0.225 0 0.08 0.225 0 0.1 0.225 0 0 0.23 0 0.02 0.23 0 0.04 0.23 0 0.06 0.23 0 0.08 0.23 0 0.1 0.23 0 0 0.235 0 0.02 0.235 0 0.04 0.235 0 0.06 0.235 0 0.08 0.235 0 0.1 0.235 0 0 0.24 0 0.02 0.24 0 0.04 0.24 0 0.06 0.24 0 0.08 0.24 0 0.1 0.24 0 0 0.245 0 0.02 0.245 0 0.04 0.245 0 0.06 0.245 0 0.08 0.245 0 0.1 0.245 0 0 0.25 0 0.02 0.25 0 0.04 0.25 0 0.06 0.25 0 0.08 0.25 0 0.1 0.25 0 0 0.255 0 0.02 0.255 0 0.04 0.255 0 0.06 0.255 0 0.08 0.255 0 0.1 0.255 0 0 0.26 0 0.02 0.26 0 0.04 0.26 0 0.06 0.26 0 0.08 0.26 0 0.1 0.26 0 0 0.265 0 0.02 0.265 0 0.04 0.265 0 0.06 0.265 0 0.08 0.265 0 0.1 0.265 0 0 0.27 0 0.02 0.27 0 0.04 0.27 0 0.06 0.27 0 0.08 0.27 0 0.1 0.27 0 0 0.275 0 0.02 0.275 0 0.04 0.275 0 0.06 0.275 0 0.08 0.275 0 0.1 0.275 0 0 0.28 0 0.02 0.28 0 0.04 0.28 0 0.06 0.28 0 0.08 0.28 0 0.1 0.28 0 0 0.285 0 0.02 0.285 0 0.04 0.285 0 0.06 0.285 0 0.08 0.285 0 0.1 0.285 0 0 0.29 0 0.02 0.29 0 0.04 0.29 0 0.06 0.29 0 0.08 0.29 0 0.1 0.29 0 0 0.295 0 0.02 0.295 0 0.04 0.295 0 0.06 0.295 0 0.08 0.295 0 0.1 0.295 0 0 0.3 0 0.02 0.3 0 0.04 0.3 0 0.06 0.3 0 0.08 0.3 0 0.1 0.3 0 0 0.305 0 0.02 0.305 0 0.04 0.305 0 0.06 0.305 0 0.08 0.305 0 0.1 0.305 0 0 0.31 0 0.02 0.31 0 0.04 0.31 0 0.06 0.31 0 0.08 0.31 0 0.1 0.31 0 0 0.315 0 0.02 0.315 0 0.04 0.315 0 0.06 0.315 0 0.08 0.315 0 0.1 0.315 0 0 0.32 0 0.02 0.32 0 0.04 0.32 0 0.06 0.32 0 0.08 0.32 0 0.1 0.32 0 0 0.325 0 0.02 0.325 0 0.04 0.325 0 0.06 0.325 0 0.08 0.325 0 0.1 0.325 0 0 0.33 0 0.02 0.33 0 0.04 0.33 0 0.06 0.33 0 0.08 0.33 0 0.1 0.33 0 0 0.335 0 0.02 0.335 0 0.04 0.335 0 0.06 0.335 0 0.08 0.335 0 0.1 0.335 0 0 0.34 0 0.02 0.34 0 0.04 0.34 0 0.06 0.34 0 0.08 0.34 0 0.1 0.34 0 0 0.345 0 0.02 0.345 0 0.04 0.345 0 0.06 0.345 0 0.08 0.345 0 0.1 0.345 0 0 0.35 0 0.02 0.35 0 0.04 0.35 0 0.06 0.35 0 0.08 0.35 0 0.1 0.35 0 0 0.355 0 0.02 0.355 0 0.04 0.355 0 0.06 0.355 0 0.08 0.355 0 0.1 0.355 0 0 0.36 0 0.02 0.36 0 0.04 0.36 0 0.06 0.36 0 0.08 0.36 0 0.1 0.36 0 0 0.365 0 0.02 0.365 0 0.04 0.365 0 0.06 0.365 0 0.08 0.365 0 0.1 0.365 0 0 0.37 0 0.02 0.37 0 0.04 0.37 0 0.06 0.37 0 0.08 0.37 0 0.1 0.37 0 0 0.375 0 0.02 0.375 0 0.04 0.375 0 0.06 0.375 0 0.08 0.375 0 0.1 0.375 0 0 0.38 0 0.02 0.38 0 0.04 0.38 0 0.06 0.38 0 0.08 0.38 0 0.1 0.38 0 0 0.385 0 0.02 0.385 0 0.04 0.385 0 0.06 0.385 0 0.08 0.385 0 0.1 0.385 0 0 0.39 0 0.02 0.39 0 0.04 0.39 0 0.06 0.39 0 0.08 0.39 0 0.1 0.39 0 0 0.395 0 0.02 0.395 0 0.04 0.395 0 0.06 0.395 0 0.08 0.395 0 0.1 0.395 0 0 0.4 0 0.02 0.4 0 0.04 0.4 0 0.06 0.4 0 0.08 0.4 0 0.1 0.4 0 0 0.405 0 0.02 0.405 0 0.04 0.405 0 0.06 0.405 0 0.08 0.405 0 0.1 0.405 0 0 0.41 0 0.02 0.41 0 0.04 0.41 0 0.06 0.41 0 0.08 0.41 0 0.1 0.41 0 0 0.415 0 0.02 0.415 0 0.04 0.415 0 0.06 0.415 0 0.08 0.415 0 0.1 0.415 0 0 0.42 0 0.02 0.42 0 0.04 0.42 0 0.06 0.42 0 0.08 0.42 0 0.1 0.42 0 0 0.425 0 0.02 0.425 0 0.04 0.425 0 0.06 0.425 0 0.08 0.425 0 0.1 0.425 0 0 0.43 0 0.02 0.43 0 0.04 0.43 0 0.06 0.43 0 0.08 0.43 0 0.1 0.43 0 0 0.435 0 0.02 0.435 0 0.04 0.435 0 0.06 0.435 0 0.08 0.435 0 0.1 0.435 0 0 0.44 0 0.02 0.44 0 0.04 0.44 0 0.06 0.44 0 0.08 0.44 0 0.1 0.44 0 0 0.445 0 0.02 0.445 0 0.04 0.445 0 0.06 0.445 0 0.08 0.445 0 0.1 0.445 0 0 0.45 0 0.02 0.45 0 0.04 0.45 0 0.06 0.45 0 0.08 0.45 0 0.1 0.45 0 0 0.455 0 0.02 0.455 0 0.04 0.455 0 0.06 0.455 0 0.08 0.455 0 0.1 0.455 0 0 0.46 0 0.02 0.46 0 0.04 0.46 0 0.06 0.46 0 0.08 0.46 0 0.1 0.46 0 0 0.465 0 0.02 0.465 0 0.04 0.465 0 0.06 0.465 0 0.08 0.465 0 0.1 0.465 0 0 0.47 0 0.02 0.47 0 0.04 0.47 0 0.06 0.47 0 0.08 0.47 0 0.1 0.47 0 0 0.475 0 0.02 0.475 0 0.04 0.475 0 0.06 0.475 0 0.08 0.475 0 0.1 0.475 0 0 0.48 0 0.02 0.48 0 0.04 0.48 0 0.06 0.48 0 0.08 0.48 0 0.1 0.48 0 0 0.485 0 0.02 0.485 0 0.04 0.485 0 0.06 0.485 0 0.08 0.485 0 0.1 0.485 0 0 0.49 0 0.02 0.49 0 0.04 0.49 0 0.06 0.49 0 0.08 0.49 0 0.1 0.49 0 0 0.495 0 0.02 0.495 0 0.04 0.495 0 0.06 0.495 0 0.08 0.495 0 0.1 0.495 0 0 0.5 0 0.02 0.5 0 0.04 0.5 0 0.06 0.5 0 0.08 0.5 0 0.1 0.5 0 0 0.505 0 0.02 0.505 0 0.04 0.505 0 0.06 0.505 0 0.08 0.505 0 0.1 0.505 0 0 0.51 0 0.02 0.51 0 0.04 0.51 0 0.06 0.51 0 0.08 0.51 0 0.1 0.51 0 0 0.515 0 0.02 0.515 0 0.04 0.515 0 0.06 0.515 0 0.08 0.515 0 0.1 0.515 0 0 0.52 0 0.02 0.52 0 0.04 0.52 0 0.06 0.52 0 0.08 0.52 0 0.1 0.52 0 0 0.525 0 0.02 0.525 0 0.04 0.525 0 0.06 0.525 0 0.08 0.525 0 0.1 0.525 0 0 0.53 0 0.02 0.53 0 0.04 0.53 0 0.06 0.53 0 0.08 0.53 0 0.1 0.53 0 0 0.535 0 0.02 0.535 0 0.04 0.535 0 0.06 0.535 0 0.08 0.535 0 0.1 0.535 0 0 0.54 0 0.02 0.54 0 0.04 0.54 0 0.06 0.54 0 0.08 0.54 0 0.1 0.54 0 0 0.545 0 0.02 0.545 0 0.04 0.545 0 0.06 0.545 0 0.08 0.545 0 0.1 0.545 0 0 0.55 0 0.02 0.55 0 0.04 0.55 0 0.06 0.55 0 0.08 0.55 0 0.1 0.55 0 0 0.555 0 0.02 0.555 0 0.04 0.555 0 0.06 0.555 0 0.08 0.555 0 0.1 0.555 0 0 0.56 0 0.02 0.56 0 0.04 0.56 0 0.06 0.56 0 0.08 0.56 0 0.1 0.56 0 0 0.565 0 0.02 0.565 0 0.04 0.565 0 0.06 0.565 0 0.08 0.565 0 0.1 0.565 0 0 0.57 0 0.02 0.57 0 0.04 0.57 0 0.06 0.57 0 0.08 0.57 0 0.1 0.57 0 0 0.575 0 0.02 0.575 0 0.04 0.575 0 0.06 0.575 0 0.08 0.575 0 0.1 0.575 0 0 0.58 0 0.02 0.58 0 0.04 0.58 0 0.06 0.58 0 0.08 0.58 0 0.1 0.58 0 0 0.585 0 0.02 0.585 0 0.04 0.585 0 0.06 0.585 0 0.08 0.585 0 0.1 0.585 0 0 0.59 0 0.02 0.59 0 0.04 0.59 0 0.06 0.59 0 0.08 0.59 0 0.1 0.59 0 0 0.595 0 0.02 0.595 0 0.04 0.595 0 0.06 0.595 0 0.08 0.595 0 0.1 0.595 0 0 0.6 0 0.02 0.6 0 0.04 0.6 0 0.06 0.6 0 0.08 0.6 0 0.1 0.6 0 0 0.605 0 0.02 0.605 0 0.04 0.605 0 0.06 0.605 0 0.08 0.605 0 0.1 0.605 0 0 0.61 0 0.02 0.61 0 0.04 0.61 0 0.06 0.61 0 0.08 0.61 0 0.1 0.61 0 0 0.615 0 0.02 0.615 0 0.04 0.615 0 0.06 0.615 0 0.08 0.615 0 0.1 0.615 0 0 0.62 0 0.02 0.62 0 0.04 0.62 0 0.06 0.62 0 0.08 0.62 0 0.1 0.62 0 0 0.625 0 0.02 0.625 0 0.04 0.625 0 0.06 0.625 0 0.08 0.625 0 0.1 0.625 0 0 0.63 0 0.02 0.63 0 0.04 0.63 0 0.06 0.63 0 0.08 0.63 0 0.1 0.63 0 0 0.635 0 0.02 0.635 0 0.04 0.635 0 0.06 0.635 0 0.08 0.635 0 0.1 0.635 0 0 0.64 0 0.02 0.64 0 0.04 0.64 0 0.06 0.64 0 0.08 0.64 0 0.1 0.64 0 0 0.645 0 0.02 0.645 0 0.04 0.645 0 0.06 0.645 0 0.08 0.645 0 0.1 0.645 0 0 0.65 0 0.02 0.65 0 0.04 0.65 0 0.06 0.65 0 0.08 0.65 0 0.1 0.65 0 0 0.655 0 0.02 0.655 0 0.04 0.655 0 0.06 0.655 0 0.08 0.655 0 0.1 0.655 0 0 0.66 0 0.02 0.66 0 0.04 0.66 0 0.06 0.66 0 0.08 0.66 0 0.1 0.66 0 0 0.665 0 0.02 0.665 0 0.04 0.665 0 0.06 0.665 0 0.08 0.665 0 0.1 0.665 0 0 0.67 0 0.02 0.67 0 0.04 0.67 0 0.06 0.67 0 0.08 0.67 0 0.1 0.67 0 0 0.675 0 0.02 0.675 0 0.04 0.675 0 0.06 0.675 0 0.08 0.675 0 0.1 0.675 0 0 0.68 0 0.02 0.68 0 0.04 0.68 0 0.06 0.68 0 0.08 0.68 0 0.1 0.68 0 0 0.685 0 0.02 0.685 0 0.04 0.685 0 0.06 0.685 0 0.08 0.685 0 0.1 0.685 0 0 0.69 0 0.02 0.69 0 0.04 0.69 0 0.06 0.69 0 0.08 0.69 0 0.1 
[...]
			<PointData Scalars="VitesseX">
				<DataArray Name="VitesseX" type="Float32" format="ascii">
 0 7.69845e-15 -1.19558e-14 -8.99932e-15 -1.76245e-14 0 0 8.22511e-15 -1.10134e-14 -1.03251e-14 -1.85654e-14 0 0 1.59895e-15 5.33095e-16 -2.12307e-14 -1.61085e-14 0 0 -2.52936e-15 -7.4003e-16 -1.38694e-14 -2.53143e-14 0 0 3.85006e-16 -9.67171e-15 -5.04916e-15 -2.94417e-14 0 0 -4.2835e-15 -8.39646e-16 -2.1605e-14 -1.52463e-14 0 0 -1.14256e-14 1.91362e-16 -2.74087e-14 -1.34131e-14 0 0 -2.39365e-15 -3.07825e-14 1.21947e-15 -3.4444e-14 0 0 -2.68829e-15 -3.45839e-14 -4.36279e-15 -2.99291e-14 0 0 -1.30468e-15 -3.99784e-14 -1.73731e-14 -9.78449e-15 0 0 -7.64271e-15 -3.95312e-14 -2.7373e-14 2.0952e-15 0 0 -2.64407e-14 -1.70203e-14 -5.39109e-14 1.6632e-14 0 0 -1.78111e-14 -4.09855e-14 -3.18208e-14 1.88756e-15 0 0 -1.16283e-14 -6.09011e-14 -8.5716e-15 -1.42747e-14 0 0 -6.91756e-15 -6.24865e-14 -1.75603e-14 -4.84329e-16 0 0 -5.70953e-15 -4.22338e-14 -4.79865e-14 1.4381e-14 0 0 2.06072e-15 -4.45758e-14 -2.38125e-14 -1.4843e-14 0 0 -2.77867e-16 -1.90813e-14 -4.97981e-14 1.4307e-14 0 0 -2.31441e-14 3.09259e-14 -8.39255e-14 3.22183e-14 0 0 -3.1391e-15 -4.00815e-15 -1.45127e-14 -2.90817e-14 0 0 -1.64891e-14 1.26524e-14 -2.04447e-14 -2.92199e-14 0 0 -4.07197e-14 4.53109e-14 -5.62709e-14 2.38686e-15 0 0 -4.2989e-15 -2.47243e-14 6.25692e-15 -2.05984e-14 0 0 -1.07942e-14 -2.53251e-14 8.49384e-15 -2.98308e-14 0 0 -1.07892e-14 -3.75601e-14 1.80673e-14 -4.54199e-14 0 0 5.57251e-16 -8.45447e-14 7.23354e-14 -9.01223e-14 0 0 -2.52655e-14 -4.45879e-14 1.95512e-14 -6.14181e-14 0 0 -3.83237e-14 -1.69233e-14 -2.28541e-14 -2.91541e-14 0 0 -5.0209e-14 -4.16981e-15 -3.13124e-14 -2.45482e-14 0 0 -4.91965e-14 -9.17277e-15 -2.19487e-14 -4.63057e-14 0 0 -3.41541e-14 -3.78833e-14 8.43336e-15 -6.528e-14 0 0 -2.14127e-14 -3.91909e-14 -8.4614e-15 -4.53184e-14 0 0 -2.9807e-14 -1.36284e-14 -4.53111e-14 -3.21948e-14 0 0 -1.22433e-14 -4.33735e-14 -2.56518e-14 -4.69279e-14 0 0 -7.82875e-15 -4.60654e-14 -4.50982e-14 -2.3086e-14 0 0 -3.33003e-14 1.23741e-14 -1.14457e-13 1.9317e-14 0 0 -9.74112e-15 -2.45937e-14 -6.75801e-14 -3.05838e-14 0 0 -2.29488e-14 -4.56738e-14 -4.52061e-14 -2.19536e-14 0 0 -3.38821e-14 -7.00517e-14 -4.06218e-15 -2.88761e-14 0 0 -3.98315e-14 -7.93085e-14 3.9147e-14 -2.67848e-14 0 0 -6.644e-14 -1.94201e-14 -3.39245e-14 4.41902e-14 0 0 -8.21665e-14 -1.00397e-16 -5.16528e-14 2.59619e-14 0 0 -7.58335e-14 -2.77051e-14 -5.05611e-15 -1.39479e-14 0 0 -7.49922e-14 -5.38415e-15 -2.40122e-14 5.06668e-15 0 0 -1.47426e-13 9.60048e-14 -5.91477e-14 -1.49347e-14 0 0 -1.28357e-13 1.71497e-14 9.61276e-14 -1.60698e-13 0 0 -3.63467e-14 -6.6735e-14 1.67729e-13 -1.7892e-13 0 0 -6.93282e-15 -5.77204e-14 1.6795e-13 -1.5921e-13 0 0 -5.43511e-14 -4.85371e-15 1.52971e-13 -1.16972e-13 0 0 -1.44252e-13 1.10738e-13 3.12705e-14 2.3127e-14 0 0 -1.16694e-13 1.13851e-14 1.32441e-13 -2.37125e-14 0 0 -1.68455e-13 2.4647e-14 1.08484e-13 7.77715e-15 0 0 -1.83745e-13 1.09219e-13 -8.40599e-14 1.70927e-13 0 0 -1.60095e-13 1.37377e-13 -1.99556e-13 2.41442e-13 0 0 -9.19756e-14 -3.39429e-14 3.27419e-14 1.53413e-14 0 0 -7.58215e-14 -1.12918e-13 1.9865e-13 -2.08978e-13 0 0 -1.5268e-13 4.32843e-14 2.01924e-14 -1.62042e-13 0 0 -2.697e-14 -6.41018e-14 1.41156e-14 -1.03541e-13 0 0 -3.20963e-16 -1.28524e-13 4.37437e-14 -7.48915e-14 0 0 -2.17778e-14 -1.89981e-13 9.84409e-14 -1.26507e-13 0 0 -7.41725e-14 -1.4689e-13 1.16106e-14 -1.31198e-13 0 0 -1.47512e-13 2.11289e-14 -2.50861e-13 -4.13459e-14 0 0 2.58294e-14 -1.42747e-13 -2.25861e-13 -7.02405e-14 0 0 7.44046e-14 -1.40281e-13 -2.02559e-13 -1.36706e-13 0 0 3.07437e-14 -3.47934e-14 -2.11049e-13 -2.01583e-13 0 0 9.89968e-14 -1.5606e-13 -6.58528e-14 -2.82252e-13 0 0 -3.53181e-14 -3.31693e-14 -2.05688e-13 -1.54228e-13 0 0 -1.69262e-13 8.12578e-16 -1.92579e-13 -1.22054e-13 0 0 -1.02655e-13 -1.89732e-13 6.87145e-14 -3.03428e-13 0 0 -1.1137e-13 -1.62599e-13 5.11632e-14 -3.45643e-13 0 0 -1.65467e-13 -2.56781e-14 -1.12302e-13 -2.86768e-13 0 0 -1.42056e-13 7.16864e-15 -2.35063e-13 -2.89933e-13 0 0 -1.5947e-13 -4.28793e-14 -1.5978e-13 -3.6793e-13 0 0 -1.79951e-13 -2.00374e-13 2.70729e-14 -5.09507e-13 0 0 -2.01615e-13 -3.14494e-13 1.18064e-13 -5.19309e-13 0 0 -2.32847e-13 -3.26306e-13 9.18815e-14 -4.50271e-13 0 0 -3.10525e-13 -2.63425e-13 -4.07357e-15 -2.86012e-13 0 0 -4.08367e-13 -1.74865e-13 -4.3459e-14 -6.83801e-14 0 0 -4.46986e-13 -1.94568e-13 1.76913e-14 -5.26912e-14 0 0 -4.47226e-13 -2.78578e-13 1.85784e-13 -1.20689e-13 0 0 -4.52592e-13 -2.87347e-13 2.58516e-13 -2.46215e-13 0 0 -5.20296e-13 -2.22447e-13 2.30667e-13 -2.93682e-13 0 0 -5.25634e-13 -1.5025e-13 1.47496e-13 -2.8479e-13 0 0 -4.74206e-13 -1.48021e-13 4.94167e-14 -2.65393e-13 0 0 -3.75196e-13 -1.76858e-13 1.16607e-14 -2.69201e-13 0 0 -2.60052e-13 -2.53159e-13 -4.02356e-14 -2.47209e-13 0 0 -1.59379e-13 -3.04171e-13 -1.14163e-13 -1.98459e-13 0 0 -1.10762e-13 -3.03513e-13 -1.78668e-13 -1.66594e-13 0 0 -9.60611e-14 -2.87988e-13 -2.56958e-13 -1.21667e-13 0 0 -8.07721e-14 -2.85201e-13 -2.871e-13 -1.42456e-13 0 0 -5.78155e-14 -3.09461e-13 -2.55274e-13 -2.00485e-13 0 0 -2.7605e-14 -3.57401e-13 -1.93287e-13 -2.63207e-13 0 0 -2.47549e-14 -3.59734e-13 -1.85477e-13 -3.34558e-13 0 0 -5.71935e-14 -3.1858e-13 -2.0653e-13 -4.31314e-13 0 0 -1.3565e-13 -2.24314e-13 -2.65508e-13 -4.85931e-13 0 0 -2.07301e-13 -1.1738e-13 -3.55986e-13 -4.87466e-13 0 0 -2.13448e-13 -7.08431e-14 -4.47026e-13 -4.64171e-13 0 0 -2.01855e-13 -6.71983e-14 -5.05495e-13 -4.12348e-13 0 0 -1.71883e-13 -8.60091e-14 -5.35935e-13 -3.48323e-13 0 0 -1.43444e-13 -1.21326e-13 -5.6762e-13 -2.76427e-13 0 0 -1.20968e-13 -1.6259e-13 -5.75274e-13 -2.19947e-13 0 0 -1.08304e-13 -2.08907e-13 -5.66051e-13 -1.83786e-13 0 0 -1.09905e-13 -2.5028e-13 -5.46115e-13 -1.40603e-13 0 0 -1.20768e-13 -2.85281e-13 -5.14886e-13 -1.10204e-13 0 0 -1.45112e-13 -3.23407e-13 -4.5999e-13 -1.12805e-13 0 0 -1.75186e-13 -3.41066e-13 -4.07772e-13 -1.20595e-13 0 0 -1.91164e-13 -3.55993e-13 -3.73332e-13 -1.22888e-13 0 0 -2.04091e-13 -3.67777e-13 -3.52372e-13 -1.1286e-13 0 0 -2.23741e-13 -3.63484e-13 -3.48059e-13 -7.51601e-14 0 0 -2.50094e-13 -3.53153e-13 -3.42764e-13 -9.00408e-15 0 0 -2.78863e-13 -3.26724e-13 -3.16146e-13 -2.09791e-14 0 0 -2.76894e-13 -3.15998e-13 -2.42193e-13 -9.7583e-14 0 0 -2.68244e-13 -2.97945e-13 -2.5123e-13 -6.06091e-14 0 0 -2.61995e-13 -2.75299e-13 -2.1688e-13 -6.8904e-14 0 0 -2.47435e-13 -2.61301e-13 -1.31749e-13 -1.48554e-13 0 0 -2.28311e-13 -2.53184e-13 -1.00758e-13 -1.49178e-13 0 0 -1.98875e-13 -2.38492e-13 -8.41411e-14 -9.14481e-14 0 0 -1.82662e-13 -2.17577e-13 -6.76474e-14 -3.62153e-14 0 0 -1.86764e-13 -2.09949e-13 -6.60664e-16 -6.98023e-14 0 0 -2.0119e-13 -1.73594e-13 -3.5126e-15 -4.15435e-14 0 0 -2.09095e-13 -1.76544e-13 1.4311e-14 2.07496e-14 0 0 -2.19886e-13 -1.9108e-13 8.28811e-14 2.43106e-14 0 0 -2.47696e-13 -1.67659e-13 7.63354e-14 3.71724e-14 0 0 -2.95426e-13 -1.14298e-13 3.64348e-14 8.83789e-14 0 0 -3.16249e-13 -6.23194e-14 -1.25193e-14 1.49214e-13 0 0 -3.15364e-13 -3.40873e-14 -4.42862e-14 1.98109e-13 0 0 -3.03809e-13 -6.27388e-15 -8.48084e-14 2.35083e-13 0 0 -2.78923e-13 3.12296e-14 -1.56431e-13 2.45056e-13 0 0 -2.48689e-13 3.08056e-14 -1.84496e-13 2.44461e-13 0 0 -2.17056e-13 6.87658e-15 -1.7085e-13 2.24991e-13 0 0 -1.62119e-13 -7.37426e-14 -1.31913e-13 2.00407e-13 0 0 -1.53169e-13 -1.03462e-13 -1.19171e-13 1.55742e-13 0 0 -1.33691e-13 -1.46952e-13 -7.70238e-14 4.82244e-14 0 0 -8.35869e-14 -2.34221e-13 -4.48802e-15 -6.44992e-14 0 0 -8.99749e-14 -2.26979e-13 -1.97904e-14 -6.65381e-14 0 0 -9.98793e-14 -1.93392e-13 -8.95767e-14 -4.23736e-14 0 0 -1.11833e-13 -1.58843e-13 -1.18897e-13 -1.01252e-13 0 0 -1.22286e-13 -1.70011e-13 -8.32788e-14 -1.44533e-13 0 0 -1.30941e-13 -1.8026e-13 -4.2404e-14 -1.82717e-13 0 0 -1.41434e-13 -1.54638e-13 -6.3037e-14 -1.78423e-13 0 0 -1.26184e-13 -1.69624e-13 -9.50343e-14 -1.14407e-13 0 0 -9.66281e-14 -1.83165e-13 -9.62974e-14 -1.53031e-13 0 0 -8.82614e-14 -1.76179e-13 -1.24656e-13 -1.80303e-13 0 0 -1.0172e-13 -1.60883e-13 -1.40502e-13 -1.71276e-13 0 0 -1.40994e-13 -1.16371e-13 -1.98412e-13 -9.97084e-14 0 0 -1.42898e-13 -1.35177e-13 -2.2404e-13 -4.84242e-14 0 0 -1.19587e-13 -2.12288e-13 -1.65559e-13 -1.2529e-13 0 0 -1.09698e-13 -2.74357e-13 -1.67573e-13 -2.16855e-13 0 0 -1.00759e-13 -2.89092e-13 -2.29473e-13 -1.72625e-13 0 0 -1.05859e-13 -2.73814e-13 -3.47126e-13 -1.32342e-13 0 0 -1.04377e-13 -2.70384e-13 -4.65545e-13 -2.35615e-13 0 0 -9.33362e-14 -2.67236e-13 -4.95655e-13 -4.17855e-13 0 0 -9.84117e-14 -2.40762e-13 -5.22053e-13 -3.67293e-13 0 0 -1.05756e-13 -2.4597e-13 -4.68331e-13 -1.48726e-13 0 0 -1.07457e-13 -2.70875e-13 -3.07838e-13 2.76643e-14 0 0 -1.15225e-13 -2.78037e-13 -9.75441e-14 5.89442e-14 0 0 -1.42165e-13 -2.52668e-13 -4.51328e-14 2.35563e-14 0 0 -1.533e-13 -1.97577e-13 -1.645e-13 -4.17642e-15 0 0 -5.53801e-14 -3.3895e-13 4.4183e-14 -3.53169e-13 0 0 -1.1273e-13 -2.53511e-13 6.13871e-14 -3.55996e-13 0 0 -1.94569e-13 -1.25568e-14 -2.07809e-13 -4.19245e-14 0 0 -1.07517e-13 -1.16368e-13 -1.15537e-13 -8.90584e-14 0 0 -1.1988e-13 -1.25775e-13 -1.47128e-13 1.07765e-14 0 0 -1.52392e-13 -1.09651e-13 -1.4106e-13 5.33741e-14 0 0 -9.27822e-14 -1.85649e-13 -9.09841e-14 5.35059e-14 0 0 -9.41018e-14 -1.77856e-13 -1.24607e-13 9.29504e-14 0 0 -1.22769e-13 -1.50558e-13 -6.88311e-14 5.9478e-15 0 0 -1.04686e-13 -1.8302e-13 6.92739e-15 -3.37309e-14 0 0 -2.40136e-13 -1.10695e-15 -1.07377e-13 5.68036e-14 0 0 -2.05658e-13 -3.69375e-14 5.02755e-14 -6.39013e-14 0 0 -1.03331e-13 -1.4371e-13 1.8099e-13 -1.22842e-13 0 0 -1.29427e-13 -3.66942e-14 2.59048e-14 5.59732e-14 0 0 -1.17559e-13 -4.87353e-14 8.56644e-14 6.67958e-14 0 0 -1.25124e-13 -8.06747e-14 2.0216e-13 2.65947e-14 0 0 -1.68431e-13 9.80604e-15 1.42139e-13 4.43342e-14 0 0 -1.41222e-13 -2.24475e-14 2.38212e-13 -5.27286e-15 0 0 -2.17738e-14 -1.08506e-13 2.56256e-13 2.83536e-14 0 0 -3.77277e-14 8.7621e-14 -2.11511e-14 1.38185e-13 0 0 1.06632e-15 8.76011e-14 2.07526e-14 5.4502e-14 0 0 8.31189e-14 -2.40078e-14 1.40175e-13 -6.42969e-14 0 0 7.6937e-15 6.29886e-14 6.44153e-14 -3.73362e-14 0 0 -3.65061e-14 9.3533e-14 9.24421e-14 -1.19518e-13 0 0 6.99486e-14 -4.58646e-14 1.68209e-13 -1.34978e-13 0 0 9.23856e-14 -1.03623e-13 1.3201e-13 3.49282e-14 0 0 3.81682e-15 1.63048e-14 -5.80076e-14 2.45995e-13 0 0 -7.36755e-15 -1.84097e-14 -8.94883e-14 3.72306e-13 0 0 -1.36915e-14 -1.79322e-13 1.19218e-13 8.81246e-14 0 0 7.8814e-14 -2.80372e-13 5.32745e-14 3.59573e-14 0 0 -5.45462e-15 8.73409e-14 -4.32083e-13 2.62818e-13 0 0 -1.00637e-13 2.95904e-13 -4.41972e-13 -3.17411e-14 0 0 -6.9912e-14 8.16745e-14 4.85452e-14 -5.45893e-13 0 0 3.41709e-14 -7.24535e-14 2.32996e-13 -7.53145e-13 0 0 1.99988e-13 -1.90809e-13 1.34627e-13 -5.7698e-13 0 0 1.47009e-13 -1.81011e-13 2.19336e-14 -3.41299e-13 0 0 7.11068e-14 -6.85222e-14 -1.66356e-13 -1.38251e-13 0 0 -5.53181e-14 2.68283e-13 -5.13185e-13 6.23939e-15 0 0 -1.35868e-13 3.20544e-13 -4.30524e-13 -1.69326e-13 0 0 1.5631e-13 -3.25234e-13 2.48825e-13 -5.06633e-13 0 0 2.03932e-13 -4.17492e-13 1.62827e-13 -2.62456e-13 0 0 1.67576e-13 -3.95938e-13 1.7893e-13 -2.53242e-13 0 0 3.38997e-13 -7.39279e-13 6.8391e-13 -6.2469e-13 0
				</DataArray>
				<DataArray Name="VitesseY" type="Float32" format="ascii">