<?xml version="1.0"?>
<VTKFile type="PolyData">
	<PolyData>
		<Piece NumberOfPoints="1206" NumberOfPolys="1000">
			<Points>
				<DataArray type="Float32" NumberOfComponents="3" format="ascii">
 0 0 0 0.02 0 0 0.04 0 0 0.06 0 0 0.08 0 0 0.1 0 0 0 0.005 0 0.02 0.005 0 0.04 0.005 0 0.06 0.005 0 0.08 0.005 0 0.1 0.005 0 0 0.01 0 0.02 0.01 0 0.04 0.01 0 0.06 0.01 0 0.08 0.01 0 0.1 0.01 0 0 0.015 0 0.02 0.015 0 0.04 0.015 0 0.06 0.015 0 0.08 0.015 0 0.1 0.015 0 0 0.02 0 0.02 0.02 0 0.04 0.02 0 0.06 0.02 0 0.08 0.02 0 0.1 0.02 0 0 0.025 0 0.02 0.025 0 0.04 0.025 0 0.06 0.025 0 0.08 0.025 0 0.1 0.025 0 0 0.03 0 0.02 0.03 0 0.04 0.03 0 0.06 0.03 0 0.08 0.03 0 0.1 0.03 0 0 0.035 0 0.02 0.035 0 0.04 0.035 0 0.06 0.035 0 0.08 0.035 0 0.1 0.035 0 0 0.04 0 0.02 0.04 0 0.04 0.04 0 0.06 0.04 0 0.08 0.04 0 0.1 0.04 0 0 0.045 0 0.02 0.045 0 0.04 0.045 0 0.06 0.045 0 0.08 0.045 0 0.1 0.045 0 0 0.05 0 0.02 0.05 0 0.04 0.05 0 0.06 0.05 0 0.08 0.05 0 0.1 0.05 0 0 0.055 0 0.02 0.055 0 0.04 0.055 0 0.06 0.055 0 0.08 0.055 0 0.1 0.055 0 0 0.06 0 0.02 0.06 0 0.04 0.06 0 0.06 0.06 0 0.08 0.06 0 0.1 0.06 0 0 0.065 0 0.02 0.065 0 0.04 0.065 0 0.06 0.065 0 0.08 0.065 0 0.1 0.065 0 0 0.07 0 0.02 0.07 0 0.04 0.07 0 0.06 0.07 0 0.08 0.07 0 0.1 0.07 0 0 0.075 0 0.02 0.075 0 0.04 0.075 0 0.06 0.075 0 0.08 0.075 0 0.1 0.075 0 0 0.08 0 0.02 0.08 0 0.04 0.08 0 0.06 0.08 0 0.08 0.08 0 0.1 0.08 0 0 0.085 0 0.02 0.085 0 0.04 0.085 0 0.06 0.085 0 0.08 0.085 0 0.1 0.085 0 0 0.09 0 0.02 0.09 0 0.04 0.09 0 0.06 0.09 0 0.08 0.09 0 0.1 0.09 0 0 0.095 0 0.02 0.095 0 0.04 0.095 0 0.06 0.095 0 0.08 0.095 0 0.1 0.095 0 0 0.1 0 0.02 0.1 0 0.04 0.1 0 0.06 0.1 0 0.08 0.1 0 0.1 0.1 0 0 0.105 0 0.02 0.105 0 0.04 0.105 0 0.06 0.105 0 0.08 0.105 0 0.1 0.105 0 0 0.11 0 0.02 0.11 0 0.04 0.11 0 0.06 0.11 0 0.08 0.11 0 0.1 0.11 0 0 0.115 0 0.02 0.115 0 0.04 0.115 0 0.06 0.115 0 0.08 0.115 0 0.1 0.115 0 0 0.12 0 0.02 0.12 0 0.04 0.12 0 0.06 0.12 0 0.08 0.12 0 0.1 0.12 0 0 0.125 0 0.02 0.125 0 0.04 0.125 0 0.06 0.125 0 0.08 0.125 0 0.1 0.125 0 0 0.13 0 0.02 0.13 0 0.04 0.13 0 0.06 0.13 0 0.08 0.13 0 0.1 0.13 0 0 0.135 0 0.02 0.135 0 0.04 0.135 0 0.06 0.135 0 0.08 0.135 0 0.1 0.135 0 0 0.14 0 0.02 0.14 0 0.04 0.14 0 0.06 0.14 0 0.08 0.14 0 0.1 0.14 0 0 0.145 0 0.02 0.145 0 0.04 0.145 0 0.06 0.145 0 0.08 0.145 0 0.1 0.145 0 0 0.15 0 0.02 0.15 0 0.04 0.15 0 0.06 0.15 0 0.08 0.15 0 0.1 0.15 0 0 0.155 0 0.02 0.155 0 0.04 0.155 0 0.06 0.155 0 0.08 0.155 0 0.1 0.155 0 0 0.16 0 0.02 0.16 0 0.04 0.16 0 0.06 0.16 0 0.08 0.16 0 0.1 0.16 0 0 0.165 0 0.02 0.165 0 0.04 0.165 0 0.06 0.165 0 0.08 0.165 0 0.1 0.165 0 0 0.17 0 0.02 0.17 0 0.04 0.17 0 0.06 0.17 0 0.08 0.17 0 0.1 0.17 0 0 0.175 0 0.02 0.175 0 0.04 0.175 0 0.06 0.175 0 0.08 0.175 0 0.1 0.175 0 0 0.18 0 0.02 0.18 0 0.04 0.18 0 0.06 0.18 0 0.08 0.18 0 0.1 0.18 0 0 0.185 0 0.02 0.185 0 0.04 0.185 0 0.06 0.185 0 0.08 0.185 0 0.1 0.185 0 0 0.19 0 0.02 0.19 0 0.04 0.19 0 0.06 0.19 0 0.08 0.19 0 0.1 0.19 0 0 0.195 0 0.02 0.195 0 0.04 0.195 0 0.06 0.195 0 0.08 0.195 0 0.1 0.195 0 0 0.2 0 0.02 0.2 0 0.04 0.2 0 0.06 0.2 0 0.08 0.2 0 0.1 0.2 0 0 0.205 0 0.02 0.205 0 0.04 0.205 0 0.06 0.205 0 0.08 0.205 0 0.1 0.205 0 0 0.21 0 0.02 0.21 0 0.04 0.21 0 0.06 0.21 0 0.08 0.21 0 0.1 0.21 0 0 0.215 0 0.02 0.215 0 0.04 0.215 0 0.06 0.215 0 0.08 0.215 0 0.1 0.215 0 0 0.22 0 0.02 0.22 0 0.04 0.22 0 0.06 0.22 0 0.08 0.22 0 0.1 0.22 0 0 0.225 0 0.02 0.225 0 0.04 0.225 0 0.06 0.225 0 0.08 0.225 0 0.1 0.225 0 0 0.23 0 0.02 0.23 0 0.04 0.23 0 0.06 0.23 0 0.08 0.23 0 0.1 0.23 0 0 0.235 0 0.02 0.235 0 0.04 0.235 0 0.06 0.235 0 0.08 0.235 0 0.1 0.235 0 0 0.24 0 0.02 0.24 0 0.04 0.24 0 0.06 0.24 0 0.08 0.24 0 0.1 0.24 0 0 0.245 0 0.02 0.245 0 0.04 0.245 0 0.06 0.245 0 0.08 0.245 0 0.1 0.245 0 0 0.25 0 0.02 0.25 0 0.04 0.25 0 0.06 0.25 0 0.08 0.25 0 0.1 0.25 0 0 0.255 0 0.02 0.255 0 0.04 0.255 0 0.06 0.255 0 0.08 0.255 0 0.1 0.255 0 0 0.26 0 0.02 0.26 0 0.04 0.26 0 0.06 0.26 0 0.08 0.26 0 0.1 0.26 0 0 0.265 0 0.02 0.265 0 0.04 0.265 0 0.06 0.265 0 0.08 0.265 0 0.1 0.265 0 0 0.27 0 0.02 0.27 0 0.04 0.27 0 0.06 0.27 0 0.08 0.27 0 0.1 0.27 0 0 0.275 0 0.02 0.275 0 0.04 0.275 0 0.06 0.275 0 0.08 0.275 0 0.1 0.275 0 0 0.28 0 0.02 0.28 0 0.04 0.28 0 0.06 0.28 0 0.08 0.28 0 0.1 0.28 0 0 0.285 0 0.02 0.285 0 0.04 0.285 0 0.06 0.285 0 0.08 0.285 0 0.1 0.285 0 0 0.29 0 0.02 0.29 0 0.04 0.29 0 0.06 0.29 0 0.08 0.29 0 0.1 0.29 0 0 0.295 0 0.02 0.295 0 0.04 0.295 0 0.06 0.295 0 0.08 0.295 0 0.1 0.295 0 0 0.3 0 0.02 0.3 0 0.04 0.3 0 0.06 0.3 0 0.08 0.3 0 0.1 0.3 0 0 0.305 0 0.02 0.305 0 0.04 0.305 0 0.06 0.305 0 0.08 0.305 0 0.1 0.305 0 0 0.31 0 0.02 0.31 0 0.04 0.31 0 0.06 0.31 0 0.08 0.31 0 0.1 0.31 0 0 0.315 0 0.02 0.315 0 0.04 0.315 0 0.06 0.315 0 0.08 0.315 0 0.1 0.315 0 0 0.32 0 0.02 0.32 0 0.04 0.32 0 0.06 0.32 0 0.08 0.32 0 0.1 0.32 0 0 0.325 0 0.02 0.325 0 0.04 0.325 0 0.06 0.325 0 0.08 0.325 0 0.1 0.325 0 0 0.33 0 0.02 0.33 0 0.04 0.33 0 0.06 0.33 0 0.08 0.33 0 0.1 0.33 0 0 0.335 0 0.02 0.335 0 0.04 0.335 0 0.06 0.335 0 0.08 0.335 0 0.1 0.335 0 0 0.34 0 0.02 0.34 0 0.04 0.34 0 0.06 0.34 0 0.08 0.34 0 0.1 0.34 0 0 0.345 0 0.02 0.345 0 0.04 0.345 0 0.06 0.345 0 0.08 0.345 0 0.1 0.345 0 0 0.35 0 0.02 0.35 0 0.04 0.35 0 0.06 0.35 0 0.08 0.35 0 0.1 0.35 0 0 0.355 0 0.02 0.355 0 0.04 0.355 0 0.06 0.355 0 0.08 0.355 0 0.1 0.355 0 0 0.36 0 0.02 0.36 0 0.04 0.36 0 0.06 0.36 0 0.08 0.36 0 0.1 0.36 0 0 0.365 0 0.02 0.365 0 0.04 0.365 0 0.06 0.365 0 0.08 0.365 0 0.1 0.365 0 0 0.37 0 0.02 0.37 0 0.04 0.37 0 0.06 0.37 0 0.08 0.37 0 0.1 0.37 0 0 0.375 0 0.02 0.375 0 0.04 0.375 0 0.06 0.375 0 0.08 0.375 0 0.1 0.375 0 0 0.38 0 0.02 0.38 0 0.04 0.38 0 0.06 0.38 0 0.08 0.38 0 0.1 0.38 0 0 0.385 0 0.02 0.385 0 0.04 0.385 0 0.06 0.385 0 0.08 0.385 0 0.1 0.385 0 0 0.39 0 0.02 0.39 0 0.04 0.39 0 0.06 0.39 0 0.08 0.39 0 0.1 0.39 0 0 0.395 0 0.02 0.395 0 0.04 0.395 0 0.06 0.395 0 0.08 0.395 0 0.1 0.395 0 0 0.4 0 0.02 0.4 0 0.04 0.4 0 0.06 0.4 0 0.08 0.4 0 0.1 0.4 0 0 0.405 0 0.02 0.405 0 0.04 0.405 0 0.06 0.405 0 0.08 0.405 0 0.1 0.405 0 0 0.41 0 0.02 0.41 0 0.04 0.41 0 0.06 0.41 0 0.08 0.41 0 0.1 0.41 0 0 0.415 0 0.02 0.415 0 0.04 0.415 0 0.06 0.415 0 0.08 0.415 0 0.1 0.415 0 0 0.42 0 0.02 0.42 0 0.04 0.42 0 0.06 0.42 0 0.08 0.42 0 0.1 0.42 0 0 0.425 0 0.02 0.425 0 0.04 0.425 0 0.06 0.425 0 0.08 0.425 0 0.1 0.425 0 0 0.43 0 0.02 0.43 0 0.04 0.43 0 0.06 0.43 0 0.08 0.43 0 0.1 0.43 0 0 0.435 0 0.02 0.435 0 0.04 0.435 0 0.06 0.435 0 0.08 0.435 0 0.1 0.435 0 0 0.44 0 0.02 0.44 0 0.04 0.44 0 0.06 0.44 0 0.08 0.44 0 0.1 0.44 0 0 0.445 0 0.02 0.445 0 0.04 0.445 0 0.06 0.445 0 0.08 0.445 0 0.1 0.445 0 0 0.45 0 0.02 0.45 0 0.04 0.45 0 0.06 0.45 0 0.08 0.45 0 0.1 0.45 0 0 0.455 0 0.02 0.455 0 0.04 0.455 0 0.06 0.455 0 0.08 0.455 0 0.1 0.455 0 0 0.46 0 0.02 0.46 0 0.04 0.46 0 0.06 0.46 0 0.08 0.46 0 0.1 0.46 0 0 0.465 0 0.02 0.465 0 0.04 0.465 0 0.06 0.465 0 0.08 0.465 0 0.1 0.465 0 0 0.47 0 0.02 0.47 0 0.04 0.47 0 0.06 0.47 0 0.08 0.47 0 0.1 0.47 0 0 0.475 0 0.02 0.475 0 0.04 0.475 0 0.06 0.475 0 0.08 0.475 0 0.1 0.475 0 0 0.48 0 0.02 0.48 0 0.04 0.48 0 0.06 0.48 0 0.08 0.48 0 0.1 0.48 0 0 0.485 0 0.02 0.485 0 0.04 0.485 0 0.06 0.485 0 0.08 0.485 0 0.1 0.485 0 0 0.49 0 0.02 0.49 0 0.04 0.49 0 0.06 0.49 0 0.08 0.49 0 0.1 0.49 0 0 0.495 0 0.02 0.495 0 0.04 0.495 0 0.06 0.495 0 0.08 0.495 0 0.1 0.495 0 0 0.5 0 0.02 0.5 0 0.04 0.5 0 0.06 0.5 0 0.08 0.5 0 0.1 0.5 0 0 0.505 0 0.02 0.505 0 0.04 0.505 0 0.06 0.505 0 0.08 0.505 0 0.1 0.505 0 0 0.51 0 0.02 0.51 0 0.04 0.51 0 0.06 0.51 0 0.08 0.51 0 0.1 0.51 0 0 0.515 0 0.02 0.515 0 0.04 0.515 0 0.06 0.515 0 0.08 0.515 0 0.1 0.515 0 0 0.52 0 0.02 0.52 0 0.04 0.52 0 0.06 0.52 0 0.08 0.52 0 0.1 0.52 0 0 0.525 0 0.02 0.525 0 0.04 0.525 0 0.06 0.525 0 0.08 0.525 0 0.1 0.525 0 0 0.53 0 0.02 0.53 0 0.04 0.53 0 0.06 0.53 0 0.08 0.53 0 0.1 0.53 0 0 0.535 0 0.02 0.535 0 0.04 0.535 0 0.06 0.535 0 0.08 0.535 0 0.1 0.535 0 0 0.54 0 0.02 0.54 0 0.04 0.54 0 0.06 0.54 0 0.08 0.54 0 0.1 0.54 0 0 0.545 0 0.02 0.545 0 0.04 0.545 0 0.06 0.545 0 0.08 0.545 0 0.1 0.545 0 0 0.55 0 0.02 0.55 0 0.04 0.55 0 0.06 0.55 0 0.08 0.55 0 0.1 0.55 0 0 0.555 0 0.02 0.555 0 0.04 0.555 0 0.06 0.555 0 0.08 0.555 0 0.1 0.555 0 0 0.56 0 0.02 0.56 0 0.04 0.56 0 0.06 0.56 0 0.08 0.56 0 0.1 0.56 0 0 0.565 0 0.02 0.565 0 0.04 0.565 0 0.06 0.565 0 0.08 0.565 0 0.1 0.565 0 0 0.57 0 0.02 0.57 0 0.04 0.57 0 0.06 0.57 0 0.08 0.57 0 0.1 0.57 0 0 0.575 0 0.02 0.575 0 0.04 0.575 0 0.06 0.575 0 0.08 0.575 0 0.1 0.575 0 0 0.58 0 0.02 0.58 0 0.04 0.58 0 0.06 0.58 0 0.08 0.58 0 0.1 0.58 0 0 0.585 0 0.02 0.585 0 0.04 0.585 0 0.06 0.585 0 0.08 0.585 0 0.1 0.585 0 0 0.59 0 0.02 0.59 0 0.04 0.59 0 0.06 0.59 0 0.08 0.59 0 0.1 0.59 0 0 0.595 0 0.02 0.595 0 0.04 0.595 0 0.06 0.595 0 0.08 0.595 0 0.1 0.595 0 0 0.6 0 0.02 0.6 0 0.04 0.6 0 0.06 0.6 0 0.08 0.6 0 0.1 0.6 0 0 0.605 0 0.02 0.605 0 0.04 0.605 0 0.06 0.605 0 0.08 0.605 0 0.1 0.605 0 0 0.61 0 0.02 0.61 0 0.04 0.61 0 0.06 0.61 0 0.08 0.61 0 0.1 0.61 0 0 0.615 0 0.02 0.615 0 0.04 0.615 0 0.06 0.615 0 0.08 0.615 0 0.1 0.615 0 0 0.62 0 0.02 0.62 0 0.04 0.62 0 0.06 0.62 0 0.08 0.62 0 0.1 0.62 0 0 0.625 0 0.02 0.625 0 0.04 0.625 0 0.06 0.625 0 0.08 0.625 0 0.1 0.625 0 0 0.63 0 0.02 0.63 0 0.04 0.63 0 0.06 0.63 0 0.08 0.63 0 0.1 0.63 0 0 0.635 0 0.02 0.635 0 0.04 0.635 0 0.06 0.635 0 0.08 0.635 0 0.1 0.635 0 0 0.64 0 0.02 0.64 0 0.04 0.64 0 0.06 0.64 0 0.08 0.64 0 0.1 0.64 0 0 0.645 0 0.02 0.645 0 0.04 0.645 0 0.06 0.645 0 0.08 0.645 0 0.1 0.645 0 0 0.65 0 0.02 0.65 0 0.04 0.65 0 0.06 0.65 0 0.08 0.65 0 0.1 0.65 0 0 0.655 0 0.02 0.655 0 0.04 0.655 0 0.06 0.655 0 0.08 0.655 0 0.1 0.655 0 0 0.66 0 0.02 0.66 0 0.04 0.66 0 0.06 0.66 0 0.08 0.66 0 0.1 0.66 0 0 0.665 0 0.02 0.665 0 0.04 0.665 0 0.06 0.665 0 0.08 0.665 0 0.1 0.665 0 0 0.67 0 0.02 0.67 0 0.04 0.67 0 0.06 0.67 0 0.08 0.67 0 0.1 0.67 0 0 0.675 0 0.02 0.675 0 0.04 0.675 0 0.06 0.675 0 0.08 0.675 0 0.1 0.675 0 0 0.68 0 0.02 0.68 0 0.04 0.68 0 0.06 0.68 0 0.08 0.68 0 0.1 0.68 0 0 0.685 0 0.02 0.685 0 0.04 0.685 0 0.06 0.685 0 0.08 0.685 0 0.1 0.685 0 0 0.69 0 0.02 0.69 0 0.04 0.69 0 0.06 0.69 0 0.08 0.69 0 0.1 
[...]
			<PointData Scalars="VitesseX">
				<DataArray Name="VitesseX" type="Float32" format="ascii">
 0 2.0315e-14 1.28247e-14 3.95875e-14 5.71601e-15 0 0 1.50693e-14 2.03651e-14 3.02115e-14 1.41317e-14 0 0 7.96516e-15 3.07211e-14 1.69708e-14 2.82701e-14 0 0 1.58061e-14 1.39994e-14 3.70181e-14 1.74293e-14 0 0 1.17343e-14 1.84531e-14 3.50516e-14 1.91124e-14 0 0 -2.59376e-15 4.02033e-14 1.28041e-14 3.33663e-14 0 0 -4.126e-16 2.42637e-14 2.78908e-14 2.71953e-14 0 0 1.3468e-15 1.22311e-14 3.63695e-14 1.96951e-14 0 0 9.01097e-16 7.0126e-15 3.74829e-14 1.40167e-14 0 0 -1.70822e-14 2.4264e-14 2.11854e-14 2.84826e-14 0 0 -1.26737e-14 9.12271e-15 4.06617e-14 1.81436e-14 0 0 -1.07493e-14 1.04981e-14 2.70771e-14 3.30215e-14 0 0 3.27921e-14 -4.25667e-14 5.92056e-14 2.22513e-14 0 0 3.86047e-14 -2.56851e-14 2.74803e-14 5.1084e-14 0 0 -2.48422e-15 4.76083e-14 -1.41765e-14 6.56985e-14 0 0 6.86894e-15 2.45437e-14 4.58102e-14 1.61718e-14 0 0 1.43417e-14 2.57003e-14 4.5454e-14 2.63998e-14 0 0 3.41645e-14 1.61119e-14 5.84299e-14 2.2932e-14 0 0 2.69922e-14 4.46552e-14 3.66183e-14 3.89815e-14 0 0 -4.24027e-15 1.06431e-13 -6.5752e-15 5.74639e-14 0 0 1.43655e-14 7.70936e-14 4.4227e-14 1.33293e-14 0 0 3.26183e-14 4.54646e-14 8.01103e-14 -2.91009e-14 0 0 -1.11665e-14 8.12303e-14 5.40385e-14 -2.90116e-14 0 0 -1.06429e-14 5.67331e-14 7.40271e-14 -4.10181e-14 0 0 4.40977e-14 -1.33108e-14 1.14683e-13 -5.92398e-14 0 0 4.35772e-14 -1.46512e-14 9.6482e-14 -3.50002e-14 0 0 -1.78785e-14 7.46112e-14 1.25128e-14 2.73048e-14 0 0 1.3587e-14 2.04895e-14 6.21401e-14 1.52932e-14 0 0 3.30939e-14 -1.87215e-14 7.61331e-14 3.4059e-14 0 0 1.48685e-14 -5.95756e-16 6.13161e-14 5.48476e-14 0 0 1.01221e-14 2.88812e-14 4.50945e-14 4.42701e-14 0 0 9.27191e-15 7.51927e-14 5.11771e-15 4.77401e-14 0 0 3.93271e-14 4.22645e-14 9.41497e-14 -6.00664e-14 0 0 4.5508e-15 1.11712e-13 6.60463e-14 -5.23534e-14 0 0 4.41205e-14 6.56913e-14 1.13179e-13 -1.39609e-14 0 0 3.71304e-14 6.45968e-14 1.53302e-13 -2.44669e-14 0 0 -5.85797e-15 1.42185e-13 7.65995e-14 3.78928e-14 0 0 8.70482e-14 3.81421e-14 1.23988e-13 7.20483e-14 0 0 1.18373e-13 -6.96858e-15 1.59498e-13 7.40778e-14 0 0 1.90374e-15 1.43685e-13 6.54642e-14 8.5052e-14 0 0 -6.10124e-14 1.83304e-13 7.47184e-14 5.1021e-14 0 0 -7.45153e-14 1.38437e-13 1.03319e-13 7.06341e-14 0 0 -1.16655e-13 1.75591e-13 5.89856e-14 8.84714e-14 0 0 -7.89188e-14 1.086e-13 1.36524e-13 -4.87782e-15 0 0 -4.62294e-14 5.48349e-14 1.85105e-13 -5.77179e-14 0 0 8.09609e-15 2.52746e-14 2.13097e-13 -1.13694e-13 0 0 1.8329e-14 5.99185e-14 2.06485e-13 -1.44245e-13 0 0 -7.68867e-14 2.0243e-13 7.58053e-14 -5.46304e-14 0 0 -9.15915e-14 2.28278e-13 1.50704e-14 1.31025e-14 0 0 -6.88195e-14 2.16225e-13 1.74775e-14 2.94926e-14 0 0 -2.0618e-14 1.33676e-13 1.60199e-13 -5.66055e-14 0 0 -8.97254e-15 7.62369e-14 2.59392e-13 -9.90622e-14 0 0 -1.95288e-13 3.43539e-13 1.63826e-16 8.93939e-14 0 0 -1.72814e-13 3.45709e-13 -5.8481e-14 2.03341e-13 0 0 1.26332e-14 7.83168e-14 1.32215e-13 1.48518e-13 0 0 -2.7789e-14 1.20503e-13 1.31709e-13 1.07955e-13 0 0 -3.37774e-14 1.49642e-13 9.60946e-14 1.28535e-13 0 0 5.19948e-14 4.02268e-14 1.89049e-13 5.61595e-14 0 0 1.83505e-14 9.82022e-14 1.92089e-13 -3.94605e-14 0 0 -3.48688e-14 1.68634e-13 1.85125e-13 -7.76163e-14 0 0 -1.65385e-14 1.87089e-13 1.64708e-13 -1.94118e-14 0 0 4.55968e-14 1.80184e-13 1.17828e-13 1.13635e-13 0 0 1.48181e-14 2.08445e-13 1.09556e-13 2.27253e-13 0 0 -5.83835e-15 1.98729e-13 2.01081e-13 2.21259e-13 0 0 2.94075e-15 2.15284e-13 2.4004e-13 1.76222e-13 0 0 -1.01618e-14 2.58132e-13 2.06087e-13 2.02697e-13 0 0 1.09963e-13 1.03633e-13 3.41939e-13 1.5644e-13 0 0 9.59876e-14 1.96208e-13 2.49989e-13 1.48273e-13 0 0 6.12151e-15 2.50278e-13 3.09729e-13 1.80872e-14 0 0 -8.62258e-14 2.92408e-13 3.43751e-13 2.28002e-14 0 0 -1.85521e-13 4.42583e-13 1.95483e-13 1.8958e-13 0 0 -1.37118e-13 2.5591e-13 4.88035e-13 3.34926e-14 0 0 -1.19798e-13 1.19205e-13 6.9582e-13 -6.38351e-14 0 0 -3.4262e-14 4.77264e-15 6.84078e-13 -2.47358e-14 0 0 -1.81868e-13 3.18653e-13 3.04733e-13 9.74727e-14 0 0 -2.91341e-13 4.88161e-13 2.60565e-13 -1.74099e-14 0 0 2.39804e-15 8.19754e-15 7.16911e-13 -2.05263e-13 0 0 -6.57559e-15 1.93266e-14 5.73213e-13 6.17365e-14 0 0 -1.34286e-13 2.44028e-13 4.61739e-13 9.34126e-14 0 0 -3.09125e-13 6.96807e-13 1.43314e-13 1.40536e-13 0 0 -4.78075e-14 4.5982e-13 2.74854e-13 1.62027e-14 0 0 3.90432e-13 -1.04299e-13 6.86189e-13 -2.43565e-13 0 0 3.45522e-13 1.12772e-13 3.09275e-13 9.82301e-14 0 0 2.69534e-13 3.96925e-13 -2.50855e-13 6.04545e-13 0 0 4.10694e-13 1.95383e-13 -4.5869e-14 4.66917e-13 0 0 5.21107e-13 -2.1688e-13 5.59398e-13 2.05536e-14 0 0 3.88792e-13 -1.74361e-13 7.0496e-13 -2.70176e-13 0 0 2.21979e-14 2.97071e-13 4.07996e-13 -1.43094e-13 0 0 -2.22508e-14 5.34087e-13 -4.72848e-15 1.0984e-13 0 0 1.69484e-13 4.43016e-13 -1.07508e-13 2.85789e-13 0 0 4.05404e-13 3.01324e-13 -1.01779e-13 3.53529e-13 0 0 5.35924e-13 1.91965e-13 -9.28388e-14 4.22762e-13 0 0 6.25423e-13 1.38856e-13 -8.59256e-14 5.07631e-13 0 0 6.24504e-13 1.61979e-13 -8.3209e-14 5.10159e-13 0 0 5.88024e-13 2.26177e-13 -3.35367e-14 4.38336e-13 0 0 5.11686e-13 2.8835e-13 1.10615e-13 2.52473e-13 0 0 4.16841e-13 3.59479e-13 2.31925e-13 9.25488e-14 0 0 3.3535e-13 4.29519e-13 2.59626e-13 5.44956e-14 0 0 2.78764e-13 4.61158e-13 2.62506e-13 7.93977e-14 0 0 2.20923e-13 4.96929e-13 2.28467e-13 1.26833e-13 0 0 1.41448e-13 5.66305e-13 2.31239e-13 1.27963e-13 0 0 9.06542e-14 5.98885e-13 2.6341e-13 9.77025e-14 0 0 7.52337e-14 6.03996e-13 3.26288e-13 8.69363e-15 0 0 7.41519e-14 5.99524e-13 4.15863e-13 -1.35157e-13 0 0 9.58136e-14 5.54839e-13 5.31382e-13 -2.81351e-13 0 0 1.39508e-13 5.21517e-13 5.46428e-13 -3.13256e-13 0 0 1.57683e-13 5.383e-13 5.15535e-13 -2.93611e-13 0 0 1.65984e-13 5.55597e-13 4.68615e-13 -2.40147e-13 0 0 1.57598e-13 5.4012e-13 4.82582e-13 -2.09096e-13 0 0 1.1666e-13 5.31763e-13 4.58374e-13 -1.24992e-13 0 0 6.07336e-14 5.0318e-13 4.64244e-13 -7.96456e-14 0 0 3.65735e-15 5.24783e-13 4.36757e-13 -5.98572e-14 0 0 -6.85665e-14 6.12342e-13 3.52012e-13 3.80954e-15 0 0 -1.01333e-13 6.66999e-13 2.87645e-13 7.32785e-14 0 0 -8.86081e-14 7.09598e-13 1.71372e-13 1.7774e-13 0 0 -4.96351e-14 7.1638e-13 7.23562e-14 2.4532e-13 0 0 -3.52852e-15 7.04126e-13 5.06299e-14 2.48975e-13 0 0 5.24736e-14 6.61605e-13 5.21263e-14 2.46369e-13 0 0 1.07753e-13 5.61303e-13 1.01222e-13 2.25774e-13 0 0 1.53538e-13 3.91715e-13 2.05941e-13 2.32933e-13 0 0 1.6579e-13 2.72774e-13 2.62086e-13 2.61362e-13 0 0 1.48715e-13 2.43714e-13 3.02516e-13 2.81442e-13 0 0 1.24358e-13 2.13036e-13 3.54093e-13 2.48996e-13 0 0 1.05429e-13 1.65671e-13 4.26061e-13 1.62725e-13 0 0 1.09701e-13 1.45896e-13 4.03632e-13 1.7643e-13 0 0 1.2177e-13 1.34012e-13 3.5752e-13 2.17513e-13 0 0 1.15567e-13 1.30978e-13 3.60151e-13 1.61895e-13 0 0 1.06909e-13 1.75638e-13 2.99583e-13 2.06417e-13 0 0 9.48867e-14 2.37977e-13 2.22706e-13 1.8749e-13 0 0 9.51819e-14 2.2771e-13 2.49465e-13 1.52316e-13 0 0 1.1468e-13 2.18686e-13 2.33523e-13 2.13443e-13 0 0 1.13015e-13 2.21088e-13 2.83996e-13 1.57746e-13 0 0 8.90666e-14 2.62514e-13 2.62779e-13 2.15464e-13 0 0 1.11529e-13 2.61976e-13 2.74917e-13 2.09895e-13 0 0 1.24656e-13 2.19414e-13 3.76033e-13 1.63117e-13 0 0 1.05777e-13 2.78251e-13 3.28686e-13 1.80834e-13 0 0 1.63695e-13 2.93243e-13 3.40019e-13 1.18262e-13 0 0 1.74353e-13 3.84784e-13 2.96924e-13 1.88959e-13 0 0 1.73785e-13 3.72265e-13 3.631e-13 2.47028e-13 0 0 2.19721e-13 3.22997e-13 4.99537e-13 1.86695e-13 0 0 2.51834e-13 3.80743e-13 4.55625e-13 2.02788e-13 0 0 1.99538e-13 4.62379e-13 4.28621e-13 2.15257e-13 0 0 1.83096e-13 5.07222e-13 3.89714e-13 2.33837e-13 0 0 1.87178e-13 5.01499e-13 3.75336e-13 2.20765e-13 0 0 1.66227e-13 4.87131e-13 4.78981e-13 1.36211e-13 0 0 2.8414e-13 2.85104e-13 6.72481e-13 8.95267e-14 0 0 1.84538e-13 4.73471e-13 4.21222e-13 2.82422e-13 0 0 1.26647e-13 5.5677e-13 3.44251e-13 3.06211e-13 0 0 2.21457e-13 4.04658e-13 4.9413e-13 2.46991e-13 0 0 1.6428e-13 5.31585e-13 3.80211e-13 3.34939e-13 0 0 2.70717e-13 3.66149e-13 5.80778e-13 2.48255e-13 0 0 2.07382e-13 4.66835e-13 4.92532e-13 3.60645e-13 0 0 1.30794e-13 6.0171e-13 3.81686e-13 4.68642e-13 0 0 2.27161e-13 4.76144e-13 5.72536e-13 3.55329e-13 0 0 2.2327e-13 5.29591e-13 6.24936e-13 2.47469e-13 0 0 2.8569e-13 4.98999e-13 6.55818e-13 3.09605e-13 0 0 2.98542e-13 6.39014e-13 4.3554e-13 5.39805e-13 0 0 3.59615e-13 7.27086e-13 3.46753e-13 5.00203e-13 0 0 5.20594e-13 5.81346e-13 5.11105e-13 3.56743e-13 0 0 6.73503e-13 3.99187e-13 7.7389e-13 1.31695e-13 0 0 5.67738e-13 5.95477e-13 6.21473e-13 1.83786e-13 0 0 4.08809e-13 9.36977e-13 2.30224e-13 4.7729e-13 0 0 3.80137e-13 9.91712e-13 2.70237e-13 4.06978e-13 0 0 4.53268e-13 7.77123e-13 5.76905e-13 1.37486e-13 0 0 6.14683e-13 5.47128e-13 6.8849e-13 1.27037e-13 0 0 5.80288e-13 6.55104e-13 5.09057e-13 2.75172e-13 0 0 5.91791e-13 6.55861e-13 5.41311e-13 1.75642e-13 0 0 6.42258e-13 5.79841e-13 6.11061e-13 1.22029e-13 0 0 3.69974e-13 9.8648e-13 2.89859e-13 2.7009e-13 0 0 3.6089e-13 9.10864e-13 4.24929e-13 1.26721e-13 0 0 6.37151e-13 4.69354e-13 7.77709e-13 -1.87503e-14 0 0 5.74077e-13 5.463e-13 6.80996e-13 1.25429e-13 0 0 4.05417e-13 6.29147e-13 7.05658e-13 1.18221e-13 0 0 2.77333e-13 8.09771e-13 4.70916e-13 3.33187e-13 0 0 3.18754e-13 7.70293e-13 3.99077e-13 4.92412e-13 0 0 4.13854e-13 6.38926e-13 5.22899e-13 3.87567e-13 0 0 5.95664e-13 3.89962e-13 7.30009e-13 1.95116e-13 0 0 5.93546e-13 3.19052e-13 8.10815e-13 1.43168e-13 0 0 3.67642e-13 6.57499e-13 4.5707e-13 3.55697e-13 0 0 3.25942e-13 8.05331e-13 2.93628e-13 3.78597e-13 0 0 3.81682e-13 7.56891e-13 4.13464e-13 2.0824e-13 0 0 4.78263e-13 5.65983e-13 6.31469e-13 2.94927e-15 0 0 6.51535e-13 3.08896e-13 9.38811e-13 -2.83033e-13 0 0 5.27232e-13 5.23866e-13 7.45245e-13 -2.13515e-13 0 0 3.85199e-13 7.14214e-13 4.36505e-13 2.92957e-14 0 0 3.79059e-13 7.15328e-13 2.89962e-13 2.22909e-13 0 0 4.40923e-13 5.98856e-13 4.74162e-13 1.02155e-13 0 0 3.9395e-13 5.29736e-13 6.01993e-13 1.9824e-13 0 0 3.3864e-14 9.17754e-13 1.09303e-13 7.39226e-13 0 0 -8.33162e-14 9.41783e-13 2.27018e-13 5.08598e-13 0 0 1.77685e-13 5.02673e-13 7.49892e-13 4.36892e-14 0 0 2.1275e-13 4.47977e-13 6.69336e-13 2.75699e-13 0 0 2.39719e-13 4.42324e-13 4.63295e-13 6.72883e-13 0 0 2.76426e-13 6.07337e-13 1.34525e-13 8.90216e-13 0 0 2.16771e-13 6.80826e-13 1.88017e-13 6.90019e-13 0 0 2.85467e-13 3.70333e-13 7.71409e-13 1.61161e-13 0 0 1.51018e-14 5.58283e-13 9.8541e-13 -2.10179e-13 0 0 -2.25093e-13 9.42594e-13 6.69112e-13 -7.73637e-14 0 0 -2.66026e-15 8.32265e-13 3.35389e-13 3.61026e-13 0 0 5.92087e-13 -1.09501e-13 1.20225e-12 -1.05186e-13 0 0 8.99192e-13 -6.69274e-13 1.93719e-12 -6.28864e-13 0
				</DataArray>
				<DataArray Name="VitesseY" type="Float32" format="ascii">