<?xml version="1.0"?>
<VTKFile type="PolyData">
	<PolyData>
		<Piece NumberOfPoints="1206" NumberOfPolys="1000">
			<Points>
				<DataArray type="Float32" NumberOfComponents="3" format="ascii">
 0 0 0 0.02 0 0 0.04 0 0 0.06 0 0 0.08 0 0 0.1 0 0 0 0.005 0 0.02 0.005 0 0.04 0.005 0 0.06 0.005 0 0.08 0.005 0 0.1 0.005 0 0 0.01 0 0.02 0.01 0 0.04 0.01 0 0.06 0.01 0 0.08 0.01 0 0.1 0.01 0 0 0.015 0 0.02 0.015 0 0.04 0.015 0 0.06 0.015 0 0.08 0.015 0 0.1 0.015 0 0 0.02 0 0.02 0.02 0 0.04 0.02 0 0.06 0.02 0 0.08 0.02 0 0.1 0.02 0 0 0.025 0 0.02 0.025 0 0.04 0.025 0 0.06 0.025 0 0.08 0.025 0 0.1 0.025 0 0 0.03 0 0.02 0.03 0 0.04 0.03 0 0.06 0.03 0 0.08 0.03 0 0.1 0.03 0 0 0.035 0 0.02 0.035 0 0.04 0.035 0 0.06 0.035 0 0.08 0.035 0 0.1 0.035 0 0 0.04 0 0.02 0.04 0 0.04 0.04 0 0.06 0.04 0 0.08 0.04 0 0.1 0.04 0 0 0.045 0 0.02 0.045 0 0.04 0.045 0 0.06 0.045 0 0.08 0.045 0 0.1 0.045 0 0 0.05 0 0.02 0.05 0 0.04 0.05 0 0.06 0.05 0 0.08 0.05 0 0.1 0.05 0 0 0.055 0 0.02 0.055 0 0.04 0.055 0 0.06 0.055 0 0.08 0.055 0 0.1 0.055 0 0 0.06 0 0.02 0.06 0 0.04 0.06 0 0.06 0.06 0 0.08 0.06 0 0.1 0.06 0 0 0.065 0 0.02 0.065 0 0.04 0.065 0 0.06 0.065 0 0.08 0.065 0 0.1 0.065 0 0 0.07 0 0.02 0.07 0 0.04 0.07 0 0.06 0.07 0 0.08 0.07 0 0.1 0.07 0 0 0.075 0 0.02 0.075 0 0.04 0.075 0 0.06 0.075 0 0.08 0.075 0 0.1 0.075 0 0 0.08 0 0.02 0.08 0 0.04 0.08 0 0.06 0.08 0 0.08 0.08 0 0.1 0.08 0 0 0.085 0 0.02 0.085 0 0.04 0.085 0 0.06 0.085 0 0.08 0.085 0 0.1 0.085 0 0 0.09 0 0.02 0.09 0 0.04 0.09 0 0.06 0.09 0 0.08 0.09 0 0.1 0.09 0 0 0.095 0 0.02 0.095 0 0.04 0.095 0 0.06 0.095 0 0.08 0.095 0 0.1 0.095 0 0 0.1 0 0.02 0.1 0 0.04 0.1 0 0.06 0.1 0 0.08 0.1 0 0.1 0.1 0 0 0.105 0 0.02 0.105 0 0.04 0.105 0 0.06 0.105 0 0.08 0.105 0 0.1 0.105 0 0 0.11 0 0.02 0.11 0 0.04 0.11 0 0.06 0.11 0 0.08 0.11 0 0.1 0.11 0 0 0.115 0 0.02 0.115 0 0.04 0.115 0 0.06 0.115 0 0.08 0.115 0 0.1 0.115 0 0 0.12 0 0.02 0.12 0 0.04 0.12 0 0.06 0.12 0 0.08 0.12 0 0.1 0.12 0 0 0.125 0 0.02 0.125 0 0.04 0.125 0 0.06 0.125 0 0.08 0.125 0 0.1 0.125 0 0 0.13 0 0.02 0.13 0 0.04 0.13 0 0.06 0.13 0 0.08 0.13 0 0.1 0.13 0 0 0.135 0 0.02 0.135 0 0.04 0.135 0 0.06 0.135 0 0.08 0.135 0 0.1 0.135 0 0 0.14 0 0.02 0.14 0 0.04 0.14 0 0.06 0.14 0 0.08 0.14 0 0.1 0.14 0 0 0.145 0 0.02 0.145 0 0.04 0.145 0 0.06 0.145 0 0.08 0.145 0 0.1 0.145 0 0 0.15 0 0.02 0.15 0 0.04 0.15 0 0.06 0.15 0 0.08 0.15 0 0.1 0.15 0 0 0.155 0 0.02 0.155 0 0.04 0.155 0 0.06 0.155 0 0.08 0.155 0 0.1 0.155 0 0 0.16 0 0.02 0.16 0 0.04 0.16 0 0.06 0.16 0 0.08 0.16 0 0.1 0.16 0 0 0.165 0 0.02 0.165 0 0.04 0.165 0 0.06 0.165 0 0.08 0.165 0 0.1 0.165 0 0 0.17 0 0.02 0.17 0 0.04 0.17 0 0.06 0.17 0 0.08 0.17 0 0.1 0.17 0 0 0.175 0 0.02 0.175 0 0.04 0.175 0 0.06 0.175 0 0.08 0.175 0 0.1 0.175 0 0 0.18 0 0.02 0.18 0 0.04 0.18 0 0.06 0.18 0 0.08 0.18 0 0.1 0.18 0 0 0.185 0 0.02 0.185 0 0.04 0.185 0 0.06 0.185 0 0.08 0.185 0 0.1 0.185 0 0 0.19 0 0.02 0.19 0 0.04 0.19 0 0.06 0.19 0 0.08 0.19 0 0.1 0.19 0 0 0.195 0 0.02 0.195 0 0.04 0.195 0 0.06 0.195 0 0.08 0.195 0 0.1 0.195 0 0 0.2 0 0.02 0.2 0 0.04 0.2 0 0.06 0.2 0 0.08 0.2 0 0.1 0.2 0 0 0.205 0 0.02 0.205 0 0.04 0.205 0 0.06 0.205 0 0.08 0.205 0 0.1 0.205 0 0 0.21 0 0.02 0.21 0 0.04 0.21 0 0.06 0.21 0 0.08 0.21 0 0.1 0.21 0 0 0.215 0 0.02 0.215 0 0.04 0.215 0 0.06 0.215 0 0.08 0.215 0 0.1 0.215 0 0 0.22 0 0.02 0.22 0 0.04 0.22 0 0.06 0.22 0 0.08 0.22 0 0.1 0.22 0 0 0.225 0 0.02 0.225 0 0.04 0.225 0 0.06 0.225 0 0.08 0.225 0 0.1 0.225 0 0 0.23 0 0.02 0.23 0 0.04 0.23 0 0.06 0.23 0 0.08 0.23 0 0.1 0.23 0 0 0.235 0 0.02 0.235 0 0.04 0.235 0 0.06 0.235 0 0.08 0.235 0 0.1 0.235 0 0 0.24 0 0.02 0.24 0 0.04 0.24 0 0.06 0.24 0 0.08 0.24 0 0.1 0.24 0 0 0.245 0 0.02 0.245 0 0.04 0.245 0 0.06 0.245 0 0.08 0.245 0 0.1 0.245 0 0 0.25 0 0.02 0.25 0 0.04 0.25 0 0.06 0.25 0 0.08 0.25 0 0.1 0.25 0 0 0.255 0 0.02 0.255 0 0.04 0.255 0 0.06 0.255 0 0.08 0.255 0 0.1 0.255 0 0 0.26 0 0.02 0.26 0 0.04 0.26 0 0.06 0.26 0 0.08 0.26 0 0.1 0.26 0 0 0.265 0 0.02 0.265 0 0.04 0.265 0 0.06 0.265 0 0.08 0.265 0 0.1 0.265 0 0 0.27 0 0.02 0.27 0 0.04 0.27 0 0.06 0.27 0 0.08 0.27 0 0.1 0.27 0 0 0.275 0 0.02 0.275 0 0.04 0.275 0 0.06 0.275 0 0.08 0.275 0 0.1 0.275 0 0 0.28 0 0.02 0.28 0 0.04 0.28 0 0.06 0.28 0 0.08 0.28 0 0.1 0.28 0 0 0.285 0 0.02 0.285 0 0.04 0.285 0 0.06 0.285 0 0.08 0.285 0 0.1 0.285 0 0 0.29 0 0.02 0.29 0 0.04 0.29 0 0.06 0.29 0 0.08 0.29 0 0.1 0.29 0 0 0.295 0 0.02 0.295 0 0.04 0.295 0 0.06 0.295 0 0.08 0.295 0 0.1 0.295 0 0 0.3 0 0.02 0.3 0 0.04 0.3 0 0.06 0.3 0 0.08 0.3 0 0.1 0.3 0 0 0.305 0 0.02 0.305 0 0.04 0.305 0 0.06 0.305 0 0.08 0.305 0 0.1 0.305 0 0 0.31 0 0.02 0.31 0 0.04 0.31 0 0.06 0.31 0 0.08 0.31 0 0.1 0.31 0 0 0.315 0 0.02 0.315 0 0.04 0.315 0 0.06 0.315 0 0.08 0.315 0 0.1 0.315 0 0 0.32 0 0.02 0.32 0 0.04 0.32 0 0.06 0.32 0 0.08 0.32 0 0.1 0.32 0 0 0.325 0 0.02 0.325 0 0.04 0.325 0 0.06 0.325 0 0.08 0.325 0 0.1 0.325 0 0 0.33 0 0.02 0.33 0 0.04 0.33 0 0.06 0.33 0 0.08 0.33 0 0.1 0.33 0 0 0.335 0 0.02 0.335 0 0.04 0.335 0 0.06 0.335 0 0.08 0.335 0 0.1 0.335 0 0 0.34 0 0.02 0.34 0 0.04 0.34 0 0.06 0.34 0 0.08 0.34 0 0.1 0.34 0 0 0.345 0 0.02 0.345 0 0.04 0.345 0 0.06 0.345 0 0.08 0.345 0 0.1 0.345 0 0 0.35 0 0.02 0.35 0 0.04 0.35 0 0.06 0.35 0 0.08 0.35 0 0.1 0.35 0 0 0.355 0 0.02 0.355 0 0.04 0.355 0 0.06 0.355 0 0.08 0.355 0 0.1 0.355 0 0 0.36 0 0.02 0.36 0 0.04 0.36 0 0.06 0.36 0 0.08 0.36 0 0.1 0.36 0 0 0.365 0 0.02 0.365 0 0.04 0.365 0 0.06 0.365 0 0.08 0.365 0 0.1 0.365 0 0 0.37 0 0.02 0.37 0 0.04 0.37 0 0.06 0.37 0 0.08 0.37 0 0.1 0.37 0 0 0.375 0 0.02 0.375 0 0.04 0.375 0 0.06 0.375 0 0.08 0.375 0 0.1 0.375 0 0 0.38 0 0.02 0.38 0 0.04 0.38 0 0.06 0.38 0 0.08 0.38 0 0.1 0.38 0 0 0.385 0 0.02 0.385 0 0.04 0.385 0 0.06 0.385 0 0.08 0.385 0 0.1 0.385 0 0 0.39 0 0.02 0.39 0 0.04 0.39 0 0.06 0.39 0 0.08 0.39 0 0.1 0.39 0 0 0.395 0 0.02 0.395 0 0.04 0.395 0 0.06 0.395 0 0.08 0.395 0 0.1 0.395 0 0 0.4 0 0.02 0.4 0 0.04 0.4 0 0.06 0.4 0 0.08 0.4 0 0.1 0.4 0 0 0.405 0 0.02 0.405 0 0.04 0.405 0 0.06 0.405 0 0.08 0.405 0 0.1 0.405 0 0 0.41 0 0.02 0.41 0 0.04 0.41 0 0.06 0.41 0 0.08 0.41 0 0.1 0.41 0 0 0.415 0 0.02 0.415 0 0.04 0.415 0 0.06 0.415 0 0.08 0.415 0 0.1 0.415 0 0 0.42 0 0.02 0.42 0 0.04 0.42 0 0.06 0.42 0 0.08 0.42 0 0.1 0.42 0 0 0.425 0 0.02 0.425 0 0.04 0.425 0 0.06 0.425 0 0.08 0.425 0 0.1 0.425 0 0 0.43 0 0.02 0.43 0 0.04 0.43 0 0.06 0.43 0 0.08 0.43 0 0.1 0.43 0 0 0.435 0 0.02 0.435 0 0.04 0.435 0 0.06 0.435 0 0.08 0.435 0 0.1 0.435 0 0 0.44 0 0.02 0.44 0 0.04 0.44 0 0.06 0.44 0 0.08 0.44 0 0.1 0.44 0 0 0.445 0 0.02 0.445 0 0.04 0.445 0 0.06 0.445 0 0.08 0.445 0 0.1 0.445 0 0 0.45 0 0.02 0.45 0 0.04 0.45 0 0.06 0.45 0 0.08 0.45 0 0.1 0.45 0 0 0.455 0 0.02 0.455 0 0.04 0.455 0 0.06 0.455 0 0.08 0.455 0 0.1 0.455 0 0 0.46 0 0.02 0.46 0 0.04 0.46 0 0.06 0.46 0 0.08 0.46 0 0.1 0.46 0 0 0.465 0 0.02 0.465 0 0.04 0.465 0 0.06 0.465 0 0.08 0.465 0 0.1 0.465 0 0 0.47 0 0.02 0.47 0 0.04 0.47 0 0.06 0.47 0 0.08 0.47 0 0.1 0.47 0 0 0.475 0 0.02 0.475 0 0.04 0.475 0 0.06 0.475 0 0.08 0.475 0 0.1 0.475 0 0 0.48 0 0.02 0.48 0 0.04 0.48 0 0.06 0.48 0 0.08 0.48 0 0.1 0.48 0 0 0.485 0 0.02 0.485 0 0.04 0.485 0 0.06 0.485 0 0.08 0.485 0 0.1 0.485 0 0 0.49 0 0.02 0.49 0 0.04 0.49 0 0.06 0.49 0 0.08 0.49 0 0.1 0.49 0 0 0.495 0 0.02 0.495 0 0.04 0.495 0 0.06 0.495 0 0.08 0.495 0 0.1 0.495 0 0 0.5 0 0.02 0.5 0 0.04 0.5 0 0.06 0.5 0 0.08 0.5 0 0.1 0.5 0 0 0.505 0 0.02 0.505 0 0.04 0.505 0 0.06 0.505 0 0.08 0.505 0 0.1 0.505 0 0 0.51 0 0.02 0.51 0 0.04 0.51 0 0.06 0.51 0 0.08 0.51 0 0.1 0.51 0 0 0.515 0 0.02 0.515 0 0.04 0.515 0 0.06 0.515 0 0.08 0.515 0 0.1 0.515 0 0 0.52 0 0.02 0.52 0 0.04 0.52 0 0.06 0.52 0 0.08 0.52 0 0.1 0.52 0 0 0.525 0 0.02 0.525 0 0.04 0.525 0 0.06 0.525 0 0.08 0.525 0 0.1 0.525 0 0 0.53 0 0.02 0.53 0 0.04 0.53 0 0.06 0.53 0 0.08 0.53 0 0.1 0.53 0 0 0.535 0 0.02 0.535 0 0.04 0.535 0 0.06 0.535 0 0.08 0.535 0 0.1 0.535 0 0 0.54 0 0.02 0.54 0 0.04 0.54 0 0.06 0.54 0 0.08 0.54 0 0.1 0.54 0 0 0.545 0 0.02 0.545 0 0.04 0.545 0 0.06 0.545 0 0.08 0.545 0 0.1 0.545 0 0 0.55 0 0.02 0.55 0 0.04 0.55 0 0.06 0.55 0 0.08 0.55 0 0.1 0.55 0 0 0.555 0 0.02 0.555 0 0.04 0.555 0 0.06 0.555 0 0.08 0.555 0 0.1 0.555 0 0 0.56 0 0.02 0.56 0 0.04 0.56 0 0.06 0.56 0 0.08 0.56 0 0.1 0.56 0 0 0.565 0 0.02 0.565 0 0.04 0.565 0 0.06 0.565 0 0.08 0.565 0 0.1 0.565 0 0 0.57 0 0.02 0.57 0 0.04 0.57 0 0.06 0.57 0 0.08 0.57 0 0.1 0.57 0 0 0.575 0 0.02 0.575 0 0.04 0.575 0 0.06 0.575 0 0.08 0.575 0 0.1 0.575 0 0 0.58 0 0.02 0.58 0 0.04 0.58 0 0.06 0.58 0 0.08 0.58 0 0.1 0.58 0 0 0.585 0 0.02 0.585 0 0.04 0.585 0 0.06 0.585 0 0.08 0.585 0 0.1 0.585 0 0 0.59 0 0.02 0.59 0 0.04 0.59 0 0.06 0.59 0 0.08 0.59 0 0.1 0.59 0 0 0.595 0 0.02 0.595 0 0.04 0.595 0 0.06 0.595 0 0.08 0.595 0 0.1 0.595 0 0 0.6 0 0.02 0.6 0 0.04 0.6 0 0.06 0.6 0 0.08 0.6 0 0.1 0.6 0 0 0.605 0 0.02 0.605 0 0.04 0.605 0 0.06 0.605 0 0.08 0.605 0 0.1 0.605 0 0 0.61 0 0.02 0.61 0 0.04 0.61 0 0.06 0.61 0 0.08 0.61 0 0.1 0.61 0 0 0.615 0 0.02 0.615 0 0.04 0.615 0 0.06 0.615 0 0.08 0.615 0 0.1 0.615 0 0 0.62 0 0.02 0.62 0 0.04 0.62 0 0.06 0.62 0 0.08 0.62 0 0.1 0.62 0 0 0.625 0 0.02 0.625 0 0.04 0.625 0 0.06 0.625 0 0.08 0.625 0 0.1 0.625 0 0 0.63 0 0.02 0.63 0 0.04 0.63 0 0.06 0.63 0 0.08 0.63 0 0.1 0.63 0 0 0.635 0 0.02 0.635 0 0.04 0.635 0 0.06 0.635 0 0.08 0.635 0 0.1 0.635 0 0 0.64 0 0.02 0.64 0 0.04 0.64 0 0.06 0.64 0 0.08 0.64 0 0.1 0.64 0 0 0.645 0 0.02 0.645 0 0.04 0.645 0 0.06 0.645 0 0.08 0.645 0 0.1 0.645 0 0 0.65 0 0.02 0.65 0 0.04 0.65 0 0.06 0.65 0 0.08 0.65 0 0.1 0.65 0 0 0.655 0 0.02 0.655 0 0.04 0.655 0 0.06 0.655 0 0.08 0.655 0 0.1 0.655 0 0 0.66 0 0.02 0.66 0 0.04 0.66 0 0.06 0.66 0 0.08 0.66 0 0.1 0.66 0 0 0.665 0 0.02 0.665 0 0.04 0.665 0 0.06 0.665 0 0.08 0.665 0 0.1 0.665 0 0 0.67 0 0.02 0.67 0 0.04 0.67 0 0.06 0.67 0 0.08 0.67 0 0.1 0.67 0 0 0.675 0 0.02 0.675 0 0.04 0.675 0 0.06 0.675 0 0.08 0.675 0 0.1 0.675 0 0 0.68 0 0.02 0.68 0 0.04 0.68 0 0.06 0.68 0 0.08 0.68 0 0.1 0.68 0 0 0.685 0 0.02 0.685 0 0.04 0.685 0 0.06 0.685 0 0.08 0.685 0 0.1 0.685 0 0 0.69 0 0.02 0.69 0 0.04 0.69 0 0.06 0.69 0 0.08 0.69 0 0.1 
[...]
			<PointData Scalars="VitesseX">
				<DataArray Name="VitesseX" type="Float32" format="ascii">
 0 1.59186e-14 5.43017e-14 3.0512e-14 2.45679e-14 0 0 2.11996e-14 4.26494e-14 4.08937e-14 1.44982e-14 0 0 2.34936e-14 3.20431e-14 4.59664e-14 6.14353e-15 0 0 2.32287e-14 3.34236e-14 2.65043e-14 1.72788e-14 0 0 3.76162e-14 1.65837e-14 2.14854e-14 1.7716e-14 0 0 3.95107e-14 1.34598e-14 1.35978e-14 1.07307e-14 0 0 1.98585e-14 3.36484e-14 -4.3267e-15 1.11912e-14 0 0 1.59702e-14 2.98839e-14 1.64042e-15 9.55045e-15 0 0 2.23313e-14 2.99055e-14 -1.18376e-14 2.87736e-14 0 0 3.73979e-14 1.95392e-14 -1.47341e-16 2.04232e-14 0 0 2.33457e-14 4.1311e-14 -7.92229e-15 1.82666e-14 0 0 9.8078e-15 5.11003e-14 1.23877e-15 6.08764e-16 0 0 -1.48658e-14 6.52012e-14 2.19658e-14 -2.71109e-14 0 0 -1.50932e-14 5.06158e-14 4.1522e-14 -2.75745e-14 0 0 1.13987e-14 2.24034e-14 4.58282e-14 -1.41472e-14 0 0 -1.1082e-15 5.80464e-14 -5.16431e-15 3.05389e-14 0 0 2.14024e-14 1.49692e-14 5.42241e-14 -3.53657e-15 0 0 3.52529e-14 9.97959e-15 5.62158e-14 6.52655e-15 0 0 1.98861e-14 5.91083e-14 -2.77677e-14 1.09901e-13 0 0 2.83743e-14 3.9343e-14 2.25823e-15 1.13885e-13 0 0 3.27318e-14 3.56158e-14 3.97237e-14 7.14588e-14 0 0 1.77327e-14 7.67113e-14 1.44152e-14 7.98071e-14 0 0 7.9404e-14 2.32202e-15 9.35039e-14 3.78228e-14 0 0 1.14758e-13 -3.15438e-14 1.409e-13 -2.49604e-15 0 0 1.91284e-14 1.32682e-13 9.54218e-15 4.11575e-14 0 0 -3.83892e-14 2.33499e-13 -8.00999e-14 7.52172e-14 0 0 6.10231e-14 8.79094e-14 4.33362e-14 -1.70255e-14 0 0 9.12242e-14 5.94892e-14 3.97673e-14 -3.23437e-14 0 0 6.0285e-14 1.06018e-13 5.16973e-15 -3.07286e-14 0 0 6.91708e-14 4.88453e-14 1.08807e-13 -1.02427e-13 0 0 7.37562e-14 2.30238e-14 1.25299e-13 -9.23148e-14 0 0 5.04488e-14 5.78983e-14 6.64782e-14 -3.61994e-14 0 0 2.69362e-14 7.4473e-14 2.74953e-14 1.9924e-14 0 0 9.73711e-14 -4.13685e-14 1.38014e-13 -2.82053e-14 0 0 1.90257e-14 1.27933e-13 -3.90666e-14 8.50002e-14 0 0 -1.14134e-15 1.77453e-13 -1.06208e-13 1.49311e-13 0 0 5.21934e-14 3.56936e-14 7.16922e-14 7.45717e-14 0 0 2.85881e-14 7.11778e-14 4.50327e-14 7.71781e-14 0 0 6.01501e-14 7.10593e-14 5.40115e-14 2.83189e-14 0 0 7.35573e-14 7.50254e-14 6.94959e-14 9.81867e-15 0 0 1.06111e-13 4.74012e-14 7.51656e-14 1.02602e-14 0 0 1.06977e-13 6.42867e-14 7.44651e-14 -1.22357e-14 0 0 9.90207e-14 7.53941e-14 7.97124e-14 -3.20581e-14 0 0 5.99566e-14 1.24418e-13 1.20406e-15 5.74196e-14 0 0 -3.41446e-15 1.71089e-13 1.77315e-14 4.83825e-14 0 0 -3.05577e-14 1.36634e-13 1.38892e-13 -5.21234e-14 0 0 7.43749e-15 6.1805e-14 1.49258e-13 -6.00572e-15 0 0 6.32372e-14 -4.35297e-14 2.21225e-13 -8.67934e-15 0 0 4.25897e-14 -2.02992e-14 2.27199e-13 -1.77139e-14 0 0 -5.87594e-14 1.52231e-13 7.12388e-14 7.36169e-14 0 0 -1.28975e-13 2.60165e-13 -4.47455e-14 1.63838e-13 0 0 -3.80718e-14 1.54934e-13 -3.467e-14 2.14898e-13 0 0 1.84521e-13 -1.93864e-13 3.00918e-13 2.03618e-14 0 0 1.48739e-13 -1.31124e-13 2.98916e-13 -3.67209e-14 0 0 -1.25876e-13 3.14481e-13 -9.41858e-14 1.61596e-13 0 0 -1.5793e-13 2.97316e-13 -1.04015e-14 1.09106e-13 0 0 -2.97126e-14 9.20252e-14 1.84426e-13 4.46408e-14 0 0 2.08511e-14 5.51206e-14 1.8959e-13 8.9867e-14 0 0 -8.35506e-15 1.28422e-13 1.06928e-13 1.49359e-13 0 0 -4.09554e-14 2.33845e-13 -4.17615e-14 2.71692e-13 0 0 -1.25202e-14 2.01056e-13 -9.36506e-15 2.1422e-13 0 0 8.86306e-14 9.53925e-14 1.33646e-13 -8.53959e-15 0 0 1.15316e-13 1.26286e-13 6.96795e-14 -5.04487e-14 0 0 7.34456e-14 2.08441e-13 -6.16596e-14 3.4913e-14 0 0 1.21722e-13 1.73263e-13 -4.36824e-14 5.34003e-14 0 0 1.91307e-13 9.31406e-14 9.25724e-15 9.39062e-14 0 0 9.73682e-14 1.67237e-13 3.5474e-14 1.30058e-13 0 0 8.08968e-14 1.62753e-13 9.51991e-14 1.43252e-13 0 0 2.89719e-14 2.44633e-13 -2.04268e-14 3.28471e-13 0 0 7.5684e-14 1.55133e-13 9.5555e-14 3.37638e-13 0 0 2.02374e-13 -2.4808e-14 3.54317e-13 1.53014e-13 0 0 7.10577e-14 2.32677e-13 1.53744e-13 2.04513e-13 0 0 -8.16751e-14 4.69047e-13 -7.33919e-14 3.33322e-13 0 0 -1.36872e-13 5.15193e-13 -1.00073e-13 4.27402e-13 0 0 1.23885e-14 1.88134e-13 3.06108e-13 2.5073e-13 0 0 9.67185e-14 4.4464e-15 5.47191e-13 1.87376e-13 0 0 -8.3084e-14 3.5076e-13 1.2676e-13 5.70137e-13 0 0 -2.05604e-13 5.20745e-13 2.71156e-14 5.70849e-13 0 0 -8.5858e-14 4.22598e-13 2.19524e-13 2.75385e-13 0 0 2.35286e-13 6.8859e-14 4.51922e-13 1.69502e-13 0 0 2.65769e-14 3.54182e-13 1.27747e-13 5.15846e-13 0 0 -1.94982e-13 5.63392e-13 2.47587e-13 3.34593e-13 0 0 2.65357e-13 -1.19609e-14 1.08989e-12 -3.86491e-13 0 0 1.946e-13 5.367e-13 5.38716e-13 -1.78444e-13 0 0 -8.58227e-14 1.46308e-12 -5.67958e-13 4.5652e-13 0 0 3.26984e-13 1.0421e-12 -3.9904e-13 4.21674e-13 0 0 9.73973e-13 2.0436e-13 4.32322e-13 -1.24871e-13 0 0 8.38702e-13 2.78033e-13 6.9603e-13 -4.96955e-13 0 0 4.16312e-13 7.22212e-13 5.11239e-13 -3.89843e-13 0 0 1.51186e-13 1.10626e-12 1.95874e-13 -1.66803e-13 0 0 6.5731e-15 1.23059e-12 6.95487e-14 -4.63791e-14 0 0 5.88756e-14 1.1346e-12 1.74755e-13 -1.19437e-13 0 0 2.61334e-13 7.69072e-13 4.14475e-13 -1.49373e-13 0 0 6.61074e-13 2.15732e-13 5.10397e-13 5.13245e-14 0 0 7.8791e-13 8.69996e-14 4.64979e-13 3.00191e-13 0 0 7.26968e-13 1.72976e-13 3.31162e-13 3.60037e-13 0 0 5.33814e-13 3.76518e-13 2.24284e-13 3.35466e-13 0 0 2.93426e-13 5.26644e-13 1.35402e-13 2.37371e-13 0 0 2.18068e-13 5.40196e-13 1.15359e-13 1.45481e-13 0 0 2.56078e-13 4.53063e-13 1.41966e-13 1.28773e-13 0 0 3.79999e-13 2.77525e-13 2.0106e-13 1.91398e-13 0 0 4.62259e-13 1.36088e-13 2.38727e-13 2.70444e-13 0 0 4.43273e-13 8.52215e-14 2.72741e-13 2.71561e-13 0 0 3.1715e-13 8.73088e-14 3.22877e-13 2.42974e-13 0 0 1.16104e-13 1.11253e-13 3.99569e-13 1.75853e-13 0 0 -1.46039e-14 1.19904e-13 4.91349e-13 8.25875e-14 0 0 -4.13625e-14 8.06574e-14 5.87306e-13 -2.65337e-14 0 0 3.03491e-15 -2.88063e-14 6.65144e-13 -2.87228e-14 0 0 1.10564e-13 -9.77205e-14 6.46433e-13 1.47842e-14 0 0 1.89831e-13 -1.00698e-13 5.69086e-13 1.18757e-13 0 0 2.13945e-13 -8.53731e-14 4.50643e-13 2.69461e-13 0 0 2.022e-13 -4.38072e-14 3.18406e-13 4.31613e-13 0 0 1.55074e-13 2.38258e-14 2.35469e-13 5.18291e-13 0 0 8.41876e-14 8.22352e-14 2.27372e-13 5.28148e-13 0 0 -3.19118e-15 1.17046e-13 2.79115e-13 4.80774e-13 0 0 -1.94069e-14 8.98333e-14 4.14046e-13 3.30885e-13 0 0 -3.63238e-14 1.05424e-13 4.31601e-13 2.81197e-13 0 0 -4.70263e-14 1.56457e-13 3.69683e-13 2.78291e-13 0 0 -8.81272e-15 1.34256e-13 3.76549e-13 2.28455e-13 0 0 4.72897e-14 1.44966e-13 3.43323e-13 1.38844e-13 0 0 5.94141e-14 2.22553e-13 2.00736e-13 1.40292e-13 0 0 7.68046e-14 2.31465e-13 1.48636e-13 1.35001e-13 0 0 1.12978e-13 1.95637e-13 1.64921e-13 7.61241e-14 0 0 1.28298e-13 2.10578e-13 1.03397e-13 7.55664e-14 0 0 1.20474e-13 2.07781e-13 7.67142e-14 6.98524e-14 0 0 8.70917e-14 1.75562e-13 1.4756e-13 -2.29521e-14 0 0 6.42468e-14 1.77935e-13 1.59434e-13 -4.77246e-14 0 0 6.60928e-14 1.86374e-13 1.22144e-13 -1.86736e-15 0 0 5.25126e-14 1.52101e-13 1.86526e-13 5.65352e-14 0 0 5.73694e-14 1.44373e-13 2.84647e-13 1.04569e-13 0 0 8.08792e-14 1.93759e-13 3.28486e-13 3.04086e-14 0 0 1.02221e-13 3.06738e-13 2.35518e-13 1.54104e-13 0 0 9.40789e-14 4.49273e-13 1.15092e-13 3.14556e-13 0 0 1.91277e-13 3.3418e-13 3.69101e-13 1.15691e-13 0 0 2.21135e-13 3.52006e-13 4.27189e-13 9.20104e-14 0 0 2.55744e-13 3.93238e-13 3.97774e-13 1.24689e-13 0 0 3.35015e-13 3.65409e-13 3.78284e-13 2.4479e-13 0 0 2.73025e-13 5.13951e-13 2.52798e-13 3.60165e-13 0 0 3.82838e-13 3.94414e-13 3.98255e-13 2.20475e-13 0 0 4.1382e-13 4.06951e-13 3.52737e-13 2.60246e-13 0 0 3.69173e-13 5.19815e-13 2.41151e-13 3.37545e-13 0 0 4.9518e-13 3.36882e-13 4.40815e-13 2.16381e-13 0 0 3.6105e-13 5.802e-13 1.84842e-13 3.29421e-13 0 0 3.16284e-13 6.57972e-13 6.73633e-14 3.45867e-13 0 0 5.19585e-13 3.2705e-13 2.93267e-13 2.94604e-13 0 0 4.21252e-13 5.21142e-13 -3.45939e-14 5.48881e-13 0 0 4.68247e-13 4.11654e-13 9.63672e-14 4.24916e-13 0 0 4.33409e-13 4.36224e-13 9.25293e-14 4.24639e-13 0 0 3.41123e-13 5.67979e-13 -5.93475e-14 5.01894e-13 0 0 5.10753e-13 2.18061e-13 2.96508e-13 3.26857e-13 0 0 3.0145e-13 5.77132e-13 -1.44436e-13 6.07641e-13 0 0 3.49128e-13 4.94913e-13 -2.56958e-14 4.20615e-13 0 0 3.89931e-13 4.3711e-13 1.33964e-13 1.45234e-13 0 0 3.53747e-13 5.85686e-13 9.21966e-15 1.2119e-13 0 0 5.05847e-13 4.30612e-13 1.67137e-13 -1.82638e-14 0 0 4.91533e-13 4.87419e-13 7.77797e-14 8.98787e-14 0 0 3.78465e-13 5.02289e-13 3.00392e-13 -9.40228e-14 0 0 1.69417e-13 6.77379e-13 3.79147e-13 -9.82549e-14 0 0 2.19566e-13 6.22127e-13 4.66209e-13 3.74234e-14 0 0 3.18734e-13 5.99153e-13 3.84633e-13 2.86908e-13 0 0 5.08892e-13 3.88262e-13 4.93216e-13 4.46046e-13 0 0 4.99191e-13 4.19238e-13 4.30117e-13 4.99296e-13 0 0 3.37965e-13 6.10354e-13 2.56638e-13 5.49792e-13 0 0 3.76434e-13 3.88807e-13 6.96989e-13 1.11099e-13 0 0 2.61863e-13 5.05826e-13 6.30638e-13 1.06621e-13 0 0 2.32708e-14 8.25811e-13 3.5192e-13 2.44541e-13 0 0 1.08194e-13 5.68846e-13 6.90119e-13 -4.19404e-14 0 0 2.31245e-13 4.76187e-13 5.67479e-13 2.31693e-13 0 0 4.9694e-13 1.26419e-13 7.31745e-13 3.26166e-13 0 0 3.92509e-13 2.13379e-14 9.06836e-13 2.52429e-13 0 0 8.23243e-14 4.35776e-13 5.35377e-13 3.95393e-13 0 0 3.25615e-13 1.12267e-13 8.52634e-13 8.43088e-14 0 0 1.96394e-13 3.74725e-13 5.24472e-13 2.71781e-13 0 0 2.95446e-13 3.27795e-13 5.66693e-13 1.49188e-13 0 0 3.32161e-13 1.97516e-13 6.80242e-13 8.94148e-14 0 0 2.59106e-13 3.22719e-13 3.94263e-13 4.34589e-13 0 0 3.65599e-13 2.89947e-13 3.9328e-13 3.8472e-13 0 0 2.06912e-13 5.3427e-13 2.03423e-13 3.86482e-13 0 0 2.83331e-13 3.12747e-13 4.89514e-13 2.12234e-13 0 0 1.82377e-13 4.64095e-13 3.43723e-13 3.34489e-13 0 0 1.09755e-13 6.48794e-13 4.12814e-14 5.4203e-13 0 0 3.73426e-13 3.44328e-13 2.94933e-13 2.61578e-13 0 0 2.76888e-13 5.45063e-13 1.58684e-13 1.30071e-13 0 0 2.29705e-13 4.8992e-13 3.88518e-13 -1.82748e-13 0 0 2.23553e-13 4.50964e-13 5.15672e-13 -3.34633e-13 0 0 3.27546e-13 4.54247e-13 2.542e-13 -1.44587e-14 0 0 4.73915e-13 3.62291e-13 1.82833e-13 1.07861e-13 0 0 2.26628e-13 7.52075e-13 -2.20152e-13 3.80382e-13 0 0 4.06336e-13 2.52059e-13 2.81173e-13 2.47938e-13 0 0 4.151e-13 3.00329e-13 1.39726e-13 3.46648e-13 0 0 4.5814e-13 5.06628e-13 -1.74052e-13 4.79823e-13 0 0 1.02726e-12 -3.92988e-13 6.18713e-13 9.10438e-14 0 0 6.23309e-13 1.13783e-13 1.88707e-13 3.1306e-13 0 0 2.82723e-13 5.68544e-13 -1.11158e-13 4.50943e-13 0 0 5.78439e-13 2.46912e-13 9.95208e-14 4.57081e-13 0 0 6.79629e-13 3.10493e-13 -1.64739e-13 7.58967e-13 0 0 8.55901e-13 6.75462e-15 -1.80348e-14 8.42534e-13 0 0 5.90146e-13 2.23093e-13 -5.84476e-14 9.09625e-13 0 0 4.87795e-13 4.05163e-13 -3.8462e-14 7.69209e-13 0 0 6.95449e-13 1.61527e-13 6.3937e-14 6.14404e-13 0 0 6.48845e-13 2.08044e-13 -1.16218e-13 7.0931e-13 0
				</DataArray>
				<DataArray Name="VitesseY" type="Float32" format="ascii">