<?xml version="1.0"?>
<VTKFile type="PolyData">
	<PolyData>
		<Piece NumberOfPoints="1206" NumberOfPolys="1000">
			<Points>
				<DataArray type="Float32" NumberOfComponents="3" format="ascii">
 0 0 0 0.02 0 0 0.04 0 0 0.06 0 0 0.08 0 0 0.1 0 0 0 0.005 0 0.02 0.005 0 0.04 0.005 0 0.06 0.005 0 0.08 0.005 0 0.1 0.005 0 0 0.01 0 0.02 0.01 0 0.04 0.01 0 0.06 0.01 0 0.08 0.01 0 0.1 0.01 0 0 0.015 0 0.02 0.015 0 0.04 0.015 0 0.06 0.015 0 0.08 0.015 0 0.1 0.015 0 0 0.02 0 0.02 0.02 0 0.04 0.02 0 0.06 0.02 0 0.08 0.02 0 0.1 0.02 0 0 0.025 0 0.02 0.025 0 0.04 0.025 0 0.06 0.025 0 0.08 0.025 0 0.1 0.025 0 0 0.03 0 0.02 0.03 0 0.04 0.03 0 0.06 0.03 0 0.08 0.03 0 0.1 0.03 0 0 0.035 0 0.02 0.035 0 0.04 0.035 0 0.06 0.035 0 0.08 0.035 0 0.1 0.035 0 0 0.04 0 0.02 0.04 0 0.04 0.04 0 0.06 0.04 0 0.08 0.04 0 0.1 0.04 0 0 0.045 0 0.02 0.045 0 0.04 0.045 0 0.06 0.045 0 0.08 0.045 0 0.1 0.045 0 0 0.05 0 0.02 0.05 0 0.04 0.05 0 0.06 0.05 0 0.08 0.05 0 0.1 0.05 0 0 0.055 0 0.02 0.055 0 0.04 0.055 0 0.06 0.055 0 0.08 0.055 0 0.1 0.055 0 0 0.06 0 0.02 0.06 0 0.04 0.06 0 0.06 0.06 0 0.08 0.06 0 0.1 0.06 0 0 0.065 0 0.02 0.065 0 0.04 0.065 0 0.06 0.065 0 0.08 0.065 0 0.1 0.065 0 0 0.07 0 0.02 0.07 0 0.04 0.07 0 0.06 0.07 0 0.08 0.07 0 0.1 0.07 0 0 0.075 0 0.02 0.075 0 0.04 0.075 0 0.06 0.075 0 0.08 0.075 0 0.1 0.075 0 0 0.08 0 0.02 0.08 0 0.04 0.08 0 0.06 0.08 0 0.08 0.08 0 0.1 0.08 0 0 0.085 0 0.02 0.085 0 0.04 0.085 0 0.06 0.085 0 0.08 0.085 0 0.1 0.085 0 0 0.09 0 0.02 0.09 0 0.04 0.09 0 0.06 0.09 0 0.08 0.09 0 0.1 0.09 0 0 0.095 0 0.02 0.095 0 0.04 0.095 0 0.06 0.095 0 0.08 0.095 0 0.1 0.095 0 0 0.1 0 0.02 0.1 0 0.04 0.1 0 0.06 0.1 0 0.08 0.1 0 0.1 0.1 0 0 0.105 0 0.02 0.105 0 0.04 0.105 0 0.06 0.105 0 0.08 0.105 0 0.1 0.105 0 0 0.11 0 0.02 0.11 0 0.04 0.11 0 0.06 0.11 0 0.08 0.11 0 0.1 0.11 0 0 0.115 0 0.02 0.115 0 0.04 0.115 0 0.06 0.115 0 0.08 0.115 0 0.1 0.115 0 0 0.12 0 0.02 0.12 0 0.04 0.12 0 0.06 0.12 0 0.08 0.12 0 0.1 0.12 0 0 0.125 0 0.02 0.125 0 0.04 0.125 0 0.06 0.125 0 0.08 0.125 0 0.1 0.125 0 0 0.13 0 0.02 0.13 0 0.04 0.13 0 0.06 0.13 0 0.08 0.13 0 0.1 0.13 0 0 0.135 0 0.02 0.135 0 0.04 0.135 0 0.06 0.135 0 0.08 0.135 0 0.1 0.135 0 0 0.14 0 0.02 0.14 0 0.04 0.14 0 0.06 0.14 0 0.08 0.14 0 0.1 0.14 0 0 0.145 0 0.02 0.145 0 0.04 0.145 0 0.06 0.145 0 0.08 0.145 0 0.1 0.145 0 0 0.15 0 0.02 0.15 0 0.04 0.15 0 0.06 0.15 0 0.08 0.15 0 0.1 0.15 0 0 0.155 0 0.02 0.155 0 0.04 0.155 0 0.06 0.155 0 0.08 0.155 0 0.1 0.155 0 0 0.16 0 0.02 0.16 0 0.04 0.16 0 0.06 0.16 0 0.08 0.16 0 0.1 0.16 0 0 0.165 0 0.02 0.165 0 0.04 0.165 0 0.06 0.165 0 0.08 0.165 0 0.1 0.165 0 0 0.17 0 0.02 0.17 0 0.04 0.17 0 0.06 0.17 0 0.08 0.17 0 0.1 0.17 0 0 0.175 0 0.02 0.175 0 0.04 0.175 0 0.06 0.175 0 0.08 0.175 0 0.1 0.175 0 0 0.18 0 0.02 0.18 0 0.04 0.18 0 0.06 0.18 0 0.08 0.18 0 0.1 0.18 0 0 0.185 0 0.02 0.185 0 0.04 0.185 0 0.06 0.185 0 0.08 0.185 0 0.1 0.185 0 0 0.19 0 0.02 0.19 0 0.04 0.19 0 0.06 0.19 0 0.08 0.19 0 0.1 0.19 0 0 0.195 0 0.02 0.195 0 0.04 0.195 0 0.06 0.195 0 0.08 0.195 0 0.1 0.195 0 0 0.2 0 0.02 0.2 0 0.04 0.2 0 0.06 0.2 0 0.08 0.2 0 0.1 0.2 0 0 0.205 0 0.02 0.205 0 0.04 0.205 0 0.06 0.205 0 0.08 0.205 0 0.1 0.205 0 0 0.21 0 0.02 0.21 0 0.04 0.21 0 0.06 0.21 0 0.08 0.21 0 0.1 0.21 0 0 0.215 0 0.02 0.215 0 0.04 0.215 0 0.06 0.215 0 0.08 0.215 0 0.1 0.215 0 0 0.22 0 0.02 0.22 0 0.04 0.22 0 0.06 0.22 0 0.08 0.22 0 0.1 0.22 0 0 0.225 0 0.02 0.225 0 0.04 0.225 0 0.06 0.225 0 0.08 0.225 0 0.1 0.225 0 0 0.23 0 0.02 0.23 0 0.04 0.23 0 0.06 0.23 0 0.08 0.23 0 0.1 0.23 0 0 0.235 0 0.02 0.235 0 0.04 0.235 0 0.06 0.235 0 0.08 0.235 0 0.1 0.235 0 0 0.24 0 0.02 0.24 0 0.04 0.24 0 0.06 0.24 0 0.08 0.24 0 0.1 0.24 0 0 0.245 0 0.02 0.245 0 0.04 0.245 0 0.06 0.245 0 0.08 0.245 0 0.1 0.245 0 0 0.25 0 0.02 0.25 0 0.04 0.25 0 0.06 0.25 0 0.08 0.25 0 0.1 0.25 0 0 0.255 0 0.02 0.255 0 0.04 0.255 0 0.06 0.255 0 0.08 0.255 0 0.1 0.255 0 0 0.26 0 0.02 0.26 0 0.04 0.26 0 0.06 0.26 0 0.08 0.26 0 0.1 0.26 0 0 0.265 0 0.02 0.265 0 0.04 0.265 0 0.06 0.265 0 0.08 0.265 0 0.1 0.265 0 0 0.27 0 0.02 0.27 0 0.04 0.27 0 0.06 0.27 0 0.08 0.27 0 0.1 0.27 0 0 0.275 0 0.02 0.275 0 0.04 0.275 0 0.06 0.275 0 0.08 0.275 0 0.1 0.275 0 0 0.28 0 0.02 0.28 0 0.04 0.28 0 0.06 0.28 0 0.08 0.28 0 0.1 0.28 0 0 0.285 0 0.02 0.285 0 0.04 0.285 0 0.06 0.285 0 0.08 0.285 0 0.1 0.285 0 0 0.29 0 0.02 0.29 0 0.04 0.29 0 0.06 0.29 0 0.08 0.29 0 0.1 0.29 0 0 0.295 0 0.02 0.295 0 0.04 0.295 0 0.06 0.295 0 0.08 0.295 0 0.1 0.295 0 0 0.3 0 0.02 0.3 0 0.04 0.3 0 0.06 0.3 0 0.08 0.3 0 0.1 0.3 0 0 0.305 0 0.02 0.305 0 0.04 0.305 0 0.06 0.305 0 0.08 0.305 0 0.1 0.305 0 0 0.31 0 0.02 0.31 0 0.04 0.31 0 0.06 0.31 0 0.08 0.31 0 0.1 0.31 0 0 0.315 0 0.02 0.315 0 0.04 0.315 0 0.06 0.315 0 0.08 0.315 0 0.1 0.315 0 0 0.32 0 0.02 0.32 0 0.04 0.32 0 0.06 0.32 0 0.08 0.32 0 0.1 0.32 0 0 0.325 0 0.02 0.325 0 0.04 0.325 0 0.06 0.325 0 0.08 0.325 0 0.1 0.325 0 0 0.33 0 0.02 0.33 0 0.04 0.33 0 0.06 0.33 0 0.08 0.33 0 0.1 0.33 0 0 0.335 0 0.02 0.335 0 0.04 0.335 0 0.06 0.335 0 0.08 0.335 0 0.1 0.335 0 0 0.34 0 0.02 0.34 0 0.04 0.34 0 0.06 0.34 0 0.08 0.34 0 0.1 0.34 0 0 0.345 0 0.02 0.345 0 0.04 0.345 0 0.06 0.345 0 0.08 0.345 0 0.1 0.345 0 0 0.35 0 0.02 0.35 0 0.04 0.35 0 0.06 0.35 0 0.08 0.35 0 0.1 0.35 0 0 0.355 0 0.02 0.355 0 0.04 0.355 0 0.06 0.355 0 0.08 0.355 0 0.1 0.355 0 0 0.36 0 0.02 0.36 0 0.04 0.36 0 0.06 0.36 0 0.08 0.36 0 0.1 0.36 0 0 0.365 0 0.02 0.365 0 0.04 0.365 0 0.06 0.365 0 0.08 0.365 0 0.1 0.365 0 0 0.37 0 0.02 0.37 0 0.04 0.37 0 0.06 0.37 0 0.08 0.37 0 0.1 0.37 0 0 0.375 0 0.02 0.375 0 0.04 0.375 0 0.06 0.375 0 0.08 0.375 0 0.1 0.375 0 0 0.38 0 0.02 0.38 0 0.04 0.38 0 0.06 0.38 0 0.08 0.38 0 0.1 0.38 0 0 0.385 0 0.02 0.385 0 0.04 0.385 0 0.06 0.385 0 0.08 0.385 0 0.1 0.385 0 0 0.39 0 0.02 0.39 0 0.04 0.39 0 0.06 0.39 0 0.08 0.39 0 0.1 0.39 0 0 0.395 0 0.02 0.395 0 0.04 0.395 0 0.06 0.395 0 0.08 0.395 0 0.1 0.395 0 0 0.4 0 0.02 0.4 0 0.04 0.4 0 0.06 0.4 0 0.08 0.4 0 0.1 0.4 0 0 0.405 0 0.02 0.405 0 0.04 0.405 0 0.06 0.405 0 0.08 0.405 0 0.1 0.405 0 0 0.41 0 0.02 0.41 0 0.04 0.41 0 0.06 0.41 0 0.08 0.41 0 0.1 0.41 0 0 0.415 0 0.02 0.415 0 0.04 0.415 0 0.06 0.415 0 0.08 0.415 0 0.1 0.415 0 0 0.42 0 0.02 0.42 0 0.04 0.42 0 0.06 0.42 0 0.08 0.42 0 0.1 0.42 0 0 0.425 0 0.02 0.425 0 0.04 0.425 0 0.06 0.425 0 0.08 0.425 0 0.1 0.425 0 0 0.43 0 0.02 0.43 0 0.04 0.43 0 0.06 0.43 0 0.08 0.43 0 0.1 0.43 0 0 0.435 0 0.02 0.435 0 0.04 0.435 0 0.06 0.435 0 0.08 0.435 0 0.1 0.435 0 0 0.44 0 0.02 0.44 0 0.04 0.44 0 0.06 0.44 0 0.08 0.44 0 0.1 0.44 0 0 0.445 0 0.02 0.445 0 0.04 0.445 0 0.06 0.445 0 0.08 0.445 0 0.1 0.445 0 0 0.45 0 0.02 0.45 0 0.04 0.45 0 0.06 0.45 0 0.08 0.45 0 0.1 0.45 0 0 0.455 0 0.02 0.455 0 0.04 0.455 0 0.06 0.455 0 0.08 0.455 0 0.1 0.455 0 0 0.46 0 0.02 0.46 0 0.04 0.46 0 0.06 0.46 0 0.08 0.46 0 0.1 0.46 0 0 0.465 0 0.02 0.465 0 0.04 0.465 0 0.06 0.465 0 0.08 0.465 0 0.1 0.465 0 0 0.47 0 0.02 0.47 0 0.04 0.47 0 0.06 0.47 0 0.08 0.47 0 0.1 0.47 0 0 0.475 0 0.02 0.475 0 0.04 0.475 0 0.06 0.475 0 0.08 0.475 0 0.1 0.475 0 0 0.48 0 0.02 0.48 0 0.04 0.48 0 0.06 0.48 0 0.08 0.48 0 0.1 0.48 0 0 0.485 0 0.02 0.485 0 0.04 0.485 0 0.06 0.485 0 0.08 0.485 0 0.1 0.485 0 0 0.49 0 0.02 0.49 0 0.04 0.49 0 0.06 0.49 0 0.08 0.49 0 0.1 0.49 0 0 0.495 0 0.02 0.495 0 0.04 0.495 0 0.06 0.495 0 0.08 0.495 0 0.1 0.495 0 0 0.5 0 0.02 0.5 0 0.04 0.5 0 0.06 0.5 0 0.08 0.5 0 0.1 0.5 0 0 0.505 0 0.02 0.505 0 0.04 0.505 0 0.06 0.505 0 0.08 0.505 0 0.1 0.505 0 0 0.51 0 0.02 0.51 0 0.04 0.51 0 0.06 0.51 0 0.08 0.51 0 0.1 0.51 0 0 0.515 0 0.02 0.515 0 0.04 0.515 0 0.06 0.515 0 0.08 0.515 0 0.1 0.515 0 0 0.52 0 0.02 0.52 0 0.04 0.52 0 0.06 0.52 0 0.08 0.52 0 0.1 0.52 0 0 0.525 0 0.02 0.525 0 0.04 0.525 0 0.06 0.525 0 0.08 0.525 0 0.1 0.525 0 0 0.53 0 0.02 0.53 0 0.04 0.53 0 0.06 0.53 0 0.08 0.53 0 0.1 0.53 0 0 0.535 0 0.02 0.535 0 0.04 0.535 0 0.06 0.535 0 0.08 0.535 0 0.1 0.535 0 0 0.54 0 0.02 0.54 0 0.04 0.54 0 0.06 0.54 0 0.08 0.54 0 0.1 0.54 0 0 0.545 0 0.02 0.545 0 0.04 0.545 0 0.06 0.545 0 0.08 0.545 0 0.1 0.545 0 0 0.55 0 0.02 0.55 0 0.04 0.55 0 0.06 0.55 0 0.08 0.55 0 0.1 0.55 0 0 0.555 0 0.02 0.555 0 0.04 0.555 0 0.06 0.555 0 0.08 0.555 0 0.1 0.555 0 0 0.56 0 0.02 0.56 0 0.04 0.56 0 0.06 0.56 0 0.08 0.56 0 0.1 0.56 0 0 0.565 0 0.02 0.565 0 0.04 0.565 0 0.06 0.565 0 0.08 0.565 0 0.1 0.565 0 0 0.57 0 0.02 0.57 0 0.04 0.57 0 0.06 0.57 0 0.08 0.57 0 0.1 0.57 0 0 0.575 0 0.02 0.575 0 0.04 0.575 0 0.06 0.575 0 0.08 0.575 0 0.1 0.575 0 0 0.58 0 0.02 0.58 0 0.04 0.58 0 0.06 0.58 0 0.08 0.58 0 0.1 0.58 0 0 0.585 0 0.02 0.585 0 0.04 0.585 0 0.06 0.585 0 0.08 0.585 0 0.1 0.585 0 0 0.59 0 0.02 0.59 0 0.04 0.59 0 0.06 0.59 0 0.08 0.59 0 0.1 0.59 0 0 0.595 0 0.02 0.595 0 0.04 0.595 0 0.06 0.595 0 0.08 0.595 0 0.1 0.595 0 0 0.6 0 0.02 0.6 0 0.04 0.6 0 0.06 0.6 0 0.08 0.6 0 0.1 0.6 0 0 0.605 0 0.02 0.605 0 0.04 0.605 0 0.06 0.605 0 0.08 0.605 0 0.1 0.605 0 0 0.61 0 0.02 0.61 0 0.04 0.61 0 0.06 0.61 0 0.08 0.61 0 0.1 0.61 0 0 0.615 0 0.02 0.615 0 0.04 0.615 0 0.06 0.615 0 0.08 0.615 0 0.1 0.615 0 0 0.62 0 0.02 0.62 0 0.04 0.62 0 0.06 0.62 0 0.08 0.62 0 0.1 0.62 0 0 0.625 0 0.02 0.625 0 0.04 0.625 0 0.06 0.625 0 0.08 0.625 0 0.1 0.625 0 0 0.63 0 0.02 0.63 0 0.04 0.63 0 0.06 0.63 0 0.08 0.63 0 0.1 0.63 0 0 0.635 0 0.02 0.635 0 0.04 0.635 0 0.06 0.635 0 0.08 0.635 0 0.1 0.635 0 0 0.64 0 0.02 0.64 0 0.04 0.64 0 0.06 0.64 0 0.08 0.64 0 0.1 0.64 0 0 0.645 0 0.02 0.645 0 0.04 0.645 0 0.06 0.645 0 0.08 0.645 0 0.1 0.645 0 0 0.65 0 0.02 0.65 0 0.04 0.65 0 0.06 0.65 0 0.08 0.65 0 0.1 0.65 0 0 0.655 0 0.02 0.655 0 0.04 0.655 0 0.06 0.655 0 0.08 0.655 0 0.1 0.655 0 0 0.66 0 0.02 0.66 0 0.04 0.66 0 0.06 0.66 0 0.08 0.66 0 0.1 0.66 0 0 0.665 0 0.02 0.665 0 0.04 0.665 0 0.06 0.665 0 0.08 0.665 0 0.1 0.665 0 0 0.67 0 0.02 0.67 0 0.04 0.67 0 0.06 0.67 0 0.08 0.67 0 0.1 0.67 0 0 0.675 0 0.02 0.675 0 0.04 0.675 0 0.06 0.675 0 0.08 0.675 0 0.1 0.675 0 0 0.68 0 0.02 0.68 0 0.04 0.68 0 0.06 0.68 0 0.08 0.68 0 0.1 0.68 0 0 0.685 0 0.02 0.685 0 0.04 0.685 0 0.06 0.685 0 0.08 0.685 0 0.1 0.685 0 0 0.69 0 0.02 0.69 0 0.04 0.69 0 0.06 0.69 0 0.08 0.69 0 0.1 
[...]
			<PointData Scalars="VitesseX">
				<DataArray Name="VitesseX" type="Float32" format="ascii">
 0 -2.241e-14 -7.13318e-15 8.13424e-15 9.65647e-15 0 0 -1.67355e-14 -1.1838e-14 8.51391e-15 1.07206e-14 0 0 -9.3227e-15 -1.42799e-14 3.63899e-15 1.58845e-14 0 0 -3.98557e-15 -1.67572e-14 4.99107e-15 1.6422e-14 0 0 -1.62597e-15 -1.57971e-14 6.29437e-15 1.73732e-14 0 0 -6.43271e-16 -1.23423e-14 8.65143e-15 1.61437e-14 0 0 -2.90501e-15 -2.17057e-15 1.27909e-14 7.53948e-15 0 0 2.01899e-15 9.78021e-16 2.06793e-14 -1.89067e-15 0 0 1.07071e-14 7.02182e-15 1.06481e-14 8.75077e-15 0 0 1.26837e-14 2.52574e-14 -1.22648e-14 2.7196e-14 0 0 1.37488e-14 1.97411e-14 1.40235e-14 4.3782e-15 0 0 8.29401e-15 1.63618e-14 3.82609e-14 -2.2555e-14 0 0 6.77397e-15 2.25435e-14 2.73808e-14 -2.20648e-14 0 0 1.00923e-14 2.38944e-14 1.42315e-14 -2.1255e-14 0 0 -1.46932e-15 3.43834e-14 -7.61746e-15 -9.91843e-15 0 0 7.58766e-15 3.9779e-15 1.40109e-14 -2.6997e-14 0 0 -1.36006e-14 2.19418e-14 -1.07541e-14 -1.42514e-14 0 0 -1.18905e-14 1.38574e-15 3.36881e-15 -2.41712e-14 0 0 -9.92935e-15 -1.53734e-14 5.99888e-15 -2.12212e-14 0 0 -2.70277e-14 -2.9706e-15 -1.45592e-14 -1.92257e-15 0 0 1.08637e-14 -6.17871e-14 2.95357e-14 -2.56611e-14 0 0 -9.95888e-15 -1.24571e-14 -4.83803e-14 3.10476e-14 0 0 -1.83349e-14 -1.58639e-14 -1.13087e-14 -1.36776e-14 0 0 -4.4784e-15 -4.41856e-14 2.32612e-14 -2.39893e-14 0 0 -3.86321e-14 2.72447e-14 -4.50884e-14 2.81848e-14 0 0 -2.82762e-14 2.90766e-14 -6.95413e-16 -2.32576e-14 0 0 1.22199e-14 -1.85514e-14 4.36857e-14 -3.66829e-14 0 0 6.0305e-16 -1.92579e-14 5.78213e-14 -2.60608e-14 0 0 4.54642e-15 -2.6089e-14 8.25506e-14 -4.29574e-14 0 0 7.75735e-15 -1.02043e-14 4.4654e-14 -9.56663e-15 0 0 -5.85075e-15 5.13915e-15 1.04707e-14 2.34058e-14 0 0 -1.13897e-14 -3.38114e-15 1.34456e-14 2.27378e-14 0 0 3.72107e-15 -3.79294e-14 3.68141e-14 2.55102e-14 0 0 1.54064e-14 -6.0364e-14 4.58484e-14 4.42704e-14 0 0 -3.61052e-14 2.80429e-14 -3.6591e-14 1.0661e-13 0 0 -4.38604e-14 5.20943e-14 -9.93936e-15 4.0711e-14 0 0 -9.30104e-15 -1.45423e-14 8.3242e-14 -2.78459e-14 0 0 -1.83189e-14 2.65136e-14 1.44307e-14 3.00198e-14 0 0 -7.13771e-15 6.91882e-14 -7.06718e-14 7.33291e-14 0 0 3.18361e-14 3.13345e-14 -6.70115e-14 8.81626e-14 0 0 7.156e-14 -2.4848e-14 -6.84865e-15 5.34737e-14 0 0 8.86678e-14 -5.05332e-14 5.74011e-14 -2.26113e-15 0 0 3.80332e-14 4.12301e-14 -2.878e-14 3.68541e-14 0 0 7.64595e-14 3.25209e-14 -5.88452e-14 4.63657e-14 0 0 1.75724e-13 -9.33017e-14 6.0174e-14 -2.89455e-14 0 0 1.24387e-13 -1.20711e-14 -3.68586e-14 4.15079e-14 0 0 6.11775e-14 8.46761e-14 -1.72581e-13 1.65397e-13 0 0 8.23527e-14 3.51592e-14 -1.31992e-13 1.82184e-13 0 0 1.08585e-13 -2.7163e-14 -3.71114e-14 1.16842e-13 0 0 1.57802e-13 -1.02879e-13 5.38543e-14 3.13961e-14 0 0 1.31078e-13 -3.74892e-14 1.44445e-14 -6.67357e-15 0 0 1.58636e-13 -1.8366e-14 1.96299e-14 -6.90161e-14 0 0 2.33951e-13 -4.86292e-14 4.08858e-14 -8.4008e-14 0 0 2.94865e-13 -1.13291e-13 1.09442e-13 -8.58267e-14 0 0 1.94431e-13 4.95256e-14 3.18882e-14 -1.33068e-14 0 0 6.06177e-14 1.96211e-13 2.71567e-14 5.27347e-15 0 0 1.67741e-13 2.12062e-15 1.86716e-13 1.0339e-14 0 0 1.38357e-13 1.08916e-13 -4.29688e-15 2.18942e-13 0 0 1.26591e-13 1.48845e-13 -4.01373e-14 2.30344e-13 0 0 1.20351e-13 1.47107e-13 1.51693e-14 1.26075e-13 0 0 6.72411e-14 1.85675e-13 4.91379e-14 3.75194e-14 0 0 1.54043e-13 9.59588e-15 2.30055e-13 -9.19094e-14 0 0 1.45253e-13 6.80186e-14 1.14244e-13 -1.92092e-14 0 0 1.04933e-13 1.12212e-13 9.16652e-14 1.97412e-14 0 0 6.8728e-14 5.0788e-14 2.14426e-13 1.69201e-14 0 0 1.42499e-14 1.51031e-13 6.60161e-14 1.67685e-13 0 0 1.47362e-13 -2.71869e-15 1.20375e-13 1.20106e-13 0 0 1.24111e-13 4.73508e-17 3.68272e-14 1.16109e-13 0 0 -4.26605e-15 2.37725e-13 -2.47949e-13 2.02699e-13 0 0 2.88599e-13 7.284e-15 -1.12125e-13 6.42145e-14 0 0 4.88617e-13 -1.43661e-13 -5.3286e-14 8.75217e-14 0 0 3.45279e-13 -3.92151e-14 -1.12122e-13 1.79972e-13 0 0 7.06958e-14 2.41083e-13 -2.87016e-13 2.7073e-13 0 0 5.63844e-14 3.50119e-13 -4.55501e-13 3.54059e-13 0 0 3.74107e-13 3.91209e-14 -2.33118e-13 1.80637e-13 0 0 4.9216e-13 -1.64729e-14 -1.47645e-13 5.73853e-14 0 0 4.47481e-13 5.69129e-14 -1.94054e-13 6.91394e-14 0 0 3.6044e-13 1.62318e-13 -3.71277e-13 2.01756e-13 0 0 3.16515e-13 1.62483e-13 -4.82006e-13 2.90641e-13 0 0 3.35205e-13 3.31012e-14 -4.04112e-13 2.58553e-13 0 0 3.2982e-13 -1.7678e-13 -2.03209e-13 1.68389e-13 0 0 2.38954e-13 -1.68947e-13 -1.22997e-13 1.1332e-13 0 0 6.86746e-14 -6.51597e-14 -1.12468e-13 4.09783e-14 0 0 -1.34605e-13 -3.60006e-14 -4.90072e-14 -6.85943e-14 0 0 -1.77503e-13 -9.62875e-14 7.06268e-14 -1.49429e-13 0 0 -2.09025e-13 -1.19014e-13 4.93967e-14 -7.71867e-14 0 0 -3.03461e-13 -5.45251e-14 -6.50497e-14 9.05225e-14 0 0 -3.89705e-13 1.2651e-14 -2.01462e-13 2.92363e-13 0 0 -3.85053e-13 -3.84694e-14 -1.98956e-13 3.41951e-13 0 0 -2.93614e-13 -2.22895e-13 -1.12703e-13 3.14476e-13 0 0 -1.96361e-13 -3.97316e-13 -4.61166e-15 2.67463e-13 0 0 -1.89205e-13 -4.54714e-13 5.81361e-14 2.2657e-13 0 0 -2.35953e-13 -4.48441e-13 9.8569e-14 1.90938e-13 0 0 -3.30366e-13 -4.15091e-13 1.46299e-13 1.36236e-13 0 0 -4.32937e-13 -3.64316e-13 2.22642e-13 5.55166e-14 0 0 -5.30886e-13 -3.11005e-13 3.18694e-13 -5.56925e-14 0 0 -6.05447e-13 -2.58392e-13 3.28907e-13 -1.65223e-13 0 0 -6.18141e-13 -2.1161e-13 3.15848e-13 -1.98082e-13 0 0 -5.92903e-13 -2.01263e-13 2.90512e-13 -1.9546e-13 0 0 -5.2822e-13 -1.96816e-13 2.37067e-13 -1.64588e-13 0 0 -4.394e-13 -1.78312e-13 1.49676e-13 -8.75906e-14 0 0 -3.46429e-13 -1.31153e-13 8.5681e-14 7.72443e-15 0 0 -2.62663e-13 -9.29619e-14 6.12836e-14 6.2012e-14 0 0 -1.90115e-13 -6.60323e-14 5.69279e-14 7.52643e-14 0 0 -1.20988e-13 -4.21338e-14 6.97126e-14 6.1353e-14 0 0 -3.80413e-14 -4.11204e-14 1.20104e-13 6.06174e-14 0 0 7.71749e-14 -7.66961e-14 2.19913e-13 7.60695e-14 0 0 1.88795e-13 -1.16043e-13 2.56242e-13 1.06761e-13 0 0 2.52442e-13 -1.17095e-13 2.38672e-13 1.68736e-13 0 0 2.70086e-13 -6.84718e-14 1.40261e-13 3.10599e-13 0 0 2.83057e-13 2.53814e-14 7.79867e-15 4.63192e-13 0 0 2.94701e-13 1.03255e-13 -2.35855e-14 4.55873e-13 0 0 2.80273e-13 1.99446e-13 -8.56099e-14 4.62156e-13 0 0 2.76487e-13 2.57421e-13 -1.22631e-13 4.96061e-13 0 0 2.79703e-13 2.94095e-13 -6.19041e-14 4.34331e-13 0 0 2.91265e-13 2.84359e-13 4.66114e-14 2.72836e-13 0 0 3.44865e-13 2.41448e-13 1.63693e-13 1.03593e-13 0 0 4.44112e-13 1.72269e-13 2.23647e-13 4.59059e-14 0 0 5.21981e-13 1.01412e-13 2.42703e-13 3.24783e-14 0 0 5.37732e-13 7.0109e-14 2.57541e-13 3.71647e-15 0 0 5.28025e-13 7.46472e-14 2.51787e-13 -1.43739e-14 0 0 4.88248e-13 1.00134e-13 2.39281e-13 -3.35835e-14 0 0 4.14934e-13 1.53938e-13 2.17232e-13 -4.54907e-14 0 0 3.25126e-13 1.84503e-13 2.19835e-13 -6.694e-14 0 0 2.63671e-13 1.77533e-13 2.40638e-13 -1.00386e-13 0 0 2.07135e-13 1.70791e-13 2.61496e-13 -1.1667e-13 0 0 1.50779e-13 2.0623e-13 2.06975e-13 -7.47652e-14 0 0 1.19859e-13 2.07949e-13 1.13667e-13 3.95187e-14 0 0 1.32893e-13 1.96561e-13 1.05329e-13 2.54741e-14 0 0 1.61189e-13 1.85186e-13 6.22765e-14 -1.40767e-15 0 0 1.64212e-13 1.7095e-13 1.71218e-14 3.24889e-15 0 0 1.51585e-13 1.62779e-13 4.94332e-14 -1.05029e-14 0 0 1.23711e-13 1.74559e-13 4.41244e-14 2.76796e-14 0 0 8.33671e-14 2.21024e-13 5.35774e-15 2.88305e-14 0 0 9.93669e-14 1.90634e-13 3.31755e-14 3.08837e-15 0 0 1.07981e-13 1.45419e-13 2.74139e-14 4.72994e-14 0 0 9.01427e-14 1.15508e-13 5.2035e-14 4.76852e-14 0 0 6.26801e-14 8.47106e-14 6.15264e-14 6.37284e-14 0 0 1.92935e-14 1.08853e-13 -2.61065e-14 1.79621e-13 0 0 -1.46575e-14 9.57072e-14 -2.47101e-14 1.87971e-13 0 0 -6.45991e-15 2.99111e-14 8.76665e-14 5.04113e-14 0 0 -6.72492e-15 -5.22206e-14 1.00576e-13 3.72959e-14 0 0 -4.03798e-15 -3.27538e-14 -1.38979e-14 1.59874e-13 0 0 1.27101e-14 -3.49376e-14 -8.15331e-14 1.74623e-13 0 0 6.12504e-15 -3.54922e-14 -1.32281e-14 1.24966e-14 0 0 1.38524e-15 -2.57465e-15 2.92101e-14 -6.00338e-14 0 0 3.59484e-14 1.76337e-14 1.96828e-14 8.26189e-14 0 0 3.68168e-14 8.72314e-14 -3.53465e-14 1.23441e-13 0 0 3.28145e-14 1.90481e-13 6.08282e-14 -3.39665e-14 0 0 6.69933e-14 2.117e-13 2.09427e-13 6.1589e-14 0 0 8.91597e-14 2.65752e-13 2.5013e-13 3.51349e-13 0 0 1.5723e-13 1.8016e-13 5.10456e-13 2.19242e-13 0 0 1.76638e-13 1.73893e-13 6.1537e-13 8.03984e-14 0 0 1.49166e-13 3.17546e-13 4.15797e-13 2.83428e-13 0 0 1.9072e-13 2.83118e-13 4.01177e-13 3.84109e-13 0 0 1.7036e-13 2.98076e-13 4.25677e-13 3.47725e-13 0 0 1.7563e-13 2.79478e-13 4.94858e-13 2.45386e-13 0 0 1.37556e-13 3.31535e-13 3.50996e-13 4.25643e-13 0 0 7.11631e-14 4.266e-13 2.24358e-13 5.63585e-13 0 0 9.72133e-14 3.83204e-13 3.88644e-13 2.8818e-13 0 0 2.06006e-13 2.05142e-13 6.12702e-13 9.36849e-14 0 0 2.37184e-13 1.62383e-13 6.40339e-13 1.37299e-13 0 0 2.50111e-13 2.00094e-13 5.78125e-13 1.8251e-13 0 0 2.521e-13 2.28817e-13 5.26732e-13 2.10321e-13 0 0 1.70491e-13 3.90098e-13 3.7417e-13 3.15581e-13 0 0 2.5011e-13 2.99656e-13 4.67872e-13 3.02256e-13 0 0 2.65756e-13 3.256e-13 3.98816e-13 3.84183e-13 0 0 2.23131e-13 4.23994e-13 2.8856e-13 4.32998e-13 0 0 3.76349e-13 1.83772e-13 5.45454e-13 2.55333e-13 0 0 3.70583e-13 2.34627e-13 5.19778e-13 2.72025e-13 0 0 2.61786e-13 4.6154e-13 2.71626e-13 4.13568e-13 0 0 2.71009e-13 4.64058e-13 2.59217e-13 3.4954e-13 0 0 2.73107e-13 5.16977e-13 2.31992e-13 3.45959e-13 0 0 3.40609e-13 5.10089e-13 2.08367e-13 3.08562e-13 0 0 3.03936e-13 5.26808e-13 2.67378e-13 1.62209e-13 0 0 3.01624e-13 4.56672e-13 3.09057e-13 2.10878e-13 0 0 3.99558e-13 3.38101e-13 3.87194e-13 1.6252e-13 0 0 4.03495e-13 3.72968e-13 3.65338e-13 1.63242e-13 0 0 2.42835e-13 5.06034e-13 2.44376e-13 3.36125e-13 0 0 1.43452e-13 5.18733e-13 3.21497e-13 2.81745e-13 0 0 3.40513e-13 2.41565e-13 5.89066e-13 1.54483e-13 0 0 4.70581e-13 1.47493e-13 5.74163e-13 2.63089e-13 0 0 2.58872e-13 5.27396e-13 4.77953e-14 6.0477e-13 0 0 2.57754e-13 4.65329e-13 1.93879e-13 4.69962e-13 0 0 7.44521e-14 6.25705e-13 4.00115e-13 2.05252e-13 0 0 4.01566e-14 6.34929e-13 5.30362e-13 1.1217e-15 0 0 2.61121e-13 3.19737e-13 7.39287e-13 -2.18726e-13 0 0 4.75915e-14 6.08075e-13 4.0438e-13 -2.4944e-14 0 0 1.19276e-13 4.167e-13 6.31661e-13 -2.18809e-13 0 0 2.27393e-13 3.10893e-13 6.25725e-13 -2.12163e-13 0 0 2.53078e-13 4.04843e-13 3.32387e-13 1.10496e-13 0 0 3.33511e-13 3.08131e-13 3.06013e-13 1.69521e-13 0 0 3.51352e-14 5.92702e-13 1.50992e-13 2.00062e-13 0 0 -1.32575e-13 4.90457e-13 5.35229e-13 -6.89738e-14 0 0 8.98107e-14 1.40846e-13 6.83184e-13 2.20803e-14 0 0 2.7602e-13 3.5837e-14 4.76402e-13 3.4343e-13 0 0 1.80498e-13 1.98153e-13 3.8002e-13 3.57347e-13 0 0 2.5103e-13 3.10553e-13 3.0231e-13 1.75983e-13 0 0 3.70306e-13 3.02372e-13 1.82555e-13 1.67202e-13 0 0 -1.07413e-13 1.00014e-12 -4.90471e-13 5.34652e-13 0 0 -4.2703e-13 1.47741e-12 -8.90943e-13 6.93044e-13 0
				</DataArray>
				<DataArray Name="VitesseY" type="Float32" format="ascii">