<?xml version="1.0"?>
<VTKFile type="PolyData">
	<PolyData>
		<Piece NumberOfPoints="1206" NumberOfPolys="1000">
			<Points>
				<DataArray type="Float32" NumberOfComponents="3" format="ascii">
 0 0 0 0.02 0 0 0.04 0 0 0.06 0 0 0.08 0 0 0.1 0 0 0 0.005 0 0.02 0.005 0 0.04 0.005 0 0.06 0.005 0 0.08 0.005 0 0.1 0.005 0 0 0.01 0 0.02 0.01 0 0.04 0.01 0 0.06 0.01 0 0.08 0.01 0 0.1 0.01 0 0 0.015 0 0.02 0.015 0 0.04 0.015 0 0.06 0.015 0 0.08 0.015 0 0.1 0.015 0 0 0.02 0 0.02 0.02 0 0.04 0.02 0 0.06 0.02 0 0.08 0.02 0 0.1 0.02 0 0 0.025 0 0.02 0.025 0 0.04 0.025 0 0.06 0.025 0 0.08 0.025 0 0.1 0.025 0 0 0.03 0 0.02 0.03 0 0.04 0.03 0 0.06 0.03 0 0.08 0.03 0 0.1 0.03 0 0 0.035 0 0.02 0.035 0 0.04 0.035 0 0.06 0.035 0 0.08 0.035 0 0.1 0.035 0 0 0.04 0 0.02 0.04 0 0.04 0.04 0 0.06 0.04 0 0.08 0.04 0 0.1 0.04 0 0 0.045 0 0.02 0.045 0 0.04 0.045 0 0.06 0.045 0 0.08 0.045 0 0.1 0.045 0 0 0.05 0 0.02 0.05 0 0.04 0.05 0 0.06 0.05 0 0.08 0.05 0 0.1 0.05 0 0 0.055 0 0.02 0.055 0 0.04 0.055 0 0.06 0.055 0 0.08 0.055 0 0.1 0.055 0 0 0.06 0 0.02 0.06 0 0.04 0.06 0 0.06 0.06 0 0.08 0.06 0 0.1 0.06 0 0 0.065 0 0.02 0.065 0 0.04 0.065 0 0.06 0.065 0 0.08 0.065 0 0.1 0.065 0 0 0.07 0 0.02 0.07 0 0.04 0.07 0 0.06 0.07 0 0.08 0.07 0 0.1 0.07 0 0 0.075 0 0.02 0.075 0 0.04 0.075 0 0.06 0.075 0 0.08 0.075 0 0.1 0.075 0 0 0.08 0 0.02 0.08 0 0.04 0.08 0 0.06 0.08 0 0.08 0.08 0 0.1 0.08 0 0 0.085 0 0.02 0.085 0 0.04 0.085 0 0.06 0.085 0 0.08 0.085 0 0.1 0.085 0 0 0.09 0 0.02 0.09 0 0.04 0.09 0 0.06 0.09 0 0.08 0.09 0 0.1 0.09 0 0 0.095 0 0.02 0.095 0 0.04 0.095 0 0.06 0.095 0 0.08 0.095 0 0.1 0.095 0 0 0.1 0 0.02 0.1 0 0.04 0.1 0 0.06 0.1 0 0.08 0.1 0 0.1 0.1 0 0 0.105 0 0.02 0.105 0 0.04 0.105 0 0.06 0.105 0 0.08 0.105 0 0.1 0.105 0 0 0.11 0 0.02 0.11 0 0.04 0.11 0 0.06 0.11 0 0.08 0.11 0 0.1 0.11 0 0 0.115 0 0.02 0.115 0 0.04 0.115 0 0.06 0.115 0 0.08 0.115 0 0.1 0.115 0 0 0.12 0 0.02 0.12 0 0.04 0.12 0 0.06 0.12 0 0.08 0.12 0 0.1 0.12 0 0 0.125 0 0.02 0.125 0 0.04 0.125 0 0.06 0.125 0 0.08 0.125 0 0.1 0.125 0 0 0.13 0 0.02 0.13 0 0.04 0.13 0 0.06 0.13 0 0.08 0.13 0 0.1 0.13 0 0 0.135 0 0.02 0.135 0 0.04 0.135 0 0.06 0.135 0 0.08 0.135 0 0.1 0.135 0 0 0.14 0 0.02 0.14 0 0.04 0.14 0 0.06 0.14 0 0.08 0.14 0 0.1 0.14 0 0 0.145 0 0.02 0.145 0 0.04 0.145 0 0.06 0.145 0 0.08 0.145 0 0.1 0.145 0 0 0.15 0 0.02 0.15 0 0.04 0.15 0 0.06 0.15 0 0.08 0.15 0 0.1 0.15 0 0 0.155 0 0.02 0.155 0 0.04 0.155 0 0.06 0.155 0 0.08 0.155 0 0.1 0.155 0 0 0.16 0 0.02 0.16 0 0.04 0.16 0 0.06 0.16 0 0.08 0.16 0 0.1 0.16 0 0 0.165 0 0.02 0.165 0 0.04 0.165 0 0.06 0.165 0 0.08 0.165 0 0.1 0.165 0 0 0.17 0 0.02 0.17 0 0.04 0.17 0 0.06 0.17 0 0.08 0.17 0 0.1 0.17 0 0 0.175 0 0.02 0.175 0 0.04 0.175 0 0.06 0.175 0 0.08 0.175 0 0.1 0.175 0 0 0.18 0 0.02 0.18 0 0.04 0.18 0 0.06 0.18 0 0.08 0.18 0 0.1 0.18 0 0 0.185 0 0.02 0.185 0 0.04 0.185 0 0.06 0.185 0 0.08 0.185 0 0.1 0.185 0 0 0.19 0 0.02 0.19 0 0.04 0.19 0 0.06 0.19 0 0.08 0.19 0 0.1 0.19 0 0 0.195 0 0.02 0.195 0 0.04 0.195 0 0.06 0.195 0 0.08 0.195 0 0.1 0.195 0 0 0.2 0 0.02 0.2 0 0.04 0.2 0 0.06 0.2 0 0.08 0.2 0 0.1 0.2 0 0 0.205 0 0.02 0.205 0 0.04 0.205 0 0.06 0.205 0 0.08 0.205 0 0.1 0.205 0 0 0.21 0 0.02 0.21 0 0.04 0.21 0 0.06 0.21 0 0.08 0.21 0 0.1 0.21 0 0 0.215 0 0.02 0.215 0 0.04 0.215 0 0.06 0.215 0 0.08 0.215 0 0.1 0.215 0 0 0.22 0 0.02 0.22 0 0.04 0.22 0 0.06 0.22 0 0.08 0.22 0 0.1 0.22 0 0 0.225 0 0.02 0.225 0 0.04 0.225 0 0.06 0.225 0 0.08 0.225 0 0.1 0.225 0 0 0.23 0 0.02 0.23 0 0.04 0.23 0 0.06 0.23 0 0.08 0.23 0 0.1 0.23 0 0 0.235 0 0.02 0.235 0 0.04 0.235 0 0.06 0.235 0 0.08 0.235 0 0.1 0.235 0 0 0.24 0 0.02 0.24 0 0.04 0.24 0 0.06 0.24 0 0.08 0.24 0 0.1 0.24 0 0 0.245 0 0.02 0.245 0 0.04 0.245 0 0.06 0.245 0 0.08 0.245 0 0.1 0.245 0 0 0.25 0 0.02 0.25 0 0.04 0.25 0 0.06 0.25 0 0.08 0.25 0 0.1 0.25 0 0 0.255 0 0.02 0.255 0 0.04 0.255 0 0.06 0.255 0 0.08 0.255 0 0.1 0.255 0 0 0.26 0 0.02 0.26 0 0.04 0.26 0 0.06 0.26 0 0.08 0.26 0 0.1 0.26 0 0 0.265 0 0.02 0.265 0 0.04 0.265 0 0.06 0.265 0 0.08 0.265 0 0.1 0.265 0 0 0.27 0 0.02 0.27 0 0.04 0.27 0 0.06 0.27 0 0.08 0.27 0 0.1 0.27 0 0 0.275 0 0.02 0.275 0 0.04 0.275 0 0.06 0.275 0 0.08 0.275 0 0.1 0.275 0 0 0.28 0 0.02 0.28 0 0.04 0.28 0 0.06 0.28 0 0.08 0.28 0 0.1 0.28 0 0 0.285 0 0.02 0.285 0 0.04 0.285 0 0.06 0.285 0 0.08 0.285 0 0.1 0.285 0 0 0.29 0 0.02 0.29 0 0.04 0.29 0 0.06 0.29 0 0.08 0.29 0 0.1 0.29 0 0 0.295 0 0.02 0.295 0 0.04 0.295 0 0.06 0.295 0 0.08 0.295 0 0.1 0.295 0 0 0.3 0 0.02 0.3 0 0.04 0.3 0 0.06 0.3 0 0.08 0.3 0 0.1 0.3 0 0 0.305 0 0.02 0.305 0 0.04 0.305 0 0.06 0.305 0 0.08 0.305 0 0.1 0.305 0 0 0.31 0 0.02 0.31 0 0.04 0.31 0 0.06 0.31 0 0.08 0.31 0 0.1 0.31 0 0 0.315 0 0.02 0.315 0 0.04 0.315 0 0.06 0.315 0 0.08 0.315 0 0.1 0.315 0 0 0.32 0 0.02 0.32 0 0.04 0.32 0 0.06 0.32 0 0.08 0.32 0 0.1 0.32 0 0 0.325 0 0.02 0.325 0 0.04 0.325 0 0.06 0.325 0 0.08 0.325 0 0.1 0.325 0 0 0.33 0 0.02 0.33 0 0.04 0.33 0 0.06 0.33 0 0.08 0.33 0 0.1 0.33 0 0 0.335 0 0.02 0.335 0 0.04 0.335 0 0.06 0.335 0 0.08 0.335 0 0.1 0.335 0 0 0.34 0 0.02 0.34 0 0.04 0.34 0 0.06 0.34 0 0.08 0.34 0 0.1 0.34 0 0 0.345 0 0.02 0.345 0 0.04 0.345 0 0.06 0.345 0 0.08 0.345 0 0.1 0.345 0 0 0.35 0 0.02 0.35 0 0.04 0.35 0 0.06 0.35 0 0.08 0.35 0 0.1 0.35 0 0 0.355 0 0.02 0.355 0 0.04 0.355 0 0.06 0.355 0 0.08 0.355 0 0.1 0.355 0 0 0.36 0 0.02 0.36 0 0.04 0.36 0 0.06 0.36 0 0.08 0.36 0 0.1 0.36 0 0 0.365 0 0.02 0.365 0 0.04 0.365 0 0.06 0.365 0 0.08 0.365 0 0.1 0.365 0 0 0.37 0 0.02 0.37 0 0.04 0.37 0 0.06 0.37 0 0.08 0.37 0 0.1 0.37 0 0 0.375 0 0.02 0.375 0 0.04 0.375 0 0.06 0.375 0 0.08 0.375 0 0.1 0.375 0 0 0.38 0 0.02 0.38 0 0.04 0.38 0 0.06 0.38 0 0.08 0.38 0 0.1 0.38 0 0 0.385 0 0.02 0.385 0 0.04 0.385 0 0.06 0.385 0 0.08 0.385 0 0.1 0.385 0 0 0.39 0 0.02 0.39 0 0.04 0.39 0 0.06 0.39 0 0.08 0.39 0 0.1 0.39 0 0 0.395 0 0.02 0.395 0 0.04 0.395 0 0.06 0.395 0 0.08 0.395 0 0.1 0.395 0 0 0.4 0 0.02 0.4 0 0.04 0.4 0 0.06 0.4 0 0.08 0.4 0 0.1 0.4 0 0 0.405 0 0.02 0.405 0 0.04 0.405 0 0.06 0.405 0 0.08 0.405 0 0.1 0.405 0 0 0.41 0 0.02 0.41 0 0.04 0.41 0 0.06 0.41 0 0.08 0.41 0 0.1 0.41 0 0 0.415 0 0.02 0.415 0 0.04 0.415 0 0.06 0.415 0 0.08 0.415 0 0.1 0.415 0 0 0.42 0 0.02 0.42 0 0.04 0.42 0 0.06 0.42 0 0.08 0.42 0 0.1 0.42 0 0 0.425 0 0.02 0.425 0 0.04 0.425 0 0.06 0.425 0 0.08 0.425 0 0.1 0.425 0 0 0.43 0 0.02 0.43 0 0.04 0.43 0 0.06 0.43 0 0.08 0.43 0 0.1 0.43 0 0 0.435 0 0.02 0.435 0 0.04 0.435 0 0.06 0.435 0 0.08 0.435 0 0.1 0.435 0 0 0.44 0 0.02 0.44 0 0.04 0.44 0 0.06 0.44 0 0.08 0.44 0 0.1 0.44 0 0 0.445 0 0.02 0.445 0 0.04 0.445 0 0.06 0.445 0 0.08 0.445 0 0.1 0.445 0 0 0.45 0 0.02 0.45 0 0.04 0.45 0 0.06 0.45 0 0.08 0.45 0 0.1 0.45 0 0 0.455 0 0.02 0.455 0 0.04 0.455 0 0.06 0.455 0 0.08 0.455 0 0.1 0.455 0 0 0.46 0 0.02 0.46 0 0.04 0.46 0 0.06 0.46 0 0.08 0.46 0 0.1 0.46 0 0 0.465 0 0.02 0.465 0 0.04 0.465 0 0.06 0.465 0 0.08 0.465 0 0.1 0.465 0 0 0.47 0 0.02 0.47 0 0.04 0.47 0 0.06 0.47 0 0.08 0.47 0 0.1 0.47 0 0 0.475 0 0.02 0.475 0 0.04 0.475 0 0.06 0.475 0 0.08 0.475 0 0.1 0.475 0 0 0.48 0 0.02 0.48 0 0.04 0.48 0 0.06 0.48 0 0.08 0.48 0 0.1 0.48 0 0 0.485 0 0.02 0.485 0 0.04 0.485 0 0.06 0.485 0 0.08 0.485 0 0.1 0.485 0 0 0.49 0 0.02 0.49 0 0.04 0.49 0 0.06 0.49 0 0.08 0.49 0 0.1 0.49 0 0 0.495 0 0.02 0.495 0 0.04 0.495 0 0.06 0.495 0 0.08 0.495 0 0.1 0.495 0 0 0.5 0 0.02 0.5 0 0.04 0.5 0 0.06 0.5 0 0.08 0.5 0 0.1 0.5 0 0 0.505 0 0.02 0.505 0 0.04 0.505 0 0.06 0.505 0 0.08 0.505 0 0.1 0.505 0 0 0.51 0 0.02 0.51 0 0.04 0.51 0 0.06 0.51 0 0.08 0.51 0 0.1 0.51 0 0 0.515 0 0.02 0.515 0 0.04 0.515 0 0.06 0.515 0 0.08 0.515 0 0.1 0.515 0 0 0.52 0 0.02 0.52 0 0.04 0.52 0 0.06 0.52 0 0.08 0.52 0 0.1 0.52 0 0 0.525 0 0.02 0.525 0 0.04 0.525 0 0.06 0.525 0 0.08 0.525 0 0.1 0.525 0 0 0.53 0 0.02 0.53 0 0.04 0.53 0 0.06 0.53 0 0.08 0.53 0 0.1 0.53 0 0 0.535 0 0.02 0.535 0 0.04 0.535 0 0.06 0.535 0 0.08 0.535 0 0.1 0.535 0 0 0.54 0 0.02 0.54 0 0.04 0.54 0 0.06 0.54 0 0.08 0.54 0 0.1 0.54 0 0 0.545 0 0.02 0.545 0 0.04 0.545 0 0.06 0.545 0 0.08 0.545 0 0.1 0.545 0 0 0.55 0 0.02 0.55 0 0.04 0.55 0 0.06 0.55 0 0.08 0.55 0 0.1 0.55 0 0 0.555 0 0.02 0.555 0 0.04 0.555 0 0.06 0.555 0 0.08 0.555 0 0.1 0.555 0 0 0.56 0 0.02 0.56 0 0.04 0.56 0 0.06 0.56 0 0.08 0.56 0 0.1 0.56 0 0 0.565 0 0.02 0.565 0 0.04 0.565 0 0.06 0.565 0 0.08 0.565 0 0.1 0.565 0 0 0.57 0 0.02 0.57 0 0.04 0.57 0 0.06 0.57 0 0.08 0.57 0 0.1 0.57 0 0 0.575 0 0.02 0.575 0 0.04 0.575 0 0.06 0.575 0 0.08 0.575 0 0.1 0.575 0 0 0.58 0 0.02 0.58 0 0.04 0.58 0 0.06 0.58 0 0.08 0.58 0 0.1 0.58 0 0 0.585 0 0.02 0.585 0 0.04 0.585 0 0.06 0.585 0 0.08 0.585 0 0.1 0.585 0 0 0.59 0 0.02 0.59 0 0.04 0.59 0 0.06 0.59 0 0.08 0.59 0 0.1 0.59 0 0 0.595 0 0.02 0.595 0 0.04 0.595 0 0.06 0.595 0 0.08 0.595 0 0.1 0.595 0 0 0.6 0 0.02 0.6 0 0.04 0.6 0 0.06 0.6 0 0.08 0.6 0 0.1 0.6 0 0 0.605 0 0.02 0.605 0 0.04 0.605 0 0.06 0.605 0 0.08 0.605 0 0.1 0.605 0 0 0.61 0 0.02 0.61 0 0.04 0.61 0 0.06 0.61 0 0.08 0.61 0 0.1 0.61 0 0 0.615 0 0.02 0.615 0 0.04 0.615 0 0.06 0.615 0 0.08 0.615 0 0.1 0.615 0 0 0.62 0 0.02 0.62 0 0.04 0.62 0 0.06 0.62 0 0.08 0.62 0 0.1 0.62 0 0 0.625 0 0.02 0.625 0 0.04 0.625 0 0.06 0.625 0 0.08 0.625 0 0.1 0.625 0 0 0.63 0 0.02 0.63 0 0.04 0.63 0 0.06 0.63 0 0.08 0.63 0 0.1 0.63 0 0 0.635 0 0.02 0.635 0 0.04 0.635 0 0.06 0.635 0 0.08 0.635 0 0.1 0.635 0 0 0.64 0 0.02 0.64 0 0.04 0.64 0 0.06 0.64 0 0.08 0.64 0 0.1 0.64 0 0 0.645 0 0.02 0.645 0 0.04 0.645 0 0.06 0.645 0 0.08 0.645 0 0.1 0.645 0 0 0.65 0 0.02 0.65 0 0.04 0.65 0 0.06 0.65 0 0.08 0.65 0 0.1 0.65 0 0 0.655 0 0.02 0.655 0 0.04 0.655 0 0.06 0.655 0 0.08 0.655 0 0.1 0.655 0 0 0.66 0 0.02 0.66 0 0.04 0.66 0 0.06 0.66 0 0.08 0.66 0 0.1 0.66 0 0 0.665 0 0.02 0.665 0 0.04 0.665 0 0.06 0.665 0 0.08 0.665 0 0.1 0.665 0 0 0.67 0 0.02 0.67 0 0.04 0.67 0 0.06 0.67 0 0.08 0.67 0 0.1 0.67 0 0 0.675 0 0.02 0.675 0 0.04 0.675 0 0.06 0.675 0 0.08 0.675 0 0.1 0.675 0 0 0.68 0 0.02 0.68 0 0.04 0.68 0 0.06 0.68 0 0.08 0.68 0 0.1 0.68 0 0 0.685 0 0.02 0.685 0 0.04 0.685 0 0.06 0.685 0 0.08 0.685 0 0.1 0.685 0 0 0.69 0 0.02 0.69 0 0.04 0.69 0 0.06 0.69 0 0.08 0.69 0 0.1 
[...]
			<PointData Scalars="VitesseX">
				<DataArray Name="VitesseX" type="Float32" format="ascii">
 0 2.94547e-14 1.79945e-14 4.30196e-14 5.29546e-15 0 0 2.35147e-14 2.48288e-14 3.57762e-14 1.12287e-14 0 0 1.52711e-14 3.15495e-14 2.34996e-14 2.61838e-14 0 0 1.9575e-14 1.51239e-14 4.12471e-14 1.72299e-14 0 0 1.51303e-14 2.0181e-14 4.11032e-14 1.24187e-14 0 0 -5.79755e-15 5.15031e-14 1.09144e-14 3.1306e-14 0 0 -3.87725e-15 3.39035e-14 3.10555e-14 2.14605e-14 0 0 4.92454e-15 1.1426e-14 4.2973e-14 2.11273e-14 0 0 4.75306e-15 3.34672e-15 4.49258e-14 2.45977e-14 0 0 -9.71869e-15 1.56035e-14 3.719e-14 2.711e-14 0 0 -5.17875e-15 4.3715e-15 4.91536e-14 1.88499e-14 0 0 3.8099e-15 -3.51476e-15 5.21474e-14 1.30848e-14 0 0 3.69847e-14 -4.0536e-14 7.40414e-14 5.95948e-15 0 0 3.1252e-14 -1.79101e-14 3.7968e-14 4.31208e-14 0 0 2.2458e-15 3.82798e-14 -1.23422e-14 7.91703e-14 0 0 1.8928e-14 1.14544e-14 3.08423e-14 5.4435e-14 0 0 1.35878e-14 1.47217e-14 4.45846e-14 4.17739e-14 0 0 2.09913e-14 1.87031e-14 5.87267e-14 6.97581e-15 0 0 2.58272e-14 4.2514e-14 3.488e-14 4.44943e-15 0 0 7.63582e-15 8.91599e-14 -1.2258e-14 3.17905e-14 0 0 4.90181e-14 3.02816e-14 4.7129e-14 -8.77552e-15 0 0 5.94387e-14 1.04131e-15 9.60748e-14 -5.23401e-14 0 0 -1.76652e-14 1.02244e-13 1.08607e-14 -1.12305e-14 0 0 -4.35821e-14 1.42737e-13 -5.44182e-14 3.12418e-14 0 0 3.28088e-14 1.48146e-14 5.89714e-14 -3.67097e-14 0 0 7.86124e-14 -6.90011e-14 1.17802e-13 -5.08015e-14 0 0 4.42895e-14 -1.78675e-14 4.50027e-14 9.87626e-15 0 0 2.1704e-14 2.31089e-14 -3.39939e-15 4.70696e-14 0 0 9.79105e-15 4.90883e-14 -2.74951e-14 8.22918e-14 0 0 4.25397e-14 8.20588e-15 3.08563e-14 3.42342e-14 0 0 1.38194e-14 4.66407e-14 1.87005e-14 4.75607e-14 0 0 -1.68829e-14 6.58182e-14 5.58891e-14 2.06687e-14 0 0 4.84165e-14 -1.27366e-14 1.25861e-13 -1.73377e-14 0 0 2.34504e-14 5.79336e-14 4.3026e-14 6.60008e-14 0 0 -2.06093e-14 1.57881e-13 -4.54799e-14 1.35743e-13 0 0 2.84178e-14 1.10032e-13 -3.28545e-16 1.18518e-13 0 0 5.6873e-14 5.45537e-14 7.57509e-14 9.0768e-14 0 0 6.0564e-14 4.47503e-14 7.80443e-14 1.53262e-13 0 0 8.47439e-14 3.17835e-15 1.39782e-13 1.16306e-13 0 0 1.42874e-14 9.27001e-14 9.93083e-14 9.12876e-14 0 0 -8.10711e-14 1.67657e-13 6.96423e-14 9.09407e-14 0 0 -1.3479e-13 1.61598e-13 1.04606e-13 7.18541e-14 0 0 -1.88281e-13 2.04839e-13 6.59594e-14 8.79259e-14 0 0 -1.66981e-13 1.4411e-13 1.39112e-13 2.57857e-14 0 0 -7.98781e-14 1.55188e-14 2.37099e-13 -2.91034e-14 0 0 -7.27117e-14 5.06857e-14 1.84727e-13 -2.89429e-14 0 0 -1.13736e-13 9.9948e-14 1.71924e-13 -4.31497e-14 0 0 -1.14624e-13 6.13356e-14 2.51047e-13 -1.17643e-13 0 0 -1.30005e-13 1.26332e-13 1.60665e-13 -1.01282e-13 0 0 -1.50073e-13 2.24127e-13 -1.92093e-14 5.48857e-14 0 0 -5.00117e-14 1.09099e-13 9.98044e-14 1.37793e-14 0 0 -4.27096e-14 8.65758e-14 1.98053e-13 -2.54036e-14 0 0 -2.36107e-13 3.33855e-13 3.37887e-14 1.18659e-13 0 0 -1.12895e-13 2.07977e-13 1.50263e-13 7.67002e-14 0 0 6.82996e-14 4.00691e-14 2.26755e-13 7.3682e-14 0 0 -5.11381e-14 2.24171e-13 5.75476e-14 1.92503e-13 0 0 -2.66392e-14 1.19104e-13 2.25477e-13 8.23633e-14 0 0 -9.39275e-15 7.24333e-14 2.65758e-13 5.62978e-14 0 0 -7.59959e-14 2.10115e-13 1.36344e-13 7.74842e-14 0 0 4.77044e-14 6.40505e-14 2.80785e-13 -6.76248e-14 0 0 4.45337e-14 9.34246e-14 2.43477e-13 -3.19684e-15 0 0 4.58502e-14 1.34485e-13 1.49185e-13 1.7006e-13 0 0 1.39397e-14 1.62059e-13 1.43935e-13 2.17191e-13 0 0 -5.01236e-14 1.94675e-13 1.84038e-13 1.9196e-13 0 0 -8.28206e-14 1.71311e-13 2.26103e-13 1.83122e-13 0 0 -9.85765e-14 1.79548e-13 2.30821e-13 2.17355e-13 0 0 -2.75316e-15 1.26345e-13 2.54035e-13 2.28634e-13 0 0 2.14314e-14 2.01918e-13 1.41215e-13 2.56665e-13 0 0 5.30797e-14 1.38142e-13 2.29011e-13 1.41027e-13 0 0 -8.80837e-14 1.7342e-13 2.73224e-13 1.32781e-13 0 0 -2.70646e-13 3.69133e-13 1.26286e-13 2.96213e-13 0 0 -1.97578e-13 2.14222e-13 3.37448e-13 2.11523e-13 0 0 -1.25362e-13 3.08368e-14 6.26192e-13 2.53928e-14 0 0 -8.17869e-15 -5.78368e-14 6.88424e-13 -1.18931e-13 0 0 -1.1459e-13 2.34417e-13 3.08027e-13 -3.97906e-14 0 0 -4.26752e-13 6.42681e-13 5.95362e-14 -1.67386e-14 0 0 -2.02862e-13 2.47729e-13 5.20668e-13 -2.14102e-13 0 0 -1.50964e-17 -2.90893e-14 6.1894e-13 -7.61819e-14 0 0 -8.47243e-14 1.00349e-13 5.30711e-13 -2.18885e-14 0 0 -2.68361e-13 5.22937e-13 2.23623e-13 6.99004e-14 0 0 -2.13824e-14 3.46322e-13 3.04209e-13 6.49196e-16 0 0 3.68407e-13 -1.28104e-13 6.56357e-13 -2.54369e-13 0 0 3.30744e-13 1.11526e-13 3.19756e-13 1.22419e-14 0 0 2.56049e-13 4.09044e-13 -2.26946e-13 4.99015e-13 0 0 4.07208e-13 2.02323e-13 -4.03021e-14 3.98749e-13 0 0 5.01301e-13 -2.18243e-13 5.63761e-13 -3.41105e-14 0 0 3.34279e-13 -1.57997e-13 7.02338e-13 -3.47595e-13 0 0 -9.20489e-14 3.55776e-13 4.32123e-13 -2.53924e-13 0 0 -1.70021e-13 6.60319e-13 3.3869e-14 -7.49411e-14 0 0 2.77323e-14 5.84761e-13 -1.00568e-13 8.87363e-14 0 0 3.10078e-13 4.19405e-13 -1.52163e-13 2.18127e-13 0 0 4.93806e-13 2.7801e-13 -1.69029e-13 3.81111e-13 0 0 6.28356e-13 1.66176e-13 -1.54961e-13 4.94803e-13 0 0 6.26888e-13 1.48534e-13 -1.32393e-13 5.09045e-13 0 0 5.77463e-13 1.78622e-13 -6.01348e-14 4.55822e-13 0 0 4.90897e-13 2.25424e-13 9.02119e-14 3.21939e-13 0 0 3.9784e-13 2.86664e-13 2.18871e-13 1.72008e-13 0 0 3.40205e-13 3.44792e-13 2.75885e-13 1.02475e-13 0 0 2.94736e-13 3.81828e-13 2.78405e-13 1.14113e-13 0 0 2.29841e-13 4.32853e-13 2.36446e-13 1.54652e-13 0 0 1.2621e-13 5.27075e-13 2.21881e-13 1.50406e-13 0 0 7.19814e-14 5.87915e-13 2.47272e-13 1.037e-13 0 0 6.51661e-14 6.03882e-13 2.94642e-13 -3.68731e-15 0 0 7.37502e-14 6.01906e-13 3.53508e-13 -1.483e-13 0 0 1.14142e-13 5.62845e-13 4.04313e-13 -2.22869e-13 0 0 1.8052e-13 4.99217e-13 4.0256e-13 -2.32313e-13 0 0 2.06441e-13 5.00572e-13 3.82467e-13 -2.16199e-13 0 0 2.07487e-13 5.0739e-13 3.72258e-13 -1.79996e-13 0 0 1.76625e-13 5.06074e-13 3.8539e-13 -1.44517e-13 0 0 1.10121e-13 5.05935e-13 3.71438e-13 -7.10993e-14 0 0 4.45271e-14 5.08758e-13 3.84614e-13 -6.31968e-14 0 0 -1.31127e-14 5.14592e-13 4.02023e-13 -6.30994e-14 0 0 -6.52471e-14 5.36547e-13 3.73895e-13 -2.62207e-14 0 0 -8.60819e-14 5.91059e-13 2.99571e-13 2.47842e-14 0 0 -7.22762e-14 6.22443e-13 1.56445e-13 1.27818e-13 0 0 -3.05687e-14 6.22751e-13 3.2422e-14 2.30594e-13 0 0 8.66256e-15 6.15828e-13 -3.21218e-15 2.50705e-13 0 0 4.60239e-14 5.75523e-13 1.21098e-14 2.37034e-13 0 0 8.8076e-14 4.73257e-13 8.08898e-14 2.07961e-13 0 0 9.56913e-14 3.71675e-13 1.75782e-13 1.82102e-13 0 0 9.11411e-14 2.61312e-13 3.01028e-13 1.58564e-13 0 0 1.00037e-13 1.75215e-13 3.33115e-13 1.87669e-13 0 0 7.99079e-14 2.17965e-13 2.44677e-13 3.00898e-13 0 0 5.56283e-14 1.95132e-13 2.85416e-13 2.97853e-13 0 0 7.43529e-14 1.49786e-13 3.48274e-13 2.12967e-13 0 0 8.63924e-14 1.35108e-13 3.61969e-13 1.77091e-13 0 0 6.83405e-14 1.58165e-13 3.40521e-13 1.89112e-13 0 0 7.13754e-14 2.17742e-13 2.59401e-13 1.70648e-13 0 0 1.08055e-13 1.91546e-13 2.91635e-13 6.1521e-14 0 0 1.05467e-13 2.01618e-13 3.03554e-13 4.77426e-14 0 0 7.25634e-14 2.62097e-13 2.30684e-13 8.37378e-14 0 0 5.7317e-14 2.84072e-13 2.17653e-13 5.61653e-14 0 0 6.50571e-14 2.81657e-13 2.19219e-13 8.20611e-14 0 0 9.26029e-14 2.47078e-13 1.66243e-13 2.57174e-13 0 0 1.24469e-13 2.01443e-13 2.30655e-13 3.16921e-13 0 0 1.1661e-13 2.34163e-13 3.24204e-13 1.91866e-13 0 0 1.44374e-13 3.10441e-13 2.89889e-13 4.9674e-14 0 0 2.07005e-13 2.63078e-13 3.53896e-13 1.62095e-14 0 0 1.9115e-13 2.74811e-13 4.38605e-13 9.13126e-14 0 0 1.92937e-13 3.97979e-13 3.40836e-13 2.11096e-13 0 0 2.15859e-13 4.10682e-13 3.60639e-13 1.71404e-13 0 0 1.94311e-13 4.50094e-13 3.53605e-13 1.11656e-13 0 0 2.0383e-13 4.60148e-13 2.87557e-13 1.5108e-13 0 0 1.86868e-13 4.45472e-13 3.22967e-13 1.48997e-13 0 0 2.38435e-13 3.53373e-13 4.42978e-13 9.95283e-14 0 0 3.05178e-13 2.35859e-13 5.50392e-13 6.04048e-14 0 0 1.53256e-13 4.3493e-13 3.59224e-13 1.7344e-13 0 0 1.13715e-13 4.72229e-13 3.40394e-13 2.27214e-13 0 0 1.64766e-13 3.98681e-13 4.49839e-13 1.44857e-13 0 0 2.15142e-13 3.1193e-13 5.66418e-13 5.96041e-14 0 0 2.71289e-13 2.30921e-13 6.79116e-13 8.15258e-15 0 0 1.71907e-13 4.61082e-13 4.44665e-13 1.63913e-13 0 0 1.82797e-13 5.14704e-13 3.55083e-13 3.13229e-13 0 0 1.5535e-13 5.7619e-13 3.70037e-13 3.67304e-13 0 0 1.89379e-13 5.2232e-13 4.95845e-13 3.71334e-13 0 0 2.53484e-13 5.08131e-13 4.93151e-13 4.76387e-13 0 0 1.77512e-13 7.9048e-13 2.22077e-13 6.20408e-13 0 0 2.23086e-13 8.81552e-13 1.57555e-13 6.22343e-13 0 0 4.39372e-13 6.17199e-13 5.0712e-13 3.06353e-13 0 0 5.92764e-13 3.6065e-13 9.56028e-13 -1.3706e-13 0 0 3.94872e-13 6.63841e-13 7.38118e-13 5.23129e-14 0 0 2.23811e-13 1.03732e-12 2.43378e-13 4.76738e-13 0 0 1.71591e-13 1.13184e-12 2.78888e-13 3.39536e-13 0 0 2.53582e-13 9.45762e-13 5.42656e-13 1.41207e-13 0 0 5.55966e-13 5.24922e-13 7.15032e-13 1.0818e-13 0 0 6.64261e-13 5.50389e-13 4.82918e-13 2.69668e-13 0 0 5.5347e-13 7.3304e-13 3.80351e-13 2.5608e-13 0 0 3.34264e-13 8.59827e-13 4.19876e-13 1.75119e-13 0 0 1.47897e-13 1.12985e-12 1.67284e-13 2.53336e-13 0 0 4.6957e-13 6.94143e-13 6.21481e-13 -1.26527e-13 0 0 5.95489e-13 6.3203e-13 4.47546e-13 1.28195e-13 0 0 5.56778e-13 6.95249e-13 2.80574e-13 3.1005e-13 0 0 7.14092e-13 3.46562e-13 8.32235e-13 -7.12517e-14 0 0 4.86711e-13 7.35874e-13 5.18375e-13 1.78062e-13 0 0 4.12429e-13 8.6655e-13 4.56152e-13 2.54904e-13 0 0 3.77467e-13 9.70854e-13 4.91852e-13 2.81768e-13 0 0 4.45167e-13 9.2227e-13 5.99408e-13 2.52496e-13 0 0 6.88442e-13 4.73762e-13 8.67468e-13 1.86517e-13 0 0 4.25782e-13 7.43364e-13 5.25132e-13 4.89324e-13 0 0 3.61053e-13 7.31268e-13 6.64924e-13 3.23584e-13 0 0 5.75559e-13 3.50109e-13 9.77717e-13 1.53859e-13 0 0 5.66712e-13 3.81955e-13 7.46787e-13 4.49617e-13 0 0 5.01778e-13 6.08004e-13 4.43273e-13 6.4656e-13 0 0 4.48723e-13 6.98093e-13 4.71173e-13 5.21414e-13 0 0 3.8464e-13 7.09772e-13 5.04411e-13 5.029e-13 0 0 2.83163e-13 7.62553e-13 4.59748e-13 5.88752e-13 0 0 2.97122e-13 4.67204e-13 8.77025e-13 3.47161e-13 0 0 3.59679e-13 3.17315e-13 9.87657e-13 2.94891e-13 0 0 2.25182e-13 7.06378e-13 5.07112e-13 5.76605e-13 0 0 2.07013e-13 6.4888e-13 6.89606e-13 3.50906e-13 0 0 4.10251e-13 1.16095e-13 1.38701e-12 -1.13394e-13 0 0 4.48776e-13 2.39366e-13 1.04721e-12 2.43236e-13 0 0 4.88027e-13 5.82842e-13 3.1655e-13 7.68296e-13 0 0 2.48684e-13 9.52947e-13 1.89162e-13 6.33394e-13 0 0 2.25026e-13 8.33349e-13 6.80561e-13 1.6466e-13 0 0 4.75877e-13 2.71793e-13 1.39765e-12 -3.49222e-13 0 0 1.55008e-13 5.47729e-13 1.24794e-12 -3.74266e-13 0 0 -2.07487e-14 9.20213e-13 6.25945e-13 9.75521e-14 0 0 1.75928e-13 6.84709e-13 6.9582e-13 2.55656e-13 0 0 6.27027e-13 -7.19183e-14 1.5721e-12 -2.26137e-13 0 0 9.68442e-13 -5.72766e-13 2.13417e-12 -6.06086e-13 0
				</DataArray>
				<DataArray Name="VitesseY" type="Float32" format="ascii">