<?xml version="1.0"?>
<VTKFile type="PolyData">
	<PolyData>
		<Piece NumberOfPoints="1206" NumberOfPolys="1000">
			<Points>
				<DataArray type="Float32" NumberOfComponents="3" format="ascii">
 0 0 0 0.02 0 0 0.04 0 0 0.06 0 0 0.08 0 0 0.1 0 0 0 0.005 0 0.02 0.005 0 0.04 0.005 0 0.06 0.005 0 0.08 0.005 0 0.1 0.005 0 0 0.01 0 0.02 0.01 0 0.04 0.01 0 0.06 0.01 0 0.08 0.01 0 0.1 0.01 0 0 0.015 0 0.02 0.015 0 0.04 0.015 0 0.06 0.015 0 0.08 0.015 0 0.1 0.015 0 0 0.02 0 0.02 0.02 0 0.04 0.02 0 0.06 0.02 0 0.08 0.02 0 0.1 0.02 0 0 0.025 0 0.02 0.025 0 0.04 0.025 0 0.06 0.025 0 0.08 0.025 0 0.1 0.025 0 0 0.03 0 0.02 0.03 0 0.04 0.03 0 0.06 0.03 0 0.08 0.03 0 0.1 0.03 0 0 0.035 0 0.02 0.035 0 0.04 0.035 0 0.06 0.035 0 0.08 0.035 0 0.1 0.035 0 0 0.04 0 0.02 0.04 0 0.04 0.04 0 0.06 0.04 0 0.08 0.04 0 0.1 0.04 0 0 0.045 0 0.02 0.045 0 0.04 0.045 0 0.06 0.045 0 0.08 0.045 0 0.1 0.045 0 0 0.05 0 0.02 0.05 0 0.04 0.05 0 0.06 0.05 0 0.08 0.05 0 0.1 0.05 0 0 0.055 0 0.02 0.055 0 0.04 0.055 0 0.06 0.055 0 0.08 0.055 0 0.1 0.055 0 0 0.06 0 0.02 0.06 0 0.04 0.06 0 0.06 0.06 0 0.08 0.06 0 0.1 0.06 0 0 0.065 0 0.02 0.065 0 0.04 0.065 0 0.06 0.065 0 0.08 0.065 0 0.1 0.065 0 0 0.07 0 0.02 0.07 0 0.04 0.07 0 0.06 0.07 0 0.08 0.07 0 0.1 0.07 0 0 0.075 0 0.02 0.075 0 0.04 0.075 0 0.06 0.075 0 0.08 0.075 0 0.1 0.075 0 0 0.08 0 0.02 0.08 0 0.04 0.08 0 0.06 0.08 0 0.08 0.08 0 0.1 0.08 0 0 0.085 0 0.02 0.085 0 0.04 0.085 0 0.06 0.085 0 0.08 0.085 0 0.1 0.085 0 0 0.09 0 0.02 0.09 0 0.04 0.09 0 0.06 0.09 0 0.08 0.09 0 0.1 0.09 0 0 0.095 0 0.02 0.095 0 0.04 0.095 0 0.06 0.095 0 0.08 0.095 0 0.1 0.095 0 0 0.1 0 0.02 0.1 0 0.04 0.1 0 0.06 0.1 0 0.08 0.1 0 0.1 0.1 0 0 0.105 0 0.02 0.105 0 0.04 0.105 0 0.06 0.105 0 0.08 0.105 0 0.1 0.105 0 0 0.11 0 0.02 0.11 0 0.04 0.11 0 0.06 0.11 0 0.08 0.11 0 0.1 0.11 0 0 0.115 0 0.02 0.115 0 0.04 0.115 0 0.06 0.115 0 0.08 0.115 0 0.1 0.115 0 0 0.12 0 0.02 0.12 0 0.04 0.12 0 0.06 0.12 0 0.08 0.12 0 0.1 0.12 0 0 0.125 0 0.02 0.125 0 0.04 0.125 0 0.06 0.125 0 0.08 0.125 0 0.1 0.125 0 0 0.13 0 0.02 0.13 0 0.04 0.13 0 0.06 0.13 0 0.08 0.13 0 0.1 0.13 0 0 0.135 0 0.02 0.135 0 0.04 0.135 0 0.06 0.135 0 0.08 0.135 0 0.1 0.135 0 0 0.14 0 0.02 0.14 0 0.04 0.14 0 0.06 0.14 0 0.08 0.14 0 0.1 0.14 0 0 0.145 0 0.02 0.145 0 0.04 0.145 0 0.06 0.145 0 0.08 0.145 0 0.1 0.145 0 0 0.15 0 0.02 0.15 0 0.04 0.15 0 0.06 0.15 0 0.08 0.15 0 0.1 0.15 0 0 0.155 0 0.02 0.155 0 0.04 0.155 0 0.06 0.155 0 0.08 0.155 0 0.1 0.155 0 0 0.16 0 0.02 0.16 0 0.04 0.16 0 0.06 0.16 0 0.08 0.16 0 0.1 0.16 0 0 0.165 0 0.02 0.165 0 0.04 0.165 0 0.06 0.165 0 0.08 0.165 0 0.1 0.165 0 0 0.17 0 0.02 0.17 0 0.04 0.17 0 0.06 0.17 0 0.08 0.17 0 0.1 0.17 0 0 0.175 0 0.02 0.175 0 0.04 0.175 0 0.06 0.175 0 0.08 0.175 0 0.1 0.175 0 0 0.18 0 0.02 0.18 0 0.04 0.18 0 0.06 0.18 0 0.08 0.18 0 0.1 0.18 0 0 0.185 0 0.02 0.185 0 0.04 0.185 0 0.06 0.185 0 0.08 0.185 0 0.1 0.185 0 0 0.19 0 0.02 0.19 0 0.04 0.19 0 0.06 0.19 0 0.08 0.19 0 0.1 0.19 0 0 0.195 0 0.02 0.195 0 0.04 0.195 0 0.06 0.195 0 0.08 0.195 0 0.1 0.195 0 0 0.2 0 0.02 0.2 0 0.04 0.2 0 0.06 0.2 0 0.08 0.2 0 0.1 0.2 0 0 0.205 0 0.02 0.205 0 0.04 0.205 0 0.06 0.205 0 0.08 0.205 0 0.1 0.205 0 0 0.21 0 0.02 0.21 0 0.04 0.21 0 0.06 0.21 0 0.08 0.21 0 0.1 0.21 0 0 0.215 0 0.02 0.215 0 0.04 0.215 0 0.06 0.215 0 0.08 0.215 0 0.1 0.215 0 0 0.22 0 0.02 0.22 0 0.04 0.22 0 0.06 0.22 0 0.08 0.22 0 0.1 0.22 0 0 0.225 0 0.02 0.225 0 0.04 0.225 0 0.06 0.225 0 0.08 0.225 0 0.1 0.225 0 0 0.23 0 0.02 0.23 0 0.04 0.23 0 0.06 0.23 0 0.08 0.23 0 0.1 0.23 0 0 0.235 0 0.02 0.235 0 0.04 0.235 0 0.06 0.235 0 0.08 0.235 0 0.1 0.235 0 0 0.24 0 0.02 0.24 0 0.04 0.24 0 0.06 0.24 0 0.08 0.24 0 0.1 0.24 0 0 0.245 0 0.02 0.245 0 0.04 0.245 0 0.06 0.245 0 0.08 0.245 0 0.1 0.245 0 0 0.25 0 0.02 0.25 0 0.04 0.25 0 0.06 0.25 0 0.08 0.25 0 0.1 0.25 0 0 0.255 0 0.02 0.255 0 0.04 0.255 0 0.06 0.255 0 0.08 0.255 0 0.1 0.255 0 0 0.26 0 0.02 0.26 0 0.04 0.26 0 0.06 0.26 0 0.08 0.26 0 0.1 0.26 0 0 0.265 0 0.02 0.265 0 0.04 0.265 0 0.06 0.265 0 0.08 0.265 0 0.1 0.265 0 0 0.27 0 0.02 0.27 0 0.04 0.27 0 0.06 0.27 0 0.08 0.27 0 0.1 0.27 0 0 0.275 0 0.02 0.275 0 0.04 0.275 0 0.06 0.275 0 0.08 0.275 0 0.1 0.275 0 0 0.28 0 0.02 0.28 0 0.04 0.28 0 0.06 0.28 0 0.08 0.28 0 0.1 0.28 0 0 0.285 0 0.02 0.285 0 0.04 0.285 0 0.06 0.285 0 0.08 0.285 0 0.1 0.285 0 0 0.29 0 0.02 0.29 0 0.04 0.29 0 0.06 0.29 0 0.08 0.29 0 0.1 0.29 0 0 0.295 0 0.02 0.295 0 0.04 0.295 0 0.06 0.295 0 0.08 0.295 0 0.1 0.295 0 0 0.3 0 0.02 0.3 0 0.04 0.3 0 0.06 0.3 0 0.08 0.3 0 0.1 0.3 0 0 0.305 0 0.02 0.305 0 0.04 0.305 0 0.06 0.305 0 0.08 0.305 0 0.1 0.305 0 0 0.31 0 0.02 0.31 0 0.04 0.31 0 0.06 0.31 0 0.08 0.31 0 0.1 0.31 0 0 0.315 0 0.02 0.315 0 0.04 0.315 0 0.06 0.315 0 0.08 0.315 0 0.1 0.315 0 0 0.32 0 0.02 0.32 0 0.04 0.32 0 0.06 0.32 0 0.08 0.32 0 0.1 0.32 0 0 0.325 0 0.02 0.325 0 0.04 0.325 0 0.06 0.325 0 0.08 0.325 0 0.1 0.325 0 0 0.33 0 0.02 0.33 0 0.04 0.33 0 0.06 0.33 0 0.08 0.33 0 0.1 0.33 0 0 0.335 0 0.02 0.335 0 0.04 0.335 0 0.06 0.335 0 0.08 0.335 0 0.1 0.335 0 0 0.34 0 0.02 0.34 0 0.04 0.34 0 0.06 0.34 0 0.08 0.34 0 0.1 0.34 0 0 0.345 0 0.02 0.345 0 0.04 0.345 0 0.06 0.345 0 0.08 0.345 0 0.1 0.345 0 0 0.35 0 0.02 0.35 0 0.04 0.35 0 0.06 0.35 0 0.08 0.35 0 0.1 0.35 0 0 0.355 0 0.02 0.355 0 0.04 0.355 0 0.06 0.355 0 0.08 0.355 0 0.1 0.355 0 0 0.36 0 0.02 0.36 0 0.04 0.36 0 0.06 0.36 0 0.08 0.36 0 0.1 0.36 0 0 0.365 0 0.02 0.365 0 0.04 0.365 0 0.06 0.365 0 0.08 0.365 0 0.1 0.365 0 0 0.37 0 0.02 0.37 0 0.04 0.37 0 0.06 0.37 0 0.08 0.37 0 0.1 0.37 0 0 0.375 0 0.02 0.375 0 0.04 0.375 0 0.06 0.375 0 0.08 0.375 0 0.1 0.375 0 0 0.38 0 0.02 0.38 0 0.04 0.38 0 0.06 0.38 0 0.08 0.38 0 0.1 0.38 0 0 0.385 0 0.02 0.385 0 0.04 0.385 0 0.06 0.385 0 0.08 0.385 0 0.1 0.385 0 0 0.39 0 0.02 0.39 0 0.04 0.39 0 0.06 0.39 0 0.08 0.39 0 0.1 0.39 0 0 0.395 0 0.02 0.395 0 0.04 0.395 0 0.06 0.395 0 0.08 0.395 0 0.1 0.395 0 0 0.4 0 0.02 0.4 0 0.04 0.4 0 0.06 0.4 0 0.08 0.4 0 0.1 0.4 0 0 0.405 0 0.02 0.405 0 0.04 0.405 0 0.06 0.405 0 0.08 0.405 0 0.1 0.405 0 0 0.41 0 0.02 0.41 0 0.04 0.41 0 0.06 0.41 0 0.08 0.41 0 0.1 0.41 0 0 0.415 0 0.02 0.415 0 0.04 0.415 0 0.06 0.415 0 0.08 0.415 0 0.1 0.415 0 0 0.42 0 0.02 0.42 0 0.04 0.42 0 0.06 0.42 0 0.08 0.42 0 0.1 0.42 0 0 0.425 0 0.02 0.425 0 0.04 0.425 0 0.06 0.425 0 0.08 0.425 0 0.1 0.425 0 0 0.43 0 0.02 0.43 0 0.04 0.43 0 0.06 0.43 0 0.08 0.43 0 0.1 0.43 0 0 0.435 0 0.02 0.435 0 0.04 0.435 0 0.06 0.435 0 0.08 0.435 0 0.1 0.435 0 0 0.44 0 0.02 0.44 0 0.04 0.44 0 0.06 0.44 0 0.08 0.44 0 0.1 0.44 0 0 0.445 0 0.02 0.445 0 0.04 0.445 0 0.06 0.445 0 0.08 0.445 0 0.1 0.445 0 0 0.45 0 0.02 0.45 0 0.04 0.45 0 0.06 0.45 0 0.08 0.45 0 0.1 0.45 0 0 0.455 0 0.02 0.455 0 0.04 0.455 0 0.06 0.455 0 0.08 0.455 0 0.1 0.455 0 0 0.46 0 0.02 0.46 0 0.04 0.46 0 0.06 0.46 0 0.08 0.46 0 0.1 0.46 0 0 0.465 0 0.02 0.465 0 0.04 0.465 0 0.06 0.465 0 0.08 0.465 0 0.1 0.465 0 0 0.47 0 0.02 0.47 0 0.04 0.47 0 0.06 0.47 0 0.08 0.47 0 0.1 0.47 0 0 0.475 0 0.02 0.475 0 0.04 0.475 0 0.06 0.475 0 0.08 0.475 0 0.1 0.475 0 0 0.48 0 0.02 0.48 0 0.04 0.48 0 0.06 0.48 0 0.08 0.48 0 0.1 0.48 0 0 0.485 0 0.02 0.485 0 0.04 0.485 0 0.06 0.485 0 0.08 0.485 0 0.1 0.485 0 0 0.49 0 0.02 0.49 0 0.04 0.49 0 0.06 0.49 0 0.08 0.49 0 0.1 0.49 0 0 0.495 0 0.02 0.495 0 0.04 0.495 0 0.06 0.495 0 0.08 0.495 0 0.1 0.495 0 0 0.5 0 0.02 0.5 0 0.04 0.5 0 0.06 0.5 0 0.08 0.5 0 0.1 0.5 0 0 0.505 0 0.02 0.505 0 0.04 0.505 0 0.06 0.505 0 0.08 0.505 0 0.1 0.505 0 0 0.51 0 0.02 0.51 0 0.04 0.51 0 0.06 0.51 0 0.08 0.51 0 0.1 0.51 0 0 0.515 0 0.02 0.515 0 0.04 0.515 0 0.06 0.515 0 0.08 0.515 0 0.1 0.515 0 0 0.52 0 0.02 0.52 0 0.04 0.52 0 0.06 0.52 0 0.08 0.52 0 0.1 0.52 0 0 0.525 0 0.02 0.525 0 0.04 0.525 0 0.06 0.525 0 0.08 0.525 0 0.1 0.525 0 0 0.53 0 0.02 0.53 0 0.04 0.53 0 0.06 0.53 0 0.08 0.53 0 0.1 0.53 0 0 0.535 0 0.02 0.535 0 0.04 0.535 0 0.06 0.535 0 0.08 0.535 0 0.1 0.535 0 0 0.54 0 0.02 0.54 0 0.04 0.54 0 0.06 0.54 0 0.08 0.54 0 0.1 0.54 0 0 0.545 0 0.02 0.545 0 0.04 0.545 0 0.06 0.545 0 0.08 0.545 0 0.1 0.545 0 0 0.55 0 0.02 0.55 0 0.04 0.55 0 0.06 0.55 0 0.08 0.55 0 0.1 0.55 0 0 0.555 0 0.02 0.555 0 0.04 0.555 0 0.06 0.555 0 0.08 0.555 0 0.1 0.555 0 0 0.56 0 0.02 0.56 0 0.04 0.56 0 0.06 0.56 0 0.08 0.56 0 0.1 0.56 0 0 0.565 0 0.02 0.565 0 0.04 0.565 0 0.06 0.565 0 0.08 0.565 0 0.1 0.565 0 0 0.57 0 0.02 0.57 0 0.04 0.57 0 0.06 0.57 0 0.08 0.57 0 0.1 0.57 0 0 0.575 0 0.02 0.575 0 0.04 0.575 0 0.06 0.575 0 0.08 0.575 0 0.1 0.575 0 0 0.58 0 0.02 0.58 0 0.04 0.58 0 0.06 0.58 0 0.08 0.58 0 0.1 0.58 0 0 0.585 0 0.02 0.585 0 0.04 0.585 0 0.06 0.585 0 0.08 0.585 0 0.1 0.585 0 0 0.59 0 0.02 0.59 0 0.04 0.59 0 0.06 0.59 0 0.08 0.59 0 0.1 0.59 0 0 0.595 0 0.02 0.595 0 0.04 0.595 0 0.06 0.595 0 0.08 0.595 0 0.1 0.595 0 0 0.6 0 0.02 0.6 0 0.04 0.6 0 0.06 0.6 0 0.08 0.6 0 0.1 0.6 0 0 0.605 0 0.02 0.605 0 0.04 0.605 0 0.06 0.605 0 0.08 0.605 0 0.1 0.605 0 0 0.61 0 0.02 0.61 0 0.04 0.61 0 0.06 0.61 0 0.08 0.61 0 0.1 0.61 0 0 0.615 0 0.02 0.615 0 0.04 0.615 0 0.06 0.615 0 0.08 0.615 0 0.1 0.615 0 0 0.62 0 0.02 0.62 0 0.04 0.62 0 0.06 0.62 0 0.08 0.62 0 0.1 0.62 0 0 0.625 0 0.02 0.625 0 0.04 0.625 0 0.06 0.625 0 0.08 0.625 0 0.1 0.625 0 0 0.63 0 0.02 0.63 0 0.04 0.63 0 0.06 0.63 0 0.08 0.63 0 0.1 0.63 0 0 0.635 0 0.02 0.635 0 0.04 0.635 0 0.06 0.635 0 0.08 0.635 0 0.1 0.635 0 0 0.64 0 0.02 0.64 0 0.04 0.64 0 0.06 0.64 0 0.08 0.64 0 0.1 0.64 0 0 0.645 0 0.02 0.645 0 0.04 0.645 0 0.06 0.645 0 0.08 0.645 0 0.1 0.645 0 0 0.65 0 0.02 0.65 0 0.04 0.65 0 0.06 0.65 0 0.08 0.65 0 0.1 0.65 0 0 0.655 0 0.02 0.655 0 0.04 0.655 0 0.06 0.655 0 0.08 0.655 0 0.1 0.655 0 0 0.66 0 0.02 0.66 0 0.04 0.66 0 0.06 0.66 0 0.08 0.66 0 0.1 0.66 0 0 0.665 0 0.02 0.665 0 0.04 0.665 0 0.06 0.665 0 0.08 0.665 0 0.1 0.665 0 0 0.67 0 0.02 0.67 0 0.04 0.67 0 0.06 0.67 0 0.08 0.67 0 0.1 0.67 0 0 0.675 0 0.02 0.675 0 0.04 0.675 0 0.06 0.675 0 0.08 0.675 0 0.1 0.675 0 0 0.68 0 0.02 0.68 0 0.04 0.68 0 0.06 0.68 0 0.08 0.68 0 0.1 0.68 0 0 0.685 0 0.02 0.685 0 0.04 0.685 0 0.06 0.685 0 0.08 0.685 0 0.1 0.685 0 0 0.69 0 0.02 0.69 0 0.04 0.69 0 0.06 0.69 0 0.08 0.69 0 0.1 
[...]
			<PointData Scalars="VitesseX">
				<DataArray Name="VitesseX" type="Float32" format="ascii">
 0 7.5968e-16 -1.74517e-14 1.72926e-14 -3.03213e-14 0 0 1.80409e-15 -1.49822e-14 1.14271e-14 -2.28069e-14 0 0 -1.96871e-15 1.33593e-15 -1.3138e-14 4.08983e-15 0 0 2.18552e-14 -2.72126e-14 1.27336e-14 1.62739e-15 0 0 2.24488e-14 -1.7345e-14 1.47988e-14 5.8408e-15 0 0 -1.68611e-14 4.64854e-14 -1.86824e-14 2.03516e-14 0 0 -1.37379e-14 2.74727e-14 3.16426e-14 -1.42919e-14 0 0 1.73072e-14 -1.88878e-14 8.33274e-14 -4.11843e-14 0 0 7.52988e-15 1.00317e-14 6.30653e-14 -2.9924e-14 0 0 8.04666e-15 3.81332e-14 2.77133e-14 -2.59114e-15 0 0 5.87307e-14 -1.10581e-14 4.37092e-14 7.12812e-16 0 0 3.33355e-14 3.46525e-14 -2.7103e-14 5.21986e-14 0 0 7.1249e-14 -3.96427e-14 3.56165e-14 6.65641e-15 0 0 6.57109e-14 -3.34168e-14 2.71605e-14 -1.78675e-14 0 0 3.63715e-14 1.39214e-14 -3.31259e-14 1.73458e-14 0 0 9.16126e-14 -1.03185e-13 9.56643e-14 -4.51009e-14 0 0 8.42692e-15 2.62497e-14 -1.36443e-14 2.99095e-14 0 0 1.23918e-14 4.02019e-14 -1.57529e-14 3.53962e-14 0 0 4.28923e-14 -7.4647e-15 6.13252e-14 -3.89777e-14 0 0 1.79065e-14 3.84376e-14 9.29603e-15 -2.77036e-14 0 0 5.81863e-14 -3.87114e-14 7.66437e-14 -7.4682e-14 0 0 6.09901e-14 -7.01948e-14 1.01335e-13 -8.94277e-14 0 0 1.34118e-15 1.2628e-14 -1.47559e-14 -9.09841e-15 0 0 -7.32373e-14 1.17935e-13 -1.22879e-13 4.89125e-14 0 0 2.50007e-14 -3.19505e-14 7.3143e-15 -7.1457e-15 0 0 1.3423e-13 -2.07887e-13 1.82414e-13 -7.52599e-14 0 0 -4.04459e-15 -1.67935e-15 8.28589e-15 5.40232e-14 0 0 -5.25962e-14 7.26824e-14 -8.04939e-14 1.60918e-13 0 0 1.56377e-14 -2.87017e-14 1.81959e-14 1.40641e-13 0 0 5.42969e-14 -7.23782e-14 7.4742e-14 9.09405e-14 0 0 -1.74693e-14 6.00114e-14 -2.87598e-14 1.02173e-13 0 0 -9.01275e-15 6.70075e-14 -1.98088e-14 3.83714e-14 0 0 6.12887e-14 -4.33681e-14 5.43455e-14 -2.84502e-14 0 0 -4.36497e-14 1.0788e-13 -1.00482e-13 3.46797e-14 0 0 3.36553e-14 -1.11234e-14 3.18768e-14 -8.10247e-14 0 0 9.14433e-14 -9.29385e-14 9.79304e-14 -1.05237e-13 0 0 7.05622e-14 -8.21519e-14 8.67084e-14 -9.25873e-14 0 0 7.10465e-15 2.59956e-14 -3.6259e-14 -1.10418e-14 0 0 7.87053e-14 -5.20129e-14 -2.37019e-14 2.0041e-14 0 0 9.64324e-14 -1.00076e-13 1.61587e-14 7.34332e-15 0 0 -1.12419e-14 -4.29461e-15 2.45306e-14 -3.70793e-14 0 0 -9.00511e-15 -7.48101e-14 1.85779e-13 -1.88717e-13 0 0 -1.21273e-13 1.22016e-13 1.47763e-15 -1.11332e-13 0 0 -5.12705e-14 7.92524e-14 -3.73374e-14 -4.32186e-14 0 0 1.14554e-13 -1.34643e-13 1.11734e-13 -6.19932e-14 0 0 5.59739e-14 3.98208e-14 -1.20119e-13 1.41899e-13 0 0 1.54265e-13 -3.90614e-14 -1.21591e-13 1.75874e-13 0 0 1.29614e-13 -2.41094e-14 -8.32957e-14 9.19357e-14 0 0 1.38257e-14 1.1818e-13 -1.43935e-13 4.34849e-14 0 0 1.00665e-13 3.92268e-15 -2.68357e-14 -7.92004e-14 0 0 2.15395e-13 -1.20703e-13 4.89261e-14 -1.24823e-13 0 0 2.88549e-13 -2.03803e-13 1.05635e-13 -1.24489e-13 0 0 -1.25528e-13 4.23648e-13 -5.29219e-13 3.2426e-13 0 0 -2.68585e-15 1.48164e-13 -2.55102e-13 1.88285e-13 0 0 3.42539e-13 -3.72165e-13 2.38174e-13 -1.87212e-13 0 0 1.41439e-13 2.1337e-15 -1.64041e-13 -5.60701e-15 0 0 2.33735e-13 -1.42434e-13 -5.29904e-14 -7.53027e-14 0 0 1.37486e-13 5.91201e-14 -2.94018e-13 3.83938e-14 0 0 9.54639e-14 1.1264e-13 -3.35084e-13 3.28539e-14 0 0 2.90109e-13 -2.03926e-13 -5.86568e-14 -1.3861e-13 0 0 1.62116e-13 -8.12511e-14 -1.07358e-13 -1.40389e-13 0 0 1.38338e-14 1.56323e-14 -1.2511e-13 -8.33131e-14 0 0 -4.29836e-14 4.91667e-14 -1.52744e-13 1.47489e-14 0 0 9.14655e-14 -1.95996e-13 1.27876e-13 -1.17821e-13 0 0 7.55785e-14 -1.29307e-13 4.41328e-14 -3.85413e-14 0 0 -8.05255e-14 1.40682e-13 -1.50655e-13 5.52327e-14 0 0 -2.7611e-14 3.70107e-14 2.80886e-14 -7.36395e-14 0 0 4.3287e-14 7.58094e-15 1.15279e-14 -6.0817e-14 0 0 2.42793e-13 -1.97292e-13 1.53533e-13 -1.64196e-13 0 0 2.59653e-13 -1.43635e-13 6.77558e-14 -1.56311e-13 0 0 1.05008e-14 3.04148e-13 -3.49755e-13 5.18899e-14 0 0 1.81365e-13 9.01322e-15 7.84444e-15 -1.98727e-13 0 0 3.20187e-13 -1.4532e-13 1.3497e-13 -2.44092e-13 0 0 3.75116e-13 -1.90197e-13 1.74181e-13 -2.25638e-13 0 0 1.77105e-13 7.01507e-14 -6.4153e-15 -9.89116e-14 0 0 1.04211e-13 2.76447e-13 -1.5403e-13 1.76869e-14 0 0 6.36624e-13 -3.0537e-13 3.49714e-13 -2.81085e-13 0 0 4.96875e-13 3.89236e-14 2.10274e-14 -1.01662e-13 0 0 2.73827e-13 2.18112e-13 1.20651e-13 -2.4146e-13 0 0 1.61466e-13 4.43242e-13 -1.58669e-13 3.45953e-14 0 0 4.14195e-13 6.83938e-14 4.21857e-14 1.84807e-13 0 0 5.42546e-13 -3.78767e-13 6.27323e-13 3.89789e-14 0 0 -1.85088e-13 7.18272e-13 -3.79879e-13 7.63179e-13 0 0 2.34605e-13 8.42176e-14 2.17286e-13 3.59824e-13 0 0 9.35232e-13 -1.06758e-12 1.30889e-12 -3.44334e-13 0 0 -5.10163e-14 1.81067e-13 7.72168e-14 5.31758e-13 0 0 -9.20602e-13 7.64799e-13 -1.59026e-13 7.18536e-13 0 0 -2.11219e-13 -2.24132e-13 7.45161e-13 2.4471e-13 0 0 5.08909e-13 -4.56752e-13 2.3213e-13 8.36506e-13 0 0 5.24112e-13 -5.60774e-13 5.22117e-13 3.74313e-13 0 0 -6.44895e-15 1.19587e-13 3.78816e-13 -4.7499e-14 0 0 -5.87019e-13 9.28793e-13 -2.05953e-13 2.44131e-13 0 0 -4.59692e-13 5.7343e-13 1.43934e-13 2.28322e-15 0 0 -1.37615e-13 4.32463e-14 4.66515e-13 -2.74029e-14 0 0 2.24679e-13 -3.60476e-13 4.71608e-13 1.50141e-13 0 0 1.74815e-13 -4.05751e-13 4.94847e-13 1.40613e-13 0 0 -1.05319e-13 -1.95823e-13 3.80748e-13 1.27751e-13 0 0 -2.88476e-13 1.82801e-13 5.62761e-14 2.50816e-13 0 0 -1.68146e-13 2.88233e-13 -4.29109e-13 5.22576e-13 0 0 1.31371e-13 1.9893e-13 -6.09522e-13 7.4239e-13 0 0 2.66847e-13 -7.20179e-15 -5.74503e-13 7.53177e-13 0 0 2.17713e-13 -1.45577e-13 -4.11247e-13 6.40992e-13 0 0 5.90548e-14 -1.61575e-13 -1.4719e-13 3.86724e-13 0 0 -5.66893e-14 -1.15253e-13 -1.73868e-14 2.21696e-13 0 0 -1.10195e-13 -2.57455e-15 -3.11701e-14 1.57453e-13 0 0 -1.23253e-13 1.64157e-13 -1.32135e-13 9.40047e-14 0 0 -1.05415e-13 2.5455e-13 -1.79174e-13 -4.91628e-15 0 0 -5.4795e-14 2.59676e-13 -1.69414e-13 -1.54014e-13 0 0 2.46163e-14 1.91564e-13 -8.27214e-14 -3.43575e-13 0 0 5.44337e-14 4.72566e-14 -3.77959e-14 -3.72241e-13 0 0 6.84918e-14 -1.04898e-13 -3.14193e-14 -3.62539e-13 0 0 5.07839e-14 -1.97654e-13 -2.92666e-14 -3.33814e-13 0 0 -1.70174e-14 -2.0354e-13 -1.0022e-13 -2.38405e-13 0 0 -3.13239e-14 -2.13504e-13 -2.1384e-13 -7.24804e-14 0 0 -6.01153e-14 -1.86657e-13 -2.62389e-13 1.45576e-14 0 0 -9.40457e-14 -2.03485e-13 -1.39081e-13 -7.20819e-14 0 0 -8.75865e-14 -2.20231e-13 -6.60434e-14 -1.47496e-13 0 0 -3.26516e-14 -1.95149e-13 -1.05227e-13 -1.50183e-13 0 0 -2.62109e-14 -1.22632e-13 -1.25041e-13 -1.06197e-13 0 0 -9.18488e-14 4.47657e-14 -1.83003e-13 3.42399e-14 0 0 -7.29629e-14 3.70363e-14 -1.32625e-13 1.52001e-13 0 0 3.81393e-14 -6.59384e-14 -3.70535e-15 1.2349e-13 0 0 1.77102e-13 -1.58954e-13 1.55413e-13 -9.01118e-14 0 0 8.79623e-14 6.63873e-14 -1.46427e-14 -3.99327e-14 0 0 1.23337e-13 8.34565e-14 -2.24818e-14 -5.35737e-14 0 0 1.20006e-13 7.06933e-14 -1.71366e-14 -2.19501e-14 0 0 1.1654e-13 3.39494e-14 1.94649e-14 3.28187e-14 0 0 3.23612e-13 -2.81396e-13 3.11266e-13 -1.20862e-13 0 0 1.64383e-13 3.31606e-15 -2.39111e-14 3.00249e-14 0 0 1.81225e-13 3.87296e-15 -8.03261e-14 2.52799e-14 0 0 1.58332e-13 5.47363e-14 -1.96891e-13 9.30712e-14 0 0 1.17136e-13 1.05958e-13 -2.71251e-13 3.86036e-14 0 0 3.49998e-13 -3.2856e-13 1.74599e-13 -2.6894e-13 0 0 1.04718e-13 -3.90346e-14 -1.29587e-13 -4.39156e-14 0 0 9.94033e-14 -1.463e-13 -7.93247e-14 -3.36024e-15 0 0 4.82782e-14 -1.22338e-13 -1.54808e-13 1.41141e-13 0 0 -6.22674e-14 5.1598e-14 -2.7598e-13 2.05661e-13 0 0 1.77043e-13 -3.86341e-13 3.00915e-13 -2.56813e-13 0 0 -7.5931e-14 -1.09746e-14 -5.28039e-15 -1.17253e-13 0 0 -9.02878e-14 2.06388e-14 -5.21955e-14 -1.37891e-14 0 0 7.18461e-14 -2.27233e-13 2.41594e-13 -1.64673e-13 0 0 -2.31846e-13 2.54774e-13 -1.48865e-13 3.17346e-14 0 0 7.70458e-14 -2.53732e-13 4.32434e-13 -2.94154e-13 0 0 1.88805e-13 -4.19736e-13 5.48752e-13 -2.69868e-13 0 0 -1.75213e-13 1.60569e-13 -1.01455e-13 1.83568e-13 0 0 1.06753e-13 -3.19062e-13 5.45139e-13 -2.35457e-13 0 0 -1.32071e-13 1.91426e-13 1.98794e-13 -1.00472e-13 0 0 3.55195e-15 2.20039e-13 1.79803e-13 -1.28777e-13 0 0 2.42707e-13 -7.06164e-14 4.97838e-13 -2.98537e-13 0 0 4.62157e-14 2.39163e-13 1.96125e-13 -7.58328e-14 0 0 3.48765e-13 -3.94492e-13 8.5979e-13 -4.21754e-13 0 0 -1.02804e-13 2.28105e-13 2.40884e-13 -1.47361e-13 0 0 -7.9683e-15 2.02876e-13 3.27049e-14 -1.93011e-13 0 0 2.30562e-13 -7.70502e-14 2.91536e-14 1.61829e-15 0 0 9.68919e-14 -3.11708e-14 -1.61498e-14 2.37772e-13 0 0 -2.72281e-14 -1.67818e-13 2.23016e-13 7.0134e-14 0 0 -2.40965e-13 2.37383e-14 -4.51246e-15 1.56402e-13 0 0 1.06416e-13 -4.51105e-13 3.57171e-13 -1.44887e-13 0 0 8.12158e-14 -2.93559e-13 6.06076e-14 -5.68652e-14 0 0 5.18947e-14 -3.14567e-13 -2.32959e-14 -2.16601e-14 0 0 -1.51998e-13 -2.14733e-13 -7.13162e-14 -4.82727e-14 0 0 -4.31592e-13 1.55458e-14 -5.97519e-14 -2.72547e-13 0 0 -3.87944e-13 -1.15745e-13 7.44572e-14 -2.93795e-13 0 0 -4.31339e-13 -4.37845e-14 -2.18892e-13 2.674e-13 0 0 -5.07498e-14 -5.24597e-13 -4.10687e-14 4.69197e-13 0 0 2.88906e-13 -9.16606e-13 1.22709e-13 5.45863e-13 0 0 4.95486e-14 -5.9975e-13 7.58549e-15 5.44871e-13 0 0 -1.64968e-13 -3.48326e-13 4.20557e-14 3.53372e-13 0 0 -5.2413e-13 2.07124e-13 -4.16025e-13 5.06903e-13 0 0 -3.3419e-13 -9.0404e-14 -3.5616e-13 5.03403e-13 0 0 5.31405e-14 -6.67123e-13 -1.30057e-13 4.87263e-13 0 0 -1.47395e-13 -2.32857e-13 -5.91561e-13 6.838e-13 0 0 1.25854e-14 -5.8402e-13 2.45479e-14 1.96491e-13 0 0 -3.72137e-13 -1.95719e-13 -1.24578e-13 1.81003e-13 0 0 -5.06956e-13 -3.11647e-14 -2.2708e-13 8.19003e-14 0 0 -1.91116e-13 -3.96458e-13 -3.13994e-14 -5.43076e-14 0 0 -1.99425e-13 -1.4314e-13 -5.64017e-13 3.29347e-13 0 0 5.58161e-14 -4.95609e-13 -1.54714e-13 -1.1988e-14 0 0 -3.7148e-13 -6.83826e-14 -2.70543e-13 -6.22404e-14 0 0 -5.09404e-13 -1.06527e-13 4.17879e-15 -2.24264e-13 0 0 -2.43888e-13 -4.52391e-13 3.04532e-13 -4.12057e-13 0 0 -2.39758e-13 -1.89405e-13 -2.15094e-13 -1.39934e-13 0 0 2.0678e-13 -8.23247e-13 3.42068e-13 -5.70527e-13 0 0 -1.19216e-13 -3.9474e-13 -8.82496e-14 -3.06539e-13 0 0 -2.90768e-13 -2.32938e-13 -2.0321e-13 -1.09841e-13 0 0 -9.34137e-14 -4.99811e-13 1.38706e-13 -2.94975e-13 0 0 -2.13347e-13 -2.41763e-13 -1.54837e-13 -5.45298e-14 0 0 2.31562e-14 -7.12921e-13 4.10358e-13 -3.91614e-13 0 0 -2.14866e-13 -3.39583e-13 5.00782e-14 -2.33201e-13 0 0 -1.80609e-13 -3.01867e-13 -5.04113e-14 -1.84221e-13 0 0 5.21812e-14 -4.64264e-13 2.03418e-13 -5.42348e-13 0 0 -5.58546e-13 7.01705e-13 -8.48697e-13 -3.81697e-14 0 0 -7.99982e-14 -3.92755e-14 -1.0258e-13 -3.6737e-13 0 0 2.74248e-13 -7.24224e-13 6.0205e-13 -7.02364e-13 0 0 -1.56569e-13 -2.15727e-13 2.36063e-13 -3.99187e-13 0 0 8.501e-14 -6.49712e-13 8.14713e-13 -7.54742e-13 0 0 -3.52983e-13 1.157e-13 1.22851e-13 -4.82216e-13 0 0 -8.67902e-14 -2.01401e-13 5.28786e-13 -1.00652e-12 0 0 1.01014e-13 -4.06898e-13 6.86337e-13 -1.25347e-12 0 0 -1.6541e-13 1.47899e-13 -1.05985e-13 -6.2461e-13 0 0 1.39666e-13 -2.36641e-13 1.72015e-13 -7.03038e-13 0
				</DataArray>
				<DataArray Name="VitesseY" type="Float32" format="ascii">