<?xml version="1.0"?>
<VTKFile type="PolyData">
	<PolyData>
		<Piece NumberOfPoints="1206" NumberOfPolys="1000">
			<Points>
				<DataArray type="Float32" NumberOfComponents="3" format="ascii">
 0 0 0 0.02 0 0 0.04 0 0 0.06 0 0 0.08 0 0 0.1 0 0 0 0.005 0 0.02 0.005 0 0.04 0.005 0 0.06 0.005 0 0.08 0.005 0 0.1 0.005 0 0 0.01 0 0.02 0.01 0 0.04 0.01 0 0.06 0.01 0 0.08 0.01 0 0.1 0.01 0 0 0.015 0 0.02 0.015 0 0.04 0.015 0 0.06 0.015 0 0.08 0.015 0 0.1 0.015 0 0 0.02 0 0.02 0.02 0 0.04 0.02 0 0.06 0.02 0 0.08 0.02 0 0.1 0.02 0 0 0.025 0 0.02 0.025 0 0.04 0.025 0 0.06 0.025 0 0.08 0.025 0 0.1 0.025 0 0 0.03 0 0.02 0.03 0 0.04 0.03 0 0.06 0.03 0 0.08 0.03 0 0.1 0.03 0 0 0.035 0 0.02 0.035 0 0.04 0.035 0 0.06 0.035 0 0.08 0.035 0 0.1 0.035 0 0 0.04 0 0.02 0.04 0 0.04 0.04 0 0.06 0.04 0 0.08 0.04 0 0.1 0.04 0 0 0.045 0 0.02 0.045 0 0.04 0.045 0 0.06 0.045 0 0.08 0.045 0 0.1 0.045 0 0 0.05 0 0.02 0.05 0 0.04 0.05 0 0.06 0.05 0 0.08 0.05 0 0.1 0.05 0 0 0.055 0 0.02 0.055 0 0.04 0.055 0 0.06 0.055 0 0.08 0.055 0 0.1 0.055 0 0 0.06 0 0.02 0.06 0 0.04 0.06 0 0.06 0.06 0 0.08 0.06 0 0.1 0.06 0 0 0.065 0 0.02 0.065 0 0.04 0.065 0 0.06 0.065 0 0.08 0.065 0 0.1 0.065 0 0 0.07 0 0.02 0.07 0 0.04 0.07 0 0.06 0.07 0 0.08 0.07 0 0.1 0.07 0 0 0.075 0 0.02 0.075 0 0.04 0.075 0 0.06 0.075 0 0.08 0.075 0 0.1 0.075 0 0 0.08 0 0.02 0.08 0 0.04 0.08 0 0.06 0.08 0 0.08 0.08 0 0.1 0.08 0 0 0.085 0 0.02 0.085 0 0.04 0.085 0 0.06 0.085 0 0.08 0.085 0 0.1 0.085 0 0 0.09 0 0.02 0.09 0 0.04 0.09 0 0.06 0.09 0 0.08 0.09 0 0.1 0.09 0 0 0.095 0 0.02 0.095 0 0.04 0.095 0 0.06 0.095 0 0.08 0.095 0 0.1 0.095 0 0 0.1 0 0.02 0.1 0 0.04 0.1 0 0.06 0.1 0 0.08 0.1 0 0.1 0.1 0 0 0.105 0 0.02 0.105 0 0.04 0.105 0 0.06 0.105 0 0.08 0.105 0 0.1 0.105 0 0 0.11 0 0.02 0.11 0 0.04 0.11 0 0.06 0.11 0 0.08 0.11 0 0.1 0.11 0 0 0.115 0 0.02 0.115 0 0.04 0.115 0 0.06 0.115 0 0.08 0.115 0 0.1 0.115 0 0 0.12 0 0.02 0.12 0 0.04 0.12 0 0.06 0.12 0 0.08 0.12 0 0.1 0.12 0 0 0.125 0 0.02 0.125 0 0.04 0.125 0 0.06 0.125 0 0.08 0.125 0 0.1 0.125 0 0 0.13 0 0.02 0.13 0 0.04 0.13 0 0.06 0.13 0 0.08 0.13 0 0.1 0.13 0 0 0.135 0 0.02 0.135 0 0.04 0.135 0 0.06 0.135 0 0.08 0.135 0 0.1 0.135 0 0 0.14 0 0.02 0.14 0 0.04 0.14 0 0.06 0.14 0 0.08 0.14 0 0.1 0.14 0 0 0.145 0 0.02 0.145 0 0.04 0.145 0 0.06 0.145 0 0.08 0.145 0 0.1 0.145 0 0 0.15 0 0.02 0.15 0 0.04 0.15 0 0.06 0.15 0 0.08 0.15 0 0.1 0.15 0 0 0.155 0 0.02 0.155 0 0.04 0.155 0 0.06 0.155 0 0.08 0.155 0 0.1 0.155 0 0 0.16 0 0.02 0.16 0 0.04 0.16 0 0.06 0.16 0 0.08 0.16 0 0.1 0.16 0 0 0.165 0 0.02 0.165 0 0.04 0.165 0 0.06 0.165 0 0.08 0.165 0 0.1 0.165 0 0 0.17 0 0.02 0.17 0 0.04 0.17 0 0.06 0.17 0 0.08 0.17 0 0.1 0.17 0 0 0.175 0 0.02 0.175 0 0.04 0.175 0 0.06 0.175 0 0.08 0.175 0 0.1 0.175 0 0 0.18 0 0.02 0.18 0 0.04 0.18 0 0.06 0.18 0 0.08 0.18 0 0.1 0.18 0 0 0.185 0 0.02 0.185 0 0.04 0.185 0 0.06 0.185 0 0.08 0.185 0 0.1 0.185 0 0 0.19 0 0.02 0.19 0 0.04 0.19 0 0.06 0.19 0 0.08 0.19 0 0.1 0.19 0 0 0.195 0 0.02 0.195 0 0.04 0.195 0 0.06 0.195 0 0.08 0.195 0 0.1 0.195 0 0 0.2 0 0.02 0.2 0 0.04 0.2 0 0.06 0.2 0 0.08 0.2 0 0.1 0.2 0 0 0.205 0 0.02 0.205 0 0.04 0.205 0 0.06 0.205 0 0.08 0.205 0 0.1 0.205 0 0 0.21 0 0.02 0.21 0 0.04 0.21 0 0.06 0.21 0 0.08 0.21 0 0.1 0.21 0 0 0.215 0 0.02 0.215 0 0.04 0.215 0 0.06 0.215 0 0.08 0.215 0 0.1 0.215 0 0 0.22 0 0.02 0.22 0 0.04 0.22 0 0.06 0.22 0 0.08 0.22 0 0.1 0.22 0 0 0.225 0 0.02 0.225 0 0.04 0.225 0 0.06 0.225 0 0.08 0.225 0 0.1 0.225 0 0 0.23 0 0.02 0.23 0 0.04 0.23 0 0.06 0.23 0 0.08 0.23 0 0.1 0.23 0 0 0.235 0 0.02 0.235 0 0.04 0.235 0 0.06 0.235 0 0.08 0.235 0 0.1 0.235 0 0 0.24 0 0.02 0.24 0 0.04 0.24 0 0.06 0.24 0 0.08 0.24 0 0.1 0.24 0 0 0.245 0 0.02 0.245 0 0.04 0.245 0 0.06 0.245 0 0.08 0.245 0 0.1 0.245 0 0 0.25 0 0.02 0.25 0 0.04 0.25 0 0.06 0.25 0 0.08 0.25 0 0.1 0.25 0 0 0.255 0 0.02 0.255 0 0.04 0.255 0 0.06 0.255 0 0.08 0.255 0 0.1 0.255 0 0 0.26 0 0.02 0.26 0 0.04 0.26 0 0.06 0.26 0 0.08 0.26 0 0.1 0.26 0 0 0.265 0 0.02 0.265 0 0.04 0.265 0 0.06 0.265 0 0.08 0.265 0 0.1 0.265 0 0 0.27 0 0.02 0.27 0 0.04 0.27 0 0.06 0.27 0 0.08 0.27 0 0.1 0.27 0 0 0.275 0 0.02 0.275 0 0.04 0.275 0 0.06 0.275 0 0.08 0.275 0 0.1 0.275 0 0 0.28 0 0.02 0.28 0 0.04 0.28 0 0.06 0.28 0 0.08 0.28 0 0.1 0.28 0 0 0.285 0 0.02 0.285 0 0.04 0.285 0 0.06 0.285 0 0.08 0.285 0 0.1 0.285 0 0 0.29 0 0.02 0.29 0 0.04 0.29 0 0.06 0.29 0 0.08 0.29 0 0.1 0.29 0 0 0.295 0 0.02 0.295 0 0.04 0.295 0 0.06 0.295 0 0.08 0.295 0 0.1 0.295 0 0 0.3 0 0.02 0.3 0 0.04 0.3 0 0.06 0.3 0 0.08 0.3 0 0.1 0.3 0 0 0.305 0 0.02 0.305 0 0.04 0.305 0 0.06 0.305 0 0.08 0.305 0 0.1 0.305 0 0 0.31 0 0.02 0.31 0 0.04 0.31 0 0.06 0.31 0 0.08 0.31 0 0.1 0.31 0 0 0.315 0 0.02 0.315 0 0.04 0.315 0 0.06 0.315 0 0.08 0.315 0 0.1 0.315 0 0 0.32 0 0.02 0.32 0 0.04 0.32 0 0.06 0.32 0 0.08 0.32 0 0.1 0.32 0 0 0.325 0 0.02 0.325 0 0.04 0.325 0 0.06 0.325 0 0.08 0.325 0 0.1 0.325 0 0 0.33 0 0.02 0.33 0 0.04 0.33 0 0.06 0.33 0 0.08 0.33 0 0.1 0.33 0 0 0.335 0 0.02 0.335 0 0.04 0.335 0 0.06 0.335 0 0.08 0.335 0 0.1 0.335 0 0 0.34 0 0.02 0.34 0 0.04 0.34 0 0.06 0.34 0 0.08 0.34 0 0.1 0.34 0 0 0.345 0 0.02 0.345 0 0.04 0.345 0 0.06 0.345 0 0.08 0.345 0 0.1 0.345 0 0 0.35 0 0.02 0.35 0 0.04 0.35 0 0.06 0.35 0 0.08 0.35 0 0.1 0.35 0 0 0.355 0 0.02 0.355 0 0.04 0.355 0 0.06 0.355 0 0.08 0.355 0 0.1 0.355 0 0 0.36 0 0.02 0.36 0 0.04 0.36 0 0.06 0.36 0 0.08 0.36 0 0.1 0.36 0 0 0.365 0 0.02 0.365 0 0.04 0.365 0 0.06 0.365 0 0.08 0.365 0 0.1 0.365 0 0 0.37 0 0.02 0.37 0 0.04 0.37 0 0.06 0.37 0 0.08 0.37 0 0.1 0.37 0 0 0.375 0 0.02 0.375 0 0.04 0.375 0 0.06 0.375 0 0.08 0.375 0 0.1 0.375 0 0 0.38 0 0.02 0.38 0 0.04 0.38 0 0.06 0.38 0 0.08 0.38 0 0.1 0.38 0 0 0.385 0 0.02 0.385 0 0.04 0.385 0 0.06 0.385 0 0.08 0.385 0 0.1 0.385 0 0 0.39 0 0.02 0.39 0 0.04 0.39 0 0.06 0.39 0 0.08 0.39 0 0.1 0.39 0 0 0.395 0 0.02 0.395 0 0.04 0.395 0 0.06 0.395 0 0.08 0.395 0 0.1 0.395 0 0 0.4 0 0.02 0.4 0 0.04 0.4 0 0.06 0.4 0 0.08 0.4 0 0.1 0.4 0 0 0.405 0 0.02 0.405 0 0.04 0.405 0 0.06 0.405 0 0.08 0.405 0 0.1 0.405 0 0 0.41 0 0.02 0.41 0 0.04 0.41 0 0.06 0.41 0 0.08 0.41 0 0.1 0.41 0 0 0.415 0 0.02 0.415 0 0.04 0.415 0 0.06 0.415 0 0.08 0.415 0 0.1 0.415 0 0 0.42 0 0.02 0.42 0 0.04 0.42 0 0.06 0.42 0 0.08 0.42 0 0.1 0.42 0 0 0.425 0 0.02 0.425 0 0.04 0.425 0 0.06 0.425 0 0.08 0.425 0 0.1 0.425 0 0 0.43 0 0.02 0.43 0 0.04 0.43 0 0.06 0.43 0 0.08 0.43 0 0.1 0.43 0 0 0.435 0 0.02 0.435 0 0.04 0.435 0 0.06 0.435 0 0.08 0.435 0 0.1 0.435 0 0 0.44 0 0.02 0.44 0 0.04 0.44 0 0.06 0.44 0 0.08 0.44 0 0.1 0.44 0 0 0.445 0 0.02 0.445 0 0.04 0.445 0 0.06 0.445 0 0.08 0.445 0 0.1 0.445 0 0 0.45 0 0.02 0.45 0 0.04 0.45 0 0.06 0.45 0 0.08 0.45 0 0.1 0.45 0 0 0.455 0 0.02 0.455 0 0.04 0.455 0 0.06 0.455 0 0.08 0.455 0 0.1 0.455 0 0 0.46 0 0.02 0.46 0 0.04 0.46 0 0.06 0.46 0 0.08 0.46 0 0.1 0.46 0 0 0.465 0 0.02 0.465 0 0.04 0.465 0 0.06 0.465 0 0.08 0.465 0 0.1 0.465 0 0 0.47 0 0.02 0.47 0 0.04 0.47 0 0.06 0.47 0 0.08 0.47 0 0.1 0.47 0 0 0.475 0 0.02 0.475 0 0.04 0.475 0 0.06 0.475 0 0.08 0.475 0 0.1 0.475 0 0 0.48 0 0.02 0.48 0 0.04 0.48 0 0.06 0.48 0 0.08 0.48 0 0.1 0.48 0 0 0.485 0 0.02 0.485 0 0.04 0.485 0 0.06 0.485 0 0.08 0.485 0 0.1 0.485 0 0 0.49 0 0.02 0.49 0 0.04 0.49 0 0.06 0.49 0 0.08 0.49 0 0.1 0.49 0 0 0.495 0 0.02 0.495 0 0.04 0.495 0 0.06 0.495 0 0.08 0.495 0 0.1 0.495 0 0 0.5 0 0.02 0.5 0 0.04 0.5 0 0.06 0.5 0 0.08 0.5 0 0.1 0.5 0 0 0.505 0 0.02 0.505 0 0.04 0.505 0 0.06 0.505 0 0.08 0.505 0 0.1 0.505 0 0 0.51 0 0.02 0.51 0 0.04 0.51 0 0.06 0.51 0 0.08 0.51 0 0.1 0.51 0 0 0.515 0 0.02 0.515 0 0.04 0.515 0 0.06 0.515 0 0.08 0.515 0 0.1 0.515 0 0 0.52 0 0.02 0.52 0 0.04 0.52 0 0.06 0.52 0 0.08 0.52 0 0.1 0.52 0 0 0.525 0 0.02 0.525 0 0.04 0.525 0 0.06 0.525 0 0.08 0.525 0 0.1 0.525 0 0 0.53 0 0.02 0.53 0 0.04 0.53 0 0.06 0.53 0 0.08 0.53 0 0.1 0.53 0 0 0.535 0 0.02 0.535 0 0.04 0.535 0 0.06 0.535 0 0.08 0.535 0 0.1 0.535 0 0 0.54 0 0.02 0.54 0 0.04 0.54 0 0.06 0.54 0 0.08 0.54 0 0.1 0.54 0 0 0.545 0 0.02 0.545 0 0.04 0.545 0 0.06 0.545 0 0.08 0.545 0 0.1 0.545 0 0 0.55 0 0.02 0.55 0 0.04 0.55 0 0.06 0.55 0 0.08 0.55 0 0.1 0.55 0 0 0.555 0 0.02 0.555 0 0.04 0.555 0 0.06 0.555 0 0.08 0.555 0 0.1 0.555 0 0 0.56 0 0.02 0.56 0 0.04 0.56 0 0.06 0.56 0 0.08 0.56 0 0.1 0.56 0 0 0.565 0 0.02 0.565 0 0.04 0.565 0 0.06 0.565 0 0.08 0.565 0 0.1 0.565 0 0 0.57 0 0.02 0.57 0 0.04 0.57 0 0.06 0.57 0 0.08 0.57 0 0.1 0.57 0 0 0.575 0 0.02 0.575 0 0.04 0.575 0 0.06 0.575 0 0.08 0.575 0 0.1 0.575 0 0 0.58 0 0.02 0.58 0 0.04 0.58 0 0.06 0.58 0 0.08 0.58 0 0.1 0.58 0 0 0.585 0 0.02 0.585 0 0.04 0.585 0 0.06 0.585 0 0.08 0.585 0 0.1 0.585 0 0 0.59 0 0.02 0.59 0 0.04 0.59 0 0.06 0.59 0 0.08 0.59 0 0.1 0.59 0 0 0.595 0 0.02 0.595 0 0.04 0.595 0 0.06 0.595 0 0.08 0.595 0 0.1 0.595 0 0 0.6 0 0.02 0.6 0 0.04 0.6 0 0.06 0.6 0 0.08 0.6 0 0.1 0.6 0 0 0.605 0 0.02 0.605 0 0.04 0.605 0 0.06 0.605 0 0.08 0.605 0 0.1 0.605 0 0 0.61 0 0.02 0.61 0 0.04 0.61 0 0.06 0.61 0 0.08 0.61 0 0.1 0.61 0 0 0.615 0 0.02 0.615 0 0.04 0.615 0 0.06 0.615 0 0.08 0.615 0 0.1 0.615 0 0 0.62 0 0.02 0.62 0 0.04 0.62 0 0.06 0.62 0 0.08 0.62 0 0.1 0.62 0 0 0.625 0 0.02 0.625 0 0.04 0.625 0 0.06 0.625 0 0.08 0.625 0 0.1 0.625 0 0 0.63 0 0.02 0.63 0 0.04 0.63 0 0.06 0.63 0 0.08 0.63 0 0.1 0.63 0 0 0.635 0 0.02 0.635 0 0.04 0.635 0 0.06 0.635 0 0.08 0.635 0 0.1 0.635 0 0 0.64 0 0.02 0.64 0 0.04 0.64 0 0.06 0.64 0 0.08 0.64 0 0.1 0.64 0 0 0.645 0 0.02 0.645 0 0.04 0.645 0 0.06 0.645 0 0.08 0.645 0 0.1 0.645 0 0 0.65 0 0.02 0.65 0 0.04 0.65 0 0.06 0.65 0 0.08 0.65 0 0.1 0.65 0 0 0.655 0 0.02 0.655 0 0.04 0.655 0 0.06 0.655 0 0.08 0.655 0 0.1 0.655 0 0 0.66 0 0.02 0.66 0 0.04 0.66 0 0.06 0.66 0 0.08 0.66 0 0.1 0.66 0 0 0.665 0 0.02 0.665 0 0.04 0.665 0 0.06 0.665 0 0.08 0.665 0 0.1 0.665 0 0 0.67 0 0.02 0.67 0 0.04 0.67 0 0.06 0.67 0 0.08 0.67 0 0.1 0.67 0 0 0.675 0 0.02 0.675 0 0.04 0.675 0 0.06 0.675 0 0.08 0.675 0 0.1 0.675 0 0 0.68 0 0.02 0.68 0 0.04 0.68 0 0.06 0.68 0 0.08 0.68 0 0.1 0.68 0 0 0.685 0 0.02 0.685 0 0.04 0.685 0 0.06 0.685 0 0.08 0.685 0 0.1 0.685 0 0 0.69 0 0.02 0.69 0 0.04 0.69 0 0.06 0.69 0 0.08 0.69 0 0.1 
[...]
			<PointData Scalars="VitesseX">
				<DataArray Name="VitesseX" type="Float32" format="ascii">
 0 -2.77777e-14 2.90559e-15 9.42442e-15 -2.28595e-14 0 0 -2.00503e-14 -8.57352e-15 2.07518e-14 -3.1351e-14 0 0 -2.01979e-14 -1.35281e-15 8.15056e-15 -2.56069e-14 0 0 -9.87185e-15 -4.12624e-15 -7.47342e-15 -1.02575e-14 0 0 1.61655e-14 -4.10335e-14 1.28102e-14 -7.11015e-15 0 0 9.02126e-15 -3.50142e-14 1.10835e-14 5.90796e-15 0 0 -3.31733e-14 2.51266e-14 -2.33173e-14 3.09069e-14 0 0 -5.76163e-14 5.54231e-14 -2.07279e-14 3.02423e-14 0 0 -3.52474e-14 2.68917e-14 1.50854e-14 1.91049e-14 0 0 7.84941e-15 -2.63851e-14 6.63069e-14 -6.13827e-15 0 0 3.5252e-14 -5.65196e-14 9.65562e-14 -2.85e-14 0 0 9.35925e-15 8.25013e-16 2.90143e-14 1.29922e-14 0 0 1.33184e-15 2.18553e-14 5.49966e-15 2.66436e-14 0 0 9.4781e-15 -1.27932e-15 2.39845e-14 2.15184e-14 0 0 2.25136e-14 -3.23932e-14 3.27726e-14 1.31651e-14 0 0 3.20227e-14 -4.21295e-14 2.81372e-14 -4.35735e-15 0 0 4.17799e-15 6.93964e-15 -2.39376e-14 5.43213e-15 0 0 5.21681e-14 -5.72995e-14 1.51609e-14 -2.34891e-14 0 0 8.50157e-14 -1.08472e-13 7.2724e-14 -6.25174e-14 0 0 3.69665e-15 -3.33649e-15 2.63671e-14 -6.78965e-14 0 0 -6.55788e-14 8.46965e-14 -2.99636e-14 -5.72794e-14 0 0 -5.43459e-14 6.72611e-14 -3.81032e-14 -3.84117e-14 0 0 4.9575e-15 -4.2121e-14 3.87924e-14 -6.34763e-14 0 0 -9.55121e-16 -5.48934e-14 3.20418e-14 -3.91223e-14 0 0 -8.84144e-14 3.81886e-14 -2.89838e-14 -6.83355e-15 0 0 -1.25288e-13 5.48228e-14 -2.4039e-14 -1.50547e-14 0 0 -7.77646e-14 -8.21962e-15 -7.98145e-15 -6.06872e-16 0 0 -2.98917e-14 -7.27327e-14 3.17527e-14 5.0214e-16 0 0 -6.7013e-14 -3.51021e-15 -4.57891e-14 5.54093e-14 0 0 -1.05579e-13 6.36526e-14 -8.68664e-14 4.24664e-14 0 0 -1.30642e-13 1.06713e-13 -9.82221e-14 1.8309e-14 0 0 -7.16895e-14 3.12509e-14 -4.35624e-14 2.53915e-14 0 0 -2.11797e-15 -6.83124e-14 6.62089e-14 -1.00024e-14 0 0 -3.16714e-14 -4.10115e-14 9.57968e-14 -4.45397e-14 0 0 -1.03792e-13 7.32377e-14 6.08033e-15 -7.90862e-16 0 0 -1.52157e-13 1.81767e-13 -9.5222e-14 1.90322e-14 0 0 -3.26891e-14 2.18293e-14 4.62623e-14 -1.03621e-13 0 0 4.71055e-14 -1.40024e-13 1.99521e-13 -1.66588e-13 0 0 5.34606e-14 -1.84157e-13 2.51045e-13 -1.75378e-13 0 0 -4.24258e-14 -2.624e-14 8.53547e-14 -8.6283e-14 0 0 -1.14882e-13 1.11648e-13 -8.98067e-14 8.87353e-15 0 0 -4.86244e-14 2.47462e-14 -1.35772e-14 -6.054e-14 0 0 -8.90518e-14 3.56323e-14 -2.85489e-15 -5.94214e-14 0 0 -2.43111e-13 2.10682e-13 -1.65931e-13 6.33619e-14 0 0 -2.36274e-13 1.50462e-13 -1.39043e-13 7.3275e-14 0 0 -9.16886e-14 -7.42233e-14 3.36243e-14 -3.55927e-14 0 0 7.28405e-14 -2.54998e-13 1.64362e-13 -1.45668e-13 0 0 6.27577e-14 -1.6453e-13 5.36112e-14 -1.22938e-13 0 0 -1.06084e-13 8.9712e-14 -6.57171e-14 -1.70876e-13 0 0 -2.8124e-13 3.19322e-13 -1.23258e-13 -2.36353e-13 0 0 -3.78776e-13 5.237e-13 -3.23713e-13 -8.76813e-14 0 0 -9.81526e-14 2.34364e-13 -2.15353e-13 -5.45077e-14 0 0 1.12506e-13 -1.94795e-14 -4.20547e-14 -1.88947e-13 0 0 1.11455e-13 -7.33726e-14 1.15623e-13 -3.85346e-13 0 0 -1.02872e-13 9.67418e-14 6.03013e-14 -3.97735e-13 0 0 -2.96554e-13 2.88003e-13 -1.50201e-13 -2.54512e-13 0 0 -6.75153e-14 -2.58157e-14 3.19284e-14 -3.01865e-13 0 0 -4.61416e-14 5.0464e-14 -1.7122e-13 -1.33764e-13 0 0 -6.80151e-14 1.58006e-13 -3.78316e-13 2.28827e-14 0 0 -9.72297e-14 5.99234e-14 -1.56189e-13 -1.67558e-13 0 0 -1.68985e-13 4.90996e-14 -7.99462e-14 -2.33255e-13 0 0 -7.20939e-15 -1.69355e-13 6.28442e-15 -2.3899e-13 0 0 -5.94571e-14 1.06352e-14 -2.44664e-13 -9.23836e-14 0 0 -1.46159e-13 2.2263e-13 -4.5148e-13 1.88582e-14 0 0 -9.61807e-14 1.33027e-13 -3.51435e-13 1.15302e-14 0 0 -9.95601e-15 -2.34049e-14 -2.04313e-13 2.32959e-14 0 0 1.0751e-13 -2.57534e-13 1.41941e-13 -1.48093e-13 0 0 -1.30925e-13 4.21901e-14 6.37121e-14 -1.18634e-13 0 0 -2.53893e-13 2.91694e-13 -1.28739e-13 1.11739e-15 0 0 -3.39197e-14 2.49457e-14 5.45177e-14 -5.57745e-14 0 0 -2.04886e-14 2.27134e-14 2.4919e-14 -2.55264e-14 0 0 -2.52505e-14 7.73692e-14 4.76706e-14 -2.06773e-13 0 0 -1.84139e-13 3.15035e-13 -5.04e-14 -3.73354e-13 0 0 -1.56717e-13 3.39971e-13 -1.23522e-13 -3.41299e-13 0 0 3.22794e-14 1.30326e-13 1.87305e-14 -3.74863e-13 0 0 9.46278e-14 -1.40323e-15 1.53202e-13 -4.06351e-13 0 0 4.29622e-14 1.41889e-15 2.09954e-13 -3.47378e-13 0 0 -1.88406e-13 4.06727e-13 -1.33717e-13 -9.21638e-14 0 0 -4.08222e-14 3.65018e-13 -1.81299e-13 2.6914e-14 0 0 7.33408e-14 1.51857e-13 3.95602e-14 -3.11924e-14 0 0 5.70653e-14 1.55382e-13 -2.47959e-14 7.34029e-14 0 0 2.16188e-13 -1.34314e-13 1.64193e-13 1.76746e-14 0 0 3.55067e-14 -1.93627e-13 4.11669e-13 -1.52622e-13 0 0 -8.05119e-14 -1.55995e-13 3.24145e-13 6.98249e-14 0 0 -7.62131e-14 -3.86006e-14 -6.09784e-14 5.49606e-13 0 0 -9.85223e-14 -2.16428e-15 -1.12687e-13 5.46818e-13 0 0 3.29651e-13 -5.09605e-13 1.58341e-13 3.18622e-13 0 0 8.7637e-14 -3.85936e-13 -3.35471e-15 4.21342e-13 0 0 -7.65428e-13 2.76943e-13 -2.39407e-13 4.2669e-13 0 0 -4.03486e-13 -3.84254e-14 -1.32708e-13 6.21443e-13 0 0 1.45176e-13 -5.8479e-13 1.27839e-13 7.08824e-13 0 0 1.7917e-13 -5.64119e-13 2.30573e-13 4.75947e-13 0 0 -1.50269e-13 -2.07507e-13 2.08651e-13 1.51755e-13 0 0 -9.23093e-13 5.60408e-13 1.07451e-13 -1.73018e-13 0 0 -8.77012e-13 5.33654e-13 5.19754e-14 -1.87119e-13 0 0 -2.50887e-13 -3.62156e-14 2.4719e-13 -2.20517e-13 0 0 3.29174e-13 -3.06406e-13 2.44173e-13 -1.36458e-13 0 0 3.76663e-13 -2.66147e-13 4.7008e-14 5.92992e-14 0 0 1.42133e-13 -9.63695e-14 -1.95338e-13 1.92883e-13 0 0 -3.25176e-13 1.65382e-13 -1.54824e-13 1.18811e-13 0 0 -4.92357e-13 2.02128e-13 -2.76946e-14 -7.48574e-14 0 0 -4.22057e-13 1.72097e-13 -1.63151e-14 -1.33835e-13 0 0 -1.99783e-13 2.042e-13 -1.72303e-13 -5.40853e-14 0 0 -9.08598e-14 3.42397e-13 -5.48418e-13 4.39211e-14 0 0 -8.15016e-14 5.00456e-13 -7.10519e-13 3.16813e-15 0 0 -6.7784e-14 4.92477e-13 -6.84743e-13 -1.01185e-13 0 0 -3.54903e-14 3.42737e-13 -5.32117e-13 -2.55714e-13 0 0 -2.31861e-15 8.08462e-15 -2.59764e-13 -4.38369e-13 0 0 -2.01597e-14 -2.07236e-13 -1.96438e-13 -4.11238e-13 0 0 -1.03216e-13 -2.31174e-13 -2.96929e-13 -3.18585e-13 0 0 -1.62109e-13 -3.06075e-13 -2.91407e-13 -3.01994e-13 0 0 -1.76499e-13 -3.98106e-13 -2.36084e-13 -2.53432e-13 0 0 -1.91898e-13 -4.05965e-13 -2.24316e-13 -2.12673e-13 0 0 -2.10603e-13 -2.93568e-13 -2.74183e-13 -1.02133e-13 0 0 -2.1653e-13 -2.20763e-13 -3.03568e-13 -1.89496e-14 0 0 -1.06093e-13 -3.57032e-13 -8.38031e-14 -6.00547e-14 0 0 -1.26372e-13 -2.28e-13 -1.48724e-13 -4.3054e-14 0 0 -2.41023e-13 4.54105e-14 -3.41503e-13 3.91381e-14 0 0 -1.58515e-13 -4.24973e-14 -2.13851e-13 6.21681e-14 0 0 -9.24721e-15 -1.6048e-13 -1.16129e-13 3.64945e-14 0 0 1.98419e-14 -2.00396e-13 3.09759e-14 -1.44632e-13 0 0 -1.7271e-13 8.04991e-14 -1.40198e-13 -1.27741e-13 0 0 -3.0177e-13 3.18922e-13 -3.60707e-13 -4.56163e-16 0 0 7.30719e-15 -9.78232e-14 3.66208e-15 -2.07949e-13 0 0 1.73806e-13 -2.66747e-13 6.59217e-14 -2.09344e-13 0 0 1.38617e-13 -2.25463e-13 1.96105e-14 -1.29614e-13 0 0 -3.97439e-14 -4.67484e-14 -8.35534e-14 -7.17998e-14 0 0 -3.19995e-13 3.2743e-13 -4.36537e-13 1.23701e-13 0 0 -1.20631e-13 5.19243e-14 -2.43934e-13 3.77147e-14 0 0 8.88462e-14 -1.85075e-13 -1.15302e-13 -7.56866e-15 0 0 9.542e-14 -1.99647e-13 -1.44026e-13 -3.04187e-14 0 0 -8.90773e-14 -2.95243e-14 -2.66397e-13 -1.85939e-14 0 0 -2.87585e-13 2.00975e-13 -3.95664e-13 -3.12299e-14 0 0 -1.15088e-13 -3.3819e-14 -2.16347e-13 -1.90994e-13 0 0 4.36285e-14 -2.14757e-13 -2.92055e-13 -8.29479e-14 0 0 6.1968e-15 -3.2477e-13 -2.20057e-13 -1.06274e-13 0 0 -3.27911e-13 -3.30131e-14 -3.60597e-13 -5.54779e-14 0 0 -4.61834e-13 2.27985e-13 -7.15599e-13 1.96077e-13 0 0 -1.65121e-13 -2.15625e-13 -1.91821e-13 -1.81887e-13 0 0 -1.88058e-13 -2.84604e-13 6.29809e-14 -3.7254e-13 0 0 -2.78447e-13 -2.31688e-13 3.14611e-14 -2.60836e-13 0 0 -1.36914e-13 -5.70025e-13 5.5162e-13 -6.77292e-13 0 0 -5.4602e-13 1.3443e-13 -1.00092e-13 -3.73779e-13 0 0 -7.48389e-13 4.69318e-13 -3.80149e-13 -9.93443e-14 0 0 -1.6857e-13 -4.83273e-13 6.36176e-13 -5.69748e-13 0 0 1.39586e-13 -6.6764e-13 6.27543e-13 -4.5809e-13 0 0 -1.07118e-13 -7.79122e-14 1.31061e-13 -2.02369e-13 0 0 -5.12251e-13 6.14392e-13 -3.72535e-13 8.26449e-14 0 0 -4.40683e-13 4.91577e-13 -1.91768e-13 1.71779e-13 0 0 7.35687e-14 -5.56939e-13 9.9411e-13 -4.6757e-13 0 0 -3.10848e-14 -4.80623e-13 9.27103e-13 -5.74709e-13 0 0 -3.58923e-13 7.09854e-14 2.14326e-13 -1.32059e-13 0 0 -4.45898e-13 1.89008e-13 -1.87114e-13 3.67295e-13 0 0 -4.26033e-13 9.39205e-14 -3.49303e-13 5.84299e-13 0 0 -8.55851e-14 -3.70209e-13 -1.46328e-13 3.85169e-13 0 0 7.46603e-14 -6.06981e-13 1.18284e-13 5.71458e-14 0 0 -3.93462e-13 -2.61621e-14 -1.89031e-13 5.72734e-14 0 0 -7.95829e-13 4.06617e-13 -4.71274e-13 3.55628e-14 0 0 -3.98575e-13 -2.44279e-13 4.43219e-14 -4.35368e-13 0 0 2.78685e-13 -1.17002e-12 5.65024e-13 -7.79639e-13 0 0 3.21258e-13 -1.35155e-12 5.62933e-13 -8.57255e-13 0 0 -8.09373e-13 2.56177e-13 -9.24979e-13 -5.09593e-14 0 0 -1.3358e-12 1.08057e-12 -1.63463e-12 3.64232e-13 0 0 -4.10425e-13 -1.33384e-13 -6.26339e-13 7.52157e-14 0 0 3.54646e-13 -1.28049e-12 4.73773e-13 -2.98332e-13 0 0 1.70372e-13 -1.25905e-12 6.50848e-13 -2.9275e-13 0 0 -4.59684e-13 -2.14514e-13 -4.96217e-13 3.7968e-13 0 0 -6.51603e-13 2.92007e-13 -1.38501e-12 8.44452e-13 0 0 -3.30521e-13 -1.62884e-13 -1.23514e-12 8.45956e-13 0 0 -4.14064e-13 -4.17703e-14 -1.18834e-12 6.92233e-13 0 0 -4.84018e-13 -1.07225e-13 -7.11253e-13 2.5131e-13 0 0 -4.86114e-14 -8.72328e-13 6.4588e-14 -2.28974e-13 0 0 -8.66701e-14 -6.98244e-13 -3.06972e-13 -1.36674e-13 0 0 -5.29226e-13 -1.41508e-13 -5.40483e-13 -3.88438e-13 0 0 -7.89232e-13 1.77486e-13 -6.80533e-13 -4.38965e-13 0 0 -5.33813e-13 -1.59499e-13 -5.51378e-13 -2.71992e-13 0 0 -4.41821e-15 -9.51299e-13 4.78382e-14 -4.52214e-13 0 0 -7.18837e-14 -7.70549e-13 -2.08168e-13 -1.62334e-13 0 0 -5.67224e-13 -1.42615e-13 -5.06821e-13 1.02964e-14 0 0 -8.75544e-13 2.86489e-13 -6.33311e-13 -1.47297e-13 0 0 -6.4726e-13 -1.49955e-14 -3.79514e-13 -3.70039e-13 0 0 7.05724e-14 -1.15558e-12 4.31768e-13 -7.03693e-13 0 0 2.47901e-13 -1.36903e-12 4.05704e-13 -6.95029e-13 0 0 -4.47762e-13 -3.87404e-13 -2.28004e-13 -6.25549e-13 0 0 -8.57006e-13 2.53646e-13 -6.84132e-13 -5.36962e-13 0 0 -4.19972e-13 -2.29595e-13 -4.39222e-13 -4.76513e-13 0 0 1.84413e-13 -1.04033e-12 2.19259e-13 -7.39613e-13 0 0 6.0026e-14 -8.81736e-13 -2.35893e-14 -4.99365e-13 0 0 -8.46528e-13 -2.0745e-14 -3.00241e-13 -4.09077e-13 0 0 -1.45971e-12 7.82731e-13 -7.51232e-13 -2.75993e-13 0 0 -7.15811e-13 -8.52185e-14 -1.71854e-13 -4.98658e-13 0 0 -4.04162e-14 -1.05987e-12 7.35969e-13 -1.0552e-12 0 0 -9.49541e-13 3.0373e-13 -4.11104e-13 -4.80222e-13 0 0 -1.47481e-12 9.39974e-13 -7.05088e-13 -3.79854e-13 0 0 -5.51052e-13 -4.28072e-13 6.31533e-13 -1.18475e-12 0 0 4.17977e-13 -1.56184e-12 1.40586e-12 -1.56813e-12 0 0 9.09732e-14 -9.20144e-13 8.34267e-13 -1.34461e-12 0 0 -1.29796e-12 1.0538e-12 -6.92993e-13 -6.87136e-13 0 0 -1.34074e-12 1.10422e-12 -7.38883e-13 -8.35301e-13 0 0 5.17659e-14 -8.80565e-13 7.93989e-13 -1.63437e-12 0 0 7.1237e-13 -1.79136e-12 1.41075e-12 -1.79099e-12 0
				</DataArray>
				<DataArray Name="VitesseY" type="Float32" format="ascii">