<?xml version="1.0"?>
<VTKFile type="PolyData">
	<PolyData>
		<Piece NumberOfPoints="1206" NumberOfPolys="1000">
			<Points>
				<DataArray type="Float32" NumberOfComponents="3" format="ascii">
 0 0 0 0.02 0 0 0.04 0 0 0.06 0 0 0.08 0 0 0.1 0 0 0 0.005 0 0.02 0.005 0 0.04 0.005 0 0.06 0.005 0 0.08 0.005 0 0.1 0.005 0 0 0.01 0 0.02 0.01 0 0.04 0.01 0 0.06 0.01 0 0.08 0.01 0 0.1 0.01 0 0 0.015 0 0.02 0.015 0 0.04 0.015 0 0.06 0.015 0 0.08 0.015 0 0.1 0.015 0 0 0.02 0 0.02 0.02 0 0.04 0.02 0 0.06 0.02 0 0.08 0.02 0 0.1 0.02 0 0 0.025 0 0.02 0.025 0 0.04 0.025 0 0.06 0.025 0 0.08 0.025 0 0.1 0.025 0 0 0.03 0 0.02 0.03 0 0.04 0.03 0 0.06 0.03 0 0.08 0.03 0 0.1 0.03 0 0 0.035 0 0.02 0.035 0 0.04 0.035 0 0.06 0.035 0 0.08 0.035 0 0.1 0.035 0 0 0.04 0 0.02 0.04 0 0.04 0.04 0 0.06 0.04 0 0.08 0.04 0 0.1 0.04 0 0 0.045 0 0.02 0.045 0 0.04 0.045 0 0.06 0.045 0 0.08 0.045 0 0.1 0.045 0 0 0.05 0 0.02 0.05 0 0.04 0.05 0 0.06 0.05 0 0.08 0.05 0 0.1 0.05 0 0 0.055 0 0.02 0.055 0 0.04 0.055 0 0.06 0.055 0 0.08 0.055 0 0.1 0.055 0 0 0.06 0 0.02 0.06 0 0.04 0.06 0 0.06 0.06 0 0.08 0.06 0 0.1 0.06 0 0 0.065 0 0.02 0.065 0 0.04 0.065 0 0.06 0.065 0 0.08 0.065 0 0.1 0.065 0 0 0.07 0 0.02 0.07 0 0.04 0.07 0 0.06 0.07 0 0.08 0.07 0 0.1 0.07 0 0 0.075 0 0.02 0.075 0 0.04 0.075 0 0.06 0.075 0 0.08 0.075 0 0.1 0.075 0 0 0.08 0 0.02 0.08 0 0.04 0.08 0 0.06 0.08 0 0.08 0.08 0 0.1 0.08 0 0 0.085 0 0.02 0.085 0 0.04 0.085 0 0.06 0.085 0 0.08 0.085 0 0.1 0.085 0 0 0.09 0 0.02 0.09 0 0.04 0.09 0 0.06 0.09 0 0.08 0.09 0 0.1 0.09 0 0 0.095 0 0.02 0.095 0 0.04 0.095 0 0.06 0.095 0 0.08 0.095 0 0.1 0.095 0 0 0.1 0 0.02 0.1 0 0.04 0.1 0 0.06 0.1 0 0.08 0.1 0 0.1 0.1 0 0 0.105 0 0.02 0.105 0 0.04 0.105 0 0.06 0.105 0 0.08 0.105 0 0.1 0.105 0 0 0.11 0 0.02 0.11 0 0.04 0.11 0 0.06 0.11 0 0.08 0.11 0 0.1 0.11 0 0 0.115 0 0.02 0.115 0 0.04 0.115 0 0.06 0.115 0 0.08 0.115 0 0.1 0.115 0 0 0.12 0 0.02 0.12 0 0.04 0.12 0 0.06 0.12 0 0.08 0.12 0 0.1 0.12 0 0 0.125 0 0.02 0.125 0 0.04 0.125 0 0.06 0.125 0 0.08 0.125 0 0.1 0.125 0 0 0.13 0 0.02 0.13 0 0.04 0.13 0 0.06 0.13 0 0.08 0.13 0 0.1 0.13 0 0 0.135 0 0.02 0.135 0 0.04 0.135 0 0.06 0.135 0 0.08 0.135 0 0.1 0.135 0 0 0.14 0 0.02 0.14 0 0.04 0.14 0 0.06 0.14 0 0.08 0.14 0 0.1 0.14 0 0 0.145 0 0.02 0.145 0 0.04 0.145 0 0.06 0.145 0 0.08 0.145 0 0.1 0.145 0 0 0.15 0 0.02 0.15 0 0.04 0.15 0 0.06 0.15 0 0.08 0.15 0 0.1 0.15 0 0 0.155 0 0.02 0.155 0 0.04 0.155 0 0.06 0.155 0 0.08 0.155 0 0.1 0.155 0 0 0.16 0 0.02 0.16 0 0.04 0.16 0 0.06 0.16 0 0.08 0.16 0 0.1 0.16 0 0 0.165 0 0.02 0.165 0 0.04 0.165 0 0.06 0.165 0 0.08 0.165 0 0.1 0.165 0 0 0.17 0 0.02 0.17 0 0.04 0.17 0 0.06 0.17 0 0.08 0.17 0 0.1 0.17 0 0 0.175 0 0.02 0.175 0 0.04 0.175 0 0.06 0.175 0 0.08 0.175 0 0.1 0.175 0 0 0.18 0 0.02 0.18 0 0.04 0.18 0 0.06 0.18 0 0.08 0.18 0 0.1 0.18 0 0 0.185 0 0.02 0.185 0 0.04 0.185 0 0.06 0.185 0 0.08 0.185 0 0.1 0.185 0 0 0.19 0 0.02 0.19 0 0.04 0.19 0 0.06 0.19 0 0.08 0.19 0 0.1 0.19 0 0 0.195 0 0.02 0.195 0 0.04 0.195 0 0.06 0.195 0 0.08 0.195 0 0.1 0.195 0 0 0.2 0 0.02 0.2 0 0.04 0.2 0 0.06 0.2 0 0.08 0.2 0 0.1 0.2 0 0 0.205 0 0.02 0.205 0 0.04 0.205 0 0.06 0.205 0 0.08 0.205 0 0.1 0.205 0 0 0.21 0 0.02 0.21 0 0.04 0.21 0 0.06 0.21 0 0.08 0.21 0 0.1 0.21 0 0 0.215 0 0.02 0.215 0 0.04 0.215 0 0.06 0.215 0 0.08 0.215 0 0.1 0.215 0 0 0.22 0 0.02 0.22 0 0.04 0.22 0 0.06 0.22 0 0.08 0.22 0 0.1 0.22 0 0 0.225 0 0.02 0.225 0 0.04 0.225 0 0.06 0.225 0 0.08 0.225 0 0.1 0.225 0 0 0.23 0 0.02 0.23 0 0.04 0.23 0 0.06 0.23 0 0.08 0.23 0 0.1 0.23 0 0 0.235 0 0.02 0.235 0 0.04 0.235 0 0.06 0.235 0 0.08 0.235 0 0.1 0.235 0 0 0.24 0 0.02 0.24 0 0.04 0.24 0 0.06 0.24 0 0.08 0.24 0 0.1 0.24 0 0 0.245 0 0.02 0.245 0 0.04 0.245 0 0.06 0.245 0 0.08 0.245 0 0.1 0.245 0 0 0.25 0 0.02 0.25 0 0.04 0.25 0 0.06 0.25 0 0.08 0.25 0 0.1 0.25 0 0 0.255 0 0.02 0.255 0 0.04 0.255 0 0.06 0.255 0 0.08 0.255 0 0.1 0.255 0 0 0.26 0 0.02 0.26 0 0.04 0.26 0 0.06 0.26 0 0.08 0.26 0 0.1 0.26 0 0 0.265 0 0.02 0.265 0 0.04 0.265 0 0.06 0.265 0 0.08 0.265 0 0.1 0.265 0 0 0.27 0 0.02 0.27 0 0.04 0.27 0 0.06 0.27 0 0.08 0.27 0 0.1 0.27 0 0 0.275 0 0.02 0.275 0 0.04 0.275 0 0.06 0.275 0 0.08 0.275 0 0.1 0.275 0 0 0.28 0 0.02 0.28 0 0.04 0.28 0 0.06 0.28 0 0.08 0.28 0 0.1 0.28 0 0 0.285 0 0.02 0.285 0 0.04 0.285 0 0.06 0.285 0 0.08 0.285 0 0.1 0.285 0 0 0.29 0 0.02 0.29 0 0.04 0.29 0 0.06 0.29 0 0.08 0.29 0 0.1 0.29 0 0 0.295 0 0.02 0.295 0 0.04 0.295 0 0.06 0.295 0 0.08 0.295 0 0.1 0.295 0 0 0.3 0 0.02 0.3 0 0.04 0.3 0 0.06 0.3 0 0.08 0.3 0 0.1 0.3 0 0 0.305 0 0.02 0.305 0 0.04 0.305 0 0.06 0.305 0 0.08 0.305 0 0.1 0.305 0 0 0.31 0 0.02 0.31 0 0.04 0.31 0 0.06 0.31 0 0.08 0.31 0 0.1 0.31 0 0 0.315 0 0.02 0.315 0 0.04 0.315 0 0.06 0.315 0 0.08 0.315 0 0.1 0.315 0 0 0.32 0 0.02 0.32 0 0.04 0.32 0 0.06 0.32 0 0.08 0.32 0 0.1 0.32 0 0 0.325 0 0.02 0.325 0 0.04 0.325 0 0.06 0.325 0 0.08 0.325 0 0.1 0.325 0 0 0.33 0 0.02 0.33 0 0.04 0.33 0 0.06 0.33 0 0.08 0.33 0 0.1 0.33 0 0 0.335 0 0.02 0.335 0 0.04 0.335 0 0.06 0.335 0 0.08 0.335 0 0.1 0.335 0 0 0.34 0 0.02 0.34 0 0.04 0.34 0 0.06 0.34 0 0.08 0.34 0 0.1 0.34 0 0 0.345 0 0.02 0.345 0 0.04 0.345 0 0.06 0.345 0 0.08 0.345 0 0.1 0.345 0 0 0.35 0 0.02 0.35 0 0.04 0.35 0 0.06 0.35 0 0.08 0.35 0 0.1 0.35 0 0 0.355 0 0.02 0.355 0 0.04 0.355 0 0.06 0.355 0 0.08 0.355 0 0.1 0.355 0 0 0.36 0 0.02 0.36 0 0.04 0.36 0 0.06 0.36 0 0.08 0.36 0 0.1 0.36 0 0 0.365 0 0.02 0.365 0 0.04 0.365 0 0.06 0.365 0 0.08 0.365 0 0.1 0.365 0 0 0.37 0 0.02 0.37 0 0.04 0.37 0 0.06 0.37 0 0.08 0.37 0 0.1 0.37 0 0 0.375 0 0.02 0.375 0 0.04 0.375 0 0.06 0.375 0 0.08 0.375 0 0.1 0.375 0 0 0.38 0 0.02 0.38 0 0.04 0.38 0 0.06 0.38 0 0.08 0.38 0 0.1 0.38 0 0 0.385 0 0.02 0.385 0 0.04 0.385 0 0.06 0.385 0 0.08 0.385 0 0.1 0.385 0 0 0.39 0 0.02 0.39 0 0.04 0.39 0 0.06 0.39 0 0.08 0.39 0 0.1 0.39 0 0 0.395 0 0.02 0.395 0 0.04 0.395 0 0.06 0.395 0 0.08 0.395 0 0.1 0.395 0 0 0.4 0 0.02 0.4 0 0.04 0.4 0 0.06 0.4 0 0.08 0.4 0 0.1 0.4 0 0 0.405 0 0.02 0.405 0 0.04 0.405 0 0.06 0.405 0 0.08 0.405 0 0.1 0.405 0 0 0.41 0 0.02 0.41 0 0.04 0.41 0 0.06 0.41 0 0.08 0.41 0 0.1 0.41 0 0 0.415 0 0.02 0.415 0 0.04 0.415 0 0.06 0.415 0 0.08 0.415 0 0.1 0.415 0 0 0.42 0 0.02 0.42 0 0.04 0.42 0 0.06 0.42 0 0.08 0.42 0 0.1 0.42 0 0 0.425 0 0.02 0.425 0 0.04 0.425 0 0.06 0.425 0 0.08 0.425 0 0.1 0.425 0 0 0.43 0 0.02 0.43 0 0.04 0.43 0 0.06 0.43 0 0.08 0.43 0 0.1 0.43 0 0 0.435 0 0.02 0.435 0 0.04 0.435 0 0.06 0.435 0 0.08 0.435 0 0.1 0.435 0 0 0.44 0 0.02 0.44 0 0.04 0.44 0 0.06 0.44 0 0.08 0.44 0 0.1 0.44 0 0 0.445 0 0.02 0.445 0 0.04 0.445 0 0.06 0.445 0 0.08 0.445 0 0.1 0.445 0 0 0.45 0 0.02 0.45 0 0.04 0.45 0 0.06 0.45 0 0.08 0.45 0 0.1 0.45 0 0 0.455 0 0.02 0.455 0 0.04 0.455 0 0.06 0.455 0 0.08 0.455 0 0.1 0.455 0 0 0.46 0 0.02 0.46 0 0.04 0.46 0 0.06 0.46 0 0.08 0.46 0 0.1 0.46 0 0 0.465 0 0.02 0.465 0 0.04 0.465 0 0.06 0.465 0 0.08 0.465 0 0.1 0.465 0 0 0.47 0 0.02 0.47 0 0.04 0.47 0 0.06 0.47 0 0.08 0.47 0 0.1 0.47 0 0 0.475 0 0.02 0.475 0 0.04 0.475 0 0.06 0.475 0 0.08 0.475 0 0.1 0.475 0 0 0.48 0 0.02 0.48 0 0.04 0.48 0 0.06 0.48 0 0.08 0.48 0 0.1 0.48 0 0 0.485 0 0.02 0.485 0 0.04 0.485 0 0.06 0.485 0 0.08 0.485 0 0.1 0.485 0 0 0.49 0 0.02 0.49 0 0.04 0.49 0 0.06 0.49 0 0.08 0.49 0 0.1 0.49 0 0 0.495 0 0.02 0.495 0 0.04 0.495 0 0.06 0.495 0 0.08 0.495 0 0.1 0.495 0 0 0.5 0 0.02 0.5 0 0.04 0.5 0 0.06 0.5 0 0.08 0.5 0 0.1 0.5 0 0 0.505 0 0.02 0.505 0 0.04 0.505 0 0.06 0.505 0 0.08 0.505 0 0.1 0.505 0 0 0.51 0 0.02 0.51 0 0.04 0.51 0 0.06 0.51 0 0.08 0.51 0 0.1 0.51 0 0 0.515 0 0.02 0.515 0 0.04 0.515 0 0.06 0.515 0 0.08 0.515 0 0.1 0.515 0 0 0.52 0 0.02 0.52 0 0.04 0.52 0 0.06 0.52 0 0.08 0.52 0 0.1 0.52 0 0 0.525 0 0.02 0.525 0 0.04 0.525 0 0.06 0.525 0 0.08 0.525 0 0.1 0.525 0 0 0.53 0 0.02 0.53 0 0.04 0.53 0 0.06 0.53 0 0.08 0.53 0 0.1 0.53 0 0 0.535 0 0.02 0.535 0 0.04 0.535 0 0.06 0.535 0 0.08 0.535 0 0.1 0.535 0 0 0.54 0 0.02 0.54 0 0.04 0.54 0 0.06 0.54 0 0.08 0.54 0 0.1 0.54 0 0 0.545 0 0.02 0.545 0 0.04 0.545 0 0.06 0.545 0 0.08 0.545 0 0.1 0.545 0 0 0.55 0 0.02 0.55 0 0.04 0.55 0 0.06 0.55 0 0.08 0.55 0 0.1 0.55 0 0 0.555 0 0.02 0.555 0 0.04 0.555 0 0.06 0.555 0 0.08 0.555 0 0.1 0.555 0 0 0.56 0 0.02 0.56 0 0.04 0.56 0 0.06 0.56 0 0.08 0.56 0 0.1 0.56 0 0 0.565 0 0.02 0.565 0 0.04 0.565 0 0.06 0.565 0 0.08 0.565 0 0.1 0.565 0 0 0.57 0 0.02 0.57 0 0.04 0.57 0 0.06 0.57 0 0.08 0.57 0 0.1 0.57 0 0 0.575 0 0.02 0.575 0 0.04 0.575 0 0.06 0.575 0 0.08 0.575 0 0.1 0.575 0 0 0.58 0 0.02 0.58 0 0.04 0.58 0 0.06 0.58 0 0.08 0.58 0 0.1 0.58 0 0 0.585 0 0.02 0.585 0 0.04 0.585 0 0.06 0.585 0 0.08 0.585 0 0.1 0.585 0 0 0.59 0 0.02 0.59 0 0.04 0.59 0 0.06 0.59 0 0.08 0.59 0 0.1 0.59 0 0 0.595 0 0.02 0.595 0 0.04 0.595 0 0.06 0.595 0 0.08 0.595 0 0.1 0.595 0 0 0.6 0 0.02 0.6 0 0.04 0.6 0 0.06 0.6 0 0.08 0.6 0 0.1 0.6 0 0 0.605 0 0.02 0.605 0 0.04 0.605 0 0.06 0.605 0 0.08 0.605 0 0.1 0.605 0 0 0.61 0 0.02 0.61 0 0.04 0.61 0 0.06 0.61 0 0.08 0.61 0 0.1 0.61 0 0 0.615 0 0.02 0.615 0 0.04 0.615 0 0.06 0.615 0 0.08 0.615 0 0.1 0.615 0 0 0.62 0 0.02 0.62 0 0.04 0.62 0 0.06 0.62 0 0.08 0.62 0 0.1 0.62 0 0 0.625 0 0.02 0.625 0 0.04 0.625 0 0.06 0.625 0 0.08 0.625 0 0.1 0.625 0 0 0.63 0 0.02 0.63 0 0.04 0.63 0 0.06 0.63 0 0.08 0.63 0 0.1 0.63 0 0 0.635 0 0.02 0.635 0 0.04 0.635 0 0.06 0.635 0 0.08 0.635 0 0.1 0.635 0 0 0.64 0 0.02 0.64 0 0.04 0.64 0 0.06 0.64 0 0.08 0.64 0 0.1 0.64 0 0 0.645 0 0.02 0.645 0 0.04 0.645 0 0.06 0.645 0 0.08 0.645 0 0.1 0.645 0 0 0.65 0 0.02 0.65 0 0.04 0.65 0 0.06 0.65 0 0.08 0.65 0 0.1 0.65 0 0 0.655 0 0.02 0.655 0 0.04 0.655 0 0.06 0.655 0 0.08 0.655 0 0.1 0.655 0 0 0.66 0 0.02 0.66 0 0.04 0.66 0 0.06 0.66 0 0.08 0.66 0 0.1 0.66 0 0 0.665 0 0.02 0.665 0 0.04 0.665 0 0.06 0.665 0 0.08 0.665 0 0.1 0.665 0 0 0.67 0 0.02 0.67 0 0.04 0.67 0 0.06 0.67 0 0.08 0.67 0 0.1 0.67 0 0 0.675 0 0.02 0.675 0 0.04 0.675 0 0.06 0.675 0 0.08 0.675 0 0.1 0.675 0 0 0.68 0 0.02 0.68 0 0.04 0.68 0 0.06 0.68 0 0.08 0.68 0 0.1 0.68 0 0 0.685 0 0.02 0.685 0 0.04 0.685 0 0.06 0.685 0 0.08 0.685 0 0.1 0.685 0 0 0.69 0 0.02 0.69 0 0.04 0.69 0 0.06 0.69 0 0.08 0.69 0 0.1 
[...]
			<PointData Scalars="VitesseX">
				<DataArray Name="VitesseX" type="Float32" format="ascii">
 0 2.76562e-15 6.63312e-14 4.40956e-14 4.35027e-15 0 0 1.56929e-14 5.13017e-14 4.80374e-14 5.26209e-15 0 0 2.66052e-14 4.60409e-14 3.10159e-14 2.0842e-14 0 0 4.17697e-14 2.45661e-14 3.3321e-14 2.26655e-14 0 0 4.17449e-14 6.48352e-15 4.24256e-14 1.67857e-14 0 0 1.35634e-14 3.37341e-14 1.3515e-14 2.91611e-14 0 0 -1.71942e-15 5.43607e-14 -9.2061e-15 3.76982e-14 0 0 3.45048e-15 3.94308e-14 8.72341e-15 2.60729e-14 0 0 9.57847e-15 2.71761e-14 1.72873e-14 2.44274e-14 0 0 2.10027e-14 1.15187e-14 2.13122e-14 3.15624e-14 0 0 3.59212e-14 -1.50153e-14 5.02564e-14 1.07369e-14 0 0 4.79618e-15 2.61643e-14 1.92723e-14 2.23768e-14 0 0 1.49296e-14 -1.52521e-15 5.59921e-14 -5.63662e-15 0 0 -3.85077e-15 2.8909e-14 2.88208e-14 5.18112e-15 0 0 -2.98785e-14 7.75801e-14 -2.48678e-14 4.7198e-14 0 0 1.18111e-14 2.25677e-14 3.14423e-14 2.83164e-14 0 0 1.73393e-14 2.39463e-14 5.2507e-14 3.36576e-14 0 0 4.42355e-14 -1.21383e-14 9.10581e-14 4.6666e-14 0 0 3.49043e-14 2.31726e-14 5.43837e-14 9.0593e-14 0 0 3.21216e-14 7.33228e-14 1.27302e-15 1.08884e-13 0 0 5.56957e-14 4.1878e-14 5.32903e-14 3.36987e-14 0 0 4.04724e-14 5.91748e-14 4.04347e-14 2.18956e-14 0 0 5.62313e-14 5.09102e-14 3.9194e-14 2.27924e-14 0 0 6.34929e-14 4.32738e-14 7.78263e-14 -3.62976e-14 0 0 2.32311e-14 1.06776e-13 3.36743e-14 -4.51004e-14 0 0 7.99023e-15 1.37818e-13 -1.42582e-14 -2.73131e-14 0 0 4.53696e-14 7.05017e-14 3.20461e-14 -2.30895e-14 0 0 3.51659e-14 7.44367e-14 1.60461e-14 3.11552e-14 0 0 2.14784e-14 1.11378e-13 -5.43736e-14 1.02569e-13 0 0 6.94308e-14 3.00638e-14 2.61128e-14 5.94909e-14 0 0 5.27167e-14 3.48825e-14 5.76985e-14 1.35527e-14 0 0 3.68243e-14 6.69864e-14 3.11801e-14 1.5697e-14 0 0 5.19682e-14 3.25869e-14 7.2619e-14 1.42993e-14 0 0 5.62974e-14 2.81933e-14 5.74282e-14 7.7904e-14 0 0 2.79364e-14 1.05978e-13 -2.3706e-14 1.46456e-13 0 0 -1.28231e-14 1.63234e-13 -8.70994e-15 9.64235e-14 0 0 3.41851e-14 9.86176e-14 7.10601e-14 5.39503e-14 0 0 8.2795e-14 4.92954e-14 1.14448e-13 6.20275e-14 0 0 1.34994e-13 -2.40173e-14 1.73539e-13 4.70952e-14 0 0 9.16612e-14 7.20368e-14 7.10129e-14 1.04049e-13 0 0 3.09586e-14 1.4721e-13 7.08333e-15 1.24017e-13 0 0 1.47048e-14 8.45196e-14 1.00417e-13 4.10442e-14 0 0 -6.06799e-14 1.20475e-13 1.35427e-13 -2.43697e-14 0 0 -1.3133e-13 2.03862e-13 4.34317e-14 3.80892e-14 0 0 -1.28296e-13 1.78172e-13 4.58758e-14 5.93664e-14 0 0 -2.15735e-14 -1.30499e-14 2.36065e-13 -5.93694e-14 0 0 1.16983e-14 -5.38734e-14 2.76767e-13 -8.56919e-14 0 0 -5.30264e-14 6.16343e-14 1.7665e-13 1.21775e-15 0 0 -1.11767e-13 1.53605e-13 1.34945e-13 2.75886e-14 0 0 -2.19286e-13 3.17976e-13 2.36827e-14 7.40407e-14 0 0 -2.50686e-13 3.62e-13 -2.41764e-14 1.19034e-13 0 0 -1.20922e-13 2.00329e-13 1.10103e-13 7.03417e-14 0 0 -9.60733e-14 2.26534e-13 5.78242e-14 1.28639e-13 0 0 -5.33283e-14 9.48669e-14 2.25194e-13 4.91067e-14 0 0 -1.39094e-13 1.359e-13 2.37075e-13 5.7244e-14 0 0 -2.7014e-13 3.6149e-13 1.98448e-15 2.03454e-13 0 0 -7.44783e-14 1.29695e-13 2.12474e-13 7.66372e-14 0 0 -3.23008e-14 1.03638e-13 2.43634e-13 6.89769e-14 0 0 -1.05803e-13 2.4176e-13 4.77923e-14 2.39743e-13 0 0 -9.76085e-14 2.02719e-13 6.27775e-14 2.59912e-13 0 0 -6.33832e-14 1.5922e-13 1.54693e-13 1.40027e-13 0 0 -3.10978e-14 1.5632e-13 1.99586e-13 2.61916e-14 0 0 6.06361e-16 1.52398e-13 1.45378e-13 8.59594e-14 0 0 2.70242e-14 1.48233e-13 9.23653e-14 1.82572e-13 0 0 8.06275e-14 1.08377e-13 1.36662e-13 1.85933e-13 0 0 6.35676e-14 1.42265e-13 1.13393e-13 2.17419e-13 0 0 5.81582e-14 1.19526e-13 1.54509e-13 1.90013e-13 0 0 -1.34002e-14 2.39093e-13 3.92501e-14 2.93808e-13 0 0 -7.75067e-14 3.57587e-13 -5.19496e-14 3.66838e-13 0 0 2.95328e-14 2.20842e-13 1.60466e-13 1.65567e-13 0 0 -7.68332e-14 2.61599e-13 2.63784e-13 4.95068e-14 0 0 -1.74459e-13 2.17195e-13 4.35676e-13 -5.41994e-14 0 0 -3.31746e-13 4.32535e-13 2.6444e-13 5.66342e-14 0 0 -3.44497e-13 3.65818e-13 3.83061e-13 3.35095e-14 0 0 -3.08281e-13 2.78465e-13 4.8081e-13 6.25798e-14 0 0 -1.89143e-13 2.1518e-13 4.13784e-13 1.23604e-13 0 0 -1.2923e-13 7.80348e-14 5.72873e-13 -1.50257e-13 0 0 -4.91676e-13 7.26043e-13 -1.24255e-14 1.33755e-13 0 0 -2.0255e-13 3.83066e-13 1.83106e-13 2.31319e-13 0 0 -2.77971e-13 3.3992e-13 3.60675e-13 2.26278e-13 0 0 -4.71719e-13 6.44551e-13 3.75861e-13 1.01005e-13 0 0 1.37519e-13 1.83313e-14 9.44648e-13 -3.12325e-13 0 0 3.66599e-13 1.28413e-13 6.10248e-13 -1.26729e-13 0 0 2.61396e-13 4.60263e-13 9.21873e-14 2.04562e-13 0 0 3.45028e-13 5.3033e-13 1.17789e-14 1.88058e-13 0 0 3.04741e-13 5.21654e-13 2.33915e-13 -1.01143e-13 0 0 2.67484e-13 6.05781e-13 2.28272e-13 -2.48691e-13 0 0 3.17352e-13 5.93629e-13 2.40667e-13 -3.15815e-13 0 0 4.54945e-13 4.95596e-13 2.17152e-13 -2.31558e-13 0 0 4.31134e-13 5.73264e-13 1.17469e-13 -5.86418e-14 0 0 3.22407e-13 7.59809e-13 -1.17678e-13 2.49862e-13 0 0 3.67783e-13 7.24661e-13 -1.75693e-13 4.12116e-13 0 0 4.28926e-13 6.5314e-13 -9.72053e-14 3.74603e-13 0 0 4.91526e-13 5.33177e-13 1.24184e-13 2.22815e-13 0 0 6.25318e-13 2.90816e-13 3.65696e-13 1.00234e-13 0 0 6.50643e-13 1.74565e-13 4.43498e-13 8.42196e-14 0 0 6.1401e-13 1.87729e-13 4.2506e-13 1.43655e-13 0 0 4.9935e-13 2.95809e-13 3.33957e-13 2.10767e-13 0 0 2.82202e-13 5.33802e-13 1.7707e-13 2.15099e-13 0 0 1.1027e-13 7.11599e-13 8.70805e-14 1.66372e-13 0 0 7.96762e-14 7.35032e-13 9.07256e-14 5.23221e-14 0 0 1.12525e-13 6.71096e-13 1.51379e-13 -7.67085e-14 0 0 2.15363e-13 5.02463e-13 2.63559e-13 -1.29442e-13 0 0 3.19683e-13 3.25331e-13 3.73772e-13 -1.36503e-13 0 0 3.39568e-13 2.59232e-13 4.42529e-13 -1.2373e-13 0 0 2.93788e-13 2.58481e-13 5.01514e-13 -1.03701e-13 0 0 1.59062e-13 2.88109e-13 5.66587e-13 -1.20647e-13 0 0 -1.40567e-16 3.13689e-13 6.59386e-13 -1.94634e-13 0 0 -8.25223e-14 3.06469e-13 7.04568e-13 -2.15907e-13 0 0 -1.07609e-13 2.87546e-13 6.78232e-13 -1.90792e-13 0 0 -9.2696e-14 2.91088e-13 6.07037e-13 -1.41639e-13 0 0 -3.91838e-14 3.10466e-13 4.77127e-13 -3.05352e-14 0 0 2.56791e-14 3.38453e-13 2.86068e-13 1.56711e-13 0 0 6.45465e-14 3.61e-13 7.84773e-14 3.69445e-13 0 0 7.52766e-14 3.83681e-13 -1.27352e-14 4.86183e-13 0 0 6.74568e-14 3.7324e-13 -1.15056e-14 5.03774e-13 0 0 5.90533e-14 3.19476e-13 4.89604e-14 4.84384e-13 0 0 3.78305e-14 2.47923e-13 1.99801e-13 4.19853e-13 0 0 9.19489e-15 2.44317e-13 2.42703e-13 3.87352e-13 0 0 2.7707e-14 1.99991e-13 3.0337e-13 3.09185e-13 0 0 5.16635e-14 1.06847e-13 4.36879e-13 2.26663e-13 0 0 2.82515e-14 1.60637e-13 3.7276e-13 2.94798e-13 0 0 1.9955e-14 2.28957e-13 2.66485e-13 3.05177e-13 0 0 4.96687e-14 2.07616e-13 3.18908e-13 2.02e-13 0 0 7.23965e-14 2.23783e-13 3.05781e-13 9.89476e-14 0 0 7.36404e-14 2.54798e-13 2.29169e-13 8.37806e-14 0 0 1.00461e-13 2.09368e-13 2.5297e-13 4.90123e-14 0 0 1.25469e-13 1.84699e-13 2.39371e-13 4.57929e-14 0 0 1.03592e-13 2.2583e-13 1.59693e-13 7.62279e-14 0 0 5.31366e-14 2.37233e-13 1.98959e-13 5.95696e-14 0 0 6.47722e-14 2.11994e-13 2.33418e-13 7.85903e-14 0 0 1.0196e-13 2.35493e-13 1.81571e-13 2.24693e-13 0 0 9.54834e-14 2.41824e-13 2.64657e-13 1.7551e-13 0 0 9.70794e-14 2.18039e-13 5.11232e-13 2.92761e-14 0 0 1.4156e-13 2.81488e-13 5.33551e-13 1.00013e-13 0 0 2.00941e-13 4.37436e-13 3.41222e-13 1.84195e-13 0 0 2.04344e-13 5.7347e-13 2.45858e-13 2.25092e-13 0 0 2.10161e-13 6.24269e-13 2.48905e-13 2.75019e-13 0 0 2.60386e-13 5.8442e-13 3.26033e-13 1.58364e-13 0 0 3.23484e-13 5.52723e-13 3.80707e-13 2.05938e-14 0 0 4.09782e-13 4.00101e-13 5.19376e-13 -3.72225e-14 0 0 3.90742e-13 3.94034e-13 5.22963e-13 -6.27154e-14 0 0 2.35689e-13 6.32006e-13 2.53226e-13 1.03616e-13 0 0 2.21788e-13 6.67515e-13 1.59781e-13 1.78362e-13 0 0 3.95382e-13 3.97264e-13 3.89474e-13 2.54593e-14 0 0 4.71263e-13 2.88014e-13 4.40485e-13 6.10491e-14 0 0 3.73875e-13 4.39854e-13 2.48203e-13 2.27061e-13 0 0 2.08611e-13 6.49374e-13 1.96404e-14 4.13585e-13 0 0 2.22019e-13 5.75394e-13 1.19939e-13 3.71168e-13 0 0 4.20038e-13 2.29575e-13 4.69134e-13 1.69226e-13 0 0 3.23346e-13 3.31589e-13 4.11009e-13 1.6726e-13 0 0 1.66214e-13 5.69157e-13 2.2992e-13 2.57496e-13 0 0 2.30549e-13 5.26921e-13 2.51431e-13 2.53132e-13 0 0 2.89075e-13 5.0523e-13 2.59278e-13 3.21329e-13 0 0 3.63782e-13 4.20088e-13 4.00551e-13 3.5004e-13 0 0 4.20994e-13 2.89554e-13 6.9323e-13 1.66856e-13 0 0 2.8584e-13 4.95166e-13 6.26829e-13 2.03605e-13 0 0 1.87704e-13 7.90308e-13 4.00965e-13 3.29585e-13 0 0 2.75023e-13 7.92828e-13 4.13561e-13 2.80178e-13 0 0 6.10353e-13 4.2142e-13 5.80151e-13 3.69847e-13 0 0 6.86746e-13 3.85978e-13 6.80047e-13 2.78636e-13 0 0 2.00366e-13 9.79326e-13 4.49342e-13 1.38655e-13 0 0 2.74091e-14 1.22832e-12 1.93833e-13 3.28335e-13 0 0 3.65203e-13 7.5038e-13 5.35172e-13 2.35584e-13 0 0 5.46196e-13 3.75315e-13 9.10573e-13 -3.15642e-15 0 0 3.50497e-13 6.42065e-13 6.38196e-13 2.40307e-13 0 0 3.3528e-13 7.17987e-13 5.19545e-13 3.2286e-13 0 0 4.77821e-13 5.60454e-13 6.57153e-13 1.26709e-13 0 0 5.60224e-13 3.80598e-13 8.487e-13 -1.03633e-13 0 0 5.83637e-13 3.83306e-13 7.2732e-13 1.62198e-14 0 0 3.98687e-13 7.10467e-13 3.57058e-13 3.65536e-13 0 0 3.65365e-13 5.85468e-13 6.50811e-13 1.61306e-13 0 0 3.77535e-13 4.87977e-13 8.15615e-13 7.39451e-14 0 0 3.30736e-13 6.48579e-13 6.07066e-13 2.19724e-13 0 0 2.96464e-13 7.3871e-13 4.71483e-13 3.56442e-13 0 0 3.7148e-13 7.10153e-13 3.82293e-13 5.5498e-13 0 0 4.9632e-13 5.35118e-13 5.23618e-13 5.55951e-13 0 0 3.09472e-13 6.50942e-13 6.96331e-13 3.12906e-13 0 0 2.37638e-13 6.59332e-13 8.64674e-13 1.07386e-13 0 0 1.3642e-13 7.37994e-13 7.56725e-13 8.36453e-14 0 0 3.02346e-13 4.5868e-13 9.25904e-13 -3.7155e-14 0 0 5.16869e-13 3.27334e-13 7.59207e-13 2.50452e-13 0 0 6.11119e-13 3.66622e-13 4.31662e-13 6.15643e-13 0 0 6.46092e-13 3.63234e-13 3.99629e-13 5.90394e-13 0 0 3.98148e-13 7.68304e-13 1.14226e-13 5.58647e-13 0 0 3.73315e-13 7.05543e-13 1.81633e-13 4.81115e-13 0 0 4.17041e-13 5.31252e-13 4.06488e-13 3.61934e-13 0 0 3.89572e-13 4.98884e-13 4.65222e-13 4.07386e-13 0 0 3.89445e-13 4.09847e-13 4.65562e-13 5.93123e-13 0 0 2.83299e-13 5.35638e-13 4.22009e-13 5.60783e-13 0 0 3.42176e-13 4.55636e-13 6.04407e-13 2.81558e-13 0 0 6.14885e-13 4.36355e-14 9.02485e-13 2.9037e-13 0 0 3.09861e-13 5.34828e-13 3.52181e-13 8.24336e-13 0 0 2.10539e-14 1.18155e-12 -3.03994e-13 1.03939e-12 0 0 4.44224e-13 6.23353e-13 1.86401e-13 5.8517e-13 0 0 8.58181e-13 -2.57503e-14 8.54645e-13 1.57935e-13 0 0 6.44303e-13 4.07428e-13 6.60155e-13 1.0067e-13 0 0 6.16879e-14 1.28176e-12 -2.39233e-13 7.95918e-13 0 0 1.96978e-13 9.17536e-13 -1.7755e-13 1.06782e-12 0 0 9.36477e-13 -4.31979e-13 1.0607e-12 4.24562e-13 0 0 1.23707e-12 -1.0066e-12 1.58017e-12 2.1313e-13 0
				</DataArray>
				<DataArray Name="VitesseY" type="Float32" format="ascii">