<?xml version="1.0"?>
<VTKFile type="PolyData">
	<PolyData>
		<Piece NumberOfPoints="1206" NumberOfPolys="1000">
			<Points>
				<DataArray type="Float32" NumberOfComponents="3" format="ascii">
 0 0 0 0.02 0 0 0.04 0 0 0.06 0 0 0.08 0 0 0.1 0 0 0 0.005 0 0.02 0.005 0 0.04 0.005 0 0.06 0.005 0 0.08 0.005 0 0.1 0.005 0 0 0.01 0 0.02 0.01 0 0.04 0.01 0 0.06 0.01 0 0.08 0.01 0 0.1 0.01 0 0 0.015 0 0.02 0.015 0 0.04 0.015 0 0.06 0.015 0 0.08 0.015 0 0.1 0.015 0 0 0.02 0 0.02 0.02 0 0.04 0.02 0 0.06 0.02 0 0.08 0.02 0 0.1 0.02 0 0 0.025 0 0.02 0.025 0 0.04 0.025 0 0.06 0.025 0 0.08 0.025 0 0.1 0.025 0 0 0.03 0 0.02 0.03 0 0.04 0.03 0 0.06 0.03 0 0.08 0.03 0 0.1 0.03 0 0 0.035 0 0.02 0.035 0 0.04 0.035 0 0.06 0.035 0 0.08 0.035 0 0.1 0.035 0 0 0.04 0 0.02 0.04 0 0.04 0.04 0 0.06 0.04 0 0.08 0.04 0 0.1 0.04 0 0 0.045 0 0.02 0.045 0 0.04 0.045 0 0.06 0.045 0 0.08 0.045 0 0.1 0.045 0 0 0.05 0 0.02 0.05 0 0.04 0.05 0 0.06 0.05 0 0.08 0.05 0 0.1 0.05 0 0 0.055 0 0.02 0.055 0 0.04 0.055 0 0.06 0.055 0 0.08 0.055 0 0.1 0.055 0 0 0.06 0 0.02 0.06 0 0.04 0.06 0 0.06 0.06 0 0.08 0.06 0 0.1 0.06 0 0 0.065 0 0.02 0.065 0 0.04 0.065 0 0.06 0.065 0 0.08 0.065 0 0.1 0.065 0 0 0.07 0 0.02 0.07 0 0.04 0.07 0 0.06 0.07 0 0.08 0.07 0 0.1 0.07 0 0 0.075 0 0.02 0.075 0 0.04 0.075 0 0.06 0.075 0 0.08 0.075 0 0.1 0.075 0 0 0.08 0 0.02 0.08 0 0.04 0.08 0 0.06 0.08 0 0.08 0.08 0 0.1 0.08 0 0 0.085 0 0.02 0.085 0 0.04 0.085 0 0.06 0.085 0 0.08 0.085 0 0.1 0.085 0 0 0.09 0 0.02 0.09 0 0.04 0.09 0 0.06 0.09 0 0.08 0.09 0 0.1 0.09 0 0 0.095 0 0.02 0.095 0 0.04 0.095 0 0.06 0.095 0 0.08 0.095 0 0.1 0.095 0 0 0.1 0 0.02 0.1 0 0.04 0.1 0 0.06 0.1 0 0.08 0.1 0 0.1 0.1 0 0 0.105 0 0.02 0.105 0 0.04 0.105 0 0.06 0.105 0 0.08 0.105 0 0.1 0.105 0 0 0.11 0 0.02 0.11 0 0.04 0.11 0 0.06 0.11 0 0.08 0.11 0 0.1 0.11 0 0 0.115 0 0.02 0.115 0 0.04 0.115 0 0.06 0.115 0 0.08 0.115 0 0.1 0.115 0 0 0.12 0 0.02 0.12 0 0.04 0.12 0 0.06 0.12 0 0.08 0.12 0 0.1 0.12 0 0 0.125 0 0.02 0.125 0 0.04 0.125 0 0.06 0.125 0 0.08 0.125 0 0.1 0.125 0 0 0.13 0 0.02 0.13 0 0.04 0.13 0 0.06 0.13 0 0.08 0.13 0 0.1 0.13 0 0 0.135 0 0.02 0.135 0 0.04 0.135 0 0.06 0.135 0 0.08 0.135 0 0.1 0.135 0 0 0.14 0 0.02 0.14 0 0.04 0.14 0 0.06 0.14 0 0.08 0.14 0 0.1 0.14 0 0 0.145 0 0.02 0.145 0 0.04 0.145 0 0.06 0.145 0 0.08 0.145 0 0.1 0.145 0 0 0.15 0 0.02 0.15 0 0.04 0.15 0 0.06 0.15 0 0.08 0.15 0 0.1 0.15 0 0 0.155 0 0.02 0.155 0 0.04 0.155 0 0.06 0.155 0 0.08 0.155 0 0.1 0.155 0 0 0.16 0 0.02 0.16 0 0.04 0.16 0 0.06 0.16 0 0.08 0.16 0 0.1 0.16 0 0 0.165 0 0.02 0.165 0 0.04 0.165 0 0.06 0.165 0 0.08 0.165 0 0.1 0.165 0 0 0.17 0 0.02 0.17 0 0.04 0.17 0 0.06 0.17 0 0.08 0.17 0 0.1 0.17 0 0 0.175 0 0.02 0.175 0 0.04 0.175 0 0.06 0.175 0 0.08 0.175 0 0.1 0.175 0 0 0.18 0 0.02 0.18 0 0.04 0.18 0 0.06 0.18 0 0.08 0.18 0 0.1 0.18 0 0 0.185 0 0.02 0.185 0 0.04 0.185 0 0.06 0.185 0 0.08 0.185 0 0.1 0.185 0 0 0.19 0 0.02 0.19 0 0.04 0.19 0 0.06 0.19 0 0.08 0.19 0 0.1 0.19 0 0 0.195 0 0.02 0.195 0 0.04 0.195 0 0.06 0.195 0 0.08 0.195 0 0.1 0.195 0 0 0.2 0 0.02 0.2 0 0.04 0.2 0 0.06 0.2 0 0.08 0.2 0 0.1 0.2 0 0 0.205 0 0.02 0.205 0 0.04 0.205 0 0.06 0.205 0 0.08 0.205 0 0.1 0.205 0 0 0.21 0 0.02 0.21 0 0.04 0.21 0 0.06 0.21 0 0.08 0.21 0 0.1 0.21 0 0 0.215 0 0.02 0.215 0 0.04 0.215 0 0.06 0.215 0 0.08 0.215 0 0.1 0.215 0 0 0.22 0 0.02 0.22 0 0.04 0.22 0 0.06 0.22 0 0.08 0.22 0 0.1 0.22 0 0 0.225 0 0.02 0.225 0 0.04 0.225 0 0.06 0.225 0 0.08 0.225 0 0.1 0.225 0 0 0.23 0 0.02 0.23 0 0.04 0.23 0 0.06 0.23 0 0.08 0.23 0 0.1 0.23 0 0 0.235 0 0.02 0.235 0 0.04 0.235 0 0.06 0.235 0 0.08 0.235 0 0.1 0.235 0 0 0.24 0 0.02 0.24 0 0.04 0.24 0 0.06 0.24 0 0.08 0.24 0 0.1 0.24 0 0 0.245 0 0.02 0.245 0 0.04 0.245 0 0.06 0.245 0 0.08 0.245 0 0.1 0.245 0 0 0.25 0 0.02 0.25 0 0.04 0.25 0 0.06 0.25 0 0.08 0.25 0 0.1 0.25 0 0 0.255 0 0.02 0.255 0 0.04 0.255 0 0.06 0.255 0 0.08 0.255 0 0.1 0.255 0 0 0.26 0 0.02 0.26 0 0.04 0.26 0 0.06 0.26 0 0.08 0.26 0 0.1 0.26 0 0 0.265 0 0.02 0.265 0 0.04 0.265 0 0.06 0.265 0 0.08 0.265 0 0.1 0.265 0 0 0.27 0 0.02 0.27 0 0.04 0.27 0 0.06 0.27 0 0.08 0.27 0 0.1 0.27 0 0 0.275 0 0.02 0.275 0 0.04 0.275 0 0.06 0.275 0 0.08 0.275 0 0.1 0.275 0 0 0.28 0 0.02 0.28 0 0.04 0.28 0 0.06 0.28 0 0.08 0.28 0 0.1 0.28 0 0 0.285 0 0.02 0.285 0 0.04 0.285 0 0.06 0.285 0 0.08 0.285 0 0.1 0.285 0 0 0.29 0 0.02 0.29 0 0.04 0.29 0 0.06 0.29 0 0.08 0.29 0 0.1 0.29 0 0 0.295 0 0.02 0.295 0 0.04 0.295 0 0.06 0.295 0 0.08 0.295 0 0.1 0.295 0 0 0.3 0 0.02 0.3 0 0.04 0.3 0 0.06 0.3 0 0.08 0.3 0 0.1 0.3 0 0 0.305 0 0.02 0.305 0 0.04 0.305 0 0.06 0.305 0 0.08 0.305 0 0.1 0.305 0 0 0.31 0 0.02 0.31 0 0.04 0.31 0 0.06 0.31 0 0.08 0.31 0 0.1 0.31 0 0 0.315 0 0.02 0.315 0 0.04 0.315 0 0.06 0.315 0 0.08 0.315 0 0.1 0.315 0 0 0.32 0 0.02 0.32 0 0.04 0.32 0 0.06 0.32 0 0.08 0.32 0 0.1 0.32 0 0 0.325 0 0.02 0.325 0 0.04 0.325 0 0.06 0.325 0 0.08 0.325 0 0.1 0.325 0 0 0.33 0 0.02 0.33 0 0.04 0.33 0 0.06 0.33 0 0.08 0.33 0 0.1 0.33 0 0 0.335 0 0.02 0.335 0 0.04 0.335 0 0.06 0.335 0 0.08 0.335 0 0.1 0.335 0 0 0.34 0 0.02 0.34 0 0.04 0.34 0 0.06 0.34 0 0.08 0.34 0 0.1 0.34 0 0 0.345 0 0.02 0.345 0 0.04 0.345 0 0.06 0.345 0 0.08 0.345 0 0.1 0.345 0 0 0.35 0 0.02 0.35 0 0.04 0.35 0 0.06 0.35 0 0.08 0.35 0 0.1 0.35 0 0 0.355 0 0.02 0.355 0 0.04 0.355 0 0.06 0.355 0 0.08 0.355 0 0.1 0.355 0 0 0.36 0 0.02 0.36 0 0.04 0.36 0 0.06 0.36 0 0.08 0.36 0 0.1 0.36 0 0 0.365 0 0.02 0.365 0 0.04 0.365 0 0.06 0.365 0 0.08 0.365 0 0.1 0.365 0 0 0.37 0 0.02 0.37 0 0.04 0.37 0 0.06 0.37 0 0.08 0.37 0 0.1 0.37 0 0 0.375 0 0.02 0.375 0 0.04 0.375 0 0.06 0.375 0 0.08 0.375 0 0.1 0.375 0 0 0.38 0 0.02 0.38 0 0.04 0.38 0 0.06 0.38 0 0.08 0.38 0 0.1 0.38 0 0 0.385 0 0.02 0.385 0 0.04 0.385 0 0.06 0.385 0 0.08 0.385 0 0.1 0.385 0 0 0.39 0 0.02 0.39 0 0.04 0.39 0 0.06 0.39 0 0.08 0.39 0 0.1 0.39 0 0 0.395 0 0.02 0.395 0 0.04 0.395 0 0.06 0.395 0 0.08 0.395 0 0.1 0.395 0 0 0.4 0 0.02 0.4 0 0.04 0.4 0 0.06 0.4 0 0.08 0.4 0 0.1 0.4 0 0 0.405 0 0.02 0.405 0 0.04 0.405 0 0.06 0.405 0 0.08 0.405 0 0.1 0.405 0 0 0.41 0 0.02 0.41 0 0.04 0.41 0 0.06 0.41 0 0.08 0.41 0 0.1 0.41 0 0 0.415 0 0.02 0.415 0 0.04 0.415 0 0.06 0.415 0 0.08 0.415 0 0.1 0.415 0 0 0.42 0 0.02 0.42 0 0.04 0.42 0 0.06 0.42 0 0.08 0.42 0 0.1 0.42 0 0 0.425 0 0.02 0.425 0 0.04 0.425 0 0.06 0.425 0 0.08 0.425 0 0.1 0.425 0 0 0.43 0 0.02 0.43 0 0.04 0.43 0 0.06 0.43 0 0.08 0.43 0 0.1 0.43 0 0 0.435 0 0.02 0.435 0 0.04 0.435 0 0.06 0.435 0 0.08 0.435 0 0.1 0.435 0 0 0.44 0 0.02 0.44 0 0.04 0.44 0 0.06 0.44 0 0.08 0.44 0 0.1 0.44 0 0 0.445 0 0.02 0.445 0 0.04 0.445 0 0.06 0.445 0 0.08 0.445 0 0.1 0.445 0 0 0.45 0 0.02 0.45 0 0.04 0.45 0 0.06 0.45 0 0.08 0.45 0 0.1 0.45 0 0 0.455 0 0.02 0.455 0 0.04 0.455 0 0.06 0.455 0 0.08 0.455 0 0.1 0.455 0 0 0.46 0 0.02 0.46 0 0.04 0.46 0 0.06 0.46 0 0.08 0.46 0 0.1 0.46 0 0 0.465 0 0.02 0.465 0 0.04 0.465 0 0.06 0.465 0 0.08 0.465 0 0.1 0.465 0 0 0.47 0 0.02 0.47 0 0.04 0.47 0 0.06 0.47 0 0.08 0.47 0 0.1 0.47 0 0 0.475 0 0.02 0.475 0 0.04 0.475 0 0.06 0.475 0 0.08 0.475 0 0.1 0.475 0 0 0.48 0 0.02 0.48 0 0.04 0.48 0 0.06 0.48 0 0.08 0.48 0 0.1 0.48 0 0 0.485 0 0.02 0.485 0 0.04 0.485 0 0.06 0.485 0 0.08 0.485 0 0.1 0.485 0 0 0.49 0 0.02 0.49 0 0.04 0.49 0 0.06 0.49 0 0.08 0.49 0 0.1 0.49 0 0 0.495 0 0.02 0.495 0 0.04 0.495 0 0.06 0.495 0 0.08 0.495 0 0.1 0.495 0 0 0.5 0 0.02 0.5 0 0.04 0.5 0 0.06 0.5 0 0.08 0.5 0 0.1 0.5 0 0 0.505 0 0.02 0.505 0 0.04 0.505 0 0.06 0.505 0 0.08 0.505 0 0.1 0.505 0 0 0.51 0 0.02 0.51 0 0.04 0.51 0 0.06 0.51 0 0.08 0.51 0 0.1 0.51 0 0 0.515 0 0.02 0.515 0 0.04 0.515 0 0.06 0.515 0 0.08 0.515 0 0.1 0.515 0 0 0.52 0 0.02 0.52 0 0.04 0.52 0 0.06 0.52 0 0.08 0.52 0 0.1 0.52 0 0 0.525 0 0.02 0.525 0 0.04 0.525 0 0.06 0.525 0 0.08 0.525 0 0.1 0.525 0 0 0.53 0 0.02 0.53 0 0.04 0.53 0 0.06 0.53 0 0.08 0.53 0 0.1 0.53 0 0 0.535 0 0.02 0.535 0 0.04 0.535 0 0.06 0.535 0 0.08 0.535 0 0.1 0.535 0 0 0.54 0 0.02 0.54 0 0.04 0.54 0 0.06 0.54 0 0.08 0.54 0 0.1 0.54 0 0 0.545 0 0.02 0.545 0 0.04 0.545 0 0.06 0.545 0 0.08 0.545 0 0.1 0.545 0 0 0.55 0 0.02 0.55 0 0.04 0.55 0 0.06 0.55 0 0.08 0.55 0 0.1 0.55 0 0 0.555 0 0.02 0.555 0 0.04 0.555 0 0.06 0.555 0 0.08 0.555 0 0.1 0.555 0 0 0.56 0 0.02 0.56 0 0.04 0.56 0 0.06 0.56 0 0.08 0.56 0 0.1 0.56 0 0 0.565 0 0.02 0.565 0 0.04 0.565 0 0.06 0.565 0 0.08 0.565 0 0.1 0.565 0 0 0.57 0 0.02 0.57 0 0.04 0.57 0 0.06 0.57 0 0.08 0.57 0 0.1 0.57 0 0 0.575 0 0.02 0.575 0 0.04 0.575 0 0.06 0.575 0 0.08 0.575 0 0.1 0.575 0 0 0.58 0 0.02 0.58 0 0.04 0.58 0 0.06 0.58 0 0.08 0.58 0 0.1 0.58 0 0 0.585 0 0.02 0.585 0 0.04 0.585 0 0.06 0.585 0 0.08 0.585 0 0.1 0.585 0 0 0.59 0 0.02 0.59 0 0.04 0.59 0 0.06 0.59 0 0.08 0.59 0 0.1 0.59 0 0 0.595 0 0.02 0.595 0 0.04 0.595 0 0.06 0.595 0 0.08 0.595 0 0.1 0.595 0 0 0.6 0 0.02 0.6 0 0.04 0.6 0 0.06 0.6 0 0.08 0.6 0 0.1 0.6 0 0 0.605 0 0.02 0.605 0 0.04 0.605 0 0.06 0.605 0 0.08 0.605 0 0.1 0.605 0 0 0.61 0 0.02 0.61 0 0.04 0.61 0 0.06 0.61 0 0.08 0.61 0 0.1 0.61 0 0 0.615 0 0.02 0.615 0 0.04 0.615 0 0.06 0.615 0 0.08 0.615 0 0.1 0.615 0 0 0.62 0 0.02 0.62 0 0.04 0.62 0 0.06 0.62 0 0.08 0.62 0 0.1 0.62 0 0 0.625 0 0.02 0.625 0 0.04 0.625 0 0.06 0.625 0 0.08 0.625 0 0.1 0.625 0 0 0.63 0 0.02 0.63 0 0.04 0.63 0 0.06 0.63 0 0.08 0.63 0 0.1 0.63 0 0 0.635 0 0.02 0.635 0 0.04 0.635 0 0.06 0.635 0 0.08 0.635 0 0.1 0.635 0 0 0.64 0 0.02 0.64 0 0.04 0.64 0 0.06 0.64 0 0.08 0.64 0 0.1 0.64 0 0 0.645 0 0.02 0.645 0 0.04 0.645 0 0.06 0.645 0 0.08 0.645 0 0.1 0.645 0 0 0.65 0 0.02 0.65 0 0.04 0.65 0 0.06 0.65 0 0.08 0.65 0 0.1 0.65 0 0 0.655 0 0.02 0.655 0 0.04 0.655 0 0.06 0.655 0 0.08 0.655 0 0.1 0.655 0 0 0.66 0 0.02 0.66 0 0.04 0.66 0 0.06 0.66 0 0.08 0.66 0 0.1 0.66 0 0 0.665 0 0.02 0.665 0 0.04 0.665 0 0.06 0.665 0 0.08 0.665 0 0.1 0.665 0 0 0.67 0 0.02 0.67 0 0.04 0.67 0 0.06 0.67 0 0.08 0.67 0 0.1 0.67 0 0 0.675 0 0.02 0.675 0 0.04 0.675 0 0.06 0.675 0 0.08 0.675 0 0.1 0.675 0 0 0.68 0 0.02 0.68 0 0.04 0.68 0 0.06 0.68 0 0.08 0.68 0 0.1 0.68 0 0 0.685 0 0.02 0.685 0 0.04 0.685 0 0.06 0.685 0 0.08 0.685 0 0.1 0.685 0 0 0.69 0 0.02 0.69 0 0.04 0.69 0 0.06 0.69 0 0.08 0.69 0 0.1 
[...]
			<PointData Scalars="VitesseX">
				<DataArray Name="VitesseX" type="Float32" format="ascii">
 0 -9.88729e-15 -1.42892e-14 -2.54351e-14 2.39968e-14 0 0 -1.82365e-14 -5.03117e-15 -2.22317e-14 1.68222e-14 0 0 -1.04236e-14 -2.08599e-14 6.2878e-15 -4.59306e-15 0 0 -2.46244e-14 -6.1779e-15 -4.6092e-15 8.08892e-15 0 0 -5.16301e-14 1.65987e-14 -8.71724e-15 9.46308e-15 0 0 -3.54157e-14 -1.56817e-14 2.6669e-14 -2.00984e-14 0 0 2.6859e-15 -5.2475e-14 1.8354e-14 -7.00801e-15 0 0 3.69056e-15 -4.27422e-14 -3.32651e-14 3.27265e-14 0 0 -1.75016e-14 -3.57787e-14 -3.64223e-14 2.24418e-14 0 0 -4.5125e-14 -2.2871e-14 -4.12225e-14 2.76863e-14 0 0 -8.23248e-14 3.63574e-14 -9.29992e-14 6.23184e-14 0 0 -4.04869e-14 -3.58836e-14 1.5176e-14 -1.58003e-14 0 0 -6.97286e-14 -1.28437e-14 3.44775e-14 -5.039e-14 0 0 -6.27844e-14 2.46839e-15 8.05079e-15 -5.94257e-14 0 0 -3.4197e-14 4.03492e-15 -3.8085e-14 -1.42265e-14 0 0 -7.67686e-14 7.12276e-14 -1.11621e-13 5.85973e-14 0 0 -2.15934e-14 -3.99216e-14 -9.52702e-15 2.14339e-14 0 0 -7.69094e-14 4.26078e-14 -1.09614e-13 8.84402e-14 0 0 -1.29441e-13 1.26925e-13 -1.79882e-13 9.12389e-14 0 0 -6.00748e-14 2.00082e-14 -9.84163e-14 4.53781e-14 0 0 -1.51717e-14 -4.40114e-14 -1.2552e-13 1.06708e-13 0 0 -2.11955e-14 -5.63986e-14 -1.465e-13 1.28476e-13 0 0 -8.9141e-14 -3.54298e-14 -5.3661e-14 2.84061e-14 0 0 -9.91779e-14 -4.38127e-14 4.77618e-14 -1.03655e-13 0 0 -3.1217e-14 -2.98634e-14 -4.16113e-14 -6.93619e-14 0 0 5.67706e-15 -1.37727e-14 -1.0911e-13 -4.24181e-14 0 0 -3.12202e-14 -2.28607e-14 -3.66611e-14 -1.67606e-13 0 0 -1.27781e-13 3.1015e-14 -7.33358e-14 -1.92475e-13 0 0 -1.05896e-13 -2.08976e-14 -1.13271e-13 -1.26633e-13 0 0 -7.32405e-14 -4.43717e-14 -1.28508e-13 -1.06999e-13 0 0 -3.39637e-14 -9.14941e-14 -1.64111e-14 -1.93222e-13 0 0 -2.04496e-14 -8.91291e-14 1.64328e-15 -1.3832e-13 0 0 -1.08864e-13 8.98611e-15 -4.66821e-14 -5.10706e-14 0 0 -1.40022e-13 -2.7666e-14 5.56379e-14 -9.58819e-14 0 0 -1.16453e-13 -4.17848e-14 -2.49701e-14 5.81004e-14 0 0 -2.24145e-14 -1.32628e-13 1.38471e-15 1.35996e-13 0 0 -1.09416e-13 -3.61484e-15 -1.70347e-14 1.41298e-13 0 0 -1.83861e-13 7.45325e-14 2.27303e-14 5.63522e-14 0 0 -1.68164e-13 7.10645e-14 2.11674e-14 3.99834e-14 0 0 -8.93513e-14 1.34714e-15 -1.74787e-14 9.26825e-14 0 0 -2.85596e-14 -1.50485e-13 4.71837e-14 3.10543e-14 0 0 -6.62978e-14 -1.67873e-13 3.32351e-14 -7.46207e-15 0 0 -9.70318e-14 -1.36439e-13 1.50166e-14 -6.94726e-14 0 0 -4.62284e-14 -1.30183e-13 -4.05578e-14 -5.45346e-14 0 0 -2.81956e-15 -9.66299e-14 -9.46587e-14 -2.2897e-14 0 0 -3.28963e-14 -9.49581e-14 1.4318e-14 -2.03703e-13 0 0 -2.74361e-13 8.5458e-14 3.60563e-14 -3.44478e-13 0 0 -3.0796e-13 1.91392e-14 1.07786e-13 -3.59335e-13 0 0 -1.5594e-13 -1.72401e-13 9.20674e-14 -2.20993e-13 0 0 -9.33853e-14 -2.00915e-13 -6.01451e-14 -5.54078e-15 0 0 4.52244e-14 -3.6019e-13 2.57437e-14 -3.49343e-14 0 0 -2.23192e-13 -3.34534e-14 -6.3324e-14 -1.35222e-13 0 0 -3.21855e-13 -2.64742e-14 2.10732e-13 -5.21815e-13 0 0 -3.67528e-13 1.01513e-13 1.12496e-14 -3.74229e-13 0 0 -2.03911e-13 1.38795e-13 -3.60011e-13 3.46047e-14 0 0 1.01056e-13 -2.27523e-13 -8.2103e-14 -1.04672e-13 0 0 -2.65669e-13 6.13933e-14 -1.39779e-13 -1.21306e-13 0 0 -2.27029e-13 -2.42367e-13 3.91648e-13 -5.58571e-13 0 0 -2.28239e-13 -1.93984e-13 3.31715e-13 -5.23928e-13 0 0 -2.98715e-13 1.00999e-13 -2.08994e-13 -5.19219e-14 0 0 -7.73235e-14 -1.51076e-13 -1.32334e-13 -1.43317e-15 0 0 -1.94093e-13 -1.19805e-14 -2.36974e-13 8.1943e-14 0 0 -1.23194e-13 -1.01692e-13 -1.06196e-13 -2.22952e-14 0 0 -1.08764e-13 -1.65421e-14 -2.13122e-13 8.01153e-15 0 0 -1.16003e-13 3.56183e-14 -2.61325e-13 3.2596e-14 0 0 -7.38143e-14 -1.04567e-13 -9.29703e-14 -3.6601e-14 0 0 -2.06971e-13 1.06991e-14 -2.13427e-13 4.68767e-14 0 0 -7.0909e-14 -1.11259e-13 -1.73217e-13 -1.20881e-15 0 0 -4.1668e-14 -1.02774e-13 -2.29732e-13 5.31807e-14 0 0 -2.60585e-13 6.60746e-14 -1.25966e-13 -8.88617e-14 0 0 -1.8829e-13 -2.46517e-13 5.07802e-13 -5.58088e-13 0 0 -3.13573e-13 -4.61413e-14 2.4699e-13 -1.95462e-13 0 0 -1.33858e-13 -3.17566e-14 -4.67316e-14 2.60277e-13 0 0 -7.23776e-14 -5.42323e-14 -1.38756e-13 4.2911e-13 0 0 -3.95898e-13 1.14005e-13 -1.61013e-14 2.12332e-13 0 0 -4.34282e-13 2.66418e-14 2.3385e-13 -1.08589e-13 0 0 -3.59033e-13 1.05926e-13 -1.90972e-13 1.67728e-13 0 0 -5.64092e-14 -2.56533e-13 -7.42428e-14 9.79524e-14 0 0 -3.55841e-13 -6.42622e-14 -1.23873e-13 -2.42428e-15 0 0 -4.7203e-13 -1.85121e-13 1.15313e-13 -3.36951e-13 0 0 -3.03497e-13 -2.91598e-13 1.74961e-14 -2.63252e-13 0 0 -5.15003e-13 1.24453e-13 -4.39003e-13 3.32394e-14 0 0 -3.02543e-13 -2.48134e-13 8.31135e-14 -5.15885e-13 0 0 -2.24554e-13 -5.87045e-14 -3.79017e-13 -3.33608e-13 0 0 -1.92175e-13 2.1514e-13 -9.10466e-13 1.30961e-14 0 0 -1.53939e-13 -1.76149e-13 -2.08406e-13 -4.42331e-13 0 0 -5.02133e-13 -1.62122e-13 2.48094e-14 -5.34009e-13 0 0 -3.12945e-13 -2.80204e-13 -2.67579e-13 -1.46641e-13 0 0 1.96897e-13 -6.99203e-13 -3.24109e-13 1.37241e-13 0 0 -5.86781e-14 -2.01364e-13 -5.60223e-13 -4.97844e-14 0 0 -3.69597e-13 1.34336e-14 -2.12591e-13 -5.91299e-13 0 0 -4.76675e-13 -1.37984e-13 2.3868e-14 -6.37929e-13 0 0 -8.87773e-14 -1.89849e-13 -4.83574e-13 2.40471e-14 0 0 4.20953e-13 -8.41871e-13 -5.71401e-13 5.82778e-13 0 0 -3.54675e-13 -8.36245e-14 -4.28154e-13 1.91774e-13 0 0 -3.84719e-13 -2.0176e-13 6.73243e-13 -9.93024e-13 0 0 7.63513e-14 -4.98987e-13 4.72078e-13 -8.19536e-13 0 0 -8.52733e-13 9.93911e-13 -4.52233e-13 -4.78605e-13 0 0 3.67957e-14 -1.22991e-13 3.9172e-13 -9.20904e-13 0 0 3.67643e-13 -4.16519e-13 3.0569e-13 -7.32311e-13 0 0 2.07649e-13 -2.50988e-13 -2.68991e-13 -8.07922e-14 0 0 -1.75204e-14 -9.25759e-14 -7.45819e-13 3.53498e-13 0 0 -2.16202e-13 -1.2419e-13 -7.40194e-13 3.72828e-13 0 0 -3.32887e-13 -1.93574e-13 -6.06846e-13 2.51247e-13 0 0 -3.93485e-13 -2.85193e-13 -3.91338e-13 -5.07689e-15 0 0 -3.95456e-13 -4.22096e-13 -1.40759e-13 -2.94587e-13 0 0 -3.38723e-13 -4.43763e-13 -1.605e-13 -2.99776e-13 0 0 -2.19349e-13 -3.25336e-13 -3.79305e-13 -1.39119e-13 0 0 -2.13411e-13 -2.04205e-13 -3.83291e-13 -1.42968e-13 0 0 -2.81834e-13 -1.17978e-13 -2.74538e-13 -2.70688e-13 0 0 -3.20167e-13 -1.19878e-13 -1.10132e-13 -4.18198e-13 0 0 -1.38414e-13 -1.81876e-13 -1.88153e-13 -3.448e-13 0 0 -6.83521e-15 -1.25898e-13 -4.99337e-13 -1.00807e-13 0 0 -2.04132e-14 -2.33826e-13 -3.81501e-13 -9.51068e-14 0 0 -2.83837e-13 -2.31606e-13 -1.12719e-13 -2.94849e-13 0 0 -3.86824e-13 -3.14576e-13 5.65634e-14 -4.14304e-13 0 0 -8.96612e-14 -4.94066e-13 -1.24491e-13 -2.35717e-13 0 0 -1.20975e-13 -1.63961e-13 -5.71483e-13 -7.74006e-14 0 0 -2.20829e-13 -1.85825e-13 -2.48977e-13 -4.19028e-13 0 0 -3.3189e-13 -2.3746e-13 -2.67803e-14 -4.72304e-13 0 0 -3.72375e-13 -2.29334e-13 -9.08191e-14 -2.77028e-13 0 0 -1.3722e-13 -4.00567e-13 -1.28392e-13 -2.59333e-13 0 0 -2.38556e-13 -9.50702e-14 -5.81796e-13 -2.50051e-14 0 0 -3.57367e-13 -1.62326e-13 -3.1815e-13 -2.55268e-13 0 0 -5.07878e-13 -1.80294e-13 -1.08512e-13 -3.25673e-13 0 0 -6.00216e-13 -2.50282e-13 1.0428e-14 -1.7607e-13 0 0 -2.84244e-13 -3.90216e-13 -8.56567e-14 -3.4805e-14 0 0 -2.42753e-13 -7.78681e-14 -5.80153e-13 9.03083e-14 0 0 -3.73991e-13 -2.21751e-13 -1.63029e-13 -4.49376e-13 0 0 -5.21534e-13 -2.45826e-13 -2.15985e-14 -5.29618e-13 0 0 -6.67498e-13 -1.87424e-13 -2.70135e-14 -3.06852e-13 0 0 -3.56155e-13 -3.46708e-13 -4.40505e-14 -2.35627e-13 0 0 -2.10026e-13 -2.32706e-13 -4.2775e-13 2.33871e-14 0 0 -3.46859e-13 -2.55072e-13 -2.61205e-13 -2.25991e-13 0 0 -5.34964e-13 -8.60343e-14 -3.0102e-13 -3.62638e-13 0 0 -5.69061e-13 -1.37912e-13 -1.0071e-13 -3.66395e-13 0 0 -2.10338e-13 -2.91334e-13 -1.46536e-13 -2.75654e-13 0 0 -1.59379e-13 -9.1018e-15 -7.46185e-13 -2.28388e-14 0 0 -3.64697e-13 -1.53501e-13 -4.65481e-13 -3.48629e-13 0 0 -3.4672e-13 -5.39581e-13 -2.86081e-13 -2.77122e-13 0 0 -2.91274e-13 -6.23806e-13 -3.46903e-13 -5.67009e-14 0 0 -2.68057e-13 -4.61998e-13 -8.78808e-14 -5.47393e-13 0 0 -1.63577e-13 -1.02279e-13 -5.97856e-13 -3.59708e-13 0 0 -9.27827e-14 -8.17456e-14 -7.0285e-13 -3.65284e-13 0 0 -4.4388e-13 -1.33074e-13 -2.62963e-13 -5.57902e-13 0 0 -6.83239e-13 -1.57576e-14 -4.63522e-13 1.66631e-14 0 0 -3.13577e-13 -4.80489e-13 -1.11786e-13 2.3377e-14 0 0 -2.16144e-13 -4.07481e-13 -3.02035e-13 2.11968e-13 0 0 -2.9468e-13 -2.17358e-13 -5.74245e-13 4.1004e-13 0 0 -6.23172e-13 -1.45926e-13 -5.16702e-13 5.54289e-13 0 0 -7.42652e-13 -8.27839e-14 -8.11563e-13 9.87591e-13 0 0 -2.67593e-13 -7.64097e-13 -1.01043e-13 3.94886e-13 0 0 -3.64737e-13 -4.33757e-13 -1.19575e-13 -7.68341e-14 0 0 -3.78342e-13 -2.14206e-13 -2.8152e-13 -2.77431e-13 0 0 -4.58413e-13 -2.71532e-13 -2.03906e-13 -2.75547e-13 0 0 -7.25329e-13 -2.74294e-13 -1.62535e-13 -1.63533e-13 0 0 -3.40349e-13 -6.76771e-13 -1.21679e-13 -2.46414e-13 0 0 -1.80631e-14 -6.00703e-13 -8.53976e-13 -2.05875e-14 0 0 -2.29556e-13 -3.42984e-13 -9.58709e-13 -4.08931e-13 0 0 -8.62626e-13 2.18032e-13 -7.10645e-13 -6.97946e-13 0 0 -9.41929e-13 1.28729e-13 -2.98955e-13 -4.82727e-13 0 0 -3.65552e-14 -6.74799e-13 -1.76192e-13 -1.32875e-13 0 0 3.42286e-13 -9.03717e-13 -5.31256e-13 -1.96119e-14 0 0 -1.54124e-13 -5.44416e-13 -5.43648e-13 -7.75692e-13 0 0 -7.97737e-13 6.94131e-14 -7.88354e-13 -1.31485e-12 0 0 -8.35605e-13 1.29735e-14 -9.76148e-13 -1.04585e-12 0 0 -2.55611e-13 -3.75941e-13 -1.09448e-12 -5.40957e-13 0 0 -1.28945e-13 -3.77809e-13 -9.196e-13 -4.64393e-13 0 0 -2.85405e-13 -6.26352e-13 -5.94329e-15 -1.14242e-12 0 0 -1.95889e-13 -7.88515e-13 -3.36127e-14 -1.09881e-12 0 0 -3.51527e-13 -5.25581e-13 -6.67833e-13 -6.85547e-13 0 0 -6.10737e-13 -2.16483e-13 -6.05079e-13 -1.30205e-12 0 0 -6.71621e-13 1.97571e-13 -9.09099e-13 -1.31057e-12 0 0 -3.2519e-13 -2.6209e-13 -7.85061e-13 -7.87975e-13 0 0 -1.32474e-14 -8.43487e-13 -4.84977e-13 -3.34611e-13 0 0 -3.60183e-13 -5.71579e-13 -5.00543e-13 -3.7761e-13 0 0 -6.81032e-13 -2.28627e-13 -3.53971e-13 -1.19376e-12 0 0 -7.01245e-13 1.0852e-13 -8.51016e-13 -1.24379e-12 0 0 -2.00357e-13 -6.13096e-13 -6.04283e-13 -8.96036e-13 0 0 8.52691e-14 -1.14101e-12 -2.91095e-13 -4.14766e-13 0 0 -2.99545e-13 -7.26399e-13 -4.18118e-13 -3.15104e-13 0 0 -5.72227e-13 -4.44835e-13 -2.17741e-13 -1.06218e-12 0 0 -7.06849e-13 1.20159e-14 -7.20265e-13 -1.05515e-12 0 0 -2.53469e-13 -5.14189e-13 -6.2146e-13 -6.51493e-13 0 0 9.85258e-14 -9.92755e-13 -4.81248e-13 -6.7661e-14 0 0 -3.03946e-13 -5.29846e-13 -7.17998e-13 3.1895e-14 0 0 -5.51596e-13 -3.11415e-13 -4.61794e-13 -9.09294e-13 0 0 -5.79274e-13 4.67081e-14 -1.1235e-12 -9.75492e-13 0 0 -2.01401e-13 -4.88598e-13 -1.01514e-12 -8.72112e-13 0 0 1.91962e-13 -1.12352e-12 -6.73985e-13 -3.46076e-13 0 0 -5.44175e-13 -3.24611e-13 -6.68078e-13 -2.58665e-13 0 0 -7.44131e-13 -4.74186e-13 5.63564e-13 -1.64201e-12 0 0 -3.3515e-13 -5.61886e-13 -2.0888e-13 -1.04916e-12 0 0 1.72496e-14 -5.62454e-13 -1.32402e-12 1.82193e-14 0 0 -4.06267e-13 -4.98362e-13 -1.03907e-12 -3.16317e-13 0 0 -1.29959e-12 3.70987e-13 -1.17103e-12 -4.64655e-13 0 0 -5.98665e-13 -2.76244e-13 -8.14098e-13 -4.13014e-13 0 0 2.04881e-14 -6.22011e-13 -1.2364e-12 3.66239e-13 0 0 4.0631e-14 -9.6277e-13 -7.98003e-13 3.17876e-13 0 0 -5.65539e-13 -7.73393e-13 -3.52096e-13 -1.7108e-13 0 0 -1.26986e-12 1.58206e-13 -1.08164e-12 9.19601e-14 0
				</DataArray>
				<DataArray Name="VitesseY" type="Float32" format="ascii">