<?xml version="1.0"?>
<VTKFile type="PolyData">
	<PolyData>
		<Piece NumberOfPoints="1206" NumberOfPolys="1000">
			<Points>
				<DataArray type="Float32" NumberOfComponents="3" format="ascii">
 0 0 0 0.02 0 0 0.04 0 0 0.06 0 0 0.08 0 0 0.1 0 0 0 0.005 0 0.02 0.005 0 0.04 0.005 0 0.06 0.005 0 0.08 0.005 0 0.1 0.005 0 0 0.01 0 0.02 0.01 0 0.04 0.01 0 0.06 0.01 0 0.08 0.01 0 0.1 0.01 0 0 0.015 0 0.02 0.015 0 0.04 0.015 0 0.06 0.015 0 0.08 0.015 0 0.1 0.015 0 0 0.02 0 0.02 0.02 0 0.04 0.02 0 0.06 0.02 0 0.08 0.02 0 0.1 0.02 0 0 0.025 0 0.02 0.025 0 0.04 0.025 0 0.06 0.025 0 0.08 0.025 0 0.1 0.025 0 0 0.03 0 0.02 0.03 0 0.04 0.03 0 0.06 0.03 0 0.08 0.03 0 0.1 0.03 0 0 0.035 0 0.02 0.035 0 0.04 0.035 0 0.06 0.035 0 0.08 0.035 0 0.1 0.035 0 0 0.04 0 0.02 0.04 0 0.04 0.04 0 0.06 0.04 0 0.08 0.04 0 0.1 0.04 0 0 0.045 0 0.02 0.045 0 0.04 0.045 0 0.06 0.045 0 0.08 0.045 0 0.1 0.045 0 0 0.05 0 0.02 0.05 0 0.04 0.05 0 0.06 0.05 0 0.08 0.05 0 0.1 0.05 0 0 0.055 0 0.02 0.055 0 0.04 0.055 0 0.06 0.055 0 0.08 0.055 0 0.1 0.055 0 0 0.06 0 0.02 0.06 0 0.04 0.06 0 0.06 0.06 0 0.08 0.06 0 0.1 0.06 0 0 0.065 0 0.02 0.065 0 0.04 0.065 0 0.06 0.065 0 0.08 0.065 0 0.1 0.065 0 0 0.07 0 0.02 0.07 0 0.04 0.07 0 0.06 0.07 0 0.08 0.07 0 0.1 0.07 0 0 0.075 0 0.02 0.075 0 0.04 0.075 0 0.06 0.075 0 0.08 0.075 0 0.1 0.075 0 0 0.08 0 0.02 0.08 0 0.04 0.08 0 0.06 0.08 0 0.08 0.08 0 0.1 0.08 0 0 0.085 0 0.02 0.085 0 0.04 0.085 0 0.06 0.085 0 0.08 0.085 0 0.1 0.085 0 0 0.09 0 0.02 0.09 0 0.04 0.09 0 0.06 0.09 0 0.08 0.09 0 0.1 0.09 0 0 0.095 0 0.02 0.095 0 0.04 0.095 0 0.06 0.095 0 0.08 0.095 0 0.1 0.095 0 0 0.1 0 0.02 0.1 0 0.04 0.1 0 0.06 0.1 0 0.08 0.1 0 0.1 0.1 0 0 0.105 0 0.02 0.105 0 0.04 0.105 0 0.06 0.105 0 0.08 0.105 0 0.1 0.105 0 0 0.11 0 0.02 0.11 0 0.04 0.11 0 0.06 0.11 0 0.08 0.11 0 0.1 0.11 0 0 0.115 0 0.02 0.115 0 0.04 0.115 0 0.06 0.115 0 0.08 0.115 0 0.1 0.115 0 0 0.12 0 0.02 0.12 0 0.04 0.12 0 0.06 0.12 0 0.08 0.12 0 0.1 0.12 0 0 0.125 0 0.02 0.125 0 0.04 0.125 0 0.06 0.125 0 0.08 0.125 0 0.1 0.125 0 0 0.13 0 0.02 0.13 0 0.04 0.13 0 0.06 0.13 0 0.08 0.13 0 0.1 0.13 0 0 0.135 0 0.02 0.135 0 0.04 0.135 0 0.06 0.135 0 0.08 0.135 0 0.1 0.135 0 0 0.14 0 0.02 0.14 0 0.04 0.14 0 0.06 0.14 0 0.08 0.14 0 0.1 0.14 0 0 0.145 0 0.02 0.145 0 0.04 0.145 0 0.06 0.145 0 0.08 0.145 0 0.1 0.145 0 0 0.15 0 0.02 0.15 0 0.04 0.15 0 0.06 0.15 0 0.08 0.15 0 0.1 0.15 0 0 0.155 0 0.02 0.155 0 0.04 0.155 0 0.06 0.155 0 0.08 0.155 0 0.1 0.155 0 0 0.16 0 0.02 0.16 0 0.04 0.16 0 0.06 0.16 0 0.08 0.16 0 0.1 0.16 0 0 0.165 0 0.02 0.165 0 0.04 0.165 0 0.06 0.165 0 0.08 0.165 0 0.1 0.165 0 0 0.17 0 0.02 0.17 0 0.04 0.17 0 0.06 0.17 0 0.08 0.17 0 0.1 0.17 0 0 0.175 0 0.02 0.175 0 0.04 0.175 0 0.06 0.175 0 0.08 0.175 0 0.1 0.175 0 0 0.18 0 0.02 0.18 0 0.04 0.18 0 0.06 0.18 0 0.08 0.18 0 0.1 0.18 0 0 0.185 0 0.02 0.185 0 0.04 0.185 0 0.06 0.185 0 0.08 0.185 0 0.1 0.185 0 0 0.19 0 0.02 0.19 0 0.04 0.19 0 0.06 0.19 0 0.08 0.19 0 0.1 0.19 0 0 0.195 0 0.02 0.195 0 0.04 0.195 0 0.06 0.195 0 0.08 0.195 0 0.1 0.195 0 0 0.2 0 0.02 0.2 0 0.04 0.2 0 0.06 0.2 0 0.08 0.2 0 0.1 0.2 0 0 0.205 0 0.02 0.205 0 0.04 0.205 0 0.06 0.205 0 0.08 0.205 0 0.1 0.205 0 0 0.21 0 0.02 0.21 0 0.04 0.21 0 0.06 0.21 0 0.08 0.21 0 0.1 0.21 0 0 0.215 0 0.02 0.215 0 0.04 0.215 0 0.06 0.215 0 0.08 0.215 0 0.1 0.215 0 0 0.22 0 0.02 0.22 0 0.04 0.22 0 0.06 0.22 0 0.08 0.22 0 0.1 0.22 0 0 0.225 0 0.02 0.225 0 0.04 0.225 0 0.06 0.225 0 0.08 0.225 0 0.1 0.225 0 0 0.23 0 0.02 0.23 0 0.04 0.23 0 0.06 0.23 0 0.08 0.23 0 0.1 0.23 0 0 0.235 0 0.02 0.235 0 0.04 0.235 0 0.06 0.235 0 0.08 0.235 0 0.1 0.235 0 0 0.24 0 0.02 0.24 0 0.04 0.24 0 0.06 0.24 0 0.08 0.24 0 0.1 0.24 0 0 0.245 0 0.02 0.245 0 0.04 0.245 0 0.06 0.245 0 0.08 0.245 0 0.1 0.245 0 0 0.25 0 0.02 0.25 0 0.04 0.25 0 0.06 0.25 0 0.08 0.25 0 0.1 0.25 0 0 0.255 0 0.02 0.255 0 0.04 0.255 0 0.06 0.255 0 0.08 0.255 0 0.1 0.255 0 0 0.26 0 0.02 0.26 0 0.04 0.26 0 0.06 0.26 0 0.08 0.26 0 0.1 0.26 0 0 0.265 0 0.02 0.265 0 0.04 0.265 0 0.06 0.265 0 0.08 0.265 0 0.1 0.265 0 0 0.27 0 0.02 0.27 0 0.04 0.27 0 0.06 0.27 0 0.08 0.27 0 0.1 0.27 0 0 0.275 0 0.02 0.275 0 0.04 0.275 0 0.06 0.275 0 0.08 0.275 0 0.1 0.275 0 0 0.28 0 0.02 0.28 0 0.04 0.28 0 0.06 0.28 0 0.08 0.28 0 0.1 0.28 0 0 0.285 0 0.02 0.285 0 0.04 0.285 0 0.06 0.285 0 0.08 0.285 0 0.1 0.285 0 0 0.29 0 0.02 0.29 0 0.04 0.29 0 0.06 0.29 0 0.08 0.29 0 0.1 0.29 0 0 0.295 0 0.02 0.295 0 0.04 0.295 0 0.06 0.295 0 0.08 0.295 0 0.1 0.295 0 0 0.3 0 0.02 0.3 0 0.04 0.3 0 0.06 0.3 0 0.08 0.3 0 0.1 0.3 0 0 0.305 0 0.02 0.305 0 0.04 0.305 0 0.06 0.305 0 0.08 0.305 0 0.1 0.305 0 0 0.31 0 0.02 0.31 0 0.04 0.31 0 0.06 0.31 0 0.08 0.31 0 0.1 0.31 0 0 0.315 0 0.02 0.315 0 0.04 0.315 0 0.06 0.315 0 0.08 0.315 0 0.1 0.315 0 0 0.32 0 0.02 0.32 0 0.04 0.32 0 0.06 0.32 0 0.08 0.32 0 0.1 0.32 0 0 0.325 0 0.02 0.325 0 0.04 0.325 0 0.06 0.325 0 0.08 0.325 0 0.1 0.325 0 0 0.33 0 0.02 0.33 0 0.04 0.33 0 0.06 0.33 0 0.08 0.33 0 0.1 0.33 0 0 0.335 0 0.02 0.335 0 0.04 0.335 0 0.06 0.335 0 0.08 0.335 0 0.1 0.335 0 0 0.34 0 0.02 0.34 0 0.04 0.34 0 0.06 0.34 0 0.08 0.34 0 0.1 0.34 0 0 0.345 0 0.02 0.345 0 0.04 0.345 0 0.06 0.345 0 0.08 0.345 0 0.1 0.345 0 0 0.35 0 0.02 0.35 0 0.04 0.35 0 0.06 0.35 0 0.08 0.35 0 0.1 0.35 0 0 0.355 0 0.02 0.355 0 0.04 0.355 0 0.06 0.355 0 0.08 0.355 0 0.1 0.355 0 0 0.36 0 0.02 0.36 0 0.04 0.36 0 0.06 0.36 0 0.08 0.36 0 0.1 0.36 0 0 0.365 0 0.02 0.365 0 0.04 0.365 0 0.06 0.365 0 0.08 0.365 0 0.1 0.365 0 0 0.37 0 0.02 0.37 0 0.04 0.37 0 0.06 0.37 0 0.08 0.37 0 0.1 0.37 0 0 0.375 0 0.02 0.375 0 0.04 0.375 0 0.06 0.375 0 0.08 0.375 0 0.1 0.375 0 0 0.38 0 0.02 0.38 0 0.04 0.38 0 0.06 0.38 0 0.08 0.38 0 0.1 0.38 0 0 0.385 0 0.02 0.385 0 0.04 0.385 0 0.06 0.385 0 0.08 0.385 0 0.1 0.385 0 0 0.39 0 0.02 0.39 0 0.04 0.39 0 0.06 0.39 0 0.08 0.39 0 0.1 0.39 0 0 0.395 0 0.02 0.395 0 0.04 0.395 0 0.06 0.395 0 0.08 0.395 0 0.1 0.395 0 0 0.4 0 0.02 0.4 0 0.04 0.4 0 0.06 0.4 0 0.08 0.4 0 0.1 0.4 0 0 0.405 0 0.02 0.405 0 0.04 0.405 0 0.06 0.405 0 0.08 0.405 0 0.1 0.405 0 0 0.41 0 0.02 0.41 0 0.04 0.41 0 0.06 0.41 0 0.08 0.41 0 0.1 0.41 0 0 0.415 0 0.02 0.415 0 0.04 0.415 0 0.06 0.415 0 0.08 0.415 0 0.1 0.415 0 0 0.42 0 0.02 0.42 0 0.04 0.42 0 0.06 0.42 0 0.08 0.42 0 0.1 0.42 0 0 0.425 0 0.02 0.425 0 0.04 0.425 0 0.06 0.425 0 0.08 0.425 0 0.1 0.425 0 0 0.43 0 0.02 0.43 0 0.04 0.43 0 0.06 0.43 0 0.08 0.43 0 0.1 0.43 0 0 0.435 0 0.02 0.435 0 0.04 0.435 0 0.06 0.435 0 0.08 0.435 0 0.1 0.435 0 0 0.44 0 0.02 0.44 0 0.04 0.44 0 0.06 0.44 0 0.08 0.44 0 0.1 0.44 0 0 0.445 0 0.02 0.445 0 0.04 0.445 0 0.06 0.445 0 0.08 0.445 0 0.1 0.445 0 0 0.45 0 0.02 0.45 0 0.04 0.45 0 0.06 0.45 0 0.08 0.45 0 0.1 0.45 0 0 0.455 0 0.02 0.455 0 0.04 0.455 0 0.06 0.455 0 0.08 0.455 0 0.1 0.455 0 0 0.46 0 0.02 0.46 0 0.04 0.46 0 0.06 0.46 0 0.08 0.46 0 0.1 0.46 0 0 0.465 0 0.02 0.465 0 0.04 0.465 0 0.06 0.465 0 0.08 0.465 0 0.1 0.465 0 0 0.47 0 0.02 0.47 0 0.04 0.47 0 0.06 0.47 0 0.08 0.47 0 0.1 0.47 0 0 0.475 0 0.02 0.475 0 0.04 0.475 0 0.06 0.475 0 0.08 0.475 0 0.1 0.475 0 0 0.48 0 0.02 0.48 0 0.04 0.48 0 0.06 0.48 0 0.08 0.48 0 0.1 0.48 0 0 0.485 0 0.02 0.485 0 0.04 0.485 0 0.06 0.485 0 0.08 0.485 0 0.1 0.485 0 0 0.49 0 0.02 0.49 0 0.04 0.49 0 0.06 0.49 0 0.08 0.49 0 0.1 0.49 0 0 0.495 0 0.02 0.495 0 0.04 0.495 0 0.06 0.495 0 0.08 0.495 0 0.1 0.495 0 0 0.5 0 0.02 0.5 0 0.04 0.5 0 0.06 0.5 0 0.08 0.5 0 0.1 0.5 0 0 0.505 0 0.02 0.505 0 0.04 0.505 0 0.06 0.505 0 0.08 0.505 0 0.1 0.505 0 0 0.51 0 0.02 0.51 0 0.04 0.51 0 0.06 0.51 0 0.08 0.51 0 0.1 0.51 0 0 0.515 0 0.02 0.515 0 0.04 0.515 0 0.06 0.515 0 0.08 0.515 0 0.1 0.515 0 0 0.52 0 0.02 0.52 0 0.04 0.52 0 0.06 0.52 0 0.08 0.52 0 0.1 0.52 0 0 0.525 0 0.02 0.525 0 0.04 0.525 0 0.06 0.525 0 0.08 0.525 0 0.1 0.525 0 0 0.53 0 0.02 0.53 0 0.04 0.53 0 0.06 0.53 0 0.08 0.53 0 0.1 0.53 0 0 0.535 0 0.02 0.535 0 0.04 0.535 0 0.06 0.535 0 0.08 0.535 0 0.1 0.535 0 0 0.54 0 0.02 0.54 0 0.04 0.54 0 0.06 0.54 0 0.08 0.54 0 0.1 0.54 0 0 0.545 0 0.02 0.545 0 0.04 0.545 0 0.06 0.545 0 0.08 0.545 0 0.1 0.545 0 0 0.55 0 0.02 0.55 0 0.04 0.55 0 0.06 0.55 0 0.08 0.55 0 0.1 0.55 0 0 0.555 0 0.02 0.555 0 0.04 0.555 0 0.06 0.555 0 0.08 0.555 0 0.1 0.555 0 0 0.56 0 0.02 0.56 0 0.04 0.56 0 0.06 0.56 0 0.08 0.56 0 0.1 0.56 0 0 0.565 0 0.02 0.565 0 0.04 0.565 0 0.06 0.565 0 0.08 0.565 0 0.1 0.565 0 0 0.57 0 0.02 0.57 0 0.04 0.57 0 0.06 0.57 0 0.08 0.57 0 0.1 0.57 0 0 0.575 0 0.02 0.575 0 0.04 0.575 0 0.06 0.575 0 0.08 0.575 0 0.1 0.575 0 0 0.58 0 0.02 0.58 0 0.04 0.58 0 0.06 0.58 0 0.08 0.58 0 0.1 0.58 0 0 0.585 0 0.02 0.585 0 0.04 0.585 0 0.06 0.585 0 0.08 0.585 0 0.1 0.585 0 0 0.59 0 0.02 0.59 0 0.04 0.59 0 0.06 0.59 0 0.08 0.59 0 0.1 0.59 0 0 0.595 0 0.02 0.595 0 0.04 0.595 0 0.06 0.595 0 0.08 0.595 0 0.1 0.595 0 0 0.6 0 0.02 0.6 0 0.04 0.6 0 0.06 0.6 0 0.08 0.6 0 0.1 0.6 0 0 0.605 0 0.02 0.605 0 0.04 0.605 0 0.06 0.605 0 0.08 0.605 0 0.1 0.605 0 0 0.61 0 0.02 0.61 0 0.04 0.61 0 0.06 0.61 0 0.08 0.61 0 0.1 0.61 0 0 0.615 0 0.02 0.615 0 0.04 0.615 0 0.06 0.615 0 0.08 0.615 0 0.1 0.615 0 0 0.62 0 0.02 0.62 0 0.04 0.62 0 0.06 0.62 0 0.08 0.62 0 0.1 0.62 0 0 0.625 0 0.02 0.625 0 0.04 0.625 0 0.06 0.625 0 0.08 0.625 0 0.1 0.625 0 0 0.63 0 0.02 0.63 0 0.04 0.63 0 0.06 0.63 0 0.08 0.63 0 0.1 0.63 0 0 0.635 0 0.02 0.635 0 0.04 0.635 0 0.06 0.635 0 0.08 0.635 0 0.1 0.635 0 0 0.64 0 0.02 0.64 0 0.04 0.64 0 0.06 0.64 0 0.08 0.64 0 0.1 0.64 0 0 0.645 0 0.02 0.645 0 0.04 0.645 0 0.06 0.645 0 0.08 0.645 0 0.1 0.645 0 0 0.65 0 0.02 0.65 0 0.04 0.65 0 0.06 0.65 0 0.08 0.65 0 0.1 0.65 0 0 0.655 0 0.02 0.655 0 0.04 0.655 0 0.06 0.655 0 0.08 0.655 0 0.1 0.655 0 0 0.66 0 0.02 0.66 0 0.04 0.66 0 0.06 0.66 0 0.08 0.66 0 0.1 0.66 0 0 0.665 0 0.02 0.665 0 0.04 0.665 0 0.06 0.665 0 0.08 0.665 0 0.1 0.665 0 0 0.67 0 0.02 0.67 0 0.04 0.67 0 0.06 0.67 0 0.08 0.67 0 0.1 0.67 0 0 0.675 0 0.02 0.675 0 0.04 0.675 0 0.06 0.675 0 0.08 0.675 0 0.1 0.675 0 0 0.68 0 0.02 0.68 0 0.04 0.68 0 0.06 0.68 0 0.08 0.68 0 0.1 0.68 0 0 0.685 0 0.02 0.685 0 0.04 0.685 0 0.06 0.685 0 0.08 0.685 0 0.1 0.685 0 0 0.69 0 0.02 0.69 0 0.04 0.69 0 0.06 0.69 0 0.08 0.69 0 0.1 
[...]
			<PointData Scalars="VitesseX">
				<DataArray Name="VitesseX" type="Float32" format="ascii">
 0 -1.81219e-14 -1.9186e-14 -1.26515e-14 -9.11306e-15 0 0 -1.96575e-14 -1.6547e-14 -1.68377e-14 -5.26637e-15 0 0 -1.52601e-14 -2.37378e-14 -1.20031e-14 -7.87158e-15 0 0 -1.34807e-14 -2.51777e-14 -1.47014e-14 -6.71147e-15 0 0 -1.66547e-14 -1.95767e-14 -2.22378e-14 -2.89906e-15 0 0 -1.70993e-14 -2.07718e-14 -2.0109e-14 -5.63908e-15 0 0 -1.78944e-14 -2.17589e-14 -1.66123e-14 -1.13433e-14 0 0 -1.74025e-14 -3.11087e-14 2.70327e-15 -2.96748e-14 0 0 -2.14066e-14 -2.97692e-14 7.16666e-15 -3.7703e-14 0 0 -2.97624e-14 -5.86413e-15 -1.45752e-14 -2.35427e-14 0 0 -2.07496e-14 -2.64976e-15 -2.50159e-14 -4.72775e-15 0 0 -4.11805e-15 -1.49239e-14 -2.23975e-14 5.18699e-15 0 0 2.01765e-15 -3.53131e-14 1.48654e-14 -1.4931e-14 0 0 -1.55998e-14 -1.7787e-14 1.64127e-14 -1.45414e-14 0 0 -3.78928e-14 2.21419e-14 -2.08837e-14 9.06831e-15 0 0 -3.16088e-14 2.21654e-14 -3.27179e-14 2.29156e-14 0 0 -4.23041e-14 3.69876e-14 -4.48193e-14 3.10539e-14 0 0 -1.88482e-14 -1.40702e-14 1.34235e-14 -1.34612e-14 0 0 6.46273e-16 -6.25538e-14 4.95589e-14 -2.16005e-14 0 0 -3.12425e-14 -3.36382e-14 1.12342e-14 1.97871e-14 0 0 -2.33095e-14 -4.88371e-14 2.07289e-14 1.23638e-14 0 0 -2.71635e-14 -2.89651e-14 -1.45745e-14 3.00037e-14 0 0 -1.90609e-14 -2.81254e-14 -2.82464e-14 3.88076e-14 0 0 -1.74296e-14 -3.20001e-14 -2.15594e-14 3.92015e-14 0 0 -3.66756e-14 -1.34649e-15 -3.97151e-14 4.1851e-14 0 0 -3.05161e-15 -5.71429e-14 2.77283e-14 -1.19078e-14 0 0 -1.51689e-15 -4.65381e-14 1.39724e-14 -1.52767e-14 0 0 -6.57977e-15 -1.31559e-14 -5.62618e-14 2.7917e-14 0 0 -1.64771e-14 8.0084e-15 -1.11858e-13 6.71132e-14 0 0 -8.0011e-15 -2.18833e-14 -7.34491e-14 3.35382e-14 0 0 -1.27118e-14 -2.58817e-14 -5.85295e-14 2.69584e-14 0 0 1.48509e-15 -5.75114e-14 1.68151e-15 -2.17043e-14 0 0 -1.20813e-14 -4.8836e-14 1.87631e-14 -4.87052e-14 0 0 -5.19267e-14 4.11924e-15 -3.17925e-14 1.40437e-14 0 0 -6.98564e-15 -7.96849e-14 7.77881e-14 -1.74388e-14 0 0 -1.29723e-14 -6.85244e-14 9.11799e-14 -2.78776e-14 0 0 -4.18945e-14 -5.00255e-15 2.72998e-14 6.79035e-15 0 0 -2.66591e-14 9.7984e-15 6.10401e-15 8.97221e-15 0 0 -1.48599e-14 4.10288e-14 -5.16684e-14 3.66944e-14 0 0 -1.38156e-14 3.68874e-14 -7.25515e-14 7.92596e-14 0 0 6.31232e-14 -4.6539e-14 4.35458e-14 1.6567e-14 0 0 8.11585e-14 -1.09575e-14 5.15583e-14 -7.16925e-15 0 0 5.00423e-14 2.15858e-14 -1.38954e-14 3.65173e-14 0 0 1.18593e-13 -1.2403e-13 5.74923e-14 4.84996e-14 0 0 6.92878e-14 -1.29669e-13 6.39938e-14 6.67281e-14 0 0 -4.10421e-14 -1.43595e-14 -4.93567e-14 9.8427e-14 0 0 1.38618e-14 -5.49569e-14 -9.95736e-14 1.12615e-13 0 0 1.50147e-14 -1.60154e-14 -1.95879e-13 1.31596e-13 0 0 5.25029e-14 -2.95332e-14 -2.3182e-13 9.70115e-14 0 0 1.2824e-13 -1.3233e-13 -1.69622e-13 2.34625e-14 0 0 2.54791e-14 -6.78568e-14 -1.57701e-13 -3.17061e-14 0 0 -4.967e-14 -6.11778e-14 -8.05411e-14 -1.21556e-13 0 0 5.2837e-14 -2.67688e-13 8.16664e-14 -1.81543e-13 0 0 1.00024e-13 -3.68025e-13 5.44941e-14 -1.08111e-13 0 0 -4.89057e-14 -2.14716e-13 -1.67397e-13 2.08566e-14 0 0 -1.35155e-13 -9.4242e-14 -3.2771e-13 5.7273e-14 0 0 -1.00008e-13 -7.12428e-14 -3.6616e-13 3.15426e-16 0 0 -1.55104e-14 -1.63311e-13 -2.67664e-13 -6.97533e-14 0 0 -4.88011e-14 -1.43568e-13 -2.52316e-13 -1.7166e-14 0 0 -1.95029e-13 -2.15696e-14 -2.9345e-13 4.5834e-14 0 0 -2.29184e-13 -8.05057e-14 -1.79203e-13 -2.5738e-14 0 0 -2.05728e-13 -2.08705e-13 -6.08385e-14 -7.98998e-14 0 0 -2.09959e-13 -2.48705e-13 -5.93504e-14 -1.34734e-14 0 0 -2.70448e-13 -2.32441e-13 -8.83355e-14 3.37688e-14 0 0 -3.09309e-13 -1.84981e-13 -1.13342e-13 -2.06351e-14 0 0 -3.22644e-13 -1.32396e-13 -1.50266e-13 -9.2208e-14 0 0 -2.72029e-13 -1.70644e-13 -1.85156e-13 -1.47636e-13 0 0 -1.89302e-13 -2.79188e-13 -1.84041e-13 -1.14385e-13 0 0 -1.73231e-13 -3.15645e-13 -2.17718e-13 -2.03638e-14 0 0 -2.07826e-13 -3.02659e-13 -3.06025e-13 1.12603e-13 0 0 -2.51158e-13 -2.92337e-13 -3.27418e-13 1.68537e-13 0 0 -2.5791e-13 -3.19084e-13 -2.89965e-13 1.47625e-13 0 0 -2.32798e-13 -4.04388e-13 -2.38992e-13 1.08228e-13 0 0 -1.98209e-13 -3.98632e-13 -2.75899e-13 1.09287e-13 0 0 -2.00192e-13 -3.52157e-13 -3.83452e-13 1.56844e-13 0 0 -2.3112e-13 -2.69952e-13 -4.87727e-13 1.6339e-13 0 0 -2.3628e-13 -2.3604e-13 -4.89891e-13 1.2237e-13 0 0 -2.1391e-13 -2.39837e-13 -4.41248e-13 2.74812e-14 0 0 -1.77035e-13 -2.46368e-13 -3.49478e-13 -1.70376e-14 0 0 -1.4556e-13 -2.41492e-13 -3.22741e-13 2.54357e-15 0 0 -1.02676e-13 -2.29695e-13 -3.36064e-13 9.79481e-14 0 0 -4.5276e-14 -2.4131e-13 -3.53872e-13 1.96674e-13 0 0 1.63895e-14 -2.46633e-13 -3.58281e-13 2.21199e-13 0 0 6.64266e-14 -2.37571e-13 -3.73164e-13 2.24122e-13 0 0 8.43946e-14 -2.21557e-13 -3.92466e-13 2.1685e-13 0 0 8.87738e-14 -1.99607e-13 -3.86059e-13 1.77602e-13 0 0 7.70007e-14 -1.88341e-13 -3.42379e-13 9.92694e-14 0 0 5.78993e-14 -1.94663e-13 -2.65403e-13 9.67565e-15 0 0 2.51391e-14 -1.90088e-13 -2.2112e-13 -4.95739e-14 0 0 -1.84528e-14 -1.61338e-13 -2.07354e-13 -1.06428e-13 0 0 -6.82092e-14 -1.16138e-13 -2.03243e-13 -1.63843e-13 0 0 -9.42281e-14 -1.006e-13 -2.1463e-13 -1.62731e-13 0 0 -1.0398e-13 -7.99841e-14 -2.56744e-13 -1.26567e-13 0 0 -1.08863e-13 -6.1704e-14 -3.02751e-13 -6.47885e-14 0 0 -1.04741e-13 -6.29942e-14 -3.21768e-13 -2.41466e-14 0 0 -8.70068e-14 -7.56181e-14 -3.38874e-13 -1.01667e-14 0 0 -5.26121e-14 -1.08831e-13 -3.38944e-13 -1.51462e-14 0 0 1.69591e-15 -1.70346e-13 -3.31476e-13 -3.18645e-14 0 0 7.39441e-14 -2.49372e-13 -3.12595e-13 -4.91555e-14 0 0 1.36957e-13 -2.91902e-13 -3.06105e-13 -4.76782e-14 0 0 1.88761e-13 -3.22139e-13 -3.19821e-13 -4.89189e-14 0 0 2.26935e-13 -3.50165e-13 -3.38376e-13 -6.88951e-14 0 0 2.60455e-13 -3.58582e-13 -3.33356e-13 -1.0732e-13 0 0 2.74786e-13 -3.53228e-13 -3.19298e-13 -1.61989e-13 0 0 2.68046e-13 -3.33199e-13 -3.08022e-13 -2.23053e-13 0 0 2.46468e-13 -3.00368e-13 -3.06371e-13 -2.78583e-13 0 0 2.18423e-13 -2.85914e-13 -2.99829e-13 -3.34503e-13 0 0 1.96731e-13 -2.79547e-13 -2.83843e-13 -3.85879e-13 0 0 1.77318e-13 -2.68514e-13 -2.82328e-13 -4.18835e-13 0 0 1.54934e-13 -2.50939e-13 -2.85572e-13 -4.31682e-13 0 0 1.1808e-13 -2.18656e-13 -3.09939e-13 -4.10996e-13 0 0 4.83857e-14 -1.72451e-13 -3.35534e-13 -3.78872e-13 0 0 4.25096e-14 -1.88623e-13 -3.27109e-13 -3.99954e-13 0 0 3.86482e-14 -1.97341e-13 -3.37334e-13 -3.91771e-13 0 0 3.12903e-15 -1.61618e-13 -3.76784e-13 -3.53704e-13 0 0 -3.67404e-14 -1.66751e-13 -4.03178e-13 -3.22224e-13 0 0 -8.05997e-14 -1.79529e-13 -4.15275e-13 -2.99056e-13 0 0 -1.33837e-13 -2.04381e-13 -3.77985e-13 -3.16887e-13 0 0 -1.38243e-13 -2.57556e-13 -2.61329e-13 -3.97509e-13 0 0 -1.38982e-13 -3.14331e-13 -2.32352e-13 -4.00109e-13 0 0 -1.5869e-13 -3.03655e-13 -2.76298e-13 -3.4605e-13 0 0 -2.06206e-13 -2.97778e-13 -3.21427e-13 -2.39144e-13 0 0 -2.03875e-13 -3.22057e-13 -3.30119e-13 -1.94078e-13 0 0 -2.07666e-13 -3.25662e-13 -3.26919e-13 -1.90489e-13 0 0 -2.4513e-13 -3.04155e-13 -3.16235e-13 -1.99669e-13 0 0 -2.91513e-13 -2.42188e-13 -3.55072e-13 -1.80728e-13 0 0 -2.83338e-13 -2.27343e-13 -3.75181e-13 -1.67661e-13 0 0 -2.58511e-13 -2.64041e-13 -3.23731e-13 -1.99852e-13 0 0 -2.27367e-13 -3.00855e-13 -2.26946e-13 -2.72082e-13 0 0 -1.99871e-13 -3.14729e-13 -1.77645e-13 -2.90679e-13 0 0 -1.7187e-13 -3.24392e-13 -1.56667e-13 -2.85241e-13 0 0 -1.49532e-13 -3.29841e-13 -1.41918e-13 -2.85335e-13 0 0 -1.49151e-13 -3.2527e-13 -1.37803e-13 -2.93796e-13 0 0 -1.57468e-13 -3.05659e-13 -1.44625e-13 -3.038e-13 0 0 -1.77505e-13 -2.6591e-13 -1.71268e-13 -2.9725e-13 0 0 -2.05978e-13 -2.4422e-13 -2.14735e-13 -2.64769e-13 0 0 -2.07125e-13 -2.7639e-13 -2.04089e-13 -2.43698e-13 0 0 -1.88196e-13 -3.32624e-13 -1.87083e-13 -1.99272e-13 0 0 -2.02643e-13 -3.10329e-13 -1.90219e-13 -1.91753e-13 0 0 -2.16595e-13 -2.70384e-13 -2.28675e-13 -2.19132e-13 0 0 -2.07362e-13 -2.525e-13 -2.94346e-13 -1.47001e-13 0 0 -1.65509e-13 -3.23702e-13 -1.99518e-13 -2.07832e-13 0 0 -1.37003e-13 -3.72565e-13 -9.5469e-14 -3.26431e-13 0 0 -1.43185e-13 -2.99016e-13 -1.81042e-13 -2.58697e-13 0 0 -1.59589e-13 -2.29534e-13 -2.71336e-13 -1.82728e-13 0 0 -1.70766e-13 -1.94662e-13 -3.12541e-13 -1.61343e-13 0 0 -1.72503e-13 -1.7224e-13 -4.01663e-13 -4.32122e-14 0 0 -1.63434e-13 -2.04853e-13 -3.83953e-13 1.90715e-14 0 0 -1.58438e-13 -2.7843e-13 -2.88996e-13 2.74579e-14 0 0 -1.76523e-13 -3.17486e-13 -2.57972e-13 8.68183e-14 0 0 -1.95716e-13 -3.31842e-13 -2.45789e-13 3.73538e-14 0 0 -2.42486e-13 -3.08989e-13 -2.6331e-13 -2.38896e-14 0 0 -2.6782e-13 -3.11466e-13 -2.55054e-13 -1.34249e-13 0 0 -2.63392e-13 -3.22127e-13 -2.79478e-13 -2.70179e-13 0 0 -2.21732e-13 -3.61524e-13 -3.61548e-13 -3.75131e-13 0 0 -2.03225e-13 -3.89505e-13 -4.3492e-13 -4.06213e-13 0 0 -2.43735e-13 -3.33602e-13 -4.90255e-13 -4.88826e-13 0 0 -2.3833e-13 -3.05437e-13 -5.0488e-13 -5.53205e-13 0 0 -2.09852e-13 -3.60025e-13 -4.35151e-13 -4.70639e-13 0 0 -2.35201e-13 -3.53445e-13 -3.94207e-13 -2.0407e-13 0 0 -2.84934e-13 -2.76205e-13 -4.44593e-13 1.13935e-13 0 0 -2.82855e-13 -2.88901e-13 -3.9673e-13 2.53372e-13 0 0 -2.65227e-13 -3.04874e-13 -3.50015e-13 2.32913e-13 0 0 -2.18873e-13 -2.96177e-13 -2.71094e-13 5.86153e-14 0 0 -1.50504e-13 -3.42589e-13 -1.29697e-13 -1.77422e-13 0 0 -9.57363e-14 -3.69605e-13 -1.21652e-13 -2.79299e-13 0 0 -5.87166e-14 -3.49375e-13 -1.75106e-13 -2.71182e-13 0 0 -8.42196e-14 -3.19643e-13 -2.91335e-13 -2.2162e-13 0 0 -1.75122e-13 -2.3051e-13 -3.96464e-13 -1.96001e-13 0 0 -2.09021e-13 -1.77081e-13 -3.91588e-13 -3.08238e-13 0 0 -1.37659e-13 -3.32373e-13 -3.09101e-13 -4.4618e-13 0 0 -1.40853e-13 -3.84393e-13 -3.32325e-13 -3.85467e-13 0 0 -1.44079e-13 -4.03548e-13 -3.21096e-13 -3.40372e-13 0 0 -1.2529e-13 -4.54483e-13 -2.77665e-13 -3.54073e-13 0 0 -1.71348e-13 -3.68184e-13 -3.41514e-13 -3.00559e-13 0 0 -1.35211e-13 -4.00901e-13 -3.37946e-13 -2.18184e-13 0 0 -2.15739e-13 -3.25916e-13 -3.95953e-13 -1.53791e-13 0 0 -2.15387e-13 -3.82022e-13 -2.33625e-13 -3.05244e-13 0 0 -1.63929e-13 -4.28485e-13 -1.763e-13 -2.48792e-13 0 0 -2.93154e-13 -1.72372e-13 -4.2235e-13 -1.57365e-14 0 0 -2.71458e-13 -2.21266e-13 -3.16369e-13 -9.20036e-14 0 0 -1.70629e-13 -3.84487e-13 -1.48439e-13 -2.0726e-13 0 0 -1.21902e-13 -3.78023e-13 -2.04459e-13 -1.46116e-13 0 0 -1.81015e-13 -2.31236e-13 -2.7439e-13 -2.09629e-13 0 0 -1.65865e-13 -2.30547e-13 -1.61015e-13 -3.65786e-13 0 0 -1.10771e-13 -3.21274e-13 -3.34822e-14 -4.07355e-13 0 0 -2.63993e-13 -1.37502e-13 -2.06163e-13 -2.19869e-13 0 0 -2.70306e-13 -1.30483e-13 -2.43768e-13 -5.47713e-14 0 0 -9.15196e-14 -4.19939e-13 3.64592e-14 -1.94804e-13 0 0 -7.12241e-14 -4.20179e-13 1.81332e-14 -1.11841e-13 0 0 -1.35848e-13 -3.161e-13 -1.35681e-13 7.44123e-14 0 0 -2.5803e-13 -1.35221e-13 -4.04558e-13 2.99631e-13 0 0 -2.60289e-13 -9.64201e-14 -4.70061e-13 3.81871e-13 0 0 -1.25295e-13 -3.64392e-13 -1.01798e-13 6.19523e-14 0 0 -2.76263e-13 -2.3709e-13 -4.21647e-14 -1.32876e-13 0 0 -4.39585e-13 -1.13019e-13 -6.26645e-14 -1.47522e-13 0 0 -2.57264e-13 -4.50543e-13 1.78536e-13 -2.21137e-13 0 0 -1.86257e-13 -5.67483e-13 2.63603e-13 -3.67934e-13 0 0 -4.66209e-13 -1.63289e-13 -1.83231e-13 -2.19708e-13 0 0 -5.34701e-13 3.54264e-14 -6.1415e-13 6.32106e-14 0 0 -4.12635e-13 -5.34534e-14 -6.63193e-13 1.18242e-13 0
				</DataArray>
				<DataArray Name="VitesseY" type="Float32" format="ascii">