<?xml version="1.0"?>
<VTKFile type="PolyData">
	<PolyData>
		<Piece NumberOfPoints="1206" NumberOfPolys="1000">
			<Points>
				<DataArray type="Float32" NumberOfComponents="3" format="ascii">
 0 0 0 0.02 0 0 0.04 0 0 0.06 0 0 0.08 0 0 0.1 0 0 0 0.005 0 0.02 0.005 0 0.04 0.005 0 0.06 0.005 0 0.08 0.005 0 0.1 0.005 0 0 0.01 0 0.02 0.01 0 0.04 0.01 0 0.06 0.01 0 0.08 0.01 0 0.1 0.01 0 0 0.015 0 0.02 0.015 0 0.04 0.015 0 0.06 0.015 0 0.08 0.015 0 0.1 0.015 0 0 0.02 0 0.02 0.02 0 0.04 0.02 0 0.06 0.02 0 0.08 0.02 0 0.1 0.02 0 0 0.025 0 0.02 0.025 0 0.04 0.025 0 0.06 0.025 0 0.08 0.025 0 0.1 0.025 0 0 0.03 0 0.02 0.03 0 0.04 0.03 0 0.06 0.03 0 0.08 0.03 0 0.1 0.03 0 0 0.035 0 0.02 0.035 0 0.04 0.035 0 0.06 0.035 0 0.08 0.035 0 0.1 0.035 0 0 0.04 0 0.02 0.04 0 0.04 0.04 0 0.06 0.04 0 0.08 0.04 0 0.1 0.04 0 0 0.045 0 0.02 0.045 0 0.04 0.045 0 0.06 0.045 0 0.08 0.045 0 0.1 0.045 0 0 0.05 0 0.02 0.05 0 0.04 0.05 0 0.06 0.05 0 0.08 0.05 0 0.1 0.05 0 0 0.055 0 0.02 0.055 0 0.04 0.055 0 0.06 0.055 0 0.08 0.055 0 0.1 0.055 0 0 0.06 0 0.02 0.06 0 0.04 0.06 0 0.06 0.06 0 0.08 0.06 0 0.1 0.06 0 0 0.065 0 0.02 0.065 0 0.04 0.065 0 0.06 0.065 0 0.08 0.065 0 0.1 0.065 0 0 0.07 0 0.02 0.07 0 0.04 0.07 0 0.06 0.07 0 0.08 0.07 0 0.1 0.07 0 0 0.075 0 0.02 0.075 0 0.04 0.075 0 0.06 0.075 0 0.08 0.075 0 0.1 0.075 0 0 0.08 0 0.02 0.08 0 0.04 0.08 0 0.06 0.08 0 0.08 0.08 0 0.1 0.08 0 0 0.085 0 0.02 0.085 0 0.04 0.085 0 0.06 0.085 0 0.08 0.085 0 0.1 0.085 0 0 0.09 0 0.02 0.09 0 0.04 0.09 0 0.06 0.09 0 0.08 0.09 0 0.1 0.09 0 0 0.095 0 0.02 0.095 0 0.04 0.095 0 0.06 0.095 0 0.08 0.095 0 0.1 0.095 0 0 0.1 0 0.02 0.1 0 0.04 0.1 0 0.06 0.1 0 0.08 0.1 0 0.1 0.1 0 0 0.105 0 0.02 0.105 0 0.04 0.105 0 0.06 0.105 0 0.08 0.105 0 0.1 0.105 0 0 0.11 0 0.02 0.11 0 0.04 0.11 0 0.06 0.11 0 0.08 0.11 0 0.1 0.11 0 0 0.115 0 0.02 0.115 0 0.04 0.115 0 0.06 0.115 0 0.08 0.115 0 0.1 0.115 0 0 0.12 0 0.02 0.12 0 0.04 0.12 0 0.06 0.12 0 0.08 0.12 0 0.1 0.12 0 0 0.125 0 0.02 0.125 0 0.04 0.125 0 0.06 0.125 0 0.08 0.125 0 0.1 0.125 0 0 0.13 0 0.02 0.13 0 0.04 0.13 0 0.06 0.13 0 0.08 0.13 0 0.1 0.13 0 0 0.135 0 0.02 0.135 0 0.04 0.135 0 0.06 0.135 0 0.08 0.135 0 0.1 0.135 0 0 0.14 0 0.02 0.14 0 0.04 0.14 0 0.06 0.14 0 0.08 0.14 0 0.1 0.14 0 0 0.145 0 0.02 0.145 0 0.04 0.145 0 0.06 0.145 0 0.08 0.145 0 0.1 0.145 0 0 0.15 0 0.02 0.15 0 0.04 0.15 0 0.06 0.15 0 0.08 0.15 0 0.1 0.15 0 0 0.155 0 0.02 0.155 0 0.04 0.155 0 0.06 0.155 0 0.08 0.155 0 0.1 0.155 0 0 0.16 0 0.02 0.16 0 0.04 0.16 0 0.06 0.16 0 0.08 0.16 0 0.1 0.16 0 0 0.165 0 0.02 0.165 0 0.04 0.165 0 0.06 0.165 0 0.08 0.165 0 0.1 0.165 0 0 0.17 0 0.02 0.17 0 0.04 0.17 0 0.06 0.17 0 0.08 0.17 0 0.1 0.17 0 0 0.175 0 0.02 0.175 0 0.04 0.175 0 0.06 0.175 0 0.08 0.175 0 0.1 0.175 0 0 0.18 0 0.02 0.18 0 0.04 0.18 0 0.06 0.18 0 0.08 0.18 0 0.1 0.18 0 0 0.185 0 0.02 0.185 0 0.04 0.185 0 0.06 0.185 0 0.08 0.185 0 0.1 0.185 0 0 0.19 0 0.02 0.19 0 0.04 0.19 0 0.06 0.19 0 0.08 0.19 0 0.1 0.19 0 0 0.195 0 0.02 0.195 0 0.04 0.195 0 0.06 0.195 0 0.08 0.195 0 0.1 0.195 0 0 0.2 0 0.02 0.2 0 0.04 0.2 0 0.06 0.2 0 0.08 0.2 0 0.1 0.2 0 0 0.205 0 0.02 0.205 0 0.04 0.205 0 0.06 0.205 0 0.08 0.205 0 0.1 0.205 0 0 0.21 0 0.02 0.21 0 0.04 0.21 0 0.06 0.21 0 0.08 0.21 0 0.1 0.21 0 0 0.215 0 0.02 0.215 0 0.04 0.215 0 0.06 0.215 0 0.08 0.215 0 0.1 0.215 0 0 0.22 0 0.02 0.22 0 0.04 0.22 0 0.06 0.22 0 0.08 0.22 0 0.1 0.22 0 0 0.225 0 0.02 0.225 0 0.04 0.225 0 0.06 0.225 0 0.08 0.225 0 0.1 0.225 0 0 0.23 0 0.02 0.23 0 0.04 0.23 0 0.06 0.23 0 0.08 0.23 0 0.1 0.23 0 0 0.235 0 0.02 0.235 0 0.04 0.235 0 0.06 0.235 0 0.08 0.235 0 0.1 0.235 0 0 0.24 0 0.02 0.24 0 0.04 0.24 0 0.06 0.24 0 0.08 0.24 0 0.1 0.24 0 0 0.245 0 0.02 0.245 0 0.04 0.245 0 0.06 0.245 0 0.08 0.245 0 0.1 0.245 0 0 0.25 0 0.02 0.25 0 0.04 0.25 0 0.06 0.25 0 0.08 0.25 0 0.1 0.25 0 0 0.255 0 0.02 0.255 0 0.04 0.255 0 0.06 0.255 0 0.08 0.255 0 0.1 0.255 0 0 0.26 0 0.02 0.26 0 0.04 0.26 0 0.06 0.26 0 0.08 0.26 0 0.1 0.26 0 0 0.265 0 0.02 0.265 0 0.04 0.265 0 0.06 0.265 0 0.08 0.265 0 0.1 0.265 0 0 0.27 0 0.02 0.27 0 0.04 0.27 0 0.06 0.27 0 0.08 0.27 0 0.1 0.27 0 0 0.275 0 0.02 0.275 0 0.04 0.275 0 0.06 0.275 0 0.08 0.275 0 0.1 0.275 0 0 0.28 0 0.02 0.28 0 0.04 0.28 0 0.06 0.28 0 0.08 0.28 0 0.1 0.28 0 0 0.285 0 0.02 0.285 0 0.04 0.285 0 0.06 0.285 0 0.08 0.285 0 0.1 0.285 0 0 0.29 0 0.02 0.29 0 0.04 0.29 0 0.06 0.29 0 0.08 0.29 0 0.1 0.29 0 0 0.295 0 0.02 0.295 0 0.04 0.295 0 0.06 0.295 0 0.08 0.295 0 0.1 0.295 0 0 0.3 0 0.02 0.3 0 0.04 0.3 0 0.06 0.3 0 0.08 0.3 0 0.1 0.3 0 0 0.305 0 0.02 0.305 0 0.04 0.305 0 0.06 0.305 0 0.08 0.305 0 0.1 0.305 0 0 0.31 0 0.02 0.31 0 0.04 0.31 0 0.06 0.31 0 0.08 0.31 0 0.1 0.31 0 0 0.315 0 0.02 0.315 0 0.04 0.315 0 0.06 0.315 0 0.08 0.315 0 0.1 0.315 0 0 0.32 0 0.02 0.32 0 0.04 0.32 0 0.06 0.32 0 0.08 0.32 0 0.1 0.32 0 0 0.325 0 0.02 0.325 0 0.04 0.325 0 0.06 0.325 0 0.08 0.325 0 0.1 0.325 0 0 0.33 0 0.02 0.33 0 0.04 0.33 0 0.06 0.33 0 0.08 0.33 0 0.1 0.33 0 0 0.335 0 0.02 0.335 0 0.04 0.335 0 0.06 0.335 0 0.08 0.335 0 0.1 0.335 0 0 0.34 0 0.02 0.34 0 0.04 0.34 0 0.06 0.34 0 0.08 0.34 0 0.1 0.34 0 0 0.345 0 0.02 0.345 0 0.04 0.345 0 0.06 0.345 0 0.08 0.345 0 0.1 0.345 0 0 0.35 0 0.02 0.35 0 0.04 0.35 0 0.06 0.35 0 0.08 0.35 0 0.1 0.35 0 0 0.355 0 0.02 0.355 0 0.04 0.355 0 0.06 0.355 0 0.08 0.355 0 0.1 0.355 0 0 0.36 0 0.02 0.36 0 0.04 0.36 0 0.06 0.36 0 0.08 0.36 0 0.1 0.36 0 0 0.365 0 0.02 0.365 0 0.04 0.365 0 0.06 0.365 0 0.08 0.365 0 0.1 0.365 0 0 0.37 0 0.02 0.37 0 0.04 0.37 0 0.06 0.37 0 0.08 0.37 0 0.1 0.37 0 0 0.375 0 0.02 0.375 0 0.04 0.375 0 0.06 0.375 0 0.08 0.375 0 0.1 0.375 0 0 0.38 0 0.02 0.38 0 0.04 0.38 0 0.06 0.38 0 0.08 0.38 0 0.1 0.38 0 0 0.385 0 0.02 0.385 0 0.04 0.385 0 0.06 0.385 0 0.08 0.385 0 0.1 0.385 0 0 0.39 0 0.02 0.39 0 0.04 0.39 0 0.06 0.39 0 0.08 0.39 0 0.1 0.39 0 0 0.395 0 0.02 0.395 0 0.04 0.395 0 0.06 0.395 0 0.08 0.395 0 0.1 0.395 0 0 0.4 0 0.02 0.4 0 0.04 0.4 0 0.06 0.4 0 0.08 0.4 0 0.1 0.4 0 0 0.405 0 0.02 0.405 0 0.04 0.405 0 0.06 0.405 0 0.08 0.405 0 0.1 0.405 0 0 0.41 0 0.02 0.41 0 0.04 0.41 0 0.06 0.41 0 0.08 0.41 0 0.1 0.41 0 0 0.415 0 0.02 0.415 0 0.04 0.415 0 0.06 0.415 0 0.08 0.415 0 0.1 0.415 0 0 0.42 0 0.02 0.42 0 0.04 0.42 0 0.06 0.42 0 0.08 0.42 0 0.1 0.42 0 0 0.425 0 0.02 0.425 0 0.04 0.425 0 0.06 0.425 0 0.08 0.425 0 0.1 0.425 0 0 0.43 0 0.02 0.43 0 0.04 0.43 0 0.06 0.43 0 0.08 0.43 0 0.1 0.43 0 0 0.435 0 0.02 0.435 0 0.04 0.435 0 0.06 0.435 0 0.08 0.435 0 0.1 0.435 0 0 0.44 0 0.02 0.44 0 0.04 0.44 0 0.06 0.44 0 0.08 0.44 0 0.1 0.44 0 0 0.445 0 0.02 0.445 0 0.04 0.445 0 0.06 0.445 0 0.08 0.445 0 0.1 0.445 0 0 0.45 0 0.02 0.45 0 0.04 0.45 0 0.06 0.45 0 0.08 0.45 0 0.1 0.45 0 0 0.455 0 0.02 0.455 0 0.04 0.455 0 0.06 0.455 0 0.08 0.455 0 0.1 0.455 0 0 0.46 0 0.02 0.46 0 0.04 0.46 0 0.06 0.46 0 0.08 0.46 0 0.1 0.46 0 0 0.465 0 0.02 0.465 0 0.04 0.465 0 0.06 0.465 0 0.08 0.465 0 0.1 0.465 0 0 0.47 0 0.02 0.47 0 0.04 0.47 0 0.06 0.47 0 0.08 0.47 0 0.1 0.47 0 0 0.475 0 0.02 0.475 0 0.04 0.475 0 0.06 0.475 0 0.08 0.475 0 0.1 0.475 0 0 0.48 0 0.02 0.48 0 0.04 0.48 0 0.06 0.48 0 0.08 0.48 0 0.1 0.48 0 0 0.485 0 0.02 0.485 0 0.04 0.485 0 0.06 0.485 0 0.08 0.485 0 0.1 0.485 0 0 0.49 0 0.02 0.49 0 0.04 0.49 0 0.06 0.49 0 0.08 0.49 0 0.1 0.49 0 0 0.495 0 0.02 0.495 0 0.04 0.495 0 0.06 0.495 0 0.08 0.495 0 0.1 0.495 0 0 0.5 0 0.02 0.5 0 0.04 0.5 0 0.06 0.5 0 0.08 0.5 0 0.1 0.5 0 0 0.505 0 0.02 0.505 0 0.04 0.505 0 0.06 0.505 0 0.08 0.505 0 0.1 0.505 0 0 0.51 0 0.02 0.51 0 0.04 0.51 0 0.06 0.51 0 0.08 0.51 0 0.1 0.51 0 0 0.515 0 0.02 0.515 0 0.04 0.515 0 0.06 0.515 0 0.08 0.515 0 0.1 0.515 0 0 0.52 0 0.02 0.52 0 0.04 0.52 0 0.06 0.52 0 0.08 0.52 0 0.1 0.52 0 0 0.525 0 0.02 0.525 0 0.04 0.525 0 0.06 0.525 0 0.08 0.525 0 0.1 0.525 0 0 0.53 0 0.02 0.53 0 0.04 0.53 0 0.06 0.53 0 0.08 0.53 0 0.1 0.53 0 0 0.535 0 0.02 0.535 0 0.04 0.535 0 0.06 0.535 0 0.08 0.535 0 0.1 0.535 0 0 0.54 0 0.02 0.54 0 0.04 0.54 0 0.06 0.54 0 0.08 0.54 0 0.1 0.54 0 0 0.545 0 0.02 0.545 0 0.04 0.545 0 0.06 0.545 0 0.08 0.545 0 0.1 0.545 0 0 0.55 0 0.02 0.55 0 0.04 0.55 0 0.06 0.55 0 0.08 0.55 0 0.1 0.55 0 0 0.555 0 0.02 0.555 0 0.04 0.555 0 0.06 0.555 0 0.08 0.555 0 0.1 0.555 0 0 0.56 0 0.02 0.56 0 0.04 0.56 0 0.06 0.56 0 0.08 0.56 0 0.1 0.56 0 0 0.565 0 0.02 0.565 0 0.04 0.565 0 0.06 0.565 0 0.08 0.565 0 0.1 0.565 0 0 0.57 0 0.02 0.57 0 0.04 0.57 0 0.06 0.57 0 0.08 0.57 0 0.1 0.57 0 0 0.575 0 0.02 0.575 0 0.04 0.575 0 0.06 0.575 0 0.08 0.575 0 0.1 0.575 0 0 0.58 0 0.02 0.58 0 0.04 0.58 0 0.06 0.58 0 0.08 0.58 0 0.1 0.58 0 0 0.585 0 0.02 0.585 0 0.04 0.585 0 0.06 0.585 0 0.08 0.585 0 0.1 0.585 0 0 0.59 0 0.02 0.59 0 0.04 0.59 0 0.06 0.59 0 0.08 0.59 0 0.1 0.59 0 0 0.595 0 0.02 0.595 0 0.04 0.595 0 0.06 0.595 0 0.08 0.595 0 0.1 0.595 0 0 0.6 0 0.02 0.6 0 0.04 0.6 0 0.06 0.6 0 0.08 0.6 0 0.1 0.6 0 0 0.605 0 0.02 0.605 0 0.04 0.605 0 0.06 0.605 0 0.08 0.605 0 0.1 0.605 0 0 0.61 0 0.02 0.61 0 0.04 0.61 0 0.06 0.61 0 0.08 0.61 0 0.1 0.61 0 0 0.615 0 0.02 0.615 0 0.04 0.615 0 0.06 0.615 0 0.08 0.615 0 0.1 0.615 0 0 0.62 0 0.02 0.62 0 0.04 0.62 0 0.06 0.62 0 0.08 0.62 0 0.1 0.62 0 0 0.625 0 0.02 0.625 0 0.04 0.625 0 0.06 0.625 0 0.08 0.625 0 0.1 0.625 0 0 0.63 0 0.02 0.63 0 0.04 0.63 0 0.06 0.63 0 0.08 0.63 0 0.1 0.63 0 0 0.635 0 0.02 0.635 0 0.04 0.635 0 0.06 0.635 0 0.08 0.635 0 0.1 0.635 0 0 0.64 0 0.02 0.64 0 0.04 0.64 0 0.06 0.64 0 0.08 0.64 0 0.1 0.64 0 0 0.645 0 0.02 0.645 0 0.04 0.645 0 0.06 0.645 0 0.08 0.645 0 0.1 0.645 0 0 0.65 0 0.02 0.65 0 0.04 0.65 0 0.06 0.65 0 0.08 0.65 0 0.1 0.65 0 0 0.655 0 0.02 0.655 0 0.04 0.655 0 0.06 0.655 0 0.08 0.655 0 0.1 0.655 0 0 0.66 0 0.02 0.66 0 0.04 0.66 0 0.06 0.66 0 0.08 0.66 0 0.1 0.66 0 0 0.665 0 0.02 0.665 0 0.04 0.665 0 0.06 0.665 0 0.08 0.665 0 0.1 0.665 0 0 0.67 0 0.02 0.67 0 0.04 0.67 0 0.06 0.67 0 0.08 0.67 0 0.1 0.67 0 0 0.675 0 0.02 0.675 0 0.04 0.675 0 0.06 0.675 0 0.08 0.675 0 0.1 0.675 0 0 0.68 0 0.02 0.68 0 0.04 0.68 0 0.06 0.68 0 0.08 0.68 0 0.1 0.68 0 0 0.685 0 0.02 0.685 0 0.04 0.685 0 0.06 0.685 0 0.08 0.685 0 0.1 0.685 0 0 0.69 0 0.02 0.69 0 0.04 0.69 0 0.06 0.69 0 0.08 0.69 0 0.1 
[...]
			<PointData Scalars="VitesseX">
				<DataArray Name="VitesseX" type="Float32" format="ascii">
 0 -8.84967e-15 -1.73005e-14 8.3656e-15 -6.96481e-15 0 0 -8.49704e-15 -1.53972e-14 5.24147e-15 -3.0138e-15 0 0 -8.39239e-15 -1.18508e-14 -7.99095e-16 5.32269e-15 0 0 1.77659e-16 -2.09659e-14 7.06429e-15 3.92341e-15 0 0 2.54473e-16 -1.13433e-14 -5.61887e-15 1.34404e-14 0 0 -4.75013e-15 8.53703e-15 -2.87671e-14 2.4921e-14 0 0 1.42924e-15 5.17417e-15 -2.08639e-14 1.35614e-14 0 0 1.00696e-14 -5.70721e-15 -1.11364e-15 -1.9193e-15 0 0 1.06062e-14 -2.52659e-15 3.92822e-15 -9.76864e-15 0 0 -1.1399e-14 3.51529e-14 -2.27139e-14 -1.381e-15 0 0 -4.17352e-15 2.39903e-14 -8.36843e-15 -1.52645e-14 0 0 6.62716e-15 1.13592e-14 -1.0275e-14 -1.54694e-14 0 0 5.82389e-15 8.73502e-15 -1.40735e-14 -1.15563e-14 0 0 6.98109e-15 -9.87102e-16 -1.45739e-15 -1.79026e-14 0 0 -1.00043e-14 1.90079e-14 -1.54831e-14 -2.61859e-14 0 0 -1.52968e-15 -1.44595e-14 1.54929e-14 -5.63423e-14 0 0 -3.76053e-15 -2.85626e-14 9.86928e-15 -4.16865e-14 0 0 -2.00687e-14 -1.35943e-14 -1.06306e-14 -3.28881e-14 0 0 -1.84684e-14 -2.17562e-14 -1.22873e-14 -2.14417e-14 0 0 -9.30507e-15 -3.58256e-14 -1.5184e-14 -4.22787e-16 0 0 6.29511e-15 -5.1357e-14 -3.91138e-15 -1.81256e-14 0 0 -1.20835e-14 -1.67944e-14 -3.22001e-14 -6.29469e-15 0 0 -6.19817e-15 -2.43584e-14 -1.73682e-14 -1.84643e-15 0 0 3.28656e-15 -2.43227e-14 6.7597e-15 -2.63732e-14 0 0 -2.64114e-14 2.54653e-14 -2.33698e-14 -1.82386e-14 0 0 4.55986e-15 -3.81705e-14 5.50062e-14 -5.72268e-14 0 0 -1.67782e-14 -1.95398e-15 4.04736e-14 -5.23807e-14 0 0 -2.64969e-14 2.48192e-14 1.08653e-14 -4.43914e-14 0 0 -1.39551e-15 -4.06578e-14 8.37895e-14 -9.13145e-14 0 0 -2.47338e-14 -1.75945e-14 4.61035e-14 -5.21768e-14 0 0 -2.12747e-14 9.21488e-16 -2.15338e-14 1.86483e-14 0 0 -2.33475e-14 3.88251e-15 -2.13688e-14 3.95713e-15 0 0 -7.96684e-15 -3.9014e-14 2.31943e-14 -3.12752e-14 0 0 1.93403e-14 -8.5384e-14 4.65088e-14 -1.46731e-14 0 0 -2.56837e-14 -1.85268e-14 -2.56249e-14 4.81448e-14 0 0 -6.63653e-14 3.09886e-14 -5.824e-14 7.79654e-14 0 0 -3.34047e-15 -3.75216e-14 2.10567e-14 3.70265e-15 0 0 3.52357e-14 -5.57117e-14 7.03741e-15 3.15255e-14 0 0 3.16424e-14 -2.58401e-14 -5.15682e-14 1.00629e-13 0 0 2.79241e-14 8.32558e-15 -1.06044e-13 1.13518e-13 0 0 4.68506e-14 -1.81567e-14 -1.01671e-13 1.0713e-13 0 0 7.10964e-14 -4.44686e-14 -8.96952e-14 9.86673e-14 0 0 3.84602e-14 -1.89817e-14 -8.24198e-14 9.08003e-14 0 0 5.38014e-14 -8.01303e-14 1.39833e-14 1.71693e-14 0 0 1.3375e-13 -1.67931e-13 9.10727e-14 -5.93281e-14 0 0 1.16737e-13 -1.15283e-13 6.31457e-15 1.53691e-14 0 0 9.00828e-14 -8.15017e-14 -2.55346e-14 5.55653e-14 0 0 1.58837e-14 1.52803e-14 -6.82193e-14 4.93948e-14 0 0 -2.85825e-14 8.03168e-14 -1.23981e-13 6.34924e-14 0 0 6.9797e-14 -2.43089e-14 -3.28209e-14 1.73558e-15 0 0 6.52693e-14 6.92802e-14 -1.15187e-13 4.85263e-14 0 0 7.18631e-14 7.28998e-14 -2.4316e-14 -1.95383e-14 0 0 1.17261e-13 -1.64277e-14 1.61245e-13 -1.28619e-13 0 0 1.27464e-13 -3.10734e-14 2.08245e-13 -1.12438e-13 0 0 1.25951e-14 1.31414e-13 -2.08573e-16 1.09869e-13 0 0 2.84243e-15 1.85665e-13 -1.78798e-13 3.14309e-13 0 0 9.55641e-14 5.96414e-14 -2.79034e-14 1.92695e-13 0 0 7.00737e-14 9.52511e-14 -5.7682e-15 1.10811e-13 0 0 4.31094e-14 1.51334e-13 -6.21744e-14 9.8504e-14 0 0 1.6282e-14 2.20169e-13 -1.41511e-13 1.03278e-13 0 0 5.97794e-14 1.79122e-13 -1.24956e-13 3.56255e-14 0 0 1.66312e-13 4.59492e-14 -4.91449e-15 -6.06529e-14 0 0 8.3818e-14 1.30125e-13 -8.97844e-14 5.06581e-14 0 0 3.42867e-15 1.60174e-13 -1.12977e-13 1.0728e-13 0 0 3.72156e-14 1.20768e-13 -1.24698e-13 9.23024e-14 0 0 4.94474e-14 1.34834e-13 -2.60706e-13 1.36885e-13 0 0 2.69085e-13 -1.61952e-13 -6.26493e-14 -2.02249e-14 0 0 2.37413e-13 4.10635e-15 -2.2444e-13 1.22887e-14 0 0 1.6114e-13 2.24237e-13 -4.45413e-13 1.43939e-13 0 0 1.95793e-13 3.84046e-14 -2.2855e-13 8.38461e-14 0 0 5.63177e-14 7.50429e-14 -1.93702e-13 9.00811e-14 0 0 7.32909e-14 3.55113e-14 -1.41126e-13 4.66394e-14 0 0 9.82521e-14 8.94541e-14 -2.54345e-13 9.94344e-14 0 0 1.2087e-13 2.09845e-13 -4.2786e-13 7.89128e-14 0 0 1.25308e-13 1.73616e-13 -3.44863e-13 -6.27388e-14 0 0 1.14594e-13 1.58331e-13 -2.94754e-13 -9.39225e-14 0 0 1.59459e-13 3.52623e-14 -2.31931e-13 -1.23127e-14 0 0 2.155e-13 -9.35122e-14 -2.20926e-13 1.06461e-13 0 0 1.92403e-13 -8.46909e-14 -3.11153e-13 2.45734e-13 0 0 9.60504e-14 2.37936e-14 -4.47514e-13 2.73673e-13 0 0 -4.35706e-14 8.1978e-14 -4.59102e-13 2.43236e-13 0 0 -1.66765e-13 7.69749e-14 -3.53793e-13 1.4011e-13 0 0 -2.01543e-13 6.82771e-15 -1.79017e-13 -7.47287e-15 0 0 -2.34496e-13 -1.09898e-13 -1.06102e-14 -1.38047e-13 0 0 -2.37548e-13 -2.11916e-13 1.06952e-13 -2.18839e-13 0 0 -2.22912e-13 -2.50713e-13 6.98162e-14 -1.86633e-13 0 0 -2.08104e-13 -2.34424e-13 -4.87703e-14 -7.87177e-14 0 0 -2.14338e-13 -1.81961e-13 -2.41614e-13 1.10016e-13 0 0 -2.61424e-13 -9.96012e-14 -3.58961e-13 2.16944e-13 0 0 -3.32508e-13 -6.0026e-14 -3.61832e-13 1.93855e-13 0 0 -3.62272e-13 -8.41272e-14 -3.15765e-13 1.15527e-13 0 0 -3.62314e-13 -1.79412e-13 -2.18696e-13 1.66037e-14 0 0 -3.67919e-13 -2.67923e-13 -1.19084e-13 -5.75831e-14 0 0 -3.86069e-13 -2.7775e-13 -7.88821e-14 -9.54791e-14 0 0 -4.34606e-13 -2.69646e-13 -4.87962e-14 -1.15282e-13 0 0 -5.18e-13 -2.41787e-13 -1.33216e-14 -1.3647e-13 0 0 -6.31101e-13 -1.93489e-13 2.98299e-14 -1.70623e-13 0 0 -7.36931e-13 -1.26154e-13 3.98336e-14 -2.19652e-13 0 0 -7.71474e-13 -9.53642e-14 4.47014e-14 -2.26527e-13 0 0 -7.61428e-13 -1.09639e-13 5.57901e-14 -2.2336e-13 0 0 -7.17498e-13 -1.52159e-13 7.20741e-14 -2.19977e-13 0 0 -6.33965e-13 -2.13104e-13 7.39777e-14 -2.0276e-13 0 0 -5.16712e-13 -2.64437e-13 5.63812e-14 -1.49657e-13 0 0 -3.81334e-13 -3.0258e-13 2.60742e-14 -5.40219e-14 0 0 -2.79495e-13 -3.10952e-13 -6.6527e-15 2.59937e-14 0 0 -2.12393e-13 -3.01308e-13 -4.31543e-14 8.80611e-14 0 0 -1.5438e-13 -2.74711e-13 -6.81872e-14 1.48688e-13 0 0 -9.0396e-14 -2.50748e-13 -7.03174e-14 2.01305e-13 0 0 2.48698e-16 -2.51023e-13 -4.78921e-14 2.37292e-13 0 0 9.86233e-14 -2.71995e-13 3.00668e-14 2.16638e-13 0 0 1.30635e-13 -2.46956e-13 3.46344e-14 2.32631e-13 0 0 1.5031e-13 -1.80497e-13 -1.49366e-14 3.16325e-13 0 0 1.9072e-13 -1.39647e-13 -2.41889e-14 3.24578e-13 0 0 2.25349e-13 -1.1144e-13 -2.34217e-14 3.29262e-13 0 0 2.22966e-13 -3.32252e-14 -4.91932e-14 3.74041e-13 0 0 2.17936e-13 2.63697e-14 -5.20453e-14 3.60489e-13 0 0 2.30375e-13 1.42555e-14 3.31135e-14 2.76976e-13 0 0 2.38584e-13 6.22924e-15 1.5121e-13 1.46573e-13 0 0 2.53204e-13 8.06099e-16 2.10113e-13 6.95566e-14 0 0 3.16807e-13 -3.40241e-14 2.14956e-13 7.74899e-14 0 0 3.68642e-13 -8.52657e-14 2.11434e-13 8.78056e-14 0 0 3.81688e-13 -8.8899e-14 1.97214e-13 9.70074e-14 0 0 3.82583e-13 -7.40311e-14 1.58915e-13 1.15401e-13 0 0 3.68993e-13 -3.12766e-14 9.34431e-14 1.45579e-13 0 0 3.25768e-13 4.90017e-14 2.52063e-14 1.58278e-13 0 0 2.64673e-13 8.46345e-14 1.23405e-14 1.49946e-13 0 0 2.09204e-13 6.83545e-14 5.29353e-14 8.96589e-14 0 0 1.48347e-13 5.10628e-14 9.22485e-14 -2.65924e-14 0 0 1.2225e-13 6.55358e-14 4.50521e-14 7.66524e-16 0 0 1.14791e-13 5.47355e-14 3.69388e-14 3.90514e-14 0 0 1.19179e-13 2.43482e-15 7.4385e-14 -1.37189e-14 0 0 9.09211e-14 3.44198e-14 1.4718e-14 3.47425e-14 0 0 6.71476e-14 8.45413e-14 -4.98525e-14 2.91864e-14 0 0 8.86766e-14 6.8108e-14 -5.51674e-14 -9.0517e-15 0 0 9.62658e-14 3.44576e-14 -4.52648e-14 -1.5794e-14 0 0 7.21277e-14 4.94873e-14 -7.07632e-14 -1.79425e-14 0 0 4.26861e-14 6.84887e-14 -8.08764e-14 -3.03342e-14 0 0 3.94879e-14 7.02469e-14 -7.97983e-14 -8.20189e-15 0 0 2.21751e-14 5.45327e-14 -5.02948e-14 -6.11338e-14 0 0 -1.3524e-14 2.36543e-14 -5.07856e-15 -6.24842e-14 0 0 -3.68122e-14 9.52002e-15 -3.54866e-14 4.21428e-14 0 0 -5.57604e-14 -4.42317e-14 6.98381e-16 1.45326e-14 0 0 -6.4739e-14 -7.04808e-14 5.16283e-15 -1.62405e-15 0 0 -7.12685e-14 -5.09709e-14 -6.312e-14 2.81655e-14 0 0 -7.39501e-14 -5.4759e-14 -9.7803e-14 5.30677e-14 0 0 -4.94068e-14 -1.03596e-13 -9.25655e-14 3.32126e-14 0 0 -3.01896e-14 -1.20856e-13 -1.23583e-13 -2.58123e-14 0 0 -2.30608e-14 -8.97337e-14 -2.31088e-13 -8.26645e-14 0 0 -2.55228e-14 -8.20001e-15 -2.46477e-13 -3.49327e-13 0 0 -2.00534e-14 2.77235e-14 -1.69849e-13 -4.56973e-13 0 0 3.31535e-14 -3.92812e-15 -6.62251e-14 -1.56613e-13 0 0 4.22959e-14 8.87678e-14 -8.07996e-14 3.22924e-13 0 0 2.43462e-14 2.24268e-13 -7.05439e-14 4.01497e-13 0 0 4.89152e-14 1.71821e-13 1.65683e-13 2.52535e-13 0 0 6.32763e-14 1.68608e-13 2.70164e-13 1.30163e-13 0 0 9.06615e-14 1.77758e-13 2.57449e-13 1.17284e-13 0 0 1.27698e-13 1.35062e-13 2.72404e-13 1.3596e-13 0 0 1.79117e-14 3.23881e-13 9.32552e-14 2.17912e-13 0 0 -2.25173e-14 3.60696e-13 8.52218e-14 2.01679e-13 0 0 5.93928e-14 1.65902e-13 3.24907e-13 4.87942e-14 0 0 4.72582e-14 1.46992e-13 3.02349e-13 1.55454e-13 0 0 4.35823e-14 1.24397e-13 3.24251e-13 1.40831e-13 0 0 4.50665e-14 1.13119e-13 3.471e-13 1.24068e-13 0 0 7.2954e-14 1.22865e-13 2.54678e-13 2.50333e-13 0 0 4.46598e-14 1.75131e-13 2.7124e-13 1.84433e-13 0 0 8.06973e-16 2.67771e-13 2.33183e-13 2.3282e-13 0 0 6.61414e-14 1.51041e-13 3.51212e-13 2.47512e-13 0 0 6.76182e-14 1.1338e-13 4.0955e-13 2.7203e-13 0 0 1.19161e-13 9.48242e-14 3.66973e-13 3.53583e-13 0 0 1.58295e-13 1.02242e-13 2.98212e-13 3.82141e-13 0 0 1.37936e-13 1.79348e-13 2.46496e-13 3.76216e-13 0 0 2.24117e-13 1.10575e-13 4.04707e-13 1.60843e-13 0 0 2.06623e-13 2.55686e-13 2.57042e-13 2.28876e-13 0 0 1.73775e-13 3.57248e-13 1.40598e-13 3.66413e-13 0 0 3.12358e-13 1.87043e-13 3.35369e-13 1.83949e-13 0 0 2.90817e-13 3.05001e-13 3.01964e-13 4.94033e-14 0 0 1.64521e-13 5.05884e-13 1.0183e-13 1.51298e-13 0 0 1.56829e-13 3.8776e-13 2.11592e-13 1.95835e-13 0 0 1.61103e-13 2.66389e-13 3.66128e-13 1.95339e-13 0 0 2.36558e-13 1.80864e-13 2.49106e-13 3.70204e-13 0 0 2.71974e-13 1.37475e-13 1.71214e-13 4.52887e-13 0 0 2.45831e-13 1.33064e-13 4.27392e-13 1.4406e-13 0 0 1.92721e-13 2.72391e-13 4.23117e-13 2.36435e-14 0 0 6.62183e-14 5.03262e-13 6.13281e-14 2.47574e-13 0 0 1.16046e-13 2.84778e-13 3.20166e-13 2.24433e-14 0 0 1.96094e-13 1.84384e-13 4.4635e-13 -7.51729e-14 0 0 9.5396e-14 4.42065e-13 1.51668e-13 1.57816e-13 0 0 5.05387e-14 5.61214e-13 1.10089e-13 6.0185e-14 0 0 1.95529e-13 3.45643e-13 3.59302e-13 -1.39541e-13 0 0 1.23344e-13 2.59075e-13 4.38752e-13 -7.29088e-14 0 0 1.72362e-13 1.37534e-13 3.47468e-13 6.81606e-14 0 0 1.35403e-13 1.9244e-13 2.89148e-13 -1.22518e-15 0 0 -3.94535e-14 2.94489e-13 3.75987e-13 -1.88213e-13 0 0 1.79497e-13 8.49506e-15 3.9658e-13 -7.43299e-14 0 0 2.06109e-13 3.93516e-14 1.13732e-13 2.10898e-13 0 0 1.72862e-13 1.06462e-13 5.21657e-14 2.17307e-13 0 0 3.23718e-13 -5.61243e-14 2.03236e-13 1.08622e-13 0 0 3.16354e-13 -1.63281e-14 2.79654e-13 -3.26163e-14 0 0 1.93751e-13 3.33113e-13 -3.20835e-14 7.19819e-14 0 0 1.85247e-13 5.16207e-13 -4.02733e-13 3.72785e-13 0 0 2.07824e-13 5.22233e-13 -4.78014e-13 4.44667e-13 0
				</DataArray>
				<DataArray Name="VitesseY" type="Float32" format="ascii">