<?xml version="1.0"?>
<VTKFile type="PolyData">
	<PolyData>
		<Piece NumberOfPoints="1206" NumberOfPolys="1000">
			<Points>
				<DataArray type="Float32" NumberOfComponents="3" format="ascii">
 0 0 0 0.02 0 0 0.04 0 0 0.06 0 0 0.08 0 0 0.1 0 0 0 0.005 0 0.02 0.005 0 0.04 0.005 0 0.06 0.005 0 0.08 0.005 0 0.1 0.005 0 0 0.01 0 0.02 0.01 0 0.04 0.01 0 0.06 0.01 0 0.08 0.01 0 0.1 0.01 0 0 0.015 0 0.02 0.015 0 0.04 0.015 0 0.06 0.015 0 0.08 0.015 0 0.1 0.015 0 0 0.02 0 0.02 0.02 0 0.04 0.02 0 0.06 0.02 0 0.08 0.02 0 0.1 0.02 0 0 0.025 0 0.02 0.025 0 0.04 0.025 0 0.06 0.025 0 0.08 0.025 0 0.1 0.025 0 0 0.03 0 0.02 0.03 0 0.04 0.03 0 0.06 0.03 0 0.08 0.03 0 0.1 0.03 0 0 0.035 0 0.02 0.035 0 0.04 0.035 0 0.06 0.035 0 0.08 0.035 0 0.1 0.035 0 0 0.04 0 0.02 0.04 0 0.04 0.04 0 0.06 0.04 0 0.08 0.04 0 0.1 0.04 0 0 0.045 0 0.02 0.045 0 0.04 0.045 0 0.06 0.045 0 0.08 0.045 0 0.1 0.045 0 0 0.05 0 0.02 0.05 0 0.04 0.05 0 0.06 0.05 0 0.08 0.05 0 0.1 0.05 0 0 0.055 0 0.02 0.055 0 0.04 0.055 0 0.06 0.055 0 0.08 0.055 0 0.1 0.055 0 0 0.06 0 0.02 0.06 0 0.04 0.06 0 0.06 0.06 0 0.08 0.06 0 0.1 0.06 0 0 0.065 0 0.02 0.065 0 0.04 0.065 0 0.06 0.065 0 0.08 0.065 0 0.1 0.065 0 0 0.07 0 0.02 0.07 0 0.04 0.07 0 0.06 0.07 0 0.08 0.07 0 0.1 0.07 0 0 0.075 0 0.02 0.075 0 0.04 0.075 0 0.06 0.075 0 0.08 0.075 0 0.1 0.075 0 0 0.08 0 0.02 0.08 0 0.04 0.08 0 0.06 0.08 0 0.08 0.08 0 0.1 0.08 0 0 0.085 0 0.02 0.085 0 0.04 0.085 0 0.06 0.085 0 0.08 0.085 0 0.1 0.085 0 0 0.09 0 0.02 0.09 0 0.04 0.09 0 0.06 0.09 0 0.08 0.09 0 0.1 0.09 0 0 0.095 0 0.02 0.095 0 0.04 0.095 0 0.06 0.095 0 0.08 0.095 0 0.1 0.095 0 0 0.1 0 0.02 0.1 0 0.04 0.1 0 0.06 0.1 0 0.08 0.1 0 0.1 0.1 0 0 0.105 0 0.02 0.105 0 0.04 0.105 0 0.06 0.105 0 0.08 0.105 0 0.1 0.105 0 0 0.11 0 0.02 0.11 0 0.04 0.11 0 0.06 0.11 0 0.08 0.11 0 0.1 0.11 0 0 0.115 0 0.02 0.115 0 0.04 0.115 0 0.06 0.115 0 0.08 0.115 0 0.1 0.115 0 0 0.12 0 0.02 0.12 0 0.04 0.12 0 0.06 0.12 0 0.08 0.12 0 0.1 0.12 0 0 0.125 0 0.02 0.125 0 0.04 0.125 0 0.06 0.125 0 0.08 0.125 0 0.1 0.125 0 0 0.13 0 0.02 0.13 0 0.04 0.13 0 0.06 0.13 0 0.08 0.13 0 0.1 0.13 0 0 0.135 0 0.02 0.135 0 0.04 0.135 0 0.06 0.135 0 0.08 0.135 0 0.1 0.135 0 0 0.14 0 0.02 0.14 0 0.04 0.14 0 0.06 0.14 0 0.08 0.14 0 0.1 0.14 0 0 0.145 0 0.02 0.145 0 0.04 0.145 0 0.06 0.145 0 0.08 0.145 0 0.1 0.145 0 0 0.15 0 0.02 0.15 0 0.04 0.15 0 0.06 0.15 0 0.08 0.15 0 0.1 0.15 0 0 0.155 0 0.02 0.155 0 0.04 0.155 0 0.06 0.155 0 0.08 0.155 0 0.1 0.155 0 0 0.16 0 0.02 0.16 0 0.04 0.16 0 0.06 0.16 0 0.08 0.16 0 0.1 0.16 0 0 0.165 0 0.02 0.165 0 0.04 0.165 0 0.06 0.165 0 0.08 0.165 0 0.1 0.165 0 0 0.17 0 0.02 0.17 0 0.04 0.17 0 0.06 0.17 0 0.08 0.17 0 0.1 0.17 0 0 0.175 0 0.02 0.175 0 0.04 0.175 0 0.06 0.175 0 0.08 0.175 0 0.1 0.175 0 0 0.18 0 0.02 0.18 0 0.04 0.18 0 0.06 0.18 0 0.08 0.18 0 0.1 0.18 0 0 0.185 0 0.02 0.185 0 0.04 0.185 0 0.06 0.185 0 0.08 0.185 0 0.1 0.185 0 0 0.19 0 0.02 0.19 0 0.04 0.19 0 0.06 0.19 0 0.08 0.19 0 0.1 0.19 0 0 0.195 0 0.02 0.195 0 0.04 0.195 0 0.06 0.195 0 0.08 0.195 0 0.1 0.195 0 0 0.2 0 0.02 0.2 0 0.04 0.2 0 0.06 0.2 0 0.08 0.2 0 0.1 0.2 0 0 0.205 0 0.02 0.205 0 0.04 0.205 0 0.06 0.205 0 0.08 0.205 0 0.1 0.205 0 0 0.21 0 0.02 0.21 0 0.04 0.21 0 0.06 0.21 0 0.08 0.21 0 0.1 0.21 0 0 0.215 0 0.02 0.215 0 0.04 0.215 0 0.06 0.215 0 0.08 0.215 0 0.1 0.215 0 0 0.22 0 0.02 0.22 0 0.04 0.22 0 0.06 0.22 0 0.08 0.22 0 0.1 0.22 0 0 0.225 0 0.02 0.225 0 0.04 0.225 0 0.06 0.225 0 0.08 0.225 0 0.1 0.225 0 0 0.23 0 0.02 0.23 0 0.04 0.23 0 0.06 0.23 0 0.08 0.23 0 0.1 0.23 0 0 0.235 0 0.02 0.235 0 0.04 0.235 0 0.06 0.235 0 0.08 0.235 0 0.1 0.235 0 0 0.24 0 0.02 0.24 0 0.04 0.24 0 0.06 0.24 0 0.08 0.24 0 0.1 0.24 0 0 0.245 0 0.02 0.245 0 0.04 0.245 0 0.06 0.245 0 0.08 0.245 0 0.1 0.245 0 0 0.25 0 0.02 0.25 0 0.04 0.25 0 0.06 0.25 0 0.08 0.25 0 0.1 0.25 0 0 0.255 0 0.02 0.255 0 0.04 0.255 0 0.06 0.255 0 0.08 0.255 0 0.1 0.255 0 0 0.26 0 0.02 0.26 0 0.04 0.26 0 0.06 0.26 0 0.08 0.26 0 0.1 0.26 0 0 0.265 0 0.02 0.265 0 0.04 0.265 0 0.06 0.265 0 0.08 0.265 0 0.1 0.265 0 0 0.27 0 0.02 0.27 0 0.04 0.27 0 0.06 0.27 0 0.08 0.27 0 0.1 0.27 0 0 0.275 0 0.02 0.275 0 0.04 0.275 0 0.06 0.275 0 0.08 0.275 0 0.1 0.275 0 0 0.28 0 0.02 0.28 0 0.04 0.28 0 0.06 0.28 0 0.08 0.28 0 0.1 0.28 0 0 0.285 0 0.02 0.285 0 0.04 0.285 0 0.06 0.285 0 0.08 0.285 0 0.1 0.285 0 0 0.29 0 0.02 0.29 0 0.04 0.29 0 0.06 0.29 0 0.08 0.29 0 0.1 0.29 0 0 0.295 0 0.02 0.295 0 0.04 0.295 0 0.06 0.295 0 0.08 0.295 0 0.1 0.295 0 0 0.3 0 0.02 0.3 0 0.04 0.3 0 0.06 0.3 0 0.08 0.3 0 0.1 0.3 0 0 0.305 0 0.02 0.305 0 0.04 0.305 0 0.06 0.305 0 0.08 0.305 0 0.1 0.305 0 0 0.31 0 0.02 0.31 0 0.04 0.31 0 0.06 0.31 0 0.08 0.31 0 0.1 0.31 0 0 0.315 0 0.02 0.315 0 0.04 0.315 0 0.06 0.315 0 0.08 0.315 0 0.1 0.315 0 0 0.32 0 0.02 0.32 0 0.04 0.32 0 0.06 0.32 0 0.08 0.32 0 0.1 0.32 0 0 0.325 0 0.02 0.325 0 0.04 0.325 0 0.06 0.325 0 0.08 0.325 0 0.1 0.325 0 0 0.33 0 0.02 0.33 0 0.04 0.33 0 0.06 0.33 0 0.08 0.33 0 0.1 0.33 0 0 0.335 0 0.02 0.335 0 0.04 0.335 0 0.06 0.335 0 0.08 0.335 0 0.1 0.335 0 0 0.34 0 0.02 0.34 0 0.04 0.34 0 0.06 0.34 0 0.08 0.34 0 0.1 0.34 0 0 0.345 0 0.02 0.345 0 0.04 0.345 0 0.06 0.345 0 0.08 0.345 0 0.1 0.345 0 0 0.35 0 0.02 0.35 0 0.04 0.35 0 0.06 0.35 0 0.08 0.35 0 0.1 0.35 0 0 0.355 0 0.02 0.355 0 0.04 0.355 0 0.06 0.355 0 0.08 0.355 0 0.1 0.355 0 0 0.36 0 0.02 0.36 0 0.04 0.36 0 0.06 0.36 0 0.08 0.36 0 0.1 0.36 0 0 0.365 0 0.02 0.365 0 0.04 0.365 0 0.06 0.365 0 0.08 0.365 0 0.1 0.365 0 0 0.37 0 0.02 0.37 0 0.04 0.37 0 0.06 0.37 0 0.08 0.37 0 0.1 0.37 0 0 0.375 0 0.02 0.375 0 0.04 0.375 0 0.06 0.375 0 0.08 0.375 0 0.1 0.375 0 0 0.38 0 0.02 0.38 0 0.04 0.38 0 0.06 0.38 0 0.08 0.38 0 0.1 0.38 0 0 0.385 0 0.02 0.385 0 0.04 0.385 0 0.06 0.385 0 0.08 0.385 0 0.1 0.385 0 0 0.39 0 0.02 0.39 0 0.04 0.39 0 0.06 0.39 0 0.08 0.39 0 0.1 0.39 0 0 0.395 0 0.02 0.395 0 0.04 0.395 0 0.06 0.395 0 0.08 0.395 0 0.1 0.395 0 0 0.4 0 0.02 0.4 0 0.04 0.4 0 0.06 0.4 0 0.08 0.4 0 0.1 0.4 0 0 0.405 0 0.02 0.405 0 0.04 0.405 0 0.06 0.405 0 0.08 0.405 0 0.1 0.405 0 0 0.41 0 0.02 0.41 0 0.04 0.41 0 0.06 0.41 0 0.08 0.41 0 0.1 0.41 0 0 0.415 0 0.02 0.415 0 0.04 0.415 0 0.06 0.415 0 0.08 0.415 0 0.1 0.415 0 0 0.42 0 0.02 0.42 0 0.04 0.42 0 0.06 0.42 0 0.08 0.42 0 0.1 0.42 0 0 0.425 0 0.02 0.425 0 0.04 0.425 0 0.06 0.425 0 0.08 0.425 0 0.1 0.425 0 0 0.43 0 0.02 0.43 0 0.04 0.43 0 0.06 0.43 0 0.08 0.43 0 0.1 0.43 0 0 0.435 0 0.02 0.435 0 0.04 0.435 0 0.06 0.435 0 0.08 0.435 0 0.1 0.435 0 0 0.44 0 0.02 0.44 0 0.04 0.44 0 0.06 0.44 0 0.08 0.44 0 0.1 0.44 0 0 0.445 0 0.02 0.445 0 0.04 0.445 0 0.06 0.445 0 0.08 0.445 0 0.1 0.445 0 0 0.45 0 0.02 0.45 0 0.04 0.45 0 0.06 0.45 0 0.08 0.45 0 0.1 0.45 0 0 0.455 0 0.02 0.455 0 0.04 0.455 0 0.06 0.455 0 0.08 0.455 0 0.1 0.455 0 0 0.46 0 0.02 0.46 0 0.04 0.46 0 0.06 0.46 0 0.08 0.46 0 0.1 0.46 0 0 0.465 0 0.02 0.465 0 0.04 0.465 0 0.06 0.465 0 0.08 0.465 0 0.1 0.465 0 0 0.47 0 0.02 0.47 0 0.04 0.47 0 0.06 0.47 0 0.08 0.47 0 0.1 0.47 0 0 0.475 0 0.02 0.475 0 0.04 0.475 0 0.06 0.475 0 0.08 0.475 0 0.1 0.475 0 0 0.48 0 0.02 0.48 0 0.04 0.48 0 0.06 0.48 0 0.08 0.48 0 0.1 0.48 0 0 0.485 0 0.02 0.485 0 0.04 0.485 0 0.06 0.485 0 0.08 0.485 0 0.1 0.485 0 0 0.49 0 0.02 0.49 0 0.04 0.49 0 0.06 0.49 0 0.08 0.49 0 0.1 0.49 0 0 0.495 0 0.02 0.495 0 0.04 0.495 0 0.06 0.495 0 0.08 0.495 0 0.1 0.495 0 0 0.5 0 0.02 0.5 0 0.04 0.5 0 0.06 0.5 0 0.08 0.5 0 0.1 0.5 0 0 0.505 0 0.02 0.505 0 0.04 0.505 0 0.06 0.505 0 0.08 0.505 0 0.1 0.505 0 0 0.51 0 0.02 0.51 0 0.04 0.51 0 0.06 0.51 0 0.08 0.51 0 0.1 0.51 0 0 0.515 0 0.02 0.515 0 0.04 0.515 0 0.06 0.515 0 0.08 0.515 0 0.1 0.515 0 0 0.52 0 0.02 0.52 0 0.04 0.52 0 0.06 0.52 0 0.08 0.52 0 0.1 0.52 0 0 0.525 0 0.02 0.525 0 0.04 0.525 0 0.06 0.525 0 0.08 0.525 0 0.1 0.525 0 0 0.53 0 0.02 0.53 0 0.04 0.53 0 0.06 0.53 0 0.08 0.53 0 0.1 0.53 0 0 0.535 0 0.02 0.535 0 0.04 0.535 0 0.06 0.535 0 0.08 0.535 0 0.1 0.535 0 0 0.54 0 0.02 0.54 0 0.04 0.54 0 0.06 0.54 0 0.08 0.54 0 0.1 0.54 0 0 0.545 0 0.02 0.545 0 0.04 0.545 0 0.06 0.545 0 0.08 0.545 0 0.1 0.545 0 0 0.55 0 0.02 0.55 0 0.04 0.55 0 0.06 0.55 0 0.08 0.55 0 0.1 0.55 0 0 0.555 0 0.02 0.555 0 0.04 0.555 0 0.06 0.555 0 0.08 0.555 0 0.1 0.555 0 0 0.56 0 0.02 0.56 0 0.04 0.56 0 0.06 0.56 0 0.08 0.56 0 0.1 0.56 0 0 0.565 0 0.02 0.565 0 0.04 0.565 0 0.06 0.565 0 0.08 0.565 0 0.1 0.565 0 0 0.57 0 0.02 0.57 0 0.04 0.57 0 0.06 0.57 0 0.08 0.57 0 0.1 0.57 0 0 0.575 0 0.02 0.575 0 0.04 0.575 0 0.06 0.575 0 0.08 0.575 0 0.1 0.575 0 0 0.58 0 0.02 0.58 0 0.04 0.58 0 0.06 0.58 0 0.08 0.58 0 0.1 0.58 0 0 0.585 0 0.02 0.585 0 0.04 0.585 0 0.06 0.585 0 0.08 0.585 0 0.1 0.585 0 0 0.59 0 0.02 0.59 0 0.04 0.59 0 0.06 0.59 0 0.08 0.59 0 0.1 0.59 0 0 0.595 0 0.02 0.595 0 0.04 0.595 0 0.06 0.595 0 0.08 0.595 0 0.1 0.595 0 0 0.6 0 0.02 0.6 0 0.04 0.6 0 0.06 0.6 0 0.08 0.6 0 0.1 0.6 0 0 0.605 0 0.02 0.605 0 0.04 0.605 0 0.06 0.605 0 0.08 0.605 0 0.1 0.605 0 0 0.61 0 0.02 0.61 0 0.04 0.61 0 0.06 0.61 0 0.08 0.61 0 0.1 0.61 0 0 0.615 0 0.02 0.615 0 0.04 0.615 0 0.06 0.615 0 0.08 0.615 0 0.1 0.615 0 0 0.62 0 0.02 0.62 0 0.04 0.62 0 0.06 0.62 0 0.08 0.62 0 0.1 0.62 0 0 0.625 0 0.02 0.625 0 0.04 0.625 0 0.06 0.625 0 0.08 0.625 0 0.1 0.625 0 0 0.63 0 0.02 0.63 0 0.04 0.63 0 0.06 0.63 0 0.08 0.63 0 0.1 0.63 0 0 0.635 0 0.02 0.635 0 0.04 0.635 0 0.06 0.635 0 0.08 0.635 0 0.1 0.635 0 0 0.64 0 0.02 0.64 0 0.04 0.64 0 0.06 0.64 0 0.08 0.64 0 0.1 0.64 0 0 0.645 0 0.02 0.645 0 0.04 0.645 0 0.06 0.645 0 0.08 0.645 0 0.1 0.645 0 0 0.65 0 0.02 0.65 0 0.04 0.65 0 0.06 0.65 0 0.08 0.65 0 0.1 0.65 0 0 0.655 0 0.02 0.655 0 0.04 0.655 0 0.06 0.655 0 0.08 0.655 0 0.1 0.655 0 0 0.66 0 0.02 0.66 0 0.04 0.66 0 0.06 0.66 0 0.08 0.66 0 0.1 0.66 0 0 0.665 0 0.02 0.665 0 0.04 0.665 0 0.06 0.665 0 0.08 0.665 0 0.1 0.665 0 0 0.67 0 0.02 0.67 0 0.04 0.67 0 0.06 0.67 0 0.08 0.67 0 0.1 0.67 0 0 0.675 0 0.02 0.675 0 0.04 0.675 0 0.06 0.675 0 0.08 0.675 0 0.1 0.675 0 0 0.68 0 0.02 0.68 0 0.04 0.68 0 0.06 0.68 0 0.08 0.68 0 0.1 0.68 0 0 0.685 0 0.02 0.685 0 0.04 0.685 0 0.06 0.685 0 0.08 0.685 0 0.1 0.685 0 0 0.69 0 0.02 0.69 0 0.04 0.69 0 0.06 0.69 0 0.08 0.69 0 0.1 
[...]
			<PointData Scalars="VitesseX">
				<DataArray Name="VitesseX" type="Float32" format="ascii">
 0 2.42841e-14 -1.55716e-14 1.00574e-14 -1.90022e-15 0 0 1.80378e-14 -2.30545e-15 -4.61843e-15 1.36415e-14 0 0 1.58475e-14 6.3871e-15 -6.52208e-15 2.31903e-14 0 0 1.92099e-14 5.37128e-15 1.33449e-14 1.10651e-14 0 0 -5.81253e-15 4.31021e-14 7.74927e-15 3.8691e-15 0 0 -1.43384e-14 6.18297e-14 6.53807e-15 -1.54368e-15 0 0 4.12462e-14 -2.14776e-15 5.76754e-14 -2.71378e-14 0 0 6.56342e-14 -2.2187e-14 7.33425e-14 -3.67585e-14 0 0 5.19979e-14 2.25763e-15 4.6432e-14 -1.79688e-14 0 0 1.88869e-14 4.96667e-14 -7.68197e-15 1.65062e-14 0 0 7.44796e-15 7.03338e-14 -3.82827e-14 2.79821e-14 0 0 3.76512e-14 2.96049e-14 -1.68021e-14 1.5343e-14 0 0 7.16163e-14 -1.53785e-14 2.46549e-14 -8.61058e-15 0 0 6.86381e-14 -2.3835e-15 2.43503e-14 -9.48421e-15 0 0 4.07651e-14 4.17432e-14 -4.31915e-15 8.72687e-16 0 0 7.28127e-14 -1.01555e-14 4.8652e-14 -3.29847e-14 0 0 4.88247e-14 2.28679e-14 1.23197e-14 2.75206e-15 0 0 -4.06174e-15 7.31103e-14 -1.88059e-14 2.56618e-14 0 0 -2.75594e-15 6.8005e-14 -1.98719e-14 4.23173e-14 0 0 1.61919e-14 5.73884e-14 -3.0396e-14 6.13298e-14 0 0 7.20478e-14 -4.56907e-14 7.08839e-14 -9.45584e-15 0 0 9.43937e-14 -7.72248e-14 9.1561e-14 -1.81219e-14 0 0 1.77225e-14 6.10806e-14 -4.94357e-14 6.63236e-14 0 0 -1.13993e-14 1.30501e-13 -1.41354e-13 1.37701e-13 0 0 8.91791e-14 -3.30208e-14 1.90798e-14 5.63697e-14 0 0 1.73467e-13 -1.72666e-13 1.85573e-13 -3.94625e-14 0 0 8.00283e-14 1.04595e-14 3.72273e-15 9.3155e-14 0 0 4.41776e-15 1.27332e-13 -6.96727e-14 1.41247e-13 0 0 4.69669e-14 4.22446e-14 3.77664e-14 8.1839e-14 0 0 8.43608e-14 -2.84189e-14 1.01368e-13 3.58781e-14 0 0 1.10048e-13 -7.2071e-14 1.43323e-13 -7.24463e-15 0 0 6.37097e-14 -3.49041e-16 8.21164e-14 -1.50927e-14 0 0 2.70934e-14 6.79559e-14 1.61267e-15 -4.0792e-15 0 0 2.88102e-14 1.21409e-13 -1.33698e-13 1.00568e-13 0 0 1.04395e-13 -2.30053e-14 3.76361e-15 1.62766e-14 0 0 1.61948e-13 -1.81473e-13 1.59494e-13 -6.38737e-14 0 0 9.92942e-14 -8.60449e-14 2.83991e-14 2.01064e-14 0 0 2.98129e-14 5.95049e-14 -1.31506e-13 1.13626e-13 0 0 -1.02119e-14 1.41497e-13 -1.95264e-13 1.47664e-13 0 0 4.65837e-14 3.10285e-14 -9.48598e-15 -1.51464e-14 0 0 1.20098e-13 -9.51664e-14 1.42284e-13 -1.28085e-13 0 0 9.30169e-14 -4.44162e-14 9.11552e-14 -9.46047e-14 0 0 7.78039e-14 1.91472e-14 -5.45487e-15 2.72792e-15 0 0 1.79704e-13 -8.22094e-14 4.94133e-14 2.8007e-14 0 0 2.7978e-13 -1.63797e-13 1.35562e-13 -3.30528e-14 0 0 1.60411e-13 8.63049e-14 -1.06882e-13 1.02629e-13 0 0 1.56634e-14 2.93791e-13 -2.86758e-13 2.23487e-13 0 0 9.01295e-14 1.6498e-13 -1.75946e-13 1.83359e-13 0 0 2.15566e-13 -8.88381e-15 -5.8241e-14 1.37957e-13 0 0 3.77628e-13 -2.75217e-13 1.40745e-13 6.63859e-14 0 0 5.00021e-13 -5.53808e-13 4.21854e-13 -8.94677e-14 0 0 2.38389e-13 -2.30938e-13 1.78423e-13 -3.8711e-14 0 0 -7.9086e-14 2.65184e-13 -3.17645e-13 2.57357e-13 0 0 1.19195e-14 1.64731e-13 -2.83075e-13 3.07699e-13 0 0 3.09869e-13 -2.58803e-13 6.20513e-14 1.1635e-13 0 0 3.95281e-13 -3.11646e-13 7.78071e-14 7.11318e-14 0 0 2.50083e-13 -1.04172e-14 -2.00547e-13 1.72436e-13 0 0 1.99818e-13 2.14073e-14 -1.64148e-13 7.51444e-14 0 0 2.36995e-13 -3.62909e-14 -8.07149e-14 -5.00375e-14 0 0 2.54473e-13 -5.5368e-14 -7.19949e-14 -4.42018e-14 0 0 2.33379e-13 -6.08626e-14 -6.87773e-14 3.57321e-14 0 0 1.15314e-13 7.83475e-14 -1.41149e-13 1.07606e-13 0 0 1.27211e-13 -4.51239e-14 1.11518e-13 -7.83554e-14 0 0 2.14478e-13 -2.48717e-13 3.45728e-13 -2.12734e-13 0 0 9.84481e-14 -9.45554e-14 2.02996e-13 -1.03643e-13 0 0 -1.2749e-14 8.37414e-14 2.95501e-14 -1.17797e-14 0 0 1.69407e-14 1.28719e-13 -1.07065e-13 8.18744e-14 0 0 1.54916e-13 1.97633e-14 -5.85226e-14 3.22672e-14 0 0 3.32288e-13 -2.38603e-13 2.27532e-13 -2.08307e-13 0 0 2.55993e-13 -9.2173e-14 9.7397e-14 -1.46433e-13 0 0 1.36912e-13 1.5615e-13 -1.6326e-13 5.38336e-14 0 0 3.13397e-13 -2.24657e-14 -9.87342e-14 1.3641e-13 0 0 4.87117e-13 -2.7467e-13 1.23484e-13 1.23668e-13 0 0 5.10733e-13 -2.87809e-13 2.43303e-13 8.19771e-14 0 0 4.0887e-13 5.16424e-14 -3.33191e-14 2.49003e-13 0 0 3.61302e-13 2.82333e-13 -2.7055e-13 3.6971e-13 0 0 4.64824e-13 6.98647e-14 2.185e-14 1.38988e-13 0 0 6.01289e-13 -2.00147e-13 4.00029e-13 -1.08254e-13 0 0 6.37357e-13 -1.31369e-13 2.10393e-13 1.01337e-13 0 0 3.26376e-13 2.45501e-13 3.23718e-14 2.54248e-13 0 0 2.66365e-13 1.8512e-13 4.06087e-13 1.33075e-14 0 0 3.45874e-13 2.8897e-13 1.89877e-13 1.64827e-13 0 0 2.32865e-13 6.90864e-13 -4.43857e-13 6.86213e-13 0 0 3.55721e-13 2.39627e-13 1.59455e-13 4.21797e-13 0 0 3.66244e-13 -4.05799e-13 1.22615e-12 -2.26765e-13 0 0 -1.54555e-13 2.43472e-13 8.14635e-13 -3.02837e-15 0 0 -2.4419e-13 9.41466e-13 -3.65068e-14 5.68497e-13 0 0 2.26611e-13 3.62315e-13 2.73778e-13 5.10624e-13 0 0 4.31603e-13 -1.34421e-13 9.08101e-13 -1.47199e-15 0 0 4.97381e-13 -1.84369e-13 1.14466e-12 -2.88383e-13 0 0 2.81636e-13 1.66735e-13 6.65552e-13 -1.12997e-13 0 0 -3.15974e-13 9.24692e-13 1.16308e-13 -5.53147e-14 0 0 -3.62246e-13 9.63361e-13 -3.69431e-15 -8.6984e-15 0 0 -1.87693e-13 7.09385e-13 6.76775e-14 6.87676e-14 0 0 3.18525e-13 8.66509e-14 3.92273e-13 7.16275e-14 0 0 6.65445e-13 -4.49125e-13 5.66018e-13 1.64571e-13 0 0 6.671e-13 -5.31952e-13 5.32805e-13 3.20708e-13 0 0 4.45615e-13 -3.99328e-13 3.8488e-13 4.52383e-13 0 0 4.94921e-16 -1.95198e-15 1.03501e-13 5.78821e-13 0 0 -2.19641e-13 2.88321e-13 -3.02778e-13 7.31e-13 0 0 -1.9457e-13 3.08802e-13 -5.01687e-13 8.4357e-13 0 0 1.75862e-14 2.09224e-13 -5.03582e-13 8.35385e-13 0 0 2.88505e-13 -3.04287e-14 -4.34377e-13 7.81767e-13 0 0 3.91721e-13 -2.55259e-13 -2.56098e-13 6.59864e-13 0 0 3.89777e-13 -3.47252e-13 1.45073e-14 4.56535e-13 0 0 3.09419e-13 -3.52936e-13 1.87836e-13 3.01415e-13 0 0 1.69212e-13 -2.98409e-13 2.48768e-13 2.40119e-13 0 0 6.44144e-14 -1.83862e-13 2.58276e-13 2.04817e-13 0 0 9.78344e-15 -9.34257e-14 2.57866e-13 1.49389e-13 0 0 -1.38246e-14 -4.0657e-14 2.61006e-13 4.93483e-14 0 0 -1.88747e-15 -3.30165e-14 2.89867e-13 -1.05816e-13 0 0 4.11296e-14 -7.2525e-14 3.081e-13 -2.06324e-13 0 0 6.89524e-14 -1.13493e-13 3.01939e-13 -2.44234e-13 0 0 5.63401e-14 -8.52308e-14 2.06915e-13 -1.93672e-13 0 0 2.37623e-14 -2.57656e-14 4.67926e-14 -6.62801e-14 0 0 1.27127e-14 -2.54611e-14 1.03382e-14 -4.42891e-14 0 0 2.32652e-14 -3.74549e-14 -4.12387e-15 -8.25825e-14 0 0 1.44078e-14 -1.07489e-14 -6.17241e-14 -6.95161e-14 0 0 4.74177e-14 -4.31635e-14 -5.58794e-14 -7.11184e-14 0 0 6.61861e-14 -4.15432e-14 -5.92068e-14 -7.69048e-14 0 0 4.87531e-14 3.16096e-14 -1.2535e-13 1.72295e-14 0 0 1.04646e-13 -3.85851e-14 -6.66971e-14 8.37691e-14 0 0 1.63261e-13 -6.13586e-14 8.56061e-15 6.84993e-14 0 0 1.24928e-13 1.83553e-14 3.12691e-14 9.89625e-14 0 0 8.98967e-14 1.22578e-13 5.8719e-14 1.01895e-13 0 0 9.97129e-14 1.81372e-13 8.95731e-14 2.76781e-14 0 0 2.4297e-13 5.41766e-15 2.774e-13 -1.52337e-13 0 0 4.54469e-13 -2.8482e-13 5.29715e-13 -2.92391e-13 0 0 2.91767e-13 2.73664e-14 1.78552e-13 -1.53406e-15 0 0 1.88493e-13 1.68387e-13 3.54104e-14 6.13451e-14 0 0 1.73827e-13 2.05104e-13 -7.07239e-14 8.7809e-14 0 0 2.36956e-13 1.07416e-13 -4.82066e-14 1.16928e-13 0 0 4.10303e-13 -2.31038e-13 3.01643e-13 -1.19973e-13 0 0 2.39724e-13 -1.98983e-14 8.56895e-14 5.24795e-14 0 0 2.01478e-13 -4.342e-16 8.13252e-14 8.66234e-14 0 0 1.44541e-13 1.15058e-13 -3.48263e-14 1.29338e-13 0 0 1.71986e-13 8.2874e-14 2.85621e-14 1.32198e-13 0 0 3.91035e-13 -2.66839e-13 4.60819e-13 -1.13248e-13 0 0 1.39629e-13 1.52703e-13 6.78898e-14 1.43445e-13 0 0 8.39805e-14 2.97041e-13 -2.2746e-14 1.8272e-13 0 0 2.04869e-13 1.73788e-13 1.07595e-13 1.34515e-13 0 0 5.4963e-14 4.81517e-13 -2.75e-13 4.67223e-13 0 0 4.79222e-13 -1.55428e-13 3.66637e-13 9.62606e-14 0 0 6.32841e-13 -3.86468e-13 6.43435e-13 -7.62765e-14 0 0 6.69427e-14 5.08992e-13 -1.03562e-13 2.6503e-13 0 0 9.32258e-14 4.19754e-13 1.43401e-13 -3.93761e-14 0 0 1.90354e-13 2.48889e-13 2.17419e-13 -8.11197e-14 0 0 4.31958e-13 -1.53551e-13 4.96087e-13 -2.09116e-13 0 0 5.70479e-13 -3.31713e-13 5.93769e-13 -2.19759e-13 0 0 9.03018e-14 5.33861e-13 -2.25381e-13 1.43785e-13 0 0 3.27852e-13 2.0737e-13 2.57647e-13 -3.88386e-13 0 0 4.66379e-13 3.31468e-14 3.02461e-13 -2.68154e-13 0 0 4.70154e-13 3.04058e-14 1.96392e-13 -1.56635e-14 0 0 4.33209e-13 -1.48126e-14 3.50293e-13 -1.39869e-13 0 0 1.62848e-13 2.67277e-13 3.11886e-14 8.89336e-14 0 0 3.70708e-14 3.66923e-13 -1.07134e-13 1.47978e-13 0 0 3.00722e-13 -7.39986e-14 2.67949e-13 -1.01001e-13 0 0 6.67238e-13 -6.65622e-13 6.813e-13 -1.89174e-13 0 0 2.23323e-13 -7.81021e-14 8.31769e-14 3.26558e-13 0 0 -2.84022e-13 5.58691e-13 -3.80605e-13 5.91902e-13 0 0 -4.04707e-13 6.38988e-13 -2.62381e-13 3.88224e-13 0 0 2.66133e-13 -5.26093e-13 8.48737e-13 -2.12807e-13 0 0 5.76043e-13 -1.09434e-12 1.21405e-12 -1.94639e-13 0 0 -8.87378e-14 -7.56555e-14 1.81359e-13 4.46016e-13 0 0 -3.53038e-13 3.85745e-13 -2.00032e-13 5.22317e-13 0 0 -1.76933e-13 1.68069e-13 -2.60518e-14 4.51013e-13 0 0 6.80365e-14 -2.91897e-13 3.6044e-13 3.73701e-13 0 0 1.41651e-14 -4.39483e-13 8.03153e-13 -1.8863e-14 0 0 -4.38519e-13 2.08462e-13 3.25336e-13 1.76592e-13 0 0 -1.09022e-13 -1.42026e-13 3.43951e-13 3.84835e-13 0 0 2.63889e-13 -5.74964e-13 5.25423e-13 3.69074e-13 0 0 -1.46026e-13 9.30412e-14 -2.61787e-13 8.21906e-13 0 0 1.98557e-15 -2.58264e-13 6.72621e-14 6.02428e-13 0 0 8.51534e-14 -3.63556e-13 2.38922e-13 3.7802e-13 0 0 1.53643e-13 -4.25347e-13 2.4729e-13 2.7616e-13 0 0 1.19216e-13 -4.16669e-13 3.31424e-13 7.61856e-14 0 0 -3.61179e-13 3.49879e-13 -3.63006e-13 4.26712e-13 0 0 -1.02798e-13 -2.18224e-14 -1.08524e-13 2.45744e-13 0 0 9.34368e-14 -3.17527e-13 1.97444e-13 -9.26731e-14 0 0 2.65833e-13 -5.83713e-13 4.27588e-13 -2.59354e-13 0 0 1.77302e-13 -4.15611e-13 2.73282e-13 -1.97829e-13 0 0 -5.07073e-13 5.18128e-13 -3.95881e-13 1.09553e-13 0 0 -3.27436e-13 1.70594e-13 -3.10876e-14 -4.6577e-14 0 0 1.43782e-13 -2.56626e-13 8.30315e-14 1.46443e-13 0 0 3.81746e-13 -5.42036e-13 2.7589e-13 1.90462e-13 0 0 6.37282e-14 -3.02497e-13 2.40392e-13 8.98713e-14 0 0 -3.64646e-13 2.99576e-13 -2.36373e-13 2.60932e-13 0 0 9.60199e-14 -1.91483e-13 2.42068e-13 -1.70634e-13 0 0 4.18916e-13 -3.21126e-13 1.67182e-13 -1.97963e-13 0 0 7.90842e-13 -7.80569e-13 4.84879e-13 -4.13159e-13 0 0 3.69734e-13 -3.18135e-13 3.43488e-13 -4.98256e-13 0 0 -5.24046e-13 1.05818e-12 -9.7827e-13 4.16236e-13 0 0 4.98176e-13 -4.23271e-13 2.99484e-13 -1.74041e-13 0 0 1.16277e-12 -1.34509e-12 1.22834e-12 -7.78058e-13 0 0 3.27263e-13 -7.05104e-15 -5.75049e-14 -8.12461e-14 0 0 -2.79207e-13 7.51252e-13 -6.48136e-13 1.96073e-13 0 0 -2.74602e-13 6.27903e-13 -5.05721e-13 2.0025e-13 0 0 8.71765e-13 -1.11216e-12 1.03259e-12 -4.73186e-13 0 0 1.00828e-12 -1.04712e-12 8.62974e-13 -2.65801e-13 0 0 -1.92172e-13 1.01283e-12 -1.01204e-12 6.83753e-13 0 0 -5.70563e-13 1.55192e-12 -1.35097e-12 7.38999e-13 0
				</DataArray>
				<DataArray Name="VitesseY" type="Float32" format="ascii">