<?xml version="1.0"?>
<VTKFile type="PolyData">
	<PolyData>
		<Piece NumberOfPoints="1206" NumberOfPolys="1000">
			<Points>
				<DataArray type="Float32" NumberOfComponents="3" format="ascii">
 0 0 0 0.02 0 0 0.04 0 0 0.06 0 0 0.08 0 0 0.1 0 0 0 0.005 0 0.02 0.005 0 0.04 0.005 0 0.06 0.005 0 0.08 0.005 0 0.1 0.005 0 0 0.01 0 0.02 0.01 0 0.04 0.01 0 0.06 0.01 0 0.08 0.01 0 0.1 0.01 0 0 0.015 0 0.02 0.015 0 0.04 0.015 0 0.06 0.015 0 0.08 0.015 0 0.1 0.015 0 0 0.02 0 0.02 0.02 0 0.04 0.02 0 0.06 0.02 0 0.08 0.02 0 0.1 0.02 0 0 0.025 0 0.02 0.025 0 0.04 0.025 0 0.06 0.025 0 0.08 0.025 0 0.1 0.025 0 0 0.03 0 0.02 0.03 0 0.04 0.03 0 0.06 0.03 0 0.08 0.03 0 0.1 0.03 0 0 0.035 0 0.02 0.035 0 0.04 0.035 0 0.06 0.035 0 0.08 0.035 0 0.1 0.035 0 0 0.04 0 0.02 0.04 0 0.04 0.04 0 0.06 0.04 0 0.08 0.04 0 0.1 0.04 0 0 0.045 0 0.02 0.045 0 0.04 0.045 0 0.06 0.045 0 0.08 0.045 0 0.1 0.045 0 0 0.05 0 0.02 0.05 0 0.04 0.05 0 0.06 0.05 0 0.08 0.05 0 0.1 0.05 0 0 0.055 0 0.02 0.055 0 0.04 0.055 0 0.06 0.055 0 0.08 0.055 0 0.1 0.055 0 0 0.06 0 0.02 0.06 0 0.04 0.06 0 0.06 0.06 0 0.08 0.06 0 0.1 0.06 0 0 0.065 0 0.02 0.065 0 0.04 0.065 0 0.06 0.065 0 0.08 0.065 0 0.1 0.065 0 0 0.07 0 0.02 0.07 0 0.04 0.07 0 0.06 0.07 0 0.08 0.07 0 0.1 0.07 0 0 0.075 0 0.02 0.075 0 0.04 0.075 0 0.06 0.075 0 0.08 0.075 0 0.1 0.075 0 0 0.08 0 0.02 0.08 0 0.04 0.08 0 0.06 0.08 0 0.08 0.08 0 0.1 0.08 0 0 0.085 0 0.02 0.085 0 0.04 0.085 0 0.06 0.085 0 0.08 0.085 0 0.1 0.085 0 0 0.09 0 0.02 0.09 0 0.04 0.09 0 0.06 0.09 0 0.08 0.09 0 0.1 0.09 0 0 0.095 0 0.02 0.095 0 0.04 0.095 0 0.06 0.095 0 0.08 0.095 0 0.1 0.095 0 0 0.1 0 0.02 0.1 0 0.04 0.1 0 0.06 0.1 0 0.08 0.1 0 0.1 0.1 0 0 0.105 0 0.02 0.105 0 0.04 0.105 0 0.06 0.105 0 0.08 0.105 0 0.1 0.105 0 0 0.11 0 0.02 0.11 0 0.04 0.11 0 0.06 0.11 0 0.08 0.11 0 0.1 0.11 0 0 0.115 0 0.02 0.115 0 0.04 0.115 0 0.06 0.115 0 0.08 0.115 0 0.1 0.115 0 0 0.12 0 0.02 0.12 0 0.04 0.12 0 0.06 0.12 0 0.08 0.12 0 0.1 0.12 0 0 0.125 0 0.02 0.125 0 0.04 0.125 0 0.06 0.125 0 0.08 0.125 0 0.1 0.125 0 0 0.13 0 0.02 0.13 0 0.04 0.13 0 0.06 0.13 0 0.08 0.13 0 0.1 0.13 0 0 0.135 0 0.02 0.135 0 0.04 0.135 0 0.06 0.135 0 0.08 0.135 0 0.1 0.135 0 0 0.14 0 0.02 0.14 0 0.04 0.14 0 0.06 0.14 0 0.08 0.14 0 0.1 0.14 0 0 0.145 0 0.02 0.145 0 0.04 0.145 0 0.06 0.145 0 0.08 0.145 0 0.1 0.145 0 0 0.15 0 0.02 0.15 0 0.04 0.15 0 0.06 0.15 0 0.08 0.15 0 0.1 0.15 0 0 0.155 0 0.02 0.155 0 0.04 0.155 0 0.06 0.155 0 0.08 0.155 0 0.1 0.155 0 0 0.16 0 0.02 0.16 0 0.04 0.16 0 0.06 0.16 0 0.08 0.16 0 0.1 0.16 0 0 0.165 0 0.02 0.165 0 0.04 0.165 0 0.06 0.165 0 0.08 0.165 0 0.1 0.165 0 0 0.17 0 0.02 0.17 0 0.04 0.17 0 0.06 0.17 0 0.08 0.17 0 0.1 0.17 0 0 0.175 0 0.02 0.175 0 0.04 0.175 0 0.06 0.175 0 0.08 0.175 0 0.1 0.175 0 0 0.18 0 0.02 0.18 0 0.04 0.18 0 0.06 0.18 0 0.08 0.18 0 0.1 0.18 0 0 0.185 0 0.02 0.185 0 0.04 0.185 0 0.06 0.185 0 0.08 0.185 0 0.1 0.185 0 0 0.19 0 0.02 0.19 0 0.04 0.19 0 0.06 0.19 0 0.08 0.19 0 0.1 0.19 0 0 0.195 0 0.02 0.195 0 0.04 0.195 0 0.06 0.195 0 0.08 0.195 0 0.1 0.195 0 0 0.2 0 0.02 0.2 0 0.04 0.2 0 0.06 0.2 0 0.08 0.2 0 0.1 0.2 0 0 0.205 0 0.02 0.205 0 0.04 0.205 0 0.06 0.205 0 0.08 0.205 0 0.1 0.205 0 0 0.21 0 0.02 0.21 0 0.04 0.21 0 0.06 0.21 0 0.08 0.21 0 0.1 0.21 0 0 0.215 0 0.02 0.215 0 0.04 0.215 0 0.06 0.215 0 0.08 0.215 0 0.1 0.215 0 0 0.22 0 0.02 0.22 0 0.04 0.22 0 0.06 0.22 0 0.08 0.22 0 0.1 0.22 0 0 0.225 0 0.02 0.225 0 0.04 0.225 0 0.06 0.225 0 0.08 0.225 0 0.1 0.225 0 0 0.23 0 0.02 0.23 0 0.04 0.23 0 0.06 0.23 0 0.08 0.23 0 0.1 0.23 0 0 0.235 0 0.02 0.235 0 0.04 0.235 0 0.06 0.235 0 0.08 0.235 0 0.1 0.235 0 0 0.24 0 0.02 0.24 0 0.04 0.24 0 0.06 0.24 0 0.08 0.24 0 0.1 0.24 0 0 0.245 0 0.02 0.245 0 0.04 0.245 0 0.06 0.245 0 0.08 0.245 0 0.1 0.245 0 0 0.25 0 0.02 0.25 0 0.04 0.25 0 0.06 0.25 0 0.08 0.25 0 0.1 0.25 0 0 0.255 0 0.02 0.255 0 0.04 0.255 0 0.06 0.255 0 0.08 0.255 0 0.1 0.255 0 0 0.26 0 0.02 0.26 0 0.04 0.26 0 0.06 0.26 0 0.08 0.26 0 0.1 0.26 0 0 0.265 0 0.02 0.265 0 0.04 0.265 0 0.06 0.265 0 0.08 0.265 0 0.1 0.265 0 0 0.27 0 0.02 0.27 0 0.04 0.27 0 0.06 0.27 0 0.08 0.27 0 0.1 0.27 0 0 0.275 0 0.02 0.275 0 0.04 0.275 0 0.06 0.275 0 0.08 0.275 0 0.1 0.275 0 0 0.28 0 0.02 0.28 0 0.04 0.28 0 0.06 0.28 0 0.08 0.28 0 0.1 0.28 0 0 0.285 0 0.02 0.285 0 0.04 0.285 0 0.06 0.285 0 0.08 0.285 0 0.1 0.285 0 0 0.29 0 0.02 0.29 0 0.04 0.29 0 0.06 0.29 0 0.08 0.29 0 0.1 0.29 0 0 0.295 0 0.02 0.295 0 0.04 0.295 0 0.06 0.295 0 0.08 0.295 0 0.1 0.295 0 0 0.3 0 0.02 0.3 0 0.04 0.3 0 0.06 0.3 0 0.08 0.3 0 0.1 0.3 0 0 0.305 0 0.02 0.305 0 0.04 0.305 0 0.06 0.305 0 0.08 0.305 0 0.1 0.305 0 0 0.31 0 0.02 0.31 0 0.04 0.31 0 0.06 0.31 0 0.08 0.31 0 0.1 0.31 0 0 0.315 0 0.02 0.315 0 0.04 0.315 0 0.06 0.315 0 0.08 0.315 0 0.1 0.315 0 0 0.32 0 0.02 0.32 0 0.04 0.32 0 0.06 0.32 0 0.08 0.32 0 0.1 0.32 0 0 0.325 0 0.02 0.325 0 0.04 0.325 0 0.06 0.325 0 0.08 0.325 0 0.1 0.325 0 0 0.33 0 0.02 0.33 0 0.04 0.33 0 0.06 0.33 0 0.08 0.33 0 0.1 0.33 0 0 0.335 0 0.02 0.335 0 0.04 0.335 0 0.06 0.335 0 0.08 0.335 0 0.1 0.335 0 0 0.34 0 0.02 0.34 0 0.04 0.34 0 0.06 0.34 0 0.08 0.34 0 0.1 0.34 0 0 0.345 0 0.02 0.345 0 0.04 0.345 0 0.06 0.345 0 0.08 0.345 0 0.1 0.345 0 0 0.35 0 0.02 0.35 0 0.04 0.35 0 0.06 0.35 0 0.08 0.35 0 0.1 0.35 0 0 0.355 0 0.02 0.355 0 0.04 0.355 0 0.06 0.355 0 0.08 0.355 0 0.1 0.355 0 0 0.36 0 0.02 0.36 0 0.04 0.36 0 0.06 0.36 0 0.08 0.36 0 0.1 0.36 0 0 0.365 0 0.02 0.365 0 0.04 0.365 0 0.06 0.365 0 0.08 0.365 0 0.1 0.365 0 0 0.37 0 0.02 0.37 0 0.04 0.37 0 0.06 0.37 0 0.08 0.37 0 0.1 0.37 0 0 0.375 0 0.02 0.375 0 0.04 0.375 0 0.06 0.375 0 0.08 0.375 0 0.1 0.375 0 0 0.38 0 0.02 0.38 0 0.04 0.38 0 0.06 0.38 0 0.08 0.38 0 0.1 0.38 0 0 0.385 0 0.02 0.385 0 0.04 0.385 0 0.06 0.385 0 0.08 0.385 0 0.1 0.385 0 0 0.39 0 0.02 0.39 0 0.04 0.39 0 0.06 0.39 0 0.08 0.39 0 0.1 0.39 0 0 0.395 0 0.02 0.395 0 0.04 0.395 0 0.06 0.395 0 0.08 0.395 0 0.1 0.395 0 0 0.4 0 0.02 0.4 0 0.04 0.4 0 0.06 0.4 0 0.08 0.4 0 0.1 0.4 0 0 0.405 0 0.02 0.405 0 0.04 0.405 0 0.06 0.405 0 0.08 0.405 0 0.1 0.405 0 0 0.41 0 0.02 0.41 0 0.04 0.41 0 0.06 0.41 0 0.08 0.41 0 0.1 0.41 0 0 0.415 0 0.02 0.415 0 0.04 0.415 0 0.06 0.415 0 0.08 0.415 0 0.1 0.415 0 0 0.42 0 0.02 0.42 0 0.04 0.42 0 0.06 0.42 0 0.08 0.42 0 0.1 0.42 0 0 0.425 0 0.02 0.425 0 0.04 0.425 0 0.06 0.425 0 0.08 0.425 0 0.1 0.425 0 0 0.43 0 0.02 0.43 0 0.04 0.43 0 0.06 0.43 0 0.08 0.43 0 0.1 0.43 0 0 0.435 0 0.02 0.435 0 0.04 0.435 0 0.06 0.435 0 0.08 0.435 0 0.1 0.435 0 0 0.44 0 0.02 0.44 0 0.04 0.44 0 0.06 0.44 0 0.08 0.44 0 0.1 0.44 0 0 0.445 0 0.02 0.445 0 0.04 0.445 0 0.06 0.445 0 0.08 0.445 0 0.1 0.445 0 0 0.45 0 0.02 0.45 0 0.04 0.45 0 0.06 0.45 0 0.08 0.45 0 0.1 0.45 0 0 0.455 0 0.02 0.455 0 0.04 0.455 0 0.06 0.455 0 0.08 0.455 0 0.1 0.455 0 0 0.46 0 0.02 0.46 0 0.04 0.46 0 0.06 0.46 0 0.08 0.46 0 0.1 0.46 0 0 0.465 0 0.02 0.465 0 0.04 0.465 0 0.06 0.465 0 0.08 0.465 0 0.1 0.465 0 0 0.47 0 0.02 0.47 0 0.04 0.47 0 0.06 0.47 0 0.08 0.47 0 0.1 0.47 0 0 0.475 0 0.02 0.475 0 0.04 0.475 0 0.06 0.475 0 0.08 0.475 0 0.1 0.475 0 0 0.48 0 0.02 0.48 0 0.04 0.48 0 0.06 0.48 0 0.08 0.48 0 0.1 0.48 0 0 0.485 0 0.02 0.485 0 0.04 0.485 0 0.06 0.485 0 0.08 0.485 0 0.1 0.485 0 0 0.49 0 0.02 0.49 0 0.04 0.49 0 0.06 0.49 0 0.08 0.49 0 0.1 0.49 0 0 0.495 0 0.02 0.495 0 0.04 0.495 0 0.06 0.495 0 0.08 0.495 0 0.1 0.495 0 0 0.5 0 0.02 0.5 0 0.04 0.5 0 0.06 0.5 0 0.08 0.5 0 0.1 0.5 0 0 0.505 0 0.02 0.505 0 0.04 0.505 0 0.06 0.505 0 0.08 0.505 0 0.1 0.505 0 0 0.51 0 0.02 0.51 0 0.04 0.51 0 0.06 0.51 0 0.08 0.51 0 0.1 0.51 0 0 0.515 0 0.02 0.515 0 0.04 0.515 0 0.06 0.515 0 0.08 0.515 0 0.1 0.515 0 0 0.52 0 0.02 0.52 0 0.04 0.52 0 0.06 0.52 0 0.08 0.52 0 0.1 0.52 0 0 0.525 0 0.02 0.525 0 0.04 0.525 0 0.06 0.525 0 0.08 0.525 0 0.1 0.525 0 0 0.53 0 0.02 0.53 0 0.04 0.53 0 0.06 0.53 0 0.08 0.53 0 0.1 0.53 0 0 0.535 0 0.02 0.535 0 0.04 0.535 0 0.06 0.535 0 0.08 0.535 0 0.1 0.535 0 0 0.54 0 0.02 0.54 0 0.04 0.54 0 0.06 0.54 0 0.08 0.54 0 0.1 0.54 0 0 0.545 0 0.02 0.545 0 0.04 0.545 0 0.06 0.545 0 0.08 0.545 0 0.1 0.545 0 0 0.55 0 0.02 0.55 0 0.04 0.55 0 0.06 0.55 0 0.08 0.55 0 0.1 0.55 0 0 0.555 0 0.02 0.555 0 0.04 0.555 0 0.06 0.555 0 0.08 0.555 0 0.1 0.555 0 0 0.56 0 0.02 0.56 0 0.04 0.56 0 0.06 0.56 0 0.08 0.56 0 0.1 0.56 0 0 0.565 0 0.02 0.565 0 0.04 0.565 0 0.06 0.565 0 0.08 0.565 0 0.1 0.565 0 0 0.57 0 0.02 0.57 0 0.04 0.57 0 0.06 0.57 0 0.08 0.57 0 0.1 0.57 0 0 0.575 0 0.02 0.575 0 0.04 0.575 0 0.06 0.575 0 0.08 0.575 0 0.1 0.575 0 0 0.58 0 0.02 0.58 0 0.04 0.58 0 0.06 0.58 0 0.08 0.58 0 0.1 0.58 0 0 0.585 0 0.02 0.585 0 0.04 0.585 0 0.06 0.585 0 0.08 0.585 0 0.1 0.585 0 0 0.59 0 0.02 0.59 0 0.04 0.59 0 0.06 0.59 0 0.08 0.59 0 0.1 0.59 0 0 0.595 0 0.02 0.595 0 0.04 0.595 0 0.06 0.595 0 0.08 0.595 0 0.1 0.595 0 0 0.6 0 0.02 0.6 0 0.04 0.6 0 0.06 0.6 0 0.08 0.6 0 0.1 0.6 0 0 0.605 0 0.02 0.605 0 0.04 0.605 0 0.06 0.605 0 0.08 0.605 0 0.1 0.605 0 0 0.61 0 0.02 0.61 0 0.04 0.61 0 0.06 0.61 0 0.08 0.61 0 0.1 0.61 0 0 0.615 0 0.02 0.615 0 0.04 0.615 0 0.06 0.615 0 0.08 0.615 0 0.1 0.615 0 0 0.62 0 0.02 0.62 0 0.04 0.62 0 0.06 0.62 0 0.08 0.62 0 0.1 0.62 0 0 0.625 0 0.02 0.625 0 0.04 0.625 0 0.06 0.625 0 0.08 0.625 0 0.1 0.625 0 0 0.63 0 0.02 0.63 0 0.04 0.63 0 0.06 0.63 0 0.08 0.63 0 0.1 0.63 0 0 0.635 0 0.02 0.635 0 0.04 0.635 0 0.06 0.635 0 0.08 0.635 0 0.1 0.635 0 0 0.64 0 0.02 0.64 0 0.04 0.64 0 0.06 0.64 0 0.08 0.64 0 0.1 0.64 0 0 0.645 0 0.02 0.645 0 0.04 0.645 0 0.06 0.645 0 0.08 0.645 0 0.1 0.645 0 0 0.65 0 0.02 0.65 0 0.04 0.65 0 0.06 0.65 0 0.08 0.65 0 0.1 0.65 0 0 0.655 0 0.02 0.655 0 0.04 0.655 0 0.06 0.655 0 0.08 0.655 0 0.1 0.655 0 0 0.66 0 0.02 0.66 0 0.04 0.66 0 0.06 0.66 0 0.08 0.66 0 0.1 0.66 0 0 0.665 0 0.02 0.665 0 0.04 0.665 0 0.06 0.665 0 0.08 0.665 0 0.1 0.665 0 0 0.67 0 0.02 0.67 0 0.04 0.67 0 0.06 0.67 0 0.08 0.67 0 0.1 0.67 0 0 0.675 0 0.02 0.675 0 0.04 0.675 0 0.06 0.675 0 0.08 0.675 0 0.1 0.675 0 0 0.68 0 0.02 0.68 0 0.04 0.68 0 0.06 0.68 0 0.08 0.68 0 0.1 0.68 0 0 0.685 0 0.02 0.685 0 0.04 0.685 0 0.06 0.685 0 0.08 0.685 0 0.1 0.685 0 0 0.69 0 0.02 0.69 0 0.04 0.69 0 0.06 0.69 0 0.08 0.69 0 0.1 
[...]
			<PointData Scalars="VitesseX">
				<DataArray Name="VitesseX" type="Float32" format="ascii">
 0 4.75866e-15 5.55602e-14 4.66778e-14 1.76881e-16 0 0 1.62188e-14 4.38119e-14 4.60891e-14 4.71573e-15 0 0 2.74484e-14 3.59775e-14 2.88014e-14 2.30189e-14 0 0 3.91974e-14 1.55087e-14 2.83769e-14 2.71126e-14 0 0 3.65515e-14 7.3793e-15 2.61711e-14 2.59474e-14 0 0 1.5214e-14 2.58168e-14 5.99195e-15 3.39163e-14 0 0 5.54101e-16 4.03516e-14 -6.43186e-15 3.6822e-14 0 0 2.62981e-15 3.21292e-14 7.76337e-15 2.58673e-14 0 0 6.66837e-15 2.48506e-14 1.36898e-14 2.47831e-14 0 0 7.48858e-15 2.6507e-14 5.52553e-15 2.82724e-14 0 0 2.27261e-14 -8.95974e-15 5.41787e-14 -1.19268e-14 0 0 -1.47906e-15 1.72642e-14 3.89082e-14 -2.4646e-15 0 0 7.71863e-15 3.83284e-16 5.15922e-14 -1.83344e-15 0 0 1.01372e-14 1.76739e-15 5.49541e-14 -1.06557e-14 0 0 -6.31993e-15 4.09959e-14 1.02678e-14 2.64183e-14 0 0 -3.26639e-16 3.74159e-14 1.59683e-14 3.96664e-14 0 0 1.06275e-14 1.33048e-14 5.63402e-14 3.68272e-14 0 0 3.88354e-14 -2.14742e-14 9.94179e-14 3.74825e-14 0 0 2.11091e-14 5.19364e-14 2.42427e-14 8.52925e-14 0 0 2.21281e-14 9.04143e-14 -1.45666e-14 9.65996e-14 0 0 3.17232e-14 6.27763e-14 4.91554e-14 3.54759e-14 0 0 3.71464e-14 5.26662e-14 6.94641e-14 1.77709e-14 0 0 6.72877e-14 3.18482e-14 9.20684e-14 -2.68446e-14 0 0 7.27938e-14 8.57725e-15 1.5162e-13 -1.00947e-13 0 0 1.94427e-14 6.80066e-14 1.1245e-13 -8.14383e-14 0 0 -9.23153e-15 1.27238e-13 2.74932e-14 -2.8093e-14 0 0 1.67589e-14 9.0907e-14 3.34318e-14 -1.5208e-14 0 0 1.76372e-14 5.67951e-14 8.06859e-14 -3.44226e-14 0 0 2.28481e-14 4.52697e-14 7.9191e-14 -2.40756e-14 0 0 6.26719e-14 2.52159e-15 9.32571e-14 -3.38044e-14 0 0 3.44018e-14 3.30385e-14 8.40899e-14 -3.85906e-14 0 0 -4.15141e-15 8.47634e-14 4.21182e-14 -1.28184e-14 0 0 3.73166e-14 4.8176e-14 6.38838e-14 -1.49229e-14 0 0 6.95713e-14 9.73578e-15 1.34043e-13 -6.64183e-14 0 0 8.13128e-17 1.1111e-13 6.86964e-14 -2.99151e-14 0 0 -5.71777e-14 2.24777e-13 -5.83156e-14 9.84727e-14 0 0 2.83408e-14 1.33631e-13 2.50576e-14 9.06056e-14 0 0 6.90146e-14 7.61594e-14 1.22732e-13 3.4477e-14 0 0 1.1745e-13 -8.06639e-15 2.16748e-13 -1.93355e-14 0 0 7.04728e-14 8.00571e-14 9.62047e-14 7.13214e-14 0 0 1.32213e-14 1.58117e-13 -1.01406e-14 1.50772e-13 0 0 2.18126e-14 9.16192e-14 1.03424e-13 3.32888e-14 0 0 -7.55137e-14 2.07108e-13 6.04621e-14 -8.54984e-16 0 0 -1.34644e-13 2.49583e-13 3.66227e-14 1.40398e-14 0 0 -8.95707e-14 1.49828e-13 1.31137e-13 -2.35743e-14 0 0 -4.75555e-15 -8.21547e-15 2.91088e-13 -1.10704e-13 0 0 5.29532e-14 -1.13103e-13 3.98435e-13 -1.81579e-13 0 0 7.66083e-15 4.52974e-15 2.69921e-13 -1.18358e-13 0 0 -1.39534e-13 2.26391e-13 9.55982e-14 -3.21704e-14 0 0 -1.97372e-13 3.01471e-13 2.59689e-14 2.81468e-14 0 0 -1.81545e-13 2.91533e-13 -2.04275e-14 8.81234e-14 0 0 -1.11264e-13 2.34973e-13 2.68346e-14 5.41036e-14 0 0 -6.97614e-14 2.37352e-13 1.48771e-14 8.63309e-14 0 0 -2.50128e-14 1.00908e-13 1.97811e-13 1.62576e-14 0 0 -1.51866e-13 2.27733e-13 1.52951e-13 7.36582e-14 0 0 -2.45841e-13 3.91556e-13 -1.46907e-14 2.22489e-13 0 0 -5.16497e-14 1.06215e-13 2.30105e-13 9.8231e-14 0 0 9.31119e-16 5.01288e-14 2.26301e-13 1.31803e-13 0 0 -3.42983e-14 1.42365e-13 1.10239e-13 1.8531e-13 0 0 -6.00694e-14 2.45904e-13 1.50513e-14 1.38111e-13 0 0 -4.68671e-14 2.6265e-13 -6.95388e-15 7.90968e-14 0 0 4.4075e-14 1.02366e-13 1.93279e-13 -6.23993e-14 0 0 -5.95653e-15 2.50337e-13 5.82731e-14 2.43073e-14 0 0 4.24434e-14 2.75107e-13 -2.90957e-14 1.44726e-13 0 0 1.16205e-13 1.66959e-13 4.98945e-14 2.1069e-13 0 0 2.52353e-14 2.76605e-13 1.26438e-14 2.7848e-13 0 0 1.57045e-13 5.41649e-14 2.99995e-13 1.08472e-13 0 0 7.1527e-14 1.71102e-13 2.4332e-13 1.78372e-13 0 0 -6.75983e-14 4.52026e-13 -2.19585e-14 3.52055e-13 0 0 3.36973e-14 2.96226e-13 1.71653e-13 1.85875e-13 0 0 -6.71278e-14 3.20672e-13 2.4443e-13 1.16522e-13 0 0 -8.45058e-14 2.22422e-13 3.8401e-13 9.39109e-14 0 0 -2.63157e-13 4.05752e-13 2.92951e-13 2.06754e-13 0 0 -3.76447e-13 4.69109e-13 3.85279e-13 1.48023e-13 0 0 -3.11554e-13 3.76762e-13 4.55267e-13 1.78916e-13 0 0 -1.45506e-13 2.30679e-13 4.56763e-13 2.04061e-13 0 0 -2.5529e-15 2.56016e-14 6.92237e-13 -1.17131e-13 0 0 -3.39669e-13 6.49423e-13 7.71848e-14 2.259e-13 0 0 -1.832e-13 3.95052e-13 1.66347e-13 3.88635e-13 0 0 -2.58935e-13 3.73543e-13 2.92627e-13 4.0997e-13 0 0 -3.50881e-13 5.99164e-13 3.56504e-13 2.17108e-13 0 0 2.29634e-13 1.56328e-14 9.12593e-13 -2.48615e-13 0 0 4.00204e-13 1.78173e-13 5.50324e-13 -1.12152e-14 0 0 3.32778e-13 4.53691e-13 7.46932e-14 3.547e-13 0 0 4.53705e-13 4.97111e-13 -4.62189e-14 3.56327e-13 0 0 4.1838e-13 4.81574e-13 1.53149e-13 3.83253e-14 0 0 3.57465e-13 5.8009e-13 1.55952e-13 -1.37864e-13 0 0 3.71355e-13 6.02652e-13 1.97146e-13 -2.53378e-13 0 0 4.71266e-13 5.17062e-13 2.40515e-13 -1.99578e-13 0 0 4.21693e-13 6.15006e-13 1.69388e-13 -8.19916e-14 0 0 3.20341e-13 8.34683e-13 -8.46052e-14 2.01647e-13 0 0 3.71016e-13 8.26051e-13 -2.03709e-13 4.1064e-13 0 0 4.54071e-13 7.64425e-13 -1.50213e-13 3.8922e-13 0 0 5.38424e-13 6.22909e-13 5.98466e-14 2.24635e-13 0 0 6.67036e-13 3.49754e-13 3.332e-13 7.43366e-14 0 0 6.64268e-13 2.22349e-13 4.31772e-13 6.80316e-14 0 0 6.20119e-13 2.29519e-13 4.15873e-13 1.61559e-13 0 0 5.14456e-13 3.23386e-13 3.14721e-13 2.83834e-13 0 0 3.177e-13 5.34678e-13 1.54554e-13 3.01095e-13 0 0 1.35465e-13 6.88805e-13 1.15982e-13 2.46384e-13 0 0 8.66686e-14 7.1024e-13 1.41242e-13 1.09079e-13 0 0 1.04535e-13 6.61083e-13 2.20762e-13 -1.6695e-14 0 0 1.91422e-13 5.22115e-13 3.42559e-13 -1.04479e-13 0 0 3.0568e-13 3.50835e-13 4.43972e-13 -1.58256e-13 0 0 3.36475e-13 2.78065e-13 5.05726e-13 -1.71408e-13 0 0 3.01999e-13 2.73743e-13 5.54466e-13 -1.64898e-13 0 0 1.77747e-13 2.87139e-13 6.12022e-13 -1.74166e-13 0 0 6.64802e-15 3.02227e-13 7.06128e-13 -2.11652e-13 0 0 -9.3459e-14 2.99066e-13 7.43084e-13 -2.22288e-13 0 0 -1.25743e-13 2.91882e-13 7.11496e-13 -1.66251e-13 0 0 -1.10244e-13 3.01858e-13 6.26742e-13 -5.35099e-14 0 0 -6.61893e-14 3.22946e-13 5.05155e-13 6.99885e-14 0 0 -1.56616e-14 3.59483e-13 3.2759e-13 2.47671e-13 0 0 3.08779e-14 4.07482e-13 1.25145e-13 4.15874e-13 0 0 4.78055e-14 4.58998e-13 4.86632e-14 4.93908e-13 0 0 5.13117e-14 4.47229e-13 6.10467e-14 4.92846e-13 0 0 6.51092e-14 3.60067e-13 1.72486e-13 4.30212e-13 0 0 6.78318e-14 2.42722e-13 3.6451e-13 3.14977e-13 0 0 4.5471e-14 2.19049e-13 4.05934e-13 2.8048e-13 0 0 2.40355e-14 2.05615e-13 3.89042e-13 3.18031e-13 0 0 4.54997e-14 1.60934e-13 4.03772e-13 3.14116e-13 0 0 7.85532e-14 1.72511e-13 3.43096e-13 2.98031e-13 0 0 8.4512e-14 1.95629e-13 2.70255e-13 2.86022e-13 0 0 1.02855e-13 1.79148e-13 2.86489e-13 1.98862e-13 0 0 1.01514e-13 1.86155e-13 2.76966e-13 1.66501e-13 0 0 9.85805e-14 2.0747e-13 2.04502e-13 1.99309e-13 0 0 1.04086e-13 1.93006e-13 1.87535e-13 1.74483e-13 0 0 9.00713e-14 1.97082e-13 2.04332e-13 1.03148e-13 0 0 5.30782e-14 2.53612e-13 1.68024e-13 8.62119e-14 0 0 6.00271e-14 2.54188e-13 1.52736e-13 8.20813e-14 0 0 9.79e-14 1.85908e-13 2.50934e-13 9.09635e-14 0 0 1.3477e-13 1.75581e-13 3.1825e-13 8.92236e-14 0 0 9.5116e-14 3.06994e-13 2.48896e-13 1.62569e-13 0 0 4.5745e-14 4.047e-13 2.9082e-13 2.2249e-13 0 0 1.14476e-13 3.39419e-13 4.50429e-13 1.39335e-13 0 0 2.14538e-13 3.64314e-13 4.75135e-13 1.33047e-13 0 0 2.31952e-13 4.6322e-13 4.83264e-13 1.55069e-13 0 0 2.71908e-13 5.12392e-13 4.39703e-13 1.86581e-13 0 0 3.51726e-13 4.81403e-13 4.30036e-13 2.33718e-13 0 0 3.38943e-13 4.82403e-13 4.79312e-13 2.51164e-13 0 0 3.31466e-13 4.61983e-13 5.21831e-13 1.94287e-13 0 0 3.88573e-13 3.8937e-13 5.79842e-13 8.78942e-14 0 0 2.88123e-13 5.29767e-13 4.01277e-13 1.99814e-13 0 0 2.15821e-13 6.39418e-13 2.13651e-13 3.37137e-13 0 0 3.93903e-13 3.95712e-13 4.19539e-13 1.90491e-13 0 0 4.39313e-13 3.05953e-13 4.97563e-13 1.5675e-13 0 0 3.5186e-13 4.15796e-13 3.23467e-13 3.59269e-13 0 0 2.75102e-13 5.81229e-13 1.16482e-13 4.88468e-13 0 0 2.97233e-13 5.37192e-13 1.63383e-13 4.99492e-13 0 0 4.19195e-13 2.81747e-13 4.02013e-13 4.38415e-13 0 0 3.24974e-13 3.90978e-13 3.37463e-13 3.76784e-13 0 0 1.99589e-13 6.06727e-13 1.71124e-13 3.81531e-13 0 0 2.32608e-13 6.23204e-13 1.63851e-13 3.42848e-13 0 0 2.9632e-13 5.91831e-13 2.10242e-13 2.91928e-13 0 0 4.08371e-13 4.65033e-13 3.70221e-13 2.13214e-13 0 0 3.44469e-13 5.10544e-13 5.49506e-13 5.5345e-14 0 0 2.35428e-13 7.09122e-13 4.55888e-13 1.46557e-13 0 0 2.40281e-13 8.66598e-13 3.14626e-13 2.07796e-13 0 0 3.90812e-13 7.6146e-13 4.81636e-13 5.78682e-14 0 0 7.43173e-13 2.8228e-13 7.54867e-13 1.02921e-13 0 0 7.38677e-13 3.69298e-13 4.89844e-13 3.89429e-13 0 0 2.79823e-13 1.06712e-12 -3.56649e-14 6.98601e-13 0 0 1.37267e-13 1.15534e-12 4.97184e-14 5.93828e-13 0 0 4.8911e-13 5.57453e-13 6.44609e-13 1.47775e-13 0 0 5.66806e-13 4.98852e-13 6.99089e-13 9.43782e-14 0 0 5.02338e-13 6.7812e-13 4.67506e-13 2.67748e-13 0 0 4.83992e-13 6.47646e-13 5.68415e-13 1.63643e-13 0 0 2.99529e-13 7.51441e-13 5.94246e-13 1.07277e-13 0 0 3.6166e-13 5.84018e-13 6.67708e-13 2.11717e-13 0 0 5.0007e-13 4.46553e-13 6.26123e-13 3.31307e-13 0 0 4.16234e-13 4.79477e-13 6.38077e-13 2.95834e-13 0 0 4.6492e-13 2.94781e-13 8.9846e-13 1.2812e-13 0 0 3.20265e-13 5.70491e-13 6.03819e-13 2.56606e-13 0 0 1.23709e-13 8.09394e-13 5.07202e-13 2.40561e-13 0 0 2.34036e-13 6.41655e-13 6.91407e-13 1.5712e-13 0 0 3.70108e-13 5.91193e-13 4.44852e-13 4.12809e-13 0 0 5.53105e-13 3.33045e-13 4.99907e-13 4.63332e-13 0 0 4.81636e-13 4.1119e-13 5.19889e-13 3.13563e-13 0 0 2.64018e-13 7.21527e-13 3.62629e-13 2.71177e-13 0 0 1.52489e-13 8.776e-13 2.1687e-13 3.96695e-13 0 0 2.54187e-13 7.06002e-13 3.45663e-13 3.72162e-13 0 0 5.02712e-13 3.50806e-13 6.24532e-13 2.25412e-13 0 0 5.9526e-13 2.82715e-13 6.45342e-13 1.22595e-13 0 0 4.69225e-13 4.85632e-13 6.16742e-13 -1.18138e-13 0 0 3.10576e-13 7.50267e-13 4.51708e-13 -1.37135e-13 0 0 3.38705e-13 7.47729e-13 2.60579e-13 1.04073e-13 0 0 5.05095e-13 4.18631e-13 4.21004e-13 1.40967e-13 0 0 3.91949e-13 5.29199e-13 2.61323e-13 3.32487e-13 0 0 2.69773e-13 7.58098e-13 -9.34597e-15 5.44253e-13 0 0 7.9236e-14 9.92047e-13 -2.28593e-13 6.96613e-13 0 0 1.69413e-13 5.88224e-13 2.22203e-13 4.89068e-13 0 0 6.7834e-13 -2.09014e-13 8.98428e-13 1.91872e-13 0 0 5.46726e-13 2.37868e-13 3.98909e-13 4.54723e-13 0 0 2.69406e-13 6.70583e-13 1.67805e-13 4.83186e-13 0 0 3.93903e-13 4.95809e-13 2.61363e-13 5.45031e-13 0 0 6.35438e-13 1.72231e-13 4.3039e-13 5.53362e-13 0 0 4.94426e-13 3.65978e-13 4.20851e-13 3.782e-13 0 0 7.63696e-16 1.12124e-12 -1.7172e-13 5.499e-13 0 0 1.28379e-13 8.66252e-13 -2.66998e-15 5.2753e-13 0 0 8.45859e-13 -2.9654e-13 1.01581e-12 6.63664e-14 0 0 1.20252e-12 -8.53295e-13 1.53751e-12 -2.21716e-13 0
				</DataArray>
				<DataArray Name="VitesseY" type="Float32" format="ascii">