<?xml version="1.0"?>
<VTKFile type="PolyData">
	<PolyData>
		<Piece NumberOfPoints="1206" NumberOfPolys="1000">
			<Points>
				<DataArray type="Float32" NumberOfComponents="3" format="ascii">
 0 0 0 0.02 0 0 0.04 0 0 0.06 0 0 0.08 0 0 0.1 0 0 0 0.005 0 0.02 0.005 0 0.04 0.005 0 0.06 0.005 0 0.08 0.005 0 0.1 0.005 0 0 0.01 0 0.02 0.01 0 0.04 0.01 0 0.06 0.01 0 0.08 0.01 0 0.1 0.01 0 0 0.015 0 0.02 0.015 0 0.04 0.015 0 0.06 0.015 0 0.08 0.015 0 0.1 0.015 0 0 0.02 0 0.02 0.02 0 0.04 0.02 0 0.06 0.02 0 0.08 0.02 0 0.1 0.02 0 0 0.025 0 0.02 0.025 0 0.04 0.025 0 0.06 0.025 0 0.08 0.025 0 0.1 0.025 0 0 0.03 0 0.02 0.03 0 0.04 0.03 0 0.06 0.03 0 0.08 0.03 0 0.1 0.03 0 0 0.035 0 0.02 0.035 0 0.04 0.035 0 0.06 0.035 0 0.08 0.035 0 0.1 0.035 0 0 0.04 0 0.02 0.04 0 0.04 0.04 0 0.06 0.04 0 0.08 0.04 0 0.1 0.04 0 0 0.045 0 0.02 0.045 0 0.04 0.045 0 0.06 0.045 0 0.08 0.045 0 0.1 0.045 0 0 0.05 0 0.02 0.05 0 0.04 0.05 0 0.06 0.05 0 0.08 0.05 0 0.1 0.05 0 0 0.055 0 0.02 0.055 0 0.04 0.055 0 0.06 0.055 0 0.08 0.055 0 0.1 0.055 0 0 0.06 0 0.02 0.06 0 0.04 0.06 0 0.06 0.06 0 0.08 0.06 0 0.1 0.06 0 0 0.065 0 0.02 0.065 0 0.04 0.065 0 0.06 0.065 0 0.08 0.065 0 0.1 0.065 0 0 0.07 0 0.02 0.07 0 0.04 0.07 0 0.06 0.07 0 0.08 0.07 0 0.1 0.07 0 0 0.075 0 0.02 0.075 0 0.04 0.075 0 0.06 0.075 0 0.08 0.075 0 0.1 0.075 0 0 0.08 0 0.02 0.08 0 0.04 0.08 0 0.06 0.08 0 0.08 0.08 0 0.1 0.08 0 0 0.085 0 0.02 0.085 0 0.04 0.085 0 0.06 0.085 0 0.08 0.085 0 0.1 0.085 0 0 0.09 0 0.02 0.09 0 0.04 0.09 0 0.06 0.09 0 0.08 0.09 0 0.1 0.09 0 0 0.095 0 0.02 0.095 0 0.04 0.095 0 0.06 0.095 0 0.08 0.095 0 0.1 0.095 0 0 0.1 0 0.02 0.1 0 0.04 0.1 0 0.06 0.1 0 0.08 0.1 0 0.1 0.1 0 0 0.105 0 0.02 0.105 0 0.04 0.105 0 0.06 0.105 0 0.08 0.105 0 0.1 0.105 0 0 0.11 0 0.02 0.11 0 0.04 0.11 0 0.06 0.11 0 0.08 0.11 0 0.1 0.11 0 0 0.115 0 0.02 0.115 0 0.04 0.115 0 0.06 0.115 0 0.08 0.115 0 0.1 0.115 0 0 0.12 0 0.02 0.12 0 0.04 0.12 0 0.06 0.12 0 0.08 0.12 0 0.1 0.12 0 0 0.125 0 0.02 0.125 0 0.04 0.125 0 0.06 0.125 0 0.08 0.125 0 0.1 0.125 0 0 0.13 0 0.02 0.13 0 0.04 0.13 0 0.06 0.13 0 0.08 0.13 0 0.1 0.13 0 0 0.135 0 0.02 0.135 0 0.04 0.135 0 0.06 0.135 0 0.08 0.135 0 0.1 0.135 0 0 0.14 0 0.02 0.14 0 0.04 0.14 0 0.06 0.14 0 0.08 0.14 0 0.1 0.14 0 0 0.145 0 0.02 0.145 0 0.04 0.145 0 0.06 0.145 0 0.08 0.145 0 0.1 0.145 0 0 0.15 0 0.02 0.15 0 0.04 0.15 0 0.06 0.15 0 0.08 0.15 0 0.1 0.15 0 0 0.155 0 0.02 0.155 0 0.04 0.155 0 0.06 0.155 0 0.08 0.155 0 0.1 0.155 0 0 0.16 0 0.02 0.16 0 0.04 0.16 0 0.06 0.16 0 0.08 0.16 0 0.1 0.16 0 0 0.165 0 0.02 0.165 0 0.04 0.165 0 0.06 0.165 0 0.08 0.165 0 0.1 0.165 0 0 0.17 0 0.02 0.17 0 0.04 0.17 0 0.06 0.17 0 0.08 0.17 0 0.1 0.17 0 0 0.175 0 0.02 0.175 0 0.04 0.175 0 0.06 0.175 0 0.08 0.175 0 0.1 0.175 0 0 0.18 0 0.02 0.18 0 0.04 0.18 0 0.06 0.18 0 0.08 0.18 0 0.1 0.18 0 0 0.185 0 0.02 0.185 0 0.04 0.185 0 0.06 0.185 0 0.08 0.185 0 0.1 0.185 0 0 0.19 0 0.02 0.19 0 0.04 0.19 0 0.06 0.19 0 0.08 0.19 0 0.1 0.19 0 0 0.195 0 0.02 0.195 0 0.04 0.195 0 0.06 0.195 0 0.08 0.195 0 0.1 0.195 0 0 0.2 0 0.02 0.2 0 0.04 0.2 0 0.06 0.2 0 0.08 0.2 0 0.1 0.2 0 0 0.205 0 0.02 0.205 0 0.04 0.205 0 0.06 0.205 0 0.08 0.205 0 0.1 0.205 0 0 0.21 0 0.02 0.21 0 0.04 0.21 0 0.06 0.21 0 0.08 0.21 0 0.1 0.21 0 0 0.215 0 0.02 0.215 0 0.04 0.215 0 0.06 0.215 0 0.08 0.215 0 0.1 0.215 0 0 0.22 0 0.02 0.22 0 0.04 0.22 0 0.06 0.22 0 0.08 0.22 0 0.1 0.22 0 0 0.225 0 0.02 0.225 0 0.04 0.225 0 0.06 0.225 0 0.08 0.225 0 0.1 0.225 0 0 0.23 0 0.02 0.23 0 0.04 0.23 0 0.06 0.23 0 0.08 0.23 0 0.1 0.23 0 0 0.235 0 0.02 0.235 0 0.04 0.235 0 0.06 0.235 0 0.08 0.235 0 0.1 0.235 0 0 0.24 0 0.02 0.24 0 0.04 0.24 0 0.06 0.24 0 0.08 0.24 0 0.1 0.24 0 0 0.245 0 0.02 0.245 0 0.04 0.245 0 0.06 0.245 0 0.08 0.245 0 0.1 0.245 0 0 0.25 0 0.02 0.25 0 0.04 0.25 0 0.06 0.25 0 0.08 0.25 0 0.1 0.25 0 0 0.255 0 0.02 0.255 0 0.04 0.255 0 0.06 0.255 0 0.08 0.255 0 0.1 0.255 0 0 0.26 0 0.02 0.26 0 0.04 0.26 0 0.06 0.26 0 0.08 0.26 0 0.1 0.26 0 0 0.265 0 0.02 0.265 0 0.04 0.265 0 0.06 0.265 0 0.08 0.265 0 0.1 0.265 0 0 0.27 0 0.02 0.27 0 0.04 0.27 0 0.06 0.27 0 0.08 0.27 0 0.1 0.27 0 0 0.275 0 0.02 0.275 0 0.04 0.275 0 0.06 0.275 0 0.08 0.275 0 0.1 0.275 0 0 0.28 0 0.02 0.28 0 0.04 0.28 0 0.06 0.28 0 0.08 0.28 0 0.1 0.28 0 0 0.285 0 0.02 0.285 0 0.04 0.285 0 0.06 0.285 0 0.08 0.285 0 0.1 0.285 0 0 0.29 0 0.02 0.29 0 0.04 0.29 0 0.06 0.29 0 0.08 0.29 0 0.1 0.29 0 0 0.295 0 0.02 0.295 0 0.04 0.295 0 0.06 0.295 0 0.08 0.295 0 0.1 0.295 0 0 0.3 0 0.02 0.3 0 0.04 0.3 0 0.06 0.3 0 0.08 0.3 0 0.1 0.3 0 0 0.305 0 0.02 0.305 0 0.04 0.305 0 0.06 0.305 0 0.08 0.305 0 0.1 0.305 0 0 0.31 0 0.02 0.31 0 0.04 0.31 0 0.06 0.31 0 0.08 0.31 0 0.1 0.31 0 0 0.315 0 0.02 0.315 0 0.04 0.315 0 0.06 0.315 0 0.08 0.315 0 0.1 0.315 0 0 0.32 0 0.02 0.32 0 0.04 0.32 0 0.06 0.32 0 0.08 0.32 0 0.1 0.32 0 0 0.325 0 0.02 0.325 0 0.04 0.325 0 0.06 0.325 0 0.08 0.325 0 0.1 0.325 0 0 0.33 0 0.02 0.33 0 0.04 0.33 0 0.06 0.33 0 0.08 0.33 0 0.1 0.33 0 0 0.335 0 0.02 0.335 0 0.04 0.335 0 0.06 0.335 0 0.08 0.335 0 0.1 0.335 0 0 0.34 0 0.02 0.34 0 0.04 0.34 0 0.06 0.34 0 0.08 0.34 0 0.1 0.34 0 0 0.345 0 0.02 0.345 0 0.04 0.345 0 0.06 0.345 0 0.08 0.345 0 0.1 0.345 0 0 0.35 0 0.02 0.35 0 0.04 0.35 0 0.06 0.35 0 0.08 0.35 0 0.1 0.35 0 0 0.355 0 0.02 0.355 0 0.04 0.355 0 0.06 0.355 0 0.08 0.355 0 0.1 0.355 0 0 0.36 0 0.02 0.36 0 0.04 0.36 0 0.06 0.36 0 0.08 0.36 0 0.1 0.36 0 0 0.365 0 0.02 0.365 0 0.04 0.365 0 0.06 0.365 0 0.08 0.365 0 0.1 0.365 0 0 0.37 0 0.02 0.37 0 0.04 0.37 0 0.06 0.37 0 0.08 0.37 0 0.1 0.37 0 0 0.375 0 0.02 0.375 0 0.04 0.375 0 0.06 0.375 0 0.08 0.375 0 0.1 0.375 0 0 0.38 0 0.02 0.38 0 0.04 0.38 0 0.06 0.38 0 0.08 0.38 0 0.1 0.38 0 0 0.385 0 0.02 0.385 0 0.04 0.385 0 0.06 0.385 0 0.08 0.385 0 0.1 0.385 0 0 0.39 0 0.02 0.39 0 0.04 0.39 0 0.06 0.39 0 0.08 0.39 0 0.1 0.39 0 0 0.395 0 0.02 0.395 0 0.04 0.395 0 0.06 0.395 0 0.08 0.395 0 0.1 0.395 0 0 0.4 0 0.02 0.4 0 0.04 0.4 0 0.06 0.4 0 0.08 0.4 0 0.1 0.4 0 0 0.405 0 0.02 0.405 0 0.04 0.405 0 0.06 0.405 0 0.08 0.405 0 0.1 0.405 0 0 0.41 0 0.02 0.41 0 0.04 0.41 0 0.06 0.41 0 0.08 0.41 0 0.1 0.41 0 0 0.415 0 0.02 0.415 0 0.04 0.415 0 0.06 0.415 0 0.08 0.415 0 0.1 0.415 0 0 0.42 0 0.02 0.42 0 0.04 0.42 0 0.06 0.42 0 0.08 0.42 0 0.1 0.42 0 0 0.425 0 0.02 0.425 0 0.04 0.425 0 0.06 0.425 0 0.08 0.425 0 0.1 0.425 0 0 0.43 0 0.02 0.43 0 0.04 0.43 0 0.06 0.43 0 0.08 0.43 0 0.1 0.43 0 0 0.435 0 0.02 0.435 0 0.04 0.435 0 0.06 0.435 0 0.08 0.435 0 0.1 0.435 0 0 0.44 0 0.02 0.44 0 0.04 0.44 0 0.06 0.44 0 0.08 0.44 0 0.1 0.44 0 0 0.445 0 0.02 0.445 0 0.04 0.445 0 0.06 0.445 0 0.08 0.445 0 0.1 0.445 0 0 0.45 0 0.02 0.45 0 0.04 0.45 0 0.06 0.45 0 0.08 0.45 0 0.1 0.45 0 0 0.455 0 0.02 0.455 0 0.04 0.455 0 0.06 0.455 0 0.08 0.455 0 0.1 0.455 0 0 0.46 0 0.02 0.46 0 0.04 0.46 0 0.06 0.46 0 0.08 0.46 0 0.1 0.46 0 0 0.465 0 0.02 0.465 0 0.04 0.465 0 0.06 0.465 0 0.08 0.465 0 0.1 0.465 0 0 0.47 0 0.02 0.47 0 0.04 0.47 0 0.06 0.47 0 0.08 0.47 0 0.1 0.47 0 0 0.475 0 0.02 0.475 0 0.04 0.475 0 0.06 0.475 0 0.08 0.475 0 0.1 0.475 0 0 0.48 0 0.02 0.48 0 0.04 0.48 0 0.06 0.48 0 0.08 0.48 0 0.1 0.48 0 0 0.485 0 0.02 0.485 0 0.04 0.485 0 0.06 0.485 0 0.08 0.485 0 0.1 0.485 0 0 0.49 0 0.02 0.49 0 0.04 0.49 0 0.06 0.49 0 0.08 0.49 0 0.1 0.49 0 0 0.495 0 0.02 0.495 0 0.04 0.495 0 0.06 0.495 0 0.08 0.495 0 0.1 0.495 0 0 0.5 0 0.02 0.5 0 0.04 0.5 0 0.06 0.5 0 0.08 0.5 0 0.1 0.5 0 0 0.505 0 0.02 0.505 0 0.04 0.505 0 0.06 0.505 0 0.08 0.505 0 0.1 0.505 0 0 0.51 0 0.02 0.51 0 0.04 0.51 0 0.06 0.51 0 0.08 0.51 0 0.1 0.51 0 0 0.515 0 0.02 0.515 0 0.04 0.515 0 0.06 0.515 0 0.08 0.515 0 0.1 0.515 0 0 0.52 0 0.02 0.52 0 0.04 0.52 0 0.06 0.52 0 0.08 0.52 0 0.1 0.52 0 0 0.525 0 0.02 0.525 0 0.04 0.525 0 0.06 0.525 0 0.08 0.525 0 0.1 0.525 0 0 0.53 0 0.02 0.53 0 0.04 0.53 0 0.06 0.53 0 0.08 0.53 0 0.1 0.53 0 0 0.535 0 0.02 0.535 0 0.04 0.535 0 0.06 0.535 0 0.08 0.535 0 0.1 0.535 0 0 0.54 0 0.02 0.54 0 0.04 0.54 0 0.06 0.54 0 0.08 0.54 0 0.1 0.54 0 0 0.545 0 0.02 0.545 0 0.04 0.545 0 0.06 0.545 0 0.08 0.545 0 0.1 0.545 0 0 0.55 0 0.02 0.55 0 0.04 0.55 0 0.06 0.55 0 0.08 0.55 0 0.1 0.55 0 0 0.555 0 0.02 0.555 0 0.04 0.555 0 0.06 0.555 0 0.08 0.555 0 0.1 0.555 0 0 0.56 0 0.02 0.56 0 0.04 0.56 0 0.06 0.56 0 0.08 0.56 0 0.1 0.56 0 0 0.565 0 0.02 0.565 0 0.04 0.565 0 0.06 0.565 0 0.08 0.565 0 0.1 0.565 0 0 0.57 0 0.02 0.57 0 0.04 0.57 0 0.06 0.57 0 0.08 0.57 0 0.1 0.57 0 0 0.575 0 0.02 0.575 0 0.04 0.575 0 0.06 0.575 0 0.08 0.575 0 0.1 0.575 0 0 0.58 0 0.02 0.58 0 0.04 0.58 0 0.06 0.58 0 0.08 0.58 0 0.1 0.58 0 0 0.585 0 0.02 0.585 0 0.04 0.585 0 0.06 0.585 0 0.08 0.585 0 0.1 0.585 0 0 0.59 0 0.02 0.59 0 0.04 0.59 0 0.06 0.59 0 0.08 0.59 0 0.1 0.59 0 0 0.595 0 0.02 0.595 0 0.04 0.595 0 0.06 0.595 0 0.08 0.595 0 0.1 0.595 0 0 0.6 0 0.02 0.6 0 0.04 0.6 0 0.06 0.6 0 0.08 0.6 0 0.1 0.6 0 0 0.605 0 0.02 0.605 0 0.04 0.605 0 0.06 0.605 0 0.08 0.605 0 0.1 0.605 0 0 0.61 0 0.02 0.61 0 0.04 0.61 0 0.06 0.61 0 0.08 0.61 0 0.1 0.61 0 0 0.615 0 0.02 0.615 0 0.04 0.615 0 0.06 0.615 0 0.08 0.615 0 0.1 0.615 0 0 0.62 0 0.02 0.62 0 0.04 0.62 0 0.06 0.62 0 0.08 0.62 0 0.1 0.62 0 0 0.625 0 0.02 0.625 0 0.04 0.625 0 0.06 0.625 0 0.08 0.625 0 0.1 0.625 0 0 0.63 0 0.02 0.63 0 0.04 0.63 0 0.06 0.63 0 0.08 0.63 0 0.1 0.63 0 0 0.635 0 0.02 0.635 0 0.04 0.635 0 0.06 0.635 0 0.08 0.635 0 0.1 0.635 0 0 0.64 0 0.02 0.64 0 0.04 0.64 0 0.06 0.64 0 0.08 0.64 0 0.1 0.64 0 0 0.645 0 0.02 0.645 0 0.04 0.645 0 0.06 0.645 0 0.08 0.645 0 0.1 0.645 0 0 0.65 0 0.02 0.65 0 0.04 0.65 0 0.06 0.65 0 0.08 0.65 0 0.1 0.65 0 0 0.655 0 0.02 0.655 0 0.04 0.655 0 0.06 0.655 0 0.08 0.655 0 0.1 0.655 0 0 0.66 0 0.02 0.66 0 0.04 0.66 0 0.06 0.66 0 0.08 0.66 0 0.1 0.66 0 0 0.665 0 0.02 0.665 0 0.04 0.665 0 0.06 0.665 0 0.08 0.665 0 0.1 0.665 0 0 0.67 0 0.02 0.67 0 0.04 0.67 0 0.06 0.67 0 0.08 0.67 0 0.1 0.67 0 0 0.675 0 0.02 0.675 0 0.04 0.675 0 0.06 0.675 0 0.08 0.675 0 0.1 0.675 0 0 0.68 0 0.02 0.68 0 0.04 0.68 0 0.06 0.68 0 0.08 0.68 0 0.1 0.68 0 0 0.685 0 0.02 0.685 0 0.04 0.685 0 0.06 0.685 0 0.08 0.685 0 0.1 0.685 0 0 0.69 0 0.02 0.69 0 0.04 0.69 0 0.06 0.69 0 0.08 0.69 0 0.1 
[...]
			<PointData Scalars="VitesseX">
				<DataArray Name="VitesseX" type="Float32" format="ascii">
 0 -1.00323e-14 -1.1816e-14 -2.78507e-14 2.29931e-14 0 0 -1.77022e-14 -4.00417e-15 -2.40296e-14 1.55138e-14 0 0 -8.74275e-15 -2.21496e-14 4.66418e-15 -4.52712e-15 0 0 -2.47563e-14 -5.55423e-15 -8.6547e-15 8.97781e-15 0 0 -5.15671e-14 1.51334e-14 -1.03589e-14 8.71514e-15 0 0 -3.32072e-14 -2.10086e-14 2.85105e-14 -2.21702e-14 0 0 4.43923e-15 -5.49913e-14 1.61533e-14 -7.38158e-15 0 0 4.06811e-15 -4.34049e-14 -3.76747e-14 3.28721e-14 0 0 -1.76236e-14 -3.84253e-14 -3.70074e-14 1.9998e-14 0 0 -4.29262e-14 -2.80367e-14 -3.89847e-14 2.40283e-14 0 0 -8.30763e-14 3.47274e-14 -9.31787e-14 6.09038e-14 0 0 -4.03277e-14 -3.95673e-14 1.36443e-14 -1.13615e-14 0 0 -7.21413e-14 -1.34169e-14 3.02062e-14 -4.3892e-14 0 0 -6.52528e-14 2.79985e-15 4.686e-15 -5.48014e-14 0 0 -3.3431e-14 3.97809e-15 -4.26536e-14 -1.16693e-14 0 0 -8.04827e-14 7.83695e-14 -1.19684e-13 5.08928e-14 0 0 -2.4254e-14 -3.98401e-14 -1.05012e-14 3.79438e-15 0 0 -8.00651e-14 3.57918e-14 -1.02812e-13 6.98577e-14 0 0 -1.27858e-13 1.1275e-13 -1.70718e-13 7.87268e-14 0 0 -5.88102e-14 1.20873e-14 -9.76012e-14 3.19328e-14 0 0 -2.40531e-14 -3.43121e-14 -1.35116e-13 9.15228e-14 0 0 -2.84434e-14 -5.36322e-14 -1.47187e-13 1.11435e-13 0 0 -8.95354e-14 -4.87675e-14 -3.66954e-14 -6.15691e-15 0 0 -1.01956e-13 -4.97669e-14 3.99028e-14 -1.23069e-13 0 0 -3.10427e-14 -4.67303e-14 -4.20469e-14 -8.63822e-14 0 0 -3.20757e-16 -3.01354e-14 -1.10605e-13 -4.63873e-14 0 0 -4.22133e-14 -2.81174e-14 -7.12598e-14 -1.27923e-13 0 0 -1.1878e-13 -7.87868e-15 -7.0324e-14 -1.73723e-13 0 0 -1.12216e-13 -3.61157e-14 -1.14862e-13 -1.11733e-13 0 0 -9.97911e-14 -2.67226e-14 -1.54225e-13 -7.83806e-14 0 0 -3.08256e-14 -1.12337e-13 -1.59339e-14 -1.85116e-13 0 0 -1.39884e-14 -1.18092e-13 3.61904e-15 -1.30406e-13 0 0 -1.09305e-13 -1.80706e-14 -5.94215e-14 -2.34709e-14 0 0 -1.178e-13 -8.7237e-14 5.56488e-14 -6.2829e-14 0 0 -1.10162e-13 -5.62517e-14 -4.82176e-14 7.08348e-14 0 0 -2.88982e-14 -1.10074e-13 -3.31983e-14 1.17419e-13 0 0 -1.11786e-13 -4.37152e-15 -2.54348e-14 1.04809e-13 0 0 -1.76055e-13 5.4452e-14 2.38719e-14 2.3674e-14 0 0 -1.61161e-13 5.33303e-14 1.49775e-14 2.57687e-14 0 0 -6.76115e-14 -3.4676e-14 -7.1488e-15 5.84972e-14 0 0 -3.8344e-14 -9.42229e-14 -5.41968e-14 5.86313e-14 0 0 -1.41342e-13 -3.08948e-14 -1.3381e-13 7.46775e-14 0 0 -7.22669e-14 -1.63076e-13 -7.16511e-16 -6.26374e-14 0 0 1.04434e-14 -2.06944e-13 -3.3463e-14 -4.99034e-14 0 0 -2.01793e-14 -1.05837e-13 -1.34618e-13 -8.37597e-15 0 0 -3.62926e-14 -1.37087e-13 4.20836e-14 -2.53755e-13 0 0 -2.69154e-13 4.41567e-14 3.61329e-14 -3.43368e-13 0 0 -3.03953e-13 -8.90344e-15 6.00206e-14 -3.13015e-13 0 0 -1.56243e-13 -2.0044e-13 7.85458e-14 -2.33098e-13 0 0 -1.07676e-13 -1.99163e-13 -8.62215e-14 -1.64707e-14 0 0 3.61227e-14 -3.59221e-13 4.05521e-15 -3.35027e-14 0 0 -2.42382e-13 -2.27344e-14 -9.26036e-14 -1.30594e-13 0 0 -3.24375e-13 -5.43077e-14 2.03438e-13 -5.20687e-13 0 0 -3.70631e-13 6.97467e-14 2.32775e-15 -3.77587e-13 0 0 -2.14817e-13 1.32692e-13 -3.75173e-13 2.35173e-14 0 0 1.11139e-13 -2.33264e-13 -1.11346e-13 -9.55562e-14 0 0 -2.84344e-13 9.28783e-14 -2.01965e-13 -9.14171e-14 0 0 -2.49385e-13 -2.55387e-13 4.00746e-13 -5.78836e-13 0 0 -2.12224e-13 -2.73345e-13 3.9003e-13 -5.81244e-13 0 0 -2.97549e-13 7.9268e-14 -2.37626e-13 -4.84324e-14 0 0 -9.70087e-14 -1.28917e-13 -1.99499e-13 3.35336e-14 0 0 -2.35437e-13 2.55503e-14 -2.60224e-13 5.93281e-14 0 0 -1.32383e-13 -9.93858e-14 -8.71053e-14 -9.52255e-14 0 0 -9.19962e-14 -6.52398e-14 -1.62571e-13 -7.00096e-14 0 0 -1.52214e-13 3.15198e-14 -2.44374e-13 -1.84032e-14 0 0 -7.22117e-14 -1.34784e-13 -9.14086e-14 -7.90935e-14 0 0 -1.96983e-13 -4.07101e-15 -2.64133e-13 5.43022e-14 0 0 -4.76845e-14 -1.44351e-13 -2.29664e-13 4.15408e-14 0 0 -1.38968e-14 -1.62421e-13 -2.41257e-13 5.85386e-14 0 0 -2.84295e-13 8.55181e-14 -2.01887e-13 -6.99048e-14 0 0 -1.74656e-13 -2.63116e-13 4.49405e-13 -5.34991e-13 0 0 -3.13147e-13 -7.28095e-14 2.3697e-13 -2.12083e-13 0 0 -1.36211e-13 -6.90973e-14 -5.39322e-14 2.31472e-13 0 0 -7.73167e-14 -8.82567e-14 -1.42092e-13 3.82215e-13 0 0 -4.24908e-13 1.38242e-13 -8.94399e-14 2.202e-13 0 0 -4.50809e-13 4.60307e-14 1.46687e-13 -6.10053e-14 0 0 -3.83854e-13 1.23403e-13 -2.22173e-13 1.61347e-13 0 0 -7.67815e-14 -2.60342e-13 -5.84745e-14 -4.62096e-15 0 0 -3.19707e-13 -1.22092e-13 -9.43478e-14 -1.55055e-13 0 0 -4.20541e-13 -2.76409e-13 1.0905e-13 -3.22821e-13 0 0 -2.99789e-13 -3.78573e-13 -1.05555e-15 -1.54328e-13 0 0 -5.1191e-13 4.33893e-14 -4.3498e-13 8.27356e-14 0 0 -2.78727e-13 -3.40455e-13 1.29628e-13 -4.93776e-13 0 0 -2.34838e-13 -7.60672e-14 -4.04519e-13 -2.92724e-13 0 0 -2.32647e-13 2.4126e-13 -9.91043e-13 3.69525e-14 0 0 -1.51264e-13 -2.65185e-13 -1.46328e-13 -5.58736e-13 0 0 -5.44906e-13 -1.8464e-13 6.03696e-14 -6.58232e-13 0 0 -4.11812e-13 -1.68413e-13 -3.66562e-13 -1.69718e-13 0 0 1.52385e-13 -6.66275e-13 -3.68506e-13 8.21265e-14 0 0 -8.39583e-14 -2.2364e-13 -5.22038e-13 -1.14125e-13 0 0 -3.64109e-13 -6.00602e-14 -1.17967e-13 -6.45518e-13 0 0 -4.71399e-13 -1.75117e-13 5.13433e-14 -6.97749e-13 0 0 -1.22648e-13 -1.62424e-13 -5.18783e-13 -2.60206e-14 0 0 3.96002e-13 -8.19107e-13 -6.29929e-13 5.71456e-13 0 0 -3.9944e-13 -4.73426e-14 -4.62383e-13 1.9531e-13 0 0 -3.55611e-13 -2.91217e-13 7.57541e-13 -1.06783e-12 0 0 9.23784e-14 -5.45125e-13 4.97019e-13 -8.90424e-13 0 0 -9.21724e-13 1.05829e-12 -4.78885e-13 -5.26753e-13 0 0 -1.63854e-15 -7.68283e-14 3.78661e-13 -9.68141e-13 0 0 3.63043e-13 -4.01394e-13 3.02073e-13 -7.68486e-13 0 0 2.0236e-13 -2.20544e-13 -2.71806e-13 -1.05519e-13 0 0 -1.25272e-14 -7.41222e-14 -7.63006e-13 2.88669e-13 0 0 -1.98012e-13 -1.17819e-13 -7.55136e-13 2.78589e-13 0 0 -2.93339e-13 -2.41705e-13 -6.0556e-13 1.36527e-13 0 0 -3.59693e-13 -3.76052e-13 -3.08128e-13 -1.90981e-13 0 0 -3.91478e-13 -4.1918e-13 -1.40909e-13 -4.73687e-13 0 0 -3.39439e-13 -4.4238e-13 -2.32593e-13 -3.6826e-13 0 0 -2.21911e-13 -3.62414e-13 -3.87804e-13 -1.53926e-13 0 0 -2.84477e-13 -1.27179e-13 -5.27188e-13 -1.56371e-14 0 0 -3.14646e-13 -1.25483e-13 -2.44541e-13 -2.67047e-13 0 0 -2.82311e-13 -2.08003e-13 5.05272e-14 -5.58357e-13 0 0 -1.47672e-13 -1.74788e-13 -1.78065e-13 -3.95945e-13 0 0 1.68115e-14 -2.14243e-13 -3.77126e-13 -1.96535e-13 0 0 -6.14614e-14 -1.96587e-13 -3.61735e-13 -1.76891e-13 0 0 -3.05383e-13 -2.16358e-13 -9.51433e-14 -3.64461e-13 0 0 -3.69523e-13 -3.59887e-13 9.25e-14 -4.7695e-13 0 0 -1.06441e-13 -4.49189e-13 -2.07866e-13 -2.60624e-13 0 0 -1.21564e-13 -1.45137e-13 -6.49191e-13 -5.92179e-14 0 0 -2.20185e-13 -2.08481e-13 -2.25694e-13 -4.59673e-13 0 0 -3.89237e-13 -1.55947e-13 -1.33692e-13 -4.62514e-13 0 0 -4.01294e-13 -1.97997e-13 -2.23774e-13 -1.78795e-13 0 0 -9.29302e-14 -5.18301e-13 -8.1132e-14 -2.56351e-13 0 0 -2.03448e-13 -1.84704e-13 -5.41332e-13 -4.83129e-14 0 0 -3.52394e-13 -1.92887e-13 -3.61996e-13 -1.94256e-13 0 0 -5.36877e-13 -2.00045e-13 -1.55332e-13 -2.91131e-13 0 0 -6.18742e-13 -2.64303e-13 -6.61236e-14 -1.72393e-13 0 0 -3.2048e-13 -3.40005e-13 -2.45552e-13 7.3436e-15 0 0 -2.69725e-13 -5.37308e-14 -7.57498e-13 1.52075e-13 0 0 -3.40286e-13 -2.54854e-13 -3.62022e-13 -3.50533e-13 0 0 -5.17586e-13 -2.71445e-13 -1.39958e-13 -4.83777e-13 0 0 -6.60833e-13 -2.93608e-13 5.70238e-14 -4.11788e-13 0 0 -3.29334e-13 -4.63003e-13 3.11422e-14 -3.26841e-13 0 0 -2.75719e-13 -1.68511e-13 -5.79513e-13 8.72728e-14 0 0 -3.85396e-13 -2.58008e-13 -3.26054e-13 -2.01571e-13 0 0 -5.37759e-13 -2.13255e-13 -1.74676e-13 -4.00506e-13 0 0 -6.17664e-13 -1.50211e-13 -2.00482e-13 -1.82757e-13 0 0 -2.05044e-13 -3.65722e-13 -2.42371e-13 -1.34851e-13 0 0 -1.599e-13 -1.2335e-13 -7.51908e-13 -1.89636e-14 0 0 -3.97393e-13 -1.87959e-13 -5.64371e-13 -3.13858e-13 0 0 -3.62586e-13 -5.70922e-13 -3.17666e-13 -3.16996e-13 0 0 -3.02593e-13 -6.85463e-13 -3.25878e-13 -1.47097e-13 0 0 -2.61486e-13 -6.25392e-13 -2.01751e-14 -6.20289e-13 0 0 -1.97585e-13 -1.87038e-13 -5.98468e-13 -4.2427e-13 0 0 -1.40663e-13 -9.40115e-14 -7.58125e-13 -4.15297e-13 0 0 -4.38794e-13 -2.58932e-13 -1.87114e-13 -6.54642e-13 0 0 -6.92974e-13 -7.44532e-14 -4.8566e-13 -5.57989e-14 0 0 -3.05844e-13 -5.90729e-13 -1.12204e-13 -6.90932e-15 0 0 -2.46235e-13 -5.365e-13 -2.56875e-13 1.8504e-13 0 0 -3.81903e-13 -2.52945e-13 -5.98624e-13 4.23514e-13 0 0 -6.54655e-13 -2.26515e-13 -4.53618e-13 4.45449e-13 0 0 -7.29724e-13 -1.66509e-13 -7.46026e-13 9.11705e-13 0 0 -3.05688e-13 -7.33799e-13 -1.72611e-13 4.46772e-13 0 0 -4.19845e-13 -4.07007e-13 -2.33079e-13 -4.48166e-14 0 0 -3.96627e-13 -2.72558e-13 -3.44065e-13 -2.45085e-13 0 0 -4.65407e-13 -3.38695e-13 -2.49447e-13 -3.31805e-13 0 0 -7.1623e-13 -3.3612e-13 -2.74372e-13 -1.63545e-13 0 0 -3.68986e-13 -7.12861e-13 -3.51124e-13 -1.06548e-13 0 0 -1.02812e-13 -6.15016e-13 -9.89294e-13 8.22346e-15 0 0 -2.98328e-13 -3.88459e-13 -9.5629e-13 -4.5355e-13 0 0 -8.85115e-13 1.33078e-13 -6.74979e-13 -8.14504e-13 0 0 -9.13752e-13 4.16251e-14 -3.81977e-13 -5.6221e-13 0 0 -2.51907e-14 -7.82496e-13 -2.93077e-13 -1.69491e-13 0 0 3.33901e-13 -1.01904e-12 -5.63984e-13 -1.54824e-13 0 0 -2.02584e-13 -5.80264e-13 -6.286e-13 -9.15808e-13 0 0 -9.33898e-13 1.23711e-13 -9.39762e-13 -1.34631e-12 0 0 -9.36164e-13 9.3738e-14 -1.23709e-12 -9.03507e-13 0 0 -2.63803e-13 -4.14784e-13 -1.14389e-12 -5.78737e-13 0 0 -1.56686e-13 -4.71765e-13 -7.70007e-13 -7.26312e-13 0 0 -3.15496e-13 -6.68478e-13 -3.79103e-14 -1.23392e-12 0 0 -2.2164e-13 -7.9307e-13 -2.58517e-13 -9.58726e-13 0 0 -3.67333e-13 -5.42359e-13 -7.94255e-13 -6.53709e-13 0 0 -6.0833e-13 -2.81947e-13 -5.93471e-13 -1.37968e-12 0 0 -7.73323e-13 2.28421e-13 -1.06385e-12 -1.20339e-12 0 0 -3.5192e-13 -3.58708e-13 -8.11149e-13 -7.74456e-13 0 0 4.27794e-14 -1.02389e-12 -4.36205e-13 -4.61721e-13 0 0 -3.38027e-13 -7.11963e-13 -5.75232e-13 -3.51444e-13 0 0 -6.25056e-13 -4.75533e-13 -3.02479e-13 -1.19437e-12 0 0 -6.52817e-13 -4.3529e-14 -7.82937e-13 -1.31958e-12 0 0 -2.26277e-13 -5.37235e-13 -6.29077e-13 -1.00909e-12 0 0 1.52978e-13 -1.06994e-12 -6.54823e-13 -1.6638e-13 0 0 -1.88196e-13 -7.31501e-13 -9.20506e-13 1.18102e-13 0 0 -5.96709e-13 -2.9455e-13 -5.828e-13 -9.27819e-13 0 0 -7.48589e-13 2.78974e-13 -1.12684e-12 -9.36681e-13 0 0 -1.75636e-13 -5.37742e-13 -6.64003e-13 -8.31917e-13 0 0 1.27099e-13 -1.11907e-12 -3.63853e-13 -4.53388e-13 0 0 -3.85606e-13 -5.89577e-13 -7.08254e-13 -2.25144e-13 0 0 -6.49947e-13 -3.77494e-13 -4.59308e-13 -1.05099e-12 0 0 -7.28753e-13 9.03302e-14 -1.17039e-12 -9.52147e-13 0 0 -2.52174e-13 -4.99734e-13 -1.03581e-12 -8.12002e-13 0 0 1.90221e-13 -1.12814e-12 -7.67022e-13 -3.72507e-13 0 0 -5.32392e-13 -3.69405e-13 -6.56789e-13 -4.12609e-13 0 0 -7.21104e-13 -5.86489e-13 8.0551e-13 -1.9947e-12 0 0 -3.97437e-13 -5.70842e-13 -7.66957e-14 -1.37072e-12 0 0 -4.65379e-14 -4.93515e-13 -1.41533e-12 -1.2061e-13 0 0 -4.30852e-13 -4.30827e-13 -1.15778e-12 -4.1591e-13 0 0 -1.3255e-12 3.86275e-13 -1.31973e-12 -4.51407e-13 0 0 -6.00494e-13 -3.56794e-13 -7.97303e-13 -4.78043e-13 0 0 1.70332e-14 -6.87313e-13 -1.18139e-12 2.30458e-13 0 0 3.50849e-14 -9.95132e-13 -8.55445e-13 2.34507e-13 0 0 -5.59526e-13 -8.18802e-13 -3.38732e-13 -3.25498e-13 0 0 -1.28401e-12 1.44971e-13 -1.04875e-12 -7.85945e-14 0
				</DataArray>
				<DataArray Name="VitesseY" type="Float32" format="ascii">