<?xml version="1.0"?>
<VTKFile type="PolyData">
	<PolyData>
		<Piece NumberOfPoints="1206" NumberOfPolys="1000">
			<Points>
				<DataArray type="Float32" NumberOfComponents="3" format="ascii">
 0 0 0 0.02 0 0 0.04 0 0 0.06 0 0 0.08 0 0 0.1 0 0 0 0.005 0 0.02 0.005 0 0.04 0.005 0 0.06 0.005 0 0.08 0.005 0 0.1 0.005 0 0 0.01 0 0.02 0.01 0 0.04 0.01 0 0.06 0.01 0 0.08 0.01 0 0.1 0.01 0 0 0.015 0 0.02 0.015 0 0.04 0.015 0 0.06 0.015 0 0.08 0.015 0 0.1 0.015 0 0 0.02 0 0.02 0.02 0 0.04 0.02 0 0.06 0.02 0 0.08 0.02 0 0.1 0.02 0 0 0.025 0 0.02 0.025 0 0.04 0.025 0 0.06 0.025 0 0.08 0.025 0 0.1 0.025 0 0 0.03 0 0.02 0.03 0 0.04 0.03 0 0.06 0.03 0 0.08 0.03 0 0.1 0.03 0 0 0.035 0 0.02 0.035 0 0.04 0.035 0 0.06 0.035 0 0.08 0.035 0 0.1 0.035 0 0 0.04 0 0.02 0.04 0 0.04 0.04 0 0.06 0.04 0 0.08 0.04 0 0.1 0.04 0 0 0.045 0 0.02 0.045 0 0.04 0.045 0 0.06 0.045 0 0.08 0.045 0 0.1 0.045 0 0 0.05 0 0.02 0.05 0 0.04 0.05 0 0.06 0.05 0 0.08 0.05 0 0.1 0.05 0 0 0.055 0 0.02 0.055 0 0.04 0.055 0 0.06 0.055 0 0.08 0.055 0 0.1 0.055 0 0 0.06 0 0.02 0.06 0 0.04 0.06 0 0.06 0.06 0 0.08 0.06 0 0.1 0.06 0 0 0.065 0 0.02 0.065 0 0.04 0.065 0 0.06 0.065 0 0.08 0.065 0 0.1 0.065 0 0 0.07 0 0.02 0.07 0 0.04 0.07 0 0.06 0.07 0 0.08 0.07 0 0.1 0.07 0 0 0.075 0 0.02 0.075 0 0.04 0.075 0 0.06 0.075 0 0.08 0.075 0 0.1 0.075 0 0 0.08 0 0.02 0.08 0 0.04 0.08 0 0.06 0.08 0 0.08 0.08 0 0.1 0.08 0 0 0.085 0 0.02 0.085 0 0.04 0.085 0 0.06 0.085 0 0.08 0.085 0 0.1 0.085 0 0 0.09 0 0.02 0.09 0 0.04 0.09 0 0.06 0.09 0 0.08 0.09 0 0.1 0.09 0 0 0.095 0 0.02 0.095 0 0.04 0.095 0 0.06 0.095 0 0.08 0.095 0 0.1 0.095 0 0 0.1 0 0.02 0.1 0 0.04 0.1 0 0.06 0.1 0 0.08 0.1 0 0.1 0.1 0 0 0.105 0 0.02 0.105 0 0.04 0.105 0 0.06 0.105 0 0.08 0.105 0 0.1 0.105 0 0 0.11 0 0.02 0.11 0 0.04 0.11 0 0.06 0.11 0 0.08 0.11 0 0.1 0.11 0 0 0.115 0 0.02 0.115 0 0.04 0.115 0 0.06 0.115 0 0.08 0.115 0 0.1 0.115 0 0 0.12 0 0.02 0.12 0 0.04 0.12 0 0.06 0.12 0 0.08 0.12 0 0.1 0.12 0 0 0.125 0 0.02 0.125 0 0.04 0.125 0 0.06 0.125 0 0.08 0.125 0 0.1 0.125 0 0 0.13 0 0.02 0.13 0 0.04 0.13 0 0.06 0.13 0 0.08 0.13 0 0.1 0.13 0 0 0.135 0 0.02 0.135 0 0.04 0.135 0 0.06 0.135 0 0.08 0.135 0 0.1 0.135 0 0 0.14 0 0.02 0.14 0 0.04 0.14 0 0.06 0.14 0 0.08 0.14 0 0.1 0.14 0 0 0.145 0 0.02 0.145 0 0.04 0.145 0 0.06 0.145 0 0.08 0.145 0 0.1 0.145 0 0 0.15 0 0.02 0.15 0 0.04 0.15 0 0.06 0.15 0 0.08 0.15 0 0.1 0.15 0 0 0.155 0 0.02 0.155 0 0.04 0.155 0 0.06 0.155 0 0.08 0.155 0 0.1 0.155 0 0 0.16 0 0.02 0.16 0 0.04 0.16 0 0.06 0.16 0 0.08 0.16 0 0.1 0.16 0 0 0.165 0 0.02 0.165 0 0.04 0.165 0 0.06 0.165 0 0.08 0.165 0 0.1 0.165 0 0 0.17 0 0.02 0.17 0 0.04 0.17 0 0.06 0.17 0 0.08 0.17 0 0.1 0.17 0 0 0.175 0 0.02 0.175 0 0.04 0.175 0 0.06 0.175 0 0.08 0.175 0 0.1 0.175 0 0 0.18 0 0.02 0.18 0 0.04 0.18 0 0.06 0.18 0 0.08 0.18 0 0.1 0.18 0 0 0.185 0 0.02 0.185 0 0.04 0.185 0 0.06 0.185 0 0.08 0.185 0 0.1 0.185 0 0 0.19 0 0.02 0.19 0 0.04 0.19 0 0.06 0.19 0 0.08 0.19 0 0.1 0.19 0 0 0.195 0 0.02 0.195 0 0.04 0.195 0 0.06 0.195 0 0.08 0.195 0 0.1 0.195 0 0 0.2 0 0.02 0.2 0 0.04 0.2 0 0.06 0.2 0 0.08 0.2 0 0.1 0.2 0 0 0.205 0 0.02 0.205 0 0.04 0.205 0 0.06 0.205 0 0.08 0.205 0 0.1 0.205 0 0 0.21 0 0.02 0.21 0 0.04 0.21 0 0.06 0.21 0 0.08 0.21 0 0.1 0.21 0 0 0.215 0 0.02 0.215 0 0.04 0.215 0 0.06 0.215 0 0.08 0.215 0 0.1 0.215 0 0 0.22 0 0.02 0.22 0 0.04 0.22 0 0.06 0.22 0 0.08 0.22 0 0.1 0.22 0 0 0.225 0 0.02 0.225 0 0.04 0.225 0 0.06 0.225 0 0.08 0.225 0 0.1 0.225 0 0 0.23 0 0.02 0.23 0 0.04 0.23 0 0.06 0.23 0 0.08 0.23 0 0.1 0.23 0 0 0.235 0 0.02 0.235 0 0.04 0.235 0 0.06 0.235 0 0.08 0.235 0 0.1 0.235 0 0 0.24 0 0.02 0.24 0 0.04 0.24 0 0.06 0.24 0 0.08 0.24 0 0.1 0.24 0 0 0.245 0 0.02 0.245 0 0.04 0.245 0 0.06 0.245 0 0.08 0.245 0 0.1 0.245 0 0 0.25 0 0.02 0.25 0 0.04 0.25 0 0.06 0.25 0 0.08 0.25 0 0.1 0.25 0 0 0.255 0 0.02 0.255 0 0.04 0.255 0 0.06 0.255 0 0.08 0.255 0 0.1 0.255 0 0 0.26 0 0.02 0.26 0 0.04 0.26 0 0.06 0.26 0 0.08 0.26 0 0.1 0.26 0 0 0.265 0 0.02 0.265 0 0.04 0.265 0 0.06 0.265 0 0.08 0.265 0 0.1 0.265 0 0 0.27 0 0.02 0.27 0 0.04 0.27 0 0.06 0.27 0 0.08 0.27 0 0.1 0.27 0 0 0.275 0 0.02 0.275 0 0.04 0.275 0 0.06 0.275 0 0.08 0.275 0 0.1 0.275 0 0 0.28 0 0.02 0.28 0 0.04 0.28 0 0.06 0.28 0 0.08 0.28 0 0.1 0.28 0 0 0.285 0 0.02 0.285 0 0.04 0.285 0 0.06 0.285 0 0.08 0.285 0 0.1 0.285 0 0 0.29 0 0.02 0.29 0 0.04 0.29 0 0.06 0.29 0 0.08 0.29 0 0.1 0.29 0 0 0.295 0 0.02 0.295 0 0.04 0.295 0 0.06 0.295 0 0.08 0.295 0 0.1 0.295 0 0 0.3 0 0.02 0.3 0 0.04 0.3 0 0.06 0.3 0 0.08 0.3 0 0.1 0.3 0 0 0.305 0 0.02 0.305 0 0.04 0.305 0 0.06 0.305 0 0.08 0.305 0 0.1 0.305 0 0 0.31 0 0.02 0.31 0 0.04 0.31 0 0.06 0.31 0 0.08 0.31 0 0.1 0.31 0 0 0.315 0 0.02 0.315 0 0.04 0.315 0 0.06 0.315 0 0.08 0.315 0 0.1 0.315 0 0 0.32 0 0.02 0.32 0 0.04 0.32 0 0.06 0.32 0 0.08 0.32 0 0.1 0.32 0 0 0.325 0 0.02 0.325 0 0.04 0.325 0 0.06 0.325 0 0.08 0.325 0 0.1 0.325 0 0 0.33 0 0.02 0.33 0 0.04 0.33 0 0.06 0.33 0 0.08 0.33 0 0.1 0.33 0 0 0.335 0 0.02 0.335 0 0.04 0.335 0 0.06 0.335 0 0.08 0.335 0 0.1 0.335 0 0 0.34 0 0.02 0.34 0 0.04 0.34 0 0.06 0.34 0 0.08 0.34 0 0.1 0.34 0 0 0.345 0 0.02 0.345 0 0.04 0.345 0 0.06 0.345 0 0.08 0.345 0 0.1 0.345 0 0 0.35 0 0.02 0.35 0 0.04 0.35 0 0.06 0.35 0 0.08 0.35 0 0.1 0.35 0 0 0.355 0 0.02 0.355 0 0.04 0.355 0 0.06 0.355 0 0.08 0.355 0 0.1 0.355 0 0 0.36 0 0.02 0.36 0 0.04 0.36 0 0.06 0.36 0 0.08 0.36 0 0.1 0.36 0 0 0.365 0 0.02 0.365 0 0.04 0.365 0 0.06 0.365 0 0.08 0.365 0 0.1 0.365 0 0 0.37 0 0.02 0.37 0 0.04 0.37 0 0.06 0.37 0 0.08 0.37 0 0.1 0.37 0 0 0.375 0 0.02 0.375 0 0.04 0.375 0 0.06 0.375 0 0.08 0.375 0 0.1 0.375 0 0 0.38 0 0.02 0.38 0 0.04 0.38 0 0.06 0.38 0 0.08 0.38 0 0.1 0.38 0 0 0.385 0 0.02 0.385 0 0.04 0.385 0 0.06 0.385 0 0.08 0.385 0 0.1 0.385 0 0 0.39 0 0.02 0.39 0 0.04 0.39 0 0.06 0.39 0 0.08 0.39 0 0.1 0.39 0 0 0.395 0 0.02 0.395 0 0.04 0.395 0 0.06 0.395 0 0.08 0.395 0 0.1 0.395 0 0 0.4 0 0.02 0.4 0 0.04 0.4 0 0.06 0.4 0 0.08 0.4 0 0.1 0.4 0 0 0.405 0 0.02 0.405 0 0.04 0.405 0 0.06 0.405 0 0.08 0.405 0 0.1 0.405 0 0 0.41 0 0.02 0.41 0 0.04 0.41 0 0.06 0.41 0 0.08 0.41 0 0.1 0.41 0 0 0.415 0 0.02 0.415 0 0.04 0.415 0 0.06 0.415 0 0.08 0.415 0 0.1 0.415 0 0 0.42 0 0.02 0.42 0 0.04 0.42 0 0.06 0.42 0 0.08 0.42 0 0.1 0.42 0 0 0.425 0 0.02 0.425 0 0.04 0.425 0 0.06 0.425 0 0.08 0.425 0 0.1 0.425 0 0 0.43 0 0.02 0.43 0 0.04 0.43 0 0.06 0.43 0 0.08 0.43 0 0.1 0.43 0 0 0.435 0 0.02 0.435 0 0.04 0.435 0 0.06 0.435 0 0.08 0.435 0 0.1 0.435 0 0 0.44 0 0.02 0.44 0 0.04 0.44 0 0.06 0.44 0 0.08 0.44 0 0.1 0.44 0 0 0.445 0 0.02 0.445 0 0.04 0.445 0 0.06 0.445 0 0.08 0.445 0 0.1 0.445 0 0 0.45 0 0.02 0.45 0 0.04 0.45 0 0.06 0.45 0 0.08 0.45 0 0.1 0.45 0 0 0.455 0 0.02 0.455 0 0.04 0.455 0 0.06 0.455 0 0.08 0.455 0 0.1 0.455 0 0 0.46 0 0.02 0.46 0 0.04 0.46 0 0.06 0.46 0 0.08 0.46 0 0.1 0.46 0 0 0.465 0 0.02 0.465 0 0.04 0.465 0 0.06 0.465 0 0.08 0.465 0 0.1 0.465 0 0 0.47 0 0.02 0.47 0 0.04 0.47 0 0.06 0.47 0 0.08 0.47 0 0.1 0.47 0 0 0.475 0 0.02 0.475 0 0.04 0.475 0 0.06 0.475 0 0.08 0.475 0 0.1 0.475 0 0 0.48 0 0.02 0.48 0 0.04 0.48 0 0.06 0.48 0 0.08 0.48 0 0.1 0.48 0 0 0.485 0 0.02 0.485 0 0.04 0.485 0 0.06 0.485 0 0.08 0.485 0 0.1 0.485 0 0 0.49 0 0.02 0.49 0 0.04 0.49 0 0.06 0.49 0 0.08 0.49 0 0.1 0.49 0 0 0.495 0 0.02 0.495 0 0.04 0.495 0 0.06 0.495 0 0.08 0.495 0 0.1 0.495 0 0 0.5 0 0.02 0.5 0 0.04 0.5 0 0.06 0.5 0 0.08 0.5 0 0.1 0.5 0 0 0.505 0 0.02 0.505 0 0.04 0.505 0 0.06 0.505 0 0.08 0.505 0 0.1 0.505 0 0 0.51 0 0.02 0.51 0 0.04 0.51 0 0.06 0.51 0 0.08 0.51 0 0.1 0.51 0 0 0.515 0 0.02 0.515 0 0.04 0.515 0 0.06 0.515 0 0.08 0.515 0 0.1 0.515 0 0 0.52 0 0.02 0.52 0 0.04 0.52 0 0.06 0.52 0 0.08 0.52 0 0.1 0.52 0 0 0.525 0 0.02 0.525 0 0.04 0.525 0 0.06 0.525 0 0.08 0.525 0 0.1 0.525 0 0 0.53 0 0.02 0.53 0 0.04 0.53 0 0.06 0.53 0 0.08 0.53 0 0.1 0.53 0 0 0.535 0 0.02 0.535 0 0.04 0.535 0 0.06 0.535 0 0.08 0.535 0 0.1 0.535 0 0 0.54 0 0.02 0.54 0 0.04 0.54 0 0.06 0.54 0 0.08 0.54 0 0.1 0.54 0 0 0.545 0 0.02 0.545 0 0.04 0.545 0 0.06 0.545 0 0.08 0.545 0 0.1 0.545 0 0 0.55 0 0.02 0.55 0 0.04 0.55 0 0.06 0.55 0 0.08 0.55 0 0.1 0.55 0 0 0.555 0 0.02 0.555 0 0.04 0.555 0 0.06 0.555 0 0.08 0.555 0 0.1 0.555 0 0 0.56 0 0.02 0.56 0 0.04 0.56 0 0.06 0.56 0 0.08 0.56 0 0.1 0.56 0 0 0.565 0 0.02 0.565 0 0.04 0.565 0 0.06 0.565 0 0.08 0.565 0 0.1 0.565 0 0 0.57 0 0.02 0.57 0 0.04 0.57 0 0.06 0.57 0 0.08 0.57 0 0.1 0.57 0 0 0.575 0 0.02 0.575 0 0.04 0.575 0 0.06 0.575 0 0.08 0.575 0 0.1 0.575 0 0 0.58 0 0.02 0.58 0 0.04 0.58 0 0.06 0.58 0 0.08 0.58 0 0.1 0.58 0 0 0.585 0 0.02 0.585 0 0.04 0.585 0 0.06 0.585 0 0.08 0.585 0 0.1 0.585 0 0 0.59 0 0.02 0.59 0 0.04 0.59 0 0.06 0.59 0 0.08 0.59 0 0.1 0.59 0 0 0.595 0 0.02 0.595 0 0.04 0.595 0 0.06 0.595 0 0.08 0.595 0 0.1 0.595 0 0 0.6 0 0.02 0.6 0 0.04 0.6 0 0.06 0.6 0 0.08 0.6 0 0.1 0.6 0 0 0.605 0 0.02 0.605 0 0.04 0.605 0 0.06 0.605 0 0.08 0.605 0 0.1 0.605 0 0 0.61 0 0.02 0.61 0 0.04 0.61 0 0.06 0.61 0 0.08 0.61 0 0.1 0.61 0 0 0.615 0 0.02 0.615 0 0.04 0.615 0 0.06 0.615 0 0.08 0.615 0 0.1 0.615 0 0 0.62 0 0.02 0.62 0 0.04 0.62 0 0.06 0.62 0 0.08 0.62 0 0.1 0.62 0 0 0.625 0 0.02 0.625 0 0.04 0.625 0 0.06 0.625 0 0.08 0.625 0 0.1 0.625 0 0 0.63 0 0.02 0.63 0 0.04 0.63 0 0.06 0.63 0 0.08 0.63 0 0.1 0.63 0 0 0.635 0 0.02 0.635 0 0.04 0.635 0 0.06 0.635 0 0.08 0.635 0 0.1 0.635 0 0 0.64 0 0.02 0.64 0 0.04 0.64 0 0.06 0.64 0 0.08 0.64 0 0.1 0.64 0 0 0.645 0 0.02 0.645 0 0.04 0.645 0 0.06 0.645 0 0.08 0.645 0 0.1 0.645 0 0 0.65 0 0.02 0.65 0 0.04 0.65 0 0.06 0.65 0 0.08 0.65 0 0.1 0.65 0 0 0.655 0 0.02 0.655 0 0.04 0.655 0 0.06 0.655 0 0.08 0.655 0 0.1 0.655 0 0 0.66 0 0.02 0.66 0 0.04 0.66 0 0.06 0.66 0 0.08 0.66 0 0.1 0.66 0 0 0.665 0 0.02 0.665 0 0.04 0.665 0 0.06 0.665 0 0.08 0.665 0 0.1 0.665 0 0 0.67 0 0.02 0.67 0 0.04 0.67 0 0.06 0.67 0 0.08 0.67 0 0.1 0.67 0 0 0.675 0 0.02 0.675 0 0.04 0.675 0 0.06 0.675 0 0.08 0.675 0 0.1 0.675 0 0 0.68 0 0.02 0.68 0 0.04 0.68 0 0.06 0.68 0 0.08 0.68 0 0.1 0.68 0 0 0.685 0 0.02 0.685 0 0.04 0.685 0 0.06 0.685 0 0.08 0.685 0 0.1 0.685 0 0 0.69 0 0.02 0.69 0 0.04 0.69 0 0.06 0.69 0 0.08 0.69 0 0.1 
[...]
			<PointData Scalars="VitesseX">
				<DataArray Name="VitesseX" type="Float32" format="ascii">
 0 -7.8405e-15 -1.15685e-14 -1.19948e-14 -1.52634e-14 0 0 -1.00733e-14 -9.00261e-15 -1.50797e-14 -1.38233e-14 0 0 -9.22459e-15 -1.59857e-14 -8.78367e-15 -1.81549e-14 0 0 -1.05291e-14 -2.03554e-14 -8.0577e-15 -1.87885e-14 0 0 -1.5928e-14 -1.74014e-14 -1.6323e-14 -1.53271e-14 0 0 -1.59306e-14 -2.12039e-14 -1.80504e-14 -1.79742e-14 0 0 -1.70945e-14 -2.65576e-14 -1.37319e-14 -2.62622e-14 0 0 -2.62897e-14 -2.46648e-14 -1.28641e-14 -2.52214e-14 0 0 -2.18527e-14 -3.3833e-14 -4.39914e-15 -3.44678e-14 0 0 -2.51004e-14 -2.88326e-14 -1.61967e-14 -2.21933e-14 0 0 -2.93412e-14 -3.0401e-14 -1.98781e-14 -7.6962e-15 0 0 -1.8486e-14 -4.3231e-14 -1.57112e-14 -6.16613e-15 0 0 -1.59189e-14 -3.7884e-14 -1.49711e-14 -4.37462e-15 0 0 -3.44957e-14 -2.99855e-15 -3.19735e-14 5.52693e-15 0 0 -2.45406e-14 -1.5107e-14 -2.5031e-14 1.94645e-14 0 0 -2.19891e-14 -1.27462e-14 -2.79147e-14 2.83926e-14 0 0 -2.0378e-14 -2.03054e-15 -3.57277e-14 3.48994e-14 0 0 -2.45087e-16 -5.18163e-14 2.41856e-14 1.63132e-14 0 0 -7.67306e-15 -4.84623e-14 1.74377e-14 4.17945e-14 0 0 -1.97104e-14 -1.62572e-14 -3.32841e-14 7.71299e-14 0 0 -2.09797e-14 -2.35422e-14 -4.49293e-15 3.12982e-14 0 0 -2.04187e-14 -1.8598e-14 -1.36569e-14 2.10573e-14 0 0 -1.37392e-14 -2.98597e-14 -2.40802e-14 2.02072e-14 0 0 -9.96831e-15 -3.49755e-14 -1.10899e-14 -1.73062e-14 0 0 -3.1988e-14 1.45305e-14 -6.73841e-14 3.86294e-15 0 0 -1.47094e-14 -1.912e-14 -3.32147e-14 -1.03345e-14 0 0 -1.26457e-14 -3.01507e-14 -1.57673e-14 -2.78206e-14 0 0 -3.19885e-14 -2.98496e-15 -4.79039e-14 -1.64099e-14 0 0 -6.66243e-15 -3.07656e-14 -5.07023e-14 9.48769e-15 0 0 -9.30152e-15 -2.93377e-14 -5.8226e-14 1.77109e-14 0 0 -1.07884e-15 -6.75964e-14 1.10656e-15 -4.53622e-14 0 0 -6.52903e-17 -8.12858e-14 2.33972e-14 -7.9919e-14 0 0 -4.48468e-14 -1.53093e-14 -4.10004e-14 -3.72113e-14 0 0 -3.34386e-14 -4.59293e-14 -8.50431e-15 -4.2514e-14 0 0 -5.00524e-14 -4.85534e-14 7.52246e-15 -4.62469e-14 0 0 -3.05808e-14 -6.11463e-14 4.88215e-15 -3.70732e-14 0 0 -2.36319e-14 -3.916e-14 -2.78505e-14 -1.66854e-14 0 0 -3.2753e-14 -2.94463e-14 -5.44228e-14 3.97322e-14 0 0 -2.10318e-14 -4.86632e-14 -2.13694e-14 4.87709e-14 0 0 -4.9176e-14 2.17791e-14 -3.1422e-14 -1.94185e-15 0 0 -1.98394e-14 -1.34248e-14 2.3442e-14 -8.90976e-14 0 0 -1.51874e-14 -3.75747e-14 6.76497e-14 -1.33677e-13 0 0 -5.09683e-14 4.93487e-14 2.13777e-14 -1.05496e-13 0 0 -2.48416e-14 6.01646e-14 1.3618e-14 -6.60291e-14 0 0 5.03207e-14 -5.81896e-14 8.54056e-14 -4.95478e-14 0 0 -4.25432e-14 3.50904e-14 -3.43867e-14 9.86499e-14 0 0 -1.43192e-13 1.23544e-13 -1.42825e-13 2.06241e-13 0 0 -1.1103e-13 4.76694e-14 -9.24754e-14 1.67361e-13 0 0 -5.88841e-14 -5.37746e-14 -1.03012e-14 9.18934e-14 0 0 3.69922e-14 -1.97834e-13 9.38753e-14 -1.7874e-14 0 0 2.34271e-14 -1.30506e-13 -3.02998e-14 -1.93043e-15 0 0 8.11416e-15 -1.1938e-13 -7.38504e-14 -2.93345e-14 0 0 -2.85247e-15 -1.50405e-13 1.62349e-15 -1.46025e-13 0 0 1.81925e-15 -2.2832e-13 1.40745e-13 -2.74379e-13 0 0 -5.81558e-14 -1.37852e-13 -1.62366e-14 -1.38369e-13 0 0 -7.10558e-14 -1.29756e-13 -1.64823e-13 2.10258e-14 0 0 1.1017e-15 -3.56112e-13 -3.06799e-14 -4.86458e-14 0 0 -1.52441e-13 -2.03664e-13 -1.67874e-13 -4.49149e-14 0 0 -2.18114e-13 -1.16511e-13 -1.91167e-13 -1.17477e-13 0 0 -1.35279e-13 -1.63874e-13 -1.81542e-13 -1.28191e-13 0 0 -6.00951e-14 -1.93557e-13 -1.70691e-13 -9.03724e-14 0 0 -3.516e-14 -3.00753e-13 1.66179e-14 -1.84409e-13 0 0 -1.60871e-13 -2.54951e-13 6.14256e-14 -2.17151e-13 0 0 -2.76145e-13 -2.11135e-13 3.26242e-14 -1.95555e-13 0 0 -2.49073e-13 -3.09268e-13 9.30043e-14 -2.22336e-13 0 0 -2.89514e-13 -2.58841e-13 5.45199e-15 -1.67911e-13 0 0 -3.3568e-13 -1.87827e-13 -6.7401e-14 -1.84384e-13 0 0 -2.89372e-13 -2.29235e-13 -4.10401e-14 -2.37735e-13 0 0 -2.38828e-13 -2.22005e-13 -1.2932e-13 -1.70744e-13 0 0 -2.13022e-13 -2.00148e-13 -2.60671e-13 -9.47216e-14 0 0 -2.14143e-13 -2.41625e-13 -2.29536e-13 -1.16139e-13 0 0 -2.22178e-13 -3.51723e-13 -1.34338e-13 -1.83055e-13 0 0 -2.16483e-13 -4.42275e-13 -1.1389e-13 -1.71582e-13 0 0 -2.32275e-13 -4.26828e-13 -1.74608e-13 -8.69147e-14 0 0 -2.80455e-13 -3.5763e-13 -2.82671e-13 4.40829e-15 0 0 -3.0694e-13 -3.17075e-13 -2.9996e-13 -1.29364e-14 0 0 -3.17962e-13 -3.38081e-13 -2.23263e-13 -9.99536e-14 0 0 -3.19357e-13 -3.68652e-13 -9.97119e-14 -1.58117e-13 0 0 -3.21291e-13 -3.58195e-13 -6.90862e-14 -1.31374e-13 0 0 -3.39387e-13 -3.09355e-13 -8.49107e-14 -4.65757e-14 0 0 -3.29746e-13 -2.62639e-13 -1.02538e-13 1.40651e-15 0 0 -2.91861e-13 -2.66598e-13 -9.38849e-14 8.89971e-16 0 0 -2.32641e-13 -2.92777e-13 -7.01449e-14 -1.42745e-14 0 0 -1.66026e-13 -3.28395e-13 -5.32231e-14 -4.86119e-14 0 0 -1.05445e-13 -3.58775e-13 -4.4624e-14 -8.04951e-14 0 0 -6.16242e-14 -3.6794e-13 -4.81569e-14 -9.75125e-14 0 0 -4.03348e-14 -3.56782e-13 -7.24649e-14 -1.1979e-13 0 0 -4.13147e-14 -3.12668e-13 -1.29541e-13 -1.45779e-13 0 0 -5.78001e-14 -2.42695e-13 -1.91203e-13 -1.6431e-13 0 0 -8.03576e-14 -1.66331e-13 -2.52342e-13 -1.86807e-13 0 0 -1.05396e-13 -1.32218e-13 -2.80256e-13 -2.0161e-13 0 0 -1.14219e-13 -1.27823e-13 -2.98549e-13 -1.89612e-13 0 0 -1.07563e-13 -1.3569e-13 -3.05587e-13 -1.80208e-13 0 0 -7.82015e-14 -1.64419e-13 -2.98974e-13 -1.886e-13 0 0 -2.08874e-14 -2.1661e-13 -2.9597e-13 -1.95571e-13 0 0 5.19419e-14 -2.82879e-13 -2.9033e-13 -2.21169e-13 0 0 1.20242e-13 -3.48996e-13 -2.76809e-13 -2.66378e-13 0 0 1.7838e-13 -3.82518e-13 -2.85641e-13 -2.7309e-13 0 0 2.26857e-13 -3.81316e-13 -3.36665e-13 -2.60251e-13 0 0 2.68072e-13 -3.62591e-13 -4.27301e-13 -2.39769e-13 0 0 3.07515e-13 -3.61251e-13 -4.81035e-13 -2.41673e-13 0 0 3.42353e-13 -3.64551e-13 -4.98457e-13 -2.5685e-13 0 0 3.7664e-13 -3.66488e-13 -5.1133e-13 -2.67723e-13 0 0 3.96605e-13 -3.69856e-13 -5.14716e-13 -2.70114e-13 0 0 3.96319e-13 -3.86704e-13 -5.10125e-13 -2.8129e-13 0 0 3.89999e-13 -4.14231e-13 -4.88868e-13 -3.08795e-13 0 0 3.66144e-13 -4.12515e-13 -4.67385e-13 -3.47138e-13 0 0 3.2245e-13 -3.98739e-13 -4.72739e-13 -3.45365e-13 0 0 2.61372e-13 -3.71273e-13 -4.85013e-13 -3.24713e-13 0 0 1.80552e-13 -3.28457e-13 -4.87763e-13 -3.12766e-13 0 0 8.81773e-14 -2.7803e-13 -4.71928e-13 -2.94049e-13 0 0 2.23321e-14 -2.60843e-13 -4.53421e-13 -2.90325e-13 0 0 -3.69508e-14 -2.53115e-13 -4.06285e-13 -3.25284e-13 0 0 -9.69303e-14 -2.65891e-13 -3.09668e-13 -4.11164e-13 0 0 -1.64555e-13 -2.43792e-13 -3.17805e-13 -3.97261e-13 0 0 -2.12586e-13 -2.31902e-13 -3.24767e-13 -3.65343e-13 0 0 -2.21394e-13 -2.65803e-13 -2.89069e-13 -3.53962e-13 0 0 -2.33842e-13 -3.02495e-13 -2.8634e-13 -3.03281e-13 0 0 -2.51664e-13 -3.289e-13 -2.19963e-13 -3.25815e-13 0 0 -2.83504e-13 -2.95215e-13 -2.38797e-13 -3.02162e-13 0 0 -3.00392e-13 -2.85908e-13 -2.69765e-13 -2.10525e-13 0 0 -3.10944e-13 -3.03002e-13 -2.38745e-13 -1.70209e-13 0 0 -3.46055e-13 -2.78126e-13 -2.23989e-13 -1.75223e-13 0 0 -3.87142e-13 -2.233e-13 -2.47532e-13 -1.54446e-13 0 0 -3.99894e-13 -1.87826e-13 -2.71132e-13 -1.34125e-13 0 0 -4.02553e-13 -1.96632e-13 -2.27743e-13 -1.37693e-13 0 0 -4.18873e-13 -1.94698e-13 -1.80834e-13 -1.46056e-13 0 0 -4.16868e-13 -1.94301e-13 -1.18045e-13 -1.67278e-13 0 0 -4.06685e-13 -1.97167e-13 -7.80446e-14 -1.73637e-13 0 0 -3.91424e-13 -2.00127e-13 -6.99111e-14 -1.65672e-13 0 0 -3.75031e-13 -2.0193e-13 -6.09253e-14 -1.65521e-13 0 0 -3.69921e-13 -1.95811e-13 -6.37496e-14 -1.72861e-13 0 0 -3.67598e-13 -1.80898e-13 -8.30954e-14 -1.83867e-13 0 0 -3.66954e-13 -1.76586e-13 -1.16411e-13 -1.83821e-13 0 0 -3.49942e-13 -2.01492e-13 -9.97036e-14 -2.14757e-13 0 0 -3.03125e-13 -2.56534e-13 -1.13143e-13 -2.17002e-13 0 0 -2.57445e-13 -2.79351e-13 -1.52352e-13 -1.48279e-13 0 0 -2.56858e-13 -2.67667e-13 -1.83338e-13 -1.163e-13 0 0 -2.52395e-13 -2.56989e-13 -1.9587e-13 -1.20542e-13 0 0 -2.28862e-13 -2.8252e-13 -1.49573e-13 -1.75253e-13 0 0 -2.11887e-13 -2.61251e-13 -1.45484e-13 -2.7151e-13 0 0 -1.87135e-13 -2.2661e-13 -1.74529e-13 -2.71466e-13 0 0 -1.41016e-13 -2.69209e-13 -1.81745e-13 -2.08236e-13 0 0 -1.39089e-13 -2.7074e-13 -2.30288e-13 -1.1811e-13 0 0 -1.59607e-13 -2.06173e-13 -3.61844e-13 2.41309e-14 0 0 -1.5755e-13 -1.97111e-13 -3.78925e-13 2.21015e-14 0 0 -1.62456e-13 -2.1862e-13 -2.90848e-13 -1.12706e-13 0 0 -1.7517e-13 -2.51964e-13 -2.43502e-13 -1.36384e-13 0 0 -1.76133e-13 -3.23e-13 -1.85659e-13 -9.34857e-14 0 0 -1.8033e-13 -3.81546e-13 -1.74703e-13 -6.2836e-14 0 0 -2.171e-13 -3.32161e-13 -2.82751e-13 -5.77659e-14 0 0 -2.38617e-13 -3.17191e-13 -3.91384e-13 -1.20563e-13 0 0 -2.35898e-13 -3.34199e-13 -4.18053e-13 -2.67342e-13 0 0 -2.17437e-13 -3.83158e-13 -3.97315e-13 -4.55727e-13 0 0 -1.91305e-13 -4.67048e-13 -2.939e-13 -6.78098e-13 0 0 -2.11455e-13 -4.15029e-13 -3.63463e-13 -6.75083e-13 0 0 -2.46608e-13 -3.22037e-13 -5.04249e-13 -4.76718e-13 0 0 -2.38691e-13 -3.49798e-13 -3.92958e-13 -3.51254e-13 0 0 -2.39828e-13 -3.81311e-13 -1.75699e-13 -2.80528e-13 0 0 -2.46952e-13 -3.84785e-13 -2.1003e-13 -1.14343e-13 0 0 -2.07981e-13 -4.16192e-13 -2.37374e-13 -9.59412e-15 0 0 -2.04486e-13 -3.9942e-13 -2.0146e-13 -4.18574e-14 0 0 -1.98763e-13 -3.02732e-13 -3.32533e-13 -8.65007e-14 0 0 -1.63528e-13 -3.53248e-13 -3.10928e-13 -2.00503e-13 0 0 -1.93064e-13 -3.66273e-13 -2.88639e-13 -2.16345e-13 0 0 -1.41395e-13 -3.71563e-13 -2.62796e-13 -2.26669e-13 0 0 -1.55791e-14 -4.82412e-13 -1.91002e-13 -2.15781e-13 0 0 -8.98913e-14 -3.60392e-13 -3.48127e-13 -1.42895e-13 0 0 -9.43401e-14 -3.61906e-13 -3.05135e-13 -2.5773e-13 0 0 -1.75649e-13 -2.13617e-13 -4.75077e-13 -5.02238e-14 0 0 -2.81867e-13 -1.02098e-13 -5.48855e-13 4.49589e-14 0 0 -2.61456e-13 -2.09199e-13 -3.23002e-13 -1.85758e-13 0 0 -2.19236e-13 -2.97789e-13 -1.52414e-13 -3.36199e-13 0 0 -2.10443e-13 -2.69596e-13 -1.86158e-13 -2.93469e-13 0 0 -2.03552e-13 -2.25088e-13 -2.1271e-13 -3.06561e-13 0 0 -1.84843e-13 -2.54627e-13 -1.78065e-13 -2.59285e-13 0 0 -1.82697e-13 -2.36284e-13 -2.73484e-13 -6.18607e-14 0 0 -1.6819e-13 -2.42349e-13 -2.59448e-13 -2.17519e-14 0 0 -1.8208e-13 -2.60935e-13 -1.80259e-13 -4.18942e-14 0 0 -2.32553e-13 -1.80207e-13 -2.31075e-13 2.44661e-14 0 0 -1.93175e-13 -1.9277e-13 -1.47862e-13 -2.96343e-14 0 0 -1.6932e-13 -2.04941e-13 -1.03201e-13 -1.01851e-13 0 0 -1.7616e-13 -1.84121e-13 -1.98822e-13 5.9442e-15 0 0 -1.19681e-13 -2.14486e-13 -2.28907e-13 4.91498e-14 0 0 -1.02775e-13 -2.17493e-13 -2.07586e-13 -2.76617e-14 0 0 -9.83657e-14 -2.32728e-13 -1.5709e-13 -8.35355e-14 0 0 -1.06653e-13 -1.61786e-13 -2.18414e-13 -6.85257e-14 0 0 -1.50608e-13 -1.44558e-13 -2.09167e-13 -9.88123e-14 0 0 -1.81438e-13 -1.86262e-13 -1.14319e-13 -1.3991e-13 0 0 -1.8179e-13 -1.19063e-13 -2.95719e-13 8.14037e-14 0 0 -1.21538e-13 -1.09018e-13 -5.00145e-13 3.33522e-13 0 0 -9.24272e-14 -2.21097e-13 -3.23918e-13 2.12495e-13 0 0 -2.19826e-13 -1.67125e-13 -1.31243e-13 -1.04274e-13 0 0 -3.22234e-13 -3.42118e-14 -1.31832e-13 -2.90436e-13 0 0 -3.02666e-13 -3.92488e-14 -2.32865e-13 -2.47119e-13 0 0 -2.17822e-13 -1.95448e-13 -2.40194e-13 -1.94818e-13 0 0 -1.85216e-13 -3.92451e-13 -6.98848e-14 -2.5305e-13 0 0 -3.01326e-13 -3.65638e-13 7.78375e-14 -3.80929e-13 0 0 -4.08546e-13 -1.1069e-13 -1.50116e-13 -2.79094e-13 0 0 -4.62056e-13 4.24778e-14 -4.07933e-13 -8.86628e-14 0 0 -4.90166e-13 2.13527e-14 -3.39427e-13 -1.48533e-13 0
				</DataArray>
				<DataArray Name="VitesseY" type="Float32" format="ascii">