<?xml version="1.0"?>
<VTKFile type="PolyData">
	<PolyData>
		<Piece NumberOfPoints="1206" NumberOfPolys="1000">
			<Points>
				<DataArray type="Float32" NumberOfComponents="3" format="ascii">
 0 0 0 0.02 0 0 0.04 0 0 0.06 0 0 0.08 0 0 0.1 0 0 0 0.005 0 0.02 0.005 0 0.04 0.005 0 0.06 0.005 0 0.08 0.005 0 0.1 0.005 0 0 0.01 0 0.02 0.01 0 0.04 0.01 0 0.06 0.01 0 0.08 0.01 0 0.1 0.01 0 0 0.015 0 0.02 0.015 0 0.04 0.015 0 0.06 0.015 0 0.08 0.015 0 0.1 0.015 0 0 0.02 0 0.02 0.02 0 0.04 0.02 0 0.06 0.02 0 0.08 0.02 0 0.1 0.02 0 0 0.025 0 0.02 0.025 0 0.04 0.025 0 0.06 0.025 0 0.08 0.025 0 0.1 0.025 0 0 0.03 0 0.02 0.03 0 0.04 0.03 0 0.06 0.03 0 0.08 0.03 0 0.1 0.03 0 0 0.035 0 0.02 0.035 0 0.04 0.035 0 0.06 0.035 0 0.08 0.035 0 0.1 0.035 0 0 0.04 0 0.02 0.04 0 0.04 0.04 0 0.06 0.04 0 0.08 0.04 0 0.1 0.04 0 0 0.045 0 0.02 0.045 0 0.04 0.045 0 0.06 0.045 0 0.08 0.045 0 0.1 0.045 0 0 0.05 0 0.02 0.05 0 0.04 0.05 0 0.06 0.05 0 0.08 0.05 0 0.1 0.05 0 0 0.055 0 0.02 0.055 0 0.04 0.055 0 0.06 0.055 0 0.08 0.055 0 0.1 0.055 0 0 0.06 0 0.02 0.06 0 0.04 0.06 0 0.06 0.06 0 0.08 0.06 0 0.1 0.06 0 0 0.065 0 0.02 0.065 0 0.04 0.065 0 0.06 0.065 0 0.08 0.065 0 0.1 0.065 0 0 0.07 0 0.02 0.07 0 0.04 0.07 0 0.06 0.07 0 0.08 0.07 0 0.1 0.07 0 0 0.075 0 0.02 0.075 0 0.04 0.075 0 0.06 0.075 0 0.08 0.075 0 0.1 0.075 0 0 0.08 0 0.02 0.08 0 0.04 0.08 0 0.06 0.08 0 0.08 0.08 0 0.1 0.08 0 0 0.085 0 0.02 0.085 0 0.04 0.085 0 0.06 0.085 0 0.08 0.085 0 0.1 0.085 0 0 0.09 0 0.02 0.09 0 0.04 0.09 0 0.06 0.09 0 0.08 0.09 0 0.1 0.09 0 0 0.095 0 0.02 0.095 0 0.04 0.095 0 0.06 0.095 0 0.08 0.095 0 0.1 0.095 0 0 0.1 0 0.02 0.1 0 0.04 0.1 0 0.06 0.1 0 0.08 0.1 0 0.1 0.1 0 0 0.105 0 0.02 0.105 0 0.04 0.105 0 0.06 0.105 0 0.08 0.105 0 0.1 0.105 0 0 0.11 0 0.02 0.11 0 0.04 0.11 0 0.06 0.11 0 0.08 0.11 0 0.1 0.11 0 0 0.115 0 0.02 0.115 0 0.04 0.115 0 0.06 0.115 0 0.08 0.115 0 0.1 0.115 0 0 0.12 0 0.02 0.12 0 0.04 0.12 0 0.06 0.12 0 0.08 0.12 0 0.1 0.12 0 0 0.125 0 0.02 0.125 0 0.04 0.125 0 0.06 0.125 0 0.08 0.125 0 0.1 0.125 0 0 0.13 0 0.02 0.13 0 0.04 0.13 0 0.06 0.13 0 0.08 0.13 0 0.1 0.13 0 0 0.135 0 0.02 0.135 0 0.04 0.135 0 0.06 0.135 0 0.08 0.135 0 0.1 0.135 0 0 0.14 0 0.02 0.14 0 0.04 0.14 0 0.06 0.14 0 0.08 0.14 0 0.1 0.14 0 0 0.145 0 0.02 0.145 0 0.04 0.145 0 0.06 0.145 0 0.08 0.145 0 0.1 0.145 0 0 0.15 0 0.02 0.15 0 0.04 0.15 0 0.06 0.15 0 0.08 0.15 0 0.1 0.15 0 0 0.155 0 0.02 0.155 0 0.04 0.155 0 0.06 0.155 0 0.08 0.155 0 0.1 0.155 0 0 0.16 0 0.02 0.16 0 0.04 0.16 0 0.06 0.16 0 0.08 0.16 0 0.1 0.16 0 0 0.165 0 0.02 0.165 0 0.04 0.165 0 0.06 0.165 0 0.08 0.165 0 0.1 0.165 0 0 0.17 0 0.02 0.17 0 0.04 0.17 0 0.06 0.17 0 0.08 0.17 0 0.1 0.17 0 0 0.175 0 0.02 0.175 0 0.04 0.175 0 0.06 0.175 0 0.08 0.175 0 0.1 0.175 0 0 0.18 0 0.02 0.18 0 0.04 0.18 0 0.06 0.18 0 0.08 0.18 0 0.1 0.18 0 0 0.185 0 0.02 0.185 0 0.04 0.185 0 0.06 0.185 0 0.08 0.185 0 0.1 0.185 0 0 0.19 0 0.02 0.19 0 0.04 0.19 0 0.06 0.19 0 0.08 0.19 0 0.1 0.19 0 0 0.195 0 0.02 0.195 0 0.04 0.195 0 0.06 0.195 0 0.08 0.195 0 0.1 0.195 0 0 0.2 0 0.02 0.2 0 0.04 0.2 0 0.06 0.2 0 0.08 0.2 0 0.1 0.2 0 0 0.205 0 0.02 0.205 0 0.04 0.205 0 0.06 0.205 0 0.08 0.205 0 0.1 0.205 0 0 0.21 0 0.02 0.21 0 0.04 0.21 0 0.06 0.21 0 0.08 0.21 0 0.1 0.21 0 0 0.215 0 0.02 0.215 0 0.04 0.215 0 0.06 0.215 0 0.08 0.215 0 0.1 0.215 0 0 0.22 0 0.02 0.22 0 0.04 0.22 0 0.06 0.22 0 0.08 0.22 0 0.1 0.22 0 0 0.225 0 0.02 0.225 0 0.04 0.225 0 0.06 0.225 0 0.08 0.225 0 0.1 0.225 0 0 0.23 0 0.02 0.23 0 0.04 0.23 0 0.06 0.23 0 0.08 0.23 0 0.1 0.23 0 0 0.235 0 0.02 0.235 0 0.04 0.235 0 0.06 0.235 0 0.08 0.235 0 0.1 0.235 0 0 0.24 0 0.02 0.24 0 0.04 0.24 0 0.06 0.24 0 0.08 0.24 0 0.1 0.24 0 0 0.245 0 0.02 0.245 0 0.04 0.245 0 0.06 0.245 0 0.08 0.245 0 0.1 0.245 0 0 0.25 0 0.02 0.25 0 0.04 0.25 0 0.06 0.25 0 0.08 0.25 0 0.1 0.25 0 0 0.255 0 0.02 0.255 0 0.04 0.255 0 0.06 0.255 0 0.08 0.255 0 0.1 0.255 0 0 0.26 0 0.02 0.26 0 0.04 0.26 0 0.06 0.26 0 0.08 0.26 0 0.1 0.26 0 0 0.265 0 0.02 0.265 0 0.04 0.265 0 0.06 0.265 0 0.08 0.265 0 0.1 0.265 0 0 0.27 0 0.02 0.27 0 0.04 0.27 0 0.06 0.27 0 0.08 0.27 0 0.1 0.27 0 0 0.275 0 0.02 0.275 0 0.04 0.275 0 0.06 0.275 0 0.08 0.275 0 0.1 0.275 0 0 0.28 0 0.02 0.28 0 0.04 0.28 0 0.06 0.28 0 0.08 0.28 0 0.1 0.28 0 0 0.285 0 0.02 0.285 0 0.04 0.285 0 0.06 0.285 0 0.08 0.285 0 0.1 0.285 0 0 0.29 0 0.02 0.29 0 0.04 0.29 0 0.06 0.29 0 0.08 0.29 0 0.1 0.29 0 0 0.295 0 0.02 0.295 0 0.04 0.295 0 0.06 0.295 0 0.08 0.295 0 0.1 0.295 0 0 0.3 0 0.02 0.3 0 0.04 0.3 0 0.06 0.3 0 0.08 0.3 0 0.1 0.3 0 0 0.305 0 0.02 0.305 0 0.04 0.305 0 0.06 0.305 0 0.08 0.305 0 0.1 0.305 0 0 0.31 0 0.02 0.31 0 0.04 0.31 0 0.06 0.31 0 0.08 0.31 0 0.1 0.31 0 0 0.315 0 0.02 0.315 0 0.04 0.315 0 0.06 0.315 0 0.08 0.315 0 0.1 0.315 0 0 0.32 0 0.02 0.32 0 0.04 0.32 0 0.06 0.32 0 0.08 0.32 0 0.1 0.32 0 0 0.325 0 0.02 0.325 0 0.04 0.325 0 0.06 0.325 0 0.08 0.325 0 0.1 0.325 0 0 0.33 0 0.02 0.33 0 0.04 0.33 0 0.06 0.33 0 0.08 0.33 0 0.1 0.33 0 0 0.335 0 0.02 0.335 0 0.04 0.335 0 0.06 0.335 0 0.08 0.335 0 0.1 0.335 0 0 0.34 0 0.02 0.34 0 0.04 0.34 0 0.06 0.34 0 0.08 0.34 0 0.1 0.34 0 0 0.345 0 0.02 0.345 0 0.04 0.345 0 0.06 0.345 0 0.08 0.345 0 0.1 0.345 0 0 0.35 0 0.02 0.35 0 0.04 0.35 0 0.06 0.35 0 0.08 0.35 0 0.1 0.35 0 0 0.355 0 0.02 0.355 0 0.04 0.355 0 0.06 0.355 0 0.08 0.355 0 0.1 0.355 0 0 0.36 0 0.02 0.36 0 0.04 0.36 0 0.06 0.36 0 0.08 0.36 0 0.1 0.36 0 0 0.365 0 0.02 0.365 0 0.04 0.365 0 0.06 0.365 0 0.08 0.365 0 0.1 0.365 0 0 0.37 0 0.02 0.37 0 0.04 0.37 0 0.06 0.37 0 0.08 0.37 0 0.1 0.37 0 0 0.375 0 0.02 0.375 0 0.04 0.375 0 0.06 0.375 0 0.08 0.375 0 0.1 0.375 0 0 0.38 0 0.02 0.38 0 0.04 0.38 0 0.06 0.38 0 0.08 0.38 0 0.1 0.38 0 0 0.385 0 0.02 0.385 0 0.04 0.385 0 0.06 0.385 0 0.08 0.385 0 0.1 0.385 0 0 0.39 0 0.02 0.39 0 0.04 0.39 0 0.06 0.39 0 0.08 0.39 0 0.1 0.39 0 0 0.395 0 0.02 0.395 0 0.04 0.395 0 0.06 0.395 0 0.08 0.395 0 0.1 0.395 0 0 0.4 0 0.02 0.4 0 0.04 0.4 0 0.06 0.4 0 0.08 0.4 0 0.1 0.4 0 0 0.405 0 0.02 0.405 0 0.04 0.405 0 0.06 0.405 0 0.08 0.405 0 0.1 0.405 0 0 0.41 0 0.02 0.41 0 0.04 0.41 0 0.06 0.41 0 0.08 0.41 0 0.1 0.41 0 0 0.415 0 0.02 0.415 0 0.04 0.415 0 0.06 0.415 0 0.08 0.415 0 0.1 0.415 0 0 0.42 0 0.02 0.42 0 0.04 0.42 0 0.06 0.42 0 0.08 0.42 0 0.1 0.42 0 0 0.425 0 0.02 0.425 0 0.04 0.425 0 0.06 0.425 0 0.08 0.425 0 0.1 0.425 0 0 0.43 0 0.02 0.43 0 0.04 0.43 0 0.06 0.43 0 0.08 0.43 0 0.1 0.43 0 0 0.435 0 0.02 0.435 0 0.04 0.435 0 0.06 0.435 0 0.08 0.435 0 0.1 0.435 0 0 0.44 0 0.02 0.44 0 0.04 0.44 0 0.06 0.44 0 0.08 0.44 0 0.1 0.44 0 0 0.445 0 0.02 0.445 0 0.04 0.445 0 0.06 0.445 0 0.08 0.445 0 0.1 0.445 0 0 0.45 0 0.02 0.45 0 0.04 0.45 0 0.06 0.45 0 0.08 0.45 0 0.1 0.45 0 0 0.455 0 0.02 0.455 0 0.04 0.455 0 0.06 0.455 0 0.08 0.455 0 0.1 0.455 0 0 0.46 0 0.02 0.46 0 0.04 0.46 0 0.06 0.46 0 0.08 0.46 0 0.1 0.46 0 0 0.465 0 0.02 0.465 0 0.04 0.465 0 0.06 0.465 0 0.08 0.465 0 0.1 0.465 0 0 0.47 0 0.02 0.47 0 0.04 0.47 0 0.06 0.47 0 0.08 0.47 0 0.1 0.47 0 0 0.475 0 0.02 0.475 0 0.04 0.475 0 0.06 0.475 0 0.08 0.475 0 0.1 0.475 0 0 0.48 0 0.02 0.48 0 0.04 0.48 0 0.06 0.48 0 0.08 0.48 0 0.1 0.48 0 0 0.485 0 0.02 0.485 0 0.04 0.485 0 0.06 0.485 0 0.08 0.485 0 0.1 0.485 0 0 0.49 0 0.02 0.49 0 0.04 0.49 0 0.06 0.49 0 0.08 0.49 0 0.1 0.49 0 0 0.495 0 0.02 0.495 0 0.04 0.495 0 0.06 0.495 0 0.08 0.495 0 0.1 0.495 0 0 0.5 0 0.02 0.5 0 0.04 0.5 0 0.06 0.5 0 0.08 0.5 0 0.1 0.5 0 0 0.505 0 0.02 0.505 0 0.04 0.505 0 0.06 0.505 0 0.08 0.505 0 0.1 0.505 0 0 0.51 0 0.02 0.51 0 0.04 0.51 0 0.06 0.51 0 0.08 0.51 0 0.1 0.51 0 0 0.515 0 0.02 0.515 0 0.04 0.515 0 0.06 0.515 0 0.08 0.515 0 0.1 0.515 0 0 0.52 0 0.02 0.52 0 0.04 0.52 0 0.06 0.52 0 0.08 0.52 0 0.1 0.52 0 0 0.525 0 0.02 0.525 0 0.04 0.525 0 0.06 0.525 0 0.08 0.525 0 0.1 0.525 0 0 0.53 0 0.02 0.53 0 0.04 0.53 0 0.06 0.53 0 0.08 0.53 0 0.1 0.53 0 0 0.535 0 0.02 0.535 0 0.04 0.535 0 0.06 0.535 0 0.08 0.535 0 0.1 0.535 0 0 0.54 0 0.02 0.54 0 0.04 0.54 0 0.06 0.54 0 0.08 0.54 0 0.1 0.54 0 0 0.545 0 0.02 0.545 0 0.04 0.545 0 0.06 0.545 0 0.08 0.545 0 0.1 0.545 0 0 0.55 0 0.02 0.55 0 0.04 0.55 0 0.06 0.55 0 0.08 0.55 0 0.1 0.55 0 0 0.555 0 0.02 0.555 0 0.04 0.555 0 0.06 0.555 0 0.08 0.555 0 0.1 0.555 0 0 0.56 0 0.02 0.56 0 0.04 0.56 0 0.06 0.56 0 0.08 0.56 0 0.1 0.56 0 0 0.565 0 0.02 0.565 0 0.04 0.565 0 0.06 0.565 0 0.08 0.565 0 0.1 0.565 0 0 0.57 0 0.02 0.57 0 0.04 0.57 0 0.06 0.57 0 0.08 0.57 0 0.1 0.57 0 0 0.575 0 0.02 0.575 0 0.04 0.575 0 0.06 0.575 0 0.08 0.575 0 0.1 0.575 0 0 0.58 0 0.02 0.58 0 0.04 0.58 0 0.06 0.58 0 0.08 0.58 0 0.1 0.58 0 0 0.585 0 0.02 0.585 0 0.04 0.585 0 0.06 0.585 0 0.08 0.585 0 0.1 0.585 0 0 0.59 0 0.02 0.59 0 0.04 0.59 0 0.06 0.59 0 0.08 0.59 0 0.1 0.59 0 0 0.595 0 0.02 0.595 0 0.04 0.595 0 0.06 0.595 0 0.08 0.595 0 0.1 0.595 0 0 0.6 0 0.02 0.6 0 0.04 0.6 0 0.06 0.6 0 0.08 0.6 0 0.1 0.6 0 0 0.605 0 0.02 0.605 0 0.04 0.605 0 0.06 0.605 0 0.08 0.605 0 0.1 0.605 0 0 0.61 0 0.02 0.61 0 0.04 0.61 0 0.06 0.61 0 0.08 0.61 0 0.1 0.61 0 0 0.615 0 0.02 0.615 0 0.04 0.615 0 0.06 0.615 0 0.08 0.615 0 0.1 0.615 0 0 0.62 0 0.02 0.62 0 0.04 0.62 0 0.06 0.62 0 0.08 0.62 0 0.1 0.62 0 0 0.625 0 0.02 0.625 0 0.04 0.625 0 0.06 0.625 0 0.08 0.625 0 0.1 0.625 0 0 0.63 0 0.02 0.63 0 0.04 0.63 0 0.06 0.63 0 0.08 0.63 0 0.1 0.63 0 0 0.635 0 0.02 0.635 0 0.04 0.635 0 0.06 0.635 0 0.08 0.635 0 0.1 0.635 0 0 0.64 0 0.02 0.64 0 0.04 0.64 0 0.06 0.64 0 0.08 0.64 0 0.1 0.64 0 0 0.645 0 0.02 0.645 0 0.04 0.645 0 0.06 0.645 0 0.08 0.645 0 0.1 0.645 0 0 0.65 0 0.02 0.65 0 0.04 0.65 0 0.06 0.65 0 0.08 0.65 0 0.1 0.65 0 0 0.655 0 0.02 0.655 0 0.04 0.655 0 0.06 0.655 0 0.08 0.655 0 0.1 0.655 0 0 0.66 0 0.02 0.66 0 0.04 0.66 0 0.06 0.66 0 0.08 0.66 0 0.1 0.66 0 0 0.665 0 0.02 0.665 0 0.04 0.665 0 0.06 0.665 0 0.08 0.665 0 0.1 0.665 0 0 0.67 0 0.02 0.67 0 0.04 0.67 0 0.06 0.67 0 0.08 0.67 0 0.1 0.67 0 0 0.675 0 0.02 0.675 0 0.04 0.675 0 0.06 0.675 0 0.08 0.675 0 0.1 0.675 0 0 0.68 0 0.02 0.68 0 0.04 0.68 0 0.06 0.68 0 0.08 0.68 0 0.1 0.68 0 0 0.685 0 0.02 0.685 0 0.04 0.685 0 0.06 0.685 0 0.08 0.685 0 0.1 0.685 0 0 0.69 0 0.02 0.69 0 0.04 0.69 0 0.06 0.69 0 0.08 0.69 0 0.1 
[...]
			<PointData Scalars="VitesseX">
				<DataArray Name="VitesseX" type="Float32" format="ascii">
 0 2.74799e-14 -1.82308e-14 1.8241e-14 -4.81338e-15 0 0 2.20904e-14 -4.3688e-15 8.53374e-16 1.4018e-14 0 0 1.88164e-14 6.33861e-15 -3.07412e-15 2.48265e-14 0 0 2.2218e-14 5.2483e-15 1.73776e-14 1.08554e-14 0 0 -2.40956e-15 4.82173e-14 8.87338e-16 1.36783e-14 0 0 -1.30807e-14 6.58548e-14 6.17839e-15 5.44777e-15 0 0 3.9987e-14 1.23605e-15 6.80396e-14 -3.24262e-14 0 0 6.82842e-14 -1.5355e-14 7.59498e-14 -4.07316e-14 0 0 5.61033e-14 8.73829e-15 4.70736e-14 -2.0292e-14 0 0 2.21302e-14 5.6392e-14 -8.0008e-15 1.59593e-14 0 0 4.19687e-15 8.62583e-14 -4.58581e-14 3.8092e-14 0 0 2.01506e-14 5.76055e-14 -1.58646e-14 1.74467e-14 0 0 6.13445e-14 -4.95754e-15 4.80174e-14 -2.44481e-14 0 0 6.49868e-14 -5.20719e-15 4.8319e-14 -2.0636e-14 0 0 3.827e-14 5.02954e-14 -1.73038e-15 1.39987e-14 0 0 5.57511e-14 3.36111e-14 2.99749e-14 -1.43809e-14 0 0 4.32126e-14 5.40957e-14 9.16545e-15 -3.71805e-15 0 0 1.0562e-14 8.85693e-14 -8.03381e-15 -2.62073e-15 0 0 -5.26301e-15 1.06828e-13 -2.97125e-14 1.36872e-14 0 0 2.22903e-14 7.29121e-14 -3.01834e-14 3.45674e-14 0 0 9.43932e-14 -5.32256e-14 8.55897e-14 -2.31649e-14 0 0 9.3236e-14 -6.49965e-14 8.68255e-14 9.31568e-16 0 0 7.43897e-15 7.03699e-14 -3.73173e-14 8.94558e-14 0 0 -9.67498e-15 1.24177e-13 -8.11291e-14 1.21056e-13 0 0 8.5788e-14 -1.83918e-14 7.35311e-14 2.82056e-14 0 0 1.80463e-13 -1.7152e-13 2.31325e-13 -4.78126e-14 0 0 8.48353e-14 5.8772e-15 4.58777e-14 9.37188e-14 0 0 -4.00554e-14 1.80669e-13 -8.1486e-14 1.71143e-13 0 0 4.55565e-14 2.1969e-14 1.00478e-13 7.25407e-14 0 0 1.21714e-13 -7.39649e-14 1.77751e-13 1.80616e-14 0 0 8.1835e-14 -8.26854e-15 1.30738e-13 -1.18842e-14 0 0 4.04896e-14 4.73989e-14 8.00919e-14 -3.72792e-14 0 0 1.29743e-14 1.01711e-13 -1.2914e-14 6.20523e-15 0 0 -7.42595e-16 1.70632e-13 -1.42099e-13 9.02817e-14 0 0 7.95603e-14 2.37799e-14 4.30882e-15 -1.22281e-14 0 0 1.32755e-13 -8.83384e-14 9.08114e-14 -4.35975e-14 0 0 1.00795e-13 -1.19343e-14 -2.65824e-14 3.27761e-14 0 0 4.37871e-14 1.00508e-13 -1.37193e-13 8.71391e-14 0 0 1.21996e-14 1.80306e-13 -2.32103e-13 1.52861e-13 0 0 8.43413e-14 5.27822e-14 -4.43912e-14 1.40495e-14 0 0 1.33013e-13 -3.42591e-14 1.07543e-13 -9.50544e-14 0 0 9.35344e-14 6.17952e-14 1.63874e-14 -4.14791e-14 0 0 6.52466e-14 1.53597e-13 -7.16177e-14 3.22603e-15 0 0 1.90363e-13 -1.48343e-15 6.87708e-14 -5.92432e-14 0 0 3.44336e-13 -1.63623e-13 1.53282e-13 -7.65568e-14 0 0 2.60715e-13 5.04574e-14 -1.18128e-13 1.05535e-13 0 0 1.08698e-13 2.62884e-13 -2.93822e-13 2.1074e-13 0 0 9.82368e-14 2.31112e-13 -2.14755e-13 1.3506e-13 0 0 2.08067e-13 7.21811e-14 -1.26856e-13 1.33942e-13 0 0 4.1999e-13 -2.67216e-13 1.02022e-13 9.73987e-14 0 0 5.49674e-13 -5.60509e-13 4.00428e-13 -5.48956e-14 0 0 2.80234e-13 -2.29936e-13 1.6145e-13 1.21096e-14 0 0 -6.63071e-14 2.88747e-13 -2.72712e-13 2.019e-13 0 0 7.82027e-14 1.31954e-13 -1.88573e-13 1.58335e-13 0 0 3.97106e-13 -2.95919e-13 1.05046e-13 1.91383e-14 0 0 3.75761e-13 -2.36033e-13 -5.73193e-16 1.18016e-13 0 0 2.84007e-13 -4.45944e-14 -1.97044e-13 2.07781e-13 0 0 2.86018e-13 -7.97301e-14 -1.11312e-13 7.64109e-14 0 0 2.45046e-13 -9.35396e-14 -2.05709e-14 -6.61093e-14 0 0 2.62088e-13 -1.41116e-13 3.81e-14 -1.2006e-13 0 0 2.03355e-13 6.15826e-15 -1.81146e-13 7.58008e-14 0 0 1.59025e-13 7.84083e-14 -2.39976e-13 1.38498e-13 0 0 1.9127e-13 -6.71511e-14 7.51914e-14 -9.48094e-14 0 0 1.56385e-13 -7.15896e-14 2.11485e-13 -1.9994e-13 0 0 1.04033e-13 -7.80132e-15 1.65942e-13 -1.50824e-13 0 0 4.20799e-14 9.84219e-14 5.59067e-14 -8.53717e-14 0 0 3.27028e-14 1.4018e-13 -8.20546e-15 -5.02023e-14 0 0 1.78405e-13 -2.54516e-14 8.05155e-14 -1.05876e-13 0 0 3.66335e-13 -2.65143e-13 2.65709e-13 -2.54542e-13 0 0 2.73241e-13 -1.13533e-13 9.52274e-14 -1.40482e-13 0 0 1.14609e-13 1.86422e-13 -2.38637e-13 1.14452e-13 0 0 2.60711e-13 5.71081e-14 -1.91213e-13 1.89293e-13 0 0 5.09073e-13 -2.82789e-13 8.79883e-14 1.72204e-13 0 0 6.05226e-13 -3.49429e-13 1.74276e-13 1.61874e-13 0 0 4.58284e-13 8.8815e-15 -7.4081e-14 2.66845e-13 0 0 2.73392e-13 3.90771e-13 -3.61129e-13 3.85282e-13 0 0 4.4644e-13 9.81989e-14 -2.00398e-15 8.23657e-14 0 0 6.82675e-13 -3.63849e-13 5.23083e-13 -2.09322e-13 0 0 6.3697e-13 -1.73754e-13 1.99859e-13 1.47295e-13 0 0 4.07712e-13 1.82328e-13 -5.4112e-14 3.55234e-13 0 0 3.10205e-13 1.46454e-13 3.1915e-13 8.29304e-14 0 0 3.24317e-13 2.97443e-13 7.23946e-14 2.30678e-13 0 0 2.66597e-13 6.01795e-13 -5.41116e-13 7.83252e-13 0 0 4.3671e-13 1.58285e-13 1.67027e-15 5.52325e-13 0 0 4.27945e-13 -4.97349e-13 1.11228e-12 -1.35524e-13 0 0 -1.9773e-13 1.84971e-13 7.56912e-13 7.85718e-14 0 0 -3.60639e-13 1.00565e-12 -9.56047e-14 5.84321e-13 0 0 1.53112e-13 4.04682e-13 2.79717e-13 4.1949e-13 0 0 4.2957e-13 -1.14616e-13 8.31217e-13 -3.42999e-14 0 0 5.08677e-13 -1.56623e-13 1.03459e-12 -2.78559e-13 0 0 2.71651e-13 1.88496e-13 6.1091e-13 -1.39702e-13 0 0 -3.40149e-13 9.23936e-13 1.17832e-13 -1.00395e-13 0 0 -3.70846e-13 9.54554e-13 -4.13546e-14 -3.88088e-14 0 0 -1.92113e-13 6.96611e-13 8.94066e-15 8.818e-14 0 0 3.03012e-13 7.27245e-14 3.21885e-13 1.36858e-13 0 0 6.3392e-13 -4.55368e-13 5.70687e-13 2.18405e-13 0 0 6.23653e-13 -5.31805e-13 5.61451e-13 3.2786e-13 0 0 3.77336e-13 -3.62889e-13 4.20076e-13 4.13936e-13 0 0 -4.89893e-14 6.46305e-14 1.16483e-13 5.05433e-13 0 0 -2.145e-13 3.06324e-13 -3.23616e-13 6.466e-13 0 0 -1.73822e-13 3.14107e-13 -5.14057e-13 7.68009e-13 0 0 3.94071e-14 2.05203e-13 -5.07036e-13 7.59795e-13 0 0 2.84734e-13 -4.3229e-14 -4.12691e-13 7.14109e-13 0 0 3.72745e-13 -2.62441e-13 -2.06069e-13 6.07923e-13 0 0 3.64102e-13 -3.37638e-13 5.98439e-14 4.3831e-13 0 0 2.75333e-13 -3.3042e-13 1.94925e-13 3.04466e-13 0 0 1.38604e-13 -2.54118e-13 2.4321e-13 2.3079e-13 0 0 4.63838e-14 -1.31634e-13 2.69949e-13 1.69341e-13 0 0 6.50615e-15 -5.53235e-14 2.83532e-13 9.93351e-14 0 0 3.72077e-15 -9.58355e-15 2.70355e-13 -1.91557e-14 0 0 2.02929e-14 3.64938e-14 2.27196e-13 -1.00408e-13 0 0 6.51382e-14 3.14714e-14 1.9417e-13 -1.68589e-13 0 0 9.54631e-14 2.07713e-14 1.48856e-13 -1.69676e-13 0 0 8.06687e-14 5.68704e-14 8.8869e-14 -1.65529e-13 0 0 6.41902e-14 5.32496e-14 4.79623e-14 -1.42594e-13 0 0 4.6545e-14 5.52997e-14 -4.03627e-14 -4.53511e-14 0 0 2.04178e-14 6.23234e-14 -8.57717e-14 -9.84048e-15 0 0 4.22389e-14 3.68737e-14 -1.26299e-13 4.50302e-14 0 0 6.20677e-14 4.80564e-14 -2.12219e-13 1.42618e-13 0 0 8.44985e-14 3.1411e-14 -1.56734e-13 8.46843e-14 0 0 1.01698e-13 -1.01328e-14 3.34542e-15 -7.40225e-14 0 0 8.91593e-14 6.42728e-14 -6.43388e-14 2.18748e-14 0 0 1.51724e-13 5.93283e-15 -4.01184e-14 4.71446e-14 0 0 1.58034e-13 -3.72964e-14 1.33196e-13 -4.74135e-14 0 0 6.30548e-14 1.18764e-13 1.09004e-13 2.95573e-14 0 0 9.34263e-14 1.48915e-13 5.32879e-14 1.10186e-13 0 0 2.06012e-13 1.0395e-13 4.44152e-14 1.5386e-13 0 0 4.26254e-13 -1.63487e-13 3.10146e-13 -1.25204e-14 0 0 3.48243e-13 1.65929e-14 1.0345e-13 7.97165e-14 0 0 1.96645e-13 2.35607e-13 -8.64275e-14 1.75258e-13 0 0 1.7401e-13 2.56644e-13 -1.00142e-13 1.05863e-13 0 0 2.43814e-13 1.2523e-13 3.22728e-14 9.0154e-15 0 0 3.89475e-13 -1.68338e-13 3.40996e-13 -1.10686e-13 0 0 2.16317e-13 7.98824e-14 7.77636e-14 7.50166e-14 0 0 2.00018e-13 1.14782e-13 3.94599e-14 1.09967e-13 0 0 1.92486e-13 1.64261e-13 -6.08891e-14 2.05823e-13 0 0 2.25116e-13 6.98043e-14 5.95962e-14 1.74328e-13 0 0 4.08966e-13 -2.85968e-13 5.48319e-13 -9.93446e-14 0 0 1.35678e-13 9.22947e-14 3.32538e-13 3.08367e-14 0 0 6.562e-14 1.83554e-13 3.04857e-13 1.00849e-13 0 0 1.46985e-13 1.83583e-13 2.00249e-13 2.89712e-13 0 0 4.17483e-14 4.68337e-13 -1.45704e-13 5.53928e-13 0 0 4.78309e-13 -1.5223e-13 4.55048e-13 1.31898e-13 0 0 6.24847e-13 -2.88388e-13 5.53251e-13 3.9487e-14 0 0 1.40784e-13 4.91736e-13 -1.32059e-13 4.55398e-13 0 0 7.93831e-14 4.84527e-13 4.25638e-14 3.16867e-13 0 0 1.42414e-13 3.40628e-13 1.69776e-13 2.51129e-13 0 0 4.28875e-13 -2.02056e-13 7.22753e-13 -1.59483e-13 0 0 5.58867e-13 -3.2545e-13 7.88802e-13 -2.41309e-13 0 0 1.05849e-13 6.46761e-13 -3.60609e-13 5.47804e-13 0 0 2.3203e-13 4.82486e-13 -9.23424e-14 2.29147e-13 0 0 4.66244e-13 1.55968e-13 1.8915e-13 -2.3092e-14 0 0 5.62675e-13 -8.2813e-14 3.60512e-13 -2.4871e-14 0 0 3.48128e-13 1.37629e-14 4.64567e-13 -1.34424e-13 0 0 7.74158e-14 3.44336e-13 2.21398e-13 -2.36302e-14 0 0 -2.42692e-15 4.61075e-13 -3.13013e-14 2.37633e-13 0 0 1.99239e-13 1.59684e-13 -8.80709e-14 4.63755e-13 0 0 6.43523e-13 -6.60087e-13 6.66582e-13 -1.49825e-14 0 0 2.97795e-13 -2.35732e-13 2.99573e-13 2.67583e-13 0 0 -2.40364e-13 5.45146e-13 -3.63811e-13 7.63079e-13 0 0 -3.75099e-13 5.50252e-13 -8.38285e-14 5.63221e-13 0 0 2.12863e-13 -5.04201e-13 1.00044e-12 8.61863e-15 0 0 4.72148e-13 -1.00794e-12 1.40106e-12 -2.73779e-13 0 0 -2.24315e-14 -2.77024e-13 4.7461e-13 3.1012e-13 0 0 -3.17352e-13 4.0856e-13 -3.76249e-13 8.07065e-13 0 0 -7.0661e-14 2.01025e-13 -1.91936e-13 5.87041e-13 0 0 2.9722e-13 -5.03681e-13 5.57007e-13 2.62399e-13 0 0 9.54731e-14 -4.35504e-13 7.95643e-13 8.21038e-14 0 0 -4.49136e-13 2.95724e-13 3.53562e-13 2.35694e-13 0 0 -1.22145e-13 -7.72087e-14 5.62203e-13 2.25763e-13 0 0 3.23616e-13 -5.2365e-13 6.45408e-13 2.30895e-13 0 0 -4.6064e-14 7.36187e-15 -1.66048e-13 8.16424e-13 0 0 2.5196e-14 -3.18896e-13 4.46823e-14 8.12336e-13 0 0 9.37451e-14 -3.63251e-13 3.47274e-14 7.7168e-13 0 0 1.71665e-13 -3.42907e-13 1.53451e-13 4.02138e-13 0 0 5.17124e-14 -1.95714e-13 2.91554e-13 -1.49683e-14 0 0 -3.2867e-13 3.30647e-13 -7.48627e-14 5.2551e-14 0 0 -5.71146e-14 -6.78718e-14 2.48224e-13 -1.77426e-13 0 0 3.19896e-14 -8.01957e-14 2.95014e-14 -3.36996e-14 0 0 7.59507e-14 -1.38077e-13 3.16802e-14 -2.68809e-14 0 0 5.6193e-14 -1.46943e-13 2.57464e-14 1.49961e-13 0 0 -2.25352e-13 3.09678e-13 -3.62417e-13 4.03738e-13 0 0 -2.04514e-13 2.26467e-13 -6.94617e-14 6.70691e-14 0 0 -8.63477e-14 1.18023e-13 -6.19331e-14 2.66846e-13 0 0 1.73449e-13 -2.63746e-13 1.9457e-13 3.33514e-13 0 0 -5.5577e-15 -1.52717e-13 2.36385e-13 2.24797e-13 0 0 -4.13681e-13 4.11398e-13 -2.5965e-13 4.76434e-13 0 0 -1.74325e-14 -9.69288e-15 7.32481e-14 2.18893e-13 0 0 3.6538e-13 -2.42895e-13 1.1024e-13 8.3531e-14 0 0 6.87597e-13 -5.89584e-13 5.49968e-13 -4.54262e-13 0 0 4.03148e-13 -2.09157e-13 3.89993e-13 -4.61245e-13 0 0 -3.08859e-13 9.1279e-13 -8.78014e-13 6.23519e-13 0 0 5.56471e-13 -4.4354e-13 3.35939e-13 7.32134e-14 0 0 1.1487e-12 -1.30047e-12 1.15158e-12 -4.70498e-13 0 0 3.6624e-13 -6.03566e-14 -6.64103e-14 1.52708e-13 0 0 -2.98946e-13 7.60599e-13 -6.19777e-13 3.54906e-13 0 0 -3.29237e-13 7.50091e-13 -6.37868e-13 4.71755e-13 0 0 8.98803e-13 -1.1417e-12 1.06578e-12 -3.17511e-13 0 0 1.03986e-12 -1.1231e-12 1.093e-12 -2.92959e-13 0 0 -2.38166e-13 1.1218e-12 -9.08053e-13 6.71429e-13 0 0 -6.3462e-13 1.72214e-12 -1.2693e-12 6.87475e-13 0
				</DataArray>
				<DataArray Name="VitesseY" type="Float32" format="ascii">