<?xml version="1.0"?>
<VTKFile type="PolyData">
	<PolyData>
		<Piece NumberOfPoints="1206" NumberOfPolys="1000">
			<Points>
				<DataArray type="Float32" NumberOfComponents="3" format="ascii">
 0 0 0 0.02 0 0 0.04 0 0 0.06 0 0 0.08 0 0 0.1 0 0 0 0.005 0 0.02 0.005 0 0.04 0.005 0 0.06 0.005 0 0.08 0.005 0 0.1 0.005 0 0 0.01 0 0.02 0.01 0 0.04 0.01 0 0.06 0.01 0 0.08 0.01 0 0.1 0.01 0 0 0.015 0 0.02 0.015 0 0.04 0.015 0 0.06 0.015 0 0.08 0.015 0 0.1 0.015 0 0 0.02 0 0.02 0.02 0 0.04 0.02 0 0.06 0.02 0 0.08 0.02 0 0.1 0.02 0 0 0.025 0 0.02 0.025 0 0.04 0.025 0 0.06 0.025 0 0.08 0.025 0 0.1 0.025 0 0 0.03 0 0.02 0.03 0 0.04 0.03 0 0.06 0.03 0 0.08 0.03 0 0.1 0.03 0 0 0.035 0 0.02 0.035 0 0.04 0.035 0 0.06 0.035 0 0.08 0.035 0 0.1 0.035 0 0 0.04 0 0.02 0.04 0 0.04 0.04 0 0.06 0.04 0 0.08 0.04 0 0.1 0.04 0 0 0.045 0 0.02 0.045 0 0.04 0.045 0 0.06 0.045 0 0.08 0.045 0 0.1 0.045 0 0 0.05 0 0.02 0.05 0 0.04 0.05 0 0.06 0.05 0 0.08 0.05 0 0.1 0.05 0 0 0.055 0 0.02 0.055 0 0.04 0.055 0 0.06 0.055 0 0.08 0.055 0 0.1 0.055 0 0 0.06 0 0.02 0.06 0 0.04 0.06 0 0.06 0.06 0 0.08 0.06 0 0.1 0.06 0 0 0.065 0 0.02 0.065 0 0.04 0.065 0 0.06 0.065 0 0.08 0.065 0 0.1 0.065 0 0 0.07 0 0.02 0.07 0 0.04 0.07 0 0.06 0.07 0 0.08 0.07 0 0.1 0.07 0 0 0.075 0 0.02 0.075 0 0.04 0.075 0 0.06 0.075 0 0.08 0.075 0 0.1 0.075 0 0 0.08 0 0.02 0.08 0 0.04 0.08 0 0.06 0.08 0 0.08 0.08 0 0.1 0.08 0 0 0.085 0 0.02 0.085 0 0.04 0.085 0 0.06 0.085 0 0.08 0.085 0 0.1 0.085 0 0 0.09 0 0.02 0.09 0 0.04 0.09 0 0.06 0.09 0 0.08 0.09 0 0.1 0.09 0 0 0.095 0 0.02 0.095 0 0.04 0.095 0 0.06 0.095 0 0.08 0.095 0 0.1 0.095 0 0 0.1 0 0.02 0.1 0 0.04 0.1 0 0.06 0.1 0 0.08 0.1 0 0.1 0.1 0 0 0.105 0 0.02 0.105 0 0.04 0.105 0 0.06 0.105 0 0.08 0.105 0 0.1 0.105 0 0 0.11 0 0.02 0.11 0 0.04 0.11 0 0.06 0.11 0 0.08 0.11 0 0.1 0.11 0 0 0.115 0 0.02 0.115 0 0.04 0.115 0 0.06 0.115 0 0.08 0.115 0 0.1 0.115 0 0 0.12 0 0.02 0.12 0 0.04 0.12 0 0.06 0.12 0 0.08 0.12 0 0.1 0.12 0 0 0.125 0 0.02 0.125 0 0.04 0.125 0 0.06 0.125 0 0.08 0.125 0 0.1 0.125 0 0 0.13 0 0.02 0.13 0 0.04 0.13 0 0.06 0.13 0 0.08 0.13 0 0.1 0.13 0 0 0.135 0 0.02 0.135 0 0.04 0.135 0 0.06 0.135 0 0.08 0.135 0 0.1 0.135 0 0 0.14 0 0.02 0.14 0 0.04 0.14 0 0.06 0.14 0 0.08 0.14 0 0.1 0.14 0 0 0.145 0 0.02 0.145 0 0.04 0.145 0 0.06 0.145 0 0.08 0.145 0 0.1 0.145 0 0 0.15 0 0.02 0.15 0 0.04 0.15 0 0.06 0.15 0 0.08 0.15 0 0.1 0.15 0 0 0.155 0 0.02 0.155 0 0.04 0.155 0 0.06 0.155 0 0.08 0.155 0 0.1 0.155 0 0 0.16 0 0.02 0.16 0 0.04 0.16 0 0.06 0.16 0 0.08 0.16 0 0.1 0.16 0 0 0.165 0 0.02 0.165 0 0.04 0.165 0 0.06 0.165 0 0.08 0.165 0 0.1 0.165 0 0 0.17 0 0.02 0.17 0 0.04 0.17 0 0.06 0.17 0 0.08 0.17 0 0.1 0.17 0 0 0.175 0 0.02 0.175 0 0.04 0.175 0 0.06 0.175 0 0.08 0.175 0 0.1 0.175 0 0 0.18 0 0.02 0.18 0 0.04 0.18 0 0.06 0.18 0 0.08 0.18 0 0.1 0.18 0 0 0.185 0 0.02 0.185 0 0.04 0.185 0 0.06 0.185 0 0.08 0.185 0 0.1 0.185 0 0 0.19 0 0.02 0.19 0 0.04 0.19 0 0.06 0.19 0 0.08 0.19 0 0.1 0.19 0 0 0.195 0 0.02 0.195 0 0.04 0.195 0 0.06 0.195 0 0.08 0.195 0 0.1 0.195 0 0 0.2 0 0.02 0.2 0 0.04 0.2 0 0.06 0.2 0 0.08 0.2 0 0.1 0.2 0 0 0.205 0 0.02 0.205 0 0.04 0.205 0 0.06 0.205 0 0.08 0.205 0 0.1 0.205 0 0 0.21 0 0.02 0.21 0 0.04 0.21 0 0.06 0.21 0 0.08 0.21 0 0.1 0.21 0 0 0.215 0 0.02 0.215 0 0.04 0.215 0 0.06 0.215 0 0.08 0.215 0 0.1 0.215 0 0 0.22 0 0.02 0.22 0 0.04 0.22 0 0.06 0.22 0 0.08 0.22 0 0.1 0.22 0 0 0.225 0 0.02 0.225 0 0.04 0.225 0 0.06 0.225 0 0.08 0.225 0 0.1 0.225 0 0 0.23 0 0.02 0.23 0 0.04 0.23 0 0.06 0.23 0 0.08 0.23 0 0.1 0.23 0 0 0.235 0 0.02 0.235 0 0.04 0.235 0 0.06 0.235 0 0.08 0.235 0 0.1 0.235 0 0 0.24 0 0.02 0.24 0 0.04 0.24 0 0.06 0.24 0 0.08 0.24 0 0.1 0.24 0 0 0.245 0 0.02 0.245 0 0.04 0.245 0 0.06 0.245 0 0.08 0.245 0 0.1 0.245 0 0 0.25 0 0.02 0.25 0 0.04 0.25 0 0.06 0.25 0 0.08 0.25 0 0.1 0.25 0 0 0.255 0 0.02 0.255 0 0.04 0.255 0 0.06 0.255 0 0.08 0.255 0 0.1 0.255 0 0 0.26 0 0.02 0.26 0 0.04 0.26 0 0.06 0.26 0 0.08 0.26 0 0.1 0.26 0 0 0.265 0 0.02 0.265 0 0.04 0.265 0 0.06 0.265 0 0.08 0.265 0 0.1 0.265 0 0 0.27 0 0.02 0.27 0 0.04 0.27 0 0.06 0.27 0 0.08 0.27 0 0.1 0.27 0 0 0.275 0 0.02 0.275 0 0.04 0.275 0 0.06 0.275 0 0.08 0.275 0 0.1 0.275 0 0 0.28 0 0.02 0.28 0 0.04 0.28 0 0.06 0.28 0 0.08 0.28 0 0.1 0.28 0 0 0.285 0 0.02 0.285 0 0.04 0.285 0 0.06 0.285 0 0.08 0.285 0 0.1 0.285 0 0 0.29 0 0.02 0.29 0 0.04 0.29 0 0.06 0.29 0 0.08 0.29 0 0.1 0.29 0 0 0.295 0 0.02 0.295 0 0.04 0.295 0 0.06 0.295 0 0.08 0.295 0 0.1 0.295 0 0 0.3 0 0.02 0.3 0 0.04 0.3 0 0.06 0.3 0 0.08 0.3 0 0.1 0.3 0 0 0.305 0 0.02 0.305 0 0.04 0.305 0 0.06 0.305 0 0.08 0.305 0 0.1 0.305 0 0 0.31 0 0.02 0.31 0 0.04 0.31 0 0.06 0.31 0 0.08 0.31 0 0.1 0.31 0 0 0.315 0 0.02 0.315 0 0.04 0.315 0 0.06 0.315 0 0.08 0.315 0 0.1 0.315 0 0 0.32 0 0.02 0.32 0 0.04 0.32 0 0.06 0.32 0 0.08 0.32 0 0.1 0.32 0 0 0.325 0 0.02 0.325 0 0.04 0.325 0 0.06 0.325 0 0.08 0.325 0 0.1 0.325 0 0 0.33 0 0.02 0.33 0 0.04 0.33 0 0.06 0.33 0 0.08 0.33 0 0.1 0.33 0 0 0.335 0 0.02 0.335 0 0.04 0.335 0 0.06 0.335 0 0.08 0.335 0 0.1 0.335 0 0 0.34 0 0.02 0.34 0 0.04 0.34 0 0.06 0.34 0 0.08 0.34 0 0.1 0.34 0 0 0.345 0 0.02 0.345 0 0.04 0.345 0 0.06 0.345 0 0.08 0.345 0 0.1 0.345 0 0 0.35 0 0.02 0.35 0 0.04 0.35 0 0.06 0.35 0 0.08 0.35 0 0.1 0.35 0 0 0.355 0 0.02 0.355 0 0.04 0.355 0 0.06 0.355 0 0.08 0.355 0 0.1 0.355 0 0 0.36 0 0.02 0.36 0 0.04 0.36 0 0.06 0.36 0 0.08 0.36 0 0.1 0.36 0 0 0.365 0 0.02 0.365 0 0.04 0.365 0 0.06 0.365 0 0.08 0.365 0 0.1 0.365 0 0 0.37 0 0.02 0.37 0 0.04 0.37 0 0.06 0.37 0 0.08 0.37 0 0.1 0.37 0 0 0.375 0 0.02 0.375 0 0.04 0.375 0 0.06 0.375 0 0.08 0.375 0 0.1 0.375 0 0 0.38 0 0.02 0.38 0 0.04 0.38 0 0.06 0.38 0 0.08 0.38 0 0.1 0.38 0 0 0.385 0 0.02 0.385 0 0.04 0.385 0 0.06 0.385 0 0.08 0.385 0 0.1 0.385 0 0 0.39 0 0.02 0.39 0 0.04 0.39 0 0.06 0.39 0 0.08 0.39 0 0.1 0.39 0 0 0.395 0 0.02 0.395 0 0.04 0.395 0 0.06 0.395 0 0.08 0.395 0 0.1 0.395 0 0 0.4 0 0.02 0.4 0 0.04 0.4 0 0.06 0.4 0 0.08 0.4 0 0.1 0.4 0 0 0.405 0 0.02 0.405 0 0.04 0.405 0 0.06 0.405 0 0.08 0.405 0 0.1 0.405 0 0 0.41 0 0.02 0.41 0 0.04 0.41 0 0.06 0.41 0 0.08 0.41 0 0.1 0.41 0 0 0.415 0 0.02 0.415 0 0.04 0.415 0 0.06 0.415 0 0.08 0.415 0 0.1 0.415 0 0 0.42 0 0.02 0.42 0 0.04 0.42 0 0.06 0.42 0 0.08 0.42 0 0.1 0.42 0 0 0.425 0 0.02 0.425 0 0.04 0.425 0 0.06 0.425 0 0.08 0.425 0 0.1 0.425 0 0 0.43 0 0.02 0.43 0 0.04 0.43 0 0.06 0.43 0 0.08 0.43 0 0.1 0.43 0 0 0.435 0 0.02 0.435 0 0.04 0.435 0 0.06 0.435 0 0.08 0.435 0 0.1 0.435 0 0 0.44 0 0.02 0.44 0 0.04 0.44 0 0.06 0.44 0 0.08 0.44 0 0.1 0.44 0 0 0.445 0 0.02 0.445 0 0.04 0.445 0 0.06 0.445 0 0.08 0.445 0 0.1 0.445 0 0 0.45 0 0.02 0.45 0 0.04 0.45 0 0.06 0.45 0 0.08 0.45 0 0.1 0.45 0 0 0.455 0 0.02 0.455 0 0.04 0.455 0 0.06 0.455 0 0.08 0.455 0 0.1 0.455 0 0 0.46 0 0.02 0.46 0 0.04 0.46 0 0.06 0.46 0 0.08 0.46 0 0.1 0.46 0 0 0.465 0 0.02 0.465 0 0.04 0.465 0 0.06 0.465 0 0.08 0.465 0 0.1 0.465 0 0 0.47 0 0.02 0.47 0 0.04 0.47 0 0.06 0.47 0 0.08 0.47 0 0.1 0.47 0 0 0.475 0 0.02 0.475 0 0.04 0.475 0 0.06 0.475 0 0.08 0.475 0 0.1 0.475 0 0 0.48 0 0.02 0.48 0 0.04 0.48 0 0.06 0.48 0 0.08 0.48 0 0.1 0.48 0 0 0.485 0 0.02 0.485 0 0.04 0.485 0 0.06 0.485 0 0.08 0.485 0 0.1 0.485 0 0 0.49 0 0.02 0.49 0 0.04 0.49 0 0.06 0.49 0 0.08 0.49 0 0.1 0.49 0 0 0.495 0 0.02 0.495 0 0.04 0.495 0 0.06 0.495 0 0.08 0.495 0 0.1 0.495 0 0 0.5 0 0.02 0.5 0 0.04 0.5 0 0.06 0.5 0 0.08 0.5 0 0.1 0.5 0 0 0.505 0 0.02 0.505 0 0.04 0.505 0 0.06 0.505 0 0.08 0.505 0 0.1 0.505 0 0 0.51 0 0.02 0.51 0 0.04 0.51 0 0.06 0.51 0 0.08 0.51 0 0.1 0.51 0 0 0.515 0 0.02 0.515 0 0.04 0.515 0 0.06 0.515 0 0.08 0.515 0 0.1 0.515 0 0 0.52 0 0.02 0.52 0 0.04 0.52 0 0.06 0.52 0 0.08 0.52 0 0.1 0.52 0 0 0.525 0 0.02 0.525 0 0.04 0.525 0 0.06 0.525 0 0.08 0.525 0 0.1 0.525 0 0 0.53 0 0.02 0.53 0 0.04 0.53 0 0.06 0.53 0 0.08 0.53 0 0.1 0.53 0 0 0.535 0 0.02 0.535 0 0.04 0.535 0 0.06 0.535 0 0.08 0.535 0 0.1 0.535 0 0 0.54 0 0.02 0.54 0 0.04 0.54 0 0.06 0.54 0 0.08 0.54 0 0.1 0.54 0 0 0.545 0 0.02 0.545 0 0.04 0.545 0 0.06 0.545 0 0.08 0.545 0 0.1 0.545 0 0 0.55 0 0.02 0.55 0 0.04 0.55 0 0.06 0.55 0 0.08 0.55 0 0.1 0.55 0 0 0.555 0 0.02 0.555 0 0.04 0.555 0 0.06 0.555 0 0.08 0.555 0 0.1 0.555 0 0 0.56 0 0.02 0.56 0 0.04 0.56 0 0.06 0.56 0 0.08 0.56 0 0.1 0.56 0 0 0.565 0 0.02 0.565 0 0.04 0.565 0 0.06 0.565 0 0.08 0.565 0 0.1 0.565 0 0 0.57 0 0.02 0.57 0 0.04 0.57 0 0.06 0.57 0 0.08 0.57 0 0.1 0.57 0 0 0.575 0 0.02 0.575 0 0.04 0.575 0 0.06 0.575 0 0.08 0.575 0 0.1 0.575 0 0 0.58 0 0.02 0.58 0 0.04 0.58 0 0.06 0.58 0 0.08 0.58 0 0.1 0.58 0 0 0.585 0 0.02 0.585 0 0.04 0.585 0 0.06 0.585 0 0.08 0.585 0 0.1 0.585 0 0 0.59 0 0.02 0.59 0 0.04 0.59 0 0.06 0.59 0 0.08 0.59 0 0.1 0.59 0 0 0.595 0 0.02 0.595 0 0.04 0.595 0 0.06 0.595 0 0.08 0.595 0 0.1 0.595 0 0 0.6 0 0.02 0.6 0 0.04 0.6 0 0.06 0.6 0 0.08 0.6 0 0.1 0.6 0 0 0.605 0 0.02 0.605 0 0.04 0.605 0 0.06 0.605 0 0.08 0.605 0 0.1 0.605 0 0 0.61 0 0.02 0.61 0 0.04 0.61 0 0.06 0.61 0 0.08 0.61 0 0.1 0.61 0 0 0.615 0 0.02 0.615 0 0.04 0.615 0 0.06 0.615 0 0.08 0.615 0 0.1 0.615 0 0 0.62 0 0.02 0.62 0 0.04 0.62 0 0.06 0.62 0 0.08 0.62 0 0.1 0.62 0 0 0.625 0 0.02 0.625 0 0.04 0.625 0 0.06 0.625 0 0.08 0.625 0 0.1 0.625 0 0 0.63 0 0.02 0.63 0 0.04 0.63 0 0.06 0.63 0 0.08 0.63 0 0.1 0.63 0 0 0.635 0 0.02 0.635 0 0.04 0.635 0 0.06 0.635 0 0.08 0.635 0 0.1 0.635 0 0 0.64 0 0.02 0.64 0 0.04 0.64 0 0.06 0.64 0 0.08 0.64 0 0.1 0.64 0 0 0.645 0 0.02 0.645 0 0.04 0.645 0 0.06 0.645 0 0.08 0.645 0 0.1 0.645 0 0 0.65 0 0.02 0.65 0 0.04 0.65 0 0.06 0.65 0 0.08 0.65 0 0.1 0.65 0 0 0.655 0 0.02 0.655 0 0.04 0.655 0 0.06 0.655 0 0.08 0.655 0 0.1 0.655 0 0 0.66 0 0.02 0.66 0 0.04 0.66 0 0.06 0.66 0 0.08 0.66 0 0.1 0.66 0 0 0.665 0 0.02 0.665 0 0.04 0.665 0 0.06 0.665 0 0.08 0.665 0 0.1 0.665 0 0 0.67 0 0.02 0.67 0 0.04 0.67 0 0.06 0.67 0 0.08 0.67 0 0.1 0.67 0 0 0.675 0 0.02 0.675 0 0.04 0.675 0 0.06 0.675 0 0.08 0.675 0 0.1 0.675 0 0 0.68 0 0.02 0.68 0 0.04 0.68 0 0.06 0.68 0 0.08 0.68 0 0.1 0.68 0 0 0.685 0 0.02 0.685 0 0.04 0.685 0 0.06 0.685 0 0.08 0.685 0 0.1 0.685 0 0 0.69 0 0.02 0.69 0 0.04 0.69 0 0.06 0.69 0 0.08 0.69 0 0.1 
[...]
			<PointData Scalars="VitesseX">
				<DataArray Name="VitesseX" type="Float32" format="ascii">
 0 5.50969e-15 -1.49622e-14 -2.23739e-14 -2.94376e-14 0 0 4.57525e-15 -1.44579e-14 -2.31634e-14 -2.9837e-14 0 0 4.11632e-15 -1.6587e-14 -2.00206e-14 -3.37803e-14 0 0 -5.76113e-15 -6.27212e-15 -3.10643e-14 -2.65634e-14 0 0 -7.91676e-15 -1.12895e-14 -2.60635e-14 -3.21416e-14 0 0 1.87098e-15 -3.38931e-14 -9.14386e-15 -4.27798e-14 0 0 -9.9104e-15 -2.76975e-14 -2.43317e-14 -3.11969e-14 0 0 -2.44647e-14 -1.90024e-14 -3.81991e-14 -2.40019e-14 0 0 -2.05729e-14 -3.59944e-14 -2.74178e-14 -3.23232e-14 0 0 -1.00457e-14 -5.71257e-14 -1.72441e-14 -2.87461e-14 0 0 -1.41059e-14 -5.24035e-14 -2.78682e-14 -1.15073e-14 0 0 -2.44966e-14 -4.76206e-14 -2.66084e-14 -1.53141e-14 0 0 -1.94919e-14 -6.93701e-14 7.02161e-15 -3.70667e-14 0 0 -3.61347e-14 -4.42416e-14 -8.57775e-15 -2.3126e-14 0 0 -3.09064e-14 -4.10562e-14 -1.03227e-14 -7.84644e-15 0 0 2.32427e-15 -6.92176e-14 1.47406e-14 -6.30205e-15 0 0 1.86407e-14 -4.87066e-14 -1.50085e-14 2.27076e-14 0 0 9.93826e-15 -1.03599e-14 -4.26756e-14 3.82735e-14 0 0 -1.99754e-14 2.74846e-14 -4.52345e-14 1.63954e-14 0 0 -1.95337e-14 3.05271e-14 -2.24827e-14 -2.70386e-14 0 0 -3.08548e-14 6.50668e-14 -5.00928e-14 -3.07271e-14 0 0 -1.49693e-14 4.17285e-14 -5.29439e-14 -1.88198e-14 0 0 2.27392e-14 -2.15959e-14 -2.45107e-14 -2.14097e-14 0 0 -4.58226e-15 3.29778e-14 -9.21523e-14 6.39356e-15 0 0 3.05803e-15 1.78065e-14 -9.18042e-14 -9.90668e-16 0 0 2.8438e-14 -6.03804e-14 -2.72498e-14 -3.53719e-14 0 0 1.77041e-14 -6.91968e-14 -2.66281e-14 -3.19157e-14 0 0 4.92346e-15 -6.47935e-14 -1.45202e-14 -4.62026e-14 0 0 -2.13048e-14 -1.19072e-14 -4.56832e-14 -7.06208e-14 0 0 -3.74951e-14 3.89981e-14 -9.59234e-14 -6.2542e-14 0 0 -2.47902e-14 1.93409e-14 -9.37514e-14 -5.10325e-14 0 0 -1.86648e-14 -3.85598e-15 -9.27814e-14 -5.53764e-14 0 0 -2.45574e-14 3.111e-15 -1.07272e-13 -5.71555e-14 0 0 -2.5035e-14 1.41806e-14 -1.22162e-13 -4.66406e-14 0 0 -6.42199e-15 -2.74922e-14 -8.2526e-14 -4.69739e-14 0 0 -1.19902e-14 -3.54896e-14 -7.20467e-14 -3.02895e-14 0 0 -2.08102e-14 -2.40503e-15 -1.05502e-13 -3.57653e-14 0 0 -2.31128e-15 -2.40887e-14 -7.26581e-14 -1.00527e-13 0 0 -6.49623e-15 -4.60558e-14 -5.73629e-14 -9.57632e-14 0 0 -5.22569e-14 -2.59816e-15 -1.06168e-13 -1.12435e-14 0 0 -1.05167e-13 4.70255e-14 -1.08074e-13 3.49386e-14 0 0 -8.61404e-14 9.17734e-15 -2.58052e-14 -1.31624e-14 0 0 -2.85371e-14 -5.4285e-14 1.0163e-14 -7.50165e-14 0 0 -6.17823e-14 -2.47861e-14 5.30922e-15 -1.24546e-13 0 0 -1.05806e-13 4.8695e-14 -1.93284e-14 -1.36456e-13 0 0 -7.12148e-14 3.71598e-14 -5.2239e-14 -9.19628e-14 0 0 -8.14281e-14 3.90297e-14 -7.17639e-14 -3.6381e-14 0 0 -1.07243e-13 8.42229e-16 1.78201e-14 -7.06548e-14 0 0 -6.10887e-14 -1.24108e-13 1.46222e-13 -1.1759e-13 0 0 -1.58922e-14 -1.8255e-13 1.49405e-13 -7.55131e-14 0 0 -6.19421e-14 -1.68957e-13 1.11913e-13 -3.49791e-14 0 0 -2.95309e-14 -1.76895e-13 9.50818e-14 -5.70583e-14 0 0 -9.03533e-14 -4.18353e-14 -7.37869e-14 9.26201e-15 0 0 -1.71002e-13 2.54264e-14 -1.0743e-13 -3.4732e-14 0 0 -6.55045e-14 -1.2491e-13 3.76201e-14 -1.89213e-13 0 0 6.96324e-15 -2.59949e-13 1.55545e-13 -2.51508e-13 0 0 -7.58287e-14 -1.90646e-13 9.61487e-14 -1.6545e-13 0 0 -1.42091e-13 -1.20152e-13 -4.84897e-14 -4.44561e-14 0 0 -8.4197e-14 -2.53074e-13 1.96729e-14 -1.31849e-13 0 0 -1.13425e-13 -1.7517e-13 -8.58596e-14 -1.62702e-13 0 0 -1.12816e-13 -1.13638e-13 -1.56281e-13 -2.12934e-13 0 0 -5.22397e-14 -1.69396e-13 -1.48688e-13 -2.03499e-13 0 0 -1.21086e-14 -1.95404e-13 -1.35527e-13 -1.72959e-13 0 0 -5.41442e-14 -1.80668e-13 -9.42509e-14 -1.70214e-13 0 0 -1.65665e-13 -1.56269e-13 -6.68692e-14 -1.22408e-13 0 0 -2.70165e-13 -1.48509e-13 -3.66692e-14 -1.15226e-13 0 0 -2.9791e-13 -1.2618e-13 -5.2416e-14 -1.10839e-13 0 0 -2.33541e-13 -1.7526e-13 -8.96531e-15 -1.57878e-13 0 0 -1.68161e-13 -2.54541e-13 4.7973e-14 -2.13866e-13 0 0 -1.45789e-13 -2.39579e-13 -2.23451e-14 -1.99368e-13 0 0 -1.25552e-13 -2.17523e-13 -9.29993e-14 -1.95635e-13 0 0 -1.1814e-13 -2.37644e-13 -1.33655e-13 -2.19055e-13 0 0 -1.3689e-13 -2.59372e-13 -9.35967e-14 -2.67188e-13 0 0 -1.66527e-13 -2.76199e-13 -1.11355e-13 -2.56451e-13 0 0 -1.985e-13 -2.88583e-13 -1.25321e-13 -2.53708e-13 0 0 -2.18872e-13 -3.04477e-13 -9.59652e-14 -2.6035e-13 0 0 -2.41877e-13 -3.16845e-13 -3.65594e-14 -2.77784e-13 0 0 -3.03375e-13 -2.79717e-13 -6.58794e-15 -2.21794e-13 0 0 -4.09917e-13 -1.94428e-13 1.16853e-14 -1.22816e-13 0 0 -4.691e-13 -1.5586e-13 5.56369e-14 -1.13986e-13 0 0 -4.65559e-13 -1.84438e-13 1.80794e-13 -1.72919e-13 0 0 -4.27099e-13 -2.58463e-13 2.9438e-13 -2.80078e-13 0 0 -3.64746e-13 -3.18595e-13 3.06749e-13 -3.20458e-13 0 0 -2.92387e-13 -3.39233e-13 2.80542e-13 -3.16637e-13 0 0 -2.19281e-13 -3.28664e-13 2.03134e-13 -2.82612e-13 0 0 -1.54971e-13 -3.12315e-13 9.41465e-14 -2.40011e-13 0 0 -1.08615e-13 -2.82259e-13 -1.56177e-14 -2.16259e-13 0 0 -1.16382e-13 -2.43114e-13 -1.00391e-13 -1.84906e-13 0 0 -1.38105e-13 -1.96244e-13 -1.9883e-13 -1.28787e-13 0 0 -1.44866e-13 -1.6766e-13 -2.57774e-13 -1.10916e-13 0 0 -1.37103e-13 -1.69068e-13 -2.51746e-13 -1.29015e-13 0 0 -1.13504e-13 -1.87288e-13 -2.20319e-13 -1.86051e-13 0 0 -7.37121e-14 -2.31983e-13 -1.60683e-13 -2.5785e-13 0 0 -3.69597e-14 -2.76887e-13 -1.02686e-13 -3.38118e-13 0 0 -1.82106e-14 -2.93041e-13 -9.48018e-14 -4.52714e-13 0 0 -2.26255e-14 -2.79267e-13 -1.28016e-13 -5.23292e-13 0 0 -5.74774e-14 -2.17128e-13 -2.11749e-13 -5.18331e-13 0 0 -6.54227e-14 -1.30068e-13 -3.20014e-13 -5.01499e-13 0 0 -5.56445e-14 -1.0124e-13 -4.31035e-13 -4.80229e-13 0 0 -3.07466e-14 -1.04727e-13 -5.30044e-13 -4.53403e-13 0 0 1.26874e-14 -1.22452e-13 -5.88045e-13 -4.0413e-13 0 0 7.64632e-14 -1.62295e-13 -6.14452e-13 -3.47922e-13 0 0 1.59271e-13 -2.36045e-13 -6.1505e-13 -3.04421e-13 0 0 2.05809e-13 -3.21593e-13 -6.09049e-13 -2.58931e-13 0 0 2.06797e-13 -3.57031e-13 -5.99901e-13 -2.05505e-13 0 0 1.83828e-13 -3.69615e-13 -5.87604e-13 -1.61321e-13 0 0 1.3109e-13 -3.8233e-13 -5.62446e-13 -1.38059e-13 0 0 6.22763e-14 -3.74699e-13 -5.14549e-13 -1.37014e-13 0 0 -1.32539e-14 -3.45339e-13 -4.96223e-13 -1.42359e-13 0 0 -8.1748e-14 -3.16699e-13 -4.54182e-13 -1.64199e-13 0 0 -1.34984e-13 -3.18595e-13 -3.67306e-13 -2.38499e-13 0 0 -1.88281e-13 -3.1183e-13 -3.06992e-13 -2.3755e-13 0 0 -2.39759e-13 -2.82209e-13 -3.03135e-13 -2.08705e-13 0 0 -2.64688e-13 -2.63331e-13 -2.59457e-13 -2.61075e-13 0 0 -2.53693e-13 -2.7157e-13 -2.47638e-13 -2.63906e-13 0 0 -2.53946e-13 -2.44807e-13 -2.79157e-13 -2.20956e-13 0 0 -2.51041e-13 -2.44276e-13 -2.55159e-13 -2.10321e-13 0 0 -2.37204e-13 -2.48826e-13 -2.06293e-13 -2.01765e-13 0 0 -2.38906e-13 -2.40228e-13 -1.81519e-13 -1.95633e-13 0 0 -2.44094e-13 -2.25907e-13 -1.60738e-13 -1.64737e-13 0 0 -2.57412e-13 -1.77354e-13 -2.19752e-13 -8.50466e-14 0 0 -2.72057e-13 -1.42601e-13 -2.52011e-13 -3.03183e-14 0 0 -2.94818e-13 -1.41574e-13 -1.99072e-13 -4.46983e-14 0 0 -3.31564e-13 -1.21138e-13 -1.57949e-13 -4.95789e-14 0 0 -3.86759e-13 -8.49814e-14 -1.50884e-13 -1.72603e-14 0 0 -4.19687e-13 -4.83775e-14 -1.36324e-13 -1.28556e-14 0 0 -4.29886e-13 -3.33069e-14 -1.05008e-13 -2.02208e-14 0 0 -4.2666e-13 -2.5254e-14 -7.6052e-14 -3.03754e-14 0 0 -4.15089e-13 -2.67742e-14 -7.42868e-14 -2.67648e-14 0 0 -3.9914e-13 -3.10971e-14 -8.86018e-14 -1.83612e-14 0 0 -3.81719e-13 -3.35953e-14 -9.73145e-14 -1.28782e-14 0 0 -3.58095e-13 -5.05529e-14 -9.20207e-14 -2.15339e-14 0 0 -3.12045e-13 -1.29417e-13 -2.19265e-14 -1.05933e-13 0 0 -2.55661e-13 -2.16933e-13 -1.36582e-15 -1.02325e-13 0 0 -1.75776e-13 -3.23441e-13 -9.84004e-15 -8.99805e-14 0 0 -1.54373e-13 -3.64774e-13 1.37655e-14 -1.19434e-13 0 0 -1.76972e-13 -3.26275e-13 -4.10765e-15 -9.92232e-14 0 0 -1.93092e-13 -2.4893e-13 -8.89527e-14 -7.46787e-14 0 0 -1.82878e-13 -2.17806e-13 -1.82033e-13 -9.20547e-14 0 0 -1.31641e-13 -2.58831e-13 -1.46005e-13 -1.28784e-13 0 0 -1.27354e-13 -2.58635e-13 -1.57423e-13 -5.87992e-14 0 0 -1.42686e-13 -1.82221e-13 -2.46238e-13 -3.9519e-14 0 0 -1.51627e-13 -1.19511e-13 -3.34156e-13 -3.24668e-14 0 0 -1.38719e-13 -1.51322e-13 -3.03869e-13 -3.95992e-14 0 0 -1.09559e-13 -2.07981e-13 -2.43793e-13 -1.55991e-13 0 0 -1.21394e-13 -2.14813e-13 -2.38571e-13 -1.76501e-13 0 0 -1.56733e-13 -2.07668e-13 -2.6859e-13 -8.80498e-14 0 0 -1.43819e-13 -2.60733e-13 -2.46032e-13 -1.16751e-13 0 0 -1.39593e-13 -3.1261e-13 -2.43703e-13 -1.29403e-13 0 0 -1.53483e-13 -2.87194e-13 -3.65074e-13 -6.93539e-14 0 0 -1.56892e-13 -2.69481e-13 -4.69808e-13 -1.33923e-13 0 0 -1.57659e-13 -3.06553e-13 -4.32557e-13 -2.86175e-13 0 0 -1.58123e-13 -3.15395e-13 -4.23272e-13 -4.443e-13 0 0 -1.62114e-13 -2.74106e-13 -4.4978e-13 -4.89666e-13 0 0 -1.68414e-13 -2.78952e-13 -4.04665e-13 -4.36871e-13 0 0 -1.84725e-13 -3.00045e-13 -2.79443e-13 -2.96244e-13 0 0 -1.6902e-13 -3.69365e-13 -1.89857e-13 2.61143e-14 0 0 -1.91605e-13 -3.49875e-13 -2.19792e-13 1.38445e-13 0 0 -3.12314e-13 -1.87419e-13 -3.59557e-13 1.32506e-13 0 0 -3.32585e-13 -1.84719e-13 -2.89023e-13 -7.27636e-14 0 0 -2.27421e-13 -2.84845e-13 -2.1384e-13 -6.63352e-14 0 0 -1.09532e-13 -2.97041e-13 -3.82732e-13 2.28897e-13 0 0 -1.50055e-13 -2.57778e-13 -3.91164e-13 6.80855e-14 0 0 -2.65356e-13 -1.82902e-13 -3.17117e-13 -1.73088e-13 0 0 -2.92428e-13 -2.18567e-13 -2.4582e-13 -1.40534e-13 0 0 -3.18352e-13 -2.05628e-13 -2.74991e-13 -7.64755e-14 0 0 -2.99055e-13 -2.35389e-13 -3.02806e-13 -7.8466e-14 0 0 -2.7693e-13 -3.49819e-13 -1.4779e-13 -2.25246e-13 0 0 -3.70857e-13 -2.07733e-13 -2.67882e-13 -1.65884e-13 0 0 -3.25182e-13 -1.96272e-13 -3.3929e-13 -1.0403e-13 0 0 -2.4324e-13 -2.87945e-13 -3.02427e-13 -6.05031e-14 0 0 -2.21516e-13 -3.79884e-13 -2.01377e-13 -3.85772e-14 0 0 -2.15905e-13 -4.14819e-13 -1.15262e-13 -5.36699e-14 0 0 -2.4864e-13 -3.28861e-13 -1.8887e-13 1.13378e-14 0 0 -2.51248e-13 -3.52753e-13 -9.65216e-14 -9.10886e-14 0 0 -2.53717e-13 -3.6508e-13 -4.7021e-14 -1.71191e-13 0 0 -2.18071e-13 -3.78576e-13 -1.29117e-13 -8.44344e-14 0 0 -1.85624e-13 -3.92228e-13 -1.88042e-13 2.16823e-15 0 0 -1.75178e-13 -3.53462e-13 -2.49542e-13 6.6382e-15 0 0 -1.39623e-13 -3.95912e-13 -1.85857e-13 -1.73487e-13 0 0 -7.23782e-14 -4.81832e-13 -1.22684e-13 -2.90066e-13 0 0 -1.29369e-13 -2.96662e-13 -2.64088e-13 -2.95018e-13 0 0 -2.0577e-13 -1.14234e-13 -4.55525e-13 -2.06464e-13 0 0 -1.61777e-13 -1.92594e-13 -4.82115e-13 -8.13453e-14 0 0 -4.89481e-14 -3.99409e-13 -2.23056e-13 -2.32475e-13 0 0 -4.50528e-14 -3.92777e-13 -1.36713e-13 -3.21293e-13 0 0 -1.31522e-13 -2.69036e-13 -1.82335e-13 -2.90399e-13 0 0 -1.71382e-13 -2.72559e-13 -5.99245e-14 -3.21098e-13 0 0 -2.04306e-13 -2.34081e-13 -9.10621e-14 -2.35352e-13 0 0 -7.87482e-14 -3.79841e-13 -1.20712e-13 -1.07245e-14 0 0 -1.82761e-13 -2.78449e-13 -1.71645e-13 5.52917e-16 0 0 -3.82533e-13 -3.12049e-14 -4.22846e-13 -3.64455e-14 0 0 -1.4883e-13 -2.8455e-13 -3.5232e-13 -8.7842e-14 0 0 3.6626e-15 -4.60708e-13 -6.15523e-14 -3.3062e-13 0 0 -1.83321e-13 -2.21499e-13 -1.38503e-13 -2.60925e-13 0 0 -2.39057e-13 -1.80753e-13 -8.7743e-14 -2.35446e-13 0 0 -1.37524e-13 -2.54996e-13 -1.86906e-13 -6.31458e-14 0 0 -1.04114e-13 -3.32244e-13 -4.54279e-14 -1.05109e-13 0 0 -2.34576e-13 -2.56973e-13 1.3725e-13 -2.46183e-13 0 0 -3.07922e-13 -7.56558e-14 -1.52863e-13 3.79762e-14 0 0 -2.44982e-13 -1.00255e-13 -1.86604e-13 8.82821e-14 0
				</DataArray>
				<DataArray Name="VitesseY" type="Float32" format="ascii">