<?xml version="1.0"?>
<VTKFile type="PolyData">
	<PolyData>
		<Piece NumberOfPoints="1206" NumberOfPolys="1000">
			<Points>
				<DataArray type="Float32" NumberOfComponents="3" format="ascii">
 0 0 0 0.02 0 0 0.04 0 0 0.06 0 0 0.08 0 0 0.1 0 0 0 0.005 0 0.02 0.005 0 0.04 0.005 0 0.06 0.005 0 0.08 0.005 0 0.1 0.005 0 0 0.01 0 0.02 0.01 0 0.04 0.01 0 0.06 0.01 0 0.08 0.01 0 0.1 0.01 0 0 0.015 0 0.02 0.015 0 0.04 0.015 0 0.06 0.015 0 0.08 0.015 0 0.1 0.015 0 0 0.02 0 0.02 0.02 0 0.04 0.02 0 0.06 0.02 0 0.08 0.02 0 0.1 0.02 0 0 0.025 0 0.02 0.025 0 0.04 0.025 0 0.06 0.025 0 0.08 0.025 0 0.1 0.025 0 0 0.03 0 0.02 0.03 0 0.04 0.03 0 0.06 0.03 0 0.08 0.03 0 0.1 0.03 0 0 0.035 0 0.02 0.035 0 0.04 0.035 0 0.06 0.035 0 0.08 0.035 0 0.1 0.035 0 0 0.04 0 0.02 0.04 0 0.04 0.04 0 0.06 0.04 0 0.08 0.04 0 0.1 0.04 0 0 0.045 0 0.02 0.045 0 0.04 0.045 0 0.06 0.045 0 0.08 0.045 0 0.1 0.045 0 0 0.05 0 0.02 0.05 0 0.04 0.05 0 0.06 0.05 0 0.08 0.05 0 0.1 0.05 0 0 0.055 0 0.02 0.055 0 0.04 0.055 0 0.06 0.055 0 0.08 0.055 0 0.1 0.055 0 0 0.06 0 0.02 0.06 0 0.04 0.06 0 0.06 0.06 0 0.08 0.06 0 0.1 0.06 0 0 0.065 0 0.02 0.065 0 0.04 0.065 0 0.06 0.065 0 0.08 0.065 0 0.1 0.065 0 0 0.07 0 0.02 0.07 0 0.04 0.07 0 0.06 0.07 0 0.08 0.07 0 0.1 0.07 0 0 0.075 0 0.02 0.075 0 0.04 0.075 0 0.06 0.075 0 0.08 0.075 0 0.1 0.075 0 0 0.08 0 0.02 0.08 0 0.04 0.08 0 0.06 0.08 0 0.08 0.08 0 0.1 0.08 0 0 0.085 0 0.02 0.085 0 0.04 0.085 0 0.06 0.085 0 0.08 0.085 0 0.1 0.085 0 0 0.09 0 0.02 0.09 0 0.04 0.09 0 0.06 0.09 0 0.08 0.09 0 0.1 0.09 0 0 0.095 0 0.02 0.095 0 0.04 0.095 0 0.06 0.095 0 0.08 0.095 0 0.1 0.095 0 0 0.1 0 0.02 0.1 0 0.04 0.1 0 0.06 0.1 0 0.08 0.1 0 0.1 0.1 0 0 0.105 0 0.02 0.105 0 0.04 0.105 0 0.06 0.105 0 0.08 0.105 0 0.1 0.105 0 0 0.11 0 0.02 0.11 0 0.04 0.11 0 0.06 0.11 0 0.08 0.11 0 0.1 0.11 0 0 0.115 0 0.02 0.115 0 0.04 0.115 0 0.06 0.115 0 0.08 0.115 0 0.1 0.115 0 0 0.12 0 0.02 0.12 0 0.04 0.12 0 0.06 0.12 0 0.08 0.12 0 0.1 0.12 0 0 0.125 0 0.02 0.125 0 0.04 0.125 0 0.06 0.125 0 0.08 0.125 0 0.1 0.125 0 0 0.13 0 0.02 0.13 0 0.04 0.13 0 0.06 0.13 0 0.08 0.13 0 0.1 0.13 0 0 0.135 0 0.02 0.135 0 0.04 0.135 0 0.06 0.135 0 0.08 0.135 0 0.1 0.135 0 0 0.14 0 0.02 0.14 0 0.04 0.14 0 0.06 0.14 0 0.08 0.14 0 0.1 0.14 0 0 0.145 0 0.02 0.145 0 0.04 0.145 0 0.06 0.145 0 0.08 0.145 0 0.1 0.145 0 0 0.15 0 0.02 0.15 0 0.04 0.15 0 0.06 0.15 0 0.08 0.15 0 0.1 0.15 0 0 0.155 0 0.02 0.155 0 0.04 0.155 0 0.06 0.155 0 0.08 0.155 0 0.1 0.155 0 0 0.16 0 0.02 0.16 0 0.04 0.16 0 0.06 0.16 0 0.08 0.16 0 0.1 0.16 0 0 0.165 0 0.02 0.165 0 0.04 0.165 0 0.06 0.165 0 0.08 0.165 0 0.1 0.165 0 0 0.17 0 0.02 0.17 0 0.04 0.17 0 0.06 0.17 0 0.08 0.17 0 0.1 0.17 0 0 0.175 0 0.02 0.175 0 0.04 0.175 0 0.06 0.175 0 0.08 0.175 0 0.1 0.175 0 0 0.18 0 0.02 0.18 0 0.04 0.18 0 0.06 0.18 0 0.08 0.18 0 0.1 0.18 0 0 0.185 0 0.02 0.185 0 0.04 0.185 0 0.06 0.185 0 0.08 0.185 0 0.1 0.185 0 0 0.19 0 0.02 0.19 0 0.04 0.19 0 0.06 0.19 0 0.08 0.19 0 0.1 0.19 0 0 0.195 0 0.02 0.195 0 0.04 0.195 0 0.06 0.195 0 0.08 0.195 0 0.1 0.195 0 0 0.2 0 0.02 0.2 0 0.04 0.2 0 0.06 0.2 0 0.08 0.2 0 0.1 0.2 0 0 0.205 0 0.02 0.205 0 0.04 0.205 0 0.06 0.205 0 0.08 0.205 0 0.1 0.205 0 0 0.21 0 0.02 0.21 0 0.04 0.21 0 0.06 0.21 0 0.08 0.21 0 0.1 0.21 0 0 0.215 0 0.02 0.215 0 0.04 0.215 0 0.06 0.215 0 0.08 0.215 0 0.1 0.215 0 0 0.22 0 0.02 0.22 0 0.04 0.22 0 0.06 0.22 0 0.08 0.22 0 0.1 0.22 0 0 0.225 0 0.02 0.225 0 0.04 0.225 0 0.06 0.225 0 0.08 0.225 0 0.1 0.225 0 0 0.23 0 0.02 0.23 0 0.04 0.23 0 0.06 0.23 0 0.08 0.23 0 0.1 0.23 0 0 0.235 0 0.02 0.235 0 0.04 0.235 0 0.06 0.235 0 0.08 0.235 0 0.1 0.235 0 0 0.24 0 0.02 0.24 0 0.04 0.24 0 0.06 0.24 0 0.08 0.24 0 0.1 0.24 0 0 0.245 0 0.02 0.245 0 0.04 0.245 0 0.06 0.245 0 0.08 0.245 0 0.1 0.245 0 0 0.25 0 0.02 0.25 0 0.04 0.25 0 0.06 0.25 0 0.08 0.25 0 0.1 0.25 0 0 0.255 0 0.02 0.255 0 0.04 0.255 0 0.06 0.255 0 0.08 0.255 0 0.1 0.255 0 0 0.26 0 0.02 0.26 0 0.04 0.26 0 0.06 0.26 0 0.08 0.26 0 0.1 0.26 0 0 0.265 0 0.02 0.265 0 0.04 0.265 0 0.06 0.265 0 0.08 0.265 0 0.1 0.265 0 0 0.27 0 0.02 0.27 0 0.04 0.27 0 0.06 0.27 0 0.08 0.27 0 0.1 0.27 0 0 0.275 0 0.02 0.275 0 0.04 0.275 0 0.06 0.275 0 0.08 0.275 0 0.1 0.275 0 0 0.28 0 0.02 0.28 0 0.04 0.28 0 0.06 0.28 0 0.08 0.28 0 0.1 0.28 0 0 0.285 0 0.02 0.285 0 0.04 0.285 0 0.06 0.285 0 0.08 0.285 0 0.1 0.285 0 0 0.29 0 0.02 0.29 0 0.04 0.29 0 0.06 0.29 0 0.08 0.29 0 0.1 0.29 0 0 0.295 0 0.02 0.295 0 0.04 0.295 0 0.06 0.295 0 0.08 0.295 0 0.1 0.295 0 0 0.3 0 0.02 0.3 0 0.04 0.3 0 0.06 0.3 0 0.08 0.3 0 0.1 0.3 0 0 0.305 0 0.02 0.305 0 0.04 0.305 0 0.06 0.305 0 0.08 0.305 0 0.1 0.305 0 0 0.31 0 0.02 0.31 0 0.04 0.31 0 0.06 0.31 0 0.08 0.31 0 0.1 0.31 0 0 0.315 0 0.02 0.315 0 0.04 0.315 0 0.06 0.315 0 0.08 0.315 0 0.1 0.315 0 0 0.32 0 0.02 0.32 0 0.04 0.32 0 0.06 0.32 0 0.08 0.32 0 0.1 0.32 0 0 0.325 0 0.02 0.325 0 0.04 0.325 0 0.06 0.325 0 0.08 0.325 0 0.1 0.325 0 0 0.33 0 0.02 0.33 0 0.04 0.33 0 0.06 0.33 0 0.08 0.33 0 0.1 0.33 0 0 0.335 0 0.02 0.335 0 0.04 0.335 0 0.06 0.335 0 0.08 0.335 0 0.1 0.335 0 0 0.34 0 0.02 0.34 0 0.04 0.34 0 0.06 0.34 0 0.08 0.34 0 0.1 0.34 0 0 0.345 0 0.02 0.345 0 0.04 0.345 0 0.06 0.345 0 0.08 0.345 0 0.1 0.345 0 0 0.35 0 0.02 0.35 0 0.04 0.35 0 0.06 0.35 0 0.08 0.35 0 0.1 0.35 0 0 0.355 0 0.02 0.355 0 0.04 0.355 0 0.06 0.355 0 0.08 0.355 0 0.1 0.355 0 0 0.36 0 0.02 0.36 0 0.04 0.36 0 0.06 0.36 0 0.08 0.36 0 0.1 0.36 0 0 0.365 0 0.02 0.365 0 0.04 0.365 0 0.06 0.365 0 0.08 0.365 0 0.1 0.365 0 0 0.37 0 0.02 0.37 0 0.04 0.37 0 0.06 0.37 0 0.08 0.37 0 0.1 0.37 0 0 0.375 0 0.02 0.375 0 0.04 0.375 0 0.06 0.375 0 0.08 0.375 0 0.1 0.375 0 0 0.38 0 0.02 0.38 0 0.04 0.38 0 0.06 0.38 0 0.08 0.38 0 0.1 0.38 0 0 0.385 0 0.02 0.385 0 0.04 0.385 0 0.06 0.385 0 0.08 0.385 0 0.1 0.385 0 0 0.39 0 0.02 0.39 0 0.04 0.39 0 0.06 0.39 0 0.08 0.39 0 0.1 0.39 0 0 0.395 0 0.02 0.395 0 0.04 0.395 0 0.06 0.395 0 0.08 0.395 0 0.1 0.395 0 0 0.4 0 0.02 0.4 0 0.04 0.4 0 0.06 0.4 0 0.08 0.4 0 0.1 0.4 0 0 0.405 0 0.02 0.405 0 0.04 0.405 0 0.06 0.405 0 0.08 0.405 0 0.1 0.405 0 0 0.41 0 0.02 0.41 0 0.04 0.41 0 0.06 0.41 0 0.08 0.41 0 0.1 0.41 0 0 0.415 0 0.02 0.415 0 0.04 0.415 0 0.06 0.415 0 0.08 0.415 0 0.1 0.415 0 0 0.42 0 0.02 0.42 0 0.04 0.42 0 0.06 0.42 0 0.08 0.42 0 0.1 0.42 0 0 0.425 0 0.02 0.425 0 0.04 0.425 0 0.06 0.425 0 0.08 0.425 0 0.1 0.425 0 0 0.43 0 0.02 0.43 0 0.04 0.43 0 0.06 0.43 0 0.08 0.43 0 0.1 0.43 0 0 0.435 0 0.02 0.435 0 0.04 0.435 0 0.06 0.435 0 0.08 0.435 0 0.1 0.435 0 0 0.44 0 0.02 0.44 0 0.04 0.44 0 0.06 0.44 0 0.08 0.44 0 0.1 0.44 0 0 0.445 0 0.02 0.445 0 0.04 0.445 0 0.06 0.445 0 0.08 0.445 0 0.1 0.445 0 0 0.45 0 0.02 0.45 0 0.04 0.45 0 0.06 0.45 0 0.08 0.45 0 0.1 0.45 0 0 0.455 0 0.02 0.455 0 0.04 0.455 0 0.06 0.455 0 0.08 0.455 0 0.1 0.455 0 0 0.46 0 0.02 0.46 0 0.04 0.46 0 0.06 0.46 0 0.08 0.46 0 0.1 0.46 0 0 0.465 0 0.02 0.465 0 0.04 0.465 0 0.06 0.465 0 0.08 0.465 0 0.1 0.465 0 0 0.47 0 0.02 0.47 0 0.04 0.47 0 0.06 0.47 0 0.08 0.47 0 0.1 0.47 0 0 0.475 0 0.02 0.475 0 0.04 0.475 0 0.06 0.475 0 0.08 0.475 0 0.1 0.475 0 0 0.48 0 0.02 0.48 0 0.04 0.48 0 0.06 0.48 0 0.08 0.48 0 0.1 0.48 0 0 0.485 0 0.02 0.485 0 0.04 0.485 0 0.06 0.485 0 0.08 0.485 0 0.1 0.485 0 0 0.49 0 0.02 0.49 0 0.04 0.49 0 0.06 0.49 0 0.08 0.49 0 0.1 0.49 0 0 0.495 0 0.02 0.495 0 0.04 0.495 0 0.06 0.495 0 0.08 0.495 0 0.1 0.495 0 0 0.5 0 0.02 0.5 0 0.04 0.5 0 0.06 0.5 0 0.08 0.5 0 0.1 0.5 0 0 0.505 0 0.02 0.505 0 0.04 0.505 0 0.06 0.505 0 0.08 0.505 0 0.1 0.505 0 0 0.51 0 0.02 0.51 0 0.04 0.51 0 0.06 0.51 0 0.08 0.51 0 0.1 0.51 0 0 0.515 0 0.02 0.515 0 0.04 0.515 0 0.06 0.515 0 0.08 0.515 0 0.1 0.515 0 0 0.52 0 0.02 0.52 0 0.04 0.52 0 0.06 0.52 0 0.08 0.52 0 0.1 0.52 0 0 0.525 0 0.02 0.525 0 0.04 0.525 0 0.06 0.525 0 0.08 0.525 0 0.1 0.525 0 0 0.53 0 0.02 0.53 0 0.04 0.53 0 0.06 0.53 0 0.08 0.53 0 0.1 0.53 0 0 0.535 0 0.02 0.535 0 0.04 0.535 0 0.06 0.535 0 0.08 0.535 0 0.1 0.535 0 0 0.54 0 0.02 0.54 0 0.04 0.54 0 0.06 0.54 0 0.08 0.54 0 0.1 0.54 0 0 0.545 0 0.02 0.545 0 0.04 0.545 0 0.06 0.545 0 0.08 0.545 0 0.1 0.545 0 0 0.55 0 0.02 0.55 0 0.04 0.55 0 0.06 0.55 0 0.08 0.55 0 0.1 0.55 0 0 0.555 0 0.02 0.555 0 0.04 0.555 0 0.06 0.555 0 0.08 0.555 0 0.1 0.555 0 0 0.56 0 0.02 0.56 0 0.04 0.56 0 0.06 0.56 0 0.08 0.56 0 0.1 0.56 0 0 0.565 0 0.02 0.565 0 0.04 0.565 0 0.06 0.565 0 0.08 0.565 0 0.1 0.565 0 0 0.57 0 0.02 0.57 0 0.04 0.57 0 0.06 0.57 0 0.08 0.57 0 0.1 0.57 0 0 0.575 0 0.02 0.575 0 0.04 0.575 0 0.06 0.575 0 0.08 0.575 0 0.1 0.575 0 0 0.58 0 0.02 0.58 0 0.04 0.58 0 0.06 0.58 0 0.08 0.58 0 0.1 0.58 0 0 0.585 0 0.02 0.585 0 0.04 0.585 0 0.06 0.585 0 0.08 0.585 0 0.1 0.585 0 0 0.59 0 0.02 0.59 0 0.04 0.59 0 0.06 0.59 0 0.08 0.59 0 0.1 0.59 0 0 0.595 0 0.02 0.595 0 0.04 0.595 0 0.06 0.595 0 0.08 0.595 0 0.1 0.595 0 0 0.6 0 0.02 0.6 0 0.04 0.6 0 0.06 0.6 0 0.08 0.6 0 0.1 0.6 0 0 0.605 0 0.02 0.605 0 0.04 0.605 0 0.06 0.605 0 0.08 0.605 0 0.1 0.605 0 0 0.61 0 0.02 0.61 0 0.04 0.61 0 0.06 0.61 0 0.08 0.61 0 0.1 0.61 0 0 0.615 0 0.02 0.615 0 0.04 0.615 0 0.06 0.615 0 0.08 0.615 0 0.1 0.615 0 0 0.62 0 0.02 0.62 0 0.04 0.62 0 0.06 0.62 0 0.08 0.62 0 0.1 0.62 0 0 0.625 0 0.02 0.625 0 0.04 0.625 0 0.06 0.625 0 0.08 0.625 0 0.1 0.625 0 0 0.63 0 0.02 0.63 0 0.04 0.63 0 0.06 0.63 0 0.08 0.63 0 0.1 0.63 0 0 0.635 0 0.02 0.635 0 0.04 0.635 0 0.06 0.635 0 0.08 0.635 0 0.1 0.635 0 0 0.64 0 0.02 0.64 0 0.04 0.64 0 0.06 0.64 0 0.08 0.64 0 0.1 0.64 0 0 0.645 0 0.02 0.645 0 0.04 0.645 0 0.06 0.645 0 0.08 0.645 0 0.1 0.645 0 0 0.65 0 0.02 0.65 0 0.04 0.65 0 0.06 0.65 0 0.08 0.65 0 0.1 0.65 0 0 0.655 0 0.02 0.655 0 0.04 0.655 0 0.06 0.655 0 0.08 0.655 0 0.1 0.655 0 0 0.66 0 0.02 0.66 0 0.04 0.66 0 0.06 0.66 0 0.08 0.66 0 0.1 0.66 0 0 0.665 0 0.02 0.665 0 0.04 0.665 0 0.06 0.665 0 0.08 0.665 0 0.1 0.665 0 0 0.67 0 0.02 0.67 0 0.04 0.67 0 0.06 0.67 0 0.08 0.67 0 0.1 0.67 0 0 0.675 0 0.02 0.675 0 0.04 0.675 0 0.06 0.675 0 0.08 0.675 0 0.1 0.675 0 0 0.68 0 0.02 0.68 0 0.04 0.68 0 0.06 0.68 0 0.08 0.68 0 0.1 0.68 0 0 0.685 0 0.02 0.685 0 0.04 0.685 0 0.06 0.685 0 0.08 0.685 0 0.1 0.685 0 0 0.69 0 0.02 0.69 0 0.04 0.69 0 0.06 0.69 0 0.08 0.69 0 0.1 
[...]
			<PointData Scalars="VitesseX">
				<DataArray Name="VitesseX" type="Float32" format="ascii">
 0 -2.91924e-14 1.479e-14 -1.31099e-14 -9.80756e-17 0 0 -2.53544e-14 4.56659e-15 -4.80546e-15 -3.60281e-15 0 0 -1.64284e-14 -2.47041e-14 2.68202e-14 -1.94922e-14 0 0 -4.97241e-14 1.51517e-14 -9.94312e-16 -9.38815e-15 0 0 -3.61781e-14 -5.49002e-16 7.55484e-15 -1.73595e-14 0 0 2.08535e-14 -7.24322e-14 4.58436e-14 -2.30879e-14 0 0 -8.53609e-15 -1.40949e-14 -4.18975e-14 5.24001e-14 0 0 -5.60949e-14 6.01512e-14 -1.20865e-13 1.16223e-13 0 0 -3.4889e-14 1.47556e-14 -5.41831e-14 8.22148e-14 0 0 -1.09477e-14 -5.39308e-14 6.67117e-14 -7.73973e-15 0 0 -6.92342e-14 9.83845e-15 5.26972e-14 -2.42176e-14 0 0 -4.92491e-14 -2.33824e-14 8.85101e-14 -4.83352e-14 0 0 -8.63044e-14 5.71626e-14 -1.42753e-14 3.22391e-14 0 0 -4.33619e-14 1.95886e-14 9.89046e-15 3.22543e-14 0 0 -3.44628e-15 -2.70385e-14 6.84142e-14 -1.24677e-14 0 0 -8.33696e-14 1.23996e-13 -1.0453e-13 7.74436e-14 0 0 3.91016e-14 -3.8738e-14 -1.44744e-15 -8.69342e-15 0 0 6.08984e-15 -1.34205e-14 -3.62158e-14 -1.75285e-14 0 0 -1.20266e-14 -3.63864e-14 -2.55542e-14 -1.46345e-14 0 0 4.32046e-15 -7.4751e-14 -2.74993e-14 1.46962e-14 0 0 -1.21201e-13 1.30495e-13 -2.35918e-13 1.65626e-13 0 0 -1.20544e-13 1.21195e-13 -1.91343e-13 1.49536e-13 0 0 9.61449e-15 -9.5791e-14 6.88856e-14 -2.49391e-14 0 0 5.98793e-14 -1.89766e-13 1.79655e-13 -9.99626e-14 0 0 -1.23276e-13 6.26696e-14 -5.75529e-14 2.77573e-14 0 0 -2.60962e-13 2.46354e-13 -2.45528e-13 1.16762e-13 0 0 -9.55831e-14 -1.44038e-14 -4.77924e-14 -1.54779e-14 0 0 1.87554e-14 -1.59278e-13 6.96292e-14 -1.52448e-13 0 0 -8.27252e-14 1.69132e-14 -7.42199e-14 -1.34068e-13 0 0 -1.89774e-13 1.60016e-13 -2.16161e-13 -8.91497e-15 0 0 -9.66038e-14 -1.98427e-14 -5.99205e-14 -3.43618e-14 0 0 -1.28452e-13 -6.94175e-15 -1.55296e-14 -5.13931e-14 0 0 -1.64223e-13 5.44891e-14 -3.69615e-14 1.40613e-14 0 0 6.27424e-14 -2.4341e-13 2.21728e-13 -2.53855e-14 0 0 -7.85603e-14 -2.70722e-15 4.45585e-14 9.60307e-14 0 0 -2.07467e-13 1.73841e-13 -4.92684e-14 9.29415e-14 0 0 -2.11109e-13 1.73778e-13 -4.03411e-14 3.6643e-14 0 0 -2.32626e-14 -1.14199e-13 2.3634e-13 -1.80144e-13 0 0 -5.31254e-14 -1.15415e-13 2.76196e-13 -2.50376e-13 0 0 -2.18332e-13 1.12654e-13 5.62029e-14 -1.26015e-13 0 0 -1.43285e-13 2.28565e-14 8.00458e-14 -9.23634e-14 0 0 -1.21445e-13 1.91727e-14 -7.17633e-15 1.9019e-14 0 0 1.67696e-14 -1.68116e-13 6.55998e-14 1.36001e-14 0 0 -1.31449e-13 3.59883e-14 -1.51995e-13 1.11788e-13 0 0 -3.77448e-13 2.84334e-13 -2.60097e-13 7.27335e-14 0 0 -2.34596e-13 -6.46147e-14 2.05128e-13 -2.88283e-13 0 0 -2.08655e-13 -1.19078e-13 2.95748e-13 -3.83711e-13 0 0 -1.68415e-13 -1.54621e-13 3.37851e-13 -3.99455e-13 0 0 -1.16741e-13 -1.30994e-13 2.30731e-13 -2.97486e-13 0 0 -2.84516e-13 2.66632e-13 -2.50878e-13 7.25355e-15 0 0 -4.0755e-13 4.55783e-13 -3.87398e-13 9.66758e-15 0 0 -4.54588e-13 4.99761e-13 -3.6864e-13 -1.41353e-13 0 0 1.14245e-13 -3.74693e-13 4.78886e-13 -6.98374e-13 0 0 -3.26068e-14 -8.83866e-14 1.94728e-13 -5.70705e-13 0 0 -4.44813e-13 6.1621e-13 -5.06595e-13 -1.96304e-13 0 0 -1.47768e-13 8.04509e-14 4.41431e-14 -4.74651e-13 0 0 -3.44467e-13 2.62701e-13 -1.30954e-13 -2.13403e-13 0 0 -2.39164e-13 -3.53125e-14 1.23827e-13 -2.15023e-13 0 0 -3.40748e-13 3.69994e-14 9.23023e-14 -2.20624e-13 0 0 -5.40082e-13 3.99394e-13 -2.77837e-13 -1.32239e-13 0 0 -1.4565e-13 -5.73592e-14 5.83953e-14 -3.88585e-13 0 0 1.95597e-14 -1.54805e-13 1.75293e-14 -3.35134e-13 0 0 -4.7276e-14 -1.83334e-14 -2.15299e-13 -1.16536e-13 0 0 -3.02423e-13 3.3892e-13 -6.1835e-13 2.43629e-13 0 0 -2.50682e-13 2.20858e-13 -5.15016e-13 2.31035e-13 0 0 -2.97807e-15 -1.43695e-13 -1.13815e-13 -6.57263e-14 0 0 -2.48637e-16 -8.16933e-14 -1.27728e-13 -9.501e-14 0 0 -5.92801e-14 -5.74806e-14 -9.01873e-14 -7.38616e-14 0 0 -4.57806e-13 4.02457e-13 -3.31051e-13 6.88541e-14 0 0 -4.44253e-13 3.52621e-13 -1.94714e-13 4.94751e-14 0 0 1.19637e-13 -4.61025e-13 5.74438e-13 -3.70559e-13 0 0 -1.65475e-13 -5.45289e-15 2.18572e-13 -1.79287e-13 0 0 -4.5561e-13 4.06714e-13 -1.39981e-13 3.09562e-14 0 0 -5.94204e-13 6.26841e-13 -2.91393e-13 -3.05121e-14 0 0 -2.44506e-13 2.23681e-13 5.44635e-14 -3.33372e-13 0 0 1.14152e-13 -3.08206e-13 5.58996e-13 -6.68185e-13 0 0 -4.6777e-13 4.63162e-13 -1.46737e-13 -1.65708e-13 0 0 -4.87945e-13 4.02237e-13 -2.53488e-13 1.38479e-13 0 0 -3.98666e-13 2.52473e-13 -3.44611e-13 3.52014e-13 0 0 -4.42518e-14 -2.4021e-13 1.12871e-13 1.7223e-14 0 0 -3.19954e-13 3.58415e-14 2.21704e-13 -3.41436e-13 0 0 -6.83111e-13 5.29065e-13 -1.17534e-13 -3.49037e-13 0 0 3.23717e-13 -8.40937e-13 8.21169e-13 -7.55751e-13 0 0 -8.45764e-14 -2.36734e-13 1.36446e-13 -2.88595e-13 0 0 -1.06323e-12 1.12772e-12 -1.19976e-12 4.79029e-13 0 0 4.34359e-14 -3.66016e-13 -2.07986e-13 8.30964e-14 0 0 7.33745e-13 -1.24174e-12 4.91359e-13 -1.95617e-13 0 0 -1.23097e-13 -9.23336e-14 -3.72955e-13 2.4565e-13 0 0 -4.26731e-13 1.97102e-13 -4.82447e-13 2.66726e-13 0 0 -7.77741e-13 3.36466e-13 -6.92267e-13 5.33187e-13 0 0 -1.86365e-13 -7.22952e-13 2.33041e-14 2.12274e-13 0 0 4.47906e-13 -1.41917e-12 6.23584e-13 -3.84683e-14 0 0 -4.5023e-13 -5.39034e-14 -4.50584e-13 4.07317e-13 0 0 -6.94566e-13 6.09696e-13 -5.19704e-13 1.16358e-13 0 0 -7.48324e-13 8.04163e-13 -4.70843e-13 3.56294e-14 0 0 3.51525e-13 -8.42902e-13 5.4919e-13 -4.29226e-13 0 0 7.41005e-13 -1.18745e-12 9.32123e-13 -5.72077e-13 0 0 -4.0388e-13 1.64081e-13 2.56932e-13 -5.2082e-13 0 0 -1.04385e-12 8.24397e-13 9.08872e-14 -6.49983e-13 0 0 -6.62038e-13 4.63215e-13 9.21671e-14 -6.2922e-13 0 0 7.18264e-14 1.70494e-14 -4.24619e-14 -4.69498e-13 0 0 2.24577e-13 8.50617e-14 -4.00578e-13 -1.86461e-13 0 0 1.25881e-13 3.31788e-13 -8.63002e-13 1.36865e-13 0 0 -6.93243e-14 3.66738e-13 -9.10645e-13 1.7009e-13 0 0 -2.1235e-13 2.34071e-13 -8.12341e-13 1.23487e-13 0 0 -2.26531e-13 -7.91302e-14 -5.49051e-13 -7.68834e-15 0 0 -2.22779e-13 -4.64252e-13 -1.78537e-13 -2.31796e-13 0 0 -2.6023e-13 -4.66378e-13 -1.72532e-13 -3.17682e-13 0 0 -3.50868e-13 -3.52445e-13 -2.92843e-13 -2.52674e-13 0 0 -3.45659e-13 -4.0483e-13 -1.5784e-13 -3.04746e-13 0 0 -2.67926e-13 -5.3819e-13 1.57485e-13 -4.56477e-13 0 0 -2.01473e-13 -4.21724e-13 8.77279e-15 -2.51922e-13 0 0 -3.33138e-13 -3.76124e-14 -5.04572e-13 2.0567e-13 0 0 -4.56103e-13 1.64613e-13 -6.75291e-13 3.05719e-13 0 0 -1.05686e-13 -3.66083e-13 -1.02144e-13 -4.04893e-14 0 0 1.89683e-13 -8.09235e-13 3.41396e-13 -2.98751e-13 0 0 -1.12323e-13 -3.13207e-13 -1.38044e-13 -5.92657e-14 0 0 -5.76658e-13 4.42506e-13 -8.68254e-13 3.10965e-13 0 0 -2.57919e-13 -7.5445e-14 -3.1489e-13 -6.35267e-14 0 0 -1.34951e-13 -2.44924e-13 -9.27087e-14 -2.68637e-13 0 0 -4.73664e-14 -2.94128e-13 6.57018e-15 -4.01916e-13 0 0 -1.03791e-13 -1.9102e-13 -1.11516e-13 -2.43874e-13 0 0 -7.0212e-13 6.81484e-13 -9.71577e-13 4.26638e-13 0 0 -1.98532e-13 -2.27245e-13 1.77029e-15 -1.21595e-13 0 0 -1.55987e-13 -3.39943e-13 1.89273e-13 -3.46608e-13 0 0 -2.15368e-14 -3.5038e-13 -9.26448e-15 -2.83269e-13 0 0 5.52709e-15 -3.89962e-13 -1.7069e-14 -3.12121e-13 0 0 -7.54258e-13 6.35717e-13 -8.74804e-13 2.79275e-13 0 0 -3.13559e-13 -8.33504e-14 -1.75602e-13 -3.77592e-14 0 0 -2.63508e-13 -2.3401e-13 7.07613e-14 -3.10819e-13 0 0 -1.66625e-13 -3.04458e-13 -8.25498e-15 -2.87546e-13 0 0 -1.3798e-13 -3.92086e-13 -1.44627e-14 -2.21703e-13 0 0 -7.93911e-13 4.84244e-13 -8.3709e-13 3.83452e-13 0 0 -2.97024e-13 -2.39043e-13 -2.01672e-13 9.28541e-14 0 0 -3.77713e-13 -1.25492e-13 -1.68939e-13 -9.65695e-14 0 0 -2.1514e-13 -1.7233e-13 -2.0769e-13 -2.82647e-13 0 0 -1.05849e-13 -3.54709e-13 -9.64861e-14 -3.83652e-13 0 0 -9.07646e-13 5.91138e-13 -9.52585e-13 2.89111e-13 0 0 -2.24813e-13 -3.87273e-13 -2.52826e-13 6.16399e-14 0 0 -1.0318e-13 -4.91684e-13 -1.20556e-13 -1.32487e-13 0 0 -3.81605e-13 -9.6442e-14 -3.62746e-13 -2.36644e-13 0 0 1.88068e-13 -1.09956e-12 4.31089e-13 -5.42256e-13 0 0 -8.68068e-13 3.24306e-13 -7.43384e-13 2.59762e-13 0 0 -1.14579e-12 7.90811e-13 -8.55186e-13 1.73226e-13 0 0 1.17807e-13 -7.59707e-13 7.27957e-13 -8.3936e-13 0 0 -2.67884e-13 -5.16263e-14 2.5382e-13 -5.33259e-13 0 0 -2.06859e-13 -2.78321e-13 2.96652e-13 -2.04846e-13 0 0 -6.17585e-13 2.56734e-13 -5.18299e-13 5.64056e-13 0 0 -9.95152e-13 6.00014e-13 -7.44512e-13 6.63822e-13 0 0 3.55095e-14 -9.3792e-13 9.17083e-13 -5.23655e-13 0 0 -4.15673e-13 -1.44253e-13 3.71753e-13 -3.19153e-13 0 0 -2.7948e-13 -3.80402e-13 2.6256e-13 2.20489e-13 0 0 -6.12947e-13 1.2545e-14 -4.36752e-13 1.03645e-12 0 0 -8.09151e-13 1.84202e-13 -4.92024e-13 8.65771e-13 0 0 -4.62217e-13 -2.0374e-13 -6.35317e-14 7.19263e-14 0 0 -1.23464e-13 -3.73096e-13 -2.07965e-13 -2.06148e-13 0 0 1.05901e-13 -6.62037e-13 -3.44976e-13 -1.98653e-13 0 0 -8.47406e-13 4.61282e-13 -1.17949e-12 1.19232e-13 0 0 -6.92745e-13 -5.9137e-14 -3.32781e-13 -4.51519e-13 0 0 -3.19529e-13 -7.17253e-13 4.28186e-13 -1.04038e-12 0 0 4.07679e-14 -1.01639e-12 4.73663e-13 -1.20403e-12 0 0 -3.21375e-13 -1.12203e-13 -9.17804e-13 -1.28428e-13 0 0 -8.66505e-13 8.09609e-13 -2.04649e-12 8.16271e-13 0 0 -3.3473e-13 -2.58995e-13 -7.89425e-13 -4.62585e-14 0 0 -2.55936e-14 -1.0603e-12 4.16546e-13 -1.11104e-12 0 0 -1.27709e-13 -7.98094e-13 1.27753e-13 -1.05983e-12 0 0 -6.90246e-13 1.24806e-13 -1.05457e-12 -8.91181e-14 0 0 -9.01863e-13 4.8402e-13 -1.80257e-12 9.64263e-13 0 0 6.07238e-14 -8.38795e-13 -9.24336e-13 8.47776e-13 0 0 -2.8143e-13 -3.64029e-13 -1.04295e-12 4.84684e-13 0 0 -7.23969e-13 3.29872e-13 -1.23322e-12 -1.35603e-13 0 0 -6.99644e-14 -8.90606e-13 1.83517e-13 -1.26348e-12 0 0 -6.98872e-13 -2.12047e-13 -2.648e-13 -9.45448e-13 0 0 -5.26405e-13 -2.11891e-13 -5.2885e-13 -7.25509e-13 0 0 -3.90287e-13 -1.03613e-13 -9.59447e-13 -5.20752e-13 0 0 -4.13651e-13 -1.04641e-13 -1.05763e-12 -3.13467e-13 0 0 4.99726e-14 -1.16818e-12 2.53788e-13 -8.73345e-13 0 0 -7.82852e-13 -1.57175e-13 -3.71614e-13 -4.0732e-13 0 0 -5.91613e-13 -1.48224e-13 -6.51861e-13 -2.66575e-13 0 0 -3.60343e-13 -2.36372e-13 -1.0015e-12 -9.88892e-14 0 0 -5.04526e-13 -1.65032e-13 -9.53697e-13 -1.52013e-13 0 0 3.52556e-14 -1.23801e-12 4.46132e-13 -8.1218e-13 0 0 -5.47614e-13 -4.90447e-13 6.69748e-14 -5.49084e-13 0 0 -4.30323e-13 -4.04739e-13 -2.24008e-13 -4.85326e-13 0 0 -4.27406e-13 -2.13499e-13 -8.57291e-13 -2.14293e-13 0 0 -5.46984e-13 -1.66051e-13 -8.34861e-13 -5.08774e-13 0 0 1.02609e-13 -1.39021e-12 4.92016e-13 -1.23654e-12 0 0 -6.61741e-13 -2.66729e-13 -4.27215e-13 -6.10258e-13 0 0 -5.4793e-13 -1.12566e-13 -6.73125e-13 -4.594e-13 0 0 -1.01899e-12 3.81468e-13 -8.95488e-13 -4.01505e-13 0 0 -1.27055e-12 3.49703e-13 -6.33845e-13 -5.71619e-13 0 0 3.17546e-13 -2.20942e-12 1.56578e-12 -1.58727e-12 0 0 -1.19062e-12 1.42874e-13 -7.22308e-13 -1.73979e-13 0 0 -1.89469e-12 1.57842e-12 -1.93192e-12 1.80028e-13 0 0 -2.0107e-13 -6.03359e-13 2.2819e-13 -1.39071e-12 0 0 -9.99734e-15 -8.7569e-13 5.25752e-13 -1.56222e-12 0 0 1.22722e-13 -1.30507e-12 8.91293e-13 -1.64985e-12 0 0 -1.18494e-12 9.27531e-13 -1.71983e-12 1.61914e-13 0 0 -1.22425e-12 1.08269e-12 -1.86404e-12 3.51508e-13 0 0 3.59402e-14 -1.2637e-12 1.07153e-12 -1.57621e-12 0 0 -2.55681e-13 -1.07193e-12 1.25053e-12 -1.77494e-12 0
				</DataArray>
				<DataArray Name="VitesseY" type="Float32" format="ascii">