<?xml version="1.0"?>
<VTKFile type="PolyData">
	<PolyData>
		<Piece NumberOfPoints="1206" NumberOfPolys="1000">
			<Points>
				<DataArray type="Float32" NumberOfComponents="3" format="ascii">
 0 0 0 0.02 0 0 0.04 0 0 0.06 0 0 0.08 0 0 0.1 0 0 0 0.005 0 0.02 0.005 0 0.04 0.005 0 0.06 0.005 0 0.08 0.005 0 0.1 0.005 0 0 0.01 0 0.02 0.01 0 0.04 0.01 0 0.06 0.01 0 0.08 0.01 0 0.1 0.01 0 0 0.015 0 0.02 0.015 0 0.04 0.015 0 0.06 0.015 0 0.08 0.015 0 0.1 0.015 0 0 0.02 0 0.02 0.02 0 0.04 0.02 0 0.06 0.02 0 0.08 0.02 0 0.1 0.02 0 0 0.025 0 0.02 0.025 0 0.04 0.025 0 0.06 0.025 0 0.08 0.025 0 0.1 0.025 0 0 0.03 0 0.02 0.03 0 0.04 0.03 0 0.06 0.03 0 0.08 0.03 0 0.1 0.03 0 0 0.035 0 0.02 0.035 0 0.04 0.035 0 0.06 0.035 0 0.08 0.035 0 0.1 0.035 0 0 0.04 0 0.02 0.04 0 0.04 0.04 0 0.06 0.04 0 0.08 0.04 0 0.1 0.04 0 0 0.045 0 0.02 0.045 0 0.04 0.045 0 0.06 0.045 0 0.08 0.045 0 0.1 0.045 0 0 0.05 0 0.02 0.05 0 0.04 0.05 0 0.06 0.05 0 0.08 0.05 0 0.1 0.05 0 0 0.055 0 0.02 0.055 0 0.04 0.055 0 0.06 0.055 0 0.08 0.055 0 0.1 0.055 0 0 0.06 0 0.02 0.06 0 0.04 0.06 0 0.06 0.06 0 0.08 0.06 0 0.1 0.06 0 0 0.065 0 0.02 0.065 0 0.04 0.065 0 0.06 0.065 0 0.08 0.065 0 0.1 0.065 0 0 0.07 0 0.02 0.07 0 0.04 0.07 0 0.06 0.07 0 0.08 0.07 0 0.1 0.07 0 0 0.075 0 0.02 0.075 0 0.04 0.075 0 0.06 0.075 0 0.08 0.075 0 0.1 0.075 0 0 0.08 0 0.02 0.08 0 0.04 0.08 0 0.06 0.08 0 0.08 0.08 0 0.1 0.08 0 0 0.085 0 0.02 0.085 0 0.04 0.085 0 0.06 0.085 0 0.08 0.085 0 0.1 0.085 0 0 0.09 0 0.02 0.09 0 0.04 0.09 0 0.06 0.09 0 0.08 0.09 0 0.1 0.09 0 0 0.095 0 0.02 0.095 0 0.04 0.095 0 0.06 0.095 0 0.08 0.095 0 0.1 0.095 0 0 0.1 0 0.02 0.1 0 0.04 0.1 0 0.06 0.1 0 0.08 0.1 0 0.1 0.1 0 0 0.105 0 0.02 0.105 0 0.04 0.105 0 0.06 0.105 0 0.08 0.105 0 0.1 0.105 0 0 0.11 0 0.02 0.11 0 0.04 0.11 0 0.06 0.11 0 0.08 0.11 0 0.1 0.11 0 0 0.115 0 0.02 0.115 0 0.04 0.115 0 0.06 0.115 0 0.08 0.115 0 0.1 0.115 0 0 0.12 0 0.02 0.12 0 0.04 0.12 0 0.06 0.12 0 0.08 0.12 0 0.1 0.12 0 0 0.125 0 0.02 0.125 0 0.04 0.125 0 0.06 0.125 0 0.08 0.125 0 0.1 0.125 0 0 0.13 0 0.02 0.13 0 0.04 0.13 0 0.06 0.13 0 0.08 0.13 0 0.1 0.13 0 0 0.135 0 0.02 0.135 0 0.04 0.135 0 0.06 0.135 0 0.08 0.135 0 0.1 0.135 0 0 0.14 0 0.02 0.14 0 0.04 0.14 0 0.06 0.14 0 0.08 0.14 0 0.1 0.14 0 0 0.145 0 0.02 0.145 0 0.04 0.145 0 0.06 0.145 0 0.08 0.145 0 0.1 0.145 0 0 0.15 0 0.02 0.15 0 0.04 0.15 0 0.06 0.15 0 0.08 0.15 0 0.1 0.15 0 0 0.155 0 0.02 0.155 0 0.04 0.155 0 0.06 0.155 0 0.08 0.155 0 0.1 0.155 0 0 0.16 0 0.02 0.16 0 0.04 0.16 0 0.06 0.16 0 0.08 0.16 0 0.1 0.16 0 0 0.165 0 0.02 0.165 0 0.04 0.165 0 0.06 0.165 0 0.08 0.165 0 0.1 0.165 0 0 0.17 0 0.02 0.17 0 0.04 0.17 0 0.06 0.17 0 0.08 0.17 0 0.1 0.17 0 0 0.175 0 0.02 0.175 0 0.04 0.175 0 0.06 0.175 0 0.08 0.175 0 0.1 0.175 0 0 0.18 0 0.02 0.18 0 0.04 0.18 0 0.06 0.18 0 0.08 0.18 0 0.1 0.18 0 0 0.185 0 0.02 0.185 0 0.04 0.185 0 0.06 0.185 0 0.08 0.185 0 0.1 0.185 0 0 0.19 0 0.02 0.19 0 0.04 0.19 0 0.06 0.19 0 0.08 0.19 0 0.1 0.19 0 0 0.195 0 0.02 0.195 0 0.04 0.195 0 0.06 0.195 0 0.08 0.195 0 0.1 0.195 0 0 0.2 0 0.02 0.2 0 0.04 0.2 0 0.06 0.2 0 0.08 0.2 0 0.1 0.2 0 0 0.205 0 0.02 0.205 0 0.04 0.205 0 0.06 0.205 0 0.08 0.205 0 0.1 0.205 0 0 0.21 0 0.02 0.21 0 0.04 0.21 0 0.06 0.21 0 0.08 0.21 0 0.1 0.21 0 0 0.215 0 0.02 0.215 0 0.04 0.215 0 0.06 0.215 0 0.08 0.215 0 0.1 0.215 0 0 0.22 0 0.02 0.22 0 0.04 0.22 0 0.06 0.22 0 0.08 0.22 0 0.1 0.22 0 0 0.225 0 0.02 0.225 0 0.04 0.225 0 0.06 0.225 0 0.08 0.225 0 0.1 0.225 0 0 0.23 0 0.02 0.23 0 0.04 0.23 0 0.06 0.23 0 0.08 0.23 0 0.1 0.23 0 0 0.235 0 0.02 0.235 0 0.04 0.235 0 0.06 0.235 0 0.08 0.235 0 0.1 0.235 0 0 0.24 0 0.02 0.24 0 0.04 0.24 0 0.06 0.24 0 0.08 0.24 0 0.1 0.24 0 0 0.245 0 0.02 0.245 0 0.04 0.245 0 0.06 0.245 0 0.08 0.245 0 0.1 0.245 0 0 0.25 0 0.02 0.25 0 0.04 0.25 0 0.06 0.25 0 0.08 0.25 0 0.1 0.25 0 0 0.255 0 0.02 0.255 0 0.04 0.255 0 0.06 0.255 0 0.08 0.255 0 0.1 0.255 0 0 0.26 0 0.02 0.26 0 0.04 0.26 0 0.06 0.26 0 0.08 0.26 0 0.1 0.26 0 0 0.265 0 0.02 0.265 0 0.04 0.265 0 0.06 0.265 0 0.08 0.265 0 0.1 0.265 0 0 0.27 0 0.02 0.27 0 0.04 0.27 0 0.06 0.27 0 0.08 0.27 0 0.1 0.27 0 0 0.275 0 0.02 0.275 0 0.04 0.275 0 0.06 0.275 0 0.08 0.275 0 0.1 0.275 0 0 0.28 0 0.02 0.28 0 0.04 0.28 0 0.06 0.28 0 0.08 0.28 0 0.1 0.28 0 0 0.285 0 0.02 0.285 0 0.04 0.285 0 0.06 0.285 0 0.08 0.285 0 0.1 0.285 0 0 0.29 0 0.02 0.29 0 0.04 0.29 0 0.06 0.29 0 0.08 0.29 0 0.1 0.29 0 0 0.295 0 0.02 0.295 0 0.04 0.295 0 0.06 0.295 0 0.08 0.295 0 0.1 0.295 0 0 0.3 0 0.02 0.3 0 0.04 0.3 0 0.06 0.3 0 0.08 0.3 0 0.1 0.3 0 0 0.305 0 0.02 0.305 0 0.04 0.305 0 0.06 0.305 0 0.08 0.305 0 0.1 0.305 0 0 0.31 0 0.02 0.31 0 0.04 0.31 0 0.06 0.31 0 0.08 0.31 0 0.1 0.31 0 0 0.315 0 0.02 0.315 0 0.04 0.315 0 0.06 0.315 0 0.08 0.315 0 0.1 0.315 0 0 0.32 0 0.02 0.32 0 0.04 0.32 0 0.06 0.32 0 0.08 0.32 0 0.1 0.32 0 0 0.325 0 0.02 0.325 0 0.04 0.325 0 0.06 0.325 0 0.08 0.325 0 0.1 0.325 0 0 0.33 0 0.02 0.33 0 0.04 0.33 0 0.06 0.33 0 0.08 0.33 0 0.1 0.33 0 0 0.335 0 0.02 0.335 0 0.04 0.335 0 0.06 0.335 0 0.08 0.335 0 0.1 0.335 0 0 0.34 0 0.02 0.34 0 0.04 0.34 0 0.06 0.34 0 0.08 0.34 0 0.1 0.34 0 0 0.345 0 0.02 0.345 0 0.04 0.345 0 0.06 0.345 0 0.08 0.345 0 0.1 0.345 0 0 0.35 0 0.02 0.35 0 0.04 0.35 0 0.06 0.35 0 0.08 0.35 0 0.1 0.35 0 0 0.355 0 0.02 0.355 0 0.04 0.355 0 0.06 0.355 0 0.08 0.355 0 0.1 0.355 0 0 0.36 0 0.02 0.36 0 0.04 0.36 0 0.06 0.36 0 0.08 0.36 0 0.1 0.36 0 0 0.365 0 0.02 0.365 0 0.04 0.365 0 0.06 0.365 0 0.08 0.365 0 0.1 0.365 0 0 0.37 0 0.02 0.37 0 0.04 0.37 0 0.06 0.37 0 0.08 0.37 0 0.1 0.37 0 0 0.375 0 0.02 0.375 0 0.04 0.375 0 0.06 0.375 0 0.08 0.375 0 0.1 0.375 0 0 0.38 0 0.02 0.38 0 0.04 0.38 0 0.06 0.38 0 0.08 0.38 0 0.1 0.38 0 0 0.385 0 0.02 0.385 0 0.04 0.385 0 0.06 0.385 0 0.08 0.385 0 0.1 0.385 0 0 0.39 0 0.02 0.39 0 0.04 0.39 0 0.06 0.39 0 0.08 0.39 0 0.1 0.39 0 0 0.395 0 0.02 0.395 0 0.04 0.395 0 0.06 0.395 0 0.08 0.395 0 0.1 0.395 0 0 0.4 0 0.02 0.4 0 0.04 0.4 0 0.06 0.4 0 0.08 0.4 0 0.1 0.4 0 0 0.405 0 0.02 0.405 0 0.04 0.405 0 0.06 0.405 0 0.08 0.405 0 0.1 0.405 0 0 0.41 0 0.02 0.41 0 0.04 0.41 0 0.06 0.41 0 0.08 0.41 0 0.1 0.41 0 0 0.415 0 0.02 0.415 0 0.04 0.415 0 0.06 0.415 0 0.08 0.415 0 0.1 0.415 0 0 0.42 0 0.02 0.42 0 0.04 0.42 0 0.06 0.42 0 0.08 0.42 0 0.1 0.42 0 0 0.425 0 0.02 0.425 0 0.04 0.425 0 0.06 0.425 0 0.08 0.425 0 0.1 0.425 0 0 0.43 0 0.02 0.43 0 0.04 0.43 0 0.06 0.43 0 0.08 0.43 0 0.1 0.43 0 0 0.435 0 0.02 0.435 0 0.04 0.435 0 0.06 0.435 0 0.08 0.435 0 0.1 0.435 0 0 0.44 0 0.02 0.44 0 0.04 0.44 0 0.06 0.44 0 0.08 0.44 0 0.1 0.44 0 0 0.445 0 0.02 0.445 0 0.04 0.445 0 0.06 0.445 0 0.08 0.445 0 0.1 0.445 0 0 0.45 0 0.02 0.45 0 0.04 0.45 0 0.06 0.45 0 0.08 0.45 0 0.1 0.45 0 0 0.455 0 0.02 0.455 0 0.04 0.455 0 0.06 0.455 0 0.08 0.455 0 0.1 0.455 0 0 0.46 0 0.02 0.46 0 0.04 0.46 0 0.06 0.46 0 0.08 0.46 0 0.1 0.46 0 0 0.465 0 0.02 0.465 0 0.04 0.465 0 0.06 0.465 0 0.08 0.465 0 0.1 0.465 0 0 0.47 0 0.02 0.47 0 0.04 0.47 0 0.06 0.47 0 0.08 0.47 0 0.1 0.47 0 0 0.475 0 0.02 0.475 0 0.04 0.475 0 0.06 0.475 0 0.08 0.475 0 0.1 0.475 0 0 0.48 0 0.02 0.48 0 0.04 0.48 0 0.06 0.48 0 0.08 0.48 0 0.1 0.48 0 0 0.485 0 0.02 0.485 0 0.04 0.485 0 0.06 0.485 0 0.08 0.485 0 0.1 0.485 0 0 0.49 0 0.02 0.49 0 0.04 0.49 0 0.06 0.49 0 0.08 0.49 0 0.1 0.49 0 0 0.495 0 0.02 0.495 0 0.04 0.495 0 0.06 0.495 0 0.08 0.495 0 0.1 0.495 0 0 0.5 0 0.02 0.5 0 0.04 0.5 0 0.06 0.5 0 0.08 0.5 0 0.1 0.5 0 0 0.505 0 0.02 0.505 0 0.04 0.505 0 0.06 0.505 0 0.08 0.505 0 0.1 0.505 0 0 0.51 0 0.02 0.51 0 0.04 0.51 0 0.06 0.51 0 0.08 0.51 0 0.1 0.51 0 0 0.515 0 0.02 0.515 0 0.04 0.515 0 0.06 0.515 0 0.08 0.515 0 0.1 0.515 0 0 0.52 0 0.02 0.52 0 0.04 0.52 0 0.06 0.52 0 0.08 0.52 0 0.1 0.52 0 0 0.525 0 0.02 0.525 0 0.04 0.525 0 0.06 0.525 0 0.08 0.525 0 0.1 0.525 0 0 0.53 0 0.02 0.53 0 0.04 0.53 0 0.06 0.53 0 0.08 0.53 0 0.1 0.53 0 0 0.535 0 0.02 0.535 0 0.04 0.535 0 0.06 0.535 0 0.08 0.535 0 0.1 0.535 0 0 0.54 0 0.02 0.54 0 0.04 0.54 0 0.06 0.54 0 0.08 0.54 0 0.1 0.54 0 0 0.545 0 0.02 0.545 0 0.04 0.545 0 0.06 0.545 0 0.08 0.545 0 0.1 0.545 0 0 0.55 0 0.02 0.55 0 0.04 0.55 0 0.06 0.55 0 0.08 0.55 0 0.1 0.55 0 0 0.555 0 0.02 0.555 0 0.04 0.555 0 0.06 0.555 0 0.08 0.555 0 0.1 0.555 0 0 0.56 0 0.02 0.56 0 0.04 0.56 0 0.06 0.56 0 0.08 0.56 0 0.1 0.56 0 0 0.565 0 0.02 0.565 0 0.04 0.565 0 0.06 0.565 0 0.08 0.565 0 0.1 0.565 0 0 0.57 0 0.02 0.57 0 0.04 0.57 0 0.06 0.57 0 0.08 0.57 0 0.1 0.57 0 0 0.575 0 0.02 0.575 0 0.04 0.575 0 0.06 0.575 0 0.08 0.575 0 0.1 0.575 0 0 0.58 0 0.02 0.58 0 0.04 0.58 0 0.06 0.58 0 0.08 0.58 0 0.1 0.58 0 0 0.585 0 0.02 0.585 0 0.04 0.585 0 0.06 0.585 0 0.08 0.585 0 0.1 0.585 0 0 0.59 0 0.02 0.59 0 0.04 0.59 0 0.06 0.59 0 0.08 0.59 0 0.1 0.59 0 0 0.595 0 0.02 0.595 0 0.04 0.595 0 0.06 0.595 0 0.08 0.595 0 0.1 0.595 0 0 0.6 0 0.02 0.6 0 0.04 0.6 0 0.06 0.6 0 0.08 0.6 0 0.1 0.6 0 0 0.605 0 0.02 0.605 0 0.04 0.605 0 0.06 0.605 0 0.08 0.605 0 0.1 0.605 0 0 0.61 0 0.02 0.61 0 0.04 0.61 0 0.06 0.61 0 0.08 0.61 0 0.1 0.61 0 0 0.615 0 0.02 0.615 0 0.04 0.615 0 0.06 0.615 0 0.08 0.615 0 0.1 0.615 0 0 0.62 0 0.02 0.62 0 0.04 0.62 0 0.06 0.62 0 0.08 0.62 0 0.1 0.62 0 0 0.625 0 0.02 0.625 0 0.04 0.625 0 0.06 0.625 0 0.08 0.625 0 0.1 0.625 0 0 0.63 0 0.02 0.63 0 0.04 0.63 0 0.06 0.63 0 0.08 0.63 0 0.1 0.63 0 0 0.635 0 0.02 0.635 0 0.04 0.635 0 0.06 0.635 0 0.08 0.635 0 0.1 0.635 0 0 0.64 0 0.02 0.64 0 0.04 0.64 0 0.06 0.64 0 0.08 0.64 0 0.1 0.64 0 0 0.645 0 0.02 0.645 0 0.04 0.645 0 0.06 0.645 0 0.08 0.645 0 0.1 0.645 0 0 0.65 0 0.02 0.65 0 0.04 0.65 0 0.06 0.65 0 0.08 0.65 0 0.1 0.65 0 0 0.655 0 0.02 0.655 0 0.04 0.655 0 0.06 0.655 0 0.08 0.655 0 0.1 0.655 0 0 0.66 0 0.02 0.66 0 0.04 0.66 0 0.06 0.66 0 0.08 0.66 0 0.1 0.66 0 0 0.665 0 0.02 0.665 0 0.04 0.665 0 0.06 0.665 0 0.08 0.665 0 0.1 0.665 0 0 0.67 0 0.02 0.67 0 0.04 0.67 0 0.06 0.67 0 0.08 0.67 0 0.1 0.67 0 0 0.675 0 0.02 0.675 0 0.04 0.675 0 0.06 0.675 0 0.08 0.675 0 0.1 0.675 0 0 0.68 0 0.02 0.68 0 0.04 0.68 0 0.06 0.68 0 0.08 0.68 0 0.1 0.68 0 0 0.685 0 0.02 0.685 0 0.04 0.685 0 0.06 0.685 0 0.08 0.685 0 0.1 0.685 0 0 0.69 0 0.02 0.69 0 0.04 0.69 0 0.06 0.69 0 0.08 0.69 0 0.1 
[...]
			<PointData Scalars="VitesseX">
				<DataArray Name="VitesseX" type="Float32" format="ascii">
 0 -1.02377e-14 -1.48888e-14 -1.83935e-14 -2.25227e-14 0 0 -1.0426e-14 -1.59639e-14 -1.60673e-14 -2.48244e-14 0 0 -1.13175e-14 -1.64463e-14 -1.58444e-14 -2.3466e-14 0 0 -1.10065e-14 -2.17328e-14 -8.49732e-15 -2.63491e-14 0 0 -1.57636e-14 -2.04991e-14 -6.78015e-15 -2.38202e-14 0 0 -2.75295e-14 -9.34149e-15 -1.78005e-14 -1.21457e-14 0 0 -3.76332e-14 -4.20593e-15 -2.14079e-14 -9.62458e-15 0 0 -3.55834e-14 -1.69369e-14 -8.27743e-15 -2.11226e-14 0 0 -2.91734e-14 -2.89374e-14 -1.2978e-15 -2.50346e-14 0 0 -3.21497e-14 -2.53266e-14 -1.53269e-14 7.27317e-16 0 0 -3.67682e-14 -2.03187e-14 -1.99533e-14 6.51491e-15 0 0 -3.2255e-14 -1.98386e-14 -2.48095e-14 4.17823e-15 0 0 -1.72825e-14 -4.0076e-14 -2.2478e-15 -1.43044e-14 0 0 -2.35946e-14 -2.58632e-14 -3.67182e-17 -2.35679e-14 0 0 -3.73916e-14 6.82786e-15 -2.50798e-14 -3.57052e-15 0 0 -1.36447e-14 -2.74483e-14 1.73741e-14 -3.00127e-14 0 0 3.18131e-15 -4.36106e-14 3.35123e-14 -4.84726e-14 0 0 -1.81734e-14 1.21459e-14 -3.18344e-14 -1.5413e-14 0 0 -2.48245e-14 4.05258e-14 -7.09066e-14 1.85975e-14 0 0 1.30796e-14 -1.15846e-14 -1.05041e-14 -2.12296e-14 0 0 1.89286e-14 -2.69152e-14 2.30434e-14 -6.53125e-14 0 0 -2.04055e-14 2.29691e-14 -3.77737e-14 -2.8511e-14 0 0 -3.58985e-15 -2.0374e-14 -1.47008e-14 -2.90221e-14 0 0 1.18878e-14 -6.24947e-14 2.15145e-14 -5.04495e-14 0 0 -3.5776e-14 -5.85029e-16 -3.82058e-14 -1.66733e-14 0 0 -4.94515e-14 8.40674e-15 -4.01102e-14 -1.33257e-14 0 0 -3.0009e-14 -2.47251e-14 -1.17596e-14 -2.03341e-14 0 0 -2.83197e-14 -4.13104e-14 1.42179e-14 -4.18617e-14 0 0 -7.88151e-15 -9.22298e-14 7.29789e-14 -7.79829e-14 0 0 -8.84684e-15 -8.18533e-14 3.54571e-14 -3.1035e-14 0 0 -3.98971e-14 4.5192e-15 -7.83051e-14 3.79823e-14 0 0 -3.11493e-14 1.30645e-14 -7.67151e-14 1.17022e-14 0 0 -2.62725e-14 -2.31523e-14 -1.59542e-14 -2.68209e-14 0 0 -4.71407e-14 -3.27374e-14 -2.10001e-15 -7.04793e-15 0 0 -2.634e-14 -8.66848e-14 4.16473e-14 -5.51087e-15 0 0 -2.32014e-14 -9.11966e-14 4.41195e-14 4.84534e-15 0 0 -8.23595e-14 9.95932e-15 -5.47848e-14 5.51243e-14 0 0 -6.13617e-14 2.9868e-15 -6.5836e-14 4.75145e-14 0 0 1.55299e-14 -8.42642e-14 1.08512e-14 -3.86072e-15 0 0 -5.45082e-14 1.07635e-15 -4.35017e-16 -2.93756e-15 0 0 -8.0436e-15 -2.06003e-14 3.78481e-14 -1.70451e-14 0 0 3.77232e-14 -5.21577e-14 4.83643e-14 -1.63822e-14 0 0 -9.00403e-15 1.4059e-14 -1.23355e-14 1.35849e-14 0 0 -1.78116e-14 3.73075e-14 -4.07341e-14 6.98982e-14 0 0 -3.97985e-14 4.32661e-14 -1.16405e-14 8.66212e-14 0 0 -3.61337e-14 6.45638e-15 4.8424e-14 4.5017e-14 0 0 -7.28651e-14 4.52696e-14 -4.27063e-14 1.06944e-13 0 0 -5.39394e-14 3.73034e-15 -7.07554e-14 1.40391e-13 0 0 3.45121e-14 -1.84145e-13 1.10666e-13 2.31452e-14 0 0 5.46587e-14 -2.28482e-13 1.50912e-13 -3.40383e-14 0 0 1.92186e-14 -1.05178e-13 3.29868e-15 -3.8675e-14 0 0 2.15312e-14 -6.89563e-14 -7.88482e-14 -6.59267e-14 0 0 9.28044e-14 -1.7686e-13 1.34371e-14 -1.51753e-13 0 0 1.36873e-13 -2.96632e-13 1.81196e-13 -2.48312e-13 0 0 -6.41465e-14 -6.40357e-14 -7.22795e-14 -2.78135e-14 0 0 -6.65955e-14 -1.1067e-13 -1.81927e-13 9.07395e-14 0 0 5.65837e-14 -3.6168e-13 -3.62077e-14 -1.64878e-14 0 0 -3.56099e-14 -2.99593e-13 -3.32348e-14 -1.12057e-13 0 0 -9.8945e-14 -2.34238e-13 -6.2686e-15 -2.04982e-13 0 0 -1.90221e-14 -2.91731e-13 2.12041e-14 -2.17585e-13 0 0 1.73906e-14 -2.95883e-13 -4.83213e-14 -1.56051e-13 0 0 -8.46355e-14 -2.25707e-13 -1.05615e-13 -1.14328e-13 0 0 -1.74053e-13 -2.49347e-13 -5.57918e-14 -8.9967e-14 0 0 -2.6337e-13 -2.53599e-13 -2.02325e-14 -7.59141e-14 0 0 -3.24447e-13 -2.47285e-13 -2.62404e-15 -9.4441e-14 0 0 -3.21376e-13 -2.47541e-13 -5.27419e-14 -7.71285e-14 0 0 -2.58318e-13 -3.22794e-13 -3.01206e-14 -1.18778e-13 0 0 -2.17059e-13 -3.47302e-13 -5.15841e-14 -1.12364e-13 0 0 -2.26867e-13 -3.13728e-13 -1.36429e-13 -3.48496e-14 0 0 -2.45038e-13 -3.12029e-13 -1.8622e-13 2.32562e-14 0 0 -2.52338e-13 -3.54549e-13 -1.69346e-13 2.32308e-14 0 0 -2.34148e-13 -4.37577e-13 -1.00256e-13 -2.47662e-14 0 0 -2.15721e-13 -5.01691e-13 -6.61845e-14 -5.30404e-14 0 0 -2.26623e-13 -4.89694e-13 -1.25663e-13 -1.20896e-14 0 0 -2.56454e-13 -4.39901e-13 -1.95458e-13 3.25038e-14 0 0 -2.85967e-13 -3.86871e-13 -2.29139e-13 2.93548e-14 0 0 -2.98908e-13 -3.51072e-13 -2.21338e-13 -1.6721e-14 0 0 -2.904e-13 -3.42091e-13 -1.81534e-13 -7.05872e-14 0 0 -2.75029e-13 -3.39568e-13 -1.47165e-13 -7.74098e-14 0 0 -2.57934e-13 -3.38178e-13 -1.2042e-13 -4.34107e-14 0 0 -2.26491e-13 -3.53726e-13 -8.39612e-14 -1.66819e-14 0 0 -1.87571e-13 -3.82562e-13 -4.50822e-14 -5.30215e-15 0 0 -1.53385e-13 -4.10636e-13 -6.60663e-15 -6.36127e-15 0 0 -1.30517e-13 -4.20767e-13 2.4212e-14 -3.88121e-14 0 0 -1.15951e-13 -4.10713e-13 2.57516e-14 -6.76773e-14 0 0 -1.019e-13 -3.94657e-13 1.03142e-14 -9.26656e-14 0 0 -9.75114e-14 -3.62114e-13 -2.20334e-14 -1.24366e-13 0 0 -9.73087e-14 -3.22813e-13 -6.96878e-14 -1.36954e-13 0 0 -9.39407e-14 -2.8658e-13 -1.16158e-13 -1.50266e-13 0 0 -8.87689e-14 -2.51503e-13 -1.59966e-13 -1.69015e-13 0 0 -7.90983e-14 -2.29651e-13 -1.93116e-13 -1.81076e-13 0 0 -6.61047e-14 -2.16247e-13 -2.22042e-13 -1.8236e-13 0 0 -4.8706e-14 -2.11167e-13 -2.40507e-13 -1.91679e-13 0 0 -2.45847e-14 -2.17498e-13 -2.4544e-13 -2.18125e-13 0 0 6.48305e-15 -2.28038e-13 -2.54181e-13 -2.3971e-13 0 0 3.95483e-14 -2.44285e-13 -2.66105e-13 -2.48271e-13 0 0 7.11799e-14 -2.60536e-13 -2.88335e-13 -2.49203e-13 0 0 9.96607e-14 -2.69344e-13 -3.22695e-13 -2.43179e-13 0 0 1.25594e-13 -2.76075e-13 -3.55676e-13 -2.34872e-13 0 0 1.49077e-13 -2.80726e-13 -3.82644e-13 -2.366e-13 0 0 1.68396e-13 -2.85558e-13 -3.97778e-13 -2.57398e-13 0 0 1.79835e-13 -2.86624e-13 -4.03753e-13 -2.92251e-13 0 0 1.86206e-13 -2.83971e-13 -4.11831e-13 -3.17271e-13 0 0 1.94158e-13 -2.87051e-13 -4.19977e-13 -3.29764e-13 0 0 1.98054e-13 -2.84086e-13 -4.35823e-13 -3.36972e-13 0 0 1.94425e-13 -2.71425e-13 -4.5674e-13 -3.43443e-13 0 0 1.84401e-13 -2.61165e-13 -4.70307e-13 -3.51492e-13 0 0 1.65953e-13 -2.5503e-13 -4.76835e-13 -3.51589e-13 0 0 1.36769e-13 -2.47351e-13 -4.79175e-13 -3.50957e-13 0 0 9.7161e-14 -2.37627e-13 -4.81859e-13 -3.54752e-13 0 0 5.40601e-14 -2.40272e-13 -4.69358e-13 -3.59001e-13 0 0 9.90725e-15 -2.53399e-13 -4.34275e-13 -3.72653e-13 0 0 -3.80045e-14 -2.63326e-13 -3.93481e-13 -3.94437e-13 0 0 -8.99776e-14 -2.61888e-13 -3.61102e-13 -4.22152e-13 0 0 -1.38478e-13 -2.52914e-13 -3.40753e-13 -4.44161e-13 0 0 -1.7723e-13 -2.44625e-13 -3.30941e-13 -4.41108e-13 0 0 -2.10322e-13 -2.20055e-13 -3.63246e-13 -4.01712e-13 0 0 -2.34034e-13 -1.98803e-13 -3.76943e-13 -3.74991e-13 0 0 -2.30999e-13 -2.23376e-13 -3.28703e-13 -3.8321e-13 0 0 -2.34564e-13 -2.51686e-13 -2.78103e-13 -3.97343e-13 0 0 -2.67745e-13 -2.12492e-13 -2.98695e-13 -3.80732e-13 0 0 -2.7817e-13 -1.75825e-13 -3.47981e-13 -2.94038e-13 0 0 -2.50311e-13 -2.12194e-13 -3.30989e-13 -2.18199e-13 0 0 -2.2864e-13 -2.33658e-13 -3.03048e-13 -2.17144e-13 0 0 -2.2176e-13 -2.34082e-13 -2.67064e-13 -2.27119e-13 0 0 -2.13153e-13 -2.55565e-13 -2.07614e-13 -2.09547e-13 0 0 -2.05086e-13 -2.69399e-13 -1.54822e-13 -1.93981e-13 0 0 -2.01913e-13 -2.61804e-13 -8.61322e-14 -2.49997e-13 0 0 -2.06899e-13 -2.27634e-13 -8.93548e-14 -2.63648e-13 0 0 -2.0147e-13 -2.0775e-13 -1.43927e-13 -1.69084e-13 0 0 -1.82988e-13 -2.31377e-13 -1.26756e-13 -1.20853e-13 0 0 -1.69295e-13 -2.32311e-13 -1.47831e-13 -9.63453e-14 0 0 -1.74056e-13 -2.09193e-13 -1.72793e-13 -9.42121e-14 0 0 -1.81674e-13 -2.01559e-13 -1.59574e-13 -7.90406e-14 0 0 -1.67837e-13 -2.03714e-13 -1.83862e-13 -6.0556e-14 0 0 -1.64609e-13 -2.13174e-13 -1.96151e-13 -7.22358e-14 0 0 -1.6829e-13 -2.22846e-13 -1.92256e-13 -4.61081e-14 0 0 -1.44903e-13 -2.58788e-13 -1.24705e-13 -1.13599e-13 0 0 -1.2095e-13 -2.73248e-13 -1.13684e-13 -1.88701e-13 0 0 -1.06895e-13 -2.52198e-13 -1.92277e-13 -1.54872e-13 0 0 -1.12325e-13 -2.14347e-13 -2.47798e-13 -1.11158e-13 0 0 -1.37054e-13 -1.75716e-13 -2.72506e-13 -9.42086e-14 0 0 -1.37922e-13 -1.72652e-13 -2.82753e-13 -8.7816e-14 0 0 -1.28305e-13 -1.92026e-13 -2.83158e-13 -1.05627e-13 0 0 -1.49225e-13 -1.70343e-13 -3.04472e-13 -1.03555e-13 0 0 -1.68025e-13 -1.55172e-13 -2.73056e-13 -1.09302e-13 0 0 -1.77072e-13 -1.7428e-13 -2.28601e-13 -1.32872e-13 0 0 -1.94796e-13 -1.89024e-13 -2.82038e-13 -7.46998e-14 0 0 -2.13173e-13 -2.14705e-13 -2.8934e-13 -6.55806e-14 0 0 -2.03577e-13 -2.69173e-13 -2.5422e-13 -6.73504e-14 0 0 -1.76595e-13 -3.19117e-13 -2.68734e-13 -6.06259e-14 0 0 -1.65574e-13 -3.255e-13 -3.48737e-13 -1.38082e-13 0 0 -1.74694e-13 -3.37655e-13 -3.91138e-13 -2.37565e-13 0 0 -1.74525e-13 -3.69448e-13 -3.78222e-13 -3.10982e-13 0 0 -1.66652e-13 -3.90695e-13 -3.67653e-13 -3.43032e-13 0 0 -1.72709e-13 -3.4616e-13 -4.54353e-13 -2.83939e-13 0 0 -1.8999e-13 -2.84238e-13 -4.96309e-13 -2.51231e-13 0 0 -2.13934e-13 -3.27521e-13 -3.15616e-13 -2.62583e-13 0 0 -2.11964e-13 -3.91894e-13 -2.25385e-13 -1.08096e-13 0 0 -2.12868e-13 -3.85126e-13 -2.54661e-13 -6.80542e-17 0 0 -2.01244e-13 -3.69213e-13 -2.45155e-13 -1.56683e-14 0 0 -1.57645e-13 -3.68e-13 -2.66699e-13 5.80153e-15 0 0 -1.67585e-13 -3.04443e-13 -3.62628e-13 -6.48594e-14 0 0 -2.20075e-13 -1.83216e-13 -4.42399e-13 -2.32001e-13 0 0 -1.50221e-13 -2.88344e-13 -2.64387e-13 -4.06083e-13 0 0 -9.95615e-14 -3.14608e-13 -2.14686e-13 -3.92103e-13 0 0 -2.17187e-13 -8.37639e-14 -4.37682e-13 -1.4028e-13 0 0 -2.34456e-13 -1.4303e-13 -3.6517e-13 -2.69427e-13 0 0 -2.10465e-13 -2.44375e-13 -2.02362e-13 -5.50404e-13 0 0 -1.83955e-13 -2.45379e-13 -3.05958e-13 -3.45847e-13 0 0 -1.07399e-13 -3.89937e-13 -1.90843e-13 -4.02142e-13 0 0 -1.49932e-13 -3.60778e-13 -1.21909e-13 -5.00657e-13 0 0 -1.67713e-13 -2.50103e-13 -3.49825e-13 -2.6205e-13 0 0 -1.46318e-13 -2.5637e-13 -3.77458e-13 -2.04584e-13 0 0 -1.61626e-13 -2.38265e-13 -3.12048e-13 -2.24924e-13 0 0 -1.95564e-13 -1.47567e-13 -4.00258e-13 -6.9107e-14 0 0 -1.32921e-13 -2.82785e-13 -2.56426e-13 -2.60935e-14 0 0 -9.97797e-14 -3.26031e-13 -1.81005e-13 -2.48604e-14 0 0 -9.50974e-14 -2.53183e-13 -2.22401e-13 -2.15426e-14 0 0 -1.27129e-13 -1.85236e-13 -2.9121e-13 1.23597e-13 0 0 -2.07462e-13 -9.95663e-14 -3.32964e-13 2.22328e-13 0 0 -1.84e-13 -1.6991e-13 -2.26198e-13 1.72104e-13 0 0 -3.63083e-14 -4.05552e-13 6.0322e-14 -3.60904e-14 0 0 -7.66386e-14 -3.24276e-13 1.38961e-13 -1.85188e-13 0 0 -2.71813e-13 7.75698e-15 -2.02447e-13 9.2399e-14 0 0 -2.45925e-13 -5.14502e-14 -1.94643e-13 1.88922e-13 0 0 -1.34021e-13 -1.92279e-13 -5.70486e-14 1.09552e-13 0 0 -6.83102e-14 -2.53152e-13 -8.8973e-14 1.21101e-13 0 0 5.53335e-15 -4.19586e-13 8.95577e-14 -2.03526e-14 0 0 -1.48441e-13 -1.8598e-13 -5.24214e-14 5.37875e-15 0 0 -2.67484e-13 1.83358e-14 -2.2127e-13 4.95872e-15 0 0 -1.23824e-13 -3.01153e-13 1.34436e-13 -2.61701e-13 0 0 -1.38673e-13 -3.32631e-13 1.75055e-13 -2.38418e-13 0 0 -1.64246e-13 -2.8604e-13 1.73217e-14 -6.80124e-14 0 0 -1.18929e-13 -4.29841e-13 -2.24686e-14 -3.82119e-14 0 0 -3.16843e-13 -1.59664e-13 -4.38053e-13 1.95793e-13 0 0 -4.71088e-13 6.60247e-14 -7.22317e-13 3.04388e-13 0 0 -3.62419e-13 -4.24092e-14 -5.46074e-13 -3.96466e-14 0 0 -3.48778e-13 3.18172e-14 -5.51103e-13 -1.12331e-13 0 0 -3.81325e-13 5.15592e-14 -3.97037e-13 -2.34703e-13 0 0 -3.38417e-13 -6.29036e-14 -9.49902e-14 -5.15522e-13 0
				</DataArray>
				<DataArray Name="VitesseY" type="Float32" format="ascii">