<?xml version="1.0"?>
<VTKFile type="PolyData">
	<PolyData>
		<Piece NumberOfPoints="1206" NumberOfPolys="1000">
			<Points>
				<DataArray type="Float32" NumberOfComponents="3" format="ascii">
 0 0 0 0.02 0 0 0.04 0 0 0.06 0 0 0.08 0 0 0.1 0 0 0 0.005 0 0.02 0.005 0 0.04 0.005 0 0.06 0.005 0 0.08 0.005 0 0.1 0.005 0 0 0.01 0 0.02 0.01 0 0.04 0.01 0 0.06 0.01 0 0.08 0.01 0 0.1 0.01 0 0 0.015 0 0.02 0.015 0 0.04 0.015 0 0.06 0.015 0 0.08 0.015 0 0.1 0.015 0 0 0.02 0 0.02 0.02 0 0.04 0.02 0 0.06 0.02 0 0.08 0.02 0 0.1 0.02 0 0 0.025 0 0.02 0.025 0 0.04 0.025 0 0.06 0.025 0 0.08 0.025 0 0.1 0.025 0 0 0.03 0 0.02 0.03 0 0.04 0.03 0 0.06 0.03 0 0.08 0.03 0 0.1 0.03 0 0 0.035 0 0.02 0.035 0 0.04 0.035 0 0.06 0.035 0 0.08 0.035 0 0.1 0.035 0 0 0.04 0 0.02 0.04 0 0.04 0.04 0 0.06 0.04 0 0.08 0.04 0 0.1 0.04 0 0 0.045 0 0.02 0.045 0 0.04 0.045 0 0.06 0.045 0 0.08 0.045 0 0.1 0.045 0 0 0.05 0 0.02 0.05 0 0.04 0.05 0 0.06 0.05 0 0.08 0.05 0 0.1 0.05 0 0 0.055 0 0.02 0.055 0 0.04 0.055 0 0.06 0.055 0 0.08 0.055 0 0.1 0.055 0 0 0.06 0 0.02 0.06 0 0.04 0.06 0 0.06 0.06 0 0.08 0.06 0 0.1 0.06 0 0 0.065 0 0.02 0.065 0 0.04 0.065 0 0.06 0.065 0 0.08 0.065 0 0.1 0.065 0 0 0.07 0 0.02 0.07 0 0.04 0.07 0 0.06 0.07 0 0.08 0.07 0 0.1 0.07 0 0 0.075 0 0.02 0.075 0 0.04 0.075 0 0.06 0.075 0 0.08 0.075 0 0.1 0.075 0 0 0.08 0 0.02 0.08 0 0.04 0.08 0 0.06 0.08 0 0.08 0.08 0 0.1 0.08 0 0 0.085 0 0.02 0.085 0 0.04 0.085 0 0.06 0.085 0 0.08 0.085 0 0.1 0.085 0 0 0.09 0 0.02 0.09 0 0.04 0.09 0 0.06 0.09 0 0.08 0.09 0 0.1 0.09 0 0 0.095 0 0.02 0.095 0 0.04 0.095 0 0.06 0.095 0 0.08 0.095 0 0.1 0.095 0 0 0.1 0 0.02 0.1 0 0.04 0.1 0 0.06 0.1 0 0.08 0.1 0 0.1 0.1 0 0 0.105 0 0.02 0.105 0 0.04 0.105 0 0.06 0.105 0 0.08 0.105 0 0.1 0.105 0 0 0.11 0 0.02 0.11 0 0.04 0.11 0 0.06 0.11 0 0.08 0.11 0 0.1 0.11 0 0 0.115 0 0.02 0.115 0 0.04 0.115 0 0.06 0.115 0 0.08 0.115 0 0.1 0.115 0 0 0.12 0 0.02 0.12 0 0.04 0.12 0 0.06 0.12 0 0.08 0.12 0 0.1 0.12 0 0 0.125 0 0.02 0.125 0 0.04 0.125 0 0.06 0.125 0 0.08 0.125 0 0.1 0.125 0 0 0.13 0 0.02 0.13 0 0.04 0.13 0 0.06 0.13 0 0.08 0.13 0 0.1 0.13 0 0 0.135 0 0.02 0.135 0 0.04 0.135 0 0.06 0.135 0 0.08 0.135 0 0.1 0.135 0 0 0.14 0 0.02 0.14 0 0.04 0.14 0 0.06 0.14 0 0.08 0.14 0 0.1 0.14 0 0 0.145 0 0.02 0.145 0 0.04 0.145 0 0.06 0.145 0 0.08 0.145 0 0.1 0.145 0 0 0.15 0 0.02 0.15 0 0.04 0.15 0 0.06 0.15 0 0.08 0.15 0 0.1 0.15 0 0 0.155 0 0.02 0.155 0 0.04 0.155 0 0.06 0.155 0 0.08 0.155 0 0.1 0.155 0 0 0.16 0 0.02 0.16 0 0.04 0.16 0 0.06 0.16 0 0.08 0.16 0 0.1 0.16 0 0 0.165 0 0.02 0.165 0 0.04 0.165 0 0.06 0.165 0 0.08 0.165 0 0.1 0.165 0 0 0.17 0 0.02 0.17 0 0.04 0.17 0 0.06 0.17 0 0.08 0.17 0 0.1 0.17 0 0 0.175 0 0.02 0.175 0 0.04 0.175 0 0.06 0.175 0 0.08 0.175 0 0.1 0.175 0 0 0.18 0 0.02 0.18 0 0.04 0.18 0 0.06 0.18 0 0.08 0.18 0 0.1 0.18 0 0 0.185 0 0.02 0.185 0 0.04 0.185 0 0.06 0.185 0 0.08 0.185 0 0.1 0.185 0 0 0.19 0 0.02 0.19 0 0.04 0.19 0 0.06 0.19 0 0.08 0.19 0 0.1 0.19 0 0 0.195 0 0.02 0.195 0 0.04 0.195 0 0.06 0.195 0 0.08 0.195 0 0.1 0.195 0 0 0.2 0 0.02 0.2 0 0.04 0.2 0 0.06 0.2 0 0.08 0.2 0 0.1 0.2 0 0 0.205 0 0.02 0.205 0 0.04 0.205 0 0.06 0.205 0 0.08 0.205 0 0.1 0.205 0 0 0.21 0 0.02 0.21 0 0.04 0.21 0 0.06 0.21 0 0.08 0.21 0 0.1 0.21 0 0 0.215 0 0.02 0.215 0 0.04 0.215 0 0.06 0.215 0 0.08 0.215 0 0.1 0.215 0 0 0.22 0 0.02 0.22 0 0.04 0.22 0 0.06 0.22 0 0.08 0.22 0 0.1 0.22 0 0 0.225 0 0.02 0.225 0 0.04 0.225 0 0.06 0.225 0 0.08 0.225 0 0.1 0.225 0 0 0.23 0 0.02 0.23 0 0.04 0.23 0 0.06 0.23 0 0.08 0.23 0 0.1 0.23 0 0 0.235 0 0.02 0.235 0 0.04 0.235 0 0.06 0.235 0 0.08 0.235 0 0.1 0.235 0 0 0.24 0 0.02 0.24 0 0.04 0.24 0 0.06 0.24 0 0.08 0.24 0 0.1 0.24 0 0 0.245 0 0.02 0.245 0 0.04 0.245 0 0.06 0.245 0 0.08 0.245 0 0.1 0.245 0 0 0.25 0 0.02 0.25 0 0.04 0.25 0 0.06 0.25 0 0.08 0.25 0 0.1 0.25 0 0 0.255 0 0.02 0.255 0 0.04 0.255 0 0.06 0.255 0 0.08 0.255 0 0.1 0.255 0 0 0.26 0 0.02 0.26 0 0.04 0.26 0 0.06 0.26 0 0.08 0.26 0 0.1 0.26 0 0 0.265 0 0.02 0.265 0 0.04 0.265 0 0.06 0.265 0 0.08 0.265 0 0.1 0.265 0 0 0.27 0 0.02 0.27 0 0.04 0.27 0 0.06 0.27 0 0.08 0.27 0 0.1 0.27 0 0 0.275 0 0.02 0.275 0 0.04 0.275 0 0.06 0.275 0 0.08 0.275 0 0.1 0.275 0 0 0.28 0 0.02 0.28 0 0.04 0.28 0 0.06 0.28 0 0.08 0.28 0 0.1 0.28 0 0 0.285 0 0.02 0.285 0 0.04 0.285 0 0.06 0.285 0 0.08 0.285 0 0.1 0.285 0 0 0.29 0 0.02 0.29 0 0.04 0.29 0 0.06 0.29 0 0.08 0.29 0 0.1 0.29 0 0 0.295 0 0.02 0.295 0 0.04 0.295 0 0.06 0.295 0 0.08 0.295 0 0.1 0.295 0 0 0.3 0 0.02 0.3 0 0.04 0.3 0 0.06 0.3 0 0.08 0.3 0 0.1 0.3 0 0 0.305 0 0.02 0.305 0 0.04 0.305 0 0.06 0.305 0 0.08 0.305 0 0.1 0.305 0 0 0.31 0 0.02 0.31 0 0.04 0.31 0 0.06 0.31 0 0.08 0.31 0 0.1 0.31 0 0 0.315 0 0.02 0.315 0 0.04 0.315 0 0.06 0.315 0 0.08 0.315 0 0.1 0.315 0 0 0.32 0 0.02 0.32 0 0.04 0.32 0 0.06 0.32 0 0.08 0.32 0 0.1 0.32 0 0 0.325 0 0.02 0.325 0 0.04 0.325 0 0.06 0.325 0 0.08 0.325 0 0.1 0.325 0 0 0.33 0 0.02 0.33 0 0.04 0.33 0 0.06 0.33 0 0.08 0.33 0 0.1 0.33 0 0 0.335 0 0.02 0.335 0 0.04 0.335 0 0.06 0.335 0 0.08 0.335 0 0.1 0.335 0 0 0.34 0 0.02 0.34 0 0.04 0.34 0 0.06 0.34 0 0.08 0.34 0 0.1 0.34 0 0 0.345 0 0.02 0.345 0 0.04 0.345 0 0.06 0.345 0 0.08 0.345 0 0.1 0.345 0 0 0.35 0 0.02 0.35 0 0.04 0.35 0 0.06 0.35 0 0.08 0.35 0 0.1 0.35 0 0 0.355 0 0.02 0.355 0 0.04 0.355 0 0.06 0.355 0 0.08 0.355 0 0.1 0.355 0 0 0.36 0 0.02 0.36 0 0.04 0.36 0 0.06 0.36 0 0.08 0.36 0 0.1 0.36 0 0 0.365 0 0.02 0.365 0 0.04 0.365 0 0.06 0.365 0 0.08 0.365 0 0.1 0.365 0 0 0.37 0 0.02 0.37 0 0.04 0.37 0 0.06 0.37 0 0.08 0.37 0 0.1 0.37 0 0 0.375 0 0.02 0.375 0 0.04 0.375 0 0.06 0.375 0 0.08 0.375 0 0.1 0.375 0 0 0.38 0 0.02 0.38 0 0.04 0.38 0 0.06 0.38 0 0.08 0.38 0 0.1 0.38 0 0 0.385 0 0.02 0.385 0 0.04 0.385 0 0.06 0.385 0 0.08 0.385 0 0.1 0.385 0 0 0.39 0 0.02 0.39 0 0.04 0.39 0 0.06 0.39 0 0.08 0.39 0 0.1 0.39 0 0 0.395 0 0.02 0.395 0 0.04 0.395 0 0.06 0.395 0 0.08 0.395 0 0.1 0.395 0 0 0.4 0 0.02 0.4 0 0.04 0.4 0 0.06 0.4 0 0.08 0.4 0 0.1 0.4 0 0 0.405 0 0.02 0.405 0 0.04 0.405 0 0.06 0.405 0 0.08 0.405 0 0.1 0.405 0 0 0.41 0 0.02 0.41 0 0.04 0.41 0 0.06 0.41 0 0.08 0.41 0 0.1 0.41 0 0 0.415 0 0.02 0.415 0 0.04 0.415 0 0.06 0.415 0 0.08 0.415 0 0.1 0.415 0 0 0.42 0 0.02 0.42 0 0.04 0.42 0 0.06 0.42 0 0.08 0.42 0 0.1 0.42 0 0 0.425 0 0.02 0.425 0 0.04 0.425 0 0.06 0.425 0 0.08 0.425 0 0.1 0.425 0 0 0.43 0 0.02 0.43 0 0.04 0.43 0 0.06 0.43 0 0.08 0.43 0 0.1 0.43 0 0 0.435 0 0.02 0.435 0 0.04 0.435 0 0.06 0.435 0 0.08 0.435 0 0.1 0.435 0 0 0.44 0 0.02 0.44 0 0.04 0.44 0 0.06 0.44 0 0.08 0.44 0 0.1 0.44 0 0 0.445 0 0.02 0.445 0 0.04 0.445 0 0.06 0.445 0 0.08 0.445 0 0.1 0.445 0 0 0.45 0 0.02 0.45 0 0.04 0.45 0 0.06 0.45 0 0.08 0.45 0 0.1 0.45 0 0 0.455 0 0.02 0.455 0 0.04 0.455 0 0.06 0.455 0 0.08 0.455 0 0.1 0.455 0 0 0.46 0 0.02 0.46 0 0.04 0.46 0 0.06 0.46 0 0.08 0.46 0 0.1 0.46 0 0 0.465 0 0.02 0.465 0 0.04 0.465 0 0.06 0.465 0 0.08 0.465 0 0.1 0.465 0 0 0.47 0 0.02 0.47 0 0.04 0.47 0 0.06 0.47 0 0.08 0.47 0 0.1 0.47 0 0 0.475 0 0.02 0.475 0 0.04 0.475 0 0.06 0.475 0 0.08 0.475 0 0.1 0.475 0 0 0.48 0 0.02 0.48 0 0.04 0.48 0 0.06 0.48 0 0.08 0.48 0 0.1 0.48 0 0 0.485 0 0.02 0.485 0 0.04 0.485 0 0.06 0.485 0 0.08 0.485 0 0.1 0.485 0 0 0.49 0 0.02 0.49 0 0.04 0.49 0 0.06 0.49 0 0.08 0.49 0 0.1 0.49 0 0 0.495 0 0.02 0.495 0 0.04 0.495 0 0.06 0.495 0 0.08 0.495 0 0.1 0.495 0 0 0.5 0 0.02 0.5 0 0.04 0.5 0 0.06 0.5 0 0.08 0.5 0 0.1 0.5 0 0 0.505 0 0.02 0.505 0 0.04 0.505 0 0.06 0.505 0 0.08 0.505 0 0.1 0.505 0 0 0.51 0 0.02 0.51 0 0.04 0.51 0 0.06 0.51 0 0.08 0.51 0 0.1 0.51 0 0 0.515 0 0.02 0.515 0 0.04 0.515 0 0.06 0.515 0 0.08 0.515 0 0.1 0.515 0 0 0.52 0 0.02 0.52 0 0.04 0.52 0 0.06 0.52 0 0.08 0.52 0 0.1 0.52 0 0 0.525 0 0.02 0.525 0 0.04 0.525 0 0.06 0.525 0 0.08 0.525 0 0.1 0.525 0 0 0.53 0 0.02 0.53 0 0.04 0.53 0 0.06 0.53 0 0.08 0.53 0 0.1 0.53 0 0 0.535 0 0.02 0.535 0 0.04 0.535 0 0.06 0.535 0 0.08 0.535 0 0.1 0.535 0 0 0.54 0 0.02 0.54 0 0.04 0.54 0 0.06 0.54 0 0.08 0.54 0 0.1 0.54 0 0 0.545 0 0.02 0.545 0 0.04 0.545 0 0.06 0.545 0 0.08 0.545 0 0.1 0.545 0 0 0.55 0 0.02 0.55 0 0.04 0.55 0 0.06 0.55 0 0.08 0.55 0 0.1 0.55 0 0 0.555 0 0.02 0.555 0 0.04 0.555 0 0.06 0.555 0 0.08 0.555 0 0.1 0.555 0 0 0.56 0 0.02 0.56 0 0.04 0.56 0 0.06 0.56 0 0.08 0.56 0 0.1 0.56 0 0 0.565 0 0.02 0.565 0 0.04 0.565 0 0.06 0.565 0 0.08 0.565 0 0.1 0.565 0 0 0.57 0 0.02 0.57 0 0.04 0.57 0 0.06 0.57 0 0.08 0.57 0 0.1 0.57 0 0 0.575 0 0.02 0.575 0 0.04 0.575 0 0.06 0.575 0 0.08 0.575 0 0.1 0.575 0 0 0.58 0 0.02 0.58 0 0.04 0.58 0 0.06 0.58 0 0.08 0.58 0 0.1 0.58 0 0 0.585 0 0.02 0.585 0 0.04 0.585 0 0.06 0.585 0 0.08 0.585 0 0.1 0.585 0 0 0.59 0 0.02 0.59 0 0.04 0.59 0 0.06 0.59 0 0.08 0.59 0 0.1 0.59 0 0 0.595 0 0.02 0.595 0 0.04 0.595 0 0.06 0.595 0 0.08 0.595 0 0.1 0.595 0 0 0.6 0 0.02 0.6 0 0.04 0.6 0 0.06 0.6 0 0.08 0.6 0 0.1 0.6 0 0 0.605 0 0.02 0.605 0 0.04 0.605 0 0.06 0.605 0 0.08 0.605 0 0.1 0.605 0 0 0.61 0 0.02 0.61 0 0.04 0.61 0 0.06 0.61 0 0.08 0.61 0 0.1 0.61 0 0 0.615 0 0.02 0.615 0 0.04 0.615 0 0.06 0.615 0 0.08 0.615 0 0.1 0.615 0 0 0.62 0 0.02 0.62 0 0.04 0.62 0 0.06 0.62 0 0.08 0.62 0 0.1 0.62 0 0 0.625 0 0.02 0.625 0 0.04 0.625 0 0.06 0.625 0 0.08 0.625 0 0.1 0.625 0 0 0.63 0 0.02 0.63 0 0.04 0.63 0 0.06 0.63 0 0.08 0.63 0 0.1 0.63 0 0 0.635 0 0.02 0.635 0 0.04 0.635 0 0.06 0.635 0 0.08 0.635 0 0.1 0.635 0 0 0.64 0 0.02 0.64 0 0.04 0.64 0 0.06 0.64 0 0.08 0.64 0 0.1 0.64 0 0 0.645 0 0.02 0.645 0 0.04 0.645 0 0.06 0.645 0 0.08 0.645 0 0.1 0.645 0 0 0.65 0 0.02 0.65 0 0.04 0.65 0 0.06 0.65 0 0.08 0.65 0 0.1 0.65 0 0 0.655 0 0.02 0.655 0 0.04 0.655 0 0.06 0.655 0 0.08 0.655 0 0.1 0.655 0 0 0.66 0 0.02 0.66 0 0.04 0.66 0 0.06 0.66 0 0.08 0.66 0 0.1 0.66 0 0 0.665 0 0.02 0.665 0 0.04 0.665 0 0.06 0.665 0 0.08 0.665 0 0.1 0.665 0 0 0.67 0 0.02 0.67 0 0.04 0.67 0 0.06 0.67 0 0.08 0.67 0 0.1 0.67 0 0 0.675 0 0.02 0.675 0 0.04 0.675 0 0.06 0.675 0 0.08 0.675 0 0.1 0.675 0 0 0.68 0 0.02 0.68 0 0.04 0.68 0 0.06 0.68 0 0.08 0.68 0 0.1 0.68 0 0 0.685 0 0.02 0.685 0 0.04 0.685 0 0.06 0.685 0 0.08 0.685 0 0.1 0.685 0 0 0.69 0 0.02 0.69 0 0.04 0.69 0 0.06 0.69 0 0.08 0.69 0 0.1 
[...]
			<PointData Scalars="VitesseX">
				<DataArray Name="VitesseX" type="Float32" format="ascii">
 0 -7.99256e-15 -2.09866e-14 1.11975e-14 -1.84658e-15 0 0 -8.43965e-15 -1.70757e-14 6.28319e-15 -3.01181e-16 0 0 -9.54444e-15 -7.57126e-15 -8.51706e-15 9.26457e-15 0 0 3.58372e-15 -2.05967e-14 1.12647e-15 3.84752e-15 0 0 1.01124e-14 -2.06552e-14 -9.56362e-17 2.16501e-15 0 0 2.47128e-15 4.80191e-15 -3.20638e-14 1.92467e-14 0 0 7.55878e-15 4.57863e-15 -3.41046e-14 1.71871e-14 0 0 1.78317e-14 -1.30831e-14 -8.56821e-15 1.07157e-15 0 0 1.37582e-14 -1.14303e-15 -1.3444e-14 3.0134e-15 0 0 8.38785e-15 1.89641e-14 -2.61868e-14 -1.96619e-15 0 0 9.17152e-15 1.95209e-14 -2.13739e-14 -1.56568e-14 0 0 9.96106e-15 1.33118e-14 -1.51506e-14 -1.66201e-14 0 0 1.58603e-14 -7.2892e-16 -5.08142e-16 -1.86076e-14 0 0 1.54236e-14 -3.11662e-15 1.57315e-15 -2.08425e-14 0 0 5.06938e-15 2.27126e-16 -1.032e-14 -1.16081e-14 0 0 -1.34627e-14 1.77277e-14 -3.93261e-14 1.27083e-14 0 0 2.71893e-14 -6.35284e-14 3.37246e-14 -3.08525e-14 0 0 1.61619e-14 -6.6449e-14 1.92272e-14 -1.35886e-14 0 0 -2.07731e-14 -8.12454e-15 -6.64702e-14 6.35038e-14 0 0 2.40055e-14 -7.87832e-14 -1.51081e-14 4.44847e-14 0 0 -5.55142e-15 -3.77864e-14 -4.2199e-14 3.94439e-14 0 0 -4.75236e-14 1.4306e-14 -5.34358e-14 2.00412e-14 0 0 -7.11749e-15 -4.5852e-14 -1.64558e-15 -8.14174e-15 0 0 2.72497e-14 -7.13367e-14 -2.34328e-14 2.50552e-14 0 0 6.06877e-15 -3.45188e-14 -3.33744e-14 1.94178e-14 0 0 1.63242e-14 -5.46375e-14 2.28275e-14 -2.69896e-14 0 0 1.67231e-14 -2.49338e-14 -6.46542e-15 -1.09279e-14 0 0 4.73137e-14 -4.6635e-14 7.64144e-15 -2.72953e-14 0 0 2.2273e-14 -1.6714e-16 -4.44478e-14 -2.5718e-15 0 0 -2.49728e-14 7.47401e-14 -1.08667e-13 3.25055e-14 0 0 4.49687e-14 -5.75761e-14 3.07732e-14 -5.15646e-14 0 0 5.3879e-14 -9.99534e-14 7.43756e-14 -6.74831e-14 0 0 -2.22733e-14 -6.83436e-15 -1.59441e-14 7.48654e-15 0 0 -3.46381e-14 1.07492e-14 -5.1032e-14 5.20787e-14 0 0 -7.49912e-15 -2.5042e-15 -7.11477e-14 5.05092e-14 0 0 7.61996e-15 -4.82583e-14 -5.42636e-15 -9.43961e-15 0 0 -1.21833e-14 -3.27568e-14 4.43006e-15 4.22436e-15 0 0 -3.37528e-14 3.5116e-14 -6.23111e-14 4.25106e-14 0 0 3.84188e-14 -4.42975e-14 -7.22469e-16 -9.81718e-15 0 0 5.49784e-14 -2.87158e-14 -4.44785e-14 -4.46905e-15 0 0 4.98783e-14 -1.04148e-14 -1.46325e-14 -7.4515e-14 0 0 5.82132e-14 -4.48228e-15 -4.2353e-14 -1.206e-14 0 0 2.45265e-14 5.72368e-14 -1.38551e-13 7.91164e-14 0 0 -7.29964e-15 8.36466e-14 -9.67468e-14 -8.30089e-15 0 0 -2.1469e-15 7.22781e-14 -6.99235e-14 -3.1097e-14 0 0 3.56253e-14 1.48063e-14 -2.26973e-14 -3.35541e-14 0 0 8.50694e-16 6.25194e-14 -7.62715e-14 2.23497e-14 0 0 -3.89722e-14 1.34313e-13 -1.33435e-13 5.08806e-14 0 0 5.32792e-14 2.35718e-14 -3.55088e-14 1.39213e-14 0 0 5.64798e-14 4.782e-14 -4.58129e-14 2.67289e-14 0 0 -1.00421e-14 1.74838e-13 -1.773e-13 1.00222e-13 0 0 -6.78942e-15 1.49799e-13 -1.28358e-13 8.31717e-14 0 0 5.78475e-14 1.82397e-14 1.0531e-13 -5.83059e-14 0 0 1.4726e-13 -6.98475e-14 2.11941e-13 -1.04825e-13 0 0 -1.30017e-14 2.14575e-13 -9.50218e-14 1.47569e-13 0 0 -5.0121e-14 2.17001e-13 -8.69398e-14 1.88961e-13 0 0 1.00298e-13 -5.78653e-14 2.17188e-13 -1.84617e-14 0 0 8.27855e-14 3.35051e-14 1.2513e-13 3.08208e-15 0 0 4.68925e-14 1.57934e-13 2.18308e-14 -1.5153e-15 0 0 1.08669e-13 8.34013e-14 1.25385e-13 -1.58147e-13 0 0 1.0321e-13 1.2736e-13 1.06199e-14 -9.54714e-14 0 0 9.29994e-14 1.73535e-13 -8.37341e-14 1.02265e-14 0 0 5.44887e-14 1.71813e-13 -4.48364e-14 3.18708e-14 0 0 5.50016e-14 1.28722e-13 2.57635e-15 -9.17959e-16 0 0 1.39658e-13 2.91613e-14 -1.14014e-14 -3.52867e-14 0 0 1.72927e-13 -3.88807e-15 -9.35905e-14 -1.33272e-14 0 0 3.25876e-13 -7.63042e-14 -5.72851e-14 -9.24304e-14 0 0 2.54582e-13 2.0004e-13 -3.47819e-13 -3.81313e-16 0 0 1.67491e-13 3.16539e-13 -4.39405e-13 1.76923e-14 0 0 1.75944e-13 1.34549e-13 -1.94925e-13 -9.21416e-14 0 0 1.14472e-13 6.60133e-14 -8.53697e-14 -1.34914e-13 0 0 1.34611e-13 6.32623e-15 -2.53784e-14 -1.69834e-13 0 0 7.71093e-14 1.59596e-13 -1.96096e-13 -9.21542e-14 0 0 8.59033e-14 2.26361e-13 -3.06728e-13 -8.2645e-14 0 0 1.34816e-13 1.53029e-13 -2.37463e-13 -1.38754e-13 0 0 1.20636e-13 1.29021e-13 -2.08351e-13 -8.86546e-14 0 0 1.68345e-13 4.34634e-14 -1.83826e-13 -3.96971e-15 0 0 1.83849e-13 1.59472e-14 -2.50507e-13 1.26759e-13 0 0 9.80469e-14 9.08101e-14 -3.84393e-13 2.71532e-13 0 0 -8.90381e-15 1.67749e-13 -4.75518e-13 3.41011e-13 0 0 -1.05063e-13 2.08299e-13 -4.97192e-13 3.2497e-13 0 0 -1.79301e-13 1.97967e-13 -4.54309e-13 2.57066e-13 0 0 -2.08168e-13 1.1721e-13 -3.37685e-13 1.46734e-13 0 0 -2.04111e-13 2.61773e-15 -1.96184e-13 2.34153e-14 0 0 -1.95282e-13 -8.86977e-14 -1.10862e-13 -4.33519e-14 0 0 -1.87369e-13 -1.55586e-13 -8.30336e-14 -4.44754e-14 0 0 -1.92796e-13 -1.89084e-13 -9.37452e-14 -8.67561e-15 0 0 -2.17262e-13 -1.8667e-13 -1.27232e-13 2.71757e-14 0 0 -2.52309e-13 -1.65919e-13 -1.64526e-13 3.2845e-14 0 0 -2.86786e-13 -1.48504e-13 -1.91051e-13 1.86562e-14 0 0 -3.0754e-13 -1.55996e-13 -1.93001e-13 -4.31087e-15 0 0 -3.14991e-13 -1.82609e-13 -1.76243e-13 -3.79848e-14 0 0 -3.15069e-13 -2.22876e-13 -1.43726e-13 -7.56098e-14 0 0 -3.23688e-13 -2.6032e-13 -1.12914e-13 -8.72822e-14 0 0 -3.50364e-13 -2.82857e-13 -8.68836e-14 -8.38333e-14 0 0 -3.88193e-13 -2.92186e-13 -6.11902e-14 -8.44889e-14 0 0 -4.34285e-13 -2.85711e-13 -4.89762e-14 -7.2557e-14 0 0 -4.78243e-13 -2.72555e-13 -4.52796e-14 -5.54091e-14 0 0 -5.07859e-13 -2.64156e-13 -2.71907e-14 -6.21488e-14 0 0 -5.15612e-13 -2.61423e-13 -3.54389e-15 -7.60602e-14 0 0 -5.02447e-13 -2.62381e-13 1.47028e-14 -9.13454e-14 0 0 -4.72713e-13 -2.61005e-13 2.10608e-14 -9.92865e-14 0 0 -4.24442e-13 -2.58398e-13 9.7305e-15 -7.30981e-14 0 0 -3.62135e-13 -2.58182e-13 -6.44754e-15 -2.64674e-14 0 0 -2.92759e-13 -2.56706e-13 -2.017e-14 2.36613e-14 0 0 -2.20974e-13 -2.5238e-13 -2.82641e-14 7.58254e-14 0 0 -1.52744e-13 -2.40904e-13 -2.84331e-14 1.17062e-13 0 0 -9.00552e-14 -2.22347e-13 -2.59713e-14 1.53058e-13 0 0 -3.25407e-14 -2.05615e-13 -1.39634e-14 1.86137e-13 0 0 1.8824e-14 -1.85652e-13 -6.93387e-15 2.24113e-13 0 0 6.04513e-14 -1.52151e-13 -2.01209e-14 2.67219e-13 0 0 9.64964e-14 -1.27658e-13 -2.39889e-14 3.06609e-13 0 0 1.29977e-13 -1.27839e-13 -5.40484e-16 3.4088e-13 0 0 1.53527e-13 -1.35644e-13 4.07508e-14 3.48499e-13 0 0 1.55418e-13 -1.27071e-13 8.40779e-14 3.36569e-13 0 0 1.63603e-13 -1.16063e-13 1.09351e-13 3.19999e-13 0 0 1.84389e-13 -1.29274e-13 1.8437e-13 2.45722e-13 0 0 1.93803e-13 -1.03908e-13 1.88078e-13 2.36659e-13 0 0 1.8591e-13 -4.63512e-14 1.30507e-13 2.43265e-13 0 0 1.93273e-13 -2.95423e-14 1.53933e-13 1.7755e-13 0 0 1.93892e-13 2.13046e-15 1.47913e-13 1.4465e-13 0 0 1.75752e-13 5.19312e-14 1.05229e-13 1.47021e-13 0 0 1.75251e-13 7.20765e-14 7.15205e-14 1.74426e-13 0 0 1.52845e-13 8.97341e-14 8.91194e-14 1.17793e-13 0 0 1.18874e-13 7.90218e-14 1.83766e-13 5.39683e-15 0 0 1.03421e-13 7.35964e-14 1.84555e-13 -2.73151e-15 0 0 9.17349e-14 1.16833e-13 6.06284e-14 1.09687e-13 0 0 1.08757e-13 9.36303e-14 5.92203e-14 8.75563e-14 0 0 9.43006e-14 9.24945e-14 6.72243e-14 1.4573e-14 0 0 6.10908e-14 1.10563e-13 5.79408e-14 -3.14153e-15 0 0 5.67697e-14 6.57963e-14 1.06934e-13 -6.43884e-14 0 0 4.28329e-14 6.11204e-14 6.66638e-14 -3.71293e-14 0 0 2.82596e-14 8.11683e-14 -2.03569e-14 4.52109e-14 0 0 1.56566e-14 9.44462e-14 -8.68175e-14 7.67065e-14 0 0 2.28232e-14 7.34165e-14 -1.11666e-13 7.01388e-14 0 0 2.02946e-14 3.82828e-14 -9.43573e-14 5.56049e-14 0 0 1.12742e-14 7.93947e-15 -6.03868e-14 3.14855e-14 0 0 -7.70794e-15 2.67877e-15 -4.86792e-14 -3.76688e-15 0 0 -2.82832e-14 1.89601e-14 -7.99618e-14 -2.82938e-14 0 0 -2.18154e-14 2.30447e-15 -1.17768e-13 3.44306e-14 0 0 -1.60783e-14 -4.06041e-14 -1.16515e-13 5.46661e-14 0 0 -4.20745e-14 -5.74378e-14 -6.15256e-14 -2.81157e-15 0 0 -6.87662e-14 -5.96324e-14 -3.5658e-14 -2.50161e-15 0 0 -6.86614e-14 -6.6065e-14 -8.85348e-14 3.38987e-14 0 0 -7.51155e-14 -7.43871e-14 -9.02967e-14 -1.70855e-14 0 0 -7.4299e-14 -8.09514e-14 -8.9432e-14 -4.25138e-14 0 0 -6.08023e-14 -6.23123e-14 -1.66261e-13 -1.67856e-14 0 0 -3.04887e-14 -8.45232e-14 -1.61199e-13 -1.36609e-13 0 0 -3.11355e-14 -9.38341e-14 -1.17743e-13 -2.90485e-13 0 0 -2.87214e-14 -1.21664e-13 -6.62786e-15 -3.75322e-13 0 0 1.46375e-14 -1.37924e-13 1.61712e-13 -2.32841e-13 0 0 6.92061e-15 1.05067e-14 1.26832e-13 1.29196e-13 0 0 2.08126e-14 9.48865e-14 1.26381e-13 2.08745e-13 0 0 4.21514e-14 1.30753e-13 1.872e-13 1.76912e-13 0 0 6.69392e-14 1.44947e-13 2.32944e-13 1.79134e-13 0 0 1.26431e-13 1.20645e-13 2.25431e-13 1.87475e-13 0 0 1.28706e-13 1.46491e-13 2.49173e-13 1.35274e-13 0 0 1.18509e-13 1.29784e-13 3.77503e-13 2.5834e-14 0 0 6.57664e-14 2.10467e-13 2.50879e-13 1.69424e-13 0 0 9.18485e-15 2.81158e-13 1.96229e-13 1.70576e-13 0 0 6.19544e-14 1.99209e-13 2.61111e-13 1.61076e-13 0 0 6.10306e-14 1.92402e-13 2.40762e-13 2.56179e-13 0 0 4.18629e-14 2.03915e-13 2.42065e-13 3.30204e-13 0 0 1.02887e-13 8.24572e-14 3.916e-13 3.12412e-13 0 0 4.1523e-14 1.4482e-13 4.06629e-13 2.86904e-13 0 0 -3.51709e-14 2.83127e-13 3.03644e-13 2.85513e-13 0 0 8.02522e-15 2.44341e-13 3.79299e-13 2.26587e-13 0 0 1.05916e-13 1.51278e-13 4.45592e-13 2.30089e-13 0 0 1.82528e-13 1.15113e-13 4.41793e-13 2.33639e-13 0 0 1.2708e-13 2.28896e-13 3.64208e-13 2.9728e-13 0 0 9.76102e-14 2.70432e-13 4.09881e-13 2.08122e-13 0 0 2.13346e-13 1.44802e-13 5.50955e-13 8.89075e-14 0 0 1.8088e-13 2.46838e-13 4.17918e-13 1.87701e-13 0 0 1.09741e-13 3.46406e-13 3.48802e-13 2.27159e-13 0 0 1.46823e-13 2.87781e-13 4.09432e-13 2.2996e-13 0 0 1.67984e-13 2.60989e-13 4.93435e-13 1.26059e-13 0 0 1.44409e-13 3.81893e-13 3.61069e-13 2.43919e-13 0 0 1.52872e-13 4.48432e-13 2.28451e-13 3.88015e-13 0 0 8.6122e-14 4.44206e-13 3.34905e-13 2.47356e-13 0 0 9.67631e-14 3.40637e-13 3.68351e-13 2.77951e-13 0 0 2.55578e-13 4.60879e-14 5.56628e-13 1.71728e-13 0 0 1.01677e-13 2.91747e-13 3.47709e-13 1.20433e-13 0 0 1.33382e-13 3.21669e-13 2.26934e-13 1.62954e-13 0 0 4.00774e-13 5.55344e-14 4.39271e-13 -6.15037e-14 0 0 2.09455e-13 3.88481e-13 2.70582e-13 -1.41552e-13 0 0 1.63469e-13 4.08326e-13 2.85252e-13 -1.06732e-13 0 0 2.52995e-13 3.53622e-13 2.23004e-13 -1.6653e-14 0 0 1.6222e-13 5.28852e-13 5.93563e-14 9.98335e-14 0 0 2.44939e-13 4.08998e-13 1.35451e-13 1.14335e-13 0 0 2.7931e-13 2.58137e-13 3.1961e-13 -7.59863e-15 0 0 3.13717e-13 6.94084e-14 4.26559e-13 -1.06111e-14 0 0 1.62724e-13 2.02667e-13 2.11178e-13 1.82682e-13 0 0 7.87279e-14 2.50856e-13 2.26161e-13 1.04868e-13 0 0 2.22599e-13 -2.02914e-13 8.02423e-13 -2.74103e-13 0 0 1.48475e-13 -1.27623e-13 7.44241e-13 -1.91922e-13 0 0 1.11258e-13 1.07606e-13 3.21589e-13 1.83541e-13 0 0 2.40732e-13 -1.23859e-13 5.34821e-13 2.76068e-14 0 0 2.26912e-13 -1.23692e-13 4.28772e-13 9.15097e-14 0 0 2.38776e-13 1.88751e-14 -3.26209e-14 4.82198e-13 0 0 2.53149e-13 2.06929e-13 -3.81216e-13 6.25529e-13 0 0 1.74397e-13 3.86854e-13 -5.49505e-13 6.5394e-13 0
				</DataArray>
				<DataArray Name="VitesseY" type="Float32" format="ascii">