<?xml version="1.0"?>
<VTKFile type="PolyData">
	<PolyData>
		<Piece NumberOfPoints="1206" NumberOfPolys="1000">
			<Points>
				<DataArray type="Float32" NumberOfComponents="3" format="ascii">
 0 0 0 0.02 0 0 0.04 0 0 0.06 0 0 0.08 0 0 0.1 0 0 0 0.005 0 0.02 0.005 0 0.04 0.005 0 0.06 0.005 0 0.08 0.005 0 0.1 0.005 0 0 0.01 0 0.02 0.01 0 0.04 0.01 0 0.06 0.01 0 0.08 0.01 0 0.1 0.01 0 0 0.015 0 0.02 0.015 0 0.04 0.015 0 0.06 0.015 0 0.08 0.015 0 0.1 0.015 0 0 0.02 0 0.02 0.02 0 0.04 0.02 0 0.06 0.02 0 0.08 0.02 0 0.1 0.02 0 0 0.025 0 0.02 0.025 0 0.04 0.025 0 0.06 0.025 0 0.08 0.025 0 0.1 0.025 0 0 0.03 0 0.02 0.03 0 0.04 0.03 0 0.06 0.03 0 0.08 0.03 0 0.1 0.03 0 0 0.035 0 0.02 0.035 0 0.04 0.035 0 0.06 0.035 0 0.08 0.035 0 0.1 0.035 0 0 0.04 0 0.02 0.04 0 0.04 0.04 0 0.06 0.04 0 0.08 0.04 0 0.1 0.04 0 0 0.045 0 0.02 0.045 0 0.04 0.045 0 0.06 0.045 0 0.08 0.045 0 0.1 0.045 0 0 0.05 0 0.02 0.05 0 0.04 0.05 0 0.06 0.05 0 0.08 0.05 0 0.1 0.05 0 0 0.055 0 0.02 0.055 0 0.04 0.055 0 0.06 0.055 0 0.08 0.055 0 0.1 0.055 0 0 0.06 0 0.02 0.06 0 0.04 0.06 0 0.06 0.06 0 0.08 0.06 0 0.1 0.06 0 0 0.065 0 0.02 0.065 0 0.04 0.065 0 0.06 0.065 0 0.08 0.065 0 0.1 0.065 0 0 0.07 0 0.02 0.07 0 0.04 0.07 0 0.06 0.07 0 0.08 0.07 0 0.1 0.07 0 0 0.075 0 0.02 0.075 0 0.04 0.075 0 0.06 0.075 0 0.08 0.075 0 0.1 0.075 0 0 0.08 0 0.02 0.08 0 0.04 0.08 0 0.06 0.08 0 0.08 0.08 0 0.1 0.08 0 0 0.085 0 0.02 0.085 0 0.04 0.085 0 0.06 0.085 0 0.08 0.085 0 0.1 0.085 0 0 0.09 0 0.02 0.09 0 0.04 0.09 0 0.06 0.09 0 0.08 0.09 0 0.1 0.09 0 0 0.095 0 0.02 0.095 0 0.04 0.095 0 0.06 0.095 0 0.08 0.095 0 0.1 0.095 0 0 0.1 0 0.02 0.1 0 0.04 0.1 0 0.06 0.1 0 0.08 0.1 0 0.1 0.1 0 0 0.105 0 0.02 0.105 0 0.04 0.105 0 0.06 0.105 0 0.08 0.105 0 0.1 0.105 0 0 0.11 0 0.02 0.11 0 0.04 0.11 0 0.06 0.11 0 0.08 0.11 0 0.1 0.11 0 0 0.115 0 0.02 0.115 0 0.04 0.115 0 0.06 0.115 0 0.08 0.115 0 0.1 0.115 0 0 0.12 0 0.02 0.12 0 0.04 0.12 0 0.06 0.12 0 0.08 0.12 0 0.1 0.12 0 0 0.125 0 0.02 0.125 0 0.04 0.125 0 0.06 0.125 0 0.08 0.125 0 0.1 0.125 0 0 0.13 0 0.02 0.13 0 0.04 0.13 0 0.06 0.13 0 0.08 0.13 0 0.1 0.13 0 0 0.135 0 0.02 0.135 0 0.04 0.135 0 0.06 0.135 0 0.08 0.135 0 0.1 0.135 0 0 0.14 0 0.02 0.14 0 0.04 0.14 0 0.06 0.14 0 0.08 0.14 0 0.1 0.14 0 0 0.145 0 0.02 0.145 0 0.04 0.145 0 0.06 0.145 0 0.08 0.145 0 0.1 0.145 0 0 0.15 0 0.02 0.15 0 0.04 0.15 0 0.06 0.15 0 0.08 0.15 0 0.1 0.15 0 0 0.155 0 0.02 0.155 0 0.04 0.155 0 0.06 0.155 0 0.08 0.155 0 0.1 0.155 0 0 0.16 0 0.02 0.16 0 0.04 0.16 0 0.06 0.16 0 0.08 0.16 0 0.1 0.16 0 0 0.165 0 0.02 0.165 0 0.04 0.165 0 0.06 0.165 0 0.08 0.165 0 0.1 0.165 0 0 0.17 0 0.02 0.17 0 0.04 0.17 0 0.06 0.17 0 0.08 0.17 0 0.1 0.17 0 0 0.175 0 0.02 0.175 0 0.04 0.175 0 0.06 0.175 0 0.08 0.175 0 0.1 0.175 0 0 0.18 0 0.02 0.18 0 0.04 0.18 0 0.06 0.18 0 0.08 0.18 0 0.1 0.18 0 0 0.185 0 0.02 0.185 0 0.04 0.185 0 0.06 0.185 0 0.08 0.185 0 0.1 0.185 0 0 0.19 0 0.02 0.19 0 0.04 0.19 0 0.06 0.19 0 0.08 0.19 0 0.1 0.19 0 0 0.195 0 0.02 0.195 0 0.04 0.195 0 0.06 0.195 0 0.08 0.195 0 0.1 0.195 0 0 0.2 0 0.02 0.2 0 0.04 0.2 0 0.06 0.2 0 0.08 0.2 0 0.1 0.2 0 0 0.205 0 0.02 0.205 0 0.04 0.205 0 0.06 0.205 0 0.08 0.205 0 0.1 0.205 0 0 0.21 0 0.02 0.21 0 0.04 0.21 0 0.06 0.21 0 0.08 0.21 0 0.1 0.21 0 0 0.215 0 0.02 0.215 0 0.04 0.215 0 0.06 0.215 0 0.08 0.215 0 0.1 0.215 0 0 0.22 0 0.02 0.22 0 0.04 0.22 0 0.06 0.22 0 0.08 0.22 0 0.1 0.22 0 0 0.225 0 0.02 0.225 0 0.04 0.225 0 0.06 0.225 0 0.08 0.225 0 0.1 0.225 0 0 0.23 0 0.02 0.23 0 0.04 0.23 0 0.06 0.23 0 0.08 0.23 0 0.1 0.23 0 0 0.235 0 0.02 0.235 0 0.04 0.235 0 0.06 0.235 0 0.08 0.235 0 0.1 0.235 0 0 0.24 0 0.02 0.24 0 0.04 0.24 0 0.06 0.24 0 0.08 0.24 0 0.1 0.24 0 0 0.245 0 0.02 0.245 0 0.04 0.245 0 0.06 0.245 0 0.08 0.245 0 0.1 0.245 0 0 0.25 0 0.02 0.25 0 0.04 0.25 0 0.06 0.25 0 0.08 0.25 0 0.1 0.25 0 0 0.255 0 0.02 0.255 0 0.04 0.255 0 0.06 0.255 0 0.08 0.255 0 0.1 0.255 0 0 0.26 0 0.02 0.26 0 0.04 0.26 0 0.06 0.26 0 0.08 0.26 0 0.1 0.26 0 0 0.265 0 0.02 0.265 0 0.04 0.265 0 0.06 0.265 0 0.08 0.265 0 0.1 0.265 0 0 0.27 0 0.02 0.27 0 0.04 0.27 0 0.06 0.27 0 0.08 0.27 0 0.1 0.27 0 0 0.275 0 0.02 0.275 0 0.04 0.275 0 0.06 0.275 0 0.08 0.275 0 0.1 0.275 0 0 0.28 0 0.02 0.28 0 0.04 0.28 0 0.06 0.28 0 0.08 0.28 0 0.1 0.28 0 0 0.285 0 0.02 0.285 0 0.04 0.285 0 0.06 0.285 0 0.08 0.285 0 0.1 0.285 0 0 0.29 0 0.02 0.29 0 0.04 0.29 0 0.06 0.29 0 0.08 0.29 0 0.1 0.29 0 0 0.295 0 0.02 0.295 0 0.04 0.295 0 0.06 0.295 0 0.08 0.295 0 0.1 0.295 0 0 0.3 0 0.02 0.3 0 0.04 0.3 0 0.06 0.3 0 0.08 0.3 0 0.1 0.3 0 0 0.305 0 0.02 0.305 0 0.04 0.305 0 0.06 0.305 0 0.08 0.305 0 0.1 0.305 0 0 0.31 0 0.02 0.31 0 0.04 0.31 0 0.06 0.31 0 0.08 0.31 0 0.1 0.31 0 0 0.315 0 0.02 0.315 0 0.04 0.315 0 0.06 0.315 0 0.08 0.315 0 0.1 0.315 0 0 0.32 0 0.02 0.32 0 0.04 0.32 0 0.06 0.32 0 0.08 0.32 0 0.1 0.32 0 0 0.325 0 0.02 0.325 0 0.04 0.325 0 0.06 0.325 0 0.08 0.325 0 0.1 0.325 0 0 0.33 0 0.02 0.33 0 0.04 0.33 0 0.06 0.33 0 0.08 0.33 0 0.1 0.33 0 0 0.335 0 0.02 0.335 0 0.04 0.335 0 0.06 0.335 0 0.08 0.335 0 0.1 0.335 0 0 0.34 0 0.02 0.34 0 0.04 0.34 0 0.06 0.34 0 0.08 0.34 0 0.1 0.34 0 0 0.345 0 0.02 0.345 0 0.04 0.345 0 0.06 0.345 0 0.08 0.345 0 0.1 0.345 0 0 0.35 0 0.02 0.35 0 0.04 0.35 0 0.06 0.35 0 0.08 0.35 0 0.1 0.35 0 0 0.355 0 0.02 0.355 0 0.04 0.355 0 0.06 0.355 0 0.08 0.355 0 0.1 0.355 0 0 0.36 0 0.02 0.36 0 0.04 0.36 0 0.06 0.36 0 0.08 0.36 0 0.1 0.36 0 0 0.365 0 0.02 0.365 0 0.04 0.365 0 0.06 0.365 0 0.08 0.365 0 0.1 0.365 0 0 0.37 0 0.02 0.37 0 0.04 0.37 0 0.06 0.37 0 0.08 0.37 0 0.1 0.37 0 0 0.375 0 0.02 0.375 0 0.04 0.375 0 0.06 0.375 0 0.08 0.375 0 0.1 0.375 0 0 0.38 0 0.02 0.38 0 0.04 0.38 0 0.06 0.38 0 0.08 0.38 0 0.1 0.38 0 0 0.385 0 0.02 0.385 0 0.04 0.385 0 0.06 0.385 0 0.08 0.385 0 0.1 0.385 0 0 0.39 0 0.02 0.39 0 0.04 0.39 0 0.06 0.39 0 0.08 0.39 0 0.1 0.39 0 0 0.395 0 0.02 0.395 0 0.04 0.395 0 0.06 0.395 0 0.08 0.395 0 0.1 0.395 0 0 0.4 0 0.02 0.4 0 0.04 0.4 0 0.06 0.4 0 0.08 0.4 0 0.1 0.4 0 0 0.405 0 0.02 0.405 0 0.04 0.405 0 0.06 0.405 0 0.08 0.405 0 0.1 0.405 0 0 0.41 0 0.02 0.41 0 0.04 0.41 0 0.06 0.41 0 0.08 0.41 0 0.1 0.41 0 0 0.415 0 0.02 0.415 0 0.04 0.415 0 0.06 0.415 0 0.08 0.415 0 0.1 0.415 0 0 0.42 0 0.02 0.42 0 0.04 0.42 0 0.06 0.42 0 0.08 0.42 0 0.1 0.42 0 0 0.425 0 0.02 0.425 0 0.04 0.425 0 0.06 0.425 0 0.08 0.425 0 0.1 0.425 0 0 0.43 0 0.02 0.43 0 0.04 0.43 0 0.06 0.43 0 0.08 0.43 0 0.1 0.43 0 0 0.435 0 0.02 0.435 0 0.04 0.435 0 0.06 0.435 0 0.08 0.435 0 0.1 0.435 0 0 0.44 0 0.02 0.44 0 0.04 0.44 0 0.06 0.44 0 0.08 0.44 0 0.1 0.44 0 0 0.445 0 0.02 0.445 0 0.04 0.445 0 0.06 0.445 0 0.08 0.445 0 0.1 0.445 0 0 0.45 0 0.02 0.45 0 0.04 0.45 0 0.06 0.45 0 0.08 0.45 0 0.1 0.45 0 0 0.455 0 0.02 0.455 0 0.04 0.455 0 0.06 0.455 0 0.08 0.455 0 0.1 0.455 0 0 0.46 0 0.02 0.46 0 0.04 0.46 0 0.06 0.46 0 0.08 0.46 0 0.1 0.46 0 0 0.465 0 0.02 0.465 0 0.04 0.465 0 0.06 0.465 0 0.08 0.465 0 0.1 0.465 0 0 0.47 0 0.02 0.47 0 0.04 0.47 0 0.06 0.47 0 0.08 0.47 0 0.1 0.47 0 0 0.475 0 0.02 0.475 0 0.04 0.475 0 0.06 0.475 0 0.08 0.475 0 0.1 0.475 0 0 0.48 0 0.02 0.48 0 0.04 0.48 0 0.06 0.48 0 0.08 0.48 0 0.1 0.48 0 0 0.485 0 0.02 0.485 0 0.04 0.485 0 0.06 0.485 0 0.08 0.485 0 0.1 0.485 0 0 0.49 0 0.02 0.49 0 0.04 0.49 0 0.06 0.49 0 0.08 0.49 0 0.1 0.49 0 0 0.495 0 0.02 0.495 0 0.04 0.495 0 0.06 0.495 0 0.08 0.495 0 0.1 0.495 0 0 0.5 0 0.02 0.5 0 0.04 0.5 0 0.06 0.5 0 0.08 0.5 0 0.1 0.5 0 0 0.505 0 0.02 0.505 0 0.04 0.505 0 0.06 0.505 0 0.08 0.505 0 0.1 0.505 0 0 0.51 0 0.02 0.51 0 0.04 0.51 0 0.06 0.51 0 0.08 0.51 0 0.1 0.51 0 0 0.515 0 0.02 0.515 0 0.04 0.515 0 0.06 0.515 0 0.08 0.515 0 0.1 0.515 0 0 0.52 0 0.02 0.52 0 0.04 0.52 0 0.06 0.52 0 0.08 0.52 0 0.1 0.52 0 0 0.525 0 0.02 0.525 0 0.04 0.525 0 0.06 0.525 0 0.08 0.525 0 0.1 0.525 0 0 0.53 0 0.02 0.53 0 0.04 0.53 0 0.06 0.53 0 0.08 0.53 0 0.1 0.53 0 0 0.535 0 0.02 0.535 0 0.04 0.535 0 0.06 0.535 0 0.08 0.535 0 0.1 0.535 0 0 0.54 0 0.02 0.54 0 0.04 0.54 0 0.06 0.54 0 0.08 0.54 0 0.1 0.54 0 0 0.545 0 0.02 0.545 0 0.04 0.545 0 0.06 0.545 0 0.08 0.545 0 0.1 0.545 0 0 0.55 0 0.02 0.55 0 0.04 0.55 0 0.06 0.55 0 0.08 0.55 0 0.1 0.55 0 0 0.555 0 0.02 0.555 0 0.04 0.555 0 0.06 0.555 0 0.08 0.555 0 0.1 0.555 0 0 0.56 0 0.02 0.56 0 0.04 0.56 0 0.06 0.56 0 0.08 0.56 0 0.1 0.56 0 0 0.565 0 0.02 0.565 0 0.04 0.565 0 0.06 0.565 0 0.08 0.565 0 0.1 0.565 0 0 0.57 0 0.02 0.57 0 0.04 0.57 0 0.06 0.57 0 0.08 0.57 0 0.1 0.57 0 0 0.575 0 0.02 0.575 0 0.04 0.575 0 0.06 0.575 0 0.08 0.575 0 0.1 0.575 0 0 0.58 0 0.02 0.58 0 0.04 0.58 0 0.06 0.58 0 0.08 0.58 0 0.1 0.58 0 0 0.585 0 0.02 0.585 0 0.04 0.585 0 0.06 0.585 0 0.08 0.585 0 0.1 0.585 0 0 0.59 0 0.02 0.59 0 0.04 0.59 0 0.06 0.59 0 0.08 0.59 0 0.1 0.59 0 0 0.595 0 0.02 0.595 0 0.04 0.595 0 0.06 0.595 0 0.08 0.595 0 0.1 0.595 0 0 0.6 0 0.02 0.6 0 0.04 0.6 0 0.06 0.6 0 0.08 0.6 0 0.1 0.6 0 0 0.605 0 0.02 0.605 0 0.04 0.605 0 0.06 0.605 0 0.08 0.605 0 0.1 0.605 0 0 0.61 0 0.02 0.61 0 0.04 0.61 0 0.06 0.61 0 0.08 0.61 0 0.1 0.61 0 0 0.615 0 0.02 0.615 0 0.04 0.615 0 0.06 0.615 0 0.08 0.615 0 0.1 0.615 0 0 0.62 0 0.02 0.62 0 0.04 0.62 0 0.06 0.62 0 0.08 0.62 0 0.1 0.62 0 0 0.625 0 0.02 0.625 0 0.04 0.625 0 0.06 0.625 0 0.08 0.625 0 0.1 0.625 0 0 0.63 0 0.02 0.63 0 0.04 0.63 0 0.06 0.63 0 0.08 0.63 0 0.1 0.63 0 0 0.635 0 0.02 0.635 0 0.04 0.635 0 0.06 0.635 0 0.08 0.635 0 0.1 0.635 0 0 0.64 0 0.02 0.64 0 0.04 0.64 0 0.06 0.64 0 0.08 0.64 0 0.1 0.64 0 0 0.645 0 0.02 0.645 0 0.04 0.645 0 0.06 0.645 0 0.08 0.645 0 0.1 0.645 0 0 0.65 0 0.02 0.65 0 0.04 0.65 0 0.06 0.65 0 0.08 0.65 0 0.1 0.65 0 0 0.655 0 0.02 0.655 0 0.04 0.655 0 0.06 0.655 0 0.08 0.655 0 0.1 0.655 0 0 0.66 0 0.02 0.66 0 0.04 0.66 0 0.06 0.66 0 0.08 0.66 0 0.1 0.66 0 0 0.665 0 0.02 0.665 0 0.04 0.665 0 0.06 0.665 0 0.08 0.665 0 0.1 0.665 0 0 0.67 0 0.02 0.67 0 0.04 0.67 0 0.06 0.67 0 0.08 0.67 0 0.1 0.67 0 0 0.675 0 0.02 0.675 0 0.04 0.675 0 0.06 0.675 0 0.08 0.675 0 0.1 0.675 0 0 0.68 0 0.02 0.68 0 0.04 0.68 0 0.06 0.68 0 0.08 0.68 0 0.1 0.68 0 0 0.685 0 0.02 0.685 0 0.04 0.685 0 0.06 0.685 0 0.08 0.685 0 0.1 0.685 0 0 0.69 0 0.02 0.69 0 0.04 0.69 0 0.06 0.69 0 0.08 0.69 0 0.1 
[...]
			<PointData Scalars="VitesseX">
				<DataArray Name="VitesseX" type="Float32" format="ascii">
 0 2.61287e-15 -9.513e-15 -1.62928e-14 -2.89935e-14 0 0 1.44995e-16 -7.79875e-15 -1.58993e-14 -2.96374e-14 0 0 -3.3514e-15 -4.93258e-15 -1.82908e-14 -2.66539e-14 0 0 -5.68261e-15 -7.52017e-15 -1.50217e-14 -2.54846e-14 0 0 -7.00847e-15 -9.43601e-15 -1.37166e-14 -2.31064e-14 0 0 -1.17017e-14 -1.29662e-15 -2.26501e-14 -1.85332e-14 0 0 -1.74619e-14 1.31441e-15 -1.90716e-14 -2.45049e-14 0 0 -1.01411e-14 -2.15771e-14 7.7076e-15 -4.03061e-14 0 0 -1.43624e-14 -2.72123e-14 8.34617e-15 -3.0691e-14 0 0 -1.92098e-14 -2.70131e-14 -5.73512e-15 -1.1741e-14 0 0 -7.91864e-15 -5.32884e-14 6.41489e-15 -1.582e-14 0 0 -2.28361e-14 -4.04262e-14 -1.55705e-14 9.49108e-16 0 0 -2.3396e-14 -4.60232e-14 -3.8849e-15 -1.24117e-14 0 0 -1.64412e-14 -5.51521e-14 1.29625e-14 -2.82758e-14 0 0 -2.19272e-14 -4.04164e-14 -1.42928e-14 -1.58315e-15 0 0 -7.63707e-15 -5.3905e-14 -1.01518e-14 -3.87281e-15 0 0 -2.98098e-14 -2.32113e-15 -5.35979e-14 1.27078e-14 0 0 -3.08227e-14 2.54251e-14 -7.58427e-14 2.88001e-14 0 0 -1.49155e-14 3.7072e-15 -3.35591e-14 7.27356e-15 0 0 -4.61963e-14 3.30214e-14 -2.87665e-14 -4.02878e-15 0 0 -6.28862e-14 6.43889e-14 -6.60523e-14 1.49161e-14 0 0 -2.64566e-14 2.01204e-14 -4.10705e-14 3.92413e-15 0 0 -1.74396e-14 1.65827e-16 -3.55428e-15 -2.43135e-14 0 0 -5.3073e-14 5.79705e-14 -6.1178e-14 9.37812e-15 0 0 -2.93739e-14 4.14446e-16 -1.05056e-14 -1.88287e-14 0 0 -4.5348e-15 -8.56779e-14 8.96499e-14 -8.25776e-14 0 0 -5.048e-14 -3.66635e-14 4.55625e-14 -5.84314e-14 0 0 -9.09443e-14 1.76512e-14 -1.86843e-14 -1.49834e-14 0 0 -5.9189e-14 -6.07587e-14 4.43002e-14 -4.4752e-14 0 0 -3.02264e-14 -1.02182e-13 3.54255e-14 -2.49505e-14 0 0 -5.85868e-14 -3.9102e-14 -6.20838e-14 1.71248e-14 0 0 -7.48892e-14 -2.23173e-14 -4.26267e-14 -2.72531e-14 0 0 -5.13857e-14 -2.58535e-14 -3.69311e-14 -3.77919e-14 0 0 -2.735e-14 -4.5613e-14 -1.37987e-16 -9.18096e-14 0 0 -1.77796e-14 -5.21154e-14 9.01822e-15 -1.10084e-13 0 0 3.7232e-15 -4.93943e-14 -5.69679e-15 -8.60312e-14 0 0 1.78552e-14 -5.37969e-14 1.08495e-14 -8.05008e-14 0 0 -1.28778e-14 -1.6993e-14 -4.09745e-14 -1.26387e-14 0 0 -5.31462e-14 3.03759e-14 -1.00634e-13 4.00559e-14 0 0 -3.09825e-14 -1.89327e-14 -4.1631e-14 -1.12668e-15 0 0 -4.96293e-14 1.03564e-14 -6.69991e-14 -1.70314e-15 0 0 -6.4826e-14 1.47175e-14 -5.72789e-14 -3.54073e-14 0 0 -3.51676e-14 -3.9516e-14 1.3025e-14 -1.01177e-13 0 0 -1.72671e-15 -5.51307e-14 2.37533e-14 -1.02094e-13 0 0 2.29148e-14 -6.18396e-14 6.04764e-14 -9.73545e-14 0 0 -8.8049e-15 5.81713e-15 4.91868e-14 -9.47458e-14 0 0 3.24436e-14 -6.30038e-14 1.50546e-13 -1.64287e-13 0 0 3.01318e-14 -6.37378e-14 1.9779e-13 -1.98116e-13 0 0 -7.30624e-14 1.31661e-13 3.63624e-14 -4.672e-14 0 0 -9.65311e-14 1.58199e-13 2.05458e-14 1.78945e-14 0 0 -2.457e-14 2.54828e-14 1.46093e-13 -5.62544e-14 0 0 -3.46759e-14 -6.39031e-16 1.27768e-13 -1.4312e-15 0 0 -1.51944e-13 1.48919e-13 -6.24789e-14 1.53338e-13 0 0 -1.94315e-13 2.50065e-13 -1.99249e-13 2.16726e-13 0 0 3.09386e-14 -9.17317e-14 1.12712e-13 -4.72722e-14 0 0 3.40179e-14 -1.03318e-13 1.14103e-13 -1.51911e-13 0 0 -1.38581e-13 1.71789e-13 -1.86804e-13 -2.66633e-14 0 0 -7.15634e-14 9.46743e-14 -1.75507e-13 1.99491e-14 0 0 -2.41685e-14 7.01081e-15 -1.37737e-13 7.03427e-14 0 0 -1.03882e-13 5.8184e-14 -2.29401e-13 1.19508e-13 0 0 -9.49836e-14 -3.55642e-14 -1.50395e-13 -2.72533e-14 0 0 -4.32084e-14 -1.04508e-13 -9.94309e-14 -1.88404e-13 0 0 4.64177e-14 -9.83589e-14 -2.12906e-13 -1.23372e-13 0 0 8.73213e-14 -4.20004e-14 -2.60023e-13 -1.23206e-13 0 0 2.72575e-14 1.81092e-14 -2.21869e-13 -2.11059e-13 0 0 -3.57133e-14 -2.09692e-14 -1.39835e-13 -2.4931e-13 0 0 -1.87524e-13 8.13285e-14 -2.1155e-13 -1.89449e-13 0 0 -1.57098e-13 -2.56504e-14 -8.95287e-14 -2.4631e-13 0 0 -7.47504e-14 -1.89722e-13 9.38203e-14 -3.73152e-13 0 0 -9.9289e-14 -1.47638e-13 2.89229e-14 -3.57861e-13 0 0 -1.28666e-13 -3.08855e-14 -1.45629e-13 -2.66794e-13 0 0 -1.70075e-13 6.69023e-14 -2.98701e-13 -1.89214e-13 0 0 -1.9169e-13 2.84254e-14 -2.7245e-13 -2.33745e-13 0 0 -1.67129e-13 -1.2146e-13 -1.28804e-13 -3.2981e-13 0 0 -1.70744e-13 -2.30636e-13 -2.96722e-14 -3.6409e-13 0 0 -2.2708e-13 -2.56204e-13 8.67055e-15 -3.35194e-13 0 0 -3.15831e-13 -2.20301e-13 8.19637e-16 -2.35658e-13 0 0 -3.94844e-13 -1.90197e-13 1.54063e-14 -1.3522e-13 0 0 -4.34848e-13 -2.05213e-13 8.38512e-14 -9.50856e-14 0 0 -4.46377e-13 -2.42774e-13 1.77649e-13 -1.23064e-13 0 0 -4.44473e-13 -2.73942e-13 2.5673e-13 -1.88105e-13 0 0 -4.32437e-13 -2.89501e-13 2.92659e-13 -2.46905e-13 0 0 -4.07507e-13 -2.94746e-13 2.76378e-13 -2.87304e-13 0 0 -3.73014e-13 -2.93851e-13 2.2101e-13 -3.04872e-13 0 0 -3.391e-13 -2.78602e-13 1.40469e-13 -2.97833e-13 0 0 -3.0473e-13 -2.58454e-13 5.35291e-14 -2.78038e-13 0 0 -2.72252e-13 -2.40654e-13 -2.05499e-14 -2.68337e-13 0 0 -2.51037e-13 -2.14817e-13 -9.25548e-14 -2.56008e-13 0 0 -2.30162e-13 -1.9606e-13 -1.54911e-13 -2.40946e-13 0 0 -2.05503e-13 -1.97973e-13 -1.87965e-13 -2.45547e-13 0 0 -1.91252e-13 -2.05733e-13 -1.99329e-13 -2.68838e-13 0 0 -1.91404e-13 -2.04466e-13 -2.05813e-13 -3.04076e-13 0 0 -2.03719e-13 -1.92336e-13 -2.13969e-13 -3.51436e-13 0 0 -2.22878e-13 -1.75122e-13 -2.29046e-13 -3.93537e-13 0 0 -2.41325e-13 -1.56007e-13 -2.48168e-13 -4.33545e-13 0 0 -2.54685e-13 -1.35944e-13 -2.77445e-13 -4.5518e-13 0 0 -2.62234e-13 -1.17558e-13 -3.21034e-13 -4.44926e-13 0 0 -2.60238e-13 -1.02762e-13 -3.72267e-13 -4.1675e-13 0 0 -2.44254e-13 -1.05675e-13 -4.12904e-13 -3.84216e-13 0 0 -2.2218e-13 -1.23264e-13 -4.43059e-13 -3.4431e-13 0 0 -2.01927e-13 -1.47212e-13 -4.64099e-13 -2.9457e-13 0 0 -1.84339e-13 -1.79196e-13 -4.68762e-13 -2.44369e-13 0 0 -1.70346e-13 -2.17845e-13 -4.66363e-13 -1.86306e-13 0 0 -1.61038e-13 -2.59028e-13 -4.55328e-13 -1.30824e-13 0 0 -1.561e-13 -2.9508e-13 -4.32623e-13 -9.92925e-14 0 0 -1.52599e-13 -3.21495e-13 -4.0878e-13 -8.7479e-14 0 0 -1.54932e-13 -3.33531e-13 -3.90867e-13 -8.20174e-14 0 0 -1.6402e-13 -3.31818e-13 -3.79953e-13 -7.68437e-14 0 0 -1.72107e-13 -3.26574e-13 -3.73385e-13 -6.44414e-14 0 0 -1.75122e-13 -3.22744e-13 -3.62931e-13 -5.13883e-14 0 0 -1.7609e-13 -3.15124e-13 -3.44636e-13 -4.76502e-14 0 0 -1.81051e-13 -3.0552e-13 -3.1047e-13 -5.88042e-14 0 0 -1.90036e-13 -2.9429e-13 -2.69251e-13 -7.60373e-14 0 0 -2.00723e-13 -2.76862e-13 -2.28657e-13 -9.31322e-14 0 0 -2.10469e-13 -2.52887e-13 -1.90013e-13 -1.10102e-13 0 0 -2.09836e-13 -2.42464e-13 -1.39008e-13 -1.34595e-13 0 0 -2.11686e-13 -2.00769e-13 -1.45224e-13 -1.15765e-13 0 0 -2.09212e-13 -1.61601e-13 -1.3726e-13 -1.03913e-13 0 0 -1.98922e-13 -1.72099e-13 -6.01541e-14 -1.28184e-13 0 0 -2.02438e-13 -1.6487e-13 -2.08378e-14 -1.10191e-13 0 0 -1.90944e-13 -1.63815e-13 1.89801e-15 -5.31749e-14 0 0 -1.86155e-13 -1.39739e-13 -1.88497e-14 3.57313e-14 0 0 -2.05994e-13 -6.85191e-14 -5.87142e-14 6.69436e-14 0 0 -1.92095e-13 -5.14652e-14 -6.8235e-14 6.79065e-14 0 0 -1.67346e-13 -6.16912e-14 -6.72565e-14 8.11923e-14 0 0 -1.70886e-13 -4.18575e-14 -5.75929e-14 7.3466e-14 0 0 -1.66485e-13 -3.0686e-14 -5.15401e-14 5.4249e-14 0 0 -1.37124e-13 -4.17865e-14 -4.2558e-14 -3.39792e-15 0 0 -1.22833e-13 -5.74725e-14 -3.04565e-14 1.39828e-14 0 0 -1.18992e-13 -6.56087e-14 -2.85018e-14 3.14527e-14 0 0 -1.19306e-13 -5.24813e-14 -5.43701e-14 1.0648e-14 0 0 -1.16056e-13 -6.21346e-14 -6.3529e-14 2.43783e-14 0 0 -9.61223e-14 -1.08601e-13 -3.63841e-14 -4.59471e-15 0 0 -7.90257e-14 -1.194e-13 -5.87653e-14 -1.97825e-14 0 0 -8.24506e-14 -1.11355e-13 -1.2333e-13 9.06448e-15 0 0 -9.81281e-14 -1.30644e-13 -1.32849e-13 8.44117e-15 0 0 -9.65098e-14 -1.44358e-13 -1.3094e-13 1.24762e-14 0 0 -1.02331e-13 -1.37531e-13 -1.47992e-13 -9.83815e-16 0 0 -1.15753e-13 -1.31262e-13 -1.45743e-13 -4.33998e-14 0 0 -1.05315e-13 -1.36262e-13 -1.51035e-13 -8.6692e-14 0 0 -1.01857e-13 -1.40962e-13 -1.4326e-13 -1.50675e-13 0 0 -1.091e-13 -1.42548e-13 -1.46669e-13 -1.16648e-13 0 0 -8.70066e-14 -1.93569e-13 -1.16099e-13 -1.06271e-13 0 0 -7.85396e-14 -2.19386e-13 -1.04298e-13 -1.29418e-13 0 0 -9.41122e-14 -1.93132e-13 -1.51643e-13 -1.40024e-13 0 0 -1.14201e-13 -1.76147e-13 -1.99277e-13 -1.37645e-13 0 0 -1.12945e-13 -1.76827e-13 -2.6461e-13 -1.00572e-13 0 0 -8.47254e-14 -2.0753e-13 -3.10854e-13 -8.47691e-14 0 0 -8.21302e-14 -2.20802e-13 -3.38518e-13 -1.33408e-13 0 0 -1.03759e-13 -2.20371e-13 -3.62756e-13 -2.05192e-13 0 0 -1.08275e-13 -2.25825e-13 -3.99303e-13 -2.70941e-13 0 0 -1.03911e-13 -2.09491e-13 -4.3022e-13 -3.6611e-13 0 0 -1.06753e-13 -1.85841e-13 -4.5297e-13 -3.10824e-13 0 0 -1.04424e-13 -1.76898e-13 -4.31497e-13 -1.8194e-13 0 0 -9.25556e-14 -2.38735e-13 -2.41888e-13 -1.02621e-13 0 0 -9.13986e-14 -3.18454e-13 -3.81035e-14 -1.69886e-14 0 0 -1.71167e-13 -2.52337e-13 -8.00826e-14 1.19608e-13 0 0 -1.9672e-13 -2.06852e-13 -1.0224e-13 6.55272e-14 0 0 -1.59953e-13 -2.05984e-13 -7.51057e-14 -7.33068e-14 0 0 -1.02218e-13 -2.10151e-13 -2.20089e-14 -1.46571e-13 0 0 4.28563e-15 -2.8045e-13 3.40818e-14 -1.53447e-13 0 0 -4.65679e-14 -1.78466e-13 -1.17463e-13 3.64816e-14 0 0 -1.54822e-13 -7.17016e-14 -1.88187e-14 -1.10772e-13 0 0 -2.02033e-13 -2.21238e-14 6.90603e-16 -1.14119e-13 0 0 -1.34329e-13 -6.62915e-14 -4.33647e-14 -1.4251e-14 0 0 -8.27724e-14 -1.62169e-13 9.95149e-14 -1.77703e-13 0 0 -4.9258e-14 -2.08341e-13 9.74189e-14 -1.15711e-13 0 0 -6.65023e-14 -1.04216e-13 -5.77473e-14 2.86341e-14 0 0 -1.00244e-13 -4.01797e-14 -8.20292e-14 2.34319e-14 0 0 -9.04825e-14 -8.94711e-14 3.30984e-14 -1.79588e-15 0 0 -7.73108e-14 -1.13579e-13 8.42393e-14 -1.9364e-15 0 0 -1.04073e-13 -4.84739e-16 -2.83353e-14 1.10672e-13 0 0 -1.01755e-13 4.01321e-14 1.11529e-14 4.64562e-14 0 0 -5.34907e-14 -4.97455e-15 1.02514e-13 -4.34119e-14 0 0 2.37329e-14 -6.79231e-14 1.59027e-13 -3.26822e-14 0 0 -1.61086e-14 2.92781e-14 1.17156e-13 -4.92292e-14 0 0 1.838e-14 -3.14896e-14 1.89419e-13 -8.31552e-14 0 0 9.03752e-14 -1.34098e-13 2.36976e-13 -3.71771e-14 0 0 2.2472e-14 -1.76383e-15 1.2568e-13 3.49127e-14 0 0 5.62201e-14 -3.40148e-14 1.8099e-13 2.29131e-14 0 0 5.60416e-14 4.27997e-14 8.50124e-14 6.2133e-14 0 0 7.81068e-14 7.53437e-14 4.02235e-14 7.77413e-14 0 0 -6.50906e-15 1.61344e-13 -4.58659e-14 2.55082e-13 0 0 -1.43328e-13 2.36433e-13 -1.79775e-13 5.00291e-13 0 0 7.68405e-14 -1.61575e-13 1.0209e-13 3.81035e-13 0 0 1.92899e-13 -3.28825e-13 2.4666e-13 2.45095e-13 0 0 5.82645e-14 -2.01916e-13 2.96031e-13 -8.54715e-15 0 0 -1.31742e-13 -1.66137e-14 1.41603e-13 2.42819e-14 0 0 -4.0772e-13 2.59451e-13 -8.61351e-14 2.4617e-13 0 0 -1.49931e-13 -1.01167e-13 2.97659e-13 -4.68339e-14 0 0 4.50071e-14 -2.90041e-13 4.83643e-13 -2.60492e-13 0 0 -1.68223e-13 2.30692e-14 1.03861e-13 -2.6611e-14 0 0 -1.25319e-13 3.47468e-14 1.93866e-14 -4.87139e-14 0 0 -1.4491e-13 1.62649e-13 1.43386e-14 -2.30201e-13 0 0 -5.77141e-14 5.62912e-14 -6.82232e-14 -1.25002e-13 0 0 -2.3154e-14 -4.51177e-14 -1.98795e-13 1.07784e-13 0 0 -1.26839e-13 2.60833e-14 -2.89584e-13 1.65573e-13 0 0 1.84658e-13 -5.50034e-13 2.72408e-13 -2.22687e-13 0 0 1.29463e-13 -5.36192e-13 1.62879e-13 -7.15647e-14 0 0 -3.51754e-14 -4.0046e-13 1.46293e-14 1.01098e-13 0 0 1.23677e-13 -7.31596e-13 4.07068e-13 -1.24057e-13 0
				</DataArray>
				<DataArray Name="VitesseY" type="Float32" format="ascii">