<?xml version="1.0"?>
<VTKFile type="PolyData">
	<PolyData>
		<Piece NumberOfPoints="1206" NumberOfPolys="1000">
			<Points>
				<DataArray type="Float32" NumberOfComponents="3" format="ascii">
 0 0 0 0.02 0 0 0.04 0 0 0.06 0 0 0.08 0 0 0.1 0 0 0 0.005 0 0.02 0.005 0 0.04 0.005 0 0.06 0.005 0 0.08 0.005 0 0.1 0.005 0 0 0.01 0 0.02 0.01 0 0.04 0.01 0 0.06 0.01 0 0.08 0.01 0 0.1 0.01 0 0 0.015 0 0.02 0.015 0 0.04 0.015 0 0.06 0.015 0 0.08 0.015 0 0.1 0.015 0 0 0.02 0 0.02 0.02 0 0.04 0.02 0 0.06 0.02 0 0.08 0.02 0 0.1 0.02 0 0 0.025 0 0.02 0.025 0 0.04 0.025 0 0.06 0.025 0 0.08 0.025 0 0.1 0.025 0 0 0.03 0 0.02 0.03 0 0.04 0.03 0 0.06 0.03 0 0.08 0.03 0 0.1 0.03 0 0 0.035 0 0.02 0.035 0 0.04 0.035 0 0.06 0.035 0 0.08 0.035 0 0.1 0.035 0 0 0.04 0 0.02 0.04 0 0.04 0.04 0 0.06 0.04 0 0.08 0.04 0 0.1 0.04 0 0 0.045 0 0.02 0.045 0 0.04 0.045 0 0.06 0.045 0 0.08 0.045 0 0.1 0.045 0 0 0.05 0 0.02 0.05 0 0.04 0.05 0 0.06 0.05 0 0.08 0.05 0 0.1 0.05 0 0 0.055 0 0.02 0.055 0 0.04 0.055 0 0.06 0.055 0 0.08 0.055 0 0.1 0.055 0 0 0.06 0 0.02 0.06 0 0.04 0.06 0 0.06 0.06 0 0.08 0.06 0 0.1 0.06 0 0 0.065 0 0.02 0.065 0 0.04 0.065 0 0.06 0.065 0 0.08 0.065 0 0.1 0.065 0 0 0.07 0 0.02 0.07 0 0.04 0.07 0 0.06 0.07 0 0.08 0.07 0 0.1 0.07 0 0 0.075 0 0.02 0.075 0 0.04 0.075 0 0.06 0.075 0 0.08 0.075 0 0.1 0.075 0 0 0.08 0 0.02 0.08 0 0.04 0.08 0 0.06 0.08 0 0.08 0.08 0 0.1 0.08 0 0 0.085 0 0.02 0.085 0 0.04 0.085 0 0.06 0.085 0 0.08 0.085 0 0.1 0.085 0 0 0.09 0 0.02 0.09 0 0.04 0.09 0 0.06 0.09 0 0.08 0.09 0 0.1 0.09 0 0 0.095 0 0.02 0.095 0 0.04 0.095 0 0.06 0.095 0 0.08 0.095 0 0.1 0.095 0 0 0.1 0 0.02 0.1 0 0.04 0.1 0 0.06 0.1 0 0.08 0.1 0 0.1 0.1 0 0 0.105 0 0.02 0.105 0 0.04 0.105 0 0.06 0.105 0 0.08 0.105 0 0.1 0.105 0 0 0.11 0 0.02 0.11 0 0.04 0.11 0 0.06 0.11 0 0.08 0.11 0 0.1 0.11 0 0 0.115 0 0.02 0.115 0 0.04 0.115 0 0.06 0.115 0 0.08 0.115 0 0.1 0.115 0 0 0.12 0 0.02 0.12 0 0.04 0.12 0 0.06 0.12 0 0.08 0.12 0 0.1 0.12 0 0 0.125 0 0.02 0.125 0 0.04 0.125 0 0.06 0.125 0 0.08 0.125 0 0.1 0.125 0 0 0.13 0 0.02 0.13 0 0.04 0.13 0 0.06 0.13 0 0.08 0.13 0 0.1 0.13 0 0 0.135 0 0.02 0.135 0 0.04 0.135 0 0.06 0.135 0 0.08 0.135 0 0.1 0.135 0 0 0.14 0 0.02 0.14 0 0.04 0.14 0 0.06 0.14 0 0.08 0.14 0 0.1 0.14 0 0 0.145 0 0.02 0.145 0 0.04 0.145 0 0.06 0.145 0 0.08 0.145 0 0.1 0.145 0 0 0.15 0 0.02 0.15 0 0.04 0.15 0 0.06 0.15 0 0.08 0.15 0 0.1 0.15 0 0 0.155 0 0.02 0.155 0 0.04 0.155 0 0.06 0.155 0 0.08 0.155 0 0.1 0.155 0 0 0.16 0 0.02 0.16 0 0.04 0.16 0 0.06 0.16 0 0.08 0.16 0 0.1 0.16 0 0 0.165 0 0.02 0.165 0 0.04 0.165 0 0.06 0.165 0 0.08 0.165 0 0.1 0.165 0 0 0.17 0 0.02 0.17 0 0.04 0.17 0 0.06 0.17 0 0.08 0.17 0 0.1 0.17 0 0 0.175 0 0.02 0.175 0 0.04 0.175 0 0.06 0.175 0 0.08 0.175 0 0.1 0.175 0 0 0.18 0 0.02 0.18 0 0.04 0.18 0 0.06 0.18 0 0.08 0.18 0 0.1 0.18 0 0 0.185 0 0.02 0.185 0 0.04 0.185 0 0.06 0.185 0 0.08 0.185 0 0.1 0.185 0 0 0.19 0 0.02 0.19 0 0.04 0.19 0 0.06 0.19 0 0.08 0.19 0 0.1 0.19 0 0 0.195 0 0.02 0.195 0 0.04 0.195 0 0.06 0.195 0 0.08 0.195 0 0.1 0.195 0 0 0.2 0 0.02 0.2 0 0.04 0.2 0 0.06 0.2 0 0.08 0.2 0 0.1 0.2 0 0 0.205 0 0.02 0.205 0 0.04 0.205 0 0.06 0.205 0 0.08 0.205 0 0.1 0.205 0 0 0.21 0 0.02 0.21 0 0.04 0.21 0 0.06 0.21 0 0.08 0.21 0 0.1 0.21 0 0 0.215 0 0.02 0.215 0 0.04 0.215 0 0.06 0.215 0 0.08 0.215 0 0.1 0.215 0 0 0.22 0 0.02 0.22 0 0.04 0.22 0 0.06 0.22 0 0.08 0.22 0 0.1 0.22 0 0 0.225 0 0.02 0.225 0 0.04 0.225 0 0.06 0.225 0 0.08 0.225 0 0.1 0.225 0 0 0.23 0 0.02 0.23 0 0.04 0.23 0 0.06 0.23 0 0.08 0.23 0 0.1 0.23 0 0 0.235 0 0.02 0.235 0 0.04 0.235 0 0.06 0.235 0 0.08 0.235 0 0.1 0.235 0 0 0.24 0 0.02 0.24 0 0.04 0.24 0 0.06 0.24 0 0.08 0.24 0 0.1 0.24 0 0 0.245 0 0.02 0.245 0 0.04 0.245 0 0.06 0.245 0 0.08 0.245 0 0.1 0.245 0 0 0.25 0 0.02 0.25 0 0.04 0.25 0 0.06 0.25 0 0.08 0.25 0 0.1 0.25 0 0 0.255 0 0.02 0.255 0 0.04 0.255 0 0.06 0.255 0 0.08 0.255 0 0.1 0.255 0 0 0.26 0 0.02 0.26 0 0.04 0.26 0 0.06 0.26 0 0.08 0.26 0 0.1 0.26 0 0 0.265 0 0.02 0.265 0 0.04 0.265 0 0.06 0.265 0 0.08 0.265 0 0.1 0.265 0 0 0.27 0 0.02 0.27 0 0.04 0.27 0 0.06 0.27 0 0.08 0.27 0 0.1 0.27 0 0 0.275 0 0.02 0.275 0 0.04 0.275 0 0.06 0.275 0 0.08 0.275 0 0.1 0.275 0 0 0.28 0 0.02 0.28 0 0.04 0.28 0 0.06 0.28 0 0.08 0.28 0 0.1 0.28 0 0 0.285 0 0.02 0.285 0 0.04 0.285 0 0.06 0.285 0 0.08 0.285 0 0.1 0.285 0 0 0.29 0 0.02 0.29 0 0.04 0.29 0 0.06 0.29 0 0.08 0.29 0 0.1 0.29 0 0 0.295 0 0.02 0.295 0 0.04 0.295 0 0.06 0.295 0 0.08 0.295 0 0.1 0.295 0 0 0.3 0 0.02 0.3 0 0.04 0.3 0 0.06 0.3 0 0.08 0.3 0 0.1 0.3 0 0 0.305 0 0.02 0.305 0 0.04 0.305 0 0.06 0.305 0 0.08 0.305 0 0.1 0.305 0 0 0.31 0 0.02 0.31 0 0.04 0.31 0 0.06 0.31 0 0.08 0.31 0 0.1 0.31 0 0 0.315 0 0.02 0.315 0 0.04 0.315 0 0.06 0.315 0 0.08 0.315 0 0.1 0.315 0 0 0.32 0 0.02 0.32 0 0.04 0.32 0 0.06 0.32 0 0.08 0.32 0 0.1 0.32 0 0 0.325 0 0.02 0.325 0 0.04 0.325 0 0.06 0.325 0 0.08 0.325 0 0.1 0.325 0 0 0.33 0 0.02 0.33 0 0.04 0.33 0 0.06 0.33 0 0.08 0.33 0 0.1 0.33 0 0 0.335 0 0.02 0.335 0 0.04 0.335 0 0.06 0.335 0 0.08 0.335 0 0.1 0.335 0 0 0.34 0 0.02 0.34 0 0.04 0.34 0 0.06 0.34 0 0.08 0.34 0 0.1 0.34 0 0 0.345 0 0.02 0.345 0 0.04 0.345 0 0.06 0.345 0 0.08 0.345 0 0.1 0.345 0 0 0.35 0 0.02 0.35 0 0.04 0.35 0 0.06 0.35 0 0.08 0.35 0 0.1 0.35 0 0 0.355 0 0.02 0.355 0 0.04 0.355 0 0.06 0.355 0 0.08 0.355 0 0.1 0.355 0 0 0.36 0 0.02 0.36 0 0.04 0.36 0 0.06 0.36 0 0.08 0.36 0 0.1 0.36 0 0 0.365 0 0.02 0.365 0 0.04 0.365 0 0.06 0.365 0 0.08 0.365 0 0.1 0.365 0 0 0.37 0 0.02 0.37 0 0.04 0.37 0 0.06 0.37 0 0.08 0.37 0 0.1 0.37 0 0 0.375 0 0.02 0.375 0 0.04 0.375 0 0.06 0.375 0 0.08 0.375 0 0.1 0.375 0 0 0.38 0 0.02 0.38 0 0.04 0.38 0 0.06 0.38 0 0.08 0.38 0 0.1 0.38 0 0 0.385 0 0.02 0.385 0 0.04 0.385 0 0.06 0.385 0 0.08 0.385 0 0.1 0.385 0 0 0.39 0 0.02 0.39 0 0.04 0.39 0 0.06 0.39 0 0.08 0.39 0 0.1 0.39 0 0 0.395 0 0.02 0.395 0 0.04 0.395 0 0.06 0.395 0 0.08 0.395 0 0.1 0.395 0 0 0.4 0 0.02 0.4 0 0.04 0.4 0 0.06 0.4 0 0.08 0.4 0 0.1 0.4 0 0 0.405 0 0.02 0.405 0 0.04 0.405 0 0.06 0.405 0 0.08 0.405 0 0.1 0.405 0 0 0.41 0 0.02 0.41 0 0.04 0.41 0 0.06 0.41 0 0.08 0.41 0 0.1 0.41 0 0 0.415 0 0.02 0.415 0 0.04 0.415 0 0.06 0.415 0 0.08 0.415 0 0.1 0.415 0 0 0.42 0 0.02 0.42 0 0.04 0.42 0 0.06 0.42 0 0.08 0.42 0 0.1 0.42 0 0 0.425 0 0.02 0.425 0 0.04 0.425 0 0.06 0.425 0 0.08 0.425 0 0.1 0.425 0 0 0.43 0 0.02 0.43 0 0.04 0.43 0 0.06 0.43 0 0.08 0.43 0 0.1 0.43 0 0 0.435 0 0.02 0.435 0 0.04 0.435 0 0.06 0.435 0 0.08 0.435 0 0.1 0.435 0 0 0.44 0 0.02 0.44 0 0.04 0.44 0 0.06 0.44 0 0.08 0.44 0 0.1 0.44 0 0 0.445 0 0.02 0.445 0 0.04 0.445 0 0.06 0.445 0 0.08 0.445 0 0.1 0.445 0 0 0.45 0 0.02 0.45 0 0.04 0.45 0 0.06 0.45 0 0.08 0.45 0 0.1 0.45 0 0 0.455 0 0.02 0.455 0 0.04 0.455 0 0.06 0.455 0 0.08 0.455 0 0.1 0.455 0 0 0.46 0 0.02 0.46 0 0.04 0.46 0 0.06 0.46 0 0.08 0.46 0 0.1 0.46 0 0 0.465 0 0.02 0.465 0 0.04 0.465 0 0.06 0.465 0 0.08 0.465 0 0.1 0.465 0 0 0.47 0 0.02 0.47 0 0.04 0.47 0 0.06 0.47 0 0.08 0.47 0 0.1 0.47 0 0 0.475 0 0.02 0.475 0 0.04 0.475 0 0.06 0.475 0 0.08 0.475 0 0.1 0.475 0 0 0.48 0 0.02 0.48 0 0.04 0.48 0 0.06 0.48 0 0.08 0.48 0 0.1 0.48 0 0 0.485 0 0.02 0.485 0 0.04 0.485 0 0.06 0.485 0 0.08 0.485 0 0.1 0.485 0 0 0.49 0 0.02 0.49 0 0.04 0.49 0 0.06 0.49 0 0.08 0.49 0 0.1 0.49 0 0 0.495 0 0.02 0.495 0 0.04 0.495 0 0.06 0.495 0 0.08 0.495 0 0.1 0.495 0 0 0.5 0 0.02 0.5 0 0.04 0.5 0 0.06 0.5 0 0.08 0.5 0 0.1 0.5 0 0 0.505 0 0.02 0.505 0 0.04 0.505 0 0.06 0.505 0 0.08 0.505 0 0.1 0.505 0 0 0.51 0 0.02 0.51 0 0.04 0.51 0 0.06 0.51 0 0.08 0.51 0 0.1 0.51 0 0 0.515 0 0.02 0.515 0 0.04 0.515 0 0.06 0.515 0 0.08 0.515 0 0.1 0.515 0 0 0.52 0 0.02 0.52 0 0.04 0.52 0 0.06 0.52 0 0.08 0.52 0 0.1 0.52 0 0 0.525 0 0.02 0.525 0 0.04 0.525 0 0.06 0.525 0 0.08 0.525 0 0.1 0.525 0 0 0.53 0 0.02 0.53 0 0.04 0.53 0 0.06 0.53 0 0.08 0.53 0 0.1 0.53 0 0 0.535 0 0.02 0.535 0 0.04 0.535 0 0.06 0.535 0 0.08 0.535 0 0.1 0.535 0 0 0.54 0 0.02 0.54 0 0.04 0.54 0 0.06 0.54 0 0.08 0.54 0 0.1 0.54 0 0 0.545 0 0.02 0.545 0 0.04 0.545 0 0.06 0.545 0 0.08 0.545 0 0.1 0.545 0 0 0.55 0 0.02 0.55 0 0.04 0.55 0 0.06 0.55 0 0.08 0.55 0 0.1 0.55 0 0 0.555 0 0.02 0.555 0 0.04 0.555 0 0.06 0.555 0 0.08 0.555 0 0.1 0.555 0 0 0.56 0 0.02 0.56 0 0.04 0.56 0 0.06 0.56 0 0.08 0.56 0 0.1 0.56 0 0 0.565 0 0.02 0.565 0 0.04 0.565 0 0.06 0.565 0 0.08 0.565 0 0.1 0.565 0 0 0.57 0 0.02 0.57 0 0.04 0.57 0 0.06 0.57 0 0.08 0.57 0 0.1 0.57 0 0 0.575 0 0.02 0.575 0 0.04 0.575 0 0.06 0.575 0 0.08 0.575 0 0.1 0.575 0 0 0.58 0 0.02 0.58 0 0.04 0.58 0 0.06 0.58 0 0.08 0.58 0 0.1 0.58 0 0 0.585 0 0.02 0.585 0 0.04 0.585 0 0.06 0.585 0 0.08 0.585 0 0.1 0.585 0 0 0.59 0 0.02 0.59 0 0.04 0.59 0 0.06 0.59 0 0.08 0.59 0 0.1 0.59 0 0 0.595 0 0.02 0.595 0 0.04 0.595 0 0.06 0.595 0 0.08 0.595 0 0.1 0.595 0 0 0.6 0 0.02 0.6 0 0.04 0.6 0 0.06 0.6 0 0.08 0.6 0 0.1 0.6 0 0 0.605 0 0.02 0.605 0 0.04 0.605 0 0.06 0.605 0 0.08 0.605 0 0.1 0.605 0 0 0.61 0 0.02 0.61 0 0.04 0.61 0 0.06 0.61 0 0.08 0.61 0 0.1 0.61 0 0 0.615 0 0.02 0.615 0 0.04 0.615 0 0.06 0.615 0 0.08 0.615 0 0.1 0.615 0 0 0.62 0 0.02 0.62 0 0.04 0.62 0 0.06 0.62 0 0.08 0.62 0 0.1 0.62 0 0 0.625 0 0.02 0.625 0 0.04 0.625 0 0.06 0.625 0 0.08 0.625 0 0.1 0.625 0 0 0.63 0 0.02 0.63 0 0.04 0.63 0 0.06 0.63 0 0.08 0.63 0 0.1 0.63 0 0 0.635 0 0.02 0.635 0 0.04 0.635 0 0.06 0.635 0 0.08 0.635 0 0.1 0.635 0 0 0.64 0 0.02 0.64 0 0.04 0.64 0 0.06 0.64 0 0.08 0.64 0 0.1 0.64 0 0 0.645 0 0.02 0.645 0 0.04 0.645 0 0.06 0.645 0 0.08 0.645 0 0.1 0.645 0 0 0.65 0 0.02 0.65 0 0.04 0.65 0 0.06 0.65 0 0.08 0.65 0 0.1 0.65 0 0 0.655 0 0.02 0.655 0 0.04 0.655 0 0.06 0.655 0 0.08 0.655 0 0.1 0.655 0 0 0.66 0 0.02 0.66 0 0.04 0.66 0 0.06 0.66 0 0.08 0.66 0 0.1 0.66 0 0 0.665 0 0.02 0.665 0 0.04 0.665 0 0.06 0.665 0 0.08 0.665 0 0.1 0.665 0 0 0.67 0 0.02 0.67 0 0.04 0.67 0 0.06 0.67 0 0.08 0.67 0 0.1 0.67 0 0 0.675 0 0.02 0.675 0 0.04 0.675 0 0.06 0.675 0 0.08 0.675 0 0.1 0.675 0 0 0.68 0 0.02 0.68 0 0.04 0.68 0 0.06 0.68 0 0.08 0.68 0 0.1 0.68 0 0 0.685 0 0.02 0.685 0 0.04 0.685 0 0.06 0.685 0 0.08 0.685 0 0.1 0.685 0 0 0.69 0 0.02 0.69 0 0.04 0.69 0 0.06 0.69 0 0.08 0.69 0 0.1 
[...]
			<PointData Scalars="VitesseX">
				<DataArray Name="VitesseX" type="Float32" format="ascii">
 0 -1.79881e-14 -1.59731e-14 -1.3537e-14 -9.93184e-15 0 0 -1.78573e-14 -1.59956e-14 -1.45866e-14 -9.29791e-15 0 0 -1.78667e-14 -1.56178e-14 -1.74352e-14 -5.43586e-15 0 0 -1.55567e-14 -2.09172e-14 -9.95417e-15 -9.70059e-15 0 0 -1.46228e-14 -2.34101e-14 -5.79982e-15 -1.22927e-14 0 0 -1.71904e-14 -1.84191e-14 -1.23275e-14 -9.69263e-15 0 0 -2.152e-14 -8.69063e-15 -2.46182e-14 -4.64333e-15 0 0 -1.96923e-14 -1.58396e-14 -1.44135e-14 -1.11672e-14 0 0 -1.66886e-14 -1.94823e-14 -1.18401e-14 -6.74295e-15 0 0 -1.11355e-14 -2.18925e-14 -1.49503e-14 9.61032e-17 0 0 -1.76262e-14 -9.03291e-15 -2.22796e-14 1.35458e-15 0 0 -2.8719e-14 1.54883e-14 -2.87838e-14 6.17198e-16 0 0 -1.16828e-14 -7.60651e-15 1.32186e-14 -2.79006e-14 0 0 -4.5169e-15 -1.16023e-14 1.5627e-14 -2.82768e-14 0 0 -1.10494e-14 5.15716e-15 -1.21478e-14 -9.07412e-15 0 0 -2.10674e-14 1.91941e-14 -1.95634e-14 -1.76338e-14 0 0 1.22491e-15 -2.15082e-14 2.98453e-14 -5.76384e-14 0 0 1.34695e-14 -4.17364e-14 3.92548e-14 -5.47434e-14 0 0 -7.58424e-15 2.5609e-15 -3.27906e-14 5.52324e-15 0 0 6.69913e-15 -2.2358e-14 -1.68539e-14 -2.51809e-15 0 0 3.83174e-14 -9.18676e-14 6.3054e-14 -6.29611e-14 0 0 1.09574e-14 -4.93117e-14 2.70185e-14 -4.94621e-14 0 0 -7.67226e-15 -2.51619e-14 6.03955e-15 -3.02231e-14 0 0 2.2685e-14 -7.47699e-14 3.28185e-14 -2.06036e-14 0 0 5.68947e-15 -4.35295e-14 -1.08231e-14 1.07827e-14 0 0 4.30162e-15 -5.63485e-14 1.15496e-14 -8.42656e-15 0 0 4.0394e-15 -5.53578e-14 2.8427e-14 -4.23196e-14 0 0 -6.20314e-15 -2.49276e-14 1.37383e-14 -6.55893e-14 0 0 2.29979e-14 -6.53653e-14 5.60534e-14 -8.75527e-14 0 0 2.83295e-14 -6.03164e-14 4.60449e-14 -6.72474e-14 0 0 -4.17538e-15 -1.69971e-14 -5.78338e-17 -1.5288e-14 0 0 -7.97475e-15 -5.36883e-14 4.07201e-14 1.52985e-14 0 0 -1.20295e-14 -4.04705e-14 9.8852e-15 7.09573e-14 0 0 -1.88816e-14 -2.41718e-14 -5.66396e-15 7.75459e-14 0 0 -4.02303e-14 -4.6826e-15 -2.05804e-14 9.06667e-14 0 0 -4.31722e-14 1.23175e-14 -5.72994e-14 1.21796e-13 0 0 -3.03424e-14 -3.21424e-15 -2.48971e-14 7.87613e-14 0 0 -3.71603e-14 9.44101e-15 1.56153e-14 3.06686e-14 0 0 -1.77946e-14 -8.17017e-15 7.79399e-14 -2.05793e-14 0 0 4.21913e-14 -4.23931e-14 6.67935e-14 -1.10262e-14 0 0 5.92208e-14 -8.8178e-14 9.95906e-14 -9.60315e-15 0 0 2.12327e-14 -2.37396e-14 4.43625e-14 6.26431e-14 0 0 -1.08069e-14 5.58372e-14 -4.32487e-14 1.5983e-13 0 0 1.70859e-15 1.82251e-15 6.08403e-15 1.35751e-13 0 0 -2.69499e-14 3.54429e-15 -2.94863e-14 1.48548e-13 0 0 -4.71379e-14 -2.02822e-14 -2.72668e-14 1.22653e-13 0 0 -8.57447e-14 2.86085e-14 -1.14133e-13 1.44514e-13 0 0 -8.08159e-14 4.28599e-14 -1.93001e-13 1.57091e-13 0 0 8.3072e-14 -1.38489e-13 -1.03921e-13 5.51423e-14 0 0 7.77577e-14 -1.15921e-13 -1.4926e-13 1.94239e-16 0 0 -3.83024e-14 1.49151e-14 -2.47599e-13 2.96692e-14 0 0 -2.89505e-14 -5.07834e-14 -1.48254e-13 3.96941e-15 0 0 6.29748e-14 -2.96817e-13 9.79997e-14 -1.20052e-13 0 0 3.17166e-14 -3.48267e-13 7.11522e-14 -9.99925e-14 0 0 -1.07945e-13 -1.60223e-13 -1.90712e-13 2.32325e-14 0 0 -1.35591e-13 -1.03414e-13 -2.35577e-13 -1.30633e-14 0 0 -2.83915e-14 -2.57392e-13 -1.30635e-14 -2.18232e-13 0 0 1.10652e-14 -2.83072e-13 3.01266e-14 -2.43882e-13 0 0 -2.8459e-14 -2.00368e-13 -8.03278e-14 -1.21103e-13 0 0 -2.55266e-14 -2.81212e-13 7.41148e-15 -1.45361e-13 0 0 -1.2417e-13 -2.59034e-13 1.20694e-14 -1.2239e-13 0 0 -2.46657e-13 -1.83261e-13 -6.45914e-14 -3.80605e-14 0 0 -3.0109e-13 -1.82348e-13 -9.98368e-14 2.39916e-14 0 0 -3.00395e-13 -2.28349e-13 -1.02981e-13 5.7647e-14 0 0 -2.71767e-13 -2.96967e-13 -7.1879e-14 3.73513e-14 0 0 -2.49047e-13 -3.373e-13 -6.35235e-14 1.23351e-14 0 0 -1.97725e-13 -3.91601e-13 -6.27217e-14 -1.72073e-14 0 0 -1.80213e-13 -3.99355e-13 -1.17345e-13 1.19957e-14 0 0 -2.06842e-13 -3.57149e-13 -2.16203e-13 1.00971e-13 0 0 -2.38958e-13 -3.31419e-13 -2.75901e-13 1.69916e-13 0 0 -2.56969e-13 -3.44649e-13 -2.83988e-13 2.08294e-13 0 0 -2.47612e-13 -4.10975e-13 -2.23887e-13 1.82026e-13 0 0 -2.28654e-13 -4.71111e-13 -1.58886e-13 1.166e-13 0 0 -2.24474e-13 -4.72668e-13 -1.63618e-13 8.90329e-14 0 0 -2.28522e-13 -4.3667e-13 -2.19601e-13 8.45484e-14 0 0 -2.30863e-13 -3.90991e-13 -2.80477e-13 6.97125e-14 0 0 -2.28916e-13 -3.3629e-13 -3.34175e-13 5.5255e-14 0 0 -2.06331e-13 -3.03659e-13 -3.46629e-13 3.4316e-14 0 0 -1.60332e-13 -2.99481e-13 -3.2525e-13 2.45864e-14 0 0 -1.12853e-13 -2.86316e-13 -3.2188e-13 5.3798e-14 0 0 -7.05186e-14 -2.66265e-13 -3.3576e-13 1.01983e-13 0 0 -2.4937e-14 -2.62569e-13 -3.39225e-13 1.43758e-13 0 0 8.15003e-15 -2.46003e-13 -3.65037e-13 1.95155e-13 0 0 1.49761e-14 -2.13693e-13 -3.92118e-13 2.2587e-13 0 0 9.1071e-15 -1.90624e-13 -3.94302e-13 2.26523e-13 0 0 1.16692e-15 -1.75991e-13 -3.91036e-13 2.20886e-13 0 0 -1.10114e-14 -1.63855e-13 -3.72558e-13 1.87972e-13 0 0 -1.90179e-14 -1.54694e-13 -3.48356e-13 1.35577e-13 0 0 -2.11828e-14 -1.4991e-13 -3.30752e-13 9.04702e-14 0 0 -2.13163e-14 -1.50191e-13 -3.12117e-13 5.17581e-14 0 0 -1.79409e-14 -1.54695e-13 -2.90857e-13 1.18032e-14 0 0 -1.08597e-14 -1.59553e-13 -2.78529e-13 -1.47194e-14 0 0 -1.57158e-15 -1.6552e-13 -2.76133e-13 -2.137e-14 0 0 8.00075e-15 -1.72576e-13 -2.70258e-13 -3.06281e-14 0 0 1.88938e-14 -1.81016e-13 -2.62323e-13 -4.25351e-14 0 0 2.96972e-14 -1.83262e-13 -2.68023e-13 -5.07953e-14 0 0 5.15593e-14 -1.95414e-13 -2.72529e-13 -6.06322e-14 0 0 8.29423e-14 -2.17217e-13 -2.73246e-13 -6.98392e-14 0 0 1.10612e-13 -2.31598e-13 -2.86473e-13 -7.32264e-14 0 0 1.36579e-13 -2.43507e-13 -3.06055e-13 -7.17289e-14 0 0 1.61301e-13 -2.57565e-13 -3.15995e-13 -8.02352e-14 0 0 1.80645e-13 -2.71507e-13 -3.14058e-13 -1.02723e-13 0 0 1.92269e-13 -2.84117e-13 -3.08798e-13 -1.29011e-13 0 0 1.96404e-13 -2.91509e-13 -3.07217e-13 -1.5786e-13 0 0 1.93522e-13 -2.87534e-13 -3.10969e-13 -1.9566e-13 0 0 1.85199e-13 -2.76933e-13 -3.11043e-13 -2.41909e-13 0 0 1.74648e-13 -2.67062e-13 -3.01649e-13 -2.94667e-13 0 0 1.56503e-13 -2.43344e-13 -3.0898e-13 -3.36388e-13 0 0 1.31197e-13 -2.10147e-13 -3.29943e-13 -3.72206e-13 0 0 1.08997e-13 -1.91014e-13 -3.37068e-13 -4.17139e-13 0 0 8.79325e-14 -1.82503e-13 -3.43784e-13 -4.41376e-13 0 0 6.26778e-14 -1.779e-13 -3.5845e-13 -4.36563e-13 0 0 3.7222e-14 -1.78978e-13 -3.66124e-13 -4.35576e-13 0 0 1.18443e-14 -1.84463e-13 -3.655e-13 -4.39172e-13 0 0 -1.42694e-14 -1.95243e-13 -3.5243e-13 -4.44322e-13 0 0 -3.97109e-14 -2.07874e-13 -3.35514e-13 -4.48227e-13 0 0 -5.63986e-14 -2.1697e-13 -3.41672e-13 -4.08038e-13 0 0 -9.92744e-14 -1.86644e-13 -3.82286e-13 -3.5638e-13 0 0 -1.38084e-13 -1.75718e-13 -3.89579e-13 -3.48427e-13 0 0 -1.28937e-13 -2.19606e-13 -3.47022e-13 -3.74162e-13 0 0 -1.36793e-13 -2.40618e-13 -3.29563e-13 -3.71387e-13 0 0 -1.57759e-13 -2.46816e-13 -3.42839e-13 -3.22627e-13 0 0 -1.63874e-13 -2.63902e-13 -3.23587e-13 -3.17388e-13 0 0 -1.75732e-13 -2.54348e-13 -3.03431e-13 -3.45451e-13 0 0 -1.91585e-13 -2.24548e-13 -3.3361e-13 -3.31171e-13 0 0 -1.86066e-13 -2.43781e-13 -3.23609e-13 -2.94827e-13 0 0 -1.66265e-13 -2.77523e-13 -3.04591e-13 -2.29214e-13 0 0 -1.54646e-13 -2.79513e-13 -3.04262e-13 -1.94637e-13 0 0 -1.46876e-13 -2.84913e-13 -2.62663e-13 -2.26469e-13 0 0 -1.55265e-13 -2.61178e-13 -2.45901e-13 -2.40184e-13 0 0 -1.7699e-13 -2.38469e-13 -2.34513e-13 -2.47018e-13 0 0 -1.63454e-13 -2.66276e-13 -2.11362e-13 -1.95893e-13 0 0 -1.38698e-13 -2.82746e-13 -2.03632e-13 -1.4284e-13 0 0 -1.41893e-13 -2.69567e-13 -1.96008e-13 -1.51098e-13 0 0 -1.438e-13 -2.51326e-13 -2.14811e-13 -1.09137e-13 0 0 -1.37307e-13 -2.51968e-13 -2.1216e-13 -1.03344e-13 0 0 -1.52015e-13 -2.15253e-13 -2.11037e-13 -1.7301e-13 0 0 -1.72517e-13 -2.00029e-13 -1.97154e-13 -2.01154e-13 0 0 -1.65154e-13 -2.20124e-13 -1.70274e-13 -2.00583e-13 0 0 -1.52759e-13 -2.21678e-13 -1.43848e-13 -2.69537e-13 0 0 -1.44518e-13 -2.41227e-13 -1.31524e-13 -2.54375e-13 0 0 -1.46633e-13 -2.42676e-13 -1.39622e-13 -2.07298e-13 0 0 -1.57738e-13 -2.3089e-13 -1.56292e-13 -2.04187e-13 0 0 -1.63832e-13 -2.16292e-13 -1.90998e-13 -1.70437e-13 0 0 -1.4568e-13 -2.37704e-13 -1.8248e-13 -1.50952e-13 0 0 -1.31989e-13 -2.37419e-13 -2.12831e-13 -1.32918e-13 0 0 -1.5353e-13 -1.77484e-13 -2.88551e-13 -1.18234e-13 0 0 -1.63468e-13 -1.58882e-13 -3.18423e-13 -9.14132e-14 0 0 -1.63454e-13 -2.01589e-13 -2.62521e-13 -1.1392e-13 0 0 -1.6849e-13 -2.38919e-13 -2.48144e-13 -4.42561e-14 0 0 -1.84351e-13 -2.44101e-13 -2.98296e-13 1.43662e-14 0 0 -2.01353e-13 -2.6287e-13 -2.74722e-13 -1.32671e-13 0 0 -2.15999e-13 -2.6786e-13 -2.86336e-13 -2.33556e-13 0 0 -2.11065e-13 -2.96943e-13 -3.16157e-13 -2.29761e-13 0 0 -2.04116e-13 -3.19828e-13 -3.36771e-13 -2.52842e-13 0 0 -2.05467e-13 -3.19269e-13 -3.53981e-13 -3.53738e-13 0 0 -1.93933e-13 -3.40942e-13 -3.67735e-13 -3.41292e-13 0 0 -2.17879e-13 -3.11852e-13 -4.18965e-13 -1.98587e-13 0 0 -1.8811e-13 -3.52317e-13 -3.59473e-13 -1.68789e-13 0 0 -1.71971e-13 -3.48844e-13 -3.89277e-13 -6.34731e-14 0 0 -2.47575e-13 -2.56741e-13 -4.25955e-13 6.25983e-15 0 0 -2.36422e-13 -2.74897e-13 -3.46498e-13 -7.15608e-14 0 0 -1.69902e-13 -3.75727e-13 -2.59176e-13 -6.84935e-14 0 0 -1.40442e-13 -4.0283e-13 -2.3996e-13 -7.45266e-14 0 0 -1.26581e-13 -3.99283e-13 -1.47511e-13 -3.56123e-13 0 0 -1.10201e-13 -3.91317e-13 -9.33543e-15 -6.3864e-13 0 0 -5.31773e-14 -3.57011e-13 -8.09904e-14 -6.03988e-13 0 0 -9.00016e-14 -3.0113e-13 -1.99502e-13 -4.51385e-13 0 0 -1.54725e-13 -2.8391e-13 -2.34512e-13 -3.47682e-13 0 0 -2.35683e-13 -2.3483e-13 -3.10129e-13 -3.42418e-13 0 0 -2.85311e-13 -1.59029e-13 -5.14115e-13 -3.0953e-13 0 0 -1.64818e-13 -2.98428e-13 -5.24191e-13 -2.81124e-13 0 0 -2.13116e-13 -2.59064e-13 -5.73934e-13 -2.02115e-13 0 0 -2.7139e-13 -2.03935e-13 -5.54038e-13 -1.98742e-13 0 0 -1.67146e-13 -3.43912e-13 -3.98695e-13 -2.65932e-13 0 0 -1.4773e-13 -3.40218e-13 -4.66892e-13 -1.40918e-13 0 0 -2.02161e-13 -2.49719e-13 -5.14971e-13 -1.12775e-13 0 0 -1.50782e-13 -4.10975e-13 -2.41329e-13 -3.07151e-13 0 0 -1.96791e-13 -3.76121e-13 -2.2258e-13 -2.15893e-13 0 0 -3.2311e-13 -1.48366e-13 -4.08552e-13 -2.95726e-14 0 0 -2.09409e-13 -3.16322e-13 -1.69358e-13 -1.9798e-13 0 0 -1.45968e-13 -4.0132e-13 -3.00856e-14 -2.65929e-13 0 0 -1.67564e-13 -3.52594e-13 -1.11401e-13 -1.15136e-13 0 0 -1.90697e-13 -2.72012e-13 -1.56582e-13 -9.95008e-14 0 0 -2.42729e-13 -1.36583e-13 -2.23761e-13 -4.91318e-14 0 0 -2.41894e-13 -7.19525e-14 -3.55389e-13 1.04915e-13 0 0 -1.56925e-13 -1.7012e-13 -2.87679e-13 1.29458e-13 0 0 -1.19841e-13 -2.42835e-13 -1.29528e-13 9.71333e-15 0 0 -4.56789e-14 -3.61254e-13 8.20549e-15 -1.53741e-13 0 0 -1.19385e-13 -2.31895e-13 -1.40183e-13 -1.88977e-14 0 0 -1.52609e-13 -1.1763e-13 -3.43124e-13 2.2612e-13 0 0 1.15721e-14 -3.37616e-13 -2.10547e-13 1.17288e-13 0 0 -4.3412e-14 -3.11719e-13 -1.60974e-13 -2.25708e-14 0 0 -5.34245e-14 -3.11917e-13 -1.26133e-13 -1.22304e-13 0 0 -5.66203e-14 -3.22903e-13 -1.22032e-13 -2.30469e-13 0 0 -1.25716e-13 -2.66627e-13 -1.06263e-13 -3.31931e-13 0 0 -1.7379e-13 -9.74426e-14 -3.75678e-13 -1.77393e-13 0 0 -4.61219e-14 -3.39963e-13 -2.29994e-13 -2.03129e-13 0 0 -2.08317e-13 -2.44912e-13 -3.1235e-13 -2.11636e-13 0 0 -4.3172e-13 1.03442e-13 -6.19618e-13 -1.75511e-13 0 0 -3.15963e-13 -5.15189e-14 -3.89681e-13 -3.824e-13 0
				</DataArray>
				<DataArray Name="VitesseY" type="Float32" format="ascii">