<?xml version="1.0"?>
<VTKFile type="PolyData">
	<PolyData>
		<Piece NumberOfPoints="1206" NumberOfPolys="1000">
			<Points>
				<DataArray type="Float32" NumberOfComponents="3" format="ascii">
 0 0 0 0.02 0 0 0.04 0 0 0.06 0 0 0.08 0 0 0.1 0 0 0 0.005 0 0.02 0.005 0 0.04 0.005 0 0.06 0.005 0 0.08 0.005 0 0.1 0.005 0 0 0.01 0 0.02 0.01 0 0.04 0.01 0 0.06 0.01 0 0.08 0.01 0 0.1 0.01 0 0 0.015 0 0.02 0.015 0 0.04 0.015 0 0.06 0.015 0 0.08 0.015 0 0.1 0.015 0 0 0.02 0 0.02 0.02 0 0.04 0.02 0 0.06 0.02 0 0.08 0.02 0 0.1 0.02 0 0 0.025 0 0.02 0.025 0 0.04 0.025 0 0.06 0.025 0 0.08 0.025 0 0.1 0.025 0 0 0.03 0 0.02 0.03 0 0.04 0.03 0 0.06 0.03 0 0.08 0.03 0 0.1 0.03 0 0 0.035 0 0.02 0.035 0 0.04 0.035 0 0.06 0.035 0 0.08 0.035 0 0.1 0.035 0 0 0.04 0 0.02 0.04 0 0.04 0.04 0 0.06 0.04 0 0.08 0.04 0 0.1 0.04 0 0 0.045 0 0.02 0.045 0 0.04 0.045 0 0.06 0.045 0 0.08 0.045 0 0.1 0.045 0 0 0.05 0 0.02 0.05 0 0.04 0.05 0 0.06 0.05 0 0.08 0.05 0 0.1 0.05 0 0 0.055 0 0.02 0.055 0 0.04 0.055 0 0.06 0.055 0 0.08 0.055 0 0.1 0.055 0 0 0.06 0 0.02 0.06 0 0.04 0.06 0 0.06 0.06 0 0.08 0.06 0 0.1 0.06 0 0 0.065 0 0.02 0.065 0 0.04 0.065 0 0.06 0.065 0 0.08 0.065 0 0.1 0.065 0 0 0.07 0 0.02 0.07 0 0.04 0.07 0 0.06 0.07 0 0.08 0.07 0 0.1 0.07 0 0 0.075 0 0.02 0.075 0 0.04 0.075 0 0.06 0.075 0 0.08 0.075 0 0.1 0.075 0 0 0.08 0 0.02 0.08 0 0.04 0.08 0 0.06 0.08 0 0.08 0.08 0 0.1 0.08 0 0 0.085 0 0.02 0.085 0 0.04 0.085 0 0.06 0.085 0 0.08 0.085 0 0.1 0.085 0 0 0.09 0 0.02 0.09 0 0.04 0.09 0 0.06 0.09 0 0.08 0.09 0 0.1 0.09 0 0 0.095 0 0.02 0.095 0 0.04 0.095 0 0.06 0.095 0 0.08 0.095 0 0.1 0.095 0 0 0.1 0 0.02 0.1 0 0.04 0.1 0 0.06 0.1 0 0.08 0.1 0 0.1 0.1 0 0 0.105 0 0.02 0.105 0 0.04 0.105 0 0.06 0.105 0 0.08 0.105 0 0.1 0.105 0 0 0.11 0 0.02 0.11 0 0.04 0.11 0 0.06 0.11 0 0.08 0.11 0 0.1 0.11 0 0 0.115 0 0.02 0.115 0 0.04 0.115 0 0.06 0.115 0 0.08 0.115 0 0.1 0.115 0 0 0.12 0 0.02 0.12 0 0.04 0.12 0 0.06 0.12 0 0.08 0.12 0 0.1 0.12 0 0 0.125 0 0.02 0.125 0 0.04 0.125 0 0.06 0.125 0 0.08 0.125 0 0.1 0.125 0 0 0.13 0 0.02 0.13 0 0.04 0.13 0 0.06 0.13 0 0.08 0.13 0 0.1 0.13 0 0 0.135 0 0.02 0.135 0 0.04 0.135 0 0.06 0.135 0 0.08 0.135 0 0.1 0.135 0 0 0.14 0 0.02 0.14 0 0.04 0.14 0 0.06 0.14 0 0.08 0.14 0 0.1 0.14 0 0 0.145 0 0.02 0.145 0 0.04 0.145 0 0.06 0.145 0 0.08 0.145 0 0.1 0.145 0 0 0.15 0 0.02 0.15 0 0.04 0.15 0 0.06 0.15 0 0.08 0.15 0 0.1 0.15 0 0 0.155 0 0.02 0.155 0 0.04 0.155 0 0.06 0.155 0 0.08 0.155 0 0.1 0.155 0 0 0.16 0 0.02 0.16 0 0.04 0.16 0 0.06 0.16 0 0.08 0.16 0 0.1 0.16 0 0 0.165 0 0.02 0.165 0 0.04 0.165 0 0.06 0.165 0 0.08 0.165 0 0.1 0.165 0 0 0.17 0 0.02 0.17 0 0.04 0.17 0 0.06 0.17 0 0.08 0.17 0 0.1 0.17 0 0 0.175 0 0.02 0.175 0 0.04 0.175 0 0.06 0.175 0 0.08 0.175 0 0.1 0.175 0 0 0.18 0 0.02 0.18 0 0.04 0.18 0 0.06 0.18 0 0.08 0.18 0 0.1 0.18 0 0 0.185 0 0.02 0.185 0 0.04 0.185 0 0.06 0.185 0 0.08 0.185 0 0.1 0.185 0 0 0.19 0 0.02 0.19 0 0.04 0.19 0 0.06 0.19 0 0.08 0.19 0 0.1 0.19 0 0 0.195 0 0.02 0.195 0 0.04 0.195 0 0.06 0.195 0 0.08 0.195 0 0.1 0.195 0 0 0.2 0 0.02 0.2 0 0.04 0.2 0 0.06 0.2 0 0.08 0.2 0 0.1 0.2 0 0 0.205 0 0.02 0.205 0 0.04 0.205 0 0.06 0.205 0 0.08 0.205 0 0.1 0.205 0 0 0.21 0 0.02 0.21 0 0.04 0.21 0 0.06 0.21 0 0.08 0.21 0 0.1 0.21 0 0 0.215 0 0.02 0.215 0 0.04 0.215 0 0.06 0.215 0 0.08 0.215 0 0.1 0.215 0 0 0.22 0 0.02 0.22 0 0.04 0.22 0 0.06 0.22 0 0.08 0.22 0 0.1 0.22 0 0 0.225 0 0.02 0.225 0 0.04 0.225 0 0.06 0.225 0 0.08 0.225 0 0.1 0.225 0 0 0.23 0 0.02 0.23 0 0.04 0.23 0 0.06 0.23 0 0.08 0.23 0 0.1 0.23 0 0 0.235 0 0.02 0.235 0 0.04 0.235 0 0.06 0.235 0 0.08 0.235 0 0.1 0.235 0 0 0.24 0 0.02 0.24 0 0.04 0.24 0 0.06 0.24 0 0.08 0.24 0 0.1 0.24 0 0 0.245 0 0.02 0.245 0 0.04 0.245 0 0.06 0.245 0 0.08 0.245 0 0.1 0.245 0 0 0.25 0 0.02 0.25 0 0.04 0.25 0 0.06 0.25 0 0.08 0.25 0 0.1 0.25 0 0 0.255 0 0.02 0.255 0 0.04 0.255 0 0.06 0.255 0 0.08 0.255 0 0.1 0.255 0 0 0.26 0 0.02 0.26 0 0.04 0.26 0 0.06 0.26 0 0.08 0.26 0 0.1 0.26 0 0 0.265 0 0.02 0.265 0 0.04 0.265 0 0.06 0.265 0 0.08 0.265 0 0.1 0.265 0 0 0.27 0 0.02 0.27 0 0.04 0.27 0 0.06 0.27 0 0.08 0.27 0 0.1 0.27 0 0 0.275 0 0.02 0.275 0 0.04 0.275 0 0.06 0.275 0 0.08 0.275 0 0.1 0.275 0 0 0.28 0 0.02 0.28 0 0.04 0.28 0 0.06 0.28 0 0.08 0.28 0 0.1 0.28 0 0 0.285 0 0.02 0.285 0 0.04 0.285 0 0.06 0.285 0 0.08 0.285 0 0.1 0.285 0 0 0.29 0 0.02 0.29 0 0.04 0.29 0 0.06 0.29 0 0.08 0.29 0 0.1 0.29 0 0 0.295 0 0.02 0.295 0 0.04 0.295 0 0.06 0.295 0 0.08 0.295 0 0.1 0.295 0 0 0.3 0 0.02 0.3 0 0.04 0.3 0 0.06 0.3 0 0.08 0.3 0 0.1 0.3 0 0 0.305 0 0.02 0.305 0 0.04 0.305 0 0.06 0.305 0 0.08 0.305 0 0.1 0.305 0 0 0.31 0 0.02 0.31 0 0.04 0.31 0 0.06 0.31 0 0.08 0.31 0 0.1 0.31 0 0 0.315 0 0.02 0.315 0 0.04 0.315 0 0.06 0.315 0 0.08 0.315 0 0.1 0.315 0 0 0.32 0 0.02 0.32 0 0.04 0.32 0 0.06 0.32 0 0.08 0.32 0 0.1 0.32 0 0 0.325 0 0.02 0.325 0 0.04 0.325 0 0.06 0.325 0 0.08 0.325 0 0.1 0.325 0 0 0.33 0 0.02 0.33 0 0.04 0.33 0 0.06 0.33 0 0.08 0.33 0 0.1 0.33 0 0 0.335 0 0.02 0.335 0 0.04 0.335 0 0.06 0.335 0 0.08 0.335 0 0.1 0.335 0 0 0.34 0 0.02 0.34 0 0.04 0.34 0 0.06 0.34 0 0.08 0.34 0 0.1 0.34 0 0 0.345 0 0.02 0.345 0 0.04 0.345 0 0.06 0.345 0 0.08 0.345 0 0.1 0.345 0 0 0.35 0 0.02 0.35 0 0.04 0.35 0 0.06 0.35 0 0.08 0.35 0 0.1 0.35 0 0 0.355 0 0.02 0.355 0 0.04 0.355 0 0.06 0.355 0 0.08 0.355 0 0.1 0.355 0 0 0.36 0 0.02 0.36 0 0.04 0.36 0 0.06 0.36 0 0.08 0.36 0 0.1 0.36 0 0 0.365 0 0.02 0.365 0 0.04 0.365 0 0.06 0.365 0 0.08 0.365 0 0.1 0.365 0 0 0.37 0 0.02 0.37 0 0.04 0.37 0 0.06 0.37 0 0.08 0.37 0 0.1 0.37 0 0 0.375 0 0.02 0.375 0 0.04 0.375 0 0.06 0.375 0 0.08 0.375 0 0.1 0.375 0 0 0.38 0 0.02 0.38 0 0.04 0.38 0 0.06 0.38 0 0.08 0.38 0 0.1 0.38 0 0 0.385 0 0.02 0.385 0 0.04 0.385 0 0.06 0.385 0 0.08 0.385 0 0.1 0.385 0 0 0.39 0 0.02 0.39 0 0.04 0.39 0 0.06 0.39 0 0.08 0.39 0 0.1 0.39 0 0 0.395 0 0.02 0.395 0 0.04 0.395 0 0.06 0.395 0 0.08 0.395 0 0.1 0.395 0 0 0.4 0 0.02 0.4 0 0.04 0.4 0 0.06 0.4 0 0.08 0.4 0 0.1 0.4 0 0 0.405 0 0.02 0.405 0 0.04 0.405 0 0.06 0.405 0 0.08 0.405 0 0.1 0.405 0 0 0.41 0 0.02 0.41 0 0.04 0.41 0 0.06 0.41 0 0.08 0.41 0 0.1 0.41 0 0 0.415 0 0.02 0.415 0 0.04 0.415 0 0.06 0.415 0 0.08 0.415 0 0.1 0.415 0 0 0.42 0 0.02 0.42 0 0.04 0.42 0 0.06 0.42 0 0.08 0.42 0 0.1 0.42 0 0 0.425 0 0.02 0.425 0 0.04 0.425 0 0.06 0.425 0 0.08 0.425 0 0.1 0.425 0 0 0.43 0 0.02 0.43 0 0.04 0.43 0 0.06 0.43 0 0.08 0.43 0 0.1 0.43 0 0 0.435 0 0.02 0.435 0 0.04 0.435 0 0.06 0.435 0 0.08 0.435 0 0.1 0.435 0 0 0.44 0 0.02 0.44 0 0.04 0.44 0 0.06 0.44 0 0.08 0.44 0 0.1 0.44 0 0 0.445 0 0.02 0.445 0 0.04 0.445 0 0.06 0.445 0 0.08 0.445 0 0.1 0.445 0 0 0.45 0 0.02 0.45 0 0.04 0.45 0 0.06 0.45 0 0.08 0.45 0 0.1 0.45 0 0 0.455 0 0.02 0.455 0 0.04 0.455 0 0.06 0.455 0 0.08 0.455 0 0.1 0.455 0 0 0.46 0 0.02 0.46 0 0.04 0.46 0 0.06 0.46 0 0.08 0.46 0 0.1 0.46 0 0 0.465 0 0.02 0.465 0 0.04 0.465 0 0.06 0.465 0 0.08 0.465 0 0.1 0.465 0 0 0.47 0 0.02 0.47 0 0.04 0.47 0 0.06 0.47 0 0.08 0.47 0 0.1 0.47 0 0 0.475 0 0.02 0.475 0 0.04 0.475 0 0.06 0.475 0 0.08 0.475 0 0.1 0.475 0 0 0.48 0 0.02 0.48 0 0.04 0.48 0 0.06 0.48 0 0.08 0.48 0 0.1 0.48 0 0 0.485 0 0.02 0.485 0 0.04 0.485 0 0.06 0.485 0 0.08 0.485 0 0.1 0.485 0 0 0.49 0 0.02 0.49 0 0.04 0.49 0 0.06 0.49 0 0.08 0.49 0 0.1 0.49 0 0 0.495 0 0.02 0.495 0 0.04 0.495 0 0.06 0.495 0 0.08 0.495 0 0.1 0.495 0 0 0.5 0 0.02 0.5 0 0.04 0.5 0 0.06 0.5 0 0.08 0.5 0 0.1 0.5 0 0 0.505 0 0.02 0.505 0 0.04 0.505 0 0.06 0.505 0 0.08 0.505 0 0.1 0.505 0 0 0.51 0 0.02 0.51 0 0.04 0.51 0 0.06 0.51 0 0.08 0.51 0 0.1 0.51 0 0 0.515 0 0.02 0.515 0 0.04 0.515 0 0.06 0.515 0 0.08 0.515 0 0.1 0.515 0 0 0.52 0 0.02 0.52 0 0.04 0.52 0 0.06 0.52 0 0.08 0.52 0 0.1 0.52 0 0 0.525 0 0.02 0.525 0 0.04 0.525 0 0.06 0.525 0 0.08 0.525 0 0.1 0.525 0 0 0.53 0 0.02 0.53 0 0.04 0.53 0 0.06 0.53 0 0.08 0.53 0 0.1 0.53 0 0 0.535 0 0.02 0.535 0 0.04 0.535 0 0.06 0.535 0 0.08 0.535 0 0.1 0.535 0 0 0.54 0 0.02 0.54 0 0.04 0.54 0 0.06 0.54 0 0.08 0.54 0 0.1 0.54 0 0 0.545 0 0.02 0.545 0 0.04 0.545 0 0.06 0.545 0 0.08 0.545 0 0.1 0.545 0 0 0.55 0 0.02 0.55 0 0.04 0.55 0 0.06 0.55 0 0.08 0.55 0 0.1 0.55 0 0 0.555 0 0.02 0.555 0 0.04 0.555 0 0.06 0.555 0 0.08 0.555 0 0.1 0.555 0 0 0.56 0 0.02 0.56 0 0.04 0.56 0 0.06 0.56 0 0.08 0.56 0 0.1 0.56 0 0 0.565 0 0.02 0.565 0 0.04 0.565 0 0.06 0.565 0 0.08 0.565 0 0.1 0.565 0 0 0.57 0 0.02 0.57 0 0.04 0.57 0 0.06 0.57 0 0.08 0.57 0 0.1 0.57 0 0 0.575 0 0.02 0.575 0 0.04 0.575 0 0.06 0.575 0 0.08 0.575 0 0.1 0.575 0 0 0.58 0 0.02 0.58 0 0.04 0.58 0 0.06 0.58 0 0.08 0.58 0 0.1 0.58 0 0 0.585 0 0.02 0.585 0 0.04 0.585 0 0.06 0.585 0 0.08 0.585 0 0.1 0.585 0 0 0.59 0 0.02 0.59 0 0.04 0.59 0 0.06 0.59 0 0.08 0.59 0 0.1 0.59 0 0 0.595 0 0.02 0.595 0 0.04 0.595 0 0.06 0.595 0 0.08 0.595 0 0.1 0.595 0 0 0.6 0 0.02 0.6 0 0.04 0.6 0 0.06 0.6 0 0.08 0.6 0 0.1 0.6 0 0 0.605 0 0.02 0.605 0 0.04 0.605 0 0.06 0.605 0 0.08 0.605 0 0.1 0.605 0 0 0.61 0 0.02 0.61 0 0.04 0.61 0 0.06 0.61 0 0.08 0.61 0 0.1 0.61 0 0 0.615 0 0.02 0.615 0 0.04 0.615 0 0.06 0.615 0 0.08 0.615 0 0.1 0.615 0 0 0.62 0 0.02 0.62 0 0.04 0.62 0 0.06 0.62 0 0.08 0.62 0 0.1 0.62 0 0 0.625 0 0.02 0.625 0 0.04 0.625 0 0.06 0.625 0 0.08 0.625 0 0.1 0.625 0 0 0.63 0 0.02 0.63 0 0.04 0.63 0 0.06 0.63 0 0.08 0.63 0 0.1 0.63 0 0 0.635 0 0.02 0.635 0 0.04 0.635 0 0.06 0.635 0 0.08 0.635 0 0.1 0.635 0 0 0.64 0 0.02 0.64 0 0.04 0.64 0 0.06 0.64 0 0.08 0.64 0 0.1 0.64 0 0 0.645 0 0.02 0.645 0 0.04 0.645 0 0.06 0.645 0 0.08 0.645 0 0.1 0.645 0 0 0.65 0 0.02 0.65 0 0.04 0.65 0 0.06 0.65 0 0.08 0.65 0 0.1 0.65 0 0 0.655 0 0.02 0.655 0 0.04 0.655 0 0.06 0.655 0 0.08 0.655 0 0.1 0.655 0 0 0.66 0 0.02 0.66 0 0.04 0.66 0 0.06 0.66 0 0.08 0.66 0 0.1 0.66 0 0 0.665 0 0.02 0.665 0 0.04 0.665 0 0.06 0.665 0 0.08 0.665 0 0.1 0.665 0 0 0.67 0 0.02 0.67 0 0.04 0.67 0 0.06 0.67 0 0.08 0.67 0 0.1 0.67 0 0 0.675 0 0.02 0.675 0 0.04 0.675 0 0.06 0.675 0 0.08 0.675 0 0.1 0.675 0 0 0.68 0 0.02 0.68 0 0.04 0.68 0 0.06 0.68 0 0.08 0.68 0 0.1 0.68 0 0 0.685 0 0.02 0.685 0 0.04 0.685 0 0.06 0.685 0 0.08 0.685 0 0.1 0.685 0 0 0.69 0 0.02 0.69 0 0.04 0.69 0 0.06 0.69 0 0.08 0.69 0 0.1 
[...]
			<PointData Scalars="VitesseX">
				<DataArray Name="VitesseX" type="Float32" format="ascii">
 0 1.98701e-14 1.59383e-14 3.80809e-14 5.63783e-15 0 0 1.25797e-14 2.64987e-14 2.79843e-14 1.20253e-14 0 0 3.75583e-15 3.76883e-14 1.8163e-14 2.01138e-14 0 0 1.53677e-14 1.48422e-14 4.26148e-14 6.4771e-15 0 0 1.76639e-14 1.31553e-14 4.14019e-14 1.10216e-14 0 0 -4.71633e-15 4.86963e-14 4.8137e-15 3.92556e-14 0 0 -8.21314e-15 3.61089e-14 2.69787e-14 2.73234e-14 0 0 -4.10006e-17 1.05738e-14 5.67368e-14 3.75267e-15 0 0 -1.26423e-15 6.6818e-15 5.37166e-14 5.18305e-15 0 0 -1.21182e-14 1.01472e-14 4.59188e-14 1.06286e-14 0 0 -1.26025e-14 -3.65505e-15 6.53081e-14 -8.47531e-15 0 0 -1.72605e-14 5.62801e-15 4.37993e-14 1.48203e-14 0 0 2.26913e-14 -4.10731e-14 6.71185e-14 1.39531e-14 0 0 1.96366e-14 -2.07595e-14 4.12031e-14 3.48691e-14 0 0 -1.81588e-14 5.31501e-14 -8.6777e-15 4.82837e-14 0 0 1.53206e-14 1.90726e-14 4.59915e-14 -6.11408e-16 0 0 4.70521e-15 5.0553e-14 1.67471e-14 2.49996e-14 0 0 2.3044e-14 3.59779e-14 2.77905e-14 2.59154e-14 0 0 4.0126e-14 2.17175e-14 4.55092e-14 2.06884e-14 0 0 -3.49361e-15 9.76273e-14 -1.45811e-15 3.26219e-14 0 0 1.51989e-14 7.53107e-14 4.46234e-14 -1.70411e-14 0 0 2.33588e-14 4.50289e-14 8.90588e-14 -5.12432e-14 0 0 -1.84296e-14 7.7018e-14 4.24584e-14 -9.71976e-15 0 0 -3.99612e-14 1.06245e-13 -5.40577e-15 2.44006e-14 0 0 1.0605e-14 2.53175e-14 7.65404e-14 -2.44174e-14 0 0 4.80767e-14 -4.41926e-14 1.30467e-13 -3.56747e-14 0 0 -1.1385e-14 5.46434e-14 2.44351e-14 3.60594e-14 0 0 -1.69912e-14 5.17762e-14 4.75562e-14 1.09977e-14 0 0 -1.23429e-14 3.24089e-14 9.23082e-14 -3.96913e-14 0 0 -4.45575e-14 7.49834e-14 4.96285e-14 -2.69459e-15 0 0 -4.42443e-14 9.8151e-14 -1.36486e-14 8.60044e-14 0 0 -2.07882e-14 9.41675e-14 -5.46086e-15 7.68377e-14 0 0 -2.69175e-14 1.00506e-13 7.31092e-14 -8.28163e-15 0 0 9.22262e-15 6.3997e-14 1.31235e-13 -2.91011e-14 0 0 2.74054e-14 7.29898e-14 7.38301e-14 4.24688e-14 0 0 1.01128e-14 1.36531e-13 -1.01201e-14 1.16949e-13 0 0 6.33187e-14 6.80881e-14 6.91183e-14 1.08476e-13 0 0 4.30739e-14 7.59182e-14 1.09241e-13 8.09558e-14 0 0 4.7084e-14 5.15567e-14 1.39892e-13 3.65884e-14 0 0 3.75539e-14 7.52853e-14 9.66357e-14 6.43562e-14 0 0 -3.34241e-14 1.64049e-13 3.19594e-14 8.85721e-14 0 0 -5.03075e-14 1.32403e-13 9.03428e-14 3.47884e-14 0 0 -1.05233e-13 1.68402e-13 7.35839e-14 2.7457e-14 0 0 -8.91011e-14 1.13873e-13 1.3865e-13 -3.039e-14 0 0 -4.24461e-14 4.53015e-14 1.53776e-13 -3.08119e-14 0 0 -1.44974e-14 4.4244e-14 1.05005e-13 -1.24156e-14 0 0 2.13021e-14 -4.35472e-15 1.79689e-13 -7.57623e-14 0 0 -5.67551e-15 2.1353e-14 1.66558e-13 -4.9775e-14 0 0 -3.35035e-14 8.88223e-14 8.64222e-14 -1.0119e-14 0 0 -6.94796e-14 1.60289e-13 3.28649e-14 -7.65131e-15 0 0 -2.89699e-14 9.39099e-14 1.68867e-13 -1.17279e-13 0 0 -2.42813e-14 8.01023e-14 1.84195e-13 -6.94899e-14 0 0 -1.68066e-13 3.07915e-13 -1.07485e-13 1.98749e-13 0 0 -1.00338e-13 2.14678e-13 -2.85242e-14 1.5245e-13 0 0 -1.18629e-14 4.13897e-14 2.14536e-13 -2.97881e-14 0 0 -4.48364e-15 7.30582e-14 1.9182e-13 -8.26295e-15 0 0 5.84415e-14 5.88466e-14 1.6813e-13 2.04208e-14 0 0 -1.01019e-14 1.74471e-13 5.83621e-14 7.93298e-14 0 0 -6.12763e-14 2.52893e-13 -3.91026e-14 1.58261e-13 0 0 7.35993e-15 1.33843e-13 8.05267e-14 1.04565e-13 0 0 -2.3521e-14 1.95196e-13 6.96263e-14 8.52327e-14 0 0 6.22751e-15 1.79141e-13 1.00675e-13 1.44512e-13 0 0 2.18506e-14 1.43222e-13 1.58227e-13 2.4947e-13 0 0 -2.32197e-14 1.37153e-13 2.16003e-13 2.80512e-13 0 0 -7.71309e-14 1.63602e-13 2.74294e-13 2.33935e-13 0 0 -1.01884e-13 2.46612e-13 2.69542e-13 2.31357e-13 0 0 2.20123e-14 1.68332e-13 3.13775e-13 2.17117e-13 0 0 8.27586e-15 2.45274e-13 2.56291e-13 1.64589e-13 0 0 3.02015e-14 1.33498e-13 4.44987e-13 -3.99592e-14 0 0 -6.87318e-14 2.16356e-13 4.11168e-13 1.4419e-14 0 0 -2.49985e-13 4.70577e-13 2.29633e-13 2.35794e-13 0 0 -2.27379e-13 3.50559e-13 3.57722e-13 2.47673e-13 0 0 -1.17871e-13 1.46879e-13 5.05293e-13 1.90538e-13 0 0 6.37623e-14 -7.45277e-14 6.40041e-13 6.27566e-14 0 0 -9.60279e-14 2.31065e-13 2.96064e-13 2.13049e-13 0 0 -2.66729e-13 4.97988e-13 1.73344e-13 1.76322e-13 0 0 -1.02186e-13 1.2517e-13 6.1406e-13 -9.69923e-14 0 0 -4.04116e-14 1.95226e-15 6.75077e-13 -3.5006e-14 0 0 -7.89168e-14 1.4685e-13 6.45771e-13 -1.2225e-13 0 0 -2.01017e-13 5.02481e-13 3.78095e-13 -9.797e-14 0 0 7.58394e-14 3.16788e-13 4.57871e-13 -1.95137e-13 0 0 3.30153e-13 3.54843e-14 6.33616e-13 -2.96653e-13 0 0 2.29045e-13 2.81039e-13 2.2082e-13 7.58745e-14 0 0 1.87555e-13 4.58239e-13 -1.5139e-13 4.63792e-13 0 0 3.59518e-13 1.82637e-13 6.71584e-14 3.97795e-13 0 0 4.23988e-13 -6.51509e-14 4.40901e-13 8.61104e-14 0 0 2.25873e-13 6.21475e-14 5.07089e-13 -1.0426e-13 0 0 1.33157e-14 3.25826e-13 3.43655e-13 -1.00994e-13 0 0 -1.00106e-14 4.5433e-13 1.686e-13 -9.71655e-15 0 0 1.09298e-13 4.34624e-13 5.27495e-14 1.06988e-13 0 0 2.54795e-13 3.6453e-13 -1.6431e-14 2.18689e-13 0 0 3.75041e-13 2.99327e-13 -4.91501e-14 3.02477e-13 0 0 4.52028e-13 2.61823e-13 -5.45658e-14 3.58978e-13 0 0 4.77584e-13 2.57432e-13 -2.56167e-14 3.6489e-13 0 0 4.63281e-13 2.78502e-13 2.60167e-14 3.31893e-13 0 0 4.30638e-13 3.07928e-13 8.91039e-14 2.75029e-13 0 0 3.88526e-13 3.39809e-13 1.55269e-13 2.04973e-13 0 0 3.43629e-13 3.69642e-13 2.10547e-13 1.49787e-13 0 0 3.02373e-13 3.97485e-13 2.43501e-13 1.29975e-13 0 0 2.61536e-13 4.27955e-13 2.65593e-13 1.21433e-13 0 0 2.1886e-13 4.66112e-13 2.81744e-13 1.09897e-13 0 0 1.78813e-13 5.05223e-13 3.05538e-13 7.30944e-14 0 0 1.49459e-13 5.29869e-13 3.50803e-13 -8.59814e-16 0 0 1.34338e-13 5.43375e-13 3.96104e-13 -8.35173e-14 0 0 1.31119e-13 5.47429e-13 4.35416e-13 -1.6468e-13 0 0 1.39497e-13 5.38401e-13 4.65674e-13 -2.23646e-13 0 0 1.5113e-13 5.23043e-13 4.81498e-13 -2.51578e-13 0 0 1.52073e-13 5.12242e-13 4.80025e-13 -2.43066e-13 0 0 1.37908e-13 5.14786e-13 4.51556e-13 -1.93929e-13 0 0 1.0695e-13 5.35437e-13 4.01108e-13 -1.23614e-13 0 0 6.31712e-14 5.62686e-13 3.56411e-13 -6.46086e-14 0 0 1.63571e-14 5.89402e-13 3.19207e-13 -2.40514e-14 0 0 -2.04223e-15 5.77703e-13 3.28938e-13 -3.4339e-14 0 0 -7.17203e-15 5.77389e-13 2.89382e-13 4.3547e-15 0 0 -1.05581e-14 6.04292e-13 1.91194e-13 9.8967e-14 0 0 1.0628e-14 5.7753e-13 1.62812e-13 1.55434e-13 0 0 3.53791e-14 5.11213e-13 1.90164e-13 1.72866e-13 0 0 6.95175e-14 4.21053e-13 2.81967e-13 1.03092e-13 0 0 1.01932e-13 3.53475e-13 3.36154e-13 8.12908e-14 0 0 1.19417e-13 2.99541e-13 3.45944e-13 1.26284e-13 0 0 1.25886e-13 2.53397e-13 3.64663e-13 1.53612e-13 0 0 1.17724e-13 2.59498e-13 3.22017e-13 2.17683e-13 0 0 1.15095e-13 2.66292e-13 2.50167e-13 2.81138e-13 0 0 1.22333e-13 2.16114e-13 2.84873e-13 2.11675e-13 0 0 1.27296e-13 1.79462e-13 3.30693e-13 1.5173e-13 0 0 1.26189e-13 1.97648e-13 2.89977e-13 1.40314e-13 0 0 1.2452e-13 2.20285e-13 2.42235e-13 1.52253e-13 0 0 1.2875e-13 2.42316e-13 1.70177e-13 2.0908e-13 0 0 1.25489e-13 2.67158e-13 1.48536e-13 1.71467e-13 0 0 1.44473e-13 2.49153e-13 1.68789e-13 1.44334e-13 0 0 1.41424e-13 2.27498e-13 1.84113e-13 1.46742e-13 0 0 1.27788e-13 1.91503e-13 2.61309e-13 1.08437e-13 0 0 1.42406e-13 1.61601e-13 3.47853e-13 5.06761e-14 0 0 1.25048e-13 2.29246e-13 3.24941e-13 5.26422e-14 0 0 1.21827e-13 2.36502e-13 3.04372e-13 1.76666e-13 0 0 9.6907e-14 2.7189e-13 2.48007e-13 2.50631e-13 0 0 7.96042e-14 3.80488e-13 1.50243e-13 1.96722e-13 0 0 1.34567e-13 3.14608e-13 3.21637e-13 1.1606e-13 0 0 1.66643e-13 3.37552e-13 3.35909e-13 2.08474e-13 0 0 1.87889e-13 3.84539e-13 3.22391e-13 2.46715e-13 0 0 1.53176e-13 4.41217e-13 4.08143e-13 1.53672e-13 0 0 1.49489e-13 5.28903e-13 3.22799e-13 1.92247e-13 0 0 2.31544e-13 4.03487e-13 4.45e-13 1.19386e-13 0 0 2.23604e-13 4.22044e-13 4.50568e-13 1.43958e-13 0 0 1.87904e-13 4.63955e-13 4.42878e-13 1.85009e-13 0 0 2.1923e-13 3.91158e-13 5.27795e-13 1.51583e-13 0 0 1.39682e-13 5.29313e-13 3.71645e-13 2.63363e-13 0 0 1.27217e-13 5.32271e-13 3.89843e-13 3.14774e-13 0 0 2.12214e-13 3.9522e-13 5.27315e-13 2.84598e-13 0 0 2.17833e-13 4.1306e-13 5.21495e-13 2.87623e-13 0 0 3.00832e-13 2.62305e-13 7.12834e-13 2.01608e-13 0 0 2.3655e-13 4.10008e-13 4.91245e-13 4.00994e-13 0 0 1.57657e-13 5.70431e-13 2.89446e-13 5.55815e-13 0 0 2.04889e-13 4.99713e-13 4.18621e-13 4.61792e-13 0 0 2.82493e-13 4.48363e-13 5.5486e-13 3.48137e-13 0 0 2.85858e-13 5.33701e-13 5.14529e-13 4.18645e-13 0 0 2.3611e-13 7.23337e-13 2.8696e-13 6.81867e-13 0 0 3.3251e-13 6.77934e-13 4.02924e-13 5.83465e-13 0 0 3.69394e-13 6.9353e-13 4.57324e-13 4.77439e-13 0 0 5.09141e-13 4.72923e-13 7.1408e-13 2.97712e-13 0 0 5.23149e-13 4.85763e-13 6.80617e-13 3.2066e-13 0 0 3.8444e-13 8.31692e-13 2.5469e-13 5.62172e-13 0 0 2.8776e-13 1.03564e-12 6.18868e-14 5.94956e-13 0 0 4.18444e-13 8.37138e-13 3.52587e-13 3.56618e-13 0 0 6.63244e-13 4.81054e-13 7.06538e-13 1.39191e-13 0 0 6.36467e-13 5.90611e-13 5.17226e-13 2.72733e-13 0 0 6.04437e-13 6.65398e-13 4.59315e-13 2.66088e-13 0 0 6.25772e-13 5.33534e-13 5.95977e-13 2.15226e-13 0 0 3.5033e-13 9.00125e-13 2.11591e-13 5.23516e-13 0 0 3.66951e-13 8.91686e-13 2.35963e-13 5.06044e-13 0 0 6.18305e-13 6.0219e-13 4.61952e-13 3.68088e-13 0 0 5.47963e-13 7.47072e-13 2.61478e-13 5.09541e-13 0 0 4.70307e-13 7.36438e-13 3.43187e-13 4.12321e-13 0 0 3.17149e-13 8.22351e-13 2.95736e-13 3.98306e-13 0 0 2.9968e-13 7.38869e-13 4.00054e-13 3.37477e-13 0 0 3.43135e-13 6.23416e-13 5.36462e-13 2.30588e-13 0 0 3.97572e-13 4.9717e-13 7.59382e-13 2.99477e-14 0 0 5.38232e-13 3.13939e-13 9.79202e-13 -8.51861e-14 0 0 2.99495e-13 7.49137e-13 3.74431e-13 4.59214e-13 0 0 2.50198e-13 8.14504e-13 2.18924e-13 7.3967e-13 0 0 3.21373e-13 6.27089e-13 5.13282e-13 5.10833e-13 0 0 2.05436e-13 7.10953e-13 6.55392e-13 2.31905e-13 0 0 5.76979e-13 2.38307e-13 9.82307e-13 1.22541e-13 0 0 3.68342e-13 5.58022e-13 5.25401e-13 3.72534e-13 0 0 2.33809e-13 6.78832e-13 4.08244e-13 3.36627e-13 0 0 4.58737e-13 3.59343e-13 7.33003e-13 1.28228e-13 0 0 3.92406e-13 3.72228e-13 8.05747e-13 9.69872e-14 0 0 3.6598e-13 2.72824e-13 8.77313e-13 1.88629e-13 0 0 8.71255e-14 6.88125e-13 5.227e-13 3.39961e-13 0 0 -3.62032e-14 9.29764e-13 4.16595e-13 2.13315e-13 0 0 2.07117e-13 5.96854e-13 8.24758e-13 -1.84518e-13 0 0 7.92528e-14 8.81801e-13 5.4937e-13 -2.06085e-14 0 0 7.83151e-14 9.01008e-13 4.56791e-13 1.80418e-13 0 0 2.81495e-13 5.80597e-13 6.42509e-13 1.51401e-13 0 0 3.83153e-13 3.50421e-13 8.82259e-13 2.3741e-14 0 0 3.34618e-13 2.91031e-13 1.03362e-12 -6.09535e-14 0 0 9.22443e-14 5.32734e-13 8.45117e-13 6.44212e-14 0 0 -3.55854e-14 7.31669e-13 6.17548e-13 2.30357e-13 0 0 1.02918e-13 5.95666e-13 5.91897e-13 3.83727e-13 0 0 5.62086e-13 -1.74074e-13 1.42944e-12 -1.22978e-13 0 0 7.17537e-13 -4.58862e-13 1.92105e-12 -5.6682e-13 0
				</DataArray>
				<DataArray Name="VitesseY" type="Float32" format="ascii">