<?xml version="1.0"?>
<VTKFile type="PolyData">
	<PolyData>
		<Piece NumberOfPoints="1206" NumberOfPolys="1000">
			<Points>
				<DataArray type="Float32" NumberOfComponents="3" format="ascii">
 0 0 0 0.02 0 0 0.04 0 0 0.06 0 0 0.08 0 0 0.1 0 0 0 0.005 0 0.02 0.005 0 0.04 0.005 0 0.06 0.005 0 0.08 0.005 0 0.1 0.005 0 0 0.01 0 0.02 0.01 0 0.04 0.01 0 0.06 0.01 0 0.08 0.01 0 0.1 0.01 0 0 0.015 0 0.02 0.015 0 0.04 0.015 0 0.06 0.015 0 0.08 0.015 0 0.1 0.015 0 0 0.02 0 0.02 0.02 0 0.04 0.02 0 0.06 0.02 0 0.08 0.02 0 0.1 0.02 0 0 0.025 0 0.02 0.025 0 0.04 0.025 0 0.06 0.025 0 0.08 0.025 0 0.1 0.025 0 0 0.03 0 0.02 0.03 0 0.04 0.03 0 0.06 0.03 0 0.08 0.03 0 0.1 0.03 0 0 0.035 0 0.02 0.035 0 0.04 0.035 0 0.06 0.035 0 0.08 0.035 0 0.1 0.035 0 0 0.04 0 0.02 0.04 0 0.04 0.04 0 0.06 0.04 0 0.08 0.04 0 0.1 0.04 0 0 0.045 0 0.02 0.045 0 0.04 0.045 0 0.06 0.045 0 0.08 0.045 0 0.1 0.045 0 0 0.05 0 0.02 0.05 0 0.04 0.05 0 0.06 0.05 0 0.08 0.05 0 0.1 0.05 0 0 0.055 0 0.02 0.055 0 0.04 0.055 0 0.06 0.055 0 0.08 0.055 0 0.1 0.055 0 0 0.06 0 0.02 0.06 0 0.04 0.06 0 0.06 0.06 0 0.08 0.06 0 0.1 0.06 0 0 0.065 0 0.02 0.065 0 0.04 0.065 0 0.06 0.065 0 0.08 0.065 0 0.1 0.065 0 0 0.07 0 0.02 0.07 0 0.04 0.07 0 0.06 0.07 0 0.08 0.07 0 0.1 0.07 0 0 0.075 0 0.02 0.075 0 0.04 0.075 0 0.06 0.075 0 0.08 0.075 0 0.1 0.075 0 0 0.08 0 0.02 0.08 0 0.04 0.08 0 0.06 0.08 0 0.08 0.08 0 0.1 0.08 0 0 0.085 0 0.02 0.085 0 0.04 0.085 0 0.06 0.085 0 0.08 0.085 0 0.1 0.085 0 0 0.09 0 0.02 0.09 0 0.04 0.09 0 0.06 0.09 0 0.08 0.09 0 0.1 0.09 0 0 0.095 0 0.02 0.095 0 0.04 0.095 0 0.06 0.095 0 0.08 0.095 0 0.1 0.095 0 0 0.1 0 0.02 0.1 0 0.04 0.1 0 0.06 0.1 0 0.08 0.1 0 0.1 0.1 0 0 0.105 0 0.02 0.105 0 0.04 0.105 0 0.06 0.105 0 0.08 0.105 0 0.1 0.105 0 0 0.11 0 0.02 0.11 0 0.04 0.11 0 0.06 0.11 0 0.08 0.11 0 0.1 0.11 0 0 0.115 0 0.02 0.115 0 0.04 0.115 0 0.06 0.115 0 0.08 0.115 0 0.1 0.115 0 0 0.12 0 0.02 0.12 0 0.04 0.12 0 0.06 0.12 0 0.08 0.12 0 0.1 0.12 0 0 0.125 0 0.02 0.125 0 0.04 0.125 0 0.06 0.125 0 0.08 0.125 0 0.1 0.125 0 0 0.13 0 0.02 0.13 0 0.04 0.13 0 0.06 0.13 0 0.08 0.13 0 0.1 0.13 0 0 0.135 0 0.02 0.135 0 0.04 0.135 0 0.06 0.135 0 0.08 0.135 0 0.1 0.135 0 0 0.14 0 0.02 0.14 0 0.04 0.14 0 0.06 0.14 0 0.08 0.14 0 0.1 0.14 0 0 0.145 0 0.02 0.145 0 0.04 0.145 0 0.06 0.145 0 0.08 0.145 0 0.1 0.145 0 0 0.15 0 0.02 0.15 0 0.04 0.15 0 0.06 0.15 0 0.08 0.15 0 0.1 0.15 0 0 0.155 0 0.02 0.155 0 0.04 0.155 0 0.06 0.155 0 0.08 0.155 0 0.1 0.155 0 0 0.16 0 0.02 0.16 0 0.04 0.16 0 0.06 0.16 0 0.08 0.16 0 0.1 0.16 0 0 0.165 0 0.02 0.165 0 0.04 0.165 0 0.06 0.165 0 0.08 0.165 0 0.1 0.165 0 0 0.17 0 0.02 0.17 0 0.04 0.17 0 0.06 0.17 0 0.08 0.17 0 0.1 0.17 0 0 0.175 0 0.02 0.175 0 0.04 0.175 0 0.06 0.175 0 0.08 0.175 0 0.1 0.175 0 0 0.18 0 0.02 0.18 0 0.04 0.18 0 0.06 0.18 0 0.08 0.18 0 0.1 0.18 0 0 0.185 0 0.02 0.185 0 0.04 0.185 0 0.06 0.185 0 0.08 0.185 0 0.1 0.185 0 0 0.19 0 0.02 0.19 0 0.04 0.19 0 0.06 0.19 0 0.08 0.19 0 0.1 0.19 0 0 0.195 0 0.02 0.195 0 0.04 0.195 0 0.06 0.195 0 0.08 0.195 0 0.1 0.195 0 0 0.2 0 0.02 0.2 0 0.04 0.2 0 0.06 0.2 0 0.08 0.2 0 0.1 0.2 0 0 0.205 0 0.02 0.205 0 0.04 0.205 0 0.06 0.205 0 0.08 0.205 0 0.1 0.205 0 0 0.21 0 0.02 0.21 0 0.04 0.21 0 0.06 0.21 0 0.08 0.21 0 0.1 0.21 0 0 0.215 0 0.02 0.215 0 0.04 0.215 0 0.06 0.215 0 0.08 0.215 0 0.1 0.215 0 0 0.22 0 0.02 0.22 0 0.04 0.22 0 0.06 0.22 0 0.08 0.22 0 0.1 0.22 0 0 0.225 0 0.02 0.225 0 0.04 0.225 0 0.06 0.225 0 0.08 0.225 0 0.1 0.225 0 0 0.23 0 0.02 0.23 0 0.04 0.23 0 0.06 0.23 0 0.08 0.23 0 0.1 0.23 0 0 0.235 0 0.02 0.235 0 0.04 0.235 0 0.06 0.235 0 0.08 0.235 0 0.1 0.235 0 0 0.24 0 0.02 0.24 0 0.04 0.24 0 0.06 0.24 0 0.08 0.24 0 0.1 0.24 0 0 0.245 0 0.02 0.245 0 0.04 0.245 0 0.06 0.245 0 0.08 0.245 0 0.1 0.245 0 0 0.25 0 0.02 0.25 0 0.04 0.25 0 0.06 0.25 0 0.08 0.25 0 0.1 0.25 0 0 0.255 0 0.02 0.255 0 0.04 0.255 0 0.06 0.255 0 0.08 0.255 0 0.1 0.255 0 0 0.26 0 0.02 0.26 0 0.04 0.26 0 0.06 0.26 0 0.08 0.26 0 0.1 0.26 0 0 0.265 0 0.02 0.265 0 0.04 0.265 0 0.06 0.265 0 0.08 0.265 0 0.1 0.265 0 0 0.27 0 0.02 0.27 0 0.04 0.27 0 0.06 0.27 0 0.08 0.27 0 0.1 0.27 0 0 0.275 0 0.02 0.275 0 0.04 0.275 0 0.06 0.275 0 0.08 0.275 0 0.1 0.275 0 0 0.28 0 0.02 0.28 0 0.04 0.28 0 0.06 0.28 0 0.08 0.28 0 0.1 0.28 0 0 0.285 0 0.02 0.285 0 0.04 0.285 0 0.06 0.285 0 0.08 0.285 0 0.1 0.285 0 0 0.29 0 0.02 0.29 0 0.04 0.29 0 0.06 0.29 0 0.08 0.29 0 0.1 0.29 0 0 0.295 0 0.02 0.295 0 0.04 0.295 0 0.06 0.295 0 0.08 0.295 0 0.1 0.295 0 0 0.3 0 0.02 0.3 0 0.04 0.3 0 0.06 0.3 0 0.08 0.3 0 0.1 0.3 0 0 0.305 0 0.02 0.305 0 0.04 0.305 0 0.06 0.305 0 0.08 0.305 0 0.1 0.305 0 0 0.31 0 0.02 0.31 0 0.04 0.31 0 0.06 0.31 0 0.08 0.31 0 0.1 0.31 0 0 0.315 0 0.02 0.315 0 0.04 0.315 0 0.06 0.315 0 0.08 0.315 0 0.1 0.315 0 0 0.32 0 0.02 0.32 0 0.04 0.32 0 0.06 0.32 0 0.08 0.32 0 0.1 0.32 0 0 0.325 0 0.02 0.325 0 0.04 0.325 0 0.06 0.325 0 0.08 0.325 0 0.1 0.325 0 0 0.33 0 0.02 0.33 0 0.04 0.33 0 0.06 0.33 0 0.08 0.33 0 0.1 0.33 0 0 0.335 0 0.02 0.335 0 0.04 0.335 0 0.06 0.335 0 0.08 0.335 0 0.1 0.335 0 0 0.34 0 0.02 0.34 0 0.04 0.34 0 0.06 0.34 0 0.08 0.34 0 0.1 0.34 0 0 0.345 0 0.02 0.345 0 0.04 0.345 0 0.06 0.345 0 0.08 0.345 0 0.1 0.345 0 0 0.35 0 0.02 0.35 0 0.04 0.35 0 0.06 0.35 0 0.08 0.35 0 0.1 0.35 0 0 0.355 0 0.02 0.355 0 0.04 0.355 0 0.06 0.355 0 0.08 0.355 0 0.1 0.355 0 0 0.36 0 0.02 0.36 0 0.04 0.36 0 0.06 0.36 0 0.08 0.36 0 0.1 0.36 0 0 0.365 0 0.02 0.365 0 0.04 0.365 0 0.06 0.365 0 0.08 0.365 0 0.1 0.365 0 0 0.37 0 0.02 0.37 0 0.04 0.37 0 0.06 0.37 0 0.08 0.37 0 0.1 0.37 0 0 0.375 0 0.02 0.375 0 0.04 0.375 0 0.06 0.375 0 0.08 0.375 0 0.1 0.375 0 0 0.38 0 0.02 0.38 0 0.04 0.38 0 0.06 0.38 0 0.08 0.38 0 0.1 0.38 0 0 0.385 0 0.02 0.385 0 0.04 0.385 0 0.06 0.385 0 0.08 0.385 0 0.1 0.385 0 0 0.39 0 0.02 0.39 0 0.04 0.39 0 0.06 0.39 0 0.08 0.39 0 0.1 0.39 0 0 0.395 0 0.02 0.395 0 0.04 0.395 0 0.06 0.395 0 0.08 0.395 0 0.1 0.395 0 0 0.4 0 0.02 0.4 0 0.04 0.4 0 0.06 0.4 0 0.08 0.4 0 0.1 0.4 0 0 0.405 0 0.02 0.405 0 0.04 0.405 0 0.06 0.405 0 0.08 0.405 0 0.1 0.405 0 0 0.41 0 0.02 0.41 0 0.04 0.41 0 0.06 0.41 0 0.08 0.41 0 0.1 0.41 0 0 0.415 0 0.02 0.415 0 0.04 0.415 0 0.06 0.415 0 0.08 0.415 0 0.1 0.415 0 0 0.42 0 0.02 0.42 0 0.04 0.42 0 0.06 0.42 0 0.08 0.42 0 0.1 0.42 0 0 0.425 0 0.02 0.425 0 0.04 0.425 0 0.06 0.425 0 0.08 0.425 0 0.1 0.425 0 0 0.43 0 0.02 0.43 0 0.04 0.43 0 0.06 0.43 0 0.08 0.43 0 0.1 0.43 0 0 0.435 0 0.02 0.435 0 0.04 0.435 0 0.06 0.435 0 0.08 0.435 0 0.1 0.435 0 0 0.44 0 0.02 0.44 0 0.04 0.44 0 0.06 0.44 0 0.08 0.44 0 0.1 0.44 0 0 0.445 0 0.02 0.445 0 0.04 0.445 0 0.06 0.445 0 0.08 0.445 0 0.1 0.445 0 0 0.45 0 0.02 0.45 0 0.04 0.45 0 0.06 0.45 0 0.08 0.45 0 0.1 0.45 0 0 0.455 0 0.02 0.455 0 0.04 0.455 0 0.06 0.455 0 0.08 0.455 0 0.1 0.455 0 0 0.46 0 0.02 0.46 0 0.04 0.46 0 0.06 0.46 0 0.08 0.46 0 0.1 0.46 0 0 0.465 0 0.02 0.465 0 0.04 0.465 0 0.06 0.465 0 0.08 0.465 0 0.1 0.465 0 0 0.47 0 0.02 0.47 0 0.04 0.47 0 0.06 0.47 0 0.08 0.47 0 0.1 0.47 0 0 0.475 0 0.02 0.475 0 0.04 0.475 0 0.06 0.475 0 0.08 0.475 0 0.1 0.475 0 0 0.48 0 0.02 0.48 0 0.04 0.48 0 0.06 0.48 0 0.08 0.48 0 0.1 0.48 0 0 0.485 0 0.02 0.485 0 0.04 0.485 0 0.06 0.485 0 0.08 0.485 0 0.1 0.485 0 0 0.49 0 0.02 0.49 0 0.04 0.49 0 0.06 0.49 0 0.08 0.49 0 0.1 0.49 0 0 0.495 0 0.02 0.495 0 0.04 0.495 0 0.06 0.495 0 0.08 0.495 0 0.1 0.495 0 0 0.5 0 0.02 0.5 0 0.04 0.5 0 0.06 0.5 0 0.08 0.5 0 0.1 0.5 0 0 0.505 0 0.02 0.505 0 0.04 0.505 0 0.06 0.505 0 0.08 0.505 0 0.1 0.505 0 0 0.51 0 0.02 0.51 0 0.04 0.51 0 0.06 0.51 0 0.08 0.51 0 0.1 0.51 0 0 0.515 0 0.02 0.515 0 0.04 0.515 0 0.06 0.515 0 0.08 0.515 0 0.1 0.515 0 0 0.52 0 0.02 0.52 0 0.04 0.52 0 0.06 0.52 0 0.08 0.52 0 0.1 0.52 0 0 0.525 0 0.02 0.525 0 0.04 0.525 0 0.06 0.525 0 0.08 0.525 0 0.1 0.525 0 0 0.53 0 0.02 0.53 0 0.04 0.53 0 0.06 0.53 0 0.08 0.53 0 0.1 0.53 0 0 0.535 0 0.02 0.535 0 0.04 0.535 0 0.06 0.535 0 0.08 0.535 0 0.1 0.535 0 0 0.54 0 0.02 0.54 0 0.04 0.54 0 0.06 0.54 0 0.08 0.54 0 0.1 0.54 0 0 0.545 0 0.02 0.545 0 0.04 0.545 0 0.06 0.545 0 0.08 0.545 0 0.1 0.545 0 0 0.55 0 0.02 0.55 0 0.04 0.55 0 0.06 0.55 0 0.08 0.55 0 0.1 0.55 0 0 0.555 0 0.02 0.555 0 0.04 0.555 0 0.06 0.555 0 0.08 0.555 0 0.1 0.555 0 0 0.56 0 0.02 0.56 0 0.04 0.56 0 0.06 0.56 0 0.08 0.56 0 0.1 0.56 0 0 0.565 0 0.02 0.565 0 0.04 0.565 0 0.06 0.565 0 0.08 0.565 0 0.1 0.565 0 0 0.57 0 0.02 0.57 0 0.04 0.57 0 0.06 0.57 0 0.08 0.57 0 0.1 0.57 0 0 0.575 0 0.02 0.575 0 0.04 0.575 0 0.06 0.575 0 0.08 0.575 0 0.1 0.575 0 0 0.58 0 0.02 0.58 0 0.04 0.58 0 0.06 0.58 0 0.08 0.58 0 0.1 0.58 0 0 0.585 0 0.02 0.585 0 0.04 0.585 0 0.06 0.585 0 0.08 0.585 0 0.1 0.585 0 0 0.59 0 0.02 0.59 0 0.04 0.59 0 0.06 0.59 0 0.08 0.59 0 0.1 0.59 0 0 0.595 0 0.02 0.595 0 0.04 0.595 0 0.06 0.595 0 0.08 0.595 0 0.1 0.595 0 0 0.6 0 0.02 0.6 0 0.04 0.6 0 0.06 0.6 0 0.08 0.6 0 0.1 0.6 0 0 0.605 0 0.02 0.605 0 0.04 0.605 0 0.06 0.605 0 0.08 0.605 0 0.1 0.605 0 0 0.61 0 0.02 0.61 0 0.04 0.61 0 0.06 0.61 0 0.08 0.61 0 0.1 0.61 0 0 0.615 0 0.02 0.615 0 0.04 0.615 0 0.06 0.615 0 0.08 0.615 0 0.1 0.615 0 0 0.62 0 0.02 0.62 0 0.04 0.62 0 0.06 0.62 0 0.08 0.62 0 0.1 0.62 0 0 0.625 0 0.02 0.625 0 0.04 0.625 0 0.06 0.625 0 0.08 0.625 0 0.1 0.625 0 0 0.63 0 0.02 0.63 0 0.04 0.63 0 0.06 0.63 0 0.08 0.63 0 0.1 0.63 0 0 0.635 0 0.02 0.635 0 0.04 0.635 0 0.06 0.635 0 0.08 0.635 0 0.1 0.635 0 0 0.64 0 0.02 0.64 0 0.04 0.64 0 0.06 0.64 0 0.08 0.64 0 0.1 0.64 0 0 0.645 0 0.02 0.645 0 0.04 0.645 0 0.06 0.645 0 0.08 0.645 0 0.1 0.645 0 0 0.65 0 0.02 0.65 0 0.04 0.65 0 0.06 0.65 0 0.08 0.65 0 0.1 0.65 0 0 0.655 0 0.02 0.655 0 0.04 0.655 0 0.06 0.655 0 0.08 0.655 0 0.1 0.655 0 0 0.66 0 0.02 0.66 0 0.04 0.66 0 0.06 0.66 0 0.08 0.66 0 0.1 0.66 0 0 0.665 0 0.02 0.665 0 0.04 0.665 0 0.06 0.665 0 0.08 0.665 0 0.1 0.665 0 0 0.67 0 0.02 0.67 0 0.04 0.67 0 0.06 0.67 0 0.08 0.67 0 0.1 0.67 0 0 0.675 0 0.02 0.675 0 0.04 0.675 0 0.06 0.675 0 0.08 0.675 0 0.1 0.675 0 0 0.68 0 0.02 0.68 0 0.04 0.68 0 0.06 0.68 0 0.08 0.68 0 0.1 0.68 0 0 0.685 0 0.02 0.685 0 0.04 0.685 0 0.06 0.685 0 0.08 0.685 0 0.1 0.685 0 0 0.69 0 0.02 0.69 0 0.04 0.69 0 0.06 0.69 0 0.08 0.69 0 0.1 
[...]
			<PointData Scalars="VitesseX">
				<DataArray Name="VitesseX" type="Float32" format="ascii">
 0 -2.74899e-14 1.38377e-14 -1.09922e-14 -1.0385e-15 0 0 -2.40204e-14 4.49767e-15 -4.6516e-15 -2.55032e-15 0 0 -1.48006e-14 -2.39175e-14 2.5334e-14 -1.9553e-14 0 0 -4.81226e-14 1.60898e-14 -4.13158e-15 -8.25751e-15 0 0 -3.35986e-14 -5.44939e-16 2.59504e-15 -1.2738e-14 0 0 2.53427e-14 -7.4818e-14 4.4222e-14 -2.27742e-14 0 0 -7.48389e-15 -1.24518e-14 -4.32368e-14 5.12233e-14 0 0 -5.80788e-14 6.47144e-14 -1.22672e-13 1.15885e-13 0 0 -3.41292e-14 1.54839e-14 -5.49869e-14 8.2757e-14 0 0 -8.68552e-15 -5.37433e-14 6.07609e-14 -5.57799e-16 0 0 -6.44953e-14 7.20215e-15 4.56739e-14 -8.22643e-15 0 0 -4.7541e-14 -2.28679e-14 8.56397e-14 -3.47034e-14 0 0 -8.93647e-14 6.06714e-14 -1.42099e-14 4.052e-14 0 0 -4.59483e-14 1.94952e-14 1.27458e-14 4.30153e-14 0 0 -1.74264e-15 -3.46731e-14 8.37703e-14 -2.41528e-14 0 0 -8.1001e-14 1.16929e-13 -9.24818e-14 6.7551e-14 0 0 3.82153e-14 -4.0112e-14 5.4058e-17 8.26708e-16 0 0 1.19774e-14 -2.65045e-14 -1.67444e-14 -2.8656e-14 0 0 -3.90778e-15 -5.11535e-14 -2.59832e-15 -2.67914e-14 0 0 7.62273e-15 -7.44048e-14 -2.51589e-14 1.82539e-14 0 0 -1.25953e-13 1.39421e-13 -2.36475e-13 1.61141e-13 0 0 -1.28006e-13 1.37225e-13 -1.93521e-13 1.33723e-13 0 0 8.1021e-15 -8.06961e-14 5.89971e-14 -3.33879e-14 0 0 5.91257e-14 -1.78791e-13 1.76512e-13 -1.08513e-13 0 0 -1.23972e-13 6.79116e-14 -5.13143e-14 1.84714e-14 0 0 -2.63696e-13 2.46802e-13 -2.37498e-13 1.13889e-13 0 0 -9.45375e-14 -1.55902e-14 -4.85758e-14 -7.30247e-15 0 0 2.68488e-14 -1.78152e-13 9.41971e-14 -1.60371e-13 0 0 -8.76941e-14 1.45188e-14 -4.37891e-14 -1.62592e-13 0 0 -1.86465e-13 1.62878e-13 -2.11604e-13 -2.14258e-14 0 0 -8.9594e-14 -2.64566e-14 -5.94658e-14 -3.28719e-14 0 0 -1.24739e-13 -2.26016e-14 -2.65065e-15 -4.57672e-14 0 0 -1.49483e-13 2.98689e-14 -6.88646e-15 3.92472e-15 0 0 8.854e-14 -2.65002e-13 2.6949e-13 -8.51733e-14 0 0 -9.77202e-14 6.06034e-14 -2.15291e-14 1.19978e-13 0 0 -2.36717e-13 2.40754e-13 -1.22223e-13 1.13866e-13 0 0 -1.92943e-13 1.57561e-13 -3.84287e-15 -3.59546e-14 0 0 -1.55288e-14 -1.11881e-13 2.36014e-13 -1.86938e-13 0 0 -2.67155e-14 -1.33646e-13 2.87386e-13 -2.44645e-13 0 0 -1.98422e-13 1.07567e-13 7.67206e-14 -1.42085e-13 0 0 -1.44935e-13 5.75014e-14 4.67572e-14 -4.0036e-14 0 0 -8.57054e-14 1.63734e-14 -4.69856e-14 1.11139e-13 0 0 4.10513e-14 -1.84288e-13 7.6472e-14 5.1924e-14 0 0 -1.58015e-13 5.4379e-14 -1.39377e-13 1.23897e-13 0 0 -3.75227e-13 2.58245e-13 -2.47684e-13 8.02437e-14 0 0 -2.0605e-13 -1.1772e-13 2.37372e-13 -2.94077e-13 0 0 -2.17339e-13 -1.25939e-13 3.25503e-13 -4.13709e-13 0 0 -1.80945e-13 -1.53756e-13 3.75233e-13 -4.51053e-13 0 0 -1.15974e-13 -1.44224e-13 2.63287e-13 -3.14778e-13 0 0 -2.88501e-13 2.5658e-13 -2.45897e-13 3.71712e-14 0 0 -4.15756e-13 4.64207e-13 -4.18526e-13 5.0636e-14 0 0 -4.61473e-13 4.94413e-13 -3.69563e-13 -1.22422e-13 0 0 1.18603e-13 -4.10261e-13 5.25625e-13 -6.98286e-13 0 0 -4.32922e-15 -1.76473e-13 2.92435e-13 -5.94413e-13 0 0 -4.21082e-13 5.25822e-13 -3.91118e-13 -2.44261e-13 0 0 -1.7988e-13 1.39653e-13 1.79725e-15 -4.62476e-13 0 0 -3.96416e-13 4.13502e-13 -2.95408e-13 -1.30474e-13 0 0 -2.49908e-13 3.52411e-14 4.67445e-14 -1.61465e-13 0 0 -3.26573e-13 4.22529e-14 9.51201e-14 -1.91311e-13 0 0 -5.46029e-13 4.30289e-13 -2.79165e-13 -9.66877e-14 0 0 -1.9056e-13 3.24612e-14 3.4534e-14 -3.91627e-13 0 0 -8.93449e-15 -5.38709e-14 -3.38849e-14 -3.45356e-13 0 0 -3.52612e-14 6.97253e-15 -2.24349e-13 -1.4599e-13 0 0 -2.83639e-13 3.15755e-13 -5.51053e-13 1.3945e-13 0 0 -2.07129e-13 2.06477e-13 -4.69438e-13 1.42625e-13 0 0 5.24944e-14 -1.31285e-13 -1.46616e-13 -5.92057e-14 0 0 1.49528e-14 -9.36529e-14 -5.90257e-14 -1.47099e-13 0 0 -7.30005e-14 -9.47424e-14 7.55826e-14 -1.99142e-13 0 0 -4.77588e-13 3.75612e-13 -2.29612e-13 1.14704e-14 0 0 -4.56966e-13 2.79941e-13 -6.28097e-14 -2.89048e-14 0 0 7.52914e-14 -4.53685e-13 6.13353e-13 -3.76525e-13 0 0 -2.2218e-13 5.60538e-14 1.87626e-13 -1.74057e-13 0 0 -4.76333e-13 4.45059e-13 -1.371e-13 -4.80273e-14 0 0 -5.86261e-13 6.68032e-13 -3.16798e-13 -4.34016e-14 0 0 -2.08048e-13 2.35562e-13 3.30435e-14 -3.02539e-13 0 0 1.35097e-13 -2.57412e-13 4.75195e-13 -5.92296e-13 0 0 -4.83489e-13 5.19143e-13 -1.91847e-13 -1.23469e-13 0 0 -4.99803e-13 4.20827e-13 -2.51144e-13 1.38498e-13 0 0 -3.52752e-13 2.77546e-13 -4.39057e-13 4.15587e-13 0 0 -2.39719e-14 -1.98573e-13 9.38473e-15 9.16461e-14 0 0 -3.40653e-13 1.01075e-13 1.11455e-13 -2.71645e-13 0 0 -6.5421e-13 5.29863e-13 -1.81733e-13 -2.69344e-13 0 0 3.32302e-13 -8.33774e-13 7.627e-13 -6.09281e-13 0 0 -1.0893e-13 -2.05434e-13 6.9893e-14 -1.55578e-13 0 0 -1.09119e-12 1.0876e-12 -1.12684e-12 4.88751e-13 0 0 3.23926e-14 -3.96341e-13 -1.24709e-13 7.19396e-14 0 0 7.09296e-13 -1.21067e-12 5.0817e-13 -2.55798e-13 0 0 -1.72274e-13 -4.00643e-14 -3.52163e-13 1.59551e-13 0 0 -4.45528e-13 2.17977e-13 -4.70876e-13 2.27754e-13 0 0 -7.73079e-13 3.14992e-13 -7.11744e-13 5.60012e-13 0 0 -1.55245e-13 -8.24477e-13 8.23613e-14 2.48778e-13 0 0 4.5975e-13 -1.48474e-12 6.89152e-13 -4.82047e-14 0 0 -4.78502e-13 2.77229e-14 -4.7448e-13 4.02055e-13 0 0 -7.54333e-13 6.72427e-13 -4.89177e-13 5.20082e-14 0 0 -6.60658e-13 6.93595e-13 -4.11147e-13 -6.74891e-14 0 0 4.1673e-13 -7.91499e-13 5.12755e-13 -4.34959e-13 0 0 4.42268e-13 -9.65587e-13 9.62688e-13 -7.06955e-13 0 0 -3.7138e-13 3.99534e-14 4.31483e-13 -6.51843e-13 0 0 -6.801e-13 4.6688e-13 1.32997e-13 -6.106e-13 0 0 -4.38068e-13 3.79428e-13 -7.0411e-14 -4.67766e-13 0 0 -1.57129e-13 2.79137e-13 -3.19466e-13 -2.87087e-13 0 0 -5.10679e-14 2.90644e-13 -5.37301e-13 -1.56596e-13 0 0 -6.76304e-14 2.99967e-13 -6.31755e-13 -1.12332e-13 0 0 -1.2705e-13 2.35107e-13 -6.11098e-13 -1.25637e-13 0 0 -1.86682e-13 9.85806e-14 -5.2479e-13 -1.70461e-13 0 0 -2.07647e-13 -1.01175e-13 -3.87868e-13 -2.54615e-13 0 0 -2.15259e-13 -2.54561e-13 -3.26503e-13 -2.89474e-13 0 0 -2.50786e-13 -3.11767e-13 -3.71209e-13 -2.28653e-13 0 0 -3.00295e-13 -3.31357e-13 -4.12566e-13 -1.69518e-13 0 0 -3.32063e-13 -3.35348e-13 -3.92328e-13 -1.91162e-13 0 0 -2.68396e-13 -4.31532e-13 -1.82559e-13 -3.31656e-13 0 0 -2.1273e-13 -4.30609e-13 -3.9115e-14 -4.33144e-13 0 0 -3.5834e-13 -7.78034e-14 -3.3071e-13 -2.17187e-13 0 0 -4.70237e-13 2.05384e-13 -6.575e-13 1.31284e-13 0 0 -1.36422e-13 -2.90431e-13 -2.10557e-13 -4.00341e-14 0 0 2.2355e-13 -8.74206e-13 3.96468e-13 -3.90288e-13 0 0 -9.56808e-14 -3.54663e-13 -7.64974e-14 -1.29753e-13 0 0 -5.74372e-13 4.26808e-13 -8.31955e-13 2.79531e-13 0 0 -2.7186e-13 -3.90364e-14 -3.83867e-13 -4.25388e-14 0 0 -1.90118e-13 -1.23926e-13 -2.52669e-13 -2.3193e-13 0 0 -6.05488e-14 -2.2332e-13 -1.0268e-13 -4.0307e-13 0 0 -7.26659e-14 -1.88415e-13 -1.13557e-13 -3.09608e-13 0 0 -6.58541e-13 6.43016e-13 -9.16066e-13 3.58125e-13 0 0 -2.0196e-13 -1.84671e-13 -1.09989e-13 -1.55536e-14 0 0 -2.05017e-13 -2.43888e-13 3.41798e-14 -1.94877e-13 0 0 -4.15996e-14 -3.64695e-13 2.88427e-14 -2.65608e-13 0 0 7.76296e-15 -3.88887e-13 -4.92712e-14 -2.14532e-13 0 0 -7.53137e-13 6.72885e-13 -9.94249e-13 3.73256e-13 0 0 -3.22303e-13 -8.08246e-14 -1.99139e-13 -4.22273e-14 0 0 -2.47823e-13 -2.24873e-13 5.57374e-14 -3.0404e-13 0 0 -1.32354e-13 -2.51166e-13 -1.11446e-13 -2.17415e-13 0 0 -1.49879e-13 -2.67058e-13 -2.46429e-13 -1.1479e-14 0 0 -8.76009e-13 6.59268e-13 -1.08182e-12 6.03695e-13 0 0 -3.26527e-13 -1.65892e-13 -2.38279e-13 -4.25484e-14 0 0 -3.04425e-13 -1.72269e-13 -3.14729e-14 -4.38024e-13 0 0 -1.47237e-13 -2.25211e-13 -8.26945e-14 -4.72247e-13 0 0 -7.86357e-14 -4.01058e-13 -5.09985e-14 -4.71473e-13 0 0 -9.22929e-13 5.49869e-13 -9.6536e-13 2.50674e-13 0 0 -2.27532e-13 -4.66626e-13 -2.58372e-13 1.06804e-13 0 0 -1.23809e-13 -4.87859e-13 -2.66113e-13 1.1354e-13 0 0 -4.00964e-13 -5.28733e-14 -4.97313e-13 1.74841e-15 0 0 2.27368e-13 -1.12922e-12 5.57664e-13 -7.6924e-13 0 0 -8.40538e-13 2.69946e-13 -5.8027e-13 -2.9974e-14 0 0 -1.16961e-12 8.02152e-13 -8.93682e-13 2.4386e-13 0 0 1.84578e-13 -8.27611e-13 6.97545e-13 -7.22666e-13 0 0 -2.10087e-13 -3.73899e-14 1.75779e-13 -4.53634e-13 0 0 -1.88452e-13 -1.46947e-13 1.50929e-13 -2.06176e-13 0 0 -5.54639e-13 2.26718e-13 -5.20486e-13 5.6499e-13 0 0 -9.77964e-13 5.80397e-13 -7.40229e-13 6.79136e-13 0 0 6.19385e-14 -9.73925e-13 9.3467e-13 -4.99467e-13 0 0 -4.58595e-13 -1.16301e-13 3.73192e-13 -3.11595e-13 0 0 -3.70569e-13 -2.80408e-13 3.32219e-13 4.82634e-14 0 0 -6.57249e-13 -1.19137e-15 -2.49249e-13 8.89584e-13 0 0 -8.94006e-13 1.908e-13 -3.45311e-13 8.19496e-13 0 0 -5.13612e-13 -2.60864e-13 1.84709e-13 -5.00142e-14 0 0 -1.49745e-13 -4.18693e-13 1.76659e-15 -3.30793e-13 0 0 7.89414e-14 -6.32006e-13 -2.38669e-13 -2.81513e-13 0 0 -8.04005e-13 3.85453e-13 -1.0658e-12 8.68112e-14 0 0 -6.52865e-13 -1.8265e-13 -2.39635e-13 -4.26734e-13 0 0 -2.87409e-13 -8.06329e-13 4.38783e-13 -9.51716e-13 0 0 4.5058e-14 -9.30578e-13 1.77117e-13 -8.87438e-13 0 0 -3.88208e-13 1.74345e-14 -1.19694e-12 1.78169e-13 0 0 -9.19732e-13 8.44766e-13 -2.04185e-12 7.94437e-13 0 0 -2.31593e-13 -4.21808e-13 -5.51911e-13 -2.87418e-13 0 0 5.72076e-14 -1.16938e-12 4.47563e-13 -1.08305e-12 0 0 -2.17575e-13 -7.28744e-13 -3.31599e-14 -9.28573e-13 0 0 -6.78191e-13 1.21613e-13 -1.06994e-12 -1.1873e-13 0 0 -8.96643e-13 5.31237e-13 -1.89929e-12 1.03198e-12 0 0 -6.45406e-14 -6.41282e-13 -1.11923e-12 9.53176e-13 0 0 -2.56216e-13 -3.80103e-13 -1.03627e-12 3.94118e-13 0 0 -6.08562e-13 3.55904e-14 -9.71994e-13 -3.0942e-13 0 0 -2.26986e-14 -1.07043e-12 3.06179e-13 -1.08702e-12 0 0 -6.87224e-13 -1.96656e-13 -4.8116e-13 -4.98948e-13 0 0 -5.14439e-13 -2.19838e-13 -7.24984e-13 -5.00971e-13 0 0 -4.20261e-13 -9.04067e-14 -1.10146e-12 -4.76074e-13 0 0 -4.58756e-13 -1.74961e-14 -1.10392e-12 -3.90381e-13 0 0 9.02363e-14 -1.2049e-12 4.86912e-13 -1.18123e-12 0 0 -6.94818e-13 -1.84996e-13 -1.99128e-13 -6.75278e-13 0 0 -3.83815e-13 -2.89373e-13 -6.52176e-13 -2.2107e-13 0 0 -3.03234e-13 -2.651e-14 -1.45919e-12 1.97047e-13 0 0 -5.2733e-13 2.44568e-13 -1.49754e-12 -7.55149e-14 0 0 1.41126e-13 -1.17645e-12 3.58573e-13 -1.07698e-12 0 0 -6.26721e-13 -3.43384e-13 -8.12959e-14 -5.39652e-13 0 0 -4.90122e-13 -3.94332e-13 -3.80847e-13 -3.11456e-13 0 0 -3.50868e-13 -3.59578e-13 -8.15878e-13 -1.83608e-13 0 0 -5.60366e-13 -1.43007e-13 -7.94249e-13 -5.78329e-13 0 0 -3.30929e-14 -1.27088e-12 5.12116e-13 -1.40224e-12 0 0 -7.27571e-13 -3.52683e-13 -2.6676e-13 -6.52745e-13 0 0 -5.21148e-13 -2.5705e-13 -4.70718e-13 -4.83968e-13 0 0 -8.85024e-13 2.55677e-13 -7.94333e-13 -4.4761e-13 0 0 -1.17637e-12 2.49513e-13 -6.13763e-13 -5.44567e-13 0 0 2.48952e-13 -2.14704e-12 1.52702e-12 -1.53736e-12 0 0 -1.19674e-12 1.19297e-13 -6.47882e-13 -1.87273e-13 0 0 -1.98119e-12 1.65619e-12 -1.91489e-12 2.22957e-13 0 0 -3.33387e-13 -5.15846e-13 2.56815e-13 -1.36735e-12 0 0 -1.44682e-14 -8.91937e-13 6.3482e-13 -1.77998e-12 0 0 1.88114e-13 -1.32865e-12 8.84608e-13 -1.86059e-12 0 0 -1.16976e-12 8.30305e-13 -1.57871e-12 -3.56104e-14 0 0 -1.21643e-12 1.0032e-12 -1.76029e-12 2.66397e-13 0 0 7.84337e-14 -1.2939e-12 1.05576e-12 -1.5533e-12 0 0 -2.34808e-13 -1.09941e-12 1.37182e-12 -1.8871e-12 0
				</DataArray>
				<DataArray Name="VitesseY" type="Float32" format="ascii">