<?xml version="1.0"?>
<VTKFile type="PolyData">
	<PolyData>
		<Piece NumberOfPoints="1206" NumberOfPolys="1000">
			<Points>
				<DataArray type="Float32" NumberOfComponents="3" format="ascii">
 0 0 0 0.02 0 0 0.04 0 0 0.06 0 0 0.08 0 0 0.1 0 0 0 0.005 0 0.02 0.005 0 0.04 0.005 0 0.06 0.005 0 0.08 0.005 0 0.1 0.005 0 0 0.01 0 0.02 0.01 0 0.04 0.01 0 0.06 0.01 0 0.08 0.01 0 0.1 0.01 0 0 0.015 0 0.02 0.015 0 0.04 0.015 0 0.06 0.015 0 0.08 0.015 0 0.1 0.015 0 0 0.02 0 0.02 0.02 0 0.04 0.02 0 0.06 0.02 0 0.08 0.02 0 0.1 0.02 0 0 0.025 0 0.02 0.025 0 0.04 0.025 0 0.06 0.025 0 0.08 0.025 0 0.1 0.025 0 0 0.03 0 0.02 0.03 0 0.04 0.03 0 0.06 0.03 0 0.08 0.03 0 0.1 0.03 0 0 0.035 0 0.02 0.035 0 0.04 0.035 0 0.06 0.035 0 0.08 0.035 0 0.1 0.035 0 0 0.04 0 0.02 0.04 0 0.04 0.04 0 0.06 0.04 0 0.08 0.04 0 0.1 0.04 0 0 0.045 0 0.02 0.045 0 0.04 0.045 0 0.06 0.045 0 0.08 0.045 0 0.1 0.045 0 0 0.05 0 0.02 0.05 0 0.04 0.05 0 0.06 0.05 0 0.08 0.05 0 0.1 0.05 0 0 0.055 0 0.02 0.055 0 0.04 0.055 0 0.06 0.055 0 0.08 0.055 0 0.1 0.055 0 0 0.06 0 0.02 0.06 0 0.04 0.06 0 0.06 0.06 0 0.08 0.06 0 0.1 0.06 0 0 0.065 0 0.02 0.065 0 0.04 0.065 0 0.06 0.065 0 0.08 0.065 0 0.1 0.065 0 0 0.07 0 0.02 0.07 0 0.04 0.07 0 0.06 0.07 0 0.08 0.07 0 0.1 0.07 0 0 0.075 0 0.02 0.075 0 0.04 0.075 0 0.06 0.075 0 0.08 0.075 0 0.1 0.075 0 0 0.08 0 0.02 0.08 0 0.04 0.08 0 0.06 0.08 0 0.08 0.08 0 0.1 0.08 0 0 0.085 0 0.02 0.085 0 0.04 0.085 0 0.06 0.085 0 0.08 0.085 0 0.1 0.085 0 0 0.09 0 0.02 0.09 0 0.04 0.09 0 0.06 0.09 0 0.08 0.09 0 0.1 0.09 0 0 0.095 0 0.02 0.095 0 0.04 0.095 0 0.06 0.095 0 0.08 0.095 0 0.1 0.095 0 0 0.1 0 0.02 0.1 0 0.04 0.1 0 0.06 0.1 0 0.08 0.1 0 0.1 0.1 0 0 0.105 0 0.02 0.105 0 0.04 0.105 0 0.06 0.105 0 0.08 0.105 0 0.1 0.105 0 0 0.11 0 0.02 0.11 0 0.04 0.11 0 0.06 0.11 0 0.08 0.11 0 0.1 0.11 0 0 0.115 0 0.02 0.115 0 0.04 0.115 0 0.06 0.115 0 0.08 0.115 0 0.1 0.115 0 0 0.12 0 0.02 0.12 0 0.04 0.12 0 0.06 0.12 0 0.08 0.12 0 0.1 0.12 0 0 0.125 0 0.02 0.125 0 0.04 0.125 0 0.06 0.125 0 0.08 0.125 0 0.1 0.125 0 0 0.13 0 0.02 0.13 0 0.04 0.13 0 0.06 0.13 0 0.08 0.13 0 0.1 0.13 0 0 0.135 0 0.02 0.135 0 0.04 0.135 0 0.06 0.135 0 0.08 0.135 0 0.1 0.135 0 0 0.14 0 0.02 0.14 0 0.04 0.14 0 0.06 0.14 0 0.08 0.14 0 0.1 0.14 0 0 0.145 0 0.02 0.145 0 0.04 0.145 0 0.06 0.145 0 0.08 0.145 0 0.1 0.145 0 0 0.15 0 0.02 0.15 0 0.04 0.15 0 0.06 0.15 0 0.08 0.15 0 0.1 0.15 0 0 0.155 0 0.02 0.155 0 0.04 0.155 0 0.06 0.155 0 0.08 0.155 0 0.1 0.155 0 0 0.16 0 0.02 0.16 0 0.04 0.16 0 0.06 0.16 0 0.08 0.16 0 0.1 0.16 0 0 0.165 0 0.02 0.165 0 0.04 0.165 0 0.06 0.165 0 0.08 0.165 0 0.1 0.165 0 0 0.17 0 0.02 0.17 0 0.04 0.17 0 0.06 0.17 0 0.08 0.17 0 0.1 0.17 0 0 0.175 0 0.02 0.175 0 0.04 0.175 0 0.06 0.175 0 0.08 0.175 0 0.1 0.175 0 0 0.18 0 0.02 0.18 0 0.04 0.18 0 0.06 0.18 0 0.08 0.18 0 0.1 0.18 0 0 0.185 0 0.02 0.185 0 0.04 0.185 0 0.06 0.185 0 0.08 0.185 0 0.1 0.185 0 0 0.19 0 0.02 0.19 0 0.04 0.19 0 0.06 0.19 0 0.08 0.19 0 0.1 0.19 0 0 0.195 0 0.02 0.195 0 0.04 0.195 0 0.06 0.195 0 0.08 0.195 0 0.1 0.195 0 0 0.2 0 0.02 0.2 0 0.04 0.2 0 0.06 0.2 0 0.08 0.2 0 0.1 0.2 0 0 0.205 0 0.02 0.205 0 0.04 0.205 0 0.06 0.205 0 0.08 0.205 0 0.1 0.205 0 0 0.21 0 0.02 0.21 0 0.04 0.21 0 0.06 0.21 0 0.08 0.21 0 0.1 0.21 0 0 0.215 0 0.02 0.215 0 0.04 0.215 0 0.06 0.215 0 0.08 0.215 0 0.1 0.215 0 0 0.22 0 0.02 0.22 0 0.04 0.22 0 0.06 0.22 0 0.08 0.22 0 0.1 0.22 0 0 0.225 0 0.02 0.225 0 0.04 0.225 0 0.06 0.225 0 0.08 0.225 0 0.1 0.225 0 0 0.23 0 0.02 0.23 0 0.04 0.23 0 0.06 0.23 0 0.08 0.23 0 0.1 0.23 0 0 0.235 0 0.02 0.235 0 0.04 0.235 0 0.06 0.235 0 0.08 0.235 0 0.1 0.235 0 0 0.24 0 0.02 0.24 0 0.04 0.24 0 0.06 0.24 0 0.08 0.24 0 0.1 0.24 0 0 0.245 0 0.02 0.245 0 0.04 0.245 0 0.06 0.245 0 0.08 0.245 0 0.1 0.245 0 0 0.25 0 0.02 0.25 0 0.04 0.25 0 0.06 0.25 0 0.08 0.25 0 0.1 0.25 0 0 0.255 0 0.02 0.255 0 0.04 0.255 0 0.06 0.255 0 0.08 0.255 0 0.1 0.255 0 0 0.26 0 0.02 0.26 0 0.04 0.26 0 0.06 0.26 0 0.08 0.26 0 0.1 0.26 0 0 0.265 0 0.02 0.265 0 0.04 0.265 0 0.06 0.265 0 0.08 0.265 0 0.1 0.265 0 0 0.27 0 0.02 0.27 0 0.04 0.27 0 0.06 0.27 0 0.08 0.27 0 0.1 0.27 0 0 0.275 0 0.02 0.275 0 0.04 0.275 0 0.06 0.275 0 0.08 0.275 0 0.1 0.275 0 0 0.28 0 0.02 0.28 0 0.04 0.28 0 0.06 0.28 0 0.08 0.28 0 0.1 0.28 0 0 0.285 0 0.02 0.285 0 0.04 0.285 0 0.06 0.285 0 0.08 0.285 0 0.1 0.285 0 0 0.29 0 0.02 0.29 0 0.04 0.29 0 0.06 0.29 0 0.08 0.29 0 0.1 0.29 0 0 0.295 0 0.02 0.295 0 0.04 0.295 0 0.06 0.295 0 0.08 0.295 0 0.1 0.295 0 0 0.3 0 0.02 0.3 0 0.04 0.3 0 0.06 0.3 0 0.08 0.3 0 0.1 0.3 0 0 0.305 0 0.02 0.305 0 0.04 0.305 0 0.06 0.305 0 0.08 0.305 0 0.1 0.305 0 0 0.31 0 0.02 0.31 0 0.04 0.31 0 0.06 0.31 0 0.08 0.31 0 0.1 0.31 0 0 0.315 0 0.02 0.315 0 0.04 0.315 0 0.06 0.315 0 0.08 0.315 0 0.1 0.315 0 0 0.32 0 0.02 0.32 0 0.04 0.32 0 0.06 0.32 0 0.08 0.32 0 0.1 0.32 0 0 0.325 0 0.02 0.325 0 0.04 0.325 0 0.06 0.325 0 0.08 0.325 0 0.1 0.325 0 0 0.33 0 0.02 0.33 0 0.04 0.33 0 0.06 0.33 0 0.08 0.33 0 0.1 0.33 0 0 0.335 0 0.02 0.335 0 0.04 0.335 0 0.06 0.335 0 0.08 0.335 0 0.1 0.335 0 0 0.34 0 0.02 0.34 0 0.04 0.34 0 0.06 0.34 0 0.08 0.34 0 0.1 0.34 0 0 0.345 0 0.02 0.345 0 0.04 0.345 0 0.06 0.345 0 0.08 0.345 0 0.1 0.345 0 0 0.35 0 0.02 0.35 0 0.04 0.35 0 0.06 0.35 0 0.08 0.35 0 0.1 0.35 0 0 0.355 0 0.02 0.355 0 0.04 0.355 0 0.06 0.355 0 0.08 0.355 0 0.1 0.355 0 0 0.36 0 0.02 0.36 0 0.04 0.36 0 0.06 0.36 0 0.08 0.36 0 0.1 0.36 0 0 0.365 0 0.02 0.365 0 0.04 0.365 0 0.06 0.365 0 0.08 0.365 0 0.1 0.365 0 0 0.37 0 0.02 0.37 0 0.04 0.37 0 0.06 0.37 0 0.08 0.37 0 0.1 0.37 0 0 0.375 0 0.02 0.375 0 0.04 0.375 0 0.06 0.375 0 0.08 0.375 0 0.1 0.375 0 0 0.38 0 0.02 0.38 0 0.04 0.38 0 0.06 0.38 0 0.08 0.38 0 0.1 0.38 0 0 0.385 0 0.02 0.385 0 0.04 0.385 0 0.06 0.385 0 0.08 0.385 0 0.1 0.385 0 0 0.39 0 0.02 0.39 0 0.04 0.39 0 0.06 0.39 0 0.08 0.39 0 0.1 0.39 0 0 0.395 0 0.02 0.395 0 0.04 0.395 0 0.06 0.395 0 0.08 0.395 0 0.1 0.395 0 0 0.4 0 0.02 0.4 0 0.04 0.4 0 0.06 0.4 0 0.08 0.4 0 0.1 0.4 0 0 0.405 0 0.02 0.405 0 0.04 0.405 0 0.06 0.405 0 0.08 0.405 0 0.1 0.405 0 0 0.41 0 0.02 0.41 0 0.04 0.41 0 0.06 0.41 0 0.08 0.41 0 0.1 0.41 0 0 0.415 0 0.02 0.415 0 0.04 0.415 0 0.06 0.415 0 0.08 0.415 0 0.1 0.415 0 0 0.42 0 0.02 0.42 0 0.04 0.42 0 0.06 0.42 0 0.08 0.42 0 0.1 0.42 0 0 0.425 0 0.02 0.425 0 0.04 0.425 0 0.06 0.425 0 0.08 0.425 0 0.1 0.425 0 0 0.43 0 0.02 0.43 0 0.04 0.43 0 0.06 0.43 0 0.08 0.43 0 0.1 0.43 0 0 0.435 0 0.02 0.435 0 0.04 0.435 0 0.06 0.435 0 0.08 0.435 0 0.1 0.435 0 0 0.44 0 0.02 0.44 0 0.04 0.44 0 0.06 0.44 0 0.08 0.44 0 0.1 0.44 0 0 0.445 0 0.02 0.445 0 0.04 0.445 0 0.06 0.445 0 0.08 0.445 0 0.1 0.445 0 0 0.45 0 0.02 0.45 0 0.04 0.45 0 0.06 0.45 0 0.08 0.45 0 0.1 0.45 0 0 0.455 0 0.02 0.455 0 0.04 0.455 0 0.06 0.455 0 0.08 0.455 0 0.1 0.455 0 0 0.46 0 0.02 0.46 0 0.04 0.46 0 0.06 0.46 0 0.08 0.46 0 0.1 0.46 0 0 0.465 0 0.02 0.465 0 0.04 0.465 0 0.06 0.465 0 0.08 0.465 0 0.1 0.465 0 0 0.47 0 0.02 0.47 0 0.04 0.47 0 0.06 0.47 0 0.08 0.47 0 0.1 0.47 0 0 0.475 0 0.02 0.475 0 0.04 0.475 0 0.06 0.475 0 0.08 0.475 0 0.1 0.475 0 0 0.48 0 0.02 0.48 0 0.04 0.48 0 0.06 0.48 0 0.08 0.48 0 0.1 0.48 0 0 0.485 0 0.02 0.485 0 0.04 0.485 0 0.06 0.485 0 0.08 0.485 0 0.1 0.485 0 0 0.49 0 0.02 0.49 0 0.04 0.49 0 0.06 0.49 0 0.08 0.49 0 0.1 0.49 0 0 0.495 0 0.02 0.495 0 0.04 0.495 0 0.06 0.495 0 0.08 0.495 0 0.1 0.495 0 0 0.5 0 0.02 0.5 0 0.04 0.5 0 0.06 0.5 0 0.08 0.5 0 0.1 0.5 0 0 0.505 0 0.02 0.505 0 0.04 0.505 0 0.06 0.505 0 0.08 0.505 0 0.1 0.505 0 0 0.51 0 0.02 0.51 0 0.04 0.51 0 0.06 0.51 0 0.08 0.51 0 0.1 0.51 0 0 0.515 0 0.02 0.515 0 0.04 0.515 0 0.06 0.515 0 0.08 0.515 0 0.1 0.515 0 0 0.52 0 0.02 0.52 0 0.04 0.52 0 0.06 0.52 0 0.08 0.52 0 0.1 0.52 0 0 0.525 0 0.02 0.525 0 0.04 0.525 0 0.06 0.525 0 0.08 0.525 0 0.1 0.525 0 0 0.53 0 0.02 0.53 0 0.04 0.53 0 0.06 0.53 0 0.08 0.53 0 0.1 0.53 0 0 0.535 0 0.02 0.535 0 0.04 0.535 0 0.06 0.535 0 0.08 0.535 0 0.1 0.535 0 0 0.54 0 0.02 0.54 0 0.04 0.54 0 0.06 0.54 0 0.08 0.54 0 0.1 0.54 0 0 0.545 0 0.02 0.545 0 0.04 0.545 0 0.06 0.545 0 0.08 0.545 0 0.1 0.545 0 0 0.55 0 0.02 0.55 0 0.04 0.55 0 0.06 0.55 0 0.08 0.55 0 0.1 0.55 0 0 0.555 0 0.02 0.555 0 0.04 0.555 0 0.06 0.555 0 0.08 0.555 0 0.1 0.555 0 0 0.56 0 0.02 0.56 0 0.04 0.56 0 0.06 0.56 0 0.08 0.56 0 0.1 0.56 0 0 0.565 0 0.02 0.565 0 0.04 0.565 0 0.06 0.565 0 0.08 0.565 0 0.1 0.565 0 0 0.57 0 0.02 0.57 0 0.04 0.57 0 0.06 0.57 0 0.08 0.57 0 0.1 0.57 0 0 0.575 0 0.02 0.575 0 0.04 0.575 0 0.06 0.575 0 0.08 0.575 0 0.1 0.575 0 0 0.58 0 0.02 0.58 0 0.04 0.58 0 0.06 0.58 0 0.08 0.58 0 0.1 0.58 0 0 0.585 0 0.02 0.585 0 0.04 0.585 0 0.06 0.585 0 0.08 0.585 0 0.1 0.585 0 0 0.59 0 0.02 0.59 0 0.04 0.59 0 0.06 0.59 0 0.08 0.59 0 0.1 0.59 0 0 0.595 0 0.02 0.595 0 0.04 0.595 0 0.06 0.595 0 0.08 0.595 0 0.1 0.595 0 0 0.6 0 0.02 0.6 0 0.04 0.6 0 0.06 0.6 0 0.08 0.6 0 0.1 0.6 0 0 0.605 0 0.02 0.605 0 0.04 0.605 0 0.06 0.605 0 0.08 0.605 0 0.1 0.605 0 0 0.61 0 0.02 0.61 0 0.04 0.61 0 0.06 0.61 0 0.08 0.61 0 0.1 0.61 0 0 0.615 0 0.02 0.615 0 0.04 0.615 0 0.06 0.615 0 0.08 0.615 0 0.1 0.615 0 0 0.62 0 0.02 0.62 0 0.04 0.62 0 0.06 0.62 0 0.08 0.62 0 0.1 0.62 0 0 0.625 0 0.02 0.625 0 0.04 0.625 0 0.06 0.625 0 0.08 0.625 0 0.1 0.625 0 0 0.63 0 0.02 0.63 0 0.04 0.63 0 0.06 0.63 0 0.08 0.63 0 0.1 0.63 0 0 0.635 0 0.02 0.635 0 0.04 0.635 0 0.06 0.635 0 0.08 0.635 0 0.1 0.635 0 0 0.64 0 0.02 0.64 0 0.04 0.64 0 0.06 0.64 0 0.08 0.64 0 0.1 0.64 0 0 0.645 0 0.02 0.645 0 0.04 0.645 0 0.06 0.645 0 0.08 0.645 0 0.1 0.645 0 0 0.65 0 0.02 0.65 0 0.04 0.65 0 0.06 0.65 0 0.08 0.65 0 0.1 0.65 0 0 0.655 0 0.02 0.655 0 0.04 0.655 0 0.06 0.655 0 0.08 0.655 0 0.1 0.655 0 0 0.66 0 0.02 0.66 0 0.04 0.66 0 0.06 0.66 0 0.08 0.66 0 0.1 0.66 0 0 0.665 0 0.02 0.665 0 0.04 0.665 0 0.06 0.665 0 0.08 0.665 0 0.1 0.665 0 0 0.67 0 0.02 0.67 0 0.04 0.67 0 0.06 0.67 0 0.08 0.67 0 0.1 0.67 0 0 0.675 0 0.02 0.675 0 0.04 0.675 0 0.06 0.675 0 0.08 0.675 0 0.1 0.675 0 0 0.68 0 0.02 0.68 0 0.04 0.68 0 0.06 0.68 0 0.08 0.68 0 0.1 0.68 0 0 0.685 0 0.02 0.685 0 0.04 0.685 0 0.06 0.685 0 0.08 0.685 0 0.1 0.685 0 0 0.69 0 0.02 0.69 0 0.04 0.69 0 0.06 0.69 0 0.08 0.69 0 0.1 
[...]
			<PointData Scalars="VitesseX">
				<DataArray Name="VitesseX" type="Float32" format="ascii">
 0 -2.02553e-14 -3.70201e-15 1.3593e-14 1.83838e-14 0 0 -1.48047e-14 -1.09273e-14 1.70484e-14 1.74977e-14 0 0 -8.54538e-15 -1.54651e-14 1.65196e-14 1.7694e-14 0 0 -5.63392e-15 -1.43217e-14 1.47441e-14 1.45451e-14 0 0 -3.99286e-15 -1.34212e-14 1.54096e-14 1.23062e-14 0 0 -6.5015e-16 -1.18017e-14 1.60273e-14 1.14518e-14 0 0 -7.37697e-15 6.43681e-15 3.24918e-15 2.02696e-14 0 0 -8.78518e-15 1.46593e-14 4.16346e-15 2.10822e-14 0 0 -1.46019e-15 1.42545e-14 2.31188e-15 2.6439e-14 0 0 8.45606e-15 1.22487e-14 1.34705e-15 2.96791e-14 0 0 7.79207e-15 1.95073e-14 3.5294e-15 2.23715e-14 0 0 2.7034e-15 2.41128e-14 1.83208e-14 -7.06096e-15 0 0 1.75453e-15 2.08187e-14 3.26932e-14 -3.33418e-14 0 0 -1.74404e-14 2.89717e-14 2.2851e-14 -2.33748e-14 0 0 -2.22245e-14 1.83586e-14 1.62002e-14 -7.70488e-15 0 0 -6.65105e-15 -7.43197e-15 1.46629e-14 -1.00843e-14 0 0 6.25099e-15 -4.66613e-14 5.54562e-14 -6.73252e-14 0 0 1.26349e-14 -7.16561e-14 7.15377e-14 -8.53686e-14 0 0 -1.90815e-14 -2.06032e-14 -3.09907e-15 -1.83349e-14 0 0 -1.47711e-14 -2.2505e-14 -1.48948e-14 -5.43718e-15 0 0 1.4559e-16 -4.54131e-14 6.00844e-16 -2.22832e-14 0 0 -3.98272e-14 1.23786e-14 -6.26571e-14 1.85644e-14 0 0 -1.73069e-14 -3.4914e-14 -1.26152e-14 -4.97291e-15 0 0 1.21274e-14 -8.83975e-14 6.26801e-14 -5.753e-14 0 0 -2.48489e-14 -1.15104e-14 -3.41194e-14 1.36208e-14 0 0 -4.41047e-14 2.34002e-14 -6.53733e-14 4.41017e-14 0 0 -1.39338e-14 -1.85081e-14 5.57343e-15 -5.71623e-15 0 0 1.99892e-14 -4.57233e-14 2.80691e-14 -2.6492e-14 0 0 -3.05812e-15 1.64004e-14 -3.93127e-14 1.65062e-14 0 0 8.27553e-15 1.20578e-14 -2.63919e-14 2.6448e-14 0 0 5.28713e-14 -6.66239e-14 7.09572e-14 -1.38442e-14 0 0 2.29351e-14 -3.33087e-14 3.03983e-14 3.77297e-14 0 0 4.66831e-15 -2.9296e-14 2.30092e-14 7.06266e-14 0 0 -1.9605e-14 -2.18594e-14 3.83854e-14 7.89044e-14 0 0 -5.82233e-14 4.30313e-14 -2.81381e-14 1.37686e-13 0 0 -4.42737e-14 4.12581e-14 -5.05744e-14 1.83105e-13 0 0 -5.38294e-15 -6.47733e-15 -1.02156e-14 1.4208e-13 0 0 -2.09246e-15 -2.51645e-14 4.01105e-14 6.61084e-14 0 0 -1.19052e-14 -1.58693e-14 7.25552e-14 3.50899e-16 0 0 1.26817e-14 -2.20757e-14 8.30946e-14 -5.35836e-14 0 0 4.95785e-15 2.45201e-15 7.34267e-14 -8.16653e-14 0 0 3.07593e-14 -3.98123e-15 6.38215e-14 -8.25812e-14 0 0 1.05224e-13 -4.10952e-14 -7.91137e-15 4.50142e-15 0 0 1.02559e-13 -3.28348e-14 -5.96264e-14 8.07925e-14 0 0 5.7832e-14 2.64369e-14 -1.12111e-13 1.49331e-13 0 0 7.86775e-14 3.25243e-14 -1.30101e-13 1.73796e-13 0 0 5.08564e-14 6.59542e-14 -1.29229e-13 1.89958e-13 0 0 2.69089e-14 6.27037e-14 -1.06024e-13 2.20005e-13 0 0 5.4373e-14 6.93341e-15 -2.87413e-14 1.70176e-13 0 0 1.06191e-13 -4.62467e-14 5.53834e-14 6.23992e-14 0 0 1.56976e-13 -7.83006e-14 8.27794e-14 2.61994e-15 0 0 1.73122e-13 -6.69772e-14 6.33439e-14 -3.94565e-14 0 0 1.22067e-13 -1.46172e-14 3.43265e-15 -3.03606e-14 0 0 2.17561e-13 -1.53246e-13 6.62482e-14 -9.4536e-15 0 0 2.39936e-13 -1.07017e-13 -8.11576e-16 6.07792e-14 0 0 5.60475e-14 1.78972e-13 -1.74598e-13 1.27835e-13 0 0 1.83403e-13 -9.00922e-14 1.51936e-13 -4.98033e-14 0 0 1.73261e-13 -6.06626e-14 1.14009e-13 5.58392e-14 0 0 9.61332e-14 1.13098e-13 -4.72647e-14 1.95919e-13 0 0 8.8929e-14 9.48162e-14 2.62969e-14 1.36073e-13 0 0 5.08435e-14 8.39237e-14 1.01115e-13 4.59975e-14 0 0 8.70261e-14 1.696e-14 2.08086e-13 -8.25415e-14 0 0 7.368e-14 1.18382e-13 3.668e-14 3.5732e-14 0 0 1.58836e-13 4.48861e-14 6.7922e-14 6.56469e-14 0 0 2.24322e-13 -1.26608e-13 3.10182e-13 -7.82609e-14 0 0 1.64325e-13 -6.99542e-14 2.04457e-13 -1.59998e-15 0 0 1.69406e-13 -3.51653e-14 7.27447e-14 5.31191e-14 0 0 9.20645e-14 1.34438e-13 -1.42534e-13 1.39962e-13 0 0 1.31702e-13 2.39998e-13 -3.28118e-13 1.83366e-13 0 0 4.23112e-13 -3.45149e-14 -1.77193e-13 1.09326e-13 0 0 4.69259e-13 -1.69631e-13 -2.36357e-15 9.05154e-14 0 0 2.81941e-13 -1.10296e-13 1.12286e-13 2.24628e-14 0 0 7.17071e-15 2.50177e-13 -2.14144e-13 2.22042e-13 0 0 6.34839e-14 3.49197e-13 -4.42214e-13 3.44772e-13 0 0 3.82657e-13 6.03992e-14 -2.39304e-13 1.52816e-13 0 0 4.98572e-13 -7.94133e-14 -9.39607e-14 2.72479e-14 0 0 4.90822e-13 -1.42985e-13 -2.41714e-14 1.24717e-14 0 0 3.28856e-13 4.66489e-14 -2.32633e-13 1.81858e-13 0 0 2.4688e-13 1.39024e-13 -3.92308e-13 3.01903e-13 0 0 3.03951e-13 -3.12803e-15 -3.11687e-13 2.46439e-13 0 0 3.17133e-13 -1.29826e-13 -1.98815e-13 1.63685e-13 0 0 2.06402e-13 -1.07452e-13 -1.91068e-13 1.39341e-13 0 0 3.99613e-14 -2.76975e-14 -1.98657e-13 1.02475e-13 0 0 -7.02142e-14 -2.57694e-14 -1.27859e-13 2.67504e-14 0 0 -1.08752e-13 -8.40624e-14 -5.36582e-14 -7.16123e-15 0 0 -1.36379e-13 -1.15247e-13 -4.37067e-14 2.70893e-14 0 0 -1.9055e-13 -9.01922e-14 -9.50737e-14 9.97609e-14 0 0 -2.51204e-13 -5.84423e-14 -1.62275e-13 1.78001e-13 0 0 -2.8684e-13 -7.4074e-14 -1.82249e-13 2.28871e-13 0 0 -2.87048e-13 -1.40452e-13 -1.5296e-13 2.56591e-13 0 0 -2.61665e-13 -2.33944e-13 -9.20699e-14 2.53671e-13 0 0 -2.368e-13 -3.20653e-13 -2.27148e-14 2.18964e-13 0 0 -2.41108e-13 -3.73291e-13 2.96937e-14 1.83666e-13 0 0 -2.83436e-13 -3.8677e-13 7.58141e-14 1.42938e-13 0 0 -3.47849e-13 -3.71163e-13 1.22822e-13 8.16186e-14 0 0 -4.09658e-13 -3.43802e-13 1.66269e-13 1.42834e-14 0 0 -4.53413e-13 -3.05672e-13 1.88347e-13 -4.24379e-14 0 0 -4.72123e-13 -2.6336e-13 1.88748e-13 -8.31167e-14 0 0 -4.62102e-13 -2.31428e-13 1.85249e-13 -1.12921e-13 0 0 -4.27691e-13 -2.04781e-13 1.71587e-13 -1.20478e-13 0 0 -3.74731e-13 -1.79887e-13 1.49225e-13 -9.83743e-14 0 0 -3.10171e-13 -1.58665e-13 1.29584e-13 -6.10501e-14 0 0 -2.39321e-13 -1.35003e-13 1.09899e-13 -1.73256e-14 0 0 -1.66841e-13 -1.0935e-13 9.7073e-14 3.05566e-14 0 0 -9.30941e-14 -9.43127e-14 9.9391e-14 7.8236e-14 0 0 -1.99613e-14 -8.94287e-14 1.13233e-13 1.22579e-13 0 0 4.7269e-14 -7.77154e-14 1.19988e-13 1.69617e-13 0 0 1.06464e-13 -5.44964e-14 1.11958e-13 2.22075e-13 0 0 1.55204e-13 -2.91819e-14 1.05618e-13 2.72016e-13 0 0 1.94053e-13 -3.98471e-16 9.45074e-14 3.20967e-13 0 0 2.26356e-13 3.13916e-14 7.04076e-14 3.70291e-13 0 0 2.53144e-13 6.83307e-14 3.68741e-14 4.06443e-13 0 0 2.77726e-13 9.86217e-14 1.49676e-14 4.13823e-13 0 0 3.04851e-13 1.06022e-13 2.10622e-14 3.93328e-13 0 0 3.20386e-13 1.07702e-13 2.83903e-14 3.76096e-13 0 0 3.34754e-13 9.17236e-14 7.65886e-14 3.07983e-13 0 0 3.529e-13 7.54379e-14 1.46192e-13 2.3559e-13 0 0 3.62392e-13 1.01113e-13 1.31704e-13 2.22043e-13 0 0 3.55308e-13 1.39251e-13 8.48222e-14 2.13556e-13 0 0 3.28824e-13 1.49596e-13 1.14177e-13 1.56503e-13 0 0 2.88482e-13 1.69896e-13 1.28678e-13 1.2928e-13 0 0 2.6368e-13 1.85508e-13 1.23326e-13 1.08053e-13 0 0 2.58797e-13 1.58391e-13 1.76736e-13 2.71205e-14 0 0 2.3852e-13 1.66812e-13 1.47781e-13 6.15813e-14 0 0 2.15332e-13 1.89985e-13 7.12041e-14 1.42391e-13 0 0 1.89582e-13 1.69536e-13 8.78389e-14 1.26538e-13 0 0 1.58099e-13 1.65739e-13 1.36837e-13 6.92836e-15 0 0 1.25912e-13 1.85421e-13 1.38065e-13 -5.52517e-14 0 0 1.10267e-13 1.86402e-13 7.9869e-14 3.44809e-14 0 0 1.09852e-13 1.72539e-13 6.56629e-14 7.43728e-14 0 0 1.06793e-13 1.85905e-13 5.4235e-14 3.85896e-14 0 0 1.12721e-13 1.9982e-13 -1.68441e-14 1.73873e-14 0 0 1.11652e-13 1.93185e-13 -5.61063e-14 5.36922e-14 0 0 9.35909e-14 1.83065e-13 -3.66384e-14 4.73407e-14 0 0 8.64457e-14 1.5228e-13 6.02771e-15 -2.96081e-14 0 0 6.49928e-14 1.46625e-13 -1.00393e-14 -4.55142e-14 0 0 3.5631e-14 1.38872e-13 -7.78374e-15 -5.50077e-14 0 0 1.20791e-14 1.22275e-13 2.83179e-14 -9.72737e-14 0 0 -3.95594e-15 8.65671e-14 6.02782e-14 -9.33525e-14 0 0 -1.15587e-14 1.83083e-14 1.26704e-13 -1.0179e-13 0 0 -1.08419e-14 -3.1667e-14 1.07088e-13 -3.50706e-14 0 0 -5.10456e-15 -4.14e-14 -1.8989e-14 1.25533e-13 0 0 -3.47232e-14 -5.14199e-14 -4.38198e-14 1.62004e-13 0 0 -5.86741e-14 -6.91916e-14 -3.47721e-14 1.47103e-13 0 0 -5.69222e-14 -7.61253e-14 -6.11393e-14 2.20577e-13 0 0 -5.93987e-14 -3.87194e-14 -6.95607e-14 2.15256e-13 0 0 -2.58341e-14 -2.53213e-14 2.96446e-15 8.4021e-14 0 0 1.64657e-14 1.76288e-14 -2.83679e-14 9.76262e-14 0 0 -1.29964e-14 1.57714e-13 -1.24596e-13 3.39762e-14 0 0 1.64339e-14 1.59126e-13 2.9179e-15 5.06223e-14 0 0 7.57394e-14 1.40087e-13 8.76248e-14 3.31795e-13 0 0 1.19096e-13 1.32508e-13 1.76802e-13 3.26411e-13 0 0 1.63099e-13 1.47605e-13 2.27391e-13 2.14769e-13 0 0 1.8575e-13 1.44939e-13 2.95285e-13 9.81604e-14 0 0 1.6313e-13 2.07566e-13 2.56964e-13 1.39773e-13 0 0 9.69484e-14 3.03779e-13 1.98546e-13 1.61368e-13 0 0 1.20856e-13 1.95627e-13 3.77251e-13 8.93758e-15 0 0 1.55459e-13 1.15881e-13 4.60672e-13 -2.03081e-14 0 0 6.90704e-14 2.72381e-13 2.48555e-13 1.34799e-13 0 0 1.0112e-13 2.29178e-13 2.2309e-13 2.3218e-13 0 0 2.59537e-13 3.39663e-14 3.77684e-13 1.18932e-13 0 0 3.13631e-13 4.10027e-15 4.27065e-13 5.58866e-14 0 0 2.89825e-13 4.8122e-14 4.10742e-13 1.31115e-13 0 0 2.16789e-13 1.8833e-13 3.11856e-13 1.36811e-13 0 0 1.7433e-13 3.13482e-13 1.73893e-13 2.20539e-13 0 0 1.99817e-13 3.03536e-13 2.27725e-13 2.37461e-13 0 0 2.8933e-13 2.03223e-13 4.15512e-13 1.11493e-13 0 0 3.29918e-13 1.89307e-13 4.35588e-13 1.20353e-13 0 0 3.112e-13 2.94473e-13 3.04217e-13 2.54986e-13 0 0 2.89162e-13 4.06653e-13 2.7075e-13 2.61294e-13 0 0 2.89922e-13 4.68132e-13 2.47738e-13 3.07568e-13 0 0 2.83049e-13 4.87884e-13 2.28112e-13 4.50892e-13 0 0 2.30927e-13 5.51649e-13 1.91801e-13 5.60413e-13 0 0 3.26005e-13 4.05641e-13 3.6567e-13 4.27357e-13 0 0 1.93231e-13 5.92328e-13 2.1057e-13 4.82967e-13 0 0 2.1878e-13 4.61428e-13 2.97808e-13 4.87099e-13 0 0 2.33929e-13 3.90076e-13 3.34979e-13 4.53943e-13 0 0 2.71508e-14 6.11861e-13 2.85861e-13 3.15693e-13 0 0 9.43298e-14 3.69261e-13 7.13317e-13 -9.31429e-14 0 0 1.14262e-13 4.68456e-13 5.77399e-13 -2.83386e-14 0 0 1.51158e-13 5.52177e-13 4.57556e-13 3.62844e-14 0 0 3.07626e-13 4.29257e-13 4.23919e-13 1.39131e-13 0 0 2.91707e-13 3.8541e-13 4.17303e-13 2.36867e-13 0 0 2.6676e-13 3.78487e-13 4.68131e-13 1.83306e-13 0 0 4.9839e-13 1.18148e-13 6.83031e-13 4.33607e-14 0 0 3.42285e-13 3.0996e-13 5.91411e-13 6.1954e-14 0 0 8.1403e-14 6.21689e-13 3.76844e-13 1.98875e-13 0 0 2.36819e-13 2.95563e-13 5.63585e-13 2.7353e-13 0 0 2.48441e-13 2.89391e-13 4.98139e-13 2.88519e-13 0 0 2.55794e-13 3.259e-13 6.05102e-13 -1.53813e-14 0 0 2.10027e-13 3.72648e-13 6.7896e-13 -1.51193e-13 0 0 8.85075e-14 5.30002e-13 5.29659e-13 8.61233e-16 0 0 2.18219e-13 3.05223e-13 8.08713e-13 -1.40227e-13 0 0 3.00309e-14 5.91621e-13 7.79579e-13 -2.59676e-13 0 0 9.69066e-15 6.50781e-13 7.02075e-13 -1.76211e-13 0 0 1.0708e-13 4.83764e-13 7.02933e-13 4.42936e-15 0 0 1.61776e-13 5.19213e-13 5.33419e-13 1.62649e-13 0 0 3.02375e-13 4.15752e-13 5.78121e-13 4.3692e-14 0 0 8.8903e-14 8.31104e-13 1.48584e-13 2.28429e-13 0 0 -1.03467e-13 1.29249e-12 -4.82219e-13 6.54922e-13 0 0 -1.20155e-13 1.38754e-12 -6.57792e-13 7.88758e-13 0
				</DataArray>
				<DataArray Name="VitesseY" type="Float32" format="ascii">