<?xml version="1.0"?>
<VTKFile type="PolyData">
	<PolyData>
		<Piece NumberOfPoints="1206" NumberOfPolys="1000">
			<Points>
				<DataArray type="Float32" NumberOfComponents="3" format="ascii">
 0 0 0 0.02 0 0 0.04 0 0 0.06 0 0 0.08 0 0 0.1 0 0 0 0.005 0 0.02 0.005 0 0.04 0.005 0 0.06 0.005 0 0.08 0.005 0 0.1 0.005 0 0 0.01 0 0.02 0.01 0 0.04 0.01 0 0.06 0.01 0 0.08 0.01 0 0.1 0.01 0 0 0.015 0 0.02 0.015 0 0.04 0.015 0 0.06 0.015 0 0.08 0.015 0 0.1 0.015 0 0 0.02 0 0.02 0.02 0 0.04 0.02 0 0.06 0.02 0 0.08 0.02 0 0.1 0.02 0 0 0.025 0 0.02 0.025 0 0.04 0.025 0 0.06 0.025 0 0.08 0.025 0 0.1 0.025 0 0 0.03 0 0.02 0.03 0 0.04 0.03 0 0.06 0.03 0 0.08 0.03 0 0.1 0.03 0 0 0.035 0 0.02 0.035 0 0.04 0.035 0 0.06 0.035 0 0.08 0.035 0 0.1 0.035 0 0 0.04 0 0.02 0.04 0 0.04 0.04 0 0.06 0.04 0 0.08 0.04 0 0.1 0.04 0 0 0.045 0 0.02 0.045 0 0.04 0.045 0 0.06 0.045 0 0.08 0.045 0 0.1 0.045 0 0 0.05 0 0.02 0.05 0 0.04 0.05 0 0.06 0.05 0 0.08 0.05 0 0.1 0.05 0 0 0.055 0 0.02 0.055 0 0.04 0.055 0 0.06 0.055 0 0.08 0.055 0 0.1 0.055 0 0 0.06 0 0.02 0.06 0 0.04 0.06 0 0.06 0.06 0 0.08 0.06 0 0.1 0.06 0 0 0.065 0 0.02 0.065 0 0.04 0.065 0 0.06 0.065 0 0.08 0.065 0 0.1 0.065 0 0 0.07 0 0.02 0.07 0 0.04 0.07 0 0.06 0.07 0 0.08 0.07 0 0.1 0.07 0 0 0.075 0 0.02 0.075 0 0.04 0.075 0 0.06 0.075 0 0.08 0.075 0 0.1 0.075 0 0 0.08 0 0.02 0.08 0 0.04 0.08 0 0.06 0.08 0 0.08 0.08 0 0.1 0.08 0 0 0.085 0 0.02 0.085 0 0.04 0.085 0 0.06 0.085 0 0.08 0.085 0 0.1 0.085 0 0 0.09 0 0.02 0.09 0 0.04 0.09 0 0.06 0.09 0 0.08 0.09 0 0.1 0.09 0 0 0.095 0 0.02 0.095 0 0.04 0.095 0 0.06 0.095 0 0.08 0.095 0 0.1 0.095 0 0 0.1 0 0.02 0.1 0 0.04 0.1 0 0.06 0.1 0 0.08 0.1 0 0.1 0.1 0 0 0.105 0 0.02 0.105 0 0.04 0.105 0 0.06 0.105 0 0.08 0.105 0 0.1 0.105 0 0 0.11 0 0.02 0.11 0 0.04 0.11 0 0.06 0.11 0 0.08 0.11 0 0.1 0.11 0 0 0.115 0 0.02 0.115 0 0.04 0.115 0 0.06 0.115 0 0.08 0.115 0 0.1 0.115 0 0 0.12 0 0.02 0.12 0 0.04 0.12 0 0.06 0.12 0 0.08 0.12 0 0.1 0.12 0 0 0.125 0 0.02 0.125 0 0.04 0.125 0 0.06 0.125 0 0.08 0.125 0 0.1 0.125 0 0 0.13 0 0.02 0.13 0 0.04 0.13 0 0.06 0.13 0 0.08 0.13 0 0.1 0.13 0 0 0.135 0 0.02 0.135 0 0.04 0.135 0 0.06 0.135 0 0.08 0.135 0 0.1 0.135 0 0 0.14 0 0.02 0.14 0 0.04 0.14 0 0.06 0.14 0 0.08 0.14 0 0.1 0.14 0 0 0.145 0 0.02 0.145 0 0.04 0.145 0 0.06 0.145 0 0.08 0.145 0 0.1 0.145 0 0 0.15 0 0.02 0.15 0 0.04 0.15 0 0.06 0.15 0 0.08 0.15 0 0.1 0.15 0 0 0.155 0 0.02 0.155 0 0.04 0.155 0 0.06 0.155 0 0.08 0.155 0 0.1 0.155 0 0 0.16 0 0.02 0.16 0 0.04 0.16 0 0.06 0.16 0 0.08 0.16 0 0.1 0.16 0 0 0.165 0 0.02 0.165 0 0.04 0.165 0 0.06 0.165 0 0.08 0.165 0 0.1 0.165 0 0 0.17 0 0.02 0.17 0 0.04 0.17 0 0.06 0.17 0 0.08 0.17 0 0.1 0.17 0 0 0.175 0 0.02 0.175 0 0.04 0.175 0 0.06 0.175 0 0.08 0.175 0 0.1 0.175 0 0 0.18 0 0.02 0.18 0 0.04 0.18 0 0.06 0.18 0 0.08 0.18 0 0.1 0.18 0 0 0.185 0 0.02 0.185 0 0.04 0.185 0 0.06 0.185 0 0.08 0.185 0 0.1 0.185 0 0 0.19 0 0.02 0.19 0 0.04 0.19 0 0.06 0.19 0 0.08 0.19 0 0.1 0.19 0 0 0.195 0 0.02 0.195 0 0.04 0.195 0 0.06 0.195 0 0.08 0.195 0 0.1 0.195 0 0 0.2 0 0.02 0.2 0 0.04 0.2 0 0.06 0.2 0 0.08 0.2 0 0.1 0.2 0 0 0.205 0 0.02 0.205 0 0.04 0.205 0 0.06 0.205 0 0.08 0.205 0 0.1 0.205 0 0 0.21 0 0.02 0.21 0 0.04 0.21 0 0.06 0.21 0 0.08 0.21 0 0.1 0.21 0 0 0.215 0 0.02 0.215 0 0.04 0.215 0 0.06 0.215 0 0.08 0.215 0 0.1 0.215 0 0 0.22 0 0.02 0.22 0 0.04 0.22 0 0.06 0.22 0 0.08 0.22 0 0.1 0.22 0 0 0.225 0 0.02 0.225 0 0.04 0.225 0 0.06 0.225 0 0.08 0.225 0 0.1 0.225 0 0 0.23 0 0.02 0.23 0 0.04 0.23 0 0.06 0.23 0 0.08 0.23 0 0.1 0.23 0 0 0.235 0 0.02 0.235 0 0.04 0.235 0 0.06 0.235 0 0.08 0.235 0 0.1 0.235 0 0 0.24 0 0.02 0.24 0 0.04 0.24 0 0.06 0.24 0 0.08 0.24 0 0.1 0.24 0 0 0.245 0 0.02 0.245 0 0.04 0.245 0 0.06 0.245 0 0.08 0.245 0 0.1 0.245 0 0 0.25 0 0.02 0.25 0 0.04 0.25 0 0.06 0.25 0 0.08 0.25 0 0.1 0.25 0 0 0.255 0 0.02 0.255 0 0.04 0.255 0 0.06 0.255 0 0.08 0.255 0 0.1 0.255 0 0 0.26 0 0.02 0.26 0 0.04 0.26 0 0.06 0.26 0 0.08 0.26 0 0.1 0.26 0 0 0.265 0 0.02 0.265 0 0.04 0.265 0 0.06 0.265 0 0.08 0.265 0 0.1 0.265 0 0 0.27 0 0.02 0.27 0 0.04 0.27 0 0.06 0.27 0 0.08 0.27 0 0.1 0.27 0 0 0.275 0 0.02 0.275 0 0.04 0.275 0 0.06 0.275 0 0.08 0.275 0 0.1 0.275 0 0 0.28 0 0.02 0.28 0 0.04 0.28 0 0.06 0.28 0 0.08 0.28 0 0.1 0.28 0 0 0.285 0 0.02 0.285 0 0.04 0.285 0 0.06 0.285 0 0.08 0.285 0 0.1 0.285 0 0 0.29 0 0.02 0.29 0 0.04 0.29 0 0.06 0.29 0 0.08 0.29 0 0.1 0.29 0 0 0.295 0 0.02 0.295 0 0.04 0.295 0 0.06 0.295 0 0.08 0.295 0 0.1 0.295 0 0 0.3 0 0.02 0.3 0 0.04 0.3 0 0.06 0.3 0 0.08 0.3 0 0.1 0.3 0 0 0.305 0 0.02 0.305 0 0.04 0.305 0 0.06 0.305 0 0.08 0.305 0 0.1 0.305 0 0 0.31 0 0.02 0.31 0 0.04 0.31 0 0.06 0.31 0 0.08 0.31 0 0.1 0.31 0 0 0.315 0 0.02 0.315 0 0.04 0.315 0 0.06 0.315 0 0.08 0.315 0 0.1 0.315 0 0 0.32 0 0.02 0.32 0 0.04 0.32 0 0.06 0.32 0 0.08 0.32 0 0.1 0.32 0 0 0.325 0 0.02 0.325 0 0.04 0.325 0 0.06 0.325 0 0.08 0.325 0 0.1 0.325 0 0 0.33 0 0.02 0.33 0 0.04 0.33 0 0.06 0.33 0 0.08 0.33 0 0.1 0.33 0 0 0.335 0 0.02 0.335 0 0.04 0.335 0 0.06 0.335 0 0.08 0.335 0 0.1 0.335 0 0 0.34 0 0.02 0.34 0 0.04 0.34 0 0.06 0.34 0 0.08 0.34 0 0.1 0.34 0 0 0.345 0 0.02 0.345 0 0.04 0.345 0 0.06 0.345 0 0.08 0.345 0 0.1 0.345 0 0 0.35 0 0.02 0.35 0 0.04 0.35 0 0.06 0.35 0 0.08 0.35 0 0.1 0.35 0 0 0.355 0 0.02 0.355 0 0.04 0.355 0 0.06 0.355 0 0.08 0.355 0 0.1 0.355 0 0 0.36 0 0.02 0.36 0 0.04 0.36 0 0.06 0.36 0 0.08 0.36 0 0.1 0.36 0 0 0.365 0 0.02 0.365 0 0.04 0.365 0 0.06 0.365 0 0.08 0.365 0 0.1 0.365 0 0 0.37 0 0.02 0.37 0 0.04 0.37 0 0.06 0.37 0 0.08 0.37 0 0.1 0.37 0 0 0.375 0 0.02 0.375 0 0.04 0.375 0 0.06 0.375 0 0.08 0.375 0 0.1 0.375 0 0 0.38 0 0.02 0.38 0 0.04 0.38 0 0.06 0.38 0 0.08 0.38 0 0.1 0.38 0 0 0.385 0 0.02 0.385 0 0.04 0.385 0 0.06 0.385 0 0.08 0.385 0 0.1 0.385 0 0 0.39 0 0.02 0.39 0 0.04 0.39 0 0.06 0.39 0 0.08 0.39 0 0.1 0.39 0 0 0.395 0 0.02 0.395 0 0.04 0.395 0 0.06 0.395 0 0.08 0.395 0 0.1 0.395 0 0 0.4 0 0.02 0.4 0 0.04 0.4 0 0.06 0.4 0 0.08 0.4 0 0.1 0.4 0 0 0.405 0 0.02 0.405 0 0.04 0.405 0 0.06 0.405 0 0.08 0.405 0 0.1 0.405 0 0 0.41 0 0.02 0.41 0 0.04 0.41 0 0.06 0.41 0 0.08 0.41 0 0.1 0.41 0 0 0.415 0 0.02 0.415 0 0.04 0.415 0 0.06 0.415 0 0.08 0.415 0 0.1 0.415 0 0 0.42 0 0.02 0.42 0 0.04 0.42 0 0.06 0.42 0 0.08 0.42 0 0.1 0.42 0 0 0.425 0 0.02 0.425 0 0.04 0.425 0 0.06 0.425 0 0.08 0.425 0 0.1 0.425 0 0 0.43 0 0.02 0.43 0 0.04 0.43 0 0.06 0.43 0 0.08 0.43 0 0.1 0.43 0 0 0.435 0 0.02 0.435 0 0.04 0.435 0 0.06 0.435 0 0.08 0.435 0 0.1 0.435 0 0 0.44 0 0.02 0.44 0 0.04 0.44 0 0.06 0.44 0 0.08 0.44 0 0.1 0.44 0 0 0.445 0 0.02 0.445 0 0.04 0.445 0 0.06 0.445 0 0.08 0.445 0 0.1 0.445 0 0 0.45 0 0.02 0.45 0 0.04 0.45 0 0.06 0.45 0 0.08 0.45 0 0.1 0.45 0 0 0.455 0 0.02 0.455 0 0.04 0.455 0 0.06 0.455 0 0.08 0.455 0 0.1 0.455 0 0 0.46 0 0.02 0.46 0 0.04 0.46 0 0.06 0.46 0 0.08 0.46 0 0.1 0.46 0 0 0.465 0 0.02 0.465 0 0.04 0.465 0 0.06 0.465 0 0.08 0.465 0 0.1 0.465 0 0 0.47 0 0.02 0.47 0 0.04 0.47 0 0.06 0.47 0 0.08 0.47 0 0.1 0.47 0 0 0.475 0 0.02 0.475 0 0.04 0.475 0 0.06 0.475 0 0.08 0.475 0 0.1 0.475 0 0 0.48 0 0.02 0.48 0 0.04 0.48 0 0.06 0.48 0 0.08 0.48 0 0.1 0.48 0 0 0.485 0 0.02 0.485 0 0.04 0.485 0 0.06 0.485 0 0.08 0.485 0 0.1 0.485 0 0 0.49 0 0.02 0.49 0 0.04 0.49 0 0.06 0.49 0 0.08 0.49 0 0.1 0.49 0 0 0.495 0 0.02 0.495 0 0.04 0.495 0 0.06 0.495 0 0.08 0.495 0 0.1 0.495 0 0 0.5 0 0.02 0.5 0 0.04 0.5 0 0.06 0.5 0 0.08 0.5 0 0.1 0.5 0 0 0.505 0 0.02 0.505 0 0.04 0.505 0 0.06 0.505 0 0.08 0.505 0 0.1 0.505 0 0 0.51 0 0.02 0.51 0 0.04 0.51 0 0.06 0.51 0 0.08 0.51 0 0.1 0.51 0 0 0.515 0 0.02 0.515 0 0.04 0.515 0 0.06 0.515 0 0.08 0.515 0 0.1 0.515 0 0 0.52 0 0.02 0.52 0 0.04 0.52 0 0.06 0.52 0 0.08 0.52 0 0.1 0.52 0 0 0.525 0 0.02 0.525 0 0.04 0.525 0 0.06 0.525 0 0.08 0.525 0 0.1 0.525 0 0 0.53 0 0.02 0.53 0 0.04 0.53 0 0.06 0.53 0 0.08 0.53 0 0.1 0.53 0 0 0.535 0 0.02 0.535 0 0.04 0.535 0 0.06 0.535 0 0.08 0.535 0 0.1 0.535 0 0 0.54 0 0.02 0.54 0 0.04 0.54 0 0.06 0.54 0 0.08 0.54 0 0.1 0.54 0 0 0.545 0 0.02 0.545 0 0.04 0.545 0 0.06 0.545 0 0.08 0.545 0 0.1 0.545 0 0 0.55 0 0.02 0.55 0 0.04 0.55 0 0.06 0.55 0 0.08 0.55 0 0.1 0.55 0 0 0.555 0 0.02 0.555 0 0.04 0.555 0 0.06 0.555 0 0.08 0.555 0 0.1 0.555 0 0 0.56 0 0.02 0.56 0 0.04 0.56 0 0.06 0.56 0 0.08 0.56 0 0.1 0.56 0 0 0.565 0 0.02 0.565 0 0.04 0.565 0 0.06 0.565 0 0.08 0.565 0 0.1 0.565 0 0 0.57 0 0.02 0.57 0 0.04 0.57 0 0.06 0.57 0 0.08 0.57 0 0.1 0.57 0 0 0.575 0 0.02 0.575 0 0.04 0.575 0 0.06 0.575 0 0.08 0.575 0 0.1 0.575 0 0 0.58 0 0.02 0.58 0 0.04 0.58 0 0.06 0.58 0 0.08 0.58 0 0.1 0.58 0 0 0.585 0 0.02 0.585 0 0.04 0.585 0 0.06 0.585 0 0.08 0.585 0 0.1 0.585 0 0 0.59 0 0.02 0.59 0 0.04 0.59 0 0.06 0.59 0 0.08 0.59 0 0.1 0.59 0 0 0.595 0 0.02 0.595 0 0.04 0.595 0 0.06 0.595 0 0.08 0.595 0 0.1 0.595 0 0 0.6 0 0.02 0.6 0 0.04 0.6 0 0.06 0.6 0 0.08 0.6 0 0.1 0.6 0 0 0.605 0 0.02 0.605 0 0.04 0.605 0 0.06 0.605 0 0.08 0.605 0 0.1 0.605 0 0 0.61 0 0.02 0.61 0 0.04 0.61 0 0.06 0.61 0 0.08 0.61 0 0.1 0.61 0 0 0.615 0 0.02 0.615 0 0.04 0.615 0 0.06 0.615 0 0.08 0.615 0 0.1 0.615 0 0 0.62 0 0.02 0.62 0 0.04 0.62 0 0.06 0.62 0 0.08 0.62 0 0.1 0.62 0 0 0.625 0 0.02 0.625 0 0.04 0.625 0 0.06 0.625 0 0.08 0.625 0 0.1 0.625 0 0 0.63 0 0.02 0.63 0 0.04 0.63 0 0.06 0.63 0 0.08 0.63 0 0.1 0.63 0 0 0.635 0 0.02 0.635 0 0.04 0.635 0 0.06 0.635 0 0.08 0.635 0 0.1 0.635 0 0 0.64 0 0.02 0.64 0 0.04 0.64 0 0.06 0.64 0 0.08 0.64 0 0.1 0.64 0 0 0.645 0 0.02 0.645 0 0.04 0.645 0 0.06 0.645 0 0.08 0.645 0 0.1 0.645 0 0 0.65 0 0.02 0.65 0 0.04 0.65 0 0.06 0.65 0 0.08 0.65 0 0.1 0.65 0 0 0.655 0 0.02 0.655 0 0.04 0.655 0 0.06 0.655 0 0.08 0.655 0 0.1 0.655 0 0 0.66 0 0.02 0.66 0 0.04 0.66 0 0.06 0.66 0 0.08 0.66 0 0.1 0.66 0 0 0.665 0 0.02 0.665 0 0.04 0.665 0 0.06 0.665 0 0.08 0.665 0 0.1 0.665 0 0 0.67 0 0.02 0.67 0 0.04 0.67 0 0.06 0.67 0 0.08 0.67 0 0.1 0.67 0 0 0.675 0 0.02 0.675 0 0.04 0.675 0 0.06 0.675 0 0.08 0.675 0 0.1 0.675 0 0 0.68 0 0.02 0.68 0 0.04 0.68 0 0.06 0.68 0 0.08 0.68 0 0.1 0.68 0 0 0.685 0 0.02 0.685 0 0.04 0.685 0 0.06 0.685 0 0.08 0.685 0 0.1 0.685 0 0 0.69 0 0.02 0.69 0 0.04 0.69 0 0.06 0.69 0 0.08 0.69 0 0.1 
[...]
			<PointData Scalars="VitesseX">
				<DataArray Name="VitesseX" type="Float32" format="ascii">
 0 1.24228e-14 5.86723e-14 3.47052e-14 2.02264e-14 0 0 1.83938e-14 4.72994e-14 4.32109e-14 1.42557e-14 0 0 2.08517e-14 3.82177e-14 4.36535e-14 1.14725e-14 0 0 2.10456e-14 3.85172e-14 2.61195e-14 1.83859e-14 0 0 3.88175e-14 1.67692e-14 2.78925e-14 1.06991e-14 0 0 4.87549e-14 -2.25977e-15 3.76559e-14 -5.97354e-15 0 0 1.77337e-14 3.52753e-14 2.1105e-15 7.21476e-15 0 0 4.0032e-15 5.80937e-14 -2.94498e-14 3.05203e-14 0 0 1.72523e-14 4.16047e-14 -1.80415e-14 2.99441e-14 0 0 3.14471e-14 2.5231e-14 1.11067e-14 1.67725e-14 0 0 2.80976e-14 4.14048e-14 6.3433e-15 1.94515e-14 0 0 2.33619e-14 4.6605e-14 2.40332e-14 -1.21391e-14 0 0 -5.13147e-15 7.71061e-14 1.88951e-14 -1.93805e-14 0 0 -3.9052e-15 6.10656e-14 4.07716e-14 -2.47072e-14 0 0 8.82638e-15 3.84435e-14 5.8152e-14 -2.60069e-14 0 0 -8.94964e-15 6.72054e-14 1.91679e-14 1.90847e-14 0 0 2.43046e-14 2.98629e-15 8.05921e-14 -2.83334e-15 0 0 4.51709e-14 -1.55944e-14 7.86547e-14 1.69465e-14 0 0 6.77386e-14 -9.98163e-15 3.91765e-14 8.07818e-14 0 0 4.31826e-14 4.83759e-14 2.32977e-16 1.0704e-13 0 0 -3.25371e-16 1.24822e-13 -3.93164e-14 1.10076e-13 0 0 2.05862e-14 1.2235e-13 -5.10813e-14 1.42224e-13 0 0 7.6714e-14 4.17841e-14 4.75938e-14 8.52121e-14 0 0 1.1859e-13 -4.21662e-14 1.94639e-13 -3.50111e-14 0 0 3.88488e-14 8.54277e-14 9.93993e-14 6.08919e-15 0 0 -6.36966e-14 2.52827e-13 -6.95199e-14 1.02434e-13 0 0 2.30785e-14 1.17492e-13 5.17213e-14 1.8863e-14 0 0 1.25648e-13 -4.89542e-14 2.04842e-13 -9.30679e-14 0 0 7.32722e-14 3.2297e-14 1.381e-13 -1.02038e-13 0 0 2.24753e-14 1.30042e-13 4.66048e-14 -7.47765e-14 0 0 4.81514e-14 7.95056e-14 6.89184e-14 -6.19692e-14 0 0 5.6875e-14 5.42133e-14 5.84225e-14 -4.66157e-14 0 0 7.87095e-14 4.55434e-14 2.35416e-14 -8.09033e-15 0 0 1.27649e-13 -3.05321e-14 1.02348e-13 -3.03449e-14 0 0 -1.23571e-14 1.71256e-13 -7.37027e-14 8.70648e-14 0 0 -3.02581e-14 1.69835e-13 -6.71399e-14 1.00739e-13 0 0 6.90728e-14 -1.10344e-14 1.07509e-13 6.74548e-15 0 0 5.00555e-14 3.62825e-14 6.63243e-14 9.70911e-15 0 0 6.32162e-14 7.22175e-14 2.05185e-14 5.78302e-14 0 0 8.88914e-14 6.68246e-14 3.39079e-14 6.84508e-14 0 0 8.9145e-14 1.12469e-13 -1.13717e-14 6.62282e-14 0 0 1.10603e-13 1.11816e-13 -3.08765e-14 6.31044e-14 0 0 1.92738e-13 -1.40913e-14 7.94511e-14 -6.57516e-15 0 0 1.18543e-13 9.10547e-14 -2.55973e-14 1.10904e-13 0 0 2.67591e-14 1.9353e-13 -6.94462e-14 1.62902e-13 0 0 3.62799e-14 1.39117e-13 3.86152e-14 8.08316e-14 0 0 4.5078e-14 8.53345e-14 7.57059e-14 9.84306e-14 0 0 8.66732e-14 1.23866e-14 1.08867e-13 1.08385e-13 0 0 6.10718e-14 3.39757e-14 1.45729e-13 5.10732e-14 0 0 -3.67027e-14 1.46712e-13 1.21237e-13 4.07561e-14 0 0 -9.3785e-14 2.35946e-13 4.56071e-14 1.18985e-13 0 0 -4.36441e-14 1.91471e-13 2.87843e-14 1.90187e-13 0 0 1.26032e-13 -8.24295e-14 2.48267e-13 8.02639e-14 0 0 9.68333e-14 -8.96244e-14 2.87109e-13 1.6441e-14 0 0 -1.21873e-13 2.48151e-13 -3.0456e-14 2.08057e-13 0 0 -1.50388e-13 2.45723e-13 2.14056e-15 1.91989e-13 0 0 -6.11672e-14 7.32017e-14 1.97176e-13 6.65045e-14 0 0 -3.07416e-14 5.08127e-14 2.23363e-13 8.48045e-14 0 0 -7.27558e-14 1.26723e-13 1.93157e-13 1.11434e-13 0 0 -8.57975e-14 1.99285e-13 1.34682e-13 1.14959e-13 0 0 -2.20937e-14 1.3046e-13 1.83928e-13 3.76701e-14 0 0 2.51922e-14 6.59416e-14 2.68062e-13 -9.71586e-14 0 0 1.31831e-14 1.71576e-13 1.25488e-13 -4.0478e-14 0 0 6.97083e-14 1.97988e-13 1.28007e-14 -2.69741e-14 0 0 2.01271e-13 2.62351e-14 1.64847e-13 -1.82651e-13 0 0 2.53974e-13 -3.96077e-14 1.67549e-13 -1.14544e-13 0 0 1.76396e-13 5.87921e-14 5.58545e-14 2.63169e-14 0 0 7.28561e-14 1.5746e-13 -1.5637e-15 1.44894e-13 0 0 -2.40553e-14 2.6726e-13 -6.42253e-14 2.51395e-13 0 0 5.58849e-14 1.437e-13 1.19384e-13 1.55329e-13 0 0 1.89308e-13 -1.41955e-14 3.43735e-13 -1.45998e-14 0 0 9.54798e-14 1.48504e-13 2.17237e-13 5.59981e-14 0 0 -1.16412e-13 4.3661e-13 -1.26794e-13 3.32475e-13 0 0 -2.33342e-13 5.50364e-13 -1.77059e-13 4.15356e-13 0 0 -1.64347e-13 2.34302e-13 3.05554e-13 1.65143e-13 0 0 6.06831e-14 -1.37679e-13 6.39599e-13 8.89345e-14 0 0 1.61843e-14 1.79249e-13 1.76097e-13 4.74631e-13 0 0 -2.71093e-13 6.15007e-13 -1.52654e-13 5.45431e-13 0 0 -2.62073e-13 5.11728e-13 1.76082e-13 1.50194e-13 0 0 6.35213e-14 1.62904e-13 4.27995e-13 7.59169e-14 0 0 -9.17165e-14 4.35192e-13 8.37346e-14 4.13594e-13 0 0 -2.33675e-13 5.03207e-13 2.82226e-13 2.08511e-13 0 0 1.91494e-13 -1.36969e-14 1.02578e-12 -3.81517e-13 0 0 1.0722e-13 5.38804e-13 5.75716e-13 -3.05517e-13 0 0 -1.37161e-13 1.30405e-12 -3.56152e-13 2.2872e-13 0 0 3.22026e-13 9.60622e-13 -3.44597e-13 3.37651e-13 0 0 8.59577e-13 2.5081e-13 3.78799e-13 -1.23215e-13 0 0 7.73992e-13 2.0305e-13 6.83409e-13 -3.65565e-13 0 0 4.68555e-13 5.6006e-13 4.78657e-13 -2.33217e-13 0 0 2.4306e-13 8.81408e-13 2.22738e-13 -6.32356e-14 0 0 1.1749e-13 1.0243e-12 1.42649e-13 -2.61124e-14 0 0 1.40193e-13 9.26495e-13 2.33488e-13 -6.88696e-14 0 0 3.0278e-13 6.53034e-13 3.75676e-13 -6.67367e-14 0 0 4.94051e-13 3.74565e-13 4.67597e-13 1.07227e-14 0 0 6.03855e-13 2.30216e-13 4.6012e-13 1.1556e-13 0 0 5.97551e-13 2.40788e-13 3.81153e-13 1.82445e-13 0 0 5.14737e-13 3.36093e-13 2.78418e-13 1.93323e-13 0 0 4.24966e-13 4.20117e-13 1.91925e-13 1.77439e-13 0 0 3.7107e-13 4.43442e-13 1.47958e-13 1.60871e-13 0 0 3.52541e-13 4.09698e-13 1.48239e-13 1.52214e-13 0 0 3.489e-13 3.36334e-13 1.8553e-13 1.53645e-13 0 0 3.38283e-13 2.4399e-13 2.49616e-13 1.5811e-13 0 0 2.97111e-13 1.57787e-13 3.34122e-13 1.4717e-13 0 0 2.2526e-13 9.92992e-14 4.13453e-13 1.1751e-13 0 0 1.4346e-13 7.35663e-14 4.63213e-13 8.1634e-14 0 0 7.42584e-14 6.57502e-14 4.84264e-13 5.41905e-14 0 0 3.77144e-14 5.85271e-14 4.83756e-13 4.45612e-14 0 0 3.90454e-14 4.47662e-14 4.56814e-13 7.15184e-14 0 0 6.35562e-14 2.74403e-14 4.13031e-13 1.32428e-13 0 0 9.34319e-14 1.65693e-14 3.65239e-13 2.04241e-13 0 0 1.17429e-13 1.80577e-14 3.13624e-13 2.7377e-13 0 0 1.15464e-13 6.60959e-14 2.28731e-13 3.25007e-13 0 0 9.3039e-14 9.42686e-14 2.27556e-13 3.3219e-13 0 0 7.20151e-14 1.02904e-13 2.59123e-13 3.33632e-13 0 0 7.34948e-14 9.69058e-14 2.44355e-13 3.69875e-13 0 0 7.83019e-14 1.01356e-13 2.22824e-13 3.84936e-13 0 0 5.65736e-14 1.42162e-13 1.97538e-13 3.57513e-13 0 0 5.50611e-14 1.49786e-13 2.31594e-13 3.01258e-13 0 0 7.53186e-14 1.45743e-13 2.39132e-13 2.64514e-13 0 0 8.37243e-14 1.2954e-13 2.25862e-13 2.95273e-13 0 0 1.1243e-13 9.42e-14 2.53011e-13 2.47772e-13 0 0 1.39692e-13 6.03608e-14 3.01543e-13 1.23644e-13 0 0 1.31418e-13 8.03282e-14 2.87862e-13 6.02535e-14 0 0 1.2275e-13 1.34681e-13 2.02928e-13 4.03647e-14 0 0 1.22147e-13 1.33229e-13 1.96726e-13 4.26759e-14 0 0 1.0741e-13 1.02094e-13 2.30203e-13 2.52319e-14 0 0 1.0549e-13 5.82266e-14 2.86034e-13 -7.37587e-14 0 0 9.77512e-14 6.14097e-14 2.67527e-13 -7.79788e-14 0 0 5.87933e-14 1.54204e-13 1.26433e-13 8.60318e-14 0 0 6.33769e-14 1.70598e-13 1.9213e-13 9.95239e-14 0 0 1.14951e-13 1.67907e-13 3.17177e-13 1.52838e-15 0 0 1.69678e-13 2.4572e-13 2.4309e-13 8.76746e-14 0 0 1.18746e-13 4.12187e-13 1.65306e-13 1.32386e-13 0 0 1.27603e-13 3.90443e-13 3.25202e-13 2.69324e-14 0 0 1.27868e-13 4.18704e-13 4.08847e-13 -2.51896e-14 0 0 1.92421e-13 3.70654e-13 5.30837e-13 -7.55557e-14 0 0 2.57425e-13 3.85149e-13 4.58761e-13 3.98836e-14 0 0 1.62255e-13 6.33657e-13 1.43449e-13 2.96617e-13 0 0 3.61872e-13 3.5395e-13 4.14375e-13 1.68447e-13 0 0 4.00076e-13 3.47116e-13 3.83255e-13 1.86399e-13 0 0 3.37601e-13 4.84641e-13 2.19238e-13 3.42888e-13 0 0 4.72777e-13 3.12311e-13 3.90409e-13 2.35764e-13 0 0 2.9509e-13 6.16981e-13 9.07624e-14 3.62552e-13 0 0 2.73411e-13 6.52055e-13 7.40439e-14 3.49303e-13 0 0 4.7372e-13 3.87371e-13 2.91429e-13 2.20172e-13 0 0 3.39448e-13 5.82044e-13 8.9429e-14 3.21722e-13 0 0 4.46792e-13 3.5811e-13 3.04399e-13 1.79293e-13 0 0 4.32376e-13 3.83682e-13 2.11004e-13 2.60478e-13 0 0 3.41991e-13 5.37351e-13 -1.50293e-14 4.44009e-13 0 0 5.62674e-13 1.90955e-13 2.99504e-13 2.84431e-13 0 0 3.41097e-13 5.06168e-13 -1.36026e-14 4.54621e-13 0 0 2.84968e-13 4.96585e-13 6.98849e-14 3.37298e-13 0 0 2.48952e-13 4.81872e-13 2.37461e-13 1.33796e-13 0 0 3.1766e-13 4.90313e-13 2.62418e-13 1.02673e-13 0 0 5.46587e-13 3.09175e-13 4.03363e-13 5.44987e-14 0 0 4.9145e-13 3.57847e-13 5.66026e-13 -1.59137e-13 0 0 4.16312e-13 3.48457e-13 8.07903e-13 -3.08322e-13 0 0 1.96579e-13 6.13312e-13 5.63464e-13 1.17287e-13 0 0 1.29357e-13 7.79769e-13 3.18549e-13 5.63064e-13 0 0 2.69069e-13 6.56421e-13 2.3206e-13 7.79039e-13 0 0 4.65444e-13 2.24075e-13 6.8919e-13 3.97902e-13 0 0 3.21437e-13 4.39904e-13 6.18335e-13 2.61143e-13 0 0 2.43024e-13 7.28605e-13 2.42112e-13 4.46768e-13 0 0 4.46255e-13 3.811e-13 6.78461e-13 8.41165e-14 0 0 3.19376e-13 4.14067e-13 8.08391e-13 -8.89739e-14 0 0 6.1948e-15 7.35454e-13 6.24668e-13 -3.57485e-14 0 0 9.70289e-14 6.58362e-13 6.28953e-13 -9.52423e-14 0 0 3.3113e-13 4.51116e-13 5.93007e-13 -6.49102e-14 0 0 4.41703e-13 2.73807e-13 6.92523e-13 6.94905e-14 0 0 2.87783e-13 4.35063e-13 6.22551e-13 2.12905e-13 0 0 1.32074e-13 5.66737e-13 6.3614e-13 9.78242e-14 0 0 2.6536e-13 3.77523e-13 7.94125e-13 3.52473e-14 0 0 1.35784e-13 6.22751e-13 5.01273e-13 2.7115e-13 0 0 3.75315e-13 3.00479e-13 7.08266e-13 2.21032e-13 0 0 2.41774e-13 5.11403e-13 4.0244e-13 4.53649e-13 0 0 5.15977e-14 6.06581e-13 3.77424e-13 4.88151e-13 0 0 2.57303e-13 1.98895e-13 7.63664e-13 2.73041e-13 0 0 1.34876e-13 5.6322e-13 2.22444e-13 5.6438e-13 0 0 4.93501e-13 1.29034e-13 5.8672e-13 2.95444e-13 0 0 3.23356e-13 3.19014e-13 5.00791e-13 3.65512e-13 0 0 9.20348e-14 7.06743e-13 1.35293e-15 7.9834e-13 0 0 4.93017e-13 2.53115e-13 2.85311e-13 6.15375e-13 0 0 2.46516e-13 5.56593e-13 2.26443e-13 4.86762e-13 0 0 2.47288e-13 4.5005e-13 4.925e-13 3.08286e-13 0 0 2.86286e-13 3.26009e-13 6.76029e-13 2.72277e-13 0 0 9.54469e-14 7.34045e-13 2.65892e-13 4.89934e-13 0 0 4.87682e-13 3.21013e-13 5.27737e-13 2.74346e-13 0 0 4.71032e-13 2.92711e-13 5.48279e-13 2.51794e-13 0 0 4.96093e-13 2.00426e-13 6.20669e-13 2.00944e-13 0 0 5.62528e-13 1.87873e-13 3.9549e-13 3.671e-13 0 0 5.48699e-13 3.39434e-13 -4.74612e-14 6.45694e-13 0 0 9.16439e-13 -1.86765e-13 2.9386e-13 5.10056e-13 0 0 6.37216e-13 1.80304e-13 -8.325e-14 8.66025e-13 0 0 2.64527e-13 6.6659e-13 -3.25409e-13 1.03578e-12 0 0 4.68636e-13 4.53003e-13 8.34636e-14 6.88203e-13 0 0 7.39479e-13 2.32424e-13 2.23324e-13 5.81324e-13 0 0 9.44221e-13 -1.5419e-13 5.79044e-13 4.41614e-13 0 0 5.50285e-13 2.97829e-13 1.13976e-13 8.62923e-13 0 0 3.91341e-13 5.61239e-13 -2.60832e-13 1.23761e-12 0 0 7.48275e-13 2.15518e-14 1.0808e-13 1.08408e-12 0 0 7.62682e-13 -1.05285e-14 -7.3423e-15 1.19846e-12 0
				</DataArray>
				<DataArray Name="VitesseY" type="Float32" format="ascii">