<?xml version="1.0"?>
<VTKFile type="PolyData">
	<PolyData>
		<Piece NumberOfPoints="1206" NumberOfPolys="1000">
			<Points>
				<DataArray type="Float32" NumberOfComponents="3" format="ascii">
 0 0 0 0.02 0 0 0.04 0 0 0.06 0 0 0.08 0 0 0.1 0 0 0 0.005 0 0.02 0.005 0 0.04 0.005 0 0.06 0.005 0 0.08 0.005 0 0.1 0.005 0 0 0.01 0 0.02 0.01 0 0.04 0.01 0 0.06 0.01 0 0.08 0.01 0 0.1 0.01 0 0 0.015 0 0.02 0.015 0 0.04 0.015 0 0.06 0.015 0 0.08 0.015 0 0.1 0.015 0 0 0.02 0 0.02 0.02 0 0.04 0.02 0 0.06 0.02 0 0.08 0.02 0 0.1 0.02 0 0 0.025 0 0.02 0.025 0 0.04 0.025 0 0.06 0.025 0 0.08 0.025 0 0.1 0.025 0 0 0.03 0 0.02 0.03 0 0.04 0.03 0 0.06 0.03 0 0.08 0.03 0 0.1 0.03 0 0 0.035 0 0.02 0.035 0 0.04 0.035 0 0.06 0.035 0 0.08 0.035 0 0.1 0.035 0 0 0.04 0 0.02 0.04 0 0.04 0.04 0 0.06 0.04 0 0.08 0.04 0 0.1 0.04 0 0 0.045 0 0.02 0.045 0 0.04 0.045 0 0.06 0.045 0 0.08 0.045 0 0.1 0.045 0 0 0.05 0 0.02 0.05 0 0.04 0.05 0 0.06 0.05 0 0.08 0.05 0 0.1 0.05 0 0 0.055 0 0.02 0.055 0 0.04 0.055 0 0.06 0.055 0 0.08 0.055 0 0.1 0.055 0 0 0.06 0 0.02 0.06 0 0.04 0.06 0 0.06 0.06 0 0.08 0.06 0 0.1 0.06 0 0 0.065 0 0.02 0.065 0 0.04 0.065 0 0.06 0.065 0 0.08 0.065 0 0.1 0.065 0 0 0.07 0 0.02 0.07 0 0.04 0.07 0 0.06 0.07 0 0.08 0.07 0 0.1 0.07 0 0 0.075 0 0.02 0.075 0 0.04 0.075 0 0.06 0.075 0 0.08 0.075 0 0.1 0.075 0 0 0.08 0 0.02 0.08 0 0.04 0.08 0 0.06 0.08 0 0.08 0.08 0 0.1 0.08 0 0 0.085 0 0.02 0.085 0 0.04 0.085 0 0.06 0.085 0 0.08 0.085 0 0.1 0.085 0 0 0.09 0 0.02 0.09 0 0.04 0.09 0 0.06 0.09 0 0.08 0.09 0 0.1 0.09 0 0 0.095 0 0.02 0.095 0 0.04 0.095 0 0.06 0.095 0 0.08 0.095 0 0.1 0.095 0 0 0.1 0 0.02 0.1 0 0.04 0.1 0 0.06 0.1 0 0.08 0.1 0 0.1 0.1 0 0 0.105 0 0.02 0.105 0 0.04 0.105 0 0.06 0.105 0 0.08 0.105 0 0.1 0.105 0 0 0.11 0 0.02 0.11 0 0.04 0.11 0 0.06 0.11 0 0.08 0.11 0 0.1 0.11 0 0 0.115 0 0.02 0.115 0 0.04 0.115 0 0.06 0.115 0 0.08 0.115 0 0.1 0.115 0 0 0.12 0 0.02 0.12 0 0.04 0.12 0 0.06 0.12 0 0.08 0.12 0 0.1 0.12 0 0 0.125 0 0.02 0.125 0 0.04 0.125 0 0.06 0.125 0 0.08 0.125 0 0.1 0.125 0 0 0.13 0 0.02 0.13 0 0.04 0.13 0 0.06 0.13 0 0.08 0.13 0 0.1 0.13 0 0 0.135 0 0.02 0.135 0 0.04 0.135 0 0.06 0.135 0 0.08 0.135 0 0.1 0.135 0 0 0.14 0 0.02 0.14 0 0.04 0.14 0 0.06 0.14 0 0.08 0.14 0 0.1 0.14 0 0 0.145 0 0.02 0.145 0 0.04 0.145 0 0.06 0.145 0 0.08 0.145 0 0.1 0.145 0 0 0.15 0 0.02 0.15 0 0.04 0.15 0 0.06 0.15 0 0.08 0.15 0 0.1 0.15 0 0 0.155 0 0.02 0.155 0 0.04 0.155 0 0.06 0.155 0 0.08 0.155 0 0.1 0.155 0 0 0.16 0 0.02 0.16 0 0.04 0.16 0 0.06 0.16 0 0.08 0.16 0 0.1 0.16 0 0 0.165 0 0.02 0.165 0 0.04 0.165 0 0.06 0.165 0 0.08 0.165 0 0.1 0.165 0 0 0.17 0 0.02 0.17 0 0.04 0.17 0 0.06 0.17 0 0.08 0.17 0 0.1 0.17 0 0 0.175 0 0.02 0.175 0 0.04 0.175 0 0.06 0.175 0 0.08 0.175 0 0.1 0.175 0 0 0.18 0 0.02 0.18 0 0.04 0.18 0 0.06 0.18 0 0.08 0.18 0 0.1 0.18 0 0 0.185 0 0.02 0.185 0 0.04 0.185 0 0.06 0.185 0 0.08 0.185 0 0.1 0.185 0 0 0.19 0 0.02 0.19 0 0.04 0.19 0 0.06 0.19 0 0.08 0.19 0 0.1 0.19 0 0 0.195 0 0.02 0.195 0 0.04 0.195 0 0.06 0.195 0 0.08 0.195 0 0.1 0.195 0 0 0.2 0 0.02 0.2 0 0.04 0.2 0 0.06 0.2 0 0.08 0.2 0 0.1 0.2 0 0 0.205 0 0.02 0.205 0 0.04 0.205 0 0.06 0.205 0 0.08 0.205 0 0.1 0.205 0 0 0.21 0 0.02 0.21 0 0.04 0.21 0 0.06 0.21 0 0.08 0.21 0 0.1 0.21 0 0 0.215 0 0.02 0.215 0 0.04 0.215 0 0.06 0.215 0 0.08 0.215 0 0.1 0.215 0 0 0.22 0 0.02 0.22 0 0.04 0.22 0 0.06 0.22 0 0.08 0.22 0 0.1 0.22 0 0 0.225 0 0.02 0.225 0 0.04 0.225 0 0.06 0.225 0 0.08 0.225 0 0.1 0.225 0 0 0.23 0 0.02 0.23 0 0.04 0.23 0 0.06 0.23 0 0.08 0.23 0 0.1 0.23 0 0 0.235 0 0.02 0.235 0 0.04 0.235 0 0.06 0.235 0 0.08 0.235 0 0.1 0.235 0 0 0.24 0 0.02 0.24 0 0.04 0.24 0 0.06 0.24 0 0.08 0.24 0 0.1 0.24 0 0 0.245 0 0.02 0.245 0 0.04 0.245 0 0.06 0.245 0 0.08 0.245 0 0.1 0.245 0 0 0.25 0 0.02 0.25 0 0.04 0.25 0 0.06 0.25 0 0.08 0.25 0 0.1 0.25 0 0 0.255 0 0.02 0.255 0 0.04 0.255 0 0.06 0.255 0 0.08 0.255 0 0.1 0.255 0 0 0.26 0 0.02 0.26 0 0.04 0.26 0 0.06 0.26 0 0.08 0.26 0 0.1 0.26 0 0 0.265 0 0.02 0.265 0 0.04 0.265 0 0.06 0.265 0 0.08 0.265 0 0.1 0.265 0 0 0.27 0 0.02 0.27 0 0.04 0.27 0 0.06 0.27 0 0.08 0.27 0 0.1 0.27 0 0 0.275 0 0.02 0.275 0 0.04 0.275 0 0.06 0.275 0 0.08 0.275 0 0.1 0.275 0 0 0.28 0 0.02 0.28 0 0.04 0.28 0 0.06 0.28 0 0.08 0.28 0 0.1 0.28 0 0 0.285 0 0.02 0.285 0 0.04 0.285 0 0.06 0.285 0 0.08 0.285 0 0.1 0.285 0 0 0.29 0 0.02 0.29 0 0.04 0.29 0 0.06 0.29 0 0.08 0.29 0 0.1 0.29 0 0 0.295 0 0.02 0.295 0 0.04 0.295 0 0.06 0.295 0 0.08 0.295 0 0.1 0.295 0 0 0.3 0 0.02 0.3 0 0.04 0.3 0 0.06 0.3 0 0.08 0.3 0 0.1 0.3 0 0 0.305 0 0.02 0.305 0 0.04 0.305 0 0.06 0.305 0 0.08 0.305 0 0.1 0.305 0 0 0.31 0 0.02 0.31 0 0.04 0.31 0 0.06 0.31 0 0.08 0.31 0 0.1 0.31 0 0 0.315 0 0.02 0.315 0 0.04 0.315 0 0.06 0.315 0 0.08 0.315 0 0.1 0.315 0 0 0.32 0 0.02 0.32 0 0.04 0.32 0 0.06 0.32 0 0.08 0.32 0 0.1 0.32 0 0 0.325 0 0.02 0.325 0 0.04 0.325 0 0.06 0.325 0 0.08 0.325 0 0.1 0.325 0 0 0.33 0 0.02 0.33 0 0.04 0.33 0 0.06 0.33 0 0.08 0.33 0 0.1 0.33 0 0 0.335 0 0.02 0.335 0 0.04 0.335 0 0.06 0.335 0 0.08 0.335 0 0.1 0.335 0 0 0.34 0 0.02 0.34 0 0.04 0.34 0 0.06 0.34 0 0.08 0.34 0 0.1 0.34 0 0 0.345 0 0.02 0.345 0 0.04 0.345 0 0.06 0.345 0 0.08 0.345 0 0.1 0.345 0 0 0.35 0 0.02 0.35 0 0.04 0.35 0 0.06 0.35 0 0.08 0.35 0 0.1 0.35 0 0 0.355 0 0.02 0.355 0 0.04 0.355 0 0.06 0.355 0 0.08 0.355 0 0.1 0.355 0 0 0.36 0 0.02 0.36 0 0.04 0.36 0 0.06 0.36 0 0.08 0.36 0 0.1 0.36 0 0 0.365 0 0.02 0.365 0 0.04 0.365 0 0.06 0.365 0 0.08 0.365 0 0.1 0.365 0 0 0.37 0 0.02 0.37 0 0.04 0.37 0 0.06 0.37 0 0.08 0.37 0 0.1 0.37 0 0 0.375 0 0.02 0.375 0 0.04 0.375 0 0.06 0.375 0 0.08 0.375 0 0.1 0.375 0 0 0.38 0 0.02 0.38 0 0.04 0.38 0 0.06 0.38 0 0.08 0.38 0 0.1 0.38 0 0 0.385 0 0.02 0.385 0 0.04 0.385 0 0.06 0.385 0 0.08 0.385 0 0.1 0.385 0 0 0.39 0 0.02 0.39 0 0.04 0.39 0 0.06 0.39 0 0.08 0.39 0 0.1 0.39 0 0 0.395 0 0.02 0.395 0 0.04 0.395 0 0.06 0.395 0 0.08 0.395 0 0.1 0.395 0 0 0.4 0 0.02 0.4 0 0.04 0.4 0 0.06 0.4 0 0.08 0.4 0 0.1 0.4 0 0 0.405 0 0.02 0.405 0 0.04 0.405 0 0.06 0.405 0 0.08 0.405 0 0.1 0.405 0 0 0.41 0 0.02 0.41 0 0.04 0.41 0 0.06 0.41 0 0.08 0.41 0 0.1 0.41 0 0 0.415 0 0.02 0.415 0 0.04 0.415 0 0.06 0.415 0 0.08 0.415 0 0.1 0.415 0 0 0.42 0 0.02 0.42 0 0.04 0.42 0 0.06 0.42 0 0.08 0.42 0 0.1 0.42 0 0 0.425 0 0.02 0.425 0 0.04 0.425 0 0.06 0.425 0 0.08 0.425 0 0.1 0.425 0 0 0.43 0 0.02 0.43 0 0.04 0.43 0 0.06 0.43 0 0.08 0.43 0 0.1 0.43 0 0 0.435 0 0.02 0.435 0 0.04 0.435 0 0.06 0.435 0 0.08 0.435 0 0.1 0.435 0 0 0.44 0 0.02 0.44 0 0.04 0.44 0 0.06 0.44 0 0.08 0.44 0 0.1 0.44 0 0 0.445 0 0.02 0.445 0 0.04 0.445 0 0.06 0.445 0 0.08 0.445 0 0.1 0.445 0 0 0.45 0 0.02 0.45 0 0.04 0.45 0 0.06 0.45 0 0.08 0.45 0 0.1 0.45 0 0 0.455 0 0.02 0.455 0 0.04 0.455 0 0.06 0.455 0 0.08 0.455 0 0.1 0.455 0 0 0.46 0 0.02 0.46 0 0.04 0.46 0 0.06 0.46 0 0.08 0.46 0 0.1 0.46 0 0 0.465 0 0.02 0.465 0 0.04 0.465 0 0.06 0.465 0 0.08 0.465 0 0.1 0.465 0 0 0.47 0 0.02 0.47 0 0.04 0.47 0 0.06 0.47 0 0.08 0.47 0 0.1 0.47 0 0 0.475 0 0.02 0.475 0 0.04 0.475 0 0.06 0.475 0 0.08 0.475 0 0.1 0.475 0 0 0.48 0 0.02 0.48 0 0.04 0.48 0 0.06 0.48 0 0.08 0.48 0 0.1 0.48 0 0 0.485 0 0.02 0.485 0 0.04 0.485 0 0.06 0.485 0 0.08 0.485 0 0.1 0.485 0 0 0.49 0 0.02 0.49 0 0.04 0.49 0 0.06 0.49 0 0.08 0.49 0 0.1 0.49 0 0 0.495 0 0.02 0.495 0 0.04 0.495 0 0.06 0.495 0 0.08 0.495 0 0.1 0.495 0 0 0.5 0 0.02 0.5 0 0.04 0.5 0 0.06 0.5 0 0.08 0.5 0 0.1 0.5 0 0 0.505 0 0.02 0.505 0 0.04 0.505 0 0.06 0.505 0 0.08 0.505 0 0.1 0.505 0 0 0.51 0 0.02 0.51 0 0.04 0.51 0 0.06 0.51 0 0.08 0.51 0 0.1 0.51 0 0 0.515 0 0.02 0.515 0 0.04 0.515 0 0.06 0.515 0 0.08 0.515 0 0.1 0.515 0 0 0.52 0 0.02 0.52 0 0.04 0.52 0 0.06 0.52 0 0.08 0.52 0 0.1 0.52 0 0 0.525 0 0.02 0.525 0 0.04 0.525 0 0.06 0.525 0 0.08 0.525 0 0.1 0.525 0 0 0.53 0 0.02 0.53 0 0.04 0.53 0 0.06 0.53 0 0.08 0.53 0 0.1 0.53 0 0 0.535 0 0.02 0.535 0 0.04 0.535 0 0.06 0.535 0 0.08 0.535 0 0.1 0.535 0 0 0.54 0 0.02 0.54 0 0.04 0.54 0 0.06 0.54 0 0.08 0.54 0 0.1 0.54 0 0 0.545 0 0.02 0.545 0 0.04 0.545 0 0.06 0.545 0 0.08 0.545 0 0.1 0.545 0 0 0.55 0 0.02 0.55 0 0.04 0.55 0 0.06 0.55 0 0.08 0.55 0 0.1 0.55 0 0 0.555 0 0.02 0.555 0 0.04 0.555 0 0.06 0.555 0 0.08 0.555 0 0.1 0.555 0 0 0.56 0 0.02 0.56 0 0.04 0.56 0 0.06 0.56 0 0.08 0.56 0 0.1 0.56 0 0 0.565 0 0.02 0.565 0 0.04 0.565 0 0.06 0.565 0 0.08 0.565 0 0.1 0.565 0 0 0.57 0 0.02 0.57 0 0.04 0.57 0 0.06 0.57 0 0.08 0.57 0 0.1 0.57 0 0 0.575 0 0.02 0.575 0 0.04 0.575 0 0.06 0.575 0 0.08 0.575 0 0.1 0.575 0 0 0.58 0 0.02 0.58 0 0.04 0.58 0 0.06 0.58 0 0.08 0.58 0 0.1 0.58 0 0 0.585 0 0.02 0.585 0 0.04 0.585 0 0.06 0.585 0 0.08 0.585 0 0.1 0.585 0 0 0.59 0 0.02 0.59 0 0.04 0.59 0 0.06 0.59 0 0.08 0.59 0 0.1 0.59 0 0 0.595 0 0.02 0.595 0 0.04 0.595 0 0.06 0.595 0 0.08 0.595 0 0.1 0.595 0 0 0.6 0 0.02 0.6 0 0.04 0.6 0 0.06 0.6 0 0.08 0.6 0 0.1 0.6 0 0 0.605 0 0.02 0.605 0 0.04 0.605 0 0.06 0.605 0 0.08 0.605 0 0.1 0.605 0 0 0.61 0 0.02 0.61 0 0.04 0.61 0 0.06 0.61 0 0.08 0.61 0 0.1 0.61 0 0 0.615 0 0.02 0.615 0 0.04 0.615 0 0.06 0.615 0 0.08 0.615 0 0.1 0.615 0 0 0.62 0 0.02 0.62 0 0.04 0.62 0 0.06 0.62 0 0.08 0.62 0 0.1 0.62 0 0 0.625 0 0.02 0.625 0 0.04 0.625 0 0.06 0.625 0 0.08 0.625 0 0.1 0.625 0 0 0.63 0 0.02 0.63 0 0.04 0.63 0 0.06 0.63 0 0.08 0.63 0 0.1 0.63 0 0 0.635 0 0.02 0.635 0 0.04 0.635 0 0.06 0.635 0 0.08 0.635 0 0.1 0.635 0 0 0.64 0 0.02 0.64 0 0.04 0.64 0 0.06 0.64 0 0.08 0.64 0 0.1 0.64 0 0 0.645 0 0.02 0.645 0 0.04 0.645 0 0.06 0.645 0 0.08 0.645 0 0.1 0.645 0 0 0.65 0 0.02 0.65 0 0.04 0.65 0 0.06 0.65 0 0.08 0.65 0 0.1 0.65 0 0 0.655 0 0.02 0.655 0 0.04 0.655 0 0.06 0.655 0 0.08 0.655 0 0.1 0.655 0 0 0.66 0 0.02 0.66 0 0.04 0.66 0 0.06 0.66 0 0.08 0.66 0 0.1 0.66 0 0 0.665 0 0.02 0.665 0 0.04 0.665 0 0.06 0.665 0 0.08 0.665 0 0.1 0.665 0 0 0.67 0 0.02 0.67 0 0.04 0.67 0 0.06 0.67 0 0.08 0.67 0 0.1 0.67 0 0 0.675 0 0.02 0.675 0 0.04 0.675 0 0.06 0.675 0 0.08 0.675 0 0.1 0.675 0 0 0.68 0 0.02 0.68 0 0.04 0.68 0 0.06 0.68 0 0.08 0.68 0 0.1 0.68 0 0 0.685 0 0.02 0.685 0 0.04 0.685 0 0.06 0.685 0 0.08 0.685 0 0.1 0.685 0 0 0.69 0 0.02 0.69 0 0.04 0.69 0 0.06 0.69 0 0.08 0.69 0 0.1 
[...]
			<PointData Scalars="VitesseX">
				<DataArray Name="VitesseX" type="Float32" format="ascii">
 0 3.20427e-16 -1.99695e-14 2.37928e-15 -2.15315e-14 0 0 -3.77739e-15 -1.15886e-14 -7.1174e-15 -1.45447e-14 0 0 -5.8868e-15 -3.18474e-15 -1.66347e-14 -7.86383e-15 0 0 3.04642e-15 -1.23789e-14 -7.32907e-15 -1.66166e-14 0 0 3.94772e-15 -7.36323e-15 -1.62973e-14 -1.18129e-14 0 0 2.96387e-17 7.03414e-15 -3.93692e-14 5.54888e-15 0 0 4.73846e-15 -3.26459e-16 -3.16728e-14 -5.50868e-16 0 0 1.38401e-14 -2.34735e-14 -1.21128e-15 -2.24258e-14 0 0 8.72261e-15 -1.87582e-14 -7.86983e-15 -1.80492e-14 0 0 -6.84305e-15 -1.95819e-15 -2.55235e-14 -5.60765e-15 0 0 -2.92092e-15 -1.96774e-14 -1.52313e-15 -2.01295e-14 0 0 -3.10997e-15 -1.55105e-14 -2.15745e-14 -1.15038e-15 0 0 -1.40207e-15 -3.1216e-14 -1.08961e-14 -9.25329e-15 0 0 -7.10992e-15 -3.656e-14 8.30279e-15 -2.94149e-14 0 0 -9.1913e-15 -2.19654e-14 -2.10599e-14 -3.63899e-15 0 0 -1.93447e-14 -9.50141e-16 -4.49989e-14 2.45272e-15 0 0 -1.01427e-14 -1.54724e-14 -3.60345e-14 6.8955e-15 0 0 1.78653e-15 -3.76406e-14 -3.46006e-14 4.14726e-14 0 0 -8.76809e-15 -3.30702e-14 -3.18976e-14 3.13385e-14 0 0 -1.06461e-14 -4.39168e-14 -2.98243e-15 -4.60477e-15 0 0 -6.51234e-14 3.51749e-14 -6.98778e-14 3.0196e-14 0 0 -6.14779e-14 2.94118e-14 -6.31866e-14 3.47966e-14 0 0 -1.41061e-14 -4.29427e-14 1.09995e-14 1.68307e-15 0 0 -3.9269e-14 8.67515e-15 -3.29703e-14 1.61746e-14 0 0 -1.33161e-14 -2.25143e-14 -5.60805e-15 -8.55814e-15 0 0 4.83874e-14 -1.24802e-13 1.05856e-13 -8.59579e-14 0 0 -9.24722e-15 -3.87086e-14 2.97769e-14 -5.55e-14 0 0 -3.55379e-14 1.14198e-15 -1.88521e-14 -3.02334e-14 0 0 -2.76088e-14 -2.09304e-14 -2.44884e-14 -5.46859e-15 0 0 -3.68198e-14 -2.96051e-14 -1.24406e-14 -1.62722e-14 0 0 3.60152e-15 -9.11634e-14 4.89989e-14 -6.49036e-14 0 0 -2.80311e-14 -3.75374e-14 -1.17709e-14 -3.07781e-14 0 0 -5.02582e-14 -1.34616e-14 -3.27504e-14 -2.30515e-14 0 0 -1.23516e-14 -4.95343e-14 -1.49069e-14 -1.91998e-14 0 0 -3.31077e-14 2.22078e-14 -1.05795e-13 4.95528e-14 0 0 -3.60951e-15 -2.44223e-14 -4.54843e-14 -2.25851e-14 0 0 5.00006e-15 -4.40217e-14 -2.7778e-15 -7.80907e-14 0 0 -1.24505e-14 1.17422e-14 -9.43225e-14 3.01664e-14 0 0 1.21458e-14 -2.16752e-14 -4.61246e-14 2.55466e-15 0 0 -1.04637e-14 -8.55128e-15 -6.41393e-16 -5.92462e-14 0 0 -7.0463e-15 -1.55164e-15 -4.23932e-14 -7.25026e-15 0 0 -3.75238e-15 1.43359e-14 -7.16673e-14 -3.91664e-16 0 0 -2.7062e-14 4.37541e-14 -7.53826e-14 -1.16158e-14 0 0 2.02284e-14 -3.70587e-14 -1.29631e-14 -2.42597e-14 0 0 -1.42896e-15 -2.4186e-14 2.63749e-15 -6.14166e-14 0 0 -3.22184e-14 1.38901e-14 2.23244e-14 -1.15985e-13 0 0 -2.35239e-15 1.96395e-14 6.18622e-14 -1.51242e-13 0 0 2.18336e-14 4.94756e-14 1.10563e-14 -7.8224e-14 0 0 -8.94062e-16 1.01419e-13 -4.79636e-14 -2.53862e-14 0 0 -5.92276e-14 1.91015e-13 -1.06603e-13 3.12246e-14 0 0 -8.56685e-14 2.09379e-13 -6.94766e-14 7.04416e-14 0 0 -6.17519e-14 1.74725e-13 -1.37608e-14 7.35568e-14 0 0 -2.5513e-14 1.12343e-13 8.17127e-15 9.36208e-14 0 0 -1.17239e-13 1.56654e-13 -2.32883e-14 1.26251e-13 0 0 -1.15079e-13 1.01741e-13 3.96024e-14 7.04893e-14 0 0 -3.95005e-14 5.86315e-14 1.46498e-14 7.1792e-14 0 0 2.51134e-14 4.11606e-14 -9.92347e-15 4.19152e-14 0 0 -2.90507e-14 1.31527e-13 -5.65472e-14 -4.67653e-14 0 0 -7.63316e-14 2.24524e-13 -1.47138e-13 -6.63048e-14 0 0 2.82622e-14 1.18271e-13 -1.0268e-13 -4.80959e-14 0 0 5.12124e-14 9.45265e-14 -1.12774e-13 2.23737e-14 0 0 1.27509e-14 7.66889e-14 -1.07094e-13 3.42934e-14 0 0 -4.62459e-14 1.17296e-13 -1.73767e-13 -1.34387e-14 0 0 2.31266e-14 4.26979e-14 -2.13343e-13 -5.61587e-14 0 0 1.47205e-13 -4.20175e-14 -1.94139e-13 -1.20952e-13 0 0 2.14711e-13 3.71007e-15 -2.03203e-13 -2.16001e-13 0 0 1.36576e-13 1.17407e-13 -2.56105e-13 -2.26877e-13 0 0 3.20519e-14 1.60964e-13 -2.39448e-13 -1.85662e-13 0 0 8.83175e-14 -1.59237e-14 -6.35143e-14 -2.08488e-13 0 0 2.40567e-14 3.03193e-14 -8.70143e-14 -2.1442e-13 0 0 -9.09513e-14 1.78798e-13 -2.09612e-13 -2.23907e-13 0 0 -1.0572e-13 2.20547e-13 -2.85934e-13 -2.41012e-13 0 0 -4.72421e-14 1.40841e-13 -2.72379e-13 -2.57606e-13 0 0 2.99557e-15 -1.67153e-14 -1.3194e-13 -3.41612e-13 0 0 -4.6103e-14 -5.44818e-14 -7.90226e-14 -3.44897e-13 0 0 -1.17556e-13 -3.43382e-14 -1.0397e-13 -2.38278e-13 0 0 -1.72137e-13 -1.61337e-14 -1.40674e-13 -7.86268e-14 0 0 -2.02204e-13 -3.48014e-14 -1.19841e-13 2.84703e-14 0 0 -2.23987e-13 -6.57494e-14 -6.85317e-14 5.11091e-14 0 0 -2.77071e-13 -4.55958e-14 -7.23795e-14 5.56372e-14 0 0 -3.52023e-13 1.01175e-14 -1.13019e-13 4.5604e-14 0 0 -4.0589e-13 4.67566e-14 -1.38973e-13 3.1068e-15 0 0 -4.12506e-13 3.61399e-14 -1.43283e-13 -4.44872e-14 0 0 -3.72538e-13 -2.79497e-14 -1.11526e-13 -9.96998e-14 0 0 -3.167e-13 -1.0881e-13 -7.5209e-14 -1.47778e-13 0 0 -2.78334e-13 -1.5495e-13 -7.62226e-14 -1.65542e-13 0 0 -2.57115e-13 -1.71401e-13 -1.05552e-13 -1.58345e-13 0 0 -2.41946e-13 -1.80236e-13 -1.50096e-13 -1.30935e-13 0 0 -2.37707e-13 -1.8984e-13 -1.76246e-13 -1.17067e-13 0 0 -2.49853e-13 -1.88619e-13 -1.86974e-13 -1.34838e-13 0 0 -2.737e-13 -1.73549e-13 -2.00887e-13 -1.69965e-13 0 0 -3.05849e-13 -1.5486e-13 -2.10148e-13 -2.1694e-13 0 0 -3.38213e-13 -1.41643e-13 -2.06313e-13 -2.80997e-13 0 0 -3.61998e-13 -1.35833e-13 -2.03889e-13 -3.35628e-13 0 0 -3.79397e-13 -1.28114e-13 -2.2328e-13 -3.48989e-13 0 0 -3.92671e-13 -1.24131e-13 -2.47928e-13 -3.32203e-13 0 0 -3.98065e-13 -1.35535e-13 -2.59983e-13 -3.00698e-13 0 0 -4.01061e-13 -1.51972e-13 -2.68885e-13 -2.58725e-13 0 0 -4.06055e-13 -1.64313e-13 -2.82567e-13 -2.04931e-13 0 0 -4.08461e-13 -1.83497e-13 -2.90205e-13 -1.4672e-13 0 0 -4.06373e-13 -2.12866e-13 -2.79125e-13 -1.13977e-13 0 0 -3.99398e-13 -2.47127e-13 -2.52037e-13 -1.01137e-13 0 0 -3.83581e-13 -2.78684e-13 -2.26741e-13 -8.70111e-14 0 0 -3.5752e-13 -3.05026e-13 -2.11179e-13 -6.53997e-14 0 0 -3.25607e-13 -3.23355e-13 -2.02949e-13 -3.8683e-14 0 0 -2.89788e-13 -3.29579e-13 -2.01191e-13 -1.34803e-14 0 0 -2.5152e-13 -3.26349e-13 -2.07368e-13 1.94965e-14 0 0 -2.10984e-13 -3.19983e-13 -2.13885e-13 5.79211e-14 0 0 -1.71242e-13 -3.12167e-13 -2.08311e-13 8.45893e-14 0 0 -1.32628e-13 -3.02606e-13 -1.90754e-13 9.48673e-14 0 0 -1.0138e-13 -2.84567e-13 -1.6898e-13 9.57454e-14 0 0 -7.96524e-14 -2.55505e-13 -1.60583e-13 1.18155e-13 0 0 -6.01929e-14 -2.33762e-13 -1.45386e-13 1.48039e-13 0 0 -4.40333e-14 -2.26755e-13 -9.79635e-14 1.46139e-13 0 0 -2.73051e-14 -2.3171e-13 -2.81581e-14 1.20224e-13 0 0 -1.78741e-14 -2.42695e-13 6.95464e-14 7.0467e-14 0 0 -2.80548e-14 -2.16304e-13 1.15263e-13 6.90553e-14 0 0 -2.35692e-14 -1.79353e-13 7.34158e-14 1.38525e-13 0 0 -2.0848e-14 -1.16045e-13 1.49654e-14 1.7747e-13 0 0 -3.78252e-14 -4.59368e-14 -2.56903e-14 2.11917e-13 0 0 -3.58912e-14 -3.24195e-14 -2.8682e-14 2.18579e-13 0 0 -2.53179e-14 -2.57832e-14 -8.1685e-15 1.89435e-13 0 0 -1.64118e-14 -2.18706e-14 2.46271e-14 1.59317e-13 0 0 -1.53944e-14 -4.94053e-16 2.89467e-14 1.26098e-13 0 0 -1.82973e-14 2.5023e-14 2.58266e-14 1.07813e-13 0 0 -1.01828e-14 1.3714e-14 6.49078e-14 7.67829e-14 0 0 -2.46712e-14 2.39293e-14 4.40716e-14 9.92167e-14 0 0 -2.4008e-14 2.09908e-14 3.96019e-14 4.65178e-14 0 0 -7.00352e-15 -1.23015e-14 6.91714e-14 5.94004e-15 0 0 -5.1159e-15 -3.21034e-14 5.26674e-14 4.30928e-14 0 0 -8.15917e-15 -1.9387e-14 4.52897e-15 5.274e-14 0 0 -1.41488e-14 -6.43093e-15 -4.75484e-14 8.10789e-14 0 0 -7.52607e-16 -4.38261e-14 -4.12566e-14 5.34114e-14 0 0 5.56539e-15 -6.40953e-14 -6.25353e-14 4.72379e-14 0 0 -2.38196e-14 -4.60553e-14 -9.31307e-14 4.03211e-14 0 0 -5.554e-14 -2.30818e-14 -1.08813e-13 9.38526e-15 0 0 -6.01601e-14 -6.56138e-14 -4.51166e-14 -9.01286e-14 0 0 -5.82289e-14 -8.19122e-14 -5.68896e-14 -7.21984e-14 0 0 -4.32747e-14 -8.89041e-14 -1.03959e-13 -1.86772e-14 0 0 -2.41853e-14 -1.45632e-13 -5.97059e-14 -7.70164e-14 0 0 -3.67058e-14 -1.34225e-13 -7.67317e-14 -1.0397e-13 0 0 -4.80983e-14 -1.30701e-13 -8.19997e-14 -1.03709e-13 0 0 -6.10107e-14 -1.3485e-13 -9.47386e-14 -7.94807e-14 0 0 -6.89334e-14 -1.1088e-13 -1.69525e-13 -2.37678e-14 0 0 -7.00039e-14 -1.13763e-13 -1.96304e-13 2.93772e-14 0 0 -9.24846e-14 -1.16576e-13 -1.72199e-13 -4.57849e-14 0 0 -9.53736e-14 -1.20524e-13 -2.0032e-13 -1.10535e-13 0 0 -9.6494e-14 -1.53506e-13 -2.08236e-13 -1.63191e-13 0 0 -8.90129e-14 -1.79536e-13 -1.96751e-13 -3.12483e-13 0 0 -6.42856e-14 -1.68677e-13 -2.67262e-13 -4.04239e-13 0 0 -6.92805e-14 -1.33569e-13 -3.15806e-13 -3.94719e-13 0 0 -6.06437e-14 -1.32633e-13 -2.25532e-13 -3.59458e-13 0 0 -2.31579e-14 -1.43846e-13 -1.80788e-13 -1.08369e-13 0 0 -3.37672e-14 -6.6245e-14 -1.62436e-13 1.55965e-13 0 0 -3.95626e-14 -2.84476e-14 -5.16858e-14 1.28569e-13 0 0 -3.98134e-14 -5.08817e-16 -3.51092e-14 1.34521e-13 0 0 -7.37147e-14 8.6772e-14 -2.44515e-14 4.33953e-14 0 0 -1.01479e-13 1.55218e-13 -5.61457e-14 2.08141e-14 0 0 -6.08562e-14 9.44433e-14 1.13825e-14 1.22286e-13 0 0 4.62169e-15 -2.36283e-14 1.4836e-13 6.52766e-14 0 0 1.36631e-14 -5.67987e-14 2.07002e-13 2.05263e-14 0 0 -5.90216e-14 2.95098e-14 1.46377e-13 1.42906e-13 0 0 -1.75276e-13 1.94149e-13 3.96481e-15 2.07959e-13 0 0 -1.61251e-13 2.0551e-13 3.00976e-14 1.33017e-13 0 0 -3.56732e-14 -4.36993e-15 2.18991e-13 1.11965e-13 0 0 -3.97076e-14 -2.32841e-14 2.64979e-13 1.20562e-13 0 0 -6.37624e-14 6.49982e-14 1.56258e-13 1.77568e-13 0 0 1.91115e-16 2.99486e-14 1.59062e-13 1.89905e-13 0 0 -3.09494e-14 1.03657e-13 1.48903e-13 1.84488e-13 0 0 -7.3387e-14 1.84565e-13 1.25465e-13 1.55586e-13 0 0 -7.90843e-16 1.18863e-13 1.35913e-13 2.55242e-13 0 0 4.18087e-14 2.38951e-14 2.53161e-13 2.26973e-13 0 0 5.0233e-14 4.43493e-14 3.11092e-13 1.00572e-13 0 0 5.37673e-14 1.38917e-13 2.59648e-13 1.3519e-13 0 0 6.18882e-14 1.75932e-13 2.73832e-13 1.18759e-13 0 0 8.26678e-14 1.55465e-13 2.75635e-13 1.10008e-13 0 0 4.23412e-14 1.99015e-13 2.49272e-13 1.63508e-13 0 0 9.40661e-14 1.34995e-13 3.62518e-13 5.27217e-14 0 0 8.83474e-14 1.86591e-13 3.11442e-13 -1.51452e-14 0 0 -3.4006e-14 3.6376e-13 2.08387e-13 -7.08071e-15 0 0 1.23681e-13 1.10904e-13 3.72907e-13 5.79295e-16 0 0 1.46923e-13 1.37142e-13 8.52611e-14 3.25435e-13 0 0 3.434e-14 3.97258e-13 -3.2828e-13 6.19245e-13 0 0 1.22348e-13 2.41804e-13 -1.82831e-13 5.06023e-13 0 0 2.15024e-13 1.4778e-15 2.19253e-13 8.61097e-14 0 0 1.3168e-13 7.68471e-14 2.74107e-13 -7.73779e-14 0 0 1.33313e-13 7.95116e-14 1.77839e-13 6.49112e-14 0 0 9.8542e-14 8.62834e-14 1.21097e-13 1.80782e-13 0 0 -1.23747e-13 3.82701e-13 -7.42036e-14 2.3803e-13 0 0 -1.67859e-13 3.46843e-13 1.56905e-13 -4.75089e-15 0 0 1.353e-13 -1.20109e-13 5.66962e-13 -1.83609e-13 0 0 5.59368e-14 1.05194e-13 2.06801e-13 5.70467e-14 0 0 -1.27226e-13 3.13036e-13 1.22578e-13 -2.48598e-14 0 0 1.85027e-13 -1.13339e-13 4.53601e-13 -2.50281e-13 0 0 2.80213e-13 -3.47477e-13 6.67372e-13 -4.04499e-13 0 0 -2.53458e-14 -2.65533e-14 5.10254e-13 -4.56247e-13 0 0 -3.22419e-14 -4.38063e-14 3.43198e-13 -2.31473e-13 0 0 4.8732e-13 -7.68305e-13 6.02257e-13 -7.30972e-14 0 0 3.69425e-13 -5.12779e-13 1.74748e-13 2.86931e-13 0 0 2.43765e-13 -3.55195e-13 -1.22669e-13 6.23144e-13 0 0 4.94178e-13 -7.04447e-13 1.83058e-14 6.83914e-13 0
				</DataArray>
				<DataArray Name="VitesseY" type="Float32" format="ascii">