<?xml version="1.0"?>
<VTKFile type="PolyData">
	<PolyData>
		<Piece NumberOfPoints="1206" NumberOfPolys="1000">
			<Points>
				<DataArray type="Float32" NumberOfComponents="3" format="ascii">
 0 0 0 0.02 0 0 0.04 0 0 0.06 0 0 0.08 0 0 0.1 0 0 0 0.005 0 0.02 0.005 0 0.04 0.005 0 0.06 0.005 0 0.08 0.005 0 0.1 0.005 0 0 0.01 0 0.02 0.01 0 0.04 0.01 0 0.06 0.01 0 0.08 0.01 0 0.1 0.01 0 0 0.015 0 0.02 0.015 0 0.04 0.015 0 0.06 0.015 0 0.08 0.015 0 0.1 0.015 0 0 0.02 0 0.02 0.02 0 0.04 0.02 0 0.06 0.02 0 0.08 0.02 0 0.1 0.02 0 0 0.025 0 0.02 0.025 0 0.04 0.025 0 0.06 0.025 0 0.08 0.025 0 0.1 0.025 0 0 0.03 0 0.02 0.03 0 0.04 0.03 0 0.06 0.03 0 0.08 0.03 0 0.1 0.03 0 0 0.035 0 0.02 0.035 0 0.04 0.035 0 0.06 0.035 0 0.08 0.035 0 0.1 0.035 0 0 0.04 0 0.02 0.04 0 0.04 0.04 0 0.06 0.04 0 0.08 0.04 0 0.1 0.04 0 0 0.045 0 0.02 0.045 0 0.04 0.045 0 0.06 0.045 0 0.08 0.045 0 0.1 0.045 0 0 0.05 0 0.02 0.05 0 0.04 0.05 0 0.06 0.05 0 0.08 0.05 0 0.1 0.05 0 0 0.055 0 0.02 0.055 0 0.04 0.055 0 0.06 0.055 0 0.08 0.055 0 0.1 0.055 0 0 0.06 0 0.02 0.06 0 0.04 0.06 0 0.06 0.06 0 0.08 0.06 0 0.1 0.06 0 0 0.065 0 0.02 0.065 0 0.04 0.065 0 0.06 0.065 0 0.08 0.065 0 0.1 0.065 0 0 0.07 0 0.02 0.07 0 0.04 0.07 0 0.06 0.07 0 0.08 0.07 0 0.1 0.07 0 0 0.075 0 0.02 0.075 0 0.04 0.075 0 0.06 0.075 0 0.08 0.075 0 0.1 0.075 0 0 0.08 0 0.02 0.08 0 0.04 0.08 0 0.06 0.08 0 0.08 0.08 0 0.1 0.08 0 0 0.085 0 0.02 0.085 0 0.04 0.085 0 0.06 0.085 0 0.08 0.085 0 0.1 0.085 0 0 0.09 0 0.02 0.09 0 0.04 0.09 0 0.06 0.09 0 0.08 0.09 0 0.1 0.09 0 0 0.095 0 0.02 0.095 0 0.04 0.095 0 0.06 0.095 0 0.08 0.095 0 0.1 0.095 0 0 0.1 0 0.02 0.1 0 0.04 0.1 0 0.06 0.1 0 0.08 0.1 0 0.1 0.1 0 0 0.105 0 0.02 0.105 0 0.04 0.105 0 0.06 0.105 0 0.08 0.105 0 0.1 0.105 0 0 0.11 0 0.02 0.11 0 0.04 0.11 0 0.06 0.11 0 0.08 0.11 0 0.1 0.11 0 0 0.115 0 0.02 0.115 0 0.04 0.115 0 0.06 0.115 0 0.08 0.115 0 0.1 0.115 0 0 0.12 0 0.02 0.12 0 0.04 0.12 0 0.06 0.12 0 0.08 0.12 0 0.1 0.12 0 0 0.125 0 0.02 0.125 0 0.04 0.125 0 0.06 0.125 0 0.08 0.125 0 0.1 0.125 0 0 0.13 0 0.02 0.13 0 0.04 0.13 0 0.06 0.13 0 0.08 0.13 0 0.1 0.13 0 0 0.135 0 0.02 0.135 0 0.04 0.135 0 0.06 0.135 0 0.08 0.135 0 0.1 0.135 0 0 0.14 0 0.02 0.14 0 0.04 0.14 0 0.06 0.14 0 0.08 0.14 0 0.1 0.14 0 0 0.145 0 0.02 0.145 0 0.04 0.145 0 0.06 0.145 0 0.08 0.145 0 0.1 0.145 0 0 0.15 0 0.02 0.15 0 0.04 0.15 0 0.06 0.15 0 0.08 0.15 0 0.1 0.15 0 0 0.155 0 0.02 0.155 0 0.04 0.155 0 0.06 0.155 0 0.08 0.155 0 0.1 0.155 0 0 0.16 0 0.02 0.16 0 0.04 0.16 0 0.06 0.16 0 0.08 0.16 0 0.1 0.16 0 0 0.165 0 0.02 0.165 0 0.04 0.165 0 0.06 0.165 0 0.08 0.165 0 0.1 0.165 0 0 0.17 0 0.02 0.17 0 0.04 0.17 0 0.06 0.17 0 0.08 0.17 0 0.1 0.17 0 0 0.175 0 0.02 0.175 0 0.04 0.175 0 0.06 0.175 0 0.08 0.175 0 0.1 0.175 0 0 0.18 0 0.02 0.18 0 0.04 0.18 0 0.06 0.18 0 0.08 0.18 0 0.1 0.18 0 0 0.185 0 0.02 0.185 0 0.04 0.185 0 0.06 0.185 0 0.08 0.185 0 0.1 0.185 0 0 0.19 0 0.02 0.19 0 0.04 0.19 0 0.06 0.19 0 0.08 0.19 0 0.1 0.19 0 0 0.195 0 0.02 0.195 0 0.04 0.195 0 0.06 0.195 0 0.08 0.195 0 0.1 0.195 0 0 0.2 0 0.02 0.2 0 0.04 0.2 0 0.06 0.2 0 0.08 0.2 0 0.1 0.2 0 0 0.205 0 0.02 0.205 0 0.04 0.205 0 0.06 0.205 0 0.08 0.205 0 0.1 0.205 0 0 0.21 0 0.02 0.21 0 0.04 0.21 0 0.06 0.21 0 0.08 0.21 0 0.1 0.21 0 0 0.215 0 0.02 0.215 0 0.04 0.215 0 0.06 0.215 0 0.08 0.215 0 0.1 0.215 0 0 0.22 0 0.02 0.22 0 0.04 0.22 0 0.06 0.22 0 0.08 0.22 0 0.1 0.22 0 0 0.225 0 0.02 0.225 0 0.04 0.225 0 0.06 0.225 0 0.08 0.225 0 0.1 0.225 0 0 0.23 0 0.02 0.23 0 0.04 0.23 0 0.06 0.23 0 0.08 0.23 0 0.1 0.23 0 0 0.235 0 0.02 0.235 0 0.04 0.235 0 0.06 0.235 0 0.08 0.235 0 0.1 0.235 0 0 0.24 0 0.02 0.24 0 0.04 0.24 0 0.06 0.24 0 0.08 0.24 0 0.1 0.24 0 0 0.245 0 0.02 0.245 0 0.04 0.245 0 0.06 0.245 0 0.08 0.245 0 0.1 0.245 0 0 0.25 0 0.02 0.25 0 0.04 0.25 0 0.06 0.25 0 0.08 0.25 0 0.1 0.25 0 0 0.255 0 0.02 0.255 0 0.04 0.255 0 0.06 0.255 0 0.08 0.255 0 0.1 0.255 0 0 0.26 0 0.02 0.26 0 0.04 0.26 0 0.06 0.26 0 0.08 0.26 0 0.1 0.26 0 0 0.265 0 0.02 0.265 0 0.04 0.265 0 0.06 0.265 0 0.08 0.265 0 0.1 0.265 0 0 0.27 0 0.02 0.27 0 0.04 0.27 0 0.06 0.27 0 0.08 0.27 0 0.1 0.27 0 0 0.275 0 0.02 0.275 0 0.04 0.275 0 0.06 0.275 0 0.08 0.275 0 0.1 0.275 0 0 0.28 0 0.02 0.28 0 0.04 0.28 0 0.06 0.28 0 0.08 0.28 0 0.1 0.28 0 0 0.285 0 0.02 0.285 0 0.04 0.285 0 0.06 0.285 0 0.08 0.285 0 0.1 0.285 0 0 0.29 0 0.02 0.29 0 0.04 0.29 0 0.06 0.29 0 0.08 0.29 0 0.1 0.29 0 0 0.295 0 0.02 0.295 0 0.04 0.295 0 0.06 0.295 0 0.08 0.295 0 0.1 0.295 0 0 0.3 0 0.02 0.3 0 0.04 0.3 0 0.06 0.3 0 0.08 0.3 0 0.1 0.3 0 0 0.305 0 0.02 0.305 0 0.04 0.305 0 0.06 0.305 0 0.08 0.305 0 0.1 0.305 0 0 0.31 0 0.02 0.31 0 0.04 0.31 0 0.06 0.31 0 0.08 0.31 0 0.1 0.31 0 0 0.315 0 0.02 0.315 0 0.04 0.315 0 0.06 0.315 0 0.08 0.315 0 0.1 0.315 0 0 0.32 0 0.02 0.32 0 0.04 0.32 0 0.06 0.32 0 0.08 0.32 0 0.1 0.32 0 0 0.325 0 0.02 0.325 0 0.04 0.325 0 0.06 0.325 0 0.08 0.325 0 0.1 0.325 0 0 0.33 0 0.02 0.33 0 0.04 0.33 0 0.06 0.33 0 0.08 0.33 0 0.1 0.33 0 0 0.335 0 0.02 0.335 0 0.04 0.335 0 0.06 0.335 0 0.08 0.335 0 0.1 0.335 0 0 0.34 0 0.02 0.34 0 0.04 0.34 0 0.06 0.34 0 0.08 0.34 0 0.1 0.34 0 0 0.345 0 0.02 0.345 0 0.04 0.345 0 0.06 0.345 0 0.08 0.345 0 0.1 0.345 0 0 0.35 0 0.02 0.35 0 0.04 0.35 0 0.06 0.35 0 0.08 0.35 0 0.1 0.35 0 0 0.355 0 0.02 0.355 0 0.04 0.355 0 0.06 0.355 0 0.08 0.355 0 0.1 0.355 0 0 0.36 0 0.02 0.36 0 0.04 0.36 0 0.06 0.36 0 0.08 0.36 0 0.1 0.36 0 0 0.365 0 0.02 0.365 0 0.04 0.365 0 0.06 0.365 0 0.08 0.365 0 0.1 0.365 0 0 0.37 0 0.02 0.37 0 0.04 0.37 0 0.06 0.37 0 0.08 0.37 0 0.1 0.37 0 0 0.375 0 0.02 0.375 0 0.04 0.375 0 0.06 0.375 0 0.08 0.375 0 0.1 0.375 0 0 0.38 0 0.02 0.38 0 0.04 0.38 0 0.06 0.38 0 0.08 0.38 0 0.1 0.38 0 0 0.385 0 0.02 0.385 0 0.04 0.385 0 0.06 0.385 0 0.08 0.385 0 0.1 0.385 0 0 0.39 0 0.02 0.39 0 0.04 0.39 0 0.06 0.39 0 0.08 0.39 0 0.1 0.39 0 0 0.395 0 0.02 0.395 0 0.04 0.395 0 0.06 0.395 0 0.08 0.395 0 0.1 0.395 0 0 0.4 0 0.02 0.4 0 0.04 0.4 0 0.06 0.4 0 0.08 0.4 0 0.1 0.4 0 0 0.405 0 0.02 0.405 0 0.04 0.405 0 0.06 0.405 0 0.08 0.405 0 0.1 0.405 0 0 0.41 0 0.02 0.41 0 0.04 0.41 0 0.06 0.41 0 0.08 0.41 0 0.1 0.41 0 0 0.415 0 0.02 0.415 0 0.04 0.415 0 0.06 0.415 0 0.08 0.415 0 0.1 0.415 0 0 0.42 0 0.02 0.42 0 0.04 0.42 0 0.06 0.42 0 0.08 0.42 0 0.1 0.42 0 0 0.425 0 0.02 0.425 0 0.04 0.425 0 0.06 0.425 0 0.08 0.425 0 0.1 0.425 0 0 0.43 0 0.02 0.43 0 0.04 0.43 0 0.06 0.43 0 0.08 0.43 0 0.1 0.43 0 0 0.435 0 0.02 0.435 0 0.04 0.435 0 0.06 0.435 0 0.08 0.435 0 0.1 0.435 0 0 0.44 0 0.02 0.44 0 0.04 0.44 0 0.06 0.44 0 0.08 0.44 0 0.1 0.44 0 0 0.445 0 0.02 0.445 0 0.04 0.445 0 0.06 0.445 0 0.08 0.445 0 0.1 0.445 0 0 0.45 0 0.02 0.45 0 0.04 0.45 0 0.06 0.45 0 0.08 0.45 0 0.1 0.45 0 0 0.455 0 0.02 0.455 0 0.04 0.455 0 0.06 0.455 0 0.08 0.455 0 0.1 0.455 0 0 0.46 0 0.02 0.46 0 0.04 0.46 0 0.06 0.46 0 0.08 0.46 0 0.1 0.46 0 0 0.465 0 0.02 0.465 0 0.04 0.465 0 0.06 0.465 0 0.08 0.465 0 0.1 0.465 0 0 0.47 0 0.02 0.47 0 0.04 0.47 0 0.06 0.47 0 0.08 0.47 0 0.1 0.47 0 0 0.475 0 0.02 0.475 0 0.04 0.475 0 0.06 0.475 0 0.08 0.475 0 0.1 0.475 0 0 0.48 0 0.02 0.48 0 0.04 0.48 0 0.06 0.48 0 0.08 0.48 0 0.1 0.48 0 0 0.485 0 0.02 0.485 0 0.04 0.485 0 0.06 0.485 0 0.08 0.485 0 0.1 0.485 0 0 0.49 0 0.02 0.49 0 0.04 0.49 0 0.06 0.49 0 0.08 0.49 0 0.1 0.49 0 0 0.495 0 0.02 0.495 0 0.04 0.495 0 0.06 0.495 0 0.08 0.495 0 0.1 0.495 0 0 0.5 0 0.02 0.5 0 0.04 0.5 0 0.06 0.5 0 0.08 0.5 0 0.1 0.5 0 0 0.505 0 0.02 0.505 0 0.04 0.505 0 0.06 0.505 0 0.08 0.505 0 0.1 0.505 0 0 0.51 0 0.02 0.51 0 0.04 0.51 0 0.06 0.51 0 0.08 0.51 0 0.1 0.51 0 0 0.515 0 0.02 0.515 0 0.04 0.515 0 0.06 0.515 0 0.08 0.515 0 0.1 0.515 0 0 0.52 0 0.02 0.52 0 0.04 0.52 0 0.06 0.52 0 0.08 0.52 0 0.1 0.52 0 0 0.525 0 0.02 0.525 0 0.04 0.525 0 0.06 0.525 0 0.08 0.525 0 0.1 0.525 0 0 0.53 0 0.02 0.53 0 0.04 0.53 0 0.06 0.53 0 0.08 0.53 0 0.1 0.53 0 0 0.535 0 0.02 0.535 0 0.04 0.535 0 0.06 0.535 0 0.08 0.535 0 0.1 0.535 0 0 0.54 0 0.02 0.54 0 0.04 0.54 0 0.06 0.54 0 0.08 0.54 0 0.1 0.54 0 0 0.545 0 0.02 0.545 0 0.04 0.545 0 0.06 0.545 0 0.08 0.545 0 0.1 0.545 0 0 0.55 0 0.02 0.55 0 0.04 0.55 0 0.06 0.55 0 0.08 0.55 0 0.1 0.55 0 0 0.555 0 0.02 0.555 0 0.04 0.555 0 0.06 0.555 0 0.08 0.555 0 0.1 0.555 0 0 0.56 0 0.02 0.56 0 0.04 0.56 0 0.06 0.56 0 0.08 0.56 0 0.1 0.56 0 0 0.565 0 0.02 0.565 0 0.04 0.565 0 0.06 0.565 0 0.08 0.565 0 0.1 0.565 0 0 0.57 0 0.02 0.57 0 0.04 0.57 0 0.06 0.57 0 0.08 0.57 0 0.1 0.57 0 0 0.575 0 0.02 0.575 0 0.04 0.575 0 0.06 0.575 0 0.08 0.575 0 0.1 0.575 0 0 0.58 0 0.02 0.58 0 0.04 0.58 0 0.06 0.58 0 0.08 0.58 0 0.1 0.58 0 0 0.585 0 0.02 0.585 0 0.04 0.585 0 0.06 0.585 0 0.08 0.585 0 0.1 0.585 0 0 0.59 0 0.02 0.59 0 0.04 0.59 0 0.06 0.59 0 0.08 0.59 0 0.1 0.59 0 0 0.595 0 0.02 0.595 0 0.04 0.595 0 0.06 0.595 0 0.08 0.595 0 0.1 0.595 0 0 0.6 0 0.02 0.6 0 0.04 0.6 0 0.06 0.6 0 0.08 0.6 0 0.1 0.6 0 0 0.605 0 0.02 0.605 0 0.04 0.605 0 0.06 0.605 0 0.08 0.605 0 0.1 0.605 0 0 0.61 0 0.02 0.61 0 0.04 0.61 0 0.06 0.61 0 0.08 0.61 0 0.1 0.61 0 0 0.615 0 0.02 0.615 0 0.04 0.615 0 0.06 0.615 0 0.08 0.615 0 0.1 0.615 0 0 0.62 0 0.02 0.62 0 0.04 0.62 0 0.06 0.62 0 0.08 0.62 0 0.1 0.62 0 0 0.625 0 0.02 0.625 0 0.04 0.625 0 0.06 0.625 0 0.08 0.625 0 0.1 0.625 0 0 0.63 0 0.02 0.63 0 0.04 0.63 0 0.06 0.63 0 0.08 0.63 0 0.1 0.63 0 0 0.635 0 0.02 0.635 0 0.04 0.635 0 0.06 0.635 0 0.08 0.635 0 0.1 0.635 0 0 0.64 0 0.02 0.64 0 0.04 0.64 0 0.06 0.64 0 0.08 0.64 0 0.1 0.64 0 0 0.645 0 0.02 0.645 0 0.04 0.645 0 0.06 0.645 0 0.08 0.645 0 0.1 0.645 0 0 0.65 0 0.02 0.65 0 0.04 0.65 0 0.06 0.65 0 0.08 0.65 0 0.1 0.65 0 0 0.655 0 0.02 0.655 0 0.04 0.655 0 0.06 0.655 0 0.08 0.655 0 0.1 0.655 0 0 0.66 0 0.02 0.66 0 0.04 0.66 0 0.06 0.66 0 0.08 0.66 0 0.1 0.66 0 0 0.665 0 0.02 0.665 0 0.04 0.665 0 0.06 0.665 0 0.08 0.665 0 0.1 0.665 0 0 0.67 0 0.02 0.67 0 0.04 0.67 0 0.06 0.67 0 0.08 0.67 0 0.1 0.67 0 0 0.675 0 0.02 0.675 0 0.04 0.675 0 0.06 0.675 0 0.08 0.675 0 0.1 0.675 0 0 0.68 0 0.02 0.68 0 0.04 0.68 0 0.06 0.68 0 0.08 0.68 0 0.1 0.68 0 0 0.685 0 0.02 0.685 0 0.04 0.685 0 0.06 0.685 0 0.08 0.685 0 0.1 0.685 0 0 0.69 0 0.02 0.69 0 0.04 0.69 0 0.06 0.69 0 0.08 0.69 0 0.1 
[...]
			<PointData Scalars="VitesseX">
				<DataArray Name="VitesseX" type="Float32" format="ascii">
 0 2.34677e-14 -1.63885e-14 1.17366e-14 -3.74269e-15 0 0 1.85803e-14 -2.90246e-15 -4.85906e-15 1.416e-14 0 0 1.76891e-14 4.88887e-15 -5.64042e-15 2.21099e-14 0 0 2.10155e-14 2.65298e-15 1.59804e-14 6.85018e-15 0 0 -4.83529e-15 4.54511e-14 -3.872e-15 1.39607e-14 0 0 -1.32401e-14 6.07928e-14 3.53167e-16 7.68016e-15 0 0 4.13096e-14 -8.64464e-15 6.55593e-14 -2.92248e-14 0 0 6.52622e-14 -2.4132e-14 7.40731e-14 -4.03274e-14 0 0 5.49673e-14 -1.41989e-16 4.76912e-14 -2.75868e-14 0 0 2.48319e-14 4.39219e-14 -3.58467e-15 1.08237e-14 0 0 1.34039e-14 6.32788e-14 -3.52045e-14 2.8683e-14 0 0 3.71458e-14 3.12771e-14 -1.98184e-14 1.84833e-14 0 0 6.43065e-14 -6.77662e-16 1.47143e-14 -9.66818e-15 0 0 6.26526e-14 7.89255e-15 1.8419e-14 -1.63209e-14 0 0 3.86008e-14 4.78999e-14 -1.41287e-14 1.1566e-14 0 0 6.5627e-14 2.35332e-15 4.15626e-14 -2.16627e-14 0 0 4.01088e-14 3.5273e-14 1.72763e-14 -4.47115e-15 0 0 6.83266e-15 5.76236e-14 1.54464e-14 5.43723e-15 0 0 9.88819e-15 5.44841e-14 2.60893e-15 1.79021e-14 0 0 3.64974e-14 3.61852e-14 -1.60273e-14 3.29379e-14 0 0 9.24116e-14 -6.54816e-14 7.75112e-14 -1.24948e-14 0 0 8.09216e-14 -5.15478e-14 5.74182e-14 1.72901e-14 0 0 5.05363e-15 7.77975e-14 -7.0678e-14 9.26977e-14 0 0 -6.69802e-15 1.24639e-13 -1.42035e-13 1.45902e-13 0 0 8.01339e-14 -2.18986e-14 1.30177e-14 6.09599e-14 0 0 1.57836e-13 -1.54806e-13 1.77943e-13 -3.74503e-14 0 0 8.7894e-14 -4.65332e-15 2.83876e-14 7.65539e-14 0 0 -5.58648e-15 1.72172e-13 -1.24335e-13 1.55509e-13 0 0 6.37416e-14 5.4723e-14 1.14842e-14 5.91368e-14 0 0 1.33467e-13 -4.38927e-14 7.93166e-14 1.30698e-14 0 0 1.38096e-13 -4.76004e-14 5.03187e-14 2.14481e-14 0 0 1.00919e-13 -3.69178e-14 6.14269e-14 -1.79688e-14 0 0 4.78527e-14 4.58014e-14 -1.65365e-14 -3.72022e-15 0 0 2.73925e-14 1.22465e-13 -1.29422e-13 7.84629e-14 0 0 1.07994e-13 -1.33126e-14 -1.53954e-14 1.99839e-14 0 0 1.62763e-13 -1.3201e-13 7.56286e-14 -3.19484e-14 0 0 7.43394e-14 -1.73322e-15 -5.56245e-14 2.69754e-14 0 0 4.53946e-15 1.28865e-13 -1.62691e-13 7.54224e-14 0 0 1.64261e-14 1.33443e-13 -1.66216e-13 8.24167e-14 0 0 5.13668e-14 5.68411e-14 -5.39482e-14 7.4321e-16 0 0 1.0428e-13 -4.66805e-14 8.29123e-14 -9.15977e-14 0 0 1.22692e-13 -7.01311e-14 1.09871e-13 -1.02195e-13 0 0 9.06483e-14 1.44422e-14 -9.21842e-16 2.97546e-15 0 0 1.96382e-13 -9.10895e-14 7.61137e-14 -2.79856e-15 0 0 3.05316e-13 -1.88489e-13 1.48373e-13 -3.63662e-14 0 0 2.04126e-13 3.50928e-14 -1.20657e-13 1.46208e-13 0 0 4.27388e-14 2.90267e-13 -3.37813e-13 2.62468e-13 0 0 8.51393e-14 2.30035e-13 -2.64678e-13 2.17104e-13 0 0 2.3031e-13 1.36397e-14 -1.09368e-13 1.82754e-13 0 0 4.06563e-13 -3.00307e-13 1.76502e-13 5.37316e-14 0 0 5.29672e-13 -5.76491e-13 4.55692e-13 -9.50092e-14 0 0 2.45385e-13 -2.23479e-13 1.55961e-13 3.49566e-14 0 0 -7.18007e-14 2.73518e-13 -3.44752e-13 2.92019e-13 0 0 5.39415e-14 1.5152e-13 -3.35166e-13 3.41673e-13 0 0 3.36616e-13 -2.22758e-13 -3.26486e-14 1.84531e-13 0 0 3.71947e-13 -2.21942e-13 -3.15711e-14 1.31664e-13 0 0 2.55423e-13 4.05114e-15 -2.12193e-13 1.77576e-13 0 0 1.95239e-13 4.70168e-14 -2.18406e-13 1.65205e-13 0 0 2.37723e-13 -8.72881e-14 -3.81892e-14 -2.59135e-14 0 0 2.51259e-13 -1.09838e-13 2.07945e-14 -1.50571e-13 0 0 2.36395e-13 -1.00866e-13 -2.10457e-14 -6.97943e-14 0 0 2.17253e-13 -7.68939e-14 -4.69813e-14 1.52238e-14 0 0 1.25513e-13 3.63924e-14 -7.17753e-14 2.58752e-14 0 0 1.58896e-13 -7.83274e-14 1.52944e-13 -1.3549e-13 0 0 1.40018e-13 -6.55458e-14 1.75365e-13 -1.48299e-13 0 0 2.02831e-14 1.14233e-13 5.09095e-14 -9.20646e-14 0 0 -1.34378e-14 2.09226e-13 -7.93481e-14 -9.54707e-15 0 0 1.9164e-13 -1.64199e-14 -5.47943e-14 -1.37498e-14 0 0 4.28243e-13 -3.76082e-13 2.70556e-13 -2.70977e-13 0 0 2.67251e-13 -8.73219e-14 1.1809e-14 -1.36563e-13 0 0 1.22791e-13 2.12768e-13 -3.23373e-13 1.25822e-13 0 0 2.51216e-13 4.42871e-14 -1.71922e-13 1.21535e-13 0 0 4.87368e-13 -2.68001e-13 1.52659e-13 1.46321e-14 0 0 6.23266e-13 -3.89354e-13 2.90519e-13 -2.55267e-14 0 0 4.48515e-13 5.868e-16 -2.73255e-14 1.64942e-13 0 0 3.02649e-13 3.02739e-13 -2.62714e-13 3.02618e-13 0 0 4.12334e-13 1.02612e-13 1.46279e-14 6.59903e-14 0 0 6.27799e-13 -2.6754e-13 4.55474e-13 -2.39157e-13 0 0 6.68362e-13 -2.09066e-13 3.0188e-13 -1.36597e-14 0 0 4.62917e-13 6.465e-14 1.74775e-13 1.94306e-13 0 0 3.47808e-13 7.06632e-14 4.66968e-13 -1.03409e-14 0 0 2.85503e-13 3.42501e-13 6.36153e-14 2.57963e-13 0 0 2.69941e-13 5.98655e-13 -4.64834e-13 7.87704e-13 0 0 4.56855e-13 1.06569e-13 1.17202e-13 5.69414e-13 0 0 4.42937e-13 -4.63954e-13 1.0544e-12 -2.31381e-14 0 0 -6.42498e-14 1.54398e-13 7.23965e-13 1.09288e-13 0 0 -1.66497e-13 8.50402e-13 -1.0386e-13 6.42033e-13 0 0 2.23463e-13 4.27711e-13 1.19135e-13 5.66204e-13 0 0 3.94126e-13 -2.58962e-14 8.24336e-13 -3.19588e-14 0 0 5.19861e-13 -1.74231e-13 1.05089e-12 -2.45323e-13 0 0 2.54491e-13 2.08741e-13 6.50339e-13 -8.97851e-14 0 0 -1.90888e-13 7.47512e-13 3.00197e-13 -1.3307e-13 0 0 -3.16319e-13 9.1523e-13 4.51181e-14 -2.68057e-14 0 0 -4.44907e-14 5.95982e-13 9.44266e-14 6.48999e-14 0 0 3.30406e-13 1.20189e-13 2.99485e-13 1.04434e-13 0 0 5.54269e-13 -2.37859e-13 4.44857e-13 1.67256e-13 0 0 5.21337e-13 -3.32423e-13 4.19048e-13 2.75347e-13 0 0 2.96161e-13 -1.92937e-13 2.4705e-13 3.9708e-13 0 0 3.81686e-14 2.41958e-14 2.7012e-14 5.02256e-13 0 0 -1.13468e-13 1.74802e-13 -1.70344e-13 5.89236e-13 0 0 -1.07946e-13 1.92272e-13 -2.82569e-13 6.29796e-13 0 0 1.33351e-14 1.01525e-13 -3.046e-13 6.17943e-13 0 0 1.64818e-13 -3.76536e-14 -2.65198e-13 5.85138e-13 0 0 2.68014e-13 -1.62638e-13 -1.78638e-13 5.2365e-13 0 0 2.97484e-13 -2.42214e-13 -6.69017e-14 4.34218e-13 0 0 2.71259e-13 -2.79495e-13 5.30916e-14 3.31216e-13 0 0 2.15265e-13 -2.8163e-13 1.63191e-13 2.25397e-13 0 0 1.56434e-13 -2.59245e-13 2.47478e-13 1.28016e-13 0 0 1.14514e-13 -2.25418e-13 3.02402e-13 4.41014e-14 0 0 8.70614e-14 -1.75835e-13 3.05783e-13 -1.32211e-14 0 0 6.49827e-14 -1.11081e-13 2.63877e-13 -5.19064e-14 0 0 3.93795e-14 -2.72278e-14 1.5299e-13 -3.53606e-14 0 0 2.37802e-14 -8.17093e-15 1.17852e-13 -5.67913e-14 0 0 1.49857e-14 -1.31171e-14 1.25519e-13 -9.61538e-14 0 0 2.30185e-14 -2.02212e-14 6.87971e-14 -7.73561e-14 0 0 4.3912e-14 -5.61658e-14 1.96988e-14 -3.90237e-14 0 0 3.8683e-14 -5.36109e-14 -2.18175e-14 -1.54881e-14 0 0 3.27146e-14 -8.35453e-14 9.44185e-16 -5.63176e-14 0 0 3.58446e-14 -6.9959e-14 -4.18644e-14 -6.57424e-14 0 0 8.90166e-15 3.81485e-14 -1.70822e-13 -1.52417e-14 0 0 1.48102e-14 3.33862e-14 -1.02882e-13 -2.89599e-14 0 0 6.97347e-14 -4.3955e-14 3.12358e-14 -1.02326e-13 0 0 1.18546e-13 -4.03729e-14 3.91854e-14 -1.21032e-13 0 0 1.2288e-13 2.11452e-14 2.6663e-14 -3.07644e-14 0 0 1.24222e-13 7.75573e-14 1.53873e-14 9.95798e-14 0 0 1.36312e-13 1.64918e-13 -5.6889e-14 1.65069e-13 0 0 2.19465e-13 1.25536e-13 -8.88802e-15 1.54435e-13 0 0 4.68382e-13 -2.48226e-13 3.83104e-13 -2.31314e-14 0 0 3.29976e-13 -3.93384e-14 1.92e-13 8.25916e-14 0 0 1.4458e-13 2.55504e-13 -7.19866e-14 1.67634e-13 0 0 9.75226e-14 3.27045e-13 -1.55594e-13 1.89416e-13 0 0 2.12861e-13 9.75053e-14 4.95902e-14 5.11234e-14 0 0 4.44047e-13 -2.88333e-13 3.79991e-13 -1.31216e-13 0 0 2.22063e-13 5.21002e-14 4.32636e-15 1.68282e-13 0 0 1.25565e-13 1.89964e-13 -6.42691e-14 1.44852e-13 0 0 1.07071e-13 2.67234e-13 -1.15874e-13 1.80448e-13 0 0 2.01195e-13 1.28595e-13 4.15148e-14 1.51583e-13 0 0 4.63349e-13 -3.45509e-13 6.52397e-13 -2.48887e-13 0 0 1.95503e-13 8.0989e-14 2.99724e-13 -3.50321e-15 0 0 1.78164e-13 1.30386e-13 2.29991e-13 1.08696e-13 0 0 2.65699e-13 4.37968e-14 2.95057e-13 1.33438e-13 0 0 8.37379e-14 4.40591e-13 -1.94682e-13 4.59112e-13 0 0 4.89368e-13 -1.30529e-13 2.67561e-13 1.59914e-13 0 0 5.7379e-13 -2.37999e-13 4.14572e-13 4.2722e-14 0 0 9.28669e-14 4.57886e-13 -1.0467e-13 3.30707e-13 0 0 1.45253e-13 2.8487e-13 2.31317e-13 -1.48369e-14 0 0 1.48453e-13 2.84645e-13 1.81885e-13 -6.68242e-14 0 0 3.51554e-13 -6.70029e-14 4.43551e-13 -1.85787e-13 0 0 5.41651e-13 -3.33149e-13 6.81431e-13 -2.86861e-13 0 0 8.58711e-14 5.88949e-13 -2.69993e-13 2.38081e-13 0 0 3.1961e-13 3.86106e-13 -4.46456e-14 -5.71749e-14 0 0 5.14573e-13 1.10013e-13 1.70633e-13 -1.18653e-13 0 0 5.03165e-13 -2.5968e-14 3.29806e-13 -1.41441e-13 0 0 4.33822e-13 -1.16548e-13 4.82114e-13 -2.06025e-13 0 0 1.37111e-13 2.57075e-13 4.09883e-14 1.44879e-13 0 0 5.94739e-15 3.98906e-13 -1.15872e-13 1.25063e-13 0 0 2.05813e-13 4.42834e-14 1.56025e-13 -1.21066e-13 0 0 6.00162e-13 -4.87845e-13 4.94095e-13 -2.00447e-13 0 0 2.98451e-13 -9.11378e-14 1.61701e-13 4.08627e-14 0 0 -1.7677e-13 4.72311e-13 -1.86206e-13 1.42081e-13 0 0 -3.57804e-13 6.74866e-13 -3.22584e-13 2.74952e-13 0 0 2.6837e-13 -4.56851e-13 7.97668e-13 -2.27491e-13 0 0 6.6312e-13 -1.1795e-12 1.55027e-12 -6.87855e-13 0 0 3.17483e-14 -1.85759e-13 4.29999e-13 4.32501e-14 0 0 -3.27546e-13 4.13138e-13 -3.70123e-13 6.94632e-13 0 0 -8.77009e-14 -1.31119e-15 -8.1349e-14 6.61731e-13 0 0 9.08011e-14 -4.12547e-13 2.65492e-13 5.47921e-13 0 0 1.20132e-13 -6.73034e-13 8.04111e-13 9.25852e-14 0 0 -2.92709e-13 -6.08781e-14 3.503e-13 2.3822e-13 0 0 -1.97549e-13 -7.91474e-14 3.10018e-13 1.97456e-13 0 0 1.31795e-13 -4.73889e-13 5.48237e-13 1.06438e-13 0 0 -1.49308e-13 8.30215e-14 -1.84578e-13 5.67592e-13 0 0 -1.47308e-14 -1.85899e-13 2.55061e-14 4.21759e-13 0 0 2.65675e-14 -2.86154e-13 5.17607e-14 5.27916e-13 0 0 2.03951e-13 -5.991e-13 3.54848e-13 3.71009e-13 0 0 7.17325e-14 -4.75249e-13 4.16347e-13 1.28548e-13 0 0 -3.39842e-13 3.12118e-13 -2.37031e-13 2.57196e-13 0 0 -2.17384e-13 1.05384e-13 9.66096e-14 -1.13373e-13 0 0 -1.5842e-13 6.62109e-15 1.26861e-13 -1.68506e-13 0 0 2.55132e-13 -4.37198e-13 2.43382e-13 -2.07742e-13 0 0 3.17976e-13 -4.58324e-13 2.76971e-13 -2.89333e-13 0 0 -2.69283e-13 4.24051e-13 -4.60977e-13 1.08765e-13 0 0 -1.31023e-13 9.70749e-14 1.36842e-14 -2.38448e-13 0 0 9.23481e-14 -1.42311e-13 1.63317e-13 -2.19329e-13 0 0 1.72374e-13 -1.7077e-13 1.89744e-13 -1.88534e-13 0 0 -2.80524e-14 -4.9726e-14 1.50641e-13 -7.99873e-14 0 0 -4.09453e-13 4.26236e-13 -4.17578e-13 4.6486e-13 0 0 3.76208e-14 -1.30287e-13 3.5171e-14 1.56705e-13 0 0 2.92021e-13 -2.39744e-13 -1.06658e-14 1.45489e-13 0 0 5.55176e-13 -4.75252e-13 1.59042e-13 1.94274e-15 0 0 4.73023e-13 -3.91089e-13 3.20389e-13 -2.81247e-13 0 0 -3.11814e-13 6.91967e-13 -6.5428e-13 3.89142e-13 0 0 4.48688e-13 -4.41321e-13 1.82402e-13 1.04705e-13 0 0 1.1041e-12 -1.26461e-12 9.51054e-13 -4.38721e-13 0 0 3.44752e-13 -8.0176e-14 -1.51188e-13 1.68316e-13 0 0 -2.88471e-13 7.61153e-13 -8.59148e-13 6.05118e-13 0 0 -2.82985e-13 7.88545e-13 -8.269e-13 6.15183e-13 0 0 8.5485e-13 -8.55097e-13 7.48525e-13 -3.34158e-13 0 0 1.06508e-12 -9.93884e-13 8.25232e-13 -3.7332e-13 0 0 -1.72012e-13 1.00057e-12 -9.29287e-13 4.71826e-13 0 0 -7.37963e-13 1.78455e-12 -1.40671e-12 5.08299e-13 0
				</DataArray>
				<DataArray Name="VitesseY" type="Float32" format="ascii">