<?xml version="1.0"?>
<VTKFile type="PolyData">
	<PolyData>
		<Piece NumberOfPoints="1206" NumberOfPolys="1000">
			<Points>
				<DataArray type="Float32" NumberOfComponents="3" format="ascii">
 0 0 0 0.02 0 0 0.04 0 0 0.06 0 0 0.08 0 0 0.1 0 0 0 0.005 0 0.02 0.005 0 0.04 0.005 0 0.06 0.005 0 0.08 0.005 0 0.1 0.005 0 0 0.01 0 0.02 0.01 0 0.04 0.01 0 0.06 0.01 0 0.08 0.01 0 0.1 0.01 0 0 0.015 0 0.02 0.015 0 0.04 0.015 0 0.06 0.015 0 0.08 0.015 0 0.1 0.015 0 0 0.02 0 0.02 0.02 0 0.04 0.02 0 0.06 0.02 0 0.08 0.02 0 0.1 0.02 0 0 0.025 0 0.02 0.025 0 0.04 0.025 0 0.06 0.025 0 0.08 0.025 0 0.1 0.025 0 0 0.03 0 0.02 0.03 0 0.04 0.03 0 0.06 0.03 0 0.08 0.03 0 0.1 0.03 0 0 0.035 0 0.02 0.035 0 0.04 0.035 0 0.06 0.035 0 0.08 0.035 0 0.1 0.035 0 0 0.04 0 0.02 0.04 0 0.04 0.04 0 0.06 0.04 0 0.08 0.04 0 0.1 0.04 0 0 0.045 0 0.02 0.045 0 0.04 0.045 0 0.06 0.045 0 0.08 0.045 0 0.1 0.045 0 0 0.05 0 0.02 0.05 0 0.04 0.05 0 0.06 0.05 0 0.08 0.05 0 0.1 0.05 0 0 0.055 0 0.02 0.055 0 0.04 0.055 0 0.06 0.055 0 0.08 0.055 0 0.1 0.055 0 0 0.06 0 0.02 0.06 0 0.04 0.06 0 0.06 0.06 0 0.08 0.06 0 0.1 0.06 0 0 0.065 0 0.02 0.065 0 0.04 0.065 0 0.06 0.065 0 0.08 0.065 0 0.1 0.065 0 0 0.07 0 0.02 0.07 0 0.04 0.07 0 0.06 0.07 0 0.08 0.07 0 0.1 0.07 0 0 0.075 0 0.02 0.075 0 0.04 0.075 0 0.06 0.075 0 0.08 0.075 0 0.1 0.075 0 0 0.08 0 0.02 0.08 0 0.04 0.08 0 0.06 0.08 0 0.08 0.08 0 0.1 0.08 0 0 0.085 0 0.02 0.085 0 0.04 0.085 0 0.06 0.085 0 0.08 0.085 0 0.1 0.085 0 0 0.09 0 0.02 0.09 0 0.04 0.09 0 0.06 0.09 0 0.08 0.09 0 0.1 0.09 0 0 0.095 0 0.02 0.095 0 0.04 0.095 0 0.06 0.095 0 0.08 0.095 0 0.1 0.095 0 0 0.1 0 0.02 0.1 0 0.04 0.1 0 0.06 0.1 0 0.08 0.1 0 0.1 0.1 0 0 0.105 0 0.02 0.105 0 0.04 0.105 0 0.06 0.105 0 0.08 0.105 0 0.1 0.105 0 0 0.11 0 0.02 0.11 0 0.04 0.11 0 0.06 0.11 0 0.08 0.11 0 0.1 0.11 0 0 0.115 0 0.02 0.115 0 0.04 0.115 0 0.06 0.115 0 0.08 0.115 0 0.1 0.115 0 0 0.12 0 0.02 0.12 0 0.04 0.12 0 0.06 0.12 0 0.08 0.12 0 0.1 0.12 0 0 0.125 0 0.02 0.125 0 0.04 0.125 0 0.06 0.125 0 0.08 0.125 0 0.1 0.125 0 0 0.13 0 0.02 0.13 0 0.04 0.13 0 0.06 0.13 0 0.08 0.13 0 0.1 0.13 0 0 0.135 0 0.02 0.135 0 0.04 0.135 0 0.06 0.135 0 0.08 0.135 0 0.1 0.135 0 0 0.14 0 0.02 0.14 0 0.04 0.14 0 0.06 0.14 0 0.08 0.14 0 0.1 0.14 0 0 0.145 0 0.02 0.145 0 0.04 0.145 0 0.06 0.145 0 0.08 0.145 0 0.1 0.145 0 0 0.15 0 0.02 0.15 0 0.04 0.15 0 0.06 0.15 0 0.08 0.15 0 0.1 0.15 0 0 0.155 0 0.02 0.155 0 0.04 0.155 0 0.06 0.155 0 0.08 0.155 0 0.1 0.155 0 0 0.16 0 0.02 0.16 0 0.04 0.16 0 0.06 0.16 0 0.08 0.16 0 0.1 0.16 0 0 0.165 0 0.02 0.165 0 0.04 0.165 0 0.06 0.165 0 0.08 0.165 0 0.1 0.165 0 0 0.17 0 0.02 0.17 0 0.04 0.17 0 0.06 0.17 0 0.08 0.17 0 0.1 0.17 0 0 0.175 0 0.02 0.175 0 0.04 0.175 0 0.06 0.175 0 0.08 0.175 0 0.1 0.175 0 0 0.18 0 0.02 0.18 0 0.04 0.18 0 0.06 0.18 0 0.08 0.18 0 0.1 0.18 0 0 0.185 0 0.02 0.185 0 0.04 0.185 0 0.06 0.185 0 0.08 0.185 0 0.1 0.185 0 0 0.19 0 0.02 0.19 0 0.04 0.19 0 0.06 0.19 0 0.08 0.19 0 0.1 0.19 0 0 0.195 0 0.02 0.195 0 0.04 0.195 0 0.06 0.195 0 0.08 0.195 0 0.1 0.195 0 0 0.2 0 0.02 0.2 0 0.04 0.2 0 0.06 0.2 0 0.08 0.2 0 0.1 0.2 0 0 0.205 0 0.02 0.205 0 0.04 0.205 0 0.06 0.205 0 0.08 0.205 0 0.1 0.205 0 0 0.21 0 0.02 0.21 0 0.04 0.21 0 0.06 0.21 0 0.08 0.21 0 0.1 0.21 0 0 0.215 0 0.02 0.215 0 0.04 0.215 0 0.06 0.215 0 0.08 0.215 0 0.1 0.215 0 0 0.22 0 0.02 0.22 0 0.04 0.22 0 0.06 0.22 0 0.08 0.22 0 0.1 0.22 0 0 0.225 0 0.02 0.225 0 0.04 0.225 0 0.06 0.225 0 0.08 0.225 0 0.1 0.225 0 0 0.23 0 0.02 0.23 0 0.04 0.23 0 0.06 0.23 0 0.08 0.23 0 0.1 0.23 0 0 0.235 0 0.02 0.235 0 0.04 0.235 0 0.06 0.235 0 0.08 0.235 0 0.1 0.235 0 0 0.24 0 0.02 0.24 0 0.04 0.24 0 0.06 0.24 0 0.08 0.24 0 0.1 0.24 0 0 0.245 0 0.02 0.245 0 0.04 0.245 0 0.06 0.245 0 0.08 0.245 0 0.1 0.245 0 0 0.25 0 0.02 0.25 0 0.04 0.25 0 0.06 0.25 0 0.08 0.25 0 0.1 0.25 0 0 0.255 0 0.02 0.255 0 0.04 0.255 0 0.06 0.255 0 0.08 0.255 0 0.1 0.255 0 0 0.26 0 0.02 0.26 0 0.04 0.26 0 0.06 0.26 0 0.08 0.26 0 0.1 0.26 0 0 0.265 0 0.02 0.265 0 0.04 0.265 0 0.06 0.265 0 0.08 0.265 0 0.1 0.265 0 0 0.27 0 0.02 0.27 0 0.04 0.27 0 0.06 0.27 0 0.08 0.27 0 0.1 0.27 0 0 0.275 0 0.02 0.275 0 0.04 0.275 0 0.06 0.275 0 0.08 0.275 0 0.1 0.275 0 0 0.28 0 0.02 0.28 0 0.04 0.28 0 0.06 0.28 0 0.08 0.28 0 0.1 0.28 0 0 0.285 0 0.02 0.285 0 0.04 0.285 0 0.06 0.285 0 0.08 0.285 0 0.1 0.285 0 0 0.29 0 0.02 0.29 0 0.04 0.29 0 0.06 0.29 0 0.08 0.29 0 0.1 0.29 0 0 0.295 0 0.02 0.295 0 0.04 0.295 0 0.06 0.295 0 0.08 0.295 0 0.1 0.295 0 0 0.3 0 0.02 0.3 0 0.04 0.3 0 0.06 0.3 0 0.08 0.3 0 0.1 0.3 0 0 0.305 0 0.02 0.305 0 0.04 0.305 0 0.06 0.305 0 0.08 0.305 0 0.1 0.305 0 0 0.31 0 0.02 0.31 0 0.04 0.31 0 0.06 0.31 0 0.08 0.31 0 0.1 0.31 0 0 0.315 0 0.02 0.315 0 0.04 0.315 0 0.06 0.315 0 0.08 0.315 0 0.1 0.315 0 0 0.32 0 0.02 0.32 0 0.04 0.32 0 0.06 0.32 0 0.08 0.32 0 0.1 0.32 0 0 0.325 0 0.02 0.325 0 0.04 0.325 0 0.06 0.325 0 0.08 0.325 0 0.1 0.325 0 0 0.33 0 0.02 0.33 0 0.04 0.33 0 0.06 0.33 0 0.08 0.33 0 0.1 0.33 0 0 0.335 0 0.02 0.335 0 0.04 0.335 0 0.06 0.335 0 0.08 0.335 0 0.1 0.335 0 0 0.34 0 0.02 0.34 0 0.04 0.34 0 0.06 0.34 0 0.08 0.34 0 0.1 0.34 0 0 0.345 0 0.02 0.345 0 0.04 0.345 0 0.06 0.345 0 0.08 0.345 0 0.1 0.345 0 0 0.35 0 0.02 0.35 0 0.04 0.35 0 0.06 0.35 0 0.08 0.35 0 0.1 0.35 0 0 0.355 0 0.02 0.355 0 0.04 0.355 0 0.06 0.355 0 0.08 0.355 0 0.1 0.355 0 0 0.36 0 0.02 0.36 0 0.04 0.36 0 0.06 0.36 0 0.08 0.36 0 0.1 0.36 0 0 0.365 0 0.02 0.365 0 0.04 0.365 0 0.06 0.365 0 0.08 0.365 0 0.1 0.365 0 0 0.37 0 0.02 0.37 0 0.04 0.37 0 0.06 0.37 0 0.08 0.37 0 0.1 0.37 0 0 0.375 0 0.02 0.375 0 0.04 0.375 0 0.06 0.375 0 0.08 0.375 0 0.1 0.375 0 0 0.38 0 0.02 0.38 0 0.04 0.38 0 0.06 0.38 0 0.08 0.38 0 0.1 0.38 0 0 0.385 0 0.02 0.385 0 0.04 0.385 0 0.06 0.385 0 0.08 0.385 0 0.1 0.385 0 0 0.39 0 0.02 0.39 0 0.04 0.39 0 0.06 0.39 0 0.08 0.39 0 0.1 0.39 0 0 0.395 0 0.02 0.395 0 0.04 0.395 0 0.06 0.395 0 0.08 0.395 0 0.1 0.395 0 0 0.4 0 0.02 0.4 0 0.04 0.4 0 0.06 0.4 0 0.08 0.4 0 0.1 0.4 0 0 0.405 0 0.02 0.405 0 0.04 0.405 0 0.06 0.405 0 0.08 0.405 0 0.1 0.405 0 0 0.41 0 0.02 0.41 0 0.04 0.41 0 0.06 0.41 0 0.08 0.41 0 0.1 0.41 0 0 0.415 0 0.02 0.415 0 0.04 0.415 0 0.06 0.415 0 0.08 0.415 0 0.1 0.415 0 0 0.42 0 0.02 0.42 0 0.04 0.42 0 0.06 0.42 0 0.08 0.42 0 0.1 0.42 0 0 0.425 0 0.02 0.425 0 0.04 0.425 0 0.06 0.425 0 0.08 0.425 0 0.1 0.425 0 0 0.43 0 0.02 0.43 0 0.04 0.43 0 0.06 0.43 0 0.08 0.43 0 0.1 0.43 0 0 0.435 0 0.02 0.435 0 0.04 0.435 0 0.06 0.435 0 0.08 0.435 0 0.1 0.435 0 0 0.44 0 0.02 0.44 0 0.04 0.44 0 0.06 0.44 0 0.08 0.44 0 0.1 0.44 0 0 0.445 0 0.02 0.445 0 0.04 0.445 0 0.06 0.445 0 0.08 0.445 0 0.1 0.445 0 0 0.45 0 0.02 0.45 0 0.04 0.45 0 0.06 0.45 0 0.08 0.45 0 0.1 0.45 0 0 0.455 0 0.02 0.455 0 0.04 0.455 0 0.06 0.455 0 0.08 0.455 0 0.1 0.455 0 0 0.46 0 0.02 0.46 0 0.04 0.46 0 0.06 0.46 0 0.08 0.46 0 0.1 0.46 0 0 0.465 0 0.02 0.465 0 0.04 0.465 0 0.06 0.465 0 0.08 0.465 0 0.1 0.465 0 0 0.47 0 0.02 0.47 0 0.04 0.47 0 0.06 0.47 0 0.08 0.47 0 0.1 0.47 0 0 0.475 0 0.02 0.475 0 0.04 0.475 0 0.06 0.475 0 0.08 0.475 0 0.1 0.475 0 0 0.48 0 0.02 0.48 0 0.04 0.48 0 0.06 0.48 0 0.08 0.48 0 0.1 0.48 0 0 0.485 0 0.02 0.485 0 0.04 0.485 0 0.06 0.485 0 0.08 0.485 0 0.1 0.485 0 0 0.49 0 0.02 0.49 0 0.04 0.49 0 0.06 0.49 0 0.08 0.49 0 0.1 0.49 0 0 0.495 0 0.02 0.495 0 0.04 0.495 0 0.06 0.495 0 0.08 0.495 0 0.1 0.495 0 0 0.5 0 0.02 0.5 0 0.04 0.5 0 0.06 0.5 0 0.08 0.5 0 0.1 0.5 0 0 0.505 0 0.02 0.505 0 0.04 0.505 0 0.06 0.505 0 0.08 0.505 0 0.1 0.505 0 0 0.51 0 0.02 0.51 0 0.04 0.51 0 0.06 0.51 0 0.08 0.51 0 0.1 0.51 0 0 0.515 0 0.02 0.515 0 0.04 0.515 0 0.06 0.515 0 0.08 0.515 0 0.1 0.515 0 0 0.52 0 0.02 0.52 0 0.04 0.52 0 0.06 0.52 0 0.08 0.52 0 0.1 0.52 0 0 0.525 0 0.02 0.525 0 0.04 0.525 0 0.06 0.525 0 0.08 0.525 0 0.1 0.525 0 0 0.53 0 0.02 0.53 0 0.04 0.53 0 0.06 0.53 0 0.08 0.53 0 0.1 0.53 0 0 0.535 0 0.02 0.535 0 0.04 0.535 0 0.06 0.535 0 0.08 0.535 0 0.1 0.535 0 0 0.54 0 0.02 0.54 0 0.04 0.54 0 0.06 0.54 0 0.08 0.54 0 0.1 0.54 0 0 0.545 0 0.02 0.545 0 0.04 0.545 0 0.06 0.545 0 0.08 0.545 0 0.1 0.545 0 0 0.55 0 0.02 0.55 0 0.04 0.55 0 0.06 0.55 0 0.08 0.55 0 0.1 0.55 0 0 0.555 0 0.02 0.555 0 0.04 0.555 0 0.06 0.555 0 0.08 0.555 0 0.1 0.555 0 0 0.56 0 0.02 0.56 0 0.04 0.56 0 0.06 0.56 0 0.08 0.56 0 0.1 0.56 0 0 0.565 0 0.02 0.565 0 0.04 0.565 0 0.06 0.565 0 0.08 0.565 0 0.1 0.565 0 0 0.57 0 0.02 0.57 0 0.04 0.57 0 0.06 0.57 0 0.08 0.57 0 0.1 0.57 0 0 0.575 0 0.02 0.575 0 0.04 0.575 0 0.06 0.575 0 0.08 0.575 0 0.1 0.575 0 0 0.58 0 0.02 0.58 0 0.04 0.58 0 0.06 0.58 0 0.08 0.58 0 0.1 0.58 0 0 0.585 0 0.02 0.585 0 0.04 0.585 0 0.06 0.585 0 0.08 0.585 0 0.1 0.585 0 0 0.59 0 0.02 0.59 0 0.04 0.59 0 0.06 0.59 0 0.08 0.59 0 0.1 0.59 0 0 0.595 0 0.02 0.595 0 0.04 0.595 0 0.06 0.595 0 0.08 0.595 0 0.1 0.595 0 0 0.6 0 0.02 0.6 0 0.04 0.6 0 0.06 0.6 0 0.08 0.6 0 0.1 0.6 0 0 0.605 0 0.02 0.605 0 0.04 0.605 0 0.06 0.605 0 0.08 0.605 0 0.1 0.605 0 0 0.61 0 0.02 0.61 0 0.04 0.61 0 0.06 0.61 0 0.08 0.61 0 0.1 0.61 0 0 0.615 0 0.02 0.615 0 0.04 0.615 0 0.06 0.615 0 0.08 0.615 0 0.1 0.615 0 0 0.62 0 0.02 0.62 0 0.04 0.62 0 0.06 0.62 0 0.08 0.62 0 0.1 0.62 0 0 0.625 0 0.02 0.625 0 0.04 0.625 0 0.06 0.625 0 0.08 0.625 0 0.1 0.625 0 0 0.63 0 0.02 0.63 0 0.04 0.63 0 0.06 0.63 0 0.08 0.63 0 0.1 0.63 0 0 0.635 0 0.02 0.635 0 0.04 0.635 0 0.06 0.635 0 0.08 0.635 0 0.1 0.635 0 0 0.64 0 0.02 0.64 0 0.04 0.64 0 0.06 0.64 0 0.08 0.64 0 0.1 0.64 0 0 0.645 0 0.02 0.645 0 0.04 0.645 0 0.06 0.645 0 0.08 0.645 0 0.1 0.645 0 0 0.65 0 0.02 0.65 0 0.04 0.65 0 0.06 0.65 0 0.08 0.65 0 0.1 0.65 0 0 0.655 0 0.02 0.655 0 0.04 0.655 0 0.06 0.655 0 0.08 0.655 0 0.1 0.655 0 0 0.66 0 0.02 0.66 0 0.04 0.66 0 0.06 0.66 0 0.08 0.66 0 0.1 0.66 0 0 0.665 0 0.02 0.665 0 0.04 0.665 0 0.06 0.665 0 0.08 0.665 0 0.1 0.665 0 0 0.67 0 0.02 0.67 0 0.04 0.67 0 0.06 0.67 0 0.08 0.67 0 0.1 0.67 0 0 0.675 0 0.02 0.675 0 0.04 0.675 0 0.06 0.675 0 0.08 0.675 0 0.1 0.675 0 0 0.68 0 0.02 0.68 0 0.04 0.68 0 0.06 0.68 0 0.08 0.68 0 0.1 0.68 0 0 0.685 0 0.02 0.685 0 0.04 0.685 0 0.06 0.685 0 0.08 0.685 0 0.1 0.685 0 0 0.69 0 0.02 0.69 0 0.04 0.69 0 0.06 0.69 0 0.08 0.69 0 0.1 
[...]
			<PointData Scalars="VitesseX">
				<DataArray Name="VitesseX" type="Float32" format="ascii">
 0 -7.05286e-15 -1.57275e-14 -2.33389e-14 -2.59758e-14 0 0 -8.86954e-15 -1.53454e-14 -2.42937e-14 -2.50542e-14 0 0 -6.05514e-15 -2.43733e-14 -1.63275e-14 -3.04578e-14 0 0 -8.30629e-15 -2.37223e-14 -2.00895e-14 -2.9394e-14 0 0 -1.1524e-14 -2.3431e-14 -2.14005e-14 -3.04064e-14 0 0 -9.37581e-15 -3.16525e-14 -1.59197e-14 -3.28116e-14 0 0 -2.22862e-14 -1.95296e-14 -2.69674e-14 -2.30592e-14 0 0 -2.67882e-14 -2.00963e-14 -2.36052e-14 -1.82136e-14 0 0 -1.78647e-14 -3.36435e-14 -1.85208e-14 -4.51172e-15 0 0 -1.80335e-14 -3.62068e-14 -1.68205e-14 4.53888e-15 0 0 -2.65511e-14 -2.18698e-14 -2.16305e-14 -3.50037e-16 0 0 -2.26038e-14 -2.74398e-14 -6.81448e-15 -9.87405e-15 0 0 -2.35343e-14 -2.26964e-14 -7.83169e-16 -1.12445e-14 0 0 -3.02723e-14 8.87091e-15 -2.84025e-14 -9.23775e-15 0 0 -1.16625e-14 -7.07716e-15 -1.66604e-14 -1.97789e-14 0 0 7.23779e-15 -4.04167e-14 1.57361e-14 -2.45321e-14 0 0 1.49904e-14 -3.82526e-14 -9.54589e-15 1.31346e-14 0 0 1.08025e-14 -2.22028e-14 -1.47091e-14 2.14583e-14 0 0 -1.10002e-14 2.08639e-14 -3.49798e-14 3.87296e-14 0 0 -1.07273e-14 3.47413e-14 -5.04375e-14 5.08858e-14 0 0 3.19697e-14 -4.48811e-14 6.18437e-14 -4.38516e-14 0 0 1.17211e-14 -1.50537e-14 3.47805e-14 -3.75377e-14 0 0 -2.07305e-14 1.9016e-14 -2.73901e-14 2.16188e-14 0 0 -3.69326e-14 6.99134e-15 -1.97429e-14 2.31761e-14 0 0 -5.64377e-14 2.08942e-14 -2.04627e-14 6.66942e-15 0 0 -2.1375e-14 -2.55709e-14 1.24291e-14 -2.10467e-14 0 0 1.6966e-14 -6.15839e-14 1.65258e-14 -3.30821e-14 0 0 -1.11566e-14 5.80462e-16 -4.78414e-14 -2.26491e-14 0 0 -1.73468e-15 -2.62302e-14 -7.34041e-15 -7.48966e-14 0 0 3.27152e-14 -8.88258e-14 4.65065e-14 -1.24246e-13 0 0 -6.64794e-16 -1.65586e-14 -3.41987e-14 -8.17393e-14 0 0 -3.84096e-14 4.2877e-14 -7.79516e-14 -4.53653e-14 0 0 -4.44253e-14 4.0559e-14 -7.86608e-14 -2.03523e-14 0 0 -2.04508e-14 -6.96618e-15 -4.07149e-14 -1.72171e-14 0 0 -4.49187e-14 2.78655e-14 -6.33984e-14 -1.67409e-15 0 0 -7.16895e-15 -1.49553e-14 -3.52862e-14 -1.07414e-14 0 0 8.64818e-18 -1.89094e-14 -5.41486e-14 3.17101e-14 0 0 5.17977e-15 -1.8285e-14 -7.61863e-14 8.48301e-14 0 0 -7.70926e-15 -3.14508e-14 -4.39523e-14 5.14211e-14 0 0 -4.79528e-14 -1.47929e-14 1.60537e-14 -4.94331e-14 0 0 -1.33319e-15 -3.84937e-14 6.68712e-14 -1.66778e-13 0 0 -4.19049e-14 3.70172e-14 -3.19139e-14 -1.53335e-13 0 0 -3.805e-14 2.47768e-14 -6.35379e-14 -9.07739e-14 0 0 2.31122e-15 -6.24013e-14 2.36885e-14 -1.10352e-13 0 0 -7.65027e-14 2.63737e-14 -3.94674e-14 -4.26307e-14 0 0 -6.66704e-14 4.12333e-15 -3.71344e-14 -8.58769e-15 0 0 -2.72471e-14 -6.36613e-14 -2.80632e-14 2.42344e-14 0 0 -9.07356e-14 1.31185e-14 -1.20585e-13 1.02629e-13 0 0 -5.04407e-14 -1.01972e-13 7.46263e-16 2.34776e-14 0 0 3.4523e-15 -1.8161e-13 8.32608e-14 -8.58715e-14 0 0 2.43118e-14 -1.71249e-13 4.63438e-14 -1.40559e-13 0 0 3.91288e-14 -1.93648e-13 1.68084e-14 -1.4544e-13 0 0 2.02339e-14 -1.53085e-13 -6.60422e-14 -9.13615e-14 0 0 1.34549e-13 -2.78234e-13 1.74202e-14 -1.27829e-13 0 0 6.81502e-14 -2.27677e-13 -2.73304e-14 -6.62557e-14 0 0 -9.57156e-14 -4.44248e-14 -2.85573e-13 1.43401e-13 0 0 1.33057e-13 -4.18207e-13 -4.61088e-14 1.14999e-14 0 0 6.36994e-14 -3.73698e-13 -3.31259e-14 -4.39101e-14 0 0 -1.42295e-13 -1.00903e-13 -1.53331e-13 -3.63877e-14 0 0 -1.14421e-13 -7.2203e-14 -1.84391e-13 -3.59349e-14 0 0 -3.31138e-14 -1.4236e-13 -1.68089e-13 -7.03371e-15 0 0 -9.05154e-15 -2.91374e-13 9.61504e-15 -8.18283e-14 0 0 -1.75776e-13 -2.22722e-13 -3.76799e-14 -2.60698e-14 0 0 -2.5158e-13 -2.41688e-13 -3.68697e-14 -5.67597e-15 0 0 -2.43357e-13 -3.40916e-13 9.95025e-14 -1.32439e-13 0 0 -2.39056e-13 -3.60203e-13 1.3752e-13 -2.2592e-13 0 0 -2.24528e-13 -3.20864e-13 4.05589e-14 -2.11579e-13 0 0 -2.15252e-13 -2.59347e-13 -8.19148e-14 -1.53987e-13 0 0 -2.27956e-13 -1.82255e-13 -2.13367e-13 -5.44611e-14 0 0 -2.24477e-13 -1.68101e-13 -2.84099e-13 1.956e-14 0 0 -2.13787e-13 -2.17772e-13 -2.69311e-13 3.89719e-14 0 0 -1.96248e-13 -3.18005e-13 -1.80185e-13 -1.09873e-15 0 0 -1.78744e-13 -3.99801e-13 -1.10744e-13 -3.68168e-14 0 0 -1.87112e-13 -4.03442e-13 -1.21295e-13 -2.17294e-14 0 0 -2.17577e-13 -3.58281e-13 -1.60729e-13 -1.47384e-14 0 0 -2.53237e-13 -3.09016e-13 -1.76772e-13 -4.22597e-14 0 0 -2.64943e-13 -2.92646e-13 -1.56185e-13 -9.00482e-14 0 0 -2.41254e-13 -3.11338e-13 -1.16344e-13 -1.14106e-13 0 0 -2.09021e-13 -3.28309e-13 -8.76577e-14 -9.05244e-14 0 0 -1.82174e-13 -3.32125e-13 -7.40039e-14 -4.28567e-14 0 0 -1.5544e-13 -3.36522e-13 -6.23854e-14 1.14013e-14 0 0 -1.28491e-13 -3.44252e-13 -4.29498e-14 4.19232e-14 0 0 -9.6971e-14 -3.55058e-13 -2.59138e-14 4.68829e-14 0 0 -5.91535e-14 -3.69647e-13 -1.65814e-14 4.24969e-14 0 0 -2.61266e-14 -3.7392e-13 -1.57313e-14 2.36772e-14 0 0 -3.55846e-15 -3.58726e-13 -4.04822e-14 9.38391e-15 0 0 2.15696e-15 -3.18871e-13 -8.88352e-14 -3.70413e-15 0 0 -1.99309e-15 -2.71702e-13 -1.32721e-13 -3.48899e-14 0 0 -1.13935e-14 -2.29457e-13 -1.67655e-13 -7.25487e-14 0 0 -2.42812e-14 -1.98973e-13 -1.95349e-13 -9.67848e-14 0 0 -3.02085e-14 -1.86484e-13 -2.14171e-13 -1.06881e-13 0 0 -3.16163e-14 -1.77707e-13 -2.29242e-13 -1.19592e-13 0 0 -2.84349e-14 -1.68904e-13 -2.48056e-13 -1.35462e-13 0 0 -1.39248e-14 -1.68501e-13 -2.70137e-13 -1.46175e-13 0 0 1.08761e-14 -1.79021e-13 -2.89309e-13 -1.55411e-13 0 0 4.46656e-14 -1.99371e-13 -3.10294e-13 -1.60887e-13 0 0 7.7583e-14 -2.17105e-13 -3.36539e-13 -1.61931e-13 0 0 1.07084e-13 -2.30501e-13 -3.59066e-13 -1.75739e-13 0 0 1.37827e-13 -2.46898e-13 -3.7062e-13 -2.05575e-13 0 0 1.63909e-13 -2.56525e-13 -3.81994e-13 -2.35929e-13 0 0 1.85224e-13 -2.56046e-13 -4.0447e-13 -2.56689e-13 0 0 2.04815e-13 -2.56747e-13 -4.25029e-13 -2.75692e-13 0 0 2.22282e-13 -2.63448e-13 -4.34913e-13 -2.96516e-13 0 0 2.36017e-13 -2.7375e-13 -4.37046e-13 -3.16614e-13 0 0 2.40499e-13 -2.85806e-13 -4.28836e-13 -3.37215e-13 0 0 2.31916e-13 -2.88524e-13 -4.25623e-13 -3.46871e-13 0 0 2.13934e-13 -2.79318e-13 -4.38093e-13 -3.3924e-13 0 0 1.869e-13 -2.65174e-13 -4.57938e-13 -3.24292e-13 0 0 1.51776e-13 -2.52159e-13 -4.74591e-13 -3.09412e-13 0 0 1.08127e-13 -2.43586e-13 -4.7653e-13 -3.01418e-13 0 0 5.20906e-14 -2.38288e-13 -4.55955e-13 -3.11318e-13 0 0 -9.35345e-15 -2.34858e-13 -4.27568e-13 -3.29229e-13 0 0 -6.8491e-14 -2.31583e-13 -4.08604e-13 -3.41172e-13 0 0 -1.25201e-13 -2.27213e-13 -3.91294e-13 -3.5403e-13 0 0 -1.79761e-13 -2.19519e-13 -3.70992e-13 -3.72078e-13 0 0 -2.27698e-13 -2.1192e-13 -3.49012e-13 -3.91551e-13 0 0 -2.61996e-13 -2.01843e-13 -3.3601e-13 -3.91648e-13 0 0 -2.78598e-13 -2.41536e-13 -2.50066e-13 -4.3152e-13 0 0 -2.79329e-13 -2.79363e-13 -2.02466e-13 -4.31448e-13 0 0 -2.95993e-13 -2.0915e-13 -2.96305e-13 -3.62753e-13 0 0 -3.0909e-13 -1.75125e-13 -3.36356e-13 -3.21739e-13 0 0 -3.01509e-13 -1.96606e-13 -3.19252e-13 -2.76542e-13 0 0 -2.83156e-13 -2.01054e-13 -2.93359e-13 -2.70152e-13 0 0 -2.90244e-13 -1.95427e-13 -2.65936e-13 -2.49936e-13 0 0 -3.05184e-13 -1.85733e-13 -2.65522e-13 -1.90805e-13 0 0 -2.77212e-13 -2.27259e-13 -2.15728e-13 -1.8729e-13 0 0 -2.63499e-13 -2.22289e-13 -2.01289e-13 -1.49875e-13 0 0 -2.57295e-13 -1.74444e-13 -2.51537e-13 -1.06426e-13 0 0 -2.32608e-13 -1.90557e-13 -2.29753e-13 -1.49945e-13 0 0 -2.23597e-13 -2.01724e-13 -2.22834e-13 -1.34575e-13 0 0 -2.22417e-13 -1.90475e-13 -2.41351e-13 -5.04235e-14 0 0 -2.1258e-13 -1.85142e-13 -2.397e-13 -1.10524e-14 0 0 -1.9822e-13 -2.02451e-13 -2.01485e-13 -4.30168e-14 0 0 -1.94911e-13 -2.23031e-13 -1.5969e-13 -3.42396e-14 0 0 -1.91282e-13 -2.48865e-13 -1.32721e-13 -5.63612e-14 0 0 -1.7141e-13 -2.70046e-13 -1.33247e-13 -1.09111e-13 0 0 -1.66356e-13 -2.68514e-13 -1.51434e-13 -7.1928e-14 0 0 -1.73821e-13 -2.67646e-13 -1.50725e-13 -4.31562e-14 0 0 -1.76059e-13 -2.60672e-13 -1.5314e-13 -7.62368e-14 0 0 -1.89403e-13 -2.27309e-13 -1.85226e-13 -8.28083e-14 0 0 -1.97128e-13 -2.05079e-13 -2.0288e-13 -8.28708e-14 0 0 -1.78934e-13 -2.33286e-13 -1.76715e-13 -6.60765e-14 0 0 -1.83116e-13 -2.36036e-13 -1.79225e-13 -4.03903e-14 0 0 -1.95427e-13 -2.21833e-13 -1.87832e-13 -6.63329e-14 0 0 -1.84654e-13 -2.36589e-13 -1.60786e-13 -1.5991e-13 0 0 -1.7548e-13 -2.2694e-13 -1.94197e-13 -2.20711e-13 0 0 -1.86858e-13 -2.30533e-13 -2.33913e-13 -1.72122e-13 0 0 -2.02712e-13 -2.75761e-13 -1.96587e-13 -1.47486e-13 0 0 -2.01554e-13 -2.63953e-13 -2.54603e-13 -1.48117e-13 0 0 -2.06171e-13 -2.39027e-13 -3.49848e-13 -1.22144e-13 0 0 -2.16536e-13 -2.57166e-13 -3.8086e-13 -1.01092e-13 0 0 -2.14279e-13 -2.72209e-13 -4.00293e-13 -1.80051e-13 0 0 -1.94468e-13 -3.26418e-13 -3.84862e-13 -2.65705e-13 0 0 -1.86351e-13 -3.77006e-13 -3.6678e-13 -3.16068e-13 0 0 -2.03326e-13 -3.67156e-13 -3.51257e-13 -3.61439e-13 0 0 -2.31326e-13 -2.99408e-13 -4.16249e-13 -2.83694e-13 0 0 -2.52523e-13 -2.6181e-13 -4.57885e-13 -1.80422e-13 0 0 -2.55273e-13 -3.03946e-13 -3.22511e-13 -1.89378e-13 0 0 -2.45773e-13 -3.6449e-13 -1.86534e-13 -1.7049e-13 0 0 -2.46212e-13 -3.54863e-13 -2.03478e-13 -4.97302e-14 0 0 -2.10278e-13 -3.74149e-13 -1.48117e-13 -1.05759e-13 0 0 -1.5777e-13 -4.43383e-13 -8.49979e-14 -1.05726e-13 0 0 -1.67084e-13 -3.5984e-13 -2.83254e-13 1.34918e-13 0 0 -2.0862e-13 -2.97714e-13 -3.10533e-13 -2.01197e-14 0 0 -2.03439e-13 -3.49871e-13 -2.48199e-13 -2.3774e-13 0 0 -1.21991e-13 -4.39437e-13 -3.113e-13 -1.61184e-13 0 0 -1.2676e-13 -4.45342e-13 -4.09471e-13 -1.48467e-13 0 0 -2.39611e-13 -3.587e-13 -5.49829e-13 -1.84797e-13 0 0 -2.45644e-13 -4.16454e-13 -4.63756e-13 -2.90532e-13 0 0 -1.81702e-13 -5.33066e-13 -3.39021e-13 -3.28023e-13 0 0 -1.77738e-13 -5.94641e-13 -3.09872e-13 -4.04564e-13 0 0 -2.3565e-13 -6.11446e-13 -2.36859e-13 -5.31132e-13 0 0 -3.41221e-13 -4.64544e-13 -3.94662e-13 -3.76137e-13 0 0 -3.40242e-13 -4.15966e-13 -4.75583e-13 -2.96597e-13 0 0 -3.38864e-13 -4.238e-13 -4.80787e-13 -1.91037e-13 0 0 -2.71544e-13 -5.00641e-13 -5.0205e-13 -5.88027e-14 0 0 -1.72538e-13 -5.86593e-13 -4.44706e-13 -6.6338e-14 0 0 -2.75182e-13 -3.79786e-13 -5.49356e-13 -1.78821e-14 0 0 -2.36648e-13 -3.79851e-13 -4.93315e-13 -5.56628e-14 0 0 -2.13951e-13 -4.06728e-13 -3.18048e-13 -2.5346e-13 0 0 -2.49958e-13 -3.29046e-13 -3.56258e-13 -2.65499e-13 0 0 -1.23223e-13 -4.12157e-13 -3.47324e-13 -2.00645e-13 0 0 -1.03834e-13 -3.38831e-13 -3.83566e-13 -1.71553e-13 0 0 -1.0509e-13 -2.3213e-13 -5.81454e-13 2.57552e-14 0 0 -1.19747e-13 -1.91717e-13 -5.82773e-13 1.86265e-15 0 0 -5.69731e-14 -3.11919e-13 -3.58419e-13 -1.95719e-13 0 0 -1.12386e-14 -3.71087e-13 -2.33138e-13 -2.50637e-13 0 0 -7.72479e-14 -2.53976e-13 -2.58897e-13 -1.43201e-13 0 0 -2.12719e-13 -2.84632e-15 -5.03514e-13 5.29225e-14 0 0 -2.70154e-13 5.87443e-14 -4.68507e-13 -8.51386e-14 0 0 -2.63702e-13 -5.69695e-14 -2.54856e-13 -2.15275e-13 0 0 -1.40601e-13 -2.76319e-13 -2.08754e-13 1.09058e-14 0 0 5.25389e-14 -5.72703e-13 -1.53933e-14 4.63711e-15 0 0 -1.40303e-13 -3.52263e-13 -1.01327e-13 -3.43257e-14 0 0 -1.72768e-13 -4.00358e-13 -6.56647e-14 4.30067e-14 0 0 -3.07323e-13 -1.58767e-13 -4.94736e-13 4.17892e-13 0 0 -3.04595e-13 2.39557e-14 -8.16922e-13 4.73232e-13 0 0 -4.4114e-15 -5.44118e-13 -1.33255e-13 -1.08064e-13 0 0 -3.71868e-13 -2.07988e-13 -2.59207e-13 -9.89687e-14 0 0 -6.20812e-13 7.03677e-14 -3.78363e-13 -1.99998e-13 0 0 -4.77209e-13 -2.37832e-13 2.57953e-14 -5.95267e-13 0
				</DataArray>
				<DataArray Name="VitesseY" type="Float32" format="ascii">