<?xml version="1.0"?>
<VTKFile type="PolyData">
	<PolyData>
		<Piece NumberOfPoints="1206" NumberOfPolys="1000">
			<Points>
				<DataArray type="Float32" NumberOfComponents="3" format="ascii">
 0 0 0 0.02 0 0 0.04 0 0 0.06 0 0 0.08 0 0 0.1 0 0 0 0.005 0 0.02 0.005 0 0.04 0.005 0 0.06 0.005 0 0.08 0.005 0 0.1 0.005 0 0 0.01 0 0.02 0.01 0 0.04 0.01 0 0.06 0.01 0 0.08 0.01 0 0.1 0.01 0 0 0.015 0 0.02 0.015 0 0.04 0.015 0 0.06 0.015 0 0.08 0.015 0 0.1 0.015 0 0 0.02 0 0.02 0.02 0 0.04 0.02 0 0.06 0.02 0 0.08 0.02 0 0.1 0.02 0 0 0.025 0 0.02 0.025 0 0.04 0.025 0 0.06 0.025 0 0.08 0.025 0 0.1 0.025 0 0 0.03 0 0.02 0.03 0 0.04 0.03 0 0.06 0.03 0 0.08 0.03 0 0.1 0.03 0 0 0.035 0 0.02 0.035 0 0.04 0.035 0 0.06 0.035 0 0.08 0.035 0 0.1 0.035 0 0 0.04 0 0.02 0.04 0 0.04 0.04 0 0.06 0.04 0 0.08 0.04 0 0.1 0.04 0 0 0.045 0 0.02 0.045 0 0.04 0.045 0 0.06 0.045 0 0.08 0.045 0 0.1 0.045 0 0 0.05 0 0.02 0.05 0 0.04 0.05 0 0.06 0.05 0 0.08 0.05 0 0.1 0.05 0 0 0.055 0 0.02 0.055 0 0.04 0.055 0 0.06 0.055 0 0.08 0.055 0 0.1 0.055 0 0 0.06 0 0.02 0.06 0 0.04 0.06 0 0.06 0.06 0 0.08 0.06 0 0.1 0.06 0 0 0.065 0 0.02 0.065 0 0.04 0.065 0 0.06 0.065 0 0.08 0.065 0 0.1 0.065 0 0 0.07 0 0.02 0.07 0 0.04 0.07 0 0.06 0.07 0 0.08 0.07 0 0.1 0.07 0 0 0.075 0 0.02 0.075 0 0.04 0.075 0 0.06 0.075 0 0.08 0.075 0 0.1 0.075 0 0 0.08 0 0.02 0.08 0 0.04 0.08 0 0.06 0.08 0 0.08 0.08 0 0.1 0.08 0 0 0.085 0 0.02 0.085 0 0.04 0.085 0 0.06 0.085 0 0.08 0.085 0 0.1 0.085 0 0 0.09 0 0.02 0.09 0 0.04 0.09 0 0.06 0.09 0 0.08 0.09 0 0.1 0.09 0 0 0.095 0 0.02 0.095 0 0.04 0.095 0 0.06 0.095 0 0.08 0.095 0 0.1 0.095 0 0 0.1 0 0.02 0.1 0 0.04 0.1 0 0.06 0.1 0 0.08 0.1 0 0.1 0.1 0 0 0.105 0 0.02 0.105 0 0.04 0.105 0 0.06 0.105 0 0.08 0.105 0 0.1 0.105 0 0 0.11 0 0.02 0.11 0 0.04 0.11 0 0.06 0.11 0 0.08 0.11 0 0.1 0.11 0 0 0.115 0 0.02 0.115 0 0.04 0.115 0 0.06 0.115 0 0.08 0.115 0 0.1 0.115 0 0 0.12 0 0.02 0.12 0 0.04 0.12 0 0.06 0.12 0 0.08 0.12 0 0.1 0.12 0 0 0.125 0 0.02 0.125 0 0.04 0.125 0 0.06 0.125 0 0.08 0.125 0 0.1 0.125 0 0 0.13 0 0.02 0.13 0 0.04 0.13 0 0.06 0.13 0 0.08 0.13 0 0.1 0.13 0 0 0.135 0 0.02 0.135 0 0.04 0.135 0 0.06 0.135 0 0.08 0.135 0 0.1 0.135 0 0 0.14 0 0.02 0.14 0 0.04 0.14 0 0.06 0.14 0 0.08 0.14 0 0.1 0.14 0 0 0.145 0 0.02 0.145 0 0.04 0.145 0 0.06 0.145 0 0.08 0.145 0 0.1 0.145 0 0 0.15 0 0.02 0.15 0 0.04 0.15 0 0.06 0.15 0 0.08 0.15 0 0.1 0.15 0 0 0.155 0 0.02 0.155 0 0.04 0.155 0 0.06 0.155 0 0.08 0.155 0 0.1 0.155 0 0 0.16 0 0.02 0.16 0 0.04 0.16 0 0.06 0.16 0 0.08 0.16 0 0.1 0.16 0 0 0.165 0 0.02 0.165 0 0.04 0.165 0 0.06 0.165 0 0.08 0.165 0 0.1 0.165 0 0 0.17 0 0.02 0.17 0 0.04 0.17 0 0.06 0.17 0 0.08 0.17 0 0.1 0.17 0 0 0.175 0 0.02 0.175 0 0.04 0.175 0 0.06 0.175 0 0.08 0.175 0 0.1 0.175 0 0 0.18 0 0.02 0.18 0 0.04 0.18 0 0.06 0.18 0 0.08 0.18 0 0.1 0.18 0 0 0.185 0 0.02 0.185 0 0.04 0.185 0 0.06 0.185 0 0.08 0.185 0 0.1 0.185 0 0 0.19 0 0.02 0.19 0 0.04 0.19 0 0.06 0.19 0 0.08 0.19 0 0.1 0.19 0 0 0.195 0 0.02 0.195 0 0.04 0.195 0 0.06 0.195 0 0.08 0.195 0 0.1 0.195 0 0 0.2 0 0.02 0.2 0 0.04 0.2 0 0.06 0.2 0 0.08 0.2 0 0.1 0.2 0 0 0.205 0 0.02 0.205 0 0.04 0.205 0 0.06 0.205 0 0.08 0.205 0 0.1 0.205 0 0 0.21 0 0.02 0.21 0 0.04 0.21 0 0.06 0.21 0 0.08 0.21 0 0.1 0.21 0 0 0.215 0 0.02 0.215 0 0.04 0.215 0 0.06 0.215 0 0.08 0.215 0 0.1 0.215 0 0 0.22 0 0.02 0.22 0 0.04 0.22 0 0.06 0.22 0 0.08 0.22 0 0.1 0.22 0 0 0.225 0 0.02 0.225 0 0.04 0.225 0 0.06 0.225 0 0.08 0.225 0 0.1 0.225 0 0 0.23 0 0.02 0.23 0 0.04 0.23 0 0.06 0.23 0 0.08 0.23 0 0.1 0.23 0 0 0.235 0 0.02 0.235 0 0.04 0.235 0 0.06 0.235 0 0.08 0.235 0 0.1 0.235 0 0 0.24 0 0.02 0.24 0 0.04 0.24 0 0.06 0.24 0 0.08 0.24 0 0.1 0.24 0 0 0.245 0 0.02 0.245 0 0.04 0.245 0 0.06 0.245 0 0.08 0.245 0 0.1 0.245 0 0 0.25 0 0.02 0.25 0 0.04 0.25 0 0.06 0.25 0 0.08 0.25 0 0.1 0.25 0 0 0.255 0 0.02 0.255 0 0.04 0.255 0 0.06 0.255 0 0.08 0.255 0 0.1 0.255 0 0 0.26 0 0.02 0.26 0 0.04 0.26 0 0.06 0.26 0 0.08 0.26 0 0.1 0.26 0 0 0.265 0 0.02 0.265 0 0.04 0.265 0 0.06 0.265 0 0.08 0.265 0 0.1 0.265 0 0 0.27 0 0.02 0.27 0 0.04 0.27 0 0.06 0.27 0 0.08 0.27 0 0.1 0.27 0 0 0.275 0 0.02 0.275 0 0.04 0.275 0 0.06 0.275 0 0.08 0.275 0 0.1 0.275 0 0 0.28 0 0.02 0.28 0 0.04 0.28 0 0.06 0.28 0 0.08 0.28 0 0.1 0.28 0 0 0.285 0 0.02 0.285 0 0.04 0.285 0 0.06 0.285 0 0.08 0.285 0 0.1 0.285 0 0 0.29 0 0.02 0.29 0 0.04 0.29 0 0.06 0.29 0 0.08 0.29 0 0.1 0.29 0 0 0.295 0 0.02 0.295 0 0.04 0.295 0 0.06 0.295 0 0.08 0.295 0 0.1 0.295 0 0 0.3 0 0.02 0.3 0 0.04 0.3 0 0.06 0.3 0 0.08 0.3 0 0.1 0.3 0 0 0.305 0 0.02 0.305 0 0.04 0.305 0 0.06 0.305 0 0.08 0.305 0 0.1 0.305 0 0 0.31 0 0.02 0.31 0 0.04 0.31 0 0.06 0.31 0 0.08 0.31 0 0.1 0.31 0 0 0.315 0 0.02 0.315 0 0.04 0.315 0 0.06 0.315 0 0.08 0.315 0 0.1 0.315 0 0 0.32 0 0.02 0.32 0 0.04 0.32 0 0.06 0.32 0 0.08 0.32 0 0.1 0.32 0 0 0.325 0 0.02 0.325 0 0.04 0.325 0 0.06 0.325 0 0.08 0.325 0 0.1 0.325 0 0 0.33 0 0.02 0.33 0 0.04 0.33 0 0.06 0.33 0 0.08 0.33 0 0.1 0.33 0 0 0.335 0 0.02 0.335 0 0.04 0.335 0 0.06 0.335 0 0.08 0.335 0 0.1 0.335 0 0 0.34 0 0.02 0.34 0 0.04 0.34 0 0.06 0.34 0 0.08 0.34 0 0.1 0.34 0 0 0.345 0 0.02 0.345 0 0.04 0.345 0 0.06 0.345 0 0.08 0.345 0 0.1 0.345 0 0 0.35 0 0.02 0.35 0 0.04 0.35 0 0.06 0.35 0 0.08 0.35 0 0.1 0.35 0 0 0.355 0 0.02 0.355 0 0.04 0.355 0 0.06 0.355 0 0.08 0.355 0 0.1 0.355 0 0 0.36 0 0.02 0.36 0 0.04 0.36 0 0.06 0.36 0 0.08 0.36 0 0.1 0.36 0 0 0.365 0 0.02 0.365 0 0.04 0.365 0 0.06 0.365 0 0.08 0.365 0 0.1 0.365 0 0 0.37 0 0.02 0.37 0 0.04 0.37 0 0.06 0.37 0 0.08 0.37 0 0.1 0.37 0 0 0.375 0 0.02 0.375 0 0.04 0.375 0 0.06 0.375 0 0.08 0.375 0 0.1 0.375 0 0 0.38 0 0.02 0.38 0 0.04 0.38 0 0.06 0.38 0 0.08 0.38 0 0.1 0.38 0 0 0.385 0 0.02 0.385 0 0.04 0.385 0 0.06 0.385 0 0.08 0.385 0 0.1 0.385 0 0 0.39 0 0.02 0.39 0 0.04 0.39 0 0.06 0.39 0 0.08 0.39 0 0.1 0.39 0 0 0.395 0 0.02 0.395 0 0.04 0.395 0 0.06 0.395 0 0.08 0.395 0 0.1 0.395 0 0 0.4 0 0.02 0.4 0 0.04 0.4 0 0.06 0.4 0 0.08 0.4 0 0.1 0.4 0 0 0.405 0 0.02 0.405 0 0.04 0.405 0 0.06 0.405 0 0.08 0.405 0 0.1 0.405 0 0 0.41 0 0.02 0.41 0 0.04 0.41 0 0.06 0.41 0 0.08 0.41 0 0.1 0.41 0 0 0.415 0 0.02 0.415 0 0.04 0.415 0 0.06 0.415 0 0.08 0.415 0 0.1 0.415 0 0 0.42 0 0.02 0.42 0 0.04 0.42 0 0.06 0.42 0 0.08 0.42 0 0.1 0.42 0 0 0.425 0 0.02 0.425 0 0.04 0.425 0 0.06 0.425 0 0.08 0.425 0 0.1 0.425 0 0 0.43 0 0.02 0.43 0 0.04 0.43 0 0.06 0.43 0 0.08 0.43 0 0.1 0.43 0 0 0.435 0 0.02 0.435 0 0.04 0.435 0 0.06 0.435 0 0.08 0.435 0 0.1 0.435 0 0 0.44 0 0.02 0.44 0 0.04 0.44 0 0.06 0.44 0 0.08 0.44 0 0.1 0.44 0 0 0.445 0 0.02 0.445 0 0.04 0.445 0 0.06 0.445 0 0.08 0.445 0 0.1 0.445 0 0 0.45 0 0.02 0.45 0 0.04 0.45 0 0.06 0.45 0 0.08 0.45 0 0.1 0.45 0 0 0.455 0 0.02 0.455 0 0.04 0.455 0 0.06 0.455 0 0.08 0.455 0 0.1 0.455 0 0 0.46 0 0.02 0.46 0 0.04 0.46 0 0.06 0.46 0 0.08 0.46 0 0.1 0.46 0 0 0.465 0 0.02 0.465 0 0.04 0.465 0 0.06 0.465 0 0.08 0.465 0 0.1 0.465 0 0 0.47 0 0.02 0.47 0 0.04 0.47 0 0.06 0.47 0 0.08 0.47 0 0.1 0.47 0 0 0.475 0 0.02 0.475 0 0.04 0.475 0 0.06 0.475 0 0.08 0.475 0 0.1 0.475 0 0 0.48 0 0.02 0.48 0 0.04 0.48 0 0.06 0.48 0 0.08 0.48 0 0.1 0.48 0 0 0.485 0 0.02 0.485 0 0.04 0.485 0 0.06 0.485 0 0.08 0.485 0 0.1 0.485 0 0 0.49 0 0.02 0.49 0 0.04 0.49 0 0.06 0.49 0 0.08 0.49 0 0.1 0.49 0 0 0.495 0 0.02 0.495 0 0.04 0.495 0 0.06 0.495 0 0.08 0.495 0 0.1 0.495 0 0 0.5 0 0.02 0.5 0 0.04 0.5 0 0.06 0.5 0 0.08 0.5 0 0.1 0.5 0 0 0.505 0 0.02 0.505 0 0.04 0.505 0 0.06 0.505 0 0.08 0.505 0 0.1 0.505 0 0 0.51 0 0.02 0.51 0 0.04 0.51 0 0.06 0.51 0 0.08 0.51 0 0.1 0.51 0 0 0.515 0 0.02 0.515 0 0.04 0.515 0 0.06 0.515 0 0.08 0.515 0 0.1 0.515 0 0 0.52 0 0.02 0.52 0 0.04 0.52 0 0.06 0.52 0 0.08 0.52 0 0.1 0.52 0 0 0.525 0 0.02 0.525 0 0.04 0.525 0 0.06 0.525 0 0.08 0.525 0 0.1 0.525 0 0 0.53 0 0.02 0.53 0 0.04 0.53 0 0.06 0.53 0 0.08 0.53 0 0.1 0.53 0 0 0.535 0 0.02 0.535 0 0.04 0.535 0 0.06 0.535 0 0.08 0.535 0 0.1 0.535 0 0 0.54 0 0.02 0.54 0 0.04 0.54 0 0.06 0.54 0 0.08 0.54 0 0.1 0.54 0 0 0.545 0 0.02 0.545 0 0.04 0.545 0 0.06 0.545 0 0.08 0.545 0 0.1 0.545 0 0 0.55 0 0.02 0.55 0 0.04 0.55 0 0.06 0.55 0 0.08 0.55 0 0.1 0.55 0 0 0.555 0 0.02 0.555 0 0.04 0.555 0 0.06 0.555 0 0.08 0.555 0 0.1 0.555 0 0 0.56 0 0.02 0.56 0 0.04 0.56 0 0.06 0.56 0 0.08 0.56 0 0.1 0.56 0 0 0.565 0 0.02 0.565 0 0.04 0.565 0 0.06 0.565 0 0.08 0.565 0 0.1 0.565 0 0 0.57 0 0.02 0.57 0 0.04 0.57 0 0.06 0.57 0 0.08 0.57 0 0.1 0.57 0 0 0.575 0 0.02 0.575 0 0.04 0.575 0 0.06 0.575 0 0.08 0.575 0 0.1 0.575 0 0 0.58 0 0.02 0.58 0 0.04 0.58 0 0.06 0.58 0 0.08 0.58 0 0.1 0.58 0 0 0.585 0 0.02 0.585 0 0.04 0.585 0 0.06 0.585 0 0.08 0.585 0 0.1 0.585 0 0 0.59 0 0.02 0.59 0 0.04 0.59 0 0.06 0.59 0 0.08 0.59 0 0.1 0.59 0 0 0.595 0 0.02 0.595 0 0.04 0.595 0 0.06 0.595 0 0.08 0.595 0 0.1 0.595 0 0 0.6 0 0.02 0.6 0 0.04 0.6 0 0.06 0.6 0 0.08 0.6 0 0.1 0.6 0 0 0.605 0 0.02 0.605 0 0.04 0.605 0 0.06 0.605 0 0.08 0.605 0 0.1 0.605 0 0 0.61 0 0.02 0.61 0 0.04 0.61 0 0.06 0.61 0 0.08 0.61 0 0.1 0.61 0 0 0.615 0 0.02 0.615 0 0.04 0.615 0 0.06 0.615 0 0.08 0.615 0 0.1 0.615 0 0 0.62 0 0.02 0.62 0 0.04 0.62 0 0.06 0.62 0 0.08 0.62 0 0.1 0.62 0 0 0.625 0 0.02 0.625 0 0.04 0.625 0 0.06 0.625 0 0.08 0.625 0 0.1 0.625 0 0 0.63 0 0.02 0.63 0 0.04 0.63 0 0.06 0.63 0 0.08 0.63 0 0.1 0.63 0 0 0.635 0 0.02 0.635 0 0.04 0.635 0 0.06 0.635 0 0.08 0.635 0 0.1 0.635 0 0 0.64 0 0.02 0.64 0 0.04 0.64 0 0.06 0.64 0 0.08 0.64 0 0.1 0.64 0 0 0.645 0 0.02 0.645 0 0.04 0.645 0 0.06 0.645 0 0.08 0.645 0 0.1 0.645 0 0 0.65 0 0.02 0.65 0 0.04 0.65 0 0.06 0.65 0 0.08 0.65 0 0.1 0.65 0 0 0.655 0 0.02 0.655 0 0.04 0.655 0 0.06 0.655 0 0.08 0.655 0 0.1 0.655 0 0 0.66 0 0.02 0.66 0 0.04 0.66 0 0.06 0.66 0 0.08 0.66 0 0.1 0.66 0 0 0.665 0 0.02 0.665 0 0.04 0.665 0 0.06 0.665 0 0.08 0.665 0 0.1 0.665 0 0 0.67 0 0.02 0.67 0 0.04 0.67 0 0.06 0.67 0 0.08 0.67 0 0.1 0.67 0 0 0.675 0 0.02 0.675 0 0.04 0.675 0 0.06 0.675 0 0.08 0.675 0 0.1 0.675 0 0 0.68 0 0.02 0.68 0 0.04 0.68 0 0.06 0.68 0 0.08 0.68 0 0.1 0.68 0 0 0.685 0 0.02 0.685 0 0.04 0.685 0 0.06 0.685 0 0.08 0.685 0 0.1 0.685 0 0 0.69 0 0.02 0.69 0 0.04 0.69 0 0.06 0.69 0 0.08 0.69 0 0.1 
[...]
			<PointData Scalars="VitesseX">
				<DataArray Name="VitesseX" type="Float32" format="ascii">
 0 -1.00288e-14 -1.17032e-14 -2.81831e-14 2.48443e-14 0 0 -1.761e-14 -3.57143e-15 -2.47509e-14 1.80205e-14 0 0 -7.778e-15 -2.21723e-14 4.57169e-15 -2.63735e-15 0 0 -2.41959e-14 -5.63639e-15 -7.5148e-15 9.94837e-15 0 0 -5.26562e-14 1.86024e-14 -1.1517e-14 1.01995e-14 0 0 -3.35274e-14 -1.49632e-14 2.47075e-14 -2.02243e-14 0 0 5.15149e-15 -5.06152e-14 1.50505e-14 -6.04096e-15 0 0 2.72209e-15 -3.75299e-14 -3.99576e-14 3.72105e-14 0 0 -1.9411e-14 -3.32004e-14 -3.86802e-14 2.52072e-14 0 0 -4.08242e-14 -3.05215e-14 -3.48513e-14 2.98426e-14 0 0 -8.26698e-14 3.41415e-14 -8.82773e-14 6.76678e-14 0 0 -3.97186e-14 -3.8235e-14 1.75874e-14 -6.24903e-15 0 0 -6.99451e-14 -1.03928e-14 2.88139e-14 -3.8638e-14 0 0 -6.29788e-14 4.67152e-15 7.83545e-15 -5.73091e-14 0 0 -3.08491e-14 1.65649e-15 -3.42939e-14 -1.61877e-14 0 0 -8.15703e-14 7.78114e-14 -1.16505e-13 5.70789e-14 0 0 -1.70379e-14 -4.6013e-14 -1.00572e-14 1.76033e-14 0 0 -7.33065e-14 2.90382e-14 -9.69608e-14 7.35878e-14 0 0 -1.29508e-13 1.13561e-13 -1.62335e-13 6.98028e-14 0 0 -5.61632e-14 1.18009e-14 -9.1348e-14 3.58956e-14 0 0 -2.05167e-14 -3.71342e-14 -1.28907e-13 1.14423e-13 0 0 -3.11667e-14 -4.06039e-14 -1.56467e-13 1.42846e-13 0 0 -8.83196e-14 -3.76561e-14 -4.61758e-14 2.64163e-14 0 0 -8.96768e-14 -5.96215e-14 7.07234e-14 -1.16688e-13 0 0 -3.01595e-14 -2.6983e-14 -3.18076e-14 -7.31468e-14 0 0 -5.25984e-15 3.90222e-15 -1.13492e-13 -3.75308e-14 0 0 -3.4922e-14 -2.54815e-14 -2.59895e-14 -1.66391e-13 0 0 -1.23887e-13 1.88875e-14 -5.50232e-14 -1.87885e-13 0 0 -1.08482e-13 -1.25921e-14 -1.13618e-13 -1.21868e-13 0 0 -7.05409e-14 -4.12647e-14 -1.22903e-13 -1.07712e-13 0 0 -2.14986e-14 -1.05669e-13 -1.40632e-14 -1.73803e-13 0 0 -1.83543e-14 -1.01866e-13 -6.34695e-15 -1.11779e-13 0 0 -1.09455e-13 -5.72543e-15 -5.07651e-14 -2.86947e-14 0 0 -1.13175e-13 -7.84276e-14 7.91065e-14 -8.23466e-14 0 0 -1.05915e-13 -4.42632e-14 -3.14015e-14 6.8904e-14 0 0 -3.1713e-14 -8.49601e-14 -3.84783e-14 1.40746e-13 0 0 -1.12023e-13 1.02291e-14 -1.43748e-14 1.1726e-13 0 0 -1.66153e-13 5.14389e-14 5.16672e-14 2.67919e-14 0 0 -1.66938e-13 7.47417e-14 2.19256e-14 3.81674e-14 0 0 -1.12256e-13 3.77599e-14 -4.77919e-14 1.20112e-13 0 0 -7.61617e-15 -1.683e-13 5.39811e-14 3.51316e-14 0 0 -4.56568e-14 -1.88099e-13 4.83606e-14 -1.11515e-14 0 0 -8.39464e-14 -1.44307e-13 8.76886e-15 -3.56302e-14 0 0 -3.0952e-14 -1.38849e-13 -5.61042e-14 -9.6651e-15 0 0 -3.16293e-14 -5.25983e-14 -1.34676e-13 -7.31145e-15 0 0 -3.64542e-14 -1.13777e-13 7.17314e-14 -2.65192e-13 0 0 -2.52753e-13 5.19029e-14 3.83948e-14 -3.18925e-13 0 0 -3.00901e-13 1.9388e-14 5.43241e-14 -2.8595e-13 0 0 -1.46607e-13 -2.07228e-13 1.26419e-13 -2.33841e-13 0 0 -9.25367e-14 -2.18586e-13 -5.05489e-14 1.52911e-15 0 0 3.94147e-14 -3.5446e-13 1.06396e-14 -7.85002e-16 0 0 -2.39081e-13 -9.95839e-15 -9.65279e-14 -9.42461e-14 0 0 -3.13439e-13 -3.94922e-14 1.99447e-13 -4.97534e-13 0 0 -3.67767e-13 9.06131e-14 3.7186e-15 -3.65631e-13 0 0 -2.1443e-13 1.34481e-13 -3.51302e-13 3.86274e-14 0 0 1.07494e-13 -2.42199e-13 -6.51017e-14 -9.48561e-14 0 0 -2.85297e-13 1.0379e-13 -1.8327e-13 -9.04353e-14 0 0 -2.44424e-13 -2.05298e-13 3.74003e-13 -5.68899e-13 0 0 -2.25621e-13 -1.85563e-13 3.52393e-13 -5.72118e-13 0 0 -3.21619e-13 1.36628e-13 -2.04329e-13 -7.07254e-14 0 0 -9.38126e-14 -9.56066e-14 -1.4561e-13 -9.68063e-15 0 0 -1.74854e-13 -8.7859e-19 -2.08424e-13 1.59055e-14 0 0 -1.02222e-13 -1.07867e-13 -4.45559e-14 -1.15527e-13 0 0 -1.16339e-13 1.37036e-14 -2.01707e-13 -1.5003e-14 0 0 -1.38018e-13 4.83995e-14 -2.42555e-13 3.4174e-14 0 0 -7.28883e-14 -1.10658e-13 -9.43755e-14 -2.94229e-14 0 0 -1.8924e-13 2.85222e-14 -2.87671e-13 1.09343e-13 0 0 -7.31345e-14 -7.35973e-14 -2.38364e-13 4.79153e-14 0 0 -5.74467e-14 -9.8942e-14 -2.29025e-13 6.05985e-14 0 0 -2.7961e-13 8.29295e-14 -1.44602e-13 -6.13059e-14 0 0 -1.64491e-13 -2.67682e-13 5.00471e-13 -5.4286e-13 0 0 -3.15127e-13 -3.5861e-14 2.15982e-13 -1.88121e-13 0 0 -1.5169e-13 -1.80292e-14 -4.27934e-14 2.38571e-13 0 0 -6.98741e-14 -7.67046e-14 -9.20308e-14 3.8099e-13 0 0 -4.09503e-13 1.54874e-13 -8.44188e-14 2.37479e-13 0 0 -4.34775e-13 5.46507e-14 1.79544e-13 -7.10363e-14 0 0 -3.6668e-13 1.49262e-13 -2.17943e-13 1.61342e-13 0 0 -6.47227e-14 -1.96344e-13 -1.32282e-13 9.65457e-14 0 0 -3.53738e-13 -4.52846e-14 -1.31592e-13 -1.03767e-14 0 0 -4.44014e-13 -1.85344e-13 3.49441e-14 -2.51156e-13 0 0 -3.00883e-13 -2.48898e-13 -1.16443e-13 -1.48216e-13 0 0 -5.19967e-13 1.45433e-13 -4.65491e-13 6.81538e-14 0 0 -2.65885e-13 -2.88191e-13 1.28238e-13 -4.96785e-13 0 0 -2.30254e-13 -2.70533e-14 -3.90168e-13 -3.09991e-13 0 0 -2.34585e-13 2.86132e-13 -9.44163e-13 -8.21647e-15 0 0 -1.57318e-13 -2.11108e-13 -1.2422e-13 -5.47326e-13 0 0 -5.19039e-13 -1.87322e-13 8.97057e-14 -6.00966e-13 0 0 -3.71272e-13 -2.08091e-13 -2.98942e-13 -1.63274e-13 0 0 1.64178e-13 -6.74846e-13 -3.29269e-13 8.4268e-14 0 0 -8.82151e-14 -2.04527e-13 -5.18502e-13 -1.12294e-13 0 0 -3.70698e-13 -7.37826e-15 -1.36284e-13 -6.68057e-13 0 0 -4.49772e-13 -1.77878e-13 7.94053e-14 -7.13871e-13 0 0 -1.00485e-13 -1.84735e-13 -4.99051e-13 1.49118e-14 0 0 4.23343e-13 -8.32279e-13 -5.99426e-13 5.76831e-13 0 0 -3.97768e-13 -4.55835e-14 -4.0116e-13 1.43339e-13 0 0 -3.2407e-13 -3.05493e-13 7.41559e-13 -1.02392e-12 0 0 1.54104e-14 -4.54016e-13 5.3127e-13 -8.97253e-13 0 0 -8.27834e-13 9.57737e-13 -3.68904e-13 -5.27811e-13 0 0 1.7842e-13 -2.00293e-13 2.04189e-13 -7.37315e-13 0 0 2.06312e-13 -2.12261e-13 1.24735e-14 -4.92985e-13 0 0 5.00404e-14 -1.2312e-13 -3.25169e-13 -1.4709e-13 0 0 -8.09937e-14 -1.48414e-13 -4.88862e-13 4.77824e-14 0 0 -1.96762e-13 -1.91024e-13 -5.29479e-13 9.68685e-14 0 0 -2.8494e-13 -2.28192e-13 -5.15295e-13 4.2895e-14 0 0 -3.34877e-13 -2.71091e-13 -4.9218e-13 -2.50213e-14 0 0 -3.3587e-13 -3.59089e-13 -4.34723e-13 -6.77892e-14 0 0 -3.05835e-13 -3.9235e-13 -3.93987e-13 -1.10519e-13 0 0 -2.6899e-13 -2.67956e-13 -5.50109e-13 3.16996e-14 0 0 -2.25503e-13 -2.12552e-13 -5.61044e-13 9.09822e-14 0 0 -2.07803e-13 -3.14369e-13 -1.17254e-13 -3.40186e-13 0 0 -2.59346e-13 -2.19167e-13 6.3494e-15 -5.55014e-13 0 0 -1.42231e-13 -7.12427e-14 -3.81971e-13 -2.62128e-13 0 0 5.93761e-14 -1.80401e-13 -4.82568e-13 -1.21283e-13 0 0 -4.15751e-14 -1.62967e-13 -4.56222e-13 -1.1434e-13 0 0 -2.89336e-13 -1.89172e-13 -1.57681e-13 -3.35057e-13 0 0 -3.27629e-13 -3.98146e-13 1.38162e-13 -5.14535e-13 0 0 -9.3595e-14 -4.95917e-13 -8.43283e-14 -3.49317e-13 0 0 -1.20644e-13 -1.35775e-13 -6.00859e-13 -1.18959e-13 0 0 -2.21928e-13 -1.53262e-13 -2.57737e-13 -4.9046e-13 0 0 -3.56361e-13 -1.86943e-13 -6.82945e-14 -5.34024e-13 0 0 -3.79728e-13 -2.06128e-13 -1.54143e-13 -2.84785e-13 0 0 -1.25197e-13 -4.52896e-13 -4.31842e-14 -3.48837e-13 0 0 -2.25229e-13 -1.83401e-13 -4.47262e-13 -1.15834e-13 0 0 -3.47775e-13 -2.07407e-13 -2.89466e-13 -2.23068e-13 0 0 -5.46456e-13 -1.16322e-13 -2.63659e-13 -1.52488e-13 0 0 -6.03994e-13 -2.22582e-13 -8.15375e-14 -1.1493e-13 0 0 -2.49006e-13 -4.39494e-13 -2.34644e-14 -1.18037e-13 0 0 -2.08968e-13 -1.76495e-13 -5.30174e-13 8.05786e-14 0 0 -3.43834e-13 -2.3422e-13 -2.95927e-13 -3.50393e-13 0 0 -5.29119e-13 -2.02518e-13 -1.67149e-13 -4.52522e-13 0 0 -6.41024e-13 -2.43417e-13 -4.06154e-14 -2.87714e-13 0 0 -3.29827e-13 -3.59666e-13 -5.61069e-14 -2.35873e-13 0 0 -2.22341e-13 -1.59613e-13 -4.88519e-13 3.05491e-14 0 0 -3.5431e-13 -2.08891e-13 -3.28847e-13 -1.74929e-13 0 0 -5.63781e-13 -8.40732e-14 -2.82865e-13 -3.37414e-13 0 0 -5.91646e-13 -1.2921e-13 -1.24417e-13 -3.9218e-13 0 0 -2.18135e-13 -2.95703e-13 -1.23543e-13 -4.04889e-13 0 0 -1.70763e-13 -5.27923e-14 -6.59598e-13 -1.15432e-13 0 0 -3.79026e-13 -1.84323e-13 -4.64732e-13 -2.72649e-13 0 0 -3.75926e-13 -4.84606e-13 -3.92786e-13 -1.46549e-13 0 0 -3.01288e-13 -5.92145e-13 -3.92278e-13 -5.96522e-14 0 0 -2.05325e-13 -5.49292e-13 -5.52557e-14 -5.04367e-13 0 0 -1.63715e-13 -5.2542e-14 -6.83781e-13 -3.52301e-13 0 0 -1.49416e-13 6.10098e-14 -7.70839e-13 -4.84241e-13 0 0 -4.54833e-13 -1.08931e-13 -1.88778e-13 -7.17071e-13 0 0 -7.16961e-13 6.63749e-14 -4.93217e-13 -4.69381e-14 0 0 -2.77689e-13 -4.54164e-13 -2.56555e-13 1.6955e-13 0 0 -1.76715e-13 -4.52289e-13 -3.85401e-13 3.08012e-13 0 0 -3.22171e-13 -1.96313e-13 -5.94793e-13 4.39418e-13 0 0 -6.32537e-13 -1.30058e-13 -4.75625e-13 4.94658e-13 0 0 -7.34163e-13 -8.27016e-14 -7.84189e-13 1.01744e-12 0 0 -2.97706e-13 -6.99279e-13 -1.5984e-13 5.23805e-13 0 0 -3.86165e-13 -4.29646e-13 -9.04638e-14 -7.66877e-14 0 0 -3.87183e-13 -2.24994e-13 -2.33025e-13 -2.93011e-13 0 0 -5.03501e-13 -2.15162e-13 -1.9134e-13 -3.52231e-13 0 0 -7.20269e-13 -3.41714e-13 -4.44443e-14 -2.71144e-13 0 0 -3.67843e-13 -7.35208e-13 -4.52567e-14 -2.89117e-13 0 0 -9.44532e-14 -5.66521e-13 -7.87921e-13 -1.33718e-13 0 0 -3.12719e-13 -2.50785e-13 -9.62085e-13 -4.48758e-13 0 0 -8.90517e-13 2.74173e-13 -8.11591e-13 -6.3319e-13 0 0 -8.42347e-13 6.66808e-14 -4.14186e-13 -3.37457e-13 0 0 4.02906e-14 -7.109e-13 -2.96527e-13 -1.06401e-14 0 0 3.38186e-13 -8.59877e-13 -6.55274e-13 -2.171e-15 0 0 -1.96814e-13 -5.00159e-13 -6.13717e-13 -8.65766e-13 0 0 -8.27243e-13 8.94348e-14 -8.05516e-13 -1.4062e-12 0 0 -8.57183e-13 1.35483e-13 -1.19072e-12 -9.22024e-13 0 0 -2.32779e-13 -3.63815e-13 -1.1596e-12 -5.05684e-13 0 0 -7.78731e-14 -4.86894e-13 -8.52738e-13 -4.78703e-13 0 0 -2.39573e-13 -6.78399e-13 -1.39611e-13 -9.55302e-13 0 0 -2.0661e-13 -7.49265e-13 -2.27356e-13 -9.04829e-13 0 0 -4.04563e-13 -4.74074e-13 -7.49443e-13 -6.54771e-13 0 0 -5.89679e-13 -3.37836e-13 -5.0975e-13 -1.38128e-12 0 0 -6.2211e-13 -1.84378e-14 -8.04346e-13 -1.28314e-12 0 0 -2.24182e-13 -4.44248e-13 -7.83058e-13 -6.35997e-13 0 0 1.05245e-13 -1.02411e-12 -3.69402e-13 -2.84625e-13 0 0 -3.28759e-13 -6.77995e-13 -4.41476e-13 -2.91881e-13 0 0 -6.32633e-13 -2.67497e-13 -4.05313e-13 -1.15498e-12 0 0 -5.89795e-13 1.87246e-14 -7.34435e-13 -1.38602e-12 0 0 -1.30584e-13 -5.51032e-13 -6.08061e-13 -9.47223e-13 0 0 1.54369e-13 -1.03126e-12 -4.37255e-13 -3.05001e-13 0 0 -2.71366e-13 -5.96761e-13 -7.42871e-13 2.72441e-14 0 0 -6.00814e-13 -2.64527e-13 -5.57616e-13 -8.24416e-13 0 0 -7.58495e-13 2.31948e-13 -9.32298e-13 -1.07853e-12 0 0 -2.42643e-13 -4.38593e-13 -5.5509e-13 -9.69632e-13 0 0 1.64288e-13 -1.11347e-12 -2.17581e-13 -4.93221e-13 0 0 -3.48028e-13 -5.25631e-13 -8.27806e-13 1.84511e-13 0 0 -6.14219e-13 -3.04478e-13 -6.88813e-13 -5.07708e-13 0 0 -6.74193e-13 4.37495e-14 -1.17242e-12 -8.474e-13 0 0 -3.04267e-13 -4.67354e-13 -1.04481e-12 -8.03437e-13 0 0 1.33984e-13 -1.12094e-12 -7.23632e-13 -3.45563e-13 0 0 -5.18303e-13 -4.38565e-13 -5.90278e-13 -2.69582e-13 0 0 -7.13326e-13 -5.8766e-13 7.81448e-13 -1.7534e-12 0 0 -4.20706e-13 -5.06473e-13 -2.96362e-14 -1.33536e-12 0 0 -5.25988e-14 -4.54601e-13 -1.33559e-12 -1.2172e-13 0 0 -3.97092e-13 -4.89266e-13 -9.93571e-13 -4.70224e-13 0 0 -1.30875e-12 3.66191e-13 -1.06816e-12 -5.94458e-13 0 0 -6.03858e-13 -2.8328e-13 -7.07477e-13 -4.82846e-13 0 0 3.28737e-14 -6.83254e-13 -1.1248e-12 2.95729e-13 0 0 8.74013e-14 -1.06842e-12 -7.22927e-13 2.48001e-13 0 0 -5.24686e-13 -8.47223e-13 -2.60003e-13 -2.86233e-13 0 0 -1.31464e-12 2.07181e-13 -1.03412e-12 -2.03215e-14 0
				</DataArray>
				<DataArray Name="VitesseY" type="Float32" format="ascii">