<?xml version="1.0"?>
<VTKFile type="PolyData">
	<PolyData>
		<Piece NumberOfPoints="1206" NumberOfPolys="1000">
			<Points>
				<DataArray type="Float32" NumberOfComponents="3" format="ascii">
 0 0 0 0.02 0 0 0.04 0 0 0.06 0 0 0.08 0 0 0.1 0 0 0 0.005 0 0.02 0.005 0 0.04 0.005 0 0.06 0.005 0 0.08 0.005 0 0.1 0.005 0 0 0.01 0 0.02 0.01 0 0.04 0.01 0 0.06 0.01 0 0.08 0.01 0 0.1 0.01 0 0 0.015 0 0.02 0.015 0 0.04 0.015 0 0.06 0.015 0 0.08 0.015 0 0.1 0.015 0 0 0.02 0 0.02 0.02 0 0.04 0.02 0 0.06 0.02 0 0.08 0.02 0 0.1 0.02 0 0 0.025 0 0.02 0.025 0 0.04 0.025 0 0.06 0.025 0 0.08 0.025 0 0.1 0.025 0 0 0.03 0 0.02 0.03 0 0.04 0.03 0 0.06 0.03 0 0.08 0.03 0 0.1 0.03 0 0 0.035 0 0.02 0.035 0 0.04 0.035 0 0.06 0.035 0 0.08 0.035 0 0.1 0.035 0 0 0.04 0 0.02 0.04 0 0.04 0.04 0 0.06 0.04 0 0.08 0.04 0 0.1 0.04 0 0 0.045 0 0.02 0.045 0 0.04 0.045 0 0.06 0.045 0 0.08 0.045 0 0.1 0.045 0 0 0.05 0 0.02 0.05 0 0.04 0.05 0 0.06 0.05 0 0.08 0.05 0 0.1 0.05 0 0 0.055 0 0.02 0.055 0 0.04 0.055 0 0.06 0.055 0 0.08 0.055 0 0.1 0.055 0 0 0.06 0 0.02 0.06 0 0.04 0.06 0 0.06 0.06 0 0.08 0.06 0 0.1 0.06 0 0 0.065 0 0.02 0.065 0 0.04 0.065 0 0.06 0.065 0 0.08 0.065 0 0.1 0.065 0 0 0.07 0 0.02 0.07 0 0.04 0.07 0 0.06 0.07 0 0.08 0.07 0 0.1 0.07 0 0 0.075 0 0.02 0.075 0 0.04 0.075 0 0.06 0.075 0 0.08 0.075 0 0.1 0.075 0 0 0.08 0 0.02 0.08 0 0.04 0.08 0 0.06 0.08 0 0.08 0.08 0 0.1 0.08 0 0 0.085 0 0.02 0.085 0 0.04 0.085 0 0.06 0.085 0 0.08 0.085 0 0.1 0.085 0 0 0.09 0 0.02 0.09 0 0.04 0.09 0 0.06 0.09 0 0.08 0.09 0 0.1 0.09 0 0 0.095 0 0.02 0.095 0 0.04 0.095 0 0.06 0.095 0 0.08 0.095 0 0.1 0.095 0 0 0.1 0 0.02 0.1 0 0.04 0.1 0 0.06 0.1 0 0.08 0.1 0 0.1 0.1 0 0 0.105 0 0.02 0.105 0 0.04 0.105 0 0.06 0.105 0 0.08 0.105 0 0.1 0.105 0 0 0.11 0 0.02 0.11 0 0.04 0.11 0 0.06 0.11 0 0.08 0.11 0 0.1 0.11 0 0 0.115 0 0.02 0.115 0 0.04 0.115 0 0.06 0.115 0 0.08 0.115 0 0.1 0.115 0 0 0.12 0 0.02 0.12 0 0.04 0.12 0 0.06 0.12 0 0.08 0.12 0 0.1 0.12 0 0 0.125 0 0.02 0.125 0 0.04 0.125 0 0.06 0.125 0 0.08 0.125 0 0.1 0.125 0 0 0.13 0 0.02 0.13 0 0.04 0.13 0 0.06 0.13 0 0.08 0.13 0 0.1 0.13 0 0 0.135 0 0.02 0.135 0 0.04 0.135 0 0.06 0.135 0 0.08 0.135 0 0.1 0.135 0 0 0.14 0 0.02 0.14 0 0.04 0.14 0 0.06 0.14 0 0.08 0.14 0 0.1 0.14 0 0 0.145 0 0.02 0.145 0 0.04 0.145 0 0.06 0.145 0 0.08 0.145 0 0.1 0.145 0 0 0.15 0 0.02 0.15 0 0.04 0.15 0 0.06 0.15 0 0.08 0.15 0 0.1 0.15 0 0 0.155 0 0.02 0.155 0 0.04 0.155 0 0.06 0.155 0 0.08 0.155 0 0.1 0.155 0 0 0.16 0 0.02 0.16 0 0.04 0.16 0 0.06 0.16 0 0.08 0.16 0 0.1 0.16 0 0 0.165 0 0.02 0.165 0 0.04 0.165 0 0.06 0.165 0 0.08 0.165 0 0.1 0.165 0 0 0.17 0 0.02 0.17 0 0.04 0.17 0 0.06 0.17 0 0.08 0.17 0 0.1 0.17 0 0 0.175 0 0.02 0.175 0 0.04 0.175 0 0.06 0.175 0 0.08 0.175 0 0.1 0.175 0 0 0.18 0 0.02 0.18 0 0.04 0.18 0 0.06 0.18 0 0.08 0.18 0 0.1 0.18 0 0 0.185 0 0.02 0.185 0 0.04 0.185 0 0.06 0.185 0 0.08 0.185 0 0.1 0.185 0 0 0.19 0 0.02 0.19 0 0.04 0.19 0 0.06 0.19 0 0.08 0.19 0 0.1 0.19 0 0 0.195 0 0.02 0.195 0 0.04 0.195 0 0.06 0.195 0 0.08 0.195 0 0.1 0.195 0 0 0.2 0 0.02 0.2 0 0.04 0.2 0 0.06 0.2 0 0.08 0.2 0 0.1 0.2 0 0 0.205 0 0.02 0.205 0 0.04 0.205 0 0.06 0.205 0 0.08 0.205 0 0.1 0.205 0 0 0.21 0 0.02 0.21 0 0.04 0.21 0 0.06 0.21 0 0.08 0.21 0 0.1 0.21 0 0 0.215 0 0.02 0.215 0 0.04 0.215 0 0.06 0.215 0 0.08 0.215 0 0.1 0.215 0 0 0.22 0 0.02 0.22 0 0.04 0.22 0 0.06 0.22 0 0.08 0.22 0 0.1 0.22 0 0 0.225 0 0.02 0.225 0 0.04 0.225 0 0.06 0.225 0 0.08 0.225 0 0.1 0.225 0 0 0.23 0 0.02 0.23 0 0.04 0.23 0 0.06 0.23 0 0.08 0.23 0 0.1 0.23 0 0 0.235 0 0.02 0.235 0 0.04 0.235 0 0.06 0.235 0 0.08 0.235 0 0.1 0.235 0 0 0.24 0 0.02 0.24 0 0.04 0.24 0 0.06 0.24 0 0.08 0.24 0 0.1 0.24 0 0 0.245 0 0.02 0.245 0 0.04 0.245 0 0.06 0.245 0 0.08 0.245 0 0.1 0.245 0 0 0.25 0 0.02 0.25 0 0.04 0.25 0 0.06 0.25 0 0.08 0.25 0 0.1 0.25 0 0 0.255 0 0.02 0.255 0 0.04 0.255 0 0.06 0.255 0 0.08 0.255 0 0.1 0.255 0 0 0.26 0 0.02 0.26 0 0.04 0.26 0 0.06 0.26 0 0.08 0.26 0 0.1 0.26 0 0 0.265 0 0.02 0.265 0 0.04 0.265 0 0.06 0.265 0 0.08 0.265 0 0.1 0.265 0 0 0.27 0 0.02 0.27 0 0.04 0.27 0 0.06 0.27 0 0.08 0.27 0 0.1 0.27 0 0 0.275 0 0.02 0.275 0 0.04 0.275 0 0.06 0.275 0 0.08 0.275 0 0.1 0.275 0 0 0.28 0 0.02 0.28 0 0.04 0.28 0 0.06 0.28 0 0.08 0.28 0 0.1 0.28 0 0 0.285 0 0.02 0.285 0 0.04 0.285 0 0.06 0.285 0 0.08 0.285 0 0.1 0.285 0 0 0.29 0 0.02 0.29 0 0.04 0.29 0 0.06 0.29 0 0.08 0.29 0 0.1 0.29 0 0 0.295 0 0.02 0.295 0 0.04 0.295 0 0.06 0.295 0 0.08 0.295 0 0.1 0.295 0 0 0.3 0 0.02 0.3 0 0.04 0.3 0 0.06 0.3 0 0.08 0.3 0 0.1 0.3 0 0 0.305 0 0.02 0.305 0 0.04 0.305 0 0.06 0.305 0 0.08 0.305 0 0.1 0.305 0 0 0.31 0 0.02 0.31 0 0.04 0.31 0 0.06 0.31 0 0.08 0.31 0 0.1 0.31 0 0 0.315 0 0.02 0.315 0 0.04 0.315 0 0.06 0.315 0 0.08 0.315 0 0.1 0.315 0 0 0.32 0 0.02 0.32 0 0.04 0.32 0 0.06 0.32 0 0.08 0.32 0 0.1 0.32 0 0 0.325 0 0.02 0.325 0 0.04 0.325 0 0.06 0.325 0 0.08 0.325 0 0.1 0.325 0 0 0.33 0 0.02 0.33 0 0.04 0.33 0 0.06 0.33 0 0.08 0.33 0 0.1 0.33 0 0 0.335 0 0.02 0.335 0 0.04 0.335 0 0.06 0.335 0 0.08 0.335 0 0.1 0.335 0 0 0.34 0 0.02 0.34 0 0.04 0.34 0 0.06 0.34 0 0.08 0.34 0 0.1 0.34 0 0 0.345 0 0.02 0.345 0 0.04 0.345 0 0.06 0.345 0 0.08 0.345 0 0.1 0.345 0 0 0.35 0 0.02 0.35 0 0.04 0.35 0 0.06 0.35 0 0.08 0.35 0 0.1 0.35 0 0 0.355 0 0.02 0.355 0 0.04 0.355 0 0.06 0.355 0 0.08 0.355 0 0.1 0.355 0 0 0.36 0 0.02 0.36 0 0.04 0.36 0 0.06 0.36 0 0.08 0.36 0 0.1 0.36 0 0 0.365 0 0.02 0.365 0 0.04 0.365 0 0.06 0.365 0 0.08 0.365 0 0.1 0.365 0 0 0.37 0 0.02 0.37 0 0.04 0.37 0 0.06 0.37 0 0.08 0.37 0 0.1 0.37 0 0 0.375 0 0.02 0.375 0 0.04 0.375 0 0.06 0.375 0 0.08 0.375 0 0.1 0.375 0 0 0.38 0 0.02 0.38 0 0.04 0.38 0 0.06 0.38 0 0.08 0.38 0 0.1 0.38 0 0 0.385 0 0.02 0.385 0 0.04 0.385 0 0.06 0.385 0 0.08 0.385 0 0.1 0.385 0 0 0.39 0 0.02 0.39 0 0.04 0.39 0 0.06 0.39 0 0.08 0.39 0 0.1 0.39 0 0 0.395 0 0.02 0.395 0 0.04 0.395 0 0.06 0.395 0 0.08 0.395 0 0.1 0.395 0 0 0.4 0 0.02 0.4 0 0.04 0.4 0 0.06 0.4 0 0.08 0.4 0 0.1 0.4 0 0 0.405 0 0.02 0.405 0 0.04 0.405 0 0.06 0.405 0 0.08 0.405 0 0.1 0.405 0 0 0.41 0 0.02 0.41 0 0.04 0.41 0 0.06 0.41 0 0.08 0.41 0 0.1 0.41 0 0 0.415 0 0.02 0.415 0 0.04 0.415 0 0.06 0.415 0 0.08 0.415 0 0.1 0.415 0 0 0.42 0 0.02 0.42 0 0.04 0.42 0 0.06 0.42 0 0.08 0.42 0 0.1 0.42 0 0 0.425 0 0.02 0.425 0 0.04 0.425 0 0.06 0.425 0 0.08 0.425 0 0.1 0.425 0 0 0.43 0 0.02 0.43 0 0.04 0.43 0 0.06 0.43 0 0.08 0.43 0 0.1 0.43 0 0 0.435 0 0.02 0.435 0 0.04 0.435 0 0.06 0.435 0 0.08 0.435 0 0.1 0.435 0 0 0.44 0 0.02 0.44 0 0.04 0.44 0 0.06 0.44 0 0.08 0.44 0 0.1 0.44 0 0 0.445 0 0.02 0.445 0 0.04 0.445 0 0.06 0.445 0 0.08 0.445 0 0.1 0.445 0 0 0.45 0 0.02 0.45 0 0.04 0.45 0 0.06 0.45 0 0.08 0.45 0 0.1 0.45 0 0 0.455 0 0.02 0.455 0 0.04 0.455 0 0.06 0.455 0 0.08 0.455 0 0.1 0.455 0 0 0.46 0 0.02 0.46 0 0.04 0.46 0 0.06 0.46 0 0.08 0.46 0 0.1 0.46 0 0 0.465 0 0.02 0.465 0 0.04 0.465 0 0.06 0.465 0 0.08 0.465 0 0.1 0.465 0 0 0.47 0 0.02 0.47 0 0.04 0.47 0 0.06 0.47 0 0.08 0.47 0 0.1 0.47 0 0 0.475 0 0.02 0.475 0 0.04 0.475 0 0.06 0.475 0 0.08 0.475 0 0.1 0.475 0 0 0.48 0 0.02 0.48 0 0.04 0.48 0 0.06 0.48 0 0.08 0.48 0 0.1 0.48 0 0 0.485 0 0.02 0.485 0 0.04 0.485 0 0.06 0.485 0 0.08 0.485 0 0.1 0.485 0 0 0.49 0 0.02 0.49 0 0.04 0.49 0 0.06 0.49 0 0.08 0.49 0 0.1 0.49 0 0 0.495 0 0.02 0.495 0 0.04 0.495 0 0.06 0.495 0 0.08 0.495 0 0.1 0.495 0 0 0.5 0 0.02 0.5 0 0.04 0.5 0 0.06 0.5 0 0.08 0.5 0 0.1 0.5 0 0 0.505 0 0.02 0.505 0 0.04 0.505 0 0.06 0.505 0 0.08 0.505 0 0.1 0.505 0 0 0.51 0 0.02 0.51 0 0.04 0.51 0 0.06 0.51 0 0.08 0.51 0 0.1 0.51 0 0 0.515 0 0.02 0.515 0 0.04 0.515 0 0.06 0.515 0 0.08 0.515 0 0.1 0.515 0 0 0.52 0 0.02 0.52 0 0.04 0.52 0 0.06 0.52 0 0.08 0.52 0 0.1 0.52 0 0 0.525 0 0.02 0.525 0 0.04 0.525 0 0.06 0.525 0 0.08 0.525 0 0.1 0.525 0 0 0.53 0 0.02 0.53 0 0.04 0.53 0 0.06 0.53 0 0.08 0.53 0 0.1 0.53 0 0 0.535 0 0.02 0.535 0 0.04 0.535 0 0.06 0.535 0 0.08 0.535 0 0.1 0.535 0 0 0.54 0 0.02 0.54 0 0.04 0.54 0 0.06 0.54 0 0.08 0.54 0 0.1 0.54 0 0 0.545 0 0.02 0.545 0 0.04 0.545 0 0.06 0.545 0 0.08 0.545 0 0.1 0.545 0 0 0.55 0 0.02 0.55 0 0.04 0.55 0 0.06 0.55 0 0.08 0.55 0 0.1 0.55 0 0 0.555 0 0.02 0.555 0 0.04 0.555 0 0.06 0.555 0 0.08 0.555 0 0.1 0.555 0 0 0.56 0 0.02 0.56 0 0.04 0.56 0 0.06 0.56 0 0.08 0.56 0 0.1 0.56 0 0 0.565 0 0.02 0.565 0 0.04 0.565 0 0.06 0.565 0 0.08 0.565 0 0.1 0.565 0 0 0.57 0 0.02 0.57 0 0.04 0.57 0 0.06 0.57 0 0.08 0.57 0 0.1 0.57 0 0 0.575 0 0.02 0.575 0 0.04 0.575 0 0.06 0.575 0 0.08 0.575 0 0.1 0.575 0 0 0.58 0 0.02 0.58 0 0.04 0.58 0 0.06 0.58 0 0.08 0.58 0 0.1 0.58 0 0 0.585 0 0.02 0.585 0 0.04 0.585 0 0.06 0.585 0 0.08 0.585 0 0.1 0.585 0 0 0.59 0 0.02 0.59 0 0.04 0.59 0 0.06 0.59 0 0.08 0.59 0 0.1 0.59 0 0 0.595 0 0.02 0.595 0 0.04 0.595 0 0.06 0.595 0 0.08 0.595 0 0.1 0.595 0 0 0.6 0 0.02 0.6 0 0.04 0.6 0 0.06 0.6 0 0.08 0.6 0 0.1 0.6 0 0 0.605 0 0.02 0.605 0 0.04 0.605 0 0.06 0.605 0 0.08 0.605 0 0.1 0.605 0 0 0.61 0 0.02 0.61 0 0.04 0.61 0 0.06 0.61 0 0.08 0.61 0 0.1 0.61 0 0 0.615 0 0.02 0.615 0 0.04 0.615 0 0.06 0.615 0 0.08 0.615 0 0.1 0.615 0 0 0.62 0 0.02 0.62 0 0.04 0.62 0 0.06 0.62 0 0.08 0.62 0 0.1 0.62 0 0 0.625 0 0.02 0.625 0 0.04 0.625 0 0.06 0.625 0 0.08 0.625 0 0.1 0.625 0 0 0.63 0 0.02 0.63 0 0.04 0.63 0 0.06 0.63 0 0.08 0.63 0 0.1 0.63 0 0 0.635 0 0.02 0.635 0 0.04 0.635 0 0.06 0.635 0 0.08 0.635 0 0.1 0.635 0 0 0.64 0 0.02 0.64 0 0.04 0.64 0 0.06 0.64 0 0.08 0.64 0 0.1 0.64 0 0 0.645 0 0.02 0.645 0 0.04 0.645 0 0.06 0.645 0 0.08 0.645 0 0.1 0.645 0 0 0.65 0 0.02 0.65 0 0.04 0.65 0 0.06 0.65 0 0.08 0.65 0 0.1 0.65 0 0 0.655 0 0.02 0.655 0 0.04 0.655 0 0.06 0.655 0 0.08 0.655 0 0.1 0.655 0 0 0.66 0 0.02 0.66 0 0.04 0.66 0 0.06 0.66 0 0.08 0.66 0 0.1 0.66 0 0 0.665 0 0.02 0.665 0 0.04 0.665 0 0.06 0.665 0 0.08 0.665 0 0.1 0.665 0 0 0.67 0 0.02 0.67 0 0.04 0.67 0 0.06 0.67 0 0.08 0.67 0 0.1 0.67 0 0 0.675 0 0.02 0.675 0 0.04 0.675 0 0.06 0.675 0 0.08 0.675 0 0.1 0.675 0 0 0.68 0 0.02 0.68 0 0.04 0.68 0 0.06 0.68 0 0.08 0.68 0 0.1 0.68 0 0 0.685 0 0.02 0.685 0 0.04 0.685 0 0.06 0.685 0 0.08 0.685 0 0.1 0.685 0 0 0.69 0 0.02 0.69 0 0.04 0.69 0 0.06 0.69 0 0.08 0.69 0 0.1 
[...]
			<PointData Scalars="VitesseX">
				<DataArray Name="VitesseX" type="Float32" format="ascii">
 0 -1.45364e-15 6.01978e-14 4.70039e-14 2.14225e-15 0 0 1.13852e-14 4.72282e-14 4.77994e-14 4.66456e-15 0 0 2.15203e-14 4.3961e-14 2.78835e-14 2.1119e-14 0 0 3.77002e-14 1.86357e-14 3.59363e-14 1.8209e-14 0 0 4.05943e-14 -1.92563e-16 4.46471e-14 1.10044e-14 0 0 1.33644e-14 2.86682e-14 1.19941e-14 2.61891e-14 0 0 -5.31306e-15 4.81687e-14 -9.46638e-15 4.07958e-14 0 0 -5.88615e-15 4.10148e-14 3.89054e-15 3.36484e-14 0 0 5.59902e-15 2.50156e-14 2.32831e-14 2.20754e-14 0 0 1.50948e-14 2.07515e-14 2.25216e-14 2.36443e-14 0 0 1.53474e-14 1.45354e-14 3.9467e-14 9.10414e-15 0 0 -6.6149e-15 3.24319e-14 3.61909e-14 6.06316e-15 0 0 1.05278e-14 -5.89238e-15 7.61363e-14 -1.83283e-14 0 0 1.17185e-15 1.09774e-14 5.67439e-14 -8.04055e-15 0 0 -1.27359e-14 4.64929e-14 4.83336e-15 3.7578e-14 0 0 2.3041e-14 4.28322e-16 3.52244e-14 4.88099e-14 0 0 4.23521e-14 -1.3668e-14 4.56924e-14 6.95892e-14 0 0 6.15737e-14 -2.92998e-14 6.22112e-14 8.22102e-14 0 0 1.81568e-14 5.64356e-14 -7.85559e-15 1.28238e-13 0 0 1.11441e-14 8.92362e-14 -2.42839e-14 1.25353e-13 0 0 4.81831e-14 5.47062e-14 8.1619e-15 1.11789e-13 0 0 1.9867e-14 1.04776e-13 -1.61054e-14 9.78019e-14 0 0 3.15411e-14 6.92368e-14 5.53411e-14 1.28091e-14 0 0 6.75675e-14 -3.41753e-15 1.27728e-13 -2.07197e-14 0 0 2.66987e-14 4.69965e-14 7.99384e-14 1.85189e-14 0 0 -1.82203e-14 1.21315e-13 1.2711e-14 5.50329e-14 0 0 9.64957e-15 9.12232e-14 4.83584e-14 1.44013e-14 0 0 6.19514e-14 5.13141e-16 1.67852e-13 -9.61547e-14 0 0 4.83937e-14 1.15062e-14 1.79865e-13 -1.30953e-13 0 0 -2.65756e-15 1.08068e-13 3.10007e-14 -2.02793e-14 0 0 -1.10522e-15 1.15807e-13 -3.71811e-14 3.72456e-14 0 0 3.20777e-14 6.77039e-14 2.27628e-15 -1.30404e-14 0 0 4.87135e-14 2.49973e-14 7.9975e-14 -6.87471e-14 0 0 2.57102e-14 3.30265e-14 1.01058e-13 -4.4405e-14 0 0 -3.00914e-14 1.34565e-13 -6.31084e-15 6.35548e-14 0 0 -2.87992e-14 1.62566e-13 -4.04242e-14 1.33173e-13 0 0 4.8651e-14 4.39041e-14 1.01842e-13 6.40782e-14 0 0 8.76311e-14 -5.31675e-16 1.1845e-13 9.50616e-14 0 0 9.06761e-14 1.65264e-14 8.28607e-14 1.3726e-13 0 0 2.10655e-14 1.10013e-13 3.92845e-14 1.07824e-13 0 0 -3.06148e-14 1.67299e-13 -1.11595e-14 1.08975e-13 0 0 7.23285e-15 8.28459e-14 7.8425e-14 3.25644e-14 0 0 -2.80322e-14 7.37188e-14 1.38823e-13 -2.37052e-14 0 0 -8.04266e-14 1.28201e-13 7.50256e-14 1.87635e-14 0 0 -8.63042e-14 1.41992e-13 1.97735e-14 7.93795e-14 0 0 -3.69086e-14 1.5949e-14 2.04064e-13 -2.16903e-14 0 0 4.81375e-14 -1.22211e-13 3.69951e-13 -1.08015e-13 0 0 6.61937e-15 -2.98487e-14 2.79458e-13 -2.46542e-14 0 0 -1.05912e-13 1.52157e-13 1.11445e-13 7.16728e-14 0 0 -2.23689e-13 3.48958e-13 -9.24722e-14 1.69265e-13 0 0 -2.43002e-13 3.63314e-13 -8.96851e-14 1.56624e-13 0 0 -1.40101e-13 2.13838e-13 8.34997e-14 4.41843e-14 0 0 -1.31171e-13 2.70202e-13 2.59704e-14 8.17047e-14 0 0 -5.46433e-14 1.2132e-13 1.81108e-13 2.51039e-14 0 0 -1.36583e-13 1.26803e-13 2.65991e-13 -1.4793e-14 0 0 -2.71985e-13 3.91872e-13 -1.45194e-14 1.44931e-13 0 0 -8.77784e-14 1.47541e-13 2.39037e-13 -1.30937e-14 0 0 -9.27336e-14 1.32312e-13 3.37738e-13 -9.58327e-14 0 0 -1.45728e-13 2.69449e-13 1.69174e-13 -2.68992e-14 0 0 -1.28734e-13 2.53807e-13 1.62905e-13 -2.0602e-14 0 0 -9.31158e-14 2.15902e-13 1.91434e-13 -2.86482e-14 0 0 1.82715e-14 9.25503e-14 2.60705e-13 -5.28292e-14 0 0 -7.07984e-14 2.78327e-13 2.67303e-14 1.1274e-13 0 0 -7.36544e-14 2.93057e-13 -4.81489e-14 2.32091e-13 0 0 8.6319e-14 9.03366e-14 6.42474e-14 2.43232e-13 0 0 6.71023e-14 9.56747e-14 1.55469e-13 1.1988e-13 0 0 6.50421e-14 2.79168e-14 3.52762e-13 -4.82285e-14 0 0 -2.21099e-14 1.98156e-13 1.79444e-13 1.10535e-13 0 0 -1.09928e-13 3.5824e-13 1.63234e-14 2.60055e-13 0 0 -4.10148e-14 1.78792e-13 2.74275e-13 7.81763e-14 0 0 -1.03864e-13 1.54016e-13 3.88312e-13 -2.85222e-14 0 0 -1.38284e-13 1.46595e-13 4.49052e-13 -5.45787e-14 0 0 -4.24242e-13 5.10346e-13 1.76567e-13 1.66951e-13 0 0 -4.21286e-13 3.9696e-13 3.03835e-13 2.06e-13 0 0 -2.13626e-13 1.83688e-13 3.80381e-13 2.67022e-13 0 0 -1.55554e-13 1.75899e-13 3.61715e-13 1.77048e-13 0 0 -1.60127e-13 1.22107e-13 5.66119e-13 -1.74864e-13 0 0 -4.78358e-13 7.31999e-13 -4.56834e-15 1.65193e-13 0 0 -2.20083e-13 4.01313e-13 1.55025e-13 3.02261e-13 0 0 -3.52075e-13 4.53901e-13 2.23602e-13 3.37763e-13 0 0 -4.83193e-13 6.37428e-13 3.44819e-13 1.35316e-13 0 0 1.44067e-13 1.90652e-14 9.07237e-13 -2.96784e-13 0 0 2.57117e-13 2.57779e-13 4.45165e-13 -3.80702e-14 0 0 2.44861e-13 4.65674e-13 6.33718e-14 2.49174e-13 0 0 3.57585e-13 3.60717e-13 1.80801e-13 1.3019e-13 0 0 2.70073e-13 4.94713e-13 2.00008e-13 -6.02465e-14 0 0 2.28511e-13 5.98541e-13 1.65985e-13 -1.67095e-13 0 0 3.68613e-13 4.8929e-13 2.41731e-13 -2.31829e-13 0 0 4.45952e-13 4.5719e-13 2.49976e-13 -1.89317e-13 0 0 4.00404e-13 5.78895e-13 1.18786e-13 -2.2479e-14 0 0 3.56095e-13 7.01333e-13 -3.79295e-14 1.75875e-13 0 0 3.67897e-13 7.31457e-13 -1.03668e-13 2.94508e-13 0 0 4.18021e-13 6.60995e-13 -3.355e-14 2.91083e-13 0 0 4.79689e-13 5.29546e-13 1.17597e-13 2.12743e-13 0 0 5.25151e-13 4.06716e-13 2.52044e-13 1.44479e-13 0 0 5.43904e-13 3.24521e-13 3.31517e-13 1.21299e-13 0 0 5.25424e-13 3.02467e-13 3.56348e-13 1.24174e-13 0 0 4.61128e-13 3.56817e-13 3.21218e-13 1.39923e-13 0 0 3.70065e-13 4.56006e-13 2.56181e-13 1.50226e-13 0 0 2.82523e-13 5.4535e-13 2.1714e-13 1.15381e-13 0 0 2.22659e-13 5.87042e-13 2.19932e-13 4.39285e-14 0 0 1.99353e-13 5.74861e-13 2.55461e-13 -3.23091e-14 0 0 2.06995e-13 5.18491e-13 3.16581e-13 -9.37842e-14 0 0 2.26503e-13 4.38405e-13 3.92916e-13 -1.38687e-13 0 0 2.30853e-13 3.58583e-13 4.75541e-13 -1.6935e-13 0 0 2.03333e-13 2.97475e-13 5.47721e-13 -1.79475e-13 0 0 1.46195e-13 2.68034e-13 5.93177e-13 -1.77218e-13 0 0 7.50261e-14 2.67537e-13 6.0183e-13 -1.5882e-13 0 0 4.16989e-15 2.89555e-13 5.77449e-13 -1.29028e-13 0 0 -4.88282e-14 3.20099e-13 5.27159e-13 -8.22756e-14 0 0 -7.18212e-14 3.47711e-13 4.49953e-13 -6.31427e-15 0 0 -7.18319e-14 3.7075e-13 3.65773e-13 7.26639e-14 0 0 -5.39261e-14 3.7991e-13 2.87082e-13 1.43615e-13 0 0 -2.21163e-14 3.68105e-13 2.48409e-13 2.02678e-13 0 0 1.58793e-14 3.32854e-13 2.56082e-13 2.08608e-13 0 0 5.10954e-14 3.03384e-13 2.33117e-13 2.27321e-13 0 0 6.62058e-14 2.99186e-13 1.89973e-13 2.99399e-13 0 0 7.06561e-14 2.8299e-13 1.72964e-13 3.48905e-13 0 0 7.4251e-14 2.52333e-13 2.0356e-13 3.468e-13 0 0 8.21222e-14 2.02143e-13 2.88394e-13 2.80608e-13 0 0 7.48889e-14 1.9813e-13 3.07754e-13 2.45789e-13 0 0 7.02022e-14 2.14428e-13 2.9417e-13 2.25227e-13 0 0 9.35905e-14 1.64628e-13 3.56017e-13 1.47568e-13 0 0 1.0168e-13 1.46665e-13 3.66723e-13 1.07e-13 0 0 9.03051e-14 1.87883e-13 2.77724e-13 1.20035e-13 0 0 8.6194e-14 1.97384e-13 2.51241e-13 1.20579e-13 0 0 9.72721e-14 1.65324e-13 2.77176e-13 1.21288e-13 0 0 1.02181e-13 1.58557e-13 2.85831e-13 5.42462e-14 0 0 1.35736e-13 1.20872e-13 2.97153e-13 3.96281e-15 0 0 1.47694e-13 1.0142e-13 2.98864e-13 3.29934e-14 0 0 1.02038e-13 1.65348e-13 2.54267e-13 7.81601e-14 0 0 9.88163e-14 2.22552e-13 2.26379e-13 3.97322e-14 0 0 6.30857e-14 3.41836e-13 1.93334e-13 4.37416e-14 0 0 7.1358e-14 3.30221e-13 3.10465e-13 7.54152e-14 0 0 1.53468e-13 2.43984e-13 4.44526e-13 7.78371e-14 0 0 2.19656e-13 2.8129e-13 4.18411e-13 1.54516e-13 0 0 2.52689e-13 3.7236e-13 4.01105e-13 1.6651e-13 0 0 2.25234e-13 5.10813e-13 3.15956e-13 2.13496e-13 0 0 3.26509e-13 4.19781e-13 3.64727e-13 2.23675e-13 0 0 3.3137e-13 4.57617e-13 3.27763e-13 2.16551e-13 0 0 3.57648e-13 4.35853e-13 3.96827e-13 1.39045e-13 0 0 3.98787e-13 3.68027e-13 4.56628e-13 1.17008e-13 0 0 2.6022e-13 5.8836e-13 2.6581e-13 1.51395e-13 0 0 2.19772e-13 6.76635e-13 1.14694e-13 2.79515e-13 0 0 3.46092e-13 4.45869e-13 3.01093e-13 2.46796e-13 0 0 4.02601e-13 3.2519e-13 4.13902e-13 1.59137e-13 0 0 3.31629e-13 4.28141e-13 2.9733e-13 2.13148e-13 0 0 2.27244e-13 5.95955e-13 9.85768e-14 4.01481e-13 0 0 2.23858e-13 5.95356e-13 7.39261e-14 4.51897e-13 0 0 3.38724e-13 3.30566e-13 4.61485e-13 1.3033e-13 0 0 2.98468e-13 3.29052e-13 5.66564e-13 3.30591e-14 0 0 1.42606e-13 5.75495e-13 3.13878e-13 2.4497e-13 0 0 1.4593e-13 6.00189e-13 3.0588e-13 2.72502e-13 0 0 2.54615e-13 5.26223e-13 3.80845e-13 2.99433e-13 0 0 3.69674e-13 4.26396e-13 4.98232e-13 3.26419e-13 0 0 3.97363e-13 3.46256e-13 7.16032e-13 1.82924e-13 0 0 2.44485e-13 5.73904e-13 6.38368e-13 1.41458e-13 0 0 1.2523e-13 9.07047e-13 2.97448e-13 3.0467e-13 0 0 3.40091e-13 7.37819e-13 3.34648e-13 3.76537e-13 0 0 6.19132e-13 4.7829e-13 5.14564e-13 4.09438e-13 0 0 6.85452e-13 4.04305e-13 5.91744e-13 3.49151e-13 0 0 2.66474e-13 9.7373e-13 1.59784e-13 5.45e-13 0 0 -7.92521e-14 1.47231e-12 -1.00797e-13 5.53066e-13 0 0 2.87636e-13 8.47614e-13 6.37247e-13 -7.93915e-14 0 0 6.13908e-13 4.44236e-13 9.33267e-13 -1.93142e-13 0 0 5.82193e-13 5.84306e-13 7.60647e-13 -7.09506e-15 0 0 3.37063e-13 8.6886e-13 6.01934e-13 4.74084e-14 0 0 2.1072e-13 1.01884e-12 3.7774e-13 2.07073e-13 0 0 3.3505e-13 8.66492e-13 4.69018e-13 5.46066e-14 0 0 3.8543e-13 8.04118e-13 4.5777e-13 6.97881e-14 0 0 5.48814e-13 5.03676e-13 6.68518e-13 1.0399e-13 0 0 5.25835e-13 4.63068e-13 7.59804e-13 1.16953e-13 0 0 3.72302e-13 6.15227e-13 7.04144e-13 2.31162e-13 0 0 3.09973e-13 6.73596e-13 7.51756e-13 2.24553e-13 0 0 3.87755e-14 1.09525e-12 4.0039e-13 4.28404e-13 0 0 2.84976e-13 8.22703e-13 4.82102e-13 4.59053e-13 0 0 6.99279e-13 3.2625e-13 7.65036e-13 3.08838e-13 0 0 6.40859e-13 4.09612e-13 6.24344e-13 3.53409e-13 0 0 5.286e-13 4.28709e-13 6.89215e-13 2.55824e-13 0 0 3.03239e-13 6.62315e-13 5.06876e-13 4.06777e-13 0 0 2.81002e-13 8.27776e-13 2.11116e-13 6.90541e-13 0 0 5.57753e-13 5.03535e-13 5.59347e-13 4.18233e-13 0 0 5.98981e-13 5.41329e-13 5.02653e-13 3.80861e-13 0 0 3.19191e-13 8.15992e-13 3.51059e-13 3.94743e-13 0 0 1.86568e-13 8.35981e-13 3.40108e-13 4.56268e-13 0 0 1.96239e-13 8.40755e-13 2.59598e-13 6.0284e-13 0 0 3.46875e-13 5.5913e-13 6.43653e-13 3.26046e-13 0 0 5.44688e-13 3.26779e-13 7.67391e-13 1.80016e-13 0 0 6.90102e-13 1.64584e-13 7.83653e-13 1.19063e-13 0 0 3.53732e-13 6.73218e-13 2.92772e-13 3.58164e-13 0 0 2.33491e-13 6.98291e-13 3.18709e-13 3.67473e-13 0 0 6.6534e-13 8.15873e-14 7.74501e-13 2.42042e-13 0 0 3.90739e-13 6.61487e-13 1.93486e-13 6.13964e-13 0 0 1.38845e-13 1.07104e-12 -8.46941e-14 7.36539e-13 0 0 4.1936e-13 5.30743e-13 4.28786e-13 5.16062e-13 0 0 7.03602e-13 -1.34672e-13 1.07405e-12 2.85933e-13 0 0 6.86002e-13 -1.09379e-13 1.16134e-12 1.53181e-13 0 0 4.84674e-14 8.8477e-13 3.31179e-13 5.85052e-13 0 0 -9.91672e-14 1.03751e-12 5.3171e-14 9.73245e-13 0 0 7.88871e-13 -3.41495e-13 1.09965e-12 6.08834e-13 0 0 1.31365e-12 -1.12939e-12 1.69927e-12 3.96477e-13 0
				</DataArray>
				<DataArray Name="VitesseY" type="Float32" format="ascii">