<?xml version="1.0"?>
<VTKFile type="PolyData">
	<PolyData>
		<Piece NumberOfPoints="1206" NumberOfPolys="1000">
			<Points>
				<DataArray type="Float32" NumberOfComponents="3" format="ascii">
 0 0 0 0.02 0 0 0.04 0 0 0.06 0 0 0.08 0 0 0.1 0 0 0 0.005 0 0.02 0.005 0 0.04 0.005 0 0.06 0.005 0 0.08 0.005 0 0.1 0.005 0 0 0.01 0 0.02 0.01 0 0.04 0.01 0 0.06 0.01 0 0.08 0.01 0 0.1 0.01 0 0 0.015 0 0.02 0.015 0 0.04 0.015 0 0.06 0.015 0 0.08 0.015 0 0.1 0.015 0 0 0.02 0 0.02 0.02 0 0.04 0.02 0 0.06 0.02 0 0.08 0.02 0 0.1 0.02 0 0 0.025 0 0.02 0.025 0 0.04 0.025 0 0.06 0.025 0 0.08 0.025 0 0.1 0.025 0 0 0.03 0 0.02 0.03 0 0.04 0.03 0 0.06 0.03 0 0.08 0.03 0 0.1 0.03 0 0 0.035 0 0.02 0.035 0 0.04 0.035 0 0.06 0.035 0 0.08 0.035 0 0.1 0.035 0 0 0.04 0 0.02 0.04 0 0.04 0.04 0 0.06 0.04 0 0.08 0.04 0 0.1 0.04 0 0 0.045 0 0.02 0.045 0 0.04 0.045 0 0.06 0.045 0 0.08 0.045 0 0.1 0.045 0 0 0.05 0 0.02 0.05 0 0.04 0.05 0 0.06 0.05 0 0.08 0.05 0 0.1 0.05 0 0 0.055 0 0.02 0.055 0 0.04 0.055 0 0.06 0.055 0 0.08 0.055 0 0.1 0.055 0 0 0.06 0 0.02 0.06 0 0.04 0.06 0 0.06 0.06 0 0.08 0.06 0 0.1 0.06 0 0 0.065 0 0.02 0.065 0 0.04 0.065 0 0.06 0.065 0 0.08 0.065 0 0.1 0.065 0 0 0.07 0 0.02 0.07 0 0.04 0.07 0 0.06 0.07 0 0.08 0.07 0 0.1 0.07 0 0 0.075 0 0.02 0.075 0 0.04 0.075 0 0.06 0.075 0 0.08 0.075 0 0.1 0.075 0 0 0.08 0 0.02 0.08 0 0.04 0.08 0 0.06 0.08 0 0.08 0.08 0 0.1 0.08 0 0 0.085 0 0.02 0.085 0 0.04 0.085 0 0.06 0.085 0 0.08 0.085 0 0.1 0.085 0 0 0.09 0 0.02 0.09 0 0.04 0.09 0 0.06 0.09 0 0.08 0.09 0 0.1 0.09 0 0 0.095 0 0.02 0.095 0 0.04 0.095 0 0.06 0.095 0 0.08 0.095 0 0.1 0.095 0 0 0.1 0 0.02 0.1 0 0.04 0.1 0 0.06 0.1 0 0.08 0.1 0 0.1 0.1 0 0 0.105 0 0.02 0.105 0 0.04 0.105 0 0.06 0.105 0 0.08 0.105 0 0.1 0.105 0 0 0.11 0 0.02 0.11 0 0.04 0.11 0 0.06 0.11 0 0.08 0.11 0 0.1 0.11 0 0 0.115 0 0.02 0.115 0 0.04 0.115 0 0.06 0.115 0 0.08 0.115 0 0.1 0.115 0 0 0.12 0 0.02 0.12 0 0.04 0.12 0 0.06 0.12 0 0.08 0.12 0 0.1 0.12 0 0 0.125 0 0.02 0.125 0 0.04 0.125 0 0.06 0.125 0 0.08 0.125 0 0.1 0.125 0 0 0.13 0 0.02 0.13 0 0.04 0.13 0 0.06 0.13 0 0.08 0.13 0 0.1 0.13 0 0 0.135 0 0.02 0.135 0 0.04 0.135 0 0.06 0.135 0 0.08 0.135 0 0.1 0.135 0 0 0.14 0 0.02 0.14 0 0.04 0.14 0 0.06 0.14 0 0.08 0.14 0 0.1 0.14 0 0 0.145 0 0.02 0.145 0 0.04 0.145 0 0.06 0.145 0 0.08 0.145 0 0.1 0.145 0 0 0.15 0 0.02 0.15 0 0.04 0.15 0 0.06 0.15 0 0.08 0.15 0 0.1 0.15 0 0 0.155 0 0.02 0.155 0 0.04 0.155 0 0.06 0.155 0 0.08 0.155 0 0.1 0.155 0 0 0.16 0 0.02 0.16 0 0.04 0.16 0 0.06 0.16 0 0.08 0.16 0 0.1 0.16 0 0 0.165 0 0.02 0.165 0 0.04 0.165 0 0.06 0.165 0 0.08 0.165 0 0.1 0.165 0 0 0.17 0 0.02 0.17 0 0.04 0.17 0 0.06 0.17 0 0.08 0.17 0 0.1 0.17 0 0 0.175 0 0.02 0.175 0 0.04 0.175 0 0.06 0.175 0 0.08 0.175 0 0.1 0.175 0 0 0.18 0 0.02 0.18 0 0.04 0.18 0 0.06 0.18 0 0.08 0.18 0 0.1 0.18 0 0 0.185 0 0.02 0.185 0 0.04 0.185 0 0.06 0.185 0 0.08 0.185 0 0.1 0.185 0 0 0.19 0 0.02 0.19 0 0.04 0.19 0 0.06 0.19 0 0.08 0.19 0 0.1 0.19 0 0 0.195 0 0.02 0.195 0 0.04 0.195 0 0.06 0.195 0 0.08 0.195 0 0.1 0.195 0 0 0.2 0 0.02 0.2 0 0.04 0.2 0 0.06 0.2 0 0.08 0.2 0 0.1 0.2 0 0 0.205 0 0.02 0.205 0 0.04 0.205 0 0.06 0.205 0 0.08 0.205 0 0.1 0.205 0 0 0.21 0 0.02 0.21 0 0.04 0.21 0 0.06 0.21 0 0.08 0.21 0 0.1 0.21 0 0 0.215 0 0.02 0.215 0 0.04 0.215 0 0.06 0.215 0 0.08 0.215 0 0.1 0.215 0 0 0.22 0 0.02 0.22 0 0.04 0.22 0 0.06 0.22 0 0.08 0.22 0 0.1 0.22 0 0 0.225 0 0.02 0.225 0 0.04 0.225 0 0.06 0.225 0 0.08 0.225 0 0.1 0.225 0 0 0.23 0 0.02 0.23 0 0.04 0.23 0 0.06 0.23 0 0.08 0.23 0 0.1 0.23 0 0 0.235 0 0.02 0.235 0 0.04 0.235 0 0.06 0.235 0 0.08 0.235 0 0.1 0.235 0 0 0.24 0 0.02 0.24 0 0.04 0.24 0 0.06 0.24 0 0.08 0.24 0 0.1 0.24 0 0 0.245 0 0.02 0.245 0 0.04 0.245 0 0.06 0.245 0 0.08 0.245 0 0.1 0.245 0 0 0.25 0 0.02 0.25 0 0.04 0.25 0 0.06 0.25 0 0.08 0.25 0 0.1 0.25 0 0 0.255 0 0.02 0.255 0 0.04 0.255 0 0.06 0.255 0 0.08 0.255 0 0.1 0.255 0 0 0.26 0 0.02 0.26 0 0.04 0.26 0 0.06 0.26 0 0.08 0.26 0 0.1 0.26 0 0 0.265 0 0.02 0.265 0 0.04 0.265 0 0.06 0.265 0 0.08 0.265 0 0.1 0.265 0 0 0.27 0 0.02 0.27 0 0.04 0.27 0 0.06 0.27 0 0.08 0.27 0 0.1 0.27 0 0 0.275 0 0.02 0.275 0 0.04 0.275 0 0.06 0.275 0 0.08 0.275 0 0.1 0.275 0 0 0.28 0 0.02 0.28 0 0.04 0.28 0 0.06 0.28 0 0.08 0.28 0 0.1 0.28 0 0 0.285 0 0.02 0.285 0 0.04 0.285 0 0.06 0.285 0 0.08 0.285 0 0.1 0.285 0 0 0.29 0 0.02 0.29 0 0.04 0.29 0 0.06 0.29 0 0.08 0.29 0 0.1 0.29 0 0 0.295 0 0.02 0.295 0 0.04 0.295 0 0.06 0.295 0 0.08 0.295 0 0.1 0.295 0 0 0.3 0 0.02 0.3 0 0.04 0.3 0 0.06 0.3 0 0.08 0.3 0 0.1 0.3 0 0 0.305 0 0.02 0.305 0 0.04 0.305 0 0.06 0.305 0 0.08 0.305 0 0.1 0.305 0 0 0.31 0 0.02 0.31 0 0.04 0.31 0 0.06 0.31 0 0.08 0.31 0 0.1 0.31 0 0 0.315 0 0.02 0.315 0 0.04 0.315 0 0.06 0.315 0 0.08 0.315 0 0.1 0.315 0 0 0.32 0 0.02 0.32 0 0.04 0.32 0 0.06 0.32 0 0.08 0.32 0 0.1 0.32 0 0 0.325 0 0.02 0.325 0 0.04 0.325 0 0.06 0.325 0 0.08 0.325 0 0.1 0.325 0 0 0.33 0 0.02 0.33 0 0.04 0.33 0 0.06 0.33 0 0.08 0.33 0 0.1 0.33 0 0 0.335 0 0.02 0.335 0 0.04 0.335 0 0.06 0.335 0 0.08 0.335 0 0.1 0.335 0 0 0.34 0 0.02 0.34 0 0.04 0.34 0 0.06 0.34 0 0.08 0.34 0 0.1 0.34 0 0 0.345 0 0.02 0.345 0 0.04 0.345 0 0.06 0.345 0 0.08 0.345 0 0.1 0.345 0 0 0.35 0 0.02 0.35 0 0.04 0.35 0 0.06 0.35 0 0.08 0.35 0 0.1 0.35 0 0 0.355 0 0.02 0.355 0 0.04 0.355 0 0.06 0.355 0 0.08 0.355 0 0.1 0.355 0 0 0.36 0 0.02 0.36 0 0.04 0.36 0 0.06 0.36 0 0.08 0.36 0 0.1 0.36 0 0 0.365 0 0.02 0.365 0 0.04 0.365 0 0.06 0.365 0 0.08 0.365 0 0.1 0.365 0 0 0.37 0 0.02 0.37 0 0.04 0.37 0 0.06 0.37 0 0.08 0.37 0 0.1 0.37 0 0 0.375 0 0.02 0.375 0 0.04 0.375 0 0.06 0.375 0 0.08 0.375 0 0.1 0.375 0 0 0.38 0 0.02 0.38 0 0.04 0.38 0 0.06 0.38 0 0.08 0.38 0 0.1 0.38 0 0 0.385 0 0.02 0.385 0 0.04 0.385 0 0.06 0.385 0 0.08 0.385 0 0.1 0.385 0 0 0.39 0 0.02 0.39 0 0.04 0.39 0 0.06 0.39 0 0.08 0.39 0 0.1 0.39 0 0 0.395 0 0.02 0.395 0 0.04 0.395 0 0.06 0.395 0 0.08 0.395 0 0.1 0.395 0 0 0.4 0 0.02 0.4 0 0.04 0.4 0 0.06 0.4 0 0.08 0.4 0 0.1 0.4 0 0 0.405 0 0.02 0.405 0 0.04 0.405 0 0.06 0.405 0 0.08 0.405 0 0.1 0.405 0 0 0.41 0 0.02 0.41 0 0.04 0.41 0 0.06 0.41 0 0.08 0.41 0 0.1 0.41 0 0 0.415 0 0.02 0.415 0 0.04 0.415 0 0.06 0.415 0 0.08 0.415 0 0.1 0.415 0 0 0.42 0 0.02 0.42 0 0.04 0.42 0 0.06 0.42 0 0.08 0.42 0 0.1 0.42 0 0 0.425 0 0.02 0.425 0 0.04 0.425 0 0.06 0.425 0 0.08 0.425 0 0.1 0.425 0 0 0.43 0 0.02 0.43 0 0.04 0.43 0 0.06 0.43 0 0.08 0.43 0 0.1 0.43 0 0 0.435 0 0.02 0.435 0 0.04 0.435 0 0.06 0.435 0 0.08 0.435 0 0.1 0.435 0 0 0.44 0 0.02 0.44 0 0.04 0.44 0 0.06 0.44 0 0.08 0.44 0 0.1 0.44 0 0 0.445 0 0.02 0.445 0 0.04 0.445 0 0.06 0.445 0 0.08 0.445 0 0.1 0.445 0 0 0.45 0 0.02 0.45 0 0.04 0.45 0 0.06 0.45 0 0.08 0.45 0 0.1 0.45 0 0 0.455 0 0.02 0.455 0 0.04 0.455 0 0.06 0.455 0 0.08 0.455 0 0.1 0.455 0 0 0.46 0 0.02 0.46 0 0.04 0.46 0 0.06 0.46 0 0.08 0.46 0 0.1 0.46 0 0 0.465 0 0.02 0.465 0 0.04 0.465 0 0.06 0.465 0 0.08 0.465 0 0.1 0.465 0 0 0.47 0 0.02 0.47 0 0.04 0.47 0 0.06 0.47 0 0.08 0.47 0 0.1 0.47 0 0 0.475 0 0.02 0.475 0 0.04 0.475 0 0.06 0.475 0 0.08 0.475 0 0.1 0.475 0 0 0.48 0 0.02 0.48 0 0.04 0.48 0 0.06 0.48 0 0.08 0.48 0 0.1 0.48 0 0 0.485 0 0.02 0.485 0 0.04 0.485 0 0.06 0.485 0 0.08 0.485 0 0.1 0.485 0 0 0.49 0 0.02 0.49 0 0.04 0.49 0 0.06 0.49 0 0.08 0.49 0 0.1 0.49 0 0 0.495 0 0.02 0.495 0 0.04 0.495 0 0.06 0.495 0 0.08 0.495 0 0.1 0.495 0 0 0.5 0 0.02 0.5 0 0.04 0.5 0 0.06 0.5 0 0.08 0.5 0 0.1 0.5 0 0 0.505 0 0.02 0.505 0 0.04 0.505 0 0.06 0.505 0 0.08 0.505 0 0.1 0.505 0 0 0.51 0 0.02 0.51 0 0.04 0.51 0 0.06 0.51 0 0.08 0.51 0 0.1 0.51 0 0 0.515 0 0.02 0.515 0 0.04 0.515 0 0.06 0.515 0 0.08 0.515 0 0.1 0.515 0 0 0.52 0 0.02 0.52 0 0.04 0.52 0 0.06 0.52 0 0.08 0.52 0 0.1 0.52 0 0 0.525 0 0.02 0.525 0 0.04 0.525 0 0.06 0.525 0 0.08 0.525 0 0.1 0.525 0 0 0.53 0 0.02 0.53 0 0.04 0.53 0 0.06 0.53 0 0.08 0.53 0 0.1 0.53 0 0 0.535 0 0.02 0.535 0 0.04 0.535 0 0.06 0.535 0 0.08 0.535 0 0.1 0.535 0 0 0.54 0 0.02 0.54 0 0.04 0.54 0 0.06 0.54 0 0.08 0.54 0 0.1 0.54 0 0 0.545 0 0.02 0.545 0 0.04 0.545 0 0.06 0.545 0 0.08 0.545 0 0.1 0.545 0 0 0.55 0 0.02 0.55 0 0.04 0.55 0 0.06 0.55 0 0.08 0.55 0 0.1 0.55 0 0 0.555 0 0.02 0.555 0 0.04 0.555 0 0.06 0.555 0 0.08 0.555 0 0.1 0.555 0 0 0.56 0 0.02 0.56 0 0.04 0.56 0 0.06 0.56 0 0.08 0.56 0 0.1 0.56 0 0 0.565 0 0.02 0.565 0 0.04 0.565 0 0.06 0.565 0 0.08 0.565 0 0.1 0.565 0 0 0.57 0 0.02 0.57 0 0.04 0.57 0 0.06 0.57 0 0.08 0.57 0 0.1 0.57 0 0 0.575 0 0.02 0.575 0 0.04 0.575 0 0.06 0.575 0 0.08 0.575 0 0.1 0.575 0 0 0.58 0 0.02 0.58 0 0.04 0.58 0 0.06 0.58 0 0.08 0.58 0 0.1 0.58 0 0 0.585 0 0.02 0.585 0 0.04 0.585 0 0.06 0.585 0 0.08 0.585 0 0.1 0.585 0 0 0.59 0 0.02 0.59 0 0.04 0.59 0 0.06 0.59 0 0.08 0.59 0 0.1 0.59 0 0 0.595 0 0.02 0.595 0 0.04 0.595 0 0.06 0.595 0 0.08 0.595 0 0.1 0.595 0 0 0.6 0 0.02 0.6 0 0.04 0.6 0 0.06 0.6 0 0.08 0.6 0 0.1 0.6 0 0 0.605 0 0.02 0.605 0 0.04 0.605 0 0.06 0.605 0 0.08 0.605 0 0.1 0.605 0 0 0.61 0 0.02 0.61 0 0.04 0.61 0 0.06 0.61 0 0.08 0.61 0 0.1 0.61 0 0 0.615 0 0.02 0.615 0 0.04 0.615 0 0.06 0.615 0 0.08 0.615 0 0.1 0.615 0 0 0.62 0 0.02 0.62 0 0.04 0.62 0 0.06 0.62 0 0.08 0.62 0 0.1 0.62 0 0 0.625 0 0.02 0.625 0 0.04 0.625 0 0.06 0.625 0 0.08 0.625 0 0.1 0.625 0 0 0.63 0 0.02 0.63 0 0.04 0.63 0 0.06 0.63 0 0.08 0.63 0 0.1 0.63 0 0 0.635 0 0.02 0.635 0 0.04 0.635 0 0.06 0.635 0 0.08 0.635 0 0.1 0.635 0 0 0.64 0 0.02 0.64 0 0.04 0.64 0 0.06 0.64 0 0.08 0.64 0 0.1 0.64 0 0 0.645 0 0.02 0.645 0 0.04 0.645 0 0.06 0.645 0 0.08 0.645 0 0.1 0.645 0 0 0.65 0 0.02 0.65 0 0.04 0.65 0 0.06 0.65 0 0.08 0.65 0 0.1 0.65 0 0 0.655 0 0.02 0.655 0 0.04 0.655 0 0.06 0.655 0 0.08 0.655 0 0.1 0.655 0 0 0.66 0 0.02 0.66 0 0.04 0.66 0 0.06 0.66 0 0.08 0.66 0 0.1 0.66 0 0 0.665 0 0.02 0.665 0 0.04 0.665 0 0.06 0.665 0 0.08 0.665 0 0.1 0.665 0 0 0.67 0 0.02 0.67 0 0.04 0.67 0 0.06 0.67 0 0.08 0.67 0 0.1 0.67 0 0 0.675 0 0.02 0.675 0 0.04 0.675 0 0.06 0.675 0 0.08 0.675 0 0.1 0.675 0 0 0.68 0 0.02 0.68 0 0.04 0.68 0 0.06 0.68 0 0.08 0.68 0 0.1 0.68 0 0 0.685 0 0.02 0.685 0 0.04 0.685 0 0.06 0.685 0 0.08 0.685 0 0.1 0.685 0 0 0.69 0 0.02 0.69 0 0.04 0.69 0 0.06 0.69 0 0.08 0.69 0 0.1 
[...]
			<PointData Scalars="VitesseX">
				<DataArray Name="VitesseX" type="Float32" format="ascii">
 0 3.75239e-16 -1.3058e-14 9.53807e-15 -2.70761e-14 0 0 3.70457e-15 -1.53155e-14 9.40742e-15 -2.32763e-14 0 0 7.28746e-16 -5.78819e-16 -1.33693e-14 3.84754e-15 0 0 2.32882e-14 -2.57594e-14 1.02123e-14 4.43891e-15 0 0 2.24611e-14 -1.59118e-14 1.41481e-14 7.97364e-15 0 0 -1.27447e-14 4.11521e-14 -1.72006e-14 2.31748e-14 0 0 -9.12995e-15 2.43194e-14 3.02498e-14 -1.04438e-14 0 0 1.64889e-14 -1.56365e-14 8.15723e-14 -4.03789e-14 0 0 1.18405e-14 4.69195e-15 6.66035e-14 -3.39658e-14 0 0 1.21114e-14 3.1556e-14 3.31302e-14 -9.82903e-15 0 0 5.76171e-14 -9.87284e-15 4.96789e-14 -1.28979e-14 0 0 3.47519e-14 3.5813e-14 -2.12981e-14 3.46126e-14 0 0 7.17201e-14 -3.56248e-14 3.78029e-14 -6.50988e-15 0 0 6.48309e-14 -2.65459e-14 2.94909e-14 -3.04969e-14 0 0 3.71529e-14 7.9203e-15 -8.79563e-15 -7.11412e-15 0 0 9.06972e-14 -1.00112e-13 1.03285e-13 -5.61153e-14 0 0 1.78625e-14 2.55566e-14 -1.76334e-14 2.83466e-14 0 0 2.23436e-14 3.77268e-14 -1.56216e-14 1.72635e-14 0 0 4.54813e-14 -1.24958e-15 4.94231e-14 -3.05148e-14 0 0 2.16019e-14 3.49733e-14 1.52221e-14 -9.76438e-15 0 0 6.59162e-14 -4.49987e-14 8.22222e-14 -6.93891e-14 0 0 6.22087e-14 -6.54802e-14 9.02537e-14 -7.70426e-14 0 0 -6.1102e-15 3.47936e-14 -3.75216e-14 8.47738e-15 0 0 -7.62743e-14 1.24099e-13 -1.31704e-13 7.06454e-14 0 0 2.92859e-14 -4.35607e-14 1.97362e-14 -2.6258e-15 0 0 1.35338e-13 -2.0667e-13 1.72167e-13 -6.78485e-14 0 0 -2.62021e-15 -2.73057e-15 -7.87347e-15 6.77535e-14 0 0 -3.50808e-14 4.5639e-14 -5.95683e-14 1.41909e-13 0 0 5.62985e-15 3.56453e-15 -2.85402e-14 1.43764e-13 0 0 -1.02938e-14 3.9536e-14 -3.32749e-14 1.34397e-13 0 0 -1.9402e-14 7.17585e-14 -2.47495e-14 6.37002e-14 0 0 1.28585e-14 5.48273e-14 4.63168e-15 -5.04607e-14 0 0 4.58758e-14 -1.34257e-14 6.53655e-14 -1.22874e-13 0 0 -2.70351e-14 7.65881e-14 -5.39409e-14 -5.56341e-14 0 0 3.19418e-14 -7.14091e-15 -1.80823e-14 -4.24556e-14 0 0 9.9225e-14 -9.57741e-14 3.85473e-14 6.82636e-15 0 0 6.05371e-14 -3.6897e-14 -5.3155e-15 3.8061e-14 0 0 -2.33464e-14 1.01633e-13 -1.54265e-13 1.07863e-13 0 0 7.57301e-14 -6.13763e-14 -7.79427e-15 2.93503e-14 0 0 1.10006e-13 -1.18032e-13 5.54934e-14 -2.29226e-14 0 0 -4.39288e-15 9.91961e-16 2.52083e-14 -4.11422e-14 0 0 -2.48928e-14 -6.56301e-14 1.94879e-13 -1.80368e-13 0 0 -1.14983e-13 1.00557e-13 8.29539e-15 -7.39562e-14 0 0 -2.74152e-14 3.9577e-14 -3.094e-14 -2.04463e-16 0 0 1.21583e-13 -1.55713e-13 1.3105e-13 -5.90293e-14 0 0 6.47735e-14 2.48927e-14 -9.33766e-14 1.12467e-13 0 0 1.59182e-13 -2.69467e-14 -1.49707e-13 1.89887e-13 0 0 1.1563e-13 2.28255e-14 -1.5165e-13 1.44126e-13 0 0 5.27459e-15 1.58587e-13 -1.89176e-13 8.08742e-14 0 0 1.26035e-13 -3.51356e-15 -2.93686e-14 -6.76852e-14 0 0 2.40071e-13 -1.32741e-13 6.26916e-14 -1.29839e-13 0 0 2.76388e-13 -1.61855e-13 8.23349e-14 -1.40742e-13 0 0 -1.24489e-13 4.50118e-13 -5.51528e-13 2.95903e-13 0 0 4.98157e-15 1.71734e-13 -2.77653e-13 1.68876e-13 0 0 3.34345e-13 -3.3507e-13 2.10539e-13 -1.89565e-13 0 0 1.51169e-13 3.71411e-14 -2.14876e-13 2.21556e-14 0 0 2.35531e-13 -9.45882e-14 -1.04552e-13 -4.66717e-14 0 0 1.20599e-13 9.92819e-14 -3.13522e-13 4.06644e-14 0 0 1.1244e-13 9.85275e-14 -3.27966e-13 2.06375e-14 0 0 3.04811e-13 -2.50972e-13 1.84625e-14 -1.86593e-13 0 0 1.24743e-13 -4.47759e-14 -7.59794e-14 -1.89387e-13 0 0 -6.6575e-15 3.39073e-14 -4.20144e-14 -2.32454e-13 0 0 -3.30592e-14 3.06081e-14 -8.92058e-14 -6.16708e-14 0 0 1.05783e-13 -1.78998e-13 9.36004e-14 -8.96051e-14 0 0 6.87038e-14 -1.18611e-13 1.14302e-13 -1.53164e-13 0 0 -8.0943e-14 1.52189e-13 -1.42498e-13 6.15127e-16 0 0 -1.35127e-14 7.95017e-14 -8.96245e-14 9.82015e-15 0 0 -1.76937e-15 9.59962e-14 -9.83736e-14 3.3833e-14 0 0 2.08965e-13 -1.34327e-13 8.60251e-14 -1.13261e-13 0 0 2.71438e-13 -1.14359e-13 2.47913e-14 -1.34971e-13 0 0 1.34914e-14 3.66866e-13 -4.33532e-13 8.1416e-14 0 0 1.90132e-13 1.06935e-13 -1.79233e-13 -8.83454e-14 0 0 3.27716e-13 -1.20929e-13 1.39941e-14 -1.41186e-13 0 0 4.21987e-13 -3.00052e-13 2.10235e-13 -1.70516e-13 0 0 2.74637e-13 -5.05769e-14 -1.17748e-14 -8.03527e-15 0 0 1.28415e-13 2.97397e-13 -2.9363e-13 6.49586e-14 0 0 6.00338e-13 -2.51044e-13 2.85098e-13 -3.1509e-13 0 0 5.18892e-13 -9.09487e-15 1.27854e-13 -2.3822e-13 0 0 3.80735e-13 4.39577e-14 3.48659e-13 -4.8999e-13 0 0 2.51398e-13 2.39905e-13 1.09422e-13 -2.25111e-13 0 0 4.41108e-13 1.7183e-14 9.77747e-14 1.19837e-13 0 0 6.17592e-13 -4.07019e-13 5.30912e-13 1.61531e-13 0 0 -3.96583e-14 5.89217e-13 -4.70093e-13 8.90095e-13 0 0 2.24868e-13 1.39239e-13 1.95829e-15 5.07168e-13 0 0 8.93606e-13 -9.89699e-13 1.1292e-12 -2.30951e-13 0 0 2.81911e-14 9.45213e-14 1.02689e-13 4.7291e-13 0 0 -8.48429e-13 7.45582e-13 -1.65251e-13 6.33335e-13 0 0 -2.06172e-13 -1.13523e-13 6.24821e-13 2.29499e-13 0 0 4.50913e-13 -3.1005e-13 1.30346e-13 8.0199e-13 0 0 5.19763e-13 -4.72003e-13 4.64729e-13 2.94339e-13 0 0 -1.93214e-14 1.70502e-13 3.74499e-13 -8.96194e-14 0 0 -5.47659e-13 8.61458e-13 -1.96365e-13 2.39506e-13 0 0 -3.98112e-13 5.4099e-13 1.40314e-13 8.46413e-14 0 0 -7.6966e-15 2.75319e-15 3.80414e-13 1.34862e-13 0 0 1.70609e-13 -3.13601e-13 4.48454e-13 1.90811e-13 0 0 7.68045e-14 -3.38441e-13 5.30668e-13 5.61951e-14 0 0 -1.51767e-13 -1.03115e-13 3.54052e-13 5.78337e-14 0 0 -2.59543e-13 1.39904e-13 1.46731e-14 2.19251e-13 0 0 -1.62458e-13 2.03655e-13 -2.50504e-13 3.88295e-13 0 0 3.15198e-14 9.93123e-14 -3.66588e-13 4.95218e-13 0 0 1.74066e-13 -4.76034e-14 -3.73719e-13 5.30883e-13 0 0 1.94625e-13 -1.336e-13 -3.23729e-13 5.02388e-13 0 0 1.17361e-13 -1.26957e-13 -2.60522e-13 4.24694e-13 0 0 1.31025e-14 -6.07511e-14 -2.02468e-13 3.14015e-13 0 0 -6.24703e-14 1.8773e-14 -1.51946e-13 1.7889e-13 0 0 -9.00667e-14 7.92703e-14 -1.034e-13 3.35025e-14 0 0 -7.30273e-14 9.88088e-14 -5.22977e-14 -9.93282e-14 0 0 -3.50263e-14 8.55295e-14 -1.57919e-14 -2.0334e-13 0 0 -2.6096e-15 3.80655e-14 8.09269e-15 -2.43281e-13 0 0 2.08191e-15 8.26139e-16 -1.21626e-14 -2.42571e-13 0 0 2.82674e-15 -3.37944e-14 -4.79575e-14 -2.77603e-13 0 0 -1.66912e-14 -9.2276e-14 -4.92807e-14 -3.00823e-13 0 0 -2.80753e-14 -1.78604e-13 -6.68156e-14 -2.3119e-13 0 0 -3.53402e-14 -2.56661e-13 -7.59498e-14 -1.69491e-13 0 0 -9.00883e-14 -2.21849e-13 -1.05063e-13 -1.52032e-13 0 0 -1.06872e-13 -1.81158e-13 -1.45462e-13 -1.36462e-13 0 0 -7.74717e-14 -2.11615e-13 -8.39209e-14 -1.96416e-13 0 0 -7.26745e-14 -1.35106e-13 -1.57611e-13 -1.93912e-13 0 0 -8.80502e-14 -3.97007e-15 -2.92811e-13 -4.28178e-14 0 0 1.17595e-14 -1.1319e-13 -1.36818e-13 1.76276e-14 0 0 1.52783e-14 -4.50504e-14 -1.18269e-13 1.04449e-14 0 0 7.60186e-15 5.05012e-14 -1.27214e-13 1.82777e-15 0 0 2.15836e-13 -1.91966e-13 7.95515e-14 -1.70823e-14 0 0 1.23407e-13 3.62284e-14 -1.58445e-13 1.8837e-13 0 0 1.09317e-13 1.10925e-13 -1.92757e-13 1.57557e-13 0 0 1.32114e-13 5.10533e-14 -5.41013e-14 5.20537e-14 0 0 1.08487e-13 5.93015e-14 -4.97158e-15 4.66258e-14 0 0 2.74257e-13 -1.7335e-13 2.11221e-13 -1.35427e-13 0 0 1.44066e-13 7.38605e-14 -8.24006e-14 9.50588e-15 0 0 2.08309e-13 3.10763e-15 -1.01782e-13 1.03079e-13 0 0 1.74204e-13 3.38478e-14 -1.73921e-13 1.84227e-13 0 0 7.99422e-14 8.72536e-14 -1.51013e-13 7.91822e-14 0 0 2.93916e-13 -3.30926e-13 2.95033e-13 -3.0717e-13 0 0 1.01973e-13 -1.01921e-14 -1.10069e-13 -7.74051e-14 0 0 1.31929e-13 -9.05011e-14 -1.04717e-13 -5.09439e-15 0 0 6.52722e-14 -8.30607e-14 -1.17424e-13 2.4977e-14 0 0 -7.00892e-14 7.97464e-14 -2.64748e-13 1.37059e-13 0 0 1.73155e-13 -3.64644e-13 2.99959e-13 -2.38187e-13 0 0 -8.472e-14 2.0529e-14 3.36996e-14 -9.64476e-14 0 0 -1.32393e-13 9.94977e-14 1.80259e-14 8.67057e-15 0 0 -4.25344e-14 -4.93533e-14 2.52603e-13 -2.97271e-14 0 0 -2.8902e-13 3.58245e-13 -1.79345e-13 3.26523e-13 0 0 1.79258e-13 -3.29182e-13 4.02292e-13 3.15534e-14 0 0 2.88731e-13 -4.61367e-13 3.96692e-13 1.21105e-13 0 0 -1.65937e-13 2.10957e-13 -2.15833e-13 2.57835e-13 0 0 9.37988e-14 -2.84294e-13 5.05595e-13 -3.94756e-13 0 0 -9.27278e-14 1.40695e-13 1.78477e-13 -1.47359e-13 0 0 -5.30897e-15 2.30676e-13 1.49096e-13 -1.70098e-13 0 0 2.09942e-13 -6.42602e-14 5.95729e-13 -4.41236e-13 0 0 4.7134e-14 2.24922e-13 2.9448e-13 -1.95752e-13 0 0 4.19357e-13 -4.72039e-13 8.36936e-13 -3.99873e-13 0 0 -1.6383e-14 1.08649e-13 1.92472e-13 -5.571e-14 0 0 -6.34303e-14 2.61529e-13 -3.55529e-14 -9.73761e-14 0 0 2.32994e-13 -9.04727e-14 1.19577e-13 -1.27969e-13 0 0 1.76527e-13 -1.20975e-13 -1.02236e-14 1.88079e-13 0 0 -5.34068e-14 -7.27427e-14 -1.45359e-14 2.10331e-13 0 0 -2.44559e-13 1.19162e-13 -6.99787e-14 3.73357e-14 0 0 3.76086e-14 -2.79719e-13 2.52537e-13 -2.82318e-13 0 0 4.8281e-14 -1.76989e-13 -4.98509e-14 -1.5706e-13 0 0 2.04166e-13 -4.34212e-13 2.43303e-13 -4.6538e-13 0 0 -2.66451e-14 -2.67806e-13 1.65844e-13 -3.9093e-13 0 0 -3.60662e-13 8.09597e-15 5.37374e-15 -2.61184e-13 0 0 -2.6876e-13 -2.66257e-13 2.35664e-13 -4.29217e-13 0 0 -2.54779e-13 -2.54294e-13 3.13484e-14 -8.94316e-14 0 0 -5.94092e-15 -5.80568e-13 1.80488e-13 2.71182e-13 0 0 1.88479e-13 -7.92774e-13 1.90049e-13 5.84682e-13 0 0 4.81859e-14 -5.08972e-13 -4.50581e-14 5.9209e-13 0 0 -1.54275e-13 -3.64021e-13 1.98995e-13 9.6163e-14 0 0 -5.68743e-13 1.75392e-13 -2.67231e-13 1.82572e-13 0 0 -3.45816e-13 -8.49948e-14 -3.99186e-13 3.89758e-13 0 0 1.00683e-13 -7.2293e-13 -4.90775e-14 3.05934e-13 0 0 -6.99681e-14 -3.76937e-13 -4.20325e-13 4.30501e-13 0 0 9.50324e-14 -6.95769e-13 5.07371e-14 7.62992e-14 0 0 -2.55574e-13 -3.71472e-13 2.7068e-15 7.9318e-15 0 0 -5.96244e-13 -4.71599e-14 -6.85139e-14 -1.09356e-13 0 0 -3.03927e-13 -3.54199e-13 8.05311e-14 -2.10402e-13 0 0 -1.53133e-13 -3.96109e-13 -8.03979e-14 -5.4567e-14 0 0 -3.25411e-15 -5.76923e-13 6.55552e-14 -2.27583e-13 0 0 -5.35884e-13 2.16995e-13 -4.87816e-13 -8.96345e-14 0 0 -5.42866e-13 1.0108e-13 -1.58715e-13 -3.10251e-13 0 0 -1.09127e-13 -4.96835e-13 2.08748e-13 -4.11783e-13 0 0 -1.87188e-13 -2.24412e-13 -2.24876e-13 -1.20199e-13 0 0 8.9402e-14 -5.57438e-13 2.22024e-13 -5.72009e-13 0 0 -2.19506e-13 -1.07589e-13 -1.3609e-13 -4.1024e-13 0 0 -4.18078e-13 5.14626e-14 -2.42774e-13 -1.74055e-13 0 0 -2.28685e-13 -1.9188e-13 8.16327e-14 -3.54269e-13 0 0 -3.06851e-13 1.14591e-15 -1.36694e-13 -2.2025e-13 0 0 5.63664e-14 -6.13733e-13 3.56543e-13 -4.50485e-13 0 0 -2.40418e-13 -1.15954e-13 -2.82051e-13 5.45931e-14 0 0 -2.1072e-13 -1.21094e-13 -2.95073e-13 1.3844e-13 0 0 1.58149e-13 -6.2115e-13 3.56057e-13 -4.67576e-13 0 0 -5.67393e-13 6.21645e-13 -6.86346e-13 -8.71752e-14 0 0 -1.44242e-13 -3.94339e-14 -6.6468e-14 -4.45571e-13 0 0 2.95375e-13 -7.84798e-13 5.56737e-13 -7.34294e-13 0 0 -1.45171e-13 -1.57562e-13 9.10021e-14 -3.99702e-13 0 0 -1.44093e-15 -5.01992e-13 7.41299e-13 -8.31115e-13 0 0 -3.96805e-13 1.42776e-13 2.32195e-13 -6.60112e-13 0 0 -1.10386e-13 -1.66121e-13 4.22101e-13 -8.61856e-13 0 0 8.52669e-14 -3.65033e-13 5.89271e-13 -1.00471e-12 0 0 -1.84793e-13 2.23797e-13 -4.90473e-14 -6.6519e-13 0 0 1.29127e-13 -1.48588e-13 1.90725e-13 -8.46599e-13 0
				</DataArray>
				<DataArray Name="VitesseY" type="Float32" format="ascii">