<?xml version="1.0"?>
<VTKFile type="PolyData">
	<PolyData>
		<Piece NumberOfPoints="1206" NumberOfPolys="1000">
			<Points>
				<DataArray type="Float32" NumberOfComponents="3" format="ascii">
 0 0 0 0.02 0 0 0.04 0 0 0.06 0 0 0.08 0 0 0.1 0 0 0 0.005 0 0.02 0.005 0 0.04 0.005 0 0.06 0.005 0 0.08 0.005 0 0.1 0.005 0 0 0.01 0 0.02 0.01 0 0.04 0.01 0 0.06 0.01 0 0.08 0.01 0 0.1 0.01 0 0 0.015 0 0.02 0.015 0 0.04 0.015 0 0.06 0.015 0 0.08 0.015 0 0.1 0.015 0 0 0.02 0 0.02 0.02 0 0.04 0.02 0 0.06 0.02 0 0.08 0.02 0 0.1 0.02 0 0 0.025 0 0.02 0.025 0 0.04 0.025 0 0.06 0.025 0 0.08 0.025 0 0.1 0.025 0 0 0.03 0 0.02 0.03 0 0.04 0.03 0 0.06 0.03 0 0.08 0.03 0 0.1 0.03 0 0 0.035 0 0.02 0.035 0 0.04 0.035 0 0.06 0.035 0 0.08 0.035 0 0.1 0.035 0 0 0.04 0 0.02 0.04 0 0.04 0.04 0 0.06 0.04 0 0.08 0.04 0 0.1 0.04 0 0 0.045 0 0.02 0.045 0 0.04 0.045 0 0.06 0.045 0 0.08 0.045 0 0.1 0.045 0 0 0.05 0 0.02 0.05 0 0.04 0.05 0 0.06 0.05 0 0.08 0.05 0 0.1 0.05 0 0 0.055 0 0.02 0.055 0 0.04 0.055 0 0.06 0.055 0 0.08 0.055 0 0.1 0.055 0 0 0.06 0 0.02 0.06 0 0.04 0.06 0 0.06 0.06 0 0.08 0.06 0 0.1 0.06 0 0 0.065 0 0.02 0.065 0 0.04 0.065 0 0.06 0.065 0 0.08 0.065 0 0.1 0.065 0 0 0.07 0 0.02 0.07 0 0.04 0.07 0 0.06 0.07 0 0.08 0.07 0 0.1 0.07 0 0 0.075 0 0.02 0.075 0 0.04 0.075 0 0.06 0.075 0 0.08 0.075 0 0.1 0.075 0 0 0.08 0 0.02 0.08 0 0.04 0.08 0 0.06 0.08 0 0.08 0.08 0 0.1 0.08 0 0 0.085 0 0.02 0.085 0 0.04 0.085 0 0.06 0.085 0 0.08 0.085 0 0.1 0.085 0 0 0.09 0 0.02 0.09 0 0.04 0.09 0 0.06 0.09 0 0.08 0.09 0 0.1 0.09 0 0 0.095 0 0.02 0.095 0 0.04 0.095 0 0.06 0.095 0 0.08 0.095 0 0.1 0.095 0 0 0.1 0 0.02 0.1 0 0.04 0.1 0 0.06 0.1 0 0.08 0.1 0 0.1 0.1 0 0 0.105 0 0.02 0.105 0 0.04 0.105 0 0.06 0.105 0 0.08 0.105 0 0.1 0.105 0 0 0.11 0 0.02 0.11 0 0.04 0.11 0 0.06 0.11 0 0.08 0.11 0 0.1 0.11 0 0 0.115 0 0.02 0.115 0 0.04 0.115 0 0.06 0.115 0 0.08 0.115 0 0.1 0.115 0 0 0.12 0 0.02 0.12 0 0.04 0.12 0 0.06 0.12 0 0.08 0.12 0 0.1 0.12 0 0 0.125 0 0.02 0.125 0 0.04 0.125 0 0.06 0.125 0 0.08 0.125 0 0.1 0.125 0 0 0.13 0 0.02 0.13 0 0.04 0.13 0 0.06 0.13 0 0.08 0.13 0 0.1 0.13 0 0 0.135 0 0.02 0.135 0 0.04 0.135 0 0.06 0.135 0 0.08 0.135 0 0.1 0.135 0 0 0.14 0 0.02 0.14 0 0.04 0.14 0 0.06 0.14 0 0.08 0.14 0 0.1 0.14 0 0 0.145 0 0.02 0.145 0 0.04 0.145 0 0.06 0.145 0 0.08 0.145 0 0.1 0.145 0 0 0.15 0 0.02 0.15 0 0.04 0.15 0 0.06 0.15 0 0.08 0.15 0 0.1 0.15 0 0 0.155 0 0.02 0.155 0 0.04 0.155 0 0.06 0.155 0 0.08 0.155 0 0.1 0.155 0 0 0.16 0 0.02 0.16 0 0.04 0.16 0 0.06 0.16 0 0.08 0.16 0 0.1 0.16 0 0 0.165 0 0.02 0.165 0 0.04 0.165 0 0.06 0.165 0 0.08 0.165 0 0.1 0.165 0 0 0.17 0 0.02 0.17 0 0.04 0.17 0 0.06 0.17 0 0.08 0.17 0 0.1 0.17 0 0 0.175 0 0.02 0.175 0 0.04 0.175 0 0.06 0.175 0 0.08 0.175 0 0.1 0.175 0 0 0.18 0 0.02 0.18 0 0.04 0.18 0 0.06 0.18 0 0.08 0.18 0 0.1 0.18 0 0 0.185 0 0.02 0.185 0 0.04 0.185 0 0.06 0.185 0 0.08 0.185 0 0.1 0.185 0 0 0.19 0 0.02 0.19 0 0.04 0.19 0 0.06 0.19 0 0.08 0.19 0 0.1 0.19 0 0 0.195 0 0.02 0.195 0 0.04 0.195 0 0.06 0.195 0 0.08 0.195 0 0.1 0.195 0 0 0.2 0 0.02 0.2 0 0.04 0.2 0 0.06 0.2 0 0.08 0.2 0 0.1 0.2 0 0 0.205 0 0.02 0.205 0 0.04 0.205 0 0.06 0.205 0 0.08 0.205 0 0.1 0.205 0 0 0.21 0 0.02 0.21 0 0.04 0.21 0 0.06 0.21 0 0.08 0.21 0 0.1 0.21 0 0 0.215 0 0.02 0.215 0 0.04 0.215 0 0.06 0.215 0 0.08 0.215 0 0.1 0.215 0 0 0.22 0 0.02 0.22 0 0.04 0.22 0 0.06 0.22 0 0.08 0.22 0 0.1 0.22 0 0 0.225 0 0.02 0.225 0 0.04 0.225 0 0.06 0.225 0 0.08 0.225 0 0.1 0.225 0 0 0.23 0 0.02 0.23 0 0.04 0.23 0 0.06 0.23 0 0.08 0.23 0 0.1 0.23 0 0 0.235 0 0.02 0.235 0 0.04 0.235 0 0.06 0.235 0 0.08 0.235 0 0.1 0.235 0 0 0.24 0 0.02 0.24 0 0.04 0.24 0 0.06 0.24 0 0.08 0.24 0 0.1 0.24 0 0 0.245 0 0.02 0.245 0 0.04 0.245 0 0.06 0.245 0 0.08 0.245 0 0.1 0.245 0 0 0.25 0 0.02 0.25 0 0.04 0.25 0 0.06 0.25 0 0.08 0.25 0 0.1 0.25 0 0 0.255 0 0.02 0.255 0 0.04 0.255 0 0.06 0.255 0 0.08 0.255 0 0.1 0.255 0 0 0.26 0 0.02 0.26 0 0.04 0.26 0 0.06 0.26 0 0.08 0.26 0 0.1 0.26 0 0 0.265 0 0.02 0.265 0 0.04 0.265 0 0.06 0.265 0 0.08 0.265 0 0.1 0.265 0 0 0.27 0 0.02 0.27 0 0.04 0.27 0 0.06 0.27 0 0.08 0.27 0 0.1 0.27 0 0 0.275 0 0.02 0.275 0 0.04 0.275 0 0.06 0.275 0 0.08 0.275 0 0.1 0.275 0 0 0.28 0 0.02 0.28 0 0.04 0.28 0 0.06 0.28 0 0.08 0.28 0 0.1 0.28 0 0 0.285 0 0.02 0.285 0 0.04 0.285 0 0.06 0.285 0 0.08 0.285 0 0.1 0.285 0 0 0.29 0 0.02 0.29 0 0.04 0.29 0 0.06 0.29 0 0.08 0.29 0 0.1 0.29 0 0 0.295 0 0.02 0.295 0 0.04 0.295 0 0.06 0.295 0 0.08 0.295 0 0.1 0.295 0 0 0.3 0 0.02 0.3 0 0.04 0.3 0 0.06 0.3 0 0.08 0.3 0 0.1 0.3 0 0 0.305 0 0.02 0.305 0 0.04 0.305 0 0.06 0.305 0 0.08 0.305 0 0.1 0.305 0 0 0.31 0 0.02 0.31 0 0.04 0.31 0 0.06 0.31 0 0.08 0.31 0 0.1 0.31 0 0 0.315 0 0.02 0.315 0 0.04 0.315 0 0.06 0.315 0 0.08 0.315 0 0.1 0.315 0 0 0.32 0 0.02 0.32 0 0.04 0.32 0 0.06 0.32 0 0.08 0.32 0 0.1 0.32 0 0 0.325 0 0.02 0.325 0 0.04 0.325 0 0.06 0.325 0 0.08 0.325 0 0.1 0.325 0 0 0.33 0 0.02 0.33 0 0.04 0.33 0 0.06 0.33 0 0.08 0.33 0 0.1 0.33 0 0 0.335 0 0.02 0.335 0 0.04 0.335 0 0.06 0.335 0 0.08 0.335 0 0.1 0.335 0 0 0.34 0 0.02 0.34 0 0.04 0.34 0 0.06 0.34 0 0.08 0.34 0 0.1 0.34 0 0 0.345 0 0.02 0.345 0 0.04 0.345 0 0.06 0.345 0 0.08 0.345 0 0.1 0.345 0 0 0.35 0 0.02 0.35 0 0.04 0.35 0 0.06 0.35 0 0.08 0.35 0 0.1 0.35 0 0 0.355 0 0.02 0.355 0 0.04 0.355 0 0.06 0.355 0 0.08 0.355 0 0.1 0.355 0 0 0.36 0 0.02 0.36 0 0.04 0.36 0 0.06 0.36 0 0.08 0.36 0 0.1 0.36 0 0 0.365 0 0.02 0.365 0 0.04 0.365 0 0.06 0.365 0 0.08 0.365 0 0.1 0.365 0 0 0.37 0 0.02 0.37 0 0.04 0.37 0 0.06 0.37 0 0.08 0.37 0 0.1 0.37 0 0 0.375 0 0.02 0.375 0 0.04 0.375 0 0.06 0.375 0 0.08 0.375 0 0.1 0.375 0 0 0.38 0 0.02 0.38 0 0.04 0.38 0 0.06 0.38 0 0.08 0.38 0 0.1 0.38 0 0 0.385 0 0.02 0.385 0 0.04 0.385 0 0.06 0.385 0 0.08 0.385 0 0.1 0.385 0 0 0.39 0 0.02 0.39 0 0.04 0.39 0 0.06 0.39 0 0.08 0.39 0 0.1 0.39 0 0 0.395 0 0.02 0.395 0 0.04 0.395 0 0.06 0.395 0 0.08 0.395 0 0.1 0.395 0 0 0.4 0 0.02 0.4 0 0.04 0.4 0 0.06 0.4 0 0.08 0.4 0 0.1 0.4 0 0 0.405 0 0.02 0.405 0 0.04 0.405 0 0.06 0.405 0 0.08 0.405 0 0.1 0.405 0 0 0.41 0 0.02 0.41 0 0.04 0.41 0 0.06 0.41 0 0.08 0.41 0 0.1 0.41 0 0 0.415 0 0.02 0.415 0 0.04 0.415 0 0.06 0.415 0 0.08 0.415 0 0.1 0.415 0 0 0.42 0 0.02 0.42 0 0.04 0.42 0 0.06 0.42 0 0.08 0.42 0 0.1 0.42 0 0 0.425 0 0.02 0.425 0 0.04 0.425 0 0.06 0.425 0 0.08 0.425 0 0.1 0.425 0 0 0.43 0 0.02 0.43 0 0.04 0.43 0 0.06 0.43 0 0.08 0.43 0 0.1 0.43 0 0 0.435 0 0.02 0.435 0 0.04 0.435 0 0.06 0.435 0 0.08 0.435 0 0.1 0.435 0 0 0.44 0 0.02 0.44 0 0.04 0.44 0 0.06 0.44 0 0.08 0.44 0 0.1 0.44 0 0 0.445 0 0.02 0.445 0 0.04 0.445 0 0.06 0.445 0 0.08 0.445 0 0.1 0.445 0 0 0.45 0 0.02 0.45 0 0.04 0.45 0 0.06 0.45 0 0.08 0.45 0 0.1 0.45 0 0 0.455 0 0.02 0.455 0 0.04 0.455 0 0.06 0.455 0 0.08 0.455 0 0.1 0.455 0 0 0.46 0 0.02 0.46 0 0.04 0.46 0 0.06 0.46 0 0.08 0.46 0 0.1 0.46 0 0 0.465 0 0.02 0.465 0 0.04 0.465 0 0.06 0.465 0 0.08 0.465 0 0.1 0.465 0 0 0.47 0 0.02 0.47 0 0.04 0.47 0 0.06 0.47 0 0.08 0.47 0 0.1 0.47 0 0 0.475 0 0.02 0.475 0 0.04 0.475 0 0.06 0.475 0 0.08 0.475 0 0.1 0.475 0 0 0.48 0 0.02 0.48 0 0.04 0.48 0 0.06 0.48 0 0.08 0.48 0 0.1 0.48 0 0 0.485 0 0.02 0.485 0 0.04 0.485 0 0.06 0.485 0 0.08 0.485 0 0.1 0.485 0 0 0.49 0 0.02 0.49 0 0.04 0.49 0 0.06 0.49 0 0.08 0.49 0 0.1 0.49 0 0 0.495 0 0.02 0.495 0 0.04 0.495 0 0.06 0.495 0 0.08 0.495 0 0.1 0.495 0 0 0.5 0 0.02 0.5 0 0.04 0.5 0 0.06 0.5 0 0.08 0.5 0 0.1 0.5 0 0 0.505 0 0.02 0.505 0 0.04 0.505 0 0.06 0.505 0 0.08 0.505 0 0.1 0.505 0 0 0.51 0 0.02 0.51 0 0.04 0.51 0 0.06 0.51 0 0.08 0.51 0 0.1 0.51 0 0 0.515 0 0.02 0.515 0 0.04 0.515 0 0.06 0.515 0 0.08 0.515 0 0.1 0.515 0 0 0.52 0 0.02 0.52 0 0.04 0.52 0 0.06 0.52 0 0.08 0.52 0 0.1 0.52 0 0 0.525 0 0.02 0.525 0 0.04 0.525 0 0.06 0.525 0 0.08 0.525 0 0.1 0.525 0 0 0.53 0 0.02 0.53 0 0.04 0.53 0 0.06 0.53 0 0.08 0.53 0 0.1 0.53 0 0 0.535 0 0.02 0.535 0 0.04 0.535 0 0.06 0.535 0 0.08 0.535 0 0.1 0.535 0 0 0.54 0 0.02 0.54 0 0.04 0.54 0 0.06 0.54 0 0.08 0.54 0 0.1 0.54 0 0 0.545 0 0.02 0.545 0 0.04 0.545 0 0.06 0.545 0 0.08 0.545 0 0.1 0.545 0 0 0.55 0 0.02 0.55 0 0.04 0.55 0 0.06 0.55 0 0.08 0.55 0 0.1 0.55 0 0 0.555 0 0.02 0.555 0 0.04 0.555 0 0.06 0.555 0 0.08 0.555 0 0.1 0.555 0 0 0.56 0 0.02 0.56 0 0.04 0.56 0 0.06 0.56 0 0.08 0.56 0 0.1 0.56 0 0 0.565 0 0.02 0.565 0 0.04 0.565 0 0.06 0.565 0 0.08 0.565 0 0.1 0.565 0 0 0.57 0 0.02 0.57 0 0.04 0.57 0 0.06 0.57 0 0.08 0.57 0 0.1 0.57 0 0 0.575 0 0.02 0.575 0 0.04 0.575 0 0.06 0.575 0 0.08 0.575 0 0.1 0.575 0 0 0.58 0 0.02 0.58 0 0.04 0.58 0 0.06 0.58 0 0.08 0.58 0 0.1 0.58 0 0 0.585 0 0.02 0.585 0 0.04 0.585 0 0.06 0.585 0 0.08 0.585 0 0.1 0.585 0 0 0.59 0 0.02 0.59 0 0.04 0.59 0 0.06 0.59 0 0.08 0.59 0 0.1 0.59 0 0 0.595 0 0.02 0.595 0 0.04 0.595 0 0.06 0.595 0 0.08 0.595 0 0.1 0.595 0 0 0.6 0 0.02 0.6 0 0.04 0.6 0 0.06 0.6 0 0.08 0.6 0 0.1 0.6 0 0 0.605 0 0.02 0.605 0 0.04 0.605 0 0.06 0.605 0 0.08 0.605 0 0.1 0.605 0 0 0.61 0 0.02 0.61 0 0.04 0.61 0 0.06 0.61 0 0.08 0.61 0 0.1 0.61 0 0 0.615 0 0.02 0.615 0 0.04 0.615 0 0.06 0.615 0 0.08 0.615 0 0.1 0.615 0 0 0.62 0 0.02 0.62 0 0.04 0.62 0 0.06 0.62 0 0.08 0.62 0 0.1 0.62 0 0 0.625 0 0.02 0.625 0 0.04 0.625 0 0.06 0.625 0 0.08 0.625 0 0.1 0.625 0 0 0.63 0 0.02 0.63 0 0.04 0.63 0 0.06 0.63 0 0.08 0.63 0 0.1 0.63 0 0 0.635 0 0.02 0.635 0 0.04 0.635 0 0.06 0.635 0 0.08 0.635 0 0.1 0.635 0 0 0.64 0 0.02 0.64 0 0.04 0.64 0 0.06 0.64 0 0.08 0.64 0 0.1 0.64 0 0 0.645 0 0.02 0.645 0 0.04 0.645 0 0.06 0.645 0 0.08 0.645 0 0.1 0.645 0 0 0.65 0 0.02 0.65 0 0.04 0.65 0 0.06 0.65 0 0.08 0.65 0 0.1 0.65 0 0 0.655 0 0.02 0.655 0 0.04 0.655 0 0.06 0.655 0 0.08 0.655 0 0.1 0.655 0 0 0.66 0 0.02 0.66 0 0.04 0.66 0 0.06 0.66 0 0.08 0.66 0 0.1 0.66 0 0 0.665 0 0.02 0.665 0 0.04 0.665 0 0.06 0.665 0 0.08 0.665 0 0.1 0.665 0 0 0.67 0 0.02 0.67 0 0.04 0.67 0 0.06 0.67 0 0.08 0.67 0 0.1 0.67 0 0 0.675 0 0.02 0.675 0 0.04 0.675 0 0.06 0.675 0 0.08 0.675 0 0.1 0.675 0 0 0.68 0 0.02 0.68 0 0.04 0.68 0 0.06 0.68 0 0.08 0.68 0 0.1 0.68 0 0 0.685 0 0.02 0.685 0 0.04 0.685 0 0.06 0.685 0 0.08 0.685 0 0.1 0.685 0 0 0.69 0 0.02 0.69 0 0.04 0.69 0 0.06 0.69 0 0.08 0.69 0 0.1 
[...]
			<PointData Scalars="VitesseX">
				<DataArray Name="VitesseX" type="Float32" format="ascii">
 0 -6.09021e-15 -5.87802e-15 7.09784e-15 2.62962e-14 0 0 -4.79299e-15 -7.48844e-15 1.1271e-14 2.38424e-14 0 0 -4.46762e-15 -6.9476e-15 1.90028e-14 1.90289e-14 0 0 -9.97344e-15 3.16086e-15 1.60095e-14 2.40323e-14 0 0 -1.40425e-14 1.36185e-14 6.99194e-15 3.62621e-14 0 0 -1.01998e-14 7.17324e-15 1.98914e-14 2.8162e-14 0 0 1.64433e-16 -9.4792e-15 4.41671e-14 9.13285e-15 0 0 3.06047e-15 -7.48615e-15 4.93616e-14 7.27225e-15 0 0 4.51163e-15 -3.74589e-16 5.13212e-14 9.54871e-15 0 0 8.89906e-15 1.05419e-14 3.40501e-14 2.85662e-14 0 0 1.98165e-15 3.06245e-14 4.63913e-15 4.85146e-14 0 0 7.87127e-15 1.04753e-14 2.83884e-14 3.17274e-14 0 0 -6.02631e-15 1.56413e-14 3.11174e-14 3.17806e-14 0 0 -8.48427e-15 1.60409e-14 3.86651e-14 1.56825e-14 0 0 -8.43855e-15 1.69796e-14 4.05803e-14 1.95046e-15 0 0 -2.91841e-14 4.61465e-14 1.29932e-14 7.49564e-16 0 0 -3.73978e-15 4.4871e-15 5.96378e-14 -5.52901e-14 0 0 5.96571e-15 -1.27876e-14 6.25189e-14 -6.09531e-14 0 0 2.6228e-15 -5.00696e-15 1.88206e-14 -1.71232e-14 0 0 -2.36022e-14 2.21082e-14 -1.25598e-14 2.93114e-15 0 0 5.33936e-15 -3.76869e-14 4.40571e-14 -3.27345e-14 0 0 4.4079e-14 -8.03836e-14 5.00775e-14 -2.71082e-14 0 0 1.1479e-14 -2.09973e-14 -3.05079e-14 1.82909e-14 0 0 -1.47164e-14 1.94417e-14 -7.34738e-14 4.32369e-14 0 0 -2.49917e-14 1.3368e-14 -3.08671e-14 6.86047e-15 0 0 -2.43188e-14 -4.15122e-16 4.48688e-15 -2.23728e-14 0 0 -2.88981e-15 -2.0473e-14 -3.04487e-15 1.33263e-14 0 0 -1.22268e-14 5.41783e-15 -4.95573e-14 7.61474e-14 0 0 -3.9752e-14 5.19541e-14 -8.54553e-14 1.11409e-13 0 0 -2.01047e-14 -7.73917e-16 3.30581e-14 2.34388e-14 0 0 -1.53589e-14 -8.54568e-15 8.36361e-14 -1.39975e-14 0 0 4.6097e-15 -1.84715e-14 9.64504e-14 1.38143e-15 0 0 1.91788e-14 -1.89651e-14 8.81244e-14 2.941e-14 0 0 2.39527e-14 4.7583e-15 3.71153e-14 8.22066e-14 0 0 -2.43193e-14 8.35484e-14 -3.55519e-14 1.28078e-13 0 0 -3.76404e-14 7.55545e-14 -7.50718e-15 1.25616e-13 0 0 -4.05589e-14 3.41844e-14 5.04382e-14 1.21898e-13 0 0 -3.97953e-14 1.55359e-14 4.6348e-14 1.29152e-13 0 0 -1.20006e-14 -1.04862e-15 3.25052e-14 1.10436e-13 0 0 1.03101e-14 -2.66457e-14 1.04544e-13 1.02859e-14 0 0 2.38918e-14 -3.10246e-14 1.30771e-13 -4.18215e-14 0 0 -5.18098e-15 4.02443e-14 4.01582e-15 5.71517e-14 0 0 1.76993e-14 -2.56857e-14 7.8759e-14 3.87703e-14 0 0 1.53593e-15 5.30316e-15 7.52021e-14 1.87824e-14 0 0 4.16085e-14 9.33241e-16 4.46953e-14 2.88806e-14 0 0 4.22965e-14 -9.77658e-15 5.46922e-14 3.92617e-14 0 0 -4.1464e-14 1.5819e-13 -1.3611e-13 1.5779e-13 0 0 -1.23062e-15 1.34234e-13 -1.50823e-13 1.84088e-13 0 0 7.29665e-14 -1.27056e-14 1.24132e-14 8.48486e-14 0 0 2.07762e-13 -2.14103e-13 2.0954e-13 -6.61146e-14 0 0 2.45279e-13 -2.48763e-13 2.38607e-13 -1.24168e-13 0 0 1.80168e-13 -1.23921e-13 1.12337e-13 -1.66661e-14 0 0 1.55881e-13 1.28351e-15 -1.78092e-14 1.0202e-13 0 0 9.4274e-14 1.06317e-13 -2.61433e-14 5.51692e-14 0 0 1.06352e-13 3.19715e-14 1.21691e-13 -5.88976e-14 0 0 2.12479e-13 -1.02602e-13 2.1868e-13 -6.08282e-14 0 0 2.37967e-13 -7.01083e-14 1.44e-13 4.18774e-14 0 0 2.01074e-13 -2.0278e-14 9.28489e-14 1.3237e-13 0 0 1.16024e-13 2.24876e-14 9.33626e-14 1.87584e-13 0 0 1.61826e-13 -6.13432e-14 1.68921e-13 2.00205e-13 0 0 1.41757e-13 -7.52676e-15 1.53996e-13 2.3235e-13 0 0 3.29711e-14 1.22356e-13 1.18075e-13 2.16092e-13 0 0 8.6568e-14 2.00566e-15 3.01935e-13 3.95373e-14 0 0 1.41334e-13 -6.55038e-14 3.55048e-13 -4.44731e-14 0 0 1.28294e-13 -4.06855e-14 2.93408e-13 -1.67159e-14 0 0 -8.87136e-15 1.1314e-13 1.87454e-13 7.30304e-14 0 0 -1.08031e-13 2.35428e-13 8.72501e-14 2.16584e-13 0 0 1.77484e-14 8.5496e-14 1.47076e-13 2.36142e-13 0 0 1.13726e-13 -3.68397e-14 1.48053e-13 2.71971e-13 0 0 1.214e-13 -3.20851e-16 8.45495e-14 2.73442e-13 0 0 2.80536e-13 -6.37788e-14 5.99192e-14 1.65571e-13 0 0 3.66135e-13 -1.28003e-14 -6.22036e-14 1.88001e-13 0 0 3.52281e-13 -8.78187e-15 2.96739e-14 9.59536e-14 0 0 1.87628e-13 1.0018e-13 -1.07543e-14 1.02006e-13 0 0 2.43125e-13 -2.57593e-14 3.71322e-14 1.87655e-13 0 0 4.14706e-13 -1.59808e-13 1.27434e-13 2.06256e-13 0 0 3.27461e-13 5.97069e-14 1.60506e-15 1.78924e-13 0 0 3.18579e-13 1.07837e-13 -4.7523e-14 1.05948e-13 0 0 4.686e-13 -7.46581e-14 2.68958e-15 6.40888e-14 0 0 5.54132e-13 -2.40118e-13 8.68203e-14 1.4069e-14 0 0 5.37034e-13 -3.07776e-13 1.45803e-13 -2.64178e-14 0 0 3.54875e-13 -1.34482e-13 -3.36136e-14 9.62973e-14 0 0 1.82862e-13 1.76718e-14 -1.95097e-13 2.07865e-13 0 0 1.01166e-13 2.83844e-15 -1.46026e-13 1.78567e-13 0 0 3.47086e-14 -5.82115e-14 -2.78009e-14 1.37847e-13 0 0 -5.55088e-14 -7.70738e-14 3.18882e-14 1.5617e-13 0 0 -1.15456e-13 -1.03654e-13 5.05597e-14 2.21623e-13 0 0 -1.16924e-13 -1.64e-13 5.54032e-14 2.98838e-13 0 0 -9.27769e-14 -2.35087e-13 6.30936e-14 3.41769e-13 0 0 -8.39868e-14 -2.79898e-13 6.03346e-14 3.62617e-13 0 0 -9.81562e-14 -2.98026e-13 5.34684e-14 3.73749e-13 0 0 -1.1792e-13 -3.15e-13 7.29768e-14 3.57797e-13 0 0 -1.35035e-13 -3.23983e-13 1.15222e-13 3.0057e-13 0 0 -1.41432e-13 -3.2598e-13 1.70804e-13 2.0816e-13 0 0 -1.42684e-13 -3.09356e-13 2.18083e-13 1.06647e-13 0 0 -1.42738e-13 -2.7095e-13 2.36159e-13 3.24814e-14 0 0 -1.40767e-13 -2.17153e-13 2.28665e-13 -6.99964e-15 0 0 -1.40549e-13 -1.47026e-13 2.0652e-13 -1.6938e-14 0 0 -1.37688e-13 -6.77299e-14 1.75342e-13 6.3563e-16 0 0 -1.29027e-13 1.58317e-14 1.37252e-13 3.39797e-14 0 0 -1.11181e-13 8.67979e-14 1.12755e-13 6.58134e-14 0 0 -8.10595e-14 1.3513e-13 1.16687e-13 8.07778e-14 0 0 -3.78532e-14 1.58374e-13 1.46402e-13 8.29042e-14 0 0 1.43054e-14 1.60046e-13 1.91185e-13 8.55713e-14 0 0 6.36773e-14 1.60694e-13 2.31317e-13 9.37046e-14 0 0 1.0351e-13 1.7332e-13 2.5453e-13 1.11183e-13 0 0 1.31062e-13 2.01926e-13 2.54912e-13 1.42044e-13 0 0 1.47733e-13 2.42685e-13 2.36303e-13 1.78243e-13 0 0 1.64485e-13 2.9093e-13 2.00764e-13 2.10679e-13 0 0 1.8421e-13 3.46362e-13 1.43392e-13 2.43319e-13 0 0 2.07545e-13 3.96763e-13 8.40094e-14 2.65402e-13 0 0 2.38026e-13 4.3187e-13 3.51069e-14 2.76539e-13 0 0 2.71229e-13 4.45571e-13 1.08994e-14 2.65516e-13 0 0 2.96917e-13 4.294e-13 2.85325e-14 2.2422e-13 0 0 3.26519e-13 3.72286e-13 8.30507e-14 1.98171e-13 0 0 3.46336e-13 3.38837e-13 9.38358e-14 2.10749e-13 0 0 3.3449e-13 3.48249e-13 9.72258e-14 1.72532e-13 0 0 3.23612e-13 3.1467e-13 1.65454e-13 1.11756e-13 0 0 3.01052e-13 3.21402e-13 1.44863e-13 1.15125e-13 0 0 2.71738e-13 3.31534e-13 1.53679e-13 8.34406e-14 0 0 2.50968e-13 2.75142e-13 2.34589e-13 4.28052e-14 0 0 2.34506e-13 2.53433e-13 2.15546e-13 5.38784e-14 0 0 1.94505e-13 2.79135e-13 1.81037e-13 5.59942e-14 0 0 1.6536e-13 2.5123e-13 2.22608e-13 4.07543e-14 0 0 1.52105e-13 2.28053e-13 2.32377e-13 3.16124e-14 0 0 1.44855e-13 2.41739e-13 1.701e-13 8.16803e-14 0 0 1.451e-13 2.14964e-13 1.72289e-13 1.18996e-13 0 0 1.34271e-13 2.05791e-13 1.74503e-13 1.11418e-13 0 0 1.42705e-13 1.96235e-13 1.52272e-13 1.19e-13 0 0 1.35765e-13 1.95132e-13 1.44161e-13 1.14271e-13 0 0 1.30114e-13 1.85969e-13 1.75377e-13 5.35197e-14 0 0 1.22695e-13 1.87758e-13 1.95008e-13 1.56744e-14 0 0 1.03364e-13 2.3182e-13 1.09079e-13 6.50358e-14 0 0 1.03565e-13 2.26428e-13 9.05408e-14 4.31343e-14 0 0 1.06512e-13 1.88257e-13 1.37589e-13 -1.03008e-14 0 0 6.92614e-14 2.21539e-13 5.78592e-14 4.73803e-14 0 0 5.04796e-14 1.93347e-13 7.45335e-14 7.93427e-14 0 0 3.60309e-14 1.55926e-13 9.45629e-14 9.43362e-14 0 0 1.35173e-14 1.14405e-13 9.56993e-14 1.11662e-13 0 0 4.221e-14 -1.81012e-14 1.99435e-13 9.99757e-14 0 0 2.43847e-14 3.25796e-15 1.13881e-13 1.67911e-13 0 0 -3.1967e-14 8.20713e-14 7.26144e-15 2.10407e-13 0 0 -1.84092e-14 2.72157e-14 6.41849e-14 1.69747e-13 0 0 -1.25644e-14 1.14368e-14 1.41361e-13 6.33394e-14 0 0 -2.66337e-14 6.37211e-14 2.09019e-13 -4.23948e-14 0 0 -3.71571e-14 1.3852e-13 2.42543e-13 3.96526e-14 0 0 -2.03627e-14 2.25226e-13 2.66899e-13 7.17177e-14 0 0 4.36951e-14 2.30936e-13 3.21304e-13 9.44418e-14 0 0 4.91309e-14 2.68219e-13 3.0434e-13 2.60372e-13 0 0 5.95585e-14 3.09221e-13 3.07558e-13 3.47899e-13 0 0 6.20916e-14 3.46783e-13 3.16484e-13 3.74038e-13 0 0 1.37778e-13 2.72825e-13 4.12189e-13 3.13656e-13 0 0 1.9769e-13 2.08503e-13 5.2133e-13 2.0191e-13 0 0 2.03002e-13 2.36206e-13 4.993e-13 1.67852e-13 0 0 1.96327e-13 3.29545e-13 3.48857e-13 2.88927e-13 0 0 1.54596e-13 4.71587e-13 1.88972e-13 4.02105e-13 0 0 1.92735e-13 4.08843e-13 3.42718e-13 1.8412e-13 0 0 2.9068e-13 2.65524e-13 5.46557e-13 -2.00246e-14 0 0 3.44559e-13 2.67064e-13 4.88735e-13 7.17418e-14 0 0 2.90297e-13 3.94627e-13 3.61371e-13 1.27674e-13 0 0 2.96184e-13 4.02063e-13 3.96274e-13 1.07685e-13 0 0 5.03799e-13 1.62192e-13 6.14142e-13 -8.15096e-15 0 0 6.79584e-13 2.15074e-14 6.88147e-13 -7.49989e-14 0 0 5.5953e-13 2.4939e-13 4.46858e-13 1.23124e-13 0 0 3.98768e-13 5.25442e-13 2.43402e-13 2.99664e-13 0 0 3.5917e-13 6.24637e-13 2.13675e-13 3.54836e-13 0 0 4.98292e-13 4.49034e-13 4.18974e-13 2.11363e-13 0 0 6.0481e-13 3.9878e-13 4.51954e-13 1.76498e-13 0 0 5.13049e-13 5.9098e-13 3.41349e-13 2.54115e-13 0 0 4.27962e-13 7.17017e-13 3.63345e-13 2.23675e-13 0 0 3.77108e-13 8.08342e-13 2.84512e-13 2.83245e-13 0 0 5.1671e-13 6.02913e-13 5.31407e-13 1.34134e-13 0 0 6.16607e-13 4.22195e-13 7.52313e-13 2.84791e-14 0 0 4.99287e-13 5.26456e-13 5.92745e-13 2.19661e-13 0 0 4.47669e-13 6.17773e-13 3.95625e-13 4.25314e-13 0 0 4.53213e-13 5.32028e-13 4.68083e-13 4.35967e-13 0 0 3.91186e-13 5.06158e-13 6.59797e-13 2.69003e-13 0 0 3.93342e-13 5.83798e-13 6.219e-13 2.67659e-13 0 0 3.36094e-13 7.41468e-13 4.93236e-13 2.78446e-13 0 0 3.59187e-13 6.65035e-13 6.40278e-13 7.31513e-14 0 0 4.7151e-13 4.57532e-13 6.13623e-13 2.32273e-13 0 0 4.47092e-13 4.326e-13 6.10489e-13 2.5121e-13 0 0 3.30266e-13 6.31228e-13 4.76821e-13 2.39549e-13 0 0 5.08075e-13 5.10817e-13 3.7779e-13 3.57865e-13 0 0 6.47743e-13 2.56025e-13 6.68493e-13 1.49412e-13 0 0 4.80502e-13 4.34677e-13 5.07781e-13 2.4738e-13 0 0 4.55809e-13 5.35569e-13 3.15353e-13 3.99512e-13 0 0 2.66323e-13 6.53275e-13 5.14037e-13 8.83856e-14 0 0 -4.89334e-15 9.00819e-13 4.77657e-13 4.40212e-14 0 0 1.32722e-13 5.68793e-13 8.00931e-13 -5.93633e-14 0 0 2.54404e-13 3.3442e-13 1.09192e-12 -2.91307e-13 0 0 1.3103e-13 6.04242e-13 7.35279e-13 9.48001e-14 0 0 1.60184e-13 5.15992e-13 7.63374e-13 2.77324e-13 0 0 2.68289e-13 3.61396e-13 9.73047e-13 7.60585e-14 0 0 2.70212e-14 7.21403e-13 8.26645e-13 6.21317e-14 0 0 -3.01967e-14 8.49856e-13 6.88398e-13 2.16195e-13 0 0 2.79505e-15 8.30626e-13 5.51834e-13 3.36842e-13 0 0 1.9891e-13 4.89932e-13 9.52611e-13 -4.29699e-14 0 0 2.15878e-13 4.51122e-13 1.06767e-12 -1.88108e-13 0 0 -2.35862e-13 1.14641e-12 4.20176e-13 1.37681e-13 0 0 -3.10037e-13 1.27393e-12 3.00221e-13 1.5471e-13 0
				</DataArray>
				<DataArray Name="VitesseY" type="Float32" format="ascii">