<?xml version="1.0"?>
<VTKFile type="PolyData">
	<PolyData>
		<Piece NumberOfPoints="1206" NumberOfPolys="1000">
			<Points>
				<DataArray type="Float32" NumberOfComponents="3" format="ascii">
 0 0 0 0.02 0 0 0.04 0 0 0.06 0 0 0.08 0 0 0.1 0 0 0 0.005 0 0.02 0.005 0 0.04 0.005 0 0.06 0.005 0 0.08 0.005 0 0.1 0.005 0 0 0.01 0 0.02 0.01 0 0.04 0.01 0 0.06 0.01 0 0.08 0.01 0 0.1 0.01 0 0 0.015 0 0.02 0.015 0 0.04 0.015 0 0.06 0.015 0 0.08 0.015 0 0.1 0.015 0 0 0.02 0 0.02 0.02 0 0.04 0.02 0 0.06 0.02 0 0.08 0.02 0 0.1 0.02 0 0 0.025 0 0.02 0.025 0 0.04 0.025 0 0.06 0.025 0 0.08 0.025 0 0.1 0.025 0 0 0.03 0 0.02 0.03 0 0.04 0.03 0 0.06 0.03 0 0.08 0.03 0 0.1 0.03 0 0 0.035 0 0.02 0.035 0 0.04 0.035 0 0.06 0.035 0 0.08 0.035 0 0.1 0.035 0 0 0.04 0 0.02 0.04 0 0.04 0.04 0 0.06 0.04 0 0.08 0.04 0 0.1 0.04 0 0 0.045 0 0.02 0.045 0 0.04 0.045 0 0.06 0.045 0 0.08 0.045 0 0.1 0.045 0 0 0.05 0 0.02 0.05 0 0.04 0.05 0 0.06 0.05 0 0.08 0.05 0 0.1 0.05 0 0 0.055 0 0.02 0.055 0 0.04 0.055 0 0.06 0.055 0 0.08 0.055 0 0.1 0.055 0 0 0.06 0 0.02 0.06 0 0.04 0.06 0 0.06 0.06 0 0.08 0.06 0 0.1 0.06 0 0 0.065 0 0.02 0.065 0 0.04 0.065 0 0.06 0.065 0 0.08 0.065 0 0.1 0.065 0 0 0.07 0 0.02 0.07 0 0.04 0.07 0 0.06 0.07 0 0.08 0.07 0 0.1 0.07 0 0 0.075 0 0.02 0.075 0 0.04 0.075 0 0.06 0.075 0 0.08 0.075 0 0.1 0.075 0 0 0.08 0 0.02 0.08 0 0.04 0.08 0 0.06 0.08 0 0.08 0.08 0 0.1 0.08 0 0 0.085 0 0.02 0.085 0 0.04 0.085 0 0.06 0.085 0 0.08 0.085 0 0.1 0.085 0 0 0.09 0 0.02 0.09 0 0.04 0.09 0 0.06 0.09 0 0.08 0.09 0 0.1 0.09 0 0 0.095 0 0.02 0.095 0 0.04 0.095 0 0.06 0.095 0 0.08 0.095 0 0.1 0.095 0 0 0.1 0 0.02 0.1 0 0.04 0.1 0 0.06 0.1 0 0.08 0.1 0 0.1 0.1 0 0 0.105 0 0.02 0.105 0 0.04 0.105 0 0.06 0.105 0 0.08 0.105 0 0.1 0.105 0 0 0.11 0 0.02 0.11 0 0.04 0.11 0 0.06 0.11 0 0.08 0.11 0 0.1 0.11 0 0 0.115 0 0.02 0.115 0 0.04 0.115 0 0.06 0.115 0 0.08 0.115 0 0.1 0.115 0 0 0.12 0 0.02 0.12 0 0.04 0.12 0 0.06 0.12 0 0.08 0.12 0 0.1 0.12 0 0 0.125 0 0.02 0.125 0 0.04 0.125 0 0.06 0.125 0 0.08 0.125 0 0.1 0.125 0 0 0.13 0 0.02 0.13 0 0.04 0.13 0 0.06 0.13 0 0.08 0.13 0 0.1 0.13 0 0 0.135 0 0.02 0.135 0 0.04 0.135 0 0.06 0.135 0 0.08 0.135 0 0.1 0.135 0 0 0.14 0 0.02 0.14 0 0.04 0.14 0 0.06 0.14 0 0.08 0.14 0 0.1 0.14 0 0 0.145 0 0.02 0.145 0 0.04 0.145 0 0.06 0.145 0 0.08 0.145 0 0.1 0.145 0 0 0.15 0 0.02 0.15 0 0.04 0.15 0 0.06 0.15 0 0.08 0.15 0 0.1 0.15 0 0 0.155 0 0.02 0.155 0 0.04 0.155 0 0.06 0.155 0 0.08 0.155 0 0.1 0.155 0 0 0.16 0 0.02 0.16 0 0.04 0.16 0 0.06 0.16 0 0.08 0.16 0 0.1 0.16 0 0 0.165 0 0.02 0.165 0 0.04 0.165 0 0.06 0.165 0 0.08 0.165 0 0.1 0.165 0 0 0.17 0 0.02 0.17 0 0.04 0.17 0 0.06 0.17 0 0.08 0.17 0 0.1 0.17 0 0 0.175 0 0.02 0.175 0 0.04 0.175 0 0.06 0.175 0 0.08 0.175 0 0.1 0.175 0 0 0.18 0 0.02 0.18 0 0.04 0.18 0 0.06 0.18 0 0.08 0.18 0 0.1 0.18 0 0 0.185 0 0.02 0.185 0 0.04 0.185 0 0.06 0.185 0 0.08 0.185 0 0.1 0.185 0 0 0.19 0 0.02 0.19 0 0.04 0.19 0 0.06 0.19 0 0.08 0.19 0 0.1 0.19 0 0 0.195 0 0.02 0.195 0 0.04 0.195 0 0.06 0.195 0 0.08 0.195 0 0.1 0.195 0 0 0.2 0 0.02 0.2 0 0.04 0.2 0 0.06 0.2 0 0.08 0.2 0 0.1 0.2 0 0 0.205 0 0.02 0.205 0 0.04 0.205 0 0.06 0.205 0 0.08 0.205 0 0.1 0.205 0 0 0.21 0 0.02 0.21 0 0.04 0.21 0 0.06 0.21 0 0.08 0.21 0 0.1 0.21 0 0 0.215 0 0.02 0.215 0 0.04 0.215 0 0.06 0.215 0 0.08 0.215 0 0.1 0.215 0 0 0.22 0 0.02 0.22 0 0.04 0.22 0 0.06 0.22 0 0.08 0.22 0 0.1 0.22 0 0 0.225 0 0.02 0.225 0 0.04 0.225 0 0.06 0.225 0 0.08 0.225 0 0.1 0.225 0 0 0.23 0 0.02 0.23 0 0.04 0.23 0 0.06 0.23 0 0.08 0.23 0 0.1 0.23 0 0 0.235 0 0.02 0.235 0 0.04 0.235 0 0.06 0.235 0 0.08 0.235 0 0.1 0.235 0 0 0.24 0 0.02 0.24 0 0.04 0.24 0 0.06 0.24 0 0.08 0.24 0 0.1 0.24 0 0 0.245 0 0.02 0.245 0 0.04 0.245 0 0.06 0.245 0 0.08 0.245 0 0.1 0.245 0 0 0.25 0 0.02 0.25 0 0.04 0.25 0 0.06 0.25 0 0.08 0.25 0 0.1 0.25 0 0 0.255 0 0.02 0.255 0 0.04 0.255 0 0.06 0.255 0 0.08 0.255 0 0.1 0.255 0 0 0.26 0 0.02 0.26 0 0.04 0.26 0 0.06 0.26 0 0.08 0.26 0 0.1 0.26 0 0 0.265 0 0.02 0.265 0 0.04 0.265 0 0.06 0.265 0 0.08 0.265 0 0.1 0.265 0 0 0.27 0 0.02 0.27 0 0.04 0.27 0 0.06 0.27 0 0.08 0.27 0 0.1 0.27 0 0 0.275 0 0.02 0.275 0 0.04 0.275 0 0.06 0.275 0 0.08 0.275 0 0.1 0.275 0 0 0.28 0 0.02 0.28 0 0.04 0.28 0 0.06 0.28 0 0.08 0.28 0 0.1 0.28 0 0 0.285 0 0.02 0.285 0 0.04 0.285 0 0.06 0.285 0 0.08 0.285 0 0.1 0.285 0 0 0.29 0 0.02 0.29 0 0.04 0.29 0 0.06 0.29 0 0.08 0.29 0 0.1 0.29 0 0 0.295 0 0.02 0.295 0 0.04 0.295 0 0.06 0.295 0 0.08 0.295 0 0.1 0.295 0 0 0.3 0 0.02 0.3 0 0.04 0.3 0 0.06 0.3 0 0.08 0.3 0 0.1 0.3 0 0 0.305 0 0.02 0.305 0 0.04 0.305 0 0.06 0.305 0 0.08 0.305 0 0.1 0.305 0 0 0.31 0 0.02 0.31 0 0.04 0.31 0 0.06 0.31 0 0.08 0.31 0 0.1 0.31 0 0 0.315 0 0.02 0.315 0 0.04 0.315 0 0.06 0.315 0 0.08 0.315 0 0.1 0.315 0 0 0.32 0 0.02 0.32 0 0.04 0.32 0 0.06 0.32 0 0.08 0.32 0 0.1 0.32 0 0 0.325 0 0.02 0.325 0 0.04 0.325 0 0.06 0.325 0 0.08 0.325 0 0.1 0.325 0 0 0.33 0 0.02 0.33 0 0.04 0.33 0 0.06 0.33 0 0.08 0.33 0 0.1 0.33 0 0 0.335 0 0.02 0.335 0 0.04 0.335 0 0.06 0.335 0 0.08 0.335 0 0.1 0.335 0 0 0.34 0 0.02 0.34 0 0.04 0.34 0 0.06 0.34 0 0.08 0.34 0 0.1 0.34 0 0 0.345 0 0.02 0.345 0 0.04 0.345 0 0.06 0.345 0 0.08 0.345 0 0.1 0.345 0 0 0.35 0 0.02 0.35 0 0.04 0.35 0 0.06 0.35 0 0.08 0.35 0 0.1 0.35 0 0 0.355 0 0.02 0.355 0 0.04 0.355 0 0.06 0.355 0 0.08 0.355 0 0.1 0.355 0 0 0.36 0 0.02 0.36 0 0.04 0.36 0 0.06 0.36 0 0.08 0.36 0 0.1 0.36 0 0 0.365 0 0.02 0.365 0 0.04 0.365 0 0.06 0.365 0 0.08 0.365 0 0.1 0.365 0 0 0.37 0 0.02 0.37 0 0.04 0.37 0 0.06 0.37 0 0.08 0.37 0 0.1 0.37 0 0 0.375 0 0.02 0.375 0 0.04 0.375 0 0.06 0.375 0 0.08 0.375 0 0.1 0.375 0 0 0.38 0 0.02 0.38 0 0.04 0.38 0 0.06 0.38 0 0.08 0.38 0 0.1 0.38 0 0 0.385 0 0.02 0.385 0 0.04 0.385 0 0.06 0.385 0 0.08 0.385 0 0.1 0.385 0 0 0.39 0 0.02 0.39 0 0.04 0.39 0 0.06 0.39 0 0.08 0.39 0 0.1 0.39 0 0 0.395 0 0.02 0.395 0 0.04 0.395 0 0.06 0.395 0 0.08 0.395 0 0.1 0.395 0 0 0.4 0 0.02 0.4 0 0.04 0.4 0 0.06 0.4 0 0.08 0.4 0 0.1 0.4 0 0 0.405 0 0.02 0.405 0 0.04 0.405 0 0.06 0.405 0 0.08 0.405 0 0.1 0.405 0 0 0.41 0 0.02 0.41 0 0.04 0.41 0 0.06 0.41 0 0.08 0.41 0 0.1 0.41 0 0 0.415 0 0.02 0.415 0 0.04 0.415 0 0.06 0.415 0 0.08 0.415 0 0.1 0.415 0 0 0.42 0 0.02 0.42 0 0.04 0.42 0 0.06 0.42 0 0.08 0.42 0 0.1 0.42 0 0 0.425 0 0.02 0.425 0 0.04 0.425 0 0.06 0.425 0 0.08 0.425 0 0.1 0.425 0 0 0.43 0 0.02 0.43 0 0.04 0.43 0 0.06 0.43 0 0.08 0.43 0 0.1 0.43 0 0 0.435 0 0.02 0.435 0 0.04 0.435 0 0.06 0.435 0 0.08 0.435 0 0.1 0.435 0 0 0.44 0 0.02 0.44 0 0.04 0.44 0 0.06 0.44 0 0.08 0.44 0 0.1 0.44 0 0 0.445 0 0.02 0.445 0 0.04 0.445 0 0.06 0.445 0 0.08 0.445 0 0.1 0.445 0 0 0.45 0 0.02 0.45 0 0.04 0.45 0 0.06 0.45 0 0.08 0.45 0 0.1 0.45 0 0 0.455 0 0.02 0.455 0 0.04 0.455 0 0.06 0.455 0 0.08 0.455 0 0.1 0.455 0 0 0.46 0 0.02 0.46 0 0.04 0.46 0 0.06 0.46 0 0.08 0.46 0 0.1 0.46 0 0 0.465 0 0.02 0.465 0 0.04 0.465 0 0.06 0.465 0 0.08 0.465 0 0.1 0.465 0 0 0.47 0 0.02 0.47 0 0.04 0.47 0 0.06 0.47 0 0.08 0.47 0 0.1 0.47 0 0 0.475 0 0.02 0.475 0 0.04 0.475 0 0.06 0.475 0 0.08 0.475 0 0.1 0.475 0 0 0.48 0 0.02 0.48 0 0.04 0.48 0 0.06 0.48 0 0.08 0.48 0 0.1 0.48 0 0 0.485 0 0.02 0.485 0 0.04 0.485 0 0.06 0.485 0 0.08 0.485 0 0.1 0.485 0 0 0.49 0 0.02 0.49 0 0.04 0.49 0 0.06 0.49 0 0.08 0.49 0 0.1 0.49 0 0 0.495 0 0.02 0.495 0 0.04 0.495 0 0.06 0.495 0 0.08 0.495 0 0.1 0.495 0 0 0.5 0 0.02 0.5 0 0.04 0.5 0 0.06 0.5 0 0.08 0.5 0 0.1 0.5 0 0 0.505 0 0.02 0.505 0 0.04 0.505 0 0.06 0.505 0 0.08 0.505 0 0.1 0.505 0 0 0.51 0 0.02 0.51 0 0.04 0.51 0 0.06 0.51 0 0.08 0.51 0 0.1 0.51 0 0 0.515 0 0.02 0.515 0 0.04 0.515 0 0.06 0.515 0 0.08 0.515 0 0.1 0.515 0 0 0.52 0 0.02 0.52 0 0.04 0.52 0 0.06 0.52 0 0.08 0.52 0 0.1 0.52 0 0 0.525 0 0.02 0.525 0 0.04 0.525 0 0.06 0.525 0 0.08 0.525 0 0.1 0.525 0 0 0.53 0 0.02 0.53 0 0.04 0.53 0 0.06 0.53 0 0.08 0.53 0 0.1 0.53 0 0 0.535 0 0.02 0.535 0 0.04 0.535 0 0.06 0.535 0 0.08 0.535 0 0.1 0.535 0 0 0.54 0 0.02 0.54 0 0.04 0.54 0 0.06 0.54 0 0.08 0.54 0 0.1 0.54 0 0 0.545 0 0.02 0.545 0 0.04 0.545 0 0.06 0.545 0 0.08 0.545 0 0.1 0.545 0 0 0.55 0 0.02 0.55 0 0.04 0.55 0 0.06 0.55 0 0.08 0.55 0 0.1 0.55 0 0 0.555 0 0.02 0.555 0 0.04 0.555 0 0.06 0.555 0 0.08 0.555 0 0.1 0.555 0 0 0.56 0 0.02 0.56 0 0.04 0.56 0 0.06 0.56 0 0.08 0.56 0 0.1 0.56 0 0 0.565 0 0.02 0.565 0 0.04 0.565 0 0.06 0.565 0 0.08 0.565 0 0.1 0.565 0 0 0.57 0 0.02 0.57 0 0.04 0.57 0 0.06 0.57 0 0.08 0.57 0 0.1 0.57 0 0 0.575 0 0.02 0.575 0 0.04 0.575 0 0.06 0.575 0 0.08 0.575 0 0.1 0.575 0 0 0.58 0 0.02 0.58 0 0.04 0.58 0 0.06 0.58 0 0.08 0.58 0 0.1 0.58 0 0 0.585 0 0.02 0.585 0 0.04 0.585 0 0.06 0.585 0 0.08 0.585 0 0.1 0.585 0 0 0.59 0 0.02 0.59 0 0.04 0.59 0 0.06 0.59 0 0.08 0.59 0 0.1 0.59 0 0 0.595 0 0.02 0.595 0 0.04 0.595 0 0.06 0.595 0 0.08 0.595 0 0.1 0.595 0 0 0.6 0 0.02 0.6 0 0.04 0.6 0 0.06 0.6 0 0.08 0.6 0 0.1 0.6 0 0 0.605 0 0.02 0.605 0 0.04 0.605 0 0.06 0.605 0 0.08 0.605 0 0.1 0.605 0 0 0.61 0 0.02 0.61 0 0.04 0.61 0 0.06 0.61 0 0.08 0.61 0 0.1 0.61 0 0 0.615 0 0.02 0.615 0 0.04 0.615 0 0.06 0.615 0 0.08 0.615 0 0.1 0.615 0 0 0.62 0 0.02 0.62 0 0.04 0.62 0 0.06 0.62 0 0.08 0.62 0 0.1 0.62 0 0 0.625 0 0.02 0.625 0 0.04 0.625 0 0.06 0.625 0 0.08 0.625 0 0.1 0.625 0 0 0.63 0 0.02 0.63 0 0.04 0.63 0 0.06 0.63 0 0.08 0.63 0 0.1 0.63 0 0 0.635 0 0.02 0.635 0 0.04 0.635 0 0.06 0.635 0 0.08 0.635 0 0.1 0.635 0 0 0.64 0 0.02 0.64 0 0.04 0.64 0 0.06 0.64 0 0.08 0.64 0 0.1 0.64 0 0 0.645 0 0.02 0.645 0 0.04 0.645 0 0.06 0.645 0 0.08 0.645 0 0.1 0.645 0 0 0.65 0 0.02 0.65 0 0.04 0.65 0 0.06 0.65 0 0.08 0.65 0 0.1 0.65 0 0 0.655 0 0.02 0.655 0 0.04 0.655 0 0.06 0.655 0 0.08 0.655 0 0.1 0.655 0 0 0.66 0 0.02 0.66 0 0.04 0.66 0 0.06 0.66 0 0.08 0.66 0 0.1 0.66 0 0 0.665 0 0.02 0.665 0 0.04 0.665 0 0.06 0.665 0 0.08 0.665 0 0.1 0.665 0 0 0.67 0 0.02 0.67 0 0.04 0.67 0 0.06 0.67 0 0.08 0.67 0 0.1 0.67 0 0 0.675 0 0.02 0.675 0 0.04 0.675 0 0.06 0.675 0 0.08 0.675 0 0.1 0.675 0 0 0.68 0 0.02 0.68 0 0.04 0.68 0 0.06 0.68 0 0.08 0.68 0 0.1 0.68 0 0 0.685 0 0.02 0.685 0 0.04 0.685 0 0.06 0.685 0 0.08 0.685 0 0.1 0.685 0 0 0.69 0 0.02 0.69 0 0.04 0.69 0 0.06 0.69 0 0.08 0.69 0 0.1 
[...]
			<PointData Scalars="VitesseX">
				<DataArray Name="VitesseX" type="Float32" format="ascii">
 0 2.54237e-14 -1.55397e-14 9.20284e-15 3.81396e-15 0 0 2.14498e-14 -3.31805e-15 -4.48302e-15 1.78569e-14 0 0 1.98612e-14 6.01535e-15 -4.0592e-15 2.21794e-14 0 0 2.04678e-14 7.78955e-15 1.51413e-14 7.69329e-15 0 0 -6.85936e-15 5.16812e-14 -3.32308e-15 1.40704e-14 0 0 -1.31846e-14 6.58267e-14 2.38763e-16 9.66961e-15 0 0 4.30404e-14 -4.87766e-15 6.69555e-14 -2.98829e-14 0 0 7.08708e-14 -2.42441e-14 7.83521e-14 -4.49244e-14 0 0 6.0519e-14 2.48745e-15 4.53629e-14 -2.97604e-14 0 0 2.25572e-14 5.6811e-14 -1.24377e-14 9.05188e-15 0 0 8.07458e-15 7.92209e-14 -4.25459e-14 2.9819e-14 0 0 3.8973e-14 3.71587e-14 -1.96369e-14 2.3117e-14 0 0 7.46207e-14 -1.12452e-14 2.56513e-14 5.54047e-15 0 0 6.1534e-14 1.44186e-14 1.73119e-14 9.46005e-15 0 0 4.65562e-14 4.6831e-14 -4.69722e-16 1.7247e-14 0 0 6.81683e-14 2.34902e-14 4.45223e-14 -1.94644e-14 0 0 3.77473e-14 6.72129e-14 1.90089e-14 -7.78362e-15 0 0 -9.81258e-15 1.03539e-13 6.88392e-15 3.47514e-15 0 0 -1.56531e-14 7.37374e-14 4.50921e-14 -3.17629e-15 0 0 4.21837e-14 -1.27105e-14 9.77889e-14 -1.44204e-14 0 0 1.1531e-13 -1.03493e-13 1.543e-13 -4.7207e-14 0 0 1.05753e-13 -7.83945e-14 1.13856e-13 -1.6171e-14 0 0 1.71822e-14 6.52651e-14 -2.8253e-14 6.71267e-14 0 0 -4.75648e-15 1.24985e-13 -1.04256e-13 1.25487e-13 0 0 9.00605e-14 -1.61097e-14 4.36063e-14 4.76004e-14 0 0 1.82655e-13 -1.61309e-13 2.18778e-13 -5.84108e-14 0 0 9.19763e-14 1.38767e-14 4.92659e-14 6.46701e-14 0 0 -3.7183e-14 2.24397e-13 -1.30382e-13 1.67502e-13 0 0 2.95458e-14 1.0567e-13 9.61958e-15 8.65509e-14 0 0 1.27555e-13 -6.08075e-14 1.66505e-13 7.12638e-15 0 0 1.09478e-13 -4.17193e-14 1.3468e-13 -8.55422e-15 0 0 6.25288e-14 2.84261e-14 5.22574e-14 7.55395e-15 0 0 1.8192e-14 9.13862e-14 -2.0566e-14 2.04354e-14 0 0 1.52731e-14 1.36952e-13 -1.14061e-13 6.69575e-14 0 0 1.3872e-13 -4.38296e-14 2.36559e-14 1.31511e-14 0 0 1.8578e-13 -1.37721e-13 1.23549e-13 -5.98372e-14 0 0 9.61453e-14 2.58647e-14 -3.84583e-14 -2.79892e-15 0 0 3.81809e-14 1.37375e-13 -1.76258e-13 9.96068e-14 0 0 4.86166e-14 1.29047e-13 -1.97697e-13 1.45064e-13 0 0 8.81754e-14 4.40939e-14 -5.35087e-14 2.01169e-14 0 0 1.48705e-13 -7.35817e-14 1.33337e-13 -1.34809e-13 0 0 1.30061e-13 -2.47048e-14 9.81127e-14 -1.08772e-13 0 0 5.28608e-14 1.42079e-13 -6.53633e-14 1.1966e-14 0 0 1.63332e-13 2.42413e-14 5.33059e-15 6.54994e-15 0 0 3.40055e-13 -1.61257e-13 1.30945e-13 -5.74661e-14 0 0 2.89653e-13 1.70609e-14 -6.2344e-14 5.08793e-14 0 0 1.19639e-13 2.68209e-13 -2.66608e-13 1.90668e-13 0 0 8.73028e-14 2.71616e-13 -2.44217e-13 2.0822e-13 0 0 2.17099e-13 8.70644e-14 -1.2931e-13 1.99186e-13 0 0 4.35586e-13 -2.64116e-13 1.4974e-13 8.0953e-14 0 0 5.52517e-13 -5.45935e-13 4.32868e-13 -7.4254e-14 0 0 2.81461e-13 -2.27097e-13 1.85628e-13 2.01134e-14 0 0 -2.4973e-14 2.51151e-13 -2.78883e-13 2.92606e-13 0 0 8.17843e-14 1.50482e-13 -2.76571e-13 3.47993e-13 0 0 3.34061e-13 -1.72454e-13 -4.43999e-14 2.24777e-13 0 0 4.21102e-13 -2.49637e-13 -1.73415e-14 2.08889e-13 0 0 3.05538e-13 -6.24763e-14 -1.98334e-13 2.63149e-13 0 0 2.55512e-13 -4.38259e-14 -1.96641e-13 2.3452e-13 0 0 3.2441e-13 -2.00242e-13 -9.5934e-15 6.97492e-14 0 0 3.62129e-13 -2.23125e-13 4.64155e-14 -4.3655e-14 0 0 2.67111e-13 -2.29502e-14 -1.65809e-13 7.12216e-14 0 0 1.42112e-13 1.31751e-13 -2.97587e-13 1.70909e-13 0 0 1.92447e-13 -6.45934e-14 3.18136e-14 -4.42166e-14 0 0 1.95638e-13 -1.65781e-13 2.61258e-13 -2.0965e-13 0 0 1.1809e-13 -6.54742e-14 1.72216e-13 -1.34017e-13 0 0 5.99349e-14 6.3108e-14 5.40491e-14 -8.34589e-14 0 0 3.35892e-14 2.16142e-13 -1.09684e-13 -2.76375e-14 0 0 2.39411e-13 4.34754e-14 -7.19426e-14 -3.45329e-14 0 0 4.23509e-13 -2.24471e-13 1.16728e-13 -1.31632e-13 0 0 2.94172e-13 -3.65773e-14 -7.18316e-14 -4.31374e-16 0 0 1.88259e-13 1.86308e-13 -3.11593e-13 1.97786e-13 0 0 2.7836e-13 7.49905e-14 -1.98734e-13 1.70615e-13 0 0 5.06801e-13 -2.86318e-13 2.05715e-13 -2.20355e-14 0 0 6.24672e-13 -3.6201e-13 2.87902e-13 -1.27529e-14 0 0 4.88645e-13 2.81397e-15 -6.64062e-14 2.72338e-13 0 0 2.78074e-13 3.55669e-13 -3.3635e-13 4.01297e-13 0 0 3.98887e-13 1.28693e-13 1.02378e-14 4.7894e-14 0 0 6.91125e-13 -3.30852e-13 4.82502e-13 -2.10035e-13 0 0 6.69426e-13 -2.43593e-13 2.20257e-13 1.67095e-13 0 0 4.69306e-13 5.77101e-14 3.91049e-14 3.29285e-13 0 0 3.34159e-13 1.10786e-13 3.83612e-13 -1.53989e-14 0 0 3.04339e-13 3.23228e-13 1.18359e-13 1.29529e-13 0 0 3.48559e-13 5.59213e-13 -4.42365e-13 6.79198e-13 0 0 4.51226e-13 1.38049e-13 1.1579e-13 4.60602e-13 0 0 3.59223e-13 -3.9651e-13 1.09631e-12 -1.45091e-13 0 0 -1.59342e-13 2.47955e-13 7.07262e-13 7.09268e-14 0 0 -2.70645e-13 9.66651e-13 -1.35765e-13 5.89856e-13 0 0 2.0605e-13 3.92808e-13 2.00746e-13 4.85327e-13 0 0 3.99783e-13 -8.8863e-14 8.70357e-13 -3.46493e-14 0 0 4.90577e-13 -1.85658e-13 1.01745e-12 -1.79508e-13 0 0 1.96538e-13 2.54012e-13 5.42584e-13 1.7995e-14 0 0 -2.42532e-13 7.94059e-13 1.91635e-13 -3.1242e-14 0 0 -3.24806e-13 9.06559e-13 3.89688e-15 3.62986e-14 0 0 -2.54131e-14 5.55138e-13 9.48175e-14 1.10394e-13 0 0 3.49091e-13 7.45947e-14 3.01581e-13 1.77394e-13 0 0 5.59106e-13 -2.80194e-13 4.44615e-13 2.64906e-13 0 0 5.14939e-13 -3.72485e-13 4.34137e-13 3.54679e-13 0 0 2.86935e-13 -2.31018e-13 2.7679e-13 4.51648e-13 0 0 3.1641e-14 -5.44471e-15 5.35767e-14 5.35841e-13 0 0 -1.1476e-13 1.60034e-13 -1.61983e-13 6.09759e-13 0 0 -1.05281e-13 1.91827e-13 -3.02737e-13 6.59234e-13 0 0 1.52165e-14 1.05148e-13 -3.40084e-13 6.66692e-13 0 0 1.64294e-13 -3.58371e-14 -2.95063e-13 6.40178e-13 0 0 2.69118e-13 -1.64838e-13 -1.99517e-13 5.79474e-13 0 0 2.93745e-13 -2.40788e-13 -7.99386e-14 4.83239e-13 0 0 2.579e-13 -2.69818e-13 5.19909e-14 3.5372e-13 0 0 1.97834e-13 -2.66194e-13 1.73921e-13 2.21914e-13 0 0 1.38613e-13 -2.4106e-13 2.65107e-13 1.13489e-13 0 0 9.29428e-14 -2.06249e-13 3.19583e-13 2.64438e-14 0 0 5.33397e-14 -1.36072e-13 2.91448e-13 -1.07266e-14 0 0 4.16344e-14 -8.25318e-14 2.41547e-13 -3.85351e-14 0 0 3.22241e-14 -6.01483e-14 2.33335e-13 -7.77524e-14 0 0 2.9251e-14 -3.04029e-14 1.74392e-13 -6.00146e-14 0 0 4.19204e-14 -2.07825e-14 9.22426e-14 -2.86103e-14 0 0 3.32679e-14 -1.11138e-14 3.8844e-14 -4.57388e-14 0 0 2.9507e-14 -1.00083e-14 -2.1421e-15 -3.51688e-14 0 0 1.67673e-14 8.71422e-15 -7.01295e-14 1.42988e-14 0 0 1.56453e-14 1.29218e-14 -8.03585e-14 -2.83766e-14 0 0 2.96182e-14 8.2441e-15 -5.3806e-14 -1.06194e-13 0 0 5.07452e-14 -1.06331e-15 -6.40912e-14 -6.9796e-14 0 0 4.49035e-14 -1.74402e-15 -2.23754e-14 -4.65714e-14 0 0 4.2381e-14 4.46697e-14 -3.68534e-14 -3.45371e-14 0 0 1.2442e-13 3.79245e-15 -3.83225e-14 7.17639e-15 0 0 1.57102e-13 -1.86939e-14 6.62183e-14 -5.02739e-14 0 0 1.37306e-13 5.71746e-14 8.93901e-14 -5.95505e-14 0 0 1.14936e-13 2.21733e-13 -7.54215e-14 4.49867e-14 0 0 2.1779e-13 1.84125e-13 -8.28735e-14 7.75314e-14 0 0 4.36875e-13 -1.46389e-13 2.41171e-13 -1.14783e-13 0 0 2.62148e-13 5.25173e-14 1.46021e-13 -5.04644e-14 0 0 1.84029e-13 1.311e-13 9.35097e-14 2.5235e-14 0 0 1.83985e-13 9.29306e-14 1.0249e-13 -2.85089e-15 0 0 2.26394e-13 -1.34439e-14 1.76079e-13 -1.61605e-14 0 0 4.26247e-13 -3.37696e-13 4.69746e-13 -1.17575e-13 0 0 2.48573e-13 -5.11289e-14 1.50948e-13 1.04385e-13 0 0 1.59148e-13 1.23192e-13 -8.65105e-14 2.72543e-13 0 0 1.30287e-13 2.01066e-13 -1.37313e-13 3.13988e-13 0 0 1.69426e-13 1.18966e-13 6.97882e-14 1.22336e-13 0 0 3.56947e-13 -1.96615e-13 4.42655e-13 -8.74643e-14 0 0 1.11383e-13 1.71728e-13 1.4737e-13 1.79585e-13 0 0 1.09817e-13 1.66408e-13 2.68241e-13 8.74879e-14 0 0 2.01602e-13 1.27509e-13 2.65523e-13 1.25568e-13 0 0 -2.79762e-14 5.71853e-13 -2.27437e-13 4.70862e-13 0 0 4.28901e-13 -1.00656e-13 4.17277e-13 2.89709e-14 0 0 6.1898e-13 -3.53071e-13 6.62919e-13 -1.28451e-13 0 0 7.27652e-14 4.75675e-13 -3.95998e-14 3.35528e-13 0 0 7.85439e-14 4.13372e-13 1.22007e-13 2.95144e-13 0 0 1.62903e-13 2.58667e-13 2.03012e-13 3.5844e-13 0 0 4.61064e-13 -2.28487e-13 6.12309e-13 2.59255e-14 0 0 5.94105e-13 -3.68993e-13 6.66296e-13 -1.24479e-13 0 0 4.93765e-14 6.3972e-13 -3.68238e-13 4.91982e-13 0 0 2.7655e-13 3.93098e-13 -4.81682e-14 1.7016e-13 0 0 5.83142e-13 6.18938e-14 1.65016e-13 1.29454e-14 0 0 6.63915e-13 -8.57634e-14 2.1553e-13 7.32086e-14 0 0 4.62487e-13 -2.41764e-14 2.87605e-13 2.52701e-14 0 0 1.1331e-13 3.56483e-13 2.93219e-14 1.57563e-13 0 0 6.45753e-14 3.83499e-13 -4.34672e-14 3.06229e-13 0 0 2.59894e-13 1.17187e-13 -1.45981e-14 3.98004e-13 0 0 6.55426e-13 -5.23465e-13 4.924e-13 9.57305e-14 0 0 2.44669e-13 -7.0874e-14 2.44414e-13 2.21751e-13 0 0 -2.38914e-13 5.22532e-13 -9.19589e-14 4.2456e-13 0 0 -2.53148e-13 4.86127e-13 -4.05751e-15 4.8852e-13 0 0 3.3521e-13 -5.59275e-13 9.67074e-13 9.55789e-14 0 0 6.56464e-13 -1.16046e-12 1.56336e-12 -3.28565e-13 0 0 -4.08134e-14 -6.38071e-14 3.53104e-13 3.58498e-13 0 0 -4.45905e-13 5.84767e-13 -5.39751e-13 9.74351e-13 0 0 -1.37703e-13 1.34382e-13 -2.15934e-13 8.91764e-13 0 0 1.71233e-13 -4.41483e-13 4.9758e-13 4.92917e-13 0 0 1.37931e-13 -5.69852e-13 9.34352e-13 1.00196e-13 0 0 -1.59636e-13 -8.6949e-14 5.70628e-13 1.57217e-13 0 0 -1.93365e-14 -1.4986e-13 5.13336e-13 1.65387e-14 0 0 7.03526e-14 -1.04321e-13 2.58648e-13 1.20544e-13 0 0 -2.65344e-13 3.62882e-13 -2.81299e-13 4.24016e-13 0 0 -8.67734e-14 -1.29066e-13 2.5252e-13 6.9471e-14 0 0 -3.30899e-14 -1.47496e-13 1.66999e-13 1.98275e-13 0 0 2.85844e-13 -5.7183e-13 6.40718e-13 -2.0837e-13 0 0 3.28492e-13 -6.03769e-13 7.77095e-13 -4.45077e-13 0 0 -2.82589e-13 2.65664e-13 -1.18853e-13 2.53084e-13 0 0 -2.16351e-13 -5.0966e-15 9.94274e-14 2.54311e-13 0 0 -2.25952e-13 -5.73278e-14 2.83512e-14 3.93184e-13 0 0 5.16283e-14 -5.48129e-13 3.75708e-13 2.7943e-13 0 0 1.48156e-13 -6.35009e-13 4.11756e-13 4.03538e-13 0 0 -4.12127e-13 3.82858e-13 -4.80176e-13 9.54732e-13 0 0 -2.04265e-13 -2.82702e-14 1.11233e-13 4.67737e-13 0 0 1.10008e-13 -4.52866e-13 5.62952e-13 8.9111e-14 0 0 3.87804e-13 -7.05127e-13 6.15468e-13 8.83135e-14 0 0 2.8984e-13 -5.84625e-13 4.63172e-13 1.48562e-13 0 0 -2.60014e-13 3.15844e-13 -3.32669e-13 4.94872e-13 0 0 -1.72257e-14 1.35282e-14 1.17632e-14 2.98052e-13 0 0 2.25542e-13 -1.29551e-13 8.59216e-14 3.00208e-13 0 0 5.75498e-13 -5.7174e-13 4.8993e-13 -5.72354e-14 0 0 4.06027e-13 -4.18219e-13 3.08587e-13 1.20614e-13 0 0 -3.22894e-13 8.20388e-13 -9.54703e-13 1.04569e-12 0 0 4.17086e-13 -2.72332e-13 2.61306e-13 2.41727e-13 0 0 1.04914e-12 -1.13497e-12 1.03232e-12 -1.87804e-13 0 0 4.23822e-13 -8.85955e-14 -3.7106e-14 3.82652e-13 0 0 -3.09578e-13 8.53194e-13 -8.00688e-13 6.80268e-13 0 0 -3.07444e-13 8.38737e-13 -7.87997e-13 6.20061e-13 0 0 9.44032e-13 -1.06801e-12 1.0906e-12 -4.73241e-13 0 0 1.08011e-12 -1.04043e-12 1.05589e-12 -4.24312e-13 0 0 -1.86724e-13 1.18767e-12 -1.0459e-12 6.17803e-13 0 0 -6.38146e-13 1.87239e-12 -1.56791e-12 7.36897e-13 0
				</DataArray>
				<DataArray Name="VitesseY" type="Float32" format="ascii">