<?xml version="1.0"?>
<VTKFile type="PolyData">
	<PolyData>
		<Piece NumberOfPoints="1206" NumberOfPolys="1000">
			<Points>
				<DataArray type="Float32" NumberOfComponents="3" format="ascii">
 0 0 0 0.02 0 0 0.04 0 0 0.06 0 0 0.08 0 0 0.1 0 0 0 0.005 0 0.02 0.005 0 0.04 0.005 0 0.06 0.005 0 0.08 0.005 0 0.1 0.005 0 0 0.01 0 0.02 0.01 0 0.04 0.01 0 0.06 0.01 0 0.08 0.01 0 0.1 0.01 0 0 0.015 0 0.02 0.015 0 0.04 0.015 0 0.06 0.015 0 0.08 0.015 0 0.1 0.015 0 0 0.02 0 0.02 0.02 0 0.04 0.02 0 0.06 0.02 0 0.08 0.02 0 0.1 0.02 0 0 0.025 0 0.02 0.025 0 0.04 0.025 0 0.06 0.025 0 0.08 0.025 0 0.1 0.025 0 0 0.03 0 0.02 0.03 0 0.04 0.03 0 0.06 0.03 0 0.08 0.03 0 0.1 0.03 0 0 0.035 0 0.02 0.035 0 0.04 0.035 0 0.06 0.035 0 0.08 0.035 0 0.1 0.035 0 0 0.04 0 0.02 0.04 0 0.04 0.04 0 0.06 0.04 0 0.08 0.04 0 0.1 0.04 0 0 0.045 0 0.02 0.045 0 0.04 0.045 0 0.06 0.045 0 0.08 0.045 0 0.1 0.045 0 0 0.05 0 0.02 0.05 0 0.04 0.05 0 0.06 0.05 0 0.08 0.05 0 0.1 0.05 0 0 0.055 0 0.02 0.055 0 0.04 0.055 0 0.06 0.055 0 0.08 0.055 0 0.1 0.055 0 0 0.06 0 0.02 0.06 0 0.04 0.06 0 0.06 0.06 0 0.08 0.06 0 0.1 0.06 0 0 0.065 0 0.02 0.065 0 0.04 0.065 0 0.06 0.065 0 0.08 0.065 0 0.1 0.065 0 0 0.07 0 0.02 0.07 0 0.04 0.07 0 0.06 0.07 0 0.08 0.07 0 0.1 0.07 0 0 0.075 0 0.02 0.075 0 0.04 0.075 0 0.06 0.075 0 0.08 0.075 0 0.1 0.075 0 0 0.08 0 0.02 0.08 0 0.04 0.08 0 0.06 0.08 0 0.08 0.08 0 0.1 0.08 0 0 0.085 0 0.02 0.085 0 0.04 0.085 0 0.06 0.085 0 0.08 0.085 0 0.1 0.085 0 0 0.09 0 0.02 0.09 0 0.04 0.09 0 0.06 0.09 0 0.08 0.09 0 0.1 0.09 0 0 0.095 0 0.02 0.095 0 0.04 0.095 0 0.06 0.095 0 0.08 0.095 0 0.1 0.095 0 0 0.1 0 0.02 0.1 0 0.04 0.1 0 0.06 0.1 0 0.08 0.1 0 0.1 0.1 0 0 0.105 0 0.02 0.105 0 0.04 0.105 0 0.06 0.105 0 0.08 0.105 0 0.1 0.105 0 0 0.11 0 0.02 0.11 0 0.04 0.11 0 0.06 0.11 0 0.08 0.11 0 0.1 0.11 0 0 0.115 0 0.02 0.115 0 0.04 0.115 0 0.06 0.115 0 0.08 0.115 0 0.1 0.115 0 0 0.12 0 0.02 0.12 0 0.04 0.12 0 0.06 0.12 0 0.08 0.12 0 0.1 0.12 0 0 0.125 0 0.02 0.125 0 0.04 0.125 0 0.06 0.125 0 0.08 0.125 0 0.1 0.125 0 0 0.13 0 0.02 0.13 0 0.04 0.13 0 0.06 0.13 0 0.08 0.13 0 0.1 0.13 0 0 0.135 0 0.02 0.135 0 0.04 0.135 0 0.06 0.135 0 0.08 0.135 0 0.1 0.135 0 0 0.14 0 0.02 0.14 0 0.04 0.14 0 0.06 0.14 0 0.08 0.14 0 0.1 0.14 0 0 0.145 0 0.02 0.145 0 0.04 0.145 0 0.06 0.145 0 0.08 0.145 0 0.1 0.145 0 0 0.15 0 0.02 0.15 0 0.04 0.15 0 0.06 0.15 0 0.08 0.15 0 0.1 0.15 0 0 0.155 0 0.02 0.155 0 0.04 0.155 0 0.06 0.155 0 0.08 0.155 0 0.1 0.155 0 0 0.16 0 0.02 0.16 0 0.04 0.16 0 0.06 0.16 0 0.08 0.16 0 0.1 0.16 0 0 0.165 0 0.02 0.165 0 0.04 0.165 0 0.06 0.165 0 0.08 0.165 0 0.1 0.165 0 0 0.17 0 0.02 0.17 0 0.04 0.17 0 0.06 0.17 0 0.08 0.17 0 0.1 0.17 0 0 0.175 0 0.02 0.175 0 0.04 0.175 0 0.06 0.175 0 0.08 0.175 0 0.1 0.175 0 0 0.18 0 0.02 0.18 0 0.04 0.18 0 0.06 0.18 0 0.08 0.18 0 0.1 0.18 0 0 0.185 0 0.02 0.185 0 0.04 0.185 0 0.06 0.185 0 0.08 0.185 0 0.1 0.185 0 0 0.19 0 0.02 0.19 0 0.04 0.19 0 0.06 0.19 0 0.08 0.19 0 0.1 0.19 0 0 0.195 0 0.02 0.195 0 0.04 0.195 0 0.06 0.195 0 0.08 0.195 0 0.1 0.195 0 0 0.2 0 0.02 0.2 0 0.04 0.2 0 0.06 0.2 0 0.08 0.2 0 0.1 0.2 0 0 0.205 0 0.02 0.205 0 0.04 0.205 0 0.06 0.205 0 0.08 0.205 0 0.1 0.205 0 0 0.21 0 0.02 0.21 0 0.04 0.21 0 0.06 0.21 0 0.08 0.21 0 0.1 0.21 0 0 0.215 0 0.02 0.215 0 0.04 0.215 0 0.06 0.215 0 0.08 0.215 0 0.1 0.215 0 0 0.22 0 0.02 0.22 0 0.04 0.22 0 0.06 0.22 0 0.08 0.22 0 0.1 0.22 0 0 0.225 0 0.02 0.225 0 0.04 0.225 0 0.06 0.225 0 0.08 0.225 0 0.1 0.225 0 0 0.23 0 0.02 0.23 0 0.04 0.23 0 0.06 0.23 0 0.08 0.23 0 0.1 0.23 0 0 0.235 0 0.02 0.235 0 0.04 0.235 0 0.06 0.235 0 0.08 0.235 0 0.1 0.235 0 0 0.24 0 0.02 0.24 0 0.04 0.24 0 0.06 0.24 0 0.08 0.24 0 0.1 0.24 0 0 0.245 0 0.02 0.245 0 0.04 0.245 0 0.06 0.245 0 0.08 0.245 0 0.1 0.245 0 0 0.25 0 0.02 0.25 0 0.04 0.25 0 0.06 0.25 0 0.08 0.25 0 0.1 0.25 0 0 0.255 0 0.02 0.255 0 0.04 0.255 0 0.06 0.255 0 0.08 0.255 0 0.1 0.255 0 0 0.26 0 0.02 0.26 0 0.04 0.26 0 0.06 0.26 0 0.08 0.26 0 0.1 0.26 0 0 0.265 0 0.02 0.265 0 0.04 0.265 0 0.06 0.265 0 0.08 0.265 0 0.1 0.265 0 0 0.27 0 0.02 0.27 0 0.04 0.27 0 0.06 0.27 0 0.08 0.27 0 0.1 0.27 0 0 0.275 0 0.02 0.275 0 0.04 0.275 0 0.06 0.275 0 0.08 0.275 0 0.1 0.275 0 0 0.28 0 0.02 0.28 0 0.04 0.28 0 0.06 0.28 0 0.08 0.28 0 0.1 0.28 0 0 0.285 0 0.02 0.285 0 0.04 0.285 0 0.06 0.285 0 0.08 0.285 0 0.1 0.285 0 0 0.29 0 0.02 0.29 0 0.04 0.29 0 0.06 0.29 0 0.08 0.29 0 0.1 0.29 0 0 0.295 0 0.02 0.295 0 0.04 0.295 0 0.06 0.295 0 0.08 0.295 0 0.1 0.295 0 0 0.3 0 0.02 0.3 0 0.04 0.3 0 0.06 0.3 0 0.08 0.3 0 0.1 0.3 0 0 0.305 0 0.02 0.305 0 0.04 0.305 0 0.06 0.305 0 0.08 0.305 0 0.1 0.305 0 0 0.31 0 0.02 0.31 0 0.04 0.31 0 0.06 0.31 0 0.08 0.31 0 0.1 0.31 0 0 0.315 0 0.02 0.315 0 0.04 0.315 0 0.06 0.315 0 0.08 0.315 0 0.1 0.315 0 0 0.32 0 0.02 0.32 0 0.04 0.32 0 0.06 0.32 0 0.08 0.32 0 0.1 0.32 0 0 0.325 0 0.02 0.325 0 0.04 0.325 0 0.06 0.325 0 0.08 0.325 0 0.1 0.325 0 0 0.33 0 0.02 0.33 0 0.04 0.33 0 0.06 0.33 0 0.08 0.33 0 0.1 0.33 0 0 0.335 0 0.02 0.335 0 0.04 0.335 0 0.06 0.335 0 0.08 0.335 0 0.1 0.335 0 0 0.34 0 0.02 0.34 0 0.04 0.34 0 0.06 0.34 0 0.08 0.34 0 0.1 0.34 0 0 0.345 0 0.02 0.345 0 0.04 0.345 0 0.06 0.345 0 0.08 0.345 0 0.1 0.345 0 0 0.35 0 0.02 0.35 0 0.04 0.35 0 0.06 0.35 0 0.08 0.35 0 0.1 0.35 0 0 0.355 0 0.02 0.355 0 0.04 0.355 0 0.06 0.355 0 0.08 0.355 0 0.1 0.355 0 0 0.36 0 0.02 0.36 0 0.04 0.36 0 0.06 0.36 0 0.08 0.36 0 0.1 0.36 0 0 0.365 0 0.02 0.365 0 0.04 0.365 0 0.06 0.365 0 0.08 0.365 0 0.1 0.365 0 0 0.37 0 0.02 0.37 0 0.04 0.37 0 0.06 0.37 0 0.08 0.37 0 0.1 0.37 0 0 0.375 0 0.02 0.375 0 0.04 0.375 0 0.06 0.375 0 0.08 0.375 0 0.1 0.375 0 0 0.38 0 0.02 0.38 0 0.04 0.38 0 0.06 0.38 0 0.08 0.38 0 0.1 0.38 0 0 0.385 0 0.02 0.385 0 0.04 0.385 0 0.06 0.385 0 0.08 0.385 0 0.1 0.385 0 0 0.39 0 0.02 0.39 0 0.04 0.39 0 0.06 0.39 0 0.08 0.39 0 0.1 0.39 0 0 0.395 0 0.02 0.395 0 0.04 0.395 0 0.06 0.395 0 0.08 0.395 0 0.1 0.395 0 0 0.4 0 0.02 0.4 0 0.04 0.4 0 0.06 0.4 0 0.08 0.4 0 0.1 0.4 0 0 0.405 0 0.02 0.405 0 0.04 0.405 0 0.06 0.405 0 0.08 0.405 0 0.1 0.405 0 0 0.41 0 0.02 0.41 0 0.04 0.41 0 0.06 0.41 0 0.08 0.41 0 0.1 0.41 0 0 0.415 0 0.02 0.415 0 0.04 0.415 0 0.06 0.415 0 0.08 0.415 0 0.1 0.415 0 0 0.42 0 0.02 0.42 0 0.04 0.42 0 0.06 0.42 0 0.08 0.42 0 0.1 0.42 0 0 0.425 0 0.02 0.425 0 0.04 0.425 0 0.06 0.425 0 0.08 0.425 0 0.1 0.425 0 0 0.43 0 0.02 0.43 0 0.04 0.43 0 0.06 0.43 0 0.08 0.43 0 0.1 0.43 0 0 0.435 0 0.02 0.435 0 0.04 0.435 0 0.06 0.435 0 0.08 0.435 0 0.1 0.435 0 0 0.44 0 0.02 0.44 0 0.04 0.44 0 0.06 0.44 0 0.08 0.44 0 0.1 0.44 0 0 0.445 0 0.02 0.445 0 0.04 0.445 0 0.06 0.445 0 0.08 0.445 0 0.1 0.445 0 0 0.45 0 0.02 0.45 0 0.04 0.45 0 0.06 0.45 0 0.08 0.45 0 0.1 0.45 0 0 0.455 0 0.02 0.455 0 0.04 0.455 0 0.06 0.455 0 0.08 0.455 0 0.1 0.455 0 0 0.46 0 0.02 0.46 0 0.04 0.46 0 0.06 0.46 0 0.08 0.46 0 0.1 0.46 0 0 0.465 0 0.02 0.465 0 0.04 0.465 0 0.06 0.465 0 0.08 0.465 0 0.1 0.465 0 0 0.47 0 0.02 0.47 0 0.04 0.47 0 0.06 0.47 0 0.08 0.47 0 0.1 0.47 0 0 0.475 0 0.02 0.475 0 0.04 0.475 0 0.06 0.475 0 0.08 0.475 0 0.1 0.475 0 0 0.48 0 0.02 0.48 0 0.04 0.48 0 0.06 0.48 0 0.08 0.48 0 0.1 0.48 0 0 0.485 0 0.02 0.485 0 0.04 0.485 0 0.06 0.485 0 0.08 0.485 0 0.1 0.485 0 0 0.49 0 0.02 0.49 0 0.04 0.49 0 0.06 0.49 0 0.08 0.49 0 0.1 0.49 0 0 0.495 0 0.02 0.495 0 0.04 0.495 0 0.06 0.495 0 0.08 0.495 0 0.1 0.495 0 0 0.5 0 0.02 0.5 0 0.04 0.5 0 0.06 0.5 0 0.08 0.5 0 0.1 0.5 0 0 0.505 0 0.02 0.505 0 0.04 0.505 0 0.06 0.505 0 0.08 0.505 0 0.1 0.505 0 0 0.51 0 0.02 0.51 0 0.04 0.51 0 0.06 0.51 0 0.08 0.51 0 0.1 0.51 0 0 0.515 0 0.02 0.515 0 0.04 0.515 0 0.06 0.515 0 0.08 0.515 0 0.1 0.515 0 0 0.52 0 0.02 0.52 0 0.04 0.52 0 0.06 0.52 0 0.08 0.52 0 0.1 0.52 0 0 0.525 0 0.02 0.525 0 0.04 0.525 0 0.06 0.525 0 0.08 0.525 0 0.1 0.525 0 0 0.53 0 0.02 0.53 0 0.04 0.53 0 0.06 0.53 0 0.08 0.53 0 0.1 0.53 0 0 0.535 0 0.02 0.535 0 0.04 0.535 0 0.06 0.535 0 0.08 0.535 0 0.1 0.535 0 0 0.54 0 0.02 0.54 0 0.04 0.54 0 0.06 0.54 0 0.08 0.54 0 0.1 0.54 0 0 0.545 0 0.02 0.545 0 0.04 0.545 0 0.06 0.545 0 0.08 0.545 0 0.1 0.545 0 0 0.55 0 0.02 0.55 0 0.04 0.55 0 0.06 0.55 0 0.08 0.55 0 0.1 0.55 0 0 0.555 0 0.02 0.555 0 0.04 0.555 0 0.06 0.555 0 0.08 0.555 0 0.1 0.555 0 0 0.56 0 0.02 0.56 0 0.04 0.56 0 0.06 0.56 0 0.08 0.56 0 0.1 0.56 0 0 0.565 0 0.02 0.565 0 0.04 0.565 0 0.06 0.565 0 0.08 0.565 0 0.1 0.565 0 0 0.57 0 0.02 0.57 0 0.04 0.57 0 0.06 0.57 0 0.08 0.57 0 0.1 0.57 0 0 0.575 0 0.02 0.575 0 0.04 0.575 0 0.06 0.575 0 0.08 0.575 0 0.1 0.575 0 0 0.58 0 0.02 0.58 0 0.04 0.58 0 0.06 0.58 0 0.08 0.58 0 0.1 0.58 0 0 0.585 0 0.02 0.585 0 0.04 0.585 0 0.06 0.585 0 0.08 0.585 0 0.1 0.585 0 0 0.59 0 0.02 0.59 0 0.04 0.59 0 0.06 0.59 0 0.08 0.59 0 0.1 0.59 0 0 0.595 0 0.02 0.595 0 0.04 0.595 0 0.06 0.595 0 0.08 0.595 0 0.1 0.595 0 0 0.6 0 0.02 0.6 0 0.04 0.6 0 0.06 0.6 0 0.08 0.6 0 0.1 0.6 0 0 0.605 0 0.02 0.605 0 0.04 0.605 0 0.06 0.605 0 0.08 0.605 0 0.1 0.605 0 0 0.61 0 0.02 0.61 0 0.04 0.61 0 0.06 0.61 0 0.08 0.61 0 0.1 0.61 0 0 0.615 0 0.02 0.615 0 0.04 0.615 0 0.06 0.615 0 0.08 0.615 0 0.1 0.615 0 0 0.62 0 0.02 0.62 0 0.04 0.62 0 0.06 0.62 0 0.08 0.62 0 0.1 0.62 0 0 0.625 0 0.02 0.625 0 0.04 0.625 0 0.06 0.625 0 0.08 0.625 0 0.1 0.625 0 0 0.63 0 0.02 0.63 0 0.04 0.63 0 0.06 0.63 0 0.08 0.63 0 0.1 0.63 0 0 0.635 0 0.02 0.635 0 0.04 0.635 0 0.06 0.635 0 0.08 0.635 0 0.1 0.635 0 0 0.64 0 0.02 0.64 0 0.04 0.64 0 0.06 0.64 0 0.08 0.64 0 0.1 0.64 0 0 0.645 0 0.02 0.645 0 0.04 0.645 0 0.06 0.645 0 0.08 0.645 0 0.1 0.645 0 0 0.65 0 0.02 0.65 0 0.04 0.65 0 0.06 0.65 0 0.08 0.65 0 0.1 0.65 0 0 0.655 0 0.02 0.655 0 0.04 0.655 0 0.06 0.655 0 0.08 0.655 0 0.1 0.655 0 0 0.66 0 0.02 0.66 0 0.04 0.66 0 0.06 0.66 0 0.08 0.66 0 0.1 0.66 0 0 0.665 0 0.02 0.665 0 0.04 0.665 0 0.06 0.665 0 0.08 0.665 0 0.1 0.665 0 0 0.67 0 0.02 0.67 0 0.04 0.67 0 0.06 0.67 0 0.08 0.67 0 0.1 0.67 0 0 0.675 0 0.02 0.675 0 0.04 0.675 0 0.06 0.675 0 0.08 0.675 0 0.1 0.675 0 0 0.68 0 0.02 0.68 0 0.04 0.68 0 0.06 0.68 0 0.08 0.68 0 0.1 0.68 0 0 0.685 0 0.02 0.685 0 0.04 0.685 0 0.06 0.685 0 0.08 0.685 0 0.1 0.685 0 0 0.69 0 0.02 0.69 0 0.04 0.69 0 0.06 0.69 0 0.08 0.69 0 0.1 
[...]
			<PointData Scalars="VitesseX">
				<DataArray Name="VitesseX" type="Float32" format="ascii">
 0 3.71765e-14 1.06959e-14 1.02241e-14 4.61334e-14 0 0 2.5382e-14 2.4234e-14 6.70496e-15 3.99707e-14 0 0 2.17734e-14 2.20804e-14 2.74122e-14 1.07671e-14 0 0 4.11514e-15 4.57961e-14 1.97621e-14 2.00884e-15 0 0 3.0513e-16 5.97666e-14 1.9823e-15 1.14257e-14 0 0 4.14087e-14 1.48153e-14 2.82346e-14 -3.77353e-15 0 0 5.74391e-14 3.35275e-15 3.3585e-14 -1.8049e-14 0 0 4.9084e-14 1.67305e-14 2.14818e-14 -1.92875e-14 0 0 4.18226e-14 3.14183e-14 -3.01513e-15 -1.36227e-15 0 0 3.22442e-14 4.3868e-14 -2.60634e-14 2.5492e-14 0 0 1.15439e-14 7.70517e-14 -5.72478e-14 4.81559e-14 0 0 3.21365e-14 4.83511e-14 -4.93531e-15 2.36836e-15 0 0 1.87442e-14 6.51979e-14 1.22053e-14 -1.73182e-14 0 0 2.6162e-14 6.16917e-14 2.3493e-14 -1.01176e-14 0 0 4.73896e-14 3.11721e-14 4.85991e-14 -3.39903e-15 0 0 5.42285e-15 8.60333e-14 3.38976e-15 1.96581e-14 0 0 2.79946e-14 4.43048e-14 5.49437e-14 -2.08276e-14 0 0 1.58483e-14 6.24151e-14 2.41448e-14 1.27974e-14 0 0 1.53601e-14 4.30626e-14 4.31674e-14 1.33138e-14 0 0 5.18266e-14 -1.45716e-14 9.39674e-14 -7.39256e-15 0 0 4.72966e-14 2.07689e-14 2.98869e-14 5.16621e-14 0 0 4.87545e-14 4.16215e-14 1.3921e-14 7.39081e-14 0 0 7.07125e-14 4.48717e-14 2.02863e-14 8.85373e-14 0 0 7.70171e-14 4.83425e-14 4.59526e-14 7.89516e-14 0 0 4.83383e-14 9.14368e-14 5.58475e-14 4.81331e-14 0 0 5.26004e-14 1.04406e-13 4.14011e-14 4.42606e-14 0 0 8.50477e-14 6.30932e-14 6.50924e-14 2.41715e-14 0 0 7.39701e-14 1.04945e-13 1.09383e-14 4.66801e-14 0 0 7.42198e-14 9.89583e-14 2.48765e-14 2.86181e-14 0 0 8.83492e-14 4.11986e-14 1.00312e-13 -3.83764e-14 0 0 1.02746e-13 9.76598e-15 1.35787e-13 -9.75385e-14 0 0 7.00217e-14 7.42579e-14 5.22378e-14 -5.01696e-14 0 0 5.82559e-14 9.37236e-14 -8.28836e-15 2.6173e-14 0 0 1.15593e-13 -2.11203e-14 6.27963e-14 2.84418e-14 0 0 7.50072e-14 6.04546e-14 -7.6737e-14 1.24606e-13 0 0 1.0572e-13 2.85379e-16 1.37499e-14 1.2904e-14 0 0 8.63555e-14 2.62182e-14 2.78264e-14 -1.85764e-14 0 0 3.56221e-14 1.30931e-13 -7.87532e-14 5.08653e-14 0 0 9.37947e-15 1.62908e-13 -8.11911e-14 2.2875e-14 0 0 8.10184e-14 7.39342e-14 -2.43859e-14 8.81037e-15 0 0 2.0318e-13 -7.40741e-14 9.50733e-14 -3.85153e-14 0 0 1.44876e-13 9.53361e-14 -7.5457e-14 6.24852e-14 0 0 2.27823e-13 3.36798e-14 -4.68022e-14 7.91506e-14 0 0 2.92681e-13 -3.80701e-14 4.78613e-14 9.04173e-15 0 0 2.08159e-13 6.3476e-14 2.28488e-14 -2.51733e-14 0 0 1.56729e-13 1.09759e-13 -3.40938e-14 5.46648e-14 0 0 1.01377e-13 2.18316e-13 -1.95327e-13 2.1831e-13 0 0 1.46554e-13 1.29661e-13 -9.7797e-14 1.87031e-13 0 0 2.13717e-13 -3.58217e-14 6.8651e-14 1.72399e-13 0 0 2.83008e-13 -2.19631e-13 2.72657e-13 9.88497e-14 0 0 2.98976e-13 -2.93131e-13 3.70026e-13 2.09069e-14 0 0 1.81311e-13 -8.58179e-14 1.21174e-13 1.99238e-13 0 0 2.15915e-13 -1.06439e-13 1.02759e-13 2.23143e-13 0 0 1.59632e-13 -2.39676e-14 2.13156e-14 2.31777e-13 0 0 9.28043e-14 6.72269e-14 -1.02328e-13 2.92758e-13 0 0 1.85473e-13 -9.84633e-14 4.7309e-14 2.16968e-13 0 0 8.00636e-14 7.70556e-14 -1.0825e-13 3.04788e-13 0 0 1.65288e-13 -3.23611e-14 -5.15473e-16 2.12385e-13 0 0 2.18145e-13 -1.20014e-13 1.34069e-13 9.59473e-14 0 0 1.2649e-13 -1.57599e-14 8.22939e-14 1.20922e-13 0 0 1.17322e-13 -1.31601e-14 9.11656e-14 1.18894e-13 0 0 9.32629e-14 1.01752e-13 -1.98931e-14 1.43006e-13 0 0 2.03275e-13 -5.71532e-15 8.84942e-14 -3.23659e-14 0 0 1.89338e-13 -1.80727e-15 1.58439e-13 -1.94858e-13 0 0 1.58433e-13 2.11857e-14 1.91713e-13 -2.68536e-13 0 0 1.99821e-13 -3.51039e-15 1.36086e-13 -1.9884e-13 0 0 1.44165e-13 1.56643e-13 -1.4593e-13 4.74765e-14 0 0 1.94395e-13 8.13745e-14 -7.62142e-14 1.38419e-14 0 0 2.59078e-13 -2.61505e-14 6.72864e-14 -5.79969e-14 0 0 2.13392e-13 6.8435e-14 -4.14696e-14 9.64727e-14 0 0 2.70284e-13 -1.33042e-14 -1.8244e-15 1.93843e-13 0 0 2.45455e-13 8.08277e-14 -1.04957e-13 3.34504e-13 0 0 3.45425e-13 1.18471e-14 5.28246e-14 2.13911e-13 0 0 2.49634e-13 1.78899e-13 -4.94332e-14 2.42119e-13 0 0 3.11364e-13 1.05804e-13 1.39529e-14 2.16776e-13 0 0 3.47394e-13 -1.54684e-14 1.96638e-13 1.88078e-13 0 0 1.88112e-14 3.40604e-13 -7.17469e-14 4.86055e-13 0 0 3.07832e-13 -9.20191e-14 3.38054e-13 3.35497e-13 0 0 2.70064e-13 8.25012e-14 2.21345e-13 3.55016e-13 0 0 3.54849e-13 -2.29434e-14 4.22314e-13 6.62549e-14 0 0 3.30685e-13 1.97479e-13 1.52003e-13 1.53137e-13 0 0 -5.13908e-14 8.09921e-13 -3.38989e-13 4.31035e-13 0 0 2.29622e-13 5.52638e-14 7.73153e-13 -3.15535e-13 0 0 6.40337e-14 3.50472e-13 5.40259e-13 -4.91656e-14 0 0 -1.46023e-13 1.14565e-12 -2.97546e-13 5.52877e-13 0 0 3.63195e-13 5.83684e-13 3.05397e-13 1.40232e-13 0 0 7.23468e-13 5.34696e-14 7.24682e-13 -2.2147e-14 0 0 5.65764e-13 4.52873e-13 3.65037e-13 1.41182e-13 0 0 3.62139e-13 6.28032e-13 4.6145e-13 -1.28624e-13 0 0 1.34758e-13 6.50582e-13 7.23165e-13 -4.39506e-13 0 0 -4.65572e-14 7.60914e-13 6.39843e-13 -3.54092e-13 0 0 7.32708e-14 6.28552e-13 5.3214e-13 -1.16949e-13 0 0 2.48158e-13 4.87875e-13 4.28599e-13 5.30605e-14 0 0 3.44163e-13 4.32501e-13 3.14216e-13 1.30352e-13 0 0 3.92356e-13 3.80597e-13 2.37297e-13 1.5234e-13 0 0 4.40195e-13 2.87268e-13 2.13601e-13 1.65092e-13 0 0 4.94489e-13 1.67225e-13 2.29574e-13 1.91991e-13 0 0 5.16765e-13 6.59661e-14 2.35149e-13 2.63927e-13 0 0 4.77688e-13 1.27835e-14 2.03466e-13 3.7089e-13 0 0 3.73858e-13 1.14716e-14 1.51541e-13 4.65854e-13 0 0 2.30631e-13 4.4411e-14 1.05312e-13 5.09823e-13 0 0 1.02851e-13 6.92578e-14 8.95487e-14 4.91449e-13 0 0 3.46832e-14 6.09827e-14 9.55226e-14 4.41731e-13 0 0 3.98599e-14 1.57978e-14 1.08476e-13 3.98231e-13 0 0 9.82152e-14 -5.07586e-14 1.28389e-13 3.64854e-13 0 0 1.77188e-13 -1.25944e-13 1.60336e-13 3.38056e-13 0 0 2.43075e-13 -1.9476e-13 1.99853e-13 3.22375e-13 0 0 2.74255e-13 -2.46017e-13 2.51309e-13 3.0597e-13 0 0 2.7031e-13 -2.74167e-13 3.0798e-13 2.8685e-13 0 0 2.35036e-13 -2.63425e-13 3.41975e-13 2.81608e-13 0 0 1.6621e-13 -1.87475e-13 3.19576e-13 2.86763e-13 0 0 1.0057e-13 -1.08882e-13 2.8464e-13 2.82668e-13 0 0 6.70337e-14 -7.76676e-14 3.13764e-13 2.42259e-13 0 0 4.276e-14 -2.2726e-14 2.9155e-13 2.11961e-13 0 0 4.313e-14 4.10911e-14 1.7803e-13 2.49528e-13 0 0 5.20166e-14 1.04983e-13 7.26296e-14 2.77691e-13 0 0 5.98082e-14 1.30271e-13 3.06412e-14 2.62517e-13 0 0 7.68947e-14 1.01064e-13 6.70793e-14 2.02693e-13 0 0 8.50624e-14 9.33133e-14 1.0256e-13 1.01592e-13 0 0 7.77318e-14 1.28526e-13 4.00452e-14 8.35483e-14 0 0 8.17329e-14 1.56276e-13 -1.49962e-14 6.85316e-14 0 0 1.16737e-13 8.81364e-14 4.12797e-14 2.6918e-14 0 0 1.14446e-13 7.77106e-14 5.34568e-14 -2.60269e-14 0 0 1.08819e-13 9.79205e-14 8.0043e-14 -1.09369e-13 0 0 9.31018e-14 1.17261e-13 7.92487e-14 -6.89087e-14 0 0 7.40206e-14 1.75313e-13 2.70445e-14 9.14793e-15 0 0 1.11982e-13 1.24326e-13 1.02919e-13 -2.43362e-14 0 0 1.75741e-13 3.40031e-14 2.25157e-13 -9.02679e-14 0 0 2.22641e-13 -5.91653e-15 3.48158e-13 -1.30608e-13 0 0 1.28423e-13 1.82245e-13 2.21322e-13 7.3425e-15 0 0 1.15554e-13 2.38982e-13 1.82813e-13 6.376e-14 0 0 2.62273e-13 7.13696e-14 3.32305e-13 -5.78161e-14 0 0 2.76257e-13 1.11071e-13 2.7436e-13 1.47393e-14 0 0 2.11194e-13 2.43464e-13 2.01425e-13 1.01573e-13 0 0 1.43756e-13 3.9372e-13 1.34804e-13 1.37673e-13 0 0 1.2978e-13 4.25812e-13 1.89633e-13 9.23387e-14 0 0 2.5751e-13 2.22321e-13 4.25482e-13 -2.84342e-14 0 0 2.29757e-13 3.06344e-13 3.0647e-13 9.73156e-14 0 0 2.33864e-13 3.47715e-13 2.40617e-13 1.84342e-13 0 0 3.40196e-13 2.41121e-13 3.13503e-13 1.96404e-13 0 0 2.71e-13 4.2242e-13 1.07706e-13 3.15724e-13 0 0 3.25708e-13 4.09738e-13 9.06301e-14 3.54404e-13 0 0 4.13798e-13 3.08382e-13 2.09822e-13 3.20271e-13 0 0 4.31135e-13 2.77177e-13 3.38172e-13 2.21115e-13 0 0 3.7322e-13 3.71889e-13 2.27587e-13 3.29036e-13 0 0 1.99821e-13 6.82677e-13 -1.7122e-13 5.44211e-13 0 0 4.15648e-13 3.3976e-13 1.516e-13 2.39856e-13 0 0 5.72443e-13 4.27059e-14 4.0601e-13 1.08963e-13 0 0 4.68105e-13 1.8379e-13 2.10256e-13 2.71049e-13 0 0 3.93973e-13 3.48499e-13 -5.9749e-14 5.05003e-13 0 0 2.98602e-13 5.95584e-13 -4.23597e-13 8.0563e-13 0 0 5.97276e-13 1.61287e-13 3.57906e-14 3.81543e-13 0 0 6.52807e-13 9.14494e-14 2.61779e-13 -1.10713e-14 0 0 4.18866e-13 3.39223e-13 2.57649e-13 -1.01989e-13 0 0 2.13097e-13 4.9421e-13 2.78345e-13 -2.09812e-13 0 0 2.8303e-13 4.89066e-13 7.44705e-14 -4.923e-14 0 0 6.09793e-13 1.7986e-14 4.06341e-13 1.8509e-14 0 0 6.03971e-13 -1.21092e-13 6.23478e-13 1.85369e-13 0 0 2.39891e-13 2.58786e-13 2.96284e-13 6.02857e-13 0 0 -2.63914e-13 8.35169e-13 -9.02691e-15 6.7728e-13 0 0 -5.76718e-14 5.14868e-13 3.31352e-13 5.13947e-13 0 0 5.64809e-13 -3.10646e-13 9.91092e-13 2.14245e-13 0 0 6.85485e-13 -5.38267e-13 1.22413e-12 1.51136e-14 0 0 3.52994e-13 -8.10337e-14 7.43523e-13 2.88065e-13 0 0 -2.17172e-13 7.41668e-13 7.24304e-14 4.63674e-13 0 0 -3.6386e-13 8.72188e-13 5.60557e-14 2.7189e-13 0 0 1.43749e-13 9.26615e-14 6.43875e-13 6.06265e-14 0 0 3.90708e-13 -2.49973e-13 8.45189e-13 6.26869e-14 0 0 3.43368e-13 -1.68948e-13 7.83131e-13 8.19462e-14 0 0 1.93003e-13 8.04626e-15 7.92917e-13 1.92257e-16 0 0 -7.45641e-14 3.49788e-13 7.01476e-13 -9.67113e-14 0 0 -5.72814e-14 3.61848e-13 6.39707e-13 -5.61277e-14 0 0 3.42352e-14 4.14547e-13 2.67583e-13 2.61958e-13 0 0 2.26068e-13 1.43405e-13 3.28547e-13 3.22986e-13 0 0 3.48243e-13 -2.09053e-13 5.76119e-13 2.74623e-13 0 0 1.50908e-13 -3.47963e-14 4.82939e-13 2.65241e-13 0 0 -1.39569e-13 3.41233e-13 3.03499e-13 2.57952e-13 0 0 -3.44861e-13 6.15641e-13 4.89566e-14 4.00884e-13 0 0 1.16545e-13 -3.52246e-14 5.31351e-13 1.77514e-13 0 0 5.3434e-13 -4.13738e-13 5.49479e-13 3.71838e-13 0 0 2.89208e-13 -1.17161e-14 5.62754e-14 7.55339e-13 0 0 -1.01932e-13 2.7949e-13 1.32705e-13 6.15667e-13 0 0 -2.04457e-13 3.90398e-13 1.70209e-13 5.77131e-13 0 0 2.84013e-13 -1.7562e-13 6.12443e-13 3.36281e-13 0 0 5.21082e-13 -3.35312e-13 7.28402e-13 1.96544e-13 0 0 3.05931e-13 1.3696e-13 2.35892e-13 3.9122e-13 0 0 1.31003e-13 3.42642e-13 1.62884e-13 3.07656e-13 0 0 1.95789e-13 2.63708e-13 1.2617e-13 3.57205e-13 0 0 3.74159e-13 5.52123e-14 1.93178e-13 4.20841e-13 0 0 6.42418e-13 -3.12069e-13 6.30394e-13 1.24074e-13 0 0 6.46838e-13 -6.15788e-14 1.73407e-13 4.01993e-13 0 0 5.0712e-13 2.67184e-13 -4.19088e-13 9.36666e-13 0 0 6.8905e-13 -7.6282e-14 -1.4582e-14 6.4994e-13 0 0 6.62845e-13 -1.41693e-13 1.54513e-13 4.24279e-13 0 0 4.31609e-13 1.6869e-13 -1.70125e-13 6.68667e-13 0 0 9.88888e-14 8.04168e-13 -7.00573e-13 9.55049e-13 0 0 4.22858e-13 4.39997e-13 -4.04094e-13 8.44846e-13 0 0 1.05901e-12 -4.31114e-13 2.02401e-13 6.47738e-13 0 0 9.94307e-13 -2.74775e-13 8.82228e-16 8.5608e-13 0 0 2.12675e-13 9.23893e-13 -8.28566e-13 1.25035e-12 0 0 -3.90458e-13 1.83444e-12 -1.47446e-12 1.54172e-12 0
				</DataArray>
				<DataArray Name="VitesseY" type="Float32" format="ascii">