<?xml version="1.0"?>
<VTKFile type="PolyData">
	<PolyData>
		<Piece NumberOfPoints="1206" NumberOfPolys="1000">
			<Points>
				<DataArray type="Float32" NumberOfComponents="3" format="ascii">
 0 0 0 0.02 0 0 0.04 0 0 0.06 0 0 0.08 0 0 0.1 0 0 0 0.005 0 0.02 0.005 0 0.04 0.005 0 0.06 0.005 0 0.08 0.005 0 0.1 0.005 0 0 0.01 0 0.02 0.01 0 0.04 0.01 0 0.06 0.01 0 0.08 0.01 0 0.1 0.01 0 0 0.015 0 0.02 0.015 0 0.04 0.015 0 0.06 0.015 0 0.08 0.015 0 0.1 0.015 0 0 0.02 0 0.02 0.02 0 0.04 0.02 0 0.06 0.02 0 0.08 0.02 0 0.1 0.02 0 0 0.025 0 0.02 0.025 0 0.04 0.025 0 0.06 0.025 0 0.08 0.025 0 0.1 0.025 0 0 0.03 0 0.02 0.03 0 0.04 0.03 0 0.06 0.03 0 0.08 0.03 0 0.1 0.03 0 0 0.035 0 0.02 0.035 0 0.04 0.035 0 0.06 0.035 0 0.08 0.035 0 0.1 0.035 0 0 0.04 0 0.02 0.04 0 0.04 0.04 0 0.06 0.04 0 0.08 0.04 0 0.1 0.04 0 0 0.045 0 0.02 0.045 0 0.04 0.045 0 0.06 0.045 0 0.08 0.045 0 0.1 0.045 0 0 0.05 0 0.02 0.05 0 0.04 0.05 0 0.06 0.05 0 0.08 0.05 0 0.1 0.05 0 0 0.055 0 0.02 0.055 0 0.04 0.055 0 0.06 0.055 0 0.08 0.055 0 0.1 0.055 0 0 0.06 0 0.02 0.06 0 0.04 0.06 0 0.06 0.06 0 0.08 0.06 0 0.1 0.06 0 0 0.065 0 0.02 0.065 0 0.04 0.065 0 0.06 0.065 0 0.08 0.065 0 0.1 0.065 0 0 0.07 0 0.02 0.07 0 0.04 0.07 0 0.06 0.07 0 0.08 0.07 0 0.1 0.07 0 0 0.075 0 0.02 0.075 0 0.04 0.075 0 0.06 0.075 0 0.08 0.075 0 0.1 0.075 0 0 0.08 0 0.02 0.08 0 0.04 0.08 0 0.06 0.08 0 0.08 0.08 0 0.1 0.08 0 0 0.085 0 0.02 0.085 0 0.04 0.085 0 0.06 0.085 0 0.08 0.085 0 0.1 0.085 0 0 0.09 0 0.02 0.09 0 0.04 0.09 0 0.06 0.09 0 0.08 0.09 0 0.1 0.09 0 0 0.095 0 0.02 0.095 0 0.04 0.095 0 0.06 0.095 0 0.08 0.095 0 0.1 0.095 0 0 0.1 0 0.02 0.1 0 0.04 0.1 0 0.06 0.1 0 0.08 0.1 0 0.1 0.1 0 0 0.105 0 0.02 0.105 0 0.04 0.105 0 0.06 0.105 0 0.08 0.105 0 0.1 0.105 0 0 0.11 0 0.02 0.11 0 0.04 0.11 0 0.06 0.11 0 0.08 0.11 0 0.1 0.11 0 0 0.115 0 0.02 0.115 0 0.04 0.115 0 0.06 0.115 0 0.08 0.115 0 0.1 0.115 0 0 0.12 0 0.02 0.12 0 0.04 0.12 0 0.06 0.12 0 0.08 0.12 0 0.1 0.12 0 0 0.125 0 0.02 0.125 0 0.04 0.125 0 0.06 0.125 0 0.08 0.125 0 0.1 0.125 0 0 0.13 0 0.02 0.13 0 0.04 0.13 0 0.06 0.13 0 0.08 0.13 0 0.1 0.13 0 0 0.135 0 0.02 0.135 0 0.04 0.135 0 0.06 0.135 0 0.08 0.135 0 0.1 0.135 0 0 0.14 0 0.02 0.14 0 0.04 0.14 0 0.06 0.14 0 0.08 0.14 0 0.1 0.14 0 0 0.145 0 0.02 0.145 0 0.04 0.145 0 0.06 0.145 0 0.08 0.145 0 0.1 0.145 0 0 0.15 0 0.02 0.15 0 0.04 0.15 0 0.06 0.15 0 0.08 0.15 0 0.1 0.15 0 0 0.155 0 0.02 0.155 0 0.04 0.155 0 0.06 0.155 0 0.08 0.155 0 0.1 0.155 0 0 0.16 0 0.02 0.16 0 0.04 0.16 0 0.06 0.16 0 0.08 0.16 0 0.1 0.16 0 0 0.165 0 0.02 0.165 0 0.04 0.165 0 0.06 0.165 0 0.08 0.165 0 0.1 0.165 0 0 0.17 0 0.02 0.17 0 0.04 0.17 0 0.06 0.17 0 0.08 0.17 0 0.1 0.17 0 0 0.175 0 0.02 0.175 0 0.04 0.175 0 0.06 0.175 0 0.08 0.175 0 0.1 0.175 0 0 0.18 0 0.02 0.18 0 0.04 0.18 0 0.06 0.18 0 0.08 0.18 0 0.1 0.18 0 0 0.185 0 0.02 0.185 0 0.04 0.185 0 0.06 0.185 0 0.08 0.185 0 0.1 0.185 0 0 0.19 0 0.02 0.19 0 0.04 0.19 0 0.06 0.19 0 0.08 0.19 0 0.1 0.19 0 0 0.195 0 0.02 0.195 0 0.04 0.195 0 0.06 0.195 0 0.08 0.195 0 0.1 0.195 0 0 0.2 0 0.02 0.2 0 0.04 0.2 0 0.06 0.2 0 0.08 0.2 0 0.1 0.2 0 0 0.205 0 0.02 0.205 0 0.04 0.205 0 0.06 0.205 0 0.08 0.205 0 0.1 0.205 0 0 0.21 0 0.02 0.21 0 0.04 0.21 0 0.06 0.21 0 0.08 0.21 0 0.1 0.21 0 0 0.215 0 0.02 0.215 0 0.04 0.215 0 0.06 0.215 0 0.08 0.215 0 0.1 0.215 0 0 0.22 0 0.02 0.22 0 0.04 0.22 0 0.06 0.22 0 0.08 0.22 0 0.1 0.22 0 0 0.225 0 0.02 0.225 0 0.04 0.225 0 0.06 0.225 0 0.08 0.225 0 0.1 0.225 0 0 0.23 0 0.02 0.23 0 0.04 0.23 0 0.06 0.23 0 0.08 0.23 0 0.1 0.23 0 0 0.235 0 0.02 0.235 0 0.04 0.235 0 0.06 0.235 0 0.08 0.235 0 0.1 0.235 0 0 0.24 0 0.02 0.24 0 0.04 0.24 0 0.06 0.24 0 0.08 0.24 0 0.1 0.24 0 0 0.245 0 0.02 0.245 0 0.04 0.245 0 0.06 0.245 0 0.08 0.245 0 0.1 0.245 0 0 0.25 0 0.02 0.25 0 0.04 0.25 0 0.06 0.25 0 0.08 0.25 0 0.1 0.25 0 0 0.255 0 0.02 0.255 0 0.04 0.255 0 0.06 0.255 0 0.08 0.255 0 0.1 0.255 0 0 0.26 0 0.02 0.26 0 0.04 0.26 0 0.06 0.26 0 0.08 0.26 0 0.1 0.26 0 0 0.265 0 0.02 0.265 0 0.04 0.265 0 0.06 0.265 0 0.08 0.265 0 0.1 0.265 0 0 0.27 0 0.02 0.27 0 0.04 0.27 0 0.06 0.27 0 0.08 0.27 0 0.1 0.27 0 0 0.275 0 0.02 0.275 0 0.04 0.275 0 0.06 0.275 0 0.08 0.275 0 0.1 0.275 0 0 0.28 0 0.02 0.28 0 0.04 0.28 0 0.06 0.28 0 0.08 0.28 0 0.1 0.28 0 0 0.285 0 0.02 0.285 0 0.04 0.285 0 0.06 0.285 0 0.08 0.285 0 0.1 0.285 0 0 0.29 0 0.02 0.29 0 0.04 0.29 0 0.06 0.29 0 0.08 0.29 0 0.1 0.29 0 0 0.295 0 0.02 0.295 0 0.04 0.295 0 0.06 0.295 0 0.08 0.295 0 0.1 0.295 0 0 0.3 0 0.02 0.3 0 0.04 0.3 0 0.06 0.3 0 0.08 0.3 0 0.1 0.3 0 0 0.305 0 0.02 0.305 0 0.04 0.305 0 0.06 0.305 0 0.08 0.305 0 0.1 0.305 0 0 0.31 0 0.02 0.31 0 0.04 0.31 0 0.06 0.31 0 0.08 0.31 0 0.1 0.31 0 0 0.315 0 0.02 0.315 0 0.04 0.315 0 0.06 0.315 0 0.08 0.315 0 0.1 0.315 0 0 0.32 0 0.02 0.32 0 0.04 0.32 0 0.06 0.32 0 0.08 0.32 0 0.1 0.32 0 0 0.325 0 0.02 0.325 0 0.04 0.325 0 0.06 0.325 0 0.08 0.325 0 0.1 0.325 0 0 0.33 0 0.02 0.33 0 0.04 0.33 0 0.06 0.33 0 0.08 0.33 0 0.1 0.33 0 0 0.335 0 0.02 0.335 0 0.04 0.335 0 0.06 0.335 0 0.08 0.335 0 0.1 0.335 0 0 0.34 0 0.02 0.34 0 0.04 0.34 0 0.06 0.34 0 0.08 0.34 0 0.1 0.34 0 0 0.345 0 0.02 0.345 0 0.04 0.345 0 0.06 0.345 0 0.08 0.345 0 0.1 0.345 0 0 0.35 0 0.02 0.35 0 0.04 0.35 0 0.06 0.35 0 0.08 0.35 0 0.1 0.35 0 0 0.355 0 0.02 0.355 0 0.04 0.355 0 0.06 0.355 0 0.08 0.355 0 0.1 0.355 0 0 0.36 0 0.02 0.36 0 0.04 0.36 0 0.06 0.36 0 0.08 0.36 0 0.1 0.36 0 0 0.365 0 0.02 0.365 0 0.04 0.365 0 0.06 0.365 0 0.08 0.365 0 0.1 0.365 0 0 0.37 0 0.02 0.37 0 0.04 0.37 0 0.06 0.37 0 0.08 0.37 0 0.1 0.37 0 0 0.375 0 0.02 0.375 0 0.04 0.375 0 0.06 0.375 0 0.08 0.375 0 0.1 0.375 0 0 0.38 0 0.02 0.38 0 0.04 0.38 0 0.06 0.38 0 0.08 0.38 0 0.1 0.38 0 0 0.385 0 0.02 0.385 0 0.04 0.385 0 0.06 0.385 0 0.08 0.385 0 0.1 0.385 0 0 0.39 0 0.02 0.39 0 0.04 0.39 0 0.06 0.39 0 0.08 0.39 0 0.1 0.39 0 0 0.395 0 0.02 0.395 0 0.04 0.395 0 0.06 0.395 0 0.08 0.395 0 0.1 0.395 0 0 0.4 0 0.02 0.4 0 0.04 0.4 0 0.06 0.4 0 0.08 0.4 0 0.1 0.4 0 0 0.405 0 0.02 0.405 0 0.04 0.405 0 0.06 0.405 0 0.08 0.405 0 0.1 0.405 0 0 0.41 0 0.02 0.41 0 0.04 0.41 0 0.06 0.41 0 0.08 0.41 0 0.1 0.41 0 0 0.415 0 0.02 0.415 0 0.04 0.415 0 0.06 0.415 0 0.08 0.415 0 0.1 0.415 0 0 0.42 0 0.02 0.42 0 0.04 0.42 0 0.06 0.42 0 0.08 0.42 0 0.1 0.42 0 0 0.425 0 0.02 0.425 0 0.04 0.425 0 0.06 0.425 0 0.08 0.425 0 0.1 0.425 0 0 0.43 0 0.02 0.43 0 0.04 0.43 0 0.06 0.43 0 0.08 0.43 0 0.1 0.43 0 0 0.435 0 0.02 0.435 0 0.04 0.435 0 0.06 0.435 0 0.08 0.435 0 0.1 0.435 0 0 0.44 0 0.02 0.44 0 0.04 0.44 0 0.06 0.44 0 0.08 0.44 0 0.1 0.44 0 0 0.445 0 0.02 0.445 0 0.04 0.445 0 0.06 0.445 0 0.08 0.445 0 0.1 0.445 0 0 0.45 0 0.02 0.45 0 0.04 0.45 0 0.06 0.45 0 0.08 0.45 0 0.1 0.45 0 0 0.455 0 0.02 0.455 0 0.04 0.455 0 0.06 0.455 0 0.08 0.455 0 0.1 0.455 0 0 0.46 0 0.02 0.46 0 0.04 0.46 0 0.06 0.46 0 0.08 0.46 0 0.1 0.46 0 0 0.465 0 0.02 0.465 0 0.04 0.465 0 0.06 0.465 0 0.08 0.465 0 0.1 0.465 0 0 0.47 0 0.02 0.47 0 0.04 0.47 0 0.06 0.47 0 0.08 0.47 0 0.1 0.47 0 0 0.475 0 0.02 0.475 0 0.04 0.475 0 0.06 0.475 0 0.08 0.475 0 0.1 0.475 0 0 0.48 0 0.02 0.48 0 0.04 0.48 0 0.06 0.48 0 0.08 0.48 0 0.1 0.48 0 0 0.485 0 0.02 0.485 0 0.04 0.485 0 0.06 0.485 0 0.08 0.485 0 0.1 0.485 0 0 0.49 0 0.02 0.49 0 0.04 0.49 0 0.06 0.49 0 0.08 0.49 0 0.1 0.49 0 0 0.495 0 0.02 0.495 0 0.04 0.495 0 0.06 0.495 0 0.08 0.495 0 0.1 0.495 0 0 0.5 0 0.02 0.5 0 0.04 0.5 0 0.06 0.5 0 0.08 0.5 0 0.1 0.5 0 0 0.505 0 0.02 0.505 0 0.04 0.505 0 0.06 0.505 0 0.08 0.505 0 0.1 0.505 0 0 0.51 0 0.02 0.51 0 0.04 0.51 0 0.06 0.51 0 0.08 0.51 0 0.1 0.51 0 0 0.515 0 0.02 0.515 0 0.04 0.515 0 0.06 0.515 0 0.08 0.515 0 0.1 0.515 0 0 0.52 0 0.02 0.52 0 0.04 0.52 0 0.06 0.52 0 0.08 0.52 0 0.1 0.52 0 0 0.525 0 0.02 0.525 0 0.04 0.525 0 0.06 0.525 0 0.08 0.525 0 0.1 0.525 0 0 0.53 0 0.02 0.53 0 0.04 0.53 0 0.06 0.53 0 0.08 0.53 0 0.1 0.53 0 0 0.535 0 0.02 0.535 0 0.04 0.535 0 0.06 0.535 0 0.08 0.535 0 0.1 0.535 0 0 0.54 0 0.02 0.54 0 0.04 0.54 0 0.06 0.54 0 0.08 0.54 0 0.1 0.54 0 0 0.545 0 0.02 0.545 0 0.04 0.545 0 0.06 0.545 0 0.08 0.545 0 0.1 0.545 0 0 0.55 0 0.02 0.55 0 0.04 0.55 0 0.06 0.55 0 0.08 0.55 0 0.1 0.55 0 0 0.555 0 0.02 0.555 0 0.04 0.555 0 0.06 0.555 0 0.08 0.555 0 0.1 0.555 0 0 0.56 0 0.02 0.56 0 0.04 0.56 0 0.06 0.56 0 0.08 0.56 0 0.1 0.56 0 0 0.565 0 0.02 0.565 0 0.04 0.565 0 0.06 0.565 0 0.08 0.565 0 0.1 0.565 0 0 0.57 0 0.02 0.57 0 0.04 0.57 0 0.06 0.57 0 0.08 0.57 0 0.1 0.57 0 0 0.575 0 0.02 0.575 0 0.04 0.575 0 0.06 0.575 0 0.08 0.575 0 0.1 0.575 0 0 0.58 0 0.02 0.58 0 0.04 0.58 0 0.06 0.58 0 0.08 0.58 0 0.1 0.58 0 0 0.585 0 0.02 0.585 0 0.04 0.585 0 0.06 0.585 0 0.08 0.585 0 0.1 0.585 0 0 0.59 0 0.02 0.59 0 0.04 0.59 0 0.06 0.59 0 0.08 0.59 0 0.1 0.59 0 0 0.595 0 0.02 0.595 0 0.04 0.595 0 0.06 0.595 0 0.08 0.595 0 0.1 0.595 0 0 0.6 0 0.02 0.6 0 0.04 0.6 0 0.06 0.6 0 0.08 0.6 0 0.1 0.6 0 0 0.605 0 0.02 0.605 0 0.04 0.605 0 0.06 0.605 0 0.08 0.605 0 0.1 0.605 0 0 0.61 0 0.02 0.61 0 0.04 0.61 0 0.06 0.61 0 0.08 0.61 0 0.1 0.61 0 0 0.615 0 0.02 0.615 0 0.04 0.615 0 0.06 0.615 0 0.08 0.615 0 0.1 0.615 0 0 0.62 0 0.02 0.62 0 0.04 0.62 0 0.06 0.62 0 0.08 0.62 0 0.1 0.62 0 0 0.625 0 0.02 0.625 0 0.04 0.625 0 0.06 0.625 0 0.08 0.625 0 0.1 0.625 0 0 0.63 0 0.02 0.63 0 0.04 0.63 0 0.06 0.63 0 0.08 0.63 0 0.1 0.63 0 0 0.635 0 0.02 0.635 0 0.04 0.635 0 0.06 0.635 0 0.08 0.635 0 0.1 0.635 0 0 0.64 0 0.02 0.64 0 0.04 0.64 0 0.06 0.64 0 0.08 0.64 0 0.1 0.64 0 0 0.645 0 0.02 0.645 0 0.04 0.645 0 0.06 0.645 0 0.08 0.645 0 0.1 0.645 0 0 0.65 0 0.02 0.65 0 0.04 0.65 0 0.06 0.65 0 0.08 0.65 0 0.1 0.65 0 0 0.655 0 0.02 0.655 0 0.04 0.655 0 0.06 0.655 0 0.08 0.655 0 0.1 0.655 0 0 0.66 0 0.02 0.66 0 0.04 0.66 0 0.06 0.66 0 0.08 0.66 0 0.1 0.66 0 0 0.665 0 0.02 0.665 0 0.04 0.665 0 0.06 0.665 0 0.08 0.665 0 0.1 0.665 0 0 0.67 0 0.02 0.67 0 0.04 0.67 0 0.06 0.67 0 0.08 0.67 0 0.1 0.67 0 0 0.675 0 0.02 0.675 0 0.04 0.675 0 0.06 0.675 0 0.08 0.675 0 0.1 0.675 0 0 0.68 0 0.02 0.68 0 0.04 0.68 0 0.06 0.68 0 0.08 0.68 0 0.1 0.68 0 0 0.685 0 0.02 0.685 0 0.04 0.685 0 0.06 0.685 0 0.08 0.685 0 0.1 0.685 0 0 0.69 0 0.02 0.69 0 0.04 0.69 0 0.06 0.69 0 0.08 0.69 0 0.1 
[...]
			<PointData Scalars="VitesseX">
				<DataArray Name="VitesseX" type="Float32" format="ascii">
 0 4.23824e-15 -3.57643e-14 2.10708e-15 7.1183e-15 0 0 2.28236e-15 -3.3357e-14 -6.00352e-15 1.63542e-14 0 0 -2.44396e-14 2.50623e-15 -3.35546e-14 3.25922e-14 0 0 1.30874e-14 -3.90424e-14 4.19761e-16 1.57042e-14 0 0 1.25624e-14 -2.77699e-14 -2.67097e-14 3.12625e-14 0 0 -5.48508e-14 3.54221e-14 -7.02814e-14 4.03392e-14 0 0 -3.07166e-14 -5.1806e-14 4.79086e-14 -5.54304e-14 0 0 2.76085e-14 -1.25647e-13 1.20842e-13 -1.38946e-13 0 0 8.50987e-15 -7.19729e-14 3.03716e-14 -7.45851e-14 0 0 -5.19513e-14 3.44043e-14 -1.20842e-13 5.59273e-14 0 0 2.53286e-15 -4.32758e-14 -9.40644e-14 6.6373e-14 0 0 -4.85528e-14 -1.75612e-14 -9.60274e-14 1.99082e-14 0 0 3.23916e-14 -1.33922e-13 2.65989e-14 -1.02215e-13 0 0 -2.6378e-14 -6.50639e-14 -3.37164e-15 -8.40571e-14 0 0 -1.01426e-13 -1.85965e-15 -6.68722e-14 -2.30125e-14 0 0 5.02563e-14 -2.39677e-13 1.04674e-13 -8.51887e-14 0 0 -1.29569e-13 2.02814e-14 -6.67604e-14 1.489e-14 0 0 -7.17775e-14 -8.3303e-15 -7.17566e-14 1.06028e-13 0 0 -5.37702e-14 -2.52436e-15 -1.27799e-13 2.06262e-13 0 0 -1.01886e-13 3.19468e-14 -1.13988e-13 1.28054e-13 0 0 6.078e-14 -2.23643e-13 1.46143e-13 -1.25363e-13 0 0 3.64865e-14 -1.99205e-13 9.89812e-14 -1.30633e-13 0 0 -9.43389e-14 2.68921e-14 -2.03387e-13 3.29622e-14 0 0 -1.61383e-13 1.36913e-13 -3.21757e-13 5.95033e-14 0 0 1.46025e-14 -1.80694e-13 3.45921e-14 -1.93406e-13 0 0 1.9861e-13 -4.54376e-13 2.86554e-13 -3.67039e-13 0 0 1.127e-14 -1.20729e-13 -7.49673e-14 -1.21727e-13 0 0 -1.36362e-13 1.79847e-13 -3.94921e-13 1.23919e-13 0 0 -1.85877e-14 6.98037e-15 -2.36145e-13 4.32145e-14 0 0 1.20251e-13 -2.71177e-13 7.00043e-14 -1.57419e-13 0 0 7.19803e-15 -1.77784e-13 4.47849e-14 -1.43601e-13 0 0 1.26103e-14 -1.88988e-13 3.97939e-14 -1.44604e-13 0 0 2.30191e-14 -1.51903e-13 -3.6593e-14 -9.87206e-14 0 0 -1.94703e-13 1.76854e-13 -3.49712e-13 1.01883e-13 0 0 1.84668e-14 -1.9104e-13 -4.05385e-15 -1.09306e-13 0 0 1.02208e-13 -3.94775e-13 1.88128e-13 -1.75207e-13 0 0 1.12683e-13 -3.46293e-13 2.88917e-14 1.18694e-13 0 0 -1.383e-13 1.37039e-13 -4.20143e-13 5.13917e-13 0 0 -1.26439e-13 1.1253e-13 -3.98269e-13 5.50313e-13 0 0 5.03907e-14 -2.34913e-13 -8.29413e-14 2.68153e-13 0 0 5.56407e-15 -2.04834e-13 -6.65214e-15 -6.23891e-15 0 0 7.84202e-14 -2.7067e-13 5.14329e-14 -1.738e-13 0 0 -1.57741e-13 6.53631e-14 -2.1206e-13 -8.60513e-14 0 0 -6.01843e-14 -1.29584e-13 4.09556e-14 -2.68247e-13 0 0 2.32644e-13 -5.46916e-13 3.27189e-13 -3.81057e-13 0 0 -5.72906e-14 -7.76774e-14 -2.22456e-13 3.76993e-14 0 0 1.23406e-14 -4.30078e-14 -4.76314e-13 3.37855e-13 0 0 -1.53964e-14 -2.98567e-14 -4.74421e-13 3.08674e-13 0 0 -1.54308e-13 -2.38562e-14 -2.88787e-13 1.53154e-14 0 0 1.48064e-13 -5.92926e-13 2.62893e-13 -3.65515e-13 0 0 1.3262e-13 -7.08339e-13 4.09427e-13 -4.2155e-13 0 0 1.93145e-13 -7.42858e-13 2.17475e-13 -4.21579e-14 0 0 -3.87365e-13 2.00085e-13 -6.68375e-13 5.98882e-13 0 0 -1.72868e-13 -2.33855e-14 -3.60162e-13 2.82991e-13 0 0 1.85014e-13 -7.26586e-13 2.89815e-13 -8.89167e-14 0 0 -3.39015e-13 -2.18094e-13 -1.19511e-13 2.03942e-13 0 0 1.22227e-13 -6.11182e-13 2.01573e-13 -1.5977e-13 0 0 2.41835e-14 -3.5054e-13 5.05348e-14 -2.2113e-13 0 0 9.7932e-14 -3.92204e-13 1.18636e-13 -2.45252e-13 0 0 3.30178e-13 -7.03759e-13 3.42102e-13 -2.33899e-13 0 0 -1.95172e-13 -1.16059e-13 -2.20187e-13 2.9228e-13 0 0 -2.83851e-13 2.64429e-15 -3.83361e-13 4.04473e-13 0 0 -2.21456e-13 -1.49106e-13 -1.0107e-13 1.59525e-13 0 0 1.18882e-13 -5.76767e-13 5.6374e-13 -4.95214e-13 0 0 7.02812e-14 -4.52238e-13 4.43886e-13 -4.63597e-13 0 0 -2.78054e-13 3.1406e-14 -2.26617e-13 1.62222e-13 0 0 -2.37249e-13 1.50967e-14 -3.60516e-13 2.97747e-13 0 0 -2.23466e-13 -3.90383e-14 -2.43611e-13 1.57004e-13 0 0 1.72221e-13 -4.93738e-13 2.45355e-13 -3.23073e-13 0 0 2.41465e-13 -5.33676e-13 5.01628e-15 -1.94769e-14 0 0 -4.73422e-13 2.98947e-13 -7.8927e-13 5.86044e-13 0 0 -5.94779e-14 -3.03756e-13 -1.02857e-13 5.20774e-14 0 0 1.32188e-13 -7.48824e-13 3.39908e-13 -6.22172e-14 0 0 1.20843e-13 -8.4758e-13 4.36758e-13 1.99846e-13 0 0 -1.89833e-13 -2.56891e-13 -2.23432e-13 8.62219e-13 0 0 -5.49703e-13 1.82376e-13 -8.10226e-13 1.36985e-12 0 0 1.04213e-13 -8.79147e-13 2.82568e-13 2.92944e-13 0 0 -1.19743e-13 -6.81851e-13 3.62382e-13 -2.79229e-13 0 0 -8.87648e-15 -6.92918e-13 2.94133e-13 -4.51363e-13 0 0 -3.5048e-13 -5.50715e-14 -2.41965e-13 -2.73739e-13 0 0 -2.96452e-13 -3.08885e-13 -2.61094e-13 1.00977e-13 0 0 2.29654e-13 -9.75766e-13 -2.2135e-13 1.01036e-13 0 0 -6.37769e-13 4.24586e-13 -1.37244e-12 2.93866e-13 0 0 -2.29207e-13 -1.45474e-13 -5.56119e-13 -2.56712e-13 0 0 5.44513e-13 -1.49287e-12 7.885e-13 -8.75544e-13 0 0 -3.79453e-13 -2.29517e-13 -2.22497e-13 -5.40988e-13 0 0 -6.85471e-13 5.68572e-13 -1.20983e-12 -2.02055e-13 0 0 1.69776e-14 -4.87416e-13 -3.2087e-13 -5.87439e-13 0 0 -4.50369e-14 -5.29639e-13 5.40947e-14 -1.02155e-12 0 0 2.25911e-13 -7.53206e-13 2.04657e-13 -1.02514e-12 0 0 -1.32715e-13 9.90268e-14 -6.22566e-13 -4.84946e-13 0 0 -4.51575e-13 7.55961e-13 -1.35734e-12 -1.57115e-13 0 0 1.58588e-13 -5.51138e-13 -1.27247e-13 -4.76819e-13 0 0 6.1636e-14 -6.56371e-13 2.83692e-13 -8.57773e-13 0 0 3.75736e-13 -9.00533e-13 4.61347e-15 -4.14398e-13 0 0 -7.75662e-13 7.08906e-13 -1.40347e-12 4.13842e-13 0 0 4.05421e-14 -1.48476e-13 -5.89046e-13 -7.45377e-14 0 0 3.82517e-13 -8.34468e-13 1.89944e-13 -3.6827e-13 0 0 -3.10734e-13 -3.09815e-13 3.48502e-13 -6.31503e-13 0 0 3.00259e-13 -8.39624e-13 3.05293e-13 -1.87207e-13 0 0 -4.63396e-14 -5.08019e-13 6.87778e-15 -8.40881e-14 0 0 -2.78564e-13 -2.14778e-13 -3.74841e-13 9.81744e-14 0 0 -2.5483e-13 -2.20528e-13 -4.54647e-13 1.56634e-13 0 0 -9.9305e-14 -3.95527e-13 -3.34574e-13 8.62339e-14 0 0 -6.39192e-14 -4.06204e-13 -2.42321e-13 -4.5296e-14 0 0 -5.08924e-13 2.45897e-13 -7.58395e-13 3.1123e-13 0 0 -2.84766e-13 -1.08055e-13 -4.47842e-13 2.16726e-13 0 0 2.23599e-13 -9.31803e-13 4.84029e-13 -5.80535e-13 0 0 3.00532e-13 -1.06251e-12 5.88245e-13 -6.72343e-13 0 0 -2.0316e-13 -6.3546e-14 -6.40032e-13 1.38217e-13 0 0 -7.69151e-13 9.07772e-13 -1.56562e-12 5.32094e-13 0 0 -2.17004e-13 -1.75936e-13 -4.3029e-13 -1.18251e-13 0 0 3.45308e-13 -1.08538e-12 5.83287e-13 -1.05541e-12 0 0 3.62569e-13 -1.02806e-12 5.08249e-13 -1.15256e-12 0 0 -2.35922e-13 2.18592e-14 -6.07536e-13 -3.66437e-13 0 0 -7.40829e-13 7.20998e-13 -1.25052e-12 7.75651e-14 0 0 -2.75647e-13 -3.19413e-13 -1.7878e-13 -3.56671e-13 0 0 4.25582e-13 -1.2761e-12 7.64328e-13 -1.13898e-12 0 0 -1.21372e-13 -3.07279e-13 -2.87993e-13 -5.06027e-13 0 0 -1.51202e-13 -3.97586e-13 -4.80019e-13 1.33866e-13 0 0 -3.72146e-13 -2.20338e-13 -5.18409e-13 5.48198e-14 0 0 -5.96145e-13 -2.00896e-13 -3.56824e-13 -3.37861e-14 0 0 4.02969e-13 -1.54269e-12 7.20416e-13 -7.65897e-13 0 0 -3.55799e-13 -1.05474e-13 -7.14535e-13 -2.13737e-13 0 0 -2.99644e-13 -2.50402e-13 -7.04753e-13 2.25671e-13 0 0 -3.13139e-13 -2.99488e-13 -4.6232e-13 -1.04317e-14 0 0 -5.81097e-13 -2.44771e-13 -3.32087e-13 -1.10806e-13 0 0 4.64461e-13 -1.72254e-12 8.82479e-13 -8.50452e-13 0 0 -2.47469e-13 -4.08025e-13 -3.54669e-13 -3.22996e-13 0 0 -2.89293e-13 -3.7777e-13 -4.70213e-13 1.0694e-13 0 0 -2.80342e-13 -4.19019e-13 -2.72781e-13 -1.67007e-13 0 0 -5.60974e-13 -3.60672e-13 -1.63862e-13 -2.29312e-13 0 0 3.95906e-13 -1.647e-12 9.10873e-13 -9.66897e-13 0 0 -2.88043e-13 -2.72153e-13 -3.60642e-13 -5.33219e-13 0 0 -2.86629e-13 -3.17056e-13 -5.3748e-13 7.95941e-14 0 0 -2.29915e-13 -3.95589e-13 -4.09229e-13 -5.00563e-15 0 0 -4.31321e-13 -3.33176e-13 -3.23054e-13 -9.21239e-14 0 0 4.33421e-13 -1.45363e-12 5.67971e-13 -6.97218e-13 0 0 -1.53468e-13 -1.99252e-13 -6.06962e-13 -4.10526e-13 0 0 -2.51633e-13 -1.45483e-13 -6.19377e-13 -1.82554e-13 0 0 -2.43699e-14 -6.33694e-13 -2.95633e-13 -2.00737e-13 0 0 -7.52652e-13 4.76224e-13 -1.4447e-12 1.99688e-13 0 0 3.29163e-13 -1.03819e-12 7.90036e-14 -8.88581e-13 0 0 5.66631e-13 -1.58596e-12 5.02027e-13 -9.34795e-13 0 0 -8.80773e-13 4.47246e-13 -1.73236e-12 5.45153e-13 0 0 -3.39446e-13 -4.65552e-13 -1.11003e-12 4.73149e-13 0 0 -4.70398e-13 -4.79013e-13 -7.19884e-13 -1.02828e-14 0 0 1.07809e-13 -1.1395e-12 2.51267e-13 -8.5135e-13 0 0 5.01222e-13 -1.66509e-12 4.79471e-13 -4.18673e-13 0 0 -9.04511e-13 4.47185e-13 -2.03199e-12 1.69817e-12 0 0 -3.0714e-13 -5.23024e-13 -1.25929e-12 1.56206e-12 0 0 -4.18197e-13 -6.12805e-13 -5.5399e-13 2.27897e-13 0 0 1.74062e-13 -1.15626e-12 1.90327e-13 -1.21599e-12 0 0 1.92077e-13 -1.18786e-12 1.76065e-13 -1.34529e-12 0 0 -4.46477e-13 -4.93428e-13 -6.27379e-13 -4.21956e-13 0 0 -4.7265e-13 -2.78559e-13 -7.31781e-13 -3.36976e-13 0 0 -5.2168e-13 -3.36587e-13 -3.49399e-13 -4.41662e-13 0 0 4.10059e-13 -1.59469e-12 6.55337e-13 -7.79476e-13 0 0 -1.05318e-13 -4.18285e-13 -8.76429e-13 1.04767e-13 0 0 -5.79264e-13 5.53663e-13 -2.40489e-12 1.3075e-12 0 0 -7.28893e-13 7.18957e-13 -2.27993e-12 7.8241e-13 0 0 -4.1434e-14 -1.13439e-12 3.30611e-13 -8.8679e-13 0 0 6.3608e-13 -2.44296e-12 1.85308e-12 -2.1992e-12 0 0 -2.93903e-13 -5.5597e-13 -5.41488e-13 -1.02476e-12 0 0 -7.72395e-13 6.268e-13 -2.42466e-12 6.44802e-13 0 0 -6.24731e-13 4.64653e-13 -2.06502e-12 3.05102e-13 0 0 6.82335e-15 -1.03475e-12 -2.41407e-13 -7.51649e-13 0 0 5.36912e-13 -2.0732e-12 9.03926e-13 -2.30274e-12 0 0 -4.48476e-13 -5.48479e-13 -2.95062e-13 -2.47262e-12 0 0 -1.23134e-13 -1.02974e-12 1.76824e-13 -1.83561e-12 0 0 3.66258e-14 -1.05624e-12 4.97712e-14 -1.16895e-12 0 0 -1.00973e-12 7.05629e-13 -2.02682e-12 8.21115e-14 0 0 -1.50037e-14 -6.41983e-13 -1.22298e-12 -3.13016e-13 0 0 -1.75953e-13 -6.54175e-13 -6.33222e-13 -8.59167e-13 0 0 -5.05425e-14 -1.16865e-12 3.68401e-13 -1.09561e-12 0 0 1.57886e-13 -1.22198e-12 1.24077e-13 -9.21281e-13 0 0 -8.41975e-13 5.35326e-13 -2.00774e-12 1.51568e-13 0 0 4.28332e-14 -6.934e-13 -1.22175e-12 -1.74435e-13 0 0 -8.7327e-14 -7.62311e-13 -5.55991e-13 -9.73505e-13 0 0 -4.63315e-14 -1.15521e-12 3.61397e-13 -1.28241e-12 0 0 1.4311e-13 -1.21527e-12 9.07957e-14 -8.27481e-13 0 0 -8.92193e-13 6.02168e-13 -2.21722e-12 3.92641e-13 0 0 -4.30704e-14 -5.63815e-13 -1.52647e-12 -2.11938e-14 0 0 -1.01236e-13 -8.09033e-13 -5.92301e-13 -8.19526e-13 0 0 -9.64248e-14 -1.1223e-12 2.75865e-13 -9.29025e-13 0 0 8.53836e-14 -1.09919e-12 -1.60057e-13 -5.21871e-13 0 0 -9.57592e-13 7.10905e-13 -2.35552e-12 5.95615e-13 0 0 3.19655e-14 -6.75148e-13 -1.34757e-12 1.42429e-13 0 0 -5.37615e-14 -7.82293e-13 -7.11996e-13 -5.4027e-13 0 0 1.28746e-13 -1.28717e-12 1.23179e-15 -8.24948e-13 0 0 4.74351e-13 -1.30664e-12 -8.7523e-13 -3.95326e-13 0 0 -1.30516e-12 1.33101e-12 -3.50839e-12 6.54172e-13 0 0 6.43485e-13 -1.81767e-12 1.80825e-13 -1.38184e-12 0 0 1.31478e-12 -3.07028e-12 1.80239e-12 -2.03127e-12 0 0 -7.73453e-13 -5.23179e-15 -1.71498e-12 3.7137e-13 0 0 -8.56341e-13 4.43473e-13 -3.06263e-12 1.64985e-12 0 0 -1.30507e-12 7.80689e-13 -2.97592e-12 1.54298e-12 0 0 6.10994e-13 -2.3623e-12 8.86879e-13 -9.55174e-13 0 0 8.23659e-13 -2.7791e-12 1.43084e-12 -1.25404e-12 0 0 -1.02484e-12 2.86647e-13 -2.46109e-12 1.29148e-12 0 0 -7.95054e-13 3.46233e-13 -3.34602e-12 2.11102e-12 0
				</DataArray>
				<DataArray Name="VitesseY" type="Float32" format="ascii">