<?xml version="1.0"?>
<VTKFile type="PolyData">
	<PolyData>
		<Piece NumberOfPoints="1206" NumberOfPolys="1000">
			<Points>
				<DataArray type="Float32" NumberOfComponents="3" format="ascii">
 0 0 0 0.02 0 0 0.04 0 0 0.06 0 0 0.08 0 0 0.1 0 0 0 0.005 0 0.02 0.005 0 0.04 0.005 0 0.06 0.005 0 0.08 0.005 0 0.1 0.005 0 0 0.01 0 0.02 0.01 0 0.04 0.01 0 0.06 0.01 0 0.08 0.01 0 0.1 0.01 0 0 0.015 0 0.02 0.015 0 0.04 0.015 0 0.06 0.015 0 0.08 0.015 0 0.1 0.015 0 0 0.02 0 0.02 0.02 0 0.04 0.02 0 0.06 0.02 0 0.08 0.02 0 0.1 0.02 0 0 0.025 0 0.02 0.025 0 0.04 0.025 0 0.06 0.025 0 0.08 0.025 0 0.1 0.025 0 0 0.03 0 0.02 0.03 0 0.04 0.03 0 0.06 0.03 0 0.08 0.03 0 0.1 0.03 0 0 0.035 0 0.02 0.035 0 0.04 0.035 0 0.06 0.035 0 0.08 0.035 0 0.1 0.035 0 0 0.04 0 0.02 0.04 0 0.04 0.04 0 0.06 0.04 0 0.08 0.04 0 0.1 0.04 0 0 0.045 0 0.02 0.045 0 0.04 0.045 0 0.06 0.045 0 0.08 0.045 0 0.1 0.045 0 0 0.05 0 0.02 0.05 0 0.04 0.05 0 0.06 0.05 0 0.08 0.05 0 0.1 0.05 0 0 0.055 0 0.02 0.055 0 0.04 0.055 0 0.06 0.055 0 0.08 0.055 0 0.1 0.055 0 0 0.06 0 0.02 0.06 0 0.04 0.06 0 0.06 0.06 0 0.08 0.06 0 0.1 0.06 0 0 0.065 0 0.02 0.065 0 0.04 0.065 0 0.06 0.065 0 0.08 0.065 0 0.1 0.065 0 0 0.07 0 0.02 0.07 0 0.04 0.07 0 0.06 0.07 0 0.08 0.07 0 0.1 0.07 0 0 0.075 0 0.02 0.075 0 0.04 0.075 0 0.06 0.075 0 0.08 0.075 0 0.1 0.075 0 0 0.08 0 0.02 0.08 0 0.04 0.08 0 0.06 0.08 0 0.08 0.08 0 0.1 0.08 0 0 0.085 0 0.02 0.085 0 0.04 0.085 0 0.06 0.085 0 0.08 0.085 0 0.1 0.085 0 0 0.09 0 0.02 0.09 0 0.04 0.09 0 0.06 0.09 0 0.08 0.09 0 0.1 0.09 0 0 0.095 0 0.02 0.095 0 0.04 0.095 0 0.06 0.095 0 0.08 0.095 0 0.1 0.095 0 0 0.1 0 0.02 0.1 0 0.04 0.1 0 0.06 0.1 0 0.08 0.1 0 0.1 0.1 0 0 0.105 0 0.02 0.105 0 0.04 0.105 0 0.06 0.105 0 0.08 0.105 0 0.1 0.105 0 0 0.11 0 0.02 0.11 0 0.04 0.11 0 0.06 0.11 0 0.08 0.11 0 0.1 0.11 0 0 0.115 0 0.02 0.115 0 0.04 0.115 0 0.06 0.115 0 0.08 0.115 0 0.1 0.115 0 0 0.12 0 0.02 0.12 0 0.04 0.12 0 0.06 0.12 0 0.08 0.12 0 0.1 0.12 0 0 0.125 0 0.02 0.125 0 0.04 0.125 0 0.06 0.125 0 0.08 0.125 0 0.1 0.125 0 0 0.13 0 0.02 0.13 0 0.04 0.13 0 0.06 0.13 0 0.08 0.13 0 0.1 0.13 0 0 0.135 0 0.02 0.135 0 0.04 0.135 0 0.06 0.135 0 0.08 0.135 0 0.1 0.135 0 0 0.14 0 0.02 0.14 0 0.04 0.14 0 0.06 0.14 0 0.08 0.14 0 0.1 0.14 0 0 0.145 0 0.02 0.145 0 0.04 0.145 0 0.06 0.145 0 0.08 0.145 0 0.1 0.145 0 0 0.15 0 0.02 0.15 0 0.04 0.15 0 0.06 0.15 0 0.08 0.15 0 0.1 0.15 0 0 0.155 0 0.02 0.155 0 0.04 0.155 0 0.06 0.155 0 0.08 0.155 0 0.1 0.155 0 0 0.16 0 0.02 0.16 0 0.04 0.16 0 0.06 0.16 0 0.08 0.16 0 0.1 0.16 0 0 0.165 0 0.02 0.165 0 0.04 0.165 0 0.06 0.165 0 0.08 0.165 0 0.1 0.165 0 0 0.17 0 0.02 0.17 0 0.04 0.17 0 0.06 0.17 0 0.08 0.17 0 0.1 0.17 0 0 0.175 0 0.02 0.175 0 0.04 0.175 0 0.06 0.175 0 0.08 0.175 0 0.1 0.175 0 0 0.18 0 0.02 0.18 0 0.04 0.18 0 0.06 0.18 0 0.08 0.18 0 0.1 0.18 0 0 0.185 0 0.02 0.185 0 0.04 0.185 0 0.06 0.185 0 0.08 0.185 0 0.1 0.185 0 0 0.19 0 0.02 0.19 0 0.04 0.19 0 0.06 0.19 0 0.08 0.19 0 0.1 0.19 0 0 0.195 0 0.02 0.195 0 0.04 0.195 0 0.06 0.195 0 0.08 0.195 0 0.1 0.195 0 0 0.2 0 0.02 0.2 0 0.04 0.2 0 0.06 0.2 0 0.08 0.2 0 0.1 0.2 0 0 0.205 0 0.02 0.205 0 0.04 0.205 0 0.06 0.205 0 0.08 0.205 0 0.1 0.205 0 0 0.21 0 0.02 0.21 0 0.04 0.21 0 0.06 0.21 0 0.08 0.21 0 0.1 0.21 0 0 0.215 0 0.02 0.215 0 0.04 0.215 0 0.06 0.215 0 0.08 0.215 0 0.1 0.215 0 0 0.22 0 0.02 0.22 0 0.04 0.22 0 0.06 0.22 0 0.08 0.22 0 0.1 0.22 0 0 0.225 0 0.02 0.225 0 0.04 0.225 0 0.06 0.225 0 0.08 0.225 0 0.1 0.225 0 0 0.23 0 0.02 0.23 0 0.04 0.23 0 0.06 0.23 0 0.08 0.23 0 0.1 0.23 0 0 0.235 0 0.02 0.235 0 0.04 0.235 0 0.06 0.235 0 0.08 0.235 0 0.1 0.235 0 0 0.24 0 0.02 0.24 0 0.04 0.24 0 0.06 0.24 0 0.08 0.24 0 0.1 0.24 0 0 0.245 0 0.02 0.245 0 0.04 0.245 0 0.06 0.245 0 0.08 0.245 0 0.1 0.245 0 0 0.25 0 0.02 0.25 0 0.04 0.25 0 0.06 0.25 0 0.08 0.25 0 0.1 0.25 0 0 0.255 0 0.02 0.255 0 0.04 0.255 0 0.06 0.255 0 0.08 0.255 0 0.1 0.255 0 0 0.26 0 0.02 0.26 0 0.04 0.26 0 0.06 0.26 0 0.08 0.26 0 0.1 0.26 0 0 0.265 0 0.02 0.265 0 0.04 0.265 0 0.06 0.265 0 0.08 0.265 0 0.1 0.265 0 0 0.27 0 0.02 0.27 0 0.04 0.27 0 0.06 0.27 0 0.08 0.27 0 0.1 0.27 0 0 0.275 0 0.02 0.275 0 0.04 0.275 0 0.06 0.275 0 0.08 0.275 0 0.1 0.275 0 0 0.28 0 0.02 0.28 0 0.04 0.28 0 0.06 0.28 0 0.08 0.28 0 0.1 0.28 0 0 0.285 0 0.02 0.285 0 0.04 0.285 0 0.06 0.285 0 0.08 0.285 0 0.1 0.285 0 0 0.29 0 0.02 0.29 0 0.04 0.29 0 0.06 0.29 0 0.08 0.29 0 0.1 0.29 0 0 0.295 0 0.02 0.295 0 0.04 0.295 0 0.06 0.295 0 0.08 0.295 0 0.1 0.295 0 0 0.3 0 0.02 0.3 0 0.04 0.3 0 0.06 0.3 0 0.08 0.3 0 0.1 0.3 0 0 0.305 0 0.02 0.305 0 0.04 0.305 0 0.06 0.305 0 0.08 0.305 0 0.1 0.305 0 0 0.31 0 0.02 0.31 0 0.04 0.31 0 0.06 0.31 0 0.08 0.31 0 0.1 0.31 0 0 0.315 0 0.02 0.315 0 0.04 0.315 0 0.06 0.315 0 0.08 0.315 0 0.1 0.315 0 0 0.32 0 0.02 0.32 0 0.04 0.32 0 0.06 0.32 0 0.08 0.32 0 0.1 0.32 0 0 0.325 0 0.02 0.325 0 0.04 0.325 0 0.06 0.325 0 0.08 0.325 0 0.1 0.325 0 0 0.33 0 0.02 0.33 0 0.04 0.33 0 0.06 0.33 0 0.08 0.33 0 0.1 0.33 0 0 0.335 0 0.02 0.335 0 0.04 0.335 0 0.06 0.335 0 0.08 0.335 0 0.1 0.335 0 0 0.34 0 0.02 0.34 0 0.04 0.34 0 0.06 0.34 0 0.08 0.34 0 0.1 0.34 0 0 0.345 0 0.02 0.345 0 0.04 0.345 0 0.06 0.345 0 0.08 0.345 0 0.1 0.345 0 0 0.35 0 0.02 0.35 0 0.04 0.35 0 0.06 0.35 0 0.08 0.35 0 0.1 0.35 0 0 0.355 0 0.02 0.355 0 0.04 0.355 0 0.06 0.355 0 0.08 0.355 0 0.1 0.355 0 0 0.36 0 0.02 0.36 0 0.04 0.36 0 0.06 0.36 0 0.08 0.36 0 0.1 0.36 0 0 0.365 0 0.02 0.365 0 0.04 0.365 0 0.06 0.365 0 0.08 0.365 0 0.1 0.365 0 0 0.37 0 0.02 0.37 0 0.04 0.37 0 0.06 0.37 0 0.08 0.37 0 0.1 0.37 0 0 0.375 0 0.02 0.375 0 0.04 0.375 0 0.06 0.375 0 0.08 0.375 0 0.1 0.375 0 0 0.38 0 0.02 0.38 0 0.04 0.38 0 0.06 0.38 0 0.08 0.38 0 0.1 0.38 0 0 0.385 0 0.02 0.385 0 0.04 0.385 0 0.06 0.385 0 0.08 0.385 0 0.1 0.385 0 0 0.39 0 0.02 0.39 0 0.04 0.39 0 0.06 0.39 0 0.08 0.39 0 0.1 0.39 0 0 0.395 0 0.02 0.395 0 0.04 0.395 0 0.06 0.395 0 0.08 0.395 0 0.1 0.395 0 0 0.4 0 0.02 0.4 0 0.04 0.4 0 0.06 0.4 0 0.08 0.4 0 0.1 0.4 0 0 0.405 0 0.02 0.405 0 0.04 0.405 0 0.06 0.405 0 0.08 0.405 0 0.1 0.405 0 0 0.41 0 0.02 0.41 0 0.04 0.41 0 0.06 0.41 0 0.08 0.41 0 0.1 0.41 0 0 0.415 0 0.02 0.415 0 0.04 0.415 0 0.06 0.415 0 0.08 0.415 0 0.1 0.415 0 0 0.42 0 0.02 0.42 0 0.04 0.42 0 0.06 0.42 0 0.08 0.42 0 0.1 0.42 0 0 0.425 0 0.02 0.425 0 0.04 0.425 0 0.06 0.425 0 0.08 0.425 0 0.1 0.425 0 0 0.43 0 0.02 0.43 0 0.04 0.43 0 0.06 0.43 0 0.08 0.43 0 0.1 0.43 0 0 0.435 0 0.02 0.435 0 0.04 0.435 0 0.06 0.435 0 0.08 0.435 0 0.1 0.435 0 0 0.44 0 0.02 0.44 0 0.04 0.44 0 0.06 0.44 0 0.08 0.44 0 0.1 0.44 0 0 0.445 0 0.02 0.445 0 0.04 0.445 0 0.06 0.445 0 0.08 0.445 0 0.1 0.445 0 0 0.45 0 0.02 0.45 0 0.04 0.45 0 0.06 0.45 0 0.08 0.45 0 0.1 0.45 0 0 0.455 0 0.02 0.455 0 0.04 0.455 0 0.06 0.455 0 0.08 0.455 0 0.1 0.455 0 0 0.46 0 0.02 0.46 0 0.04 0.46 0 0.06 0.46 0 0.08 0.46 0 0.1 0.46 0 0 0.465 0 0.02 0.465 0 0.04 0.465 0 0.06 0.465 0 0.08 0.465 0 0.1 0.465 0 0 0.47 0 0.02 0.47 0 0.04 0.47 0 0.06 0.47 0 0.08 0.47 0 0.1 0.47 0 0 0.475 0 0.02 0.475 0 0.04 0.475 0 0.06 0.475 0 0.08 0.475 0 0.1 0.475 0 0 0.48 0 0.02 0.48 0 0.04 0.48 0 0.06 0.48 0 0.08 0.48 0 0.1 0.48 0 0 0.485 0 0.02 0.485 0 0.04 0.485 0 0.06 0.485 0 0.08 0.485 0 0.1 0.485 0 0 0.49 0 0.02 0.49 0 0.04 0.49 0 0.06 0.49 0 0.08 0.49 0 0.1 0.49 0 0 0.495 0 0.02 0.495 0 0.04 0.495 0 0.06 0.495 0 0.08 0.495 0 0.1 0.495 0 0 0.5 0 0.02 0.5 0 0.04 0.5 0 0.06 0.5 0 0.08 0.5 0 0.1 0.5 0 0 0.505 0 0.02 0.505 0 0.04 0.505 0 0.06 0.505 0 0.08 0.505 0 0.1 0.505 0 0 0.51 0 0.02 0.51 0 0.04 0.51 0 0.06 0.51 0 0.08 0.51 0 0.1 0.51 0 0 0.515 0 0.02 0.515 0 0.04 0.515 0 0.06 0.515 0 0.08 0.515 0 0.1 0.515 0 0 0.52 0 0.02 0.52 0 0.04 0.52 0 0.06 0.52 0 0.08 0.52 0 0.1 0.52 0 0 0.525 0 0.02 0.525 0 0.04 0.525 0 0.06 0.525 0 0.08 0.525 0 0.1 0.525 0 0 0.53 0 0.02 0.53 0 0.04 0.53 0 0.06 0.53 0 0.08 0.53 0 0.1 0.53 0 0 0.535 0 0.02 0.535 0 0.04 0.535 0 0.06 0.535 0 0.08 0.535 0 0.1 0.535 0 0 0.54 0 0.02 0.54 0 0.04 0.54 0 0.06 0.54 0 0.08 0.54 0 0.1 0.54 0 0 0.545 0 0.02 0.545 0 0.04 0.545 0 0.06 0.545 0 0.08 0.545 0 0.1 0.545 0 0 0.55 0 0.02 0.55 0 0.04 0.55 0 0.06 0.55 0 0.08 0.55 0 0.1 0.55 0 0 0.555 0 0.02 0.555 0 0.04 0.555 0 0.06 0.555 0 0.08 0.555 0 0.1 0.555 0 0 0.56 0 0.02 0.56 0 0.04 0.56 0 0.06 0.56 0 0.08 0.56 0 0.1 0.56 0 0 0.565 0 0.02 0.565 0 0.04 0.565 0 0.06 0.565 0 0.08 0.565 0 0.1 0.565 0 0 0.57 0 0.02 0.57 0 0.04 0.57 0 0.06 0.57 0 0.08 0.57 0 0.1 0.57 0 0 0.575 0 0.02 0.575 0 0.04 0.575 0 0.06 0.575 0 0.08 0.575 0 0.1 0.575 0 0 0.58 0 0.02 0.58 0 0.04 0.58 0 0.06 0.58 0 0.08 0.58 0 0.1 0.58 0 0 0.585 0 0.02 0.585 0 0.04 0.585 0 0.06 0.585 0 0.08 0.585 0 0.1 0.585 0 0 0.59 0 0.02 0.59 0 0.04 0.59 0 0.06 0.59 0 0.08 0.59 0 0.1 0.59 0 0 0.595 0 0.02 0.595 0 0.04 0.595 0 0.06 0.595 0 0.08 0.595 0 0.1 0.595 0 0 0.6 0 0.02 0.6 0 0.04 0.6 0 0.06 0.6 0 0.08 0.6 0 0.1 0.6 0 0 0.605 0 0.02 0.605 0 0.04 0.605 0 0.06 0.605 0 0.08 0.605 0 0.1 0.605 0 0 0.61 0 0.02 0.61 0 0.04 0.61 0 0.06 0.61 0 0.08 0.61 0 0.1 0.61 0 0 0.615 0 0.02 0.615 0 0.04 0.615 0 0.06 0.615 0 0.08 0.615 0 0.1 0.615 0 0 0.62 0 0.02 0.62 0 0.04 0.62 0 0.06 0.62 0 0.08 0.62 0 0.1 0.62 0 0 0.625 0 0.02 0.625 0 0.04 0.625 0 0.06 0.625 0 0.08 0.625 0 0.1 0.625 0 0 0.63 0 0.02 0.63 0 0.04 0.63 0 0.06 0.63 0 0.08 0.63 0 0.1 0.63 0 0 0.635 0 0.02 0.635 0 0.04 0.635 0 0.06 0.635 0 0.08 0.635 0 0.1 0.635 0 0 0.64 0 0.02 0.64 0 0.04 0.64 0 0.06 0.64 0 0.08 0.64 0 0.1 0.64 0 0 0.645 0 0.02 0.645 0 0.04 0.645 0 0.06 0.645 0 0.08 0.645 0 0.1 0.645 0 0 0.65 0 0.02 0.65 0 0.04 0.65 0 0.06 0.65 0 0.08 0.65 0 0.1 0.65 0 0 0.655 0 0.02 0.655 0 0.04 0.655 0 0.06 0.655 0 0.08 0.655 0 0.1 0.655 0 0 0.66 0 0.02 0.66 0 0.04 0.66 0 0.06 0.66 0 0.08 0.66 0 0.1 0.66 0 0 0.665 0 0.02 0.665 0 0.04 0.665 0 0.06 0.665 0 0.08 0.665 0 0.1 0.665 0 0 0.67 0 0.02 0.67 0 0.04 0.67 0 0.06 0.67 0 0.08 0.67 0 0.1 0.67 0 0 0.675 0 0.02 0.675 0 0.04 0.675 0 0.06 0.675 0 0.08 0.675 0 0.1 0.675 0 0 0.68 0 0.02 0.68 0 0.04 0.68 0 0.06 0.68 0 0.08 0.68 0 0.1 0.68 0 0 0.685 0 0.02 0.685 0 0.04 0.685 0 0.06 0.685 0 0.08 0.685 0 0.1 0.685 0 0 0.69 0 0.02 0.69 0 0.04 0.69 0 0.06 0.69 0 0.08 0.69 0 0.1 
[...]
			<PointData Scalars="VitesseX">
				<DataArray Name="VitesseX" type="Float32" format="ascii">
 0 3.33754e-14 1.13121e-14 9.1386e-15 4.48832e-14 0 0 2.35133e-14 2.22719e-14 7.61677e-15 3.74378e-14 0 0 2.12762e-14 1.79396e-14 2.87952e-14 9.28616e-15 0 0 4.00809e-15 4.14004e-14 1.8592e-14 4.13573e-15 0 0 -5.45449e-17 5.71454e-14 -3.82469e-15 1.77132e-14 0 0 3.94738e-14 1.64626e-14 1.79471e-14 5.03646e-15 0 0 5.57919e-14 1.30721e-16 3.13514e-14 -1.26168e-14 0 0 4.93525e-14 6.00893e-15 2.3859e-14 -1.24327e-14 0 0 4.28137e-14 2.20804e-14 -6.55362e-15 9.88981e-15 0 0 3.061e-14 4.16765e-14 -3.1693e-14 2.68776e-14 0 0 1.11412e-14 7.5179e-14 -6.3962e-14 4.25804e-14 0 0 3.32856e-14 4.09382e-14 -1.28885e-14 3.36626e-15 0 0 1.40079e-14 5.72086e-14 1.51143e-16 -2.08076e-15 0 0 1.72041e-14 5.51044e-14 1.42659e-14 1.38467e-15 0 0 3.60902e-14 3.07805e-14 3.82837e-14 2.13225e-15 0 0 7.95343e-15 6.77341e-14 6.22417e-15 1.55516e-14 0 0 3.89452e-14 1.4346e-14 6.15725e-14 -2.94879e-14 0 0 3.90773e-14 3.23649e-14 1.2434e-14 2.01272e-14 0 0 9.86395e-15 7.08522e-14 -4.76187e-14 9.96348e-14 0 0 1.54293e-14 3.56345e-14 -1.07798e-14 1.13656e-13 0 0 5.28555e-14 -1.38845e-14 3.96422e-14 7.94291e-14 0 0 7.30769e-14 -1.7073e-14 4.51623e-14 6.18353e-14 0 0 7.34648e-14 7.46731e-15 2.72574e-14 7.50643e-14 0 0 7.00071e-14 4.55734e-14 -4.50026e-15 9.23813e-14 0 0 5.21607e-14 1.00855e-13 -4.00091e-14 9.90547e-14 0 0 6.05354e-14 8.97236e-14 1.63951e-14 4.98437e-14 0 0 9.27947e-14 4.82448e-14 9.24879e-14 -3.10944e-14 0 0 5.55906e-14 1.23285e-13 1.02779e-14 -1.70534e-16 0 0 9.32643e-14 7.66874e-14 1.52249e-14 3.68306e-15 0 0 1.2883e-13 2.20985e-16 7.72164e-14 -2.55658e-14 0 0 1.29585e-13 -2.2342e-14 1.04914e-13 -3.90239e-14 0 0 1.52028e-13 -3.84856e-14 8.58568e-14 -2.19911e-14 0 0 9.4064e-14 4.08073e-14 -1.34301e-14 4.9098e-14 0 0 7.40547e-14 4.06049e-14 -2.18802e-14 6.76318e-14 0 0 9.79314e-14 1.00121e-15 3.60352e-14 -1.33547e-14 0 0 9.85199e-14 6.81574e-15 6.89718e-14 -9.26972e-14 0 0 8.58681e-14 3.17201e-14 7.43421e-15 -3.85193e-15 0 0 8.24745e-14 2.096e-14 1.09065e-14 4.53929e-15 0 0 -7.26715e-15 1.46217e-13 -7.03594e-14 7.08059e-15 0 0 2.49814e-14 1.22152e-13 -5.69481e-14 1.60243e-14 0 0 1.02079e-13 2.21752e-14 2.52913e-14 6.23086e-16 0 0 1.43785e-13 1.66536e-14 1.35552e-14 2.84571e-14 0 0 2.64977e-13 -9.47919e-14 1.00514e-13 -5.65208e-15 0 0 2.39637e-13 -3.65787e-14 6.54981e-14 4.26382e-15 0 0 1.52448e-13 6.2586e-14 3.97722e-14 -1.66221e-14 0 0 9.67853e-14 1.35457e-13 -2.55083e-14 2.31694e-14 0 0 3.26504e-15 3.01089e-13 -2.33819e-13 2.02746e-13 0 0 8.59226e-14 1.34976e-13 -7.78438e-14 1.80211e-13 0 0 1.90245e-13 -5.71359e-14 7.73406e-14 1.38546e-13 0 0 2.35163e-13 -1.9934e-13 2.55161e-13 2.71681e-14 0 0 2.52607e-13 -3.03373e-13 3.99453e-13 -7.25323e-14 0 0 1.43235e-13 -8.78557e-14 1.29325e-13 1.17785e-13 0 0 1.98982e-13 -1.12709e-13 7.0535e-14 1.92314e-13 0 0 1.5671e-13 -3.08691e-14 -3.01795e-14 2.31396e-13 0 0 9.2518e-14 6.65665e-14 -4.34097e-14 1.22097e-13 0 0 1.96055e-13 -9.97148e-14 1.24433e-13 -2.68953e-14 0 0 6.94879e-14 8.31624e-14 -1.08241e-13 1.48068e-13 0 0 9.49135e-14 3.29272e-14 7.45544e-15 6.41651e-14 0 0 1.67002e-13 -8.3148e-14 1.78732e-13 -3.33722e-14 0 0 7.81413e-14 8.93928e-14 1.20185e-14 8.16904e-14 0 0 1.51437e-13 5.62689e-14 2.90728e-15 1.00084e-13 0 0 1.41548e-13 9.34854e-14 -6.06896e-14 1.28938e-13 0 0 1.86908e-13 1.16366e-14 9.52768e-14 -6.82853e-14 0 0 1.56539e-13 2.37521e-14 1.32567e-13 -1.53353e-13 0 0 1.05689e-13 7.0902e-14 6.46276e-14 -7.89564e-14 0 0 1.66511e-13 7.78775e-15 8.04029e-14 -7.21179e-14 0 0 1.00889e-13 1.61337e-13 -1.3085e-13 5.23756e-14 0 0 1.69299e-13 5.07535e-14 1.2516e-14 -2.46127e-14 0 0 2.36872e-13 -5.15471e-14 1.11249e-13 -1.07983e-14 0 0 1.66137e-13 3.05051e-14 -5.20378e-15 1.62733e-13 0 0 2.40241e-13 -1.15534e-13 1.48378e-13 1.33887e-13 0 0 2.29952e-13 1.10036e-14 3.31141e-14 2.19688e-13 0 0 3.15852e-13 5.94272e-15 1.1216e-13 1.38471e-13 0 0 2.54237e-13 1.73911e-13 9.50901e-15 1.94878e-13 0 0 3.11604e-13 1.09144e-13 6.60481e-14 2.00814e-13 0 0 3.43746e-13 -6.24628e-15 2.29774e-13 1.70488e-13 0 0 6.72978e-15 4.62293e-13 -1.60898e-13 4.9674e-13 0 0 3.00143e-13 1.82245e-14 2.63235e-13 3.95283e-13 0 0 2.3224e-13 1.29386e-13 1.87791e-13 5.21392e-13 0 0 3.16065e-13 8.32837e-14 2.5554e-13 3.2438e-13 0 0 3.63809e-13 1.77055e-13 1.56945e-13 2.59823e-13 0 0 -7.98785e-14 8.05535e-13 -2.53266e-13 4.63912e-13 0 0 1.81368e-13 1.18116e-13 7.48308e-13 -2.10611e-13 0 0 8.35532e-14 2.82401e-13 6.42291e-13 -5.14818e-14 0 0 -1.60979e-13 1.10037e-12 -1.98173e-13 5.46628e-13 0 0 4.18803e-13 5.15905e-13 3.25991e-13 2.36388e-13 0 0 7.89335e-13 3.46838e-14 6.83564e-13 8.40527e-14 0 0 5.47312e-13 5.17656e-13 2.95771e-13 2.356e-13 0 0 3.62772e-13 6.52499e-13 4.47969e-13 -8.41672e-14 0 0 1.65133e-13 6.39155e-13 7.40186e-13 -4.28023e-13 0 0 1.60823e-14 7.09017e-13 6.91226e-13 -3.72355e-13 0 0 1.46082e-13 5.63365e-13 5.98911e-13 -1.43734e-13 0 0 2.94043e-13 4.68293e-13 4.5703e-13 4.59022e-14 0 0 3.55272e-13 4.70262e-13 2.97049e-13 1.22706e-13 0 0 3.88912e-13 4.39979e-13 2.08592e-13 1.22427e-13 0 0 4.3771e-13 3.40266e-13 1.98691e-13 1.05496e-13 0 0 4.93447e-13 2.21697e-13 2.0228e-13 1.33357e-13 0 0 5.22959e-13 1.26737e-13 1.7738e-13 2.21785e-13 0 0 4.94575e-13 6.94306e-14 1.34915e-13 3.36347e-13 0 0 3.96162e-13 6.14091e-14 8.54899e-14 4.35146e-13 0 0 2.56163e-13 8.57207e-14 4.30595e-14 4.88338e-13 0 0 1.29401e-13 1.02322e-13 2.66396e-14 4.92869e-13 0 0 5.96782e-14 8.23302e-14 4.34407e-14 4.57122e-13 0 0 6.02402e-14 3.02814e-14 7.63818e-14 4.0678e-13 0 0 1.1422e-13 -4.18118e-14 1.21133e-13 3.50533e-13 0 0 1.87957e-13 -1.24605e-13 1.84377e-13 2.95523e-13 0 0 2.54256e-13 -2.06332e-13 2.53651e-13 2.59837e-13 0 0 2.93387e-13 -2.70229e-13 3.13383e-13 2.41596e-13 0 0 2.93715e-13 -3.01141e-13 3.61016e-13 2.27181e-13 0 0 2.62779e-13 -2.99375e-13 3.9349e-13 2.17696e-13 0 0 1.95325e-13 -2.36262e-13 3.80902e-13 2.26811e-13 0 0 1.03025e-13 -1.29783e-13 3.64151e-13 1.88154e-13 0 0 5.20736e-14 -4.58957e-14 3.22975e-13 1.62603e-13 0 0 3.76343e-14 1.46836e-14 2.5187e-13 1.73092e-13 0 0 3.3864e-14 3.88053e-14 2.53727e-13 1.25005e-13 0 0 2.98239e-14 7.00113e-14 2.37488e-13 9.85524e-14 0 0 3.6429e-14 1.02136e-13 1.49401e-13 1.4874e-13 0 0 5.20818e-14 1.19343e-13 9.90315e-14 1.3936e-13 0 0 5.57721e-14 1.42875e-13 4.77647e-14 1.24939e-13 0 0 7.72548e-14 1.19208e-13 5.20278e-14 6.92599e-14 0 0 8.1759e-14 1.022e-13 1.03277e-13 -2.75994e-14 0 0 6.63505e-14 1.44868e-13 4.83799e-14 -4.01837e-14 0 0 6.78872e-14 1.57481e-13 5.56851e-14 -1.41159e-13 0 0 8.13532e-14 1.23845e-13 9.8584e-14 -1.95584e-13 0 0 7.14507e-14 1.46769e-13 6.55768e-14 -8.81087e-14 0 0 7.9279e-14 1.47354e-13 1.0366e-13 -4.22691e-14 0 0 9.20889e-14 1.73773e-13 7.16451e-14 -4.43331e-15 0 0 1.04556e-13 2.22452e-13 -2.45245e-14 1.57814e-13 0 0 1.86173e-13 8.97167e-14 1.9316e-13 8.14024e-14 0 0 1.49675e-13 1.64e-13 2.02702e-13 1.02324e-13 0 0 1.1331e-13 3.13804e-13 5.88031e-14 2.12017e-13 0 0 2.61012e-13 1.5691e-13 2.28373e-13 9.85501e-14 0 0 2.76698e-13 1.73876e-13 1.78667e-13 2.02815e-13 0 0 2.68225e-13 1.88113e-13 2.21022e-13 1.84939e-13 0 0 2.1156e-13 3.15275e-13 1.59702e-13 2.15725e-13 0 0 1.93299e-13 3.70254e-13 1.68445e-13 2.3963e-13 0 0 3.23223e-13 1.9951e-13 3.79784e-13 9.94564e-14 0 0 3.51097e-13 2.68078e-13 2.95698e-13 1.19306e-13 0 0 3.82547e-13 2.3875e-13 3.42285e-13 8.97356e-14 0 0 3.81737e-13 2.71687e-13 2.82309e-13 1.79693e-13 0 0 3.93723e-13 3.20928e-13 2.17384e-13 2.22075e-13 0 0 4.43076e-13 3.09839e-13 2.22508e-13 1.65367e-13 0 0 4.21234e-13 3.71128e-13 1.9523e-13 1.49162e-13 0 0 4.82795e-13 2.46987e-13 3.67786e-13 1.87618e-14 0 0 4.25802e-13 3.82817e-13 1.45953e-13 2.17864e-13 0 0 2.71826e-13 6.48095e-13 -2.04097e-13 4.98552e-13 0 0 4.45307e-13 2.80241e-13 1.86027e-13 2.26202e-13 0 0 5.21599e-13 1.49278e-13 2.81927e-13 1.00256e-13 0 0 4.56444e-13 2.92593e-13 6.34629e-14 1.75881e-13 0 0 3.01532e-13 5.23866e-13 -1.82378e-13 3.16931e-13 0 0 2.04231e-13 6.98518e-13 -3.03698e-13 3.31033e-13 0 0 5.62347e-13 1.21709e-13 2.74347e-13 2.51781e-14 0 0 6.00563e-13 1.19571e-14 4.07656e-13 1.66745e-14 0 0 4.38411e-13 2.38189e-13 2.9821e-13 -5.80282e-14 0 0 2.42733e-13 5.60266e-13 6.13497e-14 -6.97118e-14 0 0 3.27328e-13 4.58003e-13 2.39781e-14 3.614e-14 0 0 6.08557e-13 -3.43976e-14 4.29065e-13 -1.55426e-13 0 0 4.72494e-13 3.70796e-14 4.33048e-13 -5.88016e-14 0 0 2.9577e-13 1.62086e-13 4.68113e-13 -2.97998e-14 0 0 -1.68072e-13 8.17488e-13 -3.3109e-14 2.64039e-13 0 0 -1.56252e-13 8.31343e-13 -3.40264e-14 2.74949e-13 0 0 5.44143e-13 -2.44007e-13 9.67056e-13 -2.10962e-13 0 0 7.64131e-13 -6.81863e-13 1.34342e-12 -2.59045e-13 0 0 3.08408e-13 -3.31025e-14 6.8161e-13 1.2943e-13 0 0 -2.51887e-13 7.66993e-13 -1.43093e-13 6.36715e-13 0 0 -3.0699e-13 6.88083e-13 -2.41133e-14 5.45197e-13 0 0 -4.10839e-14 1.54323e-13 5.18043e-13 1.67518e-13 0 0 1.98528e-13 -1.84105e-13 7.61573e-13 7.20715e-15 0 0 2.75861e-13 -3.24471e-13 1.00174e-12 -1.44646e-13 0 0 1.52023e-13 -1.88768e-13 1.02821e-12 -1.44687e-13 0 0 -8.16862e-14 2.09335e-13 6.3702e-13 1.13438e-13 0 0 -1.24336e-13 2.83359e-13 4.09955e-13 3.39011e-13 0 0 -7.86641e-14 2.98736e-13 1.05701e-13 6.80352e-13 0 0 2.94174e-13 -6.80884e-14 2.43979e-13 5.84486e-13 0 0 5.63377e-13 -3.4891e-13 4.31814e-13 3.64722e-13 0 0 3.218e-13 -1.20562e-13 3.67681e-13 2.72385e-13 0 0 -1.81146e-13 3.70966e-13 2.1084e-13 2.69624e-13 0 0 -2.10633e-13 4.76041e-13 5.74352e-14 3.51161e-13 0 0 4.42429e-13 -3.32931e-13 6.20962e-13 -1.36202e-13 0 0 5.39254e-13 -3.58814e-13 5.21045e-13 -1.55025e-13 0 0 2.87752e-13 2.15767e-14 2.95738e-15 3.44045e-13 0 0 5.2487e-14 2.08103e-13 -1.43204e-13 5.52977e-13 0 0 2.14619e-14 2.93636e-13 -2.55401e-13 6.5519e-13 0 0 3.09033e-13 -1.77415e-13 2.91619e-13 2.34875e-13 0 0 3.34759e-13 -2.52347e-13 4.79412e-13 4.76441e-14 0 0 2.08292e-13 1.50215e-13 3.54874e-14 2.53755e-13 0 0 1.18354e-13 4.64202e-13 -3.52988e-13 5.15229e-13 0 0 1.7354e-13 3.7445e-13 -2.76705e-13 5.92335e-13 0 0 6.00241e-13 -2.67874e-13 3.17137e-13 2.43101e-13 0 0 7.9783e-13 -5.11728e-13 5.92717e-13 -3.65729e-14 0 0 5.31665e-13 -4.47526e-14 1.75157e-13 1.67814e-13 0 0 5.61958e-13 -8.29192e-15 -3.60308e-14 4.21308e-13 0 0 6.38012e-13 -9.47909e-14 1.05406e-13 2.98061e-13 0 0 6.37196e-13 -1.80823e-13 2.10937e-13 2.96991e-13 0 0 5.34307e-13 -8.78493e-14 5.81127e-14 5.11432e-13 0 0 1.21738e-13 6.1935e-13 -6.82966e-13 9.93268e-13 0 0 3.31016e-13 3.87963e-13 -5.19094e-13 9.53932e-13 0 0 7.66801e-13 -2.06505e-13 1.03917e-13 5.44456e-13 0 0 7.60062e-13 -7.56404e-14 -7.16732e-14 6.40927e-13 0 0 2.61231e-13 8.25604e-13 -8.10527e-13 1.01698e-12 0 0 -1.56312e-13 1.5119e-12 -1.29627e-12 1.22798e-12 0
				</DataArray>
				<DataArray Name="VitesseY" type="Float32" format="ascii">