<?xml version="1.0"?>
<VTKFile type="PolyData">
	<PolyData>
		<Piece NumberOfPoints="1206" NumberOfPolys="1000">
			<Points>
				<DataArray type="Float32" NumberOfComponents="3" format="ascii">
 0 0 0 0.02 0 0 0.04 0 0 0.06 0 0 0.08 0 0 0.1 0 0 0 0.005 0 0.02 0.005 0 0.04 0.005 0 0.06 0.005 0 0.08 0.005 0 0.1 0.005 0 0 0.01 0 0.02 0.01 0 0.04 0.01 0 0.06 0.01 0 0.08 0.01 0 0.1 0.01 0 0 0.015 0 0.02 0.015 0 0.04 0.015 0 0.06 0.015 0 0.08 0.015 0 0.1 0.015 0 0 0.02 0 0.02 0.02 0 0.04 0.02 0 0.06 0.02 0 0.08 0.02 0 0.1 0.02 0 0 0.025 0 0.02 0.025 0 0.04 0.025 0 0.06 0.025 0 0.08 0.025 0 0.1 0.025 0 0 0.03 0 0.02 0.03 0 0.04 0.03 0 0.06 0.03 0 0.08 0.03 0 0.1 0.03 0 0 0.035 0 0.02 0.035 0 0.04 0.035 0 0.06 0.035 0 0.08 0.035 0 0.1 0.035 0 0 0.04 0 0.02 0.04 0 0.04 0.04 0 0.06 0.04 0 0.08 0.04 0 0.1 0.04 0 0 0.045 0 0.02 0.045 0 0.04 0.045 0 0.06 0.045 0 0.08 0.045 0 0.1 0.045 0 0 0.05 0 0.02 0.05 0 0.04 0.05 0 0.06 0.05 0 0.08 0.05 0 0.1 0.05 0 0 0.055 0 0.02 0.055 0 0.04 0.055 0 0.06 0.055 0 0.08 0.055 0 0.1 0.055 0 0 0.06 0 0.02 0.06 0 0.04 0.06 0 0.06 0.06 0 0.08 0.06 0 0.1 0.06 0 0 0.065 0 0.02 0.065 0 0.04 0.065 0 0.06 0.065 0 0.08 0.065 0 0.1 0.065 0 0 0.07 0 0.02 0.07 0 0.04 0.07 0 0.06 0.07 0 0.08 0.07 0 0.1 0.07 0 0 0.075 0 0.02 0.075 0 0.04 0.075 0 0.06 0.075 0 0.08 0.075 0 0.1 0.075 0 0 0.08 0 0.02 0.08 0 0.04 0.08 0 0.06 0.08 0 0.08 0.08 0 0.1 0.08 0 0 0.085 0 0.02 0.085 0 0.04 0.085 0 0.06 0.085 0 0.08 0.085 0 0.1 0.085 0 0 0.09 0 0.02 0.09 0 0.04 0.09 0 0.06 0.09 0 0.08 0.09 0 0.1 0.09 0 0 0.095 0 0.02 0.095 0 0.04 0.095 0 0.06 0.095 0 0.08 0.095 0 0.1 0.095 0 0 0.1 0 0.02 0.1 0 0.04 0.1 0 0.06 0.1 0 0.08 0.1 0 0.1 0.1 0 0 0.105 0 0.02 0.105 0 0.04 0.105 0 0.06 0.105 0 0.08 0.105 0 0.1 0.105 0 0 0.11 0 0.02 0.11 0 0.04 0.11 0 0.06 0.11 0 0.08 0.11 0 0.1 0.11 0 0 0.115 0 0.02 0.115 0 0.04 0.115 0 0.06 0.115 0 0.08 0.115 0 0.1 0.115 0 0 0.12 0 0.02 0.12 0 0.04 0.12 0 0.06 0.12 0 0.08 0.12 0 0.1 0.12 0 0 0.125 0 0.02 0.125 0 0.04 0.125 0 0.06 0.125 0 0.08 0.125 0 0.1 0.125 0 0 0.13 0 0.02 0.13 0 0.04 0.13 0 0.06 0.13 0 0.08 0.13 0 0.1 0.13 0 0 0.135 0 0.02 0.135 0 0.04 0.135 0 0.06 0.135 0 0.08 0.135 0 0.1 0.135 0 0 0.14 0 0.02 0.14 0 0.04 0.14 0 0.06 0.14 0 0.08 0.14 0 0.1 0.14 0 0 0.145 0 0.02 0.145 0 0.04 0.145 0 0.06 0.145 0 0.08 0.145 0 0.1 0.145 0 0 0.15 0 0.02 0.15 0 0.04 0.15 0 0.06 0.15 0 0.08 0.15 0 0.1 0.15 0 0 0.155 0 0.02 0.155 0 0.04 0.155 0 0.06 0.155 0 0.08 0.155 0 0.1 0.155 0 0 0.16 0 0.02 0.16 0 0.04 0.16 0 0.06 0.16 0 0.08 0.16 0 0.1 0.16 0 0 0.165 0 0.02 0.165 0 0.04 0.165 0 0.06 0.165 0 0.08 0.165 0 0.1 0.165 0 0 0.17 0 0.02 0.17 0 0.04 0.17 0 0.06 0.17 0 0.08 0.17 0 0.1 0.17 0 0 0.175 0 0.02 0.175 0 0.04 0.175 0 0.06 0.175 0 0.08 0.175 0 0.1 0.175 0 0 0.18 0 0.02 0.18 0 0.04 0.18 0 0.06 0.18 0 0.08 0.18 0 0.1 0.18 0 0 0.185 0 0.02 0.185 0 0.04 0.185 0 0.06 0.185 0 0.08 0.185 0 0.1 0.185 0 0 0.19 0 0.02 0.19 0 0.04 0.19 0 0.06 0.19 0 0.08 0.19 0 0.1 0.19 0 0 0.195 0 0.02 0.195 0 0.04 0.195 0 0.06 0.195 0 0.08 0.195 0 0.1 0.195 0 0 0.2 0 0.02 0.2 0 0.04 0.2 0 0.06 0.2 0 0.08 0.2 0 0.1 0.2 0 0 0.205 0 0.02 0.205 0 0.04 0.205 0 0.06 0.205 0 0.08 0.205 0 0.1 0.205 0 0 0.21 0 0.02 0.21 0 0.04 0.21 0 0.06 0.21 0 0.08 0.21 0 0.1 0.21 0 0 0.215 0 0.02 0.215 0 0.04 0.215 0 0.06 0.215 0 0.08 0.215 0 0.1 0.215 0 0 0.22 0 0.02 0.22 0 0.04 0.22 0 0.06 0.22 0 0.08 0.22 0 0.1 0.22 0 0 0.225 0 0.02 0.225 0 0.04 0.225 0 0.06 0.225 0 0.08 0.225 0 0.1 0.225 0 0 0.23 0 0.02 0.23 0 0.04 0.23 0 0.06 0.23 0 0.08 0.23 0 0.1 0.23 0 0 0.235 0 0.02 0.235 0 0.04 0.235 0 0.06 0.235 0 0.08 0.235 0 0.1 0.235 0 0 0.24 0 0.02 0.24 0 0.04 0.24 0 0.06 0.24 0 0.08 0.24 0 0.1 0.24 0 0 0.245 0 0.02 0.245 0 0.04 0.245 0 0.06 0.245 0 0.08 0.245 0 0.1 0.245 0 0 0.25 0 0.02 0.25 0 0.04 0.25 0 0.06 0.25 0 0.08 0.25 0 0.1 0.25 0 0 0.255 0 0.02 0.255 0 0.04 0.255 0 0.06 0.255 0 0.08 0.255 0 0.1 0.255 0 0 0.26 0 0.02 0.26 0 0.04 0.26 0 0.06 0.26 0 0.08 0.26 0 0.1 0.26 0 0 0.265 0 0.02 0.265 0 0.04 0.265 0 0.06 0.265 0 0.08 0.265 0 0.1 0.265 0 0 0.27 0 0.02 0.27 0 0.04 0.27 0 0.06 0.27 0 0.08 0.27 0 0.1 0.27 0 0 0.275 0 0.02 0.275 0 0.04 0.275 0 0.06 0.275 0 0.08 0.275 0 0.1 0.275 0 0 0.28 0 0.02 0.28 0 0.04 0.28 0 0.06 0.28 0 0.08 0.28 0 0.1 0.28 0 0 0.285 0 0.02 0.285 0 0.04 0.285 0 0.06 0.285 0 0.08 0.285 0 0.1 0.285 0 0 0.29 0 0.02 0.29 0 0.04 0.29 0 0.06 0.29 0 0.08 0.29 0 0.1 0.29 0 0 0.295 0 0.02 0.295 0 0.04 0.295 0 0.06 0.295 0 0.08 0.295 0 0.1 0.295 0 0 0.3 0 0.02 0.3 0 0.04 0.3 0 0.06 0.3 0 0.08 0.3 0 0.1 0.3 0 0 0.305 0 0.02 0.305 0 0.04 0.305 0 0.06 0.305 0 0.08 0.305 0 0.1 0.305 0 0 0.31 0 0.02 0.31 0 0.04 0.31 0 0.06 0.31 0 0.08 0.31 0 0.1 0.31 0 0 0.315 0 0.02 0.315 0 0.04 0.315 0 0.06 0.315 0 0.08 0.315 0 0.1 0.315 0 0 0.32 0 0.02 0.32 0 0.04 0.32 0 0.06 0.32 0 0.08 0.32 0 0.1 0.32 0 0 0.325 0 0.02 0.325 0 0.04 0.325 0 0.06 0.325 0 0.08 0.325 0 0.1 0.325 0 0 0.33 0 0.02 0.33 0 0.04 0.33 0 0.06 0.33 0 0.08 0.33 0 0.1 0.33 0 0 0.335 0 0.02 0.335 0 0.04 0.335 0 0.06 0.335 0 0.08 0.335 0 0.1 0.335 0 0 0.34 0 0.02 0.34 0 0.04 0.34 0 0.06 0.34 0 0.08 0.34 0 0.1 0.34 0 0 0.345 0 0.02 0.345 0 0.04 0.345 0 0.06 0.345 0 0.08 0.345 0 0.1 0.345 0 0 0.35 0 0.02 0.35 0 0.04 0.35 0 0.06 0.35 0 0.08 0.35 0 0.1 0.35 0 0 0.355 0 0.02 0.355 0 0.04 0.355 0 0.06 0.355 0 0.08 0.355 0 0.1 0.355 0 0 0.36 0 0.02 0.36 0 0.04 0.36 0 0.06 0.36 0 0.08 0.36 0 0.1 0.36 0 0 0.365 0 0.02 0.365 0 0.04 0.365 0 0.06 0.365 0 0.08 0.365 0 0.1 0.365 0 0 0.37 0 0.02 0.37 0 0.04 0.37 0 0.06 0.37 0 0.08 0.37 0 0.1 0.37 0 0 0.375 0 0.02 0.375 0 0.04 0.375 0 0.06 0.375 0 0.08 0.375 0 0.1 0.375 0 0 0.38 0 0.02 0.38 0 0.04 0.38 0 0.06 0.38 0 0.08 0.38 0 0.1 0.38 0 0 0.385 0 0.02 0.385 0 0.04 0.385 0 0.06 0.385 0 0.08 0.385 0 0.1 0.385 0 0 0.39 0 0.02 0.39 0 0.04 0.39 0 0.06 0.39 0 0.08 0.39 0 0.1 0.39 0 0 0.395 0 0.02 0.395 0 0.04 0.395 0 0.06 0.395 0 0.08 0.395 0 0.1 0.395 0 0 0.4 0 0.02 0.4 0 0.04 0.4 0 0.06 0.4 0 0.08 0.4 0 0.1 0.4 0 0 0.405 0 0.02 0.405 0 0.04 0.405 0 0.06 0.405 0 0.08 0.405 0 0.1 0.405 0 0 0.41 0 0.02 0.41 0 0.04 0.41 0 0.06 0.41 0 0.08 0.41 0 0.1 0.41 0 0 0.415 0 0.02 0.415 0 0.04 0.415 0 0.06 0.415 0 0.08 0.415 0 0.1 0.415 0 0 0.42 0 0.02 0.42 0 0.04 0.42 0 0.06 0.42 0 0.08 0.42 0 0.1 0.42 0 0 0.425 0 0.02 0.425 0 0.04 0.425 0 0.06 0.425 0 0.08 0.425 0 0.1 0.425 0 0 0.43 0 0.02 0.43 0 0.04 0.43 0 0.06 0.43 0 0.08 0.43 0 0.1 0.43 0 0 0.435 0 0.02 0.435 0 0.04 0.435 0 0.06 0.435 0 0.08 0.435 0 0.1 0.435 0 0 0.44 0 0.02 0.44 0 0.04 0.44 0 0.06 0.44 0 0.08 0.44 0 0.1 0.44 0 0 0.445 0 0.02 0.445 0 0.04 0.445 0 0.06 0.445 0 0.08 0.445 0 0.1 0.445 0 0 0.45 0 0.02 0.45 0 0.04 0.45 0 0.06 0.45 0 0.08 0.45 0 0.1 0.45 0 0 0.455 0 0.02 0.455 0 0.04 0.455 0 0.06 0.455 0 0.08 0.455 0 0.1 0.455 0 0 0.46 0 0.02 0.46 0 0.04 0.46 0 0.06 0.46 0 0.08 0.46 0 0.1 0.46 0 0 0.465 0 0.02 0.465 0 0.04 0.465 0 0.06 0.465 0 0.08 0.465 0 0.1 0.465 0 0 0.47 0 0.02 0.47 0 0.04 0.47 0 0.06 0.47 0 0.08 0.47 0 0.1 0.47 0 0 0.475 0 0.02 0.475 0 0.04 0.475 0 0.06 0.475 0 0.08 0.475 0 0.1 0.475 0 0 0.48 0 0.02 0.48 0 0.04 0.48 0 0.06 0.48 0 0.08 0.48 0 0.1 0.48 0 0 0.485 0 0.02 0.485 0 0.04 0.485 0 0.06 0.485 0 0.08 0.485 0 0.1 0.485 0 0 0.49 0 0.02 0.49 0 0.04 0.49 0 0.06 0.49 0 0.08 0.49 0 0.1 0.49 0 0 0.495 0 0.02 0.495 0 0.04 0.495 0 0.06 0.495 0 0.08 0.495 0 0.1 0.495 0 0 0.5 0 0.02 0.5 0 0.04 0.5 0 0.06 0.5 0 0.08 0.5 0 0.1 0.5 0 0 0.505 0 0.02 0.505 0 0.04 0.505 0 0.06 0.505 0 0.08 0.505 0 0.1 0.505 0 0 0.51 0 0.02 0.51 0 0.04 0.51 0 0.06 0.51 0 0.08 0.51 0 0.1 0.51 0 0 0.515 0 0.02 0.515 0 0.04 0.515 0 0.06 0.515 0 0.08 0.515 0 0.1 0.515 0 0 0.52 0 0.02 0.52 0 0.04 0.52 0 0.06 0.52 0 0.08 0.52 0 0.1 0.52 0 0 0.525 0 0.02 0.525 0 0.04 0.525 0 0.06 0.525 0 0.08 0.525 0 0.1 0.525 0 0 0.53 0 0.02 0.53 0 0.04 0.53 0 0.06 0.53 0 0.08 0.53 0 0.1 0.53 0 0 0.535 0 0.02 0.535 0 0.04 0.535 0 0.06 0.535 0 0.08 0.535 0 0.1 0.535 0 0 0.54 0 0.02 0.54 0 0.04 0.54 0 0.06 0.54 0 0.08 0.54 0 0.1 0.54 0 0 0.545 0 0.02 0.545 0 0.04 0.545 0 0.06 0.545 0 0.08 0.545 0 0.1 0.545 0 0 0.55 0 0.02 0.55 0 0.04 0.55 0 0.06 0.55 0 0.08 0.55 0 0.1 0.55 0 0 0.555 0 0.02 0.555 0 0.04 0.555 0 0.06 0.555 0 0.08 0.555 0 0.1 0.555 0 0 0.56 0 0.02 0.56 0 0.04 0.56 0 0.06 0.56 0 0.08 0.56 0 0.1 0.56 0 0 0.565 0 0.02 0.565 0 0.04 0.565 0 0.06 0.565 0 0.08 0.565 0 0.1 0.565 0 0 0.57 0 0.02 0.57 0 0.04 0.57 0 0.06 0.57 0 0.08 0.57 0 0.1 0.57 0 0 0.575 0 0.02 0.575 0 0.04 0.575 0 0.06 0.575 0 0.08 0.575 0 0.1 0.575 0 0 0.58 0 0.02 0.58 0 0.04 0.58 0 0.06 0.58 0 0.08 0.58 0 0.1 0.58 0 0 0.585 0 0.02 0.585 0 0.04 0.585 0 0.06 0.585 0 0.08 0.585 0 0.1 0.585 0 0 0.59 0 0.02 0.59 0 0.04 0.59 0 0.06 0.59 0 0.08 0.59 0 0.1 0.59 0 0 0.595 0 0.02 0.595 0 0.04 0.595 0 0.06 0.595 0 0.08 0.595 0 0.1 0.595 0 0 0.6 0 0.02 0.6 0 0.04 0.6 0 0.06 0.6 0 0.08 0.6 0 0.1 0.6 0 0 0.605 0 0.02 0.605 0 0.04 0.605 0 0.06 0.605 0 0.08 0.605 0 0.1 0.605 0 0 0.61 0 0.02 0.61 0 0.04 0.61 0 0.06 0.61 0 0.08 0.61 0 0.1 0.61 0 0 0.615 0 0.02 0.615 0 0.04 0.615 0 0.06 0.615 0 0.08 0.615 0 0.1 0.615 0 0 0.62 0 0.02 0.62 0 0.04 0.62 0 0.06 0.62 0 0.08 0.62 0 0.1 0.62 0 0 0.625 0 0.02 0.625 0 0.04 0.625 0 0.06 0.625 0 0.08 0.625 0 0.1 0.625 0 0 0.63 0 0.02 0.63 0 0.04 0.63 0 0.06 0.63 0 0.08 0.63 0 0.1 0.63 0 0 0.635 0 0.02 0.635 0 0.04 0.635 0 0.06 0.635 0 0.08 0.635 0 0.1 0.635 0 0 0.64 0 0.02 0.64 0 0.04 0.64 0 0.06 0.64 0 0.08 0.64 0 0.1 0.64 0 0 0.645 0 0.02 0.645 0 0.04 0.645 0 0.06 0.645 0 0.08 0.645 0 0.1 0.645 0 0 0.65 0 0.02 0.65 0 0.04 0.65 0 0.06 0.65 0 0.08 0.65 0 0.1 0.65 0 0 0.655 0 0.02 0.655 0 0.04 0.655 0 0.06 0.655 0 0.08 0.655 0 0.1 0.655 0 0 0.66 0 0.02 0.66 0 0.04 0.66 0 0.06 0.66 0 0.08 0.66 0 0.1 0.66 0 0 0.665 0 0.02 0.665 0 0.04 0.665 0 0.06 0.665 0 0.08 0.665 0 0.1 0.665 0 0 0.67 0 0.02 0.67 0 0.04 0.67 0 0.06 0.67 0 0.08 0.67 0 0.1 0.67 0 0 0.675 0 0.02 0.675 0 0.04 0.675 0 0.06 0.675 0 0.08 0.675 0 0.1 0.675 0 0 0.68 0 0.02 0.68 0 0.04 0.68 0 0.06 0.68 0 0.08 0.68 0 0.1 0.68 0 0 0.685 0 0.02 0.685 0 0.04 0.685 0 0.06 0.685 0 0.08 0.685 0 0.1 0.685 0 0 0.69 0 0.02 0.69 0 0.04 0.69 0 0.06 0.69 0 0.08 0.69 0 0.1 
[...]
			<PointData Scalars="VitesseX">
				<DataArray Name="VitesseX" type="Float32" format="ascii">
 0 -2.62247e-14 5.285e-15 1.11041e-14 -2.28602e-14 0 0 -1.86424e-14 -6.36979e-15 2.18953e-14 -3.0587e-14 0 0 -1.82464e-14 2.37361e-16 8.23035e-15 -2.37421e-14 0 0 -5.42259e-15 -6.58987e-15 -6.8028e-15 -6.48581e-15 0 0 2.16797e-14 -4.61888e-14 1.65644e-14 -4.14889e-15 0 0 1.33081e-14 -3.87396e-14 1.64666e-14 1.06989e-14 0 0 -3.24303e-14 2.49799e-14 -2.06535e-14 4.07905e-14 0 0 -5.35578e-14 5.44397e-14 -1.9532e-14 3.83751e-14 0 0 -3.24339e-14 3.13366e-14 1.48942e-14 2.40338e-14 0 0 6.67909e-15 -2.00874e-14 7.18203e-14 2.85343e-16 0 0 3.82119e-14 -5.91247e-14 1.13541e-13 -2.50548e-14 0 0 6.65981e-15 6.43379e-15 4.06641e-14 1.36989e-14 0 0 2.02561e-15 2.70961e-14 1.28965e-14 2.59901e-14 0 0 1.2254e-14 1.41296e-15 3.33661e-14 4.60962e-15 0 0 2.31735e-14 -2.19684e-14 2.66369e-14 1.56651e-14 0 0 3.56968e-14 -3.65515e-14 2.49471e-14 4.75759e-15 0 0 5.57822e-15 2.12227e-14 -2.91663e-14 4.19955e-15 0 0 6.03092e-14 -5.08379e-14 1.54503e-14 -1.30955e-15 0 0 9.8859e-14 -1.18486e-13 8.80435e-14 -2.95741e-14 0 0 2.10586e-14 -2.06239e-14 4.83768e-14 -3.74806e-14 0 0 -6.87726e-14 9.48163e-14 -2.68742e-14 -1.57148e-14 0 0 -5.90621e-14 8.94819e-14 -4.30273e-14 -5.96976e-15 0 0 1.81932e-14 -3.66486e-14 3.90953e-14 -3.09146e-14 0 0 -3.59077e-15 -3.15053e-14 7.76144e-15 6.16686e-15 0 0 -7.61901e-14 3.12265e-14 -2.86825e-14 1.62999e-14 0 0 -1.05553e-13 3.76863e-14 -2.30878e-14 1.50177e-14 0 0 -6.00224e-14 -1.30994e-15 -4.11386e-14 4.75658e-14 0 0 2.61178e-14 -1.05589e-13 2.43057e-14 2.72375e-14 0 0 -2.10395e-14 -3.69469e-14 -1.81597e-14 4.5933e-14 0 0 -9.89217e-14 7.7335e-14 -9.46735e-14 6.83662e-14 0 0 -9.36931e-14 8.55481e-14 -7.97044e-14 4.80094e-14 0 0 -3.43464e-14 2.59493e-14 -1.27514e-14 2.5313e-14 0 0 1.92164e-14 -5.03758e-14 7.06314e-14 3.92048e-15 0 0 1.0979e-14 -6.21358e-14 1.26761e-13 -5.80858e-14 0 0 -6.0379e-14 5.21033e-14 3.96922e-14 -4.51774e-14 0 0 -1.38798e-13 1.90529e-13 -8.04811e-14 -7.85552e-15 0 0 -4.214e-14 5.29765e-14 2.85137e-14 -7.18627e-14 0 0 4.72571e-14 -1.00992e-13 1.66208e-13 -1.24343e-13 0 0 6.34278e-14 -1.44016e-13 2.21954e-13 -1.65634e-13 0 0 -2.35229e-14 -4.39135e-15 1.02541e-13 -1.38708e-13 0 0 -9.71192e-14 1.38884e-13 -5.44911e-14 -2.29315e-14 0 0 -5.29299e-14 7.39811e-14 5.96522e-15 -2.73937e-14 0 0 -6.86699e-14 4.66844e-14 4.81687e-14 -4.47803e-14 0 0 -2.25603e-13 1.90166e-13 -6.33881e-14 5.93851e-14 0 0 -2.62924e-13 1.72168e-13 -6.66051e-15 4.02682e-15 0 0 -1.59594e-13 3.55062e-14 8.02781e-14 -7.13164e-14 0 0 -1.2938e-15 -1.44085e-13 1.5766e-13 -8.13994e-14 0 0 6.82045e-14 -2.04562e-13 2.16142e-13 -1.66691e-13 0 0 -6.69424e-14 1.94591e-14 1.00753e-13 -2.15025e-13 0 0 -2.83785e-13 3.57974e-13 -1.15127e-13 -1.83789e-13 0 0 -4.01719e-13 5.80003e-13 -3.02651e-13 -9.65855e-14 0 0 -9.19276e-14 2.66093e-13 -1.94183e-13 -5.78961e-14 0 0 1.40834e-13 6.14424e-15 -4.66772e-14 -1.62964e-13 0 0 1.41893e-13 -6.20652e-14 1.23476e-13 -3.85105e-13 0 0 -6.17351e-14 7.85791e-14 9.45351e-14 -3.80898e-13 0 0 -2.61355e-13 2.74042e-13 -1.25955e-13 -1.85999e-13 0 0 -9.09346e-14 1.12673e-13 -9.01807e-14 -2.0389e-13 0 0 -7.13161e-14 2.43684e-13 -3.17386e-13 -1.05584e-13 0 0 -6.61087e-14 2.95496e-13 -4.37008e-13 -3.02363e-15 0 0 -6.03225e-14 1.69803e-13 -2.28005e-13 -1.15204e-13 0 0 -9.0901e-14 5.14722e-14 -1.86145e-14 -2.59394e-13 0 0 5.91091e-15 -1.4365e-13 9.10642e-14 -3.18229e-13 0 0 -5.47126e-14 7.32409e-14 -2.12828e-13 -1.70423e-13 0 0 -5.06714e-14 1.80988e-13 -3.66122e-13 -6.13713e-14 0 0 -2.89227e-14 1.37378e-13 -3.4592e-13 2.1039e-14 0 0 -3.48791e-14 4.87245e-14 -1.65174e-13 -2.84102e-14 0 0 4.18006e-14 -1.71896e-13 1.91435e-13 -1.9037e-13 0 0 -1.33296e-13 9.56138e-14 5.68438e-14 -1.18366e-13 0 0 -2.24578e-13 3.00681e-13 -1.02662e-13 -4.56926e-14 0 0 -3.45544e-14 5.25641e-14 1.53341e-13 -1.79467e-13 0 0 -9.22727e-15 4.44425e-14 1.68317e-13 -1.69945e-13 0 0 4.5684e-14 5.32235e-14 1.27083e-13 -2.29924e-13 0 0 -1.34689e-13 3.52251e-13 -8.74693e-14 -2.92649e-13 0 0 -1.63709e-13 4.20477e-13 -1.30694e-13 -3.63597e-13 0 0 3.83199e-14 1.7453e-13 1.43753e-14 -3.62848e-13 0 0 1.61887e-13 -2.39757e-14 1.32763e-13 -2.80769e-13 0 0 1.24524e-13 5.42777e-14 6.54178e-14 -2.31253e-13 0 0 -1.63087e-13 5.52485e-13 -3.31193e-13 1.28573e-14 0 0 -3.94241e-14 3.89403e-13 -1.20639e-13 3.3909e-15 0 0 6.31934e-14 2.34867e-13 1.27667e-14 -1.8196e-14 0 0 9.2819e-14 1.77132e-13 -5.94225e-14 1.11677e-13 0 0 2.52072e-13 -1.99099e-13 2.53723e-13 -9.52288e-15 0 0 -6.26909e-15 -1.32104e-13 4.29123e-13 -2.10715e-13 0 0 -1.07267e-13 -1.03333e-13 3.37455e-13 -4.18046e-15 0 0 -1.99527e-14 -6.11841e-14 -1.12758e-14 4.58483e-13 0 0 -7.12555e-14 -1.10984e-14 -6.80979e-14 4.30603e-13 0 0 3.33577e-13 -4.99329e-13 1.64235e-13 2.60381e-13 0 0 1.01892e-13 -3.42466e-13 -4.93554e-14 3.88617e-13 0 0 -7.70447e-13 3.33986e-13 -2.92032e-13 3.82573e-13 0 0 -3.80312e-13 -2.26805e-14 -1.47284e-13 6.05747e-13 0 0 2.22174e-13 -6.01213e-13 9.46155e-14 7.44792e-13 0 0 2.01827e-13 -5.51403e-13 1.61908e-13 5.35526e-13 0 0 -2.26345e-13 -1.46581e-13 2.25055e-13 1.88213e-13 0 0 -8.15837e-13 4.32923e-13 8.18705e-14 -8.22816e-14 0 0 -7.48704e-13 4.73223e-13 3.09647e-14 -1.40134e-13 0 0 -1.58328e-13 -3.79448e-14 2.35661e-13 -1.69062e-13 0 0 1.17396e-13 -1.31847e-13 1.399e-13 -6.16347e-14 0 0 1.7101e-13 -1.78525e-13 4.39496e-14 3.55892e-14 0 0 9.37531e-14 -1.76449e-13 -1.25911e-14 9.10084e-14 0 0 -6.4807e-14 -7.31094e-14 -5.6772e-14 6.98629e-14 0 0 -2.17085e-13 8.4169e-14 -1.23013e-13 1.71568e-14 0 0 -2.90049e-13 2.28438e-13 -2.27908e-13 -1.15763e-14 0 0 -2.78335e-13 3.27726e-13 -3.40103e-13 -3.5405e-14 0 0 -2.24798e-13 3.76699e-13 -4.13689e-13 -8.84687e-14 0 0 -1.64895e-13 3.63616e-13 -4.13075e-13 -1.8154e-13 0 0 -1.14969e-13 2.86313e-13 -3.45538e-13 -2.95354e-13 0 0 -7.3168e-14 1.45027e-13 -2.53571e-13 -3.83171e-13 0 0 -6.75951e-14 4.37191e-15 -1.89418e-13 -4.2839e-13 0 0 -8.4869e-14 -1.02871e-13 -1.80117e-13 -4.30388e-13 0 0 -1.31868e-13 -1.99944e-13 -1.59816e-13 -4.32403e-13 0 0 -1.93259e-13 -2.91192e-13 -1.14142e-13 -4.09672e-13 0 0 -1.90428e-13 -3.83471e-13 -1.16511e-13 -3.04279e-13 0 0 -2.02497e-13 -3.49431e-13 -2.2899e-13 -1.52081e-13 0 0 -2.34693e-13 -2.72567e-13 -2.96605e-13 -4.55465e-14 0 0 -2.29832e-13 -2.86253e-13 -1.99315e-13 -2.81922e-14 0 0 -1.56307e-13 -3.35048e-13 -9.48646e-14 -4.58876e-14 0 0 -1.26014e-13 -2.15406e-13 -2.09072e-13 3.59303e-14 0 0 -1.96289e-13 3.31985e-14 -4.16286e-13 1.40208e-13 0 0 -1.30778e-13 -1.69826e-14 -3.03695e-13 8.81858e-14 0 0 -1.68743e-14 -1.12371e-13 -1.90631e-13 5.27396e-14 0 0 3.9363e-14 -1.38153e-13 -1.15865e-13 -1.94224e-14 0 0 -9.31921e-14 6.74314e-14 -2.43004e-13 1.61302e-14 0 0 -2.68886e-13 3.50335e-13 -4.93227e-13 1.3873e-13 0 0 -1.18306e-14 -4.85437e-14 -5.76793e-14 -1.48538e-13 0 0 1.57088e-13 -2.54361e-13 7.64616e-14 -1.73739e-13 0 0 1.10186e-13 -1.42755e-13 -8.66812e-14 -6.98757e-14 0 0 -9.5955e-14 9.04992e-14 -2.37781e-13 1.72557e-15 0 0 -3.32472e-13 4.05045e-13 -4.78137e-13 1.67458e-13 0 0 -1.07817e-13 9.25316e-14 -2.61397e-13 8.85285e-14 0 0 1.15192e-13 -1.70751e-13 -1.69691e-13 1.21712e-13 0 0 1.31698e-13 -1.98875e-13 -1.67522e-13 7.53256e-14 0 0 -6.64481e-14 1.79829e-14 -2.96004e-13 2.5068e-14 0 0 -2.95568e-13 3.01538e-13 -4.94702e-13 5.53022e-14 0 0 -8.8894e-14 -8.22035e-14 -1.69083e-13 -1.13463e-13 0 0 8.24815e-14 -3.61625e-13 -5.73945e-14 -6.809e-14 0 0 3.11725e-14 -4.52902e-13 -7.67496e-15 -1.7416e-15 0 0 -1.79173e-13 -2.55543e-13 -1.44774e-13 6.90398e-14 0 0 -2.67204e-13 -1.44789e-14 -3.70693e-13 1.35066e-13 0 0 -6.88138e-14 -2.28996e-13 -1.03154e-13 -9.60917e-14 0 0 -2.07159e-13 -3.43816e-14 -2.47294e-13 2.12415e-14 0 0 -2.96177e-13 -9.68208e-14 -8.1001e-14 -3.97911e-14 0 0 -1.36494e-13 -5.35117e-13 5.9483e-13 -4.77598e-13 0 0 -5.35485e-13 1.37474e-13 -1.93222e-14 -4.08825e-14 0 0 -6.71687e-13 3.99022e-13 -2.65915e-13 2.45727e-13 0 0 -8.13074e-14 -4.82157e-13 6.06112e-13 -1.27527e-13 0 0 1.70927e-13 -5.88413e-13 5.68433e-13 -2.02435e-13 0 0 -1.04081e-13 -5.18446e-14 2.11437e-13 -2.13267e-13 0 0 -5.35712e-13 6.05409e-13 -1.4795e-13 -6.97043e-14 0 0 -4.74271e-13 5.42853e-13 -2.46221e-15 -8.67478e-14 0 0 1.07412e-13 -5.34104e-13 1.01731e-12 -4.26604e-13 0 0 3.13329e-14 -5.57017e-13 1.03324e-12 -4.36144e-13 0 0 -3.84581e-13 1.0348e-13 3.34591e-13 -8.88229e-14 0 0 -5.23887e-13 4.64774e-13 -4.25392e-13 5.58535e-13 0 0 -3.89332e-13 2.2115e-13 -4.54862e-13 6.02989e-13 0 0 4.03656e-14 -4.19735e-13 8.8938e-16 2.40626e-13 0 0 1.54231e-13 -5.75973e-13 1.56987e-13 6.98921e-15 0 0 -2.68933e-13 -9.50257e-14 -6.98474e-15 -4.03132e-14 0 0 -7.42105e-13 4.55867e-13 -4.15136e-13 9.86377e-14 0 0 -3.73494e-13 -2.70032e-13 2.13152e-13 -4.13747e-13 0 0 3.95486e-13 -1.33826e-12 8.80433e-13 -8.81142e-13 0 0 2.49137e-13 -1.11511e-12 4.79014e-13 -7.72058e-13 0 0 -8.39193e-13 4.45978e-13 -9.37082e-13 -7.9332e-14 0 0 -1.27028e-12 1.07027e-12 -1.49508e-12 4.29674e-13 0 0 -4.1651e-13 -1.56124e-13 -4.82883e-13 2.24853e-13 0 0 3.34989e-13 -1.21298e-12 4.67629e-13 -1.64812e-14 0 0 1.14088e-13 -1.00665e-12 4.56393e-13 1.62111e-13 0 0 -5.6218e-13 -4.2485e-14 -5.55575e-13 7.05051e-13 0 0 -6.77198e-13 3.06994e-13 -1.29649e-12 9.66521e-13 0 0 -2.66172e-13 -2.11264e-13 -1.07854e-12 7.14972e-13 0 0 -3.179e-13 -2.11239e-13 -9.66665e-13 7.46349e-13 0 0 -3.69901e-13 -2.7751e-13 -5.52323e-13 3.81158e-13 0 0 4.45926e-14 -8.93379e-13 1.03668e-13 -2.5468e-13 0 0 -4.70195e-14 -6.16151e-13 -3.91923e-13 -3.85801e-14 0 0 -4.35105e-13 -1.45858e-13 -6.27381e-13 -2.51879e-13 0 0 -7.257e-13 1.59664e-13 -5.4785e-13 -6.14378e-13 0 0 -5.33001e-13 -3.59081e-14 -5.66424e-13 -3.87601e-13 0 0 9.77595e-14 -9.05552e-13 -8.2158e-14 -2.1053e-13 0 0 7.39303e-14 -8.20158e-13 -2.20412e-13 1.44444e-14 0 0 -4.32222e-13 -1.04588e-13 -7.874e-13 2.80831e-13 0 0 -8.82606e-13 5.50856e-13 -1.10981e-12 3.22104e-13 0 0 -6.13995e-13 1.68951e-13 -5.87664e-13 -1.88947e-14 0 0 2.91802e-14 -8.44356e-13 2.04141e-13 -4.25109e-13 0 0 1.31286e-13 -1.00612e-12 -3.1057e-14 -1.79095e-13 0 0 -3.1442e-13 -4.51118e-13 -4.05789e-13 -2.70078e-14 0 0 -8.38172e-13 3.15663e-13 -7.22002e-13 -1.57709e-13 0 0 -5.38591e-13 -1.73525e-13 -1.397e-13 -5.42152e-13 0 0 8.87467e-14 -1.03716e-12 6.45193e-13 -9.69421e-13 0 0 -6.2388e-14 -7.42935e-13 2.01393e-13 -5.022e-13 0 0 -6.98851e-13 -1.22984e-13 -2.4627e-14 -2.7599e-13 0 0 -1.30483e-12 7.1856e-13 -5.39605e-13 -2.24211e-13 0 0 -7.34717e-13 -4.35325e-14 1.30576e-14 -5.62198e-13 0 0 1.64319e-14 -1.09459e-12 9.19297e-13 -1.06775e-12 0 0 -9.46394e-13 4.19128e-13 -4.77242e-13 -2.8309e-13 0 0 -1.45046e-12 9.5265e-13 -6.74855e-13 -2.17271e-13 0 0 -5.2416e-13 -4.09188e-13 6.6764e-13 -1.05578e-12 0 0 4.43202e-13 -1.57427e-12 1.57534e-12 -1.65477e-12 0 0 5.07583e-14 -8.99957e-13 1.23124e-12 -1.76696e-12 0 0 -1.33912e-12 1.15102e-12 -3.9745e-13 -1.05306e-12 0 0 -1.38486e-12 1.19242e-12 -5.45393e-13 -1.06603e-12 0 0 1.4861e-15 -7.32498e-13 8.45337e-13 -1.73371e-12 0 0 8.01611e-13 -1.77295e-12 1.50792e-12 -1.88508e-12 0
				</DataArray>
				<DataArray Name="VitesseY" type="Float32" format="ascii">