<?xml version="1.0"?>
<VTKFile type="PolyData">
	<PolyData>
		<Piece NumberOfPoints="1206" NumberOfPolys="1000">
			<Points>
				<DataArray type="Float32" NumberOfComponents="3" format="ascii">
 0 0 0 0.02 0 0 0.04 0 0 0.06 0 0 0.08 0 0 0.1 0 0 0 0.005 0 0.02 0.005 0 0.04 0.005 0 0.06 0.005 0 0.08 0.005 0 0.1 0.005 0 0 0.01 0 0.02 0.01 0 0.04 0.01 0 0.06 0.01 0 0.08 0.01 0 0.1 0.01 0 0 0.015 0 0.02 0.015 0 0.04 0.015 0 0.06 0.015 0 0.08 0.015 0 0.1 0.015 0 0 0.02 0 0.02 0.02 0 0.04 0.02 0 0.06 0.02 0 0.08 0.02 0 0.1 0.02 0 0 0.025 0 0.02 0.025 0 0.04 0.025 0 0.06 0.025 0 0.08 0.025 0 0.1 0.025 0 0 0.03 0 0.02 0.03 0 0.04 0.03 0 0.06 0.03 0 0.08 0.03 0 0.1 0.03 0 0 0.035 0 0.02 0.035 0 0.04 0.035 0 0.06 0.035 0 0.08 0.035 0 0.1 0.035 0 0 0.04 0 0.02 0.04 0 0.04 0.04 0 0.06 0.04 0 0.08 0.04 0 0.1 0.04 0 0 0.045 0 0.02 0.045 0 0.04 0.045 0 0.06 0.045 0 0.08 0.045 0 0.1 0.045 0 0 0.05 0 0.02 0.05 0 0.04 0.05 0 0.06 0.05 0 0.08 0.05 0 0.1 0.05 0 0 0.055 0 0.02 0.055 0 0.04 0.055 0 0.06 0.055 0 0.08 0.055 0 0.1 0.055 0 0 0.06 0 0.02 0.06 0 0.04 0.06 0 0.06 0.06 0 0.08 0.06 0 0.1 0.06 0 0 0.065 0 0.02 0.065 0 0.04 0.065 0 0.06 0.065 0 0.08 0.065 0 0.1 0.065 0 0 0.07 0 0.02 0.07 0 0.04 0.07 0 0.06 0.07 0 0.08 0.07 0 0.1 0.07 0 0 0.075 0 0.02 0.075 0 0.04 0.075 0 0.06 0.075 0 0.08 0.075 0 0.1 0.075 0 0 0.08 0 0.02 0.08 0 0.04 0.08 0 0.06 0.08 0 0.08 0.08 0 0.1 0.08 0 0 0.085 0 0.02 0.085 0 0.04 0.085 0 0.06 0.085 0 0.08 0.085 0 0.1 0.085 0 0 0.09 0 0.02 0.09 0 0.04 0.09 0 0.06 0.09 0 0.08 0.09 0 0.1 0.09 0 0 0.095 0 0.02 0.095 0 0.04 0.095 0 0.06 0.095 0 0.08 0.095 0 0.1 0.095 0 0 0.1 0 0.02 0.1 0 0.04 0.1 0 0.06 0.1 0 0.08 0.1 0 0.1 0.1 0 0 0.105 0 0.02 0.105 0 0.04 0.105 0 0.06 0.105 0 0.08 0.105 0 0.1 0.105 0 0 0.11 0 0.02 0.11 0 0.04 0.11 0 0.06 0.11 0 0.08 0.11 0 0.1 0.11 0 0 0.115 0 0.02 0.115 0 0.04 0.115 0 0.06 0.115 0 0.08 0.115 0 0.1 0.115 0 0 0.12 0 0.02 0.12 0 0.04 0.12 0 0.06 0.12 0 0.08 0.12 0 0.1 0.12 0 0 0.125 0 0.02 0.125 0 0.04 0.125 0 0.06 0.125 0 0.08 0.125 0 0.1 0.125 0 0 0.13 0 0.02 0.13 0 0.04 0.13 0 0.06 0.13 0 0.08 0.13 0 0.1 0.13 0 0 0.135 0 0.02 0.135 0 0.04 0.135 0 0.06 0.135 0 0.08 0.135 0 0.1 0.135 0 0 0.14 0 0.02 0.14 0 0.04 0.14 0 0.06 0.14 0 0.08 0.14 0 0.1 0.14 0 0 0.145 0 0.02 0.145 0 0.04 0.145 0 0.06 0.145 0 0.08 0.145 0 0.1 0.145 0 0 0.15 0 0.02 0.15 0 0.04 0.15 0 0.06 0.15 0 0.08 0.15 0 0.1 0.15 0 0 0.155 0 0.02 0.155 0 0.04 0.155 0 0.06 0.155 0 0.08 0.155 0 0.1 0.155 0 0 0.16 0 0.02 0.16 0 0.04 0.16 0 0.06 0.16 0 0.08 0.16 0 0.1 0.16 0 0 0.165 0 0.02 0.165 0 0.04 0.165 0 0.06 0.165 0 0.08 0.165 0 0.1 0.165 0 0 0.17 0 0.02 0.17 0 0.04 0.17 0 0.06 0.17 0 0.08 0.17 0 0.1 0.17 0 0 0.175 0 0.02 0.175 0 0.04 0.175 0 0.06 0.175 0 0.08 0.175 0 0.1 0.175 0 0 0.18 0 0.02 0.18 0 0.04 0.18 0 0.06 0.18 0 0.08 0.18 0 0.1 0.18 0 0 0.185 0 0.02 0.185 0 0.04 0.185 0 0.06 0.185 0 0.08 0.185 0 0.1 0.185 0 0 0.19 0 0.02 0.19 0 0.04 0.19 0 0.06 0.19 0 0.08 0.19 0 0.1 0.19 0 0 0.195 0 0.02 0.195 0 0.04 0.195 0 0.06 0.195 0 0.08 0.195 0 0.1 0.195 0 0 0.2 0 0.02 0.2 0 0.04 0.2 0 0.06 0.2 0 0.08 0.2 0 0.1 0.2 0 0 0.205 0 0.02 0.205 0 0.04 0.205 0 0.06 0.205 0 0.08 0.205 0 0.1 0.205 0 0 0.21 0 0.02 0.21 0 0.04 0.21 0 0.06 0.21 0 0.08 0.21 0 0.1 0.21 0 0 0.215 0 0.02 0.215 0 0.04 0.215 0 0.06 0.215 0 0.08 0.215 0 0.1 0.215 0 0 0.22 0 0.02 0.22 0 0.04 0.22 0 0.06 0.22 0 0.08 0.22 0 0.1 0.22 0 0 0.225 0 0.02 0.225 0 0.04 0.225 0 0.06 0.225 0 0.08 0.225 0 0.1 0.225 0 0 0.23 0 0.02 0.23 0 0.04 0.23 0 0.06 0.23 0 0.08 0.23 0 0.1 0.23 0 0 0.235 0 0.02 0.235 0 0.04 0.235 0 0.06 0.235 0 0.08 0.235 0 0.1 0.235 0 0 0.24 0 0.02 0.24 0 0.04 0.24 0 0.06 0.24 0 0.08 0.24 0 0.1 0.24 0 0 0.245 0 0.02 0.245 0 0.04 0.245 0 0.06 0.245 0 0.08 0.245 0 0.1 0.245 0 0 0.25 0 0.02 0.25 0 0.04 0.25 0 0.06 0.25 0 0.08 0.25 0 0.1 0.25 0 0 0.255 0 0.02 0.255 0 0.04 0.255 0 0.06 0.255 0 0.08 0.255 0 0.1 0.255 0 0 0.26 0 0.02 0.26 0 0.04 0.26 0 0.06 0.26 0 0.08 0.26 0 0.1 0.26 0 0 0.265 0 0.02 0.265 0 0.04 0.265 0 0.06 0.265 0 0.08 0.265 0 0.1 0.265 0 0 0.27 0 0.02 0.27 0 0.04 0.27 0 0.06 0.27 0 0.08 0.27 0 0.1 0.27 0 0 0.275 0 0.02 0.275 0 0.04 0.275 0 0.06 0.275 0 0.08 0.275 0 0.1 0.275 0 0 0.28 0 0.02 0.28 0 0.04 0.28 0 0.06 0.28 0 0.08 0.28 0 0.1 0.28 0 0 0.285 0 0.02 0.285 0 0.04 0.285 0 0.06 0.285 0 0.08 0.285 0 0.1 0.285 0 0 0.29 0 0.02 0.29 0 0.04 0.29 0 0.06 0.29 0 0.08 0.29 0 0.1 0.29 0 0 0.295 0 0.02 0.295 0 0.04 0.295 0 0.06 0.295 0 0.08 0.295 0 0.1 0.295 0 0 0.3 0 0.02 0.3 0 0.04 0.3 0 0.06 0.3 0 0.08 0.3 0 0.1 0.3 0 0 0.305 0 0.02 0.305 0 0.04 0.305 0 0.06 0.305 0 0.08 0.305 0 0.1 0.305 0 0 0.31 0 0.02 0.31 0 0.04 0.31 0 0.06 0.31 0 0.08 0.31 0 0.1 0.31 0 0 0.315 0 0.02 0.315 0 0.04 0.315 0 0.06 0.315 0 0.08 0.315 0 0.1 0.315 0 0 0.32 0 0.02 0.32 0 0.04 0.32 0 0.06 0.32 0 0.08 0.32 0 0.1 0.32 0 0 0.325 0 0.02 0.325 0 0.04 0.325 0 0.06 0.325 0 0.08 0.325 0 0.1 0.325 0 0 0.33 0 0.02 0.33 0 0.04 0.33 0 0.06 0.33 0 0.08 0.33 0 0.1 0.33 0 0 0.335 0 0.02 0.335 0 0.04 0.335 0 0.06 0.335 0 0.08 0.335 0 0.1 0.335 0 0 0.34 0 0.02 0.34 0 0.04 0.34 0 0.06 0.34 0 0.08 0.34 0 0.1 0.34 0 0 0.345 0 0.02 0.345 0 0.04 0.345 0 0.06 0.345 0 0.08 0.345 0 0.1 0.345 0 0 0.35 0 0.02 0.35 0 0.04 0.35 0 0.06 0.35 0 0.08 0.35 0 0.1 0.35 0 0 0.355 0 0.02 0.355 0 0.04 0.355 0 0.06 0.355 0 0.08 0.355 0 0.1 0.355 0 0 0.36 0 0.02 0.36 0 0.04 0.36 0 0.06 0.36 0 0.08 0.36 0 0.1 0.36 0 0 0.365 0 0.02 0.365 0 0.04 0.365 0 0.06 0.365 0 0.08 0.365 0 0.1 0.365 0 0 0.37 0 0.02 0.37 0 0.04 0.37 0 0.06 0.37 0 0.08 0.37 0 0.1 0.37 0 0 0.375 0 0.02 0.375 0 0.04 0.375 0 0.06 0.375 0 0.08 0.375 0 0.1 0.375 0 0 0.38 0 0.02 0.38 0 0.04 0.38 0 0.06 0.38 0 0.08 0.38 0 0.1 0.38 0 0 0.385 0 0.02 0.385 0 0.04 0.385 0 0.06 0.385 0 0.08 0.385 0 0.1 0.385 0 0 0.39 0 0.02 0.39 0 0.04 0.39 0 0.06 0.39 0 0.08 0.39 0 0.1 0.39 0 0 0.395 0 0.02 0.395 0 0.04 0.395 0 0.06 0.395 0 0.08 0.395 0 0.1 0.395 0 0 0.4 0 0.02 0.4 0 0.04 0.4 0 0.06 0.4 0 0.08 0.4 0 0.1 0.4 0 0 0.405 0 0.02 0.405 0 0.04 0.405 0 0.06 0.405 0 0.08 0.405 0 0.1 0.405 0 0 0.41 0 0.02 0.41 0 0.04 0.41 0 0.06 0.41 0 0.08 0.41 0 0.1 0.41 0 0 0.415 0 0.02 0.415 0 0.04 0.415 0 0.06 0.415 0 0.08 0.415 0 0.1 0.415 0 0 0.42 0 0.02 0.42 0 0.04 0.42 0 0.06 0.42 0 0.08 0.42 0 0.1 0.42 0 0 0.425 0 0.02 0.425 0 0.04 0.425 0 0.06 0.425 0 0.08 0.425 0 0.1 0.425 0 0 0.43 0 0.02 0.43 0 0.04 0.43 0 0.06 0.43 0 0.08 0.43 0 0.1 0.43 0 0 0.435 0 0.02 0.435 0 0.04 0.435 0 0.06 0.435 0 0.08 0.435 0 0.1 0.435 0 0 0.44 0 0.02 0.44 0 0.04 0.44 0 0.06 0.44 0 0.08 0.44 0 0.1 0.44 0 0 0.445 0 0.02 0.445 0 0.04 0.445 0 0.06 0.445 0 0.08 0.445 0 0.1 0.445 0 0 0.45 0 0.02 0.45 0 0.04 0.45 0 0.06 0.45 0 0.08 0.45 0 0.1 0.45 0 0 0.455 0 0.02 0.455 0 0.04 0.455 0 0.06 0.455 0 0.08 0.455 0 0.1 0.455 0 0 0.46 0 0.02 0.46 0 0.04 0.46 0 0.06 0.46 0 0.08 0.46 0 0.1 0.46 0 0 0.465 0 0.02 0.465 0 0.04 0.465 0 0.06 0.465 0 0.08 0.465 0 0.1 0.465 0 0 0.47 0 0.02 0.47 0 0.04 0.47 0 0.06 0.47 0 0.08 0.47 0 0.1 0.47 0 0 0.475 0 0.02 0.475 0 0.04 0.475 0 0.06 0.475 0 0.08 0.475 0 0.1 0.475 0 0 0.48 0 0.02 0.48 0 0.04 0.48 0 0.06 0.48 0 0.08 0.48 0 0.1 0.48 0 0 0.485 0 0.02 0.485 0 0.04 0.485 0 0.06 0.485 0 0.08 0.485 0 0.1 0.485 0 0 0.49 0 0.02 0.49 0 0.04 0.49 0 0.06 0.49 0 0.08 0.49 0 0.1 0.49 0 0 0.495 0 0.02 0.495 0 0.04 0.495 0 0.06 0.495 0 0.08 0.495 0 0.1 0.495 0 0 0.5 0 0.02 0.5 0 0.04 0.5 0 0.06 0.5 0 0.08 0.5 0 0.1 0.5 0 0 0.505 0 0.02 0.505 0 0.04 0.505 0 0.06 0.505 0 0.08 0.505 0 0.1 0.505 0 0 0.51 0 0.02 0.51 0 0.04 0.51 0 0.06 0.51 0 0.08 0.51 0 0.1 0.51 0 0 0.515 0 0.02 0.515 0 0.04 0.515 0 0.06 0.515 0 0.08 0.515 0 0.1 0.515 0 0 0.52 0 0.02 0.52 0 0.04 0.52 0 0.06 0.52 0 0.08 0.52 0 0.1 0.52 0 0 0.525 0 0.02 0.525 0 0.04 0.525 0 0.06 0.525 0 0.08 0.525 0 0.1 0.525 0 0 0.53 0 0.02 0.53 0 0.04 0.53 0 0.06 0.53 0 0.08 0.53 0 0.1 0.53 0 0 0.535 0 0.02 0.535 0 0.04 0.535 0 0.06 0.535 0 0.08 0.535 0 0.1 0.535 0 0 0.54 0 0.02 0.54 0 0.04 0.54 0 0.06 0.54 0 0.08 0.54 0 0.1 0.54 0 0 0.545 0 0.02 0.545 0 0.04 0.545 0 0.06 0.545 0 0.08 0.545 0 0.1 0.545 0 0 0.55 0 0.02 0.55 0 0.04 0.55 0 0.06 0.55 0 0.08 0.55 0 0.1 0.55 0 0 0.555 0 0.02 0.555 0 0.04 0.555 0 0.06 0.555 0 0.08 0.555 0 0.1 0.555 0 0 0.56 0 0.02 0.56 0 0.04 0.56 0 0.06 0.56 0 0.08 0.56 0 0.1 0.56 0 0 0.565 0 0.02 0.565 0 0.04 0.565 0 0.06 0.565 0 0.08 0.565 0 0.1 0.565 0 0 0.57 0 0.02 0.57 0 0.04 0.57 0 0.06 0.57 0 0.08 0.57 0 0.1 0.57 0 0 0.575 0 0.02 0.575 0 0.04 0.575 0 0.06 0.575 0 0.08 0.575 0 0.1 0.575 0 0 0.58 0 0.02 0.58 0 0.04 0.58 0 0.06 0.58 0 0.08 0.58 0 0.1 0.58 0 0 0.585 0 0.02 0.585 0 0.04 0.585 0 0.06 0.585 0 0.08 0.585 0 0.1 0.585 0 0 0.59 0 0.02 0.59 0 0.04 0.59 0 0.06 0.59 0 0.08 0.59 0 0.1 0.59 0 0 0.595 0 0.02 0.595 0 0.04 0.595 0 0.06 0.595 0 0.08 0.595 0 0.1 0.595 0 0 0.6 0 0.02 0.6 0 0.04 0.6 0 0.06 0.6 0 0.08 0.6 0 0.1 0.6 0 0 0.605 0 0.02 0.605 0 0.04 0.605 0 0.06 0.605 0 0.08 0.605 0 0.1 0.605 0 0 0.61 0 0.02 0.61 0 0.04 0.61 0 0.06 0.61 0 0.08 0.61 0 0.1 0.61 0 0 0.615 0 0.02 0.615 0 0.04 0.615 0 0.06 0.615 0 0.08 0.615 0 0.1 0.615 0 0 0.62 0 0.02 0.62 0 0.04 0.62 0 0.06 0.62 0 0.08 0.62 0 0.1 0.62 0 0 0.625 0 0.02 0.625 0 0.04 0.625 0 0.06 0.625 0 0.08 0.625 0 0.1 0.625 0 0 0.63 0 0.02 0.63 0 0.04 0.63 0 0.06 0.63 0 0.08 0.63 0 0.1 0.63 0 0 0.635 0 0.02 0.635 0 0.04 0.635 0 0.06 0.635 0 0.08 0.635 0 0.1 0.635 0 0 0.64 0 0.02 0.64 0 0.04 0.64 0 0.06 0.64 0 0.08 0.64 0 0.1 0.64 0 0 0.645 0 0.02 0.645 0 0.04 0.645 0 0.06 0.645 0 0.08 0.645 0 0.1 0.645 0 0 0.65 0 0.02 0.65 0 0.04 0.65 0 0.06 0.65 0 0.08 0.65 0 0.1 0.65 0 0 0.655 0 0.02 0.655 0 0.04 0.655 0 0.06 0.655 0 0.08 0.655 0 0.1 0.655 0 0 0.66 0 0.02 0.66 0 0.04 0.66 0 0.06 0.66 0 0.08 0.66 0 0.1 0.66 0 0 0.665 0 0.02 0.665 0 0.04 0.665 0 0.06 0.665 0 0.08 0.665 0 0.1 0.665 0 0 0.67 0 0.02 0.67 0 0.04 0.67 0 0.06 0.67 0 0.08 0.67 0 0.1 0.67 0 0 0.675 0 0.02 0.675 0 0.04 0.675 0 0.06 0.675 0 0.08 0.675 0 0.1 0.675 0 0 0.68 0 0.02 0.68 0 0.04 0.68 0 0.06 0.68 0 0.08 0.68 0 0.1 0.68 0 0 0.685 0 0.02 0.685 0 0.04 0.685 0 0.06 0.685 0 0.08 0.685 0 0.1 0.685 0 0 0.69 0 0.02 0.69 0 0.04 0.69 0 0.06 0.69 0 0.08 0.69 0 0.1 
[...]
			<PointData Scalars="VitesseX">
				<DataArray Name="VitesseX" type="Float32" format="ascii">
 0 8.3558e-16 -9.21036e-15 9.28808e-15 -2.51478e-14 0 0 5.81224e-15 -1.49879e-14 1.25237e-14 -2.23803e-14 0 0 2.19186e-15 -6.56091e-16 -9.98412e-15 6.08237e-15 0 0 2.32128e-14 -2.34748e-14 1.12739e-14 8.17865e-15 0 0 2.28473e-14 -1.29471e-14 1.42878e-14 1.02812e-14 0 0 -1.33802e-14 4.68972e-14 -1.99217e-14 2.72149e-14 0 0 -4.18607e-15 2.37618e-14 3.06383e-14 -5.64959e-15 0 0 2.32498e-14 -2.10817e-14 8.80321e-14 -3.84457e-14 0 0 1.06109e-14 8.31934e-15 7.37909e-14 -3.3064e-14 0 0 1.07754e-14 3.85652e-14 3.50762e-14 -4.69901e-15 0 0 5.68776e-14 -1.92698e-15 4.6553e-14 -3.52147e-15 0 0 3.87862e-14 3.56785e-14 -1.51974e-14 3.88039e-14 0 0 7.95848e-14 -4.21913e-14 4.72212e-14 -3.30691e-15 0 0 7.50903e-14 -2.99186e-14 2.54651e-14 -1.95436e-15 0 0 3.22371e-14 3.9492e-14 -4.24123e-14 3.31305e-14 0 0 8.00219e-14 -7.38645e-14 9.59431e-14 -4.36424e-14 0 0 1.38362e-14 2.68641e-14 7.28472e-15 2.81941e-14 0 0 2.29076e-14 3.75248e-14 1.21901e-14 1.8239e-14 0 0 5.06009e-14 2.95102e-15 7.00607e-14 -1.82978e-14 0 0 2.84479e-14 2.63989e-14 6.52236e-14 -1.06357e-14 0 0 7.87735e-14 -6.96182e-14 1.58014e-13 -8.80294e-14 0 0 7.08426e-14 -7.74459e-14 1.33402e-13 -7.8395e-14 0 0 -4.70508e-15 2.73801e-14 -3.10661e-15 1.20751e-14 0 0 -6.95109e-14 1.28148e-13 -1.16898e-13 7.02278e-14 0 0 4.3055e-14 -2.77326e-14 -2.42246e-15 1.07032e-14 0 0 1.66761e-13 -2.11569e-13 1.78396e-13 -7.71479e-14 0 0 2.1898e-14 -7.48641e-16 1.32373e-14 4.84956e-14 0 0 -5.81148e-14 1.21728e-13 -1.08062e-13 1.73773e-13 0 0 2.47802e-14 5.3456e-15 4.25419e-15 1.33475e-13 0 0 7.3636e-14 -5.73027e-14 6.48034e-14 9.00154e-14 0 0 3.15053e-14 1.57046e-14 1.00045e-14 1.03222e-13 0 0 2.95306e-14 2.73105e-14 1.16273e-14 4.84769e-14 0 0 5.16152e-14 8.32873e-15 2.57407e-14 -3.75594e-14 0 0 -3.86887e-14 1.51319e-13 -9.36299e-14 -4.97282e-15 0 0 6.16852e-14 -1.70853e-14 8.2065e-14 -1.19678e-13 0 0 1.17158e-13 -7.33567e-14 7.90069e-14 -9.08175e-14 0 0 9.89452e-14 -3.16477e-14 1.16127e-14 -1.69631e-14 0 0 4.85132e-14 5.23317e-14 -7.64545e-14 5.58187e-14 0 0 7.80658e-14 3.61341e-15 -3.26802e-14 3.79686e-14 0 0 1.13079e-13 -6.15573e-14 3.98492e-14 -1.3115e-14 0 0 2.80379e-15 4.84441e-14 2.70258e-15 -3.80989e-14 0 0 -4.38685e-15 -3.3963e-14 1.8315e-13 -1.87755e-13 0 0 -1.11931e-13 1.5023e-13 -1.08913e-14 -4.34504e-14 0 0 -5.29427e-14 1.47397e-13 -6.16384e-14 1.90746e-14 0 0 1.33875e-13 -8.70866e-14 1.61503e-13 -8.22651e-14 0 0 6.63367e-14 6.2359e-14 -2.56113e-14 1.00752e-13 0 0 1.13043e-13 6.73497e-14 -8.88881e-14 1.42852e-13 0 0 1.09511e-13 8.77564e-14 -1.09539e-13 1.01731e-13 0 0 1.48639e-14 1.79501e-13 -1.51645e-13 7.68888e-14 0 0 8.60015e-14 6.19028e-14 -3.90507e-15 -7.19778e-14 0 0 2.42085e-13 -1.15889e-13 1.2227e-13 -1.50545e-13 0 0 2.97153e-13 -1.66957e-13 1.32663e-13 -1.43249e-13 0 0 -1.12142e-13 4.56833e-13 -5.2981e-13 2.95014e-13 0 0 3.27055e-14 1.68977e-13 -2.68919e-13 2.10714e-13 0 0 3.57144e-13 -3.2248e-13 2.06592e-13 -1.08785e-13 0 0 1.75926e-13 2.67148e-14 -1.61512e-13 3.68921e-14 0 0 2.93536e-13 -1.48095e-13 -5.16964e-14 -3.13696e-14 0 0 1.48212e-13 1.41797e-13 -3.90534e-13 1.16667e-13 0 0 1.34895e-13 1.61055e-13 -3.96042e-13 3.78915e-14 0 0 3.61109e-13 -2.36971e-13 -5.10577e-14 -1.6653e-13 0 0 2.22229e-13 -6.50351e-14 -2.29917e-13 1.44893e-14 0 0 8.99022e-14 3.51712e-14 -1.80115e-13 -2.45433e-14 0 0 3.30298e-14 3.0835e-14 -4.67357e-14 -1.23571e-13 0 0 1.09642e-13 -1.38741e-13 1.48211e-13 -1.77545e-13 0 0 3.97114e-14 -1.17559e-14 6.82294e-14 -1.16989e-13 0 0 -6.16914e-14 1.80515e-13 -8.50973e-14 -3.18592e-14 0 0 1.31315e-14 8.80112e-14 -1.2266e-14 -5.09293e-14 0 0 2.38577e-14 1.29136e-13 -1.06368e-13 5.95672e-14 0 0 2.14236e-13 -7.36455e-14 5.45554e-14 -3.3239e-14 0 0 2.67182e-13 -6.62005e-14 4.4494e-14 -8.41064e-14 0 0 4.68192e-14 3.24381e-13 -3.1581e-13 5.38339e-14 0 0 2.04928e-13 7.29598e-14 -2.03509e-14 -1.80116e-13 0 0 3.64623e-13 -1.36603e-13 1.15577e-13 -1.80258e-13 0 0 4.84377e-13 -3.27065e-13 2.81103e-13 -1.9697e-13 0 0 2.35801e-13 3.61012e-14 1.0315e-14 -8.54506e-14 0 0 1.22365e-13 3.76159e-13 -3.231e-13 1.0015e-13 0 0 6.23805e-13 -1.93283e-13 1.83795e-13 -1.31333e-13 0 0 5.20089e-13 2.87367e-14 4.07664e-14 -9.25924e-14 0 0 4.04e-13 1.20136e-13 2.13129e-13 -3.55052e-13 0 0 2.0159e-13 4.05661e-13 -1.02738e-13 -5.42109e-15 0 0 4.53571e-13 3.07347e-14 1.96519e-14 2.67765e-13 0 0 6.38181e-13 -4.37814e-13 5.39123e-13 1.66517e-13 0 0 -1.23751e-13 6.27976e-13 -4.08584e-13 8.10399e-13 0 0 2.36293e-13 5.80669e-14 1.86005e-13 3.43835e-13 0 0 9.0612e-13 -1.03079e-12 1.25027e-12 -3.87127e-13 0 0 1.11214e-14 1.32962e-13 8.10842e-14 4.38863e-13 0 0 -9.10225e-13 8.33539e-13 -2.5058e-13 6.85536e-13 0 0 -2.72173e-13 -8.19349e-14 6.34201e-13 2.2027e-13 0 0 4.73282e-13 -3.86415e-13 1.9035e-13 8.06312e-13 0 0 5.41759e-13 -5.16501e-13 4.55854e-13 3.68098e-13 0 0 -2.12864e-14 1.59212e-13 3.28783e-13 5.20451e-16 0 0 -5.674e-13 8.90328e-13 -2.65549e-13 3.18559e-13 0 0 -3.93019e-13 5.26415e-13 1.32913e-13 1.05951e-13 0 0 2.39414e-14 -4.69962e-14 3.95431e-13 1.55002e-13 0 0 1.85844e-13 -3.30199e-13 4.24583e-13 2.51537e-13 0 0 7.60851e-14 -3.24838e-13 4.73051e-13 1.41381e-13 0 0 -1.47326e-13 -8.63243e-14 2.90889e-13 1.38543e-13 0 0 -2.47104e-13 1.56825e-13 -4.70664e-14 2.87782e-13 0 0 -1.47274e-13 2.21246e-13 -3.24595e-13 4.69712e-13 0 0 4.37478e-14 1.1527e-13 -4.40639e-13 5.87611e-13 0 0 1.83924e-13 -3.67157e-14 -4.19444e-13 6.0383e-13 0 0 2.06577e-13 -1.28851e-13 -3.36046e-13 5.44196e-13 0 0 1.31028e-13 -1.29879e-13 -2.39291e-13 4.27636e-13 0 0 1.54773e-14 -5.88007e-14 -1.58292e-13 2.77655e-13 0 0 -7.14116e-14 2.25589e-14 -8.91222e-14 1.15318e-13 0 0 -9.86617e-14 6.7636e-14 -1.82779e-14 -4.62159e-14 0 0 -7.92635e-14 7.51413e-14 4.02363e-14 -1.86171e-13 0 0 -3.47104e-14 5.31816e-14 7.77063e-14 -2.86101e-13 0 0 -3.01511e-15 2.07214e-14 1.08333e-13 -3.56085e-13 0 0 -3.85024e-15 -1.32966e-14 8.15712e-14 -3.24992e-13 0 0 -1.65731e-14 -8.10363e-14 6.02315e-14 -3.00415e-13 0 0 -4.3215e-14 -1.27975e-13 3.92014e-14 -3.22125e-13 0 0 -6.35912e-14 -1.63002e-13 -7.96828e-15 -2.84091e-13 0 0 -7.83153e-14 -2.09113e-13 -2.904e-14 -2.50175e-13 0 0 -1.05718e-13 -1.88808e-13 -1.19974e-13 -1.55097e-13 0 0 -1.07179e-13 -1.81768e-13 -1.66894e-13 -4.02536e-14 0 0 -8.52092e-14 -1.60275e-13 -1.71547e-13 -3.03892e-14 0 0 -8.87972e-14 -6.31257e-14 -2.33921e-13 -6.75649e-14 0 0 -6.92996e-14 -6.01247e-14 -1.66689e-13 -3.39424e-14 0 0 3.81758e-15 -1.32451e-13 1.6772e-14 -4.47932e-14 0 0 -5.34999e-15 2.15544e-14 -1.36886e-13 6.0922e-14 0 0 1.58148e-14 1.05305e-13 -2.21907e-13 1.18996e-13 0 0 1.71537e-13 -7.23478e-14 3.54756e-14 -1.01547e-13 0 0 1.53285e-13 4.04767e-14 -3.15603e-14 -1.29148e-13 0 0 1.98539e-13 8.41496e-15 2.47816e-16 -1.20949e-13 0 0 1.24011e-13 1.44839e-13 -1.64099e-13 5.79098e-14 0 0 5.68147e-14 2.39689e-13 -2.5365e-13 1.26947e-13 0 0 2.65928e-13 -1.20525e-13 1.00028e-13 -6.68285e-14 0 0 1.67266e-13 4.66229e-14 -1.15956e-13 1.21771e-13 0 0 1.93751e-13 1.76825e-14 -9.03255e-14 4.41789e-14 0 0 1.91311e-13 -2.12808e-14 -4.76426e-14 1.1193e-14 0 0 1.01458e-13 6.30892e-14 -1.37974e-13 6.59794e-14 0 0 3.04474e-13 -3.10594e-13 2.09355e-13 -1.48923e-13 0 0 1.69532e-13 -1.4042e-13 -5.39159e-14 8.16539e-14 0 0 1.74802e-13 -1.93379e-13 -1.03524e-13 1.69933e-13 0 0 1.02103e-13 -1.15214e-13 -2.24358e-13 3.07523e-13 0 0 -9.61333e-15 5.35902e-14 -3.37994e-13 3.47725e-13 0 0 2.97522e-13 -4.568e-13 2.96707e-13 -9.89444e-14 0 0 -5.23862e-14 4.18523e-14 -1.04651e-14 -2.31602e-14 0 0 -1.98897e-13 2.31602e-13 -3.13754e-14 -3.96708e-14 0 0 6.68788e-15 -6.6643e-14 3.22539e-13 -7.55561e-14 0 0 -2.48581e-13 3.67024e-13 -9.28574e-14 2.65092e-13 0 0 1.09187e-13 -2.26442e-13 4.8874e-13 -6.31967e-14 0 0 2.16943e-13 -4.39501e-13 6.2805e-13 -1.40782e-13 0 0 -1.42013e-13 1.35144e-13 8.55434e-15 1.4767e-13 0 0 1.86678e-13 -3.96528e-13 6.26103e-13 -2.60573e-13 0 0 -1.28329e-13 1.70563e-13 1.90237e-13 -2.62845e-14 0 0 -4.0543e-14 2.27848e-13 1.95794e-13 1.16703e-14 0 0 2.70636e-13 -1.0891e-13 6.21915e-13 -1.84874e-13 0 0 -4.18491e-14 4.54652e-13 1.21359e-13 1.31913e-14 0 0 3.65755e-13 -2.47016e-13 7.08336e-13 -3.8155e-13 0 0 7.09921e-14 1.08036e-13 2.95732e-13 -1.42592e-13 0 0 -1.17461e-14 2.72186e-13 2.1757e-14 -6.77318e-14 0 0 2.87008e-13 -2.3521e-14 -3.65986e-15 8.28476e-14 0 0 2.3754e-13 -3.88445e-14 -1.04898e-13 3.03834e-13 0 0 6.28933e-15 -6.95298e-14 9.22876e-14 2.77021e-13 0 0 -2.81874e-13 1.25961e-13 5.70244e-14 2.72492e-13 0 0 -2.90702e-14 -1.53396e-13 1.96037e-13 2.24525e-14 0 0 1.7862e-13 -2.90777e-13 5.79959e-14 3.12758e-14 0 0 2.9556e-13 -6.17965e-13 4.51594e-13 -3.54102e-13 0 0 -1.05006e-13 -2.74245e-13 2.90512e-13 -3.22543e-13 0 0 -3.93993e-13 -1.2776e-14 1.32216e-13 -1.55035e-13 0 0 -2.5257e-13 -2.58457e-13 2.79603e-13 -6.61552e-14 0 0 -3.24786e-13 -7.55442e-14 -2.09964e-13 6.26635e-13 0 0 -7.9487e-14 -3.97139e-13 -1.63514e-13 1.00681e-12 0 0 1.3118e-13 -6.75662e-13 1.85509e-14 9.49539e-13 0 0 -2.46926e-14 -4.33537e-13 -9.59011e-14 8.06684e-13 0 0 -1.43544e-13 -3.6898e-13 1.70916e-13 4.11227e-13 0 0 -4.68073e-13 5.78572e-14 -4.91139e-14 3.36695e-13 0 0 -2.942e-13 -9.13949e-14 -2.12095e-13 3.4955e-13 0 0 1.27851e-14 -4.32364e-13 -3.31976e-13 4.52051e-13 0 0 -1.58167e-13 -1.55623e-13 -6.47689e-13 5.69599e-13 0 0 6.38901e-14 -5.56047e-13 9.19263e-14 -1.05113e-13 0 0 -2.32594e-13 -1.36575e-13 -6.5535e-14 -1.13911e-13 0 0 -3.05625e-13 -1.81804e-13 3.97132e-14 -2.32648e-13 0 0 -2.60804e-14 -6.46351e-13 3.84317e-13 -4.35037e-13 0 0 -8.86308e-14 -2.5526e-13 -3.51259e-13 8.3137e-14 0 0 2.08586e-13 -6.6261e-13 -1.06824e-13 6.46629e-14 0 0 -3.77336e-13 2.8742e-14 -5.3853e-13 4.44191e-13 0 0 -6.29231e-13 1.14693e-13 -3.19132e-13 3.68496e-13 0 0 -2.54829e-13 -5.30881e-13 2.3112e-13 1.48468e-13 0 0 -2.1268e-13 -3.37832e-13 -2.76008e-13 4.90456e-13 0 0 1.86554e-13 -7.38938e-13 1.15125e-13 8.58893e-14 0 0 -6.9916e-14 -3.87172e-13 -6.05309e-14 -1.83724e-15 0 0 -3.55909e-13 -1.75225e-13 -2.87538e-14 -1.05815e-13 0 0 -1.25192e-13 -5.26178e-13 3.16841e-13 -1.36494e-13 0 0 -1.47016e-13 -2.97748e-13 -4.25605e-14 1.94334e-13 0 0 3.69878e-14 -4.84406e-13 3.05155e-13 -2.49359e-13 0 0 -2.45076e-13 -1.06563e-13 7.01796e-14 -2.93949e-13 0 0 -2.89225e-13 -6.29618e-14 -1.35093e-14 -1.28741e-14 0 0 5.21727e-14 -4.33427e-13 4.27104e-13 -2.60425e-13 0 0 -4.91838e-13 5.28861e-13 -3.73863e-13 -1.0494e-13 0 0 -1.20896e-13 -4.46775e-15 -6.65237e-14 -2.16754e-13 0 0 2.97125e-13 -6.73993e-13 4.66355e-13 -4.06293e-13 0 0 -1.2024e-13 -2.42932e-13 3.47711e-13 -2.96865e-13 0 0 -2.52938e-14 -5.38857e-13 8.59893e-13 -5.78092e-13 0 0 -4.19403e-13 1.72185e-13 2.11102e-13 -2.86642e-13 0 0 -8.91363e-14 -1.90956e-13 6.86814e-13 -9.91968e-13 0 0 2.79995e-14 -1.82563e-13 6.96019e-13 -1.37796e-12 0 0 -2.25761e-13 4.51352e-13 -1.61199e-13 -8.50304e-13 0 0 2.16637e-13 -1.45603e-13 2.79367e-13 -1.05686e-12 0
				</DataArray>
				<DataArray Name="VitesseY" type="Float32" format="ascii">