<?xml version="1.0"?>
<VTKFile type="PolyData">
	<PolyData>
		<Piece NumberOfPoints="1206" NumberOfPolys="1000">
			<Points>
				<DataArray type="Float32" NumberOfComponents="3" format="ascii">
 0 0 0 0.02 0 0 0.04 0 0 0.06 0 0 0.08 0 0 0.1 0 0 0 0.005 0 0.02 0.005 0 0.04 0.005 0 0.06 0.005 0 0.08 0.005 0 0.1 0.005 0 0 0.01 0 0.02 0.01 0 0.04 0.01 0 0.06 0.01 0 0.08 0.01 0 0.1 0.01 0 0 0.015 0 0.02 0.015 0 0.04 0.015 0 0.06 0.015 0 0.08 0.015 0 0.1 0.015 0 0 0.02 0 0.02 0.02 0 0.04 0.02 0 0.06 0.02 0 0.08 0.02 0 0.1 0.02 0 0 0.025 0 0.02 0.025 0 0.04 0.025 0 0.06 0.025 0 0.08 0.025 0 0.1 0.025 0 0 0.03 0 0.02 0.03 0 0.04 0.03 0 0.06 0.03 0 0.08 0.03 0 0.1 0.03 0 0 0.035 0 0.02 0.035 0 0.04 0.035 0 0.06 0.035 0 0.08 0.035 0 0.1 0.035 0 0 0.04 0 0.02 0.04 0 0.04 0.04 0 0.06 0.04 0 0.08 0.04 0 0.1 0.04 0 0 0.045 0 0.02 0.045 0 0.04 0.045 0 0.06 0.045 0 0.08 0.045 0 0.1 0.045 0 0 0.05 0 0.02 0.05 0 0.04 0.05 0 0.06 0.05 0 0.08 0.05 0 0.1 0.05 0 0 0.055 0 0.02 0.055 0 0.04 0.055 0 0.06 0.055 0 0.08 0.055 0 0.1 0.055 0 0 0.06 0 0.02 0.06 0 0.04 0.06 0 0.06 0.06 0 0.08 0.06 0 0.1 0.06 0 0 0.065 0 0.02 0.065 0 0.04 0.065 0 0.06 0.065 0 0.08 0.065 0 0.1 0.065 0 0 0.07 0 0.02 0.07 0 0.04 0.07 0 0.06 0.07 0 0.08 0.07 0 0.1 0.07 0 0 0.075 0 0.02 0.075 0 0.04 0.075 0 0.06 0.075 0 0.08 0.075 0 0.1 0.075 0 0 0.08 0 0.02 0.08 0 0.04 0.08 0 0.06 0.08 0 0.08 0.08 0 0.1 0.08 0 0 0.085 0 0.02 0.085 0 0.04 0.085 0 0.06 0.085 0 0.08 0.085 0 0.1 0.085 0 0 0.09 0 0.02 0.09 0 0.04 0.09 0 0.06 0.09 0 0.08 0.09 0 0.1 0.09 0 0 0.095 0 0.02 0.095 0 0.04 0.095 0 0.06 0.095 0 0.08 0.095 0 0.1 0.095 0 0 0.1 0 0.02 0.1 0 0.04 0.1 0 0.06 0.1 0 0.08 0.1 0 0.1 0.1 0 0 0.105 0 0.02 0.105 0 0.04 0.105 0 0.06 0.105 0 0.08 0.105 0 0.1 0.105 0 0 0.11 0 0.02 0.11 0 0.04 0.11 0 0.06 0.11 0 0.08 0.11 0 0.1 0.11 0 0 0.115 0 0.02 0.115 0 0.04 0.115 0 0.06 0.115 0 0.08 0.115 0 0.1 0.115 0 0 0.12 0 0.02 0.12 0 0.04 0.12 0 0.06 0.12 0 0.08 0.12 0 0.1 0.12 0 0 0.125 0 0.02 0.125 0 0.04 0.125 0 0.06 0.125 0 0.08 0.125 0 0.1 0.125 0 0 0.13 0 0.02 0.13 0 0.04 0.13 0 0.06 0.13 0 0.08 0.13 0 0.1 0.13 0 0 0.135 0 0.02 0.135 0 0.04 0.135 0 0.06 0.135 0 0.08 0.135 0 0.1 0.135 0 0 0.14 0 0.02 0.14 0 0.04 0.14 0 0.06 0.14 0 0.08 0.14 0 0.1 0.14 0 0 0.145 0 0.02 0.145 0 0.04 0.145 0 0.06 0.145 0 0.08 0.145 0 0.1 0.145 0 0 0.15 0 0.02 0.15 0 0.04 0.15 0 0.06 0.15 0 0.08 0.15 0 0.1 0.15 0 0 0.155 0 0.02 0.155 0 0.04 0.155 0 0.06 0.155 0 0.08 0.155 0 0.1 0.155 0 0 0.16 0 0.02 0.16 0 0.04 0.16 0 0.06 0.16 0 0.08 0.16 0 0.1 0.16 0 0 0.165 0 0.02 0.165 0 0.04 0.165 0 0.06 0.165 0 0.08 0.165 0 0.1 0.165 0 0 0.17 0 0.02 0.17 0 0.04 0.17 0 0.06 0.17 0 0.08 0.17 0 0.1 0.17 0 0 0.175 0 0.02 0.175 0 0.04 0.175 0 0.06 0.175 0 0.08 0.175 0 0.1 0.175 0 0 0.18 0 0.02 0.18 0 0.04 0.18 0 0.06 0.18 0 0.08 0.18 0 0.1 0.18 0 0 0.185 0 0.02 0.185 0 0.04 0.185 0 0.06 0.185 0 0.08 0.185 0 0.1 0.185 0 0 0.19 0 0.02 0.19 0 0.04 0.19 0 0.06 0.19 0 0.08 0.19 0 0.1 0.19 0 0 0.195 0 0.02 0.195 0 0.04 0.195 0 0.06 0.195 0 0.08 0.195 0 0.1 0.195 0 0 0.2 0 0.02 0.2 0 0.04 0.2 0 0.06 0.2 0 0.08 0.2 0 0.1 0.2 0 0 0.205 0 0.02 0.205 0 0.04 0.205 0 0.06 0.205 0 0.08 0.205 0 0.1 0.205 0 0 0.21 0 0.02 0.21 0 0.04 0.21 0 0.06 0.21 0 0.08 0.21 0 0.1 0.21 0 0 0.215 0 0.02 0.215 0 0.04 0.215 0 0.06 0.215 0 0.08 0.215 0 0.1 0.215 0 0 0.22 0 0.02 0.22 0 0.04 0.22 0 0.06 0.22 0 0.08 0.22 0 0.1 0.22 0 0 0.225 0 0.02 0.225 0 0.04 0.225 0 0.06 0.225 0 0.08 0.225 0 0.1 0.225 0 0 0.23 0 0.02 0.23 0 0.04 0.23 0 0.06 0.23 0 0.08 0.23 0 0.1 0.23 0 0 0.235 0 0.02 0.235 0 0.04 0.235 0 0.06 0.235 0 0.08 0.235 0 0.1 0.235 0 0 0.24 0 0.02 0.24 0 0.04 0.24 0 0.06 0.24 0 0.08 0.24 0 0.1 0.24 0 0 0.245 0 0.02 0.245 0 0.04 0.245 0 0.06 0.245 0 0.08 0.245 0 0.1 0.245 0 0 0.25 0 0.02 0.25 0 0.04 0.25 0 0.06 0.25 0 0.08 0.25 0 0.1 0.25 0 0 0.255 0 0.02 0.255 0 0.04 0.255 0 0.06 0.255 0 0.08 0.255 0 0.1 0.255 0 0 0.26 0 0.02 0.26 0 0.04 0.26 0 0.06 0.26 0 0.08 0.26 0 0.1 0.26 0 0 0.265 0 0.02 0.265 0 0.04 0.265 0 0.06 0.265 0 0.08 0.265 0 0.1 0.265 0 0 0.27 0 0.02 0.27 0 0.04 0.27 0 0.06 0.27 0 0.08 0.27 0 0.1 0.27 0 0 0.275 0 0.02 0.275 0 0.04 0.275 0 0.06 0.275 0 0.08 0.275 0 0.1 0.275 0 0 0.28 0 0.02 0.28 0 0.04 0.28 0 0.06 0.28 0 0.08 0.28 0 0.1 0.28 0 0 0.285 0 0.02 0.285 0 0.04 0.285 0 0.06 0.285 0 0.08 0.285 0 0.1 0.285 0 0 0.29 0 0.02 0.29 0 0.04 0.29 0 0.06 0.29 0 0.08 0.29 0 0.1 0.29 0 0 0.295 0 0.02 0.295 0 0.04 0.295 0 0.06 0.295 0 0.08 0.295 0 0.1 0.295 0 0 0.3 0 0.02 0.3 0 0.04 0.3 0 0.06 0.3 0 0.08 0.3 0 0.1 0.3 0 0 0.305 0 0.02 0.305 0 0.04 0.305 0 0.06 0.305 0 0.08 0.305 0 0.1 0.305 0 0 0.31 0 0.02 0.31 0 0.04 0.31 0 0.06 0.31 0 0.08 0.31 0 0.1 0.31 0 0 0.315 0 0.02 0.315 0 0.04 0.315 0 0.06 0.315 0 0.08 0.315 0 0.1 0.315 0 0 0.32 0 0.02 0.32 0 0.04 0.32 0 0.06 0.32 0 0.08 0.32 0 0.1 0.32 0 0 0.325 0 0.02 0.325 0 0.04 0.325 0 0.06 0.325 0 0.08 0.325 0 0.1 0.325 0 0 0.33 0 0.02 0.33 0 0.04 0.33 0 0.06 0.33 0 0.08 0.33 0 0.1 0.33 0 0 0.335 0 0.02 0.335 0 0.04 0.335 0 0.06 0.335 0 0.08 0.335 0 0.1 0.335 0 0 0.34 0 0.02 0.34 0 0.04 0.34 0 0.06 0.34 0 0.08 0.34 0 0.1 0.34 0 0 0.345 0 0.02 0.345 0 0.04 0.345 0 0.06 0.345 0 0.08 0.345 0 0.1 0.345 0 0 0.35 0 0.02 0.35 0 0.04 0.35 0 0.06 0.35 0 0.08 0.35 0 0.1 0.35 0 0 0.355 0 0.02 0.355 0 0.04 0.355 0 0.06 0.355 0 0.08 0.355 0 0.1 0.355 0 0 0.36 0 0.02 0.36 0 0.04 0.36 0 0.06 0.36 0 0.08 0.36 0 0.1 0.36 0 0 0.365 0 0.02 0.365 0 0.04 0.365 0 0.06 0.365 0 0.08 0.365 0 0.1 0.365 0 0 0.37 0 0.02 0.37 0 0.04 0.37 0 0.06 0.37 0 0.08 0.37 0 0.1 0.37 0 0 0.375 0 0.02 0.375 0 0.04 0.375 0 0.06 0.375 0 0.08 0.375 0 0.1 0.375 0 0 0.38 0 0.02 0.38 0 0.04 0.38 0 0.06 0.38 0 0.08 0.38 0 0.1 0.38 0 0 0.385 0 0.02 0.385 0 0.04 0.385 0 0.06 0.385 0 0.08 0.385 0 0.1 0.385 0 0 0.39 0 0.02 0.39 0 0.04 0.39 0 0.06 0.39 0 0.08 0.39 0 0.1 0.39 0 0 0.395 0 0.02 0.395 0 0.04 0.395 0 0.06 0.395 0 0.08 0.395 0 0.1 0.395 0 0 0.4 0 0.02 0.4 0 0.04 0.4 0 0.06 0.4 0 0.08 0.4 0 0.1 0.4 0 0 0.405 0 0.02 0.405 0 0.04 0.405 0 0.06 0.405 0 0.08 0.405 0 0.1 0.405 0 0 0.41 0 0.02 0.41 0 0.04 0.41 0 0.06 0.41 0 0.08 0.41 0 0.1 0.41 0 0 0.415 0 0.02 0.415 0 0.04 0.415 0 0.06 0.415 0 0.08 0.415 0 0.1 0.415 0 0 0.42 0 0.02 0.42 0 0.04 0.42 0 0.06 0.42 0 0.08 0.42 0 0.1 0.42 0 0 0.425 0 0.02 0.425 0 0.04 0.425 0 0.06 0.425 0 0.08 0.425 0 0.1 0.425 0 0 0.43 0 0.02 0.43 0 0.04 0.43 0 0.06 0.43 0 0.08 0.43 0 0.1 0.43 0 0 0.435 0 0.02 0.435 0 0.04 0.435 0 0.06 0.435 0 0.08 0.435 0 0.1 0.435 0 0 0.44 0 0.02 0.44 0 0.04 0.44 0 0.06 0.44 0 0.08 0.44 0 0.1 0.44 0 0 0.445 0 0.02 0.445 0 0.04 0.445 0 0.06 0.445 0 0.08 0.445 0 0.1 0.445 0 0 0.45 0 0.02 0.45 0 0.04 0.45 0 0.06 0.45 0 0.08 0.45 0 0.1 0.45 0 0 0.455 0 0.02 0.455 0 0.04 0.455 0 0.06 0.455 0 0.08 0.455 0 0.1 0.455 0 0 0.46 0 0.02 0.46 0 0.04 0.46 0 0.06 0.46 0 0.08 0.46 0 0.1 0.46 0 0 0.465 0 0.02 0.465 0 0.04 0.465 0 0.06 0.465 0 0.08 0.465 0 0.1 0.465 0 0 0.47 0 0.02 0.47 0 0.04 0.47 0 0.06 0.47 0 0.08 0.47 0 0.1 0.47 0 0 0.475 0 0.02 0.475 0 0.04 0.475 0 0.06 0.475 0 0.08 0.475 0 0.1 0.475 0 0 0.48 0 0.02 0.48 0 0.04 0.48 0 0.06 0.48 0 0.08 0.48 0 0.1 0.48 0 0 0.485 0 0.02 0.485 0 0.04 0.485 0 0.06 0.485 0 0.08 0.485 0 0.1 0.485 0 0 0.49 0 0.02 0.49 0 0.04 0.49 0 0.06 0.49 0 0.08 0.49 0 0.1 0.49 0 0 0.495 0 0.02 0.495 0 0.04 0.495 0 0.06 0.495 0 0.08 0.495 0 0.1 0.495 0 0 0.5 0 0.02 0.5 0 0.04 0.5 0 0.06 0.5 0 0.08 0.5 0 0.1 0.5 0 0 0.505 0 0.02 0.505 0 0.04 0.505 0 0.06 0.505 0 0.08 0.505 0 0.1 0.505 0 0 0.51 0 0.02 0.51 0 0.04 0.51 0 0.06 0.51 0 0.08 0.51 0 0.1 0.51 0 0 0.515 0 0.02 0.515 0 0.04 0.515 0 0.06 0.515 0 0.08 0.515 0 0.1 0.515 0 0 0.52 0 0.02 0.52 0 0.04 0.52 0 0.06 0.52 0 0.08 0.52 0 0.1 0.52 0 0 0.525 0 0.02 0.525 0 0.04 0.525 0 0.06 0.525 0 0.08 0.525 0 0.1 0.525 0 0 0.53 0 0.02 0.53 0 0.04 0.53 0 0.06 0.53 0 0.08 0.53 0 0.1 0.53 0 0 0.535 0 0.02 0.535 0 0.04 0.535 0 0.06 0.535 0 0.08 0.535 0 0.1 0.535 0 0 0.54 0 0.02 0.54 0 0.04 0.54 0 0.06 0.54 0 0.08 0.54 0 0.1 0.54 0 0 0.545 0 0.02 0.545 0 0.04 0.545 0 0.06 0.545 0 0.08 0.545 0 0.1 0.545 0 0 0.55 0 0.02 0.55 0 0.04 0.55 0 0.06 0.55 0 0.08 0.55 0 0.1 0.55 0 0 0.555 0 0.02 0.555 0 0.04 0.555 0 0.06 0.555 0 0.08 0.555 0 0.1 0.555 0 0 0.56 0 0.02 0.56 0 0.04 0.56 0 0.06 0.56 0 0.08 0.56 0 0.1 0.56 0 0 0.565 0 0.02 0.565 0 0.04 0.565 0 0.06 0.565 0 0.08 0.565 0 0.1 0.565 0 0 0.57 0 0.02 0.57 0 0.04 0.57 0 0.06 0.57 0 0.08 0.57 0 0.1 0.57 0 0 0.575 0 0.02 0.575 0 0.04 0.575 0 0.06 0.575 0 0.08 0.575 0 0.1 0.575 0 0 0.58 0 0.02 0.58 0 0.04 0.58 0 0.06 0.58 0 0.08 0.58 0 0.1 0.58 0 0 0.585 0 0.02 0.585 0 0.04 0.585 0 0.06 0.585 0 0.08 0.585 0 0.1 0.585 0 0 0.59 0 0.02 0.59 0 0.04 0.59 0 0.06 0.59 0 0.08 0.59 0 0.1 0.59 0 0 0.595 0 0.02 0.595 0 0.04 0.595 0 0.06 0.595 0 0.08 0.595 0 0.1 0.595 0 0 0.6 0 0.02 0.6 0 0.04 0.6 0 0.06 0.6 0 0.08 0.6 0 0.1 0.6 0 0 0.605 0 0.02 0.605 0 0.04 0.605 0 0.06 0.605 0 0.08 0.605 0 0.1 0.605 0 0 0.61 0 0.02 0.61 0 0.04 0.61 0 0.06 0.61 0 0.08 0.61 0 0.1 0.61 0 0 0.615 0 0.02 0.615 0 0.04 0.615 0 0.06 0.615 0 0.08 0.615 0 0.1 0.615 0 0 0.62 0 0.02 0.62 0 0.04 0.62 0 0.06 0.62 0 0.08 0.62 0 0.1 0.62 0 0 0.625 0 0.02 0.625 0 0.04 0.625 0 0.06 0.625 0 0.08 0.625 0 0.1 0.625 0 0 0.63 0 0.02 0.63 0 0.04 0.63 0 0.06 0.63 0 0.08 0.63 0 0.1 0.63 0 0 0.635 0 0.02 0.635 0 0.04 0.635 0 0.06 0.635 0 0.08 0.635 0 0.1 0.635 0 0 0.64 0 0.02 0.64 0 0.04 0.64 0 0.06 0.64 0 0.08 0.64 0 0.1 0.64 0 0 0.645 0 0.02 0.645 0 0.04 0.645 0 0.06 0.645 0 0.08 0.645 0 0.1 0.645 0 0 0.65 0 0.02 0.65 0 0.04 0.65 0 0.06 0.65 0 0.08 0.65 0 0.1 0.65 0 0 0.655 0 0.02 0.655 0 0.04 0.655 0 0.06 0.655 0 0.08 0.655 0 0.1 0.655 0 0 0.66 0 0.02 0.66 0 0.04 0.66 0 0.06 0.66 0 0.08 0.66 0 0.1 0.66 0 0 0.665 0 0.02 0.665 0 0.04 0.665 0 0.06 0.665 0 0.08 0.665 0 0.1 0.665 0 0 0.67 0 0.02 0.67 0 0.04 0.67 0 0.06 0.67 0 0.08 0.67 0 0.1 0.67 0 0 0.675 0 0.02 0.675 0 0.04 0.675 0 0.06 0.675 0 0.08 0.675 0 0.1 0.675 0 0 0.68 0 0.02 0.68 0 0.04 0.68 0 0.06 0.68 0 0.08 0.68 0 0.1 0.68 0 0 0.685 0 0.02 0.685 0 0.04 0.685 0 0.06 0.685 0 0.08 0.685 0 0.1 0.685 0 0 0.69 0 0.02 0.69 0 0.04 0.69 0 0.06 0.69 0 0.08 0.69 0 0.1 
[...]
			<PointData Scalars="VitesseX">
				<DataArray Name="VitesseX" type="Float32" format="ascii">
 0 4.51969e-14 7.04996e-14 4.18777e-14 2.00636e-14 0 0 4.86809e-14 6.79665e-14 3.77201e-14 2.6177e-14 0 0 5.55909e-14 5.64623e-14 4.07764e-14 2.67964e-14 0 0 5.25774e-14 4.84043e-14 4.55463e-14 2.16193e-14 0 0 4.55443e-14 4.2327e-14 4.64256e-14 2.56979e-14 0 0 4.6492e-14 2.39195e-14 6.39954e-14 1.53774e-14 0 0 3.4057e-14 3.54847e-14 6.04559e-14 3.30954e-15 0 0 3.34251e-14 3.12121e-14 6.12167e-14 5.06159e-15 0 0 2.25662e-14 4.80901e-14 2.1745e-14 3.96801e-14 0 0 2.0954e-14 6.98561e-14 -2.18863e-14 7.18654e-14 0 0 4.47159e-14 2.66297e-14 3.96462e-14 2.99875e-14 0 0 1.39361e-14 5.23979e-14 4.12124e-14 2.52194e-14 0 0 -7.65381e-16 6.27312e-14 4.20046e-14 2.04249e-14 0 0 3.83628e-14 -3.72505e-15 1.05902e-13 -2.20558e-14 0 0 3.65312e-14 1.35206e-14 7.65383e-14 5.14303e-15 0 0 1.52817e-14 5.75828e-14 4.00992e-14 3.4123e-14 0 0 7.96335e-15 7.59227e-14 4.63626e-14 3.81194e-14 0 0 4.01153e-14 2.92228e-14 1.36481e-13 -2.35834e-14 0 0 4.66625e-14 4.32507e-14 1.28872e-13 -3.37902e-15 0 0 3.84576e-14 1.22292e-13 2.27723e-14 6.58755e-14 0 0 7.86451e-14 9.06134e-14 6.58203e-14 8.42326e-15 0 0 1.11269e-13 4.53042e-14 1.0376e-13 -1.00588e-14 0 0 6.33822e-14 1.60603e-13 -6.11514e-14 1.00483e-13 0 0 4.87448e-14 2.2376e-13 -1.7153e-13 1.87196e-13 0 0 1.38852e-13 5.62688e-14 6.87303e-15 9.46363e-14 0 0 9.45164e-14 9.03475e-14 1.76806e-14 7.25843e-14 0 0 9.01678e-14 9.6726e-14 3.58241e-14 1.90078e-14 0 0 9.78936e-14 1.22638e-13 -3.08659e-14 3.31114e-14 0 0 7.07956e-14 1.7849e-13 -1.37226e-13 9.20308e-14 0 0 1.58675e-13 -1.61279e-14 6.58937e-14 -4.03151e-14 0 0 1.0862e-13 4.33317e-14 -1.70543e-14 9.98534e-15 0 0 4.82033e-14 1.07239e-13 -4.9923e-14 -4.10199e-15 0 0 7.17375e-14 2.12043e-14 1.04923e-13 -1.47701e-13 0 0 7.1864e-14 4.8008e-14 5.34961e-14 -1.11428e-13 0 0 8.53445e-14 7.70997e-14 -1.74837e-14 -1.39661e-14 0 0 8.81971e-14 7.20777e-14 -9.90389e-15 3.19012e-14 0 0 9.87442e-14 3.26395e-14 7.13015e-14 -2.92306e-14 0 0 9.72135e-14 2.50084e-14 1.12034e-13 -5.32873e-14 0 0 6.45477e-14 8.23455e-14 6.10851e-14 -1.92897e-14 0 0 1.03597e-13 3.11026e-14 1.12202e-13 -9.15763e-14 0 0 1.80238e-13 -1.22547e-13 2.68167e-13 -2.05253e-13 0 0 6.6883e-14 1.86298e-14 1.38529e-13 -1.75861e-13 0 0 3.11437e-14 8.63004e-14 4.51048e-14 -1.56105e-13 0 0 8.94211e-14 3.44314e-14 4.99091e-14 -1.52428e-13 0 0 5.92238e-16 1.56446e-13 -5.19257e-14 -4.82367e-14 0 0 -7.6979e-14 2.17224e-13 3.14822e-15 -2.11334e-14 0 0 -1.3917e-15 1.40414e-13 1.52705e-13 -5.24487e-14 0 0 3.12205e-14 1.4563e-13 2.39414e-13 -9.63377e-14 0 0 -3.11766e-14 2.87026e-13 1.79075e-13 -8.20505e-14 0 0 3.02581e-14 2.18509e-13 2.50809e-13 -1.06807e-13 0 0 -2.2677e-14 2.54641e-13 2.74219e-13 -1.08065e-13 0 0 -7.84878e-15 2.76669e-13 2.63324e-13 -5.23482e-14 0 0 1.62859e-13 1.0011e-13 4.17626e-13 -8.5187e-14 0 0 1.07965e-13 1.24229e-13 4.0251e-13 -2.79139e-14 0 0 9.43985e-14 6.90573e-14 4.19273e-13 8.35601e-14 0 0 5.20563e-14 1.04453e-13 3.3191e-13 2.4541e-13 0 0 -8.985e-15 1.68513e-13 2.81446e-13 3.68633e-13 0 0 2.75214e-14 1.63838e-13 3.06175e-13 4.24791e-13 0 0 1.2725e-14 1.24095e-13 4.1541e-13 3.37501e-13 0 0 -1.68982e-13 2.42421e-13 4.02089e-13 3.17273e-13 0 0 -2.8844e-13 2.70591e-13 3.75019e-13 3.609e-13 0 0 -2.48729e-13 9.45521e-14 5.23977e-13 2.47695e-13 0 0 -3.36299e-13 2.40301e-13 4.13107e-13 2.05869e-13 0 0 -3.11678e-13 3.76299e-13 2.88033e-13 1.64536e-13 0 0 -1.59828e-13 4.75878e-13 1.46696e-13 1.27775e-13 0 0 2.21387e-14 4.35165e-13 7.28412e-14 1.0941e-13 0 0 2.61683e-13 1.78591e-13 1.44891e-13 1.44016e-13 0 0 3.68313e-13 4.96233e-14 7.11596e-14 2.87082e-13 0 0 2.7587e-13 1.62526e-13 -9.1532e-14 4.48628e-13 0 0 1.76529e-13 1.98529e-13 -8.79109e-14 4.18363e-13 0 0 2.70928e-13 5.30564e-14 8.24498e-14 2.20295e-13 0 0 4.36346e-13 3.61812e-14 -2.5797e-14 1.26017e-13 0 0 4.73727e-13 1.91972e-13 -3.94003e-13 2.64659e-13 0 0 4.76261e-13 3.27786e-13 -6.61357e-13 2.97346e-13 0 0 4.39586e-13 2.62583e-13 -5.26846e-13 1.28528e-13 0 0 4.21421e-13 1.00053e-13 -2.52156e-13 -2.22513e-13 0 0 4.93616e-13 -2.50981e-13 8.49151e-14 -1.99896e-13 0 0 4.65675e-13 -2.49784e-13 -5.19075e-14 1.00532e-13 0 0 3.82635e-13 -1.35895e-13 -4.11296e-13 6.47881e-13 0 0 3.52245e-13 -1.57122e-13 -3.79078e-13 6.25672e-13 0 0 3.98812e-13 -4.08787e-13 -1.07694e-13 4.49084e-13 0 0 3.33656e-13 -4.38757e-13 1.10579e-13 2.43236e-13 0 0 5.91419e-14 -2.57395e-13 3.91982e-14 1.87426e-13 0 0 -3.19104e-13 -1.24667e-14 6.75284e-14 4.67159e-14 0 0 -3.63232e-13 -6.3511e-14 1.83045e-13 -1.80455e-13 0 0 -2.35384e-13 -3.10371e-13 3.12368e-13 -2.11204e-13 0 0 -8.25678e-14 -4.93549e-13 2.91388e-13 -1.35402e-13 0 0 -8.54462e-14 -4.2523e-13 8.46594e-14 5.52149e-14 0 0 -1.37841e-13 -2.27343e-13 -2.61715e-13 2.53681e-13 0 0 -2.00952e-13 -1.2657e-13 -4.23943e-13 3.83192e-13 0 0 -1.41737e-13 -2.43516e-13 -3.85332e-13 3.52769e-13 0 0 -2.34855e-14 -4.99973e-13 -2.73917e-13 3.0248e-13 0 0 -6.04226e-14 -5.02832e-13 -2.56826e-13 2.75157e-13 0 0 -2.07953e-13 -3.73514e-13 -2.45903e-13 1.63635e-13 0 0 -4.61137e-13 -1.89109e-13 -1.42486e-13 -1.35308e-13 0 0 -7.3835e-13 -3.93815e-14 1.0463e-15 -4.8922e-13 0 0 -8.23128e-13 2.44566e-14 7.92419e-14 -6.77949e-13 0 0 -7.8957e-13 -3.49883e-15 1.14951e-13 -6.8032e-13 0 0 -6.44863e-13 -1.30282e-13 9.6959e-14 -6.19995e-13 0 0 -4.75128e-13 -2.40774e-13 9.53761e-15 -4.63421e-13 0 0 -4.3937e-13 -2.1828e-13 -2.09964e-13 -1.88712e-13 0 0 -4.38538e-13 -1.6147e-13 -5.24743e-13 1.43198e-13 0 0 -4.34213e-13 -1.88465e-13 -6.39398e-13 4.15085e-13 0 0 -3.64576e-13 -3.08575e-13 -6.2156e-13 4.82007e-13 0 0 -3.3118e-13 -4.38462e-13 -4.90205e-13 4.10998e-13 0 0 -3.67337e-13 -4.93917e-13 -1.92029e-13 1.79967e-13 0 0 -4.12873e-13 -5.43906e-13 1.7145e-13 -1.64857e-13 0 0 -3.74945e-13 -5.63722e-13 2.66407e-13 -3.02777e-13 0 0 -2.51894e-13 -5.6767e-13 2.43602e-13 -3.13525e-13 0 0 -1.22472e-13 -5.29746e-13 1.44684e-13 -2.71046e-13 0 0 -7.94509e-14 -4.37007e-13 -3.55233e-15 -1.56328e-13 0 0 -7.78463e-14 -2.79132e-13 -1.68538e-13 -3.14186e-14 0 0 -9.87392e-14 -8.93805e-14 -1.68896e-13 -3.32421e-14 0 0 -1.1784e-13 -1.58507e-14 -1.57718e-13 -7.92994e-15 0 0 -1.07586e-13 6.77386e-15 -1.28026e-13 4.37274e-14 0 0 -3.7081e-14 -2.85709e-14 -1.44553e-14 6.31369e-14 0 0 7.48625e-14 -7.15899e-14 6.65529e-14 7.67356e-14 0 0 1.68028e-13 -8.90742e-14 9.6333e-14 1.32774e-13 0 0 2.27465e-13 -1.28693e-13 1.19523e-13 2.62274e-13 0 0 2.47326e-13 -1.30546e-13 1.14208e-13 3.80019e-13 0 0 2.45967e-13 -1.16656e-13 1.56011e-13 3.72564e-13 0 0 2.44453e-13 -8.07403e-14 2.04512e-13 3.76297e-13 0 0 2.48736e-13 -4.76688e-14 2.48786e-13 3.64331e-13 0 0 2.38028e-13 3.30753e-14 2.60278e-13 3.2591e-13 0 0 2.39053e-13 1.20595e-13 2.52408e-13 3.26599e-13 0 0 2.53673e-13 2.05937e-13 2.28501e-13 3.36453e-13 0 0 2.58623e-13 2.91464e-13 2.09369e-13 3.13163e-13 0 0 2.81675e-13 3.06789e-13 2.66377e-13 2.20589e-13 0 0 3.19396e-13 3.30938e-13 3.03257e-13 1.5899e-13 0 0 3.40247e-13 3.38193e-13 3.5532e-13 7.18602e-14 0 0 3.73614e-13 3.27359e-13 3.56446e-13 6.54997e-14 0 0 3.79901e-13 3.0208e-13 3.54399e-13 1.22338e-13 0 0 3.44349e-13 2.91684e-13 3.96561e-13 1.27604e-13 0 0 3.12802e-13 3.24119e-13 3.70189e-13 1.39968e-13 0 0 2.85015e-13 3.21384e-13 3.48147e-13 1.43002e-13 0 0 2.47456e-13 3.11665e-13 3.5645e-13 1.49836e-13 0 0 2.51666e-13 2.92467e-13 3.54141e-13 1.37754e-13 0 0 2.86254e-13 2.55793e-13 3.43111e-13 1.31114e-13 0 0 3.16268e-13 2.03957e-13 3.85856e-13 1.2263e-13 0 0 3.41885e-13 1.80553e-13 4.0066e-13 1.25422e-13 0 0 3.38399e-13 2.2269e-13 3.31353e-13 1.66375e-13 0 0 3.06018e-13 2.91585e-13 2.43457e-13 2.5534e-13 0 0 2.95069e-13 2.97592e-13 2.17256e-13 3.11935e-13 0 0 2.88738e-13 2.74982e-13 2.32627e-13 3.73098e-13 0 0 2.59856e-13 2.6735e-13 2.69579e-13 3.51601e-13 0 0 2.26004e-13 2.51956e-13 2.53867e-13 4.12179e-13 0 0 1.66039e-13 3.2405e-13 8.22118e-14 4.87781e-13 0 0 1.19647e-13 3.19072e-13 9.32857e-14 3.70091e-13 0 0 1.35846e-13 2.33178e-13 1.58449e-13 1.60529e-13 0 0 1.47787e-13 2.39211e-13 8.16223e-14 2.83434e-14 0 0 1.34133e-13 2.62631e-13 -8.81501e-14 -1.45999e-13 0 0 1.42012e-13 2.30426e-13 -1.16266e-13 -4.26137e-13 0 0 1.4265e-13 1.34399e-13 -1.09556e-13 -4.1153e-13 0 0 1.01153e-13 7.3715e-14 -5.4796e-14 -1.78241e-13 0 0 1.16347e-14 3.29012e-14 -1.24711e-15 3.41397e-13 0 0 -6.18066e-14 2.06631e-14 2.68164e-14 4.67216e-13 0 0 -3.15934e-14 -4.76397e-15 8.22331e-14 3.08174e-13 0 0 3.24583e-14 -1.48801e-14 2.38171e-13 -1.26524e-13 0 0 2.48451e-14 1.12098e-14 2.96204e-13 -1.71577e-13 0 0 2.47786e-14 8.26957e-14 1.17138e-13 2.12015e-13 0 0 1.27493e-13 7.95682e-14 7.8281e-14 3.32572e-13 0 0 9.75366e-14 2.38241e-13 -6.51943e-14 3.81036e-13 0 0 7.73574e-14 2.87101e-13 -6.32292e-14 3.76054e-13 0 0 2.46061e-14 3.39291e-13 -2.74684e-14 4.32451e-13 0 0 -4.20783e-14 3.99424e-13 1.223e-13 2.55766e-13 0 0 2.65733e-14 3.28373e-13 2.04349e-13 1.873e-13 0 0 2.77508e-14 3.38207e-13 1.65077e-13 2.76621e-13 0 0 6.57398e-17 3.70584e-13 1.97348e-13 2.69827e-13 0 0 1.05181e-14 3.4693e-13 1.89786e-13 3.55123e-13 0 0 7.49005e-14 2.02327e-13 3.54269e-13 2.84514e-13 0 0 1.11696e-13 1.06241e-13 4.69793e-13 2.18557e-13 0 0 8.89968e-14 1.43053e-13 3.69019e-13 3.06861e-13 0 0 6.27606e-14 1.82551e-13 3.3567e-13 2.74545e-13 0 0 6.02192e-14 1.67684e-13 3.96145e-13 1.81131e-13 0 0 1.19815e-13 3.83569e-14 4.91149e-13 1.69806e-13 0 0 1.79058e-13 3.02544e-14 3.67271e-13 3.37412e-13 0 0 1.68263e-13 1.42473e-13 2.4058e-13 3.92674e-13 0 0 1.73767e-13 1.11974e-13 4.03678e-13 2.75149e-13 0 0 1.85537e-13 8.85817e-14 4.84909e-13 2.69679e-13 0 0 1.01339e-13 2.72401e-13 3.02162e-13 3.62825e-13 0 0 1.58519e-13 2.05397e-13 4.73074e-13 1.85983e-13 0 0 3.0571e-13 -2.58922e-16 6.83293e-13 6.07264e-14 0 0 2.89526e-13 7.46232e-14 5.20932e-13 2.3431e-13 0 0 1.439e-13 2.4972e-13 3.74181e-13 3.53182e-13 0 0 1.65177e-13 2.35201e-13 3.55689e-13 3.68676e-13 0 0 1.90823e-13 2.50008e-13 3.34899e-13 3.23093e-13 0 0 2.18215e-13 1.72472e-13 4.96501e-13 1.65877e-14 0 0 2.59257e-13 9.13196e-14 4.18189e-13 6.64057e-14 0 0 1.51987e-13 2.62819e-13 7.2121e-14 3.74063e-13 0 0 8.50341e-14 3.84497e-13 1.86052e-13 6.03504e-14 0 0 6.53552e-14 3.19643e-13 4.34052e-13 -2.58861e-13 0 0 1.72274e-13 3.93824e-14 6.96374e-13 -4.11174e-13 0 0 2.78507e-14 4.35991e-13 8.25735e-14 -8.1671e-14 0 0 1.55056e-13 4.20807e-13 -2.41486e-13 1.86662e-13 0 0 4.73025e-13 1.25534e-14 -1.78297e-14 6.84703e-14 0 0 3.80176e-13 2.36934e-13 -3.0769e-13 1.33049e-13 0 0 1.70147e-13 3.72047e-13 -3.38903e-13 1.70604e-13 0 0 2.91967e-13 -1.32362e-13 2.70917e-13 -1.91331e-13 0 0 3.0742e-13 -2.40516e-13 3.0102e-13 -1.88518e-13 0 0 2.23057e-13 -7.05951e-15 -2.25727e-13 2.77555e-13 0 0 3.78562e-13 -1.80045e-13 -2.52894e-13 3.99382e-13 0
				</DataArray>
				<DataArray Name="VitesseY" type="Float32" format="ascii">