<?xml version="1.0"?>
<VTKFile type="PolyData">
	<PolyData>
		<Piece NumberOfPoints="1206" NumberOfPolys="1000">
			<Points>
				<DataArray type="Float32" NumberOfComponents="3" format="ascii">
 0 0 0 0.02 0 0 0.04 0 0 0.06 0 0 0.08 0 0 0.1 0 0 0 0.005 0 0.02 0.005 0 0.04 0.005 0 0.06 0.005 0 0.08 0.005 0 0.1 0.005 0 0 0.01 0 0.02 0.01 0 0.04 0.01 0 0.06 0.01 0 0.08 0.01 0 0.1 0.01 0 0 0.015 0 0.02 0.015 0 0.04 0.015 0 0.06 0.015 0 0.08 0.015 0 0.1 0.015 0 0 0.02 0 0.02 0.02 0 0.04 0.02 0 0.06 0.02 0 0.08 0.02 0 0.1 0.02 0 0 0.025 0 0.02 0.025 0 0.04 0.025 0 0.06 0.025 0 0.08 0.025 0 0.1 0.025 0 0 0.03 0 0.02 0.03 0 0.04 0.03 0 0.06 0.03 0 0.08 0.03 0 0.1 0.03 0 0 0.035 0 0.02 0.035 0 0.04 0.035 0 0.06 0.035 0 0.08 0.035 0 0.1 0.035 0 0 0.04 0 0.02 0.04 0 0.04 0.04 0 0.06 0.04 0 0.08 0.04 0 0.1 0.04 0 0 0.045 0 0.02 0.045 0 0.04 0.045 0 0.06 0.045 0 0.08 0.045 0 0.1 0.045 0 0 0.05 0 0.02 0.05 0 0.04 0.05 0 0.06 0.05 0 0.08 0.05 0 0.1 0.05 0 0 0.055 0 0.02 0.055 0 0.04 0.055 0 0.06 0.055 0 0.08 0.055 0 0.1 0.055 0 0 0.06 0 0.02 0.06 0 0.04 0.06 0 0.06 0.06 0 0.08 0.06 0 0.1 0.06 0 0 0.065 0 0.02 0.065 0 0.04 0.065 0 0.06 0.065 0 0.08 0.065 0 0.1 0.065 0 0 0.07 0 0.02 0.07 0 0.04 0.07 0 0.06 0.07 0 0.08 0.07 0 0.1 0.07 0 0 0.075 0 0.02 0.075 0 0.04 0.075 0 0.06 0.075 0 0.08 0.075 0 0.1 0.075 0 0 0.08 0 0.02 0.08 0 0.04 0.08 0 0.06 0.08 0 0.08 0.08 0 0.1 0.08 0 0 0.085 0 0.02 0.085 0 0.04 0.085 0 0.06 0.085 0 0.08 0.085 0 0.1 0.085 0 0 0.09 0 0.02 0.09 0 0.04 0.09 0 0.06 0.09 0 0.08 0.09 0 0.1 0.09 0 0 0.095 0 0.02 0.095 0 0.04 0.095 0 0.06 0.095 0 0.08 0.095 0 0.1 0.095 0 0 0.1 0 0.02 0.1 0 0.04 0.1 0 0.06 0.1 0 0.08 0.1 0 0.1 0.1 0 0 0.105 0 0.02 0.105 0 0.04 0.105 0 0.06 0.105 0 0.08 0.105 0 0.1 0.105 0 0 0.11 0 0.02 0.11 0 0.04 0.11 0 0.06 0.11 0 0.08 0.11 0 0.1 0.11 0 0 0.115 0 0.02 0.115 0 0.04 0.115 0 0.06 0.115 0 0.08 0.115 0 0.1 0.115 0 0 0.12 0 0.02 0.12 0 0.04 0.12 0 0.06 0.12 0 0.08 0.12 0 0.1 0.12 0 0 0.125 0 0.02 0.125 0 0.04 0.125 0 0.06 0.125 0 0.08 0.125 0 0.1 0.125 0 0 0.13 0 0.02 0.13 0 0.04 0.13 0 0.06 0.13 0 0.08 0.13 0 0.1 0.13 0 0 0.135 0 0.02 0.135 0 0.04 0.135 0 0.06 0.135 0 0.08 0.135 0 0.1 0.135 0 0 0.14 0 0.02 0.14 0 0.04 0.14 0 0.06 0.14 0 0.08 0.14 0 0.1 0.14 0 0 0.145 0 0.02 0.145 0 0.04 0.145 0 0.06 0.145 0 0.08 0.145 0 0.1 0.145 0 0 0.15 0 0.02 0.15 0 0.04 0.15 0 0.06 0.15 0 0.08 0.15 0 0.1 0.15 0 0 0.155 0 0.02 0.155 0 0.04 0.155 0 0.06 0.155 0 0.08 0.155 0 0.1 0.155 0 0 0.16 0 0.02 0.16 0 0.04 0.16 0 0.06 0.16 0 0.08 0.16 0 0.1 0.16 0 0 0.165 0 0.02 0.165 0 0.04 0.165 0 0.06 0.165 0 0.08 0.165 0 0.1 0.165 0 0 0.17 0 0.02 0.17 0 0.04 0.17 0 0.06 0.17 0 0.08 0.17 0 0.1 0.17 0 0 0.175 0 0.02 0.175 0 0.04 0.175 0 0.06 0.175 0 0.08 0.175 0 0.1 0.175 0 0 0.18 0 0.02 0.18 0 0.04 0.18 0 0.06 0.18 0 0.08 0.18 0 0.1 0.18 0 0 0.185 0 0.02 0.185 0 0.04 0.185 0 0.06 0.185 0 0.08 0.185 0 0.1 0.185 0 0 0.19 0 0.02 0.19 0 0.04 0.19 0 0.06 0.19 0 0.08 0.19 0 0.1 0.19 0 0 0.195 0 0.02 0.195 0 0.04 0.195 0 0.06 0.195 0 0.08 0.195 0 0.1 0.195 0 0 0.2 0 0.02 0.2 0 0.04 0.2 0 0.06 0.2 0 0.08 0.2 0 0.1 0.2 0 0 0.205 0 0.02 0.205 0 0.04 0.205 0 0.06 0.205 0 0.08 0.205 0 0.1 0.205 0 0 0.21 0 0.02 0.21 0 0.04 0.21 0 0.06 0.21 0 0.08 0.21 0 0.1 0.21 0 0 0.215 0 0.02 0.215 0 0.04 0.215 0 0.06 0.215 0 0.08 0.215 0 0.1 0.215 0 0 0.22 0 0.02 0.22 0 0.04 0.22 0 0.06 0.22 0 0.08 0.22 0 0.1 0.22 0 0 0.225 0 0.02 0.225 0 0.04 0.225 0 0.06 0.225 0 0.08 0.225 0 0.1 0.225 0 0 0.23 0 0.02 0.23 0 0.04 0.23 0 0.06 0.23 0 0.08 0.23 0 0.1 0.23 0 0 0.235 0 0.02 0.235 0 0.04 0.235 0 0.06 0.235 0 0.08 0.235 0 0.1 0.235 0 0 0.24 0 0.02 0.24 0 0.04 0.24 0 0.06 0.24 0 0.08 0.24 0 0.1 0.24 0 0 0.245 0 0.02 0.245 0 0.04 0.245 0 0.06 0.245 0 0.08 0.245 0 0.1 0.245 0 0 0.25 0 0.02 0.25 0 0.04 0.25 0 0.06 0.25 0 0.08 0.25 0 0.1 0.25 0 0 0.255 0 0.02 0.255 0 0.04 0.255 0 0.06 0.255 0 0.08 0.255 0 0.1 0.255 0 0 0.26 0 0.02 0.26 0 0.04 0.26 0 0.06 0.26 0 0.08 0.26 0 0.1 0.26 0 0 0.265 0 0.02 0.265 0 0.04 0.265 0 0.06 0.265 0 0.08 0.265 0 0.1 0.265 0 0 0.27 0 0.02 0.27 0 0.04 0.27 0 0.06 0.27 0 0.08 0.27 0 0.1 0.27 0 0 0.275 0 0.02 0.275 0 0.04 0.275 0 0.06 0.275 0 0.08 0.275 0 0.1 0.275 0 0 0.28 0 0.02 0.28 0 0.04 0.28 0 0.06 0.28 0 0.08 0.28 0 0.1 0.28 0 0 0.285 0 0.02 0.285 0 0.04 0.285 0 0.06 0.285 0 0.08 0.285 0 0.1 0.285 0 0 0.29 0 0.02 0.29 0 0.04 0.29 0 0.06 0.29 0 0.08 0.29 0 0.1 0.29 0 0 0.295 0 0.02 0.295 0 0.04 0.295 0 0.06 0.295 0 0.08 0.295 0 0.1 0.295 0 0 0.3 0 0.02 0.3 0 0.04 0.3 0 0.06 0.3 0 0.08 0.3 0 0.1 0.3 0 0 0.305 0 0.02 0.305 0 0.04 0.305 0 0.06 0.305 0 0.08 0.305 0 0.1 0.305 0 0 0.31 0 0.02 0.31 0 0.04 0.31 0 0.06 0.31 0 0.08 0.31 0 0.1 0.31 0 0 0.315 0 0.02 0.315 0 0.04 0.315 0 0.06 0.315 0 0.08 0.315 0 0.1 0.315 0 0 0.32 0 0.02 0.32 0 0.04 0.32 0 0.06 0.32 0 0.08 0.32 0 0.1 0.32 0 0 0.325 0 0.02 0.325 0 0.04 0.325 0 0.06 0.325 0 0.08 0.325 0 0.1 0.325 0 0 0.33 0 0.02 0.33 0 0.04 0.33 0 0.06 0.33 0 0.08 0.33 0 0.1 0.33 0 0 0.335 0 0.02 0.335 0 0.04 0.335 0 0.06 0.335 0 0.08 0.335 0 0.1 0.335 0 0 0.34 0 0.02 0.34 0 0.04 0.34 0 0.06 0.34 0 0.08 0.34 0 0.1 0.34 0 0 0.345 0 0.02 0.345 0 0.04 0.345 0 0.06 0.345 0 0.08 0.345 0 0.1 0.345 0 0 0.35 0 0.02 0.35 0 0.04 0.35 0 0.06 0.35 0 0.08 0.35 0 0.1 0.35 0 0 0.355 0 0.02 0.355 0 0.04 0.355 0 0.06 0.355 0 0.08 0.355 0 0.1 0.355 0 0 0.36 0 0.02 0.36 0 0.04 0.36 0 0.06 0.36 0 0.08 0.36 0 0.1 0.36 0 0 0.365 0 0.02 0.365 0 0.04 0.365 0 0.06 0.365 0 0.08 0.365 0 0.1 0.365 0 0 0.37 0 0.02 0.37 0 0.04 0.37 0 0.06 0.37 0 0.08 0.37 0 0.1 0.37 0 0 0.375 0 0.02 0.375 0 0.04 0.375 0 0.06 0.375 0 0.08 0.375 0 0.1 0.375 0 0 0.38 0 0.02 0.38 0 0.04 0.38 0 0.06 0.38 0 0.08 0.38 0 0.1 0.38 0 0 0.385 0 0.02 0.385 0 0.04 0.385 0 0.06 0.385 0 0.08 0.385 0 0.1 0.385 0 0 0.39 0 0.02 0.39 0 0.04 0.39 0 0.06 0.39 0 0.08 0.39 0 0.1 0.39 0 0 0.395 0 0.02 0.395 0 0.04 0.395 0 0.06 0.395 0 0.08 0.395 0 0.1 0.395 0 0 0.4 0 0.02 0.4 0 0.04 0.4 0 0.06 0.4 0 0.08 0.4 0 0.1 0.4 0 0 0.405 0 0.02 0.405 0 0.04 0.405 0 0.06 0.405 0 0.08 0.405 0 0.1 0.405 0 0 0.41 0 0.02 0.41 0 0.04 0.41 0 0.06 0.41 0 0.08 0.41 0 0.1 0.41 0 0 0.415 0 0.02 0.415 0 0.04 0.415 0 0.06 0.415 0 0.08 0.415 0 0.1 0.415 0 0 0.42 0 0.02 0.42 0 0.04 0.42 0 0.06 0.42 0 0.08 0.42 0 0.1 0.42 0 0 0.425 0 0.02 0.425 0 0.04 0.425 0 0.06 0.425 0 0.08 0.425 0 0.1 0.425 0 0 0.43 0 0.02 0.43 0 0.04 0.43 0 0.06 0.43 0 0.08 0.43 0 0.1 0.43 0 0 0.435 0 0.02 0.435 0 0.04 0.435 0 0.06 0.435 0 0.08 0.435 0 0.1 0.435 0 0 0.44 0 0.02 0.44 0 0.04 0.44 0 0.06 0.44 0 0.08 0.44 0 0.1 0.44 0 0 0.445 0 0.02 0.445 0 0.04 0.445 0 0.06 0.445 0 0.08 0.445 0 0.1 0.445 0 0 0.45 0 0.02 0.45 0 0.04 0.45 0 0.06 0.45 0 0.08 0.45 0 0.1 0.45 0 0 0.455 0 0.02 0.455 0 0.04 0.455 0 0.06 0.455 0 0.08 0.455 0 0.1 0.455 0 0 0.46 0 0.02 0.46 0 0.04 0.46 0 0.06 0.46 0 0.08 0.46 0 0.1 0.46 0 0 0.465 0 0.02 0.465 0 0.04 0.465 0 0.06 0.465 0 0.08 0.465 0 0.1 0.465 0 0 0.47 0 0.02 0.47 0 0.04 0.47 0 0.06 0.47 0 0.08 0.47 0 0.1 0.47 0 0 0.475 0 0.02 0.475 0 0.04 0.475 0 0.06 0.475 0 0.08 0.475 0 0.1 0.475 0 0 0.48 0 0.02 0.48 0 0.04 0.48 0 0.06 0.48 0 0.08 0.48 0 0.1 0.48 0 0 0.485 0 0.02 0.485 0 0.04 0.485 0 0.06 0.485 0 0.08 0.485 0 0.1 0.485 0 0 0.49 0 0.02 0.49 0 0.04 0.49 0 0.06 0.49 0 0.08 0.49 0 0.1 0.49 0 0 0.495 0 0.02 0.495 0 0.04 0.495 0 0.06 0.495 0 0.08 0.495 0 0.1 0.495 0 0 0.5 0 0.02 0.5 0 0.04 0.5 0 0.06 0.5 0 0.08 0.5 0 0.1 0.5 0 0 0.505 0 0.02 0.505 0 0.04 0.505 0 0.06 0.505 0 0.08 0.505 0 0.1 0.505 0 0 0.51 0 0.02 0.51 0 0.04 0.51 0 0.06 0.51 0 0.08 0.51 0 0.1 0.51 0 0 0.515 0 0.02 0.515 0 0.04 0.515 0 0.06 0.515 0 0.08 0.515 0 0.1 0.515 0 0 0.52 0 0.02 0.52 0 0.04 0.52 0 0.06 0.52 0 0.08 0.52 0 0.1 0.52 0 0 0.525 0 0.02 0.525 0 0.04 0.525 0 0.06 0.525 0 0.08 0.525 0 0.1 0.525 0 0 0.53 0 0.02 0.53 0 0.04 0.53 0 0.06 0.53 0 0.08 0.53 0 0.1 0.53 0 0 0.535 0 0.02 0.535 0 0.04 0.535 0 0.06 0.535 0 0.08 0.535 0 0.1 0.535 0 0 0.54 0 0.02 0.54 0 0.04 0.54 0 0.06 0.54 0 0.08 0.54 0 0.1 0.54 0 0 0.545 0 0.02 0.545 0 0.04 0.545 0 0.06 0.545 0 0.08 0.545 0 0.1 0.545 0 0 0.55 0 0.02 0.55 0 0.04 0.55 0 0.06 0.55 0 0.08 0.55 0 0.1 0.55 0 0 0.555 0 0.02 0.555 0 0.04 0.555 0 0.06 0.555 0 0.08 0.555 0 0.1 0.555 0 0 0.56 0 0.02 0.56 0 0.04 0.56 0 0.06 0.56 0 0.08 0.56 0 0.1 0.56 0 0 0.565 0 0.02 0.565 0 0.04 0.565 0 0.06 0.565 0 0.08 0.565 0 0.1 0.565 0 0 0.57 0 0.02 0.57 0 0.04 0.57 0 0.06 0.57 0 0.08 0.57 0 0.1 0.57 0 0 0.575 0 0.02 0.575 0 0.04 0.575 0 0.06 0.575 0 0.08 0.575 0 0.1 0.575 0 0 0.58 0 0.02 0.58 0 0.04 0.58 0 0.06 0.58 0 0.08 0.58 0 0.1 0.58 0 0 0.585 0 0.02 0.585 0 0.04 0.585 0 0.06 0.585 0 0.08 0.585 0 0.1 0.585 0 0 0.59 0 0.02 0.59 0 0.04 0.59 0 0.06 0.59 0 0.08 0.59 0 0.1 0.59 0 0 0.595 0 0.02 0.595 0 0.04 0.595 0 0.06 0.595 0 0.08 0.595 0 0.1 0.595 0 0 0.6 0 0.02 0.6 0 0.04 0.6 0 0.06 0.6 0 0.08 0.6 0 0.1 0.6 0 0 0.605 0 0.02 0.605 0 0.04 0.605 0 0.06 0.605 0 0.08 0.605 0 0.1 0.605 0 0 0.61 0 0.02 0.61 0 0.04 0.61 0 0.06 0.61 0 0.08 0.61 0 0.1 0.61 0 0 0.615 0 0.02 0.615 0 0.04 0.615 0 0.06 0.615 0 0.08 0.615 0 0.1 0.615 0 0 0.62 0 0.02 0.62 0 0.04 0.62 0 0.06 0.62 0 0.08 0.62 0 0.1 0.62 0 0 0.625 0 0.02 0.625 0 0.04 0.625 0 0.06 0.625 0 0.08 0.625 0 0.1 0.625 0 0 0.63 0 0.02 0.63 0 0.04 0.63 0 0.06 0.63 0 0.08 0.63 0 0.1 0.63 0 0 0.635 0 0.02 0.635 0 0.04 0.635 0 0.06 0.635 0 0.08 0.635 0 0.1 0.635 0 0 0.64 0 0.02 0.64 0 0.04 0.64 0 0.06 0.64 0 0.08 0.64 0 0.1 0.64 0 0 0.645 0 0.02 0.645 0 0.04 0.645 0 0.06 0.645 0 0.08 0.645 0 0.1 0.645 0 0 0.65 0 0.02 0.65 0 0.04 0.65 0 0.06 0.65 0 0.08 0.65 0 0.1 0.65 0 0 0.655 0 0.02 0.655 0 0.04 0.655 0 0.06 0.655 0 0.08 0.655 0 0.1 0.655 0 0 0.66 0 0.02 0.66 0 0.04 0.66 0 0.06 0.66 0 0.08 0.66 0 0.1 0.66 0 0 0.665 0 0.02 0.665 0 0.04 0.665 0 0.06 0.665 0 0.08 0.665 0 0.1 0.665 0 0 0.67 0 0.02 0.67 0 0.04 0.67 0 0.06 0.67 0 0.08 0.67 0 0.1 0.67 0 0 0.675 0 0.02 0.675 0 0.04 0.675 0 0.06 0.675 0 0.08 0.675 0 0.1 0.675 0 0 0.68 0 0.02 0.68 0 0.04 0.68 0 0.06 0.68 0 0.08 0.68 0 0.1 0.68 0 0 0.685 0 0.02 0.685 0 0.04 0.685 0 0.06 0.685 0 0.08 0.685 0 0.1 0.685 0 0 0.69 0 0.02 0.69 0 0.04 0.69 0 0.06 0.69 0 0.08 0.69 0 0.1 
[...]
			<PointData Scalars="VitesseX">
				<DataArray Name="VitesseX" type="Float32" format="ascii">
 0 -2.45414e-14 -2.0368e-15 -7.14353e-15 1.51416e-14 0 0 -2.45982e-14 -2.6983e-15 -6.3515e-15 1.38983e-14 0 0 -1.69502e-14 -2.17011e-14 1.37432e-14 2.3677e-15 0 0 -3.77965e-14 6.29855e-15 -1.50833e-14 2.22598e-14 0 0 -4.51717e-14 1.41371e-14 -2.54787e-14 3.17259e-14 0 0 -1.34928e-14 -3.98167e-14 2.25455e-14 2.78446e-15 0 0 -1.98264e-14 -3.11773e-14 -2.86182e-15 2.78635e-14 0 0 -5.16154e-14 1.34745e-14 -6.92217e-14 8.95556e-14 0 0 -3.48487e-14 -3.27723e-14 -1.09752e-14 5.91382e-14 0 0 -5.8112e-14 -2.62896e-14 3.55496e-14 2.60772e-14 0 0 -1.22386e-13 5.89595e-14 -2.16355e-15 4.48344e-14 0 0 -6.16267e-14 -4.93763e-14 1.23338e-13 -2.80889e-14 0 0 -9.94091e-14 2.66217e-14 3.27422e-14 4.43942e-14 0 0 -6.67134e-14 -9.07596e-15 4.67342e-14 5.42312e-14 0 0 -3.86457e-15 -9.7962e-14 1.42126e-13 -2.81378e-14 0 0 -7.11992e-14 5.63524e-14 -4.19153e-14 5.58169e-14 0 0 2.96812e-15 -2.93215e-14 -1.35302e-14 6.20259e-14 0 0 -2.88931e-14 2.33222e-14 -6.91544e-14 9.23322e-14 0 0 -4.92288e-14 4.72564e-14 -9.64704e-14 9.23514e-14 0 0 -3.55657e-14 2.08757e-14 -1.00663e-13 9.52868e-14 0 0 -6.65926e-14 4.29261e-14 -1.49845e-13 1.3033e-13 0 0 -6.18065e-14 -4.28289e-15 -8.60819e-14 8.34634e-14 0 0 -7.29345e-14 -1.3201e-14 1.90453e-14 -5.44727e-14 0 0 -7.18225e-14 -1.27371e-14 6.70469e-14 -1.53541e-13 0 0 -1.25258e-13 7.5942e-14 -4.20839e-14 -1.17802e-13 0 0 -1.42878e-13 9.26451e-14 -1.23447e-13 -7.42341e-14 0 0 -1.19574e-13 3.90209e-14 -1.14757e-13 -1.16237e-13 0 0 -1.12957e-13 -1.34017e-15 -6.48064e-14 -2.07124e-13 0 0 -7.84683e-14 -5.84965e-14 -2.55436e-14 -2.26302e-13 0 0 -1.43431e-13 1.56805e-14 -7.15632e-14 -1.68408e-13 0 0 -7.81122e-14 -8.83833e-14 6.49701e-14 -1.93718e-13 0 0 -8.26666e-14 -4.46301e-14 4.08152e-14 -1.18296e-13 0 0 -1.69468e-13 1.16354e-13 -1.05486e-13 -6.41454e-15 0 0 2.65523e-14 -1.87169e-13 2.19888e-13 -1.71243e-13 0 0 -1.39547e-13 4.9701e-14 4.36455e-14 -3.1973e-14 0 0 -2.33251e-13 1.5592e-13 -4.66431e-14 5.48594e-14 0 0 -2.27094e-13 1.13122e-13 -2.36534e-14 7.94894e-14 0 0 -8.55343e-14 -7.03807e-14 1.38725e-13 -1.02247e-16 0 0 -4.13234e-14 -5.41726e-14 1.12826e-13 -3.99462e-14 0 0 -2.52415e-13 2.60684e-13 -8.29802e-14 -6.02631e-14 0 0 -2.00274e-13 9.05362e-14 1.26875e-13 -2.07012e-13 0 0 -6.33328e-14 -1.46364e-13 2.14637e-13 -1.54027e-13 0 0 2.45815e-14 -3.25056e-13 2.7864e-13 -9.73976e-14 0 0 -1.66457e-13 -1.21861e-13 1.07152e-13 9.00984e-15 0 0 -3.06848e-13 4.56378e-15 1.05387e-13 -4.48872e-14 0 0 -2.2124e-13 -1.89156e-13 4.06403e-13 -3.00209e-13 0 0 -1.18864e-13 -2.22682e-13 3.67819e-13 -3.47919e-13 0 0 -3.09978e-14 -1.80877e-13 2.33573e-13 -3.36551e-13 0 0 -6.78264e-14 -9.18621e-15 1.0113e-13 -3.50789e-13 0 0 -3.62055e-13 4.81551e-13 -2.44737e-13 -2.63037e-13 0 0 -4.21833e-13 6.20631e-13 -3.06086e-13 -2.441e-13 0 0 -1.98393e-13 4.4102e-13 -3.02596e-13 -6.50057e-14 0 0 2.7162e-14 1.91705e-13 -1.2822e-13 -1.37879e-13 0 0 1.38453e-13 -9.88646e-14 2.98732e-13 -4.80213e-13 0 0 -1.35856e-13 1.72255e-13 8.5428e-14 -4.14115e-13 0 0 -4.0727e-13 5.07316e-13 -2.53413e-13 -2.51061e-13 0 0 -2.00287e-13 1.12538e-13 4.82188e-14 -3.67498e-13 0 0 -1.1715e-13 5.44409e-14 -6.9344e-14 -2.60291e-13 0 0 -1.45512e-13 7.49261e-14 -6.88282e-14 -2.90099e-13 0 0 -2.17017e-13 9.25532e-14 -1.14492e-14 -3.34403e-13 0 0 -2.85343e-13 2.08792e-13 -1.52329e-13 -2.32088e-13 0 0 -8.34665e-14 -6.37847e-14 7.22197e-14 -3.76162e-13 0 0 -3.40319e-14 -7.74703e-14 3.37757e-14 -3.3697e-13 0 0 -2.08146e-13 2.22393e-13 -2.6679e-13 -9.27475e-14 0 0 -1.59518e-13 2.05557e-13 -2.65562e-13 2.34991e-14 0 0 3.67464e-14 -4.48324e-14 -2.38968e-14 -3.61365e-14 0 0 2.29748e-15 -1.24363e-13 1.58616e-13 -1.45799e-13 0 0 -1.75723e-13 -2.88317e-14 2.35949e-13 -2.12965e-13 0 0 -2.64429e-13 1.64501e-13 7.49739e-14 -1.41879e-13 0 0 -1.81161e-13 1.21835e-13 1.19541e-13 -2.16803e-13 0 0 -7.77821e-14 1.05493e-14 2.46075e-13 -3.24019e-13 0 0 -1.01334e-14 3.93359e-14 2.21814e-13 -4.32747e-13 0 0 -1.42149e-13 3.67811e-13 -5.29911e-14 -3.75793e-13 0 0 -4.60328e-14 2.82018e-13 5.09701e-14 -4.29153e-13 0 0 -8.94453e-14 3.51809e-13 1.6929e-14 -2.84923e-13 0 0 -9.37723e-14 3.25152e-13 3.54459e-14 -1.18627e-13 0 0 2.97597e-13 -1.38803e-13 3.66202e-13 -2.21165e-13 0 0 2.43762e-13 1.6196e-13 -2.47417e-14 -6.96763e-14 0 0 9.14553e-14 3.02216e-13 7.67184e-14 -3.76042e-13 0 0 -1.53131e-13 7.07564e-13 -2.84609e-13 -7.63122e-14 0 0 3.09182e-13 8.33154e-14 1.92359e-14 6.02025e-14 0 0 5.2546e-13 -5.69555e-13 7.79842e-13 -2.55092e-13 0 0 -3.78203e-13 5.34685e-13 -4.16926e-14 3.15843e-13 0 0 -8.0039e-14 1.27294e-13 1.90624e-13 2.62274e-13 0 0 5.85794e-13 -8.21126e-13 8.54846e-13 -1.02633e-13 0 0 -2.42496e-13 2.24711e-13 -1.41746e-13 5.82497e-13 0 0 -8.35669e-13 4.82543e-13 4.59224e-14 4.94199e-13 0 0 -2.45484e-13 -3.37582e-13 7.73188e-13 1.20444e-13 0 0 3.24436e-13 -3.05953e-13 -2.85114e-14 8.43739e-13 0 0 3.79732e-13 -4.31734e-13 2.57822e-13 4.98869e-13 0 0 -7.74393e-14 -9.81486e-16 4.23047e-13 5.9502e-14 0 0 -5.46745e-13 7.33614e-13 -1.40727e-13 3.83428e-13 0 0 -6.12252e-13 6.2289e-13 -2.3483e-16 2.50737e-13 0 0 -4.45574e-13 1.89225e-13 3.88256e-13 2.21188e-14 0 0 1.37147e-14 -3.50479e-13 4.34431e-13 2.26848e-13 0 0 7.85023e-14 -5.8816e-13 6.83983e-13 5.16178e-14 0 0 -2.21902e-13 -4.0849e-13 8.62429e-13 -3.95196e-13 0 0 -7.72472e-13 3.4818e-13 2.72844e-13 -1.6662e-13 0 0 -7.65109e-13 8.57711e-13 -7.79151e-13 4.11084e-13 0 0 -6.42743e-14 3.75957e-13 -8.08525e-13 7.76649e-13 0 0 9.79396e-13 -7.51874e-13 -4.51163e-13 8.5723e-13 0 0 1.0835e-12 -1.06783e-12 -2.21938e-13 8.17489e-13 0 0 5.35252e-13 -6.87206e-13 -2.09627e-13 5.83813e-13 0 0 -3.37305e-13 1.15606e-13 -2.5621e-13 3.38651e-13 0 0 -5.50477e-13 4.57529e-13 -3.80482e-13 3.07553e-13 0 0 -4.7178e-13 4.67789e-13 -4.05398e-13 2.82977e-13 0 0 -2.8289e-13 3.92497e-13 -3.31583e-13 1.26076e-13 0 0 -1.7838e-13 3.71471e-13 -2.29613e-13 -2.10209e-13 0 0 -1.59523e-13 3.65397e-13 -1.4497e-13 -5.13243e-13 0 0 -1.69884e-13 2.78616e-13 -8.72759e-14 -5.65725e-13 0 0 -2.00487e-13 1.09517e-13 -8.46254e-14 -5.27008e-13 0 0 -2.36752e-13 -1.61847e-13 8.486e-15 -5.32815e-13 0 0 -2.9121e-13 -2.99394e-13 1.44747e-16 -4.77674e-13 0 0 -3.60992e-13 -2.58495e-13 -1.6841e-13 -3.00118e-13 0 0 -3.75984e-13 -2.99982e-13 -1.95122e-13 -1.55721e-13 0 0 -3.70516e-13 -3.04099e-13 -1.81241e-13 -1.71086e-13 0 0 -3.55341e-13 -2.25057e-13 -3.08166e-13 -8.12604e-14 0 0 -2.84296e-13 -2.27564e-13 -2.4671e-13 -1.3875e-13 0 0 -2.44251e-13 -1.59035e-13 -2.13614e-13 -2.55396e-13 0 0 -2.02123e-13 -5.75408e-14 -1.86603e-13 -1.99878e-13 0 0 -2.08215e-13 2.2284e-14 -7.90421e-14 -2.28723e-13 0 0 -2.15309e-13 1.01147e-13 -5.67123e-14 -2.78304e-13 0 0 -8.21477e-14 -2.57086e-14 8.66251e-14 -3.32032e-13 0 0 -8.83787e-14 6.51692e-14 -6.41039e-14 -1.5738e-13 0 0 7.41339e-15 -9.03967e-14 8.67209e-14 -2.25147e-13 0 0 -4.78947e-14 -3.18182e-14 2.35577e-14 -1.81376e-13 0 0 -1.58158e-13 1.66205e-13 -2.15983e-13 -3.1645e-14 0 0 -5.91471e-14 3.06775e-14 -1.06853e-13 -1.46921e-13 0 0 -7.86193e-14 1.09673e-13 -2.82068e-13 -6.66793e-15 0 0 9.72346e-14 -1.8595e-13 -6.93478e-14 -2.43171e-14 0 0 5.15045e-14 -1.89184e-13 -6.84388e-15 -9.69068e-14 0 0 -1.51939e-13 8.10603e-14 -1.77741e-13 -7.13528e-14 0 0 -9.84801e-14 -1.29405e-14 -1.21076e-13 -5.32879e-14 0 0 -1.82667e-13 1.2483e-13 -3.17557e-13 1.04517e-13 0 0 3.13427e-14 -2.74408e-13 1.19711e-14 -1.67914e-14 0 0 4.45228e-14 -3.49461e-13 2.45439e-14 5.42262e-14 0 0 -1.87294e-13 -6.80002e-15 -2.20505e-13 1.53973e-13 0 0 -1.22351e-13 -1.7973e-13 1.17773e-13 -1.01452e-13 0 0 -2.70999e-13 -6.71442e-14 1.40296e-13 -1.26249e-13 0 0 -3.7528e-13 3.32036e-14 8.69068e-14 -8.36769e-14 0 0 -2.74405e-13 -1.18391e-13 2.33699e-13 -3.06916e-14 0 0 -4.15845e-13 1.94348e-13 -8.471e-14 1.60268e-13 0 0 -2.10377e-13 -5.67303e-14 1.33685e-13 -5.87061e-14 0 0 -7.49611e-16 -3.98541e-13 4.71769e-13 -1.24789e-13 0 0 -2.11446e-13 -1.2327e-13 3.55631e-13 5.07837e-14 0 0 1.72364e-13 -5.41582e-13 8.56357e-13 -2.03851e-13 0 0 -1.03121e-13 1.9461e-13 1.48939e-13 2.31712e-13 0 0 -2.39723e-13 5.41395e-13 -5.82603e-14 2.05784e-13 0 0 2.60099e-14 5.98025e-14 6.02524e-13 -2.7556e-13 0 0 -2.20161e-14 -1.61047e-13 9.28425e-13 -3.21515e-13 0 0 2.03417e-13 -6.32409e-13 1.18116e-12 -3.30834e-13 0 0 -3.03317e-13 2.47905e-13 8.2669e-14 2.79569e-13 0 0 -3.86482e-13 4.74073e-13 -1.8216e-13 1.48392e-13 0 0 -2.17314e-13 3.01546e-13 -1.58414e-13 6.61114e-14 0 0 4.64638e-14 -5.21194e-14 -8.07334e-14 2.83229e-13 0 0 -1.83447e-14 -1.00239e-13 -2.12248e-14 2.67714e-13 0 0 -5.59368e-13 4.99384e-13 -4.41446e-13 3.98819e-13 0 0 -2.90648e-13 1.53213e-15 4.23768e-14 2.69667e-14 0 0 -6.28785e-14 -3.2567e-13 2.63633e-13 -1.62248e-13 0 0 1.83112e-13 -6.304e-13 4.26854e-13 -2.38963e-13 0 0 6.04857e-14 -5.1734e-13 2.82995e-13 -1.81464e-13 0 0 -4.54194e-13 1.09397e-13 -2.73773e-13 6.6665e-14 0 0 -3.83555e-13 -3.25397e-14 -1.34981e-13 -1.43612e-13 0 0 -2.71431e-13 -2.29487e-13 4.56092e-14 -1.65789e-13 0 0 -7.80638e-15 -5.84561e-13 2.44749e-13 1.53942e-13 0 0 8.37029e-14 -7.82101e-13 2.4545e-13 6.18679e-13 0 0 -2.52892e-13 -3.78953e-13 -8.70108e-14 8.92899e-13 0 0 -5.03883e-13 6.503e-14 -2.88853e-13 7.44576e-13 0 0 -6.84067e-13 4.44102e-13 -6.99198e-13 8.29755e-13 0 0 -1.8608e-13 -2.64565e-13 -5.30976e-13 9.2735e-13 0 0 5.25785e-14 -7.34014e-13 -2.89417e-13 8.91133e-13 0 0 -1.65324e-13 -4.50162e-13 -3.40722e-13 6.95523e-13 0 0 -6.53623e-14 -6.09451e-13 6.18186e-14 1.59952e-13 0 0 -3.69799e-13 -2.57997e-13 5.0317e-14 -1.65914e-13 0 0 -5.70201e-13 4.40112e-14 -3.37512e-13 9.2592e-14 0 0 -4.40705e-13 -9.23899e-14 -4.43782e-13 3.24169e-13 0 0 -6.81491e-14 -5.20229e-13 -1.08507e-13 1.09899e-13 0 0 8.34912e-14 -6.7588e-13 -1.1655e-13 2.11601e-13 0 0 -6.52808e-13 2.42197e-13 -7.73975e-13 5.51509e-13 0 0 -8.17968e-13 2.42339e-13 -2.87225e-13 -1.91038e-14 0 0 -3.20435e-13 -5.47214e-13 4.48921e-13 -4.97115e-13 0 0 -3.02594e-13 -3.91717e-13 -1.26755e-13 7.01358e-14 0 0 -7.12459e-14 -5.74418e-13 -2.31963e-13 3.15182e-13 0 0 -8.15132e-14 -4.04166e-13 -3.95671e-13 2.93432e-13 0 0 -1.19704e-13 -4.15176e-13 -3.5159e-15 -1.9654e-13 0 0 -1.32525e-13 -5.19312e-13 5.76233e-13 -6.81181e-13 0 0 -4.37654e-13 2.09313e-14 1.71584e-13 -5.09134e-13 0 0 -2.04633e-13 -3.89183e-13 4.81033e-13 -6.37615e-13 0 0 -4.55233e-13 -7.34636e-14 8.33854e-14 -3.09368e-13 0 0 -4.66433e-13 5.80845e-14 -4.90997e-14 -2.02233e-13 0 0 -4.07653e-14 -4.53149e-13 4.90677e-13 -5.76867e-13 0 0 -4.6881e-13 4.5487e-13 -4.20486e-13 -1.73148e-13 0 0 -2.61114e-13 2.11134e-13 -1.48998e-13 -4.90719e-13 0 0 1.52951e-14 -3.5077e-13 2.10289e-13 -5.28544e-13 0 0 -1.79906e-13 -2.25304e-13 1.88677e-13 -4.18829e-13 0 0 1.69434e-13 -8.42242e-13 1.1591e-12 -1.16537e-12 0 0 -1.98936e-13 -1.3002e-13 5.468e-13 -8.9508e-13 0 0 -8.94573e-14 -2.95311e-13 8.62377e-13 -1.20821e-12 0 0 -1.83541e-13 -1.74417e-13 7.8129e-13 -1.18806e-12 0 0 -2.66336e-13 2.66539e-13 -1.00211e-13 -5.65707e-13 0 0 3.91726e-13 -4.77526e-13 2.59564e-13 -7.10798e-13 0
				</DataArray>
				<DataArray Name="VitesseY" type="Float32" format="ascii">