<?xml version="1.0"?>
<VTKFile type="PolyData">
	<PolyData>
		<Piece NumberOfPoints="1206" NumberOfPolys="1000">
			<Points>
				<DataArray type="Float32" NumberOfComponents="3" format="ascii">
 0 0 0 0.02 0 0 0.04 0 0 0.06 0 0 0.08 0 0 0.1 0 0 0 0.005 0 0.02 0.005 0 0.04 0.005 0 0.06 0.005 0 0.08 0.005 0 0.1 0.005 0 0 0.01 0 0.02 0.01 0 0.04 0.01 0 0.06 0.01 0 0.08 0.01 0 0.1 0.01 0 0 0.015 0 0.02 0.015 0 0.04 0.015 0 0.06 0.015 0 0.08 0.015 0 0.1 0.015 0 0 0.02 0 0.02 0.02 0 0.04 0.02 0 0.06 0.02 0 0.08 0.02 0 0.1 0.02 0 0 0.025 0 0.02 0.025 0 0.04 0.025 0 0.06 0.025 0 0.08 0.025 0 0.1 0.025 0 0 0.03 0 0.02 0.03 0 0.04 0.03 0 0.06 0.03 0 0.08 0.03 0 0.1 0.03 0 0 0.035 0 0.02 0.035 0 0.04 0.035 0 0.06 0.035 0 0.08 0.035 0 0.1 0.035 0 0 0.04 0 0.02 0.04 0 0.04 0.04 0 0.06 0.04 0 0.08 0.04 0 0.1 0.04 0 0 0.045 0 0.02 0.045 0 0.04 0.045 0 0.06 0.045 0 0.08 0.045 0 0.1 0.045 0 0 0.05 0 0.02 0.05 0 0.04 0.05 0 0.06 0.05 0 0.08 0.05 0 0.1 0.05 0 0 0.055 0 0.02 0.055 0 0.04 0.055 0 0.06 0.055 0 0.08 0.055 0 0.1 0.055 0 0 0.06 0 0.02 0.06 0 0.04 0.06 0 0.06 0.06 0 0.08 0.06 0 0.1 0.06 0 0 0.065 0 0.02 0.065 0 0.04 0.065 0 0.06 0.065 0 0.08 0.065 0 0.1 0.065 0 0 0.07 0 0.02 0.07 0 0.04 0.07 0 0.06 0.07 0 0.08 0.07 0 0.1 0.07 0 0 0.075 0 0.02 0.075 0 0.04 0.075 0 0.06 0.075 0 0.08 0.075 0 0.1 0.075 0 0 0.08 0 0.02 0.08 0 0.04 0.08 0 0.06 0.08 0 0.08 0.08 0 0.1 0.08 0 0 0.085 0 0.02 0.085 0 0.04 0.085 0 0.06 0.085 0 0.08 0.085 0 0.1 0.085 0 0 0.09 0 0.02 0.09 0 0.04 0.09 0 0.06 0.09 0 0.08 0.09 0 0.1 0.09 0 0 0.095 0 0.02 0.095 0 0.04 0.095 0 0.06 0.095 0 0.08 0.095 0 0.1 0.095 0 0 0.1 0 0.02 0.1 0 0.04 0.1 0 0.06 0.1 0 0.08 0.1 0 0.1 0.1 0 0 0.105 0 0.02 0.105 0 0.04 0.105 0 0.06 0.105 0 0.08 0.105 0 0.1 0.105 0 0 0.11 0 0.02 0.11 0 0.04 0.11 0 0.06 0.11 0 0.08 0.11 0 0.1 0.11 0 0 0.115 0 0.02 0.115 0 0.04 0.115 0 0.06 0.115 0 0.08 0.115 0 0.1 0.115 0 0 0.12 0 0.02 0.12 0 0.04 0.12 0 0.06 0.12 0 0.08 0.12 0 0.1 0.12 0 0 0.125 0 0.02 0.125 0 0.04 0.125 0 0.06 0.125 0 0.08 0.125 0 0.1 0.125 0 0 0.13 0 0.02 0.13 0 0.04 0.13 0 0.06 0.13 0 0.08 0.13 0 0.1 0.13 0 0 0.135 0 0.02 0.135 0 0.04 0.135 0 0.06 0.135 0 0.08 0.135 0 0.1 0.135 0 0 0.14 0 0.02 0.14 0 0.04 0.14 0 0.06 0.14 0 0.08 0.14 0 0.1 0.14 0 0 0.145 0 0.02 0.145 0 0.04 0.145 0 0.06 0.145 0 0.08 0.145 0 0.1 0.145 0 0 0.15 0 0.02 0.15 0 0.04 0.15 0 0.06 0.15 0 0.08 0.15 0 0.1 0.15 0 0 0.155 0 0.02 0.155 0 0.04 0.155 0 0.06 0.155 0 0.08 0.155 0 0.1 0.155 0 0 0.16 0 0.02 0.16 0 0.04 0.16 0 0.06 0.16 0 0.08 0.16 0 0.1 0.16 0 0 0.165 0 0.02 0.165 0 0.04 0.165 0 0.06 0.165 0 0.08 0.165 0 0.1 0.165 0 0 0.17 0 0.02 0.17 0 0.04 0.17 0 0.06 0.17 0 0.08 0.17 0 0.1 0.17 0 0 0.175 0 0.02 0.175 0 0.04 0.175 0 0.06 0.175 0 0.08 0.175 0 0.1 0.175 0 0 0.18 0 0.02 0.18 0 0.04 0.18 0 0.06 0.18 0 0.08 0.18 0 0.1 0.18 0 0 0.185 0 0.02 0.185 0 0.04 0.185 0 0.06 0.185 0 0.08 0.185 0 0.1 0.185 0 0 0.19 0 0.02 0.19 0 0.04 0.19 0 0.06 0.19 0 0.08 0.19 0 0.1 0.19 0 0 0.195 0 0.02 0.195 0 0.04 0.195 0 0.06 0.195 0 0.08 0.195 0 0.1 0.195 0 0 0.2 0 0.02 0.2 0 0.04 0.2 0 0.06 0.2 0 0.08 0.2 0 0.1 0.2 0 0 0.205 0 0.02 0.205 0 0.04 0.205 0 0.06 0.205 0 0.08 0.205 0 0.1 0.205 0 0 0.21 0 0.02 0.21 0 0.04 0.21 0 0.06 0.21 0 0.08 0.21 0 0.1 0.21 0 0 0.215 0 0.02 0.215 0 0.04 0.215 0 0.06 0.215 0 0.08 0.215 0 0.1 0.215 0 0 0.22 0 0.02 0.22 0 0.04 0.22 0 0.06 0.22 0 0.08 0.22 0 0.1 0.22 0 0 0.225 0 0.02 0.225 0 0.04 0.225 0 0.06 0.225 0 0.08 0.225 0 0.1 0.225 0 0 0.23 0 0.02 0.23 0 0.04 0.23 0 0.06 0.23 0 0.08 0.23 0 0.1 0.23 0 0 0.235 0 0.02 0.235 0 0.04 0.235 0 0.06 0.235 0 0.08 0.235 0 0.1 0.235 0 0 0.24 0 0.02 0.24 0 0.04 0.24 0 0.06 0.24 0 0.08 0.24 0 0.1 0.24 0 0 0.245 0 0.02 0.245 0 0.04 0.245 0 0.06 0.245 0 0.08 0.245 0 0.1 0.245 0 0 0.25 0 0.02 0.25 0 0.04 0.25 0 0.06 0.25 0 0.08 0.25 0 0.1 0.25 0 0 0.255 0 0.02 0.255 0 0.04 0.255 0 0.06 0.255 0 0.08 0.255 0 0.1 0.255 0 0 0.26 0 0.02 0.26 0 0.04 0.26 0 0.06 0.26 0 0.08 0.26 0 0.1 0.26 0 0 0.265 0 0.02 0.265 0 0.04 0.265 0 0.06 0.265 0 0.08 0.265 0 0.1 0.265 0 0 0.27 0 0.02 0.27 0 0.04 0.27 0 0.06 0.27 0 0.08 0.27 0 0.1 0.27 0 0 0.275 0 0.02 0.275 0 0.04 0.275 0 0.06 0.275 0 0.08 0.275 0 0.1 0.275 0 0 0.28 0 0.02 0.28 0 0.04 0.28 0 0.06 0.28 0 0.08 0.28 0 0.1 0.28 0 0 0.285 0 0.02 0.285 0 0.04 0.285 0 0.06 0.285 0 0.08 0.285 0 0.1 0.285 0 0 0.29 0 0.02 0.29 0 0.04 0.29 0 0.06 0.29 0 0.08 0.29 0 0.1 0.29 0 0 0.295 0 0.02 0.295 0 0.04 0.295 0 0.06 0.295 0 0.08 0.295 0 0.1 0.295 0 0 0.3 0 0.02 0.3 0 0.04 0.3 0 0.06 0.3 0 0.08 0.3 0 0.1 0.3 0 0 0.305 0 0.02 0.305 0 0.04 0.305 0 0.06 0.305 0 0.08 0.305 0 0.1 0.305 0 0 0.31 0 0.02 0.31 0 0.04 0.31 0 0.06 0.31 0 0.08 0.31 0 0.1 0.31 0 0 0.315 0 0.02 0.315 0 0.04 0.315 0 0.06 0.315 0 0.08 0.315 0 0.1 0.315 0 0 0.32 0 0.02 0.32 0 0.04 0.32 0 0.06 0.32 0 0.08 0.32 0 0.1 0.32 0 0 0.325 0 0.02 0.325 0 0.04 0.325 0 0.06 0.325 0 0.08 0.325 0 0.1 0.325 0 0 0.33 0 0.02 0.33 0 0.04 0.33 0 0.06 0.33 0 0.08 0.33 0 0.1 0.33 0 0 0.335 0 0.02 0.335 0 0.04 0.335 0 0.06 0.335 0 0.08 0.335 0 0.1 0.335 0 0 0.34 0 0.02 0.34 0 0.04 0.34 0 0.06 0.34 0 0.08 0.34 0 0.1 0.34 0 0 0.345 0 0.02 0.345 0 0.04 0.345 0 0.06 0.345 0 0.08 0.345 0 0.1 0.345 0 0 0.35 0 0.02 0.35 0 0.04 0.35 0 0.06 0.35 0 0.08 0.35 0 0.1 0.35 0 0 0.355 0 0.02 0.355 0 0.04 0.355 0 0.06 0.355 0 0.08 0.355 0 0.1 0.355 0 0 0.36 0 0.02 0.36 0 0.04 0.36 0 0.06 0.36 0 0.08 0.36 0 0.1 0.36 0 0 0.365 0 0.02 0.365 0 0.04 0.365 0 0.06 0.365 0 0.08 0.365 0 0.1 0.365 0 0 0.37 0 0.02 0.37 0 0.04 0.37 0 0.06 0.37 0 0.08 0.37 0 0.1 0.37 0 0 0.375 0 0.02 0.375 0 0.04 0.375 0 0.06 0.375 0 0.08 0.375 0 0.1 0.375 0 0 0.38 0 0.02 0.38 0 0.04 0.38 0 0.06 0.38 0 0.08 0.38 0 0.1 0.38 0 0 0.385 0 0.02 0.385 0 0.04 0.385 0 0.06 0.385 0 0.08 0.385 0 0.1 0.385 0 0 0.39 0 0.02 0.39 0 0.04 0.39 0 0.06 0.39 0 0.08 0.39 0 0.1 0.39 0 0 0.395 0 0.02 0.395 0 0.04 0.395 0 0.06 0.395 0 0.08 0.395 0 0.1 0.395 0 0 0.4 0 0.02 0.4 0 0.04 0.4 0 0.06 0.4 0 0.08 0.4 0 0.1 0.4 0 0 0.405 0 0.02 0.405 0 0.04 0.405 0 0.06 0.405 0 0.08 0.405 0 0.1 0.405 0 0 0.41 0 0.02 0.41 0 0.04 0.41 0 0.06 0.41 0 0.08 0.41 0 0.1 0.41 0 0 0.415 0 0.02 0.415 0 0.04 0.415 0 0.06 0.415 0 0.08 0.415 0 0.1 0.415 0 0 0.42 0 0.02 0.42 0 0.04 0.42 0 0.06 0.42 0 0.08 0.42 0 0.1 0.42 0 0 0.425 0 0.02 0.425 0 0.04 0.425 0 0.06 0.425 0 0.08 0.425 0 0.1 0.425 0 0 0.43 0 0.02 0.43 0 0.04 0.43 0 0.06 0.43 0 0.08 0.43 0 0.1 0.43 0 0 0.435 0 0.02 0.435 0 0.04 0.435 0 0.06 0.435 0 0.08 0.435 0 0.1 0.435 0 0 0.44 0 0.02 0.44 0 0.04 0.44 0 0.06 0.44 0 0.08 0.44 0 0.1 0.44 0 0 0.445 0 0.02 0.445 0 0.04 0.445 0 0.06 0.445 0 0.08 0.445 0 0.1 0.445 0 0 0.45 0 0.02 0.45 0 0.04 0.45 0 0.06 0.45 0 0.08 0.45 0 0.1 0.45 0 0 0.455 0 0.02 0.455 0 0.04 0.455 0 0.06 0.455 0 0.08 0.455 0 0.1 0.455 0 0 0.46 0 0.02 0.46 0 0.04 0.46 0 0.06 0.46 0 0.08 0.46 0 0.1 0.46 0 0 0.465 0 0.02 0.465 0 0.04 0.465 0 0.06 0.465 0 0.08 0.465 0 0.1 0.465 0 0 0.47 0 0.02 0.47 0 0.04 0.47 0 0.06 0.47 0 0.08 0.47 0 0.1 0.47 0 0 0.475 0 0.02 0.475 0 0.04 0.475 0 0.06 0.475 0 0.08 0.475 0 0.1 0.475 0 0 0.48 0 0.02 0.48 0 0.04 0.48 0 0.06 0.48 0 0.08 0.48 0 0.1 0.48 0 0 0.485 0 0.02 0.485 0 0.04 0.485 0 0.06 0.485 0 0.08 0.485 0 0.1 0.485 0 0 0.49 0 0.02 0.49 0 0.04 0.49 0 0.06 0.49 0 0.08 0.49 0 0.1 0.49 0 0 0.495 0 0.02 0.495 0 0.04 0.495 0 0.06 0.495 0 0.08 0.495 0 0.1 0.495 0 0 0.5 0 0.02 0.5 0 0.04 0.5 0 0.06 0.5 0 0.08 0.5 0 0.1 0.5 0 0 0.505 0 0.02 0.505 0 0.04 0.505 0 0.06 0.505 0 0.08 0.505 0 0.1 0.505 0 0 0.51 0 0.02 0.51 0 0.04 0.51 0 0.06 0.51 0 0.08 0.51 0 0.1 0.51 0 0 0.515 0 0.02 0.515 0 0.04 0.515 0 0.06 0.515 0 0.08 0.515 0 0.1 0.515 0 0 0.52 0 0.02 0.52 0 0.04 0.52 0 0.06 0.52 0 0.08 0.52 0 0.1 0.52 0 0 0.525 0 0.02 0.525 0 0.04 0.525 0 0.06 0.525 0 0.08 0.525 0 0.1 0.525 0 0 0.53 0 0.02 0.53 0 0.04 0.53 0 0.06 0.53 0 0.08 0.53 0 0.1 0.53 0 0 0.535 0 0.02 0.535 0 0.04 0.535 0 0.06 0.535 0 0.08 0.535 0 0.1 0.535 0 0 0.54 0 0.02 0.54 0 0.04 0.54 0 0.06 0.54 0 0.08 0.54 0 0.1 0.54 0 0 0.545 0 0.02 0.545 0 0.04 0.545 0 0.06 0.545 0 0.08 0.545 0 0.1 0.545 0 0 0.55 0 0.02 0.55 0 0.04 0.55 0 0.06 0.55 0 0.08 0.55 0 0.1 0.55 0 0 0.555 0 0.02 0.555 0 0.04 0.555 0 0.06 0.555 0 0.08 0.555 0 0.1 0.555 0 0 0.56 0 0.02 0.56 0 0.04 0.56 0 0.06 0.56 0 0.08 0.56 0 0.1 0.56 0 0 0.565 0 0.02 0.565 0 0.04 0.565 0 0.06 0.565 0 0.08 0.565 0 0.1 0.565 0 0 0.57 0 0.02 0.57 0 0.04 0.57 0 0.06 0.57 0 0.08 0.57 0 0.1 0.57 0 0 0.575 0 0.02 0.575 0 0.04 0.575 0 0.06 0.575 0 0.08 0.575 0 0.1 0.575 0 0 0.58 0 0.02 0.58 0 0.04 0.58 0 0.06 0.58 0 0.08 0.58 0 0.1 0.58 0 0 0.585 0 0.02 0.585 0 0.04 0.585 0 0.06 0.585 0 0.08 0.585 0 0.1 0.585 0 0 0.59 0 0.02 0.59 0 0.04 0.59 0 0.06 0.59 0 0.08 0.59 0 0.1 0.59 0 0 0.595 0 0.02 0.595 0 0.04 0.595 0 0.06 0.595 0 0.08 0.595 0 0.1 0.595 0 0 0.6 0 0.02 0.6 0 0.04 0.6 0 0.06 0.6 0 0.08 0.6 0 0.1 0.6 0 0 0.605 0 0.02 0.605 0 0.04 0.605 0 0.06 0.605 0 0.08 0.605 0 0.1 0.605 0 0 0.61 0 0.02 0.61 0 0.04 0.61 0 0.06 0.61 0 0.08 0.61 0 0.1 0.61 0 0 0.615 0 0.02 0.615 0 0.04 0.615 0 0.06 0.615 0 0.08 0.615 0 0.1 0.615 0 0 0.62 0 0.02 0.62 0 0.04 0.62 0 0.06 0.62 0 0.08 0.62 0 0.1 0.62 0 0 0.625 0 0.02 0.625 0 0.04 0.625 0 0.06 0.625 0 0.08 0.625 0 0.1 0.625 0 0 0.63 0 0.02 0.63 0 0.04 0.63 0 0.06 0.63 0 0.08 0.63 0 0.1 0.63 0 0 0.635 0 0.02 0.635 0 0.04 0.635 0 0.06 0.635 0 0.08 0.635 0 0.1 0.635 0 0 0.64 0 0.02 0.64 0 0.04 0.64 0 0.06 0.64 0 0.08 0.64 0 0.1 0.64 0 0 0.645 0 0.02 0.645 0 0.04 0.645 0 0.06 0.645 0 0.08 0.645 0 0.1 0.645 0 0 0.65 0 0.02 0.65 0 0.04 0.65 0 0.06 0.65 0 0.08 0.65 0 0.1 0.65 0 0 0.655 0 0.02 0.655 0 0.04 0.655 0 0.06 0.655 0 0.08 0.655 0 0.1 0.655 0 0 0.66 0 0.02 0.66 0 0.04 0.66 0 0.06 0.66 0 0.08 0.66 0 0.1 0.66 0 0 0.665 0 0.02 0.665 0 0.04 0.665 0 0.06 0.665 0 0.08 0.665 0 0.1 0.665 0 0 0.67 0 0.02 0.67 0 0.04 0.67 0 0.06 0.67 0 0.08 0.67 0 0.1 0.67 0 0 0.675 0 0.02 0.675 0 0.04 0.675 0 0.06 0.675 0 0.08 0.675 0 0.1 0.675 0 0 0.68 0 0.02 0.68 0 0.04 0.68 0 0.06 0.68 0 0.08 0.68 0 0.1 0.68 0 0 0.685 0 0.02 0.685 0 0.04 0.685 0 0.06 0.685 0 0.08 0.685 0 0.1 0.685 0 0 0.69 0 0.02 0.69 0 0.04 0.69 0 0.06 0.69 0 0.08 0.69 0 0.1 
[...]
			<PointData Scalars="VitesseX">
				<DataArray Name="VitesseX" type="Float32" format="ascii">
 0 7.6253e-15 -1.74174e-14 4.55484e-14 1.32505e-14 0 0 7.70414e-15 -1.51462e-14 4.45012e-14 1.71538e-14 0 0 -3.2488e-15 1.14503e-14 1.92642e-14 3.75865e-14 0 0 8.3846e-15 4.70177e-15 3.07775e-14 3.08464e-14 0 0 3.01441e-15 2.63116e-14 2.76031e-14 2.60678e-14 0 0 -2.13238e-14 7.28406e-14 1.05006e-14 2.79861e-14 0 0 -2.56088e-16 6.02686e-14 3.04935e-14 7.98589e-15 0 0 2.37699e-14 4.35675e-14 5.41425e-14 -1.40614e-14 0 0 4.03518e-14 3.24082e-14 7.24207e-14 -2.13157e-14 0 0 5.3054e-14 4.58669e-14 4.61076e-14 6.72124e-15 0 0 6.4634e-14 4.98915e-14 2.06697e-14 3.4417e-14 0 0 4.38077e-14 9.18006e-14 -3.5314e-14 7.02918e-14 0 0 6.6882e-14 4.69161e-14 3.19934e-14 2.3469e-14 0 0 7.43775e-14 8.68853e-15 9.82819e-14 -1.67259e-14 0 0 7.14824e-14 1.5817e-14 7.69737e-14 -1.6252e-15 0 0 9.28523e-14 -1.37728e-15 7.51591e-14 -8.11118e-15 0 0 6.79853e-14 2.09173e-14 7.23713e-14 -2.87303e-14 0 0 6.1232e-14 -1.99613e-14 1.54666e-13 -9.03904e-14 0 0 3.06379e-14 -5.88595e-15 1.36504e-13 -2.01892e-14 0 0 4.28647e-15 3.44393e-14 5.21147e-14 9.37466e-14 0 0 -1.44821e-14 6.1871e-14 -2.04045e-14 1.48112e-13 0 0 -4.54383e-14 1.18123e-13 -1.03369e-13 1.81737e-13 0 0 2.95792e-14 -3.14642e-14 6.91027e-14 5.1178e-14 0 0 -1.50206e-14 1.78437e-15 7.9623e-14 2.50233e-14 0 0 -2.83507e-14 5.61934e-15 9.80579e-14 1.06634e-14 0 0 6.91946e-14 -1.459e-13 2.4612e-13 -7.83612e-14 0 0 -2.64754e-14 3.40213e-14 8.75094e-14 -3.55584e-15 0 0 -6.64081e-14 1.17558e-13 -1.23367e-14 6.30621e-14 0 0 2.1905e-15 4.84736e-14 -1.8942e-14 9.82584e-14 0 0 7.2374e-14 -4.07534e-14 4.43973e-14 5.80436e-14 0 0 1.64014e-14 5.00109e-14 -3.81742e-14 6.07667e-14 0 0 -8.03733e-15 6.99242e-14 -4.65258e-14 5.57076e-15 0 0 7.03353e-14 -8.20901e-14 1.06222e-13 -1.51296e-13 0 0 5.26306e-14 -4.82451e-14 2.8762e-14 -1.13059e-13 0 0 6.25927e-14 -2.01423e-14 -5.79009e-14 7.01959e-16 0 0 9.34639e-14 -3.48066e-14 -4.62723e-14 3.23333e-14 0 0 1.25636e-13 -9.99985e-14 5.02218e-14 -3.3586e-14 0 0 1.14834e-13 -1.18526e-13 1.01997e-13 -6.3627e-14 0 0 4.73496e-14 -2.33423e-14 3.96521e-14 -2.67134e-14 0 0 -1.29652e-14 6.89709e-14 -1.61276e-14 -2.00366e-14 0 0 -1.10641e-14 8.89447e-14 -1.15209e-14 -7.85858e-14 0 0 7.78801e-14 3.41171e-14 2.44791e-14 -1.36808e-13 0 0 6.72068e-14 1.22434e-13 -4.16863e-14 -9.62784e-14 0 0 5.53806e-14 2.16545e-13 -1.84059e-13 3.46219e-14 0 0 2.51602e-13 -1.32682e-14 -1.13048e-14 -3.34259e-14 0 0 3.00621e-13 -1.32063e-13 2.07617e-13 -2.22041e-13 0 0 2.05879e-13 -9.07709e-14 2.92543e-13 -3.60659e-13 0 0 1.30803e-13 5.1294e-14 1.26173e-13 -2.71948e-13 0 0 2.17575e-13 2.14852e-14 -2.44192e-14 -7.90201e-14 0 0 3.78603e-13 -2.12654e-13 1.76862e-14 2.17366e-14 0 0 3.55437e-13 -2.692e-13 3.81816e-14 4.95757e-14 0 0 2.17811e-13 -8.68519e-14 -8.17036e-14 7.45087e-14 0 0 -1.70416e-14 3.09409e-13 -4.56397e-13 2.81741e-13 0 0 1.98612e-14 1.57809e-13 -2.16179e-13 9.80227e-14 0 0 2.78747e-13 -2.85804e-13 2.40265e-13 -1.86459e-13 0 0 3.68862e-13 -3.42549e-13 2.4064e-13 -1.89089e-13 0 0 1.73532e-13 7.57207e-14 -1.62793e-13 -5.55735e-14 0 0 2.39084e-13 4.12799e-14 -1.26457e-13 -8.94246e-14 0 0 2.49513e-13 7.18281e-14 -1.41171e-13 -6.44522e-14 0 0 2.12716e-13 1.08056e-13 -5.47776e-14 -1.51147e-13 0 0 2.6991e-13 -3.01155e-14 2.19487e-13 -3.51544e-13 0 0 1.87167e-13 1.77017e-13 3.62994e-14 -2.85494e-13 0 0 2.92078e-13 6.23423e-14 1.21336e-13 -2.88702e-13 0 0 2.88677e-13 1.19608e-13 1.04653e-13 -2.78834e-13 0 0 2.63537e-13 2.56759e-13 -2.77897e-15 -2.03609e-13 0 0 3.37417e-13 1.47674e-13 8.9594e-14 -1.23735e-13 0 0 3.35927e-13 3.7104e-14 2.18618e-13 -1.08679e-13 0 0 2.60663e-13 1.35163e-13 8.65985e-14 4.94014e-14 0 0 1.3903e-13 3.31441e-13 -1.14385e-13 2.72145e-13 0 0 2.23953e-14 4.29572e-13 -1.13353e-13 3.42862e-13 0 0 -3.26432e-14 3.63314e-13 1.09871e-13 2.87414e-13 0 0 -1.06684e-13 3.1548e-13 2.61558e-13 3.5446e-13 0 0 -4.45534e-13 6.51238e-13 3.23947e-14 5.91656e-13 0 0 -3.14289e-13 3.55589e-13 3.3228e-13 4.47621e-13 0 0 -2.73098e-14 1.54879e-13 2.6771e-13 5.4645e-13 0 0 3.48958e-14 1.84449e-13 2.83072e-13 4.35712e-13 0 0 8.89631e-15 1.20742e-13 6.149e-13 1.43987e-13 0 0 -2.15084e-13 5.05929e-13 1.72399e-13 5.31001e-13 0 0 -1.00024e-13 4.11477e-13 2.18622e-13 5.26635e-13 0 0 -2.12529e-13 6.39663e-13 2.45459e-13 3.21265e-13 0 0 -8.06442e-14 6.29813e-13 4.77749e-13 -1.13452e-13 0 0 3.99806e-13 1.36596e-13 9.75036e-13 -6.37896e-13 0 0 5.48532e-13 2.1963e-13 7.45754e-13 -4.77482e-13 0 0 4.61517e-13 4.68289e-13 1.45225e-13 8.22316e-14 0 0 6.45784e-13 3.89853e-13 -1.13054e-13 3.73841e-13 0 0 6.48147e-13 2.49692e-13 1.97971e-13 4.19495e-14 0 0 4.74758e-13 2.79819e-13 7.38257e-13 -6.40569e-13 0 0 1.52439e-13 5.18747e-13 8.09766e-13 -9.71563e-13 0 0 -3.82345e-14 9.43345e-13 3.84927e-13 -6.76806e-13 0 0 1.01701e-13 8.96556e-13 7.10481e-14 -2.69808e-13 0 0 3.94453e-13 5.96005e-13 8.66778e-14 -8.63463e-14 0 0 5.37777e-13 4.75314e-13 8.00011e-15 1.32815e-13 0 0 6.65517e-13 3.94194e-13 -2.33441e-13 5.00151e-13 0 0 7.40043e-13 3.73195e-13 -3.8832e-13 8.06088e-13 0 0 6.65591e-13 4.53644e-13 -4.35972e-13 8.46167e-13 0 0 5.18446e-13 4.71869e-13 -2.93547e-13 6.86151e-13 0 0 3.73612e-13 3.66583e-13 1.90176e-13 1.7261e-13 0 0 3.3467e-13 2.83893e-13 5.65232e-13 -2.298e-13 0 0 3.38297e-13 2.30687e-13 5.6971e-13 -1.86805e-13 0 0 3.39898e-13 2.57147e-13 3.67115e-13 1.22061e-13 0 0 3.56609e-13 4.10815e-13 -7.33314e-14 6.07205e-13 0 0 2.93228e-13 7.32791e-13 -4.17927e-13 6.94148e-13 0 0 1.03355e-13 1.0013e-12 -4.11839e-13 5.73149e-13 0 0 -1.99139e-14 1.06043e-12 -2.80545e-13 2.81429e-13 0 0 -1.83288e-14 9.37947e-13 1.20235e-13 -2.27172e-13 0 0 1.18111e-13 5.34959e-13 6.16022e-13 -4.73914e-13 0 0 3.49854e-13 2.84709e-13 6.31564e-13 -4.15187e-13 0 0 4.41554e-13 2.69602e-13 5.32164e-13 -2.3388e-13 0 0 4.35598e-13 2.9701e-13 4.6796e-13 -1.36832e-13 0 0 2.88891e-13 3.92005e-13 4.48995e-13 -1.35837e-13 0 0 1.31368e-13 4.3132e-13 4.55167e-13 -1.24392e-13 0 0 1.24358e-14 4.52273e-13 4.5464e-13 -1.08871e-13 0 0 -8.86938e-14 4.78835e-13 4.15298e-13 -3.58523e-14 0 0 -1.0899e-13 4.39512e-13 3.89002e-13 5.76224e-14 0 0 -7.34678e-14 3.6883e-13 3.2582e-13 1.57544e-13 0 0 -1.55113e-14 3.18213e-13 2.77784e-13 2.02831e-13 0 0 3.00796e-14 2.84248e-13 2.97868e-13 1.93581e-13 0 0 5.58177e-14 2.82884e-13 2.86883e-13 1.76608e-13 0 0 3.69601e-14 2.21233e-13 3.76082e-13 7.72428e-14 0 0 -3.04453e-14 2.16019e-13 3.91396e-13 6.59338e-14 0 0 -8.28128e-14 2.22807e-13 3.14435e-13 1.82895e-13 0 0 -9.28843e-14 1.54442e-13 3.32187e-13 2.31528e-13 0 0 -9.49117e-14 3.90994e-14 4.13082e-13 2.13369e-13 0 0 -6.90858e-14 -8.80478e-15 4.06853e-13 2.3027e-13 0 0 -7.78774e-16 1.60526e-14 2.77117e-13 2.9253e-13 0 0 6.69933e-14 4.52854e-14 1.96375e-13 2.43027e-13 0 0 1.14129e-13 8.57505e-14 1.81166e-13 9.47587e-14 0 0 1.4152e-13 1.94606e-13 6.54797e-14 1.35431e-13 0 0 1.89517e-13 2.23907e-13 4.18553e-14 1.05281e-13 0 0 2.59926e-13 2.13708e-13 1.06176e-13 -7.86598e-15 0 0 2.73517e-13 2.41654e-13 5.10655e-14 4.24319e-14 0 0 2.79513e-13 2.75156e-13 2.93769e-14 1.90292e-13 0 0 2.89526e-13 2.66017e-13 1.087e-13 2.07553e-13 0 0 2.55834e-13 3.24538e-13 1.725e-13 1.44384e-13 0 0 2.55896e-13 3.47234e-13 2.17107e-13 1.54886e-13 0 0 2.97519e-13 3.12544e-13 2.98435e-13 2.14233e-13 0 0 3.02019e-13 4.02427e-13 3.12277e-13 2.28371e-13 0 0 3.30695e-13 4.63486e-13 2.83179e-13 2.94406e-13 0 0 3.436e-13 4.62489e-13 3.3292e-13 2.86781e-13 0 0 3.54034e-13 4.80282e-13 3.74699e-13 3.12449e-13 0 0 4.23962e-13 3.99084e-13 4.9391e-13 2.82869e-13 0 0 4.45818e-13 4.21503e-13 5.04295e-13 2.19652e-13 0 0 3.80134e-13 5.89955e-13 2.44331e-13 4.08475e-13 0 0 3.39099e-13 6.3754e-13 1.49625e-13 5.25139e-13 0 0 4.28221e-13 4.55737e-13 3.63098e-13 3.96887e-13 0 0 4.49008e-13 3.83926e-13 4.55598e-13 3.68531e-13 0 0 3.40003e-13 5.11471e-13 3.47698e-13 4.36671e-13 0 0 3.33514e-13 4.99909e-13 3.4998e-13 4.54331e-13 0 0 3.53665e-13 4.59866e-13 4.12083e-13 4.15658e-13 0 0 3.76597e-13 4.04085e-13 5.2332e-13 3.01044e-13 0 0 4.22914e-13 3.75878e-13 5.3859e-13 3.39668e-13 0 0 3.87052e-13 5.00151e-13 4.28669e-13 4.2519e-13 0 0 3.56649e-13 5.81613e-13 3.50508e-13 5.08404e-13 0 0 3.57964e-13 5.94071e-13 3.95674e-13 4.71221e-13 0 0 4.38479e-13 4.69764e-13 6.63799e-13 2.6439e-13 0 0 4.84188e-13 4.26069e-13 7.3145e-13 3.139e-13 0 0 3.64387e-13 7.26211e-13 3.8261e-13 5.91611e-13 0 0 3.63188e-13 8.20833e-13 2.72131e-13 6.39277e-13 0 0 5.35213e-13 6.29963e-13 4.03325e-13 6.22443e-13 0 0 6.47895e-13 4.50046e-13 6.40141e-13 4.4203e-13 0 0 7.32633e-13 3.58487e-13 6.89721e-13 3.21646e-13 0 0 5.1004e-13 7.94125e-13 1.38472e-13 5.98803e-13 0 0 4.35787e-13 8.69587e-13 8.18809e-14 5.65531e-13 0 0 6.75341e-13 5.1444e-13 3.86043e-13 3.82557e-13 0 0 5.42993e-13 7.25102e-13 2.62156e-13 4.58426e-13 0 0 5.92853e-13 6.45346e-13 3.58175e-13 3.90496e-13 0 0 6.82055e-13 4.14135e-13 5.6549e-13 1.44315e-13 0 0 3.76217e-13 7.73051e-13 2.60157e-13 1.97245e-13 0 0 3.41718e-13 7.79345e-13 1.79374e-13 2.61463e-13 0 0 4.44867e-13 5.58966e-13 3.13094e-13 2.6218e-13 0 0 4.24794e-13 5.27368e-13 2.81406e-13 2.83682e-13 0 0 4.29945e-13 4.36028e-13 3.90929e-13 1.70209e-13 0 0 2.66889e-13 6.73028e-13 3.22825e-13 9.8817e-14 0 0 3.01516e-13 6.45111e-13 5.55099e-13 -1.34534e-13 0 0 3.63654e-13 5.78353e-13 6.57918e-13 -4.91242e-14 0 0 3.50651e-13 6.67573e-13 4.18792e-13 3.03112e-13 0 0 5.8276e-13 3.36232e-13 6.73579e-13 1.81853e-13 0 0 5.87162e-13 3.54357e-13 6.66553e-13 1.51786e-13 0 0 5.39917e-13 4.48298e-13 5.29438e-13 2.18438e-13 0 0 3.6399e-13 6.15071e-13 5.58656e-13 6.95854e-15 0 0 3.98883e-13 5.81667e-13 5.49943e-13 -4.85185e-14 0 0 7.41564e-13 4.84548e-14 6.79811e-13 1.59676e-13 0 0 5.404e-13 1.72134e-13 4.72373e-13 3.94744e-13 0 0 4.65186e-13 2.36271e-13 4.72671e-13 3.38293e-13 0 0 4.37784e-13 3.74324e-13 3.87012e-13 2.37319e-13 0 0 4.3176e-13 4.7214e-13 2.61748e-13 1.48903e-13 0 0 6.00078e-13 2.52066e-13 4.35307e-13 5.68646e-14 0 0 5.10913e-13 3.58226e-13 4.6352e-13 3.51944e-14 0 0 3.39584e-13 6.03763e-13 5.65011e-13 -1.86473e-13 0 0 2.48423e-13 8.14933e-13 3.6309e-13 6.76019e-14 0 0 2.19097e-13 8.32452e-13 2.55882e-13 3.5073e-13 0 0 6.21874e-13 2.29188e-13 8.71666e-13 1.00525e-14 0 0 5.39699e-13 4.19849e-13 6.60262e-13 8.29409e-14 0 0 2.52933e-13 9.61562e-13 1.89247e-13 2.75847e-13 0 0 3.65992e-13 1.02482e-12 -1.55479e-14 4.91246e-13 0 0 5.4401e-13 6.27007e-13 3.80833e-13 3.29061e-13 0 0 5.38583e-13 2.19686e-13 1.21959e-12 -3.72791e-13 0 0 6.43938e-14 9.3839e-13 5.48361e-13 -1.09632e-13 0 0 1.98872e-13 8.27735e-13 1.9893e-13 3.18772e-13 0 0 7.08999e-13 -2.0091e-13 1.09958e-12 -1.93724e-14 0 0 9.49815e-13 -7.39692e-13 1.68979e-12 -3.1644e-13 0
				</DataArray>
				<DataArray Name="VitesseY" type="Float32" format="ascii">