<?xml version="1.0"?>
<VTKFile type="PolyData">
	<PolyData>
		<Piece NumberOfPoints="1206" NumberOfPolys="1000">
			<Points>
				<DataArray type="Float32" NumberOfComponents="3" format="ascii">
 0 0 0 0.02 0 0 0.04 0 0 0.06 0 0 0.08 0 0 0.1 0 0 0 0.005 0 0.02 0.005 0 0.04 0.005 0 0.06 0.005 0 0.08 0.005 0 0.1 0.005 0 0 0.01 0 0.02 0.01 0 0.04 0.01 0 0.06 0.01 0 0.08 0.01 0 0.1 0.01 0 0 0.015 0 0.02 0.015 0 0.04 0.015 0 0.06 0.015 0 0.08 0.015 0 0.1 0.015 0 0 0.02 0 0.02 0.02 0 0.04 0.02 0 0.06 0.02 0 0.08 0.02 0 0.1 0.02 0 0 0.025 0 0.02 0.025 0 0.04 0.025 0 0.06 0.025 0 0.08 0.025 0 0.1 0.025 0 0 0.03 0 0.02 0.03 0 0.04 0.03 0 0.06 0.03 0 0.08 0.03 0 0.1 0.03 0 0 0.035 0 0.02 0.035 0 0.04 0.035 0 0.06 0.035 0 0.08 0.035 0 0.1 0.035 0 0 0.04 0 0.02 0.04 0 0.04 0.04 0 0.06 0.04 0 0.08 0.04 0 0.1 0.04 0 0 0.045 0 0.02 0.045 0 0.04 0.045 0 0.06 0.045 0 0.08 0.045 0 0.1 0.045 0 0 0.05 0 0.02 0.05 0 0.04 0.05 0 0.06 0.05 0 0.08 0.05 0 0.1 0.05 0 0 0.055 0 0.02 0.055 0 0.04 0.055 0 0.06 0.055 0 0.08 0.055 0 0.1 0.055 0 0 0.06 0 0.02 0.06 0 0.04 0.06 0 0.06 0.06 0 0.08 0.06 0 0.1 0.06 0 0 0.065 0 0.02 0.065 0 0.04 0.065 0 0.06 0.065 0 0.08 0.065 0 0.1 0.065 0 0 0.07 0 0.02 0.07 0 0.04 0.07 0 0.06 0.07 0 0.08 0.07 0 0.1 0.07 0 0 0.075 0 0.02 0.075 0 0.04 0.075 0 0.06 0.075 0 0.08 0.075 0 0.1 0.075 0 0 0.08 0 0.02 0.08 0 0.04 0.08 0 0.06 0.08 0 0.08 0.08 0 0.1 0.08 0 0 0.085 0 0.02 0.085 0 0.04 0.085 0 0.06 0.085 0 0.08 0.085 0 0.1 0.085 0 0 0.09 0 0.02 0.09 0 0.04 0.09 0 0.06 0.09 0 0.08 0.09 0 0.1 0.09 0 0 0.095 0 0.02 0.095 0 0.04 0.095 0 0.06 0.095 0 0.08 0.095 0 0.1 0.095 0 0 0.1 0 0.02 0.1 0 0.04 0.1 0 0.06 0.1 0 0.08 0.1 0 0.1 0.1 0 0 0.105 0 0.02 0.105 0 0.04 0.105 0 0.06 0.105 0 0.08 0.105 0 0.1 0.105 0 0 0.11 0 0.02 0.11 0 0.04 0.11 0 0.06 0.11 0 0.08 0.11 0 0.1 0.11 0 0 0.115 0 0.02 0.115 0 0.04 0.115 0 0.06 0.115 0 0.08 0.115 0 0.1 0.115 0 0 0.12 0 0.02 0.12 0 0.04 0.12 0 0.06 0.12 0 0.08 0.12 0 0.1 0.12 0 0 0.125 0 0.02 0.125 0 0.04 0.125 0 0.06 0.125 0 0.08 0.125 0 0.1 0.125 0 0 0.13 0 0.02 0.13 0 0.04 0.13 0 0.06 0.13 0 0.08 0.13 0 0.1 0.13 0 0 0.135 0 0.02 0.135 0 0.04 0.135 0 0.06 0.135 0 0.08 0.135 0 0.1 0.135 0 0 0.14 0 0.02 0.14 0 0.04 0.14 0 0.06 0.14 0 0.08 0.14 0 0.1 0.14 0 0 0.145 0 0.02 0.145 0 0.04 0.145 0 0.06 0.145 0 0.08 0.145 0 0.1 0.145 0 0 0.15 0 0.02 0.15 0 0.04 0.15 0 0.06 0.15 0 0.08 0.15 0 0.1 0.15 0 0 0.155 0 0.02 0.155 0 0.04 0.155 0 0.06 0.155 0 0.08 0.155 0 0.1 0.155 0 0 0.16 0 0.02 0.16 0 0.04 0.16 0 0.06 0.16 0 0.08 0.16 0 0.1 0.16 0 0 0.165 0 0.02 0.165 0 0.04 0.165 0 0.06 0.165 0 0.08 0.165 0 0.1 0.165 0 0 0.17 0 0.02 0.17 0 0.04 0.17 0 0.06 0.17 0 0.08 0.17 0 0.1 0.17 0 0 0.175 0 0.02 0.175 0 0.04 0.175 0 0.06 0.175 0 0.08 0.175 0 0.1 0.175 0 0 0.18 0 0.02 0.18 0 0.04 0.18 0 0.06 0.18 0 0.08 0.18 0 0.1 0.18 0 0 0.185 0 0.02 0.185 0 0.04 0.185 0 0.06 0.185 0 0.08 0.185 0 0.1 0.185 0 0 0.19 0 0.02 0.19 0 0.04 0.19 0 0.06 0.19 0 0.08 0.19 0 0.1 0.19 0 0 0.195 0 0.02 0.195 0 0.04 0.195 0 0.06 0.195 0 0.08 0.195 0 0.1 0.195 0 0 0.2 0 0.02 0.2 0 0.04 0.2 0 0.06 0.2 0 0.08 0.2 0 0.1 0.2 0 0 0.205 0 0.02 0.205 0 0.04 0.205 0 0.06 0.205 0 0.08 0.205 0 0.1 0.205 0 0 0.21 0 0.02 0.21 0 0.04 0.21 0 0.06 0.21 0 0.08 0.21 0 0.1 0.21 0 0 0.215 0 0.02 0.215 0 0.04 0.215 0 0.06 0.215 0 0.08 0.215 0 0.1 0.215 0 0 0.22 0 0.02 0.22 0 0.04 0.22 0 0.06 0.22 0 0.08 0.22 0 0.1 0.22 0 0 0.225 0 0.02 0.225 0 0.04 0.225 0 0.06 0.225 0 0.08 0.225 0 0.1 0.225 0 0 0.23 0 0.02 0.23 0 0.04 0.23 0 0.06 0.23 0 0.08 0.23 0 0.1 0.23 0 0 0.235 0 0.02 0.235 0 0.04 0.235 0 0.06 0.235 0 0.08 0.235 0 0.1 0.235 0 0 0.24 0 0.02 0.24 0 0.04 0.24 0 0.06 0.24 0 0.08 0.24 0 0.1 0.24 0 0 0.245 0 0.02 0.245 0 0.04 0.245 0 0.06 0.245 0 0.08 0.245 0 0.1 0.245 0 0 0.25 0 0.02 0.25 0 0.04 0.25 0 0.06 0.25 0 0.08 0.25 0 0.1 0.25 0 0 0.255 0 0.02 0.255 0 0.04 0.255 0 0.06 0.255 0 0.08 0.255 0 0.1 0.255 0 0 0.26 0 0.02 0.26 0 0.04 0.26 0 0.06 0.26 0 0.08 0.26 0 0.1 0.26 0 0 0.265 0 0.02 0.265 0 0.04 0.265 0 0.06 0.265 0 0.08 0.265 0 0.1 0.265 0 0 0.27 0 0.02 0.27 0 0.04 0.27 0 0.06 0.27 0 0.08 0.27 0 0.1 0.27 0 0 0.275 0 0.02 0.275 0 0.04 0.275 0 0.06 0.275 0 0.08 0.275 0 0.1 0.275 0 0 0.28 0 0.02 0.28 0 0.04 0.28 0 0.06 0.28 0 0.08 0.28 0 0.1 0.28 0 0 0.285 0 0.02 0.285 0 0.04 0.285 0 0.06 0.285 0 0.08 0.285 0 0.1 0.285 0 0 0.29 0 0.02 0.29 0 0.04 0.29 0 0.06 0.29 0 0.08 0.29 0 0.1 0.29 0 0 0.295 0 0.02 0.295 0 0.04 0.295 0 0.06 0.295 0 0.08 0.295 0 0.1 0.295 0 0 0.3 0 0.02 0.3 0 0.04 0.3 0 0.06 0.3 0 0.08 0.3 0 0.1 0.3 0 0 0.305 0 0.02 0.305 0 0.04 0.305 0 0.06 0.305 0 0.08 0.305 0 0.1 0.305 0 0 0.31 0 0.02 0.31 0 0.04 0.31 0 0.06 0.31 0 0.08 0.31 0 0.1 0.31 0 0 0.315 0 0.02 0.315 0 0.04 0.315 0 0.06 0.315 0 0.08 0.315 0 0.1 0.315 0 0 0.32 0 0.02 0.32 0 0.04 0.32 0 0.06 0.32 0 0.08 0.32 0 0.1 0.32 0 0 0.325 0 0.02 0.325 0 0.04 0.325 0 0.06 0.325 0 0.08 0.325 0 0.1 0.325 0 0 0.33 0 0.02 0.33 0 0.04 0.33 0 0.06 0.33 0 0.08 0.33 0 0.1 0.33 0 0 0.335 0 0.02 0.335 0 0.04 0.335 0 0.06 0.335 0 0.08 0.335 0 0.1 0.335 0 0 0.34 0 0.02 0.34 0 0.04 0.34 0 0.06 0.34 0 0.08 0.34 0 0.1 0.34 0 0 0.345 0 0.02 0.345 0 0.04 0.345 0 0.06 0.345 0 0.08 0.345 0 0.1 0.345 0 0 0.35 0 0.02 0.35 0 0.04 0.35 0 0.06 0.35 0 0.08 0.35 0 0.1 0.35 0 0 0.355 0 0.02 0.355 0 0.04 0.355 0 0.06 0.355 0 0.08 0.355 0 0.1 0.355 0 0 0.36 0 0.02 0.36 0 0.04 0.36 0 0.06 0.36 0 0.08 0.36 0 0.1 0.36 0 0 0.365 0 0.02 0.365 0 0.04 0.365 0 0.06 0.365 0 0.08 0.365 0 0.1 0.365 0 0 0.37 0 0.02 0.37 0 0.04 0.37 0 0.06 0.37 0 0.08 0.37 0 0.1 0.37 0 0 0.375 0 0.02 0.375 0 0.04 0.375 0 0.06 0.375 0 0.08 0.375 0 0.1 0.375 0 0 0.38 0 0.02 0.38 0 0.04 0.38 0 0.06 0.38 0 0.08 0.38 0 0.1 0.38 0 0 0.385 0 0.02 0.385 0 0.04 0.385 0 0.06 0.385 0 0.08 0.385 0 0.1 0.385 0 0 0.39 0 0.02 0.39 0 0.04 0.39 0 0.06 0.39 0 0.08 0.39 0 0.1 0.39 0 0 0.395 0 0.02 0.395 0 0.04 0.395 0 0.06 0.395 0 0.08 0.395 0 0.1 0.395 0 0 0.4 0 0.02 0.4 0 0.04 0.4 0 0.06 0.4 0 0.08 0.4 0 0.1 0.4 0 0 0.405 0 0.02 0.405 0 0.04 0.405 0 0.06 0.405 0 0.08 0.405 0 0.1 0.405 0 0 0.41 0 0.02 0.41 0 0.04 0.41 0 0.06 0.41 0 0.08 0.41 0 0.1 0.41 0 0 0.415 0 0.02 0.415 0 0.04 0.415 0 0.06 0.415 0 0.08 0.415 0 0.1 0.415 0 0 0.42 0 0.02 0.42 0 0.04 0.42 0 0.06 0.42 0 0.08 0.42 0 0.1 0.42 0 0 0.425 0 0.02 0.425 0 0.04 0.425 0 0.06 0.425 0 0.08 0.425 0 0.1 0.425 0 0 0.43 0 0.02 0.43 0 0.04 0.43 0 0.06 0.43 0 0.08 0.43 0 0.1 0.43 0 0 0.435 0 0.02 0.435 0 0.04 0.435 0 0.06 0.435 0 0.08 0.435 0 0.1 0.435 0 0 0.44 0 0.02 0.44 0 0.04 0.44 0 0.06 0.44 0 0.08 0.44 0 0.1 0.44 0 0 0.445 0 0.02 0.445 0 0.04 0.445 0 0.06 0.445 0 0.08 0.445 0 0.1 0.445 0 0 0.45 0 0.02 0.45 0 0.04 0.45 0 0.06 0.45 0 0.08 0.45 0 0.1 0.45 0 0 0.455 0 0.02 0.455 0 0.04 0.455 0 0.06 0.455 0 0.08 0.455 0 0.1 0.455 0 0 0.46 0 0.02 0.46 0 0.04 0.46 0 0.06 0.46 0 0.08 0.46 0 0.1 0.46 0 0 0.465 0 0.02 0.465 0 0.04 0.465 0 0.06 0.465 0 0.08 0.465 0 0.1 0.465 0 0 0.47 0 0.02 0.47 0 0.04 0.47 0 0.06 0.47 0 0.08 0.47 0 0.1 0.47 0 0 0.475 0 0.02 0.475 0 0.04 0.475 0 0.06 0.475 0 0.08 0.475 0 0.1 0.475 0 0 0.48 0 0.02 0.48 0 0.04 0.48 0 0.06 0.48 0 0.08 0.48 0 0.1 0.48 0 0 0.485 0 0.02 0.485 0 0.04 0.485 0 0.06 0.485 0 0.08 0.485 0 0.1 0.485 0 0 0.49 0 0.02 0.49 0 0.04 0.49 0 0.06 0.49 0 0.08 0.49 0 0.1 0.49 0 0 0.495 0 0.02 0.495 0 0.04 0.495 0 0.06 0.495 0 0.08 0.495 0 0.1 0.495 0 0 0.5 0 0.02 0.5 0 0.04 0.5 0 0.06 0.5 0 0.08 0.5 0 0.1 0.5 0 0 0.505 0 0.02 0.505 0 0.04 0.505 0 0.06 0.505 0 0.08 0.505 0 0.1 0.505 0 0 0.51 0 0.02 0.51 0 0.04 0.51 0 0.06 0.51 0 0.08 0.51 0 0.1 0.51 0 0 0.515 0 0.02 0.515 0 0.04 0.515 0 0.06 0.515 0 0.08 0.515 0 0.1 0.515 0 0 0.52 0 0.02 0.52 0 0.04 0.52 0 0.06 0.52 0 0.08 0.52 0 0.1 0.52 0 0 0.525 0 0.02 0.525 0 0.04 0.525 0 0.06 0.525 0 0.08 0.525 0 0.1 0.525 0 0 0.53 0 0.02 0.53 0 0.04 0.53 0 0.06 0.53 0 0.08 0.53 0 0.1 0.53 0 0 0.535 0 0.02 0.535 0 0.04 0.535 0 0.06 0.535 0 0.08 0.535 0 0.1 0.535 0 0 0.54 0 0.02 0.54 0 0.04 0.54 0 0.06 0.54 0 0.08 0.54 0 0.1 0.54 0 0 0.545 0 0.02 0.545 0 0.04 0.545 0 0.06 0.545 0 0.08 0.545 0 0.1 0.545 0 0 0.55 0 0.02 0.55 0 0.04 0.55 0 0.06 0.55 0 0.08 0.55 0 0.1 0.55 0 0 0.555 0 0.02 0.555 0 0.04 0.555 0 0.06 0.555 0 0.08 0.555 0 0.1 0.555 0 0 0.56 0 0.02 0.56 0 0.04 0.56 0 0.06 0.56 0 0.08 0.56 0 0.1 0.56 0 0 0.565 0 0.02 0.565 0 0.04 0.565 0 0.06 0.565 0 0.08 0.565 0 0.1 0.565 0 0 0.57 0 0.02 0.57 0 0.04 0.57 0 0.06 0.57 0 0.08 0.57 0 0.1 0.57 0 0 0.575 0 0.02 0.575 0 0.04 0.575 0 0.06 0.575 0 0.08 0.575 0 0.1 0.575 0 0 0.58 0 0.02 0.58 0 0.04 0.58 0 0.06 0.58 0 0.08 0.58 0 0.1 0.58 0 0 0.585 0 0.02 0.585 0 0.04 0.585 0 0.06 0.585 0 0.08 0.585 0 0.1 0.585 0 0 0.59 0 0.02 0.59 0 0.04 0.59 0 0.06 0.59 0 0.08 0.59 0 0.1 0.59 0 0 0.595 0 0.02 0.595 0 0.04 0.595 0 0.06 0.595 0 0.08 0.595 0 0.1 0.595 0 0 0.6 0 0.02 0.6 0 0.04 0.6 0 0.06 0.6 0 0.08 0.6 0 0.1 0.6 0 0 0.605 0 0.02 0.605 0 0.04 0.605 0 0.06 0.605 0 0.08 0.605 0 0.1 0.605 0 0 0.61 0 0.02 0.61 0 0.04 0.61 0 0.06 0.61 0 0.08 0.61 0 0.1 0.61 0 0 0.615 0 0.02 0.615 0 0.04 0.615 0 0.06 0.615 0 0.08 0.615 0 0.1 0.615 0 0 0.62 0 0.02 0.62 0 0.04 0.62 0 0.06 0.62 0 0.08 0.62 0 0.1 0.62 0 0 0.625 0 0.02 0.625 0 0.04 0.625 0 0.06 0.625 0 0.08 0.625 0 0.1 0.625 0 0 0.63 0 0.02 0.63 0 0.04 0.63 0 0.06 0.63 0 0.08 0.63 0 0.1 0.63 0 0 0.635 0 0.02 0.635 0 0.04 0.635 0 0.06 0.635 0 0.08 0.635 0 0.1 0.635 0 0 0.64 0 0.02 0.64 0 0.04 0.64 0 0.06 0.64 0 0.08 0.64 0 0.1 0.64 0 0 0.645 0 0.02 0.645 0 0.04 0.645 0 0.06 0.645 0 0.08 0.645 0 0.1 0.645 0 0 0.65 0 0.02 0.65 0 0.04 0.65 0 0.06 0.65 0 0.08 0.65 0 0.1 0.65 0 0 0.655 0 0.02 0.655 0 0.04 0.655 0 0.06 0.655 0 0.08 0.655 0 0.1 0.655 0 0 0.66 0 0.02 0.66 0 0.04 0.66 0 0.06 0.66 0 0.08 0.66 0 0.1 0.66 0 0 0.665 0 0.02 0.665 0 0.04 0.665 0 0.06 0.665 0 0.08 0.665 0 0.1 0.665 0 0 0.67 0 0.02 0.67 0 0.04 0.67 0 0.06 0.67 0 0.08 0.67 0 0.1 0.67 0 0 0.675 0 0.02 0.675 0 0.04 0.675 0 0.06 0.675 0 0.08 0.675 0 0.1 0.675 0 0 0.68 0 0.02 0.68 0 0.04 0.68 0 0.06 0.68 0 0.08 0.68 0 0.1 0.68 0 0 0.685 0 0.02 0.685 0 0.04 0.685 0 0.06 0.685 0 0.08 0.685 0 0.1 0.685 0 0 0.69 0 0.02 0.69 0 0.04 0.69 0 0.06 0.69 0 0.08 0.69 0 0.1 
[...]
			<PointData Scalars="VitesseX">
				<DataArray Name="VitesseX" type="Float32" format="ascii">
 0 2.70285e-16 -1.19813e-14 2.74835e-14 9.47523e-15 0 0 3.81726e-15 -1.5139e-14 3.08504e-14 7.33188e-15 0 0 -6.82001e-15 9.86141e-15 3.55921e-15 2.80498e-14 0 0 -3.05488e-15 9.38019e-15 8.10811e-15 3.44035e-14 0 0 1.14815e-14 -2.25994e-15 2.42565e-14 3.94349e-14 0 0 -7.82501e-15 3.38019e-14 1.08672e-14 5.55535e-14 0 0 -3.33576e-14 7.38707e-14 4.03396e-15 6.00926e-14 0 0 -1.26834e-14 4.24656e-14 7.19287e-14 1.40875e-14 0 0 6.03229e-15 2.323e-14 1.19323e-13 -2.13799e-14 0 0 3.19874e-14 1.92839e-14 1.12101e-13 -8.21149e-15 0 0 8.05458e-14 -2.73251e-14 1.48288e-13 -2.97142e-14 0 0 5.58589e-14 4.73323e-14 5.89273e-14 1.1951e-14 0 0 4.65706e-14 9.31962e-14 6.1006e-15 2.7842e-14 0 0 7.78496e-14 4.46304e-14 5.54428e-14 -2.64609e-14 0 0 9.9887e-14 9.96374e-16 7.41479e-14 -3.15522e-14 0 0 5.02317e-14 8.34156e-14 -3.78613e-14 5.422e-14 0 0 3.04336e-14 1.03787e-13 -4.01876e-14 3.11772e-14 0 0 7.54895e-14 1.66224e-14 7.63309e-14 -4.29907e-14 0 0 6.0918e-14 3.74013e-14 5.19576e-14 1.1818e-14 0 0 5.22665e-14 4.56271e-14 4.37414e-14 2.80431e-14 0 0 5.22475e-14 4.40073e-14 3.34887e-14 3.18995e-14 0 0 4.51033e-14 3.5917e-14 -3.21759e-15 7.09988e-14 0 0 3.79058e-14 -8.39631e-15 4.54367e-14 3.48086e-14 0 0 -1.18363e-14 2.95493e-14 1.10591e-14 6.88867e-14 0 0 -2.33019e-15 -1.26632e-14 3.05627e-14 8.24247e-14 0 0 4.99544e-14 -1.25581e-13 1.91538e-13 -3.31953e-14 0 0 -1.56857e-14 -3.07429e-15 1.09377e-13 1.89437e-14 0 0 -9.09106e-14 1.69802e-13 -1.07426e-13 1.88161e-13 0 0 -1.39575e-14 4.34423e-14 4.4246e-14 9.01649e-14 0 0 1.67506e-14 -2.80724e-14 1.19921e-13 2.74591e-14 0 0 -1.33432e-14 1.96127e-14 1.89612e-14 7.87982e-14 0 0 4.17215e-14 -6.05818e-14 7.7975e-14 3.70582e-14 0 0 3.26037e-14 -1.39874e-14 -3.12802e-15 3.29412e-14 0 0 -8.24354e-15 6.48187e-14 -6.76249e-14 -2.73423e-14 0 0 1.16772e-13 -9.33614e-14 9.27181e-14 -1.44624e-13 0 0 1.7176e-13 -1.17526e-13 8.05717e-14 -8.75966e-14 0 0 9.99251e-14 -1.49415e-14 -7.69326e-15 4.43269e-16 0 0 -4.48696e-14 1.72584e-13 -1.15072e-13 5.40293e-14 0 0 5.80999e-14 -8.34665e-15 7.84584e-14 -7.49258e-14 0 0 1.22282e-13 -8.91825e-14 8.79165e-14 -6.02432e-14 0 0 -1.10922e-14 1.197e-13 -6.84009e-14 2.5888e-14 0 0 -3.8103e-14 6.29278e-14 1.76351e-13 -1.76166e-13 0 0 -7.80919e-14 1.08033e-13 2.31025e-13 -2.4497e-13 0 0 -7.11545e-14 2.39381e-13 3.02252e-14 -1.05903e-13 0 0 5.13572e-15 2.01637e-13 2.01522e-14 -5.06009e-14 0 0 3.84726e-14 1.64467e-13 4.51356e-14 -3.14913e-16 0 0 1.94988e-13 -6.067e-14 1.8189e-13 2.74495e-14 0 0 2.23694e-13 -4.01426e-14 4.13512e-14 1.58561e-13 0 0 1.90504e-13 3.37139e-14 -8.5035e-14 2.10316e-13 0 0 3.82253e-13 -3.03701e-13 1.75146e-13 1.24552e-13 0 0 4.72232e-13 -4.66116e-13 2.58231e-13 1.45887e-13 0 0 3.30944e-13 -2.79464e-13 1.44809e-13 9.08145e-14 0 0 1.08763e-13 1.62057e-13 -2.55757e-13 1.42979e-13 0 0 1.84846e-13 6.08442e-14 -1.12205e-13 -3.7011e-14 0 0 3.88124e-13 -2.65635e-13 1.95059e-13 -1.97945e-13 0 0 3.30551e-13 -7.16224e-14 -6.41809e-14 -4.13052e-14 0 0 2.96217e-13 -6.27693e-14 2.42963e-14 -1.50143e-13 0 0 3.14679e-13 -1.79225e-13 2.16476e-13 -2.47447e-13 0 0 2.1919e-13 -7.36858e-15 -2.19165e-14 -4.17641e-14 0 0 2.07305e-13 1.86085e-14 -7.94265e-14 5.04087e-14 0 0 1.71681e-13 5.39651e-14 -1.02033e-14 -1.0363e-13 0 0 1.91708e-13 -2.72103e-15 1.23702e-13 -2.76481e-13 0 0 1.47621e-13 4.53959e-14 5.34961e-14 -1.5705e-13 0 0 1.24331e-13 8.39807e-14 2.9152e-14 -1.24872e-13 0 0 7.3656e-14 2.06911e-13 -5.3413e-15 -1.51829e-13 0 0 1.78702e-13 2.09337e-13 -2.30431e-14 -1.62663e-13 0 0 3.54777e-13 1.2867e-13 1.00807e-13 -2.5819e-13 0 0 3.85322e-13 1.58897e-13 1.86847e-13 -2.62387e-13 0 0 4.06993e-13 1.19381e-13 1.47078e-13 -7.98918e-14 0 0 3.65684e-13 1.53705e-13 1.3025e-14 1.43505e-13 0 0 4.62208e-13 4.74139e-14 1.13503e-13 1.1833e-13 0 0 3.46551e-13 2.72112e-13 -6.83181e-14 1.89576e-13 0 0 1.20519e-13 5.12423e-13 -1.3254e-13 2.53955e-13 0 0 3.31947e-14 3.79663e-13 2.02455e-13 1.26581e-13 0 0 -1.82018e-14 3.40925e-13 2.28208e-13 2.50239e-13 0 0 2.10593e-13 3.39059e-15 4.07259e-13 2.74988e-13 0 0 1.85759e-13 1.45578e-13 1.73185e-13 3.63237e-13 0 0 -8.92057e-14 7.82744e-13 -4.03257e-13 5.90011e-13 0 0 2.79091e-13 2.65035e-13 9.60783e-14 3.92229e-13 0 0 3.17061e-13 1.29591e-13 3.29786e-13 3.30408e-13 0 0 -1.0708e-13 6.90452e-13 1.43433e-13 2.88999e-13 0 0 2.50647e-13 3.08111e-13 6.29663e-13 -5.63031e-14 0 0 6.33262e-13 1.12506e-13 6.82521e-13 -7.981e-14 0 0 5.16164e-13 4.76712e-13 2.54999e-13 1.88911e-13 0 0 4.92882e-13 8.08527e-13 -1.32397e-13 4.19218e-13 0 0 4.90414e-13 8.84011e-13 -2.4697e-13 3.65926e-13 0 0 6.39994e-13 7.15996e-13 5.32154e-15 -2.75577e-14 0 0 7.36979e-13 4.05104e-13 5.32017e-13 -5.78262e-13 0 0 7.15164e-13 4.30946e-13 4.81861e-13 -4.60309e-13 0 0 5.46223e-13 6.14902e-13 3.71694e-13 -3.18548e-13 0 0 1.42438e-13 1.05244e-12 1.20505e-13 -1.35107e-13 0 0 -9.01589e-15 1.25188e-12 -2.6883e-13 2.05096e-13 0 0 1.3797e-13 1.12785e-12 -3.53739e-13 4.42962e-13 0 0 4.10716e-13 7.7437e-13 -1.73715e-13 3.89532e-13 0 0 8.33581e-13 9.61807e-14 2.86767e-13 1.82977e-13 0 0 9.53598e-13 -3.98668e-13 7.11709e-13 9.52004e-14 0 0 8.77664e-13 -4.27261e-13 7.91504e-13 1.44243e-13 0 0 6.64856e-13 -1.74096e-13 6.55686e-13 2.02917e-13 0 0 3.70092e-13 3.8792e-13 3.05842e-13 2.94492e-13 0 0 2.30083e-14 1.00908e-12 -2.19238e-13 4.09377e-13 0 0 -1.57141e-13 1.29909e-12 -6.01355e-13 4.95369e-13 0 0 -1.14115e-13 1.22676e-12 -5.62626e-13 4.47449e-13 0 0 2.0833e-13 7.31383e-13 -1.98406e-13 2.85476e-13 0 0 6.88817e-13 -4.80194e-14 4.64301e-13 7.72073e-15 0 0 8.63148e-13 -2.89383e-13 6.54962e-13 -5.52178e-14 0 0 7.93854e-13 -1.9872e-13 5.73461e-13 -3.48554e-14 0 0 3.68623e-13 1.33719e-13 4.86161e-13 -3.60591e-14 0 0 -1.31591e-13 3.20126e-13 5.70089e-13 -1.87932e-13 0 0 -3.45976e-13 3.82892e-13 6.62782e-13 -3.22017e-13 0 0 -3.93099e-13 3.73291e-13 6.69154e-13 -3.35644e-13 0 0 -3.08746e-13 2.44739e-13 6.60807e-13 -2.67702e-13 0 0 -1.28358e-13 9.46909e-14 5.87823e-13 -1.22906e-13 0 0 3.35413e-14 5.04668e-14 4.87083e-13 7.16633e-15 0 0 9.14864e-14 4.17711e-14 3.84206e-13 1.26556e-13 0 0 8.58478e-14 7.39716e-14 3.14222e-13 2.23635e-13 0 0 2.72942e-14 1.0653e-13 3.11723e-13 2.37936e-13 0 0 -6.46401e-14 1.12552e-13 3.15867e-13 2.71143e-13 0 0 -1.24383e-13 9.73048e-14 3.68976e-13 2.22152e-13 0 0 -1.75527e-13 4.99947e-14 4.2799e-13 2.16497e-13 0 0 -1.7174e-13 -3.64854e-15 4.18937e-13 2.74828e-13 0 0 -1.50585e-13 -2.66035e-14 4.02271e-13 2.51121e-13 0 0 -9.27638e-14 -4.60433e-14 3.83816e-13 1.6865e-13 0 0 -4.81194e-15 -2.8065e-14 3.42472e-13 1.32721e-14 0 0 3.52125e-14 3.70983e-14 2.34091e-13 -3.85479e-14 0 0 3.63464e-14 1.48312e-13 7.24729e-14 -6.38245e-14 0 0 4.37657e-14 1.955e-13 3.014e-14 -1.4189e-13 0 0 9.71451e-14 1.58459e-13 4.91532e-14 -1.47476e-13 0 0 1.57729e-13 9.06587e-14 8.36425e-14 -1.0535e-13 0 0 1.7527e-13 8.48987e-14 6.26027e-14 -5.03531e-14 0 0 1.8256e-13 8.36425e-14 2.99463e-14 7.30768e-14 0 0 1.90184e-13 6.74767e-14 9.93927e-14 1.93338e-13 0 0 1.74141e-13 8.35757e-14 2.14734e-13 1.60914e-13 0 0 1.68285e-13 1.78809e-13 2.09692e-13 1.23953e-13 0 0 1.69914e-13 2.52921e-13 2.31633e-13 1.11646e-13 0 0 2.00822e-13 3.13545e-13 2.25606e-13 2.68139e-13 0 0 2.86274e-13 2.91223e-13 3.18669e-13 3.05623e-13 0 0 3.36982e-13 2.70833e-13 4.42498e-13 1.93314e-13 0 0 3.21687e-13 3.99183e-13 3.38862e-13 2.77451e-13 0 0 4.35224e-13 3.10423e-13 4.41296e-13 2.50006e-13 0 0 4.57912e-13 3.46088e-13 3.76138e-13 3.02324e-13 0 0 4.61183e-13 3.54592e-13 3.94486e-13 2.45892e-13 0 0 5.15477e-13 2.68164e-13 5.14116e-13 1.54948e-13 0 0 3.75151e-13 5.60283e-13 1.67131e-13 3.28518e-13 0 0 3.71297e-13 5.98035e-13 7.7189e-14 2.73073e-13 0 0 5.07079e-13 3.74849e-13 2.20735e-13 1.91527e-13 0 0 5.38016e-13 3.28328e-13 2.42563e-13 1.74187e-13 0 0 5.145e-13 3.29812e-13 2.92336e-13 9.56682e-14 0 0 3.64361e-13 5.35064e-13 8.47361e-14 2.53523e-13 0 0 3.12744e-13 6.67723e-13 -1.38562e-13 4.64317e-13 0 0 5.2108e-13 3.69397e-13 1.33557e-13 3.46293e-13 0 0 4.48189e-13 4.79386e-13 1.59283e-13 2.97194e-13 0 0 3.94911e-13 5.54256e-13 1.96892e-13 1.80727e-13 0 0 4.59981e-13 4.50676e-13 3.5808e-13 1.01601e-13 0 0 5.44962e-13 3.9624e-13 4.2881e-13 1.58351e-13 0 0 6.0151e-13 3.72117e-13 4.32726e-13 2.38772e-13 0 0 5.32235e-13 3.88765e-13 5.81434e-13 1.70204e-13 0 0 4.56946e-13 3.91269e-13 7.82864e-13 7.09663e-14 0 0 1.97681e-13 7.36789e-13 4.81434e-13 3.39573e-13 0 0 1.82595e-13 7.26805e-13 4.80802e-13 4.30467e-13 0 0 3.55586e-13 5.58083e-13 5.08243e-13 5.72191e-13 0 0 5.57756e-13 3.63129e-13 5.95388e-13 5.75679e-13 0 0 5.50305e-13 4.81924e-13 5.37244e-13 5.06004e-13 0 0 2.81111e-13 9.19435e-13 3.75971e-13 4.1981e-13 0 0 4.26816e-13 5.79233e-13 8.73857e-13 7.0869e-14 0 0 4.26194e-13 5.07579e-13 8.12544e-13 2.82116e-13 0 0 2.1328e-13 7.88302e-13 4.33501e-13 6.34534e-13 0 0 3.91664e-13 5.35705e-13 6.25156e-13 5.48897e-13 0 0 5.3986e-13 4.00301e-13 6.98471e-13 4.59298e-13 0 0 5.22914e-13 3.83001e-13 7.55892e-13 2.8279e-13 0 0 3.64055e-13 3.89322e-13 6.82599e-13 3.21791e-13 0 0 2.58103e-13 4.34282e-13 5.2312e-13 4.49048e-13 0 0 2.54963e-13 4.2441e-13 5.31468e-13 4.96738e-13 0 0 7.4883e-14 6.81135e-13 2.80179e-13 6.9631e-13 0 0 2.52077e-13 4.80595e-13 4.38746e-13 5.64832e-13 0 0 2.79159e-13 3.56986e-13 6.51455e-13 4.39346e-13 0 0 1.51142e-13 4.66333e-13 6.09058e-13 4.817e-13 0 0 2.04204e-13 3.86656e-13 6.4267e-13 3.5932e-13 0 0 1.7909e-13 5.07211e-13 4.53355e-13 2.73544e-13 0 0 5.07913e-13 1.70115e-13 7.30136e-13 1.14894e-14 0 0 3.64598e-13 5.1284e-13 4.77756e-13 3.57951e-14 0 0 3.7726e-13 5.59213e-13 4.05901e-13 5.6811e-15 0 0 6.02685e-13 2.04104e-13 5.25585e-13 1.39653e-13 0 0 3.49269e-13 6.06295e-13 -1.31104e-13 6.66184e-13 0 0 5.83071e-13 2.10674e-13 2.80354e-13 3.31952e-13 0 0 3.76449e-13 4.2665e-13 3.39826e-13 2.10906e-13 0 0 3.06392e-13 5.28426e-13 2.99951e-13 2.53699e-13 0 0 7.11548e-13 5.58253e-14 5.952e-13 9.92958e-14 0 0 6.11369e-13 2.55255e-13 3.82497e-13 1.57178e-13 0 0 6.75841e-13 9.06722e-14 7.04314e-13 -1.83594e-13 0 0 4.9611e-13 5.08497e-13 4.31499e-13 -2.08244e-13 0 0 3.65581e-13 6.73858e-13 2.42023e-13 -9.28791e-14 0 0 5.65179e-13 1.65955e-13 7.25709e-13 -3.62902e-13 0 0 2.87796e-13 8.19017e-13 -5.26443e-14 1.98532e-13 0 0 3.61395e-13 9.9935e-13 -4.92913e-13 7.64583e-13 0 0 5.22234e-13 7.97247e-13 -9.32858e-14 5.78269e-13 0 0 5.80902e-13 7.39935e-13 1.84455e-13 2.79354e-13 0 0 7.93438e-13 2.40063e-13 6.50913e-13 3.682e-14 0 0 3.63992e-13 6.6212e-13 3.56707e-13 1.92957e-13 0 0 2.25756e-13 7.93202e-13 6.48936e-14 3.71984e-13 0 0 7.63373e-13 -7.28503e-14 4.60389e-13 2.92231e-13 0 0 1.07457e-12 -5.52395e-13 7.12805e-13 2.05541e-13 0
				</DataArray>
				<DataArray Name="VitesseY" type="Float32" format="ascii">