<?xml version="1.0"?>
<VTKFile type="PolyData">
	<PolyData>
		<Piece NumberOfPoints="1206" NumberOfPolys="1000">
			<Points>
				<DataArray type="Float32" NumberOfComponents="3" format="ascii">
 0 0 0 0.02 0 0 0.04 0 0 0.06 0 0 0.08 0 0 0.1 0 0 0 0.005 0 0.02 0.005 0 0.04 0.005 0 0.06 0.005 0 0.08 0.005 0 0.1 0.005 0 0 0.01 0 0.02 0.01 0 0.04 0.01 0 0.06 0.01 0 0.08 0.01 0 0.1 0.01 0 0 0.015 0 0.02 0.015 0 0.04 0.015 0 0.06 0.015 0 0.08 0.015 0 0.1 0.015 0 0 0.02 0 0.02 0.02 0 0.04 0.02 0 0.06 0.02 0 0.08 0.02 0 0.1 0.02 0 0 0.025 0 0.02 0.025 0 0.04 0.025 0 0.06 0.025 0 0.08 0.025 0 0.1 0.025 0 0 0.03 0 0.02 0.03 0 0.04 0.03 0 0.06 0.03 0 0.08 0.03 0 0.1 0.03 0 0 0.035 0 0.02 0.035 0 0.04 0.035 0 0.06 0.035 0 0.08 0.035 0 0.1 0.035 0 0 0.04 0 0.02 0.04 0 0.04 0.04 0 0.06 0.04 0 0.08 0.04 0 0.1 0.04 0 0 0.045 0 0.02 0.045 0 0.04 0.045 0 0.06 0.045 0 0.08 0.045 0 0.1 0.045 0 0 0.05 0 0.02 0.05 0 0.04 0.05 0 0.06 0.05 0 0.08 0.05 0 0.1 0.05 0 0 0.055 0 0.02 0.055 0 0.04 0.055 0 0.06 0.055 0 0.08 0.055 0 0.1 0.055 0 0 0.06 0 0.02 0.06 0 0.04 0.06 0 0.06 0.06 0 0.08 0.06 0 0.1 0.06 0 0 0.065 0 0.02 0.065 0 0.04 0.065 0 0.06 0.065 0 0.08 0.065 0 0.1 0.065 0 0 0.07 0 0.02 0.07 0 0.04 0.07 0 0.06 0.07 0 0.08 0.07 0 0.1 0.07 0 0 0.075 0 0.02 0.075 0 0.04 0.075 0 0.06 0.075 0 0.08 0.075 0 0.1 0.075 0 0 0.08 0 0.02 0.08 0 0.04 0.08 0 0.06 0.08 0 0.08 0.08 0 0.1 0.08 0 0 0.085 0 0.02 0.085 0 0.04 0.085 0 0.06 0.085 0 0.08 0.085 0 0.1 0.085 0 0 0.09 0 0.02 0.09 0 0.04 0.09 0 0.06 0.09 0 0.08 0.09 0 0.1 0.09 0 0 0.095 0 0.02 0.095 0 0.04 0.095 0 0.06 0.095 0 0.08 0.095 0 0.1 0.095 0 0 0.1 0 0.02 0.1 0 0.04 0.1 0 0.06 0.1 0 0.08 0.1 0 0.1 0.1 0 0 0.105 0 0.02 0.105 0 0.04 0.105 0 0.06 0.105 0 0.08 0.105 0 0.1 0.105 0 0 0.11 0 0.02 0.11 0 0.04 0.11 0 0.06 0.11 0 0.08 0.11 0 0.1 0.11 0 0 0.115 0 0.02 0.115 0 0.04 0.115 0 0.06 0.115 0 0.08 0.115 0 0.1 0.115 0 0 0.12 0 0.02 0.12 0 0.04 0.12 0 0.06 0.12 0 0.08 0.12 0 0.1 0.12 0 0 0.125 0 0.02 0.125 0 0.04 0.125 0 0.06 0.125 0 0.08 0.125 0 0.1 0.125 0 0 0.13 0 0.02 0.13 0 0.04 0.13 0 0.06 0.13 0 0.08 0.13 0 0.1 0.13 0 0 0.135 0 0.02 0.135 0 0.04 0.135 0 0.06 0.135 0 0.08 0.135 0 0.1 0.135 0 0 0.14 0 0.02 0.14 0 0.04 0.14 0 0.06 0.14 0 0.08 0.14 0 0.1 0.14 0 0 0.145 0 0.02 0.145 0 0.04 0.145 0 0.06 0.145 0 0.08 0.145 0 0.1 0.145 0 0 0.15 0 0.02 0.15 0 0.04 0.15 0 0.06 0.15 0 0.08 0.15 0 0.1 0.15 0 0 0.155 0 0.02 0.155 0 0.04 0.155 0 0.06 0.155 0 0.08 0.155 0 0.1 0.155 0 0 0.16 0 0.02 0.16 0 0.04 0.16 0 0.06 0.16 0 0.08 0.16 0 0.1 0.16 0 0 0.165 0 0.02 0.165 0 0.04 0.165 0 0.06 0.165 0 0.08 0.165 0 0.1 0.165 0 0 0.17 0 0.02 0.17 0 0.04 0.17 0 0.06 0.17 0 0.08 0.17 0 0.1 0.17 0 0 0.175 0 0.02 0.175 0 0.04 0.175 0 0.06 0.175 0 0.08 0.175 0 0.1 0.175 0 0 0.18 0 0.02 0.18 0 0.04 0.18 0 0.06 0.18 0 0.08 0.18 0 0.1 0.18 0 0 0.185 0 0.02 0.185 0 0.04 0.185 0 0.06 0.185 0 0.08 0.185 0 0.1 0.185 0 0 0.19 0 0.02 0.19 0 0.04 0.19 0 0.06 0.19 0 0.08 0.19 0 0.1 0.19 0 0 0.195 0 0.02 0.195 0 0.04 0.195 0 0.06 0.195 0 0.08 0.195 0 0.1 0.195 0 0 0.2 0 0.02 0.2 0 0.04 0.2 0 0.06 0.2 0 0.08 0.2 0 0.1 0.2 0 0 0.205 0 0.02 0.205 0 0.04 0.205 0 0.06 0.205 0 0.08 0.205 0 0.1 0.205 0 0 0.21 0 0.02 0.21 0 0.04 0.21 0 0.06 0.21 0 0.08 0.21 0 0.1 0.21 0 0 0.215 0 0.02 0.215 0 0.04 0.215 0 0.06 0.215 0 0.08 0.215 0 0.1 0.215 0 0 0.22 0 0.02 0.22 0 0.04 0.22 0 0.06 0.22 0 0.08 0.22 0 0.1 0.22 0 0 0.225 0 0.02 0.225 0 0.04 0.225 0 0.06 0.225 0 0.08 0.225 0 0.1 0.225 0 0 0.23 0 0.02 0.23 0 0.04 0.23 0 0.06 0.23 0 0.08 0.23 0 0.1 0.23 0 0 0.235 0 0.02 0.235 0 0.04 0.235 0 0.06 0.235 0 0.08 0.235 0 0.1 0.235 0 0 0.24 0 0.02 0.24 0 0.04 0.24 0 0.06 0.24 0 0.08 0.24 0 0.1 0.24 0 0 0.245 0 0.02 0.245 0 0.04 0.245 0 0.06 0.245 0 0.08 0.245 0 0.1 0.245 0 0 0.25 0 0.02 0.25 0 0.04 0.25 0 0.06 0.25 0 0.08 0.25 0 0.1 0.25 0 0 0.255 0 0.02 0.255 0 0.04 0.255 0 0.06 0.255 0 0.08 0.255 0 0.1 0.255 0 0 0.26 0 0.02 0.26 0 0.04 0.26 0 0.06 0.26 0 0.08 0.26 0 0.1 0.26 0 0 0.265 0 0.02 0.265 0 0.04 0.265 0 0.06 0.265 0 0.08 0.265 0 0.1 0.265 0 0 0.27 0 0.02 0.27 0 0.04 0.27 0 0.06 0.27 0 0.08 0.27 0 0.1 0.27 0 0 0.275 0 0.02 0.275 0 0.04 0.275 0 0.06 0.275 0 0.08 0.275 0 0.1 0.275 0 0 0.28 0 0.02 0.28 0 0.04 0.28 0 0.06 0.28 0 0.08 0.28 0 0.1 0.28 0 0 0.285 0 0.02 0.285 0 0.04 0.285 0 0.06 0.285 0 0.08 0.285 0 0.1 0.285 0 0 0.29 0 0.02 0.29 0 0.04 0.29 0 0.06 0.29 0 0.08 0.29 0 0.1 0.29 0 0 0.295 0 0.02 0.295 0 0.04 0.295 0 0.06 0.295 0 0.08 0.295 0 0.1 0.295 0 0 0.3 0 0.02 0.3 0 0.04 0.3 0 0.06 0.3 0 0.08 0.3 0 0.1 0.3 0 0 0.305 0 0.02 0.305 0 0.04 0.305 0 0.06 0.305 0 0.08 0.305 0 0.1 0.305 0 0 0.31 0 0.02 0.31 0 0.04 0.31 0 0.06 0.31 0 0.08 0.31 0 0.1 0.31 0 0 0.315 0 0.02 0.315 0 0.04 0.315 0 0.06 0.315 0 0.08 0.315 0 0.1 0.315 0 0 0.32 0 0.02 0.32 0 0.04 0.32 0 0.06 0.32 0 0.08 0.32 0 0.1 0.32 0 0 0.325 0 0.02 0.325 0 0.04 0.325 0 0.06 0.325 0 0.08 0.325 0 0.1 0.325 0 0 0.33 0 0.02 0.33 0 0.04 0.33 0 0.06 0.33 0 0.08 0.33 0 0.1 0.33 0 0 0.335 0 0.02 0.335 0 0.04 0.335 0 0.06 0.335 0 0.08 0.335 0 0.1 0.335 0 0 0.34 0 0.02 0.34 0 0.04 0.34 0 0.06 0.34 0 0.08 0.34 0 0.1 0.34 0 0 0.345 0 0.02 0.345 0 0.04 0.345 0 0.06 0.345 0 0.08 0.345 0 0.1 0.345 0 0 0.35 0 0.02 0.35 0 0.04 0.35 0 0.06 0.35 0 0.08 0.35 0 0.1 0.35 0 0 0.355 0 0.02 0.355 0 0.04 0.355 0 0.06 0.355 0 0.08 0.355 0 0.1 0.355 0 0 0.36 0 0.02 0.36 0 0.04 0.36 0 0.06 0.36 0 0.08 0.36 0 0.1 0.36 0 0 0.365 0 0.02 0.365 0 0.04 0.365 0 0.06 0.365 0 0.08 0.365 0 0.1 0.365 0 0 0.37 0 0.02 0.37 0 0.04 0.37 0 0.06 0.37 0 0.08 0.37 0 0.1 0.37 0 0 0.375 0 0.02 0.375 0 0.04 0.375 0 0.06 0.375 0 0.08 0.375 0 0.1 0.375 0 0 0.38 0 0.02 0.38 0 0.04 0.38 0 0.06 0.38 0 0.08 0.38 0 0.1 0.38 0 0 0.385 0 0.02 0.385 0 0.04 0.385 0 0.06 0.385 0 0.08 0.385 0 0.1 0.385 0 0 0.39 0 0.02 0.39 0 0.04 0.39 0 0.06 0.39 0 0.08 0.39 0 0.1 0.39 0 0 0.395 0 0.02 0.395 0 0.04 0.395 0 0.06 0.395 0 0.08 0.395 0 0.1 0.395 0 0 0.4 0 0.02 0.4 0 0.04 0.4 0 0.06 0.4 0 0.08 0.4 0 0.1 0.4 0 0 0.405 0 0.02 0.405 0 0.04 0.405 0 0.06 0.405 0 0.08 0.405 0 0.1 0.405 0 0 0.41 0 0.02 0.41 0 0.04 0.41 0 0.06 0.41 0 0.08 0.41 0 0.1 0.41 0 0 0.415 0 0.02 0.415 0 0.04 0.415 0 0.06 0.415 0 0.08 0.415 0 0.1 0.415 0 0 0.42 0 0.02 0.42 0 0.04 0.42 0 0.06 0.42 0 0.08 0.42 0 0.1 0.42 0 0 0.425 0 0.02 0.425 0 0.04 0.425 0 0.06 0.425 0 0.08 0.425 0 0.1 0.425 0 0 0.43 0 0.02 0.43 0 0.04 0.43 0 0.06 0.43 0 0.08 0.43 0 0.1 0.43 0 0 0.435 0 0.02 0.435 0 0.04 0.435 0 0.06 0.435 0 0.08 0.435 0 0.1 0.435 0 0 0.44 0 0.02 0.44 0 0.04 0.44 0 0.06 0.44 0 0.08 0.44 0 0.1 0.44 0 0 0.445 0 0.02 0.445 0 0.04 0.445 0 0.06 0.445 0 0.08 0.445 0 0.1 0.445 0 0 0.45 0 0.02 0.45 0 0.04 0.45 0 0.06 0.45 0 0.08 0.45 0 0.1 0.45 0 0 0.455 0 0.02 0.455 0 0.04 0.455 0 0.06 0.455 0 0.08 0.455 0 0.1 0.455 0 0 0.46 0 0.02 0.46 0 0.04 0.46 0 0.06 0.46 0 0.08 0.46 0 0.1 0.46 0 0 0.465 0 0.02 0.465 0 0.04 0.465 0 0.06 0.465 0 0.08 0.465 0 0.1 0.465 0 0 0.47 0 0.02 0.47 0 0.04 0.47 0 0.06 0.47 0 0.08 0.47 0 0.1 0.47 0 0 0.475 0 0.02 0.475 0 0.04 0.475 0 0.06 0.475 0 0.08 0.475 0 0.1 0.475 0 0 0.48 0 0.02 0.48 0 0.04 0.48 0 0.06 0.48 0 0.08 0.48 0 0.1 0.48 0 0 0.485 0 0.02 0.485 0 0.04 0.485 0 0.06 0.485 0 0.08 0.485 0 0.1 0.485 0 0 0.49 0 0.02 0.49 0 0.04 0.49 0 0.06 0.49 0 0.08 0.49 0 0.1 0.49 0 0 0.495 0 0.02 0.495 0 0.04 0.495 0 0.06 0.495 0 0.08 0.495 0 0.1 0.495 0 0 0.5 0 0.02 0.5 0 0.04 0.5 0 0.06 0.5 0 0.08 0.5 0 0.1 0.5 0 0 0.505 0 0.02 0.505 0 0.04 0.505 0 0.06 0.505 0 0.08 0.505 0 0.1 0.505 0 0 0.51 0 0.02 0.51 0 0.04 0.51 0 0.06 0.51 0 0.08 0.51 0 0.1 0.51 0 0 0.515 0 0.02 0.515 0 0.04 0.515 0 0.06 0.515 0 0.08 0.515 0 0.1 0.515 0 0 0.52 0 0.02 0.52 0 0.04 0.52 0 0.06 0.52 0 0.08 0.52 0 0.1 0.52 0 0 0.525 0 0.02 0.525 0 0.04 0.525 0 0.06 0.525 0 0.08 0.525 0 0.1 0.525 0 0 0.53 0 0.02 0.53 0 0.04 0.53 0 0.06 0.53 0 0.08 0.53 0 0.1 0.53 0 0 0.535 0 0.02 0.535 0 0.04 0.535 0 0.06 0.535 0 0.08 0.535 0 0.1 0.535 0 0 0.54 0 0.02 0.54 0 0.04 0.54 0 0.06 0.54 0 0.08 0.54 0 0.1 0.54 0 0 0.545 0 0.02 0.545 0 0.04 0.545 0 0.06 0.545 0 0.08 0.545 0 0.1 0.545 0 0 0.55 0 0.02 0.55 0 0.04 0.55 0 0.06 0.55 0 0.08 0.55 0 0.1 0.55 0 0 0.555 0 0.02 0.555 0 0.04 0.555 0 0.06 0.555 0 0.08 0.555 0 0.1 0.555 0 0 0.56 0 0.02 0.56 0 0.04 0.56 0 0.06 0.56 0 0.08 0.56 0 0.1 0.56 0 0 0.565 0 0.02 0.565 0 0.04 0.565 0 0.06 0.565 0 0.08 0.565 0 0.1 0.565 0 0 0.57 0 0.02 0.57 0 0.04 0.57 0 0.06 0.57 0 0.08 0.57 0 0.1 0.57 0 0 0.575 0 0.02 0.575 0 0.04 0.575 0 0.06 0.575 0 0.08 0.575 0 0.1 0.575 0 0 0.58 0 0.02 0.58 0 0.04 0.58 0 0.06 0.58 0 0.08 0.58 0 0.1 0.58 0 0 0.585 0 0.02 0.585 0 0.04 0.585 0 0.06 0.585 0 0.08 0.585 0 0.1 0.585 0 0 0.59 0 0.02 0.59 0 0.04 0.59 0 0.06 0.59 0 0.08 0.59 0 0.1 0.59 0 0 0.595 0 0.02 0.595 0 0.04 0.595 0 0.06 0.595 0 0.08 0.595 0 0.1 0.595 0 0 0.6 0 0.02 0.6 0 0.04 0.6 0 0.06 0.6 0 0.08 0.6 0 0.1 0.6 0 0 0.605 0 0.02 0.605 0 0.04 0.605 0 0.06 0.605 0 0.08 0.605 0 0.1 0.605 0 0 0.61 0 0.02 0.61 0 0.04 0.61 0 0.06 0.61 0 0.08 0.61 0 0.1 0.61 0 0 0.615 0 0.02 0.615 0 0.04 0.615 0 0.06 0.615 0 0.08 0.615 0 0.1 0.615 0 0 0.62 0 0.02 0.62 0 0.04 0.62 0 0.06 0.62 0 0.08 0.62 0 0.1 0.62 0 0 0.625 0 0.02 0.625 0 0.04 0.625 0 0.06 0.625 0 0.08 0.625 0 0.1 0.625 0 0 0.63 0 0.02 0.63 0 0.04 0.63 0 0.06 0.63 0 0.08 0.63 0 0.1 0.63 0 0 0.635 0 0.02 0.635 0 0.04 0.635 0 0.06 0.635 0 0.08 0.635 0 0.1 0.635 0 0 0.64 0 0.02 0.64 0 0.04 0.64 0 0.06 0.64 0 0.08 0.64 0 0.1 0.64 0 0 0.645 0 0.02 0.645 0 0.04 0.645 0 0.06 0.645 0 0.08 0.645 0 0.1 0.645 0 0 0.65 0 0.02 0.65 0 0.04 0.65 0 0.06 0.65 0 0.08 0.65 0 0.1 0.65 0 0 0.655 0 0.02 0.655 0 0.04 0.655 0 0.06 0.655 0 0.08 0.655 0 0.1 0.655 0 0 0.66 0 0.02 0.66 0 0.04 0.66 0 0.06 0.66 0 0.08 0.66 0 0.1 0.66 0 0 0.665 0 0.02 0.665 0 0.04 0.665 0 0.06 0.665 0 0.08 0.665 0 0.1 0.665 0 0 0.67 0 0.02 0.67 0 0.04 0.67 0 0.06 0.67 0 0.08 0.67 0 0.1 0.67 0 0 0.675 0 0.02 0.675 0 0.04 0.675 0 0.06 0.675 0 0.08 0.675 0 0.1 0.675 0 0 0.68 0 0.02 0.68 0 0.04 0.68 0 0.06 0.68 0 0.08 0.68 0 0.1 0.68 0 0 0.685 0 0.02 0.685 0 0.04 0.685 0 0.06 0.685 0 0.08 0.685 0 0.1 0.685 0 0 0.69 0 0.02 0.69 0 0.04 0.69 0 0.06 0.69 0 0.08 0.69 0 0.1 
[...]
			<PointData Scalars="VitesseX">
				<DataArray Name="VitesseX" type="Float32" format="ascii">
 0 -9.31904e-15 -2.54235e-14 -1.89862e-14 3.01691e-14 0 0 -1.5844e-14 -1.81547e-14 -1.87571e-14 2.89014e-14 0 0 -2.68267e-14 -5.43154e-15 -1.41732e-14 2.16444e-14 0 0 -1.18932e-14 -2.11619e-14 -1.91445e-15 1.40927e-14 0 0 -3.38174e-14 9.86276e-15 -4.47779e-14 4.49235e-14 0 0 -5.78928e-14 1.57788e-14 -3.7962e-14 2.62435e-14 0 0 -7.07107e-15 -8.23603e-14 5.95931e-14 -5.44839e-14 0 0 1.19927e-14 -1.0279e-13 6.54331e-14 -7.69972e-14 0 0 -2.10412e-14 -5.66237e-14 -3.97668e-15 -3.13136e-14 0 0 -6.64189e-14 -1.26184e-15 -1.12952e-13 9.7802e-14 0 0 -9.51009e-14 2.90272e-14 -1.7507e-13 1.91276e-13 0 0 -1.17732e-13 -5.75955e-15 -4.24301e-14 6.1133e-14 0 0 -8.30584e-14 -9.15242e-14 1.32741e-13 -1.09666e-13 0 0 -1.00305e-13 -5.53805e-14 1.04113e-13 -1.00598e-13 0 0 -9.88153e-14 -7.55217e-14 9.19356e-14 -5.25979e-14 0 0 -4.05592e-14 -1.69304e-13 1.33384e-13 -1.72681e-14 0 0 -1.18788e-13 -4.00992e-14 -1.09486e-15 9.46963e-14 0 0 -1.06472e-13 -4.12195e-15 -8.99729e-14 1.95026e-13 0 0 -1.27165e-13 7.15095e-14 -1.83867e-13 2.36136e-13 0 0 -1.45668e-13 7.66865e-14 -1.28755e-13 1.05225e-13 0 0 -4.25523e-14 -1.13368e-13 5.91513e-14 -5.97756e-14 0 0 -3.37062e-14 -1.4565e-13 4.77043e-14 -5.37092e-14 0 0 -1.40932e-13 1.55127e-14 -1.31419e-13 3.56892e-14 0 0 -1.7153e-13 8.74883e-14 -1.77675e-13 -2.62735e-14 0 0 -1.43143e-14 -1.253e-13 6.21453e-14 -2.50306e-13 0 0 8.89538e-14 -2.32537e-13 1.40905e-13 -3.15141e-13 0 0 -7.45986e-14 1.08662e-14 -9.70446e-14 -2.07173e-13 0 0 -2.4191e-13 2.20014e-13 -3.06692e-13 -9.74858e-14 0 0 -1.38412e-13 3.61796e-14 -1.88362e-13 -1.49688e-13 0 0 -2.64481e-14 -1.68336e-13 1.75859e-14 -2.89773e-13 0 0 -5.43924e-14 -1.42095e-13 7.65434e-14 -3.52338e-13 0 0 -2.64085e-15 -1.78485e-13 1.03644e-13 -2.84183e-13 0 0 -8.76409e-14 -3.26902e-14 -1.04504e-13 1.45451e-14 0 0 -2.6335e-13 1.66247e-13 -2.55293e-13 2.14197e-13 0 0 -1.76637e-13 7.47769e-14 -2.23514e-13 2.83657e-13 0 0 1.71789e-14 -1.96464e-13 2.49646e-14 1.54509e-13 0 0 -1.81506e-13 6.38015e-14 -1.76442e-14 8.5681e-14 0 0 -1.17418e-13 -1.95264e-14 1.49598e-13 -2.95708e-14 0 0 -3.08347e-14 -1.07802e-13 2.04309e-13 -3.87974e-14 0 0 -2.03544e-13 1.82908e-13 -1.44034e-13 1.76886e-13 0 0 -3.53564e-14 -1.24288e-13 2.90112e-14 6.64936e-14 0 0 -6.43195e-15 -2.859e-13 1.24368e-13 7.14069e-15 0 0 -6.0017e-14 -2.33116e-13 4.88945e-14 3.67066e-15 0 0 3.8622e-14 -3.13494e-13 7.15622e-14 -5.90605e-14 0 0 1.63387e-14 -3.1818e-13 1.70898e-13 -2.08354e-13 0 0 -5.82689e-14 -3.12346e-13 3.56244e-13 -5.02362e-13 0 0 -4.39847e-13 1.87555e-13 6.66117e-16 -3.13578e-13 0 0 -4.45774e-13 1.49642e-13 4.30673e-14 -2.8768e-13 0 0 -4.8793e-14 -3.67012e-13 4.00454e-13 -4.57406e-13 0 0 -5.71288e-14 -1.63849e-13 4.40048e-14 -1.18715e-13 0 0 -1.33864e-13 4.89825e-14 -1.52948e-13 -1.45981e-14 0 0 -4.10427e-13 3.06034e-13 -2.00064e-13 -1.93612e-13 0 0 -1.9763e-13 -2.18211e-13 4.49022e-13 -7.08741e-13 0 0 -3.32714e-13 1.30041e-13 6.62856e-14 -5.09875e-13 0 0 -5.23223e-13 6.98352e-13 -5.81285e-13 -1.07182e-13 0 0 -1.13354e-13 1.00075e-13 2.50855e-14 -4.08981e-13 0 0 -4.35819e-13 3.25034e-13 -3.91373e-14 -3.292e-13 0 0 -3.19918e-13 -1.51101e-13 4.49955e-13 -5.47452e-13 0 0 -3.45633e-13 -2.08001e-13 3.79801e-13 -4.01741e-13 0 0 -5.53852e-13 2.59853e-13 -2.23249e-13 -3.28993e-14 0 0 -2.01226e-13 4.80786e-14 -1.66625e-13 -1.67201e-13 0 0 -1.57177e-13 1.01064e-13 -2.35595e-13 -1.52942e-13 0 0 -1.50974e-13 3.23349e-14 -2.3039e-13 -4.74848e-14 0 0 -2.21257e-13 1.84842e-13 -5.41751e-13 2.4996e-13 0 0 -1.01078e-13 2.12608e-14 -4.48781e-13 2.46025e-13 0 0 -3.16292e-14 -9.41725e-14 -2.61281e-13 8.83782e-14 0 0 -8.10755e-14 -2.51672e-14 -1.61267e-13 -5.16193e-14 0 0 8.14407e-14 -3.94265e-13 2.69601e-13 -2.34267e-13 0 0 -3.00675e-13 5.94754e-14 -9.25234e-14 8.88983e-14 0 0 -6.6754e-13 5.13031e-13 -3.41647e-13 2.1273e-13 0 0 -1.24219e-13 -3.90421e-13 6.83819e-13 -4.49834e-13 0 0 -3.48697e-13 6.21207e-14 2.76681e-13 -1.61159e-13 0 0 -6.25335e-13 5.5589e-13 -2.38451e-13 1.7571e-13 0 0 -5.93466e-13 5.50325e-13 -2.62035e-13 7.74622e-14 0 0 -3.40597e-13 2.22334e-13 5.61729e-14 -2.74922e-13 0 0 -8.79126e-14 -2.1657e-13 5.6093e-13 -7.21304e-13 0 0 -5.90667e-13 5.05439e-13 -1.03664e-13 -2.7101e-13 0 0 -5.21305e-13 3.81316e-13 -2.58061e-13 5.94792e-14 0 0 -4.54088e-13 1.64626e-13 -3.56408e-13 3.63163e-13 0 0 -1.85108e-13 -3.77653e-13 2.43974e-13 -3.82327e-14 0 0 -4.88639e-13 6.7908e-14 3.81347e-14 -1.71596e-13 0 0 -7.74413e-13 5.50983e-13 -3.94671e-13 -6.77555e-14 0 0 2.40775e-13 -8.49041e-13 6.57717e-13 -5.61798e-13 0 0 -1.22811e-13 -1.90496e-13 -7.80696e-15 -2.34339e-13 0 0 -1.02424e-12 1.10211e-12 -1.19182e-12 3.0011e-13 0 0 1.34798e-13 -4.77128e-13 -7.13013e-14 -1.41222e-13 0 0 5.90282e-13 -1.1714e-12 6.27052e-13 -4.09582e-13 0 0 -3.61429e-13 1.52042e-14 -2.82977e-13 1.12064e-13 0 0 -4.69734e-13 1.94989e-13 -6.143e-13 2.89047e-13 0 0 -8.36403e-13 3.47564e-13 -8.16921e-13 5.06655e-13 0 0 -3.17847e-13 -6.89737e-13 3.8679e-14 1.57463e-13 0 0 2.74615e-13 -1.41393e-12 7.06152e-13 -1.6009e-13 0 0 -5.16651e-13 -8.51638e-14 -3.66572e-13 3.25237e-13 0 0 -6.31771e-13 6.21413e-13 -6.70404e-13 2.04838e-13 0 0 -8.07837e-13 8.83847e-13 -5.56312e-13 -2.69162e-14 0 0 1.84734e-13 -6.41488e-13 4.51129e-13 -4.83851e-13 0 0 9.63046e-13 -1.61839e-12 1.20207e-12 -7.57816e-13 0 0 -3.73111e-13 -5.29096e-14 5.93118e-13 -8.33858e-13 0 0 -1.43829e-12 1.24968e-12 -9.00077e-14 -8.45793e-13 0 0 -8.53861e-13 6.90831e-13 -5.29172e-14 -6.72466e-13 0 0 3.57813e-13 -3.06552e-13 -1.45522e-13 -2.94666e-13 0 0 4.68934e-13 -1.90277e-13 -4.60735e-13 5.07188e-14 0 0 1.55512e-13 3.02563e-13 -8.85595e-13 2.43885e-13 0 0 -1.63879e-13 3.84862e-13 -8.9318e-13 2.25926e-13 0 0 -2.12727e-13 1.80572e-13 -7.37955e-13 1.52043e-13 0 0 -2.32488e-13 -2.18897e-13 -4.87198e-13 3.60177e-14 0 0 -2.98579e-13 -4.9097e-13 -2.74495e-13 -1.71837e-13 0 0 -3.66014e-13 -5.37204e-13 -2.67923e-13 -2.78255e-13 0 0 -4.19663e-13 -4.80304e-13 -3.82339e-13 -2.29374e-13 0 0 -4.56549e-13 -4.14365e-13 -3.26954e-13 -2.82632e-13 0 0 -3.77064e-13 -5.40491e-13 -4.82967e-14 -4.13114e-13 0 0 -2.52536e-13 -4.86181e-13 -7.88637e-14 -2.99407e-13 0 0 -3.91425e-13 -5.2526e-14 -5.27794e-13 8.10142e-14 0 0 -4.87347e-13 1.58399e-13 -6.80678e-13 2.51608e-13 0 0 -1.23955e-13 -3.94367e-13 -4.20981e-14 -1.75984e-13 0 0 1.83134e-13 -8.61332e-13 4.30538e-13 -5.27694e-13 0 0 -1.77555e-13 -3.14163e-13 -1.04007e-13 -2.00082e-13 0 0 -6.45015e-13 3.66591e-13 -7.27794e-13 1.52526e-13 0 0 -3.21816e-13 -1.80402e-13 -1.33235e-13 -2.6975e-13 0 0 -2.77142e-13 -2.29921e-13 -1.46345e-14 -4.4655e-13 0 0 -2.01751e-13 -2.37421e-13 -6.11816e-14 -4.06805e-13 0 0 -2.15899e-13 -2.17488e-13 -1.68748e-13 -1.6502e-13 0 0 -8.13517e-13 6.05263e-13 -9.47734e-13 4.52601e-13 0 0 -3.22603e-13 -2.64931e-13 -3.05273e-14 -1.03673e-13 0 0 -2.41457e-13 -4.31316e-13 2.20285e-13 -3.88741e-13 0 0 -1.6134e-13 -3.50084e-13 -2.33578e-14 -3.45169e-13 0 0 -1.39372e-13 -2.71361e-13 -1.84879e-13 -3.30361e-13 0 0 -8.03374e-13 6.33975e-13 -9.40899e-13 1.63859e-13 0 0 -3.09484e-13 -2.24857e-13 -6.26565e-14 -2.75265e-13 0 0 -3.09381e-13 -3.34259e-13 2.16643e-13 -5.7859e-13 0 0 -1.95397e-13 -3.86456e-13 1.57654e-13 -5.96605e-13 0 0 -1.59121e-13 -3.0869e-13 -2.23415e-13 -2.17455e-13 0 0 -8.61947e-13 6.39226e-13 -1.21828e-12 5.84142e-13 0 0 -3.44589e-13 -3.23064e-13 -1.55056e-13 -2.08589e-14 0 0 -5.01428e-13 -1.55321e-13 6.42381e-15 -4.19264e-13 0 0 -3.10518e-13 -2.24596e-13 -5.19928e-14 -5.43972e-13 0 0 -5.6592e-14 -5.47051e-13 -2.3594e-14 -4.54845e-13 0 0 -9.0858e-13 4.88296e-13 -1.02991e-12 3.40243e-13 0 0 -2.71174e-13 -4.87982e-13 -2.13262e-13 8.68239e-16 0 0 -1.22765e-13 -6.64704e-13 1.0635e-13 -3.8012e-13 0 0 -5.29305e-13 -1.05558e-13 -3.01356e-13 -3.50811e-13 0 0 1.34303e-13 -1.0746e-12 4.33528e-13 -6.27464e-13 0 0 -8.01356e-13 3.18239e-13 -7.89673e-13 1.93081e-13 0 0 -1.12749e-12 8.34177e-13 -1.14373e-12 3.91454e-13 0 0 2.21774e-13 -9.18607e-13 5.36622e-13 -5.06433e-13 0 0 -2.12321e-13 -2.28793e-13 2.01456e-13 -3.4993e-13 0 0 -2.93263e-13 -2.65485e-13 1.34568e-13 -9.40737e-14 0 0 -7.00987e-13 1.97487e-13 -6.22981e-13 7.13534e-13 0 0 -1.03811e-12 4.99707e-13 -7.80757e-13 8.21915e-13 0 0 -7.90168e-14 -8.95836e-13 7.92628e-13 -2.98146e-13 0 0 -5.42124e-13 -1.34309e-13 3.69626e-13 -1.99637e-13 0 0 -3.5626e-13 -3.66489e-13 3.64697e-13 1.6982e-13 0 0 -6.61497e-13 3.83472e-14 -4.41951e-13 1.0719e-12 0 0 -8.26065e-13 1.82979e-13 -5.1914e-13 9.14272e-13 0 0 -4.34784e-13 -4.05188e-13 2.02851e-13 -4.43548e-14 0 0 -2.37348e-13 -5.07668e-13 -6.53671e-14 -1.79135e-13 0 0 -2.06941e-13 -4.26126e-13 -5.38807e-13 -9.22992e-15 0 0 -8.28081e-13 3.70138e-13 -1.2125e-12 2.31239e-13 0 0 -5.90946e-13 -1.57076e-13 -4.07718e-13 -4.61885e-13 0 0 -3.91979e-13 -6.37596e-13 4.08276e-13 -1.29917e-12 0 0 3.01706e-14 -1.06102e-12 5.35002e-13 -1.27741e-12 0 0 -2.61342e-13 -1.89631e-13 -8.86028e-13 -8.28549e-14 0 0 -8.3843e-13 8.93494e-13 -2.11453e-12 7.11753e-13 0 0 -3.09158e-13 -2.62299e-13 -6.53713e-13 -3.01469e-13 0 0 -1.89167e-13 -9.69029e-13 4.60447e-13 -1.19789e-12 0 0 -3.18156e-13 -7.17605e-13 1.30256e-13 -1.1537e-12 0 0 -5.29431e-13 -1.74893e-13 -7.5526e-13 -3.64278e-13 0 0 -8.21793e-13 4.17007e-13 -1.80491e-12 9.95733e-13 0 0 -3.93462e-14 -7.70839e-13 -8.961e-13 7.88942e-13 0 0 -3.75003e-13 -3.72921e-13 -9.154e-13 3.13931e-13 0 0 -7.80578e-13 2.61774e-13 -1.11904e-12 -2.23698e-13 0 0 -4.22457e-14 -1.01844e-12 1.97702e-13 -1.13007e-12 0 0 -6.7804e-13 -2.7831e-13 -3.93214e-13 -7.18303e-13 0 0 -5.39464e-13 -2.71585e-13 -6.45972e-13 -5.93939e-13 0 0 -4.79976e-13 -2.83566e-14 -1.2039e-12 -2.85161e-13 0 0 -5.36433e-13 6.10449e-14 -1.12281e-12 -3.87063e-13 0 0 4.46502e-14 -1.25836e-12 6.02174e-13 -1.37086e-12 0 0 -6.82213e-13 -3.26887e-13 -1.4819e-13 -6.57375e-13 0 0 -3.83748e-13 -3.55166e-13 -6.14378e-13 -1.61646e-13 0 0 -3.22279e-13 -1.52453e-13 -1.20924e-12 8.20337e-14 0 0 -6.58762e-13 3.09163e-13 -1.57062e-12 1.12765e-13 0 0 -5.13075e-14 -1.07817e-12 2.0643e-13 -7.808e-13 0 0 -6.33552e-13 -5.60697e-13 1.81572e-13 -7.01551e-13 0 0 -6.00703e-13 -3.82313e-13 -1.83083e-13 -5.45669e-13 0 0 -4.48163e-13 -2.95445e-13 -7.59737e-13 -2.58098e-13 0 0 -5.45128e-13 -1.50849e-13 -9.73608e-13 -3.96478e-13 0 0 8.0633e-15 -1.30083e-12 3.11886e-13 -1.12436e-12 0 0 -7.13827e-13 -3.81209e-13 -2.21152e-13 -7.4434e-13 0 0 -5.74082e-13 -1.69817e-13 -5.0535e-13 -6.88377e-13 0 0 -9.71176e-13 4.06344e-13 -9.60031e-13 -5.46664e-13 0 0 -1.26302e-12 3.45398e-13 -6.80454e-13 -5.85893e-13 0 0 3.1857e-13 -2.254e-12 1.62886e-12 -1.587e-12 0 0 -1.20187e-12 1.31785e-13 -6.24982e-13 -2.57286e-13 0 0 -1.86285e-12 1.48932e-12 -1.85727e-12 1.47724e-13 0 0 -1.66853e-13 -6.73382e-13 2.37967e-13 -1.35194e-12 0 0 -1.1088e-13 -7.99269e-13 4.76301e-13 -1.55178e-12 0 0 5.10077e-14 -1.34311e-12 9.29669e-13 -1.70206e-12 0 0 -1.26922e-12 8.46313e-13 -1.65223e-12 2.13668e-13 0 0 -1.32049e-12 1.00133e-12 -1.92107e-12 5.98677e-13 0 0 -5.70305e-14 -1.30779e-12 1.02907e-12 -1.43615e-12 0 0 -3.9179e-13 -1.04751e-12 1.29825e-12 -1.78041e-12 0
				</DataArray>
				<DataArray Name="VitesseY" type="Float32" format="ascii">