<?xml version="1.0"?>
<VTKFile type="PolyData">
	<PolyData>
		<Piece NumberOfPoints="1206" NumberOfPolys="1000">
			<Points>
				<DataArray type="Float32" NumberOfComponents="3" format="ascii">
 0 0 0 0.02 0 0 0.04 0 0 0.06 0 0 0.08 0 0 0.1 0 0 0 0.005 0 0.02 0.005 0 0.04 0.005 0 0.06 0.005 0 0.08 0.005 0 0.1 0.005 0 0 0.01 0 0.02 0.01 0 0.04 0.01 0 0.06 0.01 0 0.08 0.01 0 0.1 0.01 0 0 0.015 0 0.02 0.015 0 0.04 0.015 0 0.06 0.015 0 0.08 0.015 0 0.1 0.015 0 0 0.02 0 0.02 0.02 0 0.04 0.02 0 0.06 0.02 0 0.08 0.02 0 0.1 0.02 0 0 0.025 0 0.02 0.025 0 0.04 0.025 0 0.06 0.025 0 0.08 0.025 0 0.1 0.025 0 0 0.03 0 0.02 0.03 0 0.04 0.03 0 0.06 0.03 0 0.08 0.03 0 0.1 0.03 0 0 0.035 0 0.02 0.035 0 0.04 0.035 0 0.06 0.035 0 0.08 0.035 0 0.1 0.035 0 0 0.04 0 0.02 0.04 0 0.04 0.04 0 0.06 0.04 0 0.08 0.04 0 0.1 0.04 0 0 0.045 0 0.02 0.045 0 0.04 0.045 0 0.06 0.045 0 0.08 0.045 0 0.1 0.045 0 0 0.05 0 0.02 0.05 0 0.04 0.05 0 0.06 0.05 0 0.08 0.05 0 0.1 0.05 0 0 0.055 0 0.02 0.055 0 0.04 0.055 0 0.06 0.055 0 0.08 0.055 0 0.1 0.055 0 0 0.06 0 0.02 0.06 0 0.04 0.06 0 0.06 0.06 0 0.08 0.06 0 0.1 0.06 0 0 0.065 0 0.02 0.065 0 0.04 0.065 0 0.06 0.065 0 0.08 0.065 0 0.1 0.065 0 0 0.07 0 0.02 0.07 0 0.04 0.07 0 0.06 0.07 0 0.08 0.07 0 0.1 0.07 0 0 0.075 0 0.02 0.075 0 0.04 0.075 0 0.06 0.075 0 0.08 0.075 0 0.1 0.075 0 0 0.08 0 0.02 0.08 0 0.04 0.08 0 0.06 0.08 0 0.08 0.08 0 0.1 0.08 0 0 0.085 0 0.02 0.085 0 0.04 0.085 0 0.06 0.085 0 0.08 0.085 0 0.1 0.085 0 0 0.09 0 0.02 0.09 0 0.04 0.09 0 0.06 0.09 0 0.08 0.09 0 0.1 0.09 0 0 0.095 0 0.02 0.095 0 0.04 0.095 0 0.06 0.095 0 0.08 0.095 0 0.1 0.095 0 0 0.1 0 0.02 0.1 0 0.04 0.1 0 0.06 0.1 0 0.08 0.1 0 0.1 0.1 0 0 0.105 0 0.02 0.105 0 0.04 0.105 0 0.06 0.105 0 0.08 0.105 0 0.1 0.105 0 0 0.11 0 0.02 0.11 0 0.04 0.11 0 0.06 0.11 0 0.08 0.11 0 0.1 0.11 0 0 0.115 0 0.02 0.115 0 0.04 0.115 0 0.06 0.115 0 0.08 0.115 0 0.1 0.115 0 0 0.12 0 0.02 0.12 0 0.04 0.12 0 0.06 0.12 0 0.08 0.12 0 0.1 0.12 0 0 0.125 0 0.02 0.125 0 0.04 0.125 0 0.06 0.125 0 0.08 0.125 0 0.1 0.125 0 0 0.13 0 0.02 0.13 0 0.04 0.13 0 0.06 0.13 0 0.08 0.13 0 0.1 0.13 0 0 0.135 0 0.02 0.135 0 0.04 0.135 0 0.06 0.135 0 0.08 0.135 0 0.1 0.135 0 0 0.14 0 0.02 0.14 0 0.04 0.14 0 0.06 0.14 0 0.08 0.14 0 0.1 0.14 0 0 0.145 0 0.02 0.145 0 0.04 0.145 0 0.06 0.145 0 0.08 0.145 0 0.1 0.145 0 0 0.15 0 0.02 0.15 0 0.04 0.15 0 0.06 0.15 0 0.08 0.15 0 0.1 0.15 0 0 0.155 0 0.02 0.155 0 0.04 0.155 0 0.06 0.155 0 0.08 0.155 0 0.1 0.155 0 0 0.16 0 0.02 0.16 0 0.04 0.16 0 0.06 0.16 0 0.08 0.16 0 0.1 0.16 0 0 0.165 0 0.02 0.165 0 0.04 0.165 0 0.06 0.165 0 0.08 0.165 0 0.1 0.165 0 0 0.17 0 0.02 0.17 0 0.04 0.17 0 0.06 0.17 0 0.08 0.17 0 0.1 0.17 0 0 0.175 0 0.02 0.175 0 0.04 0.175 0 0.06 0.175 0 0.08 0.175 0 0.1 0.175 0 0 0.18 0 0.02 0.18 0 0.04 0.18 0 0.06 0.18 0 0.08 0.18 0 0.1 0.18 0 0 0.185 0 0.02 0.185 0 0.04 0.185 0 0.06 0.185 0 0.08 0.185 0 0.1 0.185 0 0 0.19 0 0.02 0.19 0 0.04 0.19 0 0.06 0.19 0 0.08 0.19 0 0.1 0.19 0 0 0.195 0 0.02 0.195 0 0.04 0.195 0 0.06 0.195 0 0.08 0.195 0 0.1 0.195 0 0 0.2 0 0.02 0.2 0 0.04 0.2 0 0.06 0.2 0 0.08 0.2 0 0.1 0.2 0 0 0.205 0 0.02 0.205 0 0.04 0.205 0 0.06 0.205 0 0.08 0.205 0 0.1 0.205 0 0 0.21 0 0.02 0.21 0 0.04 0.21 0 0.06 0.21 0 0.08 0.21 0 0.1 0.21 0 0 0.215 0 0.02 0.215 0 0.04 0.215 0 0.06 0.215 0 0.08 0.215 0 0.1 0.215 0 0 0.22 0 0.02 0.22 0 0.04 0.22 0 0.06 0.22 0 0.08 0.22 0 0.1 0.22 0 0 0.225 0 0.02 0.225 0 0.04 0.225 0 0.06 0.225 0 0.08 0.225 0 0.1 0.225 0 0 0.23 0 0.02 0.23 0 0.04 0.23 0 0.06 0.23 0 0.08 0.23 0 0.1 0.23 0 0 0.235 0 0.02 0.235 0 0.04 0.235 0 0.06 0.235 0 0.08 0.235 0 0.1 0.235 0 0 0.24 0 0.02 0.24 0 0.04 0.24 0 0.06 0.24 0 0.08 0.24 0 0.1 0.24 0 0 0.245 0 0.02 0.245 0 0.04 0.245 0 0.06 0.245 0 0.08 0.245 0 0.1 0.245 0 0 0.25 0 0.02 0.25 0 0.04 0.25 0 0.06 0.25 0 0.08 0.25 0 0.1 0.25 0 0 0.255 0 0.02 0.255 0 0.04 0.255 0 0.06 0.255 0 0.08 0.255 0 0.1 0.255 0 0 0.26 0 0.02 0.26 0 0.04 0.26 0 0.06 0.26 0 0.08 0.26 0 0.1 0.26 0 0 0.265 0 0.02 0.265 0 0.04 0.265 0 0.06 0.265 0 0.08 0.265 0 0.1 0.265 0 0 0.27 0 0.02 0.27 0 0.04 0.27 0 0.06 0.27 0 0.08 0.27 0 0.1 0.27 0 0 0.275 0 0.02 0.275 0 0.04 0.275 0 0.06 0.275 0 0.08 0.275 0 0.1 0.275 0 0 0.28 0 0.02 0.28 0 0.04 0.28 0 0.06 0.28 0 0.08 0.28 0 0.1 0.28 0 0 0.285 0 0.02 0.285 0 0.04 0.285 0 0.06 0.285 0 0.08 0.285 0 0.1 0.285 0 0 0.29 0 0.02 0.29 0 0.04 0.29 0 0.06 0.29 0 0.08 0.29 0 0.1 0.29 0 0 0.295 0 0.02 0.295 0 0.04 0.295 0 0.06 0.295 0 0.08 0.295 0 0.1 0.295 0 0 0.3 0 0.02 0.3 0 0.04 0.3 0 0.06 0.3 0 0.08 0.3 0 0.1 0.3 0 0 0.305 0 0.02 0.305 0 0.04 0.305 0 0.06 0.305 0 0.08 0.305 0 0.1 0.305 0 0 0.31 0 0.02 0.31 0 0.04 0.31 0 0.06 0.31 0 0.08 0.31 0 0.1 0.31 0 0 0.315 0 0.02 0.315 0 0.04 0.315 0 0.06 0.315 0 0.08 0.315 0 0.1 0.315 0 0 0.32 0 0.02 0.32 0 0.04 0.32 0 0.06 0.32 0 0.08 0.32 0 0.1 0.32 0 0 0.325 0 0.02 0.325 0 0.04 0.325 0 0.06 0.325 0 0.08 0.325 0 0.1 0.325 0 0 0.33 0 0.02 0.33 0 0.04 0.33 0 0.06 0.33 0 0.08 0.33 0 0.1 0.33 0 0 0.335 0 0.02 0.335 0 0.04 0.335 0 0.06 0.335 0 0.08 0.335 0 0.1 0.335 0 0 0.34 0 0.02 0.34 0 0.04 0.34 0 0.06 0.34 0 0.08 0.34 0 0.1 0.34 0 0 0.345 0 0.02 0.345 0 0.04 0.345 0 0.06 0.345 0 0.08 0.345 0 0.1 0.345 0 0 0.35 0 0.02 0.35 0 0.04 0.35 0 0.06 0.35 0 0.08 0.35 0 0.1 0.35 0 0 0.355 0 0.02 0.355 0 0.04 0.355 0 0.06 0.355 0 0.08 0.355 0 0.1 0.355 0 0 0.36 0 0.02 0.36 0 0.04 0.36 0 0.06 0.36 0 0.08 0.36 0 0.1 0.36 0 0 0.365 0 0.02 0.365 0 0.04 0.365 0 0.06 0.365 0 0.08 0.365 0 0.1 0.365 0 0 0.37 0 0.02 0.37 0 0.04 0.37 0 0.06 0.37 0 0.08 0.37 0 0.1 0.37 0 0 0.375 0 0.02 0.375 0 0.04 0.375 0 0.06 0.375 0 0.08 0.375 0 0.1 0.375 0 0 0.38 0 0.02 0.38 0 0.04 0.38 0 0.06 0.38 0 0.08 0.38 0 0.1 0.38 0 0 0.385 0 0.02 0.385 0 0.04 0.385 0 0.06 0.385 0 0.08 0.385 0 0.1 0.385 0 0 0.39 0 0.02 0.39 0 0.04 0.39 0 0.06 0.39 0 0.08 0.39 0 0.1 0.39 0 0 0.395 0 0.02 0.395 0 0.04 0.395 0 0.06 0.395 0 0.08 0.395 0 0.1 0.395 0 0 0.4 0 0.02 0.4 0 0.04 0.4 0 0.06 0.4 0 0.08 0.4 0 0.1 0.4 0 0 0.405 0 0.02 0.405 0 0.04 0.405 0 0.06 0.405 0 0.08 0.405 0 0.1 0.405 0 0 0.41 0 0.02 0.41 0 0.04 0.41 0 0.06 0.41 0 0.08 0.41 0 0.1 0.41 0 0 0.415 0 0.02 0.415 0 0.04 0.415 0 0.06 0.415 0 0.08 0.415 0 0.1 0.415 0 0 0.42 0 0.02 0.42 0 0.04 0.42 0 0.06 0.42 0 0.08 0.42 0 0.1 0.42 0 0 0.425 0 0.02 0.425 0 0.04 0.425 0 0.06 0.425 0 0.08 0.425 0 0.1 0.425 0 0 0.43 0 0.02 0.43 0 0.04 0.43 0 0.06 0.43 0 0.08 0.43 0 0.1 0.43 0 0 0.435 0 0.02 0.435 0 0.04 0.435 0 0.06 0.435 0 0.08 0.435 0 0.1 0.435 0 0 0.44 0 0.02 0.44 0 0.04 0.44 0 0.06 0.44 0 0.08 0.44 0 0.1 0.44 0 0 0.445 0 0.02 0.445 0 0.04 0.445 0 0.06 0.445 0 0.08 0.445 0 0.1 0.445 0 0 0.45 0 0.02 0.45 0 0.04 0.45 0 0.06 0.45 0 0.08 0.45 0 0.1 0.45 0 0 0.455 0 0.02 0.455 0 0.04 0.455 0 0.06 0.455 0 0.08 0.455 0 0.1 0.455 0 0 0.46 0 0.02 0.46 0 0.04 0.46 0 0.06 0.46 0 0.08 0.46 0 0.1 0.46 0 0 0.465 0 0.02 0.465 0 0.04 0.465 0 0.06 0.465 0 0.08 0.465 0 0.1 0.465 0 0 0.47 0 0.02 0.47 0 0.04 0.47 0 0.06 0.47 0 0.08 0.47 0 0.1 0.47 0 0 0.475 0 0.02 0.475 0 0.04 0.475 0 0.06 0.475 0 0.08 0.475 0 0.1 0.475 0 0 0.48 0 0.02 0.48 0 0.04 0.48 0 0.06 0.48 0 0.08 0.48 0 0.1 0.48 0 0 0.485 0 0.02 0.485 0 0.04 0.485 0 0.06 0.485 0 0.08 0.485 0 0.1 0.485 0 0 0.49 0 0.02 0.49 0 0.04 0.49 0 0.06 0.49 0 0.08 0.49 0 0.1 0.49 0 0 0.495 0 0.02 0.495 0 0.04 0.495 0 0.06 0.495 0 0.08 0.495 0 0.1 0.495 0 0 0.5 0 0.02 0.5 0 0.04 0.5 0 0.06 0.5 0 0.08 0.5 0 0.1 0.5 0 0 0.505 0 0.02 0.505 0 0.04 0.505 0 0.06 0.505 0 0.08 0.505 0 0.1 0.505 0 0 0.51 0 0.02 0.51 0 0.04 0.51 0 0.06 0.51 0 0.08 0.51 0 0.1 0.51 0 0 0.515 0 0.02 0.515 0 0.04 0.515 0 0.06 0.515 0 0.08 0.515 0 0.1 0.515 0 0 0.52 0 0.02 0.52 0 0.04 0.52 0 0.06 0.52 0 0.08 0.52 0 0.1 0.52 0 0 0.525 0 0.02 0.525 0 0.04 0.525 0 0.06 0.525 0 0.08 0.525 0 0.1 0.525 0 0 0.53 0 0.02 0.53 0 0.04 0.53 0 0.06 0.53 0 0.08 0.53 0 0.1 0.53 0 0 0.535 0 0.02 0.535 0 0.04 0.535 0 0.06 0.535 0 0.08 0.535 0 0.1 0.535 0 0 0.54 0 0.02 0.54 0 0.04 0.54 0 0.06 0.54 0 0.08 0.54 0 0.1 0.54 0 0 0.545 0 0.02 0.545 0 0.04 0.545 0 0.06 0.545 0 0.08 0.545 0 0.1 0.545 0 0 0.55 0 0.02 0.55 0 0.04 0.55 0 0.06 0.55 0 0.08 0.55 0 0.1 0.55 0 0 0.555 0 0.02 0.555 0 0.04 0.555 0 0.06 0.555 0 0.08 0.555 0 0.1 0.555 0 0 0.56 0 0.02 0.56 0 0.04 0.56 0 0.06 0.56 0 0.08 0.56 0 0.1 0.56 0 0 0.565 0 0.02 0.565 0 0.04 0.565 0 0.06 0.565 0 0.08 0.565 0 0.1 0.565 0 0 0.57 0 0.02 0.57 0 0.04 0.57 0 0.06 0.57 0 0.08 0.57 0 0.1 0.57 0 0 0.575 0 0.02 0.575 0 0.04 0.575 0 0.06 0.575 0 0.08 0.575 0 0.1 0.575 0 0 0.58 0 0.02 0.58 0 0.04 0.58 0 0.06 0.58 0 0.08 0.58 0 0.1 0.58 0 0 0.585 0 0.02 0.585 0 0.04 0.585 0 0.06 0.585 0 0.08 0.585 0 0.1 0.585 0 0 0.59 0 0.02 0.59 0 0.04 0.59 0 0.06 0.59 0 0.08 0.59 0 0.1 0.59 0 0 0.595 0 0.02 0.595 0 0.04 0.595 0 0.06 0.595 0 0.08 0.595 0 0.1 0.595 0 0 0.6 0 0.02 0.6 0 0.04 0.6 0 0.06 0.6 0 0.08 0.6 0 0.1 0.6 0 0 0.605 0 0.02 0.605 0 0.04 0.605 0 0.06 0.605 0 0.08 0.605 0 0.1 0.605 0 0 0.61 0 0.02 0.61 0 0.04 0.61 0 0.06 0.61 0 0.08 0.61 0 0.1 0.61 0 0 0.615 0 0.02 0.615 0 0.04 0.615 0 0.06 0.615 0 0.08 0.615 0 0.1 0.615 0 0 0.62 0 0.02 0.62 0 0.04 0.62 0 0.06 0.62 0 0.08 0.62 0 0.1 0.62 0 0 0.625 0 0.02 0.625 0 0.04 0.625 0 0.06 0.625 0 0.08 0.625 0 0.1 0.625 0 0 0.63 0 0.02 0.63 0 0.04 0.63 0 0.06 0.63 0 0.08 0.63 0 0.1 0.63 0 0 0.635 0 0.02 0.635 0 0.04 0.635 0 0.06 0.635 0 0.08 0.635 0 0.1 0.635 0 0 0.64 0 0.02 0.64 0 0.04 0.64 0 0.06 0.64 0 0.08 0.64 0 0.1 0.64 0 0 0.645 0 0.02 0.645 0 0.04 0.645 0 0.06 0.645 0 0.08 0.645 0 0.1 0.645 0 0 0.65 0 0.02 0.65 0 0.04 0.65 0 0.06 0.65 0 0.08 0.65 0 0.1 0.65 0 0 0.655 0 0.02 0.655 0 0.04 0.655 0 0.06 0.655 0 0.08 0.655 0 0.1 0.655 0 0 0.66 0 0.02 0.66 0 0.04 0.66 0 0.06 0.66 0 0.08 0.66 0 0.1 0.66 0 0 0.665 0 0.02 0.665 0 0.04 0.665 0 0.06 0.665 0 0.08 0.665 0 0.1 0.665 0 0 0.67 0 0.02 0.67 0 0.04 0.67 0 0.06 0.67 0 0.08 0.67 0 0.1 0.67 0 0 0.675 0 0.02 0.675 0 0.04 0.675 0 0.06 0.675 0 0.08 0.675 0 0.1 0.675 0 0 0.68 0 0.02 0.68 0 0.04 0.68 0 0.06 0.68 0 0.08 0.68 0 0.1 0.68 0 0 0.685 0 0.02 0.685 0 0.04 0.685 0 0.06 0.685 0 0.08 0.685 0 0.1 0.685 0 0 0.69 0 0.02 0.69 0 0.04 0.69 0 0.06 0.69 0 0.08 0.69 0 0.1 
[...]
			<PointData Scalars="VitesseX">
				<DataArray Name="VitesseX" type="Float32" format="ascii">
 0 2.62004e-14 2.04194e-14 3.85497e-14 2.95392e-14 0 0 2.36019e-14 1.93356e-14 4.22911e-14 2.58232e-14 0 0 9.81761e-15 3.21383e-14 3.19699e-14 3.04117e-14 0 0 9.39474e-15 2.36715e-14 4.04709e-14 2.69003e-14 0 0 1.1588e-14 1.24514e-14 4.80772e-14 3.14508e-14 0 0 -4.05156e-15 3.04729e-14 2.54814e-14 5.57175e-14 0 0 -4.2587e-15 1.03383e-14 4.44517e-14 5.31546e-14 0 0 3.45465e-15 -2.20961e-14 7.92999e-14 3.1493e-14 0 0 -6.23433e-15 1.3196e-15 3.80269e-14 5.89972e-14 0 0 -1.44149e-14 4.04632e-14 -2.17252e-14 1.07554e-13 0 0 -2.78414e-14 7.49026e-14 -3.64697e-14 1.06187e-13 0 0 6.23328e-15 1.64721e-14 5.19549e-14 3.103e-14 0 0 5.72464e-14 -5.70776e-14 1.50396e-13 -5.27844e-14 0 0 3.06619e-16 6.79777e-14 3.18492e-14 4.44989e-15 0 0 -2.35512e-14 1.24875e-13 -2.18118e-14 3.68221e-14 0 0 2.49086e-14 5.31933e-14 5.93908e-14 -4.9779e-15 0 0 6.39005e-15 8.69638e-14 4.32095e-14 1.74205e-14 0 0 2.97781e-14 4.58362e-14 1.17745e-13 -3.2657e-14 0 0 4.74579e-14 2.73342e-14 1.36624e-13 -3.0583e-14 0 0 8.22697e-15 1.039e-13 1.74035e-14 8.26621e-14 0 0 1.77696e-14 5.67926e-14 4.39899e-14 9.65824e-14 0 0 6.07811e-15 1.4463e-14 1.13597e-13 5.58978e-14 0 0 -4.19402e-15 1.43301e-14 1.08143e-13 5.72953e-14 0 0 -2.73167e-14 8.55853e-14 -8.13803e-17 1.26892e-13 0 0 1.69524e-14 5.20142e-14 2.9573e-14 9.11117e-14 0 0 1.35942e-13 -1.03666e-13 1.98461e-13 -3.17651e-14 0 0 1.04784e-13 2.09679e-14 7.57808e-14 1.31143e-14 0 0 2.58012e-14 1.86189e-13 -8.16978e-14 9.38731e-14 0 0 6.03297e-14 1.34969e-13 -2.81043e-14 8.44084e-14 0 0 1.2861e-13 2.61362e-14 9.6972e-14 5.91327e-15 0 0 1.31643e-13 1.97489e-14 1.3588e-13 -2.91468e-14 0 0 8.24319e-14 1.16759e-13 5.55304e-14 1.90253e-14 0 0 2.76616e-14 2.03145e-13 -1.40059e-14 3.08297e-14 0 0 2.96089e-14 1.84805e-13 -2.08327e-14 4.6845e-14 0 0 5.13515e-14 1.19187e-13 5.50972e-14 -1.09027e-14 0 0 1.57303e-14 1.53366e-13 6.8482e-14 -7.24374e-14 0 0 -6.8601e-15 1.65593e-13 2.39276e-15 -1.45587e-14 0 0 2.91817e-14 6.19758e-14 1.67389e-14 -1.53188e-15 0 0 5.51564e-14 4.72551e-14 3.37419e-14 -4.57353e-16 0 0 1.31067e-14 1.52991e-13 1.83915e-14 1.5749e-14 0 0 3.25454e-14 1.34708e-13 1.19413e-13 -5.98918e-14 0 0 1.14131e-14 1.77083e-13 1.42594e-13 -1.0152e-13 0 0 -4.82579e-15 1.91627e-13 1.53432e-13 -1.1493e-13 0 0 3.67444e-14 1.4748e-13 1.90151e-13 -1.33429e-13 0 0 4.07482e-14 2.06846e-13 1.4231e-13 -1.16973e-13 0 0 8.21407e-14 2.72484e-13 2.91721e-15 3.9727e-14 0 0 1.54171e-13 2.14345e-13 1.55659e-14 1.15645e-13 0 0 1.65821e-13 1.54984e-13 8.33982e-14 9.24791e-14 0 0 2.45926e-13 6.65843e-14 1.10775e-13 7.58423e-14 0 0 2.15038e-13 1.56921e-14 1.94184e-13 3.64005e-14 0 0 4.76028e-14 6.95793e-14 2.09046e-13 1.49569e-13 0 0 -6.30842e-14 2.18728e-13 7.78414e-14 3.44962e-13 0 0 -1.38733e-13 3.5311e-13 -3.70723e-14 3.86515e-13 0 0 -3.09722e-14 1.53967e-13 6.40545e-14 3.25247e-13 0 0 8.09175e-14 -1.17613e-13 2.60998e-13 2.32477e-13 0 0 3.8278e-14 -2.52148e-13 4.48317e-13 1.09737e-13 0 0 -1.71932e-13 -1.3986e-14 2.70882e-13 1.52714e-13 0 0 -2.61905e-13 2.04721e-13 1.10483e-13 1.61672e-13 0 0 -1.21012e-13 8.35262e-14 2.79212e-13 -1.51756e-15 0 0 -3.27534e-14 6.1363e-14 3.50852e-13 -1.40517e-13 0 0 -2.66161e-14 1.50959e-13 2.27055e-13 -7.48606e-14 0 0 9.07589e-16 2.39514e-13 6.87485e-14 4.21903e-14 0 0 6.17003e-14 1.90421e-13 4.18069e-14 6.93428e-14 0 0 1.38838e-13 1.20547e-13 9.90582e-15 8.53806e-14 0 0 1.51382e-13 1.04948e-13 -2.60312e-14 9.93046e-14 0 0 1.4002e-13 6.99818e-14 2.38023e-14 -3.06622e-14 0 0 9.40922e-14 8.64565e-14 6.51533e-14 -2.01728e-13 0 0 1.04218e-13 1.12227e-13 1.62131e-14 -3.0301e-13 0 0 1.60331e-13 1.0173e-13 -4.74159e-14 -3.27124e-13 0 0 1.40041e-13 1.32479e-13 -1.8264e-13 -2.84023e-13 0 0 1.50391e-13 5.9283e-14 -1.50775e-13 -3.26274e-13 0 0 1.83353e-13 -8.10659e-14 -8.33474e-14 -3.44401e-13 0 0 1.2739e-13 -3.74473e-14 -1.38471e-13 -2.80839e-13 0 0 6.47785e-14 1.02194e-14 -2.35845e-13 -2.44851e-13 0 0 1.2555e-13 -6.20263e-14 -2.50954e-13 -2.05822e-13 0 0 1.86758e-13 -1.46807e-13 -2.40266e-13 -2.07253e-13 0 0 2.9803e-13 -3.76234e-13 -9.45555e-14 -2.65879e-13 0 0 2.61745e-13 -4.08536e-13 -6.40441e-14 -2.48514e-13 0 0 1.41237e-13 -2.64091e-13 -1.87492e-13 -1.70408e-13 0 0 3.56157e-14 -2.17103e-13 -2.37434e-13 2.4346e-14 0 0 6.36815e-14 -3.0037e-13 -1.57113e-13 1.02032e-13 0 0 4.62115e-14 -4.12617e-13 4.57783e-14 1.07336e-13 0 0 -3.46504e-14 -3.71247e-13 8.4061e-14 6.66721e-14 0 0 -1.864e-13 -2.49785e-13 7.47487e-14 -2.18391e-14 0 0 -3.56147e-13 -1.62941e-13 8.3746e-14 -1.3428e-13 0 0 -3.13935e-13 -2.12907e-13 8.06939e-14 -2.14335e-13 0 0 -2.21455e-13 -2.65591e-13 -2.47065e-14 -1.99952e-13 0 0 -1.61667e-13 -2.33222e-13 -2.11668e-13 -1.34645e-13 0 0 -1.63155e-13 -1.17434e-13 -4.52558e-13 -5.61489e-14 0 0 -1.5856e-13 -3.31517e-14 -5.23256e-13 -8.98918e-14 0 0 -9.66895e-14 -1.04342e-13 -4.12991e-13 -2.71462e-13 0 0 1.61223e-14 -2.07717e-13 -2.93078e-13 -3.93116e-13 0 0 7.34565e-14 -2.18501e-13 -3.08929e-13 -3.82267e-13 0 0 6.28653e-14 -1.99615e-13 -3.34848e-13 -3.71217e-13 0 0 -1.57835e-14 -1.5576e-13 -3.24261e-13 -3.82628e-13 0 0 -1.90194e-13 -9.36415e-14 -2.6146e-13 -4.62054e-13 0 0 -3.55513e-13 -1.99505e-14 -1.02551e-13 -6.63952e-13 0 0 -3.5499e-13 -1.28641e-14 -8.96529e-15 -8.87234e-13 0 0 -2.40294e-13 -8.10557e-14 -1.38335e-14 -9.17529e-13 0 0 -2.79195e-14 -2.09732e-13 -7.66146e-14 -8.45701e-13 0 0 1.53873e-13 -2.51141e-13 -2.51941e-13 -6.48866e-13 0 0 2.70645e-13 -2.7627e-13 -5.65937e-13 -3.60493e-13 0 0 3.77437e-13 -3.1816e-13 -8.18729e-13 -3.22833e-14 0 0 4.23222e-13 -3.7532e-13 -8.21006e-13 7.67493e-14 0 0 4.22594e-13 -4.57444e-13 -7.18774e-13 2.16011e-14 0 0 3.62126e-13 -4.98244e-13 -5.45376e-13 -1.24958e-13 0 0 2.87671e-13 -4.91157e-13 -3.66265e-13 -3.14138e-13 0 0 2.4792e-13 -4.54785e-13 -3.04194e-13 -4.66377e-13 0 0 2.07864e-13 -3.86588e-13 -3.16496e-13 -5.07786e-13 0 0 1.39858e-13 -3.52431e-13 -3.06186e-13 -5.37688e-13 0 0 3.03479e-14 -3.0111e-13 -3.27119e-13 -5.01327e-13 0 0 -9.91744e-14 -2.19943e-13 -3.69199e-13 -4.24941e-13 0 0 -1.99743e-13 -1.3651e-13 -4.5112e-13 -3.02625e-13 0 0 -2.56439e-13 -6.5238e-14 -5.58418e-13 -1.34582e-13 0 0 -2.92912e-13 -7.64934e-14 -5.44406e-13 -1.03733e-13 0 0 -2.9478e-13 -1.46577e-13 -4.33037e-13 -9.83502e-14 0 0 -3.04998e-13 -1.97126e-13 -3.05269e-13 -1.26172e-13 0 0 -2.81198e-13 -2.30091e-13 -2.03502e-13 -1.49687e-13 0 0 -2.34293e-13 -2.90051e-13 -9.3174e-14 -1.6942e-13 0 0 -2.39063e-13 -3.07437e-13 1.32985e-14 -2.03874e-13 0 0 -2.60446e-13 -2.39036e-13 -4.71323e-14 -1.6004e-13 0 0 -2.5017e-13 -1.497e-13 -1.78291e-13 -4.56917e-14 0 0 -1.95931e-13 -1.58445e-13 -1.94977e-13 4.17464e-14 0 0 -1.48054e-13 -1.49263e-13 -2.08122e-13 9.72872e-14 0 0 -1.10939e-13 -1.20896e-13 -1.99661e-13 1.16702e-13 0 0 -3.0406e-14 -1.37964e-13 -1.59996e-13 1.61e-13 0 0 8.22384e-14 -2.0798e-13 -6.44007e-14 1.56853e-13 0 0 1.77427e-13 -2.39551e-13 1.21427e-14 8.36902e-14 0 0 1.7982e-13 -1.84954e-13 -1.45153e-14 9.91646e-14 0 0 1.58354e-13 -9.98824e-14 -2.89053e-14 1.62758e-13 0 0 1.3172e-13 -2.07305e-14 1.0518e-14 1.73906e-13 0 0 7.63457e-14 4.64965e-14 9.58833e-14 1.27554e-13 0 0 1.25151e-14 1.266e-13 1.09057e-13 1.06442e-13 0 0 -2.13592e-14 1.85735e-13 1.11507e-13 1.25293e-13 0 0 -4.75789e-14 1.97205e-13 1.44114e-13 9.63215e-14 0 0 -7.27203e-14 1.99238e-13 1.83286e-13 9.03845e-14 0 0 -8.22156e-14 2.0983e-13 1.92093e-13 9.32445e-14 0 0 -7.54741e-14 2.18743e-13 1.84626e-13 3.53751e-14 0 0 -5.99655e-14 2.01839e-13 1.86873e-13 2.84497e-14 0 0 2.30904e-15 1.27612e-13 1.97136e-13 1.93238e-14 0 0 1.11458e-13 5.14974e-14 2.1433e-13 -5.32833e-14 0 0 1.64009e-13 4.38473e-14 1.95226e-13 -7.82339e-14 0 0 2.03565e-13 2.58487e-14 1.78524e-13 -7.27653e-14 0 0 2.19e-13 3.81459e-14 1.51223e-13 -3.62427e-14 0 0 1.99303e-13 1.06157e-13 3.95606e-14 5.08783e-14 0 0 1.6258e-13 1.97124e-13 -1.46745e-14 3.1339e-15 0 0 1.67937e-13 1.82509e-13 4.5976e-14 -7.79469e-14 0 0 1.65166e-13 1.47108e-13 1.09537e-13 -5.97003e-14 0 0 1.65896e-13 1.34179e-13 1.03169e-13 -6.03758e-14 0 0 1.62769e-13 1.37913e-13 5.57076e-14 4.13382e-14 0 0 1.40696e-13 1.55672e-13 -5.97559e-14 1.84426e-13 0 0 1.31443e-13 1.07005e-13 -3.69477e-14 7.3164e-14 0 0 1.31587e-13 2.97908e-14 -3.01476e-14 -2.68322e-14 0 0 1.22461e-13 -3.57151e-15 -6.7056e-14 -9.90396e-14 0 0 9.25753e-14 -1.97659e-14 -9.2136e-14 -2.43161e-13 0 0 4.66524e-14 -1.53974e-14 -1.68248e-13 -2.91094e-13 0 0 -9.93885e-16 -4.92955e-14 -1.99769e-13 -3.26507e-13 0 0 -7.74354e-14 -7.88374e-14 -2.32795e-13 -2.44033e-13 0 0 -1.15007e-13 -1.66803e-13 -1.81223e-13 -1.41257e-13 0 0 -1.30323e-13 -2.94147e-13 -4.90788e-14 2.51791e-14 0 0 -1.8407e-13 -3.46558e-13 -9.43908e-14 4.22698e-13 0 0 -1.97218e-13 -4.34612e-13 -5.34541e-14 4.40631e-13 0 0 -1.72707e-13 -4.95723e-13 4.95094e-14 3.22265e-13 0 0 -1.96353e-13 -4.12725e-13 -1.00349e-13 3.88735e-13 0 0 -3.44166e-13 -1.3148e-13 -3.47142e-13 3.34494e-13 0 0 -4.419e-13 -4.9974e-14 -2.79795e-13 3.7133e-14 0 0 -3.55325e-13 -1.19621e-13 -1.78683e-13 -2.27672e-13 0 0 -2.30605e-13 -2.05249e-13 -3.23455e-13 -2.00494e-13 0 0 -3.45361e-13 -2.23353e-13 -3.8362e-13 -8.62877e-14 0 0 -4.3599e-13 -2.18705e-13 -3.78257e-13 5.92176e-14 0 0 -3.44356e-13 -2.64144e-13 -5.06677e-13 2.1524e-13 0 0 -3.0156e-13 -4.18538e-13 -2.52163e-13 -8.63546e-14 0 0 -3.56991e-13 -4.0929e-13 -5.67654e-14 -3.96399e-13 0 0 -3.6721e-13 -3.65454e-13 -1.19409e-13 -3.41658e-13 0 0 -3.60885e-13 -3.61368e-13 -1.30648e-13 -2.9968e-13 0 0 -2.68994e-13 -4.64058e-13 -1.09681e-13 -2.5093e-13 0 0 -2.45633e-13 -4.32149e-13 -1.93239e-13 -1.74791e-13 0 0 -2.33413e-13 -4.01654e-13 -2.2195e-13 -1.29949e-13 0 0 -1.70353e-13 -4.31576e-13 -2.45234e-13 -1.16174e-14 0 0 -1.71866e-13 -4.1452e-13 -2.1918e-13 -5.42086e-14 0 0 -1.55676e-13 -3.98039e-13 -1.76901e-13 -1.15514e-13 0 0 -2.32374e-13 -2.41727e-13 -2.54937e-13 -5.66924e-14 0 0 -2.39149e-13 -1.80024e-13 -3.91139e-13 7.47666e-14 0 0 -1.34987e-13 -2.936e-13 -3.73778e-13 8.69957e-14 0 0 -4.90258e-14 -4.26766e-13 -1.58484e-13 -3.89993e-14 0 0 -2.0436e-14 -4.25454e-13 -8.88051e-14 -7.41308e-14 0 0 -1.56894e-13 -2.03885e-13 -1.71974e-13 -8.72901e-14 0 0 -4.72506e-14 -3.44232e-13 6.72668e-14 -2.18204e-13 0 0 8.48408e-14 -4.08342e-13 1.61715e-13 -3.06636e-13 0 0 1.29358e-13 -2.55192e-13 1.74882e-14 -3.11032e-13 0 0 1.70724e-13 -4.42e-14 -2.74283e-13 -1.55187e-13 0 0 1.85846e-13 6.79641e-15 -2.58518e-13 -1.95784e-13 0 0 2.43099e-13 -1.6418e-13 1.15449e-13 -5.18735e-13 0 0 1.43677e-13 -8.58674e-14 5.84686e-14 -5.25639e-13 0 0 1.47072e-14 3.51255e-14 -2.05792e-13 -2.19126e-13 0 0 -1.42486e-13 2.00047e-13 -3.54069e-13 -1.21199e-13 0 0 -2.35425e-13 3.47635e-13 -5.29472e-13 -6.40395e-14 0 0 -7.49594e-14 -2.62746e-14 -7.98753e-14 -3.7359e-13 0 0 8.03147e-14 -4.27757e-13 1.45088e-13 -2.92511e-13 0 0 -1.99238e-13 -7.14046e-14 -4.63835e-13 3.25792e-13 0 0 -4.7521e-13 2.67039e-13 -7.05811e-13 4.26125e-13 0
				</DataArray>
				<DataArray Name="VitesseY" type="Float32" format="ascii">