<?xml version="1.0"?>
<VTKFile type="PolyData">
	<PolyData>
		<Piece NumberOfPoints="1206" NumberOfPolys="1000">
			<Points>
				<DataArray type="Float32" NumberOfComponents="3" format="ascii">
 0 0 0 0.02 0 0 0.04 0 0 0.06 0 0 0.08 0 0 0.1 0 0 0 0.005 0 0.02 0.005 0 0.04 0.005 0 0.06 0.005 0 0.08 0.005 0 0.1 0.005 0 0 0.01 0 0.02 0.01 0 0.04 0.01 0 0.06 0.01 0 0.08 0.01 0 0.1 0.01 0 0 0.015 0 0.02 0.015 0 0.04 0.015 0 0.06 0.015 0 0.08 0.015 0 0.1 0.015 0 0 0.02 0 0.02 0.02 0 0.04 0.02 0 0.06 0.02 0 0.08 0.02 0 0.1 0.02 0 0 0.025 0 0.02 0.025 0 0.04 0.025 0 0.06 0.025 0 0.08 0.025 0 0.1 0.025 0 0 0.03 0 0.02 0.03 0 0.04 0.03 0 0.06 0.03 0 0.08 0.03 0 0.1 0.03 0 0 0.035 0 0.02 0.035 0 0.04 0.035 0 0.06 0.035 0 0.08 0.035 0 0.1 0.035 0 0 0.04 0 0.02 0.04 0 0.04 0.04 0 0.06 0.04 0 0.08 0.04 0 0.1 0.04 0 0 0.045 0 0.02 0.045 0 0.04 0.045 0 0.06 0.045 0 0.08 0.045 0 0.1 0.045 0 0 0.05 0 0.02 0.05 0 0.04 0.05 0 0.06 0.05 0 0.08 0.05 0 0.1 0.05 0 0 0.055 0 0.02 0.055 0 0.04 0.055 0 0.06 0.055 0 0.08 0.055 0 0.1 0.055 0 0 0.06 0 0.02 0.06 0 0.04 0.06 0 0.06 0.06 0 0.08 0.06 0 0.1 0.06 0 0 0.065 0 0.02 0.065 0 0.04 0.065 0 0.06 0.065 0 0.08 0.065 0 0.1 0.065 0 0 0.07 0 0.02 0.07 0 0.04 0.07 0 0.06 0.07 0 0.08 0.07 0 0.1 0.07 0 0 0.075 0 0.02 0.075 0 0.04 0.075 0 0.06 0.075 0 0.08 0.075 0 0.1 0.075 0 0 0.08 0 0.02 0.08 0 0.04 0.08 0 0.06 0.08 0 0.08 0.08 0 0.1 0.08 0 0 0.085 0 0.02 0.085 0 0.04 0.085 0 0.06 0.085 0 0.08 0.085 0 0.1 0.085 0 0 0.09 0 0.02 0.09 0 0.04 0.09 0 0.06 0.09 0 0.08 0.09 0 0.1 0.09 0 0 0.095 0 0.02 0.095 0 0.04 0.095 0 0.06 0.095 0 0.08 0.095 0 0.1 0.095 0 0 0.1 0 0.02 0.1 0 0.04 0.1 0 0.06 0.1 0 0.08 0.1 0 0.1 0.1 0 0 0.105 0 0.02 0.105 0 0.04 0.105 0 0.06 0.105 0 0.08 0.105 0 0.1 0.105 0 0 0.11 0 0.02 0.11 0 0.04 0.11 0 0.06 0.11 0 0.08 0.11 0 0.1 0.11 0 0 0.115 0 0.02 0.115 0 0.04 0.115 0 0.06 0.115 0 0.08 0.115 0 0.1 0.115 0 0 0.12 0 0.02 0.12 0 0.04 0.12 0 0.06 0.12 0 0.08 0.12 0 0.1 0.12 0 0 0.125 0 0.02 0.125 0 0.04 0.125 0 0.06 0.125 0 0.08 0.125 0 0.1 0.125 0 0 0.13 0 0.02 0.13 0 0.04 0.13 0 0.06 0.13 0 0.08 0.13 0 0.1 0.13 0 0 0.135 0 0.02 0.135 0 0.04 0.135 0 0.06 0.135 0 0.08 0.135 0 0.1 0.135 0 0 0.14 0 0.02 0.14 0 0.04 0.14 0 0.06 0.14 0 0.08 0.14 0 0.1 0.14 0 0 0.145 0 0.02 0.145 0 0.04 0.145 0 0.06 0.145 0 0.08 0.145 0 0.1 0.145 0 0 0.15 0 0.02 0.15 0 0.04 0.15 0 0.06 0.15 0 0.08 0.15 0 0.1 0.15 0 0 0.155 0 0.02 0.155 0 0.04 0.155 0 0.06 0.155 0 0.08 0.155 0 0.1 0.155 0 0 0.16 0 0.02 0.16 0 0.04 0.16 0 0.06 0.16 0 0.08 0.16 0 0.1 0.16 0 0 0.165 0 0.02 0.165 0 0.04 0.165 0 0.06 0.165 0 0.08 0.165 0 0.1 0.165 0 0 0.17 0 0.02 0.17 0 0.04 0.17 0 0.06 0.17 0 0.08 0.17 0 0.1 0.17 0 0 0.175 0 0.02 0.175 0 0.04 0.175 0 0.06 0.175 0 0.08 0.175 0 0.1 0.175 0 0 0.18 0 0.02 0.18 0 0.04 0.18 0 0.06 0.18 0 0.08 0.18 0 0.1 0.18 0 0 0.185 0 0.02 0.185 0 0.04 0.185 0 0.06 0.185 0 0.08 0.185 0 0.1 0.185 0 0 0.19 0 0.02 0.19 0 0.04 0.19 0 0.06 0.19 0 0.08 0.19 0 0.1 0.19 0 0 0.195 0 0.02 0.195 0 0.04 0.195 0 0.06 0.195 0 0.08 0.195 0 0.1 0.195 0 0 0.2 0 0.02 0.2 0 0.04 0.2 0 0.06 0.2 0 0.08 0.2 0 0.1 0.2 0 0 0.205 0 0.02 0.205 0 0.04 0.205 0 0.06 0.205 0 0.08 0.205 0 0.1 0.205 0 0 0.21 0 0.02 0.21 0 0.04 0.21 0 0.06 0.21 0 0.08 0.21 0 0.1 0.21 0 0 0.215 0 0.02 0.215 0 0.04 0.215 0 0.06 0.215 0 0.08 0.215 0 0.1 0.215 0 0 0.22 0 0.02 0.22 0 0.04 0.22 0 0.06 0.22 0 0.08 0.22 0 0.1 0.22 0 0 0.225 0 0.02 0.225 0 0.04 0.225 0 0.06 0.225 0 0.08 0.225 0 0.1 0.225 0 0 0.23 0 0.02 0.23 0 0.04 0.23 0 0.06 0.23 0 0.08 0.23 0 0.1 0.23 0 0 0.235 0 0.02 0.235 0 0.04 0.235 0 0.06 0.235 0 0.08 0.235 0 0.1 0.235 0 0 0.24 0 0.02 0.24 0 0.04 0.24 0 0.06 0.24 0 0.08 0.24 0 0.1 0.24 0 0 0.245 0 0.02 0.245 0 0.04 0.245 0 0.06 0.245 0 0.08 0.245 0 0.1 0.245 0 0 0.25 0 0.02 0.25 0 0.04 0.25 0 0.06 0.25 0 0.08 0.25 0 0.1 0.25 0 0 0.255 0 0.02 0.255 0 0.04 0.255 0 0.06 0.255 0 0.08 0.255 0 0.1 0.255 0 0 0.26 0 0.02 0.26 0 0.04 0.26 0 0.06 0.26 0 0.08 0.26 0 0.1 0.26 0 0 0.265 0 0.02 0.265 0 0.04 0.265 0 0.06 0.265 0 0.08 0.265 0 0.1 0.265 0 0 0.27 0 0.02 0.27 0 0.04 0.27 0 0.06 0.27 0 0.08 0.27 0 0.1 0.27 0 0 0.275 0 0.02 0.275 0 0.04 0.275 0 0.06 0.275 0 0.08 0.275 0 0.1 0.275 0 0 0.28 0 0.02 0.28 0 0.04 0.28 0 0.06 0.28 0 0.08 0.28 0 0.1 0.28 0 0 0.285 0 0.02 0.285 0 0.04 0.285 0 0.06 0.285 0 0.08 0.285 0 0.1 0.285 0 0 0.29 0 0.02 0.29 0 0.04 0.29 0 0.06 0.29 0 0.08 0.29 0 0.1 0.29 0 0 0.295 0 0.02 0.295 0 0.04 0.295 0 0.06 0.295 0 0.08 0.295 0 0.1 0.295 0 0 0.3 0 0.02 0.3 0 0.04 0.3 0 0.06 0.3 0 0.08 0.3 0 0.1 0.3 0 0 0.305 0 0.02 0.305 0 0.04 0.305 0 0.06 0.305 0 0.08 0.305 0 0.1 0.305 0 0 0.31 0 0.02 0.31 0 0.04 0.31 0 0.06 0.31 0 0.08 0.31 0 0.1 0.31 0 0 0.315 0 0.02 0.315 0 0.04 0.315 0 0.06 0.315 0 0.08 0.315 0 0.1 0.315 0 0 0.32 0 0.02 0.32 0 0.04 0.32 0 0.06 0.32 0 0.08 0.32 0 0.1 0.32 0 0 0.325 0 0.02 0.325 0 0.04 0.325 0 0.06 0.325 0 0.08 0.325 0 0.1 0.325 0 0 0.33 0 0.02 0.33 0 0.04 0.33 0 0.06 0.33 0 0.08 0.33 0 0.1 0.33 0 0 0.335 0 0.02 0.335 0 0.04 0.335 0 0.06 0.335 0 0.08 0.335 0 0.1 0.335 0 0 0.34 0 0.02 0.34 0 0.04 0.34 0 0.06 0.34 0 0.08 0.34 0 0.1 0.34 0 0 0.345 0 0.02 0.345 0 0.04 0.345 0 0.06 0.345 0 0.08 0.345 0 0.1 0.345 0 0 0.35 0 0.02 0.35 0 0.04 0.35 0 0.06 0.35 0 0.08 0.35 0 0.1 0.35 0 0 0.355 0 0.02 0.355 0 0.04 0.355 0 0.06 0.355 0 0.08 0.355 0 0.1 0.355 0 0 0.36 0 0.02 0.36 0 0.04 0.36 0 0.06 0.36 0 0.08 0.36 0 0.1 0.36 0 0 0.365 0 0.02 0.365 0 0.04 0.365 0 0.06 0.365 0 0.08 0.365 0 0.1 0.365 0 0 0.37 0 0.02 0.37 0 0.04 0.37 0 0.06 0.37 0 0.08 0.37 0 0.1 0.37 0 0 0.375 0 0.02 0.375 0 0.04 0.375 0 0.06 0.375 0 0.08 0.375 0 0.1 0.375 0 0 0.38 0 0.02 0.38 0 0.04 0.38 0 0.06 0.38 0 0.08 0.38 0 0.1 0.38 0 0 0.385 0 0.02 0.385 0 0.04 0.385 0 0.06 0.385 0 0.08 0.385 0 0.1 0.385 0 0 0.39 0 0.02 0.39 0 0.04 0.39 0 0.06 0.39 0 0.08 0.39 0 0.1 0.39 0 0 0.395 0 0.02 0.395 0 0.04 0.395 0 0.06 0.395 0 0.08 0.395 0 0.1 0.395 0 0 0.4 0 0.02 0.4 0 0.04 0.4 0 0.06 0.4 0 0.08 0.4 0 0.1 0.4 0 0 0.405 0 0.02 0.405 0 0.04 0.405 0 0.06 0.405 0 0.08 0.405 0 0.1 0.405 0 0 0.41 0 0.02 0.41 0 0.04 0.41 0 0.06 0.41 0 0.08 0.41 0 0.1 0.41 0 0 0.415 0 0.02 0.415 0 0.04 0.415 0 0.06 0.415 0 0.08 0.415 0 0.1 0.415 0 0 0.42 0 0.02 0.42 0 0.04 0.42 0 0.06 0.42 0 0.08 0.42 0 0.1 0.42 0 0 0.425 0 0.02 0.425 0 0.04 0.425 0 0.06 0.425 0 0.08 0.425 0 0.1 0.425 0 0 0.43 0 0.02 0.43 0 0.04 0.43 0 0.06 0.43 0 0.08 0.43 0 0.1 0.43 0 0 0.435 0 0.02 0.435 0 0.04 0.435 0 0.06 0.435 0 0.08 0.435 0 0.1 0.435 0 0 0.44 0 0.02 0.44 0 0.04 0.44 0 0.06 0.44 0 0.08 0.44 0 0.1 0.44 0 0 0.445 0 0.02 0.445 0 0.04 0.445 0 0.06 0.445 0 0.08 0.445 0 0.1 0.445 0 0 0.45 0 0.02 0.45 0 0.04 0.45 0 0.06 0.45 0 0.08 0.45 0 0.1 0.45 0 0 0.455 0 0.02 0.455 0 0.04 0.455 0 0.06 0.455 0 0.08 0.455 0 0.1 0.455 0 0 0.46 0 0.02 0.46 0 0.04 0.46 0 0.06 0.46 0 0.08 0.46 0 0.1 0.46 0 0 0.465 0 0.02 0.465 0 0.04 0.465 0 0.06 0.465 0 0.08 0.465 0 0.1 0.465 0 0 0.47 0 0.02 0.47 0 0.04 0.47 0 0.06 0.47 0 0.08 0.47 0 0.1 0.47 0 0 0.475 0 0.02 0.475 0 0.04 0.475 0 0.06 0.475 0 0.08 0.475 0 0.1 0.475 0 0 0.48 0 0.02 0.48 0 0.04 0.48 0 0.06 0.48 0 0.08 0.48 0 0.1 0.48 0 0 0.485 0 0.02 0.485 0 0.04 0.485 0 0.06 0.485 0 0.08 0.485 0 0.1 0.485 0 0 0.49 0 0.02 0.49 0 0.04 0.49 0 0.06 0.49 0 0.08 0.49 0 0.1 0.49 0 0 0.495 0 0.02 0.495 0 0.04 0.495 0 0.06 0.495 0 0.08 0.495 0 0.1 0.495 0 0 0.5 0 0.02 0.5 0 0.04 0.5 0 0.06 0.5 0 0.08 0.5 0 0.1 0.5 0 0 0.505 0 0.02 0.505 0 0.04 0.505 0 0.06 0.505 0 0.08 0.505 0 0.1 0.505 0 0 0.51 0 0.02 0.51 0 0.04 0.51 0 0.06 0.51 0 0.08 0.51 0 0.1 0.51 0 0 0.515 0 0.02 0.515 0 0.04 0.515 0 0.06 0.515 0 0.08 0.515 0 0.1 0.515 0 0 0.52 0 0.02 0.52 0 0.04 0.52 0 0.06 0.52 0 0.08 0.52 0 0.1 0.52 0 0 0.525 0 0.02 0.525 0 0.04 0.525 0 0.06 0.525 0 0.08 0.525 0 0.1 0.525 0 0 0.53 0 0.02 0.53 0 0.04 0.53 0 0.06 0.53 0 0.08 0.53 0 0.1 0.53 0 0 0.535 0 0.02 0.535 0 0.04 0.535 0 0.06 0.535 0 0.08 0.535 0 0.1 0.535 0 0 0.54 0 0.02 0.54 0 0.04 0.54 0 0.06 0.54 0 0.08 0.54 0 0.1 0.54 0 0 0.545 0 0.02 0.545 0 0.04 0.545 0 0.06 0.545 0 0.08 0.545 0 0.1 0.545 0 0 0.55 0 0.02 0.55 0 0.04 0.55 0 0.06 0.55 0 0.08 0.55 0 0.1 0.55 0 0 0.555 0 0.02 0.555 0 0.04 0.555 0 0.06 0.555 0 0.08 0.555 0 0.1 0.555 0 0 0.56 0 0.02 0.56 0 0.04 0.56 0 0.06 0.56 0 0.08 0.56 0 0.1 0.56 0 0 0.565 0 0.02 0.565 0 0.04 0.565 0 0.06 0.565 0 0.08 0.565 0 0.1 0.565 0 0 0.57 0 0.02 0.57 0 0.04 0.57 0 0.06 0.57 0 0.08 0.57 0 0.1 0.57 0 0 0.575 0 0.02 0.575 0 0.04 0.575 0 0.06 0.575 0 0.08 0.575 0 0.1 0.575 0 0 0.58 0 0.02 0.58 0 0.04 0.58 0 0.06 0.58 0 0.08 0.58 0 0.1 0.58 0 0 0.585 0 0.02 0.585 0 0.04 0.585 0 0.06 0.585 0 0.08 0.585 0 0.1 0.585 0 0 0.59 0 0.02 0.59 0 0.04 0.59 0 0.06 0.59 0 0.08 0.59 0 0.1 0.59 0 0 0.595 0 0.02 0.595 0 0.04 0.595 0 0.06 0.595 0 0.08 0.595 0 0.1 0.595 0 0 0.6 0 0.02 0.6 0 0.04 0.6 0 0.06 0.6 0 0.08 0.6 0 0.1 0.6 0 0 0.605 0 0.02 0.605 0 0.04 0.605 0 0.06 0.605 0 0.08 0.605 0 0.1 0.605 0 0 0.61 0 0.02 0.61 0 0.04 0.61 0 0.06 0.61 0 0.08 0.61 0 0.1 0.61 0 0 0.615 0 0.02 0.615 0 0.04 0.615 0 0.06 0.615 0 0.08 0.615 0 0.1 0.615 0 0 0.62 0 0.02 0.62 0 0.04 0.62 0 0.06 0.62 0 0.08 0.62 0 0.1 0.62 0 0 0.625 0 0.02 0.625 0 0.04 0.625 0 0.06 0.625 0 0.08 0.625 0 0.1 0.625 0 0 0.63 0 0.02 0.63 0 0.04 0.63 0 0.06 0.63 0 0.08 0.63 0 0.1 0.63 0 0 0.635 0 0.02 0.635 0 0.04 0.635 0 0.06 0.635 0 0.08 0.635 0 0.1 0.635 0 0 0.64 0 0.02 0.64 0 0.04 0.64 0 0.06 0.64 0 0.08 0.64 0 0.1 0.64 0 0 0.645 0 0.02 0.645 0 0.04 0.645 0 0.06 0.645 0 0.08 0.645 0 0.1 0.645 0 0 0.65 0 0.02 0.65 0 0.04 0.65 0 0.06 0.65 0 0.08 0.65 0 0.1 0.65 0 0 0.655 0 0.02 0.655 0 0.04 0.655 0 0.06 0.655 0 0.08 0.655 0 0.1 0.655 0 0 0.66 0 0.02 0.66 0 0.04 0.66 0 0.06 0.66 0 0.08 0.66 0 0.1 0.66 0 0 0.665 0 0.02 0.665 0 0.04 0.665 0 0.06 0.665 0 0.08 0.665 0 0.1 0.665 0 0 0.67 0 0.02 0.67 0 0.04 0.67 0 0.06 0.67 0 0.08 0.67 0 0.1 0.67 0 0 0.675 0 0.02 0.675 0 0.04 0.675 0 0.06 0.675 0 0.08 0.675 0 0.1 0.675 0 0 0.68 0 0.02 0.68 0 0.04 0.68 0 0.06 0.68 0 0.08 0.68 0 0.1 0.68 0 0 0.685 0 0.02 0.685 0 0.04 0.685 0 0.06 0.685 0 0.08 0.685 0 0.1 0.685 0 0 0.69 0 0.02 0.69 0 0.04 0.69 0 0.06 0.69 0 0.08 0.69 0 0.1 
[...]
			<PointData Scalars="VitesseX">
				<DataArray Name="VitesseX" type="Float32" format="ascii">
 0 1.19031e-14 -5.54121e-15 4.32113e-14 1.85014e-14 0 0 1.36622e-14 -5.30995e-15 4.79291e-14 1.84252e-14 0 0 5.9747e-15 1.54699e-14 4.10872e-14 2.74366e-14 0 0 1.35037e-14 2.32966e-14 4.63025e-14 2.43434e-14 0 0 7.32665e-15 5.34761e-14 3.18396e-14 2.98564e-14 0 0 1.58949e-14 5.03454e-14 5.19354e-14 1.62924e-14 0 0 2.89809e-14 5.65779e-14 4.57978e-14 1.79388e-14 0 0 4.88102e-14 4.86551e-14 6.62621e-14 -1.43532e-15 0 0 7.97191e-14 2.66828e-14 9.03797e-14 -1.96932e-14 0 0 6.92646e-14 7.56464e-14 3.22948e-14 1.35145e-14 0 0 5.89457e-14 1.02841e-13 9.93981e-15 1.64978e-14 0 0 4.5521e-14 1.40482e-13 -3.71543e-14 3.74676e-14 0 0 7.08779e-14 9.71295e-14 4.01125e-15 1.20089e-14 0 0 1.06966e-13 3.752e-14 5.14349e-14 -1.9181e-14 0 0 1.2598e-13 5.15804e-15 4.60229e-14 -8.84096e-15 0 0 1.12699e-13 1.51021e-14 3.5636e-14 -9.48427e-15 0 0 9.52782e-14 5.36238e-14 2.15298e-15 1.59316e-14 0 0 6.62821e-14 9.1398e-14 -2.56051e-14 5.94676e-14 0 0 4.23046e-14 7.54454e-14 4.54664e-14 4.0571e-14 0 0 4.94412e-14 2.25438e-14 1.08856e-13 3.40887e-14 0 0 7.18366e-14 -8.94929e-15 1.15495e-13 4.79257e-14 0 0 7.52983e-14 -1.56589e-14 1.0393e-13 6.22003e-14 0 0 6.61231e-14 -1.56906e-14 7.47576e-14 1.12963e-13 0 0 2.10952e-14 5.86571e-14 1.93093e-15 1.73937e-13 0 0 5.02328e-14 3.05051e-14 6.33724e-14 1.11071e-13 0 0 9.44512e-14 -1.71664e-14 1.5518e-13 2.96869e-14 0 0 3.22745e-14 8.19051e-14 7.48389e-14 1.03425e-13 0 0 -1.58483e-14 1.25376e-13 6.98155e-14 1.10747e-13 0 0 -4.27249e-15 9.61788e-14 1.06666e-13 5.51981e-14 0 0 8.33877e-14 -4.32812e-14 1.91722e-13 6.17228e-15 0 0 7.62301e-14 -2.45513e-14 1.35854e-13 2.76734e-14 0 0 3.09712e-14 5.22201e-14 4.61305e-14 3.29232e-14 0 0 2.32745e-14 6.71308e-14 2.96486e-14 -4.36643e-14 0 0 -1.15562e-14 1.66076e-13 -1.33624e-13 3.71218e-14 0 0 1.08035e-13 1.43695e-14 -2.46021e-14 -8.75371e-15 0 0 1.9259e-13 -9.05782e-14 7.96657e-14 -6.45722e-14 0 0 1.46394e-13 5.535e-15 -1.73028e-14 -1.12891e-14 0 0 1.36861e-13 2.90404e-14 -4.3402e-14 3.39757e-14 0 0 1.47864e-13 -1.05424e-14 5.22816e-14 -3.43744e-14 0 0 9.70381e-14 5.64453e-14 7.3817e-14 -9.17732e-14 0 0 9.3496e-14 8.99857e-14 -6.91668e-15 3.07928e-14 0 0 1.19899e-13 3.75081e-14 5.42941e-14 2.81137e-14 0 0 1.52512e-13 1.43252e-14 1.89776e-13 -1.10248e-13 0 0 1.15708e-13 1.65697e-13 5.3609e-14 -7.30783e-14 0 0 1.41789e-13 1.29031e-13 5.09028e-14 -3.57098e-14 0 0 1.88454e-13 -4.81402e-15 1.66641e-13 -6.50235e-14 0 0 1.01494e-13 1.07024e-13 -3.31291e-14 1.57803e-13 0 0 1.33487e-13 3.3439e-14 -1.14485e-13 3.8146e-13 0 0 1.78124e-13 -1.12821e-13 -1.53351e-14 3.77425e-13 0 0 2.3954e-13 -3.12032e-13 2.4212e-13 1.65495e-13 0 0 2.38868e-13 -3.65197e-13 3.21168e-13 4.31837e-14 0 0 1.26035e-13 -1.17476e-13 3.99524e-14 1.55416e-13 0 0 -3.75851e-15 2.14155e-13 -2.58512e-13 2.49454e-13 0 0 8.04177e-14 1.31744e-13 -1.06745e-13 1.07824e-13 0 0 2.17424e-13 -9.9768e-14 2.06307e-13 -8.67861e-14 0 0 2.1632e-13 -6.48828e-14 1.96744e-13 -6.93861e-14 0 0 2.64843e-13 -6.47946e-14 1.19948e-13 3.23533e-14 0 0 3.79481e-13 -1.20919e-13 1.31547e-13 7.48525e-15 0 0 3.36291e-13 5.71279e-14 -4.67252e-15 1.13978e-14 0 0 2.69683e-13 1.4348e-13 -3.86718e-14 3.88681e-14 0 0 3.33182e-13 4.43833e-14 9.16868e-14 -5.09432e-14 0 0 3.73986e-13 9.35007e-14 9.44306e-14 -1.10976e-13 0 0 3.96001e-13 2.09952e-13 5.0496e-14 -1.49943e-13 0 0 4.0263e-13 3.28283e-13 -5.25512e-14 -8.50456e-14 0 0 4.69652e-13 1.236e-13 1.03326e-13 -5.68317e-14 0 0 3.58027e-13 1.07955e-13 9.66961e-14 4.40828e-14 0 0 2.67856e-13 2.59913e-13 -6.81961e-14 2.04948e-13 0 0 4.10108e-13 1.12326e-13 5.25349e-14 1.99481e-13 0 0 3.55912e-13 8.50798e-14 1.85709e-13 2.08718e-13 0 0 1.03929e-13 1.71786e-13 3.17594e-13 2.41806e-13 0 0 -2.0047e-13 4.01677e-13 1.72819e-13 4.41109e-13 0 0 -2.30383e-13 3.17571e-13 3.13768e-13 3.69851e-13 0 0 -1.31907e-13 1.94147e-13 3.43169e-13 3.74224e-13 0 0 -4.63646e-14 1.9912e-13 2.16987e-13 5.20201e-13 0 0 -8.3251e-14 2.90886e-13 3.23336e-13 4.17795e-13 0 0 -2.63137e-13 5.05447e-13 2.28936e-13 4.93476e-13 0 0 -1.32332e-13 3.44311e-13 3.0405e-13 5.15084e-13 0 0 9.4131e-14 6.84832e-14 6.66436e-13 1.66217e-13 0 0 -7.34418e-14 3.00069e-13 6.24995e-13 -3.31294e-14 0 0 -3.35625e-13 8.30832e-13 1.10783e-13 1.74503e-13 0 0 -5.48693e-14 6.1668e-13 1.36071e-13 1.24471e-13 0 0 4.00651e-13 1.29449e-13 4.4572e-13 -1.37286e-13 0 0 3.7134e-13 1.81159e-13 4.20656e-13 -1.92267e-13 0 0 2.22012e-13 3.0477e-13 3.76075e-13 -1.92762e-13 0 0 1.79273e-13 4.38095e-13 4.8032e-14 1.5935e-13 0 0 1.19777e-13 4.64058e-13 2.76728e-14 2.25403e-13 0 0 1.2448e-13 2.58748e-13 3.60593e-13 3.25447e-15 0 0 1.17434e-13 2.47096e-14 8.78549e-13 -4.90635e-13 0 0 -9.28558e-14 1.81657e-13 7.81616e-13 -4.55649e-13 0 0 -3.54779e-13 6.38659e-13 4.00083e-13 -2.8263e-13 0 0 -2.6855e-13 7.06733e-13 4.91326e-14 -4.85899e-14 0 0 1.73828e-13 4.20511e-13 -2.69681e-14 1.73627e-13 0 0 8.01288e-13 -1.47465e-13 1.70268e-15 3.10635e-13 0 0 1.02138e-12 -3.93272e-13 5.6419e-14 3.76399e-13 0 0 9.33117e-13 -3.15984e-13 4.49421e-14 3.94122e-13 0 0 6.99406e-13 -3.97162e-14 -8.51491e-14 4.19886e-13 0 0 3.69055e-13 3.71176e-13 -2.30011e-13 4.59647e-13 0 0 -4.68505e-14 6.32496e-13 -1.83287e-13 3.77766e-13 0 0 -1.81439e-13 7.47919e-13 4.70939e-14 5.82773e-14 0 0 -1.29192e-13 7.76778e-13 9.42383e-14 -9.90377e-14 0 0 -2.29647e-14 7.47161e-13 4.54045e-14 -5.03025e-14 0 0 1.12312e-13 6.00794e-13 -6.45913e-14 2.09843e-13 0 0 2.97146e-13 3.27058e-13 1.62583e-14 3.56659e-13 0 0 3.28815e-13 1.90158e-13 2.61187e-13 2.7978e-13 0 0 2.42742e-13 2.74759e-13 4.79447e-13 1.23526e-13 0 0 1.94814e-14 5.43393e-13 5.90192e-13 -1.57914e-13 0 0 -1.21007e-13 7.08199e-13 6.15913e-13 -4.07745e-13 0 0 -1.24886e-13 7.43722e-13 5.25689e-13 -3.68959e-13 0 0 -3.30026e-14 7.07512e-13 4.14276e-13 -3.23327e-13 0 0 1.48014e-13 6.27492e-13 3.68565e-13 -3.01695e-13 0 0 2.83427e-13 5.55324e-13 2.77571e-13 -2.05511e-13 0 0 3.63588e-13 4.73114e-13 2.50122e-13 -1.1806e-13 0 0 3.87345e-13 4.00385e-13 2.67073e-13 -7.78278e-14 0 0 3.43765e-13 3.88079e-13 2.8006e-13 3.35924e-15 0 0 2.25645e-13 4.38308e-13 3.06766e-13 -1.12703e-14 0 0 7.69402e-14 4.84467e-13 3.74524e-13 -5.16881e-14 0 0 -1.87766e-14 5.12742e-13 3.67638e-13 1.28454e-15 0 0 -3.77522e-14 4.99053e-13 3.4974e-13 7.07633e-14 0 0 -1.60331e-14 4.42217e-13 3.21488e-13 1.59352e-13 0 0 3.86795e-14 3.75106e-13 2.63443e-13 2.83962e-13 0 0 1.07248e-13 2.71734e-13 2.66857e-13 3.30157e-13 0 0 1.19707e-13 1.85388e-13 3.38768e-13 3.12486e-13 0 0 9.02654e-14 1.62524e-13 4.08586e-13 2.72971e-13 0 0 3.05929e-14 1.63327e-13 4.30868e-13 2.55009e-13 0 0 1.14957e-14 1.59257e-13 4.0683e-13 2.78225e-13 0 0 1.61332e-14 1.15347e-13 3.72268e-13 3.35692e-13 0 0 -1.91907e-15 1.33327e-13 3.05613e-13 3.84572e-13 0 0 -1.51702e-14 1.80334e-13 2.95711e-13 3.74521e-13 0 0 -2.50943e-16 2.04151e-13 3.05294e-13 3.16698e-13 0 0 2.7403e-14 2.46788e-13 2.81873e-13 2.11982e-13 0 0 1.31738e-13 2.60424e-13 2.29629e-13 2.08105e-13 0 0 2.09872e-13 2.81343e-13 1.62668e-13 2.61363e-13 0 0 2.50585e-13 2.98153e-13 2.16636e-13 2.28345e-13 0 0 2.71253e-13 3.19464e-13 2.25203e-13 2.21973e-13 0 0 2.44966e-13 4.2216e-13 1.90175e-13 1.9305e-13 0 0 2.40117e-13 4.36798e-13 2.52726e-13 1.18737e-13 0 0 2.82509e-13 3.86358e-13 3.10321e-13 1.21787e-13 0 0 2.72703e-13 4.16391e-13 2.62097e-13 1.20057e-13 0 0 2.10268e-13 4.43819e-13 2.5993e-13 7.01862e-14 0 0 1.89277e-13 3.79798e-13 3.63269e-13 9.8719e-14 0 0 2.02933e-13 3.34946e-13 4.29046e-13 1.28198e-13 0 0 2.70768e-13 3.50776e-13 3.29632e-13 1.54767e-13 0 0 3.46926e-13 3.31912e-13 2.6575e-13 2.47572e-13 0 0 3.2066e-13 2.99861e-13 3.68806e-13 3.09829e-13 0 0 2.64777e-13 3.4876e-13 4.35255e-13 2.97157e-13 0 0 3.08563e-13 3.14036e-13 4.22539e-13 3.41245e-13 0 0 2.96631e-13 3.45103e-13 3.6378e-13 4.21909e-13 0 0 2.78143e-13 3.8809e-13 3.51949e-13 4.32891e-13 0 0 3.29996e-13 3.09194e-13 4.40475e-13 4.20631e-13 0 0 2.98404e-13 3.70647e-13 4.26076e-13 4.57485e-13 0 0 3.66637e-13 2.85435e-13 5.37013e-13 4.13993e-13 0 0 3.71584e-13 3.14591e-13 5.17334e-13 4.52524e-13 0 0 3.42548e-13 4.06639e-13 4.59192e-13 4.84552e-13 0 0 2.94864e-13 5.27028e-13 4.16824e-13 5.00202e-13 0 0 2.9169e-13 6.14628e-13 3.72001e-13 5.11628e-13 0 0 3.56409e-13 5.53694e-13 4.83472e-13 4.7015e-13 0 0 3.0708e-13 7.18547e-13 3.31835e-13 6.077e-13 0 0 4.22088e-13 6.34144e-13 4.22377e-13 4.43251e-13 0 0 5.28117e-13 5.3682e-13 5.61864e-13 2.28093e-13 0 0 5.94493e-13 4.83515e-13 6.76555e-13 3.92888e-14 0 0 5.62899e-13 5.35276e-13 6.7841e-13 -5.53931e-17 0 0 4.65984e-13 7.82695e-13 3.76113e-13 3.14091e-13 0 0 5.75777e-13 7.70999e-13 2.58237e-13 5.08812e-13 0 0 6.45345e-13 7.10958e-13 2.64761e-13 5.01483e-13 0 0 6.76976e-13 6.18838e-13 4.225e-13 3.28089e-13 0 0 7.55286e-13 5.32873e-13 5.87749e-13 1.61573e-13 0 0 6.96354e-13 6.45548e-13 6.07773e-13 8.35816e-15 0 0 3.74681e-13 9.98409e-13 4.73328e-13 3.48491e-14 0 0 2.72176e-13 1.00505e-12 4.75656e-13 2.17056e-13 0 0 5.78732e-13 5.45476e-13 7.31559e-13 2.34496e-13 0 0 7.17872e-13 4.65824e-13 6.21625e-13 4.32049e-13 0 0 7.06412e-13 5.32881e-13 4.95223e-13 5.83691e-13 0 0 6.58771e-13 5.52699e-13 5.42845e-13 5.20705e-13 0 0 4.7949e-13 7.16655e-13 5.29063e-13 4.23351e-13 0 0 4.31974e-13 8.53907e-13 4.10762e-13 4.47262e-13 0 0 8.23099e-13 3.87848e-13 8.69606e-13 1.14348e-13 0 0 8.44413e-13 5.19219e-13 6.32105e-13 2.4983e-13 0 0 7.64968e-13 6.16952e-13 4.05794e-13 5.05751e-13 0 0 6.48683e-13 5.23142e-13 4.76194e-13 5.37246e-13 0 0 4.1313e-13 7.69625e-13 1.78094e-13 7.50282e-13 0 0 4.06056e-13 6.52149e-13 3.76976e-13 5.82011e-13 0 0 5.26886e-13 3.44508e-13 7.78177e-13 2.8607e-13 0 0 5.10814e-13 2.365e-13 9.84923e-13 1.53593e-13 0 0 1.95415e-13 7.23412e-13 4.12131e-13 4.3253e-13 0 0 4.97114e-13 3.89579e-13 4.59539e-13 2.62466e-13 0 0 4.9401e-13 3.64654e-13 5.07538e-13 1.8843e-15 0 0 1.53915e-13 8.57415e-13 3.0666e-13 -3.28623e-14 0 0 3.97031e-13 5.0577e-13 8.20089e-13 -3.68449e-13 0 0 2.06748e-13 8.80018e-13 3.24712e-13 5.10067e-14 0 0 9.27702e-14 1.07869e-12 7.66911e-14 2.90057e-13 0 0 4.12932e-13 4.08224e-13 9.77065e-13 -3.52555e-13 0 0 3.55564e-13 5.96456e-13 8.78099e-13 -3.91633e-13 0 0 3.45961e-13 8.23522e-13 6.63101e-13 -3.41698e-13 0 0 2.01335e-13 9.63928e-13 5.14369e-13 -2.12966e-13 0 0 2.98865e-13 6.49497e-13 6.3169e-13 -1.05032e-13 0 0 4.09029e-13 3.86056e-13 8.68109e-13 -1.53333e-13 0 0 1.49809e-13 5.8868e-13 7.40998e-13 7.90087e-14 0 0 -8.08499e-14 6.86486e-13 3.75904e-13 7.78466e-13 0 0 -1.31133e-13 6.52897e-13 3.87887e-13 9.41718e-13 0 0 1.60871e-13 7.7778e-14 1.29393e-12 1.98184e-13 0 0 3.30972e-13 -2.59763e-13 1.75498e-12 -1.45721e-13 0
				</DataArray>
				<DataArray Name="VitesseY" type="Float32" format="ascii">