<?xml version="1.0"?>
<VTKFile type="PolyData">
	<PolyData>
		<Piece NumberOfPoints="1206" NumberOfPolys="1000">
			<Points>
				<DataArray type="Float32" NumberOfComponents="3" format="ascii">
 0 0 0 0.02 0 0 0.04 0 0 0.06 0 0 0.08 0 0 0.1 0 0 0 0.005 0 0.02 0.005 0 0.04 0.005 0 0.06 0.005 0 0.08 0.005 0 0.1 0.005 0 0 0.01 0 0.02 0.01 0 0.04 0.01 0 0.06 0.01 0 0.08 0.01 0 0.1 0.01 0 0 0.015 0 0.02 0.015 0 0.04 0.015 0 0.06 0.015 0 0.08 0.015 0 0.1 0.015 0 0 0.02 0 0.02 0.02 0 0.04 0.02 0 0.06 0.02 0 0.08 0.02 0 0.1 0.02 0 0 0.025 0 0.02 0.025 0 0.04 0.025 0 0.06 0.025 0 0.08 0.025 0 0.1 0.025 0 0 0.03 0 0.02 0.03 0 0.04 0.03 0 0.06 0.03 0 0.08 0.03 0 0.1 0.03 0 0 0.035 0 0.02 0.035 0 0.04 0.035 0 0.06 0.035 0 0.08 0.035 0 0.1 0.035 0 0 0.04 0 0.02 0.04 0 0.04 0.04 0 0.06 0.04 0 0.08 0.04 0 0.1 0.04 0 0 0.045 0 0.02 0.045 0 0.04 0.045 0 0.06 0.045 0 0.08 0.045 0 0.1 0.045 0 0 0.05 0 0.02 0.05 0 0.04 0.05 0 0.06 0.05 0 0.08 0.05 0 0.1 0.05 0 0 0.055 0 0.02 0.055 0 0.04 0.055 0 0.06 0.055 0 0.08 0.055 0 0.1 0.055 0 0 0.06 0 0.02 0.06 0 0.04 0.06 0 0.06 0.06 0 0.08 0.06 0 0.1 0.06 0 0 0.065 0 0.02 0.065 0 0.04 0.065 0 0.06 0.065 0 0.08 0.065 0 0.1 0.065 0 0 0.07 0 0.02 0.07 0 0.04 0.07 0 0.06 0.07 0 0.08 0.07 0 0.1 0.07 0 0 0.075 0 0.02 0.075 0 0.04 0.075 0 0.06 0.075 0 0.08 0.075 0 0.1 0.075 0 0 0.08 0 0.02 0.08 0 0.04 0.08 0 0.06 0.08 0 0.08 0.08 0 0.1 0.08 0 0 0.085 0 0.02 0.085 0 0.04 0.085 0 0.06 0.085 0 0.08 0.085 0 0.1 0.085 0 0 0.09 0 0.02 0.09 0 0.04 0.09 0 0.06 0.09 0 0.08 0.09 0 0.1 0.09 0 0 0.095 0 0.02 0.095 0 0.04 0.095 0 0.06 0.095 0 0.08 0.095 0 0.1 0.095 0 0 0.1 0 0.02 0.1 0 0.04 0.1 0 0.06 0.1 0 0.08 0.1 0 0.1 0.1 0 0 0.105 0 0.02 0.105 0 0.04 0.105 0 0.06 0.105 0 0.08 0.105 0 0.1 0.105 0 0 0.11 0 0.02 0.11 0 0.04 0.11 0 0.06 0.11 0 0.08 0.11 0 0.1 0.11 0 0 0.115 0 0.02 0.115 0 0.04 0.115 0 0.06 0.115 0 0.08 0.115 0 0.1 0.115 0 0 0.12 0 0.02 0.12 0 0.04 0.12 0 0.06 0.12 0 0.08 0.12 0 0.1 0.12 0 0 0.125 0 0.02 0.125 0 0.04 0.125 0 0.06 0.125 0 0.08 0.125 0 0.1 0.125 0 0 0.13 0 0.02 0.13 0 0.04 0.13 0 0.06 0.13 0 0.08 0.13 0 0.1 0.13 0 0 0.135 0 0.02 0.135 0 0.04 0.135 0 0.06 0.135 0 0.08 0.135 0 0.1 0.135 0 0 0.14 0 0.02 0.14 0 0.04 0.14 0 0.06 0.14 0 0.08 0.14 0 0.1 0.14 0 0 0.145 0 0.02 0.145 0 0.04 0.145 0 0.06 0.145 0 0.08 0.145 0 0.1 0.145 0 0 0.15 0 0.02 0.15 0 0.04 0.15 0 0.06 0.15 0 0.08 0.15 0 0.1 0.15 0 0 0.155 0 0.02 0.155 0 0.04 0.155 0 0.06 0.155 0 0.08 0.155 0 0.1 0.155 0 0 0.16 0 0.02 0.16 0 0.04 0.16 0 0.06 0.16 0 0.08 0.16 0 0.1 0.16 0 0 0.165 0 0.02 0.165 0 0.04 0.165 0 0.06 0.165 0 0.08 0.165 0 0.1 0.165 0 0 0.17 0 0.02 0.17 0 0.04 0.17 0 0.06 0.17 0 0.08 0.17 0 0.1 0.17 0 0 0.175 0 0.02 0.175 0 0.04 0.175 0 0.06 0.175 0 0.08 0.175 0 0.1 0.175 0 0 0.18 0 0.02 0.18 0 0.04 0.18 0 0.06 0.18 0 0.08 0.18 0 0.1 0.18 0 0 0.185 0 0.02 0.185 0 0.04 0.185 0 0.06 0.185 0 0.08 0.185 0 0.1 0.185 0 0 0.19 0 0.02 0.19 0 0.04 0.19 0 0.06 0.19 0 0.08 0.19 0 0.1 0.19 0 0 0.195 0 0.02 0.195 0 0.04 0.195 0 0.06 0.195 0 0.08 0.195 0 0.1 0.195 0 0 0.2 0 0.02 0.2 0 0.04 0.2 0 0.06 0.2 0 0.08 0.2 0 0.1 0.2 0 0 0.205 0 0.02 0.205 0 0.04 0.205 0 0.06 0.205 0 0.08 0.205 0 0.1 0.205 0 0 0.21 0 0.02 0.21 0 0.04 0.21 0 0.06 0.21 0 0.08 0.21 0 0.1 0.21 0 0 0.215 0 0.02 0.215 0 0.04 0.215 0 0.06 0.215 0 0.08 0.215 0 0.1 0.215 0 0 0.22 0 0.02 0.22 0 0.04 0.22 0 0.06 0.22 0 0.08 0.22 0 0.1 0.22 0 0 0.225 0 0.02 0.225 0 0.04 0.225 0 0.06 0.225 0 0.08 0.225 0 0.1 0.225 0 0 0.23 0 0.02 0.23 0 0.04 0.23 0 0.06 0.23 0 0.08 0.23 0 0.1 0.23 0 0 0.235 0 0.02 0.235 0 0.04 0.235 0 0.06 0.235 0 0.08 0.235 0 0.1 0.235 0 0 0.24 0 0.02 0.24 0 0.04 0.24 0 0.06 0.24 0 0.08 0.24 0 0.1 0.24 0 0 0.245 0 0.02 0.245 0 0.04 0.245 0 0.06 0.245 0 0.08 0.245 0 0.1 0.245 0 0 0.25 0 0.02 0.25 0 0.04 0.25 0 0.06 0.25 0 0.08 0.25 0 0.1 0.25 0 0 0.255 0 0.02 0.255 0 0.04 0.255 0 0.06 0.255 0 0.08 0.255 0 0.1 0.255 0 0 0.26 0 0.02 0.26 0 0.04 0.26 0 0.06 0.26 0 0.08 0.26 0 0.1 0.26 0 0 0.265 0 0.02 0.265 0 0.04 0.265 0 0.06 0.265 0 0.08 0.265 0 0.1 0.265 0 0 0.27 0 0.02 0.27 0 0.04 0.27 0 0.06 0.27 0 0.08 0.27 0 0.1 0.27 0 0 0.275 0 0.02 0.275 0 0.04 0.275 0 0.06 0.275 0 0.08 0.275 0 0.1 0.275 0 0 0.28 0 0.02 0.28 0 0.04 0.28 0 0.06 0.28 0 0.08 0.28 0 0.1 0.28 0 0 0.285 0 0.02 0.285 0 0.04 0.285 0 0.06 0.285 0 0.08 0.285 0 0.1 0.285 0 0 0.29 0 0.02 0.29 0 0.04 0.29 0 0.06 0.29 0 0.08 0.29 0 0.1 0.29 0 0 0.295 0 0.02 0.295 0 0.04 0.295 0 0.06 0.295 0 0.08 0.295 0 0.1 0.295 0 0 0.3 0 0.02 0.3 0 0.04 0.3 0 0.06 0.3 0 0.08 0.3 0 0.1 0.3 0 0 0.305 0 0.02 0.305 0 0.04 0.305 0 0.06 0.305 0 0.08 0.305 0 0.1 0.305 0 0 0.31 0 0.02 0.31 0 0.04 0.31 0 0.06 0.31 0 0.08 0.31 0 0.1 0.31 0 0 0.315 0 0.02 0.315 0 0.04 0.315 0 0.06 0.315 0 0.08 0.315 0 0.1 0.315 0 0 0.32 0 0.02 0.32 0 0.04 0.32 0 0.06 0.32 0 0.08 0.32 0 0.1 0.32 0 0 0.325 0 0.02 0.325 0 0.04 0.325 0 0.06 0.325 0 0.08 0.325 0 0.1 0.325 0 0 0.33 0 0.02 0.33 0 0.04 0.33 0 0.06 0.33 0 0.08 0.33 0 0.1 0.33 0 0 0.335 0 0.02 0.335 0 0.04 0.335 0 0.06 0.335 0 0.08 0.335 0 0.1 0.335 0 0 0.34 0 0.02 0.34 0 0.04 0.34 0 0.06 0.34 0 0.08 0.34 0 0.1 0.34 0 0 0.345 0 0.02 0.345 0 0.04 0.345 0 0.06 0.345 0 0.08 0.345 0 0.1 0.345 0 0 0.35 0 0.02 0.35 0 0.04 0.35 0 0.06 0.35 0 0.08 0.35 0 0.1 0.35 0 0 0.355 0 0.02 0.355 0 0.04 0.355 0 0.06 0.355 0 0.08 0.355 0 0.1 0.355 0 0 0.36 0 0.02 0.36 0 0.04 0.36 0 0.06 0.36 0 0.08 0.36 0 0.1 0.36 0 0 0.365 0 0.02 0.365 0 0.04 0.365 0 0.06 0.365 0 0.08 0.365 0 0.1 0.365 0 0 0.37 0 0.02 0.37 0 0.04 0.37 0 0.06 0.37 0 0.08 0.37 0 0.1 0.37 0 0 0.375 0 0.02 0.375 0 0.04 0.375 0 0.06 0.375 0 0.08 0.375 0 0.1 0.375 0 0 0.38 0 0.02 0.38 0 0.04 0.38 0 0.06 0.38 0 0.08 0.38 0 0.1 0.38 0 0 0.385 0 0.02 0.385 0 0.04 0.385 0 0.06 0.385 0 0.08 0.385 0 0.1 0.385 0 0 0.39 0 0.02 0.39 0 0.04 0.39 0 0.06 0.39 0 0.08 0.39 0 0.1 0.39 0 0 0.395 0 0.02 0.395 0 0.04 0.395 0 0.06 0.395 0 0.08 0.395 0 0.1 0.395 0 0 0.4 0 0.02 0.4 0 0.04 0.4 0 0.06 0.4 0 0.08 0.4 0 0.1 0.4 0 0 0.405 0 0.02 0.405 0 0.04 0.405 0 0.06 0.405 0 0.08 0.405 0 0.1 0.405 0 0 0.41 0 0.02 0.41 0 0.04 0.41 0 0.06 0.41 0 0.08 0.41 0 0.1 0.41 0 0 0.415 0 0.02 0.415 0 0.04 0.415 0 0.06 0.415 0 0.08 0.415 0 0.1 0.415 0 0 0.42 0 0.02 0.42 0 0.04 0.42 0 0.06 0.42 0 0.08 0.42 0 0.1 0.42 0 0 0.425 0 0.02 0.425 0 0.04 0.425 0 0.06 0.425 0 0.08 0.425 0 0.1 0.425 0 0 0.43 0 0.02 0.43 0 0.04 0.43 0 0.06 0.43 0 0.08 0.43 0 0.1 0.43 0 0 0.435 0 0.02 0.435 0 0.04 0.435 0 0.06 0.435 0 0.08 0.435 0 0.1 0.435 0 0 0.44 0 0.02 0.44 0 0.04 0.44 0 0.06 0.44 0 0.08 0.44 0 0.1 0.44 0 0 0.445 0 0.02 0.445 0 0.04 0.445 0 0.06 0.445 0 0.08 0.445 0 0.1 0.445 0 0 0.45 0 0.02 0.45 0 0.04 0.45 0 0.06 0.45 0 0.08 0.45 0 0.1 0.45 0 0 0.455 0 0.02 0.455 0 0.04 0.455 0 0.06 0.455 0 0.08 0.455 0 0.1 0.455 0 0 0.46 0 0.02 0.46 0 0.04 0.46 0 0.06 0.46 0 0.08 0.46 0 0.1 0.46 0 0 0.465 0 0.02 0.465 0 0.04 0.465 0 0.06 0.465 0 0.08 0.465 0 0.1 0.465 0 0 0.47 0 0.02 0.47 0 0.04 0.47 0 0.06 0.47 0 0.08 0.47 0 0.1 0.47 0 0 0.475 0 0.02 0.475 0 0.04 0.475 0 0.06 0.475 0 0.08 0.475 0 0.1 0.475 0 0 0.48 0 0.02 0.48 0 0.04 0.48 0 0.06 0.48 0 0.08 0.48 0 0.1 0.48 0 0 0.485 0 0.02 0.485 0 0.04 0.485 0 0.06 0.485 0 0.08 0.485 0 0.1 0.485 0 0 0.49 0 0.02 0.49 0 0.04 0.49 0 0.06 0.49 0 0.08 0.49 0 0.1 0.49 0 0 0.495 0 0.02 0.495 0 0.04 0.495 0 0.06 0.495 0 0.08 0.495 0 0.1 0.495 0 0 0.5 0 0.02 0.5 0 0.04 0.5 0 0.06 0.5 0 0.08 0.5 0 0.1 0.5 0 0 0.505 0 0.02 0.505 0 0.04 0.505 0 0.06 0.505 0 0.08 0.505 0 0.1 0.505 0 0 0.51 0 0.02 0.51 0 0.04 0.51 0 0.06 0.51 0 0.08 0.51 0 0.1 0.51 0 0 0.515 0 0.02 0.515 0 0.04 0.515 0 0.06 0.515 0 0.08 0.515 0 0.1 0.515 0 0 0.52 0 0.02 0.52 0 0.04 0.52 0 0.06 0.52 0 0.08 0.52 0 0.1 0.52 0 0 0.525 0 0.02 0.525 0 0.04 0.525 0 0.06 0.525 0 0.08 0.525 0 0.1 0.525 0 0 0.53 0 0.02 0.53 0 0.04 0.53 0 0.06 0.53 0 0.08 0.53 0 0.1 0.53 0 0 0.535 0 0.02 0.535 0 0.04 0.535 0 0.06 0.535 0 0.08 0.535 0 0.1 0.535 0 0 0.54 0 0.02 0.54 0 0.04 0.54 0 0.06 0.54 0 0.08 0.54 0 0.1 0.54 0 0 0.545 0 0.02 0.545 0 0.04 0.545 0 0.06 0.545 0 0.08 0.545 0 0.1 0.545 0 0 0.55 0 0.02 0.55 0 0.04 0.55 0 0.06 0.55 0 0.08 0.55 0 0.1 0.55 0 0 0.555 0 0.02 0.555 0 0.04 0.555 0 0.06 0.555 0 0.08 0.555 0 0.1 0.555 0 0 0.56 0 0.02 0.56 0 0.04 0.56 0 0.06 0.56 0 0.08 0.56 0 0.1 0.56 0 0 0.565 0 0.02 0.565 0 0.04 0.565 0 0.06 0.565 0 0.08 0.565 0 0.1 0.565 0 0 0.57 0 0.02 0.57 0 0.04 0.57 0 0.06 0.57 0 0.08 0.57 0 0.1 0.57 0 0 0.575 0 0.02 0.575 0 0.04 0.575 0 0.06 0.575 0 0.08 0.575 0 0.1 0.575 0 0 0.58 0 0.02 0.58 0 0.04 0.58 0 0.06 0.58 0 0.08 0.58 0 0.1 0.58 0 0 0.585 0 0.02 0.585 0 0.04 0.585 0 0.06 0.585 0 0.08 0.585 0 0.1 0.585 0 0 0.59 0 0.02 0.59 0 0.04 0.59 0 0.06 0.59 0 0.08 0.59 0 0.1 0.59 0 0 0.595 0 0.02 0.595 0 0.04 0.595 0 0.06 0.595 0 0.08 0.595 0 0.1 0.595 0 0 0.6 0 0.02 0.6 0 0.04 0.6 0 0.06 0.6 0 0.08 0.6 0 0.1 0.6 0 0 0.605 0 0.02 0.605 0 0.04 0.605 0 0.06 0.605 0 0.08 0.605 0 0.1 0.605 0 0 0.61 0 0.02 0.61 0 0.04 0.61 0 0.06 0.61 0 0.08 0.61 0 0.1 0.61 0 0 0.615 0 0.02 0.615 0 0.04 0.615 0 0.06 0.615 0 0.08 0.615 0 0.1 0.615 0 0 0.62 0 0.02 0.62 0 0.04 0.62 0 0.06 0.62 0 0.08 0.62 0 0.1 0.62 0 0 0.625 0 0.02 0.625 0 0.04 0.625 0 0.06 0.625 0 0.08 0.625 0 0.1 0.625 0 0 0.63 0 0.02 0.63 0 0.04 0.63 0 0.06 0.63 0 0.08 0.63 0 0.1 0.63 0 0 0.635 0 0.02 0.635 0 0.04 0.635 0 0.06 0.635 0 0.08 0.635 0 0.1 0.635 0 0 0.64 0 0.02 0.64 0 0.04 0.64 0 0.06 0.64 0 0.08 0.64 0 0.1 0.64 0 0 0.645 0 0.02 0.645 0 0.04 0.645 0 0.06 0.645 0 0.08 0.645 0 0.1 0.645 0 0 0.65 0 0.02 0.65 0 0.04 0.65 0 0.06 0.65 0 0.08 0.65 0 0.1 0.65 0 0 0.655 0 0.02 0.655 0 0.04 0.655 0 0.06 0.655 0 0.08 0.655 0 0.1 0.655 0 0 0.66 0 0.02 0.66 0 0.04 0.66 0 0.06 0.66 0 0.08 0.66 0 0.1 0.66 0 0 0.665 0 0.02 0.665 0 0.04 0.665 0 0.06 0.665 0 0.08 0.665 0 0.1 0.665 0 0 0.67 0 0.02 0.67 0 0.04 0.67 0 0.06 0.67 0 0.08 0.67 0 0.1 0.67 0 0 0.675 0 0.02 0.675 0 0.04 0.675 0 0.06 0.675 0 0.08 0.675 0 0.1 0.675 0 0 0.68 0 0.02 0.68 0 0.04 0.68 0 0.06 0.68 0 0.08 0.68 0 0.1 0.68 0 0 0.685 0 0.02 0.685 0 0.04 0.685 0 0.06 0.685 0 0.08 0.685 0 0.1 0.685 0 0 0.69 0 0.02 0.69 0 0.04 0.69 0 0.06 0.69 0 0.08 0.69 0 0.1 
[...]
			<PointData Scalars="VitesseX">
				<DataArray Name="VitesseX" type="Float32" format="ascii">
 0 6.17416e-15 -1.09957e-14 3.55621e-14 9.62541e-15 0 0 9.39616e-15 -1.35617e-14 4.01793e-14 8.86956e-15 0 0 -2.5082e-15 1.56862e-14 1.50056e-14 3.18183e-14 0 0 8.84062e-15 1.14691e-14 2.63095e-14 3.26168e-14 0 0 1.2784e-14 2.13651e-14 2.96689e-14 3.52176e-14 0 0 -5.55733e-15 5.64428e-14 2.76251e-14 3.72474e-14 0 0 -5.4373e-15 6.83767e-14 3.44427e-14 3.35216e-14 0 0 2.19791e-14 4.37844e-14 7.38671e-14 4.63419e-15 0 0 5.08267e-14 1.86405e-14 1.14111e-13 -2.63725e-14 0 0 5.95977e-14 4.39192e-14 7.62588e-14 -1.38822e-15 0 0 7.4635e-14 4.9566e-14 6.1691e-14 -1.98843e-15 0 0 4.99323e-14 1.02258e-13 1.13951e-15 3.03862e-14 0 0 5.39924e-14 1.05026e-13 -3.16964e-15 3.22022e-14 0 0 9.99282e-14 4.59556e-14 4.51164e-14 -1.80661e-14 0 0 1.31653e-13 -1.49432e-14 7.51077e-14 -4.04633e-14 0 0 9.38916e-14 4.72301e-14 -1.61417e-14 1.84626e-14 0 0 6.31705e-14 1.04742e-13 -5.85212e-14 3.52652e-14 0 0 6.62761e-14 7.68212e-14 1.41819e-14 -2.31196e-15 0 0 4.52756e-14 8.08744e-14 4.58783e-14 9.60556e-15 0 0 5.29034e-14 5.49325e-14 6.51481e-14 3.11439e-14 0 0 7.18392e-14 1.70737e-14 6.97643e-14 4.75253e-14 0 0 7.413e-14 -7.58659e-15 5.21618e-14 7.61023e-14 0 0 5.37412e-14 -1.47283e-14 4.07883e-14 1.00106e-13 0 0 3.58353e-15 4.18735e-14 9.81614e-15 1.24358e-13 0 0 3.9852e-14 -2.1103e-14 9.71e-14 6.71239e-14 0 0 9.11583e-14 -1.08915e-13 2.1612e-13 -2.50035e-14 0 0 3.28218e-15 3.15375e-14 9.42089e-14 6.33218e-14 0 0 -9.26868e-14 1.86464e-13 -3.34661e-14 1.57204e-13 0 0 -3.02282e-14 1.03717e-13 5.60267e-14 7.05942e-14 0 0 6.00208e-14 -3.61834e-14 1.54078e-13 9.60855e-15 0 0 3.46845e-14 -1.2114e-14 8.26442e-14 6.33474e-14 0 0 4.14089e-14 -2.30818e-14 5.6992e-14 4.72942e-14 0 0 3.26061e-14 2.04307e-14 -1.66882e-14 1.29352e-14 0 0 2.46751e-16 1.06755e-13 -1.30291e-13 4.21256e-14 0 0 1.44964e-13 -7.57397e-14 4.71769e-14 -6.51716e-14 0 0 2.06476e-13 -1.16202e-13 7.87112e-14 -6.75638e-14 0 0 1.14205e-13 8.05544e-15 -1.64175e-14 -3.90241e-15 0 0 4.68876e-14 9.31939e-14 -7.57743e-14 2.96918e-14 0 0 1.31895e-13 -3.65884e-14 6.21162e-14 -5.46501e-14 0 0 1.05921e-13 -3.09179e-14 9.35749e-14 -7.75017e-14 0 0 2.8582e-14 8.21158e-14 -1.32689e-14 4.48865e-14 0 0 3.84827e-14 3.78475e-14 1.46066e-13 -7.20742e-14 0 0 3.11655e-14 7.36618e-14 2.29246e-13 -2.18136e-13 0 0 2.35572e-14 2.22496e-13 4.70276e-14 -1.41424e-13 0 0 1.18486e-13 1.46666e-13 5.92389e-14 -8.72644e-14 0 0 1.51395e-13 5.21696e-14 1.10006e-13 -3.79418e-15 0 0 1.4072e-13 6.10371e-15 1.17693e-13 1.14542e-13 0 0 2.09484e-13 -3.10457e-14 1.94013e-14 2.71994e-13 0 0 2.41027e-13 -6.48482e-14 -3.28664e-14 3.18069e-13 0 0 3.56051e-13 -3.75341e-13 2.32686e-13 1.65541e-13 0 0 3.67484e-13 -4.49017e-13 2.57549e-13 1.35081e-13 0 0 2.22981e-13 -1.88018e-13 4.10491e-14 1.70891e-13 0 0 6.58023e-14 1.51096e-13 -2.65598e-13 2.46887e-13 0 0 1.65167e-13 5.59296e-14 -1.08061e-13 6.10192e-14 0 0 3.45563e-13 -1.90595e-13 1.98755e-13 -1.34962e-13 0 0 2.90679e-13 -7.30375e-14 1.09657e-13 -6.23775e-14 0 0 2.88237e-13 -2.30636e-14 6.20059e-14 -4.17701e-14 0 0 4.08048e-13 -1.68423e-13 1.39186e-13 -6.42591e-14 0 0 3.12686e-13 -3.80008e-14 -1.68391e-14 4.28082e-14 0 0 2.05388e-13 1.00406e-13 -6.96065e-14 -3.2012e-15 0 0 2.79065e-13 9.201e-15 7.29443e-14 -1.38787e-13 0 0 3.20134e-13 -4.4231e-14 1.59233e-13 -2.09836e-13 0 0 2.40801e-13 1.07174e-13 7.3998e-14 -1.79902e-13 0 0 1.96612e-13 2.86533e-13 -7.9227e-14 -1.0253e-13 0 0 3.95685e-13 1.55879e-13 4.94212e-14 -1.99823e-13 0 0 4.5964e-13 1.7684e-13 5.13207e-14 -1.51753e-13 0 0 3.22763e-13 2.99384e-13 -9.21802e-14 4.15767e-14 0 0 3.96857e-13 2.209e-14 1.68808e-13 -2.69468e-14 0 0 3.96126e-13 1.33076e-14 2.10443e-13 4.43875e-15 0 0 3.50468e-13 1.80181e-13 4.75814e-14 1.75007e-13 0 0 2.46578e-13 2.70342e-13 6.37884e-14 2.86261e-13 0 0 6.10941e-14 3.13682e-13 1.83666e-13 3.83329e-13 0 0 -2.79908e-13 6.04083e-13 2.29314e-14 5.64706e-13 0 0 -1.66502e-13 3.65212e-13 2.79809e-13 3.97101e-13 0 0 -2.47952e-14 2.12014e-13 2.80488e-13 3.85924e-13 0 0 -5.0435e-14 3.32897e-13 1.70316e-13 3.6839e-13 0 0 2.26015e-14 2.08531e-13 3.93713e-13 2.29515e-13 0 0 -8.04959e-14 4.01969e-13 3.60764e-14 6.32994e-13 0 0 5.84768e-14 3.16903e-13 1.3104e-13 5.64142e-13 0 0 -2.01595e-13 7.83183e-13 -1.10914e-14 4.34835e-13 0 0 -1.34055e-13 8.16811e-13 1.7556e-13 1.18352e-13 0 0 4.30347e-13 7.74612e-14 9.86427e-13 -5.8556e-13 0 0 5.5125e-13 1.40001e-13 8.3109e-13 -4.89668e-13 0 0 3.81733e-13 5.17043e-13 8.89088e-14 1.84409e-13 0 0 4.73429e-13 5.8978e-13 -3.33397e-13 6.74806e-13 0 0 4.40666e-13 4.88391e-13 -5.29057e-14 3.84116e-13 0 0 2.5574e-13 4.49533e-13 5.12762e-13 -2.68334e-13 0 0 7.05347e-14 5.49871e-13 7.76801e-13 -7.91364e-13 0 0 -7.3515e-15 8.66269e-13 4.21214e-13 -6.01207e-13 0 0 1.3562e-13 8.60422e-13 9.8771e-14 -2.94659e-13 0 0 4.35379e-13 5.84878e-13 1.37204e-13 -1.59889e-13 0 0 5.62878e-13 4.68963e-13 8.44589e-14 4.60412e-15 0 0 6.76597e-13 4.08452e-13 -1.97931e-13 4.00681e-13 0 0 7.69018e-13 3.80038e-13 -4.46969e-13 7.99026e-13 0 0 7.19883e-13 4.28453e-13 -4.82275e-13 8.40986e-13 0 0 5.73075e-13 4.33733e-13 -2.89325e-13 6.32151e-13 0 0 4.03599e-13 3.29386e-13 2.47285e-13 8.00063e-14 0 0 3.3712e-13 2.33388e-13 5.99726e-13 -2.49878e-13 0 0 2.84396e-13 1.98774e-13 5.87058e-13 -1.82621e-13 0 0 2.16548e-13 2.57687e-13 4.09798e-13 1.23829e-13 0 0 2.03119e-13 4.84213e-13 -5.0387e-15 6.02021e-13 0 0 1.53344e-13 8.46308e-13 -3.68022e-13 7.06329e-13 0 0 2.95034e-14 1.03586e-12 -3.38688e-13 5.76922e-13 0 0 -4.20345e-14 1.03838e-12 -1.695e-13 2.5971e-13 0 0 -3.0211e-14 8.44957e-13 2.78717e-13 -2.98378e-13 0 0 1.08136e-13 4.5183e-13 7.27207e-13 -5.69936e-13 0 0 3.23839e-13 2.64589e-13 7.27113e-13 -5.25788e-13 0 0 4.30032e-13 2.23866e-13 6.3439e-13 -3.5597e-13 0 0 4.20474e-13 2.40657e-13 5.82758e-13 -3.03546e-13 0 0 2.71244e-13 3.71456e-13 4.88695e-13 -2.70854e-13 0 0 4.89027e-14 4.62892e-13 4.41002e-13 -2.06993e-13 0 0 -2.88291e-14 4.17171e-13 5.21934e-13 -2.22427e-13 0 0 -9.76571e-14 3.70223e-13 5.63483e-13 -2.06916e-13 0 0 -1.33138e-13 3.67002e-13 5.18736e-13 -1.41307e-13 0 0 -1.01427e-13 3.21068e-13 4.35683e-13 -3.22586e-15 0 0 -2.6324e-14 2.54306e-13 3.71025e-13 1.24695e-13 0 0 5.31371e-14 2.20096e-13 2.837e-13 2.43862e-13 0 0 8.63967e-14 1.99406e-13 2.42627e-13 3.3123e-13 0 0 7.8664e-14 1.60082e-13 2.98132e-13 3.05484e-13 0 0 1.35984e-14 1.38988e-13 4.00732e-13 2.38681e-13 0 0 -7.74948e-14 1.46696e-13 4.15533e-13 2.54301e-13 0 0 -1.06078e-13 1.23134e-13 4.14834e-13 2.91187e-13 0 0 -9.13497e-14 3.74215e-14 4.28344e-13 2.91657e-13 0 0 -3.57205e-14 -3.3422e-14 4.4682e-13 2.5781e-13 0 0 -2.15964e-14 -1.54151e-14 4.22324e-13 2.32413e-13 0 0 -4.08002e-14 1.35944e-13 2.60714e-13 1.95549e-13 0 0 -3.18052e-14 2.71146e-13 9.14972e-14 1.63516e-13 0 0 3.07623e-14 2.52927e-13 9.89679e-14 1.16565e-13 0 0 1.17512e-13 2.22831e-13 1.02828e-13 1.09964e-13 0 0 1.81814e-13 2.1769e-13 8.02635e-14 1.49601e-13 0 0 2.2611e-13 2.21861e-13 8.32336e-14 1.28741e-13 0 0 2.60857e-13 2.18513e-13 1.14026e-13 1.06611e-13 0 0 2.64219e-13 2.43664e-13 1.12243e-13 1.74707e-13 0 0 2.08039e-13 2.95653e-13 1.63829e-13 2.46914e-13 0 0 2.05085e-13 2.52129e-13 3.72777e-13 1.45045e-13 0 0 2.61167e-13 2.69093e-13 4.1433e-13 8.14207e-14 0 0 2.87793e-13 3.89306e-13 2.40784e-13 2.57364e-13 0 0 2.54996e-13 5.01793e-13 1.65692e-13 3.71367e-13 0 0 3.228e-13 3.78775e-13 3.98149e-13 2.15092e-13 0 0 3.8728e-13 3.25335e-13 5.55043e-13 1.60824e-13 0 0 4.10527e-13 3.84909e-13 5.02036e-13 1.44065e-13 0 0 4.02178e-13 4.66921e-13 3.31983e-13 2.36894e-13 0 0 3.4083e-13 5.41076e-13 1.9073e-13 3.81974e-13 0 0 3.75575e-13 4.8562e-13 2.25293e-13 3.34627e-13 0 0 3.81262e-13 4.23441e-13 3.2996e-13 2.14787e-13 0 0 4.38077e-13 2.6467e-13 5.18149e-13 5.77537e-14 0 0 3.72795e-13 3.75518e-13 3.29274e-13 2.455e-13 0 0 2.7797e-13 5.84673e-13 3.17531e-14 4.64216e-13 0 0 3.06164e-13 5.54515e-13 5.37797e-14 4.58584e-13 0 0 4.02238e-13 3.5369e-13 3.15551e-13 3.80537e-13 0 0 4.43704e-13 2.83686e-13 4.70238e-13 2.76109e-13 0 0 3.28591e-13 5.01232e-13 3.42026e-13 3.02463e-13 0 0 3.67697e-13 5.02028e-13 3.79359e-13 3.09846e-13 0 0 4.58879e-13 4.50754e-13 4.30541e-13 3.37221e-13 0 0 5.19688e-13 4.03061e-13 5.71495e-13 3.15036e-13 0 0 5.19758e-13 3.96066e-13 6.67308e-13 3.33526e-13 0 0 2.73327e-13 7.86373e-13 3.70638e-13 4.50375e-13 0 0 2.04809e-13 9.1069e-13 3.03753e-13 5.24879e-13 0 0 4.25158e-13 6.58786e-13 4.78423e-13 5.22855e-13 0 0 6.38943e-13 3.93354e-13 7.70598e-13 2.49162e-13 0 0 6.99325e-13 3.29984e-13 8.39349e-13 2.03798e-13 0 0 4.74904e-13 7.30227e-13 4.55958e-13 4.3811e-13 0 0 3.73353e-13 8.83701e-13 3.64238e-13 4.12057e-13 0 0 6.82191e-13 4.97859e-13 7.49826e-13 5.19174e-14 0 0 7.2667e-13 5.90269e-13 6.59275e-13 1.04211e-13 0 0 7.04997e-13 6.41263e-13 6.02926e-13 2.18747e-13 0 0 6.91714e-13 5.99336e-13 6.94276e-13 1.02347e-13 0 0 3.63364e-13 1.02647e-12 3.35426e-13 3.21185e-13 0 0 3.76826e-13 9.22589e-13 4.56685e-13 2.96297e-13 0 0 5.14923e-13 5.94121e-13 6.59635e-13 2.70925e-13 0 0 4.92094e-13 5.02777e-13 5.80732e-13 4.60611e-13 0 0 5.02931e-13 4.6384e-13 5.67844e-13 5.47854e-13 0 0 4.18019e-13 6.38681e-13 4.88423e-13 5.71796e-13 0 0 2.41058e-13 8.44217e-13 4.53049e-13 5.16079e-13 0 0 1.95817e-13 8.87956e-13 4.25629e-13 3.97251e-13 0 0 5.08837e-13 5.22592e-13 7.07553e-13 7.38307e-14 0 0 6.44704e-13 4.46291e-13 6.26748e-13 2.55804e-13 0 0 6.99363e-13 4.37736e-13 5.45503e-13 4.26948e-13 0 0 7.17123e-13 3.62869e-13 6.44467e-13 2.6934e-13 0 0 2.78703e-13 8.31072e-13 2.14124e-13 4.90336e-13 0 0 4.46263e-13 5.45123e-13 3.29032e-13 5.18178e-13 0 0 7.93794e-13 2.06331e-14 7.77067e-13 1.90105e-13 0 0 5.45815e-13 3.72056e-13 4.71316e-13 2.42206e-13 0 0 5.44348e-13 3.80262e-13 2.88905e-13 3.87096e-13 0 0 4.87602e-13 3.60996e-13 3.50386e-13 3.22872e-13 0 0 4.47988e-13 4.50259e-13 4.1871e-13 1.83843e-13 0 0 5.22092e-13 3.26057e-13 5.86242e-13 -2.08169e-14 0 0 5.33938e-13 3.25781e-13 6.26903e-13 -1.68218e-13 0 0 4.27725e-13 6.01246e-13 3.56224e-13 -8.52399e-14 0 0 2.82312e-13 8.67736e-13 6.67109e-14 7.26166e-14 0 0 4.82419e-13 4.02031e-13 8.89634e-13 -6.03082e-13 0 0 4.77942e-13 2.2093e-13 1.29227e-12 -7.76612e-13 0 0 3.29397e-13 7.34373e-13 3.71477e-13 5.36682e-14 0 0 3.61924e-13 1.05279e-12 -2.03146e-13 4.92992e-13 0 0 4.03698e-13 7.75312e-13 2.79349e-13 3.04667e-13 0 0 4.13513e-13 3.78162e-13 8.01001e-13 1.3324e-13 0 0 2.83536e-13 4.14931e-13 8.31545e-13 1.53799e-13 0 0 -9.25454e-14 8.7431e-13 4.1813e-13 3.73843e-13 0 0 -9.85919e-14 8.49941e-13 1.52328e-13 6.50734e-13 0 0 5.3872e-13 -1.61681e-13 1.02581e-12 1.44546e-13 0 0 9.62757e-13 -8.8474e-13 1.8366e-12 -4.08126e-13 0
				</DataArray>
				<DataArray Name="VitesseY" type="Float32" format="ascii">