<?xml version="1.0"?>
<VTKFile type="PolyData">
	<PolyData>
		<Piece NumberOfPoints="1206" NumberOfPolys="1000">
			<Points>
				<DataArray type="Float32" NumberOfComponents="3" format="ascii">
 0 0 0 0.02 0 0 0.04 0 0 0.06 0 0 0.08 0 0 0.1 0 0 0 0.005 0 0.02 0.005 0 0.04 0.005 0 0.06 0.005 0 0.08 0.005 0 0.1 0.005 0 0 0.01 0 0.02 0.01 0 0.04 0.01 0 0.06 0.01 0 0.08 0.01 0 0.1 0.01 0 0 0.015 0 0.02 0.015 0 0.04 0.015 0 0.06 0.015 0 0.08 0.015 0 0.1 0.015 0 0 0.02 0 0.02 0.02 0 0.04 0.02 0 0.06 0.02 0 0.08 0.02 0 0.1 0.02 0 0 0.025 0 0.02 0.025 0 0.04 0.025 0 0.06 0.025 0 0.08 0.025 0 0.1 0.025 0 0 0.03 0 0.02 0.03 0 0.04 0.03 0 0.06 0.03 0 0.08 0.03 0 0.1 0.03 0 0 0.035 0 0.02 0.035 0 0.04 0.035 0 0.06 0.035 0 0.08 0.035 0 0.1 0.035 0 0 0.04 0 0.02 0.04 0 0.04 0.04 0 0.06 0.04 0 0.08 0.04 0 0.1 0.04 0 0 0.045 0 0.02 0.045 0 0.04 0.045 0 0.06 0.045 0 0.08 0.045 0 0.1 0.045 0 0 0.05 0 0.02 0.05 0 0.04 0.05 0 0.06 0.05 0 0.08 0.05 0 0.1 0.05 0 0 0.055 0 0.02 0.055 0 0.04 0.055 0 0.06 0.055 0 0.08 0.055 0 0.1 0.055 0 0 0.06 0 0.02 0.06 0 0.04 0.06 0 0.06 0.06 0 0.08 0.06 0 0.1 0.06 0 0 0.065 0 0.02 0.065 0 0.04 0.065 0 0.06 0.065 0 0.08 0.065 0 0.1 0.065 0 0 0.07 0 0.02 0.07 0 0.04 0.07 0 0.06 0.07 0 0.08 0.07 0 0.1 0.07 0 0 0.075 0 0.02 0.075 0 0.04 0.075 0 0.06 0.075 0 0.08 0.075 0 0.1 0.075 0 0 0.08 0 0.02 0.08 0 0.04 0.08 0 0.06 0.08 0 0.08 0.08 0 0.1 0.08 0 0 0.085 0 0.02 0.085 0 0.04 0.085 0 0.06 0.085 0 0.08 0.085 0 0.1 0.085 0 0 0.09 0 0.02 0.09 0 0.04 0.09 0 0.06 0.09 0 0.08 0.09 0 0.1 0.09 0 0 0.095 0 0.02 0.095 0 0.04 0.095 0 0.06 0.095 0 0.08 0.095 0 0.1 0.095 0 0 0.1 0 0.02 0.1 0 0.04 0.1 0 0.06 0.1 0 0.08 0.1 0 0.1 0.1 0 0 0.105 0 0.02 0.105 0 0.04 0.105 0 0.06 0.105 0 0.08 0.105 0 0.1 0.105 0 0 0.11 0 0.02 0.11 0 0.04 0.11 0 0.06 0.11 0 0.08 0.11 0 0.1 0.11 0 0 0.115 0 0.02 0.115 0 0.04 0.115 0 0.06 0.115 0 0.08 0.115 0 0.1 0.115 0 0 0.12 0 0.02 0.12 0 0.04 0.12 0 0.06 0.12 0 0.08 0.12 0 0.1 0.12 0 0 0.125 0 0.02 0.125 0 0.04 0.125 0 0.06 0.125 0 0.08 0.125 0 0.1 0.125 0 0 0.13 0 0.02 0.13 0 0.04 0.13 0 0.06 0.13 0 0.08 0.13 0 0.1 0.13 0 0 0.135 0 0.02 0.135 0 0.04 0.135 0 0.06 0.135 0 0.08 0.135 0 0.1 0.135 0 0 0.14 0 0.02 0.14 0 0.04 0.14 0 0.06 0.14 0 0.08 0.14 0 0.1 0.14 0 0 0.145 0 0.02 0.145 0 0.04 0.145 0 0.06 0.145 0 0.08 0.145 0 0.1 0.145 0 0 0.15 0 0.02 0.15 0 0.04 0.15 0 0.06 0.15 0 0.08 0.15 0 0.1 0.15 0 0 0.155 0 0.02 0.155 0 0.04 0.155 0 0.06 0.155 0 0.08 0.155 0 0.1 0.155 0 0 0.16 0 0.02 0.16 0 0.04 0.16 0 0.06 0.16 0 0.08 0.16 0 0.1 0.16 0 0 0.165 0 0.02 0.165 0 0.04 0.165 0 0.06 0.165 0 0.08 0.165 0 0.1 0.165 0 0 0.17 0 0.02 0.17 0 0.04 0.17 0 0.06 0.17 0 0.08 0.17 0 0.1 0.17 0 0 0.175 0 0.02 0.175 0 0.04 0.175 0 0.06 0.175 0 0.08 0.175 0 0.1 0.175 0 0 0.18 0 0.02 0.18 0 0.04 0.18 0 0.06 0.18 0 0.08 0.18 0 0.1 0.18 0 0 0.185 0 0.02 0.185 0 0.04 0.185 0 0.06 0.185 0 0.08 0.185 0 0.1 0.185 0 0 0.19 0 0.02 0.19 0 0.04 0.19 0 0.06 0.19 0 0.08 0.19 0 0.1 0.19 0 0 0.195 0 0.02 0.195 0 0.04 0.195 0 0.06 0.195 0 0.08 0.195 0 0.1 0.195 0 0 0.2 0 0.02 0.2 0 0.04 0.2 0 0.06 0.2 0 0.08 0.2 0 0.1 0.2 0 0 0.205 0 0.02 0.205 0 0.04 0.205 0 0.06 0.205 0 0.08 0.205 0 0.1 0.205 0 0 0.21 0 0.02 0.21 0 0.04 0.21 0 0.06 0.21 0 0.08 0.21 0 0.1 0.21 0 0 0.215 0 0.02 0.215 0 0.04 0.215 0 0.06 0.215 0 0.08 0.215 0 0.1 0.215 0 0 0.22 0 0.02 0.22 0 0.04 0.22 0 0.06 0.22 0 0.08 0.22 0 0.1 0.22 0 0 0.225 0 0.02 0.225 0 0.04 0.225 0 0.06 0.225 0 0.08 0.225 0 0.1 0.225 0 0 0.23 0 0.02 0.23 0 0.04 0.23 0 0.06 0.23 0 0.08 0.23 0 0.1 0.23 0 0 0.235 0 0.02 0.235 0 0.04 0.235 0 0.06 0.235 0 0.08 0.235 0 0.1 0.235 0 0 0.24 0 0.02 0.24 0 0.04 0.24 0 0.06 0.24 0 0.08 0.24 0 0.1 0.24 0 0 0.245 0 0.02 0.245 0 0.04 0.245 0 0.06 0.245 0 0.08 0.245 0 0.1 0.245 0 0 0.25 0 0.02 0.25 0 0.04 0.25 0 0.06 0.25 0 0.08 0.25 0 0.1 0.25 0 0 0.255 0 0.02 0.255 0 0.04 0.255 0 0.06 0.255 0 0.08 0.255 0 0.1 0.255 0 0 0.26 0 0.02 0.26 0 0.04 0.26 0 0.06 0.26 0 0.08 0.26 0 0.1 0.26 0 0 0.265 0 0.02 0.265 0 0.04 0.265 0 0.06 0.265 0 0.08 0.265 0 0.1 0.265 0 0 0.27 0 0.02 0.27 0 0.04 0.27 0 0.06 0.27 0 0.08 0.27 0 0.1 0.27 0 0 0.275 0 0.02 0.275 0 0.04 0.275 0 0.06 0.275 0 0.08 0.275 0 0.1 0.275 0 0 0.28 0 0.02 0.28 0 0.04 0.28 0 0.06 0.28 0 0.08 0.28 0 0.1 0.28 0 0 0.285 0 0.02 0.285 0 0.04 0.285 0 0.06 0.285 0 0.08 0.285 0 0.1 0.285 0 0 0.29 0 0.02 0.29 0 0.04 0.29 0 0.06 0.29 0 0.08 0.29 0 0.1 0.29 0 0 0.295 0 0.02 0.295 0 0.04 0.295 0 0.06 0.295 0 0.08 0.295 0 0.1 0.295 0 0 0.3 0 0.02 0.3 0 0.04 0.3 0 0.06 0.3 0 0.08 0.3 0 0.1 0.3 0 0 0.305 0 0.02 0.305 0 0.04 0.305 0 0.06 0.305 0 0.08 0.305 0 0.1 0.305 0 0 0.31 0 0.02 0.31 0 0.04 0.31 0 0.06 0.31 0 0.08 0.31 0 0.1 0.31 0 0 0.315 0 0.02 0.315 0 0.04 0.315 0 0.06 0.315 0 0.08 0.315 0 0.1 0.315 0 0 0.32 0 0.02 0.32 0 0.04 0.32 0 0.06 0.32 0 0.08 0.32 0 0.1 0.32 0 0 0.325 0 0.02 0.325 0 0.04 0.325 0 0.06 0.325 0 0.08 0.325 0 0.1 0.325 0 0 0.33 0 0.02 0.33 0 0.04 0.33 0 0.06 0.33 0 0.08 0.33 0 0.1 0.33 0 0 0.335 0 0.02 0.335 0 0.04 0.335 0 0.06 0.335 0 0.08 0.335 0 0.1 0.335 0 0 0.34 0 0.02 0.34 0 0.04 0.34 0 0.06 0.34 0 0.08 0.34 0 0.1 0.34 0 0 0.345 0 0.02 0.345 0 0.04 0.345 0 0.06 0.345 0 0.08 0.345 0 0.1 0.345 0 0 0.35 0 0.02 0.35 0 0.04 0.35 0 0.06 0.35 0 0.08 0.35 0 0.1 0.35 0 0 0.355 0 0.02 0.355 0 0.04 0.355 0 0.06 0.355 0 0.08 0.355 0 0.1 0.355 0 0 0.36 0 0.02 0.36 0 0.04 0.36 0 0.06 0.36 0 0.08 0.36 0 0.1 0.36 0 0 0.365 0 0.02 0.365 0 0.04 0.365 0 0.06 0.365 0 0.08 0.365 0 0.1 0.365 0 0 0.37 0 0.02 0.37 0 0.04 0.37 0 0.06 0.37 0 0.08 0.37 0 0.1 0.37 0 0 0.375 0 0.02 0.375 0 0.04 0.375 0 0.06 0.375 0 0.08 0.375 0 0.1 0.375 0 0 0.38 0 0.02 0.38 0 0.04 0.38 0 0.06 0.38 0 0.08 0.38 0 0.1 0.38 0 0 0.385 0 0.02 0.385 0 0.04 0.385 0 0.06 0.385 0 0.08 0.385 0 0.1 0.385 0 0 0.39 0 0.02 0.39 0 0.04 0.39 0 0.06 0.39 0 0.08 0.39 0 0.1 0.39 0 0 0.395 0 0.02 0.395 0 0.04 0.395 0 0.06 0.395 0 0.08 0.395 0 0.1 0.395 0 0 0.4 0 0.02 0.4 0 0.04 0.4 0 0.06 0.4 0 0.08 0.4 0 0.1 0.4 0 0 0.405 0 0.02 0.405 0 0.04 0.405 0 0.06 0.405 0 0.08 0.405 0 0.1 0.405 0 0 0.41 0 0.02 0.41 0 0.04 0.41 0 0.06 0.41 0 0.08 0.41 0 0.1 0.41 0 0 0.415 0 0.02 0.415 0 0.04 0.415 0 0.06 0.415 0 0.08 0.415 0 0.1 0.415 0 0 0.42 0 0.02 0.42 0 0.04 0.42 0 0.06 0.42 0 0.08 0.42 0 0.1 0.42 0 0 0.425 0 0.02 0.425 0 0.04 0.425 0 0.06 0.425 0 0.08 0.425 0 0.1 0.425 0 0 0.43 0 0.02 0.43 0 0.04 0.43 0 0.06 0.43 0 0.08 0.43 0 0.1 0.43 0 0 0.435 0 0.02 0.435 0 0.04 0.435 0 0.06 0.435 0 0.08 0.435 0 0.1 0.435 0 0 0.44 0 0.02 0.44 0 0.04 0.44 0 0.06 0.44 0 0.08 0.44 0 0.1 0.44 0 0 0.445 0 0.02 0.445 0 0.04 0.445 0 0.06 0.445 0 0.08 0.445 0 0.1 0.445 0 0 0.45 0 0.02 0.45 0 0.04 0.45 0 0.06 0.45 0 0.08 0.45 0 0.1 0.45 0 0 0.455 0 0.02 0.455 0 0.04 0.455 0 0.06 0.455 0 0.08 0.455 0 0.1 0.455 0 0 0.46 0 0.02 0.46 0 0.04 0.46 0 0.06 0.46 0 0.08 0.46 0 0.1 0.46 0 0 0.465 0 0.02 0.465 0 0.04 0.465 0 0.06 0.465 0 0.08 0.465 0 0.1 0.465 0 0 0.47 0 0.02 0.47 0 0.04 0.47 0 0.06 0.47 0 0.08 0.47 0 0.1 0.47 0 0 0.475 0 0.02 0.475 0 0.04 0.475 0 0.06 0.475 0 0.08 0.475 0 0.1 0.475 0 0 0.48 0 0.02 0.48 0 0.04 0.48 0 0.06 0.48 0 0.08 0.48 0 0.1 0.48 0 0 0.485 0 0.02 0.485 0 0.04 0.485 0 0.06 0.485 0 0.08 0.485 0 0.1 0.485 0 0 0.49 0 0.02 0.49 0 0.04 0.49 0 0.06 0.49 0 0.08 0.49 0 0.1 0.49 0 0 0.495 0 0.02 0.495 0 0.04 0.495 0 0.06 0.495 0 0.08 0.495 0 0.1 0.495 0 0 0.5 0 0.02 0.5 0 0.04 0.5 0 0.06 0.5 0 0.08 0.5 0 0.1 0.5 0 0 0.505 0 0.02 0.505 0 0.04 0.505 0 0.06 0.505 0 0.08 0.505 0 0.1 0.505 0 0 0.51 0 0.02 0.51 0 0.04 0.51 0 0.06 0.51 0 0.08 0.51 0 0.1 0.51 0 0 0.515 0 0.02 0.515 0 0.04 0.515 0 0.06 0.515 0 0.08 0.515 0 0.1 0.515 0 0 0.52 0 0.02 0.52 0 0.04 0.52 0 0.06 0.52 0 0.08 0.52 0 0.1 0.52 0 0 0.525 0 0.02 0.525 0 0.04 0.525 0 0.06 0.525 0 0.08 0.525 0 0.1 0.525 0 0 0.53 0 0.02 0.53 0 0.04 0.53 0 0.06 0.53 0 0.08 0.53 0 0.1 0.53 0 0 0.535 0 0.02 0.535 0 0.04 0.535 0 0.06 0.535 0 0.08 0.535 0 0.1 0.535 0 0 0.54 0 0.02 0.54 0 0.04 0.54 0 0.06 0.54 0 0.08 0.54 0 0.1 0.54 0 0 0.545 0 0.02 0.545 0 0.04 0.545 0 0.06 0.545 0 0.08 0.545 0 0.1 0.545 0 0 0.55 0 0.02 0.55 0 0.04 0.55 0 0.06 0.55 0 0.08 0.55 0 0.1 0.55 0 0 0.555 0 0.02 0.555 0 0.04 0.555 0 0.06 0.555 0 0.08 0.555 0 0.1 0.555 0 0 0.56 0 0.02 0.56 0 0.04 0.56 0 0.06 0.56 0 0.08 0.56 0 0.1 0.56 0 0 0.565 0 0.02 0.565 0 0.04 0.565 0 0.06 0.565 0 0.08 0.565 0 0.1 0.565 0 0 0.57 0 0.02 0.57 0 0.04 0.57 0 0.06 0.57 0 0.08 0.57 0 0.1 0.57 0 0 0.575 0 0.02 0.575 0 0.04 0.575 0 0.06 0.575 0 0.08 0.575 0 0.1 0.575 0 0 0.58 0 0.02 0.58 0 0.04 0.58 0 0.06 0.58 0 0.08 0.58 0 0.1 0.58 0 0 0.585 0 0.02 0.585 0 0.04 0.585 0 0.06 0.585 0 0.08 0.585 0 0.1 0.585 0 0 0.59 0 0.02 0.59 0 0.04 0.59 0 0.06 0.59 0 0.08 0.59 0 0.1 0.59 0 0 0.595 0 0.02 0.595 0 0.04 0.595 0 0.06 0.595 0 0.08 0.595 0 0.1 0.595 0 0 0.6 0 0.02 0.6 0 0.04 0.6 0 0.06 0.6 0 0.08 0.6 0 0.1 0.6 0 0 0.605 0 0.02 0.605 0 0.04 0.605 0 0.06 0.605 0 0.08 0.605 0 0.1 0.605 0 0 0.61 0 0.02 0.61 0 0.04 0.61 0 0.06 0.61 0 0.08 0.61 0 0.1 0.61 0 0 0.615 0 0.02 0.615 0 0.04 0.615 0 0.06 0.615 0 0.08 0.615 0 0.1 0.615 0 0 0.62 0 0.02 0.62 0 0.04 0.62 0 0.06 0.62 0 0.08 0.62 0 0.1 0.62 0 0 0.625 0 0.02 0.625 0 0.04 0.625 0 0.06 0.625 0 0.08 0.625 0 0.1 0.625 0 0 0.63 0 0.02 0.63 0 0.04 0.63 0 0.06 0.63 0 0.08 0.63 0 0.1 0.63 0 0 0.635 0 0.02 0.635 0 0.04 0.635 0 0.06 0.635 0 0.08 0.635 0 0.1 0.635 0 0 0.64 0 0.02 0.64 0 0.04 0.64 0 0.06 0.64 0 0.08 0.64 0 0.1 0.64 0 0 0.645 0 0.02 0.645 0 0.04 0.645 0 0.06 0.645 0 0.08 0.645 0 0.1 0.645 0 0 0.65 0 0.02 0.65 0 0.04 0.65 0 0.06 0.65 0 0.08 0.65 0 0.1 0.65 0 0 0.655 0 0.02 0.655 0 0.04 0.655 0 0.06 0.655 0 0.08 0.655 0 0.1 0.655 0 0 0.66 0 0.02 0.66 0 0.04 0.66 0 0.06 0.66 0 0.08 0.66 0 0.1 0.66 0 0 0.665 0 0.02 0.665 0 0.04 0.665 0 0.06 0.665 0 0.08 0.665 0 0.1 0.665 0 0 0.67 0 0.02 0.67 0 0.04 0.67 0 0.06 0.67 0 0.08 0.67 0 0.1 0.67 0 0 0.675 0 0.02 0.675 0 0.04 0.675 0 0.06 0.675 0 0.08 0.675 0 0.1 0.675 0 0 0.68 0 0.02 0.68 0 0.04 0.68 0 0.06 0.68 0 0.08 0.68 0 0.1 0.68 0 0 0.685 0 0.02 0.685 0 0.04 0.685 0 0.06 0.685 0 0.08 0.685 0 0.1 0.685 0 0 0.69 0 0.02 0.69 0 0.04 0.69 0 0.06 0.69 0 0.08 0.69 0 0.1 
[...]
			<PointData Scalars="VitesseX">
				<DataArray Name="VitesseX" type="Float32" format="ascii">
 0 5.00914e-14 6.24258e-14 3.74919e-14 2.67183e-14 0 0 5.11103e-14 6.12442e-14 3.50063e-14 2.88903e-14 0 0 4.77596e-14 6.23777e-14 2.77146e-14 3.29944e-14 0 0 5.14051e-14 4.1662e-14 4.12429e-14 2.5307e-14 0 0 4.50259e-14 2.9577e-14 4.76563e-14 2.80339e-14 0 0 3.28923e-14 2.32424e-14 4.95321e-14 3.4136e-14 0 0 2.8825e-14 1.32886e-14 6.10251e-14 1.49194e-14 0 0 2.08734e-14 2.24942e-14 5.36105e-14 1.0889e-14 0 0 4.6411e-15 5.36511e-14 8.89786e-15 5.04213e-14 0 0 3.01619e-16 7.59792e-14 -3.86481e-14 9.79762e-14 0 0 2.54009e-14 4.65618e-14 -2.54233e-14 9.80061e-14 0 0 4.14473e-14 5.24582e-15 4.01388e-14 3.46582e-14 0 0 -5.28211e-15 4.79174e-14 3.76735e-14 2.8673e-14 0 0 -9.23225e-15 5.94961e-14 5.13816e-14 2.17382e-14 0 0 -2.81927e-15 7.80847e-14 4.04972e-14 2.96298e-14 0 0 -2.96524e-14 1.25308e-13 1.56155e-14 5.57024e-14 0 0 3.01595e-15 9.02661e-14 7.58051e-14 2.5463e-14 0 0 7.88675e-15 9.05051e-14 1.01158e-13 2.24835e-14 0 0 2.1714e-14 7.51808e-14 1.13349e-13 3.74353e-14 0 0 2.24637e-14 1.14772e-13 2.65453e-14 9.6204e-14 0 0 4.16574e-14 1.11184e-13 1.6179e-14 9.08274e-14 0 0 1.04278e-13 -1.03711e-14 1.62828e-13 1.32386e-14 0 0 6.27324e-14 2.07337e-14 1.36473e-13 5.69407e-14 0 0 7.48441e-15 1.15823e-13 5.3832e-15 1.50688e-13 0 0 3.86751e-14 7.61238e-14 5.11555e-14 9.75094e-14 0 0 8.51525e-14 1.74469e-14 1.06198e-13 5.19499e-14 0 0 5.78883e-14 9.73204e-14 1.77176e-15 1.11286e-13 0 0 3.60356e-14 1.86367e-13 -9.08518e-14 1.55491e-13 0 0 8.62224e-14 1.44025e-13 -3.79524e-14 9.04491e-14 0 0 1.52698e-13 3.131e-14 1.1267e-13 -4.67612e-14 0 0 1.5782e-13 1.53043e-14 1.36946e-13 -4.76681e-14 0 0 1.24122e-13 9.88113e-14 7.17187e-14 -6.66152e-16 0 0 6.15031e-14 2.23313e-13 -2.28615e-14 2.04048e-15 0 0 4.34718e-14 2.28454e-13 -1.19269e-14 5.19614e-15 0 0 5.85528e-14 1.71768e-13 7.20665e-14 -3.76785e-14 0 0 1.2472e-14 2.28922e-13 6.48466e-14 -8.96998e-14 0 0 1.08695e-14 2.64548e-13 1.73373e-14 -4.96905e-14 0 0 4.13291e-14 2.15203e-13 4.43658e-14 -1.54242e-14 0 0 8.21323e-14 1.04622e-13 1.60613e-13 -7.74686e-14 0 0 5.68408e-14 1.06452e-13 9.34518e-14 -5.96842e-14 0 0 -1.62603e-14 1.90161e-13 -8.30842e-14 3.0832e-14 0 0 1.52954e-14 1.13625e-13 -4.44734e-14 -1.66468e-14 0 0 2.54938e-14 8.58882e-14 3.49733e-14 -7.96105e-14 0 0 1.91311e-14 1.18501e-13 4.27321e-14 -5.55257e-14 0 0 5.04779e-14 1.1817e-13 9.50079e-14 -8.66785e-14 0 0 7.25571e-14 1.29065e-13 1.22721e-13 -8.6532e-14 0 0 1.77976e-14 2.19811e-13 6.92966e-14 -6.02105e-14 0 0 1.04727e-13 1.04737e-13 2.01731e-13 -1.45083e-13 0 0 1.39327e-13 1.10224e-13 2.11323e-13 -1.22111e-13 0 0 -2.34625e-14 3.76959e-13 1.36497e-14 1.90276e-14 0 0 -6.56748e-15 3.90761e-13 -1.4324e-14 1.12951e-13 0 0 1.13283e-13 2.89132e-13 1.02386e-13 2.42148e-14 0 0 1.28985e-13 2.06851e-13 2.17194e-13 -6.8743e-14 0 0 4.81549e-14 1.0503e-13 2.82431e-13 1.53833e-14 0 0 -1.10483e-13 1.12182e-13 3.70707e-13 7.93907e-14 0 0 -2.35045e-13 2.99873e-13 2.33244e-13 2.64122e-13 0 0 -8.71932e-14 1.87047e-13 2.69989e-13 3.21751e-13 0 0 -9.76143e-14 8.94535e-14 3.67925e-13 3.0065e-13 0 0 -2.58065e-13 1.30146e-13 3.02071e-13 4.16954e-13 0 0 -2.99775e-13 5.37873e-14 3.36478e-13 3.80173e-13 0 0 -3.51752e-13 8.08845e-14 3.50213e-13 2.7951e-13 0 0 -4.2375e-13 2.12637e-13 3.61819e-13 1.70942e-13 0 0 -4.15559e-13 2.9047e-13 3.64268e-13 8.13438e-14 0 0 -2.85946e-13 2.45361e-13 4.10603e-13 -1.31225e-15 0 0 -2.06708e-13 2.90044e-13 3.34346e-13 1.83891e-15 0 0 -1.47429e-13 3.43863e-13 1.35402e-13 1.16333e-13 0 0 8.48455e-15 1.82945e-13 1.67742e-13 1.21244e-13 0 0 8.79742e-14 1.23716e-13 1.83053e-13 9.79451e-14 0 0 1.02552e-13 1.64888e-13 1.48486e-13 4.54279e-14 0 0 1.63384e-13 1.42513e-13 1.59289e-13 -8.20755e-14 0 0 2.90946e-13 -5.2054e-15 3.09817e-13 -3.48786e-13 0 0 3.07501e-13 1.86274e-14 2.07387e-13 -3.28867e-13 0 0 1.56943e-13 3.17918e-13 -2.81586e-13 -3.10543e-14 0 0 3.29765e-14 4.88273e-13 -5.52866e-13 4.71767e-14 0 0 9.35174e-14 3.19164e-13 -3.718e-13 -1.11035e-13 0 0 2.26647e-13 3.47992e-14 -5.43321e-14 -3.71999e-13 0 0 4.02843e-13 -3.05736e-13 2.62702e-14 -3.20997e-13 0 0 4.146e-13 -2.93596e-13 -8.05381e-14 -9.81195e-14 0 0 3.45713e-13 -1.35702e-13 -3.78091e-13 3.51335e-13 0 0 2.97076e-13 -1.68906e-13 -3.16191e-13 3.81878e-13 0 0 3.15162e-13 -3.34198e-13 -7.06282e-14 2.54431e-13 0 0 2.14321e-13 -2.93263e-13 -1.67111e-14 1.11186e-13 0 0 -4.28991e-14 -6.40097e-14 -2.03767e-13 1.67816e-13 0 0 -4.20362e-13 3.08949e-13 -4.95684e-13 2.72503e-13 0 0 -4.71813e-13 3.1567e-13 -4.99434e-13 2.69988e-13 0 0 -3.74769e-13 1.19778e-13 -3.09209e-13 1.18994e-13 0 0 -1.35757e-13 -3.46096e-13 1.19673e-13 -1.34289e-13 0 0 6.41672e-14 -6.69536e-13 2.94948e-13 -2.6854e-13 0 0 8.17018e-14 -6.76836e-13 2.20346e-13 -2.42298e-13 0 0 -2.14151e-14 -5.02012e-13 -1.01969e-13 -4.18325e-14 0 0 -1.30913e-13 -2.53332e-13 -4.30239e-13 2.10448e-13 0 0 -1.22862e-13 -2.18861e-13 -4.37502e-13 2.13991e-13 0 0 -6.4077e-14 -2.88926e-13 -3.57507e-13 1.329e-13 0 0 -6.77055e-14 -3.76699e-13 -2.48455e-13 3.18829e-14 0 0 -1.22938e-13 -3.69365e-13 -1.98534e-13 -4.84637e-14 0 0 -2.48083e-13 -3.46307e-13 -1.02119e-13 -2.07486e-13 0 0 -4.78819e-13 -2.3576e-13 1.98845e-14 -5.09712e-13 0 0 -7.0465e-13 1.44753e-15 -3.20013e-14 -6.71317e-13 0 0 -7.16096e-13 6.74249e-14 -1.37264e-13 -6.70882e-13 0 0 -6.39478e-13 3.38633e-14 -2.08817e-13 -6.5411e-13 0 0 -4.36466e-13 -6.1566e-14 -3.15828e-13 -5.5573e-13 0 0 -9.12616e-14 -2.44586e-13 -4.62093e-13 -3.54651e-13 0 0 2.60979e-13 -4.69272e-13 -6.50267e-13 -7.12081e-14 0 0 2.89221e-13 -4.85241e-13 -7.43526e-13 1.70052e-13 0 0 1.9129e-13 -4.31406e-13 -7.42107e-13 2.093e-13 0 0 3.71284e-14 -4.24313e-13 -7.12593e-13 2.1381e-13 0 0 -9.10894e-14 -4.46012e-13 -5.81822e-13 1.56191e-13 0 0 -2.28338e-13 -4.23413e-13 -3.5835e-13 2.89833e-14 0 0 -3.38509e-13 -4.06475e-13 -1.36976e-13 -1.46736e-13 0 0 -3.52557e-13 -4.53982e-13 1.38296e-14 -2.46403e-13 0 0 -3.31038e-13 -4.58067e-13 3.93297e-14 -2.36852e-13 0 0 -2.80577e-13 -4.32639e-13 5.29647e-16 -1.69754e-13 0 0 -2.28016e-13 -3.94939e-13 -7.30493e-14 -7.80061e-14 0 0 -1.67053e-13 -3.35359e-13 -1.2757e-13 -2.94383e-14 0 0 -1.31318e-13 -2.53944e-13 -1.61356e-13 2.17641e-14 0 0 -1.05701e-13 -2.19706e-13 -1.43709e-13 3.70727e-14 0 0 -7.87118e-14 -1.94109e-13 -1.21074e-13 6.28681e-14 0 0 -3.43506e-14 -1.29993e-13 -1.72178e-13 1.42209e-13 0 0 4.43473e-14 -1.01436e-13 -1.85521e-13 1.73535e-13 0 0 8.30068e-14 -7.80257e-14 -1.48891e-13 1.91413e-13 0 0 1.17732e-13 -4.52556e-14 -1.67065e-13 2.76897e-13 0 0 1.54165e-13 -4.1704e-14 -1.65119e-13 3.12142e-13 0 0 1.98712e-13 -5.2609e-14 -6.73732e-14 2.88583e-13 0 0 2.47431e-13 -9.46368e-14 4.93333e-14 2.59088e-13 0 0 2.56885e-13 -1.00673e-13 1.48212e-13 2.40335e-13 0 0 2.38428e-13 -4.69173e-14 1.433e-13 2.72785e-13 0 0 2.14963e-13 6.15654e-14 1.24866e-13 3.01396e-13 0 0 1.83425e-13 1.96231e-13 1.14203e-13 2.88295e-13 0 0 1.60461e-13 2.4501e-13 1.90309e-13 2.10067e-13 0 0 1.57003e-13 2.76757e-13 2.92056e-13 8.67089e-14 0 0 1.76308e-13 3.2035e-13 2.84645e-13 6.3474e-14 0 0 2.29278e-13 3.17914e-13 2.85003e-13 6.2715e-14 0 0 2.48171e-13 3.24422e-13 3.09706e-13 3.55215e-14 0 0 2.59266e-13 3.54768e-13 3.28081e-13 3.30402e-15 0 0 2.80249e-13 3.58481e-13 3.00468e-13 2.19317e-14 0 0 2.95878e-13 3.27946e-13 3.07996e-13 1.62915e-14 0 0 3.04277e-13 2.60675e-13 3.79572e-13 -2.8558e-14 0 0 2.85931e-13 2.37742e-13 3.9517e-13 -4.08999e-14 0 0 2.47467e-13 2.49619e-13 3.65099e-13 -4.70042e-14 0 0 2.36825e-13 2.71324e-13 2.99274e-13 -9.58353e-15 0 0 2.08541e-13 3.33793e-13 1.77918e-13 8.40847e-14 0 0 1.88039e-13 3.80488e-13 1.30177e-13 1.60128e-13 0 0 2.01791e-13 3.66003e-13 1.31896e-13 2.07002e-13 0 0 2.24753e-13 3.57619e-13 1.62275e-13 1.59572e-13 0 0 2.23492e-13 3.45691e-13 1.5239e-13 1.59031e-13 0 0 2.21471e-13 2.88336e-13 1.81082e-13 1.78361e-13 0 0 2.09591e-13 1.9689e-13 3.35488e-13 9.87906e-14 0 0 1.7272e-13 1.72237e-13 3.4348e-13 5.8665e-14 0 0 1.30711e-13 1.66938e-13 3.35659e-13 2.6418e-14 0 0 1.03096e-13 1.81743e-13 2.75827e-13 6.71338e-14 0 0 9.91499e-14 1.60732e-13 2.01184e-13 6.08541e-15 0 0 8.47299e-14 1.02003e-13 1.75288e-13 -2.81839e-13 0 0 4.38917e-14 1.24488e-13 4.2296e-15 -3.41738e-13 0 0 1.55748e-15 1.00035e-13 -5.78417e-14 -3.30441e-13 0 0 -4.71889e-14 7.1678e-14 -9.72911e-14 -2.25209e-13 0 0 -8.92993e-14 -4.60467e-16 -6.69986e-14 1.07566e-13 0 0 -6.75638e-14 -2.4135e-13 1.15e-13 2.31868e-13 0 0 -8.29249e-14 -3.08882e-13 1.8438e-13 2.85152e-13 0 0 -2.56863e-13 -1.21838e-13 6.45156e-14 2.76716e-13 0 0 -3.62937e-13 -8.02066e-14 1.44876e-13 -1.87822e-14 0 0 -2.54395e-13 -1.93538e-13 2.4037e-13 -4.79136e-14 0 0 -1.50708e-13 -9.05775e-14 -2.64558e-14 2.65663e-13 0 0 -1.96679e-13 -3.18984e-14 -8.70119e-14 1.90842e-13 0 0 -3.04526e-13 -2.04752e-14 -4.48012e-14 3.7611e-14 0 0 -1.65818e-13 -2.18371e-13 1.01206e-14 8.24442e-14 0 0 -1.09879e-13 -3.49381e-13 1.14454e-13 1.12228e-13 0 0 -2.31293e-13 -2.60283e-13 1.64899e-13 3.22609e-14 0 0 -3.08273e-13 -1.50791e-13 9.08966e-14 -1.39717e-15 0 0 -2.6933e-13 -1.88893e-13 8.01872e-14 2.58491e-14 0 0 -2.01771e-13 -2.79668e-13 1.08219e-13 5.67113e-14 0 0 -1.81459e-13 -3.18319e-13 1.17662e-13 9.21098e-14 0 0 -1.28855e-13 -3.89879e-13 1.2154e-13 1.17417e-13 0 0 -1.33405e-13 -3.57409e-13 2.79036e-14 1.84308e-13 0 0 -1.75421e-13 -2.74576e-13 -5.27444e-14 2.61254e-13 0 0 -1.91257e-13 -1.49614e-13 -7.9283e-14 1.24192e-13 0 0 -1.70804e-13 -9.90719e-14 -3.54541e-14 -4.94888e-14 0 0 -1.08664e-13 -1.6606e-13 1.07965e-13 -1.32262e-13 0 0 1.68388e-15 -2.95286e-13 3.11008e-13 -2.55375e-13 0 0 6.95794e-14 -3.35817e-13 3.92237e-13 -3.30704e-13 0 0 3.36662e-14 -1.60221e-13 1.70584e-13 -2.41521e-13 0 0 3.29014e-14 -1.93063e-14 -1.45333e-13 7.80544e-14 0 0 2.59102e-13 -3.15206e-13 6.36458e-14 1.47736e-13 0 0 3.2063e-13 -3.4145e-13 1.13223e-14 2.9947e-13 0 0 8.86285e-14 1.11829e-13 -4.58842e-13 6.14056e-13 0 0 1.06812e-13 6.81704e-14 -2.18096e-13 4.36842e-13 0 0 2.87516e-13 -2.53161e-13 2.8481e-13 7.11432e-14 0 0 4.486e-13 -4.31224e-13 4.12687e-13 -8.58675e-15 0 0 1.47684e-13 1.33233e-13 -2.86267e-13 4.65796e-13 0 0 -1.06278e-13 4.75755e-13 -6.45913e-13 6.88451e-13 0 0 1.03417e-13 2.56432e-14 -1.15295e-13 3.98733e-13 0 0 3.37157e-13 -4.76168e-13 4.97931e-13 -1.10071e-14 0 0 3.30646e-13 -3.54296e-13 2.16532e-13 2.15826e-13 0 0 1.54604e-13 1.76444e-13 -5.15673e-13 7.0809e-13 0 0 2.75039e-13 2.34326e-13 -5.76161e-13 6.08252e-13 0 0 3.89697e-13 2.23492e-13 -3.61685e-13 2.71916e-13 0 0 3.41143e-13 2.89494e-13 -3.42627e-13 2.51596e-13 0 0 1.65141e-13 3.32922e-13 -3.2584e-13 3.41848e-13 0 0 3.41318e-13 -1.78413e-13 2.49758e-13 -4.117e-14 0 0 4.20363e-13 -2.27398e-13 5.28832e-14 6.23101e-14 0 0 3.40172e-13 2.30923e-14 -4.90486e-13 5.17826e-13 0 0 4.95207e-13 -1.76352e-13 -4.50169e-13 6.06405e-13 0
				</DataArray>
				<DataArray Name="VitesseY" type="Float32" format="ascii">