<?xml version="1.0"?>
<VTKFile type="PolyData">
	<PolyData>
		<Piece NumberOfPoints="1206" NumberOfPolys="1000">
			<Points>
				<DataArray type="Float32" NumberOfComponents="3" format="ascii">
 0 0 0 0.02 0 0 0.04 0 0 0.06 0 0 0.08 0 0 0.1 0 0 0 0.005 0 0.02 0.005 0 0.04 0.005 0 0.06 0.005 0 0.08 0.005 0 0.1 0.005 0 0 0.01 0 0.02 0.01 0 0.04 0.01 0 0.06 0.01 0 0.08 0.01 0 0.1 0.01 0 0 0.015 0 0.02 0.015 0 0.04 0.015 0 0.06 0.015 0 0.08 0.015 0 0.1 0.015 0 0 0.02 0 0.02 0.02 0 0.04 0.02 0 0.06 0.02 0 0.08 0.02 0 0.1 0.02 0 0 0.025 0 0.02 0.025 0 0.04 0.025 0 0.06 0.025 0 0.08 0.025 0 0.1 0.025 0 0 0.03 0 0.02 0.03 0 0.04 0.03 0 0.06 0.03 0 0.08 0.03 0 0.1 0.03 0 0 0.035 0 0.02 0.035 0 0.04 0.035 0 0.06 0.035 0 0.08 0.035 0 0.1 0.035 0 0 0.04 0 0.02 0.04 0 0.04 0.04 0 0.06 0.04 0 0.08 0.04 0 0.1 0.04 0 0 0.045 0 0.02 0.045 0 0.04 0.045 0 0.06 0.045 0 0.08 0.045 0 0.1 0.045 0 0 0.05 0 0.02 0.05 0 0.04 0.05 0 0.06 0.05 0 0.08 0.05 0 0.1 0.05 0 0 0.055 0 0.02 0.055 0 0.04 0.055 0 0.06 0.055 0 0.08 0.055 0 0.1 0.055 0 0 0.06 0 0.02 0.06 0 0.04 0.06 0 0.06 0.06 0 0.08 0.06 0 0.1 0.06 0 0 0.065 0 0.02 0.065 0 0.04 0.065 0 0.06 0.065 0 0.08 0.065 0 0.1 0.065 0 0 0.07 0 0.02 0.07 0 0.04 0.07 0 0.06 0.07 0 0.08 0.07 0 0.1 0.07 0 0 0.075 0 0.02 0.075 0 0.04 0.075 0 0.06 0.075 0 0.08 0.075 0 0.1 0.075 0 0 0.08 0 0.02 0.08 0 0.04 0.08 0 0.06 0.08 0 0.08 0.08 0 0.1 0.08 0 0 0.085 0 0.02 0.085 0 0.04 0.085 0 0.06 0.085 0 0.08 0.085 0 0.1 0.085 0 0 0.09 0 0.02 0.09 0 0.04 0.09 0 0.06 0.09 0 0.08 0.09 0 0.1 0.09 0 0 0.095 0 0.02 0.095 0 0.04 0.095 0 0.06 0.095 0 0.08 0.095 0 0.1 0.095 0 0 0.1 0 0.02 0.1 0 0.04 0.1 0 0.06 0.1 0 0.08 0.1 0 0.1 0.1 0 0 0.105 0 0.02 0.105 0 0.04 0.105 0 0.06 0.105 0 0.08 0.105 0 0.1 0.105 0 0 0.11 0 0.02 0.11 0 0.04 0.11 0 0.06 0.11 0 0.08 0.11 0 0.1 0.11 0 0 0.115 0 0.02 0.115 0 0.04 0.115 0 0.06 0.115 0 0.08 0.115 0 0.1 0.115 0 0 0.12 0 0.02 0.12 0 0.04 0.12 0 0.06 0.12 0 0.08 0.12 0 0.1 0.12 0 0 0.125 0 0.02 0.125 0 0.04 0.125 0 0.06 0.125 0 0.08 0.125 0 0.1 0.125 0 0 0.13 0 0.02 0.13 0 0.04 0.13 0 0.06 0.13 0 0.08 0.13 0 0.1 0.13 0 0 0.135 0 0.02 0.135 0 0.04 0.135 0 0.06 0.135 0 0.08 0.135 0 0.1 0.135 0 0 0.14 0 0.02 0.14 0 0.04 0.14 0 0.06 0.14 0 0.08 0.14 0 0.1 0.14 0 0 0.145 0 0.02 0.145 0 0.04 0.145 0 0.06 0.145 0 0.08 0.145 0 0.1 0.145 0 0 0.15 0 0.02 0.15 0 0.04 0.15 0 0.06 0.15 0 0.08 0.15 0 0.1 0.15 0 0 0.155 0 0.02 0.155 0 0.04 0.155 0 0.06 0.155 0 0.08 0.155 0 0.1 0.155 0 0 0.16 0 0.02 0.16 0 0.04 0.16 0 0.06 0.16 0 0.08 0.16 0 0.1 0.16 0 0 0.165 0 0.02 0.165 0 0.04 0.165 0 0.06 0.165 0 0.08 0.165 0 0.1 0.165 0 0 0.17 0 0.02 0.17 0 0.04 0.17 0 0.06 0.17 0 0.08 0.17 0 0.1 0.17 0 0 0.175 0 0.02 0.175 0 0.04 0.175 0 0.06 0.175 0 0.08 0.175 0 0.1 0.175 0 0 0.18 0 0.02 0.18 0 0.04 0.18 0 0.06 0.18 0 0.08 0.18 0 0.1 0.18 0 0 0.185 0 0.02 0.185 0 0.04 0.185 0 0.06 0.185 0 0.08 0.185 0 0.1 0.185 0 0 0.19 0 0.02 0.19 0 0.04 0.19 0 0.06 0.19 0 0.08 0.19 0 0.1 0.19 0 0 0.195 0 0.02 0.195 0 0.04 0.195 0 0.06 0.195 0 0.08 0.195 0 0.1 0.195 0 0 0.2 0 0.02 0.2 0 0.04 0.2 0 0.06 0.2 0 0.08 0.2 0 0.1 0.2 0 0 0.205 0 0.02 0.205 0 0.04 0.205 0 0.06 0.205 0 0.08 0.205 0 0.1 0.205 0 0 0.21 0 0.02 0.21 0 0.04 0.21 0 0.06 0.21 0 0.08 0.21 0 0.1 0.21 0 0 0.215 0 0.02 0.215 0 0.04 0.215 0 0.06 0.215 0 0.08 0.215 0 0.1 0.215 0 0 0.22 0 0.02 0.22 0 0.04 0.22 0 0.06 0.22 0 0.08 0.22 0 0.1 0.22 0 0 0.225 0 0.02 0.225 0 0.04 0.225 0 0.06 0.225 0 0.08 0.225 0 0.1 0.225 0 0 0.23 0 0.02 0.23 0 0.04 0.23 0 0.06 0.23 0 0.08 0.23 0 0.1 0.23 0 0 0.235 0 0.02 0.235 0 0.04 0.235 0 0.06 0.235 0 0.08 0.235 0 0.1 0.235 0 0 0.24 0 0.02 0.24 0 0.04 0.24 0 0.06 0.24 0 0.08 0.24 0 0.1 0.24 0 0 0.245 0 0.02 0.245 0 0.04 0.245 0 0.06 0.245 0 0.08 0.245 0 0.1 0.245 0 0 0.25 0 0.02 0.25 0 0.04 0.25 0 0.06 0.25 0 0.08 0.25 0 0.1 0.25 0 0 0.255 0 0.02 0.255 0 0.04 0.255 0 0.06 0.255 0 0.08 0.255 0 0.1 0.255 0 0 0.26 0 0.02 0.26 0 0.04 0.26 0 0.06 0.26 0 0.08 0.26 0 0.1 0.26 0 0 0.265 0 0.02 0.265 0 0.04 0.265 0 0.06 0.265 0 0.08 0.265 0 0.1 0.265 0 0 0.27 0 0.02 0.27 0 0.04 0.27 0 0.06 0.27 0 0.08 0.27 0 0.1 0.27 0 0 0.275 0 0.02 0.275 0 0.04 0.275 0 0.06 0.275 0 0.08 0.275 0 0.1 0.275 0 0 0.28 0 0.02 0.28 0 0.04 0.28 0 0.06 0.28 0 0.08 0.28 0 0.1 0.28 0 0 0.285 0 0.02 0.285 0 0.04 0.285 0 0.06 0.285 0 0.08 0.285 0 0.1 0.285 0 0 0.29 0 0.02 0.29 0 0.04 0.29 0 0.06 0.29 0 0.08 0.29 0 0.1 0.29 0 0 0.295 0 0.02 0.295 0 0.04 0.295 0 0.06 0.295 0 0.08 0.295 0 0.1 0.295 0 0 0.3 0 0.02 0.3 0 0.04 0.3 0 0.06 0.3 0 0.08 0.3 0 0.1 0.3 0 0 0.305 0 0.02 0.305 0 0.04 0.305 0 0.06 0.305 0 0.08 0.305 0 0.1 0.305 0 0 0.31 0 0.02 0.31 0 0.04 0.31 0 0.06 0.31 0 0.08 0.31 0 0.1 0.31 0 0 0.315 0 0.02 0.315 0 0.04 0.315 0 0.06 0.315 0 0.08 0.315 0 0.1 0.315 0 0 0.32 0 0.02 0.32 0 0.04 0.32 0 0.06 0.32 0 0.08 0.32 0 0.1 0.32 0 0 0.325 0 0.02 0.325 0 0.04 0.325 0 0.06 0.325 0 0.08 0.325 0 0.1 0.325 0 0 0.33 0 0.02 0.33 0 0.04 0.33 0 0.06 0.33 0 0.08 0.33 0 0.1 0.33 0 0 0.335 0 0.02 0.335 0 0.04 0.335 0 0.06 0.335 0 0.08 0.335 0 0.1 0.335 0 0 0.34 0 0.02 0.34 0 0.04 0.34 0 0.06 0.34 0 0.08 0.34 0 0.1 0.34 0 0 0.345 0 0.02 0.345 0 0.04 0.345 0 0.06 0.345 0 0.08 0.345 0 0.1 0.345 0 0 0.35 0 0.02 0.35 0 0.04 0.35 0 0.06 0.35 0 0.08 0.35 0 0.1 0.35 0 0 0.355 0 0.02 0.355 0 0.04 0.355 0 0.06 0.355 0 0.08 0.355 0 0.1 0.355 0 0 0.36 0 0.02 0.36 0 0.04 0.36 0 0.06 0.36 0 0.08 0.36 0 0.1 0.36 0 0 0.365 0 0.02 0.365 0 0.04 0.365 0 0.06 0.365 0 0.08 0.365 0 0.1 0.365 0 0 0.37 0 0.02 0.37 0 0.04 0.37 0 0.06 0.37 0 0.08 0.37 0 0.1 0.37 0 0 0.375 0 0.02 0.375 0 0.04 0.375 0 0.06 0.375 0 0.08 0.375 0 0.1 0.375 0 0 0.38 0 0.02 0.38 0 0.04 0.38 0 0.06 0.38 0 0.08 0.38 0 0.1 0.38 0 0 0.385 0 0.02 0.385 0 0.04 0.385 0 0.06 0.385 0 0.08 0.385 0 0.1 0.385 0 0 0.39 0 0.02 0.39 0 0.04 0.39 0 0.06 0.39 0 0.08 0.39 0 0.1 0.39 0 0 0.395 0 0.02 0.395 0 0.04 0.395 0 0.06 0.395 0 0.08 0.395 0 0.1 0.395 0 0 0.4 0 0.02 0.4 0 0.04 0.4 0 0.06 0.4 0 0.08 0.4 0 0.1 0.4 0 0 0.405 0 0.02 0.405 0 0.04 0.405 0 0.06 0.405 0 0.08 0.405 0 0.1 0.405 0 0 0.41 0 0.02 0.41 0 0.04 0.41 0 0.06 0.41 0 0.08 0.41 0 0.1 0.41 0 0 0.415 0 0.02 0.415 0 0.04 0.415 0 0.06 0.415 0 0.08 0.415 0 0.1 0.415 0 0 0.42 0 0.02 0.42 0 0.04 0.42 0 0.06 0.42 0 0.08 0.42 0 0.1 0.42 0 0 0.425 0 0.02 0.425 0 0.04 0.425 0 0.06 0.425 0 0.08 0.425 0 0.1 0.425 0 0 0.43 0 0.02 0.43 0 0.04 0.43 0 0.06 0.43 0 0.08 0.43 0 0.1 0.43 0 0 0.435 0 0.02 0.435 0 0.04 0.435 0 0.06 0.435 0 0.08 0.435 0 0.1 0.435 0 0 0.44 0 0.02 0.44 0 0.04 0.44 0 0.06 0.44 0 0.08 0.44 0 0.1 0.44 0 0 0.445 0 0.02 0.445 0 0.04 0.445 0 0.06 0.445 0 0.08 0.445 0 0.1 0.445 0 0 0.45 0 0.02 0.45 0 0.04 0.45 0 0.06 0.45 0 0.08 0.45 0 0.1 0.45 0 0 0.455 0 0.02 0.455 0 0.04 0.455 0 0.06 0.455 0 0.08 0.455 0 0.1 0.455 0 0 0.46 0 0.02 0.46 0 0.04 0.46 0 0.06 0.46 0 0.08 0.46 0 0.1 0.46 0 0 0.465 0 0.02 0.465 0 0.04 0.465 0 0.06 0.465 0 0.08 0.465 0 0.1 0.465 0 0 0.47 0 0.02 0.47 0 0.04 0.47 0 0.06 0.47 0 0.08 0.47 0 0.1 0.47 0 0 0.475 0 0.02 0.475 0 0.04 0.475 0 0.06 0.475 0 0.08 0.475 0 0.1 0.475 0 0 0.48 0 0.02 0.48 0 0.04 0.48 0 0.06 0.48 0 0.08 0.48 0 0.1 0.48 0 0 0.485 0 0.02 0.485 0 0.04 0.485 0 0.06 0.485 0 0.08 0.485 0 0.1 0.485 0 0 0.49 0 0.02 0.49 0 0.04 0.49 0 0.06 0.49 0 0.08 0.49 0 0.1 0.49 0 0 0.495 0 0.02 0.495 0 0.04 0.495 0 0.06 0.495 0 0.08 0.495 0 0.1 0.495 0 0 0.5 0 0.02 0.5 0 0.04 0.5 0 0.06 0.5 0 0.08 0.5 0 0.1 0.5 0 0 0.505 0 0.02 0.505 0 0.04 0.505 0 0.06 0.505 0 0.08 0.505 0 0.1 0.505 0 0 0.51 0 0.02 0.51 0 0.04 0.51 0 0.06 0.51 0 0.08 0.51 0 0.1 0.51 0 0 0.515 0 0.02 0.515 0 0.04 0.515 0 0.06 0.515 0 0.08 0.515 0 0.1 0.515 0 0 0.52 0 0.02 0.52 0 0.04 0.52 0 0.06 0.52 0 0.08 0.52 0 0.1 0.52 0 0 0.525 0 0.02 0.525 0 0.04 0.525 0 0.06 0.525 0 0.08 0.525 0 0.1 0.525 0 0 0.53 0 0.02 0.53 0 0.04 0.53 0 0.06 0.53 0 0.08 0.53 0 0.1 0.53 0 0 0.535 0 0.02 0.535 0 0.04 0.535 0 0.06 0.535 0 0.08 0.535 0 0.1 0.535 0 0 0.54 0 0.02 0.54 0 0.04 0.54 0 0.06 0.54 0 0.08 0.54 0 0.1 0.54 0 0 0.545 0 0.02 0.545 0 0.04 0.545 0 0.06 0.545 0 0.08 0.545 0 0.1 0.545 0 0 0.55 0 0.02 0.55 0 0.04 0.55 0 0.06 0.55 0 0.08 0.55 0 0.1 0.55 0 0 0.555 0 0.02 0.555 0 0.04 0.555 0 0.06 0.555 0 0.08 0.555 0 0.1 0.555 0 0 0.56 0 0.02 0.56 0 0.04 0.56 0 0.06 0.56 0 0.08 0.56 0 0.1 0.56 0 0 0.565 0 0.02 0.565 0 0.04 0.565 0 0.06 0.565 0 0.08 0.565 0 0.1 0.565 0 0 0.57 0 0.02 0.57 0 0.04 0.57 0 0.06 0.57 0 0.08 0.57 0 0.1 0.57 0 0 0.575 0 0.02 0.575 0 0.04 0.575 0 0.06 0.575 0 0.08 0.575 0 0.1 0.575 0 0 0.58 0 0.02 0.58 0 0.04 0.58 0 0.06 0.58 0 0.08 0.58 0 0.1 0.58 0 0 0.585 0 0.02 0.585 0 0.04 0.585 0 0.06 0.585 0 0.08 0.585 0 0.1 0.585 0 0 0.59 0 0.02 0.59 0 0.04 0.59 0 0.06 0.59 0 0.08 0.59 0 0.1 0.59 0 0 0.595 0 0.02 0.595 0 0.04 0.595 0 0.06 0.595 0 0.08 0.595 0 0.1 0.595 0 0 0.6 0 0.02 0.6 0 0.04 0.6 0 0.06 0.6 0 0.08 0.6 0 0.1 0.6 0 0 0.605 0 0.02 0.605 0 0.04 0.605 0 0.06 0.605 0 0.08 0.605 0 0.1 0.605 0 0 0.61 0 0.02 0.61 0 0.04 0.61 0 0.06 0.61 0 0.08 0.61 0 0.1 0.61 0 0 0.615 0 0.02 0.615 0 0.04 0.615 0 0.06 0.615 0 0.08 0.615 0 0.1 0.615 0 0 0.62 0 0.02 0.62 0 0.04 0.62 0 0.06 0.62 0 0.08 0.62 0 0.1 0.62 0 0 0.625 0 0.02 0.625 0 0.04 0.625 0 0.06 0.625 0 0.08 0.625 0 0.1 0.625 0 0 0.63 0 0.02 0.63 0 0.04 0.63 0 0.06 0.63 0 0.08 0.63 0 0.1 0.63 0 0 0.635 0 0.02 0.635 0 0.04 0.635 0 0.06 0.635 0 0.08 0.635 0 0.1 0.635 0 0 0.64 0 0.02 0.64 0 0.04 0.64 0 0.06 0.64 0 0.08 0.64 0 0.1 0.64 0 0 0.645 0 0.02 0.645 0 0.04 0.645 0 0.06 0.645 0 0.08 0.645 0 0.1 0.645 0 0 0.65 0 0.02 0.65 0 0.04 0.65 0 0.06 0.65 0 0.08 0.65 0 0.1 0.65 0 0 0.655 0 0.02 0.655 0 0.04 0.655 0 0.06 0.655 0 0.08 0.655 0 0.1 0.655 0 0 0.66 0 0.02 0.66 0 0.04 0.66 0 0.06 0.66 0 0.08 0.66 0 0.1 0.66 0 0 0.665 0 0.02 0.665 0 0.04 0.665 0 0.06 0.665 0 0.08 0.665 0 0.1 0.665 0 0 0.67 0 0.02 0.67 0 0.04 0.67 0 0.06 0.67 0 0.08 0.67 0 0.1 0.67 0 0 0.675 0 0.02 0.675 0 0.04 0.675 0 0.06 0.675 0 0.08 0.675 0 0.1 0.675 0 0 0.68 0 0.02 0.68 0 0.04 0.68 0 0.06 0.68 0 0.08 0.68 0 0.1 0.68 0 0 0.685 0 0.02 0.685 0 0.04 0.685 0 0.06 0.685 0 0.08 0.685 0 0.1 0.685 0 0 0.69 0 0.02 0.69 0 0.04 0.69 0 0.06 0.69 0 0.08 0.69 0 0.1 
[...]
			<PointData Scalars="VitesseX">
				<DataArray Name="VitesseX" type="Float32" format="ascii">
 0 4.47054e-14 7.68476e-14 4.97565e-14 2.80269e-14 0 0 4.4576e-14 7.40393e-14 4.90486e-14 3.06426e-14 0 0 5.3937e-14 5.28154e-14 6.13372e-14 2.39314e-14 0 0 5.40416e-14 5.46118e-14 4.63763e-14 2.59183e-14 0 0 4.74971e-14 6.59332e-14 2.54317e-14 3.46088e-14 0 0 6.12228e-14 3.0857e-14 5.72743e-14 1.05447e-14 0 0 6.66549e-14 1.78279e-14 6.54613e-14 -8.09408e-15 0 0 5.01712e-14 4.68551e-14 2.97425e-14 7.91219e-15 0 0 3.91629e-14 7.03509e-14 2.62389e-15 2.2717e-14 0 0 3.49567e-14 7.90753e-14 4.89084e-15 2.36467e-14 0 0 3.93561e-14 6.91959e-14 2.06799e-14 2.22644e-14 0 0 4.34909e-14 5.96764e-14 2.54495e-14 2.44735e-14 0 0 7.35756e-15 1.02405e-13 3.65772e-15 3.0259e-14 0 0 1.78345e-14 7.47381e-14 4.58857e-14 1.50864e-14 0 0 4.36271e-14 3.80076e-14 7.39173e-14 2.73823e-14 0 0 1.54278e-14 9.37887e-14 2.01547e-14 6.60076e-14 0 0 2.35107e-14 6.71178e-14 6.70829e-14 4.42319e-14 0 0 1.78701e-14 7.39305e-14 9.12413e-14 3.52226e-14 0 0 2.12545e-14 9.58378e-14 6.49901e-14 8.09711e-14 0 0 3.81187e-14 8.05882e-14 7.6602e-14 9.5084e-14 0 0 -2.18948e-14 1.51378e-13 4.28414e-14 1.22328e-13 0 0 3.44631e-14 6.3229e-14 1.42165e-13 7.57785e-14 0 0 9.33033e-14 3.76874e-14 1.4768e-13 4.97067e-14 0 0 6.74938e-14 1.27497e-13 2.54602e-14 1.23854e-13 0 0 5.61787e-14 1.36221e-13 4.63622e-14 8.23436e-14 0 0 1.19042e-14 1.91815e-13 1.71079e-14 7.01844e-14 0 0 2.63907e-14 1.61385e-13 2.082e-14 9.33905e-14 0 0 1.12103e-13 3.76461e-14 1.13483e-13 6.50628e-14 0 0 1.29367e-13 4.97362e-14 7.62087e-14 7.01481e-14 0 0 1.19393e-13 6.68593e-14 8.10453e-14 1.2998e-14 0 0 1.5187e-13 1.46036e-14 1.3543e-13 -2.60829e-14 0 0 1.2593e-13 5.89868e-14 7.46609e-14 1.78926e-14 0 0 6.05182e-14 1.58887e-13 -1.40773e-14 2.42991e-14 0 0 5.55372e-15 2.26988e-13 -3.04986e-14 1.42402e-14 0 0 1.29548e-14 1.93683e-13 4.65428e-14 -4.12907e-14 0 0 3.51443e-14 1.87263e-13 5.89208e-14 -7.78784e-14 0 0 4.076e-14 1.96273e-13 1.63587e-14 -4.71478e-16 0 0 6.02723e-14 1.57239e-13 4.14674e-14 5.22992e-14 0 0 1.05068e-13 8.87682e-14 1.41929e-13 -1.78568e-14 0 0 1.08897e-13 1.06553e-13 1.10517e-13 -3.45189e-14 0 0 8.92129e-14 1.85855e-13 -7.39831e-14 7.15211e-14 0 0 1.05825e-13 1.38288e-13 -7.55971e-14 6.61123e-14 0 0 1.40438e-13 3.29738e-14 -3.99233e-15 3.5057e-14 0 0 9.08256e-14 8.56342e-14 -1.06008e-13 8.56112e-14 0 0 3.53822e-14 1.07093e-13 -8.81764e-14 3.52395e-14 0 0 3.35098e-14 -1.11259e-14 1.13234e-13 -8.9488e-14 0 0 4.09505e-14 -9.87894e-14 3.01102e-13 -2.13321e-13 0 0 -8.60748e-14 1.81826e-13 4.82303e-14 -4.89132e-14 0 0 -1.73575e-13 3.70364e-13 -7.63968e-14 2.17223e-14 0 0 -6.00488e-14 1.86389e-13 1.3997e-13 -7.80392e-14 0 0 -9.50726e-15 1.12859e-13 1.95752e-13 -5.19211e-14 0 0 -7.04651e-15 1.19384e-13 2.74794e-13 -1.35555e-13 0 0 7.37411e-14 4.78701e-14 3.90876e-13 -1.79558e-13 0 0 6.35418e-14 1.2857e-13 3.11013e-13 -4.3832e-14 0 0 -5.60693e-14 3.89989e-13 7.03082e-14 1.24875e-13 0 0 1.86182e-14 3.96212e-13 5.43515e-14 1.16876e-13 0 0 4.2047e-14 3.15597e-13 1.04232e-13 1.25893e-13 0 0 -5.55336e-14 2.09257e-13 2.36629e-13 1.44372e-13 0 0 -1.11973e-13 1.71902e-13 2.66994e-13 2.57581e-13 0 0 -1.35849e-13 2.78659e-13 2.02689e-13 3.69591e-13 0 0 -8.66684e-14 2.77089e-13 2.75292e-13 3.06807e-13 0 0 -5.92679e-14 1.66162e-13 3.50011e-13 3.40925e-13 0 0 -1.18013e-13 6.643e-14 4.15694e-13 4.26353e-13 0 0 -2.99701e-13 1.92739e-13 3.24474e-13 4.57821e-13 0 0 -2.48049e-13 9.57257e-14 4.83115e-13 2.61757e-13 0 0 -2.01289e-13 1.42142e-13 4.77043e-13 1.8304e-13 0 0 -2.28266e-13 3.54439e-13 2.5291e-13 2.95446e-13 0 0 -5.1952e-14 2.00726e-13 3.59385e-13 2.26173e-13 0 0 -1.64633e-14 2.31859e-13 3.08408e-13 2.23947e-13 0 0 8.91865e-15 2.34651e-13 2.33554e-13 2.34431e-13 0 0 1.0258e-13 1.22579e-13 3.40874e-13 1.10556e-13 0 0 1.43015e-13 1.18009e-13 3.25977e-13 -2.48749e-14 0 0 1.58905e-13 2.40129e-13 1.01543e-13 4.44001e-14 0 0 1.02094e-13 4.80692e-13 -2.26018e-13 8.88488e-14 0 0 7.19147e-14 4.53915e-13 -1.13766e-13 -1.38842e-13 0 0 1.80754e-13 1.74864e-13 2.91934e-13 -5.62458e-13 0 0 3.12496e-13 -5.2122e-14 3.12698e-13 -4.2295e-13 0 0 2.53344e-13 8.79661e-14 -4.36601e-14 1.68166e-13 0 0 1.51921e-13 2.80322e-13 -5.29894e-13 6.87567e-13 0 0 1.74626e-13 1.99503e-13 -4.80483e-13 6.50238e-13 0 0 2.64204e-13 -3.92266e-14 -2.50152e-13 4.34053e-13 0 0 2.30394e-13 -2.44293e-13 2.47643e-14 1.91222e-13 0 0 8.32194e-14 -1.33211e-13 -2.08474e-14 1.8451e-13 0 0 -7.05292e-14 -1.00588e-14 -1.18922e-14 9.53995e-14 0 0 -2.18028e-13 -5.0739e-14 1.9076e-13 -1.29118e-13 0 0 -3.15336e-13 -6.20869e-14 2.32711e-13 -1.3128e-13 0 0 -3.89101e-13 9.30918e-15 8.84663e-14 3.41799e-14 0 0 -4.02847e-13 -1.40284e-14 -8.1877e-14 2.88868e-13 0 0 -2.97819e-13 -2.28993e-13 -1.54642e-13 5.64536e-13 0 0 -1.73613e-13 -3.97262e-13 -2.43991e-13 8.41011e-13 0 0 -1.66688e-13 -4.12785e-13 -4.13637e-13 8.78782e-13 0 0 -2.32785e-13 -3.5924e-13 -4.14333e-13 7.71191e-13 0 0 -3.10322e-13 -3.1433e-13 -3.37064e-13 5.3257e-13 0 0 -3.28326e-13 -3.52921e-13 -2.16034e-13 3.25865e-13 0 0 -3.0679e-13 -4.44857e-13 -1.08279e-13 1.59589e-13 0 0 -2.89577e-13 -4.57794e-13 -1.85425e-14 -1.82829e-14 0 0 -3.10661e-13 -4.45052e-13 7.55436e-14 -1.60881e-13 0 0 -4.47905e-13 -3.71903e-13 7.65504e-14 -1.8729e-13 0 0 -7.7724e-13 -1.36824e-13 3.79805e-14 -1.94111e-13 0 0 -9.76814e-13 5.92232e-14 -6.93783e-14 -1.52403e-13 0 0 -9.68772e-13 5.78044e-14 -1.50147e-13 -4.05943e-14 0 0 -8.18725e-13 -8.88137e-14 -9.14286e-14 4.59583e-14 0 0 -5.58044e-13 -3.81469e-13 9.96424e-14 3.65138e-14 0 0 -4.78357e-13 -4.52301e-13 2.34218e-13 -4.14223e-14 0 0 -4.11116e-13 -4.73243e-13 3.00212e-13 -1.74368e-13 0 0 -2.23902e-13 -5.36622e-13 3.2073e-13 -2.57701e-13 0 0 -6.35024e-15 -5.51626e-13 2.40981e-13 -2.31945e-13 0 0 4.94214e-14 -5.05212e-13 7.63018e-14 -9.49514e-14 0 0 4.87196e-14 -4.07998e-13 1.82538e-14 -1.10423e-14 0 0 3.73162e-14 -2.68965e-13 -1.97448e-14 3.45416e-15 0 0 3.65184e-14 -1.35295e-13 -2.884e-14 -9.40383e-15 0 0 5.21004e-14 -6.45247e-14 1.11271e-14 -1.64954e-14 0 0 9.26727e-14 -1.98076e-14 -1.79569e-14 6.882e-14 0 0 1.81401e-13 -2.61398e-14 6.2421e-15 1.17965e-13 0 0 2.68378e-13 -5.09349e-14 8.99472e-14 9.97623e-14 0 0 3.04447e-13 -3.48337e-14 5.69172e-14 1.9694e-13 0 0 3.04088e-13 1.35388e-15 -3.38062e-14 4.09852e-13 0 0 2.93954e-13 4.58332e-14 -6.52008e-14 5.12412e-13 0 0 2.84288e-13 5.13076e-14 -2.32475e-14 5.21359e-13 0 0 2.55221e-13 7.91566e-14 7.28979e-14 4.67665e-13 0 0 2.53445e-13 9.95465e-14 2.19914e-13 3.52318e-13 0 0 2.77997e-13 1.27496e-13 2.22535e-13 3.40248e-13 0 0 3.20455e-13 1.86415e-13 2.08894e-13 3.21043e-13 0 0 3.25265e-13 2.47177e-13 2.35452e-13 2.62857e-13 0 0 3.0775e-13 3.54617e-13 2.28062e-13 2.23507e-13 0 0 3.36434e-13 3.55873e-13 2.80588e-13 1.50117e-13 0 0 3.83384e-13 3.30444e-13 3.61343e-13 7.48869e-14 0 0 3.79e-13 3.44071e-13 3.87576e-13 3.79797e-14 0 0 3.51537e-13 3.55478e-13 4.36685e-13 5.73163e-15 0 0 3.20859e-13 3.51171e-13 4.68617e-13 3.04619e-15 0 0 2.86531e-13 3.70628e-13 4.27541e-13 4.81824e-14 0 0 2.61286e-13 3.8667e-13 4.12898e-13 7.95558e-14 0 0 2.34888e-13 3.92056e-13 4.271e-13 7.28162e-14 0 0 2.36925e-13 4.08148e-13 4.09212e-13 6.17195e-14 0 0 2.49435e-13 4.21341e-13 3.50362e-13 4.55288e-14 0 0 2.48275e-13 4.27596e-13 3.13092e-13 7.93846e-14 0 0 2.52892e-13 4.00596e-13 3.16107e-13 1.17895e-13 0 0 2.77435e-13 3.44661e-13 3.34653e-13 1.5198e-13 0 0 2.97361e-13 3.13494e-13 3.4288e-13 2.3177e-13 0 0 2.86632e-13 2.77679e-13 3.76588e-13 3.1338e-13 0 0 2.5015e-13 2.8015e-13 4.02204e-13 3.29137e-13 0 0 1.72194e-13 3.30807e-13 3.99708e-13 2.91648e-13 0 0 1.37824e-13 3.57735e-13 3.66088e-13 2.65565e-13 0 0 1.35722e-13 3.41401e-13 3.6552e-13 2.59963e-13 0 0 1.03896e-13 3.50289e-13 3.5614e-13 2.86273e-13 0 0 7.35698e-14 3.56378e-13 2.86709e-13 3.26616e-13 0 0 8.27054e-14 3.03031e-13 2.89492e-13 2.60492e-13 0 0 1.14202e-13 2.19171e-13 2.68186e-13 1.38646e-13 0 0 1.2246e-13 2.10728e-13 2.09264e-13 -5.90672e-14 0 0 1.03271e-13 1.98605e-13 1.29838e-13 -2.50998e-13 0 0 7.01071e-14 2.12448e-13 2.91503e-14 -2.98854e-13 0 0 8.617e-14 1.85589e-13 8.6099e-14 -3.01578e-13 0 0 7.88196e-14 1.48045e-13 8.58721e-14 1.4163e-13 0 0 6.17698e-14 9.99254e-14 9.53719e-14 5.49404e-13 0 0 6.06342e-14 6.01529e-14 1.93897e-13 4.42982e-13 0 0 9.18004e-14 5.48483e-14 2.30559e-13 2.06499e-13 0 0 1.15925e-13 5.57107e-14 2.31789e-13 1.13551e-13 0 0 4.17926e-14 1.60262e-13 8.01174e-14 2.94162e-13 0 0 1.10212e-13 6.93251e-14 1.02678e-13 3.15176e-13 0 0 1.03248e-13 8.94078e-14 3.31899e-14 3.99662e-13 0 0 1.15864e-13 -2.26268e-14 2.27031e-13 2.59381e-13 0 0 1.04071e-13 -5.67949e-14 3.27839e-13 1.42949e-13 0 0 5.39249e-14 6.1404e-15 2.57815e-13 2.51578e-13 0 0 8.96267e-14 -8.62846e-14 3.66033e-13 2.36134e-13 0 0 8.49938e-14 -9.52433e-14 3.65173e-13 2.69232e-13 0 0 8.37369e-14 -5.04244e-14 3.04955e-13 2.94427e-13 0 0 1.44648e-13 -1.22681e-13 4.10411e-13 1.5546e-13 0 0 1.53287e-13 -9.48432e-14 3.65856e-13 2.10521e-13 0 0 1.38516e-13 -1.17225e-14 2.67091e-13 3.11858e-13 0 0 1.90762e-13 -9.75532e-14 4.00714e-13 1.9273e-13 0 0 8.81674e-14 6.2119e-14 2.78002e-13 2.14215e-13 0 0 4.72392e-14 1.5788e-13 1.57118e-13 3.63175e-13 0 0 1.06017e-13 4.62235e-14 2.99275e-13 3.01966e-13 0 0 2.74825e-14 1.75145e-13 1.84628e-13 3.02918e-13 0 0 4.40152e-14 1.77151e-13 1.60092e-13 3.52402e-13 0 0 5.44446e-14 1.47755e-13 2.23278e-13 3.27751e-13 0 0 8.76613e-14 1.51234e-13 2.41658e-13 2.8617e-13 0 0 1.64981e-13 1.86708e-13 2.13115e-13 2.64342e-13 0 0 1.55282e-13 3.13657e-13 1.91654e-13 1.63902e-13 0 0 2.4017e-13 2.52061e-13 3.11598e-13 8.9671e-14 0 0 3.44999e-13 1.57542e-13 4.32356e-13 3.19212e-14 0 0 2.24977e-13 3.98762e-13 3.08556e-13 3.00091e-14 0 0 2.01435e-13 5.08177e-13 2.73156e-13 -2.36034e-14 0 0 4.15914e-13 1.57344e-13 5.78329e-13 -1.84659e-13 0 0 3.72803e-13 2.15137e-13 3.3295e-13 9.64622e-14 0 0 3.61042e-13 3.82778e-13 -2.53999e-14 5.22486e-13 0 0 3.5325e-13 4.47728e-13 -4.25108e-14 5.87052e-13 0 0 4.01698e-13 2.52173e-13 2.91322e-13 2.64303e-13 0 0 4.1731e-13 1.4064e-13 3.97352e-13 1.36371e-13 0 0 1.87416e-13 3.39424e-13 1.39562e-13 3.93956e-13 0 0 1.95575e-13 1.01525e-13 5.07694e-13 6.39837e-14 0 0 3.33676e-13 -4.26682e-14 4.65826e-13 1.79551e-13 0 0 2.45082e-13 2.22853e-13 -5.9087e-14 7.5336e-13 0 0 1.65744e-13 2.78843e-13 -1.1748e-13 7.81568e-13 0 0 3.27433e-13 -2.15389e-14 4.03325e-14 7.45967e-13 0 0 3.1369e-13 -9.46263e-14 2.89313e-13 4.70809e-13 0 0 3.71828e-13 -6.06493e-15 4.48832e-13 6.41978e-14 0 0 4.89763e-13 1.81065e-13 3.51702e-13 -2.00008e-13 0 0 4.90489e-13 3.4336e-13 6.19231e-14 -7.23284e-14 0 0 4.51246e-13 4.29866e-13 -2.97743e-13 2.63649e-13 0 0 3.81273e-13 5.05621e-13 -4.41511e-13 3.64103e-13 0
				</DataArray>
				<DataArray Name="VitesseY" type="Float32" format="ascii">