<?xml version="1.0"?>
<VTKFile type="PolyData">
	<PolyData>
		<Piece NumberOfPoints="1206" NumberOfPolys="1000">
			<Points>
				<DataArray type="Float32" NumberOfComponents="3" format="ascii">
 0 0 0 0.02 0 0 0.04 0 0 0.06 0 0 0.08 0 0 0.1 0 0 0 0.005 0 0.02 0.005 0 0.04 0.005 0 0.06 0.005 0 0.08 0.005 0 0.1 0.005 0 0 0.01 0 0.02 0.01 0 0.04 0.01 0 0.06 0.01 0 0.08 0.01 0 0.1 0.01 0 0 0.015 0 0.02 0.015 0 0.04 0.015 0 0.06 0.015 0 0.08 0.015 0 0.1 0.015 0 0 0.02 0 0.02 0.02 0 0.04 0.02 0 0.06 0.02 0 0.08 0.02 0 0.1 0.02 0 0 0.025 0 0.02 0.025 0 0.04 0.025 0 0.06 0.025 0 0.08 0.025 0 0.1 0.025 0 0 0.03 0 0.02 0.03 0 0.04 0.03 0 0.06 0.03 0 0.08 0.03 0 0.1 0.03 0 0 0.035 0 0.02 0.035 0 0.04 0.035 0 0.06 0.035 0 0.08 0.035 0 0.1 0.035 0 0 0.04 0 0.02 0.04 0 0.04 0.04 0 0.06 0.04 0 0.08 0.04 0 0.1 0.04 0 0 0.045 0 0.02 0.045 0 0.04 0.045 0 0.06 0.045 0 0.08 0.045 0 0.1 0.045 0 0 0.05 0 0.02 0.05 0 0.04 0.05 0 0.06 0.05 0 0.08 0.05 0 0.1 0.05 0 0 0.055 0 0.02 0.055 0 0.04 0.055 0 0.06 0.055 0 0.08 0.055 0 0.1 0.055 0 0 0.06 0 0.02 0.06 0 0.04 0.06 0 0.06 0.06 0 0.08 0.06 0 0.1 0.06 0 0 0.065 0 0.02 0.065 0 0.04 0.065 0 0.06 0.065 0 0.08 0.065 0 0.1 0.065 0 0 0.07 0 0.02 0.07 0 0.04 0.07 0 0.06 0.07 0 0.08 0.07 0 0.1 0.07 0 0 0.075 0 0.02 0.075 0 0.04 0.075 0 0.06 0.075 0 0.08 0.075 0 0.1 0.075 0 0 0.08 0 0.02 0.08 0 0.04 0.08 0 0.06 0.08 0 0.08 0.08 0 0.1 0.08 0 0 0.085 0 0.02 0.085 0 0.04 0.085 0 0.06 0.085 0 0.08 0.085 0 0.1 0.085 0 0 0.09 0 0.02 0.09 0 0.04 0.09 0 0.06 0.09 0 0.08 0.09 0 0.1 0.09 0 0 0.095 0 0.02 0.095 0 0.04 0.095 0 0.06 0.095 0 0.08 0.095 0 0.1 0.095 0 0 0.1 0 0.02 0.1 0 0.04 0.1 0 0.06 0.1 0 0.08 0.1 0 0.1 0.1 0 0 0.105 0 0.02 0.105 0 0.04 0.105 0 0.06 0.105 0 0.08 0.105 0 0.1 0.105 0 0 0.11 0 0.02 0.11 0 0.04 0.11 0 0.06 0.11 0 0.08 0.11 0 0.1 0.11 0 0 0.115 0 0.02 0.115 0 0.04 0.115 0 0.06 0.115 0 0.08 0.115 0 0.1 0.115 0 0 0.12 0 0.02 0.12 0 0.04 0.12 0 0.06 0.12 0 0.08 0.12 0 0.1 0.12 0 0 0.125 0 0.02 0.125 0 0.04 0.125 0 0.06 0.125 0 0.08 0.125 0 0.1 0.125 0 0 0.13 0 0.02 0.13 0 0.04 0.13 0 0.06 0.13 0 0.08 0.13 0 0.1 0.13 0 0 0.135 0 0.02 0.135 0 0.04 0.135 0 0.06 0.135 0 0.08 0.135 0 0.1 0.135 0 0 0.14 0 0.02 0.14 0 0.04 0.14 0 0.06 0.14 0 0.08 0.14 0 0.1 0.14 0 0 0.145 0 0.02 0.145 0 0.04 0.145 0 0.06 0.145 0 0.08 0.145 0 0.1 0.145 0 0 0.15 0 0.02 0.15 0 0.04 0.15 0 0.06 0.15 0 0.08 0.15 0 0.1 0.15 0 0 0.155 0 0.02 0.155 0 0.04 0.155 0 0.06 0.155 0 0.08 0.155 0 0.1 0.155 0 0 0.16 0 0.02 0.16 0 0.04 0.16 0 0.06 0.16 0 0.08 0.16 0 0.1 0.16 0 0 0.165 0 0.02 0.165 0 0.04 0.165 0 0.06 0.165 0 0.08 0.165 0 0.1 0.165 0 0 0.17 0 0.02 0.17 0 0.04 0.17 0 0.06 0.17 0 0.08 0.17 0 0.1 0.17 0 0 0.175 0 0.02 0.175 0 0.04 0.175 0 0.06 0.175 0 0.08 0.175 0 0.1 0.175 0 0 0.18 0 0.02 0.18 0 0.04 0.18 0 0.06 0.18 0 0.08 0.18 0 0.1 0.18 0 0 0.185 0 0.02 0.185 0 0.04 0.185 0 0.06 0.185 0 0.08 0.185 0 0.1 0.185 0 0 0.19 0 0.02 0.19 0 0.04 0.19 0 0.06 0.19 0 0.08 0.19 0 0.1 0.19 0 0 0.195 0 0.02 0.195 0 0.04 0.195 0 0.06 0.195 0 0.08 0.195 0 0.1 0.195 0 0 0.2 0 0.02 0.2 0 0.04 0.2 0 0.06 0.2 0 0.08 0.2 0 0.1 0.2 0 0 0.205 0 0.02 0.205 0 0.04 0.205 0 0.06 0.205 0 0.08 0.205 0 0.1 0.205 0 0 0.21 0 0.02 0.21 0 0.04 0.21 0 0.06 0.21 0 0.08 0.21 0 0.1 0.21 0 0 0.215 0 0.02 0.215 0 0.04 0.215 0 0.06 0.215 0 0.08 0.215 0 0.1 0.215 0 0 0.22 0 0.02 0.22 0 0.04 0.22 0 0.06 0.22 0 0.08 0.22 0 0.1 0.22 0 0 0.225 0 0.02 0.225 0 0.04 0.225 0 0.06 0.225 0 0.08 0.225 0 0.1 0.225 0 0 0.23 0 0.02 0.23 0 0.04 0.23 0 0.06 0.23 0 0.08 0.23 0 0.1 0.23 0 0 0.235 0 0.02 0.235 0 0.04 0.235 0 0.06 0.235 0 0.08 0.235 0 0.1 0.235 0 0 0.24 0 0.02 0.24 0 0.04 0.24 0 0.06 0.24 0 0.08 0.24 0 0.1 0.24 0 0 0.245 0 0.02 0.245 0 0.04 0.245 0 0.06 0.245 0 0.08 0.245 0 0.1 0.245 0 0 0.25 0 0.02 0.25 0 0.04 0.25 0 0.06 0.25 0 0.08 0.25 0 0.1 0.25 0 0 0.255 0 0.02 0.255 0 0.04 0.255 0 0.06 0.255 0 0.08 0.255 0 0.1 0.255 0 0 0.26 0 0.02 0.26 0 0.04 0.26 0 0.06 0.26 0 0.08 0.26 0 0.1 0.26 0 0 0.265 0 0.02 0.265 0 0.04 0.265 0 0.06 0.265 0 0.08 0.265 0 0.1 0.265 0 0 0.27 0 0.02 0.27 0 0.04 0.27 0 0.06 0.27 0 0.08 0.27 0 0.1 0.27 0 0 0.275 0 0.02 0.275 0 0.04 0.275 0 0.06 0.275 0 0.08 0.275 0 0.1 0.275 0 0 0.28 0 0.02 0.28 0 0.04 0.28 0 0.06 0.28 0 0.08 0.28 0 0.1 0.28 0 0 0.285 0 0.02 0.285 0 0.04 0.285 0 0.06 0.285 0 0.08 0.285 0 0.1 0.285 0 0 0.29 0 0.02 0.29 0 0.04 0.29 0 0.06 0.29 0 0.08 0.29 0 0.1 0.29 0 0 0.295 0 0.02 0.295 0 0.04 0.295 0 0.06 0.295 0 0.08 0.295 0 0.1 0.295 0 0 0.3 0 0.02 0.3 0 0.04 0.3 0 0.06 0.3 0 0.08 0.3 0 0.1 0.3 0 0 0.305 0 0.02 0.305 0 0.04 0.305 0 0.06 0.305 0 0.08 0.305 0 0.1 0.305 0 0 0.31 0 0.02 0.31 0 0.04 0.31 0 0.06 0.31 0 0.08 0.31 0 0.1 0.31 0 0 0.315 0 0.02 0.315 0 0.04 0.315 0 0.06 0.315 0 0.08 0.315 0 0.1 0.315 0 0 0.32 0 0.02 0.32 0 0.04 0.32 0 0.06 0.32 0 0.08 0.32 0 0.1 0.32 0 0 0.325 0 0.02 0.325 0 0.04 0.325 0 0.06 0.325 0 0.08 0.325 0 0.1 0.325 0 0 0.33 0 0.02 0.33 0 0.04 0.33 0 0.06 0.33 0 0.08 0.33 0 0.1 0.33 0 0 0.335 0 0.02 0.335 0 0.04 0.335 0 0.06 0.335 0 0.08 0.335 0 0.1 0.335 0 0 0.34 0 0.02 0.34 0 0.04 0.34 0 0.06 0.34 0 0.08 0.34 0 0.1 0.34 0 0 0.345 0 0.02 0.345 0 0.04 0.345 0 0.06 0.345 0 0.08 0.345 0 0.1 0.345 0 0 0.35 0 0.02 0.35 0 0.04 0.35 0 0.06 0.35 0 0.08 0.35 0 0.1 0.35 0 0 0.355 0 0.02 0.355 0 0.04 0.355 0 0.06 0.355 0 0.08 0.355 0 0.1 0.355 0 0 0.36 0 0.02 0.36 0 0.04 0.36 0 0.06 0.36 0 0.08 0.36 0 0.1 0.36 0 0 0.365 0 0.02 0.365 0 0.04 0.365 0 0.06 0.365 0 0.08 0.365 0 0.1 0.365 0 0 0.37 0 0.02 0.37 0 0.04 0.37 0 0.06 0.37 0 0.08 0.37 0 0.1 0.37 0 0 0.375 0 0.02 0.375 0 0.04 0.375 0 0.06 0.375 0 0.08 0.375 0 0.1 0.375 0 0 0.38 0 0.02 0.38 0 0.04 0.38 0 0.06 0.38 0 0.08 0.38 0 0.1 0.38 0 0 0.385 0 0.02 0.385 0 0.04 0.385 0 0.06 0.385 0 0.08 0.385 0 0.1 0.385 0 0 0.39 0 0.02 0.39 0 0.04 0.39 0 0.06 0.39 0 0.08 0.39 0 0.1 0.39 0 0 0.395 0 0.02 0.395 0 0.04 0.395 0 0.06 0.395 0 0.08 0.395 0 0.1 0.395 0 0 0.4 0 0.02 0.4 0 0.04 0.4 0 0.06 0.4 0 0.08 0.4 0 0.1 0.4 0 0 0.405 0 0.02 0.405 0 0.04 0.405 0 0.06 0.405 0 0.08 0.405 0 0.1 0.405 0 0 0.41 0 0.02 0.41 0 0.04 0.41 0 0.06 0.41 0 0.08 0.41 0 0.1 0.41 0 0 0.415 0 0.02 0.415 0 0.04 0.415 0 0.06 0.415 0 0.08 0.415 0 0.1 0.415 0 0 0.42 0 0.02 0.42 0 0.04 0.42 0 0.06 0.42 0 0.08 0.42 0 0.1 0.42 0 0 0.425 0 0.02 0.425 0 0.04 0.425 0 0.06 0.425 0 0.08 0.425 0 0.1 0.425 0 0 0.43 0 0.02 0.43 0 0.04 0.43 0 0.06 0.43 0 0.08 0.43 0 0.1 0.43 0 0 0.435 0 0.02 0.435 0 0.04 0.435 0 0.06 0.435 0 0.08 0.435 0 0.1 0.435 0 0 0.44 0 0.02 0.44 0 0.04 0.44 0 0.06 0.44 0 0.08 0.44 0 0.1 0.44 0 0 0.445 0 0.02 0.445 0 0.04 0.445 0 0.06 0.445 0 0.08 0.445 0 0.1 0.445 0 0 0.45 0 0.02 0.45 0 0.04 0.45 0 0.06 0.45 0 0.08 0.45 0 0.1 0.45 0 0 0.455 0 0.02 0.455 0 0.04 0.455 0 0.06 0.455 0 0.08 0.455 0 0.1 0.455 0 0 0.46 0 0.02 0.46 0 0.04 0.46 0 0.06 0.46 0 0.08 0.46 0 0.1 0.46 0 0 0.465 0 0.02 0.465 0 0.04 0.465 0 0.06 0.465 0 0.08 0.465 0 0.1 0.465 0 0 0.47 0 0.02 0.47 0 0.04 0.47 0 0.06 0.47 0 0.08 0.47 0 0.1 0.47 0 0 0.475 0 0.02 0.475 0 0.04 0.475 0 0.06 0.475 0 0.08 0.475 0 0.1 0.475 0 0 0.48 0 0.02 0.48 0 0.04 0.48 0 0.06 0.48 0 0.08 0.48 0 0.1 0.48 0 0 0.485 0 0.02 0.485 0 0.04 0.485 0 0.06 0.485 0 0.08 0.485 0 0.1 0.485 0 0 0.49 0 0.02 0.49 0 0.04 0.49 0 0.06 0.49 0 0.08 0.49 0 0.1 0.49 0 0 0.495 0 0.02 0.495 0 0.04 0.495 0 0.06 0.495 0 0.08 0.495 0 0.1 0.495 0 0 0.5 0 0.02 0.5 0 0.04 0.5 0 0.06 0.5 0 0.08 0.5 0 0.1 0.5 0 0 0.505 0 0.02 0.505 0 0.04 0.505 0 0.06 0.505 0 0.08 0.505 0 0.1 0.505 0 0 0.51 0 0.02 0.51 0 0.04 0.51 0 0.06 0.51 0 0.08 0.51 0 0.1 0.51 0 0 0.515 0 0.02 0.515 0 0.04 0.515 0 0.06 0.515 0 0.08 0.515 0 0.1 0.515 0 0 0.52 0 0.02 0.52 0 0.04 0.52 0 0.06 0.52 0 0.08 0.52 0 0.1 0.52 0 0 0.525 0 0.02 0.525 0 0.04 0.525 0 0.06 0.525 0 0.08 0.525 0 0.1 0.525 0 0 0.53 0 0.02 0.53 0 0.04 0.53 0 0.06 0.53 0 0.08 0.53 0 0.1 0.53 0 0 0.535 0 0.02 0.535 0 0.04 0.535 0 0.06 0.535 0 0.08 0.535 0 0.1 0.535 0 0 0.54 0 0.02 0.54 0 0.04 0.54 0 0.06 0.54 0 0.08 0.54 0 0.1 0.54 0 0 0.545 0 0.02 0.545 0 0.04 0.545 0 0.06 0.545 0 0.08 0.545 0 0.1 0.545 0 0 0.55 0 0.02 0.55 0 0.04 0.55 0 0.06 0.55 0 0.08 0.55 0 0.1 0.55 0 0 0.555 0 0.02 0.555 0 0.04 0.555 0 0.06 0.555 0 0.08 0.555 0 0.1 0.555 0 0 0.56 0 0.02 0.56 0 0.04 0.56 0 0.06 0.56 0 0.08 0.56 0 0.1 0.56 0 0 0.565 0 0.02 0.565 0 0.04 0.565 0 0.06 0.565 0 0.08 0.565 0 0.1 0.565 0 0 0.57 0 0.02 0.57 0 0.04 0.57 0 0.06 0.57 0 0.08 0.57 0 0.1 0.57 0 0 0.575 0 0.02 0.575 0 0.04 0.575 0 0.06 0.575 0 0.08 0.575 0 0.1 0.575 0 0 0.58 0 0.02 0.58 0 0.04 0.58 0 0.06 0.58 0 0.08 0.58 0 0.1 0.58 0 0 0.585 0 0.02 0.585 0 0.04 0.585 0 0.06 0.585 0 0.08 0.585 0 0.1 0.585 0 0 0.59 0 0.02 0.59 0 0.04 0.59 0 0.06 0.59 0 0.08 0.59 0 0.1 0.59 0 0 0.595 0 0.02 0.595 0 0.04 0.595 0 0.06 0.595 0 0.08 0.595 0 0.1 0.595 0 0 0.6 0 0.02 0.6 0 0.04 0.6 0 0.06 0.6 0 0.08 0.6 0 0.1 0.6 0 0 0.605 0 0.02 0.605 0 0.04 0.605 0 0.06 0.605 0 0.08 0.605 0 0.1 0.605 0 0 0.61 0 0.02 0.61 0 0.04 0.61 0 0.06 0.61 0 0.08 0.61 0 0.1 0.61 0 0 0.615 0 0.02 0.615 0 0.04 0.615 0 0.06 0.615 0 0.08 0.615 0 0.1 0.615 0 0 0.62 0 0.02 0.62 0 0.04 0.62 0 0.06 0.62 0 0.08 0.62 0 0.1 0.62 0 0 0.625 0 0.02 0.625 0 0.04 0.625 0 0.06 0.625 0 0.08 0.625 0 0.1 0.625 0 0 0.63 0 0.02 0.63 0 0.04 0.63 0 0.06 0.63 0 0.08 0.63 0 0.1 0.63 0 0 0.635 0 0.02 0.635 0 0.04 0.635 0 0.06 0.635 0 0.08 0.635 0 0.1 0.635 0 0 0.64 0 0.02 0.64 0 0.04 0.64 0 0.06 0.64 0 0.08 0.64 0 0.1 0.64 0 0 0.645 0 0.02 0.645 0 0.04 0.645 0 0.06 0.645 0 0.08 0.645 0 0.1 0.645 0 0 0.65 0 0.02 0.65 0 0.04 0.65 0 0.06 0.65 0 0.08 0.65 0 0.1 0.65 0 0 0.655 0 0.02 0.655 0 0.04 0.655 0 0.06 0.655 0 0.08 0.655 0 0.1 0.655 0 0 0.66 0 0.02 0.66 0 0.04 0.66 0 0.06 0.66 0 0.08 0.66 0 0.1 0.66 0 0 0.665 0 0.02 0.665 0 0.04 0.665 0 0.06 0.665 0 0.08 0.665 0 0.1 0.665 0 0 0.67 0 0.02 0.67 0 0.04 0.67 0 0.06 0.67 0 0.08 0.67 0 0.1 0.67 0 0 0.675 0 0.02 0.675 0 0.04 0.675 0 0.06 0.675 0 0.08 0.675 0 0.1 0.675 0 0 0.68 0 0.02 0.68 0 0.04 0.68 0 0.06 0.68 0 0.08 0.68 0 0.1 0.68 0 0 0.685 0 0.02 0.685 0 0.04 0.685 0 0.06 0.685 0 0.08 0.685 0 0.1 0.685 0 0 0.69 0 0.02 0.69 0 0.04 0.69 0 0.06 0.69 0 0.08 0.69 0 0.1 
[...]
			<PointData Scalars="VitesseX">
				<DataArray Name="VitesseX" type="Float32" format="ascii">
 0 -2.27517e-14 -9.42968e-15 -1.76767e-14 2.75525e-14 0 0 -2.3759e-14 -9.26252e-15 -1.20406e-14 2.14781e-14 0 0 -1.81492e-14 -1.99676e-14 3.90134e-15 1.01133e-14 0 0 -2.99234e-14 -2.05596e-15 -1.68875e-14 2.49368e-14 0 0 -5.43958e-14 2.63622e-14 -3.94021e-14 3.61529e-14 0 0 -3.68535e-14 -1.65925e-14 6.8943e-15 5.64343e-16 0 0 -9.20935e-15 -6.0642e-14 3.06103e-14 -1.57987e-14 0 0 -2.1669e-14 -3.85394e-14 -1.98102e-14 2.15241e-14 0 0 -2.4631e-14 -5.38305e-14 -2.10679e-14 3.28222e-14 0 0 -6.55179e-14 -1.30034e-14 -6.44601e-14 7.74762e-14 0 0 -1.43448e-13 8.10312e-14 -1.21575e-13 1.18744e-13 0 0 -9.72859e-14 -2.71676e-14 3.78267e-14 1.31e-14 0 0 -9.73145e-14 -1.96454e-14 5.89102e-14 -1.25403e-14 0 0 -8.1268e-14 -3.68251e-14 8.96935e-14 -2.31765e-14 0 0 -3.3246e-14 -1.03918e-13 1.25716e-13 -2.48997e-14 0 0 -7.57582e-14 -1.46835e-14 -4.2392e-15 6.50125e-14 0 0 -4.35033e-14 -4.34639e-14 -7.02788e-15 7.93252e-14 0 0 -7.08453e-14 1.7775e-14 -9.14063e-14 1.41051e-13 0 0 -1.03184e-13 7.33298e-14 -1.48078e-13 1.53059e-13 0 0 -7.56097e-14 2.61491e-14 -9.47272e-14 9.0821e-14 0 0 -6.84279e-14 -2.69466e-14 -3.03609e-14 4.24963e-14 0 0 -5.69092e-14 -7.78223e-14 1.2038e-14 -3.18669e-15 0 0 -1.09854e-13 -1.14394e-15 -4.47706e-14 -6.86643e-15 0 0 -1.4287e-13 5.49474e-14 -1.77892e-14 -1.34637e-13 0 0 -6.83413e-14 -3.79629e-15 3.33957e-14 -2.22595e-13 0 0 -3.27817e-14 -2.66248e-14 -5.00104e-14 -1.3225e-13 0 0 -9.13452e-14 4.13287e-14 -1.34054e-13 -1.5053e-13 0 0 -1.6545e-13 8.91522e-14 -1.23749e-13 -2.41572e-13 0 0 -1.29142e-13 -1.76484e-14 -3.42701e-14 -2.88768e-13 0 0 -1.16222e-13 -2.77753e-14 -4.21724e-14 -2.59532e-13 0 0 -5.98681e-14 -1.19551e-13 7.44169e-14 -2.92907e-13 0 0 -2.56442e-14 -1.47725e-13 9.66573e-14 -2.29591e-13 0 0 -1.68266e-13 8.91237e-14 -1.0458e-13 -1.78147e-14 0 0 -1.1589e-13 -7.45535e-15 1.41789e-14 -8.65891e-15 0 0 -1.41434e-13 5.21292e-14 -1.23069e-13 1.9533e-13 0 0 -1.27182e-13 -1.45366e-14 -3.48461e-14 1.44757e-13 0 0 -2.77602e-13 1.51941e-13 -4.59674e-14 7.68517e-14 0 0 -1.00432e-13 -9.16688e-14 2.07235e-13 -2.68962e-14 0 0 -8.10555e-15 -1.35515e-13 2.13011e-13 -6.38216e-14 0 0 -2.63026e-13 3.18994e-13 -1.84253e-13 2.12753e-14 0 0 -1.32136e-13 3.68981e-14 8.37058e-14 -1.60177e-13 0 0 -4.75508e-14 -1.98029e-13 1.64664e-13 -7.19504e-14 0 0 3.27586e-14 -3.65355e-13 2.01003e-13 5.28055e-15 0 0 -6.11402e-14 -2.38714e-13 9.32442e-14 1.71765e-14 0 0 -2.06573e-13 -9.77917e-14 1.36146e-13 -1.66877e-13 0 0 -1.84508e-13 -2.8002e-13 4.97243e-13 -4.84274e-13 0 0 -3.54927e-13 -2.59738e-14 2.80003e-13 -4.08556e-13 0 0 -2.92808e-13 -3.74682e-14 2.55491e-13 -4.26586e-13 0 0 -7.34848e-14 -2.06016e-13 3.01299e-13 -3.95663e-13 0 0 -2.71625e-13 2.27196e-13 -1.29516e-13 -1.52408e-13 0 0 -4.90328e-13 5.82715e-13 -3.19535e-13 -1.95314e-13 0 0 -4.91036e-13 6.57235e-13 -4.07984e-13 -1.8569e-13 0 0 -1.40397e-15 -4.68838e-14 2.41464e-13 -5.78364e-13 0 0 -4.20587e-14 -5.43731e-14 3.03109e-13 -6.39774e-13 0 0 -5.52312e-13 6.0003e-13 -2.64202e-13 -3.3499e-13 0 0 -5.2802e-13 4.97727e-13 -6.84328e-14 -4.85568e-13 0 0 -4.02522e-13 2.55779e-13 4.63776e-14 -3.90364e-13 0 0 -1.84594e-13 -5.93877e-14 1.85105e-13 -3.6008e-13 0 0 -3.11313e-13 9.58409e-14 5.4504e-14 -2.5779e-13 0 0 -5.14493e-13 3.36486e-13 -1.59022e-13 -1.51239e-13 0 0 -3.00658e-13 1.17482e-13 -1.77648e-14 -3.49029e-13 0 0 -7.4596e-14 -4.17148e-14 -4.60671e-14 -3.53881e-13 0 0 -7.11775e-14 -3.96613e-15 -1.89714e-13 -1.7952e-13 0 0 -3.00097e-13 3.55948e-13 -6.48925e-13 2.34728e-13 0 0 -1.45264e-13 1.83318e-13 -6.08785e-13 2.70865e-13 0 0 4.6437e-14 -8.41562e-14 -2.61212e-13 4.00504e-14 0 0 -2.35516e-14 -8.9029e-14 -2.17731e-14 -1.1902e-13 0 0 -8.45914e-14 -2.02752e-13 3.40466e-13 -3.3701e-13 0 0 -5.30138e-13 3.46201e-13 8.96966e-16 -9.04052e-14 0 0 -6.00338e-13 4.69934e-13 -8.85369e-14 5.42359e-14 0 0 -1.22845e-13 -1.65543e-13 4.71931e-13 -3.25822e-13 0 0 -2.62938e-13 9.37271e-14 2.20781e-13 -2.85801e-13 0 0 -5.27124e-13 4.98758e-13 -9.69133e-14 -1.71385e-13 0 0 -5.04854e-13 4.96363e-13 3.42282e-14 -3.95384e-13 0 0 -3.14675e-13 3.57954e-13 7.79838e-14 -3.96666e-13 0 0 -2.39387e-14 2.90811e-14 2.77008e-13 -4.38117e-13 0 0 -1.66345e-13 2.11477e-13 1.01068e-13 -3.40758e-13 0 0 -4.55444e-13 5.9225e-13 -2.63613e-13 -2.91991e-14 0 0 -2.49432e-13 3.67761e-13 -1.83047e-13 1.06787e-13 0 0 -3.61955e-15 4.32781e-14 -2.04319e-14 3.76009e-14 0 0 -2.06026e-13 2.48323e-13 -9.67724e-14 -6.01644e-14 0 0 -1.20704e-13 -4.07478e-15 2.20877e-13 -2.53215e-13 0 0 6.17482e-15 -3.87838e-13 6.66629e-13 -5.35386e-13 0 0 -2.83943e-13 -8.3912e-14 3.28108e-13 -1.39797e-13 0 0 -4.88805e-13 3.63384e-13 -2.95043e-13 4.99347e-13 0 0 -2.29303e-13 9.07585e-14 -1.10659e-13 3.20161e-13 0 0 5.76061e-13 -8.74595e-13 4.12031e-13 -5.21818e-14 0 0 1.88566e-13 -4.86688e-13 5.33106e-14 1.38674e-13 0 0 -1.08083e-12 5.69452e-13 -3.20306e-13 3.04246e-13 0 0 -7.41931e-13 2.13112e-13 -2.85782e-13 6.49281e-13 0 0 5.11892e-14 -5.96378e-13 -6.31564e-15 8.1108e-13 0 0 2.14015e-13 -8.29639e-13 2.60754e-13 5.67304e-13 0 0 -2.19663e-13 -2.80114e-13 1.35771e-13 3.0296e-13 0 0 -1.21334e-12 7.50015e-13 3.42028e-14 -1.44565e-13 0 0 -1.31915e-12 8.50807e-13 -7.5407e-14 -2.36962e-13 0 0 -4.30132e-13 1.77337e-13 1.45605e-13 -1.89334e-13 0 0 4.64122e-13 -4.93247e-13 3.46093e-13 -1.80212e-13 0 0 2.93148e-13 -2.62746e-13 1.27993e-13 -1.95542e-13 0 0 1.89578e-13 -3.66438e-13 1.04467e-13 -5.9069e-14 0 0 3.37737e-15 -3.47581e-13 8.3053e-14 1.94085e-14 0 0 -4.09716e-13 2.72408e-14 -2.48006e-14 -8.19459e-14 0 0 -4.37944e-13 2.18588e-13 -2.01333e-13 -5.20565e-14 0 0 -1.46605e-13 2.67937e-13 -5.51231e-13 2.72085e-13 0 0 -2.74681e-14 4.0427e-13 -9.19671e-13 3.80604e-13 0 0 -8.37331e-14 6.107e-13 -9.23618e-13 2.85278e-13 0 0 -1.76949e-13 6.08506e-13 -7.83727e-13 -1.23526e-14 0 0 -2.12194e-13 4.69863e-13 -5.04676e-13 -2.91971e-13 0 0 -2.27505e-13 1.19706e-13 -2.10369e-13 -4.66171e-13 0 0 -2.59829e-13 -1.76357e-13 -1.73926e-13 -4.82961e-13 0 0 -3.47128e-13 -2.67154e-13 -2.31771e-13 -4.10289e-13 0 0 -4.04485e-13 -3.9988e-13 -2.07135e-13 -3.54283e-13 0 0 -3.84077e-13 -5.22203e-13 -1.4831e-13 -3.43754e-13 0 0 -3.78831e-13 -4.88199e-13 -2.41878e-13 -2.58346e-13 0 0 -4.10276e-13 -2.64645e-13 -5.35584e-13 5.02621e-14 0 0 -4.14028e-13 -1.63627e-13 -4.69834e-13 3.56718e-14 0 0 -2.55749e-13 -2.88945e-13 -1.52975e-13 -1.59069e-13 0 0 -2.65901e-13 -2.277e-13 -1.52879e-13 -1.2203e-13 0 0 -4.44032e-13 7.05544e-14 -2.68155e-13 -1.08538e-13 0 0 -3.52444e-13 1.72882e-15 -1.49372e-13 -1.79839e-13 0 0 -2.15212e-13 -1.82745e-13 7.41833e-14 -3.28895e-13 0 0 -1.9082e-13 -2.09099e-13 1.50638e-13 -3.96444e-13 0 0 -3.46473e-13 6.3357e-14 -1.01391e-13 -2.15297e-13 0 0 -5.4415e-13 4.40359e-13 -4.905e-13 9.55973e-15 0 0 -2.08384e-13 -6.49107e-14 -1.28942e-14 -3.03115e-13 0 0 1.65479e-14 -3.52452e-13 1.78623e-13 -3.57987e-13 0 0 -7.21405e-14 -1.89042e-13 -3.05456e-14 -1.77058e-13 0 0 -2.4413e-13 4.8264e-15 -1.91099e-13 -6.53982e-14 0 0 -5.01984e-13 4.27091e-13 -6.45155e-13 2.15044e-13 0 0 -2.5099e-13 5.44206e-14 -3.34564e-13 -4.16154e-14 0 0 4.70457e-14 -3.82343e-13 2.27916e-14 -2.8234e-13 0 0 5.12476e-14 -4.06645e-13 4.3365e-14 -2.9113e-13 0 0 -2.78691e-13 -1.02173e-14 -2.69327e-13 -1.11729e-13 0 0 -6.42079e-13 5.01011e-13 -7.33083e-13 1.83735e-13 0 0 -3.68474e-13 4.36434e-14 -2.62622e-13 -8.16081e-14 0 0 -9.58333e-14 -3.4305e-13 -4.37625e-15 -1.40905e-13 0 0 -8.57113e-14 -3.984e-13 2.64495e-15 -1.17736e-13 0 0 -3.41952e-13 -1.24917e-13 -1.72172e-13 -5.03773e-14 0 0 -6.50489e-13 3.27927e-13 -7.5094e-13 3.97558e-13 0 0 -2.42255e-13 -3.39664e-13 -6.53596e-14 -3.33246e-14 0 0 -2.32147e-13 -4.31314e-13 2.39236e-13 -3.88435e-13 0 0 -4.6713e-13 -1.23109e-13 3.0439e-14 -3.22282e-13 0 0 -2.61408e-13 -4.51222e-13 3.5478e-13 -3.43411e-13 0 0 -7.51446e-13 3.5698e-13 -5.01251e-13 4.75574e-13 0 0 -8.31721e-13 4.61034e-13 -4.29486e-13 5.42718e-13 0 0 -4.77174e-14 -6.36662e-13 7.37966e-13 -2.41884e-13 0 0 2.00183e-13 -7.32388e-13 7.33303e-13 -3.11543e-13 0 0 -1.51827e-13 -1.49883e-13 2.74045e-13 -5.13337e-14 0 0 -7.24447e-13 6.84971e-13 -4.10949e-13 3.84216e-13 0 0 -7.04604e-13 5.42375e-13 -2.4186e-13 4.3318e-13 0 0 8.39237e-14 -8.57975e-13 1.19862e-12 -3.50299e-13 0 0 -5.94352e-14 -7.24938e-13 1.14674e-12 -3.22526e-13 0 0 -4.79672e-13 2.33673e-14 2.73195e-13 2.38041e-13 0 0 -6.5659e-13 4.72555e-13 -4.59928e-13 6.93568e-13 0 0 -5.85206e-13 2.28234e-13 -3.9344e-13 6.49662e-13 0 0 -1.00283e-13 -5.22276e-13 1.49285e-13 2.28343e-13 0 0 4.91727e-14 -4.66055e-13 -2.49355e-14 7.32026e-14 0 0 -3.63287e-13 1.84172e-13 -5.96784e-13 1.95927e-13 0 0 -8.41244e-13 4.95485e-13 -5.67232e-13 4.32403e-14 0 0 -6.04216e-13 -1.79893e-13 1.89824e-13 -4.62196e-13 0 0 1.95533e-13 -1.2287e-12 6.74615e-13 -6.59052e-13 0 0 4.05809e-13 -1.41394e-12 5.62771e-13 -7.62955e-13 0 0 -6.55492e-13 2.61181e-13 -9.5821e-13 -1.26288e-13 0 0 -1.33909e-12 1.2605e-12 -1.70817e-12 2.8576e-13 0 0 -4.03999e-13 -1.15949e-13 -5.2559e-13 -5.18714e-14 0 0 4.13102e-13 -1.3904e-12 6.21735e-13 -3.66908e-13 0 0 4.98749e-14 -1.15742e-12 6.40813e-13 -1.91961e-13 0 0 -4.85911e-13 -3.0766e-13 -3.73078e-13 5.2064e-13 0 0 -8.25279e-13 5.0354e-13 -1.62018e-12 1.25135e-12 0 0 -4.17048e-13 -1.88828e-15 -1.43655e-12 1.22279e-12 0 0 -4.21578e-13 -1.97285e-13 -1.01216e-12 8.94336e-13 0 0 -5.82564e-13 -9.61608e-14 -7.8622e-13 5.73568e-13 0 0 -5.51426e-14 -9.19921e-13 8.23644e-14 -1.76451e-13 0 0 -2.33191e-13 -6.18453e-13 -2.98371e-13 -1.36498e-13 0 0 -5.67726e-13 -1.90352e-13 -5.53363e-13 -1.69513e-13 0 0 -9.467e-13 3.72806e-13 -7.77663e-13 -2.12159e-13 0 0 -7.50413e-13 2.98011e-13 -8.71782e-13 2.68709e-14 0 0 1.4112e-13 -1.0488e-12 2.54706e-13 -4.59768e-13 0 0 -1.31888e-13 -6.75162e-13 -1.6822e-13 -1.95469e-13 0 0 -5.07363e-13 -9.70704e-14 -7.56538e-13 2.18005e-13 0 0 -8.57282e-13 3.34503e-13 -9.14765e-13 2.6446e-13 0 0 -8.54744e-13 2.0239e-13 -6.56321e-13 9.90623e-14 0 0 -1.63229e-13 -8.35495e-13 1.33927e-13 -3.45191e-13 0 0 -1.63417e-13 -7.92269e-13 -1.99054e-13 -8.09919e-14 0 0 -4.54375e-13 -4.65375e-13 -3.54427e-13 -1.21992e-13 0 0 -6.09799e-13 -2.33596e-13 -2.60229e-13 -4.70806e-13 0 0 -5.0476e-13 -2.93641e-13 -1.3063e-13 -6.16867e-13 0 0 -5.697e-14 -8.1103e-13 2.44112e-13 -7.47371e-13 0 0 -6.08675e-14 -8.39877e-13 1.81157e-13 -3.96354e-13 0 0 -8.10016e-13 -2.24742e-13 1.28811e-13 -3.03471e-13 0 0 -1.52225e-12 7.49639e-13 -5.64587e-13 -1.32325e-13 0 0 -7.92721e-13 -5.2855e-14 -1.27696e-13 -5.22253e-13 0 0 1.57809e-13 -1.3143e-12 9.98376e-13 -1.31015e-12 0 0 -8.97349e-13 3.90951e-13 -6.09897e-13 -2.94714e-13 0 0 -1.58079e-12 1.17232e-12 -8.93089e-13 -1.244e-13 0 0 -5.9071e-13 -3.93106e-13 7.62396e-13 -1.15736e-12 0 0 4.02889e-13 -1.54631e-12 1.51749e-12 -1.64086e-12 0 0 1.71152e-13 -9.76815e-13 1.10731e-12 -1.62552e-12 0 0 -1.33868e-12 1.11203e-12 -4.65677e-13 -9.4838e-13 0 0 -1.50718e-12 1.14245e-12 -4.77569e-13 -9.89203e-13 0 0 -9.74878e-14 -9.1936e-13 9.28962e-13 -1.43649e-12 0 0 5.21009e-13 -1.81634e-12 1.47592e-12 -1.49137e-12 0
				</DataArray>
				<DataArray Name="VitesseY" type="Float32" format="ascii">