<?xml version="1.0"?>
<VTKFile type="PolyData">
	<PolyData>
		<Piece NumberOfPoints="1206" NumberOfPolys="1000">
			<Points>
				<DataArray type="Float32" NumberOfComponents="3" format="ascii">
 0 0 0 0.02 0 0 0.04 0 0 0.06 0 0 0.08 0 0 0.1 0 0 0 0.005 0 0.02 0.005 0 0.04 0.005 0 0.06 0.005 0 0.08 0.005 0 0.1 0.005 0 0 0.01 0 0.02 0.01 0 0.04 0.01 0 0.06 0.01 0 0.08 0.01 0 0.1 0.01 0 0 0.015 0 0.02 0.015 0 0.04 0.015 0 0.06 0.015 0 0.08 0.015 0 0.1 0.015 0 0 0.02 0 0.02 0.02 0 0.04 0.02 0 0.06 0.02 0 0.08 0.02 0 0.1 0.02 0 0 0.025 0 0.02 0.025 0 0.04 0.025 0 0.06 0.025 0 0.08 0.025 0 0.1 0.025 0 0 0.03 0 0.02 0.03 0 0.04 0.03 0 0.06 0.03 0 0.08 0.03 0 0.1 0.03 0 0 0.035 0 0.02 0.035 0 0.04 0.035 0 0.06 0.035 0 0.08 0.035 0 0.1 0.035 0 0 0.04 0 0.02 0.04 0 0.04 0.04 0 0.06 0.04 0 0.08 0.04 0 0.1 0.04 0 0 0.045 0 0.02 0.045 0 0.04 0.045 0 0.06 0.045 0 0.08 0.045 0 0.1 0.045 0 0 0.05 0 0.02 0.05 0 0.04 0.05 0 0.06 0.05 0 0.08 0.05 0 0.1 0.05 0 0 0.055 0 0.02 0.055 0 0.04 0.055 0 0.06 0.055 0 0.08 0.055 0 0.1 0.055 0 0 0.06 0 0.02 0.06 0 0.04 0.06 0 0.06 0.06 0 0.08 0.06 0 0.1 0.06 0 0 0.065 0 0.02 0.065 0 0.04 0.065 0 0.06 0.065 0 0.08 0.065 0 0.1 0.065 0 0 0.07 0 0.02 0.07 0 0.04 0.07 0 0.06 0.07 0 0.08 0.07 0 0.1 0.07 0 0 0.075 0 0.02 0.075 0 0.04 0.075 0 0.06 0.075 0 0.08 0.075 0 0.1 0.075 0 0 0.08 0 0.02 0.08 0 0.04 0.08 0 0.06 0.08 0 0.08 0.08 0 0.1 0.08 0 0 0.085 0 0.02 0.085 0 0.04 0.085 0 0.06 0.085 0 0.08 0.085 0 0.1 0.085 0 0 0.09 0 0.02 0.09 0 0.04 0.09 0 0.06 0.09 0 0.08 0.09 0 0.1 0.09 0 0 0.095 0 0.02 0.095 0 0.04 0.095 0 0.06 0.095 0 0.08 0.095 0 0.1 0.095 0 0 0.1 0 0.02 0.1 0 0.04 0.1 0 0.06 0.1 0 0.08 0.1 0 0.1 0.1 0 0 0.105 0 0.02 0.105 0 0.04 0.105 0 0.06 0.105 0 0.08 0.105 0 0.1 0.105 0 0 0.11 0 0.02 0.11 0 0.04 0.11 0 0.06 0.11 0 0.08 0.11 0 0.1 0.11 0 0 0.115 0 0.02 0.115 0 0.04 0.115 0 0.06 0.115 0 0.08 0.115 0 0.1 0.115 0 0 0.12 0 0.02 0.12 0 0.04 0.12 0 0.06 0.12 0 0.08 0.12 0 0.1 0.12 0 0 0.125 0 0.02 0.125 0 0.04 0.125 0 0.06 0.125 0 0.08 0.125 0 0.1 0.125 0 0 0.13 0 0.02 0.13 0 0.04 0.13 0 0.06 0.13 0 0.08 0.13 0 0.1 0.13 0 0 0.135 0 0.02 0.135 0 0.04 0.135 0 0.06 0.135 0 0.08 0.135 0 0.1 0.135 0 0 0.14 0 0.02 0.14 0 0.04 0.14 0 0.06 0.14 0 0.08 0.14 0 0.1 0.14 0 0 0.145 0 0.02 0.145 0 0.04 0.145 0 0.06 0.145 0 0.08 0.145 0 0.1 0.145 0 0 0.15 0 0.02 0.15 0 0.04 0.15 0 0.06 0.15 0 0.08 0.15 0 0.1 0.15 0 0 0.155 0 0.02 0.155 0 0.04 0.155 0 0.06 0.155 0 0.08 0.155 0 0.1 0.155 0 0 0.16 0 0.02 0.16 0 0.04 0.16 0 0.06 0.16 0 0.08 0.16 0 0.1 0.16 0 0 0.165 0 0.02 0.165 0 0.04 0.165 0 0.06 0.165 0 0.08 0.165 0 0.1 0.165 0 0 0.17 0 0.02 0.17 0 0.04 0.17 0 0.06 0.17 0 0.08 0.17 0 0.1 0.17 0 0 0.175 0 0.02 0.175 0 0.04 0.175 0 0.06 0.175 0 0.08 0.175 0 0.1 0.175 0 0 0.18 0 0.02 0.18 0 0.04 0.18 0 0.06 0.18 0 0.08 0.18 0 0.1 0.18 0 0 0.185 0 0.02 0.185 0 0.04 0.185 0 0.06 0.185 0 0.08 0.185 0 0.1 0.185 0 0 0.19 0 0.02 0.19 0 0.04 0.19 0 0.06 0.19 0 0.08 0.19 0 0.1 0.19 0 0 0.195 0 0.02 0.195 0 0.04 0.195 0 0.06 0.195 0 0.08 0.195 0 0.1 0.195 0 0 0.2 0 0.02 0.2 0 0.04 0.2 0 0.06 0.2 0 0.08 0.2 0 0.1 0.2 0 0 0.205 0 0.02 0.205 0 0.04 0.205 0 0.06 0.205 0 0.08 0.205 0 0.1 0.205 0 0 0.21 0 0.02 0.21 0 0.04 0.21 0 0.06 0.21 0 0.08 0.21 0 0.1 0.21 0 0 0.215 0 0.02 0.215 0 0.04 0.215 0 0.06 0.215 0 0.08 0.215 0 0.1 0.215 0 0 0.22 0 0.02 0.22 0 0.04 0.22 0 0.06 0.22 0 0.08 0.22 0 0.1 0.22 0 0 0.225 0 0.02 0.225 0 0.04 0.225 0 0.06 0.225 0 0.08 0.225 0 0.1 0.225 0 0 0.23 0 0.02 0.23 0 0.04 0.23 0 0.06 0.23 0 0.08 0.23 0 0.1 0.23 0 0 0.235 0 0.02 0.235 0 0.04 0.235 0 0.06 0.235 0 0.08 0.235 0 0.1 0.235 0 0 0.24 0 0.02 0.24 0 0.04 0.24 0 0.06 0.24 0 0.08 0.24 0 0.1 0.24 0 0 0.245 0 0.02 0.245 0 0.04 0.245 0 0.06 0.245 0 0.08 0.245 0 0.1 0.245 0 0 0.25 0 0.02 0.25 0 0.04 0.25 0 0.06 0.25 0 0.08 0.25 0 0.1 0.25 0 0 0.255 0 0.02 0.255 0 0.04 0.255 0 0.06 0.255 0 0.08 0.255 0 0.1 0.255 0 0 0.26 0 0.02 0.26 0 0.04 0.26 0 0.06 0.26 0 0.08 0.26 0 0.1 0.26 0 0 0.265 0 0.02 0.265 0 0.04 0.265 0 0.06 0.265 0 0.08 0.265 0 0.1 0.265 0 0 0.27 0 0.02 0.27 0 0.04 0.27 0 0.06 0.27 0 0.08 0.27 0 0.1 0.27 0 0 0.275 0 0.02 0.275 0 0.04 0.275 0 0.06 0.275 0 0.08 0.275 0 0.1 0.275 0 0 0.28 0 0.02 0.28 0 0.04 0.28 0 0.06 0.28 0 0.08 0.28 0 0.1 0.28 0 0 0.285 0 0.02 0.285 0 0.04 0.285 0 0.06 0.285 0 0.08 0.285 0 0.1 0.285 0 0 0.29 0 0.02 0.29 0 0.04 0.29 0 0.06 0.29 0 0.08 0.29 0 0.1 0.29 0 0 0.295 0 0.02 0.295 0 0.04 0.295 0 0.06 0.295 0 0.08 0.295 0 0.1 0.295 0 0 0.3 0 0.02 0.3 0 0.04 0.3 0 0.06 0.3 0 0.08 0.3 0 0.1 0.3 0 0 0.305 0 0.02 0.305 0 0.04 0.305 0 0.06 0.305 0 0.08 0.305 0 0.1 0.305 0 0 0.31 0 0.02 0.31 0 0.04 0.31 0 0.06 0.31 0 0.08 0.31 0 0.1 0.31 0 0 0.315 0 0.02 0.315 0 0.04 0.315 0 0.06 0.315 0 0.08 0.315 0 0.1 0.315 0 0 0.32 0 0.02 0.32 0 0.04 0.32 0 0.06 0.32 0 0.08 0.32 0 0.1 0.32 0 0 0.325 0 0.02 0.325 0 0.04 0.325 0 0.06 0.325 0 0.08 0.325 0 0.1 0.325 0 0 0.33 0 0.02 0.33 0 0.04 0.33 0 0.06 0.33 0 0.08 0.33 0 0.1 0.33 0 0 0.335 0 0.02 0.335 0 0.04 0.335 0 0.06 0.335 0 0.08 0.335 0 0.1 0.335 0 0 0.34 0 0.02 0.34 0 0.04 0.34 0 0.06 0.34 0 0.08 0.34 0 0.1 0.34 0 0 0.345 0 0.02 0.345 0 0.04 0.345 0 0.06 0.345 0 0.08 0.345 0 0.1 0.345 0 0 0.35 0 0.02 0.35 0 0.04 0.35 0 0.06 0.35 0 0.08 0.35 0 0.1 0.35 0 0 0.355 0 0.02 0.355 0 0.04 0.355 0 0.06 0.355 0 0.08 0.355 0 0.1 0.355 0 0 0.36 0 0.02 0.36 0 0.04 0.36 0 0.06 0.36 0 0.08 0.36 0 0.1 0.36 0 0 0.365 0 0.02 0.365 0 0.04 0.365 0 0.06 0.365 0 0.08 0.365 0 0.1 0.365 0 0 0.37 0 0.02 0.37 0 0.04 0.37 0 0.06 0.37 0 0.08 0.37 0 0.1 0.37 0 0 0.375 0 0.02 0.375 0 0.04 0.375 0 0.06 0.375 0 0.08 0.375 0 0.1 0.375 0 0 0.38 0 0.02 0.38 0 0.04 0.38 0 0.06 0.38 0 0.08 0.38 0 0.1 0.38 0 0 0.385 0 0.02 0.385 0 0.04 0.385 0 0.06 0.385 0 0.08 0.385 0 0.1 0.385 0 0 0.39 0 0.02 0.39 0 0.04 0.39 0 0.06 0.39 0 0.08 0.39 0 0.1 0.39 0 0 0.395 0 0.02 0.395 0 0.04 0.395 0 0.06 0.395 0 0.08 0.395 0 0.1 0.395 0 0 0.4 0 0.02 0.4 0 0.04 0.4 0 0.06 0.4 0 0.08 0.4 0 0.1 0.4 0 0 0.405 0 0.02 0.405 0 0.04 0.405 0 0.06 0.405 0 0.08 0.405 0 0.1 0.405 0 0 0.41 0 0.02 0.41 0 0.04 0.41 0 0.06 0.41 0 0.08 0.41 0 0.1 0.41 0 0 0.415 0 0.02 0.415 0 0.04 0.415 0 0.06 0.415 0 0.08 0.415 0 0.1 0.415 0 0 0.42 0 0.02 0.42 0 0.04 0.42 0 0.06 0.42 0 0.08 0.42 0 0.1 0.42 0 0 0.425 0 0.02 0.425 0 0.04 0.425 0 0.06 0.425 0 0.08 0.425 0 0.1 0.425 0 0 0.43 0 0.02 0.43 0 0.04 0.43 0 0.06 0.43 0 0.08 0.43 0 0.1 0.43 0 0 0.435 0 0.02 0.435 0 0.04 0.435 0 0.06 0.435 0 0.08 0.435 0 0.1 0.435 0 0 0.44 0 0.02 0.44 0 0.04 0.44 0 0.06 0.44 0 0.08 0.44 0 0.1 0.44 0 0 0.445 0 0.02 0.445 0 0.04 0.445 0 0.06 0.445 0 0.08 0.445 0 0.1 0.445 0 0 0.45 0 0.02 0.45 0 0.04 0.45 0 0.06 0.45 0 0.08 0.45 0 0.1 0.45 0 0 0.455 0 0.02 0.455 0 0.04 0.455 0 0.06 0.455 0 0.08 0.455 0 0.1 0.455 0 0 0.46 0 0.02 0.46 0 0.04 0.46 0 0.06 0.46 0 0.08 0.46 0 0.1 0.46 0 0 0.465 0 0.02 0.465 0 0.04 0.465 0 0.06 0.465 0 0.08 0.465 0 0.1 0.465 0 0 0.47 0 0.02 0.47 0 0.04 0.47 0 0.06 0.47 0 0.08 0.47 0 0.1 0.47 0 0 0.475 0 0.02 0.475 0 0.04 0.475 0 0.06 0.475 0 0.08 0.475 0 0.1 0.475 0 0 0.48 0 0.02 0.48 0 0.04 0.48 0 0.06 0.48 0 0.08 0.48 0 0.1 0.48 0 0 0.485 0 0.02 0.485 0 0.04 0.485 0 0.06 0.485 0 0.08 0.485 0 0.1 0.485 0 0 0.49 0 0.02 0.49 0 0.04 0.49 0 0.06 0.49 0 0.08 0.49 0 0.1 0.49 0 0 0.495 0 0.02 0.495 0 0.04 0.495 0 0.06 0.495 0 0.08 0.495 0 0.1 0.495 0 0 0.5 0 0.02 0.5 0 0.04 0.5 0 0.06 0.5 0 0.08 0.5 0 0.1 0.5 0 0 0.505 0 0.02 0.505 0 0.04 0.505 0 0.06 0.505 0 0.08 0.505 0 0.1 0.505 0 0 0.51 0 0.02 0.51 0 0.04 0.51 0 0.06 0.51 0 0.08 0.51 0 0.1 0.51 0 0 0.515 0 0.02 0.515 0 0.04 0.515 0 0.06 0.515 0 0.08 0.515 0 0.1 0.515 0 0 0.52 0 0.02 0.52 0 0.04 0.52 0 0.06 0.52 0 0.08 0.52 0 0.1 0.52 0 0 0.525 0 0.02 0.525 0 0.04 0.525 0 0.06 0.525 0 0.08 0.525 0 0.1 0.525 0 0 0.53 0 0.02 0.53 0 0.04 0.53 0 0.06 0.53 0 0.08 0.53 0 0.1 0.53 0 0 0.535 0 0.02 0.535 0 0.04 0.535 0 0.06 0.535 0 0.08 0.535 0 0.1 0.535 0 0 0.54 0 0.02 0.54 0 0.04 0.54 0 0.06 0.54 0 0.08 0.54 0 0.1 0.54 0 0 0.545 0 0.02 0.545 0 0.04 0.545 0 0.06 0.545 0 0.08 0.545 0 0.1 0.545 0 0 0.55 0 0.02 0.55 0 0.04 0.55 0 0.06 0.55 0 0.08 0.55 0 0.1 0.55 0 0 0.555 0 0.02 0.555 0 0.04 0.555 0 0.06 0.555 0 0.08 0.555 0 0.1 0.555 0 0 0.56 0 0.02 0.56 0 0.04 0.56 0 0.06 0.56 0 0.08 0.56 0 0.1 0.56 0 0 0.565 0 0.02 0.565 0 0.04 0.565 0 0.06 0.565 0 0.08 0.565 0 0.1 0.565 0 0 0.57 0 0.02 0.57 0 0.04 0.57 0 0.06 0.57 0 0.08 0.57 0 0.1 0.57 0 0 0.575 0 0.02 0.575 0 0.04 0.575 0 0.06 0.575 0 0.08 0.575 0 0.1 0.575 0 0 0.58 0 0.02 0.58 0 0.04 0.58 0 0.06 0.58 0 0.08 0.58 0 0.1 0.58 0 0 0.585 0 0.02 0.585 0 0.04 0.585 0 0.06 0.585 0 0.08 0.585 0 0.1 0.585 0 0 0.59 0 0.02 0.59 0 0.04 0.59 0 0.06 0.59 0 0.08 0.59 0 0.1 0.59 0 0 0.595 0 0.02 0.595 0 0.04 0.595 0 0.06 0.595 0 0.08 0.595 0 0.1 0.595 0 0 0.6 0 0.02 0.6 0 0.04 0.6 0 0.06 0.6 0 0.08 0.6 0 0.1 0.6 0 0 0.605 0 0.02 0.605 0 0.04 0.605 0 0.06 0.605 0 0.08 0.605 0 0.1 0.605 0 0 0.61 0 0.02 0.61 0 0.04 0.61 0 0.06 0.61 0 0.08 0.61 0 0.1 0.61 0 0 0.615 0 0.02 0.615 0 0.04 0.615 0 0.06 0.615 0 0.08 0.615 0 0.1 0.615 0 0 0.62 0 0.02 0.62 0 0.04 0.62 0 0.06 0.62 0 0.08 0.62 0 0.1 0.62 0 0 0.625 0 0.02 0.625 0 0.04 0.625 0 0.06 0.625 0 0.08 0.625 0 0.1 0.625 0 0 0.63 0 0.02 0.63 0 0.04 0.63 0 0.06 0.63 0 0.08 0.63 0 0.1 0.63 0 0 0.635 0 0.02 0.635 0 0.04 0.635 0 0.06 0.635 0 0.08 0.635 0 0.1 0.635 0 0 0.64 0 0.02 0.64 0 0.04 0.64 0 0.06 0.64 0 0.08 0.64 0 0.1 0.64 0 0 0.645 0 0.02 0.645 0 0.04 0.645 0 0.06 0.645 0 0.08 0.645 0 0.1 0.645 0 0 0.65 0 0.02 0.65 0 0.04 0.65 0 0.06 0.65 0 0.08 0.65 0 0.1 0.65 0 0 0.655 0 0.02 0.655 0 0.04 0.655 0 0.06 0.655 0 0.08 0.655 0 0.1 0.655 0 0 0.66 0 0.02 0.66 0 0.04 0.66 0 0.06 0.66 0 0.08 0.66 0 0.1 0.66 0 0 0.665 0 0.02 0.665 0 0.04 0.665 0 0.06 0.665 0 0.08 0.665 0 0.1 0.665 0 0 0.67 0 0.02 0.67 0 0.04 0.67 0 0.06 0.67 0 0.08 0.67 0 0.1 0.67 0 0 0.675 0 0.02 0.675 0 0.04 0.675 0 0.06 0.675 0 0.08 0.675 0 0.1 0.675 0 0 0.68 0 0.02 0.68 0 0.04 0.68 0 0.06 0.68 0 0.08 0.68 0 0.1 0.68 0 0 0.685 0 0.02 0.685 0 0.04 0.685 0 0.06 0.685 0 0.08 0.685 0 0.1 0.685 0 0 0.69 0 0.02 0.69 0 0.04 0.69 0 0.06 0.69 0 0.08 0.69 0 0.1 
[...]
			<PointData Scalars="VitesseX">
				<DataArray Name="VitesseX" type="Float32" format="ascii">
 0 2.38012e-14 3.83038e-14 5.46339e-14 2.97414e-14 0 0 2.36558e-14 4.45845e-14 4.72868e-14 3.16745e-14 0 0 3.40443e-14 3.31782e-14 6.23614e-14 1.64135e-14 0 0 2.67414e-14 4.88329e-14 5.25406e-14 1.34957e-14 0 0 2.17522e-14 7.93448e-14 1.48823e-14 2.88566e-14 0 0 5.85067e-14 4.30404e-14 4.51284e-14 3.20665e-16 0 0 7.55325e-14 3.06907e-14 5.86751e-14 -2.20422e-14 0 0 5.76316e-14 7.0435e-14 1.60751e-14 1.8695e-16 0 0 6.17284e-14 6.69886e-14 1.49659e-14 6.73249e-15 0 0 7.39044e-14 4.46366e-14 4.14642e-14 -4.16605e-16 0 0 5.10896e-14 6.68483e-14 4.13631e-14 -3.45292e-15 0 0 1.45616e-14 1.22828e-13 -9.98029e-15 3.06218e-14 0 0 3.27331e-14 8.56535e-14 2.83202e-14 1.62673e-14 0 0 8.09284e-14 2.25265e-15 1.10215e-13 -2.1903e-14 0 0 6.77255e-14 2.77645e-14 7.65481e-14 9.04496e-15 0 0 2.08076e-14 8.50921e-14 3.26466e-14 3.90958e-14 0 0 3.14681e-16 9.86052e-14 4.58475e-14 1.7147e-14 0 0 1.59777e-14 5.31899e-14 1.33835e-13 -4.56285e-14 0 0 2.75148e-14 3.5949e-14 1.40579e-13 1.04494e-16 0 0 -1.28641e-14 1.02008e-13 6.42624e-14 6.55783e-14 0 0 -2.55816e-14 1.36718e-13 2.54916e-14 7.7672e-14 0 0 4.24017e-14 5.22296e-14 1.07291e-13 2.10996e-14 0 0 3.15952e-14 8.46458e-14 9.81791e-14 1.69986e-15 0 0 2.53819e-14 1.71877e-13 -4.00582e-14 7.90497e-14 0 0 4.70611e-14 1.69464e-13 -3.00528e-14 3.60044e-14 0 0 3.05409e-14 1.69158e-13 3.4069e-14 -4.42572e-14 0 0 1.0378e-13 7.07983e-14 1.16324e-13 -7.46649e-14 0 0 5.59974e-14 1.80518e-13 -4.75095e-14 4.17095e-14 0 0 -4.09693e-15 2.59039e-13 -1.67968e-13 1.29755e-13 0 0 1.05702e-13 5.69368e-14 4.91828e-14 -2.97942e-14 0 0 1.18364e-13 8.0744e-14 -2.49016e-14 -2.1986e-14 0 0 9.60977e-14 7.79633e-14 -4.06263e-14 -2.42787e-14 0 0 1.37455e-13 -4.89124e-14 1.08888e-13 -1.52949e-13 0 0 1.32813e-13 -3.2825e-14 4.49449e-14 -1.01665e-13 0 0 9.73455e-14 2.14803e-14 -1.78028e-14 -9.55479e-15 0 0 7.2149e-14 4.7098e-14 -1.33152e-14 3.0598e-14 0 0 9.21619e-14 -1.33994e-14 8.97706e-14 -3.09598e-14 0 0 1.18867e-13 -3.36648e-14 1.32887e-13 -5.27359e-14 0 0 8.85823e-14 7.59883e-14 2.57316e-14 1.39533e-14 0 0 7.61521e-14 1.47841e-13 -4.49404e-14 -3.1298e-15 0 0 1.51624e-13 5.31617e-14 5.51983e-14 -1.24261e-13 0 0 1.58216e-13 6.26238e-14 6.30568e-14 -1.95204e-13 0 0 1.14319e-13 1.69891e-13 -4.69286e-14 -1.69606e-13 0 0 1.60705e-13 7.38286e-14 4.69956e-14 -2.20072e-13 0 0 7.7112e-14 1.31657e-13 3.60402e-14 -2.13737e-13 0 0 9.2748e-14 3.62822e-14 1.69799e-13 -2.60053e-13 0 0 1.39785e-13 -5.27901e-14 2.34643e-13 -2.8655e-13 0 0 7.09682e-14 7.07645e-14 6.40153e-14 -2.22118e-13 0 0 7.17328e-14 3.12156e-15 9.62692e-14 -2.01667e-13 0 0 -1.27952e-16 6.08218e-14 1.30694e-14 -8.62294e-14 0 0 2.4605e-14 1.48852e-14 8.59444e-14 -1.1578e-13 0 0 1.15577e-13 -8.33516e-14 1.52829e-13 -9.53548e-14 0 0 5.74791e-14 1.2529e-13 -6.71435e-14 9.53003e-14 0 0 -2.59981e-15 3.32446e-13 -1.54591e-13 1.17304e-13 0 0 7.57657e-14 2.86672e-13 6.84641e-15 6.9523e-15 0 0 6.01923e-14 2.95508e-13 6.29933e-14 6.84387e-15 0 0 8.01707e-14 2.48636e-13 1.50391e-13 -1.80382e-14 0 0 1.30174e-13 3.30909e-13 6.94007e-14 3.75782e-14 0 0 1.98578e-13 2.99878e-13 1.19549e-13 1.8023e-14 0 0 2.70571e-13 2.45424e-13 1.24685e-13 8.04295e-14 0 0 2.27166e-13 3.23119e-13 -5.28435e-14 2.8874e-13 0 0 2.18791e-13 2.10577e-13 3.11494e-14 3.74464e-13 0 0 2.2374e-13 2.30261e-13 8.30249e-16 5.16131e-13 0 0 2.0601e-13 2.23707e-13 1.25864e-13 4.456e-13 0 0 1.70509e-13 1.09454e-13 3.58716e-13 3.39761e-13 0 0 5.91668e-14 1.61069e-13 4.06492e-13 3.48363e-13 0 0 -2.11352e-13 3.89933e-13 2.95861e-13 4.14044e-13 0 0 -2.27567e-13 2.46377e-13 4.30461e-13 3.09662e-13 0 0 -1.01102e-13 7.57375e-14 6.1377e-13 4.72216e-14 0 0 -1.04318e-13 2.60585e-13 4.27369e-13 2.24476e-14 0 0 4.29519e-15 3.09423e-13 2.94003e-13 8.95371e-14 0 0 5.65336e-14 3.11532e-13 2.75825e-13 9.48112e-14 0 0 2.38299e-14 2.48653e-13 4.34045e-13 -4.29713e-14 0 0 -1.34298e-13 3.0532e-13 4.80706e-13 -1.22829e-13 0 0 -2.0567e-13 4.26235e-13 3.6969e-13 -4.52518e-14 0 0 -4.34823e-14 3.33749e-13 3.5568e-13 4.70164e-14 0 0 2.93107e-14 3.44053e-13 2.76746e-13 1.44153e-13 0 0 -2.75776e-15 4.32761e-13 1.70642e-13 1.39581e-13 0 0 3.89067e-14 3.9419e-13 1.61559e-13 -1.95658e-14 0 0 2.50864e-13 1.20101e-13 2.73022e-13 -9.31747e-14 0 0 5.11478e-13 -3.22656e-13 5.09148e-13 -1.4085e-13 0 0 4.32562e-13 -2.5859e-13 3.89539e-13 -2.71498e-14 0 0 5.97394e-14 2.36819e-13 -1.89464e-13 3.75866e-13 0 0 -2.31151e-13 4.50968e-13 -2.9461e-13 4.56243e-13 0 0 -2.95875e-13 3.48055e-13 -1.08621e-13 3.64399e-13 0 0 -2.82997e-13 1.21133e-13 2.78262e-13 1.21129e-13 0 0 -2.91138e-13 -6.82686e-15 3.73469e-13 1.04481e-13 0 0 -4.29549e-13 1.04082e-13 2.33654e-13 1.87489e-13 0 0 -5.07602e-13 1.99802e-13 -5.51815e-15 3.21219e-13 0 0 -3.62143e-13 2.46596e-14 -3.02696e-14 4.64808e-13 0 0 4.84498e-14 -4.36793e-13 2.157e-14 5.81377e-13 0 0 3.40722e-13 -7.16292e-13 -3.61137e-14 7.55962e-13 0 0 3.04328e-13 -6.91015e-13 -2.37838e-13 9.05463e-13 0 0 1.23989e-13 -5.47537e-13 -2.17626e-13 8.00118e-13 0 0 -4.9997e-14 -4.04231e-13 -9.19121e-14 5.56723e-13 0 0 -1.92941e-13 -3.09569e-13 1.33372e-13 2.35196e-13 0 0 -2.71418e-13 -2.64432e-13 4.66999e-13 -1.65624e-13 0 0 -3.15738e-13 -2.73198e-13 7.47528e-13 -5.65506e-13 0 0 -4.05938e-13 -2.75753e-13 8.65158e-13 -7.35456e-13 0 0 -5.12184e-13 -1.1297e-13 7.61327e-13 -6.83425e-13 0 0 -4.43463e-13 1.52328e-13 3.61904e-13 -3.88212e-13 0 0 -2.24185e-13 1.82389e-13 -2.04552e-13 1.95009e-13 0 0 -8.84879e-14 1.97397e-13 -4.34153e-13 5.86223e-13 0 0 -1.42007e-13 2.93131e-13 -3.97635e-13 5.62903e-13 0 0 -1.8634e-13 3.43102e-13 -1.84502e-13 3.22737e-13 0 0 -7.37546e-14 2.5061e-13 2.78808e-13 -1.87628e-13 0 0 1.77354e-13 -7.21868e-15 6.9831e-13 -4.72383e-13 0 0 2.90488e-13 -1.39454e-13 7.75876e-13 -4.54343e-13 0 0 2.88507e-13 -1.50992e-13 7.53135e-13 -3.53887e-13 0 0 2.21201e-13 -5.74423e-14 6.40674e-13 -1.53161e-13 0 0 1.76968e-13 1.11537e-13 4.81659e-13 2.28878e-14 0 0 1.84429e-13 1.73592e-13 3.79822e-13 1.42914e-13 0 0 2.04519e-13 2.39018e-13 2.29403e-13 2.85605e-13 0 0 2.39719e-13 2.69265e-13 1.8895e-13 3.2278e-13 0 0 2.89549e-13 2.90597e-13 1.93325e-13 3.17636e-13 0 0 3.79011e-13 2.5842e-13 2.30114e-13 2.95848e-13 0 0 4.49092e-13 2.42844e-13 2.57087e-13 2.8188e-13 0 0 4.86471e-13 2.4768e-13 2.46206e-13 3.0621e-13 0 0 5.13054e-13 2.37052e-13 3.0033e-13 2.57372e-13 0 0 4.97461e-13 2.67694e-13 2.90349e-13 2.57188e-13 0 0 4.2766e-13 3.60798e-13 2.27561e-13 2.73815e-13 0 0 3.34893e-13 4.0529e-13 2.26785e-13 2.93019e-13 0 0 2.50422e-13 4.15205e-13 2.58606e-13 3.10402e-13 0 0 1.67938e-13 4.58942e-13 2.61611e-13 2.77254e-13 0 0 1.40158e-13 4.45176e-13 3.08276e-13 2.32335e-13 0 0 1.49047e-13 3.79824e-13 4.21658e-13 1.46342e-13 0 0 1.30139e-13 4.02061e-13 4.17603e-13 1.35656e-13 0 0 1.23429e-13 4.05367e-13 3.7842e-13 1.94088e-13 0 0 1.60142e-13 3.53419e-13 3.74656e-13 2.3678e-13 0 0 1.8951e-13 3.21807e-13 4.07419e-13 1.87122e-13 0 0 1.65633e-13 3.66499e-13 3.6883e-13 1.53452e-13 0 0 1.61831e-13 3.7579e-13 3.64021e-13 9.39158e-14 0 0 1.7824e-13 3.64473e-13 3.66154e-13 1.0934e-13 0 0 1.97032e-13 3.75687e-13 3.384e-13 2.26343e-13 0 0 2.27762e-13 3.59312e-13 3.51452e-13 2.76526e-13 0 0 2.17948e-13 4.19929e-13 3.15142e-13 2.60824e-13 0 0 2.23663e-13 4.40231e-13 3.17596e-13 2.1875e-13 0 0 2.77135e-13 3.84512e-13 3.46538e-13 1.99099e-13 0 0 2.68823e-13 3.64587e-13 3.77466e-13 2.03131e-13 0 0 2.55142e-13 3.53646e-13 3.92016e-13 1.91383e-13 0 0 2.46493e-13 2.82566e-13 4.83199e-13 1.19936e-13 0 0 1.81303e-13 2.8261e-13 4.94815e-13 1.76955e-13 0 0 1.49329e-13 2.82064e-13 3.89896e-13 3.21872e-13 0 0 1.53621e-13 2.60328e-13 2.61357e-13 4.50015e-13 0 0 1.47255e-13 2.41602e-13 2.98946e-13 3.69299e-13 0 0 1.60048e-13 2.48821e-13 3.97617e-13 2.05131e-13 0 0 2.35144e-13 2.43189e-13 4.19956e-13 2.00302e-13 0 0 2.73524e-13 3.19169e-13 2.93186e-13 2.60083e-13 0 0 2.68405e-13 4.47703e-13 2.14451e-13 3.11376e-13 0 0 3.61901e-13 3.13373e-13 4.72424e-13 2.3186e-13 0 0 4.01441e-13 3.64809e-13 4.84149e-13 4.97263e-13 0 0 4.19064e-13 4.57994e-13 4.1151e-13 6.53904e-13 0 0 4.11507e-13 4.79879e-13 4.78968e-13 4.94702e-13 0 0 4.48891e-13 4.40612e-13 5.4974e-13 3.72377e-13 0 0 4.51451e-13 4.63714e-13 5.04267e-13 3.64726e-13 0 0 4.3918e-13 4.47927e-13 5.09451e-13 3.91508e-13 0 0 4.74792e-13 3.55938e-13 5.51057e-13 3.9371e-13 0 0 4.62555e-13 3.56205e-13 4.77568e-13 4.71555e-13 0 0 4.04178e-13 3.60572e-13 4.86012e-13 5.54335e-13 0 0 3.30688e-13 4.12681e-13 4.57281e-13 5.72822e-13 0 0 2.97155e-13 4.54478e-13 4.01359e-13 5.91702e-13 0 0 3.30482e-13 3.79569e-13 5.08596e-13 4.62733e-13 0 0 2.80757e-13 4.02177e-13 5.173e-13 3.74066e-13 0 0 2.24063e-13 3.83256e-13 5.52826e-13 3.89887e-13 0 0 2.02877e-13 4.08779e-13 5.39654e-13 3.83324e-13 0 0 2.25129e-13 4.39212e-13 4.74354e-13 4.26471e-13 0 0 2.96041e-13 3.52938e-13 5.44722e-13 4.51028e-13 0 0 4.15686e-13 2.20794e-13 6.89359e-13 3.38859e-13 0 0 5.07202e-13 1.56053e-13 7.51899e-13 3.06326e-13 0 0 4.2875e-13 3.66741e-13 5.72359e-13 4.73072e-13 0 0 3.7513e-13 5.21484e-13 5.46182e-13 4.48381e-13 0 0 3.88241e-13 5.22436e-13 6.76797e-13 2.43903e-13 0 0 4.46545e-13 4.78356e-13 6.78584e-13 2.38357e-13 0 0 4.58303e-13 5.0897e-13 5.74556e-13 3.59741e-13 0 0 4.6622e-13 5.644e-13 4.234e-13 4.3816e-13 0 0 3.84215e-13 6.62233e-13 3.29339e-13 3.98716e-13 0 0 3.07189e-13 7.16323e-13 3.99416e-13 2.08886e-13 0 0 4.1447e-13 4.56536e-13 5.72135e-13 1.50243e-13 0 0 2.55195e-13 5.19459e-13 4.21656e-13 3.91645e-13 0 0 2.67013e-13 4.29295e-13 4.92798e-13 3.87185e-13 0 0 3.12006e-13 4.89011e-13 1.98778e-13 6.94052e-13 0 0 3.61362e-14 9.59134e-13 -1.85042e-13 8.88521e-13 0 0 6.33259e-14 7.37754e-13 3.23275e-13 4.43507e-13 0 0 3.08691e-13 4.44208e-13 5.03445e-13 3.34819e-13 0 0 3.74459e-13 4.77821e-13 4.08398e-13 3.91546e-13 0 0 3.04329e-13 4.74045e-13 6.18886e-13 2.13981e-13 0 0 3.05507e-13 4.63536e-13 6.99642e-13 1.53451e-13 0 0 3.08718e-13 5.51073e-13 5.30739e-13 3.306e-13 0 0 4.04302e-13 4.73313e-13 5.02046e-13 3.37451e-13 0 0 5.00748e-13 2.67225e-13 6.56947e-13 1.36066e-13 0 0 2.054e-13 6.14128e-13 3.53435e-13 2.0025e-13 0 0 1.59061e-13 7.59531e-13 2.23208e-13 2.02602e-13 0 0 3.06341e-13 4.45122e-13 7.34977e-13 -2.32154e-13 0 0 2.43782e-13 3.53325e-13 8.1169e-13 -2.14646e-13 0 0 3.04567e-13 1.92935e-13 8.42979e-13 -1.23617e-13 0 0 3.88884e-13 1.57292e-13 7.39763e-13 -3.60844e-15 0 0 2.8345e-13 4.33129e-13 3.44145e-13 2.85024e-13 0 0 3.41092e-13 3.88125e-13 4.50893e-13 8.02543e-14 0 0 4.15541e-13 3.64471e-13 3.03683e-13 1.51258e-13 0 0 6.03372e-14 9.17511e-13 -3.7689e-13 5.6599e-13 0 0 -1.6531e-13 1.26194e-12 -7.16177e-13 6.94937e-13 0
				</DataArray>
				<DataArray Name="VitesseY" type="Float32" format="ascii">