<?xml version="1.0"?>
<VTKFile type="PolyData">
	<PolyData>
		<Piece NumberOfPoints="1206" NumberOfPolys="1000">
			<Points>
				<DataArray type="Float32" NumberOfComponents="3" format="ascii">
 0 0 0 0.02 0 0 0.04 0 0 0.06 0 0 0.08 0 0 0.1 0 0 0 0.005 0 0.02 0.005 0 0.04 0.005 0 0.06 0.005 0 0.08 0.005 0 0.1 0.005 0 0 0.01 0 0.02 0.01 0 0.04 0.01 0 0.06 0.01 0 0.08 0.01 0 0.1 0.01 0 0 0.015 0 0.02 0.015 0 0.04 0.015 0 0.06 0.015 0 0.08 0.015 0 0.1 0.015 0 0 0.02 0 0.02 0.02 0 0.04 0.02 0 0.06 0.02 0 0.08 0.02 0 0.1 0.02 0 0 0.025 0 0.02 0.025 0 0.04 0.025 0 0.06 0.025 0 0.08 0.025 0 0.1 0.025 0 0 0.03 0 0.02 0.03 0 0.04 0.03 0 0.06 0.03 0 0.08 0.03 0 0.1 0.03 0 0 0.035 0 0.02 0.035 0 0.04 0.035 0 0.06 0.035 0 0.08 0.035 0 0.1 0.035 0 0 0.04 0 0.02 0.04 0 0.04 0.04 0 0.06 0.04 0 0.08 0.04 0 0.1 0.04 0 0 0.045 0 0.02 0.045 0 0.04 0.045 0 0.06 0.045 0 0.08 0.045 0 0.1 0.045 0 0 0.05 0 0.02 0.05 0 0.04 0.05 0 0.06 0.05 0 0.08 0.05 0 0.1 0.05 0 0 0.055 0 0.02 0.055 0 0.04 0.055 0 0.06 0.055 0 0.08 0.055 0 0.1 0.055 0 0 0.06 0 0.02 0.06 0 0.04 0.06 0 0.06 0.06 0 0.08 0.06 0 0.1 0.06 0 0 0.065 0 0.02 0.065 0 0.04 0.065 0 0.06 0.065 0 0.08 0.065 0 0.1 0.065 0 0 0.07 0 0.02 0.07 0 0.04 0.07 0 0.06 0.07 0 0.08 0.07 0 0.1 0.07 0 0 0.075 0 0.02 0.075 0 0.04 0.075 0 0.06 0.075 0 0.08 0.075 0 0.1 0.075 0 0 0.08 0 0.02 0.08 0 0.04 0.08 0 0.06 0.08 0 0.08 0.08 0 0.1 0.08 0 0 0.085 0 0.02 0.085 0 0.04 0.085 0 0.06 0.085 0 0.08 0.085 0 0.1 0.085 0 0 0.09 0 0.02 0.09 0 0.04 0.09 0 0.06 0.09 0 0.08 0.09 0 0.1 0.09 0 0 0.095 0 0.02 0.095 0 0.04 0.095 0 0.06 0.095 0 0.08 0.095 0 0.1 0.095 0 0 0.1 0 0.02 0.1 0 0.04 0.1 0 0.06 0.1 0 0.08 0.1 0 0.1 0.1 0 0 0.105 0 0.02 0.105 0 0.04 0.105 0 0.06 0.105 0 0.08 0.105 0 0.1 0.105 0 0 0.11 0 0.02 0.11 0 0.04 0.11 0 0.06 0.11 0 0.08 0.11 0 0.1 0.11 0 0 0.115 0 0.02 0.115 0 0.04 0.115 0 0.06 0.115 0 0.08 0.115 0 0.1 0.115 0 0 0.12 0 0.02 0.12 0 0.04 0.12 0 0.06 0.12 0 0.08 0.12 0 0.1 0.12 0 0 0.125 0 0.02 0.125 0 0.04 0.125 0 0.06 0.125 0 0.08 0.125 0 0.1 0.125 0 0 0.13 0 0.02 0.13 0 0.04 0.13 0 0.06 0.13 0 0.08 0.13 0 0.1 0.13 0 0 0.135 0 0.02 0.135 0 0.04 0.135 0 0.06 0.135 0 0.08 0.135 0 0.1 0.135 0 0 0.14 0 0.02 0.14 0 0.04 0.14 0 0.06 0.14 0 0.08 0.14 0 0.1 0.14 0 0 0.145 0 0.02 0.145 0 0.04 0.145 0 0.06 0.145 0 0.08 0.145 0 0.1 0.145 0 0 0.15 0 0.02 0.15 0 0.04 0.15 0 0.06 0.15 0 0.08 0.15 0 0.1 0.15 0 0 0.155 0 0.02 0.155 0 0.04 0.155 0 0.06 0.155 0 0.08 0.155 0 0.1 0.155 0 0 0.16 0 0.02 0.16 0 0.04 0.16 0 0.06 0.16 0 0.08 0.16 0 0.1 0.16 0 0 0.165 0 0.02 0.165 0 0.04 0.165 0 0.06 0.165 0 0.08 0.165 0 0.1 0.165 0 0 0.17 0 0.02 0.17 0 0.04 0.17 0 0.06 0.17 0 0.08 0.17 0 0.1 0.17 0 0 0.175 0 0.02 0.175 0 0.04 0.175 0 0.06 0.175 0 0.08 0.175 0 0.1 0.175 0 0 0.18 0 0.02 0.18 0 0.04 0.18 0 0.06 0.18 0 0.08 0.18 0 0.1 0.18 0 0 0.185 0 0.02 0.185 0 0.04 0.185 0 0.06 0.185 0 0.08 0.185 0 0.1 0.185 0 0 0.19 0 0.02 0.19 0 0.04 0.19 0 0.06 0.19 0 0.08 0.19 0 0.1 0.19 0 0 0.195 0 0.02 0.195 0 0.04 0.195 0 0.06 0.195 0 0.08 0.195 0 0.1 0.195 0 0 0.2 0 0.02 0.2 0 0.04 0.2 0 0.06 0.2 0 0.08 0.2 0 0.1 0.2 0 0 0.205 0 0.02 0.205 0 0.04 0.205 0 0.06 0.205 0 0.08 0.205 0 0.1 0.205 0 0 0.21 0 0.02 0.21 0 0.04 0.21 0 0.06 0.21 0 0.08 0.21 0 0.1 0.21 0 0 0.215 0 0.02 0.215 0 0.04 0.215 0 0.06 0.215 0 0.08 0.215 0 0.1 0.215 0 0 0.22 0 0.02 0.22 0 0.04 0.22 0 0.06 0.22 0 0.08 0.22 0 0.1 0.22 0 0 0.225 0 0.02 0.225 0 0.04 0.225 0 0.06 0.225 0 0.08 0.225 0 0.1 0.225 0 0 0.23 0 0.02 0.23 0 0.04 0.23 0 0.06 0.23 0 0.08 0.23 0 0.1 0.23 0 0 0.235 0 0.02 0.235 0 0.04 0.235 0 0.06 0.235 0 0.08 0.235 0 0.1 0.235 0 0 0.24 0 0.02 0.24 0 0.04 0.24 0 0.06 0.24 0 0.08 0.24 0 0.1 0.24 0 0 0.245 0 0.02 0.245 0 0.04 0.245 0 0.06 0.245 0 0.08 0.245 0 0.1 0.245 0 0 0.25 0 0.02 0.25 0 0.04 0.25 0 0.06 0.25 0 0.08 0.25 0 0.1 0.25 0 0 0.255 0 0.02 0.255 0 0.04 0.255 0 0.06 0.255 0 0.08 0.255 0 0.1 0.255 0 0 0.26 0 0.02 0.26 0 0.04 0.26 0 0.06 0.26 0 0.08 0.26 0 0.1 0.26 0 0 0.265 0 0.02 0.265 0 0.04 0.265 0 0.06 0.265 0 0.08 0.265 0 0.1 0.265 0 0 0.27 0 0.02 0.27 0 0.04 0.27 0 0.06 0.27 0 0.08 0.27 0 0.1 0.27 0 0 0.275 0 0.02 0.275 0 0.04 0.275 0 0.06 0.275 0 0.08 0.275 0 0.1 0.275 0 0 0.28 0 0.02 0.28 0 0.04 0.28 0 0.06 0.28 0 0.08 0.28 0 0.1 0.28 0 0 0.285 0 0.02 0.285 0 0.04 0.285 0 0.06 0.285 0 0.08 0.285 0 0.1 0.285 0 0 0.29 0 0.02 0.29 0 0.04 0.29 0 0.06 0.29 0 0.08 0.29 0 0.1 0.29 0 0 0.295 0 0.02 0.295 0 0.04 0.295 0 0.06 0.295 0 0.08 0.295 0 0.1 0.295 0 0 0.3 0 0.02 0.3 0 0.04 0.3 0 0.06 0.3 0 0.08 0.3 0 0.1 0.3 0 0 0.305 0 0.02 0.305 0 0.04 0.305 0 0.06 0.305 0 0.08 0.305 0 0.1 0.305 0 0 0.31 0 0.02 0.31 0 0.04 0.31 0 0.06 0.31 0 0.08 0.31 0 0.1 0.31 0 0 0.315 0 0.02 0.315 0 0.04 0.315 0 0.06 0.315 0 0.08 0.315 0 0.1 0.315 0 0 0.32 0 0.02 0.32 0 0.04 0.32 0 0.06 0.32 0 0.08 0.32 0 0.1 0.32 0 0 0.325 0 0.02 0.325 0 0.04 0.325 0 0.06 0.325 0 0.08 0.325 0 0.1 0.325 0 0 0.33 0 0.02 0.33 0 0.04 0.33 0 0.06 0.33 0 0.08 0.33 0 0.1 0.33 0 0 0.335 0 0.02 0.335 0 0.04 0.335 0 0.06 0.335 0 0.08 0.335 0 0.1 0.335 0 0 0.34 0 0.02 0.34 0 0.04 0.34 0 0.06 0.34 0 0.08 0.34 0 0.1 0.34 0 0 0.345 0 0.02 0.345 0 0.04 0.345 0 0.06 0.345 0 0.08 0.345 0 0.1 0.345 0 0 0.35 0 0.02 0.35 0 0.04 0.35 0 0.06 0.35 0 0.08 0.35 0 0.1 0.35 0 0 0.355 0 0.02 0.355 0 0.04 0.355 0 0.06 0.355 0 0.08 0.355 0 0.1 0.355 0 0 0.36 0 0.02 0.36 0 0.04 0.36 0 0.06 0.36 0 0.08 0.36 0 0.1 0.36 0 0 0.365 0 0.02 0.365 0 0.04 0.365 0 0.06 0.365 0 0.08 0.365 0 0.1 0.365 0 0 0.37 0 0.02 0.37 0 0.04 0.37 0 0.06 0.37 0 0.08 0.37 0 0.1 0.37 0 0 0.375 0 0.02 0.375 0 0.04 0.375 0 0.06 0.375 0 0.08 0.375 0 0.1 0.375 0 0 0.38 0 0.02 0.38 0 0.04 0.38 0 0.06 0.38 0 0.08 0.38 0 0.1 0.38 0 0 0.385 0 0.02 0.385 0 0.04 0.385 0 0.06 0.385 0 0.08 0.385 0 0.1 0.385 0 0 0.39 0 0.02 0.39 0 0.04 0.39 0 0.06 0.39 0 0.08 0.39 0 0.1 0.39 0 0 0.395 0 0.02 0.395 0 0.04 0.395 0 0.06 0.395 0 0.08 0.395 0 0.1 0.395 0 0 0.4 0 0.02 0.4 0 0.04 0.4 0 0.06 0.4 0 0.08 0.4 0 0.1 0.4 0 0 0.405 0 0.02 0.405 0 0.04 0.405 0 0.06 0.405 0 0.08 0.405 0 0.1 0.405 0 0 0.41 0 0.02 0.41 0 0.04 0.41 0 0.06 0.41 0 0.08 0.41 0 0.1 0.41 0 0 0.415 0 0.02 0.415 0 0.04 0.415 0 0.06 0.415 0 0.08 0.415 0 0.1 0.415 0 0 0.42 0 0.02 0.42 0 0.04 0.42 0 0.06 0.42 0 0.08 0.42 0 0.1 0.42 0 0 0.425 0 0.02 0.425 0 0.04 0.425 0 0.06 0.425 0 0.08 0.425 0 0.1 0.425 0 0 0.43 0 0.02 0.43 0 0.04 0.43 0 0.06 0.43 0 0.08 0.43 0 0.1 0.43 0 0 0.435 0 0.02 0.435 0 0.04 0.435 0 0.06 0.435 0 0.08 0.435 0 0.1 0.435 0 0 0.44 0 0.02 0.44 0 0.04 0.44 0 0.06 0.44 0 0.08 0.44 0 0.1 0.44 0 0 0.445 0 0.02 0.445 0 0.04 0.445 0 0.06 0.445 0 0.08 0.445 0 0.1 0.445 0 0 0.45 0 0.02 0.45 0 0.04 0.45 0 0.06 0.45 0 0.08 0.45 0 0.1 0.45 0 0 0.455 0 0.02 0.455 0 0.04 0.455 0 0.06 0.455 0 0.08 0.455 0 0.1 0.455 0 0 0.46 0 0.02 0.46 0 0.04 0.46 0 0.06 0.46 0 0.08 0.46 0 0.1 0.46 0 0 0.465 0 0.02 0.465 0 0.04 0.465 0 0.06 0.465 0 0.08 0.465 0 0.1 0.465 0 0 0.47 0 0.02 0.47 0 0.04 0.47 0 0.06 0.47 0 0.08 0.47 0 0.1 0.47 0 0 0.475 0 0.02 0.475 0 0.04 0.475 0 0.06 0.475 0 0.08 0.475 0 0.1 0.475 0 0 0.48 0 0.02 0.48 0 0.04 0.48 0 0.06 0.48 0 0.08 0.48 0 0.1 0.48 0 0 0.485 0 0.02 0.485 0 0.04 0.485 0 0.06 0.485 0 0.08 0.485 0 0.1 0.485 0 0 0.49 0 0.02 0.49 0 0.04 0.49 0 0.06 0.49 0 0.08 0.49 0 0.1 0.49 0 0 0.495 0 0.02 0.495 0 0.04 0.495 0 0.06 0.495 0 0.08 0.495 0 0.1 0.495 0 0 0.5 0 0.02 0.5 0 0.04 0.5 0 0.06 0.5 0 0.08 0.5 0 0.1 0.5 0 0 0.505 0 0.02 0.505 0 0.04 0.505 0 0.06 0.505 0 0.08 0.505 0 0.1 0.505 0 0 0.51 0 0.02 0.51 0 0.04 0.51 0 0.06 0.51 0 0.08 0.51 0 0.1 0.51 0 0 0.515 0 0.02 0.515 0 0.04 0.515 0 0.06 0.515 0 0.08 0.515 0 0.1 0.515 0 0 0.52 0 0.02 0.52 0 0.04 0.52 0 0.06 0.52 0 0.08 0.52 0 0.1 0.52 0 0 0.525 0 0.02 0.525 0 0.04 0.525 0 0.06 0.525 0 0.08 0.525 0 0.1 0.525 0 0 0.53 0 0.02 0.53 0 0.04 0.53 0 0.06 0.53 0 0.08 0.53 0 0.1 0.53 0 0 0.535 0 0.02 0.535 0 0.04 0.535 0 0.06 0.535 0 0.08 0.535 0 0.1 0.535 0 0 0.54 0 0.02 0.54 0 0.04 0.54 0 0.06 0.54 0 0.08 0.54 0 0.1 0.54 0 0 0.545 0 0.02 0.545 0 0.04 0.545 0 0.06 0.545 0 0.08 0.545 0 0.1 0.545 0 0 0.55 0 0.02 0.55 0 0.04 0.55 0 0.06 0.55 0 0.08 0.55 0 0.1 0.55 0 0 0.555 0 0.02 0.555 0 0.04 0.555 0 0.06 0.555 0 0.08 0.555 0 0.1 0.555 0 0 0.56 0 0.02 0.56 0 0.04 0.56 0 0.06 0.56 0 0.08 0.56 0 0.1 0.56 0 0 0.565 0 0.02 0.565 0 0.04 0.565 0 0.06 0.565 0 0.08 0.565 0 0.1 0.565 0 0 0.57 0 0.02 0.57 0 0.04 0.57 0 0.06 0.57 0 0.08 0.57 0 0.1 0.57 0 0 0.575 0 0.02 0.575 0 0.04 0.575 0 0.06 0.575 0 0.08 0.575 0 0.1 0.575 0 0 0.58 0 0.02 0.58 0 0.04 0.58 0 0.06 0.58 0 0.08 0.58 0 0.1 0.58 0 0 0.585 0 0.02 0.585 0 0.04 0.585 0 0.06 0.585 0 0.08 0.585 0 0.1 0.585 0 0 0.59 0 0.02 0.59 0 0.04 0.59 0 0.06 0.59 0 0.08 0.59 0 0.1 0.59 0 0 0.595 0 0.02 0.595 0 0.04 0.595 0 0.06 0.595 0 0.08 0.595 0 0.1 0.595 0 0 0.6 0 0.02 0.6 0 0.04 0.6 0 0.06 0.6 0 0.08 0.6 0 0.1 0.6 0 0 0.605 0 0.02 0.605 0 0.04 0.605 0 0.06 0.605 0 0.08 0.605 0 0.1 0.605 0 0 0.61 0 0.02 0.61 0 0.04 0.61 0 0.06 0.61 0 0.08 0.61 0 0.1 0.61 0 0 0.615 0 0.02 0.615 0 0.04 0.615 0 0.06 0.615 0 0.08 0.615 0 0.1 0.615 0 0 0.62 0 0.02 0.62 0 0.04 0.62 0 0.06 0.62 0 0.08 0.62 0 0.1 0.62 0 0 0.625 0 0.02 0.625 0 0.04 0.625 0 0.06 0.625 0 0.08 0.625 0 0.1 0.625 0 0 0.63 0 0.02 0.63 0 0.04 0.63 0 0.06 0.63 0 0.08 0.63 0 0.1 0.63 0 0 0.635 0 0.02 0.635 0 0.04 0.635 0 0.06 0.635 0 0.08 0.635 0 0.1 0.635 0 0 0.64 0 0.02 0.64 0 0.04 0.64 0 0.06 0.64 0 0.08 0.64 0 0.1 0.64 0 0 0.645 0 0.02 0.645 0 0.04 0.645 0 0.06 0.645 0 0.08 0.645 0 0.1 0.645 0 0 0.65 0 0.02 0.65 0 0.04 0.65 0 0.06 0.65 0 0.08 0.65 0 0.1 0.65 0 0 0.655 0 0.02 0.655 0 0.04 0.655 0 0.06 0.655 0 0.08 0.655 0 0.1 0.655 0 0 0.66 0 0.02 0.66 0 0.04 0.66 0 0.06 0.66 0 0.08 0.66 0 0.1 0.66 0 0 0.665 0 0.02 0.665 0 0.04 0.665 0 0.06 0.665 0 0.08 0.665 0 0.1 0.665 0 0 0.67 0 0.02 0.67 0 0.04 0.67 0 0.06 0.67 0 0.08 0.67 0 0.1 0.67 0 0 0.675 0 0.02 0.675 0 0.04 0.675 0 0.06 0.675 0 0.08 0.675 0 0.1 0.675 0 0 0.68 0 0.02 0.68 0 0.04 0.68 0 0.06 0.68 0 0.08 0.68 0 0.1 0.68 0 0 0.685 0 0.02 0.685 0 0.04 0.685 0 0.06 0.685 0 0.08 0.685 0 0.1 0.685 0 0 0.69 0 0.02 0.69 0 0.04 0.69 0 0.06 0.69 0 0.08 0.69 0 0.1 
[...]
			<PointData Scalars="VitesseX">
				<DataArray Name="VitesseX" type="Float32" format="ascii">
 0 -1.0407e-14 -2.4958e-14 -1.97069e-14 3.04738e-14 0 0 -1.57898e-14 -1.91262e-14 -1.81107e-14 2.847e-14 0 0 -2.57851e-14 -7.238e-15 -1.40629e-14 2.30321e-14 0 0 -1.16278e-14 -2.17251e-14 -5.43432e-15 2.02425e-14 0 0 -3.31192e-14 1.00133e-14 -5.20729e-14 5.26616e-14 0 0 -5.72337e-14 1.33412e-14 -3.88675e-14 2.33817e-14 0 0 -1.02421e-14 -8.31046e-14 6.19571e-14 -6.63375e-14 0 0 7.0316e-15 -1.00532e-13 6.67931e-14 -9.00288e-14 0 0 -2.41053e-14 -5.5606e-14 -1.2109e-15 -4.03947e-14 0 0 -7.31489e-14 4.103e-15 -1.13305e-13 9.58053e-14 0 0 -1.0513e-13 3.50582e-14 -1.76702e-13 1.90496e-13 0 0 -1.23255e-13 -4.37609e-15 -5.4456e-14 8.03144e-14 0 0 -8.3613e-14 -9.71927e-14 1.22539e-13 -9.17115e-14 0 0 -9.89666e-14 -6.66741e-14 1.04166e-13 -1.04299e-13 0 0 -9.58506e-14 -8.09516e-14 8.0244e-14 -5.37045e-14 0 0 -3.88578e-14 -1.62183e-13 1.01436e-13 -5.9438e-15 0 0 -1.22107e-13 -2.87486e-14 -3.1025e-14 1.07061e-13 0 0 -1.16184e-13 7.7889e-15 -1.01845e-13 1.8416e-13 0 0 -1.40073e-13 7.52577e-14 -1.65265e-13 1.86e-13 0 0 -1.53371e-13 7.45761e-14 -1.26329e-13 8.44589e-14 0 0 -3.14837e-14 -1.27833e-13 4.29376e-14 -4.43219e-14 0 0 -1.33422e-14 -1.6965e-13 4.61125e-14 -5.42964e-14 0 0 -1.30362e-13 3.53739e-15 -1.5253e-13 5.44902e-14 0 0 -1.74488e-13 8.17496e-14 -2.11369e-13 1.90763e-14 0 0 -2.3948e-14 -1.24781e-13 3.55369e-14 -2.19951e-13 0 0 8.92751e-14 -2.42072e-13 1.30212e-13 -3.07453e-13 0 0 -9.30309e-14 1.35367e-14 -1.14044e-13 -1.91079e-13 0 0 -2.41599e-13 1.86351e-13 -3.03445e-13 -8.29953e-14 0 0 -1.43068e-13 2.29423e-14 -2.17102e-13 -8.87929e-14 0 0 -5.14693e-14 -1.52678e-13 -2.86883e-14 -2.08575e-13 0 0 -5.05167e-14 -1.28946e-13 -4.36351e-14 -1.99734e-13 0 0 -4.44152e-15 -1.28823e-13 -1.06937e-13 -5.92814e-14 0 0 -8.4767e-14 -4.88757e-14 -1.43067e-13 8.43505e-14 0 0 -2.83793e-13 1.54105e-13 -2.19924e-13 1.85225e-13 0 0 -1.53627e-13 -4.80325e-14 -3.10528e-14 1.17965e-13 0 0 2.97079e-14 -3.25673e-13 2.53639e-13 -2.91471e-14 0 0 -2.32149e-13 6.70262e-14 -1.06984e-14 1.18921e-13 0 0 -1.27834e-13 -7.05244e-14 1.71668e-13 -9.81148e-15 0 0 -1.91819e-14 -1.64395e-13 2.20934e-13 -5.93715e-14 0 0 -1.76332e-13 1.022e-13 -1.00232e-13 1.32727e-13 0 0 1.34022e-14 -2.70831e-13 1.45291e-13 -6.86388e-15 0 0 4.64004e-14 -3.60686e-13 1.24248e-13 -2.44729e-14 0 0 -1.33909e-13 -7.32781e-14 -1.24985e-13 4.60288e-14 0 0 -3.94876e-14 -2.02548e-13 9.26018e-14 -1.59159e-13 0 0 3.05778e-14 -3.01117e-13 1.7757e-13 -2.33844e-13 0 0 -6.18926e-14 -2.69237e-13 2.19069e-13 -3.32102e-13 0 0 -4.31663e-13 1.83052e-13 -6.50535e-14 -2.61956e-13 0 0 -4.1901e-13 1.57561e-13 -1.31585e-13 -1.47714e-13 0 0 -4.70691e-14 -3.40554e-13 2.51028e-13 -2.78644e-13 0 0 -9.85035e-14 -1.17162e-13 3.04387e-14 -1.20807e-13 0 0 -1.36839e-13 4.40947e-14 -1.28882e-13 -8.95081e-14 0 0 -3.99375e-13 2.90482e-13 -2.20618e-13 -2.28128e-13 0 0 -1.72764e-13 -2.83353e-13 4.89804e-13 -7.88349e-13 0 0 -3.28858e-13 6.05941e-14 1.20329e-13 -5.7757e-13 0 0 -5.64377e-13 7.10792e-13 -6.31763e-13 -8.5336e-14 0 0 -1.22863e-13 1.19275e-13 -3.38514e-14 -4.12809e-13 0 0 -4.36973e-13 3.06101e-13 -4.11667e-14 -3.57207e-13 0 0 -3.60889e-13 -1.66415e-13 4.49235e-13 -5.48254e-13 0 0 -3.78501e-13 -1.78936e-13 3.12952e-13 -3.96652e-13 0 0 -5.35572e-13 2.40852e-13 -2.68218e-13 -5.63997e-14 0 0 -1.50336e-13 -7.17087e-14 -1.86171e-13 -1.27018e-13 0 0 -1.67362e-13 2.13584e-14 -3.02676e-13 -8.49761e-14 0 0 -2.14336e-13 4.36738e-14 -3.04675e-13 -3.19534e-14 0 0 -2.35523e-13 1.58541e-13 -5.67701e-13 2.60152e-13 0 0 -9.25992e-14 -4.09537e-14 -4.65642e-13 2.78804e-13 0 0 -4.018e-14 -1.19804e-13 -3.21122e-13 8.10775e-14 0 0 -1.3016e-13 4.40308e-14 -3.21772e-13 -3.67634e-14 0 0 2.6242e-14 -2.58743e-13 -2.18072e-14 -8.36395e-14 0 0 -3.28036e-13 9.50448e-14 -2.19014e-13 8.21085e-14 0 0 -6.93396e-13 5.023e-13 -3.24176e-13 3.98244e-14 0 0 -2.06139e-13 -3.02029e-13 5.96327e-13 -4.99602e-13 0 0 -3.57253e-13 -1.94473e-14 3.70405e-13 -2.63217e-13 0 0 -5.59582e-13 3.85471e-13 -1.27028e-13 5.31536e-14 0 0 -5.89754e-13 5.28e-13 -3.44054e-13 7.06403e-14 0 0 -3.62056e-13 2.11455e-13 1.55264e-14 -2.98379e-13 0 0 -1.43548e-13 -1.95383e-13 4.95559e-13 -7.02595e-13 0 0 -6.25018e-13 5.63895e-13 -2.71942e-13 -1.765e-13 0 0 -5.03468e-13 4.03183e-13 -4.00586e-13 1.47147e-13 0 0 -4.61718e-13 1.4062e-13 -3.20654e-13 2.54253e-13 0 0 -2.0091e-13 -4.26956e-13 2.8601e-13 -2.13457e-13 0 0 -4.4132e-13 -1.51397e-13 2.22825e-13 -4.14228e-13 0 0 -7.82074e-13 4.12017e-13 -2.25857e-13 -3.1999e-13 0 0 2.03443e-13 -8.07168e-13 6.08962e-13 -7.42264e-13 0 0 -2.11369e-13 -8.4293e-14 -1.84577e-13 -2.65275e-13 0 0 -1.14186e-12 1.24611e-12 -1.37159e-12 3.51474e-13 0 0 6.57487e-14 -4.1212e-13 -9.61754e-14 -2.1646e-13 0 0 5.35655e-13 -1.13396e-12 5.92247e-13 -4.52787e-13 0 0 -3.72354e-13 3.91588e-14 -3.80523e-13 1.46367e-13 0 0 -4.79165e-13 2.13033e-13 -6.68721e-13 3.21596e-13 0 0 -8.19575e-13 3.3233e-13 -7.90461e-13 4.84103e-13 0 0 -2.88716e-13 -7.69405e-13 1.10755e-13 1.09594e-13 0 0 2.8145e-13 -1.48852e-12 7.31486e-13 -1.34437e-13 0 0 -5.20369e-13 -1.0281e-13 -4.25349e-13 4.20554e-13 0 0 -6.19233e-13 5.9785e-13 -6.73216e-13 2.13418e-13 0 0 -8.02036e-13 8.73861e-13 -5.61165e-13 -6.50174e-14 0 0 1.67843e-13 -6.23893e-13 3.95095e-13 -5.02478e-13 0 0 9.34224e-13 -1.59514e-12 1.14564e-12 -7.26355e-13 0 0 -4.40033e-13 6.41965e-15 5.04175e-13 -7.65532e-13 0 0 -1.47139e-12 1.26644e-12 -1.24323e-13 -8.01595e-13 0 0 -8.35366e-13 6.71446e-13 -5.9907e-14 -6.36373e-13 0 0 4.10346e-13 -3.14989e-13 -1.65634e-13 -2.80281e-13 0 0 5.04625e-13 -1.90125e-13 -4.90814e-13 -3.61213e-15 0 0 1.59949e-13 3.09612e-13 -9.06595e-13 2.198e-13 0 0 -1.63599e-13 3.81249e-13 -9.05193e-13 2.16474e-13 0 0 -2.24267e-13 1.63345e-13 -7.70272e-13 1.55143e-13 0 0 -2.70371e-13 -1.96183e-13 -5.68825e-13 4.54772e-14 0 0 -3.60496e-13 -4.5162e-13 -3.13056e-13 -2.1263e-13 0 0 -4.44557e-13 -4.96114e-13 -3.13472e-13 -2.83413e-13 0 0 -5.03296e-13 -4.16132e-13 -4.80385e-13 -2.23935e-13 0 0 -5.05828e-13 -4.00145e-13 -4.00932e-13 -3.02044e-13 0 0 -3.70256e-13 -5.50572e-13 -4.2461e-14 -5.42032e-13 0 0 -2.47108e-13 -4.8881e-13 -1.08594e-13 -3.88867e-13 0 0 -4.12124e-13 -9.26144e-15 -5.53264e-13 3.04424e-14 0 0 -5.50189e-13 2.24251e-13 -6.44062e-13 9.93827e-14 0 0 -2.28196e-13 -2.55453e-13 -1.75358e-13 -1.50096e-13 0 0 1.47856e-13 -7.73992e-13 2.80802e-13 -4.80463e-13 0 0 -1.29991e-13 -3.27992e-13 -1.60744e-13 -2.54589e-13 0 0 -6.01854e-13 3.6595e-13 -8.11177e-13 1.66278e-13 0 0 -3.41034e-13 -1.09225e-13 -2.48315e-13 -2.45688e-13 0 0 -3.13409e-13 -1.89286e-13 -6.2711e-14 -4.80623e-13 0 0 -2.15079e-13 -2.97134e-13 4.82408e-14 -5.24871e-13 0 0 -2.32885e-13 -2.31068e-13 -7.30943e-14 -3.5304e-13 0 0 -8.02428e-13 5.9799e-13 -8.92965e-13 2.63107e-13 0 0 -2.72764e-13 -3.60341e-13 7.49763e-14 -2.31405e-13 0 0 -2.54517e-13 -3.98158e-13 1.44344e-13 -3.73956e-13 0 0 -1.50774e-13 -3.57775e-13 -7.5798e-14 -3.06218e-13 0 0 -9.75365e-14 -3.90248e-13 -1.74595e-13 -2.22047e-13 0 0 -8.31412e-13 6.28244e-13 -1.12876e-12 3.86351e-13 0 0 -3.76896e-13 -2.34476e-13 -2.18009e-13 -1.25652e-13 0 0 -3.85443e-13 -3.75194e-13 1.21031e-13 -4.83211e-13 0 0 -2.90557e-13 -3.93035e-13 7.06516e-14 -5.49383e-13 0 0 -2.03511e-13 -3.98087e-13 -1.183e-13 -3.69846e-13 0 0 -9.2851e-13 5.91051e-13 -1.15482e-12 4.17429e-13 0 0 -4.20532e-13 -3.55176e-13 -1.5908e-13 -1.83027e-13 0 0 -4.35523e-13 -4.04784e-13 1.77554e-13 -6.28934e-13 0 0 -3.21513e-13 -3.49413e-13 5.22256e-15 -6.53002e-13 0 0 -2.04196e-13 -4.92459e-13 -6.93566e-14 -5.72858e-13 0 0 -1.00773e-12 4.63612e-13 -1.01598e-12 2.2162e-13 0 0 -4.21616e-13 -3.97469e-13 -2.71985e-13 -1.06848e-13 0 0 -2.8347e-13 -5.38707e-13 -4.43016e-14 -3.88788e-13 0 0 -5.90932e-13 -1.21331e-13 -3.79855e-13 -3.45286e-13 0 0 1.17318e-13 -1.19457e-12 5.07804e-13 -8.81775e-13 0 0 -7.70271e-13 6.7455e-14 -6.67395e-13 1.39482e-14 0 0 -1.10242e-12 5.58997e-13 -9.61658e-13 2.68026e-13 0 0 1.63057e-13 -1.00778e-12 6.4438e-13 -7.92852e-13 0 0 -3.19114e-13 -9.99745e-14 1.60574e-15 -4.8477e-13 0 0 -3.03624e-13 -2.58926e-13 -1.14217e-13 -3.32608e-14 0 0 -6.77134e-13 1.16369e-13 -7.45695e-13 6.99222e-13 0 0 -1.07001e-12 4.75493e-13 -8.35615e-13 6.8088e-13 0 0 -2.97335e-14 -1.06913e-12 8.67355e-13 -5.23925e-13 0 0 -4.33208e-13 -2.75672e-13 2.90621e-13 -2.99531e-13 0 0 -2.95774e-13 -3.93161e-13 1.38143e-13 2.07461e-13 0 0 -7.61327e-13 2.15016e-13 -7.27443e-13 1.05446e-12 0 0 -9.57556e-13 3.31843e-13 -7.58132e-13 8.5024e-13 0 0 -4.82376e-13 -4.45383e-13 7.35605e-14 -1.53516e-13 0 0 -2.53709e-13 -7.13562e-13 1.12888e-13 -4.93327e-13 0 0 -1.65063e-13 -7.39428e-13 -1.93288e-13 -3.82926e-13 0 0 -8.89241e-13 2.93057e-13 -1.10631e-12 1.49274e-15 0 0 -6.76485e-13 -3.09764e-13 -2.37841e-13 -6.51225e-13 0 0 -4.5893e-13 -7.8281e-13 3.60918e-13 -1.19461e-12 0 0 -1.61218e-13 -9.22943e-13 1.93314e-13 -1.20427e-12 0 0 -4.34656e-13 -1.56376e-14 -1.20965e-12 -6.3826e-14 0 0 -9.19652e-13 9.49967e-13 -2.3529e-12 8.57494e-13 0 0 -2.66011e-13 -3.87168e-13 -7.67895e-13 -2.84529e-13 0 0 -7.43043e-14 -1.23896e-12 5.62207e-13 -1.39179e-12 0 0 -2.84973e-13 -8.18819e-13 9.53173e-14 -1.26319e-12 0 0 -5.29998e-13 -1.9668e-13 -9.96139e-13 -1.99121e-13 0 0 -8.96006e-13 3.80412e-13 -2.02336e-12 1.1829e-12 0 0 -1.81132e-13 -7.33034e-13 -1.17255e-12 1.01432e-12 0 0 -5.36737e-13 -3.51208e-13 -1.15189e-12 5.05152e-13 0 0 -8.19615e-13 1.1365e-13 -1.25095e-12 -1.48204e-13 0 0 -1.56687e-13 -1.10515e-12 1.05594e-13 -1.00221e-12 0 0 -8.86559e-13 -2.8776e-13 -4.73212e-13 -5.66305e-13 0 0 -5.3237e-13 -4.96551e-13 -6.1565e-13 -4.78459e-13 0 0 -4.98784e-13 -1.92046e-13 -1.17485e-12 -3.26901e-13 0 0 -6.31491e-13 -8.75934e-14 -1.06366e-12 -4.86209e-13 0 0 -2.80782e-14 -1.34722e-12 3.8198e-13 -9.98362e-13 0 0 -8.56243e-13 -2.71593e-13 -3.06267e-13 -6.16878e-13 0 0 -4.48664e-13 -4.39262e-13 -4.83842e-13 -5.83996e-13 0 0 -2.96985e-13 -2.82674e-13 -1.14524e-12 -1.25222e-13 0 0 -7.45587e-13 2.14296e-13 -1.35591e-12 -1.22129e-13 0 0 -1.82115e-13 -1.15323e-12 5.08016e-13 -1.26917e-12 0 0 -7.73383e-13 -5.04646e-13 9.07257e-14 -9.02896e-13 0 0 -5.28064e-13 -4.81021e-13 -4.52067e-13 -3.73936e-13 0 0 -4.34783e-13 -3.10217e-13 -1.0923e-12 -1.25582e-13 0 0 -6.79683e-13 -1.21573e-13 -1.05388e-12 -5.07493e-13 0 0 -4.62675e-14 -1.42173e-12 5.10136e-13 -1.36471e-12 0 0 -7.68529e-13 -2.59029e-13 -5.86261e-13 -5.56734e-13 0 0 -5.54467e-13 -1.37101e-13 -8.63885e-13 -4.61617e-13 0 0 -9.043e-13 2.40998e-13 -8.07658e-13 -7.2721e-13 0 0 -1.26237e-12 2.82332e-13 -5.93771e-13 -7.73068e-13 0 0 2.52541e-13 -2.22902e-12 1.54341e-12 -1.64008e-12 0 0 -1.25117e-12 1.0574e-13 -6.28602e-13 -3.58584e-13 0 0 -1.85032e-12 1.37095e-12 -1.83959e-12 1.02636e-13 0 0 -1.8247e-13 -7.11658e-13 1.99316e-13 -1.41335e-12 0 0 -1.34965e-13 -8.1846e-13 4.81662e-13 -1.71175e-12 0 0 9.45865e-14 -1.39498e-12 7.24569e-13 -1.57538e-12 0 0 -1.23763e-12 7.65759e-13 -1.90025e-12 4.13598e-13 0 0 -1.32068e-12 8.70224e-13 -1.83895e-12 4.40128e-13 0 0 -6.55326e-14 -1.36982e-12 1.03445e-12 -1.56821e-12 0 0 -4.01298e-13 -1.09547e-12 1.20329e-12 -1.81982e-12 0
				</DataArray>
				<DataArray Name="VitesseY" type="Float32" format="ascii">