<?xml version="1.0"?>
<VTKFile type="PolyData">
	<PolyData>
		<Piece NumberOfPoints="1206" NumberOfPolys="1000">
			<Points>
				<DataArray type="Float32" NumberOfComponents="3" format="ascii">
 0 0 0 0.02 0 0 0.04 0 0 0.06 0 0 0.08 0 0 0.1 0 0 0 0.005 0 0.02 0.005 0 0.04 0.005 0 0.06 0.005 0 0.08 0.005 0 0.1 0.005 0 0 0.01 0 0.02 0.01 0 0.04 0.01 0 0.06 0.01 0 0.08 0.01 0 0.1 0.01 0 0 0.015 0 0.02 0.015 0 0.04 0.015 0 0.06 0.015 0 0.08 0.015 0 0.1 0.015 0 0 0.02 0 0.02 0.02 0 0.04 0.02 0 0.06 0.02 0 0.08 0.02 0 0.1 0.02 0 0 0.025 0 0.02 0.025 0 0.04 0.025 0 0.06 0.025 0 0.08 0.025 0 0.1 0.025 0 0 0.03 0 0.02 0.03 0 0.04 0.03 0 0.06 0.03 0 0.08 0.03 0 0.1 0.03 0 0 0.035 0 0.02 0.035 0 0.04 0.035 0 0.06 0.035 0 0.08 0.035 0 0.1 0.035 0 0 0.04 0 0.02 0.04 0 0.04 0.04 0 0.06 0.04 0 0.08 0.04 0 0.1 0.04 0 0 0.045 0 0.02 0.045 0 0.04 0.045 0 0.06 0.045 0 0.08 0.045 0 0.1 0.045 0 0 0.05 0 0.02 0.05 0 0.04 0.05 0 0.06 0.05 0 0.08 0.05 0 0.1 0.05 0 0 0.055 0 0.02 0.055 0 0.04 0.055 0 0.06 0.055 0 0.08 0.055 0 0.1 0.055 0 0 0.06 0 0.02 0.06 0 0.04 0.06 0 0.06 0.06 0 0.08 0.06 0 0.1 0.06 0 0 0.065 0 0.02 0.065 0 0.04 0.065 0 0.06 0.065 0 0.08 0.065 0 0.1 0.065 0 0 0.07 0 0.02 0.07 0 0.04 0.07 0 0.06 0.07 0 0.08 0.07 0 0.1 0.07 0 0 0.075 0 0.02 0.075 0 0.04 0.075 0 0.06 0.075 0 0.08 0.075 0 0.1 0.075 0 0 0.08 0 0.02 0.08 0 0.04 0.08 0 0.06 0.08 0 0.08 0.08 0 0.1 0.08 0 0 0.085 0 0.02 0.085 0 0.04 0.085 0 0.06 0.085 0 0.08 0.085 0 0.1 0.085 0 0 0.09 0 0.02 0.09 0 0.04 0.09 0 0.06 0.09 0 0.08 0.09 0 0.1 0.09 0 0 0.095 0 0.02 0.095 0 0.04 0.095 0 0.06 0.095 0 0.08 0.095 0 0.1 0.095 0 0 0.1 0 0.02 0.1 0 0.04 0.1 0 0.06 0.1 0 0.08 0.1 0 0.1 0.1 0 0 0.105 0 0.02 0.105 0 0.04 0.105 0 0.06 0.105 0 0.08 0.105 0 0.1 0.105 0 0 0.11 0 0.02 0.11 0 0.04 0.11 0 0.06 0.11 0 0.08 0.11 0 0.1 0.11 0 0 0.115 0 0.02 0.115 0 0.04 0.115 0 0.06 0.115 0 0.08 0.115 0 0.1 0.115 0 0 0.12 0 0.02 0.12 0 0.04 0.12 0 0.06 0.12 0 0.08 0.12 0 0.1 0.12 0 0 0.125 0 0.02 0.125 0 0.04 0.125 0 0.06 0.125 0 0.08 0.125 0 0.1 0.125 0 0 0.13 0 0.02 0.13 0 0.04 0.13 0 0.06 0.13 0 0.08 0.13 0 0.1 0.13 0 0 0.135 0 0.02 0.135 0 0.04 0.135 0 0.06 0.135 0 0.08 0.135 0 0.1 0.135 0 0 0.14 0 0.02 0.14 0 0.04 0.14 0 0.06 0.14 0 0.08 0.14 0 0.1 0.14 0 0 0.145 0 0.02 0.145 0 0.04 0.145 0 0.06 0.145 0 0.08 0.145 0 0.1 0.145 0 0 0.15 0 0.02 0.15 0 0.04 0.15 0 0.06 0.15 0 0.08 0.15 0 0.1 0.15 0 0 0.155 0 0.02 0.155 0 0.04 0.155 0 0.06 0.155 0 0.08 0.155 0 0.1 0.155 0 0 0.16 0 0.02 0.16 0 0.04 0.16 0 0.06 0.16 0 0.08 0.16 0 0.1 0.16 0 0 0.165 0 0.02 0.165 0 0.04 0.165 0 0.06 0.165 0 0.08 0.165 0 0.1 0.165 0 0 0.17 0 0.02 0.17 0 0.04 0.17 0 0.06 0.17 0 0.08 0.17 0 0.1 0.17 0 0 0.175 0 0.02 0.175 0 0.04 0.175 0 0.06 0.175 0 0.08 0.175 0 0.1 0.175 0 0 0.18 0 0.02 0.18 0 0.04 0.18 0 0.06 0.18 0 0.08 0.18 0 0.1 0.18 0 0 0.185 0 0.02 0.185 0 0.04 0.185 0 0.06 0.185 0 0.08 0.185 0 0.1 0.185 0 0 0.19 0 0.02 0.19 0 0.04 0.19 0 0.06 0.19 0 0.08 0.19 0 0.1 0.19 0 0 0.195 0 0.02 0.195 0 0.04 0.195 0 0.06 0.195 0 0.08 0.195 0 0.1 0.195 0 0 0.2 0 0.02 0.2 0 0.04 0.2 0 0.06 0.2 0 0.08 0.2 0 0.1 0.2 0 0 0.205 0 0.02 0.205 0 0.04 0.205 0 0.06 0.205 0 0.08 0.205 0 0.1 0.205 0 0 0.21 0 0.02 0.21 0 0.04 0.21 0 0.06 0.21 0 0.08 0.21 0 0.1 0.21 0 0 0.215 0 0.02 0.215 0 0.04 0.215 0 0.06 0.215 0 0.08 0.215 0 0.1 0.215 0 0 0.22 0 0.02 0.22 0 0.04 0.22 0 0.06 0.22 0 0.08 0.22 0 0.1 0.22 0 0 0.225 0 0.02 0.225 0 0.04 0.225 0 0.06 0.225 0 0.08 0.225 0 0.1 0.225 0 0 0.23 0 0.02 0.23 0 0.04 0.23 0 0.06 0.23 0 0.08 0.23 0 0.1 0.23 0 0 0.235 0 0.02 0.235 0 0.04 0.235 0 0.06 0.235 0 0.08 0.235 0 0.1 0.235 0 0 0.24 0 0.02 0.24 0 0.04 0.24 0 0.06 0.24 0 0.08 0.24 0 0.1 0.24 0 0 0.245 0 0.02 0.245 0 0.04 0.245 0 0.06 0.245 0 0.08 0.245 0 0.1 0.245 0 0 0.25 0 0.02 0.25 0 0.04 0.25 0 0.06 0.25 0 0.08 0.25 0 0.1 0.25 0 0 0.255 0 0.02 0.255 0 0.04 0.255 0 0.06 0.255 0 0.08 0.255 0 0.1 0.255 0 0 0.26 0 0.02 0.26 0 0.04 0.26 0 0.06 0.26 0 0.08 0.26 0 0.1 0.26 0 0 0.265 0 0.02 0.265 0 0.04 0.265 0 0.06 0.265 0 0.08 0.265 0 0.1 0.265 0 0 0.27 0 0.02 0.27 0 0.04 0.27 0 0.06 0.27 0 0.08 0.27 0 0.1 0.27 0 0 0.275 0 0.02 0.275 0 0.04 0.275 0 0.06 0.275 0 0.08 0.275 0 0.1 0.275 0 0 0.28 0 0.02 0.28 0 0.04 0.28 0 0.06 0.28 0 0.08 0.28 0 0.1 0.28 0 0 0.285 0 0.02 0.285 0 0.04 0.285 0 0.06 0.285 0 0.08 0.285 0 0.1 0.285 0 0 0.29 0 0.02 0.29 0 0.04 0.29 0 0.06 0.29 0 0.08 0.29 0 0.1 0.29 0 0 0.295 0 0.02 0.295 0 0.04 0.295 0 0.06 0.295 0 0.08 0.295 0 0.1 0.295 0 0 0.3 0 0.02 0.3 0 0.04 0.3 0 0.06 0.3 0 0.08 0.3 0 0.1 0.3 0 0 0.305 0 0.02 0.305 0 0.04 0.305 0 0.06 0.305 0 0.08 0.305 0 0.1 0.305 0 0 0.31 0 0.02 0.31 0 0.04 0.31 0 0.06 0.31 0 0.08 0.31 0 0.1 0.31 0 0 0.315 0 0.02 0.315 0 0.04 0.315 0 0.06 0.315 0 0.08 0.315 0 0.1 0.315 0 0 0.32 0 0.02 0.32 0 0.04 0.32 0 0.06 0.32 0 0.08 0.32 0 0.1 0.32 0 0 0.325 0 0.02 0.325 0 0.04 0.325 0 0.06 0.325 0 0.08 0.325 0 0.1 0.325 0 0 0.33 0 0.02 0.33 0 0.04 0.33 0 0.06 0.33 0 0.08 0.33 0 0.1 0.33 0 0 0.335 0 0.02 0.335 0 0.04 0.335 0 0.06 0.335 0 0.08 0.335 0 0.1 0.335 0 0 0.34 0 0.02 0.34 0 0.04 0.34 0 0.06 0.34 0 0.08 0.34 0 0.1 0.34 0 0 0.345 0 0.02 0.345 0 0.04 0.345 0 0.06 0.345 0 0.08 0.345 0 0.1 0.345 0 0 0.35 0 0.02 0.35 0 0.04 0.35 0 0.06 0.35 0 0.08 0.35 0 0.1 0.35 0 0 0.355 0 0.02 0.355 0 0.04 0.355 0 0.06 0.355 0 0.08 0.355 0 0.1 0.355 0 0 0.36 0 0.02 0.36 0 0.04 0.36 0 0.06 0.36 0 0.08 0.36 0 0.1 0.36 0 0 0.365 0 0.02 0.365 0 0.04 0.365 0 0.06 0.365 0 0.08 0.365 0 0.1 0.365 0 0 0.37 0 0.02 0.37 0 0.04 0.37 0 0.06 0.37 0 0.08 0.37 0 0.1 0.37 0 0 0.375 0 0.02 0.375 0 0.04 0.375 0 0.06 0.375 0 0.08 0.375 0 0.1 0.375 0 0 0.38 0 0.02 0.38 0 0.04 0.38 0 0.06 0.38 0 0.08 0.38 0 0.1 0.38 0 0 0.385 0 0.02 0.385 0 0.04 0.385 0 0.06 0.385 0 0.08 0.385 0 0.1 0.385 0 0 0.39 0 0.02 0.39 0 0.04 0.39 0 0.06 0.39 0 0.08 0.39 0 0.1 0.39 0 0 0.395 0 0.02 0.395 0 0.04 0.395 0 0.06 0.395 0 0.08 0.395 0 0.1 0.395 0 0 0.4 0 0.02 0.4 0 0.04 0.4 0 0.06 0.4 0 0.08 0.4 0 0.1 0.4 0 0 0.405 0 0.02 0.405 0 0.04 0.405 0 0.06 0.405 0 0.08 0.405 0 0.1 0.405 0 0 0.41 0 0.02 0.41 0 0.04 0.41 0 0.06 0.41 0 0.08 0.41 0 0.1 0.41 0 0 0.415 0 0.02 0.415 0 0.04 0.415 0 0.06 0.415 0 0.08 0.415 0 0.1 0.415 0 0 0.42 0 0.02 0.42 0 0.04 0.42 0 0.06 0.42 0 0.08 0.42 0 0.1 0.42 0 0 0.425 0 0.02 0.425 0 0.04 0.425 0 0.06 0.425 0 0.08 0.425 0 0.1 0.425 0 0 0.43 0 0.02 0.43 0 0.04 0.43 0 0.06 0.43 0 0.08 0.43 0 0.1 0.43 0 0 0.435 0 0.02 0.435 0 0.04 0.435 0 0.06 0.435 0 0.08 0.435 0 0.1 0.435 0 0 0.44 0 0.02 0.44 0 0.04 0.44 0 0.06 0.44 0 0.08 0.44 0 0.1 0.44 0 0 0.445 0 0.02 0.445 0 0.04 0.445 0 0.06 0.445 0 0.08 0.445 0 0.1 0.445 0 0 0.45 0 0.02 0.45 0 0.04 0.45 0 0.06 0.45 0 0.08 0.45 0 0.1 0.45 0 0 0.455 0 0.02 0.455 0 0.04 0.455 0 0.06 0.455 0 0.08 0.455 0 0.1 0.455 0 0 0.46 0 0.02 0.46 0 0.04 0.46 0 0.06 0.46 0 0.08 0.46 0 0.1 0.46 0 0 0.465 0 0.02 0.465 0 0.04 0.465 0 0.06 0.465 0 0.08 0.465 0 0.1 0.465 0 0 0.47 0 0.02 0.47 0 0.04 0.47 0 0.06 0.47 0 0.08 0.47 0 0.1 0.47 0 0 0.475 0 0.02 0.475 0 0.04 0.475 0 0.06 0.475 0 0.08 0.475 0 0.1 0.475 0 0 0.48 0 0.02 0.48 0 0.04 0.48 0 0.06 0.48 0 0.08 0.48 0 0.1 0.48 0 0 0.485 0 0.02 0.485 0 0.04 0.485 0 0.06 0.485 0 0.08 0.485 0 0.1 0.485 0 0 0.49 0 0.02 0.49 0 0.04 0.49 0 0.06 0.49 0 0.08 0.49 0 0.1 0.49 0 0 0.495 0 0.02 0.495 0 0.04 0.495 0 0.06 0.495 0 0.08 0.495 0 0.1 0.495 0 0 0.5 0 0.02 0.5 0 0.04 0.5 0 0.06 0.5 0 0.08 0.5 0 0.1 0.5 0 0 0.505 0 0.02 0.505 0 0.04 0.505 0 0.06 0.505 0 0.08 0.505 0 0.1 0.505 0 0 0.51 0 0.02 0.51 0 0.04 0.51 0 0.06 0.51 0 0.08 0.51 0 0.1 0.51 0 0 0.515 0 0.02 0.515 0 0.04 0.515 0 0.06 0.515 0 0.08 0.515 0 0.1 0.515 0 0 0.52 0 0.02 0.52 0 0.04 0.52 0 0.06 0.52 0 0.08 0.52 0 0.1 0.52 0 0 0.525 0 0.02 0.525 0 0.04 0.525 0 0.06 0.525 0 0.08 0.525 0 0.1 0.525 0 0 0.53 0 0.02 0.53 0 0.04 0.53 0 0.06 0.53 0 0.08 0.53 0 0.1 0.53 0 0 0.535 0 0.02 0.535 0 0.04 0.535 0 0.06 0.535 0 0.08 0.535 0 0.1 0.535 0 0 0.54 0 0.02 0.54 0 0.04 0.54 0 0.06 0.54 0 0.08 0.54 0 0.1 0.54 0 0 0.545 0 0.02 0.545 0 0.04 0.545 0 0.06 0.545 0 0.08 0.545 0 0.1 0.545 0 0 0.55 0 0.02 0.55 0 0.04 0.55 0 0.06 0.55 0 0.08 0.55 0 0.1 0.55 0 0 0.555 0 0.02 0.555 0 0.04 0.555 0 0.06 0.555 0 0.08 0.555 0 0.1 0.555 0 0 0.56 0 0.02 0.56 0 0.04 0.56 0 0.06 0.56 0 0.08 0.56 0 0.1 0.56 0 0 0.565 0 0.02 0.565 0 0.04 0.565 0 0.06 0.565 0 0.08 0.565 0 0.1 0.565 0 0 0.57 0 0.02 0.57 0 0.04 0.57 0 0.06 0.57 0 0.08 0.57 0 0.1 0.57 0 0 0.575 0 0.02 0.575 0 0.04 0.575 0 0.06 0.575 0 0.08 0.575 0 0.1 0.575 0 0 0.58 0 0.02 0.58 0 0.04 0.58 0 0.06 0.58 0 0.08 0.58 0 0.1 0.58 0 0 0.585 0 0.02 0.585 0 0.04 0.585 0 0.06 0.585 0 0.08 0.585 0 0.1 0.585 0 0 0.59 0 0.02 0.59 0 0.04 0.59 0 0.06 0.59 0 0.08 0.59 0 0.1 0.59 0 0 0.595 0 0.02 0.595 0 0.04 0.595 0 0.06 0.595 0 0.08 0.595 0 0.1 0.595 0 0 0.6 0 0.02 0.6 0 0.04 0.6 0 0.06 0.6 0 0.08 0.6 0 0.1 0.6 0 0 0.605 0 0.02 0.605 0 0.04 0.605 0 0.06 0.605 0 0.08 0.605 0 0.1 0.605 0 0 0.61 0 0.02 0.61 0 0.04 0.61 0 0.06 0.61 0 0.08 0.61 0 0.1 0.61 0 0 0.615 0 0.02 0.615 0 0.04 0.615 0 0.06 0.615 0 0.08 0.615 0 0.1 0.615 0 0 0.62 0 0.02 0.62 0 0.04 0.62 0 0.06 0.62 0 0.08 0.62 0 0.1 0.62 0 0 0.625 0 0.02 0.625 0 0.04 0.625 0 0.06 0.625 0 0.08 0.625 0 0.1 0.625 0 0 0.63 0 0.02 0.63 0 0.04 0.63 0 0.06 0.63 0 0.08 0.63 0 0.1 0.63 0 0 0.635 0 0.02 0.635 0 0.04 0.635 0 0.06 0.635 0 0.08 0.635 0 0.1 0.635 0 0 0.64 0 0.02 0.64 0 0.04 0.64 0 0.06 0.64 0 0.08 0.64 0 0.1 0.64 0 0 0.645 0 0.02 0.645 0 0.04 0.645 0 0.06 0.645 0 0.08 0.645 0 0.1 0.645 0 0 0.65 0 0.02 0.65 0 0.04 0.65 0 0.06 0.65 0 0.08 0.65 0 0.1 0.65 0 0 0.655 0 0.02 0.655 0 0.04 0.655 0 0.06 0.655 0 0.08 0.655 0 0.1 0.655 0 0 0.66 0 0.02 0.66 0 0.04 0.66 0 0.06 0.66 0 0.08 0.66 0 0.1 0.66 0 0 0.665 0 0.02 0.665 0 0.04 0.665 0 0.06 0.665 0 0.08 0.665 0 0.1 0.665 0 0 0.67 0 0.02 0.67 0 0.04 0.67 0 0.06 0.67 0 0.08 0.67 0 0.1 0.67 0 0 0.675 0 0.02 0.675 0 0.04 0.675 0 0.06 0.675 0 0.08 0.675 0 0.1 0.675 0 0 0.68 0 0.02 0.68 0 0.04 0.68 0 0.06 0.68 0 0.08 0.68 0 0.1 0.68 0 0 0.685 0 0.02 0.685 0 0.04 0.685 0 0.06 0.685 0 0.08 0.685 0 0.1 0.685 0 0 0.69 0 0.02 0.69 0 0.04 0.69 0 0.06 0.69 0 0.08 0.69 0 0.1 
[...]
			<PointData Scalars="VitesseX">
				<DataArray Name="VitesseX" type="Float32" format="ascii">
 0 -1.95593e-14 -2.33032e-15 -1.66739e-16 1.04405e-14 0 0 -2.16658e-14 -2.4664e-15 1.03489e-15 9.90757e-15 0 0 -1.80071e-14 -1.6316e-14 1.68947e-14 2.03737e-15 0 0 -3.66961e-14 9.78604e-15 -1.06315e-14 2.42323e-14 0 0 -3.08089e-14 -2.73535e-15 1.30162e-16 2.02605e-14 0 0 -5.55347e-15 -4.24122e-14 3.23366e-14 4.73454e-15 0 0 -2.89402e-14 2.55558e-15 -3.63603e-14 6.81442e-14 0 0 -6.18854e-14 4.76265e-14 -7.46754e-14 1.13262e-13 0 0 -4.37492e-14 -2.26947e-15 1.86746e-14 6.15577e-14 0 0 -3.99459e-14 -3.14735e-14 9.4291e-14 1.48355e-14 0 0 -6.10473e-14 -6.80741e-15 1.02377e-13 3.85187e-15 0 0 -9.20817e-15 -8.07067e-14 1.77879e-13 -4.477e-14 0 0 -6.65355e-14 4.99117e-14 1.36532e-14 6.68647e-14 0 0 -4.51877e-14 4.75153e-14 -4.44555e-15 7.75207e-14 0 0 1.65213e-14 -4.80669e-14 1.25915e-13 -3.80586e-14 0 0 -5.26557e-14 1.0203e-13 -3.61265e-14 3.79167e-14 0 0 1.4996e-14 2.45707e-14 -1.54941e-14 4.22928e-14 0 0 2.58943e-14 -1.68408e-15 -1.62706e-14 5.50201e-14 0 0 1.62105e-14 -4.96944e-15 -3.50579e-14 7.67096e-14 0 0 -2.631e-15 1.1443e-14 -7.64136e-14 1.02378e-13 0 0 -4.89952e-14 9.08837e-14 -1.88661e-13 1.65348e-13 0 0 -6.44411e-14 9.51963e-14 -1.60339e-13 1.03565e-13 0 0 -2.81448e-14 -1.36283e-14 3.34148e-14 -9.15053e-14 0 0 -3.25608e-14 -3.89295e-14 7.40021e-14 -1.29975e-13 0 0 -1.54796e-13 1.30233e-13 -9.82024e-14 -2.68724e-14 0 0 -1.58714e-13 9.97132e-14 -6.38338e-14 -8.42375e-14 0 0 -1.33641e-13 3.8728e-14 -3.97888e-14 -1.08299e-13 0 0 -9.45472e-14 -4.91287e-15 -6.468e-14 -8.63713e-14 0 0 -2.59305e-14 -1.16819e-13 4.11049e-14 -1.55769e-13 0 0 -9.54042e-14 -4.62512e-14 1.86295e-14 -1.19623e-13 0 0 -9.04049e-14 -5.79545e-14 2.56631e-14 -5.25465e-14 0 0 -1.25089e-13 1.5212e-14 -1.47544e-14 -8.52962e-15 0 0 -1.38241e-13 7.29662e-14 -1.28224e-14 -2.69361e-14 0 0 4.57832e-14 -2.26223e-13 3.7137e-13 -2.7387e-13 0 0 -1.42882e-13 9.29828e-15 2.22625e-13 -1.65634e-13 0 0 -2.47973e-13 1.95268e-13 -1.10286e-14 -1.0348e-14 0 0 -8.59114e-14 2.18835e-14 3.05402e-14 -2.97022e-14 0 0 -1.89448e-14 -7.411e-15 -2.46642e-14 2.97074e-14 0 0 -8.27752e-14 5.77763e-14 -1.05222e-14 1.43356e-15 0 0 -1.57167e-13 8.47136e-14 1.0527e-13 -1.46768e-13 0 0 -1.52453e-13 1.07531e-13 6.65184e-14 -1.60287e-13 0 0 -8.9262e-14 -8.84818e-15 1.2802e-13 -1.36445e-13 0 0 -4.60275e-14 -1.36693e-13 2.21125e-13 -1.20348e-13 0 0 -2.31308e-13 7.23004e-14 1.60802e-14 2.28597e-14 0 0 -3.02307e-13 1.27913e-13 5.86236e-16 2.09565e-14 0 0 -1.59345e-13 -6.15573e-14 2.16975e-13 -1.38486e-13 0 0 4.03027e-14 -2.55327e-13 3.74861e-13 -2.67417e-13 0 0 3.7657e-14 -1.00942e-13 1.69073e-13 -1.85097e-13 0 0 -1.23726e-13 1.64237e-13 1.34614e-14 -2.32621e-13 0 0 -2.45645e-13 4.06088e-13 -1.61491e-13 -2.09123e-13 0 0 -1.02873e-13 3.28691e-13 -1.52184e-13 -2.07321e-13 0 0 1.66e-13 7.987e-14 -7.62096e-14 -1.42945e-13 0 0 5.09984e-14 3.22681e-13 -4.70883e-13 2.708e-13 0 0 2.25554e-13 -6.4854e-14 -6.2907e-14 3.19345e-14 0 0 2.45847e-13 -2.16237e-13 2.16895e-13 -2.73559e-13 0 0 -1.20092e-13 2.60636e-13 -2.31127e-13 -8.4133e-14 0 0 -6.15525e-15 -2.48894e-14 1.18636e-14 -2.61983e-13 0 0 -8.06311e-14 1.03408e-13 -1.23171e-13 -2.75099e-13 0 0 -5.71143e-14 5.81468e-14 -1.38541e-13 -2.67982e-13 0 0 -1.83278e-14 -1.04887e-13 7.10602e-14 -3.50904e-13 0 0 -1.67428e-13 1.18915e-13 -1.41058e-13 -1.56803e-13 0 0 -6.00734e-14 -6.56396e-14 8.47556e-14 -3.02488e-13 0 0 -2.14458e-14 -4.133e-14 1.20069e-13 -3.54371e-13 0 0 -3.39455e-14 6.16182e-14 -1.92397e-15 -1.94154e-13 0 0 -9.49577e-14 1.47889e-13 -3.6421e-14 -1.15629e-13 0 0 -5.54598e-14 7.47171e-14 5.8647e-14 -1.26956e-13 0 0 -2.19144e-15 -1.0969e-13 2.74908e-13 -2.185e-13 0 0 -1.19591e-13 9.67383e-14 6.24324e-14 -1.10631e-13 0 0 -5.21824e-14 1.65351e-13 -7.28726e-14 -1.13276e-13 0 0 1.09974e-13 -5.13087e-15 1.09135e-13 -3.37035e-13 0 0 7.0435e-14 1.19975e-13 3.64729e-14 -3.70521e-13 0 0 2.3377e-13 -9.08044e-15 2.02776e-13 -5.10487e-13 0 0 2.65402e-13 1.37207e-13 7.05298e-14 -3.93735e-13 0 0 3.58969e-13 8.2208e-14 1.06353e-13 -2.54494e-13 0 0 2.71086e-13 1.97303e-13 5.03995e-14 -1.47408e-13 0 0 1.67968e-13 4.94634e-13 -3.00413e-13 7.60309e-14 0 0 5.1361e-13 -2.21976e-14 2.29146e-13 -2.83272e-13 0 0 5.73978e-13 -2.00549e-13 5.58619e-13 -4.55906e-13 0 0 5.05742e-13 2.04853e-14 2.50494e-13 -1.06523e-13 0 0 1.65571e-13 5.04533e-13 -1.84637e-13 2.23309e-13 0 0 2.66027e-13 1.0092e-13 4.74222e-13 -1.54311e-13 0 0 4.89011e-13 -1.06297e-13 4.7513e-13 1.1573e-14 0 0 2.01891e-13 5.84479e-13 -6.20859e-13 8.89307e-13 0 0 3.29965e-13 1.00515e-13 2.40036e-15 5.31371e-13 0 0 4.74831e-13 -7.58796e-13 1.23528e-12 -1.71162e-13 0 0 -2.08878e-13 5.53359e-14 6.19482e-13 2.65e-13 0 0 -6.09131e-13 9.71522e-13 -2.8005e-13 8.14562e-13 0 0 -3.58045e-14 2.97606e-13 1.66635e-13 6.99125e-13 0 0 5.46536e-13 -4.93924e-13 8.75239e-13 2.95018e-13 0 0 7.23733e-13 -6.16469e-13 1.17726e-12 -5.28045e-14 0 0 4.79718e-13 -1.58704e-13 7.57023e-13 -1.39494e-13 0 0 -3.33264e-13 8.39402e-13 2.29813e-13 -2.22795e-13 0 0 -7.97605e-13 1.21793e-12 -2.41914e-14 -1.65396e-13 0 0 -5.44903e-13 9.94197e-13 -1.09154e-13 2.15267e-13 0 0 2.67336e-13 1.63192e-13 1.74947e-13 4.58184e-13 0 0 9.70872e-13 -9.8896e-13 7.29125e-13 2.89262e-13 0 0 9.00752e-13 -1.14581e-12 1.14013e-12 -1.73955e-14 0 0 3.88073e-13 -8.47855e-13 1.02834e-12 -1.42117e-13 0 0 -5.01653e-13 5.4638e-15 4.83765e-13 6.22914e-14 0 0 -8.71384e-13 7.62401e-13 -5.93131e-13 6.96487e-13 0 0 -8.15677e-13 8.20102e-13 -1.02005e-12 1.15003e-12 0 0 -1.71033e-13 3.76619e-13 -9.15872e-13 1.09611e-12 0 0 9.30071e-13 -5.81296e-13 -5.6756e-13 9.82457e-13 0 0 1.21579e-12 -9.21611e-13 -3.55475e-13 9.5082e-13 0 0 8.85814e-13 -7.47621e-13 -2.389e-13 8.06164e-13 0 0 6.49883e-14 -2.05645e-13 -6.30549e-14 4.59496e-13 0 0 -3.54504e-13 9.36223e-14 1.17823e-13 1.82123e-13 0 0 -4.42141e-13 2.08896e-13 1.37379e-13 4.27736e-14 0 0 -3.97527e-13 2.38229e-13 1.37096e-13 -7.56928e-14 0 0 -2.66368e-13 2.10018e-13 1.517e-13 -2.05985e-13 0 0 -1.7893e-13 1.61698e-13 1.62216e-13 -3.11591e-13 0 0 -1.29827e-13 8.84183e-14 1.53866e-13 -3.34747e-13 0 0 -1.33589e-13 3.14261e-14 1.14522e-13 -3.78368e-13 0 0 -1.92346e-13 1.70659e-14 3.70492e-14 -3.7675e-13 0 0 -2.33811e-13 -6.76336e-14 6.37509e-14 -4.03761e-13 0 0 -2.45229e-13 -1.4477e-13 9.15953e-14 -4.04613e-13 0 0 -2.58719e-13 -1.47632e-13 -2.04823e-15 -3.10927e-13 0 0 -2.55731e-13 -1.2473e-13 -1.62779e-13 -2.01659e-13 0 0 -2.3156e-13 -1.08373e-13 -2.72839e-13 -1.65854e-13 0 0 -1.84426e-13 -1.57902e-13 -2.35531e-13 -2.0224e-13 0 0 -1.44998e-13 -1.71563e-13 -1.71753e-13 -1.53408e-13 0 0 -1.06451e-13 -8.83633e-14 -2.16821e-13 -4.21138e-15 0 0 -1.13299e-14 -9.30157e-14 -1.46903e-13 -5.61323e-14 0 0 -2.62423e-15 -7.0576e-14 -5.88014e-14 -1.20973e-13 0 0 -3.53367e-15 5.50514e-14 -1.19052e-13 8.45934e-15 0 0 1.04028e-15 1.42907e-13 -1.41379e-13 -2.69358e-15 0 0 1.28619e-14 1.35494e-13 -1.28778e-13 -1.55395e-14 0 0 1.89763e-13 -1.11989e-13 2.54411e-14 -2.31887e-15 0 0 8.08252e-14 6.7372e-14 -1.63407e-13 1.626e-13 0 0 4.08273e-14 1.11137e-13 -1.41637e-13 1.02525e-13 0 0 7.05747e-15 1.66259e-13 -1.77918e-13 1.03962e-13 0 0 3.94277e-14 9.20775e-14 -1.06021e-13 3.46052e-14 0 0 2.29185e-13 -2.696e-13 2.32256e-13 -1.45102e-13 0 0 5.61391e-14 -1.55182e-15 -7.14713e-14 1.28848e-13 0 0 6.20571e-14 -2.89759e-14 -4.32173e-14 9.76136e-14 0 0 7.54224e-15 3.81903e-14 -1.00532e-13 1.54638e-13 0 0 -3.12467e-14 4.68857e-14 -7.57673e-15 1.29194e-13 0 0 1.57072e-13 -4.02749e-13 6.19773e-13 -2.6529e-13 0 0 -1.12903e-13 1.36399e-14 2.8271e-13 -7.61244e-16 0 0 -2.04202e-13 2.26667e-13 6.91254e-14 1.91905e-13 0 0 -1.21737e-13 1.71444e-13 7.71596e-14 1.91239e-13 0 0 -2.40989e-13 4.18227e-13 -1.47102e-13 3.81892e-13 0 0 2.80086e-13 -3.59231e-13 6.64632e-13 -6.42484e-14 0 0 4.57585e-13 -5.25089e-13 8.21265e-13 -1.79577e-13 0 0 -1.03994e-15 2.43202e-13 1.43649e-13 2.41329e-13 0 0 1.75085e-13 6.82632e-14 3.3908e-13 1.72229e-13 0 0 3.38864e-14 4.0866e-13 8.19012e-14 2.7909e-13 0 0 2.50796e-13 1.36608e-13 4.80905e-13 -6.36878e-14 0 0 4.79359e-13 -2.1524e-13 9.92479e-13 -4.72958e-13 0 0 8.49873e-15 5.81602e-13 1.73849e-13 2.62575e-14 0 0 2.96463e-13 1.32033e-13 3.05808e-13 -7.83634e-16 0 0 1.59226e-13 2.19003e-13 1.09425e-13 8.29206e-14 0 0 4.4637e-14 2.47259e-13 2.14087e-13 -2.78793e-14 0 0 -1.10897e-14 2.71559e-13 1.88211e-13 3.30914e-14 0 0 -5.92164e-14 4.24566e-13 -1.10142e-13 2.9045e-13 0 0 -6.53775e-14 3.12383e-13 -1.16168e-14 2.67216e-13 0 0 -1.67979e-13 3.81368e-13 -1.86059e-13 4.3496e-13 0 0 3.89466e-13 -3.63188e-13 3.21856e-13 1.37122e-13 0 0 3.73822e-13 -2.45536e-13 2.09776e-13 1.60114e-13 0 0 -5.41335e-14 3.40222e-13 -1.45296e-13 2.92099e-13 0 0 -2.9687e-13 4.80347e-13 -7.21264e-14 2.08237e-13 0 0 -1.3079e-13 -1.45113e-14 4.32724e-13 7.54283e-15 0 0 2.7181e-13 -7.53754e-13 1.10495e-12 -2.8579e-13 0 0 -5.5753e-14 -3.50539e-13 7.03061e-13 5.21632e-14 0 0 -3.2393e-13 8.19482e-14 1.36465e-13 4.4153e-13 0 0 -1.11327e-13 -1.14589e-14 -7.24935e-14 7.08629e-13 0 0 -6.20301e-15 -1.56636e-13 7.57983e-14 7.37599e-13 0 0 -7.09547e-14 -3.44845e-13 5.5367e-13 4.3419e-13 0 0 -4.31955e-13 4.92105e-14 3.21015e-13 5.24561e-13 0 0 -1.11893e-13 -2.50926e-13 4.91277e-13 2.7739e-13 0 0 1.09833e-13 -4.14122e-13 2.84943e-13 4.82486e-13 0 0 -3.70964e-13 2.3522e-13 -4.53946e-13 9.94707e-13 0 0 -8.21095e-14 -4.18319e-13 3.77567e-13 4.02035e-13 0 0 -5.06951e-14 -5.23186e-13 5.04555e-13 3.2397e-13 0 0 -1.06397e-13 -3.19553e-13 1.11971e-13 5.51587e-13 0 0 -5.48511e-14 -3.24669e-13 4.51022e-14 4.63418e-13 0 0 -2.29633e-13 -5.41376e-14 -1.70821e-13 4.36875e-13 0 0 -1.35984e-13 -2.76808e-13 8.96739e-14 2.91937e-13 0 0 -5.45253e-13 2.32892e-13 -2.00748e-13 3.93675e-13 0 0 -2.24829e-13 -3.69984e-13 5.29004e-13 -1.98292e-13 0 0 1.7881e-13 -8.41626e-13 8.06094e-13 -3.29051e-13 0 0 -3.724e-13 2.53544e-13 -3.0603e-13 3.24227e-13 0 0 -1.87659e-13 1.15654e-13 -1.4277e-13 1.77028e-13 0 0 1.3743e-15 -1.1067e-13 -2.13087e-14 2.22282e-13 0 0 1.61347e-13 -3.37793e-13 1.10464e-13 2.62399e-13 0 0 1.2794e-13 -4.58217e-13 4.57871e-13 -9.47445e-14 0 0 -4.64411e-13 2.56097e-13 1.55971e-13 -1.87188e-13 0 0 -2.30837e-13 1.27407e-13 3.16306e-13 -4.72016e-13 0 0 -1.27143e-14 1.2757e-13 5.56805e-15 -1.29302e-13 0 0 4.69073e-13 -4.872e-13 3.78838e-13 -7.70478e-14 0 0 3.2022e-13 -3.40742e-13 4.88877e-13 -2.54342e-13 0 0 -6.95527e-13 1.12602e-12 -7.74327e-13 3.2846e-13 0 0 2.51435e-13 -2.81678e-13 3.36376e-13 -2.74801e-13 0 0 1.00077e-12 -1.15025e-12 9.73543e-13 -6.90258e-13 0 0 3.66806e-13 2.94159e-14 -2.25125e-13 1.25168e-14 0 0 -1.26357e-13 4.76281e-13 -3.91131e-13 1.53848e-13 0 0 -1.3185e-13 3.10014e-13 -1.13614e-13 9.24148e-14 0 0 8.85746e-13 -1.08461e-12 1.10487e-12 -5.35709e-13 0 0 9.35787e-13 -7.60358e-13 7.85133e-13 -5.41338e-13 0 0 -8.07726e-15 1.00347e-12 -9.46093e-13 2.8981e-13 0 0 -2.64731e-13 1.36461e-12 -1.25659e-12 4.0547e-13 0
				</DataArray>
				<DataArray Name="VitesseY" type="Float32" format="ascii">