<?xml version="1.0"?>
<VTKFile type="PolyData">
	<PolyData>
		<Piece NumberOfPoints="1206" NumberOfPolys="1000">
			<Points>
				<DataArray type="Float32" NumberOfComponents="3" format="ascii">
 0 0 0 0.02 0 0 0.04 0 0 0.06 0 0 0.08 0 0 0.1 0 0 0 0.005 0 0.02 0.005 0 0.04 0.005 0 0.06 0.005 0 0.08 0.005 0 0.1 0.005 0 0 0.01 0 0.02 0.01 0 0.04 0.01 0 0.06 0.01 0 0.08 0.01 0 0.1 0.01 0 0 0.015 0 0.02 0.015 0 0.04 0.015 0 0.06 0.015 0 0.08 0.015 0 0.1 0.015 0 0 0.02 0 0.02 0.02 0 0.04 0.02 0 0.06 0.02 0 0.08 0.02 0 0.1 0.02 0 0 0.025 0 0.02 0.025 0 0.04 0.025 0 0.06 0.025 0 0.08 0.025 0 0.1 0.025 0 0 0.03 0 0.02 0.03 0 0.04 0.03 0 0.06 0.03 0 0.08 0.03 0 0.1 0.03 0 0 0.035 0 0.02 0.035 0 0.04 0.035 0 0.06 0.035 0 0.08 0.035 0 0.1 0.035 0 0 0.04 0 0.02 0.04 0 0.04 0.04 0 0.06 0.04 0 0.08 0.04 0 0.1 0.04 0 0 0.045 0 0.02 0.045 0 0.04 0.045 0 0.06 0.045 0 0.08 0.045 0 0.1 0.045 0 0 0.05 0 0.02 0.05 0 0.04 0.05 0 0.06 0.05 0 0.08 0.05 0 0.1 0.05 0 0 0.055 0 0.02 0.055 0 0.04 0.055 0 0.06 0.055 0 0.08 0.055 0 0.1 0.055 0 0 0.06 0 0.02 0.06 0 0.04 0.06 0 0.06 0.06 0 0.08 0.06 0 0.1 0.06 0 0 0.065 0 0.02 0.065 0 0.04 0.065 0 0.06 0.065 0 0.08 0.065 0 0.1 0.065 0 0 0.07 0 0.02 0.07 0 0.04 0.07 0 0.06 0.07 0 0.08 0.07 0 0.1 0.07 0 0 0.075 0 0.02 0.075 0 0.04 0.075 0 0.06 0.075 0 0.08 0.075 0 0.1 0.075 0 0 0.08 0 0.02 0.08 0 0.04 0.08 0 0.06 0.08 0 0.08 0.08 0 0.1 0.08 0 0 0.085 0 0.02 0.085 0 0.04 0.085 0 0.06 0.085 0 0.08 0.085 0 0.1 0.085 0 0 0.09 0 0.02 0.09 0 0.04 0.09 0 0.06 0.09 0 0.08 0.09 0 0.1 0.09 0 0 0.095 0 0.02 0.095 0 0.04 0.095 0 0.06 0.095 0 0.08 0.095 0 0.1 0.095 0 0 0.1 0 0.02 0.1 0 0.04 0.1 0 0.06 0.1 0 0.08 0.1 0 0.1 0.1 0 0 0.105 0 0.02 0.105 0 0.04 0.105 0 0.06 0.105 0 0.08 0.105 0 0.1 0.105 0 0 0.11 0 0.02 0.11 0 0.04 0.11 0 0.06 0.11 0 0.08 0.11 0 0.1 0.11 0 0 0.115 0 0.02 0.115 0 0.04 0.115 0 0.06 0.115 0 0.08 0.115 0 0.1 0.115 0 0 0.12 0 0.02 0.12 0 0.04 0.12 0 0.06 0.12 0 0.08 0.12 0 0.1 0.12 0 0 0.125 0 0.02 0.125 0 0.04 0.125 0 0.06 0.125 0 0.08 0.125 0 0.1 0.125 0 0 0.13 0 0.02 0.13 0 0.04 0.13 0 0.06 0.13 0 0.08 0.13 0 0.1 0.13 0 0 0.135 0 0.02 0.135 0 0.04 0.135 0 0.06 0.135 0 0.08 0.135 0 0.1 0.135 0 0 0.14 0 0.02 0.14 0 0.04 0.14 0 0.06 0.14 0 0.08 0.14 0 0.1 0.14 0 0 0.145 0 0.02 0.145 0 0.04 0.145 0 0.06 0.145 0 0.08 0.145 0 0.1 0.145 0 0 0.15 0 0.02 0.15 0 0.04 0.15 0 0.06 0.15 0 0.08 0.15 0 0.1 0.15 0 0 0.155 0 0.02 0.155 0 0.04 0.155 0 0.06 0.155 0 0.08 0.155 0 0.1 0.155 0 0 0.16 0 0.02 0.16 0 0.04 0.16 0 0.06 0.16 0 0.08 0.16 0 0.1 0.16 0 0 0.165 0 0.02 0.165 0 0.04 0.165 0 0.06 0.165 0 0.08 0.165 0 0.1 0.165 0 0 0.17 0 0.02 0.17 0 0.04 0.17 0 0.06 0.17 0 0.08 0.17 0 0.1 0.17 0 0 0.175 0 0.02 0.175 0 0.04 0.175 0 0.06 0.175 0 0.08 0.175 0 0.1 0.175 0 0 0.18 0 0.02 0.18 0 0.04 0.18 0 0.06 0.18 0 0.08 0.18 0 0.1 0.18 0 0 0.185 0 0.02 0.185 0 0.04 0.185 0 0.06 0.185 0 0.08 0.185 0 0.1 0.185 0 0 0.19 0 0.02 0.19 0 0.04 0.19 0 0.06 0.19 0 0.08 0.19 0 0.1 0.19 0 0 0.195 0 0.02 0.195 0 0.04 0.195 0 0.06 0.195 0 0.08 0.195 0 0.1 0.195 0 0 0.2 0 0.02 0.2 0 0.04 0.2 0 0.06 0.2 0 0.08 0.2 0 0.1 0.2 0 0 0.205 0 0.02 0.205 0 0.04 0.205 0 0.06 0.205 0 0.08 0.205 0 0.1 0.205 0 0 0.21 0 0.02 0.21 0 0.04 0.21 0 0.06 0.21 0 0.08 0.21 0 0.1 0.21 0 0 0.215 0 0.02 0.215 0 0.04 0.215 0 0.06 0.215 0 0.08 0.215 0 0.1 0.215 0 0 0.22 0 0.02 0.22 0 0.04 0.22 0 0.06 0.22 0 0.08 0.22 0 0.1 0.22 0 0 0.225 0 0.02 0.225 0 0.04 0.225 0 0.06 0.225 0 0.08 0.225 0 0.1 0.225 0 0 0.23 0 0.02 0.23 0 0.04 0.23 0 0.06 0.23 0 0.08 0.23 0 0.1 0.23 0 0 0.235 0 0.02 0.235 0 0.04 0.235 0 0.06 0.235 0 0.08 0.235 0 0.1 0.235 0 0 0.24 0 0.02 0.24 0 0.04 0.24 0 0.06 0.24 0 0.08 0.24 0 0.1 0.24 0 0 0.245 0 0.02 0.245 0 0.04 0.245 0 0.06 0.245 0 0.08 0.245 0 0.1 0.245 0 0 0.25 0 0.02 0.25 0 0.04 0.25 0 0.06 0.25 0 0.08 0.25 0 0.1 0.25 0 0 0.255 0 0.02 0.255 0 0.04 0.255 0 0.06 0.255 0 0.08 0.255 0 0.1 0.255 0 0 0.26 0 0.02 0.26 0 0.04 0.26 0 0.06 0.26 0 0.08 0.26 0 0.1 0.26 0 0 0.265 0 0.02 0.265 0 0.04 0.265 0 0.06 0.265 0 0.08 0.265 0 0.1 0.265 0 0 0.27 0 0.02 0.27 0 0.04 0.27 0 0.06 0.27 0 0.08 0.27 0 0.1 0.27 0 0 0.275 0 0.02 0.275 0 0.04 0.275 0 0.06 0.275 0 0.08 0.275 0 0.1 0.275 0 0 0.28 0 0.02 0.28 0 0.04 0.28 0 0.06 0.28 0 0.08 0.28 0 0.1 0.28 0 0 0.285 0 0.02 0.285 0 0.04 0.285 0 0.06 0.285 0 0.08 0.285 0 0.1 0.285 0 0 0.29 0 0.02 0.29 0 0.04 0.29 0 0.06 0.29 0 0.08 0.29 0 0.1 0.29 0 0 0.295 0 0.02 0.295 0 0.04 0.295 0 0.06 0.295 0 0.08 0.295 0 0.1 0.295 0 0 0.3 0 0.02 0.3 0 0.04 0.3 0 0.06 0.3 0 0.08 0.3 0 0.1 0.3 0 0 0.305 0 0.02 0.305 0 0.04 0.305 0 0.06 0.305 0 0.08 0.305 0 0.1 0.305 0 0 0.31 0 0.02 0.31 0 0.04 0.31 0 0.06 0.31 0 0.08 0.31 0 0.1 0.31 0 0 0.315 0 0.02 0.315 0 0.04 0.315 0 0.06 0.315 0 0.08 0.315 0 0.1 0.315 0 0 0.32 0 0.02 0.32 0 0.04 0.32 0 0.06 0.32 0 0.08 0.32 0 0.1 0.32 0 0 0.325 0 0.02 0.325 0 0.04 0.325 0 0.06 0.325 0 0.08 0.325 0 0.1 0.325 0 0 0.33 0 0.02 0.33 0 0.04 0.33 0 0.06 0.33 0 0.08 0.33 0 0.1 0.33 0 0 0.335 0 0.02 0.335 0 0.04 0.335 0 0.06 0.335 0 0.08 0.335 0 0.1 0.335 0 0 0.34 0 0.02 0.34 0 0.04 0.34 0 0.06 0.34 0 0.08 0.34 0 0.1 0.34 0 0 0.345 0 0.02 0.345 0 0.04 0.345 0 0.06 0.345 0 0.08 0.345 0 0.1 0.345 0 0 0.35 0 0.02 0.35 0 0.04 0.35 0 0.06 0.35 0 0.08 0.35 0 0.1 0.35 0 0 0.355 0 0.02 0.355 0 0.04 0.355 0 0.06 0.355 0 0.08 0.355 0 0.1 0.355 0 0 0.36 0 0.02 0.36 0 0.04 0.36 0 0.06 0.36 0 0.08 0.36 0 0.1 0.36 0 0 0.365 0 0.02 0.365 0 0.04 0.365 0 0.06 0.365 0 0.08 0.365 0 0.1 0.365 0 0 0.37 0 0.02 0.37 0 0.04 0.37 0 0.06 0.37 0 0.08 0.37 0 0.1 0.37 0 0 0.375 0 0.02 0.375 0 0.04 0.375 0 0.06 0.375 0 0.08 0.375 0 0.1 0.375 0 0 0.38 0 0.02 0.38 0 0.04 0.38 0 0.06 0.38 0 0.08 0.38 0 0.1 0.38 0 0 0.385 0 0.02 0.385 0 0.04 0.385 0 0.06 0.385 0 0.08 0.385 0 0.1 0.385 0 0 0.39 0 0.02 0.39 0 0.04 0.39 0 0.06 0.39 0 0.08 0.39 0 0.1 0.39 0 0 0.395 0 0.02 0.395 0 0.04 0.395 0 0.06 0.395 0 0.08 0.395 0 0.1 0.395 0 0 0.4 0 0.02 0.4 0 0.04 0.4 0 0.06 0.4 0 0.08 0.4 0 0.1 0.4 0 0 0.405 0 0.02 0.405 0 0.04 0.405 0 0.06 0.405 0 0.08 0.405 0 0.1 0.405 0 0 0.41 0 0.02 0.41 0 0.04 0.41 0 0.06 0.41 0 0.08 0.41 0 0.1 0.41 0 0 0.415 0 0.02 0.415 0 0.04 0.415 0 0.06 0.415 0 0.08 0.415 0 0.1 0.415 0 0 0.42 0 0.02 0.42 0 0.04 0.42 0 0.06 0.42 0 0.08 0.42 0 0.1 0.42 0 0 0.425 0 0.02 0.425 0 0.04 0.425 0 0.06 0.425 0 0.08 0.425 0 0.1 0.425 0 0 0.43 0 0.02 0.43 0 0.04 0.43 0 0.06 0.43 0 0.08 0.43 0 0.1 0.43 0 0 0.435 0 0.02 0.435 0 0.04 0.435 0 0.06 0.435 0 0.08 0.435 0 0.1 0.435 0 0 0.44 0 0.02 0.44 0 0.04 0.44 0 0.06 0.44 0 0.08 0.44 0 0.1 0.44 0 0 0.445 0 0.02 0.445 0 0.04 0.445 0 0.06 0.445 0 0.08 0.445 0 0.1 0.445 0 0 0.45 0 0.02 0.45 0 0.04 0.45 0 0.06 0.45 0 0.08 0.45 0 0.1 0.45 0 0 0.455 0 0.02 0.455 0 0.04 0.455 0 0.06 0.455 0 0.08 0.455 0 0.1 0.455 0 0 0.46 0 0.02 0.46 0 0.04 0.46 0 0.06 0.46 0 0.08 0.46 0 0.1 0.46 0 0 0.465 0 0.02 0.465 0 0.04 0.465 0 0.06 0.465 0 0.08 0.465 0 0.1 0.465 0 0 0.47 0 0.02 0.47 0 0.04 0.47 0 0.06 0.47 0 0.08 0.47 0 0.1 0.47 0 0 0.475 0 0.02 0.475 0 0.04 0.475 0 0.06 0.475 0 0.08 0.475 0 0.1 0.475 0 0 0.48 0 0.02 0.48 0 0.04 0.48 0 0.06 0.48 0 0.08 0.48 0 0.1 0.48 0 0 0.485 0 0.02 0.485 0 0.04 0.485 0 0.06 0.485 0 0.08 0.485 0 0.1 0.485 0 0 0.49 0 0.02 0.49 0 0.04 0.49 0 0.06 0.49 0 0.08 0.49 0 0.1 0.49 0 0 0.495 0 0.02 0.495 0 0.04 0.495 0 0.06 0.495 0 0.08 0.495 0 0.1 0.495 0 0 0.5 0 0.02 0.5 0 0.04 0.5 0 0.06 0.5 0 0.08 0.5 0 0.1 0.5 0 0 0.505 0 0.02 0.505 0 0.04 0.505 0 0.06 0.505 0 0.08 0.505 0 0.1 0.505 0 0 0.51 0 0.02 0.51 0 0.04 0.51 0 0.06 0.51 0 0.08 0.51 0 0.1 0.51 0 0 0.515 0 0.02 0.515 0 0.04 0.515 0 0.06 0.515 0 0.08 0.515 0 0.1 0.515 0 0 0.52 0 0.02 0.52 0 0.04 0.52 0 0.06 0.52 0 0.08 0.52 0 0.1 0.52 0 0 0.525 0 0.02 0.525 0 0.04 0.525 0 0.06 0.525 0 0.08 0.525 0 0.1 0.525 0 0 0.53 0 0.02 0.53 0 0.04 0.53 0 0.06 0.53 0 0.08 0.53 0 0.1 0.53 0 0 0.535 0 0.02 0.535 0 0.04 0.535 0 0.06 0.535 0 0.08 0.535 0 0.1 0.535 0 0 0.54 0 0.02 0.54 0 0.04 0.54 0 0.06 0.54 0 0.08 0.54 0 0.1 0.54 0 0 0.545 0 0.02 0.545 0 0.04 0.545 0 0.06 0.545 0 0.08 0.545 0 0.1 0.545 0 0 0.55 0 0.02 0.55 0 0.04 0.55 0 0.06 0.55 0 0.08 0.55 0 0.1 0.55 0 0 0.555 0 0.02 0.555 0 0.04 0.555 0 0.06 0.555 0 0.08 0.555 0 0.1 0.555 0 0 0.56 0 0.02 0.56 0 0.04 0.56 0 0.06 0.56 0 0.08 0.56 0 0.1 0.56 0 0 0.565 0 0.02 0.565 0 0.04 0.565 0 0.06 0.565 0 0.08 0.565 0 0.1 0.565 0 0 0.57 0 0.02 0.57 0 0.04 0.57 0 0.06 0.57 0 0.08 0.57 0 0.1 0.57 0 0 0.575 0 0.02 0.575 0 0.04 0.575 0 0.06 0.575 0 0.08 0.575 0 0.1 0.575 0 0 0.58 0 0.02 0.58 0 0.04 0.58 0 0.06 0.58 0 0.08 0.58 0 0.1 0.58 0 0 0.585 0 0.02 0.585 0 0.04 0.585 0 0.06 0.585 0 0.08 0.585 0 0.1 0.585 0 0 0.59 0 0.02 0.59 0 0.04 0.59 0 0.06 0.59 0 0.08 0.59 0 0.1 0.59 0 0 0.595 0 0.02 0.595 0 0.04 0.595 0 0.06 0.595 0 0.08 0.595 0 0.1 0.595 0 0 0.6 0 0.02 0.6 0 0.04 0.6 0 0.06 0.6 0 0.08 0.6 0 0.1 0.6 0 0 0.605 0 0.02 0.605 0 0.04 0.605 0 0.06 0.605 0 0.08 0.605 0 0.1 0.605 0 0 0.61 0 0.02 0.61 0 0.04 0.61 0 0.06 0.61 0 0.08 0.61 0 0.1 0.61 0 0 0.615 0 0.02 0.615 0 0.04 0.615 0 0.06 0.615 0 0.08 0.615 0 0.1 0.615 0 0 0.62 0 0.02 0.62 0 0.04 0.62 0 0.06 0.62 0 0.08 0.62 0 0.1 0.62 0 0 0.625 0 0.02 0.625 0 0.04 0.625 0 0.06 0.625 0 0.08 0.625 0 0.1 0.625 0 0 0.63 0 0.02 0.63 0 0.04 0.63 0 0.06 0.63 0 0.08 0.63 0 0.1 0.63 0 0 0.635 0 0.02 0.635 0 0.04 0.635 0 0.06 0.635 0 0.08 0.635 0 0.1 0.635 0 0 0.64 0 0.02 0.64 0 0.04 0.64 0 0.06 0.64 0 0.08 0.64 0 0.1 0.64 0 0 0.645 0 0.02 0.645 0 0.04 0.645 0 0.06 0.645 0 0.08 0.645 0 0.1 0.645 0 0 0.65 0 0.02 0.65 0 0.04 0.65 0 0.06 0.65 0 0.08 0.65 0 0.1 0.65 0 0 0.655 0 0.02 0.655 0 0.04 0.655 0 0.06 0.655 0 0.08 0.655 0 0.1 0.655 0 0 0.66 0 0.02 0.66 0 0.04 0.66 0 0.06 0.66 0 0.08 0.66 0 0.1 0.66 0 0 0.665 0 0.02 0.665 0 0.04 0.665 0 0.06 0.665 0 0.08 0.665 0 0.1 0.665 0 0 0.67 0 0.02 0.67 0 0.04 0.67 0 0.06 0.67 0 0.08 0.67 0 0.1 0.67 0 0 0.675 0 0.02 0.675 0 0.04 0.675 0 0.06 0.675 0 0.08 0.675 0 0.1 0.675 0 0 0.68 0 0.02 0.68 0 0.04 0.68 0 0.06 0.68 0 0.08 0.68 0 0.1 0.68 0 0 0.685 0 0.02 0.685 0 0.04 0.685 0 0.06 0.685 0 0.08 0.685 0 0.1 0.685 0 0 0.69 0 0.02 0.69 0 0.04 0.69 0 0.06 0.69 0 0.08 0.69 0 0.1 
[...]
			<PointData Scalars="VitesseX">
				<DataArray Name="VitesseX" type="Float32" format="ascii">
 0 -1.62107e-14 -9.9257e-15 1.12377e-15 1.68417e-14 0 0 -1.82614e-14 -8.33387e-15 1.45734e-15 1.57156e-14 0 0 -1.85322e-14 -1.38838e-14 1.23648e-14 7.9322e-15 0 0 -2.5123e-14 -6.19533e-15 5.68852e-15 1.66492e-14 0 0 -1.0511e-14 -3.05046e-14 2.50456e-14 1.94571e-14 0 0 -8.16201e-15 -3.26283e-14 2.06688e-14 3.78124e-14 0 0 -4.5856e-14 3.5241e-14 -4.90561e-14 9.55369e-14 0 0 -6.00112e-14 4.54861e-14 -2.54856e-14 9.14741e-14 0 0 -4.52373e-14 1.95617e-14 2.93239e-14 6.63492e-14 0 0 -2.13684e-14 -6.45351e-15 4.95564e-14 7.57427e-14 0 0 2.53428e-15 -3.53621e-14 8.15672e-14 5.48736e-14 0 0 2.92259e-14 -3.90651e-14 7.83429e-14 2.50207e-14 0 0 2.28372e-15 3.55887e-14 -1.72383e-14 7.53109e-14 0 0 5.13136e-15 2.51277e-14 -2.19645e-15 6.42065e-14 0 0 8.42338e-15 -1.20975e-15 6.0677e-14 -5.89085e-15 0 0 -3.32467e-14 7.81965e-14 -2.93614e-14 3.83563e-14 0 0 3.8167e-14 -1.59454e-14 1.72028e-14 2.25802e-14 0 0 8.99727e-14 -1.03226e-13 8.50434e-14 -6.28432e-15 0 0 6.92622e-14 -6.98718e-14 2.5143e-14 4.59064e-14 0 0 4.57581e-14 -3.84515e-14 -3.91022e-14 9.23266e-14 0 0 -3.02883e-14 4.49656e-14 -1.28975e-13 1.53651e-13 0 0 -4.24987e-14 2.71748e-14 -1.3174e-13 1.88335e-13 0 0 2.23964e-14 -1.2493e-13 4.41486e-14 6.55736e-14 0 0 -4.42237e-14 -6.56924e-14 2.32482e-14 4.55258e-14 0 0 -1.11737e-13 2.1636e-14 -6.83764e-14 9.34152e-14 0 0 -8.71785e-14 -5.51618e-14 9.44066e-15 2.46664e-14 0 0 -1.25201e-13 1.85554e-14 -4.25457e-14 -2.25287e-14 0 0 -1.26481e-13 6.97595e-14 -9.37529e-14 -4.9192e-14 0 0 -6.18627e-14 -3.08137e-14 -2.57064e-14 -4.94928e-14 0 0 -9.33067e-14 -2.9772e-14 1.30232e-14 -6.07726e-14 0 0 -1.27569e-13 -2.07899e-15 4.34855e-15 -4.65685e-14 0 0 -1.61091e-13 6.46924e-14 -7.82675e-14 3.0516e-14 0 0 -1.12429e-13 -2.83733e-14 1.7356e-14 -1.00152e-14 0 0 3.08491e-14 -2.45509e-13 2.29544e-13 -1.1041e-13 0 0 -6.96797e-14 -9.52549e-14 1.42748e-13 -3.75675e-14 0 0 -1.94847e-13 1.09884e-13 -4.14785e-14 9.02087e-14 0 0 -6.21476e-14 -1.63078e-14 1.62187e-14 3.43226e-14 0 0 -1.87009e-14 -4.23507e-14 1.33761e-14 1.84218e-14 0 0 1.70774e-16 -7.41438e-14 6.13335e-14 -5.94523e-15 0 0 4.70096e-14 -1.3472e-13 9.33653e-14 -4.51256e-14 0 0 -6.50543e-14 2.84853e-14 -2.28581e-14 -3.89607e-14 0 0 -1.17805e-13 5.99322e-14 6.31349e-14 -1.4936e-13 0 0 -1.02828e-13 4.33773e-14 7.03251e-14 -1.50911e-13 0 0 -1.10791e-13 4.89155e-14 1.99518e-15 -9.32618e-14 0 0 -1.5457e-13 9.46558e-14 -1.36535e-14 -1.3654e-13 0 0 -1.45921e-13 1.33283e-13 -1.31315e-14 -2.0498e-13 0 0 1.82403e-13 -2.67949e-13 3.29798e-13 -4.15371e-13 0 0 1.33146e-13 -1.27559e-13 1.24813e-13 -2.28593e-13 0 0 -1.91928e-13 3.77984e-13 -3.85395e-13 1.13441e-13 0 0 -1.34174e-13 3.02329e-13 -2.90075e-13 3.67206e-14 0 0 2.21014e-13 -1.8418e-13 8.88981e-14 -1.28739e-13 0 0 3.82647e-13 -3.26544e-13 6.42843e-14 -2.46147e-14 0 0 9.6531e-14 9.43348e-14 -3.82015e-13 2.84958e-13 0 0 3.17506e-13 -3.19485e-13 3.34753e-14 8.1286e-15 0 0 4.30999e-13 -4.87853e-13 1.95675e-13 -1.61783e-13 0 0 1.70552e-13 -7.97086e-14 -2.19971e-13 5.91036e-14 0 0 2.36425e-13 -2.15854e-13 -5.43346e-14 -9.95616e-14 0 0 1.18227e-13 -4.54333e-14 -1.20102e-13 -1.66944e-13 0 0 2.17317e-14 9.91178e-14 -1.87795e-13 -2.30327e-13 0 0 -2.11808e-14 1.24881e-13 -1.17776e-13 -4.20278e-13 0 0 -4.9733e-14 1.47792e-13 -1.59535e-13 -3.51208e-13 0 0 1.58101e-14 -4.35019e-14 1.42499e-14 -2.71351e-13 0 0 1.10018e-14 -6.78726e-14 1.06876e-13 -2.48068e-13 0 0 7.07295e-14 -1.12232e-13 1.99498e-13 -3.07192e-13 0 0 1.73329e-14 2.44339e-14 1.7786e-14 -1.80972e-13 0 0 -7.54584e-14 2.01694e-13 -1.87855e-13 -2.8304e-14 0 0 -3.59485e-14 1.90285e-13 -1.70403e-13 -3.691e-14 0 0 6.20905e-14 1.07882e-13 -1.66298e-13 1.17115e-14 0 0 2.62547e-13 -1.11506e-13 -4.25208e-14 -7.54658e-14 0 0 3.74505e-13 -1.93084e-13 9.43225e-14 -2.68741e-13 0 0 2.74776e-13 7.83065e-14 -1.03499e-13 -1.60012e-13 0 0 4.40024e-13 -2.9823e-14 -8.19557e-14 -1.77894e-14 0 0 6.38148e-13 -2.73839e-13 1.5369e-13 -1.30404e-13 0 0 5.92297e-13 -4.55403e-14 -1.08563e-13 1.34145e-14 0 0 6.96039e-13 -4.92284e-14 -1.52352e-13 1.03552e-13 0 0 4.68424e-13 2.90645e-13 -2.97909e-13 1.59283e-13 0 0 2.43038e-13 3.93528e-13 -1.1021e-13 6.82993e-14 0 0 6.50458e-13 -3.73339e-13 6.43032e-13 -1.54136e-13 0 0 5.49127e-13 -1.19452e-13 2.52707e-13 3.72489e-13 0 0 4.46413e-13 9.95103e-14 1.3319e-13 4.22029e-13 0 0 4.7794e-13 1.94259e-13 6.64451e-14 2.8946e-13 0 0 2.0423e-13 6.67159e-13 -4.43317e-13 6.25483e-13 0 0 4.52517e-13 8.35941e-14 2.30472e-13 3.60743e-13 0 0 2.93797e-13 1.09232e-13 2.95415e-13 5.19346e-13 0 0 -4.87771e-14 6.34754e-13 1.20609e-15 7.02732e-13 0 0 3.07814e-13 2.56533e-13 5.4557e-13 2.50236e-13 0 0 6.32402e-13 6.2002e-14 5.48217e-13 3.68363e-13 0 0 5.42391e-13 3.69016e-13 1.03158e-13 6.66857e-13 0 0 4.5032e-13 4.64908e-13 2.53077e-13 3.05738e-13 0 0 2.82382e-13 3.01002e-13 9.68881e-13 -5.29508e-13 0 0 6.34958e-14 3.13348e-13 1.02511e-12 -5.88563e-13 0 0 -7.31363e-14 4.26968e-13 8.70056e-13 -4.02898e-13 0 0 9.56803e-14 3.81652e-13 6.99084e-13 -1.73827e-13 0 0 3.15385e-13 3.97546e-13 2.32448e-13 1.19858e-13 0 0 3.57815e-13 5.40495e-13 -1.31359e-13 4.01473e-13 0 0 4.90701e-13 3.4666e-13 1.46406e-14 2.43798e-13 0 0 5.5506e-13 -1.51986e-13 6.07776e-13 -1.89865e-13 0 0 5.48497e-13 -2.77906e-13 7.91357e-13 -2.4747e-13 0 0 6.13014e-13 -3.49394e-13 6.71821e-13 -4.26112e-14 0 0 6.05607e-13 -3.41361e-13 4.32572e-13 2.83412e-13 0 0 4.0622e-13 -1.27904e-13 -6.67526e-15 6.42871e-13 0 0 -6.856e-15 2.08656e-13 -4.96866e-13 1.01989e-12 0 0 -4.50869e-13 4.03355e-13 -5.1499e-13 1.00402e-12 0 0 -5.34331e-13 3.59584e-13 -3.13692e-13 7.57383e-13 0 0 -1.00809e-13 -3.30246e-14 -4.99492e-14 5.65728e-13 0 0 5.79412e-13 -4.48682e-13 2.0441e-14 5.3365e-13 0 0 6.67389e-13 -4.84036e-13 1.13442e-13 4.11955e-13 0 0 4.51657e-13 -3.45044e-13 2.43663e-13 1.85202e-13 0 0 7.36987e-14 -9.62659e-14 2.54207e-13 1.08143e-13 0 0 -1.36631e-13 3.9674e-14 2.8186e-13 7.24218e-14 0 0 -2.06699e-13 7.41281e-14 2.82209e-13 6.8563e-14 0 0 -2.17634e-13 8.94376e-14 2.37223e-13 8.93682e-14 0 0 -1.74374e-13 4.6137e-14 2.46475e-13 2.38882e-14 0 0 -1.30121e-13 2.96739e-14 2.0935e-13 -5.74667e-14 0 0 -1.15414e-13 9.85729e-15 1.98813e-13 -1.25011e-13 0 0 -8.8638e-14 -5.44603e-14 2.29016e-13 -2.14709e-13 0 0 -6.39811e-14 -9.0849e-14 1.70096e-13 -2.07985e-13 0 0 -6.40902e-14 -9.27036e-14 8.41424e-14 -2.06428e-13 0 0 -7.36355e-14 -9.22557e-14 5.44296e-15 -1.9383e-13 0 0 -6.63743e-14 -9.60919e-14 -5.98719e-14 -1.89524e-13 0 0 -3.93647e-14 -1.22019e-13 -5.31116e-14 -2.52353e-13 0 0 2.49361e-14 -2.01317e-13 1.55652e-14 -3.59176e-13 0 0 2.49132e-14 -1.61442e-13 -6.50661e-14 -3.27783e-13 0 0 2.05059e-14 -8.08228e-14 -1.48311e-13 -2.36951e-13 0 0 2.82286e-14 -2.87634e-14 -1.48299e-13 -9.92897e-14 0 0 4.03074e-14 3.74144e-14 -2.3528e-13 8.62222e-14 0 0 1.17314e-13 -4.97989e-15 -1.19093e-13 6.77973e-14 0 0 1.9206e-13 -1.00291e-13 1.80669e-13 -1.17475e-13 0 0 1.84064e-13 -8.94229e-14 3.13134e-13 -1.89455e-13 0 0 6.74861e-14 1.40028e-13 1.43486e-13 -8.05163e-14 0 0 5.13791e-14 2.53104e-13 2.69905e-15 3.40204e-14 0 0 2.51592e-13 -3.85487e-15 1.54413e-13 7.22756e-14 0 0 3.65736e-13 -1.62342e-13 2.81709e-13 3.61368e-14 0 0 2.88005e-13 -2.28426e-14 1.39194e-13 1.82637e-13 0 0 1.16305e-13 2.53227e-13 -1.05101e-13 3.68993e-13 0 0 6.79102e-14 3.19888e-13 -9.38495e-14 3.13566e-13 0 0 2.0914e-13 1.05559e-13 1.68134e-13 2.19956e-13 0 0 2.98759e-13 -6.44034e-14 4.20137e-13 9.61904e-14 0 0 2.06012e-13 1.03934e-13 2.73572e-13 1.9815e-13 0 0 1.38278e-13 2.8221e-13 8.00548e-14 3.4329e-13 0 0 1.57594e-13 3.04945e-13 6.602e-14 3.66791e-13 0 0 2.35453e-13 2.68851e-13 1.01428e-13 3.05598e-13 0 0 4.3512e-13 -3.09122e-14 5.03123e-13 -4.31147e-14 0 0 3.91935e-13 1.74748e-14 6.03703e-13 -1.47608e-13 0 0 8.27493e-14 5.55689e-13 6.90131e-14 2.29492e-13 0 0 8.1954e-14 6.26596e-13 -6.30966e-14 2.76558e-13 0 0 4.06774e-13 1.03139e-13 4.0883e-13 -6.21897e-14 0 0 5.94253e-13 -1.98191e-13 6.47561e-13 -2.1991e-13 0 0 4.97706e-13 -2.0331e-14 4.48898e-13 -9.60176e-14 0 0 1.34192e-13 5.62119e-13 -1.38516e-13 3.14655e-13 0 0 1.35199e-13 6.25534e-13 -2.33821e-13 2.72988e-13 0 0 4.14802e-13 1.58608e-13 1.16724e-13 9.17457e-14 0 0 6.64952e-13 -3.14693e-13 5.29827e-13 -9.53392e-14 0 0 4.72522e-13 -1.01257e-13 4.05449e-13 -1.00142e-13 0 0 -4.34534e-14 5.60439e-13 -1.4347e-13 1.75355e-13 0 0 -3.46219e-14 5.59228e-13 -1.86456e-13 1.52443e-13 0 0 4.02238e-13 1.29992e-14 2.5375e-13 -1.22273e-13 0 0 5.08034e-13 -1.22818e-13 4.04825e-13 -1.01532e-13 0 0 2.56708e-13 1.60793e-13 2.54759e-13 4.93232e-14 0 0 -1.07763e-13 5.64138e-13 9.93849e-14 2.05696e-13 0 0 -3.50218e-13 7.5848e-13 1.57237e-13 2.71167e-13 0 0 2.49062e-13 -1.53609e-13 1.03389e-12 -1.88468e-13 0 0 5.03071e-13 -4.4537e-13 1.19372e-12 -1.95738e-13 0 0 3.34626e-14 2.0649e-13 5.62234e-13 1.55883e-13 0 0 -2.92148e-13 5.98841e-13 1.44287e-13 3.43879e-13 0 0 -3.0449e-13 6.00375e-13 1.11439e-13 3.7521e-13 0 0 4.50956e-14 1.01419e-13 5.32652e-13 1.39903e-13 0 0 3.07284e-13 -4.29323e-13 1.11641e-12 -2.73349e-13 0 0 1.49797e-13 -3.8215e-13 1.26419e-12 -4.57604e-13 0 0 1.73304e-14 -3.9116e-14 7.75893e-13 -1.98314e-13 0 0 1.8777e-14 1.116e-13 4.00607e-13 5.08489e-14 0 0 -2.72249e-13 5.03187e-13 -8.08493e-14 3.34832e-13 0 0 -9.02809e-15 7.53959e-14 1.30582e-13 2.7846e-13 0 0 2.53404e-13 -3.02233e-13 2.82256e-13 2.41561e-13 0 0 2.35134e-13 -2.92824e-13 1.93014e-13 2.12723e-13 0 0 1.1629e-13 -2.79983e-13 1.5891e-13 1.86537e-13 0 0 -3.08935e-13 1.76817e-13 -2.85875e-13 3.97067e-13 0 0 -3.45881e-13 2.3602e-13 -3.1422e-13 2.41967e-13 0 0 -1.08651e-13 -4.95058e-14 -2.82019e-14 -1.77888e-14 0 0 2.42418e-13 -5.89881e-13 5.36062e-13 -3.3931e-13 0 0 1.80317e-13 -4.03878e-13 3.79484e-13 -1.8102e-13 0 0 -3.3059e-13 4.92714e-13 -4.01224e-13 4.08724e-13 0 0 -4.44235e-13 8.08172e-13 -6.23679e-13 6.1162e-13 0 0 9.36557e-14 8.30926e-14 1.38651e-13 5.14182e-14 0 0 5.76817e-13 -6.67799e-13 9.15918e-13 -4.88546e-13 0 0 6.86932e-14 5.67069e-14 3.58565e-13 -1.01439e-13 0 0 -4.83395e-13 8.87531e-13 -3.5673e-13 3.27953e-13 0 0 5.62086e-14 2.31769e-13 -1.26795e-14 2.79285e-13 0 0 4.63222e-13 -2.75242e-13 2.47264e-13 2.53461e-13 0 0 5.82987e-13 -5.18421e-13 5.98158e-13 -7.61343e-14 0 0 4.37905e-13 -2.05853e-13 1.7926e-13 2.9157e-13 0 0 1.25501e-13 4.69351e-13 -7.63062e-13 1.08966e-12 0 0 4.38997e-13 -7.9818e-15 -3.93946e-14 4.85205e-13 0 0 7.89883e-13 -5.69239e-13 7.65551e-13 -1.19051e-13 0 0 4.31943e-13 -4.86932e-15 1.1802e-13 3.44316e-13 0 0 -7.24073e-14 8.05279e-13 -7.38461e-13 8.93962e-13 0 0 1.96078e-13 4.76982e-13 -2.30104e-13 4.18082e-13 0 0 9.14069e-13 -3.47684e-13 5.16835e-13 -1.32301e-13 0 0 9.41284e-13 -2.31847e-13 2.31253e-14 5.15001e-13 0 0 1.53549e-13 8.60238e-13 -8.4535e-13 1.07843e-12 0 0 -3.40739e-13 1.58057e-12 -1.22803e-12 1.11977e-12 0
				</DataArray>
				<DataArray Name="VitesseY" type="Float32" format="ascii">