<?xml version="1.0"?>
<VTKFile type="PolyData">
	<PolyData>
		<Piece NumberOfPoints="1206" NumberOfPolys="1000">
			<Points>
				<DataArray type="Float32" NumberOfComponents="3" format="ascii">
 0 0 0 0.02 0 0 0.04 0 0 0.06 0 0 0.08 0 0 0.1 0 0 0 0.005 0 0.02 0.005 0 0.04 0.005 0 0.06 0.005 0 0.08 0.005 0 0.1 0.005 0 0 0.01 0 0.02 0.01 0 0.04 0.01 0 0.06 0.01 0 0.08 0.01 0 0.1 0.01 0 0 0.015 0 0.02 0.015 0 0.04 0.015 0 0.06 0.015 0 0.08 0.015 0 0.1 0.015 0 0 0.02 0 0.02 0.02 0 0.04 0.02 0 0.06 0.02 0 0.08 0.02 0 0.1 0.02 0 0 0.025 0 0.02 0.025 0 0.04 0.025 0 0.06 0.025 0 0.08 0.025 0 0.1 0.025 0 0 0.03 0 0.02 0.03 0 0.04 0.03 0 0.06 0.03 0 0.08 0.03 0 0.1 0.03 0 0 0.035 0 0.02 0.035 0 0.04 0.035 0 0.06 0.035 0 0.08 0.035 0 0.1 0.035 0 0 0.04 0 0.02 0.04 0 0.04 0.04 0 0.06 0.04 0 0.08 0.04 0 0.1 0.04 0 0 0.045 0 0.02 0.045 0 0.04 0.045 0 0.06 0.045 0 0.08 0.045 0 0.1 0.045 0 0 0.05 0 0.02 0.05 0 0.04 0.05 0 0.06 0.05 0 0.08 0.05 0 0.1 0.05 0 0 0.055 0 0.02 0.055 0 0.04 0.055 0 0.06 0.055 0 0.08 0.055 0 0.1 0.055 0 0 0.06 0 0.02 0.06 0 0.04 0.06 0 0.06 0.06 0 0.08 0.06 0 0.1 0.06 0 0 0.065 0 0.02 0.065 0 0.04 0.065 0 0.06 0.065 0 0.08 0.065 0 0.1 0.065 0 0 0.07 0 0.02 0.07 0 0.04 0.07 0 0.06 0.07 0 0.08 0.07 0 0.1 0.07 0 0 0.075 0 0.02 0.075 0 0.04 0.075 0 0.06 0.075 0 0.08 0.075 0 0.1 0.075 0 0 0.08 0 0.02 0.08 0 0.04 0.08 0 0.06 0.08 0 0.08 0.08 0 0.1 0.08 0 0 0.085 0 0.02 0.085 0 0.04 0.085 0 0.06 0.085 0 0.08 0.085 0 0.1 0.085 0 0 0.09 0 0.02 0.09 0 0.04 0.09 0 0.06 0.09 0 0.08 0.09 0 0.1 0.09 0 0 0.095 0 0.02 0.095 0 0.04 0.095 0 0.06 0.095 0 0.08 0.095 0 0.1 0.095 0 0 0.1 0 0.02 0.1 0 0.04 0.1 0 0.06 0.1 0 0.08 0.1 0 0.1 0.1 0 0 0.105 0 0.02 0.105 0 0.04 0.105 0 0.06 0.105 0 0.08 0.105 0 0.1 0.105 0 0 0.11 0 0.02 0.11 0 0.04 0.11 0 0.06 0.11 0 0.08 0.11 0 0.1 0.11 0 0 0.115 0 0.02 0.115 0 0.04 0.115 0 0.06 0.115 0 0.08 0.115 0 0.1 0.115 0 0 0.12 0 0.02 0.12 0 0.04 0.12 0 0.06 0.12 0 0.08 0.12 0 0.1 0.12 0 0 0.125 0 0.02 0.125 0 0.04 0.125 0 0.06 0.125 0 0.08 0.125 0 0.1 0.125 0 0 0.13 0 0.02 0.13 0 0.04 0.13 0 0.06 0.13 0 0.08 0.13 0 0.1 0.13 0 0 0.135 0 0.02 0.135 0 0.04 0.135 0 0.06 0.135 0 0.08 0.135 0 0.1 0.135 0 0 0.14 0 0.02 0.14 0 0.04 0.14 0 0.06 0.14 0 0.08 0.14 0 0.1 0.14 0 0 0.145 0 0.02 0.145 0 0.04 0.145 0 0.06 0.145 0 0.08 0.145 0 0.1 0.145 0 0 0.15 0 0.02 0.15 0 0.04 0.15 0 0.06 0.15 0 0.08 0.15 0 0.1 0.15 0 0 0.155 0 0.02 0.155 0 0.04 0.155 0 0.06 0.155 0 0.08 0.155 0 0.1 0.155 0 0 0.16 0 0.02 0.16 0 0.04 0.16 0 0.06 0.16 0 0.08 0.16 0 0.1 0.16 0 0 0.165 0 0.02 0.165 0 0.04 0.165 0 0.06 0.165 0 0.08 0.165 0 0.1 0.165 0 0 0.17 0 0.02 0.17 0 0.04 0.17 0 0.06 0.17 0 0.08 0.17 0 0.1 0.17 0 0 0.175 0 0.02 0.175 0 0.04 0.175 0 0.06 0.175 0 0.08 0.175 0 0.1 0.175 0 0 0.18 0 0.02 0.18 0 0.04 0.18 0 0.06 0.18 0 0.08 0.18 0 0.1 0.18 0 0 0.185 0 0.02 0.185 0 0.04 0.185 0 0.06 0.185 0 0.08 0.185 0 0.1 0.185 0 0 0.19 0 0.02 0.19 0 0.04 0.19 0 0.06 0.19 0 0.08 0.19 0 0.1 0.19 0 0 0.195 0 0.02 0.195 0 0.04 0.195 0 0.06 0.195 0 0.08 0.195 0 0.1 0.195 0 0 0.2 0 0.02 0.2 0 0.04 0.2 0 0.06 0.2 0 0.08 0.2 0 0.1 0.2 0 0 0.205 0 0.02 0.205 0 0.04 0.205 0 0.06 0.205 0 0.08 0.205 0 0.1 0.205 0 0 0.21 0 0.02 0.21 0 0.04 0.21 0 0.06 0.21 0 0.08 0.21 0 0.1 0.21 0 0 0.215 0 0.02 0.215 0 0.04 0.215 0 0.06 0.215 0 0.08 0.215 0 0.1 0.215 0 0 0.22 0 0.02 0.22 0 0.04 0.22 0 0.06 0.22 0 0.08 0.22 0 0.1 0.22 0 0 0.225 0 0.02 0.225 0 0.04 0.225 0 0.06 0.225 0 0.08 0.225 0 0.1 0.225 0 0 0.23 0 0.02 0.23 0 0.04 0.23 0 0.06 0.23 0 0.08 0.23 0 0.1 0.23 0 0 0.235 0 0.02 0.235 0 0.04 0.235 0 0.06 0.235 0 0.08 0.235 0 0.1 0.235 0 0 0.24 0 0.02 0.24 0 0.04 0.24 0 0.06 0.24 0 0.08 0.24 0 0.1 0.24 0 0 0.245 0 0.02 0.245 0 0.04 0.245 0 0.06 0.245 0 0.08 0.245 0 0.1 0.245 0 0 0.25 0 0.02 0.25 0 0.04 0.25 0 0.06 0.25 0 0.08 0.25 0 0.1 0.25 0 0 0.255 0 0.02 0.255 0 0.04 0.255 0 0.06 0.255 0 0.08 0.255 0 0.1 0.255 0 0 0.26 0 0.02 0.26 0 0.04 0.26 0 0.06 0.26 0 0.08 0.26 0 0.1 0.26 0 0 0.265 0 0.02 0.265 0 0.04 0.265 0 0.06 0.265 0 0.08 0.265 0 0.1 0.265 0 0 0.27 0 0.02 0.27 0 0.04 0.27 0 0.06 0.27 0 0.08 0.27 0 0.1 0.27 0 0 0.275 0 0.02 0.275 0 0.04 0.275 0 0.06 0.275 0 0.08 0.275 0 0.1 0.275 0 0 0.28 0 0.02 0.28 0 0.04 0.28 0 0.06 0.28 0 0.08 0.28 0 0.1 0.28 0 0 0.285 0 0.02 0.285 0 0.04 0.285 0 0.06 0.285 0 0.08 0.285 0 0.1 0.285 0 0 0.29 0 0.02 0.29 0 0.04 0.29 0 0.06 0.29 0 0.08 0.29 0 0.1 0.29 0 0 0.295 0 0.02 0.295 0 0.04 0.295 0 0.06 0.295 0 0.08 0.295 0 0.1 0.295 0 0 0.3 0 0.02 0.3 0 0.04 0.3 0 0.06 0.3 0 0.08 0.3 0 0.1 0.3 0 0 0.305 0 0.02 0.305 0 0.04 0.305 0 0.06 0.305 0 0.08 0.305 0 0.1 0.305 0 0 0.31 0 0.02 0.31 0 0.04 0.31 0 0.06 0.31 0 0.08 0.31 0 0.1 0.31 0 0 0.315 0 0.02 0.315 0 0.04 0.315 0 0.06 0.315 0 0.08 0.315 0 0.1 0.315 0 0 0.32 0 0.02 0.32 0 0.04 0.32 0 0.06 0.32 0 0.08 0.32 0 0.1 0.32 0 0 0.325 0 0.02 0.325 0 0.04 0.325 0 0.06 0.325 0 0.08 0.325 0 0.1 0.325 0 0 0.33 0 0.02 0.33 0 0.04 0.33 0 0.06 0.33 0 0.08 0.33 0 0.1 0.33 0 0 0.335 0 0.02 0.335 0 0.04 0.335 0 0.06 0.335 0 0.08 0.335 0 0.1 0.335 0 0 0.34 0 0.02 0.34 0 0.04 0.34 0 0.06 0.34 0 0.08 0.34 0 0.1 0.34 0 0 0.345 0 0.02 0.345 0 0.04 0.345 0 0.06 0.345 0 0.08 0.345 0 0.1 0.345 0 0 0.35 0 0.02 0.35 0 0.04 0.35 0 0.06 0.35 0 0.08 0.35 0 0.1 0.35 0 0 0.355 0 0.02 0.355 0 0.04 0.355 0 0.06 0.355 0 0.08 0.355 0 0.1 0.355 0 0 0.36 0 0.02 0.36 0 0.04 0.36 0 0.06 0.36 0 0.08 0.36 0 0.1 0.36 0 0 0.365 0 0.02 0.365 0 0.04 0.365 0 0.06 0.365 0 0.08 0.365 0 0.1 0.365 0 0 0.37 0 0.02 0.37 0 0.04 0.37 0 0.06 0.37 0 0.08 0.37 0 0.1 0.37 0 0 0.375 0 0.02 0.375 0 0.04 0.375 0 0.06 0.375 0 0.08 0.375 0 0.1 0.375 0 0 0.38 0 0.02 0.38 0 0.04 0.38 0 0.06 0.38 0 0.08 0.38 0 0.1 0.38 0 0 0.385 0 0.02 0.385 0 0.04 0.385 0 0.06 0.385 0 0.08 0.385 0 0.1 0.385 0 0 0.39 0 0.02 0.39 0 0.04 0.39 0 0.06 0.39 0 0.08 0.39 0 0.1 0.39 0 0 0.395 0 0.02 0.395 0 0.04 0.395 0 0.06 0.395 0 0.08 0.395 0 0.1 0.395 0 0 0.4 0 0.02 0.4 0 0.04 0.4 0 0.06 0.4 0 0.08 0.4 0 0.1 0.4 0 0 0.405 0 0.02 0.405 0 0.04 0.405 0 0.06 0.405 0 0.08 0.405 0 0.1 0.405 0 0 0.41 0 0.02 0.41 0 0.04 0.41 0 0.06 0.41 0 0.08 0.41 0 0.1 0.41 0 0 0.415 0 0.02 0.415 0 0.04 0.415 0 0.06 0.415 0 0.08 0.415 0 0.1 0.415 0 0 0.42 0 0.02 0.42 0 0.04 0.42 0 0.06 0.42 0 0.08 0.42 0 0.1 0.42 0 0 0.425 0 0.02 0.425 0 0.04 0.425 0 0.06 0.425 0 0.08 0.425 0 0.1 0.425 0 0 0.43 0 0.02 0.43 0 0.04 0.43 0 0.06 0.43 0 0.08 0.43 0 0.1 0.43 0 0 0.435 0 0.02 0.435 0 0.04 0.435 0 0.06 0.435 0 0.08 0.435 0 0.1 0.435 0 0 0.44 0 0.02 0.44 0 0.04 0.44 0 0.06 0.44 0 0.08 0.44 0 0.1 0.44 0 0 0.445 0 0.02 0.445 0 0.04 0.445 0 0.06 0.445 0 0.08 0.445 0 0.1 0.445 0 0 0.45 0 0.02 0.45 0 0.04 0.45 0 0.06 0.45 0 0.08 0.45 0 0.1 0.45 0 0 0.455 0 0.02 0.455 0 0.04 0.455 0 0.06 0.455 0 0.08 0.455 0 0.1 0.455 0 0 0.46 0 0.02 0.46 0 0.04 0.46 0 0.06 0.46 0 0.08 0.46 0 0.1 0.46 0 0 0.465 0 0.02 0.465 0 0.04 0.465 0 0.06 0.465 0 0.08 0.465 0 0.1 0.465 0 0 0.47 0 0.02 0.47 0 0.04 0.47 0 0.06 0.47 0 0.08 0.47 0 0.1 0.47 0 0 0.475 0 0.02 0.475 0 0.04 0.475 0 0.06 0.475 0 0.08 0.475 0 0.1 0.475 0 0 0.48 0 0.02 0.48 0 0.04 0.48 0 0.06 0.48 0 0.08 0.48 0 0.1 0.48 0 0 0.485 0 0.02 0.485 0 0.04 0.485 0 0.06 0.485 0 0.08 0.485 0 0.1 0.485 0 0 0.49 0 0.02 0.49 0 0.04 0.49 0 0.06 0.49 0 0.08 0.49 0 0.1 0.49 0 0 0.495 0 0.02 0.495 0 0.04 0.495 0 0.06 0.495 0 0.08 0.495 0 0.1 0.495 0 0 0.5 0 0.02 0.5 0 0.04 0.5 0 0.06 0.5 0 0.08 0.5 0 0.1 0.5 0 0 0.505 0 0.02 0.505 0 0.04 0.505 0 0.06 0.505 0 0.08 0.505 0 0.1 0.505 0 0 0.51 0 0.02 0.51 0 0.04 0.51 0 0.06 0.51 0 0.08 0.51 0 0.1 0.51 0 0 0.515 0 0.02 0.515 0 0.04 0.515 0 0.06 0.515 0 0.08 0.515 0 0.1 0.515 0 0 0.52 0 0.02 0.52 0 0.04 0.52 0 0.06 0.52 0 0.08 0.52 0 0.1 0.52 0 0 0.525 0 0.02 0.525 0 0.04 0.525 0 0.06 0.525 0 0.08 0.525 0 0.1 0.525 0 0 0.53 0 0.02 0.53 0 0.04 0.53 0 0.06 0.53 0 0.08 0.53 0 0.1 0.53 0 0 0.535 0 0.02 0.535 0 0.04 0.535 0 0.06 0.535 0 0.08 0.535 0 0.1 0.535 0 0 0.54 0 0.02 0.54 0 0.04 0.54 0 0.06 0.54 0 0.08 0.54 0 0.1 0.54 0 0 0.545 0 0.02 0.545 0 0.04 0.545 0 0.06 0.545 0 0.08 0.545 0 0.1 0.545 0 0 0.55 0 0.02 0.55 0 0.04 0.55 0 0.06 0.55 0 0.08 0.55 0 0.1 0.55 0 0 0.555 0 0.02 0.555 0 0.04 0.555 0 0.06 0.555 0 0.08 0.555 0 0.1 0.555 0 0 0.56 0 0.02 0.56 0 0.04 0.56 0 0.06 0.56 0 0.08 0.56 0 0.1 0.56 0 0 0.565 0 0.02 0.565 0 0.04 0.565 0 0.06 0.565 0 0.08 0.565 0 0.1 0.565 0 0 0.57 0 0.02 0.57 0 0.04 0.57 0 0.06 0.57 0 0.08 0.57 0 0.1 0.57 0 0 0.575 0 0.02 0.575 0 0.04 0.575 0 0.06 0.575 0 0.08 0.575 0 0.1 0.575 0 0 0.58 0 0.02 0.58 0 0.04 0.58 0 0.06 0.58 0 0.08 0.58 0 0.1 0.58 0 0 0.585 0 0.02 0.585 0 0.04 0.585 0 0.06 0.585 0 0.08 0.585 0 0.1 0.585 0 0 0.59 0 0.02 0.59 0 0.04 0.59 0 0.06 0.59 0 0.08 0.59 0 0.1 0.59 0 0 0.595 0 0.02 0.595 0 0.04 0.595 0 0.06 0.595 0 0.08 0.595 0 0.1 0.595 0 0 0.6 0 0.02 0.6 0 0.04 0.6 0 0.06 0.6 0 0.08 0.6 0 0.1 0.6 0 0 0.605 0 0.02 0.605 0 0.04 0.605 0 0.06 0.605 0 0.08 0.605 0 0.1 0.605 0 0 0.61 0 0.02 0.61 0 0.04 0.61 0 0.06 0.61 0 0.08 0.61 0 0.1 0.61 0 0 0.615 0 0.02 0.615 0 0.04 0.615 0 0.06 0.615 0 0.08 0.615 0 0.1 0.615 0 0 0.62 0 0.02 0.62 0 0.04 0.62 0 0.06 0.62 0 0.08 0.62 0 0.1 0.62 0 0 0.625 0 0.02 0.625 0 0.04 0.625 0 0.06 0.625 0 0.08 0.625 0 0.1 0.625 0 0 0.63 0 0.02 0.63 0 0.04 0.63 0 0.06 0.63 0 0.08 0.63 0 0.1 0.63 0 0 0.635 0 0.02 0.635 0 0.04 0.635 0 0.06 0.635 0 0.08 0.635 0 0.1 0.635 0 0 0.64 0 0.02 0.64 0 0.04 0.64 0 0.06 0.64 0 0.08 0.64 0 0.1 0.64 0 0 0.645 0 0.02 0.645 0 0.04 0.645 0 0.06 0.645 0 0.08 0.645 0 0.1 0.645 0 0 0.65 0 0.02 0.65 0 0.04 0.65 0 0.06 0.65 0 0.08 0.65 0 0.1 0.65 0 0 0.655 0 0.02 0.655 0 0.04 0.655 0 0.06 0.655 0 0.08 0.655 0 0.1 0.655 0 0 0.66 0 0.02 0.66 0 0.04 0.66 0 0.06 0.66 0 0.08 0.66 0 0.1 0.66 0 0 0.665 0 0.02 0.665 0 0.04 0.665 0 0.06 0.665 0 0.08 0.665 0 0.1 0.665 0 0 0.67 0 0.02 0.67 0 0.04 0.67 0 0.06 0.67 0 0.08 0.67 0 0.1 0.67 0 0 0.675 0 0.02 0.675 0 0.04 0.675 0 0.06 0.675 0 0.08 0.675 0 0.1 0.675 0 0 0.68 0 0.02 0.68 0 0.04 0.68 0 0.06 0.68 0 0.08 0.68 0 0.1 0.68 0 0 0.685 0 0.02 0.685 0 0.04 0.685 0 0.06 0.685 0 0.08 0.685 0 0.1 0.685 0 0 0.69 0 0.02 0.69 0 0.04 0.69 0 0.06 0.69 0 0.08 0.69 0 0.1 
[...]
			<PointData Scalars="VitesseX">
				<DataArray Name="VitesseX" type="Float32" format="ascii">
 0 3.4039e-14 6.0513e-14 6.13974e-14 2.99498e-14 0 0 3.54532e-14 5.81158e-14 6.08989e-14 3.04786e-14 0 0 4.9416e-14 3.56448e-14 7.29948e-14 2.40767e-14 0 0 4.08386e-14 5.44349e-14 4.80819e-14 2.93038e-14 0 0 3.4803e-14 7.7994e-14 1.80144e-14 3.77552e-14 0 0 6.71876e-14 3.66477e-14 5.25429e-14 1.17975e-14 0 0 7.59429e-14 2.82126e-14 6.42252e-14 -1.13472e-14 0 0 6.24306e-14 5.6312e-14 2.84636e-14 3.00215e-15 0 0 5.74007e-14 6.71572e-14 1.27485e-14 1.37553e-14 0 0 4.07611e-14 8.41981e-14 1.86969e-14 4.62582e-15 0 0 3.58113e-14 8.46452e-14 3.30237e-14 -5.83417e-15 0 0 3.25943e-14 9.28139e-14 1.06025e-14 2.65018e-14 0 0 1.88067e-14 1.06878e-13 7.86437e-15 2.80602e-14 0 0 3.77335e-14 7.0902e-14 5.68039e-14 -1.5118e-15 0 0 5.20563e-14 4.67232e-14 7.48166e-14 2.06389e-14 0 0 6.93507e-14 2.81727e-14 8.55139e-14 2.15652e-14 0 0 5.73003e-14 4.1774e-14 6.93005e-14 3.2589e-14 0 0 2.30264e-14 7.86095e-14 4.14352e-14 7.14865e-14 0 0 2.64099e-14 7.33746e-14 5.53917e-14 9.13449e-14 0 0 4.01286e-14 4.76434e-14 1.09037e-13 7.17215e-14 0 0 -8.19293e-15 1.23134e-13 4.72279e-14 1.24239e-13 0 0 4.20897e-14 6.46551e-14 1.06849e-13 9.05933e-14 0 0 1.07408e-13 2.24567e-14 1.47341e-13 3.77102e-14 0 0 8.52329e-14 1.13602e-13 3.00623e-14 1.05691e-13 0 0 7.68612e-14 1.27548e-13 5.41449e-14 7.0916e-14 0 0 2.57791e-14 1.99775e-13 3.815e-15 9.1191e-14 0 0 4.24684e-14 1.4094e-13 5.06521e-14 8.34545e-14 0 0 8.98109e-14 3.5459e-14 1.36671e-13 6.29771e-14 0 0 1.05593e-13 3.51792e-14 9.88545e-14 8.20876e-14 0 0 1.30525e-13 5.46866e-16 1.54522e-13 -9.72042e-15 0 0 1.36351e-13 -1.38659e-14 1.77466e-13 -4.05439e-14 0 0 9.28887e-14 7.1655e-14 7.65285e-14 1.42975e-14 0 0 4.98677e-14 1.61857e-13 -1.52797e-14 8.30037e-15 0 0 -1.47513e-14 2.20375e-13 -2.08186e-14 -1.90385e-14 0 0 8.50705e-15 1.50802e-13 7.81004e-14 -7.86871e-14 0 0 8.03033e-14 8.15365e-14 1.045e-13 -8.7942e-14 0 0 6.57501e-14 1.34574e-13 1.2823e-14 2.33066e-14 0 0 9.93925e-14 8.67485e-14 6.14363e-14 5.78469e-14 0 0 1.30162e-13 4.38395e-14 1.68091e-13 -3.05586e-14 0 0 1.13359e-13 1.06592e-13 1.11995e-13 -5.84999e-14 0 0 1.67459e-13 1.24388e-13 -3.39689e-14 4.63325e-14 0 0 2.01406e-13 1.07254e-13 -6.75336e-14 5.73922e-14 0 0 1.70115e-13 7.09819e-14 -1.41111e-14 5.56079e-16 0 0 1.03443e-13 1.19973e-13 -9.5231e-14 9.01839e-14 0 0 5.57065e-14 1.10653e-13 -4.00634e-14 7.91529e-14 0 0 4.81584e-14 -1.12131e-14 1.45747e-13 -2.4499e-14 0 0 8.8423e-15 -2.52856e-14 1.72625e-13 -4.01544e-14 0 0 -4.81708e-14 7.58074e-14 4.02163e-14 1.69964e-14 0 0 -8.61318e-14 1.52441e-13 -7.36544e-14 1.05697e-13 0 0 -8.74458e-14 1.01232e-13 1.16488e-13 -5.03948e-14 0 0 -2.8344e-14 -9.10755e-15 3.74294e-13 -2.32414e-13 0 0 2.68446e-15 -5.25955e-16 3.53274e-13 -1.25608e-13 0 0 -2.31397e-14 1.18159e-13 2.01295e-13 5.11702e-15 0 0 2.18064e-14 1.67832e-13 9.60461e-14 6.226e-14 0 0 6.69104e-14 1.88611e-13 8.53624e-14 7.25868e-14 0 0 7.1483e-14 1.83865e-13 1.75048e-13 4.02496e-14 0 0 2.7898e-14 3.17386e-13 1.3348e-13 4.26206e-14 0 0 1.7785e-14 4.21926e-13 8.68298e-14 5.54655e-14 0 0 8.47472e-14 2.80589e-13 2.11182e-13 3.53003e-14 0 0 1.08075e-13 1.7124e-13 1.93981e-13 1.54419e-13 0 0 7.23134e-14 1.98587e-13 8.88667e-14 3.81302e-13 0 0 8.43651e-14 2.44929e-13 1.40207e-13 4.02304e-13 0 0 1.6591e-13 1.82905e-13 2.48341e-13 3.36205e-13 0 0 1.19769e-13 1.53863e-13 2.81272e-13 4.23508e-13 0 0 -2.12188e-14 1.49149e-13 3.18612e-13 4.83253e-13 0 0 -1.32669e-13 7.98753e-14 4.0637e-13 4.19353e-13 0 0 -2.66991e-13 1.68437e-13 4.24396e-13 3.14974e-13 0 0 -2.56009e-13 2.43072e-13 4.14342e-13 2.16584e-13 0 0 -1.81503e-13 3.39182e-13 2.43904e-13 2.91779e-13 0 0 -7.34759e-14 3.38399e-13 1.73552e-13 3.21197e-13 0 0 1.39035e-13 4.9879e-14 4.14749e-13 1.56136e-13 0 0 1.50047e-13 -5.31344e-15 4.74919e-13 8.11292e-14 0 0 4.84441e-14 1.9921e-13 2.95323e-13 1.30467e-13 0 0 9.80215e-15 3.80588e-13 1.01579e-13 1.06722e-13 0 0 5.73446e-14 3.33369e-13 1.96539e-13 -1.13546e-13 0 0 1.02583e-13 2.02781e-13 4.28252e-13 -3.4983e-13 0 0 1.14312e-13 1.98006e-13 3.4825e-13 -1.7115e-13 0 0 9.10985e-14 3.44642e-13 -4.29979e-14 2.99689e-13 0 0 4.66999e-14 4.0996e-13 -2.85827e-13 4.44667e-13 0 0 9.73486e-14 2.52769e-13 -1.65741e-13 3.16594e-13 0 0 3.22576e-13 -2.22085e-13 2.3004e-13 2.24387e-14 0 0 4.23057e-13 -4.7769e-13 4.56559e-13 -7.66862e-14 0 0 2.66604e-13 -2.86788e-13 2.81194e-13 4.66098e-14 0 0 -1.22641e-13 1.83194e-13 -6.06384e-14 2.00238e-13 0 0 -4.75518e-13 3.73e-13 -6.04773e-14 1.39068e-13 0 0 -5.37045e-13 3.50291e-13 -4.96134e-14 1.57539e-13 0 0 -4.0189e-13 3.30954e-14 1.30616e-13 2.24259e-13 0 0 -1.94933e-13 -3.12247e-13 1.7955e-13 3.47995e-13 0 0 -2.33981e-13 -2.9512e-13 1.08457e-13 4.55643e-13 0 0 -4.42168e-13 -9.86272e-14 -8.26992e-14 5.05402e-13 0 0 -4.79832e-13 -7.23852e-14 -1.96161e-13 5.11353e-13 0 0 -2.9863e-13 -2.7109e-13 -1.66735e-13 4.91305e-13 0 0 7.77174e-14 -6.25905e-13 -1.60339e-13 5.5597e-13 0 0 1.96849e-13 -7.52439e-13 -1.3876e-13 5.7434e-13 0 0 1.09454e-13 -7.37612e-13 -6.08327e-14 4.99594e-13 0 0 -1.85449e-13 -6.1496e-13 5.7528e-14 3.41402e-13 0 0 -6.13782e-13 -3.55172e-13 1.50727e-13 1.49961e-13 0 0 -9.49489e-13 -3.53478e-14 2.21196e-13 -1.13277e-14 0 0 -9.91855e-13 7.19284e-15 3.3094e-13 -1.88495e-13 0 0 -9.17107e-13 -5.6244e-14 4.72158e-13 -3.83175e-13 0 0 -7.89507e-13 -1.53807e-13 5.4961e-13 -4.49748e-13 0 0 -6.31011e-13 -1.97765e-13 5.27813e-13 -4.1874e-13 0 0 -4.16549e-13 -1.65134e-13 2.54033e-13 -2.12573e-13 0 0 -1.39371e-13 -1.5694e-13 -9.45122e-14 1.27014e-13 0 0 1.49706e-14 -1.95713e-13 -1.31577e-13 2.20778e-13 0 0 4.19912e-14 -2.15819e-13 -1.06699e-13 2.15172e-13 0 0 1.32693e-14 -1.34785e-13 -2.55844e-14 7.83737e-14 0 0 3.65756e-14 -7.90715e-14 1.88935e-13 -1.93385e-13 0 0 1.55179e-13 -8.81462e-14 2.80429e-13 -2.28343e-13 0 0 2.25929e-13 -5.80856e-14 2.51197e-13 -1.90726e-13 0 0 2.47473e-13 -2.38462e-14 2.44733e-13 -1.52615e-13 0 0 2.37355e-13 -6.75025e-15 2.49421e-13 -7.34521e-14 0 0 2.52692e-13 3.05748e-15 2.24986e-13 8.04898e-14 0 0 2.77567e-13 5.3944e-14 1.02269e-13 3.3028e-13 0 0 2.73696e-13 1.13621e-13 1.99378e-14 4.90847e-13 0 0 2.85807e-13 1.07947e-13 5.4655e-14 5.00754e-13 0 0 3.09061e-13 1.31422e-13 1.00182e-13 4.55726e-13 0 0 3.20028e-13 1.97699e-13 1.22661e-13 3.85983e-13 0 0 3.29095e-13 2.37007e-13 1.83705e-13 2.66241e-13 0 0 3.58251e-13 2.41908e-13 2.47393e-13 2.07223e-13 0 0 3.81142e-13 2.59395e-13 2.66719e-13 2.02215e-13 0 0 3.99821e-13 3.07606e-13 2.22764e-13 2.54952e-13 0 0 4.07295e-13 3.49815e-13 2.09075e-13 2.47749e-13 0 0 3.75349e-13 3.80385e-13 2.62499e-13 1.7025e-13 0 0 3.34845e-13 3.94553e-13 3.19844e-13 1.10469e-13 0 0 2.88991e-13 4.1013e-13 3.65793e-13 4.81797e-14 0 0 2.47411e-13 4.13501e-13 4.12498e-13 1.50817e-14 0 0 2.03506e-13 4.26443e-13 4.31862e-13 5.1146e-15 0 0 1.51647e-13 4.53116e-13 4.60231e-13 -1.05161e-14 0 0 1.49488e-13 4.45509e-13 4.73452e-13 1.49182e-14 0 0 1.64596e-13 4.24123e-13 4.47267e-13 8.04886e-14 0 0 1.94809e-13 4.20196e-13 3.82186e-13 1.4295e-13 0 0 2.34684e-13 4.10174e-13 3.13221e-13 1.79721e-13 0 0 2.53331e-13 4.10454e-13 2.61037e-13 1.97646e-13 0 0 2.58091e-13 3.84517e-13 2.59516e-13 2.3168e-13 0 0 2.72536e-13 3.17904e-13 3.07672e-13 2.93212e-13 0 0 3.05173e-13 2.54858e-13 4.00042e-13 3.15295e-13 0 0 2.77942e-13 2.74861e-13 4.17665e-13 3.58317e-13 0 0 1.98276e-13 3.60571e-13 3.96731e-13 3.87858e-13 0 0 1.81543e-13 3.74427e-13 3.59717e-13 4.23055e-13 0 0 1.8035e-13 3.4934e-13 3.67447e-13 3.76817e-13 0 0 1.65285e-13 3.325e-13 4.23175e-13 2.0082e-13 0 0 1.31939e-13 3.67712e-13 3.98481e-13 1.65925e-13 0 0 7.15761e-14 3.83551e-13 3.38128e-13 2.079e-13 0 0 6.56402e-14 3.53891e-13 2.73753e-13 2.58131e-13 0 0 1.01868e-13 2.78574e-13 2.55695e-13 2.387e-13 0 0 1.28807e-13 2.30056e-13 2.93924e-13 1.14952e-13 0 0 1.51915e-13 2.28804e-13 2.60479e-13 -8.08327e-15 0 0 1.30907e-13 2.85619e-13 1.05335e-13 -1.45554e-14 0 0 6.06281e-14 3.51942e-13 5.1012e-14 -1.51377e-13 0 0 9.0839e-14 3.04119e-13 1.28676e-13 -2.55599e-14 0 0 1.50166e-13 3.0586e-13 2.09086e-13 3.01177e-13 0 0 1.342e-13 3.72132e-13 2.1825e-13 2.66253e-13 0 0 1.66204e-13 3.42607e-13 2.94674e-13 1.30289e-13 0 0 2.50615e-13 2.655e-13 3.03353e-13 1.49528e-13 0 0 2.82619e-13 2.01205e-13 3.54674e-13 1.08382e-13 0 0 2.37247e-13 1.99131e-13 3.417e-13 1.16181e-13 0 0 2.5393e-13 1.68077e-13 2.44429e-13 2.84599e-13 0 0 2.41405e-13 1.79015e-13 2.12044e-13 3.36939e-13 0 0 1.3585e-13 2.79888e-13 1.6784e-13 3.75852e-13 0 0 2.04312e-13 1.60914e-13 2.56357e-13 3.34925e-13 0 0 3.1001e-13 4.21276e-14 3.13175e-13 3.11364e-13 0 0 2.54334e-13 8.05679e-14 4.14674e-13 1.91902e-13 0 0 2.00041e-13 9.88536e-14 5.17678e-13 1.56616e-13 0 0 1.98915e-13 1.18961e-13 4.52448e-13 2.73566e-13 0 0 1.86839e-13 1.76005e-13 2.95432e-13 4.68764e-13 0 0 2.35434e-13 1.32689e-13 3.0813e-13 4.97387e-13 0 0 3.33091e-13 3.5469e-14 4.41077e-13 3.13946e-13 0 0 2.88568e-13 1.70953e-13 3.75366e-13 2.84183e-13 0 0 2.37385e-13 3.26803e-13 2.79154e-13 3.06898e-13 0 0 3.01174e-13 3.51731e-13 2.55389e-13 2.43835e-13 0 0 3.25527e-13 3.18343e-13 3.42561e-13 1.25115e-13 0 0 2.25361e-13 3.80244e-13 3.79853e-13 1.51384e-13 0 0 1.70494e-13 4.32953e-13 3.68035e-13 2.81048e-13 0 0 2.66664e-13 3.38145e-13 3.34946e-13 4.59732e-13 0 0 2.21993e-13 4.38137e-13 2.27877e-13 4.71922e-13 0 0 2.11181e-13 4.24904e-13 3.06021e-13 4.12731e-13 0 0 1.61066e-13 5.41417e-13 1.02829e-13 6.22659e-13 0 0 3.26805e-13 3.85676e-13 1.69954e-13 5.93552e-13 0 0 3.10077e-13 4.40173e-13 3.50378e-13 2.74524e-13 0 0 3.20334e-13 4.54488e-13 5.26008e-13 3.06507e-14 0 0 2.28916e-13 5.9952e-13 4.72105e-13 1.95007e-14 0 0 5.89876e-14 7.78059e-13 3.77968e-13 1.17956e-14 0 0 5.50016e-13 1.12193e-13 8.70904e-13 -2.08799e-13 0 0 4.90333e-13 3.84012e-13 4.17691e-13 1.08033e-13 0 0 2.21847e-13 8.22752e-13 -8.1276e-14 4.74149e-13 0 0 1.75336e-13 7.8951e-13 3.34845e-14 4.01709e-13 0 0 3.82326e-13 1.74462e-13 8.44792e-13 -1.1395e-13 0 0 3.69071e-13 2.11303e-14 1.00777e-12 -1.36078e-13 0 0 2.62661e-13 3.37106e-13 3.95509e-13 3.92453e-13 0 0 2.24012e-13 4.05492e-13 3.18524e-13 3.64866e-13 0 0 2.27359e-13 3.00872e-13 5.3048e-13 1.04787e-13 0 0 4.55796e-13 5.63714e-14 4.81757e-13 2.78963e-13 0 0 4.83227e-13 -2.07291e-14 4.81527e-13 3.6464e-13 0 0 4.68165e-13 -2.07534e-13 7.60607e-13 2.84151e-13 0 0 3.40774e-13 4.31897e-15 5.85872e-13 3.29991e-13 0 0 2.62487e-13 3.24059e-13 4.08421e-13 1.24689e-13 0 0 3.63202e-13 3.75e-13 4.00441e-13 -7.77214e-14 0 0 3.9489e-13 3.91048e-13 1.94912e-13 1.19651e-13 0 0 1.15097e-13 7.80067e-13 -3.54362e-13 5.05011e-13 0 0 -1.12559e-13 1.11963e-12 -6.59146e-13 5.90673e-13 0
				</DataArray>
				<DataArray Name="VitesseY" type="Float32" format="ascii">