<?xml version="1.0"?>
<VTKFile type="PolyData">
	<PolyData>
		<Piece NumberOfPoints="1206" NumberOfPolys="1000">
			<Points>
				<DataArray type="Float32" NumberOfComponents="3" format="ascii">
 0 0 0 0.02 0 0 0.04 0 0 0.06 0 0 0.08 0 0 0.1 0 0 0 0.005 0 0.02 0.005 0 0.04 0.005 0 0.06 0.005 0 0.08 0.005 0 0.1 0.005 0 0 0.01 0 0.02 0.01 0 0.04 0.01 0 0.06 0.01 0 0.08 0.01 0 0.1 0.01 0 0 0.015 0 0.02 0.015 0 0.04 0.015 0 0.06 0.015 0 0.08 0.015 0 0.1 0.015 0 0 0.02 0 0.02 0.02 0 0.04 0.02 0 0.06 0.02 0 0.08 0.02 0 0.1 0.02 0 0 0.025 0 0.02 0.025 0 0.04 0.025 0 0.06 0.025 0 0.08 0.025 0 0.1 0.025 0 0 0.03 0 0.02 0.03 0 0.04 0.03 0 0.06 0.03 0 0.08 0.03 0 0.1 0.03 0 0 0.035 0 0.02 0.035 0 0.04 0.035 0 0.06 0.035 0 0.08 0.035 0 0.1 0.035 0 0 0.04 0 0.02 0.04 0 0.04 0.04 0 0.06 0.04 0 0.08 0.04 0 0.1 0.04 0 0 0.045 0 0.02 0.045 0 0.04 0.045 0 0.06 0.045 0 0.08 0.045 0 0.1 0.045 0 0 0.05 0 0.02 0.05 0 0.04 0.05 0 0.06 0.05 0 0.08 0.05 0 0.1 0.05 0 0 0.055 0 0.02 0.055 0 0.04 0.055 0 0.06 0.055 0 0.08 0.055 0 0.1 0.055 0 0 0.06 0 0.02 0.06 0 0.04 0.06 0 0.06 0.06 0 0.08 0.06 0 0.1 0.06 0 0 0.065 0 0.02 0.065 0 0.04 0.065 0 0.06 0.065 0 0.08 0.065 0 0.1 0.065 0 0 0.07 0 0.02 0.07 0 0.04 0.07 0 0.06 0.07 0 0.08 0.07 0 0.1 0.07 0 0 0.075 0 0.02 0.075 0 0.04 0.075 0 0.06 0.075 0 0.08 0.075 0 0.1 0.075 0 0 0.08 0 0.02 0.08 0 0.04 0.08 0 0.06 0.08 0 0.08 0.08 0 0.1 0.08 0 0 0.085 0 0.02 0.085 0 0.04 0.085 0 0.06 0.085 0 0.08 0.085 0 0.1 0.085 0 0 0.09 0 0.02 0.09 0 0.04 0.09 0 0.06 0.09 0 0.08 0.09 0 0.1 0.09 0 0 0.095 0 0.02 0.095 0 0.04 0.095 0 0.06 0.095 0 0.08 0.095 0 0.1 0.095 0 0 0.1 0 0.02 0.1 0 0.04 0.1 0 0.06 0.1 0 0.08 0.1 0 0.1 0.1 0 0 0.105 0 0.02 0.105 0 0.04 0.105 0 0.06 0.105 0 0.08 0.105 0 0.1 0.105 0 0 0.11 0 0.02 0.11 0 0.04 0.11 0 0.06 0.11 0 0.08 0.11 0 0.1 0.11 0 0 0.115 0 0.02 0.115 0 0.04 0.115 0 0.06 0.115 0 0.08 0.115 0 0.1 0.115 0 0 0.12 0 0.02 0.12 0 0.04 0.12 0 0.06 0.12 0 0.08 0.12 0 0.1 0.12 0 0 0.125 0 0.02 0.125 0 0.04 0.125 0 0.06 0.125 0 0.08 0.125 0 0.1 0.125 0 0 0.13 0 0.02 0.13 0 0.04 0.13 0 0.06 0.13 0 0.08 0.13 0 0.1 0.13 0 0 0.135 0 0.02 0.135 0 0.04 0.135 0 0.06 0.135 0 0.08 0.135 0 0.1 0.135 0 0 0.14 0 0.02 0.14 0 0.04 0.14 0 0.06 0.14 0 0.08 0.14 0 0.1 0.14 0 0 0.145 0 0.02 0.145 0 0.04 0.145 0 0.06 0.145 0 0.08 0.145 0 0.1 0.145 0 0 0.15 0 0.02 0.15 0 0.04 0.15 0 0.06 0.15 0 0.08 0.15 0 0.1 0.15 0 0 0.155 0 0.02 0.155 0 0.04 0.155 0 0.06 0.155 0 0.08 0.155 0 0.1 0.155 0 0 0.16 0 0.02 0.16 0 0.04 0.16 0 0.06 0.16 0 0.08 0.16 0 0.1 0.16 0 0 0.165 0 0.02 0.165 0 0.04 0.165 0 0.06 0.165 0 0.08 0.165 0 0.1 0.165 0 0 0.17 0 0.02 0.17 0 0.04 0.17 0 0.06 0.17 0 0.08 0.17 0 0.1 0.17 0 0 0.175 0 0.02 0.175 0 0.04 0.175 0 0.06 0.175 0 0.08 0.175 0 0.1 0.175 0 0 0.18 0 0.02 0.18 0 0.04 0.18 0 0.06 0.18 0 0.08 0.18 0 0.1 0.18 0 0 0.185 0 0.02 0.185 0 0.04 0.185 0 0.06 0.185 0 0.08 0.185 0 0.1 0.185 0 0 0.19 0 0.02 0.19 0 0.04 0.19 0 0.06 0.19 0 0.08 0.19 0 0.1 0.19 0 0 0.195 0 0.02 0.195 0 0.04 0.195 0 0.06 0.195 0 0.08 0.195 0 0.1 0.195 0 0 0.2 0 0.02 0.2 0 0.04 0.2 0 0.06 0.2 0 0.08 0.2 0 0.1 0.2 0 0 0.205 0 0.02 0.205 0 0.04 0.205 0 0.06 0.205 0 0.08 0.205 0 0.1 0.205 0 0 0.21 0 0.02 0.21 0 0.04 0.21 0 0.06 0.21 0 0.08 0.21 0 0.1 0.21 0 0 0.215 0 0.02 0.215 0 0.04 0.215 0 0.06 0.215 0 0.08 0.215 0 0.1 0.215 0 0 0.22 0 0.02 0.22 0 0.04 0.22 0 0.06 0.22 0 0.08 0.22 0 0.1 0.22 0 0 0.225 0 0.02 0.225 0 0.04 0.225 0 0.06 0.225 0 0.08 0.225 0 0.1 0.225 0 0 0.23 0 0.02 0.23 0 0.04 0.23 0 0.06 0.23 0 0.08 0.23 0 0.1 0.23 0 0 0.235 0 0.02 0.235 0 0.04 0.235 0 0.06 0.235 0 0.08 0.235 0 0.1 0.235 0 0 0.24 0 0.02 0.24 0 0.04 0.24 0 0.06 0.24 0 0.08 0.24 0 0.1 0.24 0 0 0.245 0 0.02 0.245 0 0.04 0.245 0 0.06 0.245 0 0.08 0.245 0 0.1 0.245 0 0 0.25 0 0.02 0.25 0 0.04 0.25 0 0.06 0.25 0 0.08 0.25 0 0.1 0.25 0 0 0.255 0 0.02 0.255 0 0.04 0.255 0 0.06 0.255 0 0.08 0.255 0 0.1 0.255 0 0 0.26 0 0.02 0.26 0 0.04 0.26 0 0.06 0.26 0 0.08 0.26 0 0.1 0.26 0 0 0.265 0 0.02 0.265 0 0.04 0.265 0 0.06 0.265 0 0.08 0.265 0 0.1 0.265 0 0 0.27 0 0.02 0.27 0 0.04 0.27 0 0.06 0.27 0 0.08 0.27 0 0.1 0.27 0 0 0.275 0 0.02 0.275 0 0.04 0.275 0 0.06 0.275 0 0.08 0.275 0 0.1 0.275 0 0 0.28 0 0.02 0.28 0 0.04 0.28 0 0.06 0.28 0 0.08 0.28 0 0.1 0.28 0 0 0.285 0 0.02 0.285 0 0.04 0.285 0 0.06 0.285 0 0.08 0.285 0 0.1 0.285 0 0 0.29 0 0.02 0.29 0 0.04 0.29 0 0.06 0.29 0 0.08 0.29 0 0.1 0.29 0 0 0.295 0 0.02 0.295 0 0.04 0.295 0 0.06 0.295 0 0.08 0.295 0 0.1 0.295 0 0 0.3 0 0.02 0.3 0 0.04 0.3 0 0.06 0.3 0 0.08 0.3 0 0.1 0.3 0 0 0.305 0 0.02 0.305 0 0.04 0.305 0 0.06 0.305 0 0.08 0.305 0 0.1 0.305 0 0 0.31 0 0.02 0.31 0 0.04 0.31 0 0.06 0.31 0 0.08 0.31 0 0.1 0.31 0 0 0.315 0 0.02 0.315 0 0.04 0.315 0 0.06 0.315 0 0.08 0.315 0 0.1 0.315 0 0 0.32 0 0.02 0.32 0 0.04 0.32 0 0.06 0.32 0 0.08 0.32 0 0.1 0.32 0 0 0.325 0 0.02 0.325 0 0.04 0.325 0 0.06 0.325 0 0.08 0.325 0 0.1 0.325 0 0 0.33 0 0.02 0.33 0 0.04 0.33 0 0.06 0.33 0 0.08 0.33 0 0.1 0.33 0 0 0.335 0 0.02 0.335 0 0.04 0.335 0 0.06 0.335 0 0.08 0.335 0 0.1 0.335 0 0 0.34 0 0.02 0.34 0 0.04 0.34 0 0.06 0.34 0 0.08 0.34 0 0.1 0.34 0 0 0.345 0 0.02 0.345 0 0.04 0.345 0 0.06 0.345 0 0.08 0.345 0 0.1 0.345 0 0 0.35 0 0.02 0.35 0 0.04 0.35 0 0.06 0.35 0 0.08 0.35 0 0.1 0.35 0 0 0.355 0 0.02 0.355 0 0.04 0.355 0 0.06 0.355 0 0.08 0.355 0 0.1 0.355 0 0 0.36 0 0.02 0.36 0 0.04 0.36 0 0.06 0.36 0 0.08 0.36 0 0.1 0.36 0 0 0.365 0 0.02 0.365 0 0.04 0.365 0 0.06 0.365 0 0.08 0.365 0 0.1 0.365 0 0 0.37 0 0.02 0.37 0 0.04 0.37 0 0.06 0.37 0 0.08 0.37 0 0.1 0.37 0 0 0.375 0 0.02 0.375 0 0.04 0.375 0 0.06 0.375 0 0.08 0.375 0 0.1 0.375 0 0 0.38 0 0.02 0.38 0 0.04 0.38 0 0.06 0.38 0 0.08 0.38 0 0.1 0.38 0 0 0.385 0 0.02 0.385 0 0.04 0.385 0 0.06 0.385 0 0.08 0.385 0 0.1 0.385 0 0 0.39 0 0.02 0.39 0 0.04 0.39 0 0.06 0.39 0 0.08 0.39 0 0.1 0.39 0 0 0.395 0 0.02 0.395 0 0.04 0.395 0 0.06 0.395 0 0.08 0.395 0 0.1 0.395 0 0 0.4 0 0.02 0.4 0 0.04 0.4 0 0.06 0.4 0 0.08 0.4 0 0.1 0.4 0 0 0.405 0 0.02 0.405 0 0.04 0.405 0 0.06 0.405 0 0.08 0.405 0 0.1 0.405 0 0 0.41 0 0.02 0.41 0 0.04 0.41 0 0.06 0.41 0 0.08 0.41 0 0.1 0.41 0 0 0.415 0 0.02 0.415 0 0.04 0.415 0 0.06 0.415 0 0.08 0.415 0 0.1 0.415 0 0 0.42 0 0.02 0.42 0 0.04 0.42 0 0.06 0.42 0 0.08 0.42 0 0.1 0.42 0 0 0.425 0 0.02 0.425 0 0.04 0.425 0 0.06 0.425 0 0.08 0.425 0 0.1 0.425 0 0 0.43 0 0.02 0.43 0 0.04 0.43 0 0.06 0.43 0 0.08 0.43 0 0.1 0.43 0 0 0.435 0 0.02 0.435 0 0.04 0.435 0 0.06 0.435 0 0.08 0.435 0 0.1 0.435 0 0 0.44 0 0.02 0.44 0 0.04 0.44 0 0.06 0.44 0 0.08 0.44 0 0.1 0.44 0 0 0.445 0 0.02 0.445 0 0.04 0.445 0 0.06 0.445 0 0.08 0.445 0 0.1 0.445 0 0 0.45 0 0.02 0.45 0 0.04 0.45 0 0.06 0.45 0 0.08 0.45 0 0.1 0.45 0 0 0.455 0 0.02 0.455 0 0.04 0.455 0 0.06 0.455 0 0.08 0.455 0 0.1 0.455 0 0 0.46 0 0.02 0.46 0 0.04 0.46 0 0.06 0.46 0 0.08 0.46 0 0.1 0.46 0 0 0.465 0 0.02 0.465 0 0.04 0.465 0 0.06 0.465 0 0.08 0.465 0 0.1 0.465 0 0 0.47 0 0.02 0.47 0 0.04 0.47 0 0.06 0.47 0 0.08 0.47 0 0.1 0.47 0 0 0.475 0 0.02 0.475 0 0.04 0.475 0 0.06 0.475 0 0.08 0.475 0 0.1 0.475 0 0 0.48 0 0.02 0.48 0 0.04 0.48 0 0.06 0.48 0 0.08 0.48 0 0.1 0.48 0 0 0.485 0 0.02 0.485 0 0.04 0.485 0 0.06 0.485 0 0.08 0.485 0 0.1 0.485 0 0 0.49 0 0.02 0.49 0 0.04 0.49 0 0.06 0.49 0 0.08 0.49 0 0.1 0.49 0 0 0.495 0 0.02 0.495 0 0.04 0.495 0 0.06 0.495 0 0.08 0.495 0 0.1 0.495 0 0 0.5 0 0.02 0.5 0 0.04 0.5 0 0.06 0.5 0 0.08 0.5 0 0.1 0.5 0 0 0.505 0 0.02 0.505 0 0.04 0.505 0 0.06 0.505 0 0.08 0.505 0 0.1 0.505 0 0 0.51 0 0.02 0.51 0 0.04 0.51 0 0.06 0.51 0 0.08 0.51 0 0.1 0.51 0 0 0.515 0 0.02 0.515 0 0.04 0.515 0 0.06 0.515 0 0.08 0.515 0 0.1 0.515 0 0 0.52 0 0.02 0.52 0 0.04 0.52 0 0.06 0.52 0 0.08 0.52 0 0.1 0.52 0 0 0.525 0 0.02 0.525 0 0.04 0.525 0 0.06 0.525 0 0.08 0.525 0 0.1 0.525 0 0 0.53 0 0.02 0.53 0 0.04 0.53 0 0.06 0.53 0 0.08 0.53 0 0.1 0.53 0 0 0.535 0 0.02 0.535 0 0.04 0.535 0 0.06 0.535 0 0.08 0.535 0 0.1 0.535 0 0 0.54 0 0.02 0.54 0 0.04 0.54 0 0.06 0.54 0 0.08 0.54 0 0.1 0.54 0 0 0.545 0 0.02 0.545 0 0.04 0.545 0 0.06 0.545 0 0.08 0.545 0 0.1 0.545 0 0 0.55 0 0.02 0.55 0 0.04 0.55 0 0.06 0.55 0 0.08 0.55 0 0.1 0.55 0 0 0.555 0 0.02 0.555 0 0.04 0.555 0 0.06 0.555 0 0.08 0.555 0 0.1 0.555 0 0 0.56 0 0.02 0.56 0 0.04 0.56 0 0.06 0.56 0 0.08 0.56 0 0.1 0.56 0 0 0.565 0 0.02 0.565 0 0.04 0.565 0 0.06 0.565 0 0.08 0.565 0 0.1 0.565 0 0 0.57 0 0.02 0.57 0 0.04 0.57 0 0.06 0.57 0 0.08 0.57 0 0.1 0.57 0 0 0.575 0 0.02 0.575 0 0.04 0.575 0 0.06 0.575 0 0.08 0.575 0 0.1 0.575 0 0 0.58 0 0.02 0.58 0 0.04 0.58 0 0.06 0.58 0 0.08 0.58 0 0.1 0.58 0 0 0.585 0 0.02 0.585 0 0.04 0.585 0 0.06 0.585 0 0.08 0.585 0 0.1 0.585 0 0 0.59 0 0.02 0.59 0 0.04 0.59 0 0.06 0.59 0 0.08 0.59 0 0.1 0.59 0 0 0.595 0 0.02 0.595 0 0.04 0.595 0 0.06 0.595 0 0.08 0.595 0 0.1 0.595 0 0 0.6 0 0.02 0.6 0 0.04 0.6 0 0.06 0.6 0 0.08 0.6 0 0.1 0.6 0 0 0.605 0 0.02 0.605 0 0.04 0.605 0 0.06 0.605 0 0.08 0.605 0 0.1 0.605 0 0 0.61 0 0.02 0.61 0 0.04 0.61 0 0.06 0.61 0 0.08 0.61 0 0.1 0.61 0 0 0.615 0 0.02 0.615 0 0.04 0.615 0 0.06 0.615 0 0.08 0.615 0 0.1 0.615 0 0 0.62 0 0.02 0.62 0 0.04 0.62 0 0.06 0.62 0 0.08 0.62 0 0.1 0.62 0 0 0.625 0 0.02 0.625 0 0.04 0.625 0 0.06 0.625 0 0.08 0.625 0 0.1 0.625 0 0 0.63 0 0.02 0.63 0 0.04 0.63 0 0.06 0.63 0 0.08 0.63 0 0.1 0.63 0 0 0.635 0 0.02 0.635 0 0.04 0.635 0 0.06 0.635 0 0.08 0.635 0 0.1 0.635 0 0 0.64 0 0.02 0.64 0 0.04 0.64 0 0.06 0.64 0 0.08 0.64 0 0.1 0.64 0 0 0.645 0 0.02 0.645 0 0.04 0.645 0 0.06 0.645 0 0.08 0.645 0 0.1 0.645 0 0 0.65 0 0.02 0.65 0 0.04 0.65 0 0.06 0.65 0 0.08 0.65 0 0.1 0.65 0 0 0.655 0 0.02 0.655 0 0.04 0.655 0 0.06 0.655 0 0.08 0.655 0 0.1 0.655 0 0 0.66 0 0.02 0.66 0 0.04 0.66 0 0.06 0.66 0 0.08 0.66 0 0.1 0.66 0 0 0.665 0 0.02 0.665 0 0.04 0.665 0 0.06 0.665 0 0.08 0.665 0 0.1 0.665 0 0 0.67 0 0.02 0.67 0 0.04 0.67 0 0.06 0.67 0 0.08 0.67 0 0.1 0.67 0 0 0.675 0 0.02 0.675 0 0.04 0.675 0 0.06 0.675 0 0.08 0.675 0 0.1 0.675 0 0 0.68 0 0.02 0.68 0 0.04 0.68 0 0.06 0.68 0 0.08 0.68 0 0.1 0.68 0 0 0.685 0 0.02 0.685 0 0.04 0.685 0 0.06 0.685 0 0.08 0.685 0 0.1 0.685 0 0 0.69 0 0.02 0.69 0 0.04 0.69 0 0.06 0.69 0 0.08 0.69 0 0.1 
[...]
			<PointData Scalars="VitesseX">
				<DataArray Name="VitesseX" type="Float32" format="ascii">
 0 1.13946e-14 -9.04702e-15 5.22768e-14 2.9276e-14 0 0 1.16196e-14 -4.18885e-15 4.99505e-14 2.90711e-14 0 0 2.62745e-15 2.03558e-14 3.2997e-14 3.73e-14 0 0 9.3822e-15 2.8167e-14 3.25416e-14 3.03644e-14 0 0 3.83129e-15 5.60579e-14 1.97364e-14 2.43927e-14 0 0 5.82101e-15 6.673e-14 2.97314e-14 5.53311e-15 0 0 3.12169e-14 5.50538e-14 4.64105e-14 -1.77294e-14 0 0 4.04125e-14 6.56022e-14 3.4793e-14 -1.78091e-14 0 0 6.67767e-14 4.14635e-14 5.73223e-14 -2.55458e-14 0 0 6.65423e-14 5.30224e-14 4.56118e-14 -6.73679e-15 0 0 4.87183e-14 7.62977e-14 1.5418e-14 2.72629e-14 0 0 2.59875e-14 1.16197e-13 -3.25735e-14 6.11865e-14 0 0 5.40449e-14 6.66675e-14 3.15598e-14 2.05385e-14 0 0 8.77968e-14 3.68486e-15 1.09356e-13 -1.61229e-14 0 0 7.67899e-14 2.71388e-14 7.7521e-14 9.04361e-15 0 0 6.62372e-14 4.76349e-14 5.35854e-14 1.10571e-14 0 0 4.33117e-14 5.83785e-14 6.5672e-14 -2.04622e-14 0 0 4.1233e-14 8.22015e-15 1.45888e-13 -6.84429e-14 0 0 2.94291e-14 3.48633e-15 1.37482e-13 4.5593e-15 0 0 -7.26808e-15 6.74875e-14 3.80804e-14 1.13582e-13 0 0 -1.8527e-14 8.5014e-14 -1.55568e-14 1.54259e-13 0 0 -3.38572e-14 1.1439e-13 -4.59702e-14 1.5954e-13 0 0 1.78291e-15 4.4658e-14 8.42075e-14 3.68836e-14 0 0 -1.18307e-14 5.91727e-14 1.02325e-13 -5.59384e-16 0 0 5.48606e-15 4.51724e-14 1.06137e-13 -1.27485e-14 0 0 7.55272e-14 -4.21584e-14 1.82188e-13 -7.41535e-14 0 0 3.31578e-14 4.64559e-14 1.07673e-13 -4.46102e-14 0 0 -1.90766e-14 1.37695e-13 8.65399e-15 2.86424e-14 0 0 -1.69946e-14 1.56611e-13 -5.69109e-14 9.42535e-14 0 0 5.12846e-14 4.59371e-14 6.06092e-14 -1.64941e-14 0 0 5.19172e-14 7.16564e-14 -2.50411e-14 -5.26189e-15 0 0 5.60032e-14 6.41402e-14 -6.35335e-14 -8.9242e-15 0 0 1.10396e-13 -7.53869e-14 1.02818e-13 -1.52006e-13 0 0 8.95189e-14 -4.8614e-14 4.50528e-14 -1.06253e-13 0 0 7.24153e-14 3.46839e-15 -3.72864e-14 -9.0717e-15 0 0 1.0143e-13 -1.69422e-14 -2.34887e-14 2.94788e-14 0 0 1.31882e-13 -7.5352e-14 6.60289e-14 -2.97298e-14 0 0 1.58131e-13 -1.35801e-13 1.32574e-13 -6.85631e-14 0 0 6.54718e-14 -1.37269e-14 3.54174e-14 -9.32414e-15 0 0 -2.86475e-14 1.3838e-13 -6.85591e-14 1.21072e-14 0 0 1.9703e-14 1.15811e-13 -1.30467e-14 -7.56875e-14 0 0 9.48622e-14 7.84113e-14 3.10869e-14 -1.36988e-13 0 0 9.91519e-14 1.64307e-13 -1.09999e-13 -1.32513e-14 0 0 1.04059e-13 2.12169e-13 -1.622e-13 1.0105e-14 0 0 2.10621e-13 2.25975e-14 7.92138e-14 -1.8626e-13 0 0 2.80448e-13 -1.41348e-13 2.64308e-13 -3.12337e-13 0 0 2.80491e-13 -1.64614e-13 3.17416e-13 -3.83167e-13 0 0 1.60846e-13 2.70119e-14 1.34289e-13 -2.80124e-13 0 0 1.57671e-13 4.56934e-14 3.72954e-14 -1.57782e-13 0 0 2.74601e-13 -1.41415e-13 8.86839e-14 -9.94934e-14 0 0 2.37175e-13 -1.37235e-13 3.09165e-14 -2.56692e-14 0 0 1.4109e-13 1.13096e-14 -1.17918e-13 6.60112e-14 0 0 -2.06285e-14 3.03532e-13 -3.90585e-13 2.42825e-13 0 0 -2.11665e-14 2.31103e-13 -2.39823e-13 1.63061e-13 0 0 1.74153e-13 -1.46109e-13 1.77186e-13 -8.35378e-14 0 0 2.19781e-13 -1.48106e-13 2.04048e-13 -1.841e-13 0 0 6.2433e-14 2.06983e-13 -1.05499e-13 -1.06073e-13 0 0 1.83769e-13 1.67157e-13 -7.51904e-14 -8.95395e-14 0 0 2.84596e-13 4.73335e-14 7.28701e-14 -9.47586e-14 0 0 2.76889e-13 9.01446e-14 2.76995e-14 -5.95203e-14 0 0 3.57978e-13 7.39572e-14 3.75798e-14 -1.00155e-13 0 0 2.96795e-13 1.86175e-13 5.9169e-14 -1.52505e-13 0 0 3.11766e-13 2.86043e-13 1.75231e-14 -1.41e-13 0 0 3.49728e-13 2.94434e-13 -5.16808e-14 -3.55651e-15 0 0 3.36512e-13 1.70766e-13 4.57596e-14 7.92984e-14 0 0 3.69932e-13 -1.22595e-14 2.69398e-13 -3.35944e-15 0 0 3.93538e-13 -7.79885e-14 3.75056e-13 -1.14209e-14 0 0 9.05183e-14 3.15589e-13 1.07021e-13 2.19726e-13 0 0 -2.2281e-13 6.29162e-13 -1.75291e-14 3.21928e-13 0 0 -2.48806e-13 4.79851e-13 2.79879e-13 2.19853e-13 0 0 -3.90142e-13 4.61405e-13 4.1258e-13 2.05596e-13 0 0 -4.78746e-13 4.00354e-13 6.15068e-13 1.88145e-14 0 0 -3.48241e-13 3.1843e-13 5.66361e-13 5.55771e-14 0 0 -1.10848e-13 2.733e-13 3.77885e-13 2.26437e-13 0 0 -1.43185e-13 3.76294e-13 4.2464e-13 1.64975e-13 0 0 -3.62373e-13 5.87974e-13 2.98259e-13 3.28964e-13 0 0 -2.85356e-13 4.95182e-13 2.5476e-13 5.02808e-13 0 0 -5.11519e-14 1.6447e-13 6.07376e-13 2.62292e-13 0 0 -1.44525e-13 3.36963e-13 5.94457e-13 7.65166e-14 0 0 -3.43748e-13 8.67349e-13 1.563e-13 1.49992e-13 0 0 -1.52666e-14 6.30697e-13 2.3102e-13 7.0975e-15 0 0 4.55535e-13 1.76553e-13 4.54982e-13 -2.26078e-13 0 0 4.49972e-13 2.20166e-13 3.85351e-13 -2.04521e-13 0 0 3.59465e-13 2.68141e-13 3.386e-13 -1.66839e-13 0 0 3.42293e-13 2.45703e-13 1.59987e-13 1.06441e-13 0 0 2.52604e-13 2.14122e-13 2.15443e-13 8.50225e-14 0 0 2.44163e-13 -2.17577e-14 6.62304e-13 -2.18912e-13 0 0 2.47038e-13 -1.80057e-13 1.0066e-12 -6.19999e-13 0 0 2.31615e-14 8.73206e-14 8.08267e-13 -5.24394e-13 0 0 -2.46395e-13 6.58765e-13 2.63622e-13 -2.70175e-13 0 0 -1.69574e-13 7.29998e-13 -9.10334e-14 1.69719e-14 0 0 2.24479e-13 4.49561e-13 -1.24785e-13 2.35282e-13 0 0 8.28325e-13 -1.12074e-13 -7.54201e-14 3.96906e-13 0 0 1.06904e-12 -4.53805e-13 5.40314e-14 4.45223e-13 0 0 9.81265e-13 -4.12274e-13 1.37045e-13 3.50325e-13 0 0 7.25387e-13 -1.3485e-13 4.55147e-14 3.15795e-13 0 0 3.56596e-13 3.21423e-13 -1.60697e-13 3.65638e-13 0 0 -1.1319e-13 6.80954e-13 -1.75765e-13 3.37917e-13 0 0 -2.44087e-13 7.65594e-13 4.03395e-14 7.10954e-14 0 0 -1.784e-13 7.75255e-13 1.24903e-13 -7.69592e-14 0 0 -4.32191e-14 7.71194e-13 5.34081e-14 1.02414e-14 0 0 1.96648e-13 6.15523e-13 -1.21162e-13 3.49582e-13 0 0 4.59218e-13 2.5478e-13 -4.29635e-14 4.98607e-13 0 0 4.68951e-13 9.66827e-14 2.16883e-13 4.13537e-13 0 0 3.22493e-13 2.01307e-13 3.90365e-13 2.4114e-13 0 0 4.20053e-14 5.05383e-13 4.43928e-13 -5.69613e-14 0 0 -1.17652e-13 7.53358e-13 4.66533e-13 -3.12298e-13 0 0 -1.25026e-13 8.16861e-13 4.38505e-13 -4.09208e-13 0 0 -3.16393e-14 7.6108e-13 4.39406e-13 -4.35365e-13 0 0 1.46517e-13 6.81355e-13 3.36954e-13 -3.15861e-13 0 0 2.67425e-13 6.07824e-13 2.32913e-13 -1.46585e-13 0 0 3.48946e-13 5.20566e-13 2.02833e-13 1.6008e-14 0 0 4.08812e-13 4.051e-13 2.44935e-13 1.04702e-13 0 0 3.81505e-13 3.94058e-13 2.8827e-13 1.15673e-13 0 0 2.51312e-13 4.44442e-13 3.21033e-13 1.01896e-13 0 0 8.80506e-14 5.07757e-13 2.9319e-13 1.5696e-13 0 0 -1.59977e-14 5.92698e-13 1.84027e-13 2.60031e-13 0 0 -6.77121e-14 5.92096e-13 1.88478e-13 2.24886e-13 0 0 -4.37305e-14 5.30133e-13 1.98502e-13 2.38071e-13 0 0 3.7115e-14 4.12546e-13 1.98841e-13 2.77347e-13 0 0 7.99986e-14 3.0502e-13 2.9055e-13 2.14725e-13 0 0 7.63297e-14 2.97349e-13 2.98854e-13 1.94689e-13 0 0 5.30737e-14 3.1127e-13 2.50916e-13 2.40908e-13 0 0 4.37595e-14 2.63805e-13 2.96888e-13 2.35863e-13 0 0 3.55559e-14 1.61074e-13 3.83523e-13 2.31623e-13 0 0 -6.28595e-16 1.16515e-13 3.85874e-13 2.62009e-13 0 0 -1.32811e-14 1.2679e-13 3.29899e-13 3.32762e-13 0 0 1.26967e-14 1.34339e-13 3.12236e-13 3.03092e-13 0 0 8.32057e-14 9.97393e-14 3.78991e-13 1.78619e-13 0 0 1.42067e-13 1.23429e-13 3.6974e-13 1.20226e-13 0 0 2.12667e-13 1.83988e-13 3.16428e-13 9.64951e-14 0 0 2.79664e-13 2.40522e-13 2.56058e-13 7.59439e-14 0 0 2.8474e-13 3.12759e-13 1.83156e-13 1.56714e-13 0 0 3.13381e-13 3.08862e-13 2.24343e-13 1.95343e-13 0 0 3.23032e-13 3.29631e-13 2.57343e-13 2.13091e-13 0 0 3.07783e-13 3.62705e-13 2.60189e-13 2.08428e-13 0 0 2.91436e-13 3.74864e-13 2.62491e-13 1.95427e-13 0 0 2.76524e-13 3.97939e-13 2.04389e-13 2.59472e-13 0 0 2.68413e-13 3.45502e-13 2.78612e-13 2.23445e-13 0 0 2.31317e-13 2.93877e-13 4.30004e-13 2.35241e-13 0 0 2.55653e-13 2.98938e-13 4.20644e-13 3.4701e-13 0 0 3.05527e-13 3.5003e-13 3.19803e-13 3.82118e-13 0 0 3.5009e-13 3.38828e-13 3.60384e-13 3.79621e-13 0 0 3.46942e-13 3.3043e-13 4.89941e-13 3.77034e-13 0 0 2.94864e-13 4.01862e-13 5.811e-13 3.07514e-13 0 0 3.22821e-13 3.94488e-13 6.10154e-13 3.38741e-13 0 0 3.08269e-13 4.71298e-13 4.8489e-13 4.40892e-13 0 0 3.42769e-13 4.30529e-13 5.66809e-13 3.66788e-13 0 0 3.94772e-13 3.6e-13 6.43488e-13 4.09091e-13 0 0 3.30442e-13 5.01071e-13 5.30259e-13 4.83792e-13 0 0 3.52598e-13 4.93965e-13 5.93591e-13 3.61651e-13 0 0 4.0769e-13 4.18407e-13 6.71627e-13 3.73756e-13 0 0 3.94775e-13 4.75532e-13 6.41419e-13 4.46866e-13 0 0 3.93256e-13 5.31149e-13 5.90788e-13 5.16168e-13 0 0 4.14941e-13 5.14349e-13 6.286e-13 5.80397e-13 0 0 3.99627e-13 5.80798e-13 6.22973e-13 5.57181e-13 0 0 3.38686e-13 7.40594e-13 5.30064e-13 5.49802e-13 0 0 3.68039e-13 7.16988e-13 5.93306e-13 4.93964e-13 0 0 4.19684e-13 6.48243e-13 6.21989e-13 4.33627e-13 0 0 5.46783e-13 4.95481e-13 7.58124e-13 3.31024e-13 0 0 5.47036e-13 5.37844e-13 6.79429e-13 3.36954e-13 0 0 4.90259e-13 6.39911e-13 4.99349e-13 3.55583e-13 0 0 5.50876e-13 5.57419e-13 4.87177e-13 4.25862e-13 0 0 5.36305e-13 6.28027e-13 3.63706e-13 4.99168e-13 0 0 6.40611e-13 4.97949e-13 4.68499e-13 3.37384e-13 0 0 7.62013e-13 3.84637e-13 4.68777e-13 3.06382e-13 0 0 6.6236e-13 4.54978e-13 4.72672e-13 2.60888e-13 0 0 4.33098e-13 6.7461e-13 4.39182e-13 1.04686e-13 0 0 2.38933e-13 9.80886e-13 4.6564e-14 3.2242e-13 0 0 4.95935e-13 6.0108e-13 2.09341e-13 3.92563e-13 0 0 6.52784e-13 4.00153e-13 3.83087e-13 2.60907e-13 0 0 5.39175e-13 5.95233e-13 3.20626e-13 1.66731e-13 0 0 5.96996e-13 5.11641e-13 6.13703e-13 -1.33443e-13 0 0 4.14479e-13 7.23869e-13 6.75189e-13 -2.11013e-13 0 0 4.14853e-13 7.1164e-13 7.20468e-13 -6.99901e-14 0 0 5.53165e-13 7.09159e-13 4.99628e-13 2.43567e-13 0 0 6.08648e-13 7.61751e-13 3.9916e-13 2.39882e-13 0 0 7.47654e-13 4.85781e-13 5.98229e-13 1.46758e-13 0 0 7.58844e-13 3.50354e-13 5.63245e-13 3.28364e-13 0 0 5.26936e-13 5.45947e-13 5.05033e-13 2.40679e-13 0 0 5.55224e-13 3.50215e-13 7.68975e-13 -3.08233e-14 0 0 6.34659e-13 1.42416e-13 6.81171e-13 2.45248e-13 0 0 6.12216e-13 1.35288e-13 5.86796e-13 4.0405e-13 0 0 5.99465e-13 2.0441e-13 5.55772e-13 3.65081e-13 0 0 3.61135e-13 5.39354e-13 3.08653e-13 3.99008e-13 0 0 3.72031e-13 4.56442e-13 5.19326e-13 1.49325e-13 0 0 4.27029e-13 3.64918e-13 6.00809e-13 1.55938e-13 0 0 4.63091e-13 2.95304e-13 6.63635e-13 2.00517e-13 0 0 3.19295e-13 4.754e-13 6.3352e-13 2.07029e-13 0 0 1.11441e-13 8.66911e-13 4.33781e-13 2.66224e-13 0 0 2.68139e-13 7.46956e-13 4.81222e-13 3.14327e-13 0 0 6.35453e-13 2.3235e-13 9.5596e-13 7.63866e-14 0 0 6.85747e-13 3.10593e-13 8.51644e-13 5.096e-14 0 0 5.19128e-13 4.97021e-13 7.12713e-13 6.50912e-14 0 0 2.02925e-13 7.17452e-13 7.46879e-13 1.13643e-14 0 0 9.26192e-14 7.72075e-13 6.65797e-13 1.25243e-13 0 0 2.2185e-13 5.108e-13 9.54348e-13 -1.64721e-13 0 0 5.60536e-14 8.18455e-13 6.76342e-13 -1.24995e-13 0 0 2.01537e-13 6.9571e-13 4.18734e-13 2.5908e-13 0 0 5.01608e-13 9.0659e-14 1.03249e-12 -3.64624e-14 0 0 5.62938e-13 -1.24489e-13 1.49421e-12 -4.30644e-13 0
				</DataArray>
				<DataArray Name="VitesseY" type="Float32" format="ascii">