<?xml version="1.0"?>
<VTKFile type="PolyData">
	<PolyData>
		<Piece NumberOfPoints="1206" NumberOfPolys="1000">
			<Points>
				<DataArray type="Float32" NumberOfComponents="3" format="ascii">
 0 0 0 0.02 0 0 0.04 0 0 0.06 0 0 0.08 0 0 0.1 0 0 0 0.005 0 0.02 0.005 0 0.04 0.005 0 0.06 0.005 0 0.08 0.005 0 0.1 0.005 0 0 0.01 0 0.02 0.01 0 0.04 0.01 0 0.06 0.01 0 0.08 0.01 0 0.1 0.01 0 0 0.015 0 0.02 0.015 0 0.04 0.015 0 0.06 0.015 0 0.08 0.015 0 0.1 0.015 0 0 0.02 0 0.02 0.02 0 0.04 0.02 0 0.06 0.02 0 0.08 0.02 0 0.1 0.02 0 0 0.025 0 0.02 0.025 0 0.04 0.025 0 0.06 0.025 0 0.08 0.025 0 0.1 0.025 0 0 0.03 0 0.02 0.03 0 0.04 0.03 0 0.06 0.03 0 0.08 0.03 0 0.1 0.03 0 0 0.035 0 0.02 0.035 0 0.04 0.035 0 0.06 0.035 0 0.08 0.035 0 0.1 0.035 0 0 0.04 0 0.02 0.04 0 0.04 0.04 0 0.06 0.04 0 0.08 0.04 0 0.1 0.04 0 0 0.045 0 0.02 0.045 0 0.04 0.045 0 0.06 0.045 0 0.08 0.045 0 0.1 0.045 0 0 0.05 0 0.02 0.05 0 0.04 0.05 0 0.06 0.05 0 0.08 0.05 0 0.1 0.05 0 0 0.055 0 0.02 0.055 0 0.04 0.055 0 0.06 0.055 0 0.08 0.055 0 0.1 0.055 0 0 0.06 0 0.02 0.06 0 0.04 0.06 0 0.06 0.06 0 0.08 0.06 0 0.1 0.06 0 0 0.065 0 0.02 0.065 0 0.04 0.065 0 0.06 0.065 0 0.08 0.065 0 0.1 0.065 0 0 0.07 0 0.02 0.07 0 0.04 0.07 0 0.06 0.07 0 0.08 0.07 0 0.1 0.07 0 0 0.075 0 0.02 0.075 0 0.04 0.075 0 0.06 0.075 0 0.08 0.075 0 0.1 0.075 0 0 0.08 0 0.02 0.08 0 0.04 0.08 0 0.06 0.08 0 0.08 0.08 0 0.1 0.08 0 0 0.085 0 0.02 0.085 0 0.04 0.085 0 0.06 0.085 0 0.08 0.085 0 0.1 0.085 0 0 0.09 0 0.02 0.09 0 0.04 0.09 0 0.06 0.09 0 0.08 0.09 0 0.1 0.09 0 0 0.095 0 0.02 0.095 0 0.04 0.095 0 0.06 0.095 0 0.08 0.095 0 0.1 0.095 0 0 0.1 0 0.02 0.1 0 0.04 0.1 0 0.06 0.1 0 0.08 0.1 0 0.1 0.1 0 0 0.105 0 0.02 0.105 0 0.04 0.105 0 0.06 0.105 0 0.08 0.105 0 0.1 0.105 0 0 0.11 0 0.02 0.11 0 0.04 0.11 0 0.06 0.11 0 0.08 0.11 0 0.1 0.11 0 0 0.115 0 0.02 0.115 0 0.04 0.115 0 0.06 0.115 0 0.08 0.115 0 0.1 0.115 0 0 0.12 0 0.02 0.12 0 0.04 0.12 0 0.06 0.12 0 0.08 0.12 0 0.1 0.12 0 0 0.125 0 0.02 0.125 0 0.04 0.125 0 0.06 0.125 0 0.08 0.125 0 0.1 0.125 0 0 0.13 0 0.02 0.13 0 0.04 0.13 0 0.06 0.13 0 0.08 0.13 0 0.1 0.13 0 0 0.135 0 0.02 0.135 0 0.04 0.135 0 0.06 0.135 0 0.08 0.135 0 0.1 0.135 0 0 0.14 0 0.02 0.14 0 0.04 0.14 0 0.06 0.14 0 0.08 0.14 0 0.1 0.14 0 0 0.145 0 0.02 0.145 0 0.04 0.145 0 0.06 0.145 0 0.08 0.145 0 0.1 0.145 0 0 0.15 0 0.02 0.15 0 0.04 0.15 0 0.06 0.15 0 0.08 0.15 0 0.1 0.15 0 0 0.155 0 0.02 0.155 0 0.04 0.155 0 0.06 0.155 0 0.08 0.155 0 0.1 0.155 0 0 0.16 0 0.02 0.16 0 0.04 0.16 0 0.06 0.16 0 0.08 0.16 0 0.1 0.16 0 0 0.165 0 0.02 0.165 0 0.04 0.165 0 0.06 0.165 0 0.08 0.165 0 0.1 0.165 0 0 0.17 0 0.02 0.17 0 0.04 0.17 0 0.06 0.17 0 0.08 0.17 0 0.1 0.17 0 0 0.175 0 0.02 0.175 0 0.04 0.175 0 0.06 0.175 0 0.08 0.175 0 0.1 0.175 0 0 0.18 0 0.02 0.18 0 0.04 0.18 0 0.06 0.18 0 0.08 0.18 0 0.1 0.18 0 0 0.185 0 0.02 0.185 0 0.04 0.185 0 0.06 0.185 0 0.08 0.185 0 0.1 0.185 0 0 0.19 0 0.02 0.19 0 0.04 0.19 0 0.06 0.19 0 0.08 0.19 0 0.1 0.19 0 0 0.195 0 0.02 0.195 0 0.04 0.195 0 0.06 0.195 0 0.08 0.195 0 0.1 0.195 0 0 0.2 0 0.02 0.2 0 0.04 0.2 0 0.06 0.2 0 0.08 0.2 0 0.1 0.2 0 0 0.205 0 0.02 0.205 0 0.04 0.205 0 0.06 0.205 0 0.08 0.205 0 0.1 0.205 0 0 0.21 0 0.02 0.21 0 0.04 0.21 0 0.06 0.21 0 0.08 0.21 0 0.1 0.21 0 0 0.215 0 0.02 0.215 0 0.04 0.215 0 0.06 0.215 0 0.08 0.215 0 0.1 0.215 0 0 0.22 0 0.02 0.22 0 0.04 0.22 0 0.06 0.22 0 0.08 0.22 0 0.1 0.22 0 0 0.225 0 0.02 0.225 0 0.04 0.225 0 0.06 0.225 0 0.08 0.225 0 0.1 0.225 0 0 0.23 0 0.02 0.23 0 0.04 0.23 0 0.06 0.23 0 0.08 0.23 0 0.1 0.23 0 0 0.235 0 0.02 0.235 0 0.04 0.235 0 0.06 0.235 0 0.08 0.235 0 0.1 0.235 0 0 0.24 0 0.02 0.24 0 0.04 0.24 0 0.06 0.24 0 0.08 0.24 0 0.1 0.24 0 0 0.245 0 0.02 0.245 0 0.04 0.245 0 0.06 0.245 0 0.08 0.245 0 0.1 0.245 0 0 0.25 0 0.02 0.25 0 0.04 0.25 0 0.06 0.25 0 0.08 0.25 0 0.1 0.25 0 0 0.255 0 0.02 0.255 0 0.04 0.255 0 0.06 0.255 0 0.08 0.255 0 0.1 0.255 0 0 0.26 0 0.02 0.26 0 0.04 0.26 0 0.06 0.26 0 0.08 0.26 0 0.1 0.26 0 0 0.265 0 0.02 0.265 0 0.04 0.265 0 0.06 0.265 0 0.08 0.265 0 0.1 0.265 0 0 0.27 0 0.02 0.27 0 0.04 0.27 0 0.06 0.27 0 0.08 0.27 0 0.1 0.27 0 0 0.275 0 0.02 0.275 0 0.04 0.275 0 0.06 0.275 0 0.08 0.275 0 0.1 0.275 0 0 0.28 0 0.02 0.28 0 0.04 0.28 0 0.06 0.28 0 0.08 0.28 0 0.1 0.28 0 0 0.285 0 0.02 0.285 0 0.04 0.285 0 0.06 0.285 0 0.08 0.285 0 0.1 0.285 0 0 0.29 0 0.02 0.29 0 0.04 0.29 0 0.06 0.29 0 0.08 0.29 0 0.1 0.29 0 0 0.295 0 0.02 0.295 0 0.04 0.295 0 0.06 0.295 0 0.08 0.295 0 0.1 0.295 0 0 0.3 0 0.02 0.3 0 0.04 0.3 0 0.06 0.3 0 0.08 0.3 0 0.1 0.3 0 0 0.305 0 0.02 0.305 0 0.04 0.305 0 0.06 0.305 0 0.08 0.305 0 0.1 0.305 0 0 0.31 0 0.02 0.31 0 0.04 0.31 0 0.06 0.31 0 0.08 0.31 0 0.1 0.31 0 0 0.315 0 0.02 0.315 0 0.04 0.315 0 0.06 0.315 0 0.08 0.315 0 0.1 0.315 0 0 0.32 0 0.02 0.32 0 0.04 0.32 0 0.06 0.32 0 0.08 0.32 0 0.1 0.32 0 0 0.325 0 0.02 0.325 0 0.04 0.325 0 0.06 0.325 0 0.08 0.325 0 0.1 0.325 0 0 0.33 0 0.02 0.33 0 0.04 0.33 0 0.06 0.33 0 0.08 0.33 0 0.1 0.33 0 0 0.335 0 0.02 0.335 0 0.04 0.335 0 0.06 0.335 0 0.08 0.335 0 0.1 0.335 0 0 0.34 0 0.02 0.34 0 0.04 0.34 0 0.06 0.34 0 0.08 0.34 0 0.1 0.34 0 0 0.345 0 0.02 0.345 0 0.04 0.345 0 0.06 0.345 0 0.08 0.345 0 0.1 0.345 0 0 0.35 0 0.02 0.35 0 0.04 0.35 0 0.06 0.35 0 0.08 0.35 0 0.1 0.35 0 0 0.355 0 0.02 0.355 0 0.04 0.355 0 0.06 0.355 0 0.08 0.355 0 0.1 0.355 0 0 0.36 0 0.02 0.36 0 0.04 0.36 0 0.06 0.36 0 0.08 0.36 0 0.1 0.36 0 0 0.365 0 0.02 0.365 0 0.04 0.365 0 0.06 0.365 0 0.08 0.365 0 0.1 0.365 0 0 0.37 0 0.02 0.37 0 0.04 0.37 0 0.06 0.37 0 0.08 0.37 0 0.1 0.37 0 0 0.375 0 0.02 0.375 0 0.04 0.375 0 0.06 0.375 0 0.08 0.375 0 0.1 0.375 0 0 0.38 0 0.02 0.38 0 0.04 0.38 0 0.06 0.38 0 0.08 0.38 0 0.1 0.38 0 0 0.385 0 0.02 0.385 0 0.04 0.385 0 0.06 0.385 0 0.08 0.385 0 0.1 0.385 0 0 0.39 0 0.02 0.39 0 0.04 0.39 0 0.06 0.39 0 0.08 0.39 0 0.1 0.39 0 0 0.395 0 0.02 0.395 0 0.04 0.395 0 0.06 0.395 0 0.08 0.395 0 0.1 0.395 0 0 0.4 0 0.02 0.4 0 0.04 0.4 0 0.06 0.4 0 0.08 0.4 0 0.1 0.4 0 0 0.405 0 0.02 0.405 0 0.04 0.405 0 0.06 0.405 0 0.08 0.405 0 0.1 0.405 0 0 0.41 0 0.02 0.41 0 0.04 0.41 0 0.06 0.41 0 0.08 0.41 0 0.1 0.41 0 0 0.415 0 0.02 0.415 0 0.04 0.415 0 0.06 0.415 0 0.08 0.415 0 0.1 0.415 0 0 0.42 0 0.02 0.42 0 0.04 0.42 0 0.06 0.42 0 0.08 0.42 0 0.1 0.42 0 0 0.425 0 0.02 0.425 0 0.04 0.425 0 0.06 0.425 0 0.08 0.425 0 0.1 0.425 0 0 0.43 0 0.02 0.43 0 0.04 0.43 0 0.06 0.43 0 0.08 0.43 0 0.1 0.43 0 0 0.435 0 0.02 0.435 0 0.04 0.435 0 0.06 0.435 0 0.08 0.435 0 0.1 0.435 0 0 0.44 0 0.02 0.44 0 0.04 0.44 0 0.06 0.44 0 0.08 0.44 0 0.1 0.44 0 0 0.445 0 0.02 0.445 0 0.04 0.445 0 0.06 0.445 0 0.08 0.445 0 0.1 0.445 0 0 0.45 0 0.02 0.45 0 0.04 0.45 0 0.06 0.45 0 0.08 0.45 0 0.1 0.45 0 0 0.455 0 0.02 0.455 0 0.04 0.455 0 0.06 0.455 0 0.08 0.455 0 0.1 0.455 0 0 0.46 0 0.02 0.46 0 0.04 0.46 0 0.06 0.46 0 0.08 0.46 0 0.1 0.46 0 0 0.465 0 0.02 0.465 0 0.04 0.465 0 0.06 0.465 0 0.08 0.465 0 0.1 0.465 0 0 0.47 0 0.02 0.47 0 0.04 0.47 0 0.06 0.47 0 0.08 0.47 0 0.1 0.47 0 0 0.475 0 0.02 0.475 0 0.04 0.475 0 0.06 0.475 0 0.08 0.475 0 0.1 0.475 0 0 0.48 0 0.02 0.48 0 0.04 0.48 0 0.06 0.48 0 0.08 0.48 0 0.1 0.48 0 0 0.485 0 0.02 0.485 0 0.04 0.485 0 0.06 0.485 0 0.08 0.485 0 0.1 0.485 0 0 0.49 0 0.02 0.49 0 0.04 0.49 0 0.06 0.49 0 0.08 0.49 0 0.1 0.49 0 0 0.495 0 0.02 0.495 0 0.04 0.495 0 0.06 0.495 0 0.08 0.495 0 0.1 0.495 0 0 0.5 0 0.02 0.5 0 0.04 0.5 0 0.06 0.5 0 0.08 0.5 0 0.1 0.5 0 0 0.505 0 0.02 0.505 0 0.04 0.505 0 0.06 0.505 0 0.08 0.505 0 0.1 0.505 0 0 0.51 0 0.02 0.51 0 0.04 0.51 0 0.06 0.51 0 0.08 0.51 0 0.1 0.51 0 0 0.515 0 0.02 0.515 0 0.04 0.515 0 0.06 0.515 0 0.08 0.515 0 0.1 0.515 0 0 0.52 0 0.02 0.52 0 0.04 0.52 0 0.06 0.52 0 0.08 0.52 0 0.1 0.52 0 0 0.525 0 0.02 0.525 0 0.04 0.525 0 0.06 0.525 0 0.08 0.525 0 0.1 0.525 0 0 0.53 0 0.02 0.53 0 0.04 0.53 0 0.06 0.53 0 0.08 0.53 0 0.1 0.53 0 0 0.535 0 0.02 0.535 0 0.04 0.535 0 0.06 0.535 0 0.08 0.535 0 0.1 0.535 0 0 0.54 0 0.02 0.54 0 0.04 0.54 0 0.06 0.54 0 0.08 0.54 0 0.1 0.54 0 0 0.545 0 0.02 0.545 0 0.04 0.545 0 0.06 0.545 0 0.08 0.545 0 0.1 0.545 0 0 0.55 0 0.02 0.55 0 0.04 0.55 0 0.06 0.55 0 0.08 0.55 0 0.1 0.55 0 0 0.555 0 0.02 0.555 0 0.04 0.555 0 0.06 0.555 0 0.08 0.555 0 0.1 0.555 0 0 0.56 0 0.02 0.56 0 0.04 0.56 0 0.06 0.56 0 0.08 0.56 0 0.1 0.56 0 0 0.565 0 0.02 0.565 0 0.04 0.565 0 0.06 0.565 0 0.08 0.565 0 0.1 0.565 0 0 0.57 0 0.02 0.57 0 0.04 0.57 0 0.06 0.57 0 0.08 0.57 0 0.1 0.57 0 0 0.575 0 0.02 0.575 0 0.04 0.575 0 0.06 0.575 0 0.08 0.575 0 0.1 0.575 0 0 0.58 0 0.02 0.58 0 0.04 0.58 0 0.06 0.58 0 0.08 0.58 0 0.1 0.58 0 0 0.585 0 0.02 0.585 0 0.04 0.585 0 0.06 0.585 0 0.08 0.585 0 0.1 0.585 0 0 0.59 0 0.02 0.59 0 0.04 0.59 0 0.06 0.59 0 0.08 0.59 0 0.1 0.59 0 0 0.595 0 0.02 0.595 0 0.04 0.595 0 0.06 0.595 0 0.08 0.595 0 0.1 0.595 0 0 0.6 0 0.02 0.6 0 0.04 0.6 0 0.06 0.6 0 0.08 0.6 0 0.1 0.6 0 0 0.605 0 0.02 0.605 0 0.04 0.605 0 0.06 0.605 0 0.08 0.605 0 0.1 0.605 0 0 0.61 0 0.02 0.61 0 0.04 0.61 0 0.06 0.61 0 0.08 0.61 0 0.1 0.61 0 0 0.615 0 0.02 0.615 0 0.04 0.615 0 0.06 0.615 0 0.08 0.615 0 0.1 0.615 0 0 0.62 0 0.02 0.62 0 0.04 0.62 0 0.06 0.62 0 0.08 0.62 0 0.1 0.62 0 0 0.625 0 0.02 0.625 0 0.04 0.625 0 0.06 0.625 0 0.08 0.625 0 0.1 0.625 0 0 0.63 0 0.02 0.63 0 0.04 0.63 0 0.06 0.63 0 0.08 0.63 0 0.1 0.63 0 0 0.635 0 0.02 0.635 0 0.04 0.635 0 0.06 0.635 0 0.08 0.635 0 0.1 0.635 0 0 0.64 0 0.02 0.64 0 0.04 0.64 0 0.06 0.64 0 0.08 0.64 0 0.1 0.64 0 0 0.645 0 0.02 0.645 0 0.04 0.645 0 0.06 0.645 0 0.08 0.645 0 0.1 0.645 0 0 0.65 0 0.02 0.65 0 0.04 0.65 0 0.06 0.65 0 0.08 0.65 0 0.1 0.65 0 0 0.655 0 0.02 0.655 0 0.04 0.655 0 0.06 0.655 0 0.08 0.655 0 0.1 0.655 0 0 0.66 0 0.02 0.66 0 0.04 0.66 0 0.06 0.66 0 0.08 0.66 0 0.1 0.66 0 0 0.665 0 0.02 0.665 0 0.04 0.665 0 0.06 0.665 0 0.08 0.665 0 0.1 0.665 0 0 0.67 0 0.02 0.67 0 0.04 0.67 0 0.06 0.67 0 0.08 0.67 0 0.1 0.67 0 0 0.675 0 0.02 0.675 0 0.04 0.675 0 0.06 0.675 0 0.08 0.675 0 0.1 0.675 0 0 0.68 0 0.02 0.68 0 0.04 0.68 0 0.06 0.68 0 0.08 0.68 0 0.1 0.68 0 0 0.685 0 0.02 0.685 0 0.04 0.685 0 0.06 0.685 0 0.08 0.685 0 0.1 0.685 0 0 0.69 0 0.02 0.69 0 0.04 0.69 0 0.06 0.69 0 0.08 0.69 0 0.1 
[...]
			<PointData Scalars="VitesseX">
				<DataArray Name="VitesseX" type="Float32" format="ascii">
 0 5.70846e-15 -3.49435e-14 1.50779e-14 1.67076e-15 0 0 7.81915e-15 -3.62165e-14 4.48744e-15 1.38176e-14 0 0 -1.87799e-14 1.28265e-14 -7.36754e-14 7.16234e-14 0 0 8.58221e-15 -4.78627e-14 -1.9165e-15 1.27802e-14 0 0 1.24073e-14 -4.60845e-14 -1.1031e-14 1.58111e-14 0 0 -3.45315e-14 5.04841e-14 -1.28454e-13 7.68229e-14 0 0 -1.71928e-14 -3.36414e-14 1.40019e-14 -6.78874e-14 0 0 2.78953e-14 -1.79114e-13 2.15352e-13 -2.10892e-13 0 0 6.07983e-15 -1.20078e-13 1.14757e-13 -1.12194e-13 0 0 -4.88024e-14 4.50095e-14 -1.33874e-13 5.96007e-14 0 0 1.7419e-14 -5.05806e-14 -8.21093e-14 2.232e-14 0 0 -2.32157e-14 5.77727e-15 -1.98398e-13 8.43984e-14 0 0 6.25265e-14 -2.16078e-13 3.90946e-14 -1.05529e-13 0 0 1.00829e-14 -1.73105e-13 4.86611e-15 -8.08181e-14 0 0 -8.1454e-14 -7.4414e-14 -5.60836e-14 -1.61897e-14 0 0 4.1476e-14 -3.38359e-13 2.85306e-13 -2.02466e-13 0 0 -1.1539e-13 2.56275e-14 -1.5798e-13 1.33465e-13 0 0 -6.00327e-14 -6.64683e-14 -7.75075e-14 1.63618e-13 0 0 -4.80284e-14 -9.02921e-14 -7.36716e-14 2.30316e-13 0 0 -1.16079e-13 3.445e-14 -1.78631e-13 2.26195e-13 0 0 3.3561e-14 -2.89146e-13 2.82926e-13 -2.2555e-13 0 0 2.45599e-14 -2.24947e-13 2.2236e-13 -3.26877e-13 0 0 -5.56656e-14 6.95224e-14 -2.50513e-13 -2.38194e-14 0 0 -1.02253e-13 2.01215e-13 -5.25151e-13 1.95575e-13 0 0 2.01508e-14 -1.83939e-13 -3.8034e-14 -1.65922e-13 0 0 2.00347e-13 -6.10816e-13 4.85176e-13 -5.20029e-13 0 0 3.97781e-14 -1.85596e-13 -2.94686e-14 -1.30307e-13 0 0 -1.25745e-13 2.41379e-13 -5.01085e-13 2.23282e-13 0 0 -5.07128e-14 7.85222e-14 -3.2625e-13 8.0006e-14 0 0 1.03861e-13 -2.56519e-13 8.415e-14 -1.9904e-13 0 0 2.48486e-14 -1.56591e-13 4.5266e-15 -1.07901e-13 0 0 5.62398e-14 -2.61801e-13 9.03005e-14 -2.03042e-13 0 0 5.25848e-14 -2.01584e-13 -2.38462e-14 -1.6388e-13 0 0 -1.92286e-13 2.9363e-13 -6.43237e-13 3.22163e-13 0 0 4.20074e-14 -1.43447e-13 -9.90446e-14 -3.55127e-14 0 0 1.1824e-13 -4.0297e-13 2.72823e-13 -2.84638e-13 0 0 1.24838e-13 -3.56372e-13 7.76551e-14 6.10826e-14 0 0 -6.53375e-14 1.21685e-13 -5.65838e-13 6.45895e-13 0 0 -8.24915e-14 7.54411e-14 -5.67462e-13 7.16165e-13 0 0 8.40544e-14 -2.99097e-13 -1.3392e-13 3.72129e-13 0 0 7.79122e-14 -2.79162e-13 -1.45556e-14 1.04891e-13 0 0 1.12681e-13 -3.60882e-13 1.50953e-13 -1.6224e-13 0 0 -9.45192e-14 -1.01267e-14 -1.2312e-13 -1.40973e-13 0 0 -3.93161e-15 -1.5768e-13 6.25154e-14 -3.0707e-13 0 0 2.81838e-13 -5.98939e-13 3.24352e-13 -3.49076e-13 0 0 2.4348e-14 -1.18134e-13 -3.55847e-13 2.28303e-13 0 0 3.13275e-14 -6.31858e-14 -5.56974e-13 4.40454e-13 0 0 1.85032e-15 -4.52666e-14 -5.14267e-13 3.32819e-13 0 0 -6.86891e-14 -3.88282e-14 -4.31487e-13 1.78638e-13 0 0 2.18397e-13 -6.39516e-13 2.18403e-13 -2.41097e-13 0 0 1.74972e-13 -7.52226e-13 4.15744e-13 -3.45429e-13 0 0 2.56426e-13 -7.5077e-13 1.44888e-13 5.50574e-14 0 0 -3.11945e-13 1.71244e-13 -7.8311e-13 7.73518e-13 0 0 -1.20113e-13 -9.5546e-14 -4.60212e-13 5.35271e-13 0 0 2.59658e-13 -8.59443e-13 3.6468e-13 -2.90973e-14 0 0 -2.61297e-13 -3.09493e-13 -4.46027e-15 1.17605e-13 0 0 1.99467e-13 -6.10351e-13 1.24344e-13 -9.56835e-14 0 0 1.96705e-14 -2.58111e-13 -1.17093e-13 -4.92297e-14 0 0 9.72671e-14 -3.71789e-13 8.28209e-14 -1.86331e-13 0 0 4.25963e-13 -8.09222e-13 4.4246e-13 -3.11522e-13 0 0 -1.38598e-13 -1.43827e-13 -1.55647e-13 2.25859e-13 0 0 -2.49317e-13 4.08764e-14 -4.16313e-13 4.75437e-13 0 0 -1.89489e-13 -1.24764e-13 -1.57001e-13 2.87646e-13 0 0 1.27311e-13 -6.8405e-13 6.74968e-13 -5.05648e-13 0 0 9.08636e-14 -6.59305e-13 6.98796e-13 -5.85296e-13 0 0 -2.27048e-13 -6.61761e-14 -8.55905e-14 9.54896e-14 0 0 -2.12774e-13 4.38865e-14 -4.21363e-13 4.29102e-13 0 0 -1.0497e-13 -1.77238e-13 -2.36102e-13 3.23646e-13 0 0 2.83565e-13 -7.08549e-13 4.1902e-13 -3.1695e-13 0 0 2.43877e-13 -5.5629e-13 5.66245e-14 6.7674e-16 0 0 -5.02637e-13 4.20267e-13 -9.35901e-13 7.23036e-13 0 0 -1.6542e-14 -3.087e-13 -1.76009e-13 2.0333e-13 0 0 3.09096e-13 -9.4057e-13 4.24745e-13 9.86692e-16 0 0 2.29602e-13 -1.02028e-12 5.76793e-13 1.75092e-13 0 0 -1.22675e-13 -3.44196e-13 -2.24146e-13 9.47059e-13 0 0 -4.51265e-13 2.01326e-13 -9.79897e-13 1.53698e-12 0 0 1.67752e-13 -9.69949e-13 2.83901e-13 3.68043e-13 0 0 -6.08201e-14 -9.12033e-13 5.70356e-13 -3.27566e-13 0 0 3.30112e-14 -8.01967e-13 3.84291e-13 -4.62686e-13 0 0 -2.25751e-13 -1.79586e-13 -2.52033e-13 -1.87927e-13 0 0 -2.10979e-13 -3.38195e-13 -3.16079e-13 1.3151e-13 0 0 2.02169e-13 -8.7575e-13 -2.80193e-13 8.22456e-14 0 0 -6.24429e-13 5.12756e-13 -1.47528e-12 4.03548e-13 0 0 -1.58961e-13 -1.69816e-13 -5.9607e-13 -1.93622e-13 0 0 6.09074e-13 -1.68e-12 1.04222e-12 -1.09444e-12 0 0 -2.6459e-13 -3.12626e-13 -1.68953e-13 -5.7494e-13 0 0 -5.75053e-13 6.72538e-13 -1.46445e-12 3.22347e-14 0 0 2.53224e-14 -3.63676e-13 -4.612e-13 -4.62787e-13 0 0 4.25502e-14 -5.86322e-13 1.30718e-13 -1.07449e-12 0 0 3.18948e-13 -8.36209e-13 3.26486e-13 -1.12698e-12 0 0 3.41705e-14 1.21605e-14 -6.5391e-13 -3.63425e-13 0 0 -3.6452e-13 7.34195e-13 -1.45424e-12 2.98559e-14 0 0 1.53512e-13 -5.31184e-13 -1.11504e-13 -4.93034e-13 0 0 1.34281e-13 -7.3121e-13 4.08952e-13 -1.01771e-12 0 0 4.24366e-13 -9.27859e-13 1.0845e-13 -5.34534e-13 0 0 -7.38608e-13 7.28438e-13 -1.48819e-12 5.08822e-13 0 0 3.83211e-14 -1.60463e-13 -6.46505e-13 1.78249e-14 0 0 4.30888e-13 -9.22535e-13 2.02195e-13 -3.04909e-13 0 0 -3.65588e-13 -3.41253e-13 4.61807e-13 -7.57525e-13 0 0 3.04122e-13 -8.99361e-13 4.76086e-13 -3.19343e-13 0 0 1.15205e-13 -6.24416e-13 1.12525e-15 1.3884e-13 0 0 -2.4632e-13 -1.96984e-13 -4.93816e-13 3.44534e-13 0 0 -2.83225e-13 -2.26003e-13 -4.20474e-13 1.8967e-13 0 0 -1.57639e-13 -4.40864e-13 -2.45327e-13 -1.79683e-14 0 0 1.46526e-15 -5.33708e-13 -1.39901e-13 -9.62517e-14 0 0 -4.86186e-13 2.54015e-13 -7.47933e-13 2.14218e-13 0 0 -3.45662e-13 4.85592e-14 -5.12207e-13 1.06882e-13 0 0 1.74229e-13 -8.39351e-13 4.42748e-13 -6.63491e-13 0 0 3.05208e-13 -9.80726e-13 4.99253e-13 -7.021e-13 0 0 -1.62911e-13 -3.53342e-14 -6.71429e-13 1.31725e-13 0 0 -7.02062e-13 8.97533e-13 -1.62667e-12 5.98162e-13 0 0 -1.82985e-13 -1.45606e-13 -4.97814e-13 -9.20329e-14 0 0 3.62175e-13 -1.09871e-12 6.77395e-13 -1.16289e-12 0 0 3.86406e-13 -1.00844e-12 5.51572e-13 -1.23398e-12 0 0 -2.56371e-13 1.18409e-13 -6.7441e-13 -3.54892e-13 0 0 -7.55348e-13 8.05788e-13 -1.33288e-12 1.00681e-13 0 0 -2.17125e-13 -3.43432e-13 -1.83415e-13 -3.78738e-13 0 0 4.6577e-13 -1.30204e-12 7.3207e-13 -1.05452e-12 0 0 -1.20969e-13 -2.8572e-13 -4.00116e-13 -3.52333e-13 0 0 -2.00684e-13 -2.94807e-13 -6.01179e-13 1.79586e-13 0 0 -2.59698e-13 -2.35771e-13 -6.21278e-13 1.05737e-13 0 0 -4.376e-13 -2.78396e-13 -4.64614e-13 6.05036e-14 0 0 4.60275e-13 -1.58202e-12 7.09912e-13 -7.75021e-13 0 0 -2.55687e-13 -1.7714e-13 -7.19144e-13 -1.70237e-13 0 0 -2.71257e-13 -1.81669e-13 -8.47117e-13 3.09284e-13 0 0 -1.87933e-13 -3.56974e-13 -5.25363e-13 -1.53491e-16 0 0 -5.2101e-13 -3.03051e-13 -3.15521e-13 -1.08716e-13 0 0 4.39195e-13 -1.71824e-12 9.88e-13 -9.03394e-13 0 0 -1.55854e-13 -4.57577e-13 -3.55309e-13 -2.40415e-13 0 0 -2.79528e-13 -2.78869e-13 -6.76958e-13 3.0268e-13 0 0 -1.74974e-13 -3.93096e-13 -4.57501e-13 -3.8866e-15 0 0 -4.11983e-13 -4.05714e-13 -1.73235e-13 -2.60407e-13 0 0 4.36892e-13 -1.65774e-12 1.03798e-12 -1.09923e-12 0 0 -2.00065e-13 -2.99773e-13 -3.87445e-13 -4.12205e-13 0 0 -2.75123e-13 -1.82802e-13 -7.37316e-13 1.84694e-13 0 0 -1.62079e-13 -2.92493e-13 -6.06288e-13 1.37937e-14 0 0 -3.76493e-13 -2.7306e-13 -4.02586e-13 -1.66131e-13 0 0 3.94116e-13 -1.43063e-12 6.19359e-13 -8.49778e-13 0 0 -1.01306e-13 -2.17355e-13 -7.15441e-13 -3.07504e-13 0 0 -2.15737e-13 -1.8137e-15 -8.97898e-13 -1.14173e-14 0 0 -6.03659e-14 -4.09931e-13 -5.78341e-13 -6.78425e-14 0 0 -7.11108e-13 5.78482e-13 -1.59115e-12 2.79592e-13 0 0 4.17734e-13 -1.12519e-12 2.14009e-13 -9.77703e-13 0 0 6.23719e-13 -1.65112e-12 6.83801e-13 -1.07559e-12 0 0 -7.81362e-13 4.9972e-13 -1.77798e-12 5.58478e-13 0 0 -3.16513e-13 -2.6954e-13 -1.27487e-12 5.48783e-13 0 0 -4.56088e-13 -3.86177e-13 -7.64859e-13 -7.78739e-15 0 0 1.21101e-13 -1.16798e-12 2.54187e-13 -8.18592e-13 0 0 5.19463e-13 -1.69502e-12 5.2567e-13 -4.24973e-13 0 0 -8.04187e-13 4.22869e-13 -1.9805e-12 1.63543e-12 0 0 -2.17019e-13 -4.30443e-13 -1.34656e-12 1.53444e-12 0 0 -2.54335e-13 -6.75432e-13 -5.46607e-13 2.21916e-13 0 0 2.62826e-13 -1.30433e-12 3.92695e-13 -1.27227e-12 0 0 2.65764e-13 -1.30372e-12 3.88944e-13 -1.42162e-12 0 0 -3.73005e-13 -4.62545e-13 -6.43518e-13 -4.04609e-13 0 0 -3.85033e-13 -2.03839e-13 -8.76858e-13 -2.50648e-13 0 0 -4.52019e-13 -3.0929e-13 -4.20897e-13 -4.00921e-13 0 0 3.81515e-13 -1.49481e-12 7.06926e-13 -8.20777e-13 0 0 -9.67056e-14 -2.8989e-13 -8.25786e-13 9.3525e-14 0 0 -5.53099e-13 6.97765e-13 -2.4123e-12 1.304e-12 0 0 -6.43412e-13 7.02384e-13 -2.21985e-12 7.2868e-13 0 0 -5.87999e-14 -1.14855e-12 4.47444e-13 -1.00664e-12 0 0 6.19405e-13 -2.52827e-12 2.17385e-12 -2.4513e-12 0 0 -2.07829e-13 -6.80267e-13 -2.90288e-13 -1.11318e-12 0 0 -6.78905e-13 6.90644e-13 -2.48047e-12 7.25343e-13 0 0 -5.8307e-13 6.72388e-13 -2.18065e-12 2.67867e-13 0 0 -4.52729e-14 -8.29998e-13 -2.35367e-13 -8.71736e-13 0 0 5.306e-13 -2.05585e-12 1.12526e-12 -2.5424e-12 0 0 -2.85178e-13 -7.75085e-13 8.15539e-14 -2.77937e-12 0 0 -8.85598e-14 -1.19564e-12 4.86946e-13 -2.04898e-12 0 0 6.24471e-14 -1.14096e-12 2.88647e-13 -1.33171e-12 0 0 -8.68795e-13 6.8046e-13 -1.92043e-12 9.2591e-14 0 0 7.32623e-15 -6.54678e-13 -1.01906e-12 -2.51489e-13 0 0 -1.34271e-13 -8.2878e-13 -3.27733e-13 -8.61747e-13 0 0 -8.73463e-14 -1.19298e-12 5.14702e-13 -1.18686e-12 0 0 1.48331e-13 -1.16595e-12 1.75581e-13 -1.0618e-12 0 0 -7.25818e-13 5.79514e-13 -1.99359e-12 1.30648e-13 0 0 1.1713e-13 -7.02721e-13 -1.00983e-12 -2.61133e-13 0 0 -1.07339e-14 -8.86626e-13 -2.84851e-13 -1.09932e-12 0 0 -6.33509e-15 -1.27777e-12 6.12868e-13 -1.38496e-12 0 0 2.20638e-13 -1.29249e-12 2.60585e-13 -9.12198e-13 0 0 -7.77581e-13 6.33877e-13 -2.23965e-12 4.76964e-13 0 0 -2.87731e-14 -5.74771e-13 -1.35342e-12 3.9674e-14 0 0 -1.02916e-13 -8.9675e-13 -3.68666e-13 -8.59984e-13 0 0 -1.3022e-13 -1.1213e-12 2.76237e-13 -9.47937e-13 0 0 1.29151e-13 -1.12799e-12 -1.53211e-13 -5.33578e-13 0 0 -8.76288e-13 7.16629e-13 -2.33525e-12 6.49634e-13 0 0 -3.48626e-14 -6.0317e-13 -1.27758e-12 2.14238e-13 0 0 -6.22407e-14 -8.08924e-13 -5.39932e-13 -5.92055e-13 0 0 1.51738e-13 -1.31154e-12 1.75127e-13 -9.30468e-13 0 0 4.73261e-13 -1.26112e-12 -8.28599e-13 -3.57697e-13 0 0 -1.33596e-12 1.53048e-12 -3.76826e-12 9.45613e-13 0 0 6.14335e-13 -1.76776e-12 8.41377e-14 -1.09625e-12 0 0 1.39799e-12 -3.26135e-12 2.00354e-12 -1.94195e-12 0 0 -7.29273e-13 -4.76589e-14 -1.57002e-12 3.49388e-13 0 0 -7.96733e-13 4.14724e-13 -2.91691e-12 1.58733e-12 0 0 -1.23401e-12 7.05814e-13 -2.93452e-12 1.64709e-12 0 0 5.60676e-13 -2.35821e-12 8.82615e-13 -8.07079e-13 0 0 8.04506e-13 -2.80117e-12 1.48155e-12 -1.21857e-12 0 0 -9.58458e-13 2.78481e-13 -2.45566e-12 1.32886e-12 0 0 -7.40728e-13 4.25072e-13 -3.40082e-12 2.19041e-12 0
				</DataArray>
				<DataArray Name="VitesseY" type="Float32" format="ascii">