<?xml version="1.0"?>
<VTKFile type="PolyData">
	<PolyData>
		<Piece NumberOfPoints="1206" NumberOfPolys="1000">
			<Points>
				<DataArray type="Float32" NumberOfComponents="3" format="ascii">
 0 0 0 0.02 0 0 0.04 0 0 0.06 0 0 0.08 0 0 0.1 0 0 0 0.005 0 0.02 0.005 0 0.04 0.005 0 0.06 0.005 0 0.08 0.005 0 0.1 0.005 0 0 0.01 0 0.02 0.01 0 0.04 0.01 0 0.06 0.01 0 0.08 0.01 0 0.1 0.01 0 0 0.015 0 0.02 0.015 0 0.04 0.015 0 0.06 0.015 0 0.08 0.015 0 0.1 0.015 0 0 0.02 0 0.02 0.02 0 0.04 0.02 0 0.06 0.02 0 0.08 0.02 0 0.1 0.02 0 0 0.025 0 0.02 0.025 0 0.04 0.025 0 0.06 0.025 0 0.08 0.025 0 0.1 0.025 0 0 0.03 0 0.02 0.03 0 0.04 0.03 0 0.06 0.03 0 0.08 0.03 0 0.1 0.03 0 0 0.035 0 0.02 0.035 0 0.04 0.035 0 0.06 0.035 0 0.08 0.035 0 0.1 0.035 0 0 0.04 0 0.02 0.04 0 0.04 0.04 0 0.06 0.04 0 0.08 0.04 0 0.1 0.04 0 0 0.045 0 0.02 0.045 0 0.04 0.045 0 0.06 0.045 0 0.08 0.045 0 0.1 0.045 0 0 0.05 0 0.02 0.05 0 0.04 0.05 0 0.06 0.05 0 0.08 0.05 0 0.1 0.05 0 0 0.055 0 0.02 0.055 0 0.04 0.055 0 0.06 0.055 0 0.08 0.055 0 0.1 0.055 0 0 0.06 0 0.02 0.06 0 0.04 0.06 0 0.06 0.06 0 0.08 0.06 0 0.1 0.06 0 0 0.065 0 0.02 0.065 0 0.04 0.065 0 0.06 0.065 0 0.08 0.065 0 0.1 0.065 0 0 0.07 0 0.02 0.07 0 0.04 0.07 0 0.06 0.07 0 0.08 0.07 0 0.1 0.07 0 0 0.075 0 0.02 0.075 0 0.04 0.075 0 0.06 0.075 0 0.08 0.075 0 0.1 0.075 0 0 0.08 0 0.02 0.08 0 0.04 0.08 0 0.06 0.08 0 0.08 0.08 0 0.1 0.08 0 0 0.085 0 0.02 0.085 0 0.04 0.085 0 0.06 0.085 0 0.08 0.085 0 0.1 0.085 0 0 0.09 0 0.02 0.09 0 0.04 0.09 0 0.06 0.09 0 0.08 0.09 0 0.1 0.09 0 0 0.095 0 0.02 0.095 0 0.04 0.095 0 0.06 0.095 0 0.08 0.095 0 0.1 0.095 0 0 0.1 0 0.02 0.1 0 0.04 0.1 0 0.06 0.1 0 0.08 0.1 0 0.1 0.1 0 0 0.105 0 0.02 0.105 0 0.04 0.105 0 0.06 0.105 0 0.08 0.105 0 0.1 0.105 0 0 0.11 0 0.02 0.11 0 0.04 0.11 0 0.06 0.11 0 0.08 0.11 0 0.1 0.11 0 0 0.115 0 0.02 0.115 0 0.04 0.115 0 0.06 0.115 0 0.08 0.115 0 0.1 0.115 0 0 0.12 0 0.02 0.12 0 0.04 0.12 0 0.06 0.12 0 0.08 0.12 0 0.1 0.12 0 0 0.125 0 0.02 0.125 0 0.04 0.125 0 0.06 0.125 0 0.08 0.125 0 0.1 0.125 0 0 0.13 0 0.02 0.13 0 0.04 0.13 0 0.06 0.13 0 0.08 0.13 0 0.1 0.13 0 0 0.135 0 0.02 0.135 0 0.04 0.135 0 0.06 0.135 0 0.08 0.135 0 0.1 0.135 0 0 0.14 0 0.02 0.14 0 0.04 0.14 0 0.06 0.14 0 0.08 0.14 0 0.1 0.14 0 0 0.145 0 0.02 0.145 0 0.04 0.145 0 0.06 0.145 0 0.08 0.145 0 0.1 0.145 0 0 0.15 0 0.02 0.15 0 0.04 0.15 0 0.06 0.15 0 0.08 0.15 0 0.1 0.15 0 0 0.155 0 0.02 0.155 0 0.04 0.155 0 0.06 0.155 0 0.08 0.155 0 0.1 0.155 0 0 0.16 0 0.02 0.16 0 0.04 0.16 0 0.06 0.16 0 0.08 0.16 0 0.1 0.16 0 0 0.165 0 0.02 0.165 0 0.04 0.165 0 0.06 0.165 0 0.08 0.165 0 0.1 0.165 0 0 0.17 0 0.02 0.17 0 0.04 0.17 0 0.06 0.17 0 0.08 0.17 0 0.1 0.17 0 0 0.175 0 0.02 0.175 0 0.04 0.175 0 0.06 0.175 0 0.08 0.175 0 0.1 0.175 0 0 0.18 0 0.02 0.18 0 0.04 0.18 0 0.06 0.18 0 0.08 0.18 0 0.1 0.18 0 0 0.185 0 0.02 0.185 0 0.04 0.185 0 0.06 0.185 0 0.08 0.185 0 0.1 0.185 0 0 0.19 0 0.02 0.19 0 0.04 0.19 0 0.06 0.19 0 0.08 0.19 0 0.1 0.19 0 0 0.195 0 0.02 0.195 0 0.04 0.195 0 0.06 0.195 0 0.08 0.195 0 0.1 0.195 0 0 0.2 0 0.02 0.2 0 0.04 0.2 0 0.06 0.2 0 0.08 0.2 0 0.1 0.2 0 0 0.205 0 0.02 0.205 0 0.04 0.205 0 0.06 0.205 0 0.08 0.205 0 0.1 0.205 0 0 0.21 0 0.02 0.21 0 0.04 0.21 0 0.06 0.21 0 0.08 0.21 0 0.1 0.21 0 0 0.215 0 0.02 0.215 0 0.04 0.215 0 0.06 0.215 0 0.08 0.215 0 0.1 0.215 0 0 0.22 0 0.02 0.22 0 0.04 0.22 0 0.06 0.22 0 0.08 0.22 0 0.1 0.22 0 0 0.225 0 0.02 0.225 0 0.04 0.225 0 0.06 0.225 0 0.08 0.225 0 0.1 0.225 0 0 0.23 0 0.02 0.23 0 0.04 0.23 0 0.06 0.23 0 0.08 0.23 0 0.1 0.23 0 0 0.235 0 0.02 0.235 0 0.04 0.235 0 0.06 0.235 0 0.08 0.235 0 0.1 0.235 0 0 0.24 0 0.02 0.24 0 0.04 0.24 0 0.06 0.24 0 0.08 0.24 0 0.1 0.24 0 0 0.245 0 0.02 0.245 0 0.04 0.245 0 0.06 0.245 0 0.08 0.245 0 0.1 0.245 0 0 0.25 0 0.02 0.25 0 0.04 0.25 0 0.06 0.25 0 0.08 0.25 0 0.1 0.25 0 0 0.255 0 0.02 0.255 0 0.04 0.255 0 0.06 0.255 0 0.08 0.255 0 0.1 0.255 0 0 0.26 0 0.02 0.26 0 0.04 0.26 0 0.06 0.26 0 0.08 0.26 0 0.1 0.26 0 0 0.265 0 0.02 0.265 0 0.04 0.265 0 0.06 0.265 0 0.08 0.265 0 0.1 0.265 0 0 0.27 0 0.02 0.27 0 0.04 0.27 0 0.06 0.27 0 0.08 0.27 0 0.1 0.27 0 0 0.275 0 0.02 0.275 0 0.04 0.275 0 0.06 0.275 0 0.08 0.275 0 0.1 0.275 0 0 0.28 0 0.02 0.28 0 0.04 0.28 0 0.06 0.28 0 0.08 0.28 0 0.1 0.28 0 0 0.285 0 0.02 0.285 0 0.04 0.285 0 0.06 0.285 0 0.08 0.285 0 0.1 0.285 0 0 0.29 0 0.02 0.29 0 0.04 0.29 0 0.06 0.29 0 0.08 0.29 0 0.1 0.29 0 0 0.295 0 0.02 0.295 0 0.04 0.295 0 0.06 0.295 0 0.08 0.295 0 0.1 0.295 0 0 0.3 0 0.02 0.3 0 0.04 0.3 0 0.06 0.3 0 0.08 0.3 0 0.1 0.3 0 0 0.305 0 0.02 0.305 0 0.04 0.305 0 0.06 0.305 0 0.08 0.305 0 0.1 0.305 0 0 0.31 0 0.02 0.31 0 0.04 0.31 0 0.06 0.31 0 0.08 0.31 0 0.1 0.31 0 0 0.315 0 0.02 0.315 0 0.04 0.315 0 0.06 0.315 0 0.08 0.315 0 0.1 0.315 0 0 0.32 0 0.02 0.32 0 0.04 0.32 0 0.06 0.32 0 0.08 0.32 0 0.1 0.32 0 0 0.325 0 0.02 0.325 0 0.04 0.325 0 0.06 0.325 0 0.08 0.325 0 0.1 0.325 0 0 0.33 0 0.02 0.33 0 0.04 0.33 0 0.06 0.33 0 0.08 0.33 0 0.1 0.33 0 0 0.335 0 0.02 0.335 0 0.04 0.335 0 0.06 0.335 0 0.08 0.335 0 0.1 0.335 0 0 0.34 0 0.02 0.34 0 0.04 0.34 0 0.06 0.34 0 0.08 0.34 0 0.1 0.34 0 0 0.345 0 0.02 0.345 0 0.04 0.345 0 0.06 0.345 0 0.08 0.345 0 0.1 0.345 0 0 0.35 0 0.02 0.35 0 0.04 0.35 0 0.06 0.35 0 0.08 0.35 0 0.1 0.35 0 0 0.355 0 0.02 0.355 0 0.04 0.355 0 0.06 0.355 0 0.08 0.355 0 0.1 0.355 0 0 0.36 0 0.02 0.36 0 0.04 0.36 0 0.06 0.36 0 0.08 0.36 0 0.1 0.36 0 0 0.365 0 0.02 0.365 0 0.04 0.365 0 0.06 0.365 0 0.08 0.365 0 0.1 0.365 0 0 0.37 0 0.02 0.37 0 0.04 0.37 0 0.06 0.37 0 0.08 0.37 0 0.1 0.37 0 0 0.375 0 0.02 0.375 0 0.04 0.375 0 0.06 0.375 0 0.08 0.375 0 0.1 0.375 0 0 0.38 0 0.02 0.38 0 0.04 0.38 0 0.06 0.38 0 0.08 0.38 0 0.1 0.38 0 0 0.385 0 0.02 0.385 0 0.04 0.385 0 0.06 0.385 0 0.08 0.385 0 0.1 0.385 0 0 0.39 0 0.02 0.39 0 0.04 0.39 0 0.06 0.39 0 0.08 0.39 0 0.1 0.39 0 0 0.395 0 0.02 0.395 0 0.04 0.395 0 0.06 0.395 0 0.08 0.395 0 0.1 0.395 0 0 0.4 0 0.02 0.4 0 0.04 0.4 0 0.06 0.4 0 0.08 0.4 0 0.1 0.4 0 0 0.405 0 0.02 0.405 0 0.04 0.405 0 0.06 0.405 0 0.08 0.405 0 0.1 0.405 0 0 0.41 0 0.02 0.41 0 0.04 0.41 0 0.06 0.41 0 0.08 0.41 0 0.1 0.41 0 0 0.415 0 0.02 0.415 0 0.04 0.415 0 0.06 0.415 0 0.08 0.415 0 0.1 0.415 0 0 0.42 0 0.02 0.42 0 0.04 0.42 0 0.06 0.42 0 0.08 0.42 0 0.1 0.42 0 0 0.425 0 0.02 0.425 0 0.04 0.425 0 0.06 0.425 0 0.08 0.425 0 0.1 0.425 0 0 0.43 0 0.02 0.43 0 0.04 0.43 0 0.06 0.43 0 0.08 0.43 0 0.1 0.43 0 0 0.435 0 0.02 0.435 0 0.04 0.435 0 0.06 0.435 0 0.08 0.435 0 0.1 0.435 0 0 0.44 0 0.02 0.44 0 0.04 0.44 0 0.06 0.44 0 0.08 0.44 0 0.1 0.44 0 0 0.445 0 0.02 0.445 0 0.04 0.445 0 0.06 0.445 0 0.08 0.445 0 0.1 0.445 0 0 0.45 0 0.02 0.45 0 0.04 0.45 0 0.06 0.45 0 0.08 0.45 0 0.1 0.45 0 0 0.455 0 0.02 0.455 0 0.04 0.455 0 0.06 0.455 0 0.08 0.455 0 0.1 0.455 0 0 0.46 0 0.02 0.46 0 0.04 0.46 0 0.06 0.46 0 0.08 0.46 0 0.1 0.46 0 0 0.465 0 0.02 0.465 0 0.04 0.465 0 0.06 0.465 0 0.08 0.465 0 0.1 0.465 0 0 0.47 0 0.02 0.47 0 0.04 0.47 0 0.06 0.47 0 0.08 0.47 0 0.1 0.47 0 0 0.475 0 0.02 0.475 0 0.04 0.475 0 0.06 0.475 0 0.08 0.475 0 0.1 0.475 0 0 0.48 0 0.02 0.48 0 0.04 0.48 0 0.06 0.48 0 0.08 0.48 0 0.1 0.48 0 0 0.485 0 0.02 0.485 0 0.04 0.485 0 0.06 0.485 0 0.08 0.485 0 0.1 0.485 0 0 0.49 0 0.02 0.49 0 0.04 0.49 0 0.06 0.49 0 0.08 0.49 0 0.1 0.49 0 0 0.495 0 0.02 0.495 0 0.04 0.495 0 0.06 0.495 0 0.08 0.495 0 0.1 0.495 0 0 0.5 0 0.02 0.5 0 0.04 0.5 0 0.06 0.5 0 0.08 0.5 0 0.1 0.5 0 0 0.505 0 0.02 0.505 0 0.04 0.505 0 0.06 0.505 0 0.08 0.505 0 0.1 0.505 0 0 0.51 0 0.02 0.51 0 0.04 0.51 0 0.06 0.51 0 0.08 0.51 0 0.1 0.51 0 0 0.515 0 0.02 0.515 0 0.04 0.515 0 0.06 0.515 0 0.08 0.515 0 0.1 0.515 0 0 0.52 0 0.02 0.52 0 0.04 0.52 0 0.06 0.52 0 0.08 0.52 0 0.1 0.52 0 0 0.525 0 0.02 0.525 0 0.04 0.525 0 0.06 0.525 0 0.08 0.525 0 0.1 0.525 0 0 0.53 0 0.02 0.53 0 0.04 0.53 0 0.06 0.53 0 0.08 0.53 0 0.1 0.53 0 0 0.535 0 0.02 0.535 0 0.04 0.535 0 0.06 0.535 0 0.08 0.535 0 0.1 0.535 0 0 0.54 0 0.02 0.54 0 0.04 0.54 0 0.06 0.54 0 0.08 0.54 0 0.1 0.54 0 0 0.545 0 0.02 0.545 0 0.04 0.545 0 0.06 0.545 0 0.08 0.545 0 0.1 0.545 0 0 0.55 0 0.02 0.55 0 0.04 0.55 0 0.06 0.55 0 0.08 0.55 0 0.1 0.55 0 0 0.555 0 0.02 0.555 0 0.04 0.555 0 0.06 0.555 0 0.08 0.555 0 0.1 0.555 0 0 0.56 0 0.02 0.56 0 0.04 0.56 0 0.06 0.56 0 0.08 0.56 0 0.1 0.56 0 0 0.565 0 0.02 0.565 0 0.04 0.565 0 0.06 0.565 0 0.08 0.565 0 0.1 0.565 0 0 0.57 0 0.02 0.57 0 0.04 0.57 0 0.06 0.57 0 0.08 0.57 0 0.1 0.57 0 0 0.575 0 0.02 0.575 0 0.04 0.575 0 0.06 0.575 0 0.08 0.575 0 0.1 0.575 0 0 0.58 0 0.02 0.58 0 0.04 0.58 0 0.06 0.58 0 0.08 0.58 0 0.1 0.58 0 0 0.585 0 0.02 0.585 0 0.04 0.585 0 0.06 0.585 0 0.08 0.585 0 0.1 0.585 0 0 0.59 0 0.02 0.59 0 0.04 0.59 0 0.06 0.59 0 0.08 0.59 0 0.1 0.59 0 0 0.595 0 0.02 0.595 0 0.04 0.595 0 0.06 0.595 0 0.08 0.595 0 0.1 0.595 0 0 0.6 0 0.02 0.6 0 0.04 0.6 0 0.06 0.6 0 0.08 0.6 0 0.1 0.6 0 0 0.605 0 0.02 0.605 0 0.04 0.605 0 0.06 0.605 0 0.08 0.605 0 0.1 0.605 0 0 0.61 0 0.02 0.61 0 0.04 0.61 0 0.06 0.61 0 0.08 0.61 0 0.1 0.61 0 0 0.615 0 0.02 0.615 0 0.04 0.615 0 0.06 0.615 0 0.08 0.615 0 0.1 0.615 0 0 0.62 0 0.02 0.62 0 0.04 0.62 0 0.06 0.62 0 0.08 0.62 0 0.1 0.62 0 0 0.625 0 0.02 0.625 0 0.04 0.625 0 0.06 0.625 0 0.08 0.625 0 0.1 0.625 0 0 0.63 0 0.02 0.63 0 0.04 0.63 0 0.06 0.63 0 0.08 0.63 0 0.1 0.63 0 0 0.635 0 0.02 0.635 0 0.04 0.635 0 0.06 0.635 0 0.08 0.635 0 0.1 0.635 0 0 0.64 0 0.02 0.64 0 0.04 0.64 0 0.06 0.64 0 0.08 0.64 0 0.1 0.64 0 0 0.645 0 0.02 0.645 0 0.04 0.645 0 0.06 0.645 0 0.08 0.645 0 0.1 0.645 0 0 0.65 0 0.02 0.65 0 0.04 0.65 0 0.06 0.65 0 0.08 0.65 0 0.1 0.65 0 0 0.655 0 0.02 0.655 0 0.04 0.655 0 0.06 0.655 0 0.08 0.655 0 0.1 0.655 0 0 0.66 0 0.02 0.66 0 0.04 0.66 0 0.06 0.66 0 0.08 0.66 0 0.1 0.66 0 0 0.665 0 0.02 0.665 0 0.04 0.665 0 0.06 0.665 0 0.08 0.665 0 0.1 0.665 0 0 0.67 0 0.02 0.67 0 0.04 0.67 0 0.06 0.67 0 0.08 0.67 0 0.1 0.67 0 0 0.675 0 0.02 0.675 0 0.04 0.675 0 0.06 0.675 0 0.08 0.675 0 0.1 0.675 0 0 0.68 0 0.02 0.68 0 0.04 0.68 0 0.06 0.68 0 0.08 0.68 0 0.1 0.68 0 0 0.685 0 0.02 0.685 0 0.04 0.685 0 0.06 0.685 0 0.08 0.685 0 0.1 0.685 0 0 0.69 0 0.02 0.69 0 0.04 0.69 0 0.06 0.69 0 0.08 0.69 0 0.1 
[...]
			<PointData Scalars="VitesseX">
				<DataArray Name="VitesseX" type="Float32" format="ascii">
 0 1.53528e-14 1.06858e-14 5.09108e-14 3.33889e-14 0 0 1.72167e-14 1.22171e-14 5.30157e-14 3.23355e-14 0 0 2.18935e-14 1.73499e-14 5.82228e-14 2.43535e-14 0 0 1.78237e-14 4.20634e-14 4.70174e-14 2.18542e-14 0 0 5.74609e-15 8.05588e-14 2.23174e-14 3.05913e-14 0 0 4.26596e-14 4.40407e-14 5.88308e-14 1.06682e-14 0 0 6.25757e-14 4.61935e-14 4.98105e-14 7.82279e-15 0 0 7.3765e-14 4.80139e-14 6.10284e-14 -1.52608e-14 0 0 8.92738e-14 3.60929e-14 6.99854e-14 -1.94859e-14 0 0 6.79704e-14 7.65235e-14 2.17344e-14 1.90002e-14 0 0 5.34946e-14 9.18906e-14 1.49562e-14 2.33378e-14 0 0 3.10493e-14 1.34404e-13 -2.30699e-14 3.22562e-14 0 0 5.71589e-14 9.82778e-14 1.75176e-14 -2.76926e-15 0 0 8.8403e-14 5.70538e-14 4.59337e-14 -8.28606e-15 0 0 8.91871e-14 4.69274e-14 3.85912e-14 1.18694e-14 0 0 1.16869e-13 -2.17419e-14 1.06486e-13 -2.94264e-14 0 0 1.02089e-13 2.16532e-14 4.70902e-14 1.70196e-14 0 0 4.75894e-14 1.02628e-13 -3.99841e-14 1.06117e-13 0 0 3.30429e-14 6.24612e-14 4.51968e-14 9.14907e-14 0 0 3.95979e-14 1.23647e-14 1.34375e-13 5.45948e-14 0 0 4.35811e-14 2.12675e-14 1.08732e-13 7.38905e-14 0 0 3.59448e-14 2.76221e-14 1.13235e-13 7.45937e-14 0 0 6.04624e-14 -3.7916e-16 1.50536e-13 4.98223e-14 0 0 5.2402e-14 8.17119e-14 2.54986e-14 1.2952e-13 0 0 7.21922e-14 9.05999e-14 2.0645e-14 1.26973e-13 0 0 7.65177e-14 1.02169e-13 5.63715e-14 7.87962e-14 0 0 4.53103e-14 1.38559e-13 4.50955e-14 7.60345e-14 0 0 7.46388e-14 3.58763e-14 1.42787e-13 3.59816e-14 0 0 3.2697e-14 6.98102e-14 1.11806e-13 4.95603e-14 0 0 7.37328e-14 7.45465e-15 1.65255e-13 -1.99368e-15 0 0 1.08733e-13 -3.06643e-14 1.73036e-13 -1.47907e-14 0 0 4.74714e-14 9.32088e-14 4.7502e-14 5.60921e-15 0 0 2.92157e-14 1.30144e-13 2.47941e-14 -6.60557e-14 0 0 -2.01959e-14 2.27621e-13 -1.11984e-13 1.28672e-14 0 0 4.69578e-14 1.18155e-13 -6.30867e-14 3.02687e-14 0 0 1.5861e-13 -6.38687e-14 8.06784e-14 -3.16867e-14 0 0 1.44028e-13 9.18331e-15 -1.39648e-14 2.23054e-14 0 0 1.36781e-13 4.86161e-14 -2.81564e-14 3.65593e-14 0 0 1.37707e-13 2.63776e-14 7.90623e-14 -3.13418e-14 0 0 1.13945e-13 7.74743e-14 7.07728e-14 -5.5708e-14 0 0 1.4714e-13 9.50392e-14 -1.57328e-14 2.99918e-14 0 0 1.96517e-13 7.83509e-14 -3.05549e-14 4.6496e-14 0 0 2.18642e-13 4.54104e-14 4.73414e-14 -1.37505e-15 0 0 1.49121e-13 1.14038e-13 8.8519e-15 5.42801e-14 0 0 1.29601e-13 1.08534e-13 4.10681e-14 2.95093e-14 0 0 1.55034e-13 1.73666e-14 1.19348e-13 1.32102e-15 0 0 5.25067e-14 1.29366e-13 -1.03802e-13 2.17223e-13 0 0 6.58348e-14 3.79606e-14 -1.34506e-13 3.4573e-13 0 0 8.36377e-14 -6.98061e-14 -3.18644e-14 3.09813e-13 0 0 8.87504e-14 -1.50188e-13 1.70546e-13 9.37202e-14 0 0 1.26589e-13 -2.40554e-13 3.13811e-13 -5.69657e-14 0 0 6.73974e-14 -4.47457e-14 5.48649e-14 7.76825e-14 0 0 -2.81119e-14 2.23875e-13 -2.08791e-13 1.89519e-13 0 0 8.41621e-15 1.57504e-13 -1.07929e-13 1.57597e-13 0 0 9.21197e-14 -5.7985e-14 2.42478e-13 -6.44902e-14 0 0 1.33237e-13 -2.45912e-14 2.58996e-13 -1.01434e-13 0 0 2.2722e-13 3.64531e-14 1.12987e-13 -7.91573e-16 0 0 2.35947e-13 1.01332e-13 8.14405e-14 3.63185e-14 0 0 2.5775e-13 1.25309e-13 6.17667e-14 8.2971e-14 0 0 3.7039e-13 1.20461e-13 7.26766e-14 1.4882e-14 0 0 4.11402e-13 2.16047e-13 4.37821e-14 -1.06102e-14 0 0 3.9636e-13 3.03104e-13 -1.65405e-15 4.09448e-14 0 0 4.21846e-13 2.14958e-13 4.75048e-15 1.2894e-13 0 0 3.89062e-13 5.72337e-14 1.44962e-13 1.15249e-13 0 0 2.72849e-13 1.7534e-13 1.17491e-13 1.1234e-13 0 0 2.94751e-13 2.21844e-13 5.50126e-14 2.0171e-13 0 0 3.28468e-13 1.22764e-13 1.69919e-13 2.58874e-13 0 0 8.92655e-14 2.79425e-13 1.38687e-13 4.02812e-13 0 0 -2.53811e-14 1.88706e-13 2.97718e-13 3.84912e-13 0 0 -1.15106e-13 1.34977e-13 3.89385e-13 3.25308e-13 0 0 -3.18786e-13 3.42135e-13 2.69094e-13 3.36595e-13 0 0 -1.86434e-13 2.3733e-13 2.95407e-13 3.14803e-13 0 0 1.40546e-13 -6.95592e-14 5.74458e-13 1.54039e-13 0 0 -1.91543e-14 1.6144e-13 5.05713e-13 1.45173e-13 0 0 -2.30039e-13 3.86102e-13 3.15342e-13 3.44136e-13 0 0 -1.42666e-13 3.21573e-13 3.45649e-13 4.70076e-13 0 0 -1.56375e-13 4.6239e-13 2.88176e-13 4.39153e-13 0 0 -2.67867e-14 2.92216e-13 5.96729e-13 8.9166e-14 0 0 2.54964e-14 2.11708e-13 7.2546e-13 -2.85687e-13 0 0 -1.09609e-14 3.15679e-13 5.21739e-13 -2.27699e-13 0 0 1.30366e-13 9.69496e-14 5.42907e-13 -1.68334e-13 0 0 2.70451e-13 2.06713e-14 3.12982e-13 5.34079e-14 0 0 9.91473e-14 3.62165e-13 -1.91933e-13 3.93085e-13 0 0 3.07784e-14 3.58764e-13 -1.08022e-13 2.79858e-13 0 0 4.5862e-14 1.65515e-13 2.25221e-13 2.05681e-14 0 0 -1.00684e-13 1.67776e-13 4.88514e-13 -2.28755e-13 0 0 -2.50269e-13 2.43427e-13 4.94862e-13 -2.35883e-13 0 0 -1.80131e-13 1.51507e-13 5.22445e-13 -1.77021e-13 0 0 -4.54517e-14 -4.97202e-14 5.10204e-13 -9.38211e-14 0 0 -3.48542e-14 -1.08646e-13 4.44805e-13 1.58645e-14 0 0 -1.4944e-13 -2.80386e-14 2.69477e-13 1.7698e-13 0 0 -1.98671e-13 4.53035e-14 -1.09198e-14 4.07868e-13 0 0 -6.36219e-14 -1.02167e-14 -1.20203e-13 6.31728e-13 0 0 3.5474e-13 -3.01273e-13 -3.63419e-14 5.72574e-13 0 0 5.46581e-13 -5.86839e-13 2.21527e-13 3.72925e-13 0 0 5.00293e-13 -5.7771e-13 5.14086e-13 1.64996e-14 0 0 3.19969e-13 -3.9582e-13 5.38766e-13 -2.57368e-13 0 0 4.02356e-14 1.59165e-14 3.67373e-13 -2.40497e-13 0 0 -2.56867e-13 4.39453e-13 4.25629e-14 -4.06897e-14 0 0 -3.13851e-13 5.93501e-13 -1.72074e-13 2.33042e-13 0 0 -2.77074e-13 6.81033e-13 -2.95294e-13 3.47785e-13 0 0 -1.85482e-13 7.63428e-13 -3.74036e-13 3.35812e-13 0 0 -7.37283e-14 7.84329e-13 -3.19471e-13 2.27298e-13 0 0 1.1793e-13 6.01715e-13 -5.64026e-14 2.14456e-14 0 0 3.73875e-13 5.2148e-14 5.01002e-13 -2.82016e-13 0 0 4.27197e-13 -2.85282e-13 9.67479e-13 -4.35187e-13 0 0 3.57214e-13 -2.42162e-13 9.52897e-13 -3.65729e-13 0 0 1.83847e-13 1.80399e-15 7.84305e-13 -2.35648e-13 0 0 3.86591e-14 3.58744e-13 5.50291e-13 -1.72596e-13 0 0 6.0091e-15 5.44223e-13 3.70045e-13 -1.01901e-13 0 0 2.39181e-14 6.02582e-13 2.66593e-13 -1.03746e-14 0 0 9.67738e-14 6.28097e-13 1.54983e-13 4.54964e-14 0 0 2.33042e-13 5.62659e-13 1.75676e-13 3.24873e-14 0 0 3.98641e-13 4.22423e-13 1.99112e-13 5.85991e-14 0 0 5.17739e-13 2.99712e-13 2.2618e-13 9.26112e-14 0 0 5.48758e-13 2.64205e-13 3.08736e-13 6.17593e-14 0 0 4.90252e-13 3.4301e-13 2.42691e-13 1.22211e-13 0 0 3.62126e-13 4.44519e-13 2.51107e-13 1.03643e-13 0 0 2.06812e-13 5.00729e-13 2.92151e-13 8.35315e-14 0 0 9.9838e-14 5.03309e-13 3.18907e-13 1.10663e-13 0 0 5.59895e-14 4.81134e-13 3.4472e-13 1.06251e-13 0 0 4.4918e-14 4.81883e-13 2.98402e-13 1.53459e-13 0 0 8.3015e-14 4.16422e-13 3.02717e-13 1.66439e-13 0 0 1.32016e-13 3.27509e-13 3.30207e-13 1.98871e-13 0 0 1.47202e-13 2.72416e-13 3.28127e-13 2.79257e-13 0 0 1.18503e-13 2.78094e-13 3.35852e-13 2.99919e-13 0 0 7.9547e-14 3.01819e-13 3.42906e-13 2.71549e-13 0 0 7.815e-14 3.00603e-13 2.99497e-13 2.88245e-13 0 0 7.236e-14 2.72223e-13 2.98288e-13 3.26412e-13 0 0 1.01633e-13 1.86479e-13 3.70809e-13 2.78808e-13 0 0 1.64233e-13 1.41223e-13 4.28778e-13 2.4471e-13 0 0 1.64788e-13 1.89515e-13 3.84423e-13 2.90301e-13 0 0 1.61978e-13 2.8525e-13 3.09191e-13 3.60315e-13 0 0 2.13436e-13 2.92208e-13 3.40959e-13 2.91771e-13 0 0 2.5871e-13 3.28784e-13 3.41439e-13 2.16728e-13 0 0 2.77212e-13 3.72992e-13 2.92084e-13 2.71697e-13 0 0 2.77676e-13 4.12427e-13 2.3356e-13 3.56365e-13 0 0 2.76412e-13 4.0955e-13 2.17557e-13 3.4429e-13 0 0 2.78282e-13 3.68313e-13 2.81114e-13 2.12663e-13 0 0 2.42024e-13 3.57267e-13 2.66625e-13 2.38523e-13 0 0 1.53566e-13 3.75669e-13 2.04895e-13 2.5712e-13 0 0 1.3761e-13 3.53179e-13 1.70128e-13 2.65651e-13 0 0 2.09012e-13 2.59244e-13 1.55091e-13 3.40457e-13 0 0 1.54642e-13 3.06711e-13 1.91071e-13 2.15628e-13 0 0 1.69724e-13 2.38378e-13 3.73935e-13 1.53108e-13 0 0 2.19393e-13 1.90941e-13 4.70111e-13 2.85385e-13 0 0 1.80807e-13 2.96846e-13 4.32261e-13 4.43569e-13 0 0 2.52793e-13 2.42606e-13 5.07953e-13 4.78097e-13 0 0 3.29203e-13 1.99411e-13 6.0086e-13 3.74759e-13 0 0 2.79319e-13 3.41145e-13 4.72302e-13 5.21557e-13 0 0 2.88917e-13 3.9232e-13 4.16498e-13 6.07078e-13 0 0 3.44478e-13 3.09079e-13 5.13129e-13 5.10009e-13 0 0 3.14567e-13 3.6356e-13 4.69617e-13 5.55737e-13 0 0 2.89515e-13 4.18665e-13 4.52881e-13 5.03901e-13 0 0 2.8523e-13 4.63271e-13 4.32413e-13 4.49964e-13 0 0 3.3794e-13 4.62997e-13 4.1049e-13 4.33443e-13 0 0 4.64484e-13 3.63783e-13 4.99495e-13 2.68519e-13 0 0 5.42529e-13 3.21671e-13 5.6514e-13 1.52811e-13 0 0 4.67523e-13 4.59681e-13 5.13529e-13 1.84634e-13 0 0 3.87516e-13 5.96806e-13 3.61652e-13 3.06424e-13 0 0 3.82138e-13 6.23289e-13 3.00071e-13 3.7272e-13 0 0 4.24281e-13 5.91824e-13 3.52662e-13 2.96308e-13 0 0 5.08159e-13 4.99942e-13 3.93755e-13 2.91241e-13 0 0 4.5231e-13 6.26772e-13 2.8513e-13 3.76389e-13 0 0 4.20626e-13 7.28098e-13 2.29401e-13 3.817e-13 0 0 4.75363e-13 6.29726e-13 3.95785e-13 2.41409e-13 0 0 4.45654e-13 7.17088e-13 2.93283e-13 3.21098e-13 0 0 4.96521e-13 6.76611e-13 4.08586e-13 2.4353e-13 0 0 5.33001e-13 6.29213e-13 5.5622e-13 1.3773e-13 0 0 5.34945e-13 6.9224e-13 4.16444e-13 3.73013e-13 0 0 5.80311e-13 6.18194e-13 5.86216e-13 2.94902e-13 0 0 5.8352e-13 7.0169e-13 4.966e-13 3.32189e-13 0 0 6.66924e-13 5.7399e-13 4.83231e-13 4.16093e-13 0 0 6.80071e-13 5.70161e-13 5.33286e-13 3.10862e-13 0 0 4.94757e-13 9.31521e-13 3.44913e-13 2.04961e-13 0 0 7.87347e-13 4.18251e-13 8.51868e-13 -7.18601e-14 0 0 7.83819e-13 4.77353e-13 6.99153e-13 2.11659e-13 0 0 5.30886e-13 8.36177e-13 3.27332e-13 5.23961e-13 0 0 5.00031e-13 7.45365e-13 5.10384e-13 3.75251e-13 0 0 5.41045e-13 5.40056e-13 6.398e-13 4.0018e-13 0 0 3.58589e-13 6.33195e-13 4.68211e-13 5.83105e-13 0 0 2.16431e-13 7.26348e-13 4.6533e-13 4.76012e-13 0 0 4.06724e-13 3.87881e-13 8.3867e-13 8.52238e-14 0 0 1.73187e-13 7.25481e-13 5.83801e-13 7.47231e-14 0 0 4.74503e-13 3.78939e-13 6.70193e-13 1.2856e-13 0 0 4.21348e-13 5.81629e-13 2.70549e-13 3.71838e-13 0 0 3.54728e-14 1.00409e-12 1.32256e-13 2.07199e-13 0 0 2.87162e-13 4.44085e-13 9.35302e-13 -4.49853e-13 0 0 7.16888e-14 9.19539e-13 3.62148e-13 -7.06896e-15 0 0 5.19608e-14 1.01606e-12 2.01414e-13 2.27714e-13 0 0 4.06483e-13 5.32685e-13 5.82372e-13 5.3972e-14 0 0 3.29977e-13 7.18917e-13 3.35204e-13 1.59287e-13 0 0 4.33448e-13 3.84622e-13 9.17434e-13 -3.31554e-13 0 0 4.22777e-13 2.57606e-13 1.14393e-12 -4.68564e-13 0 0 3.55726e-13 3.83678e-13 8.4016e-13 -1.2343e-13 0 0 2.93952e-13 4.32245e-13 7.02697e-13 1.87704e-13 0 0 3.18577e-14 6.74785e-13 5.35817e-13 4.13661e-13 0 0 -1.29134e-13 7.00407e-13 4.97612e-13 5.17179e-13 0 0 -1.42392e-14 3.62065e-13 7.93494e-13 4.61028e-13 0 0 2.44936e-14 2.97213e-13 8.86763e-13 4.58554e-13 0 0 -1.83779e-13 5.90456e-13 6.34621e-13 6.1675e-13 0
				</DataArray>
				<DataArray Name="VitesseY" type="Float32" format="ascii">