<?xml version="1.0"?>
<VTKFile type="PolyData">
	<PolyData>
		<Piece NumberOfPoints="1206" NumberOfPolys="1000">
			<Points>
				<DataArray type="Float32" NumberOfComponents="3" format="ascii">
 0 0 0 0.02 0 0 0.04 0 0 0.06 0 0 0.08 0 0 0.1 0 0 0 0.005 0 0.02 0.005 0 0.04 0.005 0 0.06 0.005 0 0.08 0.005 0 0.1 0.005 0 0 0.01 0 0.02 0.01 0 0.04 0.01 0 0.06 0.01 0 0.08 0.01 0 0.1 0.01 0 0 0.015 0 0.02 0.015 0 0.04 0.015 0 0.06 0.015 0 0.08 0.015 0 0.1 0.015 0 0 0.02 0 0.02 0.02 0 0.04 0.02 0 0.06 0.02 0 0.08 0.02 0 0.1 0.02 0 0 0.025 0 0.02 0.025 0 0.04 0.025 0 0.06 0.025 0 0.08 0.025 0 0.1 0.025 0 0 0.03 0 0.02 0.03 0 0.04 0.03 0 0.06 0.03 0 0.08 0.03 0 0.1 0.03 0 0 0.035 0 0.02 0.035 0 0.04 0.035 0 0.06 0.035 0 0.08 0.035 0 0.1 0.035 0 0 0.04 0 0.02 0.04 0 0.04 0.04 0 0.06 0.04 0 0.08 0.04 0 0.1 0.04 0 0 0.045 0 0.02 0.045 0 0.04 0.045 0 0.06 0.045 0 0.08 0.045 0 0.1 0.045 0 0 0.05 0 0.02 0.05 0 0.04 0.05 0 0.06 0.05 0 0.08 0.05 0 0.1 0.05 0 0 0.055 0 0.02 0.055 0 0.04 0.055 0 0.06 0.055 0 0.08 0.055 0 0.1 0.055 0 0 0.06 0 0.02 0.06 0 0.04 0.06 0 0.06 0.06 0 0.08 0.06 0 0.1 0.06 0 0 0.065 0 0.02 0.065 0 0.04 0.065 0 0.06 0.065 0 0.08 0.065 0 0.1 0.065 0 0 0.07 0 0.02 0.07 0 0.04 0.07 0 0.06 0.07 0 0.08 0.07 0 0.1 0.07 0 0 0.075 0 0.02 0.075 0 0.04 0.075 0 0.06 0.075 0 0.08 0.075 0 0.1 0.075 0 0 0.08 0 0.02 0.08 0 0.04 0.08 0 0.06 0.08 0 0.08 0.08 0 0.1 0.08 0 0 0.085 0 0.02 0.085 0 0.04 0.085 0 0.06 0.085 0 0.08 0.085 0 0.1 0.085 0 0 0.09 0 0.02 0.09 0 0.04 0.09 0 0.06 0.09 0 0.08 0.09 0 0.1 0.09 0 0 0.095 0 0.02 0.095 0 0.04 0.095 0 0.06 0.095 0 0.08 0.095 0 0.1 0.095 0 0 0.1 0 0.02 0.1 0 0.04 0.1 0 0.06 0.1 0 0.08 0.1 0 0.1 0.1 0 0 0.105 0 0.02 0.105 0 0.04 0.105 0 0.06 0.105 0 0.08 0.105 0 0.1 0.105 0 0 0.11 0 0.02 0.11 0 0.04 0.11 0 0.06 0.11 0 0.08 0.11 0 0.1 0.11 0 0 0.115 0 0.02 0.115 0 0.04 0.115 0 0.06 0.115 0 0.08 0.115 0 0.1 0.115 0 0 0.12 0 0.02 0.12 0 0.04 0.12 0 0.06 0.12 0 0.08 0.12 0 0.1 0.12 0 0 0.125 0 0.02 0.125 0 0.04 0.125 0 0.06 0.125 0 0.08 0.125 0 0.1 0.125 0 0 0.13 0 0.02 0.13 0 0.04 0.13 0 0.06 0.13 0 0.08 0.13 0 0.1 0.13 0 0 0.135 0 0.02 0.135 0 0.04 0.135 0 0.06 0.135 0 0.08 0.135 0 0.1 0.135 0 0 0.14 0 0.02 0.14 0 0.04 0.14 0 0.06 0.14 0 0.08 0.14 0 0.1 0.14 0 0 0.145 0 0.02 0.145 0 0.04 0.145 0 0.06 0.145 0 0.08 0.145 0 0.1 0.145 0 0 0.15 0 0.02 0.15 0 0.04 0.15 0 0.06 0.15 0 0.08 0.15 0 0.1 0.15 0 0 0.155 0 0.02 0.155 0 0.04 0.155 0 0.06 0.155 0 0.08 0.155 0 0.1 0.155 0 0 0.16 0 0.02 0.16 0 0.04 0.16 0 0.06 0.16 0 0.08 0.16 0 0.1 0.16 0 0 0.165 0 0.02 0.165 0 0.04 0.165 0 0.06 0.165 0 0.08 0.165 0 0.1 0.165 0 0 0.17 0 0.02 0.17 0 0.04 0.17 0 0.06 0.17 0 0.08 0.17 0 0.1 0.17 0 0 0.175 0 0.02 0.175 0 0.04 0.175 0 0.06 0.175 0 0.08 0.175 0 0.1 0.175 0 0 0.18 0 0.02 0.18 0 0.04 0.18 0 0.06 0.18 0 0.08 0.18 0 0.1 0.18 0 0 0.185 0 0.02 0.185 0 0.04 0.185 0 0.06 0.185 0 0.08 0.185 0 0.1 0.185 0 0 0.19 0 0.02 0.19 0 0.04 0.19 0 0.06 0.19 0 0.08 0.19 0 0.1 0.19 0 0 0.195 0 0.02 0.195 0 0.04 0.195 0 0.06 0.195 0 0.08 0.195 0 0.1 0.195 0 0 0.2 0 0.02 0.2 0 0.04 0.2 0 0.06 0.2 0 0.08 0.2 0 0.1 0.2 0 0 0.205 0 0.02 0.205 0 0.04 0.205 0 0.06 0.205 0 0.08 0.205 0 0.1 0.205 0 0 0.21 0 0.02 0.21 0 0.04 0.21 0 0.06 0.21 0 0.08 0.21 0 0.1 0.21 0 0 0.215 0 0.02 0.215 0 0.04 0.215 0 0.06 0.215 0 0.08 0.215 0 0.1 0.215 0 0 0.22 0 0.02 0.22 0 0.04 0.22 0 0.06 0.22 0 0.08 0.22 0 0.1 0.22 0 0 0.225 0 0.02 0.225 0 0.04 0.225 0 0.06 0.225 0 0.08 0.225 0 0.1 0.225 0 0 0.23 0 0.02 0.23 0 0.04 0.23 0 0.06 0.23 0 0.08 0.23 0 0.1 0.23 0 0 0.235 0 0.02 0.235 0 0.04 0.235 0 0.06 0.235 0 0.08 0.235 0 0.1 0.235 0 0 0.24 0 0.02 0.24 0 0.04 0.24 0 0.06 0.24 0 0.08 0.24 0 0.1 0.24 0 0 0.245 0 0.02 0.245 0 0.04 0.245 0 0.06 0.245 0 0.08 0.245 0 0.1 0.245 0 0 0.25 0 0.02 0.25 0 0.04 0.25 0 0.06 0.25 0 0.08 0.25 0 0.1 0.25 0 0 0.255 0 0.02 0.255 0 0.04 0.255 0 0.06 0.255 0 0.08 0.255 0 0.1 0.255 0 0 0.26 0 0.02 0.26 0 0.04 0.26 0 0.06 0.26 0 0.08 0.26 0 0.1 0.26 0 0 0.265 0 0.02 0.265 0 0.04 0.265 0 0.06 0.265 0 0.08 0.265 0 0.1 0.265 0 0 0.27 0 0.02 0.27 0 0.04 0.27 0 0.06 0.27 0 0.08 0.27 0 0.1 0.27 0 0 0.275 0 0.02 0.275 0 0.04 0.275 0 0.06 0.275 0 0.08 0.275 0 0.1 0.275 0 0 0.28 0 0.02 0.28 0 0.04 0.28 0 0.06 0.28 0 0.08 0.28 0 0.1 0.28 0 0 0.285 0 0.02 0.285 0 0.04 0.285 0 0.06 0.285 0 0.08 0.285 0 0.1 0.285 0 0 0.29 0 0.02 0.29 0 0.04 0.29 0 0.06 0.29 0 0.08 0.29 0 0.1 0.29 0 0 0.295 0 0.02 0.295 0 0.04 0.295 0 0.06 0.295 0 0.08 0.295 0 0.1 0.295 0 0 0.3 0 0.02 0.3 0 0.04 0.3 0 0.06 0.3 0 0.08 0.3 0 0.1 0.3 0 0 0.305 0 0.02 0.305 0 0.04 0.305 0 0.06 0.305 0 0.08 0.305 0 0.1 0.305 0 0 0.31 0 0.02 0.31 0 0.04 0.31 0 0.06 0.31 0 0.08 0.31 0 0.1 0.31 0 0 0.315 0 0.02 0.315 0 0.04 0.315 0 0.06 0.315 0 0.08 0.315 0 0.1 0.315 0 0 0.32 0 0.02 0.32 0 0.04 0.32 0 0.06 0.32 0 0.08 0.32 0 0.1 0.32 0 0 0.325 0 0.02 0.325 0 0.04 0.325 0 0.06 0.325 0 0.08 0.325 0 0.1 0.325 0 0 0.33 0 0.02 0.33 0 0.04 0.33 0 0.06 0.33 0 0.08 0.33 0 0.1 0.33 0 0 0.335 0 0.02 0.335 0 0.04 0.335 0 0.06 0.335 0 0.08 0.335 0 0.1 0.335 0 0 0.34 0 0.02 0.34 0 0.04 0.34 0 0.06 0.34 0 0.08 0.34 0 0.1 0.34 0 0 0.345 0 0.02 0.345 0 0.04 0.345 0 0.06 0.345 0 0.08 0.345 0 0.1 0.345 0 0 0.35 0 0.02 0.35 0 0.04 0.35 0 0.06 0.35 0 0.08 0.35 0 0.1 0.35 0 0 0.355 0 0.02 0.355 0 0.04 0.355 0 0.06 0.355 0 0.08 0.355 0 0.1 0.355 0 0 0.36 0 0.02 0.36 0 0.04 0.36 0 0.06 0.36 0 0.08 0.36 0 0.1 0.36 0 0 0.365 0 0.02 0.365 0 0.04 0.365 0 0.06 0.365 0 0.08 0.365 0 0.1 0.365 0 0 0.37 0 0.02 0.37 0 0.04 0.37 0 0.06 0.37 0 0.08 0.37 0 0.1 0.37 0 0 0.375 0 0.02 0.375 0 0.04 0.375 0 0.06 0.375 0 0.08 0.375 0 0.1 0.375 0 0 0.38 0 0.02 0.38 0 0.04 0.38 0 0.06 0.38 0 0.08 0.38 0 0.1 0.38 0 0 0.385 0 0.02 0.385 0 0.04 0.385 0 0.06 0.385 0 0.08 0.385 0 0.1 0.385 0 0 0.39 0 0.02 0.39 0 0.04 0.39 0 0.06 0.39 0 0.08 0.39 0 0.1 0.39 0 0 0.395 0 0.02 0.395 0 0.04 0.395 0 0.06 0.395 0 0.08 0.395 0 0.1 0.395 0 0 0.4 0 0.02 0.4 0 0.04 0.4 0 0.06 0.4 0 0.08 0.4 0 0.1 0.4 0 0 0.405 0 0.02 0.405 0 0.04 0.405 0 0.06 0.405 0 0.08 0.405 0 0.1 0.405 0 0 0.41 0 0.02 0.41 0 0.04 0.41 0 0.06 0.41 0 0.08 0.41 0 0.1 0.41 0 0 0.415 0 0.02 0.415 0 0.04 0.415 0 0.06 0.415 0 0.08 0.415 0 0.1 0.415 0 0 0.42 0 0.02 0.42 0 0.04 0.42 0 0.06 0.42 0 0.08 0.42 0 0.1 0.42 0 0 0.425 0 0.02 0.425 0 0.04 0.425 0 0.06 0.425 0 0.08 0.425 0 0.1 0.425 0 0 0.43 0 0.02 0.43 0 0.04 0.43 0 0.06 0.43 0 0.08 0.43 0 0.1 0.43 0 0 0.435 0 0.02 0.435 0 0.04 0.435 0 0.06 0.435 0 0.08 0.435 0 0.1 0.435 0 0 0.44 0 0.02 0.44 0 0.04 0.44 0 0.06 0.44 0 0.08 0.44 0 0.1 0.44 0 0 0.445 0 0.02 0.445 0 0.04 0.445 0 0.06 0.445 0 0.08 0.445 0 0.1 0.445 0 0 0.45 0 0.02 0.45 0 0.04 0.45 0 0.06 0.45 0 0.08 0.45 0 0.1 0.45 0 0 0.455 0 0.02 0.455 0 0.04 0.455 0 0.06 0.455 0 0.08 0.455 0 0.1 0.455 0 0 0.46 0 0.02 0.46 0 0.04 0.46 0 0.06 0.46 0 0.08 0.46 0 0.1 0.46 0 0 0.465 0 0.02 0.465 0 0.04 0.465 0 0.06 0.465 0 0.08 0.465 0 0.1 0.465 0 0 0.47 0 0.02 0.47 0 0.04 0.47 0 0.06 0.47 0 0.08 0.47 0 0.1 0.47 0 0 0.475 0 0.02 0.475 0 0.04 0.475 0 0.06 0.475 0 0.08 0.475 0 0.1 0.475 0 0 0.48 0 0.02 0.48 0 0.04 0.48 0 0.06 0.48 0 0.08 0.48 0 0.1 0.48 0 0 0.485 0 0.02 0.485 0 0.04 0.485 0 0.06 0.485 0 0.08 0.485 0 0.1 0.485 0 0 0.49 0 0.02 0.49 0 0.04 0.49 0 0.06 0.49 0 0.08 0.49 0 0.1 0.49 0 0 0.495 0 0.02 0.495 0 0.04 0.495 0 0.06 0.495 0 0.08 0.495 0 0.1 0.495 0 0 0.5 0 0.02 0.5 0 0.04 0.5 0 0.06 0.5 0 0.08 0.5 0 0.1 0.5 0 0 0.505 0 0.02 0.505 0 0.04 0.505 0 0.06 0.505 0 0.08 0.505 0 0.1 0.505 0 0 0.51 0 0.02 0.51 0 0.04 0.51 0 0.06 0.51 0 0.08 0.51 0 0.1 0.51 0 0 0.515 0 0.02 0.515 0 0.04 0.515 0 0.06 0.515 0 0.08 0.515 0 0.1 0.515 0 0 0.52 0 0.02 0.52 0 0.04 0.52 0 0.06 0.52 0 0.08 0.52 0 0.1 0.52 0 0 0.525 0 0.02 0.525 0 0.04 0.525 0 0.06 0.525 0 0.08 0.525 0 0.1 0.525 0 0 0.53 0 0.02 0.53 0 0.04 0.53 0 0.06 0.53 0 0.08 0.53 0 0.1 0.53 0 0 0.535 0 0.02 0.535 0 0.04 0.535 0 0.06 0.535 0 0.08 0.535 0 0.1 0.535 0 0 0.54 0 0.02 0.54 0 0.04 0.54 0 0.06 0.54 0 0.08 0.54 0 0.1 0.54 0 0 0.545 0 0.02 0.545 0 0.04 0.545 0 0.06 0.545 0 0.08 0.545 0 0.1 0.545 0 0 0.55 0 0.02 0.55 0 0.04 0.55 0 0.06 0.55 0 0.08 0.55 0 0.1 0.55 0 0 0.555 0 0.02 0.555 0 0.04 0.555 0 0.06 0.555 0 0.08 0.555 0 0.1 0.555 0 0 0.56 0 0.02 0.56 0 0.04 0.56 0 0.06 0.56 0 0.08 0.56 0 0.1 0.56 0 0 0.565 0 0.02 0.565 0 0.04 0.565 0 0.06 0.565 0 0.08 0.565 0 0.1 0.565 0 0 0.57 0 0.02 0.57 0 0.04 0.57 0 0.06 0.57 0 0.08 0.57 0 0.1 0.57 0 0 0.575 0 0.02 0.575 0 0.04 0.575 0 0.06 0.575 0 0.08 0.575 0 0.1 0.575 0 0 0.58 0 0.02 0.58 0 0.04 0.58 0 0.06 0.58 0 0.08 0.58 0 0.1 0.58 0 0 0.585 0 0.02 0.585 0 0.04 0.585 0 0.06 0.585 0 0.08 0.585 0 0.1 0.585 0 0 0.59 0 0.02 0.59 0 0.04 0.59 0 0.06 0.59 0 0.08 0.59 0 0.1 0.59 0 0 0.595 0 0.02 0.595 0 0.04 0.595 0 0.06 0.595 0 0.08 0.595 0 0.1 0.595 0 0 0.6 0 0.02 0.6 0 0.04 0.6 0 0.06 0.6 0 0.08 0.6 0 0.1 0.6 0 0 0.605 0 0.02 0.605 0 0.04 0.605 0 0.06 0.605 0 0.08 0.605 0 0.1 0.605 0 0 0.61 0 0.02 0.61 0 0.04 0.61 0 0.06 0.61 0 0.08 0.61 0 0.1 0.61 0 0 0.615 0 0.02 0.615 0 0.04 0.615 0 0.06 0.615 0 0.08 0.615 0 0.1 0.615 0 0 0.62 0 0.02 0.62 0 0.04 0.62 0 0.06 0.62 0 0.08 0.62 0 0.1 0.62 0 0 0.625 0 0.02 0.625 0 0.04 0.625 0 0.06 0.625 0 0.08 0.625 0 0.1 0.625 0 0 0.63 0 0.02 0.63 0 0.04 0.63 0 0.06 0.63 0 0.08 0.63 0 0.1 0.63 0 0 0.635 0 0.02 0.635 0 0.04 0.635 0 0.06 0.635 0 0.08 0.635 0 0.1 0.635 0 0 0.64 0 0.02 0.64 0 0.04 0.64 0 0.06 0.64 0 0.08 0.64 0 0.1 0.64 0 0 0.645 0 0.02 0.645 0 0.04 0.645 0 0.06 0.645 0 0.08 0.645 0 0.1 0.645 0 0 0.65 0 0.02 0.65 0 0.04 0.65 0 0.06 0.65 0 0.08 0.65 0 0.1 0.65 0 0 0.655 0 0.02 0.655 0 0.04 0.655 0 0.06 0.655 0 0.08 0.655 0 0.1 0.655 0 0 0.66 0 0.02 0.66 0 0.04 0.66 0 0.06 0.66 0 0.08 0.66 0 0.1 0.66 0 0 0.665 0 0.02 0.665 0 0.04 0.665 0 0.06 0.665 0 0.08 0.665 0 0.1 0.665 0 0 0.67 0 0.02 0.67 0 0.04 0.67 0 0.06 0.67 0 0.08 0.67 0 0.1 0.67 0 0 0.675 0 0.02 0.675 0 0.04 0.675 0 0.06 0.675 0 0.08 0.675 0 0.1 0.675 0 0 0.68 0 0.02 0.68 0 0.04 0.68 0 0.06 0.68 0 0.08 0.68 0 0.1 0.68 0 0 0.685 0 0.02 0.685 0 0.04 0.685 0 0.06 0.685 0 0.08 0.685 0 0.1 0.685 0 0 0.69 0 0.02 0.69 0 0.04 0.69 0 0.06 0.69 0 0.08 0.69 0 0.1 
[...]
			<PointData Scalars="VitesseX">
				<DataArray Name="VitesseX" type="Float32" format="ascii">
 0 4.91743e-14 7.52168e-14 4.27834e-14 2.73311e-14 0 0 5.09997e-14 7.45037e-14 3.82658e-14 3.00091e-14 0 0 5.66783e-14 6.34372e-14 4.25722e-14 2.5317e-14 0 0 6.04138e-14 5.06864e-14 4.5478e-14 2.05866e-14 0 0 5.17318e-14 4.64685e-14 3.78817e-14 2.80042e-14 0 0 4.76995e-14 2.57438e-14 5.18536e-14 2.39326e-14 0 0 4.59489e-14 1.74762e-14 6.07671e-14 3.99037e-15 0 0 3.22946e-14 3.87958e-14 4.68345e-14 -3.48633e-15 0 0 1.82454e-14 6.79919e-14 5.33664e-15 3.07833e-14 0 0 2.1701e-14 7.60632e-14 -1.97197e-14 6.0986e-14 0 0 4.71336e-14 4.01016e-14 1.28758e-14 4.81991e-14 0 0 5.07981e-14 2.67388e-14 3.87753e-14 2.66257e-14 0 0 -5.34056e-15 9.77492e-14 -3.54782e-15 3.93084e-14 0 0 1.02655e-14 6.32457e-14 4.634e-14 1.18541e-14 0 0 2.63079e-14 5.00081e-14 5.89412e-14 2.36239e-14 0 0 -2.56894e-14 1.35868e-13 -3.48713e-15 6.97743e-14 0 0 8.64444e-15 7.41355e-14 7.57201e-14 4.57902e-14 0 0 1.99909e-14 5.78723e-14 1.08749e-13 5.05784e-14 0 0 2.30097e-14 7.90797e-14 8.7464e-14 8.92528e-14 0 0 3.52734e-14 9.28486e-14 4.58848e-14 1.30931e-13 0 0 1.41164e-14 1.37231e-13 1.47479e-14 1.30789e-13 0 0 8.32081e-14 2.45336e-14 1.50349e-13 3.669e-14 0 0 8.74754e-14 2.43448e-14 1.43076e-13 4.02002e-14 0 0 4.13948e-14 1.17788e-13 1.79643e-14 1.30878e-13 0 0 4.6976e-14 1.00597e-13 6.19076e-14 8.33852e-14 0 0 4.20473e-14 1.04106e-13 6.89215e-14 5.71678e-14 0 0 2.58994e-14 1.5073e-13 -3.7836e-15 1.08854e-13 0 0 7.89903e-14 1.06426e-13 6.92934e-15 1.19239e-13 0 0 1.20667e-13 6.05176e-14 4.31697e-14 6.5681e-14 0 0 1.31612e-13 4.85511e-14 1.09668e-13 -4.22029e-14 0 0 1.59311e-13 3.0393e-14 1.36949e-13 -4.98395e-14 0 0 1.31297e-13 7.76045e-14 7.33753e-14 1.81515e-14 0 0 6.46521e-14 1.73502e-13 -9.80879e-15 2.5385e-14 0 0 3.21358e-14 2.10028e-13 -9.94441e-15 1.77184e-14 0 0 3.42744e-14 1.8872e-13 6.23354e-14 -3.14599e-14 0 0 1.14046e-14 2.37251e-13 5.40952e-14 -7.77367e-14 0 0 3.16838e-14 2.37659e-13 1.60227e-14 -2.35876e-14 0 0 4.80921e-14 1.97117e-13 4.5532e-14 9.45789e-15 0 0 8.91581e-14 1.09581e-13 1.65717e-13 -7.08747e-14 0 0 1.03096e-13 1.10192e-13 1.07371e-13 -6.91075e-14 0 0 3.57795e-14 2.032e-13 -8.30819e-14 4.14562e-14 0 0 3.45106e-14 1.59503e-13 -7.34628e-14 2.39847e-14 0 0 7.70283e-14 5.98265e-14 -2.45707e-14 2.15388e-14 0 0 5.59244e-14 6.66182e-14 -5.16614e-14 4.28473e-14 0 0 2.647e-14 1.02142e-13 -3.13618e-14 2.6546e-15 0 0 6.55893e-14 5.11643e-14 9.52547e-14 -9.95626e-14 0 0 8.57003e-14 1.58496e-14 2.37392e-13 -1.9907e-13 0 0 -7.76535e-14 2.14686e-13 1.67505e-13 -1.58733e-13 0 0 -1.25687e-13 3.07426e-13 8.69927e-14 -7.23804e-14 0 0 -1.50035e-14 2.6345e-13 6.12798e-14 -7.21971e-15 0 0 -3.7055e-17 3.29417e-13 2.1291e-14 1.33668e-14 0 0 7.95845e-14 2.02462e-13 1.63138e-13 -9.79974e-15 0 0 1.55396e-13 4.65195e-14 4.00663e-13 -1.43005e-13 0 0 7.20836e-14 1.69951e-13 4.03662e-13 -1.97146e-13 0 0 -6.02204e-14 3.71079e-13 1.52369e-13 2.7225e-14 0 0 -1.84485e-13 4.01906e-13 4.32537e-14 2.57e-13 0 0 -1.48188e-13 1.97113e-13 2.38392e-13 2.91155e-13 0 0 1.63445e-14 3.76843e-14 3.48411e-13 3.30306e-13 0 0 -9.35114e-14 2.24766e-13 2.44049e-13 3.72741e-13 0 0 -2.84084e-13 3.1288e-13 2.69922e-13 3.58477e-13 0 0 -3.19482e-13 1.35469e-13 4.27143e-13 3.42862e-13 0 0 -3.40273e-13 4.70514e-14 4.79026e-13 3.05858e-13 0 0 -4.03154e-13 1.3995e-13 4.5589e-13 2.20702e-13 0 0 -4.07847e-13 2.4805e-13 3.96654e-13 1.83336e-13 0 0 -2.7966e-13 2.15838e-13 4.20091e-13 1.33882e-13 0 0 -1.97558e-13 2.79445e-13 3.62217e-13 1.17314e-13 0 0 -8.04053e-14 3.00529e-13 2.56833e-13 1.61238e-13 0 0 6.98348e-14 2.06236e-13 2.10803e-13 2.02026e-13 0 0 1.24213e-13 1.35376e-13 2.32402e-13 1.86102e-13 0 0 9.76893e-14 9.25585e-14 3.41401e-13 4.28396e-14 0 0 1.17432e-13 8.77933e-14 3.86686e-13 -1.23647e-13 0 0 1.83791e-13 1.94621e-13 1.53114e-13 -9.63156e-14 0 0 1.77929e-13 3.97268e-13 -2.40278e-13 6.46395e-14 0 0 1.42464e-13 4.90693e-13 -4.16267e-13 2.28503e-14 0 0 9.70849e-14 3.67174e-13 -2.39468e-13 -1.71922e-13 0 0 1.73787e-13 1.37532e-13 6.516e-14 -4.46421e-13 0 0 3.93246e-13 -2.04026e-13 1.5628e-13 -3.79723e-13 0 0 4.1332e-13 -1.58699e-13 -2.16321e-14 -6.84671e-14 0 0 3.16735e-13 4.13307e-14 -4.6123e-13 5.45136e-13 0 0 2.51367e-13 2.52574e-14 -4.48413e-13 5.62839e-13 0 0 2.67074e-13 -1.13494e-13 -3.10029e-13 4.62942e-13 0 0 1.8343e-13 -1.7183e-13 -1.8923e-13 3.69156e-13 0 0 -5.73008e-14 3.32913e-14 -3.4762e-13 3.90537e-13 0 0 -3.58992e-13 2.84318e-13 -3.66657e-13 2.85557e-13 0 0 -3.18674e-13 1.36262e-13 -1.47167e-13 -2.04603e-14 0 0 -1.44553e-13 -2.79614e-13 2.7927e-13 -2.63605e-13 0 0 -4.36785e-14 -5.47309e-13 3.89054e-13 -2.53518e-13 0 0 -1.04503e-13 -4.79089e-13 2.52311e-13 -9.82356e-14 0 0 -2.73107e-13 -2.15975e-13 -1.17831e-13 1.65289e-13 0 0 -3.02122e-13 -1.33701e-13 -3.77778e-13 4.50724e-13 0 0 -1.85058e-13 -2.63793e-13 -4.45203e-13 6.02323e-13 0 0 -3.10078e-16 -4.79541e-13 -4.43632e-13 6.46793e-13 0 0 1.31535e-15 -5.35104e-13 -4.12053e-13 6.23854e-13 0 0 -1.32906e-13 -4.79999e-13 -3.34728e-13 4.68347e-13 0 0 -4.13021e-13 -3.19072e-13 -1.97841e-13 1.27084e-13 0 0 -6.82223e-13 -1.38731e-13 -6.12366e-14 -2.55784e-13 0 0 -7.66906e-13 -6.29213e-14 1.10272e-14 -4.66574e-13 0 0 -7.34563e-13 -6.84616e-14 7.87996e-15 -5.61994e-13 0 0 -5.77761e-13 -1.60154e-13 -2.35055e-14 -5.53405e-13 0 0 -3.97531e-13 -2.28755e-13 -1.2432e-13 -4.47542e-13 0 0 -3.69294e-13 -1.63185e-13 -3.03686e-13 -2.65757e-13 0 0 -3.6733e-13 -1.2425e-13 -5.38665e-13 -1.02366e-14 0 0 -3.51837e-13 -1.84704e-13 -5.91814e-13 2.82835e-13 0 0 -2.82437e-13 -3.58367e-13 -5.41477e-13 3.33042e-13 0 0 -2.79057e-13 -5.17969e-13 -3.44297e-13 2.61417e-13 0 0 -3.22415e-13 -5.88104e-13 1.45964e-15 6.5129e-14 0 0 -3.66367e-13 -6.05755e-13 2.2536e-13 -1.47625e-13 0 0 -3.26281e-13 -6.14475e-13 2.96355e-13 -2.75833e-13 0 0 -2.27142e-13 -5.94398e-13 2.58164e-13 -2.71025e-13 0 0 -1.0961e-13 -5.70085e-13 1.70726e-13 -2.17823e-13 0 0 -4.29655e-14 -4.9328e-13 2.74399e-14 -1.36382e-13 0 0 -3.8446e-14 -3.15647e-13 -1.93145e-13 4.90422e-14 0 0 -5.20278e-14 -1.78596e-13 -1.97421e-13 1.08464e-13 0 0 -4.91954e-14 -9.89773e-14 -1.72498e-13 9.52413e-14 0 0 -5.50537e-15 -1.06886e-13 -9.97139e-14 1.03497e-13 0 0 8.50571e-14 -8.51913e-14 -1.1526e-13 1.56101e-13 0 0 1.90271e-13 -6.05884e-14 -1.17596e-13 1.8065e-13 0 0 2.18548e-13 -5.60872e-14 -6.99658e-14 2.38291e-13 0 0 2.10679e-13 -2.43807e-14 -5.20712e-14 3.17447e-13 0 0 2.26626e-13 -3.60497e-14 -9.55494e-17 2.8439e-13 0 0 2.50291e-13 -4.68864e-14 5.21964e-14 3.12011e-13 0 0 2.45622e-13 -4.33701e-14 1.10911e-13 3.3291e-13 0 0 2.50227e-13 -3.1601e-14 1.82189e-13 3.64163e-13 0 0 2.56792e-13 4.92915e-14 1.29149e-13 4.12136e-13 0 0 2.54115e-13 1.47364e-13 1.32027e-13 3.81274e-13 0 0 2.4502e-13 2.38319e-13 1.86129e-13 3.0124e-13 0 0 2.37803e-13 3.495e-13 1.65049e-13 2.20199e-13 0 0 2.57202e-13 3.83813e-13 1.69324e-13 1.63522e-13 0 0 3.07035e-13 3.70038e-13 2.29845e-13 1.20216e-13 0 0 3.33074e-13 3.39438e-13 3.26533e-13 7.53997e-14 0 0 3.57313e-13 3.17543e-13 3.96843e-13 2.34069e-14 0 0 3.65398e-13 3.48495e-13 3.56279e-13 2.55651e-14 0 0 3.56835e-13 3.85557e-13 2.93354e-13 7.65106e-14 0 0 3.38276e-13 3.6642e-13 3.19834e-13 9.393e-14 0 0 2.95381e-13 3.42077e-13 3.86379e-13 4.26898e-14 0 0 2.52674e-13 3.49207e-13 4.05072e-13 -2.71406e-14 0 0 2.44971e-13 3.61122e-13 3.84185e-13 -1.35301e-14 0 0 2.39195e-13 3.63907e-13 3.32227e-13 5.41528e-14 0 0 2.27897e-13 3.84943e-13 2.44854e-13 1.36231e-13 0 0 2.35241e-13 3.90033e-13 2.07535e-13 1.74463e-13 0 0 2.57012e-13 3.72452e-13 2.01536e-13 2.05014e-13 0 0 2.59348e-13 3.52598e-13 1.68543e-13 3.06095e-13 0 0 2.42308e-13 3.24354e-13 1.86345e-13 3.71977e-13 0 0 2.09029e-13 3.16898e-13 2.67137e-13 3.32327e-13 0 0 1.61091e-13 3.19941e-13 3.30023e-13 2.64366e-13 0 0 1.35382e-13 2.80575e-13 4.40264e-13 1.43997e-13 0 0 1.05968e-13 2.49876e-13 4.59559e-13 7.76863e-14 0 0 9.20857e-14 2.51279e-13 3.71398e-13 6.96884e-14 0 0 1.01165e-13 2.18731e-13 2.84246e-13 3.11087e-14 0 0 9.29222e-14 1.82574e-13 2.27288e-13 -5.58307e-14 0 0 8.09969e-14 1.5077e-13 1.33315e-13 -2.40967e-13 0 0 7.88451e-14 1.11268e-13 5.82642e-14 -3.69874e-13 0 0 5.71977e-14 8.74674e-14 2.50197e-14 -3.3517e-13 0 0 1.85139e-14 6.37017e-14 2.16271e-14 -1.19818e-13 0 0 -7.60441e-15 -3.05813e-14 7.65427e-14 3.75915e-13 0 0 -2.29177e-14 -1.88403e-13 2.10831e-13 5.04411e-13 0 0 -4.14992e-14 -2.18929e-13 2.47849e-13 3.40107e-13 0 0 -1.20066e-13 -1.60968e-14 8.04999e-14 1.99095e-13 0 0 -1.44367e-13 4.82681e-14 1.20843e-13 1.72364e-14 0 0 -5.70421e-14 -7.68054e-14 2.39433e-13 4.29265e-14 0 0 -5.23631e-14 -1.33641e-14 1.14072e-13 1.58515e-13 0 0 -5.17103e-14 -5.54024e-14 1.47561e-13 1.69211e-13 0 0 -4.65482e-14 -1.0862e-13 6.35541e-14 3.64368e-13 0 0 -2.19266e-15 -1.98939e-13 1.306e-13 2.79464e-13 0 0 6.40533e-17 -2.03368e-13 1.9183e-13 1.61593e-13 0 0 3.6475e-15 -2.25605e-13 2.80879e-13 8.79019e-14 0 0 -2.66526e-17 -2.30355e-13 2.7578e-13 1.65419e-13 0 0 -6.07578e-14 -1.04906e-13 1.21217e-13 2.3702e-13 0 0 -5.09145e-14 -1.45003e-13 2.22558e-13 7.39868e-14 0 0 -2.40257e-14 -2.24681e-13 2.69115e-13 6.44438e-14 0 0 -3.38949e-14 -2.21824e-13 2.00702e-13 2.35398e-13 0 0 -9.21667e-14 -1.60325e-13 1.30515e-13 4.21093e-13 0 0 -4.88902e-14 -1.73623e-13 1.35579e-13 3.67873e-13 0 0 -6.99701e-14 -5.28038e-14 -2.07449e-14 3.88304e-13 0 0 -7.93505e-14 -3.55591e-14 1.8082e-14 3.37276e-13 0 0 -3.49866e-14 -2.19537e-14 7.84387e-14 2.1024e-13 0 0 -4.58481e-15 2.41443e-14 7.631e-14 9.7076e-14 0 0 1.36491e-13 -1.81819e-13 4.27792e-13 -1.89638e-13 0 0 8.61876e-14 -4.60675e-15 2.91406e-13 -1.36183e-13 0 0 1.2339e-13 6.14983e-14 1.54838e-13 -2.19234e-14 0 0 2.27873e-13 -2.3652e-14 2.07875e-13 2.88488e-14 0 0 2.60063e-13 2.09912e-14 1.10343e-13 1.5443e-13 0 0 3.62809e-13 -4.21126e-14 1.89566e-13 1.52882e-13 0 0 2.89641e-13 1.26936e-13 9.66181e-14 1.86999e-13 0 0 3.05737e-13 1.23222e-13 1.06243e-13 1.88091e-13 0 0 3.91899e-13 1.10309e-14 1.42514e-13 3.42872e-13 0 0 4.54369e-13 -2.03946e-13 4.21219e-13 1.13528e-13 0 0 3.05326e-13 1.62384e-13 -2.878e-14 3.78371e-13 0 0 1.7507e-13 4.76287e-13 -3.8182e-13 6.80835e-13 0 0 1.20543e-13 2.61182e-13 2.9803e-14 3.1055e-13 0 0 2.61631e-13 -1.79683e-13 3.5781e-13 1.76797e-13 0 0 2.92559e-13 -1.99743e-13 2.57874e-13 3.84547e-13 0 0 -4.41248e-14 4.25342e-13 -4.24681e-13 9.08016e-13 0 0 3.75516e-14 4.1994e-13 -5.47835e-13 1.04081e-12 0 0 3.45921e-13 7.98359e-14 -2.62598e-13 7.65431e-13 0 0 2.74352e-13 2.16409e-13 -2.14673e-13 3.99492e-13 0 0 3.06796e-13 1.97016e-13 -8.97855e-14 2.13385e-13 0 0 5.36892e-13 -1.95234e-13 3.36772e-13 -7.30644e-14 0 0 3.46985e-13 1.7362e-13 2.20389e-15 -8.66626e-15 0 0 4.98783e-13 2.29379e-13 -4.34215e-13 3.63285e-13 0 0 8.28922e-13 -1.07477e-13 -4.08163e-13 4.51522e-13 0
				</DataArray>
				<DataArray Name="VitesseY" type="Float32" format="ascii">