<?xml version="1.0"?>
<VTKFile type="PolyData">
	<PolyData>
		<Piece NumberOfPoints="1206" NumberOfPolys="1000">
			<Points>
				<DataArray type="Float32" NumberOfComponents="3" format="ascii">
 0 0 0 0.02 0 0 0.04 0 0 0.06 0 0 0.08 0 0 0.1 0 0 0 0.005 0 0.02 0.005 0 0.04 0.005 0 0.06 0.005 0 0.08 0.005 0 0.1 0.005 0 0 0.01 0 0.02 0.01 0 0.04 0.01 0 0.06 0.01 0 0.08 0.01 0 0.1 0.01 0 0 0.015 0 0.02 0.015 0 0.04 0.015 0 0.06 0.015 0 0.08 0.015 0 0.1 0.015 0 0 0.02 0 0.02 0.02 0 0.04 0.02 0 0.06 0.02 0 0.08 0.02 0 0.1 0.02 0 0 0.025 0 0.02 0.025 0 0.04 0.025 0 0.06 0.025 0 0.08 0.025 0 0.1 0.025 0 0 0.03 0 0.02 0.03 0 0.04 0.03 0 0.06 0.03 0 0.08 0.03 0 0.1 0.03 0 0 0.035 0 0.02 0.035 0 0.04 0.035 0 0.06 0.035 0 0.08 0.035 0 0.1 0.035 0 0 0.04 0 0.02 0.04 0 0.04 0.04 0 0.06 0.04 0 0.08 0.04 0 0.1 0.04 0 0 0.045 0 0.02 0.045 0 0.04 0.045 0 0.06 0.045 0 0.08 0.045 0 0.1 0.045 0 0 0.05 0 0.02 0.05 0 0.04 0.05 0 0.06 0.05 0 0.08 0.05 0 0.1 0.05 0 0 0.055 0 0.02 0.055 0 0.04 0.055 0 0.06 0.055 0 0.08 0.055 0 0.1 0.055 0 0 0.06 0 0.02 0.06 0 0.04 0.06 0 0.06 0.06 0 0.08 0.06 0 0.1 0.06 0 0 0.065 0 0.02 0.065 0 0.04 0.065 0 0.06 0.065 0 0.08 0.065 0 0.1 0.065 0 0 0.07 0 0.02 0.07 0 0.04 0.07 0 0.06 0.07 0 0.08 0.07 0 0.1 0.07 0 0 0.075 0 0.02 0.075 0 0.04 0.075 0 0.06 0.075 0 0.08 0.075 0 0.1 0.075 0 0 0.08 0 0.02 0.08 0 0.04 0.08 0 0.06 0.08 0 0.08 0.08 0 0.1 0.08 0 0 0.085 0 0.02 0.085 0 0.04 0.085 0 0.06 0.085 0 0.08 0.085 0 0.1 0.085 0 0 0.09 0 0.02 0.09 0 0.04 0.09 0 0.06 0.09 0 0.08 0.09 0 0.1 0.09 0 0 0.095 0 0.02 0.095 0 0.04 0.095 0 0.06 0.095 0 0.08 0.095 0 0.1 0.095 0 0 0.1 0 0.02 0.1 0 0.04 0.1 0 0.06 0.1 0 0.08 0.1 0 0.1 0.1 0 0 0.105 0 0.02 0.105 0 0.04 0.105 0 0.06 0.105 0 0.08 0.105 0 0.1 0.105 0 0 0.11 0 0.02 0.11 0 0.04 0.11 0 0.06 0.11 0 0.08 0.11 0 0.1 0.11 0 0 0.115 0 0.02 0.115 0 0.04 0.115 0 0.06 0.115 0 0.08 0.115 0 0.1 0.115 0 0 0.12 0 0.02 0.12 0 0.04 0.12 0 0.06 0.12 0 0.08 0.12 0 0.1 0.12 0 0 0.125 0 0.02 0.125 0 0.04 0.125 0 0.06 0.125 0 0.08 0.125 0 0.1 0.125 0 0 0.13 0 0.02 0.13 0 0.04 0.13 0 0.06 0.13 0 0.08 0.13 0 0.1 0.13 0 0 0.135 0 0.02 0.135 0 0.04 0.135 0 0.06 0.135 0 0.08 0.135 0 0.1 0.135 0 0 0.14 0 0.02 0.14 0 0.04 0.14 0 0.06 0.14 0 0.08 0.14 0 0.1 0.14 0 0 0.145 0 0.02 0.145 0 0.04 0.145 0 0.06 0.145 0 0.08 0.145 0 0.1 0.145 0 0 0.15 0 0.02 0.15 0 0.04 0.15 0 0.06 0.15 0 0.08 0.15 0 0.1 0.15 0 0 0.155 0 0.02 0.155 0 0.04 0.155 0 0.06 0.155 0 0.08 0.155 0 0.1 0.155 0 0 0.16 0 0.02 0.16 0 0.04 0.16 0 0.06 0.16 0 0.08 0.16 0 0.1 0.16 0 0 0.165 0 0.02 0.165 0 0.04 0.165 0 0.06 0.165 0 0.08 0.165 0 0.1 0.165 0 0 0.17 0 0.02 0.17 0 0.04 0.17 0 0.06 0.17 0 0.08 0.17 0 0.1 0.17 0 0 0.175 0 0.02 0.175 0 0.04 0.175 0 0.06 0.175 0 0.08 0.175 0 0.1 0.175 0 0 0.18 0 0.02 0.18 0 0.04 0.18 0 0.06 0.18 0 0.08 0.18 0 0.1 0.18 0 0 0.185 0 0.02 0.185 0 0.04 0.185 0 0.06 0.185 0 0.08 0.185 0 0.1 0.185 0 0 0.19 0 0.02 0.19 0 0.04 0.19 0 0.06 0.19 0 0.08 0.19 0 0.1 0.19 0 0 0.195 0 0.02 0.195 0 0.04 0.195 0 0.06 0.195 0 0.08 0.195 0 0.1 0.195 0 0 0.2 0 0.02 0.2 0 0.04 0.2 0 0.06 0.2 0 0.08 0.2 0 0.1 0.2 0 0 0.205 0 0.02 0.205 0 0.04 0.205 0 0.06 0.205 0 0.08 0.205 0 0.1 0.205 0 0 0.21 0 0.02 0.21 0 0.04 0.21 0 0.06 0.21 0 0.08 0.21 0 0.1 0.21 0 0 0.215 0 0.02 0.215 0 0.04 0.215 0 0.06 0.215 0 0.08 0.215 0 0.1 0.215 0 0 0.22 0 0.02 0.22 0 0.04 0.22 0 0.06 0.22 0 0.08 0.22 0 0.1 0.22 0 0 0.225 0 0.02 0.225 0 0.04 0.225 0 0.06 0.225 0 0.08 0.225 0 0.1 0.225 0 0 0.23 0 0.02 0.23 0 0.04 0.23 0 0.06 0.23 0 0.08 0.23 0 0.1 0.23 0 0 0.235 0 0.02 0.235 0 0.04 0.235 0 0.06 0.235 0 0.08 0.235 0 0.1 0.235 0 0 0.24 0 0.02 0.24 0 0.04 0.24 0 0.06 0.24 0 0.08 0.24 0 0.1 0.24 0 0 0.245 0 0.02 0.245 0 0.04 0.245 0 0.06 0.245 0 0.08 0.245 0 0.1 0.245 0 0 0.25 0 0.02 0.25 0 0.04 0.25 0 0.06 0.25 0 0.08 0.25 0 0.1 0.25 0 0 0.255 0 0.02 0.255 0 0.04 0.255 0 0.06 0.255 0 0.08 0.255 0 0.1 0.255 0 0 0.26 0 0.02 0.26 0 0.04 0.26 0 0.06 0.26 0 0.08 0.26 0 0.1 0.26 0 0 0.265 0 0.02 0.265 0 0.04 0.265 0 0.06 0.265 0 0.08 0.265 0 0.1 0.265 0 0 0.27 0 0.02 0.27 0 0.04 0.27 0 0.06 0.27 0 0.08 0.27 0 0.1 0.27 0 0 0.275 0 0.02 0.275 0 0.04 0.275 0 0.06 0.275 0 0.08 0.275 0 0.1 0.275 0 0 0.28 0 0.02 0.28 0 0.04 0.28 0 0.06 0.28 0 0.08 0.28 0 0.1 0.28 0 0 0.285 0 0.02 0.285 0 0.04 0.285 0 0.06 0.285 0 0.08 0.285 0 0.1 0.285 0 0 0.29 0 0.02 0.29 0 0.04 0.29 0 0.06 0.29 0 0.08 0.29 0 0.1 0.29 0 0 0.295 0 0.02 0.295 0 0.04 0.295 0 0.06 0.295 0 0.08 0.295 0 0.1 0.295 0 0 0.3 0 0.02 0.3 0 0.04 0.3 0 0.06 0.3 0 0.08 0.3 0 0.1 0.3 0 0 0.305 0 0.02 0.305 0 0.04 0.305 0 0.06 0.305 0 0.08 0.305 0 0.1 0.305 0 0 0.31 0 0.02 0.31 0 0.04 0.31 0 0.06 0.31 0 0.08 0.31 0 0.1 0.31 0 0 0.315 0 0.02 0.315 0 0.04 0.315 0 0.06 0.315 0 0.08 0.315 0 0.1 0.315 0 0 0.32 0 0.02 0.32 0 0.04 0.32 0 0.06 0.32 0 0.08 0.32 0 0.1 0.32 0 0 0.325 0 0.02 0.325 0 0.04 0.325 0 0.06 0.325 0 0.08 0.325 0 0.1 0.325 0 0 0.33 0 0.02 0.33 0 0.04 0.33 0 0.06 0.33 0 0.08 0.33 0 0.1 0.33 0 0 0.335 0 0.02 0.335 0 0.04 0.335 0 0.06 0.335 0 0.08 0.335 0 0.1 0.335 0 0 0.34 0 0.02 0.34 0 0.04 0.34 0 0.06 0.34 0 0.08 0.34 0 0.1 0.34 0 0 0.345 0 0.02 0.345 0 0.04 0.345 0 0.06 0.345 0 0.08 0.345 0 0.1 0.345 0 0 0.35 0 0.02 0.35 0 0.04 0.35 0 0.06 0.35 0 0.08 0.35 0 0.1 0.35 0 0 0.355 0 0.02 0.355 0 0.04 0.355 0 0.06 0.355 0 0.08 0.355 0 0.1 0.355 0 0 0.36 0 0.02 0.36 0 0.04 0.36 0 0.06 0.36 0 0.08 0.36 0 0.1 0.36 0 0 0.365 0 0.02 0.365 0 0.04 0.365 0 0.06 0.365 0 0.08 0.365 0 0.1 0.365 0 0 0.37 0 0.02 0.37 0 0.04 0.37 0 0.06 0.37 0 0.08 0.37 0 0.1 0.37 0 0 0.375 0 0.02 0.375 0 0.04 0.375 0 0.06 0.375 0 0.08 0.375 0 0.1 0.375 0 0 0.38 0 0.02 0.38 0 0.04 0.38 0 0.06 0.38 0 0.08 0.38 0 0.1 0.38 0 0 0.385 0 0.02 0.385 0 0.04 0.385 0 0.06 0.385 0 0.08 0.385 0 0.1 0.385 0 0 0.39 0 0.02 0.39 0 0.04 0.39 0 0.06 0.39 0 0.08 0.39 0 0.1 0.39 0 0 0.395 0 0.02 0.395 0 0.04 0.395 0 0.06 0.395 0 0.08 0.395 0 0.1 0.395 0 0 0.4 0 0.02 0.4 0 0.04 0.4 0 0.06 0.4 0 0.08 0.4 0 0.1 0.4 0 0 0.405 0 0.02 0.405 0 0.04 0.405 0 0.06 0.405 0 0.08 0.405 0 0.1 0.405 0 0 0.41 0 0.02 0.41 0 0.04 0.41 0 0.06 0.41 0 0.08 0.41 0 0.1 0.41 0 0 0.415 0 0.02 0.415 0 0.04 0.415 0 0.06 0.415 0 0.08 0.415 0 0.1 0.415 0 0 0.42 0 0.02 0.42 0 0.04 0.42 0 0.06 0.42 0 0.08 0.42 0 0.1 0.42 0 0 0.425 0 0.02 0.425 0 0.04 0.425 0 0.06 0.425 0 0.08 0.425 0 0.1 0.425 0 0 0.43 0 0.02 0.43 0 0.04 0.43 0 0.06 0.43 0 0.08 0.43 0 0.1 0.43 0 0 0.435 0 0.02 0.435 0 0.04 0.435 0 0.06 0.435 0 0.08 0.435 0 0.1 0.435 0 0 0.44 0 0.02 0.44 0 0.04 0.44 0 0.06 0.44 0 0.08 0.44 0 0.1 0.44 0 0 0.445 0 0.02 0.445 0 0.04 0.445 0 0.06 0.445 0 0.08 0.445 0 0.1 0.445 0 0 0.45 0 0.02 0.45 0 0.04 0.45 0 0.06 0.45 0 0.08 0.45 0 0.1 0.45 0 0 0.455 0 0.02 0.455 0 0.04 0.455 0 0.06 0.455 0 0.08 0.455 0 0.1 0.455 0 0 0.46 0 0.02 0.46 0 0.04 0.46 0 0.06 0.46 0 0.08 0.46 0 0.1 0.46 0 0 0.465 0 0.02 0.465 0 0.04 0.465 0 0.06 0.465 0 0.08 0.465 0 0.1 0.465 0 0 0.47 0 0.02 0.47 0 0.04 0.47 0 0.06 0.47 0 0.08 0.47 0 0.1 0.47 0 0 0.475 0 0.02 0.475 0 0.04 0.475 0 0.06 0.475 0 0.08 0.475 0 0.1 0.475 0 0 0.48 0 0.02 0.48 0 0.04 0.48 0 0.06 0.48 0 0.08 0.48 0 0.1 0.48 0 0 0.485 0 0.02 0.485 0 0.04 0.485 0 0.06 0.485 0 0.08 0.485 0 0.1 0.485 0 0 0.49 0 0.02 0.49 0 0.04 0.49 0 0.06 0.49 0 0.08 0.49 0 0.1 0.49 0 0 0.495 0 0.02 0.495 0 0.04 0.495 0 0.06 0.495 0 0.08 0.495 0 0.1 0.495 0 0 0.5 0 0.02 0.5 0 0.04 0.5 0 0.06 0.5 0 0.08 0.5 0 0.1 0.5 0 0 0.505 0 0.02 0.505 0 0.04 0.505 0 0.06 0.505 0 0.08 0.505 0 0.1 0.505 0 0 0.51 0 0.02 0.51 0 0.04 0.51 0 0.06 0.51 0 0.08 0.51 0 0.1 0.51 0 0 0.515 0 0.02 0.515 0 0.04 0.515 0 0.06 0.515 0 0.08 0.515 0 0.1 0.515 0 0 0.52 0 0.02 0.52 0 0.04 0.52 0 0.06 0.52 0 0.08 0.52 0 0.1 0.52 0 0 0.525 0 0.02 0.525 0 0.04 0.525 0 0.06 0.525 0 0.08 0.525 0 0.1 0.525 0 0 0.53 0 0.02 0.53 0 0.04 0.53 0 0.06 0.53 0 0.08 0.53 0 0.1 0.53 0 0 0.535 0 0.02 0.535 0 0.04 0.535 0 0.06 0.535 0 0.08 0.535 0 0.1 0.535 0 0 0.54 0 0.02 0.54 0 0.04 0.54 0 0.06 0.54 0 0.08 0.54 0 0.1 0.54 0 0 0.545 0 0.02 0.545 0 0.04 0.545 0 0.06 0.545 0 0.08 0.545 0 0.1 0.545 0 0 0.55 0 0.02 0.55 0 0.04 0.55 0 0.06 0.55 0 0.08 0.55 0 0.1 0.55 0 0 0.555 0 0.02 0.555 0 0.04 0.555 0 0.06 0.555 0 0.08 0.555 0 0.1 0.555 0 0 0.56 0 0.02 0.56 0 0.04 0.56 0 0.06 0.56 0 0.08 0.56 0 0.1 0.56 0 0 0.565 0 0.02 0.565 0 0.04 0.565 0 0.06 0.565 0 0.08 0.565 0 0.1 0.565 0 0 0.57 0 0.02 0.57 0 0.04 0.57 0 0.06 0.57 0 0.08 0.57 0 0.1 0.57 0 0 0.575 0 0.02 0.575 0 0.04 0.575 0 0.06 0.575 0 0.08 0.575 0 0.1 0.575 0 0 0.58 0 0.02 0.58 0 0.04 0.58 0 0.06 0.58 0 0.08 0.58 0 0.1 0.58 0 0 0.585 0 0.02 0.585 0 0.04 0.585 0 0.06 0.585 0 0.08 0.585 0 0.1 0.585 0 0 0.59 0 0.02 0.59 0 0.04 0.59 0 0.06 0.59 0 0.08 0.59 0 0.1 0.59 0 0 0.595 0 0.02 0.595 0 0.04 0.595 0 0.06 0.595 0 0.08 0.595 0 0.1 0.595 0 0 0.6 0 0.02 0.6 0 0.04 0.6 0 0.06 0.6 0 0.08 0.6 0 0.1 0.6 0 0 0.605 0 0.02 0.605 0 0.04 0.605 0 0.06 0.605 0 0.08 0.605 0 0.1 0.605 0 0 0.61 0 0.02 0.61 0 0.04 0.61 0 0.06 0.61 0 0.08 0.61 0 0.1 0.61 0 0 0.615 0 0.02 0.615 0 0.04 0.615 0 0.06 0.615 0 0.08 0.615 0 0.1 0.615 0 0 0.62 0 0.02 0.62 0 0.04 0.62 0 0.06 0.62 0 0.08 0.62 0 0.1 0.62 0 0 0.625 0 0.02 0.625 0 0.04 0.625 0 0.06 0.625 0 0.08 0.625 0 0.1 0.625 0 0 0.63 0 0.02 0.63 0 0.04 0.63 0 0.06 0.63 0 0.08 0.63 0 0.1 0.63 0 0 0.635 0 0.02 0.635 0 0.04 0.635 0 0.06 0.635 0 0.08 0.635 0 0.1 0.635 0 0 0.64 0 0.02 0.64 0 0.04 0.64 0 0.06 0.64 0 0.08 0.64 0 0.1 0.64 0 0 0.645 0 0.02 0.645 0 0.04 0.645 0 0.06 0.645 0 0.08 0.645 0 0.1 0.645 0 0 0.65 0 0.02 0.65 0 0.04 0.65 0 0.06 0.65 0 0.08 0.65 0 0.1 0.65 0 0 0.655 0 0.02 0.655 0 0.04 0.655 0 0.06 0.655 0 0.08 0.655 0 0.1 0.655 0 0 0.66 0 0.02 0.66 0 0.04 0.66 0 0.06 0.66 0 0.08 0.66 0 0.1 0.66 0 0 0.665 0 0.02 0.665 0 0.04 0.665 0 0.06 0.665 0 0.08 0.665 0 0.1 0.665 0 0 0.67 0 0.02 0.67 0 0.04 0.67 0 0.06 0.67 0 0.08 0.67 0 0.1 0.67 0 0 0.675 0 0.02 0.675 0 0.04 0.675 0 0.06 0.675 0 0.08 0.675 0 0.1 0.675 0 0 0.68 0 0.02 0.68 0 0.04 0.68 0 0.06 0.68 0 0.08 0.68 0 0.1 0.68 0 0 0.685 0 0.02 0.685 0 0.04 0.685 0 0.06 0.685 0 0.08 0.685 0 0.1 0.685 0 0 0.69 0 0.02 0.69 0 0.04 0.69 0 0.06 0.69 0 0.08 0.69 0 0.1 
[...]
			<PointData Scalars="VitesseX">
				<DataArray Name="VitesseX" type="Float32" format="ascii">
 0 4.8154e-14 5.28617e-14 4.57105e-14 2.5535e-14 0 0 5.04914e-14 5.00183e-14 4.31372e-14 2.89849e-14 0 0 4.64596e-14 5.3598e-14 3.18567e-14 3.68033e-14 0 0 4.55661e-14 4.35723e-14 4.06036e-14 2.77924e-14 0 0 4.1499e-14 3.19782e-14 5.29465e-14 2.25866e-14 0 0 3.13853e-14 3.04426e-14 5.21274e-14 2.81081e-14 0 0 1.66583e-14 4.30198e-14 4.16518e-14 2.93413e-14 0 0 2.33431e-14 1.95399e-14 6.162e-14 2.65964e-14 0 0 2.16253e-14 1.5311e-14 5.0301e-14 4.63543e-14 0 0 -3.63958e-15 6.85808e-14 -2.30542e-14 9.36827e-14 0 0 1.84253e-14 4.36636e-14 -4.98763e-15 8.09874e-14 0 0 2.33876e-14 2.40327e-14 3.54623e-14 3.64172e-14 0 0 5.14489e-15 3.54946e-14 5.39852e-14 2.88698e-15 0 0 2.73883e-14 1.22566e-15 8.80796e-14 -9.69262e-15 0 0 2.67546e-14 1.91047e-14 5.35554e-14 3.11007e-14 0 0 2.06286e-14 4.43875e-14 4.34873e-14 3.44234e-14 0 0 7.16474e-15 8.01617e-14 4.38838e-14 3.10805e-14 0 0 3.27374e-14 4.32117e-14 1.17072e-13 -1.13385e-14 0 0 5.03954e-14 4.51838e-14 9.20897e-14 1.96236e-14 0 0 4.09729e-14 1.13693e-13 -2.14969e-14 9.15958e-14 0 0 1.01215e-13 3.5903e-14 7.91647e-14 6.42905e-15 0 0 1.02931e-13 4.89997e-14 6.97977e-14 5.97573e-15 0 0 4.87409e-14 1.68583e-13 -7.89502e-14 9.76103e-14 0 0 5.65485e-14 1.90611e-13 -1.36143e-13 1.5177e-13 0 0 1.36006e-13 4.6627e-14 1.98668e-15 8.79888e-14 0 0 1.0179e-13 6.37326e-14 1.60213e-14 7.75457e-14 0 0 1.05257e-13 4.67189e-14 4.21925e-14 3.26455e-14 0 0 1.36697e-13 3.55853e-14 -9.18222e-15 4.78739e-14 0 0 1.08698e-13 1.02594e-13 -1.20314e-13 9.08405e-14 0 0 1.41065e-13 -1.46642e-14 5.56683e-14 -4.95118e-14 0 0 6.85749e-14 7.81339e-14 -4.25119e-14 1.66299e-14 0 0 3.14492e-14 1.07148e-13 -4.99372e-14 -2.17068e-15 0 0 6.40297e-14 2.14826e-14 1.07287e-13 -1.51011e-13 0 0 6.49833e-14 5.16842e-14 4.51151e-14 -1.02054e-13 0 0 6.80497e-14 7.59836e-14 -1.21081e-14 -7.15153e-15 0 0 7.84835e-14 8.73473e-14 -1.39814e-14 2.95233e-14 0 0 8.59006e-14 5.05156e-14 6.04613e-14 -2.87501e-14 0 0 7.51092e-14 2.68164e-14 1.15789e-13 -5.60872e-14 0 0 4.21073e-14 6.27065e-14 7.60116e-14 3.25295e-17 0 0 6.80161e-14 -2.15047e-14 1.746e-13 -7.0842e-14 0 0 1.60313e-13 -1.84739e-13 3.13582e-13 -1.61461e-13 0 0 5.24259e-14 8.95187e-15 1.18172e-13 -8.21377e-14 0 0 1.93735e-15 1.12342e-13 5.60754e-14 -5.53498e-14 0 0 4.85398e-15 1.12505e-13 8.23207e-14 7.65178e-15 0 0 -1.16262e-14 1.97843e-13 5.56246e-14 7.87482e-14 0 0 8.00267e-14 1.81922e-13 9.43158e-14 6.5406e-14 0 0 6.79813e-14 2.60003e-13 6.65444e-14 5.70561e-14 0 0 6.06512e-14 2.88562e-13 8.73318e-14 3.29856e-14 0 0 4.96909e-14 2.3127e-13 2.23757e-13 -4.42902e-14 0 0 2.94623e-15 2.30082e-13 3.38124e-13 -1.04215e-13 0 0 4.39335e-14 2.57012e-13 2.59453e-13 2.63774e-14 0 0 7.08564e-14 2.22433e-13 2.48356e-13 1.12816e-13 0 0 3.59185e-15 2.13111e-13 2.61635e-13 1.82218e-13 0 0 4.0724e-14 9.31466e-14 3.41856e-13 2.27608e-13 0 0 1.73795e-13 -1.73833e-13 6.56339e-13 8.38077e-14 0 0 3.93764e-14 -8.78358e-15 5.74331e-13 1.76294e-13 0 0 -9.91343e-14 2.24721e-13 3.31025e-13 3.37186e-13 0 0 -2.19101e-13 2.9278e-13 2.78386e-13 3.67798e-13 0 0 -1.11652e-13 -1.07088e-15 5.34974e-13 2.16828e-13 0 0 -1.40081e-13 -2.92084e-14 5.22977e-13 1.57663e-13 0 0 -2.91617e-13 2.40822e-13 2.63942e-13 1.82227e-13 0 0 -1.64933e-13 2.29283e-13 2.6405e-13 6.53123e-14 0 0 -2.00264e-13 4.59219e-13 5.1196e-14 1.29301e-13 0 0 -1.2426e-13 5.24013e-13 -6.14323e-14 1.91285e-13 0 0 4.35798e-14 3.35007e-13 6.55059e-14 1.50673e-13 0 0 2.21698e-13 8.76464e-14 2.18837e-13 6.25503e-14 0 0 3.72603e-13 -7.95125e-14 2.23878e-13 9.50244e-14 0 0 3.41046e-13 -1.76556e-14 5.02996e-14 2.5492e-13 0 0 2.33835e-13 1.48796e-13 -1.75639e-13 3.87797e-13 0 0 1.10228e-13 3.11855e-13 -2.48257e-13 3.18476e-13 0 0 2.39051e-13 1.39461e-13 -7.45198e-14 8.92552e-14 0 0 4.37659e-13 -4.88124e-14 -3.94627e-14 -3.53269e-14 0 0 3.54419e-13 1.01288e-13 -2.97853e-13 1.20587e-13 0 0 2.90332e-13 2.2807e-13 -5.16019e-13 9.77587e-14 0 0 3.32961e-13 9.46241e-14 -3.80686e-13 -2.17882e-14 0 0 3.5987e-13 -8.26546e-14 -2.10026e-13 -2.07295e-13 0 0 3.79281e-13 -3.22663e-13 -7.98664e-16 -1.63042e-13 0 0 3.47805e-13 -2.94969e-13 -1.05806e-13 6.27377e-14 0 0 2.23312e-13 -1.17267e-13 -4.16732e-13 5.4136e-13 0 0 1.06553e-13 -1.23814e-13 -3.75417e-13 5.92043e-13 0 0 1.45262e-13 -3.18686e-13 -1.76201e-13 4.97664e-13 0 0 1.18277e-13 -3.88624e-13 1.68726e-14 3.3364e-13 0 0 -2.82753e-14 -2.5707e-13 -7.07568e-14 2.86415e-13 0 0 -2.95069e-13 -7.30304e-15 -1.33893e-13 2.30433e-13 0 0 -3.69762e-13 -3.09467e-14 -8.5355e-14 1.19666e-13 0 0 -3.12216e-13 -1.4946e-13 5.05371e-14 -5.05587e-14 0 0 -1.58444e-13 -4.0009e-13 2.23683e-13 -1.8672e-13 0 0 6.74733e-14 -6.48525e-13 2.70387e-13 -2.53493e-13 0 0 1.24771e-13 -6.62866e-13 1.81741e-13 -2.20478e-13 0 0 8.71444e-14 -5.34388e-13 -1.59475e-13 9.74781e-15 0 0 7.99536e-15 -3.39316e-13 -4.11588e-13 1.423e-13 0 0 2.82988e-14 -3.52961e-13 -3.64036e-13 6.2102e-14 0 0 9.34575e-14 -5.06933e-13 -1.5215e-13 -1.68423e-13 0 0 4.29016e-14 -5.44179e-13 8.87142e-15 -3.45824e-13 0 0 -1.00157e-13 -4.99581e-13 4.28406e-14 -4.22624e-13 0 0 -2.99102e-13 -3.81566e-13 6.38144e-14 -5.18344e-13 0 0 -5.72438e-13 -1.75687e-13 7.75326e-14 -7.09043e-13 0 0 -7.68981e-13 5.39412e-14 3.97646e-14 -7.99569e-13 0 0 -7.73773e-13 1.334e-13 -2.73176e-14 -8.00615e-13 0 0 -7.04952e-13 1.34613e-13 -1.35168e-13 -7.5269e-13 0 0 -5.06177e-13 4.17229e-14 -2.59609e-13 -6.16065e-13 0 0 -1.27045e-13 -2.1546e-13 -3.57974e-13 -4.06776e-13 0 0 2.35787e-13 -5.16511e-13 -5.21196e-13 -6.77116e-14 0 0 2.66655e-13 -5.87095e-13 -6.83894e-13 3.4146e-13 0 0 1.56862e-13 -5.40215e-13 -7.00225e-13 3.86253e-13 0 0 -2.17116e-14 -4.68003e-13 -6.83954e-13 3.54061e-13 0 0 -1.56799e-13 -4.17305e-13 -6.16118e-13 2.64964e-13 0 0 -2.83347e-13 -3.92729e-13 -4.19648e-13 8.17271e-14 0 0 -3.42846e-13 -4.01528e-13 -1.4227e-13 -1.81815e-13 0 0 -3.54047e-13 -3.90855e-13 -6.38565e-14 -3.03232e-13 0 0 -3.39655e-13 -3.70281e-13 -3.25737e-14 -3.508e-13 0 0 -2.85352e-13 -3.509e-13 -5.91325e-14 -2.95557e-13 0 0 -2.42004e-13 -3.0633e-13 -1.31235e-13 -2.05212e-13 0 0 -1.91305e-13 -2.36876e-13 -1.78421e-13 -1.1021e-13 0 0 -1.27035e-13 -2.31408e-13 -1.26737e-13 -9.41734e-14 0 0 -1.30976e-13 -1.49571e-13 -1.69358e-13 -2.78984e-14 0 0 -1.45227e-13 -7.52576e-14 -1.79884e-13 1.97825e-14 0 0 -1.03655e-13 -1.17885e-13 -6.87731e-14 1.77223e-15 0 0 -2.731e-14 -1.38398e-13 -3.60476e-15 8.71455e-15 0 0 4.05113e-14 -1.21423e-13 1.15714e-14 6.60739e-14 0 0 9.03129e-14 -6.59593e-14 -6.46744e-14 1.8321e-13 0 0 1.60371e-13 -8.89351e-14 -5.10969e-14 3.12884e-13 0 0 2.32036e-13 -1.7774e-13 1.3701e-13 2.51666e-13 0 0 2.26227e-13 -1.75861e-13 2.46872e-13 2.19687e-13 0 0 2.1015e-13 -1.20291e-13 2.49009e-13 2.6789e-13 0 0 2.19081e-13 -3.90342e-14 2.28589e-13 3.17531e-13 0 0 2.02908e-13 6.01325e-14 1.91327e-13 3.22452e-13 0 0 1.79506e-13 1.82319e-13 2.04902e-13 2.7662e-13 0 0 1.61862e-13 2.72617e-13 2.12453e-13 2.00967e-13 0 0 1.42084e-13 3.45563e-13 2.12171e-13 1.60234e-13 0 0 1.56769e-13 3.73487e-13 2.16232e-13 1.66989e-13 0 0 2.0664e-13 3.55121e-13 2.3754e-13 1.3829e-13 0 0 2.83364e-13 3.28432e-13 2.48384e-13 1.0979e-13 0 0 3.27986e-13 2.83938e-13 2.35264e-13 1.3267e-13 0 0 3.22433e-13 2.5306e-13 2.1567e-13 1.90118e-13 0 0 3.30152e-13 1.97059e-13 2.62978e-13 1.70596e-13 0 0 3.36236e-13 1.53363e-13 3.38025e-13 7.43464e-14 0 0 2.89775e-13 1.79274e-13 3.32982e-13 6.91799e-14 0 0 2.49811e-13 2.00628e-13 3.10272e-13 1.04541e-13 0 0 2.30148e-13 2.38145e-13 2.41671e-13 1.64808e-13 0 0 2.41585e-13 2.18817e-13 2.36431e-13 1.79179e-13 0 0 2.87951e-13 1.41617e-13 3.2262e-13 1.08254e-13 0 0 3.13945e-13 1.16487e-13 3.82819e-13 6.97611e-14 0 0 2.80535e-13 2.01536e-13 2.81589e-13 1.58458e-13 0 0 2.65777e-13 2.67535e-13 1.55915e-13 3.1504e-13 0 0 2.78733e-13 2.43823e-13 1.47263e-13 3.07116e-13 0 0 2.47658e-13 2.52664e-13 1.18829e-13 2.65146e-13 0 0 1.86023e-13 2.81271e-13 6.7186e-14 2.31184e-13 0 0 1.53223e-13 2.75023e-13 1.53489e-14 2.38554e-13 0 0 1.55202e-13 2.08609e-13 2.65783e-14 2.50164e-13 0 0 1.38733e-13 1.20874e-13 7.73632e-14 9.33137e-14 0 0 1.14508e-13 1.34561e-13 -1.26924e-15 -1.31915e-13 0 0 9.24311e-14 1.58625e-13 -1.28273e-13 -4.16601e-13 0 0 7.90419e-14 1.5119e-13 -1.80488e-13 -4.95898e-13 0 0 6.60495e-14 1.45916e-13 -2.83818e-13 -3.82783e-13 0 0 6.83005e-15 1.22056e-13 -3.37075e-13 4.94385e-15 0 0 -6.60211e-14 2.31757e-14 -2.57134e-13 3.68592e-13 0 0 -6.2608e-14 -1.42478e-13 -8.11599e-14 3.93517e-13 0 0 -8.11343e-14 -1.3491e-13 3.22126e-14 1.94385e-13 0 0 -1.39062e-13 -5.13296e-14 1.33961e-13 -3.26101e-14 0 0 -1.51197e-13 6.74815e-14 5.87557e-14 1.11783e-13 0 0 -3.20148e-14 1.24483e-13 -2.88706e-14 1.56069e-13 0 0 7.20365e-15 1.77057e-13 4.11611e-14 -1.54132e-13 0 0 3.5579e-15 1.30082e-13 1.70213e-13 -2.76039e-13 0 0 1.99847e-14 1.1535e-13 1.72358e-13 -5.38548e-14 0 0 1.81113e-14 1.42271e-13 2.32277e-13 -1.11102e-13 0 0 3.61268e-14 1.62715e-13 1.66235e-13 -4.66651e-14 0 0 -5.14681e-14 2.7966e-13 -2.02768e-14 2.48378e-13 0 0 -1.09127e-13 3.30171e-13 -8.21421e-14 3.86639e-13 0 0 1.20403e-14 9.37243e-14 1.88913e-13 1.69801e-13 0 0 7.40097e-14 -4.93711e-14 3.79079e-13 -4.259e-14 0 0 3.05196e-15 3.28928e-14 3.09552e-13 1.15742e-14 0 0 1.2239e-14 1.08479e-14 3.55716e-13 1.99747e-14 0 0 5.70195e-14 -2.99449e-14 3.29088e-13 1.07422e-13 0 0 1.30917e-13 -5.37411e-14 2.39572e-13 1.92396e-13 0 0 1.42903e-13 -1.21074e-14 2.74172e-13 1.02808e-13 0 0 1.10276e-13 5.69429e-14 2.98276e-13 8.67737e-14 0 0 1.05667e-13 1.18261e-13 2.51814e-13 1.44775e-13 0 0 1.62264e-13 6.28351e-14 4.11931e-13 7.38393e-14 0 0 9.31054e-14 1.27743e-13 4.16337e-13 1.22886e-13 0 0 1.4421e-13 7.203e-14 5.05621e-13 2.53929e-14 0 0 2.45266e-13 -3.10808e-14 5.9812e-13 -1.09242e-14 0 0 1.43459e-13 1.36833e-13 3.40021e-13 2.35509e-13 0 0 2.4527e-13 4.09281e-14 3.07803e-13 2.59403e-13 0 0 2.64912e-13 5.71506e-14 2.01746e-13 2.78111e-13 0 0 8.4302e-14 3.51055e-13 -3.03762e-14 2.93634e-13 0 0 9.16651e-14 3.8291e-13 -4.85114e-14 2.50128e-13 0 0 1.98092e-13 2.48887e-13 1.06483e-13 6.52821e-14 0 0 2.11025e-13 2.15333e-13 1.86642e-13 -5.06968e-14 0 0 7.23508e-14 3.21014e-13 5.3828e-14 8.46462e-14 0 0 1.13081e-13 1.38464e-13 2.45327e-13 -1.36679e-13 0 0 3.87709e-13 -9.5275e-14 3.51487e-13 -3.39309e-13 0 0 1.35569e-13 4.28875e-13 -1.84167e-13 -9.13404e-14 0 0 6.07325e-14 4.34037e-13 -2.72416e-13 7.27194e-14 0 0 3.84669e-13 -1.8251e-14 -1.58407e-13 1.03564e-13 0 0 3.61828e-13 1.47578e-13 -4.29747e-13 1.13878e-13 0 0 1.20454e-13 4.09397e-13 -5.65938e-13 4.6474e-14 0 0 2.70579e-13 -1.51824e-13 1.29922e-13 -3.6859e-13 0 0 3.38308e-13 -4.35549e-13 3.28586e-13 -3.59632e-13 0 0 2.15229e-13 -2.13878e-13 -1.28159e-13 1.5344e-15 0 0 3.37747e-13 -3.5971e-13 -1.03768e-13 1.24928e-15 0
				</DataArray>
				<DataArray Name="VitesseY" type="Float32" format="ascii">