<?xml version="1.0"?>
<VTKFile type="PolyData">
	<PolyData>
		<Piece NumberOfPoints="1206" NumberOfPolys="1000">
			<Points>
				<DataArray type="Float32" NumberOfComponents="3" format="ascii">
 0 0 0 0.02 0 0 0.04 0 0 0.06 0 0 0.08 0 0 0.1 0 0 0 0.005 0 0.02 0.005 0 0.04 0.005 0 0.06 0.005 0 0.08 0.005 0 0.1 0.005 0 0 0.01 0 0.02 0.01 0 0.04 0.01 0 0.06 0.01 0 0.08 0.01 0 0.1 0.01 0 0 0.015 0 0.02 0.015 0 0.04 0.015 0 0.06 0.015 0 0.08 0.015 0 0.1 0.015 0 0 0.02 0 0.02 0.02 0 0.04 0.02 0 0.06 0.02 0 0.08 0.02 0 0.1 0.02 0 0 0.025 0 0.02 0.025 0 0.04 0.025 0 0.06 0.025 0 0.08 0.025 0 0.1 0.025 0 0 0.03 0 0.02 0.03 0 0.04 0.03 0 0.06 0.03 0 0.08 0.03 0 0.1 0.03 0 0 0.035 0 0.02 0.035 0 0.04 0.035 0 0.06 0.035 0 0.08 0.035 0 0.1 0.035 0 0 0.04 0 0.02 0.04 0 0.04 0.04 0 0.06 0.04 0 0.08 0.04 0 0.1 0.04 0 0 0.045 0 0.02 0.045 0 0.04 0.045 0 0.06 0.045 0 0.08 0.045 0 0.1 0.045 0 0 0.05 0 0.02 0.05 0 0.04 0.05 0 0.06 0.05 0 0.08 0.05 0 0.1 0.05 0 0 0.055 0 0.02 0.055 0 0.04 0.055 0 0.06 0.055 0 0.08 0.055 0 0.1 0.055 0 0 0.06 0 0.02 0.06 0 0.04 0.06 0 0.06 0.06 0 0.08 0.06 0 0.1 0.06 0 0 0.065 0 0.02 0.065 0 0.04 0.065 0 0.06 0.065 0 0.08 0.065 0 0.1 0.065 0 0 0.07 0 0.02 0.07 0 0.04 0.07 0 0.06 0.07 0 0.08 0.07 0 0.1 0.07 0 0 0.075 0 0.02 0.075 0 0.04 0.075 0 0.06 0.075 0 0.08 0.075 0 0.1 0.075 0 0 0.08 0 0.02 0.08 0 0.04 0.08 0 0.06 0.08 0 0.08 0.08 0 0.1 0.08 0 0 0.085 0 0.02 0.085 0 0.04 0.085 0 0.06 0.085 0 0.08 0.085 0 0.1 0.085 0 0 0.09 0 0.02 0.09 0 0.04 0.09 0 0.06 0.09 0 0.08 0.09 0 0.1 0.09 0 0 0.095 0 0.02 0.095 0 0.04 0.095 0 0.06 0.095 0 0.08 0.095 0 0.1 0.095 0 0 0.1 0 0.02 0.1 0 0.04 0.1 0 0.06 0.1 0 0.08 0.1 0 0.1 0.1 0 0 0.105 0 0.02 0.105 0 0.04 0.105 0 0.06 0.105 0 0.08 0.105 0 0.1 0.105 0 0 0.11 0 0.02 0.11 0 0.04 0.11 0 0.06 0.11 0 0.08 0.11 0 0.1 0.11 0 0 0.115 0 0.02 0.115 0 0.04 0.115 0 0.06 0.115 0 0.08 0.115 0 0.1 0.115 0 0 0.12 0 0.02 0.12 0 0.04 0.12 0 0.06 0.12 0 0.08 0.12 0 0.1 0.12 0 0 0.125 0 0.02 0.125 0 0.04 0.125 0 0.06 0.125 0 0.08 0.125 0 0.1 0.125 0 0 0.13 0 0.02 0.13 0 0.04 0.13 0 0.06 0.13 0 0.08 0.13 0 0.1 0.13 0 0 0.135 0 0.02 0.135 0 0.04 0.135 0 0.06 0.135 0 0.08 0.135 0 0.1 0.135 0 0 0.14 0 0.02 0.14 0 0.04 0.14 0 0.06 0.14 0 0.08 0.14 0 0.1 0.14 0 0 0.145 0 0.02 0.145 0 0.04 0.145 0 0.06 0.145 0 0.08 0.145 0 0.1 0.145 0 0 0.15 0 0.02 0.15 0 0.04 0.15 0 0.06 0.15 0 0.08 0.15 0 0.1 0.15 0 0 0.155 0 0.02 0.155 0 0.04 0.155 0 0.06 0.155 0 0.08 0.155 0 0.1 0.155 0 0 0.16 0 0.02 0.16 0 0.04 0.16 0 0.06 0.16 0 0.08 0.16 0 0.1 0.16 0 0 0.165 0 0.02 0.165 0 0.04 0.165 0 0.06 0.165 0 0.08 0.165 0 0.1 0.165 0 0 0.17 0 0.02 0.17 0 0.04 0.17 0 0.06 0.17 0 0.08 0.17 0 0.1 0.17 0 0 0.175 0 0.02 0.175 0 0.04 0.175 0 0.06 0.175 0 0.08 0.175 0 0.1 0.175 0 0 0.18 0 0.02 0.18 0 0.04 0.18 0 0.06 0.18 0 0.08 0.18 0 0.1 0.18 0 0 0.185 0 0.02 0.185 0 0.04 0.185 0 0.06 0.185 0 0.08 0.185 0 0.1 0.185 0 0 0.19 0 0.02 0.19 0 0.04 0.19 0 0.06 0.19 0 0.08 0.19 0 0.1 0.19 0 0 0.195 0 0.02 0.195 0 0.04 0.195 0 0.06 0.195 0 0.08 0.195 0 0.1 0.195 0 0 0.2 0 0.02 0.2 0 0.04 0.2 0 0.06 0.2 0 0.08 0.2 0 0.1 0.2 0 0 0.205 0 0.02 0.205 0 0.04 0.205 0 0.06 0.205 0 0.08 0.205 0 0.1 0.205 0 0 0.21 0 0.02 0.21 0 0.04 0.21 0 0.06 0.21 0 0.08 0.21 0 0.1 0.21 0 0 0.215 0 0.02 0.215 0 0.04 0.215 0 0.06 0.215 0 0.08 0.215 0 0.1 0.215 0 0 0.22 0 0.02 0.22 0 0.04 0.22 0 0.06 0.22 0 0.08 0.22 0 0.1 0.22 0 0 0.225 0 0.02 0.225 0 0.04 0.225 0 0.06 0.225 0 0.08 0.225 0 0.1 0.225 0 0 0.23 0 0.02 0.23 0 0.04 0.23 0 0.06 0.23 0 0.08 0.23 0 0.1 0.23 0 0 0.235 0 0.02 0.235 0 0.04 0.235 0 0.06 0.235 0 0.08 0.235 0 0.1 0.235 0 0 0.24 0 0.02 0.24 0 0.04 0.24 0 0.06 0.24 0 0.08 0.24 0 0.1 0.24 0 0 0.245 0 0.02 0.245 0 0.04 0.245 0 0.06 0.245 0 0.08 0.245 0 0.1 0.245 0 0 0.25 0 0.02 0.25 0 0.04 0.25 0 0.06 0.25 0 0.08 0.25 0 0.1 0.25 0 0 0.255 0 0.02 0.255 0 0.04 0.255 0 0.06 0.255 0 0.08 0.255 0 0.1 0.255 0 0 0.26 0 0.02 0.26 0 0.04 0.26 0 0.06 0.26 0 0.08 0.26 0 0.1 0.26 0 0 0.265 0 0.02 0.265 0 0.04 0.265 0 0.06 0.265 0 0.08 0.265 0 0.1 0.265 0 0 0.27 0 0.02 0.27 0 0.04 0.27 0 0.06 0.27 0 0.08 0.27 0 0.1 0.27 0 0 0.275 0 0.02 0.275 0 0.04 0.275 0 0.06 0.275 0 0.08 0.275 0 0.1 0.275 0 0 0.28 0 0.02 0.28 0 0.04 0.28 0 0.06 0.28 0 0.08 0.28 0 0.1 0.28 0 0 0.285 0 0.02 0.285 0 0.04 0.285 0 0.06 0.285 0 0.08 0.285 0 0.1 0.285 0 0 0.29 0 0.02 0.29 0 0.04 0.29 0 0.06 0.29 0 0.08 0.29 0 0.1 0.29 0 0 0.295 0 0.02 0.295 0 0.04 0.295 0 0.06 0.295 0 0.08 0.295 0 0.1 0.295 0 0 0.3 0 0.02 0.3 0 0.04 0.3 0 0.06 0.3 0 0.08 0.3 0 0.1 0.3 0 0 0.305 0 0.02 0.305 0 0.04 0.305 0 0.06 0.305 0 0.08 0.305 0 0.1 0.305 0 0 0.31 0 0.02 0.31 0 0.04 0.31 0 0.06 0.31 0 0.08 0.31 0 0.1 0.31 0 0 0.315 0 0.02 0.315 0 0.04 0.315 0 0.06 0.315 0 0.08 0.315 0 0.1 0.315 0 0 0.32 0 0.02 0.32 0 0.04 0.32 0 0.06 0.32 0 0.08 0.32 0 0.1 0.32 0 0 0.325 0 0.02 0.325 0 0.04 0.325 0 0.06 0.325 0 0.08 0.325 0 0.1 0.325 0 0 0.33 0 0.02 0.33 0 0.04 0.33 0 0.06 0.33 0 0.08 0.33 0 0.1 0.33 0 0 0.335 0 0.02 0.335 0 0.04 0.335 0 0.06 0.335 0 0.08 0.335 0 0.1 0.335 0 0 0.34 0 0.02 0.34 0 0.04 0.34 0 0.06 0.34 0 0.08 0.34 0 0.1 0.34 0 0 0.345 0 0.02 0.345 0 0.04 0.345 0 0.06 0.345 0 0.08 0.345 0 0.1 0.345 0 0 0.35 0 0.02 0.35 0 0.04 0.35 0 0.06 0.35 0 0.08 0.35 0 0.1 0.35 0 0 0.355 0 0.02 0.355 0 0.04 0.355 0 0.06 0.355 0 0.08 0.355 0 0.1 0.355 0 0 0.36 0 0.02 0.36 0 0.04 0.36 0 0.06 0.36 0 0.08 0.36 0 0.1 0.36 0 0 0.365 0 0.02 0.365 0 0.04 0.365 0 0.06 0.365 0 0.08 0.365 0 0.1 0.365 0 0 0.37 0 0.02 0.37 0 0.04 0.37 0 0.06 0.37 0 0.08 0.37 0 0.1 0.37 0 0 0.375 0 0.02 0.375 0 0.04 0.375 0 0.06 0.375 0 0.08 0.375 0 0.1 0.375 0 0 0.38 0 0.02 0.38 0 0.04 0.38 0 0.06 0.38 0 0.08 0.38 0 0.1 0.38 0 0 0.385 0 0.02 0.385 0 0.04 0.385 0 0.06 0.385 0 0.08 0.385 0 0.1 0.385 0 0 0.39 0 0.02 0.39 0 0.04 0.39 0 0.06 0.39 0 0.08 0.39 0 0.1 0.39 0 0 0.395 0 0.02 0.395 0 0.04 0.395 0 0.06 0.395 0 0.08 0.395 0 0.1 0.395 0 0 0.4 0 0.02 0.4 0 0.04 0.4 0 0.06 0.4 0 0.08 0.4 0 0.1 0.4 0 0 0.405 0 0.02 0.405 0 0.04 0.405 0 0.06 0.405 0 0.08 0.405 0 0.1 0.405 0 0 0.41 0 0.02 0.41 0 0.04 0.41 0 0.06 0.41 0 0.08 0.41 0 0.1 0.41 0 0 0.415 0 0.02 0.415 0 0.04 0.415 0 0.06 0.415 0 0.08 0.415 0 0.1 0.415 0 0 0.42 0 0.02 0.42 0 0.04 0.42 0 0.06 0.42 0 0.08 0.42 0 0.1 0.42 0 0 0.425 0 0.02 0.425 0 0.04 0.425 0 0.06 0.425 0 0.08 0.425 0 0.1 0.425 0 0 0.43 0 0.02 0.43 0 0.04 0.43 0 0.06 0.43 0 0.08 0.43 0 0.1 0.43 0 0 0.435 0 0.02 0.435 0 0.04 0.435 0 0.06 0.435 0 0.08 0.435 0 0.1 0.435 0 0 0.44 0 0.02 0.44 0 0.04 0.44 0 0.06 0.44 0 0.08 0.44 0 0.1 0.44 0 0 0.445 0 0.02 0.445 0 0.04 0.445 0 0.06 0.445 0 0.08 0.445 0 0.1 0.445 0 0 0.45 0 0.02 0.45 0 0.04 0.45 0 0.06 0.45 0 0.08 0.45 0 0.1 0.45 0 0 0.455 0 0.02 0.455 0 0.04 0.455 0 0.06 0.455 0 0.08 0.455 0 0.1 0.455 0 0 0.46 0 0.02 0.46 0 0.04 0.46 0 0.06 0.46 0 0.08 0.46 0 0.1 0.46 0 0 0.465 0 0.02 0.465 0 0.04 0.465 0 0.06 0.465 0 0.08 0.465 0 0.1 0.465 0 0 0.47 0 0.02 0.47 0 0.04 0.47 0 0.06 0.47 0 0.08 0.47 0 0.1 0.47 0 0 0.475 0 0.02 0.475 0 0.04 0.475 0 0.06 0.475 0 0.08 0.475 0 0.1 0.475 0 0 0.48 0 0.02 0.48 0 0.04 0.48 0 0.06 0.48 0 0.08 0.48 0 0.1 0.48 0 0 0.485 0 0.02 0.485 0 0.04 0.485 0 0.06 0.485 0 0.08 0.485 0 0.1 0.485 0 0 0.49 0 0.02 0.49 0 0.04 0.49 0 0.06 0.49 0 0.08 0.49 0 0.1 0.49 0 0 0.495 0 0.02 0.495 0 0.04 0.495 0 0.06 0.495 0 0.08 0.495 0 0.1 0.495 0 0 0.5 0 0.02 0.5 0 0.04 0.5 0 0.06 0.5 0 0.08 0.5 0 0.1 0.5 0 0 0.505 0 0.02 0.505 0 0.04 0.505 0 0.06 0.505 0 0.08 0.505 0 0.1 0.505 0 0 0.51 0 0.02 0.51 0 0.04 0.51 0 0.06 0.51 0 0.08 0.51 0 0.1 0.51 0 0 0.515 0 0.02 0.515 0 0.04 0.515 0 0.06 0.515 0 0.08 0.515 0 0.1 0.515 0 0 0.52 0 0.02 0.52 0 0.04 0.52 0 0.06 0.52 0 0.08 0.52 0 0.1 0.52 0 0 0.525 0 0.02 0.525 0 0.04 0.525 0 0.06 0.525 0 0.08 0.525 0 0.1 0.525 0 0 0.53 0 0.02 0.53 0 0.04 0.53 0 0.06 0.53 0 0.08 0.53 0 0.1 0.53 0 0 0.535 0 0.02 0.535 0 0.04 0.535 0 0.06 0.535 0 0.08 0.535 0 0.1 0.535 0 0 0.54 0 0.02 0.54 0 0.04 0.54 0 0.06 0.54 0 0.08 0.54 0 0.1 0.54 0 0 0.545 0 0.02 0.545 0 0.04 0.545 0 0.06 0.545 0 0.08 0.545 0 0.1 0.545 0 0 0.55 0 0.02 0.55 0 0.04 0.55 0 0.06 0.55 0 0.08 0.55 0 0.1 0.55 0 0 0.555 0 0.02 0.555 0 0.04 0.555 0 0.06 0.555 0 0.08 0.555 0 0.1 0.555 0 0 0.56 0 0.02 0.56 0 0.04 0.56 0 0.06 0.56 0 0.08 0.56 0 0.1 0.56 0 0 0.565 0 0.02 0.565 0 0.04 0.565 0 0.06 0.565 0 0.08 0.565 0 0.1 0.565 0 0 0.57 0 0.02 0.57 0 0.04 0.57 0 0.06 0.57 0 0.08 0.57 0 0.1 0.57 0 0 0.575 0 0.02 0.575 0 0.04 0.575 0 0.06 0.575 0 0.08 0.575 0 0.1 0.575 0 0 0.58 0 0.02 0.58 0 0.04 0.58 0 0.06 0.58 0 0.08 0.58 0 0.1 0.58 0 0 0.585 0 0.02 0.585 0 0.04 0.585 0 0.06 0.585 0 0.08 0.585 0 0.1 0.585 0 0 0.59 0 0.02 0.59 0 0.04 0.59 0 0.06 0.59 0 0.08 0.59 0 0.1 0.59 0 0 0.595 0 0.02 0.595 0 0.04 0.595 0 0.06 0.595 0 0.08 0.595 0 0.1 0.595 0 0 0.6 0 0.02 0.6 0 0.04 0.6 0 0.06 0.6 0 0.08 0.6 0 0.1 0.6 0 0 0.605 0 0.02 0.605 0 0.04 0.605 0 0.06 0.605 0 0.08 0.605 0 0.1 0.605 0 0 0.61 0 0.02 0.61 0 0.04 0.61 0 0.06 0.61 0 0.08 0.61 0 0.1 0.61 0 0 0.615 0 0.02 0.615 0 0.04 0.615 0 0.06 0.615 0 0.08 0.615 0 0.1 0.615 0 0 0.62 0 0.02 0.62 0 0.04 0.62 0 0.06 0.62 0 0.08 0.62 0 0.1 0.62 0 0 0.625 0 0.02 0.625 0 0.04 0.625 0 0.06 0.625 0 0.08 0.625 0 0.1 0.625 0 0 0.63 0 0.02 0.63 0 0.04 0.63 0 0.06 0.63 0 0.08 0.63 0 0.1 0.63 0 0 0.635 0 0.02 0.635 0 0.04 0.635 0 0.06 0.635 0 0.08 0.635 0 0.1 0.635 0 0 0.64 0 0.02 0.64 0 0.04 0.64 0 0.06 0.64 0 0.08 0.64 0 0.1 0.64 0 0 0.645 0 0.02 0.645 0 0.04 0.645 0 0.06 0.645 0 0.08 0.645 0 0.1 0.645 0 0 0.65 0 0.02 0.65 0 0.04 0.65 0 0.06 0.65 0 0.08 0.65 0 0.1 0.65 0 0 0.655 0 0.02 0.655 0 0.04 0.655 0 0.06 0.655 0 0.08 0.655 0 0.1 0.655 0 0 0.66 0 0.02 0.66 0 0.04 0.66 0 0.06 0.66 0 0.08 0.66 0 0.1 0.66 0 0 0.665 0 0.02 0.665 0 0.04 0.665 0 0.06 0.665 0 0.08 0.665 0 0.1 0.665 0 0 0.67 0 0.02 0.67 0 0.04 0.67 0 0.06 0.67 0 0.08 0.67 0 0.1 0.67 0 0 0.675 0 0.02 0.675 0 0.04 0.675 0 0.06 0.675 0 0.08 0.675 0 0.1 0.675 0 0 0.68 0 0.02 0.68 0 0.04 0.68 0 0.06 0.68 0 0.08 0.68 0 0.1 0.68 0 0 0.685 0 0.02 0.685 0 0.04 0.685 0 0.06 0.685 0 0.08 0.685 0 0.1 0.685 0 0 0.69 0 0.02 0.69 0 0.04 0.69 0 0.06 0.69 0 0.08 0.69 0 0.1 
[...]
			<PointData Scalars="VitesseX">
				<DataArray Name="VitesseX" type="Float32" format="ascii">
 0 2.6991e-14 1.79028e-14 4.30812e-14 3.05422e-14 0 0 2.72135e-14 1.62929e-14 4.57554e-14 2.80231e-14 0 0 1.57747e-14 3.28465e-14 2.80742e-14 3.6896e-14 0 0 1.71237e-14 2.63824e-14 3.37043e-14 3.0208e-14 0 0 2.18261e-14 1.43999e-14 4.65947e-14 2.4515e-14 0 0 1.26589e-15 4.06251e-14 2.44031e-14 3.73387e-14 0 0 -1.3476e-14 4.98942e-14 1.76499e-14 3.85461e-14 0 0 -2.33966e-15 1.29189e-14 5.84206e-14 1.77077e-14 0 0 1.18927e-14 -2.08905e-14 9.31413e-14 4.30395e-15 0 0 -1.02016e-14 2.31669e-14 4.01684e-14 5.11537e-14 0 0 -3.17767e-14 7.70445e-14 -2.11044e-14 8.45913e-14 0 0 1.17497e-14 6.28321e-15 5.96776e-14 1.20213e-14 0 0 7.37598e-15 1.5053e-14 7.84153e-14 -2.587e-14 0 0 -1.31739e-15 3.46366e-14 7.16491e-14 -1.90657e-14 0 0 1.9891e-14 -2.42406e-16 1.01691e-13 -1.55555e-14 0 0 1.02518e-14 3.21523e-14 5.83608e-14 2.25246e-14 0 0 -8.35301e-15 7.98386e-14 2.12061e-14 5.45567e-14 0 0 3.79208e-14 1.54773e-14 1.07699e-13 7.83998e-15 0 0 6.21171e-14 -7.62396e-15 1.13959e-13 1.75433e-14 0 0 2.33865e-14 7.55101e-14 -1.6744e-15 9.34778e-14 0 0 5.29887e-14 3.54316e-14 2.72964e-14 5.56251e-14 0 0 5.47134e-14 4.52734e-14 -2.13639e-14 7.91105e-14 0 0 1.90783e-14 1.36211e-13 -1.47394e-13 1.51229e-13 0 0 1.88575e-14 1.49939e-13 -1.66419e-13 1.74441e-13 0 0 9.61356e-14 -3.53369e-15 -1.46374e-14 1.1003e-13 0 0 8.8744e-14 -1.61952e-14 1.09149e-14 1.0037e-13 0 0 9.78572e-14 -3.38775e-14 4.09446e-14 5.7008e-14 0 0 8.4644e-14 1.01508e-14 -4.45575e-14 8.66201e-14 0 0 5.65123e-14 5.73684e-14 -1.13751e-13 1.05489e-13 0 0 7.32184e-14 -1.38448e-14 -4.36762e-15 -8.95609e-15 0 0 1.9527e-14 4.38659e-14 -3.56846e-14 7.85156e-15 0 0 3.85569e-14 3.15048e-14 1.42632e-14 -4.98306e-14 0 0 6.57393e-14 9.42086e-15 1.0429e-13 -1.4662e-13 0 0 4.49078e-14 7.45384e-14 2.63239e-14 -5.28555e-14 0 0 4.29336e-14 7.71767e-14 -3.02695e-15 5.04708e-14 0 0 9.53133e-15 8.79678e-14 5.34158e-14 4.98073e-14 0 0 -1.44654e-14 1.19686e-13 5.93113e-14 3.89193e-14 0 0 -3.56603e-16 7.37607e-14 1.15234e-13 -1.0106e-14 0 0 3.49956e-14 2.84988e-14 1.89506e-13 -3.82627e-14 0 0 5.41314e-14 2.3106e-14 2.46017e-13 2.08564e-14 0 0 9.01636e-15 1.07104e-13 2.05643e-13 1.48622e-13 0 0 7.00808e-14 5.64035e-14 3.01739e-13 1.17445e-13 0 0 4.42235e-14 1.89648e-13 1.49926e-13 2.08475e-13 0 0 5.42242e-14 2.47684e-13 4.33425e-14 2.76316e-13 0 0 1.2145e-13 1.30088e-13 2.03094e-13 1.78075e-13 0 0 8.88158e-14 1.74457e-13 2.2903e-13 1.68948e-13 0 0 6.915e-14 2.32058e-13 1.67987e-13 2.28999e-13 0 0 1.1042e-13 2.12089e-13 1.29446e-13 2.64556e-13 0 0 1.59339e-13 1.08979e-13 1.5964e-13 2.98334e-13 0 0 1.33008e-13 5.7841e-14 1.79764e-13 3.74913e-13 0 0 1.12453e-13 4.24318e-14 2.43466e-13 3.6213e-13 0 0 4.01907e-14 1.57217e-13 1.84903e-13 3.97817e-13 0 0 1.06754e-14 1.94909e-13 1.37281e-13 4.10194e-13 0 0 -1.60715e-14 1.57356e-13 1.27879e-13 3.6461e-13 0 0 -1.82889e-13 2.9003e-13 -1.57399e-14 4.26912e-13 0 0 -1.66052e-13 1.48629e-13 9.66637e-14 3.04391e-13 0 0 -7.56675e-14 3.91606e-14 1.89e-13 1.01239e-13 0 0 -6.14476e-14 1.07067e-13 2.00649e-13 -5.09501e-14 0 0 -8.06409e-14 2.79208e-13 8.42457e-14 -6.95889e-14 0 0 6.54901e-15 2.96058e-13 5.45706e-14 -1.19413e-13 0 0 2.24251e-13 8.52192e-14 1.90858e-13 -2.12952e-13 0 0 2.3127e-13 1.71555e-13 -5.46124e-14 9.60677e-15 0 0 2.22597e-13 1.7357e-13 -2.17776e-13 1.88615e-13 0 0 2.95076e-13 1.49066e-14 -1.264e-13 2.05509e-13 0 0 4.11391e-13 -1.78616e-13 -2.27243e-14 1.6847e-13 0 0 4.87468e-13 -3.90535e-13 1.77892e-13 1.05093e-14 0 0 4.22402e-13 -3.46422e-13 2.07539e-13 -1.50816e-13 0 0 2.84042e-13 -1.76996e-13 6.54185e-14 -1.38529e-13 0 0 1.34057e-13 1.58259e-14 -1.2829e-13 -5.12041e-14 0 0 3.75988e-14 2.31859e-13 -3.51443e-13 -3.64554e-15 0 0 6.45759e-14 1.60742e-13 -2.81252e-13 -4.82523e-14 0 0 1.27838e-13 6.025e-15 -1.56751e-13 -1.67082e-13 0 0 2.5696e-14 7.47486e-14 -1.89203e-13 -1.92296e-13 0 0 -1.39229e-13 4.07802e-14 -1.14737e-13 -2.91613e-13 0 0 -1.3595e-13 -8.9047e-14 -1.35689e-15 -3.37881e-13 0 0 -1.11066e-13 -2.51064e-13 8.80442e-14 -3.31869e-13 0 0 -6.42984e-14 -4.53525e-13 2.00252e-13 -3.29222e-13 0 0 -1.08109e-13 -4.06904e-13 1.73766e-13 -3.15389e-13 0 0 -2.17544e-13 -2.14922e-13 2.02742e-14 -2.29487e-13 0 0 -3.27913e-13 -6.75566e-14 -1.24525e-13 3.18277e-14 0 0 -2.70353e-13 -1.56859e-13 -8.49459e-14 1.6085e-13 0 0 -2.71631e-13 -2.62717e-13 5.27725e-14 1.68828e-13 0 0 -3.74582e-13 -1.67932e-13 1.82571e-14 2.03884e-13 0 0 -5.70349e-13 2.63067e-14 -7.67637e-14 2.43856e-13 0 0 -5.42988e-13 2.71799e-16 -1.69912e-13 2.40765e-13 0 0 -4.38795e-13 -8.4873e-14 -1.88535e-13 1.98638e-13 0 0 -2.2706e-13 -2.2215e-13 -2.5942e-13 1.74608e-13 0 0 -2.29389e-14 -2.85143e-13 -3.76559e-13 1.5325e-13 0 0 7.05719e-15 -2.58309e-13 -4.15152e-13 6.05228e-14 0 0 -1.45783e-14 -1.99676e-13 -4.10913e-13 -1.05768e-13 0 0 -5.10168e-14 -1.63841e-13 -3.19791e-13 -3.47586e-13 0 0 -2.74826e-14 -1.85813e-13 -1.82735e-13 -5.29668e-13 0 0 6.21855e-14 -2.47553e-13 -1.70332e-13 -5.50654e-13 0 0 8.02924e-14 -2.66709e-13 -2.09834e-13 -5.0108e-13 0 0 3.25419e-14 -2.53156e-13 -2.4105e-13 -4.41782e-13 0 0 -8.92865e-14 -2.37016e-13 -2.01152e-13 -4.58023e-13 0 0 -1.96924e-13 -2.22655e-13 -4.11258e-14 -5.96207e-13 0 0 -2.26792e-13 -2.09766e-13 3.39025e-14 -7.78371e-13 0 0 -1.69228e-13 -2.38046e-13 3.23241e-14 -8.16225e-13 0 0 5.44243e-15 -3.46921e-13 -4.45351e-14 -7.48103e-13 0 0 2.45783e-13 -4.19147e-13 -2.3613e-13 -5.53266e-13 0 0 3.22721e-13 -3.70257e-13 -5.91874e-13 -2.4547e-13 0 0 3.60064e-13 -3.00714e-13 -9.4896e-13 1.50057e-13 0 0 4.04396e-13 -3.18689e-13 -9.6649e-13 2.39384e-13 0 0 4.45255e-13 -3.91523e-13 -8.22061e-13 1.02307e-13 0 0 3.88967e-13 -4.6738e-13 -5.05364e-13 -1.89493e-13 0 0 3.08688e-13 -4.4429e-13 -2.96939e-13 -4.58115e-13 0 0 2.68752e-13 -4.10975e-13 -2.04729e-13 -6.22756e-13 0 0 2.21917e-13 -3.51094e-13 -2.41985e-13 -6.08555e-13 0 0 1.29156e-13 -2.89677e-13 -2.79311e-13 -5.85261e-13 0 0 2.77264e-14 -2.70232e-13 -2.91419e-13 -5.68482e-13 0 0 -9.21348e-14 -2.13697e-13 -3.63295e-13 -4.79621e-13 0 0 -1.87127e-13 -1.66279e-13 -4.16427e-13 -3.41483e-13 0 0 -2.1047e-13 -1.50102e-13 -5.02562e-13 -2.06597e-13 0 0 -2.39684e-13 -1.37669e-13 -5.46487e-13 -1.1207e-13 0 0 -2.79652e-13 -1.31033e-13 -5.11427e-13 -1.1263e-13 0 0 -2.83502e-13 -1.2812e-13 -4.37735e-13 -1.70826e-13 0 0 -2.54598e-13 -1.94252e-13 -2.56741e-13 -2.56372e-13 0 0 -2.28224e-13 -2.16531e-13 -1.97292e-13 -2.30179e-13 0 0 -1.9973e-13 -1.92476e-13 -2.04733e-13 -1.96572e-13 0 0 -1.87412e-13 -1.95107e-13 -1.66441e-13 -1.98608e-13 0 0 -1.95236e-13 -1.57054e-13 -1.75208e-13 -1.49722e-13 0 0 -1.90366e-13 -1.35697e-13 -1.69855e-13 -5.23996e-14 0 0 -1.55896e-13 -1.44145e-13 -1.56098e-13 2.47705e-14 0 0 -8.10411e-14 -1.59081e-13 -1.32025e-13 9.17997e-14 0 0 8.14519e-15 -1.9914e-13 -9.71372e-14 1.90405e-13 0 0 8.41933e-14 -2.17034e-13 -5.05356e-14 1.93571e-13 0 0 1.50735e-13 -2.4265e-13 6.16565e-14 1.32166e-13 0 0 1.69916e-13 -2.29062e-13 1.67653e-13 8.86724e-14 0 0 1.52314e-13 -1.86564e-13 2.13918e-13 9.28783e-14 0 0 9.46281e-14 -5.95711e-14 1.83884e-13 1.10839e-13 0 0 8.16752e-15 1.19345e-13 1.48122e-13 9.57767e-14 0 0 -5.51284e-14 1.89024e-13 1.64609e-13 9.2978e-14 0 0 -8.20584e-14 2.38588e-13 1.04568e-13 1.39129e-13 0 0 -8.82366e-14 2.39669e-13 9.58823e-14 1.46932e-13 0 0 -6.64524e-14 1.89808e-13 1.51787e-13 1.14657e-13 0 0 -3.20773e-14 1.28748e-13 1.73089e-13 9.8797e-14 0 0 -9.88652e-15 7.66259e-14 2.07526e-13 5.31448e-14 0 0 2.5386e-14 2.34324e-14 2.27232e-13 3.75464e-14 0 0 1.05922e-13 -4.41923e-14 2.18598e-13 4.86587e-14 0 0 1.58962e-13 -6.72037e-14 2.20043e-13 3.38347e-14 0 0 1.63176e-13 -3.68919e-14 1.83052e-13 2.22785e-15 0 0 1.57534e-13 1.18435e-14 1.58362e-13 8.53824e-15 0 0 1.40275e-13 7.14775e-14 1.47573e-13 -4.48875e-15 0 0 1.42655e-13 7.70372e-14 1.69617e-13 -9.09183e-14 0 0 1.82341e-13 2.90666e-14 1.72169e-13 -7.85994e-14 0 0 2.01257e-13 3.55285e-14 1.05873e-13 3.38264e-14 0 0 1.76622e-13 8.4212e-14 8.66781e-14 1.2703e-14 0 0 1.54589e-13 8.06003e-14 1.55208e-13 -5.59517e-14 0 0 1.50742e-13 3.86236e-14 1.62638e-13 -2.47518e-14 0 0 1.30379e-13 6.20749e-14 3.69599e-14 5.26431e-14 0 0 9.59192e-14 9.33938e-14 -6.27396e-14 -3.62217e-14 0 0 9.08038e-14 4.23949e-14 -3.29507e-14 -1.85118e-13 0 0 7.39122e-14 3.02853e-14 -7.80594e-14 -2.52662e-13 0 0 5.51125e-14 3.86537e-14 -1.90833e-13 -2.9831e-13 0 0 6.35867e-14 7.4442e-15 -3.20032e-13 -3.09277e-13 0 0 5.87988e-14 -2.51631e-14 -3.84032e-13 -3.12628e-13 0 0 4.62992e-14 -7.83284e-14 -3.24351e-13 -4.43707e-13 0 0 2.42422e-14 -1.66443e-13 -1.96421e-13 -4.15728e-13 0 0 -5.00115e-14 -1.47876e-13 -1.88739e-13 -1.65799e-13 0 0 -1.33448e-13 -2.05702e-13 -6.65611e-14 -1.93899e-15 0 0 -1.75045e-13 -2.37857e-13 1.20667e-14 1.57607e-13 0 0 -2.27139e-13 -1.41326e-13 -1.36675e-13 3.80547e-13 0 0 -2.88866e-13 -2.83162e-14 -2.18421e-13 3.96083e-13 0 0 -3.40104e-13 -3.40986e-14 -1.27063e-13 2.42378e-13 0 0 -3.05357e-13 -1.06279e-13 -6.16474e-15 1.14839e-13 0 0 -2.88193e-13 -4.72192e-15 -6.71373e-14 8.36562e-14 0 0 -2.72902e-13 1.11818e-13 -2.09576e-13 -1.29511e-13 0 0 -1.10843e-13 -2.03523e-13 -2.13949e-14 -4.28204e-13 0 0 -4.77737e-14 -3.22197e-13 6.73324e-14 -2.47355e-13 0 0 -1.27031e-13 -7.74534e-14 -1.61186e-13 -1.60978e-14 0 0 -1.01307e-13 -1.02196e-13 -6.4621e-14 -1.73381e-13 0 0 -7.18677e-14 -1.56561e-13 1.18541e-13 -2.51199e-13 0 0 -1.29703e-13 8.38706e-15 4.9999e-14 -2.25439e-13 0 0 -4.83097e-14 -3.58512e-14 9.03557e-14 -1.9282e-13 0 0 5.35001e-14 -1.52275e-13 2.25498e-13 -1.9445e-13 0 0 3.78443e-14 -1.10527e-13 2.21825e-13 -2.41972e-13 0 0 3.12854e-14 -5.90636e-14 1.30896e-13 -1.17182e-13 0 0 -2.62709e-14 1.15653e-13 -1.29827e-13 1.0794e-13 0 0 6.44556e-14 -3.13466e-14 6.26052e-15 3.36451e-14 0 0 1.15107e-13 -4.64629e-14 -1.69875e-14 6.5107e-14 0 0 6.31965e-14 1.08721e-13 -1.89782e-13 1.41477e-13 0 0 1.51415e-13 -4.30896e-14 -4.74415e-14 1.07264e-13 0 0 1.09352e-13 5.88702e-14 -9.42113e-14 1.07377e-13 0 0 6.52621e-14 1.24676e-13 -6.2846e-14 4.60918e-14 0 0 1.09105e-13 4.78944e-14 5.80188e-14 -4.65658e-14 0 0 9.04213e-14 8.70967e-14 -3.85706e-14 2.10614e-14 0 0 8.23574e-14 1.1113e-13 -5.96219e-14 -8.87994e-15 0 0 1.56242e-13 4.95579e-14 4.97385e-14 -1.11098e-13 0 0 2.06494e-13 -3.81354e-15 6.76754e-14 -9.91412e-14 0 0 1.58911e-13 3.81545e-14 4.14065e-14 -1.59326e-13 0 0 1.29974e-13 4.30612e-14 2.39512e-14 -1.45909e-13 0 0 3.24558e-13 -2.63026e-13 2.13296e-13 -2.20992e-13 0 0 3.38319e-13 -2.86178e-13 1.39628e-13 -1.85804e-13 0 0 1.09203e-13 -4.74908e-14 -5.45323e-15 -2.4063e-13 0 0 -7.13705e-14 9.207e-14 -8.61314e-14 -2.59636e-13 0 0 -1.34769e-13 1.38358e-13 -2.93972e-13 -9.60185e-14 0 0 5.99408e-14 -2.71539e-13 7.61046e-14 -4.25646e-13 0 0 4.95649e-14 -3.56121e-13 1.64973e-13 -5.58215e-13 0 0 -1.23743e-13 -1.04581e-13 -2.32831e-13 -2.38007e-13 0 0 -1.15898e-13 -1.24134e-13 -2.63465e-13 -1.65581e-13 0
				</DataArray>
				<DataArray Name="VitesseY" type="Float32" format="ascii">