<?xml version="1.0"?>
<VTKFile type="PolyData">
	<PolyData>
		<Piece NumberOfPoints="1206" NumberOfPolys="1000">
			<Points>
				<DataArray type="Float32" NumberOfComponents="3" format="ascii">
 0 0 0 0.02 0 0 0.04 0 0 0.06 0 0 0.08 0 0 0.1 0 0 0 0.005 0 0.02 0.005 0 0.04 0.005 0 0.06 0.005 0 0.08 0.005 0 0.1 0.005 0 0 0.01 0 0.02 0.01 0 0.04 0.01 0 0.06 0.01 0 0.08 0.01 0 0.1 0.01 0 0 0.015 0 0.02 0.015 0 0.04 0.015 0 0.06 0.015 0 0.08 0.015 0 0.1 0.015 0 0 0.02 0 0.02 0.02 0 0.04 0.02 0 0.06 0.02 0 0.08 0.02 0 0.1 0.02 0 0 0.025 0 0.02 0.025 0 0.04 0.025 0 0.06 0.025 0 0.08 0.025 0 0.1 0.025 0 0 0.03 0 0.02 0.03 0 0.04 0.03 0 0.06 0.03 0 0.08 0.03 0 0.1 0.03 0 0 0.035 0 0.02 0.035 0 0.04 0.035 0 0.06 0.035 0 0.08 0.035 0 0.1 0.035 0 0 0.04 0 0.02 0.04 0 0.04 0.04 0 0.06 0.04 0 0.08 0.04 0 0.1 0.04 0 0 0.045 0 0.02 0.045 0 0.04 0.045 0 0.06 0.045 0 0.08 0.045 0 0.1 0.045 0 0 0.05 0 0.02 0.05 0 0.04 0.05 0 0.06 0.05 0 0.08 0.05 0 0.1 0.05 0 0 0.055 0 0.02 0.055 0 0.04 0.055 0 0.06 0.055 0 0.08 0.055 0 0.1 0.055 0 0 0.06 0 0.02 0.06 0 0.04 0.06 0 0.06 0.06 0 0.08 0.06 0 0.1 0.06 0 0 0.065 0 0.02 0.065 0 0.04 0.065 0 0.06 0.065 0 0.08 0.065 0 0.1 0.065 0 0 0.07 0 0.02 0.07 0 0.04 0.07 0 0.06 0.07 0 0.08 0.07 0 0.1 0.07 0 0 0.075 0 0.02 0.075 0 0.04 0.075 0 0.06 0.075 0 0.08 0.075 0 0.1 0.075 0 0 0.08 0 0.02 0.08 0 0.04 0.08 0 0.06 0.08 0 0.08 0.08 0 0.1 0.08 0 0 0.085 0 0.02 0.085 0 0.04 0.085 0 0.06 0.085 0 0.08 0.085 0 0.1 0.085 0 0 0.09 0 0.02 0.09 0 0.04 0.09 0 0.06 0.09 0 0.08 0.09 0 0.1 0.09 0 0 0.095 0 0.02 0.095 0 0.04 0.095 0 0.06 0.095 0 0.08 0.095 0 0.1 0.095 0 0 0.1 0 0.02 0.1 0 0.04 0.1 0 0.06 0.1 0 0.08 0.1 0 0.1 0.1 0 0 0.105 0 0.02 0.105 0 0.04 0.105 0 0.06 0.105 0 0.08 0.105 0 0.1 0.105 0 0 0.11 0 0.02 0.11 0 0.04 0.11 0 0.06 0.11 0 0.08 0.11 0 0.1 0.11 0 0 0.115 0 0.02 0.115 0 0.04 0.115 0 0.06 0.115 0 0.08 0.115 0 0.1 0.115 0 0 0.12 0 0.02 0.12 0 0.04 0.12 0 0.06 0.12 0 0.08 0.12 0 0.1 0.12 0 0 0.125 0 0.02 0.125 0 0.04 0.125 0 0.06 0.125 0 0.08 0.125 0 0.1 0.125 0 0 0.13 0 0.02 0.13 0 0.04 0.13 0 0.06 0.13 0 0.08 0.13 0 0.1 0.13 0 0 0.135 0 0.02 0.135 0 0.04 0.135 0 0.06 0.135 0 0.08 0.135 0 0.1 0.135 0 0 0.14 0 0.02 0.14 0 0.04 0.14 0 0.06 0.14 0 0.08 0.14 0 0.1 0.14 0 0 0.145 0 0.02 0.145 0 0.04 0.145 0 0.06 0.145 0 0.08 0.145 0 0.1 0.145 0 0 0.15 0 0.02 0.15 0 0.04 0.15 0 0.06 0.15 0 0.08 0.15 0 0.1 0.15 0 0 0.155 0 0.02 0.155 0 0.04 0.155 0 0.06 0.155 0 0.08 0.155 0 0.1 0.155 0 0 0.16 0 0.02 0.16 0 0.04 0.16 0 0.06 0.16 0 0.08 0.16 0 0.1 0.16 0 0 0.165 0 0.02 0.165 0 0.04 0.165 0 0.06 0.165 0 0.08 0.165 0 0.1 0.165 0 0 0.17 0 0.02 0.17 0 0.04 0.17 0 0.06 0.17 0 0.08 0.17 0 0.1 0.17 0 0 0.175 0 0.02 0.175 0 0.04 0.175 0 0.06 0.175 0 0.08 0.175 0 0.1 0.175 0 0 0.18 0 0.02 0.18 0 0.04 0.18 0 0.06 0.18 0 0.08 0.18 0 0.1 0.18 0 0 0.185 0 0.02 0.185 0 0.04 0.185 0 0.06 0.185 0 0.08 0.185 0 0.1 0.185 0 0 0.19 0 0.02 0.19 0 0.04 0.19 0 0.06 0.19 0 0.08 0.19 0 0.1 0.19 0 0 0.195 0 0.02 0.195 0 0.04 0.195 0 0.06 0.195 0 0.08 0.195 0 0.1 0.195 0 0 0.2 0 0.02 0.2 0 0.04 0.2 0 0.06 0.2 0 0.08 0.2 0 0.1 0.2 0 0 0.205 0 0.02 0.205 0 0.04 0.205 0 0.06 0.205 0 0.08 0.205 0 0.1 0.205 0 0 0.21 0 0.02 0.21 0 0.04 0.21 0 0.06 0.21 0 0.08 0.21 0 0.1 0.21 0 0 0.215 0 0.02 0.215 0 0.04 0.215 0 0.06 0.215 0 0.08 0.215 0 0.1 0.215 0 0 0.22 0 0.02 0.22 0 0.04 0.22 0 0.06 0.22 0 0.08 0.22 0 0.1 0.22 0 0 0.225 0 0.02 0.225 0 0.04 0.225 0 0.06 0.225 0 0.08 0.225 0 0.1 0.225 0 0 0.23 0 0.02 0.23 0 0.04 0.23 0 0.06 0.23 0 0.08 0.23 0 0.1 0.23 0 0 0.235 0 0.02 0.235 0 0.04 0.235 0 0.06 0.235 0 0.08 0.235 0 0.1 0.235 0 0 0.24 0 0.02 0.24 0 0.04 0.24 0 0.06 0.24 0 0.08 0.24 0 0.1 0.24 0 0 0.245 0 0.02 0.245 0 0.04 0.245 0 0.06 0.245 0 0.08 0.245 0 0.1 0.245 0 0 0.25 0 0.02 0.25 0 0.04 0.25 0 0.06 0.25 0 0.08 0.25 0 0.1 0.25 0 0 0.255 0 0.02 0.255 0 0.04 0.255 0 0.06 0.255 0 0.08 0.255 0 0.1 0.255 0 0 0.26 0 0.02 0.26 0 0.04 0.26 0 0.06 0.26 0 0.08 0.26 0 0.1 0.26 0 0 0.265 0 0.02 0.265 0 0.04 0.265 0 0.06 0.265 0 0.08 0.265 0 0.1 0.265 0 0 0.27 0 0.02 0.27 0 0.04 0.27 0 0.06 0.27 0 0.08 0.27 0 0.1 0.27 0 0 0.275 0 0.02 0.275 0 0.04 0.275 0 0.06 0.275 0 0.08 0.275 0 0.1 0.275 0 0 0.28 0 0.02 0.28 0 0.04 0.28 0 0.06 0.28 0 0.08 0.28 0 0.1 0.28 0 0 0.285 0 0.02 0.285 0 0.04 0.285 0 0.06 0.285 0 0.08 0.285 0 0.1 0.285 0 0 0.29 0 0.02 0.29 0 0.04 0.29 0 0.06 0.29 0 0.08 0.29 0 0.1 0.29 0 0 0.295 0 0.02 0.295 0 0.04 0.295 0 0.06 0.295 0 0.08 0.295 0 0.1 0.295 0 0 0.3 0 0.02 0.3 0 0.04 0.3 0 0.06 0.3 0 0.08 0.3 0 0.1 0.3 0 0 0.305 0 0.02 0.305 0 0.04 0.305 0 0.06 0.305 0 0.08 0.305 0 0.1 0.305 0 0 0.31 0 0.02 0.31 0 0.04 0.31 0 0.06 0.31 0 0.08 0.31 0 0.1 0.31 0 0 0.315 0 0.02 0.315 0 0.04 0.315 0 0.06 0.315 0 0.08 0.315 0 0.1 0.315 0 0 0.32 0 0.02 0.32 0 0.04 0.32 0 0.06 0.32 0 0.08 0.32 0 0.1 0.32 0 0 0.325 0 0.02 0.325 0 0.04 0.325 0 0.06 0.325 0 0.08 0.325 0 0.1 0.325 0 0 0.33 0 0.02 0.33 0 0.04 0.33 0 0.06 0.33 0 0.08 0.33 0 0.1 0.33 0 0 0.335 0 0.02 0.335 0 0.04 0.335 0 0.06 0.335 0 0.08 0.335 0 0.1 0.335 0 0 0.34 0 0.02 0.34 0 0.04 0.34 0 0.06 0.34 0 0.08 0.34 0 0.1 0.34 0 0 0.345 0 0.02 0.345 0 0.04 0.345 0 0.06 0.345 0 0.08 0.345 0 0.1 0.345 0 0 0.35 0 0.02 0.35 0 0.04 0.35 0 0.06 0.35 0 0.08 0.35 0 0.1 0.35 0 0 0.355 0 0.02 0.355 0 0.04 0.355 0 0.06 0.355 0 0.08 0.355 0 0.1 0.355 0 0 0.36 0 0.02 0.36 0 0.04 0.36 0 0.06 0.36 0 0.08 0.36 0 0.1 0.36 0 0 0.365 0 0.02 0.365 0 0.04 0.365 0 0.06 0.365 0 0.08 0.365 0 0.1 0.365 0 0 0.37 0 0.02 0.37 0 0.04 0.37 0 0.06 0.37 0 0.08 0.37 0 0.1 0.37 0 0 0.375 0 0.02 0.375 0 0.04 0.375 0 0.06 0.375 0 0.08 0.375 0 0.1 0.375 0 0 0.38 0 0.02 0.38 0 0.04 0.38 0 0.06 0.38 0 0.08 0.38 0 0.1 0.38 0 0 0.385 0 0.02 0.385 0 0.04 0.385 0 0.06 0.385 0 0.08 0.385 0 0.1 0.385 0 0 0.39 0 0.02 0.39 0 0.04 0.39 0 0.06 0.39 0 0.08 0.39 0 0.1 0.39 0 0 0.395 0 0.02 0.395 0 0.04 0.395 0 0.06 0.395 0 0.08 0.395 0 0.1 0.395 0 0 0.4 0 0.02 0.4 0 0.04 0.4 0 0.06 0.4 0 0.08 0.4 0 0.1 0.4 0 0 0.405 0 0.02 0.405 0 0.04 0.405 0 0.06 0.405 0 0.08 0.405 0 0.1 0.405 0 0 0.41 0 0.02 0.41 0 0.04 0.41 0 0.06 0.41 0 0.08 0.41 0 0.1 0.41 0 0 0.415 0 0.02 0.415 0 0.04 0.415 0 0.06 0.415 0 0.08 0.415 0 0.1 0.415 0 0 0.42 0 0.02 0.42 0 0.04 0.42 0 0.06 0.42 0 0.08 0.42 0 0.1 0.42 0 0 0.425 0 0.02 0.425 0 0.04 0.425 0 0.06 0.425 0 0.08 0.425 0 0.1 0.425 0 0 0.43 0 0.02 0.43 0 0.04 0.43 0 0.06 0.43 0 0.08 0.43 0 0.1 0.43 0 0 0.435 0 0.02 0.435 0 0.04 0.435 0 0.06 0.435 0 0.08 0.435 0 0.1 0.435 0 0 0.44 0 0.02 0.44 0 0.04 0.44 0 0.06 0.44 0 0.08 0.44 0 0.1 0.44 0 0 0.445 0 0.02 0.445 0 0.04 0.445 0 0.06 0.445 0 0.08 0.445 0 0.1 0.445 0 0 0.45 0 0.02 0.45 0 0.04 0.45 0 0.06 0.45 0 0.08 0.45 0 0.1 0.45 0 0 0.455 0 0.02 0.455 0 0.04 0.455 0 0.06 0.455 0 0.08 0.455 0 0.1 0.455 0 0 0.46 0 0.02 0.46 0 0.04 0.46 0 0.06 0.46 0 0.08 0.46 0 0.1 0.46 0 0 0.465 0 0.02 0.465 0 0.04 0.465 0 0.06 0.465 0 0.08 0.465 0 0.1 0.465 0 0 0.47 0 0.02 0.47 0 0.04 0.47 0 0.06 0.47 0 0.08 0.47 0 0.1 0.47 0 0 0.475 0 0.02 0.475 0 0.04 0.475 0 0.06 0.475 0 0.08 0.475 0 0.1 0.475 0 0 0.48 0 0.02 0.48 0 0.04 0.48 0 0.06 0.48 0 0.08 0.48 0 0.1 0.48 0 0 0.485 0 0.02 0.485 0 0.04 0.485 0 0.06 0.485 0 0.08 0.485 0 0.1 0.485 0 0 0.49 0 0.02 0.49 0 0.04 0.49 0 0.06 0.49 0 0.08 0.49 0 0.1 0.49 0 0 0.495 0 0.02 0.495 0 0.04 0.495 0 0.06 0.495 0 0.08 0.495 0 0.1 0.495 0 0 0.5 0 0.02 0.5 0 0.04 0.5 0 0.06 0.5 0 0.08 0.5 0 0.1 0.5 0 0 0.505 0 0.02 0.505 0 0.04 0.505 0 0.06 0.505 0 0.08 0.505 0 0.1 0.505 0 0 0.51 0 0.02 0.51 0 0.04 0.51 0 0.06 0.51 0 0.08 0.51 0 0.1 0.51 0 0 0.515 0 0.02 0.515 0 0.04 0.515 0 0.06 0.515 0 0.08 0.515 0 0.1 0.515 0 0 0.52 0 0.02 0.52 0 0.04 0.52 0 0.06 0.52 0 0.08 0.52 0 0.1 0.52 0 0 0.525 0 0.02 0.525 0 0.04 0.525 0 0.06 0.525 0 0.08 0.525 0 0.1 0.525 0 0 0.53 0 0.02 0.53 0 0.04 0.53 0 0.06 0.53 0 0.08 0.53 0 0.1 0.53 0 0 0.535 0 0.02 0.535 0 0.04 0.535 0 0.06 0.535 0 0.08 0.535 0 0.1 0.535 0 0 0.54 0 0.02 0.54 0 0.04 0.54 0 0.06 0.54 0 0.08 0.54 0 0.1 0.54 0 0 0.545 0 0.02 0.545 0 0.04 0.545 0 0.06 0.545 0 0.08 0.545 0 0.1 0.545 0 0 0.55 0 0.02 0.55 0 0.04 0.55 0 0.06 0.55 0 0.08 0.55 0 0.1 0.55 0 0 0.555 0 0.02 0.555 0 0.04 0.555 0 0.06 0.555 0 0.08 0.555 0 0.1 0.555 0 0 0.56 0 0.02 0.56 0 0.04 0.56 0 0.06 0.56 0 0.08 0.56 0 0.1 0.56 0 0 0.565 0 0.02 0.565 0 0.04 0.565 0 0.06 0.565 0 0.08 0.565 0 0.1 0.565 0 0 0.57 0 0.02 0.57 0 0.04 0.57 0 0.06 0.57 0 0.08 0.57 0 0.1 0.57 0 0 0.575 0 0.02 0.575 0 0.04 0.575 0 0.06 0.575 0 0.08 0.575 0 0.1 0.575 0 0 0.58 0 0.02 0.58 0 0.04 0.58 0 0.06 0.58 0 0.08 0.58 0 0.1 0.58 0 0 0.585 0 0.02 0.585 0 0.04 0.585 0 0.06 0.585 0 0.08 0.585 0 0.1 0.585 0 0 0.59 0 0.02 0.59 0 0.04 0.59 0 0.06 0.59 0 0.08 0.59 0 0.1 0.59 0 0 0.595 0 0.02 0.595 0 0.04 0.595 0 0.06 0.595 0 0.08 0.595 0 0.1 0.595 0 0 0.6 0 0.02 0.6 0 0.04 0.6 0 0.06 0.6 0 0.08 0.6 0 0.1 0.6 0 0 0.605 0 0.02 0.605 0 0.04 0.605 0 0.06 0.605 0 0.08 0.605 0 0.1 0.605 0 0 0.61 0 0.02 0.61 0 0.04 0.61 0 0.06 0.61 0 0.08 0.61 0 0.1 0.61 0 0 0.615 0 0.02 0.615 0 0.04 0.615 0 0.06 0.615 0 0.08 0.615 0 0.1 0.615 0 0 0.62 0 0.02 0.62 0 0.04 0.62 0 0.06 0.62 0 0.08 0.62 0 0.1 0.62 0 0 0.625 0 0.02 0.625 0 0.04 0.625 0 0.06 0.625 0 0.08 0.625 0 0.1 0.625 0 0 0.63 0 0.02 0.63 0 0.04 0.63 0 0.06 0.63 0 0.08 0.63 0 0.1 0.63 0 0 0.635 0 0.02 0.635 0 0.04 0.635 0 0.06 0.635 0 0.08 0.635 0 0.1 0.635 0 0 0.64 0 0.02 0.64 0 0.04 0.64 0 0.06 0.64 0 0.08 0.64 0 0.1 0.64 0 0 0.645 0 0.02 0.645 0 0.04 0.645 0 0.06 0.645 0 0.08 0.645 0 0.1 0.645 0 0 0.65 0 0.02 0.65 0 0.04 0.65 0 0.06 0.65 0 0.08 0.65 0 0.1 0.65 0 0 0.655 0 0.02 0.655 0 0.04 0.655 0 0.06 0.655 0 0.08 0.655 0 0.1 0.655 0 0 0.66 0 0.02 0.66 0 0.04 0.66 0 0.06 0.66 0 0.08 0.66 0 0.1 0.66 0 0 0.665 0 0.02 0.665 0 0.04 0.665 0 0.06 0.665 0 0.08 0.665 0 0.1 0.665 0 0 0.67 0 0.02 0.67 0 0.04 0.67 0 0.06 0.67 0 0.08 0.67 0 0.1 0.67 0 0 0.675 0 0.02 0.675 0 0.04 0.675 0 0.06 0.675 0 0.08 0.675 0 0.1 0.675 0 0 0.68 0 0.02 0.68 0 0.04 0.68 0 0.06 0.68 0 0.08 0.68 0 0.1 0.68 0 0 0.685 0 0.02 0.685 0 0.04 0.685 0 0.06 0.685 0 0.08 0.685 0 0.1 0.685 0 0 0.69 0 0.02 0.69 0 0.04 0.69 0 0.06 0.69 0 0.08 0.69 0 0.1 
[...]
			<PointData Scalars="VitesseX">
				<DataArray Name="VitesseX" type="Float32" format="ascii">
 0 -2.19117e-14 -3.40835e-15 -1.2724e-14 2.02106e-14 0 0 -2.10338e-14 -6.80612e-15 -8.23241e-15 1.72591e-14 0 0 -1.63065e-14 -2.36894e-14 1.43467e-14 4.62452e-15 0 0 -3.48064e-14 -1.51208e-15 -5.51252e-15 1.95079e-14 0 0 -2.79881e-14 -1.4485e-14 8.13647e-16 2.66455e-14 0 0 -3.23264e-15 -5.05434e-14 2.59274e-14 2.43413e-14 0 0 -2.57137e-14 -7.52811e-15 -3.52458e-14 7.93978e-14 0 0 -6.18275e-14 3.97906e-14 -7.40126e-14 1.21653e-13 0 0 -4.61421e-14 -7.33972e-15 4.83508e-15 8.59725e-14 0 0 -4.35835e-14 -2.844e-14 5.78604e-14 5.75529e-14 0 0 -7.08292e-14 1.0575e-14 5.44165e-14 3.77493e-14 0 0 -1.47371e-14 -6.23088e-14 1.32183e-13 -2.84077e-14 0 0 -5.41057e-14 3.53628e-14 -2.30158e-15 6.96666e-14 0 0 -2.84122e-14 1.01602e-14 7.56164e-15 7.17747e-14 0 0 -9.72654e-15 -2.64346e-14 8.33685e-14 -1.51847e-14 0 0 -8.6955e-14 1.12137e-13 -6.4494e-14 6.12845e-14 0 0 2.22236e-14 -4.38743e-14 3.97755e-14 1.45845e-14 0 0 3.49336e-14 -6.00043e-14 1.85689e-14 3.43032e-14 0 0 3.20502e-15 2.49288e-15 -8.7692e-14 1.03717e-13 0 0 2.42686e-14 -2.4204e-14 -9.96817e-14 1.09033e-13 0 0 -4.20626e-14 5.51071e-14 -1.88522e-13 1.67257e-13 0 0 -6.45493e-14 3.06953e-14 -1.35788e-13 1.29102e-13 0 0 -2.13343e-14 -7.42489e-14 -7.52322e-15 4.51649e-14 0 0 -5.19575e-14 -4.02895e-14 -4.45868e-14 5.96237e-14 0 0 -1.3729e-13 5.48821e-14 -1.16027e-13 6.7199e-14 0 0 -1.55828e-13 5.20229e-14 -1.29936e-13 6.39285e-14 0 0 -1.30587e-13 1.86446e-14 -1.14558e-13 1.23477e-14 0 0 -1.32697e-13 3.67311e-14 -1.03761e-13 -9.55593e-14 0 0 -9.11344e-14 -4.23372e-14 -2.45289e-14 -1.64499e-13 0 0 -1.02391e-13 -3.26856e-14 -1.8763e-14 -1.34986e-13 0 0 -8.07087e-14 -6.7166e-14 2.52411e-15 -8.76533e-14 0 0 -1.43344e-13 1.84747e-14 -8.88557e-14 3.53442e-14 0 0 -1.49235e-13 1.56916e-14 -8.11845e-14 9.38196e-14 0 0 3.10597e-14 -2.82348e-13 2.27762e-13 -3.90208e-14 0 0 -1.06081e-13 -1.00636e-13 1.5185e-13 -6.47633e-15 0 0 -2.53815e-13 9.29337e-14 1.92643e-14 9.2665e-14 0 0 -1.85209e-13 3.2835e-14 -3.40841e-15 1.5409e-13 0 0 -4.44772e-14 -1.25159e-13 1.2289e-13 6.29491e-14 0 0 -2.24501e-14 -1.39077e-13 1.54192e-13 -2.27321e-14 0 0 -9.62668e-14 -1.37779e-14 3.78657e-14 -1.12644e-14 0 0 -1.25994e-13 1.75808e-14 5.96532e-14 -8.62171e-14 0 0 -1.27548e-13 2.40742e-14 7.10085e-14 -1.49751e-13 0 0 -7.24171e-14 -6.22873e-14 6.63011e-14 -1.02946e-13 0 0 -1.84914e-13 3.61372e-14 -5.6412e-14 -4.41784e-15 0 0 -3.00206e-13 1.7574e-13 -9.672e-14 -8.62139e-14 0 0 -2.45377e-13 1.75336e-13 -6.22991e-14 -2.09931e-13 0 0 9.33414e-14 -3.02101e-13 3.78712e-13 -4.7585e-13 0 0 4.17952e-14 -1.43982e-13 1.55417e-13 -3.03172e-13 0 0 -3.39521e-13 4.63155e-13 -3.83316e-13 5.76782e-15 0 0 -3.19549e-13 4.15416e-13 -2.33745e-13 -1.19569e-13 0 0 -8.07323e-14 1.29467e-13 -3.85383e-14 -1.87073e-13 0 0 2.09586e-13 -1.13463e-13 -1.06589e-13 1.9676e-15 0 0 1.71068e-13 2.36916e-14 -3.59848e-13 2.22114e-13 0 0 3.28743e-13 -3.75242e-13 1.92797e-13 -1.43128e-13 0 0 2.47605e-13 -3.14967e-13 2.29063e-13 -2.67938e-13 0 0 -1.44899e-13 2.16015e-13 -2.72401e-13 -4.68074e-14 0 0 2.90939e-14 -1.47488e-13 4.43758e-14 -2.56151e-13 0 0 1.69848e-14 -5.6823e-14 -9.1487e-14 -2.43923e-13 0 0 -4.77919e-14 9.89016e-14 -2.2391e-13 -2.64465e-13 0 0 -1.43709e-13 1.73731e-13 -1.94693e-13 -4.07186e-13 0 0 -1.78778e-13 1.61877e-13 -1.34923e-13 -4.2215e-13 0 0 -1.1876e-14 -1.20586e-13 1.50694e-13 -4.85083e-13 0 0 -2.95343e-14 -4.93808e-14 4.8253e-14 -3.33203e-13 0 0 -5.87918e-15 -9.01484e-14 7.49493e-14 -2.3953e-13 0 0 -9.49041e-14 1.26297e-14 -3.70854e-15 -9.74738e-14 0 0 -9.25947e-14 9.23799e-14 -1.60567e-13 6.64074e-14 0 0 1.9376e-15 -1.3998e-14 -6.7729e-14 2.07e-14 0 0 -1.30047e-13 1.68156e-13 -1.71995e-13 3.41701e-14 0 0 -1.4325e-14 9.81142e-14 -1.265e-13 -8.97153e-14 0 0 1.6999e-13 -1.49273e-13 1.93537e-13 -4.55521e-13 0 0 8.68056e-14 5.28313e-15 1.24475e-13 -4.88399e-13 0 0 2.12097e-13 -7.87256e-14 1.83982e-13 -5.44329e-13 0 0 2.74535e-13 2.74269e-15 1.58046e-14 -3.82042e-13 0 0 4.11201e-13 -6.22913e-14 2.72654e-14 -2.3462e-13 0 0 2.76741e-13 2.08938e-13 -1.93427e-13 -7.10426e-14 0 0 1.42769e-13 5.38248e-13 -5.65217e-13 2.02631e-13 0 0 5.43808e-13 -3.27386e-16 -2.24686e-14 -1.12367e-13 0 0 6.18854e-13 -1.56843e-13 3.12817e-13 -3.23621e-13 0 0 4.09637e-13 1.74002e-13 -3.92893e-15 -3.512e-15 0 0 2.22323e-13 4.1755e-13 -3.35279e-13 4.28611e-13 0 0 3.54967e-13 -2.45454e-14 2.86432e-13 1.98363e-13 0 0 4.73089e-13 -1.45651e-13 3.26623e-13 2.83414e-13 0 0 2.83881e-13 3.49251e-13 -4.5936e-13 9.1782e-13 0 0 4.83898e-13 -1.6899e-13 1.95506e-13 5.66543e-13 0 0 5.78236e-13 -9.23508e-13 1.34472e-12 -8.02248e-14 0 0 -2.78705e-13 5.96587e-14 6.07582e-13 4.1673e-13 0 0 -6.44839e-13 9.59188e-13 -2.94023e-13 9.2694e-13 0 0 3.07538e-14 2.26644e-13 2.00616e-13 7.12844e-13 0 0 5.92077e-13 -5.23908e-13 8.40974e-13 3.03025e-13 0 0 7.64238e-13 -6.60311e-13 1.20832e-12 -1.14613e-13 0 0 4.7189e-13 -1.94299e-13 8.50768e-13 -2.92726e-13 0 0 -4.06141e-13 9.07596e-13 2.77123e-13 -3.23993e-13 0 0 -8.62615e-13 1.29317e-12 -8.04582e-15 -2.40315e-13 0 0 -6.05704e-13 1.06886e-12 -9.449e-14 1.15852e-13 0 0 1.79644e-13 2.72772e-13 1.63952e-13 3.15956e-13 0 0 9.05025e-13 -8.93341e-13 7.4508e-13 1.27952e-13 0 0 8.59721e-13 -1.07854e-12 1.22053e-12 -1.75322e-13 0 0 3.9438e-13 -7.9132e-13 1.11657e-12 -2.82204e-13 0 0 -4.6094e-13 -5.30426e-15 5.91226e-13 -7.71061e-14 0 0 -8.6261e-13 7.30392e-13 -4.93943e-13 5.66168e-13 0 0 -8.32075e-13 7.97918e-13 -9.59826e-13 1.12339e-12 0 0 -2.10124e-13 3.915e-13 -8.7239e-13 1.11332e-12 0 0 9.08679e-13 -5.57414e-13 -5.62925e-13 1.01899e-12 0 0 1.2111e-12 -9.15847e-13 -3.53757e-13 9.83376e-13 0 0 8.6515e-13 -7.43568e-13 -1.9743e-13 8.37094e-13 0 0 1.13736e-14 -1.80308e-13 -8.87765e-14 5.44773e-13 0 0 -3.95562e-13 1.49085e-13 -7.01377e-15 3.14231e-13 0 0 -4.63714e-13 2.27684e-13 3.07707e-14 2.08157e-13 0 0 -4.05234e-13 2.49935e-13 -1.17732e-14 1.38443e-13 0 0 -2.46038e-13 2.20159e-13 -4.28732e-15 -2.92402e-14 0 0 -1.06744e-13 1.27608e-13 4.76239e-14 -1.95885e-13 0 0 -7.20271e-14 6.00334e-14 4.09463e-14 -2.3198e-13 0 0 -8.3394e-14 3.44159e-14 -8.37555e-15 -2.789e-13 0 0 -9.73533e-14 -1.61682e-14 -1.26038e-14 -3.65187e-13 0 0 -1.11068e-13 -1.37502e-13 -2.57782e-15 -3.78036e-13 0 0 -1.78418e-13 -1.47499e-13 -4.52239e-14 -3.29522e-13 0 0 -2.16546e-13 -1.93312e-13 -5.98174e-14 -2.49371e-13 0 0 -1.93468e-13 -2.76676e-13 -2.94841e-14 -2.8241e-13 0 0 -1.95565e-13 -2.47818e-13 -1.00006e-13 -2.48507e-13 0 0 -1.7499e-13 -2.45637e-13 -1.64197e-13 -1.86835e-13 0 0 -1.10843e-13 -2.788e-13 -9.14227e-14 -2.2429e-13 0 0 -7.37894e-14 -1.9317e-13 -1.42538e-13 -1.5218e-13 0 0 -2.34315e-14 -6.894e-14 -2.16325e-13 -1.14922e-13 0 0 -1.59104e-14 1.54996e-15 -1.72578e-13 -1.02578e-13 0 0 1.39497e-15 2.14057e-14 -4.70534e-14 -1.29704e-13 0 0 3.1986e-14 -2.33591e-14 1.34052e-13 -1.93325e-13 0 0 7.6291e-14 -4.74715e-14 1.32888e-13 -1.04981e-13 0 0 1.81927e-13 -1.70962e-13 2.20669e-13 -1.98374e-13 0 0 8.06767e-14 6.11097e-15 4.4775e-14 -1.2774e-13 0 0 4.3078e-14 1.08192e-13 -4.85277e-14 -3.96521e-14 0 0 5.11221e-15 1.96984e-13 -1.66917e-13 4.68473e-14 0 0 9.97606e-14 4.46108e-14 -5.6149e-14 -2.82663e-14 0 0 2.96335e-13 -3.14569e-13 2.7545e-13 -1.68934e-13 0 0 5.76808e-14 6.13331e-15 -4.44241e-14 6.54571e-14 0 0 9.12055e-15 4.47519e-14 -9.73673e-14 1.70864e-13 0 0 2.21197e-14 1.27129e-14 -1.06532e-13 2.9811e-13 0 0 -7.83521e-15 5.57305e-14 -1.23083e-13 2.65486e-13 0 0 1.81917e-13 -2.84117e-13 3.08379e-13 -5.00958e-14 0 0 -5.55199e-14 6.78991e-14 7.46964e-14 1.43519e-13 0 0 -1.19776e-13 1.90157e-13 2.92185e-15 2.31096e-13 0 0 2.52595e-14 -4.06382e-14 2.32946e-13 1.35755e-13 0 0 -1.56622e-13 2.33876e-13 -2.31628e-14 3.27471e-13 0 0 1.94049e-13 -2.37231e-13 4.30623e-13 -2.87094e-14 0 0 3.07354e-13 -2.9257e-13 5.02018e-13 -1.74632e-13 0 0 -1.04034e-13 3.92073e-13 -5.58849e-14 8.26643e-14 0 0 5.8311e-14 1.07413e-13 3.90047e-13 -2.78861e-13 0 0 2.91144e-14 2.11777e-13 2.80957e-13 -1.39585e-13 0 0 2.74654e-13 -8.605e-14 4.63314e-13 -1.54622e-13 0 0 3.42325e-13 -2.03415e-13 7.25879e-13 -4.10372e-13 0 0 -1.61156e-13 6.32771e-13 -2.92956e-14 2.34734e-14 0 0 1.3756e-13 1.63941e-13 2.3246e-13 -9.72364e-14 0 0 4.2244e-14 1.70746e-13 3.96817e-14 4.06848e-14 0 0 1.85451e-13 -1.76777e-13 3.54864e-13 -9.17604e-14 0 0 2.472e-13 -2.78589e-13 4.26529e-13 -9.87871e-14 0 0 -1.09975e-13 3.21072e-13 -1.56028e-13 1.91641e-13 0 0 -2.24644e-13 4.376e-13 -1.42559e-13 4.42844e-14 0 0 -5.37553e-14 1.93232e-13 -7.53944e-14 2.19275e-14 0 0 2.65934e-13 -2.41502e-13 2.1883e-13 -7.81036e-14 0 0 6.68941e-14 -3.03459e-15 9.62121e-14 -2.28693e-14 0 0 -6.79159e-14 2.4152e-14 1.69257e-13 1.59717e-14 0 0 -2.96537e-13 2.23183e-13 1.65091e-13 3.65204e-14 0 0 1.79848e-14 -3.65614e-13 7.91125e-13 -3.62161e-13 0 0 3.47263e-13 -8.44935e-13 1.11911e-12 -4.04321e-13 0 0 -1.91373e-13 -1.13694e-14 3.30802e-13 8.37678e-14 0 0 -2.61421e-13 9.45569e-14 1.59099e-13 2.01522e-13 0 0 4.21462e-15 -1.41436e-13 1.2227e-13 4.40141e-13 0 0 2.27594e-14 -1.87381e-13 1.67274e-13 4.87238e-13 0 0 1.84558e-14 -4.36345e-13 7.9864e-13 -1.85375e-13 0 0 -3.49865e-13 -2.58152e-14 7.26871e-13 -4.41884e-13 0 0 -1.6009e-13 -2.70248e-13 6.66828e-13 -3.04356e-13 0 0 1.02417e-13 -5.14088e-13 3.70352e-13 5.60829e-14 0 0 -2.75038e-13 1.1589e-13 -3.11567e-13 3.66943e-13 0 0 -1.60531e-15 -3.94195e-13 3.43555e-13 -3.2714e-13 0 0 1.34906e-14 -3.97084e-13 2.44767e-13 -2.81499e-13 0 0 1.12164e-14 -4.31259e-13 5.54763e-14 8.45962e-14 0 0 -1.22869e-13 -3.14275e-13 -3.99813e-14 1.07106e-13 0 0 -4.21728e-13 1.41014e-13 -5.30237e-13 3.81556e-13 0 0 -1.07603e-13 -3.22619e-13 -2.69542e-13 2.97118e-13 0 0 -2.65125e-13 -7.09702e-14 -6.19246e-13 5.12725e-13 0 0 -3.25698e-15 -5.28105e-13 -2.28754e-13 3.13295e-13 0 0 1.82061e-13 -9.15023e-13 3.68985e-13 -2.30827e-13 0 0 -5.19549e-13 2.47574e-13 -5.1438e-13 1.19776e-13 0 0 -3.9534e-13 2.08183e-13 -4.57337e-13 1.75201e-13 0 0 -3.57852e-13 9.40968e-14 -1.09619e-13 7.07381e-14 0 0 -1.09253e-13 -3.01808e-13 4.55424e-13 -2.20459e-13 0 0 4.43543e-14 -4.28043e-13 4.10557e-13 -1.00555e-13 0 0 -6.08749e-13 5.99993e-13 -6.59084e-13 5.46027e-13 0 0 -1.17678e-13 -1.04372e-13 6.48241e-14 -2.52602e-14 0 0 1.55786e-13 -2.55685e-13 -1.62916e-14 3.46033e-14 0 0 4.01665e-13 -6.41091e-13 2.75008e-13 -1.47001e-13 0 0 2.96564e-13 -7.0363e-13 5.66179e-13 -3.2099e-13 0 0 -6.25554e-13 8.22203e-13 -9.13793e-13 7.41497e-13 0 0 2.50855e-13 -3.49327e-13 1.08568e-13 2.06009e-13 0 0 9.824e-13 -1.36055e-12 1.00668e-12 -3.53636e-13 0 0 1.31631e-13 -2.08177e-14 -2.27972e-13 2.68074e-13 0 0 -4.14248e-13 7.21606e-13 -6.09393e-13 2.94112e-13 0 0 -3.13668e-13 5.39921e-13 -3.56314e-13 1.96906e-13 0 0 8.06958e-13 -1.18722e-12 1.24996e-12 -6.1223e-13 0 0 8.89875e-13 -9.66947e-13 1.04011e-12 -5.28868e-13 0 0 -8.80382e-14 8.6589e-13 -8.1666e-13 4.58844e-13 0 0 -2.65475e-13 1.08418e-12 -1.02739e-12 5.02088e-13 0
				</DataArray>
				<DataArray Name="VitesseY" type="Float32" format="ascii">