<?xml version="1.0"?>
<VTKFile type="PolyData">
	<PolyData>
		<Piece NumberOfPoints="1206" NumberOfPolys="1000">
			<Points>
				<DataArray type="Float32" NumberOfComponents="3" format="ascii">
 0 0 0 0.02 0 0 0.04 0 0 0.06 0 0 0.08 0 0 0.1 0 0 0 0.005 0 0.02 0.005 0 0.04 0.005 0 0.06 0.005 0 0.08 0.005 0 0.1 0.005 0 0 0.01 0 0.02 0.01 0 0.04 0.01 0 0.06 0.01 0 0.08 0.01 0 0.1 0.01 0 0 0.015 0 0.02 0.015 0 0.04 0.015 0 0.06 0.015 0 0.08 0.015 0 0.1 0.015 0 0 0.02 0 0.02 0.02 0 0.04 0.02 0 0.06 0.02 0 0.08 0.02 0 0.1 0.02 0 0 0.025 0 0.02 0.025 0 0.04 0.025 0 0.06 0.025 0 0.08 0.025 0 0.1 0.025 0 0 0.03 0 0.02 0.03 0 0.04 0.03 0 0.06 0.03 0 0.08 0.03 0 0.1 0.03 0 0 0.035 0 0.02 0.035 0 0.04 0.035 0 0.06 0.035 0 0.08 0.035 0 0.1 0.035 0 0 0.04 0 0.02 0.04 0 0.04 0.04 0 0.06 0.04 0 0.08 0.04 0 0.1 0.04 0 0 0.045 0 0.02 0.045 0 0.04 0.045 0 0.06 0.045 0 0.08 0.045 0 0.1 0.045 0 0 0.05 0 0.02 0.05 0 0.04 0.05 0 0.06 0.05 0 0.08 0.05 0 0.1 0.05 0 0 0.055 0 0.02 0.055 0 0.04 0.055 0 0.06 0.055 0 0.08 0.055 0 0.1 0.055 0 0 0.06 0 0.02 0.06 0 0.04 0.06 0 0.06 0.06 0 0.08 0.06 0 0.1 0.06 0 0 0.065 0 0.02 0.065 0 0.04 0.065 0 0.06 0.065 0 0.08 0.065 0 0.1 0.065 0 0 0.07 0 0.02 0.07 0 0.04 0.07 0 0.06 0.07 0 0.08 0.07 0 0.1 0.07 0 0 0.075 0 0.02 0.075 0 0.04 0.075 0 0.06 0.075 0 0.08 0.075 0 0.1 0.075 0 0 0.08 0 0.02 0.08 0 0.04 0.08 0 0.06 0.08 0 0.08 0.08 0 0.1 0.08 0 0 0.085 0 0.02 0.085 0 0.04 0.085 0 0.06 0.085 0 0.08 0.085 0 0.1 0.085 0 0 0.09 0 0.02 0.09 0 0.04 0.09 0 0.06 0.09 0 0.08 0.09 0 0.1 0.09 0 0 0.095 0 0.02 0.095 0 0.04 0.095 0 0.06 0.095 0 0.08 0.095 0 0.1 0.095 0 0 0.1 0 0.02 0.1 0 0.04 0.1 0 0.06 0.1 0 0.08 0.1 0 0.1 0.1 0 0 0.105 0 0.02 0.105 0 0.04 0.105 0 0.06 0.105 0 0.08 0.105 0 0.1 0.105 0 0 0.11 0 0.02 0.11 0 0.04 0.11 0 0.06 0.11 0 0.08 0.11 0 0.1 0.11 0 0 0.115 0 0.02 0.115 0 0.04 0.115 0 0.06 0.115 0 0.08 0.115 0 0.1 0.115 0 0 0.12 0 0.02 0.12 0 0.04 0.12 0 0.06 0.12 0 0.08 0.12 0 0.1 0.12 0 0 0.125 0 0.02 0.125 0 0.04 0.125 0 0.06 0.125 0 0.08 0.125 0 0.1 0.125 0 0 0.13 0 0.02 0.13 0 0.04 0.13 0 0.06 0.13 0 0.08 0.13 0 0.1 0.13 0 0 0.135 0 0.02 0.135 0 0.04 0.135 0 0.06 0.135 0 0.08 0.135 0 0.1 0.135 0 0 0.14 0 0.02 0.14 0 0.04 0.14 0 0.06 0.14 0 0.08 0.14 0 0.1 0.14 0 0 0.145 0 0.02 0.145 0 0.04 0.145 0 0.06 0.145 0 0.08 0.145 0 0.1 0.145 0 0 0.15 0 0.02 0.15 0 0.04 0.15 0 0.06 0.15 0 0.08 0.15 0 0.1 0.15 0 0 0.155 0 0.02 0.155 0 0.04 0.155 0 0.06 0.155 0 0.08 0.155 0 0.1 0.155 0 0 0.16 0 0.02 0.16 0 0.04 0.16 0 0.06 0.16 0 0.08 0.16 0 0.1 0.16 0 0 0.165 0 0.02 0.165 0 0.04 0.165 0 0.06 0.165 0 0.08 0.165 0 0.1 0.165 0 0 0.17 0 0.02 0.17 0 0.04 0.17 0 0.06 0.17 0 0.08 0.17 0 0.1 0.17 0 0 0.175 0 0.02 0.175 0 0.04 0.175 0 0.06 0.175 0 0.08 0.175 0 0.1 0.175 0 0 0.18 0 0.02 0.18 0 0.04 0.18 0 0.06 0.18 0 0.08 0.18 0 0.1 0.18 0 0 0.185 0 0.02 0.185 0 0.04 0.185 0 0.06 0.185 0 0.08 0.185 0 0.1 0.185 0 0 0.19 0 0.02 0.19 0 0.04 0.19 0 0.06 0.19 0 0.08 0.19 0 0.1 0.19 0 0 0.195 0 0.02 0.195 0 0.04 0.195 0 0.06 0.195 0 0.08 0.195 0 0.1 0.195 0 0 0.2 0 0.02 0.2 0 0.04 0.2 0 0.06 0.2 0 0.08 0.2 0 0.1 0.2 0 0 0.205 0 0.02 0.205 0 0.04 0.205 0 0.06 0.205 0 0.08 0.205 0 0.1 0.205 0 0 0.21 0 0.02 0.21 0 0.04 0.21 0 0.06 0.21 0 0.08 0.21 0 0.1 0.21 0 0 0.215 0 0.02 0.215 0 0.04 0.215 0 0.06 0.215 0 0.08 0.215 0 0.1 0.215 0 0 0.22 0 0.02 0.22 0 0.04 0.22 0 0.06 0.22 0 0.08 0.22 0 0.1 0.22 0 0 0.225 0 0.02 0.225 0 0.04 0.225 0 0.06 0.225 0 0.08 0.225 0 0.1 0.225 0 0 0.23 0 0.02 0.23 0 0.04 0.23 0 0.06 0.23 0 0.08 0.23 0 0.1 0.23 0 0 0.235 0 0.02 0.235 0 0.04 0.235 0 0.06 0.235 0 0.08 0.235 0 0.1 0.235 0 0 0.24 0 0.02 0.24 0 0.04 0.24 0 0.06 0.24 0 0.08 0.24 0 0.1 0.24 0 0 0.245 0 0.02 0.245 0 0.04 0.245 0 0.06 0.245 0 0.08 0.245 0 0.1 0.245 0 0 0.25 0 0.02 0.25 0 0.04 0.25 0 0.06 0.25 0 0.08 0.25 0 0.1 0.25 0 0 0.255 0 0.02 0.255 0 0.04 0.255 0 0.06 0.255 0 0.08 0.255 0 0.1 0.255 0 0 0.26 0 0.02 0.26 0 0.04 0.26 0 0.06 0.26 0 0.08 0.26 0 0.1 0.26 0 0 0.265 0 0.02 0.265 0 0.04 0.265 0 0.06 0.265 0 0.08 0.265 0 0.1 0.265 0 0 0.27 0 0.02 0.27 0 0.04 0.27 0 0.06 0.27 0 0.08 0.27 0 0.1 0.27 0 0 0.275 0 0.02 0.275 0 0.04 0.275 0 0.06 0.275 0 0.08 0.275 0 0.1 0.275 0 0 0.28 0 0.02 0.28 0 0.04 0.28 0 0.06 0.28 0 0.08 0.28 0 0.1 0.28 0 0 0.285 0 0.02 0.285 0 0.04 0.285 0 0.06 0.285 0 0.08 0.285 0 0.1 0.285 0 0 0.29 0 0.02 0.29 0 0.04 0.29 0 0.06 0.29 0 0.08 0.29 0 0.1 0.29 0 0 0.295 0 0.02 0.295 0 0.04 0.295 0 0.06 0.295 0 0.08 0.295 0 0.1 0.295 0 0 0.3 0 0.02 0.3 0 0.04 0.3 0 0.06 0.3 0 0.08 0.3 0 0.1 0.3 0 0 0.305 0 0.02 0.305 0 0.04 0.305 0 0.06 0.305 0 0.08 0.305 0 0.1 0.305 0 0 0.31 0 0.02 0.31 0 0.04 0.31 0 0.06 0.31 0 0.08 0.31 0 0.1 0.31 0 0 0.315 0 0.02 0.315 0 0.04 0.315 0 0.06 0.315 0 0.08 0.315 0 0.1 0.315 0 0 0.32 0 0.02 0.32 0 0.04 0.32 0 0.06 0.32 0 0.08 0.32 0 0.1 0.32 0 0 0.325 0 0.02 0.325 0 0.04 0.325 0 0.06 0.325 0 0.08 0.325 0 0.1 0.325 0 0 0.33 0 0.02 0.33 0 0.04 0.33 0 0.06 0.33 0 0.08 0.33 0 0.1 0.33 0 0 0.335 0 0.02 0.335 0 0.04 0.335 0 0.06 0.335 0 0.08 0.335 0 0.1 0.335 0 0 0.34 0 0.02 0.34 0 0.04 0.34 0 0.06 0.34 0 0.08 0.34 0 0.1 0.34 0 0 0.345 0 0.02 0.345 0 0.04 0.345 0 0.06 0.345 0 0.08 0.345 0 0.1 0.345 0 0 0.35 0 0.02 0.35 0 0.04 0.35 0 0.06 0.35 0 0.08 0.35 0 0.1 0.35 0 0 0.355 0 0.02 0.355 0 0.04 0.355 0 0.06 0.355 0 0.08 0.355 0 0.1 0.355 0 0 0.36 0 0.02 0.36 0 0.04 0.36 0 0.06 0.36 0 0.08 0.36 0 0.1 0.36 0 0 0.365 0 0.02 0.365 0 0.04 0.365 0 0.06 0.365 0 0.08 0.365 0 0.1 0.365 0 0 0.37 0 0.02 0.37 0 0.04 0.37 0 0.06 0.37 0 0.08 0.37 0 0.1 0.37 0 0 0.375 0 0.02 0.375 0 0.04 0.375 0 0.06 0.375 0 0.08 0.375 0 0.1 0.375 0 0 0.38 0 0.02 0.38 0 0.04 0.38 0 0.06 0.38 0 0.08 0.38 0 0.1 0.38 0 0 0.385 0 0.02 0.385 0 0.04 0.385 0 0.06 0.385 0 0.08 0.385 0 0.1 0.385 0 0 0.39 0 0.02 0.39 0 0.04 0.39 0 0.06 0.39 0 0.08 0.39 0 0.1 0.39 0 0 0.395 0 0.02 0.395 0 0.04 0.395 0 0.06 0.395 0 0.08 0.395 0 0.1 0.395 0 0 0.4 0 0.02 0.4 0 0.04 0.4 0 0.06 0.4 0 0.08 0.4 0 0.1 0.4 0 0 0.405 0 0.02 0.405 0 0.04 0.405 0 0.06 0.405 0 0.08 0.405 0 0.1 0.405 0 0 0.41 0 0.02 0.41 0 0.04 0.41 0 0.06 0.41 0 0.08 0.41 0 0.1 0.41 0 0 0.415 0 0.02 0.415 0 0.04 0.415 0 0.06 0.415 0 0.08 0.415 0 0.1 0.415 0 0 0.42 0 0.02 0.42 0 0.04 0.42 0 0.06 0.42 0 0.08 0.42 0 0.1 0.42 0 0 0.425 0 0.02 0.425 0 0.04 0.425 0 0.06 0.425 0 0.08 0.425 0 0.1 0.425 0 0 0.43 0 0.02 0.43 0 0.04 0.43 0 0.06 0.43 0 0.08 0.43 0 0.1 0.43 0 0 0.435 0 0.02 0.435 0 0.04 0.435 0 0.06 0.435 0 0.08 0.435 0 0.1 0.435 0 0 0.44 0 0.02 0.44 0 0.04 0.44 0 0.06 0.44 0 0.08 0.44 0 0.1 0.44 0 0 0.445 0 0.02 0.445 0 0.04 0.445 0 0.06 0.445 0 0.08 0.445 0 0.1 0.445 0 0 0.45 0 0.02 0.45 0 0.04 0.45 0 0.06 0.45 0 0.08 0.45 0 0.1 0.45 0 0 0.455 0 0.02 0.455 0 0.04 0.455 0 0.06 0.455 0 0.08 0.455 0 0.1 0.455 0 0 0.46 0 0.02 0.46 0 0.04 0.46 0 0.06 0.46 0 0.08 0.46 0 0.1 0.46 0 0 0.465 0 0.02 0.465 0 0.04 0.465 0 0.06 0.465 0 0.08 0.465 0 0.1 0.465 0 0 0.47 0 0.02 0.47 0 0.04 0.47 0 0.06 0.47 0 0.08 0.47 0 0.1 0.47 0 0 0.475 0 0.02 0.475 0 0.04 0.475 0 0.06 0.475 0 0.08 0.475 0 0.1 0.475 0 0 0.48 0 0.02 0.48 0 0.04 0.48 0 0.06 0.48 0 0.08 0.48 0 0.1 0.48 0 0 0.485 0 0.02 0.485 0 0.04 0.485 0 0.06 0.485 0 0.08 0.485 0 0.1 0.485 0 0 0.49 0 0.02 0.49 0 0.04 0.49 0 0.06 0.49 0 0.08 0.49 0 0.1 0.49 0 0 0.495 0 0.02 0.495 0 0.04 0.495 0 0.06 0.495 0 0.08 0.495 0 0.1 0.495 0 0 0.5 0 0.02 0.5 0 0.04 0.5 0 0.06 0.5 0 0.08 0.5 0 0.1 0.5 0 0 0.505 0 0.02 0.505 0 0.04 0.505 0 0.06 0.505 0 0.08 0.505 0 0.1 0.505 0 0 0.51 0 0.02 0.51 0 0.04 0.51 0 0.06 0.51 0 0.08 0.51 0 0.1 0.51 0 0 0.515 0 0.02 0.515 0 0.04 0.515 0 0.06 0.515 0 0.08 0.515 0 0.1 0.515 0 0 0.52 0 0.02 0.52 0 0.04 0.52 0 0.06 0.52 0 0.08 0.52 0 0.1 0.52 0 0 0.525 0 0.02 0.525 0 0.04 0.525 0 0.06 0.525 0 0.08 0.525 0 0.1 0.525 0 0 0.53 0 0.02 0.53 0 0.04 0.53 0 0.06 0.53 0 0.08 0.53 0 0.1 0.53 0 0 0.535 0 0.02 0.535 0 0.04 0.535 0 0.06 0.535 0 0.08 0.535 0 0.1 0.535 0 0 0.54 0 0.02 0.54 0 0.04 0.54 0 0.06 0.54 0 0.08 0.54 0 0.1 0.54 0 0 0.545 0 0.02 0.545 0 0.04 0.545 0 0.06 0.545 0 0.08 0.545 0 0.1 0.545 0 0 0.55 0 0.02 0.55 0 0.04 0.55 0 0.06 0.55 0 0.08 0.55 0 0.1 0.55 0 0 0.555 0 0.02 0.555 0 0.04 0.555 0 0.06 0.555 0 0.08 0.555 0 0.1 0.555 0 0 0.56 0 0.02 0.56 0 0.04 0.56 0 0.06 0.56 0 0.08 0.56 0 0.1 0.56 0 0 0.565 0 0.02 0.565 0 0.04 0.565 0 0.06 0.565 0 0.08 0.565 0 0.1 0.565 0 0 0.57 0 0.02 0.57 0 0.04 0.57 0 0.06 0.57 0 0.08 0.57 0 0.1 0.57 0 0 0.575 0 0.02 0.575 0 0.04 0.575 0 0.06 0.575 0 0.08 0.575 0 0.1 0.575 0 0 0.58 0 0.02 0.58 0 0.04 0.58 0 0.06 0.58 0 0.08 0.58 0 0.1 0.58 0 0 0.585 0 0.02 0.585 0 0.04 0.585 0 0.06 0.585 0 0.08 0.585 0 0.1 0.585 0 0 0.59 0 0.02 0.59 0 0.04 0.59 0 0.06 0.59 0 0.08 0.59 0 0.1 0.59 0 0 0.595 0 0.02 0.595 0 0.04 0.595 0 0.06 0.595 0 0.08 0.595 0 0.1 0.595 0 0 0.6 0 0.02 0.6 0 0.04 0.6 0 0.06 0.6 0 0.08 0.6 0 0.1 0.6 0 0 0.605 0 0.02 0.605 0 0.04 0.605 0 0.06 0.605 0 0.08 0.605 0 0.1 0.605 0 0 0.61 0 0.02 0.61 0 0.04 0.61 0 0.06 0.61 0 0.08 0.61 0 0.1 0.61 0 0 0.615 0 0.02 0.615 0 0.04 0.615 0 0.06 0.615 0 0.08 0.615 0 0.1 0.615 0 0 0.62 0 0.02 0.62 0 0.04 0.62 0 0.06 0.62 0 0.08 0.62 0 0.1 0.62 0 0 0.625 0 0.02 0.625 0 0.04 0.625 0 0.06 0.625 0 0.08 0.625 0 0.1 0.625 0 0 0.63 0 0.02 0.63 0 0.04 0.63 0 0.06 0.63 0 0.08 0.63 0 0.1 0.63 0 0 0.635 0 0.02 0.635 0 0.04 0.635 0 0.06 0.635 0 0.08 0.635 0 0.1 0.635 0 0 0.64 0 0.02 0.64 0 0.04 0.64 0 0.06 0.64 0 0.08 0.64 0 0.1 0.64 0 0 0.645 0 0.02 0.645 0 0.04 0.645 0 0.06 0.645 0 0.08 0.645 0 0.1 0.645 0 0 0.65 0 0.02 0.65 0 0.04 0.65 0 0.06 0.65 0 0.08 0.65 0 0.1 0.65 0 0 0.655 0 0.02 0.655 0 0.04 0.655 0 0.06 0.655 0 0.08 0.655 0 0.1 0.655 0 0 0.66 0 0.02 0.66 0 0.04 0.66 0 0.06 0.66 0 0.08 0.66 0 0.1 0.66 0 0 0.665 0 0.02 0.665 0 0.04 0.665 0 0.06 0.665 0 0.08 0.665 0 0.1 0.665 0 0 0.67 0 0.02 0.67 0 0.04 0.67 0 0.06 0.67 0 0.08 0.67 0 0.1 0.67 0 0 0.675 0 0.02 0.675 0 0.04 0.675 0 0.06 0.675 0 0.08 0.675 0 0.1 0.675 0 0 0.68 0 0.02 0.68 0 0.04 0.68 0 0.06 0.68 0 0.08 0.68 0 0.1 0.68 0 0 0.685 0 0.02 0.685 0 0.04 0.685 0 0.06 0.685 0 0.08 0.685 0 0.1 0.685 0 0 0.69 0 0.02 0.69 0 0.04 0.69 0 0.06 0.69 0 0.08 0.69 0 0.1 
[...]
			<PointData Scalars="VitesseX">
				<DataArray Name="VitesseX" type="Float32" format="ascii">
 0 -5.66078e-15 -1.1922e-14 2.1353e-14 1.04193e-14 0 0 -3.24453e-15 -1.52209e-14 2.48038e-14 7.26967e-15 0 0 -1.13083e-14 1.80617e-15 7.18145e-15 1.68917e-14 0 0 -1.51283e-14 1.14756e-14 -1.7532e-15 2.4387e-14 0 0 7.06624e-15 -2.48141e-14 2.93917e-14 2.2728e-14 0 0 -2.71657e-15 -6.30935e-15 8.50905e-15 5.9078e-14 0 0 -5.00942e-14 6.87315e-14 -3.2534e-14 9.07592e-14 0 0 -4.53279e-14 4.67406e-14 5.21287e-14 2.65491e-14 0 0 -2.85596e-14 2.17487e-14 1.08923e-13 -1.46589e-14 0 0 7.32103e-15 -8.76768e-15 1.30668e-13 -7.46199e-15 0 0 6.7147e-14 -7.52258e-14 1.89435e-13 -3.6843e-14 0 0 5.68691e-14 -1.07805e-14 1.06491e-13 -3.56764e-15 0 0 2.50911e-14 7.02629e-14 1.26843e-14 4.05707e-14 0 0 3.16701e-14 4.91799e-14 4.27035e-14 2.81496e-16 0 0 6.57139e-14 9.26772e-15 7.36315e-14 -2.98142e-14 0 0 8.55236e-15 1.14628e-13 -4.33589e-14 4.46974e-14 0 0 8.13229e-15 9.35671e-14 -1.82814e-14 2.60094e-14 0 0 7.70071e-14 -2.62022e-14 9.79171e-14 -3.38068e-14 0 0 7.70205e-14 -1.5595e-14 5.49851e-14 2.84306e-14 0 0 4.31171e-14 3.0199e-14 1.80304e-14 4.30604e-14 0 0 6.49547e-15 7.18506e-14 -1.33436e-14 4.16692e-14 0 0 3.3764e-15 7.32069e-14 -4.98999e-14 6.72425e-14 0 0 2.33074e-14 -3.15857e-15 4.68143e-14 -2.15665e-14 0 0 -3.5995e-14 2.81886e-14 2.36092e-15 1.1275e-14 0 0 -7.74947e-14 5.851e-14 -6.41469e-14 7.60992e-14 0 0 -8.51482e-15 -8.63058e-14 1.37491e-13 -7.66932e-14 0 0 -4.73346e-14 -3.39355e-14 1.34535e-13 -7.3953e-14 0 0 -8.76209e-14 1.00278e-13 -9.5918e-14 1.29385e-13 0 0 2.1701e-14 -7.16167e-14 4.5514e-14 5.9977e-14 0 0 -9.1285e-15 -4.39247e-14 5.25101e-14 3.69658e-14 0 0 -4.09486e-14 9.83147e-15 -2.0462e-14 9.45008e-14 0 0 3.46485e-15 -7.58583e-14 6.82502e-14 4.5871e-14 0 0 -1.69009e-14 -1.60539e-14 1.88298e-14 3.34362e-14 0 0 1.18208e-14 -5.12727e-14 1.02859e-13 -9.2996e-14 0 0 4.82842e-14 -1.04448e-13 1.60347e-13 -1.41442e-13 0 0 2.73802e-14 -4.8599e-14 7.66664e-14 -9.01088e-14 0 0 4.68081e-14 1.43453e-15 1.55581e-15 -5.57012e-14 0 0 -6.40056e-14 1.83493e-13 -1.31207e-13 5.45887e-14 0 0 -1.68539e-14 2.34099e-14 8.02943e-14 -6.17247e-14 0 0 9.6616e-14 -1.45942e-13 1.7416e-13 -8.65662e-14 0 0 -3.45589e-14 5.90917e-14 2.35716e-15 2.32015e-15 0 0 -5.55687e-14 -1.09521e-14 1.88861e-13 -1.68809e-13 0 0 -1.09319e-13 4.14198e-15 2.40206e-13 -2.14613e-13 0 0 -1.17336e-13 1.12648e-13 7.46308e-14 -7.57638e-14 0 0 -9.52777e-14 1.68436e-13 -4.18977e-15 1.5658e-14 0 0 -5.67314e-14 2.02167e-13 -1.60532e-14 1.78903e-14 0 0 2.23273e-13 -1.34092e-13 2.3519e-13 -1.0471e-13 0 0 1.5945e-13 9.33709e-15 4.42639e-14 3.04836e-14 0 0 7.66704e-14 1.60263e-13 -1.19852e-13 1.04832e-13 0 0 3.1846e-13 -1.97985e-13 1.16905e-13 2.34549e-14 0 0 4.81193e-13 -4.10571e-13 2.1214e-13 4.75823e-14 0 0 3.93438e-13 -2.73239e-13 1.23708e-13 6.94563e-15 0 0 5.35509e-14 3.15344e-13 -4.28827e-13 2.57797e-13 0 0 1.59944e-13 1.42764e-13 -2.09495e-13 3.87638e-14 0 0 4.06326e-13 -2.96523e-13 2.30934e-13 -3.03906e-13 0 0 2.61879e-13 -5.29399e-14 -7.48371e-14 -1.02501e-13 0 0 2.18517e-13 -6.88604e-14 4.26682e-16 -1.72502e-13 0 0 1.79193e-13 -9.03643e-14 8.07198e-14 -2.31232e-13 0 0 9.63134e-14 3.93814e-14 -5.99758e-14 -1.14692e-13 0 0 1.70153e-13 -3.6012e-14 -2.16757e-14 -1.01987e-13 0 0 9.09579e-14 6.97805e-14 -1.13831e-14 -1.69564e-13 0 0 5.65136e-14 2.32617e-14 1.19175e-13 -2.18283e-13 0 0 5.47145e-14 1.21751e-14 7.30051e-14 -1.48599e-13 0 0 1.15708e-13 -2.46471e-14 9.35403e-14 -1.90316e-13 0 0 2.45746e-15 1.60816e-13 -5.65286e-14 -8.07021e-14 0 0 -9.21721e-14 2.43371e-13 2.64175e-14 -1.56652e-13 0 0 1.4708e-13 -2.03382e-14 3.03635e-13 -3.05747e-13 0 0 2.34743e-13 1.15863e-13 5.94858e-14 -1.65185e-13 0 0 2.95252e-13 2.17564e-13 7.69528e-15 -1.72755e-13 0 0 3.97845e-13 1.76949e-13 7.18554e-14 -1.78213e-13 0 0 4.71779e-13 8.26338e-14 8.02081e-14 -1.091e-13 0 0 3.89113e-13 1.80625e-13 -2.73495e-14 -2.21185e-14 0 0 5.36656e-13 -5.37847e-15 1.28965e-13 -1.23317e-13 0 0 4.56501e-13 1.69736e-13 -6.72064e-14 5.48503e-14 0 0 3.22495e-13 2.6595e-13 5.47768e-14 5.14041e-14 0 0 4.36465e-13 3.81337e-14 3.62872e-13 -3.31256e-14 0 0 2.92128e-13 3.32927e-13 7.10545e-15 3.28538e-13 0 0 2.51558e-13 3.00606e-13 1.18772e-13 2.88234e-13 0 0 2.75695e-13 2.04614e-13 3.05687e-13 2.95573e-14 0 0 6.80622e-13 -2.80654e-13 6.49447e-13 -8.51531e-14 0 0 4.57724e-13 2.26285e-13 -1.15614e-13 7.10452e-13 0 0 -4.48852e-15 8.04877e-13 -3.7369e-13 8.5314e-13 0 0 4.48446e-13 4.39697e-15 8.64833e-13 -8.46806e-14 0 0 4.97182e-13 3.20418e-13 6.01008e-13 -7.68484e-14 0 0 2.61367e-13 1.17043e-12 -4.34318e-13 5.20669e-13 0 0 6.1615e-13 8.25698e-13 -4.11465e-13 6.80753e-13 0 0 1.23079e-12 -2.53595e-14 3.62146e-13 2.16032e-13 0 0 1.07701e-12 -2.23641e-14 7.40063e-13 -2.54571e-13 0 0 5.81557e-13 5.15671e-13 4.49964e-13 -1.80602e-13 0 0 1.83062e-13 9.42753e-13 2.25965e-13 -1.75805e-13 0 0 -1.69e-13 1.2027e-12 1.87394e-13 -2.06006e-13 0 0 -2.66455e-13 1.17683e-12 2.96607e-13 -2.85646e-13 0 0 -6.5075e-15 7.48577e-13 6.05862e-13 -2.75869e-13 0 0 7.13226e-13 -1.66193e-13 7.5338e-13 1.62209e-14 0 0 1.1105e-12 -4.71157e-13 6.0694e-13 5.63669e-13 0 0 1.00788e-12 -2.30346e-13 3.07049e-13 5.76669e-13 0 0 7.26243e-13 1.76053e-13 1.98939e-13 3.19142e-13 0 0 2.9689e-13 4.93153e-13 1.72428e-13 1.94121e-14 0 0 -1.08566e-14 7.09063e-13 6.80515e-14 5.50083e-14 0 0 1.31964e-14 6.92407e-13 -1.08575e-13 2.31161e-13 0 0 3.57749e-13 3.63791e-13 -8.64058e-14 5.1868e-13 0 0 9.09158e-13 -2.49959e-13 7.82935e-14 6.63747e-13 0 0 1.00936e-12 -4.46785e-13 1.36416e-13 6.40849e-13 0 0 7.24993e-13 -2.68628e-13 6.95733e-14 6.10561e-13 0 0 -6.7104e-14 2.21496e-13 8.23805e-14 4.79458e-13 0 0 -6.41794e-13 4.32108e-13 2.56832e-13 1.5214e-13 0 0 -6.3656e-13 3.42286e-13 5.19046e-13 -1.47743e-13 0 0 -3.21297e-13 8.54453e-14 5.27249e-13 -1.53564e-13 0 0 2.37192e-14 -8.55063e-14 4.6442e-13 -5.95708e-14 0 0 1.54778e-13 -1.22731e-13 4.05762e-13 2.68244e-14 0 0 1.6137e-13 -8.87498e-14 3.74089e-13 6.54247e-14 0 0 9.37624e-14 -7.89509e-15 3.08349e-13 1.54989e-13 0 0 -3.15366e-14 5.12013e-14 3.01263e-13 1.70334e-13 0 0 -1.48624e-13 7.15013e-14 3.55081e-13 1.44667e-13 0 0 -2.02523e-13 5.66273e-14 3.94584e-13 1.39018e-13 0 0 -2.09799e-13 1.63749e-14 4.2353e-13 1.09967e-13 0 0 -1.95808e-13 -3.19623e-14 4.46618e-13 4.61627e-14 0 0 -1.62393e-13 -5.75124e-14 4.12892e-13 -6.05243e-15 0 0 -1.35322e-13 -2.60587e-14 3.17441e-13 8.35439e-15 0 0 -1.17366e-13 3.90964e-14 1.56213e-13 1.55248e-14 0 0 -7.53736e-14 1.97111e-14 1.05844e-13 -2.1444e-14 0 0 9.70646e-15 -2.97125e-14 7.66072e-14 -9.81316e-14 0 0 3.25659e-14 1.20546e-14 -2.76826e-14 -9.45546e-14 0 0 3.92819e-14 7.4168e-14 -1.11051e-13 -1.24701e-13 0 0 7.65243e-14 3.27732e-14 -3.47258e-14 -2.09678e-13 0 0 1.15244e-13 -3.44313e-14 3.33699e-14 -2.10278e-13 0 0 1.42042e-13 -4.98224e-14 1.65828e-14 -1.3885e-13 0 0 1.18907e-13 2.77873e-14 -1.01378e-13 2.7602e-14 0 0 1.27306e-13 2.06452e-14 -4.29166e-14 5.60292e-14 0 0 1.54885e-13 5.97932e-15 1.69616e-14 1.71709e-13 0 0 1.45245e-13 1.47646e-13 -5.56401e-14 2.84289e-13 0 0 2.32535e-13 7.91119e-14 1.59718e-13 7.95442e-14 0 0 2.37717e-13 1.16601e-13 1.89788e-13 1.13628e-13 0 0 2.7171e-13 5.81411e-14 3.42504e-13 7.12593e-14 0 0 2.14397e-13 1.74682e-13 2.53742e-13 2.2154e-13 0 0 2.08606e-13 2.1724e-13 2.49613e-13 2.62413e-13 0 0 2.93838e-13 1.02025e-13 5.01065e-13 4.78437e-14 0 0 2.53182e-13 2.45192e-13 4.05606e-13 1.25557e-13 0 0 3.09853e-13 2.24751e-13 3.73785e-13 2.46286e-13 0 0 3.25839e-13 2.51815e-13 3.14468e-13 3.31091e-13 0 0 2.84497e-13 3.90243e-13 2.2474e-13 3.18554e-13 0 0 4.38248e-13 2.37283e-13 4.04471e-13 9.96745e-14 0 0 4.27958e-13 3.15985e-13 2.81455e-13 1.85215e-13 0 0 4.01971e-13 3.99722e-13 1.89682e-13 2.71837e-13 0 0 4.6565e-13 3.62869e-13 2.12327e-13 2.07864e-13 0 0 3.0851e-13 6.69839e-13 -1.40014e-13 3.36501e-13 0 0 5.22936e-13 3.25265e-13 2.03316e-13 4.57498e-14 0 0 5.89132e-13 2.36815e-13 2.84548e-13 -3.27426e-14 0 0 4.52646e-13 5.2445e-13 -4.57014e-14 2.112e-13 0 0 4.41244e-13 5.78063e-13 -1.52102e-13 3.72218e-13 0 0 3.54808e-13 7.20205e-13 -3.20243e-13 5.68238e-13 0 0 6.26219e-13 2.60087e-13 2.59429e-13 1.57161e-13 0 0 5.31299e-13 3.35838e-13 3.8265e-13 -1.32815e-14 0 0 3.49694e-13 5.09667e-13 3.2474e-13 -2.9414e-14 0 0 2.13486e-13 6.05348e-13 2.92877e-13 -5.72623e-14 0 0 1.94277e-13 6.37157e-13 1.85224e-13 1.20291e-13 0 0 6.83518e-13 -3.11028e-14 7.10335e-13 8.06709e-14 0 0 6.8188e-13 6.18528e-16 6.65773e-13 2.97406e-13 0 0 2.9122e-13 4.74907e-13 4.46125e-13 3.45734e-13 0 0 -1.91194e-14 8.12392e-13 2.69484e-13 5.56281e-13 0 0 2.73247e-14 7.20492e-13 3.24287e-13 7.08111e-13 0 0 4.00229e-13 2.04398e-13 8.39963e-13 2.88472e-13 0 0 5.33391e-13 7.76291e-14 9.75556e-13 5.62502e-14 0 0 3.2657e-13 3.21317e-13 9.33962e-13 -4.12355e-14 0 0 5.34772e-14 5.95908e-13 6.62147e-13 2.98571e-13 0 0 -2.19287e-13 8.25603e-13 3.3267e-13 7.55838e-13 0 0 3.98544e-14 4.00447e-13 6.26273e-13 6.28398e-13 0 0 6.47446e-13 -2.98661e-13 9.54054e-13 4.68751e-13 0 0 6.63763e-13 -2.3537e-13 8.00852e-13 4.49352e-13 0 0 2.54856e-13 1.45883e-13 7.95742e-13 2.76869e-13 0 0 8.3637e-14 2.47067e-13 8.90573e-13 1.60469e-13 0 0 -6.11353e-14 4.88673e-13 5.16895e-13 3.31774e-13 0 0 -1.89338e-14 3.95023e-13 3.64047e-13 5.63208e-13 0 0 2.81157e-13 -1.13513e-13 6.54687e-13 5.88821e-13 0 0 3.3146e-13 -2.51172e-13 7.8686e-13 4.48448e-13 0 0 1.00601e-13 -2.21086e-14 6.26105e-13 4.38104e-13 0 0 -2.77501e-13 3.63733e-13 4.95191e-13 3.46625e-13 0 0 -4.01441e-13 5.5348e-13 4.90708e-13 1.95152e-13 0 0 2.3579e-13 -1.95208e-13 9.6941e-13 -1.00388e-13 0 0 6.33465e-13 -3.97187e-13 7.79116e-13 -5.85604e-14 0 0 2.89532e-13 2.37876e-13 3.44514e-13 -2.80067e-14 0 0 5.93743e-14 6.47296e-13 1.37788e-13 4.78242e-14 0 0 5.8741e-15 8.37906e-13 -1.26299e-13 3.72178e-13 0 0 3.5906e-13 1.44129e-13 4.99086e-13 1.19198e-13 0 0 2.89538e-13 1.45269e-13 4.22442e-13 2.63964e-13 0 0 3.90336e-13 1.3481e-13 4.73905e-13 1.66877e-13 0 0 6.38028e-13 -3.18593e-14 5.65532e-13 8.33391e-14 0 0 3.59354e-13 3.96646e-13 1.32045e-13 2.96842e-13 0 0 5.96186e-13 -1.08331e-13 7.25879e-13 -1.53842e-13 0 0 5.55895e-13 -6.85067e-14 7.28183e-13 -2.27044e-13 0 0 4.01883e-13 5.94483e-13 -2.24789e-13 3.09058e-13 0 0 7.05417e-13 4.16164e-13 -1.82543e-13 2.56912e-13 0 0 5.13766e-13 4.93651e-13 -2.12284e-14 2.01822e-13 0 0 5.62124e-13 1.67705e-13 5.28475e-13 -1.06407e-13 0 0 6.15938e-13 2.95419e-13 2.69282e-13 1.26945e-13 0 0 4.46389e-13 9.5895e-13 -6.62969e-13 8.04507e-13 0 0 8.59673e-13 3.83534e-13 -2.20466e-13 5.64942e-13 0 0 1.00308e-12 2.47303e-14 1.94809e-13 2.47593e-13 0 0 8.19747e-13 1.52643e-13 1.39424e-13 2.47643e-13 0 0 5.83514e-13 4.71696e-13 -4.24421e-13 8.43837e-13 0 0 4.03617e-13 7.60479e-13 -8.18078e-13 1.21145e-12 0
				</DataArray>
				<DataArray Name="VitesseY" type="Float32" format="ascii">