<?xml version="1.0"?>
<VTKFile type="PolyData">
	<PolyData>
		<Piece NumberOfPoints="1206" NumberOfPolys="1000">
			<Points>
				<DataArray type="Float32" NumberOfComponents="3" format="ascii">
 0 0 0 0.02 0 0 0.04 0 0 0.06 0 0 0.08 0 0 0.1 0 0 0 0.005 0 0.02 0.005 0 0.04 0.005 0 0.06 0.005 0 0.08 0.005 0 0.1 0.005 0 0 0.01 0 0.02 0.01 0 0.04 0.01 0 0.06 0.01 0 0.08 0.01 0 0.1 0.01 0 0 0.015 0 0.02 0.015 0 0.04 0.015 0 0.06 0.015 0 0.08 0.015 0 0.1 0.015 0 0 0.02 0 0.02 0.02 0 0.04 0.02 0 0.06 0.02 0 0.08 0.02 0 0.1 0.02 0 0 0.025 0 0.02 0.025 0 0.04 0.025 0 0.06 0.025 0 0.08 0.025 0 0.1 0.025 0 0 0.03 0 0.02 0.03 0 0.04 0.03 0 0.06 0.03 0 0.08 0.03 0 0.1 0.03 0 0 0.035 0 0.02 0.035 0 0.04 0.035 0 0.06 0.035 0 0.08 0.035 0 0.1 0.035 0 0 0.04 0 0.02 0.04 0 0.04 0.04 0 0.06 0.04 0 0.08 0.04 0 0.1 0.04 0 0 0.045 0 0.02 0.045 0 0.04 0.045 0 0.06 0.045 0 0.08 0.045 0 0.1 0.045 0 0 0.05 0 0.02 0.05 0 0.04 0.05 0 0.06 0.05 0 0.08 0.05 0 0.1 0.05 0 0 0.055 0 0.02 0.055 0 0.04 0.055 0 0.06 0.055 0 0.08 0.055 0 0.1 0.055 0 0 0.06 0 0.02 0.06 0 0.04 0.06 0 0.06 0.06 0 0.08 0.06 0 0.1 0.06 0 0 0.065 0 0.02 0.065 0 0.04 0.065 0 0.06 0.065 0 0.08 0.065 0 0.1 0.065 0 0 0.07 0 0.02 0.07 0 0.04 0.07 0 0.06 0.07 0 0.08 0.07 0 0.1 0.07 0 0 0.075 0 0.02 0.075 0 0.04 0.075 0 0.06 0.075 0 0.08 0.075 0 0.1 0.075 0 0 0.08 0 0.02 0.08 0 0.04 0.08 0 0.06 0.08 0 0.08 0.08 0 0.1 0.08 0 0 0.085 0 0.02 0.085 0 0.04 0.085 0 0.06 0.085 0 0.08 0.085 0 0.1 0.085 0 0 0.09 0 0.02 0.09 0 0.04 0.09 0 0.06 0.09 0 0.08 0.09 0 0.1 0.09 0 0 0.095 0 0.02 0.095 0 0.04 0.095 0 0.06 0.095 0 0.08 0.095 0 0.1 0.095 0 0 0.1 0 0.02 0.1 0 0.04 0.1 0 0.06 0.1 0 0.08 0.1 0 0.1 0.1 0 0 0.105 0 0.02 0.105 0 0.04 0.105 0 0.06 0.105 0 0.08 0.105 0 0.1 0.105 0 0 0.11 0 0.02 0.11 0 0.04 0.11 0 0.06 0.11 0 0.08 0.11 0 0.1 0.11 0 0 0.115 0 0.02 0.115 0 0.04 0.115 0 0.06 0.115 0 0.08 0.115 0 0.1 0.115 0 0 0.12 0 0.02 0.12 0 0.04 0.12 0 0.06 0.12 0 0.08 0.12 0 0.1 0.12 0 0 0.125 0 0.02 0.125 0 0.04 0.125 0 0.06 0.125 0 0.08 0.125 0 0.1 0.125 0 0 0.13 0 0.02 0.13 0 0.04 0.13 0 0.06 0.13 0 0.08 0.13 0 0.1 0.13 0 0 0.135 0 0.02 0.135 0 0.04 0.135 0 0.06 0.135 0 0.08 0.135 0 0.1 0.135 0 0 0.14 0 0.02 0.14 0 0.04 0.14 0 0.06 0.14 0 0.08 0.14 0 0.1 0.14 0 0 0.145 0 0.02 0.145 0 0.04 0.145 0 0.06 0.145 0 0.08 0.145 0 0.1 0.145 0 0 0.15 0 0.02 0.15 0 0.04 0.15 0 0.06 0.15 0 0.08 0.15 0 0.1 0.15 0 0 0.155 0 0.02 0.155 0 0.04 0.155 0 0.06 0.155 0 0.08 0.155 0 0.1 0.155 0 0 0.16 0 0.02 0.16 0 0.04 0.16 0 0.06 0.16 0 0.08 0.16 0 0.1 0.16 0 0 0.165 0 0.02 0.165 0 0.04 0.165 0 0.06 0.165 0 0.08 0.165 0 0.1 0.165 0 0 0.17 0 0.02 0.17 0 0.04 0.17 0 0.06 0.17 0 0.08 0.17 0 0.1 0.17 0 0 0.175 0 0.02 0.175 0 0.04 0.175 0 0.06 0.175 0 0.08 0.175 0 0.1 0.175 0 0 0.18 0 0.02 0.18 0 0.04 0.18 0 0.06 0.18 0 0.08 0.18 0 0.1 0.18 0 0 0.185 0 0.02 0.185 0 0.04 0.185 0 0.06 0.185 0 0.08 0.185 0 0.1 0.185 0 0 0.19 0 0.02 0.19 0 0.04 0.19 0 0.06 0.19 0 0.08 0.19 0 0.1 0.19 0 0 0.195 0 0.02 0.195 0 0.04 0.195 0 0.06 0.195 0 0.08 0.195 0 0.1 0.195 0 0 0.2 0 0.02 0.2 0 0.04 0.2 0 0.06 0.2 0 0.08 0.2 0 0.1 0.2 0 0 0.205 0 0.02 0.205 0 0.04 0.205 0 0.06 0.205 0 0.08 0.205 0 0.1 0.205 0 0 0.21 0 0.02 0.21 0 0.04 0.21 0 0.06 0.21 0 0.08 0.21 0 0.1 0.21 0 0 0.215 0 0.02 0.215 0 0.04 0.215 0 0.06 0.215 0 0.08 0.215 0 0.1 0.215 0 0 0.22 0 0.02 0.22 0 0.04 0.22 0 0.06 0.22 0 0.08 0.22 0 0.1 0.22 0 0 0.225 0 0.02 0.225 0 0.04 0.225 0 0.06 0.225 0 0.08 0.225 0 0.1 0.225 0 0 0.23 0 0.02 0.23 0 0.04 0.23 0 0.06 0.23 0 0.08 0.23 0 0.1 0.23 0 0 0.235 0 0.02 0.235 0 0.04 0.235 0 0.06 0.235 0 0.08 0.235 0 0.1 0.235 0 0 0.24 0 0.02 0.24 0 0.04 0.24 0 0.06 0.24 0 0.08 0.24 0 0.1 0.24 0 0 0.245 0 0.02 0.245 0 0.04 0.245 0 0.06 0.245 0 0.08 0.245 0 0.1 0.245 0 0 0.25 0 0.02 0.25 0 0.04 0.25 0 0.06 0.25 0 0.08 0.25 0 0.1 0.25 0 0 0.255 0 0.02 0.255 0 0.04 0.255 0 0.06 0.255 0 0.08 0.255 0 0.1 0.255 0 0 0.26 0 0.02 0.26 0 0.04 0.26 0 0.06 0.26 0 0.08 0.26 0 0.1 0.26 0 0 0.265 0 0.02 0.265 0 0.04 0.265 0 0.06 0.265 0 0.08 0.265 0 0.1 0.265 0 0 0.27 0 0.02 0.27 0 0.04 0.27 0 0.06 0.27 0 0.08 0.27 0 0.1 0.27 0 0 0.275 0 0.02 0.275 0 0.04 0.275 0 0.06 0.275 0 0.08 0.275 0 0.1 0.275 0 0 0.28 0 0.02 0.28 0 0.04 0.28 0 0.06 0.28 0 0.08 0.28 0 0.1 0.28 0 0 0.285 0 0.02 0.285 0 0.04 0.285 0 0.06 0.285 0 0.08 0.285 0 0.1 0.285 0 0 0.29 0 0.02 0.29 0 0.04 0.29 0 0.06 0.29 0 0.08 0.29 0 0.1 0.29 0 0 0.295 0 0.02 0.295 0 0.04 0.295 0 0.06 0.295 0 0.08 0.295 0 0.1 0.295 0 0 0.3 0 0.02 0.3 0 0.04 0.3 0 0.06 0.3 0 0.08 0.3 0 0.1 0.3 0 0 0.305 0 0.02 0.305 0 0.04 0.305 0 0.06 0.305 0 0.08 0.305 0 0.1 0.305 0 0 0.31 0 0.02 0.31 0 0.04 0.31 0 0.06 0.31 0 0.08 0.31 0 0.1 0.31 0 0 0.315 0 0.02 0.315 0 0.04 0.315 0 0.06 0.315 0 0.08 0.315 0 0.1 0.315 0 0 0.32 0 0.02 0.32 0 0.04 0.32 0 0.06 0.32 0 0.08 0.32 0 0.1 0.32 0 0 0.325 0 0.02 0.325 0 0.04 0.325 0 0.06 0.325 0 0.08 0.325 0 0.1 0.325 0 0 0.33 0 0.02 0.33 0 0.04 0.33 0 0.06 0.33 0 0.08 0.33 0 0.1 0.33 0 0 0.335 0 0.02 0.335 0 0.04 0.335 0 0.06 0.335 0 0.08 0.335 0 0.1 0.335 0 0 0.34 0 0.02 0.34 0 0.04 0.34 0 0.06 0.34 0 0.08 0.34 0 0.1 0.34 0 0 0.345 0 0.02 0.345 0 0.04 0.345 0 0.06 0.345 0 0.08 0.345 0 0.1 0.345 0 0 0.35 0 0.02 0.35 0 0.04 0.35 0 0.06 0.35 0 0.08 0.35 0 0.1 0.35 0 0 0.355 0 0.02 0.355 0 0.04 0.355 0 0.06 0.355 0 0.08 0.355 0 0.1 0.355 0 0 0.36 0 0.02 0.36 0 0.04 0.36 0 0.06 0.36 0 0.08 0.36 0 0.1 0.36 0 0 0.365 0 0.02 0.365 0 0.04 0.365 0 0.06 0.365 0 0.08 0.365 0 0.1 0.365 0 0 0.37 0 0.02 0.37 0 0.04 0.37 0 0.06 0.37 0 0.08 0.37 0 0.1 0.37 0 0 0.375 0 0.02 0.375 0 0.04 0.375 0 0.06 0.375 0 0.08 0.375 0 0.1 0.375 0 0 0.38 0 0.02 0.38 0 0.04 0.38 0 0.06 0.38 0 0.08 0.38 0 0.1 0.38 0 0 0.385 0 0.02 0.385 0 0.04 0.385 0 0.06 0.385 0 0.08 0.385 0 0.1 0.385 0 0 0.39 0 0.02 0.39 0 0.04 0.39 0 0.06 0.39 0 0.08 0.39 0 0.1 0.39 0 0 0.395 0 0.02 0.395 0 0.04 0.395 0 0.06 0.395 0 0.08 0.395 0 0.1 0.395 0 0 0.4 0 0.02 0.4 0 0.04 0.4 0 0.06 0.4 0 0.08 0.4 0 0.1 0.4 0 0 0.405 0 0.02 0.405 0 0.04 0.405 0 0.06 0.405 0 0.08 0.405 0 0.1 0.405 0 0 0.41 0 0.02 0.41 0 0.04 0.41 0 0.06 0.41 0 0.08 0.41 0 0.1 0.41 0 0 0.415 0 0.02 0.415 0 0.04 0.415 0 0.06 0.415 0 0.08 0.415 0 0.1 0.415 0 0 0.42 0 0.02 0.42 0 0.04 0.42 0 0.06 0.42 0 0.08 0.42 0 0.1 0.42 0 0 0.425 0 0.02 0.425 0 0.04 0.425 0 0.06 0.425 0 0.08 0.425 0 0.1 0.425 0 0 0.43 0 0.02 0.43 0 0.04 0.43 0 0.06 0.43 0 0.08 0.43 0 0.1 0.43 0 0 0.435 0 0.02 0.435 0 0.04 0.435 0 0.06 0.435 0 0.08 0.435 0 0.1 0.435 0 0 0.44 0 0.02 0.44 0 0.04 0.44 0 0.06 0.44 0 0.08 0.44 0 0.1 0.44 0 0 0.445 0 0.02 0.445 0 0.04 0.445 0 0.06 0.445 0 0.08 0.445 0 0.1 0.445 0 0 0.45 0 0.02 0.45 0 0.04 0.45 0 0.06 0.45 0 0.08 0.45 0 0.1 0.45 0 0 0.455 0 0.02 0.455 0 0.04 0.455 0 0.06 0.455 0 0.08 0.455 0 0.1 0.455 0 0 0.46 0 0.02 0.46 0 0.04 0.46 0 0.06 0.46 0 0.08 0.46 0 0.1 0.46 0 0 0.465 0 0.02 0.465 0 0.04 0.465 0 0.06 0.465 0 0.08 0.465 0 0.1 0.465 0 0 0.47 0 0.02 0.47 0 0.04 0.47 0 0.06 0.47 0 0.08 0.47 0 0.1 0.47 0 0 0.475 0 0.02 0.475 0 0.04 0.475 0 0.06 0.475 0 0.08 0.475 0 0.1 0.475 0 0 0.48 0 0.02 0.48 0 0.04 0.48 0 0.06 0.48 0 0.08 0.48 0 0.1 0.48 0 0 0.485 0 0.02 0.485 0 0.04 0.485 0 0.06 0.485 0 0.08 0.485 0 0.1 0.485 0 0 0.49 0 0.02 0.49 0 0.04 0.49 0 0.06 0.49 0 0.08 0.49 0 0.1 0.49 0 0 0.495 0 0.02 0.495 0 0.04 0.495 0 0.06 0.495 0 0.08 0.495 0 0.1 0.495 0 0 0.5 0 0.02 0.5 0 0.04 0.5 0 0.06 0.5 0 0.08 0.5 0 0.1 0.5 0 0 0.505 0 0.02 0.505 0 0.04 0.505 0 0.06 0.505 0 0.08 0.505 0 0.1 0.505 0 0 0.51 0 0.02 0.51 0 0.04 0.51 0 0.06 0.51 0 0.08 0.51 0 0.1 0.51 0 0 0.515 0 0.02 0.515 0 0.04 0.515 0 0.06 0.515 0 0.08 0.515 0 0.1 0.515 0 0 0.52 0 0.02 0.52 0 0.04 0.52 0 0.06 0.52 0 0.08 0.52 0 0.1 0.52 0 0 0.525 0 0.02 0.525 0 0.04 0.525 0 0.06 0.525 0 0.08 0.525 0 0.1 0.525 0 0 0.53 0 0.02 0.53 0 0.04 0.53 0 0.06 0.53 0 0.08 0.53 0 0.1 0.53 0 0 0.535 0 0.02 0.535 0 0.04 0.535 0 0.06 0.535 0 0.08 0.535 0 0.1 0.535 0 0 0.54 0 0.02 0.54 0 0.04 0.54 0 0.06 0.54 0 0.08 0.54 0 0.1 0.54 0 0 0.545 0 0.02 0.545 0 0.04 0.545 0 0.06 0.545 0 0.08 0.545 0 0.1 0.545 0 0 0.55 0 0.02 0.55 0 0.04 0.55 0 0.06 0.55 0 0.08 0.55 0 0.1 0.55 0 0 0.555 0 0.02 0.555 0 0.04 0.555 0 0.06 0.555 0 0.08 0.555 0 0.1 0.555 0 0 0.56 0 0.02 0.56 0 0.04 0.56 0 0.06 0.56 0 0.08 0.56 0 0.1 0.56 0 0 0.565 0 0.02 0.565 0 0.04 0.565 0 0.06 0.565 0 0.08 0.565 0 0.1 0.565 0 0 0.57 0 0.02 0.57 0 0.04 0.57 0 0.06 0.57 0 0.08 0.57 0 0.1 0.57 0 0 0.575 0 0.02 0.575 0 0.04 0.575 0 0.06 0.575 0 0.08 0.575 0 0.1 0.575 0 0 0.58 0 0.02 0.58 0 0.04 0.58 0 0.06 0.58 0 0.08 0.58 0 0.1 0.58 0 0 0.585 0 0.02 0.585 0 0.04 0.585 0 0.06 0.585 0 0.08 0.585 0 0.1 0.585 0 0 0.59 0 0.02 0.59 0 0.04 0.59 0 0.06 0.59 0 0.08 0.59 0 0.1 0.59 0 0 0.595 0 0.02 0.595 0 0.04 0.595 0 0.06 0.595 0 0.08 0.595 0 0.1 0.595 0 0 0.6 0 0.02 0.6 0 0.04 0.6 0 0.06 0.6 0 0.08 0.6 0 0.1 0.6 0 0 0.605 0 0.02 0.605 0 0.04 0.605 0 0.06 0.605 0 0.08 0.605 0 0.1 0.605 0 0 0.61 0 0.02 0.61 0 0.04 0.61 0 0.06 0.61 0 0.08 0.61 0 0.1 0.61 0 0 0.615 0 0.02 0.615 0 0.04 0.615 0 0.06 0.615 0 0.08 0.615 0 0.1 0.615 0 0 0.62 0 0.02 0.62 0 0.04 0.62 0 0.06 0.62 0 0.08 0.62 0 0.1 0.62 0 0 0.625 0 0.02 0.625 0 0.04 0.625 0 0.06 0.625 0 0.08 0.625 0 0.1 0.625 0 0 0.63 0 0.02 0.63 0 0.04 0.63 0 0.06 0.63 0 0.08 0.63 0 0.1 0.63 0 0 0.635 0 0.02 0.635 0 0.04 0.635 0 0.06 0.635 0 0.08 0.635 0 0.1 0.635 0 0 0.64 0 0.02 0.64 0 0.04 0.64 0 0.06 0.64 0 0.08 0.64 0 0.1 0.64 0 0 0.645 0 0.02 0.645 0 0.04 0.645 0 0.06 0.645 0 0.08 0.645 0 0.1 0.645 0 0 0.65 0 0.02 0.65 0 0.04 0.65 0 0.06 0.65 0 0.08 0.65 0 0.1 0.65 0 0 0.655 0 0.02 0.655 0 0.04 0.655 0 0.06 0.655 0 0.08 0.655 0 0.1 0.655 0 0 0.66 0 0.02 0.66 0 0.04 0.66 0 0.06 0.66 0 0.08 0.66 0 0.1 0.66 0 0 0.665 0 0.02 0.665 0 0.04 0.665 0 0.06 0.665 0 0.08 0.665 0 0.1 0.665 0 0 0.67 0 0.02 0.67 0 0.04 0.67 0 0.06 0.67 0 0.08 0.67 0 0.1 0.67 0 0 0.675 0 0.02 0.675 0 0.04 0.675 0 0.06 0.675 0 0.08 0.675 0 0.1 0.675 0 0 0.68 0 0.02 0.68 0 0.04 0.68 0 0.06 0.68 0 0.08 0.68 0 0.1 0.68 0 0 0.685 0 0.02 0.685 0 0.04 0.685 0 0.06 0.685 0 0.08 0.685 0 0.1 0.685 0 0 0.69 0 0.02 0.69 0 0.04 0.69 0 0.06 0.69 0 0.08 0.69 0 0.1 
[...]
			<PointData Scalars="VitesseX">
				<DataArray Name="VitesseX" type="Float32" format="ascii">
 0 2.17511e-14 3.51348e-14 6.02849e-14 3.70462e-14 0 0 2.50189e-14 3.41872e-14 5.98763e-14 3.51087e-14 0 0 3.9303e-14 2.409e-14 6.74171e-14 2.48761e-14 0 0 2.64242e-14 5.41742e-14 4.58517e-14 2.53308e-14 0 0 1.61379e-14 8.48099e-14 2.12158e-14 3.03631e-14 0 0 6.44032e-14 3.56379e-14 6.27244e-14 5.49038e-15 0 0 7.6604e-14 4.1207e-14 5.64905e-14 1.03629e-16 0 0 7.0612e-14 5.79077e-14 4.43886e-14 -4.90172e-15 0 0 7.77248e-14 4.41792e-14 5.54221e-14 -9.79483e-15 0 0 5.75419e-14 7.8657e-14 2.41304e-14 1.06443e-14 0 0 4.53711e-14 9.03239e-14 2.30172e-14 7.76899e-15 0 0 2.66262e-14 1.20358e-13 -1.24973e-14 3.0887e-14 0 0 4.094e-14 1.06561e-13 1.22451e-15 2.00832e-14 0 0 6.08775e-14 6.47185e-14 5.25396e-14 -6.02362e-15 0 0 6.54152e-14 5.081e-14 5.65318e-14 1.38033e-14 0 0 1.15525e-13 -2.52636e-14 1.18225e-13 -1.32435e-14 0 0 9.27799e-14 1.29591e-14 6.46318e-14 3.10881e-14 0 0 3.04558e-14 9.22185e-14 -1.2068e-14 1.09852e-13 0 0 2.53675e-14 5.60904e-14 7.24992e-14 8.60724e-14 0 0 3.80853e-14 8.24883e-15 1.56372e-13 4.22555e-14 0 0 2.46373e-14 6.51613e-14 7.46225e-14 1.0579e-13 0 0 4.15759e-14 6.34842e-14 8.59156e-14 9.82255e-14 0 0 7.69497e-14 2.74002e-14 1.44273e-13 4.08473e-14 0 0 6.04258e-14 1.15754e-13 3.48367e-14 9.21785e-14 0 0 7.53645e-14 1.36245e-13 2.71931e-14 8.27554e-14 0 0 4.61181e-14 1.85204e-13 3.56584e-15 9.4661e-14 0 0 4.53083e-14 1.42069e-13 6.31075e-14 6.07507e-14 0 0 9.35074e-14 3.79367e-14 1.54399e-13 2.88162e-14 0 0 5.08958e-14 6.23399e-14 1.2252e-13 6.01861e-14 0 0 8.59198e-14 1.39562e-14 1.62921e-13 -3.66574e-15 0 0 1.33829e-13 -2.15168e-14 1.70098e-13 -2.71304e-14 0 0 7.34723e-14 7.19643e-14 7.07988e-14 1.84781e-14 0 0 4.29666e-14 1.466e-13 1.26324e-14 -3.34066e-14 0 0 -2.0034e-14 2.29446e-13 -4.51406e-14 -3.54236e-14 0 0 2.11673e-14 1.29527e-13 2.32617e-14 -4.53903e-14 0 0 1.32137e-13 -1.60328e-14 1.08944e-13 -7.99654e-14 0 0 9.84009e-14 7.51252e-14 1.03107e-15 2.22971e-14 0 0 1.11914e-13 6.97064e-14 3.57121e-14 4.6789e-14 0 0 1.30784e-13 3.39013e-14 1.4062e-13 -2.89333e-14 0 0 1.10035e-13 9.93342e-14 7.74241e-14 -3.46877e-14 0 0 1.83094e-13 8.10076e-14 -1.18185e-14 4.3918e-14 0 0 2.47912e-13 7.33071e-14 -5.38713e-14 5.68839e-14 0 0 2.18615e-13 9.6818e-14 -4.82679e-14 -4.67584e-15 0 0 1.46128e-13 1.06964e-13 -6.97542e-14 8.01269e-14 0 0 1.18832e-13 6.32493e-14 2.6374e-14 8.74238e-14 0 0 9.62513e-14 8.27286e-15 1.37781e-13 2.84078e-14 0 0 6.26514e-15 9.88609e-14 -2.03331e-14 1.39128e-13 0 0 3.06822e-15 2.7588e-14 -7.33383e-17 1.45158e-13 0 0 -9.63563e-15 -1.8793e-15 2.05006e-14 1.49005e-13 0 0 -2.3678e-14 -3.72656e-15 1.33437e-13 8.673e-16 0 0 2.49845e-14 -1.26784e-13 3.70627e-13 -2.00207e-13 0 0 3.62512e-14 -6.77644e-14 2.33607e-13 -8.31026e-14 0 0 -3.16414e-14 1.59434e-13 -4.59696e-14 1.33242e-13 0 0 -5.45439e-14 2.14864e-13 -1.21149e-14 1.20108e-13 0 0 1.0816e-13 -1.80252e-15 2.26903e-13 -1.63672e-14 0 0 1.31559e-13 3.16594e-14 2.29229e-13 -4.69777e-14 0 0 4.92703e-14 2.02153e-13 1.5136e-13 -7.7592e-15 0 0 6.87431e-14 3.1522e-13 4.50835e-14 5.4044e-14 0 0 2.4135e-13 2.53915e-13 1.10037e-13 -1.71955e-18 0 0 3.59227e-13 1.72158e-13 2.03421e-13 9.58912e-15 0 0 2.99689e-13 2.76558e-13 3.98606e-14 1.7192e-13 0 0 2.62904e-13 2.45804e-13 -3.37639e-14 3.02964e-13 0 0 2.44857e-13 1.74974e-13 8.33775e-14 3.01653e-13 0 0 3.50061e-13 5.07615e-14 2.65889e-13 2.23246e-13 0 0 2.28172e-13 2.16427e-13 1.14825e-13 3.92587e-13 0 0 1.03092e-13 2.20416e-13 2.37838e-13 3.8873e-13 0 0 4.34936e-14 5.42628e-14 4.63879e-13 2.9363e-13 0 0 -2.2848e-13 2.74149e-13 2.45354e-13 4.28294e-13 0 0 -2.89986e-13 2.89157e-13 2.92143e-13 3.34561e-13 0 0 -2.06636e-13 2.5456e-13 3.07687e-13 2.76331e-13 0 0 2.70557e-14 1.27454e-13 3.28976e-13 2.73284e-13 0 0 1.02688e-13 1.0636e-13 3.71607e-13 2.28822e-13 0 0 2.42914e-14 7.55417e-14 5.25448e-13 9.89509e-14 0 0 -5.29924e-14 1.06162e-13 5.59419e-13 4.75001e-14 0 0 -1.03867e-13 3.1335e-13 3.80007e-13 9.90116e-14 0 0 -4.57826e-15 3.26697e-13 3.61855e-13 8.65954e-14 0 0 -4.31903e-15 3.65577e-13 3.19399e-13 1.17293e-13 0 0 -5.49352e-14 4.34964e-13 2.16865e-13 1.86884e-13 0 0 -4.09099e-14 4.03682e-13 1.99961e-13 4.68874e-14 0 0 1.15025e-13 1.50416e-13 3.45695e-13 -1.00094e-13 0 0 4.15763e-13 -3.75452e-13 7.1715e-13 -2.79666e-13 0 0 4.18203e-13 -3.77564e-13 6.35474e-13 -1.75223e-13 0 0 1.02328e-13 1.3687e-13 -3.69518e-14 2.85815e-13 0 0 -2.91464e-13 5.28662e-13 -3.73207e-13 4.84677e-13 0 0 -3.25871e-13 4.17204e-13 -1.98881e-13 3.81642e-13 0 0 -2.3516e-13 6.74872e-14 2.86793e-13 5.20424e-14 0 0 -1.83329e-13 -1.32352e-13 5.24313e-13 -1.08367e-13 0 0 -3.17305e-13 -3.77444e-14 4.51834e-13 -6.2714e-14 0 0 -4.52869e-13 1.0795e-13 2.51535e-13 4.21274e-14 0 0 -3.8009e-13 3.33085e-14 1.38686e-13 1.79871e-13 0 0 -9.07473e-14 -2.55815e-13 1.03837e-13 3.41631e-13 0 0 2.01454e-13 -5.61883e-13 1.14049e-14 5.38903e-13 0 0 1.7737e-13 -5.92404e-13 -1.50452e-13 7.7765e-13 0 0 -9.22652e-15 -5.25103e-13 -1.13881e-13 7.58738e-13 0 0 -1.55939e-13 -4.48387e-13 1.42863e-14 6.18217e-13 0 0 -2.72046e-13 -3.67076e-13 2.07413e-13 3.6926e-13 0 0 -3.11885e-13 -3.20486e-13 4.72235e-13 2.91224e-15 0 0 -3.45002e-13 -2.96015e-13 7.23643e-13 -4.61416e-13 0 0 -4.93565e-13 -2.16742e-13 7.97062e-13 -6.56489e-13 0 0 -5.29939e-13 1.54317e-14 6.54406e-13 -5.99064e-13 0 0 -4.25061e-13 2.06296e-13 2.43703e-13 -2.97237e-13 0 0 -2.17763e-13 2.26503e-13 -2.61255e-13 2.3156e-13 0 0 -7.4494e-14 2.53137e-13 -4.6408e-13 5.78988e-13 0 0 -7.31712e-14 3.41501e-13 -4.34262e-13 5.53076e-13 0 0 -6.49329e-14 3.72499e-13 -2.3333e-13 2.78256e-13 0 0 7.96633e-14 2.60212e-13 1.9446e-13 -2.52731e-13 0 0 3.22594e-13 -7.44996e-14 6.93069e-13 -5.29938e-13 0 0 3.80543e-13 -2.13308e-13 7.68833e-13 -5.13846e-13 0 0 3.59241e-13 -1.82501e-13 6.81675e-13 -3.76114e-13 0 0 2.72423e-13 -8.21343e-14 5.51807e-13 -2.14695e-13 0 0 1.74304e-13 9.84404e-14 4.09282e-13 -4.19274e-14 0 0 1.69213e-13 2.65829e-13 1.68322e-13 2.36624e-13 0 0 1.752e-13 3.12568e-13 9.89124e-14 3.42328e-13 0 0 2.05532e-13 3.25668e-13 1.39722e-13 2.94362e-13 0 0 2.63875e-13 3.50895e-13 1.5934e-13 2.51342e-13 0 0 3.5891e-13 3.23211e-13 2.04818e-13 1.72976e-13 0 0 4.59928e-13 2.81348e-13 2.08351e-13 1.75511e-13 0 0 4.90393e-13 2.75704e-13 2.37864e-13 1.95012e-13 0 0 4.9637e-13 2.67523e-13 2.9498e-13 1.82711e-13 0 0 4.85052e-13 2.96562e-13 2.83631e-13 1.727e-13 0 0 4.15223e-13 3.65766e-13 2.49519e-13 1.97755e-13 0 0 3.06188e-13 4.33545e-13 2.40383e-13 1.97189e-13 0 0 2.08198e-13 4.47712e-13 3.31839e-13 9.51616e-14 0 0 1.63506e-13 4.4501e-13 3.79604e-13 5.8472e-14 0 0 1.44284e-13 4.4059e-13 3.88482e-13 8.74239e-14 0 0 1.38039e-13 4.15005e-13 4.07929e-13 7.26616e-14 0 0 1.41167e-13 4.06535e-13 3.8666e-13 6.38616e-14 0 0 1.28366e-13 4.18799e-13 3.37995e-13 1.38325e-13 0 0 1.19391e-13 4.17142e-13 3.28999e-13 2.00599e-13 0 0 1.33189e-13 4.01895e-13 3.29256e-13 2.27556e-13 0 0 1.58338e-13 3.81968e-13 2.71767e-13 3.23884e-13 0 0 1.89302e-13 3.47695e-13 2.39502e-13 3.86932e-13 0 0 2.43772e-13 2.65665e-13 3.30145e-13 3.38639e-13 0 0 2.75745e-13 2.20104e-13 3.97884e-13 3.10039e-13 0 0 2.73983e-13 2.41004e-13 4.04352e-13 3.08547e-13 0 0 2.53763e-13 2.99522e-13 3.77406e-13 2.9806e-13 0 0 2.48586e-13 3.61955e-13 3.023e-13 3.65877e-13 0 0 2.49761e-13 3.56832e-13 3.15447e-13 3.86495e-13 0 0 2.29195e-13 3.48256e-13 3.81054e-13 2.86968e-13 0 0 2.12747e-13 3.27301e-13 3.66805e-13 3.37168e-13 0 0 1.89968e-13 3.1346e-13 3.64092e-13 3.2461e-13 0 0 1.38244e-13 3.34271e-13 3.79827e-13 1.82816e-13 0 0 1.01053e-13 3.3523e-13 3.62056e-13 1.28637e-13 0 0 1.02173e-13 2.82845e-13 3.63619e-13 1.67089e-13 0 0 1.28633e-13 1.95471e-13 3.6814e-13 1.62312e-13 0 0 1.54189e-13 1.872e-13 3.37435e-13 1.9751e-13 0 0 1.42425e-13 2.31986e-13 2.33449e-13 2.81275e-13 0 0 1.38484e-13 3.23165e-13 9.36108e-14 3.96792e-13 0 0 1.55184e-13 3.39372e-13 1.67554e-13 3.92705e-13 0 0 2.55821e-13 2.0959e-13 4.90429e-13 2.24055e-13 0 0 2.43439e-13 3.06484e-13 5.07737e-13 3.3529e-13 0 0 2.08648e-13 4.66073e-13 3.55544e-13 4.76173e-13 0 0 2.50953e-13 4.74615e-13 3.06625e-13 4.32162e-13 0 0 3.04422e-13 3.99497e-13 3.55381e-13 3.41462e-13 0 0 3.40509e-13 3.23831e-13 4.32785e-13 2.02271e-13 0 0 3.554e-13 2.70536e-13 5.17623e-13 1.38971e-13 0 0 4.44452e-13 1.22975e-13 6.64998e-13 2.45336e-14 0 0 3.8231e-13 1.77039e-13 6.73772e-13 -7.48498e-14 0 0 3.25359e-13 2.88823e-13 5.24537e-13 2.97553e-14 0 0 2.92666e-13 4.24589e-13 2.43722e-13 3.04249e-13 0 0 2.83495e-13 4.31263e-13 1.68165e-13 4.93162e-13 0 0 4.18981e-13 1.58277e-13 5.1777e-13 2.63807e-13 0 0 3.99729e-13 1.8611e-13 5.39814e-13 2.27542e-13 0 0 3.33326e-13 3.41555e-13 3.80222e-13 3.04285e-13 0 0 3.33539e-13 3.70165e-13 3.93659e-13 2.47585e-13 0 0 3.0865e-13 3.93667e-13 4.46825e-13 2.61113e-13 0 0 2.77281e-13 4.79765e-13 3.73948e-13 3.82949e-13 0 0 4.66067e-13 2.76613e-13 4.87508e-13 4.21726e-13 0 0 5.35659e-13 3.03358e-13 3.87967e-13 4.9539e-13 0 0 3.76503e-13 6.3974e-13 1.30324e-13 4.89454e-13 0 0 4.06618e-13 5.66129e-13 3.71833e-13 2.16318e-13 0 0 4.11792e-13 5.66247e-13 4.54356e-13 1.54582e-13 0 0 4.6248e-13 6.16986e-13 4.15104e-13 1.49677e-13 0 0 5.78668e-13 5.38241e-13 4.9638e-13 7.05034e-14 0 0 4.67801e-13 6.30687e-13 4.91163e-13 1.46409e-13 0 0 4.67811e-13 5.15511e-13 6.25834e-13 1.91501e-13 0 0 4.56046e-13 5.2794e-13 5.67561e-13 3.07577e-13 0 0 2.48385e-13 8.62938e-13 2.33048e-13 5.61602e-13 0 0 3.14618e-13 6.43661e-13 4.68205e-13 4.59477e-13 0 0 3.91228e-13 5.06462e-13 6.22943e-13 3.20332e-13 0 0 3.86887e-13 5.42585e-13 4.88556e-13 3.68243e-13 0 0 2.31447e-13 7.41368e-13 3.68135e-13 3.19468e-13 0 0 1.61974e-13 7.95078e-13 5.14255e-13 4.03527e-14 0 0 4.32356e-13 3.88709e-13 8.623e-13 -1.88118e-13 0 0 5.65348e-13 3.79462e-13 6.30491e-13 4.81593e-14 0 0 1.9381e-13 8.98593e-13 1.5395e-14 4.73627e-13 0 0 -4.37964e-15 1.00311e-12 1.40367e-14 4.02406e-13 0 0 2.78322e-13 2.72761e-13 9.34374e-13 -2.92492e-13 0 0 9.98204e-14 4.17485e-13 7.89729e-13 -1.46168e-13 0 0 1.62858e-13 5.69532e-13 3.18113e-13 3.70255e-13 0 0 4.52556e-13 3.80043e-13 3.36542e-13 3.54373e-13 0 0 3.42132e-13 5.87859e-13 3.43633e-13 1.58603e-13 0 0 4.01825e-13 2.13666e-13 8.12082e-13 -6.91563e-14 0 0 5.97469e-13 -1.29567e-13 8.14089e-13 1.60971e-13 0 0 5.38743e-13 -5.82545e-15 7.70835e-13 1.43346e-13 0 0 3.92236e-13 1.66905e-13 7.4658e-13 2.15169e-13 0 0 1.7297e-13 4.58691e-13 4.30991e-13 5.33583e-13 0 0 5.49841e-15 5.7243e-13 5.10502e-13 3.61367e-13 0 0 2.16272e-13 2.05444e-13 7.16885e-13 3.02374e-13 0 0 8.18365e-15 5.95762e-13 1.08778e-13 6.91948e-13 0 0 -3.82333e-13 1.25052e-12 -5.36305e-13 9.63494e-13 0
				</DataArray>
				<DataArray Name="VitesseY" type="Float32" format="ascii">