<?xml version="1.0"?>
<VTKFile type="PolyData">
	<PolyData>
		<Piece NumberOfPoints="1206" NumberOfPolys="1000">
			<Points>
				<DataArray type="Float32" NumberOfComponents="3" format="ascii">
 0 0 0 0.02 0 0 0.04 0 0 0.06 0 0 0.08 0 0 0.1 0 0 0 0.005 0 0.02 0.005 0 0.04 0.005 0 0.06 0.005 0 0.08 0.005 0 0.1 0.005 0 0 0.01 0 0.02 0.01 0 0.04 0.01 0 0.06 0.01 0 0.08 0.01 0 0.1 0.01 0 0 0.015 0 0.02 0.015 0 0.04 0.015 0 0.06 0.015 0 0.08 0.015 0 0.1 0.015 0 0 0.02 0 0.02 0.02 0 0.04 0.02 0 0.06 0.02 0 0.08 0.02 0 0.1 0.02 0 0 0.025 0 0.02 0.025 0 0.04 0.025 0 0.06 0.025 0 0.08 0.025 0 0.1 0.025 0 0 0.03 0 0.02 0.03 0 0.04 0.03 0 0.06 0.03 0 0.08 0.03 0 0.1 0.03 0 0 0.035 0 0.02 0.035 0 0.04 0.035 0 0.06 0.035 0 0.08 0.035 0 0.1 0.035 0 0 0.04 0 0.02 0.04 0 0.04 0.04 0 0.06 0.04 0 0.08 0.04 0 0.1 0.04 0 0 0.045 0 0.02 0.045 0 0.04 0.045 0 0.06 0.045 0 0.08 0.045 0 0.1 0.045 0 0 0.05 0 0.02 0.05 0 0.04 0.05 0 0.06 0.05 0 0.08 0.05 0 0.1 0.05 0 0 0.055 0 0.02 0.055 0 0.04 0.055 0 0.06 0.055 0 0.08 0.055 0 0.1 0.055 0 0 0.06 0 0.02 0.06 0 0.04 0.06 0 0.06 0.06 0 0.08 0.06 0 0.1 0.06 0 0 0.065 0 0.02 0.065 0 0.04 0.065 0 0.06 0.065 0 0.08 0.065 0 0.1 0.065 0 0 0.07 0 0.02 0.07 0 0.04 0.07 0 0.06 0.07 0 0.08 0.07 0 0.1 0.07 0 0 0.075 0 0.02 0.075 0 0.04 0.075 0 0.06 0.075 0 0.08 0.075 0 0.1 0.075 0 0 0.08 0 0.02 0.08 0 0.04 0.08 0 0.06 0.08 0 0.08 0.08 0 0.1 0.08 0 0 0.085 0 0.02 0.085 0 0.04 0.085 0 0.06 0.085 0 0.08 0.085 0 0.1 0.085 0 0 0.09 0 0.02 0.09 0 0.04 0.09 0 0.06 0.09 0 0.08 0.09 0 0.1 0.09 0 0 0.095 0 0.02 0.095 0 0.04 0.095 0 0.06 0.095 0 0.08 0.095 0 0.1 0.095 0 0 0.1 0 0.02 0.1 0 0.04 0.1 0 0.06 0.1 0 0.08 0.1 0 0.1 0.1 0 0 0.105 0 0.02 0.105 0 0.04 0.105 0 0.06 0.105 0 0.08 0.105 0 0.1 0.105 0 0 0.11 0 0.02 0.11 0 0.04 0.11 0 0.06 0.11 0 0.08 0.11 0 0.1 0.11 0 0 0.115 0 0.02 0.115 0 0.04 0.115 0 0.06 0.115 0 0.08 0.115 0 0.1 0.115 0 0 0.12 0 0.02 0.12 0 0.04 0.12 0 0.06 0.12 0 0.08 0.12 0 0.1 0.12 0 0 0.125 0 0.02 0.125 0 0.04 0.125 0 0.06 0.125 0 0.08 0.125 0 0.1 0.125 0 0 0.13 0 0.02 0.13 0 0.04 0.13 0 0.06 0.13 0 0.08 0.13 0 0.1 0.13 0 0 0.135 0 0.02 0.135 0 0.04 0.135 0 0.06 0.135 0 0.08 0.135 0 0.1 0.135 0 0 0.14 0 0.02 0.14 0 0.04 0.14 0 0.06 0.14 0 0.08 0.14 0 0.1 0.14 0 0 0.145 0 0.02 0.145 0 0.04 0.145 0 0.06 0.145 0 0.08 0.145 0 0.1 0.145 0 0 0.15 0 0.02 0.15 0 0.04 0.15 0 0.06 0.15 0 0.08 0.15 0 0.1 0.15 0 0 0.155 0 0.02 0.155 0 0.04 0.155 0 0.06 0.155 0 0.08 0.155 0 0.1 0.155 0 0 0.16 0 0.02 0.16 0 0.04 0.16 0 0.06 0.16 0 0.08 0.16 0 0.1 0.16 0 0 0.165 0 0.02 0.165 0 0.04 0.165 0 0.06 0.165 0 0.08 0.165 0 0.1 0.165 0 0 0.17 0 0.02 0.17 0 0.04 0.17 0 0.06 0.17 0 0.08 0.17 0 0.1 0.17 0 0 0.175 0 0.02 0.175 0 0.04 0.175 0 0.06 0.175 0 0.08 0.175 0 0.1 0.175 0 0 0.18 0 0.02 0.18 0 0.04 0.18 0 0.06 0.18 0 0.08 0.18 0 0.1 0.18 0 0 0.185 0 0.02 0.185 0 0.04 0.185 0 0.06 0.185 0 0.08 0.185 0 0.1 0.185 0 0 0.19 0 0.02 0.19 0 0.04 0.19 0 0.06 0.19 0 0.08 0.19 0 0.1 0.19 0 0 0.195 0 0.02 0.195 0 0.04 0.195 0 0.06 0.195 0 0.08 0.195 0 0.1 0.195 0 0 0.2 0 0.02 0.2 0 0.04 0.2 0 0.06 0.2 0 0.08 0.2 0 0.1 0.2 0 0 0.205 0 0.02 0.205 0 0.04 0.205 0 0.06 0.205 0 0.08 0.205 0 0.1 0.205 0 0 0.21 0 0.02 0.21 0 0.04 0.21 0 0.06 0.21 0 0.08 0.21 0 0.1 0.21 0 0 0.215 0 0.02 0.215 0 0.04 0.215 0 0.06 0.215 0 0.08 0.215 0 0.1 0.215 0 0 0.22 0 0.02 0.22 0 0.04 0.22 0 0.06 0.22 0 0.08 0.22 0 0.1 0.22 0 0 0.225 0 0.02 0.225 0 0.04 0.225 0 0.06 0.225 0 0.08 0.225 0 0.1 0.225 0 0 0.23 0 0.02 0.23 0 0.04 0.23 0 0.06 0.23 0 0.08 0.23 0 0.1 0.23 0 0 0.235 0 0.02 0.235 0 0.04 0.235 0 0.06 0.235 0 0.08 0.235 0 0.1 0.235 0 0 0.24 0 0.02 0.24 0 0.04 0.24 0 0.06 0.24 0 0.08 0.24 0 0.1 0.24 0 0 0.245 0 0.02 0.245 0 0.04 0.245 0 0.06 0.245 0 0.08 0.245 0 0.1 0.245 0 0 0.25 0 0.02 0.25 0 0.04 0.25 0 0.06 0.25 0 0.08 0.25 0 0.1 0.25 0 0 0.255 0 0.02 0.255 0 0.04 0.255 0 0.06 0.255 0 0.08 0.255 0 0.1 0.255 0 0 0.26 0 0.02 0.26 0 0.04 0.26 0 0.06 0.26 0 0.08 0.26 0 0.1 0.26 0 0 0.265 0 0.02 0.265 0 0.04 0.265 0 0.06 0.265 0 0.08 0.265 0 0.1 0.265 0 0 0.27 0 0.02 0.27 0 0.04 0.27 0 0.06 0.27 0 0.08 0.27 0 0.1 0.27 0 0 0.275 0 0.02 0.275 0 0.04 0.275 0 0.06 0.275 0 0.08 0.275 0 0.1 0.275 0 0 0.28 0 0.02 0.28 0 0.04 0.28 0 0.06 0.28 0 0.08 0.28 0 0.1 0.28 0 0 0.285 0 0.02 0.285 0 0.04 0.285 0 0.06 0.285 0 0.08 0.285 0 0.1 0.285 0 0 0.29 0 0.02 0.29 0 0.04 0.29 0 0.06 0.29 0 0.08 0.29 0 0.1 0.29 0 0 0.295 0 0.02 0.295 0 0.04 0.295 0 0.06 0.295 0 0.08 0.295 0 0.1 0.295 0 0 0.3 0 0.02 0.3 0 0.04 0.3 0 0.06 0.3 0 0.08 0.3 0 0.1 0.3 0 0 0.305 0 0.02 0.305 0 0.04 0.305 0 0.06 0.305 0 0.08 0.305 0 0.1 0.305 0 0 0.31 0 0.02 0.31 0 0.04 0.31 0 0.06 0.31 0 0.08 0.31 0 0.1 0.31 0 0 0.315 0 0.02 0.315 0 0.04 0.315 0 0.06 0.315 0 0.08 0.315 0 0.1 0.315 0 0 0.32 0 0.02 0.32 0 0.04 0.32 0 0.06 0.32 0 0.08 0.32 0 0.1 0.32 0 0 0.325 0 0.02 0.325 0 0.04 0.325 0 0.06 0.325 0 0.08 0.325 0 0.1 0.325 0 0 0.33 0 0.02 0.33 0 0.04 0.33 0 0.06 0.33 0 0.08 0.33 0 0.1 0.33 0 0 0.335 0 0.02 0.335 0 0.04 0.335 0 0.06 0.335 0 0.08 0.335 0 0.1 0.335 0 0 0.34 0 0.02 0.34 0 0.04 0.34 0 0.06 0.34 0 0.08 0.34 0 0.1 0.34 0 0 0.345 0 0.02 0.345 0 0.04 0.345 0 0.06 0.345 0 0.08 0.345 0 0.1 0.345 0 0 0.35 0 0.02 0.35 0 0.04 0.35 0 0.06 0.35 0 0.08 0.35 0 0.1 0.35 0 0 0.355 0 0.02 0.355 0 0.04 0.355 0 0.06 0.355 0 0.08 0.355 0 0.1 0.355 0 0 0.36 0 0.02 0.36 0 0.04 0.36 0 0.06 0.36 0 0.08 0.36 0 0.1 0.36 0 0 0.365 0 0.02 0.365 0 0.04 0.365 0 0.06 0.365 0 0.08 0.365 0 0.1 0.365 0 0 0.37 0 0.02 0.37 0 0.04 0.37 0 0.06 0.37 0 0.08 0.37 0 0.1 0.37 0 0 0.375 0 0.02 0.375 0 0.04 0.375 0 0.06 0.375 0 0.08 0.375 0 0.1 0.375 0 0 0.38 0 0.02 0.38 0 0.04 0.38 0 0.06 0.38 0 0.08 0.38 0 0.1 0.38 0 0 0.385 0 0.02 0.385 0 0.04 0.385 0 0.06 0.385 0 0.08 0.385 0 0.1 0.385 0 0 0.39 0 0.02 0.39 0 0.04 0.39 0 0.06 0.39 0 0.08 0.39 0 0.1 0.39 0 0 0.395 0 0.02 0.395 0 0.04 0.395 0 0.06 0.395 0 0.08 0.395 0 0.1 0.395 0 0 0.4 0 0.02 0.4 0 0.04 0.4 0 0.06 0.4 0 0.08 0.4 0 0.1 0.4 0 0 0.405 0 0.02 0.405 0 0.04 0.405 0 0.06 0.405 0 0.08 0.405 0 0.1 0.405 0 0 0.41 0 0.02 0.41 0 0.04 0.41 0 0.06 0.41 0 0.08 0.41 0 0.1 0.41 0 0 0.415 0 0.02 0.415 0 0.04 0.415 0 0.06 0.415 0 0.08 0.415 0 0.1 0.415 0 0 0.42 0 0.02 0.42 0 0.04 0.42 0 0.06 0.42 0 0.08 0.42 0 0.1 0.42 0 0 0.425 0 0.02 0.425 0 0.04 0.425 0 0.06 0.425 0 0.08 0.425 0 0.1 0.425 0 0 0.43 0 0.02 0.43 0 0.04 0.43 0 0.06 0.43 0 0.08 0.43 0 0.1 0.43 0 0 0.435 0 0.02 0.435 0 0.04 0.435 0 0.06 0.435 0 0.08 0.435 0 0.1 0.435 0 0 0.44 0 0.02 0.44 0 0.04 0.44 0 0.06 0.44 0 0.08 0.44 0 0.1 0.44 0 0 0.445 0 0.02 0.445 0 0.04 0.445 0 0.06 0.445 0 0.08 0.445 0 0.1 0.445 0 0 0.45 0 0.02 0.45 0 0.04 0.45 0 0.06 0.45 0 0.08 0.45 0 0.1 0.45 0 0 0.455 0 0.02 0.455 0 0.04 0.455 0 0.06 0.455 0 0.08 0.455 0 0.1 0.455 0 0 0.46 0 0.02 0.46 0 0.04 0.46 0 0.06 0.46 0 0.08 0.46 0 0.1 0.46 0 0 0.465 0 0.02 0.465 0 0.04 0.465 0 0.06 0.465 0 0.08 0.465 0 0.1 0.465 0 0 0.47 0 0.02 0.47 0 0.04 0.47 0 0.06 0.47 0 0.08 0.47 0 0.1 0.47 0 0 0.475 0 0.02 0.475 0 0.04 0.475 0 0.06 0.475 0 0.08 0.475 0 0.1 0.475 0 0 0.48 0 0.02 0.48 0 0.04 0.48 0 0.06 0.48 0 0.08 0.48 0 0.1 0.48 0 0 0.485 0 0.02 0.485 0 0.04 0.485 0 0.06 0.485 0 0.08 0.485 0 0.1 0.485 0 0 0.49 0 0.02 0.49 0 0.04 0.49 0 0.06 0.49 0 0.08 0.49 0 0.1 0.49 0 0 0.495 0 0.02 0.495 0 0.04 0.495 0 0.06 0.495 0 0.08 0.495 0 0.1 0.495 0 0 0.5 0 0.02 0.5 0 0.04 0.5 0 0.06 0.5 0 0.08 0.5 0 0.1 0.5 0 0 0.505 0 0.02 0.505 0 0.04 0.505 0 0.06 0.505 0 0.08 0.505 0 0.1 0.505 0 0 0.51 0 0.02 0.51 0 0.04 0.51 0 0.06 0.51 0 0.08 0.51 0 0.1 0.51 0 0 0.515 0 0.02 0.515 0 0.04 0.515 0 0.06 0.515 0 0.08 0.515 0 0.1 0.515 0 0 0.52 0 0.02 0.52 0 0.04 0.52 0 0.06 0.52 0 0.08 0.52 0 0.1 0.52 0 0 0.525 0 0.02 0.525 0 0.04 0.525 0 0.06 0.525 0 0.08 0.525 0 0.1 0.525 0 0 0.53 0 0.02 0.53 0 0.04 0.53 0 0.06 0.53 0 0.08 0.53 0 0.1 0.53 0 0 0.535 0 0.02 0.535 0 0.04 0.535 0 0.06 0.535 0 0.08 0.535 0 0.1 0.535 0 0 0.54 0 0.02 0.54 0 0.04 0.54 0 0.06 0.54 0 0.08 0.54 0 0.1 0.54 0 0 0.545 0 0.02 0.545 0 0.04 0.545 0 0.06 0.545 0 0.08 0.545 0 0.1 0.545 0 0 0.55 0 0.02 0.55 0 0.04 0.55 0 0.06 0.55 0 0.08 0.55 0 0.1 0.55 0 0 0.555 0 0.02 0.555 0 0.04 0.555 0 0.06 0.555 0 0.08 0.555 0 0.1 0.555 0 0 0.56 0 0.02 0.56 0 0.04 0.56 0 0.06 0.56 0 0.08 0.56 0 0.1 0.56 0 0 0.565 0 0.02 0.565 0 0.04 0.565 0 0.06 0.565 0 0.08 0.565 0 0.1 0.565 0 0 0.57 0 0.02 0.57 0 0.04 0.57 0 0.06 0.57 0 0.08 0.57 0 0.1 0.57 0 0 0.575 0 0.02 0.575 0 0.04 0.575 0 0.06 0.575 0 0.08 0.575 0 0.1 0.575 0 0 0.58 0 0.02 0.58 0 0.04 0.58 0 0.06 0.58 0 0.08 0.58 0 0.1 0.58 0 0 0.585 0 0.02 0.585 0 0.04 0.585 0 0.06 0.585 0 0.08 0.585 0 0.1 0.585 0 0 0.59 0 0.02 0.59 0 0.04 0.59 0 0.06 0.59 0 0.08 0.59 0 0.1 0.59 0 0 0.595 0 0.02 0.595 0 0.04 0.595 0 0.06 0.595 0 0.08 0.595 0 0.1 0.595 0 0 0.6 0 0.02 0.6 0 0.04 0.6 0 0.06 0.6 0 0.08 0.6 0 0.1 0.6 0 0 0.605 0 0.02 0.605 0 0.04 0.605 0 0.06 0.605 0 0.08 0.605 0 0.1 0.605 0 0 0.61 0 0.02 0.61 0 0.04 0.61 0 0.06 0.61 0 0.08 0.61 0 0.1 0.61 0 0 0.615 0 0.02 0.615 0 0.04 0.615 0 0.06 0.615 0 0.08 0.615 0 0.1 0.615 0 0 0.62 0 0.02 0.62 0 0.04 0.62 0 0.06 0.62 0 0.08 0.62 0 0.1 0.62 0 0 0.625 0 0.02 0.625 0 0.04 0.625 0 0.06 0.625 0 0.08 0.625 0 0.1 0.625 0 0 0.63 0 0.02 0.63 0 0.04 0.63 0 0.06 0.63 0 0.08 0.63 0 0.1 0.63 0 0 0.635 0 0.02 0.635 0 0.04 0.635 0 0.06 0.635 0 0.08 0.635 0 0.1 0.635 0 0 0.64 0 0.02 0.64 0 0.04 0.64 0 0.06 0.64 0 0.08 0.64 0 0.1 0.64 0 0 0.645 0 0.02 0.645 0 0.04 0.645 0 0.06 0.645 0 0.08 0.645 0 0.1 0.645 0 0 0.65 0 0.02 0.65 0 0.04 0.65 0 0.06 0.65 0 0.08 0.65 0 0.1 0.65 0 0 0.655 0 0.02 0.655 0 0.04 0.655 0 0.06 0.655 0 0.08 0.655 0 0.1 0.655 0 0 0.66 0 0.02 0.66 0 0.04 0.66 0 0.06 0.66 0 0.08 0.66 0 0.1 0.66 0 0 0.665 0 0.02 0.665 0 0.04 0.665 0 0.06 0.665 0 0.08 0.665 0 0.1 0.665 0 0 0.67 0 0.02 0.67 0 0.04 0.67 0 0.06 0.67 0 0.08 0.67 0 0.1 0.67 0 0 0.675 0 0.02 0.675 0 0.04 0.675 0 0.06 0.675 0 0.08 0.675 0 0.1 0.675 0 0 0.68 0 0.02 0.68 0 0.04 0.68 0 0.06 0.68 0 0.08 0.68 0 0.1 0.68 0 0 0.685 0 0.02 0.685 0 0.04 0.685 0 0.06 0.685 0 0.08 0.685 0 0.1 0.685 0 0 0.69 0 0.02 0.69 0 0.04 0.69 0 0.06 0.69 0 0.08 0.69 0 0.1 
[...]
			<PointData Scalars="VitesseX">
				<DataArray Name="VitesseX" type="Float32" format="ascii">
 0 -1.31796e-14 -8.08891e-15 1.22789e-14 9.86416e-15 0 0 -1.37375e-14 -8.50959e-15 1.39616e-14 8.55374e-15 0 0 -1.46813e-14 -7.81255e-15 1.4122e-14 7.46398e-15 0 0 -2.52123e-14 9.11701e-15 -5.95125e-15 2.50774e-14 0 0 -8.52893e-15 -2.46184e-14 2.67361e-14 1.3109e-14 0 0 -4.09345e-15 -3.42039e-14 2.85718e-14 2.71036e-14 0 0 -4.76518e-14 4.33578e-14 -5.16445e-14 9.53298e-14 0 0 -6.43345e-14 5.59795e-14 -1.10736e-14 6.90891e-14 0 0 -4.73815e-14 1.73232e-14 7.86384e-14 9.04409e-15 0 0 -1.3047e-14 -3.01004e-14 1.28501e-13 -3.91115e-15 0 0 2.04755e-14 -6.7217e-14 1.57179e-13 -1.30423e-14 0 0 3.54595e-14 -6.25424e-14 1.48474e-13 -2.23487e-14 0 0 -2.19213e-14 5.67063e-14 1.44584e-14 6.02508e-14 0 0 -1.7693e-14 6.82112e-14 5.27143e-15 5.17472e-14 0 0 3.71482e-14 -1.10604e-14 1.02937e-13 -2.65209e-14 0 0 -1.99631e-14 1.02887e-13 -2.71284e-14 5.28213e-14 0 0 8.09313e-15 6.35218e-14 -1.67406e-14 5.26651e-14 0 0 6.21641e-14 -3.16e-14 4.93333e-14 3.2738e-14 0 0 7.40914e-14 -5.10718e-14 2.98613e-14 5.89749e-14 0 0 2.74875e-14 9.93268e-15 -3.03177e-14 7.30785e-14 0 0 -3.27313e-14 1.08313e-13 -1.31683e-13 1.23061e-13 0 0 -4.61673e-14 1.11483e-13 -1.20076e-13 8.31838e-14 0 0 -2.86645e-15 -1.93565e-14 6.2864e-14 -8.76486e-14 0 0 -3.89986e-14 -7.42199e-15 3.20247e-14 -6.60623e-14 0 0 -1.41016e-13 1.21829e-13 -1.16761e-13 3.03755e-14 0 0 -9.70504e-14 1.74498e-15 4.20322e-14 -9.12102e-14 0 0 -1.04494e-13 -1.28948e-16 6.73553e-14 -1.13757e-13 0 0 -8.36623e-14 2.20544e-14 -4.80053e-14 1.0342e-14 0 0 1.7589e-14 -1.26634e-13 5.95435e-14 -2.705e-14 0 0 -3.3649e-14 -5.79346e-14 2.57129e-14 -2.59411e-14 0 0 -5.27058e-14 -4.76053e-14 3.97863e-14 -1.79912e-14 0 0 -7.71762e-14 -3.42989e-14 5.26983e-14 -1.79415e-15 0 0 -8.23938e-14 1.56658e-14 1.7302e-14 1.7669e-14 0 0 2.9671e-14 -1.69919e-13 2.77042e-13 -1.75546e-13 0 0 -6.52847e-14 -6.31417e-14 2.1779e-13 -1.53696e-13 0 0 -1.4612e-13 1.14624e-13 6.19378e-15 -5.35361e-14 0 0 -1.39488e-14 1.94514e-14 7.77819e-15 -6.79507e-14 0 0 -4.93941e-14 1.32431e-13 -1.40212e-13 4.843e-14 0 0 -8.0205e-14 9.99037e-14 2.18936e-15 -4.98217e-14 0 0 1.53857e-14 -1.06992e-13 2.37468e-13 -1.76191e-13 0 0 -7.11686e-14 3.02424e-14 6.04808e-14 -4.68335e-14 0 0 -7.50706e-14 -1.47223e-14 1.66252e-13 -1.49829e-13 0 0 -8.08276e-14 -2.66385e-14 2.03503e-13 -1.82783e-13 0 0 -1.85609e-13 1.25963e-13 2.58854e-14 -3.81105e-14 0 0 -1.92088e-13 1.49525e-13 9.0321e-15 -1.57446e-14 0 0 -9.84306e-14 9.27765e-14 5.38358e-14 -2.73525e-14 0 0 1.54694e-13 -2.1256e-13 2.96635e-13 -1.56038e-13 0 0 1.00516e-13 -6.08889e-14 1.2852e-13 -9.37028e-14 0 0 -5.45521e-14 2.02758e-13 -5.99065e-14 -7.79416e-14 0 0 6.43484e-14 6.32551e-14 2.32741e-17 -7.99614e-14 0 0 2.66828e-13 -1.52881e-13 7.85663e-14 -3.75423e-14 0 0 3.52689e-13 -1.57369e-13 2.96506e-14 -5.13882e-14 0 0 3.23328e-14 4.17618e-13 -5.99132e-13 2.96537e-13 0 0 2.15705e-13 9.2133e-14 -2.66012e-13 1.14272e-13 0 0 4.3333e-13 -3.23419e-13 1.93533e-13 -2.20391e-13 0 0 1.21066e-13 5.75308e-14 -1.77249e-13 -5.74622e-14 0 0 1.44047e-13 -1.03953e-13 1.37985e-14 -1.91868e-13 0 0 -4.68065e-15 7.77147e-14 -8.59895e-14 -2.23554e-13 0 0 -3.0638e-14 1.45539e-13 -1.6448e-13 -2.16693e-13 0 0 1.02326e-13 -1.10052e-13 6.20205e-14 -2.82914e-13 0 0 -3.51277e-14 6.47022e-14 -7.46719e-14 -1.80203e-13 0 0 -2.58459e-14 1.39507e-14 3.11655e-14 -2.36617e-13 0 0 -9.55352e-15 4.35498e-14 7.22866e-14 -2.66811e-13 0 0 1.05839e-13 -2.45332e-14 8.62156e-14 -2.33301e-13 0 0 1.4375e-15 8.72608e-14 -2.71634e-14 -9.70843e-14 0 0 -1.36339e-13 2.15834e-13 3.15773e-14 -1.54874e-13 0 0 2.32521e-14 -3.48176e-14 3.14035e-13 -2.78627e-13 0 0 -1.69913e-15 9.9115e-14 8.99854e-14 -1.08831e-13 0 0 7.09195e-14 1.77418e-13 -4.36214e-14 -1.47089e-13 0 0 2.59555e-13 6.79901e-14 8.8734e-14 -3.86016e-13 0 0 2.47183e-13 2.32057e-13 4.98002e-16 -3.77614e-13 0 0 4.26576e-13 5.8058e-14 1.22831e-13 -2.87171e-13 0 0 5.93392e-13 -1.95094e-13 3.05984e-13 -2.51171e-13 0 0 5.07331e-13 8.21095e-14 1.26275e-14 -8.05152e-14 0 0 6.83513e-13 4.13313e-14 -6.87693e-14 -3.85438e-14 0 0 5.08257e-13 2.80994e-13 -1.22564e-13 -4.56832e-14 0 0 2.99631e-13 3.83388e-13 8.5479e-14 -1.57067e-13 0 0 6.27337e-13 -2.2129e-13 6.5554e-13 -3.13682e-13 0 0 4.63171e-13 2.4304e-15 3.77168e-13 1.28855e-13 0 0 5.22188e-13 -1.00276e-13 4.72956e-13 1.59584e-13 0 0 5.07612e-13 1.03574e-13 2.22605e-13 2.04911e-13 0 0 1.8249e-13 7.47188e-13 -4.98913e-13 6.32998e-13 0 0 4.51631e-13 1.98017e-13 1.18372e-13 3.26111e-13 0 0 4.13579e-13 7.77808e-14 3.16136e-13 4.02093e-13 0 0 1.89683e-13 4.40011e-13 1.43486e-13 5.35833e-13 0 0 4.05146e-13 2.09069e-13 5.60696e-13 1.59041e-13 0 0 6.07223e-13 1.13247e-13 4.55266e-13 3.69243e-13 0 0 5.01433e-13 4.31363e-13 4.2748e-15 6.84397e-13 0 0 4.33234e-13 4.48739e-13 2.57619e-13 2.73425e-13 0 0 2.57478e-13 2.52056e-13 1.02923e-12 -5.63969e-13 0 0 2.42325e-14 2.81431e-13 1.06474e-12 -5.56413e-13 0 0 -5.76056e-14 4.07011e-13 8.92095e-13 -3.41683e-13 0 0 1.2203e-13 3.96058e-13 7.0362e-13 -1.1105e-13 0 0 3.45082e-13 4.21067e-13 1.96646e-13 2.03235e-13 0 0 3.86482e-13 5.22817e-13 -1.82599e-13 5.17919e-13 0 0 5.43422e-13 2.58708e-13 -2.87552e-14 3.7734e-13 0 0 5.7692e-13 -2.751e-13 5.78011e-13 1.06948e-15 0 0 5.54749e-13 -3.47663e-13 7.50156e-13 -2.57279e-14 0 0 6.00289e-13 -3.91648e-13 6.28149e-13 1.70068e-13 0 0 5.66248e-13 -3.85354e-13 3.76685e-13 4.62706e-13 0 0 3.37976e-13 -1.66285e-13 -8.06217e-14 7.86895e-13 0 0 -6.01293e-14 2.05595e-13 -5.30167e-13 1.05346e-12 0 0 -4.50007e-13 4.26007e-13 -5.39935e-13 1.00077e-12 0 0 -5.04143e-13 3.92337e-13 -3.8103e-13 7.17704e-13 0 0 -6.5436e-14 1.54448e-15 -1.40128e-13 5.06914e-13 0 0 5.81108e-13 -4.29483e-13 -3.17465e-14 4.82996e-13 0 0 6.35646e-13 -4.38846e-13 3.2999e-14 4.32866e-13 0 0 4.0099e-13 -2.80939e-13 1.13184e-13 3.12595e-13 0 0 4.57889e-14 -7.18569e-14 2.10024e-13 1.80376e-13 0 0 -1.55485e-13 6.84564e-14 2.59949e-13 7.35839e-14 0 0 -2.60728e-13 1.1302e-13 2.92001e-13 5.03937e-14 0 0 -2.75983e-13 1.04752e-13 3.18342e-13 3.77433e-14 0 0 -2.31747e-13 6.5411e-14 3.14391e-13 7.87487e-15 0 0 -1.6852e-13 -1.44231e-14 3.46302e-13 -1.19801e-13 0 0 -1.66626e-13 -5.41087e-14 3.89087e-13 -2.68488e-13 0 0 -1.5825e-13 -5.11456e-14 3.4342e-13 -3.05111e-13 0 0 -1.44946e-13 -4.64423e-14 2.47306e-13 -3.18209e-13 0 0 -1.30131e-13 -5.35337e-14 1.84327e-13 -3.07909e-13 0 0 -1.41354e-13 -1.24898e-14 5.1958e-14 -2.19957e-13 0 0 -1.36741e-13 -1.54837e-14 -7.05022e-14 -1.60857e-13 0 0 -1.01687e-13 -5.70529e-14 -8.92973e-14 -1.78787e-13 0 0 -5.84478e-14 -6.0518e-14 -1.76331e-13 -1.47394e-13 0 0 1.05879e-15 -5.96346e-14 -2.14098e-13 -1.47287e-13 0 0 5.70843e-14 -7.85951e-14 -1.6046e-13 -1.93036e-13 0 0 7.48323e-14 -9.67344e-14 -8.88227e-14 -1.6879e-13 0 0 5.15119e-14 -2.14107e-14 -1.14436e-13 9.67731e-15 0 0 5.56022e-14 5.47534e-14 -1.48859e-13 1.45593e-13 0 0 1.35109e-13 2.99096e-14 -3.97666e-14 1.51587e-14 0 0 1.96253e-13 -1.57189e-14 7.55523e-14 -2.53436e-14 0 0 1.16865e-13 1.258e-13 -3.87956e-14 1.64467e-13 0 0 8.35432e-14 1.81725e-13 -4.33976e-14 1.56152e-13 0 0 2.30653e-13 1.36503e-15 8.27763e-14 1.36882e-13 0 0 3.23505e-13 -1.42853e-13 2.16442e-13 6.75892e-14 0 0 2.61038e-13 -5.42236e-14 1.8981e-13 4.08147e-15 0 0 1.25171e-13 1.5959e-13 2.32983e-14 1.6163e-13 0 0 4.98422e-14 1.89922e-13 1.1299e-13 1.51512e-13 0 0 1.47801e-13 3.05264e-15 3.5086e-13 5.0773e-14 0 0 2.74505e-13 -1.72524e-13 5.29167e-13 -1.57615e-14 0 0 1.19626e-13 8.51441e-14 3.07421e-13 1.59334e-13 0 0 4.99086e-14 2.33723e-13 2.43944e-13 1.77043e-13 0 0 3.50688e-14 3.27893e-13 2.06078e-13 2.20108e-13 0 0 1.35142e-13 3.00261e-13 2.13571e-13 3.15323e-13 0 0 4.37986e-13 -4.31966e-14 5.265e-13 1.09186e-13 0 0 4.81187e-13 2.6201e-15 4.73928e-13 6.05577e-14 0 0 2.96113e-13 3.67169e-13 1.05772e-13 2.21854e-13 0 0 1.35404e-13 6.28193e-13 -1.16179e-13 2.83407e-13 0 0 3.267e-13 3.50058e-13 2.05118e-13 4.09364e-14 0 0 6.36781e-13 -1.08104e-13 6.36151e-13 -1.51616e-13 0 0 6.4378e-13 -2.11202e-14 5.14764e-13 -7.14022e-14 0 0 2.52738e-13 7.53754e-13 -3.14242e-13 3.56907e-13 0 0 2.74663e-13 7.09105e-13 -2.3434e-13 2.3731e-13 0 0 5.22088e-13 7.45204e-14 4.26714e-13 -2.85309e-14 0 0 4.24888e-13 7.87495e-14 4.01067e-13 1.11092e-13 0 0 1.30764e-13 3.89469e-13 2.81572e-13 1.3906e-14 0 0 -1.57093e-13 6.8785e-13 1.39479e-13 -6.6597e-14 0 0 3.57772e-15 5.60274e-13 -1.41351e-14 2.81497e-13 0 0 4.54056e-13 1.0619e-13 1.47001e-13 4.21648e-13 0 0 7.65055e-13 -3.3134e-13 6.4579e-13 1.28991e-13 0 0 4.72606e-13 1.22073e-14 4.0826e-13 3.56108e-13 0 0 -1.80433e-13 8.48781e-13 -2.44892e-13 7.18805e-13 0 0 -3.60585e-13 9.09314e-13 -4.99559e-14 5.93762e-13 0 0 1.96341e-13 -2.99212e-15 8.68968e-13 1.3046e-13 0 0 5.62432e-13 -5.63748e-13 1.26093e-12 -2.39781e-14 0 0 2.10567e-13 -1.16452e-13 7.38208e-13 3.35509e-13 0 0 -2.11488e-13 4.46324e-13 3.23299e-13 5.15774e-13 0 0 -2.75889e-13 6.23792e-13 3.27154e-14 7.59825e-13 0 0 6.14636e-14 6.65796e-14 3.32234e-13 7.52778e-13 0 0 3.98299e-13 -5.99101e-13 9.71017e-13 3.89952e-13 0 0 2.44108e-13 -3.89358e-13 8.05814e-13 4.78757e-13 0 0 9.02901e-14 -9.02519e-14 7.74617e-13 2.65973e-13 0 0 3.52069e-14 5.30112e-14 7.52677e-13 9.17922e-14 0 0 -2.78011e-13 4.82698e-13 6.93842e-14 7.53919e-13 0 0 -1.71925e-14 -4.7274e-14 4.04696e-13 6.58853e-13 0 0 1.79747e-13 -4.19255e-13 6.77953e-13 3.34446e-13 0 0 1.8343e-13 -5.20253e-13 6.56551e-13 4.13924e-13 0 0 7.05988e-14 -4.8726e-13 6.70534e-13 3.96674e-13 0 0 -4.12171e-13 2.24124e-13 1.94622e-13 3.84653e-13 0 0 -4.4477e-13 3.33919e-13 2.31239e-13 1.05693e-13 0 0 -1.15551e-13 -5.25418e-14 4.90462e-13 -4.39876e-14 0 0 3.96609e-13 -6.55302e-13 8.8699e-13 -1.97865e-13 0 0 2.4663e-13 -3.12375e-13 6.86323e-13 -2.91905e-13 0 0 -2.63493e-13 6.42793e-13 -1.81983e-13 1.77103e-13 0 0 -1.66568e-13 5.31752e-13 -3.47036e-14 2.06368e-13 0 0 1.46143e-13 -7.03613e-14 5.35158e-13 1.17176e-13 0 0 2.10356e-13 -7.85593e-14 3.44687e-13 4.34157e-13 0 0 2.42466e-13 -7.37117e-14 3.7541e-13 2.04718e-13 0 0 2.99803e-14 1.82145e-13 2.01952e-13 2.2206e-13 0 0 3.20686e-14 2.78894e-13 1.42101e-13 1.48538e-13 0 0 4.05368e-13 -3.13388e-14 4.20064e-13 -2.3003e-13 0 0 7.2953e-13 -4.32135e-13 6.76567e-13 -3.83334e-13 0 0 4.41682e-13 6.99669e-14 -7.90389e-15 2.07781e-13 0 0 4.72501e-14 7.21791e-13 -6.51377e-13 6.52497e-13 0 0 4.98949e-13 2.04939e-14 3.65468e-13 -2.96368e-13 0 0 8.28494e-13 -5.39493e-13 1.20945e-12 -1.00496e-12 0 0 4.7411e-13 8.81074e-14 3.77553e-13 -2.27233e-13 0 0 6.41982e-14 1.00437e-12 -1.06917e-12 9.8355e-13 0 0 5.055e-13 4.55681e-13 -6.66478e-13 7.38865e-13 0 0 1.20196e-12 -5.35319e-13 2.91852e-13 1.56041e-14 0 0 1.15299e-12 -3.32593e-13 -1.17748e-14 3.33953e-13 0 0 3.03655e-13 9.46058e-13 -9.04699e-13 9.03669e-13 0 0 -3.04361e-13 1.79885e-12 -1.44541e-12 1.13575e-12 0
				</DataArray>
				<DataArray Name="VitesseY" type="Float32" format="ascii">