<?xml version="1.0"?>
<VTKFile type="PolyData">
	<PolyData>
		<Piece NumberOfPoints="1206" NumberOfPolys="1000">
			<Points>
				<DataArray type="Float32" NumberOfComponents="3" format="ascii">
 0 0 0 0.02 0 0 0.04 0 0 0.06 0 0 0.08 0 0 0.1 0 0 0 0.005 0 0.02 0.005 0 0.04 0.005 0 0.06 0.005 0 0.08 0.005 0 0.1 0.005 0 0 0.01 0 0.02 0.01 0 0.04 0.01 0 0.06 0.01 0 0.08 0.01 0 0.1 0.01 0 0 0.015 0 0.02 0.015 0 0.04 0.015 0 0.06 0.015 0 0.08 0.015 0 0.1 0.015 0 0 0.02 0 0.02 0.02 0 0.04 0.02 0 0.06 0.02 0 0.08 0.02 0 0.1 0.02 0 0 0.025 0 0.02 0.025 0 0.04 0.025 0 0.06 0.025 0 0.08 0.025 0 0.1 0.025 0 0 0.03 0 0.02 0.03 0 0.04 0.03 0 0.06 0.03 0 0.08 0.03 0 0.1 0.03 0 0 0.035 0 0.02 0.035 0 0.04 0.035 0 0.06 0.035 0 0.08 0.035 0 0.1 0.035 0 0 0.04 0 0.02 0.04 0 0.04 0.04 0 0.06 0.04 0 0.08 0.04 0 0.1 0.04 0 0 0.045 0 0.02 0.045 0 0.04 0.045 0 0.06 0.045 0 0.08 0.045 0 0.1 0.045 0 0 0.05 0 0.02 0.05 0 0.04 0.05 0 0.06 0.05 0 0.08 0.05 0 0.1 0.05 0 0 0.055 0 0.02 0.055 0 0.04 0.055 0 0.06 0.055 0 0.08 0.055 0 0.1 0.055 0 0 0.06 0 0.02 0.06 0 0.04 0.06 0 0.06 0.06 0 0.08 0.06 0 0.1 0.06 0 0 0.065 0 0.02 0.065 0 0.04 0.065 0 0.06 0.065 0 0.08 0.065 0 0.1 0.065 0 0 0.07 0 0.02 0.07 0 0.04 0.07 0 0.06 0.07 0 0.08 0.07 0 0.1 0.07 0 0 0.075 0 0.02 0.075 0 0.04 0.075 0 0.06 0.075 0 0.08 0.075 0 0.1 0.075 0 0 0.08 0 0.02 0.08 0 0.04 0.08 0 0.06 0.08 0 0.08 0.08 0 0.1 0.08 0 0 0.085 0 0.02 0.085 0 0.04 0.085 0 0.06 0.085 0 0.08 0.085 0 0.1 0.085 0 0 0.09 0 0.02 0.09 0 0.04 0.09 0 0.06 0.09 0 0.08 0.09 0 0.1 0.09 0 0 0.095 0 0.02 0.095 0 0.04 0.095 0 0.06 0.095 0 0.08 0.095 0 0.1 0.095 0 0 0.1 0 0.02 0.1 0 0.04 0.1 0 0.06 0.1 0 0.08 0.1 0 0.1 0.1 0 0 0.105 0 0.02 0.105 0 0.04 0.105 0 0.06 0.105 0 0.08 0.105 0 0.1 0.105 0 0 0.11 0 0.02 0.11 0 0.04 0.11 0 0.06 0.11 0 0.08 0.11 0 0.1 0.11 0 0 0.115 0 0.02 0.115 0 0.04 0.115 0 0.06 0.115 0 0.08 0.115 0 0.1 0.115 0 0 0.12 0 0.02 0.12 0 0.04 0.12 0 0.06 0.12 0 0.08 0.12 0 0.1 0.12 0 0 0.125 0 0.02 0.125 0 0.04 0.125 0 0.06 0.125 0 0.08 0.125 0 0.1 0.125 0 0 0.13 0 0.02 0.13 0 0.04 0.13 0 0.06 0.13 0 0.08 0.13 0 0.1 0.13 0 0 0.135 0 0.02 0.135 0 0.04 0.135 0 0.06 0.135 0 0.08 0.135 0 0.1 0.135 0 0 0.14 0 0.02 0.14 0 0.04 0.14 0 0.06 0.14 0 0.08 0.14 0 0.1 0.14 0 0 0.145 0 0.02 0.145 0 0.04 0.145 0 0.06 0.145 0 0.08 0.145 0 0.1 0.145 0 0 0.15 0 0.02 0.15 0 0.04 0.15 0 0.06 0.15 0 0.08 0.15 0 0.1 0.15 0 0 0.155 0 0.02 0.155 0 0.04 0.155 0 0.06 0.155 0 0.08 0.155 0 0.1 0.155 0 0 0.16 0 0.02 0.16 0 0.04 0.16 0 0.06 0.16 0 0.08 0.16 0 0.1 0.16 0 0 0.165 0 0.02 0.165 0 0.04 0.165 0 0.06 0.165 0 0.08 0.165 0 0.1 0.165 0 0 0.17 0 0.02 0.17 0 0.04 0.17 0 0.06 0.17 0 0.08 0.17 0 0.1 0.17 0 0 0.175 0 0.02 0.175 0 0.04 0.175 0 0.06 0.175 0 0.08 0.175 0 0.1 0.175 0 0 0.18 0 0.02 0.18 0 0.04 0.18 0 0.06 0.18 0 0.08 0.18 0 0.1 0.18 0 0 0.185 0 0.02 0.185 0 0.04 0.185 0 0.06 0.185 0 0.08 0.185 0 0.1 0.185 0 0 0.19 0 0.02 0.19 0 0.04 0.19 0 0.06 0.19 0 0.08 0.19 0 0.1 0.19 0 0 0.195 0 0.02 0.195 0 0.04 0.195 0 0.06 0.195 0 0.08 0.195 0 0.1 0.195 0 0 0.2 0 0.02 0.2 0 0.04 0.2 0 0.06 0.2 0 0.08 0.2 0 0.1 0.2 0 0 0.205 0 0.02 0.205 0 0.04 0.205 0 0.06 0.205 0 0.08 0.205 0 0.1 0.205 0 0 0.21 0 0.02 0.21 0 0.04 0.21 0 0.06 0.21 0 0.08 0.21 0 0.1 0.21 0 0 0.215 0 0.02 0.215 0 0.04 0.215 0 0.06 0.215 0 0.08 0.215 0 0.1 0.215 0 0 0.22 0 0.02 0.22 0 0.04 0.22 0 0.06 0.22 0 0.08 0.22 0 0.1 0.22 0 0 0.225 0 0.02 0.225 0 0.04 0.225 0 0.06 0.225 0 0.08 0.225 0 0.1 0.225 0 0 0.23 0 0.02 0.23 0 0.04 0.23 0 0.06 0.23 0 0.08 0.23 0 0.1 0.23 0 0 0.235 0 0.02 0.235 0 0.04 0.235 0 0.06 0.235 0 0.08 0.235 0 0.1 0.235 0 0 0.24 0 0.02 0.24 0 0.04 0.24 0 0.06 0.24 0 0.08 0.24 0 0.1 0.24 0 0 0.245 0 0.02 0.245 0 0.04 0.245 0 0.06 0.245 0 0.08 0.245 0 0.1 0.245 0 0 0.25 0 0.02 0.25 0 0.04 0.25 0 0.06 0.25 0 0.08 0.25 0 0.1 0.25 0 0 0.255 0 0.02 0.255 0 0.04 0.255 0 0.06 0.255 0 0.08 0.255 0 0.1 0.255 0 0 0.26 0 0.02 0.26 0 0.04 0.26 0 0.06 0.26 0 0.08 0.26 0 0.1 0.26 0 0 0.265 0 0.02 0.265 0 0.04 0.265 0 0.06 0.265 0 0.08 0.265 0 0.1 0.265 0 0 0.27 0 0.02 0.27 0 0.04 0.27 0 0.06 0.27 0 0.08 0.27 0 0.1 0.27 0 0 0.275 0 0.02 0.275 0 0.04 0.275 0 0.06 0.275 0 0.08 0.275 0 0.1 0.275 0 0 0.28 0 0.02 0.28 0 0.04 0.28 0 0.06 0.28 0 0.08 0.28 0 0.1 0.28 0 0 0.285 0 0.02 0.285 0 0.04 0.285 0 0.06 0.285 0 0.08 0.285 0 0.1 0.285 0 0 0.29 0 0.02 0.29 0 0.04 0.29 0 0.06 0.29 0 0.08 0.29 0 0.1 0.29 0 0 0.295 0 0.02 0.295 0 0.04 0.295 0 0.06 0.295 0 0.08 0.295 0 0.1 0.295 0 0 0.3 0 0.02 0.3 0 0.04 0.3 0 0.06 0.3 0 0.08 0.3 0 0.1 0.3 0 0 0.305 0 0.02 0.305 0 0.04 0.305 0 0.06 0.305 0 0.08 0.305 0 0.1 0.305 0 0 0.31 0 0.02 0.31 0 0.04 0.31 0 0.06 0.31 0 0.08 0.31 0 0.1 0.31 0 0 0.315 0 0.02 0.315 0 0.04 0.315 0 0.06 0.315 0 0.08 0.315 0 0.1 0.315 0 0 0.32 0 0.02 0.32 0 0.04 0.32 0 0.06 0.32 0 0.08 0.32 0 0.1 0.32 0 0 0.325 0 0.02 0.325 0 0.04 0.325 0 0.06 0.325 0 0.08 0.325 0 0.1 0.325 0 0 0.33 0 0.02 0.33 0 0.04 0.33 0 0.06 0.33 0 0.08 0.33 0 0.1 0.33 0 0 0.335 0 0.02 0.335 0 0.04 0.335 0 0.06 0.335 0 0.08 0.335 0 0.1 0.335 0 0 0.34 0 0.02 0.34 0 0.04 0.34 0 0.06 0.34 0 0.08 0.34 0 0.1 0.34 0 0 0.345 0 0.02 0.345 0 0.04 0.345 0 0.06 0.345 0 0.08 0.345 0 0.1 0.345 0 0 0.35 0 0.02 0.35 0 0.04 0.35 0 0.06 0.35 0 0.08 0.35 0 0.1 0.35 0 0 0.355 0 0.02 0.355 0 0.04 0.355 0 0.06 0.355 0 0.08 0.355 0 0.1 0.355 0 0 0.36 0 0.02 0.36 0 0.04 0.36 0 0.06 0.36 0 0.08 0.36 0 0.1 0.36 0 0 0.365 0 0.02 0.365 0 0.04 0.365 0 0.06 0.365 0 0.08 0.365 0 0.1 0.365 0 0 0.37 0 0.02 0.37 0 0.04 0.37 0 0.06 0.37 0 0.08 0.37 0 0.1 0.37 0 0 0.375 0 0.02 0.375 0 0.04 0.375 0 0.06 0.375 0 0.08 0.375 0 0.1 0.375 0 0 0.38 0 0.02 0.38 0 0.04 0.38 0 0.06 0.38 0 0.08 0.38 0 0.1 0.38 0 0 0.385 0 0.02 0.385 0 0.04 0.385 0 0.06 0.385 0 0.08 0.385 0 0.1 0.385 0 0 0.39 0 0.02 0.39 0 0.04 0.39 0 0.06 0.39 0 0.08 0.39 0 0.1 0.39 0 0 0.395 0 0.02 0.395 0 0.04 0.395 0 0.06 0.395 0 0.08 0.395 0 0.1 0.395 0 0 0.4 0 0.02 0.4 0 0.04 0.4 0 0.06 0.4 0 0.08 0.4 0 0.1 0.4 0 0 0.405 0 0.02 0.405 0 0.04 0.405 0 0.06 0.405 0 0.08 0.405 0 0.1 0.405 0 0 0.41 0 0.02 0.41 0 0.04 0.41 0 0.06 0.41 0 0.08 0.41 0 0.1 0.41 0 0 0.415 0 0.02 0.415 0 0.04 0.415 0 0.06 0.415 0 0.08 0.415 0 0.1 0.415 0 0 0.42 0 0.02 0.42 0 0.04 0.42 0 0.06 0.42 0 0.08 0.42 0 0.1 0.42 0 0 0.425 0 0.02 0.425 0 0.04 0.425 0 0.06 0.425 0 0.08 0.425 0 0.1 0.425 0 0 0.43 0 0.02 0.43 0 0.04 0.43 0 0.06 0.43 0 0.08 0.43 0 0.1 0.43 0 0 0.435 0 0.02 0.435 0 0.04 0.435 0 0.06 0.435 0 0.08 0.435 0 0.1 0.435 0 0 0.44 0 0.02 0.44 0 0.04 0.44 0 0.06 0.44 0 0.08 0.44 0 0.1 0.44 0 0 0.445 0 0.02 0.445 0 0.04 0.445 0 0.06 0.445 0 0.08 0.445 0 0.1 0.445 0 0 0.45 0 0.02 0.45 0 0.04 0.45 0 0.06 0.45 0 0.08 0.45 0 0.1 0.45 0 0 0.455 0 0.02 0.455 0 0.04 0.455 0 0.06 0.455 0 0.08 0.455 0 0.1 0.455 0 0 0.46 0 0.02 0.46 0 0.04 0.46 0 0.06 0.46 0 0.08 0.46 0 0.1 0.46 0 0 0.465 0 0.02 0.465 0 0.04 0.465 0 0.06 0.465 0 0.08 0.465 0 0.1 0.465 0 0 0.47 0 0.02 0.47 0 0.04 0.47 0 0.06 0.47 0 0.08 0.47 0 0.1 0.47 0 0 0.475 0 0.02 0.475 0 0.04 0.475 0 0.06 0.475 0 0.08 0.475 0 0.1 0.475 0 0 0.48 0 0.02 0.48 0 0.04 0.48 0 0.06 0.48 0 0.08 0.48 0 0.1 0.48 0 0 0.485 0 0.02 0.485 0 0.04 0.485 0 0.06 0.485 0 0.08 0.485 0 0.1 0.485 0 0 0.49 0 0.02 0.49 0 0.04 0.49 0 0.06 0.49 0 0.08 0.49 0 0.1 0.49 0 0 0.495 0 0.02 0.495 0 0.04 0.495 0 0.06 0.495 0 0.08 0.495 0 0.1 0.495 0 0 0.5 0 0.02 0.5 0 0.04 0.5 0 0.06 0.5 0 0.08 0.5 0 0.1 0.5 0 0 0.505 0 0.02 0.505 0 0.04 0.505 0 0.06 0.505 0 0.08 0.505 0 0.1 0.505 0 0 0.51 0 0.02 0.51 0 0.04 0.51 0 0.06 0.51 0 0.08 0.51 0 0.1 0.51 0 0 0.515 0 0.02 0.515 0 0.04 0.515 0 0.06 0.515 0 0.08 0.515 0 0.1 0.515 0 0 0.52 0 0.02 0.52 0 0.04 0.52 0 0.06 0.52 0 0.08 0.52 0 0.1 0.52 0 0 0.525 0 0.02 0.525 0 0.04 0.525 0 0.06 0.525 0 0.08 0.525 0 0.1 0.525 0 0 0.53 0 0.02 0.53 0 0.04 0.53 0 0.06 0.53 0 0.08 0.53 0 0.1 0.53 0 0 0.535 0 0.02 0.535 0 0.04 0.535 0 0.06 0.535 0 0.08 0.535 0 0.1 0.535 0 0 0.54 0 0.02 0.54 0 0.04 0.54 0 0.06 0.54 0 0.08 0.54 0 0.1 0.54 0 0 0.545 0 0.02 0.545 0 0.04 0.545 0 0.06 0.545 0 0.08 0.545 0 0.1 0.545 0 0 0.55 0 0.02 0.55 0 0.04 0.55 0 0.06 0.55 0 0.08 0.55 0 0.1 0.55 0 0 0.555 0 0.02 0.555 0 0.04 0.555 0 0.06 0.555 0 0.08 0.555 0 0.1 0.555 0 0 0.56 0 0.02 0.56 0 0.04 0.56 0 0.06 0.56 0 0.08 0.56 0 0.1 0.56 0 0 0.565 0 0.02 0.565 0 0.04 0.565 0 0.06 0.565 0 0.08 0.565 0 0.1 0.565 0 0 0.57 0 0.02 0.57 0 0.04 0.57 0 0.06 0.57 0 0.08 0.57 0 0.1 0.57 0 0 0.575 0 0.02 0.575 0 0.04 0.575 0 0.06 0.575 0 0.08 0.575 0 0.1 0.575 0 0 0.58 0 0.02 0.58 0 0.04 0.58 0 0.06 0.58 0 0.08 0.58 0 0.1 0.58 0 0 0.585 0 0.02 0.585 0 0.04 0.585 0 0.06 0.585 0 0.08 0.585 0 0.1 0.585 0 0 0.59 0 0.02 0.59 0 0.04 0.59 0 0.06 0.59 0 0.08 0.59 0 0.1 0.59 0 0 0.595 0 0.02 0.595 0 0.04 0.595 0 0.06 0.595 0 0.08 0.595 0 0.1 0.595 0 0 0.6 0 0.02 0.6 0 0.04 0.6 0 0.06 0.6 0 0.08 0.6 0 0.1 0.6 0 0 0.605 0 0.02 0.605 0 0.04 0.605 0 0.06 0.605 0 0.08 0.605 0 0.1 0.605 0 0 0.61 0 0.02 0.61 0 0.04 0.61 0 0.06 0.61 0 0.08 0.61 0 0.1 0.61 0 0 0.615 0 0.02 0.615 0 0.04 0.615 0 0.06 0.615 0 0.08 0.615 0 0.1 0.615 0 0 0.62 0 0.02 0.62 0 0.04 0.62 0 0.06 0.62 0 0.08 0.62 0 0.1 0.62 0 0 0.625 0 0.02 0.625 0 0.04 0.625 0 0.06 0.625 0 0.08 0.625 0 0.1 0.625 0 0 0.63 0 0.02 0.63 0 0.04 0.63 0 0.06 0.63 0 0.08 0.63 0 0.1 0.63 0 0 0.635 0 0.02 0.635 0 0.04 0.635 0 0.06 0.635 0 0.08 0.635 0 0.1 0.635 0 0 0.64 0 0.02 0.64 0 0.04 0.64 0 0.06 0.64 0 0.08 0.64 0 0.1 0.64 0 0 0.645 0 0.02 0.645 0 0.04 0.645 0 0.06 0.645 0 0.08 0.645 0 0.1 0.645 0 0 0.65 0 0.02 0.65 0 0.04 0.65 0 0.06 0.65 0 0.08 0.65 0 0.1 0.65 0 0 0.655 0 0.02 0.655 0 0.04 0.655 0 0.06 0.655 0 0.08 0.655 0 0.1 0.655 0 0 0.66 0 0.02 0.66 0 0.04 0.66 0 0.06 0.66 0 0.08 0.66 0 0.1 0.66 0 0 0.665 0 0.02 0.665 0 0.04 0.665 0 0.06 0.665 0 0.08 0.665 0 0.1 0.665 0 0 0.67 0 0.02 0.67 0 0.04 0.67 0 0.06 0.67 0 0.08 0.67 0 0.1 0.67 0 0 0.675 0 0.02 0.675 0 0.04 0.675 0 0.06 0.675 0 0.08 0.675 0 0.1 0.675 0 0 0.68 0 0.02 0.68 0 0.04 0.68 0 0.06 0.68 0 0.08 0.68 0 0.1 0.68 0 0 0.685 0 0.02 0.685 0 0.04 0.685 0 0.06 0.685 0 0.08 0.685 0 0.1 0.685 0 0 0.69 0 0.02 0.69 0 0.04 0.69 0 0.06 0.69 0 0.08 0.69 0 0.1 
[...]
			<PointData Scalars="VitesseX">
				<DataArray Name="VitesseX" type="Float32" format="ascii">
 0 2.50408e-15 -3.86434e-14 -7.17637e-15 1.77272e-14 0 0 -1.508e-15 -3.37266e-14 -1.22711e-14 2.3274e-14 0 0 -3.00318e-14 7.83793e-15 -4.7641e-14 4.95506e-14 0 0 6.5288e-15 -4.52232e-14 -4.91491e-16 2.98525e-14 0 0 1.73491e-16 -3.14336e-14 -3.46488e-14 6.00522e-14 0 0 -6.51528e-14 3.84907e-14 -8.98296e-14 6.85429e-14 0 0 -2.43183e-14 -7.2258e-14 6.06444e-14 -7.79757e-14 0 0 3.60572e-14 -1.61248e-13 1.58062e-13 -1.87355e-13 0 0 -3.97099e-15 -8.71981e-14 4.81536e-14 -1.00774e-13 0 0 -7.52505e-14 2.38978e-14 -1.30477e-13 8.92674e-14 0 0 -3.75062e-14 -3.13226e-14 -1.44035e-13 1.65729e-13 0 0 -8.98754e-14 -1.60009e-14 -9.51623e-14 9.01276e-14 0 0 -8.39301e-15 -2.09412e-13 1.71982e-13 -1.67086e-13 0 0 -6.60528e-14 -1.27354e-13 8.70473e-14 -1.42207e-13 0 0 -1.16968e-13 -6.68131e-14 3.42111e-15 -5.30426e-14 0 0 3.7196e-14 -3.24597e-13 2.1659e-13 -1.01991e-13 0 0 -1.57432e-13 -2.2892e-14 -5.35966e-14 1.26543e-13 0 0 -1.11311e-13 -4.84395e-14 -7.39165e-14 2.20352e-13 0 0 -1.02867e-13 -5.32919e-15 -1.63126e-13 2.80176e-13 0 0 -1.6316e-13 6.967e-14 -1.55915e-13 1.353e-13 0 0 1.89351e-14 -2.29962e-13 1.71654e-13 -1.96504e-13 0 0 3.0438e-14 -2.25956e-13 1.22372e-13 -1.77303e-13 0 0 -9.80896e-14 1.05106e-14 -2.14829e-13 7.3573e-14 0 0 -1.7797e-13 1.29465e-13 -3.67458e-13 1.19345e-13 0 0 4.17411e-15 -1.97906e-13 2.6246e-14 -2.37246e-13 0 0 1.967e-13 -4.90782e-13 3.4259e-13 -4.63888e-13 0 0 -3.14787e-14 -9.46819e-14 -1.80468e-14 -2.18227e-13 0 0 -2.52879e-13 2.57725e-13 -4.15271e-13 1.19101e-13 0 0 -1.31084e-13 5.98399e-14 -3.12819e-13 7.03835e-14 0 0 3.88211e-14 -2.07772e-13 -2.88045e-15 -2.60144e-13 0 0 -2.35136e-14 -1.27663e-13 -3.27919e-14 -2.2172e-13 0 0 1.97991e-14 -2.0895e-13 1.56479e-17 -1.20746e-13 0 0 -1.34933e-14 -1.40692e-13 -1.10596e-13 -7.11989e-15 0 0 -3.02791e-13 2.97317e-13 -5.13193e-13 2.7732e-13 0 0 -7.22e-14 -9.39155e-14 -8.96005e-14 7.68936e-14 0 0 1.91009e-13 -4.5938e-13 2.4082e-13 -8.31183e-14 0 0 5.4921e-14 -1.62787e-13 -5.66612e-14 1.67544e-13 0 0 -1.84607e-13 1.04069e-13 -8.19662e-14 1.76847e-13 0 0 -1.76699e-13 3.35668e-14 1.55362e-14 1.46043e-13 0 0 -5.19504e-14 -9.12512e-14 -1.43554e-13 3.49481e-13 0 0 6.75552e-14 -3.28221e-13 -6.95836e-15 2.07138e-13 0 0 1.03498e-13 -4.28137e-13 1.32712e-13 -3.96828e-14 0 0 -1.44185e-13 -5.25131e-14 -1.42676e-13 -2.85847e-14 0 0 -1.89878e-14 -2.35772e-13 8.51403e-14 -2.34279e-13 0 0 2.16971e-13 -4.94246e-13 2.22691e-13 -2.81366e-13 0 0 4.13506e-17 -1.85765e-13 -6.54674e-15 -1.78584e-13 0 0 -2.52515e-13 1.70541e-13 -2.95217e-13 2.61846e-14 0 0 -2.67728e-13 1.37414e-13 -2.76784e-13 4.84689e-14 0 0 -7.6838e-14 -2.49696e-13 9.02093e-14 -2.17169e-13 0 0 1.2156e-13 -4.91218e-13 1.08104e-13 -1.62092e-13 0 0 1.86046e-13 -6.02981e-13 1.0611e-13 -5.13094e-14 0 0 -9.44978e-14 -3.08684e-13 2.05476e-14 -2.68282e-14 0 0 -3.49542e-13 -6.92531e-14 1.36503e-13 -3.48643e-13 0 0 -4.35154e-13 1.43714e-13 -1.36689e-13 -2.23031e-13 0 0 -1.22573e-13 -2.56339e-15 -3.68582e-13 9.21696e-14 0 0 2.32477e-13 -4.45002e-13 9.51746e-15 -7.03267e-14 0 0 -1.8604e-13 -1.11264e-13 -4.67682e-14 -1.03498e-13 0 0 -3.12671e-13 -1.8125e-13 3.7309e-13 -5.96505e-13 0 0 -2.17454e-13 -2.59364e-13 4.14155e-13 -6.42576e-13 0 0 -1.08973e-13 -1.63967e-13 -8.04283e-14 -8.69074e-14 0 0 -2.80748e-14 -2.51619e-13 -1.68858e-13 1.30018e-13 0 0 -2.87991e-13 2.80586e-14 -3.75228e-13 2.75096e-13 0 0 -2.49266e-13 -1.34437e-14 -2.37634e-13 9.38876e-14 0 0 -4.4854e-14 -1.51319e-13 -1.15416e-13 -5.55547e-14 0 0 4.08394e-14 -2.77902e-13 2.3296e-14 -1.30766e-13 0 0 -1.90156e-13 -1.07061e-13 -9.87088e-14 -1.94521e-14 0 0 -3.0006e-13 1.04094e-13 -4.58896e-13 2.2729e-13 0 0 1.1777e-13 -3.71251e-13 -1.77844e-13 6.41644e-14 0 0 1.69694e-13 -4.13953e-13 -1.7357e-13 1.00032e-13 0 0 -2.87629e-13 1.47018e-13 -3.9351e-13 1.20624e-13 0 0 -3.75419e-13 -5.75045e-14 3.00148e-13 -4.44656e-13 0 0 -3.67127e-13 -9.35235e-14 2.55145e-13 -2.21978e-13 0 0 5.90381e-14 -2.76329e-13 -1.10999e-14 2.80134e-13 0 0 1.01155e-13 -2.80067e-13 -1.09635e-13 4.62073e-13 0 0 -4.6864e-13 9.91486e-14 -1.25492e-13 3.70862e-13 0 0 -5.45956e-13 2.06344e-14 1.13842e-13 8.92654e-14 0 0 -3.5726e-13 -5.04907e-14 -2.0278e-13 2.71819e-13 0 0 -3.34842e-14 -4.52707e-13 4.89879e-14 -1.89151e-15 0 0 -3.28935e-13 -2.07664e-13 2.9693e-14 -2.71849e-13 0 0 -4.88153e-13 -3.15369e-13 1.54535e-13 -4.15569e-13 0 0 -3.66795e-13 -3.89421e-13 -1.04955e-13 -1.48442e-13 0 0 -5.34708e-13 1.0802e-13 -6.333e-13 1.22839e-13 0 0 -3.84284e-13 -1.1884e-13 -1.17925e-13 -4.69564e-13 0 0 -2.35968e-13 -9.17244e-15 -4.94254e-13 -3.30213e-13 0 0 -3.79484e-14 1.70624e-14 -8.21314e-13 -8.13017e-14 0 0 -1.335e-13 -3.0285e-13 -1.08317e-13 -6.39105e-13 0 0 -6.57041e-13 -6.62852e-18 -1.5705e-13 -6.37398e-13 0 0 -4.4067e-13 -7.91299e-14 -5.50021e-13 -1.53361e-13 0 0 1.56173e-13 -6.687e-13 -4.54463e-13 1.19035e-13 0 0 9.26571e-14 -4.2611e-13 -5.05507e-13 -6.07489e-14 0 0 -2.83623e-13 -1.57193e-13 -9.11704e-14 -7.41832e-13 0 0 -4.97064e-13 -3.47027e-14 -1.32501e-16 -8.20214e-13 0 0 -4.48857e-14 -1.60182e-13 -5.88943e-13 -6.82661e-14 0 0 5.20297e-13 -1.01134e-12 -5.69338e-13 6.12501e-13 0 0 -2.73765e-13 -2.39018e-13 -4.41784e-13 2.76531e-13 0 0 -5.38562e-13 -4.74935e-14 4.88595e-13 -9.57557e-13 0 0 1.555e-13 -5.83636e-13 4.19826e-13 -8.4013e-13 0 0 -8.59221e-13 1.0877e-12 -7.13479e-13 -3.83512e-13 0 0 -1.54856e-13 9.15376e-14 3.66212e-13 -1.03708e-12 0 0 5.02296e-13 -7.55733e-13 6.30475e-13 -9.89256e-13 0 0 2.82873e-13 -4.54087e-13 1.13458e-13 -3.72331e-13 0 0 6.17004e-14 -2.49063e-13 -7.03155e-13 3.82829e-13 0 0 -9.01776e-14 -2.87642e-13 -7.8957e-13 4.83252e-13 0 0 -2.1728e-13 -4.21752e-13 -6.33342e-13 3.84671e-13 0 0 -3.63589e-13 -4.67051e-13 -4.46009e-13 1.62329e-13 0 0 -4.49528e-13 -5.03443e-13 -2.48912e-13 -1.93382e-13 0 0 -3.97035e-13 -5.43372e-13 -1.77791e-13 -3.27697e-13 0 0 -2.70242e-13 -4.24806e-13 -3.64943e-13 -1.90486e-13 0 0 -2.48554e-13 -1.99526e-13 -4.99235e-13 -1.17374e-13 0 0 -3.23994e-13 -1.06027e-13 -3.15794e-13 -3.17865e-13 0 0 -3.64219e-13 -3.39842e-14 -2.25645e-13 -4.37785e-13 0 0 -1.35035e-13 -1.10865e-13 -3.9788e-13 -2.17048e-13 0 0 1.01433e-13 -2.99027e-13 -4.35186e-13 -1.73499e-13 0 0 9.62599e-15 -2.65904e-13 -4.22989e-13 -1.8516e-13 0 0 -3.63195e-13 -1.35461e-13 -2.14317e-13 -3.38347e-13 0 0 -4.68266e-13 -2.46842e-13 1.1025e-14 -4.73346e-13 0 0 -6.0757e-14 -5.9323e-13 -1.44912e-14 -4.02402e-13 0 0 -2.42273e-14 -3.44247e-13 -4.32653e-13 -2.36171e-13 0 0 -2.19262e-13 -1.91537e-13 -2.9821e-13 -4.73157e-13 0 0 -3.93784e-13 -1.75099e-13 -1.9444e-13 -3.9079e-13 0 0 -4.24096e-13 -2.76901e-13 -1.73238e-13 -1.94469e-13 0 0 -2.13668e-13 -4.86805e-13 -7.29492e-14 -3.0766e-13 0 0 -2.28198e-13 -2.92331e-13 -3.92266e-13 -1.75587e-13 0 0 -3.29806e-13 -3.61343e-13 -1.48333e-13 -4.11773e-13 0 0 -5.35183e-13 -2.07559e-13 -2.82806e-13 -1.99291e-13 0 0 -6.11334e-13 -3.37584e-13 -1.09867e-13 -9.01444e-14 0 0 -3.42635e-13 -4.89208e-13 -3.02212e-14 -1.59639e-13 0 0 -1.76655e-13 -2.86205e-13 -5.3763e-13 4.95262e-14 0 0 -2.83667e-13 -4.34243e-13 -1.32546e-13 -4.54178e-13 0 0 -5.09227e-13 -3.46871e-13 -1.02307e-13 -4.17383e-13 0 0 -6.68128e-13 -3.55783e-13 -2.09418e-14 -2.4798e-13 0 0 -3.74681e-13 -5.42611e-13 1.79907e-14 -2.78225e-13 0 0 -1.48195e-13 -3.89169e-13 -4.76949e-13 -3.60058e-14 0 0 -3.48262e-13 -3.14111e-13 -2.55031e-13 -4.12718e-13 0 0 -5.26889e-13 -1.8908e-13 -3.03359e-13 -3.88442e-13 0 0 -5.52729e-13 -3.11252e-13 -1.1112e-13 -3.89676e-13 0 0 -2.24434e-13 -5.06568e-13 -3.67609e-14 -5.02975e-13 0 0 -8.66384e-14 -2.26702e-13 -6.90211e-13 -1.81417e-13 0 0 -3.46482e-13 -2.46758e-13 -5.52246e-13 -3.86308e-13 0 0 -4.17597e-13 -5.06931e-13 -4.20972e-13 -3.19151e-13 0 0 -4.07891e-13 -5.50722e-13 -4.81286e-13 -9.39665e-14 0 0 -3.40789e-13 -5.36509e-13 -1.28747e-13 -5.04541e-13 0 0 -1.18239e-13 -2.39904e-13 -5.57604e-13 -5.12286e-13 0 0 -3.34462e-14 -1.84403e-13 -7.44106e-13 -5.25723e-13 0 0 -4.82331e-13 -1.83824e-13 -4.07692e-13 -5.52148e-13 0 0 -7.44256e-13 -2.31535e-14 -7.39814e-13 1.68099e-13 0 0 -3.40044e-13 -5.88524e-13 -3.57895e-13 2.45567e-13 0 0 -2.09722e-13 -5.41928e-13 -4.23537e-13 2.86358e-13 0 0 -3.11966e-13 -3.02978e-13 -6.55289e-13 4.91828e-13 0 0 -7.32843e-13 -1.77045e-13 -6.06321e-13 6.4207e-13 0 0 -7.23531e-13 -2.05055e-13 -8.23235e-13 9.97491e-13 0 0 -2.44528e-13 -8.00121e-13 -1.65758e-13 3.97223e-13 0 0 -3.94445e-13 -3.77423e-13 -2.57699e-13 -9.45113e-14 0 0 -4.19403e-13 -1.76664e-13 -4.21467e-13 -2.72413e-13 0 0 -4.82759e-13 -3.0819e-13 -3.00118e-13 -2.78195e-13 0 0 -7.21165e-13 -4.64853e-13 -1.35598e-13 -2.0274e-13 0 0 -4.30558e-13 -8.15458e-13 -1.42719e-13 -3.11594e-13 0 0 4.24892e-14 -7.70941e-13 -8.86411e-13 -1.36826e-13 0 0 -1.95262e-13 -4.16742e-13 -1.07156e-12 -4.16596e-13 0 0 -9.17321e-13 2.12871e-13 -8.57973e-13 -6.82001e-13 0 0 -9.33165e-13 2.16168e-14 -4.57865e-13 -4.39143e-13 0 0 -3.64292e-14 -8.75301e-13 -2.34509e-13 -1.55026e-13 0 0 3.27269e-13 -1.03455e-12 -5.46435e-13 -1.93339e-13 0 0 -3.61163e-13 -3.71486e-13 -7.7817e-13 -9.28114e-13 0 0 -1.02981e-12 2.30102e-13 -9.84277e-13 -1.37938e-12 0 0 -9.05118e-13 1.80974e-15 -1.10651e-12 -9.94213e-13 0 0 -2.0107e-13 -5.56678e-13 -1.14154e-12 -5.4335e-13 0 0 7.41382e-15 -7.53918e-13 -8.0116e-13 -5.2279e-13 0 0 -2.89819e-13 -8.77139e-13 -7.50636e-15 -1.0096e-12 0 0 -3.30733e-13 -7.81915e-13 -3.7346e-13 -7.01991e-13 0 0 -4.6385e-13 -5.62266e-13 -8.84978e-13 -3.68247e-13 0 0 -7.35095e-13 -2.87006e-13 -7.11607e-13 -1.13034e-12 0 0 -7.17493e-13 2.63782e-14 -9.91288e-13 -1.2768e-12 0 0 -3.17746e-13 -5.29746e-13 -5.76331e-13 -1.12621e-12 0 0 -2.06727e-14 -1.01937e-12 -3.35165e-13 -5.65857e-13 0 0 -3.78493e-13 -6.99145e-13 -4.91842e-13 -3.51407e-13 0 0 -7.60797e-13 -2.57816e-13 -3.96445e-13 -1.20494e-12 0 0 -6.72703e-13 1.34307e-13 -1.02122e-12 -1.26817e-12 0 0 -2.28752e-13 -5.38086e-13 -6.5001e-13 -1.03906e-12 0 0 7.13182e-14 -1.12728e-12 -2.82016e-13 -5.5024e-13 0 0 -2.92546e-13 -6.8183e-13 -6.78745e-13 -2.22545e-13 0 0 -7.13727e-13 -2.99935e-13 -5.5192e-13 -9.07399e-13 0 0 -6.93532e-13 -2.03386e-14 -9.79977e-13 -8.94157e-13 0 0 -2.22274e-13 -6.91771e-13 -7.26323e-13 -6.34969e-13 0 0 6.79228e-14 -1.17556e-12 -5.12916e-13 -1.6205e-13 0 0 -3.83996e-13 -6.1793e-13 -8.72061e-13 1.42833e-13 0 0 -7.18676e-13 -3.25578e-13 -5.85387e-13 -8.63569e-13 0 0 -6.83126e-13 4.07847e-14 -1.17958e-12 -1.05084e-12 0 0 -2.31769e-13 -4.83505e-13 -1.13197e-12 -7.74243e-13 0 0 2.21817e-13 -1.12716e-12 -8.24345e-13 -3.01367e-13 0 0 -5.47864e-13 -3.37711e-13 -7.15739e-13 -4.2666e-13 0 0 -8.95966e-13 -4.01472e-13 6.84065e-13 -1.99418e-12 0 0 -3.52432e-13 -6.12509e-13 2.27344e-14 -1.48811e-12 0 0 1.22161e-13 -6.84611e-13 -1.22317e-12 -2.88058e-13 0 0 -3.78029e-13 -5.75927e-13 -1.07765e-12 -3.72747e-13 0 0 -1.36037e-12 3.31692e-13 -1.31523e-12 -3.61589e-13 0 0 -7.21344e-13 -2.63289e-13 -8.47336e-13 -4.70202e-13 0 0 -2.26153e-15 -6.80501e-13 -1.19841e-12 2.82261e-13 0 0 5.47396e-14 -1.0399e-12 -8.68858e-13 2.79458e-13 0 0 -6.33347e-13 -8.08582e-13 -4.00149e-13 -2.51985e-13 0 0 -1.40692e-12 2.04923e-13 -1.167e-12 4.11371e-14 0
				</DataArray>
				<DataArray Name="VitesseY" type="Float32" format="ascii">