<?xml version="1.0"?>
<VTKFile type="PolyData">
	<PolyData>
		<Piece NumberOfPoints="1206" NumberOfPolys="1000">
			<Points>
				<DataArray type="Float32" NumberOfComponents="3" format="ascii">
 0 0 0 0.02 0 0 0.04 0 0 0.06 0 0 0.08 0 0 0.1 0 0 0 0.005 0 0.02 0.005 0 0.04 0.005 0 0.06 0.005 0 0.08 0.005 0 0.1 0.005 0 0 0.01 0 0.02 0.01 0 0.04 0.01 0 0.06 0.01 0 0.08 0.01 0 0.1 0.01 0 0 0.015 0 0.02 0.015 0 0.04 0.015 0 0.06 0.015 0 0.08 0.015 0 0.1 0.015 0 0 0.02 0 0.02 0.02 0 0.04 0.02 0 0.06 0.02 0 0.08 0.02 0 0.1 0.02 0 0 0.025 0 0.02 0.025 0 0.04 0.025 0 0.06 0.025 0 0.08 0.025 0 0.1 0.025 0 0 0.03 0 0.02 0.03 0 0.04 0.03 0 0.06 0.03 0 0.08 0.03 0 0.1 0.03 0 0 0.035 0 0.02 0.035 0 0.04 0.035 0 0.06 0.035 0 0.08 0.035 0 0.1 0.035 0 0 0.04 0 0.02 0.04 0 0.04 0.04 0 0.06 0.04 0 0.08 0.04 0 0.1 0.04 0 0 0.045 0 0.02 0.045 0 0.04 0.045 0 0.06 0.045 0 0.08 0.045 0 0.1 0.045 0 0 0.05 0 0.02 0.05 0 0.04 0.05 0 0.06 0.05 0 0.08 0.05 0 0.1 0.05 0 0 0.055 0 0.02 0.055 0 0.04 0.055 0 0.06 0.055 0 0.08 0.055 0 0.1 0.055 0 0 0.06 0 0.02 0.06 0 0.04 0.06 0 0.06 0.06 0 0.08 0.06 0 0.1 0.06 0 0 0.065 0 0.02 0.065 0 0.04 0.065 0 0.06 0.065 0 0.08 0.065 0 0.1 0.065 0 0 0.07 0 0.02 0.07 0 0.04 0.07 0 0.06 0.07 0 0.08 0.07 0 0.1 0.07 0 0 0.075 0 0.02 0.075 0 0.04 0.075 0 0.06 0.075 0 0.08 0.075 0 0.1 0.075 0 0 0.08 0 0.02 0.08 0 0.04 0.08 0 0.06 0.08 0 0.08 0.08 0 0.1 0.08 0 0 0.085 0 0.02 0.085 0 0.04 0.085 0 0.06 0.085 0 0.08 0.085 0 0.1 0.085 0 0 0.09 0 0.02 0.09 0 0.04 0.09 0 0.06 0.09 0 0.08 0.09 0 0.1 0.09 0 0 0.095 0 0.02 0.095 0 0.04 0.095 0 0.06 0.095 0 0.08 0.095 0 0.1 0.095 0 0 0.1 0 0.02 0.1 0 0.04 0.1 0 0.06 0.1 0 0.08 0.1 0 0.1 0.1 0 0 0.105 0 0.02 0.105 0 0.04 0.105 0 0.06 0.105 0 0.08 0.105 0 0.1 0.105 0 0 0.11 0 0.02 0.11 0 0.04 0.11 0 0.06 0.11 0 0.08 0.11 0 0.1 0.11 0 0 0.115 0 0.02 0.115 0 0.04 0.115 0 0.06 0.115 0 0.08 0.115 0 0.1 0.115 0 0 0.12 0 0.02 0.12 0 0.04 0.12 0 0.06 0.12 0 0.08 0.12 0 0.1 0.12 0 0 0.125 0 0.02 0.125 0 0.04 0.125 0 0.06 0.125 0 0.08 0.125 0 0.1 0.125 0 0 0.13 0 0.02 0.13 0 0.04 0.13 0 0.06 0.13 0 0.08 0.13 0 0.1 0.13 0 0 0.135 0 0.02 0.135 0 0.04 0.135 0 0.06 0.135 0 0.08 0.135 0 0.1 0.135 0 0 0.14 0 0.02 0.14 0 0.04 0.14 0 0.06 0.14 0 0.08 0.14 0 0.1 0.14 0 0 0.145 0 0.02 0.145 0 0.04 0.145 0 0.06 0.145 0 0.08 0.145 0 0.1 0.145 0 0 0.15 0 0.02 0.15 0 0.04 0.15 0 0.06 0.15 0 0.08 0.15 0 0.1 0.15 0 0 0.155 0 0.02 0.155 0 0.04 0.155 0 0.06 0.155 0 0.08 0.155 0 0.1 0.155 0 0 0.16 0 0.02 0.16 0 0.04 0.16 0 0.06 0.16 0 0.08 0.16 0 0.1 0.16 0 0 0.165 0 0.02 0.165 0 0.04 0.165 0 0.06 0.165 0 0.08 0.165 0 0.1 0.165 0 0 0.17 0 0.02 0.17 0 0.04 0.17 0 0.06 0.17 0 0.08 0.17 0 0.1 0.17 0 0 0.175 0 0.02 0.175 0 0.04 0.175 0 0.06 0.175 0 0.08 0.175 0 0.1 0.175 0 0 0.18 0 0.02 0.18 0 0.04 0.18 0 0.06 0.18 0 0.08 0.18 0 0.1 0.18 0 0 0.185 0 0.02 0.185 0 0.04 0.185 0 0.06 0.185 0 0.08 0.185 0 0.1 0.185 0 0 0.19 0 0.02 0.19 0 0.04 0.19 0 0.06 0.19 0 0.08 0.19 0 0.1 0.19 0 0 0.195 0 0.02 0.195 0 0.04 0.195 0 0.06 0.195 0 0.08 0.195 0 0.1 0.195 0 0 0.2 0 0.02 0.2 0 0.04 0.2 0 0.06 0.2 0 0.08 0.2 0 0.1 0.2 0 0 0.205 0 0.02 0.205 0 0.04 0.205 0 0.06 0.205 0 0.08 0.205 0 0.1 0.205 0 0 0.21 0 0.02 0.21 0 0.04 0.21 0 0.06 0.21 0 0.08 0.21 0 0.1 0.21 0 0 0.215 0 0.02 0.215 0 0.04 0.215 0 0.06 0.215 0 0.08 0.215 0 0.1 0.215 0 0 0.22 0 0.02 0.22 0 0.04 0.22 0 0.06 0.22 0 0.08 0.22 0 0.1 0.22 0 0 0.225 0 0.02 0.225 0 0.04 0.225 0 0.06 0.225 0 0.08 0.225 0 0.1 0.225 0 0 0.23 0 0.02 0.23 0 0.04 0.23 0 0.06 0.23 0 0.08 0.23 0 0.1 0.23 0 0 0.235 0 0.02 0.235 0 0.04 0.235 0 0.06 0.235 0 0.08 0.235 0 0.1 0.235 0 0 0.24 0 0.02 0.24 0 0.04 0.24 0 0.06 0.24 0 0.08 0.24 0 0.1 0.24 0 0 0.245 0 0.02 0.245 0 0.04 0.245 0 0.06 0.245 0 0.08 0.245 0 0.1 0.245 0 0 0.25 0 0.02 0.25 0 0.04 0.25 0 0.06 0.25 0 0.08 0.25 0 0.1 0.25 0 0 0.255 0 0.02 0.255 0 0.04 0.255 0 0.06 0.255 0 0.08 0.255 0 0.1 0.255 0 0 0.26 0 0.02 0.26 0 0.04 0.26 0 0.06 0.26 0 0.08 0.26 0 0.1 0.26 0 0 0.265 0 0.02 0.265 0 0.04 0.265 0 0.06 0.265 0 0.08 0.265 0 0.1 0.265 0 0 0.27 0 0.02 0.27 0 0.04 0.27 0 0.06 0.27 0 0.08 0.27 0 0.1 0.27 0 0 0.275 0 0.02 0.275 0 0.04 0.275 0 0.06 0.275 0 0.08 0.275 0 0.1 0.275 0 0 0.28 0 0.02 0.28 0 0.04 0.28 0 0.06 0.28 0 0.08 0.28 0 0.1 0.28 0 0 0.285 0 0.02 0.285 0 0.04 0.285 0 0.06 0.285 0 0.08 0.285 0 0.1 0.285 0 0 0.29 0 0.02 0.29 0 0.04 0.29 0 0.06 0.29 0 0.08 0.29 0 0.1 0.29 0 0 0.295 0 0.02 0.295 0 0.04 0.295 0 0.06 0.295 0 0.08 0.295 0 0.1 0.295 0 0 0.3 0 0.02 0.3 0 0.04 0.3 0 0.06 0.3 0 0.08 0.3 0 0.1 0.3 0 0 0.305 0 0.02 0.305 0 0.04 0.305 0 0.06 0.305 0 0.08 0.305 0 0.1 0.305 0 0 0.31 0 0.02 0.31 0 0.04 0.31 0 0.06 0.31 0 0.08 0.31 0 0.1 0.31 0 0 0.315 0 0.02 0.315 0 0.04 0.315 0 0.06 0.315 0 0.08 0.315 0 0.1 0.315 0 0 0.32 0 0.02 0.32 0 0.04 0.32 0 0.06 0.32 0 0.08 0.32 0 0.1 0.32 0 0 0.325 0 0.02 0.325 0 0.04 0.325 0 0.06 0.325 0 0.08 0.325 0 0.1 0.325 0 0 0.33 0 0.02 0.33 0 0.04 0.33 0 0.06 0.33 0 0.08 0.33 0 0.1 0.33 0 0 0.335 0 0.02 0.335 0 0.04 0.335 0 0.06 0.335 0 0.08 0.335 0 0.1 0.335 0 0 0.34 0 0.02 0.34 0 0.04 0.34 0 0.06 0.34 0 0.08 0.34 0 0.1 0.34 0 0 0.345 0 0.02 0.345 0 0.04 0.345 0 0.06 0.345 0 0.08 0.345 0 0.1 0.345 0 0 0.35 0 0.02 0.35 0 0.04 0.35 0 0.06 0.35 0 0.08 0.35 0 0.1 0.35 0 0 0.355 0 0.02 0.355 0 0.04 0.355 0 0.06 0.355 0 0.08 0.355 0 0.1 0.355 0 0 0.36 0 0.02 0.36 0 0.04 0.36 0 0.06 0.36 0 0.08 0.36 0 0.1 0.36 0 0 0.365 0 0.02 0.365 0 0.04 0.365 0 0.06 0.365 0 0.08 0.365 0 0.1 0.365 0 0 0.37 0 0.02 0.37 0 0.04 0.37 0 0.06 0.37 0 0.08 0.37 0 0.1 0.37 0 0 0.375 0 0.02 0.375 0 0.04 0.375 0 0.06 0.375 0 0.08 0.375 0 0.1 0.375 0 0 0.38 0 0.02 0.38 0 0.04 0.38 0 0.06 0.38 0 0.08 0.38 0 0.1 0.38 0 0 0.385 0 0.02 0.385 0 0.04 0.385 0 0.06 0.385 0 0.08 0.385 0 0.1 0.385 0 0 0.39 0 0.02 0.39 0 0.04 0.39 0 0.06 0.39 0 0.08 0.39 0 0.1 0.39 0 0 0.395 0 0.02 0.395 0 0.04 0.395 0 0.06 0.395 0 0.08 0.395 0 0.1 0.395 0 0 0.4 0 0.02 0.4 0 0.04 0.4 0 0.06 0.4 0 0.08 0.4 0 0.1 0.4 0 0 0.405 0 0.02 0.405 0 0.04 0.405 0 0.06 0.405 0 0.08 0.405 0 0.1 0.405 0 0 0.41 0 0.02 0.41 0 0.04 0.41 0 0.06 0.41 0 0.08 0.41 0 0.1 0.41 0 0 0.415 0 0.02 0.415 0 0.04 0.415 0 0.06 0.415 0 0.08 0.415 0 0.1 0.415 0 0 0.42 0 0.02 0.42 0 0.04 0.42 0 0.06 0.42 0 0.08 0.42 0 0.1 0.42 0 0 0.425 0 0.02 0.425 0 0.04 0.425 0 0.06 0.425 0 0.08 0.425 0 0.1 0.425 0 0 0.43 0 0.02 0.43 0 0.04 0.43 0 0.06 0.43 0 0.08 0.43 0 0.1 0.43 0 0 0.435 0 0.02 0.435 0 0.04 0.435 0 0.06 0.435 0 0.08 0.435 0 0.1 0.435 0 0 0.44 0 0.02 0.44 0 0.04 0.44 0 0.06 0.44 0 0.08 0.44 0 0.1 0.44 0 0 0.445 0 0.02 0.445 0 0.04 0.445 0 0.06 0.445 0 0.08 0.445 0 0.1 0.445 0 0 0.45 0 0.02 0.45 0 0.04 0.45 0 0.06 0.45 0 0.08 0.45 0 0.1 0.45 0 0 0.455 0 0.02 0.455 0 0.04 0.455 0 0.06 0.455 0 0.08 0.455 0 0.1 0.455 0 0 0.46 0 0.02 0.46 0 0.04 0.46 0 0.06 0.46 0 0.08 0.46 0 0.1 0.46 0 0 0.465 0 0.02 0.465 0 0.04 0.465 0 0.06 0.465 0 0.08 0.465 0 0.1 0.465 0 0 0.47 0 0.02 0.47 0 0.04 0.47 0 0.06 0.47 0 0.08 0.47 0 0.1 0.47 0 0 0.475 0 0.02 0.475 0 0.04 0.475 0 0.06 0.475 0 0.08 0.475 0 0.1 0.475 0 0 0.48 0 0.02 0.48 0 0.04 0.48 0 0.06 0.48 0 0.08 0.48 0 0.1 0.48 0 0 0.485 0 0.02 0.485 0 0.04 0.485 0 0.06 0.485 0 0.08 0.485 0 0.1 0.485 0 0 0.49 0 0.02 0.49 0 0.04 0.49 0 0.06 0.49 0 0.08 0.49 0 0.1 0.49 0 0 0.495 0 0.02 0.495 0 0.04 0.495 0 0.06 0.495 0 0.08 0.495 0 0.1 0.495 0 0 0.5 0 0.02 0.5 0 0.04 0.5 0 0.06 0.5 0 0.08 0.5 0 0.1 0.5 0 0 0.505 0 0.02 0.505 0 0.04 0.505 0 0.06 0.505 0 0.08 0.505 0 0.1 0.505 0 0 0.51 0 0.02 0.51 0 0.04 0.51 0 0.06 0.51 0 0.08 0.51 0 0.1 0.51 0 0 0.515 0 0.02 0.515 0 0.04 0.515 0 0.06 0.515 0 0.08 0.515 0 0.1 0.515 0 0 0.52 0 0.02 0.52 0 0.04 0.52 0 0.06 0.52 0 0.08 0.52 0 0.1 0.52 0 0 0.525 0 0.02 0.525 0 0.04 0.525 0 0.06 0.525 0 0.08 0.525 0 0.1 0.525 0 0 0.53 0 0.02 0.53 0 0.04 0.53 0 0.06 0.53 0 0.08 0.53 0 0.1 0.53 0 0 0.535 0 0.02 0.535 0 0.04 0.535 0 0.06 0.535 0 0.08 0.535 0 0.1 0.535 0 0 0.54 0 0.02 0.54 0 0.04 0.54 0 0.06 0.54 0 0.08 0.54 0 0.1 0.54 0 0 0.545 0 0.02 0.545 0 0.04 0.545 0 0.06 0.545 0 0.08 0.545 0 0.1 0.545 0 0 0.55 0 0.02 0.55 0 0.04 0.55 0 0.06 0.55 0 0.08 0.55 0 0.1 0.55 0 0 0.555 0 0.02 0.555 0 0.04 0.555 0 0.06 0.555 0 0.08 0.555 0 0.1 0.555 0 0 0.56 0 0.02 0.56 0 0.04 0.56 0 0.06 0.56 0 0.08 0.56 0 0.1 0.56 0 0 0.565 0 0.02 0.565 0 0.04 0.565 0 0.06 0.565 0 0.08 0.565 0 0.1 0.565 0 0 0.57 0 0.02 0.57 0 0.04 0.57 0 0.06 0.57 0 0.08 0.57 0 0.1 0.57 0 0 0.575 0 0.02 0.575 0 0.04 0.575 0 0.06 0.575 0 0.08 0.575 0 0.1 0.575 0 0 0.58 0 0.02 0.58 0 0.04 0.58 0 0.06 0.58 0 0.08 0.58 0 0.1 0.58 0 0 0.585 0 0.02 0.585 0 0.04 0.585 0 0.06 0.585 0 0.08 0.585 0 0.1 0.585 0 0 0.59 0 0.02 0.59 0 0.04 0.59 0 0.06 0.59 0 0.08 0.59 0 0.1 0.59 0 0 0.595 0 0.02 0.595 0 0.04 0.595 0 0.06 0.595 0 0.08 0.595 0 0.1 0.595 0 0 0.6 0 0.02 0.6 0 0.04 0.6 0 0.06 0.6 0 0.08 0.6 0 0.1 0.6 0 0 0.605 0 0.02 0.605 0 0.04 0.605 0 0.06 0.605 0 0.08 0.605 0 0.1 0.605 0 0 0.61 0 0.02 0.61 0 0.04 0.61 0 0.06 0.61 0 0.08 0.61 0 0.1 0.61 0 0 0.615 0 0.02 0.615 0 0.04 0.615 0 0.06 0.615 0 0.08 0.615 0 0.1 0.615 0 0 0.62 0 0.02 0.62 0 0.04 0.62 0 0.06 0.62 0 0.08 0.62 0 0.1 0.62 0 0 0.625 0 0.02 0.625 0 0.04 0.625 0 0.06 0.625 0 0.08 0.625 0 0.1 0.625 0 0 0.63 0 0.02 0.63 0 0.04 0.63 0 0.06 0.63 0 0.08 0.63 0 0.1 0.63 0 0 0.635 0 0.02 0.635 0 0.04 0.635 0 0.06 0.635 0 0.08 0.635 0 0.1 0.635 0 0 0.64 0 0.02 0.64 0 0.04 0.64 0 0.06 0.64 0 0.08 0.64 0 0.1 0.64 0 0 0.645 0 0.02 0.645 0 0.04 0.645 0 0.06 0.645 0 0.08 0.645 0 0.1 0.645 0 0 0.65 0 0.02 0.65 0 0.04 0.65 0 0.06 0.65 0 0.08 0.65 0 0.1 0.65 0 0 0.655 0 0.02 0.655 0 0.04 0.655 0 0.06 0.655 0 0.08 0.655 0 0.1 0.655 0 0 0.66 0 0.02 0.66 0 0.04 0.66 0 0.06 0.66 0 0.08 0.66 0 0.1 0.66 0 0 0.665 0 0.02 0.665 0 0.04 0.665 0 0.06 0.665 0 0.08 0.665 0 0.1 0.665 0 0 0.67 0 0.02 0.67 0 0.04 0.67 0 0.06 0.67 0 0.08 0.67 0 0.1 0.67 0 0 0.675 0 0.02 0.675 0 0.04 0.675 0 0.06 0.675 0 0.08 0.675 0 0.1 0.675 0 0 0.68 0 0.02 0.68 0 0.04 0.68 0 0.06 0.68 0 0.08 0.68 0 0.1 0.68 0 0 0.685 0 0.02 0.685 0 0.04 0.685 0 0.06 0.685 0 0.08 0.685 0 0.1 0.685 0 0 0.69 0 0.02 0.69 0 0.04 0.69 0 0.06 0.69 0 0.08 0.69 0 0.1 
[...]
			<PointData Scalars="VitesseX">
				<DataArray Name="VitesseX" type="Float32" format="ascii">
 0 9.3013e-15 -7.35057e-15 -6.34899e-15 -2.32351e-14 0 0 9.25436e-15 -5.37125e-15 -8.94449e-15 -2.18961e-14 0 0 7.56547e-15 -1.22214e-16 -1.73957e-14 -1.60744e-14 0 0 7.09462e-15 -4.1798e-15 -1.30713e-14 -2.02298e-14 0 0 3.35173e-15 -3.08503e-15 -1.47788e-14 -2.10118e-14 0 0 -3.62642e-15 6.22033e-15 -2.89912e-14 -1.52772e-14 0 0 1.62128e-15 -1.14654e-14 -1.75493e-14 -2.56122e-14 0 0 1.42209e-14 -4.22809e-14 1.05728e-14 -4.90303e-14 0 0 1.12099e-14 -3.99104e-14 4.03887e-15 -5.29695e-14 0 0 -6.24948e-17 -2.78195e-14 -1.69286e-14 -3.39055e-14 0 0 -7.82987e-15 -1.69343e-14 -4.19218e-14 -7.09299e-15 0 0 -1.68005e-16 -2.34765e-14 -5.4193e-14 7.67593e-15 0 0 6.7147e-15 -3.57185e-14 -5.25453e-14 1.07085e-14 0 0 9.27823e-16 -2.94531e-14 -5.10674e-14 -4.7598e-15 0 0 1.28217e-14 -5.57483e-14 -1.97121e-14 -2.83418e-14 0 0 8.91392e-15 -6.46967e-14 -3.65002e-15 -3.54071e-14 0 0 -1.27743e-14 -4.81451e-14 2.9917e-15 -3.18684e-14 0 0 -3.66382e-14 -3.45613e-16 -5.40799e-14 2.99084e-14 0 0 -8.06525e-15 -1.78222e-14 -6.33543e-14 4.74752e-14 0 0 1.4033e-14 -5.03805e-14 -2.59577e-14 1.55009e-14 0 0 -2.22936e-14 1.6179e-15 -5.70711e-14 2.12836e-14 0 0 3.94249e-15 -1.81553e-14 -4.26125e-14 1.83272e-14 0 0 1.88292e-15 -4.38554e-15 -5.57546e-14 3.03932e-14 0 0 -4.79363e-14 7.64395e-14 -1.19405e-13 5.95368e-14 0 0 6.11178e-15 -9.07567e-15 -4.34979e-14 2.9758e-14 0 0 5.15454e-14 -1.07863e-13 5.70638e-14 -8.65325e-15 0 0 -1.19416e-14 -1.46869e-14 -1.41895e-14 3.34916e-14 0 0 -4.89454e-14 5.86844e-14 -5.8648e-14 2.05839e-14 0 0 1.46057e-14 -3.04614e-14 2.51503e-14 -5.59201e-14 0 0 3.54639e-14 -5.54002e-14 6.77622e-15 -2.83811e-14 0 0 1.11777e-14 -4.44373e-14 3.13925e-15 -4.99137e-14 0 0 1.30036e-14 -6.61108e-14 4.37288e-14 -1.0129e-13 0 0 1.9503e-14 -3.491e-14 1.4938e-14 -9.68504e-14 0 0 -1.43158e-14 4.61091e-14 -7.21986e-14 -4.60047e-14 0 0 -7.76059e-15 3.15357e-14 -9.49291e-14 1.34588e-15 0 0 4.91956e-14 -5.77204e-14 -2.82575e-14 -5.38696e-14 0 0 2.49237e-14 -2.82314e-14 -7.33174e-14 -3.05046e-14 0 0 2.7569e-14 -4.91532e-14 -3.29978e-14 -3.61498e-14 0 0 1.24114e-14 -3.58516e-15 -6.63131e-14 -1.36126e-14 0 0 3.654e-14 -1.55671e-14 -9.84193e-14 2.84398e-14 0 0 3.21013e-14 -3.16008e-14 -8.14487e-14 8.45497e-15 0 0 -3.40676e-14 1.15381e-14 -8.14165e-14 7.50403e-15 0 0 -5.29403e-15 -6.55658e-14 1.48118e-14 -2.15401e-14 0 0 3.15705e-14 -9.87101e-14 8.00367e-14 -9.06658e-14 0 0 -5.79004e-14 5.41632e-14 -3.20172e-14 -1.01198e-13 0 0 -6.49491e-14 2.61312e-14 3.102e-14 -2.00887e-13 0 0 -4.36505e-14 -3.56323e-14 1.59468e-13 -3.05803e-13 0 0 -4.56739e-14 6.46941e-14 1.01006e-14 -1.59868e-13 0 0 -5.16889e-14 9.59106e-14 -3.47738e-14 -6.97472e-14 0 0 -9.15639e-14 7.83594e-14 -4.46845e-16 -4.2723e-14 0 0 -6.92924e-14 -2.58993e-14 1.48285e-13 -1.32331e-13 0 0 -8.71451e-14 -7.94505e-15 1.6144e-13 -1.87149e-13 0 0 -1.11357e-13 7.1305e-14 -3.70482e-14 -3.09691e-14 0 0 -2.42383e-13 2.12866e-13 -1.89562e-13 1.08875e-13 0 0 -1.51063e-13 4.25101e-14 1.89487e-14 -9.58077e-14 0 0 -5.67127e-15 -2.2513e-13 3.0897e-13 -3.85061e-13 0 0 -1.12151e-13 -7.31315e-14 1.34527e-13 -2.84803e-13 0 0 -1.44693e-13 4.4447e-14 -1.07578e-13 -4.38654e-14 0 0 -1.2292e-13 -3.9252e-14 -9.13139e-14 4.11389e-14 0 0 -1.41043e-13 -1.47842e-13 6.13685e-14 -9.14228e-14 0 0 -2.14351e-13 -6.59274e-14 -7.15224e-14 -1.11097e-13 0 0 -2.09142e-13 2.04629e-14 -2.9438e-13 -6.2968e-14 0 0 -3.88213e-14 -1.06004e-13 -2.27615e-13 -1.4137e-13 0 0 1.03299e-13 -1.65763e-13 -1.85525e-13 -1.519e-13 0 0 3.02202e-14 -9.14373e-14 -1.60479e-13 -1.93054e-13 0 0 -1.28978e-13 6.66605e-14 -2.09338e-13 -1.89384e-13 0 0 -1.95835e-13 1.34284e-13 -3.31433e-13 -9.45509e-14 0 0 -1.2405e-13 -5.29647e-14 -1.54517e-13 -1.75007e-13 0 0 -8.083e-14 -1.97902e-13 9.33049e-14 -3.61242e-13 0 0 -1.32127e-13 -5.25012e-14 -5.10443e-14 -3.2956e-13 0 0 -7.47806e-14 -3.93097e-14 -2.10413e-13 -2.68629e-13 0 0 -7.33541e-14 1.00968e-14 -3.64616e-13 -2.24568e-13 0 0 -1.4425e-13 2.45597e-14 -2.97512e-13 -3.0568e-13 0 0 -9.34516e-14 -1.56569e-13 -4.83762e-14 -4.956e-13 0 0 -8.96899e-14 -2.66922e-13 1.21642e-13 -6.0354e-13 0 0 -1.85238e-13 -2.45517e-13 1.1711e-13 -5.48685e-13 0 0 -3.06666e-13 -1.77641e-13 7.29952e-14 -3.84353e-13 0 0 -3.83388e-13 -1.16588e-13 7.53864e-14 -2.27227e-13 0 0 -4.35696e-13 -1.17392e-13 1.25956e-13 -1.61239e-13 0 0 -4.4726e-13 -1.44233e-13 2.56333e-13 -1.83899e-13 0 0 -4.46509e-13 -1.53579e-13 2.87046e-13 -2.28476e-13 0 0 -4.96932e-13 -1.35325e-13 2.67076e-13 -2.61091e-13 0 0 -4.86517e-13 -8.48511e-14 1.81913e-13 -2.5959e-13 0 0 -4.36028e-13 -7.91906e-14 9.48374e-14 -2.37638e-13 0 0 -3.26631e-13 -1.1408e-13 6.3616e-14 -2.26714e-13 0 0 -2.40626e-13 -1.80639e-13 7.80396e-15 -1.94789e-13 0 0 -1.93544e-13 -1.62983e-13 -1.19224e-13 -1.22715e-13 0 0 -1.67121e-13 -1.20582e-13 -2.26446e-13 -8.05984e-14 0 0 -1.37929e-13 -9.18233e-14 -2.94675e-13 -4.85554e-14 0 0 -1.05208e-13 -1.04644e-13 -3.00465e-13 -7.39605e-14 0 0 -7.57257e-14 -1.52695e-13 -2.71374e-13 -1.50809e-13 0 0 -6.25835e-14 -2.13872e-13 -2.05172e-13 -2.78506e-13 0 0 -6.90678e-14 -2.33945e-13 -1.38334e-13 -4.00664e-13 0 0 -1.19547e-13 -2.19088e-13 -1.39154e-13 -5.09145e-13 0 0 -2.17826e-13 -1.46294e-13 -1.74686e-13 -6.19802e-13 0 0 -3.23411e-13 -4.22851e-14 -2.80489e-13 -6.21e-13 0 0 -3.60104e-13 4.0784e-14 -3.84918e-13 -6.08208e-13 0 0 -3.50862e-13 5.31786e-14 -4.72904e-13 -5.77714e-13 0 0 -2.96166e-13 3.90274e-14 -5.42983e-13 -5.09159e-13 0 0 -1.96467e-13 -2.32452e-14 -5.85933e-13 -4.05483e-13 0 0 -1.0589e-13 -1.04062e-13 -6.17071e-13 -2.94259e-13 0 0 -3.34986e-14 -1.75547e-13 -6.16445e-13 -1.89431e-13 0 0 6.43121e-15 -2.3036e-13 -6.12348e-13 -1.03107e-13 0 0 1.30955e-15 -2.81406e-13 -6.0965e-13 -2.64157e-14 0 0 -3.03665e-14 -3.18745e-13 -5.81642e-13 -1.03626e-14 0 0 -8.20613e-14 -3.62101e-13 -4.92618e-13 -1.9309e-14 0 0 -7.472e-14 -4.68434e-13 -3.65343e-13 -5.54273e-14 0 0 -9.92351e-14 -4.60557e-13 -2.4488e-13 -1.18705e-13 0 0 -1.73579e-13 -3.83854e-13 -2.8796e-13 -1.10516e-13 0 0 -2.2869e-13 -2.7879e-13 -3.53104e-13 -4.34828e-14 0 0 -2.38411e-13 -2.35198e-13 -3.30494e-13 -3.65176e-14 0 0 -2.2079e-13 -2.33265e-13 -3.28766e-13 3.13895e-14 0 0 -1.10208e-13 -2.79659e-13 -2.97613e-13 6.04288e-14 0 0 -3.62806e-14 -3.31347e-13 -1.7288e-13 -5.87758e-15 0 0 -6.02721e-14 -3.02913e-13 -1.18897e-13 -2.49267e-14 0 0 -1.17268e-13 -2.00824e-13 -1.63811e-13 2.66368e-14 0 0 -1.93028e-13 -9.54839e-14 -1.69048e-13 5.25364e-14 0 0 -2.59057e-13 -1.01266e-13 -8.72224e-14 -4.43152e-14 0 0 -2.57266e-13 -1.51607e-13 1.0697e-14 -1.58728e-13 0 0 -2.44608e-13 -1.77945e-13 -6.78436e-15 -1.21123e-13 0 0 -2.35862e-13 -1.58821e-13 -1.14452e-13 1.22596e-15 0 0 -1.89152e-13 -1.75579e-13 -1.2439e-13 8.61082e-14 0 0 -1.22645e-13 -2.0551e-13 -5.07744e-14 5.69828e-14 0 0 -7.10306e-14 -1.95346e-13 2.94497e-14 4.69925e-14 0 0 -1.0946e-14 -2.00458e-13 3.71599e-14 9.68193e-14 0 0 3.5643e-15 -2.27985e-13 8.36205e-14 1.13876e-13 0 0 -1.33981e-14 -1.71679e-13 7.10853e-14 1.28481e-13 0 0 -9.3306e-14 7.78024e-14 -1.20489e-13 1.89127e-13 0 0 -1.40938e-13 2.50247e-13 -2.81429e-13 2.36804e-13 0 0 -1.34906e-13 2.20539e-13 -2.33614e-13 1.81537e-13 0 0 -1.00328e-13 6.02843e-14 -4.90014e-14 1.38149e-14 0 0 1.80622e-14 -4.20356e-13 3.88036e-13 -3.3739e-13 0 0 -2.46447e-14 -4.05356e-13 3.38712e-13 -3.12029e-13 0 0 -1.87155e-13 -2.31616e-13 5.81092e-14 -1.64445e-13 0 0 -1.66168e-13 -2.94438e-13 -8.26058e-15 1.14187e-14 0 0 -1.7096e-13 -2.13669e-13 -2.22606e-13 2.48458e-13 0 0 -1.24548e-13 -1.75058e-13 -2.94643e-13 2.03708e-13 0 0 -5.9375e-14 -1.86368e-13 -2.4125e-13 4.92559e-14 0 0 -7.06117e-14 -1.3298e-13 -2.55662e-13 -1.08769e-13 0 0 -1.17742e-13 -8.00938e-14 -2.48671e-13 -1.48971e-13 0 0 -1.14305e-13 -1.39934e-13 -1.59994e-13 -1.8033e-13 0 0 -9.9154e-14 -1.50055e-13 -1.73436e-13 -1.68466e-13 0 0 -1.36261e-13 -5.12292e-14 -3.14062e-13 -9.72321e-14 0 0 -1.59577e-13 -4.90511e-14 -3.11476e-13 -1.02469e-13 0 0 -1.24931e-13 -1.0204e-13 -3.05483e-13 -1.72574e-13 0 0 -1.26971e-13 -1.79611e-13 -2.84468e-13 -1.65192e-13 0 0 -1.40135e-13 -2.2749e-13 -2.15143e-13 -1.909e-13 0 0 -1.37015e-13 -2.45292e-13 -2.0352e-13 -2.6615e-13 0 0 -1.47904e-13 -2.91931e-13 -1.92067e-13 -3.25001e-13 0 0 -1.43285e-13 -3.03434e-13 -2.28762e-13 -3.56208e-13 0 0 -1.34768e-13 -2.74447e-13 -3.09544e-13 -4.55098e-13 0 0 -1.2389e-13 -2.33854e-13 -4.20263e-13 -5.52961e-13 0 0 -1.0396e-13 -2.6262e-13 -4.25241e-13 -5.52113e-13 0 0 -1.03827e-13 -2.612e-13 -3.91771e-13 -2.90809e-13 0 0 -1.05249e-13 -2.6328e-13 -2.25942e-13 8.22305e-14 0 0 -9.76527e-14 -3.48836e-13 5.75843e-14 2.32508e-13 0 0 -1.15906e-13 -3.52238e-13 5.27585e-14 2.29659e-13 0 0 -1.98987e-13 -1.81902e-13 -1.31539e-13 -5.22374e-15 0 0 -2.01648e-13 -1.60468e-13 -1.69596e-13 -1.78606e-13 0 0 -8.60373e-14 -3.31662e-13 -3.29054e-14 -1.31302e-13 0 0 -6.84934e-14 -2.4446e-13 -1.81796e-13 7.01804e-14 0 0 -7.89768e-14 -1.22944e-13 -3.02487e-13 -1.76038e-14 0 0 -1.10065e-13 -9.64861e-14 -3.33908e-13 -2.20845e-14 0 0 -1.32135e-13 -1.48706e-13 -2.50644e-13 3.80068e-15 0 0 -1.37748e-13 -1.90511e-13 -1.78252e-13 8.74698e-16 0 0 -2.00961e-13 -1.34344e-13 -2.57808e-13 1.29311e-13 0 0 -1.79701e-13 -2.31377e-13 -6.09105e-14 -1.01161e-13 0 0 -1.91935e-13 -2.07248e-13 -6.96211e-14 -1.0477e-13 0 0 -3.00948e-13 2.99965e-14 -3.59824e-13 1.50589e-13 0 0 -2.94777e-13 7.43346e-14 -4.88642e-13 2.66141e-13 0 0 -1.86872e-13 -1.1477e-13 -2.7281e-13 1.41218e-13 0 0 -2.53273e-13 -4.86686e-14 -2.09102e-13 3.58458e-14 0 0 -2.93628e-13 -1.97024e-14 -1.41078e-13 -9.128e-14 0 0 -2.24563e-13 -1.16972e-13 -9.66094e-14 -6.85543e-14 0 0 -1.25591e-13 -2.26066e-13 -1.62423e-14 -4.68135e-14 0 0 -1.24266e-13 -2.47505e-13 4.54552e-14 -8.10806e-14 0 0 -2.33066e-13 -1.10954e-13 -7.27227e-14 1.37454e-14 0 0 -2.4089e-13 -6.34826e-14 -4.70062e-14 -9.19556e-14 0 0 -8.3059e-14 -2.26577e-13 6.9064e-14 -1.84124e-13 0 0 -5.52128e-14 -1.73413e-13 -1.00039e-13 5.58015e-14 0 0 -5.41467e-14 -4.69119e-14 -2.49063e-13 1.23357e-13 0 0 -1.01269e-14 -7.00209e-14 -1.67313e-13 -3.03639e-14 0 0 -1.12511e-13 3.10592e-14 -2.39213e-13 1.28356e-13 0 0 -3.29498e-14 -1.38987e-13 -9.41524e-14 9.62683e-14 0 0 1.08874e-13 -4.00384e-13 1.01838e-13 1.65659e-15 0 0 -1.42225e-14 -2.50249e-13 -1.00796e-13 3.3071e-13 0 0 -1.52847e-14 -2.79981e-13 -4.63276e-14 1.63354e-13 0 0 4.84971e-14 -4.30294e-13 1.40669e-13 -1.50786e-13 0 0 -8.78214e-14 -2.91069e-13 1.67044e-14 -7.84e-14 0 0 -4.52061e-14 -2.80705e-13 -4.84364e-14 -8.85133e-14 0 0 1.4439e-13 -5.12183e-13 9.07032e-14 -1.51158e-13 0 0 9.33518e-14 -4.99485e-13 -5.01012e-14 9.60742e-14 0 0 -5.89133e-14 -3.43083e-13 -1.32163e-13 1.40184e-13 0 0 4.37454e-14 -4.93917e-13 1.70499e-13 -2.34618e-13 0 0 -1.95273e-13 -4.42373e-14 -1.98258e-13 -9.50531e-14 0 0 -1.82529e-13 5.82369e-14 -4.43824e-13 1.75407e-13 0 0 2.43097e-13 -5.60506e-13 -3.46757e-14 1.60602e-13 0 0 3.94181e-13 -8.65963e-13 3.78041e-13 -6.99256e-14 0 0 2.00075e-13 -6.70507e-13 1.72728e-13 1.26137e-13 0 0 3.34288e-14 -5.6418e-13 -7.02693e-14 5.03593e-13 0 0 1.58542e-13 -8.06594e-13 1.11793e-13 5.00294e-13 0
				</DataArray>
				<DataArray Name="VitesseY" type="Float32" format="ascii">