<?xml version="1.0"?>
<VTKFile type="PolyData">
	<PolyData>
		<Piece NumberOfPoints="1206" NumberOfPolys="1000">
			<Points>
				<DataArray type="Float32" NumberOfComponents="3" format="ascii">
 0 0 0 0.02 0 0 0.04 0 0 0.06 0 0 0.08 0 0 0.1 0 0 0 0.005 0 0.02 0.005 0 0.04 0.005 0 0.06 0.005 0 0.08 0.005 0 0.1 0.005 0 0 0.01 0 0.02 0.01 0 0.04 0.01 0 0.06 0.01 0 0.08 0.01 0 0.1 0.01 0 0 0.015 0 0.02 0.015 0 0.04 0.015 0 0.06 0.015 0 0.08 0.015 0 0.1 0.015 0 0 0.02 0 0.02 0.02 0 0.04 0.02 0 0.06 0.02 0 0.08 0.02 0 0.1 0.02 0 0 0.025 0 0.02 0.025 0 0.04 0.025 0 0.06 0.025 0 0.08 0.025 0 0.1 0.025 0 0 0.03 0 0.02 0.03 0 0.04 0.03 0 0.06 0.03 0 0.08 0.03 0 0.1 0.03 0 0 0.035 0 0.02 0.035 0 0.04 0.035 0 0.06 0.035 0 0.08 0.035 0 0.1 0.035 0 0 0.04 0 0.02 0.04 0 0.04 0.04 0 0.06 0.04 0 0.08 0.04 0 0.1 0.04 0 0 0.045 0 0.02 0.045 0 0.04 0.045 0 0.06 0.045 0 0.08 0.045 0 0.1 0.045 0 0 0.05 0 0.02 0.05 0 0.04 0.05 0 0.06 0.05 0 0.08 0.05 0 0.1 0.05 0 0 0.055 0 0.02 0.055 0 0.04 0.055 0 0.06 0.055 0 0.08 0.055 0 0.1 0.055 0 0 0.06 0 0.02 0.06 0 0.04 0.06 0 0.06 0.06 0 0.08 0.06 0 0.1 0.06 0 0 0.065 0 0.02 0.065 0 0.04 0.065 0 0.06 0.065 0 0.08 0.065 0 0.1 0.065 0 0 0.07 0 0.02 0.07 0 0.04 0.07 0 0.06 0.07 0 0.08 0.07 0 0.1 0.07 0 0 0.075 0 0.02 0.075 0 0.04 0.075 0 0.06 0.075 0 0.08 0.075 0 0.1 0.075 0 0 0.08 0 0.02 0.08 0 0.04 0.08 0 0.06 0.08 0 0.08 0.08 0 0.1 0.08 0 0 0.085 0 0.02 0.085 0 0.04 0.085 0 0.06 0.085 0 0.08 0.085 0 0.1 0.085 0 0 0.09 0 0.02 0.09 0 0.04 0.09 0 0.06 0.09 0 0.08 0.09 0 0.1 0.09 0 0 0.095 0 0.02 0.095 0 0.04 0.095 0 0.06 0.095 0 0.08 0.095 0 0.1 0.095 0 0 0.1 0 0.02 0.1 0 0.04 0.1 0 0.06 0.1 0 0.08 0.1 0 0.1 0.1 0 0 0.105 0 0.02 0.105 0 0.04 0.105 0 0.06 0.105 0 0.08 0.105 0 0.1 0.105 0 0 0.11 0 0.02 0.11 0 0.04 0.11 0 0.06 0.11 0 0.08 0.11 0 0.1 0.11 0 0 0.115 0 0.02 0.115 0 0.04 0.115 0 0.06 0.115 0 0.08 0.115 0 0.1 0.115 0 0 0.12 0 0.02 0.12 0 0.04 0.12 0 0.06 0.12 0 0.08 0.12 0 0.1 0.12 0 0 0.125 0 0.02 0.125 0 0.04 0.125 0 0.06 0.125 0 0.08 0.125 0 0.1 0.125 0 0 0.13 0 0.02 0.13 0 0.04 0.13 0 0.06 0.13 0 0.08 0.13 0 0.1 0.13 0 0 0.135 0 0.02 0.135 0 0.04 0.135 0 0.06 0.135 0 0.08 0.135 0 0.1 0.135 0 0 0.14 0 0.02 0.14 0 0.04 0.14 0 0.06 0.14 0 0.08 0.14 0 0.1 0.14 0 0 0.145 0 0.02 0.145 0 0.04 0.145 0 0.06 0.145 0 0.08 0.145 0 0.1 0.145 0 0 0.15 0 0.02 0.15 0 0.04 0.15 0 0.06 0.15 0 0.08 0.15 0 0.1 0.15 0 0 0.155 0 0.02 0.155 0 0.04 0.155 0 0.06 0.155 0 0.08 0.155 0 0.1 0.155 0 0 0.16 0 0.02 0.16 0 0.04 0.16 0 0.06 0.16 0 0.08 0.16 0 0.1 0.16 0 0 0.165 0 0.02 0.165 0 0.04 0.165 0 0.06 0.165 0 0.08 0.165 0 0.1 0.165 0 0 0.17 0 0.02 0.17 0 0.04 0.17 0 0.06 0.17 0 0.08 0.17 0 0.1 0.17 0 0 0.175 0 0.02 0.175 0 0.04 0.175 0 0.06 0.175 0 0.08 0.175 0 0.1 0.175 0 0 0.18 0 0.02 0.18 0 0.04 0.18 0 0.06 0.18 0 0.08 0.18 0 0.1 0.18 0 0 0.185 0 0.02 0.185 0 0.04 0.185 0 0.06 0.185 0 0.08 0.185 0 0.1 0.185 0 0 0.19 0 0.02 0.19 0 0.04 0.19 0 0.06 0.19 0 0.08 0.19 0 0.1 0.19 0 0 0.195 0 0.02 0.195 0 0.04 0.195 0 0.06 0.195 0 0.08 0.195 0 0.1 0.195 0 0 0.2 0 0.02 0.2 0 0.04 0.2 0 0.06 0.2 0 0.08 0.2 0 0.1 0.2 0 0 0.205 0 0.02 0.205 0 0.04 0.205 0 0.06 0.205 0 0.08 0.205 0 0.1 0.205 0 0 0.21 0 0.02 0.21 0 0.04 0.21 0 0.06 0.21 0 0.08 0.21 0 0.1 0.21 0 0 0.215 0 0.02 0.215 0 0.04 0.215 0 0.06 0.215 0 0.08 0.215 0 0.1 0.215 0 0 0.22 0 0.02 0.22 0 0.04 0.22 0 0.06 0.22 0 0.08 0.22 0 0.1 0.22 0 0 0.225 0 0.02 0.225 0 0.04 0.225 0 0.06 0.225 0 0.08 0.225 0 0.1 0.225 0 0 0.23 0 0.02 0.23 0 0.04 0.23 0 0.06 0.23 0 0.08 0.23 0 0.1 0.23 0 0 0.235 0 0.02 0.235 0 0.04 0.235 0 0.06 0.235 0 0.08 0.235 0 0.1 0.235 0 0 0.24 0 0.02 0.24 0 0.04 0.24 0 0.06 0.24 0 0.08 0.24 0 0.1 0.24 0 0 0.245 0 0.02 0.245 0 0.04 0.245 0 0.06 0.245 0 0.08 0.245 0 0.1 0.245 0 0 0.25 0 0.02 0.25 0 0.04 0.25 0 0.06 0.25 0 0.08 0.25 0 0.1 0.25 0 0 0.255 0 0.02 0.255 0 0.04 0.255 0 0.06 0.255 0 0.08 0.255 0 0.1 0.255 0 0 0.26 0 0.02 0.26 0 0.04 0.26 0 0.06 0.26 0 0.08 0.26 0 0.1 0.26 0 0 0.265 0 0.02 0.265 0 0.04 0.265 0 0.06 0.265 0 0.08 0.265 0 0.1 0.265 0 0 0.27 0 0.02 0.27 0 0.04 0.27 0 0.06 0.27 0 0.08 0.27 0 0.1 0.27 0 0 0.275 0 0.02 0.275 0 0.04 0.275 0 0.06 0.275 0 0.08 0.275 0 0.1 0.275 0 0 0.28 0 0.02 0.28 0 0.04 0.28 0 0.06 0.28 0 0.08 0.28 0 0.1 0.28 0 0 0.285 0 0.02 0.285 0 0.04 0.285 0 0.06 0.285 0 0.08 0.285 0 0.1 0.285 0 0 0.29 0 0.02 0.29 0 0.04 0.29 0 0.06 0.29 0 0.08 0.29 0 0.1 0.29 0 0 0.295 0 0.02 0.295 0 0.04 0.295 0 0.06 0.295 0 0.08 0.295 0 0.1 0.295 0 0 0.3 0 0.02 0.3 0 0.04 0.3 0 0.06 0.3 0 0.08 0.3 0 0.1 0.3 0 0 0.305 0 0.02 0.305 0 0.04 0.305 0 0.06 0.305 0 0.08 0.305 0 0.1 0.305 0 0 0.31 0 0.02 0.31 0 0.04 0.31 0 0.06 0.31 0 0.08 0.31 0 0.1 0.31 0 0 0.315 0 0.02 0.315 0 0.04 0.315 0 0.06 0.315 0 0.08 0.315 0 0.1 0.315 0 0 0.32 0 0.02 0.32 0 0.04 0.32 0 0.06 0.32 0 0.08 0.32 0 0.1 0.32 0 0 0.325 0 0.02 0.325 0 0.04 0.325 0 0.06 0.325 0 0.08 0.325 0 0.1 0.325 0 0 0.33 0 0.02 0.33 0 0.04 0.33 0 0.06 0.33 0 0.08 0.33 0 0.1 0.33 0 0 0.335 0 0.02 0.335 0 0.04 0.335 0 0.06 0.335 0 0.08 0.335 0 0.1 0.335 0 0 0.34 0 0.02 0.34 0 0.04 0.34 0 0.06 0.34 0 0.08 0.34 0 0.1 0.34 0 0 0.345 0 0.02 0.345 0 0.04 0.345 0 0.06 0.345 0 0.08 0.345 0 0.1 0.345 0 0 0.35 0 0.02 0.35 0 0.04 0.35 0 0.06 0.35 0 0.08 0.35 0 0.1 0.35 0 0 0.355 0 0.02 0.355 0 0.04 0.355 0 0.06 0.355 0 0.08 0.355 0 0.1 0.355 0 0 0.36 0 0.02 0.36 0 0.04 0.36 0 0.06 0.36 0 0.08 0.36 0 0.1 0.36 0 0 0.365 0 0.02 0.365 0 0.04 0.365 0 0.06 0.365 0 0.08 0.365 0 0.1 0.365 0 0 0.37 0 0.02 0.37 0 0.04 0.37 0 0.06 0.37 0 0.08 0.37 0 0.1 0.37 0 0 0.375 0 0.02 0.375 0 0.04 0.375 0 0.06 0.375 0 0.08 0.375 0 0.1 0.375 0 0 0.38 0 0.02 0.38 0 0.04 0.38 0 0.06 0.38 0 0.08 0.38 0 0.1 0.38 0 0 0.385 0 0.02 0.385 0 0.04 0.385 0 0.06 0.385 0 0.08 0.385 0 0.1 0.385 0 0 0.39 0 0.02 0.39 0 0.04 0.39 0 0.06 0.39 0 0.08 0.39 0 0.1 0.39 0 0 0.395 0 0.02 0.395 0 0.04 0.395 0 0.06 0.395 0 0.08 0.395 0 0.1 0.395 0 0 0.4 0 0.02 0.4 0 0.04 0.4 0 0.06 0.4 0 0.08 0.4 0 0.1 0.4 0 0 0.405 0 0.02 0.405 0 0.04 0.405 0 0.06 0.405 0 0.08 0.405 0 0.1 0.405 0 0 0.41 0 0.02 0.41 0 0.04 0.41 0 0.06 0.41 0 0.08 0.41 0 0.1 0.41 0 0 0.415 0 0.02 0.415 0 0.04 0.415 0 0.06 0.415 0 0.08 0.415 0 0.1 0.415 0 0 0.42 0 0.02 0.42 0 0.04 0.42 0 0.06 0.42 0 0.08 0.42 0 0.1 0.42 0 0 0.425 0 0.02 0.425 0 0.04 0.425 0 0.06 0.425 0 0.08 0.425 0 0.1 0.425 0 0 0.43 0 0.02 0.43 0 0.04 0.43 0 0.06 0.43 0 0.08 0.43 0 0.1 0.43 0 0 0.435 0 0.02 0.435 0 0.04 0.435 0 0.06 0.435 0 0.08 0.435 0 0.1 0.435 0 0 0.44 0 0.02 0.44 0 0.04 0.44 0 0.06 0.44 0 0.08 0.44 0 0.1 0.44 0 0 0.445 0 0.02 0.445 0 0.04 0.445 0 0.06 0.445 0 0.08 0.445 0 0.1 0.445 0 0 0.45 0 0.02 0.45 0 0.04 0.45 0 0.06 0.45 0 0.08 0.45 0 0.1 0.45 0 0 0.455 0 0.02 0.455 0 0.04 0.455 0 0.06 0.455 0 0.08 0.455 0 0.1 0.455 0 0 0.46 0 0.02 0.46 0 0.04 0.46 0 0.06 0.46 0 0.08 0.46 0 0.1 0.46 0 0 0.465 0 0.02 0.465 0 0.04 0.465 0 0.06 0.465 0 0.08 0.465 0 0.1 0.465 0 0 0.47 0 0.02 0.47 0 0.04 0.47 0 0.06 0.47 0 0.08 0.47 0 0.1 0.47 0 0 0.475 0 0.02 0.475 0 0.04 0.475 0 0.06 0.475 0 0.08 0.475 0 0.1 0.475 0 0 0.48 0 0.02 0.48 0 0.04 0.48 0 0.06 0.48 0 0.08 0.48 0 0.1 0.48 0 0 0.485 0 0.02 0.485 0 0.04 0.485 0 0.06 0.485 0 0.08 0.485 0 0.1 0.485 0 0 0.49 0 0.02 0.49 0 0.04 0.49 0 0.06 0.49 0 0.08 0.49 0 0.1 0.49 0 0 0.495 0 0.02 0.495 0 0.04 0.495 0 0.06 0.495 0 0.08 0.495 0 0.1 0.495 0 0 0.5 0 0.02 0.5 0 0.04 0.5 0 0.06 0.5 0 0.08 0.5 0 0.1 0.5 0 0 0.505 0 0.02 0.505 0 0.04 0.505 0 0.06 0.505 0 0.08 0.505 0 0.1 0.505 0 0 0.51 0 0.02 0.51 0 0.04 0.51 0 0.06 0.51 0 0.08 0.51 0 0.1 0.51 0 0 0.515 0 0.02 0.515 0 0.04 0.515 0 0.06 0.515 0 0.08 0.515 0 0.1 0.515 0 0 0.52 0 0.02 0.52 0 0.04 0.52 0 0.06 0.52 0 0.08 0.52 0 0.1 0.52 0 0 0.525 0 0.02 0.525 0 0.04 0.525 0 0.06 0.525 0 0.08 0.525 0 0.1 0.525 0 0 0.53 0 0.02 0.53 0 0.04 0.53 0 0.06 0.53 0 0.08 0.53 0 0.1 0.53 0 0 0.535 0 0.02 0.535 0 0.04 0.535 0 0.06 0.535 0 0.08 0.535 0 0.1 0.535 0 0 0.54 0 0.02 0.54 0 0.04 0.54 0 0.06 0.54 0 0.08 0.54 0 0.1 0.54 0 0 0.545 0 0.02 0.545 0 0.04 0.545 0 0.06 0.545 0 0.08 0.545 0 0.1 0.545 0 0 0.55 0 0.02 0.55 0 0.04 0.55 0 0.06 0.55 0 0.08 0.55 0 0.1 0.55 0 0 0.555 0 0.02 0.555 0 0.04 0.555 0 0.06 0.555 0 0.08 0.555 0 0.1 0.555 0 0 0.56 0 0.02 0.56 0 0.04 0.56 0 0.06 0.56 0 0.08 0.56 0 0.1 0.56 0 0 0.565 0 0.02 0.565 0 0.04 0.565 0 0.06 0.565 0 0.08 0.565 0 0.1 0.565 0 0 0.57 0 0.02 0.57 0 0.04 0.57 0 0.06 0.57 0 0.08 0.57 0 0.1 0.57 0 0 0.575 0 0.02 0.575 0 0.04 0.575 0 0.06 0.575 0 0.08 0.575 0 0.1 0.575 0 0 0.58 0 0.02 0.58 0 0.04 0.58 0 0.06 0.58 0 0.08 0.58 0 0.1 0.58 0 0 0.585 0 0.02 0.585 0 0.04 0.585 0 0.06 0.585 0 0.08 0.585 0 0.1 0.585 0 0 0.59 0 0.02 0.59 0 0.04 0.59 0 0.06 0.59 0 0.08 0.59 0 0.1 0.59 0 0 0.595 0 0.02 0.595 0 0.04 0.595 0 0.06 0.595 0 0.08 0.595 0 0.1 0.595 0 0 0.6 0 0.02 0.6 0 0.04 0.6 0 0.06 0.6 0 0.08 0.6 0 0.1 0.6 0 0 0.605 0 0.02 0.605 0 0.04 0.605 0 0.06 0.605 0 0.08 0.605 0 0.1 0.605 0 0 0.61 0 0.02 0.61 0 0.04 0.61 0 0.06 0.61 0 0.08 0.61 0 0.1 0.61 0 0 0.615 0 0.02 0.615 0 0.04 0.615 0 0.06 0.615 0 0.08 0.615 0 0.1 0.615 0 0 0.62 0 0.02 0.62 0 0.04 0.62 0 0.06 0.62 0 0.08 0.62 0 0.1 0.62 0 0 0.625 0 0.02 0.625 0 0.04 0.625 0 0.06 0.625 0 0.08 0.625 0 0.1 0.625 0 0 0.63 0 0.02 0.63 0 0.04 0.63 0 0.06 0.63 0 0.08 0.63 0 0.1 0.63 0 0 0.635 0 0.02 0.635 0 0.04 0.635 0 0.06 0.635 0 0.08 0.635 0 0.1 0.635 0 0 0.64 0 0.02 0.64 0 0.04 0.64 0 0.06 0.64 0 0.08 0.64 0 0.1 0.64 0 0 0.645 0 0.02 0.645 0 0.04 0.645 0 0.06 0.645 0 0.08 0.645 0 0.1 0.645 0 0 0.65 0 0.02 0.65 0 0.04 0.65 0 0.06 0.65 0 0.08 0.65 0 0.1 0.65 0 0 0.655 0 0.02 0.655 0 0.04 0.655 0 0.06 0.655 0 0.08 0.655 0 0.1 0.655 0 0 0.66 0 0.02 0.66 0 0.04 0.66 0 0.06 0.66 0 0.08 0.66 0 0.1 0.66 0 0 0.665 0 0.02 0.665 0 0.04 0.665 0 0.06 0.665 0 0.08 0.665 0 0.1 0.665 0 0 0.67 0 0.02 0.67 0 0.04 0.67 0 0.06 0.67 0 0.08 0.67 0 0.1 0.67 0 0 0.675 0 0.02 0.675 0 0.04 0.675 0 0.06 0.675 0 0.08 0.675 0 0.1 0.675 0 0 0.68 0 0.02 0.68 0 0.04 0.68 0 0.06 0.68 0 0.08 0.68 0 0.1 0.68 0 0 0.685 0 0.02 0.685 0 0.04 0.685 0 0.06 0.685 0 0.08 0.685 0 0.1 0.685 0 0 0.69 0 0.02 0.69 0 0.04 0.69 0 0.06 0.69 0 0.08 0.69 0 0.1 
[...]
			<PointData Scalars="VitesseX">
				<DataArray Name="VitesseX" type="Float32" format="ascii">
 0 6.71436e-15 -1.49726e-14 -7.05738e-15 -3.16061e-14 0 0 3.18756e-15 -1.01007e-14 -1.07616e-14 -3.06003e-14 0 0 -1.27141e-15 -3.66547e-15 -1.56778e-14 -2.82661e-14 0 0 -4.17224e-15 -4.67114e-16 -1.95584e-14 -2.56595e-14 0 0 -5.47603e-15 -2.97232e-15 -2.02362e-14 -2.2384e-14 0 0 -3.52704e-15 -5.41708e-15 -2.47847e-14 -1.70757e-14 0 0 -3.03015e-15 -1.1799e-14 -2.43838e-14 -1.74526e-14 0 0 4.82046e-15 -3.73369e-14 7.37439e-15 -4.57061e-14 0 0 2.92434e-15 -3.45425e-14 -2.339e-15 -4.41179e-14 0 0 -1.43206e-14 -1.04745e-14 -3.77667e-14 -1.8897e-14 0 0 -2.81399e-14 5.51558e-15 -5.16739e-14 -1.18977e-14 0 0 -1.79737e-14 -1.02512e-14 -4.18961e-14 -1.2439e-14 0 0 2.57676e-15 -4.4561e-14 -1.82385e-14 -1.49443e-14 0 0 -5.12129e-15 -4.15445e-14 -1.77966e-14 -1.01142e-14 0 0 -1.13913e-14 -4.13847e-14 -1.58399e-14 -1.25722e-15 0 0 -2.04808e-14 -3.60323e-14 -6.68643e-15 -5.51643e-15 0 0 -4.84817e-15 -5.69176e-14 3.83764e-14 -3.87841e-14 0 0 1.28144e-15 -4.23443e-14 1.38006e-14 -7.48886e-15 0 0 -2.69622e-14 1.51055e-14 -4.95169e-14 3.0621e-14 0 0 -1.46562e-14 -1.1832e-14 -1.45657e-14 -3.5236e-15 0 0 5.2716e-15 -5.19841e-14 4.65131e-14 -4.86676e-14 0 0 -1.28019e-14 -1.89149e-14 9.23076e-15 -2.42797e-14 0 0 -3.84391e-14 2.625e-14 -5.70663e-14 1.91361e-14 0 0 -5.84204e-14 6.44287e-14 -9.15146e-14 3.47608e-14 0 0 -1.48153e-14 -8.69159e-15 -1.06353e-14 -3.08952e-14 0 0 1.49443e-14 -7.51327e-14 4.52977e-14 -8.11196e-14 0 0 -2.56036e-16 -3.55398e-14 -2.61487e-14 -3.79338e-14 0 0 -1.23359e-15 -2.52103e-14 -5.55996e-14 -1.74987e-14 0 0 7.99581e-15 -5.71715e-14 -2.83249e-14 -2.2398e-14 0 0 1.08973e-14 -7.04966e-14 -1.80578e-14 -1.22825e-14 0 0 -2.18654e-14 -2.02109e-14 -6.42437e-14 2.38209e-14 0 0 -2.52517e-14 2.24873e-15 -6.52693e-14 -1.4132e-14 0 0 8.36536e-16 -1.57541e-14 -3.30982e-14 -7.62062e-14 0 0 6.65879e-15 -1.28909e-14 -3.76196e-14 -9.21428e-14 0 0 -2.38564e-14 6.1735e-14 -1.28278e-13 -3.14879e-14 0 0 3.25484e-15 4.49856e-14 -1.36137e-13 1.25254e-14 0 0 7.15054e-14 -5.20893e-14 -6.14833e-14 6.00043e-15 0 0 9.72897e-14 -1.06052e-13 -2.62622e-14 4.80647e-14 0 0 3.63791e-14 -3.94504e-14 -8.18121e-14 1.03705e-13 0 0 -1.00892e-14 6.07951e-15 -8.99847e-14 6.30926e-14 0 0 2.38032e-14 -5.87152e-14 -4.16087e-14 2.10158e-14 0 0 -3.72623e-14 3.55161e-14 -1.14728e-13 3.63443e-14 0 0 9.64911e-15 -1.4502e-14 -3.95914e-14 -2.23876e-14 0 0 5.94423e-14 -6.74589e-14 2.47279e-14 -4.80736e-14 0 0 -3.56224e-14 5.8451e-14 -2.6441e-14 -3.80719e-14 0 0 -4.42622e-14 6.63883e-14 6.96482e-15 -5.82949e-14 0 0 -4.57016e-14 7.79082e-14 2.15491e-14 -6.11874e-14 0 0 1.05872e-14 9.15052e-15 8.58993e-14 -6.73357e-14 0 0 2.05108e-14 8.30203e-16 1.1487e-13 -5.56067e-14 0 0 -9.8249e-14 1.78143e-13 -1.92778e-14 3.63602e-14 0 0 -1.05268e-13 1.18315e-13 6.53761e-14 -1.08944e-14 0 0 -1.10512e-13 4.36161e-14 1.32839e-13 -5.82753e-14 0 0 -1.33333e-13 8.03513e-14 4.03811e-14 -1.00914e-14 0 0 -1.01297e-13 2.10899e-14 4.99821e-14 -2.279e-14 0 0 -1.04274e-14 -1.33408e-13 1.86964e-13 -1.56962e-13 0 0 -1.80133e-14 -1.45739e-13 2.24113e-13 -2.77578e-13 0 0 -1.80484e-13 9.45066e-14 4.06071e-15 -1.89942e-13 0 0 -1.90777e-13 1.87749e-13 -1.63149e-13 -6.02295e-14 0 0 -5.7739e-14 2.68841e-14 -1.30596e-13 -2.19496e-14 0 0 -5.21806e-14 -6.45653e-14 -7.99903e-14 -5.18806e-14 0 0 -1.52425e-13 3.19788e-14 -1.91058e-13 -4.66004e-14 0 0 -1.32124e-13 4.33066e-14 -2.94581e-13 -4.61206e-14 0 0 -2.62796e-14 -4.4472e-14 -2.73928e-13 -9.92421e-14 0 0 -1.0733e-14 -7.53105e-15 -2.63639e-13 -1.59371e-13 0 0 1.86084e-14 -3.65326e-14 -1.30797e-13 -3.09426e-13 0 0 9.07472e-14 -1.23911e-13 -2.08709e-14 -3.79418e-13 0 0 -4.86157e-14 6.08016e-14 -2.38432e-13 -1.67277e-13 0 0 -1.45995e-13 6.0114e-15 -1.18201e-13 -1.80039e-13 0 0 -1.21661e-13 -1.49996e-13 1.8063e-13 -3.84512e-13 0 0 -1.69125e-13 -3.15071e-14 3.21013e-14 -3.6121e-13 0 0 -1.23816e-13 3.28588e-14 -2.16012e-13 -2.4391e-13 0 0 -8.76244e-14 5.5429e-14 -4.72668e-13 -8.50433e-14 0 0 -9.69093e-14 3.03672e-14 -3.90046e-13 -1.42481e-13 0 0 -8.82774e-14 -2.22511e-13 1.37635e-14 -4.68777e-13 0 0 -1.27251e-13 -2.58895e-13 8.48879e-14 -4.98825e-13 0 0 -2.83381e-13 -1.84762e-13 2.29457e-14 -4.35997e-13 0 0 -3.92071e-13 -9.97339e-14 -4.00636e-14 -3.006e-13 0 0 -4.20262e-13 -8.57609e-14 -3.25114e-14 -1.97331e-13 0 0 -4.41913e-13 -1.11417e-13 3.20058e-14 -1.47878e-13 0 0 -4.51316e-13 -1.49676e-13 1.21505e-13 -1.50574e-13 0 0 -4.7489e-13 -1.54528e-13 1.59863e-13 -2.05106e-13 0 0 -5.68004e-13 -1.19789e-13 1.54217e-13 -2.74792e-13 0 0 -5.60721e-13 -8.68675e-14 9.85292e-14 -2.63998e-13 0 0 -5.18564e-13 -8.61836e-14 4.54022e-14 -2.45238e-13 0 0 -4.25185e-13 -1.05312e-13 8.08804e-15 -2.3989e-13 0 0 -3.41941e-13 -1.67713e-13 -6.85577e-14 -1.9232e-13 0 0 -2.79674e-13 -2.23137e-13 -1.7977e-13 -1.22132e-13 0 0 -2.37226e-13 -2.02531e-13 -2.76203e-13 -7.22868e-14 0 0 -2.02474e-13 -1.73971e-13 -3.52176e-13 3.593e-15 0 0 -1.62088e-13 -1.85314e-13 -3.41504e-13 -2.01111e-14 0 0 -1.18264e-13 -2.38756e-13 -3.07084e-13 -7.59938e-14 0 0 -1.07477e-13 -3.16276e-13 -2.18769e-13 -1.98978e-13 0 0 -1.12288e-13 -3.32705e-13 -1.12598e-13 -3.33301e-13 0 0 -1.40808e-13 -3.18814e-13 -9.92434e-14 -4.48482e-13 0 0 -2.10634e-13 -2.56827e-13 -1.24996e-13 -5.38087e-13 0 0 -2.92646e-13 -1.70716e-13 -2.16413e-13 -6.09187e-13 0 0 -3.61309e-13 -8.47915e-14 -3.23069e-13 -6.02494e-13 0 0 -3.57517e-13 -3.5242e-14 -4.16162e-13 -5.67437e-13 0 0 -3.20515e-13 -4.63645e-14 -4.82068e-13 -5.04542e-13 0 0 -2.46527e-13 -9.67223e-14 -5.07533e-13 -4.44465e-13 0 0 -1.75668e-13 -1.63397e-13 -5.25074e-13 -3.59572e-13 0 0 -1.15535e-13 -2.2077e-13 -5.50824e-13 -2.46515e-13 0 0 -6.75518e-14 -2.63028e-13 -5.52857e-13 -1.3886e-13 0 0 -6.71366e-14 -3.09581e-13 -5.46647e-13 -9.35824e-14 0 0 -8.33732e-14 -3.47096e-13 -5.20223e-13 -7.83733e-14 0 0 -1.11416e-13 -3.80056e-13 -4.48234e-13 -8.05021e-14 0 0 -1.28091e-13 -4.65252e-13 -2.71354e-13 -1.29777e-13 0 0 -1.50571e-13 -4.58125e-13 -2.38397e-13 -1.719e-13 0 0 -1.90962e-13 -4.0145e-13 -2.7999e-13 -1.78617e-13 0 0 -2.06925e-13 -3.50781e-13 -3.15405e-13 -1.55458e-13 0 0 -2.00603e-13 -2.60786e-13 -4.21733e-13 -1.06216e-14 0 0 -1.86204e-13 -2.45943e-13 -4.29447e-13 6.7242e-14 0 0 -1.43472e-13 -2.47961e-13 -3.84462e-13 6.29392e-14 0 0 -1.33555e-13 -2.3778e-13 -3.49845e-13 1.08925e-13 0 0 -1.23719e-13 -2.30905e-13 -2.53531e-13 1.03876e-13 0 0 -1.36117e-13 -2.05195e-13 -1.02164e-13 -6.2574e-15 0 0 -1.86096e-13 -1.62395e-13 1.77756e-14 -1.27842e-13 0 0 -2.46517e-13 -1.3557e-13 2.06738e-14 -1.22901e-13 0 0 -2.65771e-13 -1.35559e-13 1.69714e-14 -1.15353e-13 0 0 -2.66262e-13 -1.34029e-13 -5.0721e-15 -1.22278e-13 0 0 -2.51382e-13 -1.53622e-13 -5.89393e-14 -7.44819e-14 0 0 -1.76111e-13 -2.22579e-13 -2.39923e-14 -6.48519e-14 0 0 -9.13883e-14 -2.31364e-13 1.88238e-14 -7.77688e-14 0 0 -3.54547e-14 -2.09973e-13 4.10402e-14 -3.99159e-14 0 0 9.33585e-15 -2.21237e-13 1.25796e-13 -1.28899e-14 0 0 1.27891e-14 -1.96597e-13 1.3422e-13 -3.87294e-14 0 0 -9.77417e-15 -6.28351e-14 6.21713e-14 -1.56595e-16 0 0 -1.09338e-13 2.05441e-13 -1.61732e-13 1.65115e-13 0 0 -1.35417e-13 2.58542e-13 -1.90967e-13 1.73733e-13 0 0 -1.29507e-13 2.14773e-13 -1.48214e-13 1.36797e-13 0 0 -1.27076e-13 5.14444e-14 -1.02769e-14 4.16517e-14 0 0 -1.74132e-13 -3.25842e-15 -7.13701e-15 6.41032e-14 0 0 -4.74932e-14 -3.14655e-13 1.77658e-13 1.36132e-14 0 0 2.21973e-14 -5.07605e-13 3.45496e-13 -1.3029e-13 0 0 -2.04616e-13 -1.89478e-13 4.49708e-14 2.75581e-14 0 0 -2.28088e-13 -3.32268e-14 -3.2055e-13 1.85232e-13 0 0 -1.73376e-13 -9.54696e-14 -2.50491e-13 7.93481e-14 0 0 -7.9355e-14 -2.15762e-13 -1.02919e-13 -9.75446e-14 0 0 -6.09186e-14 -2.60891e-13 -2.13544e-14 -2.22533e-13 0 0 -8.69454e-14 -2.09804e-13 -4.51776e-14 -2.45288e-13 0 0 -1.40599e-13 -1.04827e-13 -1.10452e-13 -2.19579e-13 0 0 -1.4502e-13 -7.52964e-14 -1.63856e-13 -2.0908e-13 0 0 -1.15955e-13 -9.76243e-14 -2.25536e-13 -1.57517e-13 0 0 -9.06052e-14 -1.62947e-13 -2.01425e-13 -9.7993e-14 0 0 -9.61557e-14 -1.89709e-13 -2.04047e-13 -5.07187e-14 0 0 -1.04055e-13 -2.03934e-13 -2.38123e-13 -2.38924e-14 0 0 -9.99997e-14 -2.43179e-13 -2.25432e-13 -8.56861e-14 0 0 -1.05277e-13 -2.2439e-13 -2.8068e-13 -1.80769e-13 0 0 -1.13833e-13 -2.3953e-13 -3.47857e-13 -1.8113e-13 0 0 -1.08078e-13 -2.49681e-13 -4.07898e-13 -2.20142e-13 0 0 -1.07694e-13 -2.69568e-13 -4.21832e-13 -4.2185e-13 0 0 -1.15768e-13 -2.72434e-13 -4.24569e-13 -6.26187e-13 0 0 -7.6336e-14 -3.13525e-13 -4.10153e-13 -5.79517e-13 0 0 -5.90948e-14 -3.38962e-13 -3.72375e-13 -3.13651e-13 0 0 -1.06878e-13 -2.75214e-13 -3.19931e-13 1.29246e-13 0 0 -1.4195e-13 -2.73623e-13 -8.52784e-14 3.09208e-13 0 0 -1.91206e-13 -2.22868e-13 -1.74559e-13 5.26839e-13 0 0 -2.31413e-13 -8.7899e-14 -2.15209e-13 4.00096e-13 0 0 -1.82927e-13 -1.46537e-13 4.20489e-14 -9.76272e-14 0 0 -1.04737e-13 -2.08777e-13 1.06696e-13 -1.98262e-13 0 0 -5.43507e-14 -1.39378e-13 -1.20367e-13 1.17618e-13 0 0 -8.36111e-14 -1.0117e-13 -1.34858e-13 1.66711e-13 0 0 -2.08557e-13 -2.15476e-15 -5.1635e-14 1.03977e-14 0 0 -2.07993e-13 1.56117e-14 -9.25374e-15 -5.91825e-14 0 0 -7.77087e-14 -1.45582e-13 8.97941e-14 -1.27073e-13 0 0 -5.60808e-14 -1.72459e-13 7.03702e-14 -3.56203e-14 0 0 -9.80053e-14 -9.26535e-14 2.47377e-15 7.90444e-14 0 0 -4.01879e-14 -1.75992e-13 8.50911e-14 1.04587e-13 0 0 -1.08903e-13 -9.38805e-14 7.90904e-14 7.34703e-14 0 0 -8.53747e-14 -9.67625e-14 1.80075e-13 -6.08908e-14 0 0 -2.09911e-14 -1.30404e-13 2.14095e-13 -5.62633e-15 0 0 -1.08829e-13 4.68727e-14 8.97177e-14 5.89971e-14 0 0 -7.78909e-14 -1.0948e-14 1.85974e-13 -6.06133e-15 0 0 -1.00934e-13 4.4644e-14 1.41965e-13 9.7563e-14 0 0 -5.09825e-14 3.8771e-14 1.5715e-13 9.71581e-14 0 0 4.12349e-14 -4.30298e-14 2.44115e-13 7.21981e-14 0 0 5.46522e-14 -2.7887e-14 2.36044e-13 1.10524e-13 0 0 -2.41904e-14 1.01797e-13 1.97995e-13 3.00253e-14 0 0 -4.93235e-14 1.89725e-13 1.12325e-13 1.38564e-13 0 0 6.17207e-14 7.99576e-14 1.79599e-13 1.44645e-13 0 0 1.5328e-13 -5.24649e-14 3.70969e-13 -1.41022e-14 0 0 1.0922e-13 7.97406e-14 2.10829e-13 1.30834e-13 0 0 2.4923e-14 2.37595e-13 4.8371e-14 2.10646e-13 0 0 1.32341e-13 1.41107e-14 2.39038e-13 1.72533e-13 0 0 7.67369e-14 3.97285e-14 2.2478e-13 1.83142e-13 0 0 -3.43904e-14 1.92525e-13 6.86743e-14 3.07728e-13 0 0 9.84503e-14 -5.28562e-14 2.54617e-13 1.28869e-13 0 0 1.74973e-13 -4.05326e-14 4.94909e-14 1.41702e-13 0 0 8.03812e-14 3.05514e-13 -4.67878e-13 3.37336e-13 0 0 1.24397e-13 2.80154e-13 -3.39599e-13 -7.11223e-14 0 0 1.87144e-13 2.13528e-14 2.5315e-13 -6.70886e-13 0 0 3.12844e-14 1.09888e-14 4.64749e-13 -8.70089e-13 0 0 -9.58837e-14 1.64821e-13 1.59524e-13 -5.55277e-13 0 0 -7.95573e-14 1.3447e-13 -1.01104e-13 -1.27485e-13 0 0 4.47733e-14 -1.001e-13 2.51733e-14 -9.68526e-14 0 0 4.26045e-14 -5.53527e-14 5.3778e-14 -2.20102e-13 0 0 -1.69812e-13 3.22953e-13 -4.28085e-13 4.80933e-14 0 0 4.42798e-14 -4.7273e-14 -1.6346e-13 -9.17697e-14 0 0 2.47728e-13 -4.35904e-13 1.71086e-13 -1.94235e-13 0 0 2.3751e-13 -3.74102e-13 -6.88008e-14 1.19183e-13 0 0 3.4507e-13 -4.67909e-13 -9.51753e-14 1.96111e-13 0
				</DataArray>
				<DataArray Name="VitesseY" type="Float32" format="ascii">