<?xml version="1.0"?>
<VTKFile type="PolyData">
	<PolyData>
		<Piece NumberOfPoints="1206" NumberOfPolys="1000">
			<Points>
				<DataArray type="Float32" NumberOfComponents="3" format="ascii">
 0 0 0 0.02 0 0 0.04 0 0 0.06 0 0 0.08 0 0 0.1 0 0 0 0.005 0 0.02 0.005 0 0.04 0.005 0 0.06 0.005 0 0.08 0.005 0 0.1 0.005 0 0 0.01 0 0.02 0.01 0 0.04 0.01 0 0.06 0.01 0 0.08 0.01 0 0.1 0.01 0 0 0.015 0 0.02 0.015 0 0.04 0.015 0 0.06 0.015 0 0.08 0.015 0 0.1 0.015 0 0 0.02 0 0.02 0.02 0 0.04 0.02 0 0.06 0.02 0 0.08 0.02 0 0.1 0.02 0 0 0.025 0 0.02 0.025 0 0.04 0.025 0 0.06 0.025 0 0.08 0.025 0 0.1 0.025 0 0 0.03 0 0.02 0.03 0 0.04 0.03 0 0.06 0.03 0 0.08 0.03 0 0.1 0.03 0 0 0.035 0 0.02 0.035 0 0.04 0.035 0 0.06 0.035 0 0.08 0.035 0 0.1 0.035 0 0 0.04 0 0.02 0.04 0 0.04 0.04 0 0.06 0.04 0 0.08 0.04 0 0.1 0.04 0 0 0.045 0 0.02 0.045 0 0.04 0.045 0 0.06 0.045 0 0.08 0.045 0 0.1 0.045 0 0 0.05 0 0.02 0.05 0 0.04 0.05 0 0.06 0.05 0 0.08 0.05 0 0.1 0.05 0 0 0.055 0 0.02 0.055 0 0.04 0.055 0 0.06 0.055 0 0.08 0.055 0 0.1 0.055 0 0 0.06 0 0.02 0.06 0 0.04 0.06 0 0.06 0.06 0 0.08 0.06 0 0.1 0.06 0 0 0.065 0 0.02 0.065 0 0.04 0.065 0 0.06 0.065 0 0.08 0.065 0 0.1 0.065 0 0 0.07 0 0.02 0.07 0 0.04 0.07 0 0.06 0.07 0 0.08 0.07 0 0.1 0.07 0 0 0.075 0 0.02 0.075 0 0.04 0.075 0 0.06 0.075 0 0.08 0.075 0 0.1 0.075 0 0 0.08 0 0.02 0.08 0 0.04 0.08 0 0.06 0.08 0 0.08 0.08 0 0.1 0.08 0 0 0.085 0 0.02 0.085 0 0.04 0.085 0 0.06 0.085 0 0.08 0.085 0 0.1 0.085 0 0 0.09 0 0.02 0.09 0 0.04 0.09 0 0.06 0.09 0 0.08 0.09 0 0.1 0.09 0 0 0.095 0 0.02 0.095 0 0.04 0.095 0 0.06 0.095 0 0.08 0.095 0 0.1 0.095 0 0 0.1 0 0.02 0.1 0 0.04 0.1 0 0.06 0.1 0 0.08 0.1 0 0.1 0.1 0 0 0.105 0 0.02 0.105 0 0.04 0.105 0 0.06 0.105 0 0.08 0.105 0 0.1 0.105 0 0 0.11 0 0.02 0.11 0 0.04 0.11 0 0.06 0.11 0 0.08 0.11 0 0.1 0.11 0 0 0.115 0 0.02 0.115 0 0.04 0.115 0 0.06 0.115 0 0.08 0.115 0 0.1 0.115 0 0 0.12 0 0.02 0.12 0 0.04 0.12 0 0.06 0.12 0 0.08 0.12 0 0.1 0.12 0 0 0.125 0 0.02 0.125 0 0.04 0.125 0 0.06 0.125 0 0.08 0.125 0 0.1 0.125 0 0 0.13 0 0.02 0.13 0 0.04 0.13 0 0.06 0.13 0 0.08 0.13 0 0.1 0.13 0 0 0.135 0 0.02 0.135 0 0.04 0.135 0 0.06 0.135 0 0.08 0.135 0 0.1 0.135 0 0 0.14 0 0.02 0.14 0 0.04 0.14 0 0.06 0.14 0 0.08 0.14 0 0.1 0.14 0 0 0.145 0 0.02 0.145 0 0.04 0.145 0 0.06 0.145 0 0.08 0.145 0 0.1 0.145 0 0 0.15 0 0.02 0.15 0 0.04 0.15 0 0.06 0.15 0 0.08 0.15 0 0.1 0.15 0 0 0.155 0 0.02 0.155 0 0.04 0.155 0 0.06 0.155 0 0.08 0.155 0 0.1 0.155 0 0 0.16 0 0.02 0.16 0 0.04 0.16 0 0.06 0.16 0 0.08 0.16 0 0.1 0.16 0 0 0.165 0 0.02 0.165 0 0.04 0.165 0 0.06 0.165 0 0.08 0.165 0 0.1 0.165 0 0 0.17 0 0.02 0.17 0 0.04 0.17 0 0.06 0.17 0 0.08 0.17 0 0.1 0.17 0 0 0.175 0 0.02 0.175 0 0.04 0.175 0 0.06 0.175 0 0.08 0.175 0 0.1 0.175 0 0 0.18 0 0.02 0.18 0 0.04 0.18 0 0.06 0.18 0 0.08 0.18 0 0.1 0.18 0 0 0.185 0 0.02 0.185 0 0.04 0.185 0 0.06 0.185 0 0.08 0.185 0 0.1 0.185 0 0 0.19 0 0.02 0.19 0 0.04 0.19 0 0.06 0.19 0 0.08 0.19 0 0.1 0.19 0 0 0.195 0 0.02 0.195 0 0.04 0.195 0 0.06 0.195 0 0.08 0.195 0 0.1 0.195 0 0 0.2 0 0.02 0.2 0 0.04 0.2 0 0.06 0.2 0 0.08 0.2 0 0.1 0.2 0 0 0.205 0 0.02 0.205 0 0.04 0.205 0 0.06 0.205 0 0.08 0.205 0 0.1 0.205 0 0 0.21 0 0.02 0.21 0 0.04 0.21 0 0.06 0.21 0 0.08 0.21 0 0.1 0.21 0 0 0.215 0 0.02 0.215 0 0.04 0.215 0 0.06 0.215 0 0.08 0.215 0 0.1 0.215 0 0 0.22 0 0.02 0.22 0 0.04 0.22 0 0.06 0.22 0 0.08 0.22 0 0.1 0.22 0 0 0.225 0 0.02 0.225 0 0.04 0.225 0 0.06 0.225 0 0.08 0.225 0 0.1 0.225 0 0 0.23 0 0.02 0.23 0 0.04 0.23 0 0.06 0.23 0 0.08 0.23 0 0.1 0.23 0 0 0.235 0 0.02 0.235 0 0.04 0.235 0 0.06 0.235 0 0.08 0.235 0 0.1 0.235 0 0 0.24 0 0.02 0.24 0 0.04 0.24 0 0.06 0.24 0 0.08 0.24 0 0.1 0.24 0 0 0.245 0 0.02 0.245 0 0.04 0.245 0 0.06 0.245 0 0.08 0.245 0 0.1 0.245 0 0 0.25 0 0.02 0.25 0 0.04 0.25 0 0.06 0.25 0 0.08 0.25 0 0.1 0.25 0 0 0.255 0 0.02 0.255 0 0.04 0.255 0 0.06 0.255 0 0.08 0.255 0 0.1 0.255 0 0 0.26 0 0.02 0.26 0 0.04 0.26 0 0.06 0.26 0 0.08 0.26 0 0.1 0.26 0 0 0.265 0 0.02 0.265 0 0.04 0.265 0 0.06 0.265 0 0.08 0.265 0 0.1 0.265 0 0 0.27 0 0.02 0.27 0 0.04 0.27 0 0.06 0.27 0 0.08 0.27 0 0.1 0.27 0 0 0.275 0 0.02 0.275 0 0.04 0.275 0 0.06 0.275 0 0.08 0.275 0 0.1 0.275 0 0 0.28 0 0.02 0.28 0 0.04 0.28 0 0.06 0.28 0 0.08 0.28 0 0.1 0.28 0 0 0.285 0 0.02 0.285 0 0.04 0.285 0 0.06 0.285 0 0.08 0.285 0 0.1 0.285 0 0 0.29 0 0.02 0.29 0 0.04 0.29 0 0.06 0.29 0 0.08 0.29 0 0.1 0.29 0 0 0.295 0 0.02 0.295 0 0.04 0.295 0 0.06 0.295 0 0.08 0.295 0 0.1 0.295 0 0 0.3 0 0.02 0.3 0 0.04 0.3 0 0.06 0.3 0 0.08 0.3 0 0.1 0.3 0 0 0.305 0 0.02 0.305 0 0.04 0.305 0 0.06 0.305 0 0.08 0.305 0 0.1 0.305 0 0 0.31 0 0.02 0.31 0 0.04 0.31 0 0.06 0.31 0 0.08 0.31 0 0.1 0.31 0 0 0.315 0 0.02 0.315 0 0.04 0.315 0 0.06 0.315 0 0.08 0.315 0 0.1 0.315 0 0 0.32 0 0.02 0.32 0 0.04 0.32 0 0.06 0.32 0 0.08 0.32 0 0.1 0.32 0 0 0.325 0 0.02 0.325 0 0.04 0.325 0 0.06 0.325 0 0.08 0.325 0 0.1 0.325 0 0 0.33 0 0.02 0.33 0 0.04 0.33 0 0.06 0.33 0 0.08 0.33 0 0.1 0.33 0 0 0.335 0 0.02 0.335 0 0.04 0.335 0 0.06 0.335 0 0.08 0.335 0 0.1 0.335 0 0 0.34 0 0.02 0.34 0 0.04 0.34 0 0.06 0.34 0 0.08 0.34 0 0.1 0.34 0 0 0.345 0 0.02 0.345 0 0.04 0.345 0 0.06 0.345 0 0.08 0.345 0 0.1 0.345 0 0 0.35 0 0.02 0.35 0 0.04 0.35 0 0.06 0.35 0 0.08 0.35 0 0.1 0.35 0 0 0.355 0 0.02 0.355 0 0.04 0.355 0 0.06 0.355 0 0.08 0.355 0 0.1 0.355 0 0 0.36 0 0.02 0.36 0 0.04 0.36 0 0.06 0.36 0 0.08 0.36 0 0.1 0.36 0 0 0.365 0 0.02 0.365 0 0.04 0.365 0 0.06 0.365 0 0.08 0.365 0 0.1 0.365 0 0 0.37 0 0.02 0.37 0 0.04 0.37 0 0.06 0.37 0 0.08 0.37 0 0.1 0.37 0 0 0.375 0 0.02 0.375 0 0.04 0.375 0 0.06 0.375 0 0.08 0.375 0 0.1 0.375 0 0 0.38 0 0.02 0.38 0 0.04 0.38 0 0.06 0.38 0 0.08 0.38 0 0.1 0.38 0 0 0.385 0 0.02 0.385 0 0.04 0.385 0 0.06 0.385 0 0.08 0.385 0 0.1 0.385 0 0 0.39 0 0.02 0.39 0 0.04 0.39 0 0.06 0.39 0 0.08 0.39 0 0.1 0.39 0 0 0.395 0 0.02 0.395 0 0.04 0.395 0 0.06 0.395 0 0.08 0.395 0 0.1 0.395 0 0 0.4 0 0.02 0.4 0 0.04 0.4 0 0.06 0.4 0 0.08 0.4 0 0.1 0.4 0 0 0.405 0 0.02 0.405 0 0.04 0.405 0 0.06 0.405 0 0.08 0.405 0 0.1 0.405 0 0 0.41 0 0.02 0.41 0 0.04 0.41 0 0.06 0.41 0 0.08 0.41 0 0.1 0.41 0 0 0.415 0 0.02 0.415 0 0.04 0.415 0 0.06 0.415 0 0.08 0.415 0 0.1 0.415 0 0 0.42 0 0.02 0.42 0 0.04 0.42 0 0.06 0.42 0 0.08 0.42 0 0.1 0.42 0 0 0.425 0 0.02 0.425 0 0.04 0.425 0 0.06 0.425 0 0.08 0.425 0 0.1 0.425 0 0 0.43 0 0.02 0.43 0 0.04 0.43 0 0.06 0.43 0 0.08 0.43 0 0.1 0.43 0 0 0.435 0 0.02 0.435 0 0.04 0.435 0 0.06 0.435 0 0.08 0.435 0 0.1 0.435 0 0 0.44 0 0.02 0.44 0 0.04 0.44 0 0.06 0.44 0 0.08 0.44 0 0.1 0.44 0 0 0.445 0 0.02 0.445 0 0.04 0.445 0 0.06 0.445 0 0.08 0.445 0 0.1 0.445 0 0 0.45 0 0.02 0.45 0 0.04 0.45 0 0.06 0.45 0 0.08 0.45 0 0.1 0.45 0 0 0.455 0 0.02 0.455 0 0.04 0.455 0 0.06 0.455 0 0.08 0.455 0 0.1 0.455 0 0 0.46 0 0.02 0.46 0 0.04 0.46 0 0.06 0.46 0 0.08 0.46 0 0.1 0.46 0 0 0.465 0 0.02 0.465 0 0.04 0.465 0 0.06 0.465 0 0.08 0.465 0 0.1 0.465 0 0 0.47 0 0.02 0.47 0 0.04 0.47 0 0.06 0.47 0 0.08 0.47 0 0.1 0.47 0 0 0.475 0 0.02 0.475 0 0.04 0.475 0 0.06 0.475 0 0.08 0.475 0 0.1 0.475 0 0 0.48 0 0.02 0.48 0 0.04 0.48 0 0.06 0.48 0 0.08 0.48 0 0.1 0.48 0 0 0.485 0 0.02 0.485 0 0.04 0.485 0 0.06 0.485 0 0.08 0.485 0 0.1 0.485 0 0 0.49 0 0.02 0.49 0 0.04 0.49 0 0.06 0.49 0 0.08 0.49 0 0.1 0.49 0 0 0.495 0 0.02 0.495 0 0.04 0.495 0 0.06 0.495 0 0.08 0.495 0 0.1 0.495 0 0 0.5 0 0.02 0.5 0 0.04 0.5 0 0.06 0.5 0 0.08 0.5 0 0.1 0.5 0 0 0.505 0 0.02 0.505 0 0.04 0.505 0 0.06 0.505 0 0.08 0.505 0 0.1 0.505 0 0 0.51 0 0.02 0.51 0 0.04 0.51 0 0.06 0.51 0 0.08 0.51 0 0.1 0.51 0 0 0.515 0 0.02 0.515 0 0.04 0.515 0 0.06 0.515 0 0.08 0.515 0 0.1 0.515 0 0 0.52 0 0.02 0.52 0 0.04 0.52 0 0.06 0.52 0 0.08 0.52 0 0.1 0.52 0 0 0.525 0 0.02 0.525 0 0.04 0.525 0 0.06 0.525 0 0.08 0.525 0 0.1 0.525 0 0 0.53 0 0.02 0.53 0 0.04 0.53 0 0.06 0.53 0 0.08 0.53 0 0.1 0.53 0 0 0.535 0 0.02 0.535 0 0.04 0.535 0 0.06 0.535 0 0.08 0.535 0 0.1 0.535 0 0 0.54 0 0.02 0.54 0 0.04 0.54 0 0.06 0.54 0 0.08 0.54 0 0.1 0.54 0 0 0.545 0 0.02 0.545 0 0.04 0.545 0 0.06 0.545 0 0.08 0.545 0 0.1 0.545 0 0 0.55 0 0.02 0.55 0 0.04 0.55 0 0.06 0.55 0 0.08 0.55 0 0.1 0.55 0 0 0.555 0 0.02 0.555 0 0.04 0.555 0 0.06 0.555 0 0.08 0.555 0 0.1 0.555 0 0 0.56 0 0.02 0.56 0 0.04 0.56 0 0.06 0.56 0 0.08 0.56 0 0.1 0.56 0 0 0.565 0 0.02 0.565 0 0.04 0.565 0 0.06 0.565 0 0.08 0.565 0 0.1 0.565 0 0 0.57 0 0.02 0.57 0 0.04 0.57 0 0.06 0.57 0 0.08 0.57 0 0.1 0.57 0 0 0.575 0 0.02 0.575 0 0.04 0.575 0 0.06 0.575 0 0.08 0.575 0 0.1 0.575 0 0 0.58 0 0.02 0.58 0 0.04 0.58 0 0.06 0.58 0 0.08 0.58 0 0.1 0.58 0 0 0.585 0 0.02 0.585 0 0.04 0.585 0 0.06 0.585 0 0.08 0.585 0 0.1 0.585 0 0 0.59 0 0.02 0.59 0 0.04 0.59 0 0.06 0.59 0 0.08 0.59 0 0.1 0.59 0 0 0.595 0 0.02 0.595 0 0.04 0.595 0 0.06 0.595 0 0.08 0.595 0 0.1 0.595 0 0 0.6 0 0.02 0.6 0 0.04 0.6 0 0.06 0.6 0 0.08 0.6 0 0.1 0.6 0 0 0.605 0 0.02 0.605 0 0.04 0.605 0 0.06 0.605 0 0.08 0.605 0 0.1 0.605 0 0 0.61 0 0.02 0.61 0 0.04 0.61 0 0.06 0.61 0 0.08 0.61 0 0.1 0.61 0 0 0.615 0 0.02 0.615 0 0.04 0.615 0 0.06 0.615 0 0.08 0.615 0 0.1 0.615 0 0 0.62 0 0.02 0.62 0 0.04 0.62 0 0.06 0.62 0 0.08 0.62 0 0.1 0.62 0 0 0.625 0 0.02 0.625 0 0.04 0.625 0 0.06 0.625 0 0.08 0.625 0 0.1 0.625 0 0 0.63 0 0.02 0.63 0 0.04 0.63 0 0.06 0.63 0 0.08 0.63 0 0.1 0.63 0 0 0.635 0 0.02 0.635 0 0.04 0.635 0 0.06 0.635 0 0.08 0.635 0 0.1 0.635 0 0 0.64 0 0.02 0.64 0 0.04 0.64 0 0.06 0.64 0 0.08 0.64 0 0.1 0.64 0 0 0.645 0 0.02 0.645 0 0.04 0.645 0 0.06 0.645 0 0.08 0.645 0 0.1 0.645 0 0 0.65 0 0.02 0.65 0 0.04 0.65 0 0.06 0.65 0 0.08 0.65 0 0.1 0.65 0 0 0.655 0 0.02 0.655 0 0.04 0.655 0 0.06 0.655 0 0.08 0.655 0 0.1 0.655 0 0 0.66 0 0.02 0.66 0 0.04 0.66 0 0.06 0.66 0 0.08 0.66 0 0.1 0.66 0 0 0.665 0 0.02 0.665 0 0.04 0.665 0 0.06 0.665 0 0.08 0.665 0 0.1 0.665 0 0 0.67 0 0.02 0.67 0 0.04 0.67 0 0.06 0.67 0 0.08 0.67 0 0.1 0.67 0 0 0.675 0 0.02 0.675 0 0.04 0.675 0 0.06 0.675 0 0.08 0.675 0 0.1 0.675 0 0 0.68 0 0.02 0.68 0 0.04 0.68 0 0.06 0.68 0 0.08 0.68 0 0.1 0.68 0 0 0.685 0 0.02 0.685 0 0.04 0.685 0 0.06 0.685 0 0.08 0.685 0 0.1 0.685 0 0 0.69 0 0.02 0.69 0 0.04 0.69 0 0.06 0.69 0 0.08 0.69 0 0.1 
[...]
			<PointData Scalars="VitesseX">
				<DataArray Name="VitesseX" type="Float32" format="ascii">
 0 1.28323e-14 -1.45578e-14 2.14591e-14 2.37493e-14 0 0 5.20477e-15 -3.17687e-15 1.58739e-14 2.58163e-14 0 0 -3.52715e-15 8.08461e-15 1.78633e-14 2.29903e-14 0 0 -9.73738e-15 1.4982e-14 2.42908e-14 2.15094e-14 0 0 -1.9081e-14 3.14993e-14 1.37841e-14 3.27621e-14 0 0 -1.95554e-14 3.41776e-14 1.51735e-14 3.35667e-14 0 0 8.82263e-15 -9.91266e-15 6.09877e-14 4.42778e-15 0 0 1.70961e-14 -2.02015e-14 7.18749e-14 -8.80811e-16 0 0 2.28534e-15 -1.52132e-15 5.87081e-14 1.12336e-14 0 0 -1.48884e-14 1.97e-14 3.95435e-14 2.72471e-14 0 0 -8.80149e-15 1.5048e-14 3.15841e-14 4.21405e-14 0 0 1.04796e-14 -1.25028e-14 4.32806e-14 4.35148e-14 0 0 5.4084e-15 -7.77145e-15 3.48202e-14 5.06407e-14 0 0 2.67304e-14 -1.97897e-14 2.58061e-14 6.45274e-14 0 0 2.17578e-14 5.48062e-15 8.4727e-15 6.52214e-14 0 0 3.87913e-15 3.12406e-14 1.55808e-14 3.06168e-14 0 0 4.40485e-15 2.34845e-14 4.49345e-14 -7.57226e-15 0 0 -2.79967e-15 2.96412e-14 4.6165e-14 -9.04305e-15 0 0 -2.76591e-15 4.20312e-14 1.74316e-14 1.29276e-14 0 0 -1.911e-14 7.24722e-14 -1.51235e-14 2.41702e-14 0 0 2.21234e-14 7.69839e-16 6.11834e-14 -2.80282e-14 0 0 3.77324e-14 -4.28528e-14 1.11249e-13 -5.48484e-14 0 0 -2.6947e-14 6.08739e-14 -3.22546e-15 1.22174e-14 0 0 -5.22766e-14 1.33587e-13 -9.9519e-14 5.67643e-14 0 0 9.69081e-15 1.18449e-14 4.60997e-14 -4.26107e-14 0 0 3.99038e-14 -6.54286e-14 1.29519e-13 -8.39049e-14 0 0 1.82724e-14 -3.83856e-14 5.53458e-14 1.28178e-14 0 0 -1.32893e-14 -1.03217e-14 1.02176e-14 8.49431e-14 0 0 1.15773e-14 -5.71442e-14 6.4642e-14 7.1163e-14 0 0 -3.91082e-15 -1.51037e-14 3.2237e-14 5.52023e-14 0 0 7.86759e-15 1.5426e-14 -2.67102e-14 5.31935e-14 0 0 5.03262e-14 -4.18263e-14 4.30094e-14 4.80141e-15 0 0 -2.05716e-14 5.08528e-14 3.88198e-14 -8.00053e-15 0 0 -3.48349e-14 8.48176e-14 2.8136e-14 2.83851e-14 0 0 1.23529e-14 1.60991e-14 9.01952e-14 2.23176e-14 0 0 7.60406e-14 -8.63378e-14 1.90094e-13 -7.33223e-15 0 0 3.66562e-14 -1.5948e-14 1.04731e-13 7.54655e-14 0 0 -2.24591e-14 6.24762e-14 4.35405e-14 1.34384e-13 0 0 -4.05909e-14 5.21712e-14 7.6572e-14 1.29664e-13 0 0 -7.39197e-14 6.84415e-14 1.06635e-13 6.66002e-14 0 0 -6.35115e-14 5.1669e-14 1.21493e-13 2.35465e-14 0 0 -5.72474e-14 6.62629e-14 6.81713e-14 4.68194e-14 0 0 -6.63333e-14 5.31757e-14 8.86951e-14 4.12177e-14 0 0 -4.53212e-15 -7.67204e-14 2.28593e-13 -1.86422e-14 0 0 -4.03688e-14 3.3774e-14 1.12396e-13 2.81478e-14 0 0 -8.38944e-14 1.49843e-13 -1.47155e-14 4.42634e-14 0 0 -7.42913e-14 9.49071e-14 7.36152e-14 -5.41188e-14 0 0 -9.86241e-14 1.26924e-13 3.89251e-15 7.81773e-15 0 0 -2.78964e-14 6.17542e-14 1.30441e-14 1.0723e-14 0 0 5.56399e-14 -4.20513e-14 1.51459e-13 -9.45382e-14 0 0 1.66674e-13 -1.92761e-13 3.3204e-13 -1.95124e-13 0 0 1.77837e-13 -1.71752e-13 3.13031e-13 -1.6568e-13 0 0 -2.64733e-14 1.85033e-13 -1.3918e-14 2.13451e-14 0 0 -1.64669e-13 3.78127e-13 -1.35963e-13 9.19162e-14 0 0 5.60915e-14 4.35673e-14 1.6386e-13 -4.61926e-14 0 0 2.61324e-13 -2.27182e-13 3.23893e-13 -1.1526e-13 0 0 1.33352e-13 -3.4369e-14 1.73549e-13 -7.81843e-14 0 0 -2.85736e-14 1.79225e-13 6.52519e-14 -3.1767e-14 0 0 -2.4558e-14 1.72688e-13 4.58455e-14 6.68432e-14 0 0 6.88299e-14 7.29497e-14 1.32536e-13 1.1364e-13 0 0 9.7138e-14 9.94089e-14 1.11922e-13 1.95572e-13 0 0 -4.22492e-14 2.72666e-13 -3.48658e-14 3.2656e-13 0 0 -7.49107e-14 1.87671e-13 1.53197e-13 2.3565e-13 0 0 1.14844e-14 8.59279e-14 2.94635e-13 1.56732e-13 0 0 1.87714e-14 1.29991e-13 2.58348e-13 1.73789e-13 0 0 -4.51182e-15 2.03184e-13 1.70539e-13 1.82007e-13 0 0 -9.81459e-14 2.94321e-13 9.35483e-14 2.05748e-13 0 0 -2.65057e-14 7.14519e-14 3.70283e-13 5.34948e-14 0 0 5.97507e-14 -1.8717e-14 5.08873e-13 -1.59751e-14 0 0 -3.73084e-14 1.1384e-13 3.05127e-13 2.06006e-13 0 0 -1.95205e-14 9.23273e-14 2.3234e-13 2.79233e-13 0 0 2.85544e-14 1.01635e-13 1.87859e-13 2.11894e-13 0 0 2.71886e-13 -1.82294e-13 3.46325e-13 8.37453e-14 0 0 3.26329e-13 -1.99758e-13 4.24684e-13 -3.3852e-14 0 0 5.03975e-14 8.6017e-14 3.42209e-13 -3.16177e-14 0 0 -4.33116e-14 1.32385e-13 2.37482e-13 1.43681e-13 0 0 3.58237e-14 1.17319e-13 1.60645e-13 2.66282e-13 0 0 3.29231e-13 -2.8014e-13 7.07922e-13 -2.59019e-13 0 0 1.76032e-13 1.61171e-15 4.44026e-13 -2.3754e-13 0 0 1.79298e-13 2.47321e-13 -5.33765e-14 5.21212e-14 0 0 4.40874e-13 -1.69649e-13 1.74323e-13 2.68871e-14 0 0 3.69557e-13 -1.21791e-14 -1.17331e-13 2.88334e-13 0 0 2.0367e-13 2.16443e-13 -3.25291e-13 4.16101e-13 0 0 5.95813e-14 3.44246e-13 -4.01013e-13 5.53963e-13 0 0 6.83329e-14 2.25049e-13 -2.27795e-13 4.61298e-13 0 0 1.45942e-13 -1.70735e-13 2.96722e-13 1.73758e-13 0 0 1.86606e-13 -4.13009e-13 6.31051e-13 -6.6952e-14 0 0 1.01224e-13 -3.75621e-13 5.63353e-13 1.10571e-14 0 0 -1.69721e-13 -6.44333e-14 2.86007e-13 2.21059e-13 0 0 -2.88143e-13 2.48924e-13 -1.45185e-13 4.01949e-13 0 0 -2.58521e-13 2.62386e-13 -2.20654e-13 5.05136e-13 0 0 -5.5801e-14 1.62919e-13 -1.66562e-13 4.61814e-13 0 0 2.89178e-13 -1.34178e-13 -7.62917e-15 3.9346e-13 0 0 4.71536e-13 -3.30308e-13 1.52431e-13 3.28722e-13 0 0 4.54462e-13 -3.05011e-13 1.75656e-13 2.68136e-13 0 0 3.54738e-13 -1.79165e-13 1.49867e-13 2.24096e-13 0 0 1.61114e-13 1.11219e-14 1.08737e-13 2.06939e-13 0 0 -1.17905e-14 1.92608e-13 9.71093e-14 1.69251e-13 0 0 -1.739e-13 3.55294e-13 1.12806e-13 9.25554e-14 0 0 -2.00963e-13 5.00503e-13 1.60972e-13 1.36165e-14 0 0 -1.72724e-13 5.07275e-13 2.25991e-13 -3.51952e-14 0 0 -7.99933e-14 4.79109e-13 2.882e-13 -5.72562e-14 0 0 3.73052e-14 4.11806e-13 3.42179e-13 -5.06491e-14 0 0 1.39815e-13 3.74146e-13 3.73115e-13 7.71129e-15 0 0 2.78413e-13 3.39234e-13 3.91846e-13 7.82333e-14 0 0 2.85326e-13 3.48422e-13 4.46878e-13 8.91096e-14 0 0 1.93579e-13 4.44325e-13 4.60535e-13 1.39251e-14 0 0 -7.60902e-15 6.39702e-13 4.07056e-13 -1.08055e-13 0 0 -6.86917e-14 6.86308e-13 3.29648e-13 -1.74884e-13 0 0 -3.83042e-14 6.31326e-13 2.47453e-13 -1.39773e-13 0 0 2.47279e-14 5.65962e-13 1.09367e-13 -4.24175e-14 0 0 1.18067e-13 4.73432e-13 7.27191e-14 1.14393e-13 0 0 2.27038e-13 3.63629e-13 1.06459e-13 1.84195e-13 0 0 2.97177e-13 3.30711e-13 1.24187e-13 1.88753e-13 0 0 3.26564e-13 3.1641e-13 2.10048e-13 1.47684e-13 0 0 3.21985e-13 3.02237e-13 3.1588e-13 3.88079e-14 0 0 2.93436e-13 3.34961e-13 3.21293e-13 3.13321e-14 0 0 2.23948e-13 4.68545e-13 2.73811e-13 5.28544e-14 0 0 1.52391e-13 6.19299e-13 1.63347e-13 5.69858e-14 0 0 1.15524e-13 6.54133e-13 8.99278e-14 7.07818e-14 0 0 9.72419e-14 6.22562e-13 1.11071e-13 4.74181e-14 0 0 8.84857e-14 4.6804e-13 2.14744e-13 -4.76239e-14 0 0 1.17411e-13 2.07274e-13 3.70878e-13 -8.79894e-14 0 0 1.44193e-13 4.91055e-17 4.90588e-13 -1.33441e-13 0 0 6.82332e-14 2.02546e-14 4.81044e-13 -4.50735e-14 0 0 7.89379e-15 1.47217e-13 2.61827e-13 3.04664e-13 0 0 6.28719e-14 1.7527e-13 4.27749e-14 4.13866e-13 0 0 1.43151e-13 1.32834e-13 8.53177e-14 3.39986e-13 0 0 1.2277e-13 1.89085e-13 1.22619e-13 2.23444e-13 0 0 9.19427e-14 2.3433e-13 1.42952e-13 1.4998e-13 0 0 1.21858e-13 1.90425e-13 2.34654e-13 3.72782e-14 0 0 1.30808e-13 1.70635e-13 2.71334e-13 5.08773e-14 0 0 1.27589e-13 1.72476e-13 2.39402e-13 1.37183e-13 0 0 1.19817e-13 2.02281e-13 2.0439e-13 1.88235e-13 0 0 1.10845e-13 2.03151e-13 2.20711e-13 1.74989e-13 0 0 1.0945e-13 1.6593e-13 2.73406e-13 1.78607e-13 0 0 9.49992e-14 1.6861e-13 2.50356e-13 1.40058e-13 0 0 1.17408e-13 1.51705e-13 2.44509e-13 7.15766e-14 0 0 1.37241e-13 9.17258e-14 2.76598e-13 3.49983e-14 0 0 1.03137e-13 9.68099e-14 2.86433e-13 6.47037e-14 0 0 7.12587e-14 1.94618e-13 2.09583e-13 8.33178e-14 0 0 7.16434e-14 2.80577e-13 1.17088e-13 8.88989e-14 0 0 9.07059e-14 2.68342e-13 1.62532e-13 1.92391e-13 0 0 9.71833e-14 2.07608e-13 3.41921e-13 1.60795e-13 0 0 5.81803e-14 2.15725e-13 4.58291e-13 1.52908e-13 0 0 7.0845e-14 2.49624e-13 4.09228e-13 2.61322e-13 0 0 1.00416e-13 2.74297e-13 3.61138e-13 3.17882e-13 0 0 7.6211e-14 3.22429e-13 3.88865e-13 2.51412e-13 0 0 7.36006e-14 3.1172e-13 4.39668e-13 2.13721e-13 0 0 5.70438e-14 3.31593e-13 4.91748e-13 2.40962e-13 0 0 1.04265e-13 3.07928e-13 5.94673e-13 1.50083e-13 0 0 1.31248e-13 3.39779e-13 5.68118e-13 1.79132e-13 0 0 1.09107e-13 3.94551e-13 5.51919e-13 2.50545e-13 0 0 9.89016e-14 4.15362e-13 6.01084e-13 2.36531e-13 0 0 7.79466e-14 5.09883e-13 5.29192e-13 3.03127e-13 0 0 1.35066e-13 5.35893e-13 4.16973e-13 4.30911e-13 0 0 2.17166e-13 5.19734e-13 3.00783e-13 5.85864e-13 0 0 2.82778e-13 4.76308e-13 4.01194e-13 5.231e-13 0 0 2.8653e-13 4.78679e-13 5.50967e-13 3.19688e-13 0 0 2.88066e-13 5.23074e-13 5.72693e-13 2.61064e-13 0 0 3.04044e-13 6.00103e-13 5.35e-13 2.5683e-13 0 0 3.1246e-13 6.63242e-13 4.91159e-13 2.5466e-13 0 0 3.55979e-13 6.67201e-13 4.70171e-13 3.00955e-13 0 0 4.58389e-13 5.84754e-13 4.80657e-13 3.79804e-13 0 0 4.66286e-13 5.73042e-13 4.90673e-13 3.79958e-13 0 0 3.62186e-13 6.95491e-13 4.67919e-13 3.26863e-13 0 0 4.15937e-13 6.49953e-13 6.36387e-13 2.02299e-13 0 0 5.29815e-13 6.46493e-13 5.88187e-13 2.09179e-13 0 0 4.78499e-13 9.02122e-13 1.29572e-13 4.80822e-13 0 0 4.43062e-13 9.05212e-13 1.97788e-13 4.06188e-13 0 0 5.26616e-13 7.15648e-13 4.23248e-13 2.47185e-13 0 0 5.56153e-13 6.74796e-13 4.11832e-13 2.98028e-13 0 0 5.93247e-13 6.00693e-13 5.71408e-13 2.3029e-13 0 0 7.12475e-13 5.28987e-13 5.57401e-13 2.63199e-13 0 0 6.92769e-13 5.90923e-13 4.50509e-13 3.35237e-13 0 0 4.54585e-13 7.74844e-13 4.03169e-13 3.95083e-13 0 0 3.86924e-13 6.96335e-13 6.00095e-13 2.88913e-13 0 0 5.07657e-13 5.26535e-13 8.32031e-13 7.23951e-14 0 0 3.85506e-13 8.77114e-13 3.00324e-13 5.17683e-13 0 0 3.04554e-13 9.25408e-13 2.33163e-13 6.10343e-13 0 0 6.07885e-13 3.3685e-13 9.15138e-13 1.40006e-13 0 0 6.13506e-13 3.66875e-13 8.2746e-13 2.87234e-13 0 0 4.63891e-13 5.76679e-13 6.90567e-13 3.08023e-13 0 0 3.41545e-13 6.21809e-13 8.235e-13 6.68413e-14 0 0 3.20043e-13 5.41369e-13 8.23695e-13 1.7588e-13 0 0 3.55922e-13 4.66168e-13 6.62099e-13 4.45914e-13 0 0 3.10521e-13 5.62175e-13 6.3493e-13 3.48941e-13 0 0 3.15809e-13 6.36678e-13 6.18234e-13 2.29368e-13 0 0 6.5179e-14 9.25559e-13 5.0487e-13 2.3476e-13 0 0 8.259e-15 9.13025e-13 8.1141e-13 -2.89923e-14 0 0 2.19179e-13 6.81518e-13 9.82888e-13 -1.15498e-13 0 0 1.77491e-13 8.45501e-13 6.78455e-13 9.82043e-14 0 0 1.003e-13 1.02064e-12 5.08094e-13 1.41801e-13 0 0 3.23165e-13 6.06274e-13 9.63438e-13 -1.61913e-13 0 0 2.04388e-13 5.59014e-13 1.03806e-12 -2.29507e-13 0 0 -1.33647e-13 9.61653e-13 6.35423e-13 2.96012e-14 0 0 1.05373e-13 5.71547e-13 8.80485e-13 6.26055e-14 0 0 2.18488e-13 1.01337e-13 1.42448e-12 -2.05981e-13 0 0 -1.01919e-13 3.94509e-13 1.31962e-12 -2.29935e-13 0 0 -1.44995e-13 5.43523e-13 1.07772e-12 -1.10979e-13 0 0 -6.60013e-14 4.37551e-13 1.15277e-12 -1.87511e-13 0
				</DataArray>
				<DataArray Name="VitesseY" type="Float32" format="ascii">