<?xml version="1.0"?>
<VTKFile type="PolyData">
	<PolyData>
		<Piece NumberOfPoints="1206" NumberOfPolys="1000">
			<Points>
				<DataArray type="Float32" NumberOfComponents="3" format="ascii">
 0 0 0 0.02 0 0 0.04 0 0 0.06 0 0 0.08 0 0 0.1 0 0 0 0.005 0 0.02 0.005 0 0.04 0.005 0 0.06 0.005 0 0.08 0.005 0 0.1 0.005 0 0 0.01 0 0.02 0.01 0 0.04 0.01 0 0.06 0.01 0 0.08 0.01 0 0.1 0.01 0 0 0.015 0 0.02 0.015 0 0.04 0.015 0 0.06 0.015 0 0.08 0.015 0 0.1 0.015 0 0 0.02 0 0.02 0.02 0 0.04 0.02 0 0.06 0.02 0 0.08 0.02 0 0.1 0.02 0 0 0.025 0 0.02 0.025 0 0.04 0.025 0 0.06 0.025 0 0.08 0.025 0 0.1 0.025 0 0 0.03 0 0.02 0.03 0 0.04 0.03 0 0.06 0.03 0 0.08 0.03 0 0.1 0.03 0 0 0.035 0 0.02 0.035 0 0.04 0.035 0 0.06 0.035 0 0.08 0.035 0 0.1 0.035 0 0 0.04 0 0.02 0.04 0 0.04 0.04 0 0.06 0.04 0 0.08 0.04 0 0.1 0.04 0 0 0.045 0 0.02 0.045 0 0.04 0.045 0 0.06 0.045 0 0.08 0.045 0 0.1 0.045 0 0 0.05 0 0.02 0.05 0 0.04 0.05 0 0.06 0.05 0 0.08 0.05 0 0.1 0.05 0 0 0.055 0 0.02 0.055 0 0.04 0.055 0 0.06 0.055 0 0.08 0.055 0 0.1 0.055 0 0 0.06 0 0.02 0.06 0 0.04 0.06 0 0.06 0.06 0 0.08 0.06 0 0.1 0.06 0 0 0.065 0 0.02 0.065 0 0.04 0.065 0 0.06 0.065 0 0.08 0.065 0 0.1 0.065 0 0 0.07 0 0.02 0.07 0 0.04 0.07 0 0.06 0.07 0 0.08 0.07 0 0.1 0.07 0 0 0.075 0 0.02 0.075 0 0.04 0.075 0 0.06 0.075 0 0.08 0.075 0 0.1 0.075 0 0 0.08 0 0.02 0.08 0 0.04 0.08 0 0.06 0.08 0 0.08 0.08 0 0.1 0.08 0 0 0.085 0 0.02 0.085 0 0.04 0.085 0 0.06 0.085 0 0.08 0.085 0 0.1 0.085 0 0 0.09 0 0.02 0.09 0 0.04 0.09 0 0.06 0.09 0 0.08 0.09 0 0.1 0.09 0 0 0.095 0 0.02 0.095 0 0.04 0.095 0 0.06 0.095 0 0.08 0.095 0 0.1 0.095 0 0 0.1 0 0.02 0.1 0 0.04 0.1 0 0.06 0.1 0 0.08 0.1 0 0.1 0.1 0 0 0.105 0 0.02 0.105 0 0.04 0.105 0 0.06 0.105 0 0.08 0.105 0 0.1 0.105 0 0 0.11 0 0.02 0.11 0 0.04 0.11 0 0.06 0.11 0 0.08 0.11 0 0.1 0.11 0 0 0.115 0 0.02 0.115 0 0.04 0.115 0 0.06 0.115 0 0.08 0.115 0 0.1 0.115 0 0 0.12 0 0.02 0.12 0 0.04 0.12 0 0.06 0.12 0 0.08 0.12 0 0.1 0.12 0 0 0.125 0 0.02 0.125 0 0.04 0.125 0 0.06 0.125 0 0.08 0.125 0 0.1 0.125 0 0 0.13 0 0.02 0.13 0 0.04 0.13 0 0.06 0.13 0 0.08 0.13 0 0.1 0.13 0 0 0.135 0 0.02 0.135 0 0.04 0.135 0 0.06 0.135 0 0.08 0.135 0 0.1 0.135 0 0 0.14 0 0.02 0.14 0 0.04 0.14 0 0.06 0.14 0 0.08 0.14 0 0.1 0.14 0 0 0.145 0 0.02 0.145 0 0.04 0.145 0 0.06 0.145 0 0.08 0.145 0 0.1 0.145 0 0 0.15 0 0.02 0.15 0 0.04 0.15 0 0.06 0.15 0 0.08 0.15 0 0.1 0.15 0 0 0.155 0 0.02 0.155 0 0.04 0.155 0 0.06 0.155 0 0.08 0.155 0 0.1 0.155 0 0 0.16 0 0.02 0.16 0 0.04 0.16 0 0.06 0.16 0 0.08 0.16 0 0.1 0.16 0 0 0.165 0 0.02 0.165 0 0.04 0.165 0 0.06 0.165 0 0.08 0.165 0 0.1 0.165 0 0 0.17 0 0.02 0.17 0 0.04 0.17 0 0.06 0.17 0 0.08 0.17 0 0.1 0.17 0 0 0.175 0 0.02 0.175 0 0.04 0.175 0 0.06 0.175 0 0.08 0.175 0 0.1 0.175 0 0 0.18 0 0.02 0.18 0 0.04 0.18 0 0.06 0.18 0 0.08 0.18 0 0.1 0.18 0 0 0.185 0 0.02 0.185 0 0.04 0.185 0 0.06 0.185 0 0.08 0.185 0 0.1 0.185 0 0 0.19 0 0.02 0.19 0 0.04 0.19 0 0.06 0.19 0 0.08 0.19 0 0.1 0.19 0 0 0.195 0 0.02 0.195 0 0.04 0.195 0 0.06 0.195 0 0.08 0.195 0 0.1 0.195 0 0 0.2 0 0.02 0.2 0 0.04 0.2 0 0.06 0.2 0 0.08 0.2 0 0.1 0.2 0 0 0.205 0 0.02 0.205 0 0.04 0.205 0 0.06 0.205 0 0.08 0.205 0 0.1 0.205 0 0 0.21 0 0.02 0.21 0 0.04 0.21 0 0.06 0.21 0 0.08 0.21 0 0.1 0.21 0 0 0.215 0 0.02 0.215 0 0.04 0.215 0 0.06 0.215 0 0.08 0.215 0 0.1 0.215 0 0 0.22 0 0.02 0.22 0 0.04 0.22 0 0.06 0.22 0 0.08 0.22 0 0.1 0.22 0 0 0.225 0 0.02 0.225 0 0.04 0.225 0 0.06 0.225 0 0.08 0.225 0 0.1 0.225 0 0 0.23 0 0.02 0.23 0 0.04 0.23 0 0.06 0.23 0 0.08 0.23 0 0.1 0.23 0 0 0.235 0 0.02 0.235 0 0.04 0.235 0 0.06 0.235 0 0.08 0.235 0 0.1 0.235 0 0 0.24 0 0.02 0.24 0 0.04 0.24 0 0.06 0.24 0 0.08 0.24 0 0.1 0.24 0 0 0.245 0 0.02 0.245 0 0.04 0.245 0 0.06 0.245 0 0.08 0.245 0 0.1 0.245 0 0 0.25 0 0.02 0.25 0 0.04 0.25 0 0.06 0.25 0 0.08 0.25 0 0.1 0.25 0 0 0.255 0 0.02 0.255 0 0.04 0.255 0 0.06 0.255 0 0.08 0.255 0 0.1 0.255 0 0 0.26 0 0.02 0.26 0 0.04 0.26 0 0.06 0.26 0 0.08 0.26 0 0.1 0.26 0 0 0.265 0 0.02 0.265 0 0.04 0.265 0 0.06 0.265 0 0.08 0.265 0 0.1 0.265 0 0 0.27 0 0.02 0.27 0 0.04 0.27 0 0.06 0.27 0 0.08 0.27 0 0.1 0.27 0 0 0.275 0 0.02 0.275 0 0.04 0.275 0 0.06 0.275 0 0.08 0.275 0 0.1 0.275 0 0 0.28 0 0.02 0.28 0 0.04 0.28 0 0.06 0.28 0 0.08 0.28 0 0.1 0.28 0 0 0.285 0 0.02 0.285 0 0.04 0.285 0 0.06 0.285 0 0.08 0.285 0 0.1 0.285 0 0 0.29 0 0.02 0.29 0 0.04 0.29 0 0.06 0.29 0 0.08 0.29 0 0.1 0.29 0 0 0.295 0 0.02 0.295 0 0.04 0.295 0 0.06 0.295 0 0.08 0.295 0 0.1 0.295 0 0 0.3 0 0.02 0.3 0 0.04 0.3 0 0.06 0.3 0 0.08 0.3 0 0.1 0.3 0 0 0.305 0 0.02 0.305 0 0.04 0.305 0 0.06 0.305 0 0.08 0.305 0 0.1 0.305 0 0 0.31 0 0.02 0.31 0 0.04 0.31 0 0.06 0.31 0 0.08 0.31 0 0.1 0.31 0 0 0.315 0 0.02 0.315 0 0.04 0.315 0 0.06 0.315 0 0.08 0.315 0 0.1 0.315 0 0 0.32 0 0.02 0.32 0 0.04 0.32 0 0.06 0.32 0 0.08 0.32 0 0.1 0.32 0 0 0.325 0 0.02 0.325 0 0.04 0.325 0 0.06 0.325 0 0.08 0.325 0 0.1 0.325 0 0 0.33 0 0.02 0.33 0 0.04 0.33 0 0.06 0.33 0 0.08 0.33 0 0.1 0.33 0 0 0.335 0 0.02 0.335 0 0.04 0.335 0 0.06 0.335 0 0.08 0.335 0 0.1 0.335 0 0 0.34 0 0.02 0.34 0 0.04 0.34 0 0.06 0.34 0 0.08 0.34 0 0.1 0.34 0 0 0.345 0 0.02 0.345 0 0.04 0.345 0 0.06 0.345 0 0.08 0.345 0 0.1 0.345 0 0 0.35 0 0.02 0.35 0 0.04 0.35 0 0.06 0.35 0 0.08 0.35 0 0.1 0.35 0 0 0.355 0 0.02 0.355 0 0.04 0.355 0 0.06 0.355 0 0.08 0.355 0 0.1 0.355 0 0 0.36 0 0.02 0.36 0 0.04 0.36 0 0.06 0.36 0 0.08 0.36 0 0.1 0.36 0 0 0.365 0 0.02 0.365 0 0.04 0.365 0 0.06 0.365 0 0.08 0.365 0 0.1 0.365 0 0 0.37 0 0.02 0.37 0 0.04 0.37 0 0.06 0.37 0 0.08 0.37 0 0.1 0.37 0 0 0.375 0 0.02 0.375 0 0.04 0.375 0 0.06 0.375 0 0.08 0.375 0 0.1 0.375 0 0 0.38 0 0.02 0.38 0 0.04 0.38 0 0.06 0.38 0 0.08 0.38 0 0.1 0.38 0 0 0.385 0 0.02 0.385 0 0.04 0.385 0 0.06 0.385 0 0.08 0.385 0 0.1 0.385 0 0 0.39 0 0.02 0.39 0 0.04 0.39 0 0.06 0.39 0 0.08 0.39 0 0.1 0.39 0 0 0.395 0 0.02 0.395 0 0.04 0.395 0 0.06 0.395 0 0.08 0.395 0 0.1 0.395 0 0 0.4 0 0.02 0.4 0 0.04 0.4 0 0.06 0.4 0 0.08 0.4 0 0.1 0.4 0 0 0.405 0 0.02 0.405 0 0.04 0.405 0 0.06 0.405 0 0.08 0.405 0 0.1 0.405 0 0 0.41 0 0.02 0.41 0 0.04 0.41 0 0.06 0.41 0 0.08 0.41 0 0.1 0.41 0 0 0.415 0 0.02 0.415 0 0.04 0.415 0 0.06 0.415 0 0.08 0.415 0 0.1 0.415 0 0 0.42 0 0.02 0.42 0 0.04 0.42 0 0.06 0.42 0 0.08 0.42 0 0.1 0.42 0 0 0.425 0 0.02 0.425 0 0.04 0.425 0 0.06 0.425 0 0.08 0.425 0 0.1 0.425 0 0 0.43 0 0.02 0.43 0 0.04 0.43 0 0.06 0.43 0 0.08 0.43 0 0.1 0.43 0 0 0.435 0 0.02 0.435 0 0.04 0.435 0 0.06 0.435 0 0.08 0.435 0 0.1 0.435 0 0 0.44 0 0.02 0.44 0 0.04 0.44 0 0.06 0.44 0 0.08 0.44 0 0.1 0.44 0 0 0.445 0 0.02 0.445 0 0.04 0.445 0 0.06 0.445 0 0.08 0.445 0 0.1 0.445 0 0 0.45 0 0.02 0.45 0 0.04 0.45 0 0.06 0.45 0 0.08 0.45 0 0.1 0.45 0 0 0.455 0 0.02 0.455 0 0.04 0.455 0 0.06 0.455 0 0.08 0.455 0 0.1 0.455 0 0 0.46 0 0.02 0.46 0 0.04 0.46 0 0.06 0.46 0 0.08 0.46 0 0.1 0.46 0 0 0.465 0 0.02 0.465 0 0.04 0.465 0 0.06 0.465 0 0.08 0.465 0 0.1 0.465 0 0 0.47 0 0.02 0.47 0 0.04 0.47 0 0.06 0.47 0 0.08 0.47 0 0.1 0.47 0 0 0.475 0 0.02 0.475 0 0.04 0.475 0 0.06 0.475 0 0.08 0.475 0 0.1 0.475 0 0 0.48 0 0.02 0.48 0 0.04 0.48 0 0.06 0.48 0 0.08 0.48 0 0.1 0.48 0 0 0.485 0 0.02 0.485 0 0.04 0.485 0 0.06 0.485 0 0.08 0.485 0 0.1 0.485 0 0 0.49 0 0.02 0.49 0 0.04 0.49 0 0.06 0.49 0 0.08 0.49 0 0.1 0.49 0 0 0.495 0 0.02 0.495 0 0.04 0.495 0 0.06 0.495 0 0.08 0.495 0 0.1 0.495 0 0 0.5 0 0.02 0.5 0 0.04 0.5 0 0.06 0.5 0 0.08 0.5 0 0.1 0.5 0 0 0.505 0 0.02 0.505 0 0.04 0.505 0 0.06 0.505 0 0.08 0.505 0 0.1 0.505 0 0 0.51 0 0.02 0.51 0 0.04 0.51 0 0.06 0.51 0 0.08 0.51 0 0.1 0.51 0 0 0.515 0 0.02 0.515 0 0.04 0.515 0 0.06 0.515 0 0.08 0.515 0 0.1 0.515 0 0 0.52 0 0.02 0.52 0 0.04 0.52 0 0.06 0.52 0 0.08 0.52 0 0.1 0.52 0 0 0.525 0 0.02 0.525 0 0.04 0.525 0 0.06 0.525 0 0.08 0.525 0 0.1 0.525 0 0 0.53 0 0.02 0.53 0 0.04 0.53 0 0.06 0.53 0 0.08 0.53 0 0.1 0.53 0 0 0.535 0 0.02 0.535 0 0.04 0.535 0 0.06 0.535 0 0.08 0.535 0 0.1 0.535 0 0 0.54 0 0.02 0.54 0 0.04 0.54 0 0.06 0.54 0 0.08 0.54 0 0.1 0.54 0 0 0.545 0 0.02 0.545 0 0.04 0.545 0 0.06 0.545 0 0.08 0.545 0 0.1 0.545 0 0 0.55 0 0.02 0.55 0 0.04 0.55 0 0.06 0.55 0 0.08 0.55 0 0.1 0.55 0 0 0.555 0 0.02 0.555 0 0.04 0.555 0 0.06 0.555 0 0.08 0.555 0 0.1 0.555 0 0 0.56 0 0.02 0.56 0 0.04 0.56 0 0.06 0.56 0 0.08 0.56 0 0.1 0.56 0 0 0.565 0 0.02 0.565 0 0.04 0.565 0 0.06 0.565 0 0.08 0.565 0 0.1 0.565 0 0 0.57 0 0.02 0.57 0 0.04 0.57 0 0.06 0.57 0 0.08 0.57 0 0.1 0.57 0 0 0.575 0 0.02 0.575 0 0.04 0.575 0 0.06 0.575 0 0.08 0.575 0 0.1 0.575 0 0 0.58 0 0.02 0.58 0 0.04 0.58 0 0.06 0.58 0 0.08 0.58 0 0.1 0.58 0 0 0.585 0 0.02 0.585 0 0.04 0.585 0 0.06 0.585 0 0.08 0.585 0 0.1 0.585 0 0 0.59 0 0.02 0.59 0 0.04 0.59 0 0.06 0.59 0 0.08 0.59 0 0.1 0.59 0 0 0.595 0 0.02 0.595 0 0.04 0.595 0 0.06 0.595 0 0.08 0.595 0 0.1 0.595 0 0 0.6 0 0.02 0.6 0 0.04 0.6 0 0.06 0.6 0 0.08 0.6 0 0.1 0.6 0 0 0.605 0 0.02 0.605 0 0.04 0.605 0 0.06 0.605 0 0.08 0.605 0 0.1 0.605 0 0 0.61 0 0.02 0.61 0 0.04 0.61 0 0.06 0.61 0 0.08 0.61 0 0.1 0.61 0 0 0.615 0 0.02 0.615 0 0.04 0.615 0 0.06 0.615 0 0.08 0.615 0 0.1 0.615 0 0 0.62 0 0.02 0.62 0 0.04 0.62 0 0.06 0.62 0 0.08 0.62 0 0.1 0.62 0 0 0.625 0 0.02 0.625 0 0.04 0.625 0 0.06 0.625 0 0.08 0.625 0 0.1 0.625 0 0 0.63 0 0.02 0.63 0 0.04 0.63 0 0.06 0.63 0 0.08 0.63 0 0.1 0.63 0 0 0.635 0 0.02 0.635 0 0.04 0.635 0 0.06 0.635 0 0.08 0.635 0 0.1 0.635 0 0 0.64 0 0.02 0.64 0 0.04 0.64 0 0.06 0.64 0 0.08 0.64 0 0.1 0.64 0 0 0.645 0 0.02 0.645 0 0.04 0.645 0 0.06 0.645 0 0.08 0.645 0 0.1 0.645 0 0 0.65 0 0.02 0.65 0 0.04 0.65 0 0.06 0.65 0 0.08 0.65 0 0.1 0.65 0 0 0.655 0 0.02 0.655 0 0.04 0.655 0 0.06 0.655 0 0.08 0.655 0 0.1 0.655 0 0 0.66 0 0.02 0.66 0 0.04 0.66 0 0.06 0.66 0 0.08 0.66 0 0.1 0.66 0 0 0.665 0 0.02 0.665 0 0.04 0.665 0 0.06 0.665 0 0.08 0.665 0 0.1 0.665 0 0 0.67 0 0.02 0.67 0 0.04 0.67 0 0.06 0.67 0 0.08 0.67 0 0.1 0.67 0 0 0.675 0 0.02 0.675 0 0.04 0.675 0 0.06 0.675 0 0.08 0.675 0 0.1 0.675 0 0 0.68 0 0.02 0.68 0 0.04 0.68 0 0.06 0.68 0 0.08 0.68 0 0.1 0.68 0 0 0.685 0 0.02 0.685 0 0.04 0.685 0 0.06 0.685 0 0.08 0.685 0 0.1 0.685 0 0 0.69 0 0.02 0.69 0 0.04 0.69 0 0.06 0.69 0 0.08 0.69 0 0.1 
[...]
			<PointData Scalars="VitesseX">
				<DataArray Name="VitesseX" type="Float32" format="ascii">
 0 -2.48827e-14 -7.94798e-15 1.11316e-14 1.87265e-14 0 0 -1.82068e-14 -1.50322e-14 1.49667e-14 1.54647e-14 0 0 -9.70089e-15 -1.79892e-14 1.38142e-14 1.23382e-14 0 0 -8.92979e-15 -1.00285e-14 8.36256e-15 8.64555e-15 0 0 -7.34291e-15 -1.14399e-14 1.6745e-14 6.51346e-16 0 0 -2.61716e-15 -1.50132e-14 2.26792e-14 4.60318e-15 0 0 -1.45138e-14 9.21003e-15 7.09273e-15 1.72177e-14 0 0 -1.8334e-14 1.8234e-14 1.03044e-14 1.25312e-14 0 0 -3.81165e-15 9.0102e-15 1.34032e-14 1.45395e-14 0 0 -3.85743e-15 1.77385e-14 -2.47544e-15 2.93373e-14 0 0 -1.35479e-14 2.88039e-14 -1.98452e-16 2.16175e-14 0 0 -1.4192e-14 3.38567e-14 3.89787e-15 5.37451e-15 0 0 6.1544e-15 1.09459e-15 4.42038e-14 -3.34761e-14 0 0 -2.14932e-14 3.2786e-14 2.69768e-14 -3.27249e-14 0 0 -4.18787e-14 5.95576e-14 -1.85992e-14 6.09396e-15 0 0 -9.1068e-15 3.83408e-15 1.50084e-14 -1.35157e-14 0 0 5.66147e-15 -1.32151e-14 2.66776e-14 -3.94969e-14 0 0 1.19593e-14 -1.47318e-14 9.62384e-15 -2.52725e-14 0 0 -5.21122e-15 1.64513e-14 -3.87341e-14 1.86543e-14 0 0 -6.26131e-15 3.3328e-15 -4.69204e-15 -1.36921e-14 0 0 -1.45809e-14 -1.44303e-15 1.84236e-14 -4.68517e-14 0 0 -3.63757e-14 4.37072e-14 -5.16438e-14 3.39763e-15 0 0 6.00633e-15 -3.0988e-14 1.22168e-14 -2.03279e-14 0 0 1.79278e-14 -8.23948e-14 7.97079e-14 -7.00906e-14 0 0 -3.59786e-14 -5.71764e-15 -8.03044e-15 -2.26676e-14 0 0 -4.06371e-14 2.32923e-14 -4.46948e-14 -4.92887e-15 0 0 -1.69117e-14 -2.83451e-15 3.839e-15 -5.56669e-14 0 0 -2.08447e-14 5.70567e-15 1.18898e-14 -6.935e-14 0 0 -5.75788e-14 6.5449e-14 -5.80982e-14 1.41567e-14 0 0 -3.49812e-14 9.83557e-15 -5.04593e-15 3.88207e-14 0 0 -5.08383e-14 -2.84192e-15 4.72319e-14 2.01798e-14 0 0 -8.09285e-14 4.2604e-14 3.03977e-14 4.03729e-14 0 0 -1.44488e-14 -5.04473e-14 1.05217e-13 4.72e-14 0 0 1.10887e-14 -9.74419e-14 1.27988e-13 8.61004e-14 0 0 -4.36298e-14 -1.64047e-14 5.38327e-14 1.47259e-13 0 0 -4.26964e-14 -1.69385e-14 4.98444e-14 1.22338e-13 0 0 -3.07948e-14 -3.07808e-14 7.14538e-14 8.08451e-14 0 0 -4.978e-14 1.8953e-14 4.88767e-14 7.74886e-14 0 0 -2.27198e-14 -1.2722e-14 8.77789e-14 4.83589e-14 0 0 -9.83508e-18 -2.95584e-14 6.9359e-14 8.70213e-14 0 0 -1.66425e-14 8.96328e-15 -9.6072e-15 1.4977e-13 0 0 6.03544e-15 -1.04994e-14 2.20999e-15 1.00206e-13 0 0 5.94546e-14 -5.02191e-14 1.60357e-14 2.07173e-14 0 0 2.69392e-14 4.44682e-14 -1.15207e-13 9.34329e-14 0 0 9.02392e-14 -1.6083e-14 -6.48598e-14 9.07404e-14 0 0 1.22813e-13 -6.42712e-14 -4.17945e-15 6.25358e-14 0 0 4.64584e-14 4.9025e-14 -1.30801e-13 1.71372e-13 0 0 7.86092e-14 -3.85003e-15 -1.02546e-13 1.84292e-13 0 0 1.27154e-13 -9.58395e-14 9.06733e-15 1.04409e-13 0 0 1.30134e-13 -1.19784e-13 2.25008e-14 9.41772e-14 0 0 1.03975e-13 -7.73385e-14 -5.68207e-15 8.225e-14 0 0 7.88522e-14 -2.08193e-14 -5.85208e-14 8.40551e-14 0 0 1.68228e-13 -6.77933e-14 -6.17879e-14 4.38204e-14 0 0 2.93677e-13 -1.84515e-13 6.74808e-14 -5.75867e-14 0 0 1.76034e-13 -5.09561e-14 6.97632e-17 6.97557e-15 0 0 2.76579e-14 1.61867e-13 -1.32854e-13 9.11163e-14 0 0 1.08294e-13 1.32249e-13 -9.369e-14 1.06619e-13 0 0 2.3409e-13 -4.03324e-15 -1.3997e-14 1.20221e-13 0 0 2.26866e-13 -4.9383e-14 5.2012e-14 9.26132e-14 0 0 1.16409e-13 3.86033e-14 6.41196e-14 3.10481e-14 0 0 9.43849e-14 1.3151e-13 1.90602e-14 -2.01212e-14 0 0 2.02018e-13 2.90402e-14 7.05087e-14 -1.04011e-13 0 0 2.02706e-13 1.73321e-14 1.19831e-14 -3.84023e-14 0 0 1.40881e-13 6.90561e-14 3.914e-15 1.23649e-14 0 0 5.44175e-14 4.64106e-14 1.44331e-13 -4.46686e-14 0 0 6.85951e-14 -5.95352e-15 1.97045e-13 -5.07023e-14 0 0 2.0689e-13 -1.38063e-13 1.69119e-13 8.15254e-16 0 0 1.49924e-13 3.11255e-15 -6.89721e-14 1.31327e-13 0 0 8.64223e-14 1.64567e-13 -1.96807e-13 9.23703e-14 0 0 2.26541e-13 -2.0734e-14 -5.33365e-14 4.7249e-14 0 0 3.55527e-13 -1.65582e-13 3.16293e-14 7.79452e-14 0 0 2.66578e-13 -8.81191e-14 6.56042e-14 1.41596e-14 0 0 2.77432e-14 1.93471e-13 -1.77412e-13 1.76724e-13 0 0 4.17341e-14 3.28887e-13 -4.33593e-13 3.50885e-13 0 0 2.68992e-13 1.358e-13 -3.22145e-13 2.42151e-13 0 0 4.29223e-13 -3.04679e-14 -1.80212e-13 1.4995e-13 0 0 4.62774e-13 -1.36664e-13 -3.15953e-14 5.62352e-14 0 0 3.21088e-13 1.08229e-13 -2.96396e-13 2.67049e-13 0 0 2.12129e-13 2.32416e-13 -5.58772e-13 5.27934e-13 0 0 3.69293e-13 -6.3505e-14 -3.02162e-13 3.56807e-13 0 0 4.09793e-13 -4.10949e-13 7.68965e-14 5.70675e-14 0 0 2.96411e-13 -3.28569e-13 7.15728e-14 -8.06324e-15 0 0 1.54202e-14 3.92453e-14 -1.54005e-13 3.41152e-14 0 0 -2.44484e-13 3.74696e-14 -1.31939e-13 -1.09025e-14 0 0 -2.23521e-13 -8.77252e-14 1.63823e-14 -1.12227e-13 0 0 -1.61058e-13 -2.63484e-13 1.56573e-13 -6.80581e-14 0 0 -1.63333e-13 -2.8114e-13 1.16426e-13 4.24985e-14 0 0 -2.10623e-13 -2.18641e-13 -7.1293e-15 2.03845e-13 0 0 -2.4245e-13 -1.45868e-13 -2.00653e-13 3.47761e-13 0 0 -2.2132e-13 -1.71107e-13 -1.94762e-13 3.50796e-13 0 0 -1.25235e-13 -3.1507e-13 -1.14018e-13 2.90866e-13 0 0 -4.61323e-14 -5.08527e-13 1.75148e-14 1.63449e-13 0 0 -5.57163e-14 -5.74576e-13 1.24561e-13 6.64518e-14 0 0 -1.54534e-13 -5.42942e-13 1.80276e-13 8.7937e-15 0 0 -3.09432e-13 -4.34476e-13 1.84641e-13 -2.25105e-14 0 0 -4.50513e-13 -3.15682e-13 1.96943e-13 -3.37421e-14 0 0 -5.67781e-13 -2.26036e-13 2.2955e-13 -7.90284e-14 0 0 -6.11441e-13 -1.91624e-13 2.43022e-13 -1.72697e-13 0 0 -5.94646e-13 -1.69584e-13 2.50542e-13 -2.31329e-13 0 0 -5.50714e-13 -1.52279e-13 2.39188e-13 -2.38259e-13 0 0 -4.95021e-13 -1.15876e-13 1.80093e-13 -2.29388e-13 0 0 -4.1373e-13 -5.51319e-14 1.08511e-13 -1.80189e-13 0 0 -2.89705e-13 -5.62218e-14 5.61766e-14 -9.21725e-14 0 0 -1.71874e-13 -6.13671e-14 2.75742e-14 1.53222e-14 0 0 -5.89225e-14 -8.26509e-14 4.46612e-14 1.05071e-13 0 0 7.75022e-14 -1.60337e-13 1.16783e-13 1.38134e-13 0 0 2.32302e-13 -1.55464e-13 1.541e-13 1.24371e-13 0 0 2.93695e-13 -1.39749e-13 1.91785e-13 1.16261e-13 0 0 2.89206e-13 -9.28183e-14 1.74137e-13 1.88856e-13 0 0 2.52194e-13 2.67889e-14 1.09498e-13 2.9894e-13 0 0 1.48704e-13 2.13003e-13 1.36199e-13 2.63226e-13 0 0 6.84956e-14 2.20864e-13 2.06377e-13 2.10209e-13 0 0 6.13647e-14 2.10022e-13 1.99445e-13 1.63276e-13 0 0 6.89006e-14 2.16592e-13 1.17706e-13 1.81309e-13 0 0 8.78866e-14 2.25107e-13 -2.05519e-14 2.9166e-13 0 0 1.51633e-13 1.71831e-13 -1.96352e-15 2.83102e-13 0 0 2.33181e-13 1.08209e-13 2.08448e-14 2.69252e-13 0 0 2.98478e-13 1.05479e-13 8.16144e-14 2.077e-13 0 0 3.74801e-13 8.74661e-14 1.88009e-13 1.10568e-13 0 0 3.82658e-13 1.01356e-13 2.05756e-13 6.99651e-14 0 0 3.64871e-13 1.72673e-13 1.57962e-13 1.04871e-13 0 0 2.98459e-13 3.65689e-13 4.2583e-14 1.9589e-13 0 0 2.07456e-13 4.94833e-13 -1.00575e-13 2.5469e-13 0 0 2.11025e-13 4.83806e-13 -1.00422e-13 2.22451e-13 0 0 2.21064e-13 3.67339e-13 2.99779e-14 8.2384e-14 0 0 2.11764e-13 1.3508e-13 3.20338e-13 -1.457e-13 0 0 1.65613e-13 1.8985e-14 2.93233e-13 -2.14571e-13 0 0 1.30646e-13 -5.57616e-14 3.01791e-13 -2.14035e-13 0 0 5.00402e-14 -1.34152e-14 2.59875e-13 -1.25977e-13 0 0 -1.76686e-14 2.13006e-13 -1.07253e-13 1.80615e-13 0 0 3.61012e-14 1.94226e-13 -1.45941e-13 1.68379e-13 0 0 9.28406e-14 1.59036e-13 -9.15272e-14 1.0768e-13 0 0 8.64964e-14 1.7046e-13 -6.61345e-14 4.4765e-14 0 0 7.77015e-14 1.47687e-13 -3.37734e-14 -8.14044e-14 0 0 6.63951e-14 1.25992e-13 7.75434e-15 -6.85048e-14 0 0 6.82613e-14 4.94476e-14 2.3973e-14 -2.84142e-14 0 0 6.77488e-14 -5.85484e-16 4.88544e-14 -3.36311e-14 0 0 2.89558e-14 3.43108e-14 2.51883e-14 4.54409e-15 0 0 1.91618e-14 1.4108e-14 3.33826e-14 8.53288e-15 0 0 1.88074e-14 -5.3699e-14 9.12e-14 -1.13094e-14 0 0 -2.23517e-14 -6.18652e-14 1.23287e-13 1.41121e-14 0 0 -1.05374e-13 -1.20459e-14 7.44488e-14 5.40091e-14 0 0 -9.50862e-14 -2.0728e-14 4.96927e-14 -3.09558e-15 0 0 -7.87272e-14 -4.47327e-14 2.38483e-14 -2.85434e-14 0 0 -8.29123e-14 -1.87063e-14 -5.69196e-14 9.03956e-14 0 0 -7.90009e-14 3.19264e-14 -6.66259e-14 5.32528e-14 0 0 -3.27336e-14 6.76553e-14 -1.0763e-13 2.67598e-14 0 0 5.49852e-14 2.88525e-14 -1.02928e-13 1.43085e-13 0 0 3.53671e-14 6.34911e-14 9.28789e-15 1.12889e-13 0 0 2.24122e-15 1.70334e-13 1.26464e-13 5.27113e-14 0 0 8.79613e-15 2.16874e-13 1.97654e-13 1.82225e-13 0 0 4.93171e-14 1.78631e-13 3.44072e-13 1.88923e-13 0 0 1.00185e-13 1.61737e-13 3.60645e-13 2.45072e-13 0 0 1.49356e-13 1.65983e-13 3.00594e-13 3.07713e-13 0 0 1.42139e-13 2.24222e-13 2.46237e-13 2.40257e-13 0 0 1.29115e-13 2.3893e-13 2.35102e-13 2.48101e-13 0 0 1.91648e-13 1.18572e-13 4.10521e-13 1.32381e-13 0 0 1.58778e-13 1.75292e-13 4.45443e-13 2.84404e-14 0 0 1.44635e-13 2.5901e-13 3.62239e-13 1.28552e-13 0 0 1.23926e-13 3.54609e-13 2.416e-13 2.53191e-13 0 0 1.57835e-13 2.96332e-13 3.60907e-13 1.54017e-13 0 0 2.69394e-13 1.18302e-13 5.92348e-13 -4.45564e-14 0 0 2.57302e-13 1.29761e-13 5.85787e-13 -3.61708e-14 0 0 1.68108e-13 2.97997e-13 4.2963e-13 8.95237e-14 0 0 1.97418e-13 3.62869e-13 3.50701e-13 1.39698e-13 0 0 3.06441e-13 2.99854e-13 3.37276e-13 1.93639e-13 0 0 3.97813e-13 2.54604e-13 2.92372e-13 3.06973e-13 0 0 4.44298e-13 1.78368e-13 4.31799e-13 2.24954e-13 0 0 3.57239e-13 2.65021e-13 4.82648e-13 5.37583e-14 0 0 3.12607e-13 3.68168e-13 3.72046e-13 8.7039e-14 0 0 3.9826e-13 2.63456e-13 4.16434e-13 1.50808e-13 0 0 4.34947e-13 2.05433e-13 5.47913e-13 8.20618e-14 0 0 2.97897e-13 4.16961e-13 4.10584e-13 1.76013e-13 0 0 2.98828e-13 4.02204e-13 4.38409e-13 9.325e-14 0 0 2.49272e-13 4.77714e-13 3.44559e-13 5.06121e-14 0 0 2.78625e-13 5.25948e-13 1.37214e-13 3.02183e-13 0 0 4.43773e-13 2.90674e-13 3.59797e-13 2.39896e-13 0 0 3.93936e-13 3.51746e-13 4.05e-13 2.19808e-13 0 0 3.56254e-13 4.29312e-13 3.83107e-13 2.8491e-13 0 0 4.18341e-13 2.9629e-13 4.97724e-13 2.58742e-13 0 0 2.3897e-13 4.2682e-13 5.60515e-13 1.26963e-13 0 0 1.70283e-13 4.49009e-13 6.19402e-13 1.93798e-13 0 0 2.73639e-13 2.88836e-13 6.56379e-13 3.69123e-13 0 0 2.19084e-13 4.11628e-13 5.04916e-13 4.46119e-13 0 0 1.24442e-13 6.28816e-13 2.56332e-13 5.32667e-13 0 0 8.57909e-14 6.24034e-13 3.9982e-13 3.00643e-13 0 0 1.34526e-13 4.50745e-13 6.68397e-13 1.18179e-13 0 0 8.2491e-14 5.42486e-13 4.13265e-13 3.25255e-13 0 0 1.61547e-13 4.66477e-13 3.21408e-13 3.99731e-13 0 0 3.73885e-13 2.20149e-13 5.51632e-13 1.45212e-13 0 0 1.85907e-13 5.18942e-13 3.53573e-13 2.24934e-14 0 0 -5.18842e-15 5.8725e-13 4.95167e-13 -1.47717e-13 0 0 1.93955e-13 9.85444e-14 8.81448e-13 -2.49712e-13 0 0 4.46378e-14 3.10665e-13 4.75559e-13 8.65389e-14 0 0 2.51756e-14 3.86484e-13 4.47289e-13 2.86116e-14 0 0 2.22219e-13 8.84691e-14 7.45106e-13 -1.57395e-13 0 0 2.18471e-15 4.09555e-13 4.95782e-13 -3.14178e-14 0 0 1.84141e-13 2.42513e-13 6.30672e-13 -1.75806e-13 0 0 2.95344e-13 2.55179e-13 3.78362e-13 5.40011e-14 0 0 -2.51486e-13 1.16074e-12 -4.45517e-13 5.08141e-13 0 0 -5.45352e-13 1.60738e-12 -7.25034e-13 5.81673e-13 0
				</DataArray>
				<DataArray Name="VitesseY" type="Float32" format="ascii">