<?xml version="1.0"?>
<VTKFile type="PolyData">
	<PolyData>
		<Piece NumberOfPoints="1206" NumberOfPolys="1000">
			<Points>
				<DataArray type="Float32" NumberOfComponents="3" format="ascii">
 0 0 0 0.02 0 0 0.04 0 0 0.06 0 0 0.08 0 0 0.1 0 0 0 0.005 0 0.02 0.005 0 0.04 0.005 0 0.06 0.005 0 0.08 0.005 0 0.1 0.005 0 0 0.01 0 0.02 0.01 0 0.04 0.01 0 0.06 0.01 0 0.08 0.01 0 0.1 0.01 0 0 0.015 0 0.02 0.015 0 0.04 0.015 0 0.06 0.015 0 0.08 0.015 0 0.1 0.015 0 0 0.02 0 0.02 0.02 0 0.04 0.02 0 0.06 0.02 0 0.08 0.02 0 0.1 0.02 0 0 0.025 0 0.02 0.025 0 0.04 0.025 0 0.06 0.025 0 0.08 0.025 0 0.1 0.025 0 0 0.03 0 0.02 0.03 0 0.04 0.03 0 0.06 0.03 0 0.08 0.03 0 0.1 0.03 0 0 0.035 0 0.02 0.035 0 0.04 0.035 0 0.06 0.035 0 0.08 0.035 0 0.1 0.035 0 0 0.04 0 0.02 0.04 0 0.04 0.04 0 0.06 0.04 0 0.08 0.04 0 0.1 0.04 0 0 0.045 0 0.02 0.045 0 0.04 0.045 0 0.06 0.045 0 0.08 0.045 0 0.1 0.045 0 0 0.05 0 0.02 0.05 0 0.04 0.05 0 0.06 0.05 0 0.08 0.05 0 0.1 0.05 0 0 0.055 0 0.02 0.055 0 0.04 0.055 0 0.06 0.055 0 0.08 0.055 0 0.1 0.055 0 0 0.06 0 0.02 0.06 0 0.04 0.06 0 0.06 0.06 0 0.08 0.06 0 0.1 0.06 0 0 0.065 0 0.02 0.065 0 0.04 0.065 0 0.06 0.065 0 0.08 0.065 0 0.1 0.065 0 0 0.07 0 0.02 0.07 0 0.04 0.07 0 0.06 0.07 0 0.08 0.07 0 0.1 0.07 0 0 0.075 0 0.02 0.075 0 0.04 0.075 0 0.06 0.075 0 0.08 0.075 0 0.1 0.075 0 0 0.08 0 0.02 0.08 0 0.04 0.08 0 0.06 0.08 0 0.08 0.08 0 0.1 0.08 0 0 0.085 0 0.02 0.085 0 0.04 0.085 0 0.06 0.085 0 0.08 0.085 0 0.1 0.085 0 0 0.09 0 0.02 0.09 0 0.04 0.09 0 0.06 0.09 0 0.08 0.09 0 0.1 0.09 0 0 0.095 0 0.02 0.095 0 0.04 0.095 0 0.06 0.095 0 0.08 0.095 0 0.1 0.095 0 0 0.1 0 0.02 0.1 0 0.04 0.1 0 0.06 0.1 0 0.08 0.1 0 0.1 0.1 0 0 0.105 0 0.02 0.105 0 0.04 0.105 0 0.06 0.105 0 0.08 0.105 0 0.1 0.105 0 0 0.11 0 0.02 0.11 0 0.04 0.11 0 0.06 0.11 0 0.08 0.11 0 0.1 0.11 0 0 0.115 0 0.02 0.115 0 0.04 0.115 0 0.06 0.115 0 0.08 0.115 0 0.1 0.115 0 0 0.12 0 0.02 0.12 0 0.04 0.12 0 0.06 0.12 0 0.08 0.12 0 0.1 0.12 0 0 0.125 0 0.02 0.125 0 0.04 0.125 0 0.06 0.125 0 0.08 0.125 0 0.1 0.125 0 0 0.13 0 0.02 0.13 0 0.04 0.13 0 0.06 0.13 0 0.08 0.13 0 0.1 0.13 0 0 0.135 0 0.02 0.135 0 0.04 0.135 0 0.06 0.135 0 0.08 0.135 0 0.1 0.135 0 0 0.14 0 0.02 0.14 0 0.04 0.14 0 0.06 0.14 0 0.08 0.14 0 0.1 0.14 0 0 0.145 0 0.02 0.145 0 0.04 0.145 0 0.06 0.145 0 0.08 0.145 0 0.1 0.145 0 0 0.15 0 0.02 0.15 0 0.04 0.15 0 0.06 0.15 0 0.08 0.15 0 0.1 0.15 0 0 0.155 0 0.02 0.155 0 0.04 0.155 0 0.06 0.155 0 0.08 0.155 0 0.1 0.155 0 0 0.16 0 0.02 0.16 0 0.04 0.16 0 0.06 0.16 0 0.08 0.16 0 0.1 0.16 0 0 0.165 0 0.02 0.165 0 0.04 0.165 0 0.06 0.165 0 0.08 0.165 0 0.1 0.165 0 0 0.17 0 0.02 0.17 0 0.04 0.17 0 0.06 0.17 0 0.08 0.17 0 0.1 0.17 0 0 0.175 0 0.02 0.175 0 0.04 0.175 0 0.06 0.175 0 0.08 0.175 0 0.1 0.175 0 0 0.18 0 0.02 0.18 0 0.04 0.18 0 0.06 0.18 0 0.08 0.18 0 0.1 0.18 0 0 0.185 0 0.02 0.185 0 0.04 0.185 0 0.06 0.185 0 0.08 0.185 0 0.1 0.185 0 0 0.19 0 0.02 0.19 0 0.04 0.19 0 0.06 0.19 0 0.08 0.19 0 0.1 0.19 0 0 0.195 0 0.02 0.195 0 0.04 0.195 0 0.06 0.195 0 0.08 0.195 0 0.1 0.195 0 0 0.2 0 0.02 0.2 0 0.04 0.2 0 0.06 0.2 0 0.08 0.2 0 0.1 0.2 0 0 0.205 0 0.02 0.205 0 0.04 0.205 0 0.06 0.205 0 0.08 0.205 0 0.1 0.205 0 0 0.21 0 0.02 0.21 0 0.04 0.21 0 0.06 0.21 0 0.08 0.21 0 0.1 0.21 0 0 0.215 0 0.02 0.215 0 0.04 0.215 0 0.06 0.215 0 0.08 0.215 0 0.1 0.215 0 0 0.22 0 0.02 0.22 0 0.04 0.22 0 0.06 0.22 0 0.08 0.22 0 0.1 0.22 0 0 0.225 0 0.02 0.225 0 0.04 0.225 0 0.06 0.225 0 0.08 0.225 0 0.1 0.225 0 0 0.23 0 0.02 0.23 0 0.04 0.23 0 0.06 0.23 0 0.08 0.23 0 0.1 0.23 0 0 0.235 0 0.02 0.235 0 0.04 0.235 0 0.06 0.235 0 0.08 0.235 0 0.1 0.235 0 0 0.24 0 0.02 0.24 0 0.04 0.24 0 0.06 0.24 0 0.08 0.24 0 0.1 0.24 0 0 0.245 0 0.02 0.245 0 0.04 0.245 0 0.06 0.245 0 0.08 0.245 0 0.1 0.245 0 0 0.25 0 0.02 0.25 0 0.04 0.25 0 0.06 0.25 0 0.08 0.25 0 0.1 0.25 0 0 0.255 0 0.02 0.255 0 0.04 0.255 0 0.06 0.255 0 0.08 0.255 0 0.1 0.255 0 0 0.26 0 0.02 0.26 0 0.04 0.26 0 0.06 0.26 0 0.08 0.26 0 0.1 0.26 0 0 0.265 0 0.02 0.265 0 0.04 0.265 0 0.06 0.265 0 0.08 0.265 0 0.1 0.265 0 0 0.27 0 0.02 0.27 0 0.04 0.27 0 0.06 0.27 0 0.08 0.27 0 0.1 0.27 0 0 0.275 0 0.02 0.275 0 0.04 0.275 0 0.06 0.275 0 0.08 0.275 0 0.1 0.275 0 0 0.28 0 0.02 0.28 0 0.04 0.28 0 0.06 0.28 0 0.08 0.28 0 0.1 0.28 0 0 0.285 0 0.02 0.285 0 0.04 0.285 0 0.06 0.285 0 0.08 0.285 0 0.1 0.285 0 0 0.29 0 0.02 0.29 0 0.04 0.29 0 0.06 0.29 0 0.08 0.29 0 0.1 0.29 0 0 0.295 0 0.02 0.295 0 0.04 0.295 0 0.06 0.295 0 0.08 0.295 0 0.1 0.295 0 0 0.3 0 0.02 0.3 0 0.04 0.3 0 0.06 0.3 0 0.08 0.3 0 0.1 0.3 0 0 0.305 0 0.02 0.305 0 0.04 0.305 0 0.06 0.305 0 0.08 0.305 0 0.1 0.305 0 0 0.31 0 0.02 0.31 0 0.04 0.31 0 0.06 0.31 0 0.08 0.31 0 0.1 0.31 0 0 0.315 0 0.02 0.315 0 0.04 0.315 0 0.06 0.315 0 0.08 0.315 0 0.1 0.315 0 0 0.32 0 0.02 0.32 0 0.04 0.32 0 0.06 0.32 0 0.08 0.32 0 0.1 0.32 0 0 0.325 0 0.02 0.325 0 0.04 0.325 0 0.06 0.325 0 0.08 0.325 0 0.1 0.325 0 0 0.33 0 0.02 0.33 0 0.04 0.33 0 0.06 0.33 0 0.08 0.33 0 0.1 0.33 0 0 0.335 0 0.02 0.335 0 0.04 0.335 0 0.06 0.335 0 0.08 0.335 0 0.1 0.335 0 0 0.34 0 0.02 0.34 0 0.04 0.34 0 0.06 0.34 0 0.08 0.34 0 0.1 0.34 0 0 0.345 0 0.02 0.345 0 0.04 0.345 0 0.06 0.345 0 0.08 0.345 0 0.1 0.345 0 0 0.35 0 0.02 0.35 0 0.04 0.35 0 0.06 0.35 0 0.08 0.35 0 0.1 0.35 0 0 0.355 0 0.02 0.355 0 0.04 0.355 0 0.06 0.355 0 0.08 0.355 0 0.1 0.355 0 0 0.36 0 0.02 0.36 0 0.04 0.36 0 0.06 0.36 0 0.08 0.36 0 0.1 0.36 0 0 0.365 0 0.02 0.365 0 0.04 0.365 0 0.06 0.365 0 0.08 0.365 0 0.1 0.365 0 0 0.37 0 0.02 0.37 0 0.04 0.37 0 0.06 0.37 0 0.08 0.37 0 0.1 0.37 0 0 0.375 0 0.02 0.375 0 0.04 0.375 0 0.06 0.375 0 0.08 0.375 0 0.1 0.375 0 0 0.38 0 0.02 0.38 0 0.04 0.38 0 0.06 0.38 0 0.08 0.38 0 0.1 0.38 0 0 0.385 0 0.02 0.385 0 0.04 0.385 0 0.06 0.385 0 0.08 0.385 0 0.1 0.385 0 0 0.39 0 0.02 0.39 0 0.04 0.39 0 0.06 0.39 0 0.08 0.39 0 0.1 0.39 0 0 0.395 0 0.02 0.395 0 0.04 0.395 0 0.06 0.395 0 0.08 0.395 0 0.1 0.395 0 0 0.4 0 0.02 0.4 0 0.04 0.4 0 0.06 0.4 0 0.08 0.4 0 0.1 0.4 0 0 0.405 0 0.02 0.405 0 0.04 0.405 0 0.06 0.405 0 0.08 0.405 0 0.1 0.405 0 0 0.41 0 0.02 0.41 0 0.04 0.41 0 0.06 0.41 0 0.08 0.41 0 0.1 0.41 0 0 0.415 0 0.02 0.415 0 0.04 0.415 0 0.06 0.415 0 0.08 0.415 0 0.1 0.415 0 0 0.42 0 0.02 0.42 0 0.04 0.42 0 0.06 0.42 0 0.08 0.42 0 0.1 0.42 0 0 0.425 0 0.02 0.425 0 0.04 0.425 0 0.06 0.425 0 0.08 0.425 0 0.1 0.425 0 0 0.43 0 0.02 0.43 0 0.04 0.43 0 0.06 0.43 0 0.08 0.43 0 0.1 0.43 0 0 0.435 0 0.02 0.435 0 0.04 0.435 0 0.06 0.435 0 0.08 0.435 0 0.1 0.435 0 0 0.44 0 0.02 0.44 0 0.04 0.44 0 0.06 0.44 0 0.08 0.44 0 0.1 0.44 0 0 0.445 0 0.02 0.445 0 0.04 0.445 0 0.06 0.445 0 0.08 0.445 0 0.1 0.445 0 0 0.45 0 0.02 0.45 0 0.04 0.45 0 0.06 0.45 0 0.08 0.45 0 0.1 0.45 0 0 0.455 0 0.02 0.455 0 0.04 0.455 0 0.06 0.455 0 0.08 0.455 0 0.1 0.455 0 0 0.46 0 0.02 0.46 0 0.04 0.46 0 0.06 0.46 0 0.08 0.46 0 0.1 0.46 0 0 0.465 0 0.02 0.465 0 0.04 0.465 0 0.06 0.465 0 0.08 0.465 0 0.1 0.465 0 0 0.47 0 0.02 0.47 0 0.04 0.47 0 0.06 0.47 0 0.08 0.47 0 0.1 0.47 0 0 0.475 0 0.02 0.475 0 0.04 0.475 0 0.06 0.475 0 0.08 0.475 0 0.1 0.475 0 0 0.48 0 0.02 0.48 0 0.04 0.48 0 0.06 0.48 0 0.08 0.48 0 0.1 0.48 0 0 0.485 0 0.02 0.485 0 0.04 0.485 0 0.06 0.485 0 0.08 0.485 0 0.1 0.485 0 0 0.49 0 0.02 0.49 0 0.04 0.49 0 0.06 0.49 0 0.08 0.49 0 0.1 0.49 0 0 0.495 0 0.02 0.495 0 0.04 0.495 0 0.06 0.495 0 0.08 0.495 0 0.1 0.495 0 0 0.5 0 0.02 0.5 0 0.04 0.5 0 0.06 0.5 0 0.08 0.5 0 0.1 0.5 0 0 0.505 0 0.02 0.505 0 0.04 0.505 0 0.06 0.505 0 0.08 0.505 0 0.1 0.505 0 0 0.51 0 0.02 0.51 0 0.04 0.51 0 0.06 0.51 0 0.08 0.51 0 0.1 0.51 0 0 0.515 0 0.02 0.515 0 0.04 0.515 0 0.06 0.515 0 0.08 0.515 0 0.1 0.515 0 0 0.52 0 0.02 0.52 0 0.04 0.52 0 0.06 0.52 0 0.08 0.52 0 0.1 0.52 0 0 0.525 0 0.02 0.525 0 0.04 0.525 0 0.06 0.525 0 0.08 0.525 0 0.1 0.525 0 0 0.53 0 0.02 0.53 0 0.04 0.53 0 0.06 0.53 0 0.08 0.53 0 0.1 0.53 0 0 0.535 0 0.02 0.535 0 0.04 0.535 0 0.06 0.535 0 0.08 0.535 0 0.1 0.535 0 0 0.54 0 0.02 0.54 0 0.04 0.54 0 0.06 0.54 0 0.08 0.54 0 0.1 0.54 0 0 0.545 0 0.02 0.545 0 0.04 0.545 0 0.06 0.545 0 0.08 0.545 0 0.1 0.545 0 0 0.55 0 0.02 0.55 0 0.04 0.55 0 0.06 0.55 0 0.08 0.55 0 0.1 0.55 0 0 0.555 0 0.02 0.555 0 0.04 0.555 0 0.06 0.555 0 0.08 0.555 0 0.1 0.555 0 0 0.56 0 0.02 0.56 0 0.04 0.56 0 0.06 0.56 0 0.08 0.56 0 0.1 0.56 0 0 0.565 0 0.02 0.565 0 0.04 0.565 0 0.06 0.565 0 0.08 0.565 0 0.1 0.565 0 0 0.57 0 0.02 0.57 0 0.04 0.57 0 0.06 0.57 0 0.08 0.57 0 0.1 0.57 0 0 0.575 0 0.02 0.575 0 0.04 0.575 0 0.06 0.575 0 0.08 0.575 0 0.1 0.575 0 0 0.58 0 0.02 0.58 0 0.04 0.58 0 0.06 0.58 0 0.08 0.58 0 0.1 0.58 0 0 0.585 0 0.02 0.585 0 0.04 0.585 0 0.06 0.585 0 0.08 0.585 0 0.1 0.585 0 0 0.59 0 0.02 0.59 0 0.04 0.59 0 0.06 0.59 0 0.08 0.59 0 0.1 0.59 0 0 0.595 0 0.02 0.595 0 0.04 0.595 0 0.06 0.595 0 0.08 0.595 0 0.1 0.595 0 0 0.6 0 0.02 0.6 0 0.04 0.6 0 0.06 0.6 0 0.08 0.6 0 0.1 0.6 0 0 0.605 0 0.02 0.605 0 0.04 0.605 0 0.06 0.605 0 0.08 0.605 0 0.1 0.605 0 0 0.61 0 0.02 0.61 0 0.04 0.61 0 0.06 0.61 0 0.08 0.61 0 0.1 0.61 0 0 0.615 0 0.02 0.615 0 0.04 0.615 0 0.06 0.615 0 0.08 0.615 0 0.1 0.615 0 0 0.62 0 0.02 0.62 0 0.04 0.62 0 0.06 0.62 0 0.08 0.62 0 0.1 0.62 0 0 0.625 0 0.02 0.625 0 0.04 0.625 0 0.06 0.625 0 0.08 0.625 0 0.1 0.625 0 0 0.63 0 0.02 0.63 0 0.04 0.63 0 0.06 0.63 0 0.08 0.63 0 0.1 0.63 0 0 0.635 0 0.02 0.635 0 0.04 0.635 0 0.06 0.635 0 0.08 0.635 0 0.1 0.635 0 0 0.64 0 0.02 0.64 0 0.04 0.64 0 0.06 0.64 0 0.08 0.64 0 0.1 0.64 0 0 0.645 0 0.02 0.645 0 0.04 0.645 0 0.06 0.645 0 0.08 0.645 0 0.1 0.645 0 0 0.65 0 0.02 0.65 0 0.04 0.65 0 0.06 0.65 0 0.08 0.65 0 0.1 0.65 0 0 0.655 0 0.02 0.655 0 0.04 0.655 0 0.06 0.655 0 0.08 0.655 0 0.1 0.655 0 0 0.66 0 0.02 0.66 0 0.04 0.66 0 0.06 0.66 0 0.08 0.66 0 0.1 0.66 0 0 0.665 0 0.02 0.665 0 0.04 0.665 0 0.06 0.665 0 0.08 0.665 0 0.1 0.665 0 0 0.67 0 0.02 0.67 0 0.04 0.67 0 0.06 0.67 0 0.08 0.67 0 0.1 0.67 0 0 0.675 0 0.02 0.675 0 0.04 0.675 0 0.06 0.675 0 0.08 0.675 0 0.1 0.675 0 0 0.68 0 0.02 0.68 0 0.04 0.68 0 0.06 0.68 0 0.08 0.68 0 0.1 0.68 0 0 0.685 0 0.02 0.685 0 0.04 0.685 0 0.06 0.685 0 0.08 0.685 0 0.1 0.685 0 0 0.69 0 0.02 0.69 0 0.04 0.69 0 0.06 0.69 0 0.08 0.69 0 0.1 
[...]
			<PointData Scalars="VitesseX">
				<DataArray Name="VitesseX" type="Float32" format="ascii">
 0 4.45599e-15 -3.58406e-14 1.55867e-15 7.78603e-15 0 0 2.16016e-15 -3.32397e-14 -6.35288e-15 1.63398e-14 0 0 -2.42375e-14 2.82581e-15 -3.34712e-14 3.24313e-14 0 0 1.3571e-14 -3.87813e-14 1.68239e-16 1.63839e-14 0 0 1.25702e-14 -2.77327e-14 -2.69796e-14 3.21e-14 0 0 -5.56066e-14 3.55121e-14 -6.96368e-14 3.99884e-14 0 0 -3.16239e-14 -5.15262e-14 4.88026e-14 -5.66264e-14 0 0 2.70984e-14 -1.25647e-13 1.23815e-13 -1.41643e-13 0 0 8.47405e-15 -7.25563e-14 3.31533e-14 -7.78926e-14 0 0 -5.1918e-14 3.60107e-14 -1.23125e-13 5.67155e-14 0 0 2.85709e-15 -4.17972e-14 -9.55242e-14 6.42878e-14 0 0 -4.81986e-14 -1.88667e-14 -9.53256e-14 1.66226e-14 0 0 3.21933e-14 -1.34053e-13 2.55858e-14 -1.0113e-13 0 0 -2.69536e-14 -6.35522e-14 -4.47047e-15 -8.41866e-14 0 0 -1.02739e-13 -1.04733e-15 -6.74849e-14 -2.31274e-14 0 0 4.96477e-14 -2.39403e-13 1.04641e-13 -8.51883e-14 0 0 -1.30006e-13 2.51682e-14 -7.14515e-14 1.48747e-14 0 0 -7.3725e-14 -3.00186e-15 -7.60108e-14 1.07048e-13 0 0 -5.54381e-14 1.35395e-15 -1.30855e-13 2.04398e-13 0 0 -1.01631e-13 3.48567e-14 -1.19659e-13 1.27659e-13 0 0 6.20003e-14 -2.26458e-13 1.37098e-13 -1.10814e-13 0 0 3.75269e-14 -2.01881e-13 9.27371e-14 -1.17875e-13 0 0 -9.30699e-14 2.42877e-14 -2.00871e-13 3.37382e-14 0 0 -1.58917e-13 1.32345e-13 -3.1988e-13 6.21347e-14 0 0 1.59195e-14 -1.82108e-13 2.9817e-14 -1.87437e-13 0 0 1.98865e-13 -4.54653e-13 2.8085e-13 -3.63506e-13 0 0 9.48401e-15 -1.21008e-13 -7.39619e-14 -1.26549e-13 0 0 -1.3879e-13 1.75836e-13 -3.88617e-13 1.18026e-13 0 0 -2.80192e-14 2.40427e-14 -2.37453e-13 2.21992e-14 0 0 1.09753e-13 -2.46742e-13 5.47068e-14 -1.67976e-13 0 0 3.12384e-15 -1.82324e-13 4.42967e-14 -1.35419e-13 0 0 1.09899e-14 -1.98154e-13 4.50189e-14 -1.44712e-13 0 0 2.41585e-14 -1.47531e-13 -4.49436e-14 -9.73919e-14 0 0 -1.93284e-13 1.78611e-13 -3.48546e-13 1.01632e-13 0 0 1.79675e-14 -1.92532e-13 -2.03727e-15 -1.06601e-13 0 0 9.78824e-14 -3.80471e-13 1.77881e-13 -1.8111e-13 0 0 1.1157e-13 -3.35447e-13 2.253e-14 1.11464e-13 0 0 -1.38184e-13 1.34944e-13 -4.24065e-13 5.23753e-13 0 0 -1.25415e-13 1.10199e-13 -4.03512e-13 5.69414e-13 0 0 5.45117e-14 -2.37583e-13 -8.3077e-14 2.81981e-13 0 0 4.69042e-15 -2.03932e-13 -7.40386e-15 -1.17787e-15 0 0 7.1537e-14 -2.59096e-13 4.51773e-14 -1.76043e-13 0 0 -1.6177e-13 6.98234e-14 -2.12349e-13 -8.85117e-14 0 0 -6.01534e-14 -1.35119e-13 4.95379e-14 -2.6908e-13 0 0 2.3393e-13 -5.47332e-13 3.41875e-13 -4.0953e-13 0 0 -5.5408e-14 -7.11581e-14 -2.20086e-13 2.04536e-14 0 0 1.52597e-14 -3.94502e-14 -4.80136e-13 3.36815e-13 0 0 -1.29737e-14 -2.81621e-14 -4.75837e-13 2.99856e-13 0 0 -1.53235e-13 -2.17985e-14 -2.92549e-13 1.43877e-14 0 0 1.49543e-13 -5.95405e-13 2.69265e-13 -3.68288e-13 0 0 1.3216e-13 -7.07168e-13 4.12511e-13 -4.21449e-13 0 0 1.90863e-13 -7.38956e-13 2.16055e-13 -3.92937e-14 0 0 -3.88243e-13 2.00656e-13 -6.69714e-13 6.04686e-13 0 0 -1.75286e-13 -2.10701e-14 -3.62175e-13 2.7792e-13 0 0 1.86389e-13 -7.23259e-13 2.92225e-13 -1.08169e-13 0 0 -3.34599e-13 -2.18429e-13 -1.18114e-13 1.93988e-13 0 0 1.26283e-13 -6.1788e-13 2.02015e-13 -1.61037e-13 0 0 2.04574e-14 -3.36167e-13 4.51165e-14 -2.20721e-13 0 0 9.34336e-14 -3.77679e-13 1.15834e-13 -2.4517e-13 0 0 3.33275e-13 -7.07713e-13 3.39644e-13 -2.32378e-13 0 0 -2.02067e-13 -9.42801e-14 -2.47688e-13 3.06125e-13 0 0 -2.89457e-13 2.96187e-14 -4.20997e-13 4.36574e-13 0 0 -2.16473e-13 -1.4465e-13 -1.08902e-13 1.47354e-13 0 0 1.16979e-13 -5.51184e-13 5.2523e-13 -5.01074e-13 0 0 5.95049e-14 -4.14966e-13 3.71495e-13 -4.17133e-13 0 0 -2.77315e-13 1.5755e-14 -2.33437e-13 1.83517e-13 0 0 -2.37463e-13 1.90994e-14 -3.73273e-13 3.19681e-13 0 0 -2.33344e-13 -1.31205e-14 -2.72196e-13 1.73637e-13 0 0 1.64853e-13 -4.92785e-13 2.34574e-13 -3.10153e-13 0 0 2.38882e-13 -5.36161e-13 -4.54908e-15 -6.7976e-15 0 0 -4.76901e-13 2.80552e-13 -7.67895e-13 5.83619e-13 0 0 -7.22591e-14 -3.10069e-13 -7.71503e-14 3.79347e-14 0 0 1.27507e-13 -7.41276e-13 3.47227e-13 -7.51024e-14 0 0 1.26145e-13 -8.45392e-13 4.33919e-13 2.10172e-13 0 0 -1.77575e-13 -2.64717e-13 -2.19611e-13 8.51236e-13 0 0 -5.42723e-13 1.75373e-13 -8.01401e-13 1.35775e-12 0 0 1.00733e-13 -8.70585e-13 2.36052e-13 3.44213e-13 0 0 -1.24877e-13 -6.77192e-13 3.16379e-13 -2.49904e-13 0 0 -1.35701e-14 -6.93818e-13 2.7301e-13 -4.43015e-13 0 0 -3.44093e-13 -1.03e-13 -1.87747e-13 -3.16409e-13 0 0 -2.7976e-13 -3.66153e-13 -1.90951e-13 6.18659e-14 0 0 2.53e-13 -1.00071e-12 -2.18766e-13 1.1939e-13 0 0 -6.32055e-13 4.20764e-13 -1.37764e-12 2.93371e-13 0 0 -2.22705e-13 -1.38054e-13 -5.80343e-13 -2.48453e-13 0 0 5.54566e-13 -1.49061e-12 7.91732e-13 -8.9208e-13 0 0 -3.81317e-13 -2.11882e-13 -2.17803e-13 -5.59576e-13 0 0 -6.69344e-13 5.59622e-13 -1.2144e-12 -1.96375e-13 0 0 3.4044e-14 -5.03417e-13 -3.26012e-13 -5.72384e-13 0 0 -3.48937e-14 -5.2812e-13 3.59889e-14 -1.00833e-12 0 0 2.28416e-13 -7.48375e-13 1.76508e-13 -9.96803e-13 0 0 -1.42406e-13 9.86156e-14 -6.26719e-13 -4.63396e-13 0 0 -4.55678e-13 7.47847e-13 -1.34093e-12 -1.59777e-13 0 0 1.5994e-13 -5.48166e-13 -1.34187e-13 -4.70045e-13 0 0 6.46964e-14 -6.51966e-13 2.74506e-13 -8.50787e-13 0 0 3.69415e-13 -8.91108e-13 5.54868e-15 -4.19963e-13 0 0 -7.78275e-13 7.00096e-13 -1.38098e-12 4.04337e-13 0 0 4.81607e-14 -1.71668e-13 -5.55309e-13 -9.53423e-14 0 0 3.58958e-13 -8.1064e-13 1.31035e-13 -3.45953e-13 0 0 -3.80521e-13 -2.99202e-13 4.35529e-13 -7.59514e-13 0 0 3.19435e-13 -8.41891e-13 3.46825e-13 -2.24405e-13 0 0 6.82905e-14 -4.96755e-13 -1.06171e-13 1.72794e-13 0 0 -3.59568e-13 -9.44651e-14 -5.49097e-13 2.60355e-13 0 0 -3.4428e-13 -2.68581e-13 -3.11521e-13 -2.34314e-14 0 0 -2.30206e-13 -5.5256e-13 -6.41068e-14 -2.30294e-13 0 0 -1.26983e-13 -4.34609e-13 -2.36489e-13 -7.64798e-14 0 0 -5.57086e-13 3.28303e-13 -8.84264e-13 3.15867e-13 0 0 -2.67133e-13 -1.10149e-13 -4.35367e-13 9.75487e-14 0 0 2.14314e-13 -9.25854e-13 4.59473e-13 -6.02857e-13 0 0 2.66228e-13 -9.80977e-13 4.88723e-13 -6.56175e-13 0 0 -1.75864e-13 -6.69956e-14 -6.29067e-13 9.12441e-14 0 0 -7.34483e-13 8.83304e-13 -1.55687e-12 5.27365e-13 0 0 -2.0653e-13 -1.36421e-13 -4.92076e-13 -9.30245e-14 0 0 3.32764e-13 -1.04111e-12 5.69048e-13 -1.09875e-12 0 0 3.5174e-13 -1.00243e-12 4.5813e-13 -1.12301e-12 0 0 -2.47562e-13 5.2753e-14 -6.72952e-13 -2.9226e-13 0 0 -7.50499e-13 7.74651e-13 -1.3062e-12 1.108e-13 0 0 -2.83069e-13 -2.79646e-13 -2.49293e-13 -2.84319e-13 0 0 3.94402e-13 -1.24641e-12 6.98716e-13 -1.03606e-12 0 0 -1.48458e-13 -3.0491e-13 -2.91598e-13 -4.96414e-13 0 0 -1.63545e-13 -4.15161e-13 -4.58189e-13 1.12484e-13 0 0 -3.7235e-13 -2.17204e-13 -5.32436e-13 6.86063e-14 0 0 -5.86533e-13 -1.90495e-13 -3.82253e-13 -1.82227e-14 0 0 4.0358e-13 -1.52129e-12 6.7698e-13 -7.32497e-13 0 0 -3.60423e-13 -7.34777e-14 -7.53466e-13 -1.89719e-13 0 0 -3.13436e-13 -2.17421e-13 -7.32941e-13 2.64009e-13 0 0 -3.28347e-13 -2.68529e-13 -4.7909e-13 1.68093e-14 0 0 -5.74934e-13 -2.41625e-13 -3.25036e-13 -9.81224e-14 0 0 4.70918e-13 -1.71236e-12 8.49475e-13 -8.13549e-13 0 0 -2.38944e-13 -4.05714e-13 -3.83393e-13 -3.13789e-13 0 0 -3.00396e-13 -3.71317e-13 -5.04486e-13 1.71911e-13 0 0 -2.95208e-13 -4.19581e-13 -3.05579e-13 -7.71069e-14 0 0 -5.56198e-13 -3.83663e-13 -1.52381e-13 -1.92583e-13 0 0 3.81802e-13 -1.62561e-12 9.05718e-13 -9.55099e-13 0 0 -2.94755e-13 -2.53499e-13 -3.53178e-13 -5.60823e-13 0 0 -2.6393e-13 -3.32326e-13 -5.32376e-13 6.44311e-14 0 0 -2.37338e-13 -3.67975e-13 -4.66387e-13 1.71713e-14 0 0 -4.5957e-13 -2.98088e-13 -3.76884e-13 -6.03867e-14 0 0 4.33885e-13 -1.50263e-12 5.90013e-13 -6.8372e-13 0 0 -1.44118e-13 -2.60143e-13 -5.67458e-13 -4.07885e-13 0 0 -2.50469e-13 -1.60336e-13 -5.99052e-13 -1.98902e-13 0 0 -3.72174e-14 -6.55165e-13 -2.81245e-13 -1.94381e-13 0 0 -7.64742e-13 4.42385e-13 -1.42278e-12 2.22359e-13 0 0 3.4516e-13 -1.07553e-12 1.30256e-13 -9.30699e-13 0 0 5.87768e-13 -1.5955e-12 5.22286e-13 -9.54906e-13 0 0 -8.85174e-13 4.68779e-13 -1.74149e-12 5.36101e-13 0 0 -3.49293e-13 -4.59516e-13 -1.09004e-12 4.31203e-13 0 0 -4.68908e-13 -4.90219e-13 -6.95659e-13 -2.28347e-14 0 0 1.03907e-13 -1.12926e-12 2.26252e-13 -8.48313e-13 0 0 5.0933e-13 -1.65738e-12 4.51809e-13 -4.19548e-13 0 0 -9.2514e-13 4.99141e-13 -2.05704e-12 1.67813e-12 0 0 -3.43044e-13 -4.57686e-13 -1.30222e-12 1.57146e-12 0 0 -4.13885e-13 -6.5483e-13 -5.08568e-13 2.37339e-13 0 0 1.5792e-13 -1.17397e-12 2.51366e-13 -1.27223e-12 0 0 1.83596e-13 -1.15241e-12 1.82694e-13 -1.40132e-12 0 0 -4.26346e-13 -4.93201e-13 -6.44485e-13 -4.00314e-13 0 0 -4.55722e-13 -3.05921e-13 -7.21575e-13 -3.21136e-13 0 0 -5.00811e-13 -3.39659e-13 -3.32763e-13 -4.89039e-13 0 0 4.31874e-13 -1.60684e-12 6.78986e-13 -8.26482e-13 0 0 -1.02753e-13 -4.07294e-13 -9.00521e-13 1.32059e-13 0 0 -5.88607e-13 5.92669e-13 -2.47327e-12 1.36538e-12 0 0 -7.15583e-13 6.50899e-13 -2.22947e-12 7.79575e-13 0 0 -4.54633e-14 -1.19932e-12 4.29671e-13 -9.65498e-13 0 0 6.71709e-13 -2.52015e-12 1.89267e-12 -2.23203e-12 0 0 -2.3014e-13 -6.78598e-13 -4.79253e-13 -1.01949e-12 0 0 -8.02899e-13 6.60703e-13 -2.42666e-12 6.60435e-13 0 0 -6.58031e-13 5.47929e-13 -2.15706e-12 3.57799e-13 0 0 3.13262e-14 -1.01042e-12 -2.93701e-13 -7.92703e-13 0 0 5.41858e-13 -2.03686e-12 8.76797e-13 -2.36874e-12 0 0 -4.20376e-13 -5.36278e-13 -3.04721e-13 -2.47424e-12 0 0 -1.00974e-13 -1.01953e-12 2.01247e-13 -1.86899e-12 0 0 5.26998e-14 -1.06914e-12 1.01826e-13 -1.20902e-12 0 0 -9.74351e-13 6.25722e-13 -1.95002e-12 7.71402e-14 0 0 -1.79202e-14 -6.80123e-13 -1.19391e-12 -3.04864e-13 0 0 -1.90992e-13 -6.52588e-13 -6.42687e-13 -8.52366e-13 0 0 -3.67355e-14 -1.20601e-12 3.51941e-13 -1.03782e-12 0 0 1.70756e-13 -1.23371e-12 7.31774e-14 -8.518e-13 0 0 -8.41234e-13 5.18062e-13 -1.98276e-12 1.28664e-13 0 0 6.50037e-14 -7.66007e-13 -1.14725e-12 -2.03131e-13 0 0 -4.70708e-14 -7.96642e-13 -5.21399e-13 -9.99216e-13 0 0 -6.97122e-14 -1.09824e-12 3.36257e-13 -1.23164e-12 0 0 1.3782e-13 -1.23208e-12 1.08977e-13 -7.56454e-13 0 0 -8.36576e-13 4.72754e-13 -2.10611e-12 3.84114e-13 0 0 -6.26619e-14 -5.9098e-13 -1.4903e-12 -7.48327e-15 0 0 -1.3882e-13 -7.91229e-13 -6.03604e-13 -7.95921e-13 0 0 -8.4502e-14 -1.1575e-12 2.38099e-13 -8.75254e-13 0 0 1.3083e-13 -1.14311e-12 -2.13105e-13 -4.56689e-13 0 0 -9.39042e-13 6.88268e-13 -2.35336e-12 6.18709e-13 0 0 -1.58591e-14 -6.26309e-13 -1.36592e-12 1.58485e-13 0 0 -7.87687e-14 -7.90991e-13 -6.88903e-13 -5.32104e-13 0 0 1.59555e-13 -1.37712e-12 9.54957e-14 -8.52461e-13 0 0 4.81837e-13 -1.32857e-12 -8.41268e-13 -4.04725e-13 0 0 -1.29931e-12 1.33271e-12 -3.49767e-12 6.69159e-13 0 0 6.36097e-13 -1.79452e-12 1.7718e-13 -1.33348e-12 0 0 1.30183e-12 -3.03083e-12 1.76909e-12 -1.94765e-12 0 0 -7.79015e-13 3.29009e-14 -1.76256e-12 4.94181e-13 0 0 -8.56083e-13 4.28218e-13 -3.04475e-12 1.59631e-12 0 0 -1.30499e-12 7.27774e-13 -2.90408e-12 1.38705e-12 0 0 5.80853e-13 -2.35362e-12 9.05414e-13 -9.76447e-13 0 0 8.12304e-13 -2.76243e-12 1.42179e-12 -1.24077e-12 0 0 -1.01088e-12 2.83132e-13 -2.47552e-12 1.30524e-12 0 0 -7.83748e-13 3.43703e-13 -3.35029e-12 2.1002e-12 0
				</DataArray>
				<DataArray Name="VitesseY" type="Float32" format="ascii">