<?xml version="1.0"?>
<VTKFile type="PolyData">
	<PolyData>
		<Piece NumberOfPoints="1206" NumberOfPolys="1000">
			<Points>
				<DataArray type="Float32" NumberOfComponents="3" format="ascii">
 0 0 0 0.02 0 0 0.04 0 0 0.06 0 0 0.08 0 0 0.1 0 0 0 0.005 0 0.02 0.005 0 0.04 0.005 0 0.06 0.005 0 0.08 0.005 0 0.1 0.005 0 0 0.01 0 0.02 0.01 0 0.04 0.01 0 0.06 0.01 0 0.08 0.01 0 0.1 0.01 0 0 0.015 0 0.02 0.015 0 0.04 0.015 0 0.06 0.015 0 0.08 0.015 0 0.1 0.015 0 0 0.02 0 0.02 0.02 0 0.04 0.02 0 0.06 0.02 0 0.08 0.02 0 0.1 0.02 0 0 0.025 0 0.02 0.025 0 0.04 0.025 0 0.06 0.025 0 0.08 0.025 0 0.1 0.025 0 0 0.03 0 0.02 0.03 0 0.04 0.03 0 0.06 0.03 0 0.08 0.03 0 0.1 0.03 0 0 0.035 0 0.02 0.035 0 0.04 0.035 0 0.06 0.035 0 0.08 0.035 0 0.1 0.035 0 0 0.04 0 0.02 0.04 0 0.04 0.04 0 0.06 0.04 0 0.08 0.04 0 0.1 0.04 0 0 0.045 0 0.02 0.045 0 0.04 0.045 0 0.06 0.045 0 0.08 0.045 0 0.1 0.045 0 0 0.05 0 0.02 0.05 0 0.04 0.05 0 0.06 0.05 0 0.08 0.05 0 0.1 0.05 0 0 0.055 0 0.02 0.055 0 0.04 0.055 0 0.06 0.055 0 0.08 0.055 0 0.1 0.055 0 0 0.06 0 0.02 0.06 0 0.04 0.06 0 0.06 0.06 0 0.08 0.06 0 0.1 0.06 0 0 0.065 0 0.02 0.065 0 0.04 0.065 0 0.06 0.065 0 0.08 0.065 0 0.1 0.065 0 0 0.07 0 0.02 0.07 0 0.04 0.07 0 0.06 0.07 0 0.08 0.07 0 0.1 0.07 0 0 0.075 0 0.02 0.075 0 0.04 0.075 0 0.06 0.075 0 0.08 0.075 0 0.1 0.075 0 0 0.08 0 0.02 0.08 0 0.04 0.08 0 0.06 0.08 0 0.08 0.08 0 0.1 0.08 0 0 0.085 0 0.02 0.085 0 0.04 0.085 0 0.06 0.085 0 0.08 0.085 0 0.1 0.085 0 0 0.09 0 0.02 0.09 0 0.04 0.09 0 0.06 0.09 0 0.08 0.09 0 0.1 0.09 0 0 0.095 0 0.02 0.095 0 0.04 0.095 0 0.06 0.095 0 0.08 0.095 0 0.1 0.095 0 0 0.1 0 0.02 0.1 0 0.04 0.1 0 0.06 0.1 0 0.08 0.1 0 0.1 0.1 0 0 0.105 0 0.02 0.105 0 0.04 0.105 0 0.06 0.105 0 0.08 0.105 0 0.1 0.105 0 0 0.11 0 0.02 0.11 0 0.04 0.11 0 0.06 0.11 0 0.08 0.11 0 0.1 0.11 0 0 0.115 0 0.02 0.115 0 0.04 0.115 0 0.06 0.115 0 0.08 0.115 0 0.1 0.115 0 0 0.12 0 0.02 0.12 0 0.04 0.12 0 0.06 0.12 0 0.08 0.12 0 0.1 0.12 0 0 0.125 0 0.02 0.125 0 0.04 0.125 0 0.06 0.125 0 0.08 0.125 0 0.1 0.125 0 0 0.13 0 0.02 0.13 0 0.04 0.13 0 0.06 0.13 0 0.08 0.13 0 0.1 0.13 0 0 0.135 0 0.02 0.135 0 0.04 0.135 0 0.06 0.135 0 0.08 0.135 0 0.1 0.135 0 0 0.14 0 0.02 0.14 0 0.04 0.14 0 0.06 0.14 0 0.08 0.14 0 0.1 0.14 0 0 0.145 0 0.02 0.145 0 0.04 0.145 0 0.06 0.145 0 0.08 0.145 0 0.1 0.145 0 0 0.15 0 0.02 0.15 0 0.04 0.15 0 0.06 0.15 0 0.08 0.15 0 0.1 0.15 0 0 0.155 0 0.02 0.155 0 0.04 0.155 0 0.06 0.155 0 0.08 0.155 0 0.1 0.155 0 0 0.16 0 0.02 0.16 0 0.04 0.16 0 0.06 0.16 0 0.08 0.16 0 0.1 0.16 0 0 0.165 0 0.02 0.165 0 0.04 0.165 0 0.06 0.165 0 0.08 0.165 0 0.1 0.165 0 0 0.17 0 0.02 0.17 0 0.04 0.17 0 0.06 0.17 0 0.08 0.17 0 0.1 0.17 0 0 0.175 0 0.02 0.175 0 0.04 0.175 0 0.06 0.175 0 0.08 0.175 0 0.1 0.175 0 0 0.18 0 0.02 0.18 0 0.04 0.18 0 0.06 0.18 0 0.08 0.18 0 0.1 0.18 0 0 0.185 0 0.02 0.185 0 0.04 0.185 0 0.06 0.185 0 0.08 0.185 0 0.1 0.185 0 0 0.19 0 0.02 0.19 0 0.04 0.19 0 0.06 0.19 0 0.08 0.19 0 0.1 0.19 0 0 0.195 0 0.02 0.195 0 0.04 0.195 0 0.06 0.195 0 0.08 0.195 0 0.1 0.195 0 0 0.2 0 0.02 0.2 0 0.04 0.2 0 0.06 0.2 0 0.08 0.2 0 0.1 0.2 0 0 0.205 0 0.02 0.205 0 0.04 0.205 0 0.06 0.205 0 0.08 0.205 0 0.1 0.205 0 0 0.21 0 0.02 0.21 0 0.04 0.21 0 0.06 0.21 0 0.08 0.21 0 0.1 0.21 0 0 0.215 0 0.02 0.215 0 0.04 0.215 0 0.06 0.215 0 0.08 0.215 0 0.1 0.215 0 0 0.22 0 0.02 0.22 0 0.04 0.22 0 0.06 0.22 0 0.08 0.22 0 0.1 0.22 0 0 0.225 0 0.02 0.225 0 0.04 0.225 0 0.06 0.225 0 0.08 0.225 0 0.1 0.225 0 0 0.23 0 0.02 0.23 0 0.04 0.23 0 0.06 0.23 0 0.08 0.23 0 0.1 0.23 0 0 0.235 0 0.02 0.235 0 0.04 0.235 0 0.06 0.235 0 0.08 0.235 0 0.1 0.235 0 0 0.24 0 0.02 0.24 0 0.04 0.24 0 0.06 0.24 0 0.08 0.24 0 0.1 0.24 0 0 0.245 0 0.02 0.245 0 0.04 0.245 0 0.06 0.245 0 0.08 0.245 0 0.1 0.245 0 0 0.25 0 0.02 0.25 0 0.04 0.25 0 0.06 0.25 0 0.08 0.25 0 0.1 0.25 0 0 0.255 0 0.02 0.255 0 0.04 0.255 0 0.06 0.255 0 0.08 0.255 0 0.1 0.255 0 0 0.26 0 0.02 0.26 0 0.04 0.26 0 0.06 0.26 0 0.08 0.26 0 0.1 0.26 0 0 0.265 0 0.02 0.265 0 0.04 0.265 0 0.06 0.265 0 0.08 0.265 0 0.1 0.265 0 0 0.27 0 0.02 0.27 0 0.04 0.27 0 0.06 0.27 0 0.08 0.27 0 0.1 0.27 0 0 0.275 0 0.02 0.275 0 0.04 0.275 0 0.06 0.275 0 0.08 0.275 0 0.1 0.275 0 0 0.28 0 0.02 0.28 0 0.04 0.28 0 0.06 0.28 0 0.08 0.28 0 0.1 0.28 0 0 0.285 0 0.02 0.285 0 0.04 0.285 0 0.06 0.285 0 0.08 0.285 0 0.1 0.285 0 0 0.29 0 0.02 0.29 0 0.04 0.29 0 0.06 0.29 0 0.08 0.29 0 0.1 0.29 0 0 0.295 0 0.02 0.295 0 0.04 0.295 0 0.06 0.295 0 0.08 0.295 0 0.1 0.295 0 0 0.3 0 0.02 0.3 0 0.04 0.3 0 0.06 0.3 0 0.08 0.3 0 0.1 0.3 0 0 0.305 0 0.02 0.305 0 0.04 0.305 0 0.06 0.305 0 0.08 0.305 0 0.1 0.305 0 0 0.31 0 0.02 0.31 0 0.04 0.31 0 0.06 0.31 0 0.08 0.31 0 0.1 0.31 0 0 0.315 0 0.02 0.315 0 0.04 0.315 0 0.06 0.315 0 0.08 0.315 0 0.1 0.315 0 0 0.32 0 0.02 0.32 0 0.04 0.32 0 0.06 0.32 0 0.08 0.32 0 0.1 0.32 0 0 0.325 0 0.02 0.325 0 0.04 0.325 0 0.06 0.325 0 0.08 0.325 0 0.1 0.325 0 0 0.33 0 0.02 0.33 0 0.04 0.33 0 0.06 0.33 0 0.08 0.33 0 0.1 0.33 0 0 0.335 0 0.02 0.335 0 0.04 0.335 0 0.06 0.335 0 0.08 0.335 0 0.1 0.335 0 0 0.34 0 0.02 0.34 0 0.04 0.34 0 0.06 0.34 0 0.08 0.34 0 0.1 0.34 0 0 0.345 0 0.02 0.345 0 0.04 0.345 0 0.06 0.345 0 0.08 0.345 0 0.1 0.345 0 0 0.35 0 0.02 0.35 0 0.04 0.35 0 0.06 0.35 0 0.08 0.35 0 0.1 0.35 0 0 0.355 0 0.02 0.355 0 0.04 0.355 0 0.06 0.355 0 0.08 0.355 0 0.1 0.355 0 0 0.36 0 0.02 0.36 0 0.04 0.36 0 0.06 0.36 0 0.08 0.36 0 0.1 0.36 0 0 0.365 0 0.02 0.365 0 0.04 0.365 0 0.06 0.365 0 0.08 0.365 0 0.1 0.365 0 0 0.37 0 0.02 0.37 0 0.04 0.37 0 0.06 0.37 0 0.08 0.37 0 0.1 0.37 0 0 0.375 0 0.02 0.375 0 0.04 0.375 0 0.06 0.375 0 0.08 0.375 0 0.1 0.375 0 0 0.38 0 0.02 0.38 0 0.04 0.38 0 0.06 0.38 0 0.08 0.38 0 0.1 0.38 0 0 0.385 0 0.02 0.385 0 0.04 0.385 0 0.06 0.385 0 0.08 0.385 0 0.1 0.385 0 0 0.39 0 0.02 0.39 0 0.04 0.39 0 0.06 0.39 0 0.08 0.39 0 0.1 0.39 0 0 0.395 0 0.02 0.395 0 0.04 0.395 0 0.06 0.395 0 0.08 0.395 0 0.1 0.395 0 0 0.4 0 0.02 0.4 0 0.04 0.4 0 0.06 0.4 0 0.08 0.4 0 0.1 0.4 0 0 0.405 0 0.02 0.405 0 0.04 0.405 0 0.06 0.405 0 0.08 0.405 0 0.1 0.405 0 0 0.41 0 0.02 0.41 0 0.04 0.41 0 0.06 0.41 0 0.08 0.41 0 0.1 0.41 0 0 0.415 0 0.02 0.415 0 0.04 0.415 0 0.06 0.415 0 0.08 0.415 0 0.1 0.415 0 0 0.42 0 0.02 0.42 0 0.04 0.42 0 0.06 0.42 0 0.08 0.42 0 0.1 0.42 0 0 0.425 0 0.02 0.425 0 0.04 0.425 0 0.06 0.425 0 0.08 0.425 0 0.1 0.425 0 0 0.43 0 0.02 0.43 0 0.04 0.43 0 0.06 0.43 0 0.08 0.43 0 0.1 0.43 0 0 0.435 0 0.02 0.435 0 0.04 0.435 0 0.06 0.435 0 0.08 0.435 0 0.1 0.435 0 0 0.44 0 0.02 0.44 0 0.04 0.44 0 0.06 0.44 0 0.08 0.44 0 0.1 0.44 0 0 0.445 0 0.02 0.445 0 0.04 0.445 0 0.06 0.445 0 0.08 0.445 0 0.1 0.445 0 0 0.45 0 0.02 0.45 0 0.04 0.45 0 0.06 0.45 0 0.08 0.45 0 0.1 0.45 0 0 0.455 0 0.02 0.455 0 0.04 0.455 0 0.06 0.455 0 0.08 0.455 0 0.1 0.455 0 0 0.46 0 0.02 0.46 0 0.04 0.46 0 0.06 0.46 0 0.08 0.46 0 0.1 0.46 0 0 0.465 0 0.02 0.465 0 0.04 0.465 0 0.06 0.465 0 0.08 0.465 0 0.1 0.465 0 0 0.47 0 0.02 0.47 0 0.04 0.47 0 0.06 0.47 0 0.08 0.47 0 0.1 0.47 0 0 0.475 0 0.02 0.475 0 0.04 0.475 0 0.06 0.475 0 0.08 0.475 0 0.1 0.475 0 0 0.48 0 0.02 0.48 0 0.04 0.48 0 0.06 0.48 0 0.08 0.48 0 0.1 0.48 0 0 0.485 0 0.02 0.485 0 0.04 0.485 0 0.06 0.485 0 0.08 0.485 0 0.1 0.485 0 0 0.49 0 0.02 0.49 0 0.04 0.49 0 0.06 0.49 0 0.08 0.49 0 0.1 0.49 0 0 0.495 0 0.02 0.495 0 0.04 0.495 0 0.06 0.495 0 0.08 0.495 0 0.1 0.495 0 0 0.5 0 0.02 0.5 0 0.04 0.5 0 0.06 0.5 0 0.08 0.5 0 0.1 0.5 0 0 0.505 0 0.02 0.505 0 0.04 0.505 0 0.06 0.505 0 0.08 0.505 0 0.1 0.505 0 0 0.51 0 0.02 0.51 0 0.04 0.51 0 0.06 0.51 0 0.08 0.51 0 0.1 0.51 0 0 0.515 0 0.02 0.515 0 0.04 0.515 0 0.06 0.515 0 0.08 0.515 0 0.1 0.515 0 0 0.52 0 0.02 0.52 0 0.04 0.52 0 0.06 0.52 0 0.08 0.52 0 0.1 0.52 0 0 0.525 0 0.02 0.525 0 0.04 0.525 0 0.06 0.525 0 0.08 0.525 0 0.1 0.525 0 0 0.53 0 0.02 0.53 0 0.04 0.53 0 0.06 0.53 0 0.08 0.53 0 0.1 0.53 0 0 0.535 0 0.02 0.535 0 0.04 0.535 0 0.06 0.535 0 0.08 0.535 0 0.1 0.535 0 0 0.54 0 0.02 0.54 0 0.04 0.54 0 0.06 0.54 0 0.08 0.54 0 0.1 0.54 0 0 0.545 0 0.02 0.545 0 0.04 0.545 0 0.06 0.545 0 0.08 0.545 0 0.1 0.545 0 0 0.55 0 0.02 0.55 0 0.04 0.55 0 0.06 0.55 0 0.08 0.55 0 0.1 0.55 0 0 0.555 0 0.02 0.555 0 0.04 0.555 0 0.06 0.555 0 0.08 0.555 0 0.1 0.555 0 0 0.56 0 0.02 0.56 0 0.04 0.56 0 0.06 0.56 0 0.08 0.56 0 0.1 0.56 0 0 0.565 0 0.02 0.565 0 0.04 0.565 0 0.06 0.565 0 0.08 0.565 0 0.1 0.565 0 0 0.57 0 0.02 0.57 0 0.04 0.57 0 0.06 0.57 0 0.08 0.57 0 0.1 0.57 0 0 0.575 0 0.02 0.575 0 0.04 0.575 0 0.06 0.575 0 0.08 0.575 0 0.1 0.575 0 0 0.58 0 0.02 0.58 0 0.04 0.58 0 0.06 0.58 0 0.08 0.58 0 0.1 0.58 0 0 0.585 0 0.02 0.585 0 0.04 0.585 0 0.06 0.585 0 0.08 0.585 0 0.1 0.585 0 0 0.59 0 0.02 0.59 0 0.04 0.59 0 0.06 0.59 0 0.08 0.59 0 0.1 0.59 0 0 0.595 0 0.02 0.595 0 0.04 0.595 0 0.06 0.595 0 0.08 0.595 0 0.1 0.595 0 0 0.6 0 0.02 0.6 0 0.04 0.6 0 0.06 0.6 0 0.08 0.6 0 0.1 0.6 0 0 0.605 0 0.02 0.605 0 0.04 0.605 0 0.06 0.605 0 0.08 0.605 0 0.1 0.605 0 0 0.61 0 0.02 0.61 0 0.04 0.61 0 0.06 0.61 0 0.08 0.61 0 0.1 0.61 0 0 0.615 0 0.02 0.615 0 0.04 0.615 0 0.06 0.615 0 0.08 0.615 0 0.1 0.615 0 0 0.62 0 0.02 0.62 0 0.04 0.62 0 0.06 0.62 0 0.08 0.62 0 0.1 0.62 0 0 0.625 0 0.02 0.625 0 0.04 0.625 0 0.06 0.625 0 0.08 0.625 0 0.1 0.625 0 0 0.63 0 0.02 0.63 0 0.04 0.63 0 0.06 0.63 0 0.08 0.63 0 0.1 0.63 0 0 0.635 0 0.02 0.635 0 0.04 0.635 0 0.06 0.635 0 0.08 0.635 0 0.1 0.635 0 0 0.64 0 0.02 0.64 0 0.04 0.64 0 0.06 0.64 0 0.08 0.64 0 0.1 0.64 0 0 0.645 0 0.02 0.645 0 0.04 0.645 0 0.06 0.645 0 0.08 0.645 0 0.1 0.645 0 0 0.65 0 0.02 0.65 0 0.04 0.65 0 0.06 0.65 0 0.08 0.65 0 0.1 0.65 0 0 0.655 0 0.02 0.655 0 0.04 0.655 0 0.06 0.655 0 0.08 0.655 0 0.1 0.655 0 0 0.66 0 0.02 0.66 0 0.04 0.66 0 0.06 0.66 0 0.08 0.66 0 0.1 0.66 0 0 0.665 0 0.02 0.665 0 0.04 0.665 0 0.06 0.665 0 0.08 0.665 0 0.1 0.665 0 0 0.67 0 0.02 0.67 0 0.04 0.67 0 0.06 0.67 0 0.08 0.67 0 0.1 0.67 0 0 0.675 0 0.02 0.675 0 0.04 0.675 0 0.06 0.675 0 0.08 0.675 0 0.1 0.675 0 0 0.68 0 0.02 0.68 0 0.04 0.68 0 0.06 0.68 0 0.08 0.68 0 0.1 0.68 0 0 0.685 0 0.02 0.685 0 0.04 0.685 0 0.06 0.685 0 0.08 0.685 0 0.1 0.685 0 0 0.69 0 0.02 0.69 0 0.04 0.69 0 0.06 0.69 0 0.08 0.69 0 0.1 
[...]
			<PointData Scalars="VitesseX">
				<DataArray Name="VitesseX" type="Float32" format="ascii">
 0 8.46662e-16 6.09815e-14 4.37913e-14 2.51596e-15 0 0 1.33074e-14 4.80736e-14 4.50486e-14 4.96993e-15 0 0 2.43733e-14 4.20216e-14 2.78416e-14 2.12975e-14 0 0 3.99365e-14 1.52143e-14 3.55179e-14 2.08332e-14 0 0 4.23323e-14 -3.12437e-15 4.19765e-14 1.6096e-14 0 0 1.39363e-14 2.67973e-14 1.08066e-14 2.87972e-14 0 0 -6.73529e-15 4.76069e-14 -8.81798e-15 3.86043e-14 0 0 -2.80534e-15 3.79163e-14 -1.39802e-15 3.86307e-14 0 0 1.20991e-14 1.65998e-14 1.94057e-14 2.94498e-14 0 0 2.03981e-14 -8.40997e-16 3.59112e-14 1.72996e-14 0 0 2.16178e-14 -4.66363e-17 4.60055e-14 -7.47195e-15 0 0 -1.2363e-15 4.39669e-14 8.17412e-15 5.15481e-16 0 0 2.46032e-14 -1.31895e-15 5.16618e-14 -2.22581e-14 0 0 7.42661e-16 3.2695e-14 2.19451e-14 -1.69625e-15 0 0 -2.36812e-14 7.68114e-14 -2.98742e-14 4.44604e-14 0 0 1.91819e-14 1.62951e-14 1.82529e-14 3.65394e-14 0 0 3.03869e-14 -9.16976e-15 5.44054e-14 3.98619e-14 0 0 4.72826e-14 -3.18781e-14 1.04398e-13 3.20679e-14 0 0 1.54488e-14 4.44839e-14 3.493e-14 9.35211e-14 0 0 7.28241e-15 7.50662e-14 -2.1596e-15 1.21619e-13 0 0 -2.78492e-15 1.05376e-13 -2.62352e-14 1.11472e-13 0 0 -7.22707e-15 1.28966e-13 -4.56273e-14 1.10699e-13 0 0 4.34934e-14 4.08762e-14 5.46789e-14 3.58319e-14 0 0 5.40486e-14 1.41602e-14 9.51027e-14 -1.41375e-14 0 0 1.74398e-14 8.34913e-14 4.0819e-14 -2.20215e-14 0 0 1.15814e-14 1.08023e-13 2.49242e-14 -3.89804e-14 0 0 2.4281e-14 9.25183e-14 1.81422e-14 -6.65711e-15 0 0 4.24559e-14 4.71955e-14 6.84075e-14 -2.82762e-14 0 0 4.30401e-14 4.47904e-14 9.37748e-14 -6.90181e-14 0 0 4.19574e-14 6.15316e-14 5.28767e-14 -3.13229e-14 0 0 5.12829e-14 3.23856e-14 8.20074e-14 -3.99592e-14 0 0 1.05651e-14 7.50583e-14 6.96419e-14 -4.87718e-14 0 0 9.59826e-16 1.2924e-13 -2.24321e-14 2.991e-14 0 0 3.71263e-14 1.00514e-13 -4.32906e-15 1.96539e-14 0 0 3.35657e-14 8.57316e-14 5.32972e-14 -2.64905e-14 0 0 -1.64193e-14 1.46505e-13 4.01941e-14 -4.39902e-14 0 0 2.53174e-14 8.37823e-14 8.12188e-14 -4.65903e-14 0 0 3.95112e-14 8.71415e-14 2.8337e-15 1.00441e-13 0 0 6.98785e-14 5.68651e-14 3.68456e-15 1.39331e-13 0 0 1.11951e-13 6.524e-15 5.53944e-14 9.12336e-14 0 0 5.11078e-14 6.30051e-14 4.10464e-14 8.43437e-14 0 0 -3.58596e-15 7.50533e-14 8.53203e-14 4.94188e-14 0 0 -8.35856e-14 1.60912e-13 2.72422e-14 7.19839e-14 0 0 -1.52338e-13 2.63875e-13 -7.14311e-14 1.1078e-13 0 0 -9.29634e-14 1.61226e-13 1.83943e-14 5.95952e-14 0 0 -1.9928e-14 1.86416e-14 1.20852e-13 4.81317e-14 0 0 1.17498e-14 -4.88193e-14 2.27061e-13 -1.56189e-14 0 0 -4.63023e-15 -3.4413e-14 3.17159e-13 -1.14501e-13 0 0 -1.16304e-13 1.63156e-13 1.75373e-13 -6.87378e-14 0 0 -2.28033e-13 3.57562e-13 -2.56648e-14 4.59371e-14 0 0 -2.8677e-13 4.13889e-13 -6.56684e-14 7.67826e-14 0 0 -2.36738e-13 3.36201e-13 1.32958e-14 2.81822e-14 0 0 -8.43697e-14 1.48502e-13 1.03324e-13 5.79995e-14 0 0 6.84107e-15 -8.48709e-15 2.70121e-13 1.06285e-14 0 0 -1.02148e-13 1.75555e-13 1.9191e-13 1.57055e-14 0 0 -2.66069e-13 4.59956e-13 -4.63061e-14 1.36983e-13 0 0 -1.81427e-13 3.13374e-13 7.81147e-14 8.86628e-14 0 0 -5.21514e-14 1.01941e-13 2.37021e-13 5.39382e-14 0 0 -5.02461e-14 1.24406e-13 1.25369e-13 1.55886e-13 0 0 -6.55493e-14 1.69811e-13 8.3431e-14 1.4795e-13 0 0 -6.95011e-14 1.37916e-13 2.00152e-13 1.79536e-14 0 0 5.46529e-14 -6.5268e-14 3.74987e-13 -6.3688e-14 0 0 6.69412e-15 5.2772e-14 2.30777e-13 5.58341e-14 0 0 -4.20752e-15 2.02455e-13 5.34192e-14 1.85694e-13 0 0 5.98859e-14 2.03046e-13 5.91805e-14 2.29024e-13 0 0 7.27267e-14 1.45596e-13 1.59572e-13 1.86483e-13 0 0 6.14181e-14 3.7277e-14 3.19456e-13 1.26723e-13 0 0 -2.60627e-14 2.47505e-13 1.16347e-13 3.00094e-13 0 0 1.49772e-14 3.46879e-13 5.35336e-15 3.29789e-13 0 0 2.46372e-14 2.56167e-13 2.48563e-13 5.91072e-14 0 0 -1.53809e-13 3.6791e-13 2.4949e-13 -1.39199e-14 0 0 -1.91391e-13 3.23865e-13 3.13906e-13 -3.75892e-14 0 0 -2.72123e-13 3.87856e-13 2.97923e-13 4.50309e-14 0 0 -3.03158e-13 3.79249e-13 3.34755e-13 7.80319e-14 0 0 -2.69683e-13 3.35835e-13 3.12562e-13 1.49377e-13 0 0 -1.6908e-13 2.20383e-13 3.12372e-13 1.65284e-13 0 0 -9.82016e-14 1.18619e-13 4.5343e-13 -6.00812e-14 0 0 -4.67239e-13 7.40812e-13 -9.33016e-14 2.48152e-13 0 0 -1.44991e-13 3.0262e-13 2.43688e-13 2.22122e-13 0 0 -2.6654e-13 3.98582e-13 3.07748e-13 2.11186e-13 0 0 -4.48132e-13 6.51257e-13 3.27791e-13 9.38154e-14 0 0 1.99908e-13 -7.66e-14 9.64725e-13 -3.55664e-13 0 0 2.73096e-13 2.3203e-13 4.69509e-13 -9.15328e-14 0 0 2.53177e-13 3.76719e-13 5.02542e-14 3.04199e-13 0 0 4.53029e-13 2.75166e-13 1.59637e-13 1.57477e-13 0 0 2.09555e-13 5.95328e-13 2.2587e-13 -1.45697e-13 0 0 7.56514e-14 7.81471e-13 1.36361e-13 -2.28298e-13 0 0 2.42115e-13 5.66542e-13 3.59468e-13 -4.7343e-13 0 0 4.31623e-13 3.90153e-13 3.90372e-13 -4.18415e-13 0 0 4.29633e-13 4.4619e-13 2.79858e-13 -2.16042e-13 0 0 2.82475e-13 7.43133e-13 -1.09391e-13 2.28367e-13 0 0 2.95398e-13 7.5293e-13 -2.65089e-13 5.2988e-13 0 0 3.60238e-13 7.10714e-13 -2.25426e-13 5.25966e-13 0 0 4.39585e-13 5.75483e-13 -1.96192e-14 3.9235e-13 0 0 6.23535e-13 2.58815e-13 3.2378e-13 1.40499e-13 0 0 6.87954e-13 2.71952e-14 5.37114e-13 4.04799e-14 0 0 6.59858e-13 4.68883e-14 5.33325e-13 8.3285e-14 0 0 5.83896e-13 1.23876e-13 4.5498e-13 2.33024e-13 0 0 4.00117e-13 3.4533e-13 2.48128e-13 3.28035e-13 0 0 1.72613e-13 6.31392e-13 4.29073e-14 3.38041e-13 0 0 5.95743e-14 7.92234e-13 1.34334e-14 2.98277e-13 0 0 6.79853e-14 7.86244e-13 4.83173e-14 1.49711e-13 0 0 1.33211e-13 6.96641e-13 2.18887e-13 -3.15377e-14 0 0 2.55899e-13 4.39056e-13 4.8618e-13 -1.92164e-13 0 0 3.18378e-13 1.60836e-13 6.99446e-13 -3.29627e-13 0 0 3.09406e-13 7.94608e-14 7.05171e-13 -3.39033e-13 0 0 2.22098e-13 1.00634e-13 6.70452e-13 -3.16004e-13 0 0 7.10466e-14 2.1266e-13 5.18945e-13 -2.29224e-13 0 0 -2.26956e-14 2.25467e-13 4.30844e-13 -1.02942e-13 0 0 -3.4995e-14 2.12029e-13 4.82657e-13 -4.64733e-14 0 0 -2.3453e-14 2.16472e-13 4.83797e-13 1.89487e-15 0 0 3.48108e-14 2.22906e-13 4.69224e-13 2.15132e-14 0 0 3.8978e-14 2.50007e-13 4.27272e-13 5.75407e-14 0 0 2.5943e-14 3.7806e-13 2.93065e-13 1.61378e-13 0 0 1.33348e-14 5.31542e-13 8.07047e-14 3.39786e-13 0 0 4.73425e-14 5.23772e-13 2.07407e-14 4.37162e-13 0 0 1.42767e-13 3.80703e-13 9.16191e-14 4.05702e-13 0 0 1.88189e-13 1.80768e-13 2.4076e-13 3.36907e-13 0 0 1.76547e-13 1.55039e-14 4.27222e-13 2.13903e-13 0 0 1.14336e-13 -8.32414e-14 5.9088e-13 9.36903e-14 0 0 3.58961e-14 -3.72083e-14 5.31652e-13 1.81469e-13 0 0 1.22197e-14 5.11174e-14 3.16647e-13 4.14806e-13 0 0 3.58236e-14 1.3547e-13 1.61043e-13 4.45454e-13 0 0 5.3072e-14 1.97489e-13 1.57738e-13 4.32053e-13 0 0 6.33238e-14 2.72963e-13 1.31392e-13 3.74312e-13 0 0 9.84314e-14 2.7919e-13 1.12422e-13 2.33372e-13 0 0 1.32758e-13 2.21494e-13 2.07545e-13 3.07757e-14 0 0 1.06654e-13 2.41448e-13 2.18662e-13 2.04877e-14 0 0 9.89427e-14 2.72302e-13 1.09751e-13 1.09399e-13 0 0 1.00418e-13 2.37141e-13 1.65679e-13 3.77871e-14 0 0 8.33588e-14 2.22975e-13 2.84896e-13 3.01772e-14 0 0 9.34894e-14 2.47252e-13 1.99447e-13 1.52586e-13 0 0 4.33402e-14 4.21902e-13 4.63648e-14 2.73529e-13 0 0 5.44219e-14 3.59599e-13 2.16524e-13 2.22514e-13 0 0 1.71076e-13 2.28753e-13 4.76161e-13 1.01614e-13 0 0 1.22336e-13 4.51313e-13 2.68368e-13 2.78577e-13 0 0 1.55307e-13 5.55421e-13 2.13399e-13 4.11752e-13 0 0 1.85027e-13 5.67117e-13 2.78084e-13 3.63381e-13 0 0 2.22665e-13 5.33274e-13 3.49567e-13 3.28523e-13 0 0 2.96084e-13 4.84293e-13 3.702e-13 2.56211e-13 0 0 4.22925e-13 3.3086e-13 5.05148e-13 1.40185e-13 0 0 4.46362e-13 3.12177e-13 5.26557e-13 5.3594e-14 0 0 2.97353e-13 5.87015e-13 2.31331e-13 1.01386e-13 0 0 2.82311e-13 6.28106e-13 1.01665e-13 1.78839e-13 0 0 4.09437e-13 4.01986e-13 3.15811e-13 1.24204e-13 0 0 4.11202e-13 4.08492e-13 3.24738e-13 9.50743e-14 0 0 3.03327e-13 6.11062e-13 6.11798e-14 2.74906e-13 0 0 2.35643e-13 6.93888e-13 -2.09167e-14 4.17641e-13 0 0 2.37798e-13 6.0777e-13 9.29484e-14 4.57941e-13 0 0 3.7414e-13 3.27657e-13 3.42484e-13 4.13351e-13 0 0 3.40819e-13 3.22808e-13 3.74745e-13 3.91703e-13 0 0 1.79037e-13 4.74197e-13 3.14217e-13 3.99193e-13 0 0 1.9518e-13 5.22733e-13 2.31606e-13 4.12652e-13 0 0 3.29938e-13 4.81489e-13 2.35566e-13 3.35689e-13 0 0 5.02366e-13 3.07699e-13 4.60465e-13 1.99067e-13 0 0 4.56346e-13 3.35803e-13 6.32872e-13 7.34404e-14 0 0 2.17383e-13 5.9715e-13 5.64359e-13 1.05954e-13 0 0 9.75315e-14 8.60306e-13 3.20425e-13 3.86397e-13 0 0 3.73467e-13 6.24047e-13 4.81176e-13 3.02285e-13 0 0 6.62847e-13 2.21758e-13 8.48889e-13 6.31543e-14 0 0 5.97529e-13 3.38912e-13 6.77314e-13 1.41402e-13 0 0 3.00547e-13 8.50939e-13 1.18873e-13 5.33274e-13 0 0 1.36011e-13 1.0318e-12 8.6893e-14 5.8793e-13 0 0 2.94615e-13 7.20701e-13 5.66399e-13 1.45762e-13 0 0 5.55089e-13 3.78022e-13 8.20384e-13 7.95953e-14 0 0 5.81963e-13 4.21986e-13 6.52312e-13 2.36909e-13 0 0 3.18547e-13 7.31623e-13 5.1218e-13 1.66954e-13 0 0 1.30238e-13 8.4637e-13 6.03766e-13 3.16736e-14 0 0 3.1015e-13 4.85919e-13 9.23339e-13 -8.76712e-14 0 0 3.92252e-13 4.31275e-13 8.26799e-13 1.64955e-13 0 0 1.81357e-13 8.42321e-13 4.14902e-13 4.92257e-13 0 0 1.20851e-13 8.84687e-13 4.54411e-13 3.92484e-13 0 0 2.88392e-13 6.4985e-13 6.54668e-13 2.30115e-13 0 0 3.08844e-13 6.76567e-13 6.03591e-13 2.3324e-13 0 0 1.85862e-13 8.38611e-13 4.83145e-13 3.23352e-13 0 0 5.02712e-13 4.44702e-13 6.30784e-13 3.98574e-13 0 0 5.84851e-13 3.5357e-13 6.27201e-13 3.64325e-13 0 0 4.95727e-13 3.80751e-13 6.89406e-13 2.46353e-13 0 0 3.45002e-13 4.84146e-13 6.22318e-13 2.84926e-13 0 0 8.99997e-14 7.47459e-13 3.41289e-13 4.80785e-13 0 0 1.71607e-13 6.48317e-13 3.10885e-13 5.03448e-13 0 0 3.58223e-13 4.25517e-13 6.83368e-13 1.01213e-13 0 0 4.16908e-13 3.90168e-13 7.8393e-13 -1.31549e-14 0 0 5.18349e-13 3.57645e-13 5.63515e-13 1.7496e-13 0 0 6.2737e-13 2.52373e-13 6.60059e-13 4.87843e-14 0 0 5.22682e-13 4.15464e-13 6.32599e-13 2.3137e-14 0 0 3.74447e-13 6.09764e-13 4.74413e-13 1.94099e-13 0 0 4.53464e-13 5.14049e-13 4.43347e-13 3.96472e-13 0 0 6.1953e-13 2.44859e-13 5.06841e-13 5.42196e-13 0 0 5.18952e-13 3.40453e-13 4.03793e-13 5.87802e-13 0 0 5.87128e-13 1.81111e-13 6.42331e-13 4.08345e-13 0 0 6.65812e-13 -1.71347e-14 9.25911e-13 3.11483e-13 0 0 2.47846e-13 6.85216e-13 3.88749e-13 6.21368e-13 0 0 1.14635e-14 1.14971e-12 2.47483e-14 7.95759e-13 0 0 5.20796e-13 4.31235e-13 6.37501e-13 5.14351e-13 0 0 9.30431e-13 -2.13032e-13 1.20882e-12 1.49024e-13 0 0 6.55163e-13 1.85285e-13 7.91358e-13 2.82187e-13 0 0 -4.06123e-14 1.23847e-12 -3.74428e-13 9.8197e-13 0 0 1.35047e-13 9.49998e-13 -2.39519e-13 9.84439e-13 0 0 1.00614e-12 -3.98914e-13 9.79146e-13 3.73298e-13 0 0 1.2798e-12 -8.37141e-13 1.36257e-12 2.18236e-13 0
				</DataArray>
				<DataArray Name="VitesseY" type="Float32" format="ascii">