<?xml version="1.0"?>
<VTKFile type="PolyData">
	<PolyData>
		<Piece NumberOfPoints="1206" NumberOfPolys="1000">
			<Points>
				<DataArray type="Float32" NumberOfComponents="3" format="ascii">
 0 0 0 0.02 0 0 0.04 0 0 0.06 0 0 0.08 0 0 0.1 0 0 0 0.005 0 0.02 0.005 0 0.04 0.005 0 0.06 0.005 0 0.08 0.005 0 0.1 0.005 0 0 0.01 0 0.02 0.01 0 0.04 0.01 0 0.06 0.01 0 0.08 0.01 0 0.1 0.01 0 0 0.015 0 0.02 0.015 0 0.04 0.015 0 0.06 0.015 0 0.08 0.015 0 0.1 0.015 0 0 0.02 0 0.02 0.02 0 0.04 0.02 0 0.06 0.02 0 0.08 0.02 0 0.1 0.02 0 0 0.025 0 0.02 0.025 0 0.04 0.025 0 0.06 0.025 0 0.08 0.025 0 0.1 0.025 0 0 0.03 0 0.02 0.03 0 0.04 0.03 0 0.06 0.03 0 0.08 0.03 0 0.1 0.03 0 0 0.035 0 0.02 0.035 0 0.04 0.035 0 0.06 0.035 0 0.08 0.035 0 0.1 0.035 0 0 0.04 0 0.02 0.04 0 0.04 0.04 0 0.06 0.04 0 0.08 0.04 0 0.1 0.04 0 0 0.045 0 0.02 0.045 0 0.04 0.045 0 0.06 0.045 0 0.08 0.045 0 0.1 0.045 0 0 0.05 0 0.02 0.05 0 0.04 0.05 0 0.06 0.05 0 0.08 0.05 0 0.1 0.05 0 0 0.055 0 0.02 0.055 0 0.04 0.055 0 0.06 0.055 0 0.08 0.055 0 0.1 0.055 0 0 0.06 0 0.02 0.06 0 0.04 0.06 0 0.06 0.06 0 0.08 0.06 0 0.1 0.06 0 0 0.065 0 0.02 0.065 0 0.04 0.065 0 0.06 0.065 0 0.08 0.065 0 0.1 0.065 0 0 0.07 0 0.02 0.07 0 0.04 0.07 0 0.06 0.07 0 0.08 0.07 0 0.1 0.07 0 0 0.075 0 0.02 0.075 0 0.04 0.075 0 0.06 0.075 0 0.08 0.075 0 0.1 0.075 0 0 0.08 0 0.02 0.08 0 0.04 0.08 0 0.06 0.08 0 0.08 0.08 0 0.1 0.08 0 0 0.085 0 0.02 0.085 0 0.04 0.085 0 0.06 0.085 0 0.08 0.085 0 0.1 0.085 0 0 0.09 0 0.02 0.09 0 0.04 0.09 0 0.06 0.09 0 0.08 0.09 0 0.1 0.09 0 0 0.095 0 0.02 0.095 0 0.04 0.095 0 0.06 0.095 0 0.08 0.095 0 0.1 0.095 0 0 0.1 0 0.02 0.1 0 0.04 0.1 0 0.06 0.1 0 0.08 0.1 0 0.1 0.1 0 0 0.105 0 0.02 0.105 0 0.04 0.105 0 0.06 0.105 0 0.08 0.105 0 0.1 0.105 0 0 0.11 0 0.02 0.11 0 0.04 0.11 0 0.06 0.11 0 0.08 0.11 0 0.1 0.11 0 0 0.115 0 0.02 0.115 0 0.04 0.115 0 0.06 0.115 0 0.08 0.115 0 0.1 0.115 0 0 0.12 0 0.02 0.12 0 0.04 0.12 0 0.06 0.12 0 0.08 0.12 0 0.1 0.12 0 0 0.125 0 0.02 0.125 0 0.04 0.125 0 0.06 0.125 0 0.08 0.125 0 0.1 0.125 0 0 0.13 0 0.02 0.13 0 0.04 0.13 0 0.06 0.13 0 0.08 0.13 0 0.1 0.13 0 0 0.135 0 0.02 0.135 0 0.04 0.135 0 0.06 0.135 0 0.08 0.135 0 0.1 0.135 0 0 0.14 0 0.02 0.14 0 0.04 0.14 0 0.06 0.14 0 0.08 0.14 0 0.1 0.14 0 0 0.145 0 0.02 0.145 0 0.04 0.145 0 0.06 0.145 0 0.08 0.145 0 0.1 0.145 0 0 0.15 0 0.02 0.15 0 0.04 0.15 0 0.06 0.15 0 0.08 0.15 0 0.1 0.15 0 0 0.155 0 0.02 0.155 0 0.04 0.155 0 0.06 0.155 0 0.08 0.155 0 0.1 0.155 0 0 0.16 0 0.02 0.16 0 0.04 0.16 0 0.06 0.16 0 0.08 0.16 0 0.1 0.16 0 0 0.165 0 0.02 0.165 0 0.04 0.165 0 0.06 0.165 0 0.08 0.165 0 0.1 0.165 0 0 0.17 0 0.02 0.17 0 0.04 0.17 0 0.06 0.17 0 0.08 0.17 0 0.1 0.17 0 0 0.175 0 0.02 0.175 0 0.04 0.175 0 0.06 0.175 0 0.08 0.175 0 0.1 0.175 0 0 0.18 0 0.02 0.18 0 0.04 0.18 0 0.06 0.18 0 0.08 0.18 0 0.1 0.18 0 0 0.185 0 0.02 0.185 0 0.04 0.185 0 0.06 0.185 0 0.08 0.185 0 0.1 0.185 0 0 0.19 0 0.02 0.19 0 0.04 0.19 0 0.06 0.19 0 0.08 0.19 0 0.1 0.19 0 0 0.195 0 0.02 0.195 0 0.04 0.195 0 0.06 0.195 0 0.08 0.195 0 0.1 0.195 0 0 0.2 0 0.02 0.2 0 0.04 0.2 0 0.06 0.2 0 0.08 0.2 0 0.1 0.2 0 0 0.205 0 0.02 0.205 0 0.04 0.205 0 0.06 0.205 0 0.08 0.205 0 0.1 0.205 0 0 0.21 0 0.02 0.21 0 0.04 0.21 0 0.06 0.21 0 0.08 0.21 0 0.1 0.21 0 0 0.215 0 0.02 0.215 0 0.04 0.215 0 0.06 0.215 0 0.08 0.215 0 0.1 0.215 0 0 0.22 0 0.02 0.22 0 0.04 0.22 0 0.06 0.22 0 0.08 0.22 0 0.1 0.22 0 0 0.225 0 0.02 0.225 0 0.04 0.225 0 0.06 0.225 0 0.08 0.225 0 0.1 0.225 0 0 0.23 0 0.02 0.23 0 0.04 0.23 0 0.06 0.23 0 0.08 0.23 0 0.1 0.23 0 0 0.235 0 0.02 0.235 0 0.04 0.235 0 0.06 0.235 0 0.08 0.235 0 0.1 0.235 0 0 0.24 0 0.02 0.24 0 0.04 0.24 0 0.06 0.24 0 0.08 0.24 0 0.1 0.24 0 0 0.245 0 0.02 0.245 0 0.04 0.245 0 0.06 0.245 0 0.08 0.245 0 0.1 0.245 0 0 0.25 0 0.02 0.25 0 0.04 0.25 0 0.06 0.25 0 0.08 0.25 0 0.1 0.25 0 0 0.255 0 0.02 0.255 0 0.04 0.255 0 0.06 0.255 0 0.08 0.255 0 0.1 0.255 0 0 0.26 0 0.02 0.26 0 0.04 0.26 0 0.06 0.26 0 0.08 0.26 0 0.1 0.26 0 0 0.265 0 0.02 0.265 0 0.04 0.265 0 0.06 0.265 0 0.08 0.265 0 0.1 0.265 0 0 0.27 0 0.02 0.27 0 0.04 0.27 0 0.06 0.27 0 0.08 0.27 0 0.1 0.27 0 0 0.275 0 0.02 0.275 0 0.04 0.275 0 0.06 0.275 0 0.08 0.275 0 0.1 0.275 0 0 0.28 0 0.02 0.28 0 0.04 0.28 0 0.06 0.28 0 0.08 0.28 0 0.1 0.28 0 0 0.285 0 0.02 0.285 0 0.04 0.285 0 0.06 0.285 0 0.08 0.285 0 0.1 0.285 0 0 0.29 0 0.02 0.29 0 0.04 0.29 0 0.06 0.29 0 0.08 0.29 0 0.1 0.29 0 0 0.295 0 0.02 0.295 0 0.04 0.295 0 0.06 0.295 0 0.08 0.295 0 0.1 0.295 0 0 0.3 0 0.02 0.3 0 0.04 0.3 0 0.06 0.3 0 0.08 0.3 0 0.1 0.3 0 0 0.305 0 0.02 0.305 0 0.04 0.305 0 0.06 0.305 0 0.08 0.305 0 0.1 0.305 0 0 0.31 0 0.02 0.31 0 0.04 0.31 0 0.06 0.31 0 0.08 0.31 0 0.1 0.31 0 0 0.315 0 0.02 0.315 0 0.04 0.315 0 0.06 0.315 0 0.08 0.315 0 0.1 0.315 0 0 0.32 0 0.02 0.32 0 0.04 0.32 0 0.06 0.32 0 0.08 0.32 0 0.1 0.32 0 0 0.325 0 0.02 0.325 0 0.04 0.325 0 0.06 0.325 0 0.08 0.325 0 0.1 0.325 0 0 0.33 0 0.02 0.33 0 0.04 0.33 0 0.06 0.33 0 0.08 0.33 0 0.1 0.33 0 0 0.335 0 0.02 0.335 0 0.04 0.335 0 0.06 0.335 0 0.08 0.335 0 0.1 0.335 0 0 0.34 0 0.02 0.34 0 0.04 0.34 0 0.06 0.34 0 0.08 0.34 0 0.1 0.34 0 0 0.345 0 0.02 0.345 0 0.04 0.345 0 0.06 0.345 0 0.08 0.345 0 0.1 0.345 0 0 0.35 0 0.02 0.35 0 0.04 0.35 0 0.06 0.35 0 0.08 0.35 0 0.1 0.35 0 0 0.355 0 0.02 0.355 0 0.04 0.355 0 0.06 0.355 0 0.08 0.355 0 0.1 0.355 0 0 0.36 0 0.02 0.36 0 0.04 0.36 0 0.06 0.36 0 0.08 0.36 0 0.1 0.36 0 0 0.365 0 0.02 0.365 0 0.04 0.365 0 0.06 0.365 0 0.08 0.365 0 0.1 0.365 0 0 0.37 0 0.02 0.37 0 0.04 0.37 0 0.06 0.37 0 0.08 0.37 0 0.1 0.37 0 0 0.375 0 0.02 0.375 0 0.04 0.375 0 0.06 0.375 0 0.08 0.375 0 0.1 0.375 0 0 0.38 0 0.02 0.38 0 0.04 0.38 0 0.06 0.38 0 0.08 0.38 0 0.1 0.38 0 0 0.385 0 0.02 0.385 0 0.04 0.385 0 0.06 0.385 0 0.08 0.385 0 0.1 0.385 0 0 0.39 0 0.02 0.39 0 0.04 0.39 0 0.06 0.39 0 0.08 0.39 0 0.1 0.39 0 0 0.395 0 0.02 0.395 0 0.04 0.395 0 0.06 0.395 0 0.08 0.395 0 0.1 0.395 0 0 0.4 0 0.02 0.4 0 0.04 0.4 0 0.06 0.4 0 0.08 0.4 0 0.1 0.4 0 0 0.405 0 0.02 0.405 0 0.04 0.405 0 0.06 0.405 0 0.08 0.405 0 0.1 0.405 0 0 0.41 0 0.02 0.41 0 0.04 0.41 0 0.06 0.41 0 0.08 0.41 0 0.1 0.41 0 0 0.415 0 0.02 0.415 0 0.04 0.415 0 0.06 0.415 0 0.08 0.415 0 0.1 0.415 0 0 0.42 0 0.02 0.42 0 0.04 0.42 0 0.06 0.42 0 0.08 0.42 0 0.1 0.42 0 0 0.425 0 0.02 0.425 0 0.04 0.425 0 0.06 0.425 0 0.08 0.425 0 0.1 0.425 0 0 0.43 0 0.02 0.43 0 0.04 0.43 0 0.06 0.43 0 0.08 0.43 0 0.1 0.43 0 0 0.435 0 0.02 0.435 0 0.04 0.435 0 0.06 0.435 0 0.08 0.435 0 0.1 0.435 0 0 0.44 0 0.02 0.44 0 0.04 0.44 0 0.06 0.44 0 0.08 0.44 0 0.1 0.44 0 0 0.445 0 0.02 0.445 0 0.04 0.445 0 0.06 0.445 0 0.08 0.445 0 0.1 0.445 0 0 0.45 0 0.02 0.45 0 0.04 0.45 0 0.06 0.45 0 0.08 0.45 0 0.1 0.45 0 0 0.455 0 0.02 0.455 0 0.04 0.455 0 0.06 0.455 0 0.08 0.455 0 0.1 0.455 0 0 0.46 0 0.02 0.46 0 0.04 0.46 0 0.06 0.46 0 0.08 0.46 0 0.1 0.46 0 0 0.465 0 0.02 0.465 0 0.04 0.465 0 0.06 0.465 0 0.08 0.465 0 0.1 0.465 0 0 0.47 0 0.02 0.47 0 0.04 0.47 0 0.06 0.47 0 0.08 0.47 0 0.1 0.47 0 0 0.475 0 0.02 0.475 0 0.04 0.475 0 0.06 0.475 0 0.08 0.475 0 0.1 0.475 0 0 0.48 0 0.02 0.48 0 0.04 0.48 0 0.06 0.48 0 0.08 0.48 0 0.1 0.48 0 0 0.485 0 0.02 0.485 0 0.04 0.485 0 0.06 0.485 0 0.08 0.485 0 0.1 0.485 0 0 0.49 0 0.02 0.49 0 0.04 0.49 0 0.06 0.49 0 0.08 0.49 0 0.1 0.49 0 0 0.495 0 0.02 0.495 0 0.04 0.495 0 0.06 0.495 0 0.08 0.495 0 0.1 0.495 0 0 0.5 0 0.02 0.5 0 0.04 0.5 0 0.06 0.5 0 0.08 0.5 0 0.1 0.5 0 0 0.505 0 0.02 0.505 0 0.04 0.505 0 0.06 0.505 0 0.08 0.505 0 0.1 0.505 0 0 0.51 0 0.02 0.51 0 0.04 0.51 0 0.06 0.51 0 0.08 0.51 0 0.1 0.51 0 0 0.515 0 0.02 0.515 0 0.04 0.515 0 0.06 0.515 0 0.08 0.515 0 0.1 0.515 0 0 0.52 0 0.02 0.52 0 0.04 0.52 0 0.06 0.52 0 0.08 0.52 0 0.1 0.52 0 0 0.525 0 0.02 0.525 0 0.04 0.525 0 0.06 0.525 0 0.08 0.525 0 0.1 0.525 0 0 0.53 0 0.02 0.53 0 0.04 0.53 0 0.06 0.53 0 0.08 0.53 0 0.1 0.53 0 0 0.535 0 0.02 0.535 0 0.04 0.535 0 0.06 0.535 0 0.08 0.535 0 0.1 0.535 0 0 0.54 0 0.02 0.54 0 0.04 0.54 0 0.06 0.54 0 0.08 0.54 0 0.1 0.54 0 0 0.545 0 0.02 0.545 0 0.04 0.545 0 0.06 0.545 0 0.08 0.545 0 0.1 0.545 0 0 0.55 0 0.02 0.55 0 0.04 0.55 0 0.06 0.55 0 0.08 0.55 0 0.1 0.55 0 0 0.555 0 0.02 0.555 0 0.04 0.555 0 0.06 0.555 0 0.08 0.555 0 0.1 0.555 0 0 0.56 0 0.02 0.56 0 0.04 0.56 0 0.06 0.56 0 0.08 0.56 0 0.1 0.56 0 0 0.565 0 0.02 0.565 0 0.04 0.565 0 0.06 0.565 0 0.08 0.565 0 0.1 0.565 0 0 0.57 0 0.02 0.57 0 0.04 0.57 0 0.06 0.57 0 0.08 0.57 0 0.1 0.57 0 0 0.575 0 0.02 0.575 0 0.04 0.575 0 0.06 0.575 0 0.08 0.575 0 0.1 0.575 0 0 0.58 0 0.02 0.58 0 0.04 0.58 0 0.06 0.58 0 0.08 0.58 0 0.1 0.58 0 0 0.585 0 0.02 0.585 0 0.04 0.585 0 0.06 0.585 0 0.08 0.585 0 0.1 0.585 0 0 0.59 0 0.02 0.59 0 0.04 0.59 0 0.06 0.59 0 0.08 0.59 0 0.1 0.59 0 0 0.595 0 0.02 0.595 0 0.04 0.595 0 0.06 0.595 0 0.08 0.595 0 0.1 0.595 0 0 0.6 0 0.02 0.6 0 0.04 0.6 0 0.06 0.6 0 0.08 0.6 0 0.1 0.6 0 0 0.605 0 0.02 0.605 0 0.04 0.605 0 0.06 0.605 0 0.08 0.605 0 0.1 0.605 0 0 0.61 0 0.02 0.61 0 0.04 0.61 0 0.06 0.61 0 0.08 0.61 0 0.1 0.61 0 0 0.615 0 0.02 0.615 0 0.04 0.615 0 0.06 0.615 0 0.08 0.615 0 0.1 0.615 0 0 0.62 0 0.02 0.62 0 0.04 0.62 0 0.06 0.62 0 0.08 0.62 0 0.1 0.62 0 0 0.625 0 0.02 0.625 0 0.04 0.625 0 0.06 0.625 0 0.08 0.625 0 0.1 0.625 0 0 0.63 0 0.02 0.63 0 0.04 0.63 0 0.06 0.63 0 0.08 0.63 0 0.1 0.63 0 0 0.635 0 0.02 0.635 0 0.04 0.635 0 0.06 0.635 0 0.08 0.635 0 0.1 0.635 0 0 0.64 0 0.02 0.64 0 0.04 0.64 0 0.06 0.64 0 0.08 0.64 0 0.1 0.64 0 0 0.645 0 0.02 0.645 0 0.04 0.645 0 0.06 0.645 0 0.08 0.645 0 0.1 0.645 0 0 0.65 0 0.02 0.65 0 0.04 0.65 0 0.06 0.65 0 0.08 0.65 0 0.1 0.65 0 0 0.655 0 0.02 0.655 0 0.04 0.655 0 0.06 0.655 0 0.08 0.655 0 0.1 0.655 0 0 0.66 0 0.02 0.66 0 0.04 0.66 0 0.06 0.66 0 0.08 0.66 0 0.1 0.66 0 0 0.665 0 0.02 0.665 0 0.04 0.665 0 0.06 0.665 0 0.08 0.665 0 0.1 0.665 0 0 0.67 0 0.02 0.67 0 0.04 0.67 0 0.06 0.67 0 0.08 0.67 0 0.1 0.67 0 0 0.675 0 0.02 0.675 0 0.04 0.675 0 0.06 0.675 0 0.08 0.675 0 0.1 0.675 0 0 0.68 0 0.02 0.68 0 0.04 0.68 0 0.06 0.68 0 0.08 0.68 0 0.1 0.68 0 0 0.685 0 0.02 0.685 0 0.04 0.685 0 0.06 0.685 0 0.08 0.685 0 0.1 0.685 0 0 0.69 0 0.02 0.69 0 0.04 0.69 0 0.06 0.69 0 0.08 0.69 0 0.1 
[...]
			<PointData Scalars="VitesseX">
				<DataArray Name="VitesseX" type="Float32" format="ascii">
 0 -1.05342e-14 -1.29987e-14 -2.59924e-14 2.41885e-14 0 0 -1.8406e-14 -4.8935e-15 -2.20194e-14 1.74531e-14 0 0 -1.01466e-14 -2.2003e-14 7.22318e-15 -2.9349e-15 0 0 -2.6454e-14 -4.86526e-15 -5.06541e-15 9.1679e-15 0 0 -5.20832e-14 1.61442e-14 -7.59029e-15 8.37032e-15 0 0 -3.28383e-14 -1.91262e-14 2.78432e-14 -1.97524e-14 0 0 2.9575e-15 -5.23543e-14 1.45212e-14 -3.54042e-15 0 0 2.83807e-15 -4.12667e-14 -3.55749e-14 3.43977e-14 0 0 -1.70699e-14 -3.61025e-14 -3.50854e-14 2.25521e-14 0 0 -4.40283e-14 -2.40825e-14 -3.73247e-14 2.42433e-14 0 0 -8.46722e-14 3.9263e-14 -9.03196e-14 5.92701e-14 0 0 -3.98975e-14 -3.70184e-14 1.62511e-14 -9.27774e-15 0 0 -6.98017e-14 -1.54816e-14 3.76087e-14 -4.45297e-14 0 0 -6.40858e-14 5.7959e-17 1.43513e-14 -6.03655e-14 0 0 -3.33691e-14 1.83729e-15 -3.24842e-14 -1.7167e-14 0 0 -7.89021e-14 7.50398e-14 -1.11952e-13 5.6368e-14 0 0 -2.03988e-14 -4.10001e-14 -1.06231e-14 2.1738e-14 0 0 -7.94526e-14 3.73645e-14 -1.02555e-13 8.63214e-14 0 0 -1.30148e-13 1.17415e-13 -1.68094e-13 8.69244e-14 0 0 -5.91668e-14 1.83079e-14 -9.70646e-14 4.28707e-14 0 0 -2.56755e-14 -2.68423e-14 -1.38187e-13 1.10289e-13 0 0 -3.78058e-14 -3.62666e-14 -1.57922e-13 1.34777e-13 0 0 -9.51645e-14 -3.81534e-14 -4.52627e-14 2.32504e-14 0 0 -9.81729e-14 -5.31368e-14 5.89595e-14 -1.12732e-13 0 0 -3.15032e-14 -3.31365e-14 -3.87827e-14 -7.21173e-14 0 0 -5.30493e-16 -7.75317e-15 -1.15721e-13 -3.57894e-14 0 0 -3.4313e-14 -1.6923e-14 -3.83601e-14 -1.68981e-13 0 0 -1.19638e-13 2.56573e-14 -6.62608e-14 -2.0042e-13 0 0 -1.01559e-13 -2.16732e-14 -1.04236e-13 -1.33152e-13 0 0 -7.97963e-14 -3.20233e-14 -1.25464e-13 -1.11592e-13 0 0 -3.72512e-14 -8.96563e-14 -1.39237e-14 -1.90397e-13 0 0 -1.99727e-14 -1.03987e-13 1.32957e-14 -1.30881e-13 0 0 -1.08534e-13 -2.07411e-15 -4.86044e-14 -3.32191e-14 0 0 -1.32192e-13 -4.16047e-14 4.80122e-14 -7.01489e-14 0 0 -1.16172e-13 -5.364e-14 -6.22712e-15 5.01705e-14 0 0 -3.11034e-14 -1.30645e-13 2.28962e-14 1.00943e-13 0 0 -1.25534e-13 9.73511e-15 -1.09102e-14 1.03968e-13 0 0 -1.80481e-13 6.2996e-14 5.42036e-14 8.35673e-15 0 0 -1.64022e-13 6.54212e-14 5.74803e-14 -1.11031e-14 0 0 -8.08214e-14 9.07237e-15 -9.8647e-15 5.75141e-14 0 0 -2.81899e-14 -9.10037e-14 -2.07322e-14 4.68244e-14 0 0 -1.14786e-13 -4.12031e-14 -8.19988e-14 3.3924e-14 0 0 -1.28341e-13 -6.65848e-14 -2.64033e-14 -6.70591e-14 0 0 -4.98992e-14 -1.2392e-13 -3.06797e-14 -7.49074e-14 0 0 -1.56013e-14 -8.09475e-14 -1.0124e-13 -4.7065e-14 0 0 -3.60608e-14 -9.96998e-14 6.05157e-14 -2.62548e-13 0 0 -2.75484e-13 6.52551e-14 9.65664e-14 -3.8197e-13 0 0 -3.17654e-13 1.49826e-14 1.22726e-13 -3.68739e-13 0 0 -1.59623e-13 -1.74886e-13 9.0254e-14 -2.19019e-13 0 0 -9.83136e-14 -1.8849e-13 -8.67648e-14 2.48633e-14 0 0 3.55803e-14 -3.39975e-13 1.12217e-14 -1.99567e-14 0 0 -2.41495e-13 1.07857e-15 -7.95642e-14 -1.30434e-13 0 0 -3.14663e-13 -3.27796e-14 2.18329e-13 -5.24627e-13 0 0 -3.42617e-13 6.04635e-14 5.56114e-14 -3.9744e-13 0 0 -2.01294e-13 1.28714e-13 -3.10736e-13 -1.51845e-14 0 0 9.41125e-14 -2.11618e-13 -5.46325e-14 -1.50712e-13 0 0 -2.79819e-13 8.21389e-14 -1.36207e-13 -1.39674e-13 0 0 -2.35137e-13 -2.45301e-13 3.94165e-13 -5.62849e-13 0 0 -2.31041e-13 -1.82954e-13 2.96603e-13 -5.08543e-13 0 0 -3.09778e-13 1.23995e-13 -2.41974e-13 -5.59799e-14 0 0 -8.14104e-14 -1.24707e-13 -1.50597e-13 -3.74433e-14 0 0 -1.95292e-13 1.86778e-14 -2.62518e-13 5.03137e-14 0 0 -1.18025e-13 -1.01861e-13 -1.19717e-13 -1.43584e-14 0 0 -9.48461e-14 -4.10152e-14 -1.9902e-13 2.26017e-14 0 0 -1.05122e-13 3.59992e-16 -2.36332e-13 2.82275e-14 0 0 -2.23589e-14 -1.42424e-13 -9.84564e-14 -5.53472e-14 0 0 -1.91683e-13 4.85788e-14 -2.68681e-13 4.64878e-14 0 0 -9.91685e-14 -7.0654e-14 -2.01734e-13 1.11203e-14 0 0 -4.95714e-14 -1.06053e-13 -2.06934e-13 3.4702e-14 0 0 -2.742e-13 8.81664e-14 -1.25221e-13 -1.00809e-13 0 0 -1.75418e-13 -2.53726e-13 5.06527e-13 -5.56866e-13 0 0 -3.07185e-13 -5.74328e-14 2.58493e-13 -1.98727e-13 0 0 -1.38778e-13 -1.42118e-14 -6.72264e-14 2.63096e-13 0 0 -9.9777e-14 3.22797e-15 -1.99027e-13 4.3509e-13 0 0 -4.14724e-13 1.59641e-13 -8.38454e-14 2.50199e-13 0 0 -4.27508e-13 4.12448e-14 1.85394e-13 -6.11601e-14 0 0 -3.7557e-13 1.3162e-13 -2.0448e-13 1.69786e-13 0 0 -6.41761e-14 -2.30015e-13 -1.06428e-13 1.10523e-13 0 0 -3.19872e-13 -7.13338e-14 -1.53353e-13 2.70195e-14 0 0 -4.35673e-13 -1.81398e-13 6.49191e-14 -2.94512e-13 0 0 -3.27057e-13 -2.13001e-13 -5.6917e-14 -2.46891e-13 0 0 -5.428e-13 1.27298e-13 -3.61065e-13 -3.46953e-14 0 0 -2.82877e-13 -3.89759e-13 2.83759e-13 -5.93393e-13 0 0 -1.8732e-13 -2.02369e-13 -2.11582e-13 -3.78077e-13 0 0 -1.76761e-13 9.94243e-14 -7.4402e-13 -6.40363e-14 0 0 -1.43441e-13 -2.68077e-13 -7.36722e-14 -5.44967e-13 0 0 -5.083e-13 -1.65038e-13 6.74419e-14 -5.96168e-13 0 0 -3.36615e-13 -2.46429e-13 -2.51037e-13 -1.57241e-13 0 0 2.18593e-13 -7.22104e-13 -3.11874e-13 1.50635e-13 0 0 -7.12124e-14 -1.99581e-13 -5.37006e-13 -5.61968e-14 0 0 -3.771e-13 -4.195e-15 -1.6529e-13 -6.01711e-13 0 0 -4.36128e-13 -2.1485e-13 5.77019e-14 -6.20719e-13 0 0 -7.45561e-14 -2.33566e-13 -4.72503e-13 5.62154e-14 0 0 4.36887e-13 -8.55351e-13 -5.61113e-13 5.76683e-13 0 0 -3.82863e-13 -5.30581e-14 -4.16027e-13 1.60344e-13 0 0 -3.76332e-13 -2.46311e-13 7.41252e-13 -1.05622e-12 0 0 1.55941e-13 -6.13348e-13 5.21579e-13 -8.68968e-13 0 0 -8.76528e-13 1.01723e-12 -5.82061e-13 -4.09644e-13 0 0 -1.83392e-13 9.82466e-14 3.88931e-13 -9.9222e-13 0 0 3.59886e-13 -4.59841e-13 5.07716e-13 -9.79731e-13 0 0 2.67935e-13 -3.04922e-13 -3.3537e-14 -2.33532e-13 0 0 4.42718e-14 1.68407e-14 -9.91102e-13 5.88763e-13 0 0 -1.32841e-13 -1.45573e-14 -1.0235e-12 5.79965e-13 0 0 -2.50202e-13 -2.50997e-13 -6.90759e-13 2.61183e-13 0 0 -3.25162e-13 -5.05698e-13 -1.97131e-13 -2.39946e-13 0 0 -4.08917e-13 -5.1557e-13 -9.92375e-14 -4.3387e-13 0 0 -3.99373e-13 -4.42312e-13 -1.83918e-13 -3.68027e-13 0 0 -2.45079e-13 -3.28798e-13 -3.9955e-13 -1.8033e-13 0 0 -2.60775e-13 -1.53091e-13 -5.17657e-13 -4.81869e-14 0 0 -2.86124e-13 -1.51799e-13 -2.84286e-13 -2.40272e-13 0 0 -2.78611e-13 -2.09364e-13 -2.30556e-14 -4.63352e-13 0 0 -1.55385e-13 -1.31046e-13 -2.59945e-13 -2.83808e-13 0 0 -2.56693e-14 -1.19853e-13 -4.64504e-13 -1.39596e-13 0 0 -5.78762e-14 -1.75257e-13 -3.97412e-13 -1.38896e-13 0 0 -2.75066e-13 -2.33899e-13 -9.89507e-14 -3.13811e-13 0 0 -3.17592e-13 -4.1383e-13 1.76783e-13 -5.03914e-13 0 0 -7.50579e-14 -4.88354e-13 -5.73382e-14 -3.51943e-13 0 0 -1.4948e-13 -8.21445e-14 -6.13477e-13 -7.39225e-14 0 0 -2.32128e-13 -1.48568e-13 -2.4665e-13 -4.22926e-13 0 0 -3.6083e-13 -2.0553e-13 -6.63726e-15 -4.69687e-13 0 0 -3.8821e-13 -2.3609e-13 -8.11218e-14 -2.28854e-13 0 0 -1.59356e-13 -3.95074e-13 -1.10997e-13 -2.25408e-13 0 0 -3.01204e-13 -2.45458e-14 -5.86032e-13 -1.51876e-14 0 0 -3.57892e-13 -1.76982e-13 -2.49349e-13 -2.80658e-13 0 0 -5.10344e-13 -1.93379e-13 -8.80503e-14 -2.56053e-13 0 0 -6.20444e-13 -1.7456e-13 -1.15103e-13 -6.58187e-15 0 0 -2.98219e-13 -3.3336e-13 -1.67479e-13 3.08871e-14 0 0 -2.66571e-13 -8.66283e-14 -5.63496e-13 1.15482e-13 0 0 -3.57988e-13 -2.64734e-13 -1.12943e-13 -3.92609e-13 0 0 -5.38007e-13 -2.21861e-13 7.21885e-15 -5.07543e-13 0 0 -6.77771e-13 -1.96751e-13 4.98636e-14 -3.44517e-13 0 0 -3.61294e-13 -3.88944e-13 4.69661e-14 -2.57765e-13 0 0 -2.31843e-13 -2.24599e-13 -4.41605e-13 8.29492e-14 0 0 -3.14666e-13 -2.99018e-13 -2.63457e-13 -1.99892e-13 0 0 -5.66881e-13 -3.71197e-14 -3.25632e-13 -3.75822e-13 0 0 -6.12871e-13 -8.17935e-14 -1.08178e-13 -3.7076e-13 0 0 -2.67108e-13 -2.29871e-13 -1.6254e-13 -2.29908e-13 0 0 -2.62209e-13 1.35414e-13 -8.6477e-13 1.0039e-13 0 0 -4.06582e-13 -1.3575e-13 -4.88616e-13 -2.31584e-13 0 0 -3.99523e-13 -5.22112e-13 -2.64842e-13 -2.00366e-13 0 0 -3.17753e-13 -6.09219e-13 -3.51941e-13 -2.67367e-14 0 0 -2.01072e-13 -5.68797e-13 -9.07209e-14 -3.67308e-13 0 0 -1.55704e-13 -1.3206e-13 -6.43332e-13 -2.07218e-13 0 0 -1.31771e-13 -1.61455e-14 -7.91196e-13 -3.77752e-13 0 0 -4.15333e-13 -1.37292e-13 -2.54104e-13 -6.63526e-13 0 0 -6.58064e-13 -2.11868e-14 -4.08911e-13 -1.38523e-13 0 0 -2.88492e-13 -4.70208e-13 -1.54877e-13 1.88889e-14 0 0 -2.05596e-13 -4.64732e-13 -2.51584e-13 1.78842e-13 0 0 -3.45206e-13 -2.57105e-13 -4.7469e-13 3.9821e-13 0 0 -6.3357e-13 -1.78692e-13 -4.39487e-13 5.69716e-13 0 0 -7.31099e-13 -7.40032e-14 -8.06274e-13 1.04753e-12 0 0 -2.53138e-13 -7.29569e-13 -1.52575e-13 4.81428e-13 0 0 -3.47215e-13 -4.88796e-13 -8.07128e-14 -4.44824e-14 0 0 -3.83439e-13 -2.55701e-13 -2.2337e-13 -2.32445e-13 0 0 -5.0454e-13 -1.78446e-13 -2.1566e-13 -2.79582e-13 0 0 -7.67579e-13 -1.68411e-13 -1.78277e-13 -2.08515e-13 0 0 -3.65294e-13 -5.90595e-13 -1.71304e-13 -2.83787e-13 0 0 -8.65077e-14 -4.92278e-13 -9.0041e-13 -7.5102e-14 0 0 -2.73227e-13 -2.78379e-13 -9.67006e-13 -4.87367e-13 0 0 -8.54596e-13 2.46083e-13 -7.36682e-13 -7.95566e-13 0 0 -8.43193e-13 2.86853e-14 -2.40009e-13 -5.88248e-13 0 0 5.19056e-14 -7.46221e-13 -1.77912e-13 -1.57284e-13 0 0 3.88175e-13 -9.27801e-13 -5.25302e-13 -4.51758e-14 0 0 -1.93555e-13 -5.18247e-13 -5.18574e-13 -7.89144e-13 0 0 -9.05085e-13 1.7218e-13 -8.84663e-13 -1.22944e-12 0 0 -8.05622e-13 -4.95651e-14 -1.01569e-12 -9.56377e-13 0 0 -2.47239e-13 -4.14371e-13 -1.08072e-12 -4.39261e-13 0 0 -2.04015e-13 -3.14544e-13 -8.66615e-13 -4.66933e-13 0 0 -2.74449e-13 -6.57851e-13 7.35131e-14 -1.20774e-12 0 0 -1.73444e-13 -8.15478e-13 -4.05463e-14 -1.04588e-12 0 0 -3.05632e-13 -5.39396e-13 -6.13318e-13 -7.4423e-13 0 0 -5.631e-13 -2.25546e-13 -5.94717e-13 -1.31897e-12 0 0 -6.64727e-13 1.94916e-13 -9.84878e-13 -1.27825e-12 0 0 -2.55023e-13 -3.04775e-13 -7.57659e-13 -9.40126e-13 0 0 8.16039e-14 -8.85887e-13 -4.88788e-13 -4.20189e-13 0 0 -3.41222e-13 -5.56855e-13 -6.15723e-13 -2.13031e-13 0 0 -6.48516e-13 -2.12204e-13 -5.43401e-13 -9.18143e-13 0 0 -7.0016e-13 2.4933e-13 -1.09636e-12 -1.1139e-12 0 0 -2.71097e-13 -3.4892e-13 -7.2692e-13 -9.80482e-13 0 0 1.27252e-13 -1.00348e-12 -3.46036e-13 -5.36781e-13 0 0 -2.69552e-13 -6.57534e-13 -4.26716e-13 -5.05482e-13 0 0 -5.98816e-13 -4.06828e-13 -1.52428e-13 -1.27021e-12 0 0 -6.93919e-13 6.61824e-15 -8.04327e-13 -9.84768e-13 0 0 -2.21369e-13 -5.88446e-13 -7.30832e-13 -5.17647e-13 0 0 6.35603e-14 -1.04855e-12 -4.26352e-13 -2.6602e-13 0 0 -4.08729e-13 -5.22413e-13 -7.34722e-13 -3.49121e-14 0 0 -5.84779e-13 -3.46806e-13 -5.24604e-13 -7.76914e-13 0 0 -5.60367e-13 3.79047e-14 -1.10878e-12 -9.81502e-13 0 0 -1.47359e-13 -5.12406e-13 -1.05226e-12 -8.37106e-13 0 0 2.41791e-13 -1.10996e-12 -7.37161e-13 -3.33209e-13 0 0 -5.59963e-13 -2.76601e-13 -5.90388e-13 -4.17222e-13 0 0 -7.322e-13 -5.43374e-13 8.56227e-13 -1.93794e-12 0 0 -4.00437e-13 -5.23445e-13 -6.64171e-14 -1.23663e-12 0 0 -8.83894e-14 -4.9828e-13 -1.26719e-12 -1.48472e-13 0 0 -4.33494e-13 -5.06455e-13 -8.98358e-13 -4.53e-13 0 0 -1.32028e-12 3.77121e-13 -1.13956e-12 -4.26597e-13 0 0 -6.11562e-13 -2.88052e-13 -8.67797e-13 -3.0678e-13 0 0 -4.80687e-14 -5.62501e-13 -1.3298e-12 5.07718e-13 0 0 1.52636e-14 -9.77359e-13 -7.8553e-13 3.46393e-13 0 0 -5.3557e-13 -8.31293e-13 -2.38058e-13 -2.57201e-13 0 0 -1.28865e-12 1.91071e-13 -1.00499e-12 2.17667e-14 0
				</DataArray>
				<DataArray Name="VitesseY" type="Float32" format="ascii">