<?xml version="1.0"?>
<VTKFile type="PolyData">
	<PolyData>
		<Piece NumberOfPoints="1206" NumberOfPolys="1000">
			<Points>
				<DataArray type="Float32" NumberOfComponents="3" format="ascii">
 0 0 0 0.02 0 0 0.04 0 0 0.06 0 0 0.08 0 0 0.1 0 0 0 0.005 0 0.02 0.005 0 0.04 0.005 0 0.06 0.005 0 0.08 0.005 0 0.1 0.005 0 0 0.01 0 0.02 0.01 0 0.04 0.01 0 0.06 0.01 0 0.08 0.01 0 0.1 0.01 0 0 0.015 0 0.02 0.015 0 0.04 0.015 0 0.06 0.015 0 0.08 0.015 0 0.1 0.015 0 0 0.02 0 0.02 0.02 0 0.04 0.02 0 0.06 0.02 0 0.08 0.02 0 0.1 0.02 0 0 0.025 0 0.02 0.025 0 0.04 0.025 0 0.06 0.025 0 0.08 0.025 0 0.1 0.025 0 0 0.03 0 0.02 0.03 0 0.04 0.03 0 0.06 0.03 0 0.08 0.03 0 0.1 0.03 0 0 0.035 0 0.02 0.035 0 0.04 0.035 0 0.06 0.035 0 0.08 0.035 0 0.1 0.035 0 0 0.04 0 0.02 0.04 0 0.04 0.04 0 0.06 0.04 0 0.08 0.04 0 0.1 0.04 0 0 0.045 0 0.02 0.045 0 0.04 0.045 0 0.06 0.045 0 0.08 0.045 0 0.1 0.045 0 0 0.05 0 0.02 0.05 0 0.04 0.05 0 0.06 0.05 0 0.08 0.05 0 0.1 0.05 0 0 0.055 0 0.02 0.055 0 0.04 0.055 0 0.06 0.055 0 0.08 0.055 0 0.1 0.055 0 0 0.06 0 0.02 0.06 0 0.04 0.06 0 0.06 0.06 0 0.08 0.06 0 0.1 0.06 0 0 0.065 0 0.02 0.065 0 0.04 0.065 0 0.06 0.065 0 0.08 0.065 0 0.1 0.065 0 0 0.07 0 0.02 0.07 0 0.04 0.07 0 0.06 0.07 0 0.08 0.07 0 0.1 0.07 0 0 0.075 0 0.02 0.075 0 0.04 0.075 0 0.06 0.075 0 0.08 0.075 0 0.1 0.075 0 0 0.08 0 0.02 0.08 0 0.04 0.08 0 0.06 0.08 0 0.08 0.08 0 0.1 0.08 0 0 0.085 0 0.02 0.085 0 0.04 0.085 0 0.06 0.085 0 0.08 0.085 0 0.1 0.085 0 0 0.09 0 0.02 0.09 0 0.04 0.09 0 0.06 0.09 0 0.08 0.09 0 0.1 0.09 0 0 0.095 0 0.02 0.095 0 0.04 0.095 0 0.06 0.095 0 0.08 0.095 0 0.1 0.095 0 0 0.1 0 0.02 0.1 0 0.04 0.1 0 0.06 0.1 0 0.08 0.1 0 0.1 0.1 0 0 0.105 0 0.02 0.105 0 0.04 0.105 0 0.06 0.105 0 0.08 0.105 0 0.1 0.105 0 0 0.11 0 0.02 0.11 0 0.04 0.11 0 0.06 0.11 0 0.08 0.11 0 0.1 0.11 0 0 0.115 0 0.02 0.115 0 0.04 0.115 0 0.06 0.115 0 0.08 0.115 0 0.1 0.115 0 0 0.12 0 0.02 0.12 0 0.04 0.12 0 0.06 0.12 0 0.08 0.12 0 0.1 0.12 0 0 0.125 0 0.02 0.125 0 0.04 0.125 0 0.06 0.125 0 0.08 0.125 0 0.1 0.125 0 0 0.13 0 0.02 0.13 0 0.04 0.13 0 0.06 0.13 0 0.08 0.13 0 0.1 0.13 0 0 0.135 0 0.02 0.135 0 0.04 0.135 0 0.06 0.135 0 0.08 0.135 0 0.1 0.135 0 0 0.14 0 0.02 0.14 0 0.04 0.14 0 0.06 0.14 0 0.08 0.14 0 0.1 0.14 0 0 0.145 0 0.02 0.145 0 0.04 0.145 0 0.06 0.145 0 0.08 0.145 0 0.1 0.145 0 0 0.15 0 0.02 0.15 0 0.04 0.15 0 0.06 0.15 0 0.08 0.15 0 0.1 0.15 0 0 0.155 0 0.02 0.155 0 0.04 0.155 0 0.06 0.155 0 0.08 0.155 0 0.1 0.155 0 0 0.16 0 0.02 0.16 0 0.04 0.16 0 0.06 0.16 0 0.08 0.16 0 0.1 0.16 0 0 0.165 0 0.02 0.165 0 0.04 0.165 0 0.06 0.165 0 0.08 0.165 0 0.1 0.165 0 0 0.17 0 0.02 0.17 0 0.04 0.17 0 0.06 0.17 0 0.08 0.17 0 0.1 0.17 0 0 0.175 0 0.02 0.175 0 0.04 0.175 0 0.06 0.175 0 0.08 0.175 0 0.1 0.175 0 0 0.18 0 0.02 0.18 0 0.04 0.18 0 0.06 0.18 0 0.08 0.18 0 0.1 0.18 0 0 0.185 0 0.02 0.185 0 0.04 0.185 0 0.06 0.185 0 0.08 0.185 0 0.1 0.185 0 0 0.19 0 0.02 0.19 0 0.04 0.19 0 0.06 0.19 0 0.08 0.19 0 0.1 0.19 0 0 0.195 0 0.02 0.195 0 0.04 0.195 0 0.06 0.195 0 0.08 0.195 0 0.1 0.195 0 0 0.2 0 0.02 0.2 0 0.04 0.2 0 0.06 0.2 0 0.08 0.2 0 0.1 0.2 0 0 0.205 0 0.02 0.205 0 0.04 0.205 0 0.06 0.205 0 0.08 0.205 0 0.1 0.205 0 0 0.21 0 0.02 0.21 0 0.04 0.21 0 0.06 0.21 0 0.08 0.21 0 0.1 0.21 0 0 0.215 0 0.02 0.215 0 0.04 0.215 0 0.06 0.215 0 0.08 0.215 0 0.1 0.215 0 0 0.22 0 0.02 0.22 0 0.04 0.22 0 0.06 0.22 0 0.08 0.22 0 0.1 0.22 0 0 0.225 0 0.02 0.225 0 0.04 0.225 0 0.06 0.225 0 0.08 0.225 0 0.1 0.225 0 0 0.23 0 0.02 0.23 0 0.04 0.23 0 0.06 0.23 0 0.08 0.23 0 0.1 0.23 0 0 0.235 0 0.02 0.235 0 0.04 0.235 0 0.06 0.235 0 0.08 0.235 0 0.1 0.235 0 0 0.24 0 0.02 0.24 0 0.04 0.24 0 0.06 0.24 0 0.08 0.24 0 0.1 0.24 0 0 0.245 0 0.02 0.245 0 0.04 0.245 0 0.06 0.245 0 0.08 0.245 0 0.1 0.245 0 0 0.25 0 0.02 0.25 0 0.04 0.25 0 0.06 0.25 0 0.08 0.25 0 0.1 0.25 0 0 0.255 0 0.02 0.255 0 0.04 0.255 0 0.06 0.255 0 0.08 0.255 0 0.1 0.255 0 0 0.26 0 0.02 0.26 0 0.04 0.26 0 0.06 0.26 0 0.08 0.26 0 0.1 0.26 0 0 0.265 0 0.02 0.265 0 0.04 0.265 0 0.06 0.265 0 0.08 0.265 0 0.1 0.265 0 0 0.27 0 0.02 0.27 0 0.04 0.27 0 0.06 0.27 0 0.08 0.27 0 0.1 0.27 0 0 0.275 0 0.02 0.275 0 0.04 0.275 0 0.06 0.275 0 0.08 0.275 0 0.1 0.275 0 0 0.28 0 0.02 0.28 0 0.04 0.28 0 0.06 0.28 0 0.08 0.28 0 0.1 0.28 0 0 0.285 0 0.02 0.285 0 0.04 0.285 0 0.06 0.285 0 0.08 0.285 0 0.1 0.285 0 0 0.29 0 0.02 0.29 0 0.04 0.29 0 0.06 0.29 0 0.08 0.29 0 0.1 0.29 0 0 0.295 0 0.02 0.295 0 0.04 0.295 0 0.06 0.295 0 0.08 0.295 0 0.1 0.295 0 0 0.3 0 0.02 0.3 0 0.04 0.3 0 0.06 0.3 0 0.08 0.3 0 0.1 0.3 0 0 0.305 0 0.02 0.305 0 0.04 0.305 0 0.06 0.305 0 0.08 0.305 0 0.1 0.305 0 0 0.31 0 0.02 0.31 0 0.04 0.31 0 0.06 0.31 0 0.08 0.31 0 0.1 0.31 0 0 0.315 0 0.02 0.315 0 0.04 0.315 0 0.06 0.315 0 0.08 0.315 0 0.1 0.315 0 0 0.32 0 0.02 0.32 0 0.04 0.32 0 0.06 0.32 0 0.08 0.32 0 0.1 0.32 0 0 0.325 0 0.02 0.325 0 0.04 0.325 0 0.06 0.325 0 0.08 0.325 0 0.1 0.325 0 0 0.33 0 0.02 0.33 0 0.04 0.33 0 0.06 0.33 0 0.08 0.33 0 0.1 0.33 0 0 0.335 0 0.02 0.335 0 0.04 0.335 0 0.06 0.335 0 0.08 0.335 0 0.1 0.335 0 0 0.34 0 0.02 0.34 0 0.04 0.34 0 0.06 0.34 0 0.08 0.34 0 0.1 0.34 0 0 0.345 0 0.02 0.345 0 0.04 0.345 0 0.06 0.345 0 0.08 0.345 0 0.1 0.345 0 0 0.35 0 0.02 0.35 0 0.04 0.35 0 0.06 0.35 0 0.08 0.35 0 0.1 0.35 0 0 0.355 0 0.02 0.355 0 0.04 0.355 0 0.06 0.355 0 0.08 0.355 0 0.1 0.355 0 0 0.36 0 0.02 0.36 0 0.04 0.36 0 0.06 0.36 0 0.08 0.36 0 0.1 0.36 0 0 0.365 0 0.02 0.365 0 0.04 0.365 0 0.06 0.365 0 0.08 0.365 0 0.1 0.365 0 0 0.37 0 0.02 0.37 0 0.04 0.37 0 0.06 0.37 0 0.08 0.37 0 0.1 0.37 0 0 0.375 0 0.02 0.375 0 0.04 0.375 0 0.06 0.375 0 0.08 0.375 0 0.1 0.375 0 0 0.38 0 0.02 0.38 0 0.04 0.38 0 0.06 0.38 0 0.08 0.38 0 0.1 0.38 0 0 0.385 0 0.02 0.385 0 0.04 0.385 0 0.06 0.385 0 0.08 0.385 0 0.1 0.385 0 0 0.39 0 0.02 0.39 0 0.04 0.39 0 0.06 0.39 0 0.08 0.39 0 0.1 0.39 0 0 0.395 0 0.02 0.395 0 0.04 0.395 0 0.06 0.395 0 0.08 0.395 0 0.1 0.395 0 0 0.4 0 0.02 0.4 0 0.04 0.4 0 0.06 0.4 0 0.08 0.4 0 0.1 0.4 0 0 0.405 0 0.02 0.405 0 0.04 0.405 0 0.06 0.405 0 0.08 0.405 0 0.1 0.405 0 0 0.41 0 0.02 0.41 0 0.04 0.41 0 0.06 0.41 0 0.08 0.41 0 0.1 0.41 0 0 0.415 0 0.02 0.415 0 0.04 0.415 0 0.06 0.415 0 0.08 0.415 0 0.1 0.415 0 0 0.42 0 0.02 0.42 0 0.04 0.42 0 0.06 0.42 0 0.08 0.42 0 0.1 0.42 0 0 0.425 0 0.02 0.425 0 0.04 0.425 0 0.06 0.425 0 0.08 0.425 0 0.1 0.425 0 0 0.43 0 0.02 0.43 0 0.04 0.43 0 0.06 0.43 0 0.08 0.43 0 0.1 0.43 0 0 0.435 0 0.02 0.435 0 0.04 0.435 0 0.06 0.435 0 0.08 0.435 0 0.1 0.435 0 0 0.44 0 0.02 0.44 0 0.04 0.44 0 0.06 0.44 0 0.08 0.44 0 0.1 0.44 0 0 0.445 0 0.02 0.445 0 0.04 0.445 0 0.06 0.445 0 0.08 0.445 0 0.1 0.445 0 0 0.45 0 0.02 0.45 0 0.04 0.45 0 0.06 0.45 0 0.08 0.45 0 0.1 0.45 0 0 0.455 0 0.02 0.455 0 0.04 0.455 0 0.06 0.455 0 0.08 0.455 0 0.1 0.455 0 0 0.46 0 0.02 0.46 0 0.04 0.46 0 0.06 0.46 0 0.08 0.46 0 0.1 0.46 0 0 0.465 0 0.02 0.465 0 0.04 0.465 0 0.06 0.465 0 0.08 0.465 0 0.1 0.465 0 0 0.47 0 0.02 0.47 0 0.04 0.47 0 0.06 0.47 0 0.08 0.47 0 0.1 0.47 0 0 0.475 0 0.02 0.475 0 0.04 0.475 0 0.06 0.475 0 0.08 0.475 0 0.1 0.475 0 0 0.48 0 0.02 0.48 0 0.04 0.48 0 0.06 0.48 0 0.08 0.48 0 0.1 0.48 0 0 0.485 0 0.02 0.485 0 0.04 0.485 0 0.06 0.485 0 0.08 0.485 0 0.1 0.485 0 0 0.49 0 0.02 0.49 0 0.04 0.49 0 0.06 0.49 0 0.08 0.49 0 0.1 0.49 0 0 0.495 0 0.02 0.495 0 0.04 0.495 0 0.06 0.495 0 0.08 0.495 0 0.1 0.495 0 0 0.5 0 0.02 0.5 0 0.04 0.5 0 0.06 0.5 0 0.08 0.5 0 0.1 0.5 0 0 0.505 0 0.02 0.505 0 0.04 0.505 0 0.06 0.505 0 0.08 0.505 0 0.1 0.505 0 0 0.51 0 0.02 0.51 0 0.04 0.51 0 0.06 0.51 0 0.08 0.51 0 0.1 0.51 0 0 0.515 0 0.02 0.515 0 0.04 0.515 0 0.06 0.515 0 0.08 0.515 0 0.1 0.515 0 0 0.52 0 0.02 0.52 0 0.04 0.52 0 0.06 0.52 0 0.08 0.52 0 0.1 0.52 0 0 0.525 0 0.02 0.525 0 0.04 0.525 0 0.06 0.525 0 0.08 0.525 0 0.1 0.525 0 0 0.53 0 0.02 0.53 0 0.04 0.53 0 0.06 0.53 0 0.08 0.53 0 0.1 0.53 0 0 0.535 0 0.02 0.535 0 0.04 0.535 0 0.06 0.535 0 0.08 0.535 0 0.1 0.535 0 0 0.54 0 0.02 0.54 0 0.04 0.54 0 0.06 0.54 0 0.08 0.54 0 0.1 0.54 0 0 0.545 0 0.02 0.545 0 0.04 0.545 0 0.06 0.545 0 0.08 0.545 0 0.1 0.545 0 0 0.55 0 0.02 0.55 0 0.04 0.55 0 0.06 0.55 0 0.08 0.55 0 0.1 0.55 0 0 0.555 0 0.02 0.555 0 0.04 0.555 0 0.06 0.555 0 0.08 0.555 0 0.1 0.555 0 0 0.56 0 0.02 0.56 0 0.04 0.56 0 0.06 0.56 0 0.08 0.56 0 0.1 0.56 0 0 0.565 0 0.02 0.565 0 0.04 0.565 0 0.06 0.565 0 0.08 0.565 0 0.1 0.565 0 0 0.57 0 0.02 0.57 0 0.04 0.57 0 0.06 0.57 0 0.08 0.57 0 0.1 0.57 0 0 0.575 0 0.02 0.575 0 0.04 0.575 0 0.06 0.575 0 0.08 0.575 0 0.1 0.575 0 0 0.58 0 0.02 0.58 0 0.04 0.58 0 0.06 0.58 0 0.08 0.58 0 0.1 0.58 0 0 0.585 0 0.02 0.585 0 0.04 0.585 0 0.06 0.585 0 0.08 0.585 0 0.1 0.585 0 0 0.59 0 0.02 0.59 0 0.04 0.59 0 0.06 0.59 0 0.08 0.59 0 0.1 0.59 0 0 0.595 0 0.02 0.595 0 0.04 0.595 0 0.06 0.595 0 0.08 0.595 0 0.1 0.595 0 0 0.6 0 0.02 0.6 0 0.04 0.6 0 0.06 0.6 0 0.08 0.6 0 0.1 0.6 0 0 0.605 0 0.02 0.605 0 0.04 0.605 0 0.06 0.605 0 0.08 0.605 0 0.1 0.605 0 0 0.61 0 0.02 0.61 0 0.04 0.61 0 0.06 0.61 0 0.08 0.61 0 0.1 0.61 0 0 0.615 0 0.02 0.615 0 0.04 0.615 0 0.06 0.615 0 0.08 0.615 0 0.1 0.615 0 0 0.62 0 0.02 0.62 0 0.04 0.62 0 0.06 0.62 0 0.08 0.62 0 0.1 0.62 0 0 0.625 0 0.02 0.625 0 0.04 0.625 0 0.06 0.625 0 0.08 0.625 0 0.1 0.625 0 0 0.63 0 0.02 0.63 0 0.04 0.63 0 0.06 0.63 0 0.08 0.63 0 0.1 0.63 0 0 0.635 0 0.02 0.635 0 0.04 0.635 0 0.06 0.635 0 0.08 0.635 0 0.1 0.635 0 0 0.64 0 0.02 0.64 0 0.04 0.64 0 0.06 0.64 0 0.08 0.64 0 0.1 0.64 0 0 0.645 0 0.02 0.645 0 0.04 0.645 0 0.06 0.645 0 0.08 0.645 0 0.1 0.645 0 0 0.65 0 0.02 0.65 0 0.04 0.65 0 0.06 0.65 0 0.08 0.65 0 0.1 0.65 0 0 0.655 0 0.02 0.655 0 0.04 0.655 0 0.06 0.655 0 0.08 0.655 0 0.1 0.655 0 0 0.66 0 0.02 0.66 0 0.04 0.66 0 0.06 0.66 0 0.08 0.66 0 0.1 0.66 0 0 0.665 0 0.02 0.665 0 0.04 0.665 0 0.06 0.665 0 0.08 0.665 0 0.1 0.665 0 0 0.67 0 0.02 0.67 0 0.04 0.67 0 0.06 0.67 0 0.08 0.67 0 0.1 0.67 0 0 0.675 0 0.02 0.675 0 0.04 0.675 0 0.06 0.675 0 0.08 0.675 0 0.1 0.675 0 0 0.68 0 0.02 0.68 0 0.04 0.68 0 0.06 0.68 0 0.08 0.68 0 0.1 0.68 0 0 0.685 0 0.02 0.685 0 0.04 0.685 0 0.06 0.685 0 0.08 0.685 0 0.1 0.685 0 0 0.69 0 0.02 0.69 0 0.04 0.69 0 0.06 0.69 0 0.08 0.69 0 0.1 
[...]
			<PointData Scalars="VitesseX">
				<DataArray Name="VitesseX" type="Float32" format="ascii">
 0 3.24557e-15 5.81584e-14 5.01676e-14 3.91097e-16 0 0 1.47662e-14 4.70397e-14 4.87791e-14 4.8427e-15 0 0 2.49076e-14 4.05493e-14 3.17626e-14 2.12329e-14 0 0 3.77856e-14 1.64311e-14 3.65685e-14 1.93669e-14 0 0 3.47841e-14 6.03223e-15 3.45198e-14 1.67556e-14 0 0 7.07893e-15 3.65448e-14 -3.13634e-15 3.55493e-14 0 0 -2.42859e-15 4.29352e-14 -1.5142e-14 4.35058e-14 0 0 5.16795e-15 2.44004e-14 6.06155e-15 3.15054e-14 0 0 1.05067e-14 1.8408e-14 1.16907e-14 2.9167e-14 0 0 9.68211e-15 2.3148e-14 2.12424e-15 3.12484e-14 0 0 2.04775e-14 7.06651e-15 2.50583e-14 7.68891e-15 0 0 1.33289e-14 1.59025e-14 3.36762e-14 -3.56111e-15 0 0 5.39106e-15 7.69703e-15 6.01091e-14 -2.09329e-14 0 0 -1.28197e-14 3.28325e-14 3.90825e-14 -1.22092e-14 0 0 -2.07516e-14 6.26752e-14 -5.85816e-15 3.20867e-14 0 0 7.0998e-15 2.48849e-14 2.16785e-14 4.82418e-14 0 0 1.73584e-14 1.55145e-14 4.06202e-14 5.00786e-14 0 0 3.01009e-14 1.21616e-14 5.53055e-14 5.02648e-14 0 0 9.76743e-15 7.39423e-14 5.0788e-15 8.32146e-14 0 0 1.33723e-14 8.55514e-14 -6.45373e-16 8.98759e-14 0 0 1.2754e-14 6.47293e-14 5.80845e-14 4.11597e-14 0 0 -8.13148e-15 9.15642e-14 6.5771e-14 6.87157e-15 0 0 2.52955e-14 7.55682e-14 7.58657e-14 -2.83034e-14 0 0 6.05087e-14 2.6552e-14 1.23127e-13 -6.27256e-14 0 0 2.22569e-14 6.65494e-14 8.81805e-14 -3.47225e-14 0 0 -1.12822e-14 1.40414e-13 -1.06914e-14 2.25674e-14 0 0 2.12855e-14 9.55789e-14 1.76843e-14 1.25989e-15 0 0 2.93333e-14 5.40393e-14 6.75673e-14 -2.61337e-14 0 0 2.56836e-14 5.37729e-14 8.20552e-14 -4.24513e-14 0 0 4.68212e-14 2.16228e-14 9.62884e-14 -2.15852e-14 0 0 3.09438e-14 4.53705e-14 7.09917e-14 6.8165e-15 0 0 2.56296e-14 7.72471e-14 7.25875e-14 -3.68862e-14 0 0 3.85844e-14 1.14712e-13 -4.68333e-15 3.49294e-14 0 0 1.50608e-14 1.35725e-13 -9.88384e-15 8.4961e-14 0 0 4.1734e-14 7.88523e-14 7.57427e-14 5.43648e-14 0 0 3.33304e-14 1.28049e-13 -6.67907e-16 1.26648e-13 0 0 4.19454e-14 1.04883e-13 4.01019e-14 8.925e-14 0 0 9.23904e-14 3.48195e-14 1.14016e-13 3.15338e-14 0 0 1.60912e-13 -4.31037e-14 1.6432e-13 1.53431e-15 0 0 1.0915e-13 1.07562e-13 -3.79955e-14 1.34633e-13 0 0 1.80493e-14 2.63941e-13 -1.73207e-13 2.05364e-13 0 0 2.90813e-14 1.41442e-13 4.1162e-14 2.22821e-14 0 0 -6.17655e-14 1.94348e-13 3.14546e-14 1.73459e-14 0 0 -8.74171e-14 2.07158e-13 2.04608e-14 2.93374e-14 0 0 -3.03053e-14 1.14937e-13 1.00317e-13 -5.97916e-15 0 0 1.391e-14 1.45886e-14 2.0819e-13 -6.90358e-14 0 0 7.22034e-14 -1.17932e-13 3.45014e-13 -1.50018e-13 0 0 9.55609e-15 -3.0608e-14 2.90554e-13 -1.1195e-13 0 0 -1.2774e-13 1.94745e-13 1.17706e-13 -3.58298e-14 0 0 -2.11219e-13 3.41313e-13 -9.07004e-15 1.06563e-14 0 0 -2.47231e-13 4.25748e-13 -1.02467e-13 5.74108e-14 0 0 -1.69892e-13 3.31695e-13 -3.27185e-14 3.52919e-14 0 0 -5.28036e-14 1.61171e-13 8.60206e-14 4.4034e-14 0 0 3.30242e-14 2.02999e-15 2.73608e-13 -1.51344e-14 0 0 -1.1101e-13 1.79249e-13 2.2616e-13 -2.35636e-14 0 0 -2.13412e-13 3.38834e-13 1.21038e-13 2.76788e-14 0 0 -8.83186e-14 1.51545e-13 2.44835e-13 1.05016e-14 0 0 -9.97849e-14 1.62307e-13 1.83428e-13 9.2061e-14 0 0 -1.45856e-13 2.85335e-13 4.87681e-14 1.73032e-13 0 0 -1.18258e-13 2.74793e-13 7.51497e-14 1.15273e-13 0 0 -4.49291e-14 1.4077e-13 2.35854e-13 -3.38875e-14 0 0 1.94328e-14 4.03262e-14 3.09891e-13 -8.22671e-14 0 0 3.72092e-15 1.14981e-13 1.89054e-13 3.90936e-14 0 0 2.05879e-14 1.7347e-13 1.07267e-13 1.29343e-13 0 0 4.35223e-14 2.1174e-13 6.03134e-14 2.04906e-13 0 0 6.51601e-14 2.20854e-13 4.53363e-14 2.53904e-13 0 0 1.63173e-13 2.70866e-14 2.99068e-13 1.07896e-13 0 0 4.32214e-14 1.98007e-13 1.95938e-13 2.10422e-13 0 0 -5.83636e-14 4.31708e-13 -1.56582e-14 3.262e-13 0 0 3.6363e-14 2.445e-13 2.48972e-13 8.87013e-14 0 0 -2.89002e-14 2.24801e-13 3.76021e-13 -4.113e-15 0 0 -9.25524e-14 2.3566e-13 4.53836e-13 -1.43552e-14 0 0 -3.21052e-13 4.7602e-13 3.15588e-13 1.26674e-13 0 0 -3.30917e-13 3.60747e-13 5.23858e-13 6.3144e-14 0 0 -2.26348e-13 2.26606e-13 5.98485e-13 1.16467e-13 0 0 -1.13469e-13 1.98661e-13 4.1689e-13 2.48231e-13 0 0 -9.10621e-14 1.62643e-13 5.03785e-13 1.65976e-14 0 0 -5.0235e-13 8.3355e-13 -7.25999e-14 2.96016e-13 0 0 -2.39163e-13 5.19173e-13 9.78658e-14 3.59005e-13 0 0 -3.00481e-13 5.19675e-13 2.01798e-13 3.74684e-13 0 0 -3.91243e-13 6.64499e-13 3.38959e-13 2.07022e-13 0 0 1.8434e-13 4.42836e-14 1.02027e-12 -3.27713e-13 0 0 1.98663e-13 3.52871e-13 5.44804e-13 -7.8779e-14 0 0 2.51197e-13 4.59305e-13 7.89039e-14 3.6285e-13 0 0 5.57178e-13 2.76486e-13 2.04279e-13 2.54384e-13 0 0 3.47338e-13 5.34851e-13 1.88562e-13 3.67588e-15 0 0 1.88962e-13 7.35994e-13 1.01991e-13 -1.12569e-13 0 0 2.56437e-13 5.84165e-13 3.75354e-13 -4.72466e-13 0 0 3.68362e-13 4.61402e-13 4.52363e-13 -4.45248e-13 0 0 3.64625e-13 5.32771e-13 3.54576e-13 -2.54375e-13 0 0 2.78756e-13 8.10875e-13 2.49255e-14 1.28954e-13 0 0 3.30979e-13 8.171e-13 -1.93454e-13 4.70908e-13 0 0 4.30467e-13 7.73516e-13 -1.71951e-13 4.97195e-13 0 0 4.94748e-13 6.22962e-13 1.91848e-14 3.70957e-13 0 0 6.58451e-13 2.793e-13 3.68077e-13 1.28854e-13 0 0 6.93163e-13 6.6958e-14 5.62223e-13 2.24213e-14 0 0 6.61624e-13 9.04142e-14 5.54268e-13 6.15692e-14 0 0 5.79338e-13 1.78806e-13 4.52099e-13 2.1163e-13 0 0 3.94152e-13 4.27323e-13 2.17745e-13 3.28236e-13 0 0 1.8208e-13 7.14751e-13 4.74966e-14 3.34231e-13 0 0 8.44507e-14 8.37874e-13 4.98643e-14 2.66655e-13 0 0 9.03399e-14 8.33862e-13 9.56009e-14 1.01075e-13 0 0 1.43636e-13 7.54975e-13 2.67077e-13 -7.31254e-14 0 0 2.59898e-13 5.07937e-13 5.3078e-13 -2.5371e-13 0 0 3.13679e-13 2.39553e-13 7.50794e-13 -4.05374e-13 0 0 3.04295e-13 1.1641e-13 7.76691e-13 -4.19115e-13 0 0 2.18112e-13 1.21408e-13 7.45107e-13 -3.77236e-13 0 0 7.03855e-14 1.86742e-13 6.54131e-13 -3.04214e-13 0 0 -4.92913e-15 2.47043e-13 4.82704e-13 -1.3991e-13 0 0 -5.70188e-15 2.21491e-13 4.82629e-13 -4.19997e-14 0 0 1.03465e-14 1.60764e-13 5.24882e-13 -1.39414e-14 0 0 4.45549e-14 1.85838e-13 4.71587e-13 7.10351e-14 0 0 3.83536e-14 2.55318e-13 3.73144e-13 1.74766e-13 0 0 2.46877e-14 4.0315e-13 2.59509e-13 3.02162e-13 0 0 1.71735e-14 5.18315e-13 1.20555e-13 4.05149e-13 0 0 5.07625e-14 5.17218e-13 8.19064e-14 4.46291e-13 0 0 1.02641e-13 4.28651e-13 1.36774e-13 4.24942e-13 0 0 1.09363e-13 1.90187e-13 4.10799e-13 1.6912e-13 0 0 9.8099e-14 3.25811e-16 6.09523e-13 1.19305e-13 0 0 4.66608e-14 7.41536e-15 5.31431e-13 2.26715e-13 0 0 1.11443e-14 5.97728e-15 5.03386e-13 2.86596e-13 0 0 1.49743e-14 4.98062e-14 4.00895e-13 3.72185e-13 0 0 5.22505e-15 1.88124e-13 2.41437e-13 3.75123e-13 0 0 2.11499e-14 2.66257e-13 1.21986e-13 3.48404e-13 0 0 6.50434e-14 3.01074e-13 7.41015e-14 3.338e-13 0 0 1.02958e-13 3.05213e-13 4.60942e-14 2.50064e-13 0 0 1.33191e-13 2.69269e-13 8.59091e-14 1.50335e-13 0 0 1.24755e-13 2.48765e-13 1.35665e-13 1.19547e-13 0 0 1.17674e-13 2.25652e-13 1.57645e-13 1.2118e-13 0 0 1.02091e-13 2.29668e-13 1.58369e-13 1.19715e-13 0 0 9.22192e-14 2.13199e-13 2.26183e-13 1.58385e-13 0 0 8.16018e-14 2.22653e-13 2.92395e-13 1.6732e-13 0 0 3.39223e-14 3.41075e-13 3.09808e-13 1.67818e-13 0 0 4.94606e-14 3.267e-13 4.32206e-13 8.32675e-14 0 0 1.53253e-13 3.24441e-13 5.13447e-13 3.3745e-15 0 0 1.64792e-13 4.36555e-13 4.39985e-13 6.70304e-14 0 0 2.40143e-13 4.09136e-13 4.76338e-13 1.83134e-13 0 0 3.1152e-13 4.6158e-13 3.37634e-13 2.83714e-13 0 0 3.43142e-13 5.30725e-13 2.59202e-13 3.21116e-13 0 0 3.58723e-13 5.21645e-13 3.65189e-13 2.37443e-13 0 0 3.55757e-13 5.01891e-13 4.60869e-13 1.48438e-13 0 0 3.43562e-13 4.84875e-13 4.42669e-13 2.04682e-13 0 0 2.15955e-13 6.70624e-13 2.41638e-13 3.4531e-13 0 0 2.0248e-13 6.97639e-13 2.16871e-13 2.57566e-13 0 0 4.21199e-13 3.53436e-13 5.35933e-13 1.44535e-14 0 0 4.97153e-13 2.28343e-13 6.13002e-13 3.60636e-14 0 0 3.3393e-13 4.89704e-13 3.10661e-13 2.14295e-13 0 0 2.04412e-13 6.79245e-13 9.55585e-14 3.66168e-13 0 0 2.60913e-13 5.87376e-13 1.05437e-13 4.83471e-13 0 0 4.58447e-13 2.27065e-13 4.41328e-13 3.76072e-13 0 0 3.62663e-13 3.07414e-13 4.24818e-13 3.61961e-13 0 0 2.0287e-13 5.67383e-13 1.9994e-13 4.58143e-13 0 0 2.73104e-13 4.94167e-13 2.78834e-13 3.96667e-13 0 0 3.3148e-13 5.0936e-13 2.83805e-13 3.79386e-13 0 0 4.66507e-13 4.30148e-13 4.12422e-13 2.87417e-13 0 0 4.06975e-13 5.61557e-13 4.10282e-13 2.3263e-13 0 0 3.47776e-13 6.96032e-13 3.06891e-13 3.49585e-13 0 0 3.35301e-13 8.17091e-13 1.30795e-13 4.71223e-13 0 0 3.84474e-13 7.3027e-13 2.99283e-13 2.70307e-13 0 0 6.03505e-13 3.4298e-13 7.27909e-13 -3.72947e-14 0 0 5.91982e-13 4.25725e-13 6.33542e-13 7.95803e-14 0 0 2.08593e-13 1.15389e-12 -2.13396e-13 7.70403e-13 0 0 1.43313e-13 1.231e-12 -2.08145e-13 7.25693e-13 0 0 4.64374e-13 5.72264e-13 6.45573e-13 5.28782e-14 0 0 5.72509e-13 3.41374e-13 8.71117e-13 -1.65886e-13 0 0 4.36309e-13 5.80005e-13 5.34425e-13 1.10324e-13 0 0 3.71071e-13 7.08075e-13 3.12406e-13 3.25346e-13 0 0 3.80702e-13 6.21412e-13 4.03515e-13 1.89335e-13 0 0 5.07901e-13 4.03489e-13 5.76235e-13 6.96777e-14 0 0 5.21922e-13 4.36945e-13 4.79007e-13 1.63031e-13 0 0 4.6173e-13 4.34415e-13 5.89068e-13 8.83741e-14 0 0 3.91081e-13 4.15899e-13 7.10929e-13 1.37411e-13 0 0 2.62552e-13 6.19174e-13 4.95354e-13 4.25339e-13 0 0 3.16353e-13 5.12562e-13 6.55711e-13 3.06989e-13 0 0 3.18189e-13 5.99229e-13 4.91365e-13 4.03393e-13 0 0 3.33476e-13 6.90222e-13 2.50167e-13 5.71944e-13 0 0 4.73402e-13 4.61682e-13 4.00957e-13 4.62181e-13 0 0 5.1449e-13 2.85002e-13 5.9961e-13 2.48423e-13 0 0 2.46661e-13 6.05571e-13 3.28092e-13 3.38528e-13 0 0 1.50923e-13 7.53576e-13 1.89138e-13 3.38161e-13 0 0 3.64879e-13 3.44577e-13 6.85717e-13 -4.90102e-14 0 0 3.84047e-13 3.85909e-13 5.45137e-13 1.82122e-13 0 0 3.49033e-13 4.91099e-13 3.61996e-13 3.7979e-13 0 0 3.20911e-13 5.00417e-13 6.27948e-13 -5.28412e-14 0 0 3.11953e-13 6.68006e-13 4.70353e-13 -1.10466e-13 0 0 4.12143e-13 5.90674e-13 2.81224e-13 1.27225e-13 0 0 5.04771e-13 4.10478e-13 3.69571e-13 1.17088e-13 0 0 6.15278e-13 2.84281e-13 3.98765e-13 2.17776e-13 0 0 6.90369e-13 1.93357e-13 4.44222e-13 2.98196e-13 0 0 4.62133e-13 5.96003e-13 1.02277e-13 4.53096e-13 0 0 3.89696e-13 5.92558e-13 2.33938e-13 3.82533e-13 0 0 6.03338e-13 5.68532e-14 8.42854e-13 1.17021e-13 0 0 2.95724e-13 5.9365e-13 2.52005e-13 5.15737e-13 0 0 -2.46557e-14 1.21461e-12 -4.18471e-13 8.82954e-13 0 0 3.38445e-13 5.83337e-13 1.61703e-13 5.91713e-13 0 0 7.59968e-13 -2.07083e-13 9.1369e-13 2.85981e-13 0 0 8.24399e-13 -3.3874e-13 1.04441e-12 3.1413e-13 0 0 2.81265e-13 4.96367e-13 3.36735e-13 6.66369e-13 0 0 4.62539e-14 7.88498e-13 1.30554e-13 7.37495e-13 0 0 6.83016e-13 -3.00192e-13 1.17718e-12 2.17519e-13 0 0 9.79909e-13 -7.98849e-13 1.66163e-12 -1.70524e-14 0
				</DataArray>
				<DataArray Name="VitesseY" type="Float32" format="ascii">