<?xml version="1.0"?>
<VTKFile type="PolyData">
	<PolyData>
		<Piece NumberOfPoints="1206" NumberOfPolys="1000">
			<Points>
				<DataArray type="Float32" NumberOfComponents="3" format="ascii">
 0 0 0 0.02 0 0 0.04 0 0 0.06 0 0 0.08 0 0 0.1 0 0 0 0.005 0 0.02 0.005 0 0.04 0.005 0 0.06 0.005 0 0.08 0.005 0 0.1 0.005 0 0 0.01 0 0.02 0.01 0 0.04 0.01 0 0.06 0.01 0 0.08 0.01 0 0.1 0.01 0 0 0.015 0 0.02 0.015 0 0.04 0.015 0 0.06 0.015 0 0.08 0.015 0 0.1 0.015 0 0 0.02 0 0.02 0.02 0 0.04 0.02 0 0.06 0.02 0 0.08 0.02 0 0.1 0.02 0 0 0.025 0 0.02 0.025 0 0.04 0.025 0 0.06 0.025 0 0.08 0.025 0 0.1 0.025 0 0 0.03 0 0.02 0.03 0 0.04 0.03 0 0.06 0.03 0 0.08 0.03 0 0.1 0.03 0 0 0.035 0 0.02 0.035 0 0.04 0.035 0 0.06 0.035 0 0.08 0.035 0 0.1 0.035 0 0 0.04 0 0.02 0.04 0 0.04 0.04 0 0.06 0.04 0 0.08 0.04 0 0.1 0.04 0 0 0.045 0 0.02 0.045 0 0.04 0.045 0 0.06 0.045 0 0.08 0.045 0 0.1 0.045 0 0 0.05 0 0.02 0.05 0 0.04 0.05 0 0.06 0.05 0 0.08 0.05 0 0.1 0.05 0 0 0.055 0 0.02 0.055 0 0.04 0.055 0 0.06 0.055 0 0.08 0.055 0 0.1 0.055 0 0 0.06 0 0.02 0.06 0 0.04 0.06 0 0.06 0.06 0 0.08 0.06 0 0.1 0.06 0 0 0.065 0 0.02 0.065 0 0.04 0.065 0 0.06 0.065 0 0.08 0.065 0 0.1 0.065 0 0 0.07 0 0.02 0.07 0 0.04 0.07 0 0.06 0.07 0 0.08 0.07 0 0.1 0.07 0 0 0.075 0 0.02 0.075 0 0.04 0.075 0 0.06 0.075 0 0.08 0.075 0 0.1 0.075 0 0 0.08 0 0.02 0.08 0 0.04 0.08 0 0.06 0.08 0 0.08 0.08 0 0.1 0.08 0 0 0.085 0 0.02 0.085 0 0.04 0.085 0 0.06 0.085 0 0.08 0.085 0 0.1 0.085 0 0 0.09 0 0.02 0.09 0 0.04 0.09 0 0.06 0.09 0 0.08 0.09 0 0.1 0.09 0 0 0.095 0 0.02 0.095 0 0.04 0.095 0 0.06 0.095 0 0.08 0.095 0 0.1 0.095 0 0 0.1 0 0.02 0.1 0 0.04 0.1 0 0.06 0.1 0 0.08 0.1 0 0.1 0.1 0 0 0.105 0 0.02 0.105 0 0.04 0.105 0 0.06 0.105 0 0.08 0.105 0 0.1 0.105 0 0 0.11 0 0.02 0.11 0 0.04 0.11 0 0.06 0.11 0 0.08 0.11 0 0.1 0.11 0 0 0.115 0 0.02 0.115 0 0.04 0.115 0 0.06 0.115 0 0.08 0.115 0 0.1 0.115 0 0 0.12 0 0.02 0.12 0 0.04 0.12 0 0.06 0.12 0 0.08 0.12 0 0.1 0.12 0 0 0.125 0 0.02 0.125 0 0.04 0.125 0 0.06 0.125 0 0.08 0.125 0 0.1 0.125 0 0 0.13 0 0.02 0.13 0 0.04 0.13 0 0.06 0.13 0 0.08 0.13 0 0.1 0.13 0 0 0.135 0 0.02 0.135 0 0.04 0.135 0 0.06 0.135 0 0.08 0.135 0 0.1 0.135 0 0 0.14 0 0.02 0.14 0 0.04 0.14 0 0.06 0.14 0 0.08 0.14 0 0.1 0.14 0 0 0.145 0 0.02 0.145 0 0.04 0.145 0 0.06 0.145 0 0.08 0.145 0 0.1 0.145 0 0 0.15 0 0.02 0.15 0 0.04 0.15 0 0.06 0.15 0 0.08 0.15 0 0.1 0.15 0 0 0.155 0 0.02 0.155 0 0.04 0.155 0 0.06 0.155 0 0.08 0.155 0 0.1 0.155 0 0 0.16 0 0.02 0.16 0 0.04 0.16 0 0.06 0.16 0 0.08 0.16 0 0.1 0.16 0 0 0.165 0 0.02 0.165 0 0.04 0.165 0 0.06 0.165 0 0.08 0.165 0 0.1 0.165 0 0 0.17 0 0.02 0.17 0 0.04 0.17 0 0.06 0.17 0 0.08 0.17 0 0.1 0.17 0 0 0.175 0 0.02 0.175 0 0.04 0.175 0 0.06 0.175 0 0.08 0.175 0 0.1 0.175 0 0 0.18 0 0.02 0.18 0 0.04 0.18 0 0.06 0.18 0 0.08 0.18 0 0.1 0.18 0 0 0.185 0 0.02 0.185 0 0.04 0.185 0 0.06 0.185 0 0.08 0.185 0 0.1 0.185 0 0 0.19 0 0.02 0.19 0 0.04 0.19 0 0.06 0.19 0 0.08 0.19 0 0.1 0.19 0 0 0.195 0 0.02 0.195 0 0.04 0.195 0 0.06 0.195 0 0.08 0.195 0 0.1 0.195 0 0 0.2 0 0.02 0.2 0 0.04 0.2 0 0.06 0.2 0 0.08 0.2 0 0.1 0.2 0 0 0.205 0 0.02 0.205 0 0.04 0.205 0 0.06 0.205 0 0.08 0.205 0 0.1 0.205 0 0 0.21 0 0.02 0.21 0 0.04 0.21 0 0.06 0.21 0 0.08 0.21 0 0.1 0.21 0 0 0.215 0 0.02 0.215 0 0.04 0.215 0 0.06 0.215 0 0.08 0.215 0 0.1 0.215 0 0 0.22 0 0.02 0.22 0 0.04 0.22 0 0.06 0.22 0 0.08 0.22 0 0.1 0.22 0 0 0.225 0 0.02 0.225 0 0.04 0.225 0 0.06 0.225 0 0.08 0.225 0 0.1 0.225 0 0 0.23 0 0.02 0.23 0 0.04 0.23 0 0.06 0.23 0 0.08 0.23 0 0.1 0.23 0 0 0.235 0 0.02 0.235 0 0.04 0.235 0 0.06 0.235 0 0.08 0.235 0 0.1 0.235 0 0 0.24 0 0.02 0.24 0 0.04 0.24 0 0.06 0.24 0 0.08 0.24 0 0.1 0.24 0 0 0.245 0 0.02 0.245 0 0.04 0.245 0 0.06 0.245 0 0.08 0.245 0 0.1 0.245 0 0 0.25 0 0.02 0.25 0 0.04 0.25 0 0.06 0.25 0 0.08 0.25 0 0.1 0.25 0 0 0.255 0 0.02 0.255 0 0.04 0.255 0 0.06 0.255 0 0.08 0.255 0 0.1 0.255 0 0 0.26 0 0.02 0.26 0 0.04 0.26 0 0.06 0.26 0 0.08 0.26 0 0.1 0.26 0 0 0.265 0 0.02 0.265 0 0.04 0.265 0 0.06 0.265 0 0.08 0.265 0 0.1 0.265 0 0 0.27 0 0.02 0.27 0 0.04 0.27 0 0.06 0.27 0 0.08 0.27 0 0.1 0.27 0 0 0.275 0 0.02 0.275 0 0.04 0.275 0 0.06 0.275 0 0.08 0.275 0 0.1 0.275 0 0 0.28 0 0.02 0.28 0 0.04 0.28 0 0.06 0.28 0 0.08 0.28 0 0.1 0.28 0 0 0.285 0 0.02 0.285 0 0.04 0.285 0 0.06 0.285 0 0.08 0.285 0 0.1 0.285 0 0 0.29 0 0.02 0.29 0 0.04 0.29 0 0.06 0.29 0 0.08 0.29 0 0.1 0.29 0 0 0.295 0 0.02 0.295 0 0.04 0.295 0 0.06 0.295 0 0.08 0.295 0 0.1 0.295 0 0 0.3 0 0.02 0.3 0 0.04 0.3 0 0.06 0.3 0 0.08 0.3 0 0.1 0.3 0 0 0.305 0 0.02 0.305 0 0.04 0.305 0 0.06 0.305 0 0.08 0.305 0 0.1 0.305 0 0 0.31 0 0.02 0.31 0 0.04 0.31 0 0.06 0.31 0 0.08 0.31 0 0.1 0.31 0 0 0.315 0 0.02 0.315 0 0.04 0.315 0 0.06 0.315 0 0.08 0.315 0 0.1 0.315 0 0 0.32 0 0.02 0.32 0 0.04 0.32 0 0.06 0.32 0 0.08 0.32 0 0.1 0.32 0 0 0.325 0 0.02 0.325 0 0.04 0.325 0 0.06 0.325 0 0.08 0.325 0 0.1 0.325 0 0 0.33 0 0.02 0.33 0 0.04 0.33 0 0.06 0.33 0 0.08 0.33 0 0.1 0.33 0 0 0.335 0 0.02 0.335 0 0.04 0.335 0 0.06 0.335 0 0.08 0.335 0 0.1 0.335 0 0 0.34 0 0.02 0.34 0 0.04 0.34 0 0.06 0.34 0 0.08 0.34 0 0.1 0.34 0 0 0.345 0 0.02 0.345 0 0.04 0.345 0 0.06 0.345 0 0.08 0.345 0 0.1 0.345 0 0 0.35 0 0.02 0.35 0 0.04 0.35 0 0.06 0.35 0 0.08 0.35 0 0.1 0.35 0 0 0.355 0 0.02 0.355 0 0.04 0.355 0 0.06 0.355 0 0.08 0.355 0 0.1 0.355 0 0 0.36 0 0.02 0.36 0 0.04 0.36 0 0.06 0.36 0 0.08 0.36 0 0.1 0.36 0 0 0.365 0 0.02 0.365 0 0.04 0.365 0 0.06 0.365 0 0.08 0.365 0 0.1 0.365 0 0 0.37 0 0.02 0.37 0 0.04 0.37 0 0.06 0.37 0 0.08 0.37 0 0.1 0.37 0 0 0.375 0 0.02 0.375 0 0.04 0.375 0 0.06 0.375 0 0.08 0.375 0 0.1 0.375 0 0 0.38 0 0.02 0.38 0 0.04 0.38 0 0.06 0.38 0 0.08 0.38 0 0.1 0.38 0 0 0.385 0 0.02 0.385 0 0.04 0.385 0 0.06 0.385 0 0.08 0.385 0 0.1 0.385 0 0 0.39 0 0.02 0.39 0 0.04 0.39 0 0.06 0.39 0 0.08 0.39 0 0.1 0.39 0 0 0.395 0 0.02 0.395 0 0.04 0.395 0 0.06 0.395 0 0.08 0.395 0 0.1 0.395 0 0 0.4 0 0.02 0.4 0 0.04 0.4 0 0.06 0.4 0 0.08 0.4 0 0.1 0.4 0 0 0.405 0 0.02 0.405 0 0.04 0.405 0 0.06 0.405 0 0.08 0.405 0 0.1 0.405 0 0 0.41 0 0.02 0.41 0 0.04 0.41 0 0.06 0.41 0 0.08 0.41 0 0.1 0.41 0 0 0.415 0 0.02 0.415 0 0.04 0.415 0 0.06 0.415 0 0.08 0.415 0 0.1 0.415 0 0 0.42 0 0.02 0.42 0 0.04 0.42 0 0.06 0.42 0 0.08 0.42 0 0.1 0.42 0 0 0.425 0 0.02 0.425 0 0.04 0.425 0 0.06 0.425 0 0.08 0.425 0 0.1 0.425 0 0 0.43 0 0.02 0.43 0 0.04 0.43 0 0.06 0.43 0 0.08 0.43 0 0.1 0.43 0 0 0.435 0 0.02 0.435 0 0.04 0.435 0 0.06 0.435 0 0.08 0.435 0 0.1 0.435 0 0 0.44 0 0.02 0.44 0 0.04 0.44 0 0.06 0.44 0 0.08 0.44 0 0.1 0.44 0 0 0.445 0 0.02 0.445 0 0.04 0.445 0 0.06 0.445 0 0.08 0.445 0 0.1 0.445 0 0 0.45 0 0.02 0.45 0 0.04 0.45 0 0.06 0.45 0 0.08 0.45 0 0.1 0.45 0 0 0.455 0 0.02 0.455 0 0.04 0.455 0 0.06 0.455 0 0.08 0.455 0 0.1 0.455 0 0 0.46 0 0.02 0.46 0 0.04 0.46 0 0.06 0.46 0 0.08 0.46 0 0.1 0.46 0 0 0.465 0 0.02 0.465 0 0.04 0.465 0 0.06 0.465 0 0.08 0.465 0 0.1 0.465 0 0 0.47 0 0.02 0.47 0 0.04 0.47 0 0.06 0.47 0 0.08 0.47 0 0.1 0.47 0 0 0.475 0 0.02 0.475 0 0.04 0.475 0 0.06 0.475 0 0.08 0.475 0 0.1 0.475 0 0 0.48 0 0.02 0.48 0 0.04 0.48 0 0.06 0.48 0 0.08 0.48 0 0.1 0.48 0 0 0.485 0 0.02 0.485 0 0.04 0.485 0 0.06 0.485 0 0.08 0.485 0 0.1 0.485 0 0 0.49 0 0.02 0.49 0 0.04 0.49 0 0.06 0.49 0 0.08 0.49 0 0.1 0.49 0 0 0.495 0 0.02 0.495 0 0.04 0.495 0 0.06 0.495 0 0.08 0.495 0 0.1 0.495 0 0 0.5 0 0.02 0.5 0 0.04 0.5 0 0.06 0.5 0 0.08 0.5 0 0.1 0.5 0 0 0.505 0 0.02 0.505 0 0.04 0.505 0 0.06 0.505 0 0.08 0.505 0 0.1 0.505 0 0 0.51 0 0.02 0.51 0 0.04 0.51 0 0.06 0.51 0 0.08 0.51 0 0.1 0.51 0 0 0.515 0 0.02 0.515 0 0.04 0.515 0 0.06 0.515 0 0.08 0.515 0 0.1 0.515 0 0 0.52 0 0.02 0.52 0 0.04 0.52 0 0.06 0.52 0 0.08 0.52 0 0.1 0.52 0 0 0.525 0 0.02 0.525 0 0.04 0.525 0 0.06 0.525 0 0.08 0.525 0 0.1 0.525 0 0 0.53 0 0.02 0.53 0 0.04 0.53 0 0.06 0.53 0 0.08 0.53 0 0.1 0.53 0 0 0.535 0 0.02 0.535 0 0.04 0.535 0 0.06 0.535 0 0.08 0.535 0 0.1 0.535 0 0 0.54 0 0.02 0.54 0 0.04 0.54 0 0.06 0.54 0 0.08 0.54 0 0.1 0.54 0 0 0.545 0 0.02 0.545 0 0.04 0.545 0 0.06 0.545 0 0.08 0.545 0 0.1 0.545 0 0 0.55 0 0.02 0.55 0 0.04 0.55 0 0.06 0.55 0 0.08 0.55 0 0.1 0.55 0 0 0.555 0 0.02 0.555 0 0.04 0.555 0 0.06 0.555 0 0.08 0.555 0 0.1 0.555 0 0 0.56 0 0.02 0.56 0 0.04 0.56 0 0.06 0.56 0 0.08 0.56 0 0.1 0.56 0 0 0.565 0 0.02 0.565 0 0.04 0.565 0 0.06 0.565 0 0.08 0.565 0 0.1 0.565 0 0 0.57 0 0.02 0.57 0 0.04 0.57 0 0.06 0.57 0 0.08 0.57 0 0.1 0.57 0 0 0.575 0 0.02 0.575 0 0.04 0.575 0 0.06 0.575 0 0.08 0.575 0 0.1 0.575 0 0 0.58 0 0.02 0.58 0 0.04 0.58 0 0.06 0.58 0 0.08 0.58 0 0.1 0.58 0 0 0.585 0 0.02 0.585 0 0.04 0.585 0 0.06 0.585 0 0.08 0.585 0 0.1 0.585 0 0 0.59 0 0.02 0.59 0 0.04 0.59 0 0.06 0.59 0 0.08 0.59 0 0.1 0.59 0 0 0.595 0 0.02 0.595 0 0.04 0.595 0 0.06 0.595 0 0.08 0.595 0 0.1 0.595 0 0 0.6 0 0.02 0.6 0 0.04 0.6 0 0.06 0.6 0 0.08 0.6 0 0.1 0.6 0 0 0.605 0 0.02 0.605 0 0.04 0.605 0 0.06 0.605 0 0.08 0.605 0 0.1 0.605 0 0 0.61 0 0.02 0.61 0 0.04 0.61 0 0.06 0.61 0 0.08 0.61 0 0.1 0.61 0 0 0.615 0 0.02 0.615 0 0.04 0.615 0 0.06 0.615 0 0.08 0.615 0 0.1 0.615 0 0 0.62 0 0.02 0.62 0 0.04 0.62 0 0.06 0.62 0 0.08 0.62 0 0.1 0.62 0 0 0.625 0 0.02 0.625 0 0.04 0.625 0 0.06 0.625 0 0.08 0.625 0 0.1 0.625 0 0 0.63 0 0.02 0.63 0 0.04 0.63 0 0.06 0.63 0 0.08 0.63 0 0.1 0.63 0 0 0.635 0 0.02 0.635 0 0.04 0.635 0 0.06 0.635 0 0.08 0.635 0 0.1 0.635 0 0 0.64 0 0.02 0.64 0 0.04 0.64 0 0.06 0.64 0 0.08 0.64 0 0.1 0.64 0 0 0.645 0 0.02 0.645 0 0.04 0.645 0 0.06 0.645 0 0.08 0.645 0 0.1 0.645 0 0 0.65 0 0.02 0.65 0 0.04 0.65 0 0.06 0.65 0 0.08 0.65 0 0.1 0.65 0 0 0.655 0 0.02 0.655 0 0.04 0.655 0 0.06 0.655 0 0.08 0.655 0 0.1 0.655 0 0 0.66 0 0.02 0.66 0 0.04 0.66 0 0.06 0.66 0 0.08 0.66 0 0.1 0.66 0 0 0.665 0 0.02 0.665 0 0.04 0.665 0 0.06 0.665 0 0.08 0.665 0 0.1 0.665 0 0 0.67 0 0.02 0.67 0 0.04 0.67 0 0.06 0.67 0 0.08 0.67 0 0.1 0.67 0 0 0.675 0 0.02 0.675 0 0.04 0.675 0 0.06 0.675 0 0.08 0.675 0 0.1 0.675 0 0 0.68 0 0.02 0.68 0 0.04 0.68 0 0.06 0.68 0 0.08 0.68 0 0.1 0.68 0 0 0.685 0 0.02 0.685 0 0.04 0.685 0 0.06 0.685 0 0.08 0.685 0 0.1 0.685 0 0 0.69 0 0.02 0.69 0 0.04 0.69 0 0.06 0.69 0 0.08 0.69 0 0.1 
[...]
			<PointData Scalars="VitesseX">
				<DataArray Name="VitesseX" type="Float32" format="ascii">
 0 2.30228e-14 -1.45835e-14 1.07108e-14 -2.55278e-15 0 0 1.85206e-14 -2.61555e-15 -3.79891e-15 1.25527e-14 0 0 1.746e-14 5.70128e-15 -5.5094e-15 2.03715e-14 0 0 1.90221e-14 7.71776e-15 1.32839e-14 6.46857e-15 0 0 -4.72333e-15 4.51599e-14 6.79566e-15 4.10629e-15 0 0 -1.21833e-14 6.25589e-14 7.27582e-15 -1.30759e-15 0 0 4.04948e-14 3.96807e-15 5.6569e-14 -3.1257e-14 0 0 6.47242e-14 -1.46322e-14 7.0533e-14 -3.86239e-14 0 0 5.03547e-14 9.06404e-15 4.43555e-14 -1.89754e-14 0 0 1.71291e-14 5.5259e-14 -8.25781e-15 1.22358e-14 0 0 7.83767e-15 6.61306e-14 -2.93359e-14 1.79301e-14 0 0 2.98261e-14 3.45724e-14 -2.51156e-14 2.97999e-14 0 0 5.58854e-14 -3.62838e-15 6.02743e-15 1.9089e-14 0 0 6.09447e-14 -8.6658e-15 2.45325e-14 -1.79425e-16 0 0 3.80209e-14 3.38765e-14 -2.03901e-15 -1.18493e-15 0 0 6.49753e-14 -7.20809e-15 5.23482e-14 -5.65773e-14 0 0 4.21116e-14 3.67542e-14 -9.09847e-17 -2.10963e-14 0 0 6.15691e-15 7.43741e-14 -1.17202e-14 -9.38544e-15 0 0 1.6804e-14 5.16907e-14 8.90447e-15 -9.3002e-15 0 0 2.5557e-14 4.981e-14 -1.96735e-14 1.89478e-14 0 0 7.60574e-14 -4.26528e-14 6.51041e-14 -2.43691e-14 0 0 8.73541e-14 -5.98807e-14 6.98614e-14 -3.61156e-15 0 0 8.37357e-15 7.20436e-14 -5.98829e-14 7.59512e-14 0 0 -5.98351e-15 1.17101e-13 -1.29978e-13 1.32432e-13 0 0 9.76713e-14 -4.76668e-14 3.97188e-14 3.93977e-14 0 0 1.55375e-13 -1.5715e-13 1.98418e-13 -5.67966e-14 0 0 8.21698e-14 -1.40187e-14 5.56225e-14 7.88515e-14 0 0 1.02608e-14 1.28222e-13 -5.69071e-14 1.49306e-13 0 0 5.94587e-14 6.09454e-14 3.05406e-14 8.38093e-14 0 0 1.34521e-13 -6.01082e-14 1.23203e-13 3.79325e-14 0 0 1.33052e-13 -6.69446e-14 1.20953e-13 -5.03206e-15 0 0 6.64963e-14 3.32583e-14 1.067e-14 -1.24209e-15 0 0 1.40981e-14 1.10306e-13 -7.66095e-14 2.40577e-14 0 0 2.64621e-14 9.86546e-14 -9.75276e-14 6.53018e-14 0 0 8.94314e-14 -1.94845e-14 2.72896e-14 7.48583e-15 0 0 1.09598e-13 -7.09265e-14 7.82695e-14 -2.70497e-14 0 0 9.4567e-14 -3.71046e-14 -5.27867e-15 2.09008e-14 0 0 5.15758e-14 5.98078e-14 -1.24848e-13 9.41035e-14 0 0 -1.83513e-14 1.77902e-13 -2.11868e-13 1.37031e-13 0 0 5.36219e-14 2.11364e-14 1.06693e-14 -1.70749e-14 0 0 1.32878e-13 -1.35965e-13 1.95173e-13 -1.29707e-13 0 0 1.09447e-13 -7.32527e-14 1.2e-13 -8.44079e-14 0 0 6.60154e-14 6.92507e-14 -4.82749e-14 2.03798e-14 0 0 1.76581e-13 -2.96116e-14 2.42537e-14 -2.03047e-15 0 0 3.06691e-13 -1.49354e-13 1.23116e-13 -5.24631e-14 0 0 1.9418e-13 8.89431e-14 -1.37161e-13 1.15045e-13 0 0 5.67291e-14 2.74825e-13 -3.09927e-13 2.41289e-13 0 0 7.80596e-14 2.22055e-13 -2.49356e-13 2.09866e-13 0 0 2.16165e-13 1.50425e-14 -8.15266e-14 1.51745e-13 0 0 4.05005e-13 -3.0362e-13 1.56457e-13 1.01626e-13 0 0 5.4044e-13 -5.88228e-13 4.36297e-13 -4.56607e-14 0 0 2.92058e-13 -2.73237e-13 2.08704e-13 -7.45699e-15 0 0 -6.0268e-14 2.85215e-13 -3.2614e-13 2.46161e-13 0 0 6.66275e-14 1.51861e-13 -2.81014e-13 2.38892e-13 0 0 3.37262e-13 -2.10016e-13 -2.59305e-14 1.35223e-13 0 0 3.44862e-13 -1.73465e-13 -9.95943e-14 1.9829e-13 0 0 2.56722e-13 -5.12512e-14 -1.90485e-13 1.97554e-13 0 0 2.13874e-13 -5.99513e-14 -1.14911e-13 7.88575e-14 0 0 2.3283e-13 -1.28395e-13 -9.95607e-15 -4.62259e-14 0 0 2.60767e-13 -1.54618e-13 3.19629e-14 -1.2899e-13 0 0 2.0386e-13 -1.11418e-14 -1.08142e-13 -4.58058e-14 0 0 1.53422e-13 6.79098e-14 -1.99667e-13 8.09996e-14 0 0 1.46779e-13 2.69591e-14 -7.48333e-14 -5.22122e-15 0 0 1.86113e-13 -1.00117e-13 1.75064e-13 -2.12236e-13 0 0 1.30009e-13 -5.47368e-14 1.74812e-13 -2.04829e-13 0 0 1.25544e-14 1.19344e-13 3.14087e-14 -1.2459e-13 0 0 2.23778e-15 2.0656e-13 -1.16419e-13 -1.87488e-14 0 0 1.84981e-13 2.10943e-14 -7.22354e-14 -5.29529e-15 0 0 3.98953e-13 -3.13138e-13 2.28857e-13 -1.92646e-13 0 0 2.54126e-13 -6.24768e-14 9.62277e-15 -8.08575e-14 0 0 1.0663e-13 2.66269e-13 -3.52422e-13 1.55338e-13 0 0 2.9548e-13 5.4579e-14 -2.13654e-13 1.93176e-13 0 0 5.16758e-13 -2.47438e-13 6.37644e-14 1.72833e-13 0 0 4.77549e-13 -1.40043e-13 2.81767e-14 2.02269e-13 0 0 3.90023e-13 1.52891e-13 -2.17346e-13 3.35677e-13 0 0 3.89549e-13 2.65895e-13 -2.69841e-13 3.14735e-13 0 0 4.82773e-13 1.2614e-14 1.52978e-13 -3.55944e-14 0 0 5.60421e-13 -2.4235e-13 5.14937e-13 -2.28339e-13 0 0 5.99741e-13 -1.63704e-13 2.80394e-13 1.14136e-13 0 0 5.20238e-13 1.67391e-14 1.19134e-13 3.14673e-13 0 0 3.37959e-13 8.16771e-14 3.91213e-13 8.25832e-14 0 0 2.66906e-13 3.34052e-13 1.32222e-13 2.55333e-13 0 0 2.49534e-13 6.2474e-13 -4.08653e-13 7.19892e-13 0 0 4.17495e-13 1.89813e-13 1.2876e-13 4.41549e-13 0 0 4.58855e-13 -4.3268e-13 1.13303e-12 -1.93869e-13 0 0 -9.7112e-14 2.15373e-13 7.72371e-13 1.60742e-14 0 0 -2.64829e-13 9.50014e-13 -8.11795e-14 5.65455e-13 0 0 1.96991e-13 4.24386e-13 1.63946e-13 5.47411e-13 0 0 4.919e-13 -1.61293e-13 9.09095e-13 -1.17776e-14 0 0 6.15155e-13 -1.69663e-13 9.17775e-13 -2.3386e-14 0 0 3.58499e-13 5.4912e-14 5.80078e-13 2.57464e-14 0 0 -5.29311e-13 9.2693e-13 3.65213e-13 -2.85118e-13 0 0 -5.52063e-13 1.10578e-12 -4.00766e-15 -1.51372e-13 0 0 -2.14539e-13 8.27564e-13 -1.78117e-14 8.70782e-14 0 0 4.09929e-13 1.44059e-13 1.86324e-13 2.37158e-13 0 0 9.61636e-13 -5.32322e-13 5.06797e-13 3.41242e-13 0 0 9.67814e-13 -6.16926e-13 5.30134e-13 4.08402e-13 0 0 7.46796e-13 -5.15922e-13 4.73857e-13 4.42082e-13 0 0 6.59096e-14 -5.82722e-14 3.0333e-13 4.64245e-13 0 0 -5.41058e-13 4.78884e-13 -1.53091e-13 5.20965e-13 0 0 -6.1619e-13 5.79856e-13 -6.59744e-13 7.37574e-13 0 0 -4.94912e-13 5.13662e-13 -7.36884e-13 8.90648e-13 0 0 -4.34439e-15 1.31358e-13 -6.84538e-13 8.74417e-13 0 0 5.13238e-13 -4.23645e-13 -4.49639e-13 7.96239e-13 0 0 6.93992e-13 -6.98556e-13 -1.18437e-13 6.02026e-13 0 0 6.6559e-13 -6.89989e-13 2.07171e-13 3.51481e-13 0 0 4.54445e-13 -4.99741e-13 2.58409e-13 2.04574e-13 0 0 1.51785e-13 -9.72772e-14 1.94066e-13 1.66861e-13 0 0 -3.04935e-14 2.49204e-13 9.0904e-14 1.21907e-13 0 0 -4.47744e-14 2.99916e-13 9.36665e-14 3.74198e-14 0 0 -4.12532e-14 2.90351e-13 1.79798e-13 -1.09177e-13 0 0 1.93466e-14 1.77141e-13 2.721e-13 -1.70402e-13 0 0 8.61687e-14 8.65457e-15 2.41116e-13 -1.60116e-13 0 0 8.42344e-14 -3.89001e-14 8.60084e-14 -6.39608e-14 0 0 6.01221e-14 -3.84053e-14 -1.06283e-14 -1.35772e-14 0 0 1.62281e-14 -3.1747e-14 -5.82089e-14 -3.78473e-15 0 0 5.74219e-14 -7.68787e-14 -6.22638e-14 2.18812e-14 0 0 8.4634e-14 -1.03717e-13 -4.50838e-14 -1.35385e-14 0 0 7.33862e-14 -1.1236e-13 1.06612e-14 -1.42867e-13 0 0 6.02918e-14 -1.39551e-13 1.09742e-13 -2.59496e-13 0 0 3.22787e-14 -9.08857e-14 8.17211e-14 -2.048e-13 0 0 4.59939e-14 -2.21096e-14 -3.89444e-14 2.38784e-14 0 0 1.4133e-13 -3.45157e-14 -6.36651e-14 7.50986e-14 0 0 1.36503e-13 2.44739e-14 -5.79151e-14 3.1229e-14 0 0 9.51963e-14 1.06623e-13 -4.45663e-14 1.42428e-13 0 0 9.69537e-14 1.65397e-13 -4.32131e-14 2.0249e-13 0 0 1.61884e-13 1.19605e-13 1.85419e-14 1.62097e-13 0 0 3.9994e-13 -1.90162e-13 3.36696e-13 -7.59282e-14 0 0 2.97019e-13 5.04254e-14 1.07448e-13 -1.53525e-14 0 0 2.11495e-13 1.58455e-13 4.24994e-14 1.62888e-14 0 0 1.50312e-13 2.29618e-13 -1.81729e-14 4.59049e-14 0 0 1.96527e-13 1.45624e-13 2.12449e-14 6.44847e-14 0 0 3.87882e-13 -1.80776e-13 3.31021e-13 -1.67072e-13 0 0 2.55403e-13 -2.74338e-15 1.8338e-13 -1.54139e-13 0 0 2.11352e-13 6.14073e-14 1.49974e-13 -1.16182e-13 0 0 1.5354e-13 2.31061e-13 -6.32046e-14 1.07308e-13 0 0 2.34362e-13 1.32139e-13 1.26524e-14 1.94902e-13 0 0 4.22581e-13 -2.01935e-13 4.48158e-13 -4.60684e-14 0 0 1.0884e-13 2.9903e-13 1.89063e-14 1.95936e-13 0 0 1.18495e-13 2.48777e-13 1.09167e-13 1.49308e-13 0 0 2.29824e-13 9.01658e-14 2.70181e-13 9.78319e-14 0 0 3.82473e-14 5.07694e-13 -2.70709e-13 4.92824e-13 0 0 4.78096e-13 -1.3687e-13 2.91973e-13 1.51811e-13 0 0 6.60748e-13 -3.699e-13 5.69311e-13 -1.23269e-13 0 0 1.07543e-13 5.23826e-13 -2.33748e-13 3.80708e-13 0 0 4.05613e-14 5.51306e-13 -1.76698e-13 3.78287e-13 0 0 1.87463e-13 2.45584e-13 8.59202e-14 1.88909e-13 0 0 4.69204e-13 -3.13442e-13 6.95036e-13 -1.89104e-13 0 0 5.58959e-13 -3.76004e-13 7.62985e-13 -2.62183e-13 0 0 2.42193e-19 6.89743e-13 -3.15895e-13 2.09665e-13 0 0 2.93997e-13 3.40524e-13 5.15711e-14 -1.46407e-13 0 0 4.89459e-13 1.35317e-13 7.77769e-14 -5.83533e-14 0 0 4.3065e-13 1.25712e-13 7.80982e-14 -4.93209e-15 0 0 3.89404e-13 -1.16284e-14 3.28896e-13 -1.30316e-13 0 0 9.75654e-14 2.92364e-13 9.68891e-15 8.81463e-14 0 0 -3.08077e-14 3.80806e-13 -1.10251e-13 1.55989e-13 0 0 1.7705e-13 -1.63933e-14 1.53796e-13 8.61957e-14 0 0 5.96036e-13 -6.85626e-13 6.26072e-13 -2.52048e-14 0 0 2.78842e-13 -2.89407e-13 3.17427e-13 1.77148e-13 0 0 -2.0719e-13 2.94852e-13 -1.35365e-14 2.49243e-13 0 0 -3.40034e-13 3.83718e-13 7.10599e-14 1.16841e-13 0 0 3.00148e-13 -6.54548e-13 9.96489e-13 -3.69607e-13 0 0 5.77464e-13 -1.13887e-12 1.38939e-12 -5.7363e-13 0 0 -1.0932e-13 -1.21847e-13 3.90745e-13 3.89368e-14 0 0 -3.83701e-13 4.02056e-13 -3.66621e-13 6.06306e-13 0 0 -1.45761e-13 1.06768e-13 -1.88394e-13 5.20491e-13 0 0 4.64257e-14 -3.06115e-13 4.00094e-13 2.14918e-13 0 0 -4.19644e-14 -3.70683e-13 7.13591e-13 -1.00449e-15 0 0 -5.08781e-13 2.71769e-13 1.73157e-13 3.01952e-13 0 0 -1.9894e-13 -4.16181e-14 2.77756e-13 2.78077e-13 0 0 2.22041e-14 -2.09231e-13 2.17647e-13 2.47686e-13 0 0 -3.22215e-13 2.86195e-13 -4.04796e-13 6.00776e-13 0 0 4.10667e-14 -3.67936e-13 1.38167e-13 2.96285e-13 0 0 5.74955e-14 -3.47026e-13 7.3907e-14 2.8535e-13 0 0 2.30562e-14 -3.45448e-13 1.78491e-13 1.09443e-13 0 0 5.2684e-14 -4.60454e-13 4.25445e-13 -1.50631e-13 0 0 -3.17762e-13 1.3965e-13 -6.48127e-14 -3.51223e-14 0 0 -2.38616e-13 3.84427e-14 4.1365e-14 -2.63128e-13 0 0 -4.82578e-14 -1.88942e-13 8.12499e-14 -2.83275e-13 0 0 1.42805e-13 -4.29277e-13 2.31318e-13 -2.76425e-13 0 0 -8.93475e-15 -2.31446e-13 1.58857e-13 -2.00584e-13 0 0 -3.85888e-13 3.57263e-13 -3.21999e-13 -6.42646e-15 0 0 -1.38259e-13 6.05643e-14 7.98332e-14 -4.20053e-13 0 0 6.02762e-14 -1.37639e-13 2.50266e-13 -4.73736e-13 0 0 1.62626e-13 -2.92377e-13 2.90243e-13 -3.28917e-13 0 0 -3.62184e-14 -2.05386e-13 4.01102e-13 -4.22035e-13 0 0 -4.83853e-13 3.93338e-13 9.54558e-14 -4.07123e-13 0 0 -1.66981e-13 1.55036e-13 2.14969e-13 -5.47939e-13 0 0 1.25487e-13 1.83432e-14 -2.69645e-16 -2.17409e-13 0 0 5.05974e-13 -5.26471e-13 4.58058e-13 -3.82207e-13 0 0 2.20244e-13 -1.79393e-13 2.8163e-13 -3.47976e-13 0 0 -4.62817e-13 9.07988e-13 -8.0138e-13 4.57206e-13 0 0 4.38224e-13 -3.66213e-13 3.43361e-13 -1.63775e-13 0 0 1.05453e-12 -1.12949e-12 1.0115e-12 -6.73149e-13 0 0 4.70776e-13 -9.48912e-14 -1.02758e-13 -3.70715e-14 0 0 -2.53721e-13 7.97973e-13 -6.97183e-13 1.9104e-13 0 0 -3.91731e-13 8.69232e-13 -7.5543e-13 3.12695e-13 0 0 8.64525e-13 -9.71813e-13 7.98555e-13 -3.33951e-13 0 0 1.05351e-12 -1.06077e-12 8.72668e-13 -2.87717e-13 0 0 -1.44846e-13 9.6754e-13 -1.09295e-12 7.76648e-13 0 0 -4.61355e-13 1.45165e-12 -1.51431e-12 9.35848e-13 0
				</DataArray>
				<DataArray Name="VitesseY" type="Float32" format="ascii">