<?xml version="1.0"?>
<VTKFile type="PolyData">
	<PolyData>
		<Piece NumberOfPoints="1206" NumberOfPolys="1000">
			<Points>
				<DataArray type="Float32" NumberOfComponents="3" format="ascii">
 0 0 0 0.02 0 0 0.04 0 0 0.06 0 0 0.08 0 0 0.1 0 0 0 0.005 0 0.02 0.005 0 0.04 0.005 0 0.06 0.005 0 0.08 0.005 0 0.1 0.005 0 0 0.01 0 0.02 0.01 0 0.04 0.01 0 0.06 0.01 0 0.08 0.01 0 0.1 0.01 0 0 0.015 0 0.02 0.015 0 0.04 0.015 0 0.06 0.015 0 0.08 0.015 0 0.1 0.015 0 0 0.02 0 0.02 0.02 0 0.04 0.02 0 0.06 0.02 0 0.08 0.02 0 0.1 0.02 0 0 0.025 0 0.02 0.025 0 0.04 0.025 0 0.06 0.025 0 0.08 0.025 0 0.1 0.025 0 0 0.03 0 0.02 0.03 0 0.04 0.03 0 0.06 0.03 0 0.08 0.03 0 0.1 0.03 0 0 0.035 0 0.02 0.035 0 0.04 0.035 0 0.06 0.035 0 0.08 0.035 0 0.1 0.035 0 0 0.04 0 0.02 0.04 0 0.04 0.04 0 0.06 0.04 0 0.08 0.04 0 0.1 0.04 0 0 0.045 0 0.02 0.045 0 0.04 0.045 0 0.06 0.045 0 0.08 0.045 0 0.1 0.045 0 0 0.05 0 0.02 0.05 0 0.04 0.05 0 0.06 0.05 0 0.08 0.05 0 0.1 0.05 0 0 0.055 0 0.02 0.055 0 0.04 0.055 0 0.06 0.055 0 0.08 0.055 0 0.1 0.055 0 0 0.06 0 0.02 0.06 0 0.04 0.06 0 0.06 0.06 0 0.08 0.06 0 0.1 0.06 0 0 0.065 0 0.02 0.065 0 0.04 0.065 0 0.06 0.065 0 0.08 0.065 0 0.1 0.065 0 0 0.07 0 0.02 0.07 0 0.04 0.07 0 0.06 0.07 0 0.08 0.07 0 0.1 0.07 0 0 0.075 0 0.02 0.075 0 0.04 0.075 0 0.06 0.075 0 0.08 0.075 0 0.1 0.075 0 0 0.08 0 0.02 0.08 0 0.04 0.08 0 0.06 0.08 0 0.08 0.08 0 0.1 0.08 0 0 0.085 0 0.02 0.085 0 0.04 0.085 0 0.06 0.085 0 0.08 0.085 0 0.1 0.085 0 0 0.09 0 0.02 0.09 0 0.04 0.09 0 0.06 0.09 0 0.08 0.09 0 0.1 0.09 0 0 0.095 0 0.02 0.095 0 0.04 0.095 0 0.06 0.095 0 0.08 0.095 0 0.1 0.095 0 0 0.1 0 0.02 0.1 0 0.04 0.1 0 0.06 0.1 0 0.08 0.1 0 0.1 0.1 0 0 0.105 0 0.02 0.105 0 0.04 0.105 0 0.06 0.105 0 0.08 0.105 0 0.1 0.105 0 0 0.11 0 0.02 0.11 0 0.04 0.11 0 0.06 0.11 0 0.08 0.11 0 0.1 0.11 0 0 0.115 0 0.02 0.115 0 0.04 0.115 0 0.06 0.115 0 0.08 0.115 0 0.1 0.115 0 0 0.12 0 0.02 0.12 0 0.04 0.12 0 0.06 0.12 0 0.08 0.12 0 0.1 0.12 0 0 0.125 0 0.02 0.125 0 0.04 0.125 0 0.06 0.125 0 0.08 0.125 0 0.1 0.125 0 0 0.13 0 0.02 0.13 0 0.04 0.13 0 0.06 0.13 0 0.08 0.13 0 0.1 0.13 0 0 0.135 0 0.02 0.135 0 0.04 0.135 0 0.06 0.135 0 0.08 0.135 0 0.1 0.135 0 0 0.14 0 0.02 0.14 0 0.04 0.14 0 0.06 0.14 0 0.08 0.14 0 0.1 0.14 0 0 0.145 0 0.02 0.145 0 0.04 0.145 0 0.06 0.145 0 0.08 0.145 0 0.1 0.145 0 0 0.15 0 0.02 0.15 0 0.04 0.15 0 0.06 0.15 0 0.08 0.15 0 0.1 0.15 0 0 0.155 0 0.02 0.155 0 0.04 0.155 0 0.06 0.155 0 0.08 0.155 0 0.1 0.155 0 0 0.16 0 0.02 0.16 0 0.04 0.16 0 0.06 0.16 0 0.08 0.16 0 0.1 0.16 0 0 0.165 0 0.02 0.165 0 0.04 0.165 0 0.06 0.165 0 0.08 0.165 0 0.1 0.165 0 0 0.17 0 0.02 0.17 0 0.04 0.17 0 0.06 0.17 0 0.08 0.17 0 0.1 0.17 0 0 0.175 0 0.02 0.175 0 0.04 0.175 0 0.06 0.175 0 0.08 0.175 0 0.1 0.175 0 0 0.18 0 0.02 0.18 0 0.04 0.18 0 0.06 0.18 0 0.08 0.18 0 0.1 0.18 0 0 0.185 0 0.02 0.185 0 0.04 0.185 0 0.06 0.185 0 0.08 0.185 0 0.1 0.185 0 0 0.19 0 0.02 0.19 0 0.04 0.19 0 0.06 0.19 0 0.08 0.19 0 0.1 0.19 0 0 0.195 0 0.02 0.195 0 0.04 0.195 0 0.06 0.195 0 0.08 0.195 0 0.1 0.195 0 0 0.2 0 0.02 0.2 0 0.04 0.2 0 0.06 0.2 0 0.08 0.2 0 0.1 0.2 0 0 0.205 0 0.02 0.205 0 0.04 0.205 0 0.06 0.205 0 0.08 0.205 0 0.1 0.205 0 0 0.21 0 0.02 0.21 0 0.04 0.21 0 0.06 0.21 0 0.08 0.21 0 0.1 0.21 0 0 0.215 0 0.02 0.215 0 0.04 0.215 0 0.06 0.215 0 0.08 0.215 0 0.1 0.215 0 0 0.22 0 0.02 0.22 0 0.04 0.22 0 0.06 0.22 0 0.08 0.22 0 0.1 0.22 0 0 0.225 0 0.02 0.225 0 0.04 0.225 0 0.06 0.225 0 0.08 0.225 0 0.1 0.225 0 0 0.23 0 0.02 0.23 0 0.04 0.23 0 0.06 0.23 0 0.08 0.23 0 0.1 0.23 0 0 0.235 0 0.02 0.235 0 0.04 0.235 0 0.06 0.235 0 0.08 0.235 0 0.1 0.235 0 0 0.24 0 0.02 0.24 0 0.04 0.24 0 0.06 0.24 0 0.08 0.24 0 0.1 0.24 0 0 0.245 0 0.02 0.245 0 0.04 0.245 0 0.06 0.245 0 0.08 0.245 0 0.1 0.245 0 0 0.25 0 0.02 0.25 0 0.04 0.25 0 0.06 0.25 0 0.08 0.25 0 0.1 0.25 0 0 0.255 0 0.02 0.255 0 0.04 0.255 0 0.06 0.255 0 0.08 0.255 0 0.1 0.255 0 0 0.26 0 0.02 0.26 0 0.04 0.26 0 0.06 0.26 0 0.08 0.26 0 0.1 0.26 0 0 0.265 0 0.02 0.265 0 0.04 0.265 0 0.06 0.265 0 0.08 0.265 0 0.1 0.265 0 0 0.27 0 0.02 0.27 0 0.04 0.27 0 0.06 0.27 0 0.08 0.27 0 0.1 0.27 0 0 0.275 0 0.02 0.275 0 0.04 0.275 0 0.06 0.275 0 0.08 0.275 0 0.1 0.275 0 0 0.28 0 0.02 0.28 0 0.04 0.28 0 0.06 0.28 0 0.08 0.28 0 0.1 0.28 0 0 0.285 0 0.02 0.285 0 0.04 0.285 0 0.06 0.285 0 0.08 0.285 0 0.1 0.285 0 0 0.29 0 0.02 0.29 0 0.04 0.29 0 0.06 0.29 0 0.08 0.29 0 0.1 0.29 0 0 0.295 0 0.02 0.295 0 0.04 0.295 0 0.06 0.295 0 0.08 0.295 0 0.1 0.295 0 0 0.3 0 0.02 0.3 0 0.04 0.3 0 0.06 0.3 0 0.08 0.3 0 0.1 0.3 0 0 0.305 0 0.02 0.305 0 0.04 0.305 0 0.06 0.305 0 0.08 0.305 0 0.1 0.305 0 0 0.31 0 0.02 0.31 0 0.04 0.31 0 0.06 0.31 0 0.08 0.31 0 0.1 0.31 0 0 0.315 0 0.02 0.315 0 0.04 0.315 0 0.06 0.315 0 0.08 0.315 0 0.1 0.315 0 0 0.32 0 0.02 0.32 0 0.04 0.32 0 0.06 0.32 0 0.08 0.32 0 0.1 0.32 0 0 0.325 0 0.02 0.325 0 0.04 0.325 0 0.06 0.325 0 0.08 0.325 0 0.1 0.325 0 0 0.33 0 0.02 0.33 0 0.04 0.33 0 0.06 0.33 0 0.08 0.33 0 0.1 0.33 0 0 0.335 0 0.02 0.335 0 0.04 0.335 0 0.06 0.335 0 0.08 0.335 0 0.1 0.335 0 0 0.34 0 0.02 0.34 0 0.04 0.34 0 0.06 0.34 0 0.08 0.34 0 0.1 0.34 0 0 0.345 0 0.02 0.345 0 0.04 0.345 0 0.06 0.345 0 0.08 0.345 0 0.1 0.345 0 0 0.35 0 0.02 0.35 0 0.04 0.35 0 0.06 0.35 0 0.08 0.35 0 0.1 0.35 0 0 0.355 0 0.02 0.355 0 0.04 0.355 0 0.06 0.355 0 0.08 0.355 0 0.1 0.355 0 0 0.36 0 0.02 0.36 0 0.04 0.36 0 0.06 0.36 0 0.08 0.36 0 0.1 0.36 0 0 0.365 0 0.02 0.365 0 0.04 0.365 0 0.06 0.365 0 0.08 0.365 0 0.1 0.365 0 0 0.37 0 0.02 0.37 0 0.04 0.37 0 0.06 0.37 0 0.08 0.37 0 0.1 0.37 0 0 0.375 0 0.02 0.375 0 0.04 0.375 0 0.06 0.375 0 0.08 0.375 0 0.1 0.375 0 0 0.38 0 0.02 0.38 0 0.04 0.38 0 0.06 0.38 0 0.08 0.38 0 0.1 0.38 0 0 0.385 0 0.02 0.385 0 0.04 0.385 0 0.06 0.385 0 0.08 0.385 0 0.1 0.385 0 0 0.39 0 0.02 0.39 0 0.04 0.39 0 0.06 0.39 0 0.08 0.39 0 0.1 0.39 0 0 0.395 0 0.02 0.395 0 0.04 0.395 0 0.06 0.395 0 0.08 0.395 0 0.1 0.395 0 0 0.4 0 0.02 0.4 0 0.04 0.4 0 0.06 0.4 0 0.08 0.4 0 0.1 0.4 0 0 0.405 0 0.02 0.405 0 0.04 0.405 0 0.06 0.405 0 0.08 0.405 0 0.1 0.405 0 0 0.41 0 0.02 0.41 0 0.04 0.41 0 0.06 0.41 0 0.08 0.41 0 0.1 0.41 0 0 0.415 0 0.02 0.415 0 0.04 0.415 0 0.06 0.415 0 0.08 0.415 0 0.1 0.415 0 0 0.42 0 0.02 0.42 0 0.04 0.42 0 0.06 0.42 0 0.08 0.42 0 0.1 0.42 0 0 0.425 0 0.02 0.425 0 0.04 0.425 0 0.06 0.425 0 0.08 0.425 0 0.1 0.425 0 0 0.43 0 0.02 0.43 0 0.04 0.43 0 0.06 0.43 0 0.08 0.43 0 0.1 0.43 0 0 0.435 0 0.02 0.435 0 0.04 0.435 0 0.06 0.435 0 0.08 0.435 0 0.1 0.435 0 0 0.44 0 0.02 0.44 0 0.04 0.44 0 0.06 0.44 0 0.08 0.44 0 0.1 0.44 0 0 0.445 0 0.02 0.445 0 0.04 0.445 0 0.06 0.445 0 0.08 0.445 0 0.1 0.445 0 0 0.45 0 0.02 0.45 0 0.04 0.45 0 0.06 0.45 0 0.08 0.45 0 0.1 0.45 0 0 0.455 0 0.02 0.455 0 0.04 0.455 0 0.06 0.455 0 0.08 0.455 0 0.1 0.455 0 0 0.46 0 0.02 0.46 0 0.04 0.46 0 0.06 0.46 0 0.08 0.46 0 0.1 0.46 0 0 0.465 0 0.02 0.465 0 0.04 0.465 0 0.06 0.465 0 0.08 0.465 0 0.1 0.465 0 0 0.47 0 0.02 0.47 0 0.04 0.47 0 0.06 0.47 0 0.08 0.47 0 0.1 0.47 0 0 0.475 0 0.02 0.475 0 0.04 0.475 0 0.06 0.475 0 0.08 0.475 0 0.1 0.475 0 0 0.48 0 0.02 0.48 0 0.04 0.48 0 0.06 0.48 0 0.08 0.48 0 0.1 0.48 0 0 0.485 0 0.02 0.485 0 0.04 0.485 0 0.06 0.485 0 0.08 0.485 0 0.1 0.485 0 0 0.49 0 0.02 0.49 0 0.04 0.49 0 0.06 0.49 0 0.08 0.49 0 0.1 0.49 0 0 0.495 0 0.02 0.495 0 0.04 0.495 0 0.06 0.495 0 0.08 0.495 0 0.1 0.495 0 0 0.5 0 0.02 0.5 0 0.04 0.5 0 0.06 0.5 0 0.08 0.5 0 0.1 0.5 0 0 0.505 0 0.02 0.505 0 0.04 0.505 0 0.06 0.505 0 0.08 0.505 0 0.1 0.505 0 0 0.51 0 0.02 0.51 0 0.04 0.51 0 0.06 0.51 0 0.08 0.51 0 0.1 0.51 0 0 0.515 0 0.02 0.515 0 0.04 0.515 0 0.06 0.515 0 0.08 0.515 0 0.1 0.515 0 0 0.52 0 0.02 0.52 0 0.04 0.52 0 0.06 0.52 0 0.08 0.52 0 0.1 0.52 0 0 0.525 0 0.02 0.525 0 0.04 0.525 0 0.06 0.525 0 0.08 0.525 0 0.1 0.525 0 0 0.53 0 0.02 0.53 0 0.04 0.53 0 0.06 0.53 0 0.08 0.53 0 0.1 0.53 0 0 0.535 0 0.02 0.535 0 0.04 0.535 0 0.06 0.535 0 0.08 0.535 0 0.1 0.535 0 0 0.54 0 0.02 0.54 0 0.04 0.54 0 0.06 0.54 0 0.08 0.54 0 0.1 0.54 0 0 0.545 0 0.02 0.545 0 0.04 0.545 0 0.06 0.545 0 0.08 0.545 0 0.1 0.545 0 0 0.55 0 0.02 0.55 0 0.04 0.55 0 0.06 0.55 0 0.08 0.55 0 0.1 0.55 0 0 0.555 0 0.02 0.555 0 0.04 0.555 0 0.06 0.555 0 0.08 0.555 0 0.1 0.555 0 0 0.56 0 0.02 0.56 0 0.04 0.56 0 0.06 0.56 0 0.08 0.56 0 0.1 0.56 0 0 0.565 0 0.02 0.565 0 0.04 0.565 0 0.06 0.565 0 0.08 0.565 0 0.1 0.565 0 0 0.57 0 0.02 0.57 0 0.04 0.57 0 0.06 0.57 0 0.08 0.57 0 0.1 0.57 0 0 0.575 0 0.02 0.575 0 0.04 0.575 0 0.06 0.575 0 0.08 0.575 0 0.1 0.575 0 0 0.58 0 0.02 0.58 0 0.04 0.58 0 0.06 0.58 0 0.08 0.58 0 0.1 0.58 0 0 0.585 0 0.02 0.585 0 0.04 0.585 0 0.06 0.585 0 0.08 0.585 0 0.1 0.585 0 0 0.59 0 0.02 0.59 0 0.04 0.59 0 0.06 0.59 0 0.08 0.59 0 0.1 0.59 0 0 0.595 0 0.02 0.595 0 0.04 0.595 0 0.06 0.595 0 0.08 0.595 0 0.1 0.595 0 0 0.6 0 0.02 0.6 0 0.04 0.6 0 0.06 0.6 0 0.08 0.6 0 0.1 0.6 0 0 0.605 0 0.02 0.605 0 0.04 0.605 0 0.06 0.605 0 0.08 0.605 0 0.1 0.605 0 0 0.61 0 0.02 0.61 0 0.04 0.61 0 0.06 0.61 0 0.08 0.61 0 0.1 0.61 0 0 0.615 0 0.02 0.615 0 0.04 0.615 0 0.06 0.615 0 0.08 0.615 0 0.1 0.615 0 0 0.62 0 0.02 0.62 0 0.04 0.62 0 0.06 0.62 0 0.08 0.62 0 0.1 0.62 0 0 0.625 0 0.02 0.625 0 0.04 0.625 0 0.06 0.625 0 0.08 0.625 0 0.1 0.625 0 0 0.63 0 0.02 0.63 0 0.04 0.63 0 0.06 0.63 0 0.08 0.63 0 0.1 0.63 0 0 0.635 0 0.02 0.635 0 0.04 0.635 0 0.06 0.635 0 0.08 0.635 0 0.1 0.635 0 0 0.64 0 0.02 0.64 0 0.04 0.64 0 0.06 0.64 0 0.08 0.64 0 0.1 0.64 0 0 0.645 0 0.02 0.645 0 0.04 0.645 0 0.06 0.645 0 0.08 0.645 0 0.1 0.645 0 0 0.65 0 0.02 0.65 0 0.04 0.65 0 0.06 0.65 0 0.08 0.65 0 0.1 0.65 0 0 0.655 0 0.02 0.655 0 0.04 0.655 0 0.06 0.655 0 0.08 0.655 0 0.1 0.655 0 0 0.66 0 0.02 0.66 0 0.04 0.66 0 0.06 0.66 0 0.08 0.66 0 0.1 0.66 0 0 0.665 0 0.02 0.665 0 0.04 0.665 0 0.06 0.665 0 0.08 0.665 0 0.1 0.665 0 0 0.67 0 0.02 0.67 0 0.04 0.67 0 0.06 0.67 0 0.08 0.67 0 0.1 0.67 0 0 0.675 0 0.02 0.675 0 0.04 0.675 0 0.06 0.675 0 0.08 0.675 0 0.1 0.675 0 0 0.68 0 0.02 0.68 0 0.04 0.68 0 0.06 0.68 0 0.08 0.68 0 0.1 0.68 0 0 0.685 0 0.02 0.685 0 0.04 0.685 0 0.06 0.685 0 0.08 0.685 0 0.1 0.685 0 0 0.69 0 0.02 0.69 0 0.04 0.69 0 0.06 0.69 0 0.08 0.69 0 0.1 
[...]
			<PointData Scalars="VitesseX">
				<DataArray Name="VitesseX" type="Float32" format="ascii">
 0 -2.71492e-14 2.36602e-15 9.71709e-15 -2.42471e-14 0 0 -1.96337e-14 -9.42062e-15 2.12585e-14 -3.271e-14 0 0 -2.02915e-14 -2.30181e-15 8.55678e-15 -2.70295e-14 0 0 -8.72875e-15 -8.6028e-15 -3.09109e-15 -1.33117e-14 0 0 1.56241e-14 -4.27196e-14 1.50515e-14 -8.98272e-15 0 0 7.85872e-15 -3.30121e-14 8.40454e-15 9.90028e-15 0 0 -3.29456e-14 2.30638e-14 -2.0332e-14 3.36334e-14 0 0 -5.7721e-14 5.29726e-14 -1.69009e-14 2.98668e-14 0 0 -3.40649e-14 2.57815e-14 1.43308e-14 2.06821e-14 0 0 8.91873e-15 -2.60229e-14 6.57474e-14 -5.11937e-15 0 0 3.50868e-14 -5.39431e-14 9.53218e-14 -2.75669e-14 0 0 1.01057e-14 4.04203e-15 2.47776e-14 1.53769e-14 0 0 5.32231e-15 2.04452e-14 6.8467e-15 2.34411e-14 0 0 1.06935e-14 3.42462e-16 2.28097e-14 1.63802e-14 0 0 2.50059e-14 -3.48231e-14 3.38824e-14 1.06455e-14 0 0 3.48914e-14 -4.66414e-14 2.87831e-14 -1.45802e-15 0 0 3.54166e-15 -2.93416e-16 -2.57022e-14 1.30912e-14 0 0 5.25948e-14 -8.10468e-14 3.5448e-14 -3.48272e-14 0 0 7.87116e-14 -1.1431e-13 6.3508e-14 -4.46924e-14 0 0 7.91677e-15 -2.4343e-14 2.19803e-14 -3.10337e-14 0 0 -5.22038e-14 4.57123e-14 1.14306e-15 -5.69196e-14 0 0 -4.21259e-14 3.62836e-14 -1.54725e-14 -4.46675e-14 0 0 1.16392e-14 -6.00799e-14 4.16705e-14 -5.25065e-14 0 0 -2.91617e-15 -5.36872e-14 1.92818e-14 -3.24123e-14 0 0 -9.17e-14 4.13903e-14 -3.98702e-14 -1.68189e-14 0 0 -1.25507e-13 5.76457e-14 -4.02249e-14 -1.88541e-14 0 0 -8.84811e-14 3.16104e-14 -7.3004e-14 3.67822e-14 0 0 -4.65399e-14 -3.20381e-14 -2.16428e-14 2.70234e-14 0 0 -6.92554e-14 -3.7777e-15 -3.78962e-14 2.55499e-14 0 0 -1.13983e-13 8.30958e-14 -1.19797e-13 5.93615e-14 0 0 -1.39e-13 1.06203e-13 -1.05881e-13 5.09464e-14 0 0 -8.40171e-14 1.57502e-14 -4.87439e-15 2.13749e-14 0 0 1.05751e-14 -1.08014e-13 1.05388e-13 -1.19989e-14 0 0 1.0975e-14 -9.96188e-14 1.30176e-13 -5.14026e-14 0 0 -1.01826e-13 8.27485e-14 -2.66111e-14 7.70683e-15 0 0 -1.60582e-13 1.96518e-13 -1.20778e-13 -2.19603e-15 0 0 -1.69706e-14 3.90238e-16 4.63647e-14 -1.1591e-13 0 0 7.03228e-14 -1.77164e-13 1.93231e-13 -1.29512e-13 0 0 5.60306e-14 -2.06073e-13 2.46983e-13 -1.42146e-13 0 0 -5.19465e-14 -2.7249e-14 7.07614e-14 -6.28936e-14 0 0 -1.14365e-13 1.12782e-13 -9.19618e-14 9.57672e-15 0 0 -6.93644e-14 5.57162e-14 -1.19606e-14 -7.21909e-14 0 0 -1.17407e-13 7.85401e-14 -8.42616e-15 -6.90079e-14 0 0 -2.61103e-13 2.2348e-13 -1.41837e-13 5.95838e-14 0 0 -2.37393e-13 1.48738e-13 -9.79555e-14 4.13523e-14 0 0 -9.89045e-14 -4.97104e-14 5.10672e-14 -7.93629e-14 0 0 5.70183e-14 -2.3856e-13 1.90501e-13 -1.64272e-13 0 0 6.3448e-14 -1.74801e-13 1.03704e-13 -1.62483e-13 0 0 -9.39834e-14 8.08341e-14 -5.74837e-14 -1.86488e-13 0 0 -2.70657e-13 3.42871e-13 -1.73253e-13 -2.19799e-13 0 0 -3.85299e-13 5.66582e-13 -3.61421e-13 -1.06091e-13 0 0 -1.1396e-13 2.5315e-13 -2.15134e-13 -8.8638e-14 0 0 1.20036e-13 -6.426e-14 5.0913e-15 -2.25437e-13 0 0 1.13321e-13 -1.1186e-13 1.38879e-13 -3.94525e-13 0 0 -8.4641e-14 3.29547e-14 9.70352e-14 -3.89125e-13 0 0 -2.671e-13 2.14778e-13 -9.71682e-14 -2.37845e-13 0 0 -9.88723e-14 7.68951e-14 -1.01521e-13 -2.16984e-13 0 0 -5.87695e-14 1.64355e-13 -2.92624e-13 -1.17744e-13 0 0 -6.14302e-14 2.10671e-13 -4.01436e-13 -1.44772e-14 0 0 -1.06969e-13 1.38431e-13 -2.348e-13 -1.40827e-13 0 0 -1.56906e-13 4.86745e-14 -3.80137e-14 -3.34056e-13 0 0 -2.89992e-14 -1.64238e-13 2.55579e-14 -3.07527e-13 0 0 -3.65683e-14 -6.91652e-14 -1.77557e-13 -1.54038e-13 0 0 -9.01511e-14 2.91695e-14 -2.62144e-13 -8.91015e-14 0 0 -1.01965e-13 3.75464e-14 -3.0504e-13 4.59675e-14 0 0 -2.60309e-14 -5.94182e-14 -1.94455e-13 6.36729e-14 0 0 6.56366e-14 -2.62822e-13 1.72204e-13 -1.47586e-13 0 0 -1.50841e-13 5.07378e-14 5.64749e-14 -1.06883e-13 0 0 -2.67406e-13 3.18299e-13 -1.91447e-13 5.41409e-14 0 0 -4.38512e-14 1.26861e-14 5.15429e-14 -4.24277e-14 0 0 -1.7096e-14 -2.73888e-14 1.19108e-13 -7.0317e-14 0 0 -6.14258e-14 7.80501e-14 9.80707e-14 -2.15347e-13 0 0 -1.82625e-13 2.86194e-13 -5.11566e-14 -2.96074e-13 0 0 -1.00603e-13 1.99032e-13 -5.75182e-15 -3.79896e-13 0 0 4.79253e-14 1.90116e-14 1.06509e-13 -3.84476e-13 0 0 1.04876e-13 -5.03538e-14 1.20942e-13 -2.71803e-13 0 0 6.07558e-14 6.18703e-14 -1.17492e-14 -1.52983e-13 0 0 -1.52805e-13 4.99522e-13 -4.06171e-13 1.39976e-13 0 0 -6.44409e-15 3.94436e-13 -2.43101e-13 3.30581e-14 0 0 1.42749e-14 3.10032e-13 -9.55833e-14 -8.83949e-14 0 0 6.72407e-14 1.98889e-13 -1.01938e-13 4.63255e-14 0 0 2.61784e-13 -1.48038e-13 1.44687e-13 -8.9683e-15 0 0 3.11066e-14 -1.09561e-13 2.84159e-13 -1.01398e-13 0 0 -6.95151e-14 -8.8291e-14 2.15382e-13 1.22401e-13 0 0 -1.13656e-13 5.07263e-14 -9.13581e-14 5.12743e-13 0 0 -1.03213e-13 -8.39942e-15 -6.11595e-14 4.8713e-13 0 0 3.52486e-13 -5.44705e-13 1.87767e-13 3.05331e-13 0 0 7.06617e-14 -3.29424e-13 -3.40952e-14 3.77262e-13 0 0 -8.05476e-13 3.68094e-13 -2.59192e-13 3.15767e-13 0 0 -4.3416e-13 1.30003e-14 -1.17422e-13 5.04578e-13 0 0 1.84622e-13 -6.02846e-13 1.42933e-13 6.49452e-13 0 0 2.09705e-13 -5.62202e-13 2.08639e-13 4.67211e-13 0 0 -1.34139e-13 -2.60507e-13 1.79311e-13 1.73117e-13 0 0 -9.31332e-13 5.85538e-13 -4.37312e-14 -7.97833e-14 0 0 -7.10502e-13 4.84435e-13 4.13804e-14 -7.88548e-14 0 0 7.96376e-15 1.23875e-14 3.86553e-13 -1.84971e-13 0 0 -4.35962e-14 -6.99549e-14 2.90955e-13 -1.7305e-13 0 0 -1.12269e-14 -1.28286e-13 8.64846e-14 -7.51957e-14 0 0 1.02798e-13 -3.06807e-13 -8.63169e-14 1.00152e-13 0 0 6.44271e-14 -3.05379e-13 -1.7765e-13 1.35623e-13 0 0 -1.23166e-13 -1.37504e-13 -2.04464e-13 1.09518e-13 0 0 -2.62224e-13 7.45025e-14 -2.33248e-13 1.55522e-14 0 0 -2.61406e-13 2.53694e-13 -2.5885e-13 -9.31255e-14 0 0 -2.00309e-13 4.66437e-13 -3.60497e-13 -9.3203e-14 0 0 -1.80803e-13 7.12197e-13 -6.6108e-13 -4.48845e-14 0 0 -1.46866e-13 7.53463e-13 -7.21748e-13 -5.93289e-14 0 0 -7.03514e-14 6.58846e-13 -6.66806e-13 -1.07438e-13 0 0 3.44449e-14 1.69343e-13 -3.48617e-13 -3.30041e-13 0 0 4.88861e-14 -3.26628e-13 -8.62893e-14 -5.4485e-13 0 0 2.5412e-15 -4.36599e-13 -6.6593e-14 -5.20592e-13 0 0 -1.40295e-13 -4.96925e-13 -9.51053e-14 -4.39856e-13 0 0 -2.32075e-13 -4.9832e-13 -1.43646e-13 -3.23914e-13 0 0 -2.85125e-13 -4.14482e-13 -2.14622e-13 -2.39089e-13 0 0 -2.89394e-13 -2.24305e-13 -3.24527e-13 -7.24315e-14 0 0 -2.40876e-13 -2.87905e-13 -2.3215e-13 -4.50646e-14 0 0 -6.36666e-14 -4.54768e-13 1.70166e-14 -1.52055e-13 0 0 -1.19254e-13 -2.27589e-13 -1.60421e-13 -6.91251e-14 0 0 -2.6616e-13 1.09727e-13 -4.23359e-13 8.58664e-14 0 0 -1.3579e-13 2.61836e-15 -3.23347e-13 8.65478e-14 0 0 -4.43896e-14 -4.15775e-14 -2.27502e-13 3.26398e-14 0 0 -2.71301e-14 -8.91457e-14 -8.50053e-14 -1.26223e-13 0 0 -1.20545e-13 7.06986e-14 -1.75177e-13 -1.13392e-13 0 0 -2.66684e-13 3.38294e-13 -4.34883e-13 4.82386e-14 0 0 -4.8197e-15 -2.33378e-14 -1.38044e-13 -1.02792e-13 0 0 1.48632e-13 -2.19466e-13 -3.43287e-15 -1.58071e-13 0 0 1.35553e-13 -2.17157e-13 4.78701e-14 -2.43337e-13 0 0 8.37857e-15 -1.01356e-13 1.10505e-14 -2.30371e-13 0 0 -2.81138e-13 2.78135e-13 -3.602e-13 8.2491e-14 0 0 -1.48618e-13 9.03893e-14 -2.70466e-13 8.37252e-14 0 0 5.6652e-14 -1.31054e-13 -2.19604e-13 8.145e-14 0 0 8.33667e-14 -1.79099e-13 -1.96202e-13 6.64859e-14 0 0 -1.04412e-13 2.64437e-14 -3.1959e-13 4.54678e-14 0 0 -2.82819e-13 2.50256e-13 -5.22878e-13 7.93548e-14 0 0 -9.77492e-14 -6.29376e-14 -2.71828e-13 -7.54565e-14 0 0 -1.83262e-14 -1.67468e-13 -3.28031e-13 -8.24416e-15 0 0 -5.5768e-14 -3.13506e-13 -2.1e-13 -1.52803e-14 0 0 -3.00342e-13 -1.51844e-13 -2.33813e-13 -7.53796e-14 0 0 -4.0896e-13 5.57269e-14 -4.1896e-13 -7.01945e-14 0 0 -1.69566e-13 -3.20283e-13 -2.35722e-14 -2.99616e-13 0 0 -2.4533e-13 -1.75242e-13 -1.77066e-13 -1.25117e-13 0 0 -3.1396e-13 -7.24913e-14 -2.26217e-13 -1.4402e-14 0 0 -1.63424e-13 -4.60001e-13 3.5922e-13 -3.00172e-13 0 0 -5.38959e-13 9.21568e-14 -9.08706e-14 3.41964e-14 0 0 -7.37709e-13 4.00062e-13 -3.53064e-13 2.5211e-13 0 0 -1.58021e-13 -4.62345e-13 4.47551e-13 -1.83252e-13 0 0 1.20089e-13 -5.79916e-13 3.75113e-13 -1.57403e-13 0 0 -1.73335e-13 1.35803e-14 -3.19399e-14 -9.98129e-14 0 0 -5.23486e-13 5.7506e-13 -3.56052e-13 -5.58381e-15 0 0 -4.19433e-13 4.70169e-13 -2.69014e-13 1.75882e-13 0 0 1.22781e-13 -6.3848e-13 9.49185e-13 -3.69892e-13 0 0 -6.46169e-15 -5.87668e-13 9.9116e-13 -4.78343e-13 0 0 -3.79963e-13 8.53338e-14 1.49811e-13 3.07002e-14 0 0 -4.28934e-13 2.0037e-13 -2.80103e-13 4.21068e-13 0 0 -3.86252e-13 6.76821e-14 -3.23367e-13 4.22064e-13 0 0 -1.0902e-13 -3.50203e-13 -1.23044e-13 2.64799e-13 0 0 3.62679e-14 -5.22867e-13 4.6855e-15 6.28116e-14 0 0 -3.75362e-13 2.88286e-14 -2.78143e-13 -2.13369e-14 0 0 -8.13608e-13 4.65243e-13 -4.91901e-13 -1.04847e-13 0 0 -4.00194e-13 -2.85875e-13 7.747e-14 -4.73681e-13 0 0 3.26584e-13 -1.25228e-12 5.24123e-13 -7.61304e-13 0 0 2.28906e-13 -1.20109e-12 3.62988e-13 -8.03991e-13 0 0 -8.33755e-13 3.01214e-13 -9.66458e-13 -9.14343e-14 0 0 -1.20705e-12 8.79653e-13 -1.49154e-12 3.53456e-13 0 0 -4.13542e-13 -2.40346e-13 -4.95814e-13 9.60832e-14 0 0 3.5561e-13 -1.298e-12 4.04236e-13 -1.66943e-13 0 0 1.9227e-13 -1.2356e-12 5.18042e-13 -2.33341e-13 0 0 -5.51299e-13 -1.64295e-13 -5.43485e-13 3.07776e-13 0 0 -7.10978e-13 2.84527e-13 -1.44329e-12 8.70101e-13 0 0 -3.56485e-13 -1.95607e-13 -1.28407e-12 7.94865e-13 0 0 -4.60558e-13 -7.48412e-14 -1.20858e-12 5.6231e-13 0 0 -4.43993e-13 -2.67533e-13 -6.13006e-13 1.94737e-14 0 0 -3.67949e-14 -9.72422e-13 1.68942e-13 -5.22234e-13 0 0 -1.61062e-13 -6.40159e-13 -3.34995e-13 -3.83552e-13 0 0 -5.21697e-13 -1.49212e-13 -6.20377e-13 -5.40825e-13 0 0 -6.80875e-13 2.0641e-14 -4.86728e-13 -8.19543e-13 0 0 -4.45445e-13 -2.34843e-13 -4.25306e-13 -5.93356e-13 0 0 4.13992e-14 -9.09409e-13 -1.12754e-13 -4.54421e-13 0 0 3.91634e-14 -9.02602e-13 -2.64188e-13 -1.69399e-13 0 0 -4.18843e-13 -3.21727e-13 -6.63161e-13 1.44373e-13 0 0 -8.21811e-13 1.91784e-13 -8.99215e-13 2.18967e-13 0 0 -5.39103e-13 -2.40755e-13 -3.88154e-13 -1.08658e-13 0 0 -2.16685e-15 -9.40904e-13 6.86339e-14 -3.16407e-13 0 0 3.78416e-15 -9.63056e-13 -1.36701e-13 -1.66575e-13 0 0 -3.7218e-13 -5.52537e-13 -3.41176e-13 -2.444e-13 0 0 -8.29652e-13 2.18302e-13 -8.23379e-13 -1.38569e-13 0 0 -5.42307e-13 -1.93188e-13 -3.58024e-13 -4.08127e-13 0 0 1.03375e-13 -1.09156e-12 4.34975e-13 -9.0483e-13 0 0 -1.02419e-13 -7.67296e-13 7.61888e-14 -5.93367e-13 0 0 -7.9109e-13 -1.60892e-13 -1.56469e-13 -3.65985e-13 0 0 -1.32389e-12 5.33024e-13 -6.14577e-13 -1.35947e-13 0 0 -6.50628e-13 -2.00583e-13 -1.45325e-13 -4.50536e-13 0 0 4.0096e-14 -1.10796e-12 7.31855e-13 -1.12556e-12 0 0 -9.42834e-13 3.61869e-13 -4.61459e-13 -4.96337e-13 0 0 -1.47036e-12 1.01975e-12 -8.02155e-13 -3.12167e-13 0 0 -5.35186e-13 -3.81643e-13 5.85258e-13 -1.15232e-12 0 0 4.17406e-13 -1.50959e-12 1.28037e-12 -1.48984e-12 0 0 3.87547e-14 -7.93754e-13 6.35209e-13 -1.28849e-12 0 0 -1.22668e-12 1.03362e-12 -8.06138e-13 -6.67509e-13 0 0 -1.25542e-12 1.05516e-12 -8.00952e-13 -8.14826e-13 0 0 3.04852e-14 -8.03214e-13 7.09743e-13 -1.68407e-12 0 0 6.91144e-13 -1.7026e-12 1.31951e-12 -1.88568e-12 0
				</DataArray>
				<DataArray Name="VitesseY" type="Float32" format="ascii">