<?xml version="1.0"?>
<VTKFile type="PolyData">
	<PolyData>
		<Piece NumberOfPoints="1206" NumberOfPolys="1000">
			<Points>
				<DataArray type="Float32" NumberOfComponents="3" format="ascii">
 0 0 0 0.02 0 0 0.04 0 0 0.06 0 0 0.08 0 0 0.1 0 0 0 0.005 0 0.02 0.005 0 0.04 0.005 0 0.06 0.005 0 0.08 0.005 0 0.1 0.005 0 0 0.01 0 0.02 0.01 0 0.04 0.01 0 0.06 0.01 0 0.08 0.01 0 0.1 0.01 0 0 0.015 0 0.02 0.015 0 0.04 0.015 0 0.06 0.015 0 0.08 0.015 0 0.1 0.015 0 0 0.02 0 0.02 0.02 0 0.04 0.02 0 0.06 0.02 0 0.08 0.02 0 0.1 0.02 0 0 0.025 0 0.02 0.025 0 0.04 0.025 0 0.06 0.025 0 0.08 0.025 0 0.1 0.025 0 0 0.03 0 0.02 0.03 0 0.04 0.03 0 0.06 0.03 0 0.08 0.03 0 0.1 0.03 0 0 0.035 0 0.02 0.035 0 0.04 0.035 0 0.06 0.035 0 0.08 0.035 0 0.1 0.035 0 0 0.04 0 0.02 0.04 0 0.04 0.04 0 0.06 0.04 0 0.08 0.04 0 0.1 0.04 0 0 0.045 0 0.02 0.045 0 0.04 0.045 0 0.06 0.045 0 0.08 0.045 0 0.1 0.045 0 0 0.05 0 0.02 0.05 0 0.04 0.05 0 0.06 0.05 0 0.08 0.05 0 0.1 0.05 0 0 0.055 0 0.02 0.055 0 0.04 0.055 0 0.06 0.055 0 0.08 0.055 0 0.1 0.055 0 0 0.06 0 0.02 0.06 0 0.04 0.06 0 0.06 0.06 0 0.08 0.06 0 0.1 0.06 0 0 0.065 0 0.02 0.065 0 0.04 0.065 0 0.06 0.065 0 0.08 0.065 0 0.1 0.065 0 0 0.07 0 0.02 0.07 0 0.04 0.07 0 0.06 0.07 0 0.08 0.07 0 0.1 0.07 0 0 0.075 0 0.02 0.075 0 0.04 0.075 0 0.06 0.075 0 0.08 0.075 0 0.1 0.075 0 0 0.08 0 0.02 0.08 0 0.04 0.08 0 0.06 0.08 0 0.08 0.08 0 0.1 0.08 0 0 0.085 0 0.02 0.085 0 0.04 0.085 0 0.06 0.085 0 0.08 0.085 0 0.1 0.085 0 0 0.09 0 0.02 0.09 0 0.04 0.09 0 0.06 0.09 0 0.08 0.09 0 0.1 0.09 0 0 0.095 0 0.02 0.095 0 0.04 0.095 0 0.06 0.095 0 0.08 0.095 0 0.1 0.095 0 0 0.1 0 0.02 0.1 0 0.04 0.1 0 0.06 0.1 0 0.08 0.1 0 0.1 0.1 0 0 0.105 0 0.02 0.105 0 0.04 0.105 0 0.06 0.105 0 0.08 0.105 0 0.1 0.105 0 0 0.11 0 0.02 0.11 0 0.04 0.11 0 0.06 0.11 0 0.08 0.11 0 0.1 0.11 0 0 0.115 0 0.02 0.115 0 0.04 0.115 0 0.06 0.115 0 0.08 0.115 0 0.1 0.115 0 0 0.12 0 0.02 0.12 0 0.04 0.12 0 0.06 0.12 0 0.08 0.12 0 0.1 0.12 0 0 0.125 0 0.02 0.125 0 0.04 0.125 0 0.06 0.125 0 0.08 0.125 0 0.1 0.125 0 0 0.13 0 0.02 0.13 0 0.04 0.13 0 0.06 0.13 0 0.08 0.13 0 0.1 0.13 0 0 0.135 0 0.02 0.135 0 0.04 0.135 0 0.06 0.135 0 0.08 0.135 0 0.1 0.135 0 0 0.14 0 0.02 0.14 0 0.04 0.14 0 0.06 0.14 0 0.08 0.14 0 0.1 0.14 0 0 0.145 0 0.02 0.145 0 0.04 0.145 0 0.06 0.145 0 0.08 0.145 0 0.1 0.145 0 0 0.15 0 0.02 0.15 0 0.04 0.15 0 0.06 0.15 0 0.08 0.15 0 0.1 0.15 0 0 0.155 0 0.02 0.155 0 0.04 0.155 0 0.06 0.155 0 0.08 0.155 0 0.1 0.155 0 0 0.16 0 0.02 0.16 0 0.04 0.16 0 0.06 0.16 0 0.08 0.16 0 0.1 0.16 0 0 0.165 0 0.02 0.165 0 0.04 0.165 0 0.06 0.165 0 0.08 0.165 0 0.1 0.165 0 0 0.17 0 0.02 0.17 0 0.04 0.17 0 0.06 0.17 0 0.08 0.17 0 0.1 0.17 0 0 0.175 0 0.02 0.175 0 0.04 0.175 0 0.06 0.175 0 0.08 0.175 0 0.1 0.175 0 0 0.18 0 0.02 0.18 0 0.04 0.18 0 0.06 0.18 0 0.08 0.18 0 0.1 0.18 0 0 0.185 0 0.02 0.185 0 0.04 0.185 0 0.06 0.185 0 0.08 0.185 0 0.1 0.185 0 0 0.19 0 0.02 0.19 0 0.04 0.19 0 0.06 0.19 0 0.08 0.19 0 0.1 0.19 0 0 0.195 0 0.02 0.195 0 0.04 0.195 0 0.06 0.195 0 0.08 0.195 0 0.1 0.195 0 0 0.2 0 0.02 0.2 0 0.04 0.2 0 0.06 0.2 0 0.08 0.2 0 0.1 0.2 0 0 0.205 0 0.02 0.205 0 0.04 0.205 0 0.06 0.205 0 0.08 0.205 0 0.1 0.205 0 0 0.21 0 0.02 0.21 0 0.04 0.21 0 0.06 0.21 0 0.08 0.21 0 0.1 0.21 0 0 0.215 0 0.02 0.215 0 0.04 0.215 0 0.06 0.215 0 0.08 0.215 0 0.1 0.215 0 0 0.22 0 0.02 0.22 0 0.04 0.22 0 0.06 0.22 0 0.08 0.22 0 0.1 0.22 0 0 0.225 0 0.02 0.225 0 0.04 0.225 0 0.06 0.225 0 0.08 0.225 0 0.1 0.225 0 0 0.23 0 0.02 0.23 0 0.04 0.23 0 0.06 0.23 0 0.08 0.23 0 0.1 0.23 0 0 0.235 0 0.02 0.235 0 0.04 0.235 0 0.06 0.235 0 0.08 0.235 0 0.1 0.235 0 0 0.24 0 0.02 0.24 0 0.04 0.24 0 0.06 0.24 0 0.08 0.24 0 0.1 0.24 0 0 0.245 0 0.02 0.245 0 0.04 0.245 0 0.06 0.245 0 0.08 0.245 0 0.1 0.245 0 0 0.25 0 0.02 0.25 0 0.04 0.25 0 0.06 0.25 0 0.08 0.25 0 0.1 0.25 0 0 0.255 0 0.02 0.255 0 0.04 0.255 0 0.06 0.255 0 0.08 0.255 0 0.1 0.255 0 0 0.26 0 0.02 0.26 0 0.04 0.26 0 0.06 0.26 0 0.08 0.26 0 0.1 0.26 0 0 0.265 0 0.02 0.265 0 0.04 0.265 0 0.06 0.265 0 0.08 0.265 0 0.1 0.265 0 0 0.27 0 0.02 0.27 0 0.04 0.27 0 0.06 0.27 0 0.08 0.27 0 0.1 0.27 0 0 0.275 0 0.02 0.275 0 0.04 0.275 0 0.06 0.275 0 0.08 0.275 0 0.1 0.275 0 0 0.28 0 0.02 0.28 0 0.04 0.28 0 0.06 0.28 0 0.08 0.28 0 0.1 0.28 0 0 0.285 0 0.02 0.285 0 0.04 0.285 0 0.06 0.285 0 0.08 0.285 0 0.1 0.285 0 0 0.29 0 0.02 0.29 0 0.04 0.29 0 0.06 0.29 0 0.08 0.29 0 0.1 0.29 0 0 0.295 0 0.02 0.295 0 0.04 0.295 0 0.06 0.295 0 0.08 0.295 0 0.1 0.295 0 0 0.3 0 0.02 0.3 0 0.04 0.3 0 0.06 0.3 0 0.08 0.3 0 0.1 0.3 0 0 0.305 0 0.02 0.305 0 0.04 0.305 0 0.06 0.305 0 0.08 0.305 0 0.1 0.305 0 0 0.31 0 0.02 0.31 0 0.04 0.31 0 0.06 0.31 0 0.08 0.31 0 0.1 0.31 0 0 0.315 0 0.02 0.315 0 0.04 0.315 0 0.06 0.315 0 0.08 0.315 0 0.1 0.315 0 0 0.32 0 0.02 0.32 0 0.04 0.32 0 0.06 0.32 0 0.08 0.32 0 0.1 0.32 0 0 0.325 0 0.02 0.325 0 0.04 0.325 0 0.06 0.325 0 0.08 0.325 0 0.1 0.325 0 0 0.33 0 0.02 0.33 0 0.04 0.33 0 0.06 0.33 0 0.08 0.33 0 0.1 0.33 0 0 0.335 0 0.02 0.335 0 0.04 0.335 0 0.06 0.335 0 0.08 0.335 0 0.1 0.335 0 0 0.34 0 0.02 0.34 0 0.04 0.34 0 0.06 0.34 0 0.08 0.34 0 0.1 0.34 0 0 0.345 0 0.02 0.345 0 0.04 0.345 0 0.06 0.345 0 0.08 0.345 0 0.1 0.345 0 0 0.35 0 0.02 0.35 0 0.04 0.35 0 0.06 0.35 0 0.08 0.35 0 0.1 0.35 0 0 0.355 0 0.02 0.355 0 0.04 0.355 0 0.06 0.355 0 0.08 0.355 0 0.1 0.355 0 0 0.36 0 0.02 0.36 0 0.04 0.36 0 0.06 0.36 0 0.08 0.36 0 0.1 0.36 0 0 0.365 0 0.02 0.365 0 0.04 0.365 0 0.06 0.365 0 0.08 0.365 0 0.1 0.365 0 0 0.37 0 0.02 0.37 0 0.04 0.37 0 0.06 0.37 0 0.08 0.37 0 0.1 0.37 0 0 0.375 0 0.02 0.375 0 0.04 0.375 0 0.06 0.375 0 0.08 0.375 0 0.1 0.375 0 0 0.38 0 0.02 0.38 0 0.04 0.38 0 0.06 0.38 0 0.08 0.38 0 0.1 0.38 0 0 0.385 0 0.02 0.385 0 0.04 0.385 0 0.06 0.385 0 0.08 0.385 0 0.1 0.385 0 0 0.39 0 0.02 0.39 0 0.04 0.39 0 0.06 0.39 0 0.08 0.39 0 0.1 0.39 0 0 0.395 0 0.02 0.395 0 0.04 0.395 0 0.06 0.395 0 0.08 0.395 0 0.1 0.395 0 0 0.4 0 0.02 0.4 0 0.04 0.4 0 0.06 0.4 0 0.08 0.4 0 0.1 0.4 0 0 0.405 0 0.02 0.405 0 0.04 0.405 0 0.06 0.405 0 0.08 0.405 0 0.1 0.405 0 0 0.41 0 0.02 0.41 0 0.04 0.41 0 0.06 0.41 0 0.08 0.41 0 0.1 0.41 0 0 0.415 0 0.02 0.415 0 0.04 0.415 0 0.06 0.415 0 0.08 0.415 0 0.1 0.415 0 0 0.42 0 0.02 0.42 0 0.04 0.42 0 0.06 0.42 0 0.08 0.42 0 0.1 0.42 0 0 0.425 0 0.02 0.425 0 0.04 0.425 0 0.06 0.425 0 0.08 0.425 0 0.1 0.425 0 0 0.43 0 0.02 0.43 0 0.04 0.43 0 0.06 0.43 0 0.08 0.43 0 0.1 0.43 0 0 0.435 0 0.02 0.435 0 0.04 0.435 0 0.06 0.435 0 0.08 0.435 0 0.1 0.435 0 0 0.44 0 0.02 0.44 0 0.04 0.44 0 0.06 0.44 0 0.08 0.44 0 0.1 0.44 0 0 0.445 0 0.02 0.445 0 0.04 0.445 0 0.06 0.445 0 0.08 0.445 0 0.1 0.445 0 0 0.45 0 0.02 0.45 0 0.04 0.45 0 0.06 0.45 0 0.08 0.45 0 0.1 0.45 0 0 0.455 0 0.02 0.455 0 0.04 0.455 0 0.06 0.455 0 0.08 0.455 0 0.1 0.455 0 0 0.46 0 0.02 0.46 0 0.04 0.46 0 0.06 0.46 0 0.08 0.46 0 0.1 0.46 0 0 0.465 0 0.02 0.465 0 0.04 0.465 0 0.06 0.465 0 0.08 0.465 0 0.1 0.465 0 0 0.47 0 0.02 0.47 0 0.04 0.47 0 0.06 0.47 0 0.08 0.47 0 0.1 0.47 0 0 0.475 0 0.02 0.475 0 0.04 0.475 0 0.06 0.475 0 0.08 0.475 0 0.1 0.475 0 0 0.48 0 0.02 0.48 0 0.04 0.48 0 0.06 0.48 0 0.08 0.48 0 0.1 0.48 0 0 0.485 0 0.02 0.485 0 0.04 0.485 0 0.06 0.485 0 0.08 0.485 0 0.1 0.485 0 0 0.49 0 0.02 0.49 0 0.04 0.49 0 0.06 0.49 0 0.08 0.49 0 0.1 0.49 0 0 0.495 0 0.02 0.495 0 0.04 0.495 0 0.06 0.495 0 0.08 0.495 0 0.1 0.495 0 0 0.5 0 0.02 0.5 0 0.04 0.5 0 0.06 0.5 0 0.08 0.5 0 0.1 0.5 0 0 0.505 0 0.02 0.505 0 0.04 0.505 0 0.06 0.505 0 0.08 0.505 0 0.1 0.505 0 0 0.51 0 0.02 0.51 0 0.04 0.51 0 0.06 0.51 0 0.08 0.51 0 0.1 0.51 0 0 0.515 0 0.02 0.515 0 0.04 0.515 0 0.06 0.515 0 0.08 0.515 0 0.1 0.515 0 0 0.52 0 0.02 0.52 0 0.04 0.52 0 0.06 0.52 0 0.08 0.52 0 0.1 0.52 0 0 0.525 0 0.02 0.525 0 0.04 0.525 0 0.06 0.525 0 0.08 0.525 0 0.1 0.525 0 0 0.53 0 0.02 0.53 0 0.04 0.53 0 0.06 0.53 0 0.08 0.53 0 0.1 0.53 0 0 0.535 0 0.02 0.535 0 0.04 0.535 0 0.06 0.535 0 0.08 0.535 0 0.1 0.535 0 0 0.54 0 0.02 0.54 0 0.04 0.54 0 0.06 0.54 0 0.08 0.54 0 0.1 0.54 0 0 0.545 0 0.02 0.545 0 0.04 0.545 0 0.06 0.545 0 0.08 0.545 0 0.1 0.545 0 0 0.55 0 0.02 0.55 0 0.04 0.55 0 0.06 0.55 0 0.08 0.55 0 0.1 0.55 0 0 0.555 0 0.02 0.555 0 0.04 0.555 0 0.06 0.555 0 0.08 0.555 0 0.1 0.555 0 0 0.56 0 0.02 0.56 0 0.04 0.56 0 0.06 0.56 0 0.08 0.56 0 0.1 0.56 0 0 0.565 0 0.02 0.565 0 0.04 0.565 0 0.06 0.565 0 0.08 0.565 0 0.1 0.565 0 0 0.57 0 0.02 0.57 0 0.04 0.57 0 0.06 0.57 0 0.08 0.57 0 0.1 0.57 0 0 0.575 0 0.02 0.575 0 0.04 0.575 0 0.06 0.575 0 0.08 0.575 0 0.1 0.575 0 0 0.58 0 0.02 0.58 0 0.04 0.58 0 0.06 0.58 0 0.08 0.58 0 0.1 0.58 0 0 0.585 0 0.02 0.585 0 0.04 0.585 0 0.06 0.585 0 0.08 0.585 0 0.1 0.585 0 0 0.59 0 0.02 0.59 0 0.04 0.59 0 0.06 0.59 0 0.08 0.59 0 0.1 0.59 0 0 0.595 0 0.02 0.595 0 0.04 0.595 0 0.06 0.595 0 0.08 0.595 0 0.1 0.595 0 0 0.6 0 0.02 0.6 0 0.04 0.6 0 0.06 0.6 0 0.08 0.6 0 0.1 0.6 0 0 0.605 0 0.02 0.605 0 0.04 0.605 0 0.06 0.605 0 0.08 0.605 0 0.1 0.605 0 0 0.61 0 0.02 0.61 0 0.04 0.61 0 0.06 0.61 0 0.08 0.61 0 0.1 0.61 0 0 0.615 0 0.02 0.615 0 0.04 0.615 0 0.06 0.615 0 0.08 0.615 0 0.1 0.615 0 0 0.62 0 0.02 0.62 0 0.04 0.62 0 0.06 0.62 0 0.08 0.62 0 0.1 0.62 0 0 0.625 0 0.02 0.625 0 0.04 0.625 0 0.06 0.625 0 0.08 0.625 0 0.1 0.625 0 0 0.63 0 0.02 0.63 0 0.04 0.63 0 0.06 0.63 0 0.08 0.63 0 0.1 0.63 0 0 0.635 0 0.02 0.635 0 0.04 0.635 0 0.06 0.635 0 0.08 0.635 0 0.1 0.635 0 0 0.64 0 0.02 0.64 0 0.04 0.64 0 0.06 0.64 0 0.08 0.64 0 0.1 0.64 0 0 0.645 0 0.02 0.645 0 0.04 0.645 0 0.06 0.645 0 0.08 0.645 0 0.1 0.645 0 0 0.65 0 0.02 0.65 0 0.04 0.65 0 0.06 0.65 0 0.08 0.65 0 0.1 0.65 0 0 0.655 0 0.02 0.655 0 0.04 0.655 0 0.06 0.655 0 0.08 0.655 0 0.1 0.655 0 0 0.66 0 0.02 0.66 0 0.04 0.66 0 0.06 0.66 0 0.08 0.66 0 0.1 0.66 0 0 0.665 0 0.02 0.665 0 0.04 0.665 0 0.06 0.665 0 0.08 0.665 0 0.1 0.665 0 0 0.67 0 0.02 0.67 0 0.04 0.67 0 0.06 0.67 0 0.08 0.67 0 0.1 0.67 0 0 0.675 0 0.02 0.675 0 0.04 0.675 0 0.06 0.675 0 0.08 0.675 0 0.1 0.675 0 0 0.68 0 0.02 0.68 0 0.04 0.68 0 0.06 0.68 0 0.08 0.68 0 0.1 0.68 0 0 0.685 0 0.02 0.685 0 0.04 0.685 0 0.06 0.685 0 0.08 0.685 0 0.1 0.685 0 0 0.69 0 0.02 0.69 0 0.04 0.69 0 0.06 0.69 0 0.08 0.69 0 0.1 
[...]
			<PointData Scalars="VitesseX">
				<DataArray Name="VitesseX" type="Float32" format="ascii">
 0 1.34648e-14 6.07383e-14 3.02997e-14 2.3004e-14 0 0 2.05643e-14 4.75172e-14 3.99579e-14 1.57555e-14 0 0 2.39527e-14 3.59885e-14 4.53723e-14 8.43933e-15 0 0 2.56455e-14 3.56222e-14 2.8915e-14 1.5995e-14 0 0 4.38389e-14 1.69891e-14 2.54824e-14 1.27456e-14 0 0 5.22829e-14 -1.89162e-15 3.64617e-14 -4.82943e-15 0 0 2.14962e-14 3.18258e-14 5.83867e-15 2.08487e-15 0 0 6.46552e-15 4.87919e-14 -1.13643e-14 1.16324e-14 0 0 1.64034e-14 3.77707e-14 -9.92224e-15 2.19128e-14 0 0 3.43017e-14 2.69462e-14 1.10019e-15 6.95453e-15 0 0 2.24302e-14 5.16362e-14 -1.66832e-14 1.75982e-14 0 0 8.18562e-15 5.96632e-14 -5.37787e-15 1.01222e-14 0 0 -1.79427e-15 6.37385e-14 1.71125e-14 -2.36888e-14 0 0 6.04826e-17 6.47468e-14 2.13364e-14 -3.10908e-14 0 0 1.93358e-14 4.32122e-14 4.14523e-14 -4.18335e-14 0 0 8.52981e-15 6.53596e-14 1.64598e-14 -1.4853e-14 0 0 2.95478e-14 2.47947e-14 4.46917e-14 -2.13852e-15 0 0 3.82286e-14 7.33302e-15 4.44623e-14 2.97352e-14 0 0 3.65201e-14 3.34842e-14 -5.88893e-15 9.04196e-14 0 0 4.34541e-14 3.58191e-14 -6.85319e-16 1.15635e-13 0 0 2.63845e-14 6.15623e-14 5.44688e-15 1.17976e-13 0 0 5.22505e-15 9.99503e-14 -1.95715e-14 1.25779e-13 0 0 8.12775e-14 -1.03614e-14 1.02392e-13 4.84591e-14 0 0 1.10047e-13 -3.77397e-14 1.44891e-13 8.53496e-15 0 0 4.28456e-15 1.4221e-13 -2.32962e-14 9.49662e-14 0 0 -3.3693e-14 2.14931e-13 -7.78386e-14 1.13314e-13 0 0 2.88009e-14 1.40164e-13 8.25897e-15 1.05122e-14 0 0 7.4737e-14 7.381e-14 8.30596e-14 -7.78407e-14 0 0 5.99524e-14 8.59464e-14 8.96529e-14 -1.0809e-13 0 0 1.19281e-14 1.41467e-13 4.69411e-14 -8.67633e-14 0 0 3.02003e-14 1.02805e-13 8.0189e-14 -8.386e-14 0 0 7.04653e-14 6.87804e-14 7.7562e-14 -5.6083e-14 0 0 5.91647e-14 1.03141e-13 1.14715e-14 2.2119e-14 0 0 6.74094e-14 6.17832e-14 5.64954e-14 1.52361e-14 0 0 7.95742e-15 1.37894e-13 -3.03956e-14 8.10778e-14 0 0 1.09733e-14 1.25355e-13 -3.02825e-14 8.66519e-14 0 0 1.80835e-14 8.83163e-14 1.49811e-14 6.2179e-14 0 0 1.07703e-14 1.12221e-13 -2.62126e-14 9.41986e-14 0 0 7.58104e-14 4.96066e-14 1.0854e-14 5.98536e-14 0 0 9.9528e-14 5.0463e-14 -1.70488e-14 6.80509e-14 0 0 1.26687e-13 5.13212e-14 -3.9798e-14 7.25741e-14 0 0 1.29904e-13 5.97888e-14 -1.96194e-14 1.85001e-14 0 0 1.66031e-13 1.47581e-14 2.85461e-14 -2.37983e-14 0 0 1.00312e-13 9.86682e-14 -6.53772e-14 1.08478e-13 0 0 3.35525e-15 1.75163e-13 -7.2352e-14 1.568e-13 0 0 9.35867e-14 -2.65661e-14 2.09348e-13 -1.8493e-14 0 0 7.68011e-14 -2.53964e-14 2.21312e-13 1.65934e-15 0 0 3.42635e-14 5.32933e-14 9.56662e-14 1.00922e-13 0 0 4.76821e-14 2.34593e-14 1.02074e-13 1.11236e-13 0 0 -5.80088e-14 1.46076e-13 7.43299e-14 9.44607e-14 0 0 -1.11917e-13 2.47881e-13 3.91903e-14 8.75586e-14 0 0 -5.19555e-14 1.95054e-13 2.38943e-14 1.35485e-13 0 0 1.11615e-13 -1.16016e-13 3.65096e-13 -7.41271e-14 0 0 6.29843e-14 -7.02048e-14 3.17176e-13 -3.12304e-14 0 0 -1.22828e-13 2.67813e-13 -1.14007e-13 2.88716e-13 0 0 -1.04561e-13 2.49414e-13 -5.68209e-14 2.18073e-13 0 0 -1.26352e-13 2.56368e-13 9.25263e-15 1.381e-13 0 0 -7.88184e-14 1.87137e-13 7.13534e-14 1.45416e-13 0 0 2.44778e-16 9.67479e-14 1.49725e-13 1.30381e-13 0 0 4.10541e-14 6.83177e-14 1.62878e-13 9.98562e-14 0 0 5.08783e-14 9.50257e-14 1.0744e-13 1.01414e-13 0 0 3.9586e-14 7.84722e-14 2.12582e-13 -5.36975e-14 0 0 6.29791e-14 6.71885e-14 2.29464e-13 -1.12048e-13 0 0 7.91303e-14 1.37451e-13 5.90241e-14 2.7305e-14 0 0 1.6575e-13 4.94716e-14 5.88185e-14 6.03153e-14 0 0 1.85734e-13 1.61631e-14 1.4695e-13 1.72973e-14 0 0 1.23167e-13 1.29105e-13 1.43547e-13 4.27736e-14 0 0 5.95888e-14 1.78505e-13 9.49374e-14 1.57785e-13 0 0 -1.45961e-14 2.33739e-13 4.59771e-14 2.28947e-13 0 0 5.47317e-14 1.83334e-13 6.44025e-14 2.23715e-13 0 0 1.81708e-13 4.64224e-14 2.90949e-13 9.69068e-15 0 0 7.21492e-14 2.11225e-13 2.40414e-13 -5.60621e-14 0 0 -1.08548e-13 4.66359e-13 -6.83462e-14 1.43961e-13 0 0 -2.33841e-13 6.16431e-13 -2.27458e-13 3.35449e-13 0 0 -8.21628e-14 2.75741e-13 1.82936e-13 1.98409e-13 0 0 1.26701e-13 -3.86055e-14 4.79494e-13 1.34982e-13 0 0 -6.70154e-14 3.70128e-13 3.35802e-14 5.20496e-13 0 0 -2.3231e-13 6.45675e-13 -1.30213e-13 4.99644e-13 0 0 -9.14607e-14 3.5467e-13 3.01543e-13 3.53375e-14 0 0 1.64072e-13 6.03172e-14 4.85858e-13 1.06271e-14 0 0 -1.07066e-13 4.2199e-13 1.36925e-13 3.31835e-13 0 0 -2.44908e-13 4.17585e-13 4.52868e-13 6.16894e-14 0 0 2.14989e-13 -1.09128e-13 1.20496e-12 -5.31425e-13 0 0 1.43782e-13 4.28326e-13 7.32067e-13 -4.21361e-13 0 0 -8.74616e-14 1.34374e-12 -4.48421e-13 2.73488e-13 0 0 2.93097e-13 1.04195e-12 -4.67486e-13 4.43861e-13 0 0 1.01931e-12 8.11344e-14 4.5813e-13 -1.98528e-13 0 0 8.50828e-13 9.23351e-14 8.76624e-13 -7.34555e-13 0 0 4.09068e-13 5.09324e-13 5.81335e-13 -4.71593e-13 0 0 1.1522e-13 9.09667e-13 2.00857e-13 -1.0654e-13 0 0 -3.65256e-14 1.15537e-12 -4.27103e-14 1.19873e-13 0 0 3.06534e-14 1.07947e-12 3.13569e-14 8.15493e-14 0 0 1.99607e-13 7.77016e-13 2.92717e-13 -3.43941e-15 0 0 6.11389e-13 2.00624e-13 5.29435e-13 2.19969e-14 0 0 8.99377e-13 -1.04725e-13 5.45939e-13 1.73692e-13 0 0 8.58953e-13 -5.88399e-14 4.43272e-13 3.73958e-13 0 0 6.85185e-13 1.52846e-13 2.27568e-13 4.44476e-13 0 0 4.609e-13 4.0385e-13 4.5075e-14 4.25005e-13 0 0 2.81236e-13 5.46415e-13 -4.71881e-15 3.35415e-13 0 0 2.78747e-13 5.34576e-13 1.68872e-14 2.53216e-13 0 0 3.57171e-13 4.01904e-13 1.45741e-13 1.99533e-13 0 0 4.3977e-13 1.72677e-13 3.65785e-13 1.40768e-13 0 0 4.18084e-13 -7.29154e-15 4.92874e-13 8.66601e-14 0 0 2.71386e-13 -3.83939e-14 4.86768e-13 5.22004e-14 0 0 7.32722e-14 -1.10582e-15 4.58545e-13 2.42962e-14 0 0 -9.12115e-14 1.34662e-13 3.73849e-13 5.09499e-15 0 0 -1.60972e-13 2.09385e-13 3.28253e-13 -1.8275e-14 0 0 -1.35966e-13 1.43356e-13 3.696e-13 -5.53797e-14 0 0 -8.12691e-15 -4.41115e-14 5.16507e-13 -5.34897e-14 0 0 1.45597e-13 -8.57636e-14 5.44498e-13 -6.48344e-14 0 0 2.06415e-13 -8.39852e-14 5.23362e-13 -2.05291e-15 0 0 1.92151e-13 5.69408e-14 3.16914e-13 2.56831e-13 0 0 1.0361e-13 3.1578e-13 2.33261e-14 5.48e-13 0 0 1.0729e-13 3.08041e-13 3.3411e-14 5.71849e-13 0 0 1.21995e-13 1.89525e-13 1.56664e-13 5.28903e-13 0 0 1.10803e-13 7.26159e-14 3.15636e-13 3.53049e-13 0 0 6.88763e-14 5.24673e-15 4.36267e-13 1.87995e-13 0 0 1.89051e-14 1.03265e-14 4.52746e-13 1.9169e-13 0 0 -1.99656e-14 4.86798e-14 4.01521e-13 2.27679e-13 0 0 -1.89035e-14 1.5034e-13 2.2697e-13 2.81176e-13 0 0 4.06123e-14 1.73322e-13 1.40676e-13 2.9615e-13 0 0 1.13205e-13 1.79187e-13 1.35179e-13 2.61394e-13 0 0 1.3625e-13 1.75263e-13 1.54409e-13 1.28962e-13 0 0 1.3204e-13 1.89427e-13 1.52194e-13 4.09589e-14 0 0 1.27497e-13 2.27127e-13 1.34233e-13 -4.33221e-14 0 0 1.37829e-13 2.02361e-13 1.52469e-13 -1.05037e-13 0 0 1.21532e-13 1.74015e-13 1.16887e-13 1.21494e-14 0 0 7.88871e-14 2.02721e-13 1.08954e-13 3.17745e-14 0 0 3.57855e-14 1.86883e-13 2.13365e-13 -7.28956e-14 0 0 4.35262e-15 2.15075e-13 2.5614e-13 4.71409e-15 0 0 2.99324e-14 2.528e-13 2.5337e-13 6.00741e-14 0 0 1.38015e-13 2.12578e-13 3.16064e-13 3.11361e-14 0 0 7.403e-14 3.9754e-13 1.59667e-13 1.6071e-13 0 0 1.42651e-13 3.4123e-13 3.47554e-13 9.66407e-14 0 0 1.88056e-13 3.48139e-13 4.05003e-13 9.16609e-14 0 0 2.01156e-13 3.876e-13 4.1296e-13 1.20761e-13 0 0 2.36662e-13 4.1964e-13 3.84894e-13 1.61129e-13 0 0 1.92484e-13 6.1847e-13 1.18427e-13 4.09104e-13 0 0 3.67752e-13 4.24784e-13 2.48929e-13 3.87493e-13 0 0 4.22442e-13 3.64515e-13 3.29909e-13 3.07813e-13 0 0 3.91624e-13 4.06789e-13 3.52979e-13 2.58434e-13 0 0 4.85809e-13 2.78156e-13 5.06385e-13 1.0778e-13 0 0 3.55391e-13 5.36255e-13 2.84879e-13 1.3956e-13 0 0 3.29315e-13 5.91153e-13 2.27689e-13 1.09747e-13 0 0 4.99237e-13 3.75987e-13 3.59734e-13 2.02638e-14 0 0 3.77305e-13 6.25314e-13 6.26681e-14 1.75429e-13 0 0 4.59456e-13 4.85846e-13 1.38103e-13 1.97144e-13 0 0 4.56904e-13 4.5552e-13 1.0029e-13 2.9739e-13 0 0 3.50811e-13 5.91959e-13 -3.32553e-14 3.87086e-13 0 0 5.15472e-13 2.771e-13 2.66131e-13 3.38868e-13 0 0 3.53255e-13 4.66515e-13 9.04613e-14 5.27097e-13 0 0 3.53651e-13 4.37458e-13 2.23743e-13 3.21835e-13 0 0 3.38957e-13 4.48697e-13 2.85821e-13 1.82975e-13 0 0 4.56935e-13 3.77672e-13 2.05451e-13 2.78349e-13 0 0 6.08842e-13 2.27307e-13 2.54092e-13 2.10347e-13 0 0 4.86753e-13 3.47952e-13 2.51302e-13 1.34832e-13 0 0 5.00916e-13 2.60743e-13 5.53372e-13 -1.3035e-13 0 0 2.67855e-13 5.45217e-13 4.4877e-13 -6.32038e-14 0 0 2.50771e-13 5.24447e-13 4.34495e-13 1.02352e-13 0 0 4.14654e-13 4.91371e-13 2.21988e-13 4.64022e-13 0 0 4.37296e-13 5.04784e-13 1.865e-13 5.97906e-13 0 0 4.34445e-13 3.33879e-13 6.20635e-13 1.75461e-13 0 0 4.65295e-13 3.09086e-13 6.86786e-13 2.83462e-14 0 0 3.47492e-13 4.93616e-13 4.91678e-13 2.6284e-13 0 0 8.44788e-14 7.25213e-13 3.86875e-13 4.32069e-13 0 0 3.87958e-14 6.44092e-13 5.02681e-13 3.62892e-13 0 0 1.12523e-13 4.45983e-13 7.21658e-13 1.7341e-13 0 0 2.82206e-13 3.43174e-13 6.90832e-13 9.09442e-14 0 0 5.37615e-13 3.8499e-14 1.01436e-12 -2.19335e-13 0 0 2.30353e-13 2.51675e-13 9.81566e-13 -1.25242e-13 0 0 -1.32543e-13 6.79017e-13 4.94459e-13 3.51854e-13 0 0 4.10936e-14 5.17526e-13 5.74808e-13 3.79724e-13 0 0 2.35491e-14 6.45181e-13 4.94174e-13 4.93807e-13 0 0 2.01225e-13 4.36234e-13 6.82543e-13 4.06938e-13 0 0 3.07558e-13 3.14456e-13 7.07961e-13 3.549e-13 0 0 2.29992e-13 3.2717e-13 7.22188e-13 2.77201e-13 0 0 3.9885e-13 1.18199e-13 6.70193e-13 3.28097e-13 0 0 2.67872e-13 3.98379e-13 3.091e-13 4.32847e-13 0 0 3.15659e-13 2.99055e-13 5.32144e-13 1.43645e-13 0 0 2.84705e-13 4.11298e-13 3.35183e-13 2.37488e-13 0 0 9.37652e-14 7.23175e-13 -4.08022e-14 4.60837e-13 0 0 3.01215e-13 4.32179e-13 1.62282e-13 3.38085e-13 0 0 2.97121e-13 3.81014e-13 2.49952e-13 3.05778e-13 0 0 3.11731e-13 2.27761e-13 5.53983e-13 1.49056e-13 0 0 4.21525e-13 8.83377e-14 7.84555e-13 -2.85841e-14 0 0 3.34886e-13 3.76151e-13 5.0619e-13 6.9769e-14 0 0 5.70257e-13 3.60946e-13 4.05024e-13 1.04542e-13 0 0 5.14961e-13 5.70282e-13 2.13958e-13 2.37877e-13 0 0 4.90965e-13 3.46345e-13 4.68167e-13 2.52503e-13 0 0 6.61927e-13 -3.53562e-14 6.2999e-13 3.42216e-13 0 0 6.33469e-13 1.00365e-13 3.42836e-13 5.55228e-13 0 0 9.09495e-13 -2.19011e-13 5.01662e-13 5.06918e-13 0 0 6.45389e-13 1.226e-13 1.91837e-13 7.63108e-13 0 0 1.20157e-13 7.72002e-13 -1.92627e-13 9.6046e-13 0 0 3.93621e-13 4.41858e-13 1.01762e-13 7.5421e-13 0 0 8.09152e-13 1.17232e-13 1.41905e-13 8.31824e-13 0 0 8.55603e-13 2.33363e-13 -1.14978e-13 1.05959e-12 0 0 5.55592e-13 8.27975e-13 -6.0761e-13 1.29003e-12 0 0 5.38651e-13 7.90767e-13 -3.91403e-13 1.05279e-12 0 0 8.60093e-13 1.84725e-13 6.42394e-14 7.53871e-13 0 0 8.96485e-13 1.98562e-13 -1.83105e-13 9.06533e-13 0
				</DataArray>
				<DataArray Name="VitesseY" type="Float32" format="ascii">