<?xml version="1.0"?>
<VTKFile type="PolyData">
	<PolyData>
		<Piece NumberOfPoints="1206" NumberOfPolys="1000">
			<Points>
				<DataArray type="Float32" NumberOfComponents="3" format="ascii">
 0 0 0 0.02 0 0 0.04 0 0 0.06 0 0 0.08 0 0 0.1 0 0 0 0.005 0 0.02 0.005 0 0.04 0.005 0 0.06 0.005 0 0.08 0.005 0 0.1 0.005 0 0 0.01 0 0.02 0.01 0 0.04 0.01 0 0.06 0.01 0 0.08 0.01 0 0.1 0.01 0 0 0.015 0 0.02 0.015 0 0.04 0.015 0 0.06 0.015 0 0.08 0.015 0 0.1 0.015 0 0 0.02 0 0.02 0.02 0 0.04 0.02 0 0.06 0.02 0 0.08 0.02 0 0.1 0.02 0 0 0.025 0 0.02 0.025 0 0.04 0.025 0 0.06 0.025 0 0.08 0.025 0 0.1 0.025 0 0 0.03 0 0.02 0.03 0 0.04 0.03 0 0.06 0.03 0 0.08 0.03 0 0.1 0.03 0 0 0.035 0 0.02 0.035 0 0.04 0.035 0 0.06 0.035 0 0.08 0.035 0 0.1 0.035 0 0 0.04 0 0.02 0.04 0 0.04 0.04 0 0.06 0.04 0 0.08 0.04 0 0.1 0.04 0 0 0.045 0 0.02 0.045 0 0.04 0.045 0 0.06 0.045 0 0.08 0.045 0 0.1 0.045 0 0 0.05 0 0.02 0.05 0 0.04 0.05 0 0.06 0.05 0 0.08 0.05 0 0.1 0.05 0 0 0.055 0 0.02 0.055 0 0.04 0.055 0 0.06 0.055 0 0.08 0.055 0 0.1 0.055 0 0 0.06 0 0.02 0.06 0 0.04 0.06 0 0.06 0.06 0 0.08 0.06 0 0.1 0.06 0 0 0.065 0 0.02 0.065 0 0.04 0.065 0 0.06 0.065 0 0.08 0.065 0 0.1 0.065 0 0 0.07 0 0.02 0.07 0 0.04 0.07 0 0.06 0.07 0 0.08 0.07 0 0.1 0.07 0 0 0.075 0 0.02 0.075 0 0.04 0.075 0 0.06 0.075 0 0.08 0.075 0 0.1 0.075 0 0 0.08 0 0.02 0.08 0 0.04 0.08 0 0.06 0.08 0 0.08 0.08 0 0.1 0.08 0 0 0.085 0 0.02 0.085 0 0.04 0.085 0 0.06 0.085 0 0.08 0.085 0 0.1 0.085 0 0 0.09 0 0.02 0.09 0 0.04 0.09 0 0.06 0.09 0 0.08 0.09 0 0.1 0.09 0 0 0.095 0 0.02 0.095 0 0.04 0.095 0 0.06 0.095 0 0.08 0.095 0 0.1 0.095 0 0 0.1 0 0.02 0.1 0 0.04 0.1 0 0.06 0.1 0 0.08 0.1 0 0.1 0.1 0 0 0.105 0 0.02 0.105 0 0.04 0.105 0 0.06 0.105 0 0.08 0.105 0 0.1 0.105 0 0 0.11 0 0.02 0.11 0 0.04 0.11 0 0.06 0.11 0 0.08 0.11 0 0.1 0.11 0 0 0.115 0 0.02 0.115 0 0.04 0.115 0 0.06 0.115 0 0.08 0.115 0 0.1 0.115 0 0 0.12 0 0.02 0.12 0 0.04 0.12 0 0.06 0.12 0 0.08 0.12 0 0.1 0.12 0 0 0.125 0 0.02 0.125 0 0.04 0.125 0 0.06 0.125 0 0.08 0.125 0 0.1 0.125 0 0 0.13 0 0.02 0.13 0 0.04 0.13 0 0.06 0.13 0 0.08 0.13 0 0.1 0.13 0 0 0.135 0 0.02 0.135 0 0.04 0.135 0 0.06 0.135 0 0.08 0.135 0 0.1 0.135 0 0 0.14 0 0.02 0.14 0 0.04 0.14 0 0.06 0.14 0 0.08 0.14 0 0.1 0.14 0 0 0.145 0 0.02 0.145 0 0.04 0.145 0 0.06 0.145 0 0.08 0.145 0 0.1 0.145 0 0 0.15 0 0.02 0.15 0 0.04 0.15 0 0.06 0.15 0 0.08 0.15 0 0.1 0.15 0 0 0.155 0 0.02 0.155 0 0.04 0.155 0 0.06 0.155 0 0.08 0.155 0 0.1 0.155 0 0 0.16 0 0.02 0.16 0 0.04 0.16 0 0.06 0.16 0 0.08 0.16 0 0.1 0.16 0 0 0.165 0 0.02 0.165 0 0.04 0.165 0 0.06 0.165 0 0.08 0.165 0 0.1 0.165 0 0 0.17 0 0.02 0.17 0 0.04 0.17 0 0.06 0.17 0 0.08 0.17 0 0.1 0.17 0 0 0.175 0 0.02 0.175 0 0.04 0.175 0 0.06 0.175 0 0.08 0.175 0 0.1 0.175 0 0 0.18 0 0.02 0.18 0 0.04 0.18 0 0.06 0.18 0 0.08 0.18 0 0.1 0.18 0 0 0.185 0 0.02 0.185 0 0.04 0.185 0 0.06 0.185 0 0.08 0.185 0 0.1 0.185 0 0 0.19 0 0.02 0.19 0 0.04 0.19 0 0.06 0.19 0 0.08 0.19 0 0.1 0.19 0 0 0.195 0 0.02 0.195 0 0.04 0.195 0 0.06 0.195 0 0.08 0.195 0 0.1 0.195 0 0 0.2 0 0.02 0.2 0 0.04 0.2 0 0.06 0.2 0 0.08 0.2 0 0.1 0.2 0 0 0.205 0 0.02 0.205 0 0.04 0.205 0 0.06 0.205 0 0.08 0.205 0 0.1 0.205 0 0 0.21 0 0.02 0.21 0 0.04 0.21 0 0.06 0.21 0 0.08 0.21 0 0.1 0.21 0 0 0.215 0 0.02 0.215 0 0.04 0.215 0 0.06 0.215 0 0.08 0.215 0 0.1 0.215 0 0 0.22 0 0.02 0.22 0 0.04 0.22 0 0.06 0.22 0 0.08 0.22 0 0.1 0.22 0 0 0.225 0 0.02 0.225 0 0.04 0.225 0 0.06 0.225 0 0.08 0.225 0 0.1 0.225 0 0 0.23 0 0.02 0.23 0 0.04 0.23 0 0.06 0.23 0 0.08 0.23 0 0.1 0.23 0 0 0.235 0 0.02 0.235 0 0.04 0.235 0 0.06 0.235 0 0.08 0.235 0 0.1 0.235 0 0 0.24 0 0.02 0.24 0 0.04 0.24 0 0.06 0.24 0 0.08 0.24 0 0.1 0.24 0 0 0.245 0 0.02 0.245 0 0.04 0.245 0 0.06 0.245 0 0.08 0.245 0 0.1 0.245 0 0 0.25 0 0.02 0.25 0 0.04 0.25 0 0.06 0.25 0 0.08 0.25 0 0.1 0.25 0 0 0.255 0 0.02 0.255 0 0.04 0.255 0 0.06 0.255 0 0.08 0.255 0 0.1 0.255 0 0 0.26 0 0.02 0.26 0 0.04 0.26 0 0.06 0.26 0 0.08 0.26 0 0.1 0.26 0 0 0.265 0 0.02 0.265 0 0.04 0.265 0 0.06 0.265 0 0.08 0.265 0 0.1 0.265 0 0 0.27 0 0.02 0.27 0 0.04 0.27 0 0.06 0.27 0 0.08 0.27 0 0.1 0.27 0 0 0.275 0 0.02 0.275 0 0.04 0.275 0 0.06 0.275 0 0.08 0.275 0 0.1 0.275 0 0 0.28 0 0.02 0.28 0 0.04 0.28 0 0.06 0.28 0 0.08 0.28 0 0.1 0.28 0 0 0.285 0 0.02 0.285 0 0.04 0.285 0 0.06 0.285 0 0.08 0.285 0 0.1 0.285 0 0 0.29 0 0.02 0.29 0 0.04 0.29 0 0.06 0.29 0 0.08 0.29 0 0.1 0.29 0 0 0.295 0 0.02 0.295 0 0.04 0.295 0 0.06 0.295 0 0.08 0.295 0 0.1 0.295 0 0 0.3 0 0.02 0.3 0 0.04 0.3 0 0.06 0.3 0 0.08 0.3 0 0.1 0.3 0 0 0.305 0 0.02 0.305 0 0.04 0.305 0 0.06 0.305 0 0.08 0.305 0 0.1 0.305 0 0 0.31 0 0.02 0.31 0 0.04 0.31 0 0.06 0.31 0 0.08 0.31 0 0.1 0.31 0 0 0.315 0 0.02 0.315 0 0.04 0.315 0 0.06 0.315 0 0.08 0.315 0 0.1 0.315 0 0 0.32 0 0.02 0.32 0 0.04 0.32 0 0.06 0.32 0 0.08 0.32 0 0.1 0.32 0 0 0.325 0 0.02 0.325 0 0.04 0.325 0 0.06 0.325 0 0.08 0.325 0 0.1 0.325 0 0 0.33 0 0.02 0.33 0 0.04 0.33 0 0.06 0.33 0 0.08 0.33 0 0.1 0.33 0 0 0.335 0 0.02 0.335 0 0.04 0.335 0 0.06 0.335 0 0.08 0.335 0 0.1 0.335 0 0 0.34 0 0.02 0.34 0 0.04 0.34 0 0.06 0.34 0 0.08 0.34 0 0.1 0.34 0 0 0.345 0 0.02 0.345 0 0.04 0.345 0 0.06 0.345 0 0.08 0.345 0 0.1 0.345 0 0 0.35 0 0.02 0.35 0 0.04 0.35 0 0.06 0.35 0 0.08 0.35 0 0.1 0.35 0 0 0.355 0 0.02 0.355 0 0.04 0.355 0 0.06 0.355 0 0.08 0.355 0 0.1 0.355 0 0 0.36 0 0.02 0.36 0 0.04 0.36 0 0.06 0.36 0 0.08 0.36 0 0.1 0.36 0 0 0.365 0 0.02 0.365 0 0.04 0.365 0 0.06 0.365 0 0.08 0.365 0 0.1 0.365 0 0 0.37 0 0.02 0.37 0 0.04 0.37 0 0.06 0.37 0 0.08 0.37 0 0.1 0.37 0 0 0.375 0 0.02 0.375 0 0.04 0.375 0 0.06 0.375 0 0.08 0.375 0 0.1 0.375 0 0 0.38 0 0.02 0.38 0 0.04 0.38 0 0.06 0.38 0 0.08 0.38 0 0.1 0.38 0 0 0.385 0 0.02 0.385 0 0.04 0.385 0 0.06 0.385 0 0.08 0.385 0 0.1 0.385 0 0 0.39 0 0.02 0.39 0 0.04 0.39 0 0.06 0.39 0 0.08 0.39 0 0.1 0.39 0 0 0.395 0 0.02 0.395 0 0.04 0.395 0 0.06 0.395 0 0.08 0.395 0 0.1 0.395 0 0 0.4 0 0.02 0.4 0 0.04 0.4 0 0.06 0.4 0 0.08 0.4 0 0.1 0.4 0 0 0.405 0 0.02 0.405 0 0.04 0.405 0 0.06 0.405 0 0.08 0.405 0 0.1 0.405 0 0 0.41 0 0.02 0.41 0 0.04 0.41 0 0.06 0.41 0 0.08 0.41 0 0.1 0.41 0 0 0.415 0 0.02 0.415 0 0.04 0.415 0 0.06 0.415 0 0.08 0.415 0 0.1 0.415 0 0 0.42 0 0.02 0.42 0 0.04 0.42 0 0.06 0.42 0 0.08 0.42 0 0.1 0.42 0 0 0.425 0 0.02 0.425 0 0.04 0.425 0 0.06 0.425 0 0.08 0.425 0 0.1 0.425 0 0 0.43 0 0.02 0.43 0 0.04 0.43 0 0.06 0.43 0 0.08 0.43 0 0.1 0.43 0 0 0.435 0 0.02 0.435 0 0.04 0.435 0 0.06 0.435 0 0.08 0.435 0 0.1 0.435 0 0 0.44 0 0.02 0.44 0 0.04 0.44 0 0.06 0.44 0 0.08 0.44 0 0.1 0.44 0 0 0.445 0 0.02 0.445 0 0.04 0.445 0 0.06 0.445 0 0.08 0.445 0 0.1 0.445 0 0 0.45 0 0.02 0.45 0 0.04 0.45 0 0.06 0.45 0 0.08 0.45 0 0.1 0.45 0 0 0.455 0 0.02 0.455 0 0.04 0.455 0 0.06 0.455 0 0.08 0.455 0 0.1 0.455 0 0 0.46 0 0.02 0.46 0 0.04 0.46 0 0.06 0.46 0 0.08 0.46 0 0.1 0.46 0 0 0.465 0 0.02 0.465 0 0.04 0.465 0 0.06 0.465 0 0.08 0.465 0 0.1 0.465 0 0 0.47 0 0.02 0.47 0 0.04 0.47 0 0.06 0.47 0 0.08 0.47 0 0.1 0.47 0 0 0.475 0 0.02 0.475 0 0.04 0.475 0 0.06 0.475 0 0.08 0.475 0 0.1 0.475 0 0 0.48 0 0.02 0.48 0 0.04 0.48 0 0.06 0.48 0 0.08 0.48 0 0.1 0.48 0 0 0.485 0 0.02 0.485 0 0.04 0.485 0 0.06 0.485 0 0.08 0.485 0 0.1 0.485 0 0 0.49 0 0.02 0.49 0 0.04 0.49 0 0.06 0.49 0 0.08 0.49 0 0.1 0.49 0 0 0.495 0 0.02 0.495 0 0.04 0.495 0 0.06 0.495 0 0.08 0.495 0 0.1 0.495 0 0 0.5 0 0.02 0.5 0 0.04 0.5 0 0.06 0.5 0 0.08 0.5 0 0.1 0.5 0 0 0.505 0 0.02 0.505 0 0.04 0.505 0 0.06 0.505 0 0.08 0.505 0 0.1 0.505 0 0 0.51 0 0.02 0.51 0 0.04 0.51 0 0.06 0.51 0 0.08 0.51 0 0.1 0.51 0 0 0.515 0 0.02 0.515 0 0.04 0.515 0 0.06 0.515 0 0.08 0.515 0 0.1 0.515 0 0 0.52 0 0.02 0.52 0 0.04 0.52 0 0.06 0.52 0 0.08 0.52 0 0.1 0.52 0 0 0.525 0 0.02 0.525 0 0.04 0.525 0 0.06 0.525 0 0.08 0.525 0 0.1 0.525 0 0 0.53 0 0.02 0.53 0 0.04 0.53 0 0.06 0.53 0 0.08 0.53 0 0.1 0.53 0 0 0.535 0 0.02 0.535 0 0.04 0.535 0 0.06 0.535 0 0.08 0.535 0 0.1 0.535 0 0 0.54 0 0.02 0.54 0 0.04 0.54 0 0.06 0.54 0 0.08 0.54 0 0.1 0.54 0 0 0.545 0 0.02 0.545 0 0.04 0.545 0 0.06 0.545 0 0.08 0.545 0 0.1 0.545 0 0 0.55 0 0.02 0.55 0 0.04 0.55 0 0.06 0.55 0 0.08 0.55 0 0.1 0.55 0 0 0.555 0 0.02 0.555 0 0.04 0.555 0 0.06 0.555 0 0.08 0.555 0 0.1 0.555 0 0 0.56 0 0.02 0.56 0 0.04 0.56 0 0.06 0.56 0 0.08 0.56 0 0.1 0.56 0 0 0.565 0 0.02 0.565 0 0.04 0.565 0 0.06 0.565 0 0.08 0.565 0 0.1 0.565 0 0 0.57 0 0.02 0.57 0 0.04 0.57 0 0.06 0.57 0 0.08 0.57 0 0.1 0.57 0 0 0.575 0 0.02 0.575 0 0.04 0.575 0 0.06 0.575 0 0.08 0.575 0 0.1 0.575 0 0 0.58 0 0.02 0.58 0 0.04 0.58 0 0.06 0.58 0 0.08 0.58 0 0.1 0.58 0 0 0.585 0 0.02 0.585 0 0.04 0.585 0 0.06 0.585 0 0.08 0.585 0 0.1 0.585 0 0 0.59 0 0.02 0.59 0 0.04 0.59 0 0.06 0.59 0 0.08 0.59 0 0.1 0.59 0 0 0.595 0 0.02 0.595 0 0.04 0.595 0 0.06 0.595 0 0.08 0.595 0 0.1 0.595 0 0 0.6 0 0.02 0.6 0 0.04 0.6 0 0.06 0.6 0 0.08 0.6 0 0.1 0.6 0 0 0.605 0 0.02 0.605 0 0.04 0.605 0 0.06 0.605 0 0.08 0.605 0 0.1 0.605 0 0 0.61 0 0.02 0.61 0 0.04 0.61 0 0.06 0.61 0 0.08 0.61 0 0.1 0.61 0 0 0.615 0 0.02 0.615 0 0.04 0.615 0 0.06 0.615 0 0.08 0.615 0 0.1 0.615 0 0 0.62 0 0.02 0.62 0 0.04 0.62 0 0.06 0.62 0 0.08 0.62 0 0.1 0.62 0 0 0.625 0 0.02 0.625 0 0.04 0.625 0 0.06 0.625 0 0.08 0.625 0 0.1 0.625 0 0 0.63 0 0.02 0.63 0 0.04 0.63 0 0.06 0.63 0 0.08 0.63 0 0.1 0.63 0 0 0.635 0 0.02 0.635 0 0.04 0.635 0 0.06 0.635 0 0.08 0.635 0 0.1 0.635 0 0 0.64 0 0.02 0.64 0 0.04 0.64 0 0.06 0.64 0 0.08 0.64 0 0.1 0.64 0 0 0.645 0 0.02 0.645 0 0.04 0.645 0 0.06 0.645 0 0.08 0.645 0 0.1 0.645 0 0 0.65 0 0.02 0.65 0 0.04 0.65 0 0.06 0.65 0 0.08 0.65 0 0.1 0.65 0 0 0.655 0 0.02 0.655 0 0.04 0.655 0 0.06 0.655 0 0.08 0.655 0 0.1 0.655 0 0 0.66 0 0.02 0.66 0 0.04 0.66 0 0.06 0.66 0 0.08 0.66 0 0.1 0.66 0 0 0.665 0 0.02 0.665 0 0.04 0.665 0 0.06 0.665 0 0.08 0.665 0 0.1 0.665 0 0 0.67 0 0.02 0.67 0 0.04 0.67 0 0.06 0.67 0 0.08 0.67 0 0.1 0.67 0 0 0.675 0 0.02 0.675 0 0.04 0.675 0 0.06 0.675 0 0.08 0.675 0 0.1 0.675 0 0 0.68 0 0.02 0.68 0 0.04 0.68 0 0.06 0.68 0 0.08 0.68 0 0.1 0.68 0 0 0.685 0 0.02 0.685 0 0.04 0.685 0 0.06 0.685 0 0.08 0.685 0 0.1 0.685 0 0 0.69 0 0.02 0.69 0 0.04 0.69 0 0.06 0.69 0 0.08 0.69 0 0.1 
[...]
			<PointData Scalars="VitesseX">
				<DataArray Name="VitesseX" type="Float32" format="ascii">
 0 5.81662e-15 -1.47037e-14 -1.82524e-14 -2.83298e-14 0 0 1.41987e-15 -1.04715e-14 -2.14514e-14 -2.68267e-14 0 0 -1.09051e-15 -1.38037e-14 -1.6784e-14 -3.02313e-14 0 0 -3.20138e-15 -1.55286e-14 -1.68941e-14 -3.04591e-14 0 0 -2.66646e-15 -1.59961e-14 -2.18675e-14 -2.66567e-14 0 0 7.62422e-16 -2.54322e-14 -1.09326e-14 -3.52934e-14 0 0 -1.198e-14 -1.26957e-14 -2.15882e-14 -2.91949e-14 0 0 -1.53275e-14 -1.77803e-14 -1.69275e-14 -3.0092e-14 0 0 -1.77178e-14 -2.84202e-14 -8.13706e-15 -2.66245e-14 0 0 -6.6174e-15 -4.69805e-14 -1.39228e-14 -5.38933e-15 0 0 -2.63246e-16 -5.3928e-14 -1.86528e-14 -5.55478e-15 0 0 -2.72172e-14 -2.04053e-14 -3.78189e-14 -4.16736e-15 0 0 -2.64854e-14 -3.25148e-14 -2.16856e-14 -7.94194e-15 0 0 -1.43235e-14 -5.1531e-14 -9.75716e-15 -1.08856e-15 0 0 -2.21196e-14 -3.85024e-14 -1.86834e-14 1.66038e-14 0 0 -1.17572e-14 -5.67672e-14 1.50192e-14 -4.7967e-15 0 0 -7.96034e-15 -6.01838e-14 1.52508e-14 2.5062e-15 0 0 -1.69087e-14 -4.19164e-14 1.06698e-14 2.1935e-15 0 0 -3.22607e-14 5.0624e-17 -1.71822e-14 1.84816e-14 0 0 -2.45354e-14 1.10108e-14 -2.98198e-14 3.03271e-14 0 0 4.8869e-15 -4.0174e-14 4.31377e-14 -3.20736e-14 0 0 -7.81352e-16 -2.16958e-14 7.29957e-15 -1.79248e-14 0 0 -2.33535e-14 4.0901e-14 -8.8427e-14 2.27381e-14 0 0 -1.83714e-14 3.72391e-14 -1.15447e-13 3.05956e-14 0 0 1.07657e-14 -1.99993e-14 -8.34319e-14 1.50994e-14 0 0 3.08516e-14 -7.66573e-14 -4.82965e-15 -4.08759e-14 0 0 -5.17189e-14 2.58481e-14 -6.6774e-14 -1.99149e-14 0 0 -9.70688e-14 7.52825e-14 -8.7876e-14 -2.43037e-14 0 0 -2.34276e-16 -7.49239e-14 4.10815e-14 -8.9071e-14 0 0 3.21137e-15 -6.00009e-14 -1.91708e-14 -2.20297e-14 0 0 -3.04532e-14 4.36017e-16 -7.95685e-14 -6.18564e-15 0 0 -1.16857e-14 -1.92924e-14 -7.93132e-14 -1.15381e-14 0 0 5.07969e-16 -1.76213e-14 -9.57998e-14 -2.98405e-14 0 0 3.77975e-14 -6.15148e-14 -2.50378e-14 -1.13189e-13 0 0 8.83851e-15 -2.42496e-14 -6.97512e-14 -3.65459e-14 0 0 -1.64226e-14 9.66024e-15 -1.17745e-13 2.75269e-14 0 0 1.49785e-14 -3.59879e-14 -5.90612e-14 -1.58038e-15 0 0 2.15834e-14 -5.40377e-14 -3.0495e-14 5.86883e-15 0 0 3.66568e-15 -2.58628e-14 -5.05179e-14 2.3634e-14 0 0 1.55388e-14 -3.54463e-14 -2.38241e-14 -2.2107e-14 0 0 6.41674e-14 -1.12028e-13 8.83883e-14 -9.23763e-14 0 0 1.6857e-14 -1.32197e-14 -2.28291e-14 3.51524e-15 0 0 -2.78358e-14 4.42995e-14 -6.54148e-14 1.68944e-14 0 0 1.34695e-14 -5.26578e-14 9.75392e-14 -1.15072e-13 0 0 2.9104e-14 -3.63775e-14 5.81715e-14 -6.85194e-14 0 0 -5.71773e-14 1.33873e-13 -1.46476e-13 9.0349e-14 0 0 -8.09109e-14 1.80402e-13 -1.84074e-13 1.28532e-13 0 0 1.33521e-14 3.8827e-15 4.17162e-14 -1.55333e-14 0 0 7.24125e-15 -5.49211e-14 1.42998e-13 -7.40505e-14 0 0 -6.67121e-14 -3.84585e-14 1.5337e-13 -6.85346e-14 0 0 -1.1691e-14 -1.57831e-13 2.2226e-13 -8.31845e-14 0 0 1.08122e-14 -1.80859e-13 1.86317e-13 -6.57158e-14 0 0 -2.8713e-14 -1.53371e-13 1.57515e-13 -1.18466e-13 0 0 -1.25556e-13 3.61675e-14 -8.25822e-14 -4.42585e-14 0 0 -1.28865e-13 3.61852e-14 -8.84285e-14 -8.76536e-14 0 0 2.21235e-14 -2.44346e-13 1.89247e-13 -2.44413e-13 0 0 -1.07556e-14 -2.04742e-13 7.76681e-14 -1.42631e-13 0 0 -1.2038e-13 -1.29979e-13 -5.88456e-14 -5.17549e-14 0 0 -1.07505e-13 -2.12607e-13 -2.93276e-14 -1.13496e-13 0 0 -3.96501e-14 -2.40595e-13 -1.10627e-13 -1.5332e-13 0 0 -1.06419e-13 -3.32064e-14 -3.67755e-13 -8.32135e-14 0 0 -1.11478e-13 1.51848e-14 -3.95318e-13 -9.90163e-14 0 0 -3.25495e-14 -1.14693e-13 -2.58054e-13 -1.49773e-13 0 0 -7.48553e-14 -1.27225e-13 -1.74365e-13 -1.77673e-13 0 0 -1.21442e-13 -1.7633e-13 -4.72087e-14 -2.55882e-13 0 0 -2.24766e-13 -1.5007e-13 3.14475e-15 -2.57286e-13 0 0 -3.08835e-13 -9.79944e-14 -5.00818e-15 -2.47938e-13 0 0 -2.96637e-13 -1.41009e-13 3.06202e-14 -3.02836e-13 0 0 -2.67219e-13 -1.75185e-13 1.50774e-14 -2.94672e-13 0 0 -2.15342e-13 -1.87723e-13 -7.03676e-14 -2.30513e-13 0 0 -1.44638e-13 -2.48275e-13 -8.41873e-14 -2.56792e-13 0 0 -1.48096e-13 -2.65249e-13 -1.73297e-13 -2.26808e-13 0 0 -2.01028e-13 -2.10533e-13 -2.48421e-13 -1.59363e-13 0 0 -2.52759e-13 -2.2489e-13 -2.36424e-13 -1.64478e-13 0 0 -2.42324e-13 -3.07155e-13 -1.76506e-13 -1.66692e-13 0 0 -2.42919e-13 -3.24199e-13 -1.74508e-13 -1.77493e-13 0 0 -2.91979e-13 -3.07061e-13 -1.55619e-13 -1.90038e-13 0 0 -3.59455e-13 -2.55572e-13 -1.0945e-13 -1.63556e-13 0 0 -4.21802e-13 -2.15274e-13 -5.66474e-14 -9.09129e-14 0 0 -4.5584e-13 -2.16729e-13 3.88761e-14 -8.52482e-14 0 0 -4.34211e-13 -2.46851e-13 1.53174e-13 -1.27903e-13 0 0 -3.92939e-13 -3.2501e-13 2.72005e-13 -2.50419e-13 0 0 -3.32703e-13 -4.01911e-13 3.08227e-13 -3.13848e-13 0 0 -2.71105e-13 -4.1927e-13 2.8152e-13 -3.09543e-13 0 0 -1.94731e-13 -4.11843e-13 1.97126e-13 -2.859e-13 0 0 -1.33702e-13 -3.70621e-13 6.18773e-14 -2.24191e-13 0 0 -1.14334e-13 -3.04921e-13 -1.22729e-13 -1.37423e-13 0 0 -1.3975e-13 -2.36909e-13 -2.87371e-13 -7.20091e-14 0 0 -1.69871e-13 -1.57632e-13 -4.17567e-13 -3.50178e-14 0 0 -1.7361e-13 -1.29941e-13 -4.11107e-13 -5.21543e-14 0 0 -1.6074e-13 -1.34095e-13 -3.81145e-13 -8.63419e-14 0 0 -1.22272e-13 -1.65489e-13 -3.1053e-13 -1.778e-13 0 0 -9.74587e-14 -2.41931e-13 -2.28017e-13 -2.8074e-13 0 0 -9.07488e-14 -3.00682e-13 -1.4362e-13 -3.6116e-13 0 0 -8.26789e-14 -3.15195e-13 -1.21037e-13 -4.2296e-13 0 0 -8.30602e-14 -3.12342e-13 -1.30298e-13 -5.10538e-13 0 0 -1.13347e-13 -2.76581e-13 -1.82875e-13 -5.62824e-13 0 0 -1.40177e-13 -1.85782e-13 -3.18425e-13 -5.54787e-13 0 0 -1.28316e-13 -1.07347e-13 -4.50902e-13 -5.28766e-13 0 0 -9.34692e-14 -1.08945e-13 -5.62501e-13 -4.78838e-13 0 0 -1.29261e-14 -1.29079e-13 -6.23762e-13 -4.27582e-13 0 0 7.48006e-14 -1.96227e-13 -6.16535e-13 -3.90517e-13 0 0 1.59505e-13 -2.85833e-13 -5.95353e-13 -3.48188e-13 0 0 2.46921e-13 -3.60841e-13 -5.82238e-13 -2.92466e-13 0 0 2.59845e-13 -4.15134e-13 -5.80437e-13 -2.37067e-13 0 0 2.46927e-13 -4.25851e-13 -5.80813e-13 -1.92337e-13 0 0 1.87447e-13 -4.07209e-13 -5.85991e-13 -1.41705e-13 0 0 6.12372e-14 -3.24876e-13 -5.95478e-13 -1.07049e-13 0 0 -3.8514e-14 -3.10105e-13 -5.02422e-13 -1.62921e-13 0 0 -1.04929e-13 -3.24592e-13 -3.96007e-13 -2.47476e-13 0 0 -1.80252e-13 -2.85311e-13 -4.31101e-13 -2.30574e-13 0 0 -2.18186e-13 -2.32817e-13 -4.19695e-13 -2.24633e-13 0 0 -2.08186e-13 -2.37059e-13 -3.85568e-13 -1.87558e-13 0 0 -1.96994e-13 -2.35539e-13 -4.15357e-13 -6.17628e-14 0 0 -1.80761e-13 -2.23986e-13 -4.17115e-13 -6.81546e-14 0 0 -1.70249e-13 -2.50447e-13 -3.50245e-13 -8.69464e-14 0 0 -1.68786e-13 -2.67066e-13 -2.48701e-13 -1.01789e-13 0 0 -1.88576e-13 -2.19449e-13 -1.79984e-13 -1.46844e-13 0 0 -2.63051e-13 -1.53152e-13 -1.17884e-13 -2.33539e-13 0 0 -3.28733e-13 -1.62078e-13 -4.94378e-14 -3.2999e-13 0 0 -3.45333e-13 -1.70685e-13 -7.30311e-14 -2.88792e-13 0 0 -3.42951e-13 -1.58265e-13 -1.687e-13 -2.22642e-13 0 0 -3.29924e-13 -1.78436e-13 -1.79873e-13 -1.63834e-13 0 0 -2.87187e-13 -2.33306e-13 -1.47211e-13 -1.35762e-13 0 0 -1.7583e-13 -2.96246e-13 -1.01805e-13 -8.85845e-14 0 0 -6.98681e-14 -2.90786e-13 -9.79568e-14 -1.7251e-14 0 0 -6.84354e-14 -2.66418e-13 -8.12473e-14 -7.57817e-15 0 0 -6.48969e-14 -2.35077e-13 -6.71049e-14 -1.32722e-16 0 0 -1.01736e-13 -7.63172e-14 -1.14445e-13 4.09207e-14 0 0 -2.16473e-13 1.69942e-13 -2.06594e-13 5.10483e-14 0 0 -2.46601e-13 1.90831e-13 -2.11758e-13 4.82034e-14 0 0 -2.64193e-13 1.6086e-13 -1.58075e-13 -3.05783e-15 0 0 -2.62023e-13 8.22649e-14 -1.10025e-13 -3.60687e-15 0 0 -1.96463e-13 -2.12281e-13 3.81398e-14 -4.24853e-14 0 0 3.65624e-14 -6.93067e-13 3.553e-13 -2.28987e-13 0 0 -9.97869e-14 -5.29567e-13 2.48119e-13 -1.96018e-13 0 0 -4.55209e-13 3.50986e-14 -3.06524e-13 1.53409e-13 0 0 -3.28122e-13 -6.91172e-14 -3.28041e-13 1.90315e-13 0 0 -1.32343e-13 -2.44809e-13 -2.23589e-13 5.89252e-14 0 0 -1.29391e-13 -2.06936e-13 -2.35969e-13 -1.36113e-14 0 0 -1.73013e-13 -1.448e-13 -2.38568e-13 -1.14912e-13 0 0 -1.63182e-13 -1.90468e-13 -1.62612e-13 -2.24841e-13 0 0 -1.516e-13 -1.94471e-13 -1.68284e-13 -1.73018e-13 0 0 -1.52435e-13 -1.77751e-13 -1.82964e-13 -1.81339e-13 0 0 -1.67907e-13 -1.66034e-13 -2.0061e-13 -1.72298e-13 0 0 -1.77532e-13 -1.42101e-13 -2.59239e-13 -1.46634e-13 0 0 -1.64047e-13 -1.39693e-13 -3.49331e-13 -1.34037e-13 0 0 -1.54319e-13 -1.83357e-13 -3.80261e-13 -5.08536e-14 0 0 -1.53033e-13 -2.42677e-13 -3.48403e-13 -3.02726e-14 0 0 -1.54792e-13 -2.77704e-13 -3.85994e-13 -6.35511e-14 0 0 -1.84163e-13 -2.80275e-13 -4.51589e-13 -1.66403e-13 0 0 -1.83499e-13 -3.11797e-13 -3.94659e-13 -3.89957e-13 0 0 -1.62336e-13 -3.28789e-13 -4.17953e-13 -5.9361e-13 0 0 -1.7063e-13 -3.14519e-13 -4.74888e-13 -6.01793e-13 0 0 -1.70671e-13 -3.6004e-13 -4.31672e-13 -5.63551e-13 0 0 -1.58208e-13 -3.67596e-13 -3.89268e-13 -2.76789e-13 0 0 -1.59691e-13 -3.6066e-13 -2.8429e-13 1.35722e-13 0 0 -1.88162e-13 -3.32433e-13 -2.53229e-13 3.4258e-13 0 0 -2.33748e-13 -2.10307e-13 -2.32439e-13 2.00963e-13 0 0 -2.35272e-13 -1.97095e-13 -1.52785e-13 -1.47772e-13 0 0 -1.2571e-13 -2.54559e-13 -1.18599e-13 -7.10658e-14 0 0 -6.26107e-14 -2.09549e-13 -2.74806e-13 2.19991e-13 0 0 -1.12635e-13 -1.11846e-13 -4.18753e-13 1.08494e-13 0 0 -1.54985e-13 -2.14808e-13 -1.52394e-13 -2.68211e-13 0 0 -1.63095e-13 -3.51201e-13 8.99305e-14 -2.8597e-13 0 0 -1.02178e-13 -3.36298e-13 -8.43325e-14 -1.57407e-14 0 0 -1.1e-13 -2.27641e-13 -2.63632e-13 1.10587e-13 0 0 -1.61848e-13 -1.33799e-13 -3.09572e-13 8.35637e-14 0 0 -1.90174e-13 -7.59567e-14 -2.93988e-13 2.5192e-14 0 0 -1.22012e-13 -1.46131e-13 -2.11827e-13 -4.24467e-14 0 0 -1.56221e-13 -7.58433e-14 -2.78249e-13 4.7884e-14 0 0 -1.01745e-13 -2.07366e-13 -4.03972e-14 -1.35844e-13 0 0 -5.6216e-14 -2.64004e-13 4.82758e-14 -1.01983e-13 0 0 -2.05258e-13 1.91773e-14 -1.25874e-13 -1.194e-14 0 0 -1.55223e-13 -2.57641e-14 1.79867e-16 -1.56731e-13 0 0 -1.37853e-13 -4.24219e-14 -1.1508e-15 -8.43215e-14 0 0 -1.12184e-13 -6.69459e-14 6.36807e-14 -8.63821e-14 0 0 -1.676e-14 -1.59118e-13 1.50205e-13 -8.0432e-14 0 0 -4.68139e-14 -8.32978e-14 1.11522e-13 -3.8468e-14 0 0 -1.05222e-14 -3.28338e-14 5.95476e-14 -6.0315e-14 0 0 1.22534e-13 -1.71115e-13 1.67465e-13 -1.55284e-13 0 0 7.31508e-14 -9.70551e-14 1.2496e-13 -1.20248e-13 0 0 4.0406e-14 -3.96365e-14 1.10211e-13 -4.16327e-14 0 0 6.84071e-14 -9.33196e-14 1.88662e-13 -8.38482e-14 0 0 3.65331e-14 -3.06118e-14 7.05178e-14 -3.94822e-14 0 0 1.59172e-13 -1.68993e-13 1.53932e-13 -1.06779e-13 0 0 2.2244e-13 -1.65867e-13 9.93608e-14 -1.3489e-13 0 0 4.09824e-14 9.34944e-14 -1.16298e-13 -1.03142e-13 0 0 -6.91772e-14 2.02326e-13 -2.37551e-13 -5.63439e-14 0 0 1.10075e-14 8.60473e-14 -2.74867e-13 4.1696e-14 0 0 -8.93655e-15 8.9293e-14 -2.59663e-13 -1.16284e-13 0 0 -5.3163e-14 1.18845e-15 6.086e-14 -4.89797e-13 0 0 -1.26988e-13 -7.58089e-14 2.15462e-13 -5.20985e-13 0 0 -9.40644e-14 -1.23588e-13 2.77815e-14 -2.43099e-13 0 0 -6.49501e-14 -5.87884e-14 -1.87087e-13 -1.18557e-13 0 0 -1.68915e-13 3.06226e-14 -2.65143e-13 -1.83769e-13 0 0 -2.66173e-13 6.96635e-14 -4.57847e-13 -3.3554e-14 0 0 -2.19674e-13 -5.11395e-14 -4.70462e-13 -2.67406e-15 0 0 -6.9629e-14 -2.87435e-13 -3.40057e-13 -1.33871e-14 0 0 -9.42625e-14 -2.55355e-13 -2.32462e-13 -1.04093e-13 0 0 -1.30206e-13 -2.61812e-13 3.75634e-14 -3.94398e-13 0
				</DataArray>
				<DataArray Name="VitesseY" type="Float32" format="ascii">