<?xml version="1.0"?>
<VTKFile type="PolyData">
	<PolyData>
		<Piece NumberOfPoints="1206" NumberOfPolys="1000">
			<Points>
				<DataArray type="Float32" NumberOfComponents="3" format="ascii">
 0 0 0 0.02 0 0 0.04 0 0 0.06 0 0 0.08 0 0 0.1 0 0 0 0.005 0 0.02 0.005 0 0.04 0.005 0 0.06 0.005 0 0.08 0.005 0 0.1 0.005 0 0 0.01 0 0.02 0.01 0 0.04 0.01 0 0.06 0.01 0 0.08 0.01 0 0.1 0.01 0 0 0.015 0 0.02 0.015 0 0.04 0.015 0 0.06 0.015 0 0.08 0.015 0 0.1 0.015 0 0 0.02 0 0.02 0.02 0 0.04 0.02 0 0.06 0.02 0 0.08 0.02 0 0.1 0.02 0 0 0.025 0 0.02 0.025 0 0.04 0.025 0 0.06 0.025 0 0.08 0.025 0 0.1 0.025 0 0 0.03 0 0.02 0.03 0 0.04 0.03 0 0.06 0.03 0 0.08 0.03 0 0.1 0.03 0 0 0.035 0 0.02 0.035 0 0.04 0.035 0 0.06 0.035 0 0.08 0.035 0 0.1 0.035 0 0 0.04 0 0.02 0.04 0 0.04 0.04 0 0.06 0.04 0 0.08 0.04 0 0.1 0.04 0 0 0.045 0 0.02 0.045 0 0.04 0.045 0 0.06 0.045 0 0.08 0.045 0 0.1 0.045 0 0 0.05 0 0.02 0.05 0 0.04 0.05 0 0.06 0.05 0 0.08 0.05 0 0.1 0.05 0 0 0.055 0 0.02 0.055 0 0.04 0.055 0 0.06 0.055 0 0.08 0.055 0 0.1 0.055 0 0 0.06 0 0.02 0.06 0 0.04 0.06 0 0.06 0.06 0 0.08 0.06 0 0.1 0.06 0 0 0.065 0 0.02 0.065 0 0.04 0.065 0 0.06 0.065 0 0.08 0.065 0 0.1 0.065 0 0 0.07 0 0.02 0.07 0 0.04 0.07 0 0.06 0.07 0 0.08 0.07 0 0.1 0.07 0 0 0.075 0 0.02 0.075 0 0.04 0.075 0 0.06 0.075 0 0.08 0.075 0 0.1 0.075 0 0 0.08 0 0.02 0.08 0 0.04 0.08 0 0.06 0.08 0 0.08 0.08 0 0.1 0.08 0 0 0.085 0 0.02 0.085 0 0.04 0.085 0 0.06 0.085 0 0.08 0.085 0 0.1 0.085 0 0 0.09 0 0.02 0.09 0 0.04 0.09 0 0.06 0.09 0 0.08 0.09 0 0.1 0.09 0 0 0.095 0 0.02 0.095 0 0.04 0.095 0 0.06 0.095 0 0.08 0.095 0 0.1 0.095 0 0 0.1 0 0.02 0.1 0 0.04 0.1 0 0.06 0.1 0 0.08 0.1 0 0.1 0.1 0 0 0.105 0 0.02 0.105 0 0.04 0.105 0 0.06 0.105 0 0.08 0.105 0 0.1 0.105 0 0 0.11 0 0.02 0.11 0 0.04 0.11 0 0.06 0.11 0 0.08 0.11 0 0.1 0.11 0 0 0.115 0 0.02 0.115 0 0.04 0.115 0 0.06 0.115 0 0.08 0.115 0 0.1 0.115 0 0 0.12 0 0.02 0.12 0 0.04 0.12 0 0.06 0.12 0 0.08 0.12 0 0.1 0.12 0 0 0.125 0 0.02 0.125 0 0.04 0.125 0 0.06 0.125 0 0.08 0.125 0 0.1 0.125 0 0 0.13 0 0.02 0.13 0 0.04 0.13 0 0.06 0.13 0 0.08 0.13 0 0.1 0.13 0 0 0.135 0 0.02 0.135 0 0.04 0.135 0 0.06 0.135 0 0.08 0.135 0 0.1 0.135 0 0 0.14 0 0.02 0.14 0 0.04 0.14 0 0.06 0.14 0 0.08 0.14 0 0.1 0.14 0 0 0.145 0 0.02 0.145 0 0.04 0.145 0 0.06 0.145 0 0.08 0.145 0 0.1 0.145 0 0 0.15 0 0.02 0.15 0 0.04 0.15 0 0.06 0.15 0 0.08 0.15 0 0.1 0.15 0 0 0.155 0 0.02 0.155 0 0.04 0.155 0 0.06 0.155 0 0.08 0.155 0 0.1 0.155 0 0 0.16 0 0.02 0.16 0 0.04 0.16 0 0.06 0.16 0 0.08 0.16 0 0.1 0.16 0 0 0.165 0 0.02 0.165 0 0.04 0.165 0 0.06 0.165 0 0.08 0.165 0 0.1 0.165 0 0 0.17 0 0.02 0.17 0 0.04 0.17 0 0.06 0.17 0 0.08 0.17 0 0.1 0.17 0 0 0.175 0 0.02 0.175 0 0.04 0.175 0 0.06 0.175 0 0.08 0.175 0 0.1 0.175 0 0 0.18 0 0.02 0.18 0 0.04 0.18 0 0.06 0.18 0 0.08 0.18 0 0.1 0.18 0 0 0.185 0 0.02 0.185 0 0.04 0.185 0 0.06 0.185 0 0.08 0.185 0 0.1 0.185 0 0 0.19 0 0.02 0.19 0 0.04 0.19 0 0.06 0.19 0 0.08 0.19 0 0.1 0.19 0 0 0.195 0 0.02 0.195 0 0.04 0.195 0 0.06 0.195 0 0.08 0.195 0 0.1 0.195 0 0 0.2 0 0.02 0.2 0 0.04 0.2 0 0.06 0.2 0 0.08 0.2 0 0.1 0.2 0 0 0.205 0 0.02 0.205 0 0.04 0.205 0 0.06 0.205 0 0.08 0.205 0 0.1 0.205 0 0 0.21 0 0.02 0.21 0 0.04 0.21 0 0.06 0.21 0 0.08 0.21 0 0.1 0.21 0 0 0.215 0 0.02 0.215 0 0.04 0.215 0 0.06 0.215 0 0.08 0.215 0 0.1 0.215 0 0 0.22 0 0.02 0.22 0 0.04 0.22 0 0.06 0.22 0 0.08 0.22 0 0.1 0.22 0 0 0.225 0 0.02 0.225 0 0.04 0.225 0 0.06 0.225 0 0.08 0.225 0 0.1 0.225 0 0 0.23 0 0.02 0.23 0 0.04 0.23 0 0.06 0.23 0 0.08 0.23 0 0.1 0.23 0 0 0.235 0 0.02 0.235 0 0.04 0.235 0 0.06 0.235 0 0.08 0.235 0 0.1 0.235 0 0 0.24 0 0.02 0.24 0 0.04 0.24 0 0.06 0.24 0 0.08 0.24 0 0.1 0.24 0 0 0.245 0 0.02 0.245 0 0.04 0.245 0 0.06 0.245 0 0.08 0.245 0 0.1 0.245 0 0 0.25 0 0.02 0.25 0 0.04 0.25 0 0.06 0.25 0 0.08 0.25 0 0.1 0.25 0 0 0.255 0 0.02 0.255 0 0.04 0.255 0 0.06 0.255 0 0.08 0.255 0 0.1 0.255 0 0 0.26 0 0.02 0.26 0 0.04 0.26 0 0.06 0.26 0 0.08 0.26 0 0.1 0.26 0 0 0.265 0 0.02 0.265 0 0.04 0.265 0 0.06 0.265 0 0.08 0.265 0 0.1 0.265 0 0 0.27 0 0.02 0.27 0 0.04 0.27 0 0.06 0.27 0 0.08 0.27 0 0.1 0.27 0 0 0.275 0 0.02 0.275 0 0.04 0.275 0 0.06 0.275 0 0.08 0.275 0 0.1 0.275 0 0 0.28 0 0.02 0.28 0 0.04 0.28 0 0.06 0.28 0 0.08 0.28 0 0.1 0.28 0 0 0.285 0 0.02 0.285 0 0.04 0.285 0 0.06 0.285 0 0.08 0.285 0 0.1 0.285 0 0 0.29 0 0.02 0.29 0 0.04 0.29 0 0.06 0.29 0 0.08 0.29 0 0.1 0.29 0 0 0.295 0 0.02 0.295 0 0.04 0.295 0 0.06 0.295 0 0.08 0.295 0 0.1 0.295 0 0 0.3 0 0.02 0.3 0 0.04 0.3 0 0.06 0.3 0 0.08 0.3 0 0.1 0.3 0 0 0.305 0 0.02 0.305 0 0.04 0.305 0 0.06 0.305 0 0.08 0.305 0 0.1 0.305 0 0 0.31 0 0.02 0.31 0 0.04 0.31 0 0.06 0.31 0 0.08 0.31 0 0.1 0.31 0 0 0.315 0 0.02 0.315 0 0.04 0.315 0 0.06 0.315 0 0.08 0.315 0 0.1 0.315 0 0 0.32 0 0.02 0.32 0 0.04 0.32 0 0.06 0.32 0 0.08 0.32 0 0.1 0.32 0 0 0.325 0 0.02 0.325 0 0.04 0.325 0 0.06 0.325 0 0.08 0.325 0 0.1 0.325 0 0 0.33 0 0.02 0.33 0 0.04 0.33 0 0.06 0.33 0 0.08 0.33 0 0.1 0.33 0 0 0.335 0 0.02 0.335 0 0.04 0.335 0 0.06 0.335 0 0.08 0.335 0 0.1 0.335 0 0 0.34 0 0.02 0.34 0 0.04 0.34 0 0.06 0.34 0 0.08 0.34 0 0.1 0.34 0 0 0.345 0 0.02 0.345 0 0.04 0.345 0 0.06 0.345 0 0.08 0.345 0 0.1 0.345 0 0 0.35 0 0.02 0.35 0 0.04 0.35 0 0.06 0.35 0 0.08 0.35 0 0.1 0.35 0 0 0.355 0 0.02 0.355 0 0.04 0.355 0 0.06 0.355 0 0.08 0.355 0 0.1 0.355 0 0 0.36 0 0.02 0.36 0 0.04 0.36 0 0.06 0.36 0 0.08 0.36 0 0.1 0.36 0 0 0.365 0 0.02 0.365 0 0.04 0.365 0 0.06 0.365 0 0.08 0.365 0 0.1 0.365 0 0 0.37 0 0.02 0.37 0 0.04 0.37 0 0.06 0.37 0 0.08 0.37 0 0.1 0.37 0 0 0.375 0 0.02 0.375 0 0.04 0.375 0 0.06 0.375 0 0.08 0.375 0 0.1 0.375 0 0 0.38 0 0.02 0.38 0 0.04 0.38 0 0.06 0.38 0 0.08 0.38 0 0.1 0.38 0 0 0.385 0 0.02 0.385 0 0.04 0.385 0 0.06 0.385 0 0.08 0.385 0 0.1 0.385 0 0 0.39 0 0.02 0.39 0 0.04 0.39 0 0.06 0.39 0 0.08 0.39 0 0.1 0.39 0 0 0.395 0 0.02 0.395 0 0.04 0.395 0 0.06 0.395 0 0.08 0.395 0 0.1 0.395 0 0 0.4 0 0.02 0.4 0 0.04 0.4 0 0.06 0.4 0 0.08 0.4 0 0.1 0.4 0 0 0.405 0 0.02 0.405 0 0.04 0.405 0 0.06 0.405 0 0.08 0.405 0 0.1 0.405 0 0 0.41 0 0.02 0.41 0 0.04 0.41 0 0.06 0.41 0 0.08 0.41 0 0.1 0.41 0 0 0.415 0 0.02 0.415 0 0.04 0.415 0 0.06 0.415 0 0.08 0.415 0 0.1 0.415 0 0 0.42 0 0.02 0.42 0 0.04 0.42 0 0.06 0.42 0 0.08 0.42 0 0.1 0.42 0 0 0.425 0 0.02 0.425 0 0.04 0.425 0 0.06 0.425 0 0.08 0.425 0 0.1 0.425 0 0 0.43 0 0.02 0.43 0 0.04 0.43 0 0.06 0.43 0 0.08 0.43 0 0.1 0.43 0 0 0.435 0 0.02 0.435 0 0.04 0.435 0 0.06 0.435 0 0.08 0.435 0 0.1 0.435 0 0 0.44 0 0.02 0.44 0 0.04 0.44 0 0.06 0.44 0 0.08 0.44 0 0.1 0.44 0 0 0.445 0 0.02 0.445 0 0.04 0.445 0 0.06 0.445 0 0.08 0.445 0 0.1 0.445 0 0 0.45 0 0.02 0.45 0 0.04 0.45 0 0.06 0.45 0 0.08 0.45 0 0.1 0.45 0 0 0.455 0 0.02 0.455 0 0.04 0.455 0 0.06 0.455 0 0.08 0.455 0 0.1 0.455 0 0 0.46 0 0.02 0.46 0 0.04 0.46 0 0.06 0.46 0 0.08 0.46 0 0.1 0.46 0 0 0.465 0 0.02 0.465 0 0.04 0.465 0 0.06 0.465 0 0.08 0.465 0 0.1 0.465 0 0 0.47 0 0.02 0.47 0 0.04 0.47 0 0.06 0.47 0 0.08 0.47 0 0.1 0.47 0 0 0.475 0 0.02 0.475 0 0.04 0.475 0 0.06 0.475 0 0.08 0.475 0 0.1 0.475 0 0 0.48 0 0.02 0.48 0 0.04 0.48 0 0.06 0.48 0 0.08 0.48 0 0.1 0.48 0 0 0.485 0 0.02 0.485 0 0.04 0.485 0 0.06 0.485 0 0.08 0.485 0 0.1 0.485 0 0 0.49 0 0.02 0.49 0 0.04 0.49 0 0.06 0.49 0 0.08 0.49 0 0.1 0.49 0 0 0.495 0 0.02 0.495 0 0.04 0.495 0 0.06 0.495 0 0.08 0.495 0 0.1 0.495 0 0 0.5 0 0.02 0.5 0 0.04 0.5 0 0.06 0.5 0 0.08 0.5 0 0.1 0.5 0 0 0.505 0 0.02 0.505 0 0.04 0.505 0 0.06 0.505 0 0.08 0.505 0 0.1 0.505 0 0 0.51 0 0.02 0.51 0 0.04 0.51 0 0.06 0.51 0 0.08 0.51 0 0.1 0.51 0 0 0.515 0 0.02 0.515 0 0.04 0.515 0 0.06 0.515 0 0.08 0.515 0 0.1 0.515 0 0 0.52 0 0.02 0.52 0 0.04 0.52 0 0.06 0.52 0 0.08 0.52 0 0.1 0.52 0 0 0.525 0 0.02 0.525 0 0.04 0.525 0 0.06 0.525 0 0.08 0.525 0 0.1 0.525 0 0 0.53 0 0.02 0.53 0 0.04 0.53 0 0.06 0.53 0 0.08 0.53 0 0.1 0.53 0 0 0.535 0 0.02 0.535 0 0.04 0.535 0 0.06 0.535 0 0.08 0.535 0 0.1 0.535 0 0 0.54 0 0.02 0.54 0 0.04 0.54 0 0.06 0.54 0 0.08 0.54 0 0.1 0.54 0 0 0.545 0 0.02 0.545 0 0.04 0.545 0 0.06 0.545 0 0.08 0.545 0 0.1 0.545 0 0 0.55 0 0.02 0.55 0 0.04 0.55 0 0.06 0.55 0 0.08 0.55 0 0.1 0.55 0 0 0.555 0 0.02 0.555 0 0.04 0.555 0 0.06 0.555 0 0.08 0.555 0 0.1 0.555 0 0 0.56 0 0.02 0.56 0 0.04 0.56 0 0.06 0.56 0 0.08 0.56 0 0.1 0.56 0 0 0.565 0 0.02 0.565 0 0.04 0.565 0 0.06 0.565 0 0.08 0.565 0 0.1 0.565 0 0 0.57 0 0.02 0.57 0 0.04 0.57 0 0.06 0.57 0 0.08 0.57 0 0.1 0.57 0 0 0.575 0 0.02 0.575 0 0.04 0.575 0 0.06 0.575 0 0.08 0.575 0 0.1 0.575 0 0 0.58 0 0.02 0.58 0 0.04 0.58 0 0.06 0.58 0 0.08 0.58 0 0.1 0.58 0 0 0.585 0 0.02 0.585 0 0.04 0.585 0 0.06 0.585 0 0.08 0.585 0 0.1 0.585 0 0 0.59 0 0.02 0.59 0 0.04 0.59 0 0.06 0.59 0 0.08 0.59 0 0.1 0.59 0 0 0.595 0 0.02 0.595 0 0.04 0.595 0 0.06 0.595 0 0.08 0.595 0 0.1 0.595 0 0 0.6 0 0.02 0.6 0 0.04 0.6 0 0.06 0.6 0 0.08 0.6 0 0.1 0.6 0 0 0.605 0 0.02 0.605 0 0.04 0.605 0 0.06 0.605 0 0.08 0.605 0 0.1 0.605 0 0 0.61 0 0.02 0.61 0 0.04 0.61 0 0.06 0.61 0 0.08 0.61 0 0.1 0.61 0 0 0.615 0 0.02 0.615 0 0.04 0.615 0 0.06 0.615 0 0.08 0.615 0 0.1 0.615 0 0 0.62 0 0.02 0.62 0 0.04 0.62 0 0.06 0.62 0 0.08 0.62 0 0.1 0.62 0 0 0.625 0 0.02 0.625 0 0.04 0.625 0 0.06 0.625 0 0.08 0.625 0 0.1 0.625 0 0 0.63 0 0.02 0.63 0 0.04 0.63 0 0.06 0.63 0 0.08 0.63 0 0.1 0.63 0 0 0.635 0 0.02 0.635 0 0.04 0.635 0 0.06 0.635 0 0.08 0.635 0 0.1 0.635 0 0 0.64 0 0.02 0.64 0 0.04 0.64 0 0.06 0.64 0 0.08 0.64 0 0.1 0.64 0 0 0.645 0 0.02 0.645 0 0.04 0.645 0 0.06 0.645 0 0.08 0.645 0 0.1 0.645 0 0 0.65 0 0.02 0.65 0 0.04 0.65 0 0.06 0.65 0 0.08 0.65 0 0.1 0.65 0 0 0.655 0 0.02 0.655 0 0.04 0.655 0 0.06 0.655 0 0.08 0.655 0 0.1 0.655 0 0 0.66 0 0.02 0.66 0 0.04 0.66 0 0.06 0.66 0 0.08 0.66 0 0.1 0.66 0 0 0.665 0 0.02 0.665 0 0.04 0.665 0 0.06 0.665 0 0.08 0.665 0 0.1 0.665 0 0 0.67 0 0.02 0.67 0 0.04 0.67 0 0.06 0.67 0 0.08 0.67 0 0.1 0.67 0 0 0.675 0 0.02 0.675 0 0.04 0.675 0 0.06 0.675 0 0.08 0.675 0 0.1 0.675 0 0 0.68 0 0.02 0.68 0 0.04 0.68 0 0.06 0.68 0 0.08 0.68 0 0.1 0.68 0 0 0.685 0 0.02 0.685 0 0.04 0.685 0 0.06 0.685 0 0.08 0.685 0 0.1 0.685 0 0 0.69 0 0.02 0.69 0 0.04 0.69 0 0.06 0.69 0 0.08 0.69 0 0.1 
[...]
			<PointData Scalars="VitesseX">
				<DataArray Name="VitesseX" type="Float32" format="ascii">
 0 -1.55315e-14 -1.88684e-14 -2.01247e-14 -1.5864e-14 0 0 -1.59478e-14 -1.87649e-14 -1.96952e-14 -1.53507e-14 0 0 -1.947e-14 -1.69496e-14 -1.83351e-14 -1.32876e-14 0 0 -1.71455e-14 -2.67654e-14 -4.10171e-15 -1.65949e-14 0 0 -1.85117e-14 -2.65081e-14 -2.11177e-15 -1.8108e-14 0 0 -2.99549e-14 -3.86384e-15 -2.62756e-14 -5.58057e-15 0 0 -2.86909e-14 -4.87737e-15 -2.37696e-14 -6.46403e-15 0 0 -2.76254e-14 -1.70577e-14 -3.82662e-15 -1.10035e-14 0 0 -2.72253e-14 -3.04143e-14 2.16129e-14 -2.55022e-14 0 0 -3.1778e-14 -1.90384e-14 1.10453e-14 -1.60635e-14 0 0 -2.9012e-14 -1.14011e-14 -7.83249e-15 1.43127e-14 0 0 -1.80571e-14 -1.91375e-14 -1.01366e-14 2.96687e-14 0 0 -1.52142e-14 -2.50229e-14 4.56477e-15 1.69456e-14 0 0 -2.02077e-14 -1.38494e-14 5.79794e-15 2.24163e-15 0 0 -2.77134e-14 9.39272e-15 -1.46812e-14 8.78485e-15 0 0 -1.53367e-14 -1.5713e-14 1.59308e-14 -1.63758e-14 0 0 -2.25634e-14 -3.51999e-15 -1.46672e-14 6.12905e-15 0 0 -1.09052e-14 -1.44211e-14 -1.32343e-14 -4.66911e-15 0 0 -1.45202e-14 -1.08814e-14 -1.45085e-14 -1.69553e-14 0 0 -2.43694e-14 -8.02673e-15 -1.50721e-14 -1.96547e-14 0 0 -1.0816e-14 -4.32407e-14 3.28238e-14 -6.25643e-14 0 0 -1.65083e-14 -2.40768e-14 -4.28794e-15 -3.51593e-14 0 0 2.1997e-14 -7.66743e-14 3.50027e-14 -4.17729e-14 0 0 -3.69263e-16 -4.44895e-14 6.54555e-15 -2.20705e-14 0 0 -4.08532e-14 1.71327e-14 -4.01125e-14 -7.12055e-15 0 0 -2.59285e-14 -1.47869e-14 3.36876e-15 -4.17659e-14 0 0 -5.39624e-14 3.14294e-14 -4.62438e-14 -9.99292e-15 0 0 -6.27091e-14 4.57161e-14 -5.90949e-14 -4.33395e-15 0 0 -2.90337e-15 -5.08071e-14 2.7031e-14 -7.5323e-14 0 0 2.06409e-14 -7.72479e-14 4.21364e-14 -9.78359e-14 0 0 -2.64246e-14 -1.27673e-16 -3.85009e-14 -3.27143e-14 0 0 -2.80955e-14 -2.47894e-14 1.43043e-14 -6.58298e-14 0 0 -3.51989e-14 -1.9391e-14 1.24716e-14 -6.75393e-14 0 0 -3.76674e-14 -1.93508e-15 -2.79646e-14 -6.00429e-15 0 0 -6.48095e-15 -5.92212e-14 5.71325e-14 -4.20263e-14 0 0 -2.87077e-14 -1.6766e-14 4.67882e-14 -5.1621e-14 0 0 -5.66656e-14 6.96157e-14 -3.8024e-14 9.36831e-15 0 0 -5.97966e-14 8.33388e-14 -4.01683e-14 4.06592e-14 0 0 -3.33004e-14 1.69441e-14 4.73401e-14 -1.66442e-14 0 0 -1.37657e-14 1.48275e-14 4.22906e-14 -2.50024e-14 0 0 -5.88344e-14 8.827e-14 -3.57387e-14 2.91168e-14 0 0 1.53749e-14 -4.29815e-14 9.72592e-14 -4.61806e-14 0 0 4.08651e-14 -6.71876e-14 1.05094e-13 -2.69854e-14 0 0 -3.04973e-14 7.40191e-14 -8.43896e-14 1.33909e-13 0 0 -3.50787e-15 1.85393e-14 -5.63309e-14 1.10229e-13 0 0 1.61216e-14 -1.26619e-13 8.78624e-14 -7.54935e-15 0 0 -1.8142e-14 -1.51116e-13 7.89158e-14 -2.37294e-14 0 0 -6.23098e-14 -3.24006e-14 -1.35895e-13 9.50486e-14 0 0 5.41705e-15 -6.81687e-14 -1.98597e-13 1.07249e-13 0 0 5.57767e-14 -1.5668e-13 -9.91538e-14 -3.73783e-14 0 0 3.81546e-14 -1.15652e-13 -1.45812e-13 -3.8741e-14 0 0 6.55557e-15 -9.27179e-14 -1.59171e-13 -2.77107e-14 0 0 -4.98482e-14 -8.02885e-14 -1.79175e-13 -4.17217e-15 0 0 4.2488e-14 -2.52602e-13 -1.51045e-13 4.87672e-14 0 0 -1.31238e-14 -2.3565e-13 -2.37444e-13 1.28769e-13 0 0 -1.58481e-13 -3.6085e-14 -4.28526e-13 1.73553e-13 0 0 -3.36766e-14 -1.73526e-13 -2.7613e-13 -2.17202e-14 0 0 8.08731e-14 -3.25256e-13 -8.76722e-14 -1.60577e-13 0 0 8.06054e-15 -2.53317e-13 -1.36264e-13 -8.06781e-14 0 0 -9.29314e-14 -1.54523e-13 -2.08468e-13 -7.44487e-15 0 0 -8.17115e-14 -2.81463e-13 -2.19315e-14 -1.31499e-13 0 0 -1.19011e-13 -3.69778e-13 1.15259e-13 -1.84261e-13 0 0 -1.87858e-13 -3.20033e-13 -1.60133e-14 -3.06876e-14 0 0 -2.26576e-13 -3.29804e-13 -3.26347e-14 2.52435e-14 0 0 -2.64983e-13 -2.8481e-13 -7.63878e-14 -1.69897e-14 0 0 -3.07504e-13 -1.98245e-13 -2.27074e-13 -1.15783e-14 0 0 -2.39786e-13 -2.58993e-13 -2.57109e-13 -6.2881e-15 0 0 -1.42424e-13 -4.20186e-13 -2.20823e-13 -3.81113e-14 0 0 -1.71136e-13 -3.99301e-13 -2.51688e-13 2.23698e-14 0 0 -2.49332e-13 -3.23531e-13 -3.62284e-13 1.89777e-13 0 0 -2.68936e-13 -3.31314e-13 -3.16299e-13 1.6826e-13 0 0 -2.57013e-13 -4.19855e-13 -1.74431e-13 8.09777e-14 0 0 -2.27635e-13 -5.13062e-13 -1.23987e-13 3.81977e-14 0 0 -2.22439e-13 -5.19798e-13 -1.26701e-13 1.57764e-14 0 0 -2.3706e-13 -4.68656e-13 -1.78004e-13 2.30939e-14 0 0 -2.50973e-13 -3.53074e-13 -3.23333e-13 7.49146e-14 0 0 -2.47789e-13 -2.7406e-13 -4.13617e-13 5.49497e-14 0 0 -2.22748e-13 -2.71183e-13 -4.08331e-13 -3.20983e-15 0 0 -1.63324e-13 -2.92318e-13 -3.78058e-13 2.11976e-15 0 0 -9.12469e-14 -3.37271e-13 -3.1987e-13 3.65594e-14 0 0 -1.86677e-14 -3.74861e-13 -2.41998e-13 9.79325e-14 0 0 4.95451e-14 -3.76042e-13 -2.44129e-13 2.07425e-13 0 0 1.13376e-13 -3.583e-13 -2.75668e-13 3.32205e-13 0 0 1.57061e-13 -3.31823e-13 -3.01483e-13 3.51731e-13 0 0 1.60972e-13 -3.28978e-13 -3.07737e-13 3.29334e-13 0 0 1.83667e-13 -3.19215e-13 -2.98088e-13 2.53683e-13 0 0 2.09178e-13 -3.14826e-13 -2.56437e-13 1.43985e-13 0 0 2.00016e-13 -3.10252e-13 -2.13284e-13 3.6545e-14 0 0 1.70317e-13 -2.77299e-13 -2.06831e-13 -4.79229e-14 0 0 9.93049e-14 -2.17479e-13 -2.42855e-13 -1.2018e-13 0 0 2.45411e-14 -1.62001e-13 -2.34996e-13 -1.89828e-13 0 0 -4.40285e-14 -1.50535e-13 -2.05311e-13 -2.23755e-13 0 0 -5.07908e-14 -1.52936e-13 -1.96957e-13 -2.07843e-13 0 0 -4.69652e-14 -1.51649e-13 -2.14278e-13 -1.49852e-13 0 0 -4.01473e-14 -1.45916e-13 -2.42938e-13 -9.06054e-14 0 0 -2.84485e-14 -1.44945e-13 -2.64471e-13 -4.46655e-14 0 0 -1.20406e-14 -1.48833e-13 -2.93043e-13 -3.76845e-15 0 0 1.1484e-14 -1.61362e-13 -3.15836e-13 -5.69962e-15 0 0 4.28985e-14 -1.87639e-13 -3.32563e-13 -2.93789e-14 0 0 7.27294e-14 -2.21488e-13 -3.44852e-13 -5.59116e-14 0 0 1.16962e-13 -2.62742e-13 -3.46901e-13 -8.38327e-14 0 0 1.60952e-13 -3.01974e-13 -3.70439e-13 -1.07666e-13 0 0 1.98083e-13 -3.14342e-13 -4.14952e-13 -1.25682e-13 0 0 2.24037e-13 -3.12246e-13 -4.13686e-13 -1.51111e-13 0 0 2.489e-13 -3.04213e-13 -3.98632e-13 -2.06212e-13 0 0 2.4042e-13 -3.03331e-13 -3.43873e-13 -2.57167e-13 0 0 1.98814e-13 -2.6825e-13 -3.58993e-13 -2.41273e-13 0 0 1.32432e-13 -2.15304e-13 -3.9848e-13 -2.19304e-13 0 0 8.96988e-14 -1.84879e-13 -3.769e-13 -2.5584e-13 0 0 2.63466e-14 -1.56975e-13 -3.62165e-13 -2.82519e-13 0 0 -2.66512e-14 -1.61278e-13 -3.07304e-13 -3.44432e-13 0 0 -4.941e-14 -1.63786e-13 -2.93355e-13 -4.07639e-13 0 0 -1.22728e-13 -1.26541e-13 -3.43664e-13 -3.76744e-13 0 0 -1.38372e-13 -1.30209e-13 -3.85622e-13 -3.54248e-13 0 0 -1.1362e-13 -1.489e-13 -3.98631e-13 -3.19032e-13 0 0 -5.11729e-14 -2.17415e-13 -3.70617e-13 -2.51361e-13 0 0 -3.40308e-15 -2.90589e-13 -3.09e-13 -2.63937e-13 0 0 -6.99593e-15 -2.97672e-13 -3.2138e-13 -2.48941e-13 0 0 -9.57304e-15 -2.86093e-13 -3.14099e-13 -2.36916e-13 0 0 -1.68614e-14 -2.94195e-13 -2.4349e-13 -2.77565e-13 0 0 -3.42572e-14 -2.89255e-13 -2.11615e-13 -2.9861e-13 0 0 -9.9772e-14 -2.2283e-13 -2.59071e-13 -2.58281e-13 0 0 -1.96908e-13 -1.63319e-13 -3.07785e-13 -2.52205e-13 0 0 -2.72481e-13 -1.99312e-13 -2.7186e-13 -2.70762e-13 0 0 -3.19805e-13 -2.24867e-13 -2.77503e-13 -3.00753e-13 0 0 -3.23384e-13 -2.19138e-13 -3.2317e-13 -2.85144e-13 0 0 -3.10114e-13 -2.68012e-13 -3.23078e-13 -2.4503e-13 0 0 -2.58318e-13 -3.04163e-13 -3.49688e-13 -1.68524e-13 0 0 -1.55219e-13 -3.06588e-13 -3.65702e-13 -8.19981e-14 0 0 -8.96192e-14 -3.36436e-13 -3.16645e-13 -9.63642e-14 0 0 -6.68027e-14 -3.29468e-13 -2.6675e-13 -1.04765e-13 0 0 -4.81079e-14 -2.97692e-13 -1.98693e-13 -1.00756e-13 0 0 -5.56103e-14 -2.24706e-13 -1.52772e-13 -1.50606e-13 0 0 -1.2107e-13 -6.33123e-14 -1.95108e-13 -1.71618e-13 0 0 -1.87169e-13 1.53568e-14 -2.86342e-13 -1.12128e-13 0 0 -1.50997e-13 -8.18084e-14 -1.99072e-13 -1.6899e-13 0 0 -8.26878e-14 -4.14672e-13 1.06603e-13 -3.55825e-13 0 0 -1.14457e-13 -4.15872e-13 7.98935e-14 -2.98028e-13 0 0 -2.50374e-13 -2.88447e-13 -1.50528e-13 -5.52153e-14 0 0 -3.26164e-13 -1.89224e-13 -3.11087e-13 -2.04938e-14 0 0 -2.91803e-13 -1.98327e-13 -3.4098e-13 2.82881e-14 0 0 -1.535e-13 -3.42622e-13 -2.67096e-13 3.18921e-14 0 0 -7.72682e-14 -3.49334e-13 -1.92598e-13 -8.21404e-14 0 0 -9.26311e-14 -2.92875e-13 -2.34398e-13 -2.00538e-13 0 0 -1.07566e-13 -2.23537e-13 -2.0849e-13 -2.35927e-13 0 0 -1.18531e-13 -2.22124e-13 -1.3378e-13 -3.22651e-13 0 0 -1.37627e-13 -2.06674e-13 -1.03587e-13 -3.93689e-13 0 0 -1.67941e-13 -1.81433e-13 -1.31028e-13 -3.89677e-13 0 0 -1.63117e-13 -2.11906e-13 -7.96616e-14 -4.17852e-13 0 0 -1.67159e-13 -2.32469e-13 -1.00926e-13 -3.38303e-13 0 0 -1.73171e-13 -2.61269e-13 -1.60296e-13 -8.69516e-14 0 0 -1.75185e-13 -3.1081e-13 -2.04392e-13 -5.71404e-14 0 0 -2.13917e-13 -3.32535e-13 -2.7842e-13 -7.713e-14 0 0 -2.51148e-13 -3.38922e-13 -3.13856e-13 -8.71552e-14 0 0 -2.41697e-13 -3.3002e-13 -3.44789e-13 -2.00651e-13 0 0 -2.43909e-13 -3.05814e-13 -3.74202e-13 -4.12263e-13 0 0 -2.32983e-13 -2.85839e-13 -4.42136e-13 -6.18722e-13 0 0 -1.77387e-13 -3.19238e-13 -3.98406e-13 -7.71691e-13 0 0 -1.23055e-13 -4.1301e-13 -3.32878e-13 -6.54966e-13 0 0 -1.67172e-13 -3.8756e-13 -2.87603e-13 -2.8029e-13 0 0 -1.87816e-13 -3.92668e-13 -1.34761e-13 1.10943e-14 0 0 -1.76088e-13 -4.0206e-13 -6.45072e-15 -3.53368e-14 0 0 -2.14504e-13 -2.49576e-13 -8.41368e-14 -7.20273e-14 0 0 -1.85121e-13 -1.51753e-13 -2.22361e-13 -3.27965e-14 0 0 -1.40103e-13 -1.67708e-13 -2.91924e-13 -8.26894e-14 0 0 -1.16604e-13 -2.06711e-13 -2.2706e-13 -2.61876e-13 0 0 -1.07834e-13 -2.37728e-13 -2.42284e-13 -2.00128e-13 0 0 -1.16511e-13 -2.07064e-13 -3.19527e-13 -1.51006e-13 0 0 -1.50989e-13 -2.34013e-13 -3.28346e-13 -2.58105e-13 0 0 -1.8075e-13 -2.47266e-13 -4.14988e-13 -1.29085e-13 0 0 -1.0208e-13 -3.73956e-13 -3.4761e-13 -1.02841e-13 0 0 -9.51497e-14 -3.97998e-13 -3.0673e-13 -2.54901e-13 0 0 -1.42297e-13 -3.02718e-13 -3.89247e-13 -2.79945e-13 0 0 -1.07623e-13 -3.93844e-13 -2.31269e-13 -4.21962e-13 0 0 -1.76075e-13 -2.49402e-13 -3.54732e-13 -2.96291e-13 0 0 -1.82443e-13 -2.40213e-13 -3.86072e-13 -1.68919e-13 0 0 -1.70103e-13 -2.87437e-13 -2.98758e-13 -2.48984e-13 0 0 -2.08182e-13 -2.26309e-13 -3.30139e-13 -2.48166e-13 0 0 -1.82178e-13 -2.36098e-13 -3.18079e-13 -1.7427e-13 0 0 -2.14282e-13 -1.34982e-13 -3.93744e-13 -1.11333e-13 0 0 -2.64981e-13 -4.14111e-15 -5.21114e-13 -9.86228e-14 0 0 -1.60397e-13 -1.11084e-13 -3.98728e-13 -1.92047e-13 0 0 -5.02212e-14 -2.82249e-13 -1.2612e-13 -4.87014e-13 0 0 -9.91757e-14 -1.52591e-13 -2.71772e-13 -4.53903e-13 0 0 -9.08399e-14 -1.05052e-13 -3.37767e-13 -3.1024e-13 0 0 -7.28773e-14 -2.10544e-13 -1.85312e-13 -3.13381e-13 0 0 -1.52898e-13 -1.16277e-13 -3.11401e-13 -1.3014e-13 0 0 -1.08784e-13 -1.48845e-13 -2.80267e-13 -7.15857e-14 0 0 -7.66426e-14 -2.95281e-13 -1.42843e-14 -1.9696e-13 0 0 -1.23692e-13 -2.93416e-13 -1.21975e-14 -9.95193e-14 0 0 -1.28109e-13 -2.55267e-13 -1.7667e-13 1.04573e-13 0 0 -5.99851e-14 -2.98548e-13 -2.97178e-13 2.84504e-13 0 0 -1.42842e-15 -3.47696e-13 -3.30565e-13 2.54747e-13 0 0 -4.18474e-14 -3.55132e-13 -2.22133e-13 -9.20124e-15 0 0 -9.61108e-14 -3.28026e-13 -2.28139e-13 -2.39072e-14 0 0 -2.25283e-13 -8.68118e-14 -5.40885e-13 1.66517e-13 0 0 -3.46866e-13 2.95184e-14 -5.36295e-13 -2.23033e-16 0 0 -2.60886e-13 -3.19864e-13 -6.98625e-14 -3.87051e-13 0 0 -4.70717e-13 -1.82829e-13 -2.42063e-13 -2.70965e-13 0 0 -5.50286e-13 -1.21707e-13 -3.12531e-13 -2.46186e-13 0 0 -3.15079e-13 -4.71059e-13 3.67601e-14 -4.79948e-13 0
				</DataArray>
				<DataArray Name="VitesseY" type="Float32" format="ascii">