<?xml version="1.0"?>
<VTKFile type="PolyData">
	<PolyData>
		<Piece NumberOfPoints="1206" NumberOfPolys="1000">
			<Points>
				<DataArray type="Float32" NumberOfComponents="3" format="ascii">
 0 0 0 0.02 0 0 0.04 0 0 0.06 0 0 0.08 0 0 0.1 0 0 0 0.005 0 0.02 0.005 0 0.04 0.005 0 0.06 0.005 0 0.08 0.005 0 0.1 0.005 0 0 0.01 0 0.02 0.01 0 0.04 0.01 0 0.06 0.01 0 0.08 0.01 0 0.1 0.01 0 0 0.015 0 0.02 0.015 0 0.04 0.015 0 0.06 0.015 0 0.08 0.015 0 0.1 0.015 0 0 0.02 0 0.02 0.02 0 0.04 0.02 0 0.06 0.02 0 0.08 0.02 0 0.1 0.02 0 0 0.025 0 0.02 0.025 0 0.04 0.025 0 0.06 0.025 0 0.08 0.025 0 0.1 0.025 0 0 0.03 0 0.02 0.03 0 0.04 0.03 0 0.06 0.03 0 0.08 0.03 0 0.1 0.03 0 0 0.035 0 0.02 0.035 0 0.04 0.035 0 0.06 0.035 0 0.08 0.035 0 0.1 0.035 0 0 0.04 0 0.02 0.04 0 0.04 0.04 0 0.06 0.04 0 0.08 0.04 0 0.1 0.04 0 0 0.045 0 0.02 0.045 0 0.04 0.045 0 0.06 0.045 0 0.08 0.045 0 0.1 0.045 0 0 0.05 0 0.02 0.05 0 0.04 0.05 0 0.06 0.05 0 0.08 0.05 0 0.1 0.05 0 0 0.055 0 0.02 0.055 0 0.04 0.055 0 0.06 0.055 0 0.08 0.055 0 0.1 0.055 0 0 0.06 0 0.02 0.06 0 0.04 0.06 0 0.06 0.06 0 0.08 0.06 0 0.1 0.06 0 0 0.065 0 0.02 0.065 0 0.04 0.065 0 0.06 0.065 0 0.08 0.065 0 0.1 0.065 0 0 0.07 0 0.02 0.07 0 0.04 0.07 0 0.06 0.07 0 0.08 0.07 0 0.1 0.07 0 0 0.075 0 0.02 0.075 0 0.04 0.075 0 0.06 0.075 0 0.08 0.075 0 0.1 0.075 0 0 0.08 0 0.02 0.08 0 0.04 0.08 0 0.06 0.08 0 0.08 0.08 0 0.1 0.08 0 0 0.085 0 0.02 0.085 0 0.04 0.085 0 0.06 0.085 0 0.08 0.085 0 0.1 0.085 0 0 0.09 0 0.02 0.09 0 0.04 0.09 0 0.06 0.09 0 0.08 0.09 0 0.1 0.09 0 0 0.095 0 0.02 0.095 0 0.04 0.095 0 0.06 0.095 0 0.08 0.095 0 0.1 0.095 0 0 0.1 0 0.02 0.1 0 0.04 0.1 0 0.06 0.1 0 0.08 0.1 0 0.1 0.1 0 0 0.105 0 0.02 0.105 0 0.04 0.105 0 0.06 0.105 0 0.08 0.105 0 0.1 0.105 0 0 0.11 0 0.02 0.11 0 0.04 0.11 0 0.06 0.11 0 0.08 0.11 0 0.1 0.11 0 0 0.115 0 0.02 0.115 0 0.04 0.115 0 0.06 0.115 0 0.08 0.115 0 0.1 0.115 0 0 0.12 0 0.02 0.12 0 0.04 0.12 0 0.06 0.12 0 0.08 0.12 0 0.1 0.12 0 0 0.125 0 0.02 0.125 0 0.04 0.125 0 0.06 0.125 0 0.08 0.125 0 0.1 0.125 0 0 0.13 0 0.02 0.13 0 0.04 0.13 0 0.06 0.13 0 0.08 0.13 0 0.1 0.13 0 0 0.135 0 0.02 0.135 0 0.04 0.135 0 0.06 0.135 0 0.08 0.135 0 0.1 0.135 0 0 0.14 0 0.02 0.14 0 0.04 0.14 0 0.06 0.14 0 0.08 0.14 0 0.1 0.14 0 0 0.145 0 0.02 0.145 0 0.04 0.145 0 0.06 0.145 0 0.08 0.145 0 0.1 0.145 0 0 0.15 0 0.02 0.15 0 0.04 0.15 0 0.06 0.15 0 0.08 0.15 0 0.1 0.15 0 0 0.155 0 0.02 0.155 0 0.04 0.155 0 0.06 0.155 0 0.08 0.155 0 0.1 0.155 0 0 0.16 0 0.02 0.16 0 0.04 0.16 0 0.06 0.16 0 0.08 0.16 0 0.1 0.16 0 0 0.165 0 0.02 0.165 0 0.04 0.165 0 0.06 0.165 0 0.08 0.165 0 0.1 0.165 0 0 0.17 0 0.02 0.17 0 0.04 0.17 0 0.06 0.17 0 0.08 0.17 0 0.1 0.17 0 0 0.175 0 0.02 0.175 0 0.04 0.175 0 0.06 0.175 0 0.08 0.175 0 0.1 0.175 0 0 0.18 0 0.02 0.18 0 0.04 0.18 0 0.06 0.18 0 0.08 0.18 0 0.1 0.18 0 0 0.185 0 0.02 0.185 0 0.04 0.185 0 0.06 0.185 0 0.08 0.185 0 0.1 0.185 0 0 0.19 0 0.02 0.19 0 0.04 0.19 0 0.06 0.19 0 0.08 0.19 0 0.1 0.19 0 0 0.195 0 0.02 0.195 0 0.04 0.195 0 0.06 0.195 0 0.08 0.195 0 0.1 0.195 0 0 0.2 0 0.02 0.2 0 0.04 0.2 0 0.06 0.2 0 0.08 0.2 0 0.1 0.2 0 0 0.205 0 0.02 0.205 0 0.04 0.205 0 0.06 0.205 0 0.08 0.205 0 0.1 0.205 0 0 0.21 0 0.02 0.21 0 0.04 0.21 0 0.06 0.21 0 0.08 0.21 0 0.1 0.21 0 0 0.215 0 0.02 0.215 0 0.04 0.215 0 0.06 0.215 0 0.08 0.215 0 0.1 0.215 0 0 0.22 0 0.02 0.22 0 0.04 0.22 0 0.06 0.22 0 0.08 0.22 0 0.1 0.22 0 0 0.225 0 0.02 0.225 0 0.04 0.225 0 0.06 0.225 0 0.08 0.225 0 0.1 0.225 0 0 0.23 0 0.02 0.23 0 0.04 0.23 0 0.06 0.23 0 0.08 0.23 0 0.1 0.23 0 0 0.235 0 0.02 0.235 0 0.04 0.235 0 0.06 0.235 0 0.08 0.235 0 0.1 0.235 0 0 0.24 0 0.02 0.24 0 0.04 0.24 0 0.06 0.24 0 0.08 0.24 0 0.1 0.24 0 0 0.245 0 0.02 0.245 0 0.04 0.245 0 0.06 0.245 0 0.08 0.245 0 0.1 0.245 0 0 0.25 0 0.02 0.25 0 0.04 0.25 0 0.06 0.25 0 0.08 0.25 0 0.1 0.25 0 0 0.255 0 0.02 0.255 0 0.04 0.255 0 0.06 0.255 0 0.08 0.255 0 0.1 0.255 0 0 0.26 0 0.02 0.26 0 0.04 0.26 0 0.06 0.26 0 0.08 0.26 0 0.1 0.26 0 0 0.265 0 0.02 0.265 0 0.04 0.265 0 0.06 0.265 0 0.08 0.265 0 0.1 0.265 0 0 0.27 0 0.02 0.27 0 0.04 0.27 0 0.06 0.27 0 0.08 0.27 0 0.1 0.27 0 0 0.275 0 0.02 0.275 0 0.04 0.275 0 0.06 0.275 0 0.08 0.275 0 0.1 0.275 0 0 0.28 0 0.02 0.28 0 0.04 0.28 0 0.06 0.28 0 0.08 0.28 0 0.1 0.28 0 0 0.285 0 0.02 0.285 0 0.04 0.285 0 0.06 0.285 0 0.08 0.285 0 0.1 0.285 0 0 0.29 0 0.02 0.29 0 0.04 0.29 0 0.06 0.29 0 0.08 0.29 0 0.1 0.29 0 0 0.295 0 0.02 0.295 0 0.04 0.295 0 0.06 0.295 0 0.08 0.295 0 0.1 0.295 0 0 0.3 0 0.02 0.3 0 0.04 0.3 0 0.06 0.3 0 0.08 0.3 0 0.1 0.3 0 0 0.305 0 0.02 0.305 0 0.04 0.305 0 0.06 0.305 0 0.08 0.305 0 0.1 0.305 0 0 0.31 0 0.02 0.31 0 0.04 0.31 0 0.06 0.31 0 0.08 0.31 0 0.1 0.31 0 0 0.315 0 0.02 0.315 0 0.04 0.315 0 0.06 0.315 0 0.08 0.315 0 0.1 0.315 0 0 0.32 0 0.02 0.32 0 0.04 0.32 0 0.06 0.32 0 0.08 0.32 0 0.1 0.32 0 0 0.325 0 0.02 0.325 0 0.04 0.325 0 0.06 0.325 0 0.08 0.325 0 0.1 0.325 0 0 0.33 0 0.02 0.33 0 0.04 0.33 0 0.06 0.33 0 0.08 0.33 0 0.1 0.33 0 0 0.335 0 0.02 0.335 0 0.04 0.335 0 0.06 0.335 0 0.08 0.335 0 0.1 0.335 0 0 0.34 0 0.02 0.34 0 0.04 0.34 0 0.06 0.34 0 0.08 0.34 0 0.1 0.34 0 0 0.345 0 0.02 0.345 0 0.04 0.345 0 0.06 0.345 0 0.08 0.345 0 0.1 0.345 0 0 0.35 0 0.02 0.35 0 0.04 0.35 0 0.06 0.35 0 0.08 0.35 0 0.1 0.35 0 0 0.355 0 0.02 0.355 0 0.04 0.355 0 0.06 0.355 0 0.08 0.355 0 0.1 0.355 0 0 0.36 0 0.02 0.36 0 0.04 0.36 0 0.06 0.36 0 0.08 0.36 0 0.1 0.36 0 0 0.365 0 0.02 0.365 0 0.04 0.365 0 0.06 0.365 0 0.08 0.365 0 0.1 0.365 0 0 0.37 0 0.02 0.37 0 0.04 0.37 0 0.06 0.37 0 0.08 0.37 0 0.1 0.37 0 0 0.375 0 0.02 0.375 0 0.04 0.375 0 0.06 0.375 0 0.08 0.375 0 0.1 0.375 0 0 0.38 0 0.02 0.38 0 0.04 0.38 0 0.06 0.38 0 0.08 0.38 0 0.1 0.38 0 0 0.385 0 0.02 0.385 0 0.04 0.385 0 0.06 0.385 0 0.08 0.385 0 0.1 0.385 0 0 0.39 0 0.02 0.39 0 0.04 0.39 0 0.06 0.39 0 0.08 0.39 0 0.1 0.39 0 0 0.395 0 0.02 0.395 0 0.04 0.395 0 0.06 0.395 0 0.08 0.395 0 0.1 0.395 0 0 0.4 0 0.02 0.4 0 0.04 0.4 0 0.06 0.4 0 0.08 0.4 0 0.1 0.4 0 0 0.405 0 0.02 0.405 0 0.04 0.405 0 0.06 0.405 0 0.08 0.405 0 0.1 0.405 0 0 0.41 0 0.02 0.41 0 0.04 0.41 0 0.06 0.41 0 0.08 0.41 0 0.1 0.41 0 0 0.415 0 0.02 0.415 0 0.04 0.415 0 0.06 0.415 0 0.08 0.415 0 0.1 0.415 0 0 0.42 0 0.02 0.42 0 0.04 0.42 0 0.06 0.42 0 0.08 0.42 0 0.1 0.42 0 0 0.425 0 0.02 0.425 0 0.04 0.425 0 0.06 0.425 0 0.08 0.425 0 0.1 0.425 0 0 0.43 0 0.02 0.43 0 0.04 0.43 0 0.06 0.43 0 0.08 0.43 0 0.1 0.43 0 0 0.435 0 0.02 0.435 0 0.04 0.435 0 0.06 0.435 0 0.08 0.435 0 0.1 0.435 0 0 0.44 0 0.02 0.44 0 0.04 0.44 0 0.06 0.44 0 0.08 0.44 0 0.1 0.44 0 0 0.445 0 0.02 0.445 0 0.04 0.445 0 0.06 0.445 0 0.08 0.445 0 0.1 0.445 0 0 0.45 0 0.02 0.45 0 0.04 0.45 0 0.06 0.45 0 0.08 0.45 0 0.1 0.45 0 0 0.455 0 0.02 0.455 0 0.04 0.455 0 0.06 0.455 0 0.08 0.455 0 0.1 0.455 0 0 0.46 0 0.02 0.46 0 0.04 0.46 0 0.06 0.46 0 0.08 0.46 0 0.1 0.46 0 0 0.465 0 0.02 0.465 0 0.04 0.465 0 0.06 0.465 0 0.08 0.465 0 0.1 0.465 0 0 0.47 0 0.02 0.47 0 0.04 0.47 0 0.06 0.47 0 0.08 0.47 0 0.1 0.47 0 0 0.475 0 0.02 0.475 0 0.04 0.475 0 0.06 0.475 0 0.08 0.475 0 0.1 0.475 0 0 0.48 0 0.02 0.48 0 0.04 0.48 0 0.06 0.48 0 0.08 0.48 0 0.1 0.48 0 0 0.485 0 0.02 0.485 0 0.04 0.485 0 0.06 0.485 0 0.08 0.485 0 0.1 0.485 0 0 0.49 0 0.02 0.49 0 0.04 0.49 0 0.06 0.49 0 0.08 0.49 0 0.1 0.49 0 0 0.495 0 0.02 0.495 0 0.04 0.495 0 0.06 0.495 0 0.08 0.495 0 0.1 0.495 0 0 0.5 0 0.02 0.5 0 0.04 0.5 0 0.06 0.5 0 0.08 0.5 0 0.1 0.5 0 0 0.505 0 0.02 0.505 0 0.04 0.505 0 0.06 0.505 0 0.08 0.505 0 0.1 0.505 0 0 0.51 0 0.02 0.51 0 0.04 0.51 0 0.06 0.51 0 0.08 0.51 0 0.1 0.51 0 0 0.515 0 0.02 0.515 0 0.04 0.515 0 0.06 0.515 0 0.08 0.515 0 0.1 0.515 0 0 0.52 0 0.02 0.52 0 0.04 0.52 0 0.06 0.52 0 0.08 0.52 0 0.1 0.52 0 0 0.525 0 0.02 0.525 0 0.04 0.525 0 0.06 0.525 0 0.08 0.525 0 0.1 0.525 0 0 0.53 0 0.02 0.53 0 0.04 0.53 0 0.06 0.53 0 0.08 0.53 0 0.1 0.53 0 0 0.535 0 0.02 0.535 0 0.04 0.535 0 0.06 0.535 0 0.08 0.535 0 0.1 0.535 0 0 0.54 0 0.02 0.54 0 0.04 0.54 0 0.06 0.54 0 0.08 0.54 0 0.1 0.54 0 0 0.545 0 0.02 0.545 0 0.04 0.545 0 0.06 0.545 0 0.08 0.545 0 0.1 0.545 0 0 0.55 0 0.02 0.55 0 0.04 0.55 0 0.06 0.55 0 0.08 0.55 0 0.1 0.55 0 0 0.555 0 0.02 0.555 0 0.04 0.555 0 0.06 0.555 0 0.08 0.555 0 0.1 0.555 0 0 0.56 0 0.02 0.56 0 0.04 0.56 0 0.06 0.56 0 0.08 0.56 0 0.1 0.56 0 0 0.565 0 0.02 0.565 0 0.04 0.565 0 0.06 0.565 0 0.08 0.565 0 0.1 0.565 0 0 0.57 0 0.02 0.57 0 0.04 0.57 0 0.06 0.57 0 0.08 0.57 0 0.1 0.57 0 0 0.575 0 0.02 0.575 0 0.04 0.575 0 0.06 0.575 0 0.08 0.575 0 0.1 0.575 0 0 0.58 0 0.02 0.58 0 0.04 0.58 0 0.06 0.58 0 0.08 0.58 0 0.1 0.58 0 0 0.585 0 0.02 0.585 0 0.04 0.585 0 0.06 0.585 0 0.08 0.585 0 0.1 0.585 0 0 0.59 0 0.02 0.59 0 0.04 0.59 0 0.06 0.59 0 0.08 0.59 0 0.1 0.59 0 0 0.595 0 0.02 0.595 0 0.04 0.595 0 0.06 0.595 0 0.08 0.595 0 0.1 0.595 0 0 0.6 0 0.02 0.6 0 0.04 0.6 0 0.06 0.6 0 0.08 0.6 0 0.1 0.6 0 0 0.605 0 0.02 0.605 0 0.04 0.605 0 0.06 0.605 0 0.08 0.605 0 0.1 0.605 0 0 0.61 0 0.02 0.61 0 0.04 0.61 0 0.06 0.61 0 0.08 0.61 0 0.1 0.61 0 0 0.615 0 0.02 0.615 0 0.04 0.615 0 0.06 0.615 0 0.08 0.615 0 0.1 0.615 0 0 0.62 0 0.02 0.62 0 0.04 0.62 0 0.06 0.62 0 0.08 0.62 0 0.1 0.62 0 0 0.625 0 0.02 0.625 0 0.04 0.625 0 0.06 0.625 0 0.08 0.625 0 0.1 0.625 0 0 0.63 0 0.02 0.63 0 0.04 0.63 0 0.06 0.63 0 0.08 0.63 0 0.1 0.63 0 0 0.635 0 0.02 0.635 0 0.04 0.635 0 0.06 0.635 0 0.08 0.635 0 0.1 0.635 0 0 0.64 0 0.02 0.64 0 0.04 0.64 0 0.06 0.64 0 0.08 0.64 0 0.1 0.64 0 0 0.645 0 0.02 0.645 0 0.04 0.645 0 0.06 0.645 0 0.08 0.645 0 0.1 0.645 0 0 0.65 0 0.02 0.65 0 0.04 0.65 0 0.06 0.65 0 0.08 0.65 0 0.1 0.65 0 0 0.655 0 0.02 0.655 0 0.04 0.655 0 0.06 0.655 0 0.08 0.655 0 0.1 0.655 0 0 0.66 0 0.02 0.66 0 0.04 0.66 0 0.06 0.66 0 0.08 0.66 0 0.1 0.66 0 0 0.665 0 0.02 0.665 0 0.04 0.665 0 0.06 0.665 0 0.08 0.665 0 0.1 0.665 0 0 0.67 0 0.02 0.67 0 0.04 0.67 0 0.06 0.67 0 0.08 0.67 0 0.1 0.67 0 0 0.675 0 0.02 0.675 0 0.04 0.675 0 0.06 0.675 0 0.08 0.675 0 0.1 0.675 0 0 0.68 0 0.02 0.68 0 0.04 0.68 0 0.06 0.68 0 0.08 0.68 0 0.1 0.68 0 0 0.685 0 0.02 0.685 0 0.04 0.685 0 0.06 0.685 0 0.08 0.685 0 0.1 0.685 0 0 0.69 0 0.02 0.69 0 0.04 0.69 0 0.06 0.69 0 0.08 0.69 0 0.1 
[...]
			<PointData Scalars="VitesseX">
				<DataArray Name="VitesseX" type="Float32" format="ascii">
 0 4.70901e-15 -3.63757e-14 2.39414e-15 8.60497e-15 0 0 1.65922e-15 -3.29977e-14 -5.70524e-15 1.70821e-14 0 0 -2.51466e-14 2.57658e-15 -3.16377e-14 3.15697e-14 0 0 1.18621e-14 -3.83001e-14 1.64361e-15 1.46327e-14 0 0 1.09702e-14 -2.73137e-14 -2.5505e-14 3.3562e-14 0 0 -5.60415e-14 3.49899e-14 -6.72558e-14 4.44738e-14 0 0 -3.13708e-14 -5.00912e-14 4.83542e-14 -5.26659e-14 0 0 2.79126e-14 -1.24993e-13 1.23634e-13 -1.40462e-13 0 0 9.70109e-15 -7.34197e-14 3.60303e-14 -8.06798e-14 0 0 -4.99659e-14 3.53773e-14 -1.20208e-13 5.5893e-14 0 0 3.10517e-15 -4.07883e-14 -9.40387e-14 6.82489e-14 0 0 -4.84907e-14 -1.74679e-14 -9.30456e-14 2.06606e-14 0 0 3.18032e-14 -1.31654e-13 2.72656e-14 -9.64474e-14 0 0 -2.74284e-14 -6.12135e-14 -5.07067e-15 -7.82592e-14 0 0 -1.04935e-13 7.44263e-15 -7.69386e-14 -1.23039e-14 0 0 4.77025e-14 -2.31316e-13 9.83219e-14 -7.89127e-14 0 0 -1.29046e-13 2.33537e-14 -6.18743e-14 1.01196e-14 0 0 -7.69104e-14 4.0242e-15 -7.70603e-14 1.09671e-13 0 0 -5.74944e-14 9.64482e-15 -1.38714e-13 2.13936e-13 0 0 -9.79585e-14 3.55644e-14 -1.17477e-13 1.3207e-13 0 0 6.69863e-14 -2.28197e-13 1.4771e-13 -1.15092e-13 0 0 4.07838e-14 -2.02788e-13 9.87964e-14 -1.17292e-13 0 0 -9.15366e-14 1.99323e-14 -1.91808e-13 3.31157e-14 0 0 -1.61168e-13 1.33579e-13 -3.0967e-13 5.48369e-14 0 0 1.24417e-14 -1.72694e-13 2.87008e-14 -1.83847e-13 0 0 1.98995e-13 -4.48099e-13 2.77441e-13 -3.57668e-13 0 0 1.00664e-14 -1.1596e-13 -7.28996e-14 -1.28113e-13 0 0 -1.37815e-13 1.82382e-13 -3.91614e-13 1.20924e-13 0 0 -2.79299e-14 3.15763e-14 -2.41861e-13 2.68646e-14 0 0 1.07039e-13 -2.40635e-13 7.49654e-14 -1.84945e-13 0 0 1.90182e-15 -1.64011e-13 5.01672e-14 -1.4749e-13 0 0 9.54298e-15 -1.82002e-13 4.55582e-14 -1.45057e-13 0 0 2.03689e-14 -1.45175e-13 -2.59955e-14 -1.03622e-13 0 0 -2.10215e-13 2.07275e-13 -3.54473e-13 1.03089e-13 0 0 -2.58659e-17 -1.60361e-13 1.40773e-15 -1.1537e-13 0 0 1.02832e-13 -4.02921e-13 2.39445e-13 -2.18044e-13 0 0 1.18691e-13 -3.63546e-13 8.25557e-14 8.8829e-14 0 0 -1.38463e-13 1.29726e-13 -3.82853e-13 5.0072e-13 0 0 -1.3415e-13 1.23603e-13 -3.83269e-13 5.21522e-13 0 0 4.68123e-14 -2.19188e-13 -8.3116e-14 2.62183e-13 0 0 2.12038e-15 -2.00966e-13 8.01244e-15 4.84133e-15 0 0 6.93865e-14 -2.99765e-13 1.58379e-13 -2.23679e-13 0 0 -1.5819e-13 3.90196e-14 -1.28414e-13 -9.5468e-14 0 0 -5.25045e-14 -1.25184e-13 2.98226e-14 -2.14855e-13 0 0 2.34352e-13 -5.37873e-13 3.38174e-13 -3.83234e-13 0 0 -5.49278e-14 -6.23986e-14 -2.16101e-13 4.16487e-14 0 0 1.94895e-14 -3.36078e-14 -4.72824e-13 3.56379e-13 0 0 -2.07022e-14 -2.45287e-15 -4.8501e-13 3.30405e-13 0 0 -1.6595e-13 8.17852e-15 -2.93531e-13 3.65693e-14 0 0 1.44149e-13 -5.83853e-13 2.8121e-13 -3.49118e-13 0 0 1.41365e-13 -7.13047e-13 4.19802e-13 -3.92827e-13 0 0 1.97863e-13 -7.36575e-13 2.13993e-13 -1.13559e-14 0 0 -3.81531e-13 2.05058e-13 -6.72157e-13 6.26565e-13 0 0 -1.62696e-13 -2.95047e-14 -3.5958e-13 3.02937e-13 0 0 1.92922e-13 -7.06828e-13 2.86007e-13 -9.61889e-14 0 0 -3.3245e-13 -1.7916e-13 -1.17934e-13 1.80624e-13 0 0 1.188e-13 -5.73994e-13 2.13767e-13 -1.82941e-13 0 0 2.74574e-14 -3.19571e-13 5.99139e-14 -2.27452e-13 0 0 1.05797e-13 -3.69317e-13 1.03046e-13 -2.18318e-13 0 0 3.41208e-13 -6.82659e-13 3.07114e-13 -2.00638e-13 0 0 -1.87517e-13 -1.16212e-13 -2.21766e-13 3.3641e-13 0 0 -2.71173e-13 -4.42935e-14 -2.91746e-13 4.13452e-13 0 0 -2.18594e-13 -1.60037e-13 -5.72248e-14 1.45566e-13 0 0 1.15395e-13 -5.54004e-13 5.30345e-13 -4.85029e-13 0 0 8.20177e-14 -4.45302e-13 4.54395e-13 -4.95495e-13 0 0 -2.58994e-13 8.06664e-15 -1.65385e-13 7.51276e-14 0 0 -2.11655e-13 2.34247e-15 -3.33802e-13 2.54707e-13 0 0 -2.19809e-13 1.38333e-14 -3.02676e-13 2.04328e-13 0 0 1.59748e-13 -4.42685e-13 2.21429e-13 -2.8186e-13 0 0 2.25972e-13 -4.97734e-13 3.20668e-14 -1.98435e-14 0 0 -4.82129e-13 3.17856e-13 -7.61347e-13 6.02316e-13 0 0 -6.08688e-14 -2.90642e-13 -8.88075e-14 7.74279e-14 0 0 1.35002e-13 -7.22746e-13 3.32667e-13 -4.39132e-14 0 0 1.2378e-13 -7.95372e-13 4.05701e-13 2.47346e-13 0 0 -1.59585e-13 -2.44449e-13 -2.19226e-13 8.55707e-13 0 0 -5.12316e-13 1.60538e-13 -7.8379e-13 1.33475e-12 0 0 1.11458e-13 -8.57706e-13 2.38342e-13 3.42307e-13 0 0 -1.11313e-13 -6.77962e-13 3.66338e-13 -2.83616e-13 0 0 1.04722e-16 -6.8474e-13 3.20283e-13 -4.89839e-13 0 0 -3.17876e-13 -8.8051e-14 -1.95627e-13 -2.91701e-13 0 0 -2.53063e-13 -3.54404e-13 -2.07846e-13 1.08924e-13 0 0 2.6275e-13 -9.71689e-13 -2.42486e-13 1.62929e-13 0 0 -6.2407e-13 4.40615e-13 -1.37394e-12 3.4758e-13 0 0 -2.18248e-13 -1.31667e-13 -5.44951e-13 -2.06548e-13 0 0 5.7196e-13 -1.48531e-12 7.95341e-13 -8.45722e-13 0 0 -3.71398e-13 -1.71804e-13 -2.28394e-13 -5.25151e-13 0 0 -7.00905e-13 6.38054e-13 -1.22688e-12 -1.56829e-13 0 0 2.55018e-14 -4.8201e-13 -2.97326e-13 -5.41219e-13 0 0 -7.34094e-15 -5.62091e-13 8.73331e-14 -9.77763e-13 0 0 2.43434e-13 -7.4378e-13 1.66676e-13 -8.86874e-13 0 0 -1.27446e-13 1.02743e-13 -6.37293e-13 -2.99879e-13 0 0 -4.48667e-13 7.48733e-13 -1.32447e-12 -4.02344e-14 0 0 1.58903e-13 -5.29353e-13 -1.20627e-13 -4.26664e-13 0 0 7.59895e-14 -6.45283e-13 2.85283e-13 -8.20515e-13 0 0 3.88777e-13 -8.86683e-13 2.278e-14 -4.17589e-13 0 0 -7.59407e-13 6.96844e-13 -1.30863e-12 3.37078e-13 0 0 3.85014e-14 -1.49761e-13 -5.17131e-13 -1.28676e-13 0 0 3.79853e-13 -8.24534e-13 1.71646e-13 -3.76791e-13 0 0 -3.56463e-13 -2.92404e-13 4.42836e-13 -7.85992e-13 0 0 3.05272e-13 -7.83538e-13 2.85904e-13 -2.08277e-13 0 0 7.90381e-14 -4.65432e-13 -2.11487e-13 2.84766e-13 0 0 -3.18085e-13 -1.28948e-13 -4.88202e-13 2.27713e-13 0 0 -3.21505e-13 -2.88762e-13 -1.88566e-13 -1.12223e-13 0 0 -2.62773e-13 -4.57596e-13 -3.50702e-14 -1.98322e-13 0 0 -1.54343e-13 -3.62042e-13 -1.71725e-13 -1.24419e-13 0 0 -5.2514e-13 2.96289e-13 -8.52536e-13 3.07313e-13 0 0 -2.90351e-13 -8.73645e-14 -4.76821e-13 1.75058e-13 0 0 2.36734e-13 -9.41023e-13 5.13384e-13 -6.09131e-13 0 0 3.16858e-13 -1.01829e-12 5.37444e-13 -6.43445e-13 0 0 -1.76809e-13 -5.99825e-14 -6.53266e-13 1.42591e-13 0 0 -7.25374e-13 8.92441e-13 -1.60122e-12 5.67538e-13 0 0 -1.58924e-13 -1.74486e-13 -4.92627e-13 -6.86704e-14 0 0 3.55607e-13 -1.02456e-12 4.98094e-13 -9.54709e-13 0 0 3.03228e-13 -8.84878e-13 4.07785e-13 -1.06034e-12 0 0 -2.71756e-13 7.77659e-14 -5.53191e-13 -3.90229e-13 0 0 -7.30587e-13 6.97131e-13 -1.09864e-12 -2.80868e-14 0 0 -2.48868e-13 -3.31249e-13 -1.06073e-13 -4.01235e-13 0 0 4.22862e-13 -1.20708e-12 6.8798e-13 -1.05867e-12 0 0 -1.40825e-13 -2.65934e-13 -2.79791e-13 -5.34189e-13 0 0 -1.65788e-13 -4.07738e-13 -3.92455e-13 7.11887e-14 0 0 -3.47619e-13 -2.36808e-13 -5.08503e-13 1.00461e-13 0 0 -5.67938e-13 -1.95644e-13 -3.90352e-13 2.73564e-14 0 0 4.21596e-13 -1.51166e-12 6.78806e-13 -7.18818e-13 0 0 -3.25325e-13 -9.0409e-14 -7.12588e-13 -2.00873e-13 0 0 -2.93602e-13 -2.14731e-13 -7.17139e-13 2.69943e-13 0 0 -3.2438e-13 -2.5401e-13 -4.49058e-13 6.71539e-15 0 0 -5.8768e-13 -2.16719e-13 -2.55801e-13 -1.52749e-13 0 0 4.58182e-13 -1.68229e-12 9.18074e-13 -8.41145e-13 0 0 -2.29269e-13 -3.66393e-13 -3.78865e-13 -2.897e-13 0 0 -3.00458e-13 -2.99e-13 -5.80127e-13 2.314e-13 0 0 -2.86316e-13 -3.57231e-13 -3.70075e-13 -3.576e-14 0 0 -5.32284e-13 -3.37387e-13 -1.62444e-13 -2.14927e-13 0 0 3.69864e-13 -1.57853e-12 9.42666e-13 -9.898e-13 0 0 -2.80732e-13 -2.79112e-13 -2.63071e-13 -5.77068e-13 0 0 -2.51815e-13 -3.26136e-13 -5.32789e-13 1.45147e-13 0 0 -2.69709e-13 -2.92488e-13 -5.07159e-13 8.30057e-14 0 0 -4.82574e-13 -2.33077e-13 -4.23072e-13 -2.78336e-14 0 0 4.03422e-13 -1.41594e-12 5.18964e-13 -6.13912e-13 0 0 -1.75753e-13 -1.16947e-13 -6.29221e-13 -4.05552e-13 0 0 -2.52546e-13 -5.86875e-14 -6.4724e-13 -1.88661e-13 0 0 -2.60127e-14 -6.11736e-13 -3.03135e-13 -1.29339e-13 0 0 -7.30068e-13 4.87116e-13 -1.44992e-12 2.66139e-13 0 0 3.76476e-13 -1.00279e-12 8.14573e-14 -8.53741e-13 0 0 6.23515e-13 -1.53201e-12 4.98001e-13 -8.7576e-13 0 0 -8.27717e-13 4.87454e-13 -1.69804e-12 5.36509e-13 0 0 -3.14546e-13 -3.93506e-13 -1.06962e-12 4.13199e-13 0 0 -4.56265e-13 -4.24315e-13 -6.8479e-13 -1.85118e-14 0 0 1.14878e-13 -1.05979e-12 1.85945e-13 -7.83741e-13 0 0 5.07364e-13 -1.55952e-12 4.38526e-13 -4.27602e-13 0 0 -8.81828e-13 5.01419e-13 -1.96911e-12 1.58983e-12 0 0 -2.69402e-13 -4.58829e-13 -1.28601e-12 1.5828e-12 0 0 -3.58505e-13 -6.13979e-13 -5.3001e-13 2.85145e-13 0 0 1.7706e-13 -1.12398e-12 2.4966e-13 -1.24316e-12 0 0 1.63958e-13 -1.08173e-12 1.66282e-13 -1.35598e-12 0 0 -4.40644e-13 -4.3471e-13 -6.13471e-13 -4.20024e-13 0 0 -4.63075e-13 -2.40603e-13 -6.63069e-13 -3.98451e-13 0 0 -5.27445e-13 -2.5731e-13 -3.35299e-13 -4.98512e-13 0 0 3.71432e-13 -1.43561e-12 5.90686e-13 -7.62499e-13 0 0 -1.06262e-13 -3.26603e-13 -8.18928e-13 7.08766e-14 0 0 -5.06559e-13 5.29345e-13 -2.23291e-12 1.17026e-12 0 0 -6.36756e-13 6.57136e-13 -2.11349e-12 6.63164e-13 0 0 -1.34558e-14 -1.13644e-12 4.69143e-13 -1.01115e-12 0 0 7.08396e-13 -2.50415e-12 2.01725e-12 -2.32341e-12 0 0 -1.38635e-13 -7.11083e-13 -3.01889e-13 -1.2305e-12 0 0 -7.24548e-13 7.16248e-13 -2.37532e-12 5.72773e-13 0 0 -5.88054e-13 6.50664e-13 -2.13525e-12 3.35509e-13 0 0 1.00796e-13 -9.647e-13 -2.29108e-13 -8.62747e-13 0 0 5.67989e-13 -1.97051e-12 9.24754e-13 -2.40775e-12 0 0 -3.66976e-13 -5.31767e-13 -1.74978e-13 -2.59286e-12 0 0 -3.44639e-14 -1.06973e-12 3.37095e-13 -1.99651e-12 0 0 1.60357e-13 -1.19566e-12 3.03232e-13 -1.39498e-12 0 0 -9.00671e-13 5.991e-13 -1.82088e-12 -3.69267e-14 0 0 -4.06075e-14 -5.75414e-13 -1.18143e-12 -3.00454e-13 0 0 -1.31911e-13 -7.32833e-13 -4.65397e-13 -9.31369e-13 0 0 -9.2932e-14 -1.0991e-12 3.79752e-13 -1.05011e-12 0 0 7.49747e-14 -1.02571e-12 -4.53929e-15 -7.95663e-13 0 0 -8.14897e-13 5.93454e-13 -1.97903e-12 1.3671e-13 0 0 4.87123e-14 -6.31199e-13 -1.18316e-12 -1.50343e-13 0 0 -8.85388e-14 -7.36451e-13 -4.64478e-13 -9.78446e-13 0 0 -5.42299e-14 -1.14797e-12 4.70112e-13 -1.25494e-12 0 0 1.7464e-13 -1.23139e-12 2.12072e-13 -7.79848e-13 0 0 -8.23077e-13 5.2443e-13 -2.02248e-12 3.53716e-13 0 0 -6.08973e-14 -5.64317e-13 -1.40895e-12 -1.33569e-14 0 0 -1.51602e-13 -7.56562e-13 -5.61533e-13 -7.70686e-13 0 0 -1.00607e-13 -1.08945e-12 2.4104e-13 -8.5965e-13 0 0 1.28992e-13 -1.11704e-12 -1.35148e-13 -4.8836e-13 0 0 -9.15741e-13 6.65373e-13 -2.22512e-12 5.66676e-13 0 0 -3.98538e-14 -5.65098e-13 -1.31564e-12 1.50486e-13 0 0 -8.31336e-14 -7.67706e-13 -5.77626e-13 -5.66023e-13 0 0 1.57385e-13 -1.35108e-12 1.77043e-13 -8.53307e-13 0 0 4.70233e-13 -1.27045e-12 -8.23293e-13 -3.78885e-13 0 0 -1.26599e-12 1.3376e-12 -3.4295e-12 6.56346e-13 0 0 6.38942e-13 -1.72644e-12 1.77644e-13 -1.28895e-12 0 0 1.29336e-12 -2.96494e-12 1.7998e-12 -1.9715e-12 0 0 -7.74068e-13 6.13289e-14 -1.63631e-12 3.34097e-13 0 0 -8.44048e-13 4.56699e-13 -2.94796e-12 1.63019e-12 0 0 -1.27736e-12 7.32162e-13 -2.86193e-12 1.61236e-12 0 0 5.5842e-13 -2.27073e-12 8.6229e-13 -7.78295e-13 0 0 7.81856e-13 -2.66688e-12 1.37805e-12 -1.11762e-12 0 0 -9.93479e-13 2.87363e-13 -2.42172e-12 1.35627e-12 0 0 -7.64722e-13 3.41652e-13 -3.28392e-12 2.17997e-12 0
				</DataArray>
				<DataArray Name="VitesseY" type="Float32" format="ascii">