<?xml version="1.0"?>
<VTKFile type="PolyData">
	<PolyData>
		<Piece NumberOfPoints="1206" NumberOfPolys="1000">
			<Points>
				<DataArray type="Float32" NumberOfComponents="3" format="ascii">
 0 0 0 0.02 0 0 0.04 0 0 0.06 0 0 0.08 0 0 0.1 0 0 0 0.005 0 0.02 0.005 0 0.04 0.005 0 0.06 0.005 0 0.08 0.005 0 0.1 0.005 0 0 0.01 0 0.02 0.01 0 0.04 0.01 0 0.06 0.01 0 0.08 0.01 0 0.1 0.01 0 0 0.015 0 0.02 0.015 0 0.04 0.015 0 0.06 0.015 0 0.08 0.015 0 0.1 0.015 0 0 0.02 0 0.02 0.02 0 0.04 0.02 0 0.06 0.02 0 0.08 0.02 0 0.1 0.02 0 0 0.025 0 0.02 0.025 0 0.04 0.025 0 0.06 0.025 0 0.08 0.025 0 0.1 0.025 0 0 0.03 0 0.02 0.03 0 0.04 0.03 0 0.06 0.03 0 0.08 0.03 0 0.1 0.03 0 0 0.035 0 0.02 0.035 0 0.04 0.035 0 0.06 0.035 0 0.08 0.035 0 0.1 0.035 0 0 0.04 0 0.02 0.04 0 0.04 0.04 0 0.06 0.04 0 0.08 0.04 0 0.1 0.04 0 0 0.045 0 0.02 0.045 0 0.04 0.045 0 0.06 0.045 0 0.08 0.045 0 0.1 0.045 0 0 0.05 0 0.02 0.05 0 0.04 0.05 0 0.06 0.05 0 0.08 0.05 0 0.1 0.05 0 0 0.055 0 0.02 0.055 0 0.04 0.055 0 0.06 0.055 0 0.08 0.055 0 0.1 0.055 0 0 0.06 0 0.02 0.06 0 0.04 0.06 0 0.06 0.06 0 0.08 0.06 0 0.1 0.06 0 0 0.065 0 0.02 0.065 0 0.04 0.065 0 0.06 0.065 0 0.08 0.065 0 0.1 0.065 0 0 0.07 0 0.02 0.07 0 0.04 0.07 0 0.06 0.07 0 0.08 0.07 0 0.1 0.07 0 0 0.075 0 0.02 0.075 0 0.04 0.075 0 0.06 0.075 0 0.08 0.075 0 0.1 0.075 0 0 0.08 0 0.02 0.08 0 0.04 0.08 0 0.06 0.08 0 0.08 0.08 0 0.1 0.08 0 0 0.085 0 0.02 0.085 0 0.04 0.085 0 0.06 0.085 0 0.08 0.085 0 0.1 0.085 0 0 0.09 0 0.02 0.09 0 0.04 0.09 0 0.06 0.09 0 0.08 0.09 0 0.1 0.09 0 0 0.095 0 0.02 0.095 0 0.04 0.095 0 0.06 0.095 0 0.08 0.095 0 0.1 0.095 0 0 0.1 0 0.02 0.1 0 0.04 0.1 0 0.06 0.1 0 0.08 0.1 0 0.1 0.1 0 0 0.105 0 0.02 0.105 0 0.04 0.105 0 0.06 0.105 0 0.08 0.105 0 0.1 0.105 0 0 0.11 0 0.02 0.11 0 0.04 0.11 0 0.06 0.11 0 0.08 0.11 0 0.1 0.11 0 0 0.115 0 0.02 0.115 0 0.04 0.115 0 0.06 0.115 0 0.08 0.115 0 0.1 0.115 0 0 0.12 0 0.02 0.12 0 0.04 0.12 0 0.06 0.12 0 0.08 0.12 0 0.1 0.12 0 0 0.125 0 0.02 0.125 0 0.04 0.125 0 0.06 0.125 0 0.08 0.125 0 0.1 0.125 0 0 0.13 0 0.02 0.13 0 0.04 0.13 0 0.06 0.13 0 0.08 0.13 0 0.1 0.13 0 0 0.135 0 0.02 0.135 0 0.04 0.135 0 0.06 0.135 0 0.08 0.135 0 0.1 0.135 0 0 0.14 0 0.02 0.14 0 0.04 0.14 0 0.06 0.14 0 0.08 0.14 0 0.1 0.14 0 0 0.145 0 0.02 0.145 0 0.04 0.145 0 0.06 0.145 0 0.08 0.145 0 0.1 0.145 0 0 0.15 0 0.02 0.15 0 0.04 0.15 0 0.06 0.15 0 0.08 0.15 0 0.1 0.15 0 0 0.155 0 0.02 0.155 0 0.04 0.155 0 0.06 0.155 0 0.08 0.155 0 0.1 0.155 0 0 0.16 0 0.02 0.16 0 0.04 0.16 0 0.06 0.16 0 0.08 0.16 0 0.1 0.16 0 0 0.165 0 0.02 0.165 0 0.04 0.165 0 0.06 0.165 0 0.08 0.165 0 0.1 0.165 0 0 0.17 0 0.02 0.17 0 0.04 0.17 0 0.06 0.17 0 0.08 0.17 0 0.1 0.17 0 0 0.175 0 0.02 0.175 0 0.04 0.175 0 0.06 0.175 0 0.08 0.175 0 0.1 0.175 0 0 0.18 0 0.02 0.18 0 0.04 0.18 0 0.06 0.18 0 0.08 0.18 0 0.1 0.18 0 0 0.185 0 0.02 0.185 0 0.04 0.185 0 0.06 0.185 0 0.08 0.185 0 0.1 0.185 0 0 0.19 0 0.02 0.19 0 0.04 0.19 0 0.06 0.19 0 0.08 0.19 0 0.1 0.19 0 0 0.195 0 0.02 0.195 0 0.04 0.195 0 0.06 0.195 0 0.08 0.195 0 0.1 0.195 0 0 0.2 0 0.02 0.2 0 0.04 0.2 0 0.06 0.2 0 0.08 0.2 0 0.1 0.2 0 0 0.205 0 0.02 0.205 0 0.04 0.205 0 0.06 0.205 0 0.08 0.205 0 0.1 0.205 0 0 0.21 0 0.02 0.21 0 0.04 0.21 0 0.06 0.21 0 0.08 0.21 0 0.1 0.21 0 0 0.215 0 0.02 0.215 0 0.04 0.215 0 0.06 0.215 0 0.08 0.215 0 0.1 0.215 0 0 0.22 0 0.02 0.22 0 0.04 0.22 0 0.06 0.22 0 0.08 0.22 0 0.1 0.22 0 0 0.225 0 0.02 0.225 0 0.04 0.225 0 0.06 0.225 0 0.08 0.225 0 0.1 0.225 0 0 0.23 0 0.02 0.23 0 0.04 0.23 0 0.06 0.23 0 0.08 0.23 0 0.1 0.23 0 0 0.235 0 0.02 0.235 0 0.04 0.235 0 0.06 0.235 0 0.08 0.235 0 0.1 0.235 0 0 0.24 0 0.02 0.24 0 0.04 0.24 0 0.06 0.24 0 0.08 0.24 0 0.1 0.24 0 0 0.245 0 0.02 0.245 0 0.04 0.245 0 0.06 0.245 0 0.08 0.245 0 0.1 0.245 0 0 0.25 0 0.02 0.25 0 0.04 0.25 0 0.06 0.25 0 0.08 0.25 0 0.1 0.25 0 0 0.255 0 0.02 0.255 0 0.04 0.255 0 0.06 0.255 0 0.08 0.255 0 0.1 0.255 0 0 0.26 0 0.02 0.26 0 0.04 0.26 0 0.06 0.26 0 0.08 0.26 0 0.1 0.26 0 0 0.265 0 0.02 0.265 0 0.04 0.265 0 0.06 0.265 0 0.08 0.265 0 0.1 0.265 0 0 0.27 0 0.02 0.27 0 0.04 0.27 0 0.06 0.27 0 0.08 0.27 0 0.1 0.27 0 0 0.275 0 0.02 0.275 0 0.04 0.275 0 0.06 0.275 0 0.08 0.275 0 0.1 0.275 0 0 0.28 0 0.02 0.28 0 0.04 0.28 0 0.06 0.28 0 0.08 0.28 0 0.1 0.28 0 0 0.285 0 0.02 0.285 0 0.04 0.285 0 0.06 0.285 0 0.08 0.285 0 0.1 0.285 0 0 0.29 0 0.02 0.29 0 0.04 0.29 0 0.06 0.29 0 0.08 0.29 0 0.1 0.29 0 0 0.295 0 0.02 0.295 0 0.04 0.295 0 0.06 0.295 0 0.08 0.295 0 0.1 0.295 0 0 0.3 0 0.02 0.3 0 0.04 0.3 0 0.06 0.3 0 0.08 0.3 0 0.1 0.3 0 0 0.305 0 0.02 0.305 0 0.04 0.305 0 0.06 0.305 0 0.08 0.305 0 0.1 0.305 0 0 0.31 0 0.02 0.31 0 0.04 0.31 0 0.06 0.31 0 0.08 0.31 0 0.1 0.31 0 0 0.315 0 0.02 0.315 0 0.04 0.315 0 0.06 0.315 0 0.08 0.315 0 0.1 0.315 0 0 0.32 0 0.02 0.32 0 0.04 0.32 0 0.06 0.32 0 0.08 0.32 0 0.1 0.32 0 0 0.325 0 0.02 0.325 0 0.04 0.325 0 0.06 0.325 0 0.08 0.325 0 0.1 0.325 0 0 0.33 0 0.02 0.33 0 0.04 0.33 0 0.06 0.33 0 0.08 0.33 0 0.1 0.33 0 0 0.335 0 0.02 0.335 0 0.04 0.335 0 0.06 0.335 0 0.08 0.335 0 0.1 0.335 0 0 0.34 0 0.02 0.34 0 0.04 0.34 0 0.06 0.34 0 0.08 0.34 0 0.1 0.34 0 0 0.345 0 0.02 0.345 0 0.04 0.345 0 0.06 0.345 0 0.08 0.345 0 0.1 0.345 0 0 0.35 0 0.02 0.35 0 0.04 0.35 0 0.06 0.35 0 0.08 0.35 0 0.1 0.35 0 0 0.355 0 0.02 0.355 0 0.04 0.355 0 0.06 0.355 0 0.08 0.355 0 0.1 0.355 0 0 0.36 0 0.02 0.36 0 0.04 0.36 0 0.06 0.36 0 0.08 0.36 0 0.1 0.36 0 0 0.365 0 0.02 0.365 0 0.04 0.365 0 0.06 0.365 0 0.08 0.365 0 0.1 0.365 0 0 0.37 0 0.02 0.37 0 0.04 0.37 0 0.06 0.37 0 0.08 0.37 0 0.1 0.37 0 0 0.375 0 0.02 0.375 0 0.04 0.375 0 0.06 0.375 0 0.08 0.375 0 0.1 0.375 0 0 0.38 0 0.02 0.38 0 0.04 0.38 0 0.06 0.38 0 0.08 0.38 0 0.1 0.38 0 0 0.385 0 0.02 0.385 0 0.04 0.385 0 0.06 0.385 0 0.08 0.385 0 0.1 0.385 0 0 0.39 0 0.02 0.39 0 0.04 0.39 0 0.06 0.39 0 0.08 0.39 0 0.1 0.39 0 0 0.395 0 0.02 0.395 0 0.04 0.395 0 0.06 0.395 0 0.08 0.395 0 0.1 0.395 0 0 0.4 0 0.02 0.4 0 0.04 0.4 0 0.06 0.4 0 0.08 0.4 0 0.1 0.4 0 0 0.405 0 0.02 0.405 0 0.04 0.405 0 0.06 0.405 0 0.08 0.405 0 0.1 0.405 0 0 0.41 0 0.02 0.41 0 0.04 0.41 0 0.06 0.41 0 0.08 0.41 0 0.1 0.41 0 0 0.415 0 0.02 0.415 0 0.04 0.415 0 0.06 0.415 0 0.08 0.415 0 0.1 0.415 0 0 0.42 0 0.02 0.42 0 0.04 0.42 0 0.06 0.42 0 0.08 0.42 0 0.1 0.42 0 0 0.425 0 0.02 0.425 0 0.04 0.425 0 0.06 0.425 0 0.08 0.425 0 0.1 0.425 0 0 0.43 0 0.02 0.43 0 0.04 0.43 0 0.06 0.43 0 0.08 0.43 0 0.1 0.43 0 0 0.435 0 0.02 0.435 0 0.04 0.435 0 0.06 0.435 0 0.08 0.435 0 0.1 0.435 0 0 0.44 0 0.02 0.44 0 0.04 0.44 0 0.06 0.44 0 0.08 0.44 0 0.1 0.44 0 0 0.445 0 0.02 0.445 0 0.04 0.445 0 0.06 0.445 0 0.08 0.445 0 0.1 0.445 0 0 0.45 0 0.02 0.45 0 0.04 0.45 0 0.06 0.45 0 0.08 0.45 0 0.1 0.45 0 0 0.455 0 0.02 0.455 0 0.04 0.455 0 0.06 0.455 0 0.08 0.455 0 0.1 0.455 0 0 0.46 0 0.02 0.46 0 0.04 0.46 0 0.06 0.46 0 0.08 0.46 0 0.1 0.46 0 0 0.465 0 0.02 0.465 0 0.04 0.465 0 0.06 0.465 0 0.08 0.465 0 0.1 0.465 0 0 0.47 0 0.02 0.47 0 0.04 0.47 0 0.06 0.47 0 0.08 0.47 0 0.1 0.47 0 0 0.475 0 0.02 0.475 0 0.04 0.475 0 0.06 0.475 0 0.08 0.475 0 0.1 0.475 0 0 0.48 0 0.02 0.48 0 0.04 0.48 0 0.06 0.48 0 0.08 0.48 0 0.1 0.48 0 0 0.485 0 0.02 0.485 0 0.04 0.485 0 0.06 0.485 0 0.08 0.485 0 0.1 0.485 0 0 0.49 0 0.02 0.49 0 0.04 0.49 0 0.06 0.49 0 0.08 0.49 0 0.1 0.49 0 0 0.495 0 0.02 0.495 0 0.04 0.495 0 0.06 0.495 0 0.08 0.495 0 0.1 0.495 0 0 0.5 0 0.02 0.5 0 0.04 0.5 0 0.06 0.5 0 0.08 0.5 0 0.1 0.5 0 0 0.505 0 0.02 0.505 0 0.04 0.505 0 0.06 0.505 0 0.08 0.505 0 0.1 0.505 0 0 0.51 0 0.02 0.51 0 0.04 0.51 0 0.06 0.51 0 0.08 0.51 0 0.1 0.51 0 0 0.515 0 0.02 0.515 0 0.04 0.515 0 0.06 0.515 0 0.08 0.515 0 0.1 0.515 0 0 0.52 0 0.02 0.52 0 0.04 0.52 0 0.06 0.52 0 0.08 0.52 0 0.1 0.52 0 0 0.525 0 0.02 0.525 0 0.04 0.525 0 0.06 0.525 0 0.08 0.525 0 0.1 0.525 0 0 0.53 0 0.02 0.53 0 0.04 0.53 0 0.06 0.53 0 0.08 0.53 0 0.1 0.53 0 0 0.535 0 0.02 0.535 0 0.04 0.535 0 0.06 0.535 0 0.08 0.535 0 0.1 0.535 0 0 0.54 0 0.02 0.54 0 0.04 0.54 0 0.06 0.54 0 0.08 0.54 0 0.1 0.54 0 0 0.545 0 0.02 0.545 0 0.04 0.545 0 0.06 0.545 0 0.08 0.545 0 0.1 0.545 0 0 0.55 0 0.02 0.55 0 0.04 0.55 0 0.06 0.55 0 0.08 0.55 0 0.1 0.55 0 0 0.555 0 0.02 0.555 0 0.04 0.555 0 0.06 0.555 0 0.08 0.555 0 0.1 0.555 0 0 0.56 0 0.02 0.56 0 0.04 0.56 0 0.06 0.56 0 0.08 0.56 0 0.1 0.56 0 0 0.565 0 0.02 0.565 0 0.04 0.565 0 0.06 0.565 0 0.08 0.565 0 0.1 0.565 0 0 0.57 0 0.02 0.57 0 0.04 0.57 0 0.06 0.57 0 0.08 0.57 0 0.1 0.57 0 0 0.575 0 0.02 0.575 0 0.04 0.575 0 0.06 0.575 0 0.08 0.575 0 0.1 0.575 0 0 0.58 0 0.02 0.58 0 0.04 0.58 0 0.06 0.58 0 0.08 0.58 0 0.1 0.58 0 0 0.585 0 0.02 0.585 0 0.04 0.585 0 0.06 0.585 0 0.08 0.585 0 0.1 0.585 0 0 0.59 0 0.02 0.59 0 0.04 0.59 0 0.06 0.59 0 0.08 0.59 0 0.1 0.59 0 0 0.595 0 0.02 0.595 0 0.04 0.595 0 0.06 0.595 0 0.08 0.595 0 0.1 0.595 0 0 0.6 0 0.02 0.6 0 0.04 0.6 0 0.06 0.6 0 0.08 0.6 0 0.1 0.6 0 0 0.605 0 0.02 0.605 0 0.04 0.605 0 0.06 0.605 0 0.08 0.605 0 0.1 0.605 0 0 0.61 0 0.02 0.61 0 0.04 0.61 0 0.06 0.61 0 0.08 0.61 0 0.1 0.61 0 0 0.615 0 0.02 0.615 0 0.04 0.615 0 0.06 0.615 0 0.08 0.615 0 0.1 0.615 0 0 0.62 0 0.02 0.62 0 0.04 0.62 0 0.06 0.62 0 0.08 0.62 0 0.1 0.62 0 0 0.625 0 0.02 0.625 0 0.04 0.625 0 0.06 0.625 0 0.08 0.625 0 0.1 0.625 0 0 0.63 0 0.02 0.63 0 0.04 0.63 0 0.06 0.63 0 0.08 0.63 0 0.1 0.63 0 0 0.635 0 0.02 0.635 0 0.04 0.635 0 0.06 0.635 0 0.08 0.635 0 0.1 0.635 0 0 0.64 0 0.02 0.64 0 0.04 0.64 0 0.06 0.64 0 0.08 0.64 0 0.1 0.64 0 0 0.645 0 0.02 0.645 0 0.04 0.645 0 0.06 0.645 0 0.08 0.645 0 0.1 0.645 0 0 0.65 0 0.02 0.65 0 0.04 0.65 0 0.06 0.65 0 0.08 0.65 0 0.1 0.65 0 0 0.655 0 0.02 0.655 0 0.04 0.655 0 0.06 0.655 0 0.08 0.655 0 0.1 0.655 0 0 0.66 0 0.02 0.66 0 0.04 0.66 0 0.06 0.66 0 0.08 0.66 0 0.1 0.66 0 0 0.665 0 0.02 0.665 0 0.04 0.665 0 0.06 0.665 0 0.08 0.665 0 0.1 0.665 0 0 0.67 0 0.02 0.67 0 0.04 0.67 0 0.06 0.67 0 0.08 0.67 0 0.1 0.67 0 0 0.675 0 0.02 0.675 0 0.04 0.675 0 0.06 0.675 0 0.08 0.675 0 0.1 0.675 0 0 0.68 0 0.02 0.68 0 0.04 0.68 0 0.06 0.68 0 0.08 0.68 0 0.1 0.68 0 0 0.685 0 0.02 0.685 0 0.04 0.685 0 0.06 0.685 0 0.08 0.685 0 0.1 0.685 0 0 0.69 0 0.02 0.69 0 0.04 0.69 0 0.06 0.69 0 0.08 0.69 0 0.1 
[...]
			<PointData Scalars="VitesseX">
				<DataArray Name="VitesseX" type="Float32" format="ascii">
 0 2.31066e-14 1.20101e-14 3.84876e-14 8.55903e-15 0 0 1.57499e-14 2.00781e-14 3.06234e-14 1.44201e-14 0 0 5.15719e-15 2.99785e-14 2.02718e-14 2.55856e-14 0 0 1.1708e-14 1.11325e-14 4.1855e-14 1.50123e-14 0 0 7.19621e-15 1.56794e-14 3.83475e-14 1.9908e-14 0 0 -1.11715e-14 4.79701e-14 -2.06722e-15 5.11909e-14 0 0 2.26323e-15 2.14641e-14 2.29092e-14 3.79026e-14 0 0 1.0082e-14 2.01589e-15 4.23816e-14 2.4923e-14 0 0 5.67675e-16 1.22942e-14 3.01521e-14 2.98679e-14 0 0 -5.64154e-15 1.64018e-14 3.08347e-14 2.6984e-14 0 0 7.16679e-15 -1.42977e-14 6.94282e-14 -8.65319e-16 0 0 5.10923e-15 -8.44687e-15 5.82682e-14 5.27646e-15 0 0 2.90359e-14 -3.0137e-14 6.72654e-14 6.21208e-16 0 0 2.29549e-14 -6.66172e-15 3.59728e-14 3.248e-14 0 0 -6.54256e-15 5.30076e-14 -2.76717e-14 8.88514e-14 0 0 1.83833e-14 1.69873e-14 1.9129e-14 6.6472e-14 0 0 3.0317e-14 -3.77603e-15 5.07875e-14 5.26031e-14 0 0 3.01911e-14 -8.81211e-15 6.64472e-14 4.88667e-14 0 0 -6.14857e-15 4.40868e-14 4.44215e-14 5.69753e-14 0 0 -1.56865e-14 7.29703e-14 1.69764e-14 6.29381e-14 0 0 6.11833e-15 4.74985e-14 3.40629e-14 3.83524e-14 0 0 1.2221e-14 4.19287e-14 5.05678e-14 -5.53461e-15 0 0 -9.13527e-15 7.63126e-14 2.87743e-14 -1.83984e-14 0 0 -3.5471e-14 1.08306e-13 4.72255e-15 -3.57125e-15 0 0 1.84186e-14 2.51019e-14 6.52857e-14 -2.87364e-14 0 0 5.58062e-14 -3.31763e-14 1.11032e-13 -5.21846e-14 0 0 2.71283e-14 1.48144e-14 6.89338e-14 -4.0886e-14 0 0 2.99087e-14 1.59739e-14 5.65082e-14 -1.50638e-14 0 0 4.83646e-14 -2.6016e-14 6.96806e-14 3.75501e-14 0 0 2.91434e-14 -8.11697e-15 4.62734e-14 8.17401e-14 0 0 2.05933e-14 -7.48422e-15 7.75547e-14 2.37663e-14 0 0 3.79362e-14 -2.85127e-15 7.63792e-14 -3.5437e-14 0 0 -1.52315e-14 1.06379e-13 -1.47515e-14 -2.12519e-14 0 0 -3.2198e-14 1.17201e-13 2.18453e-14 -4.46741e-14 0 0 3.81407e-14 2.12564e-14 1.29768e-13 -7.90545e-14 0 0 2.77692e-14 5.94757e-14 1.01277e-13 -3.56043e-14 0 0 4.50689e-14 5.54215e-14 1.03697e-13 4.56134e-15 0 0 5.57872e-14 8.08565e-14 2.53148e-14 9.9766e-14 0 0 3.66426e-14 9.89186e-14 -5.68907e-15 1.27662e-13 0 0 1.25775e-14 5.8215e-14 5.40183e-14 1.25586e-13 0 0 -3.00066e-14 3.30609e-14 1.03195e-13 1.30867e-13 0 0 -6.58946e-14 2.17634e-14 1.54353e-13 8.25931e-14 0 0 -1.79693e-13 1.8141e-13 1.7222e-14 1.22274e-13 0 0 -1.64743e-13 1.51041e-13 6.66414e-14 3.53323e-14 0 0 -6.95968e-14 3.23125e-14 1.76284e-13 -5.85639e-14 0 0 -1.09828e-13 1.45131e-13 5.71338e-14 1.06418e-14 0 0 -7.32065e-14 8.03902e-14 1.69515e-13 -9.35023e-14 0 0 -3.46586e-14 -2.5434e-14 3.40772e-13 -2.4524e-13 0 0 -1.36739e-13 1.35779e-13 1.79701e-13 -1.46519e-13 0 0 -1.76462e-13 2.25571e-13 4.21655e-14 -2.65511e-14 0 0 -1.08766e-13 1.33265e-13 1.23461e-13 -4.60473e-14 0 0 -4.8733e-14 6.67893e-14 2.04281e-13 -7.15412e-14 0 0 -1.7422e-13 3.0515e-13 -2.5269e-14 1.07974e-13 0 0 -1.50688e-13 3.03013e-13 -4.47317e-14 1.55698e-13 0 0 -1.28455e-14 2.30669e-14 2.90413e-13 -6.43741e-14 0 0 -6.47378e-14 8.57223e-14 2.55045e-13 -6.53741e-14 0 0 -3.28326e-14 1.11826e-13 1.27065e-13 7.20577e-14 0 0 8.56206e-15 7.71963e-14 1.33491e-13 9.27638e-14 0 0 -7.85742e-14 1.93238e-13 1.0001e-13 5.58938e-14 0 0 -1.37344e-13 2.40421e-13 8.56695e-14 5.97869e-14 0 0 -4.17177e-14 1.06706e-13 2.10575e-13 5.60279e-14 0 0 3.03081e-14 8.08211e-14 2.37564e-13 1.18212e-13 0 0 2.89483e-14 1.43337e-13 1.53408e-13 2.53639e-13 0 0 -5.59269e-14 1.59193e-13 2.07067e-13 2.70231e-13 0 0 -1.50557e-13 2.26093e-13 1.95747e-13 2.70399e-13 0 0 -8.81167e-14 2.20249e-13 1.82361e-13 2.9136e-13 0 0 9.67866e-14 1.41549e-13 2.08327e-13 2.43324e-13 0 0 7.21126e-14 2.16619e-13 1.79184e-13 1.47918e-13 0 0 -6.04345e-14 2.19651e-13 3.00301e-13 2.92227e-14 0 0 -8.55409e-14 1.93618e-13 3.79452e-13 1.28687e-14 0 0 -2.13554e-13 3.93933e-13 1.85857e-13 2.23688e-13 0 0 -2.01385e-13 3.03346e-13 2.92096e-13 2.36438e-13 0 0 -9.32468e-14 5.17566e-14 5.99652e-13 -9.23165e-15 0 0 3.29311e-14 -1.42584e-13 7.20349e-13 -1.51974e-13 0 0 -1.14291e-13 1.93343e-13 2.97918e-13 2.42097e-14 0 0 -3.17761e-13 5.03427e-13 1.30829e-13 -1.36185e-15 0 0 -9.78346e-14 6.20188e-14 5.92407e-13 -2.23313e-13 0 0 -1.51243e-15 -7.35446e-14 5.36486e-13 1.13176e-14 0 0 -1.91733e-13 2.47867e-13 3.17863e-13 1.31034e-13 0 0 -3.41656e-13 6.26003e-13 6.97981e-14 1.58268e-13 0 0 3.34835e-14 3.13414e-13 2.44372e-13 2.35826e-14 0 0 4.01857e-13 -5.24351e-14 4.78839e-13 -1.82752e-13 0 0 2.26279e-13 2.52595e-13 5.50929e-14 1.84484e-13 0 0 1.7127e-13 5.20695e-13 -4.6841e-13 7.53268e-13 0 0 4.33449e-13 9.66276e-14 -6.75513e-14 5.03045e-13 0 0 4.68968e-13 -2.8868e-13 7.22435e-13 -2.09258e-13 0 0 1.45281e-13 -7.3835e-14 6.97459e-13 -3.39746e-13 0 0 -2.85231e-13 4.76134e-13 3.71293e-13 -2.21607e-13 0 0 -3.05037e-13 6.8942e-13 -1.71354e-15 -8.11536e-16 0 0 -6.17993e-14 5.89048e-13 -1.24596e-13 1.47222e-13 0 0 2.79812e-13 3.7936e-13 -9.78231e-14 2.41962e-13 0 0 5.2987e-13 1.99058e-13 -1.13607e-13 3.81755e-13 0 0 6.3289e-13 9.6374e-14 -1.18183e-13 5.20873e-13 0 0 5.9626e-13 1.21752e-13 -1.13464e-13 5.27015e-13 0 0 4.96066e-13 1.93996e-13 -8.28151e-14 5.0597e-13 0 0 3.98958e-13 1.97937e-13 6.78073e-14 3.73354e-13 0 0 3.00453e-13 2.37916e-13 2.76911e-13 1.48622e-13 0 0 2.10914e-13 3.30293e-13 3.47212e-13 1.49539e-14 0 0 1.57807e-13 4.00431e-13 3.74663e-13 -7.3122e-15 0 0 1.49058e-13 4.36582e-13 3.69305e-13 1.84247e-14 0 0 1.18982e-13 5.07001e-13 2.82068e-13 1.0714e-13 0 0 7.77272e-14 5.97943e-13 2.10963e-13 1.63146e-13 0 0 8.57827e-14 6.53965e-13 2.17686e-13 1.58001e-13 0 0 8.57534e-14 6.83912e-13 2.50015e-13 7.01065e-14 0 0 1.09587e-13 6.7308e-13 3.75535e-13 -8.17794e-14 0 0 1.19276e-13 5.96648e-13 5.88236e-13 -2.7317e-13 0 0 7.29735e-14 5.30749e-13 5.55371e-13 -4.2043e-13 0 0 9.70559e-14 4.39322e-13 5.15627e-13 -4.04663e-13 0 0 1.00744e-13 3.92076e-13 4.57126e-13 -3.34926e-13 0 0 9.40104e-14 4.04868e-13 2.70344e-13 -1.19853e-13 0 0 1.34271e-13 3.67175e-13 2.4689e-13 5.33031e-14 0 0 1.54974e-13 3.14717e-13 2.90376e-13 7.0332e-14 0 0 1.41415e-13 3.18106e-13 3.52183e-13 6.81992e-14 0 0 1.32455e-13 3.36755e-13 3.94323e-13 3.96789e-14 0 0 1.19494e-13 3.88309e-13 3.72942e-13 2.76003e-14 0 0 8.20502e-14 5.07573e-13 3.12024e-13 7.63431e-14 0 0 4.5479e-14 6.17694e-13 1.43007e-13 1.9551e-13 0 0 4.93612e-14 6.47133e-13 2.32828e-14 2.61576e-13 0 0 9.49295e-14 5.79479e-13 6.19435e-14 2.32824e-13 0 0 1.37652e-13 3.34738e-13 2.65304e-13 9.11073e-14 0 0 1.48103e-13 8.82023e-14 5.28643e-13 -7.10343e-14 0 0 1.42791e-13 -5.43004e-14 6.73397e-13 -1.25089e-13 0 0 6.00086e-14 -5.62385e-14 6.16712e-13 1.25086e-14 0 0 3.86173e-14 1.00745e-14 3.90605e-13 3.03855e-13 0 0 6.23764e-14 4.46138e-14 2.94187e-13 4.40042e-13 0 0 1.2265e-13 1.03389e-13 2.16582e-13 4.05898e-13 0 0 1.24889e-13 1.70973e-13 1.8117e-13 3.62092e-13 0 0 9.66032e-14 2.41958e-13 1.36559e-13 2.87667e-13 0 0 9.93267e-14 2.78262e-13 1.20732e-13 1.85157e-13 0 0 1.08272e-13 2.61979e-13 1.96592e-13 8.35125e-14 0 0 9.92302e-14 2.86157e-13 1.83027e-13 1.36381e-13 0 0 9.38748e-14 2.96209e-13 1.62773e-13 2.04574e-13 0 0 1.25566e-13 2.44311e-13 2.38264e-13 1.80343e-13 0 0 1.32207e-13 2.03447e-13 3.3206e-13 1.60258e-13 0 0 9.87568e-14 2.61526e-13 3.0301e-13 2.11524e-13 0 0 8.81118e-14 2.74708e-13 3.45724e-13 1.12411e-13 0 0 1.628e-13 1.75452e-13 4.74866e-13 -5.63922e-14 0 0 2.16927e-13 2.24889e-13 3.58957e-13 6.77889e-14 0 0 1.47856e-13 3.97928e-13 2.33147e-13 1.72194e-13 0 0 1.97304e-13 3.50912e-13 3.84353e-13 8.46478e-14 0 0 2.68889e-13 3.1469e-13 4.6432e-13 3.61312e-14 0 0 2.32291e-13 4.23477e-13 3.04505e-13 1.19297e-13 0 0 2.59331e-13 3.76057e-13 3.50558e-13 1.39881e-13 0 0 2.44667e-13 3.80703e-13 3.45773e-13 2.36348e-13 0 0 2.50833e-13 3.90944e-13 2.85733e-13 2.68737e-13 0 0 3.08231e-13 2.59918e-13 4.51204e-13 1.23616e-13 0 0 1.56816e-13 4.49548e-13 3.38583e-13 2.09667e-13 0 0 8.93844e-14 5.56669e-13 2.5626e-13 3.13761e-13 0 0 1.61258e-13 4.25519e-13 3.97326e-13 2.3831e-13 0 0 1.60058e-13 4.05376e-13 4.33127e-13 2.26295e-13 0 0 2.06589e-13 3.60603e-13 4.5713e-13 2.70455e-13 0 0 1.65244e-13 4.99448e-13 2.59033e-13 4.52608e-13 0 0 1.65512e-13 4.96024e-13 3.51073e-13 3.83977e-13 0 0 1.54163e-13 4.81423e-13 5.33231e-13 2.64934e-13 0 0 1.58231e-13 4.83666e-13 6.43702e-13 2.28203e-13 0 0 2.58431e-13 3.91553e-13 7.5128e-13 1.83479e-13 0 0 1.99445e-13 6.19447e-13 4.44079e-13 5.01665e-13 0 0 2.837e-13 6.17384e-13 4.26814e-13 4.92366e-13 0 0 3.94786e-13 5.29535e-13 5.22113e-13 3.18959e-13 0 0 4.94393e-13 3.90399e-13 6.8978e-13 2.27152e-13 0 0 4.86012e-13 4.21013e-13 7.2605e-13 1.81083e-13 0 0 1.8699e-13 9.60064e-13 2.37115e-13 5.04929e-13 0 0 8.94544e-14 1.16108e-12 4.44302e-14 6.67897e-13 0 0 4.86916e-13 5.70522e-13 6.03561e-13 3.05899e-13 0 0 6.6889e-13 3.60213e-13 8.29712e-13 7.23514e-14 0 0 4.90659e-13 6.85897e-13 5.24719e-13 2.67627e-13 0 0 4.45123e-13 7.3863e-13 5.56967e-13 2.35559e-13 0 0 3.42686e-13 8.35914e-13 5.72424e-13 8.66933e-14 0 0 2.6682e-13 8.97696e-13 5.79101e-13 5.59263e-14 0 0 4.36016e-13 7.63896e-13 5.4241e-13 2.13599e-13 0 0 4.4443e-13 8.45357e-13 3.35046e-13 4.56447e-13 0 0 4.11942e-13 9.02083e-13 3.11734e-13 4.80998e-13 0 0 5.96739e-13 5.54632e-13 6.83139e-13 2.54894e-13 0 0 4.48854e-13 6.39745e-13 6.64112e-13 1.98418e-13 0 0 4.77596e-13 7.05992e-13 4.23664e-13 3.6678e-13 0 0 5.29002e-13 7.2126e-13 4.38133e-13 3.55936e-13 0 0 4.83816e-13 7.04139e-13 6.14708e-13 2.2393e-13 0 0 6.15352e-13 3.60722e-13 9.52513e-13 7.3975e-14 0 0 3.52969e-13 7.25666e-13 4.41832e-13 4.58967e-13 0 0 2.30624e-13 9.24648e-13 2.38119e-13 5.75511e-13 0 0 3.06136e-13 6.31447e-13 8.32182e-13 1.00748e-13 0 0 3.99509e-13 4.7507e-13 9.01867e-13 1.2592e-13 0 0 5.86156e-13 3.57496e-13 7.40434e-13 3.20878e-13 0 0 4.58162e-13 6.50818e-13 5.1852e-13 3.01764e-13 0 0 4.7907e-13 6.07323e-13 6.26422e-13 1.11042e-13 0 0 5.63142e-13 4.00825e-13 7.69624e-13 9.26966e-14 0 0 3.42765e-13 5.92142e-13 5.9393e-13 3.15139e-13 0 0 3.41811e-13 5.03053e-13 6.3839e-13 4.15382e-13 0 0 3.55978e-13 6.06145e-13 5.08368e-13 5.44382e-13 0 0 2.54723e-13 7.98002e-13 4.97757e-13 3.90715e-13 0 0 3.99613e-13 4.54457e-13 1.10866e-12 -1.42763e-13 0 0 3.24201e-13 5.85669e-13 9.1119e-13 7.77849e-14 0 0 5.98682e-14 1.11398e-12 1.78798e-13 6.26077e-13 0 0 1.62645e-13 9.55413e-13 4.27572e-13 4.32961e-13 0 0 3.75645e-13 5.41744e-13 8.44626e-13 2.3088e-13 0 0 4.27213e-13 2.81277e-13 1.06078e-12 1.9816e-13 0 0 2.60025e-13 2.10995e-13 1.39549e-12 -6.47412e-14 0 0 -5.79386e-14 6.81619e-13 8.90223e-13 2.01382e-13 0 0 5.53317e-14 6.994e-13 4.33399e-13 5.74874e-13 0 0 5.42899e-13 -1.71589e-13 1.31207e-12 1.09893e-14 0 0 7.60744e-13 -6.47907e-13 1.98353e-12 -4.80428e-13 0
				</DataArray>
				<DataArray Name="VitesseY" type="Float32" format="ascii">