<?xml version="1.0"?>
<VTKFile type="PolyData">
	<PolyData>
		<Piece NumberOfPoints="1206" NumberOfPolys="1000">
			<Points>
				<DataArray type="Float32" NumberOfComponents="3" format="ascii">
 0 0 0 0.02 0 0 0.04 0 0 0.06 0 0 0.08 0 0 0.1 0 0 0 0.005 0 0.02 0.005 0 0.04 0.005 0 0.06 0.005 0 0.08 0.005 0 0.1 0.005 0 0 0.01 0 0.02 0.01 0 0.04 0.01 0 0.06 0.01 0 0.08 0.01 0 0.1 0.01 0 0 0.015 0 0.02 0.015 0 0.04 0.015 0 0.06 0.015 0 0.08 0.015 0 0.1 0.015 0 0 0.02 0 0.02 0.02 0 0.04 0.02 0 0.06 0.02 0 0.08 0.02 0 0.1 0.02 0 0 0.025 0 0.02 0.025 0 0.04 0.025 0 0.06 0.025 0 0.08 0.025 0 0.1 0.025 0 0 0.03 0 0.02 0.03 0 0.04 0.03 0 0.06 0.03 0 0.08 0.03 0 0.1 0.03 0 0 0.035 0 0.02 0.035 0 0.04 0.035 0 0.06 0.035 0 0.08 0.035 0 0.1 0.035 0 0 0.04 0 0.02 0.04 0 0.04 0.04 0 0.06 0.04 0 0.08 0.04 0 0.1 0.04 0 0 0.045 0 0.02 0.045 0 0.04 0.045 0 0.06 0.045 0 0.08 0.045 0 0.1 0.045 0 0 0.05 0 0.02 0.05 0 0.04 0.05 0 0.06 0.05 0 0.08 0.05 0 0.1 0.05 0 0 0.055 0 0.02 0.055 0 0.04 0.055 0 0.06 0.055 0 0.08 0.055 0 0.1 0.055 0 0 0.06 0 0.02 0.06 0 0.04 0.06 0 0.06 0.06 0 0.08 0.06 0 0.1 0.06 0 0 0.065 0 0.02 0.065 0 0.04 0.065 0 0.06 0.065 0 0.08 0.065 0 0.1 0.065 0 0 0.07 0 0.02 0.07 0 0.04 0.07 0 0.06 0.07 0 0.08 0.07 0 0.1 0.07 0 0 0.075 0 0.02 0.075 0 0.04 0.075 0 0.06 0.075 0 0.08 0.075 0 0.1 0.075 0 0 0.08 0 0.02 0.08 0 0.04 0.08 0 0.06 0.08 0 0.08 0.08 0 0.1 0.08 0 0 0.085 0 0.02 0.085 0 0.04 0.085 0 0.06 0.085 0 0.08 0.085 0 0.1 0.085 0 0 0.09 0 0.02 0.09 0 0.04 0.09 0 0.06 0.09 0 0.08 0.09 0 0.1 0.09 0 0 0.095 0 0.02 0.095 0 0.04 0.095 0 0.06 0.095 0 0.08 0.095 0 0.1 0.095 0 0 0.1 0 0.02 0.1 0 0.04 0.1 0 0.06 0.1 0 0.08 0.1 0 0.1 0.1 0 0 0.105 0 0.02 0.105 0 0.04 0.105 0 0.06 0.105 0 0.08 0.105 0 0.1 0.105 0 0 0.11 0 0.02 0.11 0 0.04 0.11 0 0.06 0.11 0 0.08 0.11 0 0.1 0.11 0 0 0.115 0 0.02 0.115 0 0.04 0.115 0 0.06 0.115 0 0.08 0.115 0 0.1 0.115 0 0 0.12 0 0.02 0.12 0 0.04 0.12 0 0.06 0.12 0 0.08 0.12 0 0.1 0.12 0 0 0.125 0 0.02 0.125 0 0.04 0.125 0 0.06 0.125 0 0.08 0.125 0 0.1 0.125 0 0 0.13 0 0.02 0.13 0 0.04 0.13 0 0.06 0.13 0 0.08 0.13 0 0.1 0.13 0 0 0.135 0 0.02 0.135 0 0.04 0.135 0 0.06 0.135 0 0.08 0.135 0 0.1 0.135 0 0 0.14 0 0.02 0.14 0 0.04 0.14 0 0.06 0.14 0 0.08 0.14 0 0.1 0.14 0 0 0.145 0 0.02 0.145 0 0.04 0.145 0 0.06 0.145 0 0.08 0.145 0 0.1 0.145 0 0 0.15 0 0.02 0.15 0 0.04 0.15 0 0.06 0.15 0 0.08 0.15 0 0.1 0.15 0 0 0.155 0 0.02 0.155 0 0.04 0.155 0 0.06 0.155 0 0.08 0.155 0 0.1 0.155 0 0 0.16 0 0.02 0.16 0 0.04 0.16 0 0.06 0.16 0 0.08 0.16 0 0.1 0.16 0 0 0.165 0 0.02 0.165 0 0.04 0.165 0 0.06 0.165 0 0.08 0.165 0 0.1 0.165 0 0 0.17 0 0.02 0.17 0 0.04 0.17 0 0.06 0.17 0 0.08 0.17 0 0.1 0.17 0 0 0.175 0 0.02 0.175 0 0.04 0.175 0 0.06 0.175 0 0.08 0.175 0 0.1 0.175 0 0 0.18 0 0.02 0.18 0 0.04 0.18 0 0.06 0.18 0 0.08 0.18 0 0.1 0.18 0 0 0.185 0 0.02 0.185 0 0.04 0.185 0 0.06 0.185 0 0.08 0.185 0 0.1 0.185 0 0 0.19 0 0.02 0.19 0 0.04 0.19 0 0.06 0.19 0 0.08 0.19 0 0.1 0.19 0 0 0.195 0 0.02 0.195 0 0.04 0.195 0 0.06 0.195 0 0.08 0.195 0 0.1 0.195 0 0 0.2 0 0.02 0.2 0 0.04 0.2 0 0.06 0.2 0 0.08 0.2 0 0.1 0.2 0 0 0.205 0 0.02 0.205 0 0.04 0.205 0 0.06 0.205 0 0.08 0.205 0 0.1 0.205 0 0 0.21 0 0.02 0.21 0 0.04 0.21 0 0.06 0.21 0 0.08 0.21 0 0.1 0.21 0 0 0.215 0 0.02 0.215 0 0.04 0.215 0 0.06 0.215 0 0.08 0.215 0 0.1 0.215 0 0 0.22 0 0.02 0.22 0 0.04 0.22 0 0.06 0.22 0 0.08 0.22 0 0.1 0.22 0 0 0.225 0 0.02 0.225 0 0.04 0.225 0 0.06 0.225 0 0.08 0.225 0 0.1 0.225 0 0 0.23 0 0.02 0.23 0 0.04 0.23 0 0.06 0.23 0 0.08 0.23 0 0.1 0.23 0 0 0.235 0 0.02 0.235 0 0.04 0.235 0 0.06 0.235 0 0.08 0.235 0 0.1 0.235 0 0 0.24 0 0.02 0.24 0 0.04 0.24 0 0.06 0.24 0 0.08 0.24 0 0.1 0.24 0 0 0.245 0 0.02 0.245 0 0.04 0.245 0 0.06 0.245 0 0.08 0.245 0 0.1 0.245 0 0 0.25 0 0.02 0.25 0 0.04 0.25 0 0.06 0.25 0 0.08 0.25 0 0.1 0.25 0 0 0.255 0 0.02 0.255 0 0.04 0.255 0 0.06 0.255 0 0.08 0.255 0 0.1 0.255 0 0 0.26 0 0.02 0.26 0 0.04 0.26 0 0.06 0.26 0 0.08 0.26 0 0.1 0.26 0 0 0.265 0 0.02 0.265 0 0.04 0.265 0 0.06 0.265 0 0.08 0.265 0 0.1 0.265 0 0 0.27 0 0.02 0.27 0 0.04 0.27 0 0.06 0.27 0 0.08 0.27 0 0.1 0.27 0 0 0.275 0 0.02 0.275 0 0.04 0.275 0 0.06 0.275 0 0.08 0.275 0 0.1 0.275 0 0 0.28 0 0.02 0.28 0 0.04 0.28 0 0.06 0.28 0 0.08 0.28 0 0.1 0.28 0 0 0.285 0 0.02 0.285 0 0.04 0.285 0 0.06 0.285 0 0.08 0.285 0 0.1 0.285 0 0 0.29 0 0.02 0.29 0 0.04 0.29 0 0.06 0.29 0 0.08 0.29 0 0.1 0.29 0 0 0.295 0 0.02 0.295 0 0.04 0.295 0 0.06 0.295 0 0.08 0.295 0 0.1 0.295 0 0 0.3 0 0.02 0.3 0 0.04 0.3 0 0.06 0.3 0 0.08 0.3 0 0.1 0.3 0 0 0.305 0 0.02 0.305 0 0.04 0.305 0 0.06 0.305 0 0.08 0.305 0 0.1 0.305 0 0 0.31 0 0.02 0.31 0 0.04 0.31 0 0.06 0.31 0 0.08 0.31 0 0.1 0.31 0 0 0.315 0 0.02 0.315 0 0.04 0.315 0 0.06 0.315 0 0.08 0.315 0 0.1 0.315 0 0 0.32 0 0.02 0.32 0 0.04 0.32 0 0.06 0.32 0 0.08 0.32 0 0.1 0.32 0 0 0.325 0 0.02 0.325 0 0.04 0.325 0 0.06 0.325 0 0.08 0.325 0 0.1 0.325 0 0 0.33 0 0.02 0.33 0 0.04 0.33 0 0.06 0.33 0 0.08 0.33 0 0.1 0.33 0 0 0.335 0 0.02 0.335 0 0.04 0.335 0 0.06 0.335 0 0.08 0.335 0 0.1 0.335 0 0 0.34 0 0.02 0.34 0 0.04 0.34 0 0.06 0.34 0 0.08 0.34 0 0.1 0.34 0 0 0.345 0 0.02 0.345 0 0.04 0.345 0 0.06 0.345 0 0.08 0.345 0 0.1 0.345 0 0 0.35 0 0.02 0.35 0 0.04 0.35 0 0.06 0.35 0 0.08 0.35 0 0.1 0.35 0 0 0.355 0 0.02 0.355 0 0.04 0.355 0 0.06 0.355 0 0.08 0.355 0 0.1 0.355 0 0 0.36 0 0.02 0.36 0 0.04 0.36 0 0.06 0.36 0 0.08 0.36 0 0.1 0.36 0 0 0.365 0 0.02 0.365 0 0.04 0.365 0 0.06 0.365 0 0.08 0.365 0 0.1 0.365 0 0 0.37 0 0.02 0.37 0 0.04 0.37 0 0.06 0.37 0 0.08 0.37 0 0.1 0.37 0 0 0.375 0 0.02 0.375 0 0.04 0.375 0 0.06 0.375 0 0.08 0.375 0 0.1 0.375 0 0 0.38 0 0.02 0.38 0 0.04 0.38 0 0.06 0.38 0 0.08 0.38 0 0.1 0.38 0 0 0.385 0 0.02 0.385 0 0.04 0.385 0 0.06 0.385 0 0.08 0.385 0 0.1 0.385 0 0 0.39 0 0.02 0.39 0 0.04 0.39 0 0.06 0.39 0 0.08 0.39 0 0.1 0.39 0 0 0.395 0 0.02 0.395 0 0.04 0.395 0 0.06 0.395 0 0.08 0.395 0 0.1 0.395 0 0 0.4 0 0.02 0.4 0 0.04 0.4 0 0.06 0.4 0 0.08 0.4 0 0.1 0.4 0 0 0.405 0 0.02 0.405 0 0.04 0.405 0 0.06 0.405 0 0.08 0.405 0 0.1 0.405 0 0 0.41 0 0.02 0.41 0 0.04 0.41 0 0.06 0.41 0 0.08 0.41 0 0.1 0.41 0 0 0.415 0 0.02 0.415 0 0.04 0.415 0 0.06 0.415 0 0.08 0.415 0 0.1 0.415 0 0 0.42 0 0.02 0.42 0 0.04 0.42 0 0.06 0.42 0 0.08 0.42 0 0.1 0.42 0 0 0.425 0 0.02 0.425 0 0.04 0.425 0 0.06 0.425 0 0.08 0.425 0 0.1 0.425 0 0 0.43 0 0.02 0.43 0 0.04 0.43 0 0.06 0.43 0 0.08 0.43 0 0.1 0.43 0 0 0.435 0 0.02 0.435 0 0.04 0.435 0 0.06 0.435 0 0.08 0.435 0 0.1 0.435 0 0 0.44 0 0.02 0.44 0 0.04 0.44 0 0.06 0.44 0 0.08 0.44 0 0.1 0.44 0 0 0.445 0 0.02 0.445 0 0.04 0.445 0 0.06 0.445 0 0.08 0.445 0 0.1 0.445 0 0 0.45 0 0.02 0.45 0 0.04 0.45 0 0.06 0.45 0 0.08 0.45 0 0.1 0.45 0 0 0.455 0 0.02 0.455 0 0.04 0.455 0 0.06 0.455 0 0.08 0.455 0 0.1 0.455 0 0 0.46 0 0.02 0.46 0 0.04 0.46 0 0.06 0.46 0 0.08 0.46 0 0.1 0.46 0 0 0.465 0 0.02 0.465 0 0.04 0.465 0 0.06 0.465 0 0.08 0.465 0 0.1 0.465 0 0 0.47 0 0.02 0.47 0 0.04 0.47 0 0.06 0.47 0 0.08 0.47 0 0.1 0.47 0 0 0.475 0 0.02 0.475 0 0.04 0.475 0 0.06 0.475 0 0.08 0.475 0 0.1 0.475 0 0 0.48 0 0.02 0.48 0 0.04 0.48 0 0.06 0.48 0 0.08 0.48 0 0.1 0.48 0 0 0.485 0 0.02 0.485 0 0.04 0.485 0 0.06 0.485 0 0.08 0.485 0 0.1 0.485 0 0 0.49 0 0.02 0.49 0 0.04 0.49 0 0.06 0.49 0 0.08 0.49 0 0.1 0.49 0 0 0.495 0 0.02 0.495 0 0.04 0.495 0 0.06 0.495 0 0.08 0.495 0 0.1 0.495 0 0 0.5 0 0.02 0.5 0 0.04 0.5 0 0.06 0.5 0 0.08 0.5 0 0.1 0.5 0 0 0.505 0 0.02 0.505 0 0.04 0.505 0 0.06 0.505 0 0.08 0.505 0 0.1 0.505 0 0 0.51 0 0.02 0.51 0 0.04 0.51 0 0.06 0.51 0 0.08 0.51 0 0.1 0.51 0 0 0.515 0 0.02 0.515 0 0.04 0.515 0 0.06 0.515 0 0.08 0.515 0 0.1 0.515 0 0 0.52 0 0.02 0.52 0 0.04 0.52 0 0.06 0.52 0 0.08 0.52 0 0.1 0.52 0 0 0.525 0 0.02 0.525 0 0.04 0.525 0 0.06 0.525 0 0.08 0.525 0 0.1 0.525 0 0 0.53 0 0.02 0.53 0 0.04 0.53 0 0.06 0.53 0 0.08 0.53 0 0.1 0.53 0 0 0.535 0 0.02 0.535 0 0.04 0.535 0 0.06 0.535 0 0.08 0.535 0 0.1 0.535 0 0 0.54 0 0.02 0.54 0 0.04 0.54 0 0.06 0.54 0 0.08 0.54 0 0.1 0.54 0 0 0.545 0 0.02 0.545 0 0.04 0.545 0 0.06 0.545 0 0.08 0.545 0 0.1 0.545 0 0 0.55 0 0.02 0.55 0 0.04 0.55 0 0.06 0.55 0 0.08 0.55 0 0.1 0.55 0 0 0.555 0 0.02 0.555 0 0.04 0.555 0 0.06 0.555 0 0.08 0.555 0 0.1 0.555 0 0 0.56 0 0.02 0.56 0 0.04 0.56 0 0.06 0.56 0 0.08 0.56 0 0.1 0.56 0 0 0.565 0 0.02 0.565 0 0.04 0.565 0 0.06 0.565 0 0.08 0.565 0 0.1 0.565 0 0 0.57 0 0.02 0.57 0 0.04 0.57 0 0.06 0.57 0 0.08 0.57 0 0.1 0.57 0 0 0.575 0 0.02 0.575 0 0.04 0.575 0 0.06 0.575 0 0.08 0.575 0 0.1 0.575 0 0 0.58 0 0.02 0.58 0 0.04 0.58 0 0.06 0.58 0 0.08 0.58 0 0.1 0.58 0 0 0.585 0 0.02 0.585 0 0.04 0.585 0 0.06 0.585 0 0.08 0.585 0 0.1 0.585 0 0 0.59 0 0.02 0.59 0 0.04 0.59 0 0.06 0.59 0 0.08 0.59 0 0.1 0.59 0 0 0.595 0 0.02 0.595 0 0.04 0.595 0 0.06 0.595 0 0.08 0.595 0 0.1 0.595 0 0 0.6 0 0.02 0.6 0 0.04 0.6 0 0.06 0.6 0 0.08 0.6 0 0.1 0.6 0 0 0.605 0 0.02 0.605 0 0.04 0.605 0 0.06 0.605 0 0.08 0.605 0 0.1 0.605 0 0 0.61 0 0.02 0.61 0 0.04 0.61 0 0.06 0.61 0 0.08 0.61 0 0.1 0.61 0 0 0.615 0 0.02 0.615 0 0.04 0.615 0 0.06 0.615 0 0.08 0.615 0 0.1 0.615 0 0 0.62 0 0.02 0.62 0 0.04 0.62 0 0.06 0.62 0 0.08 0.62 0 0.1 0.62 0 0 0.625 0 0.02 0.625 0 0.04 0.625 0 0.06 0.625 0 0.08 0.625 0 0.1 0.625 0 0 0.63 0 0.02 0.63 0 0.04 0.63 0 0.06 0.63 0 0.08 0.63 0 0.1 0.63 0 0 0.635 0 0.02 0.635 0 0.04 0.635 0 0.06 0.635 0 0.08 0.635 0 0.1 0.635 0 0 0.64 0 0.02 0.64 0 0.04 0.64 0 0.06 0.64 0 0.08 0.64 0 0.1 0.64 0 0 0.645 0 0.02 0.645 0 0.04 0.645 0 0.06 0.645 0 0.08 0.645 0 0.1 0.645 0 0 0.65 0 0.02 0.65 0 0.04 0.65 0 0.06 0.65 0 0.08 0.65 0 0.1 0.65 0 0 0.655 0 0.02 0.655 0 0.04 0.655 0 0.06 0.655 0 0.08 0.655 0 0.1 0.655 0 0 0.66 0 0.02 0.66 0 0.04 0.66 0 0.06 0.66 0 0.08 0.66 0 0.1 0.66 0 0 0.665 0 0.02 0.665 0 0.04 0.665 0 0.06 0.665 0 0.08 0.665 0 0.1 0.665 0 0 0.67 0 0.02 0.67 0 0.04 0.67 0 0.06 0.67 0 0.08 0.67 0 0.1 0.67 0 0 0.675 0 0.02 0.675 0 0.04 0.675 0 0.06 0.675 0 0.08 0.675 0 0.1 0.675 0 0 0.68 0 0.02 0.68 0 0.04 0.68 0 0.06 0.68 0 0.08 0.68 0 0.1 0.68 0 0 0.685 0 0.02 0.685 0 0.04 0.685 0 0.06 0.685 0 0.08 0.685 0 0.1 0.685 0 0 0.69 0 0.02 0.69 0 0.04 0.69 0 0.06 0.69 0 0.08 0.69 0 0.1 
[...]
			<PointData Scalars="VitesseX">
				<DataArray Name="VitesseX" type="Float32" format="ascii">
 0 9.71231e-15 -8.48287e-15 1.78067e-14 2.0704e-14 0 0 4.3923e-15 -2.5177e-16 1.41117e-14 2.20297e-14 0 0 -3.14977e-15 1.06931e-14 1.46972e-14 1.91748e-14 0 0 -6.12928e-15 1.35436e-14 2.38128e-14 1.53719e-14 0 0 -1.07663e-14 2.13984e-14 2.43811e-14 1.99903e-14 0 0 -4.40952e-15 1.68273e-14 3.19705e-14 1.67582e-14 0 0 1.34516e-14 -1.08644e-14 6.29316e-14 -2.61459e-15 0 0 1.03964e-14 -9.30206e-15 6.69803e-14 -5.11405e-15 0 0 6.07942e-15 -8.14589e-15 6.3477e-14 3.53504e-15 0 0 -6.32695e-15 7.42068e-15 3.76708e-14 3.28836e-14 0 0 -1.04543e-14 1.90195e-14 1.52525e-14 5.72842e-14 0 0 1.60116e-14 -1.58988e-14 3.39885e-14 5.44578e-14 0 0 4.03426e-14 -5.01237e-14 5.74998e-14 4.36222e-14 0 0 3.03504e-14 -2.0297e-14 2.63739e-14 4.89332e-14 0 0 1.26356e-14 1.93791e-14 2.64357e-15 4.06479e-14 0 0 8.44843e-15 1.85586e-14 3.58609e-14 8.24199e-15 0 0 1.48804e-15 3.27637e-14 2.31256e-14 2.08935e-14 0 0 1.21294e-14 1.50739e-14 3.51236e-14 1.47129e-14 0 0 1.57586e-14 1.49332e-14 3.22567e-14 1.7339e-14 0 0 -3.391e-15 5.65103e-14 -1.51398e-14 3.83037e-14 0 0 4.07824e-14 -1.68636e-14 5.60484e-14 -1.3962e-14 0 0 7.18428e-14 -6.59598e-14 9.3495e-14 -2.94703e-14 0 0 2.37503e-14 2.14349e-14 -7.01124e-16 2.75533e-14 0 0 -3.98026e-14 1.20644e-13 -9.86668e-14 8.53619e-14 0 0 -4.87187e-15 1.7441e-14 2.75277e-14 1.36265e-14 0 0 1.64491e-14 -4.78961e-14 1.11834e-13 -2.6148e-14 0 0 -2.11774e-14 1.54308e-14 2.9923e-14 5.45054e-14 0 0 3.17565e-15 -2.15197e-14 7.76139e-14 3.36413e-14 0 0 -8.68418e-15 9.30825e-15 6.76853e-14 2.96913e-14 0 0 -4.76459e-14 8.81286e-14 -3.65413e-15 7.18799e-14 0 0 2.14419e-14 -5.50804e-15 1.00098e-13 -1.8787e-14 0 0 8.78475e-15 2.7729e-14 8.39173e-14 -4.05733e-14 0 0 -1.40143e-14 9.37125e-14 9.34028e-15 2.23266e-14 0 0 2.76194e-14 5.60576e-14 3.04112e-14 4.18866e-14 0 0 4.32064e-15 1.07292e-13 -9.77526e-15 8.76485e-14 0 0 2.81397e-14 8.65883e-14 2.04596e-14 7.35841e-14 0 0 5.12116e-14 5.02825e-14 8.90213e-14 -1.33684e-15 0 0 5.74292e-14 2.61555e-14 1.11086e-13 1.35775e-14 0 0 -3.05368e-14 1.17067e-13 1.83307e-14 1.44574e-13 0 0 -2.96887e-14 2.50524e-14 2.04316e-13 -1.15158e-14 0 0 3.36919e-14 -1.09224e-13 3.77529e-13 -1.80655e-13 0 0 -5.33054e-14 7.22019e-14 1.31147e-13 -1.35154e-14 0 0 -7.68217e-14 1.24991e-13 6.83556e-14 3.37542e-14 0 0 -2.98785e-15 2.35252e-14 1.40863e-13 -7.07469e-15 0 0 3.69046e-14 3.58871e-14 7.30483e-14 1.10011e-14 0 0 1.33254e-14 1.12158e-13 -1.98937e-15 2.97016e-14 0 0 -4.60028e-14 1.9652e-13 -8.48583e-14 7.47799e-14 0 0 -5.3814e-14 1.90762e-13 -1.08614e-13 1.06609e-13 0 0 2.87421e-14 5.74906e-14 1.74049e-15 6.03414e-14 0 0 7.80865e-14 -8.15711e-15 1.21431e-13 -1.56312e-14 0 0 1.62328e-13 -1.43366e-13 3.17733e-13 -1.11589e-13 0 0 1.1139e-13 -6.20322e-14 2.7983e-13 -6.47487e-14 0 0 -5.80703e-14 2.12581e-13 1.98613e-14 1.18878e-13 0 0 -2.29488e-14 1.4271e-13 1.38107e-13 4.56746e-14 0 0 1.35788e-13 -5.17724e-14 3.41699e-13 -1.01103e-13 0 0 1.63991e-13 -2.80444e-14 2.72936e-13 -5.21269e-14 0 0 7.67361e-14 8.56716e-14 1.64997e-13 2.5065e-14 0 0 3.48308e-14 1.55048e-13 1.19213e-13 5.95286e-14 0 0 6.06095e-14 1.61055e-13 1.28425e-13 9.16048e-14 0 0 1.00668e-13 1.41239e-13 1.37593e-13 1.67106e-13 0 0 1.18121e-13 1.58392e-13 1.03867e-13 2.51385e-13 0 0 2.96769e-14 2.42918e-13 8.61947e-14 2.89313e-13 0 0 -2.7501e-14 2.6053e-13 1.6877e-13 2.59747e-13 0 0 1.72473e-14 1.83937e-13 2.94537e-13 1.98551e-13 0 0 4.15413e-14 1.02908e-13 4.03672e-13 1.29224e-13 0 0 3.16664e-14 9.06833e-14 4.33647e-13 6.89999e-14 0 0 -1.27505e-13 3.06114e-13 2.77943e-13 1.16713e-13 0 0 -5.67753e-14 1.48332e-13 4.2889e-13 6.80846e-14 0 0 1.18857e-13 -1.28748e-13 6.55099e-13 1.52015e-14 0 0 -7.32524e-14 1.50001e-13 3.73905e-13 2.25486e-13 0 0 -1.76521e-13 3.23794e-13 1.65436e-13 3.38843e-13 0 0 -9.22452e-15 1.86528e-13 1.70712e-13 3.14675e-13 0 0 3.59064e-13 -2.48827e-13 4.05728e-13 1.58592e-13 0 0 2.99628e-13 -9.11969e-14 2.75303e-13 1.33826e-13 0 0 1.07508e-14 2.75805e-13 1.24209e-13 1.19615e-13 0 0 2.67333e-14 2.27514e-13 1.93705e-13 1.66011e-13 0 0 8.54005e-14 2.2496e-13 1.4735e-13 2.80977e-13 0 0 3.43859e-13 -1.64608e-13 6.77872e-13 -1.59621e-13 0 0 2.46029e-13 3.09427e-14 5.42668e-13 -2.51104e-13 0 0 2.63526e-13 2.05407e-13 2.33594e-13 -1.46797e-13 0 0 4.78019e-13 -1.18719e-13 3.77622e-13 -1.731e-13 0 0 4.14402e-13 3.70889e-14 3.69988e-14 1.12023e-13 0 0 2.5846e-13 2.33346e-13 -2.24237e-13 3.16752e-13 0 0 1.27844e-13 3.2324e-13 -3.56121e-13 5.18704e-13 0 0 1.23623e-13 2.32534e-13 -1.88603e-13 4.18711e-13 0 0 1.73989e-13 -7.98387e-14 3.06388e-13 1.43982e-13 0 0 1.97387e-13 -2.89183e-13 6.3174e-13 -1.09953e-13 0 0 1.31345e-13 -2.66601e-13 5.76937e-13 -4.82347e-14 0 0 -8.36911e-14 -2.25803e-14 3.60011e-13 1.0865e-13 0 0 -1.52517e-13 2.26648e-13 -2.05104e-14 2.59664e-13 0 0 -1.18863e-13 2.25734e-13 -1.21391e-13 3.81124e-13 0 0 5.99648e-14 1.13854e-13 -8.46118e-14 4.14621e-13 0 0 3.5232e-13 -1.71816e-13 2.94127e-14 4.09959e-13 0 0 4.96874e-13 -3.54808e-13 1.57685e-13 3.89208e-13 0 0 4.73082e-13 -3.27402e-13 1.87511e-13 3.48629e-13 0 0 3.89961e-13 -1.94641e-13 1.63002e-13 3.13054e-13 0 0 2.20644e-13 1.92078e-14 8.72823e-14 3.02149e-13 0 0 6.05028e-14 2.17784e-13 5.6215e-14 2.61524e-13 0 0 -9.56514e-14 3.81457e-13 8.21323e-14 1.38543e-13 0 0 -1.07283e-13 5.14291e-13 1.57318e-13 8.28837e-15 0 0 -8.08456e-14 5.18643e-13 2.25888e-13 -5.99774e-14 0 0 -2.77429e-15 4.98216e-13 2.82185e-13 -6.64999e-14 0 0 9.5608e-14 4.4262e-13 3.37528e-13 -5.2383e-14 0 0 1.85921e-13 3.92973e-13 3.83256e-13 1.51489e-15 0 0 2.94896e-13 3.51265e-13 4.24026e-13 1.59612e-14 0 0 2.94485e-13 3.69986e-13 5.07966e-13 3.13118e-14 0 0 1.96875e-13 4.87148e-13 5.05808e-13 2.61558e-14 0 0 2.25698e-14 6.20748e-13 4.62155e-13 -1.62749e-14 0 0 -2.79689e-14 6.40038e-13 4.16652e-13 -8.83098e-14 0 0 -2.3253e-14 6.23407e-13 3.38956e-13 -5.77831e-14 0 0 5.30919e-15 6.02508e-13 1.2266e-13 1.98257e-14 0 0 1.16226e-13 5.23865e-13 8.82368e-14 1.41573e-13 0 0 2.54196e-13 3.86337e-13 1.05264e-13 1.83179e-13 0 0 3.18831e-13 3.48951e-13 1.30776e-13 2.10211e-13 0 0 3.49096e-13 3.00136e-13 2.36347e-13 1.76008e-13 0 0 3.39592e-13 2.91913e-13 3.65281e-13 8.10435e-14 0 0 2.68312e-13 3.51739e-13 3.68137e-13 6.08256e-14 0 0 1.66285e-13 5.77877e-13 2.69784e-13 7.35946e-14 0 0 8.28329e-14 7.26879e-13 1.04119e-13 1.39779e-13 0 0 7.0671e-14 7.26584e-13 8.80679e-14 1.53785e-13 0 0 8.33704e-14 6.34297e-13 1.6875e-13 8.22212e-14 0 0 1.31189e-13 3.57621e-13 2.96744e-13 1.72149e-14 0 0 1.22599e-13 1.24026e-13 4.78853e-13 -7.94674e-14 0 0 1.01275e-13 1.17661e-13 4.99379e-13 -6.27255e-14 0 0 1.09832e-13 1.02196e-13 3.83001e-13 1.19544e-13 0 0 1.05674e-13 8.34093e-14 3.00268e-13 1.5191e-13 0 0 1.15902e-13 1.06388e-13 2.55265e-13 1.67693e-13 0 0 9.68874e-14 1.87574e-13 2.78163e-13 7.66399e-14 0 0 7.30673e-14 2.1989e-13 3.22537e-13 -3.35129e-14 0 0 8.86262e-14 2.16981e-13 3.73935e-13 -1.3e-13 0 0 1.00915e-13 2.28722e-13 3.65722e-13 -1.14755e-13 0 0 1.33294e-13 2.32656e-13 2.83062e-13 -3.17913e-14 0 0 1.53206e-13 2.52122e-13 1.97603e-13 8.00384e-14 0 0 1.3843e-13 2.48761e-13 1.5805e-13 2.00937e-13 0 0 1.53708e-13 1.94659e-13 2.12368e-13 1.6904e-13 0 0 1.32363e-13 1.85815e-13 2.514e-13 1.69933e-13 0 0 5.58999e-14 2.54989e-13 1.74515e-13 1.76107e-13 0 0 6.28576e-14 2.4604e-13 1.35855e-13 1.85484e-13 0 0 1.03723e-13 8.56872e-14 3.53196e-13 7.68251e-14 0 0 8.16942e-14 1.1835e-13 3.3862e-13 1.83583e-14 0 0 6.58808e-14 2.41529e-13 1.54963e-13 2.05937e-13 0 0 9.92378e-14 2.55574e-13 1.82011e-13 2.83082e-13 0 0 1.49704e-13 2.49063e-13 2.32485e-13 2.74899e-13 0 0 2.0153e-13 2.16948e-13 3.23547e-13 2.71504e-13 0 0 1.42901e-13 3.4011e-13 2.95543e-13 3.02441e-13 0 0 9.95027e-14 4.35612e-13 2.42453e-13 4.16618e-13 0 0 9.5728e-14 4.05845e-13 3.7922e-13 3.54558e-13 0 0 1.16391e-13 3.24974e-13 5.86392e-13 2.4013e-13 0 0 1.74031e-13 2.40882e-13 7.05437e-13 2.21562e-13 0 0 8.66881e-14 4.10147e-13 5.67406e-13 3.18624e-13 0 0 1.47199e-13 3.91204e-13 5.83561e-13 3.62593e-13 0 0 2.12263e-13 3.56181e-13 6.56551e-13 3.34557e-13 0 0 1.54475e-13 4.55922e-13 6.70292e-13 2.32776e-13 0 0 1.92132e-13 4.34419e-13 6.86371e-13 2.34937e-13 0 0 1.60063e-13 5.60686e-13 5.22115e-13 3.62025e-13 0 0 1.98588e-13 5.93896e-13 4.92554e-13 3.34419e-13 0 0 3.09218e-13 4.90364e-13 6.48215e-13 1.55365e-13 0 0 3.96554e-13 4.35699e-13 7.08242e-13 1.1231e-13 0 0 4.12491e-13 5.60097e-13 5.12508e-13 3.04904e-13 0 0 4.45537e-13 6.32193e-13 3.61953e-13 4.44288e-13 0 0 4.32907e-13 6.5843e-13 3.31281e-13 4.31467e-13 0 0 4.7837e-13 5.35417e-13 5.73808e-13 1.64308e-13 0 0 4.85297e-13 5.23997e-13 6.25637e-13 1.50014e-13 0 0 4.35781e-13 6.76412e-13 3.89713e-13 3.7735e-13 0 0 5.17271e-13 6.55694e-13 3.512e-13 4.58088e-13 0 0 5.75888e-13 5.70249e-13 5.0665e-13 3.07083e-13 0 0 5.52683e-13 5.66154e-13 6.29523e-13 1.38728e-13 0 0 5.72049e-13 5.31118e-13 6.97561e-13 1.10729e-13 0 0 4.33235e-13 7.44235e-13 3.85347e-13 3.38339e-13 0 0 5.29536e-13 6.70946e-13 3.24491e-13 3.49304e-13 0 0 5.74677e-13 6.63392e-13 3.47708e-13 3.60199e-13 0 0 5.06116e-13 7.27629e-13 3.67551e-13 3.32359e-13 0 0 7.65015e-13 2.65e-13 8.57113e-13 -2.06606e-14 0 0 5.19119e-13 6.32033e-13 5.11718e-13 2.69332e-13 0 0 2.77016e-13 9.86833e-13 2.19946e-13 4.86475e-13 0 0 3.32394e-13 8.64371e-13 3.67935e-13 4.00433e-13 0 0 4.63553e-13 5.77657e-13 6.69084e-13 2.12953e-13 0 0 4.76476e-13 4.50986e-13 7.99223e-13 1.393e-13 0 0 3.21161e-13 7.52836e-13 3.47923e-13 4.74157e-13 0 0 4.33322e-13 6.15309e-13 5.04932e-13 4.23234e-13 0 0 4.69558e-13 5.11179e-13 6.69902e-13 3.12047e-13 0 0 2.17952e-13 7.92966e-13 3.07731e-13 5.78486e-13 0 0 2.76537e-13 6.07841e-13 5.40361e-13 3.40099e-13 0 0 4.29148e-13 5.39612e-13 4.70789e-13 4.00866e-13 0 0 2.47123e-13 8.07679e-13 1.77683e-13 7.40758e-13 0 0 2.49904e-13 5.01761e-13 7.59148e-13 3.26821e-13 0 0 1.89682e-13 5.79129e-13 6.36797e-13 3.94602e-13 0 0 2.04118e-13 6.29346e-13 4.30065e-13 5.43053e-13 0 0 1.87251e-13 4.77136e-13 6.84396e-13 2.99488e-13 0 0 1.88527e-13 3.24036e-13 9.81507e-13 -1.11847e-14 0 0 2.48716e-13 2.8386e-13 1.02029e-12 -6.08174e-14 0 0 6.25934e-14 5.98445e-13 5.20899e-13 3.90749e-13 0 0 1.44791e-13 4.54612e-13 5.29951e-13 5.64977e-13 0 0 1.58888e-13 4.63915e-13 5.65983e-13 6.01374e-13 0 0 -6.49262e-14 7.63422e-13 3.32712e-13 6.99965e-13 0 0 -2.41658e-13 9.66844e-13 3.21368e-13 5.09783e-13 0 0 -1.20185e-13 8.96104e-13 4.94657e-13 1.71411e-13 0 0 3.82177e-14 6.64264e-13 7.33663e-13 -8.24085e-14 0 0 1.25048e-13 4.96253e-13 6.97961e-13 5.98846e-14 0 0 2.36812e-13 4.23424e-13 6.86439e-13 9.33968e-14 0 0 2.47817e-13 4.12881e-13 8.89524e-13 -1.63594e-13 0
				</DataArray>
				<DataArray Name="VitesseY" type="Float32" format="ascii">