<?xml version="1.0"?>
<VTKFile type="PolyData">
	<PolyData>
		<Piece NumberOfPoints="1206" NumberOfPolys="1000">
			<Points>
				<DataArray type="Float32" NumberOfComponents="3" format="ascii">
 0 0 0 0.02 0 0 0.04 0 0 0.06 0 0 0.08 0 0 0.1 0 0 0 0.005 0 0.02 0.005 0 0.04 0.005 0 0.06 0.005 0 0.08 0.005 0 0.1 0.005 0 0 0.01 0 0.02 0.01 0 0.04 0.01 0 0.06 0.01 0 0.08 0.01 0 0.1 0.01 0 0 0.015 0 0.02 0.015 0 0.04 0.015 0 0.06 0.015 0 0.08 0.015 0 0.1 0.015 0 0 0.02 0 0.02 0.02 0 0.04 0.02 0 0.06 0.02 0 0.08 0.02 0 0.1 0.02 0 0 0.025 0 0.02 0.025 0 0.04 0.025 0 0.06 0.025 0 0.08 0.025 0 0.1 0.025 0 0 0.03 0 0.02 0.03 0 0.04 0.03 0 0.06 0.03 0 0.08 0.03 0 0.1 0.03 0 0 0.035 0 0.02 0.035 0 0.04 0.035 0 0.06 0.035 0 0.08 0.035 0 0.1 0.035 0 0 0.04 0 0.02 0.04 0 0.04 0.04 0 0.06 0.04 0 0.08 0.04 0 0.1 0.04 0 0 0.045 0 0.02 0.045 0 0.04 0.045 0 0.06 0.045 0 0.08 0.045 0 0.1 0.045 0 0 0.05 0 0.02 0.05 0 0.04 0.05 0 0.06 0.05 0 0.08 0.05 0 0.1 0.05 0 0 0.055 0 0.02 0.055 0 0.04 0.055 0 0.06 0.055 0 0.08 0.055 0 0.1 0.055 0 0 0.06 0 0.02 0.06 0 0.04 0.06 0 0.06 0.06 0 0.08 0.06 0 0.1 0.06 0 0 0.065 0 0.02 0.065 0 0.04 0.065 0 0.06 0.065 0 0.08 0.065 0 0.1 0.065 0 0 0.07 0 0.02 0.07 0 0.04 0.07 0 0.06 0.07 0 0.08 0.07 0 0.1 0.07 0 0 0.075 0 0.02 0.075 0 0.04 0.075 0 0.06 0.075 0 0.08 0.075 0 0.1 0.075 0 0 0.08 0 0.02 0.08 0 0.04 0.08 0 0.06 0.08 0 0.08 0.08 0 0.1 0.08 0 0 0.085 0 0.02 0.085 0 0.04 0.085 0 0.06 0.085 0 0.08 0.085 0 0.1 0.085 0 0 0.09 0 0.02 0.09 0 0.04 0.09 0 0.06 0.09 0 0.08 0.09 0 0.1 0.09 0 0 0.095 0 0.02 0.095 0 0.04 0.095 0 0.06 0.095 0 0.08 0.095 0 0.1 0.095 0 0 0.1 0 0.02 0.1 0 0.04 0.1 0 0.06 0.1 0 0.08 0.1 0 0.1 0.1 0 0 0.105 0 0.02 0.105 0 0.04 0.105 0 0.06 0.105 0 0.08 0.105 0 0.1 0.105 0 0 0.11 0 0.02 0.11 0 0.04 0.11 0 0.06 0.11 0 0.08 0.11 0 0.1 0.11 0 0 0.115 0 0.02 0.115 0 0.04 0.115 0 0.06 0.115 0 0.08 0.115 0 0.1 0.115 0 0 0.12 0 0.02 0.12 0 0.04 0.12 0 0.06 0.12 0 0.08 0.12 0 0.1 0.12 0 0 0.125 0 0.02 0.125 0 0.04 0.125 0 0.06 0.125 0 0.08 0.125 0 0.1 0.125 0 0 0.13 0 0.02 0.13 0 0.04 0.13 0 0.06 0.13 0 0.08 0.13 0 0.1 0.13 0 0 0.135 0 0.02 0.135 0 0.04 0.135 0 0.06 0.135 0 0.08 0.135 0 0.1 0.135 0 0 0.14 0 0.02 0.14 0 0.04 0.14 0 0.06 0.14 0 0.08 0.14 0 0.1 0.14 0 0 0.145 0 0.02 0.145 0 0.04 0.145 0 0.06 0.145 0 0.08 0.145 0 0.1 0.145 0 0 0.15 0 0.02 0.15 0 0.04 0.15 0 0.06 0.15 0 0.08 0.15 0 0.1 0.15 0 0 0.155 0 0.02 0.155 0 0.04 0.155 0 0.06 0.155 0 0.08 0.155 0 0.1 0.155 0 0 0.16 0 0.02 0.16 0 0.04 0.16 0 0.06 0.16 0 0.08 0.16 0 0.1 0.16 0 0 0.165 0 0.02 0.165 0 0.04 0.165 0 0.06 0.165 0 0.08 0.165 0 0.1 0.165 0 0 0.17 0 0.02 0.17 0 0.04 0.17 0 0.06 0.17 0 0.08 0.17 0 0.1 0.17 0 0 0.175 0 0.02 0.175 0 0.04 0.175 0 0.06 0.175 0 0.08 0.175 0 0.1 0.175 0 0 0.18 0 0.02 0.18 0 0.04 0.18 0 0.06 0.18 0 0.08 0.18 0 0.1 0.18 0 0 0.185 0 0.02 0.185 0 0.04 0.185 0 0.06 0.185 0 0.08 0.185 0 0.1 0.185 0 0 0.19 0 0.02 0.19 0 0.04 0.19 0 0.06 0.19 0 0.08 0.19 0 0.1 0.19 0 0 0.195 0 0.02 0.195 0 0.04 0.195 0 0.06 0.195 0 0.08 0.195 0 0.1 0.195 0 0 0.2 0 0.02 0.2 0 0.04 0.2 0 0.06 0.2 0 0.08 0.2 0 0.1 0.2 0 0 0.205 0 0.02 0.205 0 0.04 0.205 0 0.06 0.205 0 0.08 0.205 0 0.1 0.205 0 0 0.21 0 0.02 0.21 0 0.04 0.21 0 0.06 0.21 0 0.08 0.21 0 0.1 0.21 0 0 0.215 0 0.02 0.215 0 0.04 0.215 0 0.06 0.215 0 0.08 0.215 0 0.1 0.215 0 0 0.22 0 0.02 0.22 0 0.04 0.22 0 0.06 0.22 0 0.08 0.22 0 0.1 0.22 0 0 0.225 0 0.02 0.225 0 0.04 0.225 0 0.06 0.225 0 0.08 0.225 0 0.1 0.225 0 0 0.23 0 0.02 0.23 0 0.04 0.23 0 0.06 0.23 0 0.08 0.23 0 0.1 0.23 0 0 0.235 0 0.02 0.235 0 0.04 0.235 0 0.06 0.235 0 0.08 0.235 0 0.1 0.235 0 0 0.24 0 0.02 0.24 0 0.04 0.24 0 0.06 0.24 0 0.08 0.24 0 0.1 0.24 0 0 0.245 0 0.02 0.245 0 0.04 0.245 0 0.06 0.245 0 0.08 0.245 0 0.1 0.245 0 0 0.25 0 0.02 0.25 0 0.04 0.25 0 0.06 0.25 0 0.08 0.25 0 0.1 0.25 0 0 0.255 0 0.02 0.255 0 0.04 0.255 0 0.06 0.255 0 0.08 0.255 0 0.1 0.255 0 0 0.26 0 0.02 0.26 0 0.04 0.26 0 0.06 0.26 0 0.08 0.26 0 0.1 0.26 0 0 0.265 0 0.02 0.265 0 0.04 0.265 0 0.06 0.265 0 0.08 0.265 0 0.1 0.265 0 0 0.27 0 0.02 0.27 0 0.04 0.27 0 0.06 0.27 0 0.08 0.27 0 0.1 0.27 0 0 0.275 0 0.02 0.275 0 0.04 0.275 0 0.06 0.275 0 0.08 0.275 0 0.1 0.275 0 0 0.28 0 0.02 0.28 0 0.04 0.28 0 0.06 0.28 0 0.08 0.28 0 0.1 0.28 0 0 0.285 0 0.02 0.285 0 0.04 0.285 0 0.06 0.285 0 0.08 0.285 0 0.1 0.285 0 0 0.29 0 0.02 0.29 0 0.04 0.29 0 0.06 0.29 0 0.08 0.29 0 0.1 0.29 0 0 0.295 0 0.02 0.295 0 0.04 0.295 0 0.06 0.295 0 0.08 0.295 0 0.1 0.295 0 0 0.3 0 0.02 0.3 0 0.04 0.3 0 0.06 0.3 0 0.08 0.3 0 0.1 0.3 0 0 0.305 0 0.02 0.305 0 0.04 0.305 0 0.06 0.305 0 0.08 0.305 0 0.1 0.305 0 0 0.31 0 0.02 0.31 0 0.04 0.31 0 0.06 0.31 0 0.08 0.31 0 0.1 0.31 0 0 0.315 0 0.02 0.315 0 0.04 0.315 0 0.06 0.315 0 0.08 0.315 0 0.1 0.315 0 0 0.32 0 0.02 0.32 0 0.04 0.32 0 0.06 0.32 0 0.08 0.32 0 0.1 0.32 0 0 0.325 0 0.02 0.325 0 0.04 0.325 0 0.06 0.325 0 0.08 0.325 0 0.1 0.325 0 0 0.33 0 0.02 0.33 0 0.04 0.33 0 0.06 0.33 0 0.08 0.33 0 0.1 0.33 0 0 0.335 0 0.02 0.335 0 0.04 0.335 0 0.06 0.335 0 0.08 0.335 0 0.1 0.335 0 0 0.34 0 0.02 0.34 0 0.04 0.34 0 0.06 0.34 0 0.08 0.34 0 0.1 0.34 0 0 0.345 0 0.02 0.345 0 0.04 0.345 0 0.06 0.345 0 0.08 0.345 0 0.1 0.345 0 0 0.35 0 0.02 0.35 0 0.04 0.35 0 0.06 0.35 0 0.08 0.35 0 0.1 0.35 0 0 0.355 0 0.02 0.355 0 0.04 0.355 0 0.06 0.355 0 0.08 0.355 0 0.1 0.355 0 0 0.36 0 0.02 0.36 0 0.04 0.36 0 0.06 0.36 0 0.08 0.36 0 0.1 0.36 0 0 0.365 0 0.02 0.365 0 0.04 0.365 0 0.06 0.365 0 0.08 0.365 0 0.1 0.365 0 0 0.37 0 0.02 0.37 0 0.04 0.37 0 0.06 0.37 0 0.08 0.37 0 0.1 0.37 0 0 0.375 0 0.02 0.375 0 0.04 0.375 0 0.06 0.375 0 0.08 0.375 0 0.1 0.375 0 0 0.38 0 0.02 0.38 0 0.04 0.38 0 0.06 0.38 0 0.08 0.38 0 0.1 0.38 0 0 0.385 0 0.02 0.385 0 0.04 0.385 0 0.06 0.385 0 0.08 0.385 0 0.1 0.385 0 0 0.39 0 0.02 0.39 0 0.04 0.39 0 0.06 0.39 0 0.08 0.39 0 0.1 0.39 0 0 0.395 0 0.02 0.395 0 0.04 0.395 0 0.06 0.395 0 0.08 0.395 0 0.1 0.395 0 0 0.4 0 0.02 0.4 0 0.04 0.4 0 0.06 0.4 0 0.08 0.4 0 0.1 0.4 0 0 0.405 0 0.02 0.405 0 0.04 0.405 0 0.06 0.405 0 0.08 0.405 0 0.1 0.405 0 0 0.41 0 0.02 0.41 0 0.04 0.41 0 0.06 0.41 0 0.08 0.41 0 0.1 0.41 0 0 0.415 0 0.02 0.415 0 0.04 0.415 0 0.06 0.415 0 0.08 0.415 0 0.1 0.415 0 0 0.42 0 0.02 0.42 0 0.04 0.42 0 0.06 0.42 0 0.08 0.42 0 0.1 0.42 0 0 0.425 0 0.02 0.425 0 0.04 0.425 0 0.06 0.425 0 0.08 0.425 0 0.1 0.425 0 0 0.43 0 0.02 0.43 0 0.04 0.43 0 0.06 0.43 0 0.08 0.43 0 0.1 0.43 0 0 0.435 0 0.02 0.435 0 0.04 0.435 0 0.06 0.435 0 0.08 0.435 0 0.1 0.435 0 0 0.44 0 0.02 0.44 0 0.04 0.44 0 0.06 0.44 0 0.08 0.44 0 0.1 0.44 0 0 0.445 0 0.02 0.445 0 0.04 0.445 0 0.06 0.445 0 0.08 0.445 0 0.1 0.445 0 0 0.45 0 0.02 0.45 0 0.04 0.45 0 0.06 0.45 0 0.08 0.45 0 0.1 0.45 0 0 0.455 0 0.02 0.455 0 0.04 0.455 0 0.06 0.455 0 0.08 0.455 0 0.1 0.455 0 0 0.46 0 0.02 0.46 0 0.04 0.46 0 0.06 0.46 0 0.08 0.46 0 0.1 0.46 0 0 0.465 0 0.02 0.465 0 0.04 0.465 0 0.06 0.465 0 0.08 0.465 0 0.1 0.465 0 0 0.47 0 0.02 0.47 0 0.04 0.47 0 0.06 0.47 0 0.08 0.47 0 0.1 0.47 0 0 0.475 0 0.02 0.475 0 0.04 0.475 0 0.06 0.475 0 0.08 0.475 0 0.1 0.475 0 0 0.48 0 0.02 0.48 0 0.04 0.48 0 0.06 0.48 0 0.08 0.48 0 0.1 0.48 0 0 0.485 0 0.02 0.485 0 0.04 0.485 0 0.06 0.485 0 0.08 0.485 0 0.1 0.485 0 0 0.49 0 0.02 0.49 0 0.04 0.49 0 0.06 0.49 0 0.08 0.49 0 0.1 0.49 0 0 0.495 0 0.02 0.495 0 0.04 0.495 0 0.06 0.495 0 0.08 0.495 0 0.1 0.495 0 0 0.5 0 0.02 0.5 0 0.04 0.5 0 0.06 0.5 0 0.08 0.5 0 0.1 0.5 0 0 0.505 0 0.02 0.505 0 0.04 0.505 0 0.06 0.505 0 0.08 0.505 0 0.1 0.505 0 0 0.51 0 0.02 0.51 0 0.04 0.51 0 0.06 0.51 0 0.08 0.51 0 0.1 0.51 0 0 0.515 0 0.02 0.515 0 0.04 0.515 0 0.06 0.515 0 0.08 0.515 0 0.1 0.515 0 0 0.52 0 0.02 0.52 0 0.04 0.52 0 0.06 0.52 0 0.08 0.52 0 0.1 0.52 0 0 0.525 0 0.02 0.525 0 0.04 0.525 0 0.06 0.525 0 0.08 0.525 0 0.1 0.525 0 0 0.53 0 0.02 0.53 0 0.04 0.53 0 0.06 0.53 0 0.08 0.53 0 0.1 0.53 0 0 0.535 0 0.02 0.535 0 0.04 0.535 0 0.06 0.535 0 0.08 0.535 0 0.1 0.535 0 0 0.54 0 0.02 0.54 0 0.04 0.54 0 0.06 0.54 0 0.08 0.54 0 0.1 0.54 0 0 0.545 0 0.02 0.545 0 0.04 0.545 0 0.06 0.545 0 0.08 0.545 0 0.1 0.545 0 0 0.55 0 0.02 0.55 0 0.04 0.55 0 0.06 0.55 0 0.08 0.55 0 0.1 0.55 0 0 0.555 0 0.02 0.555 0 0.04 0.555 0 0.06 0.555 0 0.08 0.555 0 0.1 0.555 0 0 0.56 0 0.02 0.56 0 0.04 0.56 0 0.06 0.56 0 0.08 0.56 0 0.1 0.56 0 0 0.565 0 0.02 0.565 0 0.04 0.565 0 0.06 0.565 0 0.08 0.565 0 0.1 0.565 0 0 0.57 0 0.02 0.57 0 0.04 0.57 0 0.06 0.57 0 0.08 0.57 0 0.1 0.57 0 0 0.575 0 0.02 0.575 0 0.04 0.575 0 0.06 0.575 0 0.08 0.575 0 0.1 0.575 0 0 0.58 0 0.02 0.58 0 0.04 0.58 0 0.06 0.58 0 0.08 0.58 0 0.1 0.58 0 0 0.585 0 0.02 0.585 0 0.04 0.585 0 0.06 0.585 0 0.08 0.585 0 0.1 0.585 0 0 0.59 0 0.02 0.59 0 0.04 0.59 0 0.06 0.59 0 0.08 0.59 0 0.1 0.59 0 0 0.595 0 0.02 0.595 0 0.04 0.595 0 0.06 0.595 0 0.08 0.595 0 0.1 0.595 0 0 0.6 0 0.02 0.6 0 0.04 0.6 0 0.06 0.6 0 0.08 0.6 0 0.1 0.6 0 0 0.605 0 0.02 0.605 0 0.04 0.605 0 0.06 0.605 0 0.08 0.605 0 0.1 0.605 0 0 0.61 0 0.02 0.61 0 0.04 0.61 0 0.06 0.61 0 0.08 0.61 0 0.1 0.61 0 0 0.615 0 0.02 0.615 0 0.04 0.615 0 0.06 0.615 0 0.08 0.615 0 0.1 0.615 0 0 0.62 0 0.02 0.62 0 0.04 0.62 0 0.06 0.62 0 0.08 0.62 0 0.1 0.62 0 0 0.625 0 0.02 0.625 0 0.04 0.625 0 0.06 0.625 0 0.08 0.625 0 0.1 0.625 0 0 0.63 0 0.02 0.63 0 0.04 0.63 0 0.06 0.63 0 0.08 0.63 0 0.1 0.63 0 0 0.635 0 0.02 0.635 0 0.04 0.635 0 0.06 0.635 0 0.08 0.635 0 0.1 0.635 0 0 0.64 0 0.02 0.64 0 0.04 0.64 0 0.06 0.64 0 0.08 0.64 0 0.1 0.64 0 0 0.645 0 0.02 0.645 0 0.04 0.645 0 0.06 0.645 0 0.08 0.645 0 0.1 0.645 0 0 0.65 0 0.02 0.65 0 0.04 0.65 0 0.06 0.65 0 0.08 0.65 0 0.1 0.65 0 0 0.655 0 0.02 0.655 0 0.04 0.655 0 0.06 0.655 0 0.08 0.655 0 0.1 0.655 0 0 0.66 0 0.02 0.66 0 0.04 0.66 0 0.06 0.66 0 0.08 0.66 0 0.1 0.66 0 0 0.665 0 0.02 0.665 0 0.04 0.665 0 0.06 0.665 0 0.08 0.665 0 0.1 0.665 0 0 0.67 0 0.02 0.67 0 0.04 0.67 0 0.06 0.67 0 0.08 0.67 0 0.1 0.67 0 0 0.675 0 0.02 0.675 0 0.04 0.675 0 0.06 0.675 0 0.08 0.675 0 0.1 0.675 0 0 0.68 0 0.02 0.68 0 0.04 0.68 0 0.06 0.68 0 0.08 0.68 0 0.1 0.68 0 0 0.685 0 0.02 0.685 0 0.04 0.685 0 0.06 0.685 0 0.08 0.685 0 0.1 0.685 0 0 0.69 0 0.02 0.69 0 0.04 0.69 0 0.06 0.69 0 0.08 0.69 0 0.1 
[...]
			<PointData Scalars="VitesseX">
				<DataArray Name="VitesseX" type="Float32" format="ascii">
 0 -2.78624e-14 6.37327e-15 1.11644e-14 -2.1772e-14 0 0 -1.92779e-14 -6.20247e-15 2.22779e-14 -2.91459e-14 0 0 -1.8635e-14 -2.56476e-16 9.7352e-15 -2.26047e-14 0 0 -8.32281e-15 -4.66493e-15 -4.23137e-15 -7.23823e-15 0 0 1.67655e-14 -4.05345e-14 1.49554e-14 -3.29729e-15 0 0 7.01628e-15 -3.12146e-14 1.12376e-14 1.34669e-14 0 0 -3.56298e-14 2.70766e-14 -1.80995e-14 3.75572e-14 0 0 -5.82745e-14 5.59918e-14 -1.36136e-14 3.4409e-14 0 0 -3.36629e-14 2.64349e-14 2.38851e-14 1.86488e-14 0 0 1.11305e-14 -2.27293e-14 6.36213e-14 1.28838e-15 0 0 4.39919e-14 -6.34246e-14 1.06915e-13 -2.75527e-14 0 0 1.67977e-14 -1.07297e-14 5.3483e-14 2.61412e-15 0 0 4.9032e-15 2.28439e-14 1.53853e-14 2.0596e-14 0 0 1.09462e-14 7.94131e-15 2.38478e-14 1.21913e-14 0 0 2.52461e-14 -2.7187e-14 3.62666e-14 -2.48285e-16 0 0 3.50675e-14 -3.86581e-14 2.87379e-14 -1.28589e-14 0 0 2.75913e-15 1.84932e-14 -3.71488e-14 4.92504e-15 0 0 5.96289e-14 -6.89493e-14 1.90022e-14 -1.14693e-14 0 0 8.80859e-14 -1.17048e-13 7.61342e-14 -3.70784e-14 0 0 2.54704e-15 -9.07757e-15 3.63714e-14 -4.24288e-14 0 0 -5.81562e-14 6.27867e-14 7.47574e-15 -5.70235e-14 0 0 -4.21455e-14 5.38934e-14 -8.04103e-15 -5.9693e-14 0 0 1.59279e-14 -4.09384e-14 4.36067e-14 -6.32133e-14 0 0 -4.7428e-15 -3.31543e-14 1.44687e-14 -1.23414e-14 0 0 -8.06993e-14 3.34808e-14 -3.01786e-14 2.21291e-14 0 0 -1.09423e-13 2.97082e-14 -7.16567e-15 7.50752e-15 0 0 -4.81029e-14 -3.61762e-14 -2.46397e-15 3.8141e-14 0 0 3.40624e-14 -1.37935e-13 5.41459e-14 3.01546e-14 0 0 -2.74332e-14 -4.08637e-14 -2.21349e-14 5.98593e-14 0 0 -9.40398e-14 6.78954e-14 -9.70697e-14 8.18289e-14 0 0 -8.74645e-14 5.82815e-14 -6.16055e-14 6.64927e-14 0 0 -3.66875e-14 -1.14476e-14 -1.20214e-14 8.38045e-14 0 0 7.70156e-15 -6.53269e-14 2.50019e-14 1.00097e-13 0 0 1.35355e-14 -7.38589e-14 8.70087e-14 2.37496e-14 0 0 -1.8813e-14 -1.84854e-14 9.8758e-14 -3.72454e-14 0 0 -8.3812e-14 1.17586e-13 -2.62995e-14 2.81152e-17 0 0 -2.14221e-14 6.32837e-14 -2.22266e-14 -5.53532e-15 0 0 5.28849e-14 -8.99604e-14 1.35005e-13 -9.56099e-14 0 0 6.38583e-14 -1.60595e-13 2.28651e-13 -1.59518e-13 0 0 -3.22872e-14 -2.33432e-14 1.10197e-13 -8.43174e-14 0 0 -1.05716e-13 1.21965e-13 -4.14817e-14 -1.64062e-14 0 0 -6.11007e-14 6.58672e-14 1.86568e-14 -8.0309e-14 0 0 -8.49181e-14 5.15932e-14 4.88964e-14 -7.52364e-14 0 0 -2.44455e-13 2.33805e-13 -1.0515e-13 3.27107e-14 0 0 -2.58117e-13 2.08927e-13 -7.17537e-14 5.80388e-15 0 0 -1.3858e-13 3.01187e-14 6.30653e-14 -6.95241e-14 0 0 -8.34581e-15 -1.26761e-13 1.51915e-13 -8.92818e-14 0 0 5.36088e-14 -1.81439e-13 2.20855e-13 -1.82596e-13 0 0 -6.01849e-14 1.85302e-14 1.1705e-13 -2.34268e-13 0 0 -2.61593e-13 3.58449e-13 -1.16378e-13 -1.98315e-13 0 0 -3.75672e-13 5.84325e-13 -3.1171e-13 -9.8311e-14 0 0 -1.06736e-13 2.95865e-13 -2.10639e-13 -5.28898e-14 0 0 1.17705e-13 2.74984e-14 -1.7341e-14 -2.10304e-13 0 0 1.21702e-13 -1.58739e-14 1.28055e-13 -4.21779e-13 0 0 -8.97962e-14 1.42065e-13 6.38087e-14 -3.91457e-13 0 0 -2.72111e-13 2.63871e-13 -4.49728e-14 -2.82828e-13 0 0 -4.89314e-14 1.48665e-14 8.22543e-14 -3.61467e-13 0 0 8.6649e-16 3.90168e-14 -4.00276e-14 -2.76469e-13 0 0 -2.85544e-14 1.05765e-13 -1.88885e-13 -1.16516e-13 0 0 -8.37127e-14 1.4738e-13 -1.84858e-13 -1.3654e-13 0 0 -1.45336e-13 1.05179e-13 -3.12901e-14 -2.88754e-13 0 0 -2.23229e-14 -8.2568e-14 4.06364e-14 -3.05868e-13 0 0 -4.38166e-14 3.85192e-14 -1.91968e-13 -1.49787e-13 0 0 -9.51021e-14 1.53182e-13 -3.0496e-13 -6.64484e-14 0 0 -9.75763e-14 1.25008e-13 -2.91908e-13 3.11543e-14 0 0 -1.30205e-14 -5.55732e-14 -1.10276e-13 3.47674e-14 0 0 6.84567e-14 -2.25391e-13 1.29056e-13 -4.27073e-14 0 0 -1.53418e-13 6.3313e-14 3.74459e-14 -1.0472e-14 0 0 -1.96177e-13 2.37586e-13 -9.05417e-14 4.48319e-14 0 0 -2.39232e-14 9.43511e-14 -2.38397e-14 2.66884e-14 0 0 -2.35587e-14 1.20512e-13 -4.20364e-14 2.39887e-15 0 0 -1.99733e-14 1.43835e-13 2.50848e-14 -1.79618e-13 0 0 -1.5555e-13 3.35254e-13 -2.30296e-14 -3.64068e-13 0 0 -1.36718e-13 3.58351e-13 -9.55768e-14 -3.32048e-13 0 0 2.74628e-14 1.49148e-13 9.02612e-15 -2.27219e-13 0 0 1.87925e-13 -1.15593e-13 2.28226e-13 -2.39992e-13 0 0 9.39402e-14 1.15213e-14 1.55436e-13 -2.10651e-13 0 0 -2.00371e-13 5.12208e-13 -2.89169e-13 5.70902e-14 0 0 2.30423e-14 2.67915e-13 -6.916e-14 1.4892e-14 0 0 9.46624e-14 1.76652e-13 -1.5698e-14 3.58555e-14 0 0 1.01031e-13 1.72418e-13 -1.54585e-13 2.02594e-13 0 0 2.83231e-13 -2.41022e-13 2.4058e-13 2.09062e-14 0 0 -2.79752e-16 -1.03454e-13 3.96779e-13 -2.02746e-13 0 0 -9.88394e-14 -1.49338e-14 2.62119e-13 -2.87629e-14 0 0 -8.6349e-14 8.26e-14 -8.93789e-14 3.954e-13 0 0 -9.10371e-14 4.15072e-14 -7.10584e-14 3.6619e-13 0 0 3.67709e-13 -5.27635e-13 2.03439e-13 2.00558e-13 0 0 4.94824e-14 -3.25197e-13 1.79369e-14 3.12707e-13 0 0 -8.27745e-13 3.71859e-13 -2.55405e-13 3.38451e-13 0 0 -3.80699e-13 -5.44334e-15 -1.12798e-13 5.19338e-13 0 0 1.94923e-13 -5.65558e-13 1.48478e-13 6.24232e-13 0 0 1.53055e-13 -4.99764e-13 2.04421e-13 4.30232e-13 0 0 -1.69111e-13 -2.53756e-13 2.77257e-13 7.35396e-14 0 0 -9.09907e-13 5.52887e-13 8.41101e-14 -2.38768e-13 0 0 -6.73281e-13 4.80035e-13 8.65559e-14 -1.95181e-13 0 0 4.61082e-14 1.41103e-14 3.24224e-13 -2.35656e-13 0 0 -2.08618e-14 -6.6543e-14 2.21695e-13 -1.47749e-13 0 0 -5.78911e-15 -1.07466e-13 2.98359e-14 5.90733e-16 0 0 8.79209e-14 -2.66e-13 -1.18846e-13 1.72965e-13 0 0 4.32891e-14 -2.54731e-13 -2.14745e-13 1.998e-13 0 0 -1.38498e-13 -8.25569e-14 -2.36698e-13 1.72248e-13 0 0 -2.72867e-13 1.17207e-13 -2.61239e-13 7.84515e-14 0 0 -2.73749e-13 2.84319e-13 -2.79042e-13 -4.25161e-14 0 0 -2.07945e-13 4.69235e-13 -3.65151e-13 -5.26706e-14 0 0 -1.49287e-13 6.41666e-13 -6.1879e-13 -2.54928e-14 0 0 -1.07603e-13 6.6745e-13 -6.92783e-13 -4.69952e-14 0 0 -6.31352e-14 6.01698e-13 -6.46081e-13 -1.20548e-13 0 0 3.86742e-14 1.83362e-13 -3.33068e-13 -3.97585e-13 0 0 5.87377e-14 -3.09506e-13 -8.37334e-14 -4.99411e-13 0 0 4.30704e-15 -4.08822e-13 -9.72462e-14 -4.63209e-13 0 0 -1.11704e-13 -4.78045e-13 -1.04056e-13 -3.53269e-13 0 0 -1.93563e-13 -4.86219e-13 -1.31548e-13 -2.56783e-13 0 0 -2.22145e-13 -4.69454e-13 -1.67245e-13 -1.4912e-13 0 0 -2.37429e-13 -2.73112e-13 -3.733e-13 1.20128e-13 0 0 -2.21205e-13 -2.17111e-13 -3.8296e-13 1.64409e-13 0 0 -9.22825e-14 -3.11543e-13 -1.53593e-13 6.57757e-14 0 0 -1.15462e-13 -2.04313e-13 -1.2423e-13 -1.05649e-14 0 0 -2.55162e-13 1.09996e-13 -3.25705e-13 3.18818e-14 0 0 -1.45425e-13 7.0181e-14 -3.00376e-13 5.31192e-14 0 0 -1.91614e-14 -4.84128e-14 -1.56492e-13 -1.32499e-14 0 0 4.73321e-14 -1.51314e-13 2.07859e-15 -1.108e-13 0 0 -7.9038e-14 4.23992e-14 -1.4423e-13 -1.49429e-14 0 0 -2.57071e-13 3.5033e-13 -4.27115e-13 1.21447e-13 0 0 2.16737e-14 -5.33418e-14 -2.47303e-14 -1.47608e-13 0 0 1.28194e-13 -1.72779e-13 6.28776e-14 -1.75234e-13 0 0 8.80309e-14 -1.71086e-13 9.24486e-14 -1.70485e-13 0 0 -5.57692e-14 -3.14241e-14 -1.72141e-14 -1.36073e-13 0 0 -2.56034e-13 3.13126e-13 -3.93825e-13 8.27025e-14 0 0 -5.4528e-14 4.51463e-14 -2.1189e-13 1.07374e-14 0 0 1.28862e-13 -1.9043e-13 -6.27329e-14 -8.39256e-14 0 0 1.51597e-13 -2.28115e-13 -4.20791e-14 -1.23236e-13 0 0 -6.92586e-14 3.46518e-14 -2.64168e-13 -2.65988e-14 0 0 -3.35539e-13 3.60513e-13 -5.09911e-13 7.08255e-14 0 0 -1.52085e-13 7.82043e-14 -2.86409e-13 -5.59385e-15 0 0 1.0359e-13 -2.26856e-13 -2.28036e-13 6.36163e-14 0 0 7.2517e-15 -2.94173e-13 -1.18424e-13 -4.59366e-14 0 0 -2.16684e-13 -1.23545e-13 -1.28279e-13 -1.32113e-13 0 0 -2.58683e-13 5.26235e-14 -3.1082e-13 -7.38653e-14 0 0 -1.60624e-13 -1.43204e-13 -6.52773e-14 -2.2989e-13 0 0 -1.92001e-13 -1.03677e-13 -1.2835e-13 -1.16699e-13 0 0 -1.55533e-13 -2.42331e-13 1.09846e-13 -2.44377e-13 0 0 -1.54202e-13 -3.52205e-13 4.04251e-13 -4.05995e-13 0 0 -5.95023e-13 3.29444e-13 -2.7656e-13 1.8535e-13 0 0 -6.88629e-13 3.99439e-13 -2.74927e-13 2.6194e-13 0 0 -1.50718e-13 -4.53592e-13 5.97302e-13 -1.97898e-13 0 0 1.12997e-13 -6.17168e-13 5.70182e-13 -6.87317e-14 0 0 -1.33867e-13 -1.1859e-14 2.26654e-14 1.90669e-13 0 0 -5.06506e-13 6.10751e-13 -3.19225e-13 2.23622e-13 0 0 -4.76219e-13 5.32018e-13 -1.53032e-13 1.62605e-13 0 0 5.43373e-14 -5.14786e-13 9.8251e-13 -3.75775e-13 0 0 2.73887e-14 -5.22025e-13 1.04342e-12 -4.9391e-13 0 0 -4.14767e-13 2.6103e-13 9.89157e-14 6.91066e-14 0 0 -5.16063e-13 4.67302e-13 -4.28228e-13 5.63394e-13 0 0 -3.73996e-13 1.82824e-13 -3.59455e-13 5.53362e-13 0 0 2.85077e-14 -4.8163e-13 8.06723e-14 3.05838e-13 0 0 6.62594e-14 -5.59155e-13 1.34703e-13 1.94634e-13 0 0 -2.54833e-13 -1.94577e-13 7.49909e-14 1.84917e-14 0 0 -6.09067e-13 1.46683e-13 -1.42909e-13 8.26508e-14 0 0 -5.42355e-13 -9.28873e-14 2.08286e-14 -1.47499e-13 0 0 2.40753e-13 -1.15523e-12 7.10898e-13 -6.95194e-13 0 0 3.86005e-13 -1.30003e-12 6.41578e-13 -7.92009e-13 0 0 -6.94072e-13 3.36306e-13 -8.85317e-13 -4.83188e-14 0 0 -1.2953e-12 1.18794e-12 -1.65972e-12 5.69382e-13 0 0 -4.55297e-13 -1.04335e-14 -5.0312e-13 1.06462e-13 0 0 4.14064e-13 -1.28204e-12 7.88545e-13 -5.48828e-13 0 0 1.52821e-13 -1.05096e-12 7.31392e-13 -3.58443e-13 0 0 -4.66211e-13 -9.11125e-14 -3.53562e-13 3.83791e-13 0 0 -5.37495e-13 2.70783e-13 -1.34977e-12 1.04737e-12 0 0 -2.18791e-13 -1.34365e-13 -1.35699e-12 9.89298e-13 0 0 -4.27641e-13 8.29446e-15 -1.28112e-12 8.85857e-13 0 0 -5.89596e-13 3.84979e-14 -9.157e-13 6.25582e-13 0 0 -1.46984e-14 -9.52981e-13 1.43268e-13 -5.47447e-14 0 0 1.43654e-13 -9.89207e-13 2.76402e-14 -1.87652e-13 0 0 -2.70001e-13 -3.07165e-13 -3.93067e-13 -4.27522e-13 0 0 -7.22692e-13 2.85985e-13 -7.15183e-13 -4.27712e-13 0 0 -4.78419e-13 -7.02197e-14 -5.1224e-13 -2.85337e-13 0 0 5.30248e-14 -8.59202e-13 4.915e-15 -3.78287e-13 0 0 4.82922e-15 -7.57981e-13 -2.40423e-13 -4.12813e-14 0 0 -4.24344e-13 -2.31915e-13 -5.28737e-13 2.15893e-13 0 0 -8.1596e-13 3.13227e-13 -7.05492e-13 1.35533e-13 0 0 -5.24681e-13 -6.43865e-15 -3.49776e-13 -9.79125e-14 0 0 1.19666e-13 -8.9596e-13 3.66216e-13 -4.96819e-13 0 0 3.84884e-14 -7.77741e-13 6.96368e-14 -2.9985e-13 0 0 -4.24659e-13 -2.5653e-13 -2.98429e-13 -2.36079e-13 0 0 -6.57597e-13 8.86267e-14 -4.34911e-13 -4.18283e-13 0 0 -4.83582e-13 -9.68549e-14 -2.93594e-13 -5.00008e-13 0 0 7.28883e-14 -9.27247e-13 4.55388e-13 -9.19759e-13 0 0 -1.04998e-13 -7.79169e-13 3.10077e-13 -6.69505e-13 0 0 -8.02884e-13 -1.33031e-13 -5.2781e-14 -2.49053e-13 0 0 -1.19297e-12 4.67586e-13 -5.77572e-13 2.18077e-14 0 0 -5.62502e-13 -2.8241e-13 -5.7812e-15 -3.87686e-13 0 0 -2.39579e-14 -9.74875e-13 5.67387e-13 -8.19822e-13 0 0 -9.29906e-13 3.92163e-13 -6.0892e-13 -2.44869e-13 0 0 -1.46542e-12 1.03376e-12 -6.62387e-13 -3.48302e-13 0 0 -4.9987e-13 -3.3447e-13 7.88271e-13 -1.20864e-12 0 0 4.48151e-13 -1.49802e-12 1.60928e-12 -1.62769e-12 0 0 8.48957e-14 -8.32231e-13 1.00023e-12 -1.33622e-12 0 0 -1.24766e-12 1.03136e-12 -4.38775e-13 -7.29578e-13 0 0 -1.35881e-12 1.16599e-12 -5.56735e-13 -8.72127e-13 0 0 6.05346e-14 -8.25818e-13 8.34492e-13 -1.47825e-12 0 0 7.51532e-13 -1.78634e-12 1.4334e-12 -1.58883e-12 0
				</DataArray>
				<DataArray Name="VitesseY" type="Float32" format="ascii">