<?xml version="1.0"?>
<VTKFile type="PolyData">
	<PolyData>
		<Piece NumberOfPoints="1206" NumberOfPolys="1000">
			<Points>
				<DataArray type="Float32" NumberOfComponents="3" format="ascii">
 0 0 0 0.02 0 0 0.04 0 0 0.06 0 0 0.08 0 0 0.1 0 0 0 0.005 0 0.02 0.005 0 0.04 0.005 0 0.06 0.005 0 0.08 0.005 0 0.1 0.005 0 0 0.01 0 0.02 0.01 0 0.04 0.01 0 0.06 0.01 0 0.08 0.01 0 0.1 0.01 0 0 0.015 0 0.02 0.015 0 0.04 0.015 0 0.06 0.015 0 0.08 0.015 0 0.1 0.015 0 0 0.02 0 0.02 0.02 0 0.04 0.02 0 0.06 0.02 0 0.08 0.02 0 0.1 0.02 0 0 0.025 0 0.02 0.025 0 0.04 0.025 0 0.06 0.025 0 0.08 0.025 0 0.1 0.025 0 0 0.03 0 0.02 0.03 0 0.04 0.03 0 0.06 0.03 0 0.08 0.03 0 0.1 0.03 0 0 0.035 0 0.02 0.035 0 0.04 0.035 0 0.06 0.035 0 0.08 0.035 0 0.1 0.035 0 0 0.04 0 0.02 0.04 0 0.04 0.04 0 0.06 0.04 0 0.08 0.04 0 0.1 0.04 0 0 0.045 0 0.02 0.045 0 0.04 0.045 0 0.06 0.045 0 0.08 0.045 0 0.1 0.045 0 0 0.05 0 0.02 0.05 0 0.04 0.05 0 0.06 0.05 0 0.08 0.05 0 0.1 0.05 0 0 0.055 0 0.02 0.055 0 0.04 0.055 0 0.06 0.055 0 0.08 0.055 0 0.1 0.055 0 0 0.06 0 0.02 0.06 0 0.04 0.06 0 0.06 0.06 0 0.08 0.06 0 0.1 0.06 0 0 0.065 0 0.02 0.065 0 0.04 0.065 0 0.06 0.065 0 0.08 0.065 0 0.1 0.065 0 0 0.07 0 0.02 0.07 0 0.04 0.07 0 0.06 0.07 0 0.08 0.07 0 0.1 0.07 0 0 0.075 0 0.02 0.075 0 0.04 0.075 0 0.06 0.075 0 0.08 0.075 0 0.1 0.075 0 0 0.08 0 0.02 0.08 0 0.04 0.08 0 0.06 0.08 0 0.08 0.08 0 0.1 0.08 0 0 0.085 0 0.02 0.085 0 0.04 0.085 0 0.06 0.085 0 0.08 0.085 0 0.1 0.085 0 0 0.09 0 0.02 0.09 0 0.04 0.09 0 0.06 0.09 0 0.08 0.09 0 0.1 0.09 0 0 0.095 0 0.02 0.095 0 0.04 0.095 0 0.06 0.095 0 0.08 0.095 0 0.1 0.095 0 0 0.1 0 0.02 0.1 0 0.04 0.1 0 0.06 0.1 0 0.08 0.1 0 0.1 0.1 0 0 0.105 0 0.02 0.105 0 0.04 0.105 0 0.06 0.105 0 0.08 0.105 0 0.1 0.105 0 0 0.11 0 0.02 0.11 0 0.04 0.11 0 0.06 0.11 0 0.08 0.11 0 0.1 0.11 0 0 0.115 0 0.02 0.115 0 0.04 0.115 0 0.06 0.115 0 0.08 0.115 0 0.1 0.115 0 0 0.12 0 0.02 0.12 0 0.04 0.12 0 0.06 0.12 0 0.08 0.12 0 0.1 0.12 0 0 0.125 0 0.02 0.125 0 0.04 0.125 0 0.06 0.125 0 0.08 0.125 0 0.1 0.125 0 0 0.13 0 0.02 0.13 0 0.04 0.13 0 0.06 0.13 0 0.08 0.13 0 0.1 0.13 0 0 0.135 0 0.02 0.135 0 0.04 0.135 0 0.06 0.135 0 0.08 0.135 0 0.1 0.135 0 0 0.14 0 0.02 0.14 0 0.04 0.14 0 0.06 0.14 0 0.08 0.14 0 0.1 0.14 0 0 0.145 0 0.02 0.145 0 0.04 0.145 0 0.06 0.145 0 0.08 0.145 0 0.1 0.145 0 0 0.15 0 0.02 0.15 0 0.04 0.15 0 0.06 0.15 0 0.08 0.15 0 0.1 0.15 0 0 0.155 0 0.02 0.155 0 0.04 0.155 0 0.06 0.155 0 0.08 0.155 0 0.1 0.155 0 0 0.16 0 0.02 0.16 0 0.04 0.16 0 0.06 0.16 0 0.08 0.16 0 0.1 0.16 0 0 0.165 0 0.02 0.165 0 0.04 0.165 0 0.06 0.165 0 0.08 0.165 0 0.1 0.165 0 0 0.17 0 0.02 0.17 0 0.04 0.17 0 0.06 0.17 0 0.08 0.17 0 0.1 0.17 0 0 0.175 0 0.02 0.175 0 0.04 0.175 0 0.06 0.175 0 0.08 0.175 0 0.1 0.175 0 0 0.18 0 0.02 0.18 0 0.04 0.18 0 0.06 0.18 0 0.08 0.18 0 0.1 0.18 0 0 0.185 0 0.02 0.185 0 0.04 0.185 0 0.06 0.185 0 0.08 0.185 0 0.1 0.185 0 0 0.19 0 0.02 0.19 0 0.04 0.19 0 0.06 0.19 0 0.08 0.19 0 0.1 0.19 0 0 0.195 0 0.02 0.195 0 0.04 0.195 0 0.06 0.195 0 0.08 0.195 0 0.1 0.195 0 0 0.2 0 0.02 0.2 0 0.04 0.2 0 0.06 0.2 0 0.08 0.2 0 0.1 0.2 0 0 0.205 0 0.02 0.205 0 0.04 0.205 0 0.06 0.205 0 0.08 0.205 0 0.1 0.205 0 0 0.21 0 0.02 0.21 0 0.04 0.21 0 0.06 0.21 0 0.08 0.21 0 0.1 0.21 0 0 0.215 0 0.02 0.215 0 0.04 0.215 0 0.06 0.215 0 0.08 0.215 0 0.1 0.215 0 0 0.22 0 0.02 0.22 0 0.04 0.22 0 0.06 0.22 0 0.08 0.22 0 0.1 0.22 0 0 0.225 0 0.02 0.225 0 0.04 0.225 0 0.06 0.225 0 0.08 0.225 0 0.1 0.225 0 0 0.23 0 0.02 0.23 0 0.04 0.23 0 0.06 0.23 0 0.08 0.23 0 0.1 0.23 0 0 0.235 0 0.02 0.235 0 0.04 0.235 0 0.06 0.235 0 0.08 0.235 0 0.1 0.235 0 0 0.24 0 0.02 0.24 0 0.04 0.24 0 0.06 0.24 0 0.08 0.24 0 0.1 0.24 0 0 0.245 0 0.02 0.245 0 0.04 0.245 0 0.06 0.245 0 0.08 0.245 0 0.1 0.245 0 0 0.25 0 0.02 0.25 0 0.04 0.25 0 0.06 0.25 0 0.08 0.25 0 0.1 0.25 0 0 0.255 0 0.02 0.255 0 0.04 0.255 0 0.06 0.255 0 0.08 0.255 0 0.1 0.255 0 0 0.26 0 0.02 0.26 0 0.04 0.26 0 0.06 0.26 0 0.08 0.26 0 0.1 0.26 0 0 0.265 0 0.02 0.265 0 0.04 0.265 0 0.06 0.265 0 0.08 0.265 0 0.1 0.265 0 0 0.27 0 0.02 0.27 0 0.04 0.27 0 0.06 0.27 0 0.08 0.27 0 0.1 0.27 0 0 0.275 0 0.02 0.275 0 0.04 0.275 0 0.06 0.275 0 0.08 0.275 0 0.1 0.275 0 0 0.28 0 0.02 0.28 0 0.04 0.28 0 0.06 0.28 0 0.08 0.28 0 0.1 0.28 0 0 0.285 0 0.02 0.285 0 0.04 0.285 0 0.06 0.285 0 0.08 0.285 0 0.1 0.285 0 0 0.29 0 0.02 0.29 0 0.04 0.29 0 0.06 0.29 0 0.08 0.29 0 0.1 0.29 0 0 0.295 0 0.02 0.295 0 0.04 0.295 0 0.06 0.295 0 0.08 0.295 0 0.1 0.295 0 0 0.3 0 0.02 0.3 0 0.04 0.3 0 0.06 0.3 0 0.08 0.3 0 0.1 0.3 0 0 0.305 0 0.02 0.305 0 0.04 0.305 0 0.06 0.305 0 0.08 0.305 0 0.1 0.305 0 0 0.31 0 0.02 0.31 0 0.04 0.31 0 0.06 0.31 0 0.08 0.31 0 0.1 0.31 0 0 0.315 0 0.02 0.315 0 0.04 0.315 0 0.06 0.315 0 0.08 0.315 0 0.1 0.315 0 0 0.32 0 0.02 0.32 0 0.04 0.32 0 0.06 0.32 0 0.08 0.32 0 0.1 0.32 0 0 0.325 0 0.02 0.325 0 0.04 0.325 0 0.06 0.325 0 0.08 0.325 0 0.1 0.325 0 0 0.33 0 0.02 0.33 0 0.04 0.33 0 0.06 0.33 0 0.08 0.33 0 0.1 0.33 0 0 0.335 0 0.02 0.335 0 0.04 0.335 0 0.06 0.335 0 0.08 0.335 0 0.1 0.335 0 0 0.34 0 0.02 0.34 0 0.04 0.34 0 0.06 0.34 0 0.08 0.34 0 0.1 0.34 0 0 0.345 0 0.02 0.345 0 0.04 0.345 0 0.06 0.345 0 0.08 0.345 0 0.1 0.345 0 0 0.35 0 0.02 0.35 0 0.04 0.35 0 0.06 0.35 0 0.08 0.35 0 0.1 0.35 0 0 0.355 0 0.02 0.355 0 0.04 0.355 0 0.06 0.355 0 0.08 0.355 0 0.1 0.355 0 0 0.36 0 0.02 0.36 0 0.04 0.36 0 0.06 0.36 0 0.08 0.36 0 0.1 0.36 0 0 0.365 0 0.02 0.365 0 0.04 0.365 0 0.06 0.365 0 0.08 0.365 0 0.1 0.365 0 0 0.37 0 0.02 0.37 0 0.04 0.37 0 0.06 0.37 0 0.08 0.37 0 0.1 0.37 0 0 0.375 0 0.02 0.375 0 0.04 0.375 0 0.06 0.375 0 0.08 0.375 0 0.1 0.375 0 0 0.38 0 0.02 0.38 0 0.04 0.38 0 0.06 0.38 0 0.08 0.38 0 0.1 0.38 0 0 0.385 0 0.02 0.385 0 0.04 0.385 0 0.06 0.385 0 0.08 0.385 0 0.1 0.385 0 0 0.39 0 0.02 0.39 0 0.04 0.39 0 0.06 0.39 0 0.08 0.39 0 0.1 0.39 0 0 0.395 0 0.02 0.395 0 0.04 0.395 0 0.06 0.395 0 0.08 0.395 0 0.1 0.395 0 0 0.4 0 0.02 0.4 0 0.04 0.4 0 0.06 0.4 0 0.08 0.4 0 0.1 0.4 0 0 0.405 0 0.02 0.405 0 0.04 0.405 0 0.06 0.405 0 0.08 0.405 0 0.1 0.405 0 0 0.41 0 0.02 0.41 0 0.04 0.41 0 0.06 0.41 0 0.08 0.41 0 0.1 0.41 0 0 0.415 0 0.02 0.415 0 0.04 0.415 0 0.06 0.415 0 0.08 0.415 0 0.1 0.415 0 0 0.42 0 0.02 0.42 0 0.04 0.42 0 0.06 0.42 0 0.08 0.42 0 0.1 0.42 0 0 0.425 0 0.02 0.425 0 0.04 0.425 0 0.06 0.425 0 0.08 0.425 0 0.1 0.425 0 0 0.43 0 0.02 0.43 0 0.04 0.43 0 0.06 0.43 0 0.08 0.43 0 0.1 0.43 0 0 0.435 0 0.02 0.435 0 0.04 0.435 0 0.06 0.435 0 0.08 0.435 0 0.1 0.435 0 0 0.44 0 0.02 0.44 0 0.04 0.44 0 0.06 0.44 0 0.08 0.44 0 0.1 0.44 0 0 0.445 0 0.02 0.445 0 0.04 0.445 0 0.06 0.445 0 0.08 0.445 0 0.1 0.445 0 0 0.45 0 0.02 0.45 0 0.04 0.45 0 0.06 0.45 0 0.08 0.45 0 0.1 0.45 0 0 0.455 0 0.02 0.455 0 0.04 0.455 0 0.06 0.455 0 0.08 0.455 0 0.1 0.455 0 0 0.46 0 0.02 0.46 0 0.04 0.46 0 0.06 0.46 0 0.08 0.46 0 0.1 0.46 0 0 0.465 0 0.02 0.465 0 0.04 0.465 0 0.06 0.465 0 0.08 0.465 0 0.1 0.465 0 0 0.47 0 0.02 0.47 0 0.04 0.47 0 0.06 0.47 0 0.08 0.47 0 0.1 0.47 0 0 0.475 0 0.02 0.475 0 0.04 0.475 0 0.06 0.475 0 0.08 0.475 0 0.1 0.475 0 0 0.48 0 0.02 0.48 0 0.04 0.48 0 0.06 0.48 0 0.08 0.48 0 0.1 0.48 0 0 0.485 0 0.02 0.485 0 0.04 0.485 0 0.06 0.485 0 0.08 0.485 0 0.1 0.485 0 0 0.49 0 0.02 0.49 0 0.04 0.49 0 0.06 0.49 0 0.08 0.49 0 0.1 0.49 0 0 0.495 0 0.02 0.495 0 0.04 0.495 0 0.06 0.495 0 0.08 0.495 0 0.1 0.495 0 0 0.5 0 0.02 0.5 0 0.04 0.5 0 0.06 0.5 0 0.08 0.5 0 0.1 0.5 0 0 0.505 0 0.02 0.505 0 0.04 0.505 0 0.06 0.505 0 0.08 0.505 0 0.1 0.505 0 0 0.51 0 0.02 0.51 0 0.04 0.51 0 0.06 0.51 0 0.08 0.51 0 0.1 0.51 0 0 0.515 0 0.02 0.515 0 0.04 0.515 0 0.06 0.515 0 0.08 0.515 0 0.1 0.515 0 0 0.52 0 0.02 0.52 0 0.04 0.52 0 0.06 0.52 0 0.08 0.52 0 0.1 0.52 0 0 0.525 0 0.02 0.525 0 0.04 0.525 0 0.06 0.525 0 0.08 0.525 0 0.1 0.525 0 0 0.53 0 0.02 0.53 0 0.04 0.53 0 0.06 0.53 0 0.08 0.53 0 0.1 0.53 0 0 0.535 0 0.02 0.535 0 0.04 0.535 0 0.06 0.535 0 0.08 0.535 0 0.1 0.535 0 0 0.54 0 0.02 0.54 0 0.04 0.54 0 0.06 0.54 0 0.08 0.54 0 0.1 0.54 0 0 0.545 0 0.02 0.545 0 0.04 0.545 0 0.06 0.545 0 0.08 0.545 0 0.1 0.545 0 0 0.55 0 0.02 0.55 0 0.04 0.55 0 0.06 0.55 0 0.08 0.55 0 0.1 0.55 0 0 0.555 0 0.02 0.555 0 0.04 0.555 0 0.06 0.555 0 0.08 0.555 0 0.1 0.555 0 0 0.56 0 0.02 0.56 0 0.04 0.56 0 0.06 0.56 0 0.08 0.56 0 0.1 0.56 0 0 0.565 0 0.02 0.565 0 0.04 0.565 0 0.06 0.565 0 0.08 0.565 0 0.1 0.565 0 0 0.57 0 0.02 0.57 0 0.04 0.57 0 0.06 0.57 0 0.08 0.57 0 0.1 0.57 0 0 0.575 0 0.02 0.575 0 0.04 0.575 0 0.06 0.575 0 0.08 0.575 0 0.1 0.575 0 0 0.58 0 0.02 0.58 0 0.04 0.58 0 0.06 0.58 0 0.08 0.58 0 0.1 0.58 0 0 0.585 0 0.02 0.585 0 0.04 0.585 0 0.06 0.585 0 0.08 0.585 0 0.1 0.585 0 0 0.59 0 0.02 0.59 0 0.04 0.59 0 0.06 0.59 0 0.08 0.59 0 0.1 0.59 0 0 0.595 0 0.02 0.595 0 0.04 0.595 0 0.06 0.595 0 0.08 0.595 0 0.1 0.595 0 0 0.6 0 0.02 0.6 0 0.04 0.6 0 0.06 0.6 0 0.08 0.6 0 0.1 0.6 0 0 0.605 0 0.02 0.605 0 0.04 0.605 0 0.06 0.605 0 0.08 0.605 0 0.1 0.605 0 0 0.61 0 0.02 0.61 0 0.04 0.61 0 0.06 0.61 0 0.08 0.61 0 0.1 0.61 0 0 0.615 0 0.02 0.615 0 0.04 0.615 0 0.06 0.615 0 0.08 0.615 0 0.1 0.615 0 0 0.62 0 0.02 0.62 0 0.04 0.62 0 0.06 0.62 0 0.08 0.62 0 0.1 0.62 0 0 0.625 0 0.02 0.625 0 0.04 0.625 0 0.06 0.625 0 0.08 0.625 0 0.1 0.625 0 0 0.63 0 0.02 0.63 0 0.04 0.63 0 0.06 0.63 0 0.08 0.63 0 0.1 0.63 0 0 0.635 0 0.02 0.635 0 0.04 0.635 0 0.06 0.635 0 0.08 0.635 0 0.1 0.635 0 0 0.64 0 0.02 0.64 0 0.04 0.64 0 0.06 0.64 0 0.08 0.64 0 0.1 0.64 0 0 0.645 0 0.02 0.645 0 0.04 0.645 0 0.06 0.645 0 0.08 0.645 0 0.1 0.645 0 0 0.65 0 0.02 0.65 0 0.04 0.65 0 0.06 0.65 0 0.08 0.65 0 0.1 0.65 0 0 0.655 0 0.02 0.655 0 0.04 0.655 0 0.06 0.655 0 0.08 0.655 0 0.1 0.655 0 0 0.66 0 0.02 0.66 0 0.04 0.66 0 0.06 0.66 0 0.08 0.66 0 0.1 0.66 0 0 0.665 0 0.02 0.665 0 0.04 0.665 0 0.06 0.665 0 0.08 0.665 0 0.1 0.665 0 0 0.67 0 0.02 0.67 0 0.04 0.67 0 0.06 0.67 0 0.08 0.67 0 0.1 0.67 0 0 0.675 0 0.02 0.675 0 0.04 0.675 0 0.06 0.675 0 0.08 0.675 0 0.1 0.675 0 0 0.68 0 0.02 0.68 0 0.04 0.68 0 0.06 0.68 0 0.08 0.68 0 0.1 0.68 0 0 0.685 0 0.02 0.685 0 0.04 0.685 0 0.06 0.685 0 0.08 0.685 0 0.1 0.685 0 0 0.69 0 0.02 0.69 0 0.04 0.69 0 0.06 0.69 0 0.08 0.69 0 0.1 
[...]
			<PointData Scalars="VitesseX">
				<DataArray Name="VitesseX" type="Float32" format="ascii">
 0 -1.16304e-14 -7.92037e-15 9.94161e-15 -7.53065e-15 0 0 -1.12535e-14 -8.30441e-15 9.68282e-15 -7.48527e-15 0 0 -1.18002e-14 -5.33605e-15 1.5218e-15 -1.04297e-16 0 0 -3.5046e-15 -1.76617e-14 9.10484e-15 -1.07406e-15 0 0 2.83433e-15 -2.18473e-14 9.57728e-15 5.05091e-16 0 0 -6.39673e-15 6.03821e-15 -2.55682e-14 2.23463e-14 0 0 -8.78909e-15 1.62649e-14 -3.4047e-14 2.439e-14 0 0 1.02634e-15 -3.528e-15 2.62475e-16 -4.67115e-17 0 0 -8.18407e-15 1.51747e-14 -1.58634e-14 1.14311e-14 0 0 -1.24127e-14 3.36107e-14 -3.41576e-14 1.30815e-14 0 0 1.77755e-14 -8.47438e-15 1.27549e-14 -2.86943e-14 0 0 8.04453e-15 4.1807e-15 3.24059e-15 -2.8058e-14 0 0 -2.60938e-15 6.06304e-15 1.52612e-14 -4.5878e-14 0 0 -1.0276e-14 1.07253e-14 1.7013e-14 -5.28775e-14 0 0 -2.71624e-14 3.67553e-14 -1.57742e-14 -2.51572e-14 0 0 -1.87974e-15 -4.2874e-15 5.38941e-15 -3.22019e-14 0 0 1.04334e-14 -2.42502e-14 6.30034e-15 -4.65254e-14 0 0 1.06474e-14 -2.70672e-14 -1.33146e-14 -3.01608e-14 0 0 -1.04419e-14 -6.68549e-15 -4.37311e-14 1.26807e-14 0 0 -8.16198e-15 -2.44838e-14 -2.37556e-14 5.26386e-15 0 0 -9.90007e-15 -2.60697e-14 -4.55004e-14 2.86223e-14 0 0 -5.25638e-14 3.10755e-14 -9.21235e-14 5.04749e-14 0 0 -3.44643e-14 -1.56024e-14 -4.75026e-15 -3.14008e-14 0 0 1.21363e-14 -7.39909e-14 5.88577e-14 -8.53714e-14 0 0 -1.11024e-14 -2.20809e-14 2.75963e-14 -8.52237e-14 0 0 -1.14432e-14 -3.01839e-14 4.60925e-14 -9.78335e-14 0 0 -6.36786e-15 -1.81678e-14 -7.08081e-16 -2.43171e-14 0 0 -1.49302e-14 3.21925e-15 -2.4496e-14 1.20586e-14 0 0 -3.36491e-14 9.56612e-15 1.05422e-15 -3.33251e-15 0 0 -4.94405e-14 2.64388e-14 -8.46337e-15 2.48182e-14 0 0 -1.98775e-14 -3.97538e-14 6.50147e-14 4.3448e-15 0 0 -2.66045e-14 -3.93666e-14 6.10695e-14 3.46002e-14 0 0 -5.77469e-14 1.00711e-14 1.05407e-14 7.4101e-14 0 0 -4.22248e-14 -3.70481e-14 6.83733e-14 5.39471e-14 0 0 -4.29207e-14 -3.81461e-14 6.49157e-14 7.02597e-14 0 0 -8.38119e-14 5.45195e-14 -3.64712e-14 1.08025e-13 0 0 -1.96485e-14 -9.60667e-15 1.45878e-14 3.00818e-14 0 0 1.77836e-14 -4.99729e-14 3.55347e-14 1.30434e-14 0 0 2.80252e-14 -4.48457e-14 -9.73655e-15 7.35951e-14 0 0 2.43088e-14 -1.14661e-14 -5.90452e-14 9.72525e-14 0 0 4.89082e-14 -2.73628e-14 -3.91636e-14 5.3408e-14 0 0 1.04096e-13 -9.56141e-14 1.43279e-14 -2.05877e-16 0 0 2.65998e-14 1.19903e-14 -8.70085e-14 9.38029e-14 0 0 -1.41334e-14 9.90615e-14 -1.57306e-13 1.26964e-13 0 0 9.51741e-14 -4.61614e-14 -1.75774e-14 -6.71677e-15 0 0 9.72863e-14 -4.86825e-14 -6.60716e-14 5.20269e-14 0 0 6.87868e-14 -1.38984e-14 -1.26312e-13 1.23166e-13 0 0 9.63529e-14 -8.10983e-14 3.65599e-15 2.18303e-14 0 0 2.26658e-14 3.68488e-15 -5.16197e-15 -3.329e-14 0 0 -1.81687e-15 5.84684e-14 -7.28969e-14 -8.4784e-15 0 0 -2.34512e-14 1.51782e-13 -2.43329e-13 1.30733e-13 0 0 9.46667e-15 1.34915e-13 -2.04708e-13 1.08285e-13 0 0 6.34574e-14 -7.07136e-15 1.91047e-14 1.75712e-15 0 0 7.50666e-14 -1.06311e-13 1.69036e-13 -4.61103e-14 0 0 3.65465e-14 6.62039e-14 -6.63488e-14 1.13629e-13 0 0 -4.6107e-14 2.71861e-13 -3.66526e-13 3.26504e-13 0 0 6.43676e-15 1.01513e-13 -1.6368e-13 1.64408e-13 0 0 6.4672e-14 -3.62014e-14 6.37568e-14 -5.59959e-14 0 0 6.36712e-14 3.53437e-14 2.54425e-14 -9.4711e-14 0 0 4.87497e-14 1.60762e-13 -1.27959e-13 -6.92704e-14 0 0 1.64582e-13 -5.11578e-16 -1.82946e-14 -1.36336e-13 0 0 2.45188e-13 -1.45264e-13 9.65176e-14 -1.59474e-13 0 0 9.80863e-14 3.29328e-14 -2.6405e-14 -6.40306e-14 0 0 1.14381e-15 1.06049e-13 -9.13126e-14 -6.19037e-15 0 0 4.22216e-14 5.60434e-14 -1.39398e-13 -2.00174e-15 0 0 2.02815e-13 -1.0215e-13 -1.14231e-13 -4.13091e-14 0 0 3.25116e-13 -1.76195e-13 -1.10027e-13 -9.98256e-14 0 0 1.85117e-13 1.07757e-13 -3.27852e-13 -5.015e-14 0 0 1.12181e-13 2.08087e-13 -3.42244e-13 4.29513e-15 0 0 1.68414e-13 3.16948e-14 -1.14257e-13 -9.41244e-14 0 0 2.4454e-14 1.05899e-13 -1.34635e-13 -5.06146e-14 0 0 -3.78269e-14 1.22206e-13 -1.45984e-13 2.42795e-14 0 0 2.71527e-14 1.21802e-13 -2.04448e-13 2.04392e-14 0 0 1.24994e-13 1.69767e-13 -3.27732e-13 -4.84718e-14 0 0 6.72138e-14 2.24993e-13 -3.11946e-13 -1.50882e-13 0 0 4.22905e-16 2.72401e-13 -3.41296e-13 -9.10896e-14 0 0 1.45432e-13 5.59619e-14 -2.13853e-13 -3.78577e-15 0 0 2.19639e-13 -7.56936e-14 -1.95693e-13 1.3283e-13 0 0 7.44794e-14 6.43864e-14 -3.95763e-13 4.18311e-13 0 0 -4.44167e-14 1.54596e-13 -4.23914e-13 3.93006e-13 0 0 -1.01366e-13 3.9587e-14 -2.62337e-13 2.43617e-13 0 0 -1.34771e-13 -7.59377e-14 -1.77869e-14 2.8909e-14 0 0 -1.77112e-13 -4.8657e-14 4.62964e-14 -1.29609e-13 0 0 -3.27612e-13 -8.21491e-14 1.23259e-13 -2.49057e-13 0 0 -3.19601e-13 -1.27026e-13 1.72054e-13 -3.427e-13 0 0 -2.59305e-13 -2.21812e-13 1.53628e-13 -2.98185e-13 0 0 -1.66014e-13 -2.81633e-13 8.43988e-14 -1.62442e-13 0 0 -1.42989e-13 -2.6769e-13 -3.49988e-14 -6.8207e-15 0 0 -1.65789e-13 -2.15755e-13 -2.10706e-13 1.57036e-13 0 0 -2.35193e-13 -1.47283e-13 -3.14865e-13 1.51454e-13 0 0 -2.90188e-13 -1.31245e-13 -2.92704e-13 9.65099e-14 0 0 -2.99328e-13 -1.53598e-13 -2.18183e-13 -4.46899e-14 0 0 -2.71797e-13 -2.76496e-13 -9.89663e-14 -1.8178e-13 0 0 -2.43336e-13 -4.11262e-13 4.50937e-14 -2.97313e-13 0 0 -2.47846e-13 -4.22829e-13 8.98809e-14 -3.53508e-13 0 0 -3.08233e-13 -3.95431e-13 7.00574e-14 -3.31046e-13 0 0 -4.41443e-13 -2.8836e-13 1.17679e-14 -2.58609e-13 0 0 -5.94112e-13 -1.48528e-13 -5.56271e-14 -1.69192e-13 0 0 -7.27099e-13 -4.78239e-14 -9.53445e-14 -1.34804e-13 0 0 -7.32516e-13 -5.7215e-14 -8.68165e-14 -1.4993e-13 0 0 -7.06979e-13 -1.12091e-13 -3.74453e-14 -1.89423e-13 0 0 -6.20663e-13 -1.9419e-13 2.22613e-14 -1.97587e-13 0 0 -4.76118e-13 -2.66187e-13 5.63263e-14 -1.93674e-13 0 0 -3.21571e-13 -3.17126e-13 4.46305e-14 -1.69454e-13 0 0 -1.53762e-13 -3.9006e-13 6.26724e-14 -9.95113e-14 0 0 -1.31362e-14 -4.41565e-13 5.23453e-14 -2.09021e-14 0 0 5.20405e-14 -3.77789e-13 -7.5895e-14 1.15478e-13 0 0 7.79242e-14 -2.12846e-13 -2.21144e-13 2.21474e-13 0 0 1.56816e-13 -2.05012e-13 -2.09143e-13 2.59665e-13 0 0 2.02402e-13 -2.32912e-13 -1.32903e-13 2.87763e-13 0 0 1.92812e-13 -2.2523e-13 -2.14031e-14 3.00788e-13 0 0 1.61313e-13 -1.40621e-13 6.49623e-14 2.84257e-13 0 0 7.53751e-14 -3.19933e-15 1.15367e-13 2.43044e-13 0 0 7.2816e-15 6.09583e-14 1.36613e-13 1.24878e-13 0 0 4.33663e-16 8.3479e-14 1.17747e-13 3.67059e-14 0 0 6.57344e-15 6.79738e-14 6.34414e-14 7.7026e-14 0 0 3.9608e-14 1.10534e-14 4.19539e-14 1.67362e-13 0 0 7.6386e-14 -2.8233e-14 2.95955e-14 2.3416e-13 0 0 1.27235e-13 -5.04552e-14 7.98839e-14 2.11505e-13 0 0 2.01204e-13 -2.74622e-14 1.00219e-13 1.9118e-13 0 0 2.57993e-13 -1.10004e-14 1.09416e-13 1.68682e-13 0 0 2.62224e-13 -5.71927e-15 1.63961e-13 8.19692e-14 0 0 2.44979e-13 6.50297e-14 1.58217e-13 7.13494e-14 0 0 1.77135e-13 2.84896e-13 4.95492e-15 1.75845e-13 0 0 1.50867e-13 3.83243e-13 -1.90841e-13 3.10224e-13 0 0 1.86136e-13 3.41986e-13 -1.4288e-13 2.69631e-13 0 0 1.86325e-13 2.4034e-13 -3.34779e-14 1.60193e-13 0 0 1.98693e-13 9.03395e-15 1.03076e-13 2.13217e-14 0 0 1.89653e-13 -2.07475e-13 3.08155e-13 -2.02409e-13 0 0 1.2194e-13 -1.93061e-13 2.9144e-13 -2.52649e-13 0 0 -3.09038e-14 -4.99242e-14 1.12886e-13 -8.96728e-15 0 0 -8.04761e-14 1.01509e-13 -9.73004e-14 1.4657e-13 0 0 -2.395e-14 4.58131e-14 -5.46228e-14 8.8001e-14 0 0 5.28941e-14 1.47557e-14 -2.56328e-14 -2.95692e-14 0 0 6.32129e-14 6.88879e-16 5.2429e-15 -2.02329e-13 0 0 6.01166e-14 -1.633e-14 5.00415e-14 -3.32018e-13 0 0 2.22082e-14 -9.10346e-15 5.69194e-14 -3.55957e-13 0 0 -8.63325e-15 -8.20817e-15 -4.15711e-15 -2.45589e-13 0 0 -7.4551e-15 -1.61036e-14 -4.56068e-14 -1.82004e-13 0 0 -1.53032e-14 -4.06192e-14 -3.79348e-14 -1.41367e-13 0 0 -3.9157e-14 -8.3953e-14 -9.30439e-15 -7.51549e-14 0 0 -5.43586e-14 -1.24775e-13 5.24993e-14 -8.70687e-14 0 0 -6.50712e-14 -1.75141e-13 3.15198e-14 -3.64112e-14 0 0 -8.80631e-14 -1.69519e-13 2.31041e-14 -4.6313e-14 0 0 -1.01201e-13 -1.00878e-13 -6.69885e-14 -7.53185e-14 0 0 -9.24939e-14 -9.04604e-14 -1.34353e-13 -1.19428e-13 0 0 -6.71181e-14 -9.72991e-14 -1.81539e-13 -8.21851e-14 0 0 -5.72041e-14 -1.74299e-14 -3.73295e-13 -6.75055e-14 0 0 -3.13117e-14 -2.73478e-14 -3.41071e-13 -2.24123e-13 0 0 1.11611e-14 -9.31299e-14 -1.37741e-13 -3.62806e-13 0 0 1.14685e-14 -4.64594e-14 -8.24899e-14 -1.44118e-13 0 0 4.05625e-14 -4.86946e-14 4.72292e-15 2.5467e-13 0 0 7.31325e-14 -4.30823e-14 1.14903e-13 2.36789e-13 0 0 5.06657e-14 6.31163e-14 1.04898e-13 2.10124e-13 0 0 1.12234e-13 1.10217e-14 1.75254e-13 1.3946e-13 0 0 1.30965e-13 -7.3608e-15 2.56017e-13 1.79809e-14 0 0 1.11626e-13 3.86509e-14 2.99166e-13 -9.45632e-14 0 0 6.20955e-14 1.19517e-13 2.49043e-13 -8.61586e-14 0 0 -4.50098e-15 2.0747e-13 1.50695e-13 4.2847e-15 0 0 6.29392e-14 1.03072e-13 2.32291e-13 1.25956e-14 0 0 1.48898e-13 2.83378e-15 2.6364e-13 8.07221e-14 0 0 8.33293e-14 1.17182e-13 1.43875e-13 1.78223e-13 0 0 4.28353e-14 1.54912e-13 1.92977e-13 9.92456e-14 0 0 6.31016e-14 1.56856e-13 1.60092e-13 1.06655e-13 0 0 1.10834e-13 1.71215e-13 1.19195e-13 1.37316e-13 0 0 1.44003e-13 1.53578e-13 2.23924e-13 -9.69173e-15 0 0 6.76472e-14 2.35718e-13 2.19446e-13 -6.83564e-14 0 0 3.32997e-14 2.54688e-13 2.58155e-13 -1.12209e-13 0 0 1.65759e-13 7.55145e-15 5.65327e-13 -2.74728e-13 0 0 2.11041e-13 -5.48914e-14 6.46812e-13 -2.70483e-13 0 0 1.00438e-13 1.7422e-13 3.09601e-13 8.01018e-14 0 0 1.21477e-13 1.22941e-13 2.65701e-13 2.64352e-13 0 0 1.03642e-13 1.48875e-13 2.51361e-13 2.72636e-13 0 0 6.25765e-14 2.67401e-13 1.92093e-13 1.66091e-13 0 0 1.08607e-13 2.47798e-13 2.73164e-13 -8.22743e-15 0 0 1.32076e-13 2.69003e-13 2.24267e-13 6.83361e-14 0 0 2.16594e-13 2.3901e-13 1.97228e-13 1.45733e-13 0 0 2.40611e-13 2.21355e-13 2.38553e-13 1.62201e-13 0 0 2.07295e-13 1.63029e-13 3.77017e-13 1.33547e-13 0 0 1.60557e-13 1.30046e-13 5.24687e-13 2.65756e-14 0 0 -1.77046e-14 3.66984e-13 2.81725e-13 1.60236e-13 0 0 -1.19284e-14 4.40573e-13 1.10688e-13 2.62466e-13 0 0 2.53124e-13 1.48675e-13 3.44498e-13 1.27366e-13 0 0 2.30092e-13 3.71876e-13 1.87253e-13 1.01936e-13 0 0 1.34674e-13 5.62726e-13 1.0066e-13 9.12128e-14 0 0 2.39102e-13 2.11777e-13 4.52276e-13 3.32347e-14 0 0 1.26675e-13 2.84605e-13 3.73546e-13 9.13624e-14 0 0 7.96158e-15 4.79075e-13 6.63596e-14 2.8745e-13 0 0 1.11412e-13 3.81558e-13 -4.54087e-14 3.93579e-13 0 0 7.62917e-14 3.3188e-13 -2.7685e-14 3.45231e-13 0 0 1.45261e-13 1.2952e-14 3.49325e-13 2.02693e-13 0 0 1.75831e-13 -4.9455e-14 3.82093e-13 2.09779e-13 0 0 2.04367e-14 3.01444e-13 3.33431e-14 2.63534e-13 0 0 -7.67749e-14 4.43439e-13 -1.89143e-13 3.74152e-13 0 0 2.2902e-14 1.88762e-13 4.13959e-14 2.88502e-13 0 0 2.56743e-13 -1.3435e-13 3.68197e-13 1.65592e-13 0 0 3.27383e-13 -2.40794e-13 4.40966e-13 2.07422e-13 0 0 5.35905e-14 1.31502e-13 2.73511e-13 1.42192e-13 0 0 -4.56568e-14 5.59176e-13 -2.16084e-13 3.03257e-13 0 0 1.95039e-13 4.73737e-13 -4.81729e-13 5.46716e-13 0 0 2.27826e-13 4.41249e-13 -5.65088e-13 6.47285e-13 0
				</DataArray>
				<DataArray Name="VitesseY" type="Float32" format="ascii">