<?xml version="1.0"?>
<VTKFile type="PolyData">
	<PolyData>
		<Piece NumberOfPoints="1206" NumberOfPolys="1000">
			<Points>
				<DataArray type="Float32" NumberOfComponents="3" format="ascii">
 0 0 0 0.02 0 0 0.04 0 0 0.06 0 0 0.08 0 0 0.1 0 0 0 0.005 0 0.02 0.005 0 0.04 0.005 0 0.06 0.005 0 0.08 0.005 0 0.1 0.005 0 0 0.01 0 0.02 0.01 0 0.04 0.01 0 0.06 0.01 0 0.08 0.01 0 0.1 0.01 0 0 0.015 0 0.02 0.015 0 0.04 0.015 0 0.06 0.015 0 0.08 0.015 0 0.1 0.015 0 0 0.02 0 0.02 0.02 0 0.04 0.02 0 0.06 0.02 0 0.08 0.02 0 0.1 0.02 0 0 0.025 0 0.02 0.025 0 0.04 0.025 0 0.06 0.025 0 0.08 0.025 0 0.1 0.025 0 0 0.03 0 0.02 0.03 0 0.04 0.03 0 0.06 0.03 0 0.08 0.03 0 0.1 0.03 0 0 0.035 0 0.02 0.035 0 0.04 0.035 0 0.06 0.035 0 0.08 0.035 0 0.1 0.035 0 0 0.04 0 0.02 0.04 0 0.04 0.04 0 0.06 0.04 0 0.08 0.04 0 0.1 0.04 0 0 0.045 0 0.02 0.045 0 0.04 0.045 0 0.06 0.045 0 0.08 0.045 0 0.1 0.045 0 0 0.05 0 0.02 0.05 0 0.04 0.05 0 0.06 0.05 0 0.08 0.05 0 0.1 0.05 0 0 0.055 0 0.02 0.055 0 0.04 0.055 0 0.06 0.055 0 0.08 0.055 0 0.1 0.055 0 0 0.06 0 0.02 0.06 0 0.04 0.06 0 0.06 0.06 0 0.08 0.06 0 0.1 0.06 0 0 0.065 0 0.02 0.065 0 0.04 0.065 0 0.06 0.065 0 0.08 0.065 0 0.1 0.065 0 0 0.07 0 0.02 0.07 0 0.04 0.07 0 0.06 0.07 0 0.08 0.07 0 0.1 0.07 0 0 0.075 0 0.02 0.075 0 0.04 0.075 0 0.06 0.075 0 0.08 0.075 0 0.1 0.075 0 0 0.08 0 0.02 0.08 0 0.04 0.08 0 0.06 0.08 0 0.08 0.08 0 0.1 0.08 0 0 0.085 0 0.02 0.085 0 0.04 0.085 0 0.06 0.085 0 0.08 0.085 0 0.1 0.085 0 0 0.09 0 0.02 0.09 0 0.04 0.09 0 0.06 0.09 0 0.08 0.09 0 0.1 0.09 0 0 0.095 0 0.02 0.095 0 0.04 0.095 0 0.06 0.095 0 0.08 0.095 0 0.1 0.095 0 0 0.1 0 0.02 0.1 0 0.04 0.1 0 0.06 0.1 0 0.08 0.1 0 0.1 0.1 0 0 0.105 0 0.02 0.105 0 0.04 0.105 0 0.06 0.105 0 0.08 0.105 0 0.1 0.105 0 0 0.11 0 0.02 0.11 0 0.04 0.11 0 0.06 0.11 0 0.08 0.11 0 0.1 0.11 0 0 0.115 0 0.02 0.115 0 0.04 0.115 0 0.06 0.115 0 0.08 0.115 0 0.1 0.115 0 0 0.12 0 0.02 0.12 0 0.04 0.12 0 0.06 0.12 0 0.08 0.12 0 0.1 0.12 0 0 0.125 0 0.02 0.125 0 0.04 0.125 0 0.06 0.125 0 0.08 0.125 0 0.1 0.125 0 0 0.13 0 0.02 0.13 0 0.04 0.13 0 0.06 0.13 0 0.08 0.13 0 0.1 0.13 0 0 0.135 0 0.02 0.135 0 0.04 0.135 0 0.06 0.135 0 0.08 0.135 0 0.1 0.135 0 0 0.14 0 0.02 0.14 0 0.04 0.14 0 0.06 0.14 0 0.08 0.14 0 0.1 0.14 0 0 0.145 0 0.02 0.145 0 0.04 0.145 0 0.06 0.145 0 0.08 0.145 0 0.1 0.145 0 0 0.15 0 0.02 0.15 0 0.04 0.15 0 0.06 0.15 0 0.08 0.15 0 0.1 0.15 0 0 0.155 0 0.02 0.155 0 0.04 0.155 0 0.06 0.155 0 0.08 0.155 0 0.1 0.155 0 0 0.16 0 0.02 0.16 0 0.04 0.16 0 0.06 0.16 0 0.08 0.16 0 0.1 0.16 0 0 0.165 0 0.02 0.165 0 0.04 0.165 0 0.06 0.165 0 0.08 0.165 0 0.1 0.165 0 0 0.17 0 0.02 0.17 0 0.04 0.17 0 0.06 0.17 0 0.08 0.17 0 0.1 0.17 0 0 0.175 0 0.02 0.175 0 0.04 0.175 0 0.06 0.175 0 0.08 0.175 0 0.1 0.175 0 0 0.18 0 0.02 0.18 0 0.04 0.18 0 0.06 0.18 0 0.08 0.18 0 0.1 0.18 0 0 0.185 0 0.02 0.185 0 0.04 0.185 0 0.06 0.185 0 0.08 0.185 0 0.1 0.185 0 0 0.19 0 0.02 0.19 0 0.04 0.19 0 0.06 0.19 0 0.08 0.19 0 0.1 0.19 0 0 0.195 0 0.02 0.195 0 0.04 0.195 0 0.06 0.195 0 0.08 0.195 0 0.1 0.195 0 0 0.2 0 0.02 0.2 0 0.04 0.2 0 0.06 0.2 0 0.08 0.2 0 0.1 0.2 0 0 0.205 0 0.02 0.205 0 0.04 0.205 0 0.06 0.205 0 0.08 0.205 0 0.1 0.205 0 0 0.21 0 0.02 0.21 0 0.04 0.21 0 0.06 0.21 0 0.08 0.21 0 0.1 0.21 0 0 0.215 0 0.02 0.215 0 0.04 0.215 0 0.06 0.215 0 0.08 0.215 0 0.1 0.215 0 0 0.22 0 0.02 0.22 0 0.04 0.22 0 0.06 0.22 0 0.08 0.22 0 0.1 0.22 0 0 0.225 0 0.02 0.225 0 0.04 0.225 0 0.06 0.225 0 0.08 0.225 0 0.1 0.225 0 0 0.23 0 0.02 0.23 0 0.04 0.23 0 0.06 0.23 0 0.08 0.23 0 0.1 0.23 0 0 0.235 0 0.02 0.235 0 0.04 0.235 0 0.06 0.235 0 0.08 0.235 0 0.1 0.235 0 0 0.24 0 0.02 0.24 0 0.04 0.24 0 0.06 0.24 0 0.08 0.24 0 0.1 0.24 0 0 0.245 0 0.02 0.245 0 0.04 0.245 0 0.06 0.245 0 0.08 0.245 0 0.1 0.245 0 0 0.25 0 0.02 0.25 0 0.04 0.25 0 0.06 0.25 0 0.08 0.25 0 0.1 0.25 0 0 0.255 0 0.02 0.255 0 0.04 0.255 0 0.06 0.255 0 0.08 0.255 0 0.1 0.255 0 0 0.26 0 0.02 0.26 0 0.04 0.26 0 0.06 0.26 0 0.08 0.26 0 0.1 0.26 0 0 0.265 0 0.02 0.265 0 0.04 0.265 0 0.06 0.265 0 0.08 0.265 0 0.1 0.265 0 0 0.27 0 0.02 0.27 0 0.04 0.27 0 0.06 0.27 0 0.08 0.27 0 0.1 0.27 0 0 0.275 0 0.02 0.275 0 0.04 0.275 0 0.06 0.275 0 0.08 0.275 0 0.1 0.275 0 0 0.28 0 0.02 0.28 0 0.04 0.28 0 0.06 0.28 0 0.08 0.28 0 0.1 0.28 0 0 0.285 0 0.02 0.285 0 0.04 0.285 0 0.06 0.285 0 0.08 0.285 0 0.1 0.285 0 0 0.29 0 0.02 0.29 0 0.04 0.29 0 0.06 0.29 0 0.08 0.29 0 0.1 0.29 0 0 0.295 0 0.02 0.295 0 0.04 0.295 0 0.06 0.295 0 0.08 0.295 0 0.1 0.295 0 0 0.3 0 0.02 0.3 0 0.04 0.3 0 0.06 0.3 0 0.08 0.3 0 0.1 0.3 0 0 0.305 0 0.02 0.305 0 0.04 0.305 0 0.06 0.305 0 0.08 0.305 0 0.1 0.305 0 0 0.31 0 0.02 0.31 0 0.04 0.31 0 0.06 0.31 0 0.08 0.31 0 0.1 0.31 0 0 0.315 0 0.02 0.315 0 0.04 0.315 0 0.06 0.315 0 0.08 0.315 0 0.1 0.315 0 0 0.32 0 0.02 0.32 0 0.04 0.32 0 0.06 0.32 0 0.08 0.32 0 0.1 0.32 0 0 0.325 0 0.02 0.325 0 0.04 0.325 0 0.06 0.325 0 0.08 0.325 0 0.1 0.325 0 0 0.33 0 0.02 0.33 0 0.04 0.33 0 0.06 0.33 0 0.08 0.33 0 0.1 0.33 0 0 0.335 0 0.02 0.335 0 0.04 0.335 0 0.06 0.335 0 0.08 0.335 0 0.1 0.335 0 0 0.34 0 0.02 0.34 0 0.04 0.34 0 0.06 0.34 0 0.08 0.34 0 0.1 0.34 0 0 0.345 0 0.02 0.345 0 0.04 0.345 0 0.06 0.345 0 0.08 0.345 0 0.1 0.345 0 0 0.35 0 0.02 0.35 0 0.04 0.35 0 0.06 0.35 0 0.08 0.35 0 0.1 0.35 0 0 0.355 0 0.02 0.355 0 0.04 0.355 0 0.06 0.355 0 0.08 0.355 0 0.1 0.355 0 0 0.36 0 0.02 0.36 0 0.04 0.36 0 0.06 0.36 0 0.08 0.36 0 0.1 0.36 0 0 0.365 0 0.02 0.365 0 0.04 0.365 0 0.06 0.365 0 0.08 0.365 0 0.1 0.365 0 0 0.37 0 0.02 0.37 0 0.04 0.37 0 0.06 0.37 0 0.08 0.37 0 0.1 0.37 0 0 0.375 0 0.02 0.375 0 0.04 0.375 0 0.06 0.375 0 0.08 0.375 0 0.1 0.375 0 0 0.38 0 0.02 0.38 0 0.04 0.38 0 0.06 0.38 0 0.08 0.38 0 0.1 0.38 0 0 0.385 0 0.02 0.385 0 0.04 0.385 0 0.06 0.385 0 0.08 0.385 0 0.1 0.385 0 0 0.39 0 0.02 0.39 0 0.04 0.39 0 0.06 0.39 0 0.08 0.39 0 0.1 0.39 0 0 0.395 0 0.02 0.395 0 0.04 0.395 0 0.06 0.395 0 0.08 0.395 0 0.1 0.395 0 0 0.4 0 0.02 0.4 0 0.04 0.4 0 0.06 0.4 0 0.08 0.4 0 0.1 0.4 0 0 0.405 0 0.02 0.405 0 0.04 0.405 0 0.06 0.405 0 0.08 0.405 0 0.1 0.405 0 0 0.41 0 0.02 0.41 0 0.04 0.41 0 0.06 0.41 0 0.08 0.41 0 0.1 0.41 0 0 0.415 0 0.02 0.415 0 0.04 0.415 0 0.06 0.415 0 0.08 0.415 0 0.1 0.415 0 0 0.42 0 0.02 0.42 0 0.04 0.42 0 0.06 0.42 0 0.08 0.42 0 0.1 0.42 0 0 0.425 0 0.02 0.425 0 0.04 0.425 0 0.06 0.425 0 0.08 0.425 0 0.1 0.425 0 0 0.43 0 0.02 0.43 0 0.04 0.43 0 0.06 0.43 0 0.08 0.43 0 0.1 0.43 0 0 0.435 0 0.02 0.435 0 0.04 0.435 0 0.06 0.435 0 0.08 0.435 0 0.1 0.435 0 0 0.44 0 0.02 0.44 0 0.04 0.44 0 0.06 0.44 0 0.08 0.44 0 0.1 0.44 0 0 0.445 0 0.02 0.445 0 0.04 0.445 0 0.06 0.445 0 0.08 0.445 0 0.1 0.445 0 0 0.45 0 0.02 0.45 0 0.04 0.45 0 0.06 0.45 0 0.08 0.45 0 0.1 0.45 0 0 0.455 0 0.02 0.455 0 0.04 0.455 0 0.06 0.455 0 0.08 0.455 0 0.1 0.455 0 0 0.46 0 0.02 0.46 0 0.04 0.46 0 0.06 0.46 0 0.08 0.46 0 0.1 0.46 0 0 0.465 0 0.02 0.465 0 0.04 0.465 0 0.06 0.465 0 0.08 0.465 0 0.1 0.465 0 0 0.47 0 0.02 0.47 0 0.04 0.47 0 0.06 0.47 0 0.08 0.47 0 0.1 0.47 0 0 0.475 0 0.02 0.475 0 0.04 0.475 0 0.06 0.475 0 0.08 0.475 0 0.1 0.475 0 0 0.48 0 0.02 0.48 0 0.04 0.48 0 0.06 0.48 0 0.08 0.48 0 0.1 0.48 0 0 0.485 0 0.02 0.485 0 0.04 0.485 0 0.06 0.485 0 0.08 0.485 0 0.1 0.485 0 0 0.49 0 0.02 0.49 0 0.04 0.49 0 0.06 0.49 0 0.08 0.49 0 0.1 0.49 0 0 0.495 0 0.02 0.495 0 0.04 0.495 0 0.06 0.495 0 0.08 0.495 0 0.1 0.495 0 0 0.5 0 0.02 0.5 0 0.04 0.5 0 0.06 0.5 0 0.08 0.5 0 0.1 0.5 0 0 0.505 0 0.02 0.505 0 0.04 0.505 0 0.06 0.505 0 0.08 0.505 0 0.1 0.505 0 0 0.51 0 0.02 0.51 0 0.04 0.51 0 0.06 0.51 0 0.08 0.51 0 0.1 0.51 0 0 0.515 0 0.02 0.515 0 0.04 0.515 0 0.06 0.515 0 0.08 0.515 0 0.1 0.515 0 0 0.52 0 0.02 0.52 0 0.04 0.52 0 0.06 0.52 0 0.08 0.52 0 0.1 0.52 0 0 0.525 0 0.02 0.525 0 0.04 0.525 0 0.06 0.525 0 0.08 0.525 0 0.1 0.525 0 0 0.53 0 0.02 0.53 0 0.04 0.53 0 0.06 0.53 0 0.08 0.53 0 0.1 0.53 0 0 0.535 0 0.02 0.535 0 0.04 0.535 0 0.06 0.535 0 0.08 0.535 0 0.1 0.535 0 0 0.54 0 0.02 0.54 0 0.04 0.54 0 0.06 0.54 0 0.08 0.54 0 0.1 0.54 0 0 0.545 0 0.02 0.545 0 0.04 0.545 0 0.06 0.545 0 0.08 0.545 0 0.1 0.545 0 0 0.55 0 0.02 0.55 0 0.04 0.55 0 0.06 0.55 0 0.08 0.55 0 0.1 0.55 0 0 0.555 0 0.02 0.555 0 0.04 0.555 0 0.06 0.555 0 0.08 0.555 0 0.1 0.555 0 0 0.56 0 0.02 0.56 0 0.04 0.56 0 0.06 0.56 0 0.08 0.56 0 0.1 0.56 0 0 0.565 0 0.02 0.565 0 0.04 0.565 0 0.06 0.565 0 0.08 0.565 0 0.1 0.565 0 0 0.57 0 0.02 0.57 0 0.04 0.57 0 0.06 0.57 0 0.08 0.57 0 0.1 0.57 0 0 0.575 0 0.02 0.575 0 0.04 0.575 0 0.06 0.575 0 0.08 0.575 0 0.1 0.575 0 0 0.58 0 0.02 0.58 0 0.04 0.58 0 0.06 0.58 0 0.08 0.58 0 0.1 0.58 0 0 0.585 0 0.02 0.585 0 0.04 0.585 0 0.06 0.585 0 0.08 0.585 0 0.1 0.585 0 0 0.59 0 0.02 0.59 0 0.04 0.59 0 0.06 0.59 0 0.08 0.59 0 0.1 0.59 0 0 0.595 0 0.02 0.595 0 0.04 0.595 0 0.06 0.595 0 0.08 0.595 0 0.1 0.595 0 0 0.6 0 0.02 0.6 0 0.04 0.6 0 0.06 0.6 0 0.08 0.6 0 0.1 0.6 0 0 0.605 0 0.02 0.605 0 0.04 0.605 0 0.06 0.605 0 0.08 0.605 0 0.1 0.605 0 0 0.61 0 0.02 0.61 0 0.04 0.61 0 0.06 0.61 0 0.08 0.61 0 0.1 0.61 0 0 0.615 0 0.02 0.615 0 0.04 0.615 0 0.06 0.615 0 0.08 0.615 0 0.1 0.615 0 0 0.62 0 0.02 0.62 0 0.04 0.62 0 0.06 0.62 0 0.08 0.62 0 0.1 0.62 0 0 0.625 0 0.02 0.625 0 0.04 0.625 0 0.06 0.625 0 0.08 0.625 0 0.1 0.625 0 0 0.63 0 0.02 0.63 0 0.04 0.63 0 0.06 0.63 0 0.08 0.63 0 0.1 0.63 0 0 0.635 0 0.02 0.635 0 0.04 0.635 0 0.06 0.635 0 0.08 0.635 0 0.1 0.635 0 0 0.64 0 0.02 0.64 0 0.04 0.64 0 0.06 0.64 0 0.08 0.64 0 0.1 0.64 0 0 0.645 0 0.02 0.645 0 0.04 0.645 0 0.06 0.645 0 0.08 0.645 0 0.1 0.645 0 0 0.65 0 0.02 0.65 0 0.04 0.65 0 0.06 0.65 0 0.08 0.65 0 0.1 0.65 0 0 0.655 0 0.02 0.655 0 0.04 0.655 0 0.06 0.655 0 0.08 0.655 0 0.1 0.655 0 0 0.66 0 0.02 0.66 0 0.04 0.66 0 0.06 0.66 0 0.08 0.66 0 0.1 0.66 0 0 0.665 0 0.02 0.665 0 0.04 0.665 0 0.06 0.665 0 0.08 0.665 0 0.1 0.665 0 0 0.67 0 0.02 0.67 0 0.04 0.67 0 0.06 0.67 0 0.08 0.67 0 0.1 0.67 0 0 0.675 0 0.02 0.675 0 0.04 0.675 0 0.06 0.675 0 0.08 0.675 0 0.1 0.675 0 0 0.68 0 0.02 0.68 0 0.04 0.68 0 0.06 0.68 0 0.08 0.68 0 0.1 0.68 0 0 0.685 0 0.02 0.685 0 0.04 0.685 0 0.06 0.685 0 0.08 0.685 0 0.1 0.685 0 0 0.69 0 0.02 0.69 0 0.04 0.69 0 0.06 0.69 0 0.08 0.69 0 0.1 
[...]
			<PointData Scalars="VitesseX">
				<DataArray Name="VitesseX" type="Float32" format="ascii">
 0 -6.23936e-15 -1.28198e-14 -1.82797e-14 -2.53228e-14 0 0 -4.95825e-15 -1.50334e-14 -1.52438e-14 -2.82794e-14 0 0 -5.61471e-15 -1.57092e-14 -1.53166e-14 -2.67669e-14 0 0 -7.49109e-15 -1.36738e-14 -2.12801e-14 -1.96278e-14 0 0 -1.00546e-14 -1.41595e-14 -2.03501e-14 -1.98095e-14 0 0 -1.16433e-14 -1.9844e-14 -1.11929e-14 -2.77235e-14 0 0 -1.99332e-14 -1.23979e-14 -2.17089e-14 -2.13064e-14 0 0 -2.70649e-14 -4.51333e-15 -3.44938e-14 -1.68702e-14 0 0 -1.62144e-14 -2.64674e-14 -1.55192e-14 -2.3578e-14 0 0 -1.1476e-14 -3.28689e-14 -1.51239e-14 -1.93116e-14 0 0 -2.48243e-14 -1.48491e-14 -2.93067e-14 -1.86266e-14 0 0 -3.85206e-14 -6.22672e-15 -2.18428e-14 -2.91304e-14 0 0 -3.84673e-14 -1.56915e-14 -7.54072e-15 -3.24266e-14 0 0 -3.8224e-14 -1.79668e-14 -9.89755e-15 -1.26694e-14 0 0 -3.91484e-14 -2.32086e-14 -9.82161e-15 5.82393e-15 0 0 -1.48962e-14 -5.03635e-14 -3.80481e-15 1.94946e-14 0 0 5.60456e-15 -4.81786e-14 -1.46263e-14 2.55478e-14 0 0 1.21192e-14 -3.75358e-14 -1.44957e-14 2.19044e-14 0 0 -2.2794e-14 1.79537e-14 -5.16202e-14 5.32362e-14 0 0 -2.35272e-14 9.54979e-15 -2.03807e-14 3.02643e-14 0 0 5.76206e-15 -5.28711e-14 6.18531e-14 -1.06041e-14 0 0 -2.16391e-14 -8.9714e-15 1.28786e-14 2.92701e-14 0 0 -8.85269e-15 -1.88579e-14 4.06917e-15 2.06248e-14 0 0 3.52634e-15 -3.99195e-14 1.77703e-14 1.79491e-15 0 0 -2.5511e-14 1.75018e-15 4.57113e-16 -1.64356e-14 0 0 -2.3465e-14 -5.28791e-15 4.60972e-14 -8.12314e-14 0 0 -1.53116e-14 -5.87519e-15 4.61896e-14 -9.31589e-14 0 0 -6.88803e-16 -2.35352e-15 2.76181e-15 -5.45604e-14 0 0 2.10264e-14 -3.47292e-14 2.10375e-14 -8.29516e-14 0 0 8.77948e-15 -9.63095e-15 -1.80187e-14 -7.24635e-14 0 0 6.1373e-15 1.56885e-14 -7.54581e-14 -4.11755e-14 0 0 3.58844e-16 1.09245e-14 -6.44172e-14 -7.88156e-14 0 0 1.27431e-14 -5.16902e-15 -6.82269e-14 -8.49248e-14 0 0 5.06374e-14 -5.72925e-14 -3.09122e-14 -8.7866e-14 0 0 2.81425e-14 -3.0006e-14 -4.02271e-14 -5.16169e-14 0 0 -8.27431e-15 8.90993e-15 -5.82348e-14 -1.1842e-14 0 0 -4.27568e-14 3.1289e-14 -3.36397e-14 -1.32157e-14 0 0 -6.8068e-14 6.30051e-14 -5.407e-14 1.84097e-14 0 0 -4.21053e-14 -4.71662e-15 1.37953e-14 -1.55786e-14 0 0 -7.60087e-14 9.68366e-15 4.51287e-14 -7.97118e-14 0 0 -7.02597e-14 -1.33847e-16 4.1454e-14 -8.52801e-14 0 0 -5.20272e-15 -5.41572e-14 3.00513e-14 -7.19904e-14 0 0 -5.53467e-14 4.47267e-14 -5.97182e-14 -3.39173e-14 0 0 -1.26148e-13 1.53994e-13 -1.20125e-13 5.50447e-15 0 0 -3.67143e-15 2.50153e-15 -3.21845e-14 5.17549e-15 0 0 5.80385e-15 -2.52154e-14 -9.43184e-14 1.32885e-13 0 0 -1.18946e-13 6.70738e-14 -1.33533e-13 1.59871e-13 0 0 -4.11383e-14 -4.79155e-14 -1.14993e-14 2.12163e-14 0 0 -1.45972e-14 -1.05667e-13 3.34608e-14 -6.67899e-14 0 0 3.47327e-14 -2.05343e-13 7.3267e-14 -6.63418e-14 0 0 3.99784e-14 -1.69106e-13 -1.59831e-14 -2.0492e-14 0 0 3.54361e-15 -8.48954e-14 -1.01531e-13 -5.50135e-14 0 0 3.44933e-14 -1.18851e-13 -7.5226e-14 -1.21004e-13 0 0 7.22717e-14 -2.65082e-13 1.16024e-13 -2.11117e-13 0 0 1.47613e-14 -2.09412e-13 1.35485e-14 -6.91426e-14 0 0 -1.1699e-13 -4.96438e-14 -2.35127e-13 1.0543e-13 0 0 -8.93352e-14 -1.84499e-13 -1.53358e-13 3.58987e-14 0 0 -5.3817e-14 -2.64342e-13 -3.46158e-14 -1.34719e-13 0 0 -7.25035e-14 -2.09703e-13 -4.0585e-14 -2.20039e-13 0 0 -9.50537e-14 -1.03729e-13 -1.65506e-13 -8.14241e-14 0 0 -4.08324e-14 -1.27385e-13 -2.09481e-13 2.12937e-14 0 0 -4.07728e-14 -2.33961e-13 -8.19672e-14 -3.95497e-14 0 0 -2.19364e-13 -1.72856e-13 -1.90883e-14 -5.40288e-14 0 0 -3.14665e-13 -1.64833e-13 -4.48293e-15 -5.71078e-14 0 0 -3.06072e-13 -2.04128e-13 -8.48087e-15 -4.97722e-14 0 0 -2.83846e-13 -2.54301e-13 6.50495e-15 -1.00232e-13 0 0 -1.98088e-13 -3.59443e-13 9.4841e-14 -2.64996e-13 0 0 -2.0027e-13 -3.35857e-13 4.63137e-14 -2.5269e-13 0 0 -2.1719e-13 -2.36264e-13 -1.39529e-13 -1.09592e-13 0 0 -1.854e-13 -2.37044e-13 -2.40288e-13 7.44895e-15 0 0 -1.42074e-13 -3.23131e-13 -1.64123e-13 -2.29375e-14 0 0 -1.58249e-13 -4.22543e-13 -7.55932e-14 -1.09569e-13 0 0 -1.85375e-13 -4.75775e-13 -2.18819e-14 -1.29844e-13 0 0 -2.01588e-13 -4.63848e-13 -7.08481e-14 -6.32414e-14 0 0 -2.3034e-13 -3.97492e-13 -1.95304e-13 5.08055e-14 0 0 -2.6152e-13 -3.22541e-13 -2.93093e-13 3.71298e-14 0 0 -2.65062e-13 -2.81956e-13 -2.91928e-13 -6.03661e-14 0 0 -2.54453e-13 -2.82226e-13 -2.54781e-13 -1.4708e-13 0 0 -2.12928e-13 -3.14258e-13 -1.46309e-13 -1.49594e-13 0 0 -1.67791e-13 -3.67245e-13 -3.63897e-14 -9.70728e-14 0 0 -1.35384e-13 -3.61136e-13 -8.01862e-15 3.84912e-14 0 0 -1.17812e-13 -3.26747e-13 -1.72273e-14 1.15184e-13 0 0 -9.1258e-14 -3.20026e-13 -3.23829e-14 1.26125e-13 0 0 -2.6725e-14 -3.44315e-13 -3.05459e-14 1.14784e-13 0 0 4.71736e-14 -3.82031e-13 -1.85781e-14 5.77007e-14 0 0 1.22656e-13 -3.77467e-13 -3.07348e-14 -4.84245e-15 0 0 1.21801e-13 -3.35151e-13 -1.05161e-13 -3.39599e-14 0 0 1.034e-13 -2.49262e-13 -1.98736e-13 -2.40986e-14 0 0 4.89375e-14 -1.62187e-13 -3.20749e-13 -1.46374e-14 0 0 -7.14697e-15 -7.73646e-14 -3.62452e-13 -3.33826e-14 0 0 -3.73097e-14 -6.15001e-14 -3.56428e-13 -5.46804e-14 0 0 -3.79871e-14 -6.04632e-14 -3.51788e-13 -4.51985e-14 0 0 -3.31415e-14 -6.92267e-14 -3.3283e-13 -4.44489e-14 0 0 -9.52931e-15 -1.14545e-13 -2.6366e-13 -7.89514e-14 0 0 2.673e-14 -1.7064e-13 -2.24219e-13 -1.23454e-13 0 0 6.45616e-14 -2.14969e-13 -2.31961e-13 -1.7848e-13 0 0 1.03422e-13 -2.45194e-13 -2.45349e-13 -2.35567e-13 0 0 1.1468e-13 -2.52123e-13 -2.80761e-13 -2.36074e-13 0 0 1.2744e-13 -2.40414e-13 -3.65074e-13 -2.29857e-13 0 0 1.51013e-13 -2.14871e-13 -4.43449e-13 -2.29958e-13 0 0 1.7303e-13 -2.19884e-13 -5.30594e-13 -2.32763e-13 0 0 2.04691e-13 -2.32654e-13 -5.7237e-13 -2.49307e-13 0 0 2.49673e-13 -2.51095e-13 -5.68268e-13 -2.68634e-13 0 0 2.90735e-13 -2.76796e-13 -5.60166e-13 -2.73385e-13 0 0 3.6127e-13 -3.29784e-13 -5.2227e-13 -2.86371e-13 0 0 3.59271e-13 -3.83066e-13 -4.70621e-13 -2.9784e-13 0 0 3.3358e-13 -3.81724e-13 -4.13144e-13 -2.97008e-13 0 0 2.47991e-13 -3.23844e-13 -4.29793e-13 -3.08108e-13 0 0 1.50341e-13 -2.66267e-13 -4.35272e-13 -3.38315e-13 0 0 7.24696e-14 -2.49763e-13 -4.12537e-13 -3.34585e-13 0 0 3.94087e-15 -2.23021e-13 -4.17215e-13 -3.09259e-13 0 0 -8.82322e-14 -2.25269e-13 -3.66061e-13 -3.25561e-13 0 0 -1.82742e-13 -1.87611e-13 -3.34148e-13 -3.14325e-13 0 0 -2.09137e-13 -1.21729e-13 -3.99407e-13 -2.17924e-13 0 0 -2.00372e-13 -1.35638e-13 -4.30206e-13 -1.42686e-13 0 0 -1.43839e-13 -1.98542e-13 -3.85587e-13 -1.57604e-13 0 0 -1.25966e-13 -2.20369e-13 -3.42452e-13 -2.04604e-13 0 0 -1.18197e-13 -2.48824e-13 -2.90217e-13 -2.09172e-13 0 0 -1.25515e-13 -2.60763e-13 -2.87409e-13 -1.35383e-13 0 0 -1.70139e-13 -2.30101e-13 -2.98081e-13 -9.32856e-14 0 0 -2.61624e-13 -1.65044e-13 -2.86188e-13 -1.46386e-13 0 0 -3.46388e-13 -1.79973e-13 -1.86711e-13 -2.8388e-13 0 0 -3.44225e-13 -2.36782e-13 -1.16097e-13 -3.55994e-13 0 0 -3.43966e-13 -2.45385e-13 -1.56693e-13 -3.0281e-13 0 0 -3.40654e-13 -2.76308e-13 -1.71541e-13 -2.4025e-13 0 0 -2.99491e-13 -3.01681e-13 -1.90693e-13 -1.65932e-13 0 0 -2.44459e-13 -2.90802e-13 -1.95254e-13 -7.51369e-14 0 0 -1.56857e-13 -2.8214e-13 -1.95507e-13 -6.48197e-14 0 0 -9.20017e-14 -2.81463e-13 -1.32704e-13 -1.10481e-13 0 0 -1.12723e-13 -2.59215e-13 -7.77448e-14 -1.06693e-13 0 0 -1.77413e-13 -1.33032e-13 -1.33498e-13 -4.90506e-14 0 0 -2.23003e-13 2.97041e-14 -2.66344e-13 6.51611e-14 0 0 -2.20826e-13 7.40617e-14 -2.96112e-13 9.051e-14 0 0 -2.34395e-13 5.01199e-14 -2.5816e-13 6.23201e-14 0 0 -2.27806e-13 -9.21513e-14 -9.58218e-14 -1.18538e-13 0 0 -1.556e-13 -5.10435e-13 2.47761e-13 -3.72553e-13 0 0 -1.37915e-13 -5.90503e-13 2.80717e-13 -4.07174e-13 0 0 -3.17728e-13 -2.88046e-13 -1.43252e-13 -1.17619e-13 0 0 -4.03894e-13 -1.08444e-13 -4.52452e-13 2.51798e-13 0 0 -2.85556e-13 -2.69321e-13 -2.94427e-13 1.87867e-13 0 0 -1.20315e-13 -3.32302e-13 -2.20287e-13 3.00775e-14 0 0 -9.10297e-14 -3.25496e-13 -2.11212e-13 -1.21915e-13 0 0 -1.09508e-13 -2.77239e-13 -2.44252e-13 -1.35809e-13 0 0 -1.22951e-13 -2.36366e-13 -2.86072e-13 -8.19088e-14 0 0 -1.3796e-13 -2.15864e-13 -2.45532e-13 -8.76833e-14 0 0 -1.49786e-13 -1.69441e-13 -2.625e-13 -1.49647e-13 0 0 -1.4911e-13 -1.83699e-13 -2.453e-13 -1.94282e-13 0 0 -1.38523e-13 -2.48631e-13 -1.41826e-13 -2.22798e-13 0 0 -1.42928e-13 -3.33044e-13 -7.60048e-14 -2.15936e-13 0 0 -1.6665e-13 -3.67873e-13 -1.04267e-13 -1.79812e-13 0 0 -1.77263e-13 -3.45445e-13 -2.3139e-13 -9.22972e-14 0 0 -2.09654e-13 -2.9893e-13 -3.69256e-13 -5.17562e-14 0 0 -2.19179e-13 -2.93225e-13 -4.90351e-13 -5.90384e-14 0 0 -2.13111e-13 -2.6693e-13 -6.33454e-13 -1.55997e-13 0 0 -1.92257e-13 -2.70739e-13 -6.14566e-13 -4.07898e-13 0 0 -1.49171e-13 -2.85872e-13 -5.9733e-13 -5.45916e-13 0 0 -1.38256e-13 -3.18128e-13 -5.36264e-13 -4.79951e-13 0 0 -1.84549e-13 -2.82852e-13 -4.2787e-13 -2.02701e-13 0 0 -2.68414e-13 -1.69316e-13 -4.04442e-13 2.01933e-13 0 0 -3.33303e-13 -1.7169e-13 -3.21896e-13 2.00816e-13 0 0 -3.1598e-13 -2.70669e-13 -6.12483e-14 -6.97653e-14 0 0 -2.68564e-13 -3.83923e-13 -5.93959e-14 -1.01102e-13 0 0 -2.69935e-13 -3.58801e-13 -2.01427e-13 1.5258e-13 0 0 -2.91003e-13 -3.64768e-13 -2.9103e-13 1.4114e-13 0 0 -2.7594e-13 -4.21813e-13 -1.76312e-13 -8.96891e-14 0 0 -2.25799e-13 -4.8444e-13 -1.94703e-13 -4.21622e-14 0 0 -1.72832e-13 -4.93079e-13 -3.56332e-13 1.22521e-13 0 0 -2.23572e-13 -4.64349e-13 -3.67478e-13 -4.77325e-14 0 0 -2.10093e-13 -5.21374e-13 -2.45953e-13 -2.10529e-13 0 0 -2.04108e-13 -5.01518e-13 -3.0119e-13 -2.22885e-13 0 0 -2.44649e-13 -4.3564e-13 -3.66157e-13 -2.3438e-13 0 0 -2.36242e-13 -4.31166e-13 -4.14413e-13 -1.68526e-13 0 0 -2.18608e-13 -4.41478e-13 -4.92761e-13 -7.00054e-14 0 0 -2.25455e-13 -4.76909e-13 -3.39535e-13 -2.80307e-13 0 0 -2.9565e-13 -4.11349e-13 -2.85124e-13 -4.1459e-13 0 0 -2.36613e-13 -4.77198e-13 -2.61177e-13 -3.59142e-13 0 0 -1.80022e-13 -5.44709e-13 -2.4763e-13 -2.80845e-13 0 0 -1.96163e-13 -4.93721e-13 -3.35556e-13 -2.08404e-13 0 0 -2.73351e-13 -3.42035e-13 -4.47063e-13 -2.40526e-13 0 0 -2.9146e-13 -3.62923e-13 -3.78981e-13 -3.28472e-13 0 0 -2.53446e-13 -5.21068e-13 -2.20621e-13 -3.25335e-13 0 0 -2.29368e-13 -5.8253e-13 -1.99219e-13 -2.80027e-13 0 0 -1.96471e-13 -6.31026e-13 -1.93076e-13 -2.76356e-13 0 0 -2.65414e-13 -5.01707e-13 -3.0563e-13 -2.25235e-13 0 0 -3.51498e-13 -2.92755e-13 -4.8877e-13 -1.2821e-13 0 0 -3.34272e-13 -2.70687e-13 -5.0501e-13 -1.46146e-13 0 0 -2.7004e-13 -3.20078e-13 -4.54052e-13 -2.40462e-13 0 0 -1.7282e-13 -3.84327e-13 -4.59743e-13 -1.72788e-13 0 0 -1.0673e-13 -4.33453e-13 -3.78454e-13 -2.26836e-13 0 0 -1.31958e-13 -3.95435e-13 -2.19392e-13 -4.25305e-13 0 0 -2.75927e-13 -1.53896e-13 -3.81299e-13 -3.51844e-13 0 0 -3.67928e-13 -6.38527e-14 -4.6434e-13 -1.91695e-13 0 0 -1.63887e-13 -4.16642e-13 -1.05803e-13 -2.81949e-13 0 0 -7.48707e-14 -4.79146e-13 -1.06594e-13 -2.48964e-13 0 0 3.36414e-14 -6.01262e-13 -1.21726e-13 -1.89802e-13 0 0 -1.57894e-13 -3.89051e-13 -3.71575e-13 -1.63137e-14 0 0 -5.97048e-13 1.26842e-13 -8.94945e-13 3.02311e-13 0 0 -4.60815e-13 -2.30563e-13 -3.3529e-13 -1.60529e-13 0 0 -2.86953e-13 -4.62829e-13 2.97558e-14 -4.80718e-13 0 0 -4.91972e-13 -2.80515e-14 -4.93647e-13 -1.61263e-13 0 0 -6.24943e-13 1.99365e-13 -7.05046e-13 -5.71587e-14 0
				</DataArray>
				<DataArray Name="VitesseY" type="Float32" format="ascii">