<?xml version="1.0"?>
<VTKFile type="PolyData">
	<PolyData>
		<Piece NumberOfPoints="1206" NumberOfPolys="1000">
			<Points>
				<DataArray type="Float32" NumberOfComponents="3" format="ascii">
 0 0 0 0.02 0 0 0.04 0 0 0.06 0 0 0.08 0 0 0.1 0 0 0 0.005 0 0.02 0.005 0 0.04 0.005 0 0.06 0.005 0 0.08 0.005 0 0.1 0.005 0 0 0.01 0 0.02 0.01 0 0.04 0.01 0 0.06 0.01 0 0.08 0.01 0 0.1 0.01 0 0 0.015 0 0.02 0.015 0 0.04 0.015 0 0.06 0.015 0 0.08 0.015 0 0.1 0.015 0 0 0.02 0 0.02 0.02 0 0.04 0.02 0 0.06 0.02 0 0.08 0.02 0 0.1 0.02 0 0 0.025 0 0.02 0.025 0 0.04 0.025 0 0.06 0.025 0 0.08 0.025 0 0.1 0.025 0 0 0.03 0 0.02 0.03 0 0.04 0.03 0 0.06 0.03 0 0.08 0.03 0 0.1 0.03 0 0 0.035 0 0.02 0.035 0 0.04 0.035 0 0.06 0.035 0 0.08 0.035 0 0.1 0.035 0 0 0.04 0 0.02 0.04 0 0.04 0.04 0 0.06 0.04 0 0.08 0.04 0 0.1 0.04 0 0 0.045 0 0.02 0.045 0 0.04 0.045 0 0.06 0.045 0 0.08 0.045 0 0.1 0.045 0 0 0.05 0 0.02 0.05 0 0.04 0.05 0 0.06 0.05 0 0.08 0.05 0 0.1 0.05 0 0 0.055 0 0.02 0.055 0 0.04 0.055 0 0.06 0.055 0 0.08 0.055 0 0.1 0.055 0 0 0.06 0 0.02 0.06 0 0.04 0.06 0 0.06 0.06 0 0.08 0.06 0 0.1 0.06 0 0 0.065 0 0.02 0.065 0 0.04 0.065 0 0.06 0.065 0 0.08 0.065 0 0.1 0.065 0 0 0.07 0 0.02 0.07 0 0.04 0.07 0 0.06 0.07 0 0.08 0.07 0 0.1 0.07 0 0 0.075 0 0.02 0.075 0 0.04 0.075 0 0.06 0.075 0 0.08 0.075 0 0.1 0.075 0 0 0.08 0 0.02 0.08 0 0.04 0.08 0 0.06 0.08 0 0.08 0.08 0 0.1 0.08 0 0 0.085 0 0.02 0.085 0 0.04 0.085 0 0.06 0.085 0 0.08 0.085 0 0.1 0.085 0 0 0.09 0 0.02 0.09 0 0.04 0.09 0 0.06 0.09 0 0.08 0.09 0 0.1 0.09 0 0 0.095 0 0.02 0.095 0 0.04 0.095 0 0.06 0.095 0 0.08 0.095 0 0.1 0.095 0 0 0.1 0 0.02 0.1 0 0.04 0.1 0 0.06 0.1 0 0.08 0.1 0 0.1 0.1 0 0 0.105 0 0.02 0.105 0 0.04 0.105 0 0.06 0.105 0 0.08 0.105 0 0.1 0.105 0 0 0.11 0 0.02 0.11 0 0.04 0.11 0 0.06 0.11 0 0.08 0.11 0 0.1 0.11 0 0 0.115 0 0.02 0.115 0 0.04 0.115 0 0.06 0.115 0 0.08 0.115 0 0.1 0.115 0 0 0.12 0 0.02 0.12 0 0.04 0.12 0 0.06 0.12 0 0.08 0.12 0 0.1 0.12 0 0 0.125 0 0.02 0.125 0 0.04 0.125 0 0.06 0.125 0 0.08 0.125 0 0.1 0.125 0 0 0.13 0 0.02 0.13 0 0.04 0.13 0 0.06 0.13 0 0.08 0.13 0 0.1 0.13 0 0 0.135 0 0.02 0.135 0 0.04 0.135 0 0.06 0.135 0 0.08 0.135 0 0.1 0.135 0 0 0.14 0 0.02 0.14 0 0.04 0.14 0 0.06 0.14 0 0.08 0.14 0 0.1 0.14 0 0 0.145 0 0.02 0.145 0 0.04 0.145 0 0.06 0.145 0 0.08 0.145 0 0.1 0.145 0 0 0.15 0 0.02 0.15 0 0.04 0.15 0 0.06 0.15 0 0.08 0.15 0 0.1 0.15 0 0 0.155 0 0.02 0.155 0 0.04 0.155 0 0.06 0.155 0 0.08 0.155 0 0.1 0.155 0 0 0.16 0 0.02 0.16 0 0.04 0.16 0 0.06 0.16 0 0.08 0.16 0 0.1 0.16 0 0 0.165 0 0.02 0.165 0 0.04 0.165 0 0.06 0.165 0 0.08 0.165 0 0.1 0.165 0 0 0.17 0 0.02 0.17 0 0.04 0.17 0 0.06 0.17 0 0.08 0.17 0 0.1 0.17 0 0 0.175 0 0.02 0.175 0 0.04 0.175 0 0.06 0.175 0 0.08 0.175 0 0.1 0.175 0 0 0.18 0 0.02 0.18 0 0.04 0.18 0 0.06 0.18 0 0.08 0.18 0 0.1 0.18 0 0 0.185 0 0.02 0.185 0 0.04 0.185 0 0.06 0.185 0 0.08 0.185 0 0.1 0.185 0 0 0.19 0 0.02 0.19 0 0.04 0.19 0 0.06 0.19 0 0.08 0.19 0 0.1 0.19 0 0 0.195 0 0.02 0.195 0 0.04 0.195 0 0.06 0.195 0 0.08 0.195 0 0.1 0.195 0 0 0.2 0 0.02 0.2 0 0.04 0.2 0 0.06 0.2 0 0.08 0.2 0 0.1 0.2 0 0 0.205 0 0.02 0.205 0 0.04 0.205 0 0.06 0.205 0 0.08 0.205 0 0.1 0.205 0 0 0.21 0 0.02 0.21 0 0.04 0.21 0 0.06 0.21 0 0.08 0.21 0 0.1 0.21 0 0 0.215 0 0.02 0.215 0 0.04 0.215 0 0.06 0.215 0 0.08 0.215 0 0.1 0.215 0 0 0.22 0 0.02 0.22 0 0.04 0.22 0 0.06 0.22 0 0.08 0.22 0 0.1 0.22 0 0 0.225 0 0.02 0.225 0 0.04 0.225 0 0.06 0.225 0 0.08 0.225 0 0.1 0.225 0 0 0.23 0 0.02 0.23 0 0.04 0.23 0 0.06 0.23 0 0.08 0.23 0 0.1 0.23 0 0 0.235 0 0.02 0.235 0 0.04 0.235 0 0.06 0.235 0 0.08 0.235 0 0.1 0.235 0 0 0.24 0 0.02 0.24 0 0.04 0.24 0 0.06 0.24 0 0.08 0.24 0 0.1 0.24 0 0 0.245 0 0.02 0.245 0 0.04 0.245 0 0.06 0.245 0 0.08 0.245 0 0.1 0.245 0 0 0.25 0 0.02 0.25 0 0.04 0.25 0 0.06 0.25 0 0.08 0.25 0 0.1 0.25 0 0 0.255 0 0.02 0.255 0 0.04 0.255 0 0.06 0.255 0 0.08 0.255 0 0.1 0.255 0 0 0.26 0 0.02 0.26 0 0.04 0.26 0 0.06 0.26 0 0.08 0.26 0 0.1 0.26 0 0 0.265 0 0.02 0.265 0 0.04 0.265 0 0.06 0.265 0 0.08 0.265 0 0.1 0.265 0 0 0.27 0 0.02 0.27 0 0.04 0.27 0 0.06 0.27 0 0.08 0.27 0 0.1 0.27 0 0 0.275 0 0.02 0.275 0 0.04 0.275 0 0.06 0.275 0 0.08 0.275 0 0.1 0.275 0 0 0.28 0 0.02 0.28 0 0.04 0.28 0 0.06 0.28 0 0.08 0.28 0 0.1 0.28 0 0 0.285 0 0.02 0.285 0 0.04 0.285 0 0.06 0.285 0 0.08 0.285 0 0.1 0.285 0 0 0.29 0 0.02 0.29 0 0.04 0.29 0 0.06 0.29 0 0.08 0.29 0 0.1 0.29 0 0 0.295 0 0.02 0.295 0 0.04 0.295 0 0.06 0.295 0 0.08 0.295 0 0.1 0.295 0 0 0.3 0 0.02 0.3 0 0.04 0.3 0 0.06 0.3 0 0.08 0.3 0 0.1 0.3 0 0 0.305 0 0.02 0.305 0 0.04 0.305 0 0.06 0.305 0 0.08 0.305 0 0.1 0.305 0 0 0.31 0 0.02 0.31 0 0.04 0.31 0 0.06 0.31 0 0.08 0.31 0 0.1 0.31 0 0 0.315 0 0.02 0.315 0 0.04 0.315 0 0.06 0.315 0 0.08 0.315 0 0.1 0.315 0 0 0.32 0 0.02 0.32 0 0.04 0.32 0 0.06 0.32 0 0.08 0.32 0 0.1 0.32 0 0 0.325 0 0.02 0.325 0 0.04 0.325 0 0.06 0.325 0 0.08 0.325 0 0.1 0.325 0 0 0.33 0 0.02 0.33 0 0.04 0.33 0 0.06 0.33 0 0.08 0.33 0 0.1 0.33 0 0 0.335 0 0.02 0.335 0 0.04 0.335 0 0.06 0.335 0 0.08 0.335 0 0.1 0.335 0 0 0.34 0 0.02 0.34 0 0.04 0.34 0 0.06 0.34 0 0.08 0.34 0 0.1 0.34 0 0 0.345 0 0.02 0.345 0 0.04 0.345 0 0.06 0.345 0 0.08 0.345 0 0.1 0.345 0 0 0.35 0 0.02 0.35 0 0.04 0.35 0 0.06 0.35 0 0.08 0.35 0 0.1 0.35 0 0 0.355 0 0.02 0.355 0 0.04 0.355 0 0.06 0.355 0 0.08 0.355 0 0.1 0.355 0 0 0.36 0 0.02 0.36 0 0.04 0.36 0 0.06 0.36 0 0.08 0.36 0 0.1 0.36 0 0 0.365 0 0.02 0.365 0 0.04 0.365 0 0.06 0.365 0 0.08 0.365 0 0.1 0.365 0 0 0.37 0 0.02 0.37 0 0.04 0.37 0 0.06 0.37 0 0.08 0.37 0 0.1 0.37 0 0 0.375 0 0.02 0.375 0 0.04 0.375 0 0.06 0.375 0 0.08 0.375 0 0.1 0.375 0 0 0.38 0 0.02 0.38 0 0.04 0.38 0 0.06 0.38 0 0.08 0.38 0 0.1 0.38 0 0 0.385 0 0.02 0.385 0 0.04 0.385 0 0.06 0.385 0 0.08 0.385 0 0.1 0.385 0 0 0.39 0 0.02 0.39 0 0.04 0.39 0 0.06 0.39 0 0.08 0.39 0 0.1 0.39 0 0 0.395 0 0.02 0.395 0 0.04 0.395 0 0.06 0.395 0 0.08 0.395 0 0.1 0.395 0 0 0.4 0 0.02 0.4 0 0.04 0.4 0 0.06 0.4 0 0.08 0.4 0 0.1 0.4 0 0 0.405 0 0.02 0.405 0 0.04 0.405 0 0.06 0.405 0 0.08 0.405 0 0.1 0.405 0 0 0.41 0 0.02 0.41 0 0.04 0.41 0 0.06 0.41 0 0.08 0.41 0 0.1 0.41 0 0 0.415 0 0.02 0.415 0 0.04 0.415 0 0.06 0.415 0 0.08 0.415 0 0.1 0.415 0 0 0.42 0 0.02 0.42 0 0.04 0.42 0 0.06 0.42 0 0.08 0.42 0 0.1 0.42 0 0 0.425 0 0.02 0.425 0 0.04 0.425 0 0.06 0.425 0 0.08 0.425 0 0.1 0.425 0 0 0.43 0 0.02 0.43 0 0.04 0.43 0 0.06 0.43 0 0.08 0.43 0 0.1 0.43 0 0 0.435 0 0.02 0.435 0 0.04 0.435 0 0.06 0.435 0 0.08 0.435 0 0.1 0.435 0 0 0.44 0 0.02 0.44 0 0.04 0.44 0 0.06 0.44 0 0.08 0.44 0 0.1 0.44 0 0 0.445 0 0.02 0.445 0 0.04 0.445 0 0.06 0.445 0 0.08 0.445 0 0.1 0.445 0 0 0.45 0 0.02 0.45 0 0.04 0.45 0 0.06 0.45 0 0.08 0.45 0 0.1 0.45 0 0 0.455 0 0.02 0.455 0 0.04 0.455 0 0.06 0.455 0 0.08 0.455 0 0.1 0.455 0 0 0.46 0 0.02 0.46 0 0.04 0.46 0 0.06 0.46 0 0.08 0.46 0 0.1 0.46 0 0 0.465 0 0.02 0.465 0 0.04 0.465 0 0.06 0.465 0 0.08 0.465 0 0.1 0.465 0 0 0.47 0 0.02 0.47 0 0.04 0.47 0 0.06 0.47 0 0.08 0.47 0 0.1 0.47 0 0 0.475 0 0.02 0.475 0 0.04 0.475 0 0.06 0.475 0 0.08 0.475 0 0.1 0.475 0 0 0.48 0 0.02 0.48 0 0.04 0.48 0 0.06 0.48 0 0.08 0.48 0 0.1 0.48 0 0 0.485 0 0.02 0.485 0 0.04 0.485 0 0.06 0.485 0 0.08 0.485 0 0.1 0.485 0 0 0.49 0 0.02 0.49 0 0.04 0.49 0 0.06 0.49 0 0.08 0.49 0 0.1 0.49 0 0 0.495 0 0.02 0.495 0 0.04 0.495 0 0.06 0.495 0 0.08 0.495 0 0.1 0.495 0 0 0.5 0 0.02 0.5 0 0.04 0.5 0 0.06 0.5 0 0.08 0.5 0 0.1 0.5 0 0 0.505 0 0.02 0.505 0 0.04 0.505 0 0.06 0.505 0 0.08 0.505 0 0.1 0.505 0 0 0.51 0 0.02 0.51 0 0.04 0.51 0 0.06 0.51 0 0.08 0.51 0 0.1 0.51 0 0 0.515 0 0.02 0.515 0 0.04 0.515 0 0.06 0.515 0 0.08 0.515 0 0.1 0.515 0 0 0.52 0 0.02 0.52 0 0.04 0.52 0 0.06 0.52 0 0.08 0.52 0 0.1 0.52 0 0 0.525 0 0.02 0.525 0 0.04 0.525 0 0.06 0.525 0 0.08 0.525 0 0.1 0.525 0 0 0.53 0 0.02 0.53 0 0.04 0.53 0 0.06 0.53 0 0.08 0.53 0 0.1 0.53 0 0 0.535 0 0.02 0.535 0 0.04 0.535 0 0.06 0.535 0 0.08 0.535 0 0.1 0.535 0 0 0.54 0 0.02 0.54 0 0.04 0.54 0 0.06 0.54 0 0.08 0.54 0 0.1 0.54 0 0 0.545 0 0.02 0.545 0 0.04 0.545 0 0.06 0.545 0 0.08 0.545 0 0.1 0.545 0 0 0.55 0 0.02 0.55 0 0.04 0.55 0 0.06 0.55 0 0.08 0.55 0 0.1 0.55 0 0 0.555 0 0.02 0.555 0 0.04 0.555 0 0.06 0.555 0 0.08 0.555 0 0.1 0.555 0 0 0.56 0 0.02 0.56 0 0.04 0.56 0 0.06 0.56 0 0.08 0.56 0 0.1 0.56 0 0 0.565 0 0.02 0.565 0 0.04 0.565 0 0.06 0.565 0 0.08 0.565 0 0.1 0.565 0 0 0.57 0 0.02 0.57 0 0.04 0.57 0 0.06 0.57 0 0.08 0.57 0 0.1 0.57 0 0 0.575 0 0.02 0.575 0 0.04 0.575 0 0.06 0.575 0 0.08 0.575 0 0.1 0.575 0 0 0.58 0 0.02 0.58 0 0.04 0.58 0 0.06 0.58 0 0.08 0.58 0 0.1 0.58 0 0 0.585 0 0.02 0.585 0 0.04 0.585 0 0.06 0.585 0 0.08 0.585 0 0.1 0.585 0 0 0.59 0 0.02 0.59 0 0.04 0.59 0 0.06 0.59 0 0.08 0.59 0 0.1 0.59 0 0 0.595 0 0.02 0.595 0 0.04 0.595 0 0.06 0.595 0 0.08 0.595 0 0.1 0.595 0 0 0.6 0 0.02 0.6 0 0.04 0.6 0 0.06 0.6 0 0.08 0.6 0 0.1 0.6 0 0 0.605 0 0.02 0.605 0 0.04 0.605 0 0.06 0.605 0 0.08 0.605 0 0.1 0.605 0 0 0.61 0 0.02 0.61 0 0.04 0.61 0 0.06 0.61 0 0.08 0.61 0 0.1 0.61 0 0 0.615 0 0.02 0.615 0 0.04 0.615 0 0.06 0.615 0 0.08 0.615 0 0.1 0.615 0 0 0.62 0 0.02 0.62 0 0.04 0.62 0 0.06 0.62 0 0.08 0.62 0 0.1 0.62 0 0 0.625 0 0.02 0.625 0 0.04 0.625 0 0.06 0.625 0 0.08 0.625 0 0.1 0.625 0 0 0.63 0 0.02 0.63 0 0.04 0.63 0 0.06 0.63 0 0.08 0.63 0 0.1 0.63 0 0 0.635 0 0.02 0.635 0 0.04 0.635 0 0.06 0.635 0 0.08 0.635 0 0.1 0.635 0 0 0.64 0 0.02 0.64 0 0.04 0.64 0 0.06 0.64 0 0.08 0.64 0 0.1 0.64 0 0 0.645 0 0.02 0.645 0 0.04 0.645 0 0.06 0.645 0 0.08 0.645 0 0.1 0.645 0 0 0.65 0 0.02 0.65 0 0.04 0.65 0 0.06 0.65 0 0.08 0.65 0 0.1 0.65 0 0 0.655 0 0.02 0.655 0 0.04 0.655 0 0.06 0.655 0 0.08 0.655 0 0.1 0.655 0 0 0.66 0 0.02 0.66 0 0.04 0.66 0 0.06 0.66 0 0.08 0.66 0 0.1 0.66 0 0 0.665 0 0.02 0.665 0 0.04 0.665 0 0.06 0.665 0 0.08 0.665 0 0.1 0.665 0 0 0.67 0 0.02 0.67 0 0.04 0.67 0 0.06 0.67 0 0.08 0.67 0 0.1 0.67 0 0 0.675 0 0.02 0.675 0 0.04 0.675 0 0.06 0.675 0 0.08 0.675 0 0.1 0.675 0 0 0.68 0 0.02 0.68 0 0.04 0.68 0 0.06 0.68 0 0.08 0.68 0 0.1 0.68 0 0 0.685 0 0.02 0.685 0 0.04 0.685 0 0.06 0.685 0 0.08 0.685 0 0.1 0.685 0 0 0.69 0 0.02 0.69 0 0.04 0.69 0 0.06 0.69 0 0.08 0.69 0 0.1 
[...]
			<PointData Scalars="VitesseX">
				<DataArray Name="VitesseX" type="Float32" format="ascii">
 0 -6.09989e-16 -1.6284e-14 1.57567e-14 -2.95657e-14 0 0 5.74241e-16 -1.48999e-14 1.2014e-14 -2.33615e-14 0 0 -2.22035e-15 -1.52482e-16 -1.04252e-14 2.20648e-15 0 0 2.26177e-14 -2.80433e-14 1.42672e-14 1.52698e-16 0 0 2.0838e-14 -1.49954e-14 1.52159e-14 2.30633e-15 0 0 -2.23086e-14 5.45461e-14 -2.51793e-14 2.32403e-14 0 0 -1.53484e-14 3.13943e-14 2.40721e-14 -5.89733e-15 0 0 1.95212e-14 -2.19948e-14 8.36576e-14 -3.71366e-14 0 0 7.5403e-15 1.22726e-14 6.13635e-14 -2.72695e-14 0 0 8.07768e-15 4.23718e-14 2.58713e-14 -2.60448e-15 0 0 6.04519e-14 -1.08539e-14 4.79736e-14 -2.13704e-15 0 0 3.17261e-14 3.86584e-14 -2.23865e-14 4.82291e-14 0 0 6.44026e-14 -2.85117e-14 3.30321e-14 1.0049e-14 0 0 5.83176e-14 -2.66551e-14 2.11544e-14 -3.26047e-15 0 0 2.44965e-14 2.23388e-14 -4.33161e-14 3.67026e-14 0 0 7.96492e-14 -9.61539e-14 8.63749e-14 -3.97374e-14 0 0 2.41876e-15 2.29645e-14 -1.50008e-14 1.77382e-14 0 0 1.21453e-14 3.31368e-14 -1.17879e-14 4.57663e-15 0 0 4.13289e-14 -4.88997e-15 5.8995e-14 -5.96414e-14 0 0 2.4913e-14 3.54931e-14 1.25179e-14 -3.0328e-14 0 0 7.91387e-14 -6.69347e-14 8.52096e-14 -7.15746e-14 0 0 7.27789e-14 -9.51869e-14 9.69848e-14 -7.37286e-14 0 0 -1.75751e-15 1.37975e-14 -2.91295e-14 5.29439e-15 0 0 -7.801e-14 1.25366e-13 -1.35164e-13 6.52124e-14 0 0 2.04606e-14 -2.13512e-14 -1.19148e-14 1.83772e-14 0 0 1.32188e-13 -1.95356e-13 1.74085e-13 -6.97794e-14 0 0 -9.97839e-15 8.05533e-15 3.21694e-14 7.00849e-15 0 0 -5.26433e-14 7.72787e-14 -5.76923e-14 8.96322e-14 0 0 -1.2579e-15 5.41199e-15 3.79449e-15 9.57201e-14 0 0 -1.73485e-16 7.82809e-15 1.64699e-14 9.89437e-14 0 0 -8.93576e-15 4.24142e-14 -2.06547e-14 1.11109e-13 0 0 1.48044e-14 3.12528e-14 -8.22107e-15 5.81085e-14 0 0 4.42397e-14 -2.07673e-14 4.72563e-14 -4.1091e-14 0 0 -3.10398e-14 5.46058e-14 -1.17407e-14 -6.6917e-14 0 0 1.73216e-14 1.9505e-15 -2.0692e-14 -5.46544e-14 0 0 5.12909e-14 -2.18718e-14 -4.57535e-14 5.96321e-15 0 0 1.03454e-13 -1.33668e-13 1.12926e-13 -9.32575e-14 0 0 6.114e-14 -3.51834e-14 -5.9444e-15 -8.75949e-15 0 0 7.11032e-14 -1.86442e-14 -6.93108e-14 5.14791e-14 0 0 7.91112e-14 -6.64755e-14 1.33708e-14 -4.56203e-15 0 0 -5.70612e-15 -1.04675e-14 7.17051e-14 -7.53158e-14 0 0 7.28935e-16 -7.03923e-14 2.16517e-13 -2.14204e-13 0 0 -1.41768e-13 1.54095e-13 -9.07341e-15 -8.11289e-14 0 0 -6.95485e-14 8.94066e-14 -3.09418e-14 -5.09427e-15 0 0 1.3316e-13 -1.5725e-13 1.30319e-13 -3.63875e-14 0 0 6.28301e-14 4.74293e-14 -1.25515e-13 1.33687e-13 0 0 1.52127e-13 5.56367e-15 -1.41454e-13 1.1079e-13 0 0 1.15432e-13 5.71998e-14 -1.60393e-13 8.71346e-14 0 0 -8.25131e-15 2.07651e-13 -2.53101e-13 9.99348e-14 0 0 9.65147e-14 4.56745e-14 -7.18155e-14 -6.18931e-14 0 0 2.11306e-13 -1.02976e-13 4.06884e-14 -1.33436e-13 0 0 2.85905e-13 -2.17975e-13 1.21651e-13 -1.33597e-13 0 0 -9.3029e-14 3.36543e-13 -4.35282e-13 2.96854e-13 0 0 1.60626e-14 9.95388e-14 -1.88734e-13 1.76166e-13 0 0 3.26918e-13 -3.40662e-13 2.29758e-13 -1.71226e-13 0 0 1.42414e-13 2.55711e-14 -1.81041e-13 6.44587e-15 0 0 2.03695e-13 -6.17014e-14 -1.13422e-13 -6.34868e-14 0 0 8.52024e-14 1.92991e-13 -4.32714e-13 4.92227e-14 0 0 9.34481e-14 1.83447e-13 -4.51334e-13 -2.05859e-14 0 0 2.91253e-13 -1.82968e-13 -1.1611e-13 -1.74589e-13 0 0 1.63298e-13 -7.26128e-14 -1.79275e-13 -1.04116e-13 0 0 1.85915e-14 3.33788e-14 -1.20915e-13 -1.78754e-13 0 0 -3.33003e-14 4.07375e-14 -5.62512e-14 -1.63683e-13 0 0 1.1455e-13 -1.87401e-13 1.40395e-13 -2.12769e-13 0 0 8.33081e-14 -9.99722e-14 2.08479e-14 -1.1011e-13 0 0 -8.23222e-14 1.39773e-13 -1.4677e-13 1.15668e-14 0 0 -3.82143e-14 4.33435e-14 2.23389e-14 -7.81325e-14 0 0 2.10071e-14 6.39415e-15 2.61803e-14 -6.85139e-14 0 0 2.05732e-13 -1.9935e-13 1.66376e-13 -1.27628e-13 0 0 2.38974e-13 -1.26182e-13 1.34044e-14 -4.0607e-14 0 0 -5.17361e-16 3.33917e-13 -4.43416e-13 1.83436e-13 0 0 1.78053e-13 1.12705e-14 -4.02448e-14 -9.47455e-14 0 0 3.01779e-13 -1.53332e-13 1.22604e-13 -1.81043e-13 0 0 3.59173e-13 -1.73513e-13 1.0832e-13 -1.01967e-13 0 0 2.06458e-13 7.18058e-14 -8.05871e-14 2.86435e-14 0 0 1.61054e-13 2.26589e-13 -2.05329e-13 9.09075e-14 0 0 6.23808e-13 -2.77456e-13 2.31171e-13 -1.54695e-13 0 0 4.40101e-13 1.49167e-13 -1.37364e-13 -1.43496e-14 0 0 3.15923e-13 1.81095e-13 7.42723e-14 -2.45862e-13 0 0 2.0835e-13 3.53477e-13 -7.61998e-14 -1.48414e-14 0 0 4.69065e-13 5.38486e-14 5.11187e-14 1.65218e-13 0 0 6.14599e-13 -3.48188e-13 4.99442e-13 1.09534e-13 0 0 -1.66734e-13 7.77032e-13 -5.22272e-13 8.45314e-13 0 0 1.88612e-13 1.55939e-13 1.07872e-13 4.22238e-13 0 0 9.14883e-13 -1.04276e-12 1.2273e-12 -3.03508e-13 0 0 4.94981e-14 7.72034e-14 1.49091e-13 4.05663e-13 0 0 -8.57208e-13 7.47869e-13 -1.28765e-13 6.09843e-13 0 0 -2.57274e-13 -1.08053e-13 6.4853e-13 2.59333e-13 0 0 4.72206e-13 -3.9949e-13 1.86886e-13 8.52002e-13 0 0 5.83577e-13 -5.45598e-13 4.66835e-13 4.21439e-13 0 0 4.05912e-14 8.24248e-14 4.1864e-13 -1.17925e-13 0 0 -7.33212e-13 1.01052e-12 -2.098e-13 1.43582e-13 0 0 -5.31522e-13 6.18405e-13 7.53529e-14 -2.35023e-14 0 0 -3.46534e-14 5.99358e-14 3.43671e-13 3.45618e-14 0 0 3.62362e-13 -3.60119e-13 3.34956e-13 3.56247e-13 0 0 5.15827e-13 -5.17422e-13 5.09871e-13 2.9841e-13 0 0 1.75391e-13 -2.90507e-13 5.0279e-13 8.2458e-14 0 0 -5.11274e-13 3.1293e-13 2.37843e-13 1.14382e-13 0 0 -6.21459e-13 5.66108e-13 -4.21586e-13 3.66834e-13 0 0 -3.91631e-13 4.52758e-13 -7.55978e-13 7.21936e-13 0 0 1.76331e-13 -2.57986e-14 -7.01919e-13 7.74343e-13 0 0 5.27266e-13 -5.42084e-13 -4.96565e-13 7.3312e-13 0 0 5.17486e-13 -6.29804e-13 -2.85673e-13 6.05769e-13 0 0 3.468e-13 -5.06358e-13 -1.45311e-13 3.9357e-13 0 0 3.98779e-14 -1.02425e-13 -1.10102e-13 1.87741e-13 0 0 -2.37506e-13 3.71943e-13 -1.21315e-13 1.69511e-14 0 0 -2.60373e-13 5.57263e-13 -1.41259e-13 -1.33306e-13 0 0 -1.81742e-13 5.79214e-13 -1.53517e-13 -2.47638e-13 0 0 -6.12967e-14 5.40577e-13 -1.19132e-13 -3.55091e-13 0 0 4.51392e-14 3.05954e-13 2.40275e-15 -4.69358e-13 0 0 1.34151e-13 -8.44749e-14 8.01574e-14 -4.71066e-13 0 0 1.43e-13 -2.96783e-13 -2.10502e-15 -3.23207e-13 0 0 3.58017e-14 -2.49654e-13 -1.61855e-13 -1.48978e-13 0 0 -8.44378e-14 -2.67499e-13 -2.46115e-13 -3.18692e-14 0 0 -8.70438e-14 -2.86065e-13 -2.22107e-13 9.83699e-14 0 0 -1.15958e-13 -2.07531e-13 -2.65911e-13 8.91592e-14 0 0 -7.47536e-14 -2.19758e-13 -2.49092e-13 5.63961e-14 0 0 -2.17752e-14 -1.98928e-13 -2.52839e-13 -8.98342e-15 0 0 -5.27258e-14 -6.23066e-14 -2.97523e-13 4.1424e-16 0 0 -4.50198e-15 -1.24035e-13 -1.57387e-13 5.75704e-14 0 0 -1.81058e-15 -8.56483e-14 -2.73695e-14 2.13637e-14 0 0 -7.02862e-15 4.39496e-14 -7.10906e-14 2.11437e-14 0 0 1.88657e-13 -1.50304e-13 9.87151e-14 -8.25546e-14 0 0 1.37523e-13 5.37454e-14 -1.12624e-13 1.26669e-14 0 0 1.29935e-13 8.91738e-14 -9.48582e-14 -4.06162e-15 0 0 1.27184e-13 4.69023e-14 3.04586e-14 -7.66007e-14 0 0 6.47238e-14 1.31405e-13 -2.90968e-14 -3.76416e-14 0 0 2.23293e-13 -1.06032e-13 1.55698e-13 -1.19024e-13 0 0 1.40936e-13 4.3203e-14 -6.93328e-14 9.60038e-14 0 0 1.94114e-13 -2.85114e-14 -6.79428e-14 1.06698e-13 0 0 1.24594e-13 8.60171e-14 -2.06279e-13 9.94096e-14 0 0 3.26424e-14 2.21451e-13 -3.44759e-13 9.58354e-14 0 0 2.97154e-13 -2.28357e-13 8.28261e-14 -1.89192e-13 0 0 9.74807e-14 1.57218e-14 -1.35582e-13 -6.84466e-14 0 0 9.11617e-14 -3.87778e-14 -1.16863e-13 -5.20467e-14 0 0 4.17067e-14 -7.41392e-15 -1.81415e-13 4.7922e-14 0 0 -4.6977e-14 1.14036e-13 -2.75266e-13 8.7214e-14 0 0 2.17481e-13 -3.09964e-13 1.47112e-13 -1.52713e-13 0 0 -4.62789e-14 7.53621e-14 -1.86706e-13 9.49642e-14 0 0 -1.68705e-13 1.62975e-13 -1.25362e-13 6.59298e-14 0 0 -5.07029e-14 -7.0186e-14 1.80144e-13 -2.75126e-14 0 0 -2.64824e-13 3.49633e-13 -2.531e-13 2.57835e-13 0 0 1.31652e-13 -2.53339e-13 2.49326e-13 2.77423e-14 0 0 2.43224e-13 -4.37551e-13 3.40134e-13 1.06231e-13 0 0 -1.46743e-13 1.47876e-13 -1.52232e-13 3.0927e-13 0 0 8.08751e-14 -2.13865e-13 3.53391e-13 -7.15191e-14 0 0 -1.21193e-13 2.24387e-13 7.0577e-14 9.01145e-14 0 0 -1.57442e-14 2.08452e-13 2.12919e-13 -9.46651e-14 0 0 1.7908e-13 -5.24263e-14 5.34261e-13 -3.34666e-13 0 0 2.05789e-14 2.52926e-13 1.47397e-13 -5.77102e-16 0 0 3.85776e-13 -4.35899e-13 7.87694e-13 -3.77058e-13 0 0 -7.7228e-14 1.66868e-13 1.85187e-13 -1.54701e-13 0 0 -8.58369e-14 2.63835e-13 -3.10496e-14 -1.12703e-13 0 0 2.18422e-13 -1.26325e-13 1.33354e-13 -8.15439e-14 0 0 1.63336e-13 -1.23578e-13 1.74334e-14 1.33217e-13 0 0 -5.02941e-14 -8.39709e-14 6.11886e-14 3.82207e-14 0 0 -3.64048e-13 2.31442e-13 -1.71797e-13 1.92003e-14 0 0 6.93444e-14 -4.02725e-13 2.40907e-13 -1.87493e-13 0 0 8.8051e-14 -3.8295e-13 1.24161e-14 -4.4542e-14 0 0 6.14408e-14 -4.82697e-13 2.53785e-13 -3.2408e-13 0 0 -1.31365e-13 -3.38736e-13 2.31803e-13 -4.1347e-13 0 0 -4.38498e-13 -1.71993e-14 6.21511e-14 -4.68342e-13 0 0 -2.85173e-13 -3.06966e-13 2.50923e-13 -4.22387e-13 0 0 -2.60473e-13 -2.63355e-13 -7.19038e-14 9.85532e-14 0 0 -1.08284e-13 -5.24688e-13 1.36034e-13 1.72457e-13 0 0 9.1012e-14 -8.07847e-13 2.54513e-13 3.36446e-13 0 0 -1.53624e-14 -5.78277e-13 -5.04202e-15 5.22317e-13 0 0 -2.658e-13 -2.09654e-13 -7.35879e-14 3.12251e-13 0 0 -7.22847e-13 4.93293e-13 -6.61144e-13 4.66217e-13 0 0 -3.78628e-13 -2.86103e-14 -3.7155e-13 2.71992e-13 0 0 3.59202e-14 -6.02566e-13 -1.4728e-13 1.65266e-13 0 0 -2.14509e-13 -1.84485e-13 -7.17654e-13 4.91816e-13 0 0 4.96971e-14 -7.05212e-13 -9.42943e-14 5.6786e-14 0 0 -2.82286e-13 -2.18998e-13 -3.06543e-13 -6.6334e-14 0 0 -3.3989e-13 -1.70152e-13 -2.53613e-13 -2.1052e-13 0 0 -1.22026e-13 -5.46432e-13 1.12092e-13 -5.22636e-13 0 0 -2.61574e-13 -2.08246e-13 -3.0823e-13 -3.28839e-13 0 0 1.55226e-13 -8.20889e-13 1.45828e-13 -2.64662e-13 0 0 -3.30736e-13 -1.84987e-13 -3.40309e-13 1.6194e-13 0 0 -5.6791e-13 1.60856e-14 -4.26005e-13 1.65343e-13 0 0 -2.08218e-13 -5.2902e-13 1.31998e-13 -2.62833e-13 0 0 -3.73359e-13 -9.76019e-14 -3.26642e-13 -1.12565e-13 0 0 5.89291e-14 -6.2953e-13 3.92823e-14 -2.82199e-13 0 0 -2.01577e-13 -2.92932e-13 -1.7609e-13 -1.51585e-13 0 0 -4.63135e-13 -4.638e-15 -2.53199e-13 -2.03083e-13 0 0 -1.40843e-13 -4.40026e-13 3.15577e-13 -7.11695e-13 0 0 -3.23617e-13 -1.74306e-13 1.89392e-13 -7.00558e-13 0 0 -1.28316e-13 -5.7017e-13 4.99932e-13 -6.76291e-13 0 0 -4.29981e-13 -1.11286e-13 -4.21585e-14 -2.53219e-13 0 0 -2.9879e-13 -2.11957e-13 9.78661e-15 -2.98271e-13 0 0 -8.13817e-15 -5.17502e-13 4.01822e-13 -5.798e-13 0 0 -6.73669e-13 6.59209e-13 -5.99328e-13 -1.70171e-13 0 0 9.35713e-15 -2.87679e-13 1.30206e-13 -5.24801e-13 0 0 3.25902e-13 -8.19389e-13 5.66383e-13 -6.68691e-13 0 0 -1.46609e-13 -2.05807e-13 2.28554e-13 -5.27831e-13 0 0 7.86497e-14 -5.38559e-13 5.86136e-13 -6.60005e-13 0 0 -3.92353e-13 3.59294e-13 -2.43311e-13 -2.61508e-13 0 0 -2.36689e-14 -1.90668e-13 5.83176e-13 -1.17073e-12 0 0 1.6131e-13 -4.79149e-13 7.98656e-13 -1.34443e-12 0 0 -1.4865e-13 1.40926e-13 -1.77325e-13 -5.05558e-13 0 0 1.80479e-13 -3.05353e-13 7.90145e-14 -5.90522e-13 0
				</DataArray>
				<DataArray Name="VitesseY" type="Float32" format="ascii">