<?xml version="1.0"?>
<VTKFile type="PolyData">
	<PolyData>
		<Piece NumberOfPoints="1206" NumberOfPolys="1000">
			<Points>
				<DataArray type="Float32" NumberOfComponents="3" format="ascii">
 0 0 0 0.005 0 0 0.01 0 0 0.015 0 0 0.02 0 0 0.025 0 0 0.03 0 0 0.035 0 0 0.04 0 0 0.045 0 0 0.05 0 0 0.055 0 0 0.06 0 0 0.065 0 0 0.07 0 0 0.075 0 0 0.08 0 0 0.085 0 0 0.09 0 0 0.095 0 0 0.1 0 0 0.105 0 0 0.11 0 0 0.115 0 0 0.12 0 0 0.125 0 0 0.13 0 0 0.135 0 0 0.14 0 0 0.145 0 0 0.15 0 0 0.155 0 0 0.16 0 0 0.165 0 0 0.17 0 0 0.175 0 0 0.18 0 0 0.185 0 0 0.19 0 0 0.195 0 0 0.2 0 0 0.205 0 0 0.21 0 0 0.215 0 0 0.22 0 0 0.225 0 0 0.23 0 0 0.235 0 0 0.24 0 0 0.245 0 0 0.25 0 0 0.255 0 0 0.26 0 0 0.265 0 0 0.27 0 0 0.275 0 0 0.28 0 0 0.285 0 0 0.290001 0 0 0.295004 0 0 0.300011 0 0 0.305028 0 0 0.310065 0 0 0.315139 0 0 0.32027 0 0 0.325477 0 0 0.33078 0 0 0.336194 0 0 0.341733 0 0 0.347406 0 0 0.353225 0 0 0.3592 0 0 0.365342 0 0 0.371662 0 0 0.378173 0 0 0.38489 0 0 0.391826 0 0 0.398999 0 0 0.406428 0 0 0.414133 0 0 0.422139 0 0 0.43047 0 0 0.439158 0 0 0.448235 0 0 0.457739 0 0 0.46771 0 0 0.478191 0 0 0.489215 0 0 0.500792 0 0 0.512827 0 0 0.524997 0 0 0.537062 0 0 0.549017 0 0 0.560878 0 0 0.572677 0 0 0.584444 0 0 0.596195 0 0 0.60794 0 0 0.619682 0 0 0.631425 0 0 0.64318 0 0 0.645793 0 0 0.648331 0 0 0.650823 0 0 0.653283 0 0 0.655722 0 0 0.658144 0 0 0.660553 0 0 0.662954 0 0 0.665348 0 0 0.667736 0 0 0.67012 0 0 0.672501 0 0 0.674879 0 0 0.677253 0 0 0.679624 0 0 0.681992 0 0 0.684358 0 0 0.686723 0 0 0.689085 0 0 0.691446 0 0 0.693806 0 0 0.696166 0 0 0.698524 0 0 0.700882 0 0 0.70324 0 0 0.705597 0 0 0.707953 0 0 0.71031 0 0 0.712666 0 0 0.715022 0 0 0.717378 0 0 0.719733 0 0 0.722089 0 0 0.724445 0 0 0.7268 0 0 0.729156 0 0 0.731512 0 0 0.733867 0 0 0.736224 0 0 0.738581 0 0 0.740938 0 0 0.743298 0 0 0.745659 0 0 0.748027 0 0 0.750399 0 0 0.752787 0 0 0.75519 0 0 0.757631 0 0 0.760106 0 0 0.76266 0 0 0.765285 0 0 0.768066 0 0 0.771016 0 0 0.774238 0 0 0.777765 0 0 0.781648 0 0 0.78588 0 0 0.790418 0 0 0.795177 0 0 0.80007 0 0 0.805026 0 0 0.81001 0 0 0.815003 0 0 0.820001 0 0 0.825 0 0 0.83 0 0 0.835 0 0 0.84 0 0 0.845 0 0 0.85 0 0 0.855 0 0 0.86 0 0 0.865 0 0 0.87 0 0 0.875 0 0 0.88 0 0 0.885 0 0 0.89 0 0 0.895 0 0 0.9 0 0 0.905 0 0 0.91 0 0 0.915 0 0 0.92 0 0 0.925 0 0 0.93 0 0 0.935 0 0 0.94 0 0 0.945 0 0 0.95 0 0 0.955 0 0 0.96 0 0 0.965 0 0 0.97 0 0 0.975 0 0 0.98 0 0 0.985 0 0 0.99 0 0 0.995 0 0 1 0 0 0 0.02 0 0.005 0.02 0 0.01 0.02 0 0.015 0.02 0 0.02 0.02 0 0.025 0.02 0 0.03 0.02 0 0.035 0.02 0 0.04 0.02 0 0.045 0.02 0 0.05 0.02 0 0.055 0.02 0 0.06 0.02 0 0.065 0.02 0 0.07 0.02 0 0.075 0.02 0 0.08 0.02 0 0.085 0.02 0 0.09 0.02 0 0.095 0.02 0 0.1 0.02 0 0.105 0.02 0 0.11 0.02 0 0.115 0.02 0 0.12 0.02 0 0.125 0.02 0 0.13 0.02 0 0.135 0.02 0 0.14 0.02 0 0.145 0.02 0 0.15 0.02 0 0.155 0.02 0 0.16 0.02 0 0.165 0.02 0 0.17 0.02 0 0.175 0.02 0 0.18 0.02 0 0.185 0.02 0 0.19 0.02 0 0.195 0.02 0 0.2 0.02 0 0.205 0.02 0 0.21 0.02 0 0.215 0.02 0 0.22 0.02 0 0.225 0.02 0 0.23 0.02 0 0.235 0.02 0 0.24 0.02 0 0.245 0.02 0 0.25 0.02 0 0.255 0.02 0 0.26 0.02 0 0.265 0.02 0 0.27 0.02 0 0.275 0.02 0 0.28 0.02 0 0.285 0.02 0 0.290001 0.02 0 0.295004 0.02 0 0.300011 0.02 0 0.305028 0.02 0 0.310065 0.02 0 0.315139 0.02 0 0.32027 0.02 0 0.325477 0.02 0 0.33078 0.02 0 0.336194 0.02 0 0.341733 0.02 0 0.347406 0.02 0 0.353225 0.02 0 0.3592 0.02 0 0.365342 0.02 0 0.371662 0.02 0 0.378173 0.02 0 0.38489 0.02 0 0.391826 0.02 0 0.398999 0.02 0 0.406428 0.02 0 0.414133 0.02 0 0.422139 0.02 0 0.43047 0.02 0 0.439158 0.02 0 0.448235 0.02 0 0.457739 0.02 0 0.46771 0.02 0 0.478191 0.02 0 0.489215 0.02 0 0.500792 0.02 0 0.512827 0.02 0 0.524997 0.02 0 0.537062 0.02 0 0.549017 0.02 0 0.560878 0.02 0 0.572677 0.02 0 0.584444 0.02 0 0.596195 0.02 0 0.60794 0.02 0 0.619682 0.02 0 0.631425 0.02 0 0.64318 0.02 0 0.645793 0.02 0 0.648331 0.02 0 0.650823 0.02 0 0.653283 0.02 0 0.655722 0.02 0 0.658144 0.02 0 0.660553 0.02 0 0.662954 0.02 0 0.665348 0.02 0 0.667736 0.02 0 0.67012 0.02 0 0.672501 0.02 0 0.674879 0.02 0 0.677253 0.02 0 0.679624 0.02 0 0.681992 0.02 0 0.684358 0.02 0 0.686723 0.02 0 0.689085 0.02 0 0.691446 0.02 0 0.693806 0.02 0 0.696166 0.02 0 0.698524 0.02 0 0.700882 0.02 0 0.70324 0.02 0 0.705597 0.02 0 0.707953 0.02 0 0.71031 0.02 0 0.712666 0.02 0 0.715022 0.02 0 0.717378 0.02 0 0.719733 0.02 0 0.722089 0.02 0 0.724445 0.02 0 0.7268 0.02 0 0.729156 0.02 0 0.731512 0.02 0 0.733867 0.02 0 0.736224 0.02 0 0.738581 0.02 0 0.740938 0.02 0 0.743298 0.02 0 0.745659 0.02 0 0.748027 0.02 0 0.750399 0.02 0 0.752787 0.02 0 0.75519 0.02 0 0.757631 0.02 0 0.760106 0.02 0 0.76266 0.02 0 0.765285 0.02 0 0.768066 0.02 0 0.771016 0.02 0 0.774238 0.02 0 0.777765 0.02 0 0.781648 0.02 0 0.78588 0.02 0 0.790418 0.02 0 0.795177 0.02 0 0.80007 0.02 0 0.805026 0.02 0 0.81001 0.02 0 0.815003 0.02 0 0.820001 0.02 0 0.825 0.02 0 0.83 0.02 0 0.835 0.02 0 0.84 0.02 0 0.845 0.02 0 0.85 0.02 0 0.855 0.02 0 0.86 0.02 0 0.865 0.02 0 0.87 0.02 0 0.875 0.02 0 0.88 0.02 0 0.885 0.02 0 0.89 0.02 0 0.895 0.02 0 0.9 0.02 0 0.905 0.02 0 0.91 0.02 0 0.915 0.02 0 0.92 0.02 0 0.925 0.02 0 0.93 0.02 0 0.935 0.02 0 0.94 0.02 0 0.945 0.02 0 0.95 0.02 0 0.955 0.02 0 0.96 0.02 0 0.965 0.02 0 0.97 0.02 0 0.975 0.02 0 0.98 0.02 0 0.985 0.02 0 0.99 0.02 0 0.995 0.02 0 1 0.02 0 0 0.04 0 0.005 0.04 0 0.01 0.04 0 0.015 0.04 0 0.02 0.04 0 0.025 0.04 0 0.03 0.04 0 0.035 0.04 0 0.04 0.04 0 0.045 0.04 0 0.05 0.04 0 0.055 0.04 0 0.06 0.04 0 0.065 0.04 0 0.07 0.04 0 0.075 0.04 0 0.08 0.04 0 0.085 0.04 0 0.09 0.04 0 0.095 0.04 0 0.1 0.04 0 0.105 0.04 0 0.11 0.04 0 0.115 0.04 0 0.12 0.04 0 0.125 0.04 0 0.13 0.04 0 0.135 0.04 0 0.14 0.04 0 0.145 0.04 0 0.15 0.04 0 0.155 0.04 0 0.16 0.04 0 0.165 0.04 0 0.17 0.04 0 0.175 0.04 0 0.18 0.04 0 0.185 0.04 0 0.19 0.04 0 0.195 0.04 0 0.2 0.04 0 0.205 0.04 0 0.21 0.04 0 0.215 0.04 0 0.22 0.04 0 0.225 0.04 0 0.23 0.04 0 0.235 0.04 0 0.24 0.04 0 0.245 0.04 0 0.25 0.04 0 0.255 0.04 0 0.26 0.04 0 0.265 0.04 0 0.27 0.04 0 0.275 0.04 0 0.28 0.04 0 0.285 0.04 0 0.290001 0.04 0 0.295004 0.04 0 0.300011 0.04 0 0.305028 0.04 0 0.310065 0.04 0 0.315139 0.04 0 0.32027 0.04 0 0.325477 0.04 0 0.33078 0.04 0 0.336194 0.04 0 0.341733 0.04 0 0.347406 0.04 0 0.353225 0.04 0 0.3592 0.04 0 0.365342 0.04 0 0.371662 0.04 0 0.378173 0.04 0 0.38489 0.04 0 0.391826 0.04 0 0.398999 0.04 0 0.406428 0.04 0 0.414133 0.04 0 0.422139 0.04 0 0.43047 0.04 0 0.439158 0.04 0 0.448235 0.04 0 0.457739 0.04 0 0.46771 0.04 0 0.478191 0.04 0 0.489215 0.04 0 0.500792 0.04 0 0.512827 0.04 0 0.524997 0.04 0 0.537062 0.04 0 0.549017 0.04 0 0.560878 0.04 0 0.572677 0.04 0 0.584444 0.04 0 0.596195 0.04 0 0.60794 0.04 0 0.619682 0.04 0 0.631425 0.04 0 0.64318 0.04 0 0.645793 0.04 0 0.648331 0.04 0 0.650823 0.04 0 0.653283 0.04 0 0.655722 0.04 0 0.658144 0.04 0 0.660553 0.04 0 0.662954 0.04 0 0.665348 0.04 0 0.667736 0.04 0 0.67012 0.04 0 0.672501 0.04 0 0.674879 0.04 0 0.677253 0.04 0 0.679624 0.04 0 0.681992 0.04 0 0.684358 0.04 0 0.686723 0.04 0 0.689085 0.04 0 0.691446 0.04 0 0.693806 0.04 0 0.696166 0.04 0 0.698524 0.04 0 0.700882 0.04 0 0.70324 0.04 0 0.705597 0.04 0 0.707953 0.04 0 0.71031 0.04 0 0.712666 0.04 0 0.715022 0.04 0 0.717378 0.04 0 0.719733 0.04 0 0.722089 0.04 0 0.724445 0.04 0 0.7268 0.04 0 0.729156 0.04 0 0.731512 0.04 0 0.733867 0.04 0 0.736224 0.04 0 0.738581 0.04 0 0.740938 0.04 0 0.743298 0.04 0 0.745659 0.04 0 0.748027 0.04 0 0.750399 0.04 0 0.752787 0.04 0 0.75519 0.04 0 0.757631 0.04 0 0.760106 0.04 0 0.76266 0.04 0 0.765285 0.04 0 0.768066 0.04 0 0.771016 0.04 0 0.774238 0.04 0 0.777765 0.04 0 0.781648 0.04 0 0.78588 0.04 0 0.790418 0.04 0 0.795177 0.04 0 0.80007 0.04 0 0.805026 0.04 0 0.81001 0.04 0 0.815003 0.04 0 0.820001 0.04 0 0.825 0.04 0 0.83 0.04 0 0.835 0.04 0 0.84 0.04 0 0.845 0.04 0 0.85 0.04 0 0.855 0.04 0 0.86 0.04 0 0.865 0.04 0 0.87 0.04 0 0.875 0.04 0 0.88 0.04 0 0.885 0.04 0 0.89 0.04 0 0.895 0.04 0 0.9 0.04 0 0.905 0.04 0 0.91 0.04 0 0.915 0.04 0 0.92 0.04 0 0.925 0.04 0 0.93 0.04 0 0.935 0.04 0 0.94 0.04 0 0.945 0.04 0 0.95 0.04 0 0.955 0.04 0 0.96 0.04 0 0.965 0.04 0 0.97 0.04 0 0.975 0.04 0 0.98 0.04 0 0.985 0.04 0 0.99 0.04 0 0.995 0.04 0 1 0.04 0 0 0.06 0 0.005 0.06 0 0.01 0.06 0 0.015 0.06 0 0.02 0.06 0 0.025 0.06 0 0.03 0.06 0 0.035 0.06 0 0.04 0.06 0 0.045 0.06 0 0.05 0.06 0 0.055 0.06 0 0.06 0.06 0 0.065 0.06 0 0.07 0.06 0 0.075 0.06 0 0.08 0.06 0 0.085 0.06 0 0.09 0.06 0 0.095 0.06 0 0.1 0.06 0 0.105 0.06 0 0.11 0.06 0 0.115 0.06 0 0.12 0.06 0 0.125 0.06 0 0.13 0.06 0 0.135 0.06 0 0.14 0.06 0 0.145 0.06 0 0.15 0.06 0 0.155 0.06 0 0.16 0.06 0 0.165 0.06 0 0.17 0.06 0 0.175 0.06 0 0.18 0.06 0 0.185 0.06 0 0.19 0.06 0 0.195 0.06 0 0.2 0.06 0 0.205 0.06 0 0.21 0.06 0 0.215 0.06 0 0.22 0.06 0 0.225 0.06 0 0.23 0.06 0 0.235 0.06 0 0.24 0.06 0 0.245 0.06 0 0.25 0.06 0 0.255 0.06 0 0.26 0.06 0 0.265 0.06 0 0.27 0.06 0 0.275 0.06 0 0.28 0.06 0 0.285 0.06 0 0.290001 0.06 0 0.295004 0.06 0 0.300011 0.06 0 0.305028 0.06 0 0.310065 0.06 0 0.315139 0.06 0 0.32027 0.06 0 0.325477 0.06 0 0.33078 0.06 0 0.336194 0.06 0 0.341733 0.06 0 0.347406 0.06 0 0.353225 0.06 0 0.3592 0.06 0 0.365342 0.06 0 0.371662 0.06 0 0.378173 0.06 0 0.38489 0.06 0 0.391826 0.06 0 0.398999 0.06 0 0.406428 0.06 0 0.414133 0.06 0 0.422139 0.06 0 0.43047 0.06 0 0.439158 0.06 0 0.448235 0.06 0 0.457739 0.06 0 0.46771 0.06 0 0.478191 0.06 0 0.489215 0.06 0 0.500792 0.06 0 0.512827 0.06 0 0.524997 0.06 0 0.537062 0.06 0 0.549017 0.06 0 0.560878 0.06 0 0.572677 0.06 0 0.584444 0.06 0 0.596195 0.06 0 0.60794 0.06 0 0.619682 0.06 0 0.631425 0.06 0 0.64318 0.06 0 0.645793 0.06 0 0.648331 0.06 0 0.650823 0.06 0 0.653283 0.06 0 0.655722 0.06 0 0.658144 0.06 0 0.660553 0.06 0 0.662954 0.06 0 0.665348 0.06 0 0.667736 0.06 0 0.67012 0.06 0 0.672501 0.06 0 0.674879 0.06 0 0.677253 0.06 0 0.679624 0.06 0 0.681992 0.06 0 0.684358 0.06 0 0.686723 0.06 0 0.689085 0.06 0 0.691446 0.06 0 0.693806 0.06 0 0.696166 0.06 0 0.698524 0.06 0 0.700882 0.06 0 0.70324 0.06 0 0.705597 0.06 0 0.707953 0.06 0 0.
[...]
			<PointData Scalars="VitesseX">
				<DataArray Name="VitesseX" type="Float32" format="ascii">
 0 -2.25732e-15 -4.78852e-15 -4.37889e-15 -6.80758e-15 -1.12165e-14 -8.56126e-15 -1.64225e-14 -1.72054e-14 -1.7418e-14 -1.82519e-14 -1.59565e-14 -2.18975e-14 -7.13562e-15 -1.44895e-14 -1.74075e-14 -1.36502e-14 -1.05638e-14 -1.4009e-14 -2.04713e-14 -1.08118e-14 -2.74116e-14 -1.70798e-14 -1.28229e-14 -3.23966e-14 -3.74765e-14 -4.1417e-14 -2.69423e-14 -3.37528e-14 -2.39848e-14 -5.63456e-14 -3.22169e-14 -3.0563e-14 -3.37912e-14 -2.74243e-14 -3.3055e-14 -4.79021e-14 -4.09814e-14 -2.92509e-14 -2.84009e-14 -1.53811e-14 -1.26275e-14 -1.2917e-14 -1.69433e-14 4.46807e-14 2.5433e-13 2.1555e-12 1.43963e-11 9.16058e-11 5.54158e-10 3.16612e-09 1.70433e-08 8.62165e-08 4.08634e-07 1.80847e-06 7.44422e-06 2.8371e-05 9.95734e-05 0.000319792 0.000932954 0.00245274 0.00576717 0.0120668 0.0224673 0.0374861 0.0568111 0.0795777 0.104855 0.13195 0.160454 0.190158 0.22097 0.252863 0.285843 0.319937 0.355191 0.391659 0.429408 0.468513 0.509057 0.551128 0.594818 0.640208 0.687358 0.73626 0.786747 0.838259 0.889188 0.934977 0.962872 0.956979 0.94802 0.93952 0.933734 0.930533 0.929001 0.928247 0.92781 0.927536 0.927359 0.92723 0.927207 0.927186 0.927165 0.927144 0.927124 0.927105 0.927086 0.927067 0.927048 0.92703 0.927011 0.926993 0.926975 0.926956 0.926938 0.926919 0.9269 0.92688 0.92686 0.926839 0.926817 0.926794 0.926771 0.926747 0.926721 0.926696 0.926666 0.926641 0.926605 0.926579 0.926534 0.92651 0.926445 0.926425 0.92632 0.926311 0.926117 0.926119 0.925709 0.925732 0.924723 0.924806 0.922078 0.922346 0.914835 0.915662 0.896382 0.89885 0.855802 0.862035 0.779892 0.765364 0.650692 0.569256 0.439839 0.317716 0.201145 0.110384 0.0519187 0.021555 0.00829681 0.00308018 0.00112592 0.00040871 0.000147775 5.3261e-05 1.91339e-05 6.84852e-06 2.44087e-06 8.65706e-07 3.05343e-07 1.07031e-07 3.72606e-08 1.28746e-08 4.41268e-09 1.49939e-09 5.04758e-10 1.68231e-10 5.55165e-11 1.80328e-11 5.7956e-12 1.86145e-12 5.28889e-13 7.77543e-14 -6.34352e-14 -5.11069e-14 6.97285e-14 2.00029e-14 7.35481e-14 -6.55996e-14 8.47363e-14 5.69306e-14 2.0911e-14 -7.09265e-14 3.07936e-14 -1.02773e-13 7.79914e-14 3.39006e-14 -4.86362e-14 0 0 -2.38363e-15 -1.26454e-15 -2.99361e-15 -8.03441e-15 -8.52021e-15 -8.74042e-15 -9.80173e-15 -1.70973e-14 -1.64431e-14 -1.4607e-14 -1.69006e-14 -1.25e-14 -1.5262e-14 -1.39301e-14 -1.06085e-14 -8.96534e-15 -1.75967e-14 -1.65706e-14 -1.42752e-14 -2.43269e-14 -2.45404e-14 -2.47304e-14 -8.71514e-15 -4.13356e-14 -2.07816e-14 -2.73138e-14 -4.67062e-14 -3.02257e-14 -3.98328e-14 -2.40629e-14 -3.43055e-14 -3.45378e-14 -4.77752e-14 -3.65069e-14 -3.81929e-14 -5.24322e-14 -3.16588e-14 -2.37454e-14 -4.26369e-14 -7.99152e-15 -2.98121e-14 3.21095e-15 -1.60899e-14 3.7958e-14 3.1311e-13 2.13751e-12 1.43897e-11 9.16563e-11 5.54207e-10 3.1661e-09 1.70432e-08 8.62165e-08 4.08634e-07 1.80847e-06 7.44422e-06 2.8371e-05 9.95734e-05 0.000319792 0.000932954 0.00245274 0.00576717 0.0120668 0.0224673 0.0374861 0.0568111 0.0795777 0.104855 0.13195 0.160454 0.190158 0.22097 0.252863 0.285843 0.319937 0.355191 0.391659 0.429408 0.468513 0.509057 0.551128 0.594818 0.640208 0.687358 0.73626 0.786747 0.838259 0.889188 0.934977 0.962872 0.956979 0.94802 0.93952 0.933734 0.930533 0.929001 0.928247 0.92781 0.927536 0.927359 0.92723 0.927207 0.927186 0.927165 0.927144 0.927124 0.927105 0.927086 0.927067 0.927048 0.92703 0.927011 0.926993 0.926975 0.926956 0.926938 0.926919 0.9269 0.92688 0.92686 0.926839 0.926817 0.926794 0.926771 0.926747 0.926721 0.926696 0.926666 0.926641 0.926605 0.926579 0.926534 0.92651 0.926445 0.926425 0.92632 0.926311 0.926117 0.926119 0.925709 0.925732 0.924723 0.924806 0.922078 0.922346 0.914835 0.915662 0.896382 0.89885 0.855802 0.862035 0.779892 0.765364 0.650692 0.569256 0.439839 0.317716 0.201145 0.110384 0.0519187 0.021555 0.00829681 0.00308018 0.00112592 0.00040871 0.000147775 5.3261e-05 1.91339e-05 6.84852e-06 2.44087e-06 8.65706e-07 3.05343e-07 1.07031e-07 3.72607e-08 1.28746e-08 4.4127e-09 1.49934e-09 5.04715e-10 1.6824e-10 5.55099e-11 1.80056e-11 5.80059e-12 1.85298e-12 4.71273e-13 4.98061e-14 -6.98321e-14 3.243e-14 1.25619e-14 3.81752e-14 3.09173e-14 -2.40783e-14 -7.29052e-14 6.40617e-14 -4.17987e-14 -8.02753e-16 -6.4341e-14 7.37826e-14 3.75308e-14 3.8401e-14 -1.0097e-14 0 0 -5.35737e-16 -8.26962e-16 -1.64788e-15 -2.7917e-15 -2.42215e-15 -4.69175e-15 -4.91639e-15 -6.72948e-15 -8.53558e-15 -1.60082e-14 -1.58231e-14 -1.40632e-14 -1.37728e-14 -1.50904e-14 -6.91654e-15 -1.00325e-14 -9.08102e-15 -1.5968e-14 -1.46063e-14 -1.38997e-14 -2.74297e-14 -2.80475e-14 -3.08023e-14 -4.08623e-14 -1.54741e-14 -3.60932e-14 -3.63487e-14 -4.66221e-14 -1.30419e-14 -5.39771e-14 -3.25712e-14 -4.1594e-14 -4.19687e-14 -4.84542e-14 -3.74894e-14 -2.69004e-14 -3.32499e-14 -4.43481e-14 -2.72569e-14 -1.37475e-14 -3.0888e-14 -8.70025e-15 1.45809e-14 6.50065e-14 3.51565e-13 2.14806e-12 1.44396e-11 9.17241e-11 5.54234e-10 3.16606e-09 1.70432e-08 8.62165e-08 4.08634e-07 1.80847e-06 7.44422e-06 2.8371e-05 9.95734e-05 0.000319792 0.000932954 0.00245274 0.00576717 0.0120668 0.0224673 0.0374861 0.0568111 0.0795777 0.104855 0.13195 0.160454 0.190158 0.22097 0.252863 0.285843 0.319937 0.355191 0.391659 0.429408 0.468513 0.509057 0.551128 0.594818 0.640208 0.687358 0.73626 0.786747 0.838259 0.889188 0.934977 0.962872 0.956979 0.94802 0.93952 0.933734 0.930533 0.929001 0.928247 0.92781 0.927536 0.927359 0.92723 0.927207 0.927186 0.927165 0.927144 0.927124 0.927105 0.927086 0.927067 0.927048 0.92703 0.927011 0.926993 0.926975 0.926956 0.926938 0.926919 0.9269 0.92688 0.92686 0.926839 0.926817 0.926794 0.926771 0.926747 0.926721 0.926696 0.926666 0.926641 0.926605 0.926579 0.926534 0.92651 0.926445 0.926425 0.92632 0.926311 0.926117 0.926119 0.925709 0.925732 0.924723 0.924806 0.922078 0.922346 0.914835 0.915662 0.896382 0.89885 0.855802 0.862035 0.779892 0.765364 0.650692 0.569256 0.439839 0.317716 0.201145 0.110384 0.0519187 0.021555 0.00829681 0.00308018 0.00112592 0.00040871 0.000147775 5.3261e-05 1.91339e-05 6.84852e-06 2.44087e-06 8.65706e-07 3.05343e-07 1.07031e-07 3.72606e-08 1.28746e-08 4.41266e-09 1.49935e-09 5.0462e-10 1.6824e-10 5.54619e-11 1.79951e-11 5.74981e-12 1.80072e-12 4.61253e-13 3.17445e-14 -3.0706e-14 1.92726e-14 -1.42408e-14 5.84362e-15 -1.77432e-13 9.0263e-16 -7.34271e-14 9.2938e-14 -1.15456e-13 3.94974e-14 -6.31162e-14 7.32057e-14 1.10792e-13 7.29824e-14 -4.47125e-14 0 0 8.63258e-16 5.63921e-16 2.90305e-17 5.61667e-15 2.81097e-15 2.90986e-15 -1.63385e-15 5.63066e-15 -2.49868e-15 -9.32594e-15 -1.52406e-14 -2.2242e-14 -9.01034e-15 -1.65948e-14 -1.70255e-14 -8.06775e-15 -4.07852e-15 -9.18694e-15 -2.13769e-14 -1.7785e-14 1.85319e-17 -2.7476e-14 -4.51375e-14 -3.64235e-14 -3.75852e-14 -4.27518e-14 -3.04329e-14 -4.61459e-14 -9.56768e-15 -7.15114e-14 -3.54249e-14 -4.08071e-14 -4.07801e-14 -2.26808e-14 -3.84204e-14 -2.22082e-14 -2.2661e-14 -4.81986e-14 1.16463e-14 -4.9537e-14 1.81455e-14 -1.76429e-14 4.18925e-14 8.55592e-14 3.55538e-13 2.19169e-12 1.44709e-11 9.17588e-11 5.54234e-10 3.16611e-09 1.70433e-08 8.62165e-08 4.08634e-07 1.80847e-06 7.44422e-06 2.8371e-05 9.95734e-05 0.000319792 0.000932954 0.00245274 0.00576717 0.0120668 0.0224673 0.0374861 0.0568111 0.0795777 0.104855 0.13195 0.160454 0.190158 0.22097 0.252863 0.285843 0.319937 0.355191 0.391659 0.429408 0.468513 0.509057 0.551128 0.594818 0.640208 0.687358 0.73626 0.786747 0.838259 0.889188 0.934977 0.962872 0.956979 0.94802 0.93952 0.933734 0.930533 0.929001 0.928247 0.92781 0.927536 0.927359 0.92723 0.927207 0.927186 0.927165 0.927144 0.927124 0.927105 0.927086 0.927067 0.927048 0.92703 0.927011 0.926993 0.926975 0.926956 0.926938 0.926919 0.9269 0.92688 0.92686 0.926839 0.926817 0.926794 0.926771 0.926747 0.926721 0.926696 0.926666 0.926641 0.926605 0.926579 0.926534 0.92651 0.926445 0.926425 0.92632 0.926311 0.926117 0.926119 0.925709 0.925732 0.924723 0.924806 0.922078 0.922346 0.914835 0.915662 0.896382 0.89885 0.855802 0.862035 0.779892 0.765364 0.650692 0.569256 0.439839 0.317716 0.201145 0.110384 0.0519187 0.021555 0.00829681 0.00308018 0.00112592 0.00040871 0.000147775 5.3261e-05 1.91339e-05 6.84852e-06 2.44087e-06 8.65706e-07 3.05343e-07 1.07031e-07 3.72605e-08 1.28745e-08 4.41267e-09 1.49931e-09 5.04735e-10 1.68341e-10 5.53207e-11 1.79113e-11 5.64812e-12 1.66547e-12 2.80715e-13 4.15906e-14 8.10951e-14 -1.51147e-14 1.84774e-14 -4.34487e-14 -1.01164e-13 -8.17813e-14 1.00205e-13 1.84739e-14 -1.12439e-13 1.17112e-13 3.23896e-14 3.93653e-14 4.85972e-14 -6.68424e-14 -1.52268e-13 0 0 3.78668e-15 7.9689e-15 3.95627e-15 1.16584e-14 2.77959e-15 1.168e-14 9.33763e-15 8.09015e-15 4.49466e-15 2.13301e-15 -6.79158e-15 -1.2191e-14 -1.12659e-14 -1.92378e-14 -1.06307e-14 -9.06025e-15 -1.79094e-14 -3.56091e-15 -2.78096e-14 -1.79616e-14 -9.36515e-15 -4.7621e-14 -2.69396e-14 -2.85577e-14 -5.01031e-14 -4.60751e-14 -5.23018e-14 -3.61702e-14 -4.08557e-14 -2.62805e-14 -3.16854e-14 -3.39207e-14 -2.8688e-14 -4.64047e-14 -1.94663e-14 -2.42054e-14 -2.11938e-14 -1.20051e-14 -5.37363e-17 -1.15599e-14 1.14032e-14 5.98678e-15 4.77351e-14 1.19026e-13 3.70334e-13 2.22818e-12 1.44306e-11 9.17618e-11 5.54268e-10 3.16614e-09 1.70433e-08 8.62165e-08 4.08634e-07 1.80847e-06 7.44422e-06 2.8371e-05 9.95734e-05 0.000319792 0.000932954 0.00245274 0.00576717 0.0120668 0.0224673 0.0374861 0.0568111 0.0795777 0.104855 0.13195 0.160454 0.190158 0.22097 0.252863 0.285843 0.319937 0.355191 0.391659 0.429408 0.468513 0.509057 0.551128 0.594818 0.640208 0.687358 0.73626 0.786747 0.838259 0.889188 0.934977 0.962872 0.956979 0.94802 0.93952 0.933734 0.930533 0.929001 0.928247 0.92781 0.927536 0.927359 0.92723 0.927207 0.927186 0.927165 0.927144 0.927124 0.927105 0.927086 0.927067 0.927048 0.92703 0.927011 0.926993 0.926975 0.926956 0.926938 0.926919 0.9269 0.92688 0.92686 0.926839 0.926817 0.926794 0.926771 0.926747 0.926721 0.926696 0.926666 0.926641 0.926605 0.926579 0.926534 0.92651 0.926445 0.926425 0.92632 0.926311 0.926117 0.926119 0.925709 0.925732 0.924723 0.924806 0.922078 0.922346 0.914835 0.915662 0.896382 0.89885 0.855802 0.862035 0.779892 0.765364 0.650692 0.569256 0.439839 0.317716 0.201145 0.110384 0.0519187 0.021555 0.00829681 0.00308018 0.00112592 0.00040871 0.000147775 5.3261e-05 1.91339e-05 6.84852e-06 2.44087e-06 8.65706e-07 3.05343e-07 1.07031e-07 3.72606e-08 1.28745e-08 4.41283e-09 1.49914e-09 5.04745e-10 1.68309e-10 5.52235e-11 1.78146e-11 5.6862e-12 1.49731e-12 1.91959e-13 4.11365e-14 1.96455e-14 7.64258e-14 -4.03816e-14 3.57724e-14 8.05747e-14 1.85413e-14 3.40899e-14 -2.61655e-14 -3.81613e-14 3.58754e-14 1.14997e-13 6.40393e-14 -3.70379e-14 -1.40717e-13 -1.01157e-13 0 0 7.28532e-15 1.08966e-14 6.16705e-15 1.57613e-14 9.1683e-16 1.70764e-14 1.52911e-14 8.44923e-15 1.23838e-14 1.86376e-15 3.09643e-15 -4.92189e-15 -8.66839e-15 -2.20961e-14 2.76612e-15 -1.77696e-14 -2.11942e-14 -1.55184e-15 -3.39991e-14 9.68944e-15 -5.19576e-14 -6.4004e-14 -2.06013e-14 -1.57182e-14 -5.18973e-14 -6.56223e-14 -4.9965e-14 -4.65943e-14 -3.2979e-14 -2.5712e-14 -2.12693e-14 -3.09026e-14 2.006e-15 -9.87666e-14 6.26025e-15 -8.32729e-16 -4.12292e-14 1.9307e-15 -2.1041e-14 4.90612e-14 -2.82641e-14 1.052e-14 5.60837e-14 1.65711e-13 3.60831e-13 2.24956e-12 1.44154e-11 9.17474e-11 5.54281e-10 3.16611e-09 1.70433e-08 8.62165e-08 4.08634e-07 1.80847e-06 7.44422e-06 2.8371e-05 9.95734e-05 0.000319792 0.000932954 0.00245274 0.00576717 0.0120668 0.0224673 0.0374861 0.0568111 0.0795777 0.104855 0.13195 0.160454 0.190158 0.22097 0.252863 0.285843 0.319937 0.355191 0.391659 0.429408 0.468513 0.509057 0.551128 0.594818 0.640208 0.687358 0.73626 0.786747 0.838259 0.889188 0.934977 0.962872 0.956979 0.94802 0.93952 0.933734 0.930533 0.929001 0.928247 0.92781 0.927536 0.927359 0.92723 0.927207 0.927186 0.927165 0.927144 0.927124 0.927105 0.927086 0.927067 0.927048 0.92703 0.927011 0.926993 0.926975 0.926956 0.926938 0.926919 0.9269 0.92688 0.92686 0.926839 0.926817 0.926794 0.926771 0.926747 0.926721 0.926696 0.926666 0.926641 0.926605 0.926579 0.926534 0.92651 0.926445 0.926425 0.92632 0.926311 0.926117 0.926119 0.925709 0.925732 0.924723 0.924806 0.922078 0.922346 0.914835 0.915662 0.896382 0.89885 0.855802 0.862035 0.779892 0.765364 0.650692 0.569256 0.439839 0.317716 0.201145 0.110384 0.0519187 0.021555 0.00829681 0.00308018 0.00112592 0.00040871 0.000147775 5.3261e-05 1.91339e-05 6.84852e-06 2.44087e-06 8.65706e-07 3.05343e-07 1.07031e-07 3.72606e-08 1.28745e-08 4.41291e-09 1.49907e-09 5.0459e-10 1.68166e-10 5.52262e-11 1.78186e-11 5.77026e-12 1.42054e-12 3.31394e-13 4.09141e-14 -1.07271e-13 1.0643e-13 -1.01368e-13 1.13899e-13 1.98783e-14 1.84693e-13 -4.79257e-14 2.57392e-14 2.2008e-14 -1.52987e-13 1.98208e-13 -5.48252e-14 5.30155e-14 -4.49041e-14 -1.56498e-14 0
				</DataArray>
				<DataArray Name="VitesseY" type="Float32" format="ascii">