<?xml version="1.0"?>
<VTKFile type="PolyData">
	<PolyData>
		<Piece NumberOfPoints="1206" NumberOfPolys="1000">
			<Points>
				<DataArray type="Float32" NumberOfComponents="3" format="ascii">
 0 0 0 0.005 0 0 0.01 0 0 0.015 0 0 0.02 0 0 0.025 0 0 0.03 0 0 0.035 0 0 0.04 0 0 0.045 0 0 0.05 0 0 0.055 0 0 0.06 0 0 0.065 0 0 0.07 0 0 0.075 0 0 0.08 0 0 0.085 0 0 0.09 0 0 0.095 0 0 0.1 0 0 0.105 0 0 0.11 0 0 0.115 0 0 0.12 0 0 0.125 0 0 0.13 0 0 0.135 0 0 0.14 0 0 0.145 0 0 0.15 0 0 0.155 0 0 0.16 0 0 0.165 0 0 0.17 0 0 0.175 0 0 0.18 0 0 0.185 0 0 0.19 0 0 0.195 0 0 0.2 0 0 0.205 0 0 0.21 0 0 0.215 0 0 0.22 0 0 0.225 0 0 0.23 0 0 0.235 0 0 0.24 0 0 0.245 0 0 0.25 0 0 0.255 0 0 0.26 0 0 0.265 0 0 0.27 0 0 0.275 0 0 0.28 0 0 0.285 0 0 0.29 0 0 0.295 0 0 0.300001 0 0 0.305002 0 0 0.310006 0 0 0.315018 0 0 0.320045 0 0 0.325103 0 0 0.330212 0 0 0.335394 0 0 0.340672 0 0 0.346063 0 0 0.351584 0 0 0.357248 0 0 0.363066 0 0 0.369051 0 0 0.375215 0 0 0.381571 0 0 0.388136 0 0 0.394923 0 0 0.401952 0 0 0.409243 0 0 0.416818 0 0 0.424703 0 0 0.432925 0 0 0.441519 0 0 0.45052 0 0 0.45997 0 0 0.469915 0 0 0.480401 0 0 0.491468 0 0 0.503119 0 0 0.515226 0 0 0.527405 0 0 0.539463 0 0 0.551402 0 0 0.563246 0 0 0.575032 0 0 0.586789 0 0 0.598534 0 0 0.610275 0 0 0.622017 0 0 0.633772 0 0 0.636386 0 0 0.638925 0 0 0.641418 0 0 0.643879 0 0 0.646318 0 0 0.64874 0 0 0.651149 0 0 0.653547 0 0 0.655939 0 0 0.658327 0 0 0.660709 0 0 0.663086 0 0 0.665458 0 0 0.667828 0 0 0.670195 0 0 0.672561 0 0 0.674925 0 0 0.677287 0 0 0.679647 0 0 0.682007 0 0 0.684366 0 0 0.686724 0 0 0.689081 0 0 0.691438 0 0 0.693796 0 0 0.696154 0 0 0.698511 0 0 0.700867 0 0 0.703223 0 0 0.705578 0 0 0.707933 0 0 0.710288 0 0 0.712647 0 0 0.715006 0 0 0.717365 0 0 0.719722 0 0 0.722077 0 0 0.724432 0 0 0.726786 0 0 0.729143 0 0 0.731508 0 0 0.733871 0 0 0.736245 0 0 0.738621 0 0 0.741042 0 0 0.743535 0 0 0.746114 0 0 0.748831 0 0 0.751714 0 0 0.754841 0 0 0.758256 0 0 0.762014 0 0 0.766124 0 0 0.770559 0 0 0.775247 0 0 0.7801 0 0 0.785038 0 0 0.790014 0 0 0.795005 0 0 0.800002 0 0 0.805001 0 0 0.81 0 0 0.815 0 0 0.82 0 0 0.825 0 0 0.83 0 0 0.835 0 0 0.84 0 0 0.845 0 0 0.85 0 0 0.855 0 0 0.86 0 0 0.865 0 0 0.87 0 0 0.875 0 0 0.88 0 0 0.885 0 0 0.89 0 0 0.895 0 0 0.9 0 0 0.905 0 0 0.91 0 0 0.915 0 0 0.92 0 0 0.925 0 0 0.93 0 0 0.935 0 0 0.94 0 0 0.945 0 0 0.95 0 0 0.955 0 0 0.96 0 0 0.965 0 0 0.97 0 0 0.975 0 0 0.98 0 0 0.985 0 0 0.99 0 0 0.995 0 0 1 0 0 0 0.02 0 0.005 0.02 0 0.01 0.02 0 0.015 0.02 0 0.02 0.02 0 0.025 0.02 0 0.03 0.02 0 0.035 0.02 0 0.04 0.02 0 0.045 0.02 0 0.05 0.02 0 0.055 0.02 0 0.06 0.02 0 0.065 0.02 0 0.07 0.02 0 0.075 0.02 0 0.08 0.02 0 0.085 0.02 0 0.09 0.02 0 0.095 0.02 0 0.1 0.02 0 0.105 0.02 0 0.11 0.02 0 0.115 0.02 0 0.12 0.02 0 0.125 0.02 0 0.13 0.02 0 0.135 0.02 0 0.14 0.02 0 0.145 0.02 0 0.15 0.02 0 0.155 0.02 0 0.16 0.02 0 0.165 0.02 0 0.17 0.02 0 0.175 0.02 0 0.18 0.02 0 0.185 0.02 0 0.19 0.02 0 0.195 0.02 0 0.2 0.02 0 0.205 0.02 0 0.21 0.02 0 0.215 0.02 0 0.22 0.02 0 0.225 0.02 0 0.23 0.02 0 0.235 0.02 0 0.24 0.02 0 0.245 0.02 0 0.25 0.02 0 0.255 0.02 0 0.26 0.02 0 0.265 0.02 0 0.27 0.02 0 0.275 0.02 0 0.28 0.02 0 0.285 0.02 0 0.29 0.02 0 0.295 0.02 0 0.300001 0.02 0 0.305002 0.02 0 0.310006 0.02 0 0.315018 0.02 0 0.320045 0.02 0 0.325103 0.02 0 0.330212 0.02 0 0.335394 0.02 0 0.340672 0.02 0 0.346063 0.02 0 0.351584 0.02 0 0.357248 0.02 0 0.363066 0.02 0 0.369051 0.02 0 0.375215 0.02 0 0.381571 0.02 0 0.388136 0.02 0 0.394923 0.02 0 0.401952 0.02 0 0.409243 0.02 0 0.416818 0.02 0 0.424703 0.02 0 0.432925 0.02 0 0.441519 0.02 0 0.45052 0.02 0 0.45997 0.02 0 0.469915 0.02 0 0.480401 0.02 0 0.491468 0.02 0 0.503119 0.02 0 0.515226 0.02 0 0.527405 0.02 0 0.539463 0.02 0 0.551402 0.02 0 0.563246 0.02 0 0.575032 0.02 0 0.586789 0.02 0 0.598534 0.02 0 0.610275 0.02 0 0.622017 0.02 0 0.633772 0.02 0 0.636386 0.02 0 0.638925 0.02 0 0.641418 0.02 0 0.643879 0.02 0 0.646318 0.02 0 0.64874 0.02 0 0.651149 0.02 0 0.653547 0.02 0 0.655939 0.02 0 0.658327 0.02 0 0.660709 0.02 0 0.663086 0.02 0 0.665458 0.02 0 0.667828 0.02 0 0.670195 0.02 0 0.672561 0.02 0 0.674925 0.02 0 0.677287 0.02 0 0.679647 0.02 0 0.682007 0.02 0 0.684366 0.02 0 0.686724 0.02 0 0.689081 0.02 0 0.691438 0.02 0 0.693796 0.02 0 0.696154 0.02 0 0.698511 0.02 0 0.700867 0.02 0 0.703223 0.02 0 0.705578 0.02 0 0.707933 0.02 0 0.710288 0.02 0 0.712647 0.02 0 0.715006 0.02 0 0.717365 0.02 0 0.719722 0.02 0 0.722077 0.02 0 0.724432 0.02 0 0.726786 0.02 0 0.729143 0.02 0 0.731508 0.02 0 0.733871 0.02 0 0.736245 0.02 0 0.738621 0.02 0 0.741042 0.02 0 0.743535 0.02 0 0.746114 0.02 0 0.748831 0.02 0 0.751714 0.02 0 0.754841 0.02 0 0.758256 0.02 0 0.762014 0.02 0 0.766124 0.02 0 0.770559 0.02 0 0.775247 0.02 0 0.7801 0.02 0 0.785038 0.02 0 0.790014 0.02 0 0.795005 0.02 0 0.800002 0.02 0 0.805001 0.02 0 0.81 0.02 0 0.815 0.02 0 0.82 0.02 0 0.825 0.02 0 0.83 0.02 0 0.835 0.02 0 0.84 0.02 0 0.845 0.02 0 0.85 0.02 0 0.855 0.02 0 0.86 0.02 0 0.865 0.02 0 0.87 0.02 0 0.875 0.02 0 0.88 0.02 0 0.885 0.02 0 0.89 0.02 0 0.895 0.02 0 0.9 0.02 0 0.905 0.02 0 0.91 0.02 0 0.915 0.02 0 0.92 0.02 0 0.925 0.02 0 0.93 0.02 0 0.935 0.02 0 0.94 0.02 0 0.945 0.02 0 0.95 0.02 0 0.955 0.02 0 0.96 0.02 0 0.965 0.02 0 0.97 0.02 0 0.975 0.02 0 0.98 0.02 0 0.985 0.02 0 0.99 0.02 0 0.995 0.02 0 1 0.02 0 0 0.04 0 0.005 0.04 0 0.01 0.04 0 0.015 0.04 0 0.02 0.04 0 0.025 0.04 0 0.03 0.04 0 0.035 0.04 0 0.04 0.04 0 0.045 0.04 0 0.05 0.04 0 0.055 0.04 0 0.06 0.04 0 0.065 0.04 0 0.07 0.04 0 0.075 0.04 0 0.08 0.04 0 0.085 0.04 0 0.09 0.04 0 0.095 0.04 0 0.1 0.04 0 0.105 0.04 0 0.11 0.04 0 0.115 0.04 0 0.12 0.04 0 0.125 0.04 0 0.13 0.04 0 0.135 0.04 0 0.14 0.04 0 0.145 0.04 0 0.15 0.04 0 0.155 0.04 0 0.16 0.04 0 0.165 0.04 0 0.17 0.04 0 0.175 0.04 0 0.18 0.04 0 0.185 0.04 0 0.19 0.04 0 0.195 0.04 0 0.2 0.04 0 0.205 0.04 0 0.21 0.04 0 0.215 0.04 0 0.22 0.04 0 0.225 0.04 0 0.23 0.04 0 0.235 0.04 0 0.24 0.04 0 0.245 0.04 0 0.25 0.04 0 0.255 0.04 0 0.26 0.04 0 0.265 0.04 0 0.27 0.04 0 0.275 0.04 0 0.28 0.04 0 0.285 0.04 0 0.29 0.04 0 0.295 0.04 0 0.300001 0.04 0 0.305002 0.04 0 0.310006 0.04 0 0.315018 0.04 0 0.320045 0.04 0 0.325103 0.04 0 0.330212 0.04 0 0.335394 0.04 0 0.340672 0.04 0 0.346063 0.04 0 0.351584 0.04 0 0.357248 0.04 0 0.363066 0.04 0 0.369051 0.04 0 0.375215 0.04 0 0.381571 0.04 0 0.388136 0.04 0 0.394923 0.04 0 0.401952 0.04 0 0.409243 0.04 0 0.416818 0.04 0 0.424703 0.04 0 0.432925 0.04 0 0.441519 0.04 0 0.45052 0.04 0 0.45997 0.04 0 0.469915 0.04 0 0.480401 0.04 0 0.491468 0.04 0 0.503119 0.04 0 0.515226 0.04 0 0.527405 0.04 0 0.539463 0.04 0 0.551402 0.04 0 0.563246 0.04 0 0.575032 0.04 0 0.586789 0.04 0 0.598534 0.04 0 0.610275 0.04 0 0.622017 0.04 0 0.633772 0.04 0 0.636386 0.04 0 0.638925 0.04 0 0.641418 0.04 0 0.643879 0.04 0 0.646318 0.04 0 0.64874 0.04 0 0.651149 0.04 0 0.653547 0.04 0 0.655939 0.04 0 0.658327 0.04 0 0.660709 0.04 0 0.663086 0.04 0 0.665458 0.04 0 0.667828 0.04 0 0.670195 0.04 0 0.672561 0.04 0 0.674925 0.04 0 0.677287 0.04 0 0.679647 0.04 0 0.682007 0.04 0 0.684366 0.04 0 0.686724 0.04 0 0.689081 0.04 0 0.691438 0.04 0 0.693796 0.04 0 0.696154 0.04 0 0.698511 0.04 0 0.700867 0.04 0 0.703223 0.04 0 0.705578 0.04 0 0.707933 0.04 0 0.710288 0.04 0 0.712647 0.04 0 0.715006 0.04 0 0.717365 0.04 0 0.719722 0.04 0 0.722077 0.04 0 0.724432 0.04 0 0.726786 0.04 0 0.729143 0.04 0 0.731508 0.04 0 0.733871 0.04 0 0.736245 0.04 0 0.738621 0.04 0 0.741042 0.04 0 0.743535 0.04 0 0.746114 0.04 0 0.748831 0.04 0 0.751714 0.04 0 0.754841 0.04 0 0.758256 0.04 0 0.762014 0.04 0 0.766124 0.04 0 0.770559 0.04 0 0.775247 0.04 0 0.7801 0.04 0 0.785038 0.04 0 0.790014 0.04 0 0.795005 0.04 0 0.800002 0.04 0 0.805001 0.04 0 0.81 0.04 0 0.815 0.04 0 0.82 0.04 0 0.825 0.04 0 0.83 0.04 0 0.835 0.04 0 0.84 0.04 0 0.845 0.04 0 0.85 0.04 0 0.855 0.04 0 0.86 0.04 0 0.865 0.04 0 0.87 0.04 0 0.875 0.04 0 0.88 0.04 0 0.885 0.04 0 0.89 0.04 0 0.895 0.04 0 0.9 0.04 0 0.905 0.04 0 0.91 0.04 0 0.915 0.04 0 0.92 0.04 0 0.925 0.04 0 0.93 0.04 0 0.935 0.04 0 0.94 0.04 0 0.945 0.04 0 0.95 0.04 0 0.955 0.04 0 0.96 0.04 0 0.965 0.04 0 0.97 0.04 0 0.975 0.04 0 0.98 0.04 0 0.985 0.04 0 0.99 0.04 0 0.995 0.04 0 1 0.04 0 0 0.06 0 0.005 0.06 0 0.01 0.06 0 0.015 0.06 0 0.02 0.06 0 0.025 0.06 0 0.03 0.06 0 0.035 0.06 0 0.04 0.06 0 0.045 0.06 0 0.05 0.06 0 0.055 0.06 0 0.06 0.06 0 0.065 0.06 0 0.07 0.06 0 0.075 0.06 0 0.08 0.06 0 0.085 0.06 0 0.09 0.06 0 0.095 0.06 0 0.1 0.06 0 0.105 0.06 0 0.11 0.06 0 0.115 0.06 0 0.12 0.06 0 0.125 0.06 0 0.13 0.06 0 0.135 0.06 0 0.14 0.06 0 0.145 0.06 0 0.15 0.06 0 0.155 0.06 0 0.16 0.06 0 0.165 0.06 0 0.17 0.06 0 0.175 0.06 0 0.18 0.06 0 0.185 0.06 0 0.19 0.06 0 0.195 0.06 0 0.2 0.06 0 0.205 0.06 0 0.21 0.06 0 0.215 0.06 0 0.22 0.06 0 0.225 0.06 0 0.23 0.06 0 0.235 0.06 0 0.24 0.06 0 0.245 0.06 0 0.25 0.06 0 0.255 0.06 0 0.26 0.06 0 0.265 0.06 0 0.27 0.06 0 0.275 0.06 0 0.28 0.06 0 0.285 0.06 0 0.29 0.06 0 0.295 0.06 0 0.300001 0.06 0 0.305002 0.06 0 0.310006 0.06 0 0.315018 0.06 0 0.320045 0.06 0 0.325103 0.06 0 0.330212 0.06 0 0.335394 0.06 0 0.340672 0.06 0 0.346063 0.06 0 0.351584 0.06 0 0.357248 0.06 0 0.363066 0.06 0 0.369051 0.06 0 0.375215 0.06 0 0.381571 0.06 0 0.388136 0.06 0 0.394923 0.06 0 0.401952 0.06 0 0.409243 0.06 0 0.416818 0.06 0 0.424703 0.06 0 0.432925 0.06 0 0.441519 0.06 0 0.45052 0.06 0 0.45997 0.06 0 0.469915 0.06 0 0.480401 0.06 0 0.491468 0.06 0 0.503119 0.06 0 0.515226 0.06 0 0.527405 0.06 0 0.539463 0.06 0 0.551402 0.06 0 0.563246 0.06 0 0.575032 0.06 0 0.586789 0.06 0 0.598534 0.06 0 0.610275 0.06 0 0.622017 0.06 0 0.633772 0.06 0 0.636386 0.06 0 0.638925 0.06 0 0.641418 0.06 0 0.643879 0.06 0 0.646318 0.06 0 0.64874 0.06 0 0.651149 0.06 0 0.653547 0.06 0 0.655939 0.06 0 0.658327 0.06 0 0.660709 0.06 0 0.663086 0.06 0 0.665458 0.06 0 0.667828 0.06 0 0.670195 0.06 0 0.672561 0.06 0 0.674925 0.06 0 0.677287 0.06 0 0.679647 0.06 0 0.682007 0.06 0 0.684366 0.06 0 0.686724 0.06 0 0.689081 0.06 0 0.691438 0.06 0 0.693796 0.06 0 0.696154 0.06 0 0.698511 0.06 0 0.700867 0.06
[...]
			<PointData Scalars="VitesseX">
				<DataArray Name="VitesseX" type="Float32" format="ascii">
 0 -2.20143e-15 -1.04543e-15 3.10031e-15 -1.90898e-15 2.30608e-16 1.34015e-16 -8.93814e-16 -3.96085e-15 -5.94778e-15 -1.08848e-15 -7.60715e-15 -1.44895e-15 -6.9439e-15 9.66453e-16 1.76589e-15 -9.4172e-15 -2.13187e-15 -2.37028e-15 7.95496e-15 3.33788e-15 1.39846e-14 -1.91422e-14 2.0763e-14 -4.72848e-15 2.28157e-14 2.06455e-14 1.32317e-14 8.46135e-15 -1.74154e-14 2.44424e-14 -8.82799e-15 4.64749e-16 1.82661e-14 -1.5754e-14 1.98125e-14 -1.6204e-14 -2.19865e-14 2.56929e-14 2.76911e-14 1.16869e-14 -5.68746e-15 -3.55531e-15 2.04161e-14 1.38743e-14 2.51486e-14 4.9652e-14 9.38821e-14 5.05754e-13 3.25051e-12 2.27586e-11 1.4969e-10 9.28656e-10 5.42265e-09 2.97358e-08 1.52682e-07 7.3161e-07 3.25911e-06 1.34376e-05 5.10136e-05 0.000177219 0.00055929 0.0015903 0.00403955 0.00910175 0.0181384 0.0320983 0.0510324 0.0741705 0.10045 0.128987 0.159228 0.190885 0.223831 0.258027 0.293479 0.330222 0.368312 0.407819 0.448827 0.49143 0.535731 0.581837 0.629848 0.679838 0.731806 0.785563 0.840438 0.894441 0.94177 0.965802 0.956337 0.94666 0.93801 0.932444 0.929565 0.928286 0.927728 0.927446 0.927289 0.927201 0.927145 0.927088 0.927032 0.926981 0.926938 0.926905 0.926885 0.926875 0.926875 0.926913 0.926992 0.926954 0.92694 0.926919 0.926894 0.926869 0.92684 0.926797 0.926746 0.926675 0.926612 0.926565 0.92655 0.926647 0.92706 0.926771 0.926568 0.926201 0.925882 0.925662 0.9256 0.926178 0.927965 0.926682 0.925885 0.92494 0.923953 0.923536 0.924978 0.926599 0.928477 0.925227 0.925815 0.901315 0.881848 0.87288 0.813164 0.775615 0.683846 0.605896 0.481699 0.362666 0.240626 0.140146 0.0698887 0.0303017 0.0119419 0.00447905 0.00164339 0.000597094 0.000215799 7.76838e-05 2.78558e-05 9.94539e-06 3.53325e-06 1.24815e-06 4.38102e-07 1.52681e-07 5.27939e-08 1.80998e-08 6.14855e-09 2.06838e-09 6.88674e-10 2.26867e-10 7.38077e-11 2.37061e-11 7.62008e-12 2.41236e-12 7.7318e-13 4.66301e-14 3.63219e-15 -9.08184e-15 -1.01324e-13 5.1968e-14 -6.62725e-14 1.18078e-14 -5.70361e-14 6.49881e-15 -1.48275e-13 -7.18093e-14 1.16781e-13 -8.27197e-15 -5.03038e-14 -7.56726e-14 -3.57092e-15 -6.54354e-14 1.73535e-13 -1.00276e-13 5.83264e-14 0 0 -6.24617e-17 3.5513e-16 -1.64536e-15 -2.22878e-15 -7.46805e-16 -9.48662e-16 -5.0413e-15 3.33288e-15 -2.22639e-15 -6.07325e-15 -3.09067e-15 -3.98411e-15 2.94238e-16 -6.77475e-15 -5.48227e-15 4.9765e-15 -2.11354e-15 -2.75993e-15 -5.94213e-16 1.02948e-14 -1.46559e-15 9.71341e-15 7.68155e-15 3.49401e-15 1.00943e-14 5.47145e-15 2.59277e-14 -6.38722e-15 2.32434e-15 -5.70545e-15 1.81567e-14 1.03202e-14 -6.09934e-15 2.62895e-15 -4.72e-15 1.53632e-14 4.94069e-15 -1.53449e-14 2.60674e-14 1.02613e-14 -2.32388e-14 9.94307e-15 1.80592e-14 3.61635e-14 3.69906e-14 6.46262e-14 1.31085e-13 4.43438e-13 3.23463e-12 2.27987e-11 1.49702e-10 9.28561e-10 5.42262e-09 2.97358e-08 1.52682e-07 7.3161e-07 3.25911e-06 1.34376e-05 5.10136e-05 0.000177219 0.00055929 0.0015903 0.00403955 0.00910175 0.0181384 0.0320983 0.0510324 0.0741705 0.10045 0.128987 0.159228 0.190885 0.223831 0.258027 0.293479 0.330222 0.368312 0.407819 0.448827 0.49143 0.535731 0.581837 0.629848 0.679838 0.731806 0.785563 0.840438 0.894441 0.94177 0.965802 0.956337 0.94666 0.93801 0.932444 0.929565 0.928286 0.927728 0.927446 0.927289 0.927201 0.927145 0.927088 0.927032 0.926981 0.926938 0.926905 0.926885 0.926875 0.926875 0.926913 0.926992 0.926954 0.92694 0.926919 0.926894 0.926869 0.92684 0.926797 0.926746 0.926675 0.926612 0.926565 0.92655 0.926647 0.92706 0.926771 0.926568 0.926201 0.925882 0.925662 0.9256 0.926178 0.927965 0.926682 0.925885 0.92494 0.923953 0.923536 0.924978 0.926599 0.928477 0.925227 0.925815 0.901315 0.881848 0.87288 0.813164 0.775615 0.683846 0.605896 0.481699 0.362666 0.240626 0.140146 0.0698887 0.0303017 0.0119419 0.00447905 0.00164339 0.000597094 0.000215799 7.76838e-05 2.78558e-05 9.94539e-06 3.53325e-06 1.24815e-06 4.38102e-07 1.52681e-07 5.27939e-08 1.80998e-08 6.1486e-09 2.0684e-09 6.8863e-10 2.26807e-10 7.39379e-11 2.37914e-11 7.51796e-12 2.42004e-12 6.77875e-13 2.33734e-13 -6.92506e-14 -1.26463e-13 3.29607e-14 -6.0437e-14 9.32853e-15 -3.44985e-14 -8.02084e-14 -2.07432e-14 -3.91547e-14 -7.56102e-14 5.21109e-14 -6.99973e-15 -7.08408e-14 8.31191e-14 -6.32788e-14 5.01265e-14 3.64476e-14 -1.11365e-14 1.54012e-14 0 0 9.32464e-16 1.42482e-17 -1.78253e-15 -3.5429e-15 2.37469e-16 -1.13736e-15 5.78784e-16 -4.91625e-15 -5.12394e-16 1.58195e-16 -7.01817e-15 -1.95868e-15 3.41679e-15 -9.42849e-15 5.76853e-15 6.74538e-15 1.03268e-15 -1.19025e-14 8.51489e-15 4.10711e-15 -2.7274e-15 9.91902e-15 8.01726e-15 7.33962e-15 -1.32907e-14 1.6275e-14 1.34879e-14 1.59402e-14 -4.89577e-15 -7.25787e-16 -1.06346e-14 2.39482e-14 -6.38504e-15 -1.77276e-15 5.60051e-15 2.09231e-14 4.68358e-15 -3.27967e-15 7.60944e-15 4.83801e-16 -7.88347e-15 9.15291e-15 9.08627e-15 6.633e-14 6.00218e-14 8.30334e-14 1.6318e-13 4.27812e-13 3.23618e-12 2.27729e-11 1.49658e-10 9.28589e-10 5.42252e-09 2.97359e-08 1.52682e-07 7.3161e-07 3.25911e-06 1.34376e-05 5.10136e-05 0.000177219 0.00055929 0.0015903 0.00403955 0.00910175 0.0181384 0.0320983 0.0510324 0.0741705 0.10045 0.128987 0.159228 0.190885 0.223831 0.258027 0.293479 0.330222 0.368312 0.407819 0.448827 0.49143 0.535731 0.581837 0.629848 0.679838 0.731806 0.785563 0.840438 0.894441 0.94177 0.965802 0.956337 0.94666 0.93801 0.932444 0.929565 0.928286 0.927728 0.927446 0.927289 0.927201 0.927145 0.927088 0.927032 0.926981 0.926938 0.926905 0.926885 0.926875 0.926875 0.926913 0.926992 0.926954 0.92694 0.926919 0.926894 0.926869 0.92684 0.926797 0.926746 0.926675 0.926612 0.926565 0.92655 0.926647 0.92706 0.926771 0.926568 0.926201 0.925882 0.925662 0.9256 0.926178 0.927965 0.926682 0.925885 0.92494 0.923953 0.923536 0.924978 0.926599 0.928477 0.925227 0.925815 0.901315 0.881848 0.87288 0.813164 0.775615 0.683846 0.605896 0.481699 0.362666 0.240626 0.140146 0.0698887 0.0303017 0.0119419 0.00447905 0.00164339 0.000597094 0.000215799 7.76838e-05 2.78558e-05 9.94539e-06 3.53325e-06 1.24815e-06 4.38102e-07 1.52681e-07 5.27939e-08 1.80999e-08 6.14867e-09 2.06849e-09 6.88679e-10 2.26789e-10 7.38469e-11 2.37541e-11 7.58031e-12 2.43255e-12 6.93381e-13 1.98868e-13 -1.17443e-13 -4.77983e-14 5.34719e-15 -1.703e-14 3.64311e-14 -9.98209e-14 -9.65031e-14 -7.33814e-15 -5.64054e-15 -8.4259e-14 -3.09009e-14 -1.54361e-15 3.07127e-14 9.20791e-14 7.75049e-14 -5.93368e-14 3.8488e-14 3.57561e-14 6.29973e-14 0 0 9.96324e-18 -6.7434e-18 -2.21633e-15 -2.92111e-15 1.75916e-15 1.74556e-15 2.6799e-15 -4.98104e-15 -3.63866e-15 5.68328e-15 -7.06429e-16 5.93238e-15 -1.15169e-14 5.92671e-15 7.51269e-15 5.3662e-15 -3.56854e-15 1.0637e-15 8.88265e-15 -1.28459e-15 6.36258e-15 -1.08067e-14 3.68878e-15 1.01553e-14 3.79638e-15 1.4168e-14 2.18315e-15 2.15626e-14 -1.63978e-14 2.31639e-14 -2.80347e-14 -6.70215e-15 4.55988e-15 9.90381e-15 1.18076e-14 -5.03281e-15 1.15467e-14 5.24903e-15 1.18789e-15 -1.80167e-14 4.21614e-14 -1.4469e-15 6.8958e-14 2.52301e-14 7.97313e-14 1.19476e-13 1.35868e-13 4.66598e-13 3.26441e-12 2.26521e-11 1.49669e-10 9.28621e-10 5.42245e-09 2.97359e-08 1.52682e-07 7.3161e-07 3.25911e-06 1.34376e-05 5.10136e-05 0.000177219 0.00055929 0.0015903 0.00403955 0.00910175 0.0181384 0.0320983 0.0510324 0.0741705 0.10045 0.128987 0.159228 0.190885 0.223831 0.258027 0.293479 0.330222 0.368312 0.407819 0.448827 0.49143 0.535731 0.581837 0.629848 0.679838 0.731806 0.785563 0.840438 0.894441 0.94177 0.965802 0.956337 0.94666 0.93801 0.932444 0.929565 0.928286 0.927728 0.927446 0.927289 0.927201 0.927145 0.927088 0.927032 0.926981 0.926938 0.926905 0.926885 0.926875 0.926875 0.926913 0.926992 0.926954 0.92694 0.926919 0.926894 0.926869 0.92684 0.926797 0.926746 0.926675 0.926612 0.926565 0.92655 0.926647 0.92706 0.926771 0.926568 0.926201 0.925882 0.925662 0.9256 0.926178 0.927965 0.926682 0.925885 0.92494 0.923953 0.923536 0.924978 0.926599 0.928477 0.925227 0.925815 0.901315 0.881848 0.87288 0.813164 0.775615 0.683846 0.605896 0.481699 0.362666 0.240626 0.140146 0.0698887 0.0303017 0.0119419 0.00447905 0.00164339 0.000597094 0.000215799 7.76838e-05 2.78558e-05 9.94539e-06 3.53325e-06 1.24815e-06 4.38102e-07 1.52681e-07 5.27939e-08 1.80999e-08 6.14865e-09 2.06843e-09 6.88725e-10 2.26833e-10 7.38699e-11 2.37221e-11 7.6042e-12 2.42274e-12 7.69932e-13 -4.54357e-14 -1.93366e-14 9.38329e-14 2.04366e-14 1.48405e-14 2.68672e-15 6.72228e-14 2.17535e-14 -2.79204e-13 -1.34973e-13 4.42047e-14 -7.98719e-14 1.21707e-13 6.09613e-14 -3.62172e-14 1.0437e-14 -1.50681e-14 1.17107e-13 3.66097e-14 2.86098e-14 0 0 -8.6306e-17 7.9464e-16 -8.88001e-16 -9.32505e-16 -1.04376e-15 2.06814e-15 1.23215e-16 4.46306e-15 -1.32874e-15 1.01465e-14 1.78564e-14 4.0946e-15 -1.02543e-14 5.45159e-15 7.01336e-16 2.29074e-15 -4.20506e-15 4.02615e-15 2.30365e-15 6.16606e-16 7.2658e-15 7.98229e-16 -1.32775e-14 1.15624e-14 1.35729e-14 -7.4057e-15 5.68686e-15 3.40897e-15 -2.3262e-15 1.81276e-14 1.73913e-14 -2.13182e-15 7.9002e-15 -1.91863e-14 -1.59781e-14 -1.14086e-14 2.11233e-14 -1.10056e-15 -6.60691e-15 -1.45415e-14 4.39478e-14 4.29116e-14 1.09562e-13 -5.69829e-15 1.023e-13 6.74161e-14 1.77446e-13 4.61692e-13 3.23013e-12 2.26733e-11 1.49723e-10 9.2853e-10 5.42244e-09 2.97359e-08 1.52682e-07 7.3161e-07 3.25911e-06 1.34376e-05 5.10136e-05 0.000177219 0.00055929 0.0015903 0.00403955 0.00910175 0.0181384 0.0320983 0.0510324 0.0741705 0.10045 0.128987 0.159228 0.190885 0.223831 0.258027 0.293479 0.330222 0.368312 0.407819 0.448827 0.49143 0.535731 0.581837 0.629848 0.679838 0.731806 0.785563 0.840438 0.894441 0.94177 0.965802 0.956337 0.94666 0.93801 0.932444 0.929565 0.928286 0.927728 0.927446 0.927289 0.927201 0.927145 0.927088 0.927032 0.926981 0.926938 0.926905 0.926885 0.926875 0.926875 0.926913 0.926992 0.926954 0.92694 0.926919 0.926894 0.926869 0.92684 0.926797 0.926746 0.926675 0.926612 0.926565 0.92655 0.926647 0.92706 0.926771 0.926568 0.926201 0.925882 0.925662 0.9256 0.926178 0.927965 0.926682 0.925885 0.92494 0.923953 0.923536 0.924978 0.926599 0.928477 0.925227 0.925815 0.901315 0.881848 0.87288 0.813164 0.775615 0.683846 0.605896 0.481699 0.362666 0.240626 0.140146 0.0698887 0.0303017 0.0119419 0.00447905 0.00164339 0.000597094 0.000215799 7.76838e-05 2.78558e-05 9.94539e-06 3.53325e-06 1.24815e-06 4.38102e-07 1.52681e-07 5.2794e-08 1.80998e-08 6.14876e-09 2.06842e-09 6.88685e-10 2.26705e-10 7.39692e-11 2.38769e-11 7.43842e-12 2.34422e-12 7.30067e-13 1.74875e-13 1.03111e-13 2.17489e-15 1.33269e-14 -4.62014e-14 1.32247e-13 9.3536e-14 -8.97008e-14 -2.92831e-13 -2.76496e-13 1.64199e-13 7.61541e-14 1.53672e-13 5.09982e-14 -7.07588e-14 1.61142e-14 8.08626e-14 -1.14201e-13 -6.35651e-14 -1.02073e-13 0 0 -4.04115e-16 -1.24429e-16 5.48261e-15 -5.60008e-16 -3.40668e-15 4.01792e-16 5.23299e-15 -1.5709e-15 2.10006e-15 2.03008e-14 2.16634e-14 -1.07364e-15 1.8264e-15 -5.29126e-15 1.06448e-14 -1.20304e-14 2.88754e-15 -1.47305e-14 1.30151e-14 -5.23518e-15 1.32674e-14 4.47881e-15 -1.24982e-14 5.77696e-15 -4.40114e-15 -8.94702e-16 -4.64066e-15 1.68088e-14 -3.71236e-15 2.4329e-14 2.44414e-14 3.68613e-14 2.43754e-14 -8.27376e-14 -1.51178e-14 -1.78357e-14 -3.34747e-15 3.71242e-14 -2.48144e-14 -9.17719e-16 2.8596e-14 8.35813e-14 8.36774e-14 1.23505e-14 1.16349e-13 -1.76536e-14 2.41226e-13 4.6469e-13 3.18504e-12 2.27495e-11 1.4971e-10 9.28531e-10 5.42242e-09 2.97358e-08 1.52682e-07 7.3161e-07 3.25911e-06 1.34376e-05 5.10136e-05 0.000177219 0.00055929 0.0015903 0.00403955 0.00910175 0.0181384 0.0320983 0.0510324 0.0741705 0.10045 0.128987 0.159228 0.190885 0.223831 0.258027 0.293479 0.330222 0.368312 0.407819 0.448827 0.49143 0.535731 0.581837 0.629848 0.679838 0.731806 0.785563 0.840438 0.894441 0.94177 0.965802 0.956337 0.94666 0.93801 0.932444 0.929565 0.928286 0.927728 0.927446 0.927289 0.927201 0.927145 0.927088 0.927032 0.926981 0.926938 0.926905 0.926885 0.926875 0.926875 0.926913 0.926992 0.926954 0.92694 0.926919 0.926894 0.926869 0.92684 0.926797 0.926746 0.926675 0.926612 0.926565 0.92655 0.926647 0.92706 0.926771 0.926568 0.926201 0.925882 0.925662 0.9256 0.926178 0.927965 0.926682 0.925885 0.92494 0.923953 0.923536 0.924978 0.926599 0.928477 0.925227 0.925815 0.901315 0.881848 0.87288 0.813164 0.775615 0.683846 0.605896 0.481699 0.362666 0.240626 0.140146 0.0698887 0.0303017 0.0119419 0.00447905 0.00164339 0.000597094 0.000215799 7.76838e-05 2.78558e-05 9.94539e-06 3.53325e-06 1.24815e-06 4.38102e-07 1.52681e-07 5.2794e-08 1.80997e-08 6.14892e-09 2.06852e-09 6.88691e-10 2.26576e-10 7.38245e-11 2.3941e-11 7.41333e-12 2.28065e-12 7.24293e-13 4.17173e-13 1.52093e-13 -3.51922e-14 -1.70908e-13 1.66978e-14 2.46475e-13 -6.69997e-14 -3.13289e-13 5.54265e-15 -3.64674e-13 1.50727e-13 2.62834e-13 6.64602e-14 1.3298e-13 -1.26504e-13 2.89332e-13 -9.29841e-14 -2.85224e-13 -2.06765e-13 -1.07786e-13 0
				</DataArray>
				<DataArray Name="VitesseY" type="Float32" format="ascii">