<?xml version="1.0"?>
<VTKFile type="PolyData">
	<PolyData>
		<Piece NumberOfPoints="1206" NumberOfPolys="1000">
			<Points>
				<DataArray type="Float32" NumberOfComponents="3" format="ascii">
 0 0 0 0.005 0 0 0.01 0 0 0.015 0 0 0.02 0 0 0.025 0 0 0.03 0 0 0.035 0 0 0.04 0 0 0.045 0 0 0.05 0 0 0.055 0 0 0.06 0 0 0.065 0 0 0.07 0 0 0.075 0 0 0.08 0 0 0.085 0 0 0.09 0 0 0.095 0 0 0.1 0 0 0.105 0 0 0.11 0 0 0.115 0 0 0.12 0 0 0.125 0 0 0.13 0 0 0.135 0 0 0.14 0 0 0.145 0 0 0.15 0 0 0.155 0 0 0.16 0 0 0.165 0 0 0.17 0 0 0.175 0 0 0.18 0 0 0.185 0 0 0.19 0 0 0.195 0 0 0.2 0 0 0.205 0 0 0.21 0 0 0.215 0 0 0.22 0 0 0.225 0 0 0.23 0 0 0.235 0 0 0.24 0 0 0.245 0 0 0.25 0 0 0.255 0 0 0.26 0 0 0.265 0 0 0.27 0 0 0.275 0 0 0.28 0 0 0.285 0 0 0.29 0 0 0.295 0 0 0.300001 0 0 0.305002 0 0 0.310006 0 0 0.315017 0 0 0.320044 0 0 0.325101 0 0 0.330207 0 0 0.335386 0 0 0.34066 0 0 0.346048 0 0 0.351565 0 0 0.357224 0 0 0.363037 0 0 0.369017 0 0 0.375176 0 0 0.381528 0 0 0.388087 0 0 0.394869 0 0 0.401892 0 0 0.409177 0 0 0.416746 0 0 0.424624 0 0 0.43284 0 0 0.441426 0 0 0.45042 0 0 0.459863 0 0 0.4698 0 0 0.480278 0 0 0.491337 0 0 0.50298 0 0 0.515078 0 0 0.527247 0 0 0.539296 0 0 0.551229 0 0 0.56307 0 0 0.574857 0 0 0.586618 0 0 0.598368 0 0 0.610114 0 0 0.621859 0 0 0.633615 0 0 0.636229 0 0 0.638767 0 0 0.641259 0 0 0.64372 0 0 0.646158 0 0 0.64858 0 0 0.65099 0 0 0.653391 0 0 0.655785 0 0 0.658174 0 0 0.660558 0 0 0.662939 0 0 0.665317 0 0 0.667691 0 0 0.670063 0 0 0.672431 0 0 0.674798 0 0 0.677162 0 0 0.679525 0 0 0.681886 0 0 0.684247 0 0 0.686606 0 0 0.688965 0 0 0.691323 0 0 0.693681 0 0 0.696038 0 0 0.698395 0 0 0.700752 0 0 0.703109 0 0 0.705465 0 0 0.707821 0 0 0.710178 0 0 0.712534 0 0 0.71489 0 0 0.717247 0 0 0.719604 0 0 0.721962 0 0 0.724321 0 0 0.726682 0 0 0.729047 0 0 0.731418 0 0 0.733798 0 0 0.736198 0 0 0.738617 0 0 0.741084 0 0 0.743595 0 0 0.746202 0 0 0.748902 0 0 0.751791 0 0 0.754891 0 0 0.758297 0 0 0.762039 0 0 0.766138 0 0 0.770565 0 0 0.77525 0 0 0.780101 0 0 0.785038 0 0 0.790014 0 0 0.795005 0 0 0.800002 0 0 0.805001 0 0 0.81 0 0 0.815 0 0 0.82 0 0 0.825 0 0 0.83 0 0 0.835 0 0 0.84 0 0 0.845 0 0 0.85 0 0 0.855 0 0 0.86 0 0 0.865 0 0 0.87 0 0 0.875 0 0 0.88 0 0 0.885 0 0 0.89 0 0 0.895 0 0 0.9 0 0 0.905 0 0 0.91 0 0 0.915 0 0 0.92 0 0 0.925 0 0 0.93 0 0 0.935 0 0 0.94 0 0 0.945 0 0 0.95 0 0 0.955 0 0 0.96 0 0 0.965 0 0 0.97 0 0 0.975 0 0 0.98 0 0 0.985 0 0 0.99 0 0 0.995 0 0 1 0 0 0 0.02 0 0.005 0.02 0 0.01 0.02 0 0.015 0.02 0 0.02 0.02 0 0.025 0.02 0 0.03 0.02 0 0.035 0.02 0 0.04 0.02 0 0.045 0.02 0 0.05 0.02 0 0.055 0.02 0 0.06 0.02 0 0.065 0.02 0 0.07 0.02 0 0.075 0.02 0 0.08 0.02 0 0.085 0.02 0 0.09 0.02 0 0.095 0.02 0 0.1 0.02 0 0.105 0.02 0 0.11 0.02 0 0.115 0.02 0 0.12 0.02 0 0.125 0.02 0 0.13 0.02 0 0.135 0.02 0 0.14 0.02 0 0.145 0.02 0 0.15 0.02 0 0.155 0.02 0 0.16 0.02 0 0.165 0.02 0 0.17 0.02 0 0.175 0.02 0 0.18 0.02 0 0.185 0.02 0 0.19 0.02 0 0.195 0.02 0 0.2 0.02 0 0.205 0.02 0 0.21 0.02 0 0.215 0.02 0 0.22 0.02 0 0.225 0.02 0 0.23 0.02 0 0.235 0.02 0 0.24 0.02 0 0.245 0.02 0 0.25 0.02 0 0.255 0.02 0 0.26 0.02 0 0.265 0.02 0 0.27 0.02 0 0.275 0.02 0 0.28 0.02 0 0.285 0.02 0 0.29 0.02 0 0.295 0.02 0 0.300001 0.02 0 0.305002 0.02 0 0.310006 0.02 0 0.315017 0.02 0 0.320044 0.02 0 0.325101 0.02 0 0.330207 0.02 0 0.335386 0.02 0 0.34066 0.02 0 0.346048 0.02 0 0.351565 0.02 0 0.357224 0.02 0 0.363037 0.02 0 0.369017 0.02 0 0.375176 0.02 0 0.381528 0.02 0 0.388087 0.02 0 0.394869 0.02 0 0.401892 0.02 0 0.409177 0.02 0 0.416746 0.02 0 0.424624 0.02 0 0.43284 0.02 0 0.441426 0.02 0 0.45042 0.02 0 0.459863 0.02 0 0.4698 0.02 0 0.480278 0.02 0 0.491337 0.02 0 0.50298 0.02 0 0.515078 0.02 0 0.527247 0.02 0 0.539296 0.02 0 0.551229 0.02 0 0.56307 0.02 0 0.574857 0.02 0 0.586618 0.02 0 0.598368 0.02 0 0.610114 0.02 0 0.621859 0.02 0 0.633615 0.02 0 0.636229 0.02 0 0.638767 0.02 0 0.641259 0.02 0 0.64372 0.02 0 0.646158 0.02 0 0.64858 0.02 0 0.65099 0.02 0 0.653391 0.02 0 0.655785 0.02 0 0.658174 0.02 0 0.660558 0.02 0 0.662939 0.02 0 0.665317 0.02 0 0.667691 0.02 0 0.670063 0.02 0 0.672431 0.02 0 0.674798 0.02 0 0.677162 0.02 0 0.679525 0.02 0 0.681886 0.02 0 0.684247 0.02 0 0.686606 0.02 0 0.688965 0.02 0 0.691323 0.02 0 0.693681 0.02 0 0.696038 0.02 0 0.698395 0.02 0 0.700752 0.02 0 0.703109 0.02 0 0.705465 0.02 0 0.707821 0.02 0 0.710178 0.02 0 0.712534 0.02 0 0.71489 0.02 0 0.717247 0.02 0 0.719604 0.02 0 0.721962 0.02 0 0.724321 0.02 0 0.726682 0.02 0 0.729047 0.02 0 0.731418 0.02 0 0.733798 0.02 0 0.736198 0.02 0 0.738617 0.02 0 0.741084 0.02 0 0.743595 0.02 0 0.746202 0.02 0 0.748902 0.02 0 0.751791 0.02 0 0.754891 0.02 0 0.758297 0.02 0 0.762039 0.02 0 0.766138 0.02 0 0.770565 0.02 0 0.77525 0.02 0 0.780101 0.02 0 0.785038 0.02 0 0.790014 0.02 0 0.795005 0.02 0 0.800002 0.02 0 0.805001 0.02 0 0.81 0.02 0 0.815 0.02 0 0.82 0.02 0 0.825 0.02 0 0.83 0.02 0 0.835 0.02 0 0.84 0.02 0 0.845 0.02 0 0.85 0.02 0 0.855 0.02 0 0.86 0.02 0 0.865 0.02 0 0.87 0.02 0 0.875 0.02 0 0.88 0.02 0 0.885 0.02 0 0.89 0.02 0 0.895 0.02 0 0.9 0.02 0 0.905 0.02 0 0.91 0.02 0 0.915 0.02 0 0.92 0.02 0 0.925 0.02 0 0.93 0.02 0 0.935 0.02 0 0.94 0.02 0 0.945 0.02 0 0.95 0.02 0 0.955 0.02 0 0.96 0.02 0 0.965 0.02 0 0.97 0.02 0 0.975 0.02 0 0.98 0.02 0 0.985 0.02 0 0.99 0.02 0 0.995 0.02 0 1 0.02 0 0 0.04 0 0.005 0.04 0 0.01 0.04 0 0.015 0.04 0 0.02 0.04 0 0.025 0.04 0 0.03 0.04 0 0.035 0.04 0 0.04 0.04 0 0.045 0.04 0 0.05 0.04 0 0.055 0.04 0 0.06 0.04 0 0.065 0.04 0 0.07 0.04 0 0.075 0.04 0 0.08 0.04 0 0.085 0.04 0 0.09 0.04 0 0.095 0.04 0 0.1 0.04 0 0.105 0.04 0 0.11 0.04 0 0.115 0.04 0 0.12 0.04 0 0.125 0.04 0 0.13 0.04 0 0.135 0.04 0 0.14 0.04 0 0.145 0.04 0 0.15 0.04 0 0.155 0.04 0 0.16 0.04 0 0.165 0.04 0 0.17 0.04 0 0.175 0.04 0 0.18 0.04 0 0.185 0.04 0 0.19 0.04 0 0.195 0.04 0 0.2 0.04 0 0.205 0.04 0 0.21 0.04 0 0.215 0.04 0 0.22 0.04 0 0.225 0.04 0 0.23 0.04 0 0.235 0.04 0 0.24 0.04 0 0.245 0.04 0 0.25 0.04 0 0.255 0.04 0 0.26 0.04 0 0.265 0.04 0 0.27 0.04 0 0.275 0.04 0 0.28 0.04 0 0.285 0.04 0 0.29 0.04 0 0.295 0.04 0 0.300001 0.04 0 0.305002 0.04 0 0.310006 0.04 0 0.315017 0.04 0 0.320044 0.04 0 0.325101 0.04 0 0.330207 0.04 0 0.335386 0.04 0 0.34066 0.04 0 0.346048 0.04 0 0.351565 0.04 0 0.357224 0.04 0 0.363037 0.04 0 0.369017 0.04 0 0.375176 0.04 0 0.381528 0.04 0 0.388087 0.04 0 0.394869 0.04 0 0.401892 0.04 0 0.409177 0.04 0 0.416746 0.04 0 0.424624 0.04 0 0.43284 0.04 0 0.441426 0.04 0 0.45042 0.04 0 0.459863 0.04 0 0.4698 0.04 0 0.480278 0.04 0 0.491337 0.04 0 0.50298 0.04 0 0.515078 0.04 0 0.527247 0.04 0 0.539296 0.04 0 0.551229 0.04 0 0.56307 0.04 0 0.574857 0.04 0 0.586618 0.04 0 0.598368 0.04 0 0.610114 0.04 0 0.621859 0.04 0 0.633615 0.04 0 0.636229 0.04 0 0.638767 0.04 0 0.641259 0.04 0 0.64372 0.04 0 0.646158 0.04 0 0.64858 0.04 0 0.65099 0.04 0 0.653391 0.04 0 0.655785 0.04 0 0.658174 0.04 0 0.660558 0.04 0 0.662939 0.04 0 0.665317 0.04 0 0.667691 0.04 0 0.670063 0.04 0 0.672431 0.04 0 0.674798 0.04 0 0.677162 0.04 0 0.679525 0.04 0 0.681886 0.04 0 0.684247 0.04 0 0.686606 0.04 0 0.688965 0.04 0 0.691323 0.04 0 0.693681 0.04 0 0.696038 0.04 0 0.698395 0.04 0 0.700752 0.04 0 0.703109 0.04 0 0.705465 0.04 0 0.707821 0.04 0 0.710178 0.04 0 0.712534 0.04 0 0.71489 0.04 0 0.717247 0.04 0 0.719604 0.04 0 0.721962 0.04 0 0.724321 0.04 0 0.726682 0.04 0 0.729047 0.04 0 0.731418 0.04 0 0.733798 0.04 0 0.736198 0.04 0 0.738617 0.04 0 0.741084 0.04 0 0.743595 0.04 0 0.746202 0.04 0 0.748902 0.04 0 0.751791 0.04 0 0.754891 0.04 0 0.758297 0.04 0 0.762039 0.04 0 0.766138 0.04 0 0.770565 0.04 0 0.77525 0.04 0 0.780101 0.04 0 0.785038 0.04 0 0.790014 0.04 0 0.795005 0.04 0 0.800002 0.04 0 0.805001 0.04 0 0.81 0.04 0 0.815 0.04 0 0.82 0.04 0 0.825 0.04 0 0.83 0.04 0 0.835 0.04 0 0.84 0.04 0 0.845 0.04 0 0.85 0.04 0 0.855 0.04 0 0.86 0.04 0 0.865 0.04 0 0.87 0.04 0 0.875 0.04 0 0.88 0.04 0 0.885 0.04 0 0.89 0.04 0 0.895 0.04 0 0.9 0.04 0 0.905 0.04 0 0.91 0.04 0 0.915 0.04 0 0.92 0.04 0 0.925 0.04 0 0.93 0.04 0 0.935 0.04 0 0.94 0.04 0 0.945 0.04 0 0.95 0.04 0 0.955 0.04 0 0.96 0.04 0 0.965 0.04 0 0.97 0.04 0 0.975 0.04 0 0.98 0.04 0 0.985 0.04 0 0.99 0.04 0 0.995 0.04 0 1 0.04 0 0 0.06 0 0.005 0.06 0 0.01 0.06 0 0.015 0.06 0 0.02 0.06 0 0.025 0.06 0 0.03 0.06 0 0.035 0.06 0 0.04 0.06 0 0.045 0.06 0 0.05 0.06 0 0.055 0.06 0 0.06 0.06 0 0.065 0.06 0 0.07 0.06 0 0.075 0.06 0 0.08 0.06 0 0.085 0.06 0 0.09 0.06 0 0.095 0.06 0 0.1 0.06 0 0.105 0.06 0 0.11 0.06 0 0.115 0.06 0 0.12 0.06 0 0.125 0.06 0 0.13 0.06 0 0.135 0.06 0 0.14 0.06 0 0.145 0.06 0 0.15 0.06 0 0.155 0.06 0 0.16 0.06 0 0.165 0.06 0 0.17 0.06 0 0.175 0.06 0 0.18 0.06 0 0.185 0.06 0 0.19 0.06 0 0.195 0.06 0 0.2 0.06 0 0.205 0.06 0 0.21 0.06 0 0.215 0.06 0 0.22 0.06 0 0.225 0.06 0 0.23 0.06 0 0.235 0.06 0 0.24 0.06 0 0.245 0.06 0 0.25 0.06 0 0.255 0.06 0 0.26 0.06 0 0.265 0.06 0 0.27 0.06 0 0.275 0.06 0 0.28 0.06 0 0.285 0.06 0 0.29 0.06 0 0.295 0.06 0 0.300001 0.06 0 0.305002 0.06 0 0.310006 0.06 0 0.315017 0.06 0 0.320044 0.06 0 0.325101 0.06 0 0.330207 0.06 0 0.335386 0.06 0 0.34066 0.06 0 0.346048 0.06 0 0.351565 0.06 0 0.357224 0.06 0 0.363037 0.06 0 0.369017 0.06 0 0.375176 0.06 0 0.381528 0.06 0 0.388087 0.06 0 0.394869 0.06 0 0.401892 0.06 0 0.409177 0.06 0 0.416746 0.06 0 0.424624 0.06 0 0.43284 0.06 0 0.441426 0.06 0 0.45042 0.06 0 0.459863 0.06 0 0.4698 0.06 0 0.480278 0.06 0 0.491337 0.06 0 0.50298 0.06 0 0.515078 0.06 0 0.527247 0.06 0 0.539296 0.06 0 0.551229 0.06 0 0.56307 0.06 0 0.574857 0.06 0 0.586618 0.06 0 0.598368 0.06 0 0.610114 0.06 0 0.621859 0.06 0 0.633615 0.06 0 0.636229 0.06 0 0.638767 0.06 0 0.641259 0.06 0 0.64372 0.06 0 0.646158 0.06 0 0.64858 0.06 0 0.65099 0.06 0 0.653391 0.06 0 0.655785 0.06 0 0.658174 0.06 0 0.660558 0.06 0 0.662939 0.06 0 0.665317 0.06 0 0.667691 0.06 0 0.670063 0.06 0 0.672431 0.06 0 0.674798 0.06 0 0.677162 0.06 0 0.679525 0.06 0 0.681886 0.06 0 0.684247 0.06 0 0.686606 0.06 0 0.688965 0.06 0 0.691323 0.06 0 0.693681 0.06 0 0.696038 0.06 0 0.698395 0.06 0 0.700752 0.06 0 0.703109 0.06 0 0.705465 
[...]
			<PointData Scalars="VitesseX">
				<DataArray Name="VitesseX" type="Float32" format="ascii">
 0 -3.02959e-15 -7.8587e-15 -1.07077e-14 -1.43419e-14 -1.43433e-14 -1.65476e-14 -1.65731e-14 -2.41558e-14 -2.33136e-14 -1.78751e-14 -2.94617e-14 -1.88647e-14 -2.01701e-14 -1.63166e-14 -1.04757e-14 -1.40647e-14 -2.57457e-14 -2.02059e-14 -6.92818e-15 -1.67639e-14 -1.96326e-14 -1.50267e-14 -1.39905e-14 -1.57647e-14 -1.28393e-14 -3.73862e-14 -2.11219e-14 -3.00235e-14 -4.51377e-14 -2.22527e-14 -4.20864e-14 -3.06196e-14 -3.3038e-14 -3.57871e-14 -2.61611e-14 -5.08217e-14 -2.29936e-14 -3.14355e-14 -5.45453e-14 -3.96785e-14 -3.68126e-14 -2.40484e-14 -2.11445e-14 -2.41626e-14 -2.52616e-14 -1.89242e-14 2.24978e-14 4.3337e-13 3.06362e-12 2.10792e-11 1.3907e-10 8.64805e-10 5.06505e-09 2.78621e-08 1.43517e-07 6.89957e-07 3.08401e-06 1.27606e-05 4.86222e-05 0.000169568 0.000537345 0.00153457 0.00391588 0.00886468 0.0177477 0.0315409 0.05033 0.0733646 0.0995813 0.128084 0.158308 0.189957 0.2229 0.257097 0.292551 0.329299 0.367394 0.406909 0.447925 0.490538 0.53485 0.580969 0.628995 0.679003 0.730994 0.784778 0.839686 0.893722 0.941056 0.965009 0.955585 0.946069 0.93771 0.9325 0.929902 0.928712 0.92808 0.927683 0.927432 0.927261 0.927232 0.927205 0.927178 0.927153 0.927127 0.927102 0.927078 0.927053 0.927028 0.927004 0.926979 0.926955 0.92693 0.926906 0.926881 0.926857 0.926832 0.926807 0.926782 0.926756 0.926729 0.9267 0.926672 0.926636 0.926606 0.926562 0.926529 0.92647 0.926438 0.926352 0.926327 0.926189 0.926178 0.925924 0.925928 0.925387 0.925421 0.924061 0.92418 0.920462 0.920837 0.910752 0.911911 0.88683 0.890174 0.837006 0.841711 0.747917 0.715562 0.594805 0.494421 0.364394 0.244319 0.141954 0.0707863 0.0306625 0.0120744 0.00452473 0.00165848 0.000601853 0.000217208 7.80578e-05 2.79335e-05 9.94955e-06 3.52511e-06 1.24143e-06 4.34248e-07 1.50766e-07 5.19182e-08 1.77215e-08 5.99208e-09 2.00591e-09 6.64404e-10 2.1758e-10 7.04762e-11 2.25065e-11 7.02994e-12 2.24836e-12 6.44046e-13 1.62196e-13 7.09475e-14 5.32983e-14 2.51598e-14 8.87397e-14 -4.31507e-14 1.02045e-13 -2.00219e-14 -3.0346e-14 9.34757e-14 4.77164e-14 8.68454e-14 -1.05905e-13 -5.31478e-14 -9.33614e-14 6.49415e-14 -4.32502e-14 -6.58758e-14 6.47888e-14 -2.42982e-14 0 0 -3.16532e-15 -6.65156e-15 -9.7179e-15 -1.1293e-14 -1.37754e-14 -1.76968e-14 -1.38514e-14 -1.76152e-14 -2.07471e-14 -2.36953e-14 -2.12799e-14 -2.21345e-14 -1.6957e-14 -1.41091e-14 -2.01961e-14 -1.37589e-14 -1.67775e-14 -1.2794e-14 -1.60739e-14 -1.72352e-14 -1.50381e-14 -1.57834e-14 -1.97243e-14 -1.73864e-14 -1.17211e-14 -3.06483e-14 -2.83981e-14 -3.5264e-14 -4.34585e-14 -3.37915e-14 -2.3362e-14 -3.693e-14 -3.75662e-14 -2.52901e-14 -4.3401e-14 -2.91705e-14 -4.58232e-14 -2.75403e-14 -3.91436e-14 -3.28538e-14 -4.66231e-14 -3.46295e-14 -3.74499e-14 -8.35748e-15 -2.05879e-14 -1.62242e-15 4.2667e-14 4.27814e-13 3.06008e-12 2.1149e-11 1.3907e-10 8.64761e-10 5.0651e-09 2.7862e-08 1.43517e-07 6.89957e-07 3.08401e-06 1.27606e-05 4.86222e-05 0.000169568 0.000537345 0.00153457 0.00391588 0.00886468 0.0177477 0.0315409 0.05033 0.0733646 0.0995813 0.128084 0.158308 0.189957 0.2229 0.257097 0.292551 0.329299 0.367394 0.406909 0.447925 0.490538 0.53485 0.580969 0.628995 0.679003 0.730994 0.784778 0.839686 0.893722 0.941056 0.965009 0.955585 0.946069 0.93771 0.9325 0.929902 0.928712 0.92808 0.927683 0.927432 0.927261 0.927232 0.927205 0.927178 0.927153 0.927127 0.927102 0.927078 0.927053 0.927028 0.927004 0.926979 0.926955 0.92693 0.926906 0.926881 0.926857 0.926832 0.926807 0.926782 0.926756 0.926729 0.9267 0.926672 0.926636 0.926606 0.926562 0.926529 0.92647 0.926438 0.926352 0.926327 0.926189 0.926178 0.925924 0.925928 0.925387 0.925421 0.924061 0.92418 0.920462 0.920837 0.910752 0.911911 0.88683 0.890174 0.837006 0.841711 0.747917 0.715562 0.594805 0.494421 0.364394 0.244319 0.141954 0.0707863 0.0306625 0.0120744 0.00452473 0.00165848 0.000601853 0.000217208 7.80578e-05 2.79335e-05 9.94955e-06 3.52511e-06 1.24143e-06 4.34248e-07 1.50766e-07 5.19182e-08 1.77215e-08 5.99211e-09 2.00584e-09 6.64429e-10 2.17633e-10 7.03821e-11 2.25151e-11 7.0612e-12 2.10269e-12 6.67634e-13 1.86485e-13 1.88352e-14 -1.67912e-14 8.12357e-14 5.25493e-15 7.8412e-14 -8.33816e-14 -2.45995e-14 2.80024e-14 6.892e-14 1.06349e-13 -3.64121e-14 -3.42704e-14 8.91813e-15 -1.02149e-13 -2.91171e-14 1.06283e-13 6.40879e-16 -4.64835e-15 5.27198e-14 0 0 -3.19159e-15 -6.0162e-15 -7.33626e-15 -8.62137e-15 -1.11619e-14 -1.23579e-14 -1.61048e-14 -6.62587e-15 -1.3819e-14 -1.90503e-14 -1.41748e-14 -2.06746e-14 -1.24448e-14 -1.5147e-14 -2.98115e-14 -1.14545e-14 -7.39506e-15 -1.16265e-14 -1.71494e-14 -1.61872e-15 -1.39246e-14 -1.58233e-14 -1.21827e-14 -3.37053e-14 -1.60572e-14 -4.67361e-14 -1.08828e-14 -2.4076e-14 -3.89312e-14 -3.27674e-14 -6.96784e-14 -3.47657e-14 -2.79167e-14 -4.28225e-14 -3.40708e-14 -4.30994e-14 -4.42597e-14 -3.07391e-14 -3.3331e-14 -2.55661e-14 -4.87172e-14 -2.39094e-14 -1.84843e-14 2.69128e-16 -1.03099e-14 6.56849e-15 6.05078e-14 4.33963e-13 3.10246e-12 2.12271e-11 1.39089e-10 8.64781e-10 5.06515e-09 2.7862e-08 1.43517e-07 6.89957e-07 3.08401e-06 1.27606e-05 4.86222e-05 0.000169568 0.000537345 0.00153457 0.00391588 0.00886468 0.0177477 0.0315409 0.05033 0.0733646 0.0995813 0.128084 0.158308 0.189957 0.2229 0.257097 0.292551 0.329299 0.367394 0.406909 0.447925 0.490538 0.53485 0.580969 0.628995 0.679003 0.730994 0.784778 0.839686 0.893722 0.941056 0.965009 0.955585 0.946069 0.93771 0.9325 0.929902 0.928712 0.92808 0.927683 0.927432 0.927261 0.927232 0.927205 0.927178 0.927153 0.927127 0.927102 0.927078 0.927053 0.927028 0.927004 0.926979 0.926955 0.92693 0.926906 0.926881 0.926857 0.926832 0.926807 0.926782 0.926756 0.926729 0.9267 0.926672 0.926636 0.926606 0.926562 0.926529 0.92647 0.926438 0.926352 0.926327 0.926189 0.926178 0.925924 0.925928 0.925387 0.925421 0.924061 0.92418 0.920462 0.920837 0.910752 0.911911 0.88683 0.890174 0.837006 0.841711 0.747917 0.715562 0.594805 0.494421 0.364394 0.244319 0.141954 0.0707863 0.0306625 0.0120744 0.00452473 0.00165848 0.000601853 0.000217208 7.80578e-05 2.79335e-05 9.94955e-06 3.52511e-06 1.24143e-06 4.34248e-07 1.50766e-07 5.19182e-08 1.77215e-08 5.9921e-09 2.00586e-09 6.64357e-10 2.1756e-10 7.03657e-11 2.24538e-11 7.00884e-12 2.15442e-12 6.10959e-13 1.97525e-13 -6.47659e-14 -9.41929e-15 2.80974e-14 1.36588e-13 -3.8758e-14 -1.05815e-13 -1.03654e-13 -5.36678e-14 1.40961e-13 -6.59686e-14 8.71177e-15 -3.76634e-14 5.41941e-14 -3.37247e-14 -3.14327e-15 8.07784e-14 4.77672e-14 2.92219e-15 6.18127e-14 0 0 -2.03749e-15 -2.74175e-15 -4.10546e-15 -8.09569e-15 -5.19405e-15 -1.00116e-14 -6.09797e-15 -1.086e-14 -8.30019e-15 -8.35596e-15 -6.14283e-15 -7.7101e-15 -2.51998e-14 -1.13491e-14 -1.57353e-14 -2.25901e-14 -8.27854e-15 -6.77586e-15 -1.52465e-14 6.90881e-15 -1.13578e-14 -2.58566e-14 -8.21958e-15 -3.14696e-14 -1.83816e-14 -4.9364e-14 -1.07208e-14 -1.94189e-14 -3.68602e-14 -4.7175e-14 -7.80507e-14 -6.11592e-14 -1.13957e-14 -4.49735e-14 -1.42629e-14 -7.5137e-14 -3.2107e-14 -3.57586e-14 -1.69351e-14 5.35882e-15 -1.24438e-14 -2.37458e-14 -7.02627e-16 -3.20032e-14 1.62766e-14 4.44616e-15 8.18169e-14 4.7927e-13 3.14074e-12 2.12374e-11 1.39138e-10 8.64822e-10 5.06513e-09 2.78621e-08 1.43517e-07 6.89957e-07 3.08401e-06 1.27606e-05 4.86222e-05 0.000169568 0.000537345 0.00153457 0.00391588 0.00886468 0.0177477 0.0315409 0.05033 0.0733646 0.0995813 0.128084 0.158308 0.189957 0.2229 0.257097 0.292551 0.329299 0.367394 0.406909 0.447925 0.490538 0.53485 0.580969 0.628995 0.679003 0.730994 0.784778 0.839686 0.893722 0.941056 0.965009 0.955585 0.946069 0.93771 0.9325 0.929902 0.928712 0.92808 0.927683 0.927432 0.927261 0.927232 0.927205 0.927178 0.927153 0.927127 0.927102 0.927078 0.927053 0.927028 0.927004 0.926979 0.926955 0.92693 0.926906 0.926881 0.926857 0.926832 0.926807 0.926782 0.926756 0.926729 0.9267 0.926672 0.926636 0.926606 0.926562 0.926529 0.92647 0.926438 0.926352 0.926327 0.926189 0.926178 0.925924 0.925928 0.925387 0.925421 0.924061 0.92418 0.920462 0.920837 0.910752 0.911911 0.88683 0.890174 0.837006 0.841711 0.747917 0.715562 0.594805 0.494421 0.364394 0.244319 0.141954 0.0707863 0.0306625 0.0120744 0.00452473 0.00165848 0.000601853 0.000217208 7.80578e-05 2.79335e-05 9.94955e-06 3.52511e-06 1.24143e-06 4.34248e-07 1.50766e-07 5.19181e-08 1.77214e-08 5.99213e-09 2.00569e-09 6.64464e-10 2.1742e-10 7.02952e-11 2.25451e-11 6.93314e-12 2.10229e-12 5.59211e-13 3.4596e-14 1.87137e-14 5.09991e-14 8.24973e-14 -3.23534e-14 -1.06588e-13 -4.42987e-14 5.63485e-14 -1.13426e-13 1.37014e-13 -1.18871e-13 3.3864e-14 -2.0061e-14 1.11316e-13 -9.7273e-15 -1.07065e-14 2.8375e-15 -3.03413e-14 -1.04977e-13 5.70051e-14 0 0 -8.46971e-16 2.72312e-15 1.3662e-15 -3.02105e-16 3.89307e-17 -7.82436e-15 1.15359e-15 -1.53415e-14 -2.33316e-15 -9.78076e-15 -4.69172e-15 2.8494e-15 -1.64835e-14 -2.02191e-15 -6.15731e-15 -1.49558e-14 -1.4359e-14 -2.90092e-15 -1.08673e-14 -4.49363e-15 -3.52648e-14 -5.30657e-15 -2.94922e-14 -1.57677e-14 -2.51836e-14 -2.12684e-14 -3.21092e-14 -4.97887e-14 -4.54422e-14 -7.56117e-14 -2.59779e-14 -5.19469e-14 -3.60153e-14 -6.45437e-15 -2.23375e-14 -6.40158e-14 -2.07317e-14 -3.06526e-14 -1.92472e-14 -1.35098e-14 2.51918e-14 -3.83729e-15 2.5307e-15 -1.32268e-14 2.37347e-14 2.9932e-14 8.20604e-14 5.00929e-13 3.10509e-12 2.12496e-11 1.39159e-10 8.64851e-10 5.06516e-09 2.78621e-08 1.43517e-07 6.89957e-07 3.08401e-06 1.27606e-05 4.86222e-05 0.000169568 0.000537345 0.00153457 0.00391588 0.00886468 0.0177477 0.0315409 0.05033 0.0733646 0.0995813 0.128084 0.158308 0.189957 0.2229 0.257097 0.292551 0.329299 0.367394 0.406909 0.447925 0.490538 0.53485 0.580969 0.628995 0.679003 0.730994 0.784778 0.839686 0.893722 0.941056 0.965009 0.955585 0.946069 0.93771 0.9325 0.929902 0.928712 0.92808 0.927683 0.927432 0.927261 0.927232 0.927205 0.927178 0.927153 0.927127 0.927102 0.927078 0.927053 0.927028 0.927004 0.926979 0.926955 0.92693 0.926906 0.926881 0.926857 0.926832 0.926807 0.926782 0.926756 0.926729 0.9267 0.926672 0.926636 0.926606 0.926562 0.926529 0.92647 0.926438 0.926352 0.926327 0.926189 0.926178 0.925924 0.925928 0.925387 0.925421 0.924061 0.92418 0.920462 0.920837 0.910752 0.911911 0.88683 0.890174 0.837006 0.841711 0.747917 0.715562 0.594805 0.494421 0.364394 0.244319 0.141954 0.0707863 0.0306625 0.0120744 0.00452473 0.00165848 0.000601853 0.000217208 7.80578e-05 2.79335e-05 9.94955e-06 3.52511e-06 1.24143e-06 4.34248e-07 1.50766e-07 5.19181e-08 1.77213e-08 5.99209e-09 2.00557e-09 6.64458e-10 2.17558e-10 7.03205e-11 2.23409e-11 6.91671e-12 1.8996e-12 5.95098e-13 1.75724e-14 1.22342e-14 -4.34321e-14 2.14969e-13 -2.535e-13 7.69562e-14 -6.23902e-14 1.46125e-13 -2.23465e-14 -4.7257e-14 3.43071e-14 5.50953e-14 3.12618e-14 9.36481e-14 7.98605e-15 -1.73707e-13 6.15603e-14 -1.0136e-13 -1.59112e-13 4.11353e-14 0 0 -7.01086e-16 4.34175e-15 4.99894e-15 6.58861e-15 1.34962e-15 -1.49533e-15 -6.5768e-15 -1.11402e-14 2.47667e-15 -1.14346e-14 -1.23494e-14 5.17411e-15 6.28703e-15 2.61934e-16 -1.05504e-14 5.81278e-15 -1.91417e-14 -1.0121e-14 -3.20655e-16 -8.33585e-15 -6.52197e-14 2.59935e-14 -4.14526e-14 -1.69988e-14 -3.51155e-14 -1.33706e-14 -2.8868e-14 -6.83872e-14 -5.32469e-14 -7.70779e-14 -3.05737e-14 -7.86625e-15 -6.29782e-14 6.18645e-15 -2.36499e-14 -5.64371e-14 2.88405e-15 -2.76213e-14 -4.75444e-14 -6.28403e-14 3.42703e-14 3.72087e-14 2.32534e-14 3.06432e-14 1.02107e-14 4.84294e-14 5.86665e-14 4.88985e-13 3.07705e-12 2.12596e-11 1.39149e-10 8.64902e-10 5.06518e-09 2.78621e-08 1.43517e-07 6.89957e-07 3.08401e-06 1.27606e-05 4.86222e-05 0.000169568 0.000537345 0.00153457 0.00391588 0.00886468 0.0177477 0.0315409 0.05033 0.0733646 0.0995813 0.128084 0.158308 0.189957 0.2229 0.257097 0.292551 0.329299 0.367394 0.406909 0.447925 0.490538 0.53485 0.580969 0.628995 0.679003 0.730994 0.784778 0.839686 0.893722 0.941056 0.965009 0.955585 0.946069 0.93771 0.9325 0.929902 0.928712 0.92808 0.927683 0.927432 0.927261 0.927232 0.927205 0.927178 0.927153 0.927127 0.927102 0.927078 0.927053 0.927028 0.927004 0.926979 0.926955 0.92693 0.926906 0.926881 0.926857 0.926832 0.926807 0.926782 0.926756 0.926729 0.9267 0.926672 0.926636 0.926606 0.926562 0.926529 0.92647 0.926438 0.926352 0.926327 0.926189 0.926178 0.925924 0.925928 0.925387 0.925421 0.924061 0.92418 0.920462 0.920837 0.910752 0.911911 0.88683 0.890174 0.837006 0.841711 0.747917 0.715562 0.594805 0.494421 0.364394 0.244319 0.141954 0.0707863 0.0306625 0.0120744 0.00452473 0.00165848 0.000601853 0.000217208 7.80578e-05 2.79335e-05 9.94955e-06 3.52511e-06 1.24143e-06 4.34248e-07 1.50766e-07 5.19181e-08 1.77214e-08 5.99199e-09 2.0057e-09 6.64247e-10 2.1771e-10 7.0494e-11 2.1976e-11 6.89297e-12 1.94652e-12 6.02477e-13 1.50605e-13 -1.09115e-13 -1.20824e-13 1.83905e-13 -9.06586e-14 9.03347e-14 2.16535e-14 1.61192e-15 -1.1335e-14 -1.31207e-13 9.16094e-15 2.19999e-13 -9.8239e-15 1.94366e-15 7.8802e-14 -2.09304e-13 2.31472e-14 -1.137e-13 -2.85018e-14 -3.77999e-14 0
				</DataArray>
				<DataArray Name="VitesseY" type="Float32" format="ascii">