<?xml version="1.0"?>
<VTKFile type="PolyData">
	<PolyData>
		<Piece NumberOfPoints="1206" NumberOfPolys="1000">
			<Points>
				<DataArray type="Float32" NumberOfComponents="3" format="ascii">
 0 0 0 0.005 0 0 0.01 0 0 0.015 0 0 0.02 0 0 0.025 0 0 0.03 0 0 0.035 0 0 0.04 0 0 0.045 0 0 0.05 0 0 0.055 0 0 0.06 0 0 0.065 0 0 0.07 0 0 0.075 0 0 0.08 0 0 0.085 0 0 0.09 0 0 0.095 0 0 0.1 0 0 0.105 0 0 0.11 0 0 0.115 0 0 0.12 0 0 0.125 0 0 0.13 0 0 0.135 0 0 0.14 0 0 0.145 0 0 0.15 0 0 0.155 0 0 0.16 0 0 0.165 0 0 0.17 0 0 0.175 0 0 0.18 0 0 0.185 0 0 0.19 0 0 0.195 0 0 0.2 0 0 0.205 0 0 0.21 0 0 0.215 0 0 0.22 0 0 0.225 0 0 0.23 0 0 0.235 0 0 0.24 0 0 0.245 0 0 0.25 0 0 0.255 0 0 0.26 0 0 0.265 0 0 0.27 0 0 0.275001 0 0 0.280002 0 0 0.285007 0 0 0.290018 0 0 0.295043 0 0 0.300095 0 0 0.30519 0 0 0.310347 0 0 0.315585 0 0 0.320918 0 0 0.32636 0 0 0.331922 0 0 0.337612 0 0 0.34344 0 0 0.349415 0 0 0.355546 0 0 0.361843 0 0 0.368318 0 0 0.374982 0 0 0.381849 0 0 0.388932 0 0 0.396248 0 0 0.403813 0 0 0.411649 0 0 0.419775 0 0 0.428217 0 0 0.437002 0 0 0.44616 0 0 0.455724 0 0 0.465732 0 0 0.476221 0 0 0.487222 0 0 0.498746 0 0 0.510727 0 0 0.522899 0 0 0.534984 0 0 0.546967 0 0 0.558851 0 0 0.570664 0 0 0.582435 0 0 0.594185 0 0 0.605926 0 0 0.617664 0 0 0.629401 0 0 0.641141 0 0 0.652893 0 0 0.655506 0 0 0.658045 0 0 0.660538 0 0 0.662999 0 0 0.665437 0 0 0.667859 0 0 0.670268 0 0 0.672666 0 0 0.675058 0 0 0.677446 0 0 0.679827 0 0 0.682204 0 0 0.684576 0 0 0.686945 0 0 0.689312 0 0 0.691677 0 0 0.69404 0 0 0.696402 0 0 0.698762 0 0 0.701121 0 0 0.70348 0 0 0.705838 0 0 0.708195 0 0 0.710552 0 0 0.712909 0 0 0.715265 0 0 0.717621 0 0 0.719977 0 0 0.722332 0 0 0.724688 0 0 0.727044 0 0 0.7294 0 0 0.731756 0 0 0.734111 0 0 0.736466 0 0 0.738821 0 0 0.741177 0 0 0.743532 0 0 0.745888 0 0 0.748243 0 0 0.750597 0 0 0.752951 0 0 0.755306 0 0 0.757665 0 0 0.760027 0 0 0.762387 0 0 0.764745 0 0 0.767101 0 0 0.769451 0 0 0.77181 0 0 0.77419 0 0 0.776614 0 0 0.779084 0 0 0.781649 0 0 0.784317 0 0 0.787166 0 0 0.790227 0 0 0.793579 0 0 0.797258 0 0 0.801292 0 0 0.805659 0 0 0.810299 0 0 0.815123 0 0 0.820047 0 0 0.825017 0 0 0.830006 0 0 0.835002 0 0 0.840001 0 0 0.845 0 0 0.85 0 0 0.855 0 0 0.86 0 0 0.865 0 0 0.87 0 0 0.875 0 0 0.88 0 0 0.885 0 0 0.89 0 0 0.895 0 0 0.9 0 0 0.905 0 0 0.91 0 0 0.915 0 0 0.92 0 0 0.925 0 0 0.93 0 0 0.935 0 0 0.94 0 0 0.945 0 0 0.95 0 0 0.955 0 0 0.96 0 0 0.965 0 0 0.97 0 0 0.975 0 0 0.98 0 0 0.985 0 0 0.99 0 0 0.995 0 0 1 0 0 0 0.02 0 0.005 0.02 0 0.01 0.02 0 0.015 0.02 0 0.02 0.02 0 0.025 0.02 0 0.03 0.02 0 0.035 0.02 0 0.04 0.02 0 0.045 0.02 0 0.05 0.02 0 0.055 0.02 0 0.06 0.02 0 0.065 0.02 0 0.07 0.02 0 0.075 0.02 0 0.08 0.02 0 0.085 0.02 0 0.09 0.02 0 0.095 0.02 0 0.1 0.02 0 0.105 0.02 0 0.11 0.02 0 0.115 0.02 0 0.12 0.02 0 0.125 0.02 0 0.13 0.02 0 0.135 0.02 0 0.14 0.02 0 0.145 0.02 0 0.15 0.02 0 0.155 0.02 0 0.16 0.02 0 0.165 0.02 0 0.17 0.02 0 0.175 0.02 0 0.18 0.02 0 0.185 0.02 0 0.19 0.02 0 0.195 0.02 0 0.2 0.02 0 0.205 0.02 0 0.21 0.02 0 0.215 0.02 0 0.22 0.02 0 0.225 0.02 0 0.23 0.02 0 0.235 0.02 0 0.24 0.02 0 0.245 0.02 0 0.25 0.02 0 0.255 0.02 0 0.26 0.02 0 0.265 0.02 0 0.27 0.02 0 0.275001 0.02 0 0.280002 0.02 0 0.285007 0.02 0 0.290018 0.02 0 0.295043 0.02 0 0.300095 0.02 0 0.30519 0.02 0 0.310347 0.02 0 0.315585 0.02 0 0.320918 0.02 0 0.32636 0.02 0 0.331922 0.02 0 0.337612 0.02 0 0.34344 0.02 0 0.349415 0.02 0 0.355546 0.02 0 0.361843 0.02 0 0.368318 0.02 0 0.374982 0.02 0 0.381849 0.02 0 0.388932 0.02 0 0.396248 0.02 0 0.403813 0.02 0 0.411649 0.02 0 0.419775 0.02 0 0.428217 0.02 0 0.437002 0.02 0 0.44616 0.02 0 0.455724 0.02 0 0.465732 0.02 0 0.476221 0.02 0 0.487222 0.02 0 0.498746 0.02 0 0.510727 0.02 0 0.522899 0.02 0 0.534984 0.02 0 0.546967 0.02 0 0.558851 0.02 0 0.570664 0.02 0 0.582435 0.02 0 0.594185 0.02 0 0.605926 0.02 0 0.617664 0.02 0 0.629401 0.02 0 0.641141 0.02 0 0.652893 0.02 0 0.655506 0.02 0 0.658045 0.02 0 0.660538 0.02 0 0.662999 0.02 0 0.665437 0.02 0 0.667859 0.02 0 0.670268 0.02 0 0.672666 0.02 0 0.675058 0.02 0 0.677446 0.02 0 0.679827 0.02 0 0.682204 0.02 0 0.684576 0.02 0 0.686945 0.02 0 0.689312 0.02 0 0.691677 0.02 0 0.69404 0.02 0 0.696402 0.02 0 0.698762 0.02 0 0.701121 0.02 0 0.70348 0.02 0 0.705838 0.02 0 0.708195 0.02 0 0.710552 0.02 0 0.712909 0.02 0 0.715265 0.02 0 0.717621 0.02 0 0.719977 0.02 0 0.722332 0.02 0 0.724688 0.02 0 0.727044 0.02 0 0.7294 0.02 0 0.731756 0.02 0 0.734111 0.02 0 0.736466 0.02 0 0.738821 0.02 0 0.741177 0.02 0 0.743532 0.02 0 0.745888 0.02 0 0.748243 0.02 0 0.750597 0.02 0 0.752951 0.02 0 0.755306 0.02 0 0.757665 0.02 0 0.760027 0.02 0 0.762387 0.02 0 0.764745 0.02 0 0.767101 0.02 0 0.769451 0.02 0 0.77181 0.02 0 0.77419 0.02 0 0.776614 0.02 0 0.779084 0.02 0 0.781649 0.02 0 0.784317 0.02 0 0.787166 0.02 0 0.790227 0.02 0 0.793579 0.02 0 0.797258 0.02 0 0.801292 0.02 0 0.805659 0.02 0 0.810299 0.02 0 0.815123 0.02 0 0.820047 0.02 0 0.825017 0.02 0 0.830006 0.02 0 0.835002 0.02 0 0.840001 0.02 0 0.845 0.02 0 0.85 0.02 0 0.855 0.02 0 0.86 0.02 0 0.865 0.02 0 0.87 0.02 0 0.875 0.02 0 0.88 0.02 0 0.885 0.02 0 0.89 0.02 0 0.895 0.02 0 0.9 0.02 0 0.905 0.02 0 0.91 0.02 0 0.915 0.02 0 0.92 0.02 0 0.925 0.02 0 0.93 0.02 0 0.935 0.02 0 0.94 0.02 0 0.945 0.02 0 0.95 0.02 0 0.955 0.02 0 0.96 0.02 0 0.965 0.02 0 0.97 0.02 0 0.975 0.02 0 0.98 0.02 0 0.985 0.02 0 0.99 0.02 0 0.995 0.02 0 1 0.02 0 0 0.04 0 0.005 0.04 0 0.01 0.04 0 0.015 0.04 0 0.02 0.04 0 0.025 0.04 0 0.03 0.04 0 0.035 0.04 0 0.04 0.04 0 0.045 0.04 0 0.05 0.04 0 0.055 0.04 0 0.06 0.04 0 0.065 0.04 0 0.07 0.04 0 0.075 0.04 0 0.08 0.04 0 0.085 0.04 0 0.09 0.04 0 0.095 0.04 0 0.1 0.04 0 0.105 0.04 0 0.11 0.04 0 0.115 0.04 0 0.12 0.04 0 0.125 0.04 0 0.13 0.04 0 0.135 0.04 0 0.14 0.04 0 0.145 0.04 0 0.15 0.04 0 0.155 0.04 0 0.16 0.04 0 0.165 0.04 0 0.17 0.04 0 0.175 0.04 0 0.18 0.04 0 0.185 0.04 0 0.19 0.04 0 0.195 0.04 0 0.2 0.04 0 0.205 0.04 0 0.21 0.04 0 0.215 0.04 0 0.22 0.04 0 0.225 0.04 0 0.23 0.04 0 0.235 0.04 0 0.24 0.04 0 0.245 0.04 0 0.25 0.04 0 0.255 0.04 0 0.26 0.04 0 0.265 0.04 0 0.27 0.04 0 0.275001 0.04 0 0.280002 0.04 0 0.285007 0.04 0 0.290018 0.04 0 0.295043 0.04 0 0.300095 0.04 0 0.30519 0.04 0 0.310347 0.04 0 0.315585 0.04 0 0.320918 0.04 0 0.32636 0.04 0 0.331922 0.04 0 0.337612 0.04 0 0.34344 0.04 0 0.349415 0.04 0 0.355546 0.04 0 0.361843 0.04 0 0.368318 0.04 0 0.374982 0.04 0 0.381849 0.04 0 0.388932 0.04 0 0.396248 0.04 0 0.403813 0.04 0 0.411649 0.04 0 0.419775 0.04 0 0.428217 0.04 0 0.437002 0.04 0 0.44616 0.04 0 0.455724 0.04 0 0.465732 0.04 0 0.476221 0.04 0 0.487222 0.04 0 0.498746 0.04 0 0.510727 0.04 0 0.522899 0.04 0 0.534984 0.04 0 0.546967 0.04 0 0.558851 0.04 0 0.570664 0.04 0 0.582435 0.04 0 0.594185 0.04 0 0.605926 0.04 0 0.617664 0.04 0 0.629401 0.04 0 0.641141 0.04 0 0.652893 0.04 0 0.655506 0.04 0 0.658045 0.04 0 0.660538 0.04 0 0.662999 0.04 0 0.665437 0.04 0 0.667859 0.04 0 0.670268 0.04 0 0.672666 0.04 0 0.675058 0.04 0 0.677446 0.04 0 0.679827 0.04 0 0.682204 0.04 0 0.684576 0.04 0 0.686945 0.04 0 0.689312 0.04 0 0.691677 0.04 0 0.69404 0.04 0 0.696402 0.04 0 0.698762 0.04 0 0.701121 0.04 0 0.70348 0.04 0 0.705838 0.04 0 0.708195 0.04 0 0.710552 0.04 0 0.712909 0.04 0 0.715265 0.04 0 0.717621 0.04 0 0.719977 0.04 0 0.722332 0.04 0 0.724688 0.04 0 0.727044 0.04 0 0.7294 0.04 0 0.731756 0.04 0 0.734111 0.04 0 0.736466 0.04 0 0.738821 0.04 0 0.741177 0.04 0 0.743532 0.04 0 0.745888 0.04 0 0.748243 0.04 0 0.750597 0.04 0 0.752951 0.04 0 0.755306 0.04 0 0.757665 0.04 0 0.760027 0.04 0 0.762387 0.04 0 0.764745 0.04 0 0.767101 0.04 0 0.769451 0.04 0 0.77181 0.04 0 0.77419 0.04 0 0.776614 0.04 0 0.779084 0.04 0 0.781649 0.04 0 0.784317 0.04 0 0.787166 0.04 0 0.790227 0.04 0 0.793579 0.04 0 0.797258 0.04 0 0.801292 0.04 0 0.805659 0.04 0 0.810299 0.04 0 0.815123 0.04 0 0.820047 0.04 0 0.825017 0.04 0 0.830006 0.04 0 0.835002 0.04 0 0.840001 0.04 0 0.845 0.04 0 0.85 0.04 0 0.855 0.04 0 0.86 0.04 0 0.865 0.04 0 0.87 0.04 0 0.875 0.04 0 0.88 0.04 0 0.885 0.04 0 0.89 0.04 0 0.895 0.04 0 0.9 0.04 0 0.905 0.04 0 0.91 0.04 0 0.915 0.04 0 0.92 0.04 0 0.925 0.04 0 0.93 0.04 0 0.935 0.04 0 0.94 0.04 0 0.945 0.04 0 0.95 0.04 0 0.955 0.04 0 0.96 0.04 0 0.965 0.04 0 0.97 0.04 0 0.975 0.04 0 0.98 0.04 0 0.985 0.04 0 0.99 0.04 0 0.995 0.04 0 1 0.04 0 0 0.06 0 0.005 0.06 0 0.01 0.06 0 0.015 0.06 0 0.02 0.06 0 0.025 0.06 0 0.03 0.06 0 0.035 0.06 0 0.04 0.06 0 0.045 0.06 0 0.05 0.06 0 0.055 0.06 0 0.06 0.06 0 0.065 0.06 0 0.07 0.06 0 0.075 0.06 0 0.08 0.06 0 0.085 0.06 0 0.09 0.06 0 0.095 0.06 0 0.1 0.06 0 0.105 0.06 0 0.11 0.06 0 0.115 0.06 0 0.12 0.06 0 0.125 0.06 0 0.13 0.06 0 0.135 0.06 0 0.14 0.06 0 0.145 0.06 0 0.15 0.06 0 0.155 0.06 0 0.16 0.06 0 0.165 0.06 0 0.17 0.06 0 0.175 0.06 0 0.18 0.06 0 0.185 0.06 0 0.19 0.06 0 0.195 0.06 0 0.2 0.06 0 0.205 0.06 0 0.21 0.06 0 0.215 0.06 0 0.22 0.06 0 0.225 0.06 0 0.23 0.06 0 0.235 0.06 0 0.24 0.06 0 0.245 0.06 0 0.25 0.06 0 0.255 0.06 0 0.26 0.06 0 0.265 0.06 0 0.27 0.06 0 0.275001 0.06 0 0.280002 0.06 0 0.285007 0.06 0 0.290018 0.06 0 0.295043 0.06 0 0.300095 0.06 0 0.30519 0.06 0 0.310347 0.06 0 0.315585 0.06 0 0.320918 0.06 0 0.32636 0.06 0 0.331922 0.06 0 0.337612 0.06 0 0.34344 0.06 0 0.349415 0.06 0 0.355546 0.06 0 0.361843 0.06 0 0.368318 0.06 0 0.374982 0.06 0 0.381849 0.06 0 0.388932 0.06 0 0.396248 0.06 0 0.403813 0.06 0 0.411649 0.06 0 0.419775 0.06 0 0.428217 0.06 0 0.437002 0.06 0 0.44616 0.06 0 0.455724 0.06 0 0.465732 0.06 0 0.476221 0.06 0 0.487222 0.06 0 0.498746 0.06 0 0.510727 0.06 0 0.522899 0.06 0 0.534984 0.06 0 0.546967 0.06 0 0.558851 0.06 0 0.570664 0.06 0 0.582435 0.06 0 0.594185 0.06 0 0.605926 0.06 0 0.617664 0.06 0 0.629401 0.06 0 0.641141 0.06 0 0.652893 0.06 0 0.655506 0.06 0 0.658045 0.06 0 0.660538 0.06 0 0.662999 0.06 0 0.665437 0.06 0 0.667859 0.06 0 0.670268 0.06 0 0.672666 0.06 0 0.675058 0.06 0 0.677446 0.06 0 0.679827 0.06 0 0.682204 0.06 0 0.684576 0.06 0 0.686945 0.06 0 0.689312 0.06 0 0.691677 0.06 0 0.69404 0.06 0 0.696402 0.06 0 0.698762 0.06 0 0.701121 0.06 0
[...]
			<PointData Scalars="VitesseX">
				<DataArray Name="VitesseX" type="Float32" format="ascii">
 0 1.48986e-15 -4.61472e-16 -1.87164e-15 -1.28696e-15 -2.83886e-15 3.40869e-16 -5.07386e-15 -6.23919e-15 3.5617e-15 9.99931e-16 -3.6513e-15 -5.61036e-15 1.15837e-14 -8.22177e-15 3.85655e-15 3.83827e-15 -4.7497e-15 3.78762e-15 -1.62065e-16 1.13252e-14 -1.32626e-15 2.01157e-14 8.7696e-15 4.55836e-15 -8.14345e-15 -9.57146e-15 1.69531e-14 3.49337e-15 8.1431e-15 -1.71548e-14 2.88846e-14 -1.41304e-14 1.29158e-14 -1.7838e-14 2.30228e-14 2.42652e-14 1.30624e-14 2.17683e-14 2.18714e-14 5.0208e-15 1.05879e-13 2.15025e-13 1.65737e-12 1.03201e-11 6.38914e-11 3.76135e-10 2.09654e-09 1.10425e-08 5.48254e-08 2.55901e-07 1.11945e-06 4.57362e-06 1.73806e-05 6.11437e-05 0.000198008 0.000586436 0.00157684 0.00382081 0.0082927 0.016082 0.0279594 0.0440079 0.0636502 0.0860267 0.110373 0.136172 0.163137 0.191121 0.220062 0.249943 0.28077 0.312567 0.34537 0.379223 0.414179 0.4503 0.487653 0.526309 0.566346 0.60784 0.650859 0.695448 0.741595 0.789153 0.837649 0.885778 0.929952 0.960347 0.959098 0.95026 0.941623 0.935133 0.931105 0.92903 0.928083 0.927654 0.927437 0.9273 0.927183 0.9271 0.927129 0.927125 0.92712 0.927112 0.927101 0.927085 0.927068 0.927049 0.927032 0.927016 0.927003 0.92699 0.926978 0.92696 0.926939 0.926911 0.926881 0.926852 0.926834 0.926828 0.926847 0.926994 0.926975 0.92692 0.926846 0.926759 0.926721 0.926709 0.926852 0.927274 0.927055 0.926929 0.926781 0.92662 0.926542 0.926533 0.926741 0.926214 0.925918 0.925394 0.925012 0.924807 0.925549 0.928382 0.927632 0.925973 0.925606 0.922923 0.920564 0.92118 0.90716 0.90435 0.858444 0.849181 0.76918 0.72232 0.614793 0.512996 0.387423 0.266452 0.160111 0.0826647 0.0368398 0.0147664 0.00558876 0.00206205 0.000752881 0.000273615 9.9174e-05 3.58671e-05 1.29414e-05 4.6569e-06 1.67047e-06 5.97e-07 2.12451e-07 7.52379e-08 2.65e-08 9.27731e-09 3.22644e-09 1.11399e-09 3.81703e-10 1.2962e-10 4.36013e-11 1.45541e-11 4.81034e-12 1.49247e-12 5.22434e-13 1.2373e-13 5.69452e-14 7.38412e-14 7.91103e-14 -5.67436e-14 3.43823e-14 8.51219e-14 2.94706e-15 1.00335e-13 -3.83371e-14 8.98405e-14 3.83175e-14 0 0 -1.05104e-15 -1.2644e-15 -1.41958e-15 -2.6331e-15 2.22387e-16 -3.57535e-15 -1.03102e-15 -3.79313e-15 -3.99705e-15 5.57315e-15 -4.43722e-15 -9.42817e-16 -4.43289e-15 7.42393e-15 1.5499e-15 -1.72113e-16 7.2172e-15 -7.06282e-15 2.05221e-14 -4.32587e-15 9.13671e-15 -6.73772e-15 1.21554e-14 1.33039e-14 7.50764e-15 -1.47444e-15 4.28843e-15 -3.21527e-15 -1.40137e-15 1.36801e-14 -2.1898e-14 1.95275e-14 9.05711e-15 -4.30429e-15 2.90913e-14 -6.5558e-15 6.88349e-15 4.51095e-14 3.16445e-14 4.44805e-14 7.92027e-14 2.70792e-13 1.61332e-12 1.03022e-11 6.38728e-11 3.76091e-10 2.09659e-09 1.10425e-08 5.48254e-08 2.55901e-07 1.11945e-06 4.57362e-06 1.73806e-05 6.11437e-05 0.000198008 0.000586436 0.00157684 0.00382081 0.0082927 0.016082 0.0279594 0.0440079 0.0636502 0.0860267 0.110373 0.136172 0.163137 0.191121 0.220062 0.249943 0.28077 0.312567 0.34537 0.379223 0.414179 0.4503 0.487653 0.526309 0.566346 0.60784 0.650859 0.695448 0.741595 0.789153 0.837649 0.885778 0.929952 0.960347 0.959098 0.95026 0.941623 0.935133 0.931105 0.92903 0.928083 0.927654 0.927437 0.9273 0.927183 0.9271 0.927129 0.927125 0.92712 0.927112 0.927101 0.927085 0.927068 0.927049 0.927032 0.927016 0.927003 0.92699 0.926978 0.92696 0.926939 0.926911 0.926881 0.926852 0.926834 0.926828 0.926847 0.926994 0.926975 0.92692 0.926846 0.926759 0.926721 0.926709 0.926852 0.927274 0.927055 0.926929 0.926781 0.92662 0.926542 0.926533 0.926741 0.926214 0.925918 0.925394 0.925012 0.924807 0.925549 0.928382 0.927632 0.925973 0.925606 0.922923 0.920564 0.92118 0.90716 0.90435 0.858444 0.849181 0.76918 0.72232 0.614793 0.512996 0.387423 0.266452 0.160111 0.0826647 0.0368398 0.0147664 0.00558876 0.00206205 0.000752881 0.000273615 9.9174e-05 3.58671e-05 1.29414e-05 4.6569e-06 1.67047e-06 5.97e-07 2.12451e-07 7.52379e-08 2.65e-08 9.27745e-09 3.22637e-09 1.11402e-09 3.81639e-10 1.29672e-10 4.36331e-11 1.45962e-11 4.74404e-12 1.6813e-12 4.60317e-13 1.24757e-13 -2.09722e-14 3.89303e-14 3.82325e-14 6.93883e-15 -2.76786e-15 -1.69143e-14 1.13622e-13 -1.97457e-14 8.70114e-14 7.84154e-14 -2.68592e-14 0 0 -1.62872e-15 1.90525e-15 -2.4126e-15 -2.88318e-15 -1.28836e-15 -7.03858e-16 -2.69845e-15 -3.22098e-15 2.21015e-15 -1.24636e-15 6.69889e-15 -5.44221e-15 -2.64531e-15 1.13773e-14 -5.33945e-15 5.79135e-16 8.90275e-15 3.29565e-15 8.64359e-15 3.05291e-15 5.78416e-15 4.96528e-15 -1.67691e-15 1.51959e-14 1.32262e-14 2.00517e-15 -1.95209e-14 -8.85524e-15 1.66757e-15 1.85155e-14 -1.0949e-14 1.62731e-14 2.11949e-14 1.17019e-14 9.61928e-15 9.12255e-15 2.04389e-14 2.97171e-14 3.11411e-14 9.36877e-14 7.74027e-14 3.15648e-13 1.55118e-12 1.03311e-11 6.38042e-11 3.7612e-10 2.09657e-09 1.10425e-08 5.48254e-08 2.55901e-07 1.11945e-06 4.57362e-06 1.73806e-05 6.11437e-05 0.000198008 0.000586436 0.00157684 0.00382081 0.0082927 0.016082 0.0279594 0.0440079 0.0636502 0.0860267 0.110373 0.136172 0.163137 0.191121 0.220062 0.249943 0.28077 0.312567 0.34537 0.379223 0.414179 0.4503 0.487653 0.526309 0.566346 0.60784 0.650859 0.695448 0.741595 0.789153 0.837649 0.885778 0.929952 0.960347 0.959098 0.95026 0.941623 0.935133 0.931105 0.92903 0.928083 0.927654 0.927437 0.9273 0.927183 0.9271 0.927129 0.927125 0.92712 0.927112 0.927101 0.927085 0.927068 0.927049 0.927032 0.927016 0.927003 0.92699 0.926978 0.92696 0.926939 0.926911 0.926881 0.926852 0.926834 0.926828 0.926847 0.926994 0.926975 0.92692 0.926846 0.926759 0.926721 0.926709 0.926852 0.927274 0.927055 0.926929 0.926781 0.92662 0.926542 0.926533 0.926741 0.926214 0.925918 0.925394 0.925012 0.924807 0.925549 0.928382 0.927632 0.925973 0.925606 0.922923 0.920564 0.92118 0.90716 0.90435 0.858444 0.849181 0.76918 0.72232 0.614793 0.512996 0.387423 0.266452 0.160111 0.0826647 0.0368398 0.0147664 0.00558876 0.00206205 0.000752881 0.000273615 9.9174e-05 3.58671e-05 1.29414e-05 4.6569e-06 1.67047e-06 5.97e-07 2.12451e-07 7.5238e-08 2.65e-08 9.27742e-09 3.22646e-09 1.11402e-09 3.81667e-10 1.29697e-10 4.36359e-11 1.45568e-11 4.88619e-12 1.54191e-12 5.93726e-13 9.28851e-15 4.51844e-14 1.04027e-13 -8.02376e-14 9.68966e-15 -3.76713e-14 -8.91444e-15 2.8137e-14 7.98848e-14 9.20049e-14 -3.76446e-14 -9.31183e-14 0 0 -2.35354e-16 2.55295e-15 1.18316e-15 1.72039e-15 -5.00343e-16 4.95544e-15 -2.03638e-15 -4.17934e-15 5.25068e-15 -2.14294e-15 5.31888e-15 4.89198e-16 1.04616e-15 -5.81857e-16 7.68417e-15 2.26823e-15 4.40305e-15 9.05828e-15 -1.22418e-14 1.01664e-14 1.21113e-14 8.82447e-15 3.76737e-15 2.26029e-15 -7.36045e-15 -8.99569e-15 -1.64409e-14 1.36272e-14 -1.35005e-14 1.48078e-14 1.6452e-14 6.40132e-15 3.72951e-14 7.09613e-15 1.31299e-14 2.35917e-14 2.39838e-14 7.7815e-14 -1.41567e-14 1.15311e-13 1.30778e-13 2.69862e-13 1.5404e-12 1.03048e-11 6.3746e-11 3.76196e-10 2.09648e-09 1.10425e-08 5.48254e-08 2.55901e-07 1.11945e-06 4.57362e-06 1.73806e-05 6.11437e-05 0.000198008 0.000586436 0.00157684 0.00382081 0.0082927 0.016082 0.0279594 0.0440079 0.0636502 0.0860267 0.110373 0.136172 0.163137 0.191121 0.220062 0.249943 0.28077 0.312567 0.34537 0.379223 0.414179 0.4503 0.487653 0.526309 0.566346 0.60784 0.650859 0.695448 0.741595 0.789153 0.837649 0.885778 0.929952 0.960347 0.959098 0.95026 0.941623 0.935133 0.931105 0.92903 0.928083 0.927654 0.927437 0.9273 0.927183 0.9271 0.927129 0.927125 0.92712 0.927112 0.927101 0.927085 0.927068 0.927049 0.927032 0.927016 0.927003 0.92699 0.926978 0.92696 0.926939 0.926911 0.926881 0.926852 0.926834 0.926828 0.926847 0.926994 0.926975 0.92692 0.926846 0.926759 0.926721 0.926709 0.926852 0.927274 0.927055 0.926929 0.926781 0.92662 0.926542 0.926533 0.926741 0.926214 0.925918 0.925394 0.925012 0.924807 0.925549 0.928382 0.927632 0.925973 0.925606 0.922923 0.920564 0.92118 0.90716 0.90435 0.858444 0.849181 0.76918 0.72232 0.614793 0.512996 0.387423 0.266452 0.160111 0.0826647 0.0368398 0.0147664 0.00558876 0.00206205 0.000752881 0.000273615 9.9174e-05 3.58671e-05 1.29414e-05 4.6569e-06 1.67047e-06 5.97e-07 2.12451e-07 7.52379e-08 2.65e-08 9.27745e-09 3.22655e-09 1.11411e-09 3.81639e-10 1.29676e-10 4.35996e-11 1.45739e-11 5.00349e-12 1.41197e-12 4.78839e-13 1.98852e-13 2.39182e-13 1.08972e-13 -1.3475e-13 -2.24863e-14 4.91478e-14 -1.21246e-13 -3.00776e-15 1.13838e-13 1.49265e-13 -1.78178e-13 -9.18675e-14 0 0 -7.73742e-16 1.44749e-16 3.47073e-15 1.15322e-14 1.0527e-14 1.01651e-14 -2.39824e-15 4.12754e-15 -3.75812e-15 4.95939e-15 -4.78803e-15 9.28122e-16 -7.20095e-15 -4.37828e-15 1.82001e-14 -1.03878e-15 6.78852e-15 -6.65552e-15 -5.19168e-15 6.50917e-15 1.07228e-14 -1.23454e-14 1.09315e-14 8.46766e-15 -1.38639e-15 -1.14972e-16 1.47868e-14 6.0388e-15 -1.82253e-14 1.50205e-14 -6.22072e-15 1.65979e-14 1.50864e-14 1.0994e-14 3.20023e-14 2.62506e-14 2.17982e-14 1.08502e-13 2.81805e-14 2.0277e-14 1.42188e-13 2.47245e-13 1.59432e-12 1.02591e-11 6.37904e-11 3.76172e-10 2.09641e-09 1.10425e-08 5.48253e-08 2.55901e-07 1.11945e-06 4.57362e-06 1.73806e-05 6.11437e-05 0.000198008 0.000586436 0.00157684 0.00382081 0.0082927 0.016082 0.0279594 0.0440079 0.0636502 0.0860267 0.110373 0.136172 0.163137 0.191121 0.220062 0.249943 0.28077 0.312567 0.34537 0.379223 0.414179 0.4503 0.487653 0.526309 0.566346 0.60784 0.650859 0.695448 0.741595 0.789153 0.837649 0.885778 0.929952 0.960347 0.959098 0.95026 0.941623 0.935133 0.931105 0.92903 0.928083 0.927654 0.927437 0.9273 0.927183 0.9271 0.927129 0.927125 0.92712 0.927112 0.927101 0.927085 0.927068 0.927049 0.927032 0.927016 0.927003 0.92699 0.926978 0.92696 0.926939 0.926911 0.926881 0.926852 0.926834 0.926828 0.926847 0.926994 0.926975 0.92692 0.926846 0.926759 0.926721 0.926709 0.926852 0.927274 0.927055 0.926929 0.926781 0.92662 0.926542 0.926533 0.926741 0.926214 0.925918 0.925394 0.925012 0.924807 0.925549 0.928382 0.927632 0.925973 0.925606 0.922923 0.920564 0.92118 0.90716 0.90435 0.858444 0.849181 0.76918 0.72232 0.614793 0.512996 0.387423 0.266452 0.160111 0.0826647 0.0368398 0.0147664 0.00558876 0.00206205 0.000752881 0.000273615 9.9174e-05 3.58671e-05 1.29414e-05 4.6569e-06 1.67047e-06 5.97e-07 2.12451e-07 7.52381e-08 2.64999e-08 9.27757e-09 3.22647e-09 1.11401e-09 3.81721e-10 1.2966e-10 4.38242e-11 1.45447e-11 4.89011e-12 1.91704e-12 1.72255e-13 2.27682e-13 2.04915e-13 1.31492e-13 9.2483e-14 -1.84904e-13 -1.44104e-13 6.79965e-14 2.78185e-14 2.1727e-15 9.1897e-14 -2.3026e-14 3.1956e-14 0 0 -7.42278e-16 1.06142e-15 7.17452e-16 1.78364e-14 1.61943e-14 1.65031e-14 -9.13245e-15 1.15189e-14 -2.0415e-15 1.56556e-15 -1.59292e-15 -1.37313e-14 -1.33535e-15 -7.9079e-15 1.11098e-14 -1.27326e-15 3.39235e-15 -6.92305e-15 -9.81889e-15 1.87682e-14 -1.08083e-14 1.18195e-15 -4.56658e-15 2.07572e-14 1.52417e-14 1.51492e-14 3.17898e-14 -2.29633e-14 4.83142e-15 -7.0589e-15 5.43731e-15 -2.46033e-16 -7.22597e-15 2.19702e-14 2.18235e-14 6.09399e-14 3.58022e-14 5.23566e-14 1.05539e-13 -8.66334e-14 1.251e-13 2.59502e-13 1.64096e-12 1.02865e-11 6.38427e-11 3.76145e-10 2.09636e-09 1.10425e-08 5.48253e-08 2.55901e-07 1.11945e-06 4.57362e-06 1.73806e-05 6.11437e-05 0.000198008 0.000586436 0.00157684 0.00382081 0.0082927 0.016082 0.0279594 0.0440079 0.0636502 0.0860267 0.110373 0.136172 0.163137 0.191121 0.220062 0.249943 0.28077 0.312567 0.34537 0.379223 0.414179 0.4503 0.487653 0.526309 0.566346 0.60784 0.650859 0.695448 0.741595 0.789153 0.837649 0.885778 0.929952 0.960347 0.959098 0.95026 0.941623 0.935133 0.931105 0.92903 0.928083 0.927654 0.927437 0.9273 0.927183 0.9271 0.927129 0.927125 0.92712 0.927112 0.927101 0.927085 0.927068 0.927049 0.927032 0.927016 0.927003 0.92699 0.926978 0.92696 0.926939 0.926911 0.926881 0.926852 0.926834 0.926828 0.926847 0.926994 0.926975 0.92692 0.926846 0.926759 0.926721 0.926709 0.926852 0.927274 0.927055 0.926929 0.926781 0.92662 0.926542 0.926533 0.926741 0.926214 0.925918 0.925394 0.925012 0.924807 0.925549 0.928382 0.927632 0.925973 0.925606 0.922923 0.920564 0.92118 0.90716 0.90435 0.858444 0.849181 0.76918 0.72232 0.614793 0.512996 0.387423 0.266452 0.160111 0.0826647 0.0368398 0.0147664 0.00558876 0.00206205 0.000752881 0.000273615 9.9174e-05 3.58671e-05 1.29414e-05 4.6569e-06 1.67047e-06 5.97e-07 2.12451e-07 7.52383e-08 2.64999e-08 9.2775e-09 3.22645e-09 1.11381e-09 3.81924e-10 1.29639e-10 4.40562e-11 1.44174e-11 4.86725e-12 2.22301e-12 1.75631e-13 -4.99097e-14 1.20303e-13 2.48791e-13 2.96529e-13 -3.76131e-13 -4.21768e-13 4.80051e-13 -1.06334e-13 7.57252e-14 -1.43291e-13 1.68195e-13 1.53582e-13 0
				</DataArray>
				<DataArray Name="VitesseY" type="Float32" format="ascii">