<?xml version="1.0"?>
<VTKFile type="PolyData">
	<PolyData>
		<Piece NumberOfPoints="1206" NumberOfPolys="1000">
			<Points>
				<DataArray type="Float32" NumberOfComponents="3" format="ascii">
 0 0 0 0.005 0 0 0.01 0 0 0.015 0 0 0.02 0 0 0.025 0 0 0.03 0 0 0.035 0 0 0.04 0 0 0.045 0 0 0.05 0 0 0.055 0 0 0.06 0 0 0.065 0 0 0.07 0 0 0.075 0 0 0.08 0 0 0.085 0 0 0.09 0 0 0.095 0 0 0.1 0 0 0.105 0 0 0.11 0 0 0.115 0 0 0.12 0 0 0.125 0 0 0.13 0 0 0.135 0 0 0.14 0 0 0.145 0 0 0.15 0 0 0.155 0 0 0.16 0 0 0.165 0 0 0.17 0 0 0.175 0 0 0.18 0 0 0.185 0 0 0.19 0 0 0.195 0 0 0.2 0 0 0.205 0 0 0.21 0 0 0.215 0 0 0.22 0 0 0.225 0 0 0.23 0 0 0.235 0 0 0.24 0 0 0.245 0 0 0.25 0 0 0.255 0 0 0.26 0 0 0.265 0 0 0.27 0 0 0.275 0 0 0.28 0 0 0.285 0 0 0.29 0 0 0.295 0 0 0.3 0 0 0.305 0 0 0.31 0 0 0.315 0 0 0.32 0 0 0.325 0 0 0.33 0 0 0.335 0 0 0.34 0 0 0.345 0 0 0.35 0 0 0.355 0 0 0.36 0 0 0.365 0 0 0.37 0 0 0.375 0 0 0.38 0 0 0.385 0 0 0.39 0 0 0.395 0 0 0.4 0 0 0.405 0 0 0.41 0 0 0.415 0 0 0.42 0 0 0.425 0 0 0.43 0 0 0.435 0 0 0.44 0 0 0.445 0 0 0.45 0 0 0.455 0 0 0.46 0 0 0.465004 0 0 0.470029 0 0 0.475169 0 0 0.48068 0 0 0.48703 0 0 0.494922 0 0 0.505463 0 0 0.518577 0 0 0.521239 0 0 0.523745 0 0 0.526226 0 0 0.528777 0 0 0.531489 0 0 0.534458 0 0 0.537779 0 0 0.541518 0 0 0.545694 0 0 0.550252 0 0 0.555071 0 0 0.560016 0 0 0.565003 0 0 0.570001 0 0 0.575 0 0 0.58 0 0 0.585 0 0 0.59 0 0 0.595 0 0 0.6 0 0 0.605 0 0 0.61 0 0 0.615 0 0 0.62 0 0 0.625 0 0 0.63 0 0 0.635 0 0 0.64 0 0 0.645 0 0 0.65 0 0 0.655 0 0 0.66 0 0 0.665 0 0 0.67 0 0 0.675 0 0 0.68 0 0 0.685 0 0 0.69 0 0 0.695 0 0 0.7 0 0 0.705 0 0 0.71 0 0 0.715 0 0 0.72 0 0 0.725 0 0 0.73 0 0 0.735 0 0 0.74 0 0 0.745 0 0 0.75 0 0 0.755 0 0 0.76 0 0 0.765 0 0 0.77 0 0 0.775 0 0 0.78 0 0 0.785 0 0 0.79 0 0 0.795 0 0 0.8 0 0 0.805 0 0 0.81 0 0 0.815 0 0 0.82 0 0 0.825 0 0 0.83 0 0 0.835 0 0 0.84 0 0 0.845 0 0 0.85 0 0 0.855 0 0 0.86 0 0 0.865 0 0 0.87 0 0 0.875 0 0 0.88 0 0 0.885 0 0 0.89 0 0 0.895 0 0 0.9 0 0 0.905 0 0 0.91 0 0 0.915 0 0 0.92 0 0 0.925 0 0 0.93 0 0 0.935 0 0 0.94 0 0 0.945 0 0 0.95 0 0 0.955 0 0 0.96 0 0 0.965 0 0 0.97 0 0 0.975 0 0 0.98 0 0 0.985 0 0 0.99 0 0 0.995 0 0 1 0 0 0 0.02 0 0.005 0.02 0 0.01 0.02 0 0.015 0.02 0 0.02 0.02 0 0.025 0.02 0 0.03 0.02 0 0.035 0.02 0 0.04 0.02 0 0.045 0.02 0 0.05 0.02 0 0.055 0.02 0 0.06 0.02 0 0.065 0.02 0 0.07 0.02 0 0.075 0.02 0 0.08 0.02 0 0.085 0.02 0 0.09 0.02 0 0.095 0.02 0 0.1 0.02 0 0.105 0.02 0 0.11 0.02 0 0.115 0.02 0 0.12 0.02 0 0.125 0.02 0 0.13 0.02 0 0.135 0.02 0 0.14 0.02 0 0.145 0.02 0 0.15 0.02 0 0.155 0.02 0 0.16 0.02 0 0.165 0.02 0 0.17 0.02 0 0.175 0.02 0 0.18 0.02 0 0.185 0.02 0 0.19 0.02 0 0.195 0.02 0 0.2 0.02 0 0.205 0.02 0 0.21 0.02 0 0.215 0.02 0 0.22 0.02 0 0.225 0.02 0 0.23 0.02 0 0.235 0.02 0 0.24 0.02 0 0.245 0.02 0 0.25 0.02 0 0.255 0.02 0 0.26 0.02 0 0.265 0.02 0 0.27 0.02 0 0.275 0.02 0 0.28 0.02 0 0.285 0.02 0 0.29 0.02 0 0.295 0.02 0 0.3 0.02 0 0.305 0.02 0 0.31 0.02 0 0.315 0.02 0 0.32 0.02 0 0.325 0.02 0 0.33 0.02 0 0.335 0.02 0 0.34 0.02 0 0.345 0.02 0 0.35 0.02 0 0.355 0.02 0 0.36 0.02 0 0.365 0.02 0 0.37 0.02 0 0.375 0.02 0 0.38 0.02 0 0.385 0.02 0 0.39 0.02 0 0.395 0.02 0 0.4 0.02 0 0.405 0.02 0 0.41 0.02 0 0.415 0.02 0 0.42 0.02 0 0.425 0.02 0 0.43 0.02 0 0.435 0.02 0 0.44 0.02 0 0.445 0.02 0 0.45 0.02 0 0.455 0.02 0 0.46 0.02 0 0.465004 0.02 0 0.470029 0.02 0 0.475169 0.02 0 0.48068 0.02 0 0.48703 0.02 0 0.494922 0.02 0 0.505463 0.02 0 0.518577 0.02 0 0.521239 0.02 0 0.523745 0.02 0 0.526226 0.02 0 0.528777 0.02 0 0.531489 0.02 0 0.534458 0.02 0 0.537779 0.02 0 0.541518 0.02 0 0.545694 0.02 0 0.550252 0.02 0 0.555071 0.02 0 0.560016 0.02 0 0.565003 0.02 0 0.570001 0.02 0 0.575 0.02 0 0.58 0.02 0 0.585 0.02 0 0.59 0.02 0 0.595 0.02 0 0.6 0.02 0 0.605 0.02 0 0.61 0.02 0 0.615 0.02 0 0.62 0.02 0 0.625 0.02 0 0.63 0.02 0 0.635 0.02 0 0.64 0.02 0 0.645 0.02 0 0.65 0.02 0 0.655 0.02 0 0.66 0.02 0 0.665 0.02 0 0.67 0.02 0 0.675 0.02 0 0.68 0.02 0 0.685 0.02 0 0.69 0.02 0 0.695 0.02 0 0.7 0.02 0 0.705 0.02 0 0.71 0.02 0 0.715 0.02 0 0.72 0.02 0 0.725 0.02 0 0.73 0.02 0 0.735 0.02 0 0.74 0.02 0 0.745 0.02 0 0.75 0.02 0 0.755 0.02 0 0.76 0.02 0 0.765 0.02 0 0.77 0.02 0 0.775 0.02 0 0.78 0.02 0 0.785 0.02 0 0.79 0.02 0 0.795 0.02 0 0.8 0.02 0 0.805 0.02 0 0.81 0.02 0 0.815 0.02 0 0.82 0.02 0 0.825 0.02 0 0.83 0.02 0 0.835 0.02 0 0.84 0.02 0 0.845 0.02 0 0.85 0.02 0 0.855 0.02 0 0.86 0.02 0 0.865 0.02 0 0.87 0.02 0 0.875 0.02 0 0.88 0.02 0 0.885 0.02 0 0.89 0.02 0 0.895 0.02 0 0.9 0.02 0 0.905 0.02 0 0.91 0.02 0 0.915 0.02 0 0.92 0.02 0 0.925 0.02 0 0.93 0.02 0 0.935 0.02 0 0.94 0.02 0 0.945 0.02 0 0.95 0.02 0 0.955 0.02 0 0.96 0.02 0 0.965 0.02 0 0.97 0.02 0 0.975 0.02 0 0.98 0.02 0 0.985 0.02 0 0.99 0.02 0 0.995 0.02 0 1 0.02 0 0 0.04 0 0.005 0.04 0 0.01 0.04 0 0.015 0.04 0 0.02 0.04 0 0.025 0.04 0 0.03 0.04 0 0.035 0.04 0 0.04 0.04 0 0.045 0.04 0 0.05 0.04 0 0.055 0.04 0 0.06 0.04 0 0.065 0.04 0 0.07 0.04 0 0.075 0.04 0 0.08 0.04 0 0.085 0.04 0 0.09 0.04 0 0.095 0.04 0 0.1 0.04 0 0.105 0.04 0 0.11 0.04 0 0.115 0.04 0 0.12 0.04 0 0.125 0.04 0 0.13 0.04 0 0.135 0.04 0 0.14 0.04 0 0.145 0.04 0 0.15 0.04 0 0.155 0.04 0 0.16 0.04 0 0.165 0.04 0 0.17 0.04 0 0.175 0.04 0 0.18 0.04 0 0.185 0.04 0 0.19 0.04 0 0.195 0.04 0 0.2 0.04 0 0.205 0.04 0 0.21 0.04 0 0.215 0.04 0 0.22 0.04 0 0.225 0.04 0 0.23 0.04 0 0.235 0.04 0 0.24 0.04 0 0.245 0.04 0 0.25 0.04 0 0.255 0.04 0 0.26 0.04 0 0.265 0.04 0 0.27 0.04 0 0.275 0.04 0 0.28 0.04 0 0.285 0.04 0 0.29 0.04 0 0.295 0.04 0 0.3 0.04 0 0.305 0.04 0 0.31 0.04 0 0.315 0.04 0 0.32 0.04 0 0.325 0.04 0 0.33 0.04 0 0.335 0.04 0 0.34 0.04 0 0.345 0.04 0 0.35 0.04 0 0.355 0.04 0 0.36 0.04 0 0.365 0.04 0 0.37 0.04 0 0.375 0.04 0 0.38 0.04 0 0.385 0.04 0 0.39 0.04 0 0.395 0.04 0 0.4 0.04 0 0.405 0.04 0 0.41 0.04 0 0.415 0.04 0 0.42 0.04 0 0.425 0.04 0 0.43 0.04 0 0.435 0.04 0 0.44 0.04 0 0.445 0.04 0 0.45 0.04 0 0.455 0.04 0 0.46 0.04 0 0.465004 0.04 0 0.470029 0.04 0 0.475169 0.04 0 0.48068 0.04 0 0.48703 0.04 0 0.494922 0.04 0 0.505463 0.04 0 0.518577 0.04 0 0.521239 0.04 0 0.523745 0.04 0 0.526226 0.04 0 0.528777 0.04 0 0.531489 0.04 0 0.534458 0.04 0 0.537779 0.04 0 0.541518 0.04 0 0.545694 0.04 0 0.550252 0.04 0 0.555071 0.04 0 0.560016 0.04 0 0.565003 0.04 0 0.570001 0.04 0 0.575 0.04 0 0.58 0.04 0 0.585 0.04 0 0.59 0.04 0 0.595 0.04 0 0.6 0.04 0 0.605 0.04 0 0.61 0.04 0 0.615 0.04 0 0.62 0.04 0 0.625 0.04 0 0.63 0.04 0 0.635 0.04 0 0.64 0.04 0 0.645 0.04 0 0.65 0.04 0 0.655 0.04 0 0.66 0.04 0 0.665 0.04 0 0.67 0.04 0 0.675 0.04 0 0.68 0.04 0 0.685 0.04 0 0.69 0.04 0 0.695 0.04 0 0.7 0.04 0 0.705 0.04 0 0.71 0.04 0 0.715 0.04 0 0.72 0.04 0 0.725 0.04 0 0.73 0.04 0 0.735 0.04 0 0.74 0.04 0 0.745 0.04 0 0.75 0.04 0 0.755 0.04 0 0.76 0.04 0 0.765 0.04 0 0.77 0.04 0 0.775 0.04 0 0.78 0.04 0 0.785 0.04 0 0.79 0.04 0 0.795 0.04 0 0.8 0.04 0 0.805 0.04 0 0.81 0.04 0 0.815 0.04 0 0.82 0.04 0 0.825 0.04 0 0.83 0.04 0 0.835 0.04 0 0.84 0.04 0 0.845 0.04 0 0.85 0.04 0 0.855 0.04 0 0.86 0.04 0 0.865 0.04 0 0.87 0.04 0 0.875 0.04 0 0.88 0.04 0 0.885 0.04 0 0.89 0.04 0 0.895 0.04 0 0.9 0.04 0 0.905 0.04 0 0.91 0.04 0 0.915 0.04 0 0.92 0.04 0 0.925 0.04 0 0.93 0.04 0 0.935 0.04 0 0.94 0.04 0 0.945 0.04 0 0.95 0.04 0 0.955 0.04 0 0.96 0.04 0 0.965 0.04 0 0.97 0.04 0 0.975 0.04 0 0.98 0.04 0 0.985 0.04 0 0.99 0.04 0 0.995 0.04 0 1 0.04 0 0 0.06 0 0.005 0.06 0 0.01 0.06 0 0.015 0.06 0 0.02 0.06 0 0.025 0.06 0 0.03 0.06 0 0.035 0.06 0 0.04 0.06 0 0.045 0.06 0 0.05 0.06 0 0.055 0.06 0 0.06 0.06 0 0.065 0.06 0 0.07 0.06 0 0.075 0.06 0 0.08 0.06 0 0.085 0.06 0 0.09 0.06 0 0.095 0.06 0 0.1 0.06 0 0.105 0.06 0 0.11 0.06 0 0.115 0.06 0 0.12 0.06 0 0.125 0.06 0 0.13 0.06 0 0.135 0.06 0 0.14 0.06 0 0.145 0.06 0 0.15 0.06 0 0.155 0.06 0 0.16 0.06 0 0.165 0.06 0 0.17 0.06 0 0.175 0.06 0 0.18 0.06 0 0.185 0.06 0 0.19 0.06 0 0.195 0.06 0 0.2 0.06 0 0.205 0.06 0 0.21 0.06 0 0.215 0.06 0 0.22 0.06 0 0.225 0.06 0 0.23 0.06 0 0.235 0.06 0 0.24 0.06 0 0.245 0.06 0 0.25 0.06 0 0.255 0.06 0 0.26 0.06 0 0.265 0.06 0 0.27 0.06 0 0.275 0.06 0 0.28 0.06 0 0.285 0.06 0 0.29 0.06 0 0.295 0.06 0 0.3 0.06 0 0.305 0.06 0 0.31 0.06 0 0.315 0.06 0 0.32 0.06 0 0.325 0.06 0 0.33 0.06 0 0.335 0.06 0 0.34 0.06 0 0.345 0.06 0 0.35 0.06 0 0.355 0.06 0 0.36 0.06 0 0.365 0.06 0 0.37 0.06 0 0.375 0.06 0 0.38 0.06 0 0.385 0.06 0 0.39 0.06 0 0.395 0.06 0 0.4 0.06 0 0.405 0.06 0 0.41 0.06 0 0.415 0.06 0 0.42 0.06 0 0.425 0.06 0 0.43 0.06 0 0.435 0.06 0 0.44 0.06 0 0.445 0.06 0 0.45 0.06 0 0.455 0.06 0 0.46 0.06 0 0.465004 0.06 0 0.470029 0.06 0 0.475169 0.06 0 0.48068 0.06 0 0.48703 0.06 0 0.494922 0.06 0 0.505463 0.06 0 0.518577 0.06 0 0.521239 0.06 0 0.523745 0.06 0 0.526226 0.06 0 0.528777 0.06 0 0.531489 0.06 0 0.534458 0.06 0 0.537779 0.06 0 0.541518 0.06 0 0.545694 0.06 0 0.550252 0.06 0 0.555071 0.06 0 0.560016 0.06 0 0.565003 0.06 0 0.570001 0.06 0 0.575 0.06 0 0.58 0.06 0 0.585 0.06 0 0.59 0.06 0 0.595 0.06 0 0.6 0.06 0 0.605 0.06 0 0.61 0.06 0 0.615 0.06 0 0.62 0.06 0 0.625 0.06 0 0.63 0.06 0 0.635 0.06 0 0.64 0.06 0 0.645 0.06 0 0.65 0.06 0 0.655 0.06 0 0.66 0.06 0 0.665 0.06 0 0.67 0.06 0 0.675 0.06 0 0.68 0.06 0 0.685 0.06 0 0.69 0.06 0 0.695 0.06 0 0.7 0.06 0 0.705 0.06 0 0.71 0.06 0 0.715 0.06 0 0.72 0.06 0 0.725 0.06 0 0.73 0.06 0 0.735 0.06 0 0.74 0.06 0 0.745 0.06 0 0.75 0.06 0 0.755 0.06 0 0.76 0.06 0 0.765 0.06 0 0.77 0.06 0 0.775 0.06 0 0.78 0.06 0 0.785 0.06 0 0.79 0.06 0 0.795 0.06 0 0.8 0.06 0 0.805 0.06 0 0.81 0.06 0 0.815 0.06 0 0.82 0.06 0 0.825 0.06 0 0.83 0.06 0 0.835 0.06 0 0.84 0.06 0 0.845 0.06 0 0.85 0.06 0 0.855 0.06 0 0.86 0.06 0 0.865 0.06 0 0.87 0.06 0 0.875 0.06 0 0.88 0.06 0 0.885 0.06 0 0.89 0.06 0 0.895 0.06 0 0.9 0.06 0 0.905 0.06 0 0.91 0.06 0 0.915 0.06 0 0.92 0.06 0 0.925 0.06 0 0.93 0.06 0 0.935 0.06 0 0.94 0.06 0 0.945 0.06 0 0.95 0.06 0 0.955 0.06 0 0.96 0.06 0 0.965 0.06 0 0.97 0.06 0 0.975 0.06 0 0.98 0.06 0 0.985 0.06 0 0.99 0.06 0 0.995 0.06 0 1 0.06 0 0 0.08 0 0.005 0.08 0 0.01 0.08 0 0.015 0.08 0 0.02 0.08 0 0.025 0.08 0 0.03 0.08 0 0.035 0.08 0 0.04 0.08 0 0.045 0
[...]
			<PointData Scalars="VitesseX">
				<DataArray Name="VitesseX" type="Float32" format="ascii">
 0 -6.94433e-16 2.18229e-16 -1.69552e-15 1.47729e-15 5.57043e-17 -1.88938e-15 -1.75194e-15 4.29922e-15 -2.00598e-15 -8.40278e-16 3.50438e-15 -5.40788e-15 8.62157e-15 -3.97217e-15 -3.13622e-15 5.81225e-15 -3.36125e-15 3.58334e-15 -5.31806e-15 2.16893e-15 -5.28428e-15 5.34408e-15 3.34024e-15 -6.4849e-15 1.64518e-15 3.08027e-15 -7.35196e-15 7.39552e-15 -1.17544e-14 1.54133e-14 -1.00594e-14 2.69848e-15 -4.4332e-15 -1.58011e-14 1.83473e-14 -2.51947e-14 2.65614e-14 -1.41243e-14 1.80792e-14 -1.14869e-14 1.39527e-14 -9.93746e-15 -5.36558e-15 -3.01208e-15 1.68409e-14 -1.88517e-14 1.24713e-14 -2.54722e-16 6.20299e-15 -1.70781e-15 -1.91282e-14 3.84802e-14 -4.58725e-14 1.99845e-14 -1.99577e-14 -1.50581e-14 3.18516e-14 -4.33624e-14 1.45488e-14 -8.89044e-15 3.68737e-14 -3.10776e-14 -1.18118e-14 1.31412e-14 -5.76012e-16 2.59717e-14 -2.60849e-14 -2.42209e-14 1.02273e-14 1.98557e-14 -4.65595e-14 3.69318e-14 -7.57419e-15 2.29901e-14 -1.26962e-14 -8.72048e-15 3.14451e-15 -2.49473e-14 -2.37417e-14 -3.87578e-14 -2.25514e-14 5.20977e-14 -2.79963e-14 1.38266e-14 6.44062e-14 1.63631e-12 5.78501e-11 1.78037e-09 4.55314e-08 9.50551e-07 1.58371e-05 0.00020432 0.00195805 0.0131884 0.0591224 0.175564 0.374864 0.648591 0.958704 0.93113 0.962944 0.979932 0.965171 0.921398 0.843102 0.725894 0.575016 0.403787 0.238406 0.109852 0.0371099 0.00956526 0.0020921 0.000414307 7.59703e-05 1.29894e-05 2.07682e-06 3.11031e-07 4.36844e-08 5.75944e-09 7.13438e-10 8.30396e-11 9.11087e-12 8.79296e-13 1.40491e-13 -3.10784e-14 1.80002e-14 3.28837e-14 -7.53416e-14 8.09741e-14 -1.70694e-16 -3.73584e-14 3.80959e-14 -9.62503e-14 5.90717e-14 -2.3058e-14 1.35311e-14 6.88601e-15 -5.5588e-14 2.98401e-14 1.26508e-15 -8.2096e-15 -2.19044e-14 5.82197e-15 -4.00629e-14 1.02019e-13 -9.76003e-14 6.33449e-14 -1.58988e-14 1.02277e-14 9.70454e-15 -6.39852e-15 6.50127e-15 -1.22364e-14 4.16092e-14 -4.4155e-14 -2.5578e-14 2.14885e-14 -8.88284e-14 7.0638e-14 -8.32657e-14 6.83681e-14 -5.40633e-14 3.69009e-14 -7.32767e-14 3.95164e-14 -3.67079e-14 1.78095e-14 7.58885e-14 -2.151e-14 8.73915e-15 3.40316e-14 -1.25314e-14 -6.38274e-14 3.96752e-14 4.34291e-14 -1.74378e-14 2.11658e-14 1.4143e-14 6.71687e-15 1.26149e-14 -5.09559e-14 -4.35115e-15 -1.09139e-14 4.33746e-14 3.72808e-14 -8.62471e-15 -1.15242e-15 -6.6956e-14 1.44984e-14 5.56482e-14 -5.42169e-14 5.09129e-14 4.99564e-14 -1.5295e-14 5.1183e-14 -3.97978e-14 2.88935e-14 3.06634e-15 0 0 -4.12865e-16 -9.3495e-16 1.18611e-15 -9.80651e-16 5.25757e-16 -2.42387e-15 4.00745e-15 -2.54619e-15 -2.23229e-15 3.35556e-15 -2.01176e-15 4.35538e-15 -7.26121e-15 1.07172e-14 -5.40951e-15 -5.02513e-15 1.21008e-14 -1.20084e-14 5.07728e-15 4.0523e-15 -8.79769e-15 1.64108e-15 7.87936e-16 7.22018e-17 1.88844e-15 -4.53058e-15 -1.50422e-15 6.43774e-15 -1.63445e-15 -2.3195e-15 7.49096e-15 -6.64184e-15 -1.8655e-14 -1.55341e-15 -1.71446e-15 -9.31801e-15 1.01168e-14 1.23635e-14 5.04198e-15 4.40985e-15 5.55725e-15 -1.67815e-14 4.4053e-16 -8.50737e-15 1.24566e-14 -9.99234e-15 7.42305e-15 -7.18083e-15 2.19431e-14 -1.31307e-15 -2.18981e-14 7.09244e-15 -1.53364e-15 -1.41054e-14 -8.78094e-15 1.43916e-14 -1.0289e-14 -1.8981e-14 -1.15874e-14 1.36978e-14 -2.24971e-16 1.45866e-14 -4.15784e-14 1.31993e-14 1.61277e-15 1.58861e-14 -1.33259e-14 -1.35183e-14 -1.40905e-14 1.86778e-14 -2.75151e-14 -5.96388e-15 1.60148e-14 2.23476e-14 -1.063e-14 -3.26399e-15 -1.04699e-14 -2.22778e-14 -1.26951e-14 -1.80537e-14 -3.40992e-14 1.27949e-14 5.00051e-14 -4.32271e-14 6.5586e-14 1.6305e-12 5.78819e-11 1.78037e-09 4.55315e-08 9.50551e-07 1.58371e-05 0.00020432 0.00195805 0.0131884 0.0591224 0.175564 0.374864 0.648591 0.958704 0.93113 0.962944 0.979932 0.965171 0.921398 0.843102 0.725894 0.575016 0.403787 0.238406 0.109852 0.0371099 0.00956526 0.0020921 0.000414307 7.59703e-05 1.29894e-05 2.07682e-06 3.11031e-07 4.36844e-08 5.75943e-09 7.13452e-10 8.30281e-11 9.07706e-12 8.91415e-13 8.31113e-14 6.55303e-14 -1.36034e-14 -3.75213e-14 8.63826e-15 1.04904e-14 3.62105e-14 1.60275e-14 -2.87185e-14 -5.94962e-14 8.62645e-18 2.90831e-14 2.48211e-14 -1.10491e-14 -2.64049e-14 -1.54632e-14 -1.51977e-14 6.46226e-15 -3.03822e-14 -3.37787e-14 -1.85401e-14 5.07237e-14 -2.53289e-14 5.76195e-14 -2.31223e-14 -8.88523e-15 4.81809e-14 -1.88422e-14 4.31032e-14 1.09031e-14 -4.20861e-14 -4.44626e-14 -6.21451e-14 2.18025e-14 -7.39205e-14 4.45509e-14 -5.11521e-15 -5.39196e-14 2.31669e-14 2.11373e-14 -1.73745e-14 4.04208e-14 1.54947e-14 -8.73335e-14 9.41388e-14 -7.54437e-15 -8.08908e-15 5.65566e-14 1.13781e-14 -3.89182e-17 -9.94389e-15 9.17206e-16 3.98532e-14 -3.93546e-14 1.0311e-14 -2.03697e-14 3.13485e-14 1.87177e-15 -5.02387e-14 2.0374e-14 5.25499e-14 -1.95518e-14 2.52258e-14 2.7313e-14 -1.16012e-15 -3.2933e-14 6.06422e-14 -2.51678e-14 1.19006e-14 3.39691e-14 -3.763e-15 2.78936e-14 2.15467e-14 2.09248e-14 1.38281e-14 0 0 6.85093e-16 -6.76118e-16 1.77443e-15 -1.17861e-17 -2.27762e-15 -2.08716e-15 4.10718e-15 -2.99983e-16 -1.05899e-15 -4.52971e-16 -4.18097e-15 5.6534e-15 -3.26733e-15 4.34524e-15 -2.37617e-15 7.24061e-16 5.18625e-15 -5.09653e-15 -4.70747e-15 4.52671e-15 -4.75178e-15 4.69687e-15 1.66317e-15 -5.68732e-15 -2.70851e-15 1.3429e-14 -2.39681e-14 1.62821e-14 -7.22233e-15 2.89563e-15 5.31196e-15 -8.86875e-15 -2.08953e-14 -1.98676e-14 -1.26003e-14 2.13593e-14 7.75807e-15 2.1349e-14 -7.48705e-15 8.17719e-15 1.15457e-14 -3.28062e-14 5.71448e-15 -5.87975e-15 -3.16977e-15 9.64445e-15 -1.54392e-14 1.77866e-14 1.17463e-14 -7.53705e-15 -9.37125e-15 -4.42894e-14 2.36765e-14 -1.76623e-14 9.15466e-15 3.82535e-14 -4.75621e-14 1.23598e-14 -2.03224e-14 1.29957e-14 -6.76013e-15 1.9093e-14 -3.8073e-14 -1.27941e-14 -2.61894e-14 4.73117e-14 -4.20342e-14 2.51933e-14 6.56061e-16 -4.17601e-14 -2.64533e-14 -3.21581e-15 1.53399e-14 2.83831e-14 5.75394e-15 -1.74692e-14 -6.28324e-15 -2.41258e-14 -2.5255e-14 6.1212e-14 -4.6943e-14 4.6008e-15 3.82448e-14 -6.02233e-14 6.25174e-14 1.67589e-12 5.78696e-11 1.78036e-09 4.55315e-08 9.50551e-07 1.58371e-05 0.00020432 0.00195805 0.0131884 0.0591224 0.175564 0.374864 0.648591 0.958704 0.93113 0.962944 0.979932 0.965171 0.921398 0.843102 0.725894 0.575016 0.403787 0.238406 0.109852 0.0371099 0.00956526 0.0020921 0.000414307 7.59703e-05 1.29894e-05 2.07682e-06 3.11031e-07 4.36844e-08 5.75942e-09 7.13482e-10 8.29955e-11 9.05509e-12 8.43674e-13 5.0725e-14 9.91344e-14 -9.98644e-15 7.70842e-15 -1.90541e-14 4.8976e-15 3.83169e-14 5.33283e-14 -7.48614e-14 -1.26554e-14 -5.3387e-14 9.7974e-14 8.35916e-14 -7.20052e-14 -2.59203e-14 -7.14381e-14 -1.22942e-13 8.85663e-14 -4.41216e-14 -8.68541e-14 2.2633e-14 3.19353e-16 5.82068e-14 -1.41404e-14 -1.27266e-13 3.7015e-14 7.20171e-14 7.8697e-14 8.21554e-14 -6.44228e-15 -8.1645e-14 -5.11147e-14 -5.07856e-14 -6.16133e-14 1.70188e-14 -1.11872e-14 8.16657e-14 -1.18362e-13 5.49055e-14 6.58155e-15 5.40583e-14 5.44653e-14 -6.74634e-15 -6.84245e-14 3.4163e-14 -9.89256e-14 3.97355e-15 1.13897e-13 -3.74555e-14 8.84532e-14 2.78803e-14 -1.05388e-13 1.74181e-14 -4.83153e-14 6.77545e-14 -9.66976e-14 -4.47081e-15 1.06163e-13 -1.17651e-14 2.93179e-14 6.48524e-14 -5.14151e-14 4.16261e-14 7.95292e-14 7.10217e-14 -3.37663e-14 -4.66314e-15 1.54843e-14 -8.19921e-14 -5.20403e-14 8.27331e-14 3.66819e-14 4.67304e-14 4.4548e-14 3.10134e-14 0 0 1.79977e-16 -2.39649e-16 5.8639e-16 6.85359e-18 -2.80324e-15 6.86568e-16 1.40891e-15 1.33015e-15 -1.9904e-15 -2.1789e-15 6.07514e-16 -8.91736e-16 -7.29573e-16 4.37691e-15 -3.87136e-15 2.31866e-15 1.62828e-15 -4.40512e-16 -1.2992e-14 -6.12711e-15 1.00203e-14 8.54728e-15 -4.12979e-15 -7.79358e-15 8.68323e-15 -5.38585e-15 -2.68862e-15 1.12682e-14 -2.14245e-14 2.02138e-14 -5.18068e-15 -1.27186e-14 -1.76185e-14 -2.67632e-14 5.76279e-16 1.77723e-14 1.18962e-14 -5.66832e-15 1.40165e-14 -2.25956e-14 1.4632e-14 -1.85899e-14 -1.27879e-14 7.71194e-15 -3.76118e-15 -2.67802e-15 5.46031e-15 1.21551e-14 5.00062e-15 2.64921e-15 -3.80768e-14 -4.03757e-15 -1.64778e-14 7.93935e-15 1.86639e-14 4.0249e-14 -2.58617e-14 1.02892e-15 -6.25767e-15 6.92183e-15 -1.83003e-14 3.24114e-15 3.21053e-15 -4.38661e-14 -3.68374e-14 5.81454e-14 -5.72718e-14 3.5324e-14 4.74636e-15 -5.57735e-14 -4.36217e-14 4.00579e-14 -3.65422e-14 5.70092e-14 2.29045e-14 -3.14325e-14 1.20993e-14 -3.18437e-14 5.05291e-15 8.09525e-15 1.69324e-14 2.92573e-14 -8.09445e-14 -5.36432e-15 6.28118e-14 1.67034e-12 5.78477e-11 1.78038e-09 4.55315e-08 9.50551e-07 1.58371e-05 0.00020432 0.00195805 0.0131884 0.0591224 0.175564 0.374864 0.648591 0.958704 0.93113 0.962944 0.979932 0.965171 0.921398 0.843102 0.725894 0.575016 0.403787 0.238406 0.109852 0.0371099 0.00956526 0.0020921 0.000414307 7.59703e-05 1.29894e-05 2.07682e-06 3.11031e-07 4.36843e-08 5.75944e-09 7.13492e-10 8.29464e-11 9.01786e-12 8.52959e-13 8.56572e-14 3.54446e-14 3.49297e-14 5.74052e-14 -7.42018e-14 8.44932e-14 -1.02264e-14 7.66518e-14 -8.29958e-14 -4.01934e-14 -3.27034e-14 6.65756e-14 1.60309e-13 -1.17191e-13 -1.10865e-13 -2.90678e-14 -1.60075e-13 5.89209e-14 -1.97089e-14 6.40008e-15 -1.07022e-13 9.81839e-14 -7.32428e-14 2.3986e-14 -7.10387e-14 -1.25773e-13 1.68269e-13 4.36368e-14 1.06709e-13 -3.90187e-14 -4.3195e-14 -9.00826e-14 -2.47775e-14 -2.42993e-14 -2.71798e-14 1.27609e-13 -3.90256e-14 3.39367e-16 -1.17236e-15 -4.18424e-14 6.87826e-14 7.30826e-14 -1.50752e-13 9.51847e-14 -6.80118e-14 -6.59528e-14 -5.48932e-14 1.13301e-13 -4.9013e-14 4.82071e-14 1.17185e-13 -6.12994e-14 -1.2968e-13 -1.05039e-13 1.81034e-13 -1.02101e-13 -4.32064e-14 6.66605e-14 1.02092e-13 8.8006e-14 7.84832e-14 -1.33832e-14 9.00235e-14 6.88979e-14 1.02914e-13 1.53347e-14 -7.01659e-14 -1.63697e-13 2.13293e-14 -8.01206e-14 1.07525e-13 5.36574e-14 -6.21466e-14 1.45116e-13 5.70131e-14 0 0 -7.17964e-16 -2.21439e-15 1.38951e-16 -1.7591e-15 -1.09303e-15 1.59369e-15 -1.32616e-15 -1.53061e-15 -2.70185e-15 1.6834e-15 -1.7025e-15 4.54734e-15 -6.97597e-15 9.94793e-15 -6.77835e-15 -9.85725e-15 1.16892e-14 -9.12628e-15 -7.55067e-15 -9.04415e-15 8.11473e-15 1.59224e-15 -2.79975e-15 1.4115e-15 1.88678e-14 -1.68778e-14 2.38778e-14 -4.76502e-15 -1.50162e-14 3.92769e-15 4.44815e-15 -9.94896e-16 -1.63512e-14 -7.25177e-15 4.58285e-15 1.12985e-15 -1.94891e-14 -3.92903e-15 4.67672e-15 -4.77817e-14 1.34436e-14 6.10342e-15 -3.35236e-14 -5.44407e-15 -1.5549e-14 8.56995e-15 1.99851e-14 -9.35053e-15 1.76187e-14 1.9566e-14 -2.11058e-14 3.49329e-14 -2.40759e-14 1.03633e-14 2.50718e-14 1.74021e-14 -2.63109e-14 1.36249e-14 -1.46112e-14 3.23536e-14 -3.61187e-14 5.9834e-15 5.46876e-15 -3.67256e-14 -1.34296e-14 5.12358e-16 4.97477e-15 4.13635e-15 -2.86076e-14 -4.07213e-14 -3.62193e-14 9.46584e-15 -3.55175e-14 4.19535e-15 8.12845e-14 -6.82057e-15 2.9725e-14 -2.80875e-14 3.88038e-15 -4.66183e-14 6.4188e-14 -4.49641e-14 -2.6164e-14 7.47514e-15 3.75317e-14 1.63785e-12 5.78815e-11 1.78037e-09 4.55315e-08 9.50551e-07 1.58371e-05 0.00020432 0.00195805 0.0131884 0.0591224 0.175564 0.374864 0.648591 0.958704 0.93113 0.962944 0.979932 0.965171 0.921398 0.843102 0.725894 0.575016 0.403787 0.238406 0.109852 0.0371099 0.00956526 0.0020921 0.000414307 7.59703e-05 1.29894e-05 2.07682e-06 3.11031e-07 4.36842e-08 5.75952e-09 7.13405e-10 8.30325e-11 8.99714e-12 8.91096e-13 4.90286e-14 5.10428e-14 6.29776e-14 -1.44671e-14 1.60795e-14 2.49723e-14 1.16252e-14 6.64961e-14 -1.2203e-13 -7.90667e-14 5.96902e-14 2.98268e-14 5.85381e-14 -1.19766e-13 -9.01787e-14 2.19027e-14 -7.73567e-14 -6.71713e-14 -5.51651e-15 -4.36365e-15 -1.3175e-13 -4.01679e-15 -1.4008e-14 5.31719e-14 4.02196e-14 -1.87578e-13 1.21585e-13 -6.41386e-14 9.58016e-14 -3.57822e-14 9.44574e-15 -1.83251e-14 -8.76351e-14 1.04376e-13 -1.59759e-13 1.73113e-13 5.95019e-15 1.23187e-14 -1.17609e-13 -8.60842e-14 3.5524e-14 -1.96736e-14 -8.22585e-14 5.18808e-14 1.08551e-13 4.58044e-14 -1.18206e-13 3.37431e-14 -3.35641e-14 4.07351e-14 8.61674e-14 -1.24358e-13 -9.83988e-14 -4.502e-14 2.15568e-13 -1.30956e-14 -5.78516e-14 -3.17619e-14 2.38568e-14 2.78255e-13 1.20803e-13 -5.27152e-14 9.30704e-14 2.51972e-14 1.86706e-13 -2.14506e-14 -4.85672e-14 -1.58176e-13 -5.8734e-14 2.38407e-14 -1.10262e-14 4.5737e-14 6.40432e-14 6.96242e-15 1.39394e-13 0 0 -2.94401e-16 -3.21359e-15 -1.41375e-15 -1.1689e-16 -2.13065e-15 5.98304e-16 -7.02263e-15 3.07012e-15 -1.08229e-15 -7.32739e-16 -5.45407e-15 8.0663e-15 4.11654e-15 -5.57411e-15 -2.88353e-15 -7.04119e-15 2.93146e-15 3.55124e-17 -1.40049e-14 -2.71632e-15 -1.00356e-15 -2.45443e-15 7.75078e-15 4.06212e-16 1.28203e-14 1.60156e-14 8.53195e-16 -4.98221e-15 -1.01137e-14 -6.7286e-15 4.84027e-15 2.16921e-14 -6.37937e-15 -1.34067e-14 4.58872e-15 2.87501e-15 -4.09267e-14 7.32508e-15 -2.56584e-14 -5.43245e-14 2.35528e-14 7.39974e-15 -3.62892e-14 -2.40689e-14 -3.79875e-14 4.29178e-14 -4.20351e-15 6.66884e-15 1.10455e-14 1.96777e-14 3.98673e-14 1.36575e-14 -1.06485e-14 1.77187e-14 2.87292e-14 -1.30284e-14 -4.35931e-14 4.45111e-14 -1.96283e-14 4.05688e-14 -1.18334e-14 -1.65803e-14 -2.84435e-16 -2.45647e-14 -9.3646e-15 -2.64433e-14 4.09919e-14 -9.1729e-15 -2.69875e-14 -7.09157e-14 -2.9631e-14 -1.87562e-14 -6.8746e-15 -7.05665e-14 1.36832e-13 1.2093e-14 4.67691e-14 -2.11312e-14 -5.12065e-14 1.03464e-14 4.62722e-14 -1.12733e-13 5.80441e-14 5.51307e-15 7.70904e-15 1.6621e-12 5.78935e-11 1.78034e-09 4.55315e-08 9.50551e-07 1.58371e-05 0.00020432 0.00195805 0.0131884 0.0591224 0.175564 0.374864 0.648591 0.958704 0.93113 0.962944 0.979932 0.965171 0.921398 0.843102 0.725894 0.575016 0.403787 0.238406 0.109852 0.0371099 0.00956526 0.0020921 0.000414307 7.59703e-05 1.29894e-05 2.07682e-06 3.11031e-07 4.36842e-08 5.75957e-09 7.13322e-10 8.31469e-11 9.02571e-12 8.60223e-13 2.48112e-15 6.71855e-14 8.13009e-14 -2.04463e-14 4.96124e-14 -4.93932e-14 4.77374e-14 1.70633e-14 -1.32178e-13 -8.03333e-14 1.37089e-13 4.11066e-14 -7.25379e-14 -1.20104e-13 -1.32322e-14 1.99384e-14 -4.86704e-14 -9.62688e-14 -2.10625e-14 -1.21887e-13 -7.12765e-15 -2.02974e-13 1.88012e-13 -2.18343e-14 -1.61775e-15 -2.15789e-14 -3.59768e-14 -2.68349e-14 6.27241e-14 -4.06437e-14 6.75176e-14 8.59835e-14 -1.28503e-13 1.12102e-13 -1.72107e-13 5.00533e-14 1.80217e-13 -3.6461e-14 -2.23315e-13 -8.08954e-14 2.61495e-15 -1.18138e-13 5.56213e-14 -3.11684e-14 3.09085e-13 1.93339e-14 -9.38137e-14 -1.0566e-14 -7.94434e-14 9.8234e-14 5.32982e-14 -2.95445e-13 2.67266e-16 1.2333e-13 1.97934e-13 3.2013e-14 -8.82918e-14 -3.93531e-14 -8.38917e-14 3.87435e-13 1.52601e-13 -1.04979e-13 3.03288e-14 1.58639e-14 2.44844e-13 -6.08457e-14 -3.16793e-14 3.81462e-14 -2.97142e-13 8.59187e-14 -7.92596e-14 5.28424e-14 2.62965e-13 -2.00048e-13 2.02119e-13 0
				</DataArray>
				<DataArray Name="VitesseY" type="Float32" format="ascii">