<?xml version="1.0"?>
<VTKFile type="PolyData">
	<PolyData>
		<Piece NumberOfPoints="1206" NumberOfPolys="1000">
			<Points>
				<DataArray type="Float32" NumberOfComponents="3" format="ascii">
 0 0 0 0.005 0 0 0.01 0 0 0.015 0 0 0.02 0 0 0.025 0 0 0.03 0 0 0.035 0 0 0.04 0 0 0.045 0 0 0.05 0 0 0.055 0 0 0.06 0 0 0.065 0 0 0.07 0 0 0.075 0 0 0.08 0 0 0.085 0 0 0.09 0 0 0.095 0 0 0.1 0 0 0.105 0 0 0.11 0 0 0.115 0 0 0.12 0 0 0.125 0 0 0.13 0 0 0.135 0 0 0.14 0 0 0.145 0 0 0.15 0 0 0.155 0 0 0.16 0 0 0.165 0 0 0.17 0 0 0.175 0 0 0.18 0 0 0.185 0 0 0.19 0 0 0.195 0 0 0.2 0 0 0.205 0 0 0.21 0 0 0.215 0 0 0.22 0 0 0.225 0 0 0.23 0 0 0.235 0 0 0.24 0 0 0.245 0 0 0.25 0 0 0.255 0 0 0.26 0 0 0.265 0 0 0.27 0 0 0.275 0 0 0.28 0 0 0.285 0 0 0.29 0 0 0.295 0 0 0.3 0 0 0.305 0 0 0.31 0 0 0.315001 0 0 0.320003 0 0 0.32501 0 0 0.330028 0 0 0.33507 0 0 0.340154 0 0 0.345305 0 0 0.350548 0 0 0.355907 0 0 0.3614 0 0 0.367042 0 0 0.37285 0 0 0.378835 0 0 0.385014 0 0 0.391402 0 0 0.398016 0 0 0.404876 0 0 0.412002 0 0 0.41942 0 0 0.427157 0 0 0.435244 0 0 0.443717 0 0 0.452617 0 0 0.461991 0 0 0.471889 0 0 0.482366 0 0 0.493464 0 0 0.50518 0 0 0.517337 0 0 0.529498 0 0 0.541528 0 0 0.553435 0 0 0.565257 0 0 0.577034 0 0 0.588792 0 0 0.600543 0 0 0.612291 0 0 0.62405 0 0 0.626663 0 0 0.629202 0 0 0.631694 0 0 0.634155 0 0 0.636594 0 0 0.639016 0 0 0.641427 0 0 0.643828 0 0 0.646222 0 0 0.648611 0 0 0.650996 0 0 0.653377 0 0 0.655755 0 0 0.65813 0 0 0.660501 0 0 0.66287 0 0 0.665237 0 0 0.667602 0 0 0.669965 0 0 0.672326 0 0 0.674687 0 0 0.677047 0 0 0.679406 0 0 0.681765 0 0 0.684123 0 0 0.686481 0 0 0.688838 0 0 0.691196 0 0 0.693553 0 0 0.69591 0 0 0.698268 0 0 0.700625 0 0 0.702983 0 0 0.705343 0 0 0.707703 0 0 0.710067 0 0 0.712435 0 0 0.714814 0 0 0.717202 0 0 0.719617 0 0 0.722058 0 0 0.724559 0 0 0.727112 0 0 0.729785 0 0 0.73258 0 0 0.7356 0 0 0.738876 0 0 0.742484 0 0 0.746445 0 0 0.750752 0 0 0.755347 0 0 0.760144 0 0 0.765056 0 0 0.770021 0 0 0.775007 0 0 0.780003 0 0 0.785001 0 0 0.79 0 0 0.795 0 0 0.8 0 0 0.805 0 0 0.81 0 0 0.815 0 0 0.82 0 0 0.825 0 0 0.83 0 0 0.835 0 0 0.84 0 0 0.845 0 0 0.85 0 0 0.855 0 0 0.86 0 0 0.865 0 0 0.87 0 0 0.875 0 0 0.88 0 0 0.885 0 0 0.89 0 0 0.895 0 0 0.9 0 0 0.905 0 0 0.91 0 0 0.915 0 0 0.92 0 0 0.925 0 0 0.93 0 0 0.935 0 0 0.94 0 0 0.945 0 0 0.95 0 0 0.955 0 0 0.96 0 0 0.965 0 0 0.97 0 0 0.975 0 0 0.98 0 0 0.985 0 0 0.99 0 0 0.995 0 0 1 0 0 0 0.02 0 0.005 0.02 0 0.01 0.02 0 0.015 0.02 0 0.02 0.02 0 0.025 0.02 0 0.03 0.02 0 0.035 0.02 0 0.04 0.02 0 0.045 0.02 0 0.05 0.02 0 0.055 0.02 0 0.06 0.02 0 0.065 0.02 0 0.07 0.02 0 0.075 0.02 0 0.08 0.02 0 0.085 0.02 0 0.09 0.02 0 0.095 0.02 0 0.1 0.02 0 0.105 0.02 0 0.11 0.02 0 0.115 0.02 0 0.12 0.02 0 0.125 0.02 0 0.13 0.02 0 0.135 0.02 0 0.14 0.02 0 0.145 0.02 0 0.15 0.02 0 0.155 0.02 0 0.16 0.02 0 0.165 0.02 0 0.17 0.02 0 0.175 0.02 0 0.18 0.02 0 0.185 0.02 0 0.19 0.02 0 0.195 0.02 0 0.2 0.02 0 0.205 0.02 0 0.21 0.02 0 0.215 0.02 0 0.22 0.02 0 0.225 0.02 0 0.23 0.02 0 0.235 0.02 0 0.24 0.02 0 0.245 0.02 0 0.25 0.02 0 0.255 0.02 0 0.26 0.02 0 0.265 0.02 0 0.27 0.02 0 0.275 0.02 0 0.28 0.02 0 0.285 0.02 0 0.29 0.02 0 0.295 0.02 0 0.3 0.02 0 0.305 0.02 0 0.31 0.02 0 0.315001 0.02 0 0.320003 0.02 0 0.32501 0.02 0 0.330028 0.02 0 0.33507 0.02 0 0.340154 0.02 0 0.345305 0.02 0 0.350548 0.02 0 0.355907 0.02 0 0.3614 0.02 0 0.367042 0.02 0 0.37285 0.02 0 0.378835 0.02 0 0.385014 0.02 0 0.391402 0.02 0 0.398016 0.02 0 0.404876 0.02 0 0.412002 0.02 0 0.41942 0.02 0 0.427157 0.02 0 0.435244 0.02 0 0.443717 0.02 0 0.452617 0.02 0 0.461991 0.02 0 0.471889 0.02 0 0.482366 0.02 0 0.493464 0.02 0 0.50518 0.02 0 0.517337 0.02 0 0.529498 0.02 0 0.541528 0.02 0 0.553435 0.02 0 0.565257 0.02 0 0.577034 0.02 0 0.588792 0.02 0 0.600543 0.02 0 0.612291 0.02 0 0.62405 0.02 0 0.626663 0.02 0 0.629202 0.02 0 0.631694 0.02 0 0.634155 0.02 0 0.636594 0.02 0 0.639016 0.02 0 0.641427 0.02 0 0.643828 0.02 0 0.646222 0.02 0 0.648611 0.02 0 0.650996 0.02 0 0.653377 0.02 0 0.655755 0.02 0 0.65813 0.02 0 0.660501 0.02 0 0.66287 0.02 0 0.665237 0.02 0 0.667602 0.02 0 0.669965 0.02 0 0.672326 0.02 0 0.674687 0.02 0 0.677047 0.02 0 0.679406 0.02 0 0.681765 0.02 0 0.684123 0.02 0 0.686481 0.02 0 0.688838 0.02 0 0.691196 0.02 0 0.693553 0.02 0 0.69591 0.02 0 0.698268 0.02 0 0.700625 0.02 0 0.702983 0.02 0 0.705343 0.02 0 0.707703 0.02 0 0.710067 0.02 0 0.712435 0.02 0 0.714814 0.02 0 0.717202 0.02 0 0.719617 0.02 0 0.722058 0.02 0 0.724559 0.02 0 0.727112 0.02 0 0.729785 0.02 0 0.73258 0.02 0 0.7356 0.02 0 0.738876 0.02 0 0.742484 0.02 0 0.746445 0.02 0 0.750752 0.02 0 0.755347 0.02 0 0.760144 0.02 0 0.765056 0.02 0 0.770021 0.02 0 0.775007 0.02 0 0.780003 0.02 0 0.785001 0.02 0 0.79 0.02 0 0.795 0.02 0 0.8 0.02 0 0.805 0.02 0 0.81 0.02 0 0.815 0.02 0 0.82 0.02 0 0.825 0.02 0 0.83 0.02 0 0.835 0.02 0 0.84 0.02 0 0.845 0.02 0 0.85 0.02 0 0.855 0.02 0 0.86 0.02 0 0.865 0.02 0 0.87 0.02 0 0.875 0.02 0 0.88 0.02 0 0.885 0.02 0 0.89 0.02 0 0.895 0.02 0 0.9 0.02 0 0.905 0.02 0 0.91 0.02 0 0.915 0.02 0 0.92 0.02 0 0.925 0.02 0 0.93 0.02 0 0.935 0.02 0 0.94 0.02 0 0.945 0.02 0 0.95 0.02 0 0.955 0.02 0 0.96 0.02 0 0.965 0.02 0 0.97 0.02 0 0.975 0.02 0 0.98 0.02 0 0.985 0.02 0 0.99 0.02 0 0.995 0.02 0 1 0.02 0 0 0.04 0 0.005 0.04 0 0.01 0.04 0 0.015 0.04 0 0.02 0.04 0 0.025 0.04 0 0.03 0.04 0 0.035 0.04 0 0.04 0.04 0 0.045 0.04 0 0.05 0.04 0 0.055 0.04 0 0.06 0.04 0 0.065 0.04 0 0.07 0.04 0 0.075 0.04 0 0.08 0.04 0 0.085 0.04 0 0.09 0.04 0 0.095 0.04 0 0.1 0.04 0 0.105 0.04 0 0.11 0.04 0 0.115 0.04 0 0.12 0.04 0 0.125 0.04 0 0.13 0.04 0 0.135 0.04 0 0.14 0.04 0 0.145 0.04 0 0.15 0.04 0 0.155 0.04 0 0.16 0.04 0 0.165 0.04 0 0.17 0.04 0 0.175 0.04 0 0.18 0.04 0 0.185 0.04 0 0.19 0.04 0 0.195 0.04 0 0.2 0.04 0 0.205 0.04 0 0.21 0.04 0 0.215 0.04 0 0.22 0.04 0 0.225 0.04 0 0.23 0.04 0 0.235 0.04 0 0.24 0.04 0 0.245 0.04 0 0.25 0.04 0 0.255 0.04 0 0.26 0.04 0 0.265 0.04 0 0.27 0.04 0 0.275 0.04 0 0.28 0.04 0 0.285 0.04 0 0.29 0.04 0 0.295 0.04 0 0.3 0.04 0 0.305 0.04 0 0.31 0.04 0 0.315001 0.04 0 0.320003 0.04 0 0.32501 0.04 0 0.330028 0.04 0 0.33507 0.04 0 0.340154 0.04 0 0.345305 0.04 0 0.350548 0.04 0 0.355907 0.04 0 0.3614 0.04 0 0.367042 0.04 0 0.37285 0.04 0 0.378835 0.04 0 0.385014 0.04 0 0.391402 0.04 0 0.398016 0.04 0 0.404876 0.04 0 0.412002 0.04 0 0.41942 0.04 0 0.427157 0.04 0 0.435244 0.04 0 0.443717 0.04 0 0.452617 0.04 0 0.461991 0.04 0 0.471889 0.04 0 0.482366 0.04 0 0.493464 0.04 0 0.50518 0.04 0 0.517337 0.04 0 0.529498 0.04 0 0.541528 0.04 0 0.553435 0.04 0 0.565257 0.04 0 0.577034 0.04 0 0.588792 0.04 0 0.600543 0.04 0 0.612291 0.04 0 0.62405 0.04 0 0.626663 0.04 0 0.629202 0.04 0 0.631694 0.04 0 0.634155 0.04 0 0.636594 0.04 0 0.639016 0.04 0 0.641427 0.04 0 0.643828 0.04 0 0.646222 0.04 0 0.648611 0.04 0 0.650996 0.04 0 0.653377 0.04 0 0.655755 0.04 0 0.65813 0.04 0 0.660501 0.04 0 0.66287 0.04 0 0.665237 0.04 0 0.667602 0.04 0 0.669965 0.04 0 0.672326 0.04 0 0.674687 0.04 0 0.677047 0.04 0 0.679406 0.04 0 0.681765 0.04 0 0.684123 0.04 0 0.686481 0.04 0 0.688838 0.04 0 0.691196 0.04 0 0.693553 0.04 0 0.69591 0.04 0 0.698268 0.04 0 0.700625 0.04 0 0.702983 0.04 0 0.705343 0.04 0 0.707703 0.04 0 0.710067 0.04 0 0.712435 0.04 0 0.714814 0.04 0 0.717202 0.04 0 0.719617 0.04 0 0.722058 0.04 0 0.724559 0.04 0 0.727112 0.04 0 0.729785 0.04 0 0.73258 0.04 0 0.7356 0.04 0 0.738876 0.04 0 0.742484 0.04 0 0.746445 0.04 0 0.750752 0.04 0 0.755347 0.04 0 0.760144 0.04 0 0.765056 0.04 0 0.770021 0.04 0 0.775007 0.04 0 0.780003 0.04 0 0.785001 0.04 0 0.79 0.04 0 0.795 0.04 0 0.8 0.04 0 0.805 0.04 0 0.81 0.04 0 0.815 0.04 0 0.82 0.04 0 0.825 0.04 0 0.83 0.04 0 0.835 0.04 0 0.84 0.04 0 0.845 0.04 0 0.85 0.04 0 0.855 0.04 0 0.86 0.04 0 0.865 0.04 0 0.87 0.04 0 0.875 0.04 0 0.88 0.04 0 0.885 0.04 0 0.89 0.04 0 0.895 0.04 0 0.9 0.04 0 0.905 0.04 0 0.91 0.04 0 0.915 0.04 0 0.92 0.04 0 0.925 0.04 0 0.93 0.04 0 0.935 0.04 0 0.94 0.04 0 0.945 0.04 0 0.95 0.04 0 0.955 0.04 0 0.96 0.04 0 0.965 0.04 0 0.97 0.04 0 0.975 0.04 0 0.98 0.04 0 0.985 0.04 0 0.99 0.04 0 0.995 0.04 0 1 0.04 0 0 0.06 0 0.005 0.06 0 0.01 0.06 0 0.015 0.06 0 0.02 0.06 0 0.025 0.06 0 0.03 0.06 0 0.035 0.06 0 0.04 0.06 0 0.045 0.06 0 0.05 0.06 0 0.055 0.06 0 0.06 0.06 0 0.065 0.06 0 0.07 0.06 0 0.075 0.06 0 0.08 0.06 0 0.085 0.06 0 0.09 0.06 0 0.095 0.06 0 0.1 0.06 0 0.105 0.06 0 0.11 0.06 0 0.115 0.06 0 0.12 0.06 0 0.125 0.06 0 0.13 0.06 0 0.135 0.06 0 0.14 0.06 0 0.145 0.06 0 0.15 0.06 0 0.155 0.06 0 0.16 0.06 0 0.165 0.06 0 0.17 0.06 0 0.175 0.06 0 0.18 0.06 0 0.185 0.06 0 0.19 0.06 0 0.195 0.06 0 0.2 0.06 0 0.205 0.06 0 0.21 0.06 0 0.215 0.06 0 0.22 0.06 0 0.225 0.06 0 0.23 0.06 0 0.235 0.06 0 0.24 0.06 0 0.245 0.06 0 0.25 0.06 0 0.255 0.06 0 0.26 0.06 0 0.265 0.06 0 0.27 0.06 0 0.275 0.06 0 0.28 0.06 0 0.285 0.06 0 0.29 0.06 0 0.295 0.06 0 0.3 0.06 0 0.305 0.06 0 0.31 0.06 0 0.315001 0.06 0 0.320003 0.06 0 0.32501 0.06 0 0.330028 0.06 0 0.33507 0.06 0 0.340154 0.06 0 0.345305 0.06 0 0.350548 0.06 0 0.355907 0.06 0 0.3614 0.06 0 0.367042 0.06 0 0.37285 0.06 0 0.378835 0.06 0 0.385014 0.06 0 0.391402 0.06 0 0.398016 0.06 0 0.404876 0.06 0 0.412002 0.06 0 0.41942 0.06 0 0.427157 0.06 0 0.435244 0.06 0 0.443717 0.06 0 0.452617 0.06 0 0.461991 0.06 0 0.471889 0.06 0 0.482366 0.06 0 0.493464 0.06 0 0.50518 0.06 0 0.517337 0.06 0 0.529498 0.06 0 0.541528 0.06 0 0.553435 0.06 0 0.565257 0.06 0 0.577034 0.06 0 0.588792 0.06 0 0.600543 0.06 0 0.612291 0.06 0 0.62405 0.06 0 0.626663 0.06 0 0.629202 0.06 0 0.631694 0.06 0 0.634155 0.06 0 0.636594 0.06 0 0.639016 0.06 0 0.641427 0.06 0 0.643828 0.06 0 0.646222 0.06 0 0.648611 0.06 0 0.650996 0.06 0 0.653377 0.06 0 0.655755 0.06 0 0.65813 0.06 0 0.660501 0.06 0 0.66287 0.06 0 0.665237 0.06 0 0.667602 0.06 0 0.669965 0.06 0 0.672326 0.06 0 0.674687 0.06 0 0.677047 0.06 0 0.679406 0.06 0 0.681765 0.06 0 0.684123 0.06 0 0.686481 0.06 0 0.688838 0.06 0 0.691196 0.06 0 0.693553 0.06 0 0.69591 0.06 0 0.698268 0.06 0 0.700625 0.06 0 0.702983 0.06 0 0.705343 0.06 0 0.707703 0.06 0 0.710067 0.06
[...]
			<PointData Scalars="VitesseX">
				<DataArray Name="VitesseX" type="Float32" format="ascii">
 0 -6.04357e-15 -7.51962e-15 -1.35521e-14 -1.54532e-14 -2.06537e-14 -2.20669e-14 -1.98881e-14 -2.24608e-14 -2.25413e-14 -2.45624e-14 -2.10602e-14 -1.92225e-14 -3.33184e-14 -3.01808e-14 -1.72946e-14 -1.16722e-14 -2.67063e-14 -6.22891e-15 -2.61801e-14 -7.19459e-15 -1.29455e-14 -1.15605e-14 -2.25479e-15 -3.2888e-14 -1.39507e-14 -9.92181e-15 -3.1784e-14 -2.75368e-14 -3.48528e-14 -5.39269e-15 -2.28351e-14 -3.95674e-14 -3.37539e-14 -4.11554e-14 -3.3131e-14 -2.94605e-14 -4.97235e-14 -2.60855e-14 -4.61434e-14 -2.56634e-14 -4.06933e-14 -4.78779e-14 -3.70807e-14 -4.68604e-14 -2.33783e-14 -2.35013e-14 -3.17709e-14 -2.10643e-14 1.01247e-14 6.63741e-14 5.25279e-13 4.22164e-12 3.05432e-11 2.07909e-10 1.33479e-09 8.04227e-09 4.53412e-08 2.38423e-07 1.16501e-06 5.26731e-06 2.19254e-05 8.35284e-05 0.000289194 0.000902452 0.00251513 0.00620521 0.0134706 0.0257308 0.0436103 0.0666496 0.0937291 0.123726 0.155864 0.189724 0.225116 0.261976 0.300309 0.340159 0.381596 0.424711 0.46961 0.516413 0.565248 0.616237 0.669477 0.724979 0.782532 0.841324 0.898848 0.947517 0.965945 0.954055 0.94384 0.935878 0.93141 0.929409 0.928479 0.927912 0.927542 0.927309 0.927271 0.927235 0.927201 0.927167 0.927135 0.927103 0.927071 0.92704 0.927009 0.926979 0.926948 0.926917 0.926886 0.926854 0.926821 0.926789 0.926754 0.92672 0.926682 0.926646 0.926602 0.926564 0.92651 0.92647 0.926398 0.926361 0.926255 0.926226 0.926052 0.926041 0.92571 0.925718 0.924995 0.925043 0.923193 0.92336 0.918309 0.918839 0.905336 0.906959 0.874901 0.87926 0.814937 0.814017 0.709873 0.656364 0.53079 0.41661 0.289379 0.178466 0.0944171 0.0429875 0.017437 0.00662039 0.00243637 0.000883925 0.000318233 0.000113922 4.05595e-05 1.43551e-05 5.04706e-06 1.76137e-06 6.09677e-07 2.09147e-07 7.1055e-08 2.38913e-08 7.94556e-09 2.61219e-09 8.48508e-10 2.72158e-10 8.61847e-11 2.68282e-11 8.26884e-12 2.47021e-12 7.42825e-13 1.35167e-13 4.64333e-14 3.78383e-15 8.94606e-14 7.30989e-14 -2.16524e-14 5.0757e-14 7.36631e-14 1.19124e-13 1.61422e-13 -2.66144e-14 9.72568e-14 -1.3728e-14 5.5179e-14 2.43557e-14 -3.23742e-14 -8.15671e-14 -5.80638e-15 -6.47879e-14 -5.89323e-14 1.71807e-14 -1.04951e-14 -6.85583e-14 7.19204e-14 0 0 -4.4839e-15 -1.04943e-14 -1.2082e-14 -1.56443e-14 -1.77877e-14 -1.93167e-14 -2.2799e-14 -2.22115e-14 -2.04741e-14 -2.04175e-14 -2.07808e-14 -2.57229e-14 -2.11201e-14 -2.83781e-14 -1.58446e-14 -2.91297e-14 -1.09474e-14 -1.70985e-14 -1.13648e-14 -1.32232e-14 -1.34088e-14 -1.73068e-15 -1.88389e-14 -1.29691e-14 -1.98587e-14 -2.40366e-14 -2.8191e-14 -2.40563e-14 -9.04297e-15 -4.09772e-14 -2.75812e-14 -3.41895e-14 -3.56169e-14 -2.57418e-14 -3.3681e-14 -4.35628e-14 -3.74119e-14 -3.90876e-14 -2.71156e-14 -2.6807e-14 -3.65647e-14 -5.58969e-14 -2.59117e-14 -3.0095e-14 -4.82691e-14 -1.41674e-14 -1.82046e-14 -2.85126e-14 -6.61175e-15 4.5023e-14 6.21484e-13 4.23696e-12 3.05152e-11 2.07964e-10 1.33479e-09 8.04226e-09 4.53412e-08 2.38423e-07 1.16501e-06 5.26731e-06 2.19254e-05 8.35284e-05 0.000289194 0.000902452 0.00251513 0.00620521 0.0134706 0.0257308 0.0436103 0.0666496 0.0937291 0.123726 0.155864 0.189724 0.225116 0.261976 0.300309 0.340159 0.381596 0.424711 0.46961 0.516413 0.565248 0.616237 0.669477 0.724979 0.782532 0.841324 0.898848 0.947517 0.965945 0.954055 0.94384 0.935878 0.93141 0.929409 0.928479 0.927912 0.927542 0.927309 0.927271 0.927235 0.927201 0.927167 0.927135 0.927103 0.927071 0.92704 0.927009 0.926979 0.926948 0.926917 0.926886 0.926854 0.926821 0.926789 0.926754 0.92672 0.926682 0.926646 0.926602 0.926564 0.92651 0.92647 0.926398 0.926361 0.926255 0.926226 0.926052 0.926041 0.92571 0.925718 0.924995 0.925043 0.923193 0.92336 0.918309 0.918839 0.905336 0.906959 0.874901 0.87926 0.814937 0.814017 0.709873 0.656364 0.53079 0.41661 0.289379 0.178466 0.0944171 0.0429875 0.017437 0.00662039 0.00243637 0.000883925 0.000318233 0.000113922 4.05595e-05 1.43551e-05 5.04706e-06 1.76137e-06 6.09677e-07 2.09147e-07 7.1055e-08 2.38913e-08 7.94551e-09 2.61219e-09 8.48499e-10 2.72165e-10 8.61984e-11 2.681e-11 8.20251e-12 2.43762e-12 6.8511e-13 1.40397e-13 7.67229e-14 2.57899e-14 2.32223e-14 6.59027e-14 3.73726e-14 -1.1458e-14 7.14692e-14 3.58739e-14 6.79197e-14 4.31627e-14 4.19724e-14 9.15033e-14 -6.53541e-16 1.4111e-14 1.60669e-14 -2.55207e-14 -2.45156e-14 -2.83835e-14 5.26163e-15 -7.26323e-14 6.70974e-14 -4.18982e-14 4.10479e-14 0 0 -3.32336e-15 -1.09704e-14 -1.19702e-14 -1.52049e-14 -1.35259e-14 -1.69447e-14 -2.43744e-14 -1.63926e-14 -2.34543e-14 -1.61778e-14 -1.7735e-14 -1.40063e-14 -1.87647e-14 -1.48357e-14 -1.78312e-14 -2.20881e-14 -1.09548e-14 -2.41722e-14 -1.04437e-14 -2.08231e-14 -8.65052e-15 -6.12225e-15 -9.63979e-15 1.07755e-15 -1.74131e-14 -1.67571e-14 -3.30915e-14 -2.56491e-14 -2.99558e-14 -2.365e-14 -4.24016e-14 -3.40022e-14 -4.69332e-14 -3.54194e-14 -4.0419e-14 -5.49575e-14 -2.45179e-14 -2.34866e-14 -3.58749e-14 -3.59459e-14 -1.75984e-14 -2.5718e-14 -1.75043e-14 -3.07829e-14 -2.94667e-14 -3.82165e-14 -2.62458e-14 -1.6948e-14 1.57084e-15 6.64358e-14 6.69626e-13 4.32973e-12 3.05237e-11 2.07999e-10 1.33477e-09 8.0423e-09 4.53412e-08 2.38423e-07 1.16501e-06 5.26731e-06 2.19254e-05 8.35284e-05 0.000289194 0.000902452 0.00251513 0.00620521 0.0134706 0.0257308 0.0436103 0.0666496 0.0937291 0.123726 0.155864 0.189724 0.225116 0.261976 0.300309 0.340159 0.381596 0.424711 0.46961 0.516413 0.565248 0.616237 0.669477 0.724979 0.782532 0.841324 0.898848 0.947517 0.965945 0.954055 0.94384 0.935878 0.93141 0.929409 0.928479 0.927912 0.927542 0.927309 0.927271 0.927235 0.927201 0.927167 0.927135 0.927103 0.927071 0.92704 0.927009 0.926979 0.926948 0.926917 0.926886 0.926854 0.926821 0.926789 0.926754 0.92672 0.926682 0.926646 0.926602 0.926564 0.92651 0.92647 0.926398 0.926361 0.926255 0.926226 0.926052 0.926041 0.92571 0.925718 0.924995 0.925043 0.923193 0.92336 0.918309 0.918839 0.905336 0.906959 0.874901 0.87926 0.814937 0.814017 0.709873 0.656364 0.53079 0.41661 0.289379 0.178466 0.0944171 0.0429875 0.017437 0.00662039 0.00243637 0.000883925 0.000318233 0.000113922 4.05595e-05 1.43551e-05 5.04706e-06 1.76137e-06 6.09677e-07 2.09147e-07 7.10549e-08 2.38913e-08 7.94544e-09 2.61218e-09 8.48424e-10 2.7213e-10 8.60712e-11 2.6866e-11 8.15292e-12 2.35145e-12 6.88192e-13 1.19545e-13 -2.57619e-14 1.61993e-13 -3.17086e-14 3.16774e-14 6.61284e-14 -2.39192e-14 -7.20612e-14 8.29617e-14 1.51978e-14 6.03463e-14 3.03221e-15 5.08962e-14 1.24872e-13 -1.43639e-13 4.26089e-14 7.23069e-14 -4.35688e-14 -8.67415e-15 7.82325e-14 -5.64027e-14 -8.71311e-15 3.86073e-14 4.89564e-14 0 0 -3.0829e-15 -7.27207e-15 -8.93698e-15 -1.59886e-14 -1.28796e-14 -1.46833e-14 -1.92743e-14 -1.77167e-14 -1.80199e-14 -1.99601e-14 -1.13513e-14 -4.48885e-15 -8.63276e-15 -1.20176e-14 -1.49159e-14 -9.79997e-15 -1.47487e-14 -1.60341e-14 -2.00035e-14 -1.23892e-14 -2.06827e-14 -1.20029e-14 9.89335e-15 5.24496e-16 -1.91697e-15 -1.61263e-14 -2.57714e-14 -4.39542e-14 -2.74604e-14 -3.27463e-14 -3.59588e-14 -5.48578e-14 -5.25534e-14 -6.61006e-14 -7.0568e-14 -1.62419e-15 -2.86126e-14 -6.30604e-15 -3.5397e-14 -4.6481e-14 -2.13535e-14 -1.37623e-14 -2.40696e-14 4.53358e-16 -1.44823e-15 -3.98596e-14 -1.12261e-14 -2.6024e-14 2.86019e-14 1.20909e-13 6.38103e-13 4.37188e-12 3.05977e-11 2.07952e-10 1.33482e-09 8.04229e-09 4.53412e-08 2.38423e-07 1.16501e-06 5.26731e-06 2.19254e-05 8.35284e-05 0.000289194 0.000902452 0.00251513 0.00620521 0.0134706 0.0257308 0.0436103 0.0666496 0.0937291 0.123726 0.155864 0.189724 0.225116 0.261976 0.300309 0.340159 0.381596 0.424711 0.46961 0.516413 0.565248 0.616237 0.669477 0.724979 0.782532 0.841324 0.898848 0.947517 0.965945 0.954055 0.94384 0.935878 0.93141 0.929409 0.928479 0.927912 0.927542 0.927309 0.927271 0.927235 0.927201 0.927167 0.927135 0.927103 0.927071 0.92704 0.927009 0.926979 0.926948 0.926917 0.926886 0.926854 0.926821 0.926789 0.926754 0.92672 0.926682 0.926646 0.926602 0.926564 0.92651 0.92647 0.926398 0.926361 0.926255 0.926226 0.926052 0.926041 0.92571 0.925718 0.924995 0.925043 0.923193 0.92336 0.918309 0.918839 0.905336 0.906959 0.874901 0.87926 0.814937 0.814017 0.709873 0.656364 0.53079 0.41661 0.289379 0.178466 0.0944171 0.0429875 0.017437 0.00662039 0.00243637 0.000883925 0.000318233 0.000113922 4.05595e-05 1.43551e-05 5.04706e-06 1.76137e-06 6.09677e-07 2.09147e-07 7.10549e-08 2.38913e-08 7.94542e-09 2.61214e-09 8.48377e-10 2.71965e-10 8.60636e-11 2.68669e-11 8.09067e-12 2.36002e-12 6.27669e-13 1.61128e-13 -1.51e-13 -2.35785e-14 1.58022e-13 3.80106e-14 1.04965e-13 -2.7745e-14 -8.7155e-15 6.36556e-14 4.14233e-14 4.86637e-14 7.75728e-14 -1.34993e-13 5.88614e-14 -5.06765e-14 1.34223e-14 -7.84176e-14 -1.25674e-14 5.01194e-14 -5.30936e-14 -1.61638e-14 -5.92071e-14 7.88593e-14 4.85963e-14 0 0 -3.56893e-15 -6.58226e-15 -7.79792e-15 -1.34507e-14 -1.00013e-14 -9.3126e-15 -8.60362e-15 -2.37528e-14 -1.17888e-14 -1.99055e-14 -2.16268e-14 -7.42581e-15 -3.84408e-15 -1.59996e-14 2.30085e-15 -1.07551e-14 -6.45698e-15 -1.30825e-14 -1.0248e-15 -6.74428e-15 -5.20065e-16 -1.27381e-14 -4.66509e-15 1.18858e-14 -4.12337e-15 -4.11891e-14 -1.3347e-14 -4.50143e-14 -6.33477e-15 -5.48536e-14 -5.33952e-14 -6.84392e-14 -1.7478e-14 -8.87551e-14 -6.16044e-14 3.807e-15 -3.45106e-14 -1.0205e-14 -2.56529e-14 -2.07338e-14 -4.13307e-14 -4.49869e-14 3.49316e-15 1.04028e-14 -1.7915e-14 -1.63133e-14 4.51736e-14 -2.31834e-14 8.57707e-15 1.62647e-13 6.30374e-13 4.35865e-12 3.05996e-11 2.07977e-10 1.33489e-09 8.04229e-09 4.53413e-08 2.38423e-07 1.16501e-06 5.26731e-06 2.19254e-05 8.35284e-05 0.000289194 0.000902452 0.00251513 0.00620521 0.0134706 0.0257308 0.0436103 0.0666496 0.0937291 0.123726 0.155864 0.189724 0.225116 0.261976 0.300309 0.340159 0.381596 0.424711 0.46961 0.516413 0.565248 0.616237 0.669477 0.724979 0.782532 0.841324 0.898848 0.947517 0.965945 0.954055 0.94384 0.935878 0.93141 0.929409 0.928479 0.927912 0.927542 0.927309 0.927271 0.927235 0.927201 0.927167 0.927135 0.927103 0.927071 0.92704 0.927009 0.926979 0.926948 0.926917 0.926886 0.926854 0.926821 0.926789 0.926754 0.92672 0.926682 0.926646 0.926602 0.926564 0.92651 0.92647 0.926398 0.926361 0.926255 0.926226 0.926052 0.926041 0.92571 0.925718 0.924995 0.925043 0.923193 0.92336 0.918309 0.918839 0.905336 0.906959 0.874901 0.87926 0.814937 0.814017 0.709873 0.656364 0.53079 0.41661 0.289379 0.178466 0.0944171 0.0429875 0.017437 0.00662039 0.00243637 0.000883925 0.000318233 0.000113922 4.05595e-05 1.43551e-05 5.04706e-06 1.76137e-06 6.09677e-07 2.09147e-07 7.10549e-08 2.38912e-08 7.94538e-09 2.61229e-09 8.48258e-10 2.72098e-10 8.60692e-11 2.6672e-11 8.12917e-12 2.32073e-12 5.22797e-13 1.35028e-13 -1.78996e-13 -1.3462e-13 2.63708e-13 6.62701e-14 6.95531e-14 3.73035e-14 1.04793e-13 -8.95745e-14 5.33617e-14 6.90275e-14 7.60722e-14 -1.31038e-13 7.39592e-14 2.376e-14 -8.36556e-14 -1.9952e-13 -3.95961e-14 -6.80687e-14 -7.97377e-14 -5.10026e-14 -1.27064e-14 -4.69995e-14 1.66124e-14 0 0 -4.69456e-15 -7.09209e-15 -1.10504e-14 -9.49859e-15 -6.37364e-15 -6.58155e-15 -1.69753e-15 -2.28952e-14 -1.60395e-14 -1.5974e-14 -3.55196e-14 -1.66325e-15 -1.90304e-14 -1.10599e-14 1.31658e-14 5.00725e-16 -1.01377e-14 -1.44732e-14 1.36194e-14 -1.11046e-14 3.68961e-14 -2.18142e-14 -1.29734e-14 1.79278e-14 -1.34723e-14 -4.54885e-14 -1.67362e-14 -3.28425e-14 -3.44272e-14 -1.49529e-14 -8.73488e-14 -6.63555e-14 1.37643e-14 -1.0582e-13 -2.86798e-14 -4.13876e-14 -3.57316e-14 -2.68141e-15 -4.41738e-14 7.55314e-15 -4.27151e-14 -4.99692e-14 3.48597e-14 -2.83374e-14 -1.87073e-14 -2.45072e-14 6.4946e-14 7.74634e-15 -1.35598e-14 1.92675e-13 6.06106e-13 4.38074e-12 3.05638e-11 2.0803e-10 1.33489e-09 8.04233e-09 4.53412e-08 2.38423e-07 1.16501e-06 5.26731e-06 2.19254e-05 8.35284e-05 0.000289194 0.000902452 0.00251513 0.00620521 0.0134706 0.0257308 0.0436103 0.0666496 0.0937291 0.123726 0.155864 0.189724 0.225116 0.261976 0.300309 0.340159 0.381596 0.424711 0.46961 0.516413 0.565248 0.616237 0.669477 0.724979 0.782532 0.841324 0.898848 0.947517 0.965945 0.954055 0.94384 0.935878 0.93141 0.929409 0.928479 0.927912 0.927542 0.927309 0.927271 0.927235 0.927201 0.927167 0.927135 0.927103 0.927071 0.92704 0.927009 0.926979 0.926948 0.926917 0.926886 0.926854 0.926821 0.926789 0.926754 0.92672 0.926682 0.926646 0.926602 0.926564 0.92651 0.92647 0.926398 0.926361 0.926255 0.926226 0.926052 0.926041 0.92571 0.925718 0.924995 0.925043 0.923193 0.92336 0.918309 0.918839 0.905336 0.906959 0.874901 0.87926 0.814937 0.814017 0.709873 0.656364 0.53079 0.41661 0.289379 0.178466 0.0944171 0.0429875 0.017437 0.00662039 0.00243637 0.000883925 0.000318233 0.000113922 4.05595e-05 1.43551e-05 5.04706e-06 1.76137e-06 6.09677e-07 2.09147e-07 7.1055e-08 2.38911e-08 7.94536e-09 2.61247e-09 8.48119e-10 2.72353e-10 8.59412e-11 2.65502e-11 8.24635e-12 2.2191e-12 5.39366e-13 4.1667e-14 -2.13833e-13 5.42275e-14 1.91033e-13 6.15622e-14 -3.48842e-14 1.56041e-13 1.39039e-14 -9.30074e-14 8.03462e-14 4.90631e-14 1.64896e-14 -8.68581e-14 3.36335e-13 -1.42359e-13 -1.7289e-13 -1.27745e-13 -9.79261e-14 -2.61744e-13 3.36224e-14 -2.00204e-14 -6.90788e-14 -1.59351e-13 2.38593e-14 0
				</DataArray>
				<DataArray Name="VitesseY" type="Float32" format="ascii">