<?xml version="1.0"?>
<VTKFile type="PolyData">
	<PolyData>
		<Piece NumberOfPoints="1206" NumberOfPolys="1000">
			<Points>
				<DataArray type="Float32" NumberOfComponents="3" format="ascii">
 0 0 0 0.005 0 0 0.01 0 0 0.015 0 0 0.02 0 0 0.025 0 0 0.03 0 0 0.035 0 0 0.04 0 0 0.045 0 0 0.05 0 0 0.055 0 0 0.06 0 0 0.065 0 0 0.07 0 0 0.075 0 0 0.08 0 0 0.085 0 0 0.09 0 0 0.095 0 0 0.1 0 0 0.105 0 0 0.11 0 0 0.115 0 0 0.12 0 0 0.125 0 0 0.13 0 0 0.135 0 0 0.14 0 0 0.145 0 0 0.15 0 0 0.155 0 0 0.16 0 0 0.165 0 0 0.17 0 0 0.175 0 0 0.18 0 0 0.185 0 0 0.19 0 0 0.195 0 0 0.2 0 0 0.205 0 0 0.21 0 0 0.215 0 0 0.22 0 0 0.225 0 0 0.23 0 0 0.235 0 0 0.24 0 0 0.245 0 0 0.25 0 0 0.255 0 0 0.26 0 0 0.265 0 0 0.27 0 0 0.275 0 0 0.28 0 0 0.285 0 0 0.29 0 0 0.295 0 0 0.3 0 0 0.305 0 0 0.31 0 0 0.315 0 0 0.32 0 0 0.325 0 0 0.33 0 0 0.335 0 0 0.340001 0 0 0.345003 0 0 0.35001 0 0 0.35503 0 0 0.360077 0 0 0.365176 0 0 0.370358 0 0 0.375656 0 0 0.381097 0 0 0.386706 0 0 0.392504 0 0 0.39851 0 0 0.404747 0 0 0.411235 0 0 0.418002 0 0 0.425074 0 0 0.432486 0 0 0.440274 0 0 0.448484 0 0 0.457165 0 0 0.466379 0 0 0.476192 0 0 0.486675 0 0 0.497883 0 0 0.509783 0 0 0.522041 0 0 0.534178 0 0 0.546162 0 0 0.558022 0 0 0.569812 0 0 0.581573 0 0 0.593325 0 0 0.605085 0 0 0.607701 0 0 0.610241 0 0 0.612735 0 0 0.615197 0 0 0.617637 0 0 0.62006 0 0 0.62247 0 0 0.624869 0 0 0.627262 0 0 0.629651 0 0 0.632033 0 0 0.634411 0 0 0.636785 0 0 0.639155 0 0 0.641524 0 0 0.643891 0 0 0.646256 0 0 0.648619 0 0 0.650982 0 0 0.653344 0 0 0.655705 0 0 0.658065 0 0 0.660424 0 0 0.662782 0 0 0.665139 0 0 0.667499 0 0 0.669861 0 0 0.672224 0 0 0.674585 0 0 0.676944 0 0 0.679299 0 0 0.681661 0 0 0.684047 0 0 0.686465 0 0 0.688957 0 0 0.691514 0 0 0.694213 0 0 0.697055 0 0 0.700139 0 0 0.703498 0 0 0.707196 0 0 0.711246 0 0 0.71563 0 0 0.720283 0 0 0.725115 0 0 0.730043 0 0 0.735016 0 0 0.740006 0 0 0.745002 0 0 0.750001 0 0 0.755 0 0 0.76 0 0 0.765 0 0 0.77 0 0 0.775 0 0 0.78 0 0 0.785 0 0 0.79 0 0 0.795 0 0 0.8 0 0 0.805 0 0 0.81 0 0 0.815 0 0 0.82 0 0 0.825 0 0 0.83 0 0 0.835 0 0 0.84 0 0 0.845 0 0 0.85 0 0 0.855 0 0 0.86 0 0 0.865 0 0 0.87 0 0 0.875 0 0 0.88 0 0 0.885 0 0 0.89 0 0 0.895 0 0 0.9 0 0 0.905 0 0 0.91 0 0 0.915 0 0 0.92 0 0 0.925 0 0 0.93 0 0 0.935 0 0 0.94 0 0 0.945 0 0 0.95 0 0 0.955 0 0 0.96 0 0 0.965 0 0 0.97 0 0 0.975 0 0 0.98 0 0 0.985 0 0 0.99 0 0 0.995 0 0 1 0 0 0 0.02 0 0.005 0.02 0 0.01 0.02 0 0.015 0.02 0 0.02 0.02 0 0.025 0.02 0 0.03 0.02 0 0.035 0.02 0 0.04 0.02 0 0.045 0.02 0 0.05 0.02 0 0.055 0.02 0 0.06 0.02 0 0.065 0.02 0 0.07 0.02 0 0.075 0.02 0 0.08 0.02 0 0.085 0.02 0 0.09 0.02 0 0.095 0.02 0 0.1 0.02 0 0.105 0.02 0 0.11 0.02 0 0.115 0.02 0 0.12 0.02 0 0.125 0.02 0 0.13 0.02 0 0.135 0.02 0 0.14 0.02 0 0.145 0.02 0 0.15 0.02 0 0.155 0.02 0 0.16 0.02 0 0.165 0.02 0 0.17 0.02 0 0.175 0.02 0 0.18 0.02 0 0.185 0.02 0 0.19 0.02 0 0.195 0.02 0 0.2 0.02 0 0.205 0.02 0 0.21 0.02 0 0.215 0.02 0 0.22 0.02 0 0.225 0.02 0 0.23 0.02 0 0.235 0.02 0 0.24 0.02 0 0.245 0.02 0 0.25 0.02 0 0.255 0.02 0 0.26 0.02 0 0.265 0.02 0 0.27 0.02 0 0.275 0.02 0 0.28 0.02 0 0.285 0.02 0 0.29 0.02 0 0.295 0.02 0 0.3 0.02 0 0.305 0.02 0 0.31 0.02 0 0.315 0.02 0 0.32 0.02 0 0.325 0.02 0 0.33 0.02 0 0.335 0.02 0 0.340001 0.02 0 0.345003 0.02 0 0.35001 0.02 0 0.35503 0.02 0 0.360077 0.02 0 0.365176 0.02 0 0.370358 0.02 0 0.375656 0.02 0 0.381097 0.02 0 0.386706 0.02 0 0.392504 0.02 0 0.39851 0.02 0 0.404747 0.02 0 0.411235 0.02 0 0.418002 0.02 0 0.425074 0.02 0 0.432486 0.02 0 0.440274 0.02 0 0.448484 0.02 0 0.457165 0.02 0 0.466379 0.02 0 0.476192 0.02 0 0.486675 0.02 0 0.497883 0.02 0 0.509783 0.02 0 0.522041 0.02 0 0.534178 0.02 0 0.546162 0.02 0 0.558022 0.02 0 0.569812 0.02 0 0.581573 0.02 0 0.593325 0.02 0 0.605085 0.02 0 0.607701 0.02 0 0.610241 0.02 0 0.612735 0.02 0 0.615197 0.02 0 0.617637 0.02 0 0.62006 0.02 0 0.62247 0.02 0 0.624869 0.02 0 0.627262 0.02 0 0.629651 0.02 0 0.632033 0.02 0 0.634411 0.02 0 0.636785 0.02 0 0.639155 0.02 0 0.641524 0.02 0 0.643891 0.02 0 0.646256 0.02 0 0.648619 0.02 0 0.650982 0.02 0 0.653344 0.02 0 0.655705 0.02 0 0.658065 0.02 0 0.660424 0.02 0 0.662782 0.02 0 0.665139 0.02 0 0.667499 0.02 0 0.669861 0.02 0 0.672224 0.02 0 0.674585 0.02 0 0.676944 0.02 0 0.679299 0.02 0 0.681661 0.02 0 0.684047 0.02 0 0.686465 0.02 0 0.688957 0.02 0 0.691514 0.02 0 0.694213 0.02 0 0.697055 0.02 0 0.700139 0.02 0 0.703498 0.02 0 0.707196 0.02 0 0.711246 0.02 0 0.71563 0.02 0 0.720283 0.02 0 0.725115 0.02 0 0.730043 0.02 0 0.735016 0.02 0 0.740006 0.02 0 0.745002 0.02 0 0.750001 0.02 0 0.755 0.02 0 0.76 0.02 0 0.765 0.02 0 0.77 0.02 0 0.775 0.02 0 0.78 0.02 0 0.785 0.02 0 0.79 0.02 0 0.795 0.02 0 0.8 0.02 0 0.805 0.02 0 0.81 0.02 0 0.815 0.02 0 0.82 0.02 0 0.825 0.02 0 0.83 0.02 0 0.835 0.02 0 0.84 0.02 0 0.845 0.02 0 0.85 0.02 0 0.855 0.02 0 0.86 0.02 0 0.865 0.02 0 0.87 0.02 0 0.875 0.02 0 0.88 0.02 0 0.885 0.02 0 0.89 0.02 0 0.895 0.02 0 0.9 0.02 0 0.905 0.02 0 0.91 0.02 0 0.915 0.02 0 0.92 0.02 0 0.925 0.02 0 0.93 0.02 0 0.935 0.02 0 0.94 0.02 0 0.945 0.02 0 0.95 0.02 0 0.955 0.02 0 0.96 0.02 0 0.965 0.02 0 0.97 0.02 0 0.975 0.02 0 0.98 0.02 0 0.985 0.02 0 0.99 0.02 0 0.995 0.02 0 1 0.02 0 0 0.04 0 0.005 0.04 0 0.01 0.04 0 0.015 0.04 0 0.02 0.04 0 0.025 0.04 0 0.03 0.04 0 0.035 0.04 0 0.04 0.04 0 0.045 0.04 0 0.05 0.04 0 0.055 0.04 0 0.06 0.04 0 0.065 0.04 0 0.07 0.04 0 0.075 0.04 0 0.08 0.04 0 0.085 0.04 0 0.09 0.04 0 0.095 0.04 0 0.1 0.04 0 0.105 0.04 0 0.11 0.04 0 0.115 0.04 0 0.12 0.04 0 0.125 0.04 0 0.13 0.04 0 0.135 0.04 0 0.14 0.04 0 0.145 0.04 0 0.15 0.04 0 0.155 0.04 0 0.16 0.04 0 0.165 0.04 0 0.17 0.04 0 0.175 0.04 0 0.18 0.04 0 0.185 0.04 0 0.19 0.04 0 0.195 0.04 0 0.2 0.04 0 0.205 0.04 0 0.21 0.04 0 0.215 0.04 0 0.22 0.04 0 0.225 0.04 0 0.23 0.04 0 0.235 0.04 0 0.24 0.04 0 0.245 0.04 0 0.25 0.04 0 0.255 0.04 0 0.26 0.04 0 0.265 0.04 0 0.27 0.04 0 0.275 0.04 0 0.28 0.04 0 0.285 0.04 0 0.29 0.04 0 0.295 0.04 0 0.3 0.04 0 0.305 0.04 0 0.31 0.04 0 0.315 0.04 0 0.32 0.04 0 0.325 0.04 0 0.33 0.04 0 0.335 0.04 0 0.340001 0.04 0 0.345003 0.04 0 0.35001 0.04 0 0.35503 0.04 0 0.360077 0.04 0 0.365176 0.04 0 0.370358 0.04 0 0.375656 0.04 0 0.381097 0.04 0 0.386706 0.04 0 0.392504 0.04 0 0.39851 0.04 0 0.404747 0.04 0 0.411235 0.04 0 0.418002 0.04 0 0.425074 0.04 0 0.432486 0.04 0 0.440274 0.04 0 0.448484 0.04 0 0.457165 0.04 0 0.466379 0.04 0 0.476192 0.04 0 0.486675 0.04 0 0.497883 0.04 0 0.509783 0.04 0 0.522041 0.04 0 0.534178 0.04 0 0.546162 0.04 0 0.558022 0.04 0 0.569812 0.04 0 0.581573 0.04 0 0.593325 0.04 0 0.605085 0.04 0 0.607701 0.04 0 0.610241 0.04 0 0.612735 0.04 0 0.615197 0.04 0 0.617637 0.04 0 0.62006 0.04 0 0.62247 0.04 0 0.624869 0.04 0 0.627262 0.04 0 0.629651 0.04 0 0.632033 0.04 0 0.634411 0.04 0 0.636785 0.04 0 0.639155 0.04 0 0.641524 0.04 0 0.643891 0.04 0 0.646256 0.04 0 0.648619 0.04 0 0.650982 0.04 0 0.653344 0.04 0 0.655705 0.04 0 0.658065 0.04 0 0.660424 0.04 0 0.662782 0.04 0 0.665139 0.04 0 0.667499 0.04 0 0.669861 0.04 0 0.672224 0.04 0 0.674585 0.04 0 0.676944 0.04 0 0.679299 0.04 0 0.681661 0.04 0 0.684047 0.04 0 0.686465 0.04 0 0.688957 0.04 0 0.691514 0.04 0 0.694213 0.04 0 0.697055 0.04 0 0.700139 0.04 0 0.703498 0.04 0 0.707196 0.04 0 0.711246 0.04 0 0.71563 0.04 0 0.720283 0.04 0 0.725115 0.04 0 0.730043 0.04 0 0.735016 0.04 0 0.740006 0.04 0 0.745002 0.04 0 0.750001 0.04 0 0.755 0.04 0 0.76 0.04 0 0.765 0.04 0 0.77 0.04 0 0.775 0.04 0 0.78 0.04 0 0.785 0.04 0 0.79 0.04 0 0.795 0.04 0 0.8 0.04 0 0.805 0.04 0 0.81 0.04 0 0.815 0.04 0 0.82 0.04 0 0.825 0.04 0 0.83 0.04 0 0.835 0.04 0 0.84 0.04 0 0.845 0.04 0 0.85 0.04 0 0.855 0.04 0 0.86 0.04 0 0.865 0.04 0 0.87 0.04 0 0.875 0.04 0 0.88 0.04 0 0.885 0.04 0 0.89 0.04 0 0.895 0.04 0 0.9 0.04 0 0.905 0.04 0 0.91 0.04 0 0.915 0.04 0 0.92 0.04 0 0.925 0.04 0 0.93 0.04 0 0.935 0.04 0 0.94 0.04 0 0.945 0.04 0 0.95 0.04 0 0.955 0.04 0 0.96 0.04 0 0.965 0.04 0 0.97 0.04 0 0.975 0.04 0 0.98 0.04 0 0.985 0.04 0 0.99 0.04 0 0.995 0.04 0 1 0.04 0 0 0.06 0 0.005 0.06 0 0.01 0.06 0 0.015 0.06 0 0.02 0.06 0 0.025 0.06 0 0.03 0.06 0 0.035 0.06 0 0.04 0.06 0 0.045 0.06 0 0.05 0.06 0 0.055 0.06 0 0.06 0.06 0 0.065 0.06 0 0.07 0.06 0 0.075 0.06 0 0.08 0.06 0 0.085 0.06 0 0.09 0.06 0 0.095 0.06 0 0.1 0.06 0 0.105 0.06 0 0.11 0.06 0 0.115 0.06 0 0.12 0.06 0 0.125 0.06 0 0.13 0.06 0 0.135 0.06 0 0.14 0.06 0 0.145 0.06 0 0.15 0.06 0 0.155 0.06 0 0.16 0.06 0 0.165 0.06 0 0.17 0.06 0 0.175 0.06 0 0.18 0.06 0 0.185 0.06 0 0.19 0.06 0 0.195 0.06 0 0.2 0.06 0 0.205 0.06 0 0.21 0.06 0 0.215 0.06 0 0.22 0.06 0 0.225 0.06 0 0.23 0.06 0 0.235 0.06 0 0.24 0.06 0 0.245 0.06 0 0.25 0.06 0 0.255 0.06 0 0.26 0.06 0 0.265 0.06 0 0.27 0.06 0 0.275 0.06 0 0.28 0.06 0 0.285 0.06 0 0.29 0.06 0 0.295 0.06 0 0.3 0.06 0 0.305 0.06 0 0.31 0.06 0 0.315 0.06 0 0.32 0.06 0 0.325 0.06 0 0.33 0.06 0 0.335 0.06 0 0.340001 0.06 0 0.345003 0.06 0 0.35001 0.06 0 0.35503 0.06 0 0.360077 0.06 0 0.365176 0.06 0 0.370358 0.06 0 0.375656 0.06 0 0.381097 0.06 0 0.386706 0.06 0 0.392504 0.06 0 0.39851 0.06 0 0.404747 0.06 0 0.411235 0.06 0 0.418002 0.06 0 0.425074 0.06 0 0.432486 0.06 0 0.440274 0.06 0 0.448484 0.06 0 0.457165 0.06 0 0.466379 0.06 0 0.476192 0.06 0 0.486675 0.06 0 0.497883 0.06 0 0.509783 0.06 0 0.522041 0.06 0 0.534178 0.06 0 0.546162 0.06 0 0.558022 0.06 0 0.569812 0.06 0 0.581573 0.06 0 0.593325 0.06 0 0.605085 0.06 0 0.607701 0.06 0 0.610241 0.06 0 0.612735 0.06 0 0.615197 0.06 0 0.617637 0.06 0 0.62006 0.06 0 0.62247 0.06 0 0.624869 0.06 0 0.627262 0.06 0 0.629651 0.06 0 0.632033 0.06 0 0.634411 0.06 0 0.636785 0.06 0 0.639155 0.06 0 0.641524 0.06 0 0.643891 0.06 0 0.646256 0.06 0 0.648619 0.06 0 0.650982 0.06 0 0.653344 0.06 0 0.655705 0.06 0 0.658065 0.06 0 0.660424 0.06 0 0.662782 0.06 0 0.665139 0.06 0 0.667499 0.06 0 0.669861 0.06 0 0.672224 0.06 0 0.674585 0.06 0 0.676944 0.06 0 0.679299 0.06 0 0.681661 0.06 0 0.684047 0.06 0 0.686465 0.06 0 0.688957 0.06 0 0.691514 0.06 0 0.694213 0.06 0 0.697055 0.06 0 0.700139 0.06 0 0.703498 0.06 0 0.707196 0.06 0 0.711246 0.06 0 0.71563 0.0
[...]
			<PointData Scalars="VitesseX">
				<DataArray Name="VitesseX" type="Float32" format="ascii">
 0 -1.6151e-15 -1.48518e-15 -5.85234e-16 -1.55994e-16 -2.58323e-15 2.82202e-15 5.77894e-17 -9.41365e-17 5.45262e-15 -6.67447e-15 6.14229e-15 -6.96251e-16 1.54488e-15 -3.30683e-15 -8.48282e-15 3.55988e-15 1.26424e-14 -5.56041e-15 9.25054e-15 -8.16825e-16 -3.59033e-15 4.19417e-15 3.2214e-15 -3.52945e-17 -2.01018e-14 2.02528e-14 -1.94207e-14 1.85891e-14 1.26931e-14 4.74469e-16 -3.43065e-15 3.14787e-15 -1.0131e-14 9.62304e-15 1.28506e-14 -6.80796e-15 -2.46648e-14 1.45705e-14 1.06137e-14 6.54289e-15 1.17895e-14 -1.02966e-14 -5.76477e-15 6.71627e-15 3.72249e-14 -1.66157e-14 7.64151e-15 2.69712e-14 1.30385e-14 5.17279e-15 4.68894e-14 2.20141e-14 5.29593e-16 5.74071e-14 6.72944e-14 8.83384e-14 9.95235e-13 8.08134e-12 6.46571e-11 4.77777e-10 3.30395e-09 2.12604e-08 1.26883e-07 6.99429e-07 3.54429e-06 1.64187e-05 6.90705e-05 0.000261775 0.000885372 0.00264384 0.00689723 0.0156056 0.0306297 0.0527063 0.0811081 0.114341 0.151049 0.190392 0.231969 0.275643 0.321416 0.369361 0.419602 0.472296 0.527623 0.585772 0.646904 0.711072 0.778 0.846456 0.91227 0.96202 0.964767 0.950757 0.939408 0.932603 0.929444 0.928171 0.927594 0.927303 0.927255 0.927203 0.92714 0.927067 0.926986 0.926903 0.926827 0.92677 0.92674 0.926733 0.926822 0.92693 0.926851 0.926702 0.926606 0.92654 0.926514 0.926678 0.926783 0.926476 0.92579 0.925248 0.924734 0.924515 0.924661 0.926008 0.926725 0.926714 0.925687 0.92567 0.91939 0.912318 0.916317 0.879791 0.88428 0.809777 0.800993 0.693671 0.627039 0.501995 0.384076 0.260387 0.155318 0.0792747 0.0349572 0.0138669 0.00518811 0.00188688 0.000676285 0.000240038 8.44669e-05 2.94594e-05 1.01754e-05 3.47756e-06 1.17487e-06 3.92035e-07 1.29102e-07 4.19282e-08 1.34206e-08 4.23173e-09 1.31378e-09 4.01428e-10 1.20652e-10 3.57059e-11 1.04603e-11 3.04483e-12 7.15962e-13 1.84302e-13 1.33554e-13 7.33975e-14 -1.19797e-13 1.91807e-14 5.45876e-14 -1.00842e-13 1.92818e-14 -1.47142e-13 -3.59993e-14 -7.22646e-14 1.21862e-13 -1.52245e-13 -7.12688e-14 4.01887e-14 -1.02063e-13 -7.16977e-14 -1.23645e-13 4.01049e-14 -8.85195e-14 -2.69319e-14 -6.09562e-14 -3.15002e-14 -1.20457e-13 -3.51606e-14 -2.74286e-14 9.27217e-16 -6.62858e-14 3.17922e-15 -6.4979e-14 8.79188e-14 3.01753e-14 0 0 -3.67661e-16 5.00073e-16 1.52369e-16 -1.6941e-17 8.71658e-16 -1.30186e-15 5.26931e-16 -8.52562e-16 -1.26181e-16 5.14954e-15 -2.68958e-15 -1.31997e-15 3.12731e-15 -3.87979e-16 -3.17762e-16 4.59828e-15 -3.52843e-15 1.05988e-14 -1.24826e-15 5.46042e-15 -4.89296e-15 1.22606e-14 -8.69217e-15 7.29473e-15 -5.068e-15 -2.09891e-14 1.85558e-14 6.68952e-15 -6.97567e-16 -2.0473e-16 1.14461e-14 -1.40341e-14 1.28204e-15 1.78064e-14 -1.2861e-14 4.99153e-15 9.86777e-15 -1.90095e-14 1.98651e-14 3.0853e-15 -6.25282e-15 1.57296e-14 2.93641e-16 1.06601e-14 -7.58359e-15 2.03436e-14 1.09959e-15 1.77198e-14 1.11466e-15 3.02313e-14 1.73621e-14 1.86205e-14 4.41546e-14 3.35893e-14 1.05814e-13 1.25942e-13 8.92893e-13 8.15985e-12 6.44857e-11 4.77887e-10 3.30388e-09 2.12604e-08 1.26883e-07 6.99429e-07 3.54429e-06 1.64187e-05 6.90705e-05 0.000261775 0.000885372 0.00264384 0.00689723 0.0156056 0.0306297 0.0527063 0.0811081 0.114341 0.151049 0.190392 0.231969 0.275643 0.321416 0.369361 0.419602 0.472296 0.527623 0.585772 0.646904 0.711072 0.778 0.846456 0.91227 0.96202 0.964767 0.950757 0.939408 0.932603 0.929444 0.928171 0.927594 0.927303 0.927255 0.927203 0.92714 0.927067 0.926986 0.926903 0.926827 0.92677 0.92674 0.926733 0.926822 0.92693 0.926851 0.926702 0.926606 0.92654 0.926514 0.926678 0.926783 0.926476 0.92579 0.925248 0.924734 0.924515 0.924661 0.926008 0.926725 0.926714 0.925687 0.92567 0.91939 0.912318 0.916317 0.879791 0.88428 0.809777 0.800993 0.693671 0.627039 0.501995 0.384076 0.260387 0.155318 0.0792747 0.0349572 0.0138669 0.00518811 0.00188688 0.000676285 0.000240038 8.44669e-05 2.94594e-05 1.01754e-05 3.47756e-06 1.17487e-06 3.92035e-07 1.29102e-07 4.19282e-08 1.34207e-08 4.23162e-09 1.31374e-09 4.01437e-10 1.20798e-10 3.56679e-11 1.04126e-11 3.01816e-12 9.19255e-13 2.16146e-13 2.67521e-15 -4.06125e-14 9.26437e-14 -1.10842e-13 1.74334e-14 -6.89723e-14 -3.43544e-14 1.27513e-14 -4.92194e-15 -9.20771e-14 4.52681e-14 -9.26845e-14 -6.08678e-14 -8.81623e-14 -8.97799e-14 -5.18696e-14 1.68482e-14 -1.00664e-13 -3.70082e-14 -2.95397e-14 -1.11903e-13 -3.90319e-14 -1.36691e-13 -2.78193e-15 -7.06227e-14 -3.43483e-14 3.98237e-14 -5.35849e-14 -2.96405e-14 8.63902e-15 8.45191e-14 0 0 -7.10186e-16 1.07964e-15 1.5852e-15 1.22418e-15 -1.43389e-15 -4.21533e-17 1.7438e-15 2.70253e-16 -2.34037e-15 3.31097e-15 1.12985e-15 -4.59955e-15 1.01685e-14 -3.14724e-15 5.59783e-15 4.20028e-15 -8.98942e-15 1.06463e-15 1.20414e-14 1.06613e-14 6.6142e-15 -6.58185e-15 -1.2434e-14 5.06625e-15 6.46306e-15 -1.87544e-14 1.54414e-14 1.20782e-14 -6.25222e-16 -2.29681e-14 3.52893e-15 -6.12744e-15 8.72286e-15 1.03684e-14 -1.6708e-14 1.68134e-14 1.42378e-14 -8.72256e-15 1.28256e-14 7.08522e-15 -1.6339e-14 4.72377e-14 -1.5362e-15 -3.87651e-15 1.58989e-14 2.2063e-14 -1.41769e-14 3.11299e-14 -1.30212e-15 1.26906e-14 -1.91752e-14 4.59078e-14 6.21599e-14 4.96448e-14 3.37519e-14 1.95818e-13 9.28733e-13 8.13407e-12 6.43735e-11 4.77919e-10 3.30377e-09 2.12604e-08 1.26883e-07 6.99429e-07 3.54429e-06 1.64187e-05 6.90705e-05 0.000261775 0.000885372 0.00264384 0.00689723 0.0156056 0.0306297 0.0527063 0.0811081 0.114341 0.151049 0.190392 0.231969 0.275643 0.321416 0.369361 0.419602 0.472296 0.527623 0.585772 0.646904 0.711072 0.778 0.846456 0.91227 0.96202 0.964767 0.950757 0.939408 0.932603 0.929444 0.928171 0.927594 0.927303 0.927255 0.927203 0.92714 0.927067 0.926986 0.926903 0.926827 0.92677 0.92674 0.926733 0.926822 0.92693 0.926851 0.926702 0.926606 0.92654 0.926514 0.926678 0.926783 0.926476 0.92579 0.925248 0.924734 0.924515 0.924661 0.926008 0.926725 0.926714 0.925687 0.92567 0.91939 0.912318 0.916317 0.879791 0.88428 0.809777 0.800993 0.693671 0.627039 0.501995 0.384076 0.260387 0.155318 0.0792747 0.0349572 0.0138669 0.00518811 0.00188688 0.000676285 0.000240038 8.44669e-05 2.94594e-05 1.01754e-05 3.47756e-06 1.17487e-06 3.92035e-07 1.29102e-07 4.19282e-08 1.34207e-08 4.23162e-09 1.31373e-09 4.01424e-10 1.20834e-10 3.56944e-11 1.05025e-11 3.01591e-12 1.03573e-12 1.01049e-13 -7.1125e-14 -9.52525e-14 5.39889e-14 5.6722e-14 -4.0613e-14 -5.67243e-14 4.23582e-14 9.28833e-14 1.35618e-14 -1.24806e-13 5.00117e-14 -1.06856e-13 -5.95089e-16 -1.01629e-13 -6.91183e-14 -7.49009e-15 -1.24111e-14 -1.75497e-13 -4.64907e-14 -1.08151e-13 -6.98963e-14 -6.26435e-14 -1.89466e-13 4.98275e-14 -5.90024e-14 2.80314e-15 -7.12993e-14 -6.55543e-14 4.64316e-14 -4.02581e-15 2.33771e-14 0 0 3.99415e-18 -9.70832e-16 -3.45873e-16 5.36552e-17 -1.61454e-15 3.63982e-15 3.34083e-15 1.78336e-15 -6.93877e-16 -2.76219e-15 1.36714e-15 1.31384e-15 3.90451e-15 4.36588e-16 6.58526e-15 5.49513e-15 -3.14556e-15 -7.38121e-15 1.25627e-14 9.43171e-15 -1.52189e-15 -1.22343e-14 -8.563e-15 1.31634e-14 -7.16842e-15 2.27988e-14 -1.26243e-14 2.36378e-14 -5.70084e-15 -2.36917e-14 -1.05906e-14 9.90832e-15 -5.15443e-15 4.20474e-14 -2.2233e-14 -1.13123e-14 9.37949e-15 1.47856e-14 1.87626e-14 -3.76158e-16 6.30254e-15 -9.59432e-16 2.08229e-14 -8.57496e-15 5.73643e-14 1.12526e-14 -1.51089e-14 3.71127e-14 -2.27985e-14 2.42181e-14 -1.28333e-14 5.54672e-14 4.19295e-14 1.15285e-13 3.15943e-15 1.69598e-13 9.61162e-13 8.04768e-12 6.44969e-11 4.77793e-10 3.30374e-09 2.12604e-08 1.26883e-07 6.99429e-07 3.54429e-06 1.64187e-05 6.90705e-05 0.000261775 0.000885372 0.00264384 0.00689723 0.0156056 0.0306297 0.0527063 0.0811081 0.114341 0.151049 0.190392 0.231969 0.275643 0.321416 0.369361 0.419602 0.472296 0.527623 0.585772 0.646904 0.711072 0.778 0.846456 0.91227 0.96202 0.964767 0.950757 0.939408 0.932603 0.929444 0.928171 0.927594 0.927303 0.927255 0.927203 0.92714 0.927067 0.926986 0.926903 0.926827 0.92677 0.92674 0.926733 0.926822 0.92693 0.926851 0.926702 0.926606 0.92654 0.926514 0.926678 0.926783 0.926476 0.92579 0.925248 0.924734 0.924515 0.924661 0.926008 0.926725 0.926714 0.925687 0.92567 0.91939 0.912318 0.916317 0.879791 0.88428 0.809777 0.800993 0.693671 0.627039 0.501995 0.384076 0.260387 0.155318 0.0792747 0.0349572 0.0138669 0.00518811 0.00188688 0.000676285 0.000240038 8.44669e-05 2.94594e-05 1.01754e-05 3.47756e-06 1.17487e-06 3.92035e-07 1.29102e-07 4.19282e-08 1.34206e-08 4.23169e-09 1.31381e-09 4.01532e-10 1.20682e-10 3.58292e-11 1.05172e-11 2.91008e-12 9.4982e-13 7.41103e-15 9.15011e-14 -1.51993e-13 -4.24776e-14 1.21796e-13 -2.54462e-14 1.86778e-13 -5.67289e-15 -4.96058e-15 8.13776e-14 -9.35019e-14 -7.62878e-14 -6.7368e-14 -1.23563e-13 2.10899e-14 -2.54638e-15 6.83604e-14 -8.96344e-14 -2.03445e-13 -3.23553e-14 -1.32943e-13 -2.44669e-13 3.74268e-14 -9.83726e-15 -1.34223e-13 8.30792e-14 -2.28477e-13 -5.08068e-14 4.031e-14 4.75204e-14 7.41224e-15 -4.54927e-15 0 0 1.73851e-15 3.3625e-15 2.82308e-16 1.04463e-16 3.76468e-17 -2.44691e-15 2.47239e-15 7.97534e-15 -2.18258e-16 -3.79381e-15 -1.40333e-15 5.91144e-15 -1.00773e-14 3.24978e-15 8.69288e-15 1.34991e-14 -2.73548e-15 7.15617e-15 -6.02861e-15 4.9412e-15 -3.51116e-15 9.86388e-15 -8.88287e-15 -3.17339e-15 -1.3411e-14 1.25811e-14 -7.07068e-15 -6.57381e-16 -1.25638e-14 1.9029e-14 5.11246e-15 -4.53503e-15 6.78873e-15 4.30924e-14 -1.14327e-14 -2.07318e-14 6.77648e-15 5.86871e-15 1.29972e-14 -2.07083e-14 6.45795e-15 6.61616e-15 3.38035e-14 -5.06819e-15 1.81441e-14 7.38111e-14 -2.0872e-14 1.97735e-14 -5.05518e-15 2.83273e-14 2.57914e-14 4.83913e-14 -2.61671e-14 8.17399e-14 1.14839e-13 2.45896e-13 7.89308e-13 8.11369e-12 6.44462e-11 4.77822e-10 3.30381e-09 2.12603e-08 1.26883e-07 6.99429e-07 3.54429e-06 1.64187e-05 6.90705e-05 0.000261775 0.000885372 0.00264384 0.00689723 0.0156056 0.0306297 0.0527063 0.0811081 0.114341 0.151049 0.190392 0.231969 0.275643 0.321416 0.369361 0.419602 0.472296 0.527623 0.585772 0.646904 0.711072 0.778 0.846456 0.91227 0.96202 0.964767 0.950757 0.939408 0.932603 0.929444 0.928171 0.927594 0.927303 0.927255 0.927203 0.92714 0.927067 0.926986 0.926903 0.926827 0.92677 0.92674 0.926733 0.926822 0.92693 0.926851 0.926702 0.926606 0.92654 0.926514 0.926678 0.926783 0.926476 0.92579 0.925248 0.924734 0.924515 0.924661 0.926008 0.926725 0.926714 0.925687 0.92567 0.91939 0.912318 0.916317 0.879791 0.88428 0.809777 0.800993 0.693671 0.627039 0.501995 0.384076 0.260387 0.155318 0.0792747 0.0349572 0.0138669 0.00518811 0.00188688 0.000676285 0.000240038 8.44669e-05 2.94594e-05 1.01754e-05 3.47756e-06 1.17487e-06 3.92035e-07 1.29102e-07 4.19283e-08 1.34207e-08 4.2317e-09 1.31384e-09 4.016e-10 1.20768e-10 3.57896e-11 1.03619e-11 2.80739e-12 8.51611e-13 1.42201e-13 8.68286e-14 -1.51408e-13 9.18835e-14 1.25778e-13 -1.47724e-15 2.23494e-13 -1.91407e-13 2.90086e-16 2.74506e-14 -1.05409e-13 -1.6381e-13 1.06405e-13 9.71611e-14 -3.02679e-14 -4.98488e-14 2.96051e-14 -9.62436e-14 -1.754e-13 3.18744e-14 -1.11533e-13 -3.16159e-13 5.35664e-14 -3.43891e-14 -2.47051e-13 2.25556e-14 -2.57978e-13 1.20812e-13 -3.15173e-14 -8.97283e-15 -1.22879e-14 8.6914e-14 0 0 1.16889e-15 8.34062e-15 3.53679e-15 2.42785e-15 -3.88995e-15 -6.83203e-15 7.54663e-16 1.45355e-14 1.97548e-15 -1.24148e-14 8.24022e-15 1.93978e-15 -1.23365e-14 -3.19897e-15 7.56359e-15 1.87717e-14 2.54059e-15 4.44608e-15 -1.35262e-15 6.03935e-16 1.54455e-14 1.07057e-14 -4.90204e-15 -3.71658e-14 -9.52481e-15 4.28663e-15 -1.45423e-14 -1.92239e-14 -8.88093e-16 4.03893e-14 1.21411e-14 -9.92562e-15 2.86369e-14 -3.1628e-15 2.67573e-14 -2.00326e-15 -2.11307e-14 1.73107e-14 -1.49962e-14 -2.61215e-14 -8.07196e-15 6.78708e-14 1.65367e-14 -1.53435e-14 5.74944e-15 1.1194e-13 -3.44376e-14 1.91129e-14 4.36915e-14 -2.16903e-14 5.10645e-14 6.24372e-14 -9.96529e-14 2.24277e-14 1.4653e-13 3.80686e-13 7.23205e-13 8.16183e-12 6.43312e-11 4.77901e-10 3.30385e-09 2.12602e-08 1.26883e-07 6.99429e-07 3.54429e-06 1.64187e-05 6.90705e-05 0.000261775 0.000885372 0.00264384 0.00689723 0.0156056 0.0306297 0.0527063 0.0811081 0.114341 0.151049 0.190392 0.231969 0.275643 0.321416 0.369361 0.419602 0.472296 0.527623 0.585772 0.646904 0.711072 0.778 0.846456 0.91227 0.96202 0.964767 0.950757 0.939408 0.932603 0.929444 0.928171 0.927594 0.927303 0.927255 0.927203 0.92714 0.927067 0.926986 0.926903 0.926827 0.92677 0.92674 0.926733 0.926822 0.92693 0.926851 0.926702 0.926606 0.92654 0.926514 0.926678 0.926783 0.926476 0.92579 0.925248 0.924734 0.924515 0.924661 0.926008 0.926725 0.926714 0.925687 0.92567 0.91939 0.912318 0.916317 0.879791 0.88428 0.809777 0.800993 0.693671 0.627039 0.501995 0.384076 0.260387 0.155318 0.0792747 0.0349572 0.0138669 0.00518811 0.00188688 0.000676285 0.000240038 8.44669e-05 2.94594e-05 1.01754e-05 3.47756e-06 1.17487e-06 3.92035e-07 1.29102e-07 4.19284e-08 1.34208e-08 4.23174e-09 1.31383e-09 4.01538e-10 1.20896e-10 3.56801e-11 1.03299e-11 2.83567e-12 7.52953e-13 2.23668e-13 -2.37778e-14 -3.48126e-14 7.12985e-14 3.61856e-13 -1.31735e-14 -2.75054e-15 -1.99143e-13 2.31137e-14 -1.07229e-13 -1.61369e-13 -4.29695e-14 1.67368e-13 4.9072e-13 -8.91078e-14 -1.54755e-13 -5.99888e-14 -1.95395e-13 -5.33911e-14 2.09963e-14 -1.41084e-13 -1.19606e-13 -4.65149e-14 -2.75044e-13 -1.55662e-13 -1.25507e-13 1.63819e-14 5.49015e-14 -1.64282e-13 -2.55027e-14 2.35694e-14 9.15943e-14 0
				</DataArray>
				<DataArray Name="VitesseY" type="Float32" format="ascii">