<?xml version="1.0"?>
<VTKFile type="PolyData">
	<PolyData>
		<Piece NumberOfPoints="1206" NumberOfPolys="1000">
			<Points>
				<DataArray type="Float32" NumberOfComponents="3" format="ascii">
 0 0 0 0.005 0 0 0.01 0 0 0.015 0 0 0.02 0 0 0.025 0 0 0.03 0 0 0.035 0 0 0.04 0 0 0.045 0 0 0.05 0 0 0.055 0 0 0.06 0 0 0.065 0 0 0.07 0 0 0.075 0 0 0.08 0 0 0.085 0 0 0.09 0 0 0.095 0 0 0.1 0 0 0.105 0 0 0.11 0 0 0.115 0 0 0.12 0 0 0.125 0 0 0.13 0 0 0.135 0 0 0.14 0 0 0.145 0 0 0.15 0 0 0.155 0 0 0.16 0 0 0.165 0 0 0.17 0 0 0.175 0 0 0.18 0 0 0.185 0 0 0.19 0 0 0.195 0 0 0.2 0 0 0.205 0 0 0.21 0 0 0.215 0 0 0.22 0 0 0.225 0 0 0.23 0 0 0.235 0 0 0.24 0 0 0.245 0 0 0.25 0 0 0.255 0 0 0.26 0 0 0.265 0 0 0.27 0 0 0.275 0 0 0.28 0 0 0.285 0 0 0.29 0 0 0.295 0 0 0.3 0 0 0.305 0 0 0.31 0 0 0.315 0 0 0.32 0 0 0.325 0 0 0.33 0 0 0.335 0 0 0.34 0 0 0.345 0 0 0.35 0 0 0.355 0 0 0.36 0 0 0.365001 0 0 0.370003 0 0 0.375009 0 0 0.38003 0 0 0.385082 0 0 0.390199 0 0 0.395421 0 0 0.400791 0 0 0.406348 0 0 0.412126 0 0 0.418155 0 0 0.424466 0 0 0.431096 0 0 0.438084 0 0 0.445476 0 0 0.453328 0 0 0.461707 0 0 0.470692 0 0 0.480374 0 0 0.490855 0 0 0.502205 0 0 0.514319 0 0 0.526602 0 0 0.538683 0 0 0.550595 0 0 0.562406 0 0 0.574178 0 0 0.585949 0 0 0.588566 0 0 0.591107 0 0 0.593602 0 0 0.596066 0 0 0.598507 0 0 0.600931 0 0 0.603342 0 0 0.605743 0 0 0.608137 0 0 0.610528 0 0 0.612912 0 0 0.615291 0 0 0.617666 0 0 0.620039 0 0 0.622411 0 0 0.624781 0 0 0.627149 0 0 0.629515 0 0 0.631878 0 0 0.63424 0 0 0.636602 0 0 0.638966 0 0 0.641331 0 0 0.6437 0 0 0.646076 0 0 0.648469 0 0 0.650899 0 0 0.653387 0 0 0.655984 0 0 0.658697 0 0 0.6616 0 0 0.664729 0 0 0.668165 0 0 0.671939 0 0 0.67607 0 0 0.680523 0 0 0.685227 0 0 0.690089 0 0 0.695033 0 0 0.700012 0 0 0.705004 0 0 0.710001 0 0 0.715 0 0 0.72 0 0 0.725 0 0 0.73 0 0 0.735 0 0 0.74 0 0 0.745 0 0 0.75 0 0 0.755 0 0 0.76 0 0 0.765 0 0 0.77 0 0 0.775 0 0 0.78 0 0 0.785 0 0 0.79 0 0 0.795 0 0 0.8 0 0 0.805 0 0 0.81 0 0 0.815 0 0 0.82 0 0 0.825 0 0 0.83 0 0 0.835 0 0 0.84 0 0 0.845 0 0 0.85 0 0 0.855 0 0 0.86 0 0 0.865 0 0 0.87 0 0 0.875 0 0 0.88 0 0 0.885 0 0 0.89 0 0 0.895 0 0 0.9 0 0 0.905 0 0 0.91 0 0 0.915 0 0 0.92 0 0 0.925 0 0 0.93 0 0 0.935 0 0 0.94 0 0 0.945 0 0 0.95 0 0 0.955 0 0 0.96 0 0 0.965 0 0 0.97 0 0 0.975 0 0 0.98 0 0 0.985 0 0 0.99 0 0 0.995 0 0 1 0 0 0 0.02 0 0.005 0.02 0 0.01 0.02 0 0.015 0.02 0 0.02 0.02 0 0.025 0.02 0 0.03 0.02 0 0.035 0.02 0 0.04 0.02 0 0.045 0.02 0 0.05 0.02 0 0.055 0.02 0 0.06 0.02 0 0.065 0.02 0 0.07 0.02 0 0.075 0.02 0 0.08 0.02 0 0.085 0.02 0 0.09 0.02 0 0.095 0.02 0 0.1 0.02 0 0.105 0.02 0 0.11 0.02 0 0.115 0.02 0 0.12 0.02 0 0.125 0.02 0 0.13 0.02 0 0.135 0.02 0 0.14 0.02 0 0.145 0.02 0 0.15 0.02 0 0.155 0.02 0 0.16 0.02 0 0.165 0.02 0 0.17 0.02 0 0.175 0.02 0 0.18 0.02 0 0.185 0.02 0 0.19 0.02 0 0.195 0.02 0 0.2 0.02 0 0.205 0.02 0 0.21 0.02 0 0.215 0.02 0 0.22 0.02 0 0.225 0.02 0 0.23 0.02 0 0.235 0.02 0 0.24 0.02 0 0.245 0.02 0 0.25 0.02 0 0.255 0.02 0 0.26 0.02 0 0.265 0.02 0 0.27 0.02 0 0.275 0.02 0 0.28 0.02 0 0.285 0.02 0 0.29 0.02 0 0.295 0.02 0 0.3 0.02 0 0.305 0.02 0 0.31 0.02 0 0.315 0.02 0 0.32 0.02 0 0.325 0.02 0 0.33 0.02 0 0.335 0.02 0 0.34 0.02 0 0.345 0.02 0 0.35 0.02 0 0.355 0.02 0 0.36 0.02 0 0.365001 0.02 0 0.370003 0.02 0 0.375009 0.02 0 0.38003 0.02 0 0.385082 0.02 0 0.390199 0.02 0 0.395421 0.02 0 0.400791 0.02 0 0.406348 0.02 0 0.412126 0.02 0 0.418155 0.02 0 0.424466 0.02 0 0.431096 0.02 0 0.438084 0.02 0 0.445476 0.02 0 0.453328 0.02 0 0.461707 0.02 0 0.470692 0.02 0 0.480374 0.02 0 0.490855 0.02 0 0.502205 0.02 0 0.514319 0.02 0 0.526602 0.02 0 0.538683 0.02 0 0.550595 0.02 0 0.562406 0.02 0 0.574178 0.02 0 0.585949 0.02 0 0.588566 0.02 0 0.591107 0.02 0 0.593602 0.02 0 0.596066 0.02 0 0.598507 0.02 0 0.600931 0.02 0 0.603342 0.02 0 0.605743 0.02 0 0.608137 0.02 0 0.610528 0.02 0 0.612912 0.02 0 0.615291 0.02 0 0.617666 0.02 0 0.620039 0.02 0 0.622411 0.02 0 0.624781 0.02 0 0.627149 0.02 0 0.629515 0.02 0 0.631878 0.02 0 0.63424 0.02 0 0.636602 0.02 0 0.638966 0.02 0 0.641331 0.02 0 0.6437 0.02 0 0.646076 0.02 0 0.648469 0.02 0 0.650899 0.02 0 0.653387 0.02 0 0.655984 0.02 0 0.658697 0.02 0 0.6616 0.02 0 0.664729 0.02 0 0.668165 0.02 0 0.671939 0.02 0 0.67607 0.02 0 0.680523 0.02 0 0.685227 0.02 0 0.690089 0.02 0 0.695033 0.02 0 0.700012 0.02 0 0.705004 0.02 0 0.710001 0.02 0 0.715 0.02 0 0.72 0.02 0 0.725 0.02 0 0.73 0.02 0 0.735 0.02 0 0.74 0.02 0 0.745 0.02 0 0.75 0.02 0 0.755 0.02 0 0.76 0.02 0 0.765 0.02 0 0.77 0.02 0 0.775 0.02 0 0.78 0.02 0 0.785 0.02 0 0.79 0.02 0 0.795 0.02 0 0.8 0.02 0 0.805 0.02 0 0.81 0.02 0 0.815 0.02 0 0.82 0.02 0 0.825 0.02 0 0.83 0.02 0 0.835 0.02 0 0.84 0.02 0 0.845 0.02 0 0.85 0.02 0 0.855 0.02 0 0.86 0.02 0 0.865 0.02 0 0.87 0.02 0 0.875 0.02 0 0.88 0.02 0 0.885 0.02 0 0.89 0.02 0 0.895 0.02 0 0.9 0.02 0 0.905 0.02 0 0.91 0.02 0 0.915 0.02 0 0.92 0.02 0 0.925 0.02 0 0.93 0.02 0 0.935 0.02 0 0.94 0.02 0 0.945 0.02 0 0.95 0.02 0 0.955 0.02 0 0.96 0.02 0 0.965 0.02 0 0.97 0.02 0 0.975 0.02 0 0.98 0.02 0 0.985 0.02 0 0.99 0.02 0 0.995 0.02 0 1 0.02 0 0 0.04 0 0.005 0.04 0 0.01 0.04 0 0.015 0.04 0 0.02 0.04 0 0.025 0.04 0 0.03 0.04 0 0.035 0.04 0 0.04 0.04 0 0.045 0.04 0 0.05 0.04 0 0.055 0.04 0 0.06 0.04 0 0.065 0.04 0 0.07 0.04 0 0.075 0.04 0 0.08 0.04 0 0.085 0.04 0 0.09 0.04 0 0.095 0.04 0 0.1 0.04 0 0.105 0.04 0 0.11 0.04 0 0.115 0.04 0 0.12 0.04 0 0.125 0.04 0 0.13 0.04 0 0.135 0.04 0 0.14 0.04 0 0.145 0.04 0 0.15 0.04 0 0.155 0.04 0 0.16 0.04 0 0.165 0.04 0 0.17 0.04 0 0.175 0.04 0 0.18 0.04 0 0.185 0.04 0 0.19 0.04 0 0.195 0.04 0 0.2 0.04 0 0.205 0.04 0 0.21 0.04 0 0.215 0.04 0 0.22 0.04 0 0.225 0.04 0 0.23 0.04 0 0.235 0.04 0 0.24 0.04 0 0.245 0.04 0 0.25 0.04 0 0.255 0.04 0 0.26 0.04 0 0.265 0.04 0 0.27 0.04 0 0.275 0.04 0 0.28 0.04 0 0.285 0.04 0 0.29 0.04 0 0.295 0.04 0 0.3 0.04 0 0.305 0.04 0 0.31 0.04 0 0.315 0.04 0 0.32 0.04 0 0.325 0.04 0 0.33 0.04 0 0.335 0.04 0 0.34 0.04 0 0.345 0.04 0 0.35 0.04 0 0.355 0.04 0 0.36 0.04 0 0.365001 0.04 0 0.370003 0.04 0 0.375009 0.04 0 0.38003 0.04 0 0.385082 0.04 0 0.390199 0.04 0 0.395421 0.04 0 0.400791 0.04 0 0.406348 0.04 0 0.412126 0.04 0 0.418155 0.04 0 0.424466 0.04 0 0.431096 0.04 0 0.438084 0.04 0 0.445476 0.04 0 0.453328 0.04 0 0.461707 0.04 0 0.470692 0.04 0 0.480374 0.04 0 0.490855 0.04 0 0.502205 0.04 0 0.514319 0.04 0 0.526602 0.04 0 0.538683 0.04 0 0.550595 0.04 0 0.562406 0.04 0 0.574178 0.04 0 0.585949 0.04 0 0.588566 0.04 0 0.591107 0.04 0 0.593602 0.04 0 0.596066 0.04 0 0.598507 0.04 0 0.600931 0.04 0 0.603342 0.04 0 0.605743 0.04 0 0.608137 0.04 0 0.610528 0.04 0 0.612912 0.04 0 0.615291 0.04 0 0.617666 0.04 0 0.620039 0.04 0 0.622411 0.04 0 0.624781 0.04 0 0.627149 0.04 0 0.629515 0.04 0 0.631878 0.04 0 0.63424 0.04 0 0.636602 0.04 0 0.638966 0.04 0 0.641331 0.04 0 0.6437 0.04 0 0.646076 0.04 0 0.648469 0.04 0 0.650899 0.04 0 0.653387 0.04 0 0.655984 0.04 0 0.658697 0.04 0 0.6616 0.04 0 0.664729 0.04 0 0.668165 0.04 0 0.671939 0.04 0 0.67607 0.04 0 0.680523 0.04 0 0.685227 0.04 0 0.690089 0.04 0 0.695033 0.04 0 0.700012 0.04 0 0.705004 0.04 0 0.710001 0.04 0 0.715 0.04 0 0.72 0.04 0 0.725 0.04 0 0.73 0.04 0 0.735 0.04 0 0.74 0.04 0 0.745 0.04 0 0.75 0.04 0 0.755 0.04 0 0.76 0.04 0 0.765 0.04 0 0.77 0.04 0 0.775 0.04 0 0.78 0.04 0 0.785 0.04 0 0.79 0.04 0 0.795 0.04 0 0.8 0.04 0 0.805 0.04 0 0.81 0.04 0 0.815 0.04 0 0.82 0.04 0 0.825 0.04 0 0.83 0.04 0 0.835 0.04 0 0.84 0.04 0 0.845 0.04 0 0.85 0.04 0 0.855 0.04 0 0.86 0.04 0 0.865 0.04 0 0.87 0.04 0 0.875 0.04 0 0.88 0.04 0 0.885 0.04 0 0.89 0.04 0 0.895 0.04 0 0.9 0.04 0 0.905 0.04 0 0.91 0.04 0 0.915 0.04 0 0.92 0.04 0 0.925 0.04 0 0.93 0.04 0 0.935 0.04 0 0.94 0.04 0 0.945 0.04 0 0.95 0.04 0 0.955 0.04 0 0.96 0.04 0 0.965 0.04 0 0.97 0.04 0 0.975 0.04 0 0.98 0.04 0 0.985 0.04 0 0.99 0.04 0 0.995 0.04 0 1 0.04 0 0 0.06 0 0.005 0.06 0 0.01 0.06 0 0.015 0.06 0 0.02 0.06 0 0.025 0.06 0 0.03 0.06 0 0.035 0.06 0 0.04 0.06 0 0.045 0.06 0 0.05 0.06 0 0.055 0.06 0 0.06 0.06 0 0.065 0.06 0 0.07 0.06 0 0.075 0.06 0 0.08 0.06 0 0.085 0.06 0 0.09 0.06 0 0.095 0.06 0 0.1 0.06 0 0.105 0.06 0 0.11 0.06 0 0.115 0.06 0 0.12 0.06 0 0.125 0.06 0 0.13 0.06 0 0.135 0.06 0 0.14 0.06 0 0.145 0.06 0 0.15 0.06 0 0.155 0.06 0 0.16 0.06 0 0.165 0.06 0 0.17 0.06 0 0.175 0.06 0 0.18 0.06 0 0.185 0.06 0 0.19 0.06 0 0.195 0.06 0 0.2 0.06 0 0.205 0.06 0 0.21 0.06 0 0.215 0.06 0 0.22 0.06 0 0.225 0.06 0 0.23 0.06 0 0.235 0.06 0 0.24 0.06 0 0.245 0.06 0 0.25 0.06 0 0.255 0.06 0 0.26 0.06 0 0.265 0.06 0 0.27 0.06 0 0.275 0.06 0 0.28 0.06 0 0.285 0.06 0 0.29 0.06 0 0.295 0.06 0 0.3 0.06 0 0.305 0.06 0 0.31 0.06 0 0.315 0.06 0 0.32 0.06 0 0.325 0.06 0 0.33 0.06 0 0.335 0.06 0 0.34 0.06 0 0.345 0.06 0 0.35 0.06 0 0.355 0.06 0 0.36 0.06 0 0.365001 0.06 0 0.370003 0.06 0 0.375009 0.06 0 0.38003 0.06 0 0.385082 0.06 0 0.390199 0.06 0 0.395421 0.06 0 0.400791 0.06 0 0.406348 0.06 0 0.412126 0.06 0 0.418155 0.06 0 0.424466 0.06 0 0.431096 0.06 0 0.438084 0.06 0 0.445476 0.06 0 0.453328 0.06 0 0.461707 0.06 0 0.470692 0.06 0 0.480374 0.06 0 0.490855 0.06 0 0.502205 0.06 0 0.514319 0.06 0 0.526602 0.06 0 0.538683 0.06 0 0.550595 0.06 0 0.562406 0.06 0 0.574178 0.06 0 0.585949 0.06 0 0.588566 0.06 0 0.591107 0.06 0 0.593602 0.06 0 0.596066 0.06 0 0.598507 0.06 0 0.600931 0.06 0 0.603342 0.06 0 0.605743 0.06 0 0.608137 0.06 0 0.610528 0.06 0 0.612912 0.06 0 0.615291 0.06 0 0.617666 0.06 0 0.620039 0.06 0 0.622411 0.06 0 0.624781 0.06 0 0.627149 0.06 0 0.629515 0.06 0 0.631878 0.06 0 0.63424 0.06 0 0.636602 0.06 0 0.638966 0.06 0 0.641331 0.06 0 0.6437 0.06 0 0.646076 0.06 0 0.648469 0.06 0 0.650899 0.06 0 0.653387 0.06 0 0.655984 0.06 0 0.658697 0.06 0 0.6616 0.06 0 0.664729 0.06 0 0.668165 0.06 0 0.671939 0.06 0 0.67607 0.06 0 0.680523 0.06 0 0.685227 0.06 0 0.690089 0.06 0 0.695033 0.06 0 0.700012 0.06 0 0.705004 0.06 0 0.710001 0.06 0 0.715 0.06 0 0.72 0.06 0 0.725 0.06 0 0.73 0.06 0 0.735 0.06 0 0.74 0.06 0 0.745 0.06 0 0.75 0.06 0 0.755 0.06 0 0.76 0.06 0 0.765 0.06 0 0.77 0.06 0 0.775 0.06 0 0.78 0.06
[...]
			<PointData Scalars="VitesseX">
				<DataArray Name="VitesseX" type="Float32" format="ascii">
 0 -7.48568e-16 -9.76661e-16 -1.1125e-15 1.63551e-15 2.60181e-16 -3.07422e-15 -4.27675e-15 5.69048e-15 -3.4964e-15 -6.27568e-16 1.18953e-15 -2.67492e-15 2.37018e-15 3.14221e-15 -4.92909e-15 4.97815e-15 -6.14069e-15 2.61543e-15 -2.33649e-15 1.13709e-14 -3.66493e-15 5.97215e-15 -1.31408e-14 9.68466e-15 2.19486e-14 -1.83433e-14 9.27034e-15 -1.17576e-16 -2.70426e-14 2.29675e-14 8.88041e-16 7.28638e-15 -2.14364e-14 2.53775e-14 -1.55991e-14 1.93795e-14 1.0536e-14 -2.66259e-16 -1.79653e-14 6.21013e-15 2.44941e-15 -1.73565e-14 1.63948e-14 -1.34959e-15 9.54275e-15 -1.08563e-14 2.05261e-16 9.91807e-15 4.26027e-15 1.01125e-14 8.72446e-15 4.12869e-14 -3.09114e-14 4.10669e-14 2.30824e-14 2.52051e-14 5.62757e-14 -1.60906e-14 3.18861e-14 -1.15352e-14 9.94854e-14 1.22386e-13 1.19845e-12 1.21136e-11 1.0866e-10 9.02434e-10 6.93526e-09 4.90856e-08 3.18485e-07 1.88432e-06 1.01026e-05 4.87141e-05 0.000209349 0.000793027 0.00261419 0.00740166 0.0178294 0.0365335 0.0645263 0.100712 0.143046 0.189852 0.240226 0.293837 0.350666 0.410856 0.474642 0.542312 0.614149 0.690306 0.770439 0.852564 0.929107 0.973606 0.958652 0.944369 0.934299 0.929948 0.928316 0.927616 0.927411 0.927224 0.92708 0.926993 0.926958 0.926956 0.926941 0.926876 0.926736 0.926561 0.926383 0.926282 0.926267 0.926716 0.92664 0.925994 0.925117 0.924235 0.923673 0.923723 0.924032 0.925724 0.925342 0.926295 0.919259 0.895695 0.897867 0.852178 0.82607 0.753726 0.703198 0.586789 0.484898 0.354059 0.234969 0.134841 0.066142 0.0280808 0.0108014 0.00393666 0.00139477 0.000485463 0.000166515 5.63001e-05 1.87512e-05 6.14623e-06 1.9809e-06 6.27254e-07 1.9501e-07 5.9492e-08 1.7801e-08 5.22213e-09 1.50151e-09 4.23058e-10 1.16838e-10 3.15834e-11 8.40063e-12 2.21387e-12 5.87193e-13 4.27499e-14 6.74275e-14 2.20018e-14 8.99713e-14 -1.12133e-13 -9.0165e-14 3.17842e-14 1.17343e-13 -1.07515e-13 -9.23394e-14 -6.59667e-14 1.22563e-13 -7.28625e-14 9.31142e-14 -7.144e-14 -1.12663e-13 1.40071e-13 -5.95463e-14 -4.83189e-15 -1.17906e-13 -1.07611e-13 1.01579e-13 -1.15004e-13 2.44202e-14 -7.14678e-14 -5.91446e-14 -9.63165e-14 -6.45828e-14 6.29129e-15 1.78321e-14 -2.25233e-14 -5.98603e-14 3.82528e-15 -2.77383e-14 -1.13094e-13 9.92615e-14 -1.83433e-14 -1.05634e-14 -1.50413e-14 -3.43924e-14 0 0 -1.88952e-16 -8.75713e-16 1.81682e-16 1.32032e-15 -2.58576e-15 2.09042e-15 -3.69008e-16 -2.26533e-15 -1.03009e-15 -8.85115e-17 4.85707e-15 1.09885e-15 -6.68658e-15 1.05941e-14 -8.63576e-15 -9.11323e-16 6.48416e-16 -1.88528e-15 6.42632e-15 -4.59693e-15 6.88804e-15 1.06506e-14 -3.33989e-15 -7.34398e-15 2.36003e-15 2.04926e-14 -2.44501e-14 1.38457e-14 -7.82581e-15 -1.95696e-15 5.28325e-15 4.95519e-15 1.39254e-15 -2.33368e-14 2.79883e-14 -4.65712e-15 1.80602e-14 -1.19926e-14 2.01601e-16 6.87386e-15 -1.5894e-15 -1.31057e-15 -6.80353e-15 -8.72919e-16 7.1442e-15 -4.14515e-16 -1.47057e-14 2.52529e-14 3.24589e-14 -1.15949e-14 2.46046e-14 2.65993e-14 -2.29524e-14 3.4107e-14 2.43174e-14 1.07919e-14 4.6548e-14 1.58381e-14 2.7487e-14 6.23479e-15 4.53528e-14 1.42799e-13 1.20328e-12 1.21003e-11 1.08592e-10 9.02409e-10 6.93534e-09 4.90856e-08 3.18485e-07 1.88432e-06 1.01026e-05 4.87141e-05 0.000209349 0.000793027 0.00261419 0.00740166 0.0178294 0.0365335 0.0645263 0.100712 0.143046 0.189852 0.240226 0.293837 0.350666 0.410856 0.474642 0.542312 0.614149 0.690306 0.770439 0.852564 0.929107 0.973606 0.958652 0.944369 0.934299 0.929948 0.928316 0.927616 0.927411 0.927224 0.92708 0.926993 0.926958 0.926956 0.926941 0.926876 0.926736 0.926561 0.926383 0.926282 0.926267 0.926716 0.92664 0.925994 0.925117 0.924235 0.923673 0.923723 0.924032 0.925724 0.925342 0.926295 0.919259 0.895695 0.897867 0.852178 0.82607 0.753726 0.703198 0.586789 0.484898 0.354059 0.234969 0.134841 0.066142 0.0280808 0.0108014 0.00393666 0.00139477 0.000485463 0.000166515 5.63001e-05 1.87512e-05 6.14623e-06 1.9809e-06 6.27254e-07 1.9501e-07 5.94919e-08 1.7801e-08 5.22215e-09 1.50153e-09 4.23074e-10 1.16772e-10 3.16048e-11 8.49174e-12 2.18268e-12 5.214e-13 2.39434e-13 3.42158e-15 -1.2317e-14 -1.01665e-13 2.92494e-14 7.88164e-14 3.9054e-14 -2.40867e-14 -8.41912e-14 -9.29328e-14 8.55068e-14 -1.09664e-13 1.45057e-13 -6.2204e-14 -6.92756e-14 5.20529e-14 -4.09158e-14 -2.50404e-14 -8.69247e-14 4.04824e-14 -1.36179e-13 -1.00478e-13 7.07741e-16 4.51604e-14 -1.05222e-13 -1.139e-13 -2.97766e-14 -9.63036e-14 -7.41328e-15 5.20705e-14 -4.06796e-14 -6.28714e-14 1.3951e-14 -3.40894e-14 -3.61079e-14 -4.86581e-14 5.92563e-14 -3.35367e-14 4.47772e-14 -9.36827e-14 0 0 4.28796e-16 1.08999e-15 1.38702e-15 -1.56539e-15 1.98575e-15 2.40864e-15 -4.04005e-15 1.38038e-15 3.83018e-15 -2.84817e-15 2.51293e-15 4.51776e-15 -1.90537e-15 -2.30403e-16 -2.96823e-15 -7.7316e-15 1.04544e-14 7.09333e-15 -8.48481e-15 3.89675e-15 4.57441e-15 3.03059e-15 8.22887e-15 -5.96534e-15 -1.06716e-14 2.17407e-14 -1.99988e-14 8.40385e-15 -1.3204e-15 1.0794e-14 -1.30485e-15 -1.95945e-14 2.75982e-14 -2.80584e-14 2.43729e-14 -1.11448e-14 3.89218e-15 -1.46938e-14 2.70455e-14 8.35817e-15 -5.00282e-15 4.65828e-15 -2.10611e-14 1.71293e-14 -2.38642e-14 3.41783e-14 -2.76872e-14 1.13762e-14 3.58075e-14 2.47459e-14 3.06223e-14 7.6942e-15 -2.33533e-15 -2.03629e-14 3.94035e-14 3.4335e-14 8.61846e-15 4.01853e-14 2.47425e-14 1.78185e-14 3.22975e-14 1.24964e-13 1.27696e-12 1.20117e-11 1.08493e-10 9.02434e-10 6.93536e-09 4.90857e-08 3.18485e-07 1.88432e-06 1.01026e-05 4.87141e-05 0.000209349 0.000793027 0.00261419 0.00740166 0.0178294 0.0365335 0.0645263 0.100712 0.143046 0.189852 0.240226 0.293837 0.350666 0.410856 0.474642 0.542312 0.614149 0.690306 0.770439 0.852564 0.929107 0.973606 0.958652 0.944369 0.934299 0.929948 0.928316 0.927616 0.927411 0.927224 0.92708 0.926993 0.926958 0.926956 0.926941 0.926876 0.926736 0.926561 0.926383 0.926282 0.926267 0.926716 0.92664 0.925994 0.925117 0.924235 0.923673 0.923723 0.924032 0.925724 0.925342 0.926295 0.919259 0.895695 0.897867 0.852178 0.82607 0.753726 0.703198 0.586789 0.484898 0.354059 0.234969 0.134841 0.066142 0.0280808 0.0108014 0.00393666 0.00139477 0.000485463 0.000166515 5.63001e-05 1.87512e-05 6.14623e-06 1.9809e-06 6.27254e-07 1.9501e-07 5.94919e-08 1.78009e-08 5.22216e-09 1.50156e-09 4.23014e-10 1.16828e-10 3.15687e-11 8.54528e-12 2.14554e-12 5.89249e-13 2.28134e-13 4.64319e-14 -2.1384e-14 -7.06159e-14 -2.91433e-14 -5.4765e-15 1.70978e-13 1.9819e-14 -8.99749e-14 -2.62363e-14 6.04028e-14 -6.87195e-14 8.02246e-14 3.90844e-14 -4.2755e-14 1.84172e-14 -1.50242e-13 -2.45342e-14 -1.08113e-13 7.74703e-14 -1.38691e-13 -1.51345e-13 -5.9652e-15 -5.46435e-14 -1.09553e-13 -9.71304e-14 -5.4518e-14 3.29622e-14 -1.02007e-13 3.91576e-14 -7.91758e-14 3.00477e-14 -5.63641e-15 -9.10902e-14 4.20906e-14 -9.66519e-14 1.65348e-13 -1.35155e-13 -8.57597e-15 2.55532e-14 0 0 -6.2445e-17 1.42252e-15 1.87724e-15 -6.92303e-17 1.91739e-15 1.6308e-16 -2.37553e-15 2.56431e-15 5.31659e-15 2.07197e-15 -4.50402e-15 -2.58352e-15 6.10571e-15 -3.6967e-15 5.13972e-16 -4.81737e-15 5.51691e-15 1.27019e-14 -1.10384e-14 1.288e-14 1.14688e-16 -6.5217e-16 7.24138e-15 1.40626e-14 -1.10486e-15 -2.15636e-14 1.08127e-14 -1.2615e-14 -2.16272e-15 1.93212e-14 -7.21515e-15 -1.16192e-14 3.32122e-15 1.29031e-14 1.2848e-14 -7.08843e-15 -1.69865e-14 -1.29011e-16 2.04805e-14 8.12664e-15 -2.17237e-14 8.03233e-15 2.66411e-14 -2.62056e-15 -1.41323e-14 1.22639e-14 -2.27173e-14 1.90989e-14 2.65472e-14 6.70416e-14 -3.55962e-14 4.19133e-14 9.71788e-15 -6.94221e-15 4.58458e-15 2.67895e-14 2.27045e-14 1.96726e-15 3.35281e-14 1.94554e-14 8.91992e-14 1.01964e-13 1.2761e-12 1.20303e-11 1.08445e-10 9.02449e-10 6.9353e-09 4.90858e-08 3.18485e-07 1.88432e-06 1.01026e-05 4.87141e-05 0.000209349 0.000793027 0.00261419 0.00740166 0.0178294 0.0365335 0.0645263 0.100712 0.143046 0.189852 0.240226 0.293837 0.350666 0.410856 0.474642 0.542312 0.614149 0.690306 0.770439 0.852564 0.929107 0.973606 0.958652 0.944369 0.934299 0.929948 0.928316 0.927616 0.927411 0.927224 0.92708 0.926993 0.926958 0.926956 0.926941 0.926876 0.926736 0.926561 0.926383 0.926282 0.926267 0.926716 0.92664 0.925994 0.925117 0.924235 0.923673 0.923723 0.924032 0.925724 0.925342 0.926295 0.919259 0.895695 0.897867 0.852178 0.82607 0.753726 0.703198 0.586789 0.484898 0.354059 0.234969 0.134841 0.066142 0.0280808 0.0108014 0.00393666 0.00139477 0.000485463 0.000166515 5.63001e-05 1.87512e-05 6.14623e-06 1.9809e-06 6.27254e-07 1.9501e-07 5.9492e-08 1.7801e-08 5.22214e-09 1.50153e-09 4.23078e-10 1.16864e-10 3.15923e-11 8.42303e-12 2.32828e-12 3.50245e-13 2.96732e-13 1.637e-14 -1.62893e-13 1.3119e-13 -1.30934e-13 1.88557e-14 2.89211e-14 1.71394e-13 -1.94554e-13 1.04703e-13 -7.66458e-14 9.10301e-14 5.16656e-14 1.35083e-13 6.07928e-16 -2.11361e-13 -8.27984e-14 1.17361e-13 -2.14386e-13 1.57569e-13 -3.88405e-14 -7.95211e-14 -1.58345e-13 -1.64926e-13 -1.87908e-13 -7.46803e-14 -4.36964e-14 1.7668e-13 -1.40692e-13 -6.90494e-14 -8.87323e-14 7.44537e-14 -3.69274e-14 -1.27856e-15 5.04542e-14 -5.45819e-14 9.99726e-15 -1.1695e-13 -1.23789e-14 1.39659e-13 0 0 1.85072e-16 3.6635e-17 4.15409e-16 3.2392e-15 -2.07285e-15 6.59067e-16 6.33882e-15 -2.33987e-15 8.38384e-16 1.99921e-15 -4.50018e-15 -2.22837e-15 -1.09686e-15 1.076e-14 -1.00551e-15 -5.87896e-15 1.94085e-15 1.11039e-14 -2.48614e-15 5.60821e-15 1.56475e-15 7.77307e-15 5.19905e-16 1.58251e-15 3.52009e-15 -1.82846e-14 -8.76223e-16 2.40963e-15 -2.35056e-15 -7.5383e-16 -9.41826e-15 -1.55808e-15 9.87972e-16 -1.07444e-14 3.43504e-14 -6.6065e-16 -6.46449e-15 1.38791e-14 6.31733e-15 -1.10275e-15 -1.1733e-14 -1.47756e-14 3.42805e-14 1.62829e-14 5.53316e-15 -8.82113e-15 2.69615e-14 2.33946e-15 1.24668e-14 2.63788e-14 -1.18843e-14 4.57537e-14 5.20267e-15 4.16005e-14 -5.74817e-16 2.11961e-14 -8.01707e-15 -2.29867e-14 3.33874e-14 -9.61165e-15 1.23505e-13 1.88582e-13 1.17927e-12 1.21436e-11 1.08458e-10 9.02387e-10 6.93525e-09 4.90857e-08 3.18485e-07 1.88432e-06 1.01026e-05 4.87141e-05 0.000209349 0.000793027 0.00261419 0.00740166 0.0178294 0.0365335 0.0645263 0.100712 0.143046 0.189852 0.240226 0.293837 0.350666 0.410856 0.474642 0.542312 0.614149 0.690306 0.770439 0.852564 0.929107 0.973606 0.958652 0.944369 0.934299 0.929948 0.928316 0.927616 0.927411 0.927224 0.92708 0.926993 0.926958 0.926956 0.926941 0.926876 0.926736 0.926561 0.926383 0.926282 0.926267 0.926716 0.92664 0.925994 0.925117 0.924235 0.923673 0.923723 0.924032 0.925724 0.925342 0.926295 0.919259 0.895695 0.897867 0.852178 0.82607 0.753726 0.703198 0.586789 0.484898 0.354059 0.234969 0.134841 0.066142 0.0280808 0.0108014 0.00393666 0.00139477 0.000485463 0.000166515 5.63001e-05 1.87512e-05 6.14623e-06 1.9809e-06 6.27255e-07 1.9501e-07 5.9492e-08 1.7801e-08 5.22216e-09 1.50146e-09 4.23221e-10 1.16793e-10 3.18017e-11 8.40121e-12 2.51298e-12 2.51472e-13 2.02614e-13 -2.91052e-13 -4.0598e-15 -2.60593e-13 3.6334e-14 2.42051e-13 -3.72938e-14 9.3792e-14 -9.6491e-14 1.14997e-13 -2.37142e-13 -5.84465e-14 2.0649e-13 1.62511e-13 -8.69219e-14 -2.15308e-13 1.85959e-13 2.16381e-13 -2.07775e-13 1.5994e-13 -8.67492e-14 -1.62896e-13 -1.40791e-13 -1.752e-13 -1.9588e-13 -1.80524e-13 4.55783e-14 9.3946e-15 -1.16769e-13 -1.52938e-13 1.12325e-13 -9.45848e-14 2.33321e-14 1.82095e-14 5.21454e-14 -7.51844e-14 -8.05092e-15 -5.39021e-14 5.89333e-14 1.27267e-15 0 0 9.81963e-16 1.82968e-16 -1.62548e-15 2.48095e-15 1.42272e-15 -1.4458e-15 5.80988e-15 3.17354e-15 -2.73226e-15 -6.29241e-15 -3.49106e-15 4.8732e-15 -2.47251e-15 1.04066e-14 3.36702e-15 -1.07856e-14 6.31907e-15 1.73767e-14 -1.50542e-14 1.38147e-14 -5.39206e-15 7.58254e-15 -3.44618e-15 -1.25182e-14 5.13514e-15 -9.28932e-15 -5.20501e-15 1.90478e-14 -1.44074e-14 8.31931e-15 -1.66944e-14 -2.16909e-14 2.63084e-14 -3.13607e-14 2.01747e-14 1.92597e-14 3.24408e-15 2.23476e-14 7.39607e-15 -9.28003e-15 1.56039e-14 -5.10347e-14 3.15838e-15 7.24617e-14 -1.31431e-14 1.61593e-14 7.35998e-14 -5.13541e-14 -1.72034e-14 1.46846e-15 6.81836e-14 1.11574e-14 1.29235e-15 2.92125e-14 4.29359e-14 6.11044e-14 -8.10265e-14 -1.73041e-14 2.61157e-14 -4.65019e-14 1.41986e-13 2.59952e-13 1.15216e-12 1.21631e-11 1.08486e-10 9.02361e-10 6.93521e-09 4.90858e-08 3.18485e-07 1.88432e-06 1.01026e-05 4.87141e-05 0.000209349 0.000793027 0.00261419 0.00740166 0.0178294 0.0365335 0.0645263 0.100712 0.143046 0.189852 0.240226 0.293837 0.350666 0.410856 0.474642 0.542312 0.614149 0.690306 0.770439 0.852564 0.929107 0.973606 0.958652 0.944369 0.934299 0.929948 0.928316 0.927616 0.927411 0.927224 0.92708 0.926993 0.926958 0.926956 0.926941 0.926876 0.926736 0.926561 0.926383 0.926282 0.926267 0.926716 0.92664 0.925994 0.925117 0.924235 0.923673 0.923723 0.924032 0.925724 0.925342 0.926295 0.919259 0.895695 0.897867 0.852178 0.82607 0.753726 0.703198 0.586789 0.484898 0.354059 0.234969 0.134841 0.066142 0.0280808 0.0108014 0.00393666 0.00139477 0.000485463 0.000166515 5.63001e-05 1.87512e-05 6.14623e-06 1.9809e-06 6.27254e-07 1.9501e-07 5.9492e-08 1.7801e-08 5.22218e-09 1.50143e-09 4.23222e-10 1.16809e-10 3.193e-11 8.46449e-12 2.5091e-12 5.25762e-13 -1.67961e-13 -4.61864e-13 3.21231e-13 -6.31315e-13 1.05833e-13 1.87852e-13 1.63686e-13 4.99831e-14 7.67021e-14 6.13316e-14 -4.37287e-13 -9.48189e-14 1.06838e-13 3.50959e-13 -1.93352e-13 -1.88267e-13 4.58481e-13 1.39127e-13 -3.39512e-14 -3.85757e-14 -2.08176e-13 -1.67005e-13 -9.30212e-14 -1.95541e-13 -9.61215e-14 -2.37267e-13 3.29228e-14 -1.40676e-13 -1.34992e-13 -1.75868e-13 3.02322e-13 -2.12145e-13 8.49545e-14 -1.03092e-13 4.67448e-14 -3.80174e-14 1.57575e-13 -8.73852e-14 2.12008e-14 -7.22745e-14 0
				</DataArray>
				<DataArray Name="VitesseY" type="Float32" format="ascii">