<?xml version="1.0"?>
<VTKFile type="PolyData">
	<PolyData>
		<Piece NumberOfPoints="1206" NumberOfPolys="1000">
			<Points>
				<DataArray type="Float32" NumberOfComponents="3" format="ascii">
 0 0 0 0.005 0 0 0.01 0 0 0.015 0 0 0.02 0 0 0.025 0 0 0.03 0 0 0.035 0 0 0.04 0 0 0.045 0 0 0.05 0 0 0.055 0 0 0.06 0 0 0.065 0 0 0.07 0 0 0.075 0 0 0.08 0 0 0.085 0 0 0.09 0 0 0.095 0 0 0.1 0 0 0.105 0 0 0.11 0 0 0.115 0 0 0.12 0 0 0.125 0 0 0.13 0 0 0.135 0 0 0.14 0 0 0.145 0 0 0.15 0 0 0.155 0 0 0.16 0 0 0.165 0 0 0.17 0 0 0.175 0 0 0.18 0 0 0.185 0 0 0.19 0 0 0.195 0 0 0.2 0 0 0.205 0 0 0.21 0 0 0.215 0 0 0.22 0 0 0.225 0 0 0.23 0 0 0.235 0 0 0.24 0 0 0.245 0 0 0.25 0 0 0.255 0 0 0.26 0 0 0.265001 0 0 0.270004 0 0 0.275011 0 0 0.280028 0 0 0.285063 0 0 0.29013 0 0 0.295246 0 0 0.300428 0 0 0.305692 0 0 0.31105 0 0 0.316515 0 0 0.322093 0 0 0.327795 0 0 0.333627 0 0 0.339597 0 0 0.345714 0 0 0.351988 0 0 0.358426 0 0 0.365041 0 0 0.371843 0 0 0.378844 0 0 0.386058 0 0 0.3935 0 0 0.401186 0 0 0.409135 0 0 0.417366 0 0 0.425902 0 0 0.434769 0 0 0.443994 0 0 0.453607 0 0 0.463641 0 0 0.47413 0 0 0.485104 0 0 0.496574 0 0 0.508493 0 0 0.520648 0 0 0.532744 0 0 0.544744 0 0 0.556647 0 0 0.568475 0 0 0.580255 0 0 0.59201 0 0 0.603752 0 0 0.61549 0 0 0.627226 0 0 0.638963 0 0 0.650701 0 0 0.662452 0 0 0.665066 0 0 0.667605 0 0 0.670097 0 0 0.672558 0 0 0.674996 0 0 0.677418 0 0 0.679827 0 0 0.682225 0 0 0.684617 0 0 0.687005 0 0 0.689386 0 0 0.691762 0 0 0.694134 0 0 0.696503 0 0 0.69887 0 0 0.701235 0 0 0.703598 0 0 0.70596 0 0 0.70832 0 0 0.710679 0 0 0.713038 0 0 0.715396 0 0 0.717753 0 0 0.72011 0 0 0.722467 0 0 0.724823 0 0 0.72718 0 0 0.729536 0 0 0.731891 0 0 0.734246 0 0 0.736601 0 0 0.738956 0 0 0.741311 0 0 0.743665 0 0 0.746019 0 0 0.748373 0 0 0.750727 0 0 0.753082 0 0 0.755438 0 0 0.757794 0 0 0.76015 0 0 0.762505 0 0 0.764859 0 0 0.767213 0 0 0.769567 0 0 0.771923 0 0 0.774282 0 0 0.776639 0 0 0.778996 0 0 0.781352 0 0 0.783708 0 0 0.786063 0 0 0.788422 0 0 0.790792 0 0 0.793193 0 0 0.79562 0 0 0.79813 0 0 0.800722 0 0 0.803467 0 0 0.806381 0 0 0.809555 0 0 0.813023 0 0 0.81684 0 0 0.821008 0 0 0.825491 0 0 0.830213 0 0 0.835085 0 0 0.840032 0 0 0.845012 0 0 0.850004 0 0 0.855002 0 0 0.860001 0 0 0.865 0 0 0.87 0 0 0.875 0 0 0.88 0 0 0.885 0 0 0.89 0 0 0.895 0 0 0.9 0 0 0.905 0 0 0.91 0 0 0.915 0 0 0.92 0 0 0.925 0 0 0.93 0 0 0.935 0 0 0.94 0 0 0.945 0 0 0.95 0 0 0.955 0 0 0.96 0 0 0.965 0 0 0.97 0 0 0.975 0 0 0.98 0 0 0.985 0 0 0.99 0 0 0.995 0 0 1 0 0 0 0.02 0 0.005 0.02 0 0.01 0.02 0 0.015 0.02 0 0.02 0.02 0 0.025 0.02 0 0.03 0.02 0 0.035 0.02 0 0.04 0.02 0 0.045 0.02 0 0.05 0.02 0 0.055 0.02 0 0.06 0.02 0 0.065 0.02 0 0.07 0.02 0 0.075 0.02 0 0.08 0.02 0 0.085 0.02 0 0.09 0.02 0 0.095 0.02 0 0.1 0.02 0 0.105 0.02 0 0.11 0.02 0 0.115 0.02 0 0.12 0.02 0 0.125 0.02 0 0.13 0.02 0 0.135 0.02 0 0.14 0.02 0 0.145 0.02 0 0.15 0.02 0 0.155 0.02 0 0.16 0.02 0 0.165 0.02 0 0.17 0.02 0 0.175 0.02 0 0.18 0.02 0 0.185 0.02 0 0.19 0.02 0 0.195 0.02 0 0.2 0.02 0 0.205 0.02 0 0.21 0.02 0 0.215 0.02 0 0.22 0.02 0 0.225 0.02 0 0.23 0.02 0 0.235 0.02 0 0.24 0.02 0 0.245 0.02 0 0.25 0.02 0 0.255 0.02 0 0.26 0.02 0 0.265001 0.02 0 0.270004 0.02 0 0.275011 0.02 0 0.280028 0.02 0 0.285063 0.02 0 0.29013 0.02 0 0.295246 0.02 0 0.300428 0.02 0 0.305692 0.02 0 0.31105 0.02 0 0.316515 0.02 0 0.322093 0.02 0 0.327795 0.02 0 0.333627 0.02 0 0.339597 0.02 0 0.345714 0.02 0 0.351988 0.02 0 0.358426 0.02 0 0.365041 0.02 0 0.371843 0.02 0 0.378844 0.02 0 0.386058 0.02 0 0.3935 0.02 0 0.401186 0.02 0 0.409135 0.02 0 0.417366 0.02 0 0.425902 0.02 0 0.434769 0.02 0 0.443994 0.02 0 0.453607 0.02 0 0.463641 0.02 0 0.47413 0.02 0 0.485104 0.02 0 0.496574 0.02 0 0.508493 0.02 0 0.520648 0.02 0 0.532744 0.02 0 0.544744 0.02 0 0.556647 0.02 0 0.568475 0.02 0 0.580255 0.02 0 0.59201 0.02 0 0.603752 0.02 0 0.61549 0.02 0 0.627226 0.02 0 0.638963 0.02 0 0.650701 0.02 0 0.662452 0.02 0 0.665066 0.02 0 0.667605 0.02 0 0.670097 0.02 0 0.672558 0.02 0 0.674996 0.02 0 0.677418 0.02 0 0.679827 0.02 0 0.682225 0.02 0 0.684617 0.02 0 0.687005 0.02 0 0.689386 0.02 0 0.691762 0.02 0 0.694134 0.02 0 0.696503 0.02 0 0.69887 0.02 0 0.701235 0.02 0 0.703598 0.02 0 0.70596 0.02 0 0.70832 0.02 0 0.710679 0.02 0 0.713038 0.02 0 0.715396 0.02 0 0.717753 0.02 0 0.72011 0.02 0 0.722467 0.02 0 0.724823 0.02 0 0.72718 0.02 0 0.729536 0.02 0 0.731891 0.02 0 0.734246 0.02 0 0.736601 0.02 0 0.738956 0.02 0 0.741311 0.02 0 0.743665 0.02 0 0.746019 0.02 0 0.748373 0.02 0 0.750727 0.02 0 0.753082 0.02 0 0.755438 0.02 0 0.757794 0.02 0 0.76015 0.02 0 0.762505 0.02 0 0.764859 0.02 0 0.767213 0.02 0 0.769567 0.02 0 0.771923 0.02 0 0.774282 0.02 0 0.776639 0.02 0 0.778996 0.02 0 0.781352 0.02 0 0.783708 0.02 0 0.786063 0.02 0 0.788422 0.02 0 0.790792 0.02 0 0.793193 0.02 0 0.79562 0.02 0 0.79813 0.02 0 0.800722 0.02 0 0.803467 0.02 0 0.806381 0.02 0 0.809555 0.02 0 0.813023 0.02 0 0.81684 0.02 0 0.821008 0.02 0 0.825491 0.02 0 0.830213 0.02 0 0.835085 0.02 0 0.840032 0.02 0 0.845012 0.02 0 0.850004 0.02 0 0.855002 0.02 0 0.860001 0.02 0 0.865 0.02 0 0.87 0.02 0 0.875 0.02 0 0.88 0.02 0 0.885 0.02 0 0.89 0.02 0 0.895 0.02 0 0.9 0.02 0 0.905 0.02 0 0.91 0.02 0 0.915 0.02 0 0.92 0.02 0 0.925 0.02 0 0.93 0.02 0 0.935 0.02 0 0.94 0.02 0 0.945 0.02 0 0.95 0.02 0 0.955 0.02 0 0.96 0.02 0 0.965 0.02 0 0.97 0.02 0 0.975 0.02 0 0.98 0.02 0 0.985 0.02 0 0.99 0.02 0 0.995 0.02 0 1 0.02 0 0 0.04 0 0.005 0.04 0 0.01 0.04 0 0.015 0.04 0 0.02 0.04 0 0.025 0.04 0 0.03 0.04 0 0.035 0.04 0 0.04 0.04 0 0.045 0.04 0 0.05 0.04 0 0.055 0.04 0 0.06 0.04 0 0.065 0.04 0 0.07 0.04 0 0.075 0.04 0 0.08 0.04 0 0.085 0.04 0 0.09 0.04 0 0.095 0.04 0 0.1 0.04 0 0.105 0.04 0 0.11 0.04 0 0.115 0.04 0 0.12 0.04 0 0.125 0.04 0 0.13 0.04 0 0.135 0.04 0 0.14 0.04 0 0.145 0.04 0 0.15 0.04 0 0.155 0.04 0 0.16 0.04 0 0.165 0.04 0 0.17 0.04 0 0.175 0.04 0 0.18 0.04 0 0.185 0.04 0 0.19 0.04 0 0.195 0.04 0 0.2 0.04 0 0.205 0.04 0 0.21 0.04 0 0.215 0.04 0 0.22 0.04 0 0.225 0.04 0 0.23 0.04 0 0.235 0.04 0 0.24 0.04 0 0.245 0.04 0 0.25 0.04 0 0.255 0.04 0 0.26 0.04 0 0.265001 0.04 0 0.270004 0.04 0 0.275011 0.04 0 0.280028 0.04 0 0.285063 0.04 0 0.29013 0.04 0 0.295246 0.04 0 0.300428 0.04 0 0.305692 0.04 0 0.31105 0.04 0 0.316515 0.04 0 0.322093 0.04 0 0.327795 0.04 0 0.333627 0.04 0 0.339597 0.04 0 0.345714 0.04 0 0.351988 0.04 0 0.358426 0.04 0 0.365041 0.04 0 0.371843 0.04 0 0.378844 0.04 0 0.386058 0.04 0 0.3935 0.04 0 0.401186 0.04 0 0.409135 0.04 0 0.417366 0.04 0 0.425902 0.04 0 0.434769 0.04 0 0.443994 0.04 0 0.453607 0.04 0 0.463641 0.04 0 0.47413 0.04 0 0.485104 0.04 0 0.496574 0.04 0 0.508493 0.04 0 0.520648 0.04 0 0.532744 0.04 0 0.544744 0.04 0 0.556647 0.04 0 0.568475 0.04 0 0.580255 0.04 0 0.59201 0.04 0 0.603752 0.04 0 0.61549 0.04 0 0.627226 0.04 0 0.638963 0.04 0 0.650701 0.04 0 0.662452 0.04 0 0.665066 0.04 0 0.667605 0.04 0 0.670097 0.04 0 0.672558 0.04 0 0.674996 0.04 0 0.677418 0.04 0 0.679827 0.04 0 0.682225 0.04 0 0.684617 0.04 0 0.687005 0.04 0 0.689386 0.04 0 0.691762 0.04 0 0.694134 0.04 0 0.696503 0.04 0 0.69887 0.04 0 0.701235 0.04 0 0.703598 0.04 0 0.70596 0.04 0 0.70832 0.04 0 0.710679 0.04 0 0.713038 0.04 0 0.715396 0.04 0 0.717753 0.04 0 0.72011 0.04 0 0.722467 0.04 0 0.724823 0.04 0 0.72718 0.04 0 0.729536 0.04 0 0.731891 0.04 0 0.734246 0.04 0 0.736601 0.04 0 0.738956 0.04 0 0.741311 0.04 0 0.743665 0.04 0 0.746019 0.04 0 0.748373 0.04 0 0.750727 0.04 0 0.753082 0.04 0 0.755438 0.04 0 0.757794 0.04 0 0.76015 0.04 0 0.762505 0.04 0 0.764859 0.04 0 0.767213 0.04 0 0.769567 0.04 0 0.771923 0.04 0 0.774282 0.04 0 0.776639 0.04 0 0.778996 0.04 0 0.781352 0.04 0 0.783708 0.04 0 0.786063 0.04 0 0.788422 0.04 0 0.790792 0.04 0 0.793193 0.04 0 0.79562 0.04 0 0.79813 0.04 0 0.800722 0.04 0 0.803467 0.04 0 0.806381 0.04 0 0.809555 0.04 0 0.813023 0.04 0 0.81684 0.04 0 0.821008 0.04 0 0.825491 0.04 0 0.830213 0.04 0 0.835085 0.04 0 0.840032 0.04 0 0.845012 0.04 0 0.850004 0.04 0 0.855002 0.04 0 0.860001 0.04 0 0.865 0.04 0 0.87 0.04 0 0.875 0.04 0 0.88 0.04 0 0.885 0.04 0 0.89 0.04 0 0.895 0.04 0 0.9 0.04 0 0.905 0.04 0 0.91 0.04 0 0.915 0.04 0 0.92 0.04 0 0.925 0.04 0 0.93 0.04 0 0.935 0.04 0 0.94 0.04 0 0.945 0.04 0 0.95 0.04 0 0.955 0.04 0 0.96 0.04 0 0.965 0.04 0 0.97 0.04 0 0.975 0.04 0 0.98 0.04 0 0.985 0.04 0 0.99 0.04 0 0.995 0.04 0 1 0.04 0 0 0.06 0 0.005 0.06 0 0.01 0.06 0 0.015 0.06 0 0.02 0.06 0 0.025 0.06 0 0.03 0.06 0 0.035 0.06 0 0.04 0.06 0 0.045 0.06 0 0.05 0.06 0 0.055 0.06 0 0.06 0.06 0 0.065 0.06 0 0.07 0.06 0 0.075 0.06 0 0.08 0.06 0 0.085 0.06 0 0.09 0.06 0 0.095 0.06 0 0.1 0.06 0 0.105 0.06 0 0.11 0.06 0 0.115 0.06 0 0.12 0.06 0 0.125 0.06 0 0.13 0.06 0 0.135 0.06 0 0.14 0.06 0 0.145 0.06 0 0.15 0.06 0 0.155 0.06 0 0.16 0.06 0 0.165 0.06 0 0.17 0.06 0 0.175 0.06 0 0.18 0.06 0 0.185 0.06 0 0.19 0.06 0 0.195 0.06 0 0.2 0.06 0 0.205 0.06 0 0.21 0.06 0 0.215 0.06 0 0.22 0.06 0 0.225 0.06 0 0.23 0.06 0 0.235 0.06 0 0.24 0.06 0 0.245 0.06 0 0.25 0.06 0 0.255 0.06 0 0.26 0.06 0 0.265001 0.06 0 0.270004 0.06 0 0.275011 0.06 0 0.280028 0.06 0 0.285063 0.06 0 0.29013 0.06 0 0.295246 0.06 0 0.300428 0.06 0 0.305692 0.06 0 0.31105 0.06 0 0.316515 0.06 0 0.322093 0.06 0 0.327795 0.06 0 0.333627 0.06 0 0.339597 0.06 0 0.345714 0.06 0 0.351988 0.06 0 0.358426 0.06 0 0.365041 0.06 0 0.371843 0.06 0 0.378844 0.06 0 0.386058 0.06 0 0.3935 0.06 0 0.401186 0.06 0 0.409135 0.06 0 0.417366 0.06 0 0.425902 0.06 0 0.434769 0.06 0 0.443994 0.06 0 0.453607 0.06 0 0.463641 0.06 0 0.47413 0.06 0 0.485104 0.06 0 0.496574 0.06 0 0.508493 0.06 0 0.520648 0.06 0 0.532744 0.06 0 0.544744 0.06 0 0.556647 0.06 0 0.568475 0.06 0 0.580255 0.06 0 0.59201 0.06 0 0.603752 0.06 0 0.61549 0.06 0 0.627226 0.06 0 0.638963 0.06 0 0.650701 0.06 0 0.662452 0.06 0 0.665066 0.06 0 0.667605 0.06 0 0.670097 0.06 0 0.672558 0.06 0 0.674996 0.06 0 0.677418 0.06 0 0.679827 0.06 0 0.682225 0.06 0 0.684617 0.06 0 0.687005 0.06 0 0.689386 0.06 0 0.691762 0.06 0 0.694134 0.06 0 0.696503 0.06 0 0.69887 0.06 0 0.701235 0.06 0 0.703598 0.06 
[...]
			<PointData Scalars="VitesseX">
				<DataArray Name="VitesseX" type="Float32" format="ascii">
 0 -2.22109e-16 1.94196e-15 -1.37502e-15 2.55646e-15 6.39864e-15 6.41845e-15 2.06789e-15 5.91417e-15 -1.27022e-15 7.81245e-15 -7.04062e-15 9.60557e-15 1.87785e-15 -4.03857e-15 -2.43725e-15 -9.38664e-15 1.39923e-14 -2.83498e-15 1.00255e-14 1.10054e-14 -4.11316e-15 7.39572e-15 9.13028e-16 -9.1223e-15 1.00512e-14 1.45211e-14 4.45878e-15 -6.82833e-15 1.25543e-14 2.40968e-14 -1.3926e-16 2.43498e-14 2.49263e-14 2.89912e-14 4.4102e-14 1.07762e-14 6.47827e-14 5.85286e-14 1.82246e-13 1.12417e-12 6.82326e-12 4.10158e-11 2.36591e-10 1.29318e-09 6.69752e-09 3.27894e-08 1.51386e-07 6.57304e-07 2.67548e-06 1.01722e-05 3.59724e-05 0.000117738 0.0003546 0.000976258 0.00243963 0.0054977 0.0111246 0.0202168 0.0331972 0.049836 0.0694448 0.0912454 0.114627 0.139204 0.164768 0.191214 0.218497 0.246606 0.275547 0.305341 0.336015 0.367608 0.400161 0.433725 0.468355 0.504109 0.541053 0.579251 0.618769 0.659665 0.701973 0.745679 0.790651 0.83649 0.88212 0.924668 0.956325 0.960285 0.951563 0.943305 0.936563 0.932039 0.929531 0.928322 0.927773 0.927509 0.927356 0.927248 0.927177 0.927147 0.927131 0.927115 0.9271 0.927088 0.927077 0.927068 0.92706 0.927052 0.927042 0.927031 0.927019 0.927007 0.926998 0.926992 0.926991 0.927007 0.927063 0.927037 0.927025 0.927001 0.926984 0.926974 0.926982 0.927101 0.927266 0.927169 0.927126 0.927058 0.926969 0.926872 0.926764 0.926646 0.926524 0.92641 0.926325 0.926282 0.926302 0.926801 0.927313 0.92696 0.926363 0.925902 0.925446 0.925221 0.925294 0.926912 0.926357 0.925637 0.92499 0.924363 0.926246 0.923723 0.922294 0.915403 0.907974 0.879667 0.870992 0.800459 0.773595 0.668013 0.588199 0.462095 0.3415 0.222233 0.126074 0.0612282 0.0260306 0.0101567 0.00379824 0.00139504 0.00050864 0.000184855 6.70556e-05 2.42853e-05 8.77992e-06 3.16763e-06 1.13997e-06 4.09038e-07 1.46262e-07 5.20917e-08 1.84689e-08 6.515e-09 2.28534e-09 7.96732e-10 2.75996e-10 9.48821e-11 3.23362e-11 1.09607e-11 3.68191e-12 1.14465e-12 3.79601e-13 6.53371e-14 -1.76891e-14 -4.5898e-14 -7.03142e-15 4.94992e-14 -2.3667e-14 5.85293e-14 -8.04906e-14 0 0 1.03482e-15 2.07676e-16 -2.05427e-16 -1.10807e-15 5.98543e-15 3.80887e-15 6.16326e-15 1.4943e-15 1.8045e-15 4.28552e-15 7.33491e-15 -6.9378e-15 4.98876e-15 2.87789e-15 -1.2148e-14 1.80329e-15 7.94916e-15 8.01279e-15 -2.29611e-15 1.45023e-15 1.21428e-14 3.50955e-16 2.96332e-15 -3.06561e-15 8.51349e-15 3.16778e-15 1.05727e-14 -8.22887e-15 1.42634e-14 1.59808e-14 2.45308e-14 7.91063e-15 2.20435e-14 3.83725e-14 2.62386e-14 3.95328e-14 3.61461e-14 7.78153e-14 1.99336e-13 1.09194e-12 6.82233e-12 4.10498e-11 2.36561e-10 1.2932e-09 6.69745e-09 3.27894e-08 1.51386e-07 6.57304e-07 2.67548e-06 1.01722e-05 3.59724e-05 0.000117738 0.0003546 0.000976258 0.00243963 0.0054977 0.0111246 0.0202168 0.0331972 0.049836 0.0694448 0.0912454 0.114627 0.139204 0.164768 0.191214 0.218497 0.246606 0.275547 0.305341 0.336015 0.367608 0.400161 0.433725 0.468355 0.504109 0.541053 0.579251 0.618769 0.659665 0.701973 0.745679 0.790651 0.83649 0.88212 0.924668 0.956325 0.960285 0.951563 0.943305 0.936563 0.932039 0.929531 0.928322 0.927773 0.927509 0.927356 0.927248 0.927177 0.927147 0.927131 0.927115 0.9271 0.927088 0.927077 0.927068 0.92706 0.927052 0.927042 0.927031 0.927019 0.927007 0.926998 0.926992 0.926991 0.927007 0.927063 0.927037 0.927025 0.927001 0.926984 0.926974 0.926982 0.927101 0.927266 0.927169 0.927126 0.927058 0.926969 0.926872 0.926764 0.926646 0.926524 0.92641 0.926325 0.926282 0.926302 0.926801 0.927313 0.92696 0.926363 0.925902 0.925446 0.925221 0.925294 0.926912 0.926357 0.925637 0.92499 0.924363 0.926246 0.923723 0.922294 0.915403 0.907974 0.879667 0.870992 0.800459 0.773595 0.668013 0.588199 0.462095 0.3415 0.222233 0.126074 0.0612282 0.0260306 0.0101567 0.00379824 0.00139504 0.00050864 0.000184855 6.70556e-05 2.42853e-05 8.77992e-06 3.16763e-06 1.13997e-06 4.09038e-07 1.46262e-07 5.20917e-08 1.84688e-08 6.515e-09 2.28538e-09 7.96685e-10 2.7596e-10 9.49106e-11 3.23927e-11 1.09551e-11 3.71781e-12 1.10289e-12 3.83243e-13 3.8513e-14 9.78577e-14 -2.14365e-14 -1.6379e-14 -8.67996e-15 1.18204e-13 -9.30541e-14 5.05862e-14 0 0 1.85934e-15 4.3263e-15 -6.57404e-16 -1.05427e-15 3.88695e-17 2.27314e-15 8.47216e-16 6.42034e-15 2.82948e-15 5.51037e-15 -2.20197e-15 -5.73699e-15 1.25028e-16 9.36437e-16 -7.63609e-15 1.19059e-14 7.67813e-16 3.91895e-15 -9.26414e-15 -7.76411e-15 2.67768e-14 -3.50005e-16 1.55507e-15 8.55599e-15 -9.63244e-15 2.07657e-14 -1.33127e-14 2.49645e-14 2.58809e-14 3.22825e-15 2.1227e-14 8.61111e-15 9.83588e-15 5.59513e-14 1.68949e-14 5.4537e-14 4.12327e-14 9.26074e-14 1.88653e-13 1.09063e-12 6.77045e-12 4.11011e-11 2.36571e-10 1.29315e-09 6.69736e-09 3.27894e-08 1.51386e-07 6.57304e-07 2.67548e-06 1.01722e-05 3.59724e-05 0.000117738 0.0003546 0.000976258 0.00243963 0.0054977 0.0111246 0.0202168 0.0331972 0.049836 0.0694448 0.0912454 0.114627 0.139204 0.164768 0.191214 0.218497 0.246606 0.275547 0.305341 0.336015 0.367608 0.400161 0.433725 0.468355 0.504109 0.541053 0.579251 0.618769 0.659665 0.701973 0.745679 0.790651 0.83649 0.88212 0.924668 0.956325 0.960285 0.951563 0.943305 0.936563 0.932039 0.929531 0.928322 0.927773 0.927509 0.927356 0.927248 0.927177 0.927147 0.927131 0.927115 0.9271 0.927088 0.927077 0.927068 0.92706 0.927052 0.927042 0.927031 0.927019 0.927007 0.926998 0.926992 0.926991 0.927007 0.927063 0.927037 0.927025 0.927001 0.926984 0.926974 0.926982 0.927101 0.927266 0.927169 0.927126 0.927058 0.926969 0.926872 0.926764 0.926646 0.926524 0.92641 0.926325 0.926282 0.926302 0.926801 0.927313 0.92696 0.926363 0.925902 0.925446 0.925221 0.925294 0.926912 0.926357 0.925637 0.92499 0.924363 0.926246 0.923723 0.922294 0.915403 0.907974 0.879667 0.870992 0.800459 0.773595 0.668013 0.588199 0.462095 0.3415 0.222233 0.126074 0.0612282 0.0260306 0.0101567 0.00379824 0.00139504 0.00050864 0.000184855 6.70556e-05 2.42853e-05 8.77992e-06 3.16763e-06 1.13997e-06 4.09038e-07 1.46262e-07 5.20918e-08 1.84689e-08 6.51498e-09 2.28525e-09 7.96787e-10 2.76058e-10 9.48363e-11 3.2338e-11 1.11006e-11 3.7123e-12 1.19683e-12 2.30381e-13 7.74573e-14 1.99464e-13 8.41553e-14 1.10495e-13 -6.57608e-14 1.59993e-14 -1.05243e-14 7.44343e-14 0 0 2.61008e-15 7.55878e-15 2.07678e-16 1.38968e-15 -4.23325e-15 -4.514e-16 -5.15438e-15 3.68766e-15 9.04972e-16 2.83177e-15 -1.04622e-15 -4.86708e-15 -1.03208e-14 -1.48291e-15 9.32475e-15 9.82372e-15 7.39766e-16 -2.64854e-15 -1.10585e-14 4.82043e-15 1.03144e-14 -1.07238e-14 1.01547e-14 3.02684e-15 -1.04027e-14 3.29192e-14 -1.31052e-14 2.89438e-14 4.12757e-14 2.04561e-14 -2.04066e-14 1.06363e-14 1.99221e-14 5.76191e-14 7.49947e-14 6.15088e-14 2.58812e-14 9.73733e-14 1.64061e-13 1.10853e-12 6.72695e-12 4.10324e-11 2.36573e-10 1.29317e-09 6.69729e-09 3.27894e-08 1.51387e-07 6.57304e-07 2.67548e-06 1.01722e-05 3.59724e-05 0.000117738 0.0003546 0.000976258 0.00243963 0.0054977 0.0111246 0.0202168 0.0331972 0.049836 0.0694448 0.0912454 0.114627 0.139204 0.164768 0.191214 0.218497 0.246606 0.275547 0.305341 0.336015 0.367608 0.400161 0.433725 0.468355 0.504109 0.541053 0.579251 0.618769 0.659665 0.701973 0.745679 0.790651 0.83649 0.88212 0.924668 0.956325 0.960285 0.951563 0.943305 0.936563 0.932039 0.929531 0.928322 0.927773 0.927509 0.927356 0.927248 0.927177 0.927147 0.927131 0.927115 0.9271 0.927088 0.927077 0.927068 0.92706 0.927052 0.927042 0.927031 0.927019 0.927007 0.926998 0.926992 0.926991 0.927007 0.927063 0.927037 0.927025 0.927001 0.926984 0.926974 0.926982 0.927101 0.927266 0.927169 0.927126 0.927058 0.926969 0.926872 0.926764 0.926646 0.926524 0.92641 0.926325 0.926282 0.926302 0.926801 0.927313 0.92696 0.926363 0.925902 0.925446 0.925221 0.925294 0.926912 0.926357 0.925637 0.92499 0.924363 0.926246 0.923723 0.922294 0.915403 0.907974 0.879667 0.870992 0.800459 0.773595 0.668013 0.588199 0.462095 0.3415 0.222233 0.126074 0.0612282 0.0260306 0.0101567 0.00379824 0.00139504 0.00050864 0.000184855 6.70556e-05 2.42853e-05 8.77992e-06 3.16763e-06 1.13997e-06 4.09038e-07 1.46262e-07 5.20918e-08 1.84689e-08 6.51495e-09 2.2853e-09 7.96812e-10 2.76098e-10 9.48497e-11 3.24432e-11 1.1037e-11 3.77882e-12 1.1244e-12 3.66169e-13 2.42373e-14 2.02634e-13 3.67551e-14 9.77621e-14 2.43293e-13 -7.2457e-14 3.18012e-15 1.1711e-14 0 0 3.41172e-15 5.83772e-15 3.46412e-15 2.08614e-16 -2.39725e-15 3.47822e-15 -1.28123e-15 -4.71267e-15 -8.71156e-15 5.32147e-16 -4.71897e-16 -1.7115e-14 -1.07011e-14 7.71113e-15 5.73929e-15 2.9483e-14 7.613e-15 -8.93288e-16 -8.31908e-15 1.27054e-14 -9.44791e-15 -1.03442e-14 3.20021e-14 -1.95797e-14 -1.06259e-14 2.65145e-14 2.01477e-14 -7.92941e-15 3.81292e-14 1.64556e-15 -1.0234e-14 2.0739e-14 5.60471e-14 5.9831e-14 7.81746e-14 8.29118e-14 5.66306e-16 1.0881e-13 2.21069e-13 9.75306e-13 6.74726e-12 4.09786e-11 2.36593e-10 1.29323e-09 6.69727e-09 3.27893e-08 1.51386e-07 6.57304e-07 2.67548e-06 1.01722e-05 3.59724e-05 0.000117738 0.0003546 0.000976258 0.00243963 0.0054977 0.0111246 0.0202168 0.0331972 0.049836 0.0694448 0.0912454 0.114627 0.139204 0.164768 0.191214 0.218497 0.246606 0.275547 0.305341 0.336015 0.367608 0.400161 0.433725 0.468355 0.504109 0.541053 0.579251 0.618769 0.659665 0.701973 0.745679 0.790651 0.83649 0.88212 0.924668 0.956325 0.960285 0.951563 0.943305 0.936563 0.932039 0.929531 0.928322 0.927773 0.927509 0.927356 0.927248 0.927177 0.927147 0.927131 0.927115 0.9271 0.927088 0.927077 0.927068 0.92706 0.927052 0.927042 0.927031 0.927019 0.927007 0.926998 0.926992 0.926991 0.927007 0.927063 0.927037 0.927025 0.927001 0.926984 0.926974 0.926982 0.927101 0.927266 0.927169 0.927126 0.927058 0.926969 0.926872 0.926764 0.926646 0.926524 0.92641 0.926325 0.926282 0.926302 0.926801 0.927313 0.92696 0.926363 0.925902 0.925446 0.925221 0.925294 0.926912 0.926357 0.925637 0.92499 0.924363 0.926246 0.923723 0.922294 0.915403 0.907974 0.879667 0.870992 0.800459 0.773595 0.668013 0.588199 0.462095 0.3415 0.222233 0.126074 0.0612282 0.0260306 0.0101567 0.00379824 0.00139504 0.00050864 0.000184855 6.70556e-05 2.42853e-05 8.77992e-06 3.16763e-06 1.13997e-06 4.09038e-07 1.46262e-07 5.20916e-08 1.8469e-08 6.51491e-09 2.28546e-09 7.96867e-10 2.75829e-10 9.51291e-11 3.26344e-11 1.09408e-11 3.7661e-12 1.13956e-12 3.40693e-13 6.14057e-14 7.11361e-14 1.59853e-14 5.05681e-15 2.33283e-13 9.19599e-14 2.41611e-14 8.63022e-15 0 0 3.03021e-15 6.73707e-15 4.23391e-15 3.0192e-16 -1.82248e-15 1.12062e-14 -8.17903e-16 -1.03441e-15 -1.84533e-14 5.66289e-15 -2.49657e-14 -1.24886e-14 -8.61026e-15 1.04666e-14 -5.84445e-16 5.0137e-14 1.3376e-14 -7.51214e-15 1.5682e-15 8.34661e-15 -1.43699e-14 6.7529e-15 4.17912e-14 -3.10921e-14 -2.66872e-14 3.69074e-14 2.31939e-14 -1.4188e-14 2.94962e-14 -3.90294e-14 1.35984e-14 4.59562e-14 7.2761e-14 6.85728e-14 3.17744e-14 8.35906e-14 2.4326e-14 1.10987e-13 2.74896e-13 8.55117e-13 6.7601e-12 4.10109e-11 2.36651e-10 1.29321e-09 6.69728e-09 3.27892e-08 1.51386e-07 6.57304e-07 2.67548e-06 1.01722e-05 3.59724e-05 0.000117738 0.0003546 0.000976258 0.00243963 0.0054977 0.0111246 0.0202168 0.0331972 0.049836 0.0694448 0.0912454 0.114627 0.139204 0.164768 0.191214 0.218497 0.246606 0.275547 0.305341 0.336015 0.367608 0.400161 0.433725 0.468355 0.504109 0.541053 0.579251 0.618769 0.659665 0.701973 0.745679 0.790651 0.83649 0.88212 0.924668 0.956325 0.960285 0.951563 0.943305 0.936563 0.932039 0.929531 0.928322 0.927773 0.927509 0.927356 0.927248 0.927177 0.927147 0.927131 0.927115 0.9271 0.927088 0.927077 0.927068 0.92706 0.927052 0.927042 0.927031 0.927019 0.927007 0.926998 0.926992 0.926991 0.927007 0.927063 0.927037 0.927025 0.927001 0.926984 0.926974 0.926982 0.927101 0.927266 0.927169 0.927126 0.927058 0.926969 0.926872 0.926764 0.926646 0.926524 0.92641 0.926325 0.926282 0.926302 0.926801 0.927313 0.92696 0.926363 0.925902 0.925446 0.925221 0.925294 0.926912 0.926357 0.925637 0.92499 0.924363 0.926246 0.923723 0.922294 0.915403 0.907974 0.879667 0.870992 0.800459 0.773595 0.668013 0.588199 0.462095 0.3415 0.222233 0.126074 0.0612282 0.0260306 0.0101567 0.00379824 0.00139504 0.00050864 0.000184855 6.70556e-05 2.42853e-05 8.77992e-06 3.16763e-06 1.13997e-06 4.09038e-07 1.46262e-07 5.20916e-08 1.8469e-08 6.51488e-09 2.2854e-09 7.97047e-10 2.75654e-10 9.52926e-11 3.26094e-11 1.10596e-11 3.64536e-12 1.36218e-12 2.30488e-14 2.17555e-13 -7.75932e-14 1.24295e-13 6.16717e-14 -8.46236e-14 1.01057e-13 2.65931e-13 -3.86315e-14 0
				</DataArray>
				<DataArray Name="VitesseY" type="Float32" format="ascii">