<?xml version="1.0"?>
<VTKFile type="PolyData">
	<PolyData>
		<Piece NumberOfPoints="1206" NumberOfPolys="1000">
			<Points>
				<DataArray type="Float32" NumberOfComponents="3" format="ascii">
 0 0 0 0.005 0 0 0.01 0 0 0.015 0 0 0.02 0 0 0.025 0 0 0.03 0 0 0.035 0 0 0.04 0 0 0.045 0 0 0.05 0 0 0.055 0 0 0.06 0 0 0.065 0 0 0.07 0 0 0.075 0 0 0.08 0 0 0.085 0 0 0.09 0 0 0.095 0 0 0.1 0 0 0.105 0 0 0.11 0 0 0.115 0 0 0.12 0 0 0.125 0 0 0.13 0 0 0.135 0 0 0.14 0 0 0.145 0 0 0.15 0 0 0.155 0 0 0.16 0 0 0.165 0 0 0.17 0 0 0.175 0 0 0.18 0 0 0.185 0 0 0.19 0 0 0.195 0 0 0.2 0 0 0.205 0 0 0.21 0 0 0.215 0 0 0.22 0 0 0.225 0 0 0.23 0 0 0.235 0 0 0.24 0 0 0.245 0 0 0.250001 0 0 0.255002 0 0 0.260007 0 0 0.265018 0 0 0.270041 0 0 0.275088 0 0 0.280172 0 0 0.28531 0 0 0.290516 0 0 0.295805 0 0 0.301188 0 0 0.306672 0 0 0.312267 0 0 0.317978 0 0 0.323814 0 0 0.32978 0 0 0.335886 0 0 0.342138 0 0 0.348544 0 0 0.355116 0 0 0.361861 0 0 0.36879 0 0 0.375916 0 0 0.383252 0 0 0.39081 0 0 0.398608 0 0 0.406661 0 0 0.414988 0 0 0.423611 0 0 0.432552 0 0 0.441837 0 0 0.451493 0 0 0.461552 0 0 0.472042 0 0 0.482992 0 0 0.494413 0 0 0.506272 0 0 0.518401 0 0 0.530506 0 0 0.542521 0 0 0.554442 0 0 0.566286 0 0 0.578076 0 0 0.589836 0 0 0.601581 0 0 0.61332 0 0 0.625055 0 0 0.63679 0 0 0.648525 0 0 0.660263 0 0 0.672014 0 0 0.674628 0 0 0.677166 0 0 0.679659 0 0 0.682119 0 0 0.684558 0 0 0.686979 0 0 0.689388 0 0 0.691786 0 0 0.694178 0 0 0.696565 0 0 0.698946 0 0 0.701323 0 0 0.703695 0 0 0.706064 0 0 0.708431 0 0 0.710796 0 0 0.713159 0 0 0.715521 0 0 0.717881 0 0 0.720241 0 0 0.7226 0 0 0.724958 0 0 0.727315 0 0 0.729672 0 0 0.732028 0 0 0.734384 0 0 0.73674 0 0 0.739095 0 0 0.741449 0 0 0.743804 0 0 0.746158 0 0 0.748512 0 0 0.750867 0 0 0.753222 0 0 0.755577 0 0 0.757931 0 0 0.760285 0 0 0.76264 0 0 0.764994 0 0 0.767348 0 0 0.769702 0 0 0.772057 0 0 0.774412 0 0 0.776766 0 0 0.779121 0 0 0.781475 0 0 0.783829 0 0 0.786183 0 0 0.788537 0 0 0.790893 0 0 0.793253 0 0 0.795613 0 0 0.797973 0 0 0.80033 0 0 0.802685 0 0 0.805043 0 0 0.807398 0 0 0.809778 0 0 0.812184 0 0 0.814656 0 0 0.817182 0 0 0.81984 0 0 0.822628 0 0 0.825644 0 0 0.82892 0 0 0.832524 0 0 0.836477 0 0 0.840774 0 0 0.84536 0 0 0.850151 0 0 0.855059 0 0 0.860022 0 0 0.865008 0 0 0.870003 0 0 0.875001 0 0 0.88 0 0 0.885 0 0 0.89 0 0 0.895 0 0 0.9 0 0 0.905 0 0 0.91 0 0 0.915 0 0 0.92 0 0 0.925 0 0 0.93 0 0 0.935 0 0 0.94 0 0 0.945 0 0 0.95 0 0 0.955 0 0 0.96 0 0 0.965 0 0 0.97 0 0 0.975 0 0 0.98 0 0 0.985 0 0 0.99 0 0 0.995 0 0 1 0 0 0 0.02 0 0.005 0.02 0 0.01 0.02 0 0.015 0.02 0 0.02 0.02 0 0.025 0.02 0 0.03 0.02 0 0.035 0.02 0 0.04 0.02 0 0.045 0.02 0 0.05 0.02 0 0.055 0.02 0 0.06 0.02 0 0.065 0.02 0 0.07 0.02 0 0.075 0.02 0 0.08 0.02 0 0.085 0.02 0 0.09 0.02 0 0.095 0.02 0 0.1 0.02 0 0.105 0.02 0 0.11 0.02 0 0.115 0.02 0 0.12 0.02 0 0.125 0.02 0 0.13 0.02 0 0.135 0.02 0 0.14 0.02 0 0.145 0.02 0 0.15 0.02 0 0.155 0.02 0 0.16 0.02 0 0.165 0.02 0 0.17 0.02 0 0.175 0.02 0 0.18 0.02 0 0.185 0.02 0 0.19 0.02 0 0.195 0.02 0 0.2 0.02 0 0.205 0.02 0 0.21 0.02 0 0.215 0.02 0 0.22 0.02 0 0.225 0.02 0 0.23 0.02 0 0.235 0.02 0 0.24 0.02 0 0.245 0.02 0 0.250001 0.02 0 0.255002 0.02 0 0.260007 0.02 0 0.265018 0.02 0 0.270041 0.02 0 0.275088 0.02 0 0.280172 0.02 0 0.28531 0.02 0 0.290516 0.02 0 0.295805 0.02 0 0.301188 0.02 0 0.306672 0.02 0 0.312267 0.02 0 0.317978 0.02 0 0.323814 0.02 0 0.32978 0.02 0 0.335886 0.02 0 0.342138 0.02 0 0.348544 0.02 0 0.355116 0.02 0 0.361861 0.02 0 0.36879 0.02 0 0.375916 0.02 0 0.383252 0.02 0 0.39081 0.02 0 0.398608 0.02 0 0.406661 0.02 0 0.414988 0.02 0 0.423611 0.02 0 0.432552 0.02 0 0.441837 0.02 0 0.451493 0.02 0 0.461552 0.02 0 0.472042 0.02 0 0.482992 0.02 0 0.494413 0.02 0 0.506272 0.02 0 0.518401 0.02 0 0.530506 0.02 0 0.542521 0.02 0 0.554442 0.02 0 0.566286 0.02 0 0.578076 0.02 0 0.589836 0.02 0 0.601581 0.02 0 0.61332 0.02 0 0.625055 0.02 0 0.63679 0.02 0 0.648525 0.02 0 0.660263 0.02 0 0.672014 0.02 0 0.674628 0.02 0 0.677166 0.02 0 0.679659 0.02 0 0.682119 0.02 0 0.684558 0.02 0 0.686979 0.02 0 0.689388 0.02 0 0.691786 0.02 0 0.694178 0.02 0 0.696565 0.02 0 0.698946 0.02 0 0.701323 0.02 0 0.703695 0.02 0 0.706064 0.02 0 0.708431 0.02 0 0.710796 0.02 0 0.713159 0.02 0 0.715521 0.02 0 0.717881 0.02 0 0.720241 0.02 0 0.7226 0.02 0 0.724958 0.02 0 0.727315 0.02 0 0.729672 0.02 0 0.732028 0.02 0 0.734384 0.02 0 0.73674 0.02 0 0.739095 0.02 0 0.741449 0.02 0 0.743804 0.02 0 0.746158 0.02 0 0.748512 0.02 0 0.750867 0.02 0 0.753222 0.02 0 0.755577 0.02 0 0.757931 0.02 0 0.760285 0.02 0 0.76264 0.02 0 0.764994 0.02 0 0.767348 0.02 0 0.769702 0.02 0 0.772057 0.02 0 0.774412 0.02 0 0.776766 0.02 0 0.779121 0.02 0 0.781475 0.02 0 0.783829 0.02 0 0.786183 0.02 0 0.788537 0.02 0 0.790893 0.02 0 0.793253 0.02 0 0.795613 0.02 0 0.797973 0.02 0 0.80033 0.02 0 0.802685 0.02 0 0.805043 0.02 0 0.807398 0.02 0 0.809778 0.02 0 0.812184 0.02 0 0.814656 0.02 0 0.817182 0.02 0 0.81984 0.02 0 0.822628 0.02 0 0.825644 0.02 0 0.82892 0.02 0 0.832524 0.02 0 0.836477 0.02 0 0.840774 0.02 0 0.84536 0.02 0 0.850151 0.02 0 0.855059 0.02 0 0.860022 0.02 0 0.865008 0.02 0 0.870003 0.02 0 0.875001 0.02 0 0.88 0.02 0 0.885 0.02 0 0.89 0.02 0 0.895 0.02 0 0.9 0.02 0 0.905 0.02 0 0.91 0.02 0 0.915 0.02 0 0.92 0.02 0 0.925 0.02 0 0.93 0.02 0 0.935 0.02 0 0.94 0.02 0 0.945 0.02 0 0.95 0.02 0 0.955 0.02 0 0.96 0.02 0 0.965 0.02 0 0.97 0.02 0 0.975 0.02 0 0.98 0.02 0 0.985 0.02 0 0.99 0.02 0 0.995 0.02 0 1 0.02 0 0 0.04 0 0.005 0.04 0 0.01 0.04 0 0.015 0.04 0 0.02 0.04 0 0.025 0.04 0 0.03 0.04 0 0.035 0.04 0 0.04 0.04 0 0.045 0.04 0 0.05 0.04 0 0.055 0.04 0 0.06 0.04 0 0.065 0.04 0 0.07 0.04 0 0.075 0.04 0 0.08 0.04 0 0.085 0.04 0 0.09 0.04 0 0.095 0.04 0 0.1 0.04 0 0.105 0.04 0 0.11 0.04 0 0.115 0.04 0 0.12 0.04 0 0.125 0.04 0 0.13 0.04 0 0.135 0.04 0 0.14 0.04 0 0.145 0.04 0 0.15 0.04 0 0.155 0.04 0 0.16 0.04 0 0.165 0.04 0 0.17 0.04 0 0.175 0.04 0 0.18 0.04 0 0.185 0.04 0 0.19 0.04 0 0.195 0.04 0 0.2 0.04 0 0.205 0.04 0 0.21 0.04 0 0.215 0.04 0 0.22 0.04 0 0.225 0.04 0 0.23 0.04 0 0.235 0.04 0 0.24 0.04 0 0.245 0.04 0 0.250001 0.04 0 0.255002 0.04 0 0.260007 0.04 0 0.265018 0.04 0 0.270041 0.04 0 0.275088 0.04 0 0.280172 0.04 0 0.28531 0.04 0 0.290516 0.04 0 0.295805 0.04 0 0.301188 0.04 0 0.306672 0.04 0 0.312267 0.04 0 0.317978 0.04 0 0.323814 0.04 0 0.32978 0.04 0 0.335886 0.04 0 0.342138 0.04 0 0.348544 0.04 0 0.355116 0.04 0 0.361861 0.04 0 0.36879 0.04 0 0.375916 0.04 0 0.383252 0.04 0 0.39081 0.04 0 0.398608 0.04 0 0.406661 0.04 0 0.414988 0.04 0 0.423611 0.04 0 0.432552 0.04 0 0.441837 0.04 0 0.451493 0.04 0 0.461552 0.04 0 0.472042 0.04 0 0.482992 0.04 0 0.494413 0.04 0 0.506272 0.04 0 0.518401 0.04 0 0.530506 0.04 0 0.542521 0.04 0 0.554442 0.04 0 0.566286 0.04 0 0.578076 0.04 0 0.589836 0.04 0 0.601581 0.04 0 0.61332 0.04 0 0.625055 0.04 0 0.63679 0.04 0 0.648525 0.04 0 0.660263 0.04 0 0.672014 0.04 0 0.674628 0.04 0 0.677166 0.04 0 0.679659 0.04 0 0.682119 0.04 0 0.684558 0.04 0 0.686979 0.04 0 0.689388 0.04 0 0.691786 0.04 0 0.694178 0.04 0 0.696565 0.04 0 0.698946 0.04 0 0.701323 0.04 0 0.703695 0.04 0 0.706064 0.04 0 0.708431 0.04 0 0.710796 0.04 0 0.713159 0.04 0 0.715521 0.04 0 0.717881 0.04 0 0.720241 0.04 0 0.7226 0.04 0 0.724958 0.04 0 0.727315 0.04 0 0.729672 0.04 0 0.732028 0.04 0 0.734384 0.04 0 0.73674 0.04 0 0.739095 0.04 0 0.741449 0.04 0 0.743804 0.04 0 0.746158 0.04 0 0.748512 0.04 0 0.750867 0.04 0 0.753222 0.04 0 0.755577 0.04 0 0.757931 0.04 0 0.760285 0.04 0 0.76264 0.04 0 0.764994 0.04 0 0.767348 0.04 0 0.769702 0.04 0 0.772057 0.04 0 0.774412 0.04 0 0.776766 0.04 0 0.779121 0.04 0 0.781475 0.04 0 0.783829 0.04 0 0.786183 0.04 0 0.788537 0.04 0 0.790893 0.04 0 0.793253 0.04 0 0.795613 0.04 0 0.797973 0.04 0 0.80033 0.04 0 0.802685 0.04 0 0.805043 0.04 0 0.807398 0.04 0 0.809778 0.04 0 0.812184 0.04 0 0.814656 0.04 0 0.817182 0.04 0 0.81984 0.04 0 0.822628 0.04 0 0.825644 0.04 0 0.82892 0.04 0 0.832524 0.04 0 0.836477 0.04 0 0.840774 0.04 0 0.84536 0.04 0 0.850151 0.04 0 0.855059 0.04 0 0.860022 0.04 0 0.865008 0.04 0 0.870003 0.04 0 0.875001 0.04 0 0.88 0.04 0 0.885 0.04 0 0.89 0.04 0 0.895 0.04 0 0.9 0.04 0 0.905 0.04 0 0.91 0.04 0 0.915 0.04 0 0.92 0.04 0 0.925 0.04 0 0.93 0.04 0 0.935 0.04 0 0.94 0.04 0 0.945 0.04 0 0.95 0.04 0 0.955 0.04 0 0.96 0.04 0 0.965 0.04 0 0.97 0.04 0 0.975 0.04 0 0.98 0.04 0 0.985 0.04 0 0.99 0.04 0 0.995 0.04 0 1 0.04 0 0 0.06 0 0.005 0.06 0 0.01 0.06 0 0.015 0.06 0 0.02 0.06 0 0.025 0.06 0 0.03 0.06 0 0.035 0.06 0 0.04 0.06 0 0.045 0.06 0 0.05 0.06 0 0.055 0.06 0 0.06 0.06 0 0.065 0.06 0 0.07 0.06 0 0.075 0.06 0 0.08 0.06 0 0.085 0.06 0 0.09 0.06 0 0.095 0.06 0 0.1 0.06 0 0.105 0.06 0 0.11 0.06 0 0.115 0.06 0 0.12 0.06 0 0.125 0.06 0 0.13 0.06 0 0.135 0.06 0 0.14 0.06 0 0.145 0.06 0 0.15 0.06 0 0.155 0.06 0 0.16 0.06 0 0.165 0.06 0 0.17 0.06 0 0.175 0.06 0 0.18 0.06 0 0.185 0.06 0 0.19 0.06 0 0.195 0.06 0 0.2 0.06 0 0.205 0.06 0 0.21 0.06 0 0.215 0.06 0 0.22 0.06 0 0.225 0.06 0 0.23 0.06 0 0.235 0.06 0 0.24 0.06 0 0.245 0.06 0 0.250001 0.06 0 0.255002 0.06 0 0.260007 0.06 0 0.265018 0.06 0 0.270041 0.06 0 0.275088 0.06 0 0.280172 0.06 0 0.28531 0.06 0 0.290516 0.06 0 0.295805 0.06 0 0.301188 0.06 0 0.306672 0.06 0 0.312267 0.06 0 0.317978 0.06 0 0.323814 0.06 0 0.32978 0.06 0 0.335886 0.06 0 0.342138 0.06 0 0.348544 0.06 0 0.355116 0.06 0 0.361861 0.06 0 0.36879 0.06 0 0.375916 0.06 0 0.383252 0.06 0 0.39081 0.06 0 0.398608 0.06 0 0.406661 0.06 0 0.414988 0.06 0 0.423611 0.06 0 0.432552 0.06 0 0.441837 0.06 0 0.451493 0.06 0 0.461552 0.06 0 0.472042 0.06 0 0.482992 0.06 0 0.494413 0.06 0 0.506272 0.06 0 0.518401 0.06 0 0.530506 0.06 0 0.542521 0.06 0 0.554442 0.06 0 0.566286 0.06 0 0.578076 0.06 0 0.589836 0.06 0 0.601581 0.06 0 0.61332 0.06 0 0.625055 0.06 0 0.63679 0.06 0 0.648525 0.06 0 0.660263 0.06 0 0.672014 0.06 0 0.674628 0.06 0 0.677166 0.06 0 0.679659 0.06 0 0.682119 0.06 0 0.684558 0.06 0 0.686979 0.06 0 0.689388 0.06 0 0.691786 0.06 0 0.694178 0.06 0 0.696565 0.06 0 0.698946 0.06 0 0.701323 0.0
[...]
			<PointData Scalars="VitesseX">
				<DataArray Name="VitesseX" type="Float32" format="ascii">
 0 -3.91622e-16 2.71405e-15 4.78308e-15 2.63185e-15 2.95234e-15 2.70854e-15 2.97628e-16 3.50368e-15 6.65809e-15 -1.90493e-15 -1.35332e-15 -1.30652e-16 5.17352e-15 -2.64501e-15 -8.03044e-15 1.23268e-14 -2.0718e-16 1.45874e-15 9.08393e-15 -1.66867e-15 8.50433e-15 8.90233e-15 -8.74801e-15 1.25912e-14 8.88366e-15 1.62101e-15 1.27612e-15 3.83124e-14 -3.6789e-15 3.16105e-14 2.4757e-14 5.7965e-14 2.35332e-14 5.6373e-14 4.94312e-14 1.36895e-13 7.48326e-13 4.44979e-12 2.62499e-11 1.48086e-10 7.95494e-10 4.05789e-09 1.96176e-08 8.96902e-08 3.86814e-07 1.56921e-06 5.96848e-06 2.12039e-05 7.00531e-05 0.000214125 0.000601946 0.00154615 0.00360492 0.00758906 0.0143942 0.0246658 0.0385083 0.0554837 0.0748865 0.0960507 0.1185 0.141948 0.166243 0.191309 0.217114 0.243651 0.270924 0.298952 0.327759 0.357374 0.387833 0.419178 0.451452 0.484706 0.518993 0.554368 0.590889 0.628612 0.667585 0.707837 0.749349 0.792007 0.835467 0.878837 0.919787 0.952098 0.960865 0.952601 0.944862 0.937988 0.933061 0.930126 0.928618 0.927914 0.927585 0.927411 0.927301 0.927227 0.927183 0.927141 0.92713 0.92712 0.927109 0.927098 0.927088 0.927079 0.927072 0.927066 0.927064 0.927066 0.927091 0.927121 0.927118 0.927118 0.927118 0.927118 0.927121 0.92715 0.927242 0.927267 0.927241 0.927173 0.927114 0.927044 0.926961 0.926881 0.926805 0.926741 0.926692 0.926665 0.926656 0.926728 0.927027 0.927013 0.926907 0.926758 0.926594 0.926484 0.926431 0.92644 0.926746 0.926658 0.926511 0.926256 0.926012 0.9258 0.925661 0.925603 0.925679 0.926749 0.928567 0.927048 0.92621 0.924365 0.922539 0.92176 0.915987 0.920445 0.886931 0.894537 0.824096 0.817446 0.715979 0.65366 0.533219 0.417984 0.292664 0.181855 0.0971153 0.0445837 0.0182057 0.00695423 0.00257703 0.000943347 0.000343638 0.000124904 4.53382e-05 1.64373e-05 5.95137e-06 2.15132e-06 7.76145e-07 2.79357e-07 1.00268e-07 3.58722e-08 1.27859e-08 4.53802e-09 1.60312e-09 5.63328e-10 1.96823e-10 6.84905e-11 2.34901e-11 8.14994e-12 2.72988e-12 9.55889e-13 3.88612e-13 2.22109e-14 2.64818e-14 9.09964e-14 1.61371e-14 0 0 -8.95501e-16 -9.22287e-16 4.70976e-15 2.30061e-15 2.96286e-15 2.36821e-15 5.34407e-15 3.02912e-15 2.24703e-15 -5.48838e-15 3.1636e-15 2.62892e-15 4.1258e-16 -4.26893e-15 5.01753e-15 -1.66183e-15 7.41245e-15 8.53072e-15 -1.84418e-15 1.08381e-14 -9.28828e-15 3.35474e-15 1.08729e-14 -5.73991e-15 1.48412e-14 2.30639e-14 8.02106e-15 -8.57736e-15 2.34912e-14 2.27226e-14 3.23083e-14 4.77124e-14 4.17988e-14 5.23268e-14 5.80649e-14 1.41913e-13 7.32364e-13 4.45981e-12 2.62289e-11 1.48124e-10 7.95518e-10 4.05784e-09 1.96176e-08 8.96902e-08 3.86814e-07 1.56921e-06 5.96848e-06 2.12039e-05 7.00531e-05 0.000214125 0.000601946 0.00154615 0.00360492 0.00758906 0.0143942 0.0246658 0.0385083 0.0554837 0.0748865 0.0960507 0.1185 0.141948 0.166243 0.191309 0.217114 0.243651 0.270924 0.298952 0.327759 0.357374 0.387833 0.419178 0.451452 0.484706 0.518993 0.554368 0.590889 0.628612 0.667585 0.707837 0.749349 0.792007 0.835467 0.878837 0.919787 0.952098 0.960865 0.952601 0.944862 0.937988 0.933061 0.930126 0.928618 0.927914 0.927585 0.927411 0.927301 0.927227 0.927183 0.927141 0.92713 0.92712 0.927109 0.927098 0.927088 0.927079 0.927072 0.927066 0.927064 0.927066 0.927091 0.927121 0.927118 0.927118 0.927118 0.927118 0.927121 0.92715 0.927242 0.927267 0.927241 0.927173 0.927114 0.927044 0.926961 0.926881 0.926805 0.926741 0.926692 0.926665 0.926656 0.926728 0.927027 0.927013 0.926907 0.926758 0.926594 0.926484 0.926431 0.92644 0.926746 0.926658 0.926511 0.926256 0.926012 0.9258 0.925661 0.925603 0.925679 0.926749 0.928567 0.927048 0.92621 0.924365 0.922539 0.92176 0.915987 0.920445 0.886931 0.894537 0.824096 0.817446 0.715979 0.65366 0.533219 0.417984 0.292664 0.181855 0.0971153 0.0445837 0.0182057 0.00695423 0.00257703 0.000943347 0.000343638 0.000124904 4.53382e-05 1.64373e-05 5.95137e-06 2.15132e-06 7.76145e-07 2.79357e-07 1.00268e-07 3.58722e-08 1.27859e-08 4.53806e-09 1.6031e-09 5.63297e-10 1.96904e-10 6.8385e-11 2.36592e-11 8.03589e-12 2.8424e-12 8.83301e-13 3.79647e-13 1.11338e-13 4.64626e-14 1.07338e-13 7.36846e-14 0 0 -2.5568e-15 -1.40813e-15 -1.09054e-15 2.73102e-15 -6.01393e-16 3.19587e-15 5.91307e-15 5.83652e-15 -3.78059e-15 -4.49889e-15 -3.55789e-15 8.35881e-15 -4.01798e-15 -1.09747e-15 6.4786e-15 -7.83019e-15 8.53606e-15 5.99049e-15 -8.27548e-15 1.51453e-14 -5.75581e-15 5.82708e-15 1.05004e-14 2.69908e-15 1.68833e-14 1.48993e-14 2.28076e-14 -1.96866e-14 1.51086e-14 3.03749e-14 4.72244e-14 2.9063e-14 6.12479e-14 5.33616e-14 7.8382e-14 1.24187e-13 7.40992e-13 4.46325e-12 2.62142e-11 1.48075e-10 7.95563e-10 4.0578e-09 1.96175e-08 8.96902e-08 3.86814e-07 1.56921e-06 5.96848e-06 2.12039e-05 7.00531e-05 0.000214125 0.000601946 0.00154615 0.00360492 0.00758906 0.0143942 0.0246658 0.0385083 0.0554837 0.0748865 0.0960507 0.1185 0.141948 0.166243 0.191309 0.217114 0.243651 0.270924 0.298952 0.327759 0.357374 0.387833 0.419178 0.451452 0.484706 0.518993 0.554368 0.590889 0.628612 0.667585 0.707837 0.749349 0.792007 0.835467 0.878837 0.919787 0.952098 0.960865 0.952601 0.944862 0.937988 0.933061 0.930126 0.928618 0.927914 0.927585 0.927411 0.927301 0.927227 0.927183 0.927141 0.92713 0.92712 0.927109 0.927098 0.927088 0.927079 0.927072 0.927066 0.927064 0.927066 0.927091 0.927121 0.927118 0.927118 0.927118 0.927118 0.927121 0.92715 0.927242 0.927267 0.927241 0.927173 0.927114 0.927044 0.926961 0.926881 0.926805 0.926741 0.926692 0.926665 0.926656 0.926728 0.927027 0.927013 0.926907 0.926758 0.926594 0.926484 0.926431 0.92644 0.926746 0.926658 0.926511 0.926256 0.926012 0.9258 0.925661 0.925603 0.925679 0.926749 0.928567 0.927048 0.92621 0.924365 0.922539 0.92176 0.915987 0.920445 0.886931 0.894537 0.824096 0.817446 0.715979 0.65366 0.533219 0.417984 0.292664 0.181855 0.0971153 0.0445837 0.0182057 0.00695423 0.00257703 0.000943347 0.000343638 0.000124904 4.53382e-05 1.64373e-05 5.95137e-06 2.15132e-06 7.76145e-07 2.79357e-07 1.00268e-07 3.58722e-08 1.27859e-08 4.53813e-09 1.60311e-09 5.63378e-10 1.9681e-10 6.84032e-11 2.36961e-11 8.13717e-12 2.91163e-12 9.23827e-13 3.39744e-13 1.56987e-13 9.88616e-14 1.42129e-13 8.77019e-14 0 0 -2.06025e-15 -2.25281e-15 -3.97303e-15 -1.97191e-15 -3.96008e-15 -5.38552e-15 -4.39172e-15 5.36373e-15 7.51512e-15 3.37795e-15 -8.32484e-15 -3.66293e-16 1.16375e-14 -2.61294e-15 1.06693e-15 -6.5225e-15 -2.04747e-15 1.56023e-15 9.51586e-15 -3.8517e-15 1.2866e-14 1.35717e-15 -1.05135e-14 3.45612e-14 2.42392e-14 -7.33473e-15 1.54538e-14 7.9555e-15 6.3986e-15 2.54936e-14 5.3349e-14 4.84324e-14 8.20684e-14 2.92958e-14 7.42791e-14 1.65056e-13 7.01546e-13 4.4615e-12 2.62422e-11 1.47984e-10 7.95532e-10 4.0578e-09 1.96174e-08 8.96902e-08 3.86814e-07 1.56921e-06 5.96848e-06 2.12039e-05 7.00531e-05 0.000214125 0.000601946 0.00154615 0.00360492 0.00758906 0.0143942 0.0246658 0.0385083 0.0554837 0.0748865 0.0960507 0.1185 0.141948 0.166243 0.191309 0.217114 0.243651 0.270924 0.298952 0.327759 0.357374 0.387833 0.419178 0.451452 0.484706 0.518993 0.554368 0.590889 0.628612 0.667585 0.707837 0.749349 0.792007 0.835467 0.878837 0.919787 0.952098 0.960865 0.952601 0.944862 0.937988 0.933061 0.930126 0.928618 0.927914 0.927585 0.927411 0.927301 0.927227 0.927183 0.927141 0.92713 0.92712 0.927109 0.927098 0.927088 0.927079 0.927072 0.927066 0.927064 0.927066 0.927091 0.927121 0.927118 0.927118 0.927118 0.927118 0.927121 0.92715 0.927242 0.927267 0.927241 0.927173 0.927114 0.927044 0.926961 0.926881 0.926805 0.926741 0.926692 0.926665 0.926656 0.926728 0.927027 0.927013 0.926907 0.926758 0.926594 0.926484 0.926431 0.92644 0.926746 0.926658 0.926511 0.926256 0.926012 0.9258 0.925661 0.925603 0.925679 0.926749 0.928567 0.927048 0.92621 0.924365 0.922539 0.92176 0.915987 0.920445 0.886931 0.894537 0.824096 0.817446 0.715979 0.65366 0.533219 0.417984 0.292664 0.181855 0.0971153 0.0445837 0.0182057 0.00695423 0.00257703 0.000943347 0.000343638 0.000124904 4.53382e-05 1.64373e-05 5.95137e-06 2.15132e-06 7.76145e-07 2.79357e-07 1.00269e-07 3.58721e-08 1.27859e-08 4.53807e-09 1.60306e-09 5.63533e-10 1.96748e-10 6.8542e-11 2.3621e-11 8.36152e-12 2.95251e-12 1.01675e-12 3.07852e-13 -2.57364e-14 1.32965e-13 2.07942e-13 9.66817e-15 0 0 -2.56748e-15 -6.23371e-15 -1.7053e-15 -2.52208e-15 -3.23518e-15 -9.10173e-15 -8.22089e-15 -8.84625e-15 5.15829e-15 5.19294e-15 -1.84645e-15 -4.95676e-16 1.52307e-14 4.45308e-15 3.64918e-15 -9.46189e-15 -4.19472e-15 2.86917e-14 4.74118e-15 -2.23599e-14 1.21992e-14 -1.25943e-14 1.02313e-15 2.53068e-14 2.81685e-14 7.85148e-15 1.82832e-14 1.87656e-14 -5.7872e-15 1.72103e-14 4.95104e-14 6.71226e-14 7.66497e-14 4.0971e-14 9.58481e-14 1.78935e-13 6.40969e-13 4.43099e-12 2.62098e-11 1.48045e-10 7.9551e-10 4.05783e-09 1.96174e-08 8.96902e-08 3.86814e-07 1.56921e-06 5.96848e-06 2.12039e-05 7.00531e-05 0.000214125 0.000601946 0.00154615 0.00360492 0.00758906 0.0143942 0.0246658 0.0385083 0.0554837 0.0748865 0.0960507 0.1185 0.141948 0.166243 0.191309 0.217114 0.243651 0.270924 0.298952 0.327759 0.357374 0.387833 0.419178 0.451452 0.484706 0.518993 0.554368 0.590889 0.628612 0.667585 0.707837 0.749349 0.792007 0.835467 0.878837 0.919787 0.952098 0.960865 0.952601 0.944862 0.937988 0.933061 0.930126 0.928618 0.927914 0.927585 0.927411 0.927301 0.927227 0.927183 0.927141 0.92713 0.92712 0.927109 0.927098 0.927088 0.927079 0.927072 0.927066 0.927064 0.927066 0.927091 0.927121 0.927118 0.927118 0.927118 0.927118 0.927121 0.92715 0.927242 0.927267 0.927241 0.927173 0.927114 0.927044 0.926961 0.926881 0.926805 0.926741 0.926692 0.926665 0.926656 0.926728 0.927027 0.927013 0.926907 0.926758 0.926594 0.926484 0.926431 0.92644 0.926746 0.926658 0.926511 0.926256 0.926012 0.9258 0.925661 0.925603 0.925679 0.926749 0.928567 0.927048 0.92621 0.924365 0.922539 0.92176 0.915987 0.920445 0.886931 0.894537 0.824096 0.817446 0.715979 0.65366 0.533219 0.417984 0.292664 0.181855 0.0971153 0.0445837 0.0182057 0.00695423 0.00257703 0.000943347 0.000343638 0.000124904 4.53382e-05 1.64373e-05 5.95137e-06 2.15132e-06 7.76145e-07 2.79357e-07 1.00268e-07 3.58721e-08 1.27861e-08 4.538e-09 1.60308e-09 5.63573e-10 1.96943e-10 6.85296e-11 2.37809e-11 8.13055e-12 3.05099e-12 9.70467e-13 2.13396e-13 -3.43318e-14 8.58658e-14 2.15429e-13 1.17384e-14 0 0 -4.72867e-15 -6.21943e-15 -2.28207e-15 2.39232e-15 -2.72638e-15 -3.06854e-15 -6.22272e-15 -1.93015e-14 -1.01108e-14 3.70402e-15 -1.83952e-15 1.10703e-14 3.49872e-15 1.78299e-14 5.61867e-17 -5.88868e-15 -2.25446e-15 5.06411e-14 -1.3328e-14 -3.00708e-14 1.42356e-14 -1.4056e-14 1.35803e-14 1.09606e-14 2.08263e-14 1.56643e-14 3.6508e-14 3.7714e-14 -4.48157e-14 3.03486e-14 4.6912e-14 5.80467e-14 5.1594e-14 8.17931e-14 1.33204e-13 1.292e-13 6.44427e-13 4.39564e-12 2.61558e-11 1.48111e-10 7.95541e-10 4.05786e-09 1.96174e-08 8.96901e-08 3.86814e-07 1.56921e-06 5.96848e-06 2.12039e-05 7.00531e-05 0.000214125 0.000601946 0.00154615 0.00360492 0.00758906 0.0143942 0.0246658 0.0385083 0.0554837 0.0748865 0.0960507 0.1185 0.141948 0.166243 0.191309 0.217114 0.243651 0.270924 0.298952 0.327759 0.357374 0.387833 0.419178 0.451452 0.484706 0.518993 0.554368 0.590889 0.628612 0.667585 0.707837 0.749349 0.792007 0.835467 0.878837 0.919787 0.952098 0.960865 0.952601 0.944862 0.937988 0.933061 0.930126 0.928618 0.927914 0.927585 0.927411 0.927301 0.927227 0.927183 0.927141 0.92713 0.92712 0.927109 0.927098 0.927088 0.927079 0.927072 0.927066 0.927064 0.927066 0.927091 0.927121 0.927118 0.927118 0.927118 0.927118 0.927121 0.92715 0.927242 0.927267 0.927241 0.927173 0.927114 0.927044 0.926961 0.926881 0.926805 0.926741 0.926692 0.926665 0.926656 0.926728 0.927027 0.927013 0.926907 0.926758 0.926594 0.926484 0.926431 0.92644 0.926746 0.926658 0.926511 0.926256 0.926012 0.9258 0.925661 0.925603 0.925679 0.926749 0.928567 0.927048 0.92621 0.924365 0.922539 0.92176 0.915987 0.920445 0.886931 0.894537 0.824096 0.817446 0.715979 0.65366 0.533219 0.417984 0.292664 0.181855 0.0971153 0.0445837 0.0182057 0.00695423 0.00257703 0.000943347 0.000343638 0.000124904 4.53382e-05 1.64373e-05 5.95137e-06 2.15132e-06 7.76145e-07 2.79357e-07 1.00268e-07 3.58723e-08 1.27862e-08 4.53801e-09 1.60317e-09 5.63573e-10 1.97026e-10 6.85013e-11 2.38836e-11 7.89043e-12 3.06537e-12 9.4518e-13 1.20409e-13 9.63745e-14 3.73052e-14 1.75971e-13 4.85613e-14 0
				</DataArray>
				<DataArray Name="VitesseY" type="Float32" format="ascii">