<?xml version="1.0"?>
<VTKFile type="PolyData">
	<PolyData>
		<Piece NumberOfPoints="1206" NumberOfPolys="1000">
			<Points>
				<DataArray type="Float32" NumberOfComponents="3" format="ascii">
 0 0 0 0.005 0 0 0.01 0 0 0.015 0 0 0.02 0 0 0.025 0 0 0.03 0 0 0.035 0 0 0.04 0 0 0.045 0 0 0.05 0 0 0.055 0 0 0.06 0 0 0.065 0 0 0.07 0 0 0.075 0 0 0.08 0 0 0.085 0 0 0.09 0 0 0.095 0 0 0.1 0 0 0.105 0 0 0.11 0 0 0.115 0 0 0.12 0 0 0.125 0 0 0.13 0 0 0.135 0 0 0.14 0 0 0.145 0 0 0.15 0 0 0.155 0 0 0.16 0 0 0.165 0 0 0.17 0 0 0.175 0 0 0.18 0 0 0.185 0 0 0.19 0 0 0.195 0 0 0.2 0 0 0.205 0 0 0.21 0 0 0.215 0 0 0.22 0 0 0.225 0 0 0.23 0 0 0.235 0 0 0.24 0 0 0.245 0 0 0.25 0 0 0.255 0 0 0.26 0 0 0.265 0 0 0.27 0 0 0.275001 0 0 0.280002 0 0 0.285007 0 0 0.290018 0 0 0.295043 0 0 0.300095 0 0 0.30519 0 0 0.310347 0 0 0.315585 0 0 0.320918 0 0 0.32636 0 0 0.331922 0 0 0.337612 0 0 0.34344 0 0 0.349415 0 0 0.355546 0 0 0.361843 0 0 0.368318 0 0 0.374982 0 0 0.381849 0 0 0.388932 0 0 0.396248 0 0 0.403813 0 0 0.411649 0 0 0.419775 0 0 0.428217 0 0 0.437002 0 0 0.44616 0 0 0.455724 0 0 0.465732 0 0 0.476221 0 0 0.487222 0 0 0.498746 0 0 0.510727 0 0 0.522899 0 0 0.534984 0 0 0.546967 0 0 0.558851 0 0 0.570664 0 0 0.582435 0 0 0.594185 0 0 0.605926 0 0 0.617664 0 0 0.629401 0 0 0.641141 0 0 0.652893 0 0 0.655506 0 0 0.658045 0 0 0.660538 0 0 0.662999 0 0 0.665437 0 0 0.667859 0 0 0.670268 0 0 0.672666 0 0 0.675058 0 0 0.677446 0 0 0.679827 0 0 0.682204 0 0 0.684576 0 0 0.686945 0 0 0.689312 0 0 0.691677 0 0 0.69404 0 0 0.696402 0 0 0.698762 0 0 0.701121 0 0 0.70348 0 0 0.705838 0 0 0.708195 0 0 0.710552 0 0 0.712909 0 0 0.715265 0 0 0.717621 0 0 0.719977 0 0 0.722332 0 0 0.724688 0 0 0.727044 0 0 0.7294 0 0 0.731756 0 0 0.734111 0 0 0.736466 0 0 0.738821 0 0 0.741177 0 0 0.743532 0 0 0.745888 0 0 0.748243 0 0 0.750597 0 0 0.752951 0 0 0.755306 0 0 0.757665 0 0 0.760027 0 0 0.762387 0 0 0.764745 0 0 0.767101 0 0 0.769451 0 0 0.77181 0 0 0.77419 0 0 0.776614 0 0 0.779084 0 0 0.781649 0 0 0.784317 0 0 0.787166 0 0 0.790227 0 0 0.793579 0 0 0.797258 0 0 0.801292 0 0 0.805659 0 0 0.810299 0 0 0.815123 0 0 0.820047 0 0 0.825017 0 0 0.830006 0 0 0.835002 0 0 0.840001 0 0 0.845 0 0 0.85 0 0 0.855 0 0 0.86 0 0 0.865 0 0 0.87 0 0 0.875 0 0 0.88 0 0 0.885 0 0 0.89 0 0 0.895 0 0 0.9 0 0 0.905 0 0 0.91 0 0 0.915 0 0 0.92 0 0 0.925 0 0 0.93 0 0 0.935 0 0 0.94 0 0 0.945 0 0 0.95 0 0 0.955 0 0 0.96 0 0 0.965 0 0 0.97 0 0 0.975 0 0 0.98 0 0 0.985 0 0 0.99 0 0 0.995 0 0 1 0 0 0 0.02 0 0.005 0.02 0 0.01 0.02 0 0.015 0.02 0 0.02 0.02 0 0.025 0.02 0 0.03 0.02 0 0.035 0.02 0 0.04 0.02 0 0.045 0.02 0 0.05 0.02 0 0.055 0.02 0 0.06 0.02 0 0.065 0.02 0 0.07 0.02 0 0.075 0.02 0 0.08 0.02 0 0.085 0.02 0 0.09 0.02 0 0.095 0.02 0 0.1 0.02 0 0.105 0.02 0 0.11 0.02 0 0.115 0.02 0 0.12 0.02 0 0.125 0.02 0 0.13 0.02 0 0.135 0.02 0 0.14 0.02 0 0.145 0.02 0 0.15 0.02 0 0.155 0.02 0 0.16 0.02 0 0.165 0.02 0 0.17 0.02 0 0.175 0.02 0 0.18 0.02 0 0.185 0.02 0 0.19 0.02 0 0.195 0.02 0 0.2 0.02 0 0.205 0.02 0 0.21 0.02 0 0.215 0.02 0 0.22 0.02 0 0.225 0.02 0 0.23 0.02 0 0.235 0.02 0 0.24 0.02 0 0.245 0.02 0 0.25 0.02 0 0.255 0.02 0 0.26 0.02 0 0.265 0.02 0 0.27 0.02 0 0.275001 0.02 0 0.280002 0.02 0 0.285007 0.02 0 0.290018 0.02 0 0.295043 0.02 0 0.300095 0.02 0 0.30519 0.02 0 0.310347 0.02 0 0.315585 0.02 0 0.320918 0.02 0 0.32636 0.02 0 0.331922 0.02 0 0.337612 0.02 0 0.34344 0.02 0 0.349415 0.02 0 0.355546 0.02 0 0.361843 0.02 0 0.368318 0.02 0 0.374982 0.02 0 0.381849 0.02 0 0.388932 0.02 0 0.396248 0.02 0 0.403813 0.02 0 0.411649 0.02 0 0.419775 0.02 0 0.428217 0.02 0 0.437002 0.02 0 0.44616 0.02 0 0.455724 0.02 0 0.465732 0.02 0 0.476221 0.02 0 0.487222 0.02 0 0.498746 0.02 0 0.510727 0.02 0 0.522899 0.02 0 0.534984 0.02 0 0.546967 0.02 0 0.558851 0.02 0 0.570664 0.02 0 0.582435 0.02 0 0.594185 0.02 0 0.605926 0.02 0 0.617664 0.02 0 0.629401 0.02 0 0.641141 0.02 0 0.652893 0.02 0 0.655506 0.02 0 0.658045 0.02 0 0.660538 0.02 0 0.662999 0.02 0 0.665437 0.02 0 0.667859 0.02 0 0.670268 0.02 0 0.672666 0.02 0 0.675058 0.02 0 0.677446 0.02 0 0.679827 0.02 0 0.682204 0.02 0 0.684576 0.02 0 0.686945 0.02 0 0.689312 0.02 0 0.691677 0.02 0 0.69404 0.02 0 0.696402 0.02 0 0.698762 0.02 0 0.701121 0.02 0 0.70348 0.02 0 0.705838 0.02 0 0.708195 0.02 0 0.710552 0.02 0 0.712909 0.02 0 0.715265 0.02 0 0.717621 0.02 0 0.719977 0.02 0 0.722332 0.02 0 0.724688 0.02 0 0.727044 0.02 0 0.7294 0.02 0 0.731756 0.02 0 0.734111 0.02 0 0.736466 0.02 0 0.738821 0.02 0 0.741177 0.02 0 0.743532 0.02 0 0.745888 0.02 0 0.748243 0.02 0 0.750597 0.02 0 0.752951 0.02 0 0.755306 0.02 0 0.757665 0.02 0 0.760027 0.02 0 0.762387 0.02 0 0.764745 0.02 0 0.767101 0.02 0 0.769451 0.02 0 0.77181 0.02 0 0.77419 0.02 0 0.776614 0.02 0 0.779084 0.02 0 0.781649 0.02 0 0.784317 0.02 0 0.787166 0.02 0 0.790227 0.02 0 0.793579 0.02 0 0.797258 0.02 0 0.801292 0.02 0 0.805659 0.02 0 0.810299 0.02 0 0.815123 0.02 0 0.820047 0.02 0 0.825017 0.02 0 0.830006 0.02 0 0.835002 0.02 0 0.840001 0.02 0 0.845 0.02 0 0.85 0.02 0 0.855 0.02 0 0.86 0.02 0 0.865 0.02 0 0.87 0.02 0 0.875 0.02 0 0.88 0.02 0 0.885 0.02 0 0.89 0.02 0 0.895 0.02 0 0.9 0.02 0 0.905 0.02 0 0.91 0.02 0 0.915 0.02 0 0.92 0.02 0 0.925 0.02 0 0.93 0.02 0 0.935 0.02 0 0.94 0.02 0 0.945 0.02 0 0.95 0.02 0 0.955 0.02 0 0.96 0.02 0 0.965 0.02 0 0.97 0.02 0 0.975 0.02 0 0.98 0.02 0 0.985 0.02 0 0.99 0.02 0 0.995 0.02 0 1 0.02 0 0 0.04 0 0.005 0.04 0 0.01 0.04 0 0.015 0.04 0 0.02 0.04 0 0.025 0.04 0 0.03 0.04 0 0.035 0.04 0 0.04 0.04 0 0.045 0.04 0 0.05 0.04 0 0.055 0.04 0 0.06 0.04 0 0.065 0.04 0 0.07 0.04 0 0.075 0.04 0 0.08 0.04 0 0.085 0.04 0 0.09 0.04 0 0.095 0.04 0 0.1 0.04 0 0.105 0.04 0 0.11 0.04 0 0.115 0.04 0 0.12 0.04 0 0.125 0.04 0 0.13 0.04 0 0.135 0.04 0 0.14 0.04 0 0.145 0.04 0 0.15 0.04 0 0.155 0.04 0 0.16 0.04 0 0.165 0.04 0 0.17 0.04 0 0.175 0.04 0 0.18 0.04 0 0.185 0.04 0 0.19 0.04 0 0.195 0.04 0 0.2 0.04 0 0.205 0.04 0 0.21 0.04 0 0.215 0.04 0 0.22 0.04 0 0.225 0.04 0 0.23 0.04 0 0.235 0.04 0 0.24 0.04 0 0.245 0.04 0 0.25 0.04 0 0.255 0.04 0 0.26 0.04 0 0.265 0.04 0 0.27 0.04 0 0.275001 0.04 0 0.280002 0.04 0 0.285007 0.04 0 0.290018 0.04 0 0.295043 0.04 0 0.300095 0.04 0 0.30519 0.04 0 0.310347 0.04 0 0.315585 0.04 0 0.320918 0.04 0 0.32636 0.04 0 0.331922 0.04 0 0.337612 0.04 0 0.34344 0.04 0 0.349415 0.04 0 0.355546 0.04 0 0.361843 0.04 0 0.368318 0.04 0 0.374982 0.04 0 0.381849 0.04 0 0.388932 0.04 0 0.396248 0.04 0 0.403813 0.04 0 0.411649 0.04 0 0.419775 0.04 0 0.428217 0.04 0 0.437002 0.04 0 0.44616 0.04 0 0.455724 0.04 0 0.465732 0.04 0 0.476221 0.04 0 0.487222 0.04 0 0.498746 0.04 0 0.510727 0.04 0 0.522899 0.04 0 0.534984 0.04 0 0.546967 0.04 0 0.558851 0.04 0 0.570664 0.04 0 0.582435 0.04 0 0.594185 0.04 0 0.605926 0.04 0 0.617664 0.04 0 0.629401 0.04 0 0.641141 0.04 0 0.652893 0.04 0 0.655506 0.04 0 0.658045 0.04 0 0.660538 0.04 0 0.662999 0.04 0 0.665437 0.04 0 0.667859 0.04 0 0.670268 0.04 0 0.672666 0.04 0 0.675058 0.04 0 0.677446 0.04 0 0.679827 0.04 0 0.682204 0.04 0 0.684576 0.04 0 0.686945 0.04 0 0.689312 0.04 0 0.691677 0.04 0 0.69404 0.04 0 0.696402 0.04 0 0.698762 0.04 0 0.701121 0.04 0 0.70348 0.04 0 0.705838 0.04 0 0.708195 0.04 0 0.710552 0.04 0 0.712909 0.04 0 0.715265 0.04 0 0.717621 0.04 0 0.719977 0.04 0 0.722332 0.04 0 0.724688 0.04 0 0.727044 0.04 0 0.7294 0.04 0 0.731756 0.04 0 0.734111 0.04 0 0.736466 0.04 0 0.738821 0.04 0 0.741177 0.04 0 0.743532 0.04 0 0.745888 0.04 0 0.748243 0.04 0 0.750597 0.04 0 0.752951 0.04 0 0.755306 0.04 0 0.757665 0.04 0 0.760027 0.04 0 0.762387 0.04 0 0.764745 0.04 0 0.767101 0.04 0 0.769451 0.04 0 0.77181 0.04 0 0.77419 0.04 0 0.776614 0.04 0 0.779084 0.04 0 0.781649 0.04 0 0.784317 0.04 0 0.787166 0.04 0 0.790227 0.04 0 0.793579 0.04 0 0.797258 0.04 0 0.801292 0.04 0 0.805659 0.04 0 0.810299 0.04 0 0.815123 0.04 0 0.820047 0.04 0 0.825017 0.04 0 0.830006 0.04 0 0.835002 0.04 0 0.840001 0.04 0 0.845 0.04 0 0.85 0.04 0 0.855 0.04 0 0.86 0.04 0 0.865 0.04 0 0.87 0.04 0 0.875 0.04 0 0.88 0.04 0 0.885 0.04 0 0.89 0.04 0 0.895 0.04 0 0.9 0.04 0 0.905 0.04 0 0.91 0.04 0 0.915 0.04 0 0.92 0.04 0 0.925 0.04 0 0.93 0.04 0 0.935 0.04 0 0.94 0.04 0 0.945 0.04 0 0.95 0.04 0 0.955 0.04 0 0.96 0.04 0 0.965 0.04 0 0.97 0.04 0 0.975 0.04 0 0.98 0.04 0 0.985 0.04 0 0.99 0.04 0 0.995 0.04 0 1 0.04 0 0 0.06 0 0.005 0.06 0 0.01 0.06 0 0.015 0.06 0 0.02 0.06 0 0.025 0.06 0 0.03 0.06 0 0.035 0.06 0 0.04 0.06 0 0.045 0.06 0 0.05 0.06 0 0.055 0.06 0 0.06 0.06 0 0.065 0.06 0 0.07 0.06 0 0.075 0.06 0 0.08 0.06 0 0.085 0.06 0 0.09 0.06 0 0.095 0.06 0 0.1 0.06 0 0.105 0.06 0 0.11 0.06 0 0.115 0.06 0 0.12 0.06 0 0.125 0.06 0 0.13 0.06 0 0.135 0.06 0 0.14 0.06 0 0.145 0.06 0 0.15 0.06 0 0.155 0.06 0 0.16 0.06 0 0.165 0.06 0 0.17 0.06 0 0.175 0.06 0 0.18 0.06 0 0.185 0.06 0 0.19 0.06 0 0.195 0.06 0 0.2 0.06 0 0.205 0.06 0 0.21 0.06 0 0.215 0.06 0 0.22 0.06 0 0.225 0.06 0 0.23 0.06 0 0.235 0.06 0 0.24 0.06 0 0.245 0.06 0 0.25 0.06 0 0.255 0.06 0 0.26 0.06 0 0.265 0.06 0 0.27 0.06 0 0.275001 0.06 0 0.280002 0.06 0 0.285007 0.06 0 0.290018 0.06 0 0.295043 0.06 0 0.300095 0.06 0 0.30519 0.06 0 0.310347 0.06 0 0.315585 0.06 0 0.320918 0.06 0 0.32636 0.06 0 0.331922 0.06 0 0.337612 0.06 0 0.34344 0.06 0 0.349415 0.06 0 0.355546 0.06 0 0.361843 0.06 0 0.368318 0.06 0 0.374982 0.06 0 0.381849 0.06 0 0.388932 0.06 0 0.396248 0.06 0 0.403813 0.06 0 0.411649 0.06 0 0.419775 0.06 0 0.428217 0.06 0 0.437002 0.06 0 0.44616 0.06 0 0.455724 0.06 0 0.465732 0.06 0 0.476221 0.06 0 0.487222 0.06 0 0.498746 0.06 0 0.510727 0.06 0 0.522899 0.06 0 0.534984 0.06 0 0.546967 0.06 0 0.558851 0.06 0 0.570664 0.06 0 0.582435 0.06 0 0.594185 0.06 0 0.605926 0.06 0 0.617664 0.06 0 0.629401 0.06 0 0.641141 0.06 0 0.652893 0.06 0 0.655506 0.06 0 0.658045 0.06 0 0.660538 0.06 0 0.662999 0.06 0 0.665437 0.06 0 0.667859 0.06 0 0.670268 0.06 0 0.672666 0.06 0 0.675058 0.06 0 0.677446 0.06 0 0.679827 0.06 0 0.682204 0.06 0 0.684576 0.06 0 0.686945 0.06 0 0.689312 0.06 0 0.691677 0.06 0 0.69404 0.06 0 0.696402 0.06 0 0.698762 0.06 0 0.701121 0.06 0
[...]
			<PointData Scalars="VitesseX">
				<DataArray Name="VitesseX" type="Float32" format="ascii">
 0 -8.61636e-16 1.28334e-15 2.97311e-15 2.01106e-15 -7.37591e-16 1.03198e-15 6.19584e-15 8.36047e-15 5.2254e-15 -1.50955e-15 5.0859e-15 7.7537e-16 7.10499e-16 -4.18936e-15 1.23068e-14 1.17302e-15 -1.21049e-14 1.22124e-14 7.05312e-15 -4.69782e-15 7.21844e-15 3.34596e-17 8.01516e-15 5.33326e-15 -2.06212e-14 2.92065e-14 -1.16164e-14 -1.201e-14 1.82456e-14 4.48208e-15 2.30873e-14 2.7509e-14 -2.00865e-14 3.63697e-14 -6.70361e-15 3.05529e-14 4.06288e-14 2.40052e-14 4.78657e-14 6.26875e-14 5.33179e-14 3.06858e-13 1.56254e-12 1.02983e-11 6.38414e-11 3.7614e-10 2.09658e-09 1.10425e-08 5.48253e-08 2.55901e-07 1.11945e-06 4.57362e-06 1.73806e-05 6.11437e-05 0.000198008 0.000586436 0.00157684 0.00382081 0.0082927 0.016082 0.0279594 0.0440079 0.0636502 0.0860267 0.110373 0.136172 0.163137 0.191121 0.220062 0.249943 0.28077 0.312567 0.34537 0.379223 0.414179 0.4503 0.487653 0.526309 0.566346 0.60784 0.650859 0.695448 0.741595 0.789153 0.837649 0.885778 0.929952 0.960347 0.959098 0.95026 0.941623 0.935133 0.931105 0.92903 0.928083 0.927654 0.927437 0.9273 0.927183 0.9271 0.927129 0.927125 0.92712 0.927112 0.927101 0.927085 0.927068 0.927049 0.927032 0.927016 0.927003 0.92699 0.926978 0.92696 0.926939 0.926911 0.926881 0.926852 0.926834 0.926828 0.926847 0.926994 0.926975 0.92692 0.926846 0.926759 0.926721 0.926709 0.926852 0.927274 0.927055 0.926929 0.926781 0.92662 0.926542 0.926533 0.926741 0.926214 0.925918 0.925394 0.925012 0.924807 0.925549 0.928382 0.927632 0.925973 0.925606 0.922923 0.920564 0.92118 0.907161 0.904349 0.858444 0.849181 0.769181 0.72232 0.614793 0.512996 0.387423 0.266452 0.160111 0.0826646 0.0368398 0.0147663 0.00558875 0.00206205 0.00075288 0.000273615 9.91739e-05 3.58671e-05 1.29414e-05 4.65689e-06 1.67047e-06 5.97e-07 2.12451e-07 7.52379e-08 2.65e-08 9.27735e-09 3.22648e-09 1.11402e-09 3.81601e-10 1.29688e-10 4.36927e-11 1.4651e-11 4.89874e-12 1.47814e-12 5.31302e-13 5.29795e-14 5.66169e-14 -9.47606e-14 -4.91929e-14 -3.33549e-14 -1.04727e-13 2.60407e-14 -1.16762e-13 -6.81403e-14 -4.34197e-14 3.56233e-14 -7.42443e-14 0 0 3.48203e-16 1.46963e-15 1.62067e-15 9.24992e-16 -4.26085e-16 4.94956e-16 1.39257e-15 6.19967e-15 6.42761e-15 5.6874e-15 1.99782e-15 1.06353e-15 4.04574e-16 4.2059e-15 -6.13334e-15 8.80741e-15 -7.61337e-15 6.22515e-15 -1.26505e-15 -2.22253e-15 1.25157e-14 7.51582e-15 -4.33285e-15 1.27143e-14 -4.06569e-15 -1.21046e-14 7.23217e-15 1.86127e-14 -1.69822e-14 2.95692e-14 -4.63329e-15 3.28716e-14 -1.67995e-16 4.0347e-15 2.34541e-14 7.74546e-15 4.01375e-14 3.43297e-14 4.62816e-14 4.49011e-14 7.56987e-14 2.77895e-13 1.62137e-12 1.02647e-11 6.38504e-11 3.7612e-10 2.0965e-09 1.10425e-08 5.48253e-08 2.55901e-07 1.11945e-06 4.57362e-06 1.73806e-05 6.11437e-05 0.000198008 0.000586436 0.00157684 0.00382081 0.0082927 0.016082 0.0279594 0.0440079 0.0636502 0.0860267 0.110373 0.136172 0.163137 0.191121 0.220062 0.249943 0.28077 0.312567 0.34537 0.379223 0.414179 0.4503 0.487653 0.526309 0.566346 0.60784 0.650859 0.695448 0.741595 0.789153 0.837649 0.885778 0.929952 0.960347 0.959098 0.95026 0.941623 0.935133 0.931105 0.92903 0.928083 0.927654 0.927437 0.9273 0.927183 0.9271 0.927129 0.927125 0.92712 0.927112 0.927101 0.927085 0.927068 0.927049 0.927032 0.927016 0.927003 0.92699 0.926978 0.92696 0.926939 0.926911 0.926881 0.926852 0.926834 0.926828 0.926847 0.926994 0.926975 0.92692 0.926846 0.926759 0.926721 0.926709 0.926852 0.927274 0.927055 0.926929 0.926781 0.92662 0.926542 0.926533 0.926741 0.926214 0.925918 0.925394 0.925012 0.924807 0.925549 0.928382 0.927632 0.925973 0.925606 0.922923 0.920564 0.92118 0.907161 0.904349 0.858444 0.849181 0.769181 0.72232 0.614793 0.512996 0.387423 0.266452 0.160111 0.0826646 0.0368398 0.0147663 0.00558875 0.00206205 0.00075288 0.000273615 9.91739e-05 3.58671e-05 1.29414e-05 4.65689e-06 1.67047e-06 5.97e-07 2.12451e-07 7.52378e-08 2.65e-08 9.27744e-09 3.22642e-09 1.114e-09 3.81735e-10 1.2967e-10 4.36971e-11 1.46085e-11 4.87903e-12 1.52543e-12 5.23464e-13 5.32968e-14 -5.13233e-14 8.25172e-14 -1.15121e-13 -7.25866e-14 -4.58061e-14 4.61426e-15 3.32085e-14 -1.2463e-13 -1.43909e-14 -8.76692e-14 -1.97441e-14 0 0 9.08928e-16 1.01314e-15 2.61985e-15 3.0594e-15 5.26449e-16 -1.16147e-15 -3.27492e-15 3.5649e-15 5.34357e-15 4.04421e-15 -3.63543e-15 6.2292e-15 3.72971e-15 -3.89207e-15 -4.17299e-15 5.00655e-15 2.59454e-15 -7.12455e-15 1.20084e-14 8.08241e-16 -3.47639e-15 2.38675e-15 1.08861e-15 -1.8512e-15 1.1171e-14 -2.23021e-14 2.18646e-14 1.97136e-14 -5.63951e-15 2.53722e-14 -1.51275e-14 3.29565e-14 3.37266e-14 -2.67448e-14 2.13545e-14 1.5897e-14 3.0477e-14 4.62311e-14 5.08906e-14 7.84381e-14 4.77138e-14 2.70766e-13 1.63202e-12 1.02696e-11 6.38811e-11 3.7604e-10 2.09644e-09 1.10425e-08 5.48254e-08 2.55901e-07 1.11945e-06 4.57362e-06 1.73806e-05 6.11437e-05 0.000198008 0.000586436 0.00157684 0.00382081 0.0082927 0.016082 0.0279594 0.0440079 0.0636502 0.0860267 0.110373 0.136172 0.163137 0.191121 0.220062 0.249943 0.28077 0.312567 0.34537 0.379223 0.414179 0.4503 0.487653 0.526309 0.566346 0.60784 0.650859 0.695448 0.741595 0.789153 0.837649 0.885778 0.929952 0.960347 0.959098 0.95026 0.941623 0.935133 0.931105 0.92903 0.928083 0.927654 0.927437 0.9273 0.927183 0.9271 0.927129 0.927125 0.92712 0.927112 0.927101 0.927085 0.927068 0.927049 0.927032 0.927016 0.927003 0.92699 0.926978 0.92696 0.926939 0.926911 0.926881 0.926852 0.926834 0.926828 0.926847 0.926994 0.926975 0.92692 0.926846 0.926759 0.926721 0.926709 0.926852 0.927274 0.927055 0.926929 0.926781 0.92662 0.926542 0.926533 0.926741 0.926214 0.925918 0.925394 0.925012 0.924807 0.925549 0.928382 0.927632 0.925973 0.925606 0.922923 0.920564 0.92118 0.907161 0.904349 0.858444 0.849181 0.769181 0.72232 0.614793 0.512996 0.387423 0.266452 0.160111 0.0826646 0.0368398 0.0147663 0.00558875 0.00206205 0.00075288 0.000273615 9.91739e-05 3.58671e-05 1.29414e-05 4.65689e-06 1.67047e-06 5.97e-07 2.12451e-07 7.52378e-08 2.65001e-08 9.27738e-09 3.22637e-09 1.11409e-09 3.81758e-10 1.29829e-10 4.36666e-11 1.46148e-11 4.90914e-12 1.60755e-12 4.5067e-13 -4.22612e-14 4.99501e-14 2.0418e-13 -1.23009e-13 -3.60165e-14 -1.10307e-13 1.16466e-13 2.6465e-14 -4.47331e-14 -7.36286e-14 -7.88363e-14 -6.00975e-14 0 0 -4.67849e-16 1.78039e-16 4.05912e-15 7.83011e-15 5.50134e-15 -4.88201e-16 1.03381e-15 -4.8457e-15 -7.34451e-15 -8.06964e-15 2.84071e-15 4.91583e-15 -3.67819e-15 -9.80784e-16 5.75806e-15 -2.96471e-15 2.3069e-15 7.04937e-15 1.3814e-14 -1.20645e-14 -4.14979e-15 3.86452e-16 7.93933e-15 -1.61802e-14 -3.38799e-15 2.12026e-14 1.41301e-14 -6.4605e-15 2.75997e-14 6.22776e-15 1.56995e-14 1.71872e-14 2.38366e-14 1.63738e-14 6.4227e-15 3.48638e-15 3.86827e-14 2.77257e-14 7.36953e-14 6.79498e-14 1.17075e-13 2.62531e-13 1.56684e-12 1.02261e-11 6.39069e-11 3.76008e-10 2.09642e-09 1.10424e-08 5.48255e-08 2.55901e-07 1.11945e-06 4.57362e-06 1.73806e-05 6.11437e-05 0.000198008 0.000586436 0.00157684 0.00382081 0.0082927 0.016082 0.0279594 0.0440079 0.0636502 0.0860267 0.110373 0.136172 0.163137 0.191121 0.220062 0.249943 0.28077 0.312567 0.34537 0.379223 0.414179 0.4503 0.487653 0.526309 0.566346 0.60784 0.650859 0.695448 0.741595 0.789153 0.837649 0.885778 0.929952 0.960347 0.959098 0.95026 0.941623 0.935133 0.931105 0.92903 0.928083 0.927654 0.927437 0.9273 0.927183 0.9271 0.927129 0.927125 0.92712 0.927112 0.927101 0.927085 0.927068 0.927049 0.927032 0.927016 0.927003 0.92699 0.926978 0.92696 0.926939 0.926911 0.926881 0.926852 0.926834 0.926828 0.926847 0.926994 0.926975 0.92692 0.926846 0.926759 0.926721 0.926709 0.926852 0.927274 0.927055 0.926929 0.926781 0.92662 0.926542 0.926533 0.926741 0.926214 0.925918 0.925394 0.925012 0.924807 0.925549 0.928382 0.927632 0.925973 0.925606 0.922923 0.920564 0.92118 0.907161 0.904349 0.858444 0.849181 0.769181 0.72232 0.614793 0.512996 0.387423 0.266452 0.160111 0.0826646 0.0368398 0.0147663 0.00558875 0.00206205 0.00075288 0.000273615 9.91739e-05 3.58671e-05 1.29414e-05 4.65689e-06 1.67047e-06 5.97e-07 2.12451e-07 7.52379e-08 2.65001e-08 9.27732e-09 3.22642e-09 1.11421e-09 3.81486e-10 1.29959e-10 4.37135e-11 1.47196e-11 4.90902e-12 1.79767e-12 4.44421e-13 -9.70148e-14 -7.48425e-15 1.81889e-13 -5.24911e-14 4.28574e-14 -2.0627e-13 2.62135e-14 -2.25345e-14 9.35449e-15 1.07977e-14 8.53155e-14 -7.66202e-14 0 0 3.24771e-17 2.19542e-15 4.27309e-15 9.03036e-15 4.32696e-15 3.96063e-15 4.80829e-15 -4.62918e-15 -1.47369e-14 -9.69723e-15 1.40088e-15 -2.8612e-15 -7.79425e-15 8.03615e-15 -3.92313e-15 -6.89283e-15 -1.74012e-15 2.32149e-14 8.5541e-15 -3.66839e-15 1.46139e-14 7.3034e-16 5.14726e-16 -1.58009e-16 -2.5877e-14 3.37952e-14 -1.4545e-14 -8.86452e-15 2.17872e-14 3.33386e-14 2.35326e-14 1.86333e-14 2.52742e-14 1.11195e-15 1.48867e-14 8.99968e-15 5.00437e-14 4.76691e-14 5.59467e-14 6.46682e-14 1.45034e-13 2.20871e-13 1.57559e-12 1.01706e-11 6.38883e-11 3.76077e-10 2.09641e-09 1.10424e-08 5.48255e-08 2.55901e-07 1.11945e-06 4.57362e-06 1.73806e-05 6.11437e-05 0.000198008 0.000586436 0.00157684 0.00382081 0.0082927 0.016082 0.0279594 0.0440079 0.0636502 0.0860267 0.110373 0.136172 0.163137 0.191121 0.220062 0.249943 0.28077 0.312567 0.34537 0.379223 0.414179 0.4503 0.487653 0.526309 0.566346 0.60784 0.650859 0.695448 0.741595 0.789153 0.837649 0.885778 0.929952 0.960347 0.959098 0.95026 0.941623 0.935133 0.931105 0.92903 0.928083 0.927654 0.927437 0.9273 0.927183 0.9271 0.927129 0.927125 0.92712 0.927112 0.927101 0.927085 0.927068 0.927049 0.927032 0.927016 0.927003 0.92699 0.926978 0.92696 0.926939 0.926911 0.926881 0.926852 0.926834 0.926828 0.926847 0.926994 0.926975 0.92692 0.926846 0.926759 0.926721 0.926709 0.926852 0.927274 0.927055 0.926929 0.926781 0.92662 0.926542 0.926533 0.926741 0.926214 0.925918 0.925394 0.925012 0.924807 0.925549 0.928382 0.927632 0.925973 0.925606 0.922923 0.920564 0.92118 0.907161 0.904349 0.858444 0.849181 0.769181 0.72232 0.614793 0.512996 0.387423 0.266452 0.160111 0.0826646 0.0368398 0.0147663 0.00558875 0.00206205 0.00075288 0.000273615 9.91739e-05 3.58671e-05 1.29414e-05 4.65689e-06 1.67047e-06 5.97e-07 2.12451e-07 7.5238e-08 2.65e-08 9.27749e-09 3.22652e-09 1.11416e-09 3.81591e-10 1.29847e-10 4.36632e-11 1.48771e-11 5.08626e-12 1.60158e-12 2.2122e-13 -2.85993e-14 -7.52238e-14 1.53947e-13 7.89e-14 -3.95308e-14 -8.95012e-14 -5.29943e-14 8.03607e-14 8.92344e-14 8.51689e-14 5.63199e-15 1.56301e-16 0 0 1.26047e-15 4.40514e-15 5.3994e-15 8.68036e-15 -1.18129e-15 6.61677e-15 4.40983e-15 3.52396e-15 -1.17275e-14 -8.05111e-15 -9.06026e-15 -4.44734e-15 -8.71354e-16 -2.35144e-15 -3.13484e-15 -1.42849e-14 2.16846e-16 1.78441e-14 2.30804e-14 1.81559e-14 1.27616e-14 -9.5369e-15 4.00887e-15 8.24656e-15 -3.51259e-14 3.39966e-14 -3.97019e-14 -1.46162e-14 2.9306e-14 5.03098e-14 1.77651e-14 3.05709e-14 5.05779e-14 -5.57129e-14 6.02523e-15 5.78826e-14 4.40295e-14 8.76949e-14 2.15865e-14 1.23198e-13 5.32656e-14 2.09281e-13 1.60137e-12 1.01969e-11 6.38655e-11 3.76116e-10 2.09643e-09 1.10424e-08 5.48255e-08 2.55901e-07 1.11945e-06 4.57362e-06 1.73806e-05 6.11437e-05 0.000198008 0.000586436 0.00157684 0.00382081 0.0082927 0.016082 0.0279594 0.0440079 0.0636502 0.0860267 0.110373 0.136172 0.163137 0.191121 0.220062 0.249943 0.28077 0.312567 0.34537 0.379223 0.414179 0.4503 0.487653 0.526309 0.566346 0.60784 0.650859 0.695448 0.741595 0.789153 0.837649 0.885778 0.929952 0.960347 0.959098 0.95026 0.941623 0.935133 0.931105 0.92903 0.928083 0.927654 0.927437 0.9273 0.927183 0.9271 0.927129 0.927125 0.92712 0.927112 0.927101 0.927085 0.927068 0.927049 0.927032 0.927016 0.927003 0.92699 0.926978 0.92696 0.926939 0.926911 0.926881 0.926852 0.926834 0.926828 0.926847 0.926994 0.926975 0.92692 0.926846 0.926759 0.926721 0.926709 0.926852 0.927274 0.927055 0.926929 0.926781 0.92662 0.926542 0.926533 0.926741 0.926214 0.925918 0.925394 0.925012 0.924807 0.925549 0.928382 0.927632 0.925973 0.925606 0.922923 0.920564 0.92118 0.907161 0.904349 0.858444 0.849181 0.769181 0.72232 0.614793 0.512996 0.387423 0.266452 0.160111 0.0826646 0.0368398 0.0147663 0.00558875 0.00206205 0.00075288 0.000273615 9.91739e-05 3.58671e-05 1.29414e-05 4.65689e-06 1.67047e-06 5.97e-07 2.12451e-07 7.52378e-08 2.65001e-08 9.27759e-09 3.22657e-09 1.1141e-09 3.81857e-10 1.29782e-10 4.35317e-11 1.49789e-11 5.31345e-12 1.25041e-12 -6.0495e-14 -8.31491e-16 1.23662e-13 9.21404e-14 1.9788e-13 -1.24999e-13 -3.10609e-16 9.18216e-14 7.57565e-14 2.51263e-13 -1.29093e-14 -1.05716e-13 -1.01697e-15 0
				</DataArray>
				<DataArray Name="VitesseY" type="Float32" format="ascii">