<?xml version="1.0"?>
<VTKFile type="PolyData">
	<PolyData>
		<Piece NumberOfPoints="1206" NumberOfPolys="1000">
			<Points>
				<DataArray type="Float32" NumberOfComponents="3" format="ascii">
 0 0 0 0.005 0 0 0.01 0 0 0.015 0 0 0.02 0 0 0.025 0 0 0.03 0 0 0.035 0 0 0.04 0 0 0.045 0 0 0.05 0 0 0.055 0 0 0.06 0 0 0.065 0 0 0.07 0 0 0.075 0 0 0.08 0 0 0.085 0 0 0.09 0 0 0.095 0 0 0.1 0 0 0.105 0 0 0.11 0 0 0.115 0 0 0.12 0 0 0.125 0 0 0.13 0 0 0.135 0 0 0.14 0 0 0.145 0 0 0.15 0 0 0.155 0 0 0.16 0 0 0.165 0 0 0.17 0 0 0.175 0 0 0.18 0 0 0.185 0 0 0.19 0 0 0.195 0 0 0.2 0 0 0.205 0 0 0.21 0 0 0.215 0 0 0.22 0 0 0.225 0 0 0.23 0 0 0.235 0 0 0.240001 0 0 0.245004 0 0 0.250011 0 0 0.255026 0 0 0.260057 0 0 0.265117 0 0 0.270218 0 0 0.275375 0 0 0.280604 0 0 0.285914 0 0 0.291315 0 0 0.296815 0 0 0.302421 0 0 0.308139 0 0 0.313974 0 0 0.319934 0 0 0.326025 0 0 0.332254 0 0 0.338629 0 0 0.345158 0 0 0.35185 0 0 0.358713 0 0 0.365758 0 0 0.372996 0 0 0.38044 0 0 0.388102 0 0 0.395998 0 0 0.404142 0 0 0.412553 0 0 0.42125 0 0 0.430254 0 0 0.439589 0 0 0.44928 0 0 0.459354 0 0 0.46984 0 0 0.480762 0 0 0.492133 0 0 0.503928 0 0 0.516017 0 0 0.52812 0 0 0.54014 0 0 0.552073 0 0 0.563931 0 0 0.575733 0 0 0.587502 0 0 0.599254 0 0 0.610996 0 0 0.622735 0 0 0.634471 0 0 0.646206 0 0 0.657942 0 0 0.66968 0 0 0.681432 0 0 0.684045 0 0 0.686583 0 0 0.689074 0 0 0.691534 0 0 0.693971 0 0 0.696393 0 0 0.698802 0 0 0.701202 0 0 0.703595 0 0 0.705983 0 0 0.708367 0 0 0.710747 0 0 0.713124 0 0 0.715498 0 0 0.717869 0 0 0.720237 0 0 0.722602 0 0 0.724966 0 0 0.727328 0 0 0.729688 0 0 0.732048 0 0 0.734407 0 0 0.736765 0 0 0.739122 0 0 0.741479 0 0 0.743835 0 0 0.746191 0 0 0.748547 0 0 0.750902 0 0 0.753257 0 0 0.755612 0 0 0.757967 0 0 0.760322 0 0 0.762677 0 0 0.765031 0 0 0.767385 0 0 0.76974 0 0 0.772094 0 0 0.774448 0 0 0.776803 0 0 0.779157 0 0 0.781511 0 0 0.783865 0 0 0.78622 0 0 0.788574 0 0 0.790928 0 0 0.793283 0 0 0.795637 0 0 0.797992 0 0 0.800346 0 0 0.802701 0 0 0.805056 0 0 0.807411 0 0 0.809767 0 0 0.812123 0 0 0.814481 0 0 0.81684 0 0 0.819204 0 0 0.821573 0 0 0.823953 0 0 0.826346 0 0 0.82877 0 0 0.831223 0 0 0.833745 0 0 0.836326 0 0 0.839041 0 0 0.841897 0 0 0.844998 0 0 0.848378 0 0 0.852102 0 0 0.856181 0 0 0.860591 0 0 0.865263 0 0 0.870107 0 0 0.875041 0 0 0.880015 0 0 0.885006 0 0 0.890002 0 0 0.895001 0 0 0.9 0 0 0.905 0 0 0.91 0 0 0.915 0 0 0.92 0 0 0.925 0 0 0.93 0 0 0.935 0 0 0.94 0 0 0.945 0 0 0.95 0 0 0.955 0 0 0.96 0 0 0.965 0 0 0.97 0 0 0.975 0 0 0.98 0 0 0.985 0 0 0.99 0 0 0.995 0 0 1 0 0 0 0.02 0 0.005 0.02 0 0.01 0.02 0 0.015 0.02 0 0.02 0.02 0 0.025 0.02 0 0.03 0.02 0 0.035 0.02 0 0.04 0.02 0 0.045 0.02 0 0.05 0.02 0 0.055 0.02 0 0.06 0.02 0 0.065 0.02 0 0.07 0.02 0 0.075 0.02 0 0.08 0.02 0 0.085 0.02 0 0.09 0.02 0 0.095 0.02 0 0.1 0.02 0 0.105 0.02 0 0.11 0.02 0 0.115 0.02 0 0.12 0.02 0 0.125 0.02 0 0.13 0.02 0 0.135 0.02 0 0.14 0.02 0 0.145 0.02 0 0.15 0.02 0 0.155 0.02 0 0.16 0.02 0 0.165 0.02 0 0.17 0.02 0 0.175 0.02 0 0.18 0.02 0 0.185 0.02 0 0.19 0.02 0 0.195 0.02 0 0.2 0.02 0 0.205 0.02 0 0.21 0.02 0 0.215 0.02 0 0.22 0.02 0 0.225 0.02 0 0.23 0.02 0 0.235 0.02 0 0.240001 0.02 0 0.245004 0.02 0 0.250011 0.02 0 0.255026 0.02 0 0.260057 0.02 0 0.265117 0.02 0 0.270218 0.02 0 0.275375 0.02 0 0.280604 0.02 0 0.285914 0.02 0 0.291315 0.02 0 0.296815 0.02 0 0.302421 0.02 0 0.308139 0.02 0 0.313974 0.02 0 0.319934 0.02 0 0.326025 0.02 0 0.332254 0.02 0 0.338629 0.02 0 0.345158 0.02 0 0.35185 0.02 0 0.358713 0.02 0 0.365758 0.02 0 0.372996 0.02 0 0.38044 0.02 0 0.388102 0.02 0 0.395998 0.02 0 0.404142 0.02 0 0.412553 0.02 0 0.42125 0.02 0 0.430254 0.02 0 0.439589 0.02 0 0.44928 0.02 0 0.459354 0.02 0 0.46984 0.02 0 0.480762 0.02 0 0.492133 0.02 0 0.503928 0.02 0 0.516017 0.02 0 0.52812 0.02 0 0.54014 0.02 0 0.552073 0.02 0 0.563931 0.02 0 0.575733 0.02 0 0.587502 0.02 0 0.599254 0.02 0 0.610996 0.02 0 0.622735 0.02 0 0.634471 0.02 0 0.646206 0.02 0 0.657942 0.02 0 0.66968 0.02 0 0.681432 0.02 0 0.684045 0.02 0 0.686583 0.02 0 0.689074 0.02 0 0.691534 0.02 0 0.693971 0.02 0 0.696393 0.02 0 0.698802 0.02 0 0.701202 0.02 0 0.703595 0.02 0 0.705983 0.02 0 0.708367 0.02 0 0.710747 0.02 0 0.713124 0.02 0 0.715498 0.02 0 0.717869 0.02 0 0.720237 0.02 0 0.722602 0.02 0 0.724966 0.02 0 0.727328 0.02 0 0.729688 0.02 0 0.732048 0.02 0 0.734407 0.02 0 0.736765 0.02 0 0.739122 0.02 0 0.741479 0.02 0 0.743835 0.02 0 0.746191 0.02 0 0.748547 0.02 0 0.750902 0.02 0 0.753257 0.02 0 0.755612 0.02 0 0.757967 0.02 0 0.760322 0.02 0 0.762677 0.02 0 0.765031 0.02 0 0.767385 0.02 0 0.76974 0.02 0 0.772094 0.02 0 0.774448 0.02 0 0.776803 0.02 0 0.779157 0.02 0 0.781511 0.02 0 0.783865 0.02 0 0.78622 0.02 0 0.788574 0.02 0 0.790928 0.02 0 0.793283 0.02 0 0.795637 0.02 0 0.797992 0.02 0 0.800346 0.02 0 0.802701 0.02 0 0.805056 0.02 0 0.807411 0.02 0 0.809767 0.02 0 0.812123 0.02 0 0.814481 0.02 0 0.81684 0.02 0 0.819204 0.02 0 0.821573 0.02 0 0.823953 0.02 0 0.826346 0.02 0 0.82877 0.02 0 0.831223 0.02 0 0.833745 0.02 0 0.836326 0.02 0 0.839041 0.02 0 0.841897 0.02 0 0.844998 0.02 0 0.848378 0.02 0 0.852102 0.02 0 0.856181 0.02 0 0.860591 0.02 0 0.865263 0.02 0 0.870107 0.02 0 0.875041 0.02 0 0.880015 0.02 0 0.885006 0.02 0 0.890002 0.02 0 0.895001 0.02 0 0.9 0.02 0 0.905 0.02 0 0.91 0.02 0 0.915 0.02 0 0.92 0.02 0 0.925 0.02 0 0.93 0.02 0 0.935 0.02 0 0.94 0.02 0 0.945 0.02 0 0.95 0.02 0 0.955 0.02 0 0.96 0.02 0 0.965 0.02 0 0.97 0.02 0 0.975 0.02 0 0.98 0.02 0 0.985 0.02 0 0.99 0.02 0 0.995 0.02 0 1 0.02 0 0 0.04 0 0.005 0.04 0 0.01 0.04 0 0.015 0.04 0 0.02 0.04 0 0.025 0.04 0 0.03 0.04 0 0.035 0.04 0 0.04 0.04 0 0.045 0.04 0 0.05 0.04 0 0.055 0.04 0 0.06 0.04 0 0.065 0.04 0 0.07 0.04 0 0.075 0.04 0 0.08 0.04 0 0.085 0.04 0 0.09 0.04 0 0.095 0.04 0 0.1 0.04 0 0.105 0.04 0 0.11 0.04 0 0.115 0.04 0 0.12 0.04 0 0.125 0.04 0 0.13 0.04 0 0.135 0.04 0 0.14 0.04 0 0.145 0.04 0 0.15 0.04 0 0.155 0.04 0 0.16 0.04 0 0.165 0.04 0 0.17 0.04 0 0.175 0.04 0 0.18 0.04 0 0.185 0.04 0 0.19 0.04 0 0.195 0.04 0 0.2 0.04 0 0.205 0.04 0 0.21 0.04 0 0.215 0.04 0 0.22 0.04 0 0.225 0.04 0 0.23 0.04 0 0.235 0.04 0 0.240001 0.04 0 0.245004 0.04 0 0.250011 0.04 0 0.255026 0.04 0 0.260057 0.04 0 0.265117 0.04 0 0.270218 0.04 0 0.275375 0.04 0 0.280604 0.04 0 0.285914 0.04 0 0.291315 0.04 0 0.296815 0.04 0 0.302421 0.04 0 0.308139 0.04 0 0.313974 0.04 0 0.319934 0.04 0 0.326025 0.04 0 0.332254 0.04 0 0.338629 0.04 0 0.345158 0.04 0 0.35185 0.04 0 0.358713 0.04 0 0.365758 0.04 0 0.372996 0.04 0 0.38044 0.04 0 0.388102 0.04 0 0.395998 0.04 0 0.404142 0.04 0 0.412553 0.04 0 0.42125 0.04 0 0.430254 0.04 0 0.439589 0.04 0 0.44928 0.04 0 0.459354 0.04 0 0.46984 0.04 0 0.480762 0.04 0 0.492133 0.04 0 0.503928 0.04 0 0.516017 0.04 0 0.52812 0.04 0 0.54014 0.04 0 0.552073 0.04 0 0.563931 0.04 0 0.575733 0.04 0 0.587502 0.04 0 0.599254 0.04 0 0.610996 0.04 0 0.622735 0.04 0 0.634471 0.04 0 0.646206 0.04 0 0.657942 0.04 0 0.66968 0.04 0 0.681432 0.04 0 0.684045 0.04 0 0.686583 0.04 0 0.689074 0.04 0 0.691534 0.04 0 0.693971 0.04 0 0.696393 0.04 0 0.698802 0.04 0 0.701202 0.04 0 0.703595 0.04 0 0.705983 0.04 0 0.708367 0.04 0 0.710747 0.04 0 0.713124 0.04 0 0.715498 0.04 0 0.717869 0.04 0 0.720237 0.04 0 0.722602 0.04 0 0.724966 0.04 0 0.727328 0.04 0 0.729688 0.04 0 0.732048 0.04 0 0.734407 0.04 0 0.736765 0.04 0 0.739122 0.04 0 0.741479 0.04 0 0.743835 0.04 0 0.746191 0.04 0 0.748547 0.04 0 0.750902 0.04 0 0.753257 0.04 0 0.755612 0.04 0 0.757967 0.04 0 0.760322 0.04 0 0.762677 0.04 0 0.765031 0.04 0 0.767385 0.04 0 0.76974 0.04 0 0.772094 0.04 0 0.774448 0.04 0 0.776803 0.04 0 0.779157 0.04 0 0.781511 0.04 0 0.783865 0.04 0 0.78622 0.04 0 0.788574 0.04 0 0.790928 0.04 0 0.793283 0.04 0 0.795637 0.04 0 0.797992 0.04 0 0.800346 0.04 0 0.802701 0.04 0 0.805056 0.04 0 0.807411 0.04 0 0.809767 0.04 0 0.812123 0.04 0 0.814481 0.04 0 0.81684 0.04 0 0.819204 0.04 0 0.821573 0.04 0 0.823953 0.04 0 0.826346 0.04 0 0.82877 0.04 0 0.831223 0.04 0 0.833745 0.04 0 0.836326 0.04 0 0.839041 0.04 0 0.841897 0.04 0 0.844998 0.04 0 0.848378 0.04 0 0.852102 0.04 0 0.856181 0.04 0 0.860591 0.04 0 0.865263 0.04 0 0.870107 0.04 0 0.875041 0.04 0 0.880015 0.04 0 0.885006 0.04 0 0.890002 0.04 0 0.895001 0.04 0 0.9 0.04 0 0.905 0.04 0 0.91 0.04 0 0.915 0.04 0 0.92 0.04 0 0.925 0.04 0 0.93 0.04 0 0.935 0.04 0 0.94 0.04 0 0.945 0.04 0 0.95 0.04 0 0.955 0.04 0 0.96 0.04 0 0.965 0.04 0 0.97 0.04 0 0.975 0.04 0 0.98 0.04 0 0.985 0.04 0 0.99 0.04 0 0.995 0.04 0 1 0.04 0 0 0.06 0 0.005 0.06 0 0.01 0.06 0 0.015 0.06 0 0.02 0.06 0 0.025 0.06 0 0.03 0.06 0 0.035 0.06 0 0.04 0.06 0 0.045 0.06 0 0.05 0.06 0 0.055 0.06 0 0.06 0.06 0 0.065 0.06 0 0.07 0.06 0 0.075 0.06 0 0.08 0.06 0 0.085 0.06 0 0.09 0.06 0 0.095 0.06 0 0.1 0.06 0 0.105 0.06 0 0.11 0.06 0 0.115 0.06 0 0.12 0.06 0 0.125 0.06 0 0.13 0.06 0 0.135 0.06 0 0.14 0.06 0 0.145 0.06 0 0.15 0.06 0 0.155 0.06 0 0.16 0.06 0 0.165 0.06 0 0.17 0.06 0 0.175 0.06 0 0.18 0.06 0 0.185 0.06 0 0.19 0.06 0 0.195 0.06 0 0.2 0.06 0 0.205 0.06 0 0.21 0.06 0 0.215 0.06 0 0.22 0.06 0 0.225 0.06 0 0.23 0.06 0 0.235 0.06 0 0.240001 0.06 0 0.245004 0.06 0 0.250011 0.06 0 0.255026 0.06 0 0.260057 0.06 0 0.265117 0.06 0 0.270218 0.06 0 0.275375 0.06 0 0.280604 0.06 0 0.285914 0.06 0 0.291315 0.06 0 0.296815 0.06 0 0.302421 0.06 0 0.308139 0.06 0 0.313974 0.06 0 0.319934 0.06 0 0.326025 0.06 0 0.332254 0.06 0 0.338629 0.06 0 0.345158 0.06 0 0.35185 0.06 0 0.358713 0.06 0 0.365758 0.06 0 0.372996 0.06 0 0.38044 0.06 0 0.388102 0.06 0 0.395998 0.06 0 0.404142 0.06 0 0.412553 0.06 0 0.42125 0.06 0 0.430254 0.06 0 0.439589 0.06 0 0.44928 0.06 0 0.459354 0.06 0 0.46984 0.06 0 0.480762 0.06 0 0.492133 0.06 0 0.503928 0.06 0 0.516017 0.06 0 0.52812 0.06 0 0.54014 0.06 0 0.552073 0.06 0 0.563931 0.06 0 0.575733 0.06 0 0.587502 0.06 0 0.599254 0.06 0 0.610996 0.06 0 0.622735 0.06 0 0.634471 0.06 0 0.646206 0.06 0 0.657942 0.06 0 0.66968 0.06 0 0.681432 0.06 0 0.684045 0.06 0 0.686583 0.06 0 0.689074 0.06 0 0.691534 0.06 0 0.693971 0.06 0 0.696393 0.06 0 0.698802 0.06 0 0.
[...]
			<PointData Scalars="VitesseX">
				<DataArray Name="VitesseX" type="Float32" format="ascii">
 0 3.46812e-15 3.53616e-15 9.97215e-15 1.47566e-14 7.93774e-15 1.29654e-14 1.06044e-14 1.06122e-14 3.56338e-15 5.74268e-15 6.81341e-15 6.39104e-15 -9.30195e-15 -1.28881e-14 -1.45066e-14 -1.3839e-14 -3.7137e-14 -3.55352e-14 -3.27129e-14 -3.61061e-14 -4.31371e-14 -3.13194e-14 -3.56137e-14 -3.67099e-14 -3.64789e-14 -2.85531e-14 -1.6717e-14 -1.85169e-14 -9.33445e-15 -1.59286e-14 -1.87137e-14 1.31281e-14 8.09173e-14 4.27623e-13 2.71839e-12 1.56278e-11 8.67794e-11 4.5965e-10 2.31707e-09 1.11002e-08 5.04199e-08 2.16657e-07 8.78443e-07 3.35086e-06 1.1985e-05 4.00372e-05 0.000124354 0.000357218 0.00094338 0.00227598 0.00498709 0.00988662 0.017731 0.0289118 0.0432927 0.0603318 0.0793669 0.0998431 0.121389 0.143787 0.166925 0.190746 0.215225 0.240356 0.266146 0.292609 0.319765 0.347639 0.376262 0.405665 0.435888 0.466971 0.498958 0.531897 0.565838 0.600831 0.636924 0.674157 0.712554 0.752096 0.792681 0.834011 0.875334 0.914729 0.947176 0.960092 0.95287 0.945858 0.93917 0.934159 0.931005 0.92927 0.928381 0.927914 0.927648 0.927484 0.927377 0.927302 0.927246 0.927201 0.927192 0.927184 0.927176 0.927168 0.927161 0.927154 0.927146 0.927139 0.927132 0.927125 0.927118 0.92711 0.927103 0.927095 0.927088 0.92708 0.927071 0.927063 0.927054 0.927045 0.927036 0.927027 0.927017 0.927008 0.926998 0.926988 0.926979 0.926969 0.926958 0.926948 0.926937 0.926926 0.926914 0.926901 0.926888 0.926874 0.926858 0.926843 0.926826 0.926809 0.926789 0.926772 0.926749 0.926733 0.926703 0.92669 0.926648 0.926639 0.926571 0.926569 0.926437 0.926441 0.926143 0.926163 0.92539 0.925457 0.923307 0.923519 0.917516 0.918169 0.902343 0.904315 0.867549 0.872762 0.801266 0.795675 0.6862 0.620621 0.49302 0.374022 0.250301 0.147065 0.0739622 0.0322963 0.0127918 0.00481631 0.00177426 0.00064798 0.000235828 8.56883e-05 3.11019e-05 1.12777e-05 4.08468e-06 1.47739e-06 5.33461e-07 1.92233e-07 6.91045e-08 2.47718e-08 8.85105e-09 3.15071e-09 1.11693e-09 3.93933e-10 1.38234e-10 4.81703e-11 1.6683e-11 5.63339e-12 1.93759e-12 5.16852e-13 1.81544e-13 0 0 2.4756e-15 5.43075e-15 7.86386e-15 1.01024e-14 8.68452e-15 9.5661e-15 1.12825e-14 7.13294e-15 6.39335e-15 6.04461e-15 5.72831e-15 -2.4707e-15 -1.23988e-14 -7.85646e-15 -1.33302e-14 -2.4371e-14 -3.3237e-14 -2.9876e-14 -4.37307e-14 -3.5194e-14 -2.64907e-14 -4.19729e-14 -3.18451e-14 -3.91129e-14 -3.07468e-14 -2.59212e-14 -2.69395e-14 -1.77493e-14 -2.39184e-14 -7.32228e-15 8.24594e-15 1.17151e-14 8.51465e-14 4.62129e-13 2.73819e-12 1.56405e-11 8.67778e-11 4.59645e-10 2.31715e-09 1.11001e-08 5.04199e-08 2.16657e-07 8.78443e-07 3.35086e-06 1.1985e-05 4.00372e-05 0.000124354 0.000357218 0.00094338 0.00227598 0.00498709 0.00988662 0.017731 0.0289118 0.0432927 0.0603318 0.0793669 0.0998431 0.121389 0.143787 0.166925 0.190746 0.215225 0.240356 0.266146 0.292609 0.319765 0.347639 0.376262 0.405665 0.435888 0.466971 0.498958 0.531897 0.565838 0.600831 0.636924 0.674157 0.712554 0.752096 0.792681 0.834011 0.875334 0.914729 0.947176 0.960092 0.95287 0.945858 0.93917 0.934159 0.931005 0.92927 0.928381 0.927914 0.927648 0.927484 0.927377 0.927302 0.927246 0.927201 0.927192 0.927184 0.927176 0.927168 0.927161 0.927154 0.927146 0.927139 0.927132 0.927125 0.927118 0.92711 0.927103 0.927095 0.927088 0.92708 0.927071 0.927063 0.927054 0.927045 0.927036 0.927027 0.927017 0.927008 0.926998 0.926988 0.926979 0.926969 0.926958 0.926948 0.926937 0.926926 0.926914 0.926901 0.926888 0.926874 0.926858 0.926843 0.926826 0.926809 0.926789 0.926772 0.926749 0.926733 0.926703 0.92669 0.926648 0.926639 0.926571 0.926569 0.926437 0.926441 0.926143 0.926163 0.92539 0.925457 0.923307 0.923519 0.917516 0.918169 0.902343 0.904315 0.867549 0.872762 0.801266 0.795675 0.6862 0.620621 0.49302 0.374022 0.250301 0.147065 0.0739622 0.0322963 0.0127918 0.00481631 0.00177426 0.00064798 0.000235828 8.56883e-05 3.11019e-05 1.12777e-05 4.08468e-06 1.47739e-06 5.33461e-07 1.92233e-07 6.91045e-08 2.47718e-08 8.85103e-09 3.15079e-09 1.11683e-09 3.94067e-10 1.38188e-10 4.81337e-11 1.65848e-11 5.66262e-12 1.82896e-12 5.74164e-13 1.4014e-13 0 0 3.30787e-16 3.07177e-15 5.83858e-15 4.24287e-15 1.04599e-14 1.09215e-14 8.33319e-15 3.44118e-15 3.123e-15 8.41015e-15 2.21089e-15 -4.34455e-15 -1.41113e-14 -1.43931e-14 -3.15029e-14 -1.91766e-14 -3.81974e-14 -2.77394e-14 -2.4561e-14 -3.92509e-14 -4.13385e-14 -3.58922e-14 -3.87787e-14 -3.33476e-14 -2.45924e-14 -3.71043e-15 -3.44842e-14 -2.93698e-14 -2.33654e-14 -1.39737e-14 1.95284e-14 3.74004e-14 1.2986e-13 5.21078e-13 2.7587e-12 1.56641e-11 8.68147e-11 4.59613e-10 2.31717e-09 1.11001e-08 5.04199e-08 2.16657e-07 8.78443e-07 3.35086e-06 1.1985e-05 4.00372e-05 0.000124354 0.000357218 0.00094338 0.00227598 0.00498709 0.00988662 0.017731 0.0289118 0.0432927 0.0603318 0.0793669 0.0998431 0.121389 0.143787 0.166925 0.190746 0.215225 0.240356 0.266146 0.292609 0.319765 0.347639 0.376262 0.405665 0.435888 0.466971 0.498958 0.531897 0.565838 0.600831 0.636924 0.674157 0.712554 0.752096 0.792681 0.834011 0.875334 0.914729 0.947176 0.960092 0.95287 0.945858 0.93917 0.934159 0.931005 0.92927 0.928381 0.927914 0.927648 0.927484 0.927377 0.927302 0.927246 0.927201 0.927192 0.927184 0.927176 0.927168 0.927161 0.927154 0.927146 0.927139 0.927132 0.927125 0.927118 0.92711 0.927103 0.927095 0.927088 0.92708 0.927071 0.927063 0.927054 0.927045 0.927036 0.927027 0.927017 0.927008 0.926998 0.926988 0.926979 0.926969 0.926958 0.926948 0.926937 0.926926 0.926914 0.926901 0.926888 0.926874 0.926858 0.926843 0.926826 0.926809 0.926789 0.926772 0.926749 0.926733 0.926703 0.92669 0.926648 0.926639 0.926571 0.926569 0.926437 0.926441 0.926143 0.926163 0.92539 0.925457 0.923307 0.923519 0.917516 0.918169 0.902343 0.904315 0.867549 0.872762 0.801266 0.795675 0.6862 0.620621 0.49302 0.374022 0.250301 0.147065 0.0739622 0.0322963 0.0127918 0.00481631 0.00177426 0.00064798 0.000235828 8.56883e-05 3.11019e-05 1.12777e-05 4.08468e-06 1.47739e-06 5.33461e-07 1.92233e-07 6.91045e-08 2.47718e-08 8.85107e-09 3.15076e-09 1.11681e-09 3.94062e-10 1.38146e-10 4.81756e-11 1.65071e-11 5.60511e-12 1.70815e-12 5.38735e-13 1.19571e-13 0 0 -1.34803e-16 -1.46025e-15 2.1765e-15 -2.19882e-15 6.09771e-15 9.71815e-15 4.66857e-16 7.137e-15 -6.46227e-15 -2.41322e-15 -4.94671e-15 -5.59183e-15 -1.41235e-14 -1.55017e-14 -3.14317e-14 -2.58564e-14 -4.05407e-14 -2.32857e-14 -1.6651e-14 -3.34935e-14 -4.70112e-14 -4.26938e-14 -3.81686e-14 -2.54349e-14 -1.10882e-14 -9.26647e-15 -2.19778e-14 -3.00238e-14 -2.84035e-14 -4.06638e-15 -3.9735e-15 7.81031e-14 1.54195e-13 5.93534e-13 2.75466e-12 1.56716e-11 8.68438e-11 4.59643e-10 2.31713e-09 1.11001e-08 5.04199e-08 2.16657e-07 8.78443e-07 3.35085e-06 1.1985e-05 4.00372e-05 0.000124354 0.000357218 0.00094338 0.00227598 0.00498709 0.00988662 0.017731 0.0289118 0.0432927 0.0603318 0.0793669 0.0998431 0.121389 0.143787 0.166925 0.190746 0.215225 0.240356 0.266146 0.292609 0.319765 0.347639 0.376262 0.405665 0.435888 0.466971 0.498958 0.531897 0.565838 0.600831 0.636924 0.674157 0.712554 0.752096 0.792681 0.834011 0.875334 0.914729 0.947176 0.960092 0.95287 0.945858 0.93917 0.934159 0.931005 0.92927 0.928381 0.927914 0.927648 0.927484 0.927377 0.927302 0.927246 0.927201 0.927192 0.927184 0.927176 0.927168 0.927161 0.927154 0.927146 0.927139 0.927132 0.927125 0.927118 0.92711 0.927103 0.927095 0.927088 0.92708 0.927071 0.927063 0.927054 0.927045 0.927036 0.927027 0.927017 0.927008 0.926998 0.926988 0.926979 0.926969 0.926958 0.926948 0.926937 0.926926 0.926914 0.926901 0.926888 0.926874 0.926858 0.926843 0.926826 0.926809 0.926789 0.926772 0.926749 0.926733 0.926703 0.92669 0.926648 0.926639 0.926571 0.926569 0.926437 0.926441 0.926143 0.926163 0.92539 0.925457 0.923307 0.923519 0.917516 0.918169 0.902343 0.904315 0.867549 0.872762 0.801266 0.795675 0.6862 0.620621 0.49302 0.374022 0.250301 0.147065 0.0739622 0.0322963 0.0127918 0.00481631 0.00177426 0.00064798 0.000235828 8.56883e-05 3.11019e-05 1.12777e-05 4.08468e-06 1.47739e-06 5.33461e-07 1.92233e-07 6.91045e-08 2.47717e-08 8.85107e-09 3.15067e-09 1.11683e-09 3.93967e-10 1.38172e-10 4.80731e-11 1.661e-11 5.52105e-12 1.68523e-12 4.40292e-13 1.39009e-13 0 0 -1.11862e-16 -1.881e-15 -6.38608e-16 -4.0578e-15 1.15147e-15 1.35012e-15 -5.91663e-15 -2.58771e-15 -1.04863e-14 -2.24242e-14 -1.12261e-14 -1.93652e-14 -1.6426e-14 -1.76363e-14 -1.15548e-14 -3.27251e-14 -5.7035e-14 -1.60787e-14 -2.39026e-14 -1.42918e-14 -2.54613e-14 -3.45592e-14 -3.31842e-14 -2.40395e-14 -5.16739e-15 -2.37477e-14 -1.92006e-14 -6.77164e-15 -3.19645e-14 4.19089e-15 -1.86422e-14 6.42922e-14 1.46888e-13 6.22121e-13 2.78978e-12 1.57098e-11 8.68236e-11 4.59661e-10 2.31715e-09 1.11001e-08 5.042e-08 2.16657e-07 8.78443e-07 3.35085e-06 1.1985e-05 4.00372e-05 0.000124354 0.000357218 0.00094338 0.00227598 0.00498709 0.00988662 0.017731 0.0289118 0.0432927 0.0603318 0.0793669 0.0998431 0.121389 0.143787 0.166925 0.190746 0.215225 0.240356 0.266146 0.292609 0.319765 0.347639 0.376262 0.405665 0.435888 0.466971 0.498958 0.531897 0.565838 0.600831 0.636924 0.674157 0.712554 0.752096 0.792681 0.834011 0.875334 0.914729 0.947176 0.960092 0.95287 0.945858 0.93917 0.934159 0.931005 0.92927 0.928381 0.927914 0.927648 0.927484 0.927377 0.927302 0.927246 0.927201 0.927192 0.927184 0.927176 0.927168 0.927161 0.927154 0.927146 0.927139 0.927132 0.927125 0.927118 0.92711 0.927103 0.927095 0.927088 0.92708 0.927071 0.927063 0.927054 0.927045 0.927036 0.927027 0.927017 0.927008 0.926998 0.926988 0.926979 0.926969 0.926958 0.926948 0.926937 0.926926 0.926914 0.926901 0.926888 0.926874 0.926858 0.926843 0.926826 0.926809 0.926789 0.926772 0.926749 0.926733 0.926703 0.92669 0.926648 0.926639 0.926571 0.926569 0.926437 0.926441 0.926143 0.926163 0.92539 0.925457 0.923307 0.923519 0.917516 0.918169 0.902343 0.904315 0.867549 0.872762 0.801266 0.795675 0.6862 0.620621 0.49302 0.374022 0.250301 0.147065 0.0739622 0.0322963 0.0127918 0.00481631 0.00177426 0.00064798 0.000235828 8.56883e-05 3.11019e-05 1.12777e-05 4.08468e-06 1.47739e-06 5.33461e-07 1.92233e-07 6.91044e-08 2.47718e-08 8.85096e-09 3.1507e-09 1.11683e-09 3.93825e-10 1.38155e-10 4.79772e-11 1.66402e-11 5.49288e-12 1.62223e-12 5.95315e-13 8.76542e-14 0 0 -7.75621e-16 -2.02331e-15 2.91373e-16 -6.80517e-16 1.59604e-15 -1.05987e-15 -8.06126e-15 -1.62207e-14 -1.10255e-14 -2.95482e-14 -1.27802e-14 -2.49034e-14 -1.73319e-14 -3.02307e-14 -1.10981e-14 -1.71873e-14 -8.00465e-14 -1.6848e-14 -8.87682e-15 -5.81643e-15 -2.9733e-14 -2.88914e-15 -3.95121e-14 -2.23885e-14 -1.23286e-14 -1.3094e-14 -2.6252e-14 4.7463e-15 -1.53504e-14 -1.2717e-14 -2.5486e-14 3.68769e-14 1.55731e-13 6.02697e-13 2.82965e-12 1.57513e-11 8.68126e-11 4.59623e-10 2.31714e-09 1.11001e-08 5.042e-08 2.16657e-07 8.78443e-07 3.35086e-06 1.1985e-05 4.00372e-05 0.000124354 0.000357218 0.00094338 0.00227598 0.00498709 0.00988662 0.017731 0.0289118 0.0432927 0.0603318 0.0793669 0.0998431 0.121389 0.143787 0.166925 0.190746 0.215225 0.240356 0.266146 0.292609 0.319765 0.347639 0.376262 0.405665 0.435888 0.466971 0.498958 0.531897 0.565838 0.600831 0.636924 0.674157 0.712554 0.752096 0.792681 0.834011 0.875334 0.914729 0.947176 0.960092 0.95287 0.945858 0.93917 0.934159 0.931005 0.92927 0.928381 0.927914 0.927648 0.927484 0.927377 0.927302 0.927246 0.927201 0.927192 0.927184 0.927176 0.927168 0.927161 0.927154 0.927146 0.927139 0.927132 0.927125 0.927118 0.92711 0.927103 0.927095 0.927088 0.92708 0.927071 0.927063 0.927054 0.927045 0.927036 0.927027 0.927017 0.927008 0.926998 0.926988 0.926979 0.926969 0.926958 0.926948 0.926937 0.926926 0.926914 0.926901 0.926888 0.926874 0.926858 0.926843 0.926826 0.926809 0.926789 0.926772 0.926749 0.926733 0.926703 0.92669 0.926648 0.926639 0.926571 0.926569 0.926437 0.926441 0.926143 0.926163 0.92539 0.925457 0.923307 0.923519 0.917516 0.918169 0.902343 0.904315 0.867549 0.872762 0.801266 0.795675 0.6862 0.620621 0.49302 0.374022 0.250301 0.147065 0.0739622 0.0322963 0.0127918 0.00481631 0.00177426 0.00064798 0.000235828 8.56883e-05 3.11019e-05 1.12777e-05 4.08468e-06 1.47739e-06 5.33461e-07 1.92233e-07 6.91042e-08 2.47719e-08 8.8509e-09 3.15071e-09 1.11689e-09 3.93639e-10 1.38116e-10 4.8062e-11 1.65876e-11 5.46175e-12 1.57e-12 7.56048e-13 3.76721e-14 0
				</DataArray>
				<DataArray Name="VitesseY" type="Float32" format="ascii">