<?xml version="1.0"?>
<VTKFile type="PolyData">
	<PolyData>
		<Piece NumberOfPoints="1206" NumberOfPolys="1000">
			<Points>
				<DataArray type="Float32" NumberOfComponents="3" format="ascii">
 0 0 0 0.005 0 0 0.01 0 0 0.015 0 0 0.02 0 0 0.025 0 0 0.03 0 0 0.035 0 0 0.04 0 0 0.045 0 0 0.05 0 0 0.055 0 0 0.06 0 0 0.065 0 0 0.07 0 0 0.075 0 0 0.08 0 0 0.085 0 0 0.09 0 0 0.095 0 0 0.1 0 0 0.105 0 0 0.11 0 0 0.115 0 0 0.12 0 0 0.125 0 0 0.13 0 0 0.135 0 0 0.14 0 0 0.145 0 0 0.15 0 0 0.155 0 0 0.16 0 0 0.165 0 0 0.17 0 0 0.175 0 0 0.18 0 0 0.185 0 0 0.19 0 0 0.195 0 0 0.2 0 0 0.205 0 0 0.21 0 0 0.215 0 0 0.22 0 0 0.225 0 0 0.23 0 0 0.235 0 0 0.24 0 0 0.245 0 0 0.25 0 0 0.255 0 0 0.26 0 0 0.265 0 0 0.27 0 0 0.275 0 0 0.28 0 0 0.285 0 0 0.29 0 0 0.295 0 0 0.3 0 0 0.305 0 0 0.31 0 0 0.315001 0 0 0.320004 0 0 0.325011 0 0 0.330029 0 0 0.335072 0 0 0.340158 0 0 0.345312 0 0 0.350559 0 0 0.355921 0 0 0.361419 0 0 0.367066 0 0 0.372879 0 0 0.37887 0 0 0.385054 0 0 0.391448 0 0 0.398068 0 0 0.404934 0 0 0.412067 0 0 0.419491 0 0 0.427235 0 0 0.43533 0 0 0.44381 0 0 0.452718 0 0 0.4621 0 0 0.472007 0 0 0.482492 0 0 0.4936 0 0 0.505324 0 0 0.517491 0 0 0.529661 0 0 0.541701 0 0 0.553614 0 0 0.565439 0 0 0.577213 0 0 0.588966 0 0 0.600711 0 0 0.612455 0 0 0.62421 0 0 0.626825 0 0 0.629364 0 0 0.631858 0 0 0.634319 0 0 0.636758 0 0 0.639181 0 0 0.64159 0 0 0.643989 0 0 0.646382 0 0 0.64877 0 0 0.651152 0 0 0.653528 0 0 0.655901 0 0 0.65827 0 0 0.660637 0 0 0.663004 0 0 0.665367 0 0 0.66773 0 0 0.670091 0 0 0.672451 0 0 0.67481 0 0 0.677169 0 0 0.679527 0 0 0.681885 0 0 0.684243 0 0 0.6866 0 0 0.688957 0 0 0.691313 0 0 0.693669 0 0 0.696026 0 0 0.698386 0 0 0.700746 0 0 0.703105 0 0 0.705462 0 0 0.707817 0 0 0.710171 0 0 0.712526 0 0 0.714884 0 0 0.717254 0 0 0.719644 0 0 0.722052 0 0 0.724495 0 0 0.727041 0 0 0.729702 0 0 0.732518 0 0 0.735539 0 0 0.738839 0 0 0.742456 0 0 0.74643 0 0 0.750744 0 0 0.755344 0 0 0.760143 0 0 0.765055 0 0 0.77002 0 0 0.775007 0 0 0.780003 0 0 0.785001 0 0 0.79 0 0 0.795 0 0 0.8 0 0 0.805 0 0 0.81 0 0 0.815 0 0 0.82 0 0 0.825 0 0 0.83 0 0 0.835 0 0 0.84 0 0 0.845 0 0 0.85 0 0 0.855 0 0 0.86 0 0 0.865 0 0 0.87 0 0 0.875 0 0 0.88 0 0 0.885 0 0 0.89 0 0 0.895 0 0 0.9 0 0 0.905 0 0 0.91 0 0 0.915 0 0 0.92 0 0 0.925 0 0 0.93 0 0 0.935 0 0 0.94 0 0 0.945 0 0 0.95 0 0 0.955 0 0 0.96 0 0 0.965 0 0 0.97 0 0 0.975 0 0 0.98 0 0 0.985 0 0 0.99 0 0 0.995 0 0 1 0 0 0 0.02 0 0.005 0.02 0 0.01 0.02 0 0.015 0.02 0 0.02 0.02 0 0.025 0.02 0 0.03 0.02 0 0.035 0.02 0 0.04 0.02 0 0.045 0.02 0 0.05 0.02 0 0.055 0.02 0 0.06 0.02 0 0.065 0.02 0 0.07 0.02 0 0.075 0.02 0 0.08 0.02 0 0.085 0.02 0 0.09 0.02 0 0.095 0.02 0 0.1 0.02 0 0.105 0.02 0 0.11 0.02 0 0.115 0.02 0 0.12 0.02 0 0.125 0.02 0 0.13 0.02 0 0.135 0.02 0 0.14 0.02 0 0.145 0.02 0 0.15 0.02 0 0.155 0.02 0 0.16 0.02 0 0.165 0.02 0 0.17 0.02 0 0.175 0.02 0 0.18 0.02 0 0.185 0.02 0 0.19 0.02 0 0.195 0.02 0 0.2 0.02 0 0.205 0.02 0 0.21 0.02 0 0.215 0.02 0 0.22 0.02 0 0.225 0.02 0 0.23 0.02 0 0.235 0.02 0 0.24 0.02 0 0.245 0.02 0 0.25 0.02 0 0.255 0.02 0 0.26 0.02 0 0.265 0.02 0 0.27 0.02 0 0.275 0.02 0 0.28 0.02 0 0.285 0.02 0 0.29 0.02 0 0.295 0.02 0 0.3 0.02 0 0.305 0.02 0 0.31 0.02 0 0.315001 0.02 0 0.320004 0.02 0 0.325011 0.02 0 0.330029 0.02 0 0.335072 0.02 0 0.340158 0.02 0 0.345312 0.02 0 0.350559 0.02 0 0.355921 0.02 0 0.361419 0.02 0 0.367066 0.02 0 0.372879 0.02 0 0.37887 0.02 0 0.385054 0.02 0 0.391448 0.02 0 0.398068 0.02 0 0.404934 0.02 0 0.412067 0.02 0 0.419491 0.02 0 0.427235 0.02 0 0.43533 0.02 0 0.44381 0.02 0 0.452718 0.02 0 0.4621 0.02 0 0.472007 0.02 0 0.482492 0.02 0 0.4936 0.02 0 0.505324 0.02 0 0.517491 0.02 0 0.529661 0.02 0 0.541701 0.02 0 0.553614 0.02 0 0.565439 0.02 0 0.577213 0.02 0 0.588966 0.02 0 0.600711 0.02 0 0.612455 0.02 0 0.62421 0.02 0 0.626825 0.02 0 0.629364 0.02 0 0.631858 0.02 0 0.634319 0.02 0 0.636758 0.02 0 0.639181 0.02 0 0.64159 0.02 0 0.643989 0.02 0 0.646382 0.02 0 0.64877 0.02 0 0.651152 0.02 0 0.653528 0.02 0 0.655901 0.02 0 0.65827 0.02 0 0.660637 0.02 0 0.663004 0.02 0 0.665367 0.02 0 0.66773 0.02 0 0.670091 0.02 0 0.672451 0.02 0 0.67481 0.02 0 0.677169 0.02 0 0.679527 0.02 0 0.681885 0.02 0 0.684243 0.02 0 0.6866 0.02 0 0.688957 0.02 0 0.691313 0.02 0 0.693669 0.02 0 0.696026 0.02 0 0.698386 0.02 0 0.700746 0.02 0 0.703105 0.02 0 0.705462 0.02 0 0.707817 0.02 0 0.710171 0.02 0 0.712526 0.02 0 0.714884 0.02 0 0.717254 0.02 0 0.719644 0.02 0 0.722052 0.02 0 0.724495 0.02 0 0.727041 0.02 0 0.729702 0.02 0 0.732518 0.02 0 0.735539 0.02 0 0.738839 0.02 0 0.742456 0.02 0 0.74643 0.02 0 0.750744 0.02 0 0.755344 0.02 0 0.760143 0.02 0 0.765055 0.02 0 0.77002 0.02 0 0.775007 0.02 0 0.780003 0.02 0 0.785001 0.02 0 0.79 0.02 0 0.795 0.02 0 0.8 0.02 0 0.805 0.02 0 0.81 0.02 0 0.815 0.02 0 0.82 0.02 0 0.825 0.02 0 0.83 0.02 0 0.835 0.02 0 0.84 0.02 0 0.845 0.02 0 0.85 0.02 0 0.855 0.02 0 0.86 0.02 0 0.865 0.02 0 0.87 0.02 0 0.875 0.02 0 0.88 0.02 0 0.885 0.02 0 0.89 0.02 0 0.895 0.02 0 0.9 0.02 0 0.905 0.02 0 0.91 0.02 0 0.915 0.02 0 0.92 0.02 0 0.925 0.02 0 0.93 0.02 0 0.935 0.02 0 0.94 0.02 0 0.945 0.02 0 0.95 0.02 0 0.955 0.02 0 0.96 0.02 0 0.965 0.02 0 0.97 0.02 0 0.975 0.02 0 0.98 0.02 0 0.985 0.02 0 0.99 0.02 0 0.995 0.02 0 1 0.02 0 0 0.04 0 0.005 0.04 0 0.01 0.04 0 0.015 0.04 0 0.02 0.04 0 0.025 0.04 0 0.03 0.04 0 0.035 0.04 0 0.04 0.04 0 0.045 0.04 0 0.05 0.04 0 0.055 0.04 0 0.06 0.04 0 0.065 0.04 0 0.07 0.04 0 0.075 0.04 0 0.08 0.04 0 0.085 0.04 0 0.09 0.04 0 0.095 0.04 0 0.1 0.04 0 0.105 0.04 0 0.11 0.04 0 0.115 0.04 0 0.12 0.04 0 0.125 0.04 0 0.13 0.04 0 0.135 0.04 0 0.14 0.04 0 0.145 0.04 0 0.15 0.04 0 0.155 0.04 0 0.16 0.04 0 0.165 0.04 0 0.17 0.04 0 0.175 0.04 0 0.18 0.04 0 0.185 0.04 0 0.19 0.04 0 0.195 0.04 0 0.2 0.04 0 0.205 0.04 0 0.21 0.04 0 0.215 0.04 0 0.22 0.04 0 0.225 0.04 0 0.23 0.04 0 0.235 0.04 0 0.24 0.04 0 0.245 0.04 0 0.25 0.04 0 0.255 0.04 0 0.26 0.04 0 0.265 0.04 0 0.27 0.04 0 0.275 0.04 0 0.28 0.04 0 0.285 0.04 0 0.29 0.04 0 0.295 0.04 0 0.3 0.04 0 0.305 0.04 0 0.31 0.04 0 0.315001 0.04 0 0.320004 0.04 0 0.325011 0.04 0 0.330029 0.04 0 0.335072 0.04 0 0.340158 0.04 0 0.345312 0.04 0 0.350559 0.04 0 0.355921 0.04 0 0.361419 0.04 0 0.367066 0.04 0 0.372879 0.04 0 0.37887 0.04 0 0.385054 0.04 0 0.391448 0.04 0 0.398068 0.04 0 0.404934 0.04 0 0.412067 0.04 0 0.419491 0.04 0 0.427235 0.04 0 0.43533 0.04 0 0.44381 0.04 0 0.452718 0.04 0 0.4621 0.04 0 0.472007 0.04 0 0.482492 0.04 0 0.4936 0.04 0 0.505324 0.04 0 0.517491 0.04 0 0.529661 0.04 0 0.541701 0.04 0 0.553614 0.04 0 0.565439 0.04 0 0.577213 0.04 0 0.588966 0.04 0 0.600711 0.04 0 0.612455 0.04 0 0.62421 0.04 0 0.626825 0.04 0 0.629364 0.04 0 0.631858 0.04 0 0.634319 0.04 0 0.636758 0.04 0 0.639181 0.04 0 0.64159 0.04 0 0.643989 0.04 0 0.646382 0.04 0 0.64877 0.04 0 0.651152 0.04 0 0.653528 0.04 0 0.655901 0.04 0 0.65827 0.04 0 0.660637 0.04 0 0.663004 0.04 0 0.665367 0.04 0 0.66773 0.04 0 0.670091 0.04 0 0.672451 0.04 0 0.67481 0.04 0 0.677169 0.04 0 0.679527 0.04 0 0.681885 0.04 0 0.684243 0.04 0 0.6866 0.04 0 0.688957 0.04 0 0.691313 0.04 0 0.693669 0.04 0 0.696026 0.04 0 0.698386 0.04 0 0.700746 0.04 0 0.703105 0.04 0 0.705462 0.04 0 0.707817 0.04 0 0.710171 0.04 0 0.712526 0.04 0 0.714884 0.04 0 0.717254 0.04 0 0.719644 0.04 0 0.722052 0.04 0 0.724495 0.04 0 0.727041 0.04 0 0.729702 0.04 0 0.732518 0.04 0 0.735539 0.04 0 0.738839 0.04 0 0.742456 0.04 0 0.74643 0.04 0 0.750744 0.04 0 0.755344 0.04 0 0.760143 0.04 0 0.765055 0.04 0 0.77002 0.04 0 0.775007 0.04 0 0.780003 0.04 0 0.785001 0.04 0 0.79 0.04 0 0.795 0.04 0 0.8 0.04 0 0.805 0.04 0 0.81 0.04 0 0.815 0.04 0 0.82 0.04 0 0.825 0.04 0 0.83 0.04 0 0.835 0.04 0 0.84 0.04 0 0.845 0.04 0 0.85 0.04 0 0.855 0.04 0 0.86 0.04 0 0.865 0.04 0 0.87 0.04 0 0.875 0.04 0 0.88 0.04 0 0.885 0.04 0 0.89 0.04 0 0.895 0.04 0 0.9 0.04 0 0.905 0.04 0 0.91 0.04 0 0.915 0.04 0 0.92 0.04 0 0.925 0.04 0 0.93 0.04 0 0.935 0.04 0 0.94 0.04 0 0.945 0.04 0 0.95 0.04 0 0.955 0.04 0 0.96 0.04 0 0.965 0.04 0 0.97 0.04 0 0.975 0.04 0 0.98 0.04 0 0.985 0.04 0 0.99 0.04 0 0.995 0.04 0 1 0.04 0 0 0.06 0 0.005 0.06 0 0.01 0.06 0 0.015 0.06 0 0.02 0.06 0 0.025 0.06 0 0.03 0.06 0 0.035 0.06 0 0.04 0.06 0 0.045 0.06 0 0.05 0.06 0 0.055 0.06 0 0.06 0.06 0 0.065 0.06 0 0.07 0.06 0 0.075 0.06 0 0.08 0.06 0 0.085 0.06 0 0.09 0.06 0 0.095 0.06 0 0.1 0.06 0 0.105 0.06 0 0.11 0.06 0 0.115 0.06 0 0.12 0.06 0 0.125 0.06 0 0.13 0.06 0 0.135 0.06 0 0.14 0.06 0 0.145 0.06 0 0.15 0.06 0 0.155 0.06 0 0.16 0.06 0 0.165 0.06 0 0.17 0.06 0 0.175 0.06 0 0.18 0.06 0 0.185 0.06 0 0.19 0.06 0 0.195 0.06 0 0.2 0.06 0 0.205 0.06 0 0.21 0.06 0 0.215 0.06 0 0.22 0.06 0 0.225 0.06 0 0.23 0.06 0 0.235 0.06 0 0.24 0.06 0 0.245 0.06 0 0.25 0.06 0 0.255 0.06 0 0.26 0.06 0 0.265 0.06 0 0.27 0.06 0 0.275 0.06 0 0.28 0.06 0 0.285 0.06 0 0.29 0.06 0 0.295 0.06 0 0.3 0.06 0 0.305 0.06 0 0.31 0.06 0 0.315001 0.06 0 0.320004 0.06 0 0.325011 0.06 0 0.330029 0.06 0 0.335072 0.06 0 0.340158 0.06 0 0.345312 0.06 0 0.350559 0.06 0 0.355921 0.06 0 0.361419 0.06 0 0.367066 0.06 0 0.372879 0.06 0 0.37887 0.06 0 0.385054 0.06 0 0.391448 0.06 0 0.398068 0.06 0 0.404934 0.06 0 0.412067 0.06 0 0.419491 0.06 0 0.427235 0.06 0 0.43533 0.06 0 0.44381 0.06 0 0.452718 0.06 0 0.4621 0.06 0 0.472007 0.06 0 0.482492 0.06 0 0.4936 0.06 0 0.505324 0.06 0 0.517491 0.06 0 0.529661 0.06 0 0.541701 0.06 0 0.553614 0.06 0 0.565439 0.06 0 0.577213 0.06 0 0.588966 0.06 0 0.600711 0.06 0 0.612455 0.06 0 0.62421 0.06 0 0.626825 0.06 0 0.629364 0.06 0 0.631858 0.06 0 0.634319 0.06 0 0.636758 0.06 0 0.639181 0.06 0 0.64159 0.06 0 0.643989 0.06 0 0.646382 0.06 0 0.64877 0.06 0 0.651152 0.06 0 0.653528 0.06 0 0.655901 0.06 0 0.65827 0.06 0 0.660637 0.06 0 0.663004 0.06 0 0.665367 0.06 0 0.66773 0.06 0 0.670091 0.06 0 0.672451 0.06 0 0.67481 0.06 0 0.677169 0.06 0 0.679527 0.06 0 0.681885 0.06 0 0.684243 0.06 0 0.6866 0.06 0 0.688957 0.06 0 0.691313 0.06 0 0.693669 0.06 0 0.696026 0.06 0 0.698386 0.06 0 0.700746 0.06 0 0.703105 0.06 0 0.705462 0.06 0 0.707817 0.06 0 0.710171 0.06 0 0.712526 0
[...]
			<PointData Scalars="VitesseX">
				<DataArray Name="VitesseX" type="Float32" format="ascii">
 0 3.05746e-16 1.13301e-15 7.69764e-16 1.38968e-15 -1.47261e-15 -5.11652e-16 4.57687e-15 -1.09159e-15 -1.77994e-15 6.98075e-15 -1.07084e-15 6.40431e-15 -5.25713e-15 1.10829e-14 7.29568e-15 -3.70452e-15 -9.95926e-15 1.47059e-14 7.62974e-15 -7.18259e-15 -1.43954e-14 9.82315e-15 -6.21953e-15 1.20693e-15 1.03536e-14 -3.38281e-15 1.09391e-14 -4.5007e-15 1.27513e-14 -1.39158e-14 1.9547e-14 8.17352e-15 -1.42138e-14 6.11698e-15 -7.63701e-15 -1.25335e-14 2.97213e-14 -2.60205e-15 2.41365e-14 2.11456e-15 4.53725e-15 1.67327e-14 2.59643e-14 1.67583e-14 -1.37582e-14 4.31506e-14 2.33898e-14 8.23233e-14 4.03824e-14 8.60346e-14 6.01632e-13 4.5799e-12 3.29695e-11 2.24685e-10 1.43823e-09 8.63594e-09 4.85237e-08 2.54267e-07 1.23796e-06 5.57629e-06 2.31215e-05 8.77271e-05 0.000302427 0.000939452 0.00260563 0.0063962 0.013815 0.0262617 0.0443206 0.0674981 0.0946657 0.124711 0.156874 0.190746 0.226141 0.263001 0.301331 0.341176 0.382606 0.425712 0.4706 0.517391 0.56621 0.617182 0.670401 0.725878 0.783397 0.842146 0.899622 0.948274 0.96677 0.954816 0.944435 0.936134 0.931262 0.928989 0.928029 0.927587 0.927325 0.927158 0.927177 0.9272 0.927183 0.927169 0.927138 0.92709 0.927029 0.926958 0.92688 0.926803 0.926735 0.926682 0.926653 0.926644 0.926715 0.926914 0.926793 0.926728 0.926653 0.926572 0.926544 0.926563 0.926841 0.926585 0.926373 0.926025 0.925735 0.925547 0.925616 0.926876 0.927365 0.926449 0.92539 0.924173 0.923212 0.923103 0.925577 0.926506 0.928557 0.908078 0.9165 0.859207 0.831694 0.790226 0.731632 0.627621 0.538688 0.408231 0.286877 0.176279 0.093442 0.0425751 0.0172852 0.00656902 0.00242029 0.000879358 0.000317152 0.00011378 4.06133e-05 1.4417e-05 5.08601e-06 1.78169e-06 6.19285e-07 2.13407e-07 7.28547e-08 2.46225e-08 8.23287e-09 2.72174e-09 8.89176e-10 2.86898e-10 9.14488e-11 2.86997e-11 8.88684e-12 2.80227e-12 7.54456e-13 2.17281e-13 1.4966e-14 -5.56945e-14 -5.10513e-14 -3.92974e-14 2.28955e-14 -8.09275e-14 -4.55162e-14 2.91836e-15 -4.245e-14 -1.69233e-13 -1.3497e-13 1.08869e-13 -1.44169e-13 -1.10259e-13 -8.1033e-14 1.2747e-14 -6.23296e-14 -1.24065e-13 8.82629e-14 -1.99027e-13 1.03167e-14 -3.15691e-14 -1.17929e-13 0 0 9.41542e-17 8.01155e-16 1.20667e-15 5.6704e-16 -1.06771e-15 6.47344e-16 5.26066e-16 2.65992e-15 4.19665e-15 -5.5471e-15 4.67291e-15 -5.43452e-15 8.20148e-15 -5.1051e-16 1.12925e-14 6.22855e-15 1.81206e-16 1.69281e-15 2.3637e-15 1.76999e-15 -7.47037e-15 -9.30267e-15 -4.32252e-15 6.19101e-15 1.57231e-14 3.00259e-15 -5.10524e-15 -8.19524e-15 1.80351e-14 7.1263e-16 2.86037e-15 7.42829e-15 -9.01417e-16 -4.78863e-15 9.74583e-15 3.58421e-15 -1.33644e-14 2.27955e-14 1.68743e-14 5.27282e-15 5.43699e-15 1.39284e-14 2.68073e-14 4.15027e-15 4.14366e-14 4.46596e-15 2.59638e-14 7.13855e-14 7.74442e-14 7.10707e-14 6.07971e-13 4.53239e-12 3.30247e-11 2.24655e-10 1.43806e-09 8.63607e-09 4.85237e-08 2.54267e-07 1.23796e-06 5.57629e-06 2.31215e-05 8.77271e-05 0.000302427 0.000939452 0.00260563 0.0063962 0.013815 0.0262617 0.0443206 0.0674981 0.0946657 0.124711 0.156874 0.190746 0.226141 0.263001 0.301331 0.341176 0.382606 0.425712 0.4706 0.517391 0.56621 0.617182 0.670401 0.725878 0.783397 0.842146 0.899622 0.948274 0.96677 0.954816 0.944435 0.936134 0.931262 0.928989 0.928029 0.927587 0.927325 0.927158 0.927177 0.9272 0.927183 0.927169 0.927138 0.92709 0.927029 0.926958 0.92688 0.926803 0.926735 0.926682 0.926653 0.926644 0.926715 0.926914 0.926793 0.926728 0.926653 0.926572 0.926544 0.926563 0.926841 0.926585 0.926373 0.926025 0.925735 0.925547 0.925616 0.926876 0.927365 0.926449 0.92539 0.924173 0.923212 0.923103 0.925577 0.926506 0.928557 0.908078 0.9165 0.859207 0.831694 0.790226 0.731632 0.627621 0.538688 0.408231 0.286877 0.176279 0.093442 0.0425751 0.0172852 0.00656902 0.00242029 0.000879358 0.000317152 0.00011378 4.06133e-05 1.4417e-05 5.08601e-06 1.78169e-06 6.19285e-07 2.13407e-07 7.28548e-08 2.46225e-08 8.23278e-09 2.72173e-09 8.8923e-10 2.86933e-10 9.13508e-11 2.88416e-11 8.99e-12 2.60933e-12 9.54843e-13 1.34156e-13 -2.21928e-14 -7.45212e-14 6.52391e-14 -9.86869e-14 2.14551e-14 -6.15526e-15 -1.19633e-15 -6.1774e-14 -6.45582e-14 -1.21997e-13 -4.01811e-14 -6.95945e-14 2.51966e-14 -1.08067e-13 -7.00838e-14 -8.36212e-14 -9.35378e-14 2.43275e-15 -9.01761e-14 -1.05873e-13 -3.74996e-14 -3.10942e-14 -9.25671e-14 0 0 -3.33322e-16 -2.76723e-16 -1.18336e-15 -7.06305e-16 2.79411e-15 -3.13937e-16 5.37874e-16 -1.72743e-16 4.20412e-15 4.67215e-16 4.00833e-15 -2.93029e-15 -1.8464e-15 8.23655e-15 3.2071e-15 1.0103e-14 4.43814e-15 3.31768e-15 -1.22448e-14 -8.17466e-15 9.54347e-15 -9.35924e-16 -6.36813e-15 1.14352e-14 1.51806e-14 -5.83154e-15 -1.17037e-14 -2.14239e-15 1.69243e-14 8.96093e-15 7.93569e-15 2.2088e-15 -7.34589e-15 2.10252e-14 4.43065e-15 -1.99358e-14 2.21062e-15 1.84553e-14 1.03462e-14 2.30048e-14 1.3633e-14 -1.51797e-14 1.46377e-14 2.89718e-14 3.69122e-14 -8.54536e-15 4.32147e-14 5.64787e-14 9.69414e-14 1.31608e-13 5.77964e-13 4.47838e-12 3.30365e-11 2.24717e-10 1.43788e-09 8.63617e-09 4.85236e-08 2.54267e-07 1.23796e-06 5.57629e-06 2.31215e-05 8.77271e-05 0.000302427 0.000939452 0.00260563 0.0063962 0.013815 0.0262617 0.0443206 0.0674981 0.0946657 0.124711 0.156874 0.190746 0.226141 0.263001 0.301331 0.341176 0.382606 0.425712 0.4706 0.517391 0.56621 0.617182 0.670401 0.725878 0.783397 0.842146 0.899622 0.948274 0.96677 0.954816 0.944435 0.936134 0.931262 0.928989 0.928029 0.927587 0.927325 0.927158 0.927177 0.9272 0.927183 0.927169 0.927138 0.92709 0.927029 0.926958 0.92688 0.926803 0.926735 0.926682 0.926653 0.926644 0.926715 0.926914 0.926793 0.926728 0.926653 0.926572 0.926544 0.926563 0.926841 0.926585 0.926373 0.926025 0.925735 0.925547 0.925616 0.926876 0.927365 0.926449 0.92539 0.924173 0.923212 0.923103 0.925577 0.926506 0.928557 0.908078 0.9165 0.859207 0.831694 0.790226 0.731632 0.627621 0.538688 0.408231 0.286877 0.176279 0.093442 0.0425751 0.0172852 0.00656902 0.00242029 0.000879358 0.000317152 0.00011378 4.06133e-05 1.4417e-05 5.08601e-06 1.78169e-06 6.19285e-07 2.13407e-07 7.28547e-08 2.46224e-08 8.23282e-09 2.72183e-09 8.89178e-10 2.87041e-10 9.14335e-11 2.8789e-11 8.95115e-12 2.76678e-12 8.8468e-13 1.18255e-14 1.38247e-14 9.37864e-14 1.16412e-13 -4.70192e-14 -8.42516e-14 -1.54925e-15 -7.06187e-14 -6.55504e-14 2.55521e-14 -1.72354e-14 7.49961e-14 -1.14669e-13 2.25723e-14 -1.26123e-13 -1.42795e-13 -1.72476e-13 -7.82181e-14 -3.15864e-14 -1.20623e-13 -4.14349e-16 -1.02075e-13 -6.72401e-14 -7.07483e-14 0 0 5.87295e-16 -2.8402e-16 3.69208e-16 -5.75991e-16 1.92526e-15 -3.89239e-15 -6.23546e-16 2.09382e-15 3.09716e-15 5.4981e-15 7.4627e-15 6.74566e-15 -5.03949e-15 2.725e-15 6.37565e-15 -9.45734e-15 6.86058e-15 -7.81457e-16 -1.22129e-14 2.20195e-15 1.01609e-14 3.19881e-15 6.84263e-15 -2.79602e-15 -5.80182e-15 -4.1565e-15 2.75912e-15 9.153e-15 9.83286e-15 -5.02807e-15 2.6546e-14 1.80517e-15 -1.41634e-14 1.7823e-14 -2.34688e-14 8.76362e-15 1.72676e-14 1.88833e-14 -9.76445e-15 4.83379e-14 8.66401e-15 -4.99576e-15 2.92757e-14 -2.1921e-15 9.07273e-15 4.18398e-14 4.08246e-14 4.96751e-14 7.16085e-14 1.46546e-13 6.1335e-13 4.54212e-12 3.28798e-11 2.24671e-10 1.43805e-09 8.63604e-09 4.85236e-08 2.54266e-07 1.23796e-06 5.57629e-06 2.31215e-05 8.77271e-05 0.000302427 0.000939452 0.00260563 0.0063962 0.013815 0.0262617 0.0443206 0.0674981 0.0946657 0.124711 0.156874 0.190746 0.226141 0.263001 0.301331 0.341176 0.382606 0.425712 0.4706 0.517391 0.56621 0.617182 0.670401 0.725878 0.783397 0.842146 0.899622 0.948274 0.96677 0.954816 0.944435 0.936134 0.931262 0.928989 0.928029 0.927587 0.927325 0.927158 0.927177 0.9272 0.927183 0.927169 0.927138 0.92709 0.927029 0.926958 0.92688 0.926803 0.926735 0.926682 0.926653 0.926644 0.926715 0.926914 0.926793 0.926728 0.926653 0.926572 0.926544 0.926563 0.926841 0.926585 0.926373 0.926025 0.925735 0.925547 0.925616 0.926876 0.927365 0.926449 0.92539 0.924173 0.923212 0.923103 0.925577 0.926506 0.928557 0.908078 0.9165 0.859207 0.831694 0.790226 0.731632 0.627621 0.538688 0.408231 0.286877 0.176279 0.093442 0.0425751 0.0172852 0.00656902 0.00242029 0.000879358 0.000317152 0.00011378 4.06133e-05 1.4417e-05 5.08601e-06 1.78169e-06 6.19285e-07 2.13407e-07 7.28548e-08 2.46224e-08 8.23291e-09 2.72174e-09 8.89227e-10 2.87066e-10 9.15057e-11 2.87701e-11 8.84456e-12 2.96007e-12 7.33537e-13 5.16301e-14 3.98644e-14 6.64025e-14 5.43731e-14 9.62209e-14 -1.16144e-13 1.57432e-14 -1.14384e-14 -7.04887e-15 -2.65726e-14 2.59144e-14 1.18698e-13 -8.14411e-14 3.44771e-14 -2.45078e-13 -1.68888e-13 -8.07124e-14 -1.19057e-13 -8.05662e-14 -1.79501e-13 2.2344e-14 -1.7559e-14 -1.32772e-13 -1.24172e-13 0 0 -7.10786e-16 -2.81413e-15 -1.10325e-15 3.09151e-15 -6.62048e-16 3.05264e-15 -6.13189e-15 4.01909e-15 4.58313e-15 -1.7128e-15 1.15777e-14 6.04855e-15 1.57882e-14 -1.40733e-15 -3.97463e-15 -1.02671e-14 3.87979e-15 -1.69787e-14 -9.25114e-15 1.4161e-14 -7.43108e-15 -8.52817e-15 2.18607e-15 -6.21971e-15 2.09839e-14 1.67807e-14 6.21351e-15 2.70791e-15 1.81163e-15 9.72645e-15 -1.89739e-15 2.76617e-15 3.00102e-17 -9.04096e-15 -1.11334e-14 2.68294e-14 8.01408e-15 2.91871e-14 -1.85068e-15 2.88791e-14 6.64106e-15 2.1268e-14 7.31928e-15 -3.20142e-14 4.75091e-14 2.86376e-14 2.14314e-14 7.88421e-14 7.19204e-14 4.65609e-14 7.0297e-13 4.64761e-12 3.27989e-11 2.24531e-10 1.4382e-09 8.63592e-09 4.85237e-08 2.54266e-07 1.23796e-06 5.57629e-06 2.31215e-05 8.77271e-05 0.000302427 0.000939452 0.00260563 0.0063962 0.013815 0.0262617 0.0443206 0.0674981 0.0946657 0.124711 0.156874 0.190746 0.226141 0.263001 0.301331 0.341176 0.382606 0.425712 0.4706 0.517391 0.56621 0.617182 0.670401 0.725878 0.783397 0.842146 0.899622 0.948274 0.96677 0.954816 0.944435 0.936134 0.931262 0.928989 0.928029 0.927587 0.927325 0.927158 0.927177 0.9272 0.927183 0.927169 0.927138 0.92709 0.927029 0.926958 0.92688 0.926803 0.926735 0.926682 0.926653 0.926644 0.926715 0.926914 0.926793 0.926728 0.926653 0.926572 0.926544 0.926563 0.926841 0.926585 0.926373 0.926025 0.925735 0.925547 0.925616 0.926876 0.927365 0.926449 0.92539 0.924173 0.923212 0.923103 0.925577 0.926506 0.928557 0.908078 0.9165 0.859207 0.831694 0.790226 0.731632 0.627621 0.538688 0.408231 0.286877 0.176279 0.093442 0.0425751 0.0172852 0.00656902 0.00242029 0.000879358 0.000317152 0.00011378 4.06133e-05 1.4417e-05 5.08601e-06 1.78169e-06 6.19285e-07 2.13407e-07 7.28548e-08 2.46226e-08 8.23291e-09 2.72185e-09 8.89109e-10 2.87099e-10 9.14413e-11 2.88842e-11 8.98839e-12 2.66527e-12 6.9856e-13 9.61614e-14 1.35389e-13 1.01745e-13 -1.37571e-13 -2.22283e-14 -1.31808e-13 1.05068e-13 3.29819e-14 2.22207e-13 3.32824e-14 4.16523e-14 -1.41221e-14 -1.39184e-13 8.57387e-15 -2.24965e-13 8.73687e-14 -8.12152e-14 -2.83914e-13 3.13417e-14 -2.22122e-13 -1.14157e-13 2.07024e-14 -1.35842e-13 -1.51558e-13 0 0 -3.14537e-15 -6.08296e-15 -6.9552e-15 6.17799e-15 1.07641e-15 1.14558e-14 -6.41619e-15 -2.90638e-15 1.20694e-15 4.58758e-15 5.83005e-15 1.00185e-14 1.63025e-14 2.03123e-14 -2.95757e-14 2.42485e-15 -7.40697e-15 -1.44388e-14 -1.56638e-14 -3.1538e-15 -1.55516e-14 3.10269e-15 -1.96239e-14 4.84785e-15 6.284e-14 2.08233e-14 4.65092e-15 -5.2852e-15 -5.51283e-15 3.20899e-14 -2.71892e-14 -3.4344e-16 1.28393e-15 4.0168e-15 6.40353e-15 -2.3442e-14 4.23644e-14 9.32524e-15 2.69077e-14 -1.33907e-15 1.68834e-14 1.1044e-14 -4.22876e-14 6.75717e-15 5.40659e-14 -9.27627e-15 1.9105e-14 1.10844e-13 8.00007e-14 7.14005e-15 7.20856e-13 4.68285e-12 3.28313e-11 2.24529e-10 1.43819e-09 8.63588e-09 4.85236e-08 2.54267e-07 1.23796e-06 5.57629e-06 2.31215e-05 8.77271e-05 0.000302427 0.000939452 0.00260563 0.0063962 0.013815 0.0262617 0.0443206 0.0674981 0.0946657 0.124711 0.156874 0.190746 0.226141 0.263001 0.301331 0.341176 0.382606 0.425712 0.4706 0.517391 0.56621 0.617182 0.670401 0.725878 0.783397 0.842146 0.899622 0.948274 0.96677 0.954816 0.944435 0.936134 0.931262 0.928989 0.928029 0.927587 0.927325 0.927158 0.927177 0.9272 0.927183 0.927169 0.927138 0.92709 0.927029 0.926958 0.92688 0.926803 0.926735 0.926682 0.926653 0.926644 0.926715 0.926914 0.926793 0.926728 0.926653 0.926572 0.926544 0.926563 0.926841 0.926585 0.926373 0.926025 0.925735 0.925547 0.925616 0.926876 0.927365 0.926449 0.92539 0.924173 0.923212 0.923103 0.925577 0.926506 0.928557 0.908078 0.9165 0.859207 0.831694 0.790226 0.731632 0.627621 0.538688 0.408231 0.286877 0.176279 0.093442 0.0425751 0.0172852 0.00656902 0.00242029 0.000879358 0.000317152 0.00011378 4.06133e-05 1.4417e-05 5.08601e-06 1.78169e-06 6.19285e-07 2.13407e-07 7.28547e-08 2.46226e-08 8.23295e-09 2.72215e-09 8.88836e-10 2.8718e-10 9.14848e-11 2.8822e-11 9.09704e-12 2.52766e-12 5.43683e-13 6.11349e-14 2.77726e-13 3.51678e-13 -3.31849e-13 -1.72357e-13 -2.19925e-13 1.07212e-13 -9.49874e-14 4.54186e-13 2.5743e-13 7.19197e-14 -1.70236e-13 -9.63474e-14 -2.00871e-13 -1.06253e-13 2.86408e-13 -1.65919e-13 -3.61677e-13 3.20928e-14 -5.76009e-14 -2.61187e-13 -4.20305e-14 -1.09544e-13 -1.28381e-13 0
				</DataArray>
				<DataArray Name="VitesseY" type="Float32" format="ascii">