<?xml version="1.0"?>
<VTKFile type="PolyData">
	<PolyData>
		<Piece NumberOfPoints="1206" NumberOfPolys="1000">
			<Points>
				<DataArray type="Float32" NumberOfComponents="3" format="ascii">
 0 0 0 0.005 0 0 0.01 0 0 0.015 0 0 0.02 0 0 0.025 0 0 0.03 0 0 0.035 0 0 0.04 0 0 0.045 0 0 0.05 0 0 0.055 0 0 0.06 0 0 0.065 0 0 0.07 0 0 0.075 0 0 0.08 0 0 0.085 0 0 0.09 0 0 0.095 0 0 0.1 0 0 0.105 0 0 0.11 0 0 0.115 0 0 0.12 0 0 0.125 0 0 0.13 0 0 0.135 0 0 0.14 0 0 0.145 0 0 0.15 0 0 0.155 0 0 0.16 0 0 0.165 0 0 0.17 0 0 0.175 0 0 0.18 0 0 0.185 0 0 0.19 0 0 0.195 0 0 0.2 0 0 0.205 0 0 0.21 0 0 0.215 0 0 0.22 0 0 0.225 0 0 0.23 0 0 0.235 0 0 0.240001 0 0 0.245004 0 0 0.250011 0 0 0.255027 0 0 0.260059 0 0 0.265119 0 0 0.270222 0 0 0.275381 0 0 0.280612 0 0 0.285925 0 0 0.291329 0 0 0.296832 0 0 0.302441 0 0 0.308162 0 0 0.314001 0 0 0.319964 0 0 0.326058 0 0 0.332291 0 0 0.33867 0 0 0.345202 0 0 0.351898 0 0 0.358765 0 0 0.365814 0 0 0.373057 0 0 0.380505 0 0 0.388171 0 0 0.396071 0 0 0.40422 0 0 0.412635 0 0 0.421337 0 0 0.430346 0 0 0.439686 0 0 0.449382 0 0 0.459462 0 0 0.469953 0 0 0.480881 0 0 0.492258 0 0 0.50406 0 0 0.516158 0 0 0.528269 0 0 0.540296 0 0 0.552234 0 0 0.564093 0 0 0.575895 0 0 0.587661 0 0 0.599409 0 0 0.611149 0 0 0.622884 0 0 0.634619 0 0 0.646352 0 0 0.658087 0 0 0.669824 0 0 0.681575 0 0 0.684188 0 0 0.686727 0 0 0.689219 0 0 0.69168 0 0 0.694118 0 0 0.69654 0 0 0.698948 0 0 0.701346 0 0 0.703738 0 0 0.706126 0 0 0.708507 0 0 0.710884 0 0 0.713256 0 0 0.715625 0 0 0.717992 0 0 0.720358 0 0 0.722721 0 0 0.725083 0 0 0.727443 0 0 0.729802 0 0 0.73216 0 0 0.734518 0 0 0.736874 0 0 0.73923 0 0 0.741586 0 0 0.743942 0 0 0.746297 0 0 0.748652 0 0 0.751007 0 0 0.753362 0 0 0.755717 0 0 0.758071 0 0 0.760426 0 0 0.76278 0 0 0.765134 0 0 0.767487 0 0 0.769842 0 0 0.772196 0 0 0.77455 0 0 0.776904 0 0 0.779257 0 0 0.78161 0 0 0.783964 0 0 0.786318 0 0 0.788673 0 0 0.791029 0 0 0.793385 0 0 0.79574 0 0 0.798095 0 0 0.80045 0 0 0.802804 0 0 0.805158 0 0 0.807516 0 0 0.809875 0 0 0.812234 0 0 0.814591 0 0 0.816947 0 0 0.819301 0 0 0.821654 0 0 0.824012 0 0 0.826382 0 0 0.828773 0 0 0.831201 0 0 0.83367 0 0 0.836257 0 0 0.838956 0 0 0.84184 0 0 0.844941 0 0 0.848342 0 0 0.852076 0 0 0.856166 0 0 0.860583 0 0 0.86526 0 0 0.870105 0 0 0.87504 0 0 0.880015 0 0 0.885005 0 0 0.890002 0 0 0.895001 0 0 0.9 0 0 0.905 0 0 0.91 0 0 0.915 0 0 0.92 0 0 0.925 0 0 0.93 0 0 0.935 0 0 0.94 0 0 0.945 0 0 0.95 0 0 0.955 0 0 0.96 0 0 0.965 0 0 0.97 0 0 0.975 0 0 0.98 0 0 0.985 0 0 0.99 0 0 0.995 0 0 1 0 0 0 0.02 0 0.005 0.02 0 0.01 0.02 0 0.015 0.02 0 0.02 0.02 0 0.025 0.02 0 0.03 0.02 0 0.035 0.02 0 0.04 0.02 0 0.045 0.02 0 0.05 0.02 0 0.055 0.02 0 0.06 0.02 0 0.065 0.02 0 0.07 0.02 0 0.075 0.02 0 0.08 0.02 0 0.085 0.02 0 0.09 0.02 0 0.095 0.02 0 0.1 0.02 0 0.105 0.02 0 0.11 0.02 0 0.115 0.02 0 0.12 0.02 0 0.125 0.02 0 0.13 0.02 0 0.135 0.02 0 0.14 0.02 0 0.145 0.02 0 0.15 0.02 0 0.155 0.02 0 0.16 0.02 0 0.165 0.02 0 0.17 0.02 0 0.175 0.02 0 0.18 0.02 0 0.185 0.02 0 0.19 0.02 0 0.195 0.02 0 0.2 0.02 0 0.205 0.02 0 0.21 0.02 0 0.215 0.02 0 0.22 0.02 0 0.225 0.02 0 0.23 0.02 0 0.235 0.02 0 0.240001 0.02 0 0.245004 0.02 0 0.250011 0.02 0 0.255027 0.02 0 0.260059 0.02 0 0.265119 0.02 0 0.270222 0.02 0 0.275381 0.02 0 0.280612 0.02 0 0.285925 0.02 0 0.291329 0.02 0 0.296832 0.02 0 0.302441 0.02 0 0.308162 0.02 0 0.314001 0.02 0 0.319964 0.02 0 0.326058 0.02 0 0.332291 0.02 0 0.33867 0.02 0 0.345202 0.02 0 0.351898 0.02 0 0.358765 0.02 0 0.365814 0.02 0 0.373057 0.02 0 0.380505 0.02 0 0.388171 0.02 0 0.396071 0.02 0 0.40422 0.02 0 0.412635 0.02 0 0.421337 0.02 0 0.430346 0.02 0 0.439686 0.02 0 0.449382 0.02 0 0.459462 0.02 0 0.469953 0.02 0 0.480881 0.02 0 0.492258 0.02 0 0.50406 0.02 0 0.516158 0.02 0 0.528269 0.02 0 0.540296 0.02 0 0.552234 0.02 0 0.564093 0.02 0 0.575895 0.02 0 0.587661 0.02 0 0.599409 0.02 0 0.611149 0.02 0 0.622884 0.02 0 0.634619 0.02 0 0.646352 0.02 0 0.658087 0.02 0 0.669824 0.02 0 0.681575 0.02 0 0.684188 0.02 0 0.686727 0.02 0 0.689219 0.02 0 0.69168 0.02 0 0.694118 0.02 0 0.69654 0.02 0 0.698948 0.02 0 0.701346 0.02 0 0.703738 0.02 0 0.706126 0.02 0 0.708507 0.02 0 0.710884 0.02 0 0.713256 0.02 0 0.715625 0.02 0 0.717992 0.02 0 0.720358 0.02 0 0.722721 0.02 0 0.725083 0.02 0 0.727443 0.02 0 0.729802 0.02 0 0.73216 0.02 0 0.734518 0.02 0 0.736874 0.02 0 0.73923 0.02 0 0.741586 0.02 0 0.743942 0.02 0 0.746297 0.02 0 0.748652 0.02 0 0.751007 0.02 0 0.753362 0.02 0 0.755717 0.02 0 0.758071 0.02 0 0.760426 0.02 0 0.76278 0.02 0 0.765134 0.02 0 0.767487 0.02 0 0.769842 0.02 0 0.772196 0.02 0 0.77455 0.02 0 0.776904 0.02 0 0.779257 0.02 0 0.78161 0.02 0 0.783964 0.02 0 0.786318 0.02 0 0.788673 0.02 0 0.791029 0.02 0 0.793385 0.02 0 0.79574 0.02 0 0.798095 0.02 0 0.80045 0.02 0 0.802804 0.02 0 0.805158 0.02 0 0.807516 0.02 0 0.809875 0.02 0 0.812234 0.02 0 0.814591 0.02 0 0.816947 0.02 0 0.819301 0.02 0 0.821654 0.02 0 0.824012 0.02 0 0.826382 0.02 0 0.828773 0.02 0 0.831201 0.02 0 0.83367 0.02 0 0.836257 0.02 0 0.838956 0.02 0 0.84184 0.02 0 0.844941 0.02 0 0.848342 0.02 0 0.852076 0.02 0 0.856166 0.02 0 0.860583 0.02 0 0.86526 0.02 0 0.870105 0.02 0 0.87504 0.02 0 0.880015 0.02 0 0.885005 0.02 0 0.890002 0.02 0 0.895001 0.02 0 0.9 0.02 0 0.905 0.02 0 0.91 0.02 0 0.915 0.02 0 0.92 0.02 0 0.925 0.02 0 0.93 0.02 0 0.935 0.02 0 0.94 0.02 0 0.945 0.02 0 0.95 0.02 0 0.955 0.02 0 0.96 0.02 0 0.965 0.02 0 0.97 0.02 0 0.975 0.02 0 0.98 0.02 0 0.985 0.02 0 0.99 0.02 0 0.995 0.02 0 1 0.02 0 0 0.04 0 0.005 0.04 0 0.01 0.04 0 0.015 0.04 0 0.02 0.04 0 0.025 0.04 0 0.03 0.04 0 0.035 0.04 0 0.04 0.04 0 0.045 0.04 0 0.05 0.04 0 0.055 0.04 0 0.06 0.04 0 0.065 0.04 0 0.07 0.04 0 0.075 0.04 0 0.08 0.04 0 0.085 0.04 0 0.09 0.04 0 0.095 0.04 0 0.1 0.04 0 0.105 0.04 0 0.11 0.04 0 0.115 0.04 0 0.12 0.04 0 0.125 0.04 0 0.13 0.04 0 0.135 0.04 0 0.14 0.04 0 0.145 0.04 0 0.15 0.04 0 0.155 0.04 0 0.16 0.04 0 0.165 0.04 0 0.17 0.04 0 0.175 0.04 0 0.18 0.04 0 0.185 0.04 0 0.19 0.04 0 0.195 0.04 0 0.2 0.04 0 0.205 0.04 0 0.21 0.04 0 0.215 0.04 0 0.22 0.04 0 0.225 0.04 0 0.23 0.04 0 0.235 0.04 0 0.240001 0.04 0 0.245004 0.04 0 0.250011 0.04 0 0.255027 0.04 0 0.260059 0.04 0 0.265119 0.04 0 0.270222 0.04 0 0.275381 0.04 0 0.280612 0.04 0 0.285925 0.04 0 0.291329 0.04 0 0.296832 0.04 0 0.302441 0.04 0 0.308162 0.04 0 0.314001 0.04 0 0.319964 0.04 0 0.326058 0.04 0 0.332291 0.04 0 0.33867 0.04 0 0.345202 0.04 0 0.351898 0.04 0 0.358765 0.04 0 0.365814 0.04 0 0.373057 0.04 0 0.380505 0.04 0 0.388171 0.04 0 0.396071 0.04 0 0.40422 0.04 0 0.412635 0.04 0 0.421337 0.04 0 0.430346 0.04 0 0.439686 0.04 0 0.449382 0.04 0 0.459462 0.04 0 0.469953 0.04 0 0.480881 0.04 0 0.492258 0.04 0 0.50406 0.04 0 0.516158 0.04 0 0.528269 0.04 0 0.540296 0.04 0 0.552234 0.04 0 0.564093 0.04 0 0.575895 0.04 0 0.587661 0.04 0 0.599409 0.04 0 0.611149 0.04 0 0.622884 0.04 0 0.634619 0.04 0 0.646352 0.04 0 0.658087 0.04 0 0.669824 0.04 0 0.681575 0.04 0 0.684188 0.04 0 0.686727 0.04 0 0.689219 0.04 0 0.69168 0.04 0 0.694118 0.04 0 0.69654 0.04 0 0.698948 0.04 0 0.701346 0.04 0 0.703738 0.04 0 0.706126 0.04 0 0.708507 0.04 0 0.710884 0.04 0 0.713256 0.04 0 0.715625 0.04 0 0.717992 0.04 0 0.720358 0.04 0 0.722721 0.04 0 0.725083 0.04 0 0.727443 0.04 0 0.729802 0.04 0 0.73216 0.04 0 0.734518 0.04 0 0.736874 0.04 0 0.73923 0.04 0 0.741586 0.04 0 0.743942 0.04 0 0.746297 0.04 0 0.748652 0.04 0 0.751007 0.04 0 0.753362 0.04 0 0.755717 0.04 0 0.758071 0.04 0 0.760426 0.04 0 0.76278 0.04 0 0.765134 0.04 0 0.767487 0.04 0 0.769842 0.04 0 0.772196 0.04 0 0.77455 0.04 0 0.776904 0.04 0 0.779257 0.04 0 0.78161 0.04 0 0.783964 0.04 0 0.786318 0.04 0 0.788673 0.04 0 0.791029 0.04 0 0.793385 0.04 0 0.79574 0.04 0 0.798095 0.04 0 0.80045 0.04 0 0.802804 0.04 0 0.805158 0.04 0 0.807516 0.04 0 0.809875 0.04 0 0.812234 0.04 0 0.814591 0.04 0 0.816947 0.04 0 0.819301 0.04 0 0.821654 0.04 0 0.824012 0.04 0 0.826382 0.04 0 0.828773 0.04 0 0.831201 0.04 0 0.83367 0.04 0 0.836257 0.04 0 0.838956 0.04 0 0.84184 0.04 0 0.844941 0.04 0 0.848342 0.04 0 0.852076 0.04 0 0.856166 0.04 0 0.860583 0.04 0 0.86526 0.04 0 0.870105 0.04 0 0.87504 0.04 0 0.880015 0.04 0 0.885005 0.04 0 0.890002 0.04 0 0.895001 0.04 0 0.9 0.04 0 0.905 0.04 0 0.91 0.04 0 0.915 0.04 0 0.92 0.04 0 0.925 0.04 0 0.93 0.04 0 0.935 0.04 0 0.94 0.04 0 0.945 0.04 0 0.95 0.04 0 0.955 0.04 0 0.96 0.04 0 0.965 0.04 0 0.97 0.04 0 0.975 0.04 0 0.98 0.04 0 0.985 0.04 0 0.99 0.04 0 0.995 0.04 0 1 0.04 0 0 0.06 0 0.005 0.06 0 0.01 0.06 0 0.015 0.06 0 0.02 0.06 0 0.025 0.06 0 0.03 0.06 0 0.035 0.06 0 0.04 0.06 0 0.045 0.06 0 0.05 0.06 0 0.055 0.06 0 0.06 0.06 0 0.065 0.06 0 0.07 0.06 0 0.075 0.06 0 0.08 0.06 0 0.085 0.06 0 0.09 0.06 0 0.095 0.06 0 0.1 0.06 0 0.105 0.06 0 0.11 0.06 0 0.115 0.06 0 0.12 0.06 0 0.125 0.06 0 0.13 0.06 0 0.135 0.06 0 0.14 0.06 0 0.145 0.06 0 0.15 0.06 0 0.155 0.06 0 0.16 0.06 0 0.165 0.06 0 0.17 0.06 0 0.175 0.06 0 0.18 0.06 0 0.185 0.06 0 0.19 0.06 0 0.195 0.06 0 0.2 0.06 0 0.205 0.06 0 0.21 0.06 0 0.215 0.06 0 0.22 0.06 0 0.225 0.06 0 0.23 0.06 0 0.235 0.06 0 0.240001 0.06 0 0.245004 0.06 0 0.250011 0.06 0 0.255027 0.06 0 0.260059 0.06 0 0.265119 0.06 0 0.270222 0.06 0 0.275381 0.06 0 0.280612 0.06 0 0.285925 0.06 0 0.291329 0.06 0 0.296832 0.06 0 0.302441 0.06 0 0.308162 0.06 0 0.314001 0.06 0 0.319964 0.06 0 0.326058 0.06 0 0.332291 0.06 0 0.33867 0.06 0 0.345202 0.06 0 0.351898 0.06 0 0.358765 0.06 0 0.365814 0.06 0 0.373057 0.06 0 0.380505 0.06 0 0.388171 0.06 0 0.396071 0.06 0 0.40422 0.06 0 0.412635 0.06 0 0.421337 0.06 0 0.430346 0.06 0 0.439686 0.06 0 0.449382 0.06 0 0.459462 0.06 0 0.469953 0.06 0 0.480881 0.06 0 0.492258 0.06 0 0.50406 0.06 0 0.516158 0.06 0 0.528269 0.06 0 0.540296 0.06 0 0.552234 0.06 0 0.564093 0.06 0 0.575895 0.06 0 0.587661 0.06 0 0.599409 0.06 0 0.611149 0.06 0 0.622884 0.06 0 0.634619 0.06 0 0.646352 0.06 0 0.658087 0.06 0 0.669824 0.06 0 0.681575 0.06 0 0.684188 0.06 0 0.686727 0.06 0 0.689219 0.06 0 0.69168 0.06 0 0.694118 0.06 0 0.69654 0.06 0 0.698948 0.06 0 0.701346 0.
[...]
			<PointData Scalars="VitesseX">
				<DataArray Name="VitesseX" type="Float32" format="ascii">
 0 -1.57881e-15 -6.64622e-17 -4.7796e-16 -1.13586e-15 -2.00977e-15 -2.31557e-15 -1.92804e-15 2.51718e-15 -4.6892e-16 3.31621e-15 8.85177e-15 -2.35344e-15 -1.71298e-15 1.15538e-14 1.5044e-14 1.18378e-14 8.66007e-15 9.82561e-15 6.45983e-15 -7.48398e-16 2.11293e-15 -1.0087e-14 -1.20415e-14 7.97072e-15 8.40801e-15 -4.27188e-15 2.05028e-15 3.62948e-14 -4.86496e-15 6.07624e-14 2.9749e-14 4.46087e-14 1.0729e-13 4.7262e-13 2.91606e-12 1.66376e-11 9.23662e-11 4.87621e-10 2.45372e-09 1.17281e-08 5.31501e-08 2.27848e-07 9.2157e-07 3.50651e-06 1.25089e-05 4.16733e-05 0.000129065 0.000369627 0.000973025 0.00233959 0.00510854 0.0100917 0.0180374 0.0293202 0.0437873 0.0608887 0.0799637 0.100463 0.122022 0.144428 0.16757 0.191392 0.215871 0.241002 0.26679 0.293251 0.320404 0.348275 0.376894 0.406294 0.436512 0.46759 0.499572 0.532506 0.56644 0.601426 0.637511 0.674736 0.713123 0.752654 0.793227 0.834546 0.875863 0.915272 0.947782 0.960781 0.953463 0.946297 0.93938 0.934137 0.930806 0.928983 0.928091 0.927673 0.927464 0.927345 0.927269 0.927219 0.92718 0.92714 0.927136 0.927134 0.927133 0.927133 0.927138 0.927159 0.927184 0.927181 0.927182 0.927182 0.927182 0.927196 0.927238 0.927285 0.927253 0.927232 0.927192 0.927145 0.927092 0.927038 0.926986 0.926938 0.9269 0.926874 0.926859 0.926859 0.926927 0.927072 0.926997 0.92697 0.92691 0.926858 0.926813 0.926788 0.92678 0.926769 0.926737 0.926668 0.926595 0.926515 0.926459 0.926426 0.926434 0.92671 0.927431 0.92724 0.926976 0.926593 0.926151 0.925878 0.925805 0.926026 0.927764 0.927242 0.926604 0.925399 0.924475 0.923752 0.925254 0.923804 0.928442 0.898153 0.902243 0.854375 0.831698 0.757993 0.711611 0.596374 0.49776 0.367555 0.247989 0.145254 0.0730457 0.0318566 0.0126047 0.00474251 0.00174635 0.000637673 0.000232085 8.43488e-05 3.06287e-05 1.11126e-05 4.02788e-06 1.45815e-06 5.27066e-07 1.9016e-07 6.84546e-08 2.45778e-08 8.7975e-09 3.13791e-09 1.11491e-09 3.94348e-10 1.38912e-10 4.85858e-11 1.69873e-11 5.74873e-12 2.13755e-12 5.99036e-13 3.20322e-13 0 0 -7.50017e-16 9.4892e-16 -6.95277e-16 -7.40264e-16 -1.30766e-17 1.98921e-15 -2.88651e-15 -1.50377e-15 3.12095e-15 4.18859e-15 3.78189e-15 3.31131e-15 9.13537e-15 3.06693e-15 4.94681e-15 1.23686e-14 1.47811e-14 7.61777e-15 3.56611e-15 6.74262e-15 -7.64769e-15 3.02698e-16 -5.64545e-15 -5.3544e-15 -2.43138e-16 -5.93376e-15 8.5694e-15 3.5619e-14 2.8883e-14 3.23857e-14 4.6803e-14 4.6749e-14 1.12633e-13 4.87549e-13 2.8949e-12 1.66494e-11 9.23e-11 4.87697e-10 2.45365e-09 1.17281e-08 5.31502e-08 2.27848e-07 9.2157e-07 3.50651e-06 1.25089e-05 4.16733e-05 0.000129065 0.000369627 0.000973025 0.00233959 0.00510854 0.0100917 0.0180374 0.0293202 0.0437873 0.0608887 0.0799637 0.100463 0.122022 0.144428 0.16757 0.191392 0.215871 0.241002 0.26679 0.293251 0.320404 0.348275 0.376894 0.406294 0.436512 0.46759 0.499572 0.532506 0.56644 0.601426 0.637511 0.674736 0.713123 0.752654 0.793227 0.834546 0.875863 0.915272 0.947782 0.960781 0.953463 0.946297 0.93938 0.934137 0.930806 0.928983 0.928091 0.927673 0.927464 0.927345 0.927269 0.927219 0.92718 0.92714 0.927136 0.927134 0.927133 0.927133 0.927138 0.927159 0.927184 0.927181 0.927182 0.927182 0.927182 0.927196 0.927238 0.927285 0.927253 0.927232 0.927192 0.927145 0.927092 0.927038 0.926986 0.926938 0.9269 0.926874 0.926859 0.926859 0.926927 0.927072 0.926997 0.92697 0.92691 0.926858 0.926813 0.926788 0.92678 0.926769 0.926737 0.926668 0.926595 0.926515 0.926459 0.926426 0.926434 0.92671 0.927431 0.92724 0.926976 0.926593 0.926151 0.925878 0.925805 0.926026 0.927764 0.927242 0.926604 0.925399 0.924475 0.923752 0.925254 0.923804 0.928442 0.898153 0.902243 0.854375 0.831698 0.757993 0.711611 0.596374 0.49776 0.367555 0.247989 0.145254 0.0730457 0.0318566 0.0126047 0.00474251 0.00174635 0.000637673 0.000232085 8.43488e-05 3.06287e-05 1.11126e-05 4.02788e-06 1.45815e-06 5.27066e-07 1.9016e-07 6.84546e-08 2.45778e-08 8.79747e-09 3.13797e-09 1.11489e-09 3.94431e-10 1.38804e-10 4.86938e-11 1.68858e-11 5.88374e-12 2.02874e-12 6.74671e-13 1.23256e-13 0 0 -1.12166e-15 -1.58733e-15 -2.22505e-15 2.08794e-15 1.15082e-15 -2.50577e-17 4.44709e-15 3.35022e-15 3.09836e-15 6.30081e-15 6.82636e-16 1.21454e-14 -8.55873e-16 9.1956e-15 3.85053e-15 5.07156e-16 7.41783e-15 1.19196e-14 -2.66166e-15 1.17982e-14 3.57949e-15 -1.4312e-14 -9.75708e-16 -8.40755e-15 -2.1831e-15 6.65819e-15 2.78111e-14 3.96195e-14 4.74674e-14 3.8019e-14 3.97799e-14 4.85857e-14 1.30767e-13 4.86504e-13 2.8955e-12 1.66576e-11 9.21671e-11 4.8774e-10 2.45357e-09 1.17281e-08 5.31501e-08 2.27848e-07 9.2157e-07 3.50651e-06 1.25089e-05 4.16733e-05 0.000129065 0.000369627 0.000973025 0.00233959 0.00510854 0.0100917 0.0180374 0.0293202 0.0437873 0.0608887 0.0799637 0.100463 0.122022 0.144428 0.16757 0.191392 0.215871 0.241002 0.26679 0.293251 0.320404 0.348275 0.376894 0.406294 0.436512 0.46759 0.499572 0.532506 0.56644 0.601426 0.637511 0.674736 0.713123 0.752654 0.793227 0.834546 0.875863 0.915272 0.947782 0.960781 0.953463 0.946297 0.93938 0.934137 0.930806 0.928983 0.928091 0.927673 0.927464 0.927345 0.927269 0.927219 0.92718 0.92714 0.927136 0.927134 0.927133 0.927133 0.927138 0.927159 0.927184 0.927181 0.927182 0.927182 0.927182 0.927196 0.927238 0.927285 0.927253 0.927232 0.927192 0.927145 0.927092 0.927038 0.926986 0.926938 0.9269 0.926874 0.926859 0.926859 0.926927 0.927072 0.926997 0.92697 0.92691 0.926858 0.926813 0.926788 0.92678 0.926769 0.926737 0.926668 0.926595 0.926515 0.926459 0.926426 0.926434 0.92671 0.927431 0.92724 0.926976 0.926593 0.926151 0.925878 0.925805 0.926026 0.927764 0.927242 0.926604 0.925399 0.924475 0.923752 0.925254 0.923804 0.928442 0.898153 0.902243 0.854375 0.831698 0.757993 0.711611 0.596374 0.49776 0.367555 0.247989 0.145254 0.0730457 0.0318566 0.0126047 0.00474251 0.00174635 0.000637673 0.000232085 8.43488e-05 3.06287e-05 1.11126e-05 4.02788e-06 1.45815e-06 5.27065e-07 1.9016e-07 6.84546e-08 2.45778e-08 8.79762e-09 3.13794e-09 1.11489e-09 3.94433e-10 1.38876e-10 4.87112e-11 1.69003e-11 5.95359e-12 2.14178e-12 5.76304e-13 -1.37022e-14 0 0 -1.64944e-15 -5.45116e-15 -3.40187e-15 -3.05429e-16 4.58478e-15 8.60389e-16 7.60159e-16 5.66935e-15 1.42074e-15 8.59578e-15 7.5608e-15 -1.73241e-15 -9.70081e-16 9.29565e-15 6.49365e-15 -1.41838e-15 4.3224e-15 -4.22152e-15 9.95632e-16 1.77939e-14 8.22058e-15 -1.67994e-14 -1.94344e-14 -3.31128e-16 3.30298e-14 1.11088e-14 3.83751e-14 3.04117e-14 3.37049e-14 7.97033e-14 5.95846e-14 3.11834e-14 1.26087e-13 4.83803e-13 2.88314e-12 1.66606e-11 9.21876e-11 4.87618e-10 2.45359e-09 1.17281e-08 5.31501e-08 2.27848e-07 9.2157e-07 3.50651e-06 1.25089e-05 4.16733e-05 0.000129065 0.000369627 0.000973025 0.00233959 0.00510854 0.0100917 0.0180374 0.0293202 0.0437873 0.0608887 0.0799637 0.100463 0.122022 0.144428 0.16757 0.191392 0.215871 0.241002 0.26679 0.293251 0.320404 0.348275 0.376894 0.406294 0.436512 0.46759 0.499572 0.532506 0.56644 0.601426 0.637511 0.674736 0.713123 0.752654 0.793227 0.834546 0.875863 0.915272 0.947782 0.960781 0.953463 0.946297 0.93938 0.934137 0.930806 0.928983 0.928091 0.927673 0.927464 0.927345 0.927269 0.927219 0.92718 0.92714 0.927136 0.927134 0.927133 0.927133 0.927138 0.927159 0.927184 0.927181 0.927182 0.927182 0.927182 0.927196 0.927238 0.927285 0.927253 0.927232 0.927192 0.927145 0.927092 0.927038 0.926986 0.926938 0.9269 0.926874 0.926859 0.926859 0.926927 0.927072 0.926997 0.92697 0.92691 0.926858 0.926813 0.926788 0.92678 0.926769 0.926737 0.926668 0.926595 0.926515 0.926459 0.926426 0.926434 0.92671 0.927431 0.92724 0.926976 0.926593 0.926151 0.925878 0.925805 0.926026 0.927764 0.927242 0.926604 0.925399 0.924475 0.923752 0.925254 0.923804 0.928442 0.898153 0.902243 0.854375 0.831698 0.757993 0.711611 0.596374 0.49776 0.367555 0.247989 0.145254 0.0730457 0.0318566 0.0126047 0.00474251 0.00174635 0.000637673 0.000232085 8.43488e-05 3.06287e-05 1.11126e-05 4.02788e-06 1.45815e-06 5.27066e-07 1.9016e-07 6.84546e-08 2.45778e-08 8.7975e-09 3.13806e-09 1.11495e-09 3.94324e-10 1.38946e-10 4.87752e-11 1.70427e-11 5.85894e-12 2.4405e-12 2.90174e-13 1.17994e-13 0 0 -3.36469e-15 -7.3062e-15 -8.79186e-15 -6.02608e-15 -4.90078e-16 9.71729e-16 -3.9727e-15 3.5208e-15 7.02436e-16 7.18864e-15 8.44306e-15 -8.2559e-15 1.04949e-15 -2.22866e-15 8.39054e-15 4.59911e-15 9.87481e-15 -8.94252e-15 1.63677e-14 1.44073e-14 4.31071e-15 3.09865e-15 -2.46307e-14 6.95316e-16 3.80411e-14 1.65206e-14 2.65849e-14 1.70014e-14 4.252e-14 7.13265e-14 8.89353e-14 5.79035e-14 9.36664e-14 4.99312e-13 2.83708e-12 1.66322e-11 9.22863e-11 4.87584e-10 2.45363e-09 1.1728e-08 5.31501e-08 2.27848e-07 9.2157e-07 3.50651e-06 1.25089e-05 4.16733e-05 0.000129065 0.000369627 0.000973025 0.00233959 0.00510854 0.0100917 0.0180374 0.0293202 0.0437873 0.0608887 0.0799637 0.100463 0.122022 0.144428 0.16757 0.191392 0.215871 0.241002 0.26679 0.293251 0.320404 0.348275 0.376894 0.406294 0.436512 0.46759 0.499572 0.532506 0.56644 0.601426 0.637511 0.674736 0.713123 0.752654 0.793227 0.834546 0.875863 0.915272 0.947782 0.960781 0.953463 0.946297 0.93938 0.934137 0.930806 0.928983 0.928091 0.927673 0.927464 0.927345 0.927269 0.927219 0.92718 0.92714 0.927136 0.927134 0.927133 0.927133 0.927138 0.927159 0.927184 0.927181 0.927182 0.927182 0.927182 0.927196 0.927238 0.927285 0.927253 0.927232 0.927192 0.927145 0.927092 0.927038 0.926986 0.926938 0.9269 0.926874 0.926859 0.926859 0.926927 0.927072 0.926997 0.92697 0.92691 0.926858 0.926813 0.926788 0.92678 0.926769 0.926737 0.926668 0.926595 0.926515 0.926459 0.926426 0.926434 0.92671 0.927431 0.92724 0.926976 0.926593 0.926151 0.925878 0.925805 0.926026 0.927764 0.927242 0.926604 0.925399 0.924475 0.923752 0.925254 0.923804 0.928442 0.898153 0.902243 0.854375 0.831698 0.757993 0.711611 0.596374 0.49776 0.367555 0.247989 0.145254 0.0730457 0.0318566 0.0126047 0.00474251 0.00174635 0.000637673 0.000232085 8.43488e-05 3.06287e-05 1.11126e-05 4.02788e-06 1.45815e-06 5.27066e-07 1.9016e-07 6.84546e-08 2.4578e-08 8.79737e-09 3.13808e-09 1.11508e-09 3.94327e-10 1.38947e-10 4.88223e-11 1.71157e-11 5.84541e-12 2.37699e-12 3.42007e-13 8.85859e-14 0 0 -5.75258e-15 -8.84904e-15 -1.43175e-14 -6.92075e-15 -9.8317e-15 -6.12142e-15 3.27345e-15 7.92807e-15 -1.95071e-15 4.72638e-15 4.41779e-15 2.26773e-15 -1.76563e-14 7.62541e-16 1.66452e-14 1.4998e-16 5.03841e-15 8.98735e-15 2.47485e-14 2.58964e-15 1.67475e-14 4.79826e-16 -1.30946e-14 3.9173e-15 1.45506e-14 3.17356e-14 1.69534e-14 1.74752e-14 4.99339e-14 5.52755e-14 7.44042e-14 1.01722e-13 7.87185e-14 5.01547e-13 2.82514e-12 1.65973e-11 9.22978e-11 4.8764e-10 2.45365e-09 1.17281e-08 5.31501e-08 2.27848e-07 9.2157e-07 3.50651e-06 1.25089e-05 4.16733e-05 0.000129065 0.000369627 0.000973025 0.00233959 0.00510854 0.0100917 0.0180374 0.0293202 0.0437873 0.0608887 0.0799637 0.100463 0.122022 0.144428 0.16757 0.191392 0.215871 0.241002 0.26679 0.293251 0.320404 0.348275 0.376894 0.406294 0.436512 0.46759 0.499572 0.532506 0.56644 0.601426 0.637511 0.674736 0.713123 0.752654 0.793227 0.834546 0.875863 0.915272 0.947782 0.960781 0.953463 0.946297 0.93938 0.934137 0.930806 0.928983 0.928091 0.927673 0.927464 0.927345 0.927269 0.927219 0.92718 0.92714 0.927136 0.927134 0.927133 0.927133 0.927138 0.927159 0.927184 0.927181 0.927182 0.927182 0.927182 0.927196 0.927238 0.927285 0.927253 0.927232 0.927192 0.927145 0.927092 0.927038 0.926986 0.926938 0.9269 0.926874 0.926859 0.926859 0.926927 0.927072 0.926997 0.92697 0.92691 0.926858 0.926813 0.926788 0.92678 0.926769 0.926737 0.926668 0.926595 0.926515 0.926459 0.926426 0.926434 0.92671 0.927431 0.92724 0.926976 0.926593 0.926151 0.925878 0.925805 0.926026 0.927764 0.927242 0.926604 0.925399 0.924475 0.923752 0.925254 0.923804 0.928442 0.898153 0.902243 0.854375 0.831698 0.757993 0.711611 0.596374 0.49776 0.367555 0.247989 0.145254 0.0730457 0.0318566 0.0126047 0.00474251 0.00174635 0.000637673 0.000232085 8.43488e-05 3.06287e-05 1.11126e-05 4.02788e-06 1.45815e-06 5.27066e-07 1.9016e-07 6.84546e-08 2.45781e-08 8.79752e-09 3.13789e-09 1.11517e-09 3.94359e-10 1.3906e-10 4.87152e-11 1.71622e-11 5.86099e-12 2.23654e-12 5.06459e-13 -1.17863e-14 0
				</DataArray>
				<DataArray Name="VitesseY" type="Float32" format="ascii">