<?xml version="1.0"?>
<VTKFile type="PolyData">
	<PolyData>
		<Piece NumberOfPoints="1206" NumberOfPolys="1000">
			<Points>
				<DataArray type="Float32" NumberOfComponents="3" format="ascii">
 0 0 0 0.005 0 0 0.01 0 0 0.015 0 0 0.02 0 0 0.025 0 0 0.03 0 0 0.035 0 0 0.04 0 0 0.045 0 0 0.05 0 0 0.055 0 0 0.06 0 0 0.065 0 0 0.07 0 0 0.075 0 0 0.08 0 0 0.085 0 0 0.09 0 0 0.095 0 0 0.1 0 0 0.105 0 0 0.11 0 0 0.115 0 0 0.12 0 0 0.125 0 0 0.13 0 0 0.135 0 0 0.14 0 0 0.145 0 0 0.15 0 0 0.155 0 0 0.16 0 0 0.165 0 0 0.17 0 0 0.175 0 0 0.18 0 0 0.185 0 0 0.19 0 0 0.195 0 0 0.2 0 0 0.205 0 0 0.21 0 0 0.215 0 0 0.22 0 0 0.225 0 0 0.23 0 0 0.235 0 0 0.24 0 0 0.245 0 0 0.25 0 0 0.255 0 0 0.26 0 0 0.265001 0 0 0.270004 0 0 0.275011 0 0 0.280028 0 0 0.285063 0 0 0.29013 0 0 0.295246 0 0 0.300428 0 0 0.305692 0 0 0.31105 0 0 0.316515 0 0 0.322093 0 0 0.327795 0 0 0.333627 0 0 0.339597 0 0 0.345714 0 0 0.351988 0 0 0.358426 0 0 0.365041 0 0 0.371843 0 0 0.378844 0 0 0.386058 0 0 0.3935 0 0 0.401186 0 0 0.409135 0 0 0.417366 0 0 0.425902 0 0 0.434769 0 0 0.443994 0 0 0.453607 0 0 0.463641 0 0 0.47413 0 0 0.485104 0 0 0.496574 0 0 0.508493 0 0 0.520648 0 0 0.532744 0 0 0.544744 0 0 0.556647 0 0 0.568475 0 0 0.580255 0 0 0.59201 0 0 0.603752 0 0 0.61549 0 0 0.627226 0 0 0.638963 0 0 0.650701 0 0 0.662452 0 0 0.665066 0 0 0.667605 0 0 0.670097 0 0 0.672558 0 0 0.674996 0 0 0.677418 0 0 0.679827 0 0 0.682225 0 0 0.684617 0 0 0.687005 0 0 0.689386 0 0 0.691762 0 0 0.694134 0 0 0.696503 0 0 0.69887 0 0 0.701235 0 0 0.703598 0 0 0.70596 0 0 0.70832 0 0 0.710679 0 0 0.713038 0 0 0.715396 0 0 0.717753 0 0 0.72011 0 0 0.722467 0 0 0.724823 0 0 0.72718 0 0 0.729536 0 0 0.731891 0 0 0.734246 0 0 0.736601 0 0 0.738956 0 0 0.741311 0 0 0.743665 0 0 0.746019 0 0 0.748373 0 0 0.750727 0 0 0.753082 0 0 0.755438 0 0 0.757794 0 0 0.76015 0 0 0.762505 0 0 0.764859 0 0 0.767213 0 0 0.769567 0 0 0.771923 0 0 0.774282 0 0 0.776639 0 0 0.778996 0 0 0.781352 0 0 0.783708 0 0 0.786063 0 0 0.788422 0 0 0.790792 0 0 0.793193 0 0 0.79562 0 0 0.79813 0 0 0.800722 0 0 0.803467 0 0 0.806381 0 0 0.809555 0 0 0.813023 0 0 0.81684 0 0 0.821008 0 0 0.825491 0 0 0.830213 0 0 0.835085 0 0 0.840032 0 0 0.845012 0 0 0.850004 0 0 0.855002 0 0 0.860001 0 0 0.865 0 0 0.87 0 0 0.875 0 0 0.88 0 0 0.885 0 0 0.89 0 0 0.895 0 0 0.9 0 0 0.905 0 0 0.91 0 0 0.915 0 0 0.92 0 0 0.925 0 0 0.93 0 0 0.935 0 0 0.94 0 0 0.945 0 0 0.95 0 0 0.955 0 0 0.96 0 0 0.965 0 0 0.97 0 0 0.975 0 0 0.98 0 0 0.985 0 0 0.99 0 0 0.995 0 0 1 0 0 0 0.02 0 0.005 0.02 0 0.01 0.02 0 0.015 0.02 0 0.02 0.02 0 0.025 0.02 0 0.03 0.02 0 0.035 0.02 0 0.04 0.02 0 0.045 0.02 0 0.05 0.02 0 0.055 0.02 0 0.06 0.02 0 0.065 0.02 0 0.07 0.02 0 0.075 0.02 0 0.08 0.02 0 0.085 0.02 0 0.09 0.02 0 0.095 0.02 0 0.1 0.02 0 0.105 0.02 0 0.11 0.02 0 0.115 0.02 0 0.12 0.02 0 0.125 0.02 0 0.13 0.02 0 0.135 0.02 0 0.14 0.02 0 0.145 0.02 0 0.15 0.02 0 0.155 0.02 0 0.16 0.02 0 0.165 0.02 0 0.17 0.02 0 0.175 0.02 0 0.18 0.02 0 0.185 0.02 0 0.19 0.02 0 0.195 0.02 0 0.2 0.02 0 0.205 0.02 0 0.21 0.02 0 0.215 0.02 0 0.22 0.02 0 0.225 0.02 0 0.23 0.02 0 0.235 0.02 0 0.24 0.02 0 0.245 0.02 0 0.25 0.02 0 0.255 0.02 0 0.26 0.02 0 0.265001 0.02 0 0.270004 0.02 0 0.275011 0.02 0 0.280028 0.02 0 0.285063 0.02 0 0.29013 0.02 0 0.295246 0.02 0 0.300428 0.02 0 0.305692 0.02 0 0.31105 0.02 0 0.316515 0.02 0 0.322093 0.02 0 0.327795 0.02 0 0.333627 0.02 0 0.339597 0.02 0 0.345714 0.02 0 0.351988 0.02 0 0.358426 0.02 0 0.365041 0.02 0 0.371843 0.02 0 0.378844 0.02 0 0.386058 0.02 0 0.3935 0.02 0 0.401186 0.02 0 0.409135 0.02 0 0.417366 0.02 0 0.425902 0.02 0 0.434769 0.02 0 0.443994 0.02 0 0.453607 0.02 0 0.463641 0.02 0 0.47413 0.02 0 0.485104 0.02 0 0.496574 0.02 0 0.508493 0.02 0 0.520648 0.02 0 0.532744 0.02 0 0.544744 0.02 0 0.556647 0.02 0 0.568475 0.02 0 0.580255 0.02 0 0.59201 0.02 0 0.603752 0.02 0 0.61549 0.02 0 0.627226 0.02 0 0.638963 0.02 0 0.650701 0.02 0 0.662452 0.02 0 0.665066 0.02 0 0.667605 0.02 0 0.670097 0.02 0 0.672558 0.02 0 0.674996 0.02 0 0.677418 0.02 0 0.679827 0.02 0 0.682225 0.02 0 0.684617 0.02 0 0.687005 0.02 0 0.689386 0.02 0 0.691762 0.02 0 0.694134 0.02 0 0.696503 0.02 0 0.69887 0.02 0 0.701235 0.02 0 0.703598 0.02 0 0.70596 0.02 0 0.70832 0.02 0 0.710679 0.02 0 0.713038 0.02 0 0.715396 0.02 0 0.717753 0.02 0 0.72011 0.02 0 0.722467 0.02 0 0.724823 0.02 0 0.72718 0.02 0 0.729536 0.02 0 0.731891 0.02 0 0.734246 0.02 0 0.736601 0.02 0 0.738956 0.02 0 0.741311 0.02 0 0.743665 0.02 0 0.746019 0.02 0 0.748373 0.02 0 0.750727 0.02 0 0.753082 0.02 0 0.755438 0.02 0 0.757794 0.02 0 0.76015 0.02 0 0.762505 0.02 0 0.764859 0.02 0 0.767213 0.02 0 0.769567 0.02 0 0.771923 0.02 0 0.774282 0.02 0 0.776639 0.02 0 0.778996 0.02 0 0.781352 0.02 0 0.783708 0.02 0 0.786063 0.02 0 0.788422 0.02 0 0.790792 0.02 0 0.793193 0.02 0 0.79562 0.02 0 0.79813 0.02 0 0.800722 0.02 0 0.803467 0.02 0 0.806381 0.02 0 0.809555 0.02 0 0.813023 0.02 0 0.81684 0.02 0 0.821008 0.02 0 0.825491 0.02 0 0.830213 0.02 0 0.835085 0.02 0 0.840032 0.02 0 0.845012 0.02 0 0.850004 0.02 0 0.855002 0.02 0 0.860001 0.02 0 0.865 0.02 0 0.87 0.02 0 0.875 0.02 0 0.88 0.02 0 0.885 0.02 0 0.89 0.02 0 0.895 0.02 0 0.9 0.02 0 0.905 0.02 0 0.91 0.02 0 0.915 0.02 0 0.92 0.02 0 0.925 0.02 0 0.93 0.02 0 0.935 0.02 0 0.94 0.02 0 0.945 0.02 0 0.95 0.02 0 0.955 0.02 0 0.96 0.02 0 0.965 0.02 0 0.97 0.02 0 0.975 0.02 0 0.98 0.02 0 0.985 0.02 0 0.99 0.02 0 0.995 0.02 0 1 0.02 0 0 0.04 0 0.005 0.04 0 0.01 0.04 0 0.015 0.04 0 0.02 0.04 0 0.025 0.04 0 0.03 0.04 0 0.035 0.04 0 0.04 0.04 0 0.045 0.04 0 0.05 0.04 0 0.055 0.04 0 0.06 0.04 0 0.065 0.04 0 0.07 0.04 0 0.075 0.04 0 0.08 0.04 0 0.085 0.04 0 0.09 0.04 0 0.095 0.04 0 0.1 0.04 0 0.105 0.04 0 0.11 0.04 0 0.115 0.04 0 0.12 0.04 0 0.125 0.04 0 0.13 0.04 0 0.135 0.04 0 0.14 0.04 0 0.145 0.04 0 0.15 0.04 0 0.155 0.04 0 0.16 0.04 0 0.165 0.04 0 0.17 0.04 0 0.175 0.04 0 0.18 0.04 0 0.185 0.04 0 0.19 0.04 0 0.195 0.04 0 0.2 0.04 0 0.205 0.04 0 0.21 0.04 0 0.215 0.04 0 0.22 0.04 0 0.225 0.04 0 0.23 0.04 0 0.235 0.04 0 0.24 0.04 0 0.245 0.04 0 0.25 0.04 0 0.255 0.04 0 0.26 0.04 0 0.265001 0.04 0 0.270004 0.04 0 0.275011 0.04 0 0.280028 0.04 0 0.285063 0.04 0 0.29013 0.04 0 0.295246 0.04 0 0.300428 0.04 0 0.305692 0.04 0 0.31105 0.04 0 0.316515 0.04 0 0.322093 0.04 0 0.327795 0.04 0 0.333627 0.04 0 0.339597 0.04 0 0.345714 0.04 0 0.351988 0.04 0 0.358426 0.04 0 0.365041 0.04 0 0.371843 0.04 0 0.378844 0.04 0 0.386058 0.04 0 0.3935 0.04 0 0.401186 0.04 0 0.409135 0.04 0 0.417366 0.04 0 0.425902 0.04 0 0.434769 0.04 0 0.443994 0.04 0 0.453607 0.04 0 0.463641 0.04 0 0.47413 0.04 0 0.485104 0.04 0 0.496574 0.04 0 0.508493 0.04 0 0.520648 0.04 0 0.532744 0.04 0 0.544744 0.04 0 0.556647 0.04 0 0.568475 0.04 0 0.580255 0.04 0 0.59201 0.04 0 0.603752 0.04 0 0.61549 0.04 0 0.627226 0.04 0 0.638963 0.04 0 0.650701 0.04 0 0.662452 0.04 0 0.665066 0.04 0 0.667605 0.04 0 0.670097 0.04 0 0.672558 0.04 0 0.674996 0.04 0 0.677418 0.04 0 0.679827 0.04 0 0.682225 0.04 0 0.684617 0.04 0 0.687005 0.04 0 0.689386 0.04 0 0.691762 0.04 0 0.694134 0.04 0 0.696503 0.04 0 0.69887 0.04 0 0.701235 0.04 0 0.703598 0.04 0 0.70596 0.04 0 0.70832 0.04 0 0.710679 0.04 0 0.713038 0.04 0 0.715396 0.04 0 0.717753 0.04 0 0.72011 0.04 0 0.722467 0.04 0 0.724823 0.04 0 0.72718 0.04 0 0.729536 0.04 0 0.731891 0.04 0 0.734246 0.04 0 0.736601 0.04 0 0.738956 0.04 0 0.741311 0.04 0 0.743665 0.04 0 0.746019 0.04 0 0.748373 0.04 0 0.750727 0.04 0 0.753082 0.04 0 0.755438 0.04 0 0.757794 0.04 0 0.76015 0.04 0 0.762505 0.04 0 0.764859 0.04 0 0.767213 0.04 0 0.769567 0.04 0 0.771923 0.04 0 0.774282 0.04 0 0.776639 0.04 0 0.778996 0.04 0 0.781352 0.04 0 0.783708 0.04 0 0.786063 0.04 0 0.788422 0.04 0 0.790792 0.04 0 0.793193 0.04 0 0.79562 0.04 0 0.79813 0.04 0 0.800722 0.04 0 0.803467 0.04 0 0.806381 0.04 0 0.809555 0.04 0 0.813023 0.04 0 0.81684 0.04 0 0.821008 0.04 0 0.825491 0.04 0 0.830213 0.04 0 0.835085 0.04 0 0.840032 0.04 0 0.845012 0.04 0 0.850004 0.04 0 0.855002 0.04 0 0.860001 0.04 0 0.865 0.04 0 0.87 0.04 0 0.875 0.04 0 0.88 0.04 0 0.885 0.04 0 0.89 0.04 0 0.895 0.04 0 0.9 0.04 0 0.905 0.04 0 0.91 0.04 0 0.915 0.04 0 0.92 0.04 0 0.925 0.04 0 0.93 0.04 0 0.935 0.04 0 0.94 0.04 0 0.945 0.04 0 0.95 0.04 0 0.955 0.04 0 0.96 0.04 0 0.965 0.04 0 0.97 0.04 0 0.975 0.04 0 0.98 0.04 0 0.985 0.04 0 0.99 0.04 0 0.995 0.04 0 1 0.04 0 0 0.06 0 0.005 0.06 0 0.01 0.06 0 0.015 0.06 0 0.02 0.06 0 0.025 0.06 0 0.03 0.06 0 0.035 0.06 0 0.04 0.06 0 0.045 0.06 0 0.05 0.06 0 0.055 0.06 0 0.06 0.06 0 0.065 0.06 0 0.07 0.06 0 0.075 0.06 0 0.08 0.06 0 0.085 0.06 0 0.09 0.06 0 0.095 0.06 0 0.1 0.06 0 0.105 0.06 0 0.11 0.06 0 0.115 0.06 0 0.12 0.06 0 0.125 0.06 0 0.13 0.06 0 0.135 0.06 0 0.14 0.06 0 0.145 0.06 0 0.15 0.06 0 0.155 0.06 0 0.16 0.06 0 0.165 0.06 0 0.17 0.06 0 0.175 0.06 0 0.18 0.06 0 0.185 0.06 0 0.19 0.06 0 0.195 0.06 0 0.2 0.06 0 0.205 0.06 0 0.21 0.06 0 0.215 0.06 0 0.22 0.06 0 0.225 0.06 0 0.23 0.06 0 0.235 0.06 0 0.24 0.06 0 0.245 0.06 0 0.25 0.06 0 0.255 0.06 0 0.26 0.06 0 0.265001 0.06 0 0.270004 0.06 0 0.275011 0.06 0 0.280028 0.06 0 0.285063 0.06 0 0.29013 0.06 0 0.295246 0.06 0 0.300428 0.06 0 0.305692 0.06 0 0.31105 0.06 0 0.316515 0.06 0 0.322093 0.06 0 0.327795 0.06 0 0.333627 0.06 0 0.339597 0.06 0 0.345714 0.06 0 0.351988 0.06 0 0.358426 0.06 0 0.365041 0.06 0 0.371843 0.06 0 0.378844 0.06 0 0.386058 0.06 0 0.3935 0.06 0 0.401186 0.06 0 0.409135 0.06 0 0.417366 0.06 0 0.425902 0.06 0 0.434769 0.06 0 0.443994 0.06 0 0.453607 0.06 0 0.463641 0.06 0 0.47413 0.06 0 0.485104 0.06 0 0.496574 0.06 0 0.508493 0.06 0 0.520648 0.06 0 0.532744 0.06 0 0.544744 0.06 0 0.556647 0.06 0 0.568475 0.06 0 0.580255 0.06 0 0.59201 0.06 0 0.603752 0.06 0 0.61549 0.06 0 0.627226 0.06 0 0.638963 0.06 0 0.650701 0.06 0 0.662452 0.06 0 0.665066 0.06 0 0.667605 0.06 0 0.670097 0.06 0 0.672558 0.06 0 0.674996 0.06 0 0.677418 0.06 0 0.679827 0.06 0 0.682225 0.06 0 0.684617 0.06 0 0.687005 0.06 0 0.689386 0.06 0 0.691762 0.06 0 0.694134 0.06 0 0.696503 0.06 0 0.69887 0.06 0 0.701235 0.06 0 0.703598 0.06 
[...]
			<PointData Scalars="VitesseX">
				<DataArray Name="VitesseX" type="Float32" format="ascii">
 0 -1.8426e-15 1.19542e-15 -2.26691e-15 -3.26386e-15 -2.48065e-15 -7.33619e-16 -4.8089e-15 2.19208e-16 -1.14629e-15 -1.82526e-15 2.29974e-15 1.16707e-15 1.05283e-14 -6.93985e-15 -2.24384e-15 1.21588e-14 3.23649e-15 9.20423e-15 8.49274e-15 -6.16348e-16 7.95036e-15 1.16262e-14 -3.81217e-15 -8.40962e-16 -2.21426e-15 -1.61922e-14 1.06193e-14 -8.25517e-15 -3.54965e-15 1.99931e-14 -9.57258e-15 2.90766e-14 -6.57723e-15 4.22638e-14 7.11305e-15 2.90489e-14 5.85374e-14 3.7072e-14 1.90452e-13 1.09969e-12 6.7995e-12 4.11492e-11 2.36546e-10 1.29325e-09 6.69747e-09 3.27894e-08 1.51386e-07 6.57304e-07 2.67548e-06 1.01722e-05 3.59724e-05 0.000117738 0.0003546 0.000976258 0.00243963 0.0054977 0.0111246 0.0202168 0.0331972 0.049836 0.0694448 0.0912454 0.114627 0.139204 0.164768 0.191214 0.218497 0.246606 0.275547 0.305341 0.336015 0.367608 0.400161 0.433725 0.468355 0.504109 0.541053 0.579251 0.618769 0.659665 0.701973 0.745679 0.790651 0.83649 0.88212 0.924668 0.956325 0.960285 0.951563 0.943305 0.936563 0.932039 0.929531 0.928322 0.927773 0.927509 0.927356 0.927248 0.927177 0.927147 0.927131 0.927115 0.9271 0.927088 0.927077 0.927068 0.92706 0.927052 0.927042 0.927031 0.927019 0.927007 0.926998 0.926992 0.926991 0.927007 0.927063 0.927037 0.927025 0.927001 0.926984 0.926974 0.926982 0.927101 0.927266 0.927169 0.927126 0.927058 0.926969 0.926872 0.926764 0.926646 0.926524 0.92641 0.926325 0.926282 0.926302 0.926801 0.927313 0.92696 0.926363 0.925902 0.925446 0.925221 0.925294 0.926912 0.926357 0.925637 0.92499 0.924363 0.926246 0.923723 0.922294 0.915402 0.907974 0.879667 0.870993 0.800458 0.773595 0.668013 0.588199 0.462095 0.341501 0.222233 0.126075 0.0612282 0.0260306 0.0101567 0.00379824 0.00139504 0.000508641 0.000184855 6.70557e-05 2.42853e-05 8.77993e-06 3.16763e-06 1.13997e-06 4.09039e-07 1.46262e-07 5.20916e-08 1.84688e-08 6.51497e-09 2.2853e-09 7.9663e-10 2.75907e-10 9.49544e-11 3.23751e-11 1.09754e-11 3.68965e-12 1.29822e-12 3.82039e-13 1.66969e-13 5.87856e-14 9.91409e-14 3.5711e-14 1.3335e-13 -6.24677e-14 3.68736e-14 1.96183e-14 0 0 -8.06566e-16 -1.70623e-15 -3.0904e-16 -1.63507e-15 -1.97126e-15 -8.07524e-16 -1.22917e-15 -6.07008e-15 -8.6224e-16 -3.5895e-16 3.73636e-16 5.98602e-15 1.13113e-15 -4.93254e-16 9.3352e-15 3.93187e-15 2.99884e-16 1.0113e-14 1.20499e-14 1.75164e-15 7.69073e-15 -2.6741e-15 7.4902e-15 1.89676e-15 -7.07769e-15 1.32456e-15 1.43122e-16 3.75113e-15 -3.70695e-15 1.0823e-14 8.92238e-15 -7.44509e-15 2.01534e-14 2.37302e-14 3.28511e-14 2.98351e-14 4.62276e-14 7.63763e-14 1.68922e-13 1.114e-12 6.7963e-12 4.10864e-11 2.36566e-10 1.29331e-09 6.69741e-09 3.27894e-08 1.51386e-07 6.57304e-07 2.67548e-06 1.01722e-05 3.59724e-05 0.000117738 0.0003546 0.000976258 0.00243963 0.0054977 0.0111246 0.0202168 0.0331972 0.049836 0.0694448 0.0912454 0.114627 0.139204 0.164768 0.191214 0.218497 0.246606 0.275547 0.305341 0.336015 0.367608 0.400161 0.433725 0.468355 0.504109 0.541053 0.579251 0.618769 0.659665 0.701973 0.745679 0.790651 0.83649 0.88212 0.924668 0.956325 0.960285 0.951563 0.943305 0.936563 0.932039 0.929531 0.928322 0.927773 0.927509 0.927356 0.927248 0.927177 0.927147 0.927131 0.927115 0.9271 0.927088 0.927077 0.927068 0.92706 0.927052 0.927042 0.927031 0.927019 0.927007 0.926998 0.926992 0.926991 0.927007 0.927063 0.927037 0.927025 0.927001 0.926984 0.926974 0.926982 0.927101 0.927266 0.927169 0.927126 0.927058 0.926969 0.926872 0.926764 0.926646 0.926524 0.92641 0.926325 0.926282 0.926302 0.926801 0.927313 0.92696 0.926363 0.925902 0.925446 0.925221 0.925294 0.926912 0.926357 0.925637 0.92499 0.924363 0.926246 0.923723 0.922294 0.915402 0.907974 0.879667 0.870993 0.800458 0.773595 0.668013 0.588199 0.462095 0.341501 0.222233 0.126075 0.0612282 0.0260306 0.0101567 0.00379824 0.00139504 0.000508641 0.000184855 6.70557e-05 2.42853e-05 8.77993e-06 3.16763e-06 1.13997e-06 4.09039e-07 1.46262e-07 5.20916e-08 1.84688e-08 6.51496e-09 2.28526e-09 7.96774e-10 2.75891e-10 9.49537e-11 3.23572e-11 1.09742e-11 3.7143e-12 1.20053e-12 4.5195e-13 4.99747e-14 1.26947e-13 6.14077e-14 6.59371e-14 -2.40232e-14 3.08321e-14 1.9596e-15 8.4869e-14 0 0 2.01389e-15 2.86529e-16 8.35061e-16 -3.16602e-15 -1.1373e-15 -2.89673e-15 -3.94243e-15 4.96083e-15 -4.97151e-15 3.71219e-15 1.59598e-15 6.97674e-15 5.38501e-15 -1.68967e-15 1.09505e-14 5.44854e-16 1.45269e-14 -9.32179e-15 1.14995e-14 2.89215e-15 3.76574e-15 -2.54289e-15 1.26877e-14 3.56925e-15 5.78355e-16 -1.45597e-14 1.15339e-14 -2.05814e-14 2.27637e-14 -5.04581e-15 2.62853e-14 1.42455e-15 1.997e-14 3.39749e-14 4.18734e-14 2.86695e-14 5.0326e-14 1.34053e-13 1.94011e-13 1.05285e-12 6.81021e-12 4.10208e-11 2.36616e-10 1.29323e-09 6.69744e-09 3.27894e-08 1.51386e-07 6.57304e-07 2.67548e-06 1.01722e-05 3.59724e-05 0.000117738 0.0003546 0.000976258 0.00243963 0.0054977 0.0111246 0.0202168 0.0331972 0.049836 0.0694448 0.0912454 0.114627 0.139204 0.164768 0.191214 0.218497 0.246606 0.275547 0.305341 0.336015 0.367608 0.400161 0.433725 0.468355 0.504109 0.541053 0.579251 0.618769 0.659665 0.701973 0.745679 0.790651 0.83649 0.88212 0.924668 0.956325 0.960285 0.951563 0.943305 0.936563 0.932039 0.929531 0.928322 0.927773 0.927509 0.927356 0.927248 0.927177 0.927147 0.927131 0.927115 0.9271 0.927088 0.927077 0.927068 0.92706 0.927052 0.927042 0.927031 0.927019 0.927007 0.926998 0.926992 0.926991 0.927007 0.927063 0.927037 0.927025 0.927001 0.926984 0.926974 0.926982 0.927101 0.927266 0.927169 0.927126 0.927058 0.926969 0.926872 0.926764 0.926646 0.926524 0.92641 0.926325 0.926282 0.926302 0.926801 0.927313 0.92696 0.926363 0.925902 0.925446 0.925221 0.925294 0.926912 0.926357 0.925637 0.92499 0.924363 0.926246 0.923723 0.922294 0.915402 0.907974 0.879667 0.870993 0.800458 0.773595 0.668013 0.588199 0.462095 0.341501 0.222233 0.126075 0.0612282 0.0260306 0.0101567 0.00379824 0.00139504 0.000508641 0.000184855 6.70557e-05 2.42853e-05 8.77993e-06 3.16763e-06 1.13997e-06 4.09039e-07 1.46262e-07 5.20917e-08 1.84688e-08 6.51499e-09 2.28532e-09 7.96799e-10 2.75887e-10 9.49948e-11 3.24003e-11 1.09813e-11 3.6557e-12 1.24234e-12 4.69961e-13 3.30317e-14 4.55429e-14 9.06331e-14 -1.74879e-14 -1.68769e-13 1.26956e-14 1.37416e-13 5.73519e-14 0 0 3.06821e-15 3.77649e-15 2.71809e-15 7.40449e-16 7.71969e-16 -4.44117e-15 -6.43409e-16 4.30461e-15 -1.10318e-15 1.36501e-15 5.53679e-15 1.7797e-15 1.21448e-14 2.23318e-15 2.60451e-15 -2.46171e-15 2.03957e-14 -6.66177e-15 1.25878e-15 8.37089e-15 -1.67612e-14 1.69562e-14 5.23643e-15 4.13136e-15 -1.0893e-14 -1.50153e-14 7.30793e-15 -2.26457e-14 3.03755e-14 1.44815e-14 2.99587e-14 -1.23637e-14 4.37412e-14 3.68487e-14 3.2289e-14 4.78706e-14 5.90724e-14 1.00271e-13 2.73476e-13 1.04799e-12 6.78327e-12 4.10358e-11 2.3652e-10 1.29317e-09 6.69747e-09 3.27893e-08 1.51386e-07 6.57304e-07 2.67548e-06 1.01722e-05 3.59724e-05 0.000117738 0.0003546 0.000976258 0.00243963 0.0054977 0.0111246 0.0202168 0.0331972 0.049836 0.0694448 0.0912454 0.114627 0.139204 0.164768 0.191214 0.218497 0.246606 0.275547 0.305341 0.336015 0.367608 0.400161 0.433725 0.468355 0.504109 0.541053 0.579251 0.618769 0.659665 0.701973 0.745679 0.790651 0.83649 0.88212 0.924668 0.956325 0.960285 0.951563 0.943305 0.936563 0.932039 0.929531 0.928322 0.927773 0.927509 0.927356 0.927248 0.927177 0.927147 0.927131 0.927115 0.9271 0.927088 0.927077 0.927068 0.92706 0.927052 0.927042 0.927031 0.927019 0.927007 0.926998 0.926992 0.926991 0.927007 0.927063 0.927037 0.927025 0.927001 0.926984 0.926974 0.926982 0.927101 0.927266 0.927169 0.927126 0.927058 0.926969 0.926872 0.926764 0.926646 0.926524 0.92641 0.926325 0.926282 0.926302 0.926801 0.927313 0.92696 0.926363 0.925902 0.925446 0.925221 0.925294 0.926912 0.926357 0.925637 0.92499 0.924363 0.926246 0.923723 0.922294 0.915402 0.907974 0.879667 0.870993 0.800458 0.773595 0.668013 0.588199 0.462095 0.341501 0.222233 0.126075 0.0612282 0.0260306 0.0101567 0.00379824 0.00139504 0.000508641 0.000184855 6.70557e-05 2.42853e-05 8.77993e-06 3.16763e-06 1.13997e-06 4.09039e-07 1.46262e-07 5.20918e-08 1.84688e-08 6.51493e-09 2.28529e-09 7.96704e-10 2.75971e-10 9.51031e-11 3.24451e-11 1.09574e-11 3.78796e-12 1.28202e-12 4.15601e-13 9.04345e-14 3.4801e-14 1.21786e-13 -1.52682e-14 -1.49136e-13 -1.09808e-13 1.34472e-13 -7.5472e-14 0 0 5.43015e-15 6.19627e-15 1.0021e-14 8.71946e-15 1.48805e-15 1.33824e-15 -1.13163e-16 -5.85679e-15 -1.26692e-16 -1.51052e-15 3.53658e-15 -1.58829e-15 4.26842e-15 1.15758e-14 3.54181e-15 -1.25378e-14 3.34811e-15 3.68349e-15 -2.0574e-15 9.12585e-15 -1.78277e-14 3.43949e-14 -5.31716e-15 -4.83152e-15 -7.11224e-15 2.61217e-14 -2.0335e-14 9.12325e-15 1.42216e-14 3.95954e-14 1.69938e-14 -2.91578e-14 5.50558e-14 4.00262e-14 3.23091e-14 8.31584e-14 5.08222e-14 5.07357e-14 1.96771e-13 1.13734e-12 6.73933e-12 4.10543e-11 2.36502e-10 1.29322e-09 6.69738e-09 3.27893e-08 1.51386e-07 6.57304e-07 2.67548e-06 1.01722e-05 3.59724e-05 0.000117738 0.0003546 0.000976258 0.00243963 0.0054977 0.0111246 0.0202168 0.0331972 0.049836 0.0694448 0.0912454 0.114627 0.139204 0.164768 0.191214 0.218497 0.246606 0.275547 0.305341 0.336015 0.367608 0.400161 0.433725 0.468355 0.504109 0.541053 0.579251 0.618769 0.659665 0.701973 0.745679 0.790651 0.83649 0.88212 0.924668 0.956325 0.960285 0.951563 0.943305 0.936563 0.932039 0.929531 0.928322 0.927773 0.927509 0.927356 0.927248 0.927177 0.927147 0.927131 0.927115 0.9271 0.927088 0.927077 0.927068 0.92706 0.927052 0.927042 0.927031 0.927019 0.927007 0.926998 0.926992 0.926991 0.927007 0.927063 0.927037 0.927025 0.927001 0.926984 0.926974 0.926982 0.927101 0.927266 0.927169 0.927126 0.927058 0.926969 0.926872 0.926764 0.926646 0.926524 0.92641 0.926325 0.926282 0.926302 0.926801 0.927313 0.92696 0.926363 0.925902 0.925446 0.925221 0.925294 0.926912 0.926357 0.925637 0.92499 0.924363 0.926246 0.923723 0.922294 0.915402 0.907974 0.879667 0.870993 0.800458 0.773595 0.668013 0.588199 0.462095 0.341501 0.222233 0.126075 0.0612282 0.0260306 0.0101567 0.00379824 0.00139504 0.000508641 0.000184855 6.70557e-05 2.42853e-05 8.77993e-06 3.16763e-06 1.13997e-06 4.09039e-07 1.46262e-07 5.20919e-08 1.84688e-08 6.51496e-09 2.28524e-09 7.96795e-10 2.75989e-10 9.51239e-11 3.25516e-11 1.10421e-11 3.9142e-12 1.21466e-12 3.29423e-13 7.96518e-14 6.02516e-14 6.4693e-14 1.59217e-13 -6.47144e-14 -2.31607e-14 -2.61381e-14 -2.04474e-13 0 0 8.52219e-15 1.00205e-14 1.4627e-14 9.63228e-15 6.19436e-16 6.64678e-15 -9.17493e-15 1.95824e-15 -7.41185e-15 5.65957e-16 7.44e-16 -3.58748e-15 3.28325e-15 9.35266e-15 2.86145e-15 -1.47674e-14 -2.40469e-15 -8.97484e-15 7.59504e-16 3.17459e-15 -2.03263e-15 4.67661e-14 -1.45244e-14 -1.54218e-14 2.06593e-14 3.43134e-14 -2.18849e-14 6.61775e-15 1.70838e-14 3.84832e-14 -7.7671e-16 1.32277e-14 1.56852e-14 6.91081e-14 2.51979e-14 9.72933e-14 5.02338e-14 5.33564e-14 8.72192e-14 1.15609e-12 6.73943e-12 4.10549e-11 2.3661e-10 1.2932e-09 6.69736e-09 3.27894e-08 1.51386e-07 6.57304e-07 2.67548e-06 1.01722e-05 3.59724e-05 0.000117738 0.0003546 0.000976258 0.00243963 0.0054977 0.0111246 0.0202168 0.0331972 0.049836 0.0694448 0.0912454 0.114627 0.139204 0.164768 0.191214 0.218497 0.246606 0.275547 0.305341 0.336015 0.367608 0.400161 0.433725 0.468355 0.504109 0.541053 0.579251 0.618769 0.659665 0.701973 0.745679 0.790651 0.83649 0.88212 0.924668 0.956325 0.960285 0.951563 0.943305 0.936563 0.932039 0.929531 0.928322 0.927773 0.927509 0.927356 0.927248 0.927177 0.927147 0.927131 0.927115 0.9271 0.927088 0.927077 0.927068 0.92706 0.927052 0.927042 0.927031 0.927019 0.927007 0.926998 0.926992 0.926991 0.927007 0.927063 0.927037 0.927025 0.927001 0.926984 0.926974 0.926982 0.927101 0.927266 0.927169 0.927126 0.927058 0.926969 0.926872 0.926764 0.926646 0.926524 0.92641 0.926325 0.926282 0.926302 0.926801 0.927313 0.92696 0.926363 0.925902 0.925446 0.925221 0.925294 0.926912 0.926357 0.925637 0.92499 0.924363 0.926246 0.923723 0.922294 0.915402 0.907974 0.879667 0.870993 0.800458 0.773595 0.668013 0.588199 0.462095 0.341501 0.222233 0.126075 0.0612282 0.0260306 0.0101567 0.00379824 0.00139504 0.000508641 0.000184855 6.70557e-05 2.42853e-05 8.77993e-06 3.16763e-06 1.13997e-06 4.09039e-07 1.46262e-07 5.20919e-08 1.84688e-08 6.51509e-09 2.28533e-09 7.96862e-10 2.75935e-10 9.50775e-11 3.2674e-11 1.11586e-11 3.82445e-12 1.24688e-12 2.4573e-13 1.11595e-13 -5.29052e-14 4.37759e-14 2.17719e-13 1.21414e-14 7.4406e-14 -1.3094e-14 -2.93228e-13 0
				</DataArray>
				<DataArray Name="VitesseY" type="Float32" format="ascii">