<?xml version="1.0"?>
<VTKFile type="PolyData">
	<PolyData>
		<Piece NumberOfPoints="1206" NumberOfPolys="1000">
			<Points>
				<DataArray type="Float32" NumberOfComponents="3" format="ascii">
 0 0 0 0.005 0 0 0.01 0 0 0.015 0 0 0.02 0 0 0.025 0 0 0.03 0 0 0.035 0 0 0.04 0 0 0.045 0 0 0.05 0 0 0.055 0 0 0.06 0 0 0.065 0 0 0.07 0 0 0.075 0 0 0.08 0 0 0.085 0 0 0.09 0 0 0.095 0 0 0.1 0 0 0.105 0 0 0.11 0 0 0.115 0 0 0.12 0 0 0.125 0 0 0.13 0 0 0.135 0 0 0.14 0 0 0.145 0 0 0.15 0 0 0.155 0 0 0.16 0 0 0.165 0 0 0.17 0 0 0.175 0 0 0.18 0 0 0.185 0 0 0.19 0 0 0.195 0 0 0.2 0 0 0.205 0 0 0.21 0 0 0.215 0 0 0.22 0 0 0.225 0 0 0.23 0 0 0.235 0 0 0.24 0 0 0.245 0 0 0.25 0 0 0.255 0 0 0.26 0 0 0.265 0 0 0.27 0 0 0.275 0 0 0.28 0 0 0.285 0 0 0.29 0 0 0.295 0 0 0.3 0 0 0.305 0 0 0.31 0 0 0.315 0 0 0.32 0 0 0.325 0 0 0.33 0 0 0.335 0 0 0.34 0 0 0.345 0 0 0.35 0 0 0.355 0 0 0.36 0 0 0.365001 0 0 0.370003 0 0 0.375009 0 0 0.38003 0 0 0.385082 0 0 0.390199 0 0 0.395421 0 0 0.400791 0 0 0.406348 0 0 0.412126 0 0 0.418155 0 0 0.424466 0 0 0.431096 0 0 0.438084 0 0 0.445476 0 0 0.453328 0 0 0.461707 0 0 0.470692 0 0 0.480374 0 0 0.490855 0 0 0.502205 0 0 0.514319 0 0 0.526602 0 0 0.538683 0 0 0.550595 0 0 0.562406 0 0 0.574178 0 0 0.585949 0 0 0.588566 0 0 0.591107 0 0 0.593602 0 0 0.596066 0 0 0.598507 0 0 0.600931 0 0 0.603342 0 0 0.605743 0 0 0.608137 0 0 0.610528 0 0 0.612912 0 0 0.615291 0 0 0.617666 0 0 0.620039 0 0 0.622411 0 0 0.624781 0 0 0.627149 0 0 0.629515 0 0 0.631878 0 0 0.63424 0 0 0.636602 0 0 0.638966 0 0 0.641331 0 0 0.6437 0 0 0.646076 0 0 0.648469 0 0 0.650899 0 0 0.653387 0 0 0.655984 0 0 0.658697 0 0 0.6616 0 0 0.664729 0 0 0.668165 0 0 0.671939 0 0 0.67607 0 0 0.680523 0 0 0.685227 0 0 0.690089 0 0 0.695033 0 0 0.700012 0 0 0.705004 0 0 0.710001 0 0 0.715 0 0 0.72 0 0 0.725 0 0 0.73 0 0 0.735 0 0 0.74 0 0 0.745 0 0 0.75 0 0 0.755 0 0 0.76 0 0 0.765 0 0 0.77 0 0 0.775 0 0 0.78 0 0 0.785 0 0 0.79 0 0 0.795 0 0 0.8 0 0 0.805 0 0 0.81 0 0 0.815 0 0 0.82 0 0 0.825 0 0 0.83 0 0 0.835 0 0 0.84 0 0 0.845 0 0 0.85 0 0 0.855 0 0 0.86 0 0 0.865 0 0 0.87 0 0 0.875 0 0 0.88 0 0 0.885 0 0 0.89 0 0 0.895 0 0 0.9 0 0 0.905 0 0 0.91 0 0 0.915 0 0 0.92 0 0 0.925 0 0 0.93 0 0 0.935 0 0 0.94 0 0 0.945 0 0 0.95 0 0 0.955 0 0 0.96 0 0 0.965 0 0 0.97 0 0 0.975 0 0 0.98 0 0 0.985 0 0 0.99 0 0 0.995 0 0 1 0 0 0 0.02 0 0.005 0.02 0 0.01 0.02 0 0.015 0.02 0 0.02 0.02 0 0.025 0.02 0 0.03 0.02 0 0.035 0.02 0 0.04 0.02 0 0.045 0.02 0 0.05 0.02 0 0.055 0.02 0 0.06 0.02 0 0.065 0.02 0 0.07 0.02 0 0.075 0.02 0 0.08 0.02 0 0.085 0.02 0 0.09 0.02 0 0.095 0.02 0 0.1 0.02 0 0.105 0.02 0 0.11 0.02 0 0.115 0.02 0 0.12 0.02 0 0.125 0.02 0 0.13 0.02 0 0.135 0.02 0 0.14 0.02 0 0.145 0.02 0 0.15 0.02 0 0.155 0.02 0 0.16 0.02 0 0.165 0.02 0 0.17 0.02 0 0.175 0.02 0 0.18 0.02 0 0.185 0.02 0 0.19 0.02 0 0.195 0.02 0 0.2 0.02 0 0.205 0.02 0 0.21 0.02 0 0.215 0.02 0 0.22 0.02 0 0.225 0.02 0 0.23 0.02 0 0.235 0.02 0 0.24 0.02 0 0.245 0.02 0 0.25 0.02 0 0.255 0.02 0 0.26 0.02 0 0.265 0.02 0 0.27 0.02 0 0.275 0.02 0 0.28 0.02 0 0.285 0.02 0 0.29 0.02 0 0.295 0.02 0 0.3 0.02 0 0.305 0.02 0 0.31 0.02 0 0.315 0.02 0 0.32 0.02 0 0.325 0.02 0 0.33 0.02 0 0.335 0.02 0 0.34 0.02 0 0.345 0.02 0 0.35 0.02 0 0.355 0.02 0 0.36 0.02 0 0.365001 0.02 0 0.370003 0.02 0 0.375009 0.02 0 0.38003 0.02 0 0.385082 0.02 0 0.390199 0.02 0 0.395421 0.02 0 0.400791 0.02 0 0.406348 0.02 0 0.412126 0.02 0 0.418155 0.02 0 0.424466 0.02 0 0.431096 0.02 0 0.438084 0.02 0 0.445476 0.02 0 0.453328 0.02 0 0.461707 0.02 0 0.470692 0.02 0 0.480374 0.02 0 0.490855 0.02 0 0.502205 0.02 0 0.514319 0.02 0 0.526602 0.02 0 0.538683 0.02 0 0.550595 0.02 0 0.562406 0.02 0 0.574178 0.02 0 0.585949 0.02 0 0.588566 0.02 0 0.591107 0.02 0 0.593602 0.02 0 0.596066 0.02 0 0.598507 0.02 0 0.600931 0.02 0 0.603342 0.02 0 0.605743 0.02 0 0.608137 0.02 0 0.610528 0.02 0 0.612912 0.02 0 0.615291 0.02 0 0.617666 0.02 0 0.620039 0.02 0 0.622411 0.02 0 0.624781 0.02 0 0.627149 0.02 0 0.629515 0.02 0 0.631878 0.02 0 0.63424 0.02 0 0.636602 0.02 0 0.638966 0.02 0 0.641331 0.02 0 0.6437 0.02 0 0.646076 0.02 0 0.648469 0.02 0 0.650899 0.02 0 0.653387 0.02 0 0.655984 0.02 0 0.658697 0.02 0 0.6616 0.02 0 0.664729 0.02 0 0.668165 0.02 0 0.671939 0.02 0 0.67607 0.02 0 0.680523 0.02 0 0.685227 0.02 0 0.690089 0.02 0 0.695033 0.02 0 0.700012 0.02 0 0.705004 0.02 0 0.710001 0.02 0 0.715 0.02 0 0.72 0.02 0 0.725 0.02 0 0.73 0.02 0 0.735 0.02 0 0.74 0.02 0 0.745 0.02 0 0.75 0.02 0 0.755 0.02 0 0.76 0.02 0 0.765 0.02 0 0.77 0.02 0 0.775 0.02 0 0.78 0.02 0 0.785 0.02 0 0.79 0.02 0 0.795 0.02 0 0.8 0.02 0 0.805 0.02 0 0.81 0.02 0 0.815 0.02 0 0.82 0.02 0 0.825 0.02 0 0.83 0.02 0 0.835 0.02 0 0.84 0.02 0 0.845 0.02 0 0.85 0.02 0 0.855 0.02 0 0.86 0.02 0 0.865 0.02 0 0.87 0.02 0 0.875 0.02 0 0.88 0.02 0 0.885 0.02 0 0.89 0.02 0 0.895 0.02 0 0.9 0.02 0 0.905 0.02 0 0.91 0.02 0 0.915 0.02 0 0.92 0.02 0 0.925 0.02 0 0.93 0.02 0 0.935 0.02 0 0.94 0.02 0 0.945 0.02 0 0.95 0.02 0 0.955 0.02 0 0.96 0.02 0 0.965 0.02 0 0.97 0.02 0 0.975 0.02 0 0.98 0.02 0 0.985 0.02 0 0.99 0.02 0 0.995 0.02 0 1 0.02 0 0 0.04 0 0.005 0.04 0 0.01 0.04 0 0.015 0.04 0 0.02 0.04 0 0.025 0.04 0 0.03 0.04 0 0.035 0.04 0 0.04 0.04 0 0.045 0.04 0 0.05 0.04 0 0.055 0.04 0 0.06 0.04 0 0.065 0.04 0 0.07 0.04 0 0.075 0.04 0 0.08 0.04 0 0.085 0.04 0 0.09 0.04 0 0.095 0.04 0 0.1 0.04 0 0.105 0.04 0 0.11 0.04 0 0.115 0.04 0 0.12 0.04 0 0.125 0.04 0 0.13 0.04 0 0.135 0.04 0 0.14 0.04 0 0.145 0.04 0 0.15 0.04 0 0.155 0.04 0 0.16 0.04 0 0.165 0.04 0 0.17 0.04 0 0.175 0.04 0 0.18 0.04 0 0.185 0.04 0 0.19 0.04 0 0.195 0.04 0 0.2 0.04 0 0.205 0.04 0 0.21 0.04 0 0.215 0.04 0 0.22 0.04 0 0.225 0.04 0 0.23 0.04 0 0.235 0.04 0 0.24 0.04 0 0.245 0.04 0 0.25 0.04 0 0.255 0.04 0 0.26 0.04 0 0.265 0.04 0 0.27 0.04 0 0.275 0.04 0 0.28 0.04 0 0.285 0.04 0 0.29 0.04 0 0.295 0.04 0 0.3 0.04 0 0.305 0.04 0 0.31 0.04 0 0.315 0.04 0 0.32 0.04 0 0.325 0.04 0 0.33 0.04 0 0.335 0.04 0 0.34 0.04 0 0.345 0.04 0 0.35 0.04 0 0.355 0.04 0 0.36 0.04 0 0.365001 0.04 0 0.370003 0.04 0 0.375009 0.04 0 0.38003 0.04 0 0.385082 0.04 0 0.390199 0.04 0 0.395421 0.04 0 0.400791 0.04 0 0.406348 0.04 0 0.412126 0.04 0 0.418155 0.04 0 0.424466 0.04 0 0.431096 0.04 0 0.438084 0.04 0 0.445476 0.04 0 0.453328 0.04 0 0.461707 0.04 0 0.470692 0.04 0 0.480374 0.04 0 0.490855 0.04 0 0.502205 0.04 0 0.514319 0.04 0 0.526602 0.04 0 0.538683 0.04 0 0.550595 0.04 0 0.562406 0.04 0 0.574178 0.04 0 0.585949 0.04 0 0.588566 0.04 0 0.591107 0.04 0 0.593602 0.04 0 0.596066 0.04 0 0.598507 0.04 0 0.600931 0.04 0 0.603342 0.04 0 0.605743 0.04 0 0.608137 0.04 0 0.610528 0.04 0 0.612912 0.04 0 0.615291 0.04 0 0.617666 0.04 0 0.620039 0.04 0 0.622411 0.04 0 0.624781 0.04 0 0.627149 0.04 0 0.629515 0.04 0 0.631878 0.04 0 0.63424 0.04 0 0.636602 0.04 0 0.638966 0.04 0 0.641331 0.04 0 0.6437 0.04 0 0.646076 0.04 0 0.648469 0.04 0 0.650899 0.04 0 0.653387 0.04 0 0.655984 0.04 0 0.658697 0.04 0 0.6616 0.04 0 0.664729 0.04 0 0.668165 0.04 0 0.671939 0.04 0 0.67607 0.04 0 0.680523 0.04 0 0.685227 0.04 0 0.690089 0.04 0 0.695033 0.04 0 0.700012 0.04 0 0.705004 0.04 0 0.710001 0.04 0 0.715 0.04 0 0.72 0.04 0 0.725 0.04 0 0.73 0.04 0 0.735 0.04 0 0.74 0.04 0 0.745 0.04 0 0.75 0.04 0 0.755 0.04 0 0.76 0.04 0 0.765 0.04 0 0.77 0.04 0 0.775 0.04 0 0.78 0.04 0 0.785 0.04 0 0.79 0.04 0 0.795 0.04 0 0.8 0.04 0 0.805 0.04 0 0.81 0.04 0 0.815 0.04 0 0.82 0.04 0 0.825 0.04 0 0.83 0.04 0 0.835 0.04 0 0.84 0.04 0 0.845 0.04 0 0.85 0.04 0 0.855 0.04 0 0.86 0.04 0 0.865 0.04 0 0.87 0.04 0 0.875 0.04 0 0.88 0.04 0 0.885 0.04 0 0.89 0.04 0 0.895 0.04 0 0.9 0.04 0 0.905 0.04 0 0.91 0.04 0 0.915 0.04 0 0.92 0.04 0 0.925 0.04 0 0.93 0.04 0 0.935 0.04 0 0.94 0.04 0 0.945 0.04 0 0.95 0.04 0 0.955 0.04 0 0.96 0.04 0 0.965 0.04 0 0.97 0.04 0 0.975 0.04 0 0.98 0.04 0 0.985 0.04 0 0.99 0.04 0 0.995 0.04 0 1 0.04 0 0 0.06 0 0.005 0.06 0 0.01 0.06 0 0.015 0.06 0 0.02 0.06 0 0.025 0.06 0 0.03 0.06 0 0.035 0.06 0 0.04 0.06 0 0.045 0.06 0 0.05 0.06 0 0.055 0.06 0 0.06 0.06 0 0.065 0.06 0 0.07 0.06 0 0.075 0.06 0 0.08 0.06 0 0.085 0.06 0 0.09 0.06 0 0.095 0.06 0 0.1 0.06 0 0.105 0.06 0 0.11 0.06 0 0.115 0.06 0 0.12 0.06 0 0.125 0.06 0 0.13 0.06 0 0.135 0.06 0 0.14 0.06 0 0.145 0.06 0 0.15 0.06 0 0.155 0.06 0 0.16 0.06 0 0.165 0.06 0 0.17 0.06 0 0.175 0.06 0 0.18 0.06 0 0.185 0.06 0 0.19 0.06 0 0.195 0.06 0 0.2 0.06 0 0.205 0.06 0 0.21 0.06 0 0.215 0.06 0 0.22 0.06 0 0.225 0.06 0 0.23 0.06 0 0.235 0.06 0 0.24 0.06 0 0.245 0.06 0 0.25 0.06 0 0.255 0.06 0 0.26 0.06 0 0.265 0.06 0 0.27 0.06 0 0.275 0.06 0 0.28 0.06 0 0.285 0.06 0 0.29 0.06 0 0.295 0.06 0 0.3 0.06 0 0.305 0.06 0 0.31 0.06 0 0.315 0.06 0 0.32 0.06 0 0.325 0.06 0 0.33 0.06 0 0.335 0.06 0 0.34 0.06 0 0.345 0.06 0 0.35 0.06 0 0.355 0.06 0 0.36 0.06 0 0.365001 0.06 0 0.370003 0.06 0 0.375009 0.06 0 0.38003 0.06 0 0.385082 0.06 0 0.390199 0.06 0 0.395421 0.06 0 0.400791 0.06 0 0.406348 0.06 0 0.412126 0.06 0 0.418155 0.06 0 0.424466 0.06 0 0.431096 0.06 0 0.438084 0.06 0 0.445476 0.06 0 0.453328 0.06 0 0.461707 0.06 0 0.470692 0.06 0 0.480374 0.06 0 0.490855 0.06 0 0.502205 0.06 0 0.514319 0.06 0 0.526602 0.06 0 0.538683 0.06 0 0.550595 0.06 0 0.562406 0.06 0 0.574178 0.06 0 0.585949 0.06 0 0.588566 0.06 0 0.591107 0.06 0 0.593602 0.06 0 0.596066 0.06 0 0.598507 0.06 0 0.600931 0.06 0 0.603342 0.06 0 0.605743 0.06 0 0.608137 0.06 0 0.610528 0.06 0 0.612912 0.06 0 0.615291 0.06 0 0.617666 0.06 0 0.620039 0.06 0 0.622411 0.06 0 0.624781 0.06 0 0.627149 0.06 0 0.629515 0.06 0 0.631878 0.06 0 0.63424 0.06 0 0.636602 0.06 0 0.638966 0.06 0 0.641331 0.06 0 0.6437 0.06 0 0.646076 0.06 0 0.648469 0.06 0 0.650899 0.06 0 0.653387 0.06 0 0.655984 0.06 0 0.658697 0.06 0 0.6616 0.06 0 0.664729 0.06 0 0.668165 0.06 0 0.671939 0.06 0 0.67607 0.06 0 0.680523 0.06 0 0.685227 0.06 0 0.690089 0.06 0 0.695033 0.06 0 0.700012 0.06 0 0.705004 0.06 0 0.710001 0.06 0 0.715 0.06 0 0.72 0.06 0 0.725 0.06 0 0.73 0.06 0 0.735 0.06 0 0.74 0.06 0 0.745 0.06 0 0.75 0.06 0 0.755 0.06 0 0.76 0.06 0 0.765 0.06 0 0.77 0.06 0 0.775 0.06 0 0.78 0.06
[...]
			<PointData Scalars="VitesseX">
				<DataArray Name="VitesseX" type="Float32" format="ascii">
 0 -6.76281e-16 -4.71206e-17 -1.71983e-15 -2.85056e-15 -2.40698e-15 -2.88043e-15 4.93357e-15 -4.52955e-15 -1.08915e-15 5.87204e-16 -9.02366e-15 6.54085e-15 -1.67013e-15 8.93515e-16 7.12804e-16 -9.23272e-15 -3.01459e-15 2.05473e-15 -8.01991e-15 -5.10488e-15 6.34544e-15 9.29961e-15 -5.35556e-15 -1.15039e-14 1.91557e-15 2.11255e-14 5.73096e-15 -1.16376e-14 1.08894e-14 9.28849e-16 -4.2132e-15 1.50171e-14 3.34678e-15 2.81427e-16 1.00966e-14 1.6571e-14 -1.65433e-15 -1.38349e-15 1.20032e-15 -2.87846e-15 2.87726e-14 -1.18613e-14 -1.85802e-14 -7.60961e-15 5.18323e-15 -3.18099e-14 3.32912e-14 2.55443e-14 -2.91287e-14 -7.32103e-15 -4.42689e-15 4.11888e-14 -3.38924e-14 3.4874e-15 5.57532e-15 -5.45142e-15 1.99648e-14 3.06222e-14 -2.10874e-15 1.40744e-14 6.54296e-14 1.51788e-13 1.26703e-12 1.211e-11 1.08672e-10 9.02288e-10 6.9353e-09 4.90857e-08 3.18485e-07 1.88432e-06 1.01026e-05 4.87141e-05 0.000209349 0.000793027 0.00261419 0.00740166 0.0178294 0.0365335 0.0645263 0.100712 0.143046 0.189852 0.240226 0.293837 0.350666 0.410856 0.474642 0.542312 0.614149 0.690306 0.770439 0.852564 0.929107 0.973606 0.958652 0.944369 0.934299 0.929948 0.928316 0.927616 0.927411 0.927224 0.92708 0.926993 0.926958 0.926956 0.926941 0.926876 0.926736 0.926561 0.926383 0.926282 0.926267 0.926716 0.92664 0.925994 0.925117 0.924235 0.923673 0.923723 0.924032 0.925724 0.925342 0.926295 0.919259 0.895695 0.897867 0.852177 0.82607 0.753726 0.703198 0.586789 0.484898 0.354059 0.234969 0.134841 0.066142 0.0280808 0.0108014 0.00393666 0.00139477 0.000485463 0.000166515 5.63001e-05 1.87512e-05 6.14624e-06 1.9809e-06 6.27254e-07 1.9501e-07 5.94919e-08 1.7801e-08 5.22214e-09 1.50154e-09 4.23076e-10 1.16782e-10 3.16285e-11 8.33682e-12 2.16906e-12 5.35636e-13 2.03241e-13 -5.82807e-15 1.04001e-15 -1.2425e-13 6.08807e-14 1.00433e-13 -1.47711e-13 -9.1792e-14 2.1714e-14 8.60549e-14 -7.19068e-14 -1.19166e-13 2.87294e-14 2.18206e-14 -6.15214e-14 -1.05003e-13 -2.67944e-14 7.98975e-14 7.40361e-14 -5.89913e-14 -1.36153e-14 -3.42758e-14 4.67356e-14 -9.46256e-14 1.17141e-14 -2.99528e-15 -4.62547e-14 -4.47128e-14 3.83215e-14 3.37334e-14 -1.18426e-13 -1.3607e-13 9.90878e-14 -2.03464e-13 -1.13484e-14 -6.51635e-14 6.96984e-15 1.30735e-15 -7.22317e-14 7.0355e-14 0 0 -7.31171e-16 -1.2168e-15 -1.4485e-15 -7.39943e-16 -3.13038e-15 -3.18124e-15 -1.53076e-16 -2.65144e-17 -6.41694e-15 -1.2754e-15 4.35183e-15 -4.37167e-15 -4.2338e-15 -1.43518e-15 1.80758e-15 -1.87379e-15 -9.64075e-16 -4.64555e-15 2.41601e-16 -1.78597e-16 -2.25634e-15 4.80765e-15 -4.85579e-15 2.46665e-15 5.98186e-15 -1.89832e-15 1.1746e-14 -3.69157e-15 6.86446e-15 -4.90251e-15 1.91743e-14 -7.85472e-15 1.33619e-14 8.54771e-15 5.74967e-15 5.6018e-15 1.03528e-14 -1.64426e-14 -1.84647e-15 1.21721e-14 -1.15412e-14 2.4079e-14 -1.88037e-14 1.31304e-14 -2.36157e-14 3.39415e-15 1.61674e-14 1.67001e-16 1.52525e-14 -2.50853e-14 2.41761e-14 -1.2625e-14 -7.33664e-15 -3.16119e-14 3.43778e-14 -1.43513e-14 2.76578e-14 2.32298e-14 1.07498e-14 3.98439e-14 1.76999e-14 1.45007e-13 1.29387e-12 1.21142e-11 1.08582e-10 9.0241e-10 6.93526e-09 4.90857e-08 3.18485e-07 1.88432e-06 1.01026e-05 4.87141e-05 0.000209349 0.000793027 0.00261419 0.00740166 0.0178294 0.0365335 0.0645263 0.100712 0.143046 0.189852 0.240226 0.293837 0.350666 0.410856 0.474642 0.542312 0.614149 0.690306 0.770439 0.852564 0.929107 0.973606 0.958652 0.944369 0.934299 0.929948 0.928316 0.927616 0.927411 0.927224 0.92708 0.926993 0.926958 0.926956 0.926941 0.926876 0.926736 0.926561 0.926383 0.926282 0.926267 0.926716 0.92664 0.925994 0.925117 0.924235 0.923673 0.923723 0.924032 0.925724 0.925342 0.926295 0.919259 0.895695 0.897867 0.852177 0.82607 0.753726 0.703198 0.586789 0.484898 0.354059 0.234969 0.134841 0.066142 0.0280808 0.0108014 0.00393666 0.00139477 0.000485463 0.000166515 5.63001e-05 1.87512e-05 6.14624e-06 1.9809e-06 6.27254e-07 1.9501e-07 5.9492e-08 1.7801e-08 5.22214e-09 1.50153e-09 4.23109e-10 1.1676e-10 3.16108e-11 8.44463e-12 2.20134e-12 5.37754e-13 1.75534e-13 -8.34807e-14 -5.78232e-14 2.68076e-14 7.84003e-14 1.5866e-14 -1.21534e-13 1.10417e-13 -1.929e-13 1.0277e-15 4.48413e-14 4.76791e-14 -6.22455e-14 1.45152e-16 -6.73349e-14 2.79471e-15 -5.56688e-14 1.13499e-14 1.00922e-13 -1.31688e-14 -9.38148e-14 -1.42521e-14 -4.52112e-14 6.86195e-14 -4.72971e-14 -5.60603e-14 -1.82098e-14 7.91001e-14 -9.20929e-14 -9.82995e-15 -9.43826e-14 -7.50724e-14 -9.98263e-14 -7.04377e-14 9.17217e-15 -8.15176e-14 -5.89998e-14 6.528e-15 2.35944e-14 -3.77659e-14 0 0 5.84562e-16 5.32954e-17 -2.85939e-16 -3.19532e-15 -3.10408e-15 -3.73878e-15 -3.50181e-15 1.21405e-15 7.54081e-16 -9.06661e-16 1.96843e-15 -5.67487e-15 3.53419e-16 -1.15239e-14 1.70674e-15 5.73061e-15 -8.87734e-15 5.64457e-15 -2.89756e-15 -3.05054e-15 2.81798e-15 -2.47705e-15 9.67612e-15 2.52571e-15 -1.18804e-14 7.57493e-15 9.47661e-15 -1.12168e-15 -6.1881e-16 2.01026e-14 1.49903e-14 8.25574e-16 -2.49432e-16 1.03907e-14 2.01568e-14 8.57632e-15 -1.6601e-14 -1.33398e-14 4.94445e-16 4.04939e-15 1.00933e-14 -1.47956e-14 6.41393e-17 -8.2977e-15 1.86795e-14 -1.00326e-14 -9.82119e-15 1.49973e-14 4.18443e-14 -8.5578e-15 -5.35152e-15 -2.7989e-14 -1.6749e-14 3.02781e-14 -2.23336e-14 -3.68108e-15 3.39196e-14 4.92129e-14 9.239e-15 6.91355e-14 3.36051e-14 9.90571e-14 1.26608e-12 1.21562e-11 1.08535e-10 9.02456e-10 6.93522e-09 4.90857e-08 3.18485e-07 1.88432e-06 1.01026e-05 4.87141e-05 0.000209349 0.000793027 0.00261419 0.00740166 0.0178294 0.0365335 0.0645263 0.100712 0.143046 0.189852 0.240226 0.293837 0.350666 0.410856 0.474642 0.542312 0.614149 0.690306 0.770439 0.852564 0.929107 0.973606 0.958652 0.944369 0.934299 0.929948 0.928316 0.927616 0.927411 0.927224 0.92708 0.926993 0.926958 0.926956 0.926941 0.926876 0.926736 0.926561 0.926383 0.926282 0.926267 0.926716 0.92664 0.925994 0.925117 0.924235 0.923673 0.923723 0.924032 0.925724 0.925342 0.926295 0.919259 0.895695 0.897867 0.852177 0.82607 0.753726 0.703198 0.586789 0.484898 0.354059 0.234969 0.134841 0.066142 0.0280808 0.0108014 0.00393666 0.00139477 0.000485463 0.000166515 5.63001e-05 1.87512e-05 6.14623e-06 1.9809e-06 6.27254e-07 1.9501e-07 5.9492e-08 1.7801e-08 5.22218e-09 1.50148e-09 4.23143e-10 1.1681e-10 3.16867e-11 8.45178e-12 2.20459e-12 5.82049e-13 1.24877e-13 9.41579e-14 -1.82469e-13 6.31557e-14 -1.26445e-13 7.38483e-15 1.3112e-14 1.1582e-13 -1.04756e-13 -9.07092e-14 -3.2759e-14 1.3635e-13 -4.62115e-14 3.9372e-14 -1.01433e-13 5.19823e-14 -6.50157e-14 -4.7813e-14 6.71753e-14 -3.59849e-14 -3.85737e-14 6.523e-14 6.85565e-14 8.03673e-15 -1.70786e-13 2.55151e-14 -9.26042e-14 1.00781e-13 -6.09864e-14 -9.40572e-14 -1.77686e-13 -2.59508e-14 -1.46695e-13 -2.81302e-14 3.02822e-14 -5.27982e-14 -1.2235e-13 -4.03876e-14 3.68014e-14 -9.57148e-14 0 0 -3.57763e-16 2.21806e-15 -8.32628e-16 -2.05507e-15 -1.19329e-15 -2.44831e-15 -6.80612e-15 -2.29048e-15 1.09978e-15 6.52531e-15 -2.37099e-15 -3.12801e-15 -6.4758e-16 -2.86894e-15 6.04028e-15 -9.79451e-15 -4.4524e-15 3.78806e-15 -9.74137e-15 8.37063e-15 -7.00222e-15 6.54705e-15 1.21221e-14 -7.36629e-15 -7.09085e-15 5.90789e-15 8.53381e-15 -5.897e-16 8.79668e-15 2.68846e-14 2.32347e-15 1.87483e-14 -1.36784e-14 2.23512e-14 1.28533e-14 7.5143e-15 -1.89213e-14 -2.26582e-14 9.0809e-15 1.11453e-14 1.44625e-14 -2.96245e-14 -1.53922e-14 -2.89571e-14 2.89548e-14 -1.71364e-14 2.43624e-14 2.48404e-15 1.22752e-14 -5.19903e-15 -5.41209e-15 2.05455e-14 -9.52711e-15 3.67789e-14 -5.25375e-14 2.60598e-14 3.6704e-14 3.80237e-14 -1.75715e-14 9.42793e-14 9.81627e-14 1.37314e-13 1.16742e-12 1.22538e-11 1.08521e-10 9.02372e-10 6.93519e-09 4.90857e-08 3.18485e-07 1.88432e-06 1.01026e-05 4.87141e-05 0.000209349 0.000793027 0.00261419 0.00740166 0.0178294 0.0365335 0.0645263 0.100712 0.143046 0.189852 0.240226 0.293837 0.350666 0.410856 0.474642 0.542312 0.614149 0.690306 0.770439 0.852564 0.929107 0.973606 0.958652 0.944369 0.934299 0.929948 0.928316 0.927616 0.927411 0.927224 0.92708 0.926993 0.926958 0.926956 0.926941 0.926876 0.926736 0.926561 0.926383 0.926282 0.926267 0.926716 0.92664 0.925994 0.925117 0.924235 0.923673 0.923723 0.924032 0.925724 0.925342 0.926295 0.919259 0.895695 0.897867 0.852177 0.82607 0.753726 0.703198 0.586789 0.484898 0.354059 0.234969 0.134841 0.066142 0.0280808 0.0108014 0.00393666 0.00139477 0.000485463 0.000166515 5.63001e-05 1.87512e-05 6.14624e-06 1.9809e-06 6.27254e-07 1.9501e-07 5.9492e-08 1.7801e-08 5.22219e-09 1.50162e-09 4.23154e-10 1.16916e-10 3.17002e-11 8.45438e-12 2.1211e-12 5.62034e-13 5.94072e-14 1.94323e-13 -8.13302e-14 -1.01847e-13 -1.47579e-14 -1.73132e-13 -4.56281e-14 -1.02584e-13 3.14087e-13 -1.18648e-13 -9.97645e-14 8.57339e-14 -6.51306e-14 -1.02175e-13 1.15054e-13 1.24111e-13 3.21436e-14 -6.00126e-14 5.21105e-14 -2.86542e-13 1.00045e-13 -6.76725e-14 -3.19831e-14 -7.52269e-15 -1.75839e-14 3.42894e-14 -1.11093e-13 -6.03996e-15 4.46808e-14 -2.92981e-14 -7.61549e-14 -6.063e-14 -9.62591e-14 -1.22294e-13 -1.14511e-13 9.73479e-14 -8.8911e-14 -1.42393e-13 -4.3277e-14 -8.9042e-14 0 0 -1.71525e-16 2.65306e-15 1.02466e-15 3.73079e-15 -7.67355e-16 -4.37035e-15 -7.64399e-15 -6.08286e-15 -6.62698e-15 9.07669e-15 -2.52613e-16 6.92412e-16 -1.48833e-15 -3.03393e-15 5.57716e-15 -1.22086e-14 1.72417e-15 -5.19878e-15 8.92407e-16 3.67224e-15 -1.34389e-14 1.00706e-14 5.59184e-15 6.95428e-15 5.17149e-15 -1.58782e-15 9.17588e-15 9.44497e-15 2.13657e-14 2.45169e-15 6.48643e-15 5.14826e-15 -2.86695e-16 2.43753e-14 -1.50505e-14 -1.69631e-14 2.15766e-14 -2.43941e-14 -8.26419e-16 1.1557e-14 -9.18488e-15 7.26106e-16 -1.52021e-14 -1.09518e-14 2.66499e-15 -5.53254e-15 2.2885e-14 -1.44436e-14 -1.06463e-14 2.52842e-14 1.78717e-14 9.08167e-15 1.93099e-15 -2.10566e-15 2.2975e-15 4.56648e-14 4.11651e-14 -1.64686e-14 -6.30422e-15 1.1287e-13 9.20642e-14 2.65973e-13 1.23071e-12 1.21505e-11 1.08391e-10 9.02383e-10 6.93528e-09 4.90857e-08 3.18485e-07 1.88432e-06 1.01026e-05 4.87141e-05 0.000209349 0.000793027 0.00261419 0.00740166 0.0178294 0.0365335 0.0645263 0.100712 0.143046 0.189852 0.240226 0.293837 0.350666 0.410856 0.474642 0.542312 0.614149 0.690306 0.770439 0.852564 0.929107 0.973606 0.958652 0.944369 0.934299 0.929948 0.928316 0.927616 0.927411 0.927224 0.92708 0.926993 0.926958 0.926956 0.926941 0.926876 0.926736 0.926561 0.926383 0.926282 0.926267 0.926716 0.92664 0.925994 0.925117 0.924235 0.923673 0.923723 0.924032 0.925724 0.925342 0.926295 0.919259 0.895695 0.897867 0.852177 0.82607 0.753726 0.703198 0.586789 0.484898 0.354059 0.234969 0.134841 0.066142 0.0280808 0.0108014 0.00393666 0.00139477 0.000485463 0.000166515 5.63001e-05 1.87512e-05 6.14624e-06 1.9809e-06 6.27254e-07 1.9501e-07 5.94921e-08 1.78009e-08 5.22221e-09 1.50166e-09 4.23233e-10 1.16898e-10 3.16237e-11 8.64348e-12 1.98227e-12 5.32565e-13 -1.03169e-13 3.23366e-14 2.94022e-13 -4.22142e-14 -7.29855e-14 -2.10725e-13 -3.92579e-14 -1.28947e-13 1.03219e-13 -5.31103e-14 1.09037e-14 9.229e-14 -2.33336e-13 -7.55704e-14 1.53613e-13 3.5715e-13 5.42592e-14 -1.75209e-13 1.29308e-13 -3.45326e-13 1.56554e-13 -5.54253e-14 -2.4924e-13 -1.45463e-14 1.24664e-13 -6.50679e-14 -1.11777e-13 1.29037e-14 -3.73231e-14 1.50316e-15 1.59222e-13 -6.10213e-14 -1.41196e-13 -6.84655e-14 -1.76839e-13 1.34874e-13 -1.57224e-13 -1.3783e-13 -3.42219e-14 -5.6404e-14 0 0 2.32766e-15 3.36308e-15 4.31985e-15 3.81043e-15 -1.50252e-15 -7.8396e-15 -3.43963e-15 -9.63319e-15 -2.20062e-15 6.42744e-15 -9.5537e-15 1.15753e-14 5.8228e-15 -1.9614e-14 -4.15122e-16 1.1479e-15 -6.488e-15 4.66128e-15 6.96933e-15 -2.02456e-14 3.62072e-15 1.7773e-15 1.06478e-14 1.72554e-14 -9.28419e-15 2.50806e-14 2.47642e-15 1.35716e-14 2.1061e-14 2.07324e-15 -4.25528e-15 5.17761e-15 2.90757e-15 8.01574e-15 -1.68968e-14 -2.64348e-14 2.54338e-14 1.35023e-15 -1.39325e-14 -1.83005e-14 2.47469e-14 -2.89093e-14 1.95356e-14 -1.44551e-14 3.71939e-14 -3.54556e-14 -2.16408e-14 2.13498e-14 -2.17881e-14 8.67004e-14 -1.69144e-14 -1.24669e-14 -2.98009e-14 4.94983e-14 1.82265e-15 5.50989e-14 4.14105e-14 -2.63961e-14 1.74041e-14 1.09838e-13 8.5043e-14 3.17207e-13 1.33804e-12 1.19872e-11 1.08318e-10 9.024e-10 6.93542e-09 4.90856e-08 3.18485e-07 1.88432e-06 1.01026e-05 4.87141e-05 0.000209349 0.000793027 0.00261419 0.00740166 0.0178294 0.0365335 0.0645263 0.100712 0.143046 0.189852 0.240226 0.293837 0.350666 0.410856 0.474642 0.542312 0.614149 0.690306 0.770439 0.852564 0.929107 0.973606 0.958652 0.944369 0.934299 0.929948 0.928316 0.927616 0.927411 0.927224 0.92708 0.926993 0.926958 0.926956 0.926941 0.926876 0.926736 0.926561 0.926383 0.926282 0.926267 0.926716 0.92664 0.925994 0.925117 0.924235 0.923673 0.923723 0.924032 0.925724 0.925342 0.926295 0.919259 0.895695 0.897867 0.852177 0.82607 0.753726 0.703198 0.586789 0.484898 0.354059 0.234969 0.134841 0.066142 0.0280808 0.0108014 0.00393666 0.00139477 0.000485463 0.000166515 5.63001e-05 1.87512e-05 6.14623e-06 1.9809e-06 6.27254e-07 1.9501e-07 5.94922e-08 1.78008e-08 5.22228e-09 1.50152e-09 4.23301e-10 1.16843e-10 3.16268e-11 8.72854e-12 1.89719e-12 5.65732e-13 -2.2305e-13 2.54503e-14 5.02767e-13 6.80125e-14 -4.6495e-13 8.47951e-15 1.34339e-13 -1.33475e-13 -2.23319e-13 3.39496e-14 -5.80415e-15 7.15066e-14 -2.75614e-13 1.53448e-13 -5.21638e-14 4.5964e-13 -1.11119e-15 -2.68585e-13 1.61268e-13 -2.22245e-13 2.09877e-13 1.49265e-13 -1.60272e-13 -2.30013e-13 4.89115e-14 -3.8742e-14 -1.9671e-13 3.60453e-14 -6.37223e-14 -7.32375e-14 1.86e-13 -3.82078e-14 -8.44273e-14 -1.09572e-14 -9.38475e-14 6.7025e-14 -2.56689e-13 -8.35284e-14 -2.75374e-14 1.97746e-14 0
				</DataArray>
				<DataArray Name="VitesseY" type="Float32" format="ascii">