<?xml version="1.0"?>
<VTKFile type="PolyData">
	<PolyData>
		<Piece NumberOfPoints="1206" NumberOfPolys="1000">
			<Points>
				<DataArray type="Float32" NumberOfComponents="3" format="ascii">
 0 0 0 0.005 0 0 0.01 0 0 0.015 0 0 0.02 0 0 0.025 0 0 0.03 0 0 0.035 0 0 0.04 0 0 0.045 0 0 0.05 0 0 0.055 0 0 0.06 0 0 0.065 0 0 0.07 0 0 0.075 0 0 0.08 0 0 0.085 0 0 0.09 0 0 0.095 0 0 0.1 0 0 0.105 0 0 0.11 0 0 0.115 0 0 0.12 0 0 0.125 0 0 0.13 0 0 0.135 0 0 0.14 0 0 0.145 0 0 0.15 0 0 0.155 0 0 0.16 0 0 0.165 0 0 0.17 0 0 0.175 0 0 0.18 0 0 0.185 0 0 0.19 0 0 0.195 0 0 0.2 0 0 0.205 0 0 0.21 0 0 0.215 0 0 0.22 0 0 0.225 0 0 0.23 0 0 0.235 0 0 0.24 0 0 0.245 0 0 0.25 0 0 0.255 0 0 0.26 0 0 0.265 0 0 0.27 0 0 0.275 0 0 0.28 0 0 0.285 0 0 0.29 0 0 0.295 0 0 0.3 0 0 0.305 0 0 0.31 0 0 0.315 0 0 0.32 0 0 0.325 0 0 0.33 0 0 0.335 0 0 0.34 0 0 0.345 0 0 0.35 0 0 0.355 0 0 0.36 0 0 0.365 0 0 0.37 0 0 0.375 0 0 0.380001 0 0 0.385004 0 0 0.390016 0 0 0.395051 0 0 0.400137 0 0 0.405318 0 0 0.410647 0 0 0.416171 0 0 0.421935 0 0 0.427979 0 0 0.434343 0 0 0.441072 0 0 0.448219 0 0 0.455847 0 0 0.464033 0 0 0.472869 0 0 0.482466 0 0 0.492946 0 0 0.504389 0 0 0.516618 0 0 0.528885 0 0 0.540926 0 0 0.552798 0 0 0.564593 0 0 0.576374 0 0 0.578992 0 0 0.581534 0 0 0.584031 0 0 0.586496 0 0 0.588938 0 0 0.591365 0 0 0.593777 0 0 0.596179 0 0 0.598574 0 0 0.600965 0 0 0.60335 0 0 0.605731 0 0 0.608109 0 0 0.610485 0 0 0.612858 0 0 0.61523 0 0 0.617598 0 0 0.619964 0 0 0.622331 0 0 0.624701 0 0 0.62708 0 0 0.629468 0 0 0.631878 0 0 0.63434 0 0 0.636882 0 0 0.639553 0 0 0.642373 0 0 0.645411 0 0 0.648718 0 0 0.652359 0 0 0.656352 0 0 0.66069 0 0 0.66531 0 0 0.670124 0 0 0.675046 0 0 0.680016 0 0 0.685006 0 0 0.690002 0 0 0.695001 0 0 0.7 0 0 0.705 0 0 0.71 0 0 0.715 0 0 0.72 0 0 0.725 0 0 0.73 0 0 0.735 0 0 0.74 0 0 0.745 0 0 0.75 0 0 0.755 0 0 0.76 0 0 0.765 0 0 0.77 0 0 0.775 0 0 0.78 0 0 0.785 0 0 0.79 0 0 0.795 0 0 0.8 0 0 0.805 0 0 0.81 0 0 0.815 0 0 0.82 0 0 0.825 0 0 0.83 0 0 0.835 0 0 0.84 0 0 0.845 0 0 0.85 0 0 0.855 0 0 0.86 0 0 0.865 0 0 0.87 0 0 0.875 0 0 0.88 0 0 0.885 0 0 0.89 0 0 0.895 0 0 0.9 0 0 0.905 0 0 0.91 0 0 0.915 0 0 0.92 0 0 0.925 0 0 0.93 0 0 0.935 0 0 0.94 0 0 0.945 0 0 0.95 0 0 0.955 0 0 0.96 0 0 0.965 0 0 0.97 0 0 0.975 0 0 0.98 0 0 0.985 0 0 0.99 0 0 0.995 0 0 1 0 0 0 0.02 0 0.005 0.02 0 0.01 0.02 0 0.015 0.02 0 0.02 0.02 0 0.025 0.02 0 0.03 0.02 0 0.035 0.02 0 0.04 0.02 0 0.045 0.02 0 0.05 0.02 0 0.055 0.02 0 0.06 0.02 0 0.065 0.02 0 0.07 0.02 0 0.075 0.02 0 0.08 0.02 0 0.085 0.02 0 0.09 0.02 0 0.095 0.02 0 0.1 0.02 0 0.105 0.02 0 0.11 0.02 0 0.115 0.02 0 0.12 0.02 0 0.125 0.02 0 0.13 0.02 0 0.135 0.02 0 0.14 0.02 0 0.145 0.02 0 0.15 0.02 0 0.155 0.02 0 0.16 0.02 0 0.165 0.02 0 0.17 0.02 0 0.175 0.02 0 0.18 0.02 0 0.185 0.02 0 0.19 0.02 0 0.195 0.02 0 0.2 0.02 0 0.205 0.02 0 0.21 0.02 0 0.215 0.02 0 0.22 0.02 0 0.225 0.02 0 0.23 0.02 0 0.235 0.02 0 0.24 0.02 0 0.245 0.02 0 0.25 0.02 0 0.255 0.02 0 0.26 0.02 0 0.265 0.02 0 0.27 0.02 0 0.275 0.02 0 0.28 0.02 0 0.285 0.02 0 0.29 0.02 0 0.295 0.02 0 0.3 0.02 0 0.305 0.02 0 0.31 0.02 0 0.315 0.02 0 0.32 0.02 0 0.325 0.02 0 0.33 0.02 0 0.335 0.02 0 0.34 0.02 0 0.345 0.02 0 0.35 0.02 0 0.355 0.02 0 0.36 0.02 0 0.365 0.02 0 0.37 0.02 0 0.375 0.02 0 0.380001 0.02 0 0.385004 0.02 0 0.390016 0.02 0 0.395051 0.02 0 0.400137 0.02 0 0.405318 0.02 0 0.410647 0.02 0 0.416171 0.02 0 0.421935 0.02 0 0.427979 0.02 0 0.434343 0.02 0 0.441072 0.02 0 0.448219 0.02 0 0.455847 0.02 0 0.464033 0.02 0 0.472869 0.02 0 0.482466 0.02 0 0.492946 0.02 0 0.504389 0.02 0 0.516618 0.02 0 0.528885 0.02 0 0.540926 0.02 0 0.552798 0.02 0 0.564593 0.02 0 0.576374 0.02 0 0.578992 0.02 0 0.581534 0.02 0 0.584031 0.02 0 0.586496 0.02 0 0.588938 0.02 0 0.591365 0.02 0 0.593777 0.02 0 0.596179 0.02 0 0.598574 0.02 0 0.600965 0.02 0 0.60335 0.02 0 0.605731 0.02 0 0.608109 0.02 0 0.610485 0.02 0 0.612858 0.02 0 0.61523 0.02 0 0.617598 0.02 0 0.619964 0.02 0 0.622331 0.02 0 0.624701 0.02 0 0.62708 0.02 0 0.629468 0.02 0 0.631878 0.02 0 0.63434 0.02 0 0.636882 0.02 0 0.639553 0.02 0 0.642373 0.02 0 0.645411 0.02 0 0.648718 0.02 0 0.652359 0.02 0 0.656352 0.02 0 0.66069 0.02 0 0.66531 0.02 0 0.670124 0.02 0 0.675046 0.02 0 0.680016 0.02 0 0.685006 0.02 0 0.690002 0.02 0 0.695001 0.02 0 0.7 0.02 0 0.705 0.02 0 0.71 0.02 0 0.715 0.02 0 0.72 0.02 0 0.725 0.02 0 0.73 0.02 0 0.735 0.02 0 0.74 0.02 0 0.745 0.02 0 0.75 0.02 0 0.755 0.02 0 0.76 0.02 0 0.765 0.02 0 0.77 0.02 0 0.775 0.02 0 0.78 0.02 0 0.785 0.02 0 0.79 0.02 0 0.795 0.02 0 0.8 0.02 0 0.805 0.02 0 0.81 0.02 0 0.815 0.02 0 0.82 0.02 0 0.825 0.02 0 0.83 0.02 0 0.835 0.02 0 0.84 0.02 0 0.845 0.02 0 0.85 0.02 0 0.855 0.02 0 0.86 0.02 0 0.865 0.02 0 0.87 0.02 0 0.875 0.02 0 0.88 0.02 0 0.885 0.02 0 0.89 0.02 0 0.895 0.02 0 0.9 0.02 0 0.905 0.02 0 0.91 0.02 0 0.915 0.02 0 0.92 0.02 0 0.925 0.02 0 0.93 0.02 0 0.935 0.02 0 0.94 0.02 0 0.945 0.02 0 0.95 0.02 0 0.955 0.02 0 0.96 0.02 0 0.965 0.02 0 0.97 0.02 0 0.975 0.02 0 0.98 0.02 0 0.985 0.02 0 0.99 0.02 0 0.995 0.02 0 1 0.02 0 0 0.04 0 0.005 0.04 0 0.01 0.04 0 0.015 0.04 0 0.02 0.04 0 0.025 0.04 0 0.03 0.04 0 0.035 0.04 0 0.04 0.04 0 0.045 0.04 0 0.05 0.04 0 0.055 0.04 0 0.06 0.04 0 0.065 0.04 0 0.07 0.04 0 0.075 0.04 0 0.08 0.04 0 0.085 0.04 0 0.09 0.04 0 0.095 0.04 0 0.1 0.04 0 0.105 0.04 0 0.11 0.04 0 0.115 0.04 0 0.12 0.04 0 0.125 0.04 0 0.13 0.04 0 0.135 0.04 0 0.14 0.04 0 0.145 0.04 0 0.15 0.04 0 0.155 0.04 0 0.16 0.04 0 0.165 0.04 0 0.17 0.04 0 0.175 0.04 0 0.18 0.04 0 0.185 0.04 0 0.19 0.04 0 0.195 0.04 0 0.2 0.04 0 0.205 0.04 0 0.21 0.04 0 0.215 0.04 0 0.22 0.04 0 0.225 0.04 0 0.23 0.04 0 0.235 0.04 0 0.24 0.04 0 0.245 0.04 0 0.25 0.04 0 0.255 0.04 0 0.26 0.04 0 0.265 0.04 0 0.27 0.04 0 0.275 0.04 0 0.28 0.04 0 0.285 0.04 0 0.29 0.04 0 0.295 0.04 0 0.3 0.04 0 0.305 0.04 0 0.31 0.04 0 0.315 0.04 0 0.32 0.04 0 0.325 0.04 0 0.33 0.04 0 0.335 0.04 0 0.34 0.04 0 0.345 0.04 0 0.35 0.04 0 0.355 0.04 0 0.36 0.04 0 0.365 0.04 0 0.37 0.04 0 0.375 0.04 0 0.380001 0.04 0 0.385004 0.04 0 0.390016 0.04 0 0.395051 0.04 0 0.400137 0.04 0 0.405318 0.04 0 0.410647 0.04 0 0.416171 0.04 0 0.421935 0.04 0 0.427979 0.04 0 0.434343 0.04 0 0.441072 0.04 0 0.448219 0.04 0 0.455847 0.04 0 0.464033 0.04 0 0.472869 0.04 0 0.482466 0.04 0 0.492946 0.04 0 0.504389 0.04 0 0.516618 0.04 0 0.528885 0.04 0 0.540926 0.04 0 0.552798 0.04 0 0.564593 0.04 0 0.576374 0.04 0 0.578992 0.04 0 0.581534 0.04 0 0.584031 0.04 0 0.586496 0.04 0 0.588938 0.04 0 0.591365 0.04 0 0.593777 0.04 0 0.596179 0.04 0 0.598574 0.04 0 0.600965 0.04 0 0.60335 0.04 0 0.605731 0.04 0 0.608109 0.04 0 0.610485 0.04 0 0.612858 0.04 0 0.61523 0.04 0 0.617598 0.04 0 0.619964 0.04 0 0.622331 0.04 0 0.624701 0.04 0 0.62708 0.04 0 0.629468 0.04 0 0.631878 0.04 0 0.63434 0.04 0 0.636882 0.04 0 0.639553 0.04 0 0.642373 0.04 0 0.645411 0.04 0 0.648718 0.04 0 0.652359 0.04 0 0.656352 0.04 0 0.66069 0.04 0 0.66531 0.04 0 0.670124 0.04 0 0.675046 0.04 0 0.680016 0.04 0 0.685006 0.04 0 0.690002 0.04 0 0.695001 0.04 0 0.7 0.04 0 0.705 0.04 0 0.71 0.04 0 0.715 0.04 0 0.72 0.04 0 0.725 0.04 0 0.73 0.04 0 0.735 0.04 0 0.74 0.04 0 0.745 0.04 0 0.75 0.04 0 0.755 0.04 0 0.76 0.04 0 0.765 0.04 0 0.77 0.04 0 0.775 0.04 0 0.78 0.04 0 0.785 0.04 0 0.79 0.04 0 0.795 0.04 0 0.8 0.04 0 0.805 0.04 0 0.81 0.04 0 0.815 0.04 0 0.82 0.04 0 0.825 0.04 0 0.83 0.04 0 0.835 0.04 0 0.84 0.04 0 0.845 0.04 0 0.85 0.04 0 0.855 0.04 0 0.86 0.04 0 0.865 0.04 0 0.87 0.04 0 0.875 0.04 0 0.88 0.04 0 0.885 0.04 0 0.89 0.04 0 0.895 0.04 0 0.9 0.04 0 0.905 0.04 0 0.91 0.04 0 0.915 0.04 0 0.92 0.04 0 0.925 0.04 0 0.93 0.04 0 0.935 0.04 0 0.94 0.04 0 0.945 0.04 0 0.95 0.04 0 0.955 0.04 0 0.96 0.04 0 0.965 0.04 0 0.97 0.04 0 0.975 0.04 0 0.98 0.04 0 0.985 0.04 0 0.99 0.04 0 0.995 0.04 0 1 0.04 0 0 0.06 0 0.005 0.06 0 0.01 0.06 0 0.015 0.06 0 0.02 0.06 0 0.025 0.06 0 0.03 0.06 0 0.035 0.06 0 0.04 0.06 0 0.045 0.06 0 0.05 0.06 0 0.055 0.06 0 0.06 0.06 0 0.065 0.06 0 0.07 0.06 0 0.075 0.06 0 0.08 0.06 0 0.085 0.06 0 0.09 0.06 0 0.095 0.06 0 0.1 0.06 0 0.105 0.06 0 0.11 0.06 0 0.115 0.06 0 0.12 0.06 0 0.125 0.06 0 0.13 0.06 0 0.135 0.06 0 0.14 0.06 0 0.145 0.06 0 0.15 0.06 0 0.155 0.06 0 0.16 0.06 0 0.165 0.06 0 0.17 0.06 0 0.175 0.06 0 0.18 0.06 0 0.185 0.06 0 0.19 0.06 0 0.195 0.06 0 0.2 0.06 0 0.205 0.06 0 0.21 0.06 0 0.215 0.06 0 0.22 0.06 0 0.225 0.06 0 0.23 0.06 0 0.235 0.06 0 0.24 0.06 0 0.245 0.06 0 0.25 0.06 0 0.255 0.06 0 0.26 0.06 0 0.265 0.06 0 0.27 0.06 0 0.275 0.06 0 0.28 0.06 0 0.285 0.06 0 0.29 0.06 0 0.295 0.06 0 0.3 0.06 0 0.305 0.06 0 0.31 0.06 0 0.315 0.06 0 0.32 0.06 0 0.325 0.06 0 0.33 0.06 0 0.335 0.06 0 0.34 0.06 0 0.345 0.06 0 0.35 0.06 0 0.355 0.06 0 0.36 0.06 0 0.365 0.06 0 0.37 0.06 0 0.375 0.06 0 0.380001 0.06 0 0.385004 0.06 0 0.390016 0.06 0 0.395051 0.06 0 0.400137 0.06 0 0.405318 0.06 0 0.410647 0.06 0 0.416171 0.06 0 0.421935 0.06 0 0.427979 0.06 0 0.434343 0.06 0 0.441072 0.06 0 0.448219 0.06 0 0.455847 0.06 0 0.464033 0.06 0 0.472869 0.06 0 0.482466 0.06 0 0.492946 0.06 0 0.504389 0.06 0 0.516618 0.06 0 0.528885 0.06 0 0.540926 0.06 0 0.552798 0.06 0 0.564593 0.06 0 0.576374 0.06 0 0.578992 0.06 0 0.581534 0.06 0 0.584031 0.06 0 0.586496 0.06 0 0.588938 0.06 0 0.591365 0.06 0 0.593777 0.06 0 0.596179 0.06 0 0.598574 0.06 0 0.600965 0.06 0 0.60335 0.06 0 0.605731 0.06 0 0.608109 0.06 0 0.610485 0.06 0 0.612858 0.06 0 0.61523 0.06 0 0.617598 0.06 0 0.619964 0.06 0 0.622331 0.06 0 0.624701 0.06 0 0.62708 0.06 0 0.629468 0.06 0 0.631878 0.06 0 0.63434 0.06 0 0.636882 0.06 0 0.639553 0.06 0 0.642373 0.06 0 0.645411 0.06 0 0.648718 0.06 0 0.652359 0.06 0 0.656352 0.06 0 0.66069 0.06 0 0.66531 0.06 0 0.670124 0.06 0 0.675046 0.06 0 0.680016 0.06 0 0.685006 0.06 0 0.690002 0.06 0 0.695001 0.06 0 0.7 0.06 0 0.705 0.06 0 0.71 0.06 0 0.715 0.06 0 0.72 0.06 0 0.725 0.06 0 0.73 0.06 0 0.735 0.06 0 0.74 0.06 0 0.745 0.06 0 0.75 0.06 0 0.755 0.06 0 0.76 0.06 0 0.765 0.06 0 0.77 0.06 0 0.775 0.06 0 0.78 0.06 0 0.785 0.06 0 0.79 0.06 0 0.795 0.06 0 0.8 0.06 0 0.805 0.06 0 0.81 0.06 0 0.815 0
[...]
			<PointData Scalars="VitesseX">
				<DataArray Name="VitesseX" type="Float32" format="ascii">
 0 5.14314e-16 -3.73452e-16 -1.60265e-15 2.99229e-15 1.1651e-15 -3.28159e-15 -4.76665e-15 5.63812e-16 -1.23466e-15 2.57652e-15 -5.01121e-15 6.20179e-15 -8.25852e-15 1.40541e-14 -4.00559e-15 9.82378e-16 -6.74392e-15 6.57348e-15 -2.56303e-15 -8.34265e-15 1.65391e-14 6.44302e-15 -5.78951e-15 -1.47413e-15 -3.55055e-15 5.23453e-15 1.79944e-14 -1.82838e-14 8.33253e-15 -2.04363e-14 1.7849e-14 3.65021e-15 1.10504e-15 1.73293e-14 -7.68478e-15 -3.10527e-14 2.71018e-14 -1.23846e-14 1.03612e-14 4.03671e-16 -7.7172e-16 -1.13635e-14 -4.697e-15 -7.28435e-15 3.20851e-14 -1.53009e-16 -2.06563e-14 2.02262e-14 -1.74513e-14 1.13179e-14 1.55299e-14 1.66281e-14 3.49834e-14 -1.55482e-14 3.57635e-14 4.12814e-14 -4.79241e-14 7.02839e-14 -5.72252e-15 4.5071e-14 -4.04562e-14 2.94565e-14 4.77701e-14 -3.25469e-14 1.2775e-13 1.31894e-12 1.32791e-11 1.2912e-10 1.15653e-09 9.52591e-09 7.17735e-08 4.92134e-07 3.05202e-06 1.6994e-05 8.42076e-05 0.000367312 0.00139198 0.0045154 0.0123668 0.0284052 0.0550969 0.0922966 0.137851 0.189481 0.245815 0.306326 0.370975 0.43997 0.513648 0.592383 0.676421 0.765391 0.8567 0.939652 0.976081 0.955034 0.940357 0.93215 0.929112 0.927647 0.927647 0.927692 0.927805 0.927638 0.927419 0.927023 0.926607 0.926193 0.925911 0.925735 0.92571 0.926109 0.926564 0.92594 0.925002 0.923971 0.92293 0.922491 0.925101 0.925079 0.925553 0.913263 0.883792 0.885517 0.832145 0.7887 0.716977 0.642403 0.52229 0.407888 0.279682 0.169928 0.0879965 0.0389577 0.015283 0.00558024 0.00195954 0.000671567 0.000225739 7.44958e-05 2.41273e-05 7.6633e-06 2.38522e-06 7.27033e-07 2.16897e-07 6.3303e-08 1.80679e-08 5.04167e-09 1.3751e-09 3.66591e-10 9.55134e-11 2.42796e-11 6.07321e-12 1.45497e-12 3.67873e-13 3.02268e-14 1.67785e-13 -1.26472e-13 1.22023e-13 -3.11056e-14 -7.50796e-14 4.64721e-14 2.23981e-14 -4.58026e-14 -1.14452e-13 2.62439e-15 1.00292e-13 -5.22679e-14 -3.13222e-14 1.88268e-14 1.08354e-14 -9.88014e-14 -1.31784e-13 1.3435e-13 7.49096e-14 -3.17354e-14 -4.41855e-14 -5.25146e-14 -1.07659e-14 -1.13261e-13 -8.64047e-14 -3.8761e-15 8.65017e-14 -7.77254e-14 -5.31729e-14 -9.97502e-14 4.73085e-14 2.788e-14 -9.19634e-14 -3.84237e-14 6.50437e-14 -8.71961e-14 -3.80706e-14 7.14399e-14 -6.98957e-14 7.61799e-14 -1.18105e-13 -3.26594e-15 6.19368e-14 0 0 -5.28129e-16 -1.46933e-15 1.29349e-15 -8.56433e-16 -8.80212e-16 1.97736e-15 1.64771e-15 -5.5164e-15 1.09959e-15 4.0155e-16 3.04773e-15 -2.91588e-15 3.52912e-15 -4.21985e-15 2.48371e-15 -1.39142e-15 9.59085e-15 -1.06492e-14 -4.99614e-16 1.05846e-14 -9.15964e-15 4.0159e-15 2.74648e-15 9.21258e-15 -9.52053e-15 5.33796e-15 2.96081e-16 1.16232e-15 6.81801e-15 -1.63461e-14 9.15591e-15 -9.26462e-15 1.55269e-14 6.63078e-15 -2.6667e-15 1.44748e-15 -1.91966e-14 1.33087e-14 -7.41468e-16 8.1635e-15 -1.07853e-14 2.11549e-14 -2.1495e-14 -6.3773e-15 4.41364e-15 7.11112e-15 2.141e-14 1.03276e-15 -2.51665e-14 2.12646e-14 2.28806e-14 -1.59025e-14 4.0668e-14 -7.61039e-15 4.943e-14 8.77634e-16 1.3676e-14 3.99004e-14 1.7655e-14 3.04157e-14 -3.34615e-14 1.04398e-14 4.12781e-14 2.38836e-14 1.07455e-13 1.26015e-12 1.32746e-11 1.29099e-10 1.1566e-09 9.5259e-09 7.17735e-08 4.92134e-07 3.05202e-06 1.6994e-05 8.42076e-05 0.000367312 0.00139198 0.0045154 0.0123668 0.0284052 0.0550969 0.0922966 0.137851 0.189481 0.245815 0.306326 0.370975 0.43997 0.513648 0.592383 0.676421 0.765391 0.8567 0.939652 0.976081 0.955034 0.940357 0.93215 0.929112 0.927647 0.927647 0.927692 0.927805 0.927638 0.927419 0.927023 0.926607 0.926193 0.925911 0.925735 0.92571 0.926109 0.926564 0.92594 0.925002 0.923971 0.92293 0.922491 0.925101 0.925079 0.925553 0.913263 0.883792 0.885517 0.832145 0.7887 0.716977 0.642403 0.52229 0.407888 0.279682 0.169928 0.0879965 0.0389577 0.015283 0.00558024 0.00195954 0.000671567 0.000225739 7.44958e-05 2.41273e-05 7.6633e-06 2.38522e-06 7.27033e-07 2.16897e-07 6.3303e-08 1.8068e-08 5.04167e-09 1.37512e-09 3.66538e-10 9.54707e-11 2.43366e-11 6.0424e-12 1.5284e-12 3.34893e-13 8.64674e-14 -5.1609e-14 7.35915e-14 -4.03579e-15 3.24387e-14 4.25584e-14 -6.90387e-15 -1.73767e-14 -3.14527e-14 -4.24285e-14 -7.27654e-14 -5.47954e-14 1.13966e-13 6.55767e-14 2.99684e-14 -9.77172e-14 -1.17773e-13 4.86991e-14 -4.55792e-14 1.60169e-13 -9.69011e-14 -3.79339e-14 -8.31495e-14 -2.76319e-14 1.77288e-14 -7.14339e-14 -6.9331e-14 -2.19686e-14 -2.85988e-14 -2.04793e-14 -1.02782e-13 -9.22746e-16 -4.28078e-14 4.61959e-14 -6.70102e-14 -9.98411e-15 -1.78988e-14 -2.11751e-14 7.11071e-14 -1.06138e-13 -4.28865e-14 7.36405e-14 4.74207e-16 -5.0913e-14 0 0 -4.22509e-17 2.60534e-16 -1.04422e-15 -1.0941e-15 1.57077e-15 2.70089e-15 2.51887e-15 -3.02023e-15 1.04995e-15 5.16182e-15 -3.16921e-15 -5.24019e-16 4.35145e-15 -1.13116e-14 8.07529e-15 -3.19766e-15 5.83648e-15 -4.00989e-15 2.89163e-15 4.17917e-15 -9.11741e-15 7.09087e-15 -4.11554e-15 1.22023e-14 8.97771e-15 -1.64818e-14 3.51368e-15 5.81179e-15 -2.46977e-15 7.10043e-15 -1.61287e-14 6.95268e-15 1.57734e-14 -4.44248e-15 -9.16686e-15 -7.14556e-15 9.01985e-16 5.84731e-15 2.39284e-15 1.18156e-14 1.17161e-17 3.85693e-15 -1.59096e-15 -1.18974e-14 -1.18766e-14 6.21833e-15 3.59251e-14 -2.56439e-14 -3.26053e-15 2.97012e-14 1.5601e-14 1.36294e-15 3.71909e-14 4.38339e-14 -1.28147e-14 -1.20117e-14 3.26012e-14 1.80765e-14 2.47051e-14 4.8537e-14 1.9999e-14 -3.81791e-14 2.47047e-14 4.71562e-14 1.35262e-13 1.2009e-12 1.31874e-11 1.29083e-10 1.15664e-09 9.5259e-09 7.17735e-08 4.92134e-07 3.05202e-06 1.6994e-05 8.42076e-05 0.000367312 0.00139198 0.0045154 0.0123668 0.0284052 0.0550969 0.0922966 0.137851 0.189481 0.245815 0.306326 0.370975 0.43997 0.513648 0.592383 0.676421 0.765391 0.8567 0.939652 0.976081 0.955034 0.940357 0.93215 0.929112 0.927647 0.927647 0.927692 0.927805 0.927638 0.927419 0.927023 0.926607 0.926193 0.925911 0.925735 0.92571 0.926109 0.926564 0.92594 0.925002 0.923971 0.92293 0.922491 0.925101 0.925079 0.925553 0.913263 0.883792 0.885517 0.832145 0.7887 0.716977 0.642403 0.52229 0.407888 0.279682 0.169928 0.0879965 0.0389577 0.015283 0.00558024 0.00195954 0.000671567 0.000225739 7.44958e-05 2.41273e-05 7.6633e-06 2.38522e-06 7.27033e-07 2.16897e-07 6.3303e-08 1.8068e-08 5.04167e-09 1.37512e-09 3.66562e-10 9.54245e-11 2.43276e-11 6.0867e-12 1.4384e-12 3.74855e-13 6.9426e-14 -6.37085e-14 1.18897e-13 1.48532e-13 3.10435e-14 3.08131e-14 -1.14283e-13 1.0135e-13 -2.71514e-14 -1.32278e-13 -1.38206e-13 2.52297e-14 1.25329e-13 9.17968e-14 5.11439e-14 5.54912e-14 -1.30037e-13 2.1376e-14 5.38229e-14 -1.19054e-13 -4.60125e-14 1.4198e-15 -1.05468e-13 -1.27158e-13 6.12107e-14 -6.11607e-14 -1.43144e-13 -1.29171e-13 1.43382e-13 -1.15717e-13 -1.14192e-13 -6.2868e-14 1.74108e-15 1.43164e-14 7.06385e-14 -1.03779e-13 -1.72591e-14 1.83347e-14 -8.03962e-15 -2.09711e-14 -9.15994e-14 9.65598e-14 -1.33755e-14 -1.03745e-14 0 0 8.51663e-16 1.97259e-16 1.34288e-16 2.63492e-15 1.47446e-15 -2.7298e-15 -4.79136e-17 2.63041e-15 1.76363e-15 4.70126e-15 -5.85201e-15 1.35615e-15 -2.77173e-15 5.38819e-15 7.39414e-16 -2.96053e-15 -1.08323e-14 3.15424e-15 1.46409e-14 1.40702e-14 3.10881e-15 -6.97104e-15 3.7227e-15 -6.29224e-15 1.00983e-14 -9.05639e-15 -2.94684e-15 -5.39645e-15 2.59197e-16 8.05967e-16 8.65967e-15 2.4722e-16 6.16214e-15 -1.34375e-14 6.20282e-15 -9.84128e-15 6.62189e-15 3.36411e-15 5.49787e-16 3.07529e-15 1.73943e-14 -2.38662e-14 1.70777e-14 -1.66997e-14 2.3237e-15 2.04848e-14 5.50743e-16 -3.83555e-16 4.02352e-14 -3.38683e-14 2.53299e-14 3.30263e-14 4.3327e-14 5.14946e-14 -3.76352e-14 -3.75671e-14 3.05075e-14 3.53086e-14 -5.69273e-15 3.57804e-14 2.08251e-14 2.25407e-14 1.24732e-14 4.90242e-14 1.40873e-13 1.18416e-12 1.31703e-11 1.29038e-10 1.1566e-09 9.52606e-09 7.17734e-08 4.92134e-07 3.05202e-06 1.6994e-05 8.42076e-05 0.000367312 0.00139198 0.0045154 0.0123668 0.0284052 0.0550969 0.0922966 0.137851 0.189481 0.245815 0.306326 0.370975 0.43997 0.513648 0.592383 0.676421 0.765391 0.8567 0.939652 0.976081 0.955034 0.940357 0.93215 0.929112 0.927647 0.927647 0.927692 0.927805 0.927638 0.927419 0.927023 0.926607 0.926193 0.925911 0.925735 0.92571 0.926109 0.926564 0.92594 0.925002 0.923971 0.92293 0.922491 0.925101 0.925079 0.925553 0.913263 0.883792 0.885517 0.832145 0.7887 0.716977 0.642403 0.52229 0.407888 0.279682 0.169928 0.0879965 0.0389577 0.015283 0.00558024 0.00195954 0.000671567 0.000225739 7.44958e-05 2.41273e-05 7.6633e-06 2.38522e-06 7.27033e-07 2.16897e-07 6.33029e-08 1.8068e-08 5.04173e-09 1.37512e-09 3.66567e-10 9.54266e-11 2.43508e-11 6.11677e-12 1.38005e-12 2.44507e-13 1.07653e-13 7.82272e-14 6.12578e-14 1.09789e-13 3.36974e-14 -1.75554e-13 1.29098e-13 -9.5544e-15 -5.87095e-15 -1.43022e-13 7.72686e-16 5.50776e-14 1.43244e-14 -1.48361e-14 1.39044e-13 7.50343e-14 1.04573e-13 -6.61798e-14 -6.52652e-14 1.39936e-14 -4.05051e-14 -5.05795e-14 -1.90814e-13 -1.63088e-13 4.37383e-14 -1.78274e-13 -2.0376e-14 -1.81336e-13 1.48604e-13 -2.12248e-13 -4.3227e-14 -3.4691e-14 -1.5196e-14 -1.46764e-14 6.65453e-14 -4.78542e-14 -4.59746e-14 7.90494e-14 -1.06026e-14 -8.40062e-14 -1.89895e-15 4.874e-14 -5.38393e-14 -1.62681e-14 0 0 -9.46241e-16 -1.39596e-15 5.09964e-15 -2.53794e-15 -5.59417e-17 -2.79954e-15 2.21125e-15 3.66335e-15 -1.13762e-16 3.19635e-15 8.03506e-16 -1.54835e-15 -4.67693e-15 3.5793e-15 -8.36752e-15 5.22162e-15 -3.67201e-16 3.28561e-15 -9.33236e-15 2.56855e-14 -3.67652e-15 -7.59712e-16 2.78044e-14 -6.46529e-15 -1.3574e-14 9.77024e-15 -1.25144e-14 -4.67842e-15 3.64122e-16 -1.36149e-14 1.86321e-14 -1.99625e-14 7.63371e-15 -2.63527e-14 2.37716e-14 1.30048e-14 -1.90004e-14 6.51597e-15 3.29039e-15 2.12159e-14 9.88631e-16 1.6119e-14 -1.40052e-14 -1.13282e-14 -3.31506e-15 4.52218e-14 1.47257e-15 -1.29066e-14 3.33338e-14 -2.8303e-14 2.42812e-14 4.28056e-14 3.74874e-14 1.20956e-14 8.98467e-15 -4.25768e-14 4.83941e-14 2.97104e-14 -3.18729e-14 1.26247e-14 2.20487e-14 2.6933e-14 8.64085e-14 6.01583e-14 1.10336e-13 1.25981e-12 1.3206e-11 1.28984e-10 1.15655e-09 9.52613e-09 7.17733e-08 4.92134e-07 3.05202e-06 1.6994e-05 8.42076e-05 0.000367312 0.00139198 0.0045154 0.0123668 0.0284052 0.0550969 0.0922966 0.137851 0.189481 0.245815 0.306326 0.370975 0.43997 0.513648 0.592383 0.676421 0.765391 0.8567 0.939652 0.976081 0.955034 0.940357 0.93215 0.929112 0.927647 0.927647 0.927692 0.927805 0.927638 0.927419 0.927023 0.926607 0.926193 0.925911 0.925735 0.92571 0.926109 0.926564 0.92594 0.925002 0.923971 0.92293 0.922491 0.925101 0.925079 0.925553 0.913263 0.883792 0.885517 0.832145 0.7887 0.716977 0.642403 0.52229 0.407888 0.279682 0.169928 0.0879965 0.0389577 0.015283 0.00558024 0.00195954 0.000671567 0.000225739 7.44958e-05 2.41273e-05 7.6633e-06 2.38522e-06 7.27033e-07 2.16897e-07 6.3303e-08 1.8068e-08 5.04166e-09 1.37524e-09 3.66631e-10 9.54308e-11 2.44574e-11 6.1347e-12 1.63252e-12 -2.63449e-14 1.33076e-14 -8.90107e-15 1.15101e-13 -9.08747e-14 2.16635e-14 -1.30147e-13 1.78962e-13 -1.34931e-13 2.4648e-14 -8.50071e-14 1.01097e-13 2.69443e-15 6.03815e-14 -2.01811e-14 5.89086e-14 1.75516e-14 4.05331e-14 -1.29279e-13 1.95654e-14 2.86781e-13 -1.46134e-13 -5.74356e-14 -7.85667e-14 -1.39353e-13 3.85467e-15 -2.62608e-13 -4.77054e-14 -1.08605e-13 -4.68826e-14 -1.66518e-13 -2.916e-14 -2.18213e-15 -8.04061e-15 7.29655e-14 -9.92807e-14 4.84523e-14 -1.11172e-13 1.78404e-13 -2.67185e-15 -1.26498e-13 1.08915e-14 1.77379e-14 -1.5617e-14 -9.41725e-14 0 0 -2.10974e-15 -1.00155e-16 3.65262e-15 -7.82875e-15 3.00626e-15 -1.97401e-15 1.494e-15 7.62204e-15 -5.08872e-15 9.08723e-15 -4.13407e-15 5.17652e-15 -1.04243e-14 -3.74726e-15 -1.10363e-14 1.37342e-14 6.67747e-15 2.01148e-14 -4.37271e-14 2.07702e-15 3.05288e-15 2.50156e-14 2.86498e-14 4.15926e-15 -1.38986e-14 -7.51728e-16 5.29445e-15 -7.5488e-15 -1.00332e-14 -2.3848e-15 -1.27754e-14 -4.33467e-15 4.54114e-15 -3.06476e-14 1.44524e-14 -2.54655e-15 1.60544e-14 -2.10037e-14 2.21111e-14 4.3989e-14 -1.1989e-14 3.40109e-14 -2.70548e-14 -7.58162e-15 -1.17729e-14 4.75354e-14 1.02176e-14 -5.81732e-14 1.25579e-14 3.93215e-14 -1.12681e-15 7.07177e-14 1.635e-14 8.54232e-15 4.51402e-15 5.48318e-15 2.56996e-14 1.54398e-14 -4.39827e-14 3.50022e-14 6.89121e-14 -5.89967e-14 1.62494e-13 3.62662e-14 1.2229e-13 1.35174e-12 1.3176e-11 1.28977e-10 1.1565e-09 9.52605e-09 7.17733e-08 4.92134e-07 3.05202e-06 1.6994e-05 8.42076e-05 0.000367312 0.00139198 0.0045154 0.0123668 0.0284052 0.0550969 0.0922966 0.137851 0.189481 0.245815 0.306326 0.370975 0.43997 0.513648 0.592383 0.676421 0.765391 0.8567 0.939652 0.976081 0.955034 0.940357 0.93215 0.929112 0.927647 0.927647 0.927692 0.927805 0.927638 0.927419 0.927023 0.926607 0.926193 0.925911 0.925735 0.92571 0.926109 0.926564 0.92594 0.925002 0.923971 0.92293 0.922491 0.925101 0.925079 0.925553 0.913263 0.883792 0.885517 0.832145 0.7887 0.716977 0.642403 0.52229 0.407888 0.279682 0.169928 0.0879965 0.0389577 0.015283 0.00558024 0.00195954 0.000671567 0.000225739 7.44958e-05 2.41273e-05 7.6633e-06 2.38522e-06 7.27033e-07 2.16897e-07 6.33031e-08 1.8068e-08 5.04152e-09 1.37536e-09 3.66765e-10 9.54303e-11 2.44748e-11 6.19708e-12 1.77961e-12 -9.43609e-14 -1.9247e-13 -3.02731e-14 7.20239e-14 2.62692e-14 -5.78776e-14 -8.0906e-15 -6.86714e-14 9.30117e-15 2.40161e-14 -1.77853e-13 7.28952e-14 1.55647e-13 6.22292e-14 1.01735e-14 -9.91568e-14 2.02046e-13 -2.51545e-13 -3.12065e-13 5.03016e-13 6.16771e-14 -1.41557e-13 2.05046e-14 1.27472e-13 -1.61831e-13 -1.0588e-13 -2.34551e-13 -2.05827e-13 1.78474e-14 -1.24748e-13 -1.51993e-13 -9.4038e-14 -1.15053e-14 1.31386e-13 1.9595e-14 -9.49998e-14 6.99274e-14 -2.16584e-13 2.39348e-13 -7.08567e-14 1.55564e-14 4.29823e-15 -1.33951e-13 4.58785e-14 -1.23202e-14 0
				</DataArray>
				<DataArray Name="VitesseY" type="Float32" format="ascii">