<?xml version="1.0"?>
<VTKFile type="PolyData">
	<PolyData>
		<Piece NumberOfPoints="1206" NumberOfPolys="1000">
			<Points>
				<DataArray type="Float32" NumberOfComponents="3" format="ascii">
 0 0 0 0.005 0 0 0.01 0 0 0.015 0 0 0.02 0 0 0.025 0 0 0.03 0 0 0.035 0 0 0.04 0 0 0.045 0 0 0.05 0 0 0.055 0 0 0.06 0 0 0.065 0 0 0.07 0 0 0.075 0 0 0.08 0 0 0.085 0 0 0.09 0 0 0.095 0 0 0.1 0 0 0.105 0 0 0.11 0 0 0.115 0 0 0.12 0 0 0.125 0 0 0.13 0 0 0.135 0 0 0.14 0 0 0.145 0 0 0.15 0 0 0.155 0 0 0.16 0 0 0.165 0 0 0.17 0 0 0.175 0 0 0.18 0 0 0.185 0 0 0.19 0 0 0.195 0 0 0.2 0 0 0.205 0 0 0.21 0 0 0.215 0 0 0.22 0 0 0.225 0 0 0.23 0 0 0.235 0 0 0.24 0 0 0.245 0 0 0.25 0 0 0.255 0 0 0.26 0 0 0.265 0 0 0.27 0 0 0.275 0 0 0.28 0 0 0.285 0 0 0.29 0 0 0.295 0 0 0.3 0 0 0.305 0 0 0.31 0 0 0.315 0 0 0.32 0 0 0.325 0 0 0.33 0 0 0.335 0 0 0.34 0 0 0.345 0 0 0.35 0 0 0.355001 0 0 0.360005 0 0 0.365017 0 0 0.370048 0 0 0.37512 0 0 0.380266 0 0 0.385522 0 0 0.390923 0 0 0.396502 0 0 0.402284 0 0 0.408293 0 0 0.414555 0 0 0.421099 0 0 0.427954 0 0 0.435158 0 0 0.442753 0 0 0.450787 0 0 0.459318 0 0 0.468415 0 0 0.478157 0 0 0.488628 0 0 0.499888 0 0 0.511881 0 0 0.524151 0 0 0.536253 0 0 0.548192 0 0 0.56002 0 0 0.5718 0 0 0.583568 0 0 0.595341 0 0 0.597956 0 0 0.600497 0 0 0.602991 0 0 0.605453 0 0 0.607894 0 0 0.610317 0 0 0.612729 0 0 0.615132 0 0 0.617528 0 0 0.619918 0 0 0.622304 0 0 0.624687 0 0 0.627067 0 0 0.629443 0 0 0.631817 0 0 0.634188 0 0 0.636557 0 0 0.638924 0 0 0.641289 0 0 0.643654 0 0 0.646017 0 0 0.648381 0 0 0.650745 0 0 0.653109 0 0 0.655476 0 0 0.657847 0 0 0.660225 0 0 0.662614 0 0 0.665026 0 0 0.667462 0 0 0.669954 0 0 0.672495 0 0 0.675149 0 0 0.677916 0 0 0.680898 0 0 0.684123 0 0 0.687676 0 0 0.691579 0 0 0.695833 0 0 0.700389 0 0 0.705162 0 0 0.710062 0 0 0.715023 0 0 0.720008 0 0 0.725003 0 0 0.730001 0 0 0.735 0 0 0.74 0 0 0.745 0 0 0.75 0 0 0.755 0 0 0.76 0 0 0.765 0 0 0.77 0 0 0.775 0 0 0.78 0 0 0.785 0 0 0.79 0 0 0.795 0 0 0.8 0 0 0.805 0 0 0.81 0 0 0.815 0 0 0.82 0 0 0.825 0 0 0.83 0 0 0.835 0 0 0.84 0 0 0.845 0 0 0.85 0 0 0.855 0 0 0.86 0 0 0.865 0 0 0.87 0 0 0.875 0 0 0.88 0 0 0.885 0 0 0.89 0 0 0.895 0 0 0.9 0 0 0.905 0 0 0.91 0 0 0.915 0 0 0.92 0 0 0.925 0 0 0.93 0 0 0.935 0 0 0.94 0 0 0.945 0 0 0.95 0 0 0.955 0 0 0.96 0 0 0.965 0 0 0.97 0 0 0.975 0 0 0.98 0 0 0.985 0 0 0.99 0 0 0.995 0 0 1 0 0 0 0.02 0 0.005 0.02 0 0.01 0.02 0 0.015 0.02 0 0.02 0.02 0 0.025 0.02 0 0.03 0.02 0 0.035 0.02 0 0.04 0.02 0 0.045 0.02 0 0.05 0.02 0 0.055 0.02 0 0.06 0.02 0 0.065 0.02 0 0.07 0.02 0 0.075 0.02 0 0.08 0.02 0 0.085 0.02 0 0.09 0.02 0 0.095 0.02 0 0.1 0.02 0 0.105 0.02 0 0.11 0.02 0 0.115 0.02 0 0.12 0.02 0 0.125 0.02 0 0.13 0.02 0 0.135 0.02 0 0.14 0.02 0 0.145 0.02 0 0.15 0.02 0 0.155 0.02 0 0.16 0.02 0 0.165 0.02 0 0.17 0.02 0 0.175 0.02 0 0.18 0.02 0 0.185 0.02 0 0.19 0.02 0 0.195 0.02 0 0.2 0.02 0 0.205 0.02 0 0.21 0.02 0 0.215 0.02 0 0.22 0.02 0 0.225 0.02 0 0.23 0.02 0 0.235 0.02 0 0.24 0.02 0 0.245 0.02 0 0.25 0.02 0 0.255 0.02 0 0.26 0.02 0 0.265 0.02 0 0.27 0.02 0 0.275 0.02 0 0.28 0.02 0 0.285 0.02 0 0.29 0.02 0 0.295 0.02 0 0.3 0.02 0 0.305 0.02 0 0.31 0.02 0 0.315 0.02 0 0.32 0.02 0 0.325 0.02 0 0.33 0.02 0 0.335 0.02 0 0.34 0.02 0 0.345 0.02 0 0.35 0.02 0 0.355001 0.02 0 0.360005 0.02 0 0.365017 0.02 0 0.370048 0.02 0 0.37512 0.02 0 0.380266 0.02 0 0.385522 0.02 0 0.390923 0.02 0 0.396502 0.02 0 0.402284 0.02 0 0.408293 0.02 0 0.414555 0.02 0 0.421099 0.02 0 0.427954 0.02 0 0.435158 0.02 0 0.442753 0.02 0 0.450787 0.02 0 0.459318 0.02 0 0.468415 0.02 0 0.478157 0.02 0 0.488628 0.02 0 0.499888 0.02 0 0.511881 0.02 0 0.524151 0.02 0 0.536253 0.02 0 0.548192 0.02 0 0.56002 0.02 0 0.5718 0.02 0 0.583568 0.02 0 0.595341 0.02 0 0.597956 0.02 0 0.600497 0.02 0 0.602991 0.02 0 0.605453 0.02 0 0.607894 0.02 0 0.610317 0.02 0 0.612729 0.02 0 0.615132 0.02 0 0.617528 0.02 0 0.619918 0.02 0 0.622304 0.02 0 0.624687 0.02 0 0.627067 0.02 0 0.629443 0.02 0 0.631817 0.02 0 0.634188 0.02 0 0.636557 0.02 0 0.638924 0.02 0 0.641289 0.02 0 0.643654 0.02 0 0.646017 0.02 0 0.648381 0.02 0 0.650745 0.02 0 0.653109 0.02 0 0.655476 0.02 0 0.657847 0.02 0 0.660225 0.02 0 0.662614 0.02 0 0.665026 0.02 0 0.667462 0.02 0 0.669954 0.02 0 0.672495 0.02 0 0.675149 0.02 0 0.677916 0.02 0 0.680898 0.02 0 0.684123 0.02 0 0.687676 0.02 0 0.691579 0.02 0 0.695833 0.02 0 0.700389 0.02 0 0.705162 0.02 0 0.710062 0.02 0 0.715023 0.02 0 0.720008 0.02 0 0.725003 0.02 0 0.730001 0.02 0 0.735 0.02 0 0.74 0.02 0 0.745 0.02 0 0.75 0.02 0 0.755 0.02 0 0.76 0.02 0 0.765 0.02 0 0.77 0.02 0 0.775 0.02 0 0.78 0.02 0 0.785 0.02 0 0.79 0.02 0 0.795 0.02 0 0.8 0.02 0 0.805 0.02 0 0.81 0.02 0 0.815 0.02 0 0.82 0.02 0 0.825 0.02 0 0.83 0.02 0 0.835 0.02 0 0.84 0.02 0 0.845 0.02 0 0.85 0.02 0 0.855 0.02 0 0.86 0.02 0 0.865 0.02 0 0.87 0.02 0 0.875 0.02 0 0.88 0.02 0 0.885 0.02 0 0.89 0.02 0 0.895 0.02 0 0.9 0.02 0 0.905 0.02 0 0.91 0.02 0 0.915 0.02 0 0.92 0.02 0 0.925 0.02 0 0.93 0.02 0 0.935 0.02 0 0.94 0.02 0 0.945 0.02 0 0.95 0.02 0 0.955 0.02 0 0.96 0.02 0 0.965 0.02 0 0.97 0.02 0 0.975 0.02 0 0.98 0.02 0 0.985 0.02 0 0.99 0.02 0 0.995 0.02 0 1 0.02 0 0 0.04 0 0.005 0.04 0 0.01 0.04 0 0.015 0.04 0 0.02 0.04 0 0.025 0.04 0 0.03 0.04 0 0.035 0.04 0 0.04 0.04 0 0.045 0.04 0 0.05 0.04 0 0.055 0.04 0 0.06 0.04 0 0.065 0.04 0 0.07 0.04 0 0.075 0.04 0 0.08 0.04 0 0.085 0.04 0 0.09 0.04 0 0.095 0.04 0 0.1 0.04 0 0.105 0.04 0 0.11 0.04 0 0.115 0.04 0 0.12 0.04 0 0.125 0.04 0 0.13 0.04 0 0.135 0.04 0 0.14 0.04 0 0.145 0.04 0 0.15 0.04 0 0.155 0.04 0 0.16 0.04 0 0.165 0.04 0 0.17 0.04 0 0.175 0.04 0 0.18 0.04 0 0.185 0.04 0 0.19 0.04 0 0.195 0.04 0 0.2 0.04 0 0.205 0.04 0 0.21 0.04 0 0.215 0.04 0 0.22 0.04 0 0.225 0.04 0 0.23 0.04 0 0.235 0.04 0 0.24 0.04 0 0.245 0.04 0 0.25 0.04 0 0.255 0.04 0 0.26 0.04 0 0.265 0.04 0 0.27 0.04 0 0.275 0.04 0 0.28 0.04 0 0.285 0.04 0 0.29 0.04 0 0.295 0.04 0 0.3 0.04 0 0.305 0.04 0 0.31 0.04 0 0.315 0.04 0 0.32 0.04 0 0.325 0.04 0 0.33 0.04 0 0.335 0.04 0 0.34 0.04 0 0.345 0.04 0 0.35 0.04 0 0.355001 0.04 0 0.360005 0.04 0 0.365017 0.04 0 0.370048 0.04 0 0.37512 0.04 0 0.380266 0.04 0 0.385522 0.04 0 0.390923 0.04 0 0.396502 0.04 0 0.402284 0.04 0 0.408293 0.04 0 0.414555 0.04 0 0.421099 0.04 0 0.427954 0.04 0 0.435158 0.04 0 0.442753 0.04 0 0.450787 0.04 0 0.459318 0.04 0 0.468415 0.04 0 0.478157 0.04 0 0.488628 0.04 0 0.499888 0.04 0 0.511881 0.04 0 0.524151 0.04 0 0.536253 0.04 0 0.548192 0.04 0 0.56002 0.04 0 0.5718 0.04 0 0.583568 0.04 0 0.595341 0.04 0 0.597956 0.04 0 0.600497 0.04 0 0.602991 0.04 0 0.605453 0.04 0 0.607894 0.04 0 0.610317 0.04 0 0.612729 0.04 0 0.615132 0.04 0 0.617528 0.04 0 0.619918 0.04 0 0.622304 0.04 0 0.624687 0.04 0 0.627067 0.04 0 0.629443 0.04 0 0.631817 0.04 0 0.634188 0.04 0 0.636557 0.04 0 0.638924 0.04 0 0.641289 0.04 0 0.643654 0.04 0 0.646017 0.04 0 0.648381 0.04 0 0.650745 0.04 0 0.653109 0.04 0 0.655476 0.04 0 0.657847 0.04 0 0.660225 0.04 0 0.662614 0.04 0 0.665026 0.04 0 0.667462 0.04 0 0.669954 0.04 0 0.672495 0.04 0 0.675149 0.04 0 0.677916 0.04 0 0.680898 0.04 0 0.684123 0.04 0 0.687676 0.04 0 0.691579 0.04 0 0.695833 0.04 0 0.700389 0.04 0 0.705162 0.04 0 0.710062 0.04 0 0.715023 0.04 0 0.720008 0.04 0 0.725003 0.04 0 0.730001 0.04 0 0.735 0.04 0 0.74 0.04 0 0.745 0.04 0 0.75 0.04 0 0.755 0.04 0 0.76 0.04 0 0.765 0.04 0 0.77 0.04 0 0.775 0.04 0 0.78 0.04 0 0.785 0.04 0 0.79 0.04 0 0.795 0.04 0 0.8 0.04 0 0.805 0.04 0 0.81 0.04 0 0.815 0.04 0 0.82 0.04 0 0.825 0.04 0 0.83 0.04 0 0.835 0.04 0 0.84 0.04 0 0.845 0.04 0 0.85 0.04 0 0.855 0.04 0 0.86 0.04 0 0.865 0.04 0 0.87 0.04 0 0.875 0.04 0 0.88 0.04 0 0.885 0.04 0 0.89 0.04 0 0.895 0.04 0 0.9 0.04 0 0.905 0.04 0 0.91 0.04 0 0.915 0.04 0 0.92 0.04 0 0.925 0.04 0 0.93 0.04 0 0.935 0.04 0 0.94 0.04 0 0.945 0.04 0 0.95 0.04 0 0.955 0.04 0 0.96 0.04 0 0.965 0.04 0 0.97 0.04 0 0.975 0.04 0 0.98 0.04 0 0.985 0.04 0 0.99 0.04 0 0.995 0.04 0 1 0.04 0 0 0.06 0 0.005 0.06 0 0.01 0.06 0 0.015 0.06 0 0.02 0.06 0 0.025 0.06 0 0.03 0.06 0 0.035 0.06 0 0.04 0.06 0 0.045 0.06 0 0.05 0.06 0 0.055 0.06 0 0.06 0.06 0 0.065 0.06 0 0.07 0.06 0 0.075 0.06 0 0.08 0.06 0 0.085 0.06 0 0.09 0.06 0 0.095 0.06 0 0.1 0.06 0 0.105 0.06 0 0.11 0.06 0 0.115 0.06 0 0.12 0.06 0 0.125 0.06 0 0.13 0.06 0 0.135 0.06 0 0.14 0.06 0 0.145 0.06 0 0.15 0.06 0 0.155 0.06 0 0.16 0.06 0 0.165 0.06 0 0.17 0.06 0 0.175 0.06 0 0.18 0.06 0 0.185 0.06 0 0.19 0.06 0 0.195 0.06 0 0.2 0.06 0 0.205 0.06 0 0.21 0.06 0 0.215 0.06 0 0.22 0.06 0 0.225 0.06 0 0.23 0.06 0 0.235 0.06 0 0.24 0.06 0 0.245 0.06 0 0.25 0.06 0 0.255 0.06 0 0.26 0.06 0 0.265 0.06 0 0.27 0.06 0 0.275 0.06 0 0.28 0.06 0 0.285 0.06 0 0.29 0.06 0 0.295 0.06 0 0.3 0.06 0 0.305 0.06 0 0.31 0.06 0 0.315 0.06 0 0.32 0.06 0 0.325 0.06 0 0.33 0.06 0 0.335 0.06 0 0.34 0.06 0 0.345 0.06 0 0.35 0.06 0 0.355001 0.06 0 0.360005 0.06 0 0.365017 0.06 0 0.370048 0.06 0 0.37512 0.06 0 0.380266 0.06 0 0.385522 0.06 0 0.390923 0.06 0 0.396502 0.06 0 0.402284 0.06 0 0.408293 0.06 0 0.414555 0.06 0 0.421099 0.06 0 0.427954 0.06 0 0.435158 0.06 0 0.442753 0.06 0 0.450787 0.06 0 0.459318 0.06 0 0.468415 0.06 0 0.478157 0.06 0 0.488628 0.06 0 0.499888 0.06 0 0.511881 0.06 0 0.524151 0.06 0 0.536253 0.06 0 0.548192 0.06 0 0.56002 0.06 0 0.5718 0.06 0 0.583568 0.06 0 0.595341 0.06 0 0.597956 0.06 0 0.600497 0.06 0 0.602991 0.06 0 0.605453 0.06 0 0.607894 0.06 0 0.610317 0.06 0 0.612729 0.06 0 0.615132 0.06 0 0.617528 0.06 0 0.619918 0.06 0 0.622304 0.06 0 0.624687 0.06 0 0.627067 0.06 0 0.629443 0.06 0 0.631817 0.06 0 0.634188 0.06 0 0.636557 0.06 0 0.638924 0.06 0 0.641289 0.06 0 0.643654 0.06 0 0.646017 0.06 0 0.648381 0.06 0 0.650745 0.06 0 0.653109 0.06 0 0.655476 0.06 0 0.657847 0.06 0 0.660225 0.06 0 0.662614 0.06 0 0.665026 0.06 0 0.667462 0.06 0 0.669954 0.06 0 0.672495 0.06 0 0.675149 0.06 0 0.677916 0.06 0 0.680898 0.06 0 0.684123 0.06 0 0.687676 0.06 0 0.691579 0.06 0 0.695833 0.06 0 0.700389 0.06 0 0.705162 0.06 0 0.710062 0.06 0 0.715023 0.06 0 0.720008 0.06 0 0.725003 0.06 0 0.730001 0.06 0 0.735 0.06 0 0.74 0.06 0 0
[...]
			<PointData Scalars="VitesseX">
				<DataArray Name="VitesseX" type="Float32" format="ascii">
 0 -2.35066e-15 -4.63627e-15 -6.24104e-15 -1.14588e-14 -9.70622e-15 -1.21174e-14 -1.11252e-14 -1.86168e-14 -1.70014e-14 -1.58564e-14 -2.07402e-14 -1.98241e-14 -1.76624e-14 -1.78977e-14 -1.90271e-14 -1.29864e-14 -2.20937e-14 -1.85301e-14 -1.39325e-14 -1.61039e-14 -3.74418e-14 -1.94749e-14 -1.37255e-14 -2.64883e-14 -5.69579e-15 -1.92092e-14 -2.40231e-14 -2.6617e-14 2.03986e-15 -2.30825e-14 -1.65034e-14 -2.54604e-14 -2.56192e-14 -2.16381e-14 1.35242e-15 -1.89651e-14 -5.7477e-15 -4.72778e-16 -5.46202e-15 -2.05917e-14 -2.9069e-14 -3.20336e-14 -2.36052e-14 -2.65888e-14 -2.86531e-14 -3.08303e-14 -9.06128e-15 -4.69714e-14 -5.08641e-14 -1.13681e-14 -5.0446e-14 -3.77335e-14 -7.45246e-16 -5.03903e-14 -2.76638e-14 -4.20764e-15 8.1372e-15 4.13078e-15 1.48253e-13 1.01364e-12 9.33959e-12 7.78974e-11 6.10792e-10 4.45175e-09 3.00552e-08 1.87202e-07 1.07077e-06 5.59407e-06 2.65235e-05 0.000113258 0.00043153 0.00145108 0.00425496 0.0107643 0.0233757 0.0438063 0.0720653 0.106712 0.146013 0.188744 0.234285 0.282416 0.333124 0.38651 0.44274 0.502027 0.564606 0.63069 0.700378 0.773365 0.848115 0.919095 0.967821 0.961027 0.946987 0.936142 0.931107 0.929404 0.928524 0.927708 0.927597 0.927499 0.927409 0.927326 0.927248 0.927171 0.927096 0.927018 0.926939 0.926853 0.926766 0.926664 0.926569 0.926444 0.926347 0.926192 0.926107 0.925894 0.925842 0.925498 0.925489 0.924808 0.924845 0.923193 0.92334 0.918816 0.919287 0.907004 0.908462 0.878663 0.882689 0.821632 0.823054 0.721287 0.674281 0.549354 0.438221 0.309257 0.194818 0.105294 0.048727 0.019868 0.00749886 0.0027204 0.000966503 0.000338662 0.000117261 4.01188e-05 1.35536e-05 4.51759e-06 1.48442e-06 4.80492e-07 1.53117e-07 4.80103e-08 1.48057e-08 4.48882e-09 1.33758e-09 3.91546e-10 1.12554e-10 3.16379e-11 8.72989e-12 2.34069e-12 5.40801e-13 1.51601e-13 -6.46366e-14 2.6114e-14 -1.14384e-13 -8.96084e-15 -6.74158e-14 -1.32954e-13 7.13196e-14 1.97376e-14 4.26332e-14 -1.7334e-15 -4.23345e-14 5.22631e-14 9.55219e-14 1.06243e-13 -1.1646e-14 1.18011e-14 1.14511e-13 5.52522e-14 2.472e-14 6.73913e-14 6.77513e-14 6.4543e-14 3.36882e-14 -1.06588e-13 1.02533e-13 1.41779e-13 8.61891e-14 -1.01161e-15 -6.64589e-14 8.80133e-14 -6.63053e-15 1.22132e-14 -5.10272e-14 -4.57007e-14 -1.99299e-14 0 0 -3.08021e-15 -4.22937e-15 -7.01284e-15 -1.10658e-14 -9.34517e-15 -1.16937e-14 -1.43758e-14 -1.8707e-14 -1.66948e-14 -2.5741e-14 -1.62369e-14 -2.16064e-14 -2.26757e-14 -1.50771e-14 -1.62202e-14 -1.092e-14 -1.71065e-14 -2.31289e-14 -1.70064e-14 -2.48116e-14 -1.67241e-14 -1.25605e-14 -2.22053e-14 -1.43156e-14 -9.9294e-15 -2.51403e-14 -2.39549e-14 -2.47932e-14 -1.67367e-14 -1.70086e-14 3.85061e-15 -1.81571e-14 -2.23456e-14 -8.56653e-15 -2.21139e-14 -1.96075e-14 1.89534e-15 7.66547e-15 -3.58861e-14 -2.9734e-14 -2.01873e-14 -2.70164e-14 -5.0238e-14 -1.43401e-14 -3.66578e-14 -3.20086e-14 -1.56662e-14 -2.11924e-14 -3.11506e-14 -1.91196e-14 -4.26448e-14 -3.20403e-14 -2.5483e-14 -3.89801e-14 -3.82613e-14 2.82433e-15 -1.76505e-14 2.97614e-14 1.55254e-13 1.04868e-12 9.31698e-12 7.79274e-11 6.10825e-10 4.45174e-09 3.00551e-08 1.87202e-07 1.07077e-06 5.59407e-06 2.65235e-05 0.000113258 0.00043153 0.00145108 0.00425496 0.0107643 0.0233757 0.0438063 0.0720653 0.106712 0.146013 0.188744 0.234285 0.282416 0.333124 0.38651 0.44274 0.502027 0.564606 0.63069 0.700378 0.773365 0.848115 0.919095 0.967821 0.961027 0.946987 0.936142 0.931107 0.929404 0.928524 0.927708 0.927597 0.927499 0.927409 0.927326 0.927248 0.927171 0.927096 0.927018 0.926939 0.926853 0.926766 0.926664 0.926569 0.926444 0.926347 0.926192 0.926107 0.925894 0.925842 0.925498 0.925489 0.924808 0.924845 0.923193 0.92334 0.918816 0.919287 0.907004 0.908462 0.878663 0.882689 0.821632 0.823054 0.721287 0.674281 0.549354 0.438221 0.309257 0.194818 0.105294 0.048727 0.019868 0.00749886 0.0027204 0.000966503 0.000338662 0.000117261 4.01188e-05 1.35536e-05 4.51759e-06 1.48442e-06 4.80492e-07 1.53117e-07 4.80104e-08 1.48056e-08 4.48885e-09 1.33757e-09 3.91469e-10 1.12544e-10 3.17309e-11 8.75499e-12 2.27665e-12 5.38272e-13 3.73523e-14 2.35933e-14 -8.40449e-14 -1.15248e-16 -3.18019e-15 -1.01624e-13 -3.86114e-14 -3.99976e-14 7.95144e-14 -8.08072e-15 5.50524e-14 -5.29764e-14 5.66463e-14 -4.25021e-14 8.89175e-14 5.45604e-14 6.75317e-14 1.05955e-13 -3.87988e-14 8.52725e-14 9.17899e-14 7.07151e-14 4.36997e-14 1.8005e-14 4.84604e-14 7.53023e-14 4.089e-14 4.10856e-15 6.62234e-14 2.12942e-14 2.76729e-14 -7.45773e-14 6.0931e-14 -5.10864e-14 -1.1088e-13 -3.8455e-14 0 0 -3.93571e-15 -4.2816e-15 -8.80454e-15 -9.42924e-15 -9.46322e-15 -9.81037e-15 -1.82132e-14 -1.87269e-14 -1.96855e-14 -2.32987e-14 -2.17562e-14 -3.00115e-14 -2.53992e-14 -1.22706e-14 -1.98772e-14 -1.5005e-14 -9.46311e-15 -2.2951e-14 -1.32307e-14 -1.32113e-14 -1.78638e-14 -5.64727e-15 -1.93435e-14 -1.50502e-14 -2.31707e-14 -2.45698e-14 -3.49152e-14 -2.08664e-14 -1.34438e-14 -2.14419e-14 3.33076e-14 -1.14601e-14 1.17709e-14 -1.04453e-14 -2.18229e-14 -2.29126e-14 1.05568e-14 -1.93087e-14 -4.29983e-14 -3.86974e-14 -4.50561e-14 -3.18085e-14 -3.98767e-14 -3.85861e-14 -1.70759e-14 -4.25004e-14 -3.54637e-14 -1.81059e-14 3.16918e-16 -2.16967e-14 -5.47092e-14 -2.29795e-14 -6.94424e-15 -3.76351e-14 -3.08409e-14 -1.38314e-14 -2.07841e-14 6.65348e-14 1.57255e-13 1.10611e-12 9.36827e-12 7.79729e-11 6.10819e-10 4.45178e-09 3.00551e-08 1.87202e-07 1.07077e-06 5.59407e-06 2.65235e-05 0.000113258 0.00043153 0.00145108 0.00425496 0.0107643 0.0233757 0.0438063 0.0720653 0.106712 0.146013 0.188744 0.234285 0.282416 0.333124 0.38651 0.44274 0.502027 0.564606 0.63069 0.700378 0.773365 0.848115 0.919095 0.967821 0.961027 0.946987 0.936142 0.931107 0.929404 0.928524 0.927708 0.927597 0.927499 0.927409 0.927326 0.927248 0.927171 0.927096 0.927018 0.926939 0.926853 0.926766 0.926664 0.926569 0.926444 0.926347 0.926192 0.926107 0.925894 0.925842 0.925498 0.925489 0.924808 0.924845 0.923193 0.92334 0.918816 0.919287 0.907004 0.908462 0.878663 0.882689 0.821632 0.823054 0.721287 0.674281 0.549354 0.438221 0.309257 0.194818 0.105294 0.048727 0.019868 0.00749886 0.0027204 0.000966503 0.000338662 0.000117261 4.01188e-05 1.35536e-05 4.51759e-06 1.48442e-06 4.80492e-07 1.53117e-07 4.80103e-08 1.48056e-08 4.48882e-09 1.33759e-09 3.91517e-10 1.12505e-10 3.16884e-11 8.67462e-12 2.16391e-12 5.74065e-13 8.32149e-14 -1.72565e-14 5.27539e-14 -1.1367e-13 -8.28483e-15 -1.8971e-14 1.13166e-13 -1.37211e-14 3.76221e-15 -8.39196e-14 1.70239e-14 -9.13917e-15 8.58177e-14 -9.09968e-14 -1.11037e-13 9.73071e-14 1.16993e-13 1.07642e-13 -2.65309e-14 3.4326e-14 7.47816e-14 1.10786e-13 -1.99679e-14 1.27646e-13 1.07073e-13 -7.31201e-14 4.01674e-14 2.6006e-14 2.93037e-14 1.12545e-13 -3.38541e-14 -1.01009e-13 -4.46259e-14 -1.97658e-14 -7.10195e-14 -9.44644e-14 0 0 -3.5821e-15 -4.27553e-15 -1.0312e-14 -8.79979e-15 -1.12004e-14 -1.519e-14 -1.94529e-14 -1.84872e-14 -2.10139e-14 -2.33893e-14 -3.28869e-14 -2.2112e-14 -3.41933e-14 -2.12967e-14 -8.41331e-15 -3.15848e-14 -2.64139e-15 -1.32552e-14 -1.23446e-14 2.67039e-16 -2.23626e-14 -1.21434e-14 -2.99571e-14 -1.54795e-14 -1.50595e-14 -1.48376e-14 -2.17238e-14 -4.44115e-14 -1.08268e-14 3.16574e-16 3.71972e-14 7.87284e-15 2.10665e-14 -1.01412e-14 -1.98239e-14 -7.86758e-15 -9.22567e-15 -4.08836e-14 -3.03242e-14 -5.78485e-14 -5.47199e-14 -2.77925e-14 -6.46695e-14 -3.4872e-14 -5.68175e-15 -3.26212e-14 -5.91095e-14 -2.01717e-14 -4.59787e-14 -2.35431e-14 -5.2784e-14 -5.54886e-15 4.86018e-15 1.43824e-14 -4.09781e-14 -3.86704e-16 3.34127e-15 1.02173e-13 1.79479e-13 1.14297e-12 9.45574e-12 7.79568e-11 6.1083e-10 4.45183e-09 3.00551e-08 1.87202e-07 1.07077e-06 5.59407e-06 2.65235e-05 0.000113258 0.00043153 0.00145108 0.00425496 0.0107643 0.0233757 0.0438063 0.0720653 0.106712 0.146013 0.188744 0.234285 0.282416 0.333124 0.38651 0.44274 0.502027 0.564606 0.63069 0.700378 0.773365 0.848115 0.919095 0.967821 0.961027 0.946987 0.936142 0.931107 0.929404 0.928524 0.927708 0.927597 0.927499 0.927409 0.927326 0.927248 0.927171 0.927096 0.927018 0.926939 0.926853 0.926766 0.926664 0.926569 0.926444 0.926347 0.926192 0.926107 0.925894 0.925842 0.925498 0.925489 0.924808 0.924845 0.923193 0.92334 0.918816 0.919287 0.907004 0.908462 0.878663 0.882689 0.821632 0.823054 0.721287 0.674281 0.549354 0.438221 0.309257 0.194818 0.105294 0.048727 0.019868 0.00749886 0.0027204 0.000966503 0.000338662 0.000117261 4.01188e-05 1.35536e-05 4.51759e-06 1.48442e-06 4.80492e-07 1.53117e-07 4.80103e-08 1.48056e-08 4.4888e-09 1.33756e-09 3.91505e-10 1.12502e-10 3.16402e-11 8.59e-12 2.14231e-12 5.53057e-13 8.21422e-14 1.41972e-13 -1.13217e-13 -9.06181e-14 2.68879e-14 -2.64071e-14 1.01229e-13 5.99847e-14 -1.77272e-13 -1.27962e-13 9.76731e-14 -2.29316e-14 8.71802e-14 -5.14448e-14 -5.40692e-15 1.06376e-13 -9.60617e-14 1.4415e-13 6.81421e-14 -6.34946e-14 -5.75773e-14 1.66212e-13 -2.90928e-14 3.07462e-14 5.0642e-14 8.31951e-15 3.68406e-14 7.21636e-14 -1.86181e-14 8.1869e-14 -1.33509e-13 -1.54976e-14 2.02631e-14 -5.99695e-14 -3.39192e-14 -5.35751e-16 0 0 -2.88992e-15 -6.4583e-15 -1.20732e-14 -1.51828e-14 -1.37754e-14 -1.99083e-14 -2.25631e-14 -2.23784e-14 -2.15468e-14 -2.95359e-14 -3.26131e-14 -2.47415e-14 -2.99309e-14 -1.54818e-14 5.84637e-16 -9.92481e-15 -7.07572e-15 -1.27231e-14 -3.63272e-14 -1.93505e-14 -2.26601e-14 -9.06442e-15 -3.46035e-14 -2.29622e-15 -3.70023e-15 -8.85261e-15 -1.01545e-14 -3.64168e-14 -1.20058e-14 7.16531e-15 2.07073e-14 2.24849e-15 1.27451e-14 8.42812e-15 -1.77239e-14 -2.08616e-14 -1.80322e-14 -4.16584e-14 -3.31318e-14 -6.94879e-14 -2.71746e-14 -3.816e-14 -1.11623e-13 -3.78293e-14 -2.58205e-14 -3.38031e-14 -2.51353e-14 -2.05377e-14 -9.71288e-14 -4.27445e-14 -2.78733e-14 -8.39589e-15 -1.80237e-14 8.40173e-14 -2.88889e-14 2.27254e-14 -9.33304e-15 6.04278e-14 2.3842e-13 1.15713e-12 9.47325e-12 7.8004e-11 6.10869e-10 4.45184e-09 3.00552e-08 1.87202e-07 1.07077e-06 5.59407e-06 2.65235e-05 0.000113258 0.00043153 0.00145108 0.00425496 0.0107643 0.0233757 0.0438063 0.0720653 0.106712 0.146013 0.188744 0.234285 0.282416 0.333124 0.38651 0.44274 0.502027 0.564606 0.63069 0.700378 0.773365 0.848115 0.919095 0.967821 0.961027 0.946987 0.936142 0.931107 0.929404 0.928524 0.927708 0.927597 0.927499 0.927409 0.927326 0.927248 0.927171 0.927096 0.927018 0.926939 0.926853 0.926766 0.926664 0.926569 0.926444 0.926347 0.926192 0.926107 0.925894 0.925842 0.925498 0.925489 0.924808 0.924845 0.923193 0.92334 0.918816 0.919287 0.907004 0.908462 0.878663 0.882689 0.821632 0.823054 0.721287 0.674281 0.549354 0.438221 0.309257 0.194818 0.105294 0.048727 0.019868 0.00749886 0.0027204 0.000966503 0.000338662 0.000117261 4.01188e-05 1.35536e-05 4.51759e-06 1.48442e-06 4.80492e-07 1.53117e-07 4.80104e-08 1.48055e-08 4.48895e-09 1.33742e-09 3.91384e-10 1.12605e-10 3.14815e-11 8.65049e-12 2.19887e-12 4.45987e-13 1.12956e-13 5.39593e-14 -1.74207e-13 1.33996e-13 -5.43374e-14 -7.83007e-14 2.65791e-14 -1.44843e-13 -1.63464e-13 -8.20277e-14 3.74846e-14 -4.74803e-15 2.16618e-13 -9.35036e-14 2.16183e-13 -1.12331e-14 -1.7427e-13 1.04851e-13 1.79785e-14 1.7339e-13 -6.1993e-14 -8.58496e-14 1.41679e-13 -1.43984e-13 1.76668e-14 9.31173e-14 -1.03666e-13 6.8128e-15 3.19347e-14 1.01953e-13 -2.07629e-13 -1.42781e-14 1.31294e-13 -3.99469e-14 -1.89813e-14 1.62566e-13 0 0 -2.67728e-15 -9.10627e-15 -1.3347e-14 -2.09519e-14 -1.50925e-14 -1.77872e-14 -2.50203e-14 -2.6439e-14 -2.40486e-14 -2.32654e-14 -3.12312e-14 -4.18934e-14 -1.45846e-14 -6.54952e-16 -8.34512e-15 2.21636e-14 -1.56756e-14 -1.711e-14 -5.4346e-14 -3.21382e-14 -4.03164e-14 5.0936e-16 -1.72948e-14 -1.59091e-15 -9.45978e-15 -6.09798e-15 -2.28052e-14 -2.77416e-15 6.26773e-15 -1.82516e-14 9.43086e-15 -2.33152e-14 2.5971e-14 1.17428e-14 6.13422e-15 -5.15632e-14 -6.03781e-15 -5.59707e-14 -2.53018e-14 -6.17973e-14 -2.37162e-14 -6.23526e-14 -9.67906e-14 -8.09952e-14 -2.97667e-14 -5.41776e-14 1.9292e-14 -4.15306e-14 -9.02293e-14 -5.49253e-14 -2.47533e-14 -2.53059e-14 -9.43548e-15 9.15697e-14 1.13552e-14 8.70517e-15 -2.34786e-14 -5.81261e-15 2.70134e-13 1.15683e-12 9.47719e-12 7.80828e-11 6.10857e-10 4.45184e-09 3.00552e-08 1.87202e-07 1.07077e-06 5.59407e-06 2.65235e-05 0.000113258 0.00043153 0.00145108 0.00425496 0.0107643 0.0233757 0.0438063 0.0720653 0.106712 0.146013 0.188744 0.234285 0.282416 0.333124 0.38651 0.44274 0.502027 0.564606 0.63069 0.700378 0.773365 0.848115 0.919095 0.967821 0.961027 0.946987 0.936142 0.931107 0.929404 0.928524 0.927708 0.927597 0.927499 0.927409 0.927326 0.927248 0.927171 0.927096 0.927018 0.926939 0.926853 0.926766 0.926664 0.926569 0.926444 0.926347 0.926192 0.926107 0.925894 0.925842 0.925498 0.925489 0.924808 0.924845 0.923193 0.92334 0.918816 0.919287 0.907004 0.908462 0.878663 0.882689 0.821632 0.823054 0.721287 0.674281 0.549354 0.438221 0.309257 0.194818 0.105294 0.048727 0.019868 0.00749886 0.0027204 0.000966503 0.000338662 0.000117261 4.01188e-05 1.35536e-05 4.51759e-06 1.48442e-06 4.80492e-07 1.53117e-07 4.80104e-08 1.48054e-08 4.48906e-09 1.33733e-09 3.914e-10 1.1268e-10 3.1235e-11 8.6894e-12 2.22803e-12 3.98335e-13 3.04736e-13 -3.23027e-13 1.77195e-13 1.07255e-13 -1.81581e-13 -5.60937e-15 2.13553e-14 -2.85929e-13 -1.04485e-13 -1.75278e-14 -1.98204e-13 8.17915e-14 3.69714e-13 -8.50609e-14 1.49466e-13 -1.61403e-13 -4.52414e-14 3.92913e-14 -2.0656e-14 3.969e-13 2.47158e-14 -3.55985e-13 2.79052e-13 -9.64512e-14 -5.50463e-14 -2.46938e-14 -1.40974e-13 -5.94617e-16 2.64762e-14 1.5633e-13 -1.83223e-13 -5.70968e-14 2.31025e-14 5.15443e-14 6.37536e-14 1.94287e-13 0
				</DataArray>
				<DataArray Name="VitesseY" type="Float32" format="ascii">