<?xml version="1.0"?>
<VTKFile type="PolyData">
	<PolyData>
		<Piece NumberOfPoints="1206" NumberOfPolys="1000">
			<Points>
				<DataArray type="Float32" NumberOfComponents="3" format="ascii">
 0 0 0 0.005 0 0 0.01 0 0 0.015 0 0 0.02 0 0 0.025 0 0 0.03 0 0 0.035 0 0 0.04 0 0 0.045 0 0 0.05 0 0 0.055 0 0 0.06 0 0 0.065 0 0 0.07 0 0 0.075 0 0 0.08 0 0 0.085 0 0 0.09 0 0 0.095 0 0 0.1 0 0 0.105 0 0 0.11 0 0 0.115 0 0 0.12 0 0 0.125 0 0 0.13 0 0 0.135 0 0 0.14 0 0 0.145 0 0 0.15 0 0 0.155 0 0 0.16 0 0 0.165 0 0 0.17 0 0 0.175 0 0 0.18 0 0 0.185 0 0 0.19 0 0 0.195 0 0 0.2 0 0 0.205 0 0 0.21 0 0 0.215 0 0 0.22 0 0 0.225 0 0 0.23 0 0 0.235 0 0 0.24 0 0 0.245 0 0 0.25 0 0 0.255 0 0 0.26 0 0 0.265 0 0 0.27 0 0 0.275 0 0 0.28 0 0 0.285 0 0 0.29 0 0 0.295 0 0 0.3 0 0 0.305 0 0 0.31 0 0 0.315 0 0 0.32 0 0 0.325 0 0 0.33 0 0 0.335 0 0 0.34 0 0 0.345 0 0 0.35 0 0 0.355 0 0 0.36 0 0 0.365 0 0 0.37 0 0 0.375 0 0 0.38 0 0 0.385 0 0 0.39 0 0 0.395 0 0 0.4 0 0 0.405001 0 0 0.410003 0 0 0.415014 0 0 0.42005 0 0 0.425152 0 0 0.430383 0 0 0.435823 0 0 0.44155 0 0 0.447637 0 0 0.454158 0 0 0.461199 0 0 0.468865 0 0 0.477291 0 0 0.486646 0 0 0.497126 0 0 0.508838 0 0 0.521269 0 0 0.53344 0 0 0.545369 0 0 0.557195 0 0 0.559819 0 0 0.562367 0 0 0.564869 0 0 0.56734 0 0 0.569789 0 0 0.572222 0 0 0.574641 0 0 0.57705 0 0 0.579452 0 0 0.58185 0 0 0.584241 0 0 0.586628 0 0 0.589014 0 0 0.591403 0 0 0.593809 0 0 0.596236 0 0 0.598721 0 0 0.601296 0 0 0.603966 0 0 0.606829 0 0 0.609909 0 0 0.613295 0 0 0.617021 0 0 0.621111 0 0 0.625536 0 0 0.630225 0 0 0.635084 0 0 0.640029 0 0 0.645009 0 0 0.650003 0 0 0.655001 0 0 0.66 0 0 0.665 0 0 0.67 0 0 0.675 0 0 0.68 0 0 0.685 0 0 0.69 0 0 0.695 0 0 0.7 0 0 0.705 0 0 0.71 0 0 0.715 0 0 0.72 0 0 0.725 0 0 0.73 0 0 0.735 0 0 0.74 0 0 0.745 0 0 0.75 0 0 0.755 0 0 0.76 0 0 0.765 0 0 0.77 0 0 0.775 0 0 0.78 0 0 0.785 0 0 0.79 0 0 0.795 0 0 0.8 0 0 0.805 0 0 0.81 0 0 0.815 0 0 0.82 0 0 0.825 0 0 0.83 0 0 0.835 0 0 0.84 0 0 0.845 0 0 0.85 0 0 0.855 0 0 0.86 0 0 0.865 0 0 0.87 0 0 0.875 0 0 0.88 0 0 0.885 0 0 0.89 0 0 0.895 0 0 0.9 0 0 0.905 0 0 0.91 0 0 0.915 0 0 0.92 0 0 0.925 0 0 0.93 0 0 0.935 0 0 0.94 0 0 0.945 0 0 0.95 0 0 0.955 0 0 0.96 0 0 0.965 0 0 0.97 0 0 0.975 0 0 0.98 0 0 0.985 0 0 0.99 0 0 0.995 0 0 1 0 0 0 0.02 0 0.005 0.02 0 0.01 0.02 0 0.015 0.02 0 0.02 0.02 0 0.025 0.02 0 0.03 0.02 0 0.035 0.02 0 0.04 0.02 0 0.045 0.02 0 0.05 0.02 0 0.055 0.02 0 0.06 0.02 0 0.065 0.02 0 0.07 0.02 0 0.075 0.02 0 0.08 0.02 0 0.085 0.02 0 0.09 0.02 0 0.095 0.02 0 0.1 0.02 0 0.105 0.02 0 0.11 0.02 0 0.115 0.02 0 0.12 0.02 0 0.125 0.02 0 0.13 0.02 0 0.135 0.02 0 0.14 0.02 0 0.145 0.02 0 0.15 0.02 0 0.155 0.02 0 0.16 0.02 0 0.165 0.02 0 0.17 0.02 0 0.175 0.02 0 0.18 0.02 0 0.185 0.02 0 0.19 0.02 0 0.195 0.02 0 0.2 0.02 0 0.205 0.02 0 0.21 0.02 0 0.215 0.02 0 0.22 0.02 0 0.225 0.02 0 0.23 0.02 0 0.235 0.02 0 0.24 0.02 0 0.245 0.02 0 0.25 0.02 0 0.255 0.02 0 0.26 0.02 0 0.265 0.02 0 0.27 0.02 0 0.275 0.02 0 0.28 0.02 0 0.285 0.02 0 0.29 0.02 0 0.295 0.02 0 0.3 0.02 0 0.305 0.02 0 0.31 0.02 0 0.315 0.02 0 0.32 0.02 0 0.325 0.02 0 0.33 0.02 0 0.335 0.02 0 0.34 0.02 0 0.345 0.02 0 0.35 0.02 0 0.355 0.02 0 0.36 0.02 0 0.365 0.02 0 0.37 0.02 0 0.375 0.02 0 0.38 0.02 0 0.385 0.02 0 0.39 0.02 0 0.395 0.02 0 0.4 0.02 0 0.405001 0.02 0 0.410003 0.02 0 0.415014 0.02 0 0.42005 0.02 0 0.425152 0.02 0 0.430383 0.02 0 0.435823 0.02 0 0.44155 0.02 0 0.447637 0.02 0 0.454158 0.02 0 0.461199 0.02 0 0.468865 0.02 0 0.477291 0.02 0 0.486646 0.02 0 0.497126 0.02 0 0.508838 0.02 0 0.521269 0.02 0 0.53344 0.02 0 0.545369 0.02 0 0.557195 0.02 0 0.559819 0.02 0 0.562367 0.02 0 0.564869 0.02 0 0.56734 0.02 0 0.569789 0.02 0 0.572222 0.02 0 0.574641 0.02 0 0.57705 0.02 0 0.579452 0.02 0 0.58185 0.02 0 0.584241 0.02 0 0.586628 0.02 0 0.589014 0.02 0 0.591403 0.02 0 0.593809 0.02 0 0.596236 0.02 0 0.598721 0.02 0 0.601296 0.02 0 0.603966 0.02 0 0.606829 0.02 0 0.609909 0.02 0 0.613295 0.02 0 0.617021 0.02 0 0.621111 0.02 0 0.625536 0.02 0 0.630225 0.02 0 0.635084 0.02 0 0.640029 0.02 0 0.645009 0.02 0 0.650003 0.02 0 0.655001 0.02 0 0.66 0.02 0 0.665 0.02 0 0.67 0.02 0 0.675 0.02 0 0.68 0.02 0 0.685 0.02 0 0.69 0.02 0 0.695 0.02 0 0.7 0.02 0 0.705 0.02 0 0.71 0.02 0 0.715 0.02 0 0.72 0.02 0 0.725 0.02 0 0.73 0.02 0 0.735 0.02 0 0.74 0.02 0 0.745 0.02 0 0.75 0.02 0 0.755 0.02 0 0.76 0.02 0 0.765 0.02 0 0.77 0.02 0 0.775 0.02 0 0.78 0.02 0 0.785 0.02 0 0.79 0.02 0 0.795 0.02 0 0.8 0.02 0 0.805 0.02 0 0.81 0.02 0 0.815 0.02 0 0.82 0.02 0 0.825 0.02 0 0.83 0.02 0 0.835 0.02 0 0.84 0.02 0 0.845 0.02 0 0.85 0.02 0 0.855 0.02 0 0.86 0.02 0 0.865 0.02 0 0.87 0.02 0 0.875 0.02 0 0.88 0.02 0 0.885 0.02 0 0.89 0.02 0 0.895 0.02 0 0.9 0.02 0 0.905 0.02 0 0.91 0.02 0 0.915 0.02 0 0.92 0.02 0 0.925 0.02 0 0.93 0.02 0 0.935 0.02 0 0.94 0.02 0 0.945 0.02 0 0.95 0.02 0 0.955 0.02 0 0.96 0.02 0 0.965 0.02 0 0.97 0.02 0 0.975 0.02 0 0.98 0.02 0 0.985 0.02 0 0.99 0.02 0 0.995 0.02 0 1 0.02 0 0 0.04 0 0.005 0.04 0 0.01 0.04 0 0.015 0.04 0 0.02 0.04 0 0.025 0.04 0 0.03 0.04 0 0.035 0.04 0 0.04 0.04 0 0.045 0.04 0 0.05 0.04 0 0.055 0.04 0 0.06 0.04 0 0.065 0.04 0 0.07 0.04 0 0.075 0.04 0 0.08 0.04 0 0.085 0.04 0 0.09 0.04 0 0.095 0.04 0 0.1 0.04 0 0.105 0.04 0 0.11 0.04 0 0.115 0.04 0 0.12 0.04 0 0.125 0.04 0 0.13 0.04 0 0.135 0.04 0 0.14 0.04 0 0.145 0.04 0 0.15 0.04 0 0.155 0.04 0 0.16 0.04 0 0.165 0.04 0 0.17 0.04 0 0.175 0.04 0 0.18 0.04 0 0.185 0.04 0 0.19 0.04 0 0.195 0.04 0 0.2 0.04 0 0.205 0.04 0 0.21 0.04 0 0.215 0.04 0 0.22 0.04 0 0.225 0.04 0 0.23 0.04 0 0.235 0.04 0 0.24 0.04 0 0.245 0.04 0 0.25 0.04 0 0.255 0.04 0 0.26 0.04 0 0.265 0.04 0 0.27 0.04 0 0.275 0.04 0 0.28 0.04 0 0.285 0.04 0 0.29 0.04 0 0.295 0.04 0 0.3 0.04 0 0.305 0.04 0 0.31 0.04 0 0.315 0.04 0 0.32 0.04 0 0.325 0.04 0 0.33 0.04 0 0.335 0.04 0 0.34 0.04 0 0.345 0.04 0 0.35 0.04 0 0.355 0.04 0 0.36 0.04 0 0.365 0.04 0 0.37 0.04 0 0.375 0.04 0 0.38 0.04 0 0.385 0.04 0 0.39 0.04 0 0.395 0.04 0 0.4 0.04 0 0.405001 0.04 0 0.410003 0.04 0 0.415014 0.04 0 0.42005 0.04 0 0.425152 0.04 0 0.430383 0.04 0 0.435823 0.04 0 0.44155 0.04 0 0.447637 0.04 0 0.454158 0.04 0 0.461199 0.04 0 0.468865 0.04 0 0.477291 0.04 0 0.486646 0.04 0 0.497126 0.04 0 0.508838 0.04 0 0.521269 0.04 0 0.53344 0.04 0 0.545369 0.04 0 0.557195 0.04 0 0.559819 0.04 0 0.562367 0.04 0 0.564869 0.04 0 0.56734 0.04 0 0.569789 0.04 0 0.572222 0.04 0 0.574641 0.04 0 0.57705 0.04 0 0.579452 0.04 0 0.58185 0.04 0 0.584241 0.04 0 0.586628 0.04 0 0.589014 0.04 0 0.591403 0.04 0 0.593809 0.04 0 0.596236 0.04 0 0.598721 0.04 0 0.601296 0.04 0 0.603966 0.04 0 0.606829 0.04 0 0.609909 0.04 0 0.613295 0.04 0 0.617021 0.04 0 0.621111 0.04 0 0.625536 0.04 0 0.630225 0.04 0 0.635084 0.04 0 0.640029 0.04 0 0.645009 0.04 0 0.650003 0.04 0 0.655001 0.04 0 0.66 0.04 0 0.665 0.04 0 0.67 0.04 0 0.675 0.04 0 0.68 0.04 0 0.685 0.04 0 0.69 0.04 0 0.695 0.04 0 0.7 0.04 0 0.705 0.04 0 0.71 0.04 0 0.715 0.04 0 0.72 0.04 0 0.725 0.04 0 0.73 0.04 0 0.735 0.04 0 0.74 0.04 0 0.745 0.04 0 0.75 0.04 0 0.755 0.04 0 0.76 0.04 0 0.765 0.04 0 0.77 0.04 0 0.775 0.04 0 0.78 0.04 0 0.785 0.04 0 0.79 0.04 0 0.795 0.04 0 0.8 0.04 0 0.805 0.04 0 0.81 0.04 0 0.815 0.04 0 0.82 0.04 0 0.825 0.04 0 0.83 0.04 0 0.835 0.04 0 0.84 0.04 0 0.845 0.04 0 0.85 0.04 0 0.855 0.04 0 0.86 0.04 0 0.865 0.04 0 0.87 0.04 0 0.875 0.04 0 0.88 0.04 0 0.885 0.04 0 0.89 0.04 0 0.895 0.04 0 0.9 0.04 0 0.905 0.04 0 0.91 0.04 0 0.915 0.04 0 0.92 0.04 0 0.925 0.04 0 0.93 0.04 0 0.935 0.04 0 0.94 0.04 0 0.945 0.04 0 0.95 0.04 0 0.955 0.04 0 0.96 0.04 0 0.965 0.04 0 0.97 0.04 0 0.975 0.04 0 0.98 0.04 0 0.985 0.04 0 0.99 0.04 0 0.995 0.04 0 1 0.04 0 0 0.06 0 0.005 0.06 0 0.01 0.06 0 0.015 0.06 0 0.02 0.06 0 0.025 0.06 0 0.03 0.06 0 0.035 0.06 0 0.04 0.06 0 0.045 0.06 0 0.05 0.06 0 0.055 0.06 0 0.06 0.06 0 0.065 0.06 0 0.07 0.06 0 0.075 0.06 0 0.08 0.06 0 0.085 0.06 0 0.09 0.06 0 0.095 0.06 0 0.1 0.06 0 0.105 0.06 0 0.11 0.06 0 0.115 0.06 0 0.12 0.06 0 0.125 0.06 0 0.13 0.06 0 0.135 0.06 0 0.14 0.06 0 0.145 0.06 0 0.15 0.06 0 0.155 0.06 0 0.16 0.06 0 0.165 0.06 0 0.17 0.06 0 0.175 0.06 0 0.18 0.06 0 0.185 0.06 0 0.19 0.06 0 0.195 0.06 0 0.2 0.06 0 0.205 0.06 0 0.21 0.06 0 0.215 0.06 0 0.22 0.06 0 0.225 0.06 0 0.23 0.06 0 0.235 0.06 0 0.24 0.06 0 0.245 0.06 0 0.25 0.06 0 0.255 0.06 0 0.26 0.06 0 0.265 0.06 0 0.27 0.06 0 0.275 0.06 0 0.28 0.06 0 0.285 0.06 0 0.29 0.06 0 0.295 0.06 0 0.3 0.06 0 0.305 0.06 0 0.31 0.06 0 0.315 0.06 0 0.32 0.06 0 0.325 0.06 0 0.33 0.06 0 0.335 0.06 0 0.34 0.06 0 0.345 0.06 0 0.35 0.06 0 0.355 0.06 0 0.36 0.06 0 0.365 0.06 0 0.37 0.06 0 0.375 0.06 0 0.38 0.06 0 0.385 0.06 0 0.39 0.06 0 0.395 0.06 0 0.4 0.06 0 0.405001 0.06 0 0.410003 0.06 0 0.415014 0.06 0 0.42005 0.06 0 0.425152 0.06 0 0.430383 0.06 0 0.435823 0.06 0 0.44155 0.06 0 0.447637 0.06 0 0.454158 0.06 0 0.461199 0.06 0 0.468865 0.06 0 0.477291 0.06 0 0.486646 0.06 0 0.497126 0.06 0 0.508838 0.06 0 0.521269 0.06 0 0.53344 0.06 0 0.545369 0.06 0 0.557195 0.06 0 0.559819 0.06 0 0.562367 0.06 0 0.564869 0.06 0 0.56734 0.06 0 0.569789 0.06 0 0.572222 0.06 0 0.574641 0.06 0 0.57705 0.06 0 0.579452 0.06 0 0.58185 0.06 0 0.584241 0.06 0 0.586628 0.06 0 0.589014 0.06 0 0.591403 0.06 0 0.593809 0.06 0 0.596236 0.06 0 0.598721 0.06 0 0.601296 0.06 0 0.603966 0.06 0 0.606829 0.06 0 0.609909 0.06 0 0.613295 0.06 0 0.617021 0.06 0 0.621111 0.06 0 0.625536 0.06 0 0.630225 0.06 0 0.635084 0.06 0 0.640029 0.06 0 0.645009 0.06 0 0.650003 0.06 0 0.655001 0.06 0 0.66 0.06 0 0.665 0.06 0 0.67 0.06 0 0.675 0.06 0 0.68 0.06 0 0.685 0.06 0 0.69 0.06 0 0.695 0.06 0 0.7 0.06 0 0.705 0.06 0 0.71 0.06 0 0.715 0.06 0 0.72 0.06 0 0.725 0.06 0 0.73 0.06 0 0.735 0.06 0 0.74 0.06 0 0.745 0.06 0 0.75 0.06 0 0.755 0.06 0 0.76 0.06 0 0.765 0.06 0 0.77 0.06 0 0.775 0.06 0 0.78 0.06 0 0.785 0.06 0 0.79 0.06 0 0.795 0.06 0 0.8 0.06 0 0.805 0.06 0 0.81 0.06 0 0.815 0.06 0 0.82 0.06 0 0.825 0.06 0 0.83 0.06 0 0.835 0.06 0 0.84 0.06 0 0.845 0.06 0 0.85 0.06 0 0.855 0.06 0 0.86 0.06 0 0.865 0.06 0 0.87 0.06 0 0.875 0.06 0 0.88 0.06 0 0.885 0.06 0 0.89 0.
[...]
			<PointData Scalars="VitesseX">
				<DataArray Name="VitesseX" type="Float32" format="ascii">
 0 1.26629e-15 1.46142e-15 1.41021e-15 -1.64656e-15 -1.50113e-15 -7.15538e-16 1.73305e-15 -6.13469e-15 2.35923e-16 -4.31575e-16 2.66015e-15 -5.44486e-15 -3.29776e-15 2.60005e-15 -4.34462e-16 -1.02047e-15 -2.96276e-15 -1.37514e-15 1.0783e-14 -8.19582e-15 -9.1941e-17 5.73131e-15 -1.48748e-14 1.0741e-14 9.52357e-15 -1.34975e-14 7.15839e-15 -8.43508e-15 2.23238e-14 -5.51306e-15 -4.17498e-15 -2.66395e-15 1.20689e-14 2.06699e-15 8.3918e-15 -6.79019e-15 -1.45779e-14 1.36109e-15 -3.34195e-15 1.44943e-14 -1.035e-14 -1.60076e-14 2.49303e-14 -5.42503e-15 1.52261e-14 -9.69906e-15 8.50482e-15 -7.44607e-15 -4.8664e-15 1.69461e-14 -3.16577e-14 1.12635e-14 -7.86122e-15 1.98319e-14 -3.50339e-16 -2.24611e-14 5.48302e-14 -5.0172e-14 1.56042e-14 7.37169e-15 7.00248e-15 2.02538e-14 -5.31849e-15 1.13007e-14 3.20202e-14 -2.74643e-14 2.19321e-14 -1.20093e-14 3.02202e-14 1.94902e-14 9.62009e-14 8.26421e-13 1.09889e-11 1.34697e-10 1.48703e-09 1.48589e-08 1.33463e-07 1.06993e-06 7.58989e-06 4.71468e-05 0.000253136 0.00115583 0.00440261 0.0137245 0.0346398 0.071367 0.123723 0.188353 0.262163 0.343749 0.432979 0.530338 0.636399 0.750836 0.868821 0.966166 0.970281 0.945261 0.932741 0.928881 0.928604 0.928416 0.928334 0.928179 0.927927 0.927185 0.926091 0.924538 0.922951 0.921507 0.921047 0.920627 0.921219 0.915687 0.918666 0.890664 0.853853 0.860656 0.766691 0.72863 0.609629 0.505333 0.374031 0.2503 0.144133 0.0699635 0.0287547 0.0104649 0.00354146 0.00114684 0.000359539 0.000109511 3.24268e-05 9.33209e-06 2.60915e-06 7.08441e-07 1.86755e-07 4.77876e-08 1.18678e-08 2.86016e-09 6.689e-10 1.51777e-10 3.35272e-11 7.12133e-12 1.47124e-12 3.05916e-13 5.4288e-14 1.53377e-14 2.26877e-14 -6.49788e-14 2.8082e-14 -5.7662e-15 2.41503e-14 -2.06534e-15 2.99641e-14 3.78344e-14 -5.40491e-14 7.32988e-14 -7.8524e-14 2.76662e-14 7.04897e-14 -1.11884e-14 -2.94826e-14 -6.89498e-14 1.00807e-13 -6.12325e-14 -9.53769e-14 1.35746e-13 -9.81709e-14 6.78699e-15 -8.90956e-14 9.31368e-14 -1.53087e-14 -1.95908e-14 -8.20206e-14 -2.91383e-14 1.23511e-13 3.87721e-14 -8.15812e-14 -3.82544e-14 2.29959e-14 -2.39282e-14 -3.83474e-14 -1.02012e-13 -1.58075e-14 -1.75452e-14 -9.06733e-14 5.54362e-14 -4.19675e-14 2.83892e-14 -1.8911e-14 -2.02184e-14 1.15797e-14 -2.70841e-14 -1.58355e-14 -1.61808e-14 2.90658e-14 7.20386e-14 -9.59166e-14 0 0 9.56964e-16 -8.30308e-16 1.09741e-15 -1.31587e-15 -2.67969e-15 -3.33438e-15 3.31318e-16 1.38326e-15 -1.43585e-15 -1.11012e-15 -6.14974e-15 2.28883e-15 3.11394e-15 -3.34919e-15 4.90314e-15 -4.13261e-15 -6.18275e-15 6.47225e-15 -1.33617e-15 -7.11465e-15 1.15383e-14 -7.90943e-15 2.17147e-15 -3.80997e-15 -7.05977e-15 2.34186e-14 -1.09441e-14 -7.64292e-15 1.24671e-14 9.53018e-15 -9.16943e-15 9.99406e-15 -9.2721e-15 3.52047e-15 6.14762e-15 3.48226e-16 2.65874e-15 -1.49822e-14 1.08155e-14 -4.3089e-15 8.58946e-15 -2.50928e-15 1.66155e-14 -2.1845e-14 7.7926e-17 2.39693e-14 -8.91435e-15 -2.38403e-14 1.0595e-14 -6.91283e-15 2.35993e-14 -2.50275e-14 -1.03602e-14 4.61414e-14 -1.85223e-14 -2.74784e-15 2.60136e-15 7.56365e-15 -1.38416e-14 1.46028e-14 2.90058e-14 -6.72485e-15 1.22884e-14 1.41152e-14 4.1616e-15 1.27502e-15 4.11863e-15 1.45476e-14 1.42964e-15 1.14164e-14 1.34887e-13 7.86915e-13 1.10629e-11 1.34596e-10 1.48712e-09 1.48588e-08 1.33463e-07 1.06993e-06 7.58989e-06 4.71468e-05 0.000253136 0.00115583 0.00440261 0.0137245 0.0346398 0.071367 0.123723 0.188353 0.262163 0.343749 0.432979 0.530338 0.636399 0.750836 0.868821 0.966166 0.970281 0.945261 0.932741 0.928881 0.928604 0.928416 0.928334 0.928179 0.927927 0.927185 0.926091 0.924538 0.922951 0.921507 0.921047 0.920627 0.921219 0.915687 0.918666 0.890664 0.853853 0.860656 0.766691 0.72863 0.609629 0.505333 0.374031 0.2503 0.144133 0.0699635 0.0287547 0.0104649 0.00354146 0.00114684 0.000359539 0.000109511 3.24268e-05 9.33209e-06 2.60915e-06 7.08441e-07 1.86755e-07 4.77875e-08 1.18678e-08 2.86015e-09 6.68901e-10 1.51846e-10 3.34353e-11 7.1772e-12 1.524e-12 2.52237e-13 8.11791e-14 -2.78522e-14 -1.77297e-16 -4.81284e-14 6.76469e-14 1.04563e-13 1.91513e-14 -9.46248e-14 1.85281e-14 9.72747e-14 -7.32459e-14 -2.81418e-14 6.45671e-15 5.31404e-14 -4.20109e-14 3.50272e-14 -5.42422e-15 3.4239e-15 -1.06213e-13 9.17242e-14 -8.74682e-14 -3.29033e-16 8.4995e-15 -3.86307e-15 -1.11508e-13 8.76492e-14 -2.56111e-14 1.35256e-14 -1.17983e-13 -6.30497e-15 8.64824e-14 1.82569e-14 -2.63549e-14 -6.84795e-14 5.10055e-14 -1.0536e-14 -1.57501e-14 -3.31901e-14 -1.40284e-13 4.03632e-16 -5.18044e-14 2.80058e-14 -2.90538e-14 -1.54854e-14 2.07792e-14 -2.25683e-14 -1.42794e-14 -2.7329e-14 -2.75207e-14 5.98472e-14 -5.13583e-14 1.63168e-14 3.38418e-14 0 0 2.55028e-16 -3.31585e-16 -1.06033e-15 -6.19843e-16 -3.53036e-15 -1.47196e-16 -2.58477e-15 3.44778e-15 -2.62732e-15 -6.27514e-15 3.12188e-15 3.96153e-16 -1.07229e-16 2.25943e-15 2.84287e-15 -1.02474e-14 3.09545e-15 -2.05758e-15 1.18819e-16 1.84309e-15 4.76478e-15 -8.54394e-15 2.99313e-15 -5.05608e-15 -6.77455e-15 1.57829e-14 5.41618e-15 -9.45246e-15 3.65235e-15 2.76921e-15 4.57178e-15 4.51311e-15 -1.37428e-14 1.59767e-14 4.33641e-15 -1.27067e-14 1.4188e-14 7.35e-16 -4.82947e-15 1.97299e-14 6.86798e-16 3.07099e-15 -8.76664e-15 2.20957e-14 1.68916e-15 -1.83343e-14 -2.34837e-14 3.83952e-15 -1.47651e-14 -6.05883e-16 5.43539e-14 -6.19421e-14 2.47701e-14 1.64607e-14 3.63377e-15 5.66363e-15 -2.67406e-14 2.31776e-14 -2.63628e-14 2.99205e-14 8.35158e-15 9.63451e-15 2.32374e-14 3.69116e-15 3.74615e-14 -1.68273e-14 -1.85629e-14 2.65857e-14 -7.3496e-15 3.44104e-14 2.06508e-13 7.8103e-13 1.10406e-11 1.34517e-10 1.48713e-09 1.48588e-08 1.33463e-07 1.06993e-06 7.58989e-06 4.71468e-05 0.000253136 0.00115583 0.00440261 0.0137245 0.0346398 0.071367 0.123723 0.188353 0.262163 0.343749 0.432979 0.530338 0.636399 0.750836 0.868821 0.966166 0.970281 0.945261 0.932741 0.928881 0.928604 0.928416 0.928334 0.928179 0.927927 0.927185 0.926091 0.924538 0.922951 0.921507 0.921047 0.920627 0.921219 0.915687 0.918666 0.890664 0.853853 0.860656 0.766691 0.72863 0.609629 0.505333 0.374031 0.2503 0.144133 0.0699635 0.0287547 0.0104649 0.00354146 0.00114684 0.000359539 0.000109511 3.24268e-05 9.33209e-06 2.60915e-06 7.08441e-07 1.86755e-07 4.77875e-08 1.18678e-08 2.86013e-09 6.68902e-10 1.51779e-10 3.34748e-11 7.27179e-12 1.6192e-12 1.81187e-13 6.89629e-14 -1.41544e-13 9.27115e-14 6.52155e-14 8.14598e-14 1.07586e-13 -4.17372e-14 -7.08661e-14 -7.83504e-14 5.99861e-14 -5.28929e-14 1.20532e-14 8.2016e-14 -1.89977e-14 -4.45411e-15 1.1262e-14 4.58795e-14 -8.30052e-14 -5.49863e-14 -2.10621e-14 5.4469e-15 -1.06508e-13 1.73962e-14 5.9685e-14 3.44381e-14 -1.75237e-14 9.39312e-15 -7.68067e-14 -7.60988e-15 -1.4086e-14 -7.66117e-14 1.3508e-13 -2.86708e-14 -8.11043e-14 1.23007e-14 6.26604e-14 -7.58703e-14 -1.21433e-14 -1.46648e-13 -1.63592e-14 -2.68366e-14 -1.46698e-14 3.98216e-14 -4.43205e-14 -4.29562e-15 -1.73774e-15 -2.60188e-15 -5.61328e-14 -5.16414e-14 9.02355e-14 -5.82985e-14 2.00519e-14 2.69344e-14 0 0 5.94823e-16 1.56271e-15 -2.38018e-15 -1.98953e-15 -1.57912e-15 4.44612e-16 -4.81021e-15 -8.84805e-16 5.01206e-15 -2.48647e-17 -6.40892e-15 -2.15636e-15 -2.6855e-15 2.30603e-16 2.21118e-15 3.53387e-15 6.52022e-16 -2.23672e-15 -2.98885e-15 5.88942e-16 -3.80659e-15 -5.27697e-15 4.03967e-15 8.18486e-15 1.28222e-15 -5.94178e-15 1.99601e-14 -6.5192e-15 -1.1217e-14 7.76156e-15 -4.53221e-15 1.02151e-16 -1.07374e-15 1.02617e-14 5.65539e-15 -2.89474e-15 6.96339e-15 1.39651e-14 -1.83227e-14 3.9782e-14 6.40146e-15 -1.09206e-14 -1.58043e-14 1.97561e-14 2.27073e-14 -4.58157e-14 -2.81487e-14 6.39577e-14 -2.75101e-14 2.67136e-14 -1.88173e-14 -4.11309e-14 1.26509e-14 2.1242e-14 4.39926e-15 -4.93505e-15 1.1084e-14 -2.48594e-14 9.37876e-15 1.38472e-14 -8.75728e-15 3.67085e-14 3.8475e-15 -1.04133e-14 7.72229e-14 -1.42155e-14 -4.4041e-14 1.81318e-14 4.57054e-14 5.16487e-14 1.78949e-13 8.13309e-13 1.10806e-11 1.34413e-10 1.48716e-09 1.48589e-08 1.33463e-07 1.06993e-06 7.58989e-06 4.71468e-05 0.000253136 0.00115583 0.00440261 0.0137245 0.0346398 0.071367 0.123723 0.188353 0.262163 0.343749 0.432979 0.530338 0.636399 0.750836 0.868821 0.966166 0.970281 0.945261 0.932741 0.928881 0.928604 0.928416 0.928334 0.928179 0.927927 0.927185 0.926091 0.924538 0.922951 0.921507 0.921047 0.920627 0.921219 0.915687 0.918666 0.890664 0.853853 0.860656 0.766691 0.72863 0.609629 0.505333 0.374031 0.2503 0.144133 0.0699635 0.0287547 0.0104649 0.00354146 0.00114684 0.000359539 0.000109511 3.24268e-05 9.33209e-06 2.60915e-06 7.08441e-07 1.86755e-07 4.77875e-08 1.18678e-08 2.86017e-09 6.68909e-10 1.51786e-10 3.34949e-11 7.21457e-12 1.64864e-12 2.7684e-13 -4.72898e-14 3.95519e-14 1.49998e-14 1.42889e-13 5.51808e-15 7.14038e-14 -8.78612e-14 -3.76925e-14 -4.06048e-14 1.23807e-13 -2.14914e-13 3.95015e-14 2.43127e-15 7.18054e-15 3.94947e-14 1.07181e-13 -1.26486e-13 -1.99347e-15 1.38351e-13 -2.16219e-13 -2.868e-14 2.89774e-14 2.00405e-14 1.78486e-14 9.93794e-14 -2.41668e-14 -6.46507e-14 -1.41697e-14 -1.47027e-13 1.52919e-13 -1.00969e-13 7.58452e-14 -5.60815e-14 6.48035e-14 -3.59224e-14 9.27961e-14 -2.93701e-13 7.12542e-14 -6.16191e-14 -1.79325e-13 -9.88566e-15 7.08666e-14 -9.94636e-14 1.01539e-13 -6.95294e-14 -4.51912e-14 -5.23256e-15 3.81361e-14 -7.03371e-14 -4.97166e-14 9.11346e-14 1.73301e-15 -3.89992e-14 0 0 1.29218e-15 7.35034e-16 -1.35728e-15 -3.65362e-15 -1.29484e-15 -1.42298e-15 -5.74846e-15 3.47543e-15 4.62722e-15 6.76326e-15 -1.8775e-14 -3.093e-15 1.97177e-15 -7.31072e-15 1.65365e-15 8.89017e-15 -3.66736e-15 9.75988e-15 -6.49431e-15 -1.10369e-14 5.79317e-15 -4.49148e-15 1.10216e-14 7.24897e-15 -8.29099e-15 7.87011e-15 -3.3675e-15 5.86961e-15 -9.40354e-15 1.4217e-14 -1.38184e-14 1.46664e-14 -8.21558e-15 8.96759e-15 -3.39711e-15 1.85408e-14 2.36446e-15 4.94647e-15 1.1134e-14 -1.35809e-14 2.63438e-14 4.6157e-15 2.7278e-15 -1.86167e-14 5.06788e-15 3.14596e-14 -3.85753e-14 1.78399e-14 1.07574e-14 1.22015e-14 -3.15734e-14 -5.05048e-14 -9.35325e-15 5.19575e-14 -1.7496e-14 -1.695e-14 2.01917e-14 -3.51158e-14 3.20703e-14 -9.82126e-16 1.5557e-14 3.26592e-14 6.64976e-15 1.06177e-14 2.46482e-15 2.59927e-14 -4.2981e-14 1.6351e-14 8.87953e-14 4.78677e-14 1.48824e-13 8.42678e-13 1.11536e-11 1.34391e-10 1.48712e-09 1.48588e-08 1.33463e-07 1.06993e-06 7.58989e-06 4.71468e-05 0.000253136 0.00115583 0.00440261 0.0137245 0.0346398 0.071367 0.123723 0.188353 0.262163 0.343749 0.432979 0.530338 0.636399 0.750836 0.868821 0.966166 0.970281 0.945261 0.932741 0.928881 0.928604 0.928416 0.928334 0.928179 0.927927 0.927185 0.926091 0.924538 0.922951 0.921507 0.921047 0.920627 0.921219 0.915687 0.918666 0.890664 0.853853 0.860656 0.766691 0.72863 0.609629 0.505333 0.374031 0.2503 0.144133 0.0699635 0.0287547 0.0104649 0.00354146 0.00114684 0.000359539 0.000109511 3.24268e-05 9.33209e-06 2.60915e-06 7.08441e-07 1.86755e-07 4.77875e-08 1.18679e-08 2.8601e-09 6.69023e-10 1.51764e-10 3.35043e-11 7.11794e-12 1.54744e-12 3.29972e-13 -3.82818e-14 1.62387e-13 -3.69227e-14 2.37956e-14 -1.07374e-13 1.54438e-13 -4.80845e-14 6.83779e-14 4.71092e-14 2.57677e-13 -4.33233e-13 4.15943e-15 -1.1831e-13 5.2865e-14 -5.88048e-14 1.32779e-13 1.48541e-13 -3.77364e-14 -4.25175e-14 -7.46492e-14 -3.43461e-14 -7.73499e-14 1.41488e-13 1.00206e-13 -6.87116e-14 -5.49676e-14 -1.97486e-13 2.02999e-13 -1.96114e-13 1.7105e-14 2.87915e-14 -1.93063e-14 4.18753e-15 5.45463e-14 -1.11298e-13 4.03464e-14 -6.53052e-14 8.63363e-14 -2.20381e-14 -1.66569e-13 -1.00256e-13 1.1564e-13 -3.01174e-13 8.23155e-14 1.69978e-14 -9.39667e-14 -2.93696e-14 6.3595e-14 -6.53419e-14 -1.48164e-14 -1.90354e-14 -1.05787e-14 -2.65942e-14 0 0 1.25713e-15 8.03506e-16 -8.59471e-16 -3.5827e-15 -2.63393e-15 1.92365e-15 -5.97562e-15 6.71482e-15 -2.91671e-15 2.81461e-15 -3.52871e-15 -1.11035e-14 -4.25571e-16 -1.26537e-15 -5.67005e-15 -2.53745e-15 6.95486e-15 5.55841e-15 6.68209e-15 -1.35321e-14 5.56047e-15 6.03327e-15 7.32299e-16 6.37695e-15 -9.05241e-15 -1.14516e-15 -6.77611e-15 1.27235e-14 8.32112e-15 -6.12407e-15 4.73512e-15 1.55026e-14 -1.11563e-14 2.43913e-14 -1.33356e-14 9.97112e-15 -7.17351e-16 1.47582e-14 2.42815e-14 -4.41538e-14 1.37292e-14 2.62255e-14 1.12303e-14 5.71086e-15 -1.68304e-14 6.02442e-14 -4.14872e-14 -4.43221e-14 2.09484e-14 5.35913e-16 4.33935e-15 -8.13133e-14 1.8391e-14 2.19017e-14 1.71374e-16 -2.96681e-14 1.43615e-14 -3.94568e-14 3.5945e-14 8.34824e-15 1.43226e-14 4.48738e-14 2.21841e-14 3.25147e-14 -5.0896e-14 1.67473e-14 -2.13109e-14 8.5052e-15 9.88414e-14 5.79159e-14 1.79193e-13 8.73389e-13 1.10902e-11 1.34496e-10 1.48696e-09 1.48587e-08 1.33463e-07 1.06993e-06 7.58989e-06 4.71468e-05 0.000253136 0.00115583 0.00440261 0.0137245 0.0346398 0.071367 0.123723 0.188353 0.262163 0.343749 0.432979 0.530338 0.636399 0.750836 0.868821 0.966166 0.970281 0.945261 0.932741 0.928881 0.928604 0.928416 0.928334 0.928179 0.927927 0.927185 0.926091 0.924538 0.922951 0.921507 0.921047 0.920627 0.921219 0.915687 0.918666 0.890664 0.853853 0.860656 0.766691 0.72863 0.609629 0.505333 0.374031 0.2503 0.144133 0.0699635 0.0287547 0.0104649 0.00354146 0.00114684 0.000359539 0.000109511 3.24268e-05 9.33209e-06 2.60915e-06 7.08441e-07 1.86755e-07 4.77876e-08 1.18679e-08 2.85997e-09 6.69128e-10 1.51599e-10 3.36252e-11 7.11732e-12 1.45925e-12 2.7003e-13 4.78907e-14 3.36313e-14 1.04345e-13 -7.65208e-14 -1.70094e-13 1.66498e-13 -1.74414e-14 2.57986e-13 1.13715e-14 2.30489e-13 -4.50752e-13 8.25603e-14 -1.68575e-13 -2.5085e-14 -5.07957e-14 -7.24653e-15 6.23573e-13 -3.12696e-13 -1.58111e-13 -3.60933e-15 7.92849e-14 -2.88794e-13 1.62962e-13 2.9879e-13 -1.33017e-13 -1.78641e-13 -2.10988e-13 2.34045e-13 4.05721e-14 -3.15976e-13 5.70042e-14 8.22555e-14 3.41779e-14 -8.42145e-14 -2.0512e-13 1.7404e-14 2.97878e-13 -2.99238e-14 5.06139e-14 -2.56873e-14 -2.21631e-13 5.9495e-14 -3.07851e-13 -6.75613e-14 1.04244e-13 -7.60681e-14 -1.33494e-14 -3.40636e-14 -5.42937e-14 1.14403e-13 -2.05058e-13 5.49422e-14 -8.48613e-14 0
				</DataArray>
				<DataArray Name="VitesseY" type="Float32" format="ascii">