<?xml version="1.0"?>
<VTKFile type="PolyData">
	<PolyData>
		<Piece NumberOfPoints="1206" NumberOfPolys="1000">
			<Points>
				<DataArray type="Float32" NumberOfComponents="3" format="ascii">
 0 0 0 0.005 0 0 0.01 0 0 0.015 0 0 0.02 0 0 0.025 0 0 0.03 0 0 0.035 0 0 0.04 0 0 0.045 0 0 0.05 0 0 0.055 0 0 0.06 0 0 0.065 0 0 0.07 0 0 0.075 0 0 0.08 0 0 0.085 0 0 0.09 0 0 0.095 0 0 0.1 0 0 0.105 0 0 0.11 0 0 0.115 0 0 0.12 0 0 0.125 0 0 0.13 0 0 0.135 0 0 0.14 0 0 0.145 0 0 0.15 0 0 0.155 0 0 0.16 0 0 0.165 0 0 0.17 0 0 0.175 0 0 0.18 0 0 0.185 0 0 0.19 0 0 0.195 0 0 0.2 0 0 0.205 0 0 0.21 0 0 0.215 0 0 0.22 0 0 0.225 0 0 0.23 0 0 0.235 0 0 0.24 0 0 0.245 0 0 0.25 0 0 0.255 0 0 0.26 0 0 0.265 0 0 0.27 0 0 0.275 0 0 0.28 0 0 0.285 0 0 0.29 0 0 0.295 0 0 0.3 0 0 0.305 0 0 0.31 0 0 0.315 0 0 0.32 0 0 0.325 0 0 0.33 0 0 0.335 0 0 0.34 0 0 0.345 0 0 0.35 0 0 0.355 0 0 0.36 0 0 0.365 0 0 0.37 0 0 0.375 0 0 0.38 0 0 0.385 0 0 0.39 0 0 0.395 0 0 0.4 0 0 0.405 0 0 0.41 0 0 0.415 0 0 0.42 0 0 0.425 0 0 0.43 0 0 0.435002 0 0 0.440009 0 0 0.445043 0 0 0.45016 0 0 0.455468 0 0 0.461116 0 0 0.467263 0 0 0.474085 0 0 0.481797 0 0 0.490693 0 0 0.501153 0 0 0.513312 0 0 0.525768 0 0 0.537777 0 0 0.540412 0 0 0.54297 0 0 0.545482 0 0 0.547964 0 0 0.550426 0 0 0.552875 0 0 0.555322 0 0 0.557771 0 0 0.56025 0 0 0.56277 0 0 0.565395 0 0 0.568115 0 0 0.571036 0 0 0.574165 0 0 0.577644 0 0 0.581491 0 0 0.585731 0 0 0.590304 0 0 0.595107 0 0 0.600033 0 0 0.605009 0 0 0.610003 0 0 0.615001 0 0 0.62 0 0 0.625 0 0 0.63 0 0 0.635 0 0 0.64 0 0 0.645 0 0 0.65 0 0 0.655 0 0 0.66 0 0 0.665 0 0 0.67 0 0 0.675 0 0 0.68 0 0 0.685 0 0 0.69 0 0 0.695 0 0 0.7 0 0 0.705 0 0 0.71 0 0 0.715 0 0 0.72 0 0 0.725 0 0 0.73 0 0 0.735 0 0 0.74 0 0 0.745 0 0 0.75 0 0 0.755 0 0 0.76 0 0 0.765 0 0 0.77 0 0 0.775 0 0 0.78 0 0 0.785 0 0 0.79 0 0 0.795 0 0 0.8 0 0 0.805 0 0 0.81 0 0 0.815 0 0 0.82 0 0 0.825 0 0 0.83 0 0 0.835 0 0 0.84 0 0 0.845 0 0 0.85 0 0 0.855 0 0 0.86 0 0 0.865 0 0 0.87 0 0 0.875 0 0 0.88 0 0 0.885 0 0 0.89 0 0 0.895 0 0 0.9 0 0 0.905 0 0 0.91 0 0 0.915 0 0 0.92 0 0 0.925 0 0 0.93 0 0 0.935 0 0 0.94 0 0 0.945 0 0 0.95 0 0 0.955 0 0 0.96 0 0 0.965 0 0 0.97 0 0 0.975 0 0 0.98 0 0 0.985 0 0 0.99 0 0 0.995 0 0 1 0 0 0 0.02 0 0.005 0.02 0 0.01 0.02 0 0.015 0.02 0 0.02 0.02 0 0.025 0.02 0 0.03 0.02 0 0.035 0.02 0 0.04 0.02 0 0.045 0.02 0 0.05 0.02 0 0.055 0.02 0 0.06 0.02 0 0.065 0.02 0 0.07 0.02 0 0.075 0.02 0 0.08 0.02 0 0.085 0.02 0 0.09 0.02 0 0.095 0.02 0 0.1 0.02 0 0.105 0.02 0 0.11 0.02 0 0.115 0.02 0 0.12 0.02 0 0.125 0.02 0 0.13 0.02 0 0.135 0.02 0 0.14 0.02 0 0.145 0.02 0 0.15 0.02 0 0.155 0.02 0 0.16 0.02 0 0.165 0.02 0 0.17 0.02 0 0.175 0.02 0 0.18 0.02 0 0.185 0.02 0 0.19 0.02 0 0.195 0.02 0 0.2 0.02 0 0.205 0.02 0 0.21 0.02 0 0.215 0.02 0 0.22 0.02 0 0.225 0.02 0 0.23 0.02 0 0.235 0.02 0 0.24 0.02 0 0.245 0.02 0 0.25 0.02 0 0.255 0.02 0 0.26 0.02 0 0.265 0.02 0 0.27 0.02 0 0.275 0.02 0 0.28 0.02 0 0.285 0.02 0 0.29 0.02 0 0.295 0.02 0 0.3 0.02 0 0.305 0.02 0 0.31 0.02 0 0.315 0.02 0 0.32 0.02 0 0.325 0.02 0 0.33 0.02 0 0.335 0.02 0 0.34 0.02 0 0.345 0.02 0 0.35 0.02 0 0.355 0.02 0 0.36 0.02 0 0.365 0.02 0 0.37 0.02 0 0.375 0.02 0 0.38 0.02 0 0.385 0.02 0 0.39 0.02 0 0.395 0.02 0 0.4 0.02 0 0.405 0.02 0 0.41 0.02 0 0.415 0.02 0 0.42 0.02 0 0.425 0.02 0 0.43 0.02 0 0.435002 0.02 0 0.440009 0.02 0 0.445043 0.02 0 0.45016 0.02 0 0.455468 0.02 0 0.461116 0.02 0 0.467263 0.02 0 0.474085 0.02 0 0.481797 0.02 0 0.490693 0.02 0 0.501153 0.02 0 0.513312 0.02 0 0.525768 0.02 0 0.537777 0.02 0 0.540412 0.02 0 0.54297 0.02 0 0.545482 0.02 0 0.547964 0.02 0 0.550426 0.02 0 0.552875 0.02 0 0.555322 0.02 0 0.557771 0.02 0 0.56025 0.02 0 0.56277 0.02 0 0.565395 0.02 0 0.568115 0.02 0 0.571036 0.02 0 0.574165 0.02 0 0.577644 0.02 0 0.581491 0.02 0 0.585731 0.02 0 0.590304 0.02 0 0.595107 0.02 0 0.600033 0.02 0 0.605009 0.02 0 0.610003 0.02 0 0.615001 0.02 0 0.62 0.02 0 0.625 0.02 0 0.63 0.02 0 0.635 0.02 0 0.64 0.02 0 0.645 0.02 0 0.65 0.02 0 0.655 0.02 0 0.66 0.02 0 0.665 0.02 0 0.67 0.02 0 0.675 0.02 0 0.68 0.02 0 0.685 0.02 0 0.69 0.02 0 0.695 0.02 0 0.7 0.02 0 0.705 0.02 0 0.71 0.02 0 0.715 0.02 0 0.72 0.02 0 0.725 0.02 0 0.73 0.02 0 0.735 0.02 0 0.74 0.02 0 0.745 0.02 0 0.75 0.02 0 0.755 0.02 0 0.76 0.02 0 0.765 0.02 0 0.77 0.02 0 0.775 0.02 0 0.78 0.02 0 0.785 0.02 0 0.79 0.02 0 0.795 0.02 0 0.8 0.02 0 0.805 0.02 0 0.81 0.02 0 0.815 0.02 0 0.82 0.02 0 0.825 0.02 0 0.83 0.02 0 0.835 0.02 0 0.84 0.02 0 0.845 0.02 0 0.85 0.02 0 0.855 0.02 0 0.86 0.02 0 0.865 0.02 0 0.87 0.02 0 0.875 0.02 0 0.88 0.02 0 0.885 0.02 0 0.89 0.02 0 0.895 0.02 0 0.9 0.02 0 0.905 0.02 0 0.91 0.02 0 0.915 0.02 0 0.92 0.02 0 0.925 0.02 0 0.93 0.02 0 0.935 0.02 0 0.94 0.02 0 0.945 0.02 0 0.95 0.02 0 0.955 0.02 0 0.96 0.02 0 0.965 0.02 0 0.97 0.02 0 0.975 0.02 0 0.98 0.02 0 0.985 0.02 0 0.99 0.02 0 0.995 0.02 0 1 0.02 0 0 0.04 0 0.005 0.04 0 0.01 0.04 0 0.015 0.04 0 0.02 0.04 0 0.025 0.04 0 0.03 0.04 0 0.035 0.04 0 0.04 0.04 0 0.045 0.04 0 0.05 0.04 0 0.055 0.04 0 0.06 0.04 0 0.065 0.04 0 0.07 0.04 0 0.075 0.04 0 0.08 0.04 0 0.085 0.04 0 0.09 0.04 0 0.095 0.04 0 0.1 0.04 0 0.105 0.04 0 0.11 0.04 0 0.115 0.04 0 0.12 0.04 0 0.125 0.04 0 0.13 0.04 0 0.135 0.04 0 0.14 0.04 0 0.145 0.04 0 0.15 0.04 0 0.155 0.04 0 0.16 0.04 0 0.165 0.04 0 0.17 0.04 0 0.175 0.04 0 0.18 0.04 0 0.185 0.04 0 0.19 0.04 0 0.195 0.04 0 0.2 0.04 0 0.205 0.04 0 0.21 0.04 0 0.215 0.04 0 0.22 0.04 0 0.225 0.04 0 0.23 0.04 0 0.235 0.04 0 0.24 0.04 0 0.245 0.04 0 0.25 0.04 0 0.255 0.04 0 0.26 0.04 0 0.265 0.04 0 0.27 0.04 0 0.275 0.04 0 0.28 0.04 0 0.285 0.04 0 0.29 0.04 0 0.295 0.04 0 0.3 0.04 0 0.305 0.04 0 0.31 0.04 0 0.315 0.04 0 0.32 0.04 0 0.325 0.04 0 0.33 0.04 0 0.335 0.04 0 0.34 0.04 0 0.345 0.04 0 0.35 0.04 0 0.355 0.04 0 0.36 0.04 0 0.365 0.04 0 0.37 0.04 0 0.375 0.04 0 0.38 0.04 0 0.385 0.04 0 0.39 0.04 0 0.395 0.04 0 0.4 0.04 0 0.405 0.04 0 0.41 0.04 0 0.415 0.04 0 0.42 0.04 0 0.425 0.04 0 0.43 0.04 0 0.435002 0.04 0 0.440009 0.04 0 0.445043 0.04 0 0.45016 0.04 0 0.455468 0.04 0 0.461116 0.04 0 0.467263 0.04 0 0.474085 0.04 0 0.481797 0.04 0 0.490693 0.04 0 0.501153 0.04 0 0.513312 0.04 0 0.525768 0.04 0 0.537777 0.04 0 0.540412 0.04 0 0.54297 0.04 0 0.545482 0.04 0 0.547964 0.04 0 0.550426 0.04 0 0.552875 0.04 0 0.555322 0.04 0 0.557771 0.04 0 0.56025 0.04 0 0.56277 0.04 0 0.565395 0.04 0 0.568115 0.04 0 0.571036 0.04 0 0.574165 0.04 0 0.577644 0.04 0 0.581491 0.04 0 0.585731 0.04 0 0.590304 0.04 0 0.595107 0.04 0 0.600033 0.04 0 0.605009 0.04 0 0.610003 0.04 0 0.615001 0.04 0 0.62 0.04 0 0.625 0.04 0 0.63 0.04 0 0.635 0.04 0 0.64 0.04 0 0.645 0.04 0 0.65 0.04 0 0.655 0.04 0 0.66 0.04 0 0.665 0.04 0 0.67 0.04 0 0.675 0.04 0 0.68 0.04 0 0.685 0.04 0 0.69 0.04 0 0.695 0.04 0 0.7 0.04 0 0.705 0.04 0 0.71 0.04 0 0.715 0.04 0 0.72 0.04 0 0.725 0.04 0 0.73 0.04 0 0.735 0.04 0 0.74 0.04 0 0.745 0.04 0 0.75 0.04 0 0.755 0.04 0 0.76 0.04 0 0.765 0.04 0 0.77 0.04 0 0.775 0.04 0 0.78 0.04 0 0.785 0.04 0 0.79 0.04 0 0.795 0.04 0 0.8 0.04 0 0.805 0.04 0 0.81 0.04 0 0.815 0.04 0 0.82 0.04 0 0.825 0.04 0 0.83 0.04 0 0.835 0.04 0 0.84 0.04 0 0.845 0.04 0 0.85 0.04 0 0.855 0.04 0 0.86 0.04 0 0.865 0.04 0 0.87 0.04 0 0.875 0.04 0 0.88 0.04 0 0.885 0.04 0 0.89 0.04 0 0.895 0.04 0 0.9 0.04 0 0.905 0.04 0 0.91 0.04 0 0.915 0.04 0 0.92 0.04 0 0.925 0.04 0 0.93 0.04 0 0.935 0.04 0 0.94 0.04 0 0.945 0.04 0 0.95 0.04 0 0.955 0.04 0 0.96 0.04 0 0.965 0.04 0 0.97 0.04 0 0.975 0.04 0 0.98 0.04 0 0.985 0.04 0 0.99 0.04 0 0.995 0.04 0 1 0.04 0 0 0.06 0 0.005 0.06 0 0.01 0.06 0 0.015 0.06 0 0.02 0.06 0 0.025 0.06 0 0.03 0.06 0 0.035 0.06 0 0.04 0.06 0 0.045 0.06 0 0.05 0.06 0 0.055 0.06 0 0.06 0.06 0 0.065 0.06 0 0.07 0.06 0 0.075 0.06 0 0.08 0.06 0 0.085 0.06 0 0.09 0.06 0 0.095 0.06 0 0.1 0.06 0 0.105 0.06 0 0.11 0.06 0 0.115 0.06 0 0.12 0.06 0 0.125 0.06 0 0.13 0.06 0 0.135 0.06 0 0.14 0.06 0 0.145 0.06 0 0.15 0.06 0 0.155 0.06 0 0.16 0.06 0 0.165 0.06 0 0.17 0.06 0 0.175 0.06 0 0.18 0.06 0 0.185 0.06 0 0.19 0.06 0 0.195 0.06 0 0.2 0.06 0 0.205 0.06 0 0.21 0.06 0 0.215 0.06 0 0.22 0.06 0 0.225 0.06 0 0.23 0.06 0 0.235 0.06 0 0.24 0.06 0 0.245 0.06 0 0.25 0.06 0 0.255 0.06 0 0.26 0.06 0 0.265 0.06 0 0.27 0.06 0 0.275 0.06 0 0.28 0.06 0 0.285 0.06 0 0.29 0.06 0 0.295 0.06 0 0.3 0.06 0 0.305 0.06 0 0.31 0.06 0 0.315 0.06 0 0.32 0.06 0 0.325 0.06 0 0.33 0.06 0 0.335 0.06 0 0.34 0.06 0 0.345 0.06 0 0.35 0.06 0 0.355 0.06 0 0.36 0.06 0 0.365 0.06 0 0.37 0.06 0 0.375 0.06 0 0.38 0.06 0 0.385 0.06 0 0.39 0.06 0 0.395 0.06 0 0.4 0.06 0 0.405 0.06 0 0.41 0.06 0 0.415 0.06 0 0.42 0.06 0 0.425 0.06 0 0.43 0.06 0 0.435002 0.06 0 0.440009 0.06 0 0.445043 0.06 0 0.45016 0.06 0 0.455468 0.06 0 0.461116 0.06 0 0.467263 0.06 0 0.474085 0.06 0 0.481797 0.06 0 0.490693 0.06 0 0.501153 0.06 0 0.513312 0.06 0 0.525768 0.06 0 0.537777 0.06 0 0.540412 0.06 0 0.54297 0.06 0 0.545482 0.06 0 0.547964 0.06 0 0.550426 0.06 0 0.552875 0.06 0 0.555322 0.06 0 0.557771 0.06 0 0.56025 0.06 0 0.56277 0.06 0 0.565395 0.06 0 0.568115 0.06 0 0.571036 0.06 0 0.574165 0.06 0 0.577644 0.06 0 0.581491 0.06 0 0.585731 0.06 0 0.590304 0.06 0 0.595107 0.06 0 0.600033 0.06 0 0.605009 0.06 0 0.610003 0.06 0 0.615001 0.06 0 0.62 0.06 0 0.625 0.06 0 0.63 0.06 0 0.635 0.06 0 0.64 0.06 0 0.645 0.06 0 0.65 0.06 0 0.655 0.06 0 0.66 0.06 0 0.665 0.06 0 0.67 0.06 0 0.675 0.06 0 0.68 0.06 0 0.685 0.06 0 0.69 0.06 0 0.695 0.06 0 0.7 0.06 0 0.705 0.06 0 0.71 0.06 0 0.715 0.06 0 0.72 0.06 0 0.725 0.06 0 0.73 0.06 0 0.735 0.06 0 0.74 0.06 0 0.745 0.06 0 0.75 0.06 0 0.755 0.06 0 0.76 0.06 0 0.765 0.06 0 0.77 0.06 0 0.775 0.06 0 0.78 0.06 0 0.785 0.06 0 0.79 0.06 0 0.795 0.06 0 0.8 0.06 0 0.805 0.06 0 0.81 0.06 0 0.815 0.06 0 0.82 0.06 0 0.825 0.06 0 0.83 0.06 0 0.835 0.06 0 0.84 0.06 0 0.845 0.06 0 0.85 0.06 0 0.855 0.06 0 0.86 0.06 0 0.865 0.06 0 0.87 0.06 0 0.875 0.06 0 0.88 0.06 0 0.885 0.06 0 0.89 0.06 0 0.895 0.06 0 0.9 0.06 0 0.905 0.06 0 0.91 0.06 0 0.915 0.06 0 0.92 0.06 0 0.925 0.06 0 0.93 0.06 0 0.935 0.06 0 0.94 0.06 0 0.945 0.06 0 0.95 0.06 0 0.955 0.06 0 0.96 0.06 0 0.965 0.0
[...]
			<PointData Scalars="VitesseX">
				<DataArray Name="VitesseX" type="Float32" format="ascii">
 0 3.26675e-16 -1.07197e-15 1.66036e-15 -5.8839e-16 -7.5441e-16 -1.57773e-15 4.12067e-16 -1.5364e-15 3.10431e-15 8.58763e-16 -6.11229e-15 7.00462e-15 -2.33599e-15 3.50588e-15 -1.60766e-15 -3.9318e-15 1.04674e-14 -1.14625e-14 3.66479e-15 -5.07247e-15 2.25915e-15 -2.0051e-15 -2.89339e-16 -8.0456e-15 -7.16666e-16 7.12411e-15 -2.41552e-14 8.76941e-15 -2.27294e-14 -2.40428e-14 1.38775e-14 -7.54807e-15 8.589e-15 -1.31283e-14 -2.11744e-14 1.89922e-14 -2.18743e-15 -9.91839e-15 -4.78459e-15 -1.19776e-14 -7.17264e-15 -9.21815e-15 2.55322e-14 -7.7551e-15 -5.39406e-16 2.46909e-14 -9.04729e-16 1.18526e-15 1.67104e-14 -4.53753e-15 -1.74192e-14 3.36937e-15 7.20499e-15 -3.57682e-14 -6.45061e-15 6.15529e-15 -3.57653e-14 3.52723e-15 2.17615e-14 -1.54489e-14 -4.5977e-14 1.83709e-14 2.7886e-15 -2.76855e-14 1.10746e-14 -1.87235e-14 -2.78054e-14 1.45765e-14 -1.51092e-14 5.07043e-15 1.66159e-14 -1.14958e-14 -6.36169e-15 -1.64014e-14 -5.07533e-14 -1.53298e-14 7.36968e-16 1.67652e-13 2.97062e-12 5.21626e-11 8.3649e-10 1.18321e-08 1.46428e-07 1.56875e-06 1.43637e-05 0.000110589 0.00070118 0.00356524 0.0141115 0.0425607 0.0984843 0.182722 0.289695 0.415294 0.558948 0.720583 0.889768 0.991816 0.946957 0.930077 0.92797 0.925076 0.922356 0.918082 0.916034 0.91105 0.911535 0.899601 0.903295 0.856802 0.866385 0.75847 0.754164 0.591808 0.496822 0.336446 0.206248 0.102213 0.0412592 0.0139538 0.00422549 0.0011961 0.000322195 8.30456e-05 2.05084e-05 4.8534e-06 1.10066e-06 2.39205e-07 4.98266e-08 9.94991e-09 1.90539e-09 3.50046e-10 6.16382e-11 1.04642e-11 1.59982e-12 3.16945e-13 -9.02083e-15 -6.9375e-14 8.90138e-14 -4.32172e-14 -3.14339e-14 -3.3514e-14 1.12757e-15 -3.34882e-14 -2.31625e-15 -4.54364e-14 4.51475e-14 2.37479e-14 -9.66689e-15 7.38659e-14 -5.91205e-14 2.88211e-15 -7.12101e-14 3.08525e-14 -7.98854e-14 -7.90614e-15 -7.0167e-14 2.99418e-14 -1.13553e-13 7.19055e-14 3.27687e-14 -8.3891e-14 -4.7057e-14 2.91611e-14 -5.50752e-15 3.0638e-14 -1.9937e-14 -1.13702e-15 2.95013e-14 3.78724e-14 -5.69108e-15 -1.54855e-14 6.35814e-14 8.01066e-15 5.71392e-14 -9.10927e-14 2.1692e-14 5.67647e-14 -4.5074e-14 4.30192e-14 -2.61102e-14 9.41264e-14 -9.65766e-14 8.66224e-15 6.36719e-15 -7.50907e-14 5.41228e-14 1.20519e-13 1.37783e-14 -3.3649e-14 -4.72362e-15 7.66463e-14 2.86017e-14 5.3946e-14 -1.55481e-14 5.76438e-14 4.48277e-14 5.76892e-14 7.00081e-14 0 0 -6.22001e-16 -1.82311e-16 -1.88737e-15 1.58203e-15 1.46108e-15 -2.37082e-15 -7.74218e-16 -1.53296e-15 1.31318e-15 3.61462e-16 2.582e-15 -5.68325e-15 7.04503e-15 -3.09155e-15 2.13979e-15 -1.48536e-15 -6.0264e-15 1.25664e-14 -8.28373e-15 -1.34122e-15 -3.36023e-15 9.87765e-15 -1.14651e-14 -4.60687e-15 -4.3896e-15 3.52453e-15 -1.98208e-14 -1.60009e-15 -2.31689e-14 -1.99331e-14 -1.05458e-14 1.82993e-14 3.31155e-15 -1.54326e-14 -1.29193e-14 9.35949e-15 -5.56216e-15 -1.63924e-14 -1.91072e-14 -2.5528e-14 5.18896e-15 -1.88381e-15 1.95216e-14 1.1389e-14 1.24627e-14 -2.76837e-15 5.66993e-15 1.65024e-14 -9.75285e-16 -3.22856e-15 1.45576e-14 7.16871e-15 -3.70102e-14 3.47482e-15 -3.39695e-15 -3.47966e-14 2.09825e-15 -4.75908e-15 -2.94201e-15 -1.9421e-14 -1.90217e-14 -3.10753e-14 3.4564e-14 -3.05342e-14 -1.7177e-14 5.67569e-15 -3.84565e-14 1.83753e-14 -5.43358e-15 -8.02948e-15 -4.16372e-15 3.1078e-14 -2.91005e-14 2.9806e-15 -4.61664e-14 -4.26023e-14 3.5823e-14 1.67089e-13 2.94446e-12 5.22402e-11 8.36463e-10 1.18321e-08 1.46428e-07 1.56875e-06 1.43637e-05 0.000110589 0.00070118 0.00356524 0.0141115 0.0425607 0.0984843 0.182722 0.289695 0.415294 0.558948 0.720583 0.889768 0.991816 0.946957 0.930077 0.92797 0.925076 0.922356 0.918082 0.916034 0.91105 0.911535 0.899601 0.903295 0.856802 0.866385 0.75847 0.754164 0.591808 0.496822 0.336446 0.206248 0.102213 0.0412592 0.0139538 0.00422549 0.0011961 0.000322195 8.30456e-05 2.05084e-05 4.8534e-06 1.10066e-06 2.39205e-07 4.98265e-08 9.94997e-09 1.90538e-09 3.5002e-10 6.16399e-11 1.04257e-11 1.65166e-12 2.42566e-13 -9.68115e-15 -6.3634e-14 3.81874e-14 -1.81157e-14 -1.24044e-14 -2.99346e-14 1.93299e-14 -5.07404e-14 -1.53808e-14 -3.54865e-14 4.26309e-14 1.82155e-14 -3.60172e-14 6.94512e-14 -6.76359e-14 7.43942e-15 -7.46851e-14 3.25627e-15 -3.68661e-14 -3.60322e-14 -1.14004e-14 -2.31564e-14 -6.32921e-14 7.50912e-14 2.61847e-14 -2.2206e-14 -8.14913e-14 -3.31212e-14 -1.27615e-14 -8.51083e-14 9.28901e-14 9.88549e-14 -7.44927e-14 6.39796e-14 -2.33849e-14 -2.47271e-14 3.64053e-14 7.42641e-14 2.85478e-14 -9.10209e-14 -3.77672e-14 7.41934e-14 -2.38267e-14 9.87533e-14 -6.75877e-14 -3.91756e-15 -2.05663e-14 7.14096e-14 -7.9263e-14 8.7001e-15 6.89906e-14 4.98467e-14 1.13694e-14 4.60942e-14 -2.73147e-14 2.34297e-14 9.65685e-14 -9.1252e-15 7.48584e-14 5.89333e-14 6.66444e-15 7.41531e-14 4.18817e-14 0 0 -7.88274e-16 5.47402e-16 -1.51033e-15 -6.64368e-16 2.61825e-15 1.35907e-15 -3.83458e-15 -1.53422e-15 -1.76629e-15 5.4404e-15 -1.90998e-15 -3.91512e-15 3.91498e-15 6.21237e-15 -1.07277e-14 1.43396e-15 -6.89593e-15 1.18185e-14 -3.1952e-15 -5.86966e-16 -9.03493e-16 -6.13659e-15 -4.1472e-15 7.35427e-15 -2.67838e-15 -1.82474e-14 -8.35653e-15 -2.04597e-14 -2.6743e-14 -1.53075e-14 -3.74577e-15 1.10168e-14 -2.09551e-14 -1.98855e-15 -1.40462e-14 -1.13556e-14 -2.13178e-14 -1.52813e-14 -3.60576e-14 -2.10802e-14 3.25985e-15 1.71434e-14 2.61803e-14 9.2749e-15 1.7131e-14 -8.40726e-15 1.68598e-14 1.4123e-14 -1.09663e-14 2.05481e-14 2.21083e-14 1.78649e-14 -2.07296e-14 -1.63917e-14 2.9594e-15 -3.04444e-14 -1.64596e-14 -1.94355e-14 -2.52732e-14 -5.0178e-15 -3.20175e-14 -3.74163e-14 1.11858e-14 -2.49055e-14 -2.19859e-14 -1.17569e-14 -3.47956e-14 -3.60756e-14 3.32864e-14 2.15215e-14 -3.18644e-14 1.25751e-14 -2.90739e-14 1.7771e-15 -1.8962e-14 -2.47827e-14 3.98483e-14 2.07624e-13 2.94228e-12 5.22791e-11 8.36411e-10 1.18322e-08 1.46428e-07 1.56875e-06 1.43637e-05 0.000110589 0.00070118 0.00356524 0.0141115 0.0425607 0.0984843 0.182722 0.289695 0.415294 0.558948 0.720583 0.889768 0.991816 0.946957 0.930077 0.92797 0.925076 0.922356 0.918082 0.916034 0.91105 0.911535 0.899601 0.903295 0.856802 0.866385 0.75847 0.754164 0.591808 0.496822 0.336446 0.206248 0.102213 0.0412592 0.0139538 0.00422549 0.0011961 0.000322195 8.30456e-05 2.05084e-05 4.8534e-06 1.10066e-06 2.39205e-07 4.98265e-08 9.95e-09 1.90536e-09 3.49943e-10 6.16733e-11 1.03983e-11 1.61614e-12 1.12885e-13 -7.67582e-14 -3.21941e-14 4.75042e-14 4.68837e-14 -3.62559e-14 -3.38539e-14 -5.64573e-14 -3.13048e-14 2.29068e-14 3.41017e-14 -5.35051e-14 5.87421e-14 7.06366e-14 -1.2629e-13 -2.82013e-14 -6.31642e-14 -1.55662e-13 -1.9284e-14 -3.48427e-14 5.82912e-14 3.50594e-14 -1.9154e-14 -1.19223e-14 6.60613e-14 -2.76816e-14 -5.67354e-14 -1.6197e-14 -1.25293e-13 -5.69317e-14 -4.74343e-14 1.00947e-13 6.35315e-14 1.13394e-14 7.79316e-14 -1.15487e-14 -3.97931e-14 -3.64298e-14 1.36105e-13 -3.3055e-14 -6.31701e-14 -6.20113e-14 2.25603e-14 1.34083e-15 1.10768e-13 2.5494e-14 -3.41016e-14 -1.0049e-14 9.49082e-14 -6.55808e-14 6.66164e-14 -1.58837e-14 -3.04837e-14 4.8677e-14 8.51492e-14 6.83061e-14 5.29474e-14 1.58552e-13 4.09393e-14 6.90889e-14 3.86407e-14 2.5392e-14 3.89257e-14 -6.85022e-14 0 0 3.68905e-16 7.14559e-16 1.3601e-15 -7.28525e-16 -1.59564e-16 1.77225e-15 -4.65756e-15 2.18881e-16 -2.9693e-15 3.25232e-15 -4.54811e-15 5.32949e-15 -4.56271e-15 3.89407e-15 -8.86846e-15 -2.89627e-15 1.41166e-15 -7.5561e-15 1.16759e-14 8.93399e-15 -1.86583e-15 -1.12586e-14 4.6497e-15 -2.33252e-15 -2.46424e-15 -6.14876e-15 -1.97243e-14 -2.16093e-14 -2.39393e-14 -2.95518e-14 1.55852e-14 -1.59567e-14 -2.41765e-14 -1.84128e-14 -3.36898e-14 -2.11737e-14 -2.00637e-14 -2.07852e-14 -1.06522e-14 6.74533e-15 -2.55764e-15 1.11059e-14 2.1974e-14 1.45905e-14 1.16711e-14 1.56206e-14 -4.90063e-15 -1.12875e-14 2.30036e-15 2.45807e-14 4.75335e-14 -8.77815e-15 1.70072e-14 -4.74719e-14 2.10585e-14 9.60815e-15 -5.16968e-14 -3.57208e-14 -1.61512e-14 -4.96299e-15 -2.07645e-14 -4.01785e-14 -4.53205e-14 -1.16973e-14 -3.84565e-14 -9.67044e-15 -6.65815e-14 -6.11817e-14 -4.85466e-14 6.11377e-14 -5.20852e-15 -9.40259e-15 2.09306e-14 -8.36321e-14 -1.37406e-14 -8.37378e-15 3.36705e-14 2.52194e-13 2.9932e-12 5.22669e-11 8.36435e-10 1.18322e-08 1.46428e-07 1.56875e-06 1.43637e-05 0.000110589 0.00070118 0.00356524 0.0141115 0.0425607 0.0984843 0.182722 0.289695 0.415294 0.558948 0.720583 0.889768 0.991816 0.946957 0.930077 0.92797 0.925076 0.922356 0.918082 0.916034 0.91105 0.911535 0.899601 0.903295 0.856802 0.866385 0.75847 0.754164 0.591808 0.496822 0.336446 0.206248 0.102213 0.0412592 0.0139538 0.00422549 0.0011961 0.000322195 8.30456e-05 2.05084e-05 4.8534e-06 1.10066e-06 2.39205e-07 4.98266e-08 9.94997e-09 1.90527e-09 3.49996e-10 6.1639e-11 1.03063e-11 1.60451e-12 9.43294e-14 -1.31224e-13 -5.88139e-14 5.57561e-14 5.28437e-14 -4.31776e-14 -3.00665e-14 -1.41139e-13 -1.12449e-14 2.28046e-14 9.07677e-14 -1.69239e-13 1.64566e-13 -3.31596e-15 -1.02311e-13 -8.65631e-14 -6.89785e-14 -1.43863e-13 -1.77139e-14 -8.45464e-14 1.20227e-13 6.05607e-14 -1.40422e-14 -3.63083e-14 -9.51165e-14 -1.18733e-13 -1.33253e-13 1.35166e-13 -1.17893e-13 1.62098e-14 -8.26865e-14 9.24652e-14 -3.67989e-15 1.54229e-13 7.7422e-14 -2.3146e-14 -8.37383e-14 -1.96376e-14 1.15034e-13 -4.56712e-15 -1.27565e-13 5.99214e-14 6.73458e-14 -2.71646e-14 1.04302e-13 -6.61694e-15 -1.92569e-14 5.55649e-14 4.20922e-14 -2.06644e-14 1.33643e-14 -4.05891e-14 3.49172e-14 5.77357e-14 1.09112e-13 6.08748e-14 1.17751e-13 2.42409e-13 1.97683e-14 1.25183e-13 -7.04918e-15 1.47344e-13 -2.00004e-15 -8.20117e-14 0 0 7.46422e-16 2.14428e-15 8.73478e-16 -1.67973e-15 -8.49734e-16 -1.10017e-15 -3.51168e-16 -6.74161e-16 1.05735e-15 -4.3757e-15 5.81997e-16 1.0872e-16 -5.2484e-15 -8.11728e-15 2.50158e-15 -6.70932e-15 -3.31723e-15 -7.85804e-16 1.92394e-14 7.13508e-15 -1.6921e-15 7.2181e-15 -3.42304e-15 -1.19453e-14 -4.58432e-15 3.03068e-15 -2.27431e-14 -1.95964e-14 -7.8018e-15 -2.55623e-14 -3.88431e-14 -1.07196e-14 -4.46705e-14 -3.19964e-14 -1.39947e-14 -9.86721e-15 -1.87639e-14 -8.21998e-15 2.18098e-14 -1.23154e-14 1.29229e-14 -2.01622e-14 1.51381e-14 1.8818e-14 1.0894e-14 7.4787e-15 -6.66054e-15 2.63992e-15 -4.48484e-15 1.73822e-14 2.36613e-14 2.23652e-15 -7.11633e-15 -2.17203e-14 4.17331e-14 2.50078e-14 -2.84442e-14 -4.89267e-14 2.39736e-14 -4.04892e-14 -2.33703e-14 -5.00002e-14 -5.2127e-14 -6.14916e-14 -7.31666e-14 -3.23735e-15 -5.86636e-14 -4.38614e-14 -6.77362e-14 3.39859e-14 4.70642e-14 -1.56199e-14 1.55482e-14 -1.38817e-13 -3.98135e-14 1.39647e-14 -2.00925e-14 3.48961e-13 2.96872e-12 5.23133e-11 8.36494e-10 1.18321e-08 1.46428e-07 1.56875e-06 1.43637e-05 0.000110589 0.00070118 0.00356524 0.0141115 0.0425607 0.0984843 0.182722 0.289695 0.415294 0.558948 0.720583 0.889768 0.991816 0.946957 0.930077 0.92797 0.925076 0.922356 0.918082 0.916034 0.91105 0.911535 0.899601 0.903295 0.856802 0.866385 0.75847 0.754164 0.591808 0.496822 0.336446 0.206248 0.102213 0.0412592 0.0139538 0.00422549 0.0011961 0.000322195 8.30456e-05 2.05084e-05 4.8534e-06 1.10066e-06 2.39205e-07 4.98266e-08 9.94996e-09 1.90525e-09 3.49964e-10 6.1668e-11 1.02618e-11 1.63622e-12 1.54144e-13 -1.92772e-13 -1.38151e-13 -1.47556e-13 9.43342e-14 7.32448e-15 -1.39831e-13 2.90754e-14 9.90694e-15 -4.1655e-14 4.44705e-14 -1.37368e-13 5.4899e-14 -7.88565e-14 -8.36075e-15 -8.8778e-14 2.35664e-15 2.46022e-14 -9.25966e-14 -6.78924e-14 1.04684e-15 1.27007e-13 -2.85516e-14 -7.56607e-14 -1.64869e-13 -2.44115e-13 -1.09877e-13 1.10822e-13 -9.22656e-14 1.56498e-13 8.66894e-15 -9.00734e-14 4.99769e-14 1.41076e-13 -1.23926e-13 1.86129e-14 -1.07568e-14 -3.25186e-14 1.02544e-13 -1.07156e-13 6.83585e-14 1.0389e-13 7.88038e-14 -4.27243e-14 2.02801e-13 -5.72082e-14 -9.40689e-15 1.51874e-13 -2.16735e-14 -1.32752e-13 9.41623e-14 6.01981e-14 1.25166e-13 1.26403e-14 8.82831e-14 -1.63417e-14 1.10982e-13 1.01484e-13 1.39072e-13 1.34468e-13 -2.79441e-15 1.57444e-13 7.92115e-14 1.17289e-14 0 0 7.49162e-16 3.2469e-15 1.44119e-15 -6.98359e-15 1.79595e-16 1.37226e-16 2.90413e-15 -3.325e-15 4.99866e-15 -4.2394e-15 -4.83603e-15 9.93532e-17 -9.96748e-15 -1.90899e-15 -4.60255e-15 -5.71926e-15 -7.29421e-16 5.82163e-16 2.89688e-14 -7.1618e-15 7.52009e-15 2.91976e-15 -1.79902e-15 -3.34892e-15 -1.53438e-15 -1.80609e-14 -7.26426e-15 -2.49241e-14 2.39742e-15 -6.81247e-15 -8.13791e-14 -1.16388e-14 -8.09324e-14 -1.34075e-14 1.5962e-14 1.7517e-16 -3.10991e-14 1.74342e-14 2.62387e-14 -4.12035e-14 1.99303e-14 -3.37e-14 2.51777e-14 -3.52817e-15 7.24304e-15 -2.87074e-15 1.79552e-14 2.42813e-14 -1.6842e-14 2.86189e-14 -5.0062e-14 4.67912e-14 -8.48078e-15 -2.39981e-14 4.76112e-14 4.56589e-14 -2.63756e-14 -5.22375e-14 5.73489e-14 -5.76949e-14 -7.71803e-14 -1.39545e-14 -5.75807e-14 -1.16017e-13 -6.79633e-14 -4.07225e-14 -4.64769e-15 -5.96848e-14 2.39514e-14 9.8688e-15 6.57602e-14 -6.09363e-14 -1.70731e-14 -1.29178e-13 -4.84903e-14 6.49863e-14 -9.87383e-14 4.42257e-13 2.9173e-12 5.23332e-11 8.36507e-10 1.18321e-08 1.46428e-07 1.56875e-06 1.43637e-05 0.000110589 0.00070118 0.00356524 0.0141115 0.0425607 0.0984843 0.182722 0.289695 0.415294 0.558948 0.720583 0.889768 0.991816 0.946957 0.930077 0.92797 0.925076 0.922356 0.918082 0.916034 0.91105 0.911535 0.899601 0.903295 0.856802 0.866385 0.75847 0.754164 0.591808 0.496822 0.336446 0.206248 0.102213 0.0412592 0.0139538 0.00422549 0.0011961 0.000322195 8.30456e-05 2.05084e-05 4.8534e-06 1.10066e-06 2.39205e-07 4.98266e-08 9.94996e-09 1.90528e-09 3.49827e-10 6.17633e-11 1.03207e-11 1.59232e-12 1.77206e-13 -2.6628e-13 -1.65022e-13 -2.98831e-13 1.69851e-13 2.20218e-14 -2.60906e-13 1.89977e-13 4.77311e-14 -5.45962e-14 1.43696e-15 -8.29899e-14 -1.14241e-13 5.25741e-14 -1.29736e-13 1.55571e-14 4.64558e-15 1.03795e-13 -1.64221e-13 -4.29582e-14 -5.79018e-14 1.55602e-13 8.90821e-15 -8.95184e-14 -8.5815e-14 -3.2595e-13 -1.06118e-13 3.51216e-14 -1.04184e-13 1.86006e-13 2.88218e-13 -3.69171e-13 3.53432e-14 1.74921e-13 -3.36657e-13 1.01581e-13 1.00143e-13 -1.08222e-13 1.06656e-13 -2.7131e-13 3.56179e-13 6.1156e-14 -2.38417e-14 -2.63439e-14 2.63932e-13 5.86669e-14 5.31899e-14 1.17153e-13 -7.19261e-14 -1.90481e-13 2.02449e-13 8.58746e-14 1.40284e-13 -1.90688e-15 2.5836e-15 3.19439e-14 1.21968e-13 -1.29407e-13 3.92798e-13 -8.42779e-15 2.55292e-14 1.02388e-13 1.49741e-13 3.67732e-14 0
				</DataArray>
				<DataArray Name="VitesseY" type="Float32" format="ascii">