<?xml version="1.0"?>
<VTKFile type="PolyData">
	<PolyData>
		<Piece NumberOfPoints="1206" NumberOfPolys="1000">
			<Points>
				<DataArray type="Float32" NumberOfComponents="3" format="ascii">
 0 0 0 0.005 0 0 0.01 0 0 0.015 0 0 0.02 0 0 0.025 0 0 0.03 0 0 0.035 0 0 0.04 0 0 0.045 0 0 0.05 0 0 0.055 0 0 0.06 0 0 0.065 0 0 0.07 0 0 0.075 0 0 0.08 0 0 0.085 0 0 0.09 0 0 0.095 0 0 0.1 0 0 0.105 0 0 0.11 0 0 0.115 0 0 0.12 0 0 0.125 0 0 0.13 0 0 0.135 0 0 0.14 0 0 0.145 0 0 0.15 0 0 0.155 0 0 0.16 0 0 0.165 0 0 0.17 0 0 0.175 0 0 0.18 0 0 0.185 0 0 0.19 0 0 0.195 0 0 0.2 0 0 0.205 0 0 0.21 0 0 0.215 0 0 0.22 0 0 0.225 0 0 0.23 0 0 0.235 0 0 0.240001 0 0 0.245004 0 0 0.250011 0 0 0.255027 0 0 0.260059 0 0 0.265119 0 0 0.270222 0 0 0.275381 0 0 0.280612 0 0 0.285925 0 0 0.291329 0 0 0.296832 0 0 0.302441 0 0 0.308162 0 0 0.314001 0 0 0.319964 0 0 0.326058 0 0 0.332291 0 0 0.33867 0 0 0.345202 0 0 0.351898 0 0 0.358765 0 0 0.365814 0 0 0.373057 0 0 0.380505 0 0 0.388171 0 0 0.396071 0 0 0.40422 0 0 0.412635 0 0 0.421337 0 0 0.430346 0 0 0.439686 0 0 0.449382 0 0 0.459462 0 0 0.469953 0 0 0.480881 0 0 0.492258 0 0 0.50406 0 0 0.516158 0 0 0.528269 0 0 0.540296 0 0 0.552234 0 0 0.564093 0 0 0.575895 0 0 0.587661 0 0 0.599409 0 0 0.611149 0 0 0.622884 0 0 0.634619 0 0 0.646352 0 0 0.658087 0 0 0.669824 0 0 0.681575 0 0 0.684188 0 0 0.686727 0 0 0.689219 0 0 0.69168 0 0 0.694118 0 0 0.69654 0 0 0.698948 0 0 0.701346 0 0 0.703738 0 0 0.706126 0 0 0.708507 0 0 0.710884 0 0 0.713256 0 0 0.715625 0 0 0.717992 0 0 0.720358 0 0 0.722721 0 0 0.725083 0 0 0.727443 0 0 0.729802 0 0 0.73216 0 0 0.734518 0 0 0.736874 0 0 0.73923 0 0 0.741586 0 0 0.743942 0 0 0.746297 0 0 0.748652 0 0 0.751007 0 0 0.753362 0 0 0.755717 0 0 0.758071 0 0 0.760426 0 0 0.76278 0 0 0.765134 0 0 0.767487 0 0 0.769842 0 0 0.772196 0 0 0.77455 0 0 0.776904 0 0 0.779257 0 0 0.78161 0 0 0.783964 0 0 0.786318 0 0 0.788673 0 0 0.791029 0 0 0.793385 0 0 0.79574 0 0 0.798095 0 0 0.80045 0 0 0.802804 0 0 0.805158 0 0 0.807516 0 0 0.809875 0 0 0.812234 0 0 0.814591 0 0 0.816947 0 0 0.819301 0 0 0.821654 0 0 0.824012 0 0 0.826382 0 0 0.828773 0 0 0.831201 0 0 0.83367 0 0 0.836257 0 0 0.838956 0 0 0.84184 0 0 0.844941 0 0 0.848342 0 0 0.852076 0 0 0.856166 0 0 0.860583 0 0 0.86526 0 0 0.870105 0 0 0.87504 0 0 0.880015 0 0 0.885005 0 0 0.890002 0 0 0.895001 0 0 0.9 0 0 0.905 0 0 0.91 0 0 0.915 0 0 0.92 0 0 0.925 0 0 0.93 0 0 0.935 0 0 0.94 0 0 0.945 0 0 0.95 0 0 0.955 0 0 0.96 0 0 0.965 0 0 0.97 0 0 0.975 0 0 0.98 0 0 0.985 0 0 0.99 0 0 0.995 0 0 1 0 0 0 0.02 0 0.005 0.02 0 0.01 0.02 0 0.015 0.02 0 0.02 0.02 0 0.025 0.02 0 0.03 0.02 0 0.035 0.02 0 0.04 0.02 0 0.045 0.02 0 0.05 0.02 0 0.055 0.02 0 0.06 0.02 0 0.065 0.02 0 0.07 0.02 0 0.075 0.02 0 0.08 0.02 0 0.085 0.02 0 0.09 0.02 0 0.095 0.02 0 0.1 0.02 0 0.105 0.02 0 0.11 0.02 0 0.115 0.02 0 0.12 0.02 0 0.125 0.02 0 0.13 0.02 0 0.135 0.02 0 0.14 0.02 0 0.145 0.02 0 0.15 0.02 0 0.155 0.02 0 0.16 0.02 0 0.165 0.02 0 0.17 0.02 0 0.175 0.02 0 0.18 0.02 0 0.185 0.02 0 0.19 0.02 0 0.195 0.02 0 0.2 0.02 0 0.205 0.02 0 0.21 0.02 0 0.215 0.02 0 0.22 0.02 0 0.225 0.02 0 0.23 0.02 0 0.235 0.02 0 0.240001 0.02 0 0.245004 0.02 0 0.250011 0.02 0 0.255027 0.02 0 0.260059 0.02 0 0.265119 0.02 0 0.270222 0.02 0 0.275381 0.02 0 0.280612 0.02 0 0.285925 0.02 0 0.291329 0.02 0 0.296832 0.02 0 0.302441 0.02 0 0.308162 0.02 0 0.314001 0.02 0 0.319964 0.02 0 0.326058 0.02 0 0.332291 0.02 0 0.33867 0.02 0 0.345202 0.02 0 0.351898 0.02 0 0.358765 0.02 0 0.365814 0.02 0 0.373057 0.02 0 0.380505 0.02 0 0.388171 0.02 0 0.396071 0.02 0 0.40422 0.02 0 0.412635 0.02 0 0.421337 0.02 0 0.430346 0.02 0 0.439686 0.02 0 0.449382 0.02 0 0.459462 0.02 0 0.469953 0.02 0 0.480881 0.02 0 0.492258 0.02 0 0.50406 0.02 0 0.516158 0.02 0 0.528269 0.02 0 0.540296 0.02 0 0.552234 0.02 0 0.564093 0.02 0 0.575895 0.02 0 0.587661 0.02 0 0.599409 0.02 0 0.611149 0.02 0 0.622884 0.02 0 0.634619 0.02 0 0.646352 0.02 0 0.658087 0.02 0 0.669824 0.02 0 0.681575 0.02 0 0.684188 0.02 0 0.686727 0.02 0 0.689219 0.02 0 0.69168 0.02 0 0.694118 0.02 0 0.69654 0.02 0 0.698948 0.02 0 0.701346 0.02 0 0.703738 0.02 0 0.706126 0.02 0 0.708507 0.02 0 0.710884 0.02 0 0.713256 0.02 0 0.715625 0.02 0 0.717992 0.02 0 0.720358 0.02 0 0.722721 0.02 0 0.725083 0.02 0 0.727443 0.02 0 0.729802 0.02 0 0.73216 0.02 0 0.734518 0.02 0 0.736874 0.02 0 0.73923 0.02 0 0.741586 0.02 0 0.743942 0.02 0 0.746297 0.02 0 0.748652 0.02 0 0.751007 0.02 0 0.753362 0.02 0 0.755717 0.02 0 0.758071 0.02 0 0.760426 0.02 0 0.76278 0.02 0 0.765134 0.02 0 0.767487 0.02 0 0.769842 0.02 0 0.772196 0.02 0 0.77455 0.02 0 0.776904 0.02 0 0.779257 0.02 0 0.78161 0.02 0 0.783964 0.02 0 0.786318 0.02 0 0.788673 0.02 0 0.791029 0.02 0 0.793385 0.02 0 0.79574 0.02 0 0.798095 0.02 0 0.80045 0.02 0 0.802804 0.02 0 0.805158 0.02 0 0.807516 0.02 0 0.809875 0.02 0 0.812234 0.02 0 0.814591 0.02 0 0.816947 0.02 0 0.819301 0.02 0 0.821654 0.02 0 0.824012 0.02 0 0.826382 0.02 0 0.828773 0.02 0 0.831201 0.02 0 0.83367 0.02 0 0.836257 0.02 0 0.838956 0.02 0 0.84184 0.02 0 0.844941 0.02 0 0.848342 0.02 0 0.852076 0.02 0 0.856166 0.02 0 0.860583 0.02 0 0.86526 0.02 0 0.870105 0.02 0 0.87504 0.02 0 0.880015 0.02 0 0.885005 0.02 0 0.890002 0.02 0 0.895001 0.02 0 0.9 0.02 0 0.905 0.02 0 0.91 0.02 0 0.915 0.02 0 0.92 0.02 0 0.925 0.02 0 0.93 0.02 0 0.935 0.02 0 0.94 0.02 0 0.945 0.02 0 0.95 0.02 0 0.955 0.02 0 0.96 0.02 0 0.965 0.02 0 0.97 0.02 0 0.975 0.02 0 0.98 0.02 0 0.985 0.02 0 0.99 0.02 0 0.995 0.02 0 1 0.02 0 0 0.04 0 0.005 0.04 0 0.01 0.04 0 0.015 0.04 0 0.02 0.04 0 0.025 0.04 0 0.03 0.04 0 0.035 0.04 0 0.04 0.04 0 0.045 0.04 0 0.05 0.04 0 0.055 0.04 0 0.06 0.04 0 0.065 0.04 0 0.07 0.04 0 0.075 0.04 0 0.08 0.04 0 0.085 0.04 0 0.09 0.04 0 0.095 0.04 0 0.1 0.04 0 0.105 0.04 0 0.11 0.04 0 0.115 0.04 0 0.12 0.04 0 0.125 0.04 0 0.13 0.04 0 0.135 0.04 0 0.14 0.04 0 0.145 0.04 0 0.15 0.04 0 0.155 0.04 0 0.16 0.04 0 0.165 0.04 0 0.17 0.04 0 0.175 0.04 0 0.18 0.04 0 0.185 0.04 0 0.19 0.04 0 0.195 0.04 0 0.2 0.04 0 0.205 0.04 0 0.21 0.04 0 0.215 0.04 0 0.22 0.04 0 0.225 0.04 0 0.23 0.04 0 0.235 0.04 0 0.240001 0.04 0 0.245004 0.04 0 0.250011 0.04 0 0.255027 0.04 0 0.260059 0.04 0 0.265119 0.04 0 0.270222 0.04 0 0.275381 0.04 0 0.280612 0.04 0 0.285925 0.04 0 0.291329 0.04 0 0.296832 0.04 0 0.302441 0.04 0 0.308162 0.04 0 0.314001 0.04 0 0.319964 0.04 0 0.326058 0.04 0 0.332291 0.04 0 0.33867 0.04 0 0.345202 0.04 0 0.351898 0.04 0 0.358765 0.04 0 0.365814 0.04 0 0.373057 0.04 0 0.380505 0.04 0 0.388171 0.04 0 0.396071 0.04 0 0.40422 0.04 0 0.412635 0.04 0 0.421337 0.04 0 0.430346 0.04 0 0.439686 0.04 0 0.449382 0.04 0 0.459462 0.04 0 0.469953 0.04 0 0.480881 0.04 0 0.492258 0.04 0 0.50406 0.04 0 0.516158 0.04 0 0.528269 0.04 0 0.540296 0.04 0 0.552234 0.04 0 0.564093 0.04 0 0.575895 0.04 0 0.587661 0.04 0 0.599409 0.04 0 0.611149 0.04 0 0.622884 0.04 0 0.634619 0.04 0 0.646352 0.04 0 0.658087 0.04 0 0.669824 0.04 0 0.681575 0.04 0 0.684188 0.04 0 0.686727 0.04 0 0.689219 0.04 0 0.69168 0.04 0 0.694118 0.04 0 0.69654 0.04 0 0.698948 0.04 0 0.701346 0.04 0 0.703738 0.04 0 0.706126 0.04 0 0.708507 0.04 0 0.710884 0.04 0 0.713256 0.04 0 0.715625 0.04 0 0.717992 0.04 0 0.720358 0.04 0 0.722721 0.04 0 0.725083 0.04 0 0.727443 0.04 0 0.729802 0.04 0 0.73216 0.04 0 0.734518 0.04 0 0.736874 0.04 0 0.73923 0.04 0 0.741586 0.04 0 0.743942 0.04 0 0.746297 0.04 0 0.748652 0.04 0 0.751007 0.04 0 0.753362 0.04 0 0.755717 0.04 0 0.758071 0.04 0 0.760426 0.04 0 0.76278 0.04 0 0.765134 0.04 0 0.767487 0.04 0 0.769842 0.04 0 0.772196 0.04 0 0.77455 0.04 0 0.776904 0.04 0 0.779257 0.04 0 0.78161 0.04 0 0.783964 0.04 0 0.786318 0.04 0 0.788673 0.04 0 0.791029 0.04 0 0.793385 0.04 0 0.79574 0.04 0 0.798095 0.04 0 0.80045 0.04 0 0.802804 0.04 0 0.805158 0.04 0 0.807516 0.04 0 0.809875 0.04 0 0.812234 0.04 0 0.814591 0.04 0 0.816947 0.04 0 0.819301 0.04 0 0.821654 0.04 0 0.824012 0.04 0 0.826382 0.04 0 0.828773 0.04 0 0.831201 0.04 0 0.83367 0.04 0 0.836257 0.04 0 0.838956 0.04 0 0.84184 0.04 0 0.844941 0.04 0 0.848342 0.04 0 0.852076 0.04 0 0.856166 0.04 0 0.860583 0.04 0 0.86526 0.04 0 0.870105 0.04 0 0.87504 0.04 0 0.880015 0.04 0 0.885005 0.04 0 0.890002 0.04 0 0.895001 0.04 0 0.9 0.04 0 0.905 0.04 0 0.91 0.04 0 0.915 0.04 0 0.92 0.04 0 0.925 0.04 0 0.93 0.04 0 0.935 0.04 0 0.94 0.04 0 0.945 0.04 0 0.95 0.04 0 0.955 0.04 0 0.96 0.04 0 0.965 0.04 0 0.97 0.04 0 0.975 0.04 0 0.98 0.04 0 0.985 0.04 0 0.99 0.04 0 0.995 0.04 0 1 0.04 0 0 0.06 0 0.005 0.06 0 0.01 0.06 0 0.015 0.06 0 0.02 0.06 0 0.025 0.06 0 0.03 0.06 0 0.035 0.06 0 0.04 0.06 0 0.045 0.06 0 0.05 0.06 0 0.055 0.06 0 0.06 0.06 0 0.065 0.06 0 0.07 0.06 0 0.075 0.06 0 0.08 0.06 0 0.085 0.06 0 0.09 0.06 0 0.095 0.06 0 0.1 0.06 0 0.105 0.06 0 0.11 0.06 0 0.115 0.06 0 0.12 0.06 0 0.125 0.06 0 0.13 0.06 0 0.135 0.06 0 0.14 0.06 0 0.145 0.06 0 0.15 0.06 0 0.155 0.06 0 0.16 0.06 0 0.165 0.06 0 0.17 0.06 0 0.175 0.06 0 0.18 0.06 0 0.185 0.06 0 0.19 0.06 0 0.195 0.06 0 0.2 0.06 0 0.205 0.06 0 0.21 0.06 0 0.215 0.06 0 0.22 0.06 0 0.225 0.06 0 0.23 0.06 0 0.235 0.06 0 0.240001 0.06 0 0.245004 0.06 0 0.250011 0.06 0 0.255027 0.06 0 0.260059 0.06 0 0.265119 0.06 0 0.270222 0.06 0 0.275381 0.06 0 0.280612 0.06 0 0.285925 0.06 0 0.291329 0.06 0 0.296832 0.06 0 0.302441 0.06 0 0.308162 0.06 0 0.314001 0.06 0 0.319964 0.06 0 0.326058 0.06 0 0.332291 0.06 0 0.33867 0.06 0 0.345202 0.06 0 0.351898 0.06 0 0.358765 0.06 0 0.365814 0.06 0 0.373057 0.06 0 0.380505 0.06 0 0.388171 0.06 0 0.396071 0.06 0 0.40422 0.06 0 0.412635 0.06 0 0.421337 0.06 0 0.430346 0.06 0 0.439686 0.06 0 0.449382 0.06 0 0.459462 0.06 0 0.469953 0.06 0 0.480881 0.06 0 0.492258 0.06 0 0.50406 0.06 0 0.516158 0.06 0 0.528269 0.06 0 0.540296 0.06 0 0.552234 0.06 0 0.564093 0.06 0 0.575895 0.06 0 0.587661 0.06 0 0.599409 0.06 0 0.611149 0.06 0 0.622884 0.06 0 0.634619 0.06 0 0.646352 0.06 0 0.658087 0.06 0 0.669824 0.06 0 0.681575 0.06 0 0.684188 0.06 0 0.686727 0.06 0 0.689219 0.06 0 0.69168 0.06 0 0.694118 0.06 0 0.69654 0.06 0 0.698948 0.06 0 0.701346 0.
[...]
			<PointData Scalars="VitesseX">
				<DataArray Name="VitesseX" type="Float32" format="ascii">
 0 5.97347e-15 3.01575e-15 3.01275e-15 2.98957e-15 -2.30142e-15 -9.63504e-16 2.48184e-15 1.1878e-15 2.94834e-15 6.37149e-16 5.48767e-16 -6.47693e-15 -1.92558e-15 1.24758e-14 -4.47103e-15 1.04626e-14 1.20499e-15 8.97208e-15 -7.2228e-15 -2.57082e-16 7.28051e-15 1.00892e-14 8.83868e-15 9.61649e-15 2.02956e-14 -7.73454e-16 5.59223e-14 2.0783e-14 3.50003e-14 5.51665e-14 2.53241e-14 4.05618e-14 1.06178e-13 4.97838e-13 2.90826e-12 1.66736e-11 9.22444e-11 4.87684e-10 2.45358e-09 1.1728e-08 5.31502e-08 2.27848e-07 9.2157e-07 3.50651e-06 1.25089e-05 4.16733e-05 0.000129065 0.000369627 0.000973025 0.00233959 0.00510854 0.0100917 0.0180374 0.0293202 0.0437873 0.0608887 0.0799637 0.100463 0.122022 0.144428 0.16757 0.191392 0.215871 0.241002 0.26679 0.293251 0.320404 0.348275 0.376894 0.406294 0.436512 0.46759 0.499572 0.532506 0.56644 0.601426 0.637511 0.674736 0.713123 0.752654 0.793227 0.834546 0.875863 0.915272 0.947782 0.960781 0.953463 0.946297 0.93938 0.934137 0.930806 0.928983 0.928091 0.927673 0.927464 0.927345 0.927269 0.927219 0.92718 0.92714 0.927136 0.927134 0.927133 0.927133 0.927138 0.927159 0.927184 0.927181 0.927182 0.927182 0.927182 0.927196 0.927238 0.927285 0.927253 0.927232 0.927192 0.927145 0.927092 0.927038 0.926986 0.926938 0.9269 0.926874 0.926859 0.926859 0.926927 0.927072 0.926997 0.92697 0.92691 0.926858 0.926813 0.926788 0.92678 0.926769 0.926737 0.926668 0.926595 0.926515 0.926459 0.926426 0.926434 0.92671 0.927431 0.92724 0.926976 0.926593 0.926151 0.925878 0.925805 0.926026 0.927764 0.927242 0.926604 0.925399 0.924475 0.923752 0.925254 0.923804 0.928442 0.898154 0.902243 0.854375 0.831698 0.757994 0.71161 0.596374 0.497759 0.367555 0.247989 0.145254 0.0730456 0.0318565 0.0126047 0.00474251 0.00174635 0.000637672 0.000232085 8.43488e-05 3.06287e-05 1.11126e-05 4.02788e-06 1.45815e-06 5.27065e-07 1.9016e-07 6.84546e-08 2.45778e-08 8.7974e-09 3.138e-09 1.11491e-09 3.94415e-10 1.38919e-10 4.87272e-11 1.68876e-11 5.9601e-12 2.07339e-12 6.80343e-13 2.43049e-13 0 0 2.73889e-15 2.96657e-15 1.06585e-15 3.30794e-15 1.95558e-15 5.69736e-16 -2.15042e-15 5.02534e-15 -1.25727e-16 4.10564e-15 -7.84255e-15 3.10894e-15 -4.68131e-15 5.13643e-15 4.03068e-15 5.21011e-15 2.15892e-15 -2.87155e-15 1.44732e-14 -6.1851e-15 3.17715e-15 6.48087e-15 6.06099e-15 1.35618e-14 2.12532e-14 1.7555e-14 3.25567e-14 4.03639e-14 3.66374e-14 3.20708e-14 3.70539e-14 6.47068e-14 8.86903e-14 5.12127e-13 2.88495e-12 1.66875e-11 9.22514e-11 4.87641e-10 2.45362e-09 1.1728e-08 5.31501e-08 2.27848e-07 9.2157e-07 3.50651e-06 1.25089e-05 4.16733e-05 0.000129065 0.000369627 0.000973025 0.00233959 0.00510854 0.0100917 0.0180374 0.0293202 0.0437873 0.0608887 0.0799637 0.100463 0.122022 0.144428 0.16757 0.191392 0.215871 0.241002 0.26679 0.293251 0.320404 0.348275 0.376894 0.406294 0.436512 0.46759 0.499572 0.532506 0.56644 0.601426 0.637511 0.674736 0.713123 0.752654 0.793227 0.834546 0.875863 0.915272 0.947782 0.960781 0.953463 0.946297 0.93938 0.934137 0.930806 0.928983 0.928091 0.927673 0.927464 0.927345 0.927269 0.927219 0.92718 0.92714 0.927136 0.927134 0.927133 0.927133 0.927138 0.927159 0.927184 0.927181 0.927182 0.927182 0.927182 0.927196 0.927238 0.927285 0.927253 0.927232 0.927192 0.927145 0.927092 0.927038 0.926986 0.926938 0.9269 0.926874 0.926859 0.926859 0.926927 0.927072 0.926997 0.92697 0.92691 0.926858 0.926813 0.926788 0.92678 0.926769 0.926737 0.926668 0.926595 0.926515 0.926459 0.926426 0.926434 0.92671 0.927431 0.92724 0.926976 0.926593 0.926151 0.925878 0.925805 0.926026 0.927764 0.927242 0.926604 0.925399 0.924475 0.923752 0.925254 0.923804 0.928442 0.898154 0.902243 0.854375 0.831698 0.757994 0.71161 0.596374 0.497759 0.367555 0.247989 0.145254 0.0730456 0.0318565 0.0126047 0.00474251 0.00174635 0.000637672 0.000232085 8.43488e-05 3.06287e-05 1.11126e-05 4.02788e-06 1.45815e-06 5.27065e-07 1.9016e-07 6.84545e-08 2.45778e-08 8.79753e-09 3.13798e-09 1.11486e-09 3.94457e-10 1.38848e-10 4.87004e-11 1.70832e-11 5.95945e-12 2.00489e-12 8.27461e-13 1.59684e-13 0 0 -2.59524e-16 -6.64348e-16 -6.57401e-16 -1.15765e-15 6.36572e-15 1.14345e-15 3.2869e-15 -3.17397e-15 -5.33433e-15 1.62031e-15 3.42902e-15 -3.04326e-15 4.06897e-15 -5.08926e-15 9.11608e-15 -5.27982e-15 -3.61005e-16 1.81946e-15 1.28622e-14 2.31197e-15 1.14073e-14 1.90167e-15 8.72081e-15 1.39599e-14 2.76918e-14 2.35424e-14 2.20244e-14 3.5138e-14 1.7973e-14 4.75684e-14 5.85473e-14 8.23558e-14 1.25091e-13 4.72094e-13 2.86763e-12 1.66633e-11 9.22449e-11 4.87601e-10 2.45365e-09 1.1728e-08 5.315e-08 2.27848e-07 9.2157e-07 3.50651e-06 1.25089e-05 4.16733e-05 0.000129065 0.000369627 0.000973025 0.00233959 0.00510854 0.0100917 0.0180374 0.0293202 0.0437873 0.0608887 0.0799637 0.100463 0.122022 0.144428 0.16757 0.191392 0.215871 0.241002 0.26679 0.293251 0.320404 0.348275 0.376894 0.406294 0.436512 0.46759 0.499572 0.532506 0.56644 0.601426 0.637511 0.674736 0.713123 0.752654 0.793227 0.834546 0.875863 0.915272 0.947782 0.960781 0.953463 0.946297 0.93938 0.934137 0.930806 0.928983 0.928091 0.927673 0.927464 0.927345 0.927269 0.927219 0.92718 0.92714 0.927136 0.927134 0.927133 0.927133 0.927138 0.927159 0.927184 0.927181 0.927182 0.927182 0.927182 0.927196 0.927238 0.927285 0.927253 0.927232 0.927192 0.927145 0.927092 0.927038 0.926986 0.926938 0.9269 0.926874 0.926859 0.926859 0.926927 0.927072 0.926997 0.92697 0.92691 0.926858 0.926813 0.926788 0.92678 0.926769 0.926737 0.926668 0.926595 0.926515 0.926459 0.926426 0.926434 0.92671 0.927431 0.92724 0.926976 0.926593 0.926151 0.925878 0.925805 0.926026 0.927764 0.927242 0.926604 0.925399 0.924475 0.923752 0.925254 0.923804 0.928442 0.898154 0.902243 0.854375 0.831698 0.757994 0.71161 0.596374 0.497759 0.367555 0.247989 0.145254 0.0730456 0.0318565 0.0126047 0.00474251 0.00174635 0.000637672 0.000232085 8.43488e-05 3.06287e-05 1.11126e-05 4.02788e-06 1.45815e-06 5.27065e-07 1.9016e-07 6.84546e-08 2.45778e-08 8.79763e-09 3.13794e-09 1.11498e-09 3.94318e-10 1.38983e-10 4.87183e-11 1.7045e-11 6.09924e-12 2.06279e-12 7.99162e-13 1.30793e-13 0 0 -2.26732e-15 -5.17176e-15 -3.23874e-15 -7.4142e-15 -7.23736e-15 -1.78839e-15 9.88188e-15 -2.8925e-15 -5.05539e-15 1.91761e-15 7.46577e-15 -2.14903e-16 1.5467e-14 -3.38809e-16 -8.63417e-15 -3.45302e-15 -8.41161e-15 8.51784e-15 4.48477e-16 9.26494e-15 1.37108e-14 3.1668e-14 3.61923e-15 2.67986e-15 2.33075e-14 2.94315e-14 3.01686e-14 4.10872e-15 2.81493e-14 7.81368e-14 5.43758e-14 1.05314e-13 1.23708e-13 4.51063e-13 2.82095e-12 1.66017e-11 9.22893e-11 4.87626e-10 2.45358e-09 1.17281e-08 5.315e-08 2.27848e-07 9.2157e-07 3.50651e-06 1.25089e-05 4.16733e-05 0.000129065 0.000369627 0.000973025 0.00233959 0.00510854 0.0100917 0.0180374 0.0293202 0.0437873 0.0608887 0.0799637 0.100463 0.122022 0.144428 0.16757 0.191392 0.215871 0.241002 0.26679 0.293251 0.320404 0.348275 0.376894 0.406294 0.436512 0.46759 0.499572 0.532506 0.56644 0.601426 0.637511 0.674736 0.713123 0.752654 0.793227 0.834546 0.875863 0.915272 0.947782 0.960781 0.953463 0.946297 0.93938 0.934137 0.930806 0.928983 0.928091 0.927673 0.927464 0.927345 0.927269 0.927219 0.92718 0.92714 0.927136 0.927134 0.927133 0.927133 0.927138 0.927159 0.927184 0.927181 0.927182 0.927182 0.927182 0.927196 0.927238 0.927285 0.927253 0.927232 0.927192 0.927145 0.927092 0.927038 0.926986 0.926938 0.9269 0.926874 0.926859 0.926859 0.926927 0.927072 0.926997 0.92697 0.92691 0.926858 0.926813 0.926788 0.92678 0.926769 0.926737 0.926668 0.926595 0.926515 0.926459 0.926426 0.926434 0.92671 0.927431 0.92724 0.926976 0.926593 0.926151 0.925878 0.925805 0.926026 0.927764 0.927242 0.926604 0.925399 0.924475 0.923752 0.925254 0.923804 0.928442 0.898154 0.902243 0.854375 0.831698 0.757994 0.71161 0.596374 0.497759 0.367555 0.247989 0.145254 0.0730456 0.0318565 0.0126047 0.00474251 0.00174635 0.000637672 0.000232085 8.43488e-05 3.06287e-05 1.11126e-05 4.02788e-06 1.45815e-06 5.27065e-07 1.9016e-07 6.84546e-08 2.45779e-08 8.79751e-09 3.13795e-09 1.11525e-09 3.94421e-10 1.38984e-10 4.87372e-11 1.69525e-11 6.21478e-12 2.07228e-12 6.36444e-13 1.08073e-13 0 0 -2.58615e-15 -4.17188e-15 -3.39123e-15 -1.18339e-14 -1.68592e-14 -1.15587e-14 -4.90777e-15 2.63113e-15 -3.75823e-15 1.45219e-14 6.63789e-15 9.17662e-15 1.39949e-14 6.62569e-16 -5.1757e-15 6.87306e-15 -1.45119e-14 -4.6691e-15 7.55826e-15 -4.01557e-16 1.88049e-14 4.77091e-14 -1.38777e-14 1.10995e-14 2.36962e-14 2.21658e-14 1.42033e-14 2.35494e-14 8.39379e-14 7.18993e-14 4.98249e-14 9.24888e-14 8.33548e-14 4.7892e-13 2.79312e-12 1.65817e-11 9.22858e-11 4.87621e-10 2.45353e-09 1.17281e-08 5.315e-08 2.27848e-07 9.2157e-07 3.50651e-06 1.25089e-05 4.16733e-05 0.000129065 0.000369627 0.000973025 0.00233959 0.00510854 0.0100917 0.0180374 0.0293202 0.0437873 0.0608887 0.0799637 0.100463 0.122022 0.144428 0.16757 0.191392 0.215871 0.241002 0.26679 0.293251 0.320404 0.348275 0.376894 0.406294 0.436512 0.46759 0.499572 0.532506 0.56644 0.601426 0.637511 0.674736 0.713123 0.752654 0.793227 0.834546 0.875863 0.915272 0.947782 0.960781 0.953463 0.946297 0.93938 0.934137 0.930806 0.928983 0.928091 0.927673 0.927464 0.927345 0.927269 0.927219 0.92718 0.92714 0.927136 0.927134 0.927133 0.927133 0.927138 0.927159 0.927184 0.927181 0.927182 0.927182 0.927182 0.927196 0.927238 0.927285 0.927253 0.927232 0.927192 0.927145 0.927092 0.927038 0.926986 0.926938 0.9269 0.926874 0.926859 0.926859 0.926927 0.927072 0.926997 0.92697 0.92691 0.926858 0.926813 0.926788 0.92678 0.926769 0.926737 0.926668 0.926595 0.926515 0.926459 0.926426 0.926434 0.92671 0.927431 0.92724 0.926976 0.926593 0.926151 0.925878 0.925805 0.926026 0.927764 0.927242 0.926604 0.925399 0.924475 0.923752 0.925254 0.923804 0.928442 0.898154 0.902243 0.854375 0.831698 0.757994 0.71161 0.596374 0.497759 0.367555 0.247989 0.145254 0.0730456 0.0318565 0.0126047 0.00474251 0.00174635 0.000637672 0.000232085 8.43488e-05 3.06287e-05 1.11126e-05 4.02788e-06 1.45815e-06 5.27065e-07 1.9016e-07 6.84546e-08 2.45779e-08 8.79754e-09 3.13797e-09 1.11519e-09 3.94676e-10 1.3888e-10 4.8709e-11 1.71252e-11 6.14652e-12 1.91799e-12 6.37661e-13 8.06818e-14 0 0 -6.61034e-16 -2.24631e-15 -7.38703e-16 -1.4781e-14 -1.27248e-14 -1.93567e-14 -1.62228e-14 -4.16355e-15 -4.87456e-15 2.08751e-14 2.14362e-14 1.73655e-18 1.26309e-14 -5.97281e-15 1.26167e-14 1.01349e-14 -1.60355e-14 -8.01978e-15 3.77467e-15 -2.59595e-15 3.3929e-14 3.3013e-14 -2.08356e-14 2.72521e-14 3.39502e-14 -3.32993e-15 2.92702e-15 4.92126e-14 1.09249e-13 7.36868e-14 5.92094e-14 5.02095e-14 9.82733e-14 4.73484e-13 2.81794e-12 1.65853e-11 9.22243e-11 4.87595e-10 2.45354e-09 1.17281e-08 5.315e-08 2.27848e-07 9.2157e-07 3.50651e-06 1.25089e-05 4.16733e-05 0.000129065 0.000369627 0.000973025 0.00233959 0.00510854 0.0100917 0.0180374 0.0293202 0.0437873 0.0608887 0.0799637 0.100463 0.122022 0.144428 0.16757 0.191392 0.215871 0.241002 0.26679 0.293251 0.320404 0.348275 0.376894 0.406294 0.436512 0.46759 0.499572 0.532506 0.56644 0.601426 0.637511 0.674736 0.713123 0.752654 0.793227 0.834546 0.875863 0.915272 0.947782 0.960781 0.953463 0.946297 0.93938 0.934137 0.930806 0.928983 0.928091 0.927673 0.927464 0.927345 0.927269 0.927219 0.92718 0.92714 0.927136 0.927134 0.927133 0.927133 0.927138 0.927159 0.927184 0.927181 0.927182 0.927182 0.927182 0.927196 0.927238 0.927285 0.927253 0.927232 0.927192 0.927145 0.927092 0.927038 0.926986 0.926938 0.9269 0.926874 0.926859 0.926859 0.926927 0.927072 0.926997 0.92697 0.92691 0.926858 0.926813 0.926788 0.92678 0.926769 0.926737 0.926668 0.926595 0.926515 0.926459 0.926426 0.926434 0.92671 0.927431 0.92724 0.926976 0.926593 0.926151 0.925878 0.925805 0.926026 0.927764 0.927242 0.926604 0.925399 0.924475 0.923752 0.925254 0.923804 0.928442 0.898154 0.902243 0.854375 0.831698 0.757994 0.71161 0.596374 0.497759 0.367555 0.247989 0.145254 0.0730456 0.0318565 0.0126047 0.00474251 0.00174635 0.000637672 0.000232085 8.43488e-05 3.06287e-05 1.11126e-05 4.02788e-06 1.45815e-06 5.27065e-07 1.9016e-07 6.84547e-08 2.45779e-08 8.79765e-09 3.13797e-09 1.11503e-09 3.94647e-10 1.38982e-10 4.87074e-11 1.71571e-11 6.10323e-12 1.881e-12 6.26822e-13 1.30734e-13 0
				</DataArray>
				<DataArray Name="VitesseY" type="Float32" format="ascii">