<?xml version="1.0"?>
<VTKFile type="PolyData">
	<PolyData>
		<Piece NumberOfPoints="1206" NumberOfPolys="1000">
			<Points>
				<DataArray type="Float32" NumberOfComponents="3" format="ascii">
 0 0 0 0.005 0 0 0.01 0 0 0.015 0 0 0.02 0 0 0.025 0 0 0.03 0 0 0.035 0 0 0.04 0 0 0.045 0 0 0.05 0 0 0.055 0 0 0.06 0 0 0.065 0 0 0.07 0 0 0.075 0 0 0.08 0 0 0.085 0 0 0.09 0 0 0.095 0 0 0.1 0 0 0.105 0 0 0.11 0 0 0.115 0 0 0.12 0 0 0.125 0 0 0.13 0 0 0.135 0 0 0.14 0 0 0.145 0 0 0.15 0 0 0.155 0 0 0.16 0 0 0.165 0 0 0.17 0 0 0.175 0 0 0.18 0 0 0.185 0 0 0.19 0 0 0.195 0 0 0.2 0 0 0.205 0 0 0.21 0 0 0.215 0 0 0.22 0 0 0.225 0 0 0.23 0 0 0.235 0 0 0.24 0 0 0.245 0 0 0.25 0 0 0.255 0 0 0.26 0 0 0.265 0 0 0.27 0 0 0.275 0 0 0.28 0 0 0.285 0 0 0.29 0 0 0.295 0 0 0.3 0 0 0.305 0 0 0.31 0 0 0.315 0 0 0.32 0 0 0.325 0 0 0.33 0 0 0.335 0 0 0.34 0 0 0.345 0 0 0.35 0 0 0.355 0 0 0.36 0 0 0.365 0 0 0.37 0 0 0.375 0 0 0.38 0 0 0.385 0 0 0.39 0 0 0.395 0 0 0.4 0 0 0.405 0 0 0.41 0 0 0.415 0 0 0.42 0 0 0.425 0 0 0.43 0 0 0.435002 0 0 0.44001 0 0 0.445046 0 0 0.450167 0 0 0.455485 0 0 0.461146 0 0 0.467311 0 0 0.474153 0 0 0.481887 0 0 0.490809 0 0 0.501294 0 0 0.513468 0 0 0.525917 0 0 0.537931 0 0 0.540575 0 0 0.543144 0 0 0.545665 0 0 0.548155 0 0 0.550624 0 0 0.553078 0 0 0.555519 0 0 0.557951 0 0 0.560404 0 0 0.562914 0 0 0.56548 0 0 0.568192 0 0 0.571071 0 0 0.574227 0 0 0.5777 0 0 0.58155 0 0 0.585776 0 0 0.59033 0 0 0.595119 0 0 0.600037 0 0 0.605011 0 0 0.610003 0 0 0.615001 0 0 0.62 0 0 0.625 0 0 0.63 0 0 0.635 0 0 0.64 0 0 0.645 0 0 0.65 0 0 0.655 0 0 0.66 0 0 0.665 0 0 0.67 0 0 0.675 0 0 0.68 0 0 0.685 0 0 0.69 0 0 0.695 0 0 0.7 0 0 0.705 0 0 0.71 0 0 0.715 0 0 0.72 0 0 0.725 0 0 0.73 0 0 0.735 0 0 0.74 0 0 0.745 0 0 0.75 0 0 0.755 0 0 0.76 0 0 0.765 0 0 0.77 0 0 0.775 0 0 0.78 0 0 0.785 0 0 0.79 0 0 0.795 0 0 0.8 0 0 0.805 0 0 0.81 0 0 0.815 0 0 0.82 0 0 0.825 0 0 0.83 0 0 0.835 0 0 0.84 0 0 0.845 0 0 0.85 0 0 0.855 0 0 0.86 0 0 0.865 0 0 0.87 0 0 0.875 0 0 0.88 0 0 0.885 0 0 0.89 0 0 0.895 0 0 0.9 0 0 0.905 0 0 0.91 0 0 0.915 0 0 0.92 0 0 0.925 0 0 0.93 0 0 0.935 0 0 0.94 0 0 0.945 0 0 0.95 0 0 0.955 0 0 0.96 0 0 0.965 0 0 0.97 0 0 0.975 0 0 0.98 0 0 0.985 0 0 0.99 0 0 0.995 0 0 1 0 0 0 0.02 0 0.005 0.02 0 0.01 0.02 0 0.015 0.02 0 0.02 0.02 0 0.025 0.02 0 0.03 0.02 0 0.035 0.02 0 0.04 0.02 0 0.045 0.02 0 0.05 0.02 0 0.055 0.02 0 0.06 0.02 0 0.065 0.02 0 0.07 0.02 0 0.075 0.02 0 0.08 0.02 0 0.085 0.02 0 0.09 0.02 0 0.095 0.02 0 0.1 0.02 0 0.105 0.02 0 0.11 0.02 0 0.115 0.02 0 0.12 0.02 0 0.125 0.02 0 0.13 0.02 0 0.135 0.02 0 0.14 0.02 0 0.145 0.02 0 0.15 0.02 0 0.155 0.02 0 0.16 0.02 0 0.165 0.02 0 0.17 0.02 0 0.175 0.02 0 0.18 0.02 0 0.185 0.02 0 0.19 0.02 0 0.195 0.02 0 0.2 0.02 0 0.205 0.02 0 0.21 0.02 0 0.215 0.02 0 0.22 0.02 0 0.225 0.02 0 0.23 0.02 0 0.235 0.02 0 0.24 0.02 0 0.245 0.02 0 0.25 0.02 0 0.255 0.02 0 0.26 0.02 0 0.265 0.02 0 0.27 0.02 0 0.275 0.02 0 0.28 0.02 0 0.285 0.02 0 0.29 0.02 0 0.295 0.02 0 0.3 0.02 0 0.305 0.02 0 0.31 0.02 0 0.315 0.02 0 0.32 0.02 0 0.325 0.02 0 0.33 0.02 0 0.335 0.02 0 0.34 0.02 0 0.345 0.02 0 0.35 0.02 0 0.355 0.02 0 0.36 0.02 0 0.365 0.02 0 0.37 0.02 0 0.375 0.02 0 0.38 0.02 0 0.385 0.02 0 0.39 0.02 0 0.395 0.02 0 0.4 0.02 0 0.405 0.02 0 0.41 0.02 0 0.415 0.02 0 0.42 0.02 0 0.425 0.02 0 0.43 0.02 0 0.435002 0.02 0 0.44001 0.02 0 0.445046 0.02 0 0.450167 0.02 0 0.455485 0.02 0 0.461146 0.02 0 0.467311 0.02 0 0.474153 0.02 0 0.481887 0.02 0 0.490809 0.02 0 0.501294 0.02 0 0.513468 0.02 0 0.525917 0.02 0 0.537931 0.02 0 0.540575 0.02 0 0.543144 0.02 0 0.545665 0.02 0 0.548155 0.02 0 0.550624 0.02 0 0.553078 0.02 0 0.555519 0.02 0 0.557951 0.02 0 0.560404 0.02 0 0.562914 0.02 0 0.56548 0.02 0 0.568192 0.02 0 0.571071 0.02 0 0.574227 0.02 0 0.5777 0.02 0 0.58155 0.02 0 0.585776 0.02 0 0.59033 0.02 0 0.595119 0.02 0 0.600037 0.02 0 0.605011 0.02 0 0.610003 0.02 0 0.615001 0.02 0 0.62 0.02 0 0.625 0.02 0 0.63 0.02 0 0.635 0.02 0 0.64 0.02 0 0.645 0.02 0 0.65 0.02 0 0.655 0.02 0 0.66 0.02 0 0.665 0.02 0 0.67 0.02 0 0.675 0.02 0 0.68 0.02 0 0.685 0.02 0 0.69 0.02 0 0.695 0.02 0 0.7 0.02 0 0.705 0.02 0 0.71 0.02 0 0.715 0.02 0 0.72 0.02 0 0.725 0.02 0 0.73 0.02 0 0.735 0.02 0 0.74 0.02 0 0.745 0.02 0 0.75 0.02 0 0.755 0.02 0 0.76 0.02 0 0.765 0.02 0 0.77 0.02 0 0.775 0.02 0 0.78 0.02 0 0.785 0.02 0 0.79 0.02 0 0.795 0.02 0 0.8 0.02 0 0.805 0.02 0 0.81 0.02 0 0.815 0.02 0 0.82 0.02 0 0.825 0.02 0 0.83 0.02 0 0.835 0.02 0 0.84 0.02 0 0.845 0.02 0 0.85 0.02 0 0.855 0.02 0 0.86 0.02 0 0.865 0.02 0 0.87 0.02 0 0.875 0.02 0 0.88 0.02 0 0.885 0.02 0 0.89 0.02 0 0.895 0.02 0 0.9 0.02 0 0.905 0.02 0 0.91 0.02 0 0.915 0.02 0 0.92 0.02 0 0.925 0.02 0 0.93 0.02 0 0.935 0.02 0 0.94 0.02 0 0.945 0.02 0 0.95 0.02 0 0.955 0.02 0 0.96 0.02 0 0.965 0.02 0 0.97 0.02 0 0.975 0.02 0 0.98 0.02 0 0.985 0.02 0 0.99 0.02 0 0.995 0.02 0 1 0.02 0 0 0.04 0 0.005 0.04 0 0.01 0.04 0 0.015 0.04 0 0.02 0.04 0 0.025 0.04 0 0.03 0.04 0 0.035 0.04 0 0.04 0.04 0 0.045 0.04 0 0.05 0.04 0 0.055 0.04 0 0.06 0.04 0 0.065 0.04 0 0.07 0.04 0 0.075 0.04 0 0.08 0.04 0 0.085 0.04 0 0.09 0.04 0 0.095 0.04 0 0.1 0.04 0 0.105 0.04 0 0.11 0.04 0 0.115 0.04 0 0.12 0.04 0 0.125 0.04 0 0.13 0.04 0 0.135 0.04 0 0.14 0.04 0 0.145 0.04 0 0.15 0.04 0 0.155 0.04 0 0.16 0.04 0 0.165 0.04 0 0.17 0.04 0 0.175 0.04 0 0.18 0.04 0 0.185 0.04 0 0.19 0.04 0 0.195 0.04 0 0.2 0.04 0 0.205 0.04 0 0.21 0.04 0 0.215 0.04 0 0.22 0.04 0 0.225 0.04 0 0.23 0.04 0 0.235 0.04 0 0.24 0.04 0 0.245 0.04 0 0.25 0.04 0 0.255 0.04 0 0.26 0.04 0 0.265 0.04 0 0.27 0.04 0 0.275 0.04 0 0.28 0.04 0 0.285 0.04 0 0.29 0.04 0 0.295 0.04 0 0.3 0.04 0 0.305 0.04 0 0.31 0.04 0 0.315 0.04 0 0.32 0.04 0 0.325 0.04 0 0.33 0.04 0 0.335 0.04 0 0.34 0.04 0 0.345 0.04 0 0.35 0.04 0 0.355 0.04 0 0.36 0.04 0 0.365 0.04 0 0.37 0.04 0 0.375 0.04 0 0.38 0.04 0 0.385 0.04 0 0.39 0.04 0 0.395 0.04 0 0.4 0.04 0 0.405 0.04 0 0.41 0.04 0 0.415 0.04 0 0.42 0.04 0 0.425 0.04 0 0.43 0.04 0 0.435002 0.04 0 0.44001 0.04 0 0.445046 0.04 0 0.450167 0.04 0 0.455485 0.04 0 0.461146 0.04 0 0.467311 0.04 0 0.474153 0.04 0 0.481887 0.04 0 0.490809 0.04 0 0.501294 0.04 0 0.513468 0.04 0 0.525917 0.04 0 0.537931 0.04 0 0.540575 0.04 0 0.543144 0.04 0 0.545665 0.04 0 0.548155 0.04 0 0.550624 0.04 0 0.553078 0.04 0 0.555519 0.04 0 0.557951 0.04 0 0.560404 0.04 0 0.562914 0.04 0 0.56548 0.04 0 0.568192 0.04 0 0.571071 0.04 0 0.574227 0.04 0 0.5777 0.04 0 0.58155 0.04 0 0.585776 0.04 0 0.59033 0.04 0 0.595119 0.04 0 0.600037 0.04 0 0.605011 0.04 0 0.610003 0.04 0 0.615001 0.04 0 0.62 0.04 0 0.625 0.04 0 0.63 0.04 0 0.635 0.04 0 0.64 0.04 0 0.645 0.04 0 0.65 0.04 0 0.655 0.04 0 0.66 0.04 0 0.665 0.04 0 0.67 0.04 0 0.675 0.04 0 0.68 0.04 0 0.685 0.04 0 0.69 0.04 0 0.695 0.04 0 0.7 0.04 0 0.705 0.04 0 0.71 0.04 0 0.715 0.04 0 0.72 0.04 0 0.725 0.04 0 0.73 0.04 0 0.735 0.04 0 0.74 0.04 0 0.745 0.04 0 0.75 0.04 0 0.755 0.04 0 0.76 0.04 0 0.765 0.04 0 0.77 0.04 0 0.775 0.04 0 0.78 0.04 0 0.785 0.04 0 0.79 0.04 0 0.795 0.04 0 0.8 0.04 0 0.805 0.04 0 0.81 0.04 0 0.815 0.04 0 0.82 0.04 0 0.825 0.04 0 0.83 0.04 0 0.835 0.04 0 0.84 0.04 0 0.845 0.04 0 0.85 0.04 0 0.855 0.04 0 0.86 0.04 0 0.865 0.04 0 0.87 0.04 0 0.875 0.04 0 0.88 0.04 0 0.885 0.04 0 0.89 0.04 0 0.895 0.04 0 0.9 0.04 0 0.905 0.04 0 0.91 0.04 0 0.915 0.04 0 0.92 0.04 0 0.925 0.04 0 0.93 0.04 0 0.935 0.04 0 0.94 0.04 0 0.945 0.04 0 0.95 0.04 0 0.955 0.04 0 0.96 0.04 0 0.965 0.04 0 0.97 0.04 0 0.975 0.04 0 0.98 0.04 0 0.985 0.04 0 0.99 0.04 0 0.995 0.04 0 1 0.04 0 0 0.06 0 0.005 0.06 0 0.01 0.06 0 0.015 0.06 0 0.02 0.06 0 0.025 0.06 0 0.03 0.06 0 0.035 0.06 0 0.04 0.06 0 0.045 0.06 0 0.05 0.06 0 0.055 0.06 0 0.06 0.06 0 0.065 0.06 0 0.07 0.06 0 0.075 0.06 0 0.08 0.06 0 0.085 0.06 0 0.09 0.06 0 0.095 0.06 0 0.1 0.06 0 0.105 0.06 0 0.11 0.06 0 0.115 0.06 0 0.12 0.06 0 0.125 0.06 0 0.13 0.06 0 0.135 0.06 0 0.14 0.06 0 0.145 0.06 0 0.15 0.06 0 0.155 0.06 0 0.16 0.06 0 0.165 0.06 0 0.17 0.06 0 0.175 0.06 0 0.18 0.06 0 0.185 0.06 0 0.19 0.06 0 0.195 0.06 0 0.2 0.06 0 0.205 0.06 0 0.21 0.06 0 0.215 0.06 0 0.22 0.06 0 0.225 0.06 0 0.23 0.06 0 0.235 0.06 0 0.24 0.06 0 0.245 0.06 0 0.25 0.06 0 0.255 0.06 0 0.26 0.06 0 0.265 0.06 0 0.27 0.06 0 0.275 0.06 0 0.28 0.06 0 0.285 0.06 0 0.29 0.06 0 0.295 0.06 0 0.3 0.06 0 0.305 0.06 0 0.31 0.06 0 0.315 0.06 0 0.32 0.06 0 0.325 0.06 0 0.33 0.06 0 0.335 0.06 0 0.34 0.06 0 0.345 0.06 0 0.35 0.06 0 0.355 0.06 0 0.36 0.06 0 0.365 0.06 0 0.37 0.06 0 0.375 0.06 0 0.38 0.06 0 0.385 0.06 0 0.39 0.06 0 0.395 0.06 0 0.4 0.06 0 0.405 0.06 0 0.41 0.06 0 0.415 0.06 0 0.42 0.06 0 0.425 0.06 0 0.43 0.06 0 0.435002 0.06 0 0.44001 0.06 0 0.445046 0.06 0 0.450167 0.06 0 0.455485 0.06 0 0.461146 0.06 0 0.467311 0.06 0 0.474153 0.06 0 0.481887 0.06 0 0.490809 0.06 0 0.501294 0.06 0 0.513468 0.06 0 0.525917 0.06 0 0.537931 0.06 0 0.540575 0.06 0 0.543144 0.06 0 0.545665 0.06 0 0.548155 0.06 0 0.550624 0.06 0 0.553078 0.06 0 0.555519 0.06 0 0.557951 0.06 0 0.560404 0.06 0 0.562914 0.06 0 0.56548 0.06 0 0.568192 0.06 0 0.571071 0.06 0 0.574227 0.06 0 0.5777 0.06 0 0.58155 0.06 0 0.585776 0.06 0 0.59033 0.06 0 0.595119 0.06 0 0.600037 0.06 0 0.605011 0.06 0 0.610003 0.06 0 0.615001 0.06 0 0.62 0.06 0 0.625 0.06 0 0.63 0.06 0 0.635 0.06 0 0.64 0.06 0 0.645 0.06 0 0.65 0.06 0 0.655 0.06 0 0.66 0.06 0 0.665 0.06 0 0.67 0.06 0 0.675 0.06 0 0.68 0.06 0 0.685 0.06 0 0.69 0.06 0 0.695 0.06 0 0.7 0.06 0 0.705 0.06 0 0.71 0.06 0 0.715 0.06 0 0.72 0.06 0 0.725 0.06 0 0.73 0.06 0 0.735 0.06 0 0.74 0.06 0 0.745 0.06 0 0.75 0.06 0 0.755 0.06 0 0.76 0.06 0 0.765 0.06 0 0.77 0.06 0 0.775 0.06 0 0.78 0.06 0 0.785 0.06 0 0.79 0.06 0 0.795 0.06 0 0.8 0.06 0 0.805 0.06 0 0.81 0.06 0 0.815 0.06 0 0.82 0.06 0 0.825 0.06 0 0.83 0.06 0 0.835 0.06 0 0.84 0.06 0 0.845 0.06 0 0.85 0.06 0 0.855 0.06 0 0.86 0.06 0 0.865 0.06 0 0.87 0.06 0 0.875 0.06 0 0.88 0.06 0 0.885 0.06 0 0.89 0.06 0 0.895 0.06 0 0.9 0.06 0 0.905 0.06 0 0.91 0.06 0 0.915 0.06 0 0.92 0.06 0 0.925 0.06 0 0.93 0.06 0 0.935 0.06 0 0.94 0.06 0 0.945 0.06 0 0.95 0.06 0 0.955 0.06 0 0.96 0.06 0 0.965 0.06 0 0.97
[...]
			<PointData Scalars="VitesseX">
				<DataArray Name="VitesseX" type="Float32" format="ascii">
 0 -2.04933e-16 -1.21193e-15 1.97504e-15 -7.63118e-16 2.9431e-16 -1.38134e-15 -2.00324e-15 2.83374e-15 1.43425e-15 -2.23017e-15 -1.33534e-15 6.04851e-15 -3.83451e-16 -4.27084e-15 4.85026e-15 -2.27564e-15 3.35127e-15 -3.74521e-15 3.35148e-16 -7.50698e-15 1.53534e-14 -1.23305e-14 2.09139e-15 2.6564e-16 -9.72006e-15 1.91287e-14 -8.54676e-15 8.97616e-15 -1.06996e-14 -1.38764e-15 6.47366e-15 -8.69796e-15 2.09321e-14 -5.90823e-15 -1.26676e-14 1.5796e-14 -2.17632e-14 1.47845e-14 -9.41039e-15 2.22944e-15 -1.02043e-15 1.18996e-15 5.95184e-17 8.68368e-16 -1.27761e-14 2.2175e-14 -7.43766e-15 -5.34784e-15 -3.18876e-15 5.75488e-15 2.57793e-14 -3.26981e-14 3.48208e-14 -2.83549e-14 1.60454e-14 2.81788e-15 -1.56524e-14 4.96087e-14 -2.45847e-14 -1.08771e-15 3.27338e-14 -4.8291e-14 4.05254e-14 -2.43228e-14 1.7233e-14 1.97902e-14 -2.72853e-14 6.05628e-14 -3.46652e-14 -1.90852e-14 3.44136e-14 1.34962e-14 -3.60008e-14 3.09682e-14 -2.92233e-14 2.44739e-14 -5.87429e-15 1.87735e-13 3.35098e-12 6.01993e-11 9.56348e-10 1.33992e-08 1.64206e-07 1.74169e-06 1.57832e-05 0.000120218 0.000753619 0.00378586 0.0147964 0.0440763 0.100906 0.185736 0.292937 0.418545 0.562072 0.723406 0.891838 0.991775 0.947205 0.932606 0.930949 0.9286 0.925443 0.921795 0.917225 0.915384 0.913741 0.913741 0.893172 0.897857 0.827267 0.812075 0.696835 0.612558 0.473557 0.339653 0.20939 0.107861 0.0449421 0.0155532 0.00476355 0.00135609 0.000366742 9.48873e-05 2.3526e-05 5.59021e-06 1.27289e-06 2.77731e-07 5.80736e-08 1.164e-08 2.23716e-09 4.12444e-10 7.29486e-11 1.23898e-11 2.05879e-12 3.14431e-13 -1.24629e-15 -3.13142e-14 8.67434e-14 -2.41226e-14 -2.98435e-14 6.23345e-14 -1.03549e-13 1.28588e-13 -3.20591e-14 -3.68944e-14 4.94185e-14 -5.91674e-14 2.52464e-14 4.61262e-14 -8.05314e-14 7.78912e-14 -5.84283e-14 5.89177e-14 -3.0355e-14 -4.52491e-15 2.89674e-14 1.34936e-14 4.52625e-14 -1.05619e-13 8.0996e-14 -2.90707e-14 -1.90102e-14 9.26975e-14 9.0791e-15 -7.29692e-14 1.25653e-14 -7.90935e-14 6.98133e-14 -2.90253e-14 -6.70872e-14 -5.72655e-15 -4.11085e-14 8.07976e-14 -1.27794e-13 4.62425e-14 1.27866e-14 -1.07284e-13 1.11314e-13 -5.33386e-14 -1.71722e-14 9.50027e-14 -5.7858e-14 4.68544e-14 -2.63302e-14 -2.66086e-14 1.81661e-14 -5.85343e-14 4.0038e-14 -5.47298e-15 -5.06062e-14 8.70188e-14 -7.52966e-14 2.55178e-14 -3.15102e-14 1.76896e-14 -2.15679e-15 -3.14968e-14 4.63457e-14 0 0 2.74281e-16 -4.75624e-16 -1.46308e-15 1.20045e-15 2.49792e-15 -3.49212e-15 6.02376e-16 -1.57148e-15 8.34366e-16 1.57446e-15 7.97734e-16 -1.26402e-15 1.86677e-17 5.328e-16 1.80261e-15 1.30284e-15 -5.63407e-15 4.5606e-15 -3.00408e-15 2.74655e-15 -6.50216e-15 8.52818e-15 2.15932e-16 -3.75562e-15 -3.84109e-15 4.42273e-15 1.09965e-15 6.43565e-15 -6.11762e-15 3.95739e-15 -1.75258e-14 1.59173e-14 1.5661e-14 -1.80528e-14 1.85511e-15 -4.8624e-15 9.75446e-15 -1.82235e-14 1.47283e-14 -3.52206e-15 -4.21446e-15 -1.54012e-15 1.52506e-15 2.91141e-16 -2.54786e-16 3.40081e-16 1.81001e-14 -1.68728e-14 -1.59284e-15 8.96904e-15 1.04999e-14 3.90997e-15 -1.47351e-14 1.64197e-14 4.51548e-15 -1.86483e-14 3.15705e-14 -5.39039e-16 2.23456e-15 -1.01618e-14 2.30721e-14 3.6596e-15 -2.00319e-14 1.26294e-14 1.54531e-14 -1.51249e-14 2.26066e-14 2.73527e-14 -3.46151e-15 -2.98846e-14 1.14812e-14 3.32305e-14 1.65879e-14 -3.21221e-14 -1.13026e-15 8.09999e-15 -2.69381e-14 1.97529e-13 3.38589e-12 6.01354e-11 9.56376e-10 1.33992e-08 1.64206e-07 1.74169e-06 1.57832e-05 0.000120218 0.000753619 0.00378586 0.0147964 0.0440763 0.100906 0.185736 0.292937 0.418545 0.562072 0.723406 0.891838 0.991775 0.947205 0.932606 0.930949 0.9286 0.925443 0.921795 0.917225 0.915384 0.913741 0.913741 0.893172 0.897857 0.827267 0.812075 0.696835 0.612558 0.473557 0.339653 0.20939 0.107861 0.0449421 0.0155532 0.00476355 0.00135609 0.000366742 9.48873e-05 2.3526e-05 5.59021e-06 1.27289e-06 2.77731e-07 5.80736e-08 1.16401e-08 2.23716e-09 4.1243e-10 7.297e-11 1.24116e-11 2.05349e-12 2.64191e-13 3.60971e-15 9.91029e-15 -4.31413e-14 9.42464e-14 -3.406e-14 4.97533e-14 -4.40788e-14 1.21634e-14 1.94547e-14 3.93101e-14 -7.32644e-14 6.15862e-16 8.25911e-14 -7.6534e-14 2.03352e-14 -3.91458e-14 2.92336e-14 7.09187e-14 -1.84742e-14 -4.70478e-14 2.19304e-14 1.93763e-14 7.32099e-14 -5.16651e-14 8.03084e-15 -3.98826e-14 -1.9694e-14 5.78137e-14 4.40072e-14 1.02578e-15 -9.34153e-14 5.88157e-14 -5.39075e-14 -4.28983e-15 -9.26539e-14 -1.77782e-14 -9.51687e-15 2.91356e-14 -4.1177e-14 2.77216e-14 -6.07626e-14 -2.02933e-14 -1.21708e-14 2.47462e-14 1.43843e-15 2.45631e-14 4.60032e-14 1.73877e-14 -7.2406e-14 2.3253e-14 -4.51783e-14 9.07222e-15 -1.27385e-14 2.06204e-14 -2.68292e-14 -1.85474e-14 6.06463e-14 -6.05303e-14 -6.76596e-15 1.5413e-14 -2.72523e-14 3.26977e-14 -3.26809e-14 0 0 5.0878e-16 7.10807e-16 -2.32466e-17 -1.35608e-15 5.04018e-16 2.14582e-15 -1.27404e-16 -4.21713e-15 -1.60115e-15 2.10002e-15 5.52239e-15 -5.71062e-15 3.65004e-16 2.30956e-15 -6.45088e-17 3.92365e-15 -5.68764e-15 1.08568e-15 -3.27584e-15 1.56236e-14 -1.69911e-14 5.32611e-15 4.57667e-15 -1.74716e-15 1.17006e-14 -1.93563e-14 2.56264e-15 4.70999e-15 7.51218e-15 1.08603e-15 -5.74884e-15 1.22964e-14 -9.18529e-15 3.58226e-15 2.11909e-16 -1.09747e-14 7.28868e-15 -1.68816e-14 1.1957e-14 2.60257e-15 -9.63571e-15 -5.31288e-15 5.25225e-15 1.29464e-15 -2.68688e-15 9.13171e-15 4.64367e-15 -3.1092e-16 5.1474e-15 -1.95871e-16 1.01293e-14 -7.75604e-16 -2.06769e-14 1.45947e-14 3.07509e-14 -3.00076e-14 8.05081e-15 1.92588e-14 2.11081e-14 -1.13971e-14 2.85602e-14 3.30039e-14 -1.76066e-14 -3.94936e-14 8.72513e-15 -6.20125e-15 5.72586e-14 5.03887e-15 5.84355e-14 -5.16948e-14 -2.5275e-14 3.21878e-14 1.48814e-14 2.67563e-14 -3.33196e-14 -3.00375e-14 4.1951e-14 2.64249e-13 3.27664e-12 6.01602e-11 9.56307e-10 1.33992e-08 1.64206e-07 1.74169e-06 1.57832e-05 0.000120218 0.000753619 0.00378586 0.0147964 0.0440763 0.100906 0.185736 0.292937 0.418545 0.562072 0.723406 0.891838 0.991775 0.947205 0.932606 0.930949 0.9286 0.925443 0.921795 0.917225 0.915384 0.913741 0.913741 0.893172 0.897857 0.827267 0.812075 0.696835 0.612558 0.473557 0.339653 0.20939 0.107861 0.0449421 0.0155532 0.00476355 0.00135609 0.000366742 9.48873e-05 2.3526e-05 5.59021e-06 1.27289e-06 2.77731e-07 5.80736e-08 1.16402e-08 2.23712e-09 4.12458e-10 7.293e-11 1.24543e-11 2.08218e-12 2.12327e-13 -5.96958e-15 8.69776e-15 -5.93952e-14 8.01647e-14 -1.33072e-14 4.01756e-14 3.45641e-14 -1.04238e-13 4.05045e-14 7.35159e-14 -8.52675e-14 6.36329e-14 1.04288e-13 -1.24079e-13 9.18793e-15 1.4797e-14 6.18462e-14 2.63138e-14 -4.08123e-14 -2.67462e-14 -2.32449e-14 3.73781e-14 8.33369e-14 -2.53158e-14 3.24629e-14 -2.84557e-14 -9.99658e-14 6.16028e-14 -1.19266e-14 4.5494e-15 -2.37116e-14 9.30301e-14 -7.50569e-14 -7.22432e-14 -4.19113e-14 -5.86282e-14 1.27748e-14 4.90696e-15 -3.16182e-14 5.72023e-14 -1.39369e-13 1.12832e-13 -8.85927e-14 -4.15578e-14 8.87744e-14 -3.73478e-14 7.45817e-14 1.22302e-14 1.24327e-14 -1.88503e-14 -6.30427e-14 -3.39478e-14 4.48235e-15 4.08619e-14 -5.8111e-14 -5.13284e-16 6.51784e-14 -3.87971e-14 -5.74928e-14 5.09003e-14 -3.93401e-14 9.82011e-15 -7.01712e-14 0 0 4.51683e-16 -2.98103e-16 1.20609e-15 -2.3249e-15 -6.1212e-16 3.12367e-15 -2.99109e-15 1.88783e-15 -7.35776e-16 -3.06547e-15 6.41296e-15 1.95963e-15 -8.82618e-15 -2.29599e-15 1.2044e-14 -1.36541e-15 -3.56545e-16 -8.59688e-16 -1.4862e-15 -3.19488e-15 4.6861e-15 -2.4639e-15 2.77149e-15 -1.06114e-14 1.17473e-14 -1.04118e-15 -3.78594e-15 -9.43607e-16 1.46511e-14 -1.6942e-15 1.3235e-14 -6.95587e-15 -3.52147e-15 1.34724e-14 -1.32858e-14 3.61846e-15 -1.51347e-14 -2.72717e-16 -7.73486e-15 9.53095e-15 -6.33394e-15 -1.5278e-15 -5.51672e-15 1.42518e-14 -9.68323e-15 2.34298e-14 -2.27131e-14 1.17088e-14 2.04895e-14 -2.36862e-14 9.16316e-15 -8.31207e-15 1.15753e-14 -7.03872e-15 2.74898e-14 2.79287e-14 -2.97098e-14 -1.04514e-14 4.93811e-14 2.18492e-15 8.7986e-15 3.88853e-14 1.23441e-14 -6.88498e-14 3.57425e-14 2.38899e-14 -7.73738e-15 3.5402e-14 3.89069e-14 -1.14261e-14 -3.11726e-14 6.34812e-14 -6.06573e-16 -2.77844e-14 -4.2553e-14 -1.09614e-14 8.76209e-14 2.61327e-13 3.24546e-12 6.02293e-11 9.56256e-10 1.33992e-08 1.64206e-07 1.74169e-06 1.57832e-05 0.000120218 0.000753619 0.00378586 0.0147964 0.0440763 0.100906 0.185736 0.292937 0.418545 0.562072 0.723406 0.891838 0.991775 0.947205 0.932606 0.930949 0.9286 0.925443 0.921795 0.917225 0.915384 0.913741 0.913741 0.893172 0.897857 0.827267 0.812075 0.696835 0.612558 0.473557 0.339653 0.20939 0.107861 0.0449421 0.0155532 0.00476355 0.00135609 0.000366742 9.48873e-05 2.3526e-05 5.59021e-06 1.27289e-06 2.77731e-07 5.80735e-08 1.16402e-08 2.23715e-09 4.12513e-10 7.29104e-11 1.24322e-11 2.07127e-12 2.94756e-13 -2.6172e-14 -4.21599e-14 -2.35742e-14 2.00274e-14 -8.90087e-14 8.4259e-14 7.28235e-14 -1.16919e-13 7.73212e-14 2.65167e-14 -9.10433e-14 1.0448e-13 6.12236e-14 -3.38252e-14 -7.00953e-14 1.16006e-13 6.57388e-14 -3.70346e-14 -2.66944e-14 -3.58789e-14 4.16437e-14 5.6201e-15 2.67585e-14 2.99714e-14 1.20845e-13 -3.24604e-14 -1.30808e-13 7.93942e-14 -9.87178e-14 9.3815e-15 -7.94188e-15 3.06454e-14 -6.06535e-14 -9.67655e-14 7.92525e-15 -1.07577e-13 2.16178e-14 -6.51202e-14 4.58128e-14 5.43701e-14 -8.51052e-14 5.52265e-14 1.33586e-14 -9.32865e-14 -2.91896e-14 3.86599e-14 8.68644e-17 7.38899e-14 -1.98283e-14 -4.37575e-14 2.88068e-15 -2.83918e-14 -1.75836e-14 -2.87811e-14 1.41915e-14 2.09342e-14 3.35034e-15 -1.71197e-14 -3.26804e-14 6.70758e-14 -3.0037e-14 -4.25924e-14 1.90336e-14 0 0 -1.36305e-17 5.10465e-16 -1.53582e-16 1.28038e-15 2.866e-15 -8.4948e-16 -6.34507e-16 1.356e-15 6.03724e-16 -3.66524e-15 3.72924e-15 3.66071e-16 -3.40888e-15 -5.12165e-15 1.33309e-14 -2.62931e-16 -4.18099e-15 5.94697e-15 4.7881e-17 2.81567e-16 -4.54474e-15 5.52571e-15 -5.15765e-15 -1.19903e-14 9.14774e-15 -2.53415e-15 -3.54863e-15 -3.78299e-15 1.42362e-14 7.28593e-15 1.11178e-14 -8.92016e-15 1.19063e-14 3.76353e-15 -3.33738e-15 -6.72531e-15 -4.4649e-15 -1.25059e-14 -3.85179e-15 -7.02874e-17 1.03418e-15 7.15116e-15 -5.02333e-15 -2.10403e-15 -1.21906e-14 1.39445e-14 -6.73964e-15 -8.67283e-15 1.64382e-14 -1.73665e-14 1.53184e-14 8.13165e-16 2.87736e-15 1.149e-14 1.32412e-14 4.59899e-14 -1.46817e-14 -3.7421e-14 2.70311e-14 -1.11854e-14 -7.06427e-15 3.91058e-14 9.29016e-15 -1.44422e-15 8.1747e-14 3.61924e-14 -3.83256e-14 9.95424e-16 2.78622e-14 4.62613e-15 -5.78681e-15 8.2181e-14 -5.42278e-14 -6.70783e-14 4.1107e-14 4.44251e-15 2.53249e-15 2.07954e-13 3.3397e-12 6.02197e-11 9.56348e-10 1.33991e-08 1.64207e-07 1.74169e-06 1.57832e-05 0.000120218 0.000753619 0.00378586 0.0147964 0.0440763 0.100906 0.185736 0.292937 0.418545 0.562072 0.723406 0.891838 0.991775 0.947205 0.932606 0.930949 0.9286 0.925443 0.921795 0.917225 0.915384 0.913741 0.913741 0.893172 0.897857 0.827267 0.812075 0.696835 0.612558 0.473557 0.339653 0.20939 0.107861 0.0449421 0.0155532 0.00476355 0.00135609 0.000366742 9.48873e-05 2.3526e-05 5.59021e-06 1.27289e-06 2.77731e-07 5.80736e-08 1.16401e-08 2.23718e-09 4.12403e-10 7.3055e-11 1.23945e-11 2.04588e-12 2.532e-13 1.75547e-14 6.16214e-14 -1.85589e-13 1.01533e-13 -2.81286e-14 4.15689e-14 6.56122e-14 1.31936e-14 -6.23309e-14 -3.14914e-14 -6.15572e-14 8.23174e-14 7.66288e-14 5.99845e-14 -8.54116e-14 -7.27559e-14 7.03513e-14 -5.78422e-14 2.53262e-14 1.82951e-14 1.23442e-13 -2.7076e-14 -3.122e-14 5.84553e-14 1.83219e-13 -1.32813e-13 1.87373e-14 9.09494e-15 1.16133e-14 -7.63455e-14 -6.41382e-14 1.03457e-13 -1.76419e-13 6.67971e-14 -2.04107e-13 -9.32301e-14 9.63127e-15 -8.70447e-14 1.79079e-13 3.41637e-14 -4.95144e-14 -2.09911e-14 3.35732e-14 -1.63773e-14 -1.08952e-13 7.30048e-15 2.83414e-14 1.68654e-13 -6.839e-14 -7.23174e-14 -6.99681e-14 8.09059e-14 -7.3415e-14 -2.16183e-14 5.47013e-14 -6.70808e-14 6.62497e-15 -3.74877e-14 1.87398e-14 -1.44577e-14 2.91886e-14 1.11059e-14 7.62391e-14 0 0 -6.66563e-16 2.77807e-15 2.13537e-15 1.33439e-15 3.26275e-15 1.94825e-15 1.25036e-15 -3.52123e-15 -7.57772e-16 -2.37859e-15 2.74653e-15 -6.0318e-15 1.11438e-14 -6.36864e-15 3.68988e-15 5.17092e-15 -4.40477e-15 2.91825e-15 2.85979e-15 2.52e-14 -2.40861e-14 -2.75539e-15 -5.04541e-15 1.52489e-15 1.61643e-14 -3.14152e-14 -5.14618e-15 -1.53927e-16 1.57301e-14 1.08299e-14 2.57934e-14 -1.98683e-14 2.09518e-15 1.79442e-14 3.94284e-15 -1.71162e-14 -5.35511e-15 -6.99802e-15 -7.18681e-15 -4.72378e-15 2.87332e-15 1.10024e-14 8.50069e-15 -2.98363e-14 -2.2655e-14 2.07878e-14 -2.4036e-15 -1.29872e-14 2.18919e-15 6.44862e-17 3.73488e-14 -2.38188e-14 5.54145e-15 5.05239e-15 4.00189e-14 1.62217e-14 -3.26356e-14 3.52652e-14 -3.15379e-14 -3.0299e-14 1.19842e-14 1.08386e-14 3.92682e-14 6.24249e-15 9.57858e-14 6.22424e-14 -1.91578e-14 -5.2878e-14 6.70395e-14 -3.0601e-14 1.16727e-14 4.88102e-14 -1.46656e-13 7.0137e-14 7.37178e-14 -2.09932e-14 -3.8273e-14 2.1443e-13 3.32097e-12 6.02296e-11 9.56392e-10 1.3399e-08 1.64206e-07 1.74169e-06 1.57832e-05 0.000120218 0.000753619 0.00378586 0.0147964 0.0440763 0.100906 0.185736 0.292937 0.418545 0.562072 0.723406 0.891838 0.991775 0.947205 0.932606 0.930949 0.9286 0.925443 0.921795 0.917225 0.915384 0.913741 0.913741 0.893172 0.897857 0.827267 0.812075 0.696835 0.612558 0.473557 0.339653 0.20939 0.107861 0.0449421 0.0155532 0.00476355 0.00135609 0.000366742 9.48873e-05 2.3526e-05 5.59021e-06 1.27289e-06 2.77731e-07 5.80737e-08 1.16401e-08 2.23715e-09 4.1228e-10 7.31582e-11 1.23999e-11 2.06541e-12 1.27809e-13 6.68047e-14 1.73601e-13 -2.69592e-13 1.10793e-13 1.33128e-13 -4.24095e-14 3.94139e-14 1.55738e-13 -2.69732e-13 -8.4772e-14 8.4375e-14 2.27503e-14 9.96392e-14 1.38817e-13 -1.33221e-13 -1.91729e-13 1.57516e-14 -7.20547e-14 2.89346e-14 1.44466e-13 1.02348e-13 -1.58649e-14 -5.00989e-14 4.24676e-15 2.5452e-13 -2.07036e-13 1.1938e-13 -4.02765e-14 1.17991e-13 -2.37252e-13 3.9518e-14 1.34786e-13 -2.03987e-13 1.623e-13 -3.89926e-13 -5.90357e-14 -2.03692e-14 -1.1383e-14 1.57627e-13 6.46217e-14 -7.31716e-14 6.6232e-15 -9.9793e-16 -3.19066e-14 -1.80251e-15 -9.12421e-14 5.60206e-14 2.25944e-13 4.61911e-14 -1.67857e-13 -1.63428e-13 7.40999e-14 -3.69976e-14 4.91903e-14 -3.22337e-14 -5.29125e-14 -5.95955e-14 2.84217e-14 -2.9927e-14 -7.43259e-14 9.23251e-14 3.04689e-14 8.6025e-14 0
				</DataArray>
				<DataArray Name="VitesseY" type="Float32" format="ascii">