<?xml version="1.0"?>
<VTKFile type="PolyData">
	<PolyData>
		<Piece NumberOfPoints="1206" NumberOfPolys="1000">
			<Points>
				<DataArray type="Float32" NumberOfComponents="3" format="ascii">
 0 0 0 0.005 0 0 0.01 0 0 0.015 0 0 0.02 0 0 0.025 0 0 0.03 0 0 0.035 0 0 0.04 0 0 0.045 0 0 0.05 0 0 0.055 0 0 0.06 0 0 0.065 0 0 0.07 0 0 0.075 0 0 0.08 0 0 0.085 0 0 0.09 0 0 0.095 0 0 0.1 0 0 0.105 0 0 0.11 0 0 0.115 0 0 0.12 0 0 0.125 0 0 0.13 0 0 0.135 0 0 0.14 0 0 0.145 0 0 0.15 0 0 0.155 0 0 0.16 0 0 0.165 0 0 0.17 0 0 0.175 0 0 0.18 0 0 0.185 0 0 0.19 0 0 0.195 0 0 0.2 0 0 0.205 0 0 0.21 0 0 0.215 0 0 0.22 0 0 0.225 0 0 0.23 0 0 0.235 0 0 0.24 0 0 0.245 0 0 0.25 0 0 0.255 0 0 0.26 0 0 0.265 0 0 0.27 0 0 0.275 0 0 0.28 0 0 0.285 0 0 0.29 0 0 0.295 0 0 0.3 0 0 0.305 0 0 0.31 0 0 0.315 0 0 0.32 0 0 0.325 0 0 0.33 0 0 0.335 0 0 0.34 0 0 0.345 0 0 0.35 0 0 0.355 0 0 0.36 0 0 0.365 0 0 0.37 0 0 0.375 0 0 0.38 0 0 0.385 0 0 0.39 0 0 0.395 0 0 0.4 0 0 0.405 0 0 0.41 0 0 0.415 0 0 0.42 0 0 0.425 0 0 0.43 0 0 0.435 0 0 0.44 0 0 0.445 0 0 0.450003 0 0 0.455017 0 0 0.460086 0 0 0.465321 0 0 0.470925 0 0 0.477158 0 0 0.484331 0 0 0.492868 0 0 0.503364 0 0 0.515883 0 0 0.528216 0 0 0.530885 0 0 0.533486 0 0 0.536047 0 0 0.538583 0 0 0.541072 0 0 0.543548 0 0 0.546041 0 0 0.548687 0 0 0.551449 0 0 0.554524 0 0 0.557909 0 0 0.561653 0 0 0.565815 0 0 0.570334 0 0 0.575112 0 0 0.580032 0 0 0.585008 0 0 0.590002 0 0 0.595 0 0 0.6 0 0 0.605 0 0 0.61 0 0 0.615 0 0 0.62 0 0 0.625 0 0 0.63 0 0 0.635 0 0 0.64 0 0 0.645 0 0 0.65 0 0 0.655 0 0 0.66 0 0 0.665 0 0 0.67 0 0 0.675 0 0 0.68 0 0 0.685 0 0 0.69 0 0 0.695 0 0 0.7 0 0 0.705 0 0 0.71 0 0 0.715 0 0 0.72 0 0 0.725 0 0 0.73 0 0 0.735 0 0 0.74 0 0 0.745 0 0 0.75 0 0 0.755 0 0 0.76 0 0 0.765 0 0 0.77 0 0 0.775 0 0 0.78 0 0 0.785 0 0 0.79 0 0 0.795 0 0 0.8 0 0 0.805 0 0 0.81 0 0 0.815 0 0 0.82 0 0 0.825 0 0 0.83 0 0 0.835 0 0 0.84 0 0 0.845 0 0 0.85 0 0 0.855 0 0 0.86 0 0 0.865 0 0 0.87 0 0 0.875 0 0 0.88 0 0 0.885 0 0 0.89 0 0 0.895 0 0 0.9 0 0 0.905 0 0 0.91 0 0 0.915 0 0 0.92 0 0 0.925 0 0 0.93 0 0 0.935 0 0 0.94 0 0 0.945 0 0 0.95 0 0 0.955 0 0 0.96 0 0 0.965 0 0 0.97 0 0 0.975 0 0 0.98 0 0 0.985 0 0 0.99 0 0 0.995 0 0 1 0 0 0 0.02 0 0.005 0.02 0 0.01 0.02 0 0.015 0.02 0 0.02 0.02 0 0.025 0.02 0 0.03 0.02 0 0.035 0.02 0 0.04 0.02 0 0.045 0.02 0 0.05 0.02 0 0.055 0.02 0 0.06 0.02 0 0.065 0.02 0 0.07 0.02 0 0.075 0.02 0 0.08 0.02 0 0.085 0.02 0 0.09 0.02 0 0.095 0.02 0 0.1 0.02 0 0.105 0.02 0 0.11 0.02 0 0.115 0.02 0 0.12 0.02 0 0.125 0.02 0 0.13 0.02 0 0.135 0.02 0 0.14 0.02 0 0.145 0.02 0 0.15 0.02 0 0.155 0.02 0 0.16 0.02 0 0.165 0.02 0 0.17 0.02 0 0.175 0.02 0 0.18 0.02 0 0.185 0.02 0 0.19 0.02 0 0.195 0.02 0 0.2 0.02 0 0.205 0.02 0 0.21 0.02 0 0.215 0.02 0 0.22 0.02 0 0.225 0.02 0 0.23 0.02 0 0.235 0.02 0 0.24 0.02 0 0.245 0.02 0 0.25 0.02 0 0.255 0.02 0 0.26 0.02 0 0.265 0.02 0 0.27 0.02 0 0.275 0.02 0 0.28 0.02 0 0.285 0.02 0 0.29 0.02 0 0.295 0.02 0 0.3 0.02 0 0.305 0.02 0 0.31 0.02 0 0.315 0.02 0 0.32 0.02 0 0.325 0.02 0 0.33 0.02 0 0.335 0.02 0 0.34 0.02 0 0.345 0.02 0 0.35 0.02 0 0.355 0.02 0 0.36 0.02 0 0.365 0.02 0 0.37 0.02 0 0.375 0.02 0 0.38 0.02 0 0.385 0.02 0 0.39 0.02 0 0.395 0.02 0 0.4 0.02 0 0.405 0.02 0 0.41 0.02 0 0.415 0.02 0 0.42 0.02 0 0.425 0.02 0 0.43 0.02 0 0.435 0.02 0 0.44 0.02 0 0.445 0.02 0 0.450003 0.02 0 0.455017 0.02 0 0.460086 0.02 0 0.465321 0.02 0 0.470925 0.02 0 0.477158 0.02 0 0.484331 0.02 0 0.492868 0.02 0 0.503364 0.02 0 0.515883 0.02 0 0.528216 0.02 0 0.530885 0.02 0 0.533486 0.02 0 0.536047 0.02 0 0.538583 0.02 0 0.541072 0.02 0 0.543548 0.02 0 0.546041 0.02 0 0.548687 0.02 0 0.551449 0.02 0 0.554524 0.02 0 0.557909 0.02 0 0.561653 0.02 0 0.565815 0.02 0 0.570334 0.02 0 0.575112 0.02 0 0.580032 0.02 0 0.585008 0.02 0 0.590002 0.02 0 0.595 0.02 0 0.6 0.02 0 0.605 0.02 0 0.61 0.02 0 0.615 0.02 0 0.62 0.02 0 0.625 0.02 0 0.63 0.02 0 0.635 0.02 0 0.64 0.02 0 0.645 0.02 0 0.65 0.02 0 0.655 0.02 0 0.66 0.02 0 0.665 0.02 0 0.67 0.02 0 0.675 0.02 0 0.68 0.02 0 0.685 0.02 0 0.69 0.02 0 0.695 0.02 0 0.7 0.02 0 0.705 0.02 0 0.71 0.02 0 0.715 0.02 0 0.72 0.02 0 0.725 0.02 0 0.73 0.02 0 0.735 0.02 0 0.74 0.02 0 0.745 0.02 0 0.75 0.02 0 0.755 0.02 0 0.76 0.02 0 0.765 0.02 0 0.77 0.02 0 0.775 0.02 0 0.78 0.02 0 0.785 0.02 0 0.79 0.02 0 0.795 0.02 0 0.8 0.02 0 0.805 0.02 0 0.81 0.02 0 0.815 0.02 0 0.82 0.02 0 0.825 0.02 0 0.83 0.02 0 0.835 0.02 0 0.84 0.02 0 0.845 0.02 0 0.85 0.02 0 0.855 0.02 0 0.86 0.02 0 0.865 0.02 0 0.87 0.02 0 0.875 0.02 0 0.88 0.02 0 0.885 0.02 0 0.89 0.02 0 0.895 0.02 0 0.9 0.02 0 0.905 0.02 0 0.91 0.02 0 0.915 0.02 0 0.92 0.02 0 0.925 0.02 0 0.93 0.02 0 0.935 0.02 0 0.94 0.02 0 0.945 0.02 0 0.95 0.02 0 0.955 0.02 0 0.96 0.02 0 0.965 0.02 0 0.97 0.02 0 0.975 0.02 0 0.98 0.02 0 0.985 0.02 0 0.99 0.02 0 0.995 0.02 0 1 0.02 0 0 0.04 0 0.005 0.04 0 0.01 0.04 0 0.015 0.04 0 0.02 0.04 0 0.025 0.04 0 0.03 0.04 0 0.035 0.04 0 0.04 0.04 0 0.045 0.04 0 0.05 0.04 0 0.055 0.04 0 0.06 0.04 0 0.065 0.04 0 0.07 0.04 0 0.075 0.04 0 0.08 0.04 0 0.085 0.04 0 0.09 0.04 0 0.095 0.04 0 0.1 0.04 0 0.105 0.04 0 0.11 0.04 0 0.115 0.04 0 0.12 0.04 0 0.125 0.04 0 0.13 0.04 0 0.135 0.04 0 0.14 0.04 0 0.145 0.04 0 0.15 0.04 0 0.155 0.04 0 0.16 0.04 0 0.165 0.04 0 0.17 0.04 0 0.175 0.04 0 0.18 0.04 0 0.185 0.04 0 0.19 0.04 0 0.195 0.04 0 0.2 0.04 0 0.205 0.04 0 0.21 0.04 0 0.215 0.04 0 0.22 0.04 0 0.225 0.04 0 0.23 0.04 0 0.235 0.04 0 0.24 0.04 0 0.245 0.04 0 0.25 0.04 0 0.255 0.04 0 0.26 0.04 0 0.265 0.04 0 0.27 0.04 0 0.275 0.04 0 0.28 0.04 0 0.285 0.04 0 0.29 0.04 0 0.295 0.04 0 0.3 0.04 0 0.305 0.04 0 0.31 0.04 0 0.315 0.04 0 0.32 0.04 0 0.325 0.04 0 0.33 0.04 0 0.335 0.04 0 0.34 0.04 0 0.345 0.04 0 0.35 0.04 0 0.355 0.04 0 0.36 0.04 0 0.365 0.04 0 0.37 0.04 0 0.375 0.04 0 0.38 0.04 0 0.385 0.04 0 0.39 0.04 0 0.395 0.04 0 0.4 0.04 0 0.405 0.04 0 0.41 0.04 0 0.415 0.04 0 0.42 0.04 0 0.425 0.04 0 0.43 0.04 0 0.435 0.04 0 0.44 0.04 0 0.445 0.04 0 0.450003 0.04 0 0.455017 0.04 0 0.460086 0.04 0 0.465321 0.04 0 0.470925 0.04 0 0.477158 0.04 0 0.484331 0.04 0 0.492868 0.04 0 0.503364 0.04 0 0.515883 0.04 0 0.528216 0.04 0 0.530885 0.04 0 0.533486 0.04 0 0.536047 0.04 0 0.538583 0.04 0 0.541072 0.04 0 0.543548 0.04 0 0.546041 0.04 0 0.548687 0.04 0 0.551449 0.04 0 0.554524 0.04 0 0.557909 0.04 0 0.561653 0.04 0 0.565815 0.04 0 0.570334 0.04 0 0.575112 0.04 0 0.580032 0.04 0 0.585008 0.04 0 0.590002 0.04 0 0.595 0.04 0 0.6 0.04 0 0.605 0.04 0 0.61 0.04 0 0.615 0.04 0 0.62 0.04 0 0.625 0.04 0 0.63 0.04 0 0.635 0.04 0 0.64 0.04 0 0.645 0.04 0 0.65 0.04 0 0.655 0.04 0 0.66 0.04 0 0.665 0.04 0 0.67 0.04 0 0.675 0.04 0 0.68 0.04 0 0.685 0.04 0 0.69 0.04 0 0.695 0.04 0 0.7 0.04 0 0.705 0.04 0 0.71 0.04 0 0.715 0.04 0 0.72 0.04 0 0.725 0.04 0 0.73 0.04 0 0.735 0.04 0 0.74 0.04 0 0.745 0.04 0 0.75 0.04 0 0.755 0.04 0 0.76 0.04 0 0.765 0.04 0 0.77 0.04 0 0.775 0.04 0 0.78 0.04 0 0.785 0.04 0 0.79 0.04 0 0.795 0.04 0 0.8 0.04 0 0.805 0.04 0 0.81 0.04 0 0.815 0.04 0 0.82 0.04 0 0.825 0.04 0 0.83 0.04 0 0.835 0.04 0 0.84 0.04 0 0.845 0.04 0 0.85 0.04 0 0.855 0.04 0 0.86 0.04 0 0.865 0.04 0 0.87 0.04 0 0.875 0.04 0 0.88 0.04 0 0.885 0.04 0 0.89 0.04 0 0.895 0.04 0 0.9 0.04 0 0.905 0.04 0 0.91 0.04 0 0.915 0.04 0 0.92 0.04 0 0.925 0.04 0 0.93 0.04 0 0.935 0.04 0 0.94 0.04 0 0.945 0.04 0 0.95 0.04 0 0.955 0.04 0 0.96 0.04 0 0.965 0.04 0 0.97 0.04 0 0.975 0.04 0 0.98 0.04 0 0.985 0.04 0 0.99 0.04 0 0.995 0.04 0 1 0.04 0 0 0.06 0 0.005 0.06 0 0.01 0.06 0 0.015 0.06 0 0.02 0.06 0 0.025 0.06 0 0.03 0.06 0 0.035 0.06 0 0.04 0.06 0 0.045 0.06 0 0.05 0.06 0 0.055 0.06 0 0.06 0.06 0 0.065 0.06 0 0.07 0.06 0 0.075 0.06 0 0.08 0.06 0 0.085 0.06 0 0.09 0.06 0 0.095 0.06 0 0.1 0.06 0 0.105 0.06 0 0.11 0.06 0 0.115 0.06 0 0.12 0.06 0 0.125 0.06 0 0.13 0.06 0 0.135 0.06 0 0.14 0.06 0 0.145 0.06 0 0.15 0.06 0 0.155 0.06 0 0.16 0.06 0 0.165 0.06 0 0.17 0.06 0 0.175 0.06 0 0.18 0.06 0 0.185 0.06 0 0.19 0.06 0 0.195 0.06 0 0.2 0.06 0 0.205 0.06 0 0.21 0.06 0 0.215 0.06 0 0.22 0.06 0 0.225 0.06 0 0.23 0.06 0 0.235 0.06 0 0.24 0.06 0 0.245 0.06 0 0.25 0.06 0 0.255 0.06 0 0.26 0.06 0 0.265 0.06 0 0.27 0.06 0 0.275 0.06 0 0.28 0.06 0 0.285 0.06 0 0.29 0.06 0 0.295 0.06 0 0.3 0.06 0 0.305 0.06 0 0.31 0.06 0 0.315 0.06 0 0.32 0.06 0 0.325 0.06 0 0.33 0.06 0 0.335 0.06 0 0.34 0.06 0 0.345 0.06 0 0.35 0.06 0 0.355 0.06 0 0.36 0.06 0 0.365 0.06 0 0.37 0.06 0 0.375 0.06 0 0.38 0.06 0 0.385 0.06 0 0.39 0.06 0 0.395 0.06 0 0.4 0.06 0 0.405 0.06 0 0.41 0.06 0 0.415 0.06 0 0.42 0.06 0 0.425 0.06 0 0.43 0.06 0 0.435 0.06 0 0.44 0.06 0 0.445 0.06 0 0.450003 0.06 0 0.455017 0.06 0 0.460086 0.06 0 0.465321 0.06 0 0.470925 0.06 0 0.477158 0.06 0 0.484331 0.06 0 0.492868 0.06 0 0.503364 0.06 0 0.515883 0.06 0 0.528216 0.06 0 0.530885 0.06 0 0.533486 0.06 0 0.536047 0.06 0 0.538583 0.06 0 0.541072 0.06 0 0.543548 0.06 0 0.546041 0.06 0 0.548687 0.06 0 0.551449 0.06 0 0.554524 0.06 0 0.557909 0.06 0 0.561653 0.06 0 0.565815 0.06 0 0.570334 0.06 0 0.575112 0.06 0 0.580032 0.06 0 0.585008 0.06 0 0.590002 0.06 0 0.595 0.06 0 0.6 0.06 0 0.605 0.06 0 0.61 0.06 0 0.615 0.06 0 0.62 0.06 0 0.625 0.06 0 0.63 0.06 0 0.635 0.06 0 0.64 0.06 0 0.645 0.06 0 0.65 0.06 0 0.655 0.06 0 0.66 0.06 0 0.665 0.06 0 0.67 0.06 0 0.675 0.06 0 0.68 0.06 0 0.685 0.06 0 0.69 0.06 0 0.695 0.06 0 0.7 0.06 0 0.705 0.06 0 0.71 0.06 0 0.715 0.06 0 0.72 0.06 0 0.725 0.06 0 0.73 0.06 0 0.735 0.06 0 0.74 0.06 0 0.745 0.06 0 0.75 0.06 0 0.755 0.06 0 0.76 0.06 0 0.765 0.06 0 0.77 0.06 0 0.775 0.06 0 0.78 0.06 0 0.785 0.06 0 0.79 0.06 0 0.795 0.06 0 0.8 0.06 0 0.805 0.06 0 0.81 0.06 0 0.815 0.06 0 0.82 0.06 0 0.825 0.06 0 0.83 0.06 0 0.835 0.06 0 0.84 0.06 0 0.845 0.06 0 0.85 0.06 0 0.855 0.06 0 0.86 0.06 0 0.865 0.06 0 0.87 0.06 0 0.875 0.06 0 0.88 0.06 0 0.885 0.06 0 0.89 0.06 0 0.895 0.06 0 0.9 0.06 0 0.905 0.06 0 0.91 0.06 0 0.915 0.06 0 0.92 0.06 0 0.925 0.06 0 0.93 0.06 0 0.935 0.06 0 0.94 0.06 0 0.945 0.06 0 0.95 0.06 0 0.955 0.06 0 0.96 0.06 0 0.965 0.06 0 0.97 0.06 0 0.975 0.06 0 0.98 0.06 0 0.985 0.06 0 0.99 0.06 0 0.995 0.06 0 1 0.06 0 0 0.08 0
[...]
			<PointData Scalars="VitesseX">
				<DataArray Name="VitesseX" type="Float32" format="ascii">
 0 -5.66491e-16 -5.29316e-16 -1.45614e-15 -3.16642e-15 2.0437e-16 -1.38784e-15 -2.67226e-15 4.77505e-15 1.5074e-15 7.74721e-16 -2.87216e-15 2.60589e-15 5.65568e-15 -1.01639e-14 8.47264e-16 8.63482e-15 -1.04004e-14 1.06848e-14 -6.28402e-15 -4.75202e-15 2.57585e-15 1.23801e-15 4.24655e-15 -9.73149e-15 -1.28632e-15 1.03718e-14 2.44844e-15 -8.24742e-15 -9.28e-16 8.71125e-15 -1.45154e-14 1.46628e-14 -2.30968e-15 -9.43516e-17 4.4865e-15 -1.08079e-14 8.96141e-15 -1.42593e-14 8.6666e-15 -3.14324e-15 2.65939e-16 9.9129e-15 -2.12724e-14 8.76568e-15 -1.98893e-14 3.27e-14 -9.55879e-15 6.40581e-16 -5.06888e-15 1.87711e-15 6.17896e-15 2.68931e-14 -2.93212e-14 4.20668e-15 -1.16578e-14 7.91908e-15 2.01336e-14 -2.91921e-14 4.75857e-15 6.23238e-15 1.48105e-15 1.01059e-14 -2.37543e-14 1.36263e-14 5.00985e-15 4.18354e-15 5.34635e-15 -1.51098e-14 1.13216e-14 3.84675e-14 -2.35558e-14 -2.16077e-15 1.07315e-14 -1.61036e-14 1.8824e-14 -1.60549e-14 1.45324e-15 4.97904e-14 -3.60402e-14 1.72997e-14 6.33479e-14 6.62658e-13 1.87167e-11 4.05074e-10 7.60806e-09 1.22398e-07 1.66446e-06 1.88164e-05 0.000173068 0.0012588 0.00698035 0.0284006 0.083367 0.18244 0.321389 0.493717 0.697228 0.913425 0.988639 0.928123 0.922189 0.917453 0.914758 0.906973 0.936032 0.918372 0.861072 0.906115 0.728446 0.632043 0.560561 0.37657 0.237491 0.119277 0.0474226 0.0150643 0.00413176 0.00103664 0.000243767 5.41346e-05 1.13805e-05 2.26726e-06 4.28424e-07 7.68492e-08 1.30966e-08 2.12214e-09 3.27185e-10 4.80159e-11 6.69965e-12 9.16723e-13 8.46977e-14 8.94957e-15 3.59677e-14 -4.17198e-14 4.26475e-15 2.0411e-14 -2.03843e-14 2.46825e-14 -5.04163e-14 9.51218e-15 6.52728e-14 -5.44638e-14 7.77877e-14 -1.12314e-13 8.72473e-14 2.52698e-16 -4.31514e-14 -8.2389e-16 4.01245e-14 -4.25164e-14 4.23484e-14 -7.69803e-14 6.67331e-14 -5.75939e-14 4.57082e-14 -5.23019e-16 -4.38403e-15 -2.81058e-15 1.50027e-14 -3.23639e-14 -2.56608e-14 -1.13503e-14 7.13791e-14 -2.67622e-14 2.0389e-14 -5.73499e-14 2.96883e-14 8.23412e-14 -9.70379e-14 6.43897e-14 -2.24429e-14 7.37789e-15 3.88278e-14 -1.35673e-15 -2.03475e-14 -3.13001e-14 5.54441e-14 -3.93801e-14 -2.7268e-14 -3.98252e-14 4.37208e-14 -5.24937e-14 4.55055e-14 -6.27964e-14 1.51864e-14 6.45826e-14 -5.00054e-14 1.57824e-14 -5.9293e-14 -9.90854e-15 2.99498e-14 -1.79812e-14 -1.38336e-14 2.19332e-14 2.99679e-14 -1.70464e-14 -3.32006e-14 1.56353e-14 1.92479e-14 0 0 4.67462e-17 -2.46919e-16 -1.7462e-15 -3.14315e-15 -7.85321e-16 -6.41052e-16 2.72031e-15 -6.74285e-16 -6.23281e-16 -1.04482e-15 7.53106e-15 -2.09592e-15 -4.32946e-15 4.23831e-15 -9.75249e-16 -3.57307e-15 2.45866e-15 -2.66663e-15 4.32279e-15 -1.96052e-15 -1.12116e-15 -1.25095e-15 4.34483e-16 3.23654e-15 3.15528e-15 -1.29084e-14 1.22143e-14 -9.32029e-15 1.16044e-14 -1.19682e-14 8.36444e-15 -6.01267e-15 6.30375e-15 1.73729e-14 -8.70825e-15 -1.23647e-14 -3.36277e-15 -9.89821e-16 -1.33321e-15 1.32031e-14 -1.07291e-14 8.81761e-16 -2.23746e-15 -2.51429e-15 7.08012e-15 2.54187e-16 7.16001e-15 -2.62326e-15 -8.56472e-16 1.28421e-15 1.77622e-15 9.24859e-15 -1.4786e-14 8.5059e-15 -1.30208e-14 9.74213e-15 4.75366e-15 -1.09229e-14 -9.74489e-15 9.52607e-15 -3.55421e-15 1.45254e-14 -1.50532e-14 1.0992e-14 8.24471e-15 -7.91985e-15 2.83501e-14 -4.98311e-14 5.19838e-14 2.50701e-14 -2.67093e-14 -1.7935e-14 -3.39043e-15 3.39556e-14 2.65584e-14 -5.64583e-14 2.08102e-14 2.69964e-14 -4.46927e-15 2.86912e-14 -5.72255e-15 7.3694e-13 1.86542e-11 4.05079e-10 7.60813e-09 1.22398e-07 1.66446e-06 1.88164e-05 0.000173068 0.0012588 0.00698035 0.0284006 0.083367 0.18244 0.321389 0.493717 0.697228 0.913425 0.988639 0.928123 0.922189 0.917453 0.914758 0.906973 0.936032 0.918372 0.861072 0.906115 0.728446 0.632043 0.560561 0.37657 0.237491 0.119277 0.0474226 0.0150643 0.00413176 0.00103664 0.000243767 5.41346e-05 1.13805e-05 2.26726e-06 4.28424e-07 7.68491e-08 1.30966e-08 2.12213e-09 3.27196e-10 4.79975e-11 6.73906e-12 9.59965e-13 4.19738e-14 -2.53569e-14 2.36985e-14 -1.38681e-14 -1.51823e-14 5.69635e-14 -4.15085e-14 2.19496e-14 -3.11875e-14 1.76351e-14 4.61028e-14 -4.45888e-14 4.30515e-14 -1.38373e-14 1.51944e-14 -5.91856e-14 1.65429e-14 8.55406e-14 -2.55455e-14 -4.24517e-14 3.23554e-14 -6.40767e-14 -2.25291e-15 4.5035e-14 -3.53887e-14 2.45215e-15 6.02066e-14 1.09708e-14 -5.95076e-14 -4.90033e-14 -9.59227e-15 3.71044e-14 4.78932e-14 3.24968e-14 -5.87112e-14 3.58191e-14 -1.09698e-14 3.17598e-14 -1.23709e-14 -7.44548e-14 4.35524e-14 -1.2316e-15 3.71908e-14 -4.21999e-14 9.26898e-14 -9.88192e-14 6.39999e-14 2.38944e-14 -1.04986e-13 -8.8392e-14 7.33951e-14 -7.22232e-14 6.47452e-14 -1.03558e-14 -3.36973e-14 5.5201e-14 -3.18826e-14 3.43778e-14 -8.93258e-14 -8.54665e-15 3.47403e-14 -1.56283e-14 3.7229e-14 -1.18679e-14 5.17292e-15 -2.54326e-14 -2.48805e-14 5.5689e-14 -5.01277e-14 0 0 7.26563e-16 -7.34553e-16 -1.24133e-16 -2.08148e-15 -9.47011e-16 1.09725e-15 6.14106e-16 -5.74959e-17 -3.23484e-15 -2.07128e-15 5.85334e-15 2.37159e-15 -7.23471e-15 4.99227e-15 8.59792e-16 -5.16634e-15 6.55485e-15 -3.8708e-15 -4.50858e-16 -9.48467e-16 5.73026e-15 -1.37801e-14 1.0809e-14 7.72299e-15 -3.67435e-16 -8.10589e-15 -8.91881e-16 -6.25888e-15 9.61895e-15 -8.15565e-15 9.69018e-15 -2.49021e-14 1.68449e-14 2.60823e-14 -1.25231e-14 -5.09524e-15 -2.17542e-14 2.02585e-14 -9.68278e-15 8.57029e-15 -5.01605e-15 -8.28463e-16 1.22884e-14 -2.52812e-14 2.47255e-14 1.19099e-14 -1.24921e-14 1.62541e-15 9.36861e-15 -3.01294e-15 1.0587e-14 -1.973e-14 8.98026e-15 -2.25054e-14 1.24799e-14 1.21156e-14 -2.147e-14 9.83656e-15 -2.97987e-14 2.44582e-14 7.36117e-15 -1.0838e-14 2.25867e-14 1.88871e-15 -2.6281e-15 6.47371e-15 1.82346e-14 -4.44305e-14 4.5077e-14 1.46147e-16 1.77121e-14 -3.937e-14 -2.09027e-14 6.68053e-14 -5.72698e-15 -6.9785e-15 2.98665e-14 -1.65653e-14 6.54416e-15 6.43404e-15 1.10443e-14 7.55804e-13 1.8656e-11 4.05077e-10 7.60812e-09 1.22398e-07 1.66446e-06 1.88164e-05 0.000173068 0.0012588 0.00698035 0.0284006 0.083367 0.18244 0.321389 0.493717 0.697228 0.913425 0.988639 0.928123 0.922189 0.917453 0.914758 0.906973 0.936032 0.918372 0.861072 0.906115 0.728446 0.632043 0.560561 0.37657 0.237491 0.119277 0.0474226 0.0150643 0.00413176 0.00103664 0.000243767 5.41346e-05 1.13805e-05 2.26726e-06 4.28424e-07 7.68491e-08 1.30966e-08 2.12215e-09 3.27146e-10 4.80476e-11 6.79451e-12 9.61507e-13 4.41567e-14 -1.27988e-13 9.17142e-15 -1.5201e-15 2.28201e-14 5.26015e-14 -4.6407e-15 -5.46774e-14 1.05097e-13 -1.67763e-14 5.48932e-14 3.96054e-14 -8.36044e-14 9.95414e-14 -4.18033e-14 -8.43919e-14 5.03942e-14 9.56048e-14 -1.05496e-13 5.74888e-16 -8.04305e-15 1.16679e-14 -9.24711e-14 7.38155e-14 -3.4034e-14 6.58452e-14 4.37996e-14 1.10513e-14 -1.30128e-13 -8.37135e-14 -1.34461e-14 6.72363e-14 1.28091e-14 1.82302e-13 -9.27065e-14 -1.75288e-14 1.1883e-14 -1.53896e-14 4.65056e-14 -9.92358e-14 1.21415e-14 -9.64093e-16 4.08302e-14 -5.95337e-14 9.442e-14 -1.21001e-13 4.81559e-14 5.49522e-14 -9.62004e-14 -1.04919e-13 3.51084e-14 -7.9455e-14 9.41532e-14 7.83428e-14 -1.04439e-13 -2.06358e-14 9.2861e-15 1.64988e-14 -3.91306e-14 -1.70772e-14 -6.85728e-15 5.80245e-14 -2.05582e-15 -1.88485e-14 -3.50485e-14 1.24429e-14 2.85987e-14 -4.43534e-14 5.22994e-15 0 0 -4.54429e-16 -4.05101e-16 8.92148e-17 -2.98022e-15 -3.53315e-16 2.73486e-15 -1.96885e-15 2.13038e-15 -4.92565e-15 -2.29129e-15 -1.66958e-15 5.06796e-15 4.1746e-15 -1.32296e-15 -8.01074e-16 -4.05945e-15 -3.14067e-15 6.39056e-15 -1.67586e-15 -8.62258e-16 8.52733e-15 -7.50433e-15 6.67197e-15 8.11347e-16 -1.35739e-14 7.96089e-15 4.90777e-16 -1.3731e-15 -6.28494e-15 1.66694e-14 -5.79406e-15 -2.01589e-14 1.29986e-14 5.80711e-15 2.06634e-15 2.31684e-15 -1.18934e-14 8.90093e-15 -7.87208e-15 -1.54841e-15 2.20013e-14 -8.08347e-15 -7.26148e-16 -1.47089e-14 1.97593e-15 4.01119e-14 -1.5588e-14 1.64398e-16 -1.67739e-15 -1.11351e-15 1.64438e-14 -7.18661e-15 -1.68659e-14 -2.92816e-14 2.86365e-14 3.11109e-15 -8.96491e-15 -1.26128e-14 -2.35121e-17 5.46462e-15 1.98363e-14 -2.11165e-15 6.01163e-15 1.85265e-14 -1.55884e-14 2.64645e-14 -7.06314e-15 -2.32178e-14 2.87647e-14 3.06487e-14 -4.51703e-15 -2.92513e-14 -4.17117e-14 5.26229e-14 -2.17013e-14 2.87034e-14 5.73163e-14 -2.14782e-14 -3.92384e-14 6.024e-14 8.04728e-14 7.19191e-13 1.86191e-11 4.0514e-10 7.60804e-09 1.22398e-07 1.66446e-06 1.88164e-05 0.000173068 0.0012588 0.00698035 0.0284006 0.083367 0.18244 0.321389 0.493717 0.697228 0.913425 0.988639 0.928123 0.922189 0.917453 0.914758 0.906973 0.936032 0.918372 0.861072 0.906115 0.728446 0.632043 0.560561 0.37657 0.237491 0.119277 0.0474226 0.0150643 0.00413176 0.00103664 0.000243767 5.41346e-05 1.13805e-05 2.26726e-06 4.28424e-07 7.68491e-08 1.30966e-08 2.12218e-09 3.27166e-10 4.80524e-11 6.74343e-12 9.78009e-13 5.45246e-14 -1.41411e-13 5.71639e-15 -2.92996e-14 8.682e-14 -5.65104e-15 1.12334e-13 -8.39211e-14 1.06058e-13 2.84041e-14 1.59718e-14 5.81288e-14 -1.28243e-14 3.71073e-14 -5.57306e-14 -3.17468e-14 -1.0292e-13 3.26692e-14 -4.02188e-14 2.36391e-14 -3.22355e-14 3.08965e-14 -2.74004e-14 5.6454e-15 5.65204e-14 -3.37489e-14 8.78774e-14 1.0784e-13 -7.89871e-14 -1.31005e-13 -8.00571e-14 1.03895e-14 6.52459e-14 9.78715e-15 1.23339e-13 -1.09413e-13 -4.829e-14 6.31231e-14 -8.48414e-14 8.00496e-14 -4.5757e-14 3.52081e-14 2.73251e-14 -6.05669e-14 -6.83427e-14 1.00353e-14 -1.99264e-14 -3.87951e-14 4.29157e-14 -2.32871e-14 -4.53495e-14 -6.15357e-14 6.11324e-14 -1.57326e-14 -4.81037e-14 1.06276e-13 -1.18553e-13 3.4541e-14 1.34244e-14 -2.93685e-14 -2.47564e-14 3.77833e-14 -4.50434e-14 6.33257e-14 1.57623e-14 -2.65361e-14 1.6103e-14 -3.58414e-14 6.34109e-16 0 0 -7.20752e-16 -2.43584e-16 -1.2203e-15 -2.21195e-15 3.59201e-16 5.37077e-17 3.89768e-15 7.46815e-17 -4.88077e-15 -4.57495e-15 -1.5646e-15 -1.38216e-15 1.01072e-14 8.51018e-15 -8.04119e-17 -1.10688e-14 -5.02679e-15 -5.98962e-16 4.7014e-15 -3.52757e-16 5.74644e-15 -2.33182e-15 -1.38086e-15 -4.70841e-15 -1.00244e-14 9.56403e-16 1.55648e-14 4.93791e-15 -1.56848e-14 8.49102e-15 -9.88483e-16 4.5405e-15 1.55539e-15 -5.00695e-15 5.29454e-15 -1.04594e-14 1.05041e-14 8.48755e-15 -9.24925e-15 9.94657e-15 8.04092e-15 -7.63014e-15 -3.06968e-14 1.37163e-14 -1.87088e-14 1.17599e-14 4.74379e-14 7.85505e-15 -3.78516e-14 1.05506e-14 3.59324e-15 -1.19097e-15 -3.23435e-14 3.46979e-15 -4.63437e-15 1.33945e-14 -1.69494e-14 5.10606e-15 8.30309e-15 -5.18255e-15 9.11474e-15 9.47913e-15 1.41425e-15 1.03804e-14 -2.67925e-15 1.43564e-14 -2.28415e-15 1.68682e-14 3.38671e-14 5.68978e-14 -5.88527e-14 -1.82173e-14 -3.94369e-14 5.80497e-15 -4.64669e-15 1.33058e-14 5.31915e-14 3.21793e-14 4.51071e-14 4.59918e-14 4.99568e-14 7.4642e-13 1.85893e-11 4.0514e-10 7.608e-09 1.22398e-07 1.66446e-06 1.88164e-05 0.000173068 0.0012588 0.00698035 0.0284006 0.083367 0.18244 0.321389 0.493717 0.697228 0.913425 0.988639 0.928123 0.922189 0.917453 0.914758 0.906973 0.936032 0.918372 0.861072 0.906115 0.728446 0.632043 0.560561 0.37657 0.237491 0.119277 0.0474226 0.0150643 0.00413176 0.00103664 0.000243767 5.41346e-05 1.13805e-05 2.26726e-06 4.28424e-07 7.6849e-08 1.30967e-08 2.12215e-09 3.27171e-10 4.80556e-11 6.69126e-12 9.45972e-13 7.91638e-14 -7.16361e-14 4.61979e-14 1.53621e-14 -8.91558e-15 -7.07219e-15 3.00249e-14 1.1628e-14 8.14179e-14 3.35639e-14 -5.51487e-14 1.05039e-13 4.47432e-14 -5.7958e-14 -1.30091e-14 -3.02933e-14 -1.10768e-13 3.11836e-14 -1.61215e-15 4.14096e-14 -1.01924e-14 -7.71952e-14 3.66293e-14 5.68944e-14 2.82402e-14 -4.93728e-14 8.16786e-14 1.21777e-13 3.88768e-14 -1.40289e-13 -1.61921e-13 -2.43911e-14 1.64867e-13 -2.27797e-13 2.03293e-13 -1.74383e-13 8.51882e-14 -1.23165e-14 -9.21627e-14 7.3298e-14 -1.09318e-14 9.23162e-14 -2.61128e-14 2.46574e-14 -1.19578e-13 1.61826e-14 2.82623e-14 -5.05533e-15 -2.28228e-14 4.02751e-15 -1.03263e-13 -4.43035e-14 2.15352e-14 -7.24917e-14 2.76924e-15 1.73418e-13 -2.00573e-13 9.25503e-14 -2.26611e-14 -6.11751e-14 6.4539e-14 -4.01093e-14 4.33842e-14 2.01321e-14 5.6483e-14 -7.31776e-14 -1.84452e-15 1.02934e-13 -8.5653e-14 0 0 2.60496e-16 -1.18155e-15 -8.31038e-16 4.93439e-16 1.30602e-15 -3.27354e-15 4.84839e-15 1.89724e-15 -3.62596e-15 -5.84551e-15 -6.01763e-15 -1.35933e-15 1.17103e-14 1.10103e-14 5.95867e-15 -8.57038e-15 -5.98028e-15 -5.70253e-15 -3.07682e-15 -1.70891e-15 1.07169e-14 -1.34753e-14 8.89001e-15 -1.17981e-14 -1.23272e-15 5.96794e-15 6.38407e-15 1.04974e-14 -2.36986e-14 -2.03054e-17 -2.25277e-15 2.62826e-14 -4.11384e-15 -4.30384e-15 3.31317e-15 -2.18214e-14 1.69736e-14 2.74107e-14 -1.07869e-14 1.05811e-14 -1.62289e-14 7.39912e-15 -5.2162e-14 2.00823e-14 -2.5968e-14 -6.92589e-16 7.71888e-14 2.45192e-14 -5.69672e-14 1.6611e-14 -1.90057e-15 -1.90728e-14 -1.27438e-14 7.6869e-15 -2.71981e-14 3.32329e-14 -4.82827e-14 4.77646e-14 -1.86959e-14 1.48023e-14 1.86878e-15 -1.74393e-14 4.23307e-14 -2.08724e-14 9.08257e-15 8.75461e-15 -5.3266e-15 7.58634e-14 7.7128e-15 4.11178e-14 -4.33845e-14 -2.29627e-14 -1.97436e-14 -4.40402e-14 -1.16376e-14 5.21093e-14 1.13162e-14 6.9982e-14 1.54678e-13 -5.5711e-14 3.58496e-14 7.54846e-13 1.86605e-11 4.05069e-10 7.60796e-09 1.22398e-07 1.66446e-06 1.88164e-05 0.000173068 0.0012588 0.00698035 0.0284006 0.083367 0.18244 0.321389 0.493717 0.697228 0.913425 0.988639 0.928123 0.922189 0.917453 0.914758 0.906973 0.936032 0.918372 0.861072 0.906115 0.728446 0.632043 0.560561 0.37657 0.237491 0.119277 0.0474226 0.0150643 0.00413176 0.00103664 0.000243767 5.41346e-05 1.13805e-05 2.26726e-06 4.28424e-07 7.68489e-08 1.30968e-08 2.12212e-09 3.27096e-10 4.81224e-11 6.70641e-12 8.55902e-13 1.38398e-13 -5.67572e-14 8.78688e-14 7.22105e-14 -1.11296e-13 8.86317e-15 -1.11307e-13 6.24285e-14 1.72816e-13 -4.91426e-14 -5.9526e-14 2.07564e-13 -6.04932e-14 -7.56556e-14 5.87313e-14 -4.73807e-14 8.83523e-15 1.64529e-14 -4.27829e-14 7.91489e-14 6.03642e-15 -1.41469e-13 1.46101e-14 1.02594e-13 -8.27387e-15 9.46752e-14 -5.00808e-14 2.50069e-14 1.09631e-13 -1.20217e-13 -1.97105e-13 -2.06169e-14 2.0081e-13 -2.01778e-13 1.12614e-13 -2.93855e-13 3.4242e-13 -1.62667e-13 6.32823e-15 1.34813e-15 -1.55678e-14 1.2228e-13 -6.07476e-14 1.34389e-13 -1.19318e-13 -6.33944e-14 1.20047e-13 9.02789e-14 -1.41131e-13 -1.83322e-14 -1.48731e-13 -3.25213e-14 2.50099e-14 9.1315e-16 -2.4658e-14 4.71191e-14 -1.31784e-13 9.58695e-14 -3.12297e-14 -9.04733e-14 1.25501e-13 -2.62875e-14 8.45374e-14 -7.84759e-14 3.10066e-14 -3.46292e-14 3.78836e-14 9.31959e-14 -4.26082e-14 0
				</DataArray>
				<DataArray Name="VitesseY" type="Float32" format="ascii">