<?xml version="1.0"?>
<VTKFile type="PolyData">
	<PolyData>
		<Piece NumberOfPoints="1206" NumberOfPolys="1000">
			<Points>
				<DataArray type="Float32" NumberOfComponents="3" format="ascii">
 0 0 0 0.005 0 0 0.01 0 0 0.015 0 0 0.02 0 0 0.025 0 0 0.03 0 0 0.035 0 0 0.04 0 0 0.045 0 0 0.05 0 0 0.055 0 0 0.06 0 0 0.065 0 0 0.07 0 0 0.075 0 0 0.08 0 0 0.085 0 0 0.09 0 0 0.095 0 0 0.1 0 0 0.105 0 0 0.11 0 0 0.115 0 0 0.12 0 0 0.125 0 0 0.13 0 0 0.135 0 0 0.14 0 0 0.145 0 0 0.15 0 0 0.155 0 0 0.16 0 0 0.165 0 0 0.17 0 0 0.175 0 0 0.18 0 0 0.185 0 0 0.19 0 0 0.195 0 0 0.2 0 0 0.205 0 0 0.21 0 0 0.215 0 0 0.22 0 0 0.225 0 0 0.23 0 0 0.235 0 0 0.24 0 0 0.245 0 0 0.25 0 0 0.255 0 0 0.26 0 0 0.265 0 0 0.27 0 0 0.275 0 0 0.28 0 0 0.285 0 0 0.29 0 0 0.295 0 0 0.3 0 0 0.305 0 0 0.31 0 0 0.315 0 0 0.32 0 0 0.325 0 0 0.33 0 0 0.335 0 0 0.34 0 0 0.345 0 0 0.35 0 0 0.355 0 0 0.36 0 0 0.365 0 0 0.37 0 0 0.375 0 0 0.38 0 0 0.385 0 0 0.39 0 0 0.395 0 0 0.4 0 0 0.405 0 0 0.41 0 0 0.415 0 0 0.42 0 0 0.425 0 0 0.43 0 0 0.435002 0 0 0.44001 0 0 0.445046 0 0 0.450167 0 0 0.455485 0 0 0.461146 0 0 0.467311 0 0 0.474153 0 0 0.481887 0 0 0.490809 0 0 0.501294 0 0 0.513468 0 0 0.525917 0 0 0.537931 0 0 0.540575 0 0 0.543144 0 0 0.545665 0 0 0.548155 0 0 0.550624 0 0 0.553078 0 0 0.555519 0 0 0.557951 0 0 0.560404 0 0 0.562914 0 0 0.56548 0 0 0.568192 0 0 0.571071 0 0 0.574227 0 0 0.5777 0 0 0.58155 0 0 0.585776 0 0 0.59033 0 0 0.595119 0 0 0.600037 0 0 0.605011 0 0 0.610003 0 0 0.615001 0 0 0.62 0 0 0.625 0 0 0.63 0 0 0.635 0 0 0.64 0 0 0.645 0 0 0.65 0 0 0.655 0 0 0.66 0 0 0.665 0 0 0.67 0 0 0.675 0 0 0.68 0 0 0.685 0 0 0.69 0 0 0.695 0 0 0.7 0 0 0.705 0 0 0.71 0 0 0.715 0 0 0.72 0 0 0.725 0 0 0.73 0 0 0.735 0 0 0.74 0 0 0.745 0 0 0.75 0 0 0.755 0 0 0.76 0 0 0.765 0 0 0.77 0 0 0.775 0 0 0.78 0 0 0.785 0 0 0.79 0 0 0.795 0 0 0.8 0 0 0.805 0 0 0.81 0 0 0.815 0 0 0.82 0 0 0.825 0 0 0.83 0 0 0.835 0 0 0.84 0 0 0.845 0 0 0.85 0 0 0.855 0 0 0.86 0 0 0.865 0 0 0.87 0 0 0.875 0 0 0.88 0 0 0.885 0 0 0.89 0 0 0.895 0 0 0.9 0 0 0.905 0 0 0.91 0 0 0.915 0 0 0.92 0 0 0.925 0 0 0.93 0 0 0.935 0 0 0.94 0 0 0.945 0 0 0.95 0 0 0.955 0 0 0.96 0 0 0.965 0 0 0.97 0 0 0.975 0 0 0.98 0 0 0.985 0 0 0.99 0 0 0.995 0 0 1 0 0 0 0.02 0 0.005 0.02 0 0.01 0.02 0 0.015 0.02 0 0.02 0.02 0 0.025 0.02 0 0.03 0.02 0 0.035 0.02 0 0.04 0.02 0 0.045 0.02 0 0.05 0.02 0 0.055 0.02 0 0.06 0.02 0 0.065 0.02 0 0.07 0.02 0 0.075 0.02 0 0.08 0.02 0 0.085 0.02 0 0.09 0.02 0 0.095 0.02 0 0.1 0.02 0 0.105 0.02 0 0.11 0.02 0 0.115 0.02 0 0.12 0.02 0 0.125 0.02 0 0.13 0.02 0 0.135 0.02 0 0.14 0.02 0 0.145 0.02 0 0.15 0.02 0 0.155 0.02 0 0.16 0.02 0 0.165 0.02 0 0.17 0.02 0 0.175 0.02 0 0.18 0.02 0 0.185 0.02 0 0.19 0.02 0 0.195 0.02 0 0.2 0.02 0 0.205 0.02 0 0.21 0.02 0 0.215 0.02 0 0.22 0.02 0 0.225 0.02 0 0.23 0.02 0 0.235 0.02 0 0.24 0.02 0 0.245 0.02 0 0.25 0.02 0 0.255 0.02 0 0.26 0.02 0 0.265 0.02 0 0.27 0.02 0 0.275 0.02 0 0.28 0.02 0 0.285 0.02 0 0.29 0.02 0 0.295 0.02 0 0.3 0.02 0 0.305 0.02 0 0.31 0.02 0 0.315 0.02 0 0.32 0.02 0 0.325 0.02 0 0.33 0.02 0 0.335 0.02 0 0.34 0.02 0 0.345 0.02 0 0.35 0.02 0 0.355 0.02 0 0.36 0.02 0 0.365 0.02 0 0.37 0.02 0 0.375 0.02 0 0.38 0.02 0 0.385 0.02 0 0.39 0.02 0 0.395 0.02 0 0.4 0.02 0 0.405 0.02 0 0.41 0.02 0 0.415 0.02 0 0.42 0.02 0 0.425 0.02 0 0.43 0.02 0 0.435002 0.02 0 0.44001 0.02 0 0.445046 0.02 0 0.450167 0.02 0 0.455485 0.02 0 0.461146 0.02 0 0.467311 0.02 0 0.474153 0.02 0 0.481887 0.02 0 0.490809 0.02 0 0.501294 0.02 0 0.513468 0.02 0 0.525917 0.02 0 0.537931 0.02 0 0.540575 0.02 0 0.543144 0.02 0 0.545665 0.02 0 0.548155 0.02 0 0.550624 0.02 0 0.553078 0.02 0 0.555519 0.02 0 0.557951 0.02 0 0.560404 0.02 0 0.562914 0.02 0 0.56548 0.02 0 0.568192 0.02 0 0.571071 0.02 0 0.574227 0.02 0 0.5777 0.02 0 0.58155 0.02 0 0.585776 0.02 0 0.59033 0.02 0 0.595119 0.02 0 0.600037 0.02 0 0.605011 0.02 0 0.610003 0.02 0 0.615001 0.02 0 0.62 0.02 0 0.625 0.02 0 0.63 0.02 0 0.635 0.02 0 0.64 0.02 0 0.645 0.02 0 0.65 0.02 0 0.655 0.02 0 0.66 0.02 0 0.665 0.02 0 0.67 0.02 0 0.675 0.02 0 0.68 0.02 0 0.685 0.02 0 0.69 0.02 0 0.695 0.02 0 0.7 0.02 0 0.705 0.02 0 0.71 0.02 0 0.715 0.02 0 0.72 0.02 0 0.725 0.02 0 0.73 0.02 0 0.735 0.02 0 0.74 0.02 0 0.745 0.02 0 0.75 0.02 0 0.755 0.02 0 0.76 0.02 0 0.765 0.02 0 0.77 0.02 0 0.775 0.02 0 0.78 0.02 0 0.785 0.02 0 0.79 0.02 0 0.795 0.02 0 0.8 0.02 0 0.805 0.02 0 0.81 0.02 0 0.815 0.02 0 0.82 0.02 0 0.825 0.02 0 0.83 0.02 0 0.835 0.02 0 0.84 0.02 0 0.845 0.02 0 0.85 0.02 0 0.855 0.02 0 0.86 0.02 0 0.865 0.02 0 0.87 0.02 0 0.875 0.02 0 0.88 0.02 0 0.885 0.02 0 0.89 0.02 0 0.895 0.02 0 0.9 0.02 0 0.905 0.02 0 0.91 0.02 0 0.915 0.02 0 0.92 0.02 0 0.925 0.02 0 0.93 0.02 0 0.935 0.02 0 0.94 0.02 0 0.945 0.02 0 0.95 0.02 0 0.955 0.02 0 0.96 0.02 0 0.965 0.02 0 0.97 0.02 0 0.975 0.02 0 0.98 0.02 0 0.985 0.02 0 0.99 0.02 0 0.995 0.02 0 1 0.02 0 0 0.04 0 0.005 0.04 0 0.01 0.04 0 0.015 0.04 0 0.02 0.04 0 0.025 0.04 0 0.03 0.04 0 0.035 0.04 0 0.04 0.04 0 0.045 0.04 0 0.05 0.04 0 0.055 0.04 0 0.06 0.04 0 0.065 0.04 0 0.07 0.04 0 0.075 0.04 0 0.08 0.04 0 0.085 0.04 0 0.09 0.04 0 0.095 0.04 0 0.1 0.04 0 0.105 0.04 0 0.11 0.04 0 0.115 0.04 0 0.12 0.04 0 0.125 0.04 0 0.13 0.04 0 0.135 0.04 0 0.14 0.04 0 0.145 0.04 0 0.15 0.04 0 0.155 0.04 0 0.16 0.04 0 0.165 0.04 0 0.17 0.04 0 0.175 0.04 0 0.18 0.04 0 0.185 0.04 0 0.19 0.04 0 0.195 0.04 0 0.2 0.04 0 0.205 0.04 0 0.21 0.04 0 0.215 0.04 0 0.22 0.04 0 0.225 0.04 0 0.23 0.04 0 0.235 0.04 0 0.24 0.04 0 0.245 0.04 0 0.25 0.04 0 0.255 0.04 0 0.26 0.04 0 0.265 0.04 0 0.27 0.04 0 0.275 0.04 0 0.28 0.04 0 0.285 0.04 0 0.29 0.04 0 0.295 0.04 0 0.3 0.04 0 0.305 0.04 0 0.31 0.04 0 0.315 0.04 0 0.32 0.04 0 0.325 0.04 0 0.33 0.04 0 0.335 0.04 0 0.34 0.04 0 0.345 0.04 0 0.35 0.04 0 0.355 0.04 0 0.36 0.04 0 0.365 0.04 0 0.37 0.04 0 0.375 0.04 0 0.38 0.04 0 0.385 0.04 0 0.39 0.04 0 0.395 0.04 0 0.4 0.04 0 0.405 0.04 0 0.41 0.04 0 0.415 0.04 0 0.42 0.04 0 0.425 0.04 0 0.43 0.04 0 0.435002 0.04 0 0.44001 0.04 0 0.445046 0.04 0 0.450167 0.04 0 0.455485 0.04 0 0.461146 0.04 0 0.467311 0.04 0 0.474153 0.04 0 0.481887 0.04 0 0.490809 0.04 0 0.501294 0.04 0 0.513468 0.04 0 0.525917 0.04 0 0.537931 0.04 0 0.540575 0.04 0 0.543144 0.04 0 0.545665 0.04 0 0.548155 0.04 0 0.550624 0.04 0 0.553078 0.04 0 0.555519 0.04 0 0.557951 0.04 0 0.560404 0.04 0 0.562914 0.04 0 0.56548 0.04 0 0.568192 0.04 0 0.571071 0.04 0 0.574227 0.04 0 0.5777 0.04 0 0.58155 0.04 0 0.585776 0.04 0 0.59033 0.04 0 0.595119 0.04 0 0.600037 0.04 0 0.605011 0.04 0 0.610003 0.04 0 0.615001 0.04 0 0.62 0.04 0 0.625 0.04 0 0.63 0.04 0 0.635 0.04 0 0.64 0.04 0 0.645 0.04 0 0.65 0.04 0 0.655 0.04 0 0.66 0.04 0 0.665 0.04 0 0.67 0.04 0 0.675 0.04 0 0.68 0.04 0 0.685 0.04 0 0.69 0.04 0 0.695 0.04 0 0.7 0.04 0 0.705 0.04 0 0.71 0.04 0 0.715 0.04 0 0.72 0.04 0 0.725 0.04 0 0.73 0.04 0 0.735 0.04 0 0.74 0.04 0 0.745 0.04 0 0.75 0.04 0 0.755 0.04 0 0.76 0.04 0 0.765 0.04 0 0.77 0.04 0 0.775 0.04 0 0.78 0.04 0 0.785 0.04 0 0.79 0.04 0 0.795 0.04 0 0.8 0.04 0 0.805 0.04 0 0.81 0.04 0 0.815 0.04 0 0.82 0.04 0 0.825 0.04 0 0.83 0.04 0 0.835 0.04 0 0.84 0.04 0 0.845 0.04 0 0.85 0.04 0 0.855 0.04 0 0.86 0.04 0 0.865 0.04 0 0.87 0.04 0 0.875 0.04 0 0.88 0.04 0 0.885 0.04 0 0.89 0.04 0 0.895 0.04 0 0.9 0.04 0 0.905 0.04 0 0.91 0.04 0 0.915 0.04 0 0.92 0.04 0 0.925 0.04 0 0.93 0.04 0 0.935 0.04 0 0.94 0.04 0 0.945 0.04 0 0.95 0.04 0 0.955 0.04 0 0.96 0.04 0 0.965 0.04 0 0.97 0.04 0 0.975 0.04 0 0.98 0.04 0 0.985 0.04 0 0.99 0.04 0 0.995 0.04 0 1 0.04 0 0 0.06 0 0.005 0.06 0 0.01 0.06 0 0.015 0.06 0 0.02 0.06 0 0.025 0.06 0 0.03 0.06 0 0.035 0.06 0 0.04 0.06 0 0.045 0.06 0 0.05 0.06 0 0.055 0.06 0 0.06 0.06 0 0.065 0.06 0 0.07 0.06 0 0.075 0.06 0 0.08 0.06 0 0.085 0.06 0 0.09 0.06 0 0.095 0.06 0 0.1 0.06 0 0.105 0.06 0 0.11 0.06 0 0.115 0.06 0 0.12 0.06 0 0.125 0.06 0 0.13 0.06 0 0.135 0.06 0 0.14 0.06 0 0.145 0.06 0 0.15 0.06 0 0.155 0.06 0 0.16 0.06 0 0.165 0.06 0 0.17 0.06 0 0.175 0.06 0 0.18 0.06 0 0.185 0.06 0 0.19 0.06 0 0.195 0.06 0 0.2 0.06 0 0.205 0.06 0 0.21 0.06 0 0.215 0.06 0 0.22 0.06 0 0.225 0.06 0 0.23 0.06 0 0.235 0.06 0 0.24 0.06 0 0.245 0.06 0 0.25 0.06 0 0.255 0.06 0 0.26 0.06 0 0.265 0.06 0 0.27 0.06 0 0.275 0.06 0 0.28 0.06 0 0.285 0.06 0 0.29 0.06 0 0.295 0.06 0 0.3 0.06 0 0.305 0.06 0 0.31 0.06 0 0.315 0.06 0 0.32 0.06 0 0.325 0.06 0 0.33 0.06 0 0.335 0.06 0 0.34 0.06 0 0.345 0.06 0 0.35 0.06 0 0.355 0.06 0 0.36 0.06 0 0.365 0.06 0 0.37 0.06 0 0.375 0.06 0 0.38 0.06 0 0.385 0.06 0 0.39 0.06 0 0.395 0.06 0 0.4 0.06 0 0.405 0.06 0 0.41 0.06 0 0.415 0.06 0 0.42 0.06 0 0.425 0.06 0 0.43 0.06 0 0.435002 0.06 0 0.44001 0.06 0 0.445046 0.06 0 0.450167 0.06 0 0.455485 0.06 0 0.461146 0.06 0 0.467311 0.06 0 0.474153 0.06 0 0.481887 0.06 0 0.490809 0.06 0 0.501294 0.06 0 0.513468 0.06 0 0.525917 0.06 0 0.537931 0.06 0 0.540575 0.06 0 0.543144 0.06 0 0.545665 0.06 0 0.548155 0.06 0 0.550624 0.06 0 0.553078 0.06 0 0.555519 0.06 0 0.557951 0.06 0 0.560404 0.06 0 0.562914 0.06 0 0.56548 0.06 0 0.568192 0.06 0 0.571071 0.06 0 0.574227 0.06 0 0.5777 0.06 0 0.58155 0.06 0 0.585776 0.06 0 0.59033 0.06 0 0.595119 0.06 0 0.600037 0.06 0 0.605011 0.06 0 0.610003 0.06 0 0.615001 0.06 0 0.62 0.06 0 0.625 0.06 0 0.63 0.06 0 0.635 0.06 0 0.64 0.06 0 0.645 0.06 0 0.65 0.06 0 0.655 0.06 0 0.66 0.06 0 0.665 0.06 0 0.67 0.06 0 0.675 0.06 0 0.68 0.06 0 0.685 0.06 0 0.69 0.06 0 0.695 0.06 0 0.7 0.06 0 0.705 0.06 0 0.71 0.06 0 0.715 0.06 0 0.72 0.06 0 0.725 0.06 0 0.73 0.06 0 0.735 0.06 0 0.74 0.06 0 0.745 0.06 0 0.75 0.06 0 0.755 0.06 0 0.76 0.06 0 0.765 0.06 0 0.77 0.06 0 0.775 0.06 0 0.78 0.06 0 0.785 0.06 0 0.79 0.06 0 0.795 0.06 0 0.8 0.06 0 0.805 0.06 0 0.81 0.06 0 0.815 0.06 0 0.82 0.06 0 0.825 0.06 0 0.83 0.06 0 0.835 0.06 0 0.84 0.06 0 0.845 0.06 0 0.85 0.06 0 0.855 0.06 0 0.86 0.06 0 0.865 0.06 0 0.87 0.06 0 0.875 0.06 0 0.88 0.06 0 0.885 0.06 0 0.89 0.06 0 0.895 0.06 0 0.9 0.06 0 0.905 0.06 0 0.91 0.06 0 0.915 0.06 0 0.92 0.06 0 0.925 0.06 0 0.93 0.06 0 0.935 0.06 0 0.94 0.06 0 0.945 0.06 0 0.95 0.06 0 0.955 0.06 0 0.96 0.06 0 0.965 0.06 0 0.97
[...]
			<PointData Scalars="VitesseX">
				<DataArray Name="VitesseX" type="Float32" format="ascii">
 0 -1.00347e-15 -2.68134e-15 3.50326e-16 -2.36749e-15 -7.91232e-17 5.83913e-17 -4.98071e-15 2.00583e-15 3.33106e-15 5.49843e-16 -2.86718e-15 4.1616e-15 -6.74573e-17 -5.85873e-15 2.06295e-16 2.79892e-15 2.07e-15 -3.01255e-16 -2.57836e-15 -4.98877e-15 1.32191e-14 -8.11796e-15 -8.79375e-16 -2.4011e-15 -9.1537e-15 2.21939e-14 -1.57884e-14 1.26505e-14 -9.27379e-15 1.11918e-15 -4.49783e-16 3.8716e-15 6.89558e-15 -1.42915e-15 -5.34714e-16 8.04503e-15 -2.21668e-14 1.2681e-14 -1.19172e-14 -9.07861e-16 3.67295e-15 8.20967e-15 1.3249e-14 -2.14754e-14 1.21638e-14 -6.9701e-15 -9.47394e-15 1.07324e-14 -9.29954e-15 -8.05005e-17 3.82083e-14 -3.78501e-14 3.95075e-14 -4.70746e-14 3.38646e-14 -2.22208e-15 -3.46936e-14 4.22368e-14 -2.50227e-14 -5.24035e-15 2.5373e-14 -3.47073e-14 3.18828e-14 -1.67307e-14 9.3712e-15 3.98936e-14 -2.81606e-14 4.0294e-14 -1.99872e-14 -3.5764e-14 4.95048e-14 -1.24475e-14 2.72925e-14 -1.4584e-14 -2.2069e-14 1.6619e-14 4.92608e-14 1.31349e-13 3.4101e-12 6.01734e-11 9.56333e-10 1.33993e-08 1.64206e-07 1.74169e-06 1.57832e-05 0.000120218 0.000753619 0.00378586 0.0147964 0.0440763 0.100906 0.185736 0.292937 0.418545 0.562072 0.723406 0.891838 0.991775 0.947205 0.932606 0.930949 0.9286 0.925443 0.921795 0.917225 0.915384 0.913741 0.913741 0.893172 0.897857 0.827267 0.812075 0.696835 0.612558 0.473557 0.339653 0.20939 0.107861 0.0449421 0.0155532 0.00476355 0.00135609 0.000366742 9.48873e-05 2.3526e-05 5.59021e-06 1.27289e-06 2.77731e-07 5.80736e-08 1.164e-08 2.23711e-09 4.125e-10 7.29317e-11 1.23957e-11 1.99943e-12 3.0524e-13 6.65097e-14 3.30208e-15 5.80888e-14 -8.55288e-14 5.63781e-15 6.74807e-14 -8.7255e-14 8.42354e-14 -2.3855e-14 4.97285e-14 1.67664e-14 -6.31126e-14 -4.39642e-14 7.92204e-14 -9.86209e-14 9.82007e-14 -7.51807e-14 4.98193e-14 1.92073e-14 -2.38419e-14 -4.69874e-14 6.63669e-14 -3.68368e-14 4.68691e-14 -2.46405e-14 2.79396e-15 -6.89648e-14 9.76107e-14 1.69452e-14 -1.92522e-14 2.35407e-14 -7.56758e-14 1.40668e-13 -4.08333e-14 3.44203e-14 2.63003e-15 -7.68448e-14 2.21557e-14 4.6215e-14 -2.11911e-14 -4.7112e-14 -4.71045e-14 8.54284e-14 -8.11079e-14 -7.36816e-14 1.46422e-14 -7.48596e-14 9.36573e-14 -2.4985e-14 -5.4864e-14 3.59877e-14 -6.61289e-14 6.31057e-14 -6.55873e-14 -3.28563e-14 7.59512e-14 -6.45878e-14 5.30951e-14 -3.54274e-14 -1.00665e-14 7.01489e-14 -9.96722e-14 8.94541e-14 0 0 -1.15126e-15 -1.39822e-15 -1.81561e-15 -2.99993e-15 4.43215e-16 -6.41052e-16 2.60738e-17 -6.90162e-16 1.90606e-15 -2.8178e-17 3.25928e-15 -6.18479e-15 7.91026e-15 -5.89446e-15 -2.75543e-16 2.98516e-15 -5.94186e-15 4.44996e-15 -1.00902e-15 -1.61284e-15 -1.60629e-15 1.2895e-14 -1.2559e-14 1.33706e-15 -3.92984e-15 3.93938e-15 3.7729e-15 3.24951e-15 -5.34099e-15 -5.24289e-16 -8.15586e-15 2.04557e-14 -1.74317e-15 -5.25427e-15 8.10602e-15 -1.03696e-14 6.43348e-15 -2.11401e-14 1.09279e-14 7.43625e-16 2.86032e-16 2.15712e-15 -7.08721e-15 2.76384e-14 -1.82374e-14 -8.96887e-15 1.90115e-14 -9.15693e-15 -3.4439e-15 2.49908e-15 9.64205e-15 2.19063e-16 -1.1054e-14 4.85464e-15 -1.22483e-14 8.88974e-15 9.06436e-15 -9.44051e-15 1.12607e-14 -1.83317e-14 1.25657e-14 -5.95144e-15 2.16707e-15 1.33178e-14 4.97746e-15 2.68453e-14 -1.83002e-14 2.69772e-14 -3.15166e-14 3.92735e-15 -8.35134e-15 4.66916e-14 7.184e-15 7.22782e-16 -3.37571e-14 2.65071e-14 3.67267e-14 1.55942e-13 3.3726e-12 6.01877e-11 9.56368e-10 1.33992e-08 1.64206e-07 1.74169e-06 1.57832e-05 0.000120218 0.000753619 0.00378586 0.0147964 0.0440763 0.100906 0.185736 0.292937 0.418545 0.562072 0.723406 0.891838 0.991775 0.947205 0.932606 0.930949 0.9286 0.925443 0.921795 0.917225 0.915384 0.913741 0.913741 0.893172 0.897857 0.827267 0.812075 0.696835 0.612558 0.473557 0.339653 0.20939 0.107861 0.0449421 0.0155532 0.00476355 0.00135609 0.000366742 9.48873e-05 2.3526e-05 5.59021e-06 1.27289e-06 2.77731e-07 5.80736e-08 1.16401e-08 2.23713e-09 4.12434e-10 7.30028e-11 1.23766e-11 2.06892e-12 2.71662e-13 1.04883e-14 9.9542e-14 -3.08731e-14 -3.90787e-14 2.33787e-14 9.37952e-15 2.75417e-14 -2.83558e-14 -4.56127e-14 1.06442e-13 -2.20194e-14 -5.38276e-14 3.28499e-14 4.97611e-14 -5.50947e-14 -3.49192e-14 4.67954e-14 -8.35777e-15 8.76904e-15 -4.38479e-14 7.91485e-15 6.39828e-14 6.22594e-14 -5.85409e-14 4.28912e-15 -2.89204e-15 -2.18822e-14 -5.57108e-14 1.09464e-13 -3.32468e-14 -5.29132e-14 9.16576e-14 -6.12618e-14 2.14529e-14 5.6983e-14 -1.8672e-14 -6.56019e-14 -2.02802e-14 1.02731e-13 1.53266e-14 -9.63918e-14 -8.37029e-14 6.12565e-14 5.07393e-15 -7.21058e-14 -3.30928e-15 -4.12549e-14 5.89988e-15 2.9132e-14 -3.5759e-14 -4.1595e-14 -6.22767e-14 7.31685e-14 -3.02403e-14 -3.17032e-14 -8.88982e-15 7.7586e-14 -5.84756e-14 2.24749e-15 1.87762e-14 -1.37573e-14 3.38096e-14 -3.61908e-14 0 0 -2.9094e-16 -1.38989e-15 -1.38382e-15 -2.78452e-15 2.57354e-15 -9.0063e-16 -3.06801e-17 -5.11127e-15 1.85542e-15 2.3939e-15 5.86731e-17 -8.56551e-17 2.67205e-15 -5.01288e-15 2.67184e-16 5.65845e-15 -6.12211e-15 3.11995e-15 -3.33859e-15 2.46589e-15 -4.4279e-15 5.25272e-15 -1.62085e-15 2.02207e-15 1.53347e-14 -2.3061e-14 7.96983e-15 -2.40825e-15 7.79002e-15 -8.5593e-15 -8.4093e-15 9.90589e-15 9.79994e-15 -6.53075e-15 1.30626e-14 -1.53888e-14 9.05379e-16 -1.77842e-14 2.1709e-14 2.77754e-15 -4.54741e-15 -3.49578e-15 -2.13789e-15 2.14973e-14 -1.19519e-14 -9.01421e-15 1.93101e-14 -3.61078e-15 7.71055e-15 2.46949e-14 -3.18209e-14 -2.23047e-15 -2.92404e-14 4.43514e-14 -3.7778e-14 2.10217e-15 4.43574e-14 -4.95779e-14 1.76695e-14 3.78865e-15 -5.51257e-15 3.01738e-14 -2.28289e-14 3.5206e-14 1.86908e-14 -6.11055e-15 -1.23975e-14 2.4355e-14 3.66873e-15 9.54593e-15 -4.20971e-14 -9.15598e-15 6.80049e-14 -3.02863e-14 4.06326e-14 -3.0986e-14 4.60981e-14 1.88674e-13 3.28557e-12 6.02976e-11 9.56316e-10 1.33992e-08 1.64206e-07 1.74169e-06 1.57832e-05 0.000120218 0.000753619 0.00378586 0.0147964 0.0440763 0.100906 0.185736 0.292937 0.418545 0.562072 0.723406 0.891838 0.991775 0.947205 0.932606 0.930949 0.9286 0.925443 0.921795 0.917225 0.915384 0.913741 0.913741 0.893172 0.897857 0.827267 0.812075 0.696835 0.612558 0.473557 0.339653 0.20939 0.107861 0.0449421 0.0155532 0.00476355 0.00135609 0.000366742 9.48873e-05 2.3526e-05 5.59021e-06 1.27289e-06 2.77731e-07 5.80736e-08 1.16401e-08 2.23718e-09 4.12405e-10 7.30228e-11 1.23889e-11 2.09148e-12 3.20966e-13 5.7158e-14 -9.3609e-15 -7.4524e-14 4.17198e-14 7.35448e-14 6.00815e-14 -2.2664e-14 -6.21237e-14 -7.63154e-14 -1.52946e-14 7.56713e-14 -1.44522e-14 5.96656e-14 -2.37863e-14 -7.58088e-14 1.89382e-14 1.00087e-13 -7.55334e-14 6.7326e-14 -4.56661e-14 -4.14607e-14 6.59461e-14 8.96217e-14 -9.96493e-14 5.56508e-14 -2.997e-14 5.9817e-14 -1.46259e-13 -1.25585e-14 1.68502e-14 3.65802e-15 6.9154e-14 -7.10078e-14 -1.03504e-14 4.04669e-14 8.63579e-15 -8.23613e-14 -1.72509e-14 7.90502e-16 2.05457e-14 -1.07937e-14 -6.56029e-14 -1.2304e-14 7.38841e-14 -6.768e-14 4.67783e-14 -8.16121e-14 1.17687e-14 3.07255e-14 -4.77926e-14 -9.17968e-15 -6.91608e-14 -2.05423e-15 -1.70052e-14 -2.99425e-14 -4.35204e-14 1.03695e-13 -4.78036e-14 -3.88334e-15 5.30223e-14 -4.09135e-14 3.73235e-14 -6.86634e-14 0 0 3.99191e-17 -1.93546e-15 -1.61269e-16 -2.1899e-15 1.69943e-16 5.28615e-16 -2.51049e-15 -4.35792e-15 -8.73741e-16 1.91016e-15 2.01514e-15 2.8888e-15 -2.85111e-15 -2.24221e-15 2.49005e-15 -1.32767e-15 9.95806e-16 1.74608e-15 -3.20215e-15 4.56555e-16 1.2494e-15 -3.93865e-15 5.30317e-15 -1.01931e-15 8.287e-15 -4.29691e-15 -1.74226e-15 -8.02006e-15 1.73772e-14 -6.33592e-15 -2.32973e-14 1.4827e-14 7.24814e-15 -2.21196e-15 6.50945e-15 3.15521e-15 -1.21173e-14 -3.82792e-15 1.26814e-14 7.75324e-15 -1.82745e-14 2.28714e-15 1.8026e-14 4.35058e-14 -6.78657e-15 -2.21682e-14 -1.4549e-14 -8.03944e-15 -7.61257e-15 1.52426e-14 3.17731e-14 -2.87601e-14 -3.33368e-14 3.06211e-14 -1.55984e-14 4.80366e-15 1.00162e-14 -1.30713e-14 -1.39298e-14 1.26447e-14 1.21095e-14 1.45626e-14 7.34446e-15 6.70521e-15 2.92852e-14 -1.43141e-14 -1.58601e-14 3.67078e-14 6.64111e-15 -4.29614e-14 2.22971e-14 -2.40631e-14 3.97964e-14 7.8086e-15 2.84065e-14 1.15742e-14 1.13107e-14 2.31525e-13 3.39456e-12 6.01953e-11 9.56271e-10 1.33992e-08 1.64206e-07 1.74169e-06 1.57832e-05 0.000120218 0.000753619 0.00378586 0.0147964 0.0440763 0.100906 0.185736 0.292937 0.418545 0.562072 0.723406 0.891838 0.991775 0.947205 0.932606 0.930949 0.9286 0.925443 0.921795 0.917225 0.915384 0.913741 0.913741 0.893172 0.897857 0.827267 0.812075 0.696835 0.612558 0.473557 0.339653 0.20939 0.107861 0.0449421 0.0155532 0.00476355 0.00135609 0.000366742 9.48873e-05 2.3526e-05 5.59021e-06 1.27289e-06 2.77731e-07 5.80735e-08 1.16402e-08 2.23713e-09 4.12455e-10 7.30018e-11 1.23736e-11 2.0512e-12 3.61734e-13 9.79108e-14 -2.06421e-14 -1.42752e-13 8.05084e-14 1.33822e-13 1.05927e-13 -1.13661e-13 -3.08363e-14 -3.28154e-14 -9.21756e-14 6.98368e-14 -2.28892e-14 -1.2008e-14 2.53379e-14 -8.7524e-14 1.15146e-13 3.17047e-14 9.73685e-15 2.18136e-15 1.10214e-15 -7.54585e-14 -4.9754e-14 5.09672e-14 9.18548e-14 5.22115e-14 -1.16198e-13 9.26305e-14 -1.07074e-13 -9.42977e-14 2.95084e-14 2.26889e-13 -1.56867e-13 -1.90147e-14 3.12233e-14 -6.43709e-14 -4.22473e-14 -1.20988e-14 -9.90778e-15 8.07493e-15 -6.09964e-14 1.58686e-14 5.86812e-14 -1.14334e-13 -5.87921e-14 3.02783e-14 6.15337e-14 -6.18924e-14 7.66923e-14 -1.10825e-13 -3.54424e-14 1.45442e-13 -1.10778e-13 -1.16217e-13 4.2386e-14 -2.51099e-14 3.63692e-14 -4.2903e-14 2.86921e-14 -3.46065e-14 1.28151e-13 -5.4984e-14 -2.59729e-14 2.48304e-14 0 0 -3.78759e-16 -1.28927e-15 -7.55414e-16 -8.90135e-16 -8.76294e-16 1.42716e-15 -1.18937e-15 -3.16395e-15 -5.13187e-15 -2.88317e-15 3.68012e-15 7.62046e-16 5.75682e-15 2.03568e-15 -3.90094e-15 4.25738e-16 -3.69945e-15 1.12587e-15 1.53596e-15 8.85395e-16 -8.39034e-15 1.27235e-14 -7.74246e-15 -4.63363e-15 -4.32039e-15 1.55228e-14 -1.41264e-15 -7.64682e-15 8.97827e-15 1.9004e-15 -2.10405e-14 2.17934e-14 -1.20288e-14 9.33168e-15 -1.02968e-15 6.30906e-15 2.06262e-15 -2.45441e-14 2.97215e-14 5.78616e-15 -1.09021e-14 -8.99752e-15 2.79631e-14 2.23123e-14 -5.21415e-15 -7.19486e-15 -2.70957e-14 -1.42275e-14 3.10627e-15 3.76471e-15 4.6858e-14 -2.5302e-14 -3.32496e-14 8.86849e-16 2.05313e-15 7.5255e-15 6.51546e-15 -1.91457e-14 -3.42121e-16 -8.00273e-15 2.32895e-14 1.14345e-14 5.25929e-15 2.32935e-15 2.61663e-14 9.84226e-15 1.16394e-14 8.31618e-15 -3.25074e-14 -4.974e-14 6.91225e-14 -3.74934e-15 -6.43471e-15 7.52631e-14 4.64133e-15 8.96281e-14 4.7343e-14 2.60065e-13 3.32903e-12 6.0144e-11 9.5639e-10 1.33991e-08 1.64206e-07 1.74169e-06 1.57832e-05 0.000120218 0.000753619 0.00378586 0.0147964 0.0440763 0.100906 0.185736 0.292937 0.418545 0.562072 0.723406 0.891838 0.991775 0.947205 0.932606 0.930949 0.9286 0.925443 0.921795 0.917225 0.915384 0.913741 0.913741 0.893172 0.897857 0.827267 0.812075 0.696835 0.612558 0.473557 0.339653 0.20939 0.107861 0.0449421 0.0155532 0.00476355 0.00135609 0.000366742 9.48873e-05 2.3526e-05 5.59021e-06 1.27289e-06 2.77731e-07 5.80735e-08 1.16402e-08 2.2371e-09 4.12494e-10 7.29536e-11 1.23673e-11 2.17716e-12 1.67175e-13 3.91533e-14 4.31664e-14 -7.99297e-14 -4.13611e-14 2.06157e-13 5.11034e-14 -7.50809e-15 2.36643e-15 -7.69239e-14 3.36409e-14 3.39624e-14 -1.10997e-13 4.30563e-14 5.52464e-14 3.21206e-14 3.05659e-14 -1.27883e-13 5.84975e-14 -4.52382e-14 -2.01111e-14 2.10894e-14 -9.0327e-14 3.33805e-14 1.50026e-13 1.10489e-13 -1.95528e-13 -2.98762e-14 -3.76735e-14 -7.7143e-16 7.8645e-15 2.43021e-13 -4.40915e-15 -1.7448e-13 4.89288e-14 -4.49056e-14 -1.92029e-13 6.90888e-14 3.77107e-14 1.48951e-13 -2.10606e-13 -6.13581e-14 1.04363e-13 -4.93991e-14 -5.84708e-14 -4.44992e-14 -5.30294e-15 -3.59999e-14 2.70022e-14 -1.35867e-13 6.57863e-14 7.14213e-14 -1.56244e-14 -1.00452e-13 -1.94052e-14 2.17383e-14 5.3384e-14 -7.96381e-14 1.68039e-14 -4.7322e-14 9.04539e-14 -9.22009e-16 1.07444e-15 4.32993e-14 0 0 -1.20194e-16 -1.37229e-15 2.56185e-17 6.62859e-16 2.08905e-15 1.33633e-15 -2.45196e-15 -4.44843e-15 -5.28648e-15 -4.19268e-15 -5.93844e-15 1.21064e-14 6.67199e-15 4.46023e-15 -1.14902e-14 1.16523e-14 -7.68101e-15 -4.20169e-15 2.23872e-15 4.02638e-15 -1.17036e-14 9.92193e-15 -5.0943e-15 -8.25973e-15 4.1606e-15 7.83261e-15 -6.73523e-15 2.08145e-15 1.90329e-16 1.52181e-15 3.55688e-15 -3.2954e-15 -8.57208e-15 1.91052e-14 -5.69987e-15 4.31436e-15 -4.86313e-15 -2.20395e-14 4.37252e-14 -7.74191e-16 8.75068e-15 -2.56655e-14 4.30219e-14 -7.61446e-14 2.78795e-14 2.28859e-14 -3.39701e-14 9.44853e-15 3.4447e-14 2.13553e-14 -1.45476e-14 -3.5833e-14 3.30914e-15 -2.75495e-14 1.81083e-14 -1.03535e-14 2.88909e-14 -5.01869e-14 1.49702e-14 -2.29445e-15 1.15763e-14 3.1287e-14 -2.22794e-14 1.82939e-14 3.056e-14 2.22945e-14 3.86435e-14 -2.17337e-14 -2.79136e-14 -3.80841e-14 7.5664e-14 -8.35151e-14 5.64722e-14 5.83068e-14 7.91803e-14 5.77406e-14 1.40068e-13 2.53894e-13 3.10497e-12 6.02905e-11 9.5647e-10 1.3399e-08 1.64206e-07 1.74169e-06 1.57832e-05 0.000120218 0.000753619 0.00378586 0.0147964 0.0440763 0.100906 0.185736 0.292937 0.418545 0.562072 0.723406 0.891838 0.991775 0.947205 0.932606 0.930949 0.9286 0.925443 0.921795 0.917225 0.915384 0.913741 0.913741 0.893172 0.897857 0.827267 0.812075 0.696835 0.612558 0.473557 0.339653 0.20939 0.107861 0.0449421 0.0155532 0.00476355 0.00135609 0.000366742 9.48873e-05 2.3526e-05 5.59021e-06 1.27289e-06 2.77731e-07 5.80736e-08 1.164e-08 2.23714e-09 4.12521e-10 7.28751e-11 1.24076e-11 2.29622e-12 1.46935e-14 4.22755e-14 -8.70992e-14 9.62987e-14 -1.67765e-13 2.50407e-13 5.89035e-14 2.46104e-14 8.31556e-14 -1.73612e-13 5.77034e-14 1.40455e-13 -1.60382e-13 1.19709e-13 -8.08144e-15 9.93919e-14 3.69607e-14 -2.87482e-13 1.30994e-14 4.13134e-14 -7.01872e-14 4.67391e-14 -1.12403e-14 -1.6916e-14 8.12264e-14 1.94724e-13 -2.09915e-13 -1.50224e-13 5.58934e-14 -3.98152e-14 3.76712e-14 1.69036e-13 1.84555e-13 -1.89556e-13 -6.91761e-14 4.04038e-14 -2.42129e-13 5.2014e-14 1.23321e-13 1.24049e-13 -3.09809e-13 -3.0208e-14 8.06552e-14 6.80489e-14 5.68645e-14 -2.14435e-13 -1.89604e-14 -1.03944e-13 5.84516e-15 -7.21406e-14 1.23396e-13 -4.72237e-14 1.10237e-13 -5.60233e-14 -1.6259e-13 6.4612e-14 4.08737e-14 -8.58495e-14 5.03924e-14 -7.32514e-14 -1.69435e-14 1.23981e-13 -3.84173e-14 6.15636e-14 0
				</DataArray>
				<DataArray Name="VitesseY" type="Float32" format="ascii">