<?xml version="1.0"?>
<VTKFile type="PolyData">
	<PolyData>
		<Piece NumberOfPoints="1206" NumberOfPolys="1000">
			<Points>
				<DataArray type="Float32" NumberOfComponents="3" format="ascii">
 0 0 0 0.005 0 0 0.01 0 0 0.015 0 0 0.02 0 0 0.025 0 0 0.03 0 0 0.035 0 0 0.04 0 0 0.045 0 0 0.05 0 0 0.055 0 0 0.06 0 0 0.065 0 0 0.07 0 0 0.075 0 0 0.08 0 0 0.085 0 0 0.09 0 0 0.095 0 0 0.1 0 0 0.105 0 0 0.11 0 0 0.115 0 0 0.12 0 0 0.125 0 0 0.13 0 0 0.135 0 0 0.14 0 0 0.145 0 0 0.15 0 0 0.155 0 0 0.16 0 0 0.165 0 0 0.17 0 0 0.175 0 0 0.18 0 0 0.185 0 0 0.19 0 0 0.195 0 0 0.2 0 0 0.205 0 0 0.21 0 0 0.215 0 0 0.22 0 0 0.225 0 0 0.23 0 0 0.235 0 0 0.24 0 0 0.245 0 0 0.25 0 0 0.255 0 0 0.26 0 0 0.265 0 0 0.27 0 0 0.275 0 0 0.28 0 0 0.285 0 0 0.29 0 0 0.295 0 0 0.3 0 0 0.305 0 0 0.31 0 0 0.315 0 0 0.32 0 0 0.325 0 0 0.33 0 0 0.335 0 0 0.34 0 0 0.345 0 0 0.35 0 0 0.355 0 0 0.36 0 0 0.365 0 0 0.37 0 0 0.375 0 0 0.38 0 0 0.385 0 0 0.39 0 0 0.395 0 0 0.4 0 0 0.405 0 0 0.41 0 0 0.415 0 0 0.42 0 0 0.425 0 0 0.43 0 0 0.435 0 0 0.44 0 0 0.445 0 0 0.45 0 0 0.455 0 0 0.46 0 0 0.465 0 0 0.47 0 0 0.475 0 0 0.480005 0 0 0.485059 0 0 0.490463 0 0 0.497282 0 0 0.508358 0 0 0.511049 0 0 0.513999 0 0 0.517338 0 0 0.52115 0 0 0.525441 0 0 0.530121 0 0 0.535023 0 0 0.540004 0 0 0.545 0 0 0.55 0 0 0.555 0 0 0.56 0 0 0.565 0 0 0.57 0 0 0.575 0 0 0.58 0 0 0.585 0 0 0.59 0 0 0.595 0 0 0.6 0 0 0.605 0 0 0.61 0 0 0.615 0 0 0.62 0 0 0.625 0 0 0.63 0 0 0.635 0 0 0.64 0 0 0.645 0 0 0.65 0 0 0.655 0 0 0.66 0 0 0.665 0 0 0.67 0 0 0.675 0 0 0.68 0 0 0.685 0 0 0.69 0 0 0.695 0 0 0.7 0 0 0.705 0 0 0.71 0 0 0.715 0 0 0.72 0 0 0.725 0 0 0.73 0 0 0.735 0 0 0.74 0 0 0.745 0 0 0.75 0 0 0.755 0 0 0.76 0 0 0.765 0 0 0.77 0 0 0.775 0 0 0.78 0 0 0.785 0 0 0.79 0 0 0.795 0 0 0.8 0 0 0.805 0 0 0.81 0 0 0.815 0 0 0.82 0 0 0.825 0 0 0.83 0 0 0.835 0 0 0.84 0 0 0.845 0 0 0.85 0 0 0.855 0 0 0.86 0 0 0.865 0 0 0.87 0 0 0.875 0 0 0.88 0 0 0.885 0 0 0.89 0 0 0.895 0 0 0.9 0 0 0.905 0 0 0.91 0 0 0.915 0 0 0.92 0 0 0.925 0 0 0.93 0 0 0.935 0 0 0.94 0 0 0.945 0 0 0.95 0 0 0.955 0 0 0.96 0 0 0.965 0 0 0.97 0 0 0.975 0 0 0.98 0 0 0.985 0 0 0.99 0 0 0.995 0 0 1 0 0 0 0.02 0 0.005 0.02 0 0.01 0.02 0 0.015 0.02 0 0.02 0.02 0 0.025 0.02 0 0.03 0.02 0 0.035 0.02 0 0.04 0.02 0 0.045 0.02 0 0.05 0.02 0 0.055 0.02 0 0.06 0.02 0 0.065 0.02 0 0.07 0.02 0 0.075 0.02 0 0.08 0.02 0 0.085 0.02 0 0.09 0.02 0 0.095 0.02 0 0.1 0.02 0 0.105 0.02 0 0.11 0.02 0 0.115 0.02 0 0.12 0.02 0 0.125 0.02 0 0.13 0.02 0 0.135 0.02 0 0.14 0.02 0 0.145 0.02 0 0.15 0.02 0 0.155 0.02 0 0.16 0.02 0 0.165 0.02 0 0.17 0.02 0 0.175 0.02 0 0.18 0.02 0 0.185 0.02 0 0.19 0.02 0 0.195 0.02 0 0.2 0.02 0 0.205 0.02 0 0.21 0.02 0 0.215 0.02 0 0.22 0.02 0 0.225 0.02 0 0.23 0.02 0 0.235 0.02 0 0.24 0.02 0 0.245 0.02 0 0.25 0.02 0 0.255 0.02 0 0.26 0.02 0 0.265 0.02 0 0.27 0.02 0 0.275 0.02 0 0.28 0.02 0 0.285 0.02 0 0.29 0.02 0 0.295 0.02 0 0.3 0.02 0 0.305 0.02 0 0.31 0.02 0 0.315 0.02 0 0.32 0.02 0 0.325 0.02 0 0.33 0.02 0 0.335 0.02 0 0.34 0.02 0 0.345 0.02 0 0.35 0.02 0 0.355 0.02 0 0.36 0.02 0 0.365 0.02 0 0.37 0.02 0 0.375 0.02 0 0.38 0.02 0 0.385 0.02 0 0.39 0.02 0 0.395 0.02 0 0.4 0.02 0 0.405 0.02 0 0.41 0.02 0 0.415 0.02 0 0.42 0.02 0 0.425 0.02 0 0.43 0.02 0 0.435 0.02 0 0.44 0.02 0 0.445 0.02 0 0.45 0.02 0 0.455 0.02 0 0.46 0.02 0 0.465 0.02 0 0.47 0.02 0 0.475 0.02 0 0.480005 0.02 0 0.485059 0.02 0 0.490463 0.02 0 0.497282 0.02 0 0.508358 0.02 0 0.511049 0.02 0 0.513999 0.02 0 0.517338 0.02 0 0.52115 0.02 0 0.525441 0.02 0 0.530121 0.02 0 0.535023 0.02 0 0.540004 0.02 0 0.545 0.02 0 0.55 0.02 0 0.555 0.02 0 0.56 0.02 0 0.565 0.02 0 0.57 0.02 0 0.575 0.02 0 0.58 0.02 0 0.585 0.02 0 0.59 0.02 0 0.595 0.02 0 0.6 0.02 0 0.605 0.02 0 0.61 0.02 0 0.615 0.02 0 0.62 0.02 0 0.625 0.02 0 0.63 0.02 0 0.635 0.02 0 0.64 0.02 0 0.645 0.02 0 0.65 0.02 0 0.655 0.02 0 0.66 0.02 0 0.665 0.02 0 0.67 0.02 0 0.675 0.02 0 0.68 0.02 0 0.685 0.02 0 0.69 0.02 0 0.695 0.02 0 0.7 0.02 0 0.705 0.02 0 0.71 0.02 0 0.715 0.02 0 0.72 0.02 0 0.725 0.02 0 0.73 0.02 0 0.735 0.02 0 0.74 0.02 0 0.745 0.02 0 0.75 0.02 0 0.755 0.02 0 0.76 0.02 0 0.765 0.02 0 0.77 0.02 0 0.775 0.02 0 0.78 0.02 0 0.785 0.02 0 0.79 0.02 0 0.795 0.02 0 0.8 0.02 0 0.805 0.02 0 0.81 0.02 0 0.815 0.02 0 0.82 0.02 0 0.825 0.02 0 0.83 0.02 0 0.835 0.02 0 0.84 0.02 0 0.845 0.02 0 0.85 0.02 0 0.855 0.02 0 0.86 0.02 0 0.865 0.02 0 0.87 0.02 0 0.875 0.02 0 0.88 0.02 0 0.885 0.02 0 0.89 0.02 0 0.895 0.02 0 0.9 0.02 0 0.905 0.02 0 0.91 0.02 0 0.915 0.02 0 0.92 0.02 0 0.925 0.02 0 0.93 0.02 0 0.935 0.02 0 0.94 0.02 0 0.945 0.02 0 0.95 0.02 0 0.955 0.02 0 0.96 0.02 0 0.965 0.02 0 0.97 0.02 0 0.975 0.02 0 0.98 0.02 0 0.985 0.02 0 0.99 0.02 0 0.995 0.02 0 1 0.02 0 0 0.04 0 0.005 0.04 0 0.01 0.04 0 0.015 0.04 0 0.02 0.04 0 0.025 0.04 0 0.03 0.04 0 0.035 0.04 0 0.04 0.04 0 0.045 0.04 0 0.05 0.04 0 0.055 0.04 0 0.06 0.04 0 0.065 0.04 0 0.07 0.04 0 0.075 0.04 0 0.08 0.04 0 0.085 0.04 0 0.09 0.04 0 0.095 0.04 0 0.1 0.04 0 0.105 0.04 0 0.11 0.04 0 0.115 0.04 0 0.12 0.04 0 0.125 0.04 0 0.13 0.04 0 0.135 0.04 0 0.14 0.04 0 0.145 0.04 0 0.15 0.04 0 0.155 0.04 0 0.16 0.04 0 0.165 0.04 0 0.17 0.04 0 0.175 0.04 0 0.18 0.04 0 0.185 0.04 0 0.19 0.04 0 0.195 0.04 0 0.2 0.04 0 0.205 0.04 0 0.21 0.04 0 0.215 0.04 0 0.22 0.04 0 0.225 0.04 0 0.23 0.04 0 0.235 0.04 0 0.24 0.04 0 0.245 0.04 0 0.25 0.04 0 0.255 0.04 0 0.26 0.04 0 0.265 0.04 0 0.27 0.04 0 0.275 0.04 0 0.28 0.04 0 0.285 0.04 0 0.29 0.04 0 0.295 0.04 0 0.3 0.04 0 0.305 0.04 0 0.31 0.04 0 0.315 0.04 0 0.32 0.04 0 0.325 0.04 0 0.33 0.04 0 0.335 0.04 0 0.34 0.04 0 0.345 0.04 0 0.35 0.04 0 0.355 0.04 0 0.36 0.04 0 0.365 0.04 0 0.37 0.04 0 0.375 0.04 0 0.38 0.04 0 0.385 0.04 0 0.39 0.04 0 0.395 0.04 0 0.4 0.04 0 0.405 0.04 0 0.41 0.04 0 0.415 0.04 0 0.42 0.04 0 0.425 0.04 0 0.43 0.04 0 0.435 0.04 0 0.44 0.04 0 0.445 0.04 0 0.45 0.04 0 0.455 0.04 0 0.46 0.04 0 0.465 0.04 0 0.47 0.04 0 0.475 0.04 0 0.480005 0.04 0 0.485059 0.04 0 0.490463 0.04 0 0.497282 0.04 0 0.508358 0.04 0 0.511049 0.04 0 0.513999 0.04 0 0.517338 0.04 0 0.52115 0.04 0 0.525441 0.04 0 0.530121 0.04 0 0.535023 0.04 0 0.540004 0.04 0 0.545 0.04 0 0.55 0.04 0 0.555 0.04 0 0.56 0.04 0 0.565 0.04 0 0.57 0.04 0 0.575 0.04 0 0.58 0.04 0 0.585 0.04 0 0.59 0.04 0 0.595 0.04 0 0.6 0.04 0 0.605 0.04 0 0.61 0.04 0 0.615 0.04 0 0.62 0.04 0 0.625 0.04 0 0.63 0.04 0 0.635 0.04 0 0.64 0.04 0 0.645 0.04 0 0.65 0.04 0 0.655 0.04 0 0.66 0.04 0 0.665 0.04 0 0.67 0.04 0 0.675 0.04 0 0.68 0.04 0 0.685 0.04 0 0.69 0.04 0 0.695 0.04 0 0.7 0.04 0 0.705 0.04 0 0.71 0.04 0 0.715 0.04 0 0.72 0.04 0 0.725 0.04 0 0.73 0.04 0 0.735 0.04 0 0.74 0.04 0 0.745 0.04 0 0.75 0.04 0 0.755 0.04 0 0.76 0.04 0 0.765 0.04 0 0.77 0.04 0 0.775 0.04 0 0.78 0.04 0 0.785 0.04 0 0.79 0.04 0 0.795 0.04 0 0.8 0.04 0 0.805 0.04 0 0.81 0.04 0 0.815 0.04 0 0.82 0.04 0 0.825 0.04 0 0.83 0.04 0 0.835 0.04 0 0.84 0.04 0 0.845 0.04 0 0.85 0.04 0 0.855 0.04 0 0.86 0.04 0 0.865 0.04 0 0.87 0.04 0 0.875 0.04 0 0.88 0.04 0 0.885 0.04 0 0.89 0.04 0 0.895 0.04 0 0.9 0.04 0 0.905 0.04 0 0.91 0.04 0 0.915 0.04 0 0.92 0.04 0 0.925 0.04 0 0.93 0.04 0 0.935 0.04 0 0.94 0.04 0 0.945 0.04 0 0.95 0.04 0 0.955 0.04 0 0.96 0.04 0 0.965 0.04 0 0.97 0.04 0 0.975 0.04 0 0.98 0.04 0 0.985 0.04 0 0.99 0.04 0 0.995 0.04 0 1 0.04 0 0 0.06 0 0.005 0.06 0 0.01 0.06 0 0.015 0.06 0 0.02 0.06 0 0.025 0.06 0 0.03 0.06 0 0.035 0.06 0 0.04 0.06 0 0.045 0.06 0 0.05 0.06 0 0.055 0.06 0 0.06 0.06 0 0.065 0.06 0 0.07 0.06 0 0.075 0.06 0 0.08 0.06 0 0.085 0.06 0 0.09 0.06 0 0.095 0.06 0 0.1 0.06 0 0.105 0.06 0 0.11 0.06 0 0.115 0.06 0 0.12 0.06 0 0.125 0.06 0 0.13 0.06 0 0.135 0.06 0 0.14 0.06 0 0.145 0.06 0 0.15 0.06 0 0.155 0.06 0 0.16 0.06 0 0.165 0.06 0 0.17 0.06 0 0.175 0.06 0 0.18 0.06 0 0.185 0.06 0 0.19 0.06 0 0.195 0.06 0 0.2 0.06 0 0.205 0.06 0 0.21 0.06 0 0.215 0.06 0 0.22 0.06 0 0.225 0.06 0 0.23 0.06 0 0.235 0.06 0 0.24 0.06 0 0.245 0.06 0 0.25 0.06 0 0.255 0.06 0 0.26 0.06 0 0.265 0.06 0 0.27 0.06 0 0.275 0.06 0 0.28 0.06 0 0.285 0.06 0 0.29 0.06 0 0.295 0.06 0 0.3 0.06 0 0.305 0.06 0 0.31 0.06 0 0.315 0.06 0 0.32 0.06 0 0.325 0.06 0 0.33 0.06 0 0.335 0.06 0 0.34 0.06 0 0.345 0.06 0 0.35 0.06 0 0.355 0.06 0 0.36 0.06 0 0.365 0.06 0 0.37 0.06 0 0.375 0.06 0 0.38 0.06 0 0.385 0.06 0 0.39 0.06 0 0.395 0.06 0 0.4 0.06 0 0.405 0.06 0 0.41 0.06 0 0.415 0.06 0 0.42 0.06 0 0.425 0.06 0 0.43 0.06 0 0.435 0.06 0 0.44 0.06 0 0.445 0.06 0 0.45 0.06 0 0.455 0.06 0 0.46 0.06 0 0.465 0.06 0 0.47 0.06 0 0.475 0.06 0 0.480005 0.06 0 0.485059 0.06 0 0.490463 0.06 0 0.497282 0.06 0 0.508358 0.06 0 0.511049 0.06 0 0.513999 0.06 0 0.517338 0.06 0 0.52115 0.06 0 0.525441 0.06 0 0.530121 0.06 0 0.535023 0.06 0 0.540004 0.06 0 0.545 0.06 0 0.55 0.06 0 0.555 0.06 0 0.56 0.06 0 0.565 0.06 0 0.57 0.06 0 0.575 0.06 0 0.58 0.06 0 0.585 0.06 0 0.59 0.06 0 0.595 0.06 0 0.6 0.06 0 0.605 0.06 0 0.61 0.06 0 0.615 0.06 0 0.62 0.06 0 0.625 0.06 0 0.63 0.06 0 0.635 0.06 0 0.64 0.06 0 0.645 0.06 0 0.65 0.06 0 0.655 0.06 0 0.66 0.06 0 0.665 0.06 0 0.67 0.06 0 0.675 0.06 0 0.68 0.06 0 0.685 0.06 0 0.69 0.06 0 0.695 0.06 0 0.7 0.06 0 0.705 0.06 0 0.71 0.06 0 0.715 0.06 0 0.72 0.06 0 0.725 0.06 0 0.73 0.06 0 0.735 0.06 0 0.74 0.06 0 0.745 0.06 0 0.75 0.06 0 0.755 0.06 0 0.76 0.06 0 0.765 0.06 0 0.77 0.06 0 0.775 0.06 0 0.78 0.06 0 0.785 0.06 0 0.79 0.06 0 0.795 0.06 0 0.8 0.06 0 0.805 0.06 0 0.81 0.06 0 0.815 0.06 0 0.82 0.06 0 0.825 0.06 0 0.83 0.06 0 0.835 0.06 0 0.84 0.06 0 0.845 0.06 0 0.85 0.06 0 0.855 0.06 0 0.86 0.06 0 0.865 0.06 0 0.87 0.06 0 0.875 0.06 0 0.88 0.06 0 0.885 0.06 0 0.89 0.06 0 0.895 0.06 0 0.9 0.06 0 0.905 0.06 0 0.91 0.06 0 0.915 0.06 0 0.92 0.06 0 0.925 0.06 0 0.93 0.06 0 0.935 0.06 0 0.94 0.06 0 0.945 0.06 0 0.95 0.06 0 0.955 0.06 0 0.96 0.06 0 0.965 0.06 0 0.97 0.06 0 0.975 0.06 0 0.98 0.06 0 0.985 0.06 0 0.99 0.06 0 0.995 0.06 0 1 0.06 0 0 0.08 0 0.005 0.08 0 0.01 0.08 0 0.015 0.08 0 0.02 0.08 0 0.025 0.08 0 0.03 0.08 0 0.035 0.08 0 0.04 0.08 0 0.045 0.08 0 0.05 0.08 0 0.055 0.08 0 0.06 0.08 0 0.065 0.08 0 0.07 0.08 0 0.075 0.08 0 0.08 0.08 0 0.085 0.08 0 0.09 0.08 0 0.
[...]
			<PointData Scalars="VitesseX">
				<DataArray Name="VitesseX" type="Float32" format="ascii">
 0 -3.43845e-16 -9.73777e-16 8.39196e-16 1.34581e-16 -8.66751e-16 1.81469e-15 -3.1312e-15 3.62514e-16 3.33903e-15 -1.17983e-15 -1.59491e-15 3.23123e-15 -9.43233e-16 -3.33961e-15 2.17755e-15 1.16206e-15 -3.33961e-15 3.33961e-15 -9.80289e-16 -1.86551e-15 1.91484e-15 -3.74336e-15 2.34614e-16 6.2717e-15 1.63736e-17 -4.18233e-15 -2.24708e-15 -1.6706e-15 1.29027e-15 2.85078e-15 3.94259e-15 2.29138e-16 -4.3951e-15 -2.62742e-15 -1.13711e-15 1.05755e-15 2.70698e-15 1.21933e-15 -1.21933e-15 -2.62742e-15 -1.20031e-15 4.86438e-15 4.68289e-15 -5.2151e-15 -4.05805e-15 -3.58484e-15 3.58484e-15 4.16104e-15 5.6824e-15 0 -5.98931e-15 -2.75031e-15 2.11052e-15 6.79936e-15 -6.91437e-16 -1.46308e-14 -2.54198e-15 2.54198e-15 1.4249e-14 -4.46099e-15 -4.75363e-15 4.99978e-15 4.19999e-15 1.02413e-15 -5.47027e-15 -4.75363e-15 4.90685e-15 2.61891e-15 -2.24976e-14 2.54934e-15 7.07586e-15 4.14804e-15 4.60833e-15 -1.06108e-15 -3.67741e-15 1.02693e-14 1.68924e-15 -7.15684e-15 8.83214e-16 -7.66209e-15 -3.15278e-15 -2.28678e-14 -1.97354e-14 1.90934e-14 2.34161e-14 2.20787e-15 1.12777e-14 -1.38948e-15 6.66836e-15 8.09695e-13 6.4749e-11 4.08938e-09 1.99646e-07 7.27374e-06 0.000188255 0.00321685 0.0326433 0.178954 0.559088 1.07976 0.991149 0.843279 0.645697 0.423089 0.21795 0.0773017 0.0176524 0.00300024 0.000438823 5.79426e-05 6.98563e-06 7.72039e-07 7.84236e-08 7.33872e-09 6.33907e-10 5.06454e-11 3.74933e-12 2.81281e-13 2.01254e-14 -3.00558e-15 -1.87963e-14 -8.48935e-15 1.21217e-14 6.8305e-15 -1.08414e-14 -2.98003e-14 1.29448e-14 2.74032e-14 1.20979e-14 -1.16616e-14 -9.74463e-15 -7.26361e-15 -2.47392e-15 2.92813e-14 -3.92163e-14 1.0042e-14 3.52068e-15 6.38594e-15 -2.62988e-14 -1.79097e-14 -1.27977e-14 3.69286e-15 7.11056e-15 1.27854e-14 5.6575e-15 -1.14239e-14 -9.80553e-15 -4.32189e-15 1.48362e-14 1.05875e-15 2.87815e-14 -3.11768e-14 1.99512e-14 -2.26017e-14 5.09692e-14 -4.44154e-16 -2.14118e-14 1.82553e-14 -6.27935e-14 -1.18616e-14 3.84268e-15 1.1514e-15 5.20262e-15 -2.76065e-14 3.15109e-14 -2.14822e-14 2.62841e-14 5.4415e-15 -2.48138e-14 2.43652e-14 1.27456e-14 -2.03131e-14 -4.77529e-15 1.42673e-14 3.13536e-14 -1.98674e-15 -2.19198e-14 1.83819e-14 8.00775e-15 1.95841e-14 -6.8586e-15 -1.42295e-14 -6.24602e-15 7.0813e-15 2.01432e-14 -6.51905e-15 -1.49091e-15 -1.72627e-14 3.67184e-15 -2.7442e-15 -1.88813e-14 -4.51119e-15 4.44303e-14 -4.37111e-15 -4.46451e-15 4.90947e-15 -3.40537e-14 3.97927e-14 -6.00502e-15 0 0 1.34647e-16 -1.36771e-15 1.65282e-15 -5.91682e-16 -9.42146e-16 1.88907e-15 -1.67934e-15 -9.6302e-16 2.69588e-15 -8.88373e-18 -4.10963e-15 6.99085e-15 -5.02386e-15 3.9566e-16 1.51248e-15 -1.53789e-15 6.40213e-16 -6.40213e-16 1.62878e-15 -1.44606e-15 9.0346e-16 -4.03218e-15 -4.67108e-16 8.51109e-15 8.18679e-18 -6.43805e-15 -1.61639e-15 -1.65609e-15 4.16947e-15 -1.83005e-15 8.05814e-15 -3.27083e-15 -3.74995e-15 5.99746e-16 -5.56318e-15 6.86873e-15 -4.47024e-15 7.78866e-15 -6.41919e-15 1.98816e-15 -4.1163e-15 3.09891e-15 7.32705e-15 -2.60755e-15 -1.20727e-14 6.68293e-15 -6.66694e-15 1.20763e-14 2.8412e-15 -5.3166e-17 -2.90952e-15 -1.45655e-14 1.934e-14 -5.35708e-15 -7.65175e-16 -1.93772e-15 -2.44757e-14 2.44757e-14 1.71447e-15 -1.65554e-15 -3.31443e-15 -4.55127e-15 1.38689e-14 -3.20264e-15 -2.79242e-15 -3.3091e-15 -4.39243e-17 3.27796e-15 -3.16896e-14 2.24137e-15 2.89702e-14 -1.99129e-14 1.03621e-14 -9.68591e-15 -3.79925e-16 1.99944e-14 -6.79954e-15 2.52959e-15 -1.10257e-14 -1.701e-15 8.08559e-15 -5.70374e-14 -1.73861e-14 2.31905e-14 4.64414e-14 6.31698e-15 1.34148e-14 -7.34761e-15 1.48647e-14 7.99241e-13 6.4754e-11 4.08938e-09 1.99646e-07 7.27374e-06 0.000188255 0.00321685 0.0326433 0.178954 0.559088 1.07976 0.991149 0.843279 0.645697 0.423089 0.21795 0.0773017 0.0176524 0.00300024 0.000438823 5.79426e-05 6.98563e-06 7.72039e-07 7.84236e-08 7.33871e-09 6.33907e-10 5.06268e-11 3.78426e-12 2.38661e-13 5.90883e-14 -2.35301e-14 -9.49769e-15 -2.51351e-14 -9.1425e-15 5.02751e-14 -2.08961e-14 -2.19654e-14 -2.15414e-15 2.54082e-14 3.68122e-14 -3.22609e-14 -2.01053e-14 -6.80661e-15 8.97711e-15 2.83449e-14 -3.27199e-14 -1.18292e-15 -3.4868e-15 -1.08129e-14 -5.72524e-16 -7.0876e-15 -4.91501e-14 -6.42681e-15 2.92234e-14 3.92646e-15 1.71314e-14 -6.67756e-14 2.08886e-14 -3.83387e-14 4.59818e-14 2.95296e-15 2.1529e-14 -2.9263e-16 7.22707e-15 2.94668e-14 2.88345e-14 -1.13185e-14 -5.90216e-16 -2.1464e-14 -4.03553e-14 -7.72694e-14 -1.94342e-14 -1.90109e-15 8.06857e-14 -1.95536e-14 2.4515e-14 -6.59741e-14 5.38381e-14 1.5097e-14 -1.41554e-15 2.87447e-15 -5.1366e-15 2.27542e-14 -9.95385e-15 1.83296e-14 2.30475e-14 -2.78248e-14 3.33547e-14 -4.76748e-16 -1.10831e-14 4.77202e-14 -2.06085e-14 -2.86881e-14 1.31284e-14 -1.03274e-14 4.68556e-14 -6.77038e-15 1.68139e-14 -4.89873e-14 -3.63443e-15 1.94388e-14 -6.26456e-14 2.25233e-14 5.07588e-14 1.10029e-14 -9.84048e-15 -2.50891e-14 -3.18042e-15 2.8634e-14 7.95767e-15 0 0 3.22943e-16 -4.37981e-17 -1.42224e-15 3.25596e-15 -1.3208e-15 -3.84761e-16 -3.95885e-15 4.06732e-15 2.67013e-15 -4.35073e-15 1.95376e-15 -6.13799e-15 9.24904e-15 -9.3341e-15 4.24512e-15 6.02478e-15 -9.56555e-15 9.61096e-15 -6.07018e-15 -3.6696e-15 5.30334e-15 1.53394e-15 -1.10461e-15 -6.69607e-15 -1.43918e-16 8.38854e-15 2.77489e-15 -1.11426e-14 -3.31041e-15 1.01132e-14 -4.81461e-15 1.33938e-14 -6.82869e-15 -1.20566e-14 5.25091e-16 1.29352e-15 5.77748e-15 -2.74361e-15 5.32802e-15 -9.98756e-15 3.3186e-15 1.10736e-14 -1.01328e-14 -9.76072e-16 8.01398e-15 -2.12436e-14 1.97218e-14 -6.48741e-15 -4.68188e-17 -5.3166e-17 -1.84906e-15 2.57536e-15 -1.37606e-14 2.50591e-14 -5.74895e-16 -3.07673e-14 2.00047e-14 -2.00047e-14 1.94126e-14 1.35481e-14 -1.13146e-14 -1.8661e-14 5.90824e-16 1.7212e-14 1.2181e-14 -1.11818e-14 -2.57593e-15 -3.57492e-14 -2.71964e-14 4.73809e-14 -1.68104e-14 1.23588e-14 -2.86371e-14 2.12486e-14 -1.43733e-14 2.05374e-14 1.37121e-15 -1.59019e-14 3.00814e-14 -2.81402e-14 -8.87595e-15 -2.48207e-14 -4.67658e-14 2.9849e-14 5.25026e-14 -9.12677e-16 2.66797e-14 8.29922e-15 2.3915e-15 8.31265e-13 6.47333e-11 4.08938e-09 1.99646e-07 7.27374e-06 0.000188255 0.00321685 0.0326433 0.178954 0.559088 1.07976 0.991149 0.843279 0.645697 0.423089 0.21795 0.0773017 0.0176524 0.00300024 0.000438823 5.79426e-05 6.98563e-06 7.72039e-07 7.84236e-08 7.33862e-09 6.33991e-10 5.05562e-11 3.82204e-12 2.43547e-13 2.77591e-14 4.45968e-14 -9.01384e-14 -5.00852e-14 4.71975e-14 4.11608e-14 3.93622e-14 -1.09739e-13 -6.86903e-15 1.02516e-13 -1.50616e-14 1.33918e-14 -6.89532e-14 -4.77079e-14 1.07026e-13 -6.27612e-14 4.6691e-14 -5.52699e-14 -2.38314e-14 2.49162e-14 4.02767e-14 -2.87707e-14 -6.24564e-14 -5.31654e-14 -1.45695e-14 9.70391e-14 -4.11448e-15 -1.10044e-13 -4.06408e-14 3.50659e-15 8.16763e-14 -1.59757e-14 3.56108e-14 1.18265e-14 6.69965e-14 2.79091e-14 4.8967e-14 -8.94528e-14 3.8472e-15 -3.9435e-14 -5.70689e-14 -1.05741e-13 -6.43042e-14 9.76988e-14 8.51363e-14 6.4757e-14 -4.80655e-14 -6.2709e-14 5.41268e-14 4.48446e-14 -1.13379e-14 -1.43316e-14 -2.64015e-15 -1.08656e-15 1.97044e-14 3.96152e-14 -3.06353e-14 -3.56867e-15 2.54563e-14 3.86717e-14 -5.30245e-14 5.35823e-14 -6.88682e-14 -1.10834e-14 4.36457e-14 -1.55208e-14 7.05433e-14 1.27231e-14 -2.13745e-14 -2.64061e-14 -1.95843e-14 2.48316e-14 -5.86322e-14 1.81446e-14 8.63804e-14 -3.49693e-15 -3.31772e-14 -1.86714e-14 -2.13559e-14 7.41226e-14 4.84991e-14 0 0 -1.16272e-15 -1.58363e-16 -2.06321e-16 4.75462e-16 -1.99945e-17 2.1842e-15 -2.8126e-15 -1.63645e-16 1.32562e-15 -1.09024e-15 -5.33033e-16 -7.55686e-15 5.64975e-15 8.44944e-16 1.20123e-15 -9.08583e-16 -5.31953e-16 3.7015e-16 1.39261e-15 3.47825e-16 2.4538e-15 -6.85647e-15 1.90542e-15 4.12149e-15 8.47136e-16 -7.13919e-15 3.16738e-15 -6.5203e-15 6.98953e-15 -3.52878e-15 7.45322e-15 -2.80062e-16 -7.15616e-15 3.51178e-15 -7.13501e-15 -1.91366e-14 7.47683e-15 1.67102e-15 1.35541e-14 3.56969e-15 -7.03316e-15 6.95913e-15 3.29485e-15 -1.04091e-14 -1.7963e-14 -2.31524e-14 2.28519e-14 2.39586e-14 5.10956e-15 -8.39753e-17 -8.4218e-15 -4.27285e-14 3.00367e-14 1.72658e-14 -5.89537e-16 -2.18656e-14 -4.67119e-15 4.67119e-15 1.16161e-14 1.25562e-14 -1.20689e-14 -1.78853e-14 5.28824e-15 1.35935e-14 1.10807e-14 -1.18934e-14 1.94257e-15 -4.44068e-14 -3.07409e-14 4.95827e-14 -1.15859e-14 1.23262e-14 -2.18363e-14 -1.36775e-14 -1.73109e-15 4.60746e-14 -4.58354e-15 -2.17836e-14 1.4448e-14 -2.73239e-14 -1.82178e-14 -1.23445e-14 -1.39411e-15 4.70407e-14 -3.14872e-14 -5.07207e-15 7.07873e-14 2.52338e-15 1.42255e-14 8.02896e-13 6.4717e-11 4.08942e-09 1.99646e-07 7.27374e-06 0.000188255 0.00321685 0.0326433 0.178954 0.559088 1.07976 0.991149 0.843279 0.645697 0.423089 0.21795 0.0773017 0.0176524 0.00300024 0.000438823 5.79426e-05 6.98563e-06 7.72039e-07 7.84236e-08 7.3387e-09 6.33924e-10 5.05943e-11 3.79132e-12 2.40443e-13 6.71698e-14 -7.58555e-15 -7.44759e-14 -5.13555e-14 1.53743e-16 7.35013e-14 4.55796e-14 -5.39804e-14 -7.52799e-14 8.40773e-14 3.92491e-14 -3.04933e-15 -1.79205e-14 -1.4494e-13 9.9058e-14 1.11657e-14 3.08093e-14 -2.0342e-15 -9.51366e-14 4.15698e-14 1.05115e-13 -1.26489e-13 -3.44671e-14 -3.96073e-14 -1.26639e-13 1.36956e-13 4.35229e-14 -9.95599e-14 -2.49559e-14 -6.34868e-14 -1.07314e-14 7.63834e-14 8.09662e-14 7.56252e-14 4.25344e-14 4.17754e-14 -1.79256e-15 -8.95599e-14 -7.17908e-14 1.50059e-14 -6.03112e-14 -1.03256e-13 3.71689e-14 9.34761e-14 3.37165e-14 1.06521e-13 -6.7967e-14 -6.83703e-14 5.75616e-14 -3.02753e-14 -1.07078e-14 -5.28037e-14 -4.87128e-14 6.95546e-14 6.16843e-14 2.62228e-14 -7.64468e-14 5.03494e-14 -5.72911e-15 8.28822e-14 -1.7228e-13 9.44745e-14 -1.5538e-14 3.07777e-14 1.09672e-14 1.01999e-14 4.18882e-15 8.19721e-15 -1.9838e-15 -1.9196e-14 2.27247e-14 -4.77583e-15 -6.93988e-14 7.33138e-14 5.49735e-14 -4.22723e-14 -3.58934e-16 -8.07418e-14 5.90671e-14 6.82562e-14 2.46273e-14 0 0 -1.87382e-15 -1.4786e-15 1.67701e-15 -2.17712e-15 8.93786e-16 1.80354e-15 1.03251e-15 -3.8888e-15 -7.64783e-15 5.32844e-15 -6.59257e-15 4.54794e-15 -4.38982e-15 1.05757e-14 1.92475e-15 -5.75651e-15 9.79009e-15 -1.06807e-14 2.60168e-15 2.97816e-15 -1.46057e-15 -9.93971e-15 1.15345e-15 1.14088e-14 3.11417e-15 -8.18749e-15 -1.01329e-14 1.27706e-15 1.36359e-14 -2.74961e-15 4.39532e-15 -1.31417e-14 6.75948e-15 4.75286e-15 -1.08777e-14 -1.51622e-14 -5.0873e-15 1.57054e-14 1.30056e-14 2.39986e-15 -1.38679e-14 -3.25931e-15 1.61122e-14 -1.03027e-14 -3.9982e-14 3.45369e-15 9.78869e-15 3.19346e-14 7.48889e-15 -7.57885e-17 -4.74584e-15 -3.74949e-14 3.95366e-14 -1.45886e-14 -9.58765e-16 5.1379e-15 -2.81956e-14 2.81956e-14 -3.91621e-15 4.05523e-15 1.59761e-14 -2.17059e-14 4.72965e-15 -1.67666e-15 2.685e-15 1.60323e-14 -1.36944e-14 -1.82704e-14 -2.01517e-14 1.22194e-14 1.37347e-14 -1.01323e-14 2.25039e-14 -4.90601e-14 5.18555e-15 3.93025e-14 -6.49865e-15 -2.78274e-14 -3.14728e-14 1.85891e-14 -3.28159e-14 -8.47086e-15 4.67747e-14 2.84678e-14 -7.27595e-14 2.04027e-14 6.10694e-14 -2.58622e-14 3.42983e-15 7.98418e-13 6.47362e-11 4.08946e-09 1.99645e-07 7.27374e-06 0.000188255 0.00321685 0.0326433 0.178954 0.559088 1.07976 0.991149 0.843279 0.645697 0.423089 0.21795 0.0773017 0.0176524 0.00300024 0.000438823 5.79426e-05 6.98563e-06 7.72039e-07 7.84236e-08 7.33875e-09 6.3392e-10 5.06504e-11 3.77365e-12 1.99722e-13 8.16169e-14 -3.58642e-14 -1.90452e-14 -2.24079e-14 -8.92326e-14 1.04406e-13 2.76957e-14 1.36595e-14 -6.4282e-14 -9.28493e-15 7.03098e-14 -3.39671e-15 5.77056e-16 -1.37233e-13 3.28017e-14 8.92369e-14 1.09853e-14 1.21197e-14 -4.0296e-14 -2.89494e-14 5.15624e-14 -9.47751e-14 -5.02914e-14 -1.34537e-14 -1.24485e-13 8.29516e-14 5.21133e-14 -2.55415e-14 3.4457e-14 -1.29886e-13 -1.42015e-13 1.33124e-13 6.63904e-14 1.96103e-13 1.25991e-14 1.74255e-14 -9.94879e-14 -7.42577e-14 -6.17317e-14 5.92982e-14 3.0487e-14 -1.3248e-13 1.18777e-13 2.53745e-14 7.45785e-15 7.55237e-14 -6.78659e-14 -7.07835e-14 2.95345e-14 -1.26791e-13 1.15769e-13 -9.57784e-14 -1.78219e-14 1.02075e-13 -9.96234e-15 4.9763e-15 -2.14439e-14 6.20358e-14 -8.40971e-14 5.01963e-14 -8.40704e-14 9.03483e-14 9.72653e-14 5.41121e-15 -6.67205e-14 5.61725e-14 -8.77569e-14 4.8545e-14 -4.54509e-16 -5.63842e-14 7.47584e-14 -8.4877e-15 -8.24089e-14 8.33789e-14 3.54912e-14 4.13026e-15 -1.27547e-14 -1.40963e-13 9.53037e-14 3.09392e-14 3.40332e-14 0 0 -1.38944e-15 -9.66426e-16 -1.54427e-15 2.52471e-15 2.03497e-16 -3.4943e-15 0 2.97288e-15 -1.46594e-14 2.97383e-15 -1.5872e-15 1.18314e-15 7.52342e-15 -3.33763e-15 9.08985e-15 6.59156e-15 -3.10704e-15 1.74016e-15 -1.39601e-14 -1.05192e-15 2.88586e-15 1.2224e-15 -2.54432e-15 -9.56796e-15 4.24623e-15 2.33742e-14 -2.00651e-14 -5.04884e-15 -3.76832e-16 2.82955e-14 -2.79187e-14 7.83522e-15 1.72787e-14 -2.5458e-14 3.55396e-15 -2.14399e-15 -1.92584e-15 8.22345e-15 2.11782e-14 -2.89185e-14 0 3.76832e-16 -4.60225e-15 -1.73924e-15 -7.9226e-15 -6.22566e-15 3.02359e-14 -1.70144e-14 4.66503e-15 1.63736e-17 3.48352e-15 4.19984e-14 -4.50908e-14 3.92308e-15 -1.04933e-15 -1.8283e-14 3.93702e-14 -3.93702e-14 1.85806e-14 8.94421e-15 3.5336e-14 -3.0861e-14 -2.34734e-14 1.13131e-14 7.68533e-15 3.53524e-14 -3.14311e-14 -2.31627e-14 7.66715e-15 1.8102e-14 -3.38442e-14 2.37745e-14 1.52905e-14 -9.95732e-15 -1.78309e-14 -2.18887e-15 1.42005e-14 -5.61073e-14 -8.74408e-15 3.12855e-14 -6.62719e-14 4.9313e-14 1.78427e-14 -4.73522e-15 -4.70063e-14 3.86981e-14 1.83717e-14 -2.68669e-14 -3.98694e-14 8.64788e-13 6.4746e-11 4.08944e-09 1.99645e-07 7.27374e-06 0.000188255 0.00321685 0.0326433 0.178954 0.559088 1.07976 0.991149 0.843279 0.645697 0.423089 0.21795 0.0773017 0.0176524 0.00300024 0.000438823 5.79426e-05 6.98563e-06 7.72039e-07 7.84235e-08 7.33867e-09 6.34066e-10 5.06166e-11 3.78952e-12 2.09604e-13 -1.35432e-14 7.67542e-14 -6.91801e-14 -4.12524e-16 -5.39662e-14 5.0348e-14 7.39108e-14 -7.00227e-14 2.55558e-14 -5.11622e-15 -2.95696e-14 7.89214e-14 -7.04907e-14 -7.36531e-14 6.1117e-14 3.15683e-15 7.99618e-14 -6.98482e-14 7.25023e-14 -6.30652e-14 -5.16693e-14 2.15036e-15 -7.10361e-14 -3.75244e-14 -7.61597e-14 9.10229e-14 -1.97178e-14 5.00182e-14 -1.40414e-14 -5.34588e-14 -1.76435e-13 7.6612e-14 2.78071e-14 2.34054e-13 7.96094e-14 -7.44963e-14 -1.04228e-13 -1.26163e-13 7.55941e-15 7.09762e-14 8.54318e-14 -1.27281e-13 7.73039e-14 6.41196e-14 -3.83597e-14 7.90574e-14 -1.13535e-13 -1.97873e-14 -2.91821e-14 -1.2806e-13 2.08392e-13 -9.60145e-14 7.94863e-14 -2.97071e-15 -8.88416e-14 1.43459e-14 3.39492e-14 6.97911e-14 -1.94478e-13 3.13162e-14 1.00512e-13 2.30506e-14 1.2225e-13 -2.97767e-14 -1.00455e-13 8.87315e-14 -1.16468e-13 1.13146e-13 -7.4734e-14 -4.63642e-14 7.58783e-14 5.83897e-16 -3.68273e-14 6.82258e-15 7.65863e-14 5.94218e-14 -7.59131e-14 -1.02664e-13 2.17664e-15 5.62015e-14 9.38692e-14 0
				</DataArray>
				<DataArray Name="VitesseY" type="Float32" format="ascii">