<?xml version="1.0"?>
<VTKFile type="PolyData">
	<PolyData>
		<Piece NumberOfPoints="1206" NumberOfPolys="1000">
			<Points>
				<DataArray type="Float32" NumberOfComponents="3" format="ascii">
 0 0 0 0.005 0 0 0.01 0 0 0.015 0 0 0.02 0 0 0.025 0 0 0.03 0 0 0.035 0 0 0.04 0 0 0.045 0 0 0.05 0 0 0.055 0 0 0.06 0 0 0.065 0 0 0.07 0 0 0.075 0 0 0.08 0 0 0.085 0 0 0.09 0 0 0.095 0 0 0.1 0 0 0.105 0 0 0.11 0 0 0.115 0 0 0.12 0 0 0.125 0 0 0.13 0 0 0.135 0 0 0.14 0 0 0.145 0 0 0.15 0 0 0.155 0 0 0.16 0 0 0.165 0 0 0.17 0 0 0.175 0 0 0.18 0 0 0.185 0 0 0.19 0 0 0.195 0 0 0.2 0 0 0.205 0 0 0.21 0 0 0.215 0 0 0.22 0 0 0.225 0 0 0.23 0 0 0.235 0 0 0.24 0 0 0.245 0 0 0.25 0 0 0.255 0 0 0.26 0 0 0.265 0 0 0.27 0 0 0.275 0 0 0.28 0 0 0.285 0 0 0.29 0 0 0.295 0 0 0.3 0 0 0.305 0 0 0.31 0 0 0.315 0 0 0.32 0 0 0.325 0 0 0.33 0 0 0.335 0 0 0.34 0 0 0.345 0 0 0.35 0 0 0.355 0 0 0.36 0 0 0.365 0 0 0.37 0 0 0.375 0 0 0.38 0 0 0.385 0 0 0.39 0 0 0.395 0 0 0.4 0 0 0.405 0 0 0.41 0 0 0.415 0 0 0.42 0 0 0.425 0 0 0.43 0 0 0.435 0 0 0.44 0 0 0.445 0 0 0.45 0 0 0.455 0 0 0.46 0 0 0.465004 0 0 0.470032 0 0 0.475179 0 0 0.48071 0 0 0.487092 0 0 0.495026 0 0 0.505613 0 0 0.518715 0 0 0.521384 0 0 0.523892 0 0 0.526377 0 0 0.528929 0 0 0.531636 0 0 0.534596 0 0 0.537897 0 0 0.541608 0 0 0.545752 0 0 0.550281 0 0 0.555081 0 0 0.560019 0 0 0.565004 0 0 0.570001 0 0 0.575 0 0 0.58 0 0 0.585 0 0 0.59 0 0 0.595 0 0 0.6 0 0 0.605 0 0 0.61 0 0 0.615 0 0 0.62 0 0 0.625 0 0 0.63 0 0 0.635 0 0 0.64 0 0 0.645 0 0 0.65 0 0 0.655 0 0 0.66 0 0 0.665 0 0 0.67 0 0 0.675 0 0 0.68 0 0 0.685 0 0 0.69 0 0 0.695 0 0 0.7 0 0 0.705 0 0 0.71 0 0 0.715 0 0 0.72 0 0 0.725 0 0 0.73 0 0 0.735 0 0 0.74 0 0 0.745 0 0 0.75 0 0 0.755 0 0 0.76 0 0 0.765 0 0 0.77 0 0 0.775 0 0 0.78 0 0 0.785 0 0 0.79 0 0 0.795 0 0 0.8 0 0 0.805 0 0 0.81 0 0 0.815 0 0 0.82 0 0 0.825 0 0 0.83 0 0 0.835 0 0 0.84 0 0 0.845 0 0 0.85 0 0 0.855 0 0 0.86 0 0 0.865 0 0 0.87 0 0 0.875 0 0 0.88 0 0 0.885 0 0 0.89 0 0 0.895 0 0 0.9 0 0 0.905 0 0 0.91 0 0 0.915 0 0 0.92 0 0 0.925 0 0 0.93 0 0 0.935 0 0 0.94 0 0 0.945 0 0 0.95 0 0 0.955 0 0 0.96 0 0 0.965 0 0 0.97 0 0 0.975 0 0 0.98 0 0 0.985 0 0 0.99 0 0 0.995 0 0 1 0 0 0 0.02 0 0.005 0.02 0 0.01 0.02 0 0.015 0.02 0 0.02 0.02 0 0.025 0.02 0 0.03 0.02 0 0.035 0.02 0 0.04 0.02 0 0.045 0.02 0 0.05 0.02 0 0.055 0.02 0 0.06 0.02 0 0.065 0.02 0 0.07 0.02 0 0.075 0.02 0 0.08 0.02 0 0.085 0.02 0 0.09 0.02 0 0.095 0.02 0 0.1 0.02 0 0.105 0.02 0 0.11 0.02 0 0.115 0.02 0 0.12 0.02 0 0.125 0.02 0 0.13 0.02 0 0.135 0.02 0 0.14 0.02 0 0.145 0.02 0 0.15 0.02 0 0.155 0.02 0 0.16 0.02 0 0.165 0.02 0 0.17 0.02 0 0.175 0.02 0 0.18 0.02 0 0.185 0.02 0 0.19 0.02 0 0.195 0.02 0 0.2 0.02 0 0.205 0.02 0 0.21 0.02 0 0.215 0.02 0 0.22 0.02 0 0.225 0.02 0 0.23 0.02 0 0.235 0.02 0 0.24 0.02 0 0.245 0.02 0 0.25 0.02 0 0.255 0.02 0 0.26 0.02 0 0.265 0.02 0 0.27 0.02 0 0.275 0.02 0 0.28 0.02 0 0.285 0.02 0 0.29 0.02 0 0.295 0.02 0 0.3 0.02 0 0.305 0.02 0 0.31 0.02 0 0.315 0.02 0 0.32 0.02 0 0.325 0.02 0 0.33 0.02 0 0.335 0.02 0 0.34 0.02 0 0.345 0.02 0 0.35 0.02 0 0.355 0.02 0 0.36 0.02 0 0.365 0.02 0 0.37 0.02 0 0.375 0.02 0 0.38 0.02 0 0.385 0.02 0 0.39 0.02 0 0.395 0.02 0 0.4 0.02 0 0.405 0.02 0 0.41 0.02 0 0.415 0.02 0 0.42 0.02 0 0.425 0.02 0 0.43 0.02 0 0.435 0.02 0 0.44 0.02 0 0.445 0.02 0 0.45 0.02 0 0.455 0.02 0 0.46 0.02 0 0.465004 0.02 0 0.470032 0.02 0 0.475179 0.02 0 0.48071 0.02 0 0.487092 0.02 0 0.495026 0.02 0 0.505613 0.02 0 0.518715 0.02 0 0.521384 0.02 0 0.523892 0.02 0 0.526377 0.02 0 0.528929 0.02 0 0.531636 0.02 0 0.534596 0.02 0 0.537897 0.02 0 0.541608 0.02 0 0.545752 0.02 0 0.550281 0.02 0 0.555081 0.02 0 0.560019 0.02 0 0.565004 0.02 0 0.570001 0.02 0 0.575 0.02 0 0.58 0.02 0 0.585 0.02 0 0.59 0.02 0 0.595 0.02 0 0.6 0.02 0 0.605 0.02 0 0.61 0.02 0 0.615 0.02 0 0.62 0.02 0 0.625 0.02 0 0.63 0.02 0 0.635 0.02 0 0.64 0.02 0 0.645 0.02 0 0.65 0.02 0 0.655 0.02 0 0.66 0.02 0 0.665 0.02 0 0.67 0.02 0 0.675 0.02 0 0.68 0.02 0 0.685 0.02 0 0.69 0.02 0 0.695 0.02 0 0.7 0.02 0 0.705 0.02 0 0.71 0.02 0 0.715 0.02 0 0.72 0.02 0 0.725 0.02 0 0.73 0.02 0 0.735 0.02 0 0.74 0.02 0 0.745 0.02 0 0.75 0.02 0 0.755 0.02 0 0.76 0.02 0 0.765 0.02 0 0.77 0.02 0 0.775 0.02 0 0.78 0.02 0 0.785 0.02 0 0.79 0.02 0 0.795 0.02 0 0.8 0.02 0 0.805 0.02 0 0.81 0.02 0 0.815 0.02 0 0.82 0.02 0 0.825 0.02 0 0.83 0.02 0 0.835 0.02 0 0.84 0.02 0 0.845 0.02 0 0.85 0.02 0 0.855 0.02 0 0.86 0.02 0 0.865 0.02 0 0.87 0.02 0 0.875 0.02 0 0.88 0.02 0 0.885 0.02 0 0.89 0.02 0 0.895 0.02 0 0.9 0.02 0 0.905 0.02 0 0.91 0.02 0 0.915 0.02 0 0.92 0.02 0 0.925 0.02 0 0.93 0.02 0 0.935 0.02 0 0.94 0.02 0 0.945 0.02 0 0.95 0.02 0 0.955 0.02 0 0.96 0.02 0 0.965 0.02 0 0.97 0.02 0 0.975 0.02 0 0.98 0.02 0 0.985 0.02 0 0.99 0.02 0 0.995 0.02 0 1 0.02 0 0 0.04 0 0.005 0.04 0 0.01 0.04 0 0.015 0.04 0 0.02 0.04 0 0.025 0.04 0 0.03 0.04 0 0.035 0.04 0 0.04 0.04 0 0.045 0.04 0 0.05 0.04 0 0.055 0.04 0 0.06 0.04 0 0.065 0.04 0 0.07 0.04 0 0.075 0.04 0 0.08 0.04 0 0.085 0.04 0 0.09 0.04 0 0.095 0.04 0 0.1 0.04 0 0.105 0.04 0 0.11 0.04 0 0.115 0.04 0 0.12 0.04 0 0.125 0.04 0 0.13 0.04 0 0.135 0.04 0 0.14 0.04 0 0.145 0.04 0 0.15 0.04 0 0.155 0.04 0 0.16 0.04 0 0.165 0.04 0 0.17 0.04 0 0.175 0.04 0 0.18 0.04 0 0.185 0.04 0 0.19 0.04 0 0.195 0.04 0 0.2 0.04 0 0.205 0.04 0 0.21 0.04 0 0.215 0.04 0 0.22 0.04 0 0.225 0.04 0 0.23 0.04 0 0.235 0.04 0 0.24 0.04 0 0.245 0.04 0 0.25 0.04 0 0.255 0.04 0 0.26 0.04 0 0.265 0.04 0 0.27 0.04 0 0.275 0.04 0 0.28 0.04 0 0.285 0.04 0 0.29 0.04 0 0.295 0.04 0 0.3 0.04 0 0.305 0.04 0 0.31 0.04 0 0.315 0.04 0 0.32 0.04 0 0.325 0.04 0 0.33 0.04 0 0.335 0.04 0 0.34 0.04 0 0.345 0.04 0 0.35 0.04 0 0.355 0.04 0 0.36 0.04 0 0.365 0.04 0 0.37 0.04 0 0.375 0.04 0 0.38 0.04 0 0.385 0.04 0 0.39 0.04 0 0.395 0.04 0 0.4 0.04 0 0.405 0.04 0 0.41 0.04 0 0.415 0.04 0 0.42 0.04 0 0.425 0.04 0 0.43 0.04 0 0.435 0.04 0 0.44 0.04 0 0.445 0.04 0 0.45 0.04 0 0.455 0.04 0 0.46 0.04 0 0.465004 0.04 0 0.470032 0.04 0 0.475179 0.04 0 0.48071 0.04 0 0.487092 0.04 0 0.495026 0.04 0 0.505613 0.04 0 0.518715 0.04 0 0.521384 0.04 0 0.523892 0.04 0 0.526377 0.04 0 0.528929 0.04 0 0.531636 0.04 0 0.534596 0.04 0 0.537897 0.04 0 0.541608 0.04 0 0.545752 0.04 0 0.550281 0.04 0 0.555081 0.04 0 0.560019 0.04 0 0.565004 0.04 0 0.570001 0.04 0 0.575 0.04 0 0.58 0.04 0 0.585 0.04 0 0.59 0.04 0 0.595 0.04 0 0.6 0.04 0 0.605 0.04 0 0.61 0.04 0 0.615 0.04 0 0.62 0.04 0 0.625 0.04 0 0.63 0.04 0 0.635 0.04 0 0.64 0.04 0 0.645 0.04 0 0.65 0.04 0 0.655 0.04 0 0.66 0.04 0 0.665 0.04 0 0.67 0.04 0 0.675 0.04 0 0.68 0.04 0 0.685 0.04 0 0.69 0.04 0 0.695 0.04 0 0.7 0.04 0 0.705 0.04 0 0.71 0.04 0 0.715 0.04 0 0.72 0.04 0 0.725 0.04 0 0.73 0.04 0 0.735 0.04 0 0.74 0.04 0 0.745 0.04 0 0.75 0.04 0 0.755 0.04 0 0.76 0.04 0 0.765 0.04 0 0.77 0.04 0 0.775 0.04 0 0.78 0.04 0 0.785 0.04 0 0.79 0.04 0 0.795 0.04 0 0.8 0.04 0 0.805 0.04 0 0.81 0.04 0 0.815 0.04 0 0.82 0.04 0 0.825 0.04 0 0.83 0.04 0 0.835 0.04 0 0.84 0.04 0 0.845 0.04 0 0.85 0.04 0 0.855 0.04 0 0.86 0.04 0 0.865 0.04 0 0.87 0.04 0 0.875 0.04 0 0.88 0.04 0 0.885 0.04 0 0.89 0.04 0 0.895 0.04 0 0.9 0.04 0 0.905 0.04 0 0.91 0.04 0 0.915 0.04 0 0.92 0.04 0 0.925 0.04 0 0.93 0.04 0 0.935 0.04 0 0.94 0.04 0 0.945 0.04 0 0.95 0.04 0 0.955 0.04 0 0.96 0.04 0 0.965 0.04 0 0.97 0.04 0 0.975 0.04 0 0.98 0.04 0 0.985 0.04 0 0.99 0.04 0 0.995 0.04 0 1 0.04 0 0 0.06 0 0.005 0.06 0 0.01 0.06 0 0.015 0.06 0 0.02 0.06 0 0.025 0.06 0 0.03 0.06 0 0.035 0.06 0 0.04 0.06 0 0.045 0.06 0 0.05 0.06 0 0.055 0.06 0 0.06 0.06 0 0.065 0.06 0 0.07 0.06 0 0.075 0.06 0 0.08 0.06 0 0.085 0.06 0 0.09 0.06 0 0.095 0.06 0 0.1 0.06 0 0.105 0.06 0 0.11 0.06 0 0.115 0.06 0 0.12 0.06 0 0.125 0.06 0 0.13 0.06 0 0.135 0.06 0 0.14 0.06 0 0.145 0.06 0 0.15 0.06 0 0.155 0.06 0 0.16 0.06 0 0.165 0.06 0 0.17 0.06 0 0.175 0.06 0 0.18 0.06 0 0.185 0.06 0 0.19 0.06 0 0.195 0.06 0 0.2 0.06 0 0.205 0.06 0 0.21 0.06 0 0.215 0.06 0 0.22 0.06 0 0.225 0.06 0 0.23 0.06 0 0.235 0.06 0 0.24 0.06 0 0.245 0.06 0 0.25 0.06 0 0.255 0.06 0 0.26 0.06 0 0.265 0.06 0 0.27 0.06 0 0.275 0.06 0 0.28 0.06 0 0.285 0.06 0 0.29 0.06 0 0.295 0.06 0 0.3 0.06 0 0.305 0.06 0 0.31 0.06 0 0.315 0.06 0 0.32 0.06 0 0.325 0.06 0 0.33 0.06 0 0.335 0.06 0 0.34 0.06 0 0.345 0.06 0 0.35 0.06 0 0.355 0.06 0 0.36 0.06 0 0.365 0.06 0 0.37 0.06 0 0.375 0.06 0 0.38 0.06 0 0.385 0.06 0 0.39 0.06 0 0.395 0.06 0 0.4 0.06 0 0.405 0.06 0 0.41 0.06 0 0.415 0.06 0 0.42 0.06 0 0.425 0.06 0 0.43 0.06 0 0.435 0.06 0 0.44 0.06 0 0.445 0.06 0 0.45 0.06 0 0.455 0.06 0 0.46 0.06 0 0.465004 0.06 0 0.470032 0.06 0 0.475179 0.06 0 0.48071 0.06 0 0.487092 0.06 0 0.495026 0.06 0 0.505613 0.06 0 0.518715 0.06 0 0.521384 0.06 0 0.523892 0.06 0 0.526377 0.06 0 0.528929 0.06 0 0.531636 0.06 0 0.534596 0.06 0 0.537897 0.06 0 0.541608 0.06 0 0.545752 0.06 0 0.550281 0.06 0 0.555081 0.06 0 0.560019 0.06 0 0.565004 0.06 0 0.570001 0.06 0 0.575 0.06 0 0.58 0.06 0 0.585 0.06 0 0.59 0.06 0 0.595 0.06 0 0.6 0.06 0 0.605 0.06 0 0.61 0.06 0 0.615 0.06 0 0.62 0.06 0 0.625 0.06 0 0.63 0.06 0 0.635 0.06 0 0.64 0.06 0 0.645 0.06 0 0.65 0.06 0 0.655 0.06 0 0.66 0.06 0 0.665 0.06 0 0.67 0.06 0 0.675 0.06 0 0.68 0.06 0 0.685 0.06 0 0.69 0.06 0 0.695 0.06 0 0.7 0.06 0 0.705 0.06 0 0.71 0.06 0 0.715 0.06 0 0.72 0.06 0 0.725 0.06 0 0.73 0.06 0 0.735 0.06 0 0.74 0.06 0 0.745 0.06 0 0.75 0.06 0 0.755 0.06 0 0.76 0.06 0 0.765 0.06 0 0.77 0.06 0 0.775 0.06 0 0.78 0.06 0 0.785 0.06 0 0.79 0.06 0 0.795 0.06 0 0.8 0.06 0 0.805 0.06 0 0.81 0.06 0 0.815 0.06 0 0.82 0.06 0 0.825 0.06 0 0.83 0.06 0 0.835 0.06 0 0.84 0.06 0 0.845 0.06 0 0.85 0.06 0 0.855 0.06 0 0.86 0.06 0 0.865 0.06 0 0.87 0.06 0 0.875 0.06 0 0.88 0.06 0 0.885 0.06 0 0.89 0.06 0 0.895 0.06 0 0.9 0.06 0 0.905 0.06 0 0.91 0.06 0 0.915 0.06 0 0.92 0.06 0 0.925 0.06 0 0.93 0.06 0 0.935 0.06 0 0.94 0.06 0 0.945 0.06 0 0.95 0.06 0 0.955 0.06 0 0.96 0.06 0 0.965 0.06 0 0.97 0.06 0 0.975 0.06 0 0.98 0.06 0 0.985 0.06 0 0.99 0.06 0 0.995 0.06 0 1 0.06 0 0 0.08 0 0.005 0.08 0 0.01 0.08 0 0.015 0.08 0 0.02 0.08 0 0.025 0.08 0 0.03 0.08 0 0.035 0.08 0 0.04 0.08 0 0.0
[...]
			<PointData Scalars="VitesseX">
				<DataArray Name="VitesseX" type="Float32" format="ascii">
 0 -6.99972e-16 3.51029e-16 -1.97832e-15 1.4598e-15 -2.31686e-15 -2.41164e-15 2.00306e-15 9.30372e-17 2.94007e-15 6.25093e-16 -1.12611e-16 -6.451e-15 7.89826e-15 -2.62603e-15 -1.76989e-15 4.39593e-15 -4.45851e-15 4.45851e-15 -3.19337e-15 1.63587e-15 -7.4681e-15 2.87572e-15 5.24873e-15 -4.50899e-15 1.83311e-15 5.14441e-15 -1.13049e-14 6.40949e-15 -8.69182e-15 1.49971e-14 -8.38733e-15 6.29449e-15 2.93817e-16 -1.27335e-14 1.09464e-14 -1.40059e-14 1.86673e-14 -1.50817e-14 1.20772e-14 -1.30678e-14 1.0317e-14 -1.98814e-15 1.83136e-17 -5.79805e-15 1.29617e-14 -2.63852e-14 2.66458e-14 -1.25177e-14 1.15283e-14 0 -1.18781e-14 2.09087e-14 -2.38581e-14 1.64289e-14 -6.04271e-15 -1.96047e-14 3.15015e-14 -3.38443e-14 2.17263e-14 -3.99604e-15 4.02662e-15 3.00509e-15 -5.79707e-15 1.08337e-14 -1.0659e-14 2.93269e-15 4.34305e-15 9.97907e-15 -1.1927e-14 1.37293e-14 -2.98673e-14 3.78877e-14 -3.33612e-14 3.16833e-14 -1.92985e-14 4.53393e-15 1.23091e-14 -2.93923e-14 2.96503e-14 -2.90252e-14 3.06429e-15 1.44238e-14 -2.8692e-14 -7.31984e-15 8.31055e-14 1.95645e-12 7.08751e-11 2.14219e-09 5.3792e-08 1.10237e-06 1.80216e-05 0.000227985 0.00214025 0.0141061 0.061893 0.180521 0.380822 0.654104 0.9616 0.928769 0.961903 0.978535 0.96318 0.922776 0.844588 0.73202 0.583989 0.416173 0.251171 0.11944 0.0417353 0.011005 0.00243531 0.000485673 8.95579e-05 1.53945e-05 2.47498e-06 3.72862e-07 5.27064e-08 6.99767e-09 8.73256e-10 1.02535e-10 1.13408e-11 1.13078e-12 1.39435e-13 -2.25325e-14 1.08508e-14 8.20175e-15 -1.15487e-14 3.31612e-14 -2.82427e-14 2.51949e-14 -2.29902e-14 -3.24107e-14 4.16208e-14 -2.50427e-14 3.95286e-14 -3.08341e-14 -2.52807e-14 6.28627e-14 -2.20225e-14 -2.63867e-14 4.67016e-14 1.77256e-14 -6.62857e-14 4.60747e-14 -3.30378e-14 5.64396e-14 -3.26439e-15 -3.28964e-14 2.90631e-14 -3.78547e-14 2.03345e-14 -5.38525e-14 3.51479e-14 -3.71394e-14 3.67807e-14 2.12016e-14 -3.54353e-14 4.1655e-14 -2.8945e-14 3.18842e-14 -3.13494e-14 -3.44315e-14 1.87847e-14 -1.31731e-14 -5.28671e-15 3.85144e-14 -3.55162e-14 4.16647e-14 -1.27218e-14 -1.0423e-14 3.10895e-14 -3.97189e-14 3.85076e-14 -6.95233e-15 -3.36431e-14 3.27152e-14 -4.77761e-14 4.85301e-14 -2.87012e-14 4.3804e-15 2.80861e-14 -4.09041e-14 4.42059e-14 -3.86226e-14 8.00529e-15 1.25123e-14 -5.09573e-14 3.0972e-14 1.961e-14 -1.00787e-13 1.07927e-13 -4.42796e-14 1.94697e-14 2.83563e-14 -7.29218e-14 5.78804e-14 -2.52763e-14 0 0 0 -8.38703e-16 1.03928e-15 -1.05128e-15 -2.70277e-15 -7.92521e-16 3.60329e-15 -2.05717e-15 1.88534e-16 3.96949e-15 -2.40316e-15 2.09587e-15 -7.26407e-15 9.47456e-15 -3.35938e-15 -5.79518e-15 9.22466e-15 -9.22466e-15 6.39646e-15 2.29103e-15 -9.58066e-15 1.18712e-15 2.69879e-15 6.21627e-15 1.19545e-15 -5.87512e-15 -8.47353e-15 8.59013e-15 -2.7617e-15 8.68295e-16 7.99649e-15 -5.08566e-15 4.23112e-15 -5.8232e-15 5.18155e-16 -4.83882e-16 -6.69544e-15 9.75779e-15 -5.21253e-15 -2.1006e-16 4.34983e-15 -8.78828e-15 1.30497e-14 -1.16332e-14 8.81091e-15 -6.68824e-15 -4.22087e-15 1.10358e-14 5.35685e-15 1.20365e-16 -7.87094e-15 -3.68957e-15 2.0334e-14 -1.44773e-14 4.53587e-15 -6.71381e-15 -1.23341e-14 1.01526e-14 -4.34477e-15 9.97615e-16 1.03767e-14 -1.09677e-14 1.83127e-14 -1.11535e-14 -4.08179e-15 7.03915e-15 -4.93225e-15 2.60236e-14 -1.19346e-14 1.01185e-14 -3.23444e-15 -7.21827e-15 -1.92885e-14 1.85868e-14 -1.67032e-14 3.66534e-14 -2.38435e-16 -3.9508e-14 3.46097e-14 -2.43673e-14 -5.23104e-15 1.87885e-14 -8.9383e-15 3.45517e-15 3.28141e-14 1.98482e-12 7.0863e-11 2.14221e-09 5.3792e-08 1.10237e-06 1.80216e-05 0.000227985 0.00214025 0.0141061 0.061893 0.180521 0.380822 0.654104 0.9616 0.928769 0.961903 0.978535 0.96318 0.922776 0.844588 0.73202 0.583989 0.416173 0.251171 0.11944 0.0417353 0.011005 0.00243531 0.000485673 8.95579e-05 1.53945e-05 2.47498e-06 3.72862e-07 5.27064e-08 6.99765e-09 8.73274e-10 1.02491e-10 1.13417e-11 1.24125e-12 3.07523e-14 4.27081e-14 -2.35465e-14 -3.87e-15 3.79505e-14 -3.9703e-14 2.14796e-15 4.20261e-14 -2.55453e-14 -3.77983e-14 2.19671e-14 -1.2561e-14 5.8382e-14 -2.84674e-14 -1.30226e-15 3.36224e-14 -4.19501e-14 3.73529e-14 -4.99138e-15 6.41939e-14 -8.22565e-14 6.35735e-15 1.63917e-14 5.87473e-15 -6.46256e-15 1.03325e-14 -4.18294e-14 3.06047e-14 -4.6702e-14 2.22406e-15 -5.89864e-15 1.44656e-14 -6.25862e-15 2.0017e-14 -1.97655e-14 1.97864e-14 2.84258e-14 -2.92028e-14 -9.98977e-15 -2.60064e-14 -9.51635e-17 4.79985e-14 -7.88406e-15 -4.02178e-14 -8.02967e-15 6.32765e-14 -4.75486e-14 2.79643e-14 -3.62186e-14 8.09615e-14 -4.13427e-14 1.43305e-14 -1.77772e-14 -2.91051e-14 -1.49869e-14 3.63104e-14 -1.94102e-14 5.18347e-14 -6.88799e-14 1.08002e-14 3.47861e-14 -1.83375e-14 1.18032e-14 -1.2726e-15 -3.63864e-14 1.20673e-14 1.79106e-14 -4.40322e-14 3.8981e-15 5.35051e-14 -2.53247e-14 -2.45457e-14 2.64666e-16 6.1373e-15 -4.84364e-15 0 0 3.49986e-16 -3.85158e-16 8.88493e-16 1.15197e-15 -3.37335e-15 -2.11038e-15 1.43144e-15 3.09696e-15 -1.65254e-15 1.61046e-15 -6.01045e-15 4.07377e-15 -9.59663e-16 2.6364e-15 -1.65833e-15 -4.25815e-16 4.39383e-15 -3.82689e-15 -2.80682e-16 5.26345e-16 -5.35354e-15 8.51555e-15 -1.23353e-15 -9.38406e-16 -1.42898e-15 9.69896e-15 -1.5202e-14 7.59701e-15 -1.34477e-14 1.19875e-14 8.98394e-16 1.27641e-14 -3.35174e-15 -1.77027e-14 4.56901e-15 5.32081e-15 -4.29525e-15 6.29964e-15 -6.71429e-15 -1.00485e-14 1.52585e-14 -3.04113e-15 -4.94411e-15 2.23417e-14 -3.23601e-14 2.44332e-14 -4.29351e-15 -2.67481e-15 -2.52133e-15 1.20365e-16 5.0058e-15 6.16682e-15 1.55476e-14 -2.18495e-14 7.73591e-15 -1.28574e-14 -2.05325e-14 1.79906e-14 -1.35489e-14 7.18095e-15 2.44591e-14 -1.49636e-14 2.65532e-14 -1.72646e-14 -1.58045e-14 1.83145e-14 -8.23839e-15 4.32172e-14 -2.88121e-14 2.84061e-14 -2.53688e-14 4.07e-14 -4.20012e-14 -4.63286e-14 1.89693e-14 6.14888e-14 -5.51044e-15 1.71537e-15 -1.44461e-14 -1.69689e-14 -1.04668e-14 -1.40755e-16 6.72295e-15 2.25504e-14 2.40529e-14 1.98057e-12 7.08819e-11 2.14219e-09 5.37921e-08 1.10237e-06 1.80216e-05 0.000227985 0.00214025 0.0141061 0.061893 0.180521 0.380822 0.654104 0.9616 0.928769 0.961903 0.978535 0.96318 0.922776 0.844588 0.73202 0.583989 0.416173 0.251171 0.11944 0.0417353 0.011005 0.00243531 0.000485673 8.95579e-05 1.53945e-05 2.47498e-06 3.72862e-07 5.27064e-08 6.99765e-09 8.73253e-10 1.02525e-10 1.13559e-11 1.18832e-12 6.93773e-14 8.51371e-15 4.66427e-14 2.48463e-14 -5.85321e-14 -5.28643e-14 -2.38608e-15 9.1766e-14 -1.65608e-14 -7.09408e-14 2.00198e-14 -2.6435e-14 7.07704e-14 4.29715e-14 1.56301e-14 2.99104e-14 -6.73383e-14 -2.28207e-15 3.00602e-14 -2.48237e-15 3.38135e-14 2.65655e-14 1.25299e-14 -1.05119e-13 1.48755e-14 1.12723e-14 -5.15959e-14 -1.35753e-14 -1.21549e-14 -4.24114e-14 4.81998e-14 1.45228e-14 5.47447e-14 -6.76821e-14 1.76903e-14 -1.36768e-14 5.24563e-14 -4.92245e-14 1.15861e-14 -6.56139e-15 4.49523e-14 9.94554e-14 -7.14123e-14 -5.42124e-14 -8.24807e-14 8.66208e-14 -5.10049e-14 3.82761e-14 -7.12494e-14 1.19277e-13 -3.71058e-14 8.33839e-14 -4.2272e-14 -1.09808e-13 6.18543e-15 1.98326e-14 -3.10773e-14 8.22849e-14 -8.66901e-14 1.17199e-14 3.49646e-14 -2.30044e-14 2.11543e-14 -2.96252e-15 -3.03382e-14 -2.35608e-14 3.57506e-14 -3.20529e-15 -3.575e-14 5.97395e-14 -1.87316e-14 -2.84947e-14 2.25066e-14 -3.51777e-14 5.15672e-14 0 0 -4.85945e-16 9.48371e-16 -1.98752e-15 1.05452e-15 -5.11071e-16 -2.26587e-15 2.53781e-15 -8.91865e-17 6.48308e-16 -5.95719e-15 4.52361e-15 -5.85475e-15 9.22923e-15 -8.93694e-16 -4.7531e-15 3.74162e-15 -6.81316e-15 2.08028e-15 2.46659e-15 4.04196e-15 -4.34399e-15 7.707e-15 -7.09145e-15 -6.51057e-15 9.78431e-15 -1.26622e-15 -6.26167e-15 6.87651e-15 -1.01059e-14 8.62977e-15 5.26485e-15 1.52182e-14 -2.07923e-14 -2.4152e-15 1.71489e-15 -6.29384e-15 2.07365e-14 -2.09847e-14 3.25414e-15 -4.28097e-15 1.07889e-14 1.08607e-15 -4.20238e-15 2.44572e-14 -2.93493e-14 -5.07962e-15 1.45368e-14 -1.43995e-15 -6.31178e-16 9.83194e-16 3.9003e-15 1.90923e-14 -1.02028e-15 -5.86807e-15 -2.71078e-15 -3.04225e-14 2.31578e-15 -3.74736e-15 1.10456e-14 2.69405e-15 4.15921e-15 7.44142e-15 6.05238e-15 -4.49577e-15 -1.1025e-14 1.67337e-15 2.64588e-14 5.58714e-15 9.78842e-15 -6.78352e-15 -3.15298e-14 7.25025e-14 -4.01605e-14 -5.35937e-14 3.9578e-14 1.71098e-14 -4.50124e-16 2.38056e-14 2.60216e-14 -3.46466e-14 -3.93541e-14 3.45568e-14 -7.34754e-15 -6.07587e-14 1.72764e-13 1.94309e-12 7.0866e-11 2.14219e-09 5.3792e-08 1.10237e-06 1.80216e-05 0.000227985 0.00214025 0.0141061 0.061893 0.180521 0.380822 0.654104 0.9616 0.928769 0.961903 0.978535 0.96318 0.922776 0.844588 0.73202 0.583989 0.416173 0.251171 0.11944 0.0417353 0.011005 0.00243531 0.000485673 8.95579e-05 1.53945e-05 2.47498e-06 3.72862e-07 5.27064e-08 6.99762e-09 8.73287e-10 1.02526e-10 1.13827e-11 1.1057e-12 9.6753e-14 1.36018e-14 1.27159e-16 1.26308e-13 -1.18994e-13 -5.50929e-14 3.28652e-15 1.03508e-13 -6.31728e-14 -5.83257e-15 -1.36215e-14 -1.46548e-14 3.34772e-14 3.449e-14 5.26804e-14 3.7883e-14 -8.73712e-14 -4.98075e-14 9.218e-14 -2.06625e-14 5.60527e-14 3.2189e-14 1.55651e-14 -8.57674e-14 9.44504e-15 -5.68947e-14 2.63763e-14 -6.60937e-15 -6.92873e-14 -1.19805e-14 -1.02642e-14 2.57894e-14 9.58621e-14 -2.5825e-15 3.11945e-15 -6.42345e-14 3.19766e-14 -3.46235e-14 2.59899e-14 6.65982e-14 -3.23115e-14 -1.87348e-14 1.21765e-14 -3.75323e-14 -6.21674e-14 1.24502e-14 6.19803e-14 -2.06074e-14 -5.33863e-14 1.78187e-14 1.19669e-14 9.6889e-14 -6.55743e-14 -2.92926e-14 -5.02292e-14 1.62187e-14 -5.50444e-16 7.13626e-15 2.64438e-14 -6.54727e-14 8.83297e-14 -6.16734e-14 3.69169e-14 -7.15363e-14 8.61094e-15 -1.78452e-14 5.99064e-14 -8.93018e-14 8.65156e-14 -2.71781e-15 -1.60652e-14 3.135e-14 -7.17391e-14 4.5532e-14 -2.70142e-14 0 0 -8.58626e-16 -2.77989e-16 -7.80894e-16 -1.8159e-15 -2.33339e-16 1.14915e-15 1.6612e-15 -1.72907e-15 3.06991e-15 -3.78445e-15 6.78466e-15 -5.46477e-15 -4.35222e-16 4.94317e-15 -7.20615e-16 1.38141e-15 -3.06305e-15 -9.89416e-15 5.17619e-15 1.05479e-14 -9.54634e-15 -1.69673e-15 -4.38865e-15 2.12093e-15 1.08163e-14 -1.80446e-14 8.01751e-15 1.76108e-15 1.03229e-14 -2.14099e-14 1.85559e-14 3.98724e-15 -1.70007e-14 1.66844e-14 1.2169e-14 -1.89268e-14 1.15517e-14 -9.86202e-15 -6.05384e-15 1.14645e-14 -1.32256e-14 -1.979e-15 3.50619e-14 2.94221e-15 -1.02521e-14 -1.78958e-14 -8.91415e-15 2.95726e-14 -1.27847e-14 -9.76933e-15 1.1421e-14 -1.14346e-14 1.95187e-14 -1.35217e-14 -4.36412e-15 -2.61141e-14 1.39441e-14 -1.34667e-14 2.04021e-14 1.32124e-14 -1.54481e-14 1.28399e-14 -1.91429e-14 7.17619e-15 1.53056e-14 -1.20436e-14 4.50273e-14 -1.77456e-14 1.75707e-14 -2.15622e-14 2.4462e-14 -1.03181e-14 -2.1271e-14 -1.26533e-14 3.87222e-14 -2.56251e-14 -5.20752e-15 -9.48377e-15 3.6467e-14 4.89009e-14 -7.63066e-14 7.25347e-14 -1.40043e-14 -4.64026e-14 2.20447e-13 1.96015e-12 7.08399e-11 2.14222e-09 5.37919e-08 1.10237e-06 1.80216e-05 0.000227985 0.00214025 0.0141061 0.061893 0.180521 0.380822 0.654104 0.9616 0.928769 0.961903 0.978535 0.96318 0.922776 0.844588 0.73202 0.583989 0.416173 0.251171 0.11944 0.0417353 0.011005 0.00243531 0.000485673 8.95579e-05 1.53945e-05 2.47498e-06 3.72862e-07 5.27064e-08 6.99759e-09 8.73341e-10 1.02448e-10 1.13145e-11 1.26149e-12 -3.58931e-14 5.53095e-14 -1.11072e-13 1.16644e-13 3.85422e-15 -6.5466e-14 2.32026e-14 6.02658e-14 -9.25125e-14 8.17889e-14 -4.65132e-14 -4.2789e-15 3.71808e-15 -1.3481e-14 6.03931e-14 -1.29924e-14 -4.27571e-14 -1.09944e-14 5.24473e-14 3.66546e-14 -5.61372e-15 9.10168e-15 5.45641e-14 4.35341e-15 -6.12718e-15 -9.45744e-14 7.21462e-14 9.83253e-15 -1.19561e-13 2.48071e-14 -6.17033e-14 7.54688e-14 -1.46385e-14 5.8702e-14 7.19526e-14 -8.12916e-14 5.21958e-14 -7.29559e-14 4.43344e-15 1.32327e-14 -5.40759e-14 9.16105e-16 1.01931e-14 -1.15805e-14 3.30244e-14 -6.76924e-14 1.0913e-13 -5.94767e-14 1.15928e-14 -3.05761e-14 1.24345e-14 6.19848e-14 -3.78884e-15 -4.25247e-14 -3.2309e-14 -1.12858e-14 1.20635e-14 -1.66348e-14 7.69744e-15 8.59986e-15 2.13309e-14 -2.81294e-14 -4.36887e-14 4.30137e-14 -1.55054e-14 -7.58771e-15 -3.97226e-15 -3.173e-14 2.91232e-14 3.77942e-14 -2.86196e-14 4.11132e-14 -3.82678e-14 2.63992e-14 -5.25033e-14 0 0 -7.45362e-16 -1.1946e-15 1.33372e-16 1.25457e-16 -3.10255e-15 1.78267e-15 -4.09386e-15 7.12154e-15 4.10112e-15 2.52492e-16 -2.80507e-15 -1.71524e-15 1.17817e-15 -4.62863e-15 9.69717e-15 1.04142e-14 -6.61995e-15 -8.69485e-15 -1.11285e-14 1.11184e-14 -9.41858e-15 -1.27485e-15 2.78969e-15 -1.55533e-15 -1.35177e-15 2.73585e-15 3.79659e-15 -5.80762e-15 1.07937e-14 -2.2844e-14 3.99865e-15 1.95321e-14 -7.28879e-15 1.70666e-15 3.99563e-14 -2.76623e-14 5.09805e-15 2.47357e-16 -9.54227e-15 -1.25387e-15 -1.58946e-14 3.37599e-15 4.25592e-14 1.91217e-14 -3.11859e-14 1.02252e-14 -2.04014e-14 2.20861e-14 -2.85351e-14 -2.1505e-14 2.89169e-14 -2.04323e-14 7.64718e-15 -1.36228e-14 -2.9493e-15 -2.3275e-14 3.83612e-14 -3.76069e-14 2.20313e-14 2.94074e-14 -7.0233e-15 5.81014e-15 -3.97067e-14 2.19555e-14 1.85568e-14 -1.95055e-15 3.48677e-14 -2.2992e-15 -3.01175e-14 2.07471e-14 3.78476e-14 -3.19168e-14 -4.10075e-14 -1.62669e-14 5.0335e-14 -3.12649e-14 -7.74968e-15 -1.35244e-14 -4.75706e-14 1.52867e-13 -8.1312e-14 5.25211e-14 -1.06831e-14 5.95828e-14 1.60949e-13 1.98207e-12 7.08606e-11 2.14221e-09 5.37919e-08 1.10237e-06 1.80216e-05 0.000227985 0.00214025 0.0141061 0.061893 0.180521 0.380822 0.654104 0.9616 0.928769 0.961903 0.978535 0.96318 0.922776 0.844588 0.73202 0.583989 0.416173 0.251171 0.11944 0.0417353 0.011005 0.00243531 0.000485673 8.95579e-05 1.53945e-05 2.47498e-06 3.72862e-07 5.27064e-08 6.9976e-09 8.73322e-10 1.02447e-10 1.12331e-11 1.33669e-12 -4.87533e-14 -7.53994e-15 -7.11236e-14 4.63862e-14 4.1312e-14 -1.38523e-14 2.53895e-15 3.82714e-14 -6.36135e-14 7.65899e-14 -2.80945e-14 -3.20953e-14 4.69107e-15 1.59465e-14 2.38009e-14 -4.64446e-14 1.65175e-14 -2.79845e-14 3.7198e-14 -1.11207e-15 4.24633e-14 4.02257e-14 3.71971e-14 1.46798e-14 8.16069e-15 -1.06266e-13 1.01394e-13 -9.31059e-14 -1.09766e-14 -6.95693e-14 4.03552e-14 6.21268e-14 -6.25284e-14 -3.17505e-14 1.77396e-13 -5.91544e-14 5.95841e-14 -8.47742e-14 -3.11051e-14 -1.02052e-13 6.53963e-14 1.29042e-13 -1.36222e-13 6.26169e-14 6.05155e-15 -7.19077e-14 7.47688e-14 -6.74435e-14 9.10271e-14 -5.99316e-14 4.78993e-14 6.1321e-14 4.08342e-14 -1.55033e-13 3.05647e-14 -3.94599e-14 -2.69143e-14 1.76356e-14 -4.50872e-14 1.09005e-13 -8.94284e-14 1.91526e-14 -1.3458e-13 2.38135e-13 -8.71741e-14 -1.97724e-14 -7.2387e-14 9.61276e-14 -8.60679e-14 4.91524e-14 7.38026e-15 3.96883e-14 3.83926e-14 -6.29211e-14 3.65698e-14 0
				</DataArray>
				<DataArray Name="VitesseY" type="Float32" format="ascii">