<?xml version="1.0"?>
<VTKFile type="PolyData">
	<PolyData>
		<Piece NumberOfPoints="1206" NumberOfPolys="1000">
			<Points>
				<DataArray type="Float32" NumberOfComponents="3" format="ascii">
 0 0 0 0.005 0 0 0.01 0 0 0.015 0 0 0.02 0 0 0.025 0 0 0.03 0 0 0.035 0 0 0.04 0 0 0.045 0 0 0.05 0 0 0.055 0 0 0.06 0 0 0.065 0 0 0.07 0 0 0.075 0 0 0.08 0 0 0.085 0 0 0.09 0 0 0.095 0 0 0.1 0 0 0.105 0 0 0.11 0 0 0.115 0 0 0.12 0 0 0.125 0 0 0.13 0 0 0.135 0 0 0.14 0 0 0.145 0 0 0.15 0 0 0.155 0 0 0.16 0 0 0.165 0 0 0.17 0 0 0.175 0 0 0.18 0 0 0.185 0 0 0.19 0 0 0.195 0 0 0.2 0 0 0.205 0 0 0.21 0 0 0.215 0 0 0.22 0 0 0.225 0 0 0.23 0 0 0.235 0 0 0.24 0 0 0.245 0 0 0.25 0 0 0.255 0 0 0.26 0 0 0.265 0 0 0.27 0 0 0.275 0 0 0.28 0 0 0.285 0 0 0.29 0 0 0.295 0 0 0.300001 0 0 0.305002 0 0 0.310006 0 0 0.315018 0 0 0.320045 0 0 0.325103 0 0 0.330212 0 0 0.335394 0 0 0.340672 0 0 0.346063 0 0 0.351584 0 0 0.357248 0 0 0.363066 0 0 0.369051 0 0 0.375215 0 0 0.381571 0 0 0.388136 0 0 0.394923 0 0 0.401952 0 0 0.409243 0 0 0.416818 0 0 0.424703 0 0 0.432925 0 0 0.441519 0 0 0.45052 0 0 0.45997 0 0 0.469915 0 0 0.480401 0 0 0.491468 0 0 0.503119 0 0 0.515226 0 0 0.527405 0 0 0.539463 0 0 0.551402 0 0 0.563246 0 0 0.575032 0 0 0.586789 0 0 0.598534 0 0 0.610275 0 0 0.622017 0 0 0.633772 0 0 0.636386 0 0 0.638925 0 0 0.641418 0 0 0.643879 0 0 0.646318 0 0 0.64874 0 0 0.651149 0 0 0.653547 0 0 0.655939 0 0 0.658327 0 0 0.660709 0 0 0.663086 0 0 0.665458 0 0 0.667828 0 0 0.670195 0 0 0.672561 0 0 0.674925 0 0 0.677287 0 0 0.679647 0 0 0.682007 0 0 0.684366 0 0 0.686724 0 0 0.689081 0 0 0.691438 0 0 0.693796 0 0 0.696154 0 0 0.698511 0 0 0.700867 0 0 0.703223 0 0 0.705578 0 0 0.707933 0 0 0.710288 0 0 0.712647 0 0 0.715006 0 0 0.717365 0 0 0.719722 0 0 0.722077 0 0 0.724432 0 0 0.726786 0 0 0.729143 0 0 0.731508 0 0 0.733871 0 0 0.736245 0 0 0.738621 0 0 0.741042 0 0 0.743535 0 0 0.746114 0 0 0.748831 0 0 0.751714 0 0 0.754841 0 0 0.758256 0 0 0.762014 0 0 0.766124 0 0 0.770559 0 0 0.775247 0 0 0.7801 0 0 0.785038 0 0 0.790014 0 0 0.795005 0 0 0.800002 0 0 0.805001 0 0 0.81 0 0 0.815 0 0 0.82 0 0 0.825 0 0 0.83 0 0 0.835 0 0 0.84 0 0 0.845 0 0 0.85 0 0 0.855 0 0 0.86 0 0 0.865 0 0 0.87 0 0 0.875 0 0 0.88 0 0 0.885 0 0 0.89 0 0 0.895 0 0 0.9 0 0 0.905 0 0 0.91 0 0 0.915 0 0 0.92 0 0 0.925 0 0 0.93 0 0 0.935 0 0 0.94 0 0 0.945 0 0 0.95 0 0 0.955 0 0 0.96 0 0 0.965 0 0 0.97 0 0 0.975 0 0 0.98 0 0 0.985 0 0 0.99 0 0 0.995 0 0 1 0 0 0 0.02 0 0.005 0.02 0 0.01 0.02 0 0.015 0.02 0 0.02 0.02 0 0.025 0.02 0 0.03 0.02 0 0.035 0.02 0 0.04 0.02 0 0.045 0.02 0 0.05 0.02 0 0.055 0.02 0 0.06 0.02 0 0.065 0.02 0 0.07 0.02 0 0.075 0.02 0 0.08 0.02 0 0.085 0.02 0 0.09 0.02 0 0.095 0.02 0 0.1 0.02 0 0.105 0.02 0 0.11 0.02 0 0.115 0.02 0 0.12 0.02 0 0.125 0.02 0 0.13 0.02 0 0.135 0.02 0 0.14 0.02 0 0.145 0.02 0 0.15 0.02 0 0.155 0.02 0 0.16 0.02 0 0.165 0.02 0 0.17 0.02 0 0.175 0.02 0 0.18 0.02 0 0.185 0.02 0 0.19 0.02 0 0.195 0.02 0 0.2 0.02 0 0.205 0.02 0 0.21 0.02 0 0.215 0.02 0 0.22 0.02 0 0.225 0.02 0 0.23 0.02 0 0.235 0.02 0 0.24 0.02 0 0.245 0.02 0 0.25 0.02 0 0.255 0.02 0 0.26 0.02 0 0.265 0.02 0 0.27 0.02 0 0.275 0.02 0 0.28 0.02 0 0.285 0.02 0 0.29 0.02 0 0.295 0.02 0 0.300001 0.02 0 0.305002 0.02 0 0.310006 0.02 0 0.315018 0.02 0 0.320045 0.02 0 0.325103 0.02 0 0.330212 0.02 0 0.335394 0.02 0 0.340672 0.02 0 0.346063 0.02 0 0.351584 0.02 0 0.357248 0.02 0 0.363066 0.02 0 0.369051 0.02 0 0.375215 0.02 0 0.381571 0.02 0 0.388136 0.02 0 0.394923 0.02 0 0.401952 0.02 0 0.409243 0.02 0 0.416818 0.02 0 0.424703 0.02 0 0.432925 0.02 0 0.441519 0.02 0 0.45052 0.02 0 0.45997 0.02 0 0.469915 0.02 0 0.480401 0.02 0 0.491468 0.02 0 0.503119 0.02 0 0.515226 0.02 0 0.527405 0.02 0 0.539463 0.02 0 0.551402 0.02 0 0.563246 0.02 0 0.575032 0.02 0 0.586789 0.02 0 0.598534 0.02 0 0.610275 0.02 0 0.622017 0.02 0 0.633772 0.02 0 0.636386 0.02 0 0.638925 0.02 0 0.641418 0.02 0 0.643879 0.02 0 0.646318 0.02 0 0.64874 0.02 0 0.651149 0.02 0 0.653547 0.02 0 0.655939 0.02 0 0.658327 0.02 0 0.660709 0.02 0 0.663086 0.02 0 0.665458 0.02 0 0.667828 0.02 0 0.670195 0.02 0 0.672561 0.02 0 0.674925 0.02 0 0.677287 0.02 0 0.679647 0.02 0 0.682007 0.02 0 0.684366 0.02 0 0.686724 0.02 0 0.689081 0.02 0 0.691438 0.02 0 0.693796 0.02 0 0.696154 0.02 0 0.698511 0.02 0 0.700867 0.02 0 0.703223 0.02 0 0.705578 0.02 0 0.707933 0.02 0 0.710288 0.02 0 0.712647 0.02 0 0.715006 0.02 0 0.717365 0.02 0 0.719722 0.02 0 0.722077 0.02 0 0.724432 0.02 0 0.726786 0.02 0 0.729143 0.02 0 0.731508 0.02 0 0.733871 0.02 0 0.736245 0.02 0 0.738621 0.02 0 0.741042 0.02 0 0.743535 0.02 0 0.746114 0.02 0 0.748831 0.02 0 0.751714 0.02 0 0.754841 0.02 0 0.758256 0.02 0 0.762014 0.02 0 0.766124 0.02 0 0.770559 0.02 0 0.775247 0.02 0 0.7801 0.02 0 0.785038 0.02 0 0.790014 0.02 0 0.795005 0.02 0 0.800002 0.02 0 0.805001 0.02 0 0.81 0.02 0 0.815 0.02 0 0.82 0.02 0 0.825 0.02 0 0.83 0.02 0 0.835 0.02 0 0.84 0.02 0 0.845 0.02 0 0.85 0.02 0 0.855 0.02 0 0.86 0.02 0 0.865 0.02 0 0.87 0.02 0 0.875 0.02 0 0.88 0.02 0 0.885 0.02 0 0.89 0.02 0 0.895 0.02 0 0.9 0.02 0 0.905 0.02 0 0.91 0.02 0 0.915 0.02 0 0.92 0.02 0 0.925 0.02 0 0.93 0.02 0 0.935 0.02 0 0.94 0.02 0 0.945 0.02 0 0.95 0.02 0 0.955 0.02 0 0.96 0.02 0 0.965 0.02 0 0.97 0.02 0 0.975 0.02 0 0.98 0.02 0 0.985 0.02 0 0.99 0.02 0 0.995 0.02 0 1 0.02 0 0 0.04 0 0.005 0.04 0 0.01 0.04 0 0.015 0.04 0 0.02 0.04 0 0.025 0.04 0 0.03 0.04 0 0.035 0.04 0 0.04 0.04 0 0.045 0.04 0 0.05 0.04 0 0.055 0.04 0 0.06 0.04 0 0.065 0.04 0 0.07 0.04 0 0.075 0.04 0 0.08 0.04 0 0.085 0.04 0 0.09 0.04 0 0.095 0.04 0 0.1 0.04 0 0.105 0.04 0 0.11 0.04 0 0.115 0.04 0 0.12 0.04 0 0.125 0.04 0 0.13 0.04 0 0.135 0.04 0 0.14 0.04 0 0.145 0.04 0 0.15 0.04 0 0.155 0.04 0 0.16 0.04 0 0.165 0.04 0 0.17 0.04 0 0.175 0.04 0 0.18 0.04 0 0.185 0.04 0 0.19 0.04 0 0.195 0.04 0 0.2 0.04 0 0.205 0.04 0 0.21 0.04 0 0.215 0.04 0 0.22 0.04 0 0.225 0.04 0 0.23 0.04 0 0.235 0.04 0 0.24 0.04 0 0.245 0.04 0 0.25 0.04 0 0.255 0.04 0 0.26 0.04 0 0.265 0.04 0 0.27 0.04 0 0.275 0.04 0 0.28 0.04 0 0.285 0.04 0 0.29 0.04 0 0.295 0.04 0 0.300001 0.04 0 0.305002 0.04 0 0.310006 0.04 0 0.315018 0.04 0 0.320045 0.04 0 0.325103 0.04 0 0.330212 0.04 0 0.335394 0.04 0 0.340672 0.04 0 0.346063 0.04 0 0.351584 0.04 0 0.357248 0.04 0 0.363066 0.04 0 0.369051 0.04 0 0.375215 0.04 0 0.381571 0.04 0 0.388136 0.04 0 0.394923 0.04 0 0.401952 0.04 0 0.409243 0.04 0 0.416818 0.04 0 0.424703 0.04 0 0.432925 0.04 0 0.441519 0.04 0 0.45052 0.04 0 0.45997 0.04 0 0.469915 0.04 0 0.480401 0.04 0 0.491468 0.04 0 0.503119 0.04 0 0.515226 0.04 0 0.527405 0.04 0 0.539463 0.04 0 0.551402 0.04 0 0.563246 0.04 0 0.575032 0.04 0 0.586789 0.04 0 0.598534 0.04 0 0.610275 0.04 0 0.622017 0.04 0 0.633772 0.04 0 0.636386 0.04 0 0.638925 0.04 0 0.641418 0.04 0 0.643879 0.04 0 0.646318 0.04 0 0.64874 0.04 0 0.651149 0.04 0 0.653547 0.04 0 0.655939 0.04 0 0.658327 0.04 0 0.660709 0.04 0 0.663086 0.04 0 0.665458 0.04 0 0.667828 0.04 0 0.670195 0.04 0 0.672561 0.04 0 0.674925 0.04 0 0.677287 0.04 0 0.679647 0.04 0 0.682007 0.04 0 0.684366 0.04 0 0.686724 0.04 0 0.689081 0.04 0 0.691438 0.04 0 0.693796 0.04 0 0.696154 0.04 0 0.698511 0.04 0 0.700867 0.04 0 0.703223 0.04 0 0.705578 0.04 0 0.707933 0.04 0 0.710288 0.04 0 0.712647 0.04 0 0.715006 0.04 0 0.717365 0.04 0 0.719722 0.04 0 0.722077 0.04 0 0.724432 0.04 0 0.726786 0.04 0 0.729143 0.04 0 0.731508 0.04 0 0.733871 0.04 0 0.736245 0.04 0 0.738621 0.04 0 0.741042 0.04 0 0.743535 0.04 0 0.746114 0.04 0 0.748831 0.04 0 0.751714 0.04 0 0.754841 0.04 0 0.758256 0.04 0 0.762014 0.04 0 0.766124 0.04 0 0.770559 0.04 0 0.775247 0.04 0 0.7801 0.04 0 0.785038 0.04 0 0.790014 0.04 0 0.795005 0.04 0 0.800002 0.04 0 0.805001 0.04 0 0.81 0.04 0 0.815 0.04 0 0.82 0.04 0 0.825 0.04 0 0.83 0.04 0 0.835 0.04 0 0.84 0.04 0 0.845 0.04 0 0.85 0.04 0 0.855 0.04 0 0.86 0.04 0 0.865 0.04 0 0.87 0.04 0 0.875 0.04 0 0.88 0.04 0 0.885 0.04 0 0.89 0.04 0 0.895 0.04 0 0.9 0.04 0 0.905 0.04 0 0.91 0.04 0 0.915 0.04 0 0.92 0.04 0 0.925 0.04 0 0.93 0.04 0 0.935 0.04 0 0.94 0.04 0 0.945 0.04 0 0.95 0.04 0 0.955 0.04 0 0.96 0.04 0 0.965 0.04 0 0.97 0.04 0 0.975 0.04 0 0.98 0.04 0 0.985 0.04 0 0.99 0.04 0 0.995 0.04 0 1 0.04 0 0 0.06 0 0.005 0.06 0 0.01 0.06 0 0.015 0.06 0 0.02 0.06 0 0.025 0.06 0 0.03 0.06 0 0.035 0.06 0 0.04 0.06 0 0.045 0.06 0 0.05 0.06 0 0.055 0.06 0 0.06 0.06 0 0.065 0.06 0 0.07 0.06 0 0.075 0.06 0 0.08 0.06 0 0.085 0.06 0 0.09 0.06 0 0.095 0.06 0 0.1 0.06 0 0.105 0.06 0 0.11 0.06 0 0.115 0.06 0 0.12 0.06 0 0.125 0.06 0 0.13 0.06 0 0.135 0.06 0 0.14 0.06 0 0.145 0.06 0 0.15 0.06 0 0.155 0.06 0 0.16 0.06 0 0.165 0.06 0 0.17 0.06 0 0.175 0.06 0 0.18 0.06 0 0.185 0.06 0 0.19 0.06 0 0.195 0.06 0 0.2 0.06 0 0.205 0.06 0 0.21 0.06 0 0.215 0.06 0 0.22 0.06 0 0.225 0.06 0 0.23 0.06 0 0.235 0.06 0 0.24 0.06 0 0.245 0.06 0 0.25 0.06 0 0.255 0.06 0 0.26 0.06 0 0.265 0.06 0 0.27 0.06 0 0.275 0.06 0 0.28 0.06 0 0.285 0.06 0 0.29 0.06 0 0.295 0.06 0 0.300001 0.06 0 0.305002 0.06 0 0.310006 0.06 0 0.315018 0.06 0 0.320045 0.06 0 0.325103 0.06 0 0.330212 0.06 0 0.335394 0.06 0 0.340672 0.06 0 0.346063 0.06 0 0.351584 0.06 0 0.357248 0.06 0 0.363066 0.06 0 0.369051 0.06 0 0.375215 0.06 0 0.381571 0.06 0 0.388136 0.06 0 0.394923 0.06 0 0.401952 0.06 0 0.409243 0.06 0 0.416818 0.06 0 0.424703 0.06 0 0.432925 0.06 0 0.441519 0.06 0 0.45052 0.06 0 0.45997 0.06 0 0.469915 0.06 0 0.480401 0.06 0 0.491468 0.06 0 0.503119 0.06 0 0.515226 0.06 0 0.527405 0.06 0 0.539463 0.06 0 0.551402 0.06 0 0.563246 0.06 0 0.575032 0.06 0 0.586789 0.06 0 0.598534 0.06 0 0.610275 0.06 0 0.622017 0.06 0 0.633772 0.06 0 0.636386 0.06 0 0.638925 0.06 0 0.641418 0.06 0 0.643879 0.06 0 0.646318 0.06 0 0.64874 0.06 0 0.651149 0.06 0 0.653547 0.06 0 0.655939 0.06 0 0.658327 0.06 0 0.660709 0.06 0 0.663086 0.06 0 0.665458 0.06 0 0.667828 0.06 0 0.670195 0.06 0 0.672561 0.06 0 0.674925 0.06 0 0.677287 0.06 0 0.679647 0.06 0 0.682007 0.06 0 0.684366 0.06 0 0.686724 0.06 0 0.689081 0.06 0 0.691438 0.06 0 0.693796 0.06 0 0.696154 0.06 0 0.698511 0.06 0 0.700867 0.06
[...]
			<PointData Scalars="VitesseX">
				<DataArray Name="VitesseX" type="Float32" format="ascii">
 0 1.20967e-15 2.66793e-16 1.59836e-15 -1.64197e-15 3.79962e-15 1.59731e-15 3.7488e-15 -2.33462e-15 2.92777e-15 1.06791e-15 -1.01548e-15 9.46173e-16 1.32337e-14 1.43579e-14 -5.94006e-15 -5.79716e-15 9.32348e-15 1.34236e-14 -2.57143e-14 8.61375e-15 5.30023e-15 -5.16492e-15 3.11966e-15 7.72499e-15 1.40665e-15 -6.07431e-15 1.05609e-14 9.04169e-15 -2.33875e-14 2.24841e-14 -6.47707e-15 8.8914e-15 2.09144e-15 1.6793e-14 -6.73062e-15 2.26028e-14 -9.58002e-15 8.95892e-15 1.50236e-14 2.04999e-14 2.31548e-14 -7.20785e-16 5.25409e-14 1.36579e-14 6.23491e-14 5.60449e-14 1.55299e-13 4.01232e-13 3.23257e-12 2.28013e-11 1.49742e-10 9.28424e-10 5.42256e-09 2.9736e-08 1.52682e-07 7.31611e-07 3.25911e-06 1.34376e-05 5.10136e-05 0.000177219 0.00055929 0.0015903 0.00403955 0.00910175 0.0181384 0.0320983 0.0510324 0.0741705 0.10045 0.128987 0.159228 0.190885 0.223831 0.258027 0.293479 0.330222 0.368312 0.407819 0.448827 0.49143 0.535731 0.581837 0.629848 0.679838 0.731806 0.785563 0.840438 0.894441 0.94177 0.965802 0.956337 0.94666 0.93801 0.932444 0.929565 0.928286 0.927728 0.927446 0.927289 0.927201 0.927145 0.927088 0.927032 0.926981 0.926938 0.926905 0.926885 0.926875 0.926875 0.926913 0.926992 0.926954 0.92694 0.926919 0.926894 0.926869 0.92684 0.926797 0.926746 0.926675 0.926612 0.926565 0.92655 0.926647 0.92706 0.926771 0.926568 0.926201 0.925882 0.925662 0.9256 0.926178 0.927965 0.926682 0.925885 0.92494 0.923953 0.923536 0.924978 0.926599 0.928477 0.925227 0.925815 0.901315 0.881848 0.87288 0.813164 0.775614 0.683847 0.605895 0.481699 0.362665 0.240626 0.140146 0.0698886 0.0303016 0.0119419 0.00447905 0.00164339 0.000597094 0.000215799 7.76837e-05 2.78558e-05 9.94539e-06 3.53325e-06 1.24814e-06 4.38102e-07 1.52681e-07 5.27939e-08 1.80998e-08 6.14861e-09 2.0684e-09 6.88643e-10 2.26855e-10 7.38883e-11 2.37785e-11 7.52112e-12 2.39599e-12 7.70105e-13 2.2142e-13 -1.21371e-13 -3.38752e-14 -1.79706e-14 -1.12407e-13 -1.46667e-13 -8.50842e-14 9.25311e-14 -8.49461e-14 -1.88391e-15 -1.74807e-14 -6.87692e-14 -1.88987e-13 -2.80639e-14 -4.22077e-14 -1.29304e-13 -2.91267e-14 -1.17057e-13 -1.15536e-13 8.42854e-14 0 0 -1.06396e-15 1.52617e-15 9.24222e-16 1.21674e-15 -2.452e-15 2.84116e-15 2.40921e-15 4.20406e-15 -9.34441e-16 -3.65501e-15 -4.96619e-16 6.93796e-15 7.89134e-15 8.70578e-15 7.39134e-16 -3.2722e-15 -4.49725e-16 2.00152e-15 9.11087e-15 -2.29235e-15 -7.44191e-15 -9.87996e-16 5.85468e-15 -5.70931e-15 -9.6063e-16 2.50629e-14 -9.59857e-15 -4.12536e-15 1.19046e-14 -1.21731e-15 4.56374e-15 1.64195e-14 9.09048e-15 -1.50361e-15 -5.38285e-15 1.36471e-14 5.93318e-15 1.55489e-14 2.25633e-15 3.17762e-14 -6.61971e-15 1.75408e-14 2.89618e-14 2.65582e-14 5.39437e-14 7.74443e-14 1.5455e-13 4.38436e-13 3.24945e-12 2.27416e-11 1.49687e-10 9.28561e-10 5.42248e-09 2.97359e-08 1.52682e-07 7.3161e-07 3.25911e-06 1.34376e-05 5.10136e-05 0.000177219 0.00055929 0.0015903 0.00403955 0.00910175 0.0181384 0.0320983 0.0510324 0.0741705 0.10045 0.128987 0.159228 0.190885 0.223831 0.258027 0.293479 0.330222 0.368312 0.407819 0.448827 0.49143 0.535731 0.581837 0.629848 0.679838 0.731806 0.785563 0.840438 0.894441 0.94177 0.965802 0.956337 0.94666 0.93801 0.932444 0.929565 0.928286 0.927728 0.927446 0.927289 0.927201 0.927145 0.927088 0.927032 0.926981 0.926938 0.926905 0.926885 0.926875 0.926875 0.926913 0.926992 0.926954 0.92694 0.926919 0.926894 0.926869 0.92684 0.926797 0.926746 0.926675 0.926612 0.926565 0.92655 0.926647 0.92706 0.926771 0.926568 0.926201 0.925882 0.925662 0.9256 0.926178 0.927965 0.926682 0.925885 0.92494 0.923953 0.923536 0.924978 0.926599 0.928477 0.925227 0.925815 0.901315 0.881848 0.87288 0.813164 0.775614 0.683847 0.605895 0.481699 0.362665 0.240626 0.140146 0.0698886 0.0303016 0.0119419 0.00447905 0.00164339 0.000597094 0.000215799 7.76837e-05 2.78558e-05 9.94539e-06 3.53325e-06 1.24814e-06 4.38102e-07 1.52681e-07 5.27939e-08 1.80999e-08 6.14857e-09 2.06844e-09 6.88684e-10 2.26866e-10 7.38908e-11 2.38081e-11 7.58328e-12 2.26644e-12 8.55935e-13 1.81331e-13 -7.99441e-14 -5.42578e-14 -5.55715e-14 5.47352e-14 -1.16959e-13 -7.91087e-14 -2.96318e-14 9.68157e-15 3.31078e-14 -2.80851e-14 -1.11908e-13 -1.03381e-13 -8.43079e-14 -2.93407e-14 -1.82311e-13 -9.79834e-14 -3.3654e-14 -4.33562e-14 -7.87045e-14 0 0 1.08938e-16 -6.53067e-16 6.4313e-16 -4.05051e-16 -2.3937e-15 2.42603e-15 1.93094e-15 4.92049e-15 -2.72412e-15 3.21601e-15 2.42646e-15 3.54576e-16 9.32573e-16 9.71394e-15 -7.86557e-17 4.90639e-15 -1.15402e-14 8.79679e-15 5.87211e-15 -1.63791e-16 -1.1386e-14 -2.04544e-15 3.72263e-15 -3.4303e-15 6.69972e-15 1.33054e-14 -1.45049e-15 -1.52807e-14 2.12319e-14 -6.90324e-15 1.12304e-14 2.49452e-14 2.23825e-14 -3.28898e-14 1.54097e-14 1.38174e-14 2.47477e-14 -7.94732e-15 1.95732e-14 5.45967e-15 9.08574e-15 1.04346e-15 2.15367e-14 2.23551e-14 2.70063e-14 1.20548e-13 1.53917e-13 4.64343e-13 3.26147e-12 2.27324e-11 1.49605e-10 9.28618e-10 5.42245e-09 2.97358e-08 1.52682e-07 7.3161e-07 3.25911e-06 1.34376e-05 5.10136e-05 0.000177219 0.00055929 0.0015903 0.00403955 0.00910175 0.0181384 0.0320983 0.0510324 0.0741705 0.10045 0.128987 0.159228 0.190885 0.223831 0.258027 0.293479 0.330222 0.368312 0.407819 0.448827 0.49143 0.535731 0.581837 0.629848 0.679838 0.731806 0.785563 0.840438 0.894441 0.94177 0.965802 0.956337 0.94666 0.93801 0.932444 0.929565 0.928286 0.927728 0.927446 0.927289 0.927201 0.927145 0.927088 0.927032 0.926981 0.926938 0.926905 0.926885 0.926875 0.926875 0.926913 0.926992 0.926954 0.92694 0.926919 0.926894 0.926869 0.92684 0.926797 0.926746 0.926675 0.926612 0.926565 0.92655 0.926647 0.92706 0.926771 0.926568 0.926201 0.925882 0.925662 0.9256 0.926178 0.927965 0.926682 0.925885 0.92494 0.923953 0.923536 0.924978 0.926599 0.928477 0.925227 0.925815 0.901315 0.881848 0.87288 0.813164 0.775614 0.683847 0.605895 0.481699 0.362665 0.240626 0.140146 0.0698886 0.0303016 0.0119419 0.00447905 0.00164339 0.000597094 0.000215799 7.76837e-05 2.78558e-05 9.94539e-06 3.53325e-06 1.24814e-06 4.38102e-07 1.52681e-07 5.27939e-08 1.80998e-08 6.14872e-09 2.06839e-09 6.88761e-10 2.26739e-10 7.39176e-11 2.38392e-11 7.70424e-12 2.44786e-12 6.4088e-13 7.28085e-14 4.08039e-14 -7.09723e-14 -1.05643e-14 2.19458e-14 1.19078e-13 -4.14866e-14 -5.71299e-14 -1.09083e-13 8.4981e-14 -1.35924e-14 -2.00602e-14 -1.08066e-13 -1.0343e-13 -1.22305e-13 -1.69641e-13 -1.63615e-13 1.23935e-14 -1.17607e-13 -6.79772e-14 0 0 3.50575e-15 1.24182e-15 1.49879e-15 -1.34818e-15 -8.80222e-16 -9.6431e-16 -1.72577e-15 7.20546e-15 1.20909e-14 2.86228e-15 -3.91199e-15 -4.5452e-15 -8.7359e-16 8.31375e-15 -3.03683e-15 1.32029e-14 -1.02272e-14 3.48343e-15 -9.56667e-15 5.22564e-15 -5.16934e-15 -2.02478e-15 1.03228e-14 3.28127e-15 8.22597e-15 -1.559e-14 2.64878e-14 -1.20904e-14 -4.2749e-15 6.05802e-15 -1.01724e-14 2.64925e-14 2.87903e-14 -2.03849e-14 1.54668e-14 2.03471e-14 2.88923e-14 -7.6557e-15 2.75289e-14 -1.77922e-14 1.66361e-14 1.59376e-14 1.41783e-14 6.46383e-14 1.08402e-14 7.97552e-14 1.95847e-13 4.61335e-13 3.25322e-12 2.27656e-11 1.49539e-10 9.285e-10 5.42255e-09 2.97358e-08 1.52682e-07 7.3161e-07 3.25911e-06 1.34376e-05 5.10136e-05 0.000177219 0.00055929 0.0015903 0.00403955 0.00910175 0.0181384 0.0320983 0.0510324 0.0741705 0.10045 0.128987 0.159228 0.190885 0.223831 0.258027 0.293479 0.330222 0.368312 0.407819 0.448827 0.49143 0.535731 0.581837 0.629848 0.679838 0.731806 0.785563 0.840438 0.894441 0.94177 0.965802 0.956337 0.94666 0.93801 0.932444 0.929565 0.928286 0.927728 0.927446 0.927289 0.927201 0.927145 0.927088 0.927032 0.926981 0.926938 0.926905 0.926885 0.926875 0.926875 0.926913 0.926992 0.926954 0.92694 0.926919 0.926894 0.926869 0.92684 0.926797 0.926746 0.926675 0.926612 0.926565 0.92655 0.926647 0.92706 0.926771 0.926568 0.926201 0.925882 0.925662 0.9256 0.926178 0.927965 0.926682 0.925885 0.92494 0.923953 0.923536 0.924978 0.926599 0.928477 0.925227 0.925815 0.901315 0.881848 0.87288 0.813164 0.775614 0.683847 0.605895 0.481699 0.362665 0.240626 0.140146 0.0698886 0.0303016 0.0119419 0.00447905 0.00164339 0.000597094 0.000215799 7.76837e-05 2.78558e-05 9.94539e-06 3.53325e-06 1.24814e-06 4.38102e-07 1.52681e-07 5.27938e-08 1.80999e-08 6.14871e-09 2.06839e-09 6.88725e-10 2.26719e-10 7.39503e-11 2.37738e-11 7.66338e-12 2.65103e-12 5.78275e-13 7.04708e-14 1.38946e-13 -1.59018e-14 -2.69789e-14 -7.85176e-14 2.32857e-13 6.69888e-16 2.34841e-14 -8.70206e-14 1.8903e-14 -1.15519e-13 9.34555e-14 -1.43051e-13 -7.52977e-14 -9.58348e-14 1.84623e-16 -2.12583e-13 -1.59762e-13 -9.98066e-14 -5.65928e-14 0 0 2.2736e-15 4.42649e-15 1.48636e-15 -6.8476e-16 -3.59006e-15 -1.11874e-15 -2.3764e-16 1.17187e-14 1.25511e-14 6.70889e-16 1.77373e-15 -2.5195e-15 -1.03045e-15 -3.80467e-15 -1.34531e-15 8.34183e-15 -1.59618e-14 -1.07123e-14 -2.91224e-16 -1.12931e-15 -1.07857e-14 3.91713e-15 1.93502e-14 8.02396e-15 -4.47446e-15 1.66418e-14 3.1736e-14 -1.2363e-14 1.80494e-14 -4.51763e-15 -2.68035e-14 1.54623e-14 2.33125e-14 -7.36176e-15 2.61074e-14 1.82649e-14 1.6246e-14 2.10863e-15 1.97192e-14 1.82894e-14 -2.61115e-14 2.86881e-14 2.40543e-14 7.73741e-14 1.93742e-14 5.58656e-14 1.59884e-13 4.53802e-13 3.24761e-12 2.28003e-11 1.4949e-10 9.28434e-10 5.42261e-09 2.97358e-08 1.52682e-07 7.3161e-07 3.25911e-06 1.34376e-05 5.10136e-05 0.000177219 0.00055929 0.0015903 0.00403955 0.00910175 0.0181384 0.0320983 0.0510324 0.0741705 0.10045 0.128987 0.159228 0.190885 0.223831 0.258027 0.293479 0.330222 0.368312 0.407819 0.448827 0.49143 0.535731 0.581837 0.629848 0.679838 0.731806 0.785563 0.840438 0.894441 0.94177 0.965802 0.956337 0.94666 0.93801 0.932444 0.929565 0.928286 0.927728 0.927446 0.927289 0.927201 0.927145 0.927088 0.927032 0.926981 0.926938 0.926905 0.926885 0.926875 0.926875 0.926913 0.926992 0.926954 0.92694 0.926919 0.926894 0.926869 0.92684 0.926797 0.926746 0.926675 0.926612 0.926565 0.92655 0.926647 0.92706 0.926771 0.926568 0.926201 0.925882 0.925662 0.9256 0.926178 0.927965 0.926682 0.925885 0.92494 0.923953 0.923536 0.924978 0.926599 0.928477 0.925227 0.925815 0.901315 0.881848 0.87288 0.813164 0.775614 0.683847 0.605895 0.481699 0.362665 0.240626 0.140146 0.0698886 0.0303016 0.0119419 0.00447905 0.00164339 0.000597094 0.000215799 7.76837e-05 2.78558e-05 9.94539e-06 3.53325e-06 1.24814e-06 4.38102e-07 1.52681e-07 5.27937e-08 1.81e-08 6.14848e-09 2.06849e-09 6.88567e-10 2.26972e-10 7.40257e-11 2.37824e-11 7.56505e-12 2.4013e-12 7.95646e-13 7.7699e-14 1.1312e-13 2.91836e-14 1.09181e-15 1.20236e-13 -8.52307e-14 1.98059e-14 4.48368e-14 -4.30744e-14 1.04619e-14 -1.53861e-13 -8.70145e-14 2.38198e-14 6.26931e-14 7.13341e-15 -7.58669e-14 -1.20532e-13 -1.29785e-13 -7.50027e-14 -1.26422e-13 0 0 1.09117e-15 2.27765e-15 1.0113e-15 -3.55871e-15 -1.50344e-15 4.58173e-16 5.76854e-15 8.12477e-15 2.68784e-16 1.04272e-14 1.62021e-14 -8.16922e-15 -9.97549e-16 -7.86258e-15 -4.1926e-15 8.37886e-16 -2.43267e-14 -1.37723e-15 -1.36409e-14 1.60951e-16 -1.38207e-14 4.604e-15 1.69105e-14 2.17684e-14 -8.67352e-15 3.48743e-14 3.73534e-14 -1.38142e-14 3.99157e-14 -1.0039e-14 -2.64059e-14 3.88225e-15 1.77199e-14 -1.99329e-14 5.61355e-14 1.87787e-14 2.75637e-15 -1.85048e-14 3.40381e-14 4.003e-14 -3.09294e-14 -8.21439e-15 5.74428e-14 3.07234e-14 2.55423e-14 9.44737e-14 8.21065e-14 4.37981e-13 3.24539e-12 2.28525e-11 1.49481e-10 9.28406e-10 5.42265e-09 2.97357e-08 1.52682e-07 7.3161e-07 3.25911e-06 1.34376e-05 5.10136e-05 0.000177219 0.00055929 0.0015903 0.00403955 0.00910175 0.0181384 0.0320983 0.0510324 0.0741705 0.10045 0.128987 0.159228 0.190885 0.223831 0.258027 0.293479 0.330222 0.368312 0.407819 0.448827 0.49143 0.535731 0.581837 0.629848 0.679838 0.731806 0.785563 0.840438 0.894441 0.94177 0.965802 0.956337 0.94666 0.93801 0.932444 0.929565 0.928286 0.927728 0.927446 0.927289 0.927201 0.927145 0.927088 0.927032 0.926981 0.926938 0.926905 0.926885 0.926875 0.926875 0.926913 0.926992 0.926954 0.92694 0.926919 0.926894 0.926869 0.92684 0.926797 0.926746 0.926675 0.926612 0.926565 0.92655 0.926647 0.92706 0.926771 0.926568 0.926201 0.925882 0.925662 0.9256 0.926178 0.927965 0.926682 0.925885 0.92494 0.923953 0.923536 0.924978 0.926599 0.928477 0.925227 0.925815 0.901315 0.881848 0.87288 0.813164 0.775614 0.683847 0.605895 0.481699 0.362665 0.240626 0.140146 0.0698886 0.0303016 0.0119419 0.00447905 0.00164339 0.000597094 0.000215799 7.76837e-05 2.78558e-05 9.94539e-06 3.53325e-06 1.24815e-06 4.38102e-07 1.52681e-07 5.27937e-08 1.80999e-08 6.14845e-09 2.06849e-09 6.88481e-10 2.27106e-10 7.40922e-11 2.38574e-11 7.56603e-12 2.25932e-12 7.75406e-13 1.92973e-14 6.83735e-14 2.32564e-14 1.28812e-13 2.20001e-13 -3.1065e-13 2.86425e-14 8.04499e-14 -2.33958e-13 8.53343e-14 -6.53065e-14 -2.45569e-13 1.35548e-13 2.09572e-13 -2.182e-14 -2.55965e-13 2.36207e-14 3.53492e-14 -2.13993e-13 -3.33671e-14 0
				</DataArray>
				<DataArray Name="VitesseY" type="Float32" format="ascii">