<?xml version="1.0"?>
<VTKFile type="PolyData">
	<PolyData>
		<Piece NumberOfPoints="1206" NumberOfPolys="1000">
			<Points>
				<DataArray type="Float32" NumberOfComponents="3" format="ascii">
 0 0 0 0.005 0 0 0.01 0 0 0.015 0 0 0.02 0 0 0.025 0 0 0.03 0 0 0.035 0 0 0.04 0 0 0.045 0 0 0.05 0 0 0.055 0 0 0.06 0 0 0.065 0 0 0.07 0 0 0.075 0 0 0.08 0 0 0.085 0 0 0.09 0 0 0.095 0 0 0.1 0 0 0.105 0 0 0.11 0 0 0.115 0 0 0.12 0 0 0.125 0 0 0.13 0 0 0.135 0 0 0.14 0 0 0.145 0 0 0.15 0 0 0.155 0 0 0.16 0 0 0.165 0 0 0.17 0 0 0.175 0 0 0.18 0 0 0.185 0 0 0.19 0 0 0.195 0 0 0.2 0 0 0.205 0 0 0.21 0 0 0.215 0 0 0.22 0 0 0.225 0 0 0.23 0 0 0.235 0 0 0.24 0 0 0.245 0 0 0.25 0 0 0.255 0 0 0.26 0 0 0.265 0 0 0.27 0 0 0.275 0 0 0.28 0 0 0.285 0 0 0.29 0 0 0.295 0 0 0.3 0 0 0.305 0 0 0.31 0 0 0.315 0 0 0.32 0 0 0.325 0 0 0.330002 0 0 0.335006 0 0 0.340017 0 0 0.345046 0 0 0.35011 0 0 0.355233 0 0 0.360444 0 0 0.365771 0 0 0.371237 0 0 0.376861 0 0 0.382661 0 0 0.388654 0 0 0.394856 0 0 0.401286 0 0 0.407966 0 0 0.414918 0 0 0.422169 0 0 0.429748 0 0 0.437691 0 0 0.446036 0 0 0.45483 0 0 0.464125 0 0 0.473979 0 0 0.484453 0 0 0.495598 0 0 0.507396 0 0 0.519603 0 0 0.53175 0 0 0.543755 0 0 0.555636 0 0 0.567441 0 0 0.579211 0 0 0.590968 0 0 0.602721 0 0 0.614482 0 0 0.617096 0 0 0.619636 0 0 0.622128 0 0 0.62459 0 0 0.627029 0 0 0.629452 0 0 0.631862 0 0 0.634264 0 0 0.636658 0 0 0.639048 0 0 0.641433 0 0 0.643814 0 0 0.646193 0 0 0.648568 0 0 0.65094 0 0 0.653309 0 0 0.655676 0 0 0.658041 0 0 0.660405 0 0 0.662767 0 0 0.665128 0 0 0.667489 0 0 0.669849 0 0 0.672208 0 0 0.674567 0 0 0.676926 0 0 0.679284 0 0 0.681643 0 0 0.684002 0 0 0.686362 0 0 0.688723 0 0 0.691086 0 0 0.693453 0 0 0.695826 0 0 0.698213 0 0 0.700613 0 0 0.703048 0 0 0.705515 0 0 0.708057 0 0 0.710665 0 0 0.713421 0 0 0.716334 0 0 0.719509 0 0 0.72298 0 0 0.726804 0 0 0.730981 0 0 0.735473 0 0 0.740204 0 0 0.74508 0 0 0.75003 0 0 0.755011 0 0 0.760004 0 0 0.765001 0 0 0.77 0 0 0.775 0 0 0.78 0 0 0.785 0 0 0.79 0 0 0.795 0 0 0.8 0 0 0.805 0 0 0.81 0 0 0.815 0 0 0.82 0 0 0.825 0 0 0.83 0 0 0.835 0 0 0.84 0 0 0.845 0 0 0.85 0 0 0.855 0 0 0.86 0 0 0.865 0 0 0.87 0 0 0.875 0 0 0.88 0 0 0.885 0 0 0.89 0 0 0.895 0 0 0.9 0 0 0.905 0 0 0.91 0 0 0.915 0 0 0.92 0 0 0.925 0 0 0.93 0 0 0.935 0 0 0.94 0 0 0.945 0 0 0.95 0 0 0.955 0 0 0.96 0 0 0.965 0 0 0.97 0 0 0.975 0 0 0.98 0 0 0.985 0 0 0.99 0 0 0.995 0 0 1 0 0 0 0.02 0 0.005 0.02 0 0.01 0.02 0 0.015 0.02 0 0.02 0.02 0 0.025 0.02 0 0.03 0.02 0 0.035 0.02 0 0.04 0.02 0 0.045 0.02 0 0.05 0.02 0 0.055 0.02 0 0.06 0.02 0 0.065 0.02 0 0.07 0.02 0 0.075 0.02 0 0.08 0.02 0 0.085 0.02 0 0.09 0.02 0 0.095 0.02 0 0.1 0.02 0 0.105 0.02 0 0.11 0.02 0 0.115 0.02 0 0.12 0.02 0 0.125 0.02 0 0.13 0.02 0 0.135 0.02 0 0.14 0.02 0 0.145 0.02 0 0.15 0.02 0 0.155 0.02 0 0.16 0.02 0 0.165 0.02 0 0.17 0.02 0 0.175 0.02 0 0.18 0.02 0 0.185 0.02 0 0.19 0.02 0 0.195 0.02 0 0.2 0.02 0 0.205 0.02 0 0.21 0.02 0 0.215 0.02 0 0.22 0.02 0 0.225 0.02 0 0.23 0.02 0 0.235 0.02 0 0.24 0.02 0 0.245 0.02 0 0.25 0.02 0 0.255 0.02 0 0.26 0.02 0 0.265 0.02 0 0.27 0.02 0 0.275 0.02 0 0.28 0.02 0 0.285 0.02 0 0.29 0.02 0 0.295 0.02 0 0.3 0.02 0 0.305 0.02 0 0.31 0.02 0 0.315 0.02 0 0.32 0.02 0 0.325 0.02 0 0.330002 0.02 0 0.335006 0.02 0 0.340017 0.02 0 0.345046 0.02 0 0.35011 0.02 0 0.355233 0.02 0 0.360444 0.02 0 0.365771 0.02 0 0.371237 0.02 0 0.376861 0.02 0 0.382661 0.02 0 0.388654 0.02 0 0.394856 0.02 0 0.401286 0.02 0 0.407966 0.02 0 0.414918 0.02 0 0.422169 0.02 0 0.429748 0.02 0 0.437691 0.02 0 0.446036 0.02 0 0.45483 0.02 0 0.464125 0.02 0 0.473979 0.02 0 0.484453 0.02 0 0.495598 0.02 0 0.507396 0.02 0 0.519603 0.02 0 0.53175 0.02 0 0.543755 0.02 0 0.555636 0.02 0 0.567441 0.02 0 0.579211 0.02 0 0.590968 0.02 0 0.602721 0.02 0 0.614482 0.02 0 0.617096 0.02 0 0.619636 0.02 0 0.622128 0.02 0 0.62459 0.02 0 0.627029 0.02 0 0.629452 0.02 0 0.631862 0.02 0 0.634264 0.02 0 0.636658 0.02 0 0.639048 0.02 0 0.641433 0.02 0 0.643814 0.02 0 0.646193 0.02 0 0.648568 0.02 0 0.65094 0.02 0 0.653309 0.02 0 0.655676 0.02 0 0.658041 0.02 0 0.660405 0.02 0 0.662767 0.02 0 0.665128 0.02 0 0.667489 0.02 0 0.669849 0.02 0 0.672208 0.02 0 0.674567 0.02 0 0.676926 0.02 0 0.679284 0.02 0 0.681643 0.02 0 0.684002 0.02 0 0.686362 0.02 0 0.688723 0.02 0 0.691086 0.02 0 0.693453 0.02 0 0.695826 0.02 0 0.698213 0.02 0 0.700613 0.02 0 0.703048 0.02 0 0.705515 0.02 0 0.708057 0.02 0 0.710665 0.02 0 0.713421 0.02 0 0.716334 0.02 0 0.719509 0.02 0 0.72298 0.02 0 0.726804 0.02 0 0.730981 0.02 0 0.735473 0.02 0 0.740204 0.02 0 0.74508 0.02 0 0.75003 0.02 0 0.755011 0.02 0 0.760004 0.02 0 0.765001 0.02 0 0.77 0.02 0 0.775 0.02 0 0.78 0.02 0 0.785 0.02 0 0.79 0.02 0 0.795 0.02 0 0.8 0.02 0 0.805 0.02 0 0.81 0.02 0 0.815 0.02 0 0.82 0.02 0 0.825 0.02 0 0.83 0.02 0 0.835 0.02 0 0.84 0.02 0 0.845 0.02 0 0.85 0.02 0 0.855 0.02 0 0.86 0.02 0 0.865 0.02 0 0.87 0.02 0 0.875 0.02 0 0.88 0.02 0 0.885 0.02 0 0.89 0.02 0 0.895 0.02 0 0.9 0.02 0 0.905 0.02 0 0.91 0.02 0 0.915 0.02 0 0.92 0.02 0 0.925 0.02 0 0.93 0.02 0 0.935 0.02 0 0.94 0.02 0 0.945 0.02 0 0.95 0.02 0 0.955 0.02 0 0.96 0.02 0 0.965 0.02 0 0.97 0.02 0 0.975 0.02 0 0.98 0.02 0 0.985 0.02 0 0.99 0.02 0 0.995 0.02 0 1 0.02 0 0 0.04 0 0.005 0.04 0 0.01 0.04 0 0.015 0.04 0 0.02 0.04 0 0.025 0.04 0 0.03 0.04 0 0.035 0.04 0 0.04 0.04 0 0.045 0.04 0 0.05 0.04 0 0.055 0.04 0 0.06 0.04 0 0.065 0.04 0 0.07 0.04 0 0.075 0.04 0 0.08 0.04 0 0.085 0.04 0 0.09 0.04 0 0.095 0.04 0 0.1 0.04 0 0.105 0.04 0 0.11 0.04 0 0.115 0.04 0 0.12 0.04 0 0.125 0.04 0 0.13 0.04 0 0.135 0.04 0 0.14 0.04 0 0.145 0.04 0 0.15 0.04 0 0.155 0.04 0 0.16 0.04 0 0.165 0.04 0 0.17 0.04 0 0.175 0.04 0 0.18 0.04 0 0.185 0.04 0 0.19 0.04 0 0.195 0.04 0 0.2 0.04 0 0.205 0.04 0 0.21 0.04 0 0.215 0.04 0 0.22 0.04 0 0.225 0.04 0 0.23 0.04 0 0.235 0.04 0 0.24 0.04 0 0.245 0.04 0 0.25 0.04 0 0.255 0.04 0 0.26 0.04 0 0.265 0.04 0 0.27 0.04 0 0.275 0.04 0 0.28 0.04 0 0.285 0.04 0 0.29 0.04 0 0.295 0.04 0 0.3 0.04 0 0.305 0.04 0 0.31 0.04 0 0.315 0.04 0 0.32 0.04 0 0.325 0.04 0 0.330002 0.04 0 0.335006 0.04 0 0.340017 0.04 0 0.345046 0.04 0 0.35011 0.04 0 0.355233 0.04 0 0.360444 0.04 0 0.365771 0.04 0 0.371237 0.04 0 0.376861 0.04 0 0.382661 0.04 0 0.388654 0.04 0 0.394856 0.04 0 0.401286 0.04 0 0.407966 0.04 0 0.414918 0.04 0 0.422169 0.04 0 0.429748 0.04 0 0.437691 0.04 0 0.446036 0.04 0 0.45483 0.04 0 0.464125 0.04 0 0.473979 0.04 0 0.484453 0.04 0 0.495598 0.04 0 0.507396 0.04 0 0.519603 0.04 0 0.53175 0.04 0 0.543755 0.04 0 0.555636 0.04 0 0.567441 0.04 0 0.579211 0.04 0 0.590968 0.04 0 0.602721 0.04 0 0.614482 0.04 0 0.617096 0.04 0 0.619636 0.04 0 0.622128 0.04 0 0.62459 0.04 0 0.627029 0.04 0 0.629452 0.04 0 0.631862 0.04 0 0.634264 0.04 0 0.636658 0.04 0 0.639048 0.04 0 0.641433 0.04 0 0.643814 0.04 0 0.646193 0.04 0 0.648568 0.04 0 0.65094 0.04 0 0.653309 0.04 0 0.655676 0.04 0 0.658041 0.04 0 0.660405 0.04 0 0.662767 0.04 0 0.665128 0.04 0 0.667489 0.04 0 0.669849 0.04 0 0.672208 0.04 0 0.674567 0.04 0 0.676926 0.04 0 0.679284 0.04 0 0.681643 0.04 0 0.684002 0.04 0 0.686362 0.04 0 0.688723 0.04 0 0.691086 0.04 0 0.693453 0.04 0 0.695826 0.04 0 0.698213 0.04 0 0.700613 0.04 0 0.703048 0.04 0 0.705515 0.04 0 0.708057 0.04 0 0.710665 0.04 0 0.713421 0.04 0 0.716334 0.04 0 0.719509 0.04 0 0.72298 0.04 0 0.726804 0.04 0 0.730981 0.04 0 0.735473 0.04 0 0.740204 0.04 0 0.74508 0.04 0 0.75003 0.04 0 0.755011 0.04 0 0.760004 0.04 0 0.765001 0.04 0 0.77 0.04 0 0.775 0.04 0 0.78 0.04 0 0.785 0.04 0 0.79 0.04 0 0.795 0.04 0 0.8 0.04 0 0.805 0.04 0 0.81 0.04 0 0.815 0.04 0 0.82 0.04 0 0.825 0.04 0 0.83 0.04 0 0.835 0.04 0 0.84 0.04 0 0.845 0.04 0 0.85 0.04 0 0.855 0.04 0 0.86 0.04 0 0.865 0.04 0 0.87 0.04 0 0.875 0.04 0 0.88 0.04 0 0.885 0.04 0 0.89 0.04 0 0.895 0.04 0 0.9 0.04 0 0.905 0.04 0 0.91 0.04 0 0.915 0.04 0 0.92 0.04 0 0.925 0.04 0 0.93 0.04 0 0.935 0.04 0 0.94 0.04 0 0.945 0.04 0 0.95 0.04 0 0.955 0.04 0 0.96 0.04 0 0.965 0.04 0 0.97 0.04 0 0.975 0.04 0 0.98 0.04 0 0.985 0.04 0 0.99 0.04 0 0.995 0.04 0 1 0.04 0 0 0.06 0 0.005 0.06 0 0.01 0.06 0 0.015 0.06 0 0.02 0.06 0 0.025 0.06 0 0.03 0.06 0 0.035 0.06 0 0.04 0.06 0 0.045 0.06 0 0.05 0.06 0 0.055 0.06 0 0.06 0.06 0 0.065 0.06 0 0.07 0.06 0 0.075 0.06 0 0.08 0.06 0 0.085 0.06 0 0.09 0.06 0 0.095 0.06 0 0.1 0.06 0 0.105 0.06 0 0.11 0.06 0 0.115 0.06 0 0.12 0.06 0 0.125 0.06 0 0.13 0.06 0 0.135 0.06 0 0.14 0.06 0 0.145 0.06 0 0.15 0.06 0 0.155 0.06 0 0.16 0.06 0 0.165 0.06 0 0.17 0.06 0 0.175 0.06 0 0.18 0.06 0 0.185 0.06 0 0.19 0.06 0 0.195 0.06 0 0.2 0.06 0 0.205 0.06 0 0.21 0.06 0 0.215 0.06 0 0.22 0.06 0 0.225 0.06 0 0.23 0.06 0 0.235 0.06 0 0.24 0.06 0 0.245 0.06 0 0.25 0.06 0 0.255 0.06 0 0.26 0.06 0 0.265 0.06 0 0.27 0.06 0 0.275 0.06 0 0.28 0.06 0 0.285 0.06 0 0.29 0.06 0 0.295 0.06 0 0.3 0.06 0 0.305 0.06 0 0.31 0.06 0 0.315 0.06 0 0.32 0.06 0 0.325 0.06 0 0.330002 0.06 0 0.335006 0.06 0 0.340017 0.06 0 0.345046 0.06 0 0.35011 0.06 0 0.355233 0.06 0 0.360444 0.06 0 0.365771 0.06 0 0.371237 0.06 0 0.376861 0.06 0 0.382661 0.06 0 0.388654 0.06 0 0.394856 0.06 0 0.401286 0.06 0 0.407966 0.06 0 0.414918 0.06 0 0.422169 0.06 0 0.429748 0.06 0 0.437691 0.06 0 0.446036 0.06 0 0.45483 0.06 0 0.464125 0.06 0 0.473979 0.06 0 0.484453 0.06 0 0.495598 0.06 0 0.507396 0.06 0 0.519603 0.06 0 0.53175 0.06 0 0.543755 0.06 0 0.555636 0.06 0 0.567441 0.06 0 0.579211 0.06 0 0.590968 0.06 0 0.602721 0.06 0 0.614482 0.06 0 0.617096 0.06 0 0.619636 0.06 0 0.622128 0.06 0 0.62459 0.06 0 0.627029 0.06 0 0.629452 0.06 0 0.631862 0.06 0 0.634264 0.06 0 0.636658 0.06 0 0.639048 0.06 0 0.641433 0.06 0 0.643814 0.06 0 0.646193 0.06 0 0.648568 0.06 0 0.65094 0.06 0 0.653309 0.06 0 0.655676 0.06 0 0.658041 0.06 0 0.660405 0.06 0 0.662767 0.06 0 0.665128 0.06 0 0.667489 0.06 0 0.669849 0.06 0 0.672208 0.06 0 0.674567 0.06 0 0.676926 0.06 0 0.679284 0.06 0 0.681643 0.06 0 0.684002 0.06 0 0.686362 0.06 0 0.688723 0.06 0 0.691086 0.06 0 0.693453 0.06 0 0.695826 0.06 0 0.698213 0.06 0 0.700613 0.06 0 0.703048 0.06 0 0.705515 0.06 0 0.708057 0.06 0 0.71066
[...]
			<PointData Scalars="VitesseX">
				<DataArray Name="VitesseX" type="Float32" format="ascii">
 0 -4.66834e-15 -8.63105e-15 -1.40419e-14 -1.60938e-14 -1.92785e-14 -2.09741e-14 -2.13012e-14 -1.91261e-14 -2.18443e-14 -2.60884e-14 -2.35092e-14 -2.00891e-14 -2.8269e-14 -2.21558e-14 -2.09116e-14 -2.5368e-14 -1.38775e-14 -2.37485e-14 -1.08829e-14 -2.6222e-14 -1.28518e-14 -1.20501e-14 -1.82873e-14 -9.92991e-16 -1.89244e-14 -2.91373e-14 -2.13662e-14 -1.41608e-14 -1.99891e-14 -2.52685e-14 -7.68775e-15 -2.81142e-14 -1.73447e-14 -2.4728e-14 -4.86916e-14 -2.71056e-14 -4.01348e-14 -2.95326e-14 -3.48597e-14 -3.23131e-14 -4.28973e-14 -3.07352e-14 -6.81826e-14 -1.92047e-14 -3.20626e-14 -4.06457e-14 -1.87907e-14 -6.19932e-15 -6.2725e-14 -7.79392e-15 -2.47398e-14 -1.45605e-14 6.15667e-14 7.44739e-13 5.70785e-12 4.30424e-11 3.05311e-10 2.03242e-09 1.26486e-08 7.33559e-08 3.95014e-07 1.96682e-06 9.01137e-06 3.77749e-05 0.000143894 0.000494052 0.00151461 0.00410471 0.00974935 0.020217 0.0367642 0.0594439 0.0872316 0.118785 0.15306 0.189452 0.227684 0.267661 0.309385 0.352913 0.398334 0.445769 0.495354 0.547243 0.601586 0.65851 0.718043 0.779944 0.843225 0.904681 0.954279 0.965605 0.952231 0.941387 0.934098 0.930512 0.929044 0.928266 0.927722 0.92738 0.92733 0.927283 0.927238 0.927195 0.927153 0.927111 0.92707 0.92703 0.92699 0.926951 0.926912 0.926871 0.926832 0.926789 0.926747 0.926699 0.926653 0.926596 0.926545 0.926473 0.926419 0.926322 0.926271 0.926133 0.926095 0.925872 0.92586 0.925435 0.92545 0.9245 0.924571 0.922083 0.922321 0.915484 0.916226 0.898451 0.900685 0.860255 0.866146 0.788162 0.777245 0.664587 0.588947 0.460065 0.338566 0.218863 0.123096 0.0591984 0.0249216 0.00963253 0.00356557 0.0012934 0.000464162 0.000165307 5.8457e-05 2.05175e-05 7.14219e-06 2.46372e-06 8.41477e-07 2.84343e-07 9.49896e-08 3.13518e-08 1.02176e-08 3.28631e-09 1.04271e-09 3.2616e-10 1.00531e-10 3.04986e-11 9.00833e-12 2.72147e-12 6.94698e-13 1.7575e-13 -7.53777e-15 2.93113e-14 -5.46516e-15 1.84596e-14 5.0169e-14 -3.60802e-14 5.79617e-14 4.52776e-14 1.22689e-13 8.1519e-14 4.88358e-14 6.76182e-14 5.36028e-14 1.38245e-13 8.43364e-14 1.01848e-13 3.59434e-15 -6.03785e-14 -9.96264e-14 2.16479e-14 5.93201e-14 -1.68995e-14 -6.88367e-14 2.8893e-14 -8.91664e-14 -3.41755e-14 -2.65123e-14 0 0 -4.56871e-15 -8.13948e-15 -1.41636e-14 -1.62e-14 -2.06417e-14 -1.95334e-14 -2.58793e-14 -1.62393e-14 -2.48542e-14 -2.38557e-14 -2.23632e-14 -2.88877e-14 -1.0372e-14 -2.66455e-14 -2.17692e-14 -1.71483e-14 -2.60375e-14 -1.20589e-14 -1.57353e-14 -1.42596e-14 -1.46144e-14 -2.26987e-14 -1.02955e-14 -1.26583e-14 -1.2144e-14 -1.75651e-14 -1.77642e-14 -1.66806e-14 -1.62013e-14 -2.90057e-14 -1.32256e-14 -2.66068e-14 -1.92272e-14 -3.46244e-14 -2.45914e-14 -4.31573e-14 -4.12652e-14 -3.15234e-14 -3.39918e-14 -3.4229e-14 -4.4591e-14 -3.65967e-14 -2.24536e-14 -4.06074e-14 -2.25448e-14 -2.85408e-14 -3.70625e-14 -2.48481e-14 -2.33965e-14 -3.17246e-14 -3.89978e-14 2.37562e-14 9.15804e-14 7.54352e-13 5.72952e-12 4.30429e-11 3.05324e-10 2.03243e-09 1.26486e-08 7.33559e-08 3.95014e-07 1.96682e-06 9.01137e-06 3.77749e-05 0.000143894 0.000494052 0.00151461 0.00410471 0.00974935 0.020217 0.0367642 0.0594439 0.0872316 0.118785 0.15306 0.189452 0.227684 0.267661 0.309385 0.352913 0.398334 0.445769 0.495354 0.547243 0.601586 0.65851 0.718043 0.779944 0.843225 0.904681 0.954279 0.965605 0.952231 0.941387 0.934098 0.930512 0.929044 0.928266 0.927722 0.92738 0.92733 0.927283 0.927238 0.927195 0.927153 0.927111 0.92707 0.92703 0.92699 0.926951 0.926912 0.926871 0.926832 0.926789 0.926747 0.926699 0.926653 0.926596 0.926545 0.926473 0.926419 0.926322 0.926271 0.926133 0.926095 0.925872 0.92586 0.925435 0.92545 0.9245 0.924571 0.922083 0.922321 0.915484 0.916226 0.898451 0.900685 0.860255 0.866146 0.788162 0.777245 0.664587 0.588947 0.460065 0.338566 0.218863 0.123096 0.0591984 0.0249216 0.00963253 0.00356557 0.0012934 0.000464162 0.000165307 5.8457e-05 2.05175e-05 7.14219e-06 2.46372e-06 8.41477e-07 2.84343e-07 9.49897e-08 3.13518e-08 1.02176e-08 3.28631e-09 1.04269e-09 3.2622e-10 1.00501e-10 3.04315e-11 9.10511e-12 2.60031e-12 6.53078e-13 1.53794e-13 -2.11367e-14 -7.02546e-14 9.4477e-14 5.47555e-14 3.08885e-14 1.49796e-14 -1.66166e-14 5.6186e-14 7.58699e-14 1.07161e-13 7.98993e-14 7.39119e-14 4.91572e-14 1.23263e-13 6.84763e-14 1.31535e-14 1.78538e-14 1.53313e-14 -2.28299e-14 1.50215e-14 2.0737e-14 -6.13509e-14 9.5039e-14 -1.36762e-13 -6.98524e-14 3.06782e-14 -7.61376e-14 0 0 -4.35948e-15 -7.30631e-15 -1.3025e-14 -1.58643e-14 -2.16547e-14 -2.49513e-14 -2.12663e-14 -2.07251e-14 -2.14385e-14 -3.05241e-14 -2.1013e-14 -1.97329e-14 -1.09183e-14 -1.81516e-14 -9.89022e-15 -2.00544e-14 -2.67038e-14 -1.38486e-14 -1.71217e-14 -1.24683e-14 -1.14667e-14 -2.30959e-14 -1.6055e-14 -1.21663e-14 -3.4726e-15 7.90269e-15 -1.74463e-14 -1.23383e-14 -3.36106e-14 -1.00761e-14 -2.58429e-14 -1.92701e-14 -2.77166e-14 -3.91971e-14 -3.85529e-14 -3.57805e-14 -5.68843e-14 -3.5101e-14 -2.14606e-14 -2.94094e-14 -5.17637e-14 -2.68582e-14 -1.67406e-14 -2.78349e-14 -3.92729e-14 -1.63625e-14 -2.79881e-14 -1.92465e-14 -1.65615e-14 -2.12933e-14 -3.75374e-14 -1.13793e-15 1.57047e-13 8.05066e-13 5.80479e-12 4.30447e-11 3.05386e-10 2.03248e-09 1.26486e-08 7.33559e-08 3.95014e-07 1.96682e-06 9.01137e-06 3.77749e-05 0.000143894 0.000494052 0.00151461 0.00410471 0.00974935 0.020217 0.0367642 0.0594439 0.0872316 0.118785 0.15306 0.189452 0.227684 0.267661 0.309385 0.352913 0.398334 0.445769 0.495354 0.547243 0.601586 0.65851 0.718043 0.779944 0.843225 0.904681 0.954279 0.965605 0.952231 0.941387 0.934098 0.930512 0.929044 0.928266 0.927722 0.92738 0.92733 0.927283 0.927238 0.927195 0.927153 0.927111 0.92707 0.92703 0.92699 0.926951 0.926912 0.926871 0.926832 0.926789 0.926747 0.926699 0.926653 0.926596 0.926545 0.926473 0.926419 0.926322 0.926271 0.926133 0.926095 0.925872 0.92586 0.925435 0.92545 0.9245 0.924571 0.922083 0.922321 0.915484 0.916226 0.898451 0.900685 0.860255 0.866146 0.788162 0.777245 0.664587 0.588947 0.460065 0.338566 0.218863 0.123096 0.0591984 0.0249216 0.00963253 0.00356557 0.0012934 0.000464162 0.000165307 5.8457e-05 2.05175e-05 7.14219e-06 2.46372e-06 8.41477e-07 2.84343e-07 9.49896e-08 3.13518e-08 1.02176e-08 3.28636e-09 1.04263e-09 3.26128e-10 1.0053e-10 3.0394e-11 8.99647e-12 2.50096e-12 5.57118e-13 1.92356e-14 5.09947e-14 7.15405e-14 1.61398e-14 6.93494e-14 8.65628e-14 4.51471e-14 -1.28772e-13 7.99683e-14 2.42653e-14 3.40055e-14 7.30438e-14 7.88074e-14 3.76617e-14 1.07123e-13 1.24228e-14 6.31419e-14 3.04379e-14 9.95506e-14 -4.62193e-14 2.34605e-14 1.31021e-14 -8.51043e-14 8.79375e-14 -9.42252e-14 -5.21923e-14 8.94366e-15 -2.37703e-14 0 0 -3.45959e-15 -9.4951e-15 -1.06513e-14 -1.19664e-14 -2.41358e-14 -2.26612e-14 -2.64335e-14 -1.82817e-14 -1.44214e-14 -2.70722e-14 -2.19011e-14 -4.7708e-15 -2.63512e-14 -1.60587e-14 -4.23414e-15 -2.00298e-14 -1.38167e-14 -1.98771e-14 -4.27193e-15 -2.0622e-14 -2.12768e-14 -1.49961e-15 -2.59956e-14 7.06326e-15 -1.02352e-14 -5.76398e-16 -4.35129e-15 -4.26111e-16 -2.93165e-14 9.48257e-15 -4.75927e-14 -3.94679e-14 -4.08902e-14 -6.72586e-14 -1.87215e-14 -5.68138e-14 -4.87725e-14 -2.5531e-14 -1.42016e-14 -3.39257e-14 -5.3041e-14 -3.61896e-14 -4.82475e-16 -4.5354e-14 -2.76144e-14 -1.89023e-14 1.90762e-14 1.70698e-14 -5.97627e-14 -1.50011e-14 1.01781e-14 -2.65555e-16 1.02985e-13 8.52941e-13 5.8422e-12 4.30975e-11 3.05425e-10 2.03248e-09 1.26487e-08 7.3356e-08 3.95014e-07 1.96682e-06 9.01137e-06 3.77749e-05 0.000143894 0.000494052 0.00151461 0.00410471 0.00974935 0.020217 0.0367642 0.0594439 0.0872316 0.118785 0.15306 0.189452 0.227684 0.267661 0.309385 0.352913 0.398334 0.445769 0.495354 0.547243 0.601586 0.65851 0.718043 0.779944 0.843225 0.904681 0.954279 0.965605 0.952231 0.941387 0.934098 0.930512 0.929044 0.928266 0.927722 0.92738 0.92733 0.927283 0.927238 0.927195 0.927153 0.927111 0.92707 0.92703 0.92699 0.926951 0.926912 0.926871 0.926832 0.926789 0.926747 0.926699 0.926653 0.926596 0.926545 0.926473 0.926419 0.926322 0.926271 0.926133 0.926095 0.925872 0.92586 0.925435 0.92545 0.9245 0.924571 0.922083 0.922321 0.915484 0.916226 0.898451 0.900685 0.860255 0.866146 0.788162 0.777245 0.664587 0.588947 0.460065 0.338566 0.218863 0.123096 0.0591984 0.0249216 0.00963253 0.00356557 0.0012934 0.000464162 0.000165307 5.8457e-05 2.05175e-05 7.14219e-06 2.46372e-06 8.41477e-07 2.84343e-07 9.49895e-08 3.13518e-08 1.02176e-08 3.28629e-09 1.04256e-09 3.2604e-10 1.00468e-10 3.04337e-11 9.01546e-12 2.38513e-12 5.99336e-13 -1.30933e-14 1.5815e-14 5.29603e-14 -2.0914e-14 -5.20083e-14 1.57185e-13 1.33884e-13 -1.62736e-13 3.50804e-14 4.15704e-14 -3.55996e-14 9.44243e-14 1.01383e-13 1.16842e-13 9.76523e-14 -5.35495e-14 -5.83912e-14 1.3925e-13 -2.58383e-14 -2.30164e-14 -7.98401e-14 -1.10754e-13 -2.26971e-14 -7.44227e-14 -5.08377e-14 5.64805e-14 5.80936e-14 4.10397e-14 0 0 -5.17027e-15 -1.06137e-14 -1.71421e-14 -1.37708e-14 -2.3556e-14 -1.72245e-14 -3.14178e-14 -1.97222e-14 -5.69608e-16 -8.0368e-15 -2.18624e-14 -1.8361e-14 -3.25176e-14 -2.60129e-14 -1.25242e-14 -1.1132e-14 -1.276e-14 -5.12272e-15 -2.43688e-15 -8.45954e-15 -1.26151e-14 5.69549e-15 -3.88292e-15 9.05231e-15 -1.40329e-14 -1.80667e-14 -3.99281e-15 5.20004e-15 4.75279e-15 -8.27355e-15 -3.1975e-14 -6.70746e-14 -6.86521e-14 -5.31496e-14 -3.39868e-14 -5.65127e-14 -5.15626e-14 -4.03471e-14 -2.57291e-14 -4.95856e-14 -2.75595e-14 -2.07022e-14 -1.83404e-14 -5.29811e-14 -5.44576e-16 4.02081e-15 9.50195e-15 2.25099e-14 -3.19571e-14 -1.52811e-14 2.55725e-14 1.32346e-14 6.82816e-14 8.34748e-13 5.82579e-12 4.31032e-11 3.0546e-10 2.03248e-09 1.26487e-08 7.3356e-08 3.95014e-07 1.96682e-06 9.01137e-06 3.77749e-05 0.000143894 0.000494052 0.00151461 0.00410471 0.00974935 0.020217 0.0367642 0.0594439 0.0872316 0.118785 0.15306 0.189452 0.227684 0.267661 0.309385 0.352913 0.398334 0.445769 0.495354 0.547243 0.601586 0.65851 0.718043 0.779944 0.843225 0.904681 0.954279 0.965605 0.952231 0.941387 0.934098 0.930512 0.929044 0.928266 0.927722 0.92738 0.92733 0.927283 0.927238 0.927195 0.927153 0.927111 0.92707 0.92703 0.92699 0.926951 0.926912 0.926871 0.926832 0.926789 0.926747 0.926699 0.926653 0.926596 0.926545 0.926473 0.926419 0.926322 0.926271 0.926133 0.926095 0.925872 0.92586 0.925435 0.92545 0.9245 0.924571 0.922083 0.922321 0.915484 0.916226 0.898451 0.900685 0.860255 0.866146 0.788162 0.777245 0.664587 0.588947 0.460065 0.338566 0.218863 0.123096 0.0591984 0.0249216 0.00963253 0.00356557 0.0012934 0.000464162 0.000165307 5.8457e-05 2.05175e-05 7.14219e-06 2.46372e-06 8.41477e-07 2.84343e-07 9.49894e-08 3.13518e-08 1.02176e-08 3.28621e-09 1.04248e-09 3.26176e-10 1.0021e-10 3.04458e-11 9.10581e-12 2.46691e-12 7.09725e-13 9.12312e-16 -8.42025e-14 -2.1062e-13 -5.82996e-14 4.33412e-14 9.13566e-14 8.60276e-14 -7.12434e-14 6.48569e-14 1.24383e-14 -1.24269e-14 2.94377e-13 7.56844e-14 6.18235e-14 1.12949e-13 -1.70273e-14 -1.20842e-13 7.57985e-14 -1.03089e-13 -3.99274e-14 -8.41025e-14 -3.08778e-13 -1.09922e-14 -1.35846e-13 -1.53994e-13 -2.22612e-14 9.57661e-14 5.92273e-14 0 0 -7.67126e-15 -9.20193e-15 -2.47463e-14 -1.90309e-14 -2.01448e-14 -2.09365e-14 -2.20439e-14 -3.09788e-14 1.26908e-14 -1.35436e-15 -2.07315e-14 -2.89598e-14 -4.16944e-14 -2.50763e-14 -1.37337e-14 -1.33846e-14 -1.30966e-14 2.18091e-15 -9.98563e-15 1.68542e-15 1.07669e-14 1.54584e-15 1.4419e-14 3.96905e-15 -9.17693e-15 -1.31824e-14 -2.00134e-14 5.77613e-15 1.3331e-14 -2.29217e-14 -1.687e-15 -6.86542e-14 -8.98472e-14 -5.65523e-15 -1.07145e-13 -1.17498e-14 -7.69531e-14 -6.632e-14 -3.28524e-14 -5.39937e-14 -6.27965e-15 1.97165e-14 -9.24725e-14 -8.914e-15 -1.13791e-14 2.95571e-14 -1.97902e-14 1.58842e-14 6.55628e-15 1.25086e-14 8.9699e-15 -3.73485e-14 1.23092e-13 8.09779e-13 5.82558e-12 4.30576e-11 3.05505e-10 2.03253e-09 1.26487e-08 7.3356e-08 3.95014e-07 1.96682e-06 9.01137e-06 3.77749e-05 0.000143894 0.000494052 0.00151461 0.00410471 0.00974935 0.020217 0.0367642 0.0594439 0.0872316 0.118785 0.15306 0.189452 0.227684 0.267661 0.309385 0.352913 0.398334 0.445769 0.495354 0.547243 0.601586 0.65851 0.718043 0.779944 0.843225 0.904681 0.954279 0.965605 0.952231 0.941387 0.934098 0.930512 0.929044 0.928266 0.927722 0.92738 0.92733 0.927283 0.927238 0.927195 0.927153 0.927111 0.92707 0.92703 0.92699 0.926951 0.926912 0.926871 0.926832 0.926789 0.926747 0.926699 0.926653 0.926596 0.926545 0.926473 0.926419 0.926322 0.926271 0.926133 0.926095 0.925872 0.92586 0.925435 0.92545 0.9245 0.924571 0.922083 0.922321 0.915484 0.916226 0.898451 0.900685 0.860255 0.866146 0.788162 0.777245 0.664587 0.588947 0.460065 0.338566 0.218863 0.123096 0.0591984 0.0249216 0.00963253 0.00356557 0.0012934 0.000464162 0.000165307 5.8457e-05 2.05175e-05 7.14219e-06 2.46372e-06 8.41477e-07 2.84343e-07 9.49894e-08 3.13519e-08 1.02175e-08 3.28625e-09 1.04244e-09 3.26247e-10 1.00071e-10 3.04481e-11 8.97191e-12 2.68619e-12 7.23204e-13 -6.57098e-14 -6.3606e-14 -2.14296e-13 -2.36657e-13 2.38749e-13 3.04031e-14 -7.15626e-14 1.65677e-14 1.52846e-13 -3.87607e-14 -1.84691e-14 4.35315e-13 2.59778e-14 -7.92171e-14 1.36971e-13 4.5294e-14 7.71344e-14 -9.81369e-14 -4.6566e-14 -1.79822e-13 3.02604e-14 -3.51897e-13 -4.09198e-14 -2.05966e-13 -9.22335e-14 -2.112e-13 -2.40479e-15 1.1465e-13 0
				</DataArray>
				<DataArray Name="VitesseY" type="Float32" format="ascii">