<?xml version="1.0"?>
<VTKFile type="PolyData">
	<PolyData>
		<Piece NumberOfPoints="1206" NumberOfPolys="1000">
			<Points>
				<DataArray type="Float32" NumberOfComponents="3" format="ascii">
 0 0 0 0.005 0 0 0.01 0 0 0.015 0 0 0.02 0 0 0.025 0 0 0.03 0 0 0.035 0 0 0.04 0 0 0.045 0 0 0.05 0 0 0.055 0 0 0.06 0 0 0.065 0 0 0.07 0 0 0.075 0 0 0.08 0 0 0.085 0 0 0.09 0 0 0.095 0 0 0.1 0 0 0.105 0 0 0.11 0 0 0.115 0 0 0.12 0 0 0.125 0 0 0.13 0 0 0.135 0 0 0.14 0 0 0.145 0 0 0.15 0 0 0.155 0 0 0.16 0 0 0.165 0 0 0.17 0 0 0.175 0 0 0.18 0 0 0.185 0 0 0.19 0 0 0.195 0 0 0.2 0 0 0.205 0 0 0.21 0 0 0.215 0 0 0.22 0 0 0.225 0 0 0.23 0 0 0.235 0 0 0.24 0 0 0.245 0 0 0.25 0 0 0.255 0 0 0.26 0 0 0.265 0 0 0.27 0 0 0.275 0 0 0.28 0 0 0.285 0 0 0.29 0 0 0.295 0 0 0.3 0 0 0.305 0 0 0.31 0 0 0.315 0 0 0.32 0 0 0.325 0 0 0.33 0 0 0.335 0 0 0.34 0 0 0.345 0 0 0.35 0 0 0.355 0 0 0.36 0 0 0.365001 0 0 0.370002 0 0 0.375009 0 0 0.380028 0 0 0.385079 0 0 0.390193 0 0 0.39541 0 0 0.400774 0 0 0.406324 0 0 0.412094 0 0 0.418114 0 0 0.424417 0 0 0.431037 0 0 0.438015 0 0 0.445396 0 0 0.453238 0 0 0.461605 0 0 0.470577 0 0 0.480247 0 0 0.490714 0 0 0.502051 0 0 0.514154 0 0 0.526428 0 0 0.538498 0 0 0.550398 0 0 0.562203 0 0 0.57398 0 0 0.585763 0 0 0.58838 0 0 0.590922 0 0 0.593417 0 0 0.59588 0 0 0.598322 0 0 0.600747 0 0 0.60316 0 0 0.605563 0 0 0.60796 0 0 0.610352 0 0 0.612739 0 0 0.615123 0 0 0.617504 0 0 0.619882 0 0 0.622257 0 0 0.62463 0 0 0.627 0 0 0.629369 0 0 0.631737 0 0 0.634105 0 0 0.636474 0 0 0.638846 0 0 0.641222 0 0 0.643609 0 0 0.646009 0 0 0.648441 0 0 0.650902 0 0 0.653433 0 0 0.656026 0 0 0.658758 0 0 0.661636 0 0 0.664766 0 0 0.668183 0 0 0.67195 0 0 0.676073 0 0 0.680523 0 0 0.685226 0 0 0.690088 0 0 0.695032 0 0 0.700011 0 0 0.705004 0 0 0.710001 0 0 0.715 0 0 0.72 0 0 0.725 0 0 0.73 0 0 0.735 0 0 0.74 0 0 0.745 0 0 0.75 0 0 0.755 0 0 0.76 0 0 0.765 0 0 0.77 0 0 0.775 0 0 0.78 0 0 0.785 0 0 0.79 0 0 0.795 0 0 0.8 0 0 0.805 0 0 0.81 0 0 0.815 0 0 0.82 0 0 0.825 0 0 0.83 0 0 0.835 0 0 0.84 0 0 0.845 0 0 0.85 0 0 0.855 0 0 0.86 0 0 0.865 0 0 0.87 0 0 0.875 0 0 0.88 0 0 0.885 0 0 0.89 0 0 0.895 0 0 0.9 0 0 0.905 0 0 0.91 0 0 0.915 0 0 0.92 0 0 0.925 0 0 0.93 0 0 0.935 0 0 0.94 0 0 0.945 0 0 0.95 0 0 0.955 0 0 0.96 0 0 0.965 0 0 0.97 0 0 0.975 0 0 0.98 0 0 0.985 0 0 0.99 0 0 0.995 0 0 1 0 0 0 0.02 0 0.005 0.02 0 0.01 0.02 0 0.015 0.02 0 0.02 0.02 0 0.025 0.02 0 0.03 0.02 0 0.035 0.02 0 0.04 0.02 0 0.045 0.02 0 0.05 0.02 0 0.055 0.02 0 0.06 0.02 0 0.065 0.02 0 0.07 0.02 0 0.075 0.02 0 0.08 0.02 0 0.085 0.02 0 0.09 0.02 0 0.095 0.02 0 0.1 0.02 0 0.105 0.02 0 0.11 0.02 0 0.115 0.02 0 0.12 0.02 0 0.125 0.02 0 0.13 0.02 0 0.135 0.02 0 0.14 0.02 0 0.145 0.02 0 0.15 0.02 0 0.155 0.02 0 0.16 0.02 0 0.165 0.02 0 0.17 0.02 0 0.175 0.02 0 0.18 0.02 0 0.185 0.02 0 0.19 0.02 0 0.195 0.02 0 0.2 0.02 0 0.205 0.02 0 0.21 0.02 0 0.215 0.02 0 0.22 0.02 0 0.225 0.02 0 0.23 0.02 0 0.235 0.02 0 0.24 0.02 0 0.245 0.02 0 0.25 0.02 0 0.255 0.02 0 0.26 0.02 0 0.265 0.02 0 0.27 0.02 0 0.275 0.02 0 0.28 0.02 0 0.285 0.02 0 0.29 0.02 0 0.295 0.02 0 0.3 0.02 0 0.305 0.02 0 0.31 0.02 0 0.315 0.02 0 0.32 0.02 0 0.325 0.02 0 0.33 0.02 0 0.335 0.02 0 0.34 0.02 0 0.345 0.02 0 0.35 0.02 0 0.355 0.02 0 0.36 0.02 0 0.365001 0.02 0 0.370002 0.02 0 0.375009 0.02 0 0.380028 0.02 0 0.385079 0.02 0 0.390193 0.02 0 0.39541 0.02 0 0.400774 0.02 0 0.406324 0.02 0 0.412094 0.02 0 0.418114 0.02 0 0.424417 0.02 0 0.431037 0.02 0 0.438015 0.02 0 0.445396 0.02 0 0.453238 0.02 0 0.461605 0.02 0 0.470577 0.02 0 0.480247 0.02 0 0.490714 0.02 0 0.502051 0.02 0 0.514154 0.02 0 0.526428 0.02 0 0.538498 0.02 0 0.550398 0.02 0 0.562203 0.02 0 0.57398 0.02 0 0.585763 0.02 0 0.58838 0.02 0 0.590922 0.02 0 0.593417 0.02 0 0.59588 0.02 0 0.598322 0.02 0 0.600747 0.02 0 0.60316 0.02 0 0.605563 0.02 0 0.60796 0.02 0 0.610352 0.02 0 0.612739 0.02 0 0.615123 0.02 0 0.617504 0.02 0 0.619882 0.02 0 0.622257 0.02 0 0.62463 0.02 0 0.627 0.02 0 0.629369 0.02 0 0.631737 0.02 0 0.634105 0.02 0 0.636474 0.02 0 0.638846 0.02 0 0.641222 0.02 0 0.643609 0.02 0 0.646009 0.02 0 0.648441 0.02 0 0.650902 0.02 0 0.653433 0.02 0 0.656026 0.02 0 0.658758 0.02 0 0.661636 0.02 0 0.664766 0.02 0 0.668183 0.02 0 0.67195 0.02 0 0.676073 0.02 0 0.680523 0.02 0 0.685226 0.02 0 0.690088 0.02 0 0.695032 0.02 0 0.700011 0.02 0 0.705004 0.02 0 0.710001 0.02 0 0.715 0.02 0 0.72 0.02 0 0.725 0.02 0 0.73 0.02 0 0.735 0.02 0 0.74 0.02 0 0.745 0.02 0 0.75 0.02 0 0.755 0.02 0 0.76 0.02 0 0.765 0.02 0 0.77 0.02 0 0.775 0.02 0 0.78 0.02 0 0.785 0.02 0 0.79 0.02 0 0.795 0.02 0 0.8 0.02 0 0.805 0.02 0 0.81 0.02 0 0.815 0.02 0 0.82 0.02 0 0.825 0.02 0 0.83 0.02 0 0.835 0.02 0 0.84 0.02 0 0.845 0.02 0 0.85 0.02 0 0.855 0.02 0 0.86 0.02 0 0.865 0.02 0 0.87 0.02 0 0.875 0.02 0 0.88 0.02 0 0.885 0.02 0 0.89 0.02 0 0.895 0.02 0 0.9 0.02 0 0.905 0.02 0 0.91 0.02 0 0.915 0.02 0 0.92 0.02 0 0.925 0.02 0 0.93 0.02 0 0.935 0.02 0 0.94 0.02 0 0.945 0.02 0 0.95 0.02 0 0.955 0.02 0 0.96 0.02 0 0.965 0.02 0 0.97 0.02 0 0.975 0.02 0 0.98 0.02 0 0.985 0.02 0 0.99 0.02 0 0.995 0.02 0 1 0.02 0 0 0.04 0 0.005 0.04 0 0.01 0.04 0 0.015 0.04 0 0.02 0.04 0 0.025 0.04 0 0.03 0.04 0 0.035 0.04 0 0.04 0.04 0 0.045 0.04 0 0.05 0.04 0 0.055 0.04 0 0.06 0.04 0 0.065 0.04 0 0.07 0.04 0 0.075 0.04 0 0.08 0.04 0 0.085 0.04 0 0.09 0.04 0 0.095 0.04 0 0.1 0.04 0 0.105 0.04 0 0.11 0.04 0 0.115 0.04 0 0.12 0.04 0 0.125 0.04 0 0.13 0.04 0 0.135 0.04 0 0.14 0.04 0 0.145 0.04 0 0.15 0.04 0 0.155 0.04 0 0.16 0.04 0 0.165 0.04 0 0.17 0.04 0 0.175 0.04 0 0.18 0.04 0 0.185 0.04 0 0.19 0.04 0 0.195 0.04 0 0.2 0.04 0 0.205 0.04 0 0.21 0.04 0 0.215 0.04 0 0.22 0.04 0 0.225 0.04 0 0.23 0.04 0 0.235 0.04 0 0.24 0.04 0 0.245 0.04 0 0.25 0.04 0 0.255 0.04 0 0.26 0.04 0 0.265 0.04 0 0.27 0.04 0 0.275 0.04 0 0.28 0.04 0 0.285 0.04 0 0.29 0.04 0 0.295 0.04 0 0.3 0.04 0 0.305 0.04 0 0.31 0.04 0 0.315 0.04 0 0.32 0.04 0 0.325 0.04 0 0.33 0.04 0 0.335 0.04 0 0.34 0.04 0 0.345 0.04 0 0.35 0.04 0 0.355 0.04 0 0.36 0.04 0 0.365001 0.04 0 0.370002 0.04 0 0.375009 0.04 0 0.380028 0.04 0 0.385079 0.04 0 0.390193 0.04 0 0.39541 0.04 0 0.400774 0.04 0 0.406324 0.04 0 0.412094 0.04 0 0.418114 0.04 0 0.424417 0.04 0 0.431037 0.04 0 0.438015 0.04 0 0.445396 0.04 0 0.453238 0.04 0 0.461605 0.04 0 0.470577 0.04 0 0.480247 0.04 0 0.490714 0.04 0 0.502051 0.04 0 0.514154 0.04 0 0.526428 0.04 0 0.538498 0.04 0 0.550398 0.04 0 0.562203 0.04 0 0.57398 0.04 0 0.585763 0.04 0 0.58838 0.04 0 0.590922 0.04 0 0.593417 0.04 0 0.59588 0.04 0 0.598322 0.04 0 0.600747 0.04 0 0.60316 0.04 0 0.605563 0.04 0 0.60796 0.04 0 0.610352 0.04 0 0.612739 0.04 0 0.615123 0.04 0 0.617504 0.04 0 0.619882 0.04 0 0.622257 0.04 0 0.62463 0.04 0 0.627 0.04 0 0.629369 0.04 0 0.631737 0.04 0 0.634105 0.04 0 0.636474 0.04 0 0.638846 0.04 0 0.641222 0.04 0 0.643609 0.04 0 0.646009 0.04 0 0.648441 0.04 0 0.650902 0.04 0 0.653433 0.04 0 0.656026 0.04 0 0.658758 0.04 0 0.661636 0.04 0 0.664766 0.04 0 0.668183 0.04 0 0.67195 0.04 0 0.676073 0.04 0 0.680523 0.04 0 0.685226 0.04 0 0.690088 0.04 0 0.695032 0.04 0 0.700011 0.04 0 0.705004 0.04 0 0.710001 0.04 0 0.715 0.04 0 0.72 0.04 0 0.725 0.04 0 0.73 0.04 0 0.735 0.04 0 0.74 0.04 0 0.745 0.04 0 0.75 0.04 0 0.755 0.04 0 0.76 0.04 0 0.765 0.04 0 0.77 0.04 0 0.775 0.04 0 0.78 0.04 0 0.785 0.04 0 0.79 0.04 0 0.795 0.04 0 0.8 0.04 0 0.805 0.04 0 0.81 0.04 0 0.815 0.04 0 0.82 0.04 0 0.825 0.04 0 0.83 0.04 0 0.835 0.04 0 0.84 0.04 0 0.845 0.04 0 0.85 0.04 0 0.855 0.04 0 0.86 0.04 0 0.865 0.04 0 0.87 0.04 0 0.875 0.04 0 0.88 0.04 0 0.885 0.04 0 0.89 0.04 0 0.895 0.04 0 0.9 0.04 0 0.905 0.04 0 0.91 0.04 0 0.915 0.04 0 0.92 0.04 0 0.925 0.04 0 0.93 0.04 0 0.935 0.04 0 0.94 0.04 0 0.945 0.04 0 0.95 0.04 0 0.955 0.04 0 0.96 0.04 0 0.965 0.04 0 0.97 0.04 0 0.975 0.04 0 0.98 0.04 0 0.985 0.04 0 0.99 0.04 0 0.995 0.04 0 1 0.04 0 0 0.06 0 0.005 0.06 0 0.01 0.06 0 0.015 0.06 0 0.02 0.06 0 0.025 0.06 0 0.03 0.06 0 0.035 0.06 0 0.04 0.06 0 0.045 0.06 0 0.05 0.06 0 0.055 0.06 0 0.06 0.06 0 0.065 0.06 0 0.07 0.06 0 0.075 0.06 0 0.08 0.06 0 0.085 0.06 0 0.09 0.06 0 0.095 0.06 0 0.1 0.06 0 0.105 0.06 0 0.11 0.06 0 0.115 0.06 0 0.12 0.06 0 0.125 0.06 0 0.13 0.06 0 0.135 0.06 0 0.14 0.06 0 0.145 0.06 0 0.15 0.06 0 0.155 0.06 0 0.16 0.06 0 0.165 0.06 0 0.17 0.06 0 0.175 0.06 0 0.18 0.06 0 0.185 0.06 0 0.19 0.06 0 0.195 0.06 0 0.2 0.06 0 0.205 0.06 0 0.21 0.06 0 0.215 0.06 0 0.22 0.06 0 0.225 0.06 0 0.23 0.06 0 0.235 0.06 0 0.24 0.06 0 0.245 0.06 0 0.25 0.06 0 0.255 0.06 0 0.26 0.06 0 0.265 0.06 0 0.27 0.06 0 0.275 0.06 0 0.28 0.06 0 0.285 0.06 0 0.29 0.06 0 0.295 0.06 0 0.3 0.06 0 0.305 0.06 0 0.31 0.06 0 0.315 0.06 0 0.32 0.06 0 0.325 0.06 0 0.33 0.06 0 0.335 0.06 0 0.34 0.06 0 0.345 0.06 0 0.35 0.06 0 0.355 0.06 0 0.36 0.06 0 0.365001 0.06 0 0.370002 0.06 0 0.375009 0.06 0 0.380028 0.06 0 0.385079 0.06 0 0.390193 0.06 0 0.39541 0.06 0 0.400774 0.06 0 0.406324 0.06 0 0.412094 0.06 0 0.418114 0.06 0 0.424417 0.06 0 0.431037 0.06 0 0.438015 0.06 0 0.445396 0.06 0 0.453238 0.06 0 0.461605 0.06 0 0.470577 0.06 0 0.480247 0.06 0 0.490714 0.06 0 0.502051 0.06 0 0.514154 0.06 0 0.526428 0.06 0 0.538498 0.06 0 0.550398 0.06 0 0.562203 0.06 0 0.57398 0.06 0 0.585763 0.06 0 0.58838 0.06 0 0.590922 0.06 0 0.593417 0.06 0 0.59588 0.06 0 0.598322 0.06 0 0.600747 0.06 0 0.60316 0.06 0 0.605563 0.06 0 0.60796 0.06 0 0.610352 0.06 0 0.612739 0.06 0 0.615123 0.06 0 0.617504 0.06 0 0.619882 0.06 0 0.622257 0.06 0 0.62463 0.06 0 0.627 0.06 0 0.629369 0.06 0 0.631737 0.06 0 0.634105 0.06 0 0.636474 0.06 0 0.638846 0.06 0 0.641222 0.06 0 0.643609 0.06 0 0.646009 0.06 0 0.648441 0.06 0 0.650902 0.06 0 0.653433 0.06 0 0.656026 0.06 0 0.658758 0.06 0 0.661636 0.06 0 0.664766 0.06 0 0.668183 0.06 0 0.67195 0.06 0 0.676073 0.06 0 0.680523 0.06 0 0.685226 0.06 0 0.690088 0.06 0 0.695032 0.06 0 0.700011 0.06 0 0.705004 0.06 0 0.710001 0.06 0 0.715 0.06 0 0.72 0.06 0 0.725 0.06 0 0.73 0.06 0 0.735 0.06 0 0.74 0.06 0 0.745 0.06 0 0.75 0.06 0 0.755 0.06 0 0.76 0.06 0 0.765 0.06 0 0.77 0.06 0 0.775 0.06 0 0.78 0.06 0 0.785 0.06 0 
[...]
			<PointData Scalars="VitesseX">
				<DataArray Name="VitesseX" type="Float32" format="ascii">
 0 -6.54472e-16 2.45604e-16 -1.73588e-15 -3.16568e-15 -3.29705e-15 -8.44212e-15 -6.22413e-15 -7.79854e-15 -7.72669e-15 -2.10788e-14 -1.04852e-14 -1.7901e-14 -1.46096e-14 -1.09992e-14 -1.36741e-14 -1.39287e-14 -1.96235e-14 -1.30268e-14 -2.03419e-14 -2.61121e-14 -9.16979e-15 -2.82759e-14 -1.06526e-14 -1.80452e-14 -1.46289e-14 -2.59369e-14 -2.54747e-14 -2.51492e-14 -2.37248e-14 -7.23111e-15 -2.13665e-14 -1.63382e-14 -2.464e-14 -1.24576e-14 -1.45953e-14 -5.5988e-15 -2.21258e-14 -9.29725e-15 2.04712e-14 -1.91772e-14 2.29777e-14 -1.99179e-14 -1.02818e-14 -1.11299e-14 -2.47502e-14 -2.89079e-14 -1.87088e-14 -1.63839e-14 -2.0933e-14 -3.71664e-14 -4.17197e-14 -4.06929e-14 -1.27174e-14 -2.70156e-14 -4.25917e-14 4.04045e-14 -5.73244e-14 -2.8094e-14 2.09212e-16 4.8944e-15 -3.91578e-14 1.76187e-13 1.10372e-12 1.09783e-11 9.79952e-11 8.19049e-10 6.32525e-09 4.49942e-08 2.93452e-07 1.7455e-06 9.41016e-06 4.56382e-05 0.000197327 0.000752324 0.00249709 0.00712118 0.0172788 0.0356476 0.0633319 0.0993028 0.141518 0.18827 0.238624 0.292232 0.349069 0.409275 0.473084 0.540784 0.612661 0.688871 0.769084 0.851336 0.928085 0.972769 0.957787 0.943338 0.933611 0.930128 0.929156 0.928174 0.927985 0.927813 0.927653 0.927503 0.927358 0.927218 0.927074 0.926934 0.926781 0.926641 0.926474 0.926345 0.926156 0.926057 0.925813 0.925763 0.925358 0.925356 0.924501 0.924558 0.922359 0.922565 0.916466 0.917127 0.900908 0.902934 0.865032 0.870437 0.796768 0.790017 0.678336 0.609487 0.480209 0.359519 0.236415 0.135598 0.0662035 0.0279869 0.010719 0.00388889 0.00137063 0.000474157 0.000161513 5.41953e-05 1.79048e-05 5.81989e-06 1.85992e-06 5.84034e-07 1.80102e-07 5.45184e-08 1.61939e-08 4.71842e-09 1.34821e-09 3.77647e-10 1.0366e-10 2.78656e-11 7.25788e-12 1.8764e-12 3.78855e-13 1.40518e-13 -7.24423e-14 1.27055e-14 -1.06836e-13 2.10203e-14 -1.21364e-13 6.04128e-14 -2.29988e-14 -5.69005e-14 -2.43785e-14 -7.78734e-14 7.63591e-15 -3.42604e-14 3.97007e-14 -6.52843e-14 1.34341e-13 6.09057e-14 -1.59887e-14 1.68856e-15 1.80772e-14 1.06881e-13 -1.31544e-14 4.80759e-14 -1.23562e-14 3.72604e-14 1.35691e-14 8.01483e-14 6.40968e-14 7.53596e-14 2.36063e-14 1.05331e-13 2.75999e-14 8.17985e-14 -2.99097e-14 3.29328e-14 8.14019e-14 -1.08911e-13 9.94155e-14 3.9197e-14 -1.72332e-14 0 0 -6.67543e-16 -2.19367e-15 -2.18738e-15 -3.76234e-15 -3.75627e-15 -8.03683e-15 -7.66584e-15 -1.14884e-14 -8.24012e-15 -2.15671e-14 -1.02419e-14 -1.67622e-14 -1.80394e-14 -1.44828e-14 -1.69564e-14 -1.26896e-14 -1.72864e-14 -1.80404e-14 -2.0022e-14 -1.27569e-14 -2.28425e-14 -1.1579e-14 -1.61912e-14 -2.24974e-14 -1.97582e-14 -1.58012e-14 -2.24565e-14 -2.78664e-14 -1.93745e-14 -1.61791e-14 -2.27258e-14 -1.62923e-14 3.75585e-16 -1.51065e-14 -2.24342e-14 3.74811e-15 -1.40504e-14 -1.41553e-14 -8.59556e-15 8.37757e-15 1.03515e-14 -2.06065e-14 -1.57449e-14 -2.53095e-14 -1.89878e-14 -2.69296e-14 -3.02428e-14 -4.31904e-14 -1.53559e-14 -1.22088e-14 -4.21086e-14 -5.28207e-14 -4.54805e-14 3.289e-14 -2.28359e-14 -3.91531e-14 -7.12176e-15 -3.04448e-14 -1.17785e-14 -2.94142e-14 5.85539e-14 1.31995e-13 1.15792e-12 1.09306e-11 9.80877e-11 8.1903e-10 6.32526e-09 4.49942e-08 2.93452e-07 1.7455e-06 9.41016e-06 4.56382e-05 0.000197327 0.000752324 0.00249709 0.00712118 0.0172788 0.0356476 0.0633319 0.0993028 0.141518 0.18827 0.238624 0.292232 0.349069 0.409275 0.473084 0.540784 0.612661 0.688871 0.769084 0.851336 0.928085 0.972769 0.957787 0.943338 0.933611 0.930128 0.929156 0.928174 0.927985 0.927813 0.927653 0.927503 0.927358 0.927218 0.927074 0.926934 0.926781 0.926641 0.926474 0.926345 0.926156 0.926057 0.925813 0.925763 0.925358 0.925356 0.924501 0.924558 0.922359 0.922565 0.916466 0.917127 0.900908 0.902934 0.865032 0.870437 0.796768 0.790017 0.678336 0.609487 0.480209 0.359519 0.236415 0.135598 0.0662035 0.0279869 0.010719 0.00388889 0.00137063 0.000474157 0.000161513 5.41953e-05 1.79048e-05 5.81989e-06 1.85992e-06 5.84034e-07 1.80102e-07 5.45184e-08 1.61939e-08 4.71847e-09 1.3482e-09 3.77629e-10 1.03627e-10 2.78139e-11 7.3137e-12 1.7553e-12 4.25406e-13 3.04373e-14 -5.29505e-14 -5.95983e-14 2.44678e-14 -8.12428e-14 5.40799e-14 -8.43256e-14 3.09559e-14 -1.01874e-13 -1.73917e-14 6.87512e-15 5.41435e-14 -8.84418e-14 5.50274e-14 4.59533e-14 -2.83545e-14 3.77249e-14 6.3184e-14 -3.36894e-14 1.12005e-13 -1.37127e-14 -9.88552e-15 3.99285e-14 7.12301e-14 -5.84762e-15 1.75463e-14 7.33457e-14 8.46889e-14 1.17345e-13 6.09684e-14 5.58813e-14 -3.8781e-14 1.14942e-13 3.96234e-14 -7.17723e-14 2.59957e-14 -1.9018e-15 -3.76263e-14 6.60301e-14 1.29038e-14 0 0 2.58336e-16 -2.23619e-15 -3.49878e-15 -5.98993e-15 -5.25918e-15 -9.82947e-15 -6.66887e-15 -1.21956e-14 -1.32197e-14 -1.87753e-14 -1.63272e-14 -1.94762e-14 -1.59837e-14 -1.29105e-14 -3.96699e-14 -8.00037e-15 -2.94066e-14 -8.32412e-15 -1.52102e-14 -1.26452e-14 -1.59612e-14 -1.50525e-14 -7.94029e-15 -3.56227e-14 -3.45507e-15 -2.5014e-14 -5.58646e-15 -1.66518e-14 -2.69116e-14 -1.84723e-14 -2.83721e-14 -1.30678e-14 2.0941e-14 -2.53294e-14 -4.06469e-15 1.74924e-14 -2.84459e-14 -1.67174e-14 -5.96036e-15 -3.52702e-15 -8.1285e-15 -1.21163e-14 -1.90959e-14 -4.83524e-14 -2.90934e-14 -4.13799e-14 -2.68655e-14 -6.16831e-14 -2.91317e-14 -1.48513e-15 -3.71807e-14 -1.80298e-14 -1.39319e-14 -2.02177e-14 -4.07642e-15 -6.65766e-14 -1.37091e-14 -4.09977e-14 -1.11619e-14 3.99348e-15 5.95371e-14 1.83229e-13 1.20494e-12 1.09971e-11 9.8142e-11 8.19015e-10 6.32528e-09 4.49941e-08 2.93452e-07 1.7455e-06 9.41016e-06 4.56382e-05 0.000197327 0.000752324 0.00249709 0.00712118 0.0172788 0.0356476 0.0633319 0.0993028 0.141518 0.18827 0.238624 0.292232 0.349069 0.409275 0.473084 0.540784 0.612661 0.688871 0.769084 0.851336 0.928085 0.972769 0.957787 0.943338 0.933611 0.930128 0.929156 0.928174 0.927985 0.927813 0.927653 0.927503 0.927358 0.927218 0.927074 0.926934 0.926781 0.926641 0.926474 0.926345 0.926156 0.926057 0.925813 0.925763 0.925358 0.925356 0.924501 0.924558 0.922359 0.922565 0.916466 0.917127 0.900908 0.902934 0.865032 0.870437 0.796768 0.790017 0.678336 0.609487 0.480209 0.359519 0.236415 0.135598 0.0662035 0.0279869 0.010719 0.00388889 0.00137063 0.000474157 0.000161513 5.41953e-05 1.79048e-05 5.81989e-06 1.85992e-06 5.84034e-07 1.80102e-07 5.45185e-08 1.61939e-08 4.71851e-09 1.34806e-09 3.77632e-10 1.03503e-10 2.7822e-11 7.28251e-12 1.79162e-12 3.29938e-13 -4.31397e-14 -4.47858e-14 -2.84906e-14 -8.1298e-14 -1.54065e-14 -3.30044e-14 6.88616e-14 -4.2134e-14 -6.45003e-14 1.24148e-13 -1.12726e-13 1.97395e-13 -6.30848e-14 1.27718e-13 -5.29396e-14 -1.05914e-13 -7.73151e-14 4.26582e-14 7.35728e-14 6.72927e-15 -6.34827e-14 8.44851e-14 8.09672e-14 1.22457e-13 -3.93625e-14 7.01532e-14 1.10311e-13 1.02461e-13 -1.71971e-14 8.60626e-14 3.06605e-14 1.22812e-14 7.64947e-14 -1.03198e-14 -5.87817e-14 1.24327e-14 -2.97353e-14 -1.56197e-13 9.08097e-14 2.40159e-14 0 0 1.97212e-16 -1.2122e-15 -2.41473e-15 -8.45132e-15 -6.58199e-15 -1.24199e-14 -7.01188e-15 -1.26065e-14 -1.65001e-14 -1.12761e-14 -2.18434e-14 -2.81149e-14 -1.88038e-14 -1.39065e-14 -4.30301e-14 -2.58916e-14 -2.71158e-14 -8.15007e-15 -5.90849e-15 -1.35396e-14 1.58503e-15 -1.33857e-14 -2.01006e-14 -2.16339e-14 -4.38861e-15 -5.28872e-14 2.72661e-15 -2.05797e-14 -2.84497e-14 -1.15364e-14 -1.93901e-14 -7.78251e-15 2.63997e-14 -1.19275e-14 1.97162e-14 1.66875e-14 -3.78534e-14 -1.40247e-14 -7.00122e-16 -3.13791e-14 -6.49096e-16 -1.95766e-14 -2.93969e-14 -6.33276e-14 -7.63695e-14 -6.46832e-14 -2.92831e-14 -3.76439e-14 -1.62534e-14 -3.4778e-14 -1.5396e-14 -4.8251e-15 2.86976e-14 -7.4751e-14 2.08098e-14 -2.76613e-15 -4.41252e-14 -4.52639e-14 4.97302e-15 3.93909e-15 -9.5593e-15 2.47981e-13 1.30805e-12 1.10291e-11 9.81087e-11 8.19126e-10 6.32526e-09 4.49942e-08 2.93452e-07 1.7455e-06 9.41016e-06 4.56382e-05 0.000197327 0.000752324 0.00249709 0.00712118 0.0172788 0.0356476 0.0633319 0.0993028 0.141518 0.18827 0.238624 0.292232 0.349069 0.409275 0.473084 0.540784 0.612661 0.688871 0.769084 0.851336 0.928085 0.972769 0.957787 0.943338 0.933611 0.930128 0.929156 0.928174 0.927985 0.927813 0.927653 0.927503 0.927358 0.927218 0.927074 0.926934 0.926781 0.926641 0.926474 0.926345 0.926156 0.926057 0.925813 0.925763 0.925358 0.925356 0.924501 0.924558 0.922359 0.922565 0.916466 0.917127 0.900908 0.902934 0.865032 0.870437 0.796768 0.790017 0.678336 0.609487 0.480209 0.359519 0.236415 0.135598 0.0662035 0.0279869 0.010719 0.00388889 0.00137063 0.000474157 0.000161513 5.41953e-05 1.79048e-05 5.81989e-06 1.85992e-06 5.84034e-07 1.80102e-07 5.45184e-08 1.61938e-08 4.71843e-09 1.34806e-09 3.7766e-10 1.03537e-10 2.77142e-11 7.19597e-12 1.74054e-12 3.69976e-13 4.149e-15 -3.25367e-14 2.08332e-14 -8.82257e-14 5.47523e-14 -1.09961e-13 1.784e-13 -7.82385e-14 -5.02398e-14 7.01162e-14 -1.58068e-13 5.46393e-14 1.04963e-13 4.83587e-14 -6.46829e-14 -3.55373e-14 -1.10749e-13 2.26118e-14 1.3546e-13 -8.96477e-14 3.16601e-14 -5.53733e-14 5.57227e-14 6.08268e-14 5.00561e-14 5.13116e-15 3.78361e-14 1.64577e-13 -2.23995e-15 -5.81247e-15 1.34911e-13 7.10856e-14 8.66772e-14 -4.76141e-14 7.61875e-14 9.6187e-15 -8.54734e-14 -1.75163e-13 -7.13082e-14 2.22414e-14 0 0 2.76864e-16 1.76465e-16 -1.50879e-15 -8.01124e-15 -5.31218e-15 -1.26135e-14 -1.5475e-14 -2.60262e-14 -2.18956e-14 -1.09204e-14 -2.64235e-14 -2.74446e-14 -2.4305e-14 -2.07953e-14 -2.78217e-14 -3.42407e-14 -1.01676e-14 -1.38578e-14 6.15852e-15 -5.63645e-15 -1.23978e-14 -3.21902e-14 -1.774e-14 -2.32289e-14 -1.87295e-14 -6.04487e-14 7.8138e-15 -2.66758e-14 -7.35973e-15 -1.22185e-14 -9.35084e-15 -1.98062e-15 2.2782e-14 -3.1528e-14 2.82263e-14 -8.66651e-15 1.24126e-14 -2.05929e-14 1.57862e-15 -1.14678e-14 -7.91716e-15 -2.03021e-14 -3.82546e-14 -8.05687e-14 -6.94979e-14 -1.0559e-13 -7.78799e-14 -8.38574e-14 -3.73609e-16 -1.63127e-15 9.38934e-15 -2.65061e-14 -1.58386e-14 -2.6462e-14 3.55296e-14 4.05723e-14 -7.31685e-15 -1.10222e-15 -1.0615e-14 -2.03725e-14 1.90857e-14 1.90803e-13 1.30704e-12 1.09662e-11 9.81456e-11 8.19231e-10 6.32531e-09 4.49942e-08 2.93452e-07 1.7455e-06 9.41016e-06 4.56382e-05 0.000197327 0.000752324 0.00249709 0.00712118 0.0172788 0.0356476 0.0633319 0.0993028 0.141518 0.18827 0.238624 0.292232 0.349069 0.409275 0.473084 0.540784 0.612661 0.688871 0.769084 0.851336 0.928085 0.972769 0.957787 0.943338 0.933611 0.930128 0.929156 0.928174 0.927985 0.927813 0.927653 0.927503 0.927358 0.927218 0.927074 0.926934 0.926781 0.926641 0.926474 0.926345 0.926156 0.926057 0.925813 0.925763 0.925358 0.925356 0.924501 0.924558 0.922359 0.922565 0.916466 0.917127 0.900908 0.902934 0.865032 0.870437 0.796768 0.790017 0.678336 0.609487 0.480209 0.359519 0.236415 0.135598 0.0662035 0.0279869 0.010719 0.00388889 0.00137063 0.000474157 0.000161513 5.41953e-05 1.79048e-05 5.81989e-06 1.85992e-06 5.84034e-07 1.80102e-07 5.45184e-08 1.61938e-08 4.71841e-09 1.34818e-09 3.77664e-10 1.03563e-10 2.77766e-11 7.09152e-12 1.59603e-12 4.24496e-13 2.4173e-14 5.25996e-14 7.41517e-14 -7.39042e-14 -7.04838e-14 5.53947e-14 3.54327e-14 -7.82471e-14 5.37907e-14 -1.29845e-13 -1.60528e-13 9.32169e-17 -6.21618e-15 -8.06669e-14 8.91704e-14 8.07244e-14 -5.81609e-15 1.5003e-13 -6.78791e-14 -2.74889e-14 1.50603e-14 -1.08924e-13 8.98271e-14 -1.94828e-13 1.98024e-15 -2.81594e-14 -7.39179e-15 2.31109e-13 2.73367e-14 1.01824e-13 4.65469e-14 -8.54883e-15 7.76469e-14 5.23511e-14 1.52024e-13 2.31214e-14 1.31068e-13 -1.79301e-13 -9.32658e-14 -7.76122e-15 0 0 1.35659e-15 2.93789e-15 -2.5468e-15 -6.74073e-15 -3.76327e-15 -1.24146e-14 -2.11563e-14 -3.60524e-14 -2.84769e-14 -1.4784e-14 -3.18162e-14 -2.19884e-14 -2.15006e-14 -2.1632e-14 -2.86844e-14 -2.12484e-14 -9.9676e-15 -5.00956e-15 1.34158e-14 -1.00823e-14 -2.33729e-14 -7.28321e-14 1.05705e-14 -4.7486e-14 -1.07043e-14 -5.94856e-14 1.84399e-14 -1.49123e-14 3.38099e-15 -1.31816e-14 -1.25807e-14 1.71451e-15 9.25534e-15 -7.21043e-14 3.91637e-14 -2.88183e-14 4.96154e-14 -2.75578e-14 3.02991e-14 -3.16384e-15 -2.85185e-14 -4.38828e-15 -3.4699e-14 -9.16978e-14 -3.12183e-14 -1.39623e-13 -1.09148e-13 -1.45796e-13 -1.67251e-14 5.05743e-14 1.77067e-14 -1.4473e-14 -3.86924e-14 -3.66533e-14 2.43671e-14 7.22345e-14 3.11772e-15 3.91236e-14 -2.97337e-14 2.30865e-14 2.00986e-14 1.64299e-13 1.19575e-12 1.09854e-11 9.81775e-11 8.19231e-10 6.3254e-09 4.49942e-08 2.93452e-07 1.7455e-06 9.41016e-06 4.56382e-05 0.000197327 0.000752324 0.00249709 0.00712118 0.0172788 0.0356476 0.0633319 0.0993028 0.141518 0.18827 0.238624 0.292232 0.349069 0.409275 0.473084 0.540784 0.612661 0.688871 0.769084 0.851336 0.928085 0.972769 0.957787 0.943338 0.933611 0.930128 0.929156 0.928174 0.927985 0.927813 0.927653 0.927503 0.927358 0.927218 0.927074 0.926934 0.926781 0.926641 0.926474 0.926345 0.926156 0.926057 0.925813 0.925763 0.925358 0.925356 0.924501 0.924558 0.922359 0.922565 0.916466 0.917127 0.900908 0.902934 0.865032 0.870437 0.796768 0.790017 0.678336 0.609487 0.480209 0.359519 0.236415 0.135598 0.0662035 0.0279869 0.010719 0.00388889 0.00137063 0.000474157 0.000161513 5.41953e-05 1.79048e-05 5.81989e-06 1.85992e-06 5.84034e-07 1.80102e-07 5.45184e-08 1.61939e-08 4.71847e-09 1.34817e-09 3.77661e-10 1.03462e-10 2.80065e-11 6.98682e-12 1.6603e-12 2.96865e-13 3.28404e-14 1.13372e-13 1.81241e-13 -2.89523e-13 -9.7885e-14 3.4589e-14 8.03739e-14 -1.69504e-13 2.26005e-13 -1.40991e-13 -3.2194e-13 1.84901e-13 -2.06259e-13 -7.3304e-14 4.45625e-14 2.11698e-13 4.07539e-14 1.98244e-13 -1.90533e-13 -6.82259e-14 -2.53317e-14 6.86418e-14 1.98434e-13 -4.20873e-13 -1.25805e-13 5.23163e-14 6.36784e-14 2.32613e-13 -1.34304e-13 2.89033e-13 -1.22115e-13 -2.93838e-14 -1.30664e-14 7.01784e-14 2.10513e-13 8.12203e-14 2.68617e-13 -1.461e-13 4.46981e-14 -5.49246e-14 0
				</DataArray>
				<DataArray Name="VitesseY" type="Float32" format="ascii">