<?xml version="1.0"?>
<VTKFile type="PolyData">
	<PolyData>
		<Piece NumberOfPoints="1206" NumberOfPolys="1000">
			<Points>
				<DataArray type="Float32" NumberOfComponents="3" format="ascii">
 0 0 0 0.005 0 0 0.01 0 0 0.015 0 0 0.02 0 0 0.025 0 0 0.03 0 0 0.035 0 0 0.04 0 0 0.045 0 0 0.05 0 0 0.055 0 0 0.06 0 0 0.065 0 0 0.07 0 0 0.075 0 0 0.08 0 0 0.085 0 0 0.09 0 0 0.095 0 0 0.1 0 0 0.105 0 0 0.11 0 0 0.115 0 0 0.12 0 0 0.125 0 0 0.13 0 0 0.135 0 0 0.14 0 0 0.145 0 0 0.15 0 0 0.155 0 0 0.16 0 0 0.165 0 0 0.17 0 0 0.175 0 0 0.18 0 0 0.185 0 0 0.19 0 0 0.195 0 0 0.2 0 0 0.205 0 0 0.21 0 0 0.215 0 0 0.22 0 0 0.225 0 0 0.23 0 0 0.235 0 0 0.24 0 0 0.245 0 0 0.25 0 0 0.255 0 0 0.26 0 0 0.265 0 0 0.27 0 0 0.275 0 0 0.28 0 0 0.285 0 0 0.29 0 0 0.295 0 0 0.3 0 0 0.305 0 0 0.31 0 0 0.315 0 0 0.32 0 0 0.325 0 0 0.33 0 0 0.335 0 0 0.34 0 0 0.345 0 0 0.35 0 0 0.355 0 0 0.36 0 0 0.365 0 0 0.37 0 0 0.375 0 0 0.38 0 0 0.385 0 0 0.39 0 0 0.395 0 0 0.4 0 0 0.405 0 0 0.41 0 0 0.415 0 0 0.42 0 0 0.425 0 0 0.43 0 0 0.435 0 0 0.44 0 0 0.445 0 0 0.450003 0 0 0.455017 0 0 0.460086 0 0 0.465321 0 0 0.470925 0 0 0.477158 0 0 0.484331 0 0 0.492868 0 0 0.503364 0 0 0.515883 0 0 0.528216 0 0 0.530885 0 0 0.533486 0 0 0.536047 0 0 0.538583 0 0 0.541072 0 0 0.543548 0 0 0.546041 0 0 0.548687 0 0 0.551449 0 0 0.554524 0 0 0.557909 0 0 0.561653 0 0 0.565815 0 0 0.570334 0 0 0.575112 0 0 0.580032 0 0 0.585008 0 0 0.590002 0 0 0.595 0 0 0.6 0 0 0.605 0 0 0.61 0 0 0.615 0 0 0.62 0 0 0.625 0 0 0.63 0 0 0.635 0 0 0.64 0 0 0.645 0 0 0.65 0 0 0.655 0 0 0.66 0 0 0.665 0 0 0.67 0 0 0.675 0 0 0.68 0 0 0.685 0 0 0.69 0 0 0.695 0 0 0.7 0 0 0.705 0 0 0.71 0 0 0.715 0 0 0.72 0 0 0.725 0 0 0.73 0 0 0.735 0 0 0.74 0 0 0.745 0 0 0.75 0 0 0.755 0 0 0.76 0 0 0.765 0 0 0.77 0 0 0.775 0 0 0.78 0 0 0.785 0 0 0.79 0 0 0.795 0 0 0.8 0 0 0.805 0 0 0.81 0 0 0.815 0 0 0.82 0 0 0.825 0 0 0.83 0 0 0.835 0 0 0.84 0 0 0.845 0 0 0.85 0 0 0.855 0 0 0.86 0 0 0.865 0 0 0.87 0 0 0.875 0 0 0.88 0 0 0.885 0 0 0.89 0 0 0.895 0 0 0.9 0 0 0.905 0 0 0.91 0 0 0.915 0 0 0.92 0 0 0.925 0 0 0.93 0 0 0.935 0 0 0.94 0 0 0.945 0 0 0.95 0 0 0.955 0 0 0.96 0 0 0.965 0 0 0.97 0 0 0.975 0 0 0.98 0 0 0.985 0 0 0.99 0 0 0.995 0 0 1 0 0 0 0.02 0 0.005 0.02 0 0.01 0.02 0 0.015 0.02 0 0.02 0.02 0 0.025 0.02 0 0.03 0.02 0 0.035 0.02 0 0.04 0.02 0 0.045 0.02 0 0.05 0.02 0 0.055 0.02 0 0.06 0.02 0 0.065 0.02 0 0.07 0.02 0 0.075 0.02 0 0.08 0.02 0 0.085 0.02 0 0.09 0.02 0 0.095 0.02 0 0.1 0.02 0 0.105 0.02 0 0.11 0.02 0 0.115 0.02 0 0.12 0.02 0 0.125 0.02 0 0.13 0.02 0 0.135 0.02 0 0.14 0.02 0 0.145 0.02 0 0.15 0.02 0 0.155 0.02 0 0.16 0.02 0 0.165 0.02 0 0.17 0.02 0 0.175 0.02 0 0.18 0.02 0 0.185 0.02 0 0.19 0.02 0 0.195 0.02 0 0.2 0.02 0 0.205 0.02 0 0.21 0.02 0 0.215 0.02 0 0.22 0.02 0 0.225 0.02 0 0.23 0.02 0 0.235 0.02 0 0.24 0.02 0 0.245 0.02 0 0.25 0.02 0 0.255 0.02 0 0.26 0.02 0 0.265 0.02 0 0.27 0.02 0 0.275 0.02 0 0.28 0.02 0 0.285 0.02 0 0.29 0.02 0 0.295 0.02 0 0.3 0.02 0 0.305 0.02 0 0.31 0.02 0 0.315 0.02 0 0.32 0.02 0 0.325 0.02 0 0.33 0.02 0 0.335 0.02 0 0.34 0.02 0 0.345 0.02 0 0.35 0.02 0 0.355 0.02 0 0.36 0.02 0 0.365 0.02 0 0.37 0.02 0 0.375 0.02 0 0.38 0.02 0 0.385 0.02 0 0.39 0.02 0 0.395 0.02 0 0.4 0.02 0 0.405 0.02 0 0.41 0.02 0 0.415 0.02 0 0.42 0.02 0 0.425 0.02 0 0.43 0.02 0 0.435 0.02 0 0.44 0.02 0 0.445 0.02 0 0.450003 0.02 0 0.455017 0.02 0 0.460086 0.02 0 0.465321 0.02 0 0.470925 0.02 0 0.477158 0.02 0 0.484331 0.02 0 0.492868 0.02 0 0.503364 0.02 0 0.515883 0.02 0 0.528216 0.02 0 0.530885 0.02 0 0.533486 0.02 0 0.536047 0.02 0 0.538583 0.02 0 0.541072 0.02 0 0.543548 0.02 0 0.546041 0.02 0 0.548687 0.02 0 0.551449 0.02 0 0.554524 0.02 0 0.557909 0.02 0 0.561653 0.02 0 0.565815 0.02 0 0.570334 0.02 0 0.575112 0.02 0 0.580032 0.02 0 0.585008 0.02 0 0.590002 0.02 0 0.595 0.02 0 0.6 0.02 0 0.605 0.02 0 0.61 0.02 0 0.615 0.02 0 0.62 0.02 0 0.625 0.02 0 0.63 0.02 0 0.635 0.02 0 0.64 0.02 0 0.645 0.02 0 0.65 0.02 0 0.655 0.02 0 0.66 0.02 0 0.665 0.02 0 0.67 0.02 0 0.675 0.02 0 0.68 0.02 0 0.685 0.02 0 0.69 0.02 0 0.695 0.02 0 0.7 0.02 0 0.705 0.02 0 0.71 0.02 0 0.715 0.02 0 0.72 0.02 0 0.725 0.02 0 0.73 0.02 0 0.735 0.02 0 0.74 0.02 0 0.745 0.02 0 0.75 0.02 0 0.755 0.02 0 0.76 0.02 0 0.765 0.02 0 0.77 0.02 0 0.775 0.02 0 0.78 0.02 0 0.785 0.02 0 0.79 0.02 0 0.795 0.02 0 0.8 0.02 0 0.805 0.02 0 0.81 0.02 0 0.815 0.02 0 0.82 0.02 0 0.825 0.02 0 0.83 0.02 0 0.835 0.02 0 0.84 0.02 0 0.845 0.02 0 0.85 0.02 0 0.855 0.02 0 0.86 0.02 0 0.865 0.02 0 0.87 0.02 0 0.875 0.02 0 0.88 0.02 0 0.885 0.02 0 0.89 0.02 0 0.895 0.02 0 0.9 0.02 0 0.905 0.02 0 0.91 0.02 0 0.915 0.02 0 0.92 0.02 0 0.925 0.02 0 0.93 0.02 0 0.935 0.02 0 0.94 0.02 0 0.945 0.02 0 0.95 0.02 0 0.955 0.02 0 0.96 0.02 0 0.965 0.02 0 0.97 0.02 0 0.975 0.02 0 0.98 0.02 0 0.985 0.02 0 0.99 0.02 0 0.995 0.02 0 1 0.02 0 0 0.04 0 0.005 0.04 0 0.01 0.04 0 0.015 0.04 0 0.02 0.04 0 0.025 0.04 0 0.03 0.04 0 0.035 0.04 0 0.04 0.04 0 0.045 0.04 0 0.05 0.04 0 0.055 0.04 0 0.06 0.04 0 0.065 0.04 0 0.07 0.04 0 0.075 0.04 0 0.08 0.04 0 0.085 0.04 0 0.09 0.04 0 0.095 0.04 0 0.1 0.04 0 0.105 0.04 0 0.11 0.04 0 0.115 0.04 0 0.12 0.04 0 0.125 0.04 0 0.13 0.04 0 0.135 0.04 0 0.14 0.04 0 0.145 0.04 0 0.15 0.04 0 0.155 0.04 0 0.16 0.04 0 0.165 0.04 0 0.17 0.04 0 0.175 0.04 0 0.18 0.04 0 0.185 0.04 0 0.19 0.04 0 0.195 0.04 0 0.2 0.04 0 0.205 0.04 0 0.21 0.04 0 0.215 0.04 0 0.22 0.04 0 0.225 0.04 0 0.23 0.04 0 0.235 0.04 0 0.24 0.04 0 0.245 0.04 0 0.25 0.04 0 0.255 0.04 0 0.26 0.04 0 0.265 0.04 0 0.27 0.04 0 0.275 0.04 0 0.28 0.04 0 0.285 0.04 0 0.29 0.04 0 0.295 0.04 0 0.3 0.04 0 0.305 0.04 0 0.31 0.04 0 0.315 0.04 0 0.32 0.04 0 0.325 0.04 0 0.33 0.04 0 0.335 0.04 0 0.34 0.04 0 0.345 0.04 0 0.35 0.04 0 0.355 0.04 0 0.36 0.04 0 0.365 0.04 0 0.37 0.04 0 0.375 0.04 0 0.38 0.04 0 0.385 0.04 0 0.39 0.04 0 0.395 0.04 0 0.4 0.04 0 0.405 0.04 0 0.41 0.04 0 0.415 0.04 0 0.42 0.04 0 0.425 0.04 0 0.43 0.04 0 0.435 0.04 0 0.44 0.04 0 0.445 0.04 0 0.450003 0.04 0 0.455017 0.04 0 0.460086 0.04 0 0.465321 0.04 0 0.470925 0.04 0 0.477158 0.04 0 0.484331 0.04 0 0.492868 0.04 0 0.503364 0.04 0 0.515883 0.04 0 0.528216 0.04 0 0.530885 0.04 0 0.533486 0.04 0 0.536047 0.04 0 0.538583 0.04 0 0.541072 0.04 0 0.543548 0.04 0 0.546041 0.04 0 0.548687 0.04 0 0.551449 0.04 0 0.554524 0.04 0 0.557909 0.04 0 0.561653 0.04 0 0.565815 0.04 0 0.570334 0.04 0 0.575112 0.04 0 0.580032 0.04 0 0.585008 0.04 0 0.590002 0.04 0 0.595 0.04 0 0.6 0.04 0 0.605 0.04 0 0.61 0.04 0 0.615 0.04 0 0.62 0.04 0 0.625 0.04 0 0.63 0.04 0 0.635 0.04 0 0.64 0.04 0 0.645 0.04 0 0.65 0.04 0 0.655 0.04 0 0.66 0.04 0 0.665 0.04 0 0.67 0.04 0 0.675 0.04 0 0.68 0.04 0 0.685 0.04 0 0.69 0.04 0 0.695 0.04 0 0.7 0.04 0 0.705 0.04 0 0.71 0.04 0 0.715 0.04 0 0.72 0.04 0 0.725 0.04 0 0.73 0.04 0 0.735 0.04 0 0.74 0.04 0 0.745 0.04 0 0.75 0.04 0 0.755 0.04 0 0.76 0.04 0 0.765 0.04 0 0.77 0.04 0 0.775 0.04 0 0.78 0.04 0 0.785 0.04 0 0.79 0.04 0 0.795 0.04 0 0.8 0.04 0 0.805 0.04 0 0.81 0.04 0 0.815 0.04 0 0.82 0.04 0 0.825 0.04 0 0.83 0.04 0 0.835 0.04 0 0.84 0.04 0 0.845 0.04 0 0.85 0.04 0 0.855 0.04 0 0.86 0.04 0 0.865 0.04 0 0.87 0.04 0 0.875 0.04 0 0.88 0.04 0 0.885 0.04 0 0.89 0.04 0 0.895 0.04 0 0.9 0.04 0 0.905 0.04 0 0.91 0.04 0 0.915 0.04 0 0.92 0.04 0 0.925 0.04 0 0.93 0.04 0 0.935 0.04 0 0.94 0.04 0 0.945 0.04 0 0.95 0.04 0 0.955 0.04 0 0.96 0.04 0 0.965 0.04 0 0.97 0.04 0 0.975 0.04 0 0.98 0.04 0 0.985 0.04 0 0.99 0.04 0 0.995 0.04 0 1 0.04 0 0 0.06 0 0.005 0.06 0 0.01 0.06 0 0.015 0.06 0 0.02 0.06 0 0.025 0.06 0 0.03 0.06 0 0.035 0.06 0 0.04 0.06 0 0.045 0.06 0 0.05 0.06 0 0.055 0.06 0 0.06 0.06 0 0.065 0.06 0 0.07 0.06 0 0.075 0.06 0 0.08 0.06 0 0.085 0.06 0 0.09 0.06 0 0.095 0.06 0 0.1 0.06 0 0.105 0.06 0 0.11 0.06 0 0.115 0.06 0 0.12 0.06 0 0.125 0.06 0 0.13 0.06 0 0.135 0.06 0 0.14 0.06 0 0.145 0.06 0 0.15 0.06 0 0.155 0.06 0 0.16 0.06 0 0.165 0.06 0 0.17 0.06 0 0.175 0.06 0 0.18 0.06 0 0.185 0.06 0 0.19 0.06 0 0.195 0.06 0 0.2 0.06 0 0.205 0.06 0 0.21 0.06 0 0.215 0.06 0 0.22 0.06 0 0.225 0.06 0 0.23 0.06 0 0.235 0.06 0 0.24 0.06 0 0.245 0.06 0 0.25 0.06 0 0.255 0.06 0 0.26 0.06 0 0.265 0.06 0 0.27 0.06 0 0.275 0.06 0 0.28 0.06 0 0.285 0.06 0 0.29 0.06 0 0.295 0.06 0 0.3 0.06 0 0.305 0.06 0 0.31 0.06 0 0.315 0.06 0 0.32 0.06 0 0.325 0.06 0 0.33 0.06 0 0.335 0.06 0 0.34 0.06 0 0.345 0.06 0 0.35 0.06 0 0.355 0.06 0 0.36 0.06 0 0.365 0.06 0 0.37 0.06 0 0.375 0.06 0 0.38 0.06 0 0.385 0.06 0 0.39 0.06 0 0.395 0.06 0 0.4 0.06 0 0.405 0.06 0 0.41 0.06 0 0.415 0.06 0 0.42 0.06 0 0.425 0.06 0 0.43 0.06 0 0.435 0.06 0 0.44 0.06 0 0.445 0.06 0 0.450003 0.06 0 0.455017 0.06 0 0.460086 0.06 0 0.465321 0.06 0 0.470925 0.06 0 0.477158 0.06 0 0.484331 0.06 0 0.492868 0.06 0 0.503364 0.06 0 0.515883 0.06 0 0.528216 0.06 0 0.530885 0.06 0 0.533486 0.06 0 0.536047 0.06 0 0.538583 0.06 0 0.541072 0.06 0 0.543548 0.06 0 0.546041 0.06 0 0.548687 0.06 0 0.551449 0.06 0 0.554524 0.06 0 0.557909 0.06 0 0.561653 0.06 0 0.565815 0.06 0 0.570334 0.06 0 0.575112 0.06 0 0.580032 0.06 0 0.585008 0.06 0 0.590002 0.06 0 0.595 0.06 0 0.6 0.06 0 0.605 0.06 0 0.61 0.06 0 0.615 0.06 0 0.62 0.06 0 0.625 0.06 0 0.63 0.06 0 0.635 0.06 0 0.64 0.06 0 0.645 0.06 0 0.65 0.06 0 0.655 0.06 0 0.66 0.06 0 0.665 0.06 0 0.67 0.06 0 0.675 0.06 0 0.68 0.06 0 0.685 0.06 0 0.69 0.06 0 0.695 0.06 0 0.7 0.06 0 0.705 0.06 0 0.71 0.06 0 0.715 0.06 0 0.72 0.06 0 0.725 0.06 0 0.73 0.06 0 0.735 0.06 0 0.74 0.06 0 0.745 0.06 0 0.75 0.06 0 0.755 0.06 0 0.76 0.06 0 0.765 0.06 0 0.77 0.06 0 0.775 0.06 0 0.78 0.06 0 0.785 0.06 0 0.79 0.06 0 0.795 0.06 0 0.8 0.06 0 0.805 0.06 0 0.81 0.06 0 0.815 0.06 0 0.82 0.06 0 0.825 0.06 0 0.83 0.06 0 0.835 0.06 0 0.84 0.06 0 0.845 0.06 0 0.85 0.06 0 0.855 0.06 0 0.86 0.06 0 0.865 0.06 0 0.87 0.06 0 0.875 0.06 0 0.88 0.06 0 0.885 0.06 0 0.89 0.06 0 0.895 0.06 0 0.9 0.06 0 0.905 0.06 0 0.91 0.06 0 0.915 0.06 0 0.92 0.06 0 0.925 0.06 0 0.93 0.06 0 0.935 0.06 0 0.94 0.06 0 0.945 0.06 0 0.95 0.06 0 0.955 0.06 0 0.96 0.06 0 0.965 0.06 0 0.97 0.06 0 0.975 0.06 0 0.98 0.06 0 0.985 0.06 0 0.99 0.06 0 0.995 0.06 0 1 0.06 0 0 0.08 0
[...]
			<PointData Scalars="VitesseX">
				<DataArray Name="VitesseX" type="Float32" format="ascii">
 0 -5.66491e-16 -1.09654e-15 1.51816e-15 -4.21617e-16 -1.17413e-15 1.00136e-15 -1.83282e-15 3.91841e-15 -8.89066e-16 8.98874e-16 -8.34153e-15 7.40671e-15 6.86843e-15 -1.04998e-14 2.86412e-15 6.26456e-15 -1.0184e-14 1.14053e-14 -8.12355e-15 -4.57395e-15 5.4409e-15 4.48212e-15 2.16854e-15 -1.05011e-14 -3.93018e-15 1.0293e-14 2.93942e-15 -7.85268e-15 5.39125e-16 8.46687e-15 -1.43638e-14 8.88095e-15 9.26009e-15 -1.47262e-14 1.36344e-14 -1.30074e-14 1.04099e-14 -1.70044e-14 1.14746e-14 -1.7937e-15 4.264e-15 -2.61758e-16 -2.19373e-14 2.50728e-14 -9.64629e-15 7.04407e-15 -4.37564e-15 -1.33839e-15 1.47159e-16 -1.0709e-15 1.13072e-14 1.96549e-14 -3.3759e-14 7.91369e-15 -1.23086e-14 9.2698e-15 2.31333e-14 -2.87209e-14 5.63804e-15 3.5227e-15 9.07086e-15 1.45181e-14 -2.3517e-14 1.18858e-14 2.35483e-15 1.5168e-14 -2.26055e-15 -3.20149e-14 5.84097e-14 -1.20485e-14 8.45476e-15 -3.13738e-14 2.75362e-14 -5.00667e-14 3.8877e-14 9.81793e-15 -2.12955e-15 6.28236e-15 -1.284e-14 1.66545e-15 6.08267e-14 6.72997e-13 1.87069e-11 4.05113e-10 7.60803e-09 1.22398e-07 1.66446e-06 1.88164e-05 0.000173068 0.0012588 0.00698035 0.0284006 0.083367 0.18244 0.321389 0.493717 0.697228 0.913425 0.988639 0.928123 0.922189 0.917453 0.914758 0.906973 0.936032 0.918372 0.861072 0.906115 0.728446 0.632043 0.560561 0.37657 0.237491 0.119277 0.0474226 0.0150643 0.00413176 0.00103664 0.000243767 5.41346e-05 1.13805e-05 2.26726e-06 4.28424e-07 7.68491e-08 1.30966e-08 2.12211e-09 3.27253e-10 4.79597e-11 6.72835e-12 9.07764e-13 1.08013e-13 -1.27034e-14 5.44578e-14 -4.96889e-14 1.72572e-14 -7.44988e-15 -1.03465e-15 1.77098e-14 2.37641e-14 -4.66049e-14 5.43653e-14 -8.26429e-14 1.10093e-13 -1.03774e-13 6.28561e-14 1.31862e-14 -2.60233e-14 -3.65232e-14 6.23376e-14 -3.2783e-14 2.9367e-14 -3.4055e-14 5.90417e-15 3.18671e-14 7.70564e-15 -5.67745e-14 1.21679e-15 1.17799e-14 -6.71651e-16 4.98619e-14 -6.30687e-15 -4.08897e-14 1.08283e-13 -5.3116e-14 -3.87704e-14 3.86345e-14 -2.69916e-14 1.36278e-14 9.31479e-15 -7.58172e-14 7.61702e-14 -4.92875e-14 -1.40708e-14 -4.16974e-14 7.42764e-15 9.11861e-15 -5.52781e-15 2.95748e-14 -9.84822e-14 2.10579e-14 8.70269e-14 -5.41262e-14 1.50699e-15 -1.1875e-15 -1.87394e-14 4.14167e-14 1.19106e-14 -3.19824e-14 -3.20356e-14 4.54506e-15 1.34237e-14 -2.56139e-15 -1.26854e-14 3.97753e-15 9.28844e-15 3.00364e-15 -5.111e-14 3.19513e-14 1.71316e-14 0 0 2.45823e-16 -2.48882e-16 -5.65576e-16 2.85389e-16 -1.47971e-15 2.83442e-15 8.11387e-16 -2.79689e-15 -1.47902e-15 1.92769e-16 5.5455e-15 -4.78224e-15 -1.12363e-15 5.78852e-15 -1.37937e-15 -2.42834e-15 1.59615e-15 -1.937e-15 2.07136e-15 -9.13212e-16 1.90036e-15 -3.77534e-15 5.43228e-15 -6.0055e-16 1.83227e-15 -1.19201e-14 1.12817e-14 -8.82698e-15 1.3541e-14 -1.07015e-14 4.07569e-15 -2.87293e-15 -3.12471e-15 1.89759e-14 -4.30286e-15 -1.2333e-14 -2.30165e-15 1.22412e-15 -1.55577e-15 1.37693e-14 -7.99067e-15 -2.63927e-15 -1.04895e-15 -1.05055e-14 1.94989e-14 -1.65158e-15 -1.19736e-14 1.20863e-14 -2.27207e-15 1.31559e-15 1.791e-15 1.59856e-14 -1.05187e-14 -1.1915e-14 4.527e-16 1.36737e-14 2.66466e-15 -7.94784e-15 2.41483e-14 -6.00401e-15 -1.65511e-14 1.79454e-14 -2.88222e-14 2.5728e-14 9.13703e-16 5.47661e-16 2.44793e-14 -2.90038e-14 4.59291e-14 2.42806e-14 -1.50464e-14 -1.69608e-14 1.85223e-15 4.61968e-15 3.86238e-15 -4.92816e-14 6.90699e-14 -3.85953e-14 -2.35873e-15 -8.56332e-15 6.24161e-14 7.07741e-13 1.86806e-11 4.05055e-10 7.60814e-09 1.22398e-07 1.66446e-06 1.88164e-05 0.000173068 0.0012588 0.00698035 0.0284006 0.083367 0.18244 0.321389 0.493717 0.697228 0.913425 0.988639 0.928123 0.922189 0.917453 0.914758 0.906973 0.936032 0.918372 0.861072 0.906115 0.728446 0.632043 0.560561 0.37657 0.237491 0.119277 0.0474226 0.0150643 0.00413176 0.00103664 0.000243767 5.41346e-05 1.13805e-05 2.26726e-06 4.28424e-07 7.68491e-08 1.30966e-08 2.12213e-09 3.27232e-10 4.79296e-11 6.78515e-12 9.25621e-13 7.82011e-14 -2.81168e-14 3.96638e-14 -2.49586e-14 -3.16636e-14 6.12586e-14 -1.88544e-14 -5.3126e-15 -6.13572e-15 8.22721e-16 2.80396e-14 -5.03687e-14 7.13661e-14 -1.1092e-14 -2.35878e-15 2.97101e-15 -6.31412e-14 7.21886e-14 8.9088e-15 -3.05151e-14 5.23322e-14 -9.06827e-14 7.53563e-14 1.17191e-14 -2.21566e-14 -3.74156e-14 -2.06973e-15 1.02977e-14 2.70644e-14 -6.7825e-15 -4.28273e-14 -1.10596e-14 1.15891e-13 -6.19908e-14 -2.26175e-14 2.90195e-14 -3.24781e-14 7.84594e-14 -3.02525e-14 -7.61835e-14 3.28365e-14 -1.04518e-14 7.90341e-15 -8.79293e-14 1.25964e-14 -1.89283e-15 2.18172e-14 9.01671e-15 -4.04522e-14 -3.27053e-14 7.1309e-14 -3.07033e-14 8.52138e-15 3.32531e-14 -5.70922e-14 3.05882e-14 2.85978e-14 -3.13109e-14 -4.77607e-14 -3.28668e-15 6.04614e-14 -2.72426e-14 -1.55193e-14 -1.1303e-14 2.25961e-14 -4.94646e-14 2.98686e-14 -6.54448e-15 -6.47937e-15 0 0 7.74892e-16 1.01289e-15 1.21544e-16 -5.94557e-16 -6.35527e-16 1.47562e-15 -9.06145e-16 -3.11578e-17 -2.47613e-15 -2.09878e-15 1.95836e-15 4.0591e-15 -4.0741e-15 3.58362e-15 1.00468e-15 -3.16175e-15 5.27596e-15 -5.3575e-15 3.87478e-15 -6.01976e-15 1.14672e-14 -1.35126e-14 6.31259e-15 1.23014e-14 -3.31917e-15 -8.99327e-15 -1.91344e-17 -7.15045e-15 1.23012e-14 -5.94912e-15 1.01909e-14 -2.11883e-14 1.17745e-14 2.26766e-14 -1.21892e-14 -6.85082e-15 -1.83063e-14 1.89032e-14 -1.16065e-14 1.21829e-14 -5.59827e-15 3.97225e-15 -4.49898e-15 -1.64331e-14 2.35776e-14 4.03849e-15 -1.86788e-14 1.40728e-14 1.07338e-14 -2.7301e-15 -3.74702e-15 -7.72728e-15 1.74166e-14 -5.23387e-15 1.41355e-14 2.20809e-14 -1.76576e-14 -1.47624e-14 4.26949e-14 -6.28263e-15 -3.24579e-14 3.14851e-15 9.57229e-15 -3.01174e-15 7.10007e-15 3.67413e-14 -1.42861e-14 1.98544e-14 -2.02171e-14 3.2874e-14 3.6482e-14 -2.67977e-14 3.81442e-15 1.08984e-14 3.03504e-14 -7.49774e-14 7.61388e-14 -5.6654e-14 -3.87642e-14 1.98782e-14 6.55422e-14 7.00519e-13 1.86606e-11 4.05057e-10 7.60815e-09 1.22398e-07 1.66446e-06 1.88164e-05 0.000173068 0.0012588 0.00698035 0.0284006 0.083367 0.18244 0.321389 0.493717 0.697228 0.913425 0.988639 0.928123 0.922189 0.917453 0.914758 0.906973 0.936032 0.918372 0.861072 0.906115 0.728446 0.632043 0.560561 0.37657 0.237491 0.119277 0.0474226 0.0150643 0.00413176 0.00103664 0.000243767 5.41346e-05 1.13805e-05 2.26726e-06 4.28424e-07 7.68491e-08 1.30966e-08 2.12218e-09 3.27209e-10 4.80181e-11 6.83444e-12 8.3003e-13 8.54304e-14 -9.85832e-14 -6.01897e-15 2.903e-14 -1.7125e-14 3.56105e-14 -1.07502e-14 -1.36857e-14 8.54616e-15 -1.41407e-14 2.14093e-14 -4.56349e-14 6.15868e-14 6.4206e-14 -4.06811e-14 -4.78499e-14 4.83834e-14 3.70863e-14 -1.42906e-14 4.15802e-14 -3.8306e-14 -4.36264e-14 7.90864e-14 -4.97929e-14 -1.04585e-14 2.01501e-15 -2.90499e-14 1.4982e-14 7.195e-14 -8.87331e-14 4.19547e-15 -7.27346e-15 1.725e-13 -7.56279e-14 -1.09431e-13 -1.62432e-14 5.78105e-14 -5.15794e-14 8.32935e-14 -1.07426e-13 3.68283e-15 4.44441e-14 -5.45616e-14 -2.70385e-14 -6.19583e-14 -2.02446e-14 8.81151e-14 -3.83655e-14 5.35549e-14 -7.20355e-14 3.76724e-14 -1.53586e-14 5.83471e-14 3.40874e-14 -4.6797e-14 -2.79218e-14 7.15812e-14 -8.05999e-14 -2.2234e-14 -2.36083e-14 3.0283e-14 6.82346e-14 -5.74896e-14 -3.96037e-14 6.89024e-15 -3.70143e-14 6.31714e-14 -8.19083e-14 5.23442e-14 0 0 3.17316e-16 7.4011e-16 -1.32538e-15 -8.87095e-16 1.38438e-15 -2.92556e-15 3.5765e-17 5.14563e-15 -1.4413e-16 -4.23097e-15 -6.04241e-15 5.29404e-15 8.32196e-15 -5.86457e-15 8.8339e-16 1.48406e-16 -1.70713e-15 7.34797e-15 -1.01086e-14 5.73075e-15 -4.57998e-15 3.29084e-15 -9.5039e-16 7.06424e-15 -1.32482e-14 6.56334e-15 1.92156e-15 -2.25695e-15 -1.9381e-15 1.50959e-14 -2.28736e-15 -6.4198e-15 2.2277e-14 -2.13176e-14 6.50855e-15 3.23579e-15 -2.03436e-14 -1.48827e-15 6.02388e-15 -3.99398e-15 9.45647e-15 4.30058e-15 -1.83702e-14 3.64206e-15 1.16211e-14 -1.63206e-14 1.26405e-14 3.9213e-15 -1.58277e-14 1.23035e-14 5.12535e-15 8.25361e-15 -8.86823e-15 2.28751e-14 1.65379e-14 2.17863e-14 1.627e-16 -3.69793e-14 1.31657e-14 7.32538e-15 -1.61083e-14 -2.55828e-14 2.78434e-14 7.32252e-15 1.34714e-14 3.2869e-14 -2.4149e-14 -1.22611e-14 3.78817e-14 -1.3448e-14 7.85734e-14 -4.25765e-14 3.35039e-14 1.666e-14 2.6991e-14 -7.97503e-14 3.5983e-16 8.20311e-15 -5.00662e-14 2.24478e-14 1.03484e-13 7.1411e-13 1.85784e-11 4.05123e-10 7.60806e-09 1.22398e-07 1.66446e-06 1.88164e-05 0.000173068 0.0012588 0.00698035 0.0284006 0.083367 0.18244 0.321389 0.493717 0.697228 0.913425 0.988639 0.928123 0.922189 0.917453 0.914758 0.906973 0.936032 0.918372 0.861072 0.906115 0.728446 0.632043 0.560561 0.37657 0.237491 0.119277 0.0474226 0.0150643 0.00413176 0.00103664 0.000243767 5.41346e-05 1.13805e-05 2.26726e-06 4.28424e-07 7.68492e-08 1.30966e-08 2.1221e-09 3.2723e-10 4.81212e-11 6.80852e-12 8.48039e-13 5.75148e-14 -1.35097e-13 -3.21578e-14 -1.32731e-14 3.19675e-14 2.39307e-15 4.92187e-15 1.82876e-14 5.33657e-14 -1.27889e-14 -8.31427e-15 -1.1671e-13 6.72037e-14 9.81306e-14 -2.17259e-14 -2.88729e-14 8.73263e-14 -7.34275e-14 6.50046e-14 2.2864e-14 -1.10412e-13 1.89361e-14 9.10614e-15 -2.94606e-14 3.56571e-14 2.79496e-14 -5.20615e-14 8.53076e-14 1.42335e-14 -6.39305e-14 1.95831e-14 3.56716e-14 2.83986e-14 1.72372e-14 -6.4262e-14 -9.70874e-14 7.44034e-14 -1.50589e-13 9.33094e-14 -9.16795e-14 1.30217e-14 5.56042e-14 -7.99218e-14 1.08053e-13 -1.48345e-13 -4.64501e-14 5.89906e-14 1.38712e-15 4.65462e-14 2.94627e-14 -1.15128e-14 -9.74085e-14 1.17842e-13 -6.3401e-15 -3.13993e-14 -2.39913e-14 -1.98876e-14 5.40073e-14 -6.42231e-14 1.42526e-14 -3.85301e-14 6.90901e-14 -6.18477e-14 -1.35754e-14 6.39442e-14 -6.47547e-14 1.44207e-14 -1.58425e-14 1.7527e-14 0 0 1.35613e-17 5.11669e-16 -1.5493e-15 -8.05505e-16 9.72903e-16 -8.75153e-16 1.50229e-15 2.55487e-15 1.62611e-15 -6.7191e-15 2.65266e-15 -4.45528e-15 1.12258e-14 9.75691e-16 -9.119e-15 -1.92454e-15 5.69736e-15 3.06762e-15 -8.5498e-15 1.07807e-14 -3.66469e-16 -4.04996e-15 -6.26701e-15 -5.47545e-15 -7.6374e-15 3.10823e-15 1.56702e-14 4.40002e-15 -4.3672e-15 8.24415e-15 -7.11723e-15 1.19347e-14 1.23067e-14 -2.65166e-14 2.34492e-14 -1.19466e-14 -3.14533e-15 -1.41121e-14 7.15782e-15 -5.97323e-15 1.1324e-14 -3.39518e-15 -3.2276e-15 -9.88273e-15 1.68519e-14 -3.11293e-14 1.66986e-14 1.27628e-14 -2.23078e-14 2.93814e-14 -1.29389e-14 2.39796e-14 -3.48223e-14 2.91417e-14 6.94458e-15 8.3334e-15 1.86871e-15 6.88516e-15 -1.79989e-14 5.72856e-15 -1.70145e-14 -1.63371e-14 1.52551e-14 3.68678e-14 -5.71426e-15 -2.3867e-15 2.63666e-14 1.93048e-16 7.87336e-14 -4.44501e-14 -1.27597e-15 5.31131e-14 2.29534e-14 1.37869e-14 -5.45264e-14 -5.27679e-14 -1.6194e-14 1.72211e-14 1.62459e-14 -4.22701e-16 1.11051e-13 8.07251e-13 1.85363e-11 4.05067e-10 7.60809e-09 1.22398e-07 1.66446e-06 1.88164e-05 0.000173068 0.0012588 0.00698035 0.0284006 0.083367 0.18244 0.321389 0.493717 0.697228 0.913425 0.988639 0.928123 0.922189 0.917453 0.914758 0.906973 0.936032 0.918372 0.861072 0.906115 0.728446 0.632043 0.560561 0.37657 0.237491 0.119277 0.0474226 0.0150643 0.00413176 0.00103664 0.000243767 5.41346e-05 1.13805e-05 2.26726e-06 4.28424e-07 7.68491e-08 1.30967e-08 2.12198e-09 3.27285e-10 4.8059e-11 6.78348e-12 9.367e-13 -4.7041e-14 -4.45386e-14 -6.21044e-14 -6.61482e-14 1.53012e-14 5.84029e-14 3.6955e-14 2.4528e-14 -3.66316e-15 5.35465e-14 -6.088e-14 -5.21422e-14 -3.39722e-14 9.17626e-14 2.58726e-14 5.34472e-14 1.46242e-14 -6.57566e-14 5.28173e-14 -4.9353e-14 4.70059e-14 -1.37592e-14 -7.87053e-14 7.09564e-15 5.36106e-14 -1.06829e-16 -2.3225e-14 8.41416e-14 8.89572e-14 -1.65024e-13 3.06175e-14 8.0913e-14 -5.32354e-14 6.20657e-14 6.80269e-14 -1.0871e-13 -9.87928e-14 -4.12528e-14 -9.85945e-15 -6.50129e-14 2.65567e-14 1.28259e-13 -5.68569e-14 8.33831e-14 -1.78233e-13 -5.73787e-14 3.68755e-14 3.64131e-14 9.16472e-15 7.68912e-14 1.248e-14 -1.09158e-13 3.51266e-14 -3.10668e-14 -5.41294e-14 2.44486e-14 -6.84394e-14 6.29019e-14 4.72148e-14 -5.87518e-14 -6.36765e-15 1.05033e-14 -1.11411e-14 -2.03103e-14 3.06915e-14 -3.44634e-14 1.31359e-14 9.09493e-14 -6.76595e-14 0 0 -1.15862e-16 9.70124e-16 2.44454e-15 -2.01833e-15 -3.08723e-16 2.38459e-15 -2.33484e-15 4.26836e-15 6.57207e-16 -8.6605e-15 1.87433e-15 5.59077e-15 6.77521e-15 -1.22908e-15 -1.23725e-14 6.51854e-16 1.19846e-14 -3.99637e-15 -1.39915e-15 -4.68724e-15 3.30015e-14 -2.96739e-14 -6.70407e-15 -9.77655e-15 -3.01138e-15 9.23637e-15 7.83499e-15 8.81431e-15 -6.79866e-15 4.26819e-15 -1.17931e-14 8.95915e-15 1.9118e-14 -1.77227e-14 3.17431e-14 -3.24078e-14 1.27973e-14 -6.89392e-15 -6.359e-15 -8.92503e-15 1.27838e-14 -2.43025e-15 1.44791e-15 -1.38319e-14 8.97279e-15 -1.11932e-14 -9.66986e-15 2.03175e-14 1.31987e-14 2.49936e-14 -3.58973e-14 3.68118e-15 -2.97968e-14 3.38092e-14 -4.12951e-15 -8.21472e-16 -1.40992e-14 4.53788e-14 -1.9598e-14 -2.28203e-16 -2.45552e-14 3.41579e-15 2.80952e-14 1.34967e-14 -2.36437e-14 1.70438e-14 2.12398e-14 9.06098e-14 7.82104e-15 -5.68658e-14 -4.81873e-14 1.40332e-13 1.03596e-14 -4.32556e-14 -7.11819e-14 1.23912e-14 -2.10995e-14 -1.17991e-14 4.69732e-14 1.28075e-14 8.22126e-14 8.44836e-13 1.85828e-11 4.05006e-10 7.60809e-09 1.22398e-07 1.66446e-06 1.88164e-05 0.000173068 0.0012588 0.00698035 0.0284006 0.083367 0.18244 0.321389 0.493717 0.697228 0.913425 0.988639 0.928123 0.922189 0.917453 0.914758 0.906973 0.936032 0.918372 0.861072 0.906115 0.728446 0.632043 0.560561 0.37657 0.237491 0.119277 0.0474226 0.0150643 0.00413176 0.00103664 0.000243767 5.41346e-05 1.13805e-05 2.26726e-06 4.28424e-07 7.6849e-08 1.30967e-08 2.122e-09 3.27316e-10 4.80122e-11 6.77659e-12 8.93961e-13 -8.65346e-14 2.76783e-14 -9.65559e-14 -4.72698e-14 1.32646e-14 5.35113e-14 7.91294e-14 1.33366e-14 -6.07275e-14 5.63405e-14 -6.40924e-14 5.58842e-14 -1.11795e-13 3.37197e-14 8.09588e-14 7.59498e-14 5.16311e-14 -9.12159e-14 -8.40035e-15 -3.2961e-14 1.63126e-13 -5.37295e-15 -1.62491e-13 -1.81158e-14 6.68765e-14 -3.41762e-14 4.96799e-15 1.89225e-14 2.38755e-13 -3.16141e-13 1.09718e-13 5.70507e-14 5.80958e-14 9.2558e-15 5.22593e-14 -7.50681e-14 -1.92792e-13 -2.7855e-14 3.01351e-14 -8.48809e-14 4.46163e-14 2.05663e-13 -9.26088e-14 3.09852e-14 -2.01439e-13 -4.95352e-14 8.27394e-14 4.85861e-15 1.48338e-14 3.73049e-14 6.78475e-14 -4.67725e-14 -6.43071e-14 -4.921e-14 -4.37368e-14 2.12212e-14 6.82311e-16 -1.12711e-13 2.42098e-13 -1.82081e-13 1.74225e-14 7.1288e-14 4.8749e-15 -6.59199e-14 -8.83753e-14 8.87537e-14 1.31512e-14 9.50556e-14 -3.53835e-14 0
				</DataArray>
				<DataArray Name="VitesseY" type="Float32" format="ascii">