<?xml version="1.0"?>
<VTKFile type="PolyData">
	<PolyData>
		<Piece NumberOfPoints="1206" NumberOfPolys="1000">
			<Points>
				<DataArray type="Float32" NumberOfComponents="3" format="ascii">
 0 0 0 0.005 0 0 0.01 0 0 0.015 0 0 0.02 0 0 0.025 0 0 0.03 0 0 0.035 0 0 0.04 0 0 0.045 0 0 0.05 0 0 0.055 0 0 0.06 0 0 0.065 0 0 0.07 0 0 0.075 0 0 0.08 0 0 0.085 0 0 0.09 0 0 0.095 0 0 0.1 0 0 0.105 0 0 0.11 0 0 0.115 0 0 0.12 0 0 0.125 0 0 0.13 0 0 0.135 0 0 0.14 0 0 0.145 0 0 0.15 0 0 0.155 0 0 0.16 0 0 0.165 0 0 0.17 0 0 0.175 0 0 0.18 0 0 0.185 0 0 0.19 0 0 0.195 0 0 0.2 0 0 0.205 0 0 0.21 0 0 0.215 0 0 0.22 0 0 0.225 0 0 0.23 0 0 0.235 0 0 0.24 0 0 0.245 0 0 0.25 0 0 0.255 0 0 0.26 0 0 0.265 0 0 0.27 0 0 0.275 0 0 0.28 0 0 0.285 0 0 0.290001 0 0 0.295004 0 0 0.300011 0 0 0.305029 0 0 0.310067 0 0 0.315143 0 0 0.320275 0 0 0.325485 0 0 0.330792 0 0 0.33621 0 0 0.341752 0 0 0.34743 0 0 0.353253 0 0 0.359233 0 0 0.365379 0 0 0.371704 0 0 0.37822 0 0 0.384942 0 0 0.391883 0 0 0.399062 0 0 0.406496 0 0 0.414208 0 0 0.422219 0 0 0.430557 0 0 0.439251 0 0 0.448335 0 0 0.457846 0 0 0.467824 0 0 0.478312 0 0 0.489344 0 0 0.500928 0 0 0.512972 0 0 0.525152 0 0 0.537226 0 0 0.549188 0 0 0.561052 0 0 0.57285 0 0 0.584613 0 0 0.59636 0 0 0.608101 0 0 0.61984 0 0 0.63158 0 0 0.643334 0 0 0.645947 0 0 0.648486 0 0 0.650979 0 0 0.65344 0 0 0.655878 0 0 0.6583 0 0 0.660709 0 0 0.663107 0 0 0.6655 0 0 0.667888 0 0 0.670269 0 0 0.672646 0 0 0.675018 0 0 0.677387 0 0 0.679755 0 0 0.68212 0 0 0.684483 0 0 0.686845 0 0 0.689205 0 0 0.691565 0 0 0.693924 0 0 0.696282 0 0 0.698639 0 0 0.700996 0 0 0.703352 0 0 0.705709 0 0 0.708065 0 0 0.710422 0 0 0.712778 0 0 0.715134 0 0 0.717489 0 0 0.719845 0 0 0.722199 0 0 0.724554 0 0 0.726911 0 0 0.729269 0 0 0.731627 0 0 0.733984 0 0 0.73634 0 0 0.738696 0 0 0.741051 0 0 0.743408 0 0 0.745769 0 0 0.748129 0 0 0.750486 0 0 0.752843 0 0 0.75521 0 0 0.757604 0 0 0.760059 0 0 0.762579 0 0 0.765215 0 0 0.76798 0 0 0.770958 0 0 0.774185 0 0 0.777733 0 0 0.781627 0 0 0.785869 0 0 0.790412 0 0 0.795175 0 0 0.800069 0 0 0.805026 0 0 0.810009 0 0 0.815003 0 0 0.820001 0 0 0.825 0 0 0.83 0 0 0.835 0 0 0.84 0 0 0.845 0 0 0.85 0 0 0.855 0 0 0.86 0 0 0.865 0 0 0.87 0 0 0.875 0 0 0.88 0 0 0.885 0 0 0.89 0 0 0.895 0 0 0.9 0 0 0.905 0 0 0.91 0 0 0.915 0 0 0.92 0 0 0.925 0 0 0.93 0 0 0.935 0 0 0.94 0 0 0.945 0 0 0.95 0 0 0.955 0 0 0.96 0 0 0.965 0 0 0.97 0 0 0.975 0 0 0.98 0 0 0.985 0 0 0.99 0 0 0.995 0 0 1 0 0 0 0.02 0 0.005 0.02 0 0.01 0.02 0 0.015 0.02 0 0.02 0.02 0 0.025 0.02 0 0.03 0.02 0 0.035 0.02 0 0.04 0.02 0 0.045 0.02 0 0.05 0.02 0 0.055 0.02 0 0.06 0.02 0 0.065 0.02 0 0.07 0.02 0 0.075 0.02 0 0.08 0.02 0 0.085 0.02 0 0.09 0.02 0 0.095 0.02 0 0.1 0.02 0 0.105 0.02 0 0.11 0.02 0 0.115 0.02 0 0.12 0.02 0 0.125 0.02 0 0.13 0.02 0 0.135 0.02 0 0.14 0.02 0 0.145 0.02 0 0.15 0.02 0 0.155 0.02 0 0.16 0.02 0 0.165 0.02 0 0.17 0.02 0 0.175 0.02 0 0.18 0.02 0 0.185 0.02 0 0.19 0.02 0 0.195 0.02 0 0.2 0.02 0 0.205 0.02 0 0.21 0.02 0 0.215 0.02 0 0.22 0.02 0 0.225 0.02 0 0.23 0.02 0 0.235 0.02 0 0.24 0.02 0 0.245 0.02 0 0.25 0.02 0 0.255 0.02 0 0.26 0.02 0 0.265 0.02 0 0.27 0.02 0 0.275 0.02 0 0.28 0.02 0 0.285 0.02 0 0.290001 0.02 0 0.295004 0.02 0 0.300011 0.02 0 0.305029 0.02 0 0.310067 0.02 0 0.315143 0.02 0 0.320275 0.02 0 0.325485 0.02 0 0.330792 0.02 0 0.33621 0.02 0 0.341752 0.02 0 0.34743 0.02 0 0.353253 0.02 0 0.359233 0.02 0 0.365379 0.02 0 0.371704 0.02 0 0.37822 0.02 0 0.384942 0.02 0 0.391883 0.02 0 0.399062 0.02 0 0.406496 0.02 0 0.414208 0.02 0 0.422219 0.02 0 0.430557 0.02 0 0.439251 0.02 0 0.448335 0.02 0 0.457846 0.02 0 0.467824 0.02 0 0.478312 0.02 0 0.489344 0.02 0 0.500928 0.02 0 0.512972 0.02 0 0.525152 0.02 0 0.537226 0.02 0 0.549188 0.02 0 0.561052 0.02 0 0.57285 0.02 0 0.584613 0.02 0 0.59636 0.02 0 0.608101 0.02 0 0.61984 0.02 0 0.63158 0.02 0 0.643334 0.02 0 0.645947 0.02 0 0.648486 0.02 0 0.650979 0.02 0 0.65344 0.02 0 0.655878 0.02 0 0.6583 0.02 0 0.660709 0.02 0 0.663107 0.02 0 0.6655 0.02 0 0.667888 0.02 0 0.670269 0.02 0 0.672646 0.02 0 0.675018 0.02 0 0.677387 0.02 0 0.679755 0.02 0 0.68212 0.02 0 0.684483 0.02 0 0.686845 0.02 0 0.689205 0.02 0 0.691565 0.02 0 0.693924 0.02 0 0.696282 0.02 0 0.698639 0.02 0 0.700996 0.02 0 0.703352 0.02 0 0.705709 0.02 0 0.708065 0.02 0 0.710422 0.02 0 0.712778 0.02 0 0.715134 0.02 0 0.717489 0.02 0 0.719845 0.02 0 0.722199 0.02 0 0.724554 0.02 0 0.726911 0.02 0 0.729269 0.02 0 0.731627 0.02 0 0.733984 0.02 0 0.73634 0.02 0 0.738696 0.02 0 0.741051 0.02 0 0.743408 0.02 0 0.745769 0.02 0 0.748129 0.02 0 0.750486 0.02 0 0.752843 0.02 0 0.75521 0.02 0 0.757604 0.02 0 0.760059 0.02 0 0.762579 0.02 0 0.765215 0.02 0 0.76798 0.02 0 0.770958 0.02 0 0.774185 0.02 0 0.777733 0.02 0 0.781627 0.02 0 0.785869 0.02 0 0.790412 0.02 0 0.795175 0.02 0 0.800069 0.02 0 0.805026 0.02 0 0.810009 0.02 0 0.815003 0.02 0 0.820001 0.02 0 0.825 0.02 0 0.83 0.02 0 0.835 0.02 0 0.84 0.02 0 0.845 0.02 0 0.85 0.02 0 0.855 0.02 0 0.86 0.02 0 0.865 0.02 0 0.87 0.02 0 0.875 0.02 0 0.88 0.02 0 0.885 0.02 0 0.89 0.02 0 0.895 0.02 0 0.9 0.02 0 0.905 0.02 0 0.91 0.02 0 0.915 0.02 0 0.92 0.02 0 0.925 0.02 0 0.93 0.02 0 0.935 0.02 0 0.94 0.02 0 0.945 0.02 0 0.95 0.02 0 0.955 0.02 0 0.96 0.02 0 0.965 0.02 0 0.97 0.02 0 0.975 0.02 0 0.98 0.02 0 0.985 0.02 0 0.99 0.02 0 0.995 0.02 0 1 0.02 0 0 0.04 0 0.005 0.04 0 0.01 0.04 0 0.015 0.04 0 0.02 0.04 0 0.025 0.04 0 0.03 0.04 0 0.035 0.04 0 0.04 0.04 0 0.045 0.04 0 0.05 0.04 0 0.055 0.04 0 0.06 0.04 0 0.065 0.04 0 0.07 0.04 0 0.075 0.04 0 0.08 0.04 0 0.085 0.04 0 0.09 0.04 0 0.095 0.04 0 0.1 0.04 0 0.105 0.04 0 0.11 0.04 0 0.115 0.04 0 0.12 0.04 0 0.125 0.04 0 0.13 0.04 0 0.135 0.04 0 0.14 0.04 0 0.145 0.04 0 0.15 0.04 0 0.155 0.04 0 0.16 0.04 0 0.165 0.04 0 0.17 0.04 0 0.175 0.04 0 0.18 0.04 0 0.185 0.04 0 0.19 0.04 0 0.195 0.04 0 0.2 0.04 0 0.205 0.04 0 0.21 0.04 0 0.215 0.04 0 0.22 0.04 0 0.225 0.04 0 0.23 0.04 0 0.235 0.04 0 0.24 0.04 0 0.245 0.04 0 0.25 0.04 0 0.255 0.04 0 0.26 0.04 0 0.265 0.04 0 0.27 0.04 0 0.275 0.04 0 0.28 0.04 0 0.285 0.04 0 0.290001 0.04 0 0.295004 0.04 0 0.300011 0.04 0 0.305029 0.04 0 0.310067 0.04 0 0.315143 0.04 0 0.320275 0.04 0 0.325485 0.04 0 0.330792 0.04 0 0.33621 0.04 0 0.341752 0.04 0 0.34743 0.04 0 0.353253 0.04 0 0.359233 0.04 0 0.365379 0.04 0 0.371704 0.04 0 0.37822 0.04 0 0.384942 0.04 0 0.391883 0.04 0 0.399062 0.04 0 0.406496 0.04 0 0.414208 0.04 0 0.422219 0.04 0 0.430557 0.04 0 0.439251 0.04 0 0.448335 0.04 0 0.457846 0.04 0 0.467824 0.04 0 0.478312 0.04 0 0.489344 0.04 0 0.500928 0.04 0 0.512972 0.04 0 0.525152 0.04 0 0.537226 0.04 0 0.549188 0.04 0 0.561052 0.04 0 0.57285 0.04 0 0.584613 0.04 0 0.59636 0.04 0 0.608101 0.04 0 0.61984 0.04 0 0.63158 0.04 0 0.643334 0.04 0 0.645947 0.04 0 0.648486 0.04 0 0.650979 0.04 0 0.65344 0.04 0 0.655878 0.04 0 0.6583 0.04 0 0.660709 0.04 0 0.663107 0.04 0 0.6655 0.04 0 0.667888 0.04 0 0.670269 0.04 0 0.672646 0.04 0 0.675018 0.04 0 0.677387 0.04 0 0.679755 0.04 0 0.68212 0.04 0 0.684483 0.04 0 0.686845 0.04 0 0.689205 0.04 0 0.691565 0.04 0 0.693924 0.04 0 0.696282 0.04 0 0.698639 0.04 0 0.700996 0.04 0 0.703352 0.04 0 0.705709 0.04 0 0.708065 0.04 0 0.710422 0.04 0 0.712778 0.04 0 0.715134 0.04 0 0.717489 0.04 0 0.719845 0.04 0 0.722199 0.04 0 0.724554 0.04 0 0.726911 0.04 0 0.729269 0.04 0 0.731627 0.04 0 0.733984 0.04 0 0.73634 0.04 0 0.738696 0.04 0 0.741051 0.04 0 0.743408 0.04 0 0.745769 0.04 0 0.748129 0.04 0 0.750486 0.04 0 0.752843 0.04 0 0.75521 0.04 0 0.757604 0.04 0 0.760059 0.04 0 0.762579 0.04 0 0.765215 0.04 0 0.76798 0.04 0 0.770958 0.04 0 0.774185 0.04 0 0.777733 0.04 0 0.781627 0.04 0 0.785869 0.04 0 0.790412 0.04 0 0.795175 0.04 0 0.800069 0.04 0 0.805026 0.04 0 0.810009 0.04 0 0.815003 0.04 0 0.820001 0.04 0 0.825 0.04 0 0.83 0.04 0 0.835 0.04 0 0.84 0.04 0 0.845 0.04 0 0.85 0.04 0 0.855 0.04 0 0.86 0.04 0 0.865 0.04 0 0.87 0.04 0 0.875 0.04 0 0.88 0.04 0 0.885 0.04 0 0.89 0.04 0 0.895 0.04 0 0.9 0.04 0 0.905 0.04 0 0.91 0.04 0 0.915 0.04 0 0.92 0.04 0 0.925 0.04 0 0.93 0.04 0 0.935 0.04 0 0.94 0.04 0 0.945 0.04 0 0.95 0.04 0 0.955 0.04 0 0.96 0.04 0 0.965 0.04 0 0.97 0.04 0 0.975 0.04 0 0.98 0.04 0 0.985 0.04 0 0.99 0.04 0 0.995 0.04 0 1 0.04 0 0 0.06 0 0.005 0.06 0 0.01 0.06 0 0.015 0.06 0 0.02 0.06 0 0.025 0.06 0 0.03 0.06 0 0.035 0.06 0 0.04 0.06 0 0.045 0.06 0 0.05 0.06 0 0.055 0.06 0 0.06 0.06 0 0.065 0.06 0 0.07 0.06 0 0.075 0.06 0 0.08 0.06 0 0.085 0.06 0 0.09 0.06 0 0.095 0.06 0 0.1 0.06 0 0.105 0.06 0 0.11 0.06 0 0.115 0.06 0 0.12 0.06 0 0.125 0.06 0 0.13 0.06 0 0.135 0.06 0 0.14 0.06 0 0.145 0.06 0 0.15 0.06 0 0.155 0.06 0 0.16 0.06 0 0.165 0.06 0 0.17 0.06 0 0.175 0.06 0 0.18 0.06 0 0.185 0.06 0 0.19 0.06 0 0.195 0.06 0 0.2 0.06 0 0.205 0.06 0 0.21 0.06 0 0.215 0.06 0 0.22 0.06 0 0.225 0.06 0 0.23 0.06 0 0.235 0.06 0 0.24 0.06 0 0.245 0.06 0 0.25 0.06 0 0.255 0.06 0 0.26 0.06 0 0.265 0.06 0 0.27 0.06 0 0.275 0.06 0 0.28 0.06 0 0.285 0.06 0 0.290001 0.06 0 0.295004 0.06 0 0.300011 0.06 0 0.305029 0.06 0 0.310067 0.06 0 0.315143 0.06 0 0.320275 0.06 0 0.325485 0.06 0 0.330792 0.06 0 0.33621 0.06 0 0.341752 0.06 0 0.34743 0.06 0 0.353253 0.06 0 0.359233 0.06 0 0.365379 0.06 0 0.371704 0.06 0 0.37822 0.06 0 0.384942 0.06 0 0.391883 0.06 0 0.399062 0.06 0 0.406496 0.06 0 0.414208 0.06 0 0.422219 0.06 0 0.430557 0.06 0 0.439251 0.06 0 0.448335 0.06 0 0.457846 0.06 0 0.467824 0.06 0 0.478312 0.06 0 0.489344 0.06 0 0.500928 0.06 0 0.512972 0.06 0 0.525152 0.06 0 0.537226 0.06 0 0.549188 0.06 0 0.561052 0.06 0 0.57285 0.06 0 0.584613 0.06 0 0.59636 0.06 0 0.608101 0.06 0 0.61984 0.06 0 0.63158 0.06 0 0.643334 0.06 0 0.645947 0.06 0 0.648486 0.06 0 0.650979 0.06 0 0.65344 0.06 0 0.655878 0.06 0 0.6583 0.06 0 0.660709 0.06 0 0.663107 0.06 0 0.6655 0.06 0 0.667888 0.06 0 0.670269 0.06 0 0.672646 0.06 0 0.675018 0.06 0 0.677387 0.06 0 0.679755 0.06 0 0.68212 0.06 0 0.684483 0.06 0 0.686845 0.06 0 0.689205 0.06 0 0.691565 0.06 0 0.693924 0.06 0 0.696282 0.06 0 0.698639 0.06 0 0.700996 0.06 0 0.703352 0.06 0 0.705709 0.06 0 0.708065 0.
[...]
			<PointData Scalars="VitesseX">
				<DataArray Name="VitesseX" type="Float32" format="ascii">
 0 2.54419e-15 -1.04531e-15 -8.16812e-16 4.63823e-16 -2.72609e-15 -3.01088e-15 1.79916e-15 -4.69534e-15 -1.20204e-15 -7.49132e-15 -5.45167e-16 -1.14759e-15 -4.08133e-15 1.94301e-16 4.98623e-15 -6.9689e-15 -8.59128e-15 9.09832e-15 -1.31045e-15 1.15485e-14 2.89313e-15 -2.81526e-15 1.34003e-14 1.44233e-14 -1.51612e-15 3.08723e-14 -1.58645e-14 1.64841e-14 2.77276e-15 1.32557e-14 -7.24542e-15 -9.85618e-15 6.38297e-15 7.5232e-15 -1.354e-14 7.12944e-15 1.87286e-14 1.5869e-15 1.17581e-14 2.44213e-14 -1.71974e-14 6.60503e-14 8.55489e-15 1.13947e-13 3.69164e-13 2.29063e-12 1.54629e-11 9.83915e-11 5.93794e-10 3.38298e-09 1.81588e-08 9.15876e-08 4.32773e-07 1.90929e-06 7.83368e-06 2.97541e-05 0.000104056 0.000332934 0.000967429 0.00253268 0.00592909 0.0123509 0.0228996 0.0380633 0.0575041 0.0803482 0.105671 0.132791 0.161307 0.191016 0.221831 0.253723 0.2867 0.320791 0.35604 0.392502 0.430244 0.469341 0.509876 0.551938 0.595615 0.640993 0.688126 0.737009 0.787473 0.838958 0.889863 0.935655 0.963658 0.957697 0.948609 0.939854 0.933749 0.930276 0.928617 0.927887 0.927548 0.927368 0.927246 0.927092 0.927069 0.927051 0.927039 0.927034 0.927039 0.927074 0.927051 0.927037 0.927018 0.926995 0.926972 0.926946 0.926921 0.926897 0.926877 0.926863 0.926856 0.926858 0.926911 0.926896 0.926832 0.926747 0.926639 0.926564 0.92652 0.926531 0.926869 0.927059 0.926879 0.926488 0.926242 0.926053 0.925968 0.926136 0.927446 0.926982 0.926553 0.925764 0.925246 0.924775 0.9249 0.926812 0.927148 0.928221 0.924542 0.916587 0.917984 0.897537 0.887932 0.837009 0.817693 0.72833 0.668052 0.551604 0.439014 0.312904 0.198944 0.108951 0.0512311 0.0212685 0.00819082 0.00304329 0.00111353 0.000404663 0.000146496 5.28756e-05 1.90269e-05 6.82332e-06 2.43727e-06 8.66614e-07 3.06533e-07 1.07788e-07 3.76543e-08 1.30597e-08 4.49416e-09 1.53359e-09 5.18749e-10 1.73635e-10 5.76955e-11 1.88239e-11 6.24836e-12 1.92254e-12 6.14279e-13 1.29078e-13 -5.8372e-14 -8.69262e-14 -9.86022e-14 -1.70899e-14 7.50097e-14 5.30542e-14 -1.81394e-14 -8.0229e-14 9.21802e-14 -3.51803e-14 8.90247e-14 -9.74724e-14 2.18819e-14 1.14508e-13 9.08898e-14 0 0 -3.82635e-16 -1.00079e-15 -1.71126e-15 -4.86794e-16 -3.21388e-15 -2.61527e-15 -3.52532e-15 5.16896e-15 -6.00233e-15 -2.7288e-16 -6.42388e-15 -4.81833e-17 -5.54372e-15 3.05569e-15 -4.25812e-15 4.46819e-15 4.24239e-15 -8.48736e-16 -7.259e-16 4.07994e-15 1.11333e-14 -1.26654e-15 4.99989e-15 6.9298e-15 2.06682e-14 1.22235e-14 1.30405e-15 -6.23624e-15 -2.09221e-15 1.02548e-14 -1.15977e-14 1.61387e-14 -6.39082e-15 2.01998e-14 -4.57898e-15 -1.11339e-14 1.44979e-14 4.13582e-15 3.01631e-14 -2.73987e-14 4.9214e-14 5.30711e-14 2.57228e-14 6.17493e-14 4.11326e-13 2.31422e-12 1.54097e-11 9.8421e-11 5.93826e-10 3.38294e-09 1.81588e-08 9.15876e-08 4.32773e-07 1.90929e-06 7.83368e-06 2.97541e-05 0.000104056 0.000332934 0.000967429 0.00253268 0.00592909 0.0123509 0.0228996 0.0380633 0.0575041 0.0803482 0.105671 0.132791 0.161307 0.191016 0.221831 0.253723 0.2867 0.320791 0.35604 0.392502 0.430244 0.469341 0.509876 0.551938 0.595615 0.640993 0.688126 0.737009 0.787473 0.838958 0.889863 0.935655 0.963658 0.957697 0.948609 0.939854 0.933749 0.930276 0.928617 0.927887 0.927548 0.927368 0.927246 0.927092 0.927069 0.927051 0.927039 0.927034 0.927039 0.927074 0.927051 0.927037 0.927018 0.926995 0.926972 0.926946 0.926921 0.926897 0.926877 0.926863 0.926856 0.926858 0.926911 0.926896 0.926832 0.926747 0.926639 0.926564 0.92652 0.926531 0.926869 0.927059 0.926879 0.926488 0.926242 0.926053 0.925968 0.926136 0.927446 0.926982 0.926553 0.925764 0.925246 0.924775 0.9249 0.926812 0.927148 0.928221 0.924542 0.916587 0.917984 0.897537 0.887932 0.837009 0.817693 0.72833 0.668052 0.551604 0.439014 0.312904 0.198944 0.108951 0.0512311 0.0212685 0.00819082 0.00304329 0.00111353 0.000404663 0.000146496 5.28756e-05 1.90269e-05 6.82332e-06 2.43727e-06 8.66614e-07 3.06533e-07 1.07788e-07 3.76543e-08 1.30597e-08 4.4942e-09 1.53365e-09 5.18629e-10 1.73798e-10 5.75527e-11 1.89477e-11 6.06684e-12 2.05747e-12 5.86916e-13 9.0674e-14 -6.59582e-14 -9.88818e-14 -4.50009e-14 2.71739e-15 6.6819e-14 4.28107e-14 -5.84305e-14 7.33352e-14 -7.15828e-14 -2.00794e-14 1.80258e-14 8.96201e-14 4.34656e-14 1.1414e-13 -4.83478e-14 0 0 -1.67576e-15 -3.94067e-15 -5.96039e-16 2.89479e-16 -3.25585e-15 8.02321e-16 -4.35526e-15 -7.63845e-16 4.22432e-15 -3.20407e-15 -6.26448e-15 -2.67432e-15 5.027e-15 -1.86744e-15 4.55396e-15 3.23332e-15 3.92337e-15 3.24804e-15 -3.55575e-16 -1.03354e-15 9.4749e-15 5.32392e-15 7.20965e-15 -9.394e-15 1.8479e-14 1.2199e-14 1.60103e-14 -2.11309e-14 -1.16945e-14 -2.45742e-15 2.09745e-14 9.10792e-15 -2.58029e-15 1.91795e-15 7.47552e-15 1.22686e-14 1.36121e-15 1.89774e-14 1.91827e-14 -1.09235e-14 3.53875e-14 7.21656e-14 6.25225e-14 9.03146e-14 3.98701e-13 2.27677e-12 1.53869e-11 9.84403e-11 5.93822e-10 3.38297e-09 1.81587e-08 9.15876e-08 4.32773e-07 1.90929e-06 7.83368e-06 2.97541e-05 0.000104056 0.000332934 0.000967429 0.00253268 0.00592909 0.0123509 0.0228996 0.0380633 0.0575041 0.0803482 0.105671 0.132791 0.161307 0.191016 0.221831 0.253723 0.2867 0.320791 0.35604 0.392502 0.430244 0.469341 0.509876 0.551938 0.595615 0.640993 0.688126 0.737009 0.787473 0.838958 0.889863 0.935655 0.963658 0.957697 0.948609 0.939854 0.933749 0.930276 0.928617 0.927887 0.927548 0.927368 0.927246 0.927092 0.927069 0.927051 0.927039 0.927034 0.927039 0.927074 0.927051 0.927037 0.927018 0.926995 0.926972 0.926946 0.926921 0.926897 0.926877 0.926863 0.926856 0.926858 0.926911 0.926896 0.926832 0.926747 0.926639 0.926564 0.92652 0.926531 0.926869 0.927059 0.926879 0.926488 0.926242 0.926053 0.925968 0.926136 0.927446 0.926982 0.926553 0.925764 0.925246 0.924775 0.9249 0.926812 0.927148 0.928221 0.924542 0.916587 0.917984 0.897537 0.887932 0.837009 0.817693 0.72833 0.668052 0.551604 0.439014 0.312904 0.198944 0.108951 0.0512311 0.0212685 0.00819082 0.00304329 0.00111353 0.000404663 0.000146496 5.28756e-05 1.90269e-05 6.82332e-06 2.43727e-06 8.66614e-07 3.06533e-07 1.07788e-07 3.76543e-08 1.30597e-08 4.49417e-09 1.53362e-09 5.1868e-10 1.73837e-10 5.76123e-11 1.88859e-11 6.24968e-12 2.00072e-12 6.45333e-13 -6.56443e-14 -4.82432e-14 -3.90324e-14 -4.01864e-14 5.56281e-14 -3.09918e-14 3.34989e-14 -1.30954e-14 -4.78918e-14 -3.30934e-14 4.53178e-14 6.35446e-14 1.58436e-13 -2.12298e-14 -3.25728e-14 9.56467e-15 0 0 -1.54375e-15 -3.90499e-15 -1.55715e-15 3.3967e-15 -5.37814e-16 -7.96894e-16 4.67589e-15 2.98511e-15 3.01932e-15 -5.33434e-15 -4.36894e-15 1.69157e-16 1.50463e-14 -7.59526e-15 8.58659e-15 2.54111e-15 -6.10145e-15 2.59873e-15 1.77523e-14 -7.86965e-15 3.58758e-15 1.15289e-14 1.04696e-14 -1.07497e-14 -9.87214e-16 -2.42218e-15 2.73516e-14 -2.11397e-14 1.82543e-14 -1.16752e-14 5.81444e-15 1.90146e-14 -1.05432e-14 -3.58148e-15 9.82251e-15 4.98979e-14 2.95151e-15 1.6925e-14 3.62427e-14 -2.50337e-15 1.26376e-14 4.61437e-14 1.15516e-13 1.65665e-13 3.77805e-13 2.20128e-12 1.5458e-11 9.83774e-11 5.93746e-10 3.38297e-09 1.81586e-08 9.15876e-08 4.32773e-07 1.90929e-06 7.83368e-06 2.97541e-05 0.000104056 0.000332934 0.000967429 0.00253268 0.00592909 0.0123509 0.0228996 0.0380633 0.0575041 0.0803482 0.105671 0.132791 0.161307 0.191016 0.221831 0.253723 0.2867 0.320791 0.35604 0.392502 0.430244 0.469341 0.509876 0.551938 0.595615 0.640993 0.688126 0.737009 0.787473 0.838958 0.889863 0.935655 0.963658 0.957697 0.948609 0.939854 0.933749 0.930276 0.928617 0.927887 0.927548 0.927368 0.927246 0.927092 0.927069 0.927051 0.927039 0.927034 0.927039 0.927074 0.927051 0.927037 0.927018 0.926995 0.926972 0.926946 0.926921 0.926897 0.926877 0.926863 0.926856 0.926858 0.926911 0.926896 0.926832 0.926747 0.926639 0.926564 0.92652 0.926531 0.926869 0.927059 0.926879 0.926488 0.926242 0.926053 0.925968 0.926136 0.927446 0.926982 0.926553 0.925764 0.925246 0.924775 0.9249 0.926812 0.927148 0.928221 0.924542 0.916587 0.917984 0.897537 0.887932 0.837009 0.817693 0.72833 0.668052 0.551604 0.439014 0.312904 0.198944 0.108951 0.0512311 0.0212685 0.00819082 0.00304329 0.00111353 0.000404663 0.000146496 5.28756e-05 1.90269e-05 6.82332e-06 2.43727e-06 8.66614e-07 3.06533e-07 1.07788e-07 3.76543e-08 1.30596e-08 4.49421e-09 1.53361e-09 5.18703e-10 1.7392e-10 5.7489e-11 1.90556e-11 6.19914e-12 1.98998e-12 7.5351e-13 -1.85554e-13 3.11477e-14 1.13193e-13 -8.65968e-14 1.53529e-13 1.61629e-14 3.82645e-14 -7.93176e-14 -1.67106e-13 -3.35862e-14 1.77325e-13 3.29719e-14 -1.3711e-13 -2.67468e-14 1.54652e-13 -8.99966e-15 0 0 -2.98641e-17 -1.39942e-15 -2.40377e-15 3.57737e-15 2.54404e-15 1.63517e-15 1.15448e-14 1.75611e-14 -2.08025e-16 2.88687e-15 -6.8608e-15 2.30418e-15 7.75982e-15 -2.48772e-15 -1.52949e-14 1.09811e-14 -2.00169e-15 5.23258e-16 1.64945e-14 -2.14871e-14 1.82667e-14 3.85888e-15 5.75426e-15 4.18783e-15 -1.83172e-15 -1.39971e-14 1.59597e-14 -2.10889e-15 3.48115e-14 1.51693e-15 -2.23079e-14 1.65236e-14 -1.8087e-14 1.75803e-14 1.9811e-15 2.32376e-14 -6.23777e-15 1.1149e-14 8.08779e-14 3.36605e-15 8.5215e-14 -1.53679e-14 7.03495e-14 1.77783e-13 3.72044e-13 2.23965e-12 1.54681e-11 9.83312e-11 5.93792e-10 3.38289e-09 1.81586e-08 9.15876e-08 4.32773e-07 1.90929e-06 7.83368e-06 2.97541e-05 0.000104056 0.000332934 0.000967429 0.00253268 0.00592909 0.0123509 0.0228996 0.0380633 0.0575041 0.0803482 0.105671 0.132791 0.161307 0.191016 0.221831 0.253723 0.2867 0.320791 0.35604 0.392502 0.430244 0.469341 0.509876 0.551938 0.595615 0.640993 0.688126 0.737009 0.787473 0.838958 0.889863 0.935655 0.963658 0.957697 0.948609 0.939854 0.933749 0.930276 0.928617 0.927887 0.927548 0.927368 0.927246 0.927092 0.927069 0.927051 0.927039 0.927034 0.927039 0.927074 0.927051 0.927037 0.927018 0.926995 0.926972 0.926946 0.926921 0.926897 0.926877 0.926863 0.926856 0.926858 0.926911 0.926896 0.926832 0.926747 0.926639 0.926564 0.92652 0.926531 0.926869 0.927059 0.926879 0.926488 0.926242 0.926053 0.925968 0.926136 0.927446 0.926982 0.926553 0.925764 0.925246 0.924775 0.9249 0.926812 0.927148 0.928221 0.924542 0.916587 0.917984 0.897537 0.887932 0.837009 0.817693 0.72833 0.668052 0.551604 0.439014 0.312904 0.198944 0.108951 0.0512311 0.0212685 0.00819082 0.00304329 0.00111353 0.000404663 0.000146496 5.28756e-05 1.90269e-05 6.82332e-06 2.43727e-06 8.66614e-07 3.06533e-07 1.07788e-07 3.76543e-08 1.30597e-08 4.49428e-09 1.53364e-09 5.18671e-10 1.73962e-10 5.74072e-11 1.92319e-11 6.06303e-12 2.19296e-12 5.0528e-13 8.96901e-14 1.82188e-14 6.10393e-14 -9.27672e-14 2.49196e-13 1.05386e-14 -8.36479e-14 -1.12857e-13 5.8546e-14 7.58507e-14 7.81406e-14 -1.30949e-13 -1.4257e-13 8.04764e-14 1.69783e-13 -1.4917e-13 0 0 2.98572e-15 -1.91392e-15 -2.796e-16 2.3777e-15 3.35368e-15 8.68843e-15 1.38771e-14 1.25911e-14 1.27966e-14 3.08873e-15 -5.2101e-15 -2.12981e-15 2.48709e-15 5.63109e-16 -2.51526e-14 7.44142e-15 -1.0298e-15 1.31409e-14 -3.08539e-15 -2.59134e-14 2.89346e-14 -4.97429e-15 8.38902e-15 1.16508e-14 -7.58355e-15 7.67365e-15 -9.23584e-15 2.47563e-14 1.66827e-14 1.42155e-14 1.65446e-15 -2.88998e-14 -1.0837e-15 1.32831e-14 -5.11381e-15 6.13956e-16 -2.59233e-14 1.97179e-14 7.90676e-14 6.91106e-14 1.00304e-13 -1.87842e-14 -8.17919e-15 1.95313e-13 3.3239e-13 2.29248e-12 1.54375e-11 9.83378e-11 5.93878e-10 3.38288e-09 1.81586e-08 9.15876e-08 4.32773e-07 1.90929e-06 7.83368e-06 2.97541e-05 0.000104056 0.000332934 0.000967429 0.00253268 0.00592909 0.0123509 0.0228996 0.0380633 0.0575041 0.0803482 0.105671 0.132791 0.161307 0.191016 0.221831 0.253723 0.2867 0.320791 0.35604 0.392502 0.430244 0.469341 0.509876 0.551938 0.595615 0.640993 0.688126 0.737009 0.787473 0.838958 0.889863 0.935655 0.963658 0.957697 0.948609 0.939854 0.933749 0.930276 0.928617 0.927887 0.927548 0.927368 0.927246 0.927092 0.927069 0.927051 0.927039 0.927034 0.927039 0.927074 0.927051 0.927037 0.927018 0.926995 0.926972 0.926946 0.926921 0.926897 0.926877 0.926863 0.926856 0.926858 0.926911 0.926896 0.926832 0.926747 0.926639 0.926564 0.92652 0.926531 0.926869 0.927059 0.926879 0.926488 0.926242 0.926053 0.925968 0.926136 0.927446 0.926982 0.926553 0.925764 0.925246 0.924775 0.9249 0.926812 0.927148 0.928221 0.924542 0.916587 0.917984 0.897537 0.887932 0.837009 0.817693 0.72833 0.668052 0.551604 0.439014 0.312904 0.198944 0.108951 0.0512311 0.0212685 0.00819082 0.00304329 0.00111353 0.000404663 0.000146496 5.28756e-05 1.90269e-05 6.82332e-06 2.43727e-06 8.66614e-07 3.06533e-07 1.07788e-07 3.76541e-08 1.30599e-08 4.49423e-09 1.53361e-09 5.18787e-10 1.73795e-10 5.76509e-11 1.90527e-11 6.34177e-12 2.21466e-12 2.34383e-13 3.67023e-13 -4.93216e-14 -7.2381e-14 -1.01956e-13 2.79589e-13 -1.32337e-13 -2.09623e-13 5.49536e-15 1.28661e-13 3.88192e-13 -1.02291e-13 -1.4763e-13 2.8792e-14 1.06751e-13 -1.48561e-13 -7.35652e-14 0
				</DataArray>
				<DataArray Name="VitesseY" type="Float32" format="ascii">