<?xml version="1.0"?>
<VTKFile type="PolyData">
	<PolyData>
		<Piece NumberOfPoints="1206" NumberOfPolys="1000">
			<Points>
				<DataArray type="Float32" NumberOfComponents="3" format="ascii">
 0 0 0 0.005 0 0 0.01 0 0 0.015 0 0 0.02 0 0 0.025 0 0 0.03 0 0 0.035 0 0 0.04 0 0 0.045 0 0 0.05 0 0 0.055 0 0 0.06 0 0 0.065 0 0 0.07 0 0 0.075 0 0 0.08 0 0 0.085 0 0 0.09 0 0 0.095 0 0 0.1 0 0 0.105 0 0 0.11 0 0 0.115 0 0 0.12 0 0 0.125 0 0 0.13 0 0 0.135 0 0 0.14 0 0 0.145 0 0 0.15 0 0 0.155 0 0 0.16 0 0 0.165 0 0 0.17 0 0 0.175 0 0 0.18 0 0 0.185 0 0 0.19 0 0 0.195 0 0 0.2 0 0 0.205 0 0 0.21 0 0 0.215 0 0 0.22 0 0 0.225 0 0 0.23 0 0 0.235 0 0 0.24 0 0 0.245 0 0 0.25 0 0 0.255 0 0 0.26 0 0 0.265 0 0 0.27 0 0 0.275 0 0 0.28 0 0 0.285 0 0 0.29 0 0 0.295 0 0 0.3 0 0 0.305 0 0 0.31 0 0 0.315 0 0 0.32 0 0 0.325 0 0 0.33 0 0 0.335 0 0 0.34 0 0 0.345 0 0 0.35 0 0 0.355 0 0 0.36 0 0 0.365 0 0 0.37 0 0 0.375 0 0 0.38 0 0 0.385 0 0 0.39 0 0 0.395 0 0 0.4 0 0 0.405 0 0 0.41 0 0 0.415 0 0 0.420001 0 0 0.425006 0 0 0.430025 0 0 0.435091 0 0 0.440268 0 0 0.445652 0 0 0.451351 0 0 0.457471 0 0 0.464119 0 0 0.471426 0 0 0.479557 0 0 0.488731 0 0 0.499212 0 0 0.511123 0 0 0.523601 0 0 0.535692 0 0 0.547581 0 0 0.550209 0 0 0.552762 0 0 0.555269 0 0 0.557746 0 0 0.560201 0 0 0.56264 0 0 0.565066 0 0 0.567482 0 0 0.569892 0 0 0.572303 0 0 0.574719 0 0 0.577148 0 0 0.579608 0 0 0.58211 0 0 0.584748 0 0 0.587539 0 0 0.590529 0 0 0.593789 0 0 0.597386 0 0 0.601345 0 0 0.605665 0 0 0.610283 0 0 0.615105 0 0 0.620035 0 0 0.625011 0 0 0.630003 0 0 0.635001 0 0 0.64 0 0 0.645 0 0 0.65 0 0 0.655 0 0 0.66 0 0 0.665 0 0 0.67 0 0 0.675 0 0 0.68 0 0 0.685 0 0 0.69 0 0 0.695 0 0 0.7 0 0 0.705 0 0 0.71 0 0 0.715 0 0 0.72 0 0 0.725 0 0 0.73 0 0 0.735 0 0 0.74 0 0 0.745 0 0 0.75 0 0 0.755 0 0 0.76 0 0 0.765 0 0 0.77 0 0 0.775 0 0 0.78 0 0 0.785 0 0 0.79 0 0 0.795 0 0 0.8 0 0 0.805 0 0 0.81 0 0 0.815 0 0 0.82 0 0 0.825 0 0 0.83 0 0 0.835 0 0 0.84 0 0 0.845 0 0 0.85 0 0 0.855 0 0 0.86 0 0 0.865 0 0 0.87 0 0 0.875 0 0 0.88 0 0 0.885 0 0 0.89 0 0 0.895 0 0 0.9 0 0 0.905 0 0 0.91 0 0 0.915 0 0 0.92 0 0 0.925 0 0 0.93 0 0 0.935 0 0 0.94 0 0 0.945 0 0 0.95 0 0 0.955 0 0 0.96 0 0 0.965 0 0 0.97 0 0 0.975 0 0 0.98 0 0 0.985 0 0 0.99 0 0 0.995 0 0 1 0 0 0 0.02 0 0.005 0.02 0 0.01 0.02 0 0.015 0.02 0 0.02 0.02 0 0.025 0.02 0 0.03 0.02 0 0.035 0.02 0 0.04 0.02 0 0.045 0.02 0 0.05 0.02 0 0.055 0.02 0 0.06 0.02 0 0.065 0.02 0 0.07 0.02 0 0.075 0.02 0 0.08 0.02 0 0.085 0.02 0 0.09 0.02 0 0.095 0.02 0 0.1 0.02 0 0.105 0.02 0 0.11 0.02 0 0.115 0.02 0 0.12 0.02 0 0.125 0.02 0 0.13 0.02 0 0.135 0.02 0 0.14 0.02 0 0.145 0.02 0 0.15 0.02 0 0.155 0.02 0 0.16 0.02 0 0.165 0.02 0 0.17 0.02 0 0.175 0.02 0 0.18 0.02 0 0.185 0.02 0 0.19 0.02 0 0.195 0.02 0 0.2 0.02 0 0.205 0.02 0 0.21 0.02 0 0.215 0.02 0 0.22 0.02 0 0.225 0.02 0 0.23 0.02 0 0.235 0.02 0 0.24 0.02 0 0.245 0.02 0 0.25 0.02 0 0.255 0.02 0 0.26 0.02 0 0.265 0.02 0 0.27 0.02 0 0.275 0.02 0 0.28 0.02 0 0.285 0.02 0 0.29 0.02 0 0.295 0.02 0 0.3 0.02 0 0.305 0.02 0 0.31 0.02 0 0.315 0.02 0 0.32 0.02 0 0.325 0.02 0 0.33 0.02 0 0.335 0.02 0 0.34 0.02 0 0.345 0.02 0 0.35 0.02 0 0.355 0.02 0 0.36 0.02 0 0.365 0.02 0 0.37 0.02 0 0.375 0.02 0 0.38 0.02 0 0.385 0.02 0 0.39 0.02 0 0.395 0.02 0 0.4 0.02 0 0.405 0.02 0 0.41 0.02 0 0.415 0.02 0 0.420001 0.02 0 0.425006 0.02 0 0.430025 0.02 0 0.435091 0.02 0 0.440268 0.02 0 0.445652 0.02 0 0.451351 0.02 0 0.457471 0.02 0 0.464119 0.02 0 0.471426 0.02 0 0.479557 0.02 0 0.488731 0.02 0 0.499212 0.02 0 0.511123 0.02 0 0.523601 0.02 0 0.535692 0.02 0 0.547581 0.02 0 0.550209 0.02 0 0.552762 0.02 0 0.555269 0.02 0 0.557746 0.02 0 0.560201 0.02 0 0.56264 0.02 0 0.565066 0.02 0 0.567482 0.02 0 0.569892 0.02 0 0.572303 0.02 0 0.574719 0.02 0 0.577148 0.02 0 0.579608 0.02 0 0.58211 0.02 0 0.584748 0.02 0 0.587539 0.02 0 0.590529 0.02 0 0.593789 0.02 0 0.597386 0.02 0 0.601345 0.02 0 0.605665 0.02 0 0.610283 0.02 0 0.615105 0.02 0 0.620035 0.02 0 0.625011 0.02 0 0.630003 0.02 0 0.635001 0.02 0 0.64 0.02 0 0.645 0.02 0 0.65 0.02 0 0.655 0.02 0 0.66 0.02 0 0.665 0.02 0 0.67 0.02 0 0.675 0.02 0 0.68 0.02 0 0.685 0.02 0 0.69 0.02 0 0.695 0.02 0 0.7 0.02 0 0.705 0.02 0 0.71 0.02 0 0.715 0.02 0 0.72 0.02 0 0.725 0.02 0 0.73 0.02 0 0.735 0.02 0 0.74 0.02 0 0.745 0.02 0 0.75 0.02 0 0.755 0.02 0 0.76 0.02 0 0.765 0.02 0 0.77 0.02 0 0.775 0.02 0 0.78 0.02 0 0.785 0.02 0 0.79 0.02 0 0.795 0.02 0 0.8 0.02 0 0.805 0.02 0 0.81 0.02 0 0.815 0.02 0 0.82 0.02 0 0.825 0.02 0 0.83 0.02 0 0.835 0.02 0 0.84 0.02 0 0.845 0.02 0 0.85 0.02 0 0.855 0.02 0 0.86 0.02 0 0.865 0.02 0 0.87 0.02 0 0.875 0.02 0 0.88 0.02 0 0.885 0.02 0 0.89 0.02 0 0.895 0.02 0 0.9 0.02 0 0.905 0.02 0 0.91 0.02 0 0.915 0.02 0 0.92 0.02 0 0.925 0.02 0 0.93 0.02 0 0.935 0.02 0 0.94 0.02 0 0.945 0.02 0 0.95 0.02 0 0.955 0.02 0 0.96 0.02 0 0.965 0.02 0 0.97 0.02 0 0.975 0.02 0 0.98 0.02 0 0.985 0.02 0 0.99 0.02 0 0.995 0.02 0 1 0.02 0 0 0.04 0 0.005 0.04 0 0.01 0.04 0 0.015 0.04 0 0.02 0.04 0 0.025 0.04 0 0.03 0.04 0 0.035 0.04 0 0.04 0.04 0 0.045 0.04 0 0.05 0.04 0 0.055 0.04 0 0.06 0.04 0 0.065 0.04 0 0.07 0.04 0 0.075 0.04 0 0.08 0.04 0 0.085 0.04 0 0.09 0.04 0 0.095 0.04 0 0.1 0.04 0 0.105 0.04 0 0.11 0.04 0 0.115 0.04 0 0.12 0.04 0 0.125 0.04 0 0.13 0.04 0 0.135 0.04 0 0.14 0.04 0 0.145 0.04 0 0.15 0.04 0 0.155 0.04 0 0.16 0.04 0 0.165 0.04 0 0.17 0.04 0 0.175 0.04 0 0.18 0.04 0 0.185 0.04 0 0.19 0.04 0 0.195 0.04 0 0.2 0.04 0 0.205 0.04 0 0.21 0.04 0 0.215 0.04 0 0.22 0.04 0 0.225 0.04 0 0.23 0.04 0 0.235 0.04 0 0.24 0.04 0 0.245 0.04 0 0.25 0.04 0 0.255 0.04 0 0.26 0.04 0 0.265 0.04 0 0.27 0.04 0 0.275 0.04 0 0.28 0.04 0 0.285 0.04 0 0.29 0.04 0 0.295 0.04 0 0.3 0.04 0 0.305 0.04 0 0.31 0.04 0 0.315 0.04 0 0.32 0.04 0 0.325 0.04 0 0.33 0.04 0 0.335 0.04 0 0.34 0.04 0 0.345 0.04 0 0.35 0.04 0 0.355 0.04 0 0.36 0.04 0 0.365 0.04 0 0.37 0.04 0 0.375 0.04 0 0.38 0.04 0 0.385 0.04 0 0.39 0.04 0 0.395 0.04 0 0.4 0.04 0 0.405 0.04 0 0.41 0.04 0 0.415 0.04 0 0.420001 0.04 0 0.425006 0.04 0 0.430025 0.04 0 0.435091 0.04 0 0.440268 0.04 0 0.445652 0.04 0 0.451351 0.04 0 0.457471 0.04 0 0.464119 0.04 0 0.471426 0.04 0 0.479557 0.04 0 0.488731 0.04 0 0.499212 0.04 0 0.511123 0.04 0 0.523601 0.04 0 0.535692 0.04 0 0.547581 0.04 0 0.550209 0.04 0 0.552762 0.04 0 0.555269 0.04 0 0.557746 0.04 0 0.560201 0.04 0 0.56264 0.04 0 0.565066 0.04 0 0.567482 0.04 0 0.569892 0.04 0 0.572303 0.04 0 0.574719 0.04 0 0.577148 0.04 0 0.579608 0.04 0 0.58211 0.04 0 0.584748 0.04 0 0.587539 0.04 0 0.590529 0.04 0 0.593789 0.04 0 0.597386 0.04 0 0.601345 0.04 0 0.605665 0.04 0 0.610283 0.04 0 0.615105 0.04 0 0.620035 0.04 0 0.625011 0.04 0 0.630003 0.04 0 0.635001 0.04 0 0.64 0.04 0 0.645 0.04 0 0.65 0.04 0 0.655 0.04 0 0.66 0.04 0 0.665 0.04 0 0.67 0.04 0 0.675 0.04 0 0.68 0.04 0 0.685 0.04 0 0.69 0.04 0 0.695 0.04 0 0.7 0.04 0 0.705 0.04 0 0.71 0.04 0 0.715 0.04 0 0.72 0.04 0 0.725 0.04 0 0.73 0.04 0 0.735 0.04 0 0.74 0.04 0 0.745 0.04 0 0.75 0.04 0 0.755 0.04 0 0.76 0.04 0 0.765 0.04 0 0.77 0.04 0 0.775 0.04 0 0.78 0.04 0 0.785 0.04 0 0.79 0.04 0 0.795 0.04 0 0.8 0.04 0 0.805 0.04 0 0.81 0.04 0 0.815 0.04 0 0.82 0.04 0 0.825 0.04 0 0.83 0.04 0 0.835 0.04 0 0.84 0.04 0 0.845 0.04 0 0.85 0.04 0 0.855 0.04 0 0.86 0.04 0 0.865 0.04 0 0.87 0.04 0 0.875 0.04 0 0.88 0.04 0 0.885 0.04 0 0.89 0.04 0 0.895 0.04 0 0.9 0.04 0 0.905 0.04 0 0.91 0.04 0 0.915 0.04 0 0.92 0.04 0 0.925 0.04 0 0.93 0.04 0 0.935 0.04 0 0.94 0.04 0 0.945 0.04 0 0.95 0.04 0 0.955 0.04 0 0.96 0.04 0 0.965 0.04 0 0.97 0.04 0 0.975 0.04 0 0.98 0.04 0 0.985 0.04 0 0.99 0.04 0 0.995 0.04 0 1 0.04 0 0 0.06 0 0.005 0.06 0 0.01 0.06 0 0.015 0.06 0 0.02 0.06 0 0.025 0.06 0 0.03 0.06 0 0.035 0.06 0 0.04 0.06 0 0.045 0.06 0 0.05 0.06 0 0.055 0.06 0 0.06 0.06 0 0.065 0.06 0 0.07 0.06 0 0.075 0.06 0 0.08 0.06 0 0.085 0.06 0 0.09 0.06 0 0.095 0.06 0 0.1 0.06 0 0.105 0.06 0 0.11 0.06 0 0.115 0.06 0 0.12 0.06 0 0.125 0.06 0 0.13 0.06 0 0.135 0.06 0 0.14 0.06 0 0.145 0.06 0 0.15 0.06 0 0.155 0.06 0 0.16 0.06 0 0.165 0.06 0 0.17 0.06 0 0.175 0.06 0 0.18 0.06 0 0.185 0.06 0 0.19 0.06 0 0.195 0.06 0 0.2 0.06 0 0.205 0.06 0 0.21 0.06 0 0.215 0.06 0 0.22 0.06 0 0.225 0.06 0 0.23 0.06 0 0.235 0.06 0 0.24 0.06 0 0.245 0.06 0 0.25 0.06 0 0.255 0.06 0 0.26 0.06 0 0.265 0.06 0 0.27 0.06 0 0.275 0.06 0 0.28 0.06 0 0.285 0.06 0 0.29 0.06 0 0.295 0.06 0 0.3 0.06 0 0.305 0.06 0 0.31 0.06 0 0.315 0.06 0 0.32 0.06 0 0.325 0.06 0 0.33 0.06 0 0.335 0.06 0 0.34 0.06 0 0.345 0.06 0 0.35 0.06 0 0.355 0.06 0 0.36 0.06 0 0.365 0.06 0 0.37 0.06 0 0.375 0.06 0 0.38 0.06 0 0.385 0.06 0 0.39 0.06 0 0.395 0.06 0 0.4 0.06 0 0.405 0.06 0 0.41 0.06 0 0.415 0.06 0 0.420001 0.06 0 0.425006 0.06 0 0.430025 0.06 0 0.435091 0.06 0 0.440268 0.06 0 0.445652 0.06 0 0.451351 0.06 0 0.457471 0.06 0 0.464119 0.06 0 0.471426 0.06 0 0.479557 0.06 0 0.488731 0.06 0 0.499212 0.06 0 0.511123 0.06 0 0.523601 0.06 0 0.535692 0.06 0 0.547581 0.06 0 0.550209 0.06 0 0.552762 0.06 0 0.555269 0.06 0 0.557746 0.06 0 0.560201 0.06 0 0.56264 0.06 0 0.565066 0.06 0 0.567482 0.06 0 0.569892 0.06 0 0.572303 0.06 0 0.574719 0.06 0 0.577148 0.06 0 0.579608 0.06 0 0.58211 0.06 0 0.584748 0.06 0 0.587539 0.06 0 0.590529 0.06 0 0.593789 0.06 0 0.597386 0.06 0 0.601345 0.06 0 0.605665 0.06 0 0.610283 0.06 0 0.615105 0.06 0 0.620035 0.06 0 0.625011 0.06 0 0.630003 0.06 0 0.635001 0.06 0 0.64 0.06 0 0.645 0.06 0 0.65 0.06 0 0.655 0.06 0 0.66 0.06 0 0.665 0.06 0 0.67 0.06 0 0.675 0.06 0 0.68 0.06 0 0.685 0.06 0 0.69 0.06 0 0.695 0.06 0 0.7 0.06 0 0.705 0.06 0 0.71 0.06 0 0.715 0.06 0 0.72 0.06 0 0.725 0.06 0 0.73 0.06 0 0.735 0.06 0 0.74 0.06 0 0.745 0.06 0 0.75 0.06 0 0.755 0.06 0 0.76 0.06 0 0.765 0.06 0 0.77 0.06 0 0.775 0.06 0 0.78 0.06 0 0.785 0.06 0 0.79 0.06 0 0.795 0.06 0 0.8 0.06 0 0.805 0.06 0 0.81 0.06 0 0.815 0.06 0 0.82 0.06 0 0.825 0.06 0 0.83 0.06 0 0.835 0.06 0 0.84 0.06 0 0.845 0.06 0 0.85 0.06 0 0.855 0.06 0 0.86 0.06 0 0.865 0.06 0 0.87 0.06 0 0.875 0.06 0 0.88 0.06 0 0.885 0.06 0 0.89 0.06 0 0.895 0.06 0 0.9 0.06 0 0.905 0.06 0 0.91 0.06 0 0.915 0.06 0 0.92 0.06 0 0
[...]
			<PointData Scalars="VitesseX">
				<DataArray Name="VitesseX" type="Float32" format="ascii">
 0 1.54876e-16 2.08321e-16 -1.05555e-15 7.3376e-16 -2.96787e-15 2.58514e-15 -5.89246e-16 -1.32993e-15 8.10174e-16 -7.34776e-16 6.50098e-15 -5.83271e-15 -3.15964e-15 1.18495e-14 -5.24278e-15 -4.85731e-15 1.07309e-14 -7.32729e-15 -4.51406e-15 1.74662e-14 -1.31749e-14 -4.45029e-15 -6.78558e-15 7.52483e-15 1.49243e-14 -1.55848e-14 9.48259e-15 -3.3308e-15 9.42759e-15 -1.60629e-14 2.54108e-14 -1.1977e-14 -2.89339e-14 2.60847e-14 8.78136e-16 -5.57496e-16 -5.03969e-15 1.07404e-14 -2.25507e-14 6.65526e-15 -1.5798e-15 -3.85306e-15 2.17427e-14 -2.06432e-14 1.66621e-14 3.46898e-18 -1.59759e-14 5.84771e-15 6.44378e-15 9.00185e-15 -4.23715e-15 -3.67791e-15 1.53569e-14 -1.45705e-14 2.38464e-14 2.44256e-14 -3.3019e-14 3.89142e-14 -6.38725e-15 3.49954e-14 -4.75314e-14 3.96619e-14 -8.31862e-15 1.38266e-14 -3.54037e-15 2.95552e-14 3.27951e-14 -6.63022e-14 -1.3891e-14 3.92315e-14 8.94831e-15 -7.99025e-15 3.99993e-14 6.09028e-14 4.15334e-13 7.37041e-12 1.05927e-10 1.36322e-09 1.56975e-08 1.60563e-07 1.44632e-06 1.13545e-05 7.66915e-05 0.000438465 0.00207892 0.00798325 0.0243219 0.0585236 0.113814 0.187369 0.274764 0.373646 0.483782 0.605846 0.739645 0.878205 0.98132 0.960257 0.939023 0.929379 0.92889 0.928522 0.928059 0.927298 0.92575 0.924031 0.921883 0.92004 0.920971 0.922458 0.918266 0.901958 0.909364 0.837858 0.797288 0.753604 0.665344 0.544957 0.432829 0.294719 0.177557 0.0891517 0.037185 0.01334 0.00435421 0.00134192 0.00039673 0.000113114 3.11471e-05 8.28525e-06 2.12881e-06 5.28236e-07 1.26563e-07 2.92762e-08 6.53773e-09 1.40952e-09 2.93332e-10 5.9004e-11 1.13921e-11 2.1345e-12 4.57324e-13 8.06739e-14 -1.93674e-14 2.25021e-14 -5.78227e-14 8.32083e-14 1.34832e-14 1.00739e-14 -7.18342e-14 2.16329e-14 4.42854e-14 -3.45176e-14 8.4287e-14 -1.06555e-13 2.42126e-14 1.34919e-13 -4.00676e-14 -3.40992e-14 1.72942e-15 4.79187e-14 -1.39572e-13 9.34341e-14 3.21038e-14 -9.76833e-14 7.7921e-14 -6.69568e-14 8.92629e-14 3.70369e-15 -1.14081e-13 -1.52387e-14 5.0425e-15 -4.86969e-15 -5.43229e-14 -2.87061e-14 4.45856e-14 -2.47329e-14 -8.02767e-14 5.65603e-14 -2.87e-14 -9.21163e-14 1.51587e-13 -1.1942e-13 9.44729e-14 -5.06183e-14 5.37634e-14 -7.72684e-14 4.40757e-16 -9.90142e-15 3.93821e-14 -3.91392e-14 -7.97649e-15 -2.0385e-14 -2.3433e-14 5.23268e-14 -4.8806e-14 -2.47611e-14 7.69795e-14 -7.62491e-14 3.6759e-14 0 0 2.74281e-16 -1.20474e-15 -1.35924e-15 1.58908e-15 1.27521e-15 -3.1582e-15 -2.00384e-15 3.56021e-15 2.736e-15 -2.18702e-15 -4.61524e-15 6.11722e-15 5.53976e-16 -2.38077e-15 1.40269e-15 1.12413e-15 -4.49643e-15 1.15183e-14 -1.02387e-15 -1.50382e-14 1.57758e-14 -2.93213e-15 -8.3721e-15 -4.63895e-15 3.85572e-15 9.52527e-15 7.23046e-16 2.28207e-15 -6.89714e-15 1.21217e-14 -6.82961e-15 6.18615e-15 -1.26717e-15 -8.7839e-15 1.93948e-15 -5.85719e-15 1.63278e-14 -1.58993e-14 4.11353e-15 -1.59405e-14 8.38104e-15 5.41452e-15 -8.57122e-15 1.81898e-14 -5.11126e-15 -3.20404e-15 -3.41331e-15 1.70205e-15 6.00513e-15 6.31662e-15 -7.72992e-15 1.71727e-14 -1.43853e-14 2.9514e-14 -1.4827e-14 3.22339e-14 3.11925e-15 -2.33448e-14 1.18585e-14 3.57815e-14 -1.32069e-15 2.19992e-14 -3.017e-14 1.81126e-14 1.4785e-14 4.05145e-14 -2.59264e-14 -1.70996e-14 -3.00854e-14 2.65783e-14 2.66464e-14 1.11359e-14 2.22544e-14 2.46528e-14 4.31765e-13 7.46129e-12 1.05866e-10 1.36315e-09 1.56976e-08 1.60563e-07 1.44632e-06 1.13545e-05 7.66915e-05 0.000438465 0.00207892 0.00798325 0.0243219 0.0585236 0.113814 0.187369 0.274764 0.373646 0.483782 0.605846 0.739645 0.878205 0.98132 0.960257 0.939023 0.929379 0.92889 0.928522 0.928059 0.927298 0.92575 0.924031 0.921883 0.92004 0.920971 0.922458 0.918266 0.901958 0.909364 0.837858 0.797288 0.753604 0.665344 0.544957 0.432829 0.294719 0.177557 0.0891517 0.037185 0.01334 0.00435421 0.00134192 0.00039673 0.000113114 3.11471e-05 8.28525e-06 2.12881e-06 5.28236e-07 1.26563e-07 2.92762e-08 6.53774e-09 1.40947e-09 2.93425e-10 5.89684e-11 1.1416e-11 2.14363e-12 4.23858e-13 8.43664e-14 2.55029e-15 -2.70291e-14 1.7089e-14 7.05389e-14 -3.08209e-15 -4.53946e-14 -8.00991e-14 9.38572e-14 9.83842e-15 7.07221e-15 7.3241e-16 1.07612e-14 5.18491e-14 -7.39106e-14 8.49727e-14 4.36356e-14 -6.64245e-14 7.97835e-14 -3.9022e-14 -2.76966e-14 8.1471e-15 -1.5154e-14 -2.43863e-14 7.20424e-14 -2.91065e-14 -7.77067e-14 -2.97913e-14 -5.15012e-14 5.9668e-14 -5.93271e-14 -5.02668e-14 -1.39929e-14 5.77239e-14 -4.08418e-14 -1.54249e-14 5.19909e-15 -5.9332e-14 1.43706e-14 -7.92033e-15 1.34967e-14 1.51914e-14 -9.34553e-15 -1.57004e-14 -8.87536e-15 -6.36074e-14 5.73732e-14 -1.7746e-14 2.99258e-15 -3.03069e-14 -6.05161e-14 1.36517e-14 2.91422e-14 1.16278e-14 -1.05968e-14 -3.87848e-14 -1.30786e-14 8.43688e-14 0 0 -1.2653e-16 -6.71038e-16 -2.97635e-16 -1.82168e-16 1.66918e-15 -7.61297e-16 8.20501e-16 -2.81936e-15 3.88557e-15 -5.83047e-16 -9.70036e-16 -3.48943e-15 8.55492e-15 -5.1244e-15 -7.1114e-16 1.45409e-15 -5.90253e-16 2.25681e-15 9.08636e-15 -1.29811e-14 6.71932e-15 -3.98434e-15 -4.28854e-15 4.12435e-15 -9.42945e-15 1.64027e-14 -7.00942e-15 1.4142e-14 -7.52736e-15 7.26976e-15 -1.39461e-14 8.31436e-15 2.01991e-14 -1.60645e-14 -6.39972e-15 1.12765e-14 -5.69539e-15 -6.77496e-15 2.48993e-15 -1.47457e-14 4.52842e-15 -4.43314e-15 2.14159e-15 1.78135e-14 -1.43955e-14 6.69649e-16 9.43534e-15 4.22309e-15 -1.5106e-14 3.34747e-14 -9.25589e-15 -4.64501e-15 4.85162e-15 2.42847e-14 -7.58705e-15 7.59064e-14 -2.8755e-14 -5.1562e-14 5.01093e-14 3.6416e-14 3.27793e-15 -2.31697e-14 -3.49183e-14 7.46496e-14 2.9978e-14 2.1508e-14 -5.91664e-14 4.33477e-14 -2.49914e-15 4.65337e-15 2.35384e-14 -1.02729e-14 -1.60833e-14 2.33173e-14 4.71516e-13 7.4447e-12 1.05833e-10 1.36312e-09 1.56977e-08 1.60563e-07 1.44632e-06 1.13545e-05 7.66915e-05 0.000438465 0.00207892 0.00798325 0.0243219 0.0585236 0.113814 0.187369 0.274764 0.373646 0.483782 0.605846 0.739645 0.878205 0.98132 0.960257 0.939023 0.929379 0.92889 0.928522 0.928059 0.927298 0.92575 0.924031 0.921883 0.92004 0.920971 0.922458 0.918266 0.901958 0.909364 0.837858 0.797288 0.753604 0.665344 0.544957 0.432829 0.294719 0.177557 0.0891517 0.037185 0.01334 0.00435421 0.00134192 0.00039673 0.000113114 3.11471e-05 8.28525e-06 2.12881e-06 5.28236e-07 1.26563e-07 2.92762e-08 6.53779e-09 1.40942e-09 2.93448e-10 5.89201e-11 1.15072e-11 2.18736e-12 3.34558e-13 1.27335e-13 -7.41006e-14 1.96134e-14 -2.31969e-14 -1.78038e-14 9.93948e-14 -8.49919e-14 -6.37241e-14 8.5729e-14 1.028e-13 -9.14171e-16 4.08865e-15 1.0271e-13 3.06221e-14 -1.09233e-13 5.77084e-14 1.04314e-13 -1.01166e-13 2.12377e-14 5.67375e-14 -1.10887e-13 -8.8506e-14 6.57878e-14 3.00975e-14 1.05959e-13 -8.72855e-14 -6.99823e-14 -6.71681e-14 -8.2922e-14 1.29217e-13 -9.94733e-14 -1.10497e-13 3.02084e-14 -7.7444e-15 7.54326e-14 -1.09613e-14 -8.2535e-14 -6.30056e-14 7.49143e-14 8.43034e-16 -8.33042e-15 -6.29312e-14 -3.6847e-14 4.73393e-14 -3.53085e-14 -3.97706e-14 7.66033e-14 -5.42571e-14 4.67876e-14 -4.76865e-14 -8.69543e-14 2.58906e-14 7.83546e-14 1.24994e-14 -8.29901e-14 -3.83775e-15 5.88882e-15 5.71761e-15 0 0 -7.15124e-16 2.14165e-16 7.68974e-16 9.2184e-17 -5.26871e-16 6.707e-16 2.26364e-15 -5.21471e-15 2.34682e-15 5.33266e-15 -1.21865e-15 -6.49885e-15 -1.53465e-16 8.67485e-15 -1.19803e-14 9.04073e-15 8.66458e-15 -1.23673e-14 6.23442e-15 -4.26303e-15 6.94739e-15 -1.71311e-14 -1.63417e-15 1.13927e-14 4.29379e-15 -5.66579e-16 -1.46522e-15 1.1008e-14 1.44564e-15 -5.92459e-15 -4.41685e-15 -1.03264e-14 1.61437e-14 1.93449e-14 -1.34107e-14 -4.58664e-15 -2.76531e-15 9.94101e-15 -1.69794e-14 -7.52656e-16 -4.50942e-15 -1.34201e-14 2.35796e-14 -1.10268e-14 1.08099e-14 7.10418e-15 5.81638e-15 -1.10986e-14 -1.73153e-15 2.8645e-14 -2.57859e-14 -2.99401e-15 2.74874e-14 -5.34816e-16 3.15928e-14 8.53304e-15 -1.37571e-14 4.4805e-15 5.20248e-14 3.62471e-14 -2.44608e-14 -3.61188e-14 4.17112e-14 4.30045e-14 4.73128e-14 3.61315e-15 -2.38619e-15 2.36552e-14 -2.94271e-15 -2.85461e-15 1.91722e-14 -3.91231e-14 -4.76113e-14 5.57852e-14 5.07913e-13 7.39813e-12 1.05852e-10 1.36317e-09 1.56976e-08 1.60563e-07 1.44632e-06 1.13545e-05 7.66915e-05 0.000438465 0.00207892 0.00798325 0.0243219 0.0585236 0.113814 0.187369 0.274764 0.373646 0.483782 0.605846 0.739645 0.878205 0.98132 0.960257 0.939023 0.929379 0.92889 0.928522 0.928059 0.927298 0.92575 0.924031 0.921883 0.92004 0.920971 0.922458 0.918266 0.901958 0.909364 0.837858 0.797288 0.753604 0.665344 0.544957 0.432829 0.294719 0.177557 0.0891517 0.037185 0.01334 0.00435421 0.00134192 0.00039673 0.000113114 3.11471e-05 8.28525e-06 2.12881e-06 5.28237e-07 1.26563e-07 2.92762e-08 6.53776e-09 1.40949e-09 2.93285e-10 5.90559e-11 1.13897e-11 2.26179e-12 3.15162e-13 1.02221e-13 -6.76842e-14 3.12544e-14 -3.43201e-14 -3.91132e-14 4.44289e-14 -4.38649e-14 -5.41195e-15 5.03419e-14 1.74695e-13 1.56938e-14 3.78908e-14 7.15664e-14 3.25494e-14 -6.9668e-14 4.2597e-14 1.01293e-13 -3.5218e-14 -1.51454e-13 -6.3943e-14 9.14317e-14 -1.41708e-14 -2.58186e-14 1.23986e-13 -1.28592e-14 -1.16408e-15 -2.44014e-14 -2.00144e-13 -4.21709e-15 2.34363e-14 -2.83952e-14 -9.6858e-14 -9.03233e-14 3.69893e-14 8.22095e-14 -5.15263e-14 -7.21357e-14 9.84746e-16 -5.90662e-14 1.15357e-13 -1.42954e-13 1.67824e-13 -1.75767e-13 8.68028e-14 -8.5292e-14 6.20711e-14 -4.77197e-14 3.98635e-14 -1.84739e-14 -1.02434e-13 5.74591e-15 -9.39566e-15 4.24585e-14 3.65692e-16 -5.89598e-14 3.80227e-14 -3.15609e-14 -9.31404e-15 0 0 2.33064e-16 6.51029e-16 1.39673e-15 1.12638e-15 1.54033e-15 -1.57829e-15 -2.53602e-15 2.54449e-15 -1.76906e-15 4.68713e-15 -7.35075e-15 8.87663e-15 -9.78015e-15 4.76757e-15 -5.99771e-16 7.67962e-15 1.26609e-14 -4.27108e-15 2.75056e-15 -1.52764e-14 8.75299e-15 -1.51076e-14 1.16824e-14 -5.75869e-15 5.96985e-15 6.88518e-17 -6.43661e-15 1.32291e-14 2.87403e-15 2.37349e-15 -5.43111e-15 -1.39617e-15 3.03322e-15 -1.88726e-15 -8.0835e-15 1.28637e-14 7.74828e-15 -8.12838e-15 -9.34292e-15 -2.85825e-15 -4.17478e-15 -1.54301e-15 -7.92749e-15 1.09927e-15 1.12054e-14 1.76437e-14 -3.2257e-15 -3.16881e-14 8.27113e-15 -1.19805e-15 -1.12364e-14 2.24026e-14 2.44764e-14 3.77956e-15 1.58515e-14 -2.26187e-14 5.32983e-14 -2.25715e-14 3.04326e-14 2.04146e-14 1.8606e-14 2.81745e-14 5.62871e-14 -2.57084e-14 2.60415e-14 4.72656e-15 2.91804e-14 -6.83124e-14 3.15883e-14 2.74498e-14 1.07547e-14 3.55727e-15 1.07501e-14 5.44618e-14 4.25765e-13 7.46846e-12 1.05906e-10 1.3632e-09 1.56975e-08 1.60563e-07 1.44632e-06 1.13545e-05 7.66915e-05 0.000438465 0.00207892 0.00798325 0.0243219 0.0585236 0.113814 0.187369 0.274764 0.373646 0.483782 0.605846 0.739645 0.878205 0.98132 0.960257 0.939023 0.929379 0.92889 0.928522 0.928059 0.927298 0.92575 0.924031 0.921883 0.92004 0.920971 0.922458 0.918266 0.901958 0.909364 0.837858 0.797288 0.753604 0.665344 0.544957 0.432829 0.294719 0.177557 0.0891517 0.037185 0.01334 0.00435421 0.00134192 0.00039673 0.000113114 3.11471e-05 8.28525e-06 2.12881e-06 5.28237e-07 1.26563e-07 2.92763e-08 6.53773e-09 1.40953e-09 2.9326e-10 5.90675e-11 1.14865e-11 2.13061e-12 4.63526e-13 6.2934e-14 1.36728e-14 -1.08211e-13 1.2906e-14 1.1247e-14 5.53413e-14 -6.53797e-14 -4.66162e-14 -4.46305e-14 9.85526e-14 8.54496e-14 -1.06668e-13 1.24418e-13 1.15002e-13 -8.22999e-14 5.67206e-14 7.90502e-14 4.65554e-14 -1.44964e-13 -9.29141e-14 1.04134e-13 1.26372e-14 7.81253e-16 4.24461e-14 1.30473e-13 6.20995e-14 5.81467e-14 -2.03376e-13 7.74957e-14 -2.05527e-13 -1.14322e-13 -8.62003e-14 -8.26359e-14 -3.06365e-14 1.09929e-14 -8.7054e-15 -5.8126e-14 -7.04087e-14 -7.5139e-14 8.42041e-14 1.77481e-14 1.68452e-13 -1.88345e-13 -3.21778e-14 2.76063e-14 1.12453e-13 -8.93497e-14 3.51397e-14 -6.79167e-14 -7.92575e-14 -5.20339e-14 5.99461e-14 -8.32367e-14 -1.61016e-14 7.25032e-14 -5.4523e-14 2.38561e-14 1.40708e-14 0 0 1.24963e-15 2.14944e-15 2.32317e-15 -7.40334e-16 1.95447e-15 2.88096e-15 -4.53989e-15 1.42932e-15 -5.12243e-15 1.18213e-15 1.5272e-15 5.70492e-15 -6.41112e-15 -1.45233e-15 1.32907e-14 -6.91961e-15 2.65358e-14 -9.65786e-15 8.73867e-15 -4.46292e-16 -2.76766e-14 -2.50769e-15 2.80146e-14 -9.25135e-15 -8.29392e-15 -5.59061e-16 -1.59251e-14 2.48311e-14 1.10239e-14 -9.17056e-15 9.14926e-15 1.01399e-14 -1.22224e-14 -3.09407e-14 -5.14577e-15 6.86106e-14 -2.80589e-14 -7.14976e-15 -1.05249e-14 4.83371e-15 -8.61577e-15 2.05754e-16 -1.98458e-14 2.8565e-15 -1.11539e-15 2.88298e-14 -8.36279e-15 -3.02893e-14 -1.57731e-14 3.63182e-15 2.181e-14 3.47986e-15 4.7809e-14 -1.64003e-14 6.84382e-15 4.94672e-14 3.73434e-14 -7.16241e-14 2.69301e-14 4.59925e-15 4.77994e-14 7.79106e-14 1.13368e-14 -1.05252e-14 -1.56971e-14 -6.23111e-15 2.94485e-14 -1.29343e-13 1.10344e-13 5.59903e-14 -1.41027e-14 3.4553e-14 8.00466e-14 5.55852e-14 3.30539e-13 7.47789e-12 1.05968e-10 1.36323e-09 1.56975e-08 1.60563e-07 1.44632e-06 1.13545e-05 7.66915e-05 0.000438465 0.00207892 0.00798325 0.0243219 0.0585236 0.113814 0.187369 0.274764 0.373646 0.483782 0.605846 0.739645 0.878205 0.98132 0.960257 0.939023 0.929379 0.92889 0.928522 0.928059 0.927298 0.92575 0.924031 0.921883 0.92004 0.920971 0.922458 0.918266 0.901958 0.909364 0.837858 0.797288 0.753604 0.665344 0.544957 0.432829 0.294719 0.177557 0.0891517 0.037185 0.01334 0.00435421 0.00134192 0.00039673 0.000113114 3.11471e-05 8.28525e-06 2.12881e-06 5.28237e-07 1.26563e-07 2.92763e-08 6.53777e-09 1.4095e-09 2.93329e-10 5.89303e-11 1.17686e-11 1.95969e-12 5.75196e-13 8.77152e-14 -1.014e-14 -1.63605e-13 -4.45055e-14 6.89444e-15 2.4029e-13 -1.11942e-13 -1.21437e-13 -1.84484e-13 7.82175e-14 8.90004e-14 -1.9854e-13 1.82879e-13 1.46455e-13 3.88986e-14 -6.61965e-14 4.28969e-14 9.63234e-14 -5.59739e-14 -6.25547e-15 -4.77508e-14 -1.07668e-13 1.17446e-13 2.3982e-14 2.87875e-13 9.93323e-14 1.83925e-13 -1.95365e-13 8.54137e-14 -3.14122e-13 -2.57414e-13 -1.5332e-13 7.51026e-14 -2.22002e-13 6.5005e-14 1.41946e-14 -9.0873e-14 -1.78712e-13 -2.97177e-15 1.06917e-13 1.58607e-13 -6.02477e-14 -1.30921e-13 -5.80943e-14 9.58343e-14 1.48749e-13 -5.4717e-14 -4.31296e-14 -5.06561e-14 3.5728e-15 -1.8879e-13 1.39683e-13 -1.00579e-13 -7.97822e-14 9.34737e-14 -3.81633e-14 7.26925e-14 -7.35251e-14 0
				</DataArray>
				<DataArray Name="VitesseY" type="Float32" format="ascii">