<?xml version="1.0"?>
<VTKFile type="PolyData">
	<PolyData>
		<Piece NumberOfPoints="1206" NumberOfPolys="1000">
			<Points>
				<DataArray type="Float32" NumberOfComponents="3" format="ascii">
 0 0 0 0.005 0 0 0.01 0 0 0.015 0 0 0.02 0 0 0.025 0 0 0.03 0 0 0.035 0 0 0.04 0 0 0.045 0 0 0.05 0 0 0.055 0 0 0.06 0 0 0.065 0 0 0.07 0 0 0.075 0 0 0.08 0 0 0.085 0 0 0.09 0 0 0.095 0 0 0.1 0 0 0.105 0 0 0.11 0 0 0.115 0 0 0.12 0 0 0.125 0 0 0.13 0 0 0.135 0 0 0.14 0 0 0.145 0 0 0.15 0 0 0.155 0 0 0.16 0 0 0.165 0 0 0.17 0 0 0.175 0 0 0.18 0 0 0.185 0 0 0.19 0 0 0.195 0 0 0.2 0 0 0.205 0 0 0.21 0 0 0.215 0 0 0.22 0 0 0.225 0 0 0.23 0 0 0.235 0 0 0.24 0 0 0.245 0 0 0.25 0 0 0.255 0 0 0.26 0 0 0.265 0 0 0.27 0 0 0.275 0 0 0.28 0 0 0.285 0 0 0.29 0 0 0.295 0 0 0.3 0 0 0.305 0 0 0.31 0 0 0.315001 0 0 0.320004 0 0 0.325011 0 0 0.330029 0 0 0.335072 0 0 0.340158 0 0 0.345312 0 0 0.350559 0 0 0.355921 0 0 0.361419 0 0 0.367066 0 0 0.372879 0 0 0.37887 0 0 0.385054 0 0 0.391448 0 0 0.398068 0 0 0.404934 0 0 0.412067 0 0 0.419491 0 0 0.427235 0 0 0.43533 0 0 0.44381 0 0 0.452718 0 0 0.4621 0 0 0.472007 0 0 0.482492 0 0 0.4936 0 0 0.505324 0 0 0.517491 0 0 0.529661 0 0 0.541701 0 0 0.553614 0 0 0.565439 0 0 0.577213 0 0 0.588966 0 0 0.600711 0 0 0.612455 0 0 0.62421 0 0 0.626825 0 0 0.629364 0 0 0.631858 0 0 0.634319 0 0 0.636758 0 0 0.639181 0 0 0.64159 0 0 0.643989 0 0 0.646382 0 0 0.64877 0 0 0.651152 0 0 0.653528 0 0 0.655901 0 0 0.65827 0 0 0.660637 0 0 0.663004 0 0 0.665367 0 0 0.66773 0 0 0.670091 0 0 0.672451 0 0 0.67481 0 0 0.677169 0 0 0.679527 0 0 0.681885 0 0 0.684243 0 0 0.6866 0 0 0.688957 0 0 0.691313 0 0 0.693669 0 0 0.696026 0 0 0.698386 0 0 0.700746 0 0 0.703105 0 0 0.705462 0 0 0.707817 0 0 0.710171 0 0 0.712526 0 0 0.714884 0 0 0.717254 0 0 0.719644 0 0 0.722052 0 0 0.724495 0 0 0.727041 0 0 0.729702 0 0 0.732518 0 0 0.735539 0 0 0.738839 0 0 0.742456 0 0 0.74643 0 0 0.750744 0 0 0.755344 0 0 0.760143 0 0 0.765055 0 0 0.77002 0 0 0.775007 0 0 0.780003 0 0 0.785001 0 0 0.79 0 0 0.795 0 0 0.8 0 0 0.805 0 0 0.81 0 0 0.815 0 0 0.82 0 0 0.825 0 0 0.83 0 0 0.835 0 0 0.84 0 0 0.845 0 0 0.85 0 0 0.855 0 0 0.86 0 0 0.865 0 0 0.87 0 0 0.875 0 0 0.88 0 0 0.885 0 0 0.89 0 0 0.895 0 0 0.9 0 0 0.905 0 0 0.91 0 0 0.915 0 0 0.92 0 0 0.925 0 0 0.93 0 0 0.935 0 0 0.94 0 0 0.945 0 0 0.95 0 0 0.955 0 0 0.96 0 0 0.965 0 0 0.97 0 0 0.975 0 0 0.98 0 0 0.985 0 0 0.99 0 0 0.995 0 0 1 0 0 0 0.02 0 0.005 0.02 0 0.01 0.02 0 0.015 0.02 0 0.02 0.02 0 0.025 0.02 0 0.03 0.02 0 0.035 0.02 0 0.04 0.02 0 0.045 0.02 0 0.05 0.02 0 0.055 0.02 0 0.06 0.02 0 0.065 0.02 0 0.07 0.02 0 0.075 0.02 0 0.08 0.02 0 0.085 0.02 0 0.09 0.02 0 0.095 0.02 0 0.1 0.02 0 0.105 0.02 0 0.11 0.02 0 0.115 0.02 0 0.12 0.02 0 0.125 0.02 0 0.13 0.02 0 0.135 0.02 0 0.14 0.02 0 0.145 0.02 0 0.15 0.02 0 0.155 0.02 0 0.16 0.02 0 0.165 0.02 0 0.17 0.02 0 0.175 0.02 0 0.18 0.02 0 0.185 0.02 0 0.19 0.02 0 0.195 0.02 0 0.2 0.02 0 0.205 0.02 0 0.21 0.02 0 0.215 0.02 0 0.22 0.02 0 0.225 0.02 0 0.23 0.02 0 0.235 0.02 0 0.24 0.02 0 0.245 0.02 0 0.25 0.02 0 0.255 0.02 0 0.26 0.02 0 0.265 0.02 0 0.27 0.02 0 0.275 0.02 0 0.28 0.02 0 0.285 0.02 0 0.29 0.02 0 0.295 0.02 0 0.3 0.02 0 0.305 0.02 0 0.31 0.02 0 0.315001 0.02 0 0.320004 0.02 0 0.325011 0.02 0 0.330029 0.02 0 0.335072 0.02 0 0.340158 0.02 0 0.345312 0.02 0 0.350559 0.02 0 0.355921 0.02 0 0.361419 0.02 0 0.367066 0.02 0 0.372879 0.02 0 0.37887 0.02 0 0.385054 0.02 0 0.391448 0.02 0 0.398068 0.02 0 0.404934 0.02 0 0.412067 0.02 0 0.419491 0.02 0 0.427235 0.02 0 0.43533 0.02 0 0.44381 0.02 0 0.452718 0.02 0 0.4621 0.02 0 0.472007 0.02 0 0.482492 0.02 0 0.4936 0.02 0 0.505324 0.02 0 0.517491 0.02 0 0.529661 0.02 0 0.541701 0.02 0 0.553614 0.02 0 0.565439 0.02 0 0.577213 0.02 0 0.588966 0.02 0 0.600711 0.02 0 0.612455 0.02 0 0.62421 0.02 0 0.626825 0.02 0 0.629364 0.02 0 0.631858 0.02 0 0.634319 0.02 0 0.636758 0.02 0 0.639181 0.02 0 0.64159 0.02 0 0.643989 0.02 0 0.646382 0.02 0 0.64877 0.02 0 0.651152 0.02 0 0.653528 0.02 0 0.655901 0.02 0 0.65827 0.02 0 0.660637 0.02 0 0.663004 0.02 0 0.665367 0.02 0 0.66773 0.02 0 0.670091 0.02 0 0.672451 0.02 0 0.67481 0.02 0 0.677169 0.02 0 0.679527 0.02 0 0.681885 0.02 0 0.684243 0.02 0 0.6866 0.02 0 0.688957 0.02 0 0.691313 0.02 0 0.693669 0.02 0 0.696026 0.02 0 0.698386 0.02 0 0.700746 0.02 0 0.703105 0.02 0 0.705462 0.02 0 0.707817 0.02 0 0.710171 0.02 0 0.712526 0.02 0 0.714884 0.02 0 0.717254 0.02 0 0.719644 0.02 0 0.722052 0.02 0 0.724495 0.02 0 0.727041 0.02 0 0.729702 0.02 0 0.732518 0.02 0 0.735539 0.02 0 0.738839 0.02 0 0.742456 0.02 0 0.74643 0.02 0 0.750744 0.02 0 0.755344 0.02 0 0.760143 0.02 0 0.765055 0.02 0 0.77002 0.02 0 0.775007 0.02 0 0.780003 0.02 0 0.785001 0.02 0 0.79 0.02 0 0.795 0.02 0 0.8 0.02 0 0.805 0.02 0 0.81 0.02 0 0.815 0.02 0 0.82 0.02 0 0.825 0.02 0 0.83 0.02 0 0.835 0.02 0 0.84 0.02 0 0.845 0.02 0 0.85 0.02 0 0.855 0.02 0 0.86 0.02 0 0.865 0.02 0 0.87 0.02 0 0.875 0.02 0 0.88 0.02 0 0.885 0.02 0 0.89 0.02 0 0.895 0.02 0 0.9 0.02 0 0.905 0.02 0 0.91 0.02 0 0.915 0.02 0 0.92 0.02 0 0.925 0.02 0 0.93 0.02 0 0.935 0.02 0 0.94 0.02 0 0.945 0.02 0 0.95 0.02 0 0.955 0.02 0 0.96 0.02 0 0.965 0.02 0 0.97 0.02 0 0.975 0.02 0 0.98 0.02 0 0.985 0.02 0 0.99 0.02 0 0.995 0.02 0 1 0.02 0 0 0.04 0 0.005 0.04 0 0.01 0.04 0 0.015 0.04 0 0.02 0.04 0 0.025 0.04 0 0.03 0.04 0 0.035 0.04 0 0.04 0.04 0 0.045 0.04 0 0.05 0.04 0 0.055 0.04 0 0.06 0.04 0 0.065 0.04 0 0.07 0.04 0 0.075 0.04 0 0.08 0.04 0 0.085 0.04 0 0.09 0.04 0 0.095 0.04 0 0.1 0.04 0 0.105 0.04 0 0.11 0.04 0 0.115 0.04 0 0.12 0.04 0 0.125 0.04 0 0.13 0.04 0 0.135 0.04 0 0.14 0.04 0 0.145 0.04 0 0.15 0.04 0 0.155 0.04 0 0.16 0.04 0 0.165 0.04 0 0.17 0.04 0 0.175 0.04 0 0.18 0.04 0 0.185 0.04 0 0.19 0.04 0 0.195 0.04 0 0.2 0.04 0 0.205 0.04 0 0.21 0.04 0 0.215 0.04 0 0.22 0.04 0 0.225 0.04 0 0.23 0.04 0 0.235 0.04 0 0.24 0.04 0 0.245 0.04 0 0.25 0.04 0 0.255 0.04 0 0.26 0.04 0 0.265 0.04 0 0.27 0.04 0 0.275 0.04 0 0.28 0.04 0 0.285 0.04 0 0.29 0.04 0 0.295 0.04 0 0.3 0.04 0 0.305 0.04 0 0.31 0.04 0 0.315001 0.04 0 0.320004 0.04 0 0.325011 0.04 0 0.330029 0.04 0 0.335072 0.04 0 0.340158 0.04 0 0.345312 0.04 0 0.350559 0.04 0 0.355921 0.04 0 0.361419 0.04 0 0.367066 0.04 0 0.372879 0.04 0 0.37887 0.04 0 0.385054 0.04 0 0.391448 0.04 0 0.398068 0.04 0 0.404934 0.04 0 0.412067 0.04 0 0.419491 0.04 0 0.427235 0.04 0 0.43533 0.04 0 0.44381 0.04 0 0.452718 0.04 0 0.4621 0.04 0 0.472007 0.04 0 0.482492 0.04 0 0.4936 0.04 0 0.505324 0.04 0 0.517491 0.04 0 0.529661 0.04 0 0.541701 0.04 0 0.553614 0.04 0 0.565439 0.04 0 0.577213 0.04 0 0.588966 0.04 0 0.600711 0.04 0 0.612455 0.04 0 0.62421 0.04 0 0.626825 0.04 0 0.629364 0.04 0 0.631858 0.04 0 0.634319 0.04 0 0.636758 0.04 0 0.639181 0.04 0 0.64159 0.04 0 0.643989 0.04 0 0.646382 0.04 0 0.64877 0.04 0 0.651152 0.04 0 0.653528 0.04 0 0.655901 0.04 0 0.65827 0.04 0 0.660637 0.04 0 0.663004 0.04 0 0.665367 0.04 0 0.66773 0.04 0 0.670091 0.04 0 0.672451 0.04 0 0.67481 0.04 0 0.677169 0.04 0 0.679527 0.04 0 0.681885 0.04 0 0.684243 0.04 0 0.6866 0.04 0 0.688957 0.04 0 0.691313 0.04 0 0.693669 0.04 0 0.696026 0.04 0 0.698386 0.04 0 0.700746 0.04 0 0.703105 0.04 0 0.705462 0.04 0 0.707817 0.04 0 0.710171 0.04 0 0.712526 0.04 0 0.714884 0.04 0 0.717254 0.04 0 0.719644 0.04 0 0.722052 0.04 0 0.724495 0.04 0 0.727041 0.04 0 0.729702 0.04 0 0.732518 0.04 0 0.735539 0.04 0 0.738839 0.04 0 0.742456 0.04 0 0.74643 0.04 0 0.750744 0.04 0 0.755344 0.04 0 0.760143 0.04 0 0.765055 0.04 0 0.77002 0.04 0 0.775007 0.04 0 0.780003 0.04 0 0.785001 0.04 0 0.79 0.04 0 0.795 0.04 0 0.8 0.04 0 0.805 0.04 0 0.81 0.04 0 0.815 0.04 0 0.82 0.04 0 0.825 0.04 0 0.83 0.04 0 0.835 0.04 0 0.84 0.04 0 0.845 0.04 0 0.85 0.04 0 0.855 0.04 0 0.86 0.04 0 0.865 0.04 0 0.87 0.04 0 0.875 0.04 0 0.88 0.04 0 0.885 0.04 0 0.89 0.04 0 0.895 0.04 0 0.9 0.04 0 0.905 0.04 0 0.91 0.04 0 0.915 0.04 0 0.92 0.04 0 0.925 0.04 0 0.93 0.04 0 0.935 0.04 0 0.94 0.04 0 0.945 0.04 0 0.95 0.04 0 0.955 0.04 0 0.96 0.04 0 0.965 0.04 0 0.97 0.04 0 0.975 0.04 0 0.98 0.04 0 0.985 0.04 0 0.99 0.04 0 0.995 0.04 0 1 0.04 0 0 0.06 0 0.005 0.06 0 0.01 0.06 0 0.015 0.06 0 0.02 0.06 0 0.025 0.06 0 0.03 0.06 0 0.035 0.06 0 0.04 0.06 0 0.045 0.06 0 0.05 0.06 0 0.055 0.06 0 0.06 0.06 0 0.065 0.06 0 0.07 0.06 0 0.075 0.06 0 0.08 0.06 0 0.085 0.06 0 0.09 0.06 0 0.095 0.06 0 0.1 0.06 0 0.105 0.06 0 0.11 0.06 0 0.115 0.06 0 0.12 0.06 0 0.125 0.06 0 0.13 0.06 0 0.135 0.06 0 0.14 0.06 0 0.145 0.06 0 0.15 0.06 0 0.155 0.06 0 0.16 0.06 0 0.165 0.06 0 0.17 0.06 0 0.175 0.06 0 0.18 0.06 0 0.185 0.06 0 0.19 0.06 0 0.195 0.06 0 0.2 0.06 0 0.205 0.06 0 0.21 0.06 0 0.215 0.06 0 0.22 0.06 0 0.225 0.06 0 0.23 0.06 0 0.235 0.06 0 0.24 0.06 0 0.245 0.06 0 0.25 0.06 0 0.255 0.06 0 0.26 0.06 0 0.265 0.06 0 0.27 0.06 0 0.275 0.06 0 0.28 0.06 0 0.285 0.06 0 0.29 0.06 0 0.295 0.06 0 0.3 0.06 0 0.305 0.06 0 0.31 0.06 0 0.315001 0.06 0 0.320004 0.06 0 0.325011 0.06 0 0.330029 0.06 0 0.335072 0.06 0 0.340158 0.06 0 0.345312 0.06 0 0.350559 0.06 0 0.355921 0.06 0 0.361419 0.06 0 0.367066 0.06 0 0.372879 0.06 0 0.37887 0.06 0 0.385054 0.06 0 0.391448 0.06 0 0.398068 0.06 0 0.404934 0.06 0 0.412067 0.06 0 0.419491 0.06 0 0.427235 0.06 0 0.43533 0.06 0 0.44381 0.06 0 0.452718 0.06 0 0.4621 0.06 0 0.472007 0.06 0 0.482492 0.06 0 0.4936 0.06 0 0.505324 0.06 0 0.517491 0.06 0 0.529661 0.06 0 0.541701 0.06 0 0.553614 0.06 0 0.565439 0.06 0 0.577213 0.06 0 0.588966 0.06 0 0.600711 0.06 0 0.612455 0.06 0 0.62421 0.06 0 0.626825 0.06 0 0.629364 0.06 0 0.631858 0.06 0 0.634319 0.06 0 0.636758 0.06 0 0.639181 0.06 0 0.64159 0.06 0 0.643989 0.06 0 0.646382 0.06 0 0.64877 0.06 0 0.651152 0.06 0 0.653528 0.06 0 0.655901 0.06 0 0.65827 0.06 0 0.660637 0.06 0 0.663004 0.06 0 0.665367 0.06 0 0.66773 0.06 0 0.670091 0.06 0 0.672451 0.06 0 0.67481 0.06 0 0.677169 0.06 0 0.679527 0.06 0 0.681885 0.06 0 0.684243 0.06 0 0.6866 0.06 0 0.688957 0.06 0 0.691313 0.06 0 0.693669 0.06 0 0.696026 0.06 0 0.698386 0.06 0 0.700746 0.06 0 0.703105 0.06 0 0.705462 0.06 0 0.707817 0.06 0 0.710171 0.06 0 0.712526 0
[...]
			<PointData Scalars="VitesseX">
				<DataArray Name="VitesseX" type="Float32" format="ascii">
 0 -1.27845e-15 -1.15852e-15 -8.35201e-16 -6.47114e-16 1.9626e-15 -4.69177e-16 -2.98299e-15 -5.67485e-15 -3.8383e-15 9.4489e-16 -3.95452e-15 -4.6679e-15 -1.0541e-14 4.76862e-16 -1.45406e-15 -5.83947e-15 1.09546e-14 -1.38744e-14 8.51926e-15 -1.37008e-15 1.42121e-14 -1.8962e-15 -1.05876e-14 1.04103e-14 1.67725e-14 5.61632e-15 1.52088e-14 1.85719e-14 8.93121e-15 8.86869e-15 -2.03888e-14 2.57332e-14 -1.32727e-14 1.1816e-14 -1.32291e-15 1.4637e-16 1.54837e-14 -1.51903e-14 1.07479e-14 1.67389e-14 1.90945e-14 -2.61876e-14 -6.83346e-15 3.83454e-15 1.94961e-14 -4.2077e-15 1.95421e-14 3.97731e-14 5.01791e-14 1.96869e-13 5.51322e-13 4.56167e-12 3.30109e-11 2.24765e-10 1.43813e-09 8.63604e-09 4.85236e-08 2.54267e-07 1.23796e-06 5.57629e-06 2.31215e-05 8.77271e-05 0.000302427 0.000939452 0.00260563 0.0063962 0.013815 0.0262617 0.0443206 0.0674981 0.0946657 0.124711 0.156874 0.190746 0.226141 0.263001 0.301331 0.341176 0.382606 0.425712 0.4706 0.517391 0.56621 0.617182 0.670401 0.725878 0.783397 0.842146 0.899622 0.948274 0.96677 0.954816 0.944435 0.936134 0.931262 0.928989 0.928029 0.927587 0.927325 0.927158 0.927177 0.9272 0.927183 0.927169 0.927138 0.92709 0.927029 0.926958 0.92688 0.926803 0.926735 0.926682 0.926653 0.926644 0.926715 0.926914 0.926793 0.926728 0.926653 0.926572 0.926544 0.926563 0.926841 0.926585 0.926373 0.926025 0.925735 0.925547 0.925616 0.926876 0.927365 0.926449 0.92539 0.924173 0.923212 0.923103 0.925577 0.926506 0.928557 0.908078 0.9165 0.859207 0.831694 0.790226 0.731632 0.627621 0.538689 0.408231 0.286877 0.176279 0.093442 0.0425751 0.0172852 0.00656903 0.00242029 0.000879359 0.000317153 0.00011378 4.06133e-05 1.4417e-05 5.08601e-06 1.78169e-06 6.19285e-07 2.13407e-07 7.28548e-08 2.46225e-08 8.23275e-09 2.7218e-09 8.89169e-10 2.8692e-10 9.1429e-11 2.86971e-11 9.04236e-12 2.55943e-12 8.6995e-13 2.42103e-13 -3.29628e-14 4.57813e-14 -1.56088e-13 6.29073e-14 -1.29435e-13 -4.38692e-14 9.03605e-15 -9.29952e-15 1.37017e-14 -3.1423e-15 -1.07723e-13 -3.55944e-14 -1.3297e-13 -6.17854e-14 -5.18591e-14 1.14923e-13 -1.00334e-13 -5.83391e-14 -4.62735e-14 4.33834e-14 -7.84946e-14 -1.90254e-14 -7.67984e-14 0 0 1.50974e-15 -9.68048e-17 -2.06915e-15 -3.26434e-16 -1.71693e-15 -2.54965e-15 -2.01818e-15 -4.18086e-15 3.33817e-15 -7.4573e-15 5.42966e-16 -2.87217e-15 -5.1389e-15 -5.49404e-15 -5.25592e-15 4.89109e-15 -1.08224e-14 8.03146e-15 -7.43073e-15 4.68249e-15 1.10684e-14 -5.37343e-15 8.55992e-15 2.07141e-15 7.09199e-15 3.3051e-15 2.23976e-14 5.30412e-15 2.5967e-14 -8.09614e-15 1.01462e-14 -1.52667e-14 1.24236e-14 6.08642e-15 -1.78024e-14 2.43779e-14 1.72779e-14 -1.39852e-14 -3.61914e-15 2.74496e-14 -2.1146e-14 1.10125e-14 3.41373e-15 2.45894e-14 -2.46474e-14 -7.00297e-15 3.67795e-14 3.92729e-14 6.76627e-14 1.59177e-13 5.68633e-13 4.57269e-12 3.29395e-11 2.2477e-10 1.43815e-09 8.63607e-09 4.85236e-08 2.54267e-07 1.23796e-06 5.57629e-06 2.31215e-05 8.77271e-05 0.000302427 0.000939452 0.00260563 0.0063962 0.013815 0.0262617 0.0443206 0.0674981 0.0946657 0.124711 0.156874 0.190746 0.226141 0.263001 0.301331 0.341176 0.382606 0.425712 0.4706 0.517391 0.56621 0.617182 0.670401 0.725878 0.783397 0.842146 0.899622 0.948274 0.96677 0.954816 0.944435 0.936134 0.931262 0.928989 0.928029 0.927587 0.927325 0.927158 0.927177 0.9272 0.927183 0.927169 0.927138 0.92709 0.927029 0.926958 0.92688 0.926803 0.926735 0.926682 0.926653 0.926644 0.926715 0.926914 0.926793 0.926728 0.926653 0.926572 0.926544 0.926563 0.926841 0.926585 0.926373 0.926025 0.925735 0.925547 0.925616 0.926876 0.927365 0.926449 0.92539 0.924173 0.923212 0.923103 0.925577 0.926506 0.928557 0.908078 0.9165 0.859207 0.831694 0.790226 0.731632 0.627621 0.538689 0.408231 0.286877 0.176279 0.093442 0.0425751 0.0172852 0.00656903 0.00242029 0.000879359 0.000317153 0.00011378 4.06133e-05 1.4417e-05 5.08601e-06 1.78169e-06 6.19285e-07 2.13407e-07 7.28547e-08 2.46226e-08 8.23277e-09 2.72171e-09 8.89252e-10 2.86882e-10 9.15042e-11 2.8643e-11 9.0659e-12 2.64799e-12 8.08082e-13 1.54047e-13 7.32341e-14 -9.28998e-14 2.74353e-14 -1.29223e-13 1.20537e-13 -1.47163e-13 2.4917e-14 -3.67241e-14 -8.72161e-14 5.97256e-14 -1.08372e-13 -4.02443e-14 -6.24926e-14 -3.28895e-14 2.43926e-15 -2.38143e-14 5.44788e-14 -3.16737e-14 -8.37998e-14 -6.67213e-15 -6.68979e-14 -2.52806e-14 -3.96405e-15 0 0 4.23709e-16 7.95686e-16 7.49669e-16 1.02428e-15 -3.62249e-15 -3.95315e-15 3.11171e-15 -5.68852e-15 -5.97269e-15 -8.96506e-16 2.82947e-15 -6.19501e-15 -3.94577e-15 1.34224e-15 -1.04744e-15 -1.68295e-15 -5.38891e-15 2.66686e-15 -5.42174e-15 1.31935e-14 4.01266e-17 -8.8847e-15 1.41683e-14 1.56586e-15 8.84562e-15 1.56058e-14 1.5013e-16 4.62683e-15 3.12081e-14 -6.34558e-15 -1.06952e-14 -2.04342e-14 1.90524e-14 2.19254e-14 -1.81726e-14 1.02186e-14 1.76652e-14 -1.12248e-14 -1.48237e-14 7.99701e-15 1.01686e-14 1.79551e-14 1.41853e-14 -8.70292e-15 -2.06961e-14 1.32036e-14 6.51437e-14 7.20075e-14 6.49692e-14 1.03391e-13 6.00558e-13 4.55419e-12 3.2988e-11 2.24679e-10 1.43812e-09 8.63608e-09 4.85237e-08 2.54266e-07 1.23796e-06 5.57629e-06 2.31215e-05 8.77271e-05 0.000302427 0.000939452 0.00260563 0.0063962 0.013815 0.0262617 0.0443206 0.0674981 0.0946657 0.124711 0.156874 0.190746 0.226141 0.263001 0.301331 0.341176 0.382606 0.425712 0.4706 0.517391 0.56621 0.617182 0.670401 0.725878 0.783397 0.842146 0.899622 0.948274 0.96677 0.954816 0.944435 0.936134 0.931262 0.928989 0.928029 0.927587 0.927325 0.927158 0.927177 0.9272 0.927183 0.927169 0.927138 0.92709 0.927029 0.926958 0.92688 0.926803 0.926735 0.926682 0.926653 0.926644 0.926715 0.926914 0.926793 0.926728 0.926653 0.926572 0.926544 0.926563 0.926841 0.926585 0.926373 0.926025 0.925735 0.925547 0.925616 0.926876 0.927365 0.926449 0.92539 0.924173 0.923212 0.923103 0.925577 0.926506 0.928557 0.908078 0.9165 0.859207 0.831694 0.790226 0.731632 0.627621 0.538689 0.408231 0.286877 0.176279 0.093442 0.0425751 0.0172852 0.00656903 0.00242029 0.000879359 0.000317153 0.00011378 4.06133e-05 1.4417e-05 5.08601e-06 1.78169e-06 6.19285e-07 2.13407e-07 7.28546e-08 2.46226e-08 8.23278e-09 2.72182e-09 8.89194e-10 2.86935e-10 9.14525e-11 2.87172e-11 9.06707e-12 2.7555e-12 7.66075e-13 7.35842e-14 -7.58054e-14 6.2371e-14 -1.19256e-13 -4.81716e-15 -1.05354e-14 3.05866e-14 -3.03334e-14 -3.09851e-14 -1.13817e-13 6.50309e-14 -1.14465e-14 2.33676e-15 -9.54084e-14 -1.03303e-13 5.64817e-14 -2.19301e-14 1.12752e-13 -6.1042e-14 -4.22725e-14 -8.60233e-14 7.56484e-14 7.23807e-14 -3.29417e-14 0 0 5.18178e-16 8.31131e-16 2.95262e-15 -1.51863e-15 -1.79721e-15 -3.65122e-15 7.11659e-16 -1.72293e-15 -3.46888e-15 -7.27781e-16 4.25438e-15 -6.92883e-15 2.68288e-15 6.16902e-15 -1.76978e-15 -8.08894e-15 1.84999e-14 -1.25788e-14 1.22554e-14 -1.0112e-15 -2.06645e-15 1.58567e-15 -5.34916e-15 8.92071e-15 1.8914e-14 2.05743e-14 -6.88288e-15 -7.57573e-17 1.00005e-14 -5.00859e-15 -2.00693e-14 6.06553e-15 3.74228e-15 1.88023e-14 5.03209e-15 -6.05277e-15 -1.46983e-14 -3.80555e-15 -2.45307e-15 1.57558e-14 4.18882e-14 -7.0003e-15 -1.96852e-14 7.54277e-15 1.88605e-14 2.32494e-14 6.9677e-14 5.46763e-14 1.10168e-13 2.02272e-13 5.65811e-13 4.48951e-12 3.30994e-11 2.24591e-10 1.43804e-09 8.63607e-09 4.85236e-08 2.54266e-07 1.23796e-06 5.57629e-06 2.31215e-05 8.77271e-05 0.000302427 0.000939452 0.00260563 0.0063962 0.013815 0.0262617 0.0443206 0.0674981 0.0946657 0.124711 0.156874 0.190746 0.226141 0.263001 0.301331 0.341176 0.382606 0.425712 0.4706 0.517391 0.56621 0.617182 0.670401 0.725878 0.783397 0.842146 0.899622 0.948274 0.96677 0.954816 0.944435 0.936134 0.931262 0.928989 0.928029 0.927587 0.927325 0.927158 0.927177 0.9272 0.927183 0.927169 0.927138 0.92709 0.927029 0.926958 0.92688 0.926803 0.926735 0.926682 0.926653 0.926644 0.926715 0.926914 0.926793 0.926728 0.926653 0.926572 0.926544 0.926563 0.926841 0.926585 0.926373 0.926025 0.925735 0.925547 0.925616 0.926876 0.927365 0.926449 0.92539 0.924173 0.923212 0.923103 0.925577 0.926506 0.928557 0.908078 0.9165 0.859207 0.831694 0.790226 0.731632 0.627621 0.538689 0.408231 0.286877 0.176279 0.093442 0.0425751 0.0172852 0.00656903 0.00242029 0.000879359 0.000317153 0.00011378 4.06133e-05 1.4417e-05 5.08601e-06 1.78169e-06 6.19285e-07 2.13407e-07 7.28547e-08 2.46226e-08 8.23289e-09 2.72185e-09 8.89173e-10 2.87002e-10 9.13359e-11 2.88359e-11 8.97392e-12 2.87011e-12 8.48259e-13 -1.23905e-14 -1.00292e-13 5.42184e-14 -2.34751e-13 1.23045e-13 -1.31953e-13 2.37043e-13 3.22887e-14 -3.85074e-14 6.43627e-14 -2.89142e-13 -7.33273e-15 -3.55717e-14 -7.70871e-14 -5.55197e-14 -5.42313e-14 7.39468e-14 -1.09674e-13 7.17753e-14 -1.39122e-15 8.71455e-14 8.9991e-14 8.24191e-14 -5.99069e-14 0 0 2.87013e-15 1.14298e-15 2.79965e-16 -2.1012e-15 -1.89856e-15 -2.36751e-15 -3.68005e-15 3.01214e-15 5.49784e-15 -9.52867e-16 3.45591e-16 4.2152e-15 2.36416e-14 1.18302e-14 -1.40598e-14 -4.07431e-15 6.58946e-15 -1.65258e-14 1.25455e-14 2.23436e-15 2.16882e-15 8.784e-15 -3.15893e-15 6.98232e-15 -3.24835e-15 7.88129e-15 4.45987e-15 -9.7321e-15 7.10935e-15 -9.62225e-15 1.50791e-14 -3.3149e-15 7.65099e-15 1.00092e-14 3.45198e-14 -2.54592e-14 -3.82175e-14 3.61815e-15 1.00651e-14 2.68777e-14 1.67286e-14 -2.0273e-14 -1.94625e-15 3.89596e-14 6.21215e-14 7.47062e-15 3.75731e-14 7.15958e-16 1.35112e-13 2.7065e-13 5.62638e-13 4.5204e-12 3.30458e-11 2.24589e-10 1.43806e-09 8.63607e-09 4.85234e-08 2.54266e-07 1.23796e-06 5.57629e-06 2.31215e-05 8.77271e-05 0.000302427 0.000939452 0.00260563 0.0063962 0.013815 0.0262617 0.0443206 0.0674981 0.0946657 0.124711 0.156874 0.190746 0.226141 0.263001 0.301331 0.341176 0.382606 0.425712 0.4706 0.517391 0.56621 0.617182 0.670401 0.725878 0.783397 0.842146 0.899622 0.948274 0.96677 0.954816 0.944435 0.936134 0.931262 0.928989 0.928029 0.927587 0.927325 0.927158 0.927177 0.9272 0.927183 0.927169 0.927138 0.92709 0.927029 0.926958 0.92688 0.926803 0.926735 0.926682 0.926653 0.926644 0.926715 0.926914 0.926793 0.926728 0.926653 0.926572 0.926544 0.926563 0.926841 0.926585 0.926373 0.926025 0.925735 0.925547 0.925616 0.926876 0.927365 0.926449 0.92539 0.924173 0.923212 0.923103 0.925577 0.926506 0.928557 0.908078 0.9165 0.859207 0.831694 0.790226 0.731632 0.627621 0.538689 0.408231 0.286877 0.176279 0.093442 0.0425751 0.0172852 0.00656903 0.00242029 0.000879359 0.000317153 0.00011378 4.06133e-05 1.4417e-05 5.08601e-06 1.78169e-06 6.19285e-07 2.13407e-07 7.28548e-08 2.46226e-08 8.23312e-09 2.72159e-09 8.89411e-10 2.86983e-10 9.14847e-11 2.88072e-11 8.90549e-12 2.91794e-12 5.84939e-13 5.80433e-15 1.36576e-13 -1.71343e-13 -9.75999e-15 -7.86046e-14 -1.34999e-15 2.47996e-13 1.05468e-13 -9.2836e-14 -3.82372e-14 -3.61656e-13 -6.61928e-14 -2.9271e-14 5.58414e-14 7.58383e-14 -1.73705e-13 3.12775e-14 -1.30786e-13 2.82902e-14 9.52169e-14 -1.17132e-15 3.27329e-14 2.07473e-13 -3.03225e-15 0 0 1.2534e-15 1.25015e-15 -5.42877e-16 8.89173e-16 -2.05122e-15 -7.0877e-16 -1.50661e-15 7.79971e-16 -4.52656e-15 1.36163e-14 -7.19909e-15 1.09745e-14 3.37627e-14 2.54719e-14 -1.76172e-14 -1.09583e-14 -1.99932e-15 -3.24975e-14 1.31174e-14 2.21431e-14 6.26131e-16 5.4779e-15 5.00955e-15 5.5224e-15 -2.4045e-14 4.8318e-15 -6.60054e-15 -2.09541e-15 1.36313e-14 3.14248e-15 8.22533e-15 -3.36245e-15 7.80245e-15 2.59079e-14 5.69122e-14 -6.69851e-14 -3.07804e-14 5.17785e-15 1.33751e-14 7.77767e-17 3.14046e-14 -3.88478e-14 5.01877e-14 8.36125e-17 1.13921e-13 4.64774e-15 1.20628e-14 -2.67831e-15 9.46795e-14 2.22055e-13 6.08827e-13 4.58644e-12 3.30008e-11 2.24577e-10 1.43811e-09 8.63605e-09 4.85234e-08 2.54266e-07 1.23796e-06 5.57629e-06 2.31215e-05 8.77271e-05 0.000302427 0.000939452 0.00260563 0.0063962 0.013815 0.0262617 0.0443206 0.0674981 0.0946657 0.124711 0.156874 0.190746 0.226141 0.263001 0.301331 0.341176 0.382606 0.425712 0.4706 0.517391 0.56621 0.617182 0.670401 0.725878 0.783397 0.842146 0.899622 0.948274 0.96677 0.954816 0.944435 0.936134 0.931262 0.928989 0.928029 0.927587 0.927325 0.927158 0.927177 0.9272 0.927183 0.927169 0.927138 0.92709 0.927029 0.926958 0.92688 0.926803 0.926735 0.926682 0.926653 0.926644 0.926715 0.926914 0.926793 0.926728 0.926653 0.926572 0.926544 0.926563 0.926841 0.926585 0.926373 0.926025 0.925735 0.925547 0.925616 0.926876 0.927365 0.926449 0.92539 0.924173 0.923212 0.923103 0.925577 0.926506 0.928557 0.908078 0.9165 0.859207 0.831694 0.790226 0.731632 0.627621 0.538689 0.408231 0.286877 0.176279 0.093442 0.0425751 0.0172852 0.00656903 0.00242029 0.000879359 0.000317153 0.00011378 4.06133e-05 1.4417e-05 5.08601e-06 1.78169e-06 6.19285e-07 2.13407e-07 7.28549e-08 2.46225e-08 8.23324e-09 2.7215e-09 8.8953e-10 2.86986e-10 9.16233e-11 2.8788e-11 8.90735e-12 2.87018e-12 2.59448e-13 1.17487e-13 1.42648e-13 -9.44531e-14 4.76042e-16 -9.18527e-14 -1.30537e-13 3.3332e-13 4.48134e-14 -1.06536e-13 -2.45203e-13 -1.38104e-13 -3.21405e-14 6.1732e-14 6.67292e-14 6.01379e-14 -1.82734e-13 3.31481e-14 -2.59071e-14 -2.03921e-13 2.29959e-13 -2.92305e-13 9.18955e-14 4.26518e-13 -2.10009e-14 0
				</DataArray>
				<DataArray Name="VitesseY" type="Float32" format="ascii">