<?xml version="1.0"?>
<VTKFile type="PolyData">
	<PolyData>
		<Piece NumberOfPoints="1206" NumberOfPolys="1000">
			<Points>
				<DataArray type="Float32" NumberOfComponents="3" format="ascii">
 0 0 0 0.005 0 0 0.01 0 0 0.015 0 0 0.02 0 0 0.025 0 0 0.03 0 0 0.035 0 0 0.04 0 0 0.045 0 0 0.05 0 0 0.055 0 0 0.06 0 0 0.065 0 0 0.07 0 0 0.075 0 0 0.08 0 0 0.085 0 0 0.09 0 0 0.095 0 0 0.1 0 0 0.105 0 0 0.11 0 0 0.115 0 0 0.12 0 0 0.125 0 0 0.13 0 0 0.135 0 0 0.14 0 0 0.145 0 0 0.15 0 0 0.155 0 0 0.16 0 0 0.165 0 0 0.17 0 0 0.175 0 0 0.18 0 0 0.185 0 0 0.19 0 0 0.195 0 0 0.2 0 0 0.205 0 0 0.21 0 0 0.215 0 0 0.22 0 0 0.225 0 0 0.23 0 0 0.235 0 0 0.24 0 0 0.245 0 0 0.250001 0 0 0.255002 0 0 0.260007 0 0 0.265017 0 0 0.27004 0 0 0.275086 0 0 0.280169 0 0 0.285304 0 0 0.290508 0 0 0.295795 0 0 0.301174 0 0 0.306656 0 0 0.312247 0 0 0.317955 0 0 0.323787 0 0 0.32975 0 0 0.335852 0 0 0.3421 0 0 0.348503 0 0 0.35507 0 0 0.361811 0 0 0.368736 0 0 0.375858 0 0 0.383189 0 0 0.390743 0 0 0.398536 0 0 0.406584 0 0 0.414906 0 0 0.423524 0 0 0.43246 0 0 0.441739 0 0 0.45139 0 0 0.461443 0 0 0.471927 0 0 0.482871 0 0 0.494286 0 0 0.506138 0 0 0.518259 0 0 0.530355 0 0 0.542363 0 0 0.55428 0 0 0.566122 0 0 0.577914 0 0 0.589677 0 0 0.601425 0 0 0.613167 0 0 0.624905 0 0 0.636641 0 0 0.648378 0 0 0.660117 0 0 0.67187 0 0 0.674482 0 0 0.67702 0 0 0.679512 0 0 0.681972 0 0 0.684409 0 0 0.686831 0 0 0.68924 0 0 0.69164 0 0 0.694034 0 0 0.696422 0 0 0.698805 0 0 0.701186 0 0 0.703563 0 0 0.705937 0 0 0.708307 0 0 0.710675 0 0 0.713041 0 0 0.715405 0 0 0.717767 0 0 0.720128 0 0 0.722487 0 0 0.724846 0 0 0.727204 0 0 0.729562 0 0 0.731919 0 0 0.734275 0 0 0.736631 0 0 0.738987 0 0 0.741342 0 0 0.743698 0 0 0.746053 0 0 0.748408 0 0 0.750763 0 0 0.753117 0 0 0.755472 0 0 0.757827 0 0 0.760181 0 0 0.762536 0 0 0.76489 0 0 0.767245 0 0 0.769599 0 0 0.771954 0 0 0.774308 0 0 0.776663 0 0 0.779017 0 0 0.781372 0 0 0.783727 0 0 0.786082 0 0 0.788437 0 0 0.790792 0 0 0.793148 0 0 0.795506 0 0 0.797865 0 0 0.800226 0 0 0.802594 0 0 0.804967 0 0 0.807358 0 0 0.809764 0 0 0.812211 0 0 0.814694 0 0 0.817262 0 0 0.819905 0 0 0.822713 0 0 0.825701 0 0 0.828971 0 0 0.832555 0 0 0.836497 0 0 0.840784 0 0 0.845365 0 0 0.850153 0 0 0.855059 0 0 0.860022 0 0 0.865008 0 0 0.870003 0 0 0.875001 0 0 0.88 0 0 0.885 0 0 0.89 0 0 0.895 0 0 0.9 0 0 0.905 0 0 0.91 0 0 0.915 0 0 0.92 0 0 0.925 0 0 0.93 0 0 0.935 0 0 0.94 0 0 0.945 0 0 0.95 0 0 0.955 0 0 0.96 0 0 0.965 0 0 0.97 0 0 0.975 0 0 0.98 0 0 0.985 0 0 0.99 0 0 0.995 0 0 1 0 0 0 0.02 0 0.005 0.02 0 0.01 0.02 0 0.015 0.02 0 0.02 0.02 0 0.025 0.02 0 0.03 0.02 0 0.035 0.02 0 0.04 0.02 0 0.045 0.02 0 0.05 0.02 0 0.055 0.02 0 0.06 0.02 0 0.065 0.02 0 0.07 0.02 0 0.075 0.02 0 0.08 0.02 0 0.085 0.02 0 0.09 0.02 0 0.095 0.02 0 0.1 0.02 0 0.105 0.02 0 0.11 0.02 0 0.115 0.02 0 0.12 0.02 0 0.125 0.02 0 0.13 0.02 0 0.135 0.02 0 0.14 0.02 0 0.145 0.02 0 0.15 0.02 0 0.155 0.02 0 0.16 0.02 0 0.165 0.02 0 0.17 0.02 0 0.175 0.02 0 0.18 0.02 0 0.185 0.02 0 0.19 0.02 0 0.195 0.02 0 0.2 0.02 0 0.205 0.02 0 0.21 0.02 0 0.215 0.02 0 0.22 0.02 0 0.225 0.02 0 0.23 0.02 0 0.235 0.02 0 0.24 0.02 0 0.245 0.02 0 0.250001 0.02 0 0.255002 0.02 0 0.260007 0.02 0 0.265017 0.02 0 0.27004 0.02 0 0.275086 0.02 0 0.280169 0.02 0 0.285304 0.02 0 0.290508 0.02 0 0.295795 0.02 0 0.301174 0.02 0 0.306656 0.02 0 0.312247 0.02 0 0.317955 0.02 0 0.323787 0.02 0 0.32975 0.02 0 0.335852 0.02 0 0.3421 0.02 0 0.348503 0.02 0 0.35507 0.02 0 0.361811 0.02 0 0.368736 0.02 0 0.375858 0.02 0 0.383189 0.02 0 0.390743 0.02 0 0.398536 0.02 0 0.406584 0.02 0 0.414906 0.02 0 0.423524 0.02 0 0.43246 0.02 0 0.441739 0.02 0 0.45139 0.02 0 0.461443 0.02 0 0.471927 0.02 0 0.482871 0.02 0 0.494286 0.02 0 0.506138 0.02 0 0.518259 0.02 0 0.530355 0.02 0 0.542363 0.02 0 0.55428 0.02 0 0.566122 0.02 0 0.577914 0.02 0 0.589677 0.02 0 0.601425 0.02 0 0.613167 0.02 0 0.624905 0.02 0 0.636641 0.02 0 0.648378 0.02 0 0.660117 0.02 0 0.67187 0.02 0 0.674482 0.02 0 0.67702 0.02 0 0.679512 0.02 0 0.681972 0.02 0 0.684409 0.02 0 0.686831 0.02 0 0.68924 0.02 0 0.69164 0.02 0 0.694034 0.02 0 0.696422 0.02 0 0.698805 0.02 0 0.701186 0.02 0 0.703563 0.02 0 0.705937 0.02 0 0.708307 0.02 0 0.710675 0.02 0 0.713041 0.02 0 0.715405 0.02 0 0.717767 0.02 0 0.720128 0.02 0 0.722487 0.02 0 0.724846 0.02 0 0.727204 0.02 0 0.729562 0.02 0 0.731919 0.02 0 0.734275 0.02 0 0.736631 0.02 0 0.738987 0.02 0 0.741342 0.02 0 0.743698 0.02 0 0.746053 0.02 0 0.748408 0.02 0 0.750763 0.02 0 0.753117 0.02 0 0.755472 0.02 0 0.757827 0.02 0 0.760181 0.02 0 0.762536 0.02 0 0.76489 0.02 0 0.767245 0.02 0 0.769599 0.02 0 0.771954 0.02 0 0.774308 0.02 0 0.776663 0.02 0 0.779017 0.02 0 0.781372 0.02 0 0.783727 0.02 0 0.786082 0.02 0 0.788437 0.02 0 0.790792 0.02 0 0.793148 0.02 0 0.795506 0.02 0 0.797865 0.02 0 0.800226 0.02 0 0.802594 0.02 0 0.804967 0.02 0 0.807358 0.02 0 0.809764 0.02 0 0.812211 0.02 0 0.814694 0.02 0 0.817262 0.02 0 0.819905 0.02 0 0.822713 0.02 0 0.825701 0.02 0 0.828971 0.02 0 0.832555 0.02 0 0.836497 0.02 0 0.840784 0.02 0 0.845365 0.02 0 0.850153 0.02 0 0.855059 0.02 0 0.860022 0.02 0 0.865008 0.02 0 0.870003 0.02 0 0.875001 0.02 0 0.88 0.02 0 0.885 0.02 0 0.89 0.02 0 0.895 0.02 0 0.9 0.02 0 0.905 0.02 0 0.91 0.02 0 0.915 0.02 0 0.92 0.02 0 0.925 0.02 0 0.93 0.02 0 0.935 0.02 0 0.94 0.02 0 0.945 0.02 0 0.95 0.02 0 0.955 0.02 0 0.96 0.02 0 0.965 0.02 0 0.97 0.02 0 0.975 0.02 0 0.98 0.02 0 0.985 0.02 0 0.99 0.02 0 0.995 0.02 0 1 0.02 0 0 0.04 0 0.005 0.04 0 0.01 0.04 0 0.015 0.04 0 0.02 0.04 0 0.025 0.04 0 0.03 0.04 0 0.035 0.04 0 0.04 0.04 0 0.045 0.04 0 0.05 0.04 0 0.055 0.04 0 0.06 0.04 0 0.065 0.04 0 0.07 0.04 0 0.075 0.04 0 0.08 0.04 0 0.085 0.04 0 0.09 0.04 0 0.095 0.04 0 0.1 0.04 0 0.105 0.04 0 0.11 0.04 0 0.115 0.04 0 0.12 0.04 0 0.125 0.04 0 0.13 0.04 0 0.135 0.04 0 0.14 0.04 0 0.145 0.04 0 0.15 0.04 0 0.155 0.04 0 0.16 0.04 0 0.165 0.04 0 0.17 0.04 0 0.175 0.04 0 0.18 0.04 0 0.185 0.04 0 0.19 0.04 0 0.195 0.04 0 0.2 0.04 0 0.205 0.04 0 0.21 0.04 0 0.215 0.04 0 0.22 0.04 0 0.225 0.04 0 0.23 0.04 0 0.235 0.04 0 0.24 0.04 0 0.245 0.04 0 0.250001 0.04 0 0.255002 0.04 0 0.260007 0.04 0 0.265017 0.04 0 0.27004 0.04 0 0.275086 0.04 0 0.280169 0.04 0 0.285304 0.04 0 0.290508 0.04 0 0.295795 0.04 0 0.301174 0.04 0 0.306656 0.04 0 0.312247 0.04 0 0.317955 0.04 0 0.323787 0.04 0 0.32975 0.04 0 0.335852 0.04 0 0.3421 0.04 0 0.348503 0.04 0 0.35507 0.04 0 0.361811 0.04 0 0.368736 0.04 0 0.375858 0.04 0 0.383189 0.04 0 0.390743 0.04 0 0.398536 0.04 0 0.406584 0.04 0 0.414906 0.04 0 0.423524 0.04 0 0.43246 0.04 0 0.441739 0.04 0 0.45139 0.04 0 0.461443 0.04 0 0.471927 0.04 0 0.482871 0.04 0 0.494286 0.04 0 0.506138 0.04 0 0.518259 0.04 0 0.530355 0.04 0 0.542363 0.04 0 0.55428 0.04 0 0.566122 0.04 0 0.577914 0.04 0 0.589677 0.04 0 0.601425 0.04 0 0.613167 0.04 0 0.624905 0.04 0 0.636641 0.04 0 0.648378 0.04 0 0.660117 0.04 0 0.67187 0.04 0 0.674482 0.04 0 0.67702 0.04 0 0.679512 0.04 0 0.681972 0.04 0 0.684409 0.04 0 0.686831 0.04 0 0.68924 0.04 0 0.69164 0.04 0 0.694034 0.04 0 0.696422 0.04 0 0.698805 0.04 0 0.701186 0.04 0 0.703563 0.04 0 0.705937 0.04 0 0.708307 0.04 0 0.710675 0.04 0 0.713041 0.04 0 0.715405 0.04 0 0.717767 0.04 0 0.720128 0.04 0 0.722487 0.04 0 0.724846 0.04 0 0.727204 0.04 0 0.729562 0.04 0 0.731919 0.04 0 0.734275 0.04 0 0.736631 0.04 0 0.738987 0.04 0 0.741342 0.04 0 0.743698 0.04 0 0.746053 0.04 0 0.748408 0.04 0 0.750763 0.04 0 0.753117 0.04 0 0.755472 0.04 0 0.757827 0.04 0 0.760181 0.04 0 0.762536 0.04 0 0.76489 0.04 0 0.767245 0.04 0 0.769599 0.04 0 0.771954 0.04 0 0.774308 0.04 0 0.776663 0.04 0 0.779017 0.04 0 0.781372 0.04 0 0.783727 0.04 0 0.786082 0.04 0 0.788437 0.04 0 0.790792 0.04 0 0.793148 0.04 0 0.795506 0.04 0 0.797865 0.04 0 0.800226 0.04 0 0.802594 0.04 0 0.804967 0.04 0 0.807358 0.04 0 0.809764 0.04 0 0.812211 0.04 0 0.814694 0.04 0 0.817262 0.04 0 0.819905 0.04 0 0.822713 0.04 0 0.825701 0.04 0 0.828971 0.04 0 0.832555 0.04 0 0.836497 0.04 0 0.840784 0.04 0 0.845365 0.04 0 0.850153 0.04 0 0.855059 0.04 0 0.860022 0.04 0 0.865008 0.04 0 0.870003 0.04 0 0.875001 0.04 0 0.88 0.04 0 0.885 0.04 0 0.89 0.04 0 0.895 0.04 0 0.9 0.04 0 0.905 0.04 0 0.91 0.04 0 0.915 0.04 0 0.92 0.04 0 0.925 0.04 0 0.93 0.04 0 0.935 0.04 0 0.94 0.04 0 0.945 0.04 0 0.95 0.04 0 0.955 0.04 0 0.96 0.04 0 0.965 0.04 0 0.97 0.04 0 0.975 0.04 0 0.98 0.04 0 0.985 0.04 0 0.99 0.04 0 0.995 0.04 0 1 0.04 0 0 0.06 0 0.005 0.06 0 0.01 0.06 0 0.015 0.06 0 0.02 0.06 0 0.025 0.06 0 0.03 0.06 0 0.035 0.06 0 0.04 0.06 0 0.045 0.06 0 0.05 0.06 0 0.055 0.06 0 0.06 0.06 0 0.065 0.06 0 0.07 0.06 0 0.075 0.06 0 0.08 0.06 0 0.085 0.06 0 0.09 0.06 0 0.095 0.06 0 0.1 0.06 0 0.105 0.06 0 0.11 0.06 0 0.115 0.06 0 0.12 0.06 0 0.125 0.06 0 0.13 0.06 0 0.135 0.06 0 0.14 0.06 0 0.145 0.06 0 0.15 0.06 0 0.155 0.06 0 0.16 0.06 0 0.165 0.06 0 0.17 0.06 0 0.175 0.06 0 0.18 0.06 0 0.185 0.06 0 0.19 0.06 0 0.195 0.06 0 0.2 0.06 0 0.205 0.06 0 0.21 0.06 0 0.215 0.06 0 0.22 0.06 0 0.225 0.06 0 0.23 0.06 0 0.235 0.06 0 0.24 0.06 0 0.245 0.06 0 0.250001 0.06 0 0.255002 0.06 0 0.260007 0.06 0 0.265017 0.06 0 0.27004 0.06 0 0.275086 0.06 0 0.280169 0.06 0 0.285304 0.06 0 0.290508 0.06 0 0.295795 0.06 0 0.301174 0.06 0 0.306656 0.06 0 0.312247 0.06 0 0.317955 0.06 0 0.323787 0.06 0 0.32975 0.06 0 0.335852 0.06 0 0.3421 0.06 0 0.348503 0.06 0 0.35507 0.06 0 0.361811 0.06 0 0.368736 0.06 0 0.375858 0.06 0 0.383189 0.06 0 0.390743 0.06 0 0.398536 0.06 0 0.406584 0.06 0 0.414906 0.06 0 0.423524 0.06 0 0.43246 0.06 0 0.441739 0.06 0 0.45139 0.06 0 0.461443 0.06 0 0.471927 0.06 0 0.482871 0.06 0 0.494286 0.06 0 0.506138 0.06 0 0.518259 0.06 0 0.530355 0.06 0 0.542363 0.06 0 0.55428 0.06 0 0.566122 0.06 0 0.577914 0.06 0 0.589677 0.06 0 0.601425 0.06 0 0.613167 0.06 0 0.624905 0.06 0 0.636641 0.06 0 0.648378 0.06 0 0.660117 0.06 0 0.67187 0.06 0 0.674482 0.06 0 0.67702 0.06 0 0.679512 0.06 0 0.681972 0.06 0 0.684409 0.06 0 0.686831 0.06 0 0.68924 0.06 0 0.69164 0.06 0 0.694034 0.06 0 0.696422 0.06 0 0.698805 0.06 0 0.701186 0.06 0
[...]
			<PointData Scalars="VitesseX">
				<DataArray Name="VitesseX" type="Float32" format="ascii">
 0 3.18562e-15 5.77722e-15 6.97779e-15 5.69812e-15 1.18549e-14 1.06302e-14 6.76246e-15 1.14032e-14 1.09457e-14 7.00441e-15 8.32005e-15 -3.02526e-15 -3.95356e-15 -1.14002e-14 -1.90642e-14 -8.0385e-15 -1.59316e-14 -3.9716e-14 -3.56131e-14 -3.55224e-14 -4.53404e-14 -4.22799e-14 -3.32595e-14 -5.18891e-14 -3.04712e-14 -3.89862e-14 -2.77716e-14 -3.74626e-14 -2.09353e-14 -2.28967e-14 -1.96742e-14 -1.7644e-14 -1.60883e-14 -1.26591e-14 -3.20434e-15 1.10165e-13 6.89284e-13 4.13406e-12 2.46389e-11 1.39128e-10 7.48933e-10 3.82838e-09 1.85519e-08 8.50251e-08 3.67616e-07 1.4952e-06 5.70226e-06 2.03148e-05 6.73122e-05 0.000206381 0.00058207 0.00150025 0.00351055 0.00741776 0.0141206 0.0242797 0.0380197 0.0549162 0.0742668 0.0953997 0.117831 0.14127 0.16556 0.190624 0.216429 0.242966 0.270241 0.298271 0.327081 0.356699 0.387163 0.418512 0.450791 0.484051 0.518343 0.553725 0.590254 0.627986 0.666969 0.707231 0.748756 0.791427 0.834901 0.878279 0.919216 0.951455 0.960151 0.952007 0.944448 0.937817 0.933133 0.930373 0.928934 0.928208 0.927814 0.92758 0.927432 0.927331 0.927257 0.927199 0.927189 0.927178 0.927169 0.927159 0.927149 0.92714 0.927131 0.927121 0.927112 0.927103 0.927094 0.927085 0.927075 0.927066 0.927057 0.927048 0.927038 0.927028 0.927018 0.927008 0.926997 0.926986 0.926974 0.926962 0.926949 0.926936 0.926923 0.926909 0.926896 0.926881 0.926867 0.926852 0.926838 0.926822 0.926807 0.926789 0.926773 0.926752 0.926735 0.926709 0.926692 0.926656 0.92664 0.926586 0.926575 0.926483 0.926481 0.926301 0.926308 0.925902 0.925931 0.924871 0.924967 0.922021 0.92232 0.914171 0.915088 0.894271 0.896982 0.851249 0.857255 0.77189 0.753045 0.636396 0.549452 0.419538 0.29723 0.184019 0.0984044 0.0452162 0.0184865 0.00706623 0.00261897 0.000958536 0.000349039 0.000126801 4.59969e-05 1.66631e-05 6.02749e-06 2.17644e-06 7.84208e-07 2.81845e-07 1.00993e-07 3.60637e-08 1.28272e-08 4.54205e-09 1.60033e-09 5.60808e-10 1.95219e-10 6.7472e-11 2.30937e-11 7.84503e-12 2.55724e-12 8.89937e-13 2.0748e-13 1.11527e-13 1.58999e-14 9.47812e-14 8.36718e-14 0 0 3.26655e-15 5.17651e-15 5.39681e-15 4.38675e-15 1.02759e-14 1.16942e-14 8.43883e-15 1.22177e-14 7.79636e-15 5.63968e-15 6.7076e-15 -2.17885e-15 -1.06003e-14 -1.02293e-14 -1.4253e-14 -1.84482e-14 -1.86418e-14 -2.73807e-14 -3.43616e-14 -4.42712e-14 -3.72722e-14 -4.07205e-14 -4.38791e-14 -4.09114e-14 -4.37788e-14 -2.98101e-14 -3.72975e-14 -2.86156e-14 -2.23836e-14 -3.33488e-14 -1.64999e-14 -2.11097e-14 -1.78948e-14 -6.83541e-15 3.35895e-14 1.23818e-13 7.09935e-13 4.15643e-12 2.46125e-11 1.39189e-10 7.48912e-10 3.82835e-09 1.85519e-08 8.50251e-08 3.67616e-07 1.4952e-06 5.70226e-06 2.03148e-05 6.73122e-05 0.000206381 0.00058207 0.00150025 0.00351055 0.00741776 0.0141206 0.0242797 0.0380197 0.0549162 0.0742668 0.0953997 0.117831 0.14127 0.16556 0.190624 0.216429 0.242966 0.270241 0.298271 0.327081 0.356699 0.387163 0.418512 0.450791 0.484051 0.518343 0.553725 0.590254 0.627986 0.666969 0.707231 0.748756 0.791427 0.834901 0.878279 0.919216 0.951455 0.960151 0.952007 0.944448 0.937817 0.933133 0.930373 0.928934 0.928208 0.927814 0.92758 0.927432 0.927331 0.927257 0.927199 0.927189 0.927178 0.927169 0.927159 0.927149 0.92714 0.927131 0.927121 0.927112 0.927103 0.927094 0.927085 0.927075 0.927066 0.927057 0.927048 0.927038 0.927028 0.927018 0.927008 0.926997 0.926986 0.926974 0.926962 0.926949 0.926936 0.926923 0.926909 0.926896 0.926881 0.926867 0.926852 0.926838 0.926822 0.926807 0.926789 0.926773 0.926752 0.926735 0.926709 0.926692 0.926656 0.92664 0.926586 0.926575 0.926483 0.926481 0.926301 0.926308 0.925902 0.925931 0.924871 0.924967 0.922021 0.92232 0.914171 0.915088 0.894271 0.896982 0.851249 0.857255 0.77189 0.753045 0.636396 0.549452 0.419538 0.29723 0.184019 0.0984044 0.0452162 0.0184865 0.00706623 0.00261897 0.000958536 0.000349039 0.000126801 4.59969e-05 1.66631e-05 6.02749e-06 2.17644e-06 7.84208e-07 2.81845e-07 1.00993e-07 3.60637e-08 1.28272e-08 4.5421e-09 1.60033e-09 5.60751e-10 1.95223e-10 6.75552e-11 2.30557e-11 7.81645e-12 2.58786e-12 7.23554e-13 2.35416e-13 -2.02696e-15 9.10411e-14 6.94852e-14 -5.51063e-15 0 0 1.52663e-15 1.55576e-15 2.90074e-15 4.21461e-15 5.87421e-15 8.04006e-15 1.92938e-14 5.7575e-15 6.97419e-15 5.10505e-15 2.58756e-15 -2.48604e-16 -7.11506e-15 -1.66907e-14 -1.77363e-14 -1.9911e-14 -2.35551e-14 -4.17133e-14 -3.58416e-14 -3.99101e-14 -3.70351e-14 -4.43856e-14 -3.63774e-14 -4.24531e-14 -4.76246e-14 -3.07067e-14 -4.24507e-14 -9.45432e-15 -1.81018e-14 -1.97363e-14 -2.21005e-14 -2.35507e-14 2.66636e-15 -7.50028e-15 5.2034e-14 1.61326e-13 7.40822e-13 4.2051e-12 2.46053e-11 1.3922e-10 7.4893e-10 3.82839e-09 1.85519e-08 8.5025e-08 3.67616e-07 1.4952e-06 5.70226e-06 2.03148e-05 6.73122e-05 0.000206381 0.00058207 0.00150025 0.00351055 0.00741776 0.0141206 0.0242797 0.0380197 0.0549162 0.0742668 0.0953997 0.117831 0.14127 0.16556 0.190624 0.216429 0.242966 0.270241 0.298271 0.327081 0.356699 0.387163 0.418512 0.450791 0.484051 0.518343 0.553725 0.590254 0.627986 0.666969 0.707231 0.748756 0.791427 0.834901 0.878279 0.919216 0.951455 0.960151 0.952007 0.944448 0.937817 0.933133 0.930373 0.928934 0.928208 0.927814 0.92758 0.927432 0.927331 0.927257 0.927199 0.927189 0.927178 0.927169 0.927159 0.927149 0.92714 0.927131 0.927121 0.927112 0.927103 0.927094 0.927085 0.927075 0.927066 0.927057 0.927048 0.927038 0.927028 0.927018 0.927008 0.926997 0.926986 0.926974 0.926962 0.926949 0.926936 0.926923 0.926909 0.926896 0.926881 0.926867 0.926852 0.926838 0.926822 0.926807 0.926789 0.926773 0.926752 0.926735 0.926709 0.926692 0.926656 0.92664 0.926586 0.926575 0.926483 0.926481 0.926301 0.926308 0.925902 0.925931 0.924871 0.924967 0.922021 0.92232 0.914171 0.915088 0.894271 0.896982 0.851249 0.857255 0.77189 0.753045 0.636396 0.549452 0.419538 0.29723 0.184019 0.0984044 0.0452162 0.0184865 0.00706623 0.00261897 0.000958536 0.000349039 0.000126801 4.59969e-05 1.66631e-05 6.02749e-06 2.17644e-06 7.84208e-07 2.81845e-07 1.00993e-07 3.60637e-08 1.28272e-08 4.54209e-09 1.60034e-09 5.60613e-10 1.95309e-10 6.74772e-11 2.31463e-11 7.70799e-12 2.54521e-12 6.66367e-13 1.16493e-13 7.88645e-15 9.72744e-14 -1.04429e-13 -6.77653e-14 0 0 -7.75109e-16 3.19425e-16 1.43268e-15 2.82942e-15 3.47054e-15 3.55989e-15 1.5467e-14 7.30649e-15 6.19301e-15 4.41357e-15 5.71258e-15 -5.90257e-15 -5.15933e-15 -2.10762e-14 -9.58591e-15 -2.5376e-14 -3.25746e-14 -5.99621e-14 -3.6086e-14 -4.7797e-14 -2.07869e-14 -4.62343e-14 -8.83641e-15 -7.00118e-14 -4.30467e-14 -3.29198e-14 -2.78065e-14 -1.82914e-14 -1.68124e-14 -3.91537e-15 -1.28718e-14 -1.43075e-14 -8.99895e-17 -1.51105e-14 8.98056e-14 2.09758e-13 7.62381e-13 4.23477e-12 2.4649e-11 1.39209e-10 7.48947e-10 3.82841e-09 1.85519e-08 8.5025e-08 3.67616e-07 1.4952e-06 5.70226e-06 2.03148e-05 6.73122e-05 0.000206381 0.00058207 0.00150025 0.00351055 0.00741776 0.0141206 0.0242797 0.0380197 0.0549162 0.0742668 0.0953997 0.117831 0.14127 0.16556 0.190624 0.216429 0.242966 0.270241 0.298271 0.327081 0.356699 0.387163 0.418512 0.450791 0.484051 0.518343 0.553725 0.590254 0.627986 0.666969 0.707231 0.748756 0.791427 0.834901 0.878279 0.919216 0.951455 0.960151 0.952007 0.944448 0.937817 0.933133 0.930373 0.928934 0.928208 0.927814 0.92758 0.927432 0.927331 0.927257 0.927199 0.927189 0.927178 0.927169 0.927159 0.927149 0.92714 0.927131 0.927121 0.927112 0.927103 0.927094 0.927085 0.927075 0.927066 0.927057 0.927048 0.927038 0.927028 0.927018 0.927008 0.926997 0.926986 0.926974 0.926962 0.926949 0.926936 0.926923 0.926909 0.926896 0.926881 0.926867 0.926852 0.926838 0.926822 0.926807 0.926789 0.926773 0.926752 0.926735 0.926709 0.926692 0.926656 0.92664 0.926586 0.926575 0.926483 0.926481 0.926301 0.926308 0.925902 0.925931 0.924871 0.924967 0.922021 0.92232 0.914171 0.915088 0.894271 0.896982 0.851249 0.857255 0.77189 0.753045 0.636396 0.549452 0.419538 0.29723 0.184019 0.0984044 0.0452162 0.0184865 0.00706623 0.00261897 0.000958536 0.000349039 0.000126801 4.59969e-05 1.66631e-05 6.02749e-06 2.17644e-06 7.84208e-07 2.81845e-07 1.00993e-07 3.60637e-08 1.28273e-08 4.54194e-09 1.60032e-09 5.60649e-10 1.95144e-10 6.74314e-11 2.31049e-11 7.78851e-12 2.3388e-12 6.88119e-13 1.1478e-13 7.68603e-14 4.84713e-14 -1.30473e-13 1.25704e-14 0 0 -2.34264e-16 1.87608e-15 1.89441e-15 8.5315e-17 2.66748e-15 7.35778e-15 -4.64702e-16 1.1838e-14 -4.46952e-15 -1.07763e-16 2.63485e-15 -4.02597e-15 -2.01267e-14 -1.92844e-14 -1.39935e-14 -2.85535e-14 -3.70351e-14 -4.83762e-14 -4.59836e-14 -6.4198e-14 -1.59041e-14 -2.34199e-14 -4.73764e-15 -4.46988e-14 -3.17303e-14 -3.11017e-14 -2.66205e-14 -3.96251e-14 -6.33352e-15 -3.11199e-14 -4.15095e-15 -7.56282e-15 -2.25382e-14 3.45849e-15 1.1276e-13 2.29881e-13 8.06816e-13 4.25588e-12 2.46469e-11 1.39236e-10 7.48919e-10 3.82839e-09 1.85519e-08 8.5025e-08 3.67616e-07 1.4952e-06 5.70226e-06 2.03148e-05 6.73122e-05 0.000206381 0.00058207 0.00150025 0.00351055 0.00741776 0.0141206 0.0242797 0.0380197 0.0549162 0.0742668 0.0953997 0.117831 0.14127 0.16556 0.190624 0.216429 0.242966 0.270241 0.298271 0.327081 0.356699 0.387163 0.418512 0.450791 0.484051 0.518343 0.553725 0.590254 0.627986 0.666969 0.707231 0.748756 0.791427 0.834901 0.878279 0.919216 0.951455 0.960151 0.952007 0.944448 0.937817 0.933133 0.930373 0.928934 0.928208 0.927814 0.92758 0.927432 0.927331 0.927257 0.927199 0.927189 0.927178 0.927169 0.927159 0.927149 0.92714 0.927131 0.927121 0.927112 0.927103 0.927094 0.927085 0.927075 0.927066 0.927057 0.927048 0.927038 0.927028 0.927018 0.927008 0.926997 0.926986 0.926974 0.926962 0.926949 0.926936 0.926923 0.926909 0.926896 0.926881 0.926867 0.926852 0.926838 0.926822 0.926807 0.926789 0.926773 0.926752 0.926735 0.926709 0.926692 0.926656 0.92664 0.926586 0.926575 0.926483 0.926481 0.926301 0.926308 0.925902 0.925931 0.924871 0.924967 0.922021 0.92232 0.914171 0.915088 0.894271 0.896982 0.851249 0.857255 0.77189 0.753045 0.636396 0.549452 0.419538 0.29723 0.184019 0.0984044 0.0452162 0.0184865 0.00706623 0.00261897 0.000958536 0.000349039 0.000126801 4.59969e-05 1.66631e-05 6.02749e-06 2.17644e-06 7.84208e-07 2.81845e-07 1.00993e-07 3.60636e-08 1.28272e-08 4.54198e-09 1.60019e-09 5.60605e-10 1.95104e-10 6.73866e-11 2.29296e-11 7.76892e-12 2.42802e-12 6.42453e-13 2.77789e-13 4.78038e-14 4.93466e-14 2.2387e-14 6.53777e-14 0 0 7.87485e-16 1.64904e-15 2.90909e-15 -1.34374e-16 1.44544e-15 1.09177e-14 -3.39098e-15 7.54586e-15 -1.20237e-14 -3.10751e-15 -6.0755e-15 4.58844e-15 -2.69178e-14 -2.07392e-14 -3.48459e-14 -1.73191e-14 -3.46792e-14 -4.52092e-14 -5.83685e-14 -5.96022e-14 -3.51006e-14 -3.98132e-15 -1.00586e-14 -4.3466e-15 -1.55298e-14 -3.71431e-14 -3.57061e-14 -4.18075e-14 8.58602e-15 -5.00809e-14 -1.34337e-14 -9.03663e-15 -1.98622e-14 2.31492e-14 7.95925e-14 2.25425e-13 8.3993e-13 4.27361e-12 2.46203e-11 1.39246e-10 7.48912e-10 3.82842e-09 1.85519e-08 8.5025e-08 3.67616e-07 1.4952e-06 5.70226e-06 2.03148e-05 6.73122e-05 0.000206381 0.00058207 0.00150025 0.00351055 0.00741776 0.0141206 0.0242797 0.0380197 0.0549162 0.0742668 0.0953997 0.117831 0.14127 0.16556 0.190624 0.216429 0.242966 0.270241 0.298271 0.327081 0.356699 0.387163 0.418512 0.450791 0.484051 0.518343 0.553725 0.590254 0.627986 0.666969 0.707231 0.748756 0.791427 0.834901 0.878279 0.919216 0.951455 0.960151 0.952007 0.944448 0.937817 0.933133 0.930373 0.928934 0.928208 0.927814 0.92758 0.927432 0.927331 0.927257 0.927199 0.927189 0.927178 0.927169 0.927159 0.927149 0.92714 0.927131 0.927121 0.927112 0.927103 0.927094 0.927085 0.927075 0.927066 0.927057 0.927048 0.927038 0.927028 0.927018 0.927008 0.926997 0.926986 0.926974 0.926962 0.926949 0.926936 0.926923 0.926909 0.926896 0.926881 0.926867 0.926852 0.926838 0.926822 0.926807 0.926789 0.926773 0.926752 0.926735 0.926709 0.926692 0.926656 0.92664 0.926586 0.926575 0.926483 0.926481 0.926301 0.926308 0.925902 0.925931 0.924871 0.924967 0.922021 0.92232 0.914171 0.915088 0.894271 0.896982 0.851249 0.857255 0.77189 0.753045 0.636396 0.549452 0.419538 0.29723 0.184019 0.0984044 0.0452162 0.0184865 0.00706623 0.00261897 0.000958536 0.000349039 0.000126801 4.59969e-05 1.66631e-05 6.02749e-06 2.17644e-06 7.84208e-07 2.81845e-07 1.00993e-07 3.60635e-08 1.28271e-08 4.54212e-09 1.60008e-09 5.60444e-10 1.95312e-10 6.72265e-11 2.29249e-11 7.58942e-12 2.65044e-12 6.83798e-13 2.95065e-13 7.29378e-14 3.00402e-14 5.26039e-14 6.48478e-14 0
				</DataArray>
				<DataArray Name="VitesseY" type="Float32" format="ascii">