<?xml version="1.0"?>
<VTKFile type="PolyData">
	<PolyData>
		<Piece NumberOfPoints="1206" NumberOfPolys="1000">
			<Points>
				<DataArray type="Float32" NumberOfComponents="3" format="ascii">
 0 0 0 0.005 0 0 0.01 0 0 0.015 0 0 0.02 0 0 0.025 0 0 0.03 0 0 0.035 0 0 0.04 0 0 0.045 0 0 0.05 0 0 0.055 0 0 0.06 0 0 0.065 0 0 0.07 0 0 0.075 0 0 0.08 0 0 0.085 0 0 0.09 0 0 0.095 0 0 0.1 0 0 0.105 0 0 0.11 0 0 0.115 0 0 0.12 0 0 0.125 0 0 0.13 0 0 0.135 0 0 0.14 0 0 0.145 0 0 0.15 0 0 0.155 0 0 0.16 0 0 0.165 0 0 0.17 0 0 0.175 0 0 0.18 0 0 0.185 0 0 0.19 0 0 0.195 0 0 0.2 0 0 0.205 0 0 0.21 0 0 0.215 0 0 0.22 0 0 0.225 0 0 0.23 0 0 0.235 0 0 0.24 0 0 0.245 0 0 0.25 0 0 0.255 0 0 0.26 0 0 0.265 0 0 0.27 0 0 0.275 0 0 0.28 0 0 0.285 0 0 0.29 0 0 0.295 0 0 0.3 0 0 0.305 0 0 0.31 0 0 0.315 0 0 0.32 0 0 0.325 0 0 0.33 0 0 0.335 0 0 0.34 0 0 0.345 0 0 0.35 0 0 0.355 0 0 0.36 0 0 0.365 0 0 0.37 0 0 0.375 0 0 0.380001 0 0 0.385004 0 0 0.390015 0 0 0.395049 0 0 0.400132 0 0 0.405309 0 0 0.410631 0 0 0.416147 0 0 0.421902 0 0 0.427936 0 0 0.43429 0 0 0.441008 0 0 0.448143 0 0 0.455759 0 0 0.463931 0 0 0.472752 0 0 0.482335 0 0 0.492799 0 0 0.504229 0 0 0.516447 0 0 0.528706 0 0 0.540734 0 0 0.552593 0 0 0.564382 0 0 0.576174 0 0 0.578793 0 0 0.581338 0 0 0.583835 0 0 0.586301 0 0 0.588744 0 0 0.591171 0 0 0.593586 0 0 0.595992 0 0 0.598391 0 0 0.600784 0 0 0.603173 0 0 0.605559 0 0 0.607942 0 0 0.610322 0 0 0.612699 0 0 0.615074 0 0 0.617449 0 0 0.619825 0 0 0.622204 0 0 0.624588 0 0 0.626988 0 0 0.629403 0 0 0.631859 0 0 0.634352 0 0 0.636932 0 0 0.639589 0 0 0.642417 0 0 0.645431 0 0 0.648735 0 0 0.652363 0 0 0.656352 0 0 0.660687 0 0 0.665307 0 0 0.670122 0 0 0.675045 0 0 0.680016 0 0 0.685005 0 0 0.690002 0 0 0.695001 0 0 0.7 0 0 0.705 0 0 0.71 0 0 0.715 0 0 0.72 0 0 0.725 0 0 0.73 0 0 0.735 0 0 0.74 0 0 0.745 0 0 0.75 0 0 0.755 0 0 0.76 0 0 0.765 0 0 0.77 0 0 0.775 0 0 0.78 0 0 0.785 0 0 0.79 0 0 0.795 0 0 0.8 0 0 0.805 0 0 0.81 0 0 0.815 0 0 0.82 0 0 0.825 0 0 0.83 0 0 0.835 0 0 0.84 0 0 0.845 0 0 0.85 0 0 0.855 0 0 0.86 0 0 0.865 0 0 0.87 0 0 0.875 0 0 0.88 0 0 0.885 0 0 0.89 0 0 0.895 0 0 0.9 0 0 0.905 0 0 0.91 0 0 0.915 0 0 0.92 0 0 0.925 0 0 0.93 0 0 0.935 0 0 0.94 0 0 0.945 0 0 0.95 0 0 0.955 0 0 0.96 0 0 0.965 0 0 0.97 0 0 0.975 0 0 0.98 0 0 0.985 0 0 0.99 0 0 0.995 0 0 1 0 0 0 0.02 0 0.005 0.02 0 0.01 0.02 0 0.015 0.02 0 0.02 0.02 0 0.025 0.02 0 0.03 0.02 0 0.035 0.02 0 0.04 0.02 0 0.045 0.02 0 0.05 0.02 0 0.055 0.02 0 0.06 0.02 0 0.065 0.02 0 0.07 0.02 0 0.075 0.02 0 0.08 0.02 0 0.085 0.02 0 0.09 0.02 0 0.095 0.02 0 0.1 0.02 0 0.105 0.02 0 0.11 0.02 0 0.115 0.02 0 0.12 0.02 0 0.125 0.02 0 0.13 0.02 0 0.135 0.02 0 0.14 0.02 0 0.145 0.02 0 0.15 0.02 0 0.155 0.02 0 0.16 0.02 0 0.165 0.02 0 0.17 0.02 0 0.175 0.02 0 0.18 0.02 0 0.185 0.02 0 0.19 0.02 0 0.195 0.02 0 0.2 0.02 0 0.205 0.02 0 0.21 0.02 0 0.215 0.02 0 0.22 0.02 0 0.225 0.02 0 0.23 0.02 0 0.235 0.02 0 0.24 0.02 0 0.245 0.02 0 0.25 0.02 0 0.255 0.02 0 0.26 0.02 0 0.265 0.02 0 0.27 0.02 0 0.275 0.02 0 0.28 0.02 0 0.285 0.02 0 0.29 0.02 0 0.295 0.02 0 0.3 0.02 0 0.305 0.02 0 0.31 0.02 0 0.315 0.02 0 0.32 0.02 0 0.325 0.02 0 0.33 0.02 0 0.335 0.02 0 0.34 0.02 0 0.345 0.02 0 0.35 0.02 0 0.355 0.02 0 0.36 0.02 0 0.365 0.02 0 0.37 0.02 0 0.375 0.02 0 0.380001 0.02 0 0.385004 0.02 0 0.390015 0.02 0 0.395049 0.02 0 0.400132 0.02 0 0.405309 0.02 0 0.410631 0.02 0 0.416147 0.02 0 0.421902 0.02 0 0.427936 0.02 0 0.43429 0.02 0 0.441008 0.02 0 0.448143 0.02 0 0.455759 0.02 0 0.463931 0.02 0 0.472752 0.02 0 0.482335 0.02 0 0.492799 0.02 0 0.504229 0.02 0 0.516447 0.02 0 0.528706 0.02 0 0.540734 0.02 0 0.552593 0.02 0 0.564382 0.02 0 0.576174 0.02 0 0.578793 0.02 0 0.581338 0.02 0 0.583835 0.02 0 0.586301 0.02 0 0.588744 0.02 0 0.591171 0.02 0 0.593586 0.02 0 0.595992 0.02 0 0.598391 0.02 0 0.600784 0.02 0 0.603173 0.02 0 0.605559 0.02 0 0.607942 0.02 0 0.610322 0.02 0 0.612699 0.02 0 0.615074 0.02 0 0.617449 0.02 0 0.619825 0.02 0 0.622204 0.02 0 0.624588 0.02 0 0.626988 0.02 0 0.629403 0.02 0 0.631859 0.02 0 0.634352 0.02 0 0.636932 0.02 0 0.639589 0.02 0 0.642417 0.02 0 0.645431 0.02 0 0.648735 0.02 0 0.652363 0.02 0 0.656352 0.02 0 0.660687 0.02 0 0.665307 0.02 0 0.670122 0.02 0 0.675045 0.02 0 0.680016 0.02 0 0.685005 0.02 0 0.690002 0.02 0 0.695001 0.02 0 0.7 0.02 0 0.705 0.02 0 0.71 0.02 0 0.715 0.02 0 0.72 0.02 0 0.725 0.02 0 0.73 0.02 0 0.735 0.02 0 0.74 0.02 0 0.745 0.02 0 0.75 0.02 0 0.755 0.02 0 0.76 0.02 0 0.765 0.02 0 0.77 0.02 0 0.775 0.02 0 0.78 0.02 0 0.785 0.02 0 0.79 0.02 0 0.795 0.02 0 0.8 0.02 0 0.805 0.02 0 0.81 0.02 0 0.815 0.02 0 0.82 0.02 0 0.825 0.02 0 0.83 0.02 0 0.835 0.02 0 0.84 0.02 0 0.845 0.02 0 0.85 0.02 0 0.855 0.02 0 0.86 0.02 0 0.865 0.02 0 0.87 0.02 0 0.875 0.02 0 0.88 0.02 0 0.885 0.02 0 0.89 0.02 0 0.895 0.02 0 0.9 0.02 0 0.905 0.02 0 0.91 0.02 0 0.915 0.02 0 0.92 0.02 0 0.925 0.02 0 0.93 0.02 0 0.935 0.02 0 0.94 0.02 0 0.945 0.02 0 0.95 0.02 0 0.955 0.02 0 0.96 0.02 0 0.965 0.02 0 0.97 0.02 0 0.975 0.02 0 0.98 0.02 0 0.985 0.02 0 0.99 0.02 0 0.995 0.02 0 1 0.02 0 0 0.04 0 0.005 0.04 0 0.01 0.04 0 0.015 0.04 0 0.02 0.04 0 0.025 0.04 0 0.03 0.04 0 0.035 0.04 0 0.04 0.04 0 0.045 0.04 0 0.05 0.04 0 0.055 0.04 0 0.06 0.04 0 0.065 0.04 0 0.07 0.04 0 0.075 0.04 0 0.08 0.04 0 0.085 0.04 0 0.09 0.04 0 0.095 0.04 0 0.1 0.04 0 0.105 0.04 0 0.11 0.04 0 0.115 0.04 0 0.12 0.04 0 0.125 0.04 0 0.13 0.04 0 0.135 0.04 0 0.14 0.04 0 0.145 0.04 0 0.15 0.04 0 0.155 0.04 0 0.16 0.04 0 0.165 0.04 0 0.17 0.04 0 0.175 0.04 0 0.18 0.04 0 0.185 0.04 0 0.19 0.04 0 0.195 0.04 0 0.2 0.04 0 0.205 0.04 0 0.21 0.04 0 0.215 0.04 0 0.22 0.04 0 0.225 0.04 0 0.23 0.04 0 0.235 0.04 0 0.24 0.04 0 0.245 0.04 0 0.25 0.04 0 0.255 0.04 0 0.26 0.04 0 0.265 0.04 0 0.27 0.04 0 0.275 0.04 0 0.28 0.04 0 0.285 0.04 0 0.29 0.04 0 0.295 0.04 0 0.3 0.04 0 0.305 0.04 0 0.31 0.04 0 0.315 0.04 0 0.32 0.04 0 0.325 0.04 0 0.33 0.04 0 0.335 0.04 0 0.34 0.04 0 0.345 0.04 0 0.35 0.04 0 0.355 0.04 0 0.36 0.04 0 0.365 0.04 0 0.37 0.04 0 0.375 0.04 0 0.380001 0.04 0 0.385004 0.04 0 0.390015 0.04 0 0.395049 0.04 0 0.400132 0.04 0 0.405309 0.04 0 0.410631 0.04 0 0.416147 0.04 0 0.421902 0.04 0 0.427936 0.04 0 0.43429 0.04 0 0.441008 0.04 0 0.448143 0.04 0 0.455759 0.04 0 0.463931 0.04 0 0.472752 0.04 0 0.482335 0.04 0 0.492799 0.04 0 0.504229 0.04 0 0.516447 0.04 0 0.528706 0.04 0 0.540734 0.04 0 0.552593 0.04 0 0.564382 0.04 0 0.576174 0.04 0 0.578793 0.04 0 0.581338 0.04 0 0.583835 0.04 0 0.586301 0.04 0 0.588744 0.04 0 0.591171 0.04 0 0.593586 0.04 0 0.595992 0.04 0 0.598391 0.04 0 0.600784 0.04 0 0.603173 0.04 0 0.605559 0.04 0 0.607942 0.04 0 0.610322 0.04 0 0.612699 0.04 0 0.615074 0.04 0 0.617449 0.04 0 0.619825 0.04 0 0.622204 0.04 0 0.624588 0.04 0 0.626988 0.04 0 0.629403 0.04 0 0.631859 0.04 0 0.634352 0.04 0 0.636932 0.04 0 0.639589 0.04 0 0.642417 0.04 0 0.645431 0.04 0 0.648735 0.04 0 0.652363 0.04 0 0.656352 0.04 0 0.660687 0.04 0 0.665307 0.04 0 0.670122 0.04 0 0.675045 0.04 0 0.680016 0.04 0 0.685005 0.04 0 0.690002 0.04 0 0.695001 0.04 0 0.7 0.04 0 0.705 0.04 0 0.71 0.04 0 0.715 0.04 0 0.72 0.04 0 0.725 0.04 0 0.73 0.04 0 0.735 0.04 0 0.74 0.04 0 0.745 0.04 0 0.75 0.04 0 0.755 0.04 0 0.76 0.04 0 0.765 0.04 0 0.77 0.04 0 0.775 0.04 0 0.78 0.04 0 0.785 0.04 0 0.79 0.04 0 0.795 0.04 0 0.8 0.04 0 0.805 0.04 0 0.81 0.04 0 0.815 0.04 0 0.82 0.04 0 0.825 0.04 0 0.83 0.04 0 0.835 0.04 0 0.84 0.04 0 0.845 0.04 0 0.85 0.04 0 0.855 0.04 0 0.86 0.04 0 0.865 0.04 0 0.87 0.04 0 0.875 0.04 0 0.88 0.04 0 0.885 0.04 0 0.89 0.04 0 0.895 0.04 0 0.9 0.04 0 0.905 0.04 0 0.91 0.04 0 0.915 0.04 0 0.92 0.04 0 0.925 0.04 0 0.93 0.04 0 0.935 0.04 0 0.94 0.04 0 0.945 0.04 0 0.95 0.04 0 0.955 0.04 0 0.96 0.04 0 0.965 0.04 0 0.97 0.04 0 0.975 0.04 0 0.98 0.04 0 0.985 0.04 0 0.99 0.04 0 0.995 0.04 0 1 0.04 0 0 0.06 0 0.005 0.06 0 0.01 0.06 0 0.015 0.06 0 0.02 0.06 0 0.025 0.06 0 0.03 0.06 0 0.035 0.06 0 0.04 0.06 0 0.045 0.06 0 0.05 0.06 0 0.055 0.06 0 0.06 0.06 0 0.065 0.06 0 0.07 0.06 0 0.075 0.06 0 0.08 0.06 0 0.085 0.06 0 0.09 0.06 0 0.095 0.06 0 0.1 0.06 0 0.105 0.06 0 0.11 0.06 0 0.115 0.06 0 0.12 0.06 0 0.125 0.06 0 0.13 0.06 0 0.135 0.06 0 0.14 0.06 0 0.145 0.06 0 0.15 0.06 0 0.155 0.06 0 0.16 0.06 0 0.165 0.06 0 0.17 0.06 0 0.175 0.06 0 0.18 0.06 0 0.185 0.06 0 0.19 0.06 0 0.195 0.06 0 0.2 0.06 0 0.205 0.06 0 0.21 0.06 0 0.215 0.06 0 0.22 0.06 0 0.225 0.06 0 0.23 0.06 0 0.235 0.06 0 0.24 0.06 0 0.245 0.06 0 0.25 0.06 0 0.255 0.06 0 0.26 0.06 0 0.265 0.06 0 0.27 0.06 0 0.275 0.06 0 0.28 0.06 0 0.285 0.06 0 0.29 0.06 0 0.295 0.06 0 0.3 0.06 0 0.305 0.06 0 0.31 0.06 0 0.315 0.06 0 0.32 0.06 0 0.325 0.06 0 0.33 0.06 0 0.335 0.06 0 0.34 0.06 0 0.345 0.06 0 0.35 0.06 0 0.355 0.06 0 0.36 0.06 0 0.365 0.06 0 0.37 0.06 0 0.375 0.06 0 0.380001 0.06 0 0.385004 0.06 0 0.390015 0.06 0 0.395049 0.06 0 0.400132 0.06 0 0.405309 0.06 0 0.410631 0.06 0 0.416147 0.06 0 0.421902 0.06 0 0.427936 0.06 0 0.43429 0.06 0 0.441008 0.06 0 0.448143 0.06 0 0.455759 0.06 0 0.463931 0.06 0 0.472752 0.06 0 0.482335 0.06 0 0.492799 0.06 0 0.504229 0.06 0 0.516447 0.06 0 0.528706 0.06 0 0.540734 0.06 0 0.552593 0.06 0 0.564382 0.06 0 0.576174 0.06 0 0.578793 0.06 0 0.581338 0.06 0 0.583835 0.06 0 0.586301 0.06 0 0.588744 0.06 0 0.591171 0.06 0 0.593586 0.06 0 0.595992 0.06 0 0.598391 0.06 0 0.600784 0.06 0 0.603173 0.06 0 0.605559 0.06 0 0.607942 0.06 0 0.610322 0.06 0 0.612699 0.06 0 0.615074 0.06 0 0.617449 0.06 0 0.619825 0.06 0 0.622204 0.06 0 0.624588 0.06 0 0.626988 0.06 0 0.629403 0.06 0 0.631859 0.06 0 0.634352 0.06 0 0.636932 0.06 0 0.639589 0.06 0 0.642417 0.06 0 0.645431 0.06 0 0.648735 0.06 0 0.652363 0.06 0 0.656352 0.06 0 0.660687 0.06 0 0.665307 0.06 0 0.670122 0.06 0 0.675045 0.06 0 0.680016 0.06 0 0.685005 0.06 0 0.690002 0.06 0 0.695001 0.06 0 0.7 0.06 0 0.705 0.06 0 0.71 0.06 0 0.715 0.06 0 0.72 0.06 0 0.725 0.06 0 0.73 0.06 0 0.735 0.06 0 0.74 0.06 0 0.745 0.06 0 0.75 0.06 0 0.755 0.06 0 0.76 0.06 0 0.765 0.06 0 0.77 0.06 0 0.775 0.06 0 0.78 0.06 0 0.785 0.06 0 0.79 0.06 0 0.795 0.06 0 0.8 0.06 0 0.805 0.06 0
[...]
			<PointData Scalars="VitesseX">
				<DataArray Name="VitesseX" type="Float32" format="ascii">
 0 -9.18478e-16 -1.39487e-15 4.69845e-16 1.60442e-15 8.14138e-16 6.84163e-16 -3.90474e-15 1.97084e-15 -4.59613e-15 -8.82427e-15 -8.18213e-15 -1.1736e-14 -9.29079e-15 -1.55249e-14 -1.28063e-14 -1.11948e-14 -1.35527e-14 -8.29225e-15 -1.50799e-14 -1.84207e-14 -1.46369e-14 -8.70222e-15 -1.37261e-14 -2.08189e-14 -1.32904e-14 -1.82227e-14 -2.19511e-14 -2.42234e-14 -1.77253e-14 -2.6974e-14 -1.38998e-14 -2.72568e-14 -1.851e-14 -1.59478e-14 -2.68142e-14 3.26406e-15 -2.24505e-14 1.50187e-14 -1.35685e-14 -4.07827e-15 9.94734e-15 2.03021e-14 -1.77245e-14 1.46627e-14 -1.8697e-14 -1.43878e-14 -3.07448e-15 -2.25684e-14 -1.83485e-14 2.04232e-14 -4.68091e-14 -8.52777e-15 -3.36203e-14 -2.5382e-14 -1.69898e-14 -3.79177e-14 -2.64215e-14 -2.90203e-14 -9.46887e-15 -1.66127e-14 -3.74173e-14 -3.35907e-14 1.48585e-14 -3.20847e-14 1.59941e-13 1.09651e-12 1.18749e-11 1.15546e-10 1.04168e-09 8.62702e-09 6.53761e-08 4.50928e-07 2.8136e-06 1.5766e-05 7.86428e-05 0.000345451 0.00131893 0.0043124 0.0119079 0.0275705 0.0538613 0.0907493 0.13612 0.187664 0.243966 0.304474 0.369134 0.438153 0.511865 0.590647 0.674751 0.763824 0.855309 0.938576 0.975351 0.954054 0.939145 0.931398 0.929606 0.928973 0.928689 0.9284 0.928108 0.927811 0.927523 0.927233 0.926977 0.926711 0.926517 0.92627 0.926154 0.925862 0.925822 0.92532 0.92533 0.924207 0.924286 0.921338 0.921623 0.913469 0.914393 0.893205 0.895998 0.848934 0.855176 0.767202 0.747484 0.627579 0.537785 0.405535 0.282155 0.170217 0.0878826 0.0386934 0.0150875 0.00547064 0.00190613 0.000647705 0.000215735 7.05192e-05 2.26194e-05 7.11587e-06 2.19442e-06 6.63052e-07 1.96211e-07 5.68439e-08 1.61168e-08 4.4706e-09 1.21298e-09 3.21764e-10 8.33588e-11 2.10338e-11 5.1515e-12 1.23604e-12 1.55722e-13 4.38623e-15 2.96698e-14 -8.64917e-14 3.46084e-14 3.57518e-14 5.69193e-14 -1.94861e-14 -9.51905e-14 -1.2585e-13 1.00102e-13 -1.03579e-13 5.00883e-14 -2.03616e-14 -4.89018e-14 4.75956e-14 -1.06777e-13 -1.85098e-14 -4.55397e-14 1.05897e-13 -1.74658e-14 7.59912e-14 -6.17128e-14 8.07551e-14 1.31173e-14 -9.16767e-14 9.40816e-14 7.97838e-15 5.74e-14 -1.2998e-14 -3.403e-15 1.33815e-13 -3.03181e-14 1.52494e-13 1.03575e-13 -9.82609e-14 2.66574e-14 9.51528e-14 8.81325e-14 6.16445e-14 1.29356e-14 5.52551e-14 3.02013e-14 5.72516e-14 6.45057e-14 0 0 4.44947e-16 -1.01514e-15 2.91796e-16 -1.39592e-15 -1.0502e-15 1.74778e-16 -3.01738e-15 1.08139e-15 -7.47629e-15 -5.0504e-15 -8.2041e-15 -1.72615e-14 -1.06103e-14 -1.52836e-14 -1.21473e-14 -2.1947e-14 -1.64212e-14 -6.8469e-15 -1.36793e-14 -9.78519e-15 -1.84957e-14 -1.68693e-14 -1.15312e-14 -1.67007e-14 -1.56948e-14 -2.29846e-14 -1.89936e-14 -1.49334e-14 -2.23737e-14 -2.48978e-14 -2.54795e-14 -2.19399e-14 -8.4305e-15 -2.29229e-14 3.89022e-15 -2.29758e-14 -1.02675e-14 1.0115e-15 -1.18293e-15 -3.95384e-15 1.07989e-14 2.84322e-15 1.90858e-14 -1.00125e-14 -1.8056e-14 -2.34044e-14 -2.14439e-14 -3.26832e-15 -2.73079e-14 -2.25596e-14 -5.47398e-14 -2.3469e-14 1.78112e-15 -4.35801e-14 9.30207e-15 -3.38979e-14 -2.46761e-14 -5.68725e-15 -2.08234e-14 -2.80475e-14 -5.81914e-15 -1.96265e-14 -1.06245e-14 -4.98201e-15 1.47319e-13 1.15476e-12 1.18228e-11 1.15619e-10 1.04163e-09 8.62705e-09 6.53761e-08 4.50928e-07 2.8136e-06 1.5766e-05 7.86428e-05 0.000345451 0.00131893 0.0043124 0.0119079 0.0275705 0.0538613 0.0907493 0.13612 0.187664 0.243966 0.304474 0.369134 0.438153 0.511865 0.590647 0.674751 0.763824 0.855309 0.938576 0.975351 0.954054 0.939145 0.931398 0.929606 0.928973 0.928689 0.9284 0.928108 0.927811 0.927523 0.927233 0.926977 0.926711 0.926517 0.92627 0.926154 0.925862 0.925822 0.92532 0.92533 0.924207 0.924286 0.921338 0.921623 0.913469 0.914393 0.893205 0.895998 0.848934 0.855176 0.767202 0.747484 0.627579 0.537785 0.405535 0.282155 0.170217 0.0878826 0.0386934 0.0150875 0.00547064 0.00190613 0.000647705 0.000215735 7.05192e-05 2.26194e-05 7.11587e-06 2.19442e-06 6.63052e-07 1.96211e-07 5.68439e-08 1.61168e-08 4.47065e-09 1.21294e-09 3.21743e-10 8.33862e-11 2.10581e-11 5.18965e-12 1.13562e-12 2.25924e-13 -8.59313e-14 -3.51841e-14 -2.09076e-14 -5.41371e-14 3.03759e-14 -1.21988e-14 -5.90993e-14 1.72331e-14 5.01684e-16 -5.62998e-14 4.20277e-14 -1.0499e-13 -3.81402e-14 -1.42475e-14 5.95316e-14 -4.07019e-14 -1.94822e-14 1.82104e-15 4.39815e-14 3.47369e-15 3.74752e-14 1.04963e-13 3.10297e-14 -3.03211e-14 -1.54616e-14 -8.14937e-14 6.98926e-14 8.12416e-14 -7.72249e-14 6.38348e-14 1.12795e-13 6.88374e-14 7.47152e-14 -2.31403e-14 4.43782e-14 3.88307e-14 6.79246e-14 6.2817e-14 1.0316e-13 -8.39629e-14 5.03064e-15 6.06469e-14 8.43749e-14 7.68868e-14 0 0 1.07836e-15 1.10083e-15 -4.34612e-16 -1.70901e-15 -2.28871e-15 -4.71086e-15 -5.02816e-15 -4.26625e-15 -4.16654e-15 -7.52839e-15 -1.09529e-14 -1.4101e-14 -1.2882e-14 -2.10571e-14 -1.01784e-14 -3.21447e-14 -1.91754e-14 -1.49596e-14 -2.32642e-14 -1.10415e-14 -1.21818e-14 -2.12086e-14 -1.74625e-14 -4.69126e-15 -6.86539e-15 -1.51201e-14 -1.38359e-14 -2.35792e-14 -1.05321e-14 -2.89578e-14 -2.9771e-14 -1.3817e-14 -1.6586e-14 -1.57434e-14 -8.7549e-16 -2.84477e-14 2.00483e-15 -1.48186e-14 1.41639e-14 -1.34056e-14 1.77669e-14 2.11805e-14 1.6721e-15 -5.97647e-15 -5.13275e-14 -2.25663e-14 -3.97947e-14 -2.92178e-14 -1.76343e-14 -3.23963e-14 -6.89324e-14 -2.75293e-14 2.94295e-14 -5.52858e-14 -3.26449e-14 5.29227e-15 -3.59921e-14 -2.60139e-14 -1.54356e-14 2.44008e-14 -2.80695e-14 3.50447e-14 -3.28791e-14 2.18731e-14 1.45869e-13 1.21572e-12 1.18924e-11 1.15672e-10 1.04165e-09 8.62702e-09 6.53761e-08 4.50928e-07 2.8136e-06 1.5766e-05 7.86428e-05 0.000345451 0.00131893 0.0043124 0.0119079 0.0275705 0.0538613 0.0907493 0.13612 0.187664 0.243966 0.304474 0.369134 0.438153 0.511865 0.590647 0.674751 0.763824 0.855309 0.938576 0.975351 0.954054 0.939145 0.931398 0.929606 0.928973 0.928689 0.9284 0.928108 0.927811 0.927523 0.927233 0.926977 0.926711 0.926517 0.92627 0.926154 0.925862 0.925822 0.92532 0.92533 0.924207 0.924286 0.921338 0.921623 0.913469 0.914393 0.893205 0.895998 0.848934 0.855176 0.767202 0.747484 0.627579 0.537785 0.405535 0.282155 0.170217 0.0878826 0.0386934 0.0150875 0.00547064 0.00190613 0.000647705 0.000215735 7.05192e-05 2.26194e-05 7.11587e-06 2.19442e-06 6.63052e-07 1.96211e-07 5.68439e-08 1.61168e-08 4.47064e-09 1.21295e-09 3.21734e-10 8.33285e-11 2.1022e-11 5.2225e-12 1.07962e-12 1.80465e-13 -8.17534e-14 -6.50562e-14 -9.0758e-14 -1.24192e-13 7.2067e-14 -6.38268e-14 -5.40878e-14 6.05814e-14 -1.8624e-14 -1.3212e-13 1.40162e-14 2.3246e-14 -9.64475e-15 -5.15005e-14 1.22452e-14 3.23848e-15 3.22064e-14 6.47178e-14 -5.3241e-14 -1.04217e-15 3.01845e-14 8.45612e-14 1.0608e-13 -4.32565e-14 7.5684e-14 -9.01814e-14 5.60255e-14 3.37959e-14 2.25964e-14 1.32233e-13 -1.18522e-14 3.36088e-15 5.22158e-14 6.28367e-14 -5.45955e-15 8.2961e-14 1.10132e-14 2.67392e-14 -1.23467e-14 2.40534e-14 -5.10623e-14 7.24961e-14 2.80947e-14 1.01475e-13 0 0 -6.04686e-16 -5.72225e-16 -5.73581e-17 -8.85302e-17 -4.33083e-16 -6.19713e-15 -1.0954e-14 -2.18734e-15 -6.46792e-15 -8.04239e-15 -7.19137e-15 -1.61135e-14 -1.38882e-14 -2.75328e-14 -1.89978e-14 -2.42613e-14 -2.08415e-14 -3.75237e-14 -3.43368e-14 -2.01254e-14 -1.24709e-14 -7.13273e-15 -5.71359e-15 -9.95414e-15 6.35028e-15 -1.61027e-14 -3.09801e-15 -3.26397e-14 -1.69503e-14 -2.79922e-14 -1.89923e-14 -3.647e-14 -1.87552e-14 -1.53432e-14 1.60254e-14 -2.40147e-14 2.48568e-15 -3.76078e-15 1.41843e-14 9.74396e-16 2.05714e-15 1.03854e-14 -5.11587e-15 -2.75019e-14 -7.54478e-14 -5.83103e-15 -7.29629e-14 -4.91421e-14 -3.09169e-14 1.92489e-14 -5.7109e-14 -2.79798e-14 -6.1171e-14 1.9694e-14 -5.48943e-14 -2.18869e-14 -3.85755e-15 -6.20195e-14 -3.28422e-14 2.31724e-14 5.38295e-15 3.92025e-14 -1.57602e-14 7.53114e-15 2.48722e-13 1.21159e-12 1.20302e-11 1.15658e-10 1.04168e-09 8.62702e-09 6.53762e-08 4.50928e-07 2.8136e-06 1.5766e-05 7.86428e-05 0.000345451 0.00131893 0.0043124 0.0119079 0.0275705 0.0538613 0.0907493 0.13612 0.187664 0.243966 0.304474 0.369134 0.438153 0.511865 0.590647 0.674751 0.763824 0.855309 0.938576 0.975351 0.954054 0.939145 0.931398 0.929606 0.928973 0.928689 0.9284 0.928108 0.927811 0.927523 0.927233 0.926977 0.926711 0.926517 0.92627 0.926154 0.925862 0.925822 0.92532 0.92533 0.924207 0.924286 0.921338 0.921623 0.913469 0.914393 0.893205 0.895998 0.848934 0.855176 0.767202 0.747484 0.627579 0.537785 0.405535 0.282155 0.170217 0.0878826 0.0386934 0.0150875 0.00547064 0.00190613 0.000647705 0.000215735 7.05192e-05 2.26194e-05 7.11587e-06 2.19442e-06 6.63052e-07 1.96211e-07 5.68438e-08 1.61168e-08 4.47055e-09 1.21295e-09 3.21655e-10 8.32899e-11 2.08958e-11 5.09127e-12 1.13226e-12 -8.25724e-16 3.48294e-14 5.03356e-15 -1.92592e-13 -8.58069e-14 1.06022e-13 -5.81732e-14 -6.3106e-14 1.05917e-13 -8.79972e-14 2.72218e-14 -1.28845e-13 2.19496e-13 -2.70061e-14 -5.73246e-14 -1.2891e-13 1.21933e-13 -1.06885e-14 1.46299e-13 -7.04234e-14 -2.14738e-14 8.97257e-14 -7.19372e-14 -4.03406e-14 7.54725e-14 2.66179e-14 -4.29784e-14 5.94673e-14 5.43453e-14 5.60339e-14 4.30303e-14 1.61839e-14 -6.49761e-14 5.73728e-14 1.97214e-13 -4.14012e-14 5.49312e-14 9.20572e-14 6.71755e-14 -9.66865e-14 1.12441e-13 -3.70499e-14 -3.13695e-14 2.37877e-15 -3.75895e-14 0 0 -1.42111e-15 -5.3078e-16 6.40148e-16 -2.24539e-16 1.12907e-15 -3.16577e-15 -6.79154e-15 -5.51071e-15 -1.43343e-14 -1.06339e-14 -7.67846e-15 -2.78066e-14 -1.17517e-14 -3.32142e-14 -2.89919e-14 -1.56176e-14 -3.98859e-14 -2.83177e-14 -2.2879e-14 -2.39251e-14 -2.72798e-14 2.29767e-15 4.25196e-15 -5.3397e-15 -8.72879e-15 -2.06864e-14 -6.73329e-15 -3.95401e-14 -3.58735e-14 -2.66859e-14 -2.27087e-15 -4.63528e-14 -3.78e-14 -2.50483e-15 5.62084e-14 -2.10594e-14 2.76022e-14 1.39503e-14 1.97309e-14 -1.21862e-15 -1.90441e-14 -4.16168e-14 -7.51206e-16 -2.10182e-14 -8.64059e-14 -2.235e-14 -9.50558e-14 -2.85546e-14 -3.35889e-14 -3.20098e-14 -2.99182e-14 -4.25917e-14 -5.87581e-14 4.37524e-14 -4.80393e-14 -1.91262e-14 3.12135e-14 -4.71366e-14 -4.65795e-14 -1.10971e-17 1.05036e-14 -4.79233e-14 2.87965e-14 4.67291e-14 2.53188e-13 1.20961e-12 1.20153e-11 1.15702e-10 1.04175e-09 8.62707e-09 6.53762e-08 4.50928e-07 2.8136e-06 1.5766e-05 7.86428e-05 0.000345451 0.00131893 0.0043124 0.0119079 0.0275705 0.0538613 0.0907493 0.13612 0.187664 0.243966 0.304474 0.369134 0.438153 0.511865 0.590647 0.674751 0.763824 0.855309 0.938576 0.975351 0.954054 0.939145 0.931398 0.929606 0.928973 0.928689 0.9284 0.928108 0.927811 0.927523 0.927233 0.926977 0.926711 0.926517 0.92627 0.926154 0.925862 0.925822 0.92532 0.92533 0.924207 0.924286 0.921338 0.921623 0.913469 0.914393 0.893205 0.895998 0.848934 0.855176 0.767202 0.747484 0.627579 0.537785 0.405535 0.282155 0.170217 0.0878826 0.0386934 0.0150875 0.00547064 0.00190613 0.000647705 0.000215735 7.05192e-05 2.26194e-05 7.11587e-06 2.19442e-06 6.63053e-07 1.96211e-07 5.68439e-08 1.61167e-08 4.47051e-09 1.21275e-09 3.21623e-10 8.3252e-11 2.09126e-11 4.99106e-12 1.12244e-12 1.46513e-14 -5.8086e-14 1.45554e-13 2.71324e-14 -5.74263e-14 6.82694e-15 -1.28405e-13 -2.27276e-14 7.40973e-14 5.50543e-14 -5.08872e-15 -1.00647e-13 1.28533e-14 1.27378e-14 -1.55813e-13 -2.51361e-14 1.14425e-13 1.09105e-13 5.75626e-14 3.06577e-14 7.49122e-14 -7.92422e-14 -1.80661e-13 2.22237e-14 1.13981e-13 -3.60462e-15 -2.31462e-13 -3.17524e-14 1.62509e-13 -3.69144e-14 -5.73227e-14 1.01959e-13 -9.20071e-14 6.87868e-14 1.61569e-13 2.66742e-13 -1.20289e-14 1.38583e-13 3.06657e-14 1.23523e-13 5.7015e-15 2.13855e-14 -5.38885e-14 2.27043e-14 -9.50551e-14 0 0 -1.28451e-15 2.91995e-15 4.12041e-16 7.06223e-16 1.46144e-15 -3.02438e-15 3.98716e-16 -1.53712e-14 -1.37093e-14 -1.89632e-14 -1.46538e-14 -2.88013e-14 -9.56105e-15 -3.84349e-14 -2.88567e-14 -1.43027e-14 -5.715e-14 -6.10578e-15 -1.13339e-14 -2.85327e-14 -3.16268e-14 1.47986e-15 -5.65759e-15 1.24288e-14 -2.57897e-14 -1.16611e-14 -1.89064e-14 -5.53158e-14 -3.18886e-14 -3.24813e-14 1.09601e-14 -3.07766e-14 -7.29105e-14 2.40878e-14 4.40205e-14 -1.76889e-15 5.23272e-14 1.87806e-14 2.82183e-14 -2.73679e-14 -1.8319e-14 -4.70277e-14 -4.38225e-14 3.57023e-14 -1.07156e-13 -4.57495e-14 -8.39617e-14 -3.32924e-14 -4.34539e-15 -1.01768e-13 -2.08128e-14 -4.58721e-14 2.65025e-14 -6.76433e-16 -8.71737e-14 4.59839e-14 2.10885e-14 -3.99077e-14 -2.61679e-14 4.19171e-14 -7.16767e-14 -9.85001e-14 5.94626e-14 1.00021e-13 1.65973e-13 1.21447e-12 1.19842e-11 1.1574e-10 1.04186e-09 8.62708e-09 6.53762e-08 4.50928e-07 2.8136e-06 1.5766e-05 7.86428e-05 0.000345451 0.00131893 0.0043124 0.0119079 0.0275705 0.0538613 0.0907493 0.13612 0.187664 0.243966 0.304474 0.369134 0.438153 0.511865 0.590647 0.674751 0.763824 0.855309 0.938576 0.975351 0.954054 0.939145 0.931398 0.929606 0.928973 0.928689 0.9284 0.928108 0.927811 0.927523 0.927233 0.926977 0.926711 0.926517 0.92627 0.926154 0.925862 0.925822 0.92532 0.92533 0.924207 0.924286 0.921338 0.921623 0.913469 0.914393 0.893205 0.895998 0.848934 0.855176 0.767202 0.747484 0.627579 0.537785 0.405535 0.282155 0.170217 0.0878826 0.0386934 0.0150875 0.00547064 0.00190613 0.000647705 0.000215735 7.05192e-05 2.26194e-05 7.11587e-06 2.19442e-06 6.63053e-07 1.96211e-07 5.68441e-08 1.61166e-08 4.47049e-09 1.2126e-09 3.21683e-10 8.3168e-11 2.09955e-11 5.01651e-12 1.10387e-12 9.5293e-14 -1.73407e-13 2.51076e-13 2.1352e-13 -4.87779e-14 -7.9657e-14 -1.87419e-13 7.09961e-14 -7.20442e-14 1.21934e-13 -1.16579e-13 -1.03646e-13 -1.07259e-13 1.15817e-13 -3.20361e-13 1.6053e-13 -3.40584e-14 3.24177e-13 -9.75895e-14 1.13672e-13 1.66359e-13 -2.76388e-13 -3.19383e-13 3.56012e-13 6.41943e-14 3.07529e-14 -3.00104e-13 -2.02256e-13 1.79026e-13 8.07426e-16 -6.71976e-14 5.60322e-14 -2.15502e-13 1.30554e-13 2.04205e-13 4.18017e-13 -1.90301e-14 7.4358e-14 -5.71115e-14 2.70976e-13 1.55233e-14 5.99765e-14 8.80347e-15 -1.46875e-14 -1.14048e-15 0
				</DataArray>
				<DataArray Name="VitesseY" type="Float32" format="ascii">