<?xml version="1.0"?>
<VTKFile type="PolyData">
	<PolyData>
		<Piece NumberOfPoints="1206" NumberOfPolys="1000">
			<Points>
				<DataArray type="Float32" NumberOfComponents="3" format="ascii">
 0 0 0 0.005 0 0 0.01 0 0 0.015 0 0 0.02 0 0 0.025 0 0 0.03 0 0 0.035 0 0 0.04 0 0 0.045 0 0 0.05 0 0 0.055 0 0 0.06 0 0 0.065 0 0 0.07 0 0 0.075 0 0 0.08 0 0 0.085 0 0 0.09 0 0 0.095 0 0 0.1 0 0 0.105 0 0 0.11 0 0 0.115 0 0 0.12 0 0 0.125 0 0 0.13 0 0 0.135 0 0 0.14 0 0 0.145 0 0 0.15 0 0 0.155 0 0 0.16 0 0 0.165 0 0 0.17 0 0 0.175 0 0 0.18 0 0 0.185 0 0 0.19 0 0 0.195 0 0 0.2 0 0 0.205 0 0 0.21 0 0 0.215 0 0 0.22 0 0 0.225 0 0 0.23 0 0 0.235 0 0 0.24 0 0 0.245 0 0 0.25 0 0 0.255 0 0 0.26 0 0 0.265 0 0 0.27 0 0 0.275 0 0 0.28 0 0 0.285 0 0 0.29 0 0 0.295 0 0 0.3 0 0 0.305 0 0 0.31 0 0 0.315 0 0 0.32 0 0 0.325 0 0 0.33 0 0 0.335 0 0 0.34 0 0 0.345 0 0 0.35 0 0 0.355 0 0 0.36 0 0 0.365 0 0 0.37 0 0 0.375 0 0 0.38 0 0 0.385 0 0 0.39 0 0 0.395002 0 0 0.400008 0 0 0.405028 0 0 0.410087 0 0 0.415228 0 0 0.42051 0 0 0.425996 0 0 0.431744 0 0 0.437806 0 0 0.444237 0 0 0.451097 0 0 0.458459 0 0 0.466412 0 0 0.475066 0 0 0.484557 0 0 0.495036 0 0 0.506598 0 0 0.518936 0 0 0.531167 0 0 0.543155 0 0 0.554993 0 0 0.566792 0 0 0.569413 0 0 0.571958 0 0 0.574456 0 0 0.576922 0 0 0.579365 0 0 0.581792 0 0 0.584205 0 0 0.586609 0 0 0.589009 0 0 0.591406 0 0 0.593796 0 0 0.596182 0 0 0.598562 0 0 0.600939 0 0 0.603313 0 0 0.605685 0 0 0.608058 0 0 0.610445 0 0 0.612849 0 0 0.615299 0 0 0.617821 0 0 0.620417 0 0 0.623172 0 0 0.626103 0 0 0.629303 0 0 0.63281 0 0 0.636672 0 0 0.640887 0 0 0.645414 0 0 0.65017 0 0 0.655063 0 0 0.660022 0 0 0.665007 0 0 0.670002 0 0 0.675001 0 0 0.68 0 0 0.685 0 0 0.69 0 0 0.695 0 0 0.7 0 0 0.705 0 0 0.71 0 0 0.715 0 0 0.72 0 0 0.725 0 0 0.73 0 0 0.735 0 0 0.74 0 0 0.745 0 0 0.75 0 0 0.755 0 0 0.76 0 0 0.765 0 0 0.77 0 0 0.775 0 0 0.78 0 0 0.785 0 0 0.79 0 0 0.795 0 0 0.8 0 0 0.805 0 0 0.81 0 0 0.815 0 0 0.82 0 0 0.825 0 0 0.83 0 0 0.835 0 0 0.84 0 0 0.845 0 0 0.85 0 0 0.855 0 0 0.86 0 0 0.865 0 0 0.87 0 0 0.875 0 0 0.88 0 0 0.885 0 0 0.89 0 0 0.895 0 0 0.9 0 0 0.905 0 0 0.91 0 0 0.915 0 0 0.92 0 0 0.925 0 0 0.93 0 0 0.935 0 0 0.94 0 0 0.945 0 0 0.95 0 0 0.955 0 0 0.96 0 0 0.965 0 0 0.97 0 0 0.975 0 0 0.98 0 0 0.985 0 0 0.99 0 0 0.995 0 0 1 0 0 0 0.02 0 0.005 0.02 0 0.01 0.02 0 0.015 0.02 0 0.02 0.02 0 0.025 0.02 0 0.03 0.02 0 0.035 0.02 0 0.04 0.02 0 0.045 0.02 0 0.05 0.02 0 0.055 0.02 0 0.06 0.02 0 0.065 0.02 0 0.07 0.02 0 0.075 0.02 0 0.08 0.02 0 0.085 0.02 0 0.09 0.02 0 0.095 0.02 0 0.1 0.02 0 0.105 0.02 0 0.11 0.02 0 0.115 0.02 0 0.12 0.02 0 0.125 0.02 0 0.13 0.02 0 0.135 0.02 0 0.14 0.02 0 0.145 0.02 0 0.15 0.02 0 0.155 0.02 0 0.16 0.02 0 0.165 0.02 0 0.17 0.02 0 0.175 0.02 0 0.18 0.02 0 0.185 0.02 0 0.19 0.02 0 0.195 0.02 0 0.2 0.02 0 0.205 0.02 0 0.21 0.02 0 0.215 0.02 0 0.22 0.02 0 0.225 0.02 0 0.23 0.02 0 0.235 0.02 0 0.24 0.02 0 0.245 0.02 0 0.25 0.02 0 0.255 0.02 0 0.26 0.02 0 0.265 0.02 0 0.27 0.02 0 0.275 0.02 0 0.28 0.02 0 0.285 0.02 0 0.29 0.02 0 0.295 0.02 0 0.3 0.02 0 0.305 0.02 0 0.31 0.02 0 0.315 0.02 0 0.32 0.02 0 0.325 0.02 0 0.33 0.02 0 0.335 0.02 0 0.34 0.02 0 0.345 0.02 0 0.35 0.02 0 0.355 0.02 0 0.36 0.02 0 0.365 0.02 0 0.37 0.02 0 0.375 0.02 0 0.38 0.02 0 0.385 0.02 0 0.39 0.02 0 0.395002 0.02 0 0.400008 0.02 0 0.405028 0.02 0 0.410087 0.02 0 0.415228 0.02 0 0.42051 0.02 0 0.425996 0.02 0 0.431744 0.02 0 0.437806 0.02 0 0.444237 0.02 0 0.451097 0.02 0 0.458459 0.02 0 0.466412 0.02 0 0.475066 0.02 0 0.484557 0.02 0 0.495036 0.02 0 0.506598 0.02 0 0.518936 0.02 0 0.531167 0.02 0 0.543155 0.02 0 0.554993 0.02 0 0.566792 0.02 0 0.569413 0.02 0 0.571958 0.02 0 0.574456 0.02 0 0.576922 0.02 0 0.579365 0.02 0 0.581792 0.02 0 0.584205 0.02 0 0.586609 0.02 0 0.589009 0.02 0 0.591406 0.02 0 0.593796 0.02 0 0.596182 0.02 0 0.598562 0.02 0 0.600939 0.02 0 0.603313 0.02 0 0.605685 0.02 0 0.608058 0.02 0 0.610445 0.02 0 0.612849 0.02 0 0.615299 0.02 0 0.617821 0.02 0 0.620417 0.02 0 0.623172 0.02 0 0.626103 0.02 0 0.629303 0.02 0 0.63281 0.02 0 0.636672 0.02 0 0.640887 0.02 0 0.645414 0.02 0 0.65017 0.02 0 0.655063 0.02 0 0.660022 0.02 0 0.665007 0.02 0 0.670002 0.02 0 0.675001 0.02 0 0.68 0.02 0 0.685 0.02 0 0.69 0.02 0 0.695 0.02 0 0.7 0.02 0 0.705 0.02 0 0.71 0.02 0 0.715 0.02 0 0.72 0.02 0 0.725 0.02 0 0.73 0.02 0 0.735 0.02 0 0.74 0.02 0 0.745 0.02 0 0.75 0.02 0 0.755 0.02 0 0.76 0.02 0 0.765 0.02 0 0.77 0.02 0 0.775 0.02 0 0.78 0.02 0 0.785 0.02 0 0.79 0.02 0 0.795 0.02 0 0.8 0.02 0 0.805 0.02 0 0.81 0.02 0 0.815 0.02 0 0.82 0.02 0 0.825 0.02 0 0.83 0.02 0 0.835 0.02 0 0.84 0.02 0 0.845 0.02 0 0.85 0.02 0 0.855 0.02 0 0.86 0.02 0 0.865 0.02 0 0.87 0.02 0 0.875 0.02 0 0.88 0.02 0 0.885 0.02 0 0.89 0.02 0 0.895 0.02 0 0.9 0.02 0 0.905 0.02 0 0.91 0.02 0 0.915 0.02 0 0.92 0.02 0 0.925 0.02 0 0.93 0.02 0 0.935 0.02 0 0.94 0.02 0 0.945 0.02 0 0.95 0.02 0 0.955 0.02 0 0.96 0.02 0 0.965 0.02 0 0.97 0.02 0 0.975 0.02 0 0.98 0.02 0 0.985 0.02 0 0.99 0.02 0 0.995 0.02 0 1 0.02 0 0 0.04 0 0.005 0.04 0 0.01 0.04 0 0.015 0.04 0 0.02 0.04 0 0.025 0.04 0 0.03 0.04 0 0.035 0.04 0 0.04 0.04 0 0.045 0.04 0 0.05 0.04 0 0.055 0.04 0 0.06 0.04 0 0.065 0.04 0 0.07 0.04 0 0.075 0.04 0 0.08 0.04 0 0.085 0.04 0 0.09 0.04 0 0.095 0.04 0 0.1 0.04 0 0.105 0.04 0 0.11 0.04 0 0.115 0.04 0 0.12 0.04 0 0.125 0.04 0 0.13 0.04 0 0.135 0.04 0 0.14 0.04 0 0.145 0.04 0 0.15 0.04 0 0.155 0.04 0 0.16 0.04 0 0.165 0.04 0 0.17 0.04 0 0.175 0.04 0 0.18 0.04 0 0.185 0.04 0 0.19 0.04 0 0.195 0.04 0 0.2 0.04 0 0.205 0.04 0 0.21 0.04 0 0.215 0.04 0 0.22 0.04 0 0.225 0.04 0 0.23 0.04 0 0.235 0.04 0 0.24 0.04 0 0.245 0.04 0 0.25 0.04 0 0.255 0.04 0 0.26 0.04 0 0.265 0.04 0 0.27 0.04 0 0.275 0.04 0 0.28 0.04 0 0.285 0.04 0 0.29 0.04 0 0.295 0.04 0 0.3 0.04 0 0.305 0.04 0 0.31 0.04 0 0.315 0.04 0 0.32 0.04 0 0.325 0.04 0 0.33 0.04 0 0.335 0.04 0 0.34 0.04 0 0.345 0.04 0 0.35 0.04 0 0.355 0.04 0 0.36 0.04 0 0.365 0.04 0 0.37 0.04 0 0.375 0.04 0 0.38 0.04 0 0.385 0.04 0 0.39 0.04 0 0.395002 0.04 0 0.400008 0.04 0 0.405028 0.04 0 0.410087 0.04 0 0.415228 0.04 0 0.42051 0.04 0 0.425996 0.04 0 0.431744 0.04 0 0.437806 0.04 0 0.444237 0.04 0 0.451097 0.04 0 0.458459 0.04 0 0.466412 0.04 0 0.475066 0.04 0 0.484557 0.04 0 0.495036 0.04 0 0.506598 0.04 0 0.518936 0.04 0 0.531167 0.04 0 0.543155 0.04 0 0.554993 0.04 0 0.566792 0.04 0 0.569413 0.04 0 0.571958 0.04 0 0.574456 0.04 0 0.576922 0.04 0 0.579365 0.04 0 0.581792 0.04 0 0.584205 0.04 0 0.586609 0.04 0 0.589009 0.04 0 0.591406 0.04 0 0.593796 0.04 0 0.596182 0.04 0 0.598562 0.04 0 0.600939 0.04 0 0.603313 0.04 0 0.605685 0.04 0 0.608058 0.04 0 0.610445 0.04 0 0.612849 0.04 0 0.615299 0.04 0 0.617821 0.04 0 0.620417 0.04 0 0.623172 0.04 0 0.626103 0.04 0 0.629303 0.04 0 0.63281 0.04 0 0.636672 0.04 0 0.640887 0.04 0 0.645414 0.04 0 0.65017 0.04 0 0.655063 0.04 0 0.660022 0.04 0 0.665007 0.04 0 0.670002 0.04 0 0.675001 0.04 0 0.68 0.04 0 0.685 0.04 0 0.69 0.04 0 0.695 0.04 0 0.7 0.04 0 0.705 0.04 0 0.71 0.04 0 0.715 0.04 0 0.72 0.04 0 0.725 0.04 0 0.73 0.04 0 0.735 0.04 0 0.74 0.04 0 0.745 0.04 0 0.75 0.04 0 0.755 0.04 0 0.76 0.04 0 0.765 0.04 0 0.77 0.04 0 0.775 0.04 0 0.78 0.04 0 0.785 0.04 0 0.79 0.04 0 0.795 0.04 0 0.8 0.04 0 0.805 0.04 0 0.81 0.04 0 0.815 0.04 0 0.82 0.04 0 0.825 0.04 0 0.83 0.04 0 0.835 0.04 0 0.84 0.04 0 0.845 0.04 0 0.85 0.04 0 0.855 0.04 0 0.86 0.04 0 0.865 0.04 0 0.87 0.04 0 0.875 0.04 0 0.88 0.04 0 0.885 0.04 0 0.89 0.04 0 0.895 0.04 0 0.9 0.04 0 0.905 0.04 0 0.91 0.04 0 0.915 0.04 0 0.92 0.04 0 0.925 0.04 0 0.93 0.04 0 0.935 0.04 0 0.94 0.04 0 0.945 0.04 0 0.95 0.04 0 0.955 0.04 0 0.96 0.04 0 0.965 0.04 0 0.97 0.04 0 0.975 0.04 0 0.98 0.04 0 0.985 0.04 0 0.99 0.04 0 0.995 0.04 0 1 0.04 0 0 0.06 0 0.005 0.06 0 0.01 0.06 0 0.015 0.06 0 0.02 0.06 0 0.025 0.06 0 0.03 0.06 0 0.035 0.06 0 0.04 0.06 0 0.045 0.06 0 0.05 0.06 0 0.055 0.06 0 0.06 0.06 0 0.065 0.06 0 0.07 0.06 0 0.075 0.06 0 0.08 0.06 0 0.085 0.06 0 0.09 0.06 0 0.095 0.06 0 0.1 0.06 0 0.105 0.06 0 0.11 0.06 0 0.115 0.06 0 0.12 0.06 0 0.125 0.06 0 0.13 0.06 0 0.135 0.06 0 0.14 0.06 0 0.145 0.06 0 0.15 0.06 0 0.155 0.06 0 0.16 0.06 0 0.165 0.06 0 0.17 0.06 0 0.175 0.06 0 0.18 0.06 0 0.185 0.06 0 0.19 0.06 0 0.195 0.06 0 0.2 0.06 0 0.205 0.06 0 0.21 0.06 0 0.215 0.06 0 0.22 0.06 0 0.225 0.06 0 0.23 0.06 0 0.235 0.06 0 0.24 0.06 0 0.245 0.06 0 0.25 0.06 0 0.255 0.06 0 0.26 0.06 0 0.265 0.06 0 0.27 0.06 0 0.275 0.06 0 0.28 0.06 0 0.285 0.06 0 0.29 0.06 0 0.295 0.06 0 0.3 0.06 0 0.305 0.06 0 0.31 0.06 0 0.315 0.06 0 0.32 0.06 0 0.325 0.06 0 0.33 0.06 0 0.335 0.06 0 0.34 0.06 0 0.345 0.06 0 0.35 0.06 0 0.355 0.06 0 0.36 0.06 0 0.365 0.06 0 0.37 0.06 0 0.375 0.06 0 0.38 0.06 0 0.385 0.06 0 0.39 0.06 0 0.395002 0.06 0 0.400008 0.06 0 0.405028 0.06 0 0.410087 0.06 0 0.415228 0.06 0 0.42051 0.06 0 0.425996 0.06 0 0.431744 0.06 0 0.437806 0.06 0 0.444237 0.06 0 0.451097 0.06 0 0.458459 0.06 0 0.466412 0.06 0 0.475066 0.06 0 0.484557 0.06 0 0.495036 0.06 0 0.506598 0.06 0 0.518936 0.06 0 0.531167 0.06 0 0.543155 0.06 0 0.554993 0.06 0 0.566792 0.06 0 0.569413 0.06 0 0.571958 0.06 0 0.574456 0.06 0 0.576922 0.06 0 0.579365 0.06 0 0.581792 0.06 0 0.584205 0.06 0 0.586609 0.06 0 0.589009 0.06 0 0.591406 0.06 0 0.593796 0.06 0 0.596182 0.06 0 0.598562 0.06 0 0.600939 0.06 0 0.603313 0.06 0 0.605685 0.06 0 0.608058 0.06 0 0.610445 0.06 0 0.612849 0.06 0 0.615299 0.06 0 0.617821 0.06 0 0.620417 0.06 0 0.623172 0.06 0 0.626103 0.06 0 0.629303 0.06 0 0.63281 0.06 0 0.636672 0.06 0 0.640887 0.06 0 0.645414 0.06 0 0.65017 0.06 0 0.655063 0.06 0 0.660022 0.06 0 0.665007 0.06 0 0.670002 0.06 0 0.675001 0.06 0 0.68 0.06 0 0.685 0.06 0 0.69 0.06 0 0.695 0.06 0 0.7 0.06 0 0.705 0.06 0 0.71 0.06 0 0.715 0.06 0 0.72 0.06 0 0.725 0.06 0 0.73 0.06 0 0.735 0.06 0 0.74 0.06 0 0.745 0.06 0 0.75 0.06 0 0.755 0.06 0 0.76 0.06 0 0.765 0.06 0 0.77 0.06 0 0.775 0.06 0 0.78 0.06 0 0.785 0.06 0 0.79 0.06 0 0.795 0.06 0 0.8 0.06 0 0.805 0.06 0 0.81 0.06 0 0.815 0.06 0 0.82 0.06 0 0.825 0.06 0 0.83 0.06 0 0.835 0.06 0 0.84 0.06 0 0.845 0.06 0 0.85 0.
[...]
			<PointData Scalars="VitesseX">
				<DataArray Name="VitesseX" type="Float32" format="ascii">
 0 -8.83776e-16 1.61214e-15 -9.92554e-17 9.00476e-16 -2.55808e-15 2.85178e-15 -3.36123e-15 -1.39977e-15 -4.49973e-15 -3.37583e-15 5.98168e-15 -5.78496e-15 1.34487e-15 -4.77958e-15 -3.62145e-15 4.52727e-15 5.63408e-16 -3.0531e-15 3.85989e-15 -6.83974e-15 -9.65887e-15 1.15449e-14 1.04566e-16 7.45989e-15 4.03306e-15 -2.66374e-15 -9.24703e-15 1.83797e-14 -1.16359e-14 1.32425e-14 -8.87632e-15 1.23755e-14 -1.70647e-14 8.37334e-15 -3.38116e-15 2.37488e-15 4.70371e-15 2.18891e-15 -2.72951e-15 1.5136e-14 -1.17202e-14 1.09198e-14 -1.97896e-14 3.79364e-14 -2.30354e-14 -1.44995e-15 1.15407e-14 -3.0275e-16 -5.16826e-15 -3.81965e-14 3.94288e-14 -2.50084e-14 3.54673e-14 -4.68137e-14 3.19336e-14 1.68346e-14 -1.55184e-14 -2.76782e-15 2.26942e-14 1.21021e-14 -1.14183e-14 4.3812e-14 -9.76783e-15 2.33726e-14 3.17518e-15 3.75739e-14 -2.87397e-15 1.62321e-13 1.05915e-12 1.30842e-11 1.40529e-10 1.38126e-09 1.23884e-08 1.00847e-07 7.40577e-07 4.87077e-06 2.84429e-05 0.000145907 0.000648909 0.00246276 0.00784141 0.0206694 0.0450482 0.0825769 0.131539 0.189005 0.252901 0.322373 0.397348 0.478141 0.565227 0.65899 0.759058 0.86195 0.951926 0.975355 0.950631 0.936307 0.930513 0.928578 0.928031 0.927488 0.926999 0.926614 0.92637 0.926265 0.926272 0.926617 0.927326 0.926832 0.926101 0.924849 0.923279 0.921861 0.921071 0.921709 0.918555 0.920725 0.900247 0.870077 0.877079 0.796758 0.774083 0.664587 0.578123 0.450985 0.326964 0.208171 0.114102 0.0529033 0.0212451 0.00776203 0.00268775 0.000900427 0.000294094 9.38473e-05 2.92629e-05 8.91204e-06 2.64941e-06 7.68423e-07 2.17339e-07 5.99247e-08 1.61024e-08 4.21603e-09 1.07546e-09 2.67278e-10 6.47017e-11 1.51891e-11 3.61396e-12 8.10219e-13 1.49346e-13 -2.02309e-14 4.77309e-14 9.67651e-14 -1.08067e-13 3.46464e-14 -1.37428e-14 6.05829e-14 3.00635e-14 2.18628e-14 -1.07256e-14 -5.0116e-14 -1.10406e-13 9.30506e-14 -2.88234e-14 -5.43304e-14 3.97475e-14 -6.49183e-14 -1.32174e-14 -1.35085e-13 1.04066e-13 -1.33443e-13 1.07928e-13 -6.38938e-14 9.82437e-14 4.85948e-14 -1.35503e-13 -1.58313e-14 -6.34846e-14 8.10309e-14 -2.41645e-14 -5.45096e-14 -7.89534e-14 1.79242e-14 -2.79158e-14 3.61237e-14 -8.2947e-14 -1.4186e-13 1.00118e-13 -7.6673e-14 -5.68081e-15 -3.36994e-14 -3.58794e-14 5.12348e-14 1.81594e-14 -7.53187e-14 3.12632e-14 1.57628e-14 -2.31784e-14 0 0 -1.09894e-15 -1.79712e-16 -4.02007e-16 -5.26036e-17 -1.89618e-15 -5.51415e-16 -3.46857e-15 -2.16558e-15 1.66707e-15 -6.61027e-15 -3.89476e-15 6.10078e-15 -2.141e-15 -1.90681e-15 6.50053e-16 9.79904e-16 -6.93172e-16 1.03045e-15 -5.87474e-15 2.58372e-15 -4.35922e-15 -4.25712e-15 6.19889e-15 8.7887e-16 1.02144e-14 -2.55922e-15 -1.83467e-14 1.61871e-14 4.45336e-15 7.77441e-15 5.49085e-15 -1.6744e-14 1.13713e-14 -2.73888e-15 2.22152e-15 1.24774e-14 -1.3109e-14 2.05092e-14 -3.78028e-15 8.4624e-15 -4.39783e-15 -7.78502e-15 4.70902e-15 -6.48417e-16 1.80108e-14 -2.45523e-14 8.82507e-15 8.69259e-15 -2.30797e-14 3.62854e-15 -2.83404e-14 1.7222e-14 8.55229e-15 8.44704e-15 1.43308e-14 -6.53204e-15 -1.13495e-14 1.00879e-14 -7.67207e-16 2.51554e-14 1.22168e-15 1.79779e-14 2.43834e-14 1.57247e-15 2.76763e-14 -7.67747e-15 2.99896e-14 1.02861e-13 1.1383e-12 1.31157e-11 1.40473e-10 1.38119e-09 1.23885e-08 1.00847e-07 7.40577e-07 4.87077e-06 2.84429e-05 0.000145907 0.000648909 0.00246276 0.00784141 0.0206694 0.0450482 0.0825769 0.131539 0.189005 0.252901 0.322373 0.397348 0.478141 0.565227 0.65899 0.759058 0.86195 0.951926 0.975355 0.950631 0.936307 0.930513 0.928578 0.928031 0.927488 0.926999 0.926614 0.92637 0.926265 0.926272 0.926617 0.927326 0.926832 0.926101 0.924849 0.923279 0.921861 0.921071 0.921709 0.918555 0.920725 0.900247 0.870077 0.877079 0.796758 0.774083 0.664587 0.578123 0.450985 0.326964 0.208171 0.114102 0.0529033 0.0212451 0.00776203 0.00268775 0.000900427 0.000294094 9.38473e-05 2.92629e-05 8.91204e-06 2.64941e-06 7.68423e-07 2.17339e-07 5.99248e-08 1.61024e-08 4.21601e-09 1.07544e-09 2.67259e-10 6.47421e-11 1.53155e-11 3.46497e-12 7.66981e-13 1.853e-13 6.40688e-14 6.17635e-14 5.54669e-14 -4.94287e-14 2.89331e-14 -1.1095e-14 -7.64685e-15 -5.40465e-14 1.00659e-14 4.1842e-14 -2.16387e-14 -5.60461e-14 6.83003e-15 1.83501e-14 -1.44583e-14 -1.24846e-14 -1.0018e-14 -3.1805e-14 -2.87515e-14 -9.045e-14 2.22594e-14 -3.20047e-14 1.10061e-13 3.18167e-14 -4.80376e-14 6.67056e-14 -1.06782e-13 -7.24609e-14 2.48928e-14 1.45602e-14 1.5069e-14 -1.51936e-13 1.44067e-14 1.01388e-14 -1.4144e-14 -7.9796e-14 -9.9351e-14 3.68613e-14 -6.46556e-14 1.38384e-14 1.45797e-14 -9.73943e-14 3.43223e-14 4.05548e-14 -4.71805e-14 5.24193e-14 -1.05687e-13 7.12121e-14 0 0 -6.87925e-16 -1.28522e-15 4.4701e-17 -2.79072e-15 -3.12411e-15 7.00821e-16 4.32367e-15 -5.98666e-15 -6.15803e-15 -2.56245e-16 1.9629e-15 -2.72653e-15 3.82208e-16 5.66561e-15 -1.67469e-15 -7.08865e-15 -1.78626e-16 4.81832e-17 -1.28953e-15 9.89464e-15 -8.76957e-15 5.47988e-15 -1.20473e-14 -3.10376e-15 1.43498e-14 -8.64364e-15 3.17576e-15 -1.8845e-15 2.02439e-14 -8.61935e-15 7.62902e-15 -1.45937e-14 2.31004e-14 -4.38211e-15 -3.08539e-15 1.27503e-14 1.09246e-14 1.38956e-14 1.2691e-14 -4.24941e-15 -1.92068e-14 -1.06568e-15 2.63193e-14 -2.72475e-14 7.50522e-15 1.64931e-14 1.80569e-15 -4.89496e-14 1.28475e-14 -1.44542e-14 -2.60347e-14 4.1334e-14 -7.54969e-15 4.2151e-14 1.13578e-14 -3.82889e-14 -9.83588e-15 1.46064e-14 -2.63347e-15 2.2262e-14 1.9812e-14 7.55106e-17 9.48116e-15 1.48707e-14 8.54404e-15 1.14766e-14 4.66486e-14 1.02152e-13 1.18115e-12 1.31497e-11 1.40383e-10 1.38119e-09 1.23885e-08 1.00847e-07 7.40577e-07 4.87077e-06 2.84429e-05 0.000145907 0.000648909 0.00246276 0.00784141 0.0206694 0.0450482 0.0825769 0.131539 0.189005 0.252901 0.322373 0.397348 0.478141 0.565227 0.65899 0.759058 0.86195 0.951926 0.975355 0.950631 0.936307 0.930513 0.928578 0.928031 0.927488 0.926999 0.926614 0.92637 0.926265 0.926272 0.926617 0.927326 0.926832 0.926101 0.924849 0.923279 0.921861 0.921071 0.921709 0.918555 0.920725 0.900247 0.870077 0.877079 0.796758 0.774083 0.664587 0.578123 0.450985 0.326964 0.208171 0.114102 0.0529033 0.0212451 0.00776203 0.00268775 0.000900427 0.000294094 9.38473e-05 2.92629e-05 8.91204e-06 2.64941e-06 7.68423e-07 2.17339e-07 5.99247e-08 1.61025e-08 4.21604e-09 1.07544e-09 2.67242e-10 6.48196e-11 1.53772e-11 3.37717e-12 8.31008e-13 1.42352e-13 6.06317e-14 9.30392e-14 9.63687e-14 -1.38273e-13 8.60856e-15 4.90775e-14 6.83697e-14 -1.96813e-13 6.37969e-15 -5.94381e-14 6.01418e-14 8.24503e-14 5.61005e-14 -7.33541e-14 -1.02075e-13 2.80399e-14 1.11776e-14 -1.12257e-14 6.12697e-14 -7.78845e-14 7.37798e-14 -6.50259e-14 1.61018e-13 8.70719e-15 -1.35847e-13 1.35623e-13 -1.17652e-13 4.69483e-14 -1.23136e-13 2.25457e-15 -1.36992e-13 -3.15946e-14 -4.81992e-14 6.66188e-14 -7.77463e-14 -5.32375e-14 -8.04035e-14 -9.37783e-14 7.43712e-14 5.0942e-14 -2.50661e-14 -9.83027e-14 -8.92689e-14 4.36364e-14 -1.36732e-14 3.72568e-15 -4.17214e-14 6.15117e-14 0 0 -5.462e-16 -1.90009e-15 -1.26081e-16 -3.40365e-15 -3.14595e-15 3.99013e-15 5.0511e-15 -1.14877e-15 -8.38237e-15 -1.83248e-15 8.43649e-16 -7.34456e-15 7.67591e-15 -5.61707e-15 -8.07283e-16 4.58192e-15 -6.68061e-15 1.5317e-16 1.48919e-15 -4.51867e-15 7.97766e-16 6.89905e-15 -1.15565e-14 1.09976e-15 8.74544e-15 1.49781e-15 1.12328e-14 -8.42288e-15 4.31314e-15 1.53779e-15 -5.46037e-15 1.24525e-14 1.22178e-14 -1.62987e-14 1.4845e-14 1.7972e-14 -2.68092e-16 2.46943e-14 8.73021e-15 -3.04094e-15 -4.7851e-14 2.70771e-14 1.19361e-14 -1.38883e-14 5.31935e-15 1.26916e-14 -2.03586e-14 -2.95655e-14 4.19159e-14 -2.83479e-14 2.76681e-15 -1.9837e-14 -6.39622e-15 4.155e-14 2.6367e-14 -4.20399e-14 7.94119e-15 -9.65916e-15 2.67291e-14 3.28812e-15 4.00627e-14 -3.65399e-15 -8.98797e-15 -6.99452e-15 1.83805e-14 1.09887e-14 1.1937e-13 1.86117e-13 1.09369e-12 1.31263e-11 1.40419e-10 1.38122e-09 1.23883e-08 1.00847e-07 7.40577e-07 4.87077e-06 2.84429e-05 0.000145907 0.000648909 0.00246276 0.00784141 0.0206694 0.0450482 0.0825769 0.131539 0.189005 0.252901 0.322373 0.397348 0.478141 0.565227 0.65899 0.759058 0.86195 0.951926 0.975355 0.950631 0.936307 0.930513 0.928578 0.928031 0.927488 0.926999 0.926614 0.92637 0.926265 0.926272 0.926617 0.927326 0.926832 0.926101 0.924849 0.923279 0.921861 0.921071 0.921709 0.918555 0.920725 0.900247 0.870077 0.877079 0.796758 0.774083 0.664587 0.578123 0.450985 0.326964 0.208171 0.114102 0.0529033 0.0212451 0.00776203 0.00268775 0.000900427 0.000294094 9.38473e-05 2.92629e-05 8.91204e-06 2.64941e-06 7.68423e-07 2.17339e-07 5.99247e-08 1.61024e-08 4.21612e-09 1.07551e-09 2.67228e-10 6.47247e-11 1.53517e-11 3.64661e-12 8.70374e-13 5.12627e-14 -1.80399e-14 -1.01429e-14 1.76146e-13 -1.7109e-13 -7.94529e-14 2.23331e-13 9.06685e-14 -2.14475e-13 9.47905e-14 -8.67658e-14 -1.60428e-14 1.06969e-13 -2.13031e-14 -9.99504e-14 6.52227e-14 7.56186e-14 -1.14014e-13 -9.08036e-14 1.17436e-13 -2.66527e-14 -1.62291e-14 8.26146e-14 -4.61364e-14 3.67737e-14 -8.76547e-14 3.33823e-14 -1.65287e-14 1.23369e-13 -7.00827e-14 -9.48337e-14 -1.81062e-14 -8.89256e-14 -3.00133e-13 1.98164e-13 7.89157e-14 -1.39847e-14 -1.32467e-13 -1.76831e-13 2.62976e-14 6.49325e-14 -1.46807e-13 -3.26074e-14 -1.6905e-13 4.13708e-14 2.86669e-14 -1.09219e-13 9.64556e-14 -2.44098e-14 0 0 -2.038e-15 -4.22717e-15 -8.03306e-16 -2.25422e-15 -2.05129e-15 2.13225e-15 4.15903e-15 3.22038e-15 -5.74836e-17 -6.22491e-15 -6.88106e-15 -2.77951e-15 1.23513e-15 -1.00704e-14 1.34175e-15 7.88906e-15 -9.29676e-15 5.91503e-16 -3.3123e-15 -3.63344e-15 1.44116e-14 -2.48138e-15 7.86322e-15 -7.72429e-15 5.65887e-15 1.21103e-14 -3.29235e-15 -1.04622e-15 -5.08419e-16 1.20337e-14 -1.25386e-14 1.39906e-14 1.20503e-14 4.71669e-16 1.51798e-14 7.2517e-15 -2.32611e-14 2.06208e-14 3.3756e-15 1.16459e-14 -1.84855e-14 9.80931e-15 -2.0172e-14 5.19761e-15 2.56552e-14 -1.59619e-14 -5.3074e-15 8.9944e-15 -2.70207e-14 1.06538e-14 -2.36028e-14 1.22215e-14 9.11931e-15 1.78628e-15 -2.6467e-15 3.23229e-15 -1.51317e-14 1.07484e-14 -9.73128e-17 2.26986e-14 5.03558e-14 2.00292e-14 3.414e-14 3.67322e-15 -2.97733e-15 5.72254e-16 1.50007e-13 1.5033e-13 1.12294e-12 1.30886e-11 1.40483e-10 1.38117e-09 1.23883e-08 1.00847e-07 7.40577e-07 4.87077e-06 2.84429e-05 0.000145907 0.000648909 0.00246276 0.00784141 0.0206694 0.0450482 0.0825769 0.131539 0.189005 0.252901 0.322373 0.397348 0.478141 0.565227 0.65899 0.759058 0.86195 0.951926 0.975355 0.950631 0.936307 0.930513 0.928578 0.928031 0.927488 0.926999 0.926614 0.92637 0.926265 0.926272 0.926617 0.927326 0.926832 0.926101 0.924849 0.923279 0.921861 0.921071 0.921709 0.918555 0.920725 0.900247 0.870077 0.877079 0.796758 0.774083 0.664587 0.578123 0.450985 0.326964 0.208171 0.114102 0.0529033 0.0212451 0.00776203 0.00268775 0.000900427 0.000294094 9.38473e-05 2.92629e-05 8.91204e-06 2.64941e-06 7.68423e-07 2.17339e-07 5.99247e-08 1.61024e-08 4.21603e-09 1.07559e-09 2.67206e-10 6.47729e-11 1.53443e-11 3.76535e-12 6.15092e-13 4.21242e-14 9.33293e-14 8.8783e-14 -7.83922e-14 8.96156e-14 -1.08743e-13 1.54867e-13 -6.57303e-15 -1.10706e-13 1.21155e-13 1.47664e-13 -9.16454e-14 -2.08958e-13 -1.52277e-13 4.62347e-14 1.17833e-13 -8.00902e-14 6.82509e-14 -8.76623e-14 1.00169e-13 -1.52587e-13 -8.12549e-15 7.07972e-14 -1.66649e-13 2.42269e-14 4.03066e-14 5.5749e-14 -5.75728e-14 9.3445e-14 -2.73886e-14 -3.46086e-14 -1.69894e-14 -1.49016e-13 -1.10585e-13 6.95635e-14 1.13518e-13 5.29941e-14 -1.92986e-13 -9.59507e-14 -4.47619e-14 -7.33056e-14 -9.38801e-14 -5.50607e-14 -7.26769e-14 2.89145e-14 -5.55842e-14 -5.34116e-14 4.26457e-14 -4.37513e-14 0 0 -3.04535e-15 -5.25302e-15 -5.60289e-16 -2.27689e-15 -2.82462e-15 1.64048e-15 1.04391e-14 -3.03618e-16 -3.50017e-15 5.4735e-16 2.24757e-15 -1.43095e-14 -6.49026e-15 1.45858e-15 -3.97287e-15 -4.99556e-15 -3.63981e-15 -4.14096e-15 3.42734e-15 9.55259e-15 8.74803e-15 1.22581e-14 2.45164e-15 -1.81535e-14 6.13059e-15 6.39242e-15 4.74766e-15 -3.01022e-15 1.0302e-14 1.44686e-15 -1.87565e-14 1.97523e-14 6.05867e-15 3.86276e-14 -1.33255e-14 -1.85198e-14 6.78496e-15 -1.91852e-14 1.95039e-14 1.90861e-14 1.7393e-14 -1.0177e-14 -4.07852e-14 2.291e-14 -3.37472e-15 2.3334e-14 2.76043e-14 -3.84673e-14 -7.11872e-14 3.64144e-15 -8.69917e-15 8.73326e-14 3.42945e-14 -5.89334e-14 -3.20398e-14 4.38651e-14 -5.86369e-14 4.70844e-14 -3.46911e-14 4.51363e-14 4.63486e-14 5.53736e-14 4.66838e-14 7.13046e-14 -7.78049e-14 5.5049e-14 9.17178e-14 8.93293e-14 1.20335e-12 1.30769e-11 1.40478e-10 1.38116e-09 1.23882e-08 1.00847e-07 7.40577e-07 4.87077e-06 2.84429e-05 0.000145907 0.000648909 0.00246276 0.00784141 0.0206694 0.0450482 0.0825769 0.131539 0.189005 0.252901 0.322373 0.397348 0.478141 0.565227 0.65899 0.759058 0.86195 0.951926 0.975355 0.950631 0.936307 0.930513 0.928578 0.928031 0.927488 0.926999 0.926614 0.92637 0.926265 0.926272 0.926617 0.927326 0.926832 0.926101 0.924849 0.923279 0.921861 0.921071 0.921709 0.918555 0.920725 0.900247 0.870077 0.877079 0.796758 0.774083 0.664587 0.578123 0.450985 0.326964 0.208171 0.114102 0.0529033 0.0212451 0.00776203 0.00268775 0.000900427 0.000294094 9.38473e-05 2.92629e-05 8.91204e-06 2.64941e-06 7.68423e-07 2.17339e-07 5.99247e-08 1.61025e-08 4.21589e-09 1.07564e-09 2.67198e-10 6.4953e-11 1.52977e-11 3.67568e-12 4.27762e-13 4.5059e-14 1.95707e-13 3.08861e-13 -3.29924e-13 2.35355e-13 -6.52621e-14 -3.11537e-14 1.76508e-14 -4.7544e-14 6.73557e-14 2.55698e-13 -3.73888e-14 -4.64892e-13 -6.99853e-14 8.03149e-14 -1.24345e-13 -1.90476e-13 3.42437e-13 3.45176e-14 1.04288e-14 -1.22341e-13 -1.40068e-14 1.82338e-14 -2.02872e-13 2.71583e-14 1.29234e-13 4.71507e-14 -1.19613e-13 1.15225e-13 -1.29834e-13 7.17754e-14 -3.56446e-13 4.12042e-14 2.71487e-13 -1.72321e-13 -2.20815e-14 1.03938e-13 -2.25102e-13 4.23362e-16 5.94653e-14 -2.07624e-13 -7.22991e-15 -8.26694e-14 -3.49198e-15 -9.10335e-16 -1.76913e-13 4.56994e-14 3.63582e-14 -8.11456e-14 0
				</DataArray>
				<DataArray Name="VitesseY" type="Float32" format="ascii">