<?xml version="1.0"?>
<VTKFile type="PolyData">
	<PolyData>
		<Piece NumberOfPoints="1206" NumberOfPolys="1000">
			<Points>
				<DataArray type="Float32" NumberOfComponents="3" format="ascii">
 0 0 0 0.005 0 0 0.01 0 0 0.015 0 0 0.02 0 0 0.025 0 0 0.03 0 0 0.035 0 0 0.04 0 0 0.045 0 0 0.05 0 0 0.055 0 0 0.06 0 0 0.065 0 0 0.07 0 0 0.075 0 0 0.08 0 0 0.085 0 0 0.09 0 0 0.095 0 0 0.1 0 0 0.105 0 0 0.11 0 0 0.115 0 0 0.12 0 0 0.125 0 0 0.13 0 0 0.135 0 0 0.14 0 0 0.145 0 0 0.15 0 0 0.155 0 0 0.16 0 0 0.165 0 0 0.17 0 0 0.175 0 0 0.18 0 0 0.185 0 0 0.19 0 0 0.195 0 0 0.2 0 0 0.205 0 0 0.21 0 0 0.215 0 0 0.22 0 0 0.225 0 0 0.23 0 0 0.235 0 0 0.24 0 0 0.245 0 0 0.250001 0 0 0.255002 0 0 0.260007 0 0 0.265018 0 0 0.270041 0 0 0.275088 0 0 0.280172 0 0 0.28531 0 0 0.290516 0 0 0.295805 0 0 0.301188 0 0 0.306672 0 0 0.312267 0 0 0.317978 0 0 0.323814 0 0 0.32978 0 0 0.335886 0 0 0.342138 0 0 0.348544 0 0 0.355116 0 0 0.361861 0 0 0.36879 0 0 0.375916 0 0 0.383252 0 0 0.39081 0 0 0.398608 0 0 0.406661 0 0 0.414988 0 0 0.423611 0 0 0.432552 0 0 0.441837 0 0 0.451493 0 0 0.461552 0 0 0.472042 0 0 0.482992 0 0 0.494413 0 0 0.506272 0 0 0.518401 0 0 0.530506 0 0 0.542521 0 0 0.554442 0 0 0.566286 0 0 0.578076 0 0 0.589836 0 0 0.601581 0 0 0.61332 0 0 0.625055 0 0 0.63679 0 0 0.648525 0 0 0.660263 0 0 0.672014 0 0 0.674628 0 0 0.677166 0 0 0.679659 0 0 0.682119 0 0 0.684558 0 0 0.686979 0 0 0.689388 0 0 0.691786 0 0 0.694178 0 0 0.696565 0 0 0.698946 0 0 0.701323 0 0 0.703695 0 0 0.706064 0 0 0.708431 0 0 0.710796 0 0 0.713159 0 0 0.715521 0 0 0.717881 0 0 0.720241 0 0 0.7226 0 0 0.724958 0 0 0.727315 0 0 0.729672 0 0 0.732028 0 0 0.734384 0 0 0.73674 0 0 0.739095 0 0 0.741449 0 0 0.743804 0 0 0.746158 0 0 0.748512 0 0 0.750867 0 0 0.753222 0 0 0.755577 0 0 0.757931 0 0 0.760285 0 0 0.76264 0 0 0.764994 0 0 0.767348 0 0 0.769702 0 0 0.772057 0 0 0.774412 0 0 0.776766 0 0 0.779121 0 0 0.781475 0 0 0.783829 0 0 0.786183 0 0 0.788537 0 0 0.790893 0 0 0.793253 0 0 0.795613 0 0 0.797973 0 0 0.80033 0 0 0.802685 0 0 0.805043 0 0 0.807398 0 0 0.809778 0 0 0.812184 0 0 0.814656 0 0 0.817182 0 0 0.81984 0 0 0.822628 0 0 0.825644 0 0 0.82892 0 0 0.832524 0 0 0.836477 0 0 0.840774 0 0 0.84536 0 0 0.850151 0 0 0.855059 0 0 0.860022 0 0 0.865008 0 0 0.870003 0 0 0.875001 0 0 0.88 0 0 0.885 0 0 0.89 0 0 0.895 0 0 0.9 0 0 0.905 0 0 0.91 0 0 0.915 0 0 0.92 0 0 0.925 0 0 0.93 0 0 0.935 0 0 0.94 0 0 0.945 0 0 0.95 0 0 0.955 0 0 0.96 0 0 0.965 0 0 0.97 0 0 0.975 0 0 0.98 0 0 0.985 0 0 0.99 0 0 0.995 0 0 1 0 0 0 0.02 0 0.005 0.02 0 0.01 0.02 0 0.015 0.02 0 0.02 0.02 0 0.025 0.02 0 0.03 0.02 0 0.035 0.02 0 0.04 0.02 0 0.045 0.02 0 0.05 0.02 0 0.055 0.02 0 0.06 0.02 0 0.065 0.02 0 0.07 0.02 0 0.075 0.02 0 0.08 0.02 0 0.085 0.02 0 0.09 0.02 0 0.095 0.02 0 0.1 0.02 0 0.105 0.02 0 0.11 0.02 0 0.115 0.02 0 0.12 0.02 0 0.125 0.02 0 0.13 0.02 0 0.135 0.02 0 0.14 0.02 0 0.145 0.02 0 0.15 0.02 0 0.155 0.02 0 0.16 0.02 0 0.165 0.02 0 0.17 0.02 0 0.175 0.02 0 0.18 0.02 0 0.185 0.02 0 0.19 0.02 0 0.195 0.02 0 0.2 0.02 0 0.205 0.02 0 0.21 0.02 0 0.215 0.02 0 0.22 0.02 0 0.225 0.02 0 0.23 0.02 0 0.235 0.02 0 0.24 0.02 0 0.245 0.02 0 0.250001 0.02 0 0.255002 0.02 0 0.260007 0.02 0 0.265018 0.02 0 0.270041 0.02 0 0.275088 0.02 0 0.280172 0.02 0 0.28531 0.02 0 0.290516 0.02 0 0.295805 0.02 0 0.301188 0.02 0 0.306672 0.02 0 0.312267 0.02 0 0.317978 0.02 0 0.323814 0.02 0 0.32978 0.02 0 0.335886 0.02 0 0.342138 0.02 0 0.348544 0.02 0 0.355116 0.02 0 0.361861 0.02 0 0.36879 0.02 0 0.375916 0.02 0 0.383252 0.02 0 0.39081 0.02 0 0.398608 0.02 0 0.406661 0.02 0 0.414988 0.02 0 0.423611 0.02 0 0.432552 0.02 0 0.441837 0.02 0 0.451493 0.02 0 0.461552 0.02 0 0.472042 0.02 0 0.482992 0.02 0 0.494413 0.02 0 0.506272 0.02 0 0.518401 0.02 0 0.530506 0.02 0 0.542521 0.02 0 0.554442 0.02 0 0.566286 0.02 0 0.578076 0.02 0 0.589836 0.02 0 0.601581 0.02 0 0.61332 0.02 0 0.625055 0.02 0 0.63679 0.02 0 0.648525 0.02 0 0.660263 0.02 0 0.672014 0.02 0 0.674628 0.02 0 0.677166 0.02 0 0.679659 0.02 0 0.682119 0.02 0 0.684558 0.02 0 0.686979 0.02 0 0.689388 0.02 0 0.691786 0.02 0 0.694178 0.02 0 0.696565 0.02 0 0.698946 0.02 0 0.701323 0.02 0 0.703695 0.02 0 0.706064 0.02 0 0.708431 0.02 0 0.710796 0.02 0 0.713159 0.02 0 0.715521 0.02 0 0.717881 0.02 0 0.720241 0.02 0 0.7226 0.02 0 0.724958 0.02 0 0.727315 0.02 0 0.729672 0.02 0 0.732028 0.02 0 0.734384 0.02 0 0.73674 0.02 0 0.739095 0.02 0 0.741449 0.02 0 0.743804 0.02 0 0.746158 0.02 0 0.748512 0.02 0 0.750867 0.02 0 0.753222 0.02 0 0.755577 0.02 0 0.757931 0.02 0 0.760285 0.02 0 0.76264 0.02 0 0.764994 0.02 0 0.767348 0.02 0 0.769702 0.02 0 0.772057 0.02 0 0.774412 0.02 0 0.776766 0.02 0 0.779121 0.02 0 0.781475 0.02 0 0.783829 0.02 0 0.786183 0.02 0 0.788537 0.02 0 0.790893 0.02 0 0.793253 0.02 0 0.795613 0.02 0 0.797973 0.02 0 0.80033 0.02 0 0.802685 0.02 0 0.805043 0.02 0 0.807398 0.02 0 0.809778 0.02 0 0.812184 0.02 0 0.814656 0.02 0 0.817182 0.02 0 0.81984 0.02 0 0.822628 0.02 0 0.825644 0.02 0 0.82892 0.02 0 0.832524 0.02 0 0.836477 0.02 0 0.840774 0.02 0 0.84536 0.02 0 0.850151 0.02 0 0.855059 0.02 0 0.860022 0.02 0 0.865008 0.02 0 0.870003 0.02 0 0.875001 0.02 0 0.88 0.02 0 0.885 0.02 0 0.89 0.02 0 0.895 0.02 0 0.9 0.02 0 0.905 0.02 0 0.91 0.02 0 0.915 0.02 0 0.92 0.02 0 0.925 0.02 0 0.93 0.02 0 0.935 0.02 0 0.94 0.02 0 0.945 0.02 0 0.95 0.02 0 0.955 0.02 0 0.96 0.02 0 0.965 0.02 0 0.97 0.02 0 0.975 0.02 0 0.98 0.02 0 0.985 0.02 0 0.99 0.02 0 0.995 0.02 0 1 0.02 0 0 0.04 0 0.005 0.04 0 0.01 0.04 0 0.015 0.04 0 0.02 0.04 0 0.025 0.04 0 0.03 0.04 0 0.035 0.04 0 0.04 0.04 0 0.045 0.04 0 0.05 0.04 0 0.055 0.04 0 0.06 0.04 0 0.065 0.04 0 0.07 0.04 0 0.075 0.04 0 0.08 0.04 0 0.085 0.04 0 0.09 0.04 0 0.095 0.04 0 0.1 0.04 0 0.105 0.04 0 0.11 0.04 0 0.115 0.04 0 0.12 0.04 0 0.125 0.04 0 0.13 0.04 0 0.135 0.04 0 0.14 0.04 0 0.145 0.04 0 0.15 0.04 0 0.155 0.04 0 0.16 0.04 0 0.165 0.04 0 0.17 0.04 0 0.175 0.04 0 0.18 0.04 0 0.185 0.04 0 0.19 0.04 0 0.195 0.04 0 0.2 0.04 0 0.205 0.04 0 0.21 0.04 0 0.215 0.04 0 0.22 0.04 0 0.225 0.04 0 0.23 0.04 0 0.235 0.04 0 0.24 0.04 0 0.245 0.04 0 0.250001 0.04 0 0.255002 0.04 0 0.260007 0.04 0 0.265018 0.04 0 0.270041 0.04 0 0.275088 0.04 0 0.280172 0.04 0 0.28531 0.04 0 0.290516 0.04 0 0.295805 0.04 0 0.301188 0.04 0 0.306672 0.04 0 0.312267 0.04 0 0.317978 0.04 0 0.323814 0.04 0 0.32978 0.04 0 0.335886 0.04 0 0.342138 0.04 0 0.348544 0.04 0 0.355116 0.04 0 0.361861 0.04 0 0.36879 0.04 0 0.375916 0.04 0 0.383252 0.04 0 0.39081 0.04 0 0.398608 0.04 0 0.406661 0.04 0 0.414988 0.04 0 0.423611 0.04 0 0.432552 0.04 0 0.441837 0.04 0 0.451493 0.04 0 0.461552 0.04 0 0.472042 0.04 0 0.482992 0.04 0 0.494413 0.04 0 0.506272 0.04 0 0.518401 0.04 0 0.530506 0.04 0 0.542521 0.04 0 0.554442 0.04 0 0.566286 0.04 0 0.578076 0.04 0 0.589836 0.04 0 0.601581 0.04 0 0.61332 0.04 0 0.625055 0.04 0 0.63679 0.04 0 0.648525 0.04 0 0.660263 0.04 0 0.672014 0.04 0 0.674628 0.04 0 0.677166 0.04 0 0.679659 0.04 0 0.682119 0.04 0 0.684558 0.04 0 0.686979 0.04 0 0.689388 0.04 0 0.691786 0.04 0 0.694178 0.04 0 0.696565 0.04 0 0.698946 0.04 0 0.701323 0.04 0 0.703695 0.04 0 0.706064 0.04 0 0.708431 0.04 0 0.710796 0.04 0 0.713159 0.04 0 0.715521 0.04 0 0.717881 0.04 0 0.720241 0.04 0 0.7226 0.04 0 0.724958 0.04 0 0.727315 0.04 0 0.729672 0.04 0 0.732028 0.04 0 0.734384 0.04 0 0.73674 0.04 0 0.739095 0.04 0 0.741449 0.04 0 0.743804 0.04 0 0.746158 0.04 0 0.748512 0.04 0 0.750867 0.04 0 0.753222 0.04 0 0.755577 0.04 0 0.757931 0.04 0 0.760285 0.04 0 0.76264 0.04 0 0.764994 0.04 0 0.767348 0.04 0 0.769702 0.04 0 0.772057 0.04 0 0.774412 0.04 0 0.776766 0.04 0 0.779121 0.04 0 0.781475 0.04 0 0.783829 0.04 0 0.786183 0.04 0 0.788537 0.04 0 0.790893 0.04 0 0.793253 0.04 0 0.795613 0.04 0 0.797973 0.04 0 0.80033 0.04 0 0.802685 0.04 0 0.805043 0.04 0 0.807398 0.04 0 0.809778 0.04 0 0.812184 0.04 0 0.814656 0.04 0 0.817182 0.04 0 0.81984 0.04 0 0.822628 0.04 0 0.825644 0.04 0 0.82892 0.04 0 0.832524 0.04 0 0.836477 0.04 0 0.840774 0.04 0 0.84536 0.04 0 0.850151 0.04 0 0.855059 0.04 0 0.860022 0.04 0 0.865008 0.04 0 0.870003 0.04 0 0.875001 0.04 0 0.88 0.04 0 0.885 0.04 0 0.89 0.04 0 0.895 0.04 0 0.9 0.04 0 0.905 0.04 0 0.91 0.04 0 0.915 0.04 0 0.92 0.04 0 0.925 0.04 0 0.93 0.04 0 0.935 0.04 0 0.94 0.04 0 0.945 0.04 0 0.95 0.04 0 0.955 0.04 0 0.96 0.04 0 0.965 0.04 0 0.97 0.04 0 0.975 0.04 0 0.98 0.04 0 0.985 0.04 0 0.99 0.04 0 0.995 0.04 0 1 0.04 0 0 0.06 0 0.005 0.06 0 0.01 0.06 0 0.015 0.06 0 0.02 0.06 0 0.025 0.06 0 0.03 0.06 0 0.035 0.06 0 0.04 0.06 0 0.045 0.06 0 0.05 0.06 0 0.055 0.06 0 0.06 0.06 0 0.065 0.06 0 0.07 0.06 0 0.075 0.06 0 0.08 0.06 0 0.085 0.06 0 0.09 0.06 0 0.095 0.06 0 0.1 0.06 0 0.105 0.06 0 0.11 0.06 0 0.115 0.06 0 0.12 0.06 0 0.125 0.06 0 0.13 0.06 0 0.135 0.06 0 0.14 0.06 0 0.145 0.06 0 0.15 0.06 0 0.155 0.06 0 0.16 0.06 0 0.165 0.06 0 0.17 0.06 0 0.175 0.06 0 0.18 0.06 0 0.185 0.06 0 0.19 0.06 0 0.195 0.06 0 0.2 0.06 0 0.205 0.06 0 0.21 0.06 0 0.215 0.06 0 0.22 0.06 0 0.225 0.06 0 0.23 0.06 0 0.235 0.06 0 0.24 0.06 0 0.245 0.06 0 0.250001 0.06 0 0.255002 0.06 0 0.260007 0.06 0 0.265018 0.06 0 0.270041 0.06 0 0.275088 0.06 0 0.280172 0.06 0 0.28531 0.06 0 0.290516 0.06 0 0.295805 0.06 0 0.301188 0.06 0 0.306672 0.06 0 0.312267 0.06 0 0.317978 0.06 0 0.323814 0.06 0 0.32978 0.06 0 0.335886 0.06 0 0.342138 0.06 0 0.348544 0.06 0 0.355116 0.06 0 0.361861 0.06 0 0.36879 0.06 0 0.375916 0.06 0 0.383252 0.06 0 0.39081 0.06 0 0.398608 0.06 0 0.406661 0.06 0 0.414988 0.06 0 0.423611 0.06 0 0.432552 0.06 0 0.441837 0.06 0 0.451493 0.06 0 0.461552 0.06 0 0.472042 0.06 0 0.482992 0.06 0 0.494413 0.06 0 0.506272 0.06 0 0.518401 0.06 0 0.530506 0.06 0 0.542521 0.06 0 0.554442 0.06 0 0.566286 0.06 0 0.578076 0.06 0 0.589836 0.06 0 0.601581 0.06 0 0.61332 0.06 0 0.625055 0.06 0 0.63679 0.06 0 0.648525 0.06 0 0.660263 0.06 0 0.672014 0.06 0 0.674628 0.06 0 0.677166 0.06 0 0.679659 0.06 0 0.682119 0.06 0 0.684558 0.06 0 0.686979 0.06 0 0.689388 0.06 0 0.691786 0.06 0 0.694178 0.06 0 0.696565 0.06 0 0.698946 0.06 0 0.701323 0.0
[...]
			<PointData Scalars="VitesseX">
				<DataArray Name="VitesseX" type="Float32" format="ascii">
 0 8.12724e-16 -1.76122e-15 -1.34414e-15 -2.2846e-15 -5.40916e-16 -5.36636e-15 -3.99911e-15 5.26629e-15 -4.70562e-15 3.52301e-15 -4.08428e-15 6.28942e-15 2.90127e-15 1.17793e-14 2.65248e-15 8.65587e-15 1.16735e-14 4.17594e-15 1.57619e-14 -3.34688e-15 1.44661e-14 -1.7959e-14 3.5888e-15 -1.31571e-14 1.28891e-14 -3.78169e-15 -2.11141e-15 -2.33583e-14 1.97832e-14 2.09158e-14 1.61521e-14 2.21652e-14 4.42507e-14 2.26782e-14 6.53797e-14 1.24e-13 7.07977e-13 4.52526e-12 2.62418e-11 1.48155e-10 7.95571e-10 4.05787e-09 1.96177e-08 8.96901e-08 3.86814e-07 1.56921e-06 5.96848e-06 2.12039e-05 7.00531e-05 0.000214125 0.000601946 0.00154615 0.00360492 0.00758906 0.0143942 0.0246658 0.0385083 0.0554837 0.0748865 0.0960507 0.1185 0.141948 0.166243 0.191309 0.217114 0.243651 0.270924 0.298952 0.327759 0.357374 0.387833 0.419178 0.451452 0.484706 0.518993 0.554368 0.590889 0.628612 0.667585 0.707837 0.749349 0.792007 0.835467 0.878837 0.919787 0.952098 0.960865 0.952601 0.944862 0.937988 0.933061 0.930126 0.928618 0.927914 0.927585 0.927411 0.927301 0.927227 0.927183 0.927141 0.92713 0.92712 0.927109 0.927098 0.927088 0.927079 0.927072 0.927066 0.927064 0.927066 0.927091 0.927121 0.927118 0.927118 0.927118 0.927118 0.927121 0.92715 0.927242 0.927267 0.927241 0.927173 0.927114 0.927044 0.926961 0.926881 0.926805 0.926741 0.926692 0.926665 0.926656 0.926728 0.927027 0.927013 0.926907 0.926758 0.926594 0.926484 0.926431 0.92644 0.926746 0.926658 0.926511 0.926256 0.926012 0.9258 0.925661 0.925603 0.925679 0.926749 0.928567 0.927048 0.92621 0.924365 0.922539 0.92176 0.915986 0.920445 0.88693 0.894538 0.824095 0.817447 0.715979 0.653661 0.533219 0.417985 0.292665 0.181855 0.0971154 0.0445838 0.0182057 0.00695424 0.00257703 0.000943348 0.000343639 0.000124904 4.53382e-05 1.64373e-05 5.95137e-06 2.15132e-06 7.76145e-07 2.79357e-07 1.00268e-07 3.58722e-08 1.27859e-08 4.53812e-09 1.60309e-09 5.63403e-10 1.96824e-10 6.8432e-11 2.36351e-11 8.10041e-12 2.82347e-12 8.4758e-13 4.53462e-13 1.2591e-13 6.28831e-15 3.1187e-14 -9.46749e-14 0 0 2.57455e-16 -1.46141e-15 -1.62729e-15 1.76412e-15 -3.92039e-15 1.79132e-15 -2.36852e-15 -6.80452e-15 4.85331e-15 -1.93151e-15 2.62418e-15 -2.47905e-15 1.27882e-14 1.23032e-14 -9.37695e-16 8.1691e-15 8.03039e-15 7.5425e-15 4.01797e-15 1.24295e-14 -3.38261e-15 1.56591e-14 -8.376e-15 -9.94863e-15 -1.51568e-14 1.26804e-14 -1.32373e-14 1.24048e-14 -2.26644e-15 2.62368e-14 2.15967e-14 3.40703e-14 2.68483e-14 3.98693e-14 4.85758e-14 1.69955e-13 7.44621e-13 4.41378e-12 2.62936e-11 1.48124e-10 7.95556e-10 4.05788e-09 1.96176e-08 8.96902e-08 3.86814e-07 1.56921e-06 5.96848e-06 2.12039e-05 7.00531e-05 0.000214125 0.000601946 0.00154615 0.00360492 0.00758906 0.0143942 0.0246658 0.0385083 0.0554837 0.0748865 0.0960507 0.1185 0.141948 0.166243 0.191309 0.217114 0.243651 0.270924 0.298952 0.327759 0.357374 0.387833 0.419178 0.451452 0.484706 0.518993 0.554368 0.590889 0.628612 0.667585 0.707837 0.749349 0.792007 0.835467 0.878837 0.919787 0.952098 0.960865 0.952601 0.944862 0.937988 0.933061 0.930126 0.928618 0.927914 0.927585 0.927411 0.927301 0.927227 0.927183 0.927141 0.92713 0.92712 0.927109 0.927098 0.927088 0.927079 0.927072 0.927066 0.927064 0.927066 0.927091 0.927121 0.927118 0.927118 0.927118 0.927118 0.927121 0.92715 0.927242 0.927267 0.927241 0.927173 0.927114 0.927044 0.926961 0.926881 0.926805 0.926741 0.926692 0.926665 0.926656 0.926728 0.927027 0.927013 0.926907 0.926758 0.926594 0.926484 0.926431 0.92644 0.926746 0.926658 0.926511 0.926256 0.926012 0.9258 0.925661 0.925603 0.925679 0.926749 0.928567 0.927048 0.92621 0.924365 0.922539 0.92176 0.915986 0.920445 0.88693 0.894538 0.824095 0.817447 0.715979 0.653661 0.533219 0.417985 0.292665 0.181855 0.0971154 0.0445838 0.0182057 0.00695424 0.00257703 0.000943348 0.000343639 0.000124904 4.53382e-05 1.64373e-05 5.95137e-06 2.15132e-06 7.76145e-07 2.79357e-07 1.00268e-07 3.58722e-08 1.27859e-08 4.53799e-09 1.6032e-09 5.63335e-10 1.96899e-10 6.84363e-11 2.36031e-11 8.06649e-12 2.87016e-12 9.4508e-13 3.26627e-13 1.38235e-13 -3.20675e-14 -5.36239e-14 1.43377e-15 0 0 -8.10923e-16 -2.97276e-16 -1.17995e-15 3.64984e-16 -1.93768e-15 -3.73196e-16 4.54851e-16 -3.90859e-17 4.58581e-15 -3.74438e-16 5.75791e-15 -9.42131e-16 1.16843e-14 1.26227e-14 5.61172e-15 2.82378e-15 1.28752e-15 1.85521e-15 6.86682e-15 1.31011e-15 5.22541e-15 1.8822e-14 -1.2359e-14 -3.00311e-15 -2.05514e-14 8.312e-15 9.8672e-15 1.52471e-14 -1.11437e-14 3.96144e-14 1.33666e-14 4.8166e-14 5.01295e-14 1.2657e-14 1.08247e-13 1.51163e-13 7.88078e-13 4.35897e-12 2.62711e-11 1.48099e-10 7.95516e-10 4.0579e-09 1.96176e-08 8.96901e-08 3.86814e-07 1.56921e-06 5.96848e-06 2.12039e-05 7.00531e-05 0.000214125 0.000601946 0.00154615 0.00360492 0.00758906 0.0143942 0.0246658 0.0385083 0.0554837 0.0748865 0.0960507 0.1185 0.141948 0.166243 0.191309 0.217114 0.243651 0.270924 0.298952 0.327759 0.357374 0.387833 0.419178 0.451452 0.484706 0.518993 0.554368 0.590889 0.628612 0.667585 0.707837 0.749349 0.792007 0.835467 0.878837 0.919787 0.952098 0.960865 0.952601 0.944862 0.937988 0.933061 0.930126 0.928618 0.927914 0.927585 0.927411 0.927301 0.927227 0.927183 0.927141 0.92713 0.92712 0.927109 0.927098 0.927088 0.927079 0.927072 0.927066 0.927064 0.927066 0.927091 0.927121 0.927118 0.927118 0.927118 0.927118 0.927121 0.92715 0.927242 0.927267 0.927241 0.927173 0.927114 0.927044 0.926961 0.926881 0.926805 0.926741 0.926692 0.926665 0.926656 0.926728 0.927027 0.927013 0.926907 0.926758 0.926594 0.926484 0.926431 0.92644 0.926746 0.926658 0.926511 0.926256 0.926012 0.9258 0.925661 0.925603 0.925679 0.926749 0.928567 0.927048 0.92621 0.924365 0.922539 0.92176 0.915986 0.920445 0.88693 0.894538 0.824095 0.817447 0.715979 0.653661 0.533219 0.417985 0.292665 0.181855 0.0971154 0.0445838 0.0182057 0.00695424 0.00257703 0.000943348 0.000343639 0.000124904 4.53382e-05 1.64373e-05 5.95137e-06 2.15132e-06 7.76145e-07 2.79357e-07 1.00269e-07 3.58722e-08 1.27859e-08 4.53807e-09 1.60309e-09 5.63336e-10 1.97003e-10 6.83884e-11 2.37763e-11 8.0729e-12 2.81845e-12 9.52901e-13 3.02166e-13 -2.8017e-14 -2.66927e-14 -1.42582e-14 3.48679e-14 0 0 -1.31968e-15 1.24358e-15 -1.02008e-15 -2.30095e-15 8.56704e-16 -2.88655e-16 2.0401e-15 2.46375e-16 4.34871e-15 6.75095e-15 -1.05448e-15 5.16958e-15 8.57612e-15 8.29709e-15 1.01092e-14 -2.54635e-15 -1.09976e-14 1.21422e-14 1.28123e-14 -9.58564e-15 -6.45029e-15 9.27218e-15 -4.6973e-15 1.10736e-16 7.39301e-15 -1.25108e-14 2.16393e-14 2.36061e-14 -1.52607e-15 6.29898e-15 5.15868e-14 7.05079e-14 3.84209e-14 1.85347e-14 1.14152e-13 1.36212e-13 7.67701e-13 4.42208e-12 2.61843e-11 1.48071e-10 7.95485e-10 4.05788e-09 1.96176e-08 8.96901e-08 3.86814e-07 1.56921e-06 5.96848e-06 2.12039e-05 7.00531e-05 0.000214125 0.000601946 0.00154615 0.00360492 0.00758906 0.0143942 0.0246658 0.0385083 0.0554837 0.0748865 0.0960507 0.1185 0.141948 0.166243 0.191309 0.217114 0.243651 0.270924 0.298952 0.327759 0.357374 0.387833 0.419178 0.451452 0.484706 0.518993 0.554368 0.590889 0.628612 0.667585 0.707837 0.749349 0.792007 0.835467 0.878837 0.919787 0.952098 0.960865 0.952601 0.944862 0.937988 0.933061 0.930126 0.928618 0.927914 0.927585 0.927411 0.927301 0.927227 0.927183 0.927141 0.92713 0.92712 0.927109 0.927098 0.927088 0.927079 0.927072 0.927066 0.927064 0.927066 0.927091 0.927121 0.927118 0.927118 0.927118 0.927118 0.927121 0.92715 0.927242 0.927267 0.927241 0.927173 0.927114 0.927044 0.926961 0.926881 0.926805 0.926741 0.926692 0.926665 0.926656 0.926728 0.927027 0.927013 0.926907 0.926758 0.926594 0.926484 0.926431 0.92644 0.926746 0.926658 0.926511 0.926256 0.926012 0.9258 0.925661 0.925603 0.925679 0.926749 0.928567 0.927048 0.92621 0.924365 0.922539 0.92176 0.915986 0.920445 0.88693 0.894538 0.824095 0.817447 0.715979 0.653661 0.533219 0.417985 0.292665 0.181855 0.0971154 0.0445838 0.0182057 0.00695424 0.00257703 0.000943348 0.000343639 0.000124904 4.53382e-05 1.64373e-05 5.95137e-06 2.15132e-06 7.76145e-07 2.79357e-07 1.00269e-07 3.58723e-08 1.27859e-08 4.53817e-09 1.60302e-09 5.63334e-10 1.96946e-10 6.84935e-11 2.38194e-11 8.5171e-12 2.76535e-12 7.20801e-13 3.06626e-13 -1.08196e-13 -2.37834e-14 1.09062e-14 -6.31002e-15 0 0 2.38876e-15 7.44477e-16 4.44778e-16 -7.43726e-16 -4.15212e-15 3.30614e-15 2.89053e-15 -8.74745e-15 4.69431e-15 1.43662e-15 -3.03578e-15 9.6352e-16 1.5709e-14 -2.49174e-15 -2.6823e-15 3.17751e-15 3.09386e-15 1.05856e-14 1.27822e-14 -4.60264e-15 -1.76955e-14 1.55339e-14 1.37881e-14 -5.28308e-15 -4.21198e-15 1.07446e-15 1.94012e-14 4.3953e-14 -1.05329e-14 7.61813e-15 7.57776e-14 6.59452e-14 2.53578e-14 5.92823e-14 1.01978e-13 1.57592e-13 6.88492e-13 4.43053e-12 2.6218e-11 1.48027e-10 7.95509e-10 4.05787e-09 1.96176e-08 8.96901e-08 3.86814e-07 1.56921e-06 5.96848e-06 2.12039e-05 7.00531e-05 0.000214125 0.000601946 0.00154615 0.00360492 0.00758906 0.0143942 0.0246658 0.0385083 0.0554837 0.0748865 0.0960507 0.1185 0.141948 0.166243 0.191309 0.217114 0.243651 0.270924 0.298952 0.327759 0.357374 0.387833 0.419178 0.451452 0.484706 0.518993 0.554368 0.590889 0.628612 0.667585 0.707837 0.749349 0.792007 0.835467 0.878837 0.919787 0.952098 0.960865 0.952601 0.944862 0.937988 0.933061 0.930126 0.928618 0.927914 0.927585 0.927411 0.927301 0.927227 0.927183 0.927141 0.92713 0.92712 0.927109 0.927098 0.927088 0.927079 0.927072 0.927066 0.927064 0.927066 0.927091 0.927121 0.927118 0.927118 0.927118 0.927118 0.927121 0.92715 0.927242 0.927267 0.927241 0.927173 0.927114 0.927044 0.926961 0.926881 0.926805 0.926741 0.926692 0.926665 0.926656 0.926728 0.927027 0.927013 0.926907 0.926758 0.926594 0.926484 0.926431 0.92644 0.926746 0.926658 0.926511 0.926256 0.926012 0.9258 0.925661 0.925603 0.925679 0.926749 0.928567 0.927048 0.92621 0.924365 0.922539 0.92176 0.915986 0.920445 0.88693 0.894538 0.824095 0.817447 0.715979 0.653661 0.533219 0.417985 0.292665 0.181855 0.0971154 0.0445838 0.0182057 0.00695424 0.00257703 0.000943348 0.000343639 0.000124904 4.53382e-05 1.64373e-05 5.95137e-06 2.15132e-06 7.76145e-07 2.79357e-07 1.00269e-07 3.58724e-08 1.27859e-08 4.5381e-09 1.60321e-09 5.63337e-10 1.96991e-10 6.85649e-11 2.37463e-11 8.53858e-12 2.89999e-12 8.12887e-13 9.60903e-15 1.12428e-13 -3.32245e-14 1.94265e-14 2.04494e-14 0 0 6.09285e-15 -4.31162e-16 2.48025e-15 -1.96844e-15 -6.59313e-15 -2.5058e-15 3.34848e-15 8.09519e-16 -4.54942e-15 -3.99151e-15 -1.77942e-15 9.51143e-16 1.49592e-14 -9.15927e-15 -9.83164e-15 9.41294e-15 2.63708e-14 -1.03118e-14 2.13993e-14 -1.56197e-14 9.19174e-15 8.90246e-16 3.25936e-14 -1.00537e-14 -2.11102e-14 1.4652e-14 3.96213e-14 2.30201e-14 -1.5985e-14 5.03094e-14 4.80735e-14 4.12314e-14 6.4687e-14 4.97489e-14 1.60375e-13 1.29175e-13 6.36474e-13 4.43254e-12 2.62641e-11 1.48016e-10 7.95539e-10 4.05788e-09 1.96175e-08 8.96901e-08 3.86814e-07 1.56921e-06 5.96848e-06 2.12039e-05 7.00531e-05 0.000214125 0.000601946 0.00154615 0.00360492 0.00758906 0.0143942 0.0246658 0.0385083 0.0554837 0.0748865 0.0960507 0.1185 0.141948 0.166243 0.191309 0.217114 0.243651 0.270924 0.298952 0.327759 0.357374 0.387833 0.419178 0.451452 0.484706 0.518993 0.554368 0.590889 0.628612 0.667585 0.707837 0.749349 0.792007 0.835467 0.878837 0.919787 0.952098 0.960865 0.952601 0.944862 0.937988 0.933061 0.930126 0.928618 0.927914 0.927585 0.927411 0.927301 0.927227 0.927183 0.927141 0.92713 0.92712 0.927109 0.927098 0.927088 0.927079 0.927072 0.927066 0.927064 0.927066 0.927091 0.927121 0.927118 0.927118 0.927118 0.927118 0.927121 0.92715 0.927242 0.927267 0.927241 0.927173 0.927114 0.927044 0.926961 0.926881 0.926805 0.926741 0.926692 0.926665 0.926656 0.926728 0.927027 0.927013 0.926907 0.926758 0.926594 0.926484 0.926431 0.92644 0.926746 0.926658 0.926511 0.926256 0.926012 0.9258 0.925661 0.925603 0.925679 0.926749 0.928567 0.927048 0.92621 0.924365 0.922539 0.92176 0.915986 0.920445 0.88693 0.894538 0.824095 0.817447 0.715979 0.653661 0.533219 0.417985 0.292665 0.181855 0.0971154 0.0445838 0.0182057 0.00695424 0.00257703 0.000943348 0.000343639 0.000124904 4.53382e-05 1.64373e-05 5.95137e-06 2.15132e-06 7.76145e-07 2.79357e-07 1.00269e-07 3.58723e-08 1.27859e-08 4.53814e-09 1.60323e-09 5.63411e-10 1.97121e-10 6.84788e-11 2.38352e-11 8.15626e-12 2.98952e-12 1.04759e-12 -1.89626e-13 2.34228e-13 -2.01183e-15 1.27317e-13 2.61112e-14 0
				</DataArray>
				<DataArray Name="VitesseY" type="Float32" format="ascii">