<?xml version="1.0"?>
<VTKFile type="PolyData">
	<PolyData>
		<Piece NumberOfPoints="1206" NumberOfPolys="1000">
			<Points>
				<DataArray type="Float32" NumberOfComponents="3" format="ascii">
 0 0 0 0.005 0 0 0.01 0 0 0.015 0 0 0.02 0 0 0.025 0 0 0.03 0 0 0.035 0 0 0.04 0 0 0.045 0 0 0.05 0 0 0.055 0 0 0.06 0 0 0.065 0 0 0.07 0 0 0.075 0 0 0.08 0 0 0.085 0 0 0.09 0 0 0.095 0 0 0.1 0 0 0.105 0 0 0.11 0 0 0.115 0 0 0.12 0 0 0.125 0 0 0.13 0 0 0.135 0 0 0.14 0 0 0.145 0 0 0.15 0 0 0.155 0 0 0.16 0 0 0.165 0 0 0.17 0 0 0.175 0 0 0.18 0 0 0.185 0 0 0.19 0 0 0.195 0 0 0.2 0 0 0.205 0 0 0.21 0 0 0.215 0 0 0.22 0 0 0.225 0 0 0.23 0 0 0.235 0 0 0.24 0 0 0.245 0 0 0.25 0 0 0.255 0 0 0.26 0 0 0.265 0 0 0.27 0 0 0.275 0 0 0.28 0 0 0.285 0 0 0.29 0 0 0.295 0 0 0.3 0 0 0.305 0 0 0.31 0 0 0.315 0 0 0.32 0 0 0.325 0 0 0.33 0 0 0.335 0 0 0.34 0 0 0.345 0 0 0.35 0 0 0.355 0 0 0.36 0 0 0.365 0 0 0.37 0 0 0.375 0 0 0.38 0 0 0.385 0 0 0.39 0 0 0.395 0 0 0.4 0 0 0.405 0 0 0.41 0 0 0.415 0 0 0.420001 0 0 0.425005 0 0 0.430024 0 0 0.435086 0 0 0.440257 0 0 0.445631 0 0 0.451317 0 0 0.45742 0 0 0.464051 0 0 0.471337 0 0 0.479447 0 0 0.488597 0 0 0.499054 0 0 0.510947 0 0 0.523426 0 0 0.535511 0 0 0.547376 0 0 0.549997 0 0 0.552542 0 0 0.555043 0 0 0.557513 0 0 0.559963 0 0 0.562401 0 0 0.564829 0 0 0.567253 0 0 0.569675 0 0 0.572103 0 0 0.57454 0 0 0.577007 0 0 0.579507 0 0 0.582085 0 0 0.58473 0 0 0.587534 0 0 0.590505 0 0 0.593766 0 0 0.59735 0 0 0.601314 0 0 0.60564 0 0 0.610267 0 0 0.615097 0 0 0.620032 0 0 0.62501 0 0 0.630003 0 0 0.635001 0 0 0.64 0 0 0.645 0 0 0.65 0 0 0.655 0 0 0.66 0 0 0.665 0 0 0.67 0 0 0.675 0 0 0.68 0 0 0.685 0 0 0.69 0 0 0.695 0 0 0.7 0 0 0.705 0 0 0.71 0 0 0.715 0 0 0.72 0 0 0.725 0 0 0.73 0 0 0.735 0 0 0.74 0 0 0.745 0 0 0.75 0 0 0.755 0 0 0.76 0 0 0.765 0 0 0.77 0 0 0.775 0 0 0.78 0 0 0.785 0 0 0.79 0 0 0.795 0 0 0.8 0 0 0.805 0 0 0.81 0 0 0.815 0 0 0.82 0 0 0.825 0 0 0.83 0 0 0.835 0 0 0.84 0 0 0.845 0 0 0.85 0 0 0.855 0 0 0.86 0 0 0.865 0 0 0.87 0 0 0.875 0 0 0.88 0 0 0.885 0 0 0.89 0 0 0.895 0 0 0.9 0 0 0.905 0 0 0.91 0 0 0.915 0 0 0.92 0 0 0.925 0 0 0.93 0 0 0.935 0 0 0.94 0 0 0.945 0 0 0.95 0 0 0.955 0 0 0.96 0 0 0.965 0 0 0.97 0 0 0.975 0 0 0.98 0 0 0.985 0 0 0.99 0 0 0.995 0 0 1 0 0 0 0.02 0 0.005 0.02 0 0.01 0.02 0 0.015 0.02 0 0.02 0.02 0 0.025 0.02 0 0.03 0.02 0 0.035 0.02 0 0.04 0.02 0 0.045 0.02 0 0.05 0.02 0 0.055 0.02 0 0.06 0.02 0 0.065 0.02 0 0.07 0.02 0 0.075 0.02 0 0.08 0.02 0 0.085 0.02 0 0.09 0.02 0 0.095 0.02 0 0.1 0.02 0 0.105 0.02 0 0.11 0.02 0 0.115 0.02 0 0.12 0.02 0 0.125 0.02 0 0.13 0.02 0 0.135 0.02 0 0.14 0.02 0 0.145 0.02 0 0.15 0.02 0 0.155 0.02 0 0.16 0.02 0 0.165 0.02 0 0.17 0.02 0 0.175 0.02 0 0.18 0.02 0 0.185 0.02 0 0.19 0.02 0 0.195 0.02 0 0.2 0.02 0 0.205 0.02 0 0.21 0.02 0 0.215 0.02 0 0.22 0.02 0 0.225 0.02 0 0.23 0.02 0 0.235 0.02 0 0.24 0.02 0 0.245 0.02 0 0.25 0.02 0 0.255 0.02 0 0.26 0.02 0 0.265 0.02 0 0.27 0.02 0 0.275 0.02 0 0.28 0.02 0 0.285 0.02 0 0.29 0.02 0 0.295 0.02 0 0.3 0.02 0 0.305 0.02 0 0.31 0.02 0 0.315 0.02 0 0.32 0.02 0 0.325 0.02 0 0.33 0.02 0 0.335 0.02 0 0.34 0.02 0 0.345 0.02 0 0.35 0.02 0 0.355 0.02 0 0.36 0.02 0 0.365 0.02 0 0.37 0.02 0 0.375 0.02 0 0.38 0.02 0 0.385 0.02 0 0.39 0.02 0 0.395 0.02 0 0.4 0.02 0 0.405 0.02 0 0.41 0.02 0 0.415 0.02 0 0.420001 0.02 0 0.425005 0.02 0 0.430024 0.02 0 0.435086 0.02 0 0.440257 0.02 0 0.445631 0.02 0 0.451317 0.02 0 0.45742 0.02 0 0.464051 0.02 0 0.471337 0.02 0 0.479447 0.02 0 0.488597 0.02 0 0.499054 0.02 0 0.510947 0.02 0 0.523426 0.02 0 0.535511 0.02 0 0.547376 0.02 0 0.549997 0.02 0 0.552542 0.02 0 0.555043 0.02 0 0.557513 0.02 0 0.559963 0.02 0 0.562401 0.02 0 0.564829 0.02 0 0.567253 0.02 0 0.569675 0.02 0 0.572103 0.02 0 0.57454 0.02 0 0.577007 0.02 0 0.579507 0.02 0 0.582085 0.02 0 0.58473 0.02 0 0.587534 0.02 0 0.590505 0.02 0 0.593766 0.02 0 0.59735 0.02 0 0.601314 0.02 0 0.60564 0.02 0 0.610267 0.02 0 0.615097 0.02 0 0.620032 0.02 0 0.62501 0.02 0 0.630003 0.02 0 0.635001 0.02 0 0.64 0.02 0 0.645 0.02 0 0.65 0.02 0 0.655 0.02 0 0.66 0.02 0 0.665 0.02 0 0.67 0.02 0 0.675 0.02 0 0.68 0.02 0 0.685 0.02 0 0.69 0.02 0 0.695 0.02 0 0.7 0.02 0 0.705 0.02 0 0.71 0.02 0 0.715 0.02 0 0.72 0.02 0 0.725 0.02 0 0.73 0.02 0 0.735 0.02 0 0.74 0.02 0 0.745 0.02 0 0.75 0.02 0 0.755 0.02 0 0.76 0.02 0 0.765 0.02 0 0.77 0.02 0 0.775 0.02 0 0.78 0.02 0 0.785 0.02 0 0.79 0.02 0 0.795 0.02 0 0.8 0.02 0 0.805 0.02 0 0.81 0.02 0 0.815 0.02 0 0.82 0.02 0 0.825 0.02 0 0.83 0.02 0 0.835 0.02 0 0.84 0.02 0 0.845 0.02 0 0.85 0.02 0 0.855 0.02 0 0.86 0.02 0 0.865 0.02 0 0.87 0.02 0 0.875 0.02 0 0.88 0.02 0 0.885 0.02 0 0.89 0.02 0 0.895 0.02 0 0.9 0.02 0 0.905 0.02 0 0.91 0.02 0 0.915 0.02 0 0.92 0.02 0 0.925 0.02 0 0.93 0.02 0 0.935 0.02 0 0.94 0.02 0 0.945 0.02 0 0.95 0.02 0 0.955 0.02 0 0.96 0.02 0 0.965 0.02 0 0.97 0.02 0 0.975 0.02 0 0.98 0.02 0 0.985 0.02 0 0.99 0.02 0 0.995 0.02 0 1 0.02 0 0 0.04 0 0.005 0.04 0 0.01 0.04 0 0.015 0.04 0 0.02 0.04 0 0.025 0.04 0 0.03 0.04 0 0.035 0.04 0 0.04 0.04 0 0.045 0.04 0 0.05 0.04 0 0.055 0.04 0 0.06 0.04 0 0.065 0.04 0 0.07 0.04 0 0.075 0.04 0 0.08 0.04 0 0.085 0.04 0 0.09 0.04 0 0.095 0.04 0 0.1 0.04 0 0.105 0.04 0 0.11 0.04 0 0.115 0.04 0 0.12 0.04 0 0.125 0.04 0 0.13 0.04 0 0.135 0.04 0 0.14 0.04 0 0.145 0.04 0 0.15 0.04 0 0.155 0.04 0 0.16 0.04 0 0.165 0.04 0 0.17 0.04 0 0.175 0.04 0 0.18 0.04 0 0.185 0.04 0 0.19 0.04 0 0.195 0.04 0 0.2 0.04 0 0.205 0.04 0 0.21 0.04 0 0.215 0.04 0 0.22 0.04 0 0.225 0.04 0 0.23 0.04 0 0.235 0.04 0 0.24 0.04 0 0.245 0.04 0 0.25 0.04 0 0.255 0.04 0 0.26 0.04 0 0.265 0.04 0 0.27 0.04 0 0.275 0.04 0 0.28 0.04 0 0.285 0.04 0 0.29 0.04 0 0.295 0.04 0 0.3 0.04 0 0.305 0.04 0 0.31 0.04 0 0.315 0.04 0 0.32 0.04 0 0.325 0.04 0 0.33 0.04 0 0.335 0.04 0 0.34 0.04 0 0.345 0.04 0 0.35 0.04 0 0.355 0.04 0 0.36 0.04 0 0.365 0.04 0 0.37 0.04 0 0.375 0.04 0 0.38 0.04 0 0.385 0.04 0 0.39 0.04 0 0.395 0.04 0 0.4 0.04 0 0.405 0.04 0 0.41 0.04 0 0.415 0.04 0 0.420001 0.04 0 0.425005 0.04 0 0.430024 0.04 0 0.435086 0.04 0 0.440257 0.04 0 0.445631 0.04 0 0.451317 0.04 0 0.45742 0.04 0 0.464051 0.04 0 0.471337 0.04 0 0.479447 0.04 0 0.488597 0.04 0 0.499054 0.04 0 0.510947 0.04 0 0.523426 0.04 0 0.535511 0.04 0 0.547376 0.04 0 0.549997 0.04 0 0.552542 0.04 0 0.555043 0.04 0 0.557513 0.04 0 0.559963 0.04 0 0.562401 0.04 0 0.564829 0.04 0 0.567253 0.04 0 0.569675 0.04 0 0.572103 0.04 0 0.57454 0.04 0 0.577007 0.04 0 0.579507 0.04 0 0.582085 0.04 0 0.58473 0.04 0 0.587534 0.04 0 0.590505 0.04 0 0.593766 0.04 0 0.59735 0.04 0 0.601314 0.04 0 0.60564 0.04 0 0.610267 0.04 0 0.615097 0.04 0 0.620032 0.04 0 0.62501 0.04 0 0.630003 0.04 0 0.635001 0.04 0 0.64 0.04 0 0.645 0.04 0 0.65 0.04 0 0.655 0.04 0 0.66 0.04 0 0.665 0.04 0 0.67 0.04 0 0.675 0.04 0 0.68 0.04 0 0.685 0.04 0 0.69 0.04 0 0.695 0.04 0 0.7 0.04 0 0.705 0.04 0 0.71 0.04 0 0.715 0.04 0 0.72 0.04 0 0.725 0.04 0 0.73 0.04 0 0.735 0.04 0 0.74 0.04 0 0.745 0.04 0 0.75 0.04 0 0.755 0.04 0 0.76 0.04 0 0.765 0.04 0 0.77 0.04 0 0.775 0.04 0 0.78 0.04 0 0.785 0.04 0 0.79 0.04 0 0.795 0.04 0 0.8 0.04 0 0.805 0.04 0 0.81 0.04 0 0.815 0.04 0 0.82 0.04 0 0.825 0.04 0 0.83 0.04 0 0.835 0.04 0 0.84 0.04 0 0.845 0.04 0 0.85 0.04 0 0.855 0.04 0 0.86 0.04 0 0.865 0.04 0 0.87 0.04 0 0.875 0.04 0 0.88 0.04 0 0.885 0.04 0 0.89 0.04 0 0.895 0.04 0 0.9 0.04 0 0.905 0.04 0 0.91 0.04 0 0.915 0.04 0 0.92 0.04 0 0.925 0.04 0 0.93 0.04 0 0.935 0.04 0 0.94 0.04 0 0.945 0.04 0 0.95 0.04 0 0.955 0.04 0 0.96 0.04 0 0.965 0.04 0 0.97 0.04 0 0.975 0.04 0 0.98 0.04 0 0.985 0.04 0 0.99 0.04 0 0.995 0.04 0 1 0.04 0 0 0.06 0 0.005 0.06 0 0.01 0.06 0 0.015 0.06 0 0.02 0.06 0 0.025 0.06 0 0.03 0.06 0 0.035 0.06 0 0.04 0.06 0 0.045 0.06 0 0.05 0.06 0 0.055 0.06 0 0.06 0.06 0 0.065 0.06 0 0.07 0.06 0 0.075 0.06 0 0.08 0.06 0 0.085 0.06 0 0.09 0.06 0 0.095 0.06 0 0.1 0.06 0 0.105 0.06 0 0.11 0.06 0 0.115 0.06 0 0.12 0.06 0 0.125 0.06 0 0.13 0.06 0 0.135 0.06 0 0.14 0.06 0 0.145 0.06 0 0.15 0.06 0 0.155 0.06 0 0.16 0.06 0 0.165 0.06 0 0.17 0.06 0 0.175 0.06 0 0.18 0.06 0 0.185 0.06 0 0.19 0.06 0 0.195 0.06 0 0.2 0.06 0 0.205 0.06 0 0.21 0.06 0 0.215 0.06 0 0.22 0.06 0 0.225 0.06 0 0.23 0.06 0 0.235 0.06 0 0.24 0.06 0 0.245 0.06 0 0.25 0.06 0 0.255 0.06 0 0.26 0.06 0 0.265 0.06 0 0.27 0.06 0 0.275 0.06 0 0.28 0.06 0 0.285 0.06 0 0.29 0.06 0 0.295 0.06 0 0.3 0.06 0 0.305 0.06 0 0.31 0.06 0 0.315 0.06 0 0.32 0.06 0 0.325 0.06 0 0.33 0.06 0 0.335 0.06 0 0.34 0.06 0 0.345 0.06 0 0.35 0.06 0 0.355 0.06 0 0.36 0.06 0 0.365 0.06 0 0.37 0.06 0 0.375 0.06 0 0.38 0.06 0 0.385 0.06 0 0.39 0.06 0 0.395 0.06 0 0.4 0.06 0 0.405 0.06 0 0.41 0.06 0 0.415 0.06 0 0.420001 0.06 0 0.425005 0.06 0 0.430024 0.06 0 0.435086 0.06 0 0.440257 0.06 0 0.445631 0.06 0 0.451317 0.06 0 0.45742 0.06 0 0.464051 0.06 0 0.471337 0.06 0 0.479447 0.06 0 0.488597 0.06 0 0.499054 0.06 0 0.510947 0.06 0 0.523426 0.06 0 0.535511 0.06 0 0.547376 0.06 0 0.549997 0.06 0 0.552542 0.06 0 0.555043 0.06 0 0.557513 0.06 0 0.559963 0.06 0 0.562401 0.06 0 0.564829 0.06 0 0.567253 0.06 0 0.569675 0.06 0 0.572103 0.06 0 0.57454 0.06 0 0.577007 0.06 0 0.579507 0.06 0 0.582085 0.06 0 0.58473 0.06 0 0.587534 0.06 0 0.590505 0.06 0 0.593766 0.06 0 0.59735 0.06 0 0.601314 0.06 0 0.60564 0.06 0 0.610267 0.06 0 0.615097 0.06 0 0.620032 0.06 0 0.62501 0.06 0 0.630003 0.06 0 0.635001 0.06 0 0.64 0.06 0 0.645 0.06 0 0.65 0.06 0 0.655 0.06 0 0.66 0.06 0 0.665 0.06 0 0.67 0.06 0 0.675 0.06 0 0.68 0.06 0 0.685 0.06 0 0.69 0.06 0 0.695 0.06 0 0.7 0.06 0 0.705 0.06 0 0.71 0.06 0 0.715 0.06 0 0.72 0.06 0 0.725 0.06 0 0.73 0.06 0 0.735 0.06 0 0.74 0.06 0 0.745 0.06 0 0.75 0.06 0 0.755 0.06 0 0.76 0.06 0 0.765 0.06 0 0.77 0.06 0 0.775 0.06 0 0.78 0.06 0 0.785 0.06 0 0.79 0.06 0 0.795 0.06 0 0.8 0.06 0 0.805 0.06 0 0.81 0.06 0 0.815 0.06 0 0.82 0.06 0 0.825 0.06 0 0.83 0.06 0 0.835 0.06 0 0.84 0.06 0 0.845 0.06 0 0.85 0.06 0 0.855 0.06 0 0.86 0.06 0 0.865 0.06 0 0.87 0.06 0 0.875 0.06 0 0.88 0.06 0 0.885 0.06 0 0.89 0.06 0 0.895 0.06 0 0.9 0.06 0 0.905 0.06 0 0.91 0.06 0 0.915 0.06 0 0.92 0.06 0 0.925 0.06 0 0.93
[...]
			<PointData Scalars="VitesseX">
				<DataArray Name="VitesseX" type="Float32" format="ascii">
 0 1.94535e-16 -3.36249e-16 9.80618e-16 -2.47533e-16 -1.66046e-15 2.14829e-16 1.77435e-15 -1.29152e-15 -2.52662e-15 3.23896e-15 8.79756e-16 1.99609e-15 -1.19216e-14 9.17244e-15 -3.80921e-15 1.64691e-16 3.05869e-15 -1.21651e-14 1.04773e-14 2.97844e-15 -7.3161e-15 -1.11821e-14 4.32463e-17 -1.62429e-15 -1.29412e-14 -2.6451e-14 -3.08097e-16 -2.4204e-14 -7.47957e-15 -8.47274e-15 2.46781e-15 -6.80643e-15 -1.01648e-14 -4.65803e-16 3.41955e-16 -1.935e-14 -2.90887e-14 1.03059e-14 -1.7033e-14 -2.05535e-14 -1.07318e-14 1.42233e-14 2.28402e-14 -1.49055e-14 1.18689e-14 -7.46343e-15 3.25975e-14 2.80928e-15 1.66323e-14 1.66356e-14 -4.85125e-14 2.76947e-14 6.48305e-15 -2.62957e-14 -1.10594e-14 -1.51996e-14 -3.04775e-14 -3.20023e-14 -1.25175e-14 -2.32935e-14 1.70916e-14 -1.54993e-14 -3.25984e-14 -4.65974e-15 -6.68762e-15 -3.86077e-14 3.59326e-14 -3.64249e-14 7.2967e-15 3.37554e-14 -1.95221e-14 -1.07218e-14 -4.8711e-14 1.43539e-14 4.09755e-13 6.41975e-12 9.17714e-11 1.19093e-09 1.38357e-08 1.42809e-07 1.29843e-06 1.02919e-05 7.02151e-05 0.000405703 0.00194535 0.00755983 0.0233127 0.0567297 0.111342 0.184514 0.271765 0.370633 0.480829 0.603019 0.737059 0.876152 0.980581 0.960069 0.937205 0.926522 0.926182 0.926088 0.926071 0.926176 0.925909 0.925938 0.92421 0.924239 0.918947 0.91953 0.903496 0.905726 0.862948 0.869206 0.78425 0.777073 0.648734 0.56915 0.42583 0.296749 0.175283 0.086664 0.0352971 0.0123714 0.00395884 0.00120154 0.000351256 9.93402e-05 2.71916e-05 7.19912e-06 1.84222e-06 4.55386e-07 1.08703e-07 2.50522e-08 5.574e-09 1.19723e-09 2.48331e-10 4.96766e-11 9.54062e-12 1.78752e-12 2.85211e-13 3.37284e-14 -4.30143e-14 1.69027e-14 -6.07342e-14 9.42879e-14 -8.71629e-14 6.72615e-15 5.31474e-14 -1.28594e-13 9.52668e-14 -8.4894e-14 2.01194e-14 -9.18449e-14 2.5408e-15 -5.07169e-14 -5.32948e-14 3.23713e-14 -4.8486e-14 -5.08502e-14 -8.65786e-14 7.03776e-14 -7.09583e-14 6.53525e-15 -9.67155e-15 1.15255e-13 -7.27119e-14 -1.17378e-14 4.10889e-15 1.16826e-14 6.28624e-14 4.28306e-14 -3.70653e-14 1.01802e-13 -1.57138e-14 -3.14253e-15 -6.56431e-14 -4.20948e-14 6.70553e-14 -8.32927e-14 1.14584e-13 4.25193e-14 -1.49151e-14 -2.97805e-14 7.35399e-14 6.3779e-14 -1.18202e-13 -2.42383e-14 2.30567e-14 8.82211e-14 8.59271e-14 7.46366e-15 7.81951e-14 9.61006e-14 1.47934e-14 1.86884e-14 7.16821e-14 3.17053e-14 3.77857e-14 0 0 -2.71852e-16 -3.6327e-16 -9.32776e-16 1.55489e-15 -1.37213e-15 -1.06924e-15 -2.2475e-15 2.71878e-15 7.18328e-16 -2.34167e-15 2.76256e-15 -5.84307e-16 2.81437e-15 -1.27247e-14 9.13741e-15 1.29932e-15 -3.00628e-15 1.17782e-16 -3.16187e-15 2.41197e-15 -8.33528e-15 4.3807e-15 -1.19538e-14 -1.07947e-14 -1.64248e-14 -4.90619e-15 -2.48393e-14 -1.34553e-14 -8.32552e-15 -1.05033e-14 -5.69363e-15 -1.8486e-14 -6.98577e-16 -5.82115e-15 -3.72213e-15 -1.66935e-14 -1.58669e-14 -1.82272e-14 -2.01849e-14 -6.4992e-15 6.9877e-15 -4.35203e-15 3.0537e-15 2.27613e-14 -8.83434e-15 2.55467e-14 -1.28883e-14 2.65997e-14 1.73124e-14 8.40729e-15 7.7489e-15 -1.26217e-14 -3.83916e-15 1.23603e-14 -2.97072e-14 -3.58517e-14 -2.65401e-14 -2.7524e-14 -5.52369e-14 1.45455e-14 1.83736e-14 -2.29526e-14 -4.43237e-14 -1.53866e-14 -1.13999e-14 3.54723e-16 -2.83841e-14 1.89986e-15 1.48067e-14 -3.21648e-15 9.22718e-15 -1.85298e-14 -9.05505e-15 -6.94347e-15 4.54688e-13 6.39534e-12 9.17823e-11 1.19094e-09 1.38357e-08 1.42809e-07 1.29843e-06 1.02919e-05 7.02151e-05 0.000405703 0.00194535 0.00755983 0.0233127 0.0567297 0.111342 0.184514 0.271765 0.370633 0.480829 0.603019 0.737059 0.876152 0.980581 0.960069 0.937205 0.926522 0.926182 0.926088 0.926071 0.926176 0.925909 0.925938 0.92421 0.924239 0.918947 0.91953 0.903496 0.905726 0.862948 0.869206 0.78425 0.777073 0.648734 0.56915 0.42583 0.296749 0.175283 0.086664 0.0352971 0.0123714 0.00395884 0.00120154 0.000351256 9.93402e-05 2.71916e-05 7.19912e-06 1.84222e-06 4.55386e-07 1.08703e-07 2.50522e-08 5.57394e-09 1.19727e-09 2.48316e-10 4.96441e-11 9.58284e-12 1.70516e-12 2.85476e-13 5.80459e-14 -4.12541e-14 4.23538e-14 -2.36556e-14 4.19194e-14 -5.12233e-14 -8.86834e-14 -1.28066e-14 3.88102e-14 -6.807e-14 -2.64173e-15 -8.35829e-14 -3.77156e-14 -4.54749e-14 -2.73161e-15 4.35057e-15 -1.26605e-14 -1.18866e-14 -5.29298e-14 1.64038e-14 -2.40808e-14 -2.46516e-14 -8.60042e-14 9.14634e-14 2.51562e-14 1.14861e-14 -4.73926e-15 -3.11481e-14 -5.63373e-14 6.16477e-14 1.13012e-14 2.08624e-14 -2.05243e-14 3.43456e-14 6.3364e-15 -6.54105e-14 5.75363e-14 -4.19716e-14 -2.67478e-14 7.20397e-14 1.20036e-13 -6.38128e-14 -4.97071e-14 8.90926e-14 -9.86059e-15 -4.67634e-14 9.49691e-15 3.49351e-14 3.64453e-14 6.78065e-14 8.81868e-14 8.58745e-14 5.26029e-14 7.53202e-14 5.38271e-14 4.22785e-14 -9.83933e-16 4.28436e-14 0 0 -1.83884e-16 -7.37484e-16 -7.91361e-18 6.9658e-16 -7.53195e-18 -1.93893e-15 -4.81123e-16 -3.09359e-15 2.08847e-15 -2.04814e-15 2.98771e-15 -4.56753e-16 3.34446e-15 -6.5445e-15 -1.6875e-15 -7.42856e-16 2.14355e-15 6.45637e-16 -8.58214e-15 -3.27919e-15 -1.64513e-15 6.18176e-15 -8.36733e-15 -3.01373e-14 -5.76154e-15 -3.74307e-14 -2.27618e-14 -4.5167e-15 -1.25301e-14 -2.9907e-14 1.0379e-14 -2.52241e-14 -1.05043e-15 -2.33051e-14 -6.34517e-15 -3.01226e-14 -7.8422e-15 -3.48354e-14 -1.42004e-14 3.62203e-14 2.38157e-15 -1.62995e-14 -4.51183e-16 2.27357e-14 1.48807e-14 2.07954e-14 -1.99478e-14 2.669e-14 2.29926e-14 1.32214e-14 1.23429e-15 -2.43518e-14 1.94489e-14 4.84093e-15 -2.97257e-14 -5.03155e-14 -3.62855e-14 -4.86424e-14 -5.53911e-14 2.10914e-14 6.96669e-15 5.01109e-15 -7.3657e-14 -4.20563e-14 -1.37536e-15 -2.07954e-14 -1.20037e-14 3.06714e-14 -6.21195e-14 2.47322e-14 2.13053e-14 -4.25304e-14 4.72323e-14 -4.44038e-15 4.70763e-13 6.42009e-12 9.17895e-11 1.19094e-09 1.38358e-08 1.42809e-07 1.29843e-06 1.02919e-05 7.02151e-05 0.000405703 0.00194535 0.00755983 0.0233127 0.0567297 0.111342 0.184514 0.271765 0.370633 0.480829 0.603019 0.737059 0.876152 0.980581 0.960069 0.937205 0.926522 0.926182 0.926088 0.926071 0.926176 0.925909 0.925938 0.92421 0.924239 0.918947 0.91953 0.903496 0.905726 0.862948 0.869206 0.78425 0.777073 0.648734 0.56915 0.42583 0.296749 0.175283 0.086664 0.0352971 0.0123714 0.00395884 0.00120154 0.000351256 9.93402e-05 2.71916e-05 7.19912e-06 1.84222e-06 4.55386e-07 1.08703e-07 2.50522e-08 5.57394e-09 1.19725e-09 2.48293e-10 4.96374e-11 9.51701e-12 1.67987e-12 2.50482e-13 3.3997e-14 -2.56717e-14 3.09778e-14 -2.16198e-14 2.4882e-14 -1.08128e-14 -1.04057e-13 -6.89978e-14 3.72946e-15 -4.91876e-14 -4.25022e-15 -9.97146e-14 -4.10877e-14 -6.35189e-14 -4.35579e-14 6.44562e-14 7.36632e-14 -6.56099e-15 -3.09574e-14 -7.91877e-14 -1.65432e-13 5.47951e-14 -7.27828e-14 1.25043e-13 -1.99127e-14 6.35592e-14 -3.20337e-14 -5.19177e-14 -3.268e-14 2.50749e-14 4.82822e-14 3.32234e-14 -8.79786e-14 4.40288e-14 -3.35662e-14 5.40804e-14 7.25777e-14 -2.87057e-14 -3.40305e-15 6.8163e-14 1.17171e-13 -9.90186e-14 -7.06073e-14 -4.75331e-14 9.36219e-14 7.64309e-14 -6.10312e-14 -5.52778e-14 1.09034e-13 6.2777e-14 1.75893e-13 1.21768e-13 1.2633e-13 5.54761e-14 7.86798e-14 -3.38465e-14 1.9138e-14 7.21931e-14 0 0 7.94477e-16 1.15898e-15 1.69158e-15 4.24288e-16 2.64188e-16 -1.89122e-15 -8.53038e-16 -5.00586e-15 -2.52374e-15 -5.97815e-17 -3.16502e-15 2.93711e-15 2.47176e-15 -4.32157e-15 -9.83532e-15 4.06837e-15 1.02891e-14 -5.10019e-15 -1.31387e-14 -9.53874e-15 8.74023e-15 9.31755e-15 -8.44514e-15 -3.16694e-14 -2.20352e-14 -4.61662e-14 -1.57438e-14 -4.75333e-14 -1.59138e-14 -1.24249e-14 -3.61269e-15 -1.46947e-14 6.05474e-15 -2.52385e-14 -1.40814e-14 -3.51696e-14 -2.71195e-15 -3.9459e-14 -1.8493e-14 6.52361e-14 -1.52948e-14 -1.34025e-14 9.01603e-15 -8.86788e-16 1.42472e-14 1.87691e-16 3.00432e-14 2.90127e-14 1.92733e-14 3.15967e-14 -3.47102e-14 -1.42221e-14 1.48058e-14 -2.33282e-14 -3.44893e-14 -5.88773e-14 4.07214e-15 -6.73717e-14 -2.09983e-14 -4.6057e-14 2.29514e-15 -3.77174e-15 -6.21339e-14 -6.13416e-14 -5.99952e-14 -2.5813e-14 5.60328e-14 -2.53763e-14 -3.72946e-14 3.7854e-15 -1.65184e-14 -2.29995e-14 3.43049e-14 5.84699e-14 4.85826e-13 6.44184e-12 9.17874e-11 1.19095e-09 1.38357e-08 1.42809e-07 1.29843e-06 1.02919e-05 7.02151e-05 0.000405703 0.00194535 0.00755983 0.0233127 0.0567297 0.111342 0.184514 0.271765 0.370633 0.480829 0.603019 0.737059 0.876152 0.980581 0.960069 0.937205 0.926522 0.926182 0.926088 0.926071 0.926176 0.925909 0.925938 0.92421 0.924239 0.918947 0.91953 0.903496 0.905726 0.862948 0.869206 0.78425 0.777073 0.648734 0.56915 0.42583 0.296749 0.175283 0.086664 0.0352971 0.0123714 0.00395884 0.00120154 0.000351256 9.93402e-05 2.71916e-05 7.19912e-06 1.84222e-06 4.55386e-07 1.08703e-07 2.50521e-08 5.5739e-09 1.19721e-09 2.4827e-10 4.96476e-11 9.45165e-12 1.67943e-12 1.53764e-13 5.79262e-14 -3.92678e-14 -5.20347e-14 1.53705e-14 2.27674e-14 8.39663e-15 -9.79941e-14 -8.14712e-14 -8.54597e-14 9.24052e-14 1.57679e-14 -1.38209e-13 3.99573e-14 -9.22153e-14 -1.40528e-13 4.33249e-14 9.30142e-14 -4.42138e-14 -3.35019e-14 -8.00109e-14 -7.03965e-14 -1.60755e-13 4.77886e-14 -4.62194e-15 1.76292e-14 6.63698e-14 -8.09428e-15 -6.62654e-14 -5.41799e-14 2.09615e-15 9.17583e-14 8.34257e-14 -7.53076e-14 3.16974e-14 3.81504e-14 5.09606e-15 -5.47827e-16 6.02949e-14 5.8541e-14 1.92042e-13 -8.43031e-14 -8.90644e-14 1.31011e-13 -1.42963e-13 1.39766e-13 -4.42748e-14 -2.88404e-14 6.23952e-15 2.36431e-14 2.02355e-13 1.5071e-13 4.02404e-14 1.89604e-13 -2.49514e-14 1.45112e-13 9.99139e-14 5.19375e-14 5.63977e-14 0 0 5.32376e-16 1.86863e-15 4.19941e-16 2.58315e-15 2.66138e-15 -7.91233e-16 -2.69687e-15 2.08845e-15 -9.157e-15 -1.73453e-15 -7.06813e-15 -2.22944e-15 7.70855e-15 -1.10253e-14 -1.24006e-15 6.50399e-15 4.55222e-15 4.35745e-15 -1.86468e-14 -4.68849e-15 -9.67734e-15 8.22768e-15 5.13233e-15 -1.57275e-14 -3.8386e-14 -1.92124e-14 -2.85803e-14 -6.32569e-14 -4.66269e-14 -1.56899e-14 -9.17368e-15 -1.03123e-14 1.66872e-14 1.0332e-15 -3.05782e-14 -3.24172e-14 8.53508e-15 -4.61405e-14 -5.76272e-14 1.46664e-14 2.27956e-14 -1.47339e-14 1.69804e-14 3.37865e-14 -2.05124e-14 3.40534e-14 8.05181e-15 5.42022e-14 9.42591e-15 2.84379e-14 1.46793e-14 -7.19379e-15 -1.64642e-14 -6.5949e-14 -4.17258e-14 -4.98592e-14 5.05267e-14 -3.49294e-14 -1.06476e-13 -3.66694e-14 -3.62726e-14 -7.43325e-14 -2.68041e-14 -2.89278e-14 -1.00599e-13 1.58137e-14 3.73279e-14 -3.65223e-17 2.70174e-14 -6.8448e-14 -7.02677e-14 -1.30402e-14 -7.50747e-15 5.8953e-14 5.58791e-13 6.45969e-12 9.18544e-11 1.19093e-09 1.38358e-08 1.42809e-07 1.29843e-06 1.02919e-05 7.02151e-05 0.000405703 0.00194535 0.00755983 0.0233127 0.0567297 0.111342 0.184514 0.271765 0.370633 0.480829 0.603019 0.737059 0.876152 0.980581 0.960069 0.937205 0.926522 0.926182 0.926088 0.926071 0.926176 0.925909 0.925938 0.92421 0.924239 0.918947 0.91953 0.903496 0.905726 0.862948 0.869206 0.78425 0.777073 0.648734 0.56915 0.42583 0.296749 0.175283 0.086664 0.0352971 0.0123714 0.00395884 0.00120154 0.000351256 9.93402e-05 2.71916e-05 7.19912e-06 1.84222e-06 4.55386e-07 1.08703e-07 2.50521e-08 5.57381e-09 1.19717e-09 2.48222e-10 4.95431e-11 9.5554e-12 1.60569e-12 1.7965e-13 7.7348e-14 -1.114e-13 -1.05959e-14 6.47757e-14 -8.1096e-15 -2.42122e-14 -7.64691e-14 -1.2833e-13 5.55746e-14 3.91554e-14 4.43048e-15 -1.38536e-13 5.54871e-14 -1.04636e-13 -8.14846e-14 -1.23767e-13 -1.88483e-13 1.05063e-14 -4.7835e-14 7.46669e-14 1.13933e-13 -2.24506e-13 1.01842e-13 -5.33834e-14 1.65292e-14 3.86162e-14 -7.06774e-14 -3.57511e-14 3.51703e-14 -7.77483e-14 6.018e-14 1.36734e-13 7.14353e-15 7.34956e-14 -3.84018e-14 -1.06526e-13 8.61471e-15 1.26198e-14 2.13854e-13 1.14174e-13 1.00041e-14 -1.72823e-14 1.33472e-13 1.18446e-13 -6.23907e-14 -1.91001e-13 5.12945e-14 5.97951e-14 1.27391e-14 1.11388e-13 1.79322e-13 6.06093e-14 7.54295e-14 5.61908e-15 1.89869e-13 1.72454e-13 -6.96644e-15 3.29976e-14 0 0 -1.53733e-16 3.34621e-16 2.8707e-16 2.35357e-15 5.86313e-15 6.75427e-16 1.61944e-15 1.27236e-15 -1.30529e-14 4.76514e-16 -6.47615e-15 -8.08189e-15 -3.879e-16 8.1254e-15 -8.26854e-15 9.51585e-16 1.8845e-15 7.80586e-15 -1.13794e-14 1.29663e-15 -3.07709e-14 -9.7597e-15 3.43712e-14 -8.42589e-15 -2.43164e-14 -3.75923e-14 -2.18262e-14 -3.77739e-14 -7.7315e-14 -5.38102e-14 2.34911e-14 -1.15178e-14 1.03963e-14 1.71098e-14 -3.78977e-14 -4.07035e-14 9.45469e-15 -3.62735e-14 -8.33324e-14 -3.6254e-14 5.62367e-14 -1.23344e-14 3.17592e-14 5.43898e-14 -1.02202e-14 5.07655e-14 -2.55043e-14 5.33686e-14 8.29779e-15 1.99464e-14 3.72373e-14 1.82911e-14 -9.48083e-15 -1.26576e-13 -2.55694e-14 -2.6091e-14 4.29408e-14 -9.35458e-15 -1.83782e-13 8.57341e-15 -8.28577e-14 -1.00693e-13 -2.06054e-14 6.82852e-15 -6.78464e-14 2.34535e-15 3.12838e-14 7.17978e-14 -1.79318e-14 -5.4814e-14 -1.02864e-13 -3.88044e-14 -1.97609e-14 2.03263e-14 5.87835e-13 6.50494e-12 9.19199e-11 1.19089e-09 1.38358e-08 1.42809e-07 1.29843e-06 1.02919e-05 7.02151e-05 0.000405703 0.00194535 0.00755983 0.0233127 0.0567297 0.111342 0.184514 0.271765 0.370633 0.480829 0.603019 0.737059 0.876152 0.980581 0.960069 0.937205 0.926522 0.926182 0.926088 0.926071 0.926176 0.925909 0.925938 0.92421 0.924239 0.918947 0.91953 0.903496 0.905726 0.862948 0.869206 0.78425 0.777073 0.648734 0.56915 0.42583 0.296749 0.175283 0.086664 0.0352971 0.0123714 0.00395884 0.00120154 0.000351256 9.93402e-05 2.71916e-05 7.19912e-06 1.84222e-06 4.55386e-07 1.08703e-07 2.50521e-08 5.57381e-09 1.1971e-09 2.48189e-10 4.94542e-11 9.6164e-12 1.58935e-12 2.67113e-13 2.44496e-14 -1.56138e-13 7.72428e-14 4.2174e-14 -1.41979e-15 -7.11096e-14 1.93402e-14 -1.52937e-13 8.33333e-14 2.68268e-14 -1.10466e-13 -1.29e-14 -6.79083e-14 -5.876e-14 -1.43747e-14 -2.67122e-13 -3.57976e-13 7.14162e-14 -3.60112e-14 3.11273e-14 1.56226e-13 -3.9309e-14 1.41092e-13 -4.04931e-14 2.26083e-14 -2.42297e-14 -1.9168e-13 2.35652e-14 2.37941e-13 -1.69872e-13 5.33391e-14 9.39025e-14 1.3174e-13 8.69747e-14 -2.36424e-13 -4.96456e-14 6.30255e-15 -2.00277e-15 2.74172e-13 -4.90133e-14 2.25135e-13 5.82579e-14 -6.67704e-14 3.23089e-13 -1.33325e-13 -1.65188e-13 -5.00212e-15 -5.03105e-14 2.11483e-13 -1.06152e-13 2.39926e-13 1.90595e-13 1.52636e-14 3.62982e-14 1.57812e-13 6.44155e-14 -4.56999e-14 4.96986e-14 0
				</DataArray>
				<DataArray Name="VitesseY" type="Float32" format="ascii">