<?xml version="1.0"?>
<VTKFile type="PolyData">
	<PolyData>
		<Piece NumberOfPoints="1206" NumberOfPolys="1000">
			<Points>
				<DataArray type="Float32" NumberOfComponents="3" format="ascii">
 0 0 0 0.005 0 0 0.01 0 0 0.015 0 0 0.02 0 0 0.025 0 0 0.03 0 0 0.035 0 0 0.04 0 0 0.045 0 0 0.05 0 0 0.055 0 0 0.06 0 0 0.065 0 0 0.07 0 0 0.075 0 0 0.08 0 0 0.085 0 0 0.09 0 0 0.095 0 0 0.1 0 0 0.105 0 0 0.11 0 0 0.115 0 0 0.12 0 0 0.125 0 0 0.13 0 0 0.135 0 0 0.14 0 0 0.145 0 0 0.15 0 0 0.155 0 0 0.16 0 0 0.165 0 0 0.17 0 0 0.175 0 0 0.18 0 0 0.185 0 0 0.19 0 0 0.195 0 0 0.2 0 0 0.205 0 0 0.21 0 0 0.215 0 0 0.22 0 0 0.225 0 0 0.23 0 0 0.235 0 0 0.24 0 0 0.245 0 0 0.25 0 0 0.255 0 0 0.26 0 0 0.265 0 0 0.27 0 0 0.275 0 0 0.28 0 0 0.285 0 0 0.29 0 0 0.295 0 0 0.3 0 0 0.305 0 0 0.31 0 0 0.315 0 0 0.32 0 0 0.325 0 0 0.33 0 0 0.335 0 0 0.34 0 0 0.345 0 0 0.35 0 0 0.355 0 0 0.36 0 0 0.365 0 0 0.37 0 0 0.375 0 0 0.38 0 0 0.385 0 0 0.39 0 0 0.395 0 0 0.4 0 0 0.405001 0 0 0.410003 0 0 0.415013 0 0 0.420048 0 0 0.425145 0 0 0.430369 0 0 0.435799 0 0 0.441513 0 0 0.447586 0 0 0.454092 0 0 0.461116 0 0 0.468764 0 0 0.47717 0 0 0.486504 0 0 0.496962 0 0 0.508656 0 0 0.521081 0 0 0.533247 0 0 0.545157 0 0 0.556961 0 0 0.559585 0 0 0.562134 0 0 0.564637 0 0 0.567108 0 0 0.569557 0 0 0.57199 0 0 0.574412 0 0 0.576825 0 0 0.579232 0 0 0.581634 0 0 0.584036 0 0 0.586438 0 0 0.588846 0 0 0.59126 0 0 0.5937 0 0 0.596163 0 0 0.59869 0 0 0.601272 0 0 0.603983 0 0 0.606827 0 0 0.609916 0 0 0.613283 0 0 0.617006 0 0 0.621093 0 0 0.625521 0 0 0.630216 0 0 0.635079 0 0 0.640027 0 0 0.645009 0 0 0.650003 0 0 0.655001 0 0 0.66 0 0 0.665 0 0 0.67 0 0 0.675 0 0 0.68 0 0 0.685 0 0 0.69 0 0 0.695 0 0 0.7 0 0 0.705 0 0 0.71 0 0 0.715 0 0 0.72 0 0 0.725 0 0 0.73 0 0 0.735 0 0 0.74 0 0 0.745 0 0 0.75 0 0 0.755 0 0 0.76 0 0 0.765 0 0 0.77 0 0 0.775 0 0 0.78 0 0 0.785 0 0 0.79 0 0 0.795 0 0 0.8 0 0 0.805 0 0 0.81 0 0 0.815 0 0 0.82 0 0 0.825 0 0 0.83 0 0 0.835 0 0 0.84 0 0 0.845 0 0 0.85 0 0 0.855 0 0 0.86 0 0 0.865 0 0 0.87 0 0 0.875 0 0 0.88 0 0 0.885 0 0 0.89 0 0 0.895 0 0 0.9 0 0 0.905 0 0 0.91 0 0 0.915 0 0 0.92 0 0 0.925 0 0 0.93 0 0 0.935 0 0 0.94 0 0 0.945 0 0 0.95 0 0 0.955 0 0 0.96 0 0 0.965 0 0 0.97 0 0 0.975 0 0 0.98 0 0 0.985 0 0 0.99 0 0 0.995 0 0 1 0 0 0 0.02 0 0.005 0.02 0 0.01 0.02 0 0.015 0.02 0 0.02 0.02 0 0.025 0.02 0 0.03 0.02 0 0.035 0.02 0 0.04 0.02 0 0.045 0.02 0 0.05 0.02 0 0.055 0.02 0 0.06 0.02 0 0.065 0.02 0 0.07 0.02 0 0.075 0.02 0 0.08 0.02 0 0.085 0.02 0 0.09 0.02 0 0.095 0.02 0 0.1 0.02 0 0.105 0.02 0 0.11 0.02 0 0.115 0.02 0 0.12 0.02 0 0.125 0.02 0 0.13 0.02 0 0.135 0.02 0 0.14 0.02 0 0.145 0.02 0 0.15 0.02 0 0.155 0.02 0 0.16 0.02 0 0.165 0.02 0 0.17 0.02 0 0.175 0.02 0 0.18 0.02 0 0.185 0.02 0 0.19 0.02 0 0.195 0.02 0 0.2 0.02 0 0.205 0.02 0 0.21 0.02 0 0.215 0.02 0 0.22 0.02 0 0.225 0.02 0 0.23 0.02 0 0.235 0.02 0 0.24 0.02 0 0.245 0.02 0 0.25 0.02 0 0.255 0.02 0 0.26 0.02 0 0.265 0.02 0 0.27 0.02 0 0.275 0.02 0 0.28 0.02 0 0.285 0.02 0 0.29 0.02 0 0.295 0.02 0 0.3 0.02 0 0.305 0.02 0 0.31 0.02 0 0.315 0.02 0 0.32 0.02 0 0.325 0.02 0 0.33 0.02 0 0.335 0.02 0 0.34 0.02 0 0.345 0.02 0 0.35 0.02 0 0.355 0.02 0 0.36 0.02 0 0.365 0.02 0 0.37 0.02 0 0.375 0.02 0 0.38 0.02 0 0.385 0.02 0 0.39 0.02 0 0.395 0.02 0 0.4 0.02 0 0.405001 0.02 0 0.410003 0.02 0 0.415013 0.02 0 0.420048 0.02 0 0.425145 0.02 0 0.430369 0.02 0 0.435799 0.02 0 0.441513 0.02 0 0.447586 0.02 0 0.454092 0.02 0 0.461116 0.02 0 0.468764 0.02 0 0.47717 0.02 0 0.486504 0.02 0 0.496962 0.02 0 0.508656 0.02 0 0.521081 0.02 0 0.533247 0.02 0 0.545157 0.02 0 0.556961 0.02 0 0.559585 0.02 0 0.562134 0.02 0 0.564637 0.02 0 0.567108 0.02 0 0.569557 0.02 0 0.57199 0.02 0 0.574412 0.02 0 0.576825 0.02 0 0.579232 0.02 0 0.581634 0.02 0 0.584036 0.02 0 0.586438 0.02 0 0.588846 0.02 0 0.59126 0.02 0 0.5937 0.02 0 0.596163 0.02 0 0.59869 0.02 0 0.601272 0.02 0 0.603983 0.02 0 0.606827 0.02 0 0.609916 0.02 0 0.613283 0.02 0 0.617006 0.02 0 0.621093 0.02 0 0.625521 0.02 0 0.630216 0.02 0 0.635079 0.02 0 0.640027 0.02 0 0.645009 0.02 0 0.650003 0.02 0 0.655001 0.02 0 0.66 0.02 0 0.665 0.02 0 0.67 0.02 0 0.675 0.02 0 0.68 0.02 0 0.685 0.02 0 0.69 0.02 0 0.695 0.02 0 0.7 0.02 0 0.705 0.02 0 0.71 0.02 0 0.715 0.02 0 0.72 0.02 0 0.725 0.02 0 0.73 0.02 0 0.735 0.02 0 0.74 0.02 0 0.745 0.02 0 0.75 0.02 0 0.755 0.02 0 0.76 0.02 0 0.765 0.02 0 0.77 0.02 0 0.775 0.02 0 0.78 0.02 0 0.785 0.02 0 0.79 0.02 0 0.795 0.02 0 0.8 0.02 0 0.805 0.02 0 0.81 0.02 0 0.815 0.02 0 0.82 0.02 0 0.825 0.02 0 0.83 0.02 0 0.835 0.02 0 0.84 0.02 0 0.845 0.02 0 0.85 0.02 0 0.855 0.02 0 0.86 0.02 0 0.865 0.02 0 0.87 0.02 0 0.875 0.02 0 0.88 0.02 0 0.885 0.02 0 0.89 0.02 0 0.895 0.02 0 0.9 0.02 0 0.905 0.02 0 0.91 0.02 0 0.915 0.02 0 0.92 0.02 0 0.925 0.02 0 0.93 0.02 0 0.935 0.02 0 0.94 0.02 0 0.945 0.02 0 0.95 0.02 0 0.955 0.02 0 0.96 0.02 0 0.965 0.02 0 0.97 0.02 0 0.975 0.02 0 0.98 0.02 0 0.985 0.02 0 0.99 0.02 0 0.995 0.02 0 1 0.02 0 0 0.04 0 0.005 0.04 0 0.01 0.04 0 0.015 0.04 0 0.02 0.04 0 0.025 0.04 0 0.03 0.04 0 0.035 0.04 0 0.04 0.04 0 0.045 0.04 0 0.05 0.04 0 0.055 0.04 0 0.06 0.04 0 0.065 0.04 0 0.07 0.04 0 0.075 0.04 0 0.08 0.04 0 0.085 0.04 0 0.09 0.04 0 0.095 0.04 0 0.1 0.04 0 0.105 0.04 0 0.11 0.04 0 0.115 0.04 0 0.12 0.04 0 0.125 0.04 0 0.13 0.04 0 0.135 0.04 0 0.14 0.04 0 0.145 0.04 0 0.15 0.04 0 0.155 0.04 0 0.16 0.04 0 0.165 0.04 0 0.17 0.04 0 0.175 0.04 0 0.18 0.04 0 0.185 0.04 0 0.19 0.04 0 0.195 0.04 0 0.2 0.04 0 0.205 0.04 0 0.21 0.04 0 0.215 0.04 0 0.22 0.04 0 0.225 0.04 0 0.23 0.04 0 0.235 0.04 0 0.24 0.04 0 0.245 0.04 0 0.25 0.04 0 0.255 0.04 0 0.26 0.04 0 0.265 0.04 0 0.27 0.04 0 0.275 0.04 0 0.28 0.04 0 0.285 0.04 0 0.29 0.04 0 0.295 0.04 0 0.3 0.04 0 0.305 0.04 0 0.31 0.04 0 0.315 0.04 0 0.32 0.04 0 0.325 0.04 0 0.33 0.04 0 0.335 0.04 0 0.34 0.04 0 0.345 0.04 0 0.35 0.04 0 0.355 0.04 0 0.36 0.04 0 0.365 0.04 0 0.37 0.04 0 0.375 0.04 0 0.38 0.04 0 0.385 0.04 0 0.39 0.04 0 0.395 0.04 0 0.4 0.04 0 0.405001 0.04 0 0.410003 0.04 0 0.415013 0.04 0 0.420048 0.04 0 0.425145 0.04 0 0.430369 0.04 0 0.435799 0.04 0 0.441513 0.04 0 0.447586 0.04 0 0.454092 0.04 0 0.461116 0.04 0 0.468764 0.04 0 0.47717 0.04 0 0.486504 0.04 0 0.496962 0.04 0 0.508656 0.04 0 0.521081 0.04 0 0.533247 0.04 0 0.545157 0.04 0 0.556961 0.04 0 0.559585 0.04 0 0.562134 0.04 0 0.564637 0.04 0 0.567108 0.04 0 0.569557 0.04 0 0.57199 0.04 0 0.574412 0.04 0 0.576825 0.04 0 0.579232 0.04 0 0.581634 0.04 0 0.584036 0.04 0 0.586438 0.04 0 0.588846 0.04 0 0.59126 0.04 0 0.5937 0.04 0 0.596163 0.04 0 0.59869 0.04 0 0.601272 0.04 0 0.603983 0.04 0 0.606827 0.04 0 0.609916 0.04 0 0.613283 0.04 0 0.617006 0.04 0 0.621093 0.04 0 0.625521 0.04 0 0.630216 0.04 0 0.635079 0.04 0 0.640027 0.04 0 0.645009 0.04 0 0.650003 0.04 0 0.655001 0.04 0 0.66 0.04 0 0.665 0.04 0 0.67 0.04 0 0.675 0.04 0 0.68 0.04 0 0.685 0.04 0 0.69 0.04 0 0.695 0.04 0 0.7 0.04 0 0.705 0.04 0 0.71 0.04 0 0.715 0.04 0 0.72 0.04 0 0.725 0.04 0 0.73 0.04 0 0.735 0.04 0 0.74 0.04 0 0.745 0.04 0 0.75 0.04 0 0.755 0.04 0 0.76 0.04 0 0.765 0.04 0 0.77 0.04 0 0.775 0.04 0 0.78 0.04 0 0.785 0.04 0 0.79 0.04 0 0.795 0.04 0 0.8 0.04 0 0.805 0.04 0 0.81 0.04 0 0.815 0.04 0 0.82 0.04 0 0.825 0.04 0 0.83 0.04 0 0.835 0.04 0 0.84 0.04 0 0.845 0.04 0 0.85 0.04 0 0.855 0.04 0 0.86 0.04 0 0.865 0.04 0 0.87 0.04 0 0.875 0.04 0 0.88 0.04 0 0.885 0.04 0 0.89 0.04 0 0.895 0.04 0 0.9 0.04 0 0.905 0.04 0 0.91 0.04 0 0.915 0.04 0 0.92 0.04 0 0.925 0.04 0 0.93 0.04 0 0.935 0.04 0 0.94 0.04 0 0.945 0.04 0 0.95 0.04 0 0.955 0.04 0 0.96 0.04 0 0.965 0.04 0 0.97 0.04 0 0.975 0.04 0 0.98 0.04 0 0.985 0.04 0 0.99 0.04 0 0.995 0.04 0 1 0.04 0 0 0.06 0 0.005 0.06 0 0.01 0.06 0 0.015 0.06 0 0.02 0.06 0 0.025 0.06 0 0.03 0.06 0 0.035 0.06 0 0.04 0.06 0 0.045 0.06 0 0.05 0.06 0 0.055 0.06 0 0.06 0.06 0 0.065 0.06 0 0.07 0.06 0 0.075 0.06 0 0.08 0.06 0 0.085 0.06 0 0.09 0.06 0 0.095 0.06 0 0.1 0.06 0 0.105 0.06 0 0.11 0.06 0 0.115 0.06 0 0.12 0.06 0 0.125 0.06 0 0.13 0.06 0 0.135 0.06 0 0.14 0.06 0 0.145 0.06 0 0.15 0.06 0 0.155 0.06 0 0.16 0.06 0 0.165 0.06 0 0.17 0.06 0 0.175 0.06 0 0.18 0.06 0 0.185 0.06 0 0.19 0.06 0 0.195 0.06 0 0.2 0.06 0 0.205 0.06 0 0.21 0.06 0 0.215 0.06 0 0.22 0.06 0 0.225 0.06 0 0.23 0.06 0 0.235 0.06 0 0.24 0.06 0 0.245 0.06 0 0.25 0.06 0 0.255 0.06 0 0.26 0.06 0 0.265 0.06 0 0.27 0.06 0 0.275 0.06 0 0.28 0.06 0 0.285 0.06 0 0.29 0.06 0 0.295 0.06 0 0.3 0.06 0 0.305 0.06 0 0.31 0.06 0 0.315 0.06 0 0.32 0.06 0 0.325 0.06 0 0.33 0.06 0 0.335 0.06 0 0.34 0.06 0 0.345 0.06 0 0.35 0.06 0 0.355 0.06 0 0.36 0.06 0 0.365 0.06 0 0.37 0.06 0 0.375 0.06 0 0.38 0.06 0 0.385 0.06 0 0.39 0.06 0 0.395 0.06 0 0.4 0.06 0 0.405001 0.06 0 0.410003 0.06 0 0.415013 0.06 0 0.420048 0.06 0 0.425145 0.06 0 0.430369 0.06 0 0.435799 0.06 0 0.441513 0.06 0 0.447586 0.06 0 0.454092 0.06 0 0.461116 0.06 0 0.468764 0.06 0 0.47717 0.06 0 0.486504 0.06 0 0.496962 0.06 0 0.508656 0.06 0 0.521081 0.06 0 0.533247 0.06 0 0.545157 0.06 0 0.556961 0.06 0 0.559585 0.06 0 0.562134 0.06 0 0.564637 0.06 0 0.567108 0.06 0 0.569557 0.06 0 0.57199 0.06 0 0.574412 0.06 0 0.576825 0.06 0 0.579232 0.06 0 0.581634 0.06 0 0.584036 0.06 0 0.586438 0.06 0 0.588846 0.06 0 0.59126 0.06 0 0.5937 0.06 0 0.596163 0.06 0 0.59869 0.06 0 0.601272 0.06 0 0.603983 0.06 0 0.606827 0.06 0 0.609916 0.06 0 0.613283 0.06 0 0.617006 0.06 0 0.621093 0.06 0 0.625521 0.06 0 0.630216 0.06 0 0.635079 0.06 0 0.640027 0.06 0 0.645009 0.06 0 0.650003 0.06 0 0.655001 0.06 0 0.66 0.06 0 0.665 0.06 0 0.67 0.06 0 0.675 0.06 0 0.68 0.06 0 0.685 0.06 0 0.69 0.06 0 0.695 0.06 0 0.7 0.06 0 0.705 0.06 0 0.71 0.06 0 0.715 0.06 0 0.72 0.06 0 0.725 0.06 0 0.73 0.06 0 0.735 0.06 0 0.74 0.06 0 0.745 0.06 0 0.75 0.06 0 0.755 0.06 0 0.76 0.06 0 0.765 0.06 0 0.77 0.06 0 0.775 0.06 0 0.78 0.06 0 0.785 0.06 0 0.79 0.06 0 0.795 0.06 0 0.8 0.06 0 0.805 0.06 0 0.81 0.06 0 0.815 0.06 0 0.82 0.06 0 0.825 0.06 0 0.83 0.06 0 0.835 0.06 0 0.84 0.06 0 0.845 0.06 0 0.85 0.06 0 0.855 0.06 0 0.86 0.06 0 0.865 0.06 0 0.87 0.06 0 0.875 0.06 0 0.88 0.06 0 0.885 0.06 0 0.89 0.
[...]
			<PointData Scalars="VitesseX">
				<DataArray Name="VitesseX" type="Float32" format="ascii">
 0 1.94535e-16 1.45701e-15 -1.00196e-15 -2.21007e-15 1.0581e-15 8.9361e-16 3.03943e-15 -3.67046e-15 -3.03523e-15 4.2766e-15 2.69058e-15 -6.6857e-15 -3.61506e-15 6.84951e-15 -8.75418e-15 5.65679e-15 -7.11584e-15 3.18073e-15 -1.3065e-14 -9.95147e-15 -9.40864e-15 -6.17741e-15 -1.03387e-14 -5.58555e-15 -1.19448e-14 -1.91837e-14 -1.59594e-14 -1.02213e-15 -2.39205e-14 6.22851e-15 -1.99707e-14 -2.33636e-14 -1.61642e-14 -2.237e-14 6.004e-15 -1.62505e-14 -8.51365e-15 -2.27949e-14 -1.60372e-14 -8.66724e-16 -1.5165e-15 -4.68485e-15 -8.16273e-15 2.20871e-14 1.51853e-14 -2.24365e-15 3.67901e-15 2.20084e-14 -2.10651e-14 3.41319e-14 2.28792e-14 -2.02685e-14 -5.24807e-16 -2.71138e-14 -7.29163e-15 -4.54765e-14 -2.67614e-14 -7.582e-15 -4.89853e-14 -1.7187e-14 -2.08385e-14 -7.18457e-15 -2.66727e-15 -4.72685e-14 -4.15551e-15 -1.77927e-14 -2.34498e-14 3.1146e-14 5.13101e-15 -2.46467e-15 7.82681e-15 7.23125e-13 9.62197e-12 1.17234e-10 1.30501e-09 1.31431e-08 1.19019e-07 9.62158e-07 6.88466e-06 4.31532e-05 0.000233901 0.00107881 0.00415352 0.0130932 0.0334084 0.0694938 0.121382 0.18577 0.259491 0.341066 0.430327 0.527752 0.633923 0.748547 0.866909 0.965102 0.96996 0.943808 0.930642 0.928091 0.928559 0.928958 0.929016 0.928929 0.928823 0.928327 0.928077 0.926945 0.926755 0.924427 0.924461 0.919164 0.919649 0.905761 0.907474 0.873246 0.878102 0.808278 0.807553 0.694313 0.635109 0.500743 0.379632 0.250233 0.143145 0.0684872 0.0277075 0.00992402 0.00330791 0.00105597 0.000326676 9.83199e-05 2.88142e-05 8.22096e-06 2.28216e-06 6.16025e-07 1.61594e-07 4.11728e-08 1.01857e-08 2.44599e-09 5.70094e-10 1.28842e-10 2.82028e-11 6.06259e-12 1.18258e-12 1.70637e-13 5.74049e-14 1.36098e-14 -8.37064e-14 -5.54277e-14 6.00451e-15 -2.61607e-14 -7.06627e-14 -4.50197e-14 1.19936e-14 -6.19306e-14 1.7487e-14 -1.03812e-13 -6.67728e-15 -5.15056e-14 -8.9299e-14 -2.68298e-14 1.08757e-13 3.97684e-14 9.2647e-15 -8.53597e-14 4.63908e-14 2.62153e-14 -3.81195e-14 5.06698e-14 -2.01136e-14 8.80034e-14 -7.03339e-14 8.20305e-14 -7.6542e-14 -4.28143e-14 3.71632e-14 -6.88013e-14 2.09039e-14 5.54533e-14 -5.08897e-15 -3.80324e-14 9.60165e-14 3.70555e-14 -5.68764e-14 7.66548e-14 8.23386e-14 -5.41108e-14 -3.72023e-14 1.14245e-13 8.57439e-14 5.61081e-15 1.09405e-13 4.29134e-14 1.02855e-13 7.79141e-14 5.16833e-14 5.25083e-14 -8.73382e-14 0 0 -9.2526e-17 3.54032e-16 -2.15914e-16 -3.03208e-15 -7.10567e-16 6.10137e-16 -2.15254e-15 3.34083e-15 7.4711e-16 -4.34953e-16 -3.29708e-15 2.02872e-15 -9.87487e-16 -5.64538e-15 1.28379e-15 3.28147e-15 -8.28918e-16 -4.67441e-15 -1.42e-14 -1.52271e-14 -8.91916e-15 -1.26516e-14 -1.19435e-14 -1.31368e-14 -3.26039e-15 -1.28176e-14 -1.63141e-14 -2.27019e-14 1.77318e-15 -9.89318e-15 -1.02491e-14 -2.52367e-14 -2.70481e-14 -1.29886e-14 -2.33304e-14 -7.51823e-15 -1.53489e-14 -3.57424e-15 2.41162e-14 -2.05485e-14 -1.1961e-14 -1.32581e-15 -1.16137e-14 1.1972e-14 5.75429e-17 1.9326e-14 1.86503e-14 -4.81733e-15 6.68868e-15 1.59199e-14 1.76303e-14 -2.42836e-14 8.10431e-15 -5.68215e-14 -3.00698e-14 -3.33374e-15 -3.73567e-14 -3.43678e-14 -1.66949e-14 -1.89024e-14 -4.856e-14 4.21704e-14 -4.69387e-14 -3.58745e-15 -9.27961e-16 -3.57487e-14 -2.30305e-15 -1.63656e-14 6.58253e-15 7.38138e-15 5.34542e-14 7.05133e-13 9.61853e-12 1.17263e-10 1.305e-09 1.31432e-08 1.19019e-07 9.62158e-07 6.88466e-06 4.31532e-05 0.000233901 0.00107881 0.00415352 0.0130932 0.0334084 0.0694938 0.121382 0.18577 0.259491 0.341066 0.430327 0.527752 0.633923 0.748547 0.866909 0.965102 0.96996 0.943808 0.930642 0.928091 0.928559 0.928958 0.929016 0.928929 0.928823 0.928327 0.928077 0.926945 0.926755 0.924427 0.924461 0.919164 0.919649 0.905761 0.907474 0.873246 0.878102 0.808278 0.807553 0.694313 0.635109 0.500743 0.379632 0.250233 0.143145 0.0684872 0.0277075 0.00992402 0.00330791 0.00105597 0.000326676 9.83199e-05 2.88142e-05 8.22096e-06 2.28216e-06 6.16025e-07 1.61594e-07 4.11728e-08 1.01857e-08 2.44602e-09 5.70035e-10 1.28848e-10 2.82286e-11 6.02115e-12 1.19717e-12 1.80513e-13 1.6844e-14 -6.38452e-14 -6.29894e-15 -5.08652e-14 -6.71103e-14 -3.98278e-14 -9.45236e-14 -2.55488e-14 -3.92756e-14 2.1975e-14 3.81818e-14 -7.04487e-14 -4.24007e-14 -3.32133e-14 -7.106e-14 -4.91338e-15 -5.9772e-14 1.01055e-13 9.51883e-15 3.0209e-14 -5.59814e-14 1.1182e-14 1.75116e-14 -3.95699e-14 -4.66624e-14 1.00167e-13 -3.71837e-14 1.63047e-14 -1.11768e-14 4.85829e-14 -7.45066e-14 2.77447e-14 -4.15357e-14 3.38889e-14 9.05194e-14 5.38145e-14 2.89871e-15 2.26263e-14 1.51259e-16 6.6056e-15 -1.11543e-13 1.20948e-13 7.20574e-14 -2.96898e-14 5.2723e-14 8.56483e-14 3.50404e-14 1.16325e-13 5.77075e-14 1.3866e-13 5.76917e-14 2.95658e-14 -4.03273e-14 0 0 -1.65103e-16 -8.50709e-16 3.60058e-16 -2.13555e-15 -2.27175e-15 -1.7785e-15 -9.42945e-16 3.51219e-15 -1.3662e-15 -2.50959e-15 -4.95463e-16 3.88202e-15 -1.13586e-14 -1.83054e-15 6.79398e-15 -7.43396e-16 -1.75716e-15 -1.37568e-14 -5.90331e-15 -2.31625e-14 -1.2946e-14 -1.7618e-14 -2.62806e-14 -2.1175e-14 -1.38238e-14 -6.78035e-15 -1.82007e-14 -2.49132e-14 -5.1827e-15 -1.31983e-14 -2.46213e-14 -1.15691e-14 -1.97533e-14 -1.99178e-14 -1.17329e-14 -2.72398e-14 9.18513e-15 1.33292e-14 2.44736e-14 -2.13627e-15 -2.04736e-14 -1.12449e-14 -1.93508e-14 -9.20104e-15 9.92506e-15 7.99737e-15 3.05831e-14 8.98496e-15 1.63085e-14 -1.6385e-14 7.50463e-15 -3.79862e-14 -2.63984e-14 -2.51385e-14 -5.85767e-14 -3.73283e-15 -4.16169e-14 -8.80487e-15 -2.94013e-14 -4.52782e-14 -7.0767e-15 1.51867e-14 -5.54059e-14 2.63997e-14 4.37898e-15 7.58379e-15 -4.21494e-14 -3.13622e-14 -4.81217e-14 9.0781e-14 8.2256e-14 7.73605e-13 9.57872e-12 1.17284e-10 1.305e-09 1.31432e-08 1.19019e-07 9.62158e-07 6.88466e-06 4.31532e-05 0.000233901 0.00107881 0.00415352 0.0130932 0.0334084 0.0694938 0.121382 0.18577 0.259491 0.341066 0.430327 0.527752 0.633923 0.748547 0.866909 0.965102 0.96996 0.943808 0.930642 0.928091 0.928559 0.928958 0.929016 0.928929 0.928823 0.928327 0.928077 0.926945 0.926755 0.924427 0.924461 0.919164 0.919649 0.905761 0.907474 0.873246 0.878102 0.808278 0.807553 0.694313 0.635109 0.500743 0.379632 0.250233 0.143145 0.0684872 0.0277075 0.00992402 0.00330791 0.00105597 0.000326676 9.83199e-05 2.88142e-05 8.22096e-06 2.28216e-06 6.16025e-07 1.61594e-07 4.11728e-08 1.01856e-08 2.44592e-09 5.70027e-10 1.28827e-10 2.82538e-11 5.97916e-12 1.17384e-12 2.15402e-13 -1.14646e-13 -7.86965e-14 1.87972e-14 -4.99426e-14 -5.19978e-14 -9.92726e-14 -4.3249e-14 -8.1183e-14 3.87158e-14 9.78858e-15 -5.12046e-14 -2.27429e-14 -7.36385e-14 -5.75585e-14 -7.41867e-14 4.79808e-14 -8.23892e-14 4.97832e-14 2.61295e-14 7.13374e-14 -8.26394e-14 -2.7762e-14 -2.95226e-14 2.10616e-14 -1.18397e-13 9.25614e-14 -4.26174e-14 6.02272e-14 -4.80421e-14 1.13265e-13 4.09871e-14 1.06381e-13 -6.44861e-14 3.58844e-14 -5.91235e-14 1.02835e-13 1.65426e-15 -3.34188e-14 1.92506e-14 -8.45859e-14 -3.00673e-14 1.17103e-13 1.29282e-13 -1.02325e-14 -6.70424e-14 1.56663e-13 1.0936e-13 1.08594e-13 1.26627e-14 1.54133e-13 5.04461e-14 6.99033e-14 4.12158e-14 0 0 8.8899e-16 1.13127e-15 -1.44247e-15 1.8477e-17 -3.35115e-15 -2.74032e-15 6.31418e-17 1.42167e-15 -4.28025e-15 -2.76719e-15 1.71294e-15 -5.89711e-15 -9.79993e-15 8.39345e-16 7.72394e-15 5.74716e-15 -1.56231e-14 -6.94001e-15 -1.55866e-14 -2.3116e-14 -1.48486e-14 -3.18452e-14 -2.87581e-14 -2.90567e-14 -1.33319e-14 -3.31989e-14 -2.68779e-14 -9.41048e-15 -2.13634e-14 -1.04928e-15 -3.2172e-14 -4.05401e-15 -1.85933e-14 -1.39423e-14 -1.0557e-14 -1.91568e-14 1.62379e-14 3.20527e-15 1.74655e-14 -4.59473e-14 9.88162e-15 -9.25667e-15 6.20515e-15 -5.59649e-15 -2.6183e-14 7.15539e-15 5.35621e-14 3.82832e-14 -7.78843e-15 -2.93254e-14 -3.31031e-14 -1.42364e-14 -5.53723e-14 -2.41972e-14 -4.69375e-14 -7.92238e-15 -8.08401e-14 -1.51875e-14 -4.58621e-14 5.10584e-15 -5.13068e-14 -1.85675e-14 4.28354e-15 3.747e-15 -4.66107e-14 1.85636e-14 -4.16696e-14 3.51457e-14 -2.78737e-15 6.47695e-14 6.98668e-14 8.25255e-13 9.60912e-12 1.17321e-10 1.30499e-09 1.31431e-08 1.19019e-07 9.62158e-07 6.88466e-06 4.31532e-05 0.000233901 0.00107881 0.00415352 0.0130932 0.0334084 0.0694938 0.121382 0.18577 0.259491 0.341066 0.430327 0.527752 0.633923 0.748547 0.866909 0.965102 0.96996 0.943808 0.930642 0.928091 0.928559 0.928958 0.929016 0.928929 0.928823 0.928327 0.928077 0.926945 0.926755 0.924427 0.924461 0.919164 0.919649 0.905761 0.907474 0.873246 0.878102 0.808278 0.807553 0.694313 0.635109 0.500743 0.379632 0.250233 0.143145 0.0684872 0.0277075 0.00992402 0.00330791 0.00105597 0.000326676 9.83199e-05 2.88142e-05 8.22096e-06 2.28216e-06 6.16025e-07 1.61594e-07 4.11727e-08 1.01857e-08 2.44582e-09 5.69963e-10 1.28833e-10 2.82813e-11 5.91717e-12 1.08752e-12 2.03032e-13 -1.22299e-13 -9.1147e-14 1.85892e-14 -4.7391e-14 1.36774e-14 -8.12836e-14 4.94498e-14 -7.92701e-14 -4.80842e-14 1.74142e-14 -1.66464e-13 -5.37595e-14 -4.53824e-14 -2.69466e-15 -1.04917e-13 3.1109e-14 1.61835e-14 -4.44622e-14 -1.43821e-15 -9.98162e-14 2.33072e-14 -4.23739e-15 -1.12672e-13 1.18322e-13 -1.00776e-13 1.144e-13 1.04601e-14 3.94145e-15 2.24527e-14 7.61674e-15 1.4597e-13 8.87791e-14 6.98952e-14 4.14721e-14 -1.71135e-13 8.46738e-14 -1.7747e-14 2.65375e-14 -1.19531e-13 -1.68406e-14 1.74196e-13 -1.02497e-13 1.2436e-13 -2.47747e-14 1.04972e-14 5.36808e-14 1.18038e-13 2.06917e-13 1.35279e-13 -2.71208e-14 1.0329e-13 1.40869e-13 6.91026e-14 0 0 -1.94315e-16 1.13394e-15 5.23356e-16 4.97388e-16 -4.72108e-15 -1.30976e-15 -7.02029e-15 1.47142e-15 -4.82762e-18 -1.09315e-15 -1.62552e-15 -1.72707e-15 -5.85619e-15 -1.93196e-15 5.05831e-15 6.01252e-15 -1.07798e-14 -2.38006e-14 -1.92967e-14 -3.07511e-14 -9.617e-15 -4.52898e-14 -2.72653e-14 -1.94664e-14 -3.2211e-14 -3.62778e-14 -3.34184e-14 -1.64752e-14 1.14828e-14 2.10119e-15 -1.21887e-14 -8.61861e-15 -8.17849e-15 -1.15538e-14 -6.34218e-14 1.14247e-14 -2.5681e-14 -1.12593e-14 4.0341e-15 -5.42525e-14 2.67599e-14 7.6383e-15 2.43917e-14 1.25384e-15 -2.15712e-14 3.03717e-14 4.63702e-14 2.02967e-14 -5.6518e-15 5.27441e-16 -4.68582e-14 -7.92611e-15 -1.82939e-14 -9.84266e-14 3.61019e-15 -7.2535e-14 -1.03323e-13 -6.81828e-14 -8.68856e-15 2.51951e-14 -1.1007e-13 5.97003e-14 1.0377e-14 -2.62304e-14 -2.53012e-14 -2.81863e-14 8.51963e-15 -6.50981e-15 3.2177e-14 -1.95887e-14 6.24274e-14 8.0293e-13 9.68691e-12 1.17419e-10 1.305e-09 1.31432e-08 1.19019e-07 9.62158e-07 6.88466e-06 4.31532e-05 0.000233901 0.00107881 0.00415352 0.0130932 0.0334084 0.0694938 0.121382 0.18577 0.259491 0.341066 0.430327 0.527752 0.633923 0.748547 0.866909 0.965102 0.96996 0.943808 0.930642 0.928091 0.928559 0.928958 0.929016 0.928929 0.928823 0.928327 0.928077 0.926945 0.926755 0.924427 0.924461 0.919164 0.919649 0.905761 0.907474 0.873246 0.878102 0.808278 0.807553 0.694313 0.635109 0.500743 0.379632 0.250233 0.143145 0.0684872 0.0277075 0.00992402 0.00330791 0.00105597 0.000326676 9.83199e-05 2.88142e-05 8.22096e-06 2.28216e-06 6.16025e-07 1.61594e-07 4.11728e-08 1.01858e-08 2.44573e-09 5.70114e-10 1.28663e-10 2.8297e-11 5.81664e-12 1.10842e-12 9.73128e-14 8.7061e-14 -7.66873e-14 6.55935e-14 -7.31792e-14 -2.92189e-14 -4.55991e-14 -6.28736e-14 -6.60281e-14 -1.32896e-13 -1.56443e-13 -1.71087e-13 -7.73577e-14 -1.18286e-13 2.17042e-13 9.0084e-15 -6.23613e-14 2.77297e-14 -3.54465e-14 -4.86612e-14 -8.67496e-14 1.01421e-13 1.443e-13 -1.36164e-13 1.21647e-14 1.30063e-14 9.79027e-14 1.13915e-13 -1.38351e-13 1.0238e-13 -1.61493e-14 -1.78972e-14 9.2901e-14 2.94237e-14 2.28931e-14 -5.46555e-14 8.10476e-14 -9.15272e-14 7.96005e-14 -1.2887e-13 1.82658e-13 6.53882e-14 -9.86516e-14 6.90413e-14 -8.55316e-14 1.32536e-13 5.66173e-14 1.06121e-14 2.08794e-13 1.85057e-13 1.96342e-14 2.06743e-13 2.39269e-14 -1.68055e-14 0 0 -2.11723e-15 -9.4714e-16 4.08165e-15 5.40805e-16 -4.80412e-15 -1.02256e-15 -8.70826e-15 -3.22824e-15 1.28901e-15 3.47541e-15 1.6169e-15 5.36098e-15 -1.64698e-14 8.93657e-15 -3.06506e-15 -1.86222e-15 7.1433e-16 -4.87052e-14 -3.89186e-15 -4.10926e-14 -6.99911e-15 -4.29994e-14 -3.60273e-14 -2.48132e-15 -7.08298e-14 -1.32671e-14 -3.28134e-14 -1.95742e-14 2.78602e-14 5.91919e-15 -8.74845e-15 -5.15755e-15 1.92551e-14 -3.14515e-14 -7.65304e-14 5.46937e-15 -4.32835e-14 -1.79173e-14 -4.21852e-14 1.93473e-14 1.52149e-14 9.26701e-15 1.27362e-14 -6.55824e-15 4.41439e-14 2.15317e-14 1.31608e-14 1.36401e-14 2.44765e-15 2.92279e-14 -2.48823e-14 -3.50531e-14 4.62647e-15 -1.12207e-13 3.67899e-14 -1.755e-13 -8.02478e-14 -6.24467e-14 -5.09665e-17 -2.97602e-14 -5.53984e-14 9.53835e-14 -7.41468e-15 -4.7249e-14 4.90774e-14 -2.46274e-14 -2.76421e-15 -8.21582e-14 -3.43488e-14 -4.38178e-15 5.05517e-14 8.15419e-13 9.69793e-12 1.17473e-10 1.30503e-09 1.31431e-08 1.19019e-07 9.62158e-07 6.88466e-06 4.31532e-05 0.000233901 0.00107881 0.00415352 0.0130932 0.0334084 0.0694938 0.121382 0.18577 0.259491 0.341066 0.430327 0.527752 0.633923 0.748547 0.866909 0.965102 0.96996 0.943808 0.930642 0.928091 0.928559 0.928958 0.929016 0.928929 0.928823 0.928327 0.928077 0.926945 0.926755 0.924427 0.924461 0.919164 0.919649 0.905761 0.907474 0.873246 0.878102 0.808278 0.807553 0.694313 0.635109 0.500743 0.379632 0.250233 0.143145 0.0684872 0.0277075 0.00992402 0.00330791 0.00105597 0.000326676 9.83199e-05 2.88142e-05 8.22096e-06 2.28216e-06 6.16025e-07 1.61594e-07 4.1173e-08 1.01857e-08 2.44562e-09 5.7038e-10 1.28462e-10 2.82845e-11 5.77775e-12 1.1778e-12 2.91909e-14 2.13652e-13 1.31944e-14 6.07546e-14 -1.05026e-13 -4.92116e-14 -7.33429e-14 -1.93033e-13 -1.30296e-13 -2.0371e-15 -4.34204e-13 -1.70404e-13 -5.56726e-14 -2.15244e-13 3.38762e-13 1.31606e-13 -1.08336e-13 8.67229e-14 -4.49432e-14 -5.25682e-14 2.2684e-14 1.49107e-13 2.45253e-13 -1.79299e-13 -4.03461e-14 6.38738e-14 3.9255e-14 1.25187e-13 -1.14803e-13 9.32691e-15 3.8817e-14 -5.91909e-14 9.67242e-14 -1.06085e-13 2.25106e-14 -7.14863e-14 5.27145e-14 -5.3767e-14 3.11125e-14 -3.72412e-14 2.93457e-13 2.76194e-14 -5.39375e-14 -3.32529e-14 3.15772e-14 9.02058e-14 1.53321e-13 4.30654e-14 3.11309e-14 1.12185e-13 2.02254e-13 2.43908e-13 -1.0075e-13 -9.60542e-14 0
				</DataArray>
				<DataArray Name="VitesseY" type="Float32" format="ascii">