<?xml version="1.0"?>
<VTKFile type="PolyData">
	<PolyData>
		<Piece NumberOfPoints="1206" NumberOfPolys="1000">
			<Points>
				<DataArray type="Float32" NumberOfComponents="3" format="ascii">
 0 0 0 0.005 0 0 0.01 0 0 0.015 0 0 0.02 0 0 0.025 0 0 0.03 0 0 0.035 0 0 0.04 0 0 0.045 0 0 0.05 0 0 0.055 0 0 0.06 0 0 0.065 0 0 0.07 0 0 0.075 0 0 0.08 0 0 0.085 0 0 0.09 0 0 0.095 0 0 0.1 0 0 0.105 0 0 0.11 0 0 0.115 0 0 0.12 0 0 0.125 0 0 0.13 0 0 0.135 0 0 0.14 0 0 0.145 0 0 0.15 0 0 0.155 0 0 0.16 0 0 0.165 0 0 0.17 0 0 0.175 0 0 0.18 0 0 0.185 0 0 0.19 0 0 0.195 0 0 0.2 0 0 0.205 0 0 0.21 0 0 0.215 0 0 0.22 0 0 0.225 0 0 0.23 0 0 0.235 0 0 0.24 0 0 0.245 0 0 0.25 0 0 0.255 0 0 0.26 0 0 0.265 0 0 0.27 0 0 0.275 0 0 0.28 0 0 0.285 0 0 0.29 0 0 0.295 0 0 0.3 0 0 0.305 0 0 0.31 0 0 0.315 0 0 0.32 0 0 0.325 0 0 0.33 0 0 0.335 0 0 0.34 0 0 0.345 0 0 0.35 0 0 0.355 0 0 0.36 0 0 0.365 0 0 0.37 0 0 0.375 0 0 0.38 0 0 0.385 0 0 0.39 0 0 0.395 0 0 0.4 0 0 0.405 0 0 0.41 0 0 0.415 0 0 0.42 0 0 0.425 0 0 0.43 0 0 0.435 0 0 0.44 0 0 0.445 0 0 0.45 0 0 0.455 0 0 0.46 0 0 0.465004 0 0 0.470032 0 0 0.475179 0 0 0.48071 0 0 0.487092 0 0 0.495026 0 0 0.505613 0 0 0.518715 0 0 0.521384 0 0 0.523892 0 0 0.526377 0 0 0.528929 0 0 0.531636 0 0 0.534596 0 0 0.537897 0 0 0.541608 0 0 0.545752 0 0 0.550281 0 0 0.555081 0 0 0.560019 0 0 0.565004 0 0 0.570001 0 0 0.575 0 0 0.58 0 0 0.585 0 0 0.59 0 0 0.595 0 0 0.6 0 0 0.605 0 0 0.61 0 0 0.615 0 0 0.62 0 0 0.625 0 0 0.63 0 0 0.635 0 0 0.64 0 0 0.645 0 0 0.65 0 0 0.655 0 0 0.66 0 0 0.665 0 0 0.67 0 0 0.675 0 0 0.68 0 0 0.685 0 0 0.69 0 0 0.695 0 0 0.7 0 0 0.705 0 0 0.71 0 0 0.715 0 0 0.72 0 0 0.725 0 0 0.73 0 0 0.735 0 0 0.74 0 0 0.745 0 0 0.75 0 0 0.755 0 0 0.76 0 0 0.765 0 0 0.77 0 0 0.775 0 0 0.78 0 0 0.785 0 0 0.79 0 0 0.795 0 0 0.8 0 0 0.805 0 0 0.81 0 0 0.815 0 0 0.82 0 0 0.825 0 0 0.83 0 0 0.835 0 0 0.84 0 0 0.845 0 0 0.85 0 0 0.855 0 0 0.86 0 0 0.865 0 0 0.87 0 0 0.875 0 0 0.88 0 0 0.885 0 0 0.89 0 0 0.895 0 0 0.9 0 0 0.905 0 0 0.91 0 0 0.915 0 0 0.92 0 0 0.925 0 0 0.93 0 0 0.935 0 0 0.94 0 0 0.945 0 0 0.95 0 0 0.955 0 0 0.96 0 0 0.965 0 0 0.97 0 0 0.975 0 0 0.98 0 0 0.985 0 0 0.99 0 0 0.995 0 0 1 0 0 0 0.02 0 0.005 0.02 0 0.01 0.02 0 0.015 0.02 0 0.02 0.02 0 0.025 0.02 0 0.03 0.02 0 0.035 0.02 0 0.04 0.02 0 0.045 0.02 0 0.05 0.02 0 0.055 0.02 0 0.06 0.02 0 0.065 0.02 0 0.07 0.02 0 0.075 0.02 0 0.08 0.02 0 0.085 0.02 0 0.09 0.02 0 0.095 0.02 0 0.1 0.02 0 0.105 0.02 0 0.11 0.02 0 0.115 0.02 0 0.12 0.02 0 0.125 0.02 0 0.13 0.02 0 0.135 0.02 0 0.14 0.02 0 0.145 0.02 0 0.15 0.02 0 0.155 0.02 0 0.16 0.02 0 0.165 0.02 0 0.17 0.02 0 0.175 0.02 0 0.18 0.02 0 0.185 0.02 0 0.19 0.02 0 0.195 0.02 0 0.2 0.02 0 0.205 0.02 0 0.21 0.02 0 0.215 0.02 0 0.22 0.02 0 0.225 0.02 0 0.23 0.02 0 0.235 0.02 0 0.24 0.02 0 0.245 0.02 0 0.25 0.02 0 0.255 0.02 0 0.26 0.02 0 0.265 0.02 0 0.27 0.02 0 0.275 0.02 0 0.28 0.02 0 0.285 0.02 0 0.29 0.02 0 0.295 0.02 0 0.3 0.02 0 0.305 0.02 0 0.31 0.02 0 0.315 0.02 0 0.32 0.02 0 0.325 0.02 0 0.33 0.02 0 0.335 0.02 0 0.34 0.02 0 0.345 0.02 0 0.35 0.02 0 0.355 0.02 0 0.36 0.02 0 0.365 0.02 0 0.37 0.02 0 0.375 0.02 0 0.38 0.02 0 0.385 0.02 0 0.39 0.02 0 0.395 0.02 0 0.4 0.02 0 0.405 0.02 0 0.41 0.02 0 0.415 0.02 0 0.42 0.02 0 0.425 0.02 0 0.43 0.02 0 0.435 0.02 0 0.44 0.02 0 0.445 0.02 0 0.45 0.02 0 0.455 0.02 0 0.46 0.02 0 0.465004 0.02 0 0.470032 0.02 0 0.475179 0.02 0 0.48071 0.02 0 0.487092 0.02 0 0.495026 0.02 0 0.505613 0.02 0 0.518715 0.02 0 0.521384 0.02 0 0.523892 0.02 0 0.526377 0.02 0 0.528929 0.02 0 0.531636 0.02 0 0.534596 0.02 0 0.537897 0.02 0 0.541608 0.02 0 0.545752 0.02 0 0.550281 0.02 0 0.555081 0.02 0 0.560019 0.02 0 0.565004 0.02 0 0.570001 0.02 0 0.575 0.02 0 0.58 0.02 0 0.585 0.02 0 0.59 0.02 0 0.595 0.02 0 0.6 0.02 0 0.605 0.02 0 0.61 0.02 0 0.615 0.02 0 0.62 0.02 0 0.625 0.02 0 0.63 0.02 0 0.635 0.02 0 0.64 0.02 0 0.645 0.02 0 0.65 0.02 0 0.655 0.02 0 0.66 0.02 0 0.665 0.02 0 0.67 0.02 0 0.675 0.02 0 0.68 0.02 0 0.685 0.02 0 0.69 0.02 0 0.695 0.02 0 0.7 0.02 0 0.705 0.02 0 0.71 0.02 0 0.715 0.02 0 0.72 0.02 0 0.725 0.02 0 0.73 0.02 0 0.735 0.02 0 0.74 0.02 0 0.745 0.02 0 0.75 0.02 0 0.755 0.02 0 0.76 0.02 0 0.765 0.02 0 0.77 0.02 0 0.775 0.02 0 0.78 0.02 0 0.785 0.02 0 0.79 0.02 0 0.795 0.02 0 0.8 0.02 0 0.805 0.02 0 0.81 0.02 0 0.815 0.02 0 0.82 0.02 0 0.825 0.02 0 0.83 0.02 0 0.835 0.02 0 0.84 0.02 0 0.845 0.02 0 0.85 0.02 0 0.855 0.02 0 0.86 0.02 0 0.865 0.02 0 0.87 0.02 0 0.875 0.02 0 0.88 0.02 0 0.885 0.02 0 0.89 0.02 0 0.895 0.02 0 0.9 0.02 0 0.905 0.02 0 0.91 0.02 0 0.915 0.02 0 0.92 0.02 0 0.925 0.02 0 0.93 0.02 0 0.935 0.02 0 0.94 0.02 0 0.945 0.02 0 0.95 0.02 0 0.955 0.02 0 0.96 0.02 0 0.965 0.02 0 0.97 0.02 0 0.975 0.02 0 0.98 0.02 0 0.985 0.02 0 0.99 0.02 0 0.995 0.02 0 1 0.02 0 0 0.04 0 0.005 0.04 0 0.01 0.04 0 0.015 0.04 0 0.02 0.04 0 0.025 0.04 0 0.03 0.04 0 0.035 0.04 0 0.04 0.04 0 0.045 0.04 0 0.05 0.04 0 0.055 0.04 0 0.06 0.04 0 0.065 0.04 0 0.07 0.04 0 0.075 0.04 0 0.08 0.04 0 0.085 0.04 0 0.09 0.04 0 0.095 0.04 0 0.1 0.04 0 0.105 0.04 0 0.11 0.04 0 0.115 0.04 0 0.12 0.04 0 0.125 0.04 0 0.13 0.04 0 0.135 0.04 0 0.14 0.04 0 0.145 0.04 0 0.15 0.04 0 0.155 0.04 0 0.16 0.04 0 0.165 0.04 0 0.17 0.04 0 0.175 0.04 0 0.18 0.04 0 0.185 0.04 0 0.19 0.04 0 0.195 0.04 0 0.2 0.04 0 0.205 0.04 0 0.21 0.04 0 0.215 0.04 0 0.22 0.04 0 0.225 0.04 0 0.23 0.04 0 0.235 0.04 0 0.24 0.04 0 0.245 0.04 0 0.25 0.04 0 0.255 0.04 0 0.26 0.04 0 0.265 0.04 0 0.27 0.04 0 0.275 0.04 0 0.28 0.04 0 0.285 0.04 0 0.29 0.04 0 0.295 0.04 0 0.3 0.04 0 0.305 0.04 0 0.31 0.04 0 0.315 0.04 0 0.32 0.04 0 0.325 0.04 0 0.33 0.04 0 0.335 0.04 0 0.34 0.04 0 0.345 0.04 0 0.35 0.04 0 0.355 0.04 0 0.36 0.04 0 0.365 0.04 0 0.37 0.04 0 0.375 0.04 0 0.38 0.04 0 0.385 0.04 0 0.39 0.04 0 0.395 0.04 0 0.4 0.04 0 0.405 0.04 0 0.41 0.04 0 0.415 0.04 0 0.42 0.04 0 0.425 0.04 0 0.43 0.04 0 0.435 0.04 0 0.44 0.04 0 0.445 0.04 0 0.45 0.04 0 0.455 0.04 0 0.46 0.04 0 0.465004 0.04 0 0.470032 0.04 0 0.475179 0.04 0 0.48071 0.04 0 0.487092 0.04 0 0.495026 0.04 0 0.505613 0.04 0 0.518715 0.04 0 0.521384 0.04 0 0.523892 0.04 0 0.526377 0.04 0 0.528929 0.04 0 0.531636 0.04 0 0.534596 0.04 0 0.537897 0.04 0 0.541608 0.04 0 0.545752 0.04 0 0.550281 0.04 0 0.555081 0.04 0 0.560019 0.04 0 0.565004 0.04 0 0.570001 0.04 0 0.575 0.04 0 0.58 0.04 0 0.585 0.04 0 0.59 0.04 0 0.595 0.04 0 0.6 0.04 0 0.605 0.04 0 0.61 0.04 0 0.615 0.04 0 0.62 0.04 0 0.625 0.04 0 0.63 0.04 0 0.635 0.04 0 0.64 0.04 0 0.645 0.04 0 0.65 0.04 0 0.655 0.04 0 0.66 0.04 0 0.665 0.04 0 0.67 0.04 0 0.675 0.04 0 0.68 0.04 0 0.685 0.04 0 0.69 0.04 0 0.695 0.04 0 0.7 0.04 0 0.705 0.04 0 0.71 0.04 0 0.715 0.04 0 0.72 0.04 0 0.725 0.04 0 0.73 0.04 0 0.735 0.04 0 0.74 0.04 0 0.745 0.04 0 0.75 0.04 0 0.755 0.04 0 0.76 0.04 0 0.765 0.04 0 0.77 0.04 0 0.775 0.04 0 0.78 0.04 0 0.785 0.04 0 0.79 0.04 0 0.795 0.04 0 0.8 0.04 0 0.805 0.04 0 0.81 0.04 0 0.815 0.04 0 0.82 0.04 0 0.825 0.04 0 0.83 0.04 0 0.835 0.04 0 0.84 0.04 0 0.845 0.04 0 0.85 0.04 0 0.855 0.04 0 0.86 0.04 0 0.865 0.04 0 0.87 0.04 0 0.875 0.04 0 0.88 0.04 0 0.885 0.04 0 0.89 0.04 0 0.895 0.04 0 0.9 0.04 0 0.905 0.04 0 0.91 0.04 0 0.915 0.04 0 0.92 0.04 0 0.925 0.04 0 0.93 0.04 0 0.935 0.04 0 0.94 0.04 0 0.945 0.04 0 0.95 0.04 0 0.955 0.04 0 0.96 0.04 0 0.965 0.04 0 0.97 0.04 0 0.975 0.04 0 0.98 0.04 0 0.985 0.04 0 0.99 0.04 0 0.995 0.04 0 1 0.04 0 0 0.06 0 0.005 0.06 0 0.01 0.06 0 0.015 0.06 0 0.02 0.06 0 0.025 0.06 0 0.03 0.06 0 0.035 0.06 0 0.04 0.06 0 0.045 0.06 0 0.05 0.06 0 0.055 0.06 0 0.06 0.06 0 0.065 0.06 0 0.07 0.06 0 0.075 0.06 0 0.08 0.06 0 0.085 0.06 0 0.09 0.06 0 0.095 0.06 0 0.1 0.06 0 0.105 0.06 0 0.11 0.06 0 0.115 0.06 0 0.12 0.06 0 0.125 0.06 0 0.13 0.06 0 0.135 0.06 0 0.14 0.06 0 0.145 0.06 0 0.15 0.06 0 0.155 0.06 0 0.16 0.06 0 0.165 0.06 0 0.17 0.06 0 0.175 0.06 0 0.18 0.06 0 0.185 0.06 0 0.19 0.06 0 0.195 0.06 0 0.2 0.06 0 0.205 0.06 0 0.21 0.06 0 0.215 0.06 0 0.22 0.06 0 0.225 0.06 0 0.23 0.06 0 0.235 0.06 0 0.24 0.06 0 0.245 0.06 0 0.25 0.06 0 0.255 0.06 0 0.26 0.06 0 0.265 0.06 0 0.27 0.06 0 0.275 0.06 0 0.28 0.06 0 0.285 0.06 0 0.29 0.06 0 0.295 0.06 0 0.3 0.06 0 0.305 0.06 0 0.31 0.06 0 0.315 0.06 0 0.32 0.06 0 0.325 0.06 0 0.33 0.06 0 0.335 0.06 0 0.34 0.06 0 0.345 0.06 0 0.35 0.06 0 0.355 0.06 0 0.36 0.06 0 0.365 0.06 0 0.37 0.06 0 0.375 0.06 0 0.38 0.06 0 0.385 0.06 0 0.39 0.06 0 0.395 0.06 0 0.4 0.06 0 0.405 0.06 0 0.41 0.06 0 0.415 0.06 0 0.42 0.06 0 0.425 0.06 0 0.43 0.06 0 0.435 0.06 0 0.44 0.06 0 0.445 0.06 0 0.45 0.06 0 0.455 0.06 0 0.46 0.06 0 0.465004 0.06 0 0.470032 0.06 0 0.475179 0.06 0 0.48071 0.06 0 0.487092 0.06 0 0.495026 0.06 0 0.505613 0.06 0 0.518715 0.06 0 0.521384 0.06 0 0.523892 0.06 0 0.526377 0.06 0 0.528929 0.06 0 0.531636 0.06 0 0.534596 0.06 0 0.537897 0.06 0 0.541608 0.06 0 0.545752 0.06 0 0.550281 0.06 0 0.555081 0.06 0 0.560019 0.06 0 0.565004 0.06 0 0.570001 0.06 0 0.575 0.06 0 0.58 0.06 0 0.585 0.06 0 0.59 0.06 0 0.595 0.06 0 0.6 0.06 0 0.605 0.06 0 0.61 0.06 0 0.615 0.06 0 0.62 0.06 0 0.625 0.06 0 0.63 0.06 0 0.635 0.06 0 0.64 0.06 0 0.645 0.06 0 0.65 0.06 0 0.655 0.06 0 0.66 0.06 0 0.665 0.06 0 0.67 0.06 0 0.675 0.06 0 0.68 0.06 0 0.685 0.06 0 0.69 0.06 0 0.695 0.06 0 0.7 0.06 0 0.705 0.06 0 0.71 0.06 0 0.715 0.06 0 0.72 0.06 0 0.725 0.06 0 0.73 0.06 0 0.735 0.06 0 0.74 0.06 0 0.745 0.06 0 0.75 0.06 0 0.755 0.06 0 0.76 0.06 0 0.765 0.06 0 0.77 0.06 0 0.775 0.06 0 0.78 0.06 0 0.785 0.06 0 0.79 0.06 0 0.795 0.06 0 0.8 0.06 0 0.805 0.06 0 0.81 0.06 0 0.815 0.06 0 0.82 0.06 0 0.825 0.06 0 0.83 0.06 0 0.835 0.06 0 0.84 0.06 0 0.845 0.06 0 0.85 0.06 0 0.855 0.06 0 0.86 0.06 0 0.865 0.06 0 0.87 0.06 0 0.875 0.06 0 0.88 0.06 0 0.885 0.06 0 0.89 0.06 0 0.895 0.06 0 0.9 0.06 0 0.905 0.06 0 0.91 0.06 0 0.915 0.06 0 0.92 0.06 0 0.925 0.06 0 0.93 0.06 0 0.935 0.06 0 0.94 0.06 0 0.945 0.06 0 0.95 0.06 0 0.955 0.06 0 0.96 0.06 0 0.965 0.06 0 0.97 0.06 0 0.975 0.06 0 0.98 0.06 0 0.985 0.06 0 0.99 0.06 0 0.995 0.06 0 1 0.06 0 0 0.08 0 0.005 0.08 0 0.01 0.08 0 0.015 0.08 0 0.02 0.08 0 0.025 0.08 0 0.03 0.08 0 0.035 0.08 0 0.04 0.08 0 0.0
[...]
			<PointData Scalars="VitesseX">
				<DataArray Name="VitesseX" type="Float32" format="ascii">
 0 -6.99972e-16 7.34583e-16 -2.16265e-15 1.42806e-15 1.45598e-15 -3.17489e-15 7.50526e-16 1.90933e-15 -7.88472e-16 -1.45898e-17 3.7141e-15 -7.36385e-15 7.22567e-15 -3.35189e-15 -2.18713e-15 4.29721e-15 -3.22801e-15 3.50664e-15 -3.56611e-15 2.26088e-15 -5.17418e-15 4.62404e-15 3.20738e-15 -4.32762e-15 9.6383e-16 2.50458e-15 -7.37154e-15 5.64333e-15 -8.57174e-15 1.47103e-14 -8.76858e-15 5.28562e-15 -1.16165e-15 -1.03064e-14 1.19846e-14 -1.42851e-14 1.80307e-14 -1.52234e-14 1.15986e-14 -1.18646e-14 1.09835e-14 -7.2477e-16 -3.03403e-15 -4.01381e-15 1.11591e-14 -2.4381e-14 2.45484e-14 -1.08256e-14 1.01155e-14 -1.85663e-16 -1.05201e-14 2.19446e-14 -2.78562e-14 1.80025e-14 -6.76608e-15 -1.83594e-14 3.12779e-14 -3.47344e-14 2.41222e-14 -5.15349e-15 6.60924e-15 2.62986e-15 -5.93708e-15 7.85535e-15 -7.75894e-15 2.76649e-15 2.57263e-15 5.229e-15 -1.51278e-14 2.11757e-14 -3.20367e-14 4.86539e-14 -4.49591e-14 4.49219e-14 -1.46053e-14 -7.13596e-15 4.21249e-15 -2.49788e-14 3.02129e-14 -4.87083e-14 2.998e-14 1.98187e-14 -4.40271e-14 1.75234e-14 6.37518e-14 1.95915e-12 7.08685e-11 2.1422e-09 5.3792e-08 1.10237e-06 1.80216e-05 0.000227985 0.00214025 0.0141061 0.061893 0.180521 0.380822 0.654104 0.9616 0.928769 0.961903 0.978535 0.96318 0.922776 0.844588 0.73202 0.583989 0.416173 0.251171 0.11944 0.0417353 0.011005 0.00243531 0.000485673 8.95579e-05 1.53945e-05 2.47498e-06 3.72862e-07 5.27064e-08 6.99769e-09 8.73222e-10 1.02534e-10 1.13497e-11 1.12162e-12 1.52669e-13 -5.40083e-15 -1.28416e-14 3.85102e-14 -5.27589e-14 4.57482e-14 -3.17536e-14 2.25682e-14 -2.37962e-14 -2.10726e-14 3.58396e-14 -4.21075e-14 6.74188e-14 1.03179e-14 -8.13943e-14 7.24774e-14 -2.83099e-14 1.52685e-14 1.42417e-14 -5.93464e-15 -1.85916e-14 5.07607e-14 -6.11955e-14 5.16692e-14 -4.22849e-14 -2.10445e-14 3.9556e-14 -1.86638e-14 3.83759e-14 -3.36145e-14 4.88133e-14 -5.58737e-14 6.56814e-15 2.11335e-15 -3.0492e-14 2.73072e-14 -2.2388e-14 6.1297e-14 -3.00011e-14 -3.11056e-14 -5.41851e-15 -4.00175e-14 4.44757e-14 5.64505e-14 -1.64386e-14 4.21617e-14 -4.86689e-14 -1.00195e-14 -1.0044e-14 -5.44876e-14 7.53459e-14 -3.43327e-15 -3.05627e-14 3.29655e-14 -6.59279e-14 6.6015e-14 -2.76486e-14 -3.32481e-15 2.34684e-14 -5.87245e-14 5.28392e-14 -1.34339e-14 -2.33238e-15 1.12018e-14 -5.00032e-14 2.94202e-14 2.01109e-14 -5.21467e-14 3.42293e-14 -1.09019e-14 4.32334e-15 2.50787e-14 -6.54067e-14 6.07209e-14 -2.59712e-14 0 0 0 -6.46926e-16 9.47112e-16 -6.50172e-16 1.05341e-16 -8.52069e-16 2.91766e-15 -2.75042e-15 -1.33972e-15 2.53186e-15 3.84266e-16 3.36219e-16 -4.88149e-15 8.20489e-15 -4.16921e-15 -4.31303e-15 9.25409e-15 -9.21694e-15 4.78075e-15 3.26913e-15 -7.27985e-15 2.00097e-15 1.29083e-15 4.59281e-15 1.41891e-15 -5.732e-15 -7.62704e-15 8.74384e-15 -2.0207e-15 7.93015e-18 8.70134e-15 -6.27593e-15 -2.91965e-16 -3.47172e-16 -3.83331e-16 -6.0254e-16 -7.56203e-15 1.17919e-14 -6.69412e-15 1.65592e-15 4.12711e-15 -9.12808e-15 1.24357e-14 -9.95241e-15 1.05624e-15 -7.24828e-16 -2.727e-15 8.94993e-15 4.37268e-15 7.96714e-16 -5.87888e-15 -3.32785e-15 1.71606e-14 -1.14497e-14 1.78825e-15 -5.06451e-16 -1.56749e-14 1.57865e-14 -1.96452e-14 2.04175e-14 4.16939e-15 -1.82105e-14 2.78568e-14 -6.69678e-15 -4.94716e-15 1.34818e-15 -8.36398e-15 9.94825e-15 -1.47588e-15 8.72812e-15 8.66623e-16 7.16006e-15 -3.62729e-14 5.48842e-14 -1.76461e-14 -4.16335e-15 -1.86092e-14 2.77673e-14 -3.89518e-15 -1.25405e-14 -1.37965e-14 3.8155e-14 -4.9886e-14 2.74226e-14 2.73018e-14 1.98406e-12 7.08705e-11 2.14219e-09 5.3792e-08 1.10237e-06 1.80216e-05 0.000227985 0.00214025 0.0141061 0.061893 0.180521 0.380822 0.654104 0.9616 0.928769 0.961903 0.978535 0.96318 0.922776 0.844588 0.73202 0.583989 0.416173 0.251171 0.11944 0.0417353 0.011005 0.00243531 0.000485673 8.95579e-05 1.53945e-05 2.47498e-06 3.72862e-07 5.27064e-08 6.99766e-09 8.73266e-10 1.02496e-10 1.13368e-11 1.23593e-12 3.57227e-14 4.32084e-14 1.29751e-14 -2.79815e-14 -7.15844e-15 -2.06797e-14 1.12712e-14 3.2131e-14 -2.76149e-14 -1.15215e-14 3.02175e-14 -4.36791e-15 5.09127e-14 -1.02714e-14 -2.01099e-14 5.07296e-15 -4.19321e-14 3.82906e-14 -2.56398e-14 4.15911e-14 -6.78432e-15 -3.58389e-14 7.33059e-14 -4.39076e-14 -1.44077e-14 3.68533e-14 -5.80082e-14 8.97642e-14 -4.2684e-14 -2.43003e-14 1.37029e-14 -3.67659e-15 -1.19376e-14 1.84642e-14 -5.58506e-14 3.70154e-14 -1.49361e-14 8.24553e-14 -6.40587e-14 -2.79681e-14 2.77122e-14 -9.33138e-14 9.41653e-14 3.90502e-14 -4.55854e-14 8.45229e-14 -2.98754e-14 -1.77186e-14 -8.41903e-14 1.29753e-14 -1.21719e-14 1.58021e-14 1.20826e-14 -2.28776e-14 3.02674e-14 1.79694e-14 -4.09737e-14 2.93395e-14 -3.10338e-14 -3.6133e-14 7.86314e-14 -2.7921e-14 1.00596e-14 -2.16602e-16 -3.26248e-14 -1.62433e-14 3.13048e-14 -4.8261e-14 2.86726e-14 7.17804e-15 -4.31871e-15 -1.67565e-14 5.12831e-15 8.68642e-15 -4.75709e-15 0 0 3.49986e-16 -2.07335e-16 1.50755e-15 5.59986e-16 -7.23694e-16 -2.13146e-15 5.10152e-16 1.18478e-15 -1.92088e-16 -5.96608e-17 -6.64243e-15 5.19759e-15 1.84636e-15 3.68318e-16 -1.52377e-15 8.74612e-16 3.89259e-15 -2.81514e-15 -2.63748e-15 1.60723e-15 -3.82498e-15 9.46236e-15 -2.83413e-15 -3.26511e-15 -6.60308e-17 1.08688e-14 -1.54711e-14 8.01529e-15 -1.27935e-14 1.06263e-14 2.24769e-15 1.22676e-14 7.13919e-15 -2.73968e-14 7.3784e-15 5.15295e-16 -4.17324e-15 3.86403e-15 -3.65065e-15 -8.65082e-15 1.43064e-14 -3.21667e-15 -3.67833e-15 1.87689e-14 -2.58177e-14 1.50272e-14 -2.91593e-15 -3.62775e-15 1.68151e-16 1.34917e-15 4.5785e-15 -5.08303e-15 2.39662e-14 -3.4262e-15 -8.06108e-15 4.2402e-14 -3.38607e-14 1.34252e-14 -4.62803e-14 3.61884e-15 3.15906e-14 -2.35073e-14 3.79237e-14 -1.01438e-14 2.02272e-15 1.25424e-14 -3.73163e-14 2.23608e-14 -5.18243e-15 3.96519e-15 3.63062e-15 2.546e-14 8.24613e-15 -4.969e-14 6.62157e-14 -2.98042e-14 -2.81251e-14 4.01972e-14 -1.22574e-14 -1.21659e-14 -2.34729e-14 2.13426e-14 1.56697e-14 1.22943e-14 9.14631e-16 1.97607e-12 7.08791e-11 2.14219e-09 5.3792e-08 1.10237e-06 1.80216e-05 0.000227985 0.00214025 0.0141061 0.061893 0.180521 0.380822 0.654104 0.9616 0.928769 0.961903 0.978535 0.96318 0.922776 0.844588 0.73202 0.583989 0.416173 0.251171 0.11944 0.0417353 0.011005 0.00243531 0.000485673 8.95579e-05 1.53945e-05 2.47498e-06 3.72862e-07 5.27064e-08 6.99766e-09 8.7323e-10 1.02536e-10 1.13236e-11 1.25e-12 3.32536e-14 -1.437e-14 1.21884e-13 -3.67763e-14 -1.47265e-14 -9.68846e-14 7.81289e-15 8.33038e-14 -1.87298e-14 -4.7923e-14 3.70785e-14 -5.19925e-14 1.04256e-13 1.48214e-14 -6.53382e-14 1.78141e-14 -4.18269e-14 1.08114e-13 -9.70027e-14 1.40696e-14 6.17665e-14 -2.79747e-14 1.31051e-13 -1.15399e-13 -1.09554e-14 3.81174e-14 -2.07059e-14 5.15203e-14 -8.25528e-14 -2.75806e-14 -4.59313e-15 -1.38072e-14 1.15113e-13 -4.46906e-14 -9.25481e-14 6.43236e-14 -2.78515e-14 5.27836e-14 -5.24012e-14 -2.22336e-14 1.0397e-13 -4.80242e-14 -2.6163e-14 -2.8683e-14 -1.24319e-14 6.14928e-14 5.77068e-14 -5.27225e-14 -1.10096e-13 3.97428e-14 -3.02229e-14 3.44608e-14 -6.2306e-15 -2.23726e-14 2.74856e-14 3.29379e-14 -3.4365e-14 4.63555e-14 -7.0769e-14 6.31816e-15 5.86713e-14 -4.23267e-14 2.19077e-14 -4.53915e-16 -2.43523e-14 -5.87434e-14 5.75074e-14 -3.29421e-14 4.33653e-15 -8.75682e-16 -1.56254e-14 1.31041e-14 2.88453e-14 -2.78922e-14 5.00741e-14 0 0 -7.02566e-16 8.23892e-16 -1.17319e-15 9.60687e-16 -6.33638e-16 -1.9968e-15 2.83246e-15 -4.37036e-16 9.29729e-16 -1.38232e-15 4.36467e-15 -5.00733e-15 -3.10297e-16 3.6094e-15 -3.19259e-15 2.83717e-15 -4.74172e-15 2.93452e-15 -2.29962e-15 6.66007e-15 -5.44938e-15 5.3022e-15 4.26891e-15 -1.34855e-14 8.07971e-15 -1.87951e-15 -4.52787e-15 7.2704e-15 -9.80658e-15 7.8484e-15 4.88633e-15 2.09326e-14 -1.21175e-14 -1.53804e-14 6.50817e-15 -9.35988e-15 1.21028e-14 -2.01768e-14 1.11643e-14 -6.35242e-15 1.05301e-14 -1.57515e-15 -7.28661e-19 4.72229e-15 -2.92156e-15 -9.12053e-15 4.87932e-15 -5.5883e-15 1.82911e-15 7.9285e-15 1.16259e-15 4.36184e-15 9.43353e-16 1.77703e-14 -1.87114e-14 3.61766e-14 -8.47181e-15 6.48886e-15 -3.1843e-14 -2.81444e-14 3.39049e-14 2.03344e-14 2.56369e-15 -3.53612e-15 -5.99843e-15 -8.46403e-15 -5.11897e-15 2.72147e-14 -1.84313e-14 1.6524e-14 -3.36314e-14 6.13542e-14 3.19892e-15 -3.39268e-14 9.06622e-14 -7.77788e-14 2.00028e-14 3.22369e-14 -3.59526e-14 -2.45694e-14 -2.60936e-14 -9.81562e-15 5.19668e-14 -1.7163e-14 1.27769e-13 1.8825e-12 7.08598e-11 2.14224e-09 5.3792e-08 1.10237e-06 1.80216e-05 0.000227985 0.00214025 0.0141061 0.061893 0.180521 0.380822 0.654104 0.9616 0.928769 0.961903 0.978535 0.96318 0.922776 0.844588 0.73202 0.583989 0.416173 0.251171 0.11944 0.0417353 0.011005 0.00243531 0.000485673 8.95579e-05 1.53945e-05 2.47498e-06 3.72862e-07 5.27063e-08 6.99769e-09 8.73228e-10 1.02568e-10 1.13713e-11 1.16953e-12 1.84451e-14 4.19242e-14 9.7356e-14 -1.78366e-14 -1.5694e-14 -1.1754e-13 5.05183e-15 1.03004e-13 -6.32851e-14 -4.01673e-15 -2.58891e-14 -7.98824e-14 1.17911e-13 8.24726e-14 -1.69616e-13 1.03587e-13 7.47912e-15 7.17708e-14 -4.24287e-14 -3.72008e-14 1.86907e-14 1.14791e-13 2.37202e-14 7.93336e-15 -6.83247e-14 -2.42849e-14 3.97023e-14 -1.09077e-13 2.94416e-14 -4.85425e-15 -5.17312e-14 -5.55253e-14 1.50105e-13 -7.7361e-14 1.56711e-14 6.25255e-14 -1.38389e-14 -7.58843e-14 4.98926e-15 -3.80653e-14 1.31094e-13 -4.51714e-14 -6.82212e-14 -4.32606e-15 -1.75709e-14 3.45702e-14 4.20412e-14 -2.99854e-14 -6.96917e-14 -5.4873e-14 1.02485e-13 1.63616e-14 -6.64427e-14 2.70435e-14 -6.12065e-14 5.21851e-14 7.99479e-14 -2.99241e-14 -1.24999e-14 -6.74623e-14 7.68931e-14 -4.35469e-14 3.84711e-14 -7.77524e-14 1.11951e-14 -2.26945e-14 5.48028e-14 -8.2858e-14 8.4118e-14 -1.11923e-14 -4.42264e-14 9.6392e-15 -1.70834e-14 5.74307e-14 -3.18011e-14 0 0 -6.76699e-16 -6.28276e-16 -4.52268e-16 -1.9796e-15 8.36392e-16 -7.93879e-16 5.78151e-15 -5.67611e-15 -1.08235e-15 7.82292e-15 1.73903e-15 2.16188e-15 -1.47559e-14 1.13024e-14 1.34934e-15 -4.93917e-15 -4.94275e-15 -1.76366e-15 1.27471e-14 4.52676e-15 -1.05432e-14 -6.82403e-15 3.22274e-15 -3.51143e-15 1.10102e-14 -1.67539e-14 9.07527e-15 1.83745e-15 1.08508e-14 -2.25095e-14 1.92166e-14 9.05377e-15 -2.20259e-14 2.62104e-14 -1.12859e-14 -3.09871e-15 4.47343e-15 -7.98505e-15 -8.06007e-15 1.66079e-14 -1.30807e-14 -6.68919e-15 1.23719e-14 -1.18634e-14 3.01556e-14 -1.18999e-14 -1.91122e-14 1.48632e-14 1.07886e-14 -1.03131e-14 9.50431e-15 -2.55856e-14 3.30697e-14 -1.5329e-14 -1.00544e-14 -9.60673e-15 1.41351e-14 6.05811e-15 4.39119e-15 -3.39263e-15 1.44739e-15 1.9847e-14 4.64265e-15 -1.51886e-14 6.18514e-16 -2.51647e-14 3.15153e-14 1.28193e-14 -7.08494e-15 2.37085e-14 2.33451e-14 -3.18806e-14 -3.03958e-14 4.34373e-14 1.94019e-14 -3.27056e-14 5.34576e-14 1.28648e-14 -3.19762e-14 -1.84461e-14 -3.05449e-14 2.71313e-14 -2.2025e-14 7.06143e-14 1.89175e-13 1.78301e-12 7.0858e-11 2.14226e-09 5.3792e-08 1.10237e-06 1.80216e-05 0.000227985 0.00214025 0.0141061 0.061893 0.180521 0.380822 0.654104 0.9616 0.928769 0.961903 0.978535 0.96318 0.922776 0.844588 0.73202 0.583989 0.416173 0.251171 0.11944 0.0417353 0.011005 0.00243531 0.000485673 8.95579e-05 1.53945e-05 2.47498e-06 3.72862e-07 5.27064e-08 6.99758e-09 8.73314e-10 1.02529e-10 1.12996e-11 1.28336e-12 -7.5383e-14 1.01244e-13 -2.69739e-14 9.19944e-15 -8.51587e-15 -5.75593e-14 2.4638e-14 5.93726e-14 -9.20506e-14 8.08302e-14 -6.42949e-14 -2.0837e-14 1.28507e-14 7.82366e-14 -8.84644e-14 4.13566e-14 2.15894e-15 3.80097e-14 7.72193e-14 -4.4094e-14 3.37621e-14 -2.62858e-14 5.6936e-14 5.03761e-15 -1.72109e-14 1.66594e-14 -6.04102e-14 -3.70887e-14 2.09339e-14 9.36568e-14 -1.03111e-13 -2.4869e-14 -3.81278e-14 2.17365e-14 9.56044e-14 8.24966e-14 5.13908e-14 -6.72855e-14 -1.28894e-13 -6.39017e-14 8.12998e-14 -6.26013e-14 -1.09977e-14 7.38492e-14 -3.63997e-15 1.07303e-15 -1.27856e-14 -3.98303e-14 -2.48117e-14 -5.0716e-14 9.07092e-14 -4.12025e-15 -4.25232e-14 -6.76846e-15 1.53466e-14 -1.47746e-14 7.62825e-14 -8.27957e-14 8.62647e-14 -7.25479e-14 2.44334e-14 -1.88378e-14 -3.18164e-14 3.51757e-14 2.31355e-14 -4.62273e-14 -1.53787e-14 -2.31582e-14 5.20631e-14 1.88534e-14 -5.05702e-15 -3.54056e-14 9.79905e-15 3.28229e-14 -5.53886e-14 0 0 5.1734e-17 -1.29057e-15 4.00066e-16 -2.0322e-15 2.73797e-15 -3.32783e-15 1.83362e-15 -6.98417e-16 -2.51738e-15 1.32129e-14 -1.55906e-14 1.66973e-14 -8.20981e-15 -3.63902e-15 1.21876e-14 -8.8017e-16 -1.43531e-14 6.91389e-15 1.16909e-14 -5.32954e-15 -8.4521e-15 -4.70563e-15 -7.13486e-15 -9.52304e-17 3.8549e-15 5.95752e-15 4.14662e-15 -6.67968e-15 1.11974e-14 -2.47687e-14 6.98454e-15 1.86149e-14 -6.11624e-15 1.87759e-14 -8.08016e-15 4.72919e-16 9.5495e-15 -6.69573e-15 -2.07633e-14 1.34427e-14 -1.58796e-14 8.69972e-16 -1.05167e-14 2.02574e-14 2.35654e-14 1.5643e-15 -2.38125e-14 4.92203e-15 1.96254e-14 -3.55639e-14 2.70781e-14 -4.14606e-14 5.00078e-14 -3.21491e-14 -9.15072e-15 -2.41091e-14 4.012e-14 -4.03185e-14 4.33204e-14 1.07526e-14 -3.46353e-15 -8.93866e-15 1.83547e-14 -2.23436e-14 1.94147e-14 -8.24636e-15 1.79366e-14 1.26344e-15 1.5171e-16 2.60189e-14 8.74444e-14 -1.01216e-13 -2.31105e-14 -9.49859e-15 1.05977e-14 3.17288e-14 5.20905e-14 -3.88632e-14 2.14412e-14 -3.57125e-14 1.72451e-15 6.00875e-14 -6.08993e-14 1.62821e-13 1.33791e-13 1.7442e-12 7.0882e-11 2.14225e-09 5.37921e-08 1.10237e-06 1.80216e-05 0.000227985 0.00214025 0.0141061 0.061893 0.180521 0.380822 0.654104 0.9616 0.928769 0.961903 0.978535 0.96318 0.922776 0.844588 0.73202 0.583989 0.416173 0.251171 0.11944 0.0417353 0.011005 0.00243531 0.000485673 8.95579e-05 1.53945e-05 2.47498e-06 3.72862e-07 5.27065e-08 6.99746e-09 8.73321e-10 1.02538e-10 1.11797e-11 1.37736e-12 -3.98689e-14 -1.88921e-15 -4.37073e-14 7.47787e-14 -5.37918e-14 1.33543e-14 5.51308e-16 3.77728e-14 -6.33303e-14 7.59725e-14 -2.71193e-14 -1.92166e-14 -3.61077e-14 5.19799e-14 -9.49677e-15 -2.6394e-14 -3.87493e-14 8.73742e-14 1.10835e-13 -7.49989e-14 1.48335e-13 -2.15882e-13 1.20679e-13 -9.70667e-14 6.68262e-14 6.33433e-14 -8.60353e-14 4.86713e-14 -5.87425e-14 1.56737e-13 -9.05381e-14 -1.48778e-14 -1.15719e-13 7.41428e-14 5.61125e-14 1.21876e-13 8.21701e-14 1.90931e-14 -2.74477e-13 -7.12828e-14 4.7512e-14 1.57133e-14 -8.1644e-14 7.73329e-14 7.77966e-14 -7.07678e-14 1.66384e-14 -9.97935e-14 2.81098e-14 7.46905e-15 1.57104e-14 -7.04068e-15 -1.92972e-14 -3.3576e-14 8.18117e-14 -3.78227e-14 -2.16348e-14 -7.48917e-14 1.41436e-13 1.58066e-14 -9.20898e-14 7.15583e-15 -1.19228e-13 2.36643e-13 -9.48662e-15 -1.02639e-13 -6.77213e-14 9.80543e-14 -7.85023e-14 3.31432e-14 6.01892e-14 -5.13571e-15 3.57157e-14 -6.1687e-14 3.66887e-14 0
				</DataArray>
				<DataArray Name="VitesseY" type="Float32" format="ascii">