<?xml version="1.0"?>
<VTKFile type="PolyData">
	<PolyData>
		<Piece NumberOfPoints="1206" NumberOfPolys="1000">
			<Points>
				<DataArray type="Float32" NumberOfComponents="3" format="ascii">
 0 0 0 0.02 0 0 0.04 0 0 0.06 0 0 0.08 0 0 0.1 0 0 0 0.005 0 0.02 0.005 0 0.04 0.005 0 0.06 0.005 0 0.08 0.005 0 0.1 0.005 0 0 0.01 0 0.02 0.01 0 0.04 0.01 0 0.06 0.01 0 0.08 0.01 0 0.1 0.01 0 0 0.015 0 0.02 0.015 0 0.04 0.015 0 0.06 0.015 0 0.08 0.015 0 0.1 0.015 0 0 0.02 0 0.02 0.02 0 0.04 0.02 0 0.06 0.02 0 0.08 0.02 0 0.1 0.02 0 0 0.025 0 0.02 0.025 0 0.04 0.025 0 0.06 0.025 0 0.08 0.025 0 0.1 0.025 0 0 0.03 0 0.02 0.03 0 0.04 0.03 0 0.06 0.03 0 0.08 0.03 0 0.1 0.03 0 0 0.035 0 0.02 0.035 0 0.04 0.035 0 0.06 0.035 0 0.08 0.035 0 0.1 0.035 0 0 0.04 0 0.02 0.04 0 0.04 0.04 0 0.06 0.04 0 0.08 0.04 0 0.1 0.04 0 0 0.045 0 0.02 0.045 0 0.04 0.045 0 0.06 0.045 0 0.08 0.045 0 0.1 0.045 0 0 0.05 0 0.02 0.05 0 0.04 0.05 0 0.06 0.05 0 0.08 0.05 0 0.1 0.05 0 0 0.055 0 0.02 0.055 0 0.04 0.055 0 0.06 0.055 0 0.08 0.055 0 0.1 0.055 0 0 0.06 0 0.02 0.06 0 0.04 0.06 0 0.06 0.06 0 0.08 0.06 0 0.1 0.06 0 0 0.065 0 0.02 0.065 0 0.04 0.065 0 0.06 0.065 0 0.08 0.065 0 0.1 0.065 0 0 0.07 0 0.02 0.07 0 0.04 0.07 0 0.06 0.07 0 0.08 0.07 0 0.1 0.07 0 0 0.075 0 0.02 0.075 0 0.04 0.075 0 0.06 0.075 0 0.08 0.075 0 0.1 0.075 0 0 0.08 0 0.02 0.08 0 0.04 0.08 0 0.06 0.08 0 0.08 0.08 0 0.1 0.08 0 0 0.085 0 0.02 0.085 0 0.04 0.085 0 0.06 0.085 0 0.08 0.085 0 0.1 0.085 0 0 0.09 0 0.02 0.09 0 0.04 0.09 0 0.06 0.09 0 0.08 0.09 0 0.1 0.09 0 0 0.095 0 0.02 0.095 0 0.04 0.095 0 0.06 0.095 0 0.08 0.095 0 0.1 0.095 0 0 0.1 0 0.02 0.1 0 0.04 0.1 0 0.06 0.1 0 0.08 0.1 0 0.1 0.1 0 0 0.105 0 0.02 0.105 0 0.04 0.105 0 0.06 0.105 0 0.08 0.105 0 0.1 0.105 0 0 0.11 0 0.02 0.11 0 0.04 0.11 0 0.06 0.11 0 0.08 0.11 0 0.1 0.11 0 0 0.115 0 0.02 0.115 0 0.04 0.115 0 0.06 0.115 0 0.08 0.115 0 0.1 0.115 0 0 0.12 0 0.02 0.12 0 0.04 0.12 0 0.06 0.12 0 0.08 0.12 0 0.1 0.12 0 0 0.125 0 0.02 0.125 0 0.04 0.125 0 0.06 0.125 0 0.08 0.125 0 0.1 0.125 0 0 0.13 0 0.02 0.13 0 0.04 0.13 0 0.06 0.13 0 0.08 0.13 0 0.1 0.13 0 0 0.135 0 0.02 0.135 0 0.04 0.135 0 0.06 0.135 0 0.08 0.135 0 0.1 0.135 0 0 0.14 0 0.02 0.14 0 0.04 0.14 0 0.06 0.14 0 0.08 0.14 0 0.1 0.14 0 0 0.145 0 0.02 0.145 0 0.04 0.145 0 0.06 0.145 0 0.08 0.145 0 0.1 0.145 0 0 0.15 0 0.02 0.15 0 0.04 0.15 0 0.06 0.15 0 0.08 0.15 0 0.1 0.15 0 0 0.155 0 0.02 0.155 0 0.04 0.155 0 0.06 0.155 0 0.08 0.155 0 0.1 0.155 0 0 0.16 0 0.02 0.16 0 0.04 0.16 0 0.06 0.16 0 0.08 0.16 0 0.1 0.16 0 0 0.165 0 0.02 0.165 0 0.04 0.165 0 0.06 0.165 0 0.08 0.165 0 0.1 0.165 0 0 0.17 0 0.02 0.17 0 0.04 0.17 0 0.06 0.17 0 0.08 0.17 0 0.1 0.17 0 0 0.175 0 0.02 0.175 0 0.04 0.175 0 0.06 0.175 0 0.08 0.175 0 0.1 0.175 0 0 0.18 0 0.02 0.18 0 0.04 0.18 0 0.06 0.18 0 0.08 0.18 0 0.1 0.18 0 0 0.185 0 0.02 0.185 0 0.04 0.185 0 0.06 0.185 0 0.08 0.185 0 0.1 0.185 0 0 0.19 0 0.02 0.19 0 0.04 0.19 0 0.06 0.19 0 0.08 0.19 0 0.1 0.19 0 0 0.195 0 0.02 0.195 0 0.04 0.195 0 0.06 0.195 0 0.08 0.195 0 0.1 0.195 0 0 0.2 0 0.02 0.2 0 0.04 0.2 0 0.06 0.2 0 0.08 0.2 0 0.1 0.2 0 0 0.205 0 0.02 0.205 0 0.04 0.205 0 0.06 0.205 0 0.08 0.205 0 0.1 0.205 0 0 0.21 0 0.02 0.21 0 0.04 0.21 0 0.06 0.21 0 0.08 0.21 0 0.1 0.21 0 0 0.215 0 0.02 0.215 0 0.04 0.215 0 0.06 0.215 0 0.08 0.215 0 0.1 0.215 0 0 0.22 0 0.02 0.22 0 0.04 0.22 0 0.06 0.22 0 0.08 0.22 0 0.1 0.22 0 0 0.225 0 0.02 0.225 0 0.04 0.225 0 0.06 0.225 0 0.08 0.225 0 0.1 0.225 0 0 0.23 0 0.02 0.23 0 0.04 0.23 0 0.06 0.23 0 0.08 0.23 0 0.1 0.23 0 0 0.235 0 0.02 0.235 0 0.04 0.235 0 0.06 0.235 0 0.08 0.235 0 0.1 0.235 0 0 0.24 0 0.02 0.24 0 0.04 0.24 0 0.06 0.24 0 0.08 0.24 0 0.1 0.24 0 0 0.245 0 0.02 0.245 0 0.04 0.245 0 0.06 0.245 0 0.08 0.245 0 0.1 0.245 0 0 0.25 0 0.02 0.25 0 0.04 0.25 0 0.06 0.25 0 0.08 0.25 0 0.1 0.25 0 0 0.255 0 0.02 0.255 0 0.04 0.255 0 0.06 0.255 0 0.08 0.255 0 0.1 0.255 0 0 0.26 0 0.02 0.26 0 0.04 0.26 0 0.06 0.26 0 0.08 0.26 0 0.1 0.26 0 0 0.265 0 0.02 0.265 0 0.04 0.265 0 0.06 0.265 0 0.08 0.265 0 0.1 0.265 0 0 0.27 0 0.02 0.27 0 0.04 0.27 0 0.06 0.27 0 0.08 0.27 0 0.1 0.27 0 0 0.275 0 0.02 0.275 0 0.04 0.275 0 0.06 0.275 0 0.08 0.275 0 0.1 0.275 0 0 0.28 0 0.02 0.28 0 0.04 0.28 0 0.06 0.28 0 0.08 0.28 0 0.1 0.28 0 0 0.285 0 0.02 0.285 0 0.04 0.285 0 0.06 0.285 0 0.08 0.285 0 0.1 0.285 0 0 0.29 0 0.02 0.29 0 0.04 0.29 0 0.06 0.29 0 0.08 0.29 0 0.1 0.29 0 0 0.295 0 0.02 0.295 0 0.04 0.295 0 0.06 0.295 0 0.08 0.295 0 0.1 0.295 0 0 0.3 0 0.02 0.3 0 0.04 0.3 0 0.06 0.3 0 0.08 0.3 0 0.1 0.3 0 0 0.305 0 0.02 0.305 0 0.04 0.305 0 0.06 0.305 0 0.08 0.305 0 0.1 0.305 0 0 0.31 0 0.02 0.31 0 0.04 0.31 0 0.06 0.31 0 0.08 0.31 0 0.1 0.31 0 0 0.315 0 0.02 0.315 0 0.04 0.315 0 0.06 0.315 0 0.08 0.315 0 0.1 0.315 0 0 0.32 0 0.02 0.32 0 0.04 0.32 0 0.06 0.32 0 0.08 0.32 0 0.1 0.32 0 0 0.325 0 0.02 0.325 0 0.04 0.325 0 0.06 0.325 0 0.08 0.325 0 0.1 0.325 0 0 0.33 0 0.02 0.33 0 0.04 0.33 0 0.06 0.33 0 0.08 0.33 0 0.1 0.33 0 0 0.335 0 0.02 0.335 0 0.04 0.335 0 0.06 0.335 0 0.08 0.335 0 0.1 0.335 0 0 0.34 0 0.02 0.34 0 0.04 0.34 0 0.06 0.34 0 0.08 0.34 0 0.1 0.34 0 0 0.345 0 0.02 0.345 0 0.04 0.345 0 0.06 0.345 0 0.08 0.345 0 0.1 0.345 0 0 0.35 0 0.02 0.35 0 0.04 0.35 0 0.06 0.35 0 0.08 0.35 0 0.1 0.35 0 0 0.355 0 0.02 0.355 0 0.04 0.355 0 0.06 0.355 0 0.08 0.355 0 0.1 0.355 0 0 0.36 0 0.02 0.36 0 0.04 0.36 0 0.06 0.36 0 0.08 0.36 0 0.1 0.36 0 0 0.365 0 0.02 0.365 0 0.04 0.365 0 0.06 0.365 0 0.08 0.365 0 0.1 0.365 0 0 0.37 0 0.02 0.37 0 0.04 0.37 0 0.06 0.37 0 0.08 0.37 0 0.1 0.37 0 0 0.375 0 0.02 0.375 0 0.04 0.375 0 0.06 0.375 0 0.08 0.375 0 0.1 0.375 0 0 0.38 0 0.02 0.38 0 0.04 0.38 0 0.06 0.38 0 0.08 0.38 0 0.1 0.38 0 0 0.385 0 0.02 0.385 0 0.04 0.385 0 0.06 0.385 0 0.08 0.385 0 0.1 0.385 0 0 0.39 0 0.02 0.39 0 0.04 0.39 0 0.06 0.39 0 0.08 0.39 0 0.1 0.39 0 0 0.395 0 0.02 0.395 0 0.04 0.395 0 0.06 0.395 0 0.08 0.395 0 0.1 0.395 0 0 0.4 0 0.02 0.4 0 0.04 0.4 0 0.06 0.4 0 0.08 0.4 0 0.1 0.4 0 0 0.405 0 0.02 0.405 0 0.04 0.405 0 0.06 0.405 0 0.08 0.405 0 0.1 0.405 0 0 0.41 0 0.02 0.41 0 0.04 0.41 0 0.06 0.41 0 0.08 0.41 0 0.1 0.41 0 0 0.415 0 0.02 0.415 0 0.04 0.415 0 0.06 0.415 0 0.08 0.415 0 0.1 0.415 0 0 0.42 0 0.02 0.42 0 0.04 0.42 0 0.06 0.42 0 0.08 0.42 0 0.1 0.42 0 0 0.425 0 0.02 0.425 0 0.04 0.425 0 0.06 0.425 0 0.08 0.425 0 0.1 0.425 0 0 0.43 0 0.02 0.43 0 0.04 0.43 0 0.06 0.43 0 0.08 0.43 0 0.1 0.43 0 0 0.435 0 0.02 0.435 0 0.04 0.435 0 0.06 0.435 0 0.08 0.435 0 0.1 0.435 0 0 0.44 0 0.02 0.44 0 0.04 0.44 0 0.06 0.44 0 0.08 0.44 0 0.1 0.44 0 0 0.445 0 0.02 0.445 0 0.04 0.445 0 0.06 0.445 0 0.08 0.445 0 0.1 0.445 0 0 0.45 0 0.02 0.45 0 0.04 0.45 0 0.06 0.45 0 0.08 0.45 0 0.1 0.45 0 0 0.455 0 0.02 0.455 0 0.04 0.455 0 0.06 0.455 0 0.08 0.455 0 0.1 0.455 0 0 0.46 0 0.02 0.46 0 0.04 0.46 0 0.06 0.46 0 0.08 0.46 0 0.1 0.46 0 0 0.465005 0 0.02 0.465005 0 0.04 0.465005 0 0.06 0.465005 0 0.08 0.465005 0 0.1 0.465005 0 0 0.470036 0 0.02 0.470036 0 0.04 0.470036 0 0.06 0.470036 0 0.08 0.470036 0 0.1 0.470036 0 0 0.475197 0 0.02 0.475197 0 0.04 0.475197 0 0.06 0.475197 0 0.08 0.475197 0 0.1 0.475197 0 0 0.480761 0 0.02 0.480761 0 0.04 0.480761 0 0.06 0.480761 0 0.08 0.480761 0 0.1 0.480761 0 0 0.487199 0 0.02 0.487199 0 0.04 0.487199 0 0.06 0.487199 0 0.08 0.487199 0 0.1 0.487199 0 0 0.495214 0 0.02 0.495214 0 0.04 0.495214 0 0.06 0.495214 0 0.08 0.495214 0 0.1 0.495214 0 0 0.505934 0 0.02 0.505934 0 0.04 0.505934 0 0.06 0.505934 0 0.08 0.505934 0 0.1 0.505934 0 0 0.519352 0 0.02 0.519352 0 0.04 0.519352 0 0.06 0.519352 0 0.08 0.519352 0 0.1 0.519352 0 0 0.521686 0 0.02 0.521686 0 0.04 0.521686 0 0.06 0.521686 0 0.08 0.521686 0 0.1 0.521686 0 0 0.523977 0 0.02 0.523977 0 0.04 0.523977 0 0.06 0.523977 0 0.08 0.523977 0 0.1 0.523977 0 0 0.526314 0 0.02 0.526314 0 0.04 0.526314 0 0.06 0.526314 0 0.08 0.526314 0 0.1 0.526314 0 0 0.528768 0 0.02 0.528768 0 0.04 0.528768 0 0.06 0.528768 0 0.08 0.528768 0 0.1 0.528768 0 0 0.531429 0 0.02 0.531429 0 0.04 0.531429 0 0.06 0.531429 0 0.08 0.531429 0 0.1 0.531429 0 0 0.534384 0 0.02 0.534384 0 0.04 0.534384 0 0.06 0.534384 0 0.08 0.534384 0 0.1 0.534384 0 0 0.537718 0 0.02 0.537718 0 0.04 0.537718 0 0.06 0.537718 0 0.08 0.537718 0 0.1 0.537718 0 0 0.541484 0 0.02 0.541484 0 0.04 0.541484 0 0.06 0.541484 0 0.08 0.541484 0 0.1 0.541484 0 0 0.545684 0 0.02 0.545684 0 0.04 0.545684 0 0.06 0.545684 0 0.08 0.545684 0 0.1 0.545684 0 0 0.550254 0 0.02 0.550254 0 0.04 0.550254 0 0.06 0.550254 0 0.08 0.550254 0 0.1 0.550254 0 0 0.555074 0 0.02 0.555074 0 0.04 0.555074 0 0.06 0.555074 0 0.08 0.555074 0 0.1 0.555074 0 0 0.560018 0 0.02 0.560018 0 0.04 0.560018 0 0.06 0.560018 0 0.08 0.560018 0 0.1 0.560018 0 0 0.565004 0 0.02 0.565004 0 0.04 0.565004 0 0.06 0.565004 0 0.08 0.565004 0 0.1 0.565004 0 0 0.570001 0 0.02 0.570001 0 0.04 0.570001 0 0.06 0.570001 0 0.08 0.570001 0 0.1 0.570001 0 0 0.575 0 0.02 0.575 0 0.04 0.575 0 0.06 0.575 0 0.08 0.575 0 0.1 0.575 0 0 0.58 0 0.02 0.58 0 0.04 0.58 0 0.06 0.58 0 0.08 0.58 0 0.1 0.58 0 0 0.585 0 0.02 0.585 0 0.04 0.585 0 0.06 0.585 0 0.08 0.585 0 0.1 0.585 0 0 0.59 0 0.02 0.59 0 0.04 0.59 0 0.06 0.59 0 0.08 0.59 0 0.1 0.59 0 0 0.595 0 0.02 0.595 0 0.04 0.595 0 0.06 0.595 0 0.08 0.595 0 0.1 0.595 0 0 0.6 0 0.02 0.6 0 0.04 0.6 0 0.06 0.6 0 0.08 0.6 0 0.1 0.6 0 0 0.605 0 0.02 0.605 0 0.04 0.605 0 0.06 0.605 0 0.08 0.605 0 0.1 0.605 0 0 0.61 0 0.02 0.61 0 0.04 0.61 0 0.06 0.61 0 0.08 0.61 0 0.1 0.61 0 0 0.615 0 0.02 0.615 0 0.04 0.615 0 0.06 0.615 0 0.08 0.615 0 0.1 0.615 0 0 0.62 0 0.02 0.62 0 0.04 0.62 0 0.06 0.62 0 0.08 0.62 0 0.1 0.62 0 0 0.625 0 0.02 0.625 0 0.04 0.625 0 0.06 0.625 0 0.08 0.625 0 0.1 0.625 0 0 0.63 0 0.02 0.63 0 0.04 0.63 0 0.06 0.63 0 0.08 0.63 0 0.1 0.63 0 0 0.635 0 0.02 0.635 0 0.04 0.635 0 0.06 0.635 0 0.08 0.635 0 0.1 0.635 0 0 0.64 0 0.02 0.64 0 0.04 0.64 0 0.06 0.64 0 0.08 0.64 0 0.1 0.64 0 0 0.645 0 0.02 0.645 0 0.04 0.645 0 0.06 0.645 0 0.08 0.645 0 0.1 0.645 0 0 0.65 0 0.02 0.65 0 0.04 0.65 0 0.06 0.65 0 0.08 0.65 0 0.1 0.65 0 0 0.655 0 0.02 0.655 0 0.04 0.655 0 0.06 0.655 0 0.08 0.655 0 0.1 0.655 0 0 0.66 0 0.02 0.66 
[...]
			<PointData Scalars="VitesseX">
				<DataArray Name="VitesseX" type="Float32" format="ascii">
 0 3.00994e-16 -5.31635e-16 1.26881e-15 -7.4213e-16 0 0 1.77212e-16 -4.55336e-16 1.02549e-15 -5.38543e-16 0 0 -1.33906e-16 -4.00547e-16 1.32013e-15 -7.84846e-16 0 0 4.74887e-16 -1.12102e-15 1.18037e-15 -1.74747e-16 0 0 4.50966e-16 6.77355e-17 -6.24889e-16 3.04409e-16 0 0 -7.3035e-16 1.64903e-15 -9.77636e-16 4.28827e-16 0 0 -1.27097e-15 1.37062e-15 2.35355e-16 5.44087e-16 0 0 6.41953e-16 -2.06275e-15 3.30914e-15 -8.21169e-16 0 0 1.19659e-15 -2.01099e-15 2.43968e-15 -4.97613e-16 0 0 2.30464e-16 6.93029e-16 -8.51199e-17 -4.66632e-16 0 0 5.74683e-16 -3.32278e-16 -3.46528e-16 7.21138e-16 0 0 -8.39307e-16 5.16238e-16 -7.82216e-16 1.84559e-15 0 0 7.14186e-16 -2.54324e-15 3.05769e-15 -3.84689e-17 0 0 -2.37819e-15 7.07065e-16 2.09891e-15 2.36894e-15 0 0 -1.69447e-15 9.87376e-16 1.00452e-15 3.03833e-15 0 0 2.53424e-15 -4.64829e-15 4.88332e-15 2.34562e-15 0 0 -2.44753e-15 2.88691e-15 -1.30298e-16 4.0788e-15 0 0 7.72156e-16 3.61339e-15 -6.65483e-15 5.8634e-15 0 0 1.10964e-15 2.9318e-15 -6.01954e-15 6.57138e-15 0 0 -1.73185e-15 2.25281e-15 -6.41264e-16 4.95658e-15 0 0 3.59952e-15 -6.13276e-15 3.15954e-15 6.38822e-15 0 0 2.13909e-15 -3.63745e-15 9.47613e-18 1.27231e-14 0 0 -2.01326e-15 3.09408e-15 2.73516e-16 6.71945e-15 0 0 -1.85662e-15 4.98268e-15 -2.73594e-16 -2.32449e-15 0 0 4.22739e-16 2.00262e-15 -4.73789e-18 1.96347e-15 0 0 1.18173e-15 -2.58901e-15 5.90575e-15 1.69426e-15 0 0 -2.2788e-15 4.50332e-15 -8.08775e-16 1.65228e-15 0 0 -2.23917e-15 2.49764e-15 1.10997e-15 -1.23095e-15 0 0 3.78887e-16 -8.29989e-16 4.03307e-15 -2.95835e-15 0 0 2.91592e-15 2.71931e-17 -1.33908e-15 2.09877e-15 0 0 2.34175e-15 -1.97402e-15 1.90098e-15 2.2908e-16 0 0 3.22722e-15 -3.98985e-15 4.69648e-15 -1.73455e-15 0 0 -1.689e-16 1.94691e-15 2.27583e-15 -3.71606e-15 0 0 -4.14412e-15 1.11445e-14 -1.14877e-15 -4.82504e-15 0 0 4.12516e-15 2.74978e-15 -3.87549e-15 3.72952e-15 0 0 3.77573e-15 1.15444e-15 -6.79405e-15 5.13139e-15 0 0 9.39809e-16 4.33178e-15 -6.81308e-15 4.31426e-15 0 0 2.77975e-15 -1.61952e-15 2.54303e-15 -1.01824e-15 0 0 -6.70648e-16 -2.83962e-15 2.21065e-15 -1.08053e-15 0 0 -1.6048e-15 3.11382e-15 -4.28112e-15 4.19329e-15 0 0 8.75835e-18 -3.89419e-16 2.35764e-15 -1.29899e-15 0 0 -5.19821e-16 -3.48092e-15 7.62652e-15 -3.42936e-15 0 0 -1.10302e-15 1.66278e-16 1.31861e-14 -6.42842e-15 0 0 -1.90247e-15 -1.27249e-15 1.72006e-14 -1.2045e-14 0 0 7.70125e-16 -4.51782e-15 1.40402e-14 -1.41486e-14 0 0 3.86648e-15 -5.07895e-15 8.26138e-15 -1.16822e-14 0 0 1.15655e-15 3.60049e-15 -2.14901e-15 -2.18767e-17 0 0 3.0236e-16 9.65194e-15 -6.45262e-15 8.72135e-15 0 0 1.93111e-15 5.19032e-15 7.86231e-16 1.04857e-14 0 0 2.93956e-15 -1.58705e-15 3.42345e-15 1.6187e-14 0 0 1.92258e-15 -6.26476e-15 8.14236e-15 9.0693e-15 0 0 -1.79692e-15 2.0786e-15 4.93034e-15 -4.97657e-15 0 0 2.19068e-15 8.25417e-15 1.7689e-15 -1.64025e-14 0 0 8.0143e-15 1.18614e-15 -8.81773e-16 -9.41078e-15 0 0 -2.49464e-15 5.4745e-15 -3.25721e-15 3.9487e-15 0 0 -1.47542e-15 2.97196e-15 1.11637e-14 -9.07202e-15 0 0 1.15325e-14 -2.51783e-15 8.75192e-15 -1.18526e-14 0 0 4.01799e-15 1.28691e-14 -3.9939e-15 -8.02777e-15 0 0 2.66087e-15 9.63377e-15 1.18256e-15 -5.02804e-15 0 0 4.01953e-15 5.52537e-15 3.38863e-15 3.76659e-16 0 0 -1.10835e-15 5.70065e-15 -3.23124e-15 -2.45181e-15 0 0 -4.97039e-16 2.76192e-15 -1.00438e-15 -2.94663e-15 0 0 -4.98602e-16 3.53658e-15 2.32219e-15 -6.09006e-15 0 0 2.53414e-15 7.02199e-16 1.59706e-15 -1.23013e-14 0 0 2.7086e-15 1.81629e-15 3.04733e-15 -9.24584e-15 0 0 3.40608e-16 4.83228e-15 -6.49065e-15 5.31709e-15 0 0 4.22687e-15 3.46374e-15 -1.31905e-15 1.44474e-15 0 0 7.23835e-16 1.39577e-14 -3.0639e-15 -4.20277e-15 0 0 2.86956e-15 1.5784e-14 -9.98076e-15 -5.93276e-15 0 0 8.77977e-15 7.95541e-15 -2.55817e-15 -5.91626e-15 0 0 4.68416e-15 3.10805e-15 -4.77294e-15 1.04594e-14 0 0 9.78437e-15 -4.69539e-15 -6.77121e-17 1.43125e-14 0 0 1.071e-14 7.18561e-15 -5.30456e-15 -2.06431e-15 0 0 1.54925e-14 3.82995e-15 -1.60076e-14 1.3826e-14 0 0 1.29206e-14 -5.41548e-15 -1.31846e-15 2.5385e-14 0 0 9.85044e-16 -1.62972e-16 1.44812e-14 3.8407e-15 0 0 3.22182e-15 -4.99424e-15 2.49629e-14 3.61216e-15 0 0 5.85064e-15 9.46989e-17 2.17289e-14 1.97514e-14 0 0 8.92184e-15 1.39451e-16 3.04101e-14 1.70182e-14 0 0 1.65535e-16 7.04296e-15 3.98291e-14 -2.14214e-15 0 0 1.47079e-14 -5.36628e-15 2.52237e-14 -6.13202e-15 0 0 1.83626e-14 -1.34791e-14 2.80824e-14 -3.25987e-15 0 0 -5.23455e-15 1.31885e-14 1.58027e-14 1.65628e-14 0 0 1.51238e-15 2.09625e-14 -1.44838e-14 3.26252e-14 0 0 1.6996e-14 6.45919e-15 -8.34603e-15 1.34847e-14 0 0 2.19994e-14 -4.22816e-15 -3.92517e-15 2.66052e-15 0 0 1.92808e-14 -8.54932e-15 -2.75937e-16 1.28833e-14 0 0 1.63066e-14 -4.58342e-15 7.08401e-15 1.46815e-14 0 0 1.01427e-14 -3.13289e-15 1.22591e-14 1.16487e-14 0 0 7.52015e-15 7.69479e-16 5.70307e-15 2.20109e-14 0 0 -3.4008e-15 1.31637e-14 1.22602e-14 8.80727e-15 0 0 -1.11861e-14 -4.43982e-15 3.15431e-14 -1.10984e-14 0 0 8.27808e-15 -4.00802e-15 -1.27855e-14 9.9624e-15 0 0 8.75995e-15 3.93118e-15 -1.88382e-14 2.76016e-14 0 0 -1.9163e-15 1.45071e-14 1.16416e-15 -4.69379e-15 0 0 2.91781e-15 1.1759e-14 3.2501e-15 -1.72432e-14 0 0 -5.41151e-15 3.60705e-15 9.08871e-15 1.22661e-14 0 0 2.18622e-15 4.33449e-15 6.64152e-15 4.29466e-15 0 0 1.00141e-14 2.67643e-15 8.22283e-16 1.28359e-14 0 0 -5.0913e-17 2.39838e-15 3.27463e-15 3.96045e-15 0 0 -3.28324e-15 5.70192e-15 3.69653e-15 -6.43986e-15 0 0 -3.50631e-14 -3.14713e-15 -1.59375e-14 -5.21959e-14 0 0 5.19716e-14 8.5745e-14 1.1473e-13 2.89491e-14 0 0 -2.48805e-14 -8.2483e-14 -5.05637e-14 -1.05046e-13 0 0 3.52236e-14 7.0257e-14 5.67195e-14 1.25079e-14 0 0 4.5357e-14 3.78219e-14 4.96577e-14 9.13036e-14 0 0 -3.65599e-14 -1.0039e-13 -6.03827e-14 -1.15742e-14 0 0 5.45063e-14 6.66594e-14 1.09206e-13 4.68264e-14 0 0 -1.0608e-15 -2.80544e-14 -1.23583e-14 -1.91003e-14 0 0 -4.54154e-15 2.37171e-14 1.83154e-14 1.64306e-14 0 0 6.62398e-15 3.40594e-15 -9.77603e-15 2.70692e-14 0 0 1.31299e-14 -4.04091e-16 4.80924e-15 1.72707e-14 0 0 1.12745e-14 5.45996e-16 1.82987e-14 -4.23309e-15 0 0 2.39329e-15 2.77179e-15 3.10715e-14 -2.2524e-14 0 0 7.67067e-16 9.39935e-15 2.04559e-14 -1.58702e-14 0 0 1.0187e-14 1.01657e-14 1.72551e-14 -1.42058e-14 0 0 6.53354e-15 9.70537e-15 1.08766e-14 -1.36987e-14 0 0 6.56852e-15 6.01382e-15 -9.12971e-15 1.33593e-14 0 0 7.77332e-15 6.75688e-15 -1.69161e-14 2.05934e-14 0 0 4.33992e-15 2.47949e-15 -1.41447e-15 -6.49195e-15 0 0 5.08946e-15 5.25324e-15 1.06989e-14 -2.37092e-14 0 0 7.36324e-15 5.34384e-15 -4.91062e-15 -4.69664e-15 0 0 1.26567e-14 3.36836e-15 -1.34642e-14 2.08283e-14 0 0 1.44467e-14 2.07501e-15 6.49915e-15 -8.70545e-15 0 0 5.93892e-15 1.5642e-14 7.59444e-15 -2.61803e-14 0 0 6.3071e-15 1.92642e-14 -4.56622e-15 -4.08284e-15 0 0 5.7152e-15 -6.65661e-15 7.66275e-16 9.47055e-16 0 0 1.2647e-14 3.09e-15 -2.64638e-14 6.88958e-15 0 0 7.15369e-15 4.64945e-14 -4.70842e-14 -6.77024e-15 0 0 1.35909e-14 2.58176e-14 -1.44818e-16 -2.89121e-14 0 0 2.38724e-14 1.02458e-14 5.23676e-15 -2.01732e-14 0 0 4.57912e-15 2.60476e-14 -8.25984e-15 -1.68121e-14 0 0 -2.78395e-15 1.77853e-14 1.04195e-14 -1.81928e-14 0 0 1.79516e-14 6.33609e-15 1.73804e-15 -1.21664e-15 0 0 2.13786e-14 1.42311e-14 -1.46747e-14 -1.28701e-14 0 0 1.16213e-14 3.80909e-14 -2.8198e-14 -2.49714e-14 0 0 2.45359e-14 9.9235e-15 -8.32178e-15 -2.97051e-14 0 0 2.26633e-14 6.82445e-15 -9.45447e-15 -2.63871e-14 0 0 1.41697e-14 1.82617e-14 -3.07076e-14 1.41692e-15 0 0 9.63417e-15 -4.28331e-15 4.10653e-15 -2.91142e-15 0 0 1.19422e-14 2.16644e-15 5.42158e-16 -1.19764e-14 0 0 7.95854e-15 1.71653e-14 -2.98648e-14 1.05549e-14 0 0 1.69217e-15 3.88271e-15 -1.51359e-15 -7.55957e-15 0 0 3.64551e-15 3.72463e-15 9.22968e-15 -2.14744e-14 0 0 -9.04927e-15 2.40032e-14 -1.21401e-14 1.91703e-14 0 0 5.07715e-15 9.23517e-15 -2.05938e-15 3.56454e-14 0 0 1.44318e-14 1.60657e-14 1.50651e-14 1.0375e-14 0 0 1.22821e-14 2.49141e-15 4.66522e-14 -2.07968e-14 0 0 2.25189e-15 1.10843e-14 1.86345e-14 -1.06922e-14 0 0 5.15382e-15 1.24423e-14 -3.11356e-15 2.11391e-15 0 0 2.42504e-14 -1.20763e-15 6.45971e-15 -1.22656e-14 0 0 2.88799e-15 3.22847e-14 -2.22388e-14 2.08043e-15 0 0 3.82162e-15 1.0378e-14 -9.56122e-15 -1.96912e-16 0 0 1.81011e-14 1.12829e-15 -2.32123e-15 -1.78026e-14 0 0 1.60356e-14 3.39232e-16 -1.07535e-14 -4.63788e-15 0 0 1.57677e-14 -1.03711e-15 -5.26545e-15 -7.38809e-15 0 0 1.69454e-14 1.12961e-14 -1.20404e-14 -1.26063e-14 0 0 2.73864e-14 -1.78712e-14 -7.82884e-16 7.9294e-15 0 0 1.02868e-14 -2.05494e-14 7.97086e-15 -9.11801e-15 0 0 1.76289e-15 -7.99635e-16 -1.7343e-14 2.19783e-15 0 0 1.81776e-14 1.41614e-14 -2.8414e-14 6.6422e-15 0 0 3.05463e-14 1.28756e-14 -4.55389e-16 -2.78819e-14 0 0 3.54396e-14 1.41856e-14 -9.7912e-16 -2.89871e-14 0 0 2.79654e-14 2.8208e-14 2.00204e-14 -6.06921e-14 0 0 1.42671e-14 3.06847e-14 4.47425e-14 -3.40522e-14 0 0 1.17891e-14 3.29409e-14 8.46137e-15 5.38888e-14 0 0 2.88114e-14 4.05007e-14 1.62986e-14 4.59537e-14 0 0 4.12956e-14 1.73947e-14 7.11911e-14 5.06786e-16 0 0 3.75667e-14 5.12869e-15 6.47534e-14 -1.27426e-14 0 0 3.26478e-14 2.99437e-15 2.41664e-14 1.34735e-14 0 0 3.52799e-14 1.50733e-15 -4.00746e-15 1.03157e-14 0 0 1.40586e-14 3.26288e-14 9.76038e-15 -2.73771e-14 0 0 1.80765e-14 4.17321e-15 6.98718e-14 -6.59553e-14 0 0 1.3089e-14 8.74566e-15 4.42095e-14 -3.58535e-14 0 0 -9.56494e-15 4.4685e-14 -5.21737e-15 8.7824e-15 0 0 9.52504e-15 2.1736e-14 -2.01861e-15 -1.41409e-14 0 0 2.48912e-14 1.44489e-14 -1.58317e-14 -2.08493e-14 0 0 3.75114e-14 6.18636e-15 -2.89467e-14 -1.62154e-14 0 0 3.35278e-14 -2.32056e-14 8.76664e-15 -2.51937e-14 0 0 1.3246e-14 -1.02941e-14 1.13652e-14 -5.09e-15 0 0 1.79023e-15 5.29765e-15 1.25948e-14 1.32089e-14 0 0 1.91604e-15 -9.52414e-15 3.32031e-14 -2.86481e-15 0 0 1.35334e-14 -7.95478e-15 1.84929e-14 -2.04016e-14 0 0 4.16046e-15 1.3447e-14 3.63896e-15 -3.39613e-14 0 0 2.17658e-15 1.59722e-15 -6.57846e-15 -2.81776e-15 0 0 8.01177e-15 -7.70501e-15 -1.93302e-15 8.66479e-15 0 0 -9.86938e-15 6.47585e-15 1.87768e-14 -2.24077e-14 0 0 -3.92256e-15 1.13044e-14 9.39509e-15 -2.92449e-14 0 0 1.67016e-14 1.20039e-14 -3.44058e-14 -1.96888e-16 0 0 1.20607e-15 -2.26011e-15 3.10771e-15 -1.95404e-14 0 0 -2.67441e-14 1.55951e-14 4.40153e-14 -4.22586e-14 0 0 -2.70232e-14 3.04888e-14 4.54325e-14 -5.20921e-14 0 0 6.30666e-16 -9.61772e-16 3.24547e-14 -1.06471e-14 0 0 5.35428e-15 -1.34205e-14 1.88775e-15 3.52517e-14 0 0 -1.99483e-15 6.84418e-15 -1.28424e-14 3.84304e-14 0 0 1.43546e-14 -3.27057e-15 8.53473e-15 1.37594e-14 0 0 5.39961e-15 3.24363e-15 4.20433e-15 2.9183e-14 0 0 -1.4269e-14 2.1413e-14 -1.76148e-14 5.68046e-14 0 0 -4.25045e-15 -3.91354e-15 1.45131e-14 1.66124e-14 0 0 2.65436e-15 4.40219e-15 -1.17856e-15 1.17508e-14 0 0 0 2.48224e-14 -3.06898e-14 1.59656e-14 0
				</DataArray>
				<DataArray Name="VitesseY" type="Float32" format="ascii">