<?xml version="1.0"?>
<VTKFile type="PolyData">
	<PolyData>
		<Piece NumberOfPoints="1206" NumberOfPolys="1000">
			<Points>
				<DataArray type="Float32" NumberOfComponents="3" format="ascii">
 0 0 0 0.02 0 0 0.04 0 0 0.06 0 0 0.08 0 0 0.1 0 0 0 0.005 0 0.02 0.005 0 0.04 0.005 0 0.06 0.005 0 0.08 0.005 0 0.1 0.005 0 0 0.01 0 0.02 0.01 0 0.04 0.01 0 0.06 0.01 0 0.08 0.01 0 0.1 0.01 0 0 0.015 0 0.02 0.015 0 0.04 0.015 0 0.06 0.015 0 0.08 0.015 0 0.1 0.015 0 0 0.02 0 0.02 0.02 0 0.04 0.02 0 0.06 0.02 0 0.08 0.02 0 0.1 0.02 0 0 0.025 0 0.02 0.025 0 0.04 0.025 0 0.06 0.025 0 0.08 0.025 0 0.1 0.025 0 0 0.03 0 0.02 0.03 0 0.04 0.03 0 0.06 0.03 0 0.08 0.03 0 0.1 0.03 0 0 0.035 0 0.02 0.035 0 0.04 0.035 0 0.06 0.035 0 0.08 0.035 0 0.1 0.035 0 0 0.04 0 0.02 0.04 0 0.04 0.04 0 0.06 0.04 0 0.08 0.04 0 0.1 0.04 0 0 0.045 0 0.02 0.045 0 0.04 0.045 0 0.06 0.045 0 0.08 0.045 0 0.1 0.045 0 0 0.05 0 0.02 0.05 0 0.04 0.05 0 0.06 0.05 0 0.08 0.05 0 0.1 0.05 0 0 0.055 0 0.02 0.055 0 0.04 0.055 0 0.06 0.055 0 0.08 0.055 0 0.1 0.055 0 0 0.06 0 0.02 0.06 0 0.04 0.06 0 0.06 0.06 0 0.08 0.06 0 0.1 0.06 0 0 0.065 0 0.02 0.065 0 0.04 0.065 0 0.06 0.065 0 0.08 0.065 0 0.1 0.065 0 0 0.07 0 0.02 0.07 0 0.04 0.07 0 0.06 0.07 0 0.08 0.07 0 0.1 0.07 0 0 0.075 0 0.02 0.075 0 0.04 0.075 0 0.06 0.075 0 0.08 0.075 0 0.1 0.075 0 0 0.08 0 0.02 0.08 0 0.04 0.08 0 0.06 0.08 0 0.08 0.08 0 0.1 0.08 0 0 0.085 0 0.02 0.085 0 0.04 0.085 0 0.06 0.085 0 0.08 0.085 0 0.1 0.085 0 0 0.09 0 0.02 0.09 0 0.04 0.09 0 0.06 0.09 0 0.08 0.09 0 0.1 0.09 0 0 0.095 0 0.02 0.095 0 0.04 0.095 0 0.06 0.095 0 0.08 0.095 0 0.1 0.095 0 0 0.1 0 0.02 0.1 0 0.04 0.1 0 0.06 0.1 0 0.08 0.1 0 0.1 0.1 0 0 0.105 0 0.02 0.105 0 0.04 0.105 0 0.06 0.105 0 0.08 0.105 0 0.1 0.105 0 0 0.11 0 0.02 0.11 0 0.04 0.11 0 0.06 0.11 0 0.08 0.11 0 0.1 0.11 0 0 0.115 0 0.02 0.115 0 0.04 0.115 0 0.06 0.115 0 0.08 0.115 0 0.1 0.115 0 0 0.12 0 0.02 0.12 0 0.04 0.12 0 0.06 0.12 0 0.08 0.12 0 0.1 0.12 0 0 0.125 0 0.02 0.125 0 0.04 0.125 0 0.06 0.125 0 0.08 0.125 0 0.1 0.125 0 0 0.13 0 0.02 0.13 0 0.04 0.13 0 0.06 0.13 0 0.08 0.13 0 0.1 0.13 0 0 0.135 0 0.02 0.135 0 0.04 0.135 0 0.06 0.135 0 0.08 0.135 0 0.1 0.135 0 0 0.14 0 0.02 0.14 0 0.04 0.14 0 0.06 0.14 0 0.08 0.14 0 0.1 0.14 0 0 0.145 0 0.02 0.145 0 0.04 0.145 0 0.06 0.145 0 0.08 0.145 0 0.1 0.145 0 0 0.15 0 0.02 0.15 0 0.04 0.15 0 0.06 0.15 0 0.08 0.15 0 0.1 0.15 0 0 0.155 0 0.02 0.155 0 0.04 0.155 0 0.06 0.155 0 0.08 0.155 0 0.1 0.155 0 0 0.16 0 0.02 0.16 0 0.04 0.16 0 0.06 0.16 0 0.08 0.16 0 0.1 0.16 0 0 0.165 0 0.02 0.165 0 0.04 0.165 0 0.06 0.165 0 0.08 0.165 0 0.1 0.165 0 0 0.17 0 0.02 0.17 0 0.04 0.17 0 0.06 0.17 0 0.08 0.17 0 0.1 0.17 0 0 0.175 0 0.02 0.175 0 0.04 0.175 0 0.06 0.175 0 0.08 0.175 0 0.1 0.175 0 0 0.18 0 0.02 0.18 0 0.04 0.18 0 0.06 0.18 0 0.08 0.18 0 0.1 0.18 0 0 0.185 0 0.02 0.185 0 0.04 0.185 0 0.06 0.185 0 0.08 0.185 0 0.1 0.185 0 0 0.19 0 0.02 0.19 0 0.04 0.19 0 0.06 0.19 0 0.08 0.19 0 0.1 0.19 0 0 0.195 0 0.02 0.195 0 0.04 0.195 0 0.06 0.195 0 0.08 0.195 0 0.1 0.195 0 0 0.2 0 0.02 0.2 0 0.04 0.2 0 0.06 0.2 0 0.08 0.2 0 0.1 0.2 0 0 0.205 0 0.02 0.205 0 0.04 0.205 0 0.06 0.205 0 0.08 0.205 0 0.1 0.205 0 0 0.21 0 0.02 0.21 0 0.04 0.21 0 0.06 0.21 0 0.08 0.21 0 0.1 0.21 0 0 0.215 0 0.02 0.215 0 0.04 0.215 0 0.06 0.215 0 0.08 0.215 0 0.1 0.215 0 0 0.22 0 0.02 0.22 0 0.04 0.22 0 0.06 0.22 0 0.08 0.22 0 0.1 0.22 0 0 0.225 0 0.02 0.225 0 0.04 0.225 0 0.06 0.225 0 0.08 0.225 0 0.1 0.225 0 0 0.23 0 0.02 0.23 0 0.04 0.23 0 0.06 0.23 0 0.08 0.23 0 0.1 0.23 0 0 0.235 0 0.02 0.235 0 0.04 0.235 0 0.06 0.235 0 0.08 0.235 0 0.1 0.235 0 0 0.24 0 0.02 0.24 0 0.04 0.24 0 0.06 0.24 0 0.08 0.24 0 0.1 0.24 0 0 0.245 0 0.02 0.245 0 0.04 0.245 0 0.06 0.245 0 0.08 0.245 0 0.1 0.245 0 0 0.25 0 0.02 0.25 0 0.04 0.25 0 0.06 0.25 0 0.08 0.25 0 0.1 0.25 0 0 0.255 0 0.02 0.255 0 0.04 0.255 0 0.06 0.255 0 0.08 0.255 0 0.1 0.255 0 0 0.26 0 0.02 0.26 0 0.04 0.26 0 0.06 0.26 0 0.08 0.26 0 0.1 0.26 0 0 0.265 0 0.02 0.265 0 0.04 0.265 0 0.06 0.265 0 0.08 0.265 0 0.1 0.265 0 0 0.27 0 0.02 0.27 0 0.04 0.27 0 0.06 0.27 0 0.08 0.27 0 0.1 0.27 0 0 0.275 0 0.02 0.275 0 0.04 0.275 0 0.06 0.275 0 0.08 0.275 0 0.1 0.275 0 0 0.28 0 0.02 0.28 0 0.04 0.28 0 0.06 0.28 0 0.08 0.28 0 0.1 0.28 0 0 0.285 0 0.02 0.285 0 0.04 0.285 0 0.06 0.285 0 0.08 0.285 0 0.1 0.285 0 0 0.29 0 0.02 0.29 0 0.04 0.29 0 0.06 0.29 0 0.08 0.29 0 0.1 0.29 0 0 0.295 0 0.02 0.295 0 0.04 0.295 0 0.06 0.295 0 0.08 0.295 0 0.1 0.295 0 0 0.3 0 0.02 0.3 0 0.04 0.3 0 0.06 0.3 0 0.08 0.3 0 0.1 0.3 0 0 0.305 0 0.02 0.305 0 0.04 0.305 0 0.06 0.305 0 0.08 0.305 0 0.1 0.305 0 0 0.31 0 0.02 0.31 0 0.04 0.31 0 0.06 0.31 0 0.08 0.31 0 0.1 0.31 0 0 0.315 0 0.02 0.315 0 0.04 0.315 0 0.06 0.315 0 0.08 0.315 0 0.1 0.315 0 0 0.32 0 0.02 0.32 0 0.04 0.32 0 0.06 0.32 0 0.08 0.32 0 0.1 0.32 0 0 0.325 0 0.02 0.325 0 0.04 0.325 0 0.06 0.325 0 0.08 0.325 0 0.1 0.325 0 0 0.33 0 0.02 0.33 0 0.04 0.33 0 0.06 0.33 0 0.08 0.33 0 0.1 0.33 0 0 0.335 0 0.02 0.335 0 0.04 0.335 0 0.06 0.335 0 0.08 0.335 0 0.1 0.335 0 0 0.34 0 0.02 0.34 0 0.04 0.34 0 0.06 0.34 0 0.08 0.34 0 0.1 0.34 0 0 0.345 0 0.02 0.345 0 0.04 0.345 0 0.06 0.345 0 0.08 0.345 0 0.1 0.345 0 0 0.35 0 0.02 0.35 0 0.04 0.35 0 0.06 0.35 0 0.08 0.35 0 0.1 0.35 0 0 0.355 0 0.02 0.355 0 0.04 0.355 0 0.06 0.355 0 0.08 0.355 0 0.1 0.355 0 0 0.36 0 0.02 0.36 0 0.04 0.36 0 0.06 0.36 0 0.08 0.36 0 0.1 0.36 0 0 0.365 0 0.02 0.365 0 0.04 0.365 0 0.06 0.365 0 0.08 0.365 0 0.1 0.365 0 0 0.37 0 0.02 0.37 0 0.04 0.37 0 0.06 0.37 0 0.08 0.37 0 0.1 0.37 0 0 0.375 0 0.02 0.375 0 0.04 0.375 0 0.06 0.375 0 0.08 0.375 0 0.1 0.375 0 0 0.38 0 0.02 0.38 0 0.04 0.38 0 0.06 0.38 0 0.08 0.38 0 0.1 0.38 0 0 0.385 0 0.02 0.385 0 0.04 0.385 0 0.06 0.385 0 0.08 0.385 0 0.1 0.385 0 0 0.39 0 0.02 0.39 0 0.04 0.39 0 0.06 0.39 0 0.08 0.39 0 0.1 0.39 0 0 0.395 0 0.02 0.395 0 0.04 0.395 0 0.06 0.395 0 0.08 0.395 0 0.1 0.395 0 0 0.4 0 0.02 0.4 0 0.04 0.4 0 0.06 0.4 0 0.08 0.4 0 0.1 0.4 0 0 0.405001 0 0.02 0.405001 0 0.04 0.405001 0 0.06 0.405001 0 0.08 0.405001 0 0.1 0.405001 0 0 0.410004 0 0.02 0.410004 0 0.04 0.410004 0 0.06 0.410004 0 0.08 0.410004 0 0.1 0.410004 0 0 0.415017 0 0.02 0.415017 0 0.04 0.415017 0 0.06 0.415017 0 0.08 0.415017 0 0.1 0.415017 0 0 0.420059 0 0.02 0.420059 0 0.04 0.420059 0 0.06 0.420059 0 0.08 0.420059 0 0.1 0.420059 0 0 0.425174 0 0.02 0.425174 0 0.04 0.425174 0 0.06 0.425174 0 0.08 0.425174 0 0.1 0.425174 0 0 0.430427 0 0.02 0.430427 0 0.04 0.430427 0 0.06 0.430427 0 0.08 0.430427 0 0.1 0.430427 0 0 0.435897 0 0.02 0.435897 0 0.04 0.435897 0 0.06 0.435897 0 0.08 0.435897 0 0.1 0.435897 0 0 0.441662 0 0.02 0.441662 0 0.04 0.441662 0 0.06 0.441662 0 0.08 0.441662 0 0.1 0.441662 0 0 0.447791 0 0.02 0.447791 0 0.04 0.447791 0 0.06 0.447791 0 0.08 0.447791 0 0.1 0.447791 0 0 0.454359 0 0.02 0.454359 0 0.04 0.454359 0 0.06 0.454359 0 0.08 0.454359 0 0.1 0.454359 0 0 0.461453 0 0.02 0.461453 0 0.04 0.461453 0 0.06 0.461453 0 0.08 0.461453 0 0.1 0.461453 0 0 0.469177 0 0.02 0.469177 0 0.04 0.469177 0 0.06 0.469177 0 0.08 0.469177 0 0.1 0.469177 0 0 0.477669 0 0.02 0.477669 0 0.04 0.477669 0 0.06 0.477669 0 0.08 0.477669 0 0.1 0.477669 0 0 0.487102 0 0.02 0.487102 0 0.04 0.487102 0 0.06 0.487102 0 0.08 0.487102 0 0.1 0.487102 0 0 0.49768 0 0.02 0.49768 0 0.04 0.49768 0 0.06 0.49768 0 0.08 0.49768 0 0.1 0.49768 0 0 0.509533 0 0.02 0.509533 0 0.04 0.509533 0 0.06 0.509533 0 0.08 0.509533 0 0.1 0.509533 0 0 0.522183 0 0.02 0.522183 0 0.04 0.522183 0 0.06 0.522183 0 0.08 0.522183 0 0.1 0.522183 0 0 0.534566 0 0.02 0.534566 0 0.04 0.534566 0 0.06 0.534566 0 0.08 0.534566 0 0.1 0.534566 0 0 0.546643 0 0.02 0.546643 0 0.04 0.546643 0 0.06 0.546643 0 0.08 0.546643 0 0.1 0.546643 0 0 0.558559 0 0.02 0.558559 0 0.04 0.558559 0 0.06 0.558559 0 0.08 0.558559 0 0.1 0.558559 0 0 0.560849 0 0.02 0.560849 0 0.04 0.560849 0 0.06 0.560849 0 0.08 0.560849 0 0.1 0.560849 0 0 0.563138 0 0.02 0.563138 0 0.04 0.563138 0 0.06 0.563138 0 0.08 0.563138 0 0.1 0.563138 0 0 0.565427 0 0.02 0.565427 0 0.04 0.565427 0 0.06 0.565427 0 0.08 0.565427 0 0.1 0.565427 0 0 0.567717 0 0.02 0.567717 0 0.04 0.567717 0 0.06 0.567717 0 0.08 0.567717 0 0.1 0.567717 0 0 0.570008 0 0.02 0.570008 0 0.04 0.570008 0 0.06 0.570008 0 0.08 0.570008 0 0.1 0.570008 0 0 0.572299 0 0.02 0.572299 0 0.04 0.572299 0 0.06 0.572299 0 0.08 0.572299 0 0.1 0.572299 0 0 0.57459 0 0.02 0.57459 0 0.04 0.57459 0 0.06 0.57459 0 0.08 0.57459 0 0.1 0.57459 0 0 0.576882 0 0.02 0.576882 0 0.04 0.576882 0 0.06 0.576882 0 0.08 0.576882 0 0.1 0.576882 0 0 0.579176 0 0.02 0.579176 0 0.04 0.579176 0 0.06 0.579176 0 0.08 0.579176 0 0.1 0.579176 0 0 0.581467 0 0.02 0.581467 0 0.04 0.581467 0 0.06 0.581467 0 0.08 0.581467 0 0.1 0.581467 0 0 0.583758 0 0.02 0.583758 0 0.04 0.583758 0 0.06 0.583758 0 0.08 0.583758 0 0.1 0.583758 0 0 0.586051 0 0.02 0.586051 0 0.04 0.586051 0 0.06 0.586051 0 0.08 0.586051 0 0.1 0.586051 0 0 0.588342 0 0.02 0.588342 0 0.04 0.588342 0 0.06 0.588342 0 0.08 0.588342 0 0.1 0.588342 0 0 0.590631 0 0.02 0.590631 0 0.04 0.590631 0 0.06 0.590631 0 0.08 0.590631 0 0.1 0.590631 0 0 0.592937 0 0.02 0.592937 0 0.04 0.592937 0 0.06 0.592937 0 0.08 0.592937 0 0.1 0.592937 0 0 0.595295 0 0.02 0.595295 0 0.04 0.595295 0 0.06 0.595295 0 0.08 0.595295 0 0.1 0.595295 0 0 0.597751 0 0.02 0.597751 0 0.04 0.597751 0 0.06 0.597751 0 0.08 0.597751 0 0.1 0.597751 0 0 0.600302 0 0.02 0.600302 0 0.04 0.600302 0 0.06 0.600302 0 0.08 0.600302 0 0.1 0.600302 0 0 0.60302 0 0.02 0.60302 0 0.04 0.60302 0 0.06 0.60302 0 0.08 0.60302 0 0.1 0.60302 0 0 0.605938 0 0.02 0.605938 0 0.04 0.605938 0 0.06 0.605938 0 0.08 0.605938 0 0.1 0.605938 0 0 0.609144 0 0.02 0.609144 0 0.04 0.609144 0 0.06 0.609144 0 0.08 0.609144 0 0.1 0.609144 0 0 0.612677 0 0.02 0.612677 0 0.04 0.612677 0 0.06 0.612677 0 0.08 0.612677 0 0.1 0.612677 0 0 0.616575 0 0.02 0.616575 0 0.04 0.616575 0 0.06 0.616575 0 0.08 0.616575 0 0.1 0.616575 0 0 0.620828 0 0.02 0.620828 0 0.04 0.620828 0 0.06 0.620828 0 0.08 0.620828 0 0.1 0.620828 0 0 0.625384 0 0.02 0.625384 0 0.04 0.625384 0 0.06 0.625384 0 0.08 0.6
[...]
			<PointData Scalars="VitesseX">
				<DataArray Name="VitesseX" type="Float32" format="ascii">
 0 -2.31774e-16 -6.31883e-16 3.41515e-15 2.14087e-15 0 0 -4.23215e-16 -1.57595e-16 2.6851e-15 2.5746e-15 0 0 -8.63984e-16 4.88335e-16 1.81552e-15 2.96548e-15 0 0 -8.90514e-16 5.29824e-17 3.00239e-15 2.33978e-15 0 0 -8.86746e-16 7.96818e-16 2.23915e-15 4.35654e-15 0 0 -7.28018e-16 1.32852e-15 9.10957e-16 6.8915e-15 0 0 -1.06751e-15 4.90254e-16 2.27817e-15 6.64864e-15 0 0 -1.31839e-15 4.87316e-16 1.51527e-15 7.25142e-15 0 0 1.65463e-15 -3.42323e-15 3.11669e-15 7.37339e-15 0 0 1.04623e-15 -3.49648e-15 4.16444e-15 7.0252e-15 0 0 -6.2053e-16 -1.78105e-15 4.46063e-15 7.02094e-15 0 0 -2.1598e-16 4.01375e-16 9.2486e-16 1.03958e-14 0 0 -3.93174e-16 1.96041e-15 -2.47609e-15 1.1319e-14 0 0 3.94512e-15 -5.76136e-15 5.78876e-15 5.49048e-15 0 0 2.77604e-15 -4.73747e-16 2.97883e-15 3.82458e-15 0 0 -9.14391e-16 6.46871e-15 -1.30493e-15 1.59534e-15 0 0 2.2759e-15 -3.97883e-15 9.10176e-15 -1.57084e-15 0 0 -1.54066e-16 -4.27818e-15 5.64566e-15 5.43073e-15 0 0 -1.99452e-15 -1.9814e-15 2.33087e-15 6.22939e-15 0 0 -1.22012e-15 -2.53323e-15 3.85798e-15 4.8291e-15 0 0 -2.40841e-15 4.07604e-15 -2.75672e-15 9.94151e-15 0 0 1.00066e-15 4.32848e-15 -3.53367e-15 6.36059e-15 0 0 2.14531e-15 -3.945e-16 -7.81916e-16 5.35999e-15 0 0 2.74462e-15 -3.51957e-15 3.53055e-15 6.70389e-15 0 0 2.90618e-15 1.83002e-15 -1.56484e-15 7.24332e-15 0 0 3.28231e-15 -1.64674e-15 -1.49448e-17 5.36937e-15 0 0 4.88077e-15 -9.78348e-15 1.20279e-14 -2.49229e-15 0 0 -9.4985e-16 4.42992e-15 1.98466e-15 -2.12534e-15 0 0 6.15001e-16 2.31819e-15 3.47287e-15 -6.83888e-16 0 0 3.17349e-15 -4.61353e-15 6.63887e-15 7.3232e-15 0 0 -4.47661e-16 4.64727e-15 -2.59086e-15 1.20983e-14 0 0 1.92305e-15 2.57565e-15 1.58465e-15 9.40757e-15 0 0 1.51742e-15 4.02858e-15 -4.69216e-15 1.63602e-14 0 0 -8.54949e-16 8.05835e-16 -5.75718e-16 9.57602e-15 0 0 -2.84973e-15 2.1751e-15 4.95691e-15 2.68663e-15 0 0 -9.56278e-16 8.75708e-15 -3.43263e-15 8.11385e-15 0 0 2.52618e-15 4.98747e-15 2.89385e-15 -1.40635e-16 0 0 6.3177e-16 7.90531e-15 6.86289e-15 -9.32104e-15 0 0 8.21317e-15 7.64749e-15 -1.48881e-15 6.42981e-16 0 0 1.11793e-14 1.36616e-14 -1.24726e-14 1.30436e-14 0 0 8.00744e-15 9.74823e-15 -9.24919e-15 1.42588e-14 0 0 1.08791e-14 3.96598e-16 -7.82774e-15 2.0676e-14 0 0 9.8369e-15 1.01392e-14 -9.78614e-15 1.53661e-14 0 0 8.53198e-15 7.7381e-15 5.53876e-15 -1.16904e-15 0 0 4.43318e-15 6.73337e-15 1.14612e-14 -2.59379e-15 0 0 3.40314e-15 1.4414e-14 3.47614e-15 -8.02004e-16 0 0 3.64265e-15 1.78804e-14 -2.17194e-15 -2.94632e-15 0 0 7.5771e-15 1.47157e-14 -9.6617e-16 -6.86979e-15 0 0 8.06331e-15 1.9212e-14 -4.65409e-15 4.11803e-16 0 0 7.5581e-15 1.20478e-14 4.14308e-15 4.70785e-15 0 0 3.02819e-15 -2.00277e-15 2.23725e-14 6.68551e-15 0 0 1.55187e-15 -3.03147e-15 1.71378e-14 1.57014e-14 0 0 4.93762e-15 7.59695e-15 -2.1257e-14 3.25871e-14 0 0 3.04414e-15 9.26662e-15 -2.7876e-14 3.09259e-14 0 0 7.15204e-15 -1.61861e-14 3.82817e-15 1.43749e-14 0 0 7.67801e-15 -1.97895e-14 1.79437e-16 2.24833e-14 0 0 5.44349e-15 -2.32585e-15 -2.50236e-14 3.34205e-14 0 0 4.01387e-15 8.52391e-15 -2.20432e-14 1.31426e-14 0 0 -4.60057e-15 7.74642e-15 7.24499e-15 -1.24635e-14 0 0 -1.21539e-14 2.09688e-15 1.40671e-14 -5.92121e-15 0 0 -7.03517e-15 6.19309e-15 2.94722e-15 5.74871e-15 0 0 4.88179e-15 3.42006e-15 -7.81039e-16 6.82803e-15 0 0 -1.25773e-16 1.11776e-14 -1.06372e-14 1.92525e-14 0 0 3.32862e-15 1.98579e-14 -1.88663e-14 3.04109e-14 0 0 1.18693e-14 5.96163e-15 -1.55599e-15 2.20467e-14 0 0 7.84542e-15 1.03527e-14 3.48572e-15 1.14954e-14 0 0 8.5759e-15 2.3865e-14 -4.99524e-15 3.64944e-15 0 0 2.02549e-14 1.49419e-14 1.56312e-15 -3.93758e-15 0 0 3.11792e-14 1.18856e-14 -7.46801e-15 1.26022e-15 0 0 2.57885e-14 1.00103e-14 1.58719e-15 -1.11723e-14 0 0 1.79768e-14 -4.7256e-15 4.17323e-14 -1.96209e-14 0 0 6.87006e-16 1.56248e-15 6.38059e-14 -5.01898e-15 0 0 5.22763e-15 -6.70683e-15 4.39096e-14 1.3982e-14 0 0 7.45384e-15 -7.39575e-15 -7.45618e-15 2.0997e-14 0 0 -7.45804e-15 2.36594e-14 -1.76776e-14 -3.23611e-14 0 0 -9.02968e-15 1.78586e-14 8.37138e-15 -4.55114e-14 0 0 -1.42033e-14 -1.69687e-14 3.67385e-14 -1.38511e-14 0 0 -7.9759e-15 -2.39798e-14 1.96407e-14 1.55809e-15 0 0 3.61059e-15 -2.2221e-14 -2.14631e-15 7.94431e-15 0 0 2.98235e-15 -1.24021e-14 -5.461e-15 9.00828e-15 0 0 4.41339e-15 -2.23071e-15 -4.70441e-15 9.0989e-15 0 0 1.67763e-15 5.66927e-15 4.17487e-15 -1.39214e-14 0 0 -2.37984e-15 1.21032e-14 -1.15565e-14 -8.57447e-15 0 0 -8.99408e-15 1.44104e-14 -2.06435e-14 -8.90831e-15 0 0 -6.50259e-15 1.32475e-14 -1.15726e-14 -3.68804e-14 0 0 3.17359e-15 1.55514e-15 -1.01503e-14 -2.03448e-14 0 0 1.76046e-14 6.00273e-15 -7.41624e-15 -1.85864e-14 0 0 1.95276e-14 -1.82065e-14 1.88758e-15 -7.48035e-15 0 0 3.66253e-15 -2.2961e-14 6.61891e-15 8.98078e-15 0 0 -3.75653e-15 1.2074e-14 1.05685e-14 -1.13577e-14 0 0 -2.07264e-14 2.95152e-14 -9.09535e-15 7.01766e-16 0 0 -2.05771e-14 1.13004e-14 -1.21341e-14 1.818e-14 0 0 9.37175e-15 -1.55763e-14 1.79184e-14 -3.10781e-14 0 0 4.02377e-14 -2.26453e-14 6.19757e-15 -2.59726e-14 0 0 -2.7717e-15 -2.85603e-16 1.70864e-16 9.66788e-15 0 0 -5.01964e-15 2.2236e-14 -2.26672e-16 1.05107e-14 0 0 2.26231e-14 1.74967e-14 3.75995e-14 3.11911e-14 0 0 5.82931e-14 9.86475e-14 1.247e-13 5.90207e-14 0 0 6.14471e-14 1.13722e-13 9.90057e-14 4.19194e-14 0 0 -1.43065e-13 -2.27408e-13 -2.23186e-13 -1.54858e-13 0 0 -3.32669e-13 -5.47711e-13 -5.61874e-13 -3.2777e-13 0 0 -6.0045e-13 -1.01518e-12 -1.07028e-12 -5.88443e-13 0 0 -6.22169e-13 -1.04411e-12 -1.07871e-12 -6.10878e-13 0 0 -6.51935e-13 -1.09244e-12 -1.11357e-12 -6.44998e-13 0 0 -6.91226e-13 -1.11693e-12 -1.1841e-12 -7.05949e-13 0 0 -7.28519e-13 -1.12319e-12 -1.19598e-12 -7.22827e-13 0 0 -7.24052e-13 -1.05657e-12 -1.14508e-12 -7.32568e-13 0 0 -5.86572e-13 -8.09858e-13 -8.74887e-13 -5.72911e-13 0 0 -2.94735e-13 -4.44915e-13 -4.26503e-13 -3.12783e-13 0 0 -2.37277e-14 -5.56654e-14 4.79313e-15 -1.8325e-14 0 0 1.30516e-13 2.10709e-13 2.51906e-13 1.66932e-13 0 0 1.63592e-13 2.72075e-13 2.77967e-13 2.20413e-13 0 0 1.14992e-13 2.35318e-13 2.19134e-13 1.52929e-13 0 0 6.47048e-14 1.90274e-13 1.69757e-13 2.5951e-14 0 0 3.24069e-14 1.10189e-13 7.3211e-14 3.34224e-14 0 0 -1.83712e-14 1.00898e-13 -1.39034e-14 3.4243e-14 0 0 -5.43849e-14 9.62593e-14 -3.07957e-14 -1.02247e-14 0 0 1.43565e-15 4.15024e-14 2.61851e-14 -2.7034e-14 0 0 2.94684e-14 5.38148e-14 6.59623e-14 -8.75147e-14 0 0 3.07242e-14 6.70538e-14 8.97584e-14 -2.38063e-15 0 0 4.34748e-14 1.18466e-13 1.01757e-13 7.60655e-14 0 0 6.52028e-14 1.89872e-13 1.0189e-13 1.04666e-13 0 0 8.99166e-14 1.87045e-13 1.38538e-13 1.60941e-13 0 0 8.81062e-14 1.36737e-13 1.83732e-13 1.09203e-13 0 0 6.3216e-14 1.2727e-13 1.47272e-13 8.25216e-14 0 0 3.90108e-14 9.95516e-14 1.01576e-13 6.2312e-14 0 0 1.5626e-14 4.77199e-14 5.32333e-14 6.45446e-14 0 0 -4.95365e-15 3.01812e-14 1.21595e-14 3.16946e-14 0 0 -1.74294e-14 1.44219e-14 1.86262e-14 -1.3949e-14 0 0 -2.28606e-14 2.00498e-15 2.25019e-14 1.36495e-14 0 0 -1.98352e-14 -4.37427e-15 2.39246e-14 5.14831e-15 0 0 -2.09376e-14 3.40693e-15 1.36771e-15 5.20562e-15 0 0 -2.91941e-14 5.13367e-15 4.97541e-15 1.72986e-14 0 0 -2.2304e-14 5.77944e-15 3.21641e-15 2.28976e-14 0 0 -8.22394e-15 -8.80346e-16 1.07628e-14 2.65997e-14 0 0 -1.22139e-14 2.3818e-15 1.92885e-14 1.4169e-14 0 0 -1.65152e-14 1.87881e-14 1.58455e-14 2.52687e-14 0 0 -4.93093e-15 1.80546e-14 3.12827e-14 1.86249e-14 0 0 4.36961e-15 2.81205e-15 5.84408e-14 4.71448e-15 0 0 8.82321e-15 -7.12638e-15 6.56251e-14 3.91044e-15 0 0 8.57282e-15 -1.13853e-14 4.97128e-14 3.88441e-14 0 0 7.82641e-15 6.13158e-15 3.13347e-14 5.78126e-14 0 0 1.32132e-14 9.18093e-15 4.12677e-14 4.65249e-14 0 0 1.53505e-14 8.38098e-15 5.04199e-14 7.88556e-14 0 0 1.97534e-14 1.74581e-14 5.13608e-14 7.91614e-14 0 0 1.68906e-14 2.45217e-14 4.61736e-14 6.2018e-14 0 0 1.53141e-14 2.87865e-14 1.7727e-14 8.81418e-14 0 0 2.50372e-14 -2.77261e-15 4.29198e-14 5.90375e-14 0 0 3.12071e-14 -2.40177e-14 6.56679e-14 -1.29299e-14 0 0 3.21397e-14 2.83965e-15 4.04665e-14 -1.8396e-14 0 0 2.99176e-14 3.73524e-14 1.94424e-14 -7.46854e-15 0 0 4.71131e-14 2.70037e-14 9.12929e-15 7.95785e-15 0 0 6.67792e-14 2.30359e-14 -1.21851e-15 3.20927e-14 0 0 3.82908e-14 5.79147e-14 4.01917e-14 2.54689e-15 0 0 2.88741e-14 1.86654e-14 1.26817e-13 -2.25054e-14 0 0 4.10461e-14 -2.31479e-14 1.34589e-13 1.37543e-14 0 0 2.14926e-14 2.92833e-14 8.34686e-14 4.31398e-14 0 0 1.45913e-14 5.72268e-14 4.22453e-14 6.15075e-14 0 0 1.60613e-14 4.24301e-14 2.71943e-14 7.5031e-14 0 0 4.06631e-14 1.92566e-14 3.10843e-15 8.93177e-14 0 0 2.17101e-14 6.14742e-14 -5.64654e-14 9.93245e-14 0 0 8.76041e-15 6.18657e-14 -3.20899e-14 6.19641e-14 0 0 1.07584e-14 3.44933e-14 -1.29697e-14 2.5261e-14 0 0 -3.79642e-14 4.72953e-14 -2.60839e-14 3.17815e-14 0 0 -3.04574e-14 3.68182e-14 -5.30821e-14 5.6925e-14 0 0 1.65606e-15 5.54342e-14 -1.20193e-13 5.93379e-14 0 0 1.17261e-14 4.15058e-14 -1.14033e-13 9.37518e-14 0 0 -1.02388e-14 4.39111e-14 -4.51741e-14 7.39076e-14 0 0 -3.31818e-14 5.0972e-14 -1.05144e-14 2.13809e-14 0 0 1.91849e-14 -3.92464e-14 4.50091e-14 -1.68947e-15 0 0 5.53969e-14 -7.79672e-14 7.09151e-14 -2.41984e-14 0 0 1.49293e-14 -7.89768e-16 -1.23583e-14 -9.78395e-15 0 0 1.58298e-15 1.92982e-14 3.54528e-14 -6.76272e-14 0 0 -2.23581e-14 1.54375e-14 1.42387e-13 -1.6729e-13 0 0 -4.49847e-14 4.63543e-14 1.04178e-13 -8.22627e-14 0 0 -1.48407e-15 5.16222e-14 3.24627e-14 6.17742e-14 0 0 5.15189e-14 5.45494e-14 -2.84357e-14 6.21878e-14 0 0 4.2109e-14 7.9361e-14 -8.10348e-14 5.76952e-14 0 0 1.07719e-14 7.07257e-14 -6.46105e-14 5.95962e-14 0 0 2.86475e-14 2.37989e-14 1.03654e-14 1.36425e-14 0 0 2.04818e-14 2.95593e-14 3.46519e-14 -1.04699e-14 0 0 -8.9545e-16 6.21832e-14 3.11233e-14 -4.01397e-14 0 0 2.49633e-14 4.15656e-14 6.72677e-14 -7.7372e-14 0 0 3.6883e-14 6.16286e-15 5.23932e-14 -4.29632e-14 0 0 2.41352e-14 1.1601e-15 4.81806e-14 -3.33444e-14 0 0 2.38039e-14 2.44699e-14 3.19463e-14 -2.20276e-14 0 0 1.03137e-14 3.01533e-14 4.44657e-14 -2.84109e-14 0 0 2.65879e-14 -6.44951e-15 6.06077e-14 2.11905e-14 0 0 3.77767e-14 2.70881e-15 1.38814e-14 7.94816e-14 0 0 1.39047e-14 3.91873e-14 3.85381e-15 2.3218e-14 0 0 2.40392e-14 2.69311e-14 3.83238e-14 -2.3808e-14 0 0 7.55764e-15 3.17014e-14 2.57479e-14 -2.41103e-14 0 0 2.64662e-14 3.29733e-15 2.68075e-14 -4.98777e-14 0 0 2.83919e-14 5.24338e-15 3.5267e-14 -5.33482e-14 0 0 -1.72196e-14 3.15582e-14 3.74734e-14 -3.12742e-14 0 0 4.75737e-15 1.63965e-14 3.00695e-14 -5.03174e-14 0 0 2.29477e-14 2.44335e-14 1.15953e-14 -3.9582e-14 0 0 4.82267e-14 -1.28431e-14 5.1656e-14 -3.25291e-14 0 0 2.9058e-14 2.25453e-14 -8.05983e-15 3.7835e-14 0 0 -2.74645e-16 3.89156e-14 -2.26787e-14 4.0772e-14 0 0 1.89928e-14 -1.29135e-14 2.77733e-14 -2.61054e-14 0
				</DataArray>
				<DataArray Name="VitesseY" type="Float32" format="ascii">