<?xml version="1.0"?>
<VTKFile type="PolyData">
	<PolyData>
		<Piece NumberOfPoints="1206" NumberOfPolys="1000">
			<Points>
				<DataArray type="Float32" NumberOfComponents="3" format="ascii">
 0 0 0 0.02 0 0 0.04 0 0 0.06 0 0 0.08 0 0 0.1 0 0 0 0.005 0 0.02 0.005 0 0.04 0.005 0 0.06 0.005 0 0.08 0.005 0 0.1 0.005 0 0 0.01 0 0.02 0.01 0 0.04 0.01 0 0.06 0.01 0 0.08 0.01 0 0.1 0.01 0 0 0.015 0 0.02 0.015 0 0.04 0.015 0 0.06 0.015 0 0.08 0.015 0 0.1 0.015 0 0 0.02 0 0.02 0.02 0 0.04 0.02 0 0.06 0.02 0 0.08 0.02 0 0.1 0.02 0 0 0.025 0 0.02 0.025 0 0.04 0.025 0 0.06 0.025 0 0.08 0.025 0 0.1 0.025 0 0 0.03 0 0.02 0.03 0 0.04 0.03 0 0.06 0.03 0 0.08 0.03 0 0.1 0.03 0 0 0.035 0 0.02 0.035 0 0.04 0.035 0 0.06 0.035 0 0.08 0.035 0 0.1 0.035 0 0 0.04 0 0.02 0.04 0 0.04 0.04 0 0.06 0.04 0 0.08 0.04 0 0.1 0.04 0 0 0.045 0 0.02 0.045 0 0.04 0.045 0 0.06 0.045 0 0.08 0.045 0 0.1 0.045 0 0 0.05 0 0.02 0.05 0 0.04 0.05 0 0.06 0.05 0 0.08 0.05 0 0.1 0.05 0 0 0.055 0 0.02 0.055 0 0.04 0.055 0 0.06 0.055 0 0.08 0.055 0 0.1 0.055 0 0 0.06 0 0.02 0.06 0 0.04 0.06 0 0.06 0.06 0 0.08 0.06 0 0.1 0.06 0 0 0.065 0 0.02 0.065 0 0.04 0.065 0 0.06 0.065 0 0.08 0.065 0 0.1 0.065 0 0 0.07 0 0.02 0.07 0 0.04 0.07 0 0.06 0.07 0 0.08 0.07 0 0.1 0.07 0 0 0.075 0 0.02 0.075 0 0.04 0.075 0 0.06 0.075 0 0.08 0.075 0 0.1 0.075 0 0 0.08 0 0.02 0.08 0 0.04 0.08 0 0.06 0.08 0 0.08 0.08 0 0.1 0.08 0 0 0.085 0 0.02 0.085 0 0.04 0.085 0 0.06 0.085 0 0.08 0.085 0 0.1 0.085 0 0 0.09 0 0.02 0.09 0 0.04 0.09 0 0.06 0.09 0 0.08 0.09 0 0.1 0.09 0 0 0.095 0 0.02 0.095 0 0.04 0.095 0 0.06 0.095 0 0.08 0.095 0 0.1 0.095 0 0 0.1 0 0.02 0.1 0 0.04 0.1 0 0.06 0.1 0 0.08 0.1 0 0.1 0.1 0 0 0.105 0 0.02 0.105 0 0.04 0.105 0 0.06 0.105 0 0.08 0.105 0 0.1 0.105 0 0 0.11 0 0.02 0.11 0 0.04 0.11 0 0.06 0.11 0 0.08 0.11 0 0.1 0.11 0 0 0.115 0 0.02 0.115 0 0.04 0.115 0 0.06 0.115 0 0.08 0.115 0 0.1 0.115 0 0 0.12 0 0.02 0.12 0 0.04 0.12 0 0.06 0.12 0 0.08 0.12 0 0.1 0.12 0 0 0.125 0 0.02 0.125 0 0.04 0.125 0 0.06 0.125 0 0.08 0.125 0 0.1 0.125 0 0 0.13 0 0.02 0.13 0 0.04 0.13 0 0.06 0.13 0 0.08 0.13 0 0.1 0.13 0 0 0.135 0 0.02 0.135 0 0.04 0.135 0 0.06 0.135 0 0.08 0.135 0 0.1 0.135 0 0 0.14 0 0.02 0.14 0 0.04 0.14 0 0.06 0.14 0 0.08 0.14 0 0.1 0.14 0 0 0.145 0 0.02 0.145 0 0.04 0.145 0 0.06 0.145 0 0.08 0.145 0 0.1 0.145 0 0 0.15 0 0.02 0.15 0 0.04 0.15 0 0.06 0.15 0 0.08 0.15 0 0.1 0.15 0 0 0.155 0 0.02 0.155 0 0.04 0.155 0 0.06 0.155 0 0.08 0.155 0 0.1 0.155 0 0 0.16 0 0.02 0.16 0 0.04 0.16 0 0.06 0.16 0 0.08 0.16 0 0.1 0.16 0 0 0.165 0 0.02 0.165 0 0.04 0.165 0 0.06 0.165 0 0.08 0.165 0 0.1 0.165 0 0 0.17 0 0.02 0.17 0 0.04 0.17 0 0.06 0.17 0 0.08 0.17 0 0.1 0.17 0 0 0.175 0 0.02 0.175 0 0.04 0.175 0 0.06 0.175 0 0.08 0.175 0 0.1 0.175 0 0 0.18 0 0.02 0.18 0 0.04 0.18 0 0.06 0.18 0 0.08 0.18 0 0.1 0.18 0 0 0.185 0 0.02 0.185 0 0.04 0.185 0 0.06 0.185 0 0.08 0.185 0 0.1 0.185 0 0 0.19 0 0.02 0.19 0 0.04 0.19 0 0.06 0.19 0 0.08 0.19 0 0.1 0.19 0 0 0.195 0 0.02 0.195 0 0.04 0.195 0 0.06 0.195 0 0.08 0.195 0 0.1 0.195 0 0 0.2 0 0.02 0.2 0 0.04 0.2 0 0.06 0.2 0 0.08 0.2 0 0.1 0.2 0 0 0.205 0 0.02 0.205 0 0.04 0.205 0 0.06 0.205 0 0.08 0.205 0 0.1 0.205 0 0 0.21 0 0.02 0.21 0 0.04 0.21 0 0.06 0.21 0 0.08 0.21 0 0.1 0.21 0 0 0.215 0 0.02 0.215 0 0.04 0.215 0 0.06 0.215 0 0.08 0.215 0 0.1 0.215 0 0 0.22 0 0.02 0.22 0 0.04 0.22 0 0.06 0.22 0 0.08 0.22 0 0.1 0.22 0 0 0.225 0 0.02 0.225 0 0.04 0.225 0 0.06 0.225 0 0.08 0.225 0 0.1 0.225 0 0 0.23 0 0.02 0.23 0 0.04 0.23 0 0.06 0.23 0 0.08 0.23 0 0.1 0.23 0 0 0.235 0 0.02 0.235 0 0.04 0.235 0 0.06 0.235 0 0.08 0.235 0 0.1 0.235 0 0 0.24 0 0.02 0.24 0 0.04 0.24 0 0.06 0.24 0 0.08 0.24 0 0.1 0.24 0 0 0.245 0 0.02 0.245 0 0.04 0.245 0 0.06 0.245 0 0.08 0.245 0 0.1 0.245 0 0 0.25 0 0.02 0.25 0 0.04 0.25 0 0.06 0.25 0 0.08 0.25 0 0.1 0.25 0 0 0.255 0 0.02 0.255 0 0.04 0.255 0 0.06 0.255 0 0.08 0.255 0 0.1 0.255 0 0 0.26 0 0.02 0.26 0 0.04 0.26 0 0.06 0.26 0 0.08 0.26 0 0.1 0.26 0 0 0.265001 0 0.02 0.265001 0 0.04 0.265001 0 0.06 0.265001 0 0.08 0.265001 0 0.1 0.265001 0 0 0.270004 0 0.02 0.270004 0 0.04 0.270004 0 0.06 0.270004 0 0.08 0.270004 0 0.1 0.270004 0 0 0.275011 0 0.02 0.275011 0 0.04 0.275011 0 0.06 0.275011 0 0.08 0.275011 0 0.1 0.275011 0 0 0.280027 0 0.02 0.280027 0 0.04 0.280027 0 0.06 0.280027 0 0.08 0.280027 0 0.1 0.280027 0 0 0.285061 0 0.02 0.285061 0 0.04 0.285061 0 0.06 0.285061 0 0.08 0.285061 0 0.1 0.285061 0 0 0.290127 0 0.02 0.290127 0 0.04 0.290127 0 0.06 0.290127 0 0.08 0.290127 0 0.1 0.290127 0 0 0.295241 0 0.02 0.295241 0 0.04 0.295241 0 0.06 0.295241 0 0.08 0.295241 0 0.1 0.295241 0 0 0.300421 0 0.02 0.300421 0 0.04 0.300421 0 0.06 0.300421 0 0.08 0.300421 0 0.1 0.300421 0 0 0.305682 0 0.02 0.305682 0 0.04 0.305682 0 0.06 0.305682 0 0.08 0.305682 0 0.1 0.305682 0 0 0.311037 0 0.02 0.311037 0 0.04 0.311037 0 0.06 0.311037 0 0.08 0.311037 0 0.1 0.311037 0 0 0.316498 0 0.02 0.316498 0 0.04 0.316498 0 0.06 0.316498 0 0.08 0.316498 0 0.1 0.316498 0 0 0.322074 0 0.02 0.322074 0 0.04 0.322074 0 0.06 0.322074 0 0.08 0.322074 0 0.1 0.322074 0 0 0.327771 0 0.02 0.327771 0 0.04 0.327771 0 0.06 0.327771 0 0.08 0.327771 0 0.1 0.327771 0 0 0.3336 0 0.02 0.3336 0 0.04 0.3336 0 0.06 0.3336 0 0.08 0.3336 0 0.1 0.3336 0 0 0.339566 0 0.02 0.339566 0 0.04 0.339566 0 0.06 0.339566 0 0.08 0.339566 0 0.1 0.339566 0 0 0.345679 0 0.02 0.345679 0 0.04 0.345679 0 0.06 0.345679 0 0.08 0.345679 0 0.1 0.345679 0 0 0.351949 0 0.02 0.351949 0 0.04 0.351949 0 0.06 0.351949 0 0.08 0.351949 0 0.1 0.351949 0 0 0.358383 0 0.02 0.358383 0 0.04 0.358383 0 0.06 0.358383 0 0.08 0.358383 0 0.1 0.358383 0 0 0.364993 0 0.02 0.364993 0 0.04 0.364993 0 0.06 0.364993 0 0.08 0.364993 0 0.1 0.364993 0 0 0.371791 0 0.02 0.371791 0 0.04 0.371791 0 0.06 0.371791 0 0.08 0.371791 0 0.1 0.371791 0 0 0.378787 0 0.02 0.378787 0 0.04 0.378787 0 0.06 0.378787 0 0.08 0.378787 0 0.1 0.378787 0 0 0.385996 0 0.02 0.385996 0 0.04 0.385996 0 0.06 0.385996 0 0.08 0.385996 0 0.1 0.385996 0 0 0.393434 0 0.02 0.393434 0 0.04 0.393434 0 0.06 0.393434 0 0.08 0.393434 0 0.1 0.393434 0 0 0.401115 0 0.02 0.401115 0 0.04 0.401115 0 0.06 0.401115 0 0.08 0.401115 0 0.1 0.401115 0 0 0.409058 0 0.02 0.409058 0 0.04 0.409058 0 0.06 0.409058 0 0.08 0.409058 0 0.1 0.409058 0 0 0.417284 0 0.02 0.417284 0 0.04 0.417284 0 0.06 0.417284 0 0.08 0.417284 0 0.1 0.417284 0 0 0.425815 0 0.02 0.425815 0 0.04 0.425815 0 0.06 0.425815 0 0.08 0.425815 0 0.1 0.425815 0 0 0.434676 0 0.02 0.434676 0 0.04 0.434676 0 0.06 0.434676 0 0.08 0.434676 0 0.1 0.434676 0 0 0.443895 0 0.02 0.443895 0 0.04 0.443895 0 0.06 0.443895 0 0.08 0.443895 0 0.1 0.443895 0 0 0.453502 0 0.02 0.453502 0 0.04 0.453502 0 0.06 0.453502 0 0.08 0.453502 0 0.1 0.453502 0 0 0.46353 0 0.02 0.46353 0 0.04 0.46353 0 0.06 0.46353 0 0.08 0.46353 0 0.1 0.46353 0 0 0.474013 0 0.02 0.474013 0 0.04 0.474013 0 0.06 0.474013 0 0.08 0.474013 0 0.1 0.474013 0 0 0.48498 0 0.02 0.48498 0 0.04 0.48498 0 0.06 0.48498 0 0.08 0.48498 0 0.1 0.48498 0 0 0.496444 0 0.02 0.496444 0 0.04 0.496444 0 0.06 0.496444 0 0.08 0.496444 0 0.1 0.496444 0 0 0.508354 0 0.02 0.508354 0 0.04 0.508354 0 0.06 0.508354 0 0.08 0.508354 0 0.1 0.508354 0 0 0.5205 0 0.02 0.5205 0 0.04 0.5205 0 0.06 0.5205 0 0.08 0.5205 0 0.1 0.5205 0 0 0.532587 0 0.02 0.532587 0 0.04 0.532587 0 0.06 0.532587 0 0.08 0.532587 0 0.1 0.532587 0 0 0.54458 0 0.02 0.54458 0 0.04 0.54458 0 0.06 0.54458 0 0.08 0.54458 0 0.1 0.54458 0 0 0.556478 0 0.02 0.556478 0 0.04 0.556478 0 0.06 0.556478 0 0.08 0.556478 0 0.1 0.556478 0 0 0.568305 0 0.02 0.568305 0 0.04 0.568305 0 0.06 0.568305 0 0.08 0.568305 0 0.1 0.568305 0 0 0.580086 0 0.02 0.580086 0 0.04 0.580086 0 0.06 0.580086 0 0.08 0.580086 0 0.1 0.580086 0 0 0.591843 0 0.02 0.591843 0 0.04 0.591843 0 0.06 0.591843 0 0.08 0.591843 0 0.1 0.591843 0 0 0.603589 0 0.02 0.603589 0 0.04 0.603589 0 0.06 0.603589 0 0.08 0.603589 0 0.1 0.603589 0 0 0.61533 0 0.02 0.61533 0 0.04 0.61533 0 0.06 0.61533 0 0.08 0.61533 0 0.1 0.61533 0 0 0.627068 0 0.02 0.627068 0 0.04 0.627068 0 0.06 0.627068 0 0.08 0.627068 0 0.1 0.627068 0 0 0.638805 0 0.02 0.638805 0 0.04 0.638805 0 0.06 0.638805 0 0.08 0.638805 0 0.1 0.638805 0 0 0.650544 0 0.02 0.650544 0 0.04 0.650544 0 0.06 0.650544 0 0.08 0.650544 0 0.1 0.650544 0 0 0.662297 0 0.02 0.662297 0 0.04 0.662297 0 0.06 0.662297 0 0.08 0.662297 0 0.1 0.662297 0 0 0.664909 0 0.02 0.664909 0 0.04 0.664909 0 0.06 0.664909 0 0.08 0.664909 0 0.1 0.664909 0 0 0.667447 0 0.02 0.667447 0 0.04 0.667447 0 0.06 0.667447 0 0.08 0.667447 0 0.1 0.667447 0 0 0.669938 0 0.02 0.669938 0 0.04 0.669938 0 0.06 0.669938 0 0.08 0.669938 0 0.1 0.669938 0 0 0.672398 0 0.02 0.672398 0 0.04 0.672398 0 0.06 0.672398 0 0.08 0.672398 0 0.1 0.672398 0 0 0.674836 0 0.02 0.674836 0 0.04 0.674836 0 0.06 0.674836 0 0.08 0.674836 0 0.1 0.674836 0 0 0.677258 0 0.02 0.677258 0 0.04 0.677258 0 0.06 0.677258 0 0.08 0.677258 0 0.1 0.677258 0 0 0.679667 0 0.02 0.679667 0 0.04 0.679667 0 0.06 0.679667 0 0.08 0.679667 0 0.1 0.679667 0 0 0.682068 0 0.02 0.682068 0 0.04 0.682068 0 0.06 0.682068 0 0.08 0.682068 0 0.1 0.682068 0 0 0.684462 0 0.02 0.684462 0 0.04 0.684462 0 0.06 0.684462 0 0.08 0.684462 0 0.1 0.684462 0 0 0.686852 0 0.02 0.686852 0 0.04 0.686852 0 0.06 0.686852 0 0.08 0.686852 0 0.1 0.686852 0 0 0.689237 0 0.02 0.689237 0 0.04 0.689237 0 0.06 0.689237 0 0.08 0.689237 0 0.1 0.689237 0 0 0.691619 0 0.02 0.691619 0 0.04 0.691619 0 0.06 0.691619 0 0.08 0.691619 0 0.1 0.691619 0 0 0.693997 0 0.02 0.693997 0 0.04 0.693997 0 0.06 0.693997 0 0.08 0.693997 0 0.1 0.693997 0 0 0.696371 0 0.02 0.696371 0 0.04 0.696371 0 0.06 0.696371 0 0.08 0.696371 0 0.1 0.696371 0 0 0.698743 0 0.02 0.698743 0 0.04 0.698743 0 0.06 0.698743 0 0.08 0.698743 0 0.1 0.698743 0 0 0.701111 0 0.02 0.701111 0 0.04 0.701111 0 0.06 0.701111 0 0.08 0.701111 0 0.1 0.701111 0 0 0.703477 0 0.02 0.703477 0 0.04 0.703477 0 0.06 0.703477 0 0.08 0.703477 0 0.1 0.703477 0 0 0.705842 0 0.02 0.705842 0 0.04 0.705842 0 0.06 0.705842 0 0.08 0.705842 0 0.1 0.705842 0 0 0.708204 0 0.02 0.708204 0 0.04 0.708204 0 0.06 0
[...]
			<PointData Scalars="VitesseX">
				<DataArray Name="VitesseX" type="Float32" format="ascii">
 0 -1.35139e-15 4.36158e-15 5.46604e-15 1.95889e-15 0 0 -1.64232e-15 5.01518e-15 5.13172e-15 3.09599e-15 0 0 -1.83121e-15 6.12306e-15 5.14293e-15 5.51258e-15 0 0 -9.34444e-16 6.47497e-15 6.21082e-15 8.12245e-15 0 0 1.42977e-15 5.95552e-15 6.96423e-15 1.09124e-14 0 0 4.50356e-15 5.64358e-15 8.18422e-15 1.20247e-14 0 0 6.69007e-15 7.13102e-15 9.25053e-15 1.19666e-14 0 0 8.98839e-15 9.004e-15 9.32951e-15 1.19741e-14 0 0 1.07666e-14 1.10849e-14 8.33581e-15 1.08144e-14 0 0 1.06375e-14 1.23742e-14 6.72543e-15 1.07559e-14 0 0 9.50138e-15 1.25456e-14 7.66152e-15 8.79356e-15 0 0 8.33412e-15 1.25217e-14 6.27695e-15 9.82044e-15 0 0 8.42585e-15 9.73449e-15 6.63535e-15 9.04781e-15 0 0 8.97407e-15 6.57135e-15 8.77565e-15 3.68127e-15 0 0 7.3515e-15 9.02068e-15 2.85167e-15 6.09987e-16 0 0 5.49618e-15 9.89606e-15 6.32123e-16 -4.75636e-15 0 0 7.28026e-15 5.06757e-15 4.56105e-15 -8.40521e-15 0 0 8.15143e-15 1.62765e-15 2.73704e-15 -7.61067e-15 0 0 7.14456e-15 -1.51628e-16 -4.57513e-15 -1.45486e-15 0 0 5.03287e-15 -9.71405e-16 -6.77652e-15 -3.48052e-15 0 0 3.02711e-15 9.28079e-16 -3.73618e-15 -1.02671e-14 0 0 9.5545e-16 7.43111e-15 -7.48766e-15 -8.0329e-15 0 0 -1.41321e-15 9.37846e-15 -5.3837e-15 -1.12552e-14 0 0 -3.05536e-15 8.53276e-15 6.80948e-15 -2.17344e-14 0 0 -2.11437e-15 7.68956e-15 1.33494e-14 -2.84455e-14 0 0 -1.91449e-15 7.79725e-15 1.00466e-14 -1.6102e-14 0 0 -8.92526e-16 8.36349e-15 7.4714e-15 -6.56555e-16 0 0 -7.86926e-17 7.56267e-15 5.39815e-15 8.53935e-15 0 0 -1.63315e-15 1.01079e-14 -7.84345e-16 1.69829e-14 0 0 -3.20176e-17 7.85753e-15 -6.25751e-16 1.95626e-14 0 0 2.46166e-15 1.66516e-15 5.90459e-15 1.27174e-14 0 0 3.60194e-15 5.82205e-17 6.90676e-15 1.25e-14 0 0 5.36831e-15 -1.77121e-15 9.02404e-15 1.74263e-14 0 0 8.15389e-15 -6.39374e-15 1.65659e-14 1.46046e-14 0 0 1.00117e-14 -1.00833e-14 2.12603e-14 2.16377e-14 0 0 8.59332e-15 -9.66661e-15 2.08081e-14 2.87564e-14 0 0 5.84125e-15 -7.19395e-16 1.04922e-14 3.17542e-14 0 0 4.52461e-17 1.19389e-14 5.68661e-15 2.96046e-14 0 0 7.24474e-15 1.17506e-14 1.57491e-14 2.12956e-14 0 0 1.95233e-14 9.70621e-15 3.12556e-14 1.86919e-14 0 0 2.4046e-14 2.06037e-14 4.6943e-14 2.19054e-14 0 0 2.67497e-14 2.84523e-14 6.18861e-14 2.11941e-14 0 0 2.4815e-14 3.7361e-14 6.8437e-14 1.89699e-14 0 0 3.74923e-14 4.36299e-14 7.24719e-14 2.45147e-14 0 0 4.43765e-14 5.17033e-14 7.22018e-14 3.10649e-14 0 0 4.86303e-14 6.22279e-14 6.97173e-14 2.6636e-14 0 0 5.36285e-14 6.94164e-14 7.90205e-14 2.61009e-14 0 0 4.5191e-14 8.34266e-14 7.91506e-14 2.54621e-14 0 0 3.54947e-14 7.71194e-14 7.76767e-14 2.34681e-14 0 0 2.38561e-14 4.62621e-14 8.68154e-14 3.53822e-14 0 0 1.38304e-14 2.93211e-14 8.62988e-14 2.90281e-14 0 0 1.45867e-14 1.20282e-14 7.2149e-14 1.27993e-14 0 0 3.57944e-15 -1.41638e-15 4.92221e-14 2.46352e-14 0 0 7.23596e-15 -1.44471e-14 4.10909e-14 2.9687e-14 0 0 1.65549e-14 -7.69632e-15 3.06159e-14 1.05736e-14 0 0 6.16731e-16 -9.30558e-15 2.57095e-14 -7.26403e-15 0 0 -1.58128e-14 -6.53279e-15 1.23743e-14 -1.68068e-14 0 0 -1.90012e-14 1.29377e-14 -9.76223e-15 -2.10063e-14 0 0 -1.05359e-14 -6.07104e-16 -1.59762e-15 -3.56305e-14 0 0 -9.67983e-15 -2.44615e-15 -8.85537e-15 -4.09916e-14 0 0 -1.17977e-15 3.46519e-15 -2.41448e-14 -3.21928e-14 0 0 2.53919e-14 -2.99823e-15 -4.46142e-14 -1.76837e-14 0 0 3.76208e-14 -8.82407e-15 -6.3351e-14 -2.55879e-14 0 0 3.21682e-14 -1.81861e-14 -4.21229e-14 -4.20418e-14 0 0 8.49414e-15 -2.1312e-14 -2.16792e-14 -1.75978e-14 0 0 -1.54439e-14 -2.81915e-15 -2.16268e-14 -1.65083e-14 0 0 -5.3517e-15 1.21192e-14 -4.23342e-14 -2.93678e-14 0 0 -4.74475e-15 -1.59336e-15 -5.1309e-14 -2.09663e-14 0 0 -7.64516e-15 -2.07491e-14 -2.10629e-14 -2.0699e-14 0 0 -9.85408e-15 1.73206e-15 -3.8e-14 -1.82867e-15 0 0 -2.1596e-14 -8.33403e-15 -2.62749e-14 -9.98915e-15 0 0 -9.45562e-15 -2.57648e-14 -2.34141e-14 -1.4353e-14 0 0 -7.43334e-15 -1.94943e-14 -3.75524e-14 -2.5873e-14 0 0 -2.02947e-14 -1.58615e-14 -1.70521e-14 -4.51855e-14 0 0 -1.6991e-14 -1.83474e-14 -2.02948e-14 -6.49153e-15 0 0 -2.43671e-14 -3.1944e-14 -2.26081e-14 1.56339e-14 0 0 -2.28098e-14 -7.72788e-15 -4.19557e-14 -5.44996e-15 0 0 -5.1685e-15 -8.20819e-15 -3.86757e-14 -1.54715e-14 0 0 -1.90447e-15 -2.99546e-14 -1.68294e-14 -8.87575e-15 0 0 -6.24072e-15 -3.06914e-14 -5.15333e-15 -2.19196e-14 0 0 -9.5913e-15 -1.90896e-14 -1.45421e-14 1.58924e-15 0 0 1.24844e-14 2.58242e-16 -4.48526e-14 1.77261e-14 0 0 1.05707e-14 8.21928e-15 -6.21618e-14 -1.44709e-14 0 0 6.42905e-15 -2.74916e-14 -2.81412e-14 -3.40697e-14 0 0 -1.68399e-14 -3.66725e-14 1.50422e-16 -3.33033e-14 0 0 -4.02446e-14 8.04634e-15 -7.18912e-15 -1.68599e-14 0 0 -2.54422e-14 1.03551e-14 -1.64205e-14 4.47207e-15 0 0 -2.52349e-14 3.28525e-16 -8.64089e-15 3.75222e-15 0 0 -9.16144e-16 -4.40232e-15 -4.598e-15 -2.80117e-15 0 0 1.85442e-14 4.32071e-15 -2.2303e-14 1.16842e-14 0 0 2.59873e-16 1.90408e-14 -2.01515e-15 1.09194e-14 0 0 -4.14131e-16 1.18434e-15 3.28523e-14 -1.06451e-14 0 0 1.97443e-15 6.74433e-15 9.53189e-15 2.18546e-15 0 0 -6.19977e-15 1.7892e-14 -4.23562e-15 8.76528e-15 0 0 4.9383e-15 2.46119e-16 4.50801e-15 8.8845e-15 0 0 -2.17267e-15 2.0555e-15 -1.04092e-14 1.84675e-14 0 0 -1.55329e-16 -1.67233e-15 1.13335e-14 -4.04779e-15 0 0 -5.4627e-15 1.43625e-14 7.25944e-15 -4.26931e-15 0 0 -2.31828e-15 1.19727e-14 5.22231e-15 -1.90907e-15 0 0 9.84629e-15 -5.51328e-15 1.29362e-14 -6.9312e-15 0 0 9.11632e-15 5.00358e-15 1.67783e-14 -1.1424e-14 0 0 3.26776e-14 -4.33444e-14 4.85189e-14 -4.89546e-14 0 0 9.56743e-15 -7.14656e-15 7.26034e-15 -1.79833e-14 0 0 2.15671e-14 -1.88965e-14 -8.0802e-15 2.38669e-15 0 0 2.66856e-14 -3.33423e-14 -2.58032e-14 1.0069e-14 0 0 8.29453e-15 -2.07734e-14 -4.39972e-14 2.71159e-14 0 0 3.8977e-15 -1.58706e-14 -3.95207e-14 5.18889e-15 0 0 8.19039e-15 -3.3953e-14 -1.75936e-14 -4.62224e-14 0 0 1.70909e-14 -3.09111e-14 -4.32551e-14 -4.0251e-16 0 0 1.16199e-15 -1.85577e-14 -9.44071e-14 1.71297e-14 0 0 -1.65068e-14 -5.03666e-14 -1.26233e-13 -1.86755e-14 0 0 -2.58024e-15 -8.54397e-14 -1.18029e-13 -4.49191e-14 0 0 -2.54104e-14 -1.034e-13 -1.02986e-13 -4.13982e-14 0 0 -5.52333e-14 -7.16655e-14 -1.23474e-13 -6.01394e-14 0 0 -5.46621e-14 -4.67971e-14 -1.27477e-13 -7.95017e-14 0 0 -4.11724e-14 -9.84244e-14 -6.86177e-14 -3.7331e-14 0 0 -3.84707e-14 -8.61794e-14 -5.61621e-14 -9.03248e-14 0 0 -5.67627e-14 -3.40095e-14 -1.18545e-13 -7.19062e-14 0 0 -4.86597e-14 -4.65008e-14 -8.38417e-14 -2.54893e-14 0 0 -3.68969e-14 -6.02008e-14 -2.25519e-14 -9.12652e-15 0 0 -6.01472e-14 -2.90974e-14 -2.02944e-14 -3.82239e-14 0 0 -2.86459e-14 -2.60018e-14 -1.14432e-14 -2.55934e-14 0 0 -1.49845e-14 -2.28152e-14 -2.32808e-14 6.17066e-14 0 0 -2.70731e-14 -3.36902e-14 -2.35382e-14 5.10181e-14 0 0 -3.86324e-15 -4.72857e-14 3.69906e-14 4.7794e-14 0 0 -6.13907e-15 -4.83162e-14 6.27947e-14 5.58575e-14 0 0 -2.47916e-14 -3.56245e-14 4.92166e-14 9.96645e-14 0 0 -2.84501e-14 -6.63353e-15 3.82286e-14 7.7637e-14 0 0 -3.9486e-14 -4.53499e-16 3.47224e-14 4.91917e-14 0 0 -4.63186e-14 4.34301e-14 -1.49208e-14 8.63022e-14 0 0 -4.90802e-14 4.55167e-14 3.10512e-15 1.09335e-13 0 0 -4.8272e-14 4.09441e-14 3.91562e-14 5.63922e-14 0 0 -3.77968e-14 3.42174e-14 8.45982e-14 3.05886e-14 0 0 -3.31679e-14 1.93992e-14 1.07469e-13 -2.67368e-15 0 0 -2.33253e-14 2.98463e-14 1.00681e-13 -2.28342e-14 0 0 -1.54885e-14 4.38565e-14 8.48362e-14 -1.32206e-14 0 0 -3.41158e-14 7.35498e-14 5.53191e-14 4.84402e-14 0 0 -5.68465e-14 6.17152e-14 7.41391e-14 -4.81293e-15 0 0 -2.04356e-14 1.0044e-14 1.52539e-13 -7.51297e-14 0 0 1.76865e-14 -4.60106e-14 2.01739e-13 -7.06298e-14 0 0 2.61568e-14 -5.18623e-14 1.435e-13 -1.23802e-13 0 0 -3.14611e-14 5.36272e-14 -2.94081e-15 -8.40129e-14 0 0 -9.11598e-14 1.40717e-13 -1.45755e-13 -7.85041e-14 0 0 -9.95373e-14 1.58989e-13 -1.57965e-13 -8.12566e-14 0 0 -6.34049e-14 1.33785e-13 -1.65584e-13 -1.05313e-13 0 0 -3.07424e-14 8.21929e-14 -1.4596e-13 -9.58401e-14 0 0 -2.99495e-14 3.00919e-14 -4.38276e-14 -8.41807e-14 0 0 -3.15499e-14 -3.85062e-15 4.98278e-14 -1.05584e-13 0 0 -4.14801e-14 6.43447e-15 7.08872e-14 -1.53541e-13 0 0 -2.25666e-14 -7.42311e-16 7.83786e-14 -2.57513e-13 0 0 -2.45272e-14 1.4618e-14 4.94563e-14 -2.71208e-13 0 0 -1.78774e-14 1.59865e-14 -3.11739e-14 -1.28994e-13 0 0 -1.17356e-14 -1.29845e-14 -4.96998e-14 1.41827e-14 0 0 -6.15927e-14 3.99453e-15 2.40214e-14 -4.25892e-14 0 0 -6.20673e-14 2.55076e-14 -1.82678e-15 7.12904e-14 0 0 -4.21012e-14 -1.10989e-14 -2.16697e-14 3.30124e-13 0 0 -1.2564e-14 -6.48046e-14 3.34202e-14 3.75514e-13 0 0 4.1882e-14 -9.24655e-14 3.94518e-14 3.50874e-13 0 0 3.71963e-14 -5.372e-14 2.80526e-14 2.56919e-13 0 0 3.36535e-14 4.85909e-15 1.19534e-13 3.11366e-14 0 0 2.52833e-14 -2.1592e-14 8.16237e-14 2.99088e-14 0 0 3.70687e-14 -2.16437e-14 -1.33665e-14 1.4527e-13 0 0 2.02209e-14 5.09811e-14 3.92997e-14 3.77246e-14 0 0 1.6551e-14 8.18851e-14 9.70242e-14 1.32432e-14 0 0 6.71882e-14 9.7427e-14 4.87556e-14 1.07761e-13 0 0 7.98149e-14 1.21682e-13 7.09353e-14 8.57349e-14 0 0 6.72531e-14 1.60411e-13 1.12815e-13 7.25031e-14 0 0 8.13547e-14 1.88409e-13 7.83299e-14 1.31029e-13 0 0 1.0608e-13 1.73521e-13 1.17907e-13 1.28032e-13 0 0 1.05239e-13 1.54692e-13 1.77939e-13 6.19685e-14 0 0 9.8565e-14 1.5821e-13 1.75762e-13 8.89018e-14 0 0 1.03148e-13 1.73583e-13 1.66761e-13 8.69799e-14 0 0 1.03952e-13 1.90247e-13 1.63832e-13 8.24937e-14 0 0 1.00509e-13 2.21855e-13 1.47562e-13 9.88989e-14 0 0 9.38577e-14 2.44066e-13 1.56531e-13 8.7361e-14 0 0 1.04268e-13 2.29458e-13 1.61296e-13 1.26853e-13 0 0 1.24481e-13 2.22045e-13 1.539e-13 1.43093e-13 0 0 1.23928e-13 2.16722e-13 1.90737e-13 9.73499e-14 0 0 1.1967e-13 2.3581e-13 1.65543e-13 1.40558e-13 0 0 1.23447e-13 2.38713e-13 1.24024e-13 1.86943e-13 0 0 1.40797e-13 2.0785e-13 1.61906e-13 1.50512e-13 0 0 1.62064e-13 1.93294e-13 2.02302e-13 1.00216e-13 0 0 1.71382e-13 1.79686e-13 2.06663e-13 6.05361e-14 0 0 1.55051e-13 2.17805e-13 1.68706e-13 4.08062e-14 0 0 1.67465e-13 1.96084e-13 1.53545e-13 6.93666e-14 0 0 1.9564e-13 1.2548e-13 1.63087e-13 8.52506e-14 0 0 1.59298e-13 1.51092e-13 1.16577e-13 9.96466e-14 0 0 1.13424e-13 1.64609e-13 1.05676e-13 5.42197e-14 0 0 8.87231e-14 1.12963e-13 1.39753e-13 1.2245e-14 0 0 6.00115e-14 9.36383e-14 1.21755e-13 4.45704e-14 0 0 4.06878e-16 1.03956e-13 5.47391e-14 1.26007e-13 0 0 -1.97315e-14 6.37954e-14 5.10914e-14 1.46605e-13 0 0 -3.52874e-15 3.32313e-14 9.83972e-14 6.99217e-14 0 0 3.69631e-15 5.02607e-14 9.01787e-14 5.84614e-14 0 0 5.62604e-14 2.27463e-14 8.19682e-14 6.4307e-14 0 0 7.06842e-14 1.31931e-14 5.47673e-14 7.69821e-14 0 0 4.07372e-14 4.85175e-14 2.2207e-14 8.24172e-14 0 0 1.532e-14 5.75585e-14 1.72025e-14 1.0483e-13 0 0 3.22677e-14 9.14945e-15 4.08284e-14 1.19503e-13 0 0 3.76236e-14 5.4096e-15 2.69087e-14 1.25589e-13 0 0 1.00606e-14 4.26296e-14 -6.38725e-15 1.3922e-13 0
				</DataArray>
				<DataArray Name="VitesseY" type="Float32" format="ascii">