<?xml version="1.0"?>
<VTKFile type="PolyData">
	<PolyData>
		<Piece NumberOfPoints="1206" NumberOfPolys="1000">
			<Points>
				<DataArray type="Float32" NumberOfComponents="3" format="ascii">
 0 0 0 0.02 0 0 0.04 0 0 0.06 0 0 0.08 0 0 0.1 0 0 0 0.005 0 0.02 0.005 0 0.04 0.005 0 0.06 0.005 0 0.08 0.005 0 0.1 0.005 0 0 0.01 0 0.02 0.01 0 0.04 0.01 0 0.06 0.01 0 0.08 0.01 0 0.1 0.01 0 0 0.015 0 0.02 0.015 0 0.04 0.015 0 0.06 0.015 0 0.08 0.015 0 0.1 0.015 0 0 0.02 0 0.02 0.02 0 0.04 0.02 0 0.06 0.02 0 0.08 0.02 0 0.1 0.02 0 0 0.025 0 0.02 0.025 0 0.04 0.025 0 0.06 0.025 0 0.08 0.025 0 0.1 0.025 0 0 0.03 0 0.02 0.03 0 0.04 0.03 0 0.06 0.03 0 0.08 0.03 0 0.1 0.03 0 0 0.035 0 0.02 0.035 0 0.04 0.035 0 0.06 0.035 0 0.08 0.035 0 0.1 0.035 0 0 0.04 0 0.02 0.04 0 0.04 0.04 0 0.06 0.04 0 0.08 0.04 0 0.1 0.04 0 0 0.045 0 0.02 0.045 0 0.04 0.045 0 0.06 0.045 0 0.08 0.045 0 0.1 0.045 0 0 0.05 0 0.02 0.05 0 0.04 0.05 0 0.06 0.05 0 0.08 0.05 0 0.1 0.05 0 0 0.055 0 0.02 0.055 0 0.04 0.055 0 0.06 0.055 0 0.08 0.055 0 0.1 0.055 0 0 0.06 0 0.02 0.06 0 0.04 0.06 0 0.06 0.06 0 0.08 0.06 0 0.1 0.06 0 0 0.065 0 0.02 0.065 0 0.04 0.065 0 0.06 0.065 0 0.08 0.065 0 0.1 0.065 0 0 0.07 0 0.02 0.07 0 0.04 0.07 0 0.06 0.07 0 0.08 0.07 0 0.1 0.07 0 0 0.075 0 0.02 0.075 0 0.04 0.075 0 0.06 0.075 0 0.08 0.075 0 0.1 0.075 0 0 0.08 0 0.02 0.08 0 0.04 0.08 0 0.06 0.08 0 0.08 0.08 0 0.1 0.08 0 0 0.085 0 0.02 0.085 0 0.04 0.085 0 0.06 0.085 0 0.08 0.085 0 0.1 0.085 0 0 0.09 0 0.02 0.09 0 0.04 0.09 0 0.06 0.09 0 0.08 0.09 0 0.1 0.09 0 0 0.095 0 0.02 0.095 0 0.04 0.095 0 0.06 0.095 0 0.08 0.095 0 0.1 0.095 0 0 0.1 0 0.02 0.1 0 0.04 0.1 0 0.06 0.1 0 0.08 0.1 0 0.1 0.1 0 0 0.105 0 0.02 0.105 0 0.04 0.105 0 0.06 0.105 0 0.08 0.105 0 0.1 0.105 0 0 0.11 0 0.02 0.11 0 0.04 0.11 0 0.06 0.11 0 0.08 0.11 0 0.1 0.11 0 0 0.115 0 0.02 0.115 0 0.04 0.115 0 0.06 0.115 0 0.08 0.115 0 0.1 0.115 0 0 0.12 0 0.02 0.12 0 0.04 0.12 0 0.06 0.12 0 0.08 0.12 0 0.1 0.12 0 0 0.125 0 0.02 0.125 0 0.04 0.125 0 0.06 0.125 0 0.08 0.125 0 0.1 0.125 0 0 0.13 0 0.02 0.13 0 0.04 0.13 0 0.06 0.13 0 0.08 0.13 0 0.1 0.13 0 0 0.135 0 0.02 0.135 0 0.04 0.135 0 0.06 0.135 0 0.08 0.135 0 0.1 0.135 0 0 0.14 0 0.02 0.14 0 0.04 0.14 0 0.06 0.14 0 0.08 0.14 0 0.1 0.14 0 0 0.145 0 0.02 0.145 0 0.04 0.145 0 0.06 0.145 0 0.08 0.145 0 0.1 0.145 0 0 0.15 0 0.02 0.15 0 0.04 0.15 0 0.06 0.15 0 0.08 0.15 0 0.1 0.15 0 0 0.155 0 0.02 0.155 0 0.04 0.155 0 0.06 0.155 0 0.08 0.155 0 0.1 0.155 0 0 0.16 0 0.02 0.16 0 0.04 0.16 0 0.06 0.16 0 0.08 0.16 0 0.1 0.16 0 0 0.165 0 0.02 0.165 0 0.04 0.165 0 0.06 0.165 0 0.08 0.165 0 0.1 0.165 0 0 0.17 0 0.02 0.17 0 0.04 0.17 0 0.06 0.17 0 0.08 0.17 0 0.1 0.17 0 0 0.175 0 0.02 0.175 0 0.04 0.175 0 0.06 0.175 0 0.08 0.175 0 0.1 0.175 0 0 0.18 0 0.02 0.18 0 0.04 0.18 0 0.06 0.18 0 0.08 0.18 0 0.1 0.18 0 0 0.185 0 0.02 0.185 0 0.04 0.185 0 0.06 0.185 0 0.08 0.185 0 0.1 0.185 0 0 0.19 0 0.02 0.19 0 0.04 0.19 0 0.06 0.19 0 0.08 0.19 0 0.1 0.19 0 0 0.195 0 0.02 0.195 0 0.04 0.195 0 0.06 0.195 0 0.08 0.195 0 0.1 0.195 0 0 0.2 0 0.02 0.2 0 0.04 0.2 0 0.06 0.2 0 0.08 0.2 0 0.1 0.2 0 0 0.205 0 0.02 0.205 0 0.04 0.205 0 0.06 0.205 0 0.08 0.205 0 0.1 0.205 0 0 0.21 0 0.02 0.21 0 0.04 0.21 0 0.06 0.21 0 0.08 0.21 0 0.1 0.21 0 0 0.215 0 0.02 0.215 0 0.04 0.215 0 0.06 0.215 0 0.08 0.215 0 0.1 0.215 0 0 0.22 0 0.02 0.22 0 0.04 0.22 0 0.06 0.22 0 0.08 0.22 0 0.1 0.22 0 0 0.225 0 0.02 0.225 0 0.04 0.225 0 0.06 0.225 0 0.08 0.225 0 0.1 0.225 0 0 0.23 0 0.02 0.23 0 0.04 0.23 0 0.06 0.23 0 0.08 0.23 0 0.1 0.23 0 0 0.235 0 0.02 0.235 0 0.04 0.235 0 0.06 0.235 0 0.08 0.235 0 0.1 0.235 0 0 0.24 0 0.02 0.24 0 0.04 0.24 0 0.06 0.24 0 0.08 0.24 0 0.1 0.24 0 0 0.245 0 0.02 0.245 0 0.04 0.245 0 0.06 0.245 0 0.08 0.245 0 0.1 0.245 0 0 0.25 0 0.02 0.25 0 0.04 0.25 0 0.06 0.25 0 0.08 0.25 0 0.1 0.25 0 0 0.255 0 0.02 0.255 0 0.04 0.255 0 0.06 0.255 0 0.08 0.255 0 0.1 0.255 0 0 0.26 0 0.02 0.26 0 0.04 0.26 0 0.06 0.26 0 0.08 0.26 0 0.1 0.26 0 0 0.265 0 0.02 0.265 0 0.04 0.265 0 0.06 0.265 0 0.08 0.265 0 0.1 0.265 0 0 0.27 0 0.02 0.27 0 0.04 0.27 0 0.06 0.27 0 0.08 0.27 0 0.1 0.27 0 0 0.275 0 0.02 0.275 0 0.04 0.275 0 0.06 0.275 0 0.08 0.275 0 0.1 0.275 0 0 0.28 0 0.02 0.28 0 0.04 0.28 0 0.06 0.28 0 0.08 0.28 0 0.1 0.28 0 0 0.285 0 0.02 0.285 0 0.04 0.285 0 0.06 0.285 0 0.08 0.285 0 0.1 0.285 0 0 0.29 0 0.02 0.29 0 0.04 0.29 0 0.06 0.29 0 0.08 0.29 0 0.1 0.29 0 0 0.295 0 0.02 0.295 0 0.04 0.295 0 0.06 0.295 0 0.08 0.295 0 0.1 0.295 0 0 0.3 0 0.02 0.3 0 0.04 0.3 0 0.06 0.3 0 0.08 0.3 0 0.1 0.3 0 0 0.305 0 0.02 0.305 0 0.04 0.305 0 0.06 0.305 0 0.08 0.305 0 0.1 0.305 0 0 0.31 0 0.02 0.31 0 0.04 0.31 0 0.06 0.31 0 0.08 0.31 0 0.1 0.31 0 0 0.315 0 0.02 0.315 0 0.04 0.315 0 0.06 0.315 0 0.08 0.315 0 0.1 0.315 0 0 0.32 0 0.02 0.32 0 0.04 0.32 0 0.06 0.32 0 0.08 0.32 0 0.1 0.32 0 0 0.325 0 0.02 0.325 0 0.04 0.325 0 0.06 0.325 0 0.08 0.325 0 0.1 0.325 0 0 0.33 0 0.02 0.33 0 0.04 0.33 0 0.06 0.33 0 0.08 0.33 0 0.1 0.33 0 0 0.335 0 0.02 0.335 0 0.04 0.335 0 0.06 0.335 0 0.08 0.335 0 0.1 0.335 0 0 0.34 0 0.02 0.34 0 0.04 0.34 0 0.06 0.34 0 0.08 0.34 0 0.1 0.34 0 0 0.345 0 0.02 0.345 0 0.04 0.345 0 0.06 0.345 0 0.08 0.345 0 0.1 0.345 0 0 0.35 0 0.02 0.35 0 0.04 0.35 0 0.06 0.35 0 0.08 0.35 0 0.1 0.35 0 0 0.355 0 0.02 0.355 0 0.04 0.355 0 0.06 0.355 0 0.08 0.355 0 0.1 0.355 0 0 0.36 0 0.02 0.36 0 0.04 0.36 0 0.06 0.36 0 0.08 0.36 0 0.1 0.36 0 0 0.365 0 0.02 0.365 0 0.04 0.365 0 0.06 0.365 0 0.08 0.365 0 0.1 0.365 0 0 0.37 0 0.02 0.37 0 0.04 0.37 0 0.06 0.37 0 0.08 0.37 0 0.1 0.37 0 0 0.375 0 0.02 0.375 0 0.04 0.375 0 0.06 0.375 0 0.08 0.375 0 0.1 0.375 0 0 0.38 0 0.02 0.38 0 0.04 0.38 0 0.06 0.38 0 0.08 0.38 0 0.1 0.38 0 0 0.385 0 0.02 0.385 0 0.04 0.385 0 0.06 0.385 0 0.08 0.385 0 0.1 0.385 0 0 0.39 0 0.02 0.39 0 0.04 0.39 0 0.06 0.39 0 0.08 0.39 0 0.1 0.39 0 0 0.395 0 0.02 0.395 0 0.04 0.395 0 0.06 0.395 0 0.08 0.395 0 0.1 0.395 0 0 0.4 0 0.02 0.4 0 0.04 0.4 0 0.06 0.4 0 0.08 0.4 0 0.1 0.4 0 0 0.405 0 0.02 0.405 0 0.04 0.405 0 0.06 0.405 0 0.08 0.405 0 0.1 0.405 0 0 0.41 0 0.02 0.41 0 0.04 0.41 0 0.06 0.41 0 0.08 0.41 0 0.1 0.41 0 0 0.415 0 0.02 0.415 0 0.04 0.415 0 0.06 0.415 0 0.08 0.415 0 0.1 0.415 0 0 0.420001 0 0.02 0.420001 0 0.04 0.420001 0 0.06 0.420001 0 0.08 0.420001 0 0.1 0.420001 0 0 0.425007 0 0.02 0.425007 0 0.04 0.425007 0 0.06 0.425007 0 0.08 0.425007 0 0.1 0.425007 0 0 0.43003 0 0.02 0.43003 0 0.04 0.43003 0 0.06 0.43003 0 0.08 0.43003 0 0.1 0.43003 0 0 0.435105 0 0.02 0.435105 0 0.04 0.435105 0 0.06 0.435105 0 0.08 0.435105 0 0.1 0.435105 0 0 0.440301 0 0.02 0.440301 0 0.04 0.440301 0 0.06 0.440301 0 0.08 0.440301 0 0.1 0.440301 0 0 0.445715 0 0.02 0.445715 0 0.04 0.445715 0 0.06 0.445715 0 0.08 0.445715 0 0.1 0.445715 0 0 0.451452 0 0.02 0.451452 0 0.04 0.451452 0 0.06 0.451452 0 0.08 0.451452 0 0.1 0.451452 0 0 0.457617 0 0.02 0.457617 0 0.04 0.457617 0 0.06 0.457617 0 0.08 0.457617 0 0.1 0.457617 0 0 0.464318 0 0.02 0.464318 0 0.04 0.464318 0 0.06 0.464318 0 0.08 0.464318 0 0.1 0.464318 0 0 0.471683 0 0.02 0.471683 0 0.04 0.471683 0 0.06 0.471683 0 0.08 0.471683 0 0.1 0.471683 0 0 0.479882 0 0.02 0.479882 0 0.04 0.479882 0 0.06 0.479882 0 0.08 0.479882 0 0.1 0.479882 0 0 0.489138 0 0.02 0.489138 0 0.04 0.489138 0 0.06 0.489138 0 0.08 0.489138 0 0.1 0.489138 0 0 0.499724 0 0.02 0.499724 0 0.04 0.499724 0 0.06 0.499724 0 0.08 0.499724 0 0.1 0.499724 0 0 0.511797 0 0.02 0.511797 0 0.04 0.511797 0 0.06 0.511797 0 0.08 0.511797 0 0.1 0.511797 0 0 0.52452 0 0.02 0.52452 0 0.04 0.52452 0 0.06 0.52452 0 0.08 0.52452 0 0.1 0.52452 0 0 0.53681 0 0.02 0.53681 0 0.04 0.53681 0 0.06 0.53681 0 0.08 0.53681 0 0.1 0.53681 0 0 0.548815 0 0.02 0.548815 0 0.04 0.548815 0 0.06 0.548815 0 0.08 0.548815 0 0.1 0.548815 0 0 0.551115 0 0.02 0.551115 0 0.04 0.551115 0 0.06 0.551115 0 0.08 0.551115 0 0.1 0.551115 0 0 0.553416 0 0.02 0.553416 0 0.04 0.553416 0 0.06 0.553416 0 0.08 0.553416 0 0.1 0.553416 0 0 0.555715 0 0.02 0.555715 0 0.04 0.555715 0 0.06 0.555715 0 0.08 0.555715 0 0.1 0.555715 0 0 0.558014 0 0.02 0.558014 0 0.04 0.558014 0 0.06 0.558014 0 0.08 0.558014 0 0.1 0.558014 0 0 0.560312 0 0.02 0.560312 0 0.04 0.560312 0 0.06 0.560312 0 0.08 0.560312 0 0.1 0.560312 0 0 0.562608 0 0.02 0.562608 0 0.04 0.562608 0 0.06 0.562608 0 0.08 0.562608 0 0.1 0.562608 0 0 0.564902 0 0.02 0.564902 0 0.04 0.564902 0 0.06 0.564902 0 0.08 0.564902 0 0.1 0.564902 0 0 0.567195 0 0.02 0.567195 0 0.04 0.567195 0 0.06 0.567195 0 0.08 0.567195 0 0.1 0.567195 0 0 0.569489 0 0.02 0.569489 0 0.04 0.569489 0 0.06 0.569489 0 0.08 0.569489 0 0.1 0.569489 0 0 0.571782 0 0.02 0.571782 0 0.04 0.571782 0 0.06 0.571782 0 0.08 0.571782 0 0.1 0.571782 0 0 0.574092 0 0.02 0.574092 0 0.04 0.574092 0 0.06 0.574092 0 0.08 0.574092 0 0.1 0.574092 0 0 0.576429 0 0.02 0.576429 0 0.04 0.576429 0 0.06 0.576429 0 0.08 0.576429 0 0.1 0.576429 0 0 0.578831 0 0.02 0.578831 0 0.04 0.578831 0 0.06 0.578831 0 0.08 0.578831 0 0.1 0.578831 0 0 0.58134 0 0.02 0.58134 0 0.04 0.58134 0 0.06 0.58134 0 0.08 0.58134 0 0.1 0.58134 0 0 0.583943 0 0.02 0.583943 0 0.04 0.583943 0 0.06 0.583943 0 0.08 0.583943 0 0.1 0.583943 0 0 0.586767 0 0.02 0.586767 0 0.04 0.586767 0 0.06 0.586767 0 0.08 0.586767 0 0.1 0.586767 0 0 0.58982 0 0.02 0.58982 0 0.04 0.58982 0 0.06 0.58982 0 0.08 0.58982 0 0.1 0.58982 0 0 0.593205 0 0.02 0.593205 0 0.04 0.593205 0 0.06 0.593205 0 0.08 0.593205 0 0.1 0.593205 0 0 0.596945 0 0.02 0.596945 0 0.04 0.596945 0 0.06 0.596945 0 0.08 0.596945 0 0.1 0.596945 0 0 0.601058 0 0.02 0.601058 0 0.04 0.601058 0 0.06 0.601058 0 0.08 0.601058 0 0.1 0.601058 0 0 0.605506 0 0.02 0.605506 0 0.04 0.605506 0 0.06 0.605506 0 0.08 0.605506 0 0.1 0.605506 0 0 0.610211 0 0.02 0.610211 0 0.04 0.610211 0 0.06 0.610211 0 0.08 0.610211 0 0.1 0.610211 0 0 0.615078 0 0.02 0.615078 0 0.04 0.615078 0 0.06 0.615078 0 0.08 0.615078 0 0.1 0.615078 0 0 0.620026 0 0.02 0.620026 0 0.04 0.620026 0 0.06 0.620026 0 0.08 0.620026 0 0.1 0.620026 0 0 0.625008 0 0.02 0.625008 0 0.04 0.625008 0 0.06 0.625008 0 0.08 0.625008 0 0.1 0.625008 0 0 0.630003 0 0.02 0.630003 0 0.04 0.630003 0 0.06
[...]
			<PointData Scalars="VitesseX">
				<DataArray Name="VitesseX" type="Float32" format="ascii">
 0 1.08815e-15 -6.36796e-16 2.04751e-15 1.98674e-16 0 0 7.28106e-16 -8.4606e-16 2.54261e-15 2.73607e-16 0 0 -9.96939e-16 3.71825e-16 2.03871e-15 1.49102e-15 0 0 -1.79485e-15 1.02404e-15 1.43289e-15 2.79375e-15 0 0 -1.21669e-15 5.54904e-16 1.37723e-15 2.74323e-15 0 0 -1.476e-15 1.36172e-15 2.74707e-16 3.64452e-15 0 0 -1.50194e-15 1.25715e-15 -1.31848e-16 5.43337e-15 0 0 2.05949e-16 -4.55305e-16 1.09288e-15 6.41749e-15 0 0 1.68039e-15 -4.06877e-15 5.67772e-15 4.14661e-15 0 0 3.1233e-16 -3.54362e-15 6.34357e-15 3.03602e-15 0 0 -1.48224e-16 -1.31304e-15 5.37515e-15 2.72918e-15 0 0 1.27485e-15 -2.10346e-15 6.10123e-15 1.75628e-15 0 0 5.34695e-16 -1.92255e-16 2.00522e-15 6.09854e-15 0 0 3.40996e-15 -4.01475e-15 3.50754e-15 6.42741e-15 0 0 2.46235e-15 -2.843e-15 5.00027e-15 1.71725e-15 0 0 -1.32755e-15 1.84114e-15 1.78704e-16 2.95137e-15 0 0 2.32945e-15 -3.0988e-15 2.6091e-15 1.12174e-15 0 0 4.41812e-16 1.18117e-15 1.35569e-16 7.74825e-16 0 0 -4.1782e-16 1.96528e-15 -1.28691e-15 4.51292e-15 0 0 -3.02463e-16 -2.62435e-15 6.16005e-15 1.08313e-15 0 0 -4.95206e-15 3.59654e-15 2.75458e-15 2.20446e-15 0 0 -4.33163e-15 1.8123e-15 2.65044e-15 5.54945e-15 0 0 -2.41141e-15 -3.31262e-15 6.41916e-15 1.66846e-15 0 0 2.17456e-15 -7.90813e-15 8.02611e-15 -1.53334e-15 0 0 2.03007e-15 -7.05773e-15 3.38493e-15 5.51356e-15 0 0 1.23154e-15 -3.63161e-15 -2.84558e-15 1.0844e-14 0 0 6.68999e-15 -6.15478e-15 2.32975e-15 5.32712e-15 0 0 1.89328e-15 3.96149e-15 5.06226e-16 3.15646e-15 0 0 2.88534e-15 5.15331e-15 3.12218e-15 -2.83813e-15 0 0 6.78822e-15 4.53978e-16 4.45082e-15 -2.71393e-15 0 0 1.46773e-15 6.96907e-15 -5.07196e-15 6.18044e-15 0 0 7.93306e-16 4.65913e-15 -2.1057e-15 3.89236e-15 0 0 3.10677e-15 -3.5786e-15 4.83637e-15 8.13869e-16 0 0 -1.79926e-15 -7.83805e-16 -4.87045e-16 6.11084e-15 0 0 -2.57599e-15 -3.98709e-15 -1.60563e-15 1.29173e-14 0 0 1.00659e-15 -1.08636e-14 1.30886e-14 1.87847e-15 0 0 9.62366e-16 -5.41539e-15 1.52161e-14 -8.199e-16 0 0 -3.72673e-15 7.42892e-15 6.53591e-16 1.76163e-14 0 0 2.63754e-15 3.75461e-15 -2.78892e-15 2.46138e-14 0 0 9.87229e-15 -4.4482e-16 -3.7579e-15 1.90088e-14 0 0 4.55783e-15 1.07275e-14 -3.55429e-15 3.2665e-15 0 0 5.23483e-15 1.12003e-14 3.41628e-16 -4.33637e-16 0 0 9.8193e-15 2.95636e-15 -5.25152e-15 8.34038e-15 0 0 6.74912e-15 5.10203e-15 -5.63664e-15 -7.10814e-15 0 0 -1.84213e-15 1.05419e-14 2.84673e-15 -1.80566e-14 0 0 8.66408e-16 4.36325e-15 1.09987e-14 -6.68637e-15 0 0 1.06166e-14 -4.38537e-15 2.86886e-14 -6.36841e-15 0 0 6.75124e-15 4.0238e-15 3.08919e-14 2.64867e-16 0 0 -2.24729e-17 1.25908e-14 1.19384e-14 2.61188e-14 0 0 -2.13401e-15 1.80808e-14 8.97422e-15 1.75137e-14 0 0 -5.71348e-15 3.02328e-14 -2.69492e-15 4.51784e-15 0 0 2.09991e-15 1.74878e-14 -4.76742e-15 8.72023e-15 0 0 1.25765e-14 -1.34527e-15 4.60917e-15 7.0173e-15 0 0 4.53686e-15 1.12987e-14 -1.40039e-14 1.37509e-14 0 0 1.01932e-15 9.12376e-15 -1.06018e-14 6.21085e-15 0 0 2.44248e-15 -7.09077e-15 4.40032e-15 -2.34726e-15 0 0 2.41535e-15 -1.88841e-15 9.77015e-15 -1.0862e-14 0 0 7.62934e-15 -9.31348e-15 1.20926e-14 -8.86594e-16 0 0 -5.55078e-15 5.29441e-15 -7.70165e-15 9.75039e-15 0 0 -1.26782e-14 2.61162e-14 -1.78581e-14 -2.33073e-15 0 0 1.26163e-15 1.28051e-14 -4.15851e-15 -6.11802e-15 0 0 6.45866e-17 2.08238e-14 -1.2149e-14 1.08476e-14 0 0 -1.85046e-15 3.13705e-14 -3.36177e-14 2.99137e-14 0 0 7.72264e-15 1.18829e-14 -1.0352e-14 1.96206e-15 0 0 2.99082e-15 1.25291e-14 1.24119e-14 -1.35488e-14 0 0 -9.72715e-16 1.66149e-14 1.66231e-15 1.39955e-15 0 0 -4.4863e-15 1.70541e-14 -1.25617e-14 1.30936e-14 0 0 1.3112e-15 1.23604e-14 -2.93987e-16 1.19768e-14 0 0 1.53896e-14 7.90432e-15 1.05213e-14 5.35217e-15 0 0 1.40057e-14 1.12055e-14 1.51548e-14 -1.85386e-15 0 0 2.28923e-15 1.38292e-14 2.55256e-14 -1.39539e-14 0 0 7.87378e-15 1.29598e-14 1.50956e-14 -9.78916e-15 0 0 9.31119e-16 1.12253e-14 8.56649e-15 -4.74637e-16 0 0 -3.97103e-15 -8.38379e-16 1.1014e-14 6.29777e-15 0 0 -4.45106e-15 6.17251e-15 -1.73925e-14 4.02044e-14 0 0 6.45211e-15 -8.26998e-15 -7.38248e-15 2.38805e-14 0 0 3.19283e-14 -1.96848e-14 1.0088e-14 -1.69055e-14 0 0 -1.63679e-16 2.68447e-14 -2.22675e-14 8.10635e-15 0 0 -3.98549e-15 1.42757e-14 -1.39617e-14 2.41085e-14 0 0 9.0524e-15 5.5443e-16 -5.84598e-15 1.58135e-14 0 0 -9.80864e-15 2.7728e-14 -2.3445e-14 8.80536e-15 0 0 1.62895e-15 2.30023e-14 -2.57208e-14 1.14852e-14 0 0 4.39384e-15 1.85738e-14 -8.03041e-15 -1.08237e-14 0 0 -8.12345e-15 1.89296e-14 1.30669e-14 -2.98213e-14 0 0 8.19086e-15 -6.6176e-15 2.55257e-14 -1.92002e-14 0 0 2.8644e-16 -1.68471e-15 2.08622e-15 -7.61792e-15 0 0 -1.53136e-14 7.66779e-16 -1.74986e-15 -1.98235e-16 0 0 -3.85205e-15 1.05349e-14 1.30266e-14 -1.03422e-14 0 0 1.13809e-14 1.46829e-14 -3.45849e-15 1.09497e-14 0 0 9.94052e-15 -7.97057e-15 9.88458e-15 1.89121e-14 0 0 -2.08775e-15 1.74711e-14 5.84839e-15 1.36786e-15 0 0 -1.16123e-14 3.37041e-14 -1.40304e-14 -1.64367e-14 0 0 -6.39523e-15 -1.60315e-14 9.12255e-15 -2.53341e-14 0 0 1.39563e-14 -2.23349e-14 9.27849e-15 -1.04663e-14 0 0 8.98731e-15 5.26458e-15 -6.01076e-15 -3.13291e-15 0 0 3.94147e-15 -1.43198e-15 -9.34269e-15 6.8984e-15 0 0 9.81976e-15 4.04532e-15 4.57935e-15 7.128e-15 0 0 3.63317e-14 5.32952e-14 4.67892e-14 1.72205e-14 0 0 1.33671e-13 2.11905e-13 2.08838e-13 9.71856e-14 0 0 1.48423e-13 2.41991e-13 2.57188e-13 1.34096e-13 0 0 3.32272e-14 5.84339e-14 5.1855e-14 5.95036e-14 0 0 -4.90733e-13 -8.37089e-13 -8.26251e-13 -4.56214e-13 0 0 -5.69837e-13 -9.2988e-13 -9.28514e-13 -5.58091e-13 0 0 -6.12639e-13 -9.95695e-13 -9.77546e-13 -6.21405e-13 0 0 -6.19461e-13 -1.03e-12 -1.02256e-12 -6.00436e-13 0 0 -6.05293e-13 -9.78836e-13 -1.05178e-12 -5.29305e-13 0 0 -5.23757e-13 -8.98826e-13 -9.82581e-13 -4.55799e-13 0 0 -3.60091e-13 -6.00056e-13 -7.02365e-13 -3.36186e-13 0 0 -1.0668e-13 -1.25478e-13 -3.35315e-13 -6.09903e-14 0 0 1.39397e-13 2.72956e-13 6.17657e-14 1.83742e-13 0 0 2.5466e-13 4.80113e-13 4.0094e-13 2.72674e-13 0 0 2.49043e-13 5.23722e-13 4.76257e-13 3.02013e-13 0 0 2.33755e-13 4.72049e-13 4.21296e-13 2.51454e-13 0 0 2.27262e-13 4.38866e-13 4.01285e-13 2.35986e-13 0 0 2.24658e-13 4.82317e-13 3.88197e-13 3.22184e-13 0 0 2.22405e-13 4.4271e-13 4.76196e-13 2.93082e-13 0 0 2.99998e-13 4.4886e-13 5.92133e-13 2.78625e-13 0 0 3.2133e-13 4.59555e-13 5.871e-13 2.8039e-13 0 0 2.85636e-13 5.06387e-13 5.10598e-13 2.90293e-13 0 0 2.65327e-13 4.48602e-13 4.24991e-13 2.68761e-13 0 0 1.99682e-13 3.20147e-13 3.4713e-13 1.97603e-13 0 0 1.22331e-13 2.2151e-13 2.02231e-13 1.27988e-13 0 0 7.15539e-14 1.06893e-13 1.09151e-13 7.06145e-14 0 0 3.20453e-14 3.23728e-14 6.78592e-14 2.84105e-14 0 0 8.02341e-15 2.18738e-14 3.33545e-14 9.4722e-16 0 0 -1.3024e-15 1.43221e-14 2.24337e-14 8.91279e-15 0 0 9.43475e-16 -9.70555e-15 2.45132e-14 1.28798e-14 0 0 -3.04202e-15 -1.3177e-14 2.3719e-14 3.67963e-15 0 0 -2.55576e-14 1.89143e-14 4.36427e-15 2.84176e-15 0 0 -1.93847e-14 2.43449e-15 1.79781e-14 9.80968e-15 0 0 -4.48674e-15 -2.81796e-14 4.01969e-14 1.62542e-14 0 0 -1.33037e-14 -1.14882e-14 2.67932e-14 1.03979e-14 0 0 -2.18824e-14 1.0016e-14 2.97845e-15 3.40629e-14 0 0 -6.01567e-15 -7.36491e-15 1.61757e-14 1.6385e-14 0 0 5.27681e-15 -2.14077e-14 4.52822e-14 -1.87227e-14 0 0 5.85799e-15 3.45042e-15 2.29037e-14 -3.12273e-15 0 0 -2.97967e-15 1.801e-14 1.18469e-14 -3.29698e-15 0 0 -2.89855e-15 1.71963e-14 2.15325e-14 1.14497e-14 0 0 1.14987e-14 1.28229e-14 4.05667e-14 4.31397e-14 0 0 -1.72599e-15 2.87019e-14 4.88211e-14 4.00431e-14 0 0 1.18185e-15 5.63486e-14 2.25744e-14 4.87905e-14 0 0 1.67695e-14 7.79796e-14 -9.95215e-15 5.95175e-14 0 0 8.96166e-15 8.28696e-14 -2.26695e-14 5.07182e-14 0 0 1.31047e-14 4.31484e-14 9.15667e-15 2.85984e-14 0 0 2.9783e-14 1.47487e-15 4.48928e-14 -7.30738e-15 0 0 4.14888e-14 4.2573e-15 2.32805e-14 -3.74362e-15 0 0 4.80287e-14 1.93279e-14 1.01524e-14 1.14272e-14 0 0 3.47662e-14 1.36399e-14 3.4365e-14 -1.29225e-14 0 0 3.64134e-14 1.02598e-14 3.42013e-14 -5.57854e-15 0 0 5.39946e-14 2.61544e-15 8.92596e-15 5.01252e-14 0 0 3.79529e-14 6.01542e-15 -5.23512e-15 1.07977e-13 0 0 1.82342e-14 1.46464e-14 3.73071e-14 8.10792e-14 0 0 3.02004e-16 3.47581e-14 7.09908e-14 -1.0775e-14 0 0 1.61327e-14 4.04847e-14 4.05127e-14 -6.91673e-15 0 0 3.42385e-14 5.05934e-14 7.57614e-15 3.88728e-14 0 0 1.89535e-14 7.62467e-14 1.83944e-14 2.02525e-14 0 0 1.69234e-14 6.49015e-14 6.74203e-14 -1.12122e-14 0 0 2.7058e-14 3.51681e-14 1.00318e-13 -3.43098e-14 0 0 8.26691e-15 5.55747e-14 3.12541e-14 -5.42921e-15 0 0 5.19114e-15 5.55106e-14 -1.39203e-14 2.91876e-14 0 0 3.23984e-14 -1.1461e-14 -1.85169e-14 5.81522e-14 0 0 2.11824e-14 8.92102e-15 -2.46051e-14 5.8248e-14 0 0 -4.42587e-15 3.41134e-14 1.52348e-14 1.71277e-14 0 0 -4.23751e-14 8.97594e-14 -2.4771e-14 2.26131e-14 0 0 -5.78422e-14 1.26937e-13 -1.78424e-14 -4.317e-14 0 0 -1.32582e-14 5.23724e-14 4.60864e-14 -1.10727e-13 0 0 4.28344e-14 1.40965e-14 1.36371e-14 -6.98638e-14 0 0 3.10873e-14 3.71431e-14 -5.84554e-14 8.46588e-15 0 0 -6.84047e-15 8.13439e-14 -7.11136e-14 5.44193e-15 0 0 -1.56005e-15 7.60232e-14 -3.15748e-14 -5.58802e-14 0 0 1.70175e-14 2.25438e-14 2.71511e-14 -9.25886e-14 0 0 1.45086e-14 -2.75099e-15 7.58267e-14 -1.12155e-13 0 0 1.02827e-14 -7.02526e-15 8.92318e-14 -7.97001e-14 0 0 1.39937e-14 2.25901e-14 4.74613e-14 5.23053e-15 0 0 1.0156e-14 7.99281e-14 3.3941e-16 1.48975e-14 0 0 1.88179e-14 6.01934e-14 1.37418e-14 9.19263e-15 0 0 3.03042e-14 1.87657e-15 3.94359e-14 4.00637e-14 0 0 3.94795e-15 1.9888e-14 4.03334e-14 4.04655e-14 0 0 -3.24033e-14 5.6702e-14 2.23833e-14 1.68364e-14 0 0 -2.15002e-15 2.70094e-15 5.61223e-14 -3.72195e-14 0 0 1.92603e-14 -1.93567e-14 6.94227e-14 -1.52547e-14 0 0 1.96312e-14 4.9686e-15 1.20721e-14 5.09697e-14 0 0 2.97407e-14 1.02411e-14 1.92624e-14 2.82113e-14 0 0 -7.19624e-15 3.97665e-14 5.12334e-14 -3.63924e-14 0 0 -2.10828e-14 3.23137e-14 3.82314e-14 -7.86745e-15 0 0 8.21514e-15 5.05616e-15 2.86036e-14 4.0585e-14 0 0 2.14086e-14 2.22284e-14 4.71532e-15 6.29197e-14 0 0 -6.94714e-16 4.23988e-14 2.3275e-14 3.44853e-14 0 0 1.97727e-15 3.24265e-14 3.99263e-14 -6.35245e-15 0 0 1.87198e-14 3.46164e-14 4.97179e-15 3.75477e-15 0 0 5.38911e-14 -2.41134e-14 3.83513e-14 -1.72786e-14 0 0 5.18304e-14 -3.47964e-14 4.8908e-14 -4.15935e-14 0 0 1.73588e-14 1.17415e-14 1.64586e-14 -3.25291e-14 0 0 3.42441e-14 -1.86748e-14 1.54254e-14 -8.93844e-15 0 0 3.65096e-14 -7.4039e-15 1.03605e-14 -3.81454e-15 0 0 -6.95092e-15 6.53851e-14 -3.64171e-14 5.02235e-14 0 0 3.01618e-15 3.03363e-14 -2.84628e-14 6.56132e-14 0 0 4.07099e-14 -5.62236e-14 7.71649e-14 -5.0838e-14 0 0 1.29777e-15 2.24996e-15 5.39942e-14 -5.51687e-14 0 0 7.78757e-15 4.28035e-14 -2.34675e-14 1.55254e-14 0 0 4.48647e-14 1.26268e-14 -2.28394e-14 1.64402e-14 0
				</DataArray>
				<DataArray Name="VitesseY" type="Float32" format="ascii">