<?xml version="1.0"?>
<VTKFile type="PolyData">
	<PolyData>
		<Piece NumberOfPoints="1206" NumberOfPolys="1000">
			<Points>
				<DataArray type="Float32" NumberOfComponents="3" format="ascii">
 0 0 0 0.02 0 0 0.04 0 0 0.06 0 0 0.08 0 0 0.1 0 0 0 0.005 0 0.02 0.005 0 0.04 0.005 0 0.06 0.005 0 0.08 0.005 0 0.1 0.005 0 0 0.01 0 0.02 0.01 0 0.04 0.01 0 0.06 0.01 0 0.08 0.01 0 0.1 0.01 0 0 0.015 0 0.02 0.015 0 0.04 0.015 0 0.06 0.015 0 0.08 0.015 0 0.1 0.015 0 0 0.02 0 0.02 0.02 0 0.04 0.02 0 0.06 0.02 0 0.08 0.02 0 0.1 0.02 0 0 0.025 0 0.02 0.025 0 0.04 0.025 0 0.06 0.025 0 0.08 0.025 0 0.1 0.025 0 0 0.03 0 0.02 0.03 0 0.04 0.03 0 0.06 0.03 0 0.08 0.03 0 0.1 0.03 0 0 0.035 0 0.02 0.035 0 0.04 0.035 0 0.06 0.035 0 0.08 0.035 0 0.1 0.035 0 0 0.04 0 0.02 0.04 0 0.04 0.04 0 0.06 0.04 0 0.08 0.04 0 0.1 0.04 0 0 0.045 0 0.02 0.045 0 0.04 0.045 0 0.06 0.045 0 0.08 0.045 0 0.1 0.045 0 0 0.05 0 0.02 0.05 0 0.04 0.05 0 0.06 0.05 0 0.08 0.05 0 0.1 0.05 0 0 0.055 0 0.02 0.055 0 0.04 0.055 0 0.06 0.055 0 0.08 0.055 0 0.1 0.055 0 0 0.06 0 0.02 0.06 0 0.04 0.06 0 0.06 0.06 0 0.08 0.06 0 0.1 0.06 0 0 0.065 0 0.02 0.065 0 0.04 0.065 0 0.06 0.065 0 0.08 0.065 0 0.1 0.065 0 0 0.07 0 0.02 0.07 0 0.04 0.07 0 0.06 0.07 0 0.08 0.07 0 0.1 0.07 0 0 0.075 0 0.02 0.075 0 0.04 0.075 0 0.06 0.075 0 0.08 0.075 0 0.1 0.075 0 0 0.08 0 0.02 0.08 0 0.04 0.08 0 0.06 0.08 0 0.08 0.08 0 0.1 0.08 0 0 0.085 0 0.02 0.085 0 0.04 0.085 0 0.06 0.085 0 0.08 0.085 0 0.1 0.085 0 0 0.09 0 0.02 0.09 0 0.04 0.09 0 0.06 0.09 0 0.08 0.09 0 0.1 0.09 0 0 0.095 0 0.02 0.095 0 0.04 0.095 0 0.06 0.095 0 0.08 0.095 0 0.1 0.095 0 0 0.1 0 0.02 0.1 0 0.04 0.1 0 0.06 0.1 0 0.08 0.1 0 0.1 0.1 0 0 0.105 0 0.02 0.105 0 0.04 0.105 0 0.06 0.105 0 0.08 0.105 0 0.1 0.105 0 0 0.11 0 0.02 0.11 0 0.04 0.11 0 0.06 0.11 0 0.08 0.11 0 0.1 0.11 0 0 0.115 0 0.02 0.115 0 0.04 0.115 0 0.06 0.115 0 0.08 0.115 0 0.1 0.115 0 0 0.12 0 0.02 0.12 0 0.04 0.12 0 0.06 0.12 0 0.08 0.12 0 0.1 0.12 0 0 0.125 0 0.02 0.125 0 0.04 0.125 0 0.06 0.125 0 0.08 0.125 0 0.1 0.125 0 0 0.13 0 0.02 0.13 0 0.04 0.13 0 0.06 0.13 0 0.08 0.13 0 0.1 0.13 0 0 0.135 0 0.02 0.135 0 0.04 0.135 0 0.06 0.135 0 0.08 0.135 0 0.1 0.135 0 0 0.14 0 0.02 0.14 0 0.04 0.14 0 0.06 0.14 0 0.08 0.14 0 0.1 0.14 0 0 0.145 0 0.02 0.145 0 0.04 0.145 0 0.06 0.145 0 0.08 0.145 0 0.1 0.145 0 0 0.15 0 0.02 0.15 0 0.04 0.15 0 0.06 0.15 0 0.08 0.15 0 0.1 0.15 0 0 0.155 0 0.02 0.155 0 0.04 0.155 0 0.06 0.155 0 0.08 0.155 0 0.1 0.155 0 0 0.16 0 0.02 0.16 0 0.04 0.16 0 0.06 0.16 0 0.08 0.16 0 0.1 0.16 0 0 0.165 0 0.02 0.165 0 0.04 0.165 0 0.06 0.165 0 0.08 0.165 0 0.1 0.165 0 0 0.17 0 0.02 0.17 0 0.04 0.17 0 0.06 0.17 0 0.08 0.17 0 0.1 0.17 0 0 0.175 0 0.02 0.175 0 0.04 0.175 0 0.06 0.175 0 0.08 0.175 0 0.1 0.175 0 0 0.18 0 0.02 0.18 0 0.04 0.18 0 0.06 0.18 0 0.08 0.18 0 0.1 0.18 0 0 0.185 0 0.02 0.185 0 0.04 0.185 0 0.06 0.185 0 0.08 0.185 0 0.1 0.185 0 0 0.19 0 0.02 0.19 0 0.04 0.19 0 0.06 0.19 0 0.08 0.19 0 0.1 0.19 0 0 0.195 0 0.02 0.195 0 0.04 0.195 0 0.06 0.195 0 0.08 0.195 0 0.1 0.195 0 0 0.2 0 0.02 0.2 0 0.04 0.2 0 0.06 0.2 0 0.08 0.2 0 0.1 0.2 0 0 0.205 0 0.02 0.205 0 0.04 0.205 0 0.06 0.205 0 0.08 0.205 0 0.1 0.205 0 0 0.21 0 0.02 0.21 0 0.04 0.21 0 0.06 0.21 0 0.08 0.21 0 0.1 0.21 0 0 0.215 0 0.02 0.215 0 0.04 0.215 0 0.06 0.215 0 0.08 0.215 0 0.1 0.215 0 0 0.22 0 0.02 0.22 0 0.04 0.22 0 0.06 0.22 0 0.08 0.22 0 0.1 0.22 0 0 0.225 0 0.02 0.225 0 0.04 0.225 0 0.06 0.225 0 0.08 0.225 0 0.1 0.225 0 0 0.23 0 0.02 0.23 0 0.04 0.23 0 0.06 0.23 0 0.08 0.23 0 0.1 0.23 0 0 0.235 0 0.02 0.235 0 0.04 0.235 0 0.06 0.235 0 0.08 0.235 0 0.1 0.235 0 0 0.24 0 0.02 0.24 0 0.04 0.24 0 0.06 0.24 0 0.08 0.24 0 0.1 0.24 0 0 0.245 0 0.02 0.245 0 0.04 0.245 0 0.06 0.245 0 0.08 0.245 0 0.1 0.245 0 0 0.25 0 0.02 0.25 0 0.04 0.25 0 0.06 0.25 0 0.08 0.25 0 0.1 0.25 0 0 0.255 0 0.02 0.255 0 0.04 0.255 0 0.06 0.255 0 0.08 0.255 0 0.1 0.255 0 0 0.26 0 0.02 0.26 0 0.04 0.26 0 0.06 0.26 0 0.08 0.26 0 0.1 0.26 0 0 0.265 0 0.02 0.265 0 0.04 0.265 0 0.06 0.265 0 0.08 0.265 0 0.1 0.265 0 0 0.27 0 0.02 0.27 0 0.04 0.27 0 0.06 0.27 0 0.08 0.27 0 0.1 0.27 0 0 0.275 0 0.02 0.275 0 0.04 0.275 0 0.06 0.275 0 0.08 0.275 0 0.1 0.275 0 0 0.28 0 0.02 0.28 0 0.04 0.28 0 0.06 0.28 0 0.08 0.28 0 0.1 0.28 0 0 0.285 0 0.02 0.285 0 0.04 0.285 0 0.06 0.285 0 0.08 0.285 0 0.1 0.285 0 0 0.290001 0 0.02 0.290001 0 0.04 0.290001 0 0.06 0.290001 0 0.08 0.290001 0 0.1 0.290001 0 0 0.295004 0 0.02 0.295004 0 0.04 0.295004 0 0.06 0.295004 0 0.08 0.295004 0 0.1 0.295004 0 0 0.300011 0 0.02 0.300011 0 0.04 0.300011 0 0.06 0.300011 0 0.08 0.300011 0 0.1 0.300011 0 0 0.305028 0 0.02 0.305028 0 0.04 0.305028 0 0.06 0.305028 0 0.08 0.305028 0 0.1 0.305028 0 0 0.310065 0 0.02 0.310065 0 0.04 0.310065 0 0.06 0.310065 0 0.08 0.310065 0 0.1 0.310065 0 0 0.315139 0 0.02 0.315139 0 0.04 0.315139 0 0.06 0.315139 0 0.08 0.315139 0 0.1 0.315139 0 0 0.32027 0 0.02 0.32027 0 0.04 0.32027 0 0.06 0.32027 0 0.08 0.32027 0 0.1 0.32027 0 0 0.325477 0 0.02 0.325477 0 0.04 0.325477 0 0.06 0.325477 0 0.08 0.325477 0 0.1 0.325477 0 0 0.33078 0 0.02 0.33078 0 0.04 0.33078 0 0.06 0.33078 0 0.08 0.33078 0 0.1 0.33078 0 0 0.336194 0 0.02 0.336194 0 0.04 0.336194 0 0.06 0.336194 0 0.08 0.336194 0 0.1 0.336194 0 0 0.341732 0 0.02 0.341732 0 0.04 0.341732 0 0.06 0.341732 0 0.08 0.341732 0 0.1 0.341732 0 0 0.347406 0 0.02 0.347406 0 0.04 0.347406 0 0.06 0.347406 0 0.08 0.347406 0 0.1 0.347406 0 0 0.353225 0 0.02 0.353225 0 0.04 0.353225 0 0.06 0.353225 0 0.08 0.353225 0 0.1 0.353225 0 0 0.3592 0 0.02 0.3592 0 0.04 0.3592 0 0.06 0.3592 0 0.08 0.3592 0 0.1 0.3592 0 0 0.365341 0 0.02 0.365341 0 0.04 0.365341 0 0.06 0.365341 0 0.08 0.365341 0 0.1 0.365341 0 0 0.371662 0 0.02 0.371662 0 0.04 0.371662 0 0.06 0.371662 0 0.08 0.371662 0 0.1 0.371662 0 0 0.378173 0 0.02 0.378173 0 0.04 0.378173 0 0.06 0.378173 0 0.08 0.378173 0 0.1 0.378173 0 0 0.384889 0 0.02 0.384889 0 0.04 0.384889 0 0.06 0.384889 0 0.08 0.384889 0 0.1 0.384889 0 0 0.391825 0 0.02 0.391825 0 0.04 0.391825 0 0.06 0.391825 0 0.08 0.391825 0 0.1 0.391825 0 0 0.398998 0 0.02 0.398998 0 0.04 0.398998 0 0.06 0.398998 0 0.08 0.398998 0 0.1 0.398998 0 0 0.406427 0 0.02 0.406427 0 0.04 0.406427 0 0.06 0.406427 0 0.08 0.406427 0 0.1 0.406427 0 0 0.414132 0 0.02 0.414132 0 0.04 0.414132 0 0.06 0.414132 0 0.08 0.414132 0 0.1 0.414132 0 0 0.422138 0 0.02 0.422138 0 0.04 0.422138 0 0.06 0.422138 0 0.08 0.422138 0 0.1 0.422138 0 0 0.430469 0 0.02 0.430469 0 0.04 0.430469 0 0.06 0.430469 0 0.08 0.430469 0 0.1 0.430469 0 0 0.439157 0 0.02 0.439157 0 0.04 0.439157 0 0.06 0.439157 0 0.08 0.439157 0 0.1 0.439157 0 0 0.448234 0 0.02 0.448234 0 0.04 0.448234 0 0.06 0.448234 0 0.08 0.448234 0 0.1 0.448234 0 0 0.457738 0 0.02 0.457738 0 0.04 0.457738 0 0.06 0.457738 0 0.08 0.457738 0 0.1 0.457738 0 0 0.467709 0 0.02 0.467709 0 0.04 0.467709 0 0.06 0.467709 0 0.08 0.467709 0 0.1 0.467709 0 0 0.478189 0 0.02 0.478189 0 0.04 0.478189 0 0.06 0.478189 0 0.08 0.478189 0 0.1 0.478189 0 0 0.489213 0 0.02 0.489213 0 0.04 0.489213 0 0.06 0.489213 0 0.08 0.489213 0 0.1 0.489213 0 0 0.500789 0 0.02 0.500789 0 0.04 0.500789 0 0.06 0.500789 0 0.08 0.500789 0 0.1 0.500789 0 0 0.512825 0 0.02 0.512825 0 0.04 0.512825 0 0.06 0.512825 0 0.08 0.512825 0 0.1 0.512825 0 0 0.524995 0 0.02 0.524995 0 0.04 0.524995 0 0.06 0.524995 0 0.08 0.524995 0 0.1 0.524995 0 0 0.537059 0 0.02 0.537059 0 0.04 0.537059 0 0.06 0.537059 0 0.08 0.537059 0 0.1 0.537059 0 0 0.549014 0 0.02 0.549014 0 0.04 0.549014 0 0.06 0.549014 0 0.08 0.549014 0 0.1 0.549014 0 0 0.560874 0 0.02 0.560874 0 0.04 0.560874 0 0.06 0.560874 0 0.08 0.560874 0 0.1 0.560874 0 0 0.572672 0 0.02 0.572672 0 0.04 0.572672 0 0.06 0.572672 0 0.08 0.572672 0 0.1 0.572672 0 0 0.584438 0 0.02 0.584438 0 0.04 0.584438 0 0.06 0.584438 0 0.08 0.584438 0 0.1 0.584438 0 0 0.596189 0 0.02 0.596189 0 0.04 0.596189 0 0.06 0.596189 0 0.08 0.596189 0 0.1 0.596189 0 0 0.607933 0 0.02 0.607933 0 0.04 0.607933 0 0.06 0.607933 0 0.08 0.607933 0 0.1 0.607933 0 0 0.619674 0 0.02 0.619674 0 0.04 0.619674 0 0.06 0.619674 0 0.08 0.619674 0 0.1 0.619674 0 0 0.631416 0 0.02 0.631416 0 0.04 0.631416 0 0.06 0.631416 0 0.08 0.631416 0 0.1 0.631416 0 0 0.643171 0 0.02 0.643171 0 0.04 0.643171 0 0.06 0.643171 0 0.08 0.643171 0 0.1 0.643171 0 0 0.645783 0 0.02 0.645783 0 0.04 0.645783 0 0.06 0.645783 0 0.08 0.645783 0 0.1 0.645783 0 0 0.648321 0 0.02 0.648321 0 0.04 0.648321 0 0.06 0.648321 0 0.08 0.648321 0 0.1 0.648321 0 0 0.650813 0 0.02 0.650813 0 0.04 0.650813 0 0.06 0.650813 0 0.08 0.650813 0 0.1 0.650813 0 0 0.653273 0 0.02 0.653273 0 0.04 0.653273 0 0.06 0.653273 0 0.08 0.653273 0 0.1 0.653273 0 0 0.655712 0 0.02 0.655712 0 0.04 0.655712 0 0.06 0.655712 0 0.08 0.655712 0 0.1 0.655712 0 0 0.658134 0 0.02 0.658134 0 0.04 0.658134 0 0.06 0.658134 0 0.08 0.658134 0 0.1 0.658134 0 0 0.660543 0 0.02 0.660543 0 0.04 0.660543 0 0.06 0.660543 0 0.08 0.660543 0 0.1 0.660543 0 0 0.662944 0 0.02 0.662944 0 0.04 0.662944 0 0.06 0.662944 0 0.08 0.662944 0 0.1 0.662944 0 0 0.665339 0 0.02 0.665339 0 0.04 0.665339 0 0.06 0.665339 0 0.08 0.665339 0 0.1 0.665339 0 0 0.667729 0 0.02 0.667729 0 0.04 0.667729 0 0.06 0.667729 0 0.08 0.667729 0 0.1 0.667729 0 0 0.670115 0 0.02 0.670115 0 0.04 0.670115 0 0.06 0.670115 0 0.08 0.670115 0 0.1 0.670115 0 0 0.672497 0 0.02 0.672497 0 0.04 0.672497 0 0.06 0.672497 0 0.08 0.672497 0 0.1 0.672497 0 0 0.674875 0 0.02 0.674875 0 0.04 0.674875 0 0.06 0.674875 0 0.08 0.674875 0 0.1 0.674875 0 0 0.67725 0 0.02 0.67725 0 0.04 0.67725 0 0.06 0.67725 0 0.08 0.67725 0 0.1 0.67725 0 0 0.679621 0 0.02 0.679621 0 0.04 0.679621 0 0.06 0.679621 0 0.08 0.679621 0 0.1 0.679621 0 0 0.68199 0 0.02 0.68199 0 0.04 0.68199 0 0.06 0.68199 0 0.08 0.68199 0 0.1 0.68199 0 0 0.684357 0 0.02 0.684357 0 0.04 0.684357 0 0.06 0.684357 0 0.08 0.684357 0 0.1 0.684357 0 0 0.686721 0 0.02 0.686721 0 0.04 0.686721 0 0.06 0.686721 0 0.08 0.686721 0 0.1 0.686721 0 0 0.689084 0 0.02 0.689084 0 0.04 0.689084 0 0.06 0.689084 0 0.08 0.689084 0 0.1 0.689084 0 0 0.691446 0 0.02 0.691446 0 0.04 0.691446 0 0.06
[...]
			<PointData Scalars="VitesseX">
				<DataArray Name="VitesseX" type="Float32" format="ascii">
 0 -2.81566e-15 3.27872e-15 1.25212e-15 -8.56903e-15 0 0 -2.59807e-15 3.43557e-15 5.83469e-16 -8.0464e-15 0 0 -2.01946e-15 3.50281e-15 -3.68229e-16 -6.99535e-15 0 0 -1.25687e-15 3.50152e-15 -1.06134e-15 -4.43498e-15 0 0 -8.09001e-16 4.12384e-15 -1.66408e-15 3.37298e-16 0 0 -8.47523e-16 4.25445e-15 4.08918e-17 4.364e-15 0 0 4.88162e-17 3.65372e-15 2.57392e-15 7.16615e-15 0 0 1.51612e-15 3.73749e-15 3.36615e-15 1.03354e-14 0 0 2.21129e-15 4.01975e-15 5.86844e-15 1.05789e-14 0 0 3.14628e-15 5.18417e-15 7.13027e-15 1.17117e-14 0 0 4.91057e-15 8.1522e-15 5.11426e-15 1.28969e-14 0 0 6.99919e-15 1.12901e-14 4.18872e-15 1.38557e-14 0 0 8.46584e-15 1.49346e-14 3.15113e-15 1.55456e-14 0 0 8.87046e-15 2.00726e-14 1.94841e-15 1.39127e-14 0 0 1.00306e-14 2.07753e-14 6.32881e-15 9.3863e-15 0 0 1.13582e-14 1.73094e-14 9.21331e-15 8.36814e-15 0 0 9.53094e-15 1.82416e-14 6.83751e-15 7.30684e-15 0 0 8.15605e-15 2.00449e-14 8.88356e-15 8.17718e-16 0 0 1.08688e-14 1.53841e-14 1.62052e-14 -9.1433e-15 0 0 1.1554e-14 1.41992e-14 1.48635e-14 -8.20983e-15 0 0 1.04477e-14 1.22235e-14 8.75555e-15 1.65981e-15 0 0 1.30094e-14 2.22578e-15 9.78291e-15 3.85193e-15 0 0 1.09349e-14 2.43956e-16 1.01213e-14 9.8939e-16 0 0 5.25962e-15 4.41533e-15 2.00689e-15 4.53869e-15 0 0 3.68619e-15 5.88648e-15 -1.9438e-15 9.93546e-15 0 0 4.64409e-15 5.1608e-15 3.16332e-16 7.60997e-15 0 0 6.93042e-15 3.56102e-15 3.86942e-15 -3.27911e-15 0 0 5.91045e-15 8.29353e-16 1.27463e-14 -1.03395e-14 0 0 4.49945e-15 -9.2409e-16 1.37015e-14 1.00271e-15 0 0 5.81583e-15 8.39535e-17 1.11995e-14 8.43496e-15 0 0 6.80769e-15 2.23478e-15 6.15907e-15 7.25322e-15 0 0 9.47817e-15 3.17257e-16 4.86346e-15 1.47535e-17 0 0 9.18894e-15 2.6577e-15 3.87982e-15 -1.90731e-15 0 0 2.67303e-15 9.53051e-15 2.06151e-15 9.50043e-15 0 0 -3.63327e-16 1.48265e-14 1.00009e-15 1.83162e-14 0 0 4.84526e-15 1.50762e-14 -1.38314e-15 1.94061e-14 0 0 1.25036e-14 6.07941e-15 7.3795e-15 1.50653e-14 0 0 1.55313e-14 -1.2498e-15 1.51577e-14 1.5667e-14 0 0 1.41216e-14 1.98272e-15 1.21521e-14 1.97643e-14 0 0 1.07443e-14 8.457e-15 1.34061e-14 1.83026e-14 0 0 1.08366e-14 5.00558e-15 1.75913e-14 2.88974e-14 0 0 1.02354e-14 8.61621e-15 9.40878e-15 4.23612e-14 0 0 1.22957e-14 7.44124e-15 1.65577e-14 3.24659e-14 0 0 9.70092e-15 1.33335e-14 2.31676e-14 1.78157e-14 0 0 1.2528e-14 1.77303e-14 2.84684e-14 1.22942e-14 0 0 2.44214e-14 1.47243e-14 4.04457e-14 2.65634e-14 0 0 2.69448e-14 2.83186e-14 4.75649e-14 4.0067e-14 0 0 3.80654e-14 3.09065e-14 5.9019e-14 4.23356e-14 0 0 5.57232e-14 4.00118e-14 5.15956e-14 4.80042e-14 0 0 5.96182e-14 6.91085e-14 4.14206e-14 5.23726e-14 0 0 5.74956e-14 9.11681e-14 4.67426e-14 5.854e-14 0 0 6.90821e-14 9.57778e-14 5.66517e-14 5.40204e-14 0 0 6.40007e-14 8.07276e-14 8.23537e-14 4.8864e-14 0 0 4.98567e-14 7.8741e-14 8.59161e-14 5.8522e-14 0 0 4.24585e-14 8.20838e-14 7.67132e-14 4.73599e-14 0 0 3.10352e-14 6.41184e-14 6.36273e-14 6.24036e-14 0 0 2.82879e-14 3.91155e-14 5.71046e-14 7.4345e-14 0 0 3.83459e-14 3.59193e-14 5.03221e-14 5.35434e-14 0 0 3.54368e-14 5.44577e-14 2.49443e-14 4.86297e-14 0 0 2.14643e-14 3.68864e-14 3.07802e-14 3.28841e-14 0 0 1.59674e-14 7.57893e-15 5.16538e-14 7.82492e-15 0 0 6.52488e-15 -1.01079e-15 6.43363e-14 -1.2503e-14 0 0 1.73547e-15 -4.44764e-16 6.09032e-14 -2.47999e-14 0 0 4.76711e-15 1.97885e-14 3.18291e-14 -2.27287e-14 0 0 1.05908e-14 2.69942e-14 1.07329e-14 -1.43419e-15 0 0 2.49063e-14 1.98846e-14 -7.71072e-15 2.48303e-15 0 0 4.28586e-14 1.509e-14 -3.16501e-14 -3.00977e-15 0 0 2.56721e-14 1.55888e-14 -2.75192e-14 7.00078e-15 0 0 7.31276e-15 3.61162e-14 -2.81901e-14 1.2543e-14 0 0 3.18185e-14 1.43554e-14 -4.18539e-15 -2.46926e-14 0 0 2.64391e-14 -4.03251e-15 -3.95232e-15 -3.11228e-14 0 0 2.33403e-15 3.82792e-15 -2.76097e-15 -2.95794e-14 0 0 -7.57845e-15 1.6551e-14 -5.62225e-15 -2.36882e-14 0 0 -4.49208e-15 2.26557e-14 -2.60614e-14 3.11218e-15 0 0 8.54583e-15 8.29061e-15 -6.4586e-15 -3.37051e-14 0 0 1.80502e-14 -6.04302e-15 -7.52701e-15 -4.5371e-14 0 0 2.3067e-14 -2.20727e-15 -1.3043e-14 -3.10896e-15 0 0 3.48108e-16 2.16153e-14 -7.84377e-15 1.20791e-14 0 0 -1.21489e-15 1.43516e-14 9.05764e-15 -2.40618e-14 0 0 2.23427e-15 2.46678e-14 -2.9689e-15 -2.96454e-14 0 0 -1.40663e-14 3.83857e-14 -1.50855e-14 -2.4288e-14 0 0 -3.80339e-14 1.92871e-14 4.70432e-15 -1.97042e-14 0 0 -2.43684e-14 -2.0983e-15 1.58883e-14 8.51038e-15 0 0 1.10237e-14 -5.17816e-16 4.34862e-15 1.57023e-14 0 0 9.81682e-15 1.15623e-14 -2.85256e-15 -4.25174e-15 0 0 -2.44738e-14 -4.77281e-15 2.56847e-14 -4.93201e-14 0 0 -4.29566e-14 4.87408e-15 1.58146e-14 -4.44858e-14 0 0 -4.24729e-16 -1.26419e-15 -1.57681e-14 1.29602e-14 0 0 -6.84284e-15 2.04238e-15 5.44998e-15 2.35941e-14 0 0 -2.64299e-14 1.60279e-14 2.47828e-14 5.73734e-15 0 0 -7.83387e-15 1.5621e-14 9.67121e-15 1.14937e-14 0 0 9.36328e-15 8.82849e-15 1.59928e-14 5.22166e-15 0 0 8.6969e-15 5.82641e-15 1.47616e-14 2.45442e-15 0 0 -2.44008e-15 1.23032e-14 1.71132e-15 1.92542e-14 0 0 1.13797e-14 -1.2998e-15 2.44358e-14 9.6814e-15 0 0 5.04664e-15 1.15721e-14 2.10732e-14 3.4472e-15 0 0 6.77543e-15 1.23934e-14 7.29308e-15 1.81866e-14 0 0 1.01366e-14 9.77706e-16 8.56469e-15 2.08785e-14 0 0 1.63578e-15 2.64605e-15 9.07504e-15 2.06039e-14 0 0 4.68464e-15 7.47471e-15 -3.75462e-15 2.13497e-14 0 0 5.49391e-15 2.26423e-14 -4.0713e-15 1.7752e-14 0 0 -7.9169e-15 5.56409e-14 -6.67e-15 2.68393e-14 0 0 1.23613e-14 2.62057e-14 2.9603e-14 2.8114e-14 0 0 1.10552e-14 3.64023e-14 7.69913e-15 4.73535e-14 0 0 3.078e-14 1.39909e-14 -7.0375e-15 8.85112e-15 0 0 2.665e-14 -9.99283e-15 5.36634e-14 -1.68837e-14 0 0 5.55143e-15 2.82054e-14 5.36341e-14 -3.79602e-14 0 0 1.33924e-14 6.14175e-14 5.26339e-15 -3.41484e-14 0 0 1.49106e-14 3.39976e-14 3.14826e-15 2.28661e-15 0 0 7.58631e-15 1.31034e-14 -3.02472e-15 -2.88432e-14 0 0 -5.68039e-15 -6.46405e-15 -2.1043e-14 -2.94014e-14 0 0 -1.13333e-14 -4.30407e-14 3.50485e-15 -4.5006e-14 0 0 -2.26854e-14 -2.01818e-14 -2.10616e-14 -7.12956e-14 0 0 -3.35652e-15 -4.91414e-14 -2.59993e-14 -6.99218e-14 0 0 -3.68208e-15 -7.41687e-14 -2.57149e-14 -6.62941e-14 0 0 -1.83557e-14 -3.99836e-14 -4.51136e-14 -5.05842e-14 0 0 -5.35794e-15 -3.07026e-14 -6.38762e-14 -2.86959e-14 0 0 1.81002e-14 -6.76848e-14 -6.48564e-14 -2.62494e-14 0 0 1.05901e-14 -6.47424e-14 -6.69135e-14 -2.44379e-14 0 0 -3.86941e-16 -4.16739e-14 -8.14837e-14 3.66833e-16 0 0 1.00771e-14 -5.34832e-14 -5.22183e-14 -2.44175e-14 0 0 -5.8404e-15 -3.1032e-14 -6.94984e-14 -4.97179e-14 0 0 -5.94801e-15 -1.08307e-14 -1.05856e-13 -5.03542e-14 0 0 -1.05717e-14 1.86335e-14 -1.32764e-13 -3.89638e-14 0 0 -3.43967e-14 3.02912e-14 -1.29925e-13 -8.29831e-14 0 0 -1.82903e-14 -2.49224e-15 -5.22844e-14 -9.2963e-14 0 0 -1.24202e-14 -2.11044e-14 -2.01299e-14 -1.14006e-13 0 0 -1.0554e-14 -3.45001e-14 -2.68263e-14 -9.2479e-14 0 0 1.16807e-14 -6.87532e-14 4.37297e-15 -7.23583e-14 0 0 2.56884e-14 -5.08664e-14 2.93318e-14 -5.75848e-14 0 0 3.20264e-14 -2.48025e-14 5.89896e-15 1.79824e-16 0 0 1.94131e-14 -1.08012e-14 2.52813e-14 -2.26219e-15 0 0 -8.97557e-15 4.10393e-14 5.19108e-14 3.4234e-14 0 0 -3.88748e-14 1.07687e-13 -6.46631e-15 7.7017e-14 0 0 -3.31563e-14 1.0371e-13 6.61874e-17 1.51464e-13 0 0 -7.52899e-15 6.34585e-14 5.77527e-14 1.7842e-13 0 0 3.80395e-14 1.83371e-14 1.03635e-13 1.85208e-13 0 0 5.4066e-14 3.14019e-14 9.75952e-14 1.94728e-13 0 0 5.16343e-14 6.32916e-14 7.00272e-14 2.08822e-13 0 0 2.5682e-14 5.12287e-14 9.26998e-14 2.09027e-13 0 0 -3.87912e-14 8.7369e-14 1.11135e-13 1.32214e-13 0 0 -4.3828e-14 8.73905e-14 1.19225e-13 6.10999e-14 0 0 1.93759e-14 6.32e-15 2.16616e-13 -6.65441e-14 0 0 5.95749e-14 -3.74043e-14 2.67929e-13 -1.97484e-13 0 0 5.96533e-14 1.45292e-14 1.6857e-13 -1.58465e-13 0 0 3.36045e-14 5.72155e-14 6.68922e-14 1.04117e-14 0 0 4.03692e-15 6.44349e-14 -8.14838e-15 1.72067e-13 0 0 1.89037e-14 -1.32186e-14 4.87138e-14 1.58501e-13 0 0 3.88546e-14 -4.99158e-14 4.34819e-14 1.37376e-13 0 0 5.89883e-14 -3.91173e-14 -4.37113e-15 1.09538e-13 0 0 9.44369e-14 -4.12106e-14 4.48116e-14 3.50157e-14 0 0 9.71745e-14 -4.90365e-14 7.03143e-14 9.3295e-14 0 0 6.87344e-14 -5.49694e-15 8.01729e-14 1.48729e-13 0 0 6.00311e-14 6.98684e-14 7.59191e-14 1.44712e-13 0 0 6.23389e-14 8.40681e-14 4.44532e-14 2.16443e-13 0 0 5.5285e-14 1.44406e-13 7.14743e-14 1.56847e-13 0 0 5.25771e-14 1.58345e-13 1.18225e-13 6.37928e-14 0 0 9.22733e-14 1.09638e-13 1.5508e-13 6.7441e-14 0 0 1.08717e-13 1.38172e-13 1.33232e-13 1.22846e-13 0 0 9.84648e-14 1.65305e-13 1.63285e-13 1.04358e-13 0 0 1.12322e-13 1.69955e-13 1.84838e-13 1.12161e-13 0 0 1.26353e-13 1.93627e-13 1.50274e-13 1.66661e-13 0 0 1.16095e-13 2.11849e-13 1.69173e-13 1.4227e-13 0 0 1.29949e-13 2.08791e-13 1.86061e-13 1.41909e-13 0 0 1.53939e-13 2.03608e-13 2.03593e-13 1.23193e-13 0 0 1.52033e-13 2.17685e-13 2.17689e-13 8.30266e-14 0 0 1.53035e-13 2.15916e-13 2.37433e-13 6.23705e-14 0 0 1.58488e-13 2.25804e-13 2.37522e-13 8.0007e-14 0 0 1.67807e-13 2.3213e-13 2.3624e-13 9.60281e-14 0 0 1.66608e-13 2.54113e-13 1.89718e-13 1.35244e-13 0 0 1.76995e-13 2.56022e-13 1.81286e-13 1.42357e-13 0 0 1.78941e-13 2.60136e-13 1.94678e-13 1.71696e-13 0 0 1.63111e-13 2.66795e-13 1.78093e-13 1.87116e-13 0 0 1.68774e-13 2.12911e-13 2.179e-13 1.31487e-13 0 0 1.76243e-13 1.8241e-13 2.47982e-13 8.90224e-14 0 0 1.73531e-13 1.71418e-13 2.43924e-13 6.92229e-14 0 0 1.48302e-13 1.63822e-13 2.34266e-13 6.45207e-14 0 0 1.31328e-13 1.59714e-13 2.37535e-13 5.347e-14 0 0 1.35303e-13 1.78415e-13 2.12865e-13 2.91921e-14 0 0 1.35365e-13 1.67734e-13 2.09318e-13 3.63252e-14 0 0 1.09093e-13 1.46219e-13 2.28582e-13 5.85141e-14 0 0 7.72759e-14 1.66173e-13 1.75876e-13 3.89853e-14 0 0 3.32303e-14 1.94506e-13 9.50525e-14 6.01771e-14 0 0 2.40636e-14 1.42676e-13 1.28484e-13 5.52273e-14 0 0 3.87711e-14 6.94619e-14 1.99034e-13 6.52384e-15 0 0 -1.80125e-14 1.25271e-13 1.45433e-13 2.58719e-14 0 0 -5.94676e-15 1.19979e-13 9.94875e-14 5.44287e-14 0 0 4.66323e-14 5.83031e-14 8.66434e-14 7.67003e-14 0 0 3.01226e-14 5.68025e-14 7.30187e-14 9.42985e-14 0 0 1.65957e-14 8.32779e-14 5.50353e-14 7.37625e-14 0 0 4.91762e-14 8.34513e-14 2.31457e-14 5.27169e-14 0 0 8.05766e-14 3.8718e-14 1.89444e-14 6.15832e-14 0 0 5.19173e-14 3.81687e-14 3.63653e-14 7.63169e-14 0 0 4.17576e-15 6.8077e-14 2.94437e-14 1.10264e-13 0 0 -2.24546e-14 8.48425e-14 4.25979e-14 1.4974e-13 0 0 -1.12868e-14 6.13554e-14 9.17138e-14 1.49431e-13 0 0 -2.27498e-15 6.4739e-14 9.37702e-14 1.44201e-13 0 0 2.12396e-14 6.65304e-14 1.08184e-13 1.10962e-13 0 0 2.6813e-14 7.20961e-14 8.96509e-14 1.40002e-13 0 0 2.41766e-14 6.41913e-14 7.85927e-14 1.94073e-13 0 0 4.5761e-14 2.38568e-14 1.0965e-13 1.92574e-13 0
				</DataArray>
				<DataArray Name="VitesseY" type="Float32" format="ascii">