<?xml version="1.0"?>
<VTKFile type="PolyData">
	<PolyData>
		<Piece NumberOfPoints="1206" NumberOfPolys="1000">
			<Points>
				<DataArray type="Float32" NumberOfComponents="3" format="ascii">
 0 0 0 0.02 0 0 0.04 0 0 0.06 0 0 0.08 0 0 0.1 0 0 0 0.005 0 0.02 0.005 0 0.04 0.005 0 0.06 0.005 0 0.08 0.005 0 0.1 0.005 0 0 0.01 0 0.02 0.01 0 0.04 0.01 0 0.06 0.01 0 0.08 0.01 0 0.1 0.01 0 0 0.015 0 0.02 0.015 0 0.04 0.015 0 0.06 0.015 0 0.08 0.015 0 0.1 0.015 0 0 0.02 0 0.02 0.02 0 0.04 0.02 0 0.06 0.02 0 0.08 0.02 0 0.1 0.02 0 0 0.025 0 0.02 0.025 0 0.04 0.025 0 0.06 0.025 0 0.08 0.025 0 0.1 0.025 0 0 0.03 0 0.02 0.03 0 0.04 0.03 0 0.06 0.03 0 0.08 0.03 0 0.1 0.03 0 0 0.035 0 0.02 0.035 0 0.04 0.035 0 0.06 0.035 0 0.08 0.035 0 0.1 0.035 0 0 0.04 0 0.02 0.04 0 0.04 0.04 0 0.06 0.04 0 0.08 0.04 0 0.1 0.04 0 0 0.045 0 0.02 0.045 0 0.04 0.045 0 0.06 0.045 0 0.08 0.045 0 0.1 0.045 0 0 0.05 0 0.02 0.05 0 0.04 0.05 0 0.06 0.05 0 0.08 0.05 0 0.1 0.05 0 0 0.055 0 0.02 0.055 0 0.04 0.055 0 0.06 0.055 0 0.08 0.055 0 0.1 0.055 0 0 0.06 0 0.02 0.06 0 0.04 0.06 0 0.06 0.06 0 0.08 0.06 0 0.1 0.06 0 0 0.065 0 0.02 0.065 0 0.04 0.065 0 0.06 0.065 0 0.08 0.065 0 0.1 0.065 0 0 0.07 0 0.02 0.07 0 0.04 0.07 0 0.06 0.07 0 0.08 0.07 0 0.1 0.07 0 0 0.075 0 0.02 0.075 0 0.04 0.075 0 0.06 0.075 0 0.08 0.075 0 0.1 0.075 0 0 0.08 0 0.02 0.08 0 0.04 0.08 0 0.06 0.08 0 0.08 0.08 0 0.1 0.08 0 0 0.085 0 0.02 0.085 0 0.04 0.085 0 0.06 0.085 0 0.08 0.085 0 0.1 0.085 0 0 0.09 0 0.02 0.09 0 0.04 0.09 0 0.06 0.09 0 0.08 0.09 0 0.1 0.09 0 0 0.095 0 0.02 0.095 0 0.04 0.095 0 0.06 0.095 0 0.08 0.095 0 0.1 0.095 0 0 0.1 0 0.02 0.1 0 0.04 0.1 0 0.06 0.1 0 0.08 0.1 0 0.1 0.1 0 0 0.105 0 0.02 0.105 0 0.04 0.105 0 0.06 0.105 0 0.08 0.105 0 0.1 0.105 0 0 0.11 0 0.02 0.11 0 0.04 0.11 0 0.06 0.11 0 0.08 0.11 0 0.1 0.11 0 0 0.115 0 0.02 0.115 0 0.04 0.115 0 0.06 0.115 0 0.08 0.115 0 0.1 0.115 0 0 0.12 0 0.02 0.12 0 0.04 0.12 0 0.06 0.12 0 0.08 0.12 0 0.1 0.12 0 0 0.125 0 0.02 0.125 0 0.04 0.125 0 0.06 0.125 0 0.08 0.125 0 0.1 0.125 0 0 0.13 0 0.02 0.13 0 0.04 0.13 0 0.06 0.13 0 0.08 0.13 0 0.1 0.13 0 0 0.135 0 0.02 0.135 0 0.04 0.135 0 0.06 0.135 0 0.08 0.135 0 0.1 0.135 0 0 0.14 0 0.02 0.14 0 0.04 0.14 0 0.06 0.14 0 0.08 0.14 0 0.1 0.14 0 0 0.145 0 0.02 0.145 0 0.04 0.145 0 0.06 0.145 0 0.08 0.145 0 0.1 0.145 0 0 0.15 0 0.02 0.15 0 0.04 0.15 0 0.06 0.15 0 0.08 0.15 0 0.1 0.15 0 0 0.155 0 0.02 0.155 0 0.04 0.155 0 0.06 0.155 0 0.08 0.155 0 0.1 0.155 0 0 0.16 0 0.02 0.16 0 0.04 0.16 0 0.06 0.16 0 0.08 0.16 0 0.1 0.16 0 0 0.165 0 0.02 0.165 0 0.04 0.165 0 0.06 0.165 0 0.08 0.165 0 0.1 0.165 0 0 0.17 0 0.02 0.17 0 0.04 0.17 0 0.06 0.17 0 0.08 0.17 0 0.1 0.17 0 0 0.175 0 0.02 0.175 0 0.04 0.175 0 0.06 0.175 0 0.08 0.175 0 0.1 0.175 0 0 0.18 0 0.02 0.18 0 0.04 0.18 0 0.06 0.18 0 0.08 0.18 0 0.1 0.18 0 0 0.185 0 0.02 0.185 0 0.04 0.185 0 0.06 0.185 0 0.08 0.185 0 0.1 0.185 0 0 0.19 0 0.02 0.19 0 0.04 0.19 0 0.06 0.19 0 0.08 0.19 0 0.1 0.19 0 0 0.195 0 0.02 0.195 0 0.04 0.195 0 0.06 0.195 0 0.08 0.195 0 0.1 0.195 0 0 0.2 0 0.02 0.2 0 0.04 0.2 0 0.06 0.2 0 0.08 0.2 0 0.1 0.2 0 0 0.205 0 0.02 0.205 0 0.04 0.205 0 0.06 0.205 0 0.08 0.205 0 0.1 0.205 0 0 0.21 0 0.02 0.21 0 0.04 0.21 0 0.06 0.21 0 0.08 0.21 0 0.1 0.21 0 0 0.215 0 0.02 0.215 0 0.04 0.215 0 0.06 0.215 0 0.08 0.215 0 0.1 0.215 0 0 0.22 0 0.02 0.22 0 0.04 0.22 0 0.06 0.22 0 0.08 0.22 0 0.1 0.22 0 0 0.225 0 0.02 0.225 0 0.04 0.225 0 0.06 0.225 0 0.08 0.225 0 0.1 0.225 0 0 0.23 0 0.02 0.23 0 0.04 0.23 0 0.06 0.23 0 0.08 0.23 0 0.1 0.23 0 0 0.235 0 0.02 0.235 0 0.04 0.235 0 0.06 0.235 0 0.08 0.235 0 0.1 0.235 0 0 0.24 0 0.02 0.24 0 0.04 0.24 0 0.06 0.24 0 0.08 0.24 0 0.1 0.24 0 0 0.245 0 0.02 0.245 0 0.04 0.245 0 0.06 0.245 0 0.08 0.245 0 0.1 0.245 0 0 0.25 0 0.02 0.25 0 0.04 0.25 0 0.06 0.25 0 0.08 0.25 0 0.1 0.25 0 0 0.255 0 0.02 0.255 0 0.04 0.255 0 0.06 0.255 0 0.08 0.255 0 0.1 0.255 0 0 0.260001 0 0.02 0.260001 0 0.04 0.260001 0 0.06 0.260001 0 0.08 0.260001 0 0.1 0.260001 0 0 0.265002 0 0.02 0.265002 0 0.04 0.265002 0 0.06 0.265002 0 0.08 0.265002 0 0.1 0.265002 0 0 0.270005 0 0.02 0.270005 0 0.04 0.270005 0 0.06 0.270005 0 0.08 0.270005 0 0.1 0.270005 0 0 0.275014 0 0.02 0.275014 0 0.04 0.275014 0 0.06 0.275014 0 0.08 0.275014 0 0.1 0.275014 0 0 0.280034 0 0.02 0.280034 0 0.04 0.280034 0 0.06 0.280034 0 0.08 0.280034 0 0.1 0.280034 0 0 0.285076 0 0.02 0.285076 0 0.04 0.285076 0 0.06 0.285076 0 0.08 0.285076 0 0.1 0.285076 0 0 0.290153 0 0.02 0.290153 0 0.04 0.290153 0 0.06 0.290153 0 0.08 0.290153 0 0.1 0.290153 0 0 0.295283 0 0.02 0.295283 0 0.04 0.295283 0 0.06 0.295283 0 0.08 0.295283 0 0.1 0.295283 0 0 0.300483 0 0.02 0.300483 0 0.04 0.300483 0 0.06 0.300483 0 0.08 0.300483 0 0.1 0.300483 0 0 0.305768 0 0.02 0.305768 0 0.04 0.305768 0 0.06 0.305768 0 0.08 0.305768 0 0.1 0.305768 0 0 0.311149 0 0.02 0.311149 0 0.04 0.311149 0 0.06 0.311149 0 0.08 0.311149 0 0.1 0.311149 0 0 0.316638 0 0.02 0.316638 0 0.04 0.316638 0 0.06 0.316638 0 0.08 0.316638 0 0.1 0.316638 0 0 0.322242 0 0.02 0.322242 0 0.04 0.322242 0 0.06 0.322242 0 0.08 0.322242 0 0.1 0.322242 0 0 0.327971 0 0.02 0.327971 0 0.04 0.327971 0 0.06 0.327971 0 0.08 0.327971 0 0.1 0.327971 0 0 0.33383 0 0.02 0.33383 0 0.04 0.33383 0 0.06 0.33383 0 0.08 0.33383 0 0.1 0.33383 0 0 0.339829 0 0.02 0.339829 0 0.04 0.339829 0 0.06 0.339829 0 0.08 0.339829 0 0.1 0.339829 0 0 0.345976 0 0.02 0.345976 0 0.04 0.345976 0 0.06 0.345976 0 0.08 0.345976 0 0.1 0.345976 0 0 0.352279 0 0.02 0.352279 0 0.04 0.352279 0 0.06 0.352279 0 0.08 0.352279 0 0.1 0.352279 0 0 0.358749 0 0.02 0.358749 0 0.04 0.358749 0 0.06 0.358749 0 0.08 0.358749 0 0.1 0.358749 0 0 0.365396 0 0.02 0.365396 0 0.04 0.365396 0 0.06 0.365396 0 0.08 0.365396 0 0.1 0.365396 0 0 0.372231 0 0.02 0.372231 0 0.04 0.372231 0 0.06 0.372231 0 0.08 0.372231 0 0.1 0.372231 0 0 0.379266 0 0.02 0.379266 0 0.04 0.379266 0 0.06 0.379266 0 0.08 0.379266 0 0.1 0.379266 0 0 0.386516 0 0.02 0.386516 0 0.04 0.386516 0 0.06 0.386516 0 0.08 0.386516 0 0.1 0.386516 0 0 0.393995 0 0.02 0.393995 0 0.04 0.393995 0 0.06 0.393995 0 0.08 0.393995 0 0.1 0.393995 0 0 0.401719 0 0.02 0.401719 0 0.04 0.401719 0 0.06 0.401719 0 0.08 0.401719 0 0.1 0.401719 0 0 0.409708 0 0.02 0.409708 0 0.04 0.409708 0 0.06 0.409708 0 0.08 0.409708 0 0.1 0.409708 0 0 0.417981 0 0.02 0.417981 0 0.04 0.417981 0 0.06 0.417981 0 0.08 0.417981 0 0.1 0.417981 0 0 0.426561 0 0.02 0.426561 0 0.04 0.426561 0 0.06 0.426561 0 0.08 0.426561 0 0.1 0.426561 0 0 0.435473 0 0.02 0.435473 0 0.04 0.435473 0 0.06 0.435473 0 0.08 0.435473 0 0.1 0.435473 0 0 0.444746 0 0.02 0.444746 0 0.04 0.444746 0 0.06 0.444746 0 0.08 0.444746 0 0.1 0.444746 0 0 0.454411 0 0.02 0.454411 0 0.04 0.454411 0 0.06 0.454411 0 0.08 0.454411 0 0.1 0.454411 0 0 0.464502 0 0.02 0.464502 0 0.04 0.464502 0 0.06 0.464502 0 0.08 0.464502 0 0.1 0.464502 0 0 0.475053 0 0.02 0.475053 0 0.04 0.475053 0 0.06 0.475053 0 0.08 0.475053 0 0.1 0.475053 0 0 0.486098 0 0.02 0.486098 0 0.04 0.486098 0 0.06 0.486098 0 0.08 0.486098 0 0.1 0.486098 0 0 0.497655 0 0.02 0.497655 0 0.04 0.497655 0 0.06 0.497655 0 0.08 0.497655 0 0.1 0.497655 0 0 0.509687 0 0.02 0.509687 0 0.04 0.509687 0 0.06 0.509687 0 0.08 0.509687 0 0.1 0.509687 0 0 0.522 0 0.02 0.522 0 0.04 0.522 0 0.06 0.522 0 0.08 0.522 0 0.1 0.522 0 0 0.534266 0 0.02 0.534266 0 0.04 0.534266 0 0.06 0.534266 0 0.08 0.534266 0 0.1 0.534266 0 0 0.546421 0 0.02 0.546421 0 0.04 0.546421 0 0.06 0.546421 0 0.08 0.546421 0 0.1 0.546421 0 0 0.558456 0 0.02 0.558456 0 0.04 0.558456 0 0.06 0.558456 0 0.08 0.558456 0 0.1 0.558456 0 0 0.570395 0 0.02 0.570395 0 0.04 0.570395 0 0.06 0.570395 0 0.08 0.570395 0 0.1 0.570395 0 0 0.58227 0 0.02 0.58227 0 0.04 0.58227 0 0.06 0.58227 0 0.08 0.58227 0 0.1 0.58227 0 0 0.594108 0 0.02 0.594108 0 0.04 0.594108 0 0.06 0.594108 0 0.08 0.594108 0 0.1 0.594108 0 0 0.60593 0 0.02 0.60593 0 0.04 0.60593 0 0.06 0.60593 0 0.08 0.60593 0 0.1 0.60593 0 0 0.617745 0 0.02 0.617745 0 0.04 0.617745 0 0.06 0.617745 0 0.08 0.617745 0 0.1 0.617745 0 0 0.629556 0 0.02 0.629556 0 0.04 0.629556 0 0.06 0.629556 0 0.08 0.629556 0 0.1 0.629556 0 0 0.641366 0 0.02 0.641366 0 0.04 0.641366 0 0.06 0.641366 0 0.08 0.641366 0 0.1 0.641366 0 0 0.653174 0 0.02 0.653174 0 0.04 0.653174 0 0.06 0.653174 0 0.08 0.653174 0 0.1 0.653174 0 0 0.664985 0 0.02 0.664985 0 0.04 0.664985 0 0.06 0.664985 0 0.08 0.664985 0 0.1 0.664985 0 0 0.667266 0 0.02 0.667266 0 0.04 0.667266 0 0.06 0.667266 0 0.08 0.667266 0 0.1 0.667266 0 0 0.669548 0 0.02 0.669548 0 0.04 0.669548 0 0.06 0.669548 0 0.08 0.669548 0 0.1 0.669548 0 0 0.67183 0 0.02 0.67183 0 0.04 0.67183 0 0.06 0.67183 0 0.08 0.67183 0 0.1 0.67183 0 0 0.674111 0 0.02 0.674111 0 0.04 0.674111 0 0.06 0.674111 0 0.08 0.674111 0 0.1 0.674111 0 0 0.676391 0 0.02 0.676391 0 0.04 0.676391 0 0.06 0.676391 0 0.08 0.676391 0 0.1 0.676391 0 0 0.678671 0 0.02 0.678671 0 0.04 0.678671 0 0.06 0.678671 0 0.08 0.678671 0 0.1 0.678671 0 0 0.680948 0 0.02 0.680948 0 0.04 0.680948 0 0.06 0.680948 0 0.08 0.680948 0 0.1 0.680948 0 0 0.683225 0 0.02 0.683225 0 0.04 0.683225 0 0.06 0.683225 0 0.08 0.683225 0 0.1 0.683225 0 0 0.685504 0 0.02 0.685504 0 0.04 0.685504 0 0.06 0.685504 0 0.08 0.685504 0 0.1 0.685504 0 0 0.687779 0 0.02 0.687779 0 0.04 0.687779 0 0.06 0.687779 0 0.08 0.687779 0 0.1 0.687779 0 0 0.690056 0 0.02 0.690056 0 0.04 0.690056 0 0.06 0.690056 0 0.08 0.690056 0 0.1 0.690056 0 0 0.692335 0 0.02 0.692335 0 0.04 0.692335 0 0.06 0.692335 0 0.08 0.692335 0 0.1 0.692335 0 0 0.694614 0 0.02 0.694614 0 0.04 0.694614 0 0.06 0.694614 0 0.08 0.694614 0 0.1 0.694614 0 0 0.696892 0 0.02 0.696892 0 0.04 0.696892 0 0.06 0.696892 0 0.08 0.696892 0 0.1 0.696892 0 0 0.699168 0 0.02 0.699168 0 0.04 0.699168 0 0.06 0.699168 0 0.08 0.699168 0 0.1 0.699168 0 0 0.701444 0 0.02 0.701444 0 0.04 0.701444 0 0.06 0.701444 0 0.08 0.701444 0 0.1 0.701444 0 0 0.703723 0 0.02 0.703723 0 0.04 0.703723 0 0.06 0.703723 0 0.08 0.703723 0 0.1 0.703723 0 0 0.706001 0 0.02 0.706001 0 0.04 0.706001 0 0.06 0.706001 0 0.08 0.706001 0 0.1 0.706001 0 0 0.708277 0 0.02 0.7
[...]
			<PointData Scalars="VitesseX">
				<DataArray Name="VitesseX" type="Float32" format="ascii">
 0 2.2466e-15 6.02169e-15 5.63235e-15 5.03754e-15 0 0 2.47929e-15 6.3561e-15 3.8423e-15 5.97956e-15 0 0 2.70745e-15 6.12501e-15 1.07581e-15 6.72739e-15 0 0 1.913e-15 6.35619e-15 -5.92467e-16 5.42991e-15 0 0 2.32729e-15 3.42187e-15 3.2349e-15 4.1359e-16 0 0 2.91042e-15 4.71383e-16 6.6916e-15 -2.38294e-15 0 0 1.00547e-15 1.52157e-15 4.80335e-15 -3.94931e-16 0 0 1.1127e-15 1.01019e-16 3.72224e-15 1.14709e-15 0 0 2.14406e-15 -2.6378e-15 5.28195e-15 2.58644e-15 0 0 8.83644e-16 -4.75895e-16 3.66813e-15 4.54924e-15 0 0 2.51443e-15 1.07017e-15 2.5712e-15 5.06041e-15 0 0 3.19005e-15 9.3072e-16 4.22577e-15 3.8772e-15 0 0 -1.13427e-15 4.74027e-15 3.79561e-15 1.15001e-15 0 0 -8.54782e-16 4.59679e-15 5.77382e-15 -4.14703e-15 0 0 -6.43879e-16 5.12591e-15 6.76805e-15 -9.63444e-15 0 0 -2.10928e-15 6.24689e-15 6.21173e-15 -9.06041e-15 0 0 -2.13856e-16 5.90741e-15 2.65103e-15 -3.21007e-15 0 0 6.73156e-16 4.11602e-15 1.04306e-15 2.74736e-15 0 0 7.83611e-16 -1.07983e-16 6.9548e-15 -2.11859e-15 0 0 8.35886e-16 -3.56638e-15 1.10045e-14 -9.50818e-15 0 0 6.20883e-15 -1.15164e-14 1.22806e-14 -6.87672e-15 0 0 7.33157e-15 -7.42219e-15 5.02969e-15 -4.55615e-15 0 0 -7.05268e-16 8.29725e-15 -1.29615e-14 1.65765e-15 0 0 -2.70756e-15 6.84482e-15 -1.65359e-14 5.25469e-15 0 0 1.06387e-15 -4.45287e-15 -7.81519e-15 3.74232e-15 0 0 1.29271e-15 -1.19973e-14 3.26569e-15 2.32303e-15 0 0 2.32845e-16 -1.34307e-14 2.89367e-15 2.60063e-17 0 0 1.79007e-15 -8.27405e-15 -7.11235e-15 -1.31038e-15 0 0 7.80004e-16 2.63154e-15 -1.23981e-14 -8.41171e-16 0 0 -2.32874e-15 9.70573e-15 -1.00309e-14 -6.53786e-15 0 0 -3.77099e-15 9.356e-15 -1.46616e-14 1.70911e-15 0 0 -2.63309e-15 7.24061e-15 -1.4809e-14 9.1765e-15 0 0 3.87145e-15 -3.49281e-15 3.76964e-15 -3.8236e-15 0 0 3.91646e-15 1.16525e-15 -3.3719e-15 2.29439e-15 0 0 1.03778e-15 1.48336e-14 -1.91407e-14 1.38895e-14 0 0 9.34342e-15 5.05402e-15 -3.49071e-15 -2.36586e-15 0 0 8.27721e-15 5.27816e-16 9.90439e-15 -1.5582e-14 0 0 2.13271e-15 8.65891e-17 1.30825e-14 -1.38393e-15 0 0 2.52386e-15 -4.00749e-15 2.5213e-14 3.74138e-15 0 0 3.98467e-15 3.69375e-15 8.49954e-15 1.66676e-14 0 0 3.91157e-16 1.33954e-14 -1.19716e-14 2.78479e-14 0 0 3.01185e-15 1.05507e-15 -4.92247e-15 1.42254e-14 0 0 -5.97963e-15 -7.1783e-15 -3.66808e-15 -1.05947e-14 0 0 -2.05897e-14 -1.05703e-14 -2.92157e-14 -1.63571e-15 0 0 -1.61186e-14 -1.83144e-14 -5.08132e-14 2.26121e-14 0 0 -1.94645e-15 -2.73025e-14 -4.14458e-14 2.92046e-14 0 0 -1.26985e-14 -2.87788e-14 -3.67364e-14 3.0682e-14 0 0 -4.99453e-14 -1.13409e-14 -3.60995e-14 1.38695e-14 0 0 -4.08705e-14 -1.81157e-14 -4.73216e-14 1.09271e-14 0 0 -2.03054e-14 -4.1437e-14 -5.96809e-14 5.57131e-15 0 0 -4.31996e-15 -3.0879e-14 -6.71456e-14 -7.4112e-15 0 0 1.41563e-14 6.62018e-15 -8.08281e-14 -4.69341e-15 0 0 1.41598e-14 2.46916e-14 -6.28374e-14 -2.45819e-14 0 0 9.18493e-15 1.75325e-14 -3.72643e-14 -3.82454e-14 0 0 -8.42146e-15 -1.18023e-14 -1.13966e-14 -2.1151e-14 0 0 -1.98418e-14 -3.56363e-14 3.06975e-14 -6.65374e-15 0 0 -1.98373e-14 -2.29932e-14 3.67589e-14 -5.5782e-15 0 0 -1.5066e-14 6.99078e-16 -5.94953e-15 -1.24947e-14 0 0 7.12461e-15 -1.70109e-14 -7.58142e-15 -7.19311e-15 0 0 2.27678e-14 -2.40463e-14 9.41892e-15 -7.64837e-15 0 0 -5.5171e-15 -3.32642e-15 -9.0867e-15 9.39311e-15 0 0 -4.48869e-15 -2.40107e-14 -9.50701e-15 3.75067e-14 0 0 1.67984e-14 -4.76497e-15 -7.65005e-15 3.55577e-14 0 0 1.94584e-15 2.89862e-14 -1.3913e-14 2.89353e-14 0 0 -1.1393e-14 1.92625e-14 6.36449e-16 2.16574e-14 0 0 -3.17629e-14 1.87319e-14 1.51765e-14 -6.01898e-16 0 0 -1.01787e-15 9.12204e-15 -1.2255e-14 1.8139e-14 0 0 4.1799e-14 3.00583e-15 -4.5672e-14 4.09432e-14 0 0 3.83123e-14 -3.94603e-15 -3.48353e-14 1.66114e-14 0 0 2.27371e-14 -2.14093e-14 -5.92422e-15 2.11089e-15 0 0 4.69492e-15 -2.53228e-14 3.52378e-14 -6.21459e-15 0 0 -1.05492e-14 -1.36002e-14 4.29036e-14 -1.86819e-14 0 0 2.99098e-16 5.78791e-15 2.65861e-14 -1.98935e-14 0 0 1.302e-14 2.91576e-14 9.85882e-15 4.38653e-15 0 0 2.03017e-14 -9.89988e-15 2.375e-14 -7.52159e-15 0 0 2.83027e-14 -1.5305e-14 1.30935e-14 1.91769e-14 0 0 1.57826e-14 6.28683e-15 -4.15553e-15 1.08642e-14 0 0 3.91853e-14 -2.55934e-14 1.54301e-15 -2.30771e-14 0 0 2.70917e-14 -1.52732e-14 -4.21972e-15 1.4378e-14 0 0 -9.28719e-15 1.35827e-14 6.70514e-15 1.73543e-14 0 0 -7.60481e-17 8.83138e-15 9.40096e-15 3.10787e-14 0 0 -3.25649e-15 1.58279e-14 2.97311e-15 2.97472e-14 0 0 3.32438e-15 3.12754e-14 2.81414e-15 -1.77692e-15 0 0 3.1886e-15 1.4544e-14 3.15798e-14 -1.95978e-14 0 0 -7.8883e-15 1.07056e-14 4.23971e-14 -3.15094e-14 0 0 -2.67615e-14 7.53013e-15 2.31063e-14 -2.29812e-14 0 0 -2.85437e-14 8.85228e-16 1.79087e-15 2.90579e-14 0 0 2.85977e-14 -6.6968e-15 3.1451e-15 4.3448e-14 0 0 3.01677e-14 -4.01705e-15 -9.35054e-15 6.44942e-16 0 0 -1.0778e-14 -1.21998e-14 -4.70477e-14 -1.48054e-14 0 0 -7.75732e-15 -4.41028e-14 -5.44662e-14 -3.16577e-14 0 0 -1.26727e-14 -5.0318e-14 -6.60792e-14 -4.07989e-14 0 0 -3.01855e-14 -2.87015e-14 -6.89032e-14 -1.23565e-14 0 0 -9.38103e-15 7.79928e-15 -8.49156e-15 -1.04294e-14 0 0 2.86524e-14 3.44393e-14 5.15954e-14 2.70268e-14 0 0 5.25177e-14 8.23294e-14 8.69796e-14 6.4511e-14 0 0 7.74889e-14 1.25411e-13 1.07934e-13 6.33934e-14 0 0 9.15581e-14 1.24902e-13 1.21731e-13 7.80892e-14 0 0 7.74787e-14 1.35381e-13 1.18455e-13 7.59747e-14 0 0 5.72449e-14 1.0765e-13 9.64048e-14 4.99645e-14 0 0 5.0978e-14 6.36544e-14 5.69241e-14 3.86645e-14 0 0 1.34222e-14 -1.0988e-14 2.16292e-14 -8.36615e-15 0 0 -2.18877e-14 3.02235e-14 -5.74726e-14 4.15114e-14 0 0 -2.97581e-14 -1.08567e-14 -1.20804e-13 -2.86517e-15 0 0 -5.93079e-14 -6.4774e-14 -1.89554e-13 -9.47985e-15 0 0 -1.0034e-13 -9.36395e-14 -1.91478e-13 4.99421e-15 0 0 -1.04268e-13 -7.66659e-14 -1.49591e-13 -4.53523e-14 0 0 3.19453e-14 1.27927e-13 5.72768e-14 7.27477e-14 0 0 2.47589e-13 5.04179e-13 4.51519e-13 2.793e-13 0 0 4.56892e-13 8.51693e-13 8.30961e-13 4.81665e-13 0 0 5.9794e-13 1.0027e-12 1.00388e-12 6.53352e-13 0 0 6.02649e-13 9.71438e-13 9.98942e-13 6.53524e-13 0 0 5.32718e-13 8.63197e-13 9.16695e-13 6.04982e-13 0 0 4.56549e-13 7.40157e-13 7.99851e-13 5.16331e-13 0 0 3.86171e-13 6.2798e-13 6.75173e-13 3.9405e-13 0 0 3.274e-13 5.44582e-13 5.37763e-13 3.16515e-13 0 0 2.80319e-13 4.73841e-13 4.01318e-13 2.80601e-13 0 0 2.28914e-13 3.89751e-13 3.14562e-13 2.27388e-13 0 0 1.89347e-13 3.03069e-13 2.93512e-13 1.23645e-13 0 0 1.54167e-13 2.70311e-13 2.39763e-13 7.82788e-14 0 0 1.09025e-13 2.44289e-13 1.76237e-13 7.92846e-14 0 0 9.4677e-14 1.58843e-13 1.75939e-13 8.57863e-14 0 0 7.96497e-14 1.06862e-13 1.7527e-13 6.06787e-14 0 0 4.6302e-14 9.26137e-14 1.59713e-13 3.12986e-14 0 0 2.42265e-14 1.00887e-13 8.4391e-14 4.64492e-14 0 0 2.54909e-14 8.60939e-14 6.51379e-14 -1.51751e-14 0 0 2.55278e-14 5.26135e-14 8.06021e-14 -5.51585e-14 0 0 3.12891e-15 3.7858e-14 6.53161e-14 -3.344e-14 0 0 -6.53407e-16 3.29283e-14 1.72446e-14 2.36808e-14 0 0 6.92205e-15 2.84446e-14 2.64981e-15 9.14295e-15 0 0 2.66652e-15 2.59178e-14 5.59622e-14 -3.48648e-14 0 0 3.32334e-15 4.83185e-14 3.53759e-14 -1.78487e-14 0 0 -6.9811e-16 9.00698e-14 -1.111e-14 -6.89539e-14 0 0 -1.63707e-14 7.28215e-14 2.58412e-14 -6.254e-14 0 0 -2.69931e-14 7.02098e-14 4.76074e-14 6.21005e-15 0 0 6.41688e-15 7.48871e-14 3.25163e-14 -2.0794e-14 0 0 3.06735e-14 5.19153e-14 6.65169e-14 1.8275e-14 0 0 4.77469e-14 5.32801e-14 7.43376e-14 3.76512e-15 0 0 6.83071e-14 5.01837e-14 9.3127e-14 -2.44876e-14 0 0 7.01137e-14 9.2331e-14 8.99906e-14 3.28201e-14 0 0 6.84936e-14 1.40179e-13 6.08718e-14 7.62632e-15 0 0 5.62514e-14 1.67637e-13 5.89675e-14 -4.78759e-15 0 0 3.07994e-14 1.78859e-13 2.65077e-14 -2.80935e-14 0 0 3.58306e-14 1.43558e-13 5.02088e-14 6.18067e-14 0 0 5.76892e-14 8.22976e-14 7.61746e-14 1.1083e-13 0 0 5.73895e-14 9.56038e-14 8.3522e-14 6.13315e-14 0 0 5.73885e-14 1.01121e-13 1.35326e-13 2.36301e-14 0 0 7.2179e-14 7.58502e-14 1.23815e-13 8.42583e-15 0 0 9.88e-14 8.67334e-14 1.12569e-13 6.2412e-14 0 0 5.74309e-14 1.328e-13 1.15316e-13 5.34571e-14 0 0 9.08639e-15 1.78308e-13 9.27292e-14 1.06491e-13 0 0 2.10735e-14 1.61031e-13 7.38953e-14 1.3397e-13 0 0 2.36253e-14 1.72807e-13 -1.42385e-14 1.80713e-13 0 0 5.27869e-14 9.32855e-14 -1.84709e-14 1.90827e-13 0 0 9.6801e-14 -4.73318e-14 8.35208e-14 9.66662e-14 0 0 3.31898e-14 -6.85381e-14 7.1603e-14 2.48931e-14 0 0 -4.23893e-14 -8.34135e-15 3.97412e-14 -6.61583e-14 0 0 -7.43998e-14 -2.74299e-14 -1.26831e-13 -1.45787e-13 0 0 -9.74492e-14 -7.85812e-14 -1.87624e-13 -1.50025e-13 0 0 -1.11281e-13 -9.93901e-14 -1.79531e-13 -1.99985e-13 0 0 -1.40066e-13 -8.97279e-14 -1.8369e-13 -1.60773e-13 0 0 -1.21291e-13 -5.9457e-14 -1.55152e-13 -5.6224e-14 0 0 -8.28118e-14 -1.2712e-13 -1.02728e-13 -5.09161e-14 0 0 -7.30984e-14 -1.39964e-13 -3.80439e-15 -7.96149e-14 0 0 -6.19171e-14 -9.11124e-14 -5.82377e-14 -3.37859e-14 0 0 -6.57423e-14 -8.81815e-14 -9.28576e-14 -3.1278e-15 0 0 -7.03161e-14 -7.07048e-14 -1.16865e-13 -4.98869e-15 0 0 -6.75162e-14 -5.98591e-14 -1.15443e-13 -8.33245e-16 0 0 -6.82589e-14 -8.47924e-14 -1.06733e-13 -9.49991e-15 0 0 -7.59651e-14 -7.42419e-14 -1.11977e-13 -1.90036e-14 0 0 -7.92196e-14 -7.07434e-14 -6.79391e-14 -8.25238e-14 0 0 -7.07893e-14 -8.2154e-14 -6.92659e-14 -7.99707e-14 0 0 -6.97321e-14 -8.48113e-14 -9.59848e-14 -4.65033e-14 0 0 -7.27501e-14 -8.70341e-14 -8.50992e-14 -5.76168e-14 0 0 -7.29619e-14 -8.27518e-14 -6.71948e-14 -6.33583e-14 0 0 -5.72119e-14 -1.09176e-13 -2.659e-14 -8.09322e-14 0 0 -5.08636e-14 -1.1975e-13 -2.26804e-15 -7.29673e-14 0 0 -6.33967e-14 -7.62532e-14 -5.71047e-14 1.99596e-15 0 0 -6.47431e-14 -5.73824e-14 -8.08524e-14 4.32328e-14 0 0 -4.79753e-14 -7.25783e-14 -3.79379e-14 2.27534e-14 0 0 -3.14692e-14 -7.34906e-14 -1.30321e-16 -1.64184e-14 0 0 -4.0752e-14 -3.42728e-14 -3.30811e-14 -9.90797e-15 0 0 -5.11266e-14 -1.88643e-15 -8.83678e-14 7.07527e-14 0 0 -4.21836e-14 -2.99014e-15 -6.99888e-14 3.39401e-14 0 0 -2.15757e-14 -3.07598e-14 1.50652e-14 -8.62336e-14 0 0 -8.61971e-15 -2.99253e-14 1.11707e-14 -6.2981e-14 0 0 1.80056e-14 -1.48616e-14 -5.48873e-14 -2.14969e-14 0 0 3.52945e-14 -8.91319e-15 -7.5821e-14 -1.16379e-14 0 0 4.53672e-14 -2.92652e-14 -4.47797e-14 -1.00193e-14 0 0 3.61362e-14 -6.08168e-14 1.2544e-14 7.32985e-15 0 0 1.80056e-14 -2.16038e-14 -3.93439e-14 2.65626e-15 0 0 2.3398e-14 4.43754e-15 -1.14848e-13 -1.51979e-14 0 0 3.22959e-14 -4.30115e-14 -9.05878e-14 -8.52215e-15 0 0 3.88242e-14 -5.79982e-14 -4.87297e-14 -2.06876e-14 0 0 7.92496e-15 -2.20043e-14 -2.88525e-14 -4.80072e-14 0 0 1.04362e-14 -2.63993e-14 -3.59511e-14 -3.43463e-14 0 0 5.3866e-14 -4.01788e-14 -4.71584e-14 2.61995e-14 0 0 6.2803e-14 -4.87995e-14 -2.92363e-14 8.8144e-14 0 0 -4.20013e-15 2.00493e-14 -5.7399e-14 1.52269e-13 0 0 -5.0533e-14 6.47964e-14 -3.50872e-14 1.12329e-13 0 0 -3.53184e-14 3.12501e-14 1.73525e-14 5.9727e-14 0
				</DataArray>
				<DataArray Name="VitesseY" type="Float32" format="ascii">