<?xml version="1.0"?>
<VTKFile type="PolyData">
	<PolyData>
		<Piece NumberOfPoints="1206" NumberOfPolys="1000">
			<Points>
				<DataArray type="Float32" NumberOfComponents="3" format="ascii">
 0 0 0 0.02 0 0 0.04 0 0 0.06 0 0 0.08 0 0 0.1 0 0 0 0.005 0 0.02 0.005 0 0.04 0.005 0 0.06 0.005 0 0.08 0.005 0 0.1 0.005 0 0 0.01 0 0.02 0.01 0 0.04 0.01 0 0.06 0.01 0 0.08 0.01 0 0.1 0.01 0 0 0.015 0 0.02 0.015 0 0.04 0.015 0 0.06 0.015 0 0.08 0.015 0 0.1 0.015 0 0 0.02 0 0.02 0.02 0 0.04 0.02 0 0.06 0.02 0 0.08 0.02 0 0.1 0.02 0 0 0.025 0 0.02 0.025 0 0.04 0.025 0 0.06 0.025 0 0.08 0.025 0 0.1 0.025 0 0 0.03 0 0.02 0.03 0 0.04 0.03 0 0.06 0.03 0 0.08 0.03 0 0.1 0.03 0 0 0.035 0 0.02 0.035 0 0.04 0.035 0 0.06 0.035 0 0.08 0.035 0 0.1 0.035 0 0 0.04 0 0.02 0.04 0 0.04 0.04 0 0.06 0.04 0 0.08 0.04 0 0.1 0.04 0 0 0.045 0 0.02 0.045 0 0.04 0.045 0 0.06 0.045 0 0.08 0.045 0 0.1 0.045 0 0 0.05 0 0.02 0.05 0 0.04 0.05 0 0.06 0.05 0 0.08 0.05 0 0.1 0.05 0 0 0.055 0 0.02 0.055 0 0.04 0.055 0 0.06 0.055 0 0.08 0.055 0 0.1 0.055 0 0 0.06 0 0.02 0.06 0 0.04 0.06 0 0.06 0.06 0 0.08 0.06 0 0.1 0.06 0 0 0.065 0 0.02 0.065 0 0.04 0.065 0 0.06 0.065 0 0.08 0.065 0 0.1 0.065 0 0 0.07 0 0.02 0.07 0 0.04 0.07 0 0.06 0.07 0 0.08 0.07 0 0.1 0.07 0 0 0.075 0 0.02 0.075 0 0.04 0.075 0 0.06 0.075 0 0.08 0.075 0 0.1 0.075 0 0 0.08 0 0.02 0.08 0 0.04 0.08 0 0.06 0.08 0 0.08 0.08 0 0.1 0.08 0 0 0.085 0 0.02 0.085 0 0.04 0.085 0 0.06 0.085 0 0.08 0.085 0 0.1 0.085 0 0 0.09 0 0.02 0.09 0 0.04 0.09 0 0.06 0.09 0 0.08 0.09 0 0.1 0.09 0 0 0.095 0 0.02 0.095 0 0.04 0.095 0 0.06 0.095 0 0.08 0.095 0 0.1 0.095 0 0 0.1 0 0.02 0.1 0 0.04 0.1 0 0.06 0.1 0 0.08 0.1 0 0.1 0.1 0 0 0.105 0 0.02 0.105 0 0.04 0.105 0 0.06 0.105 0 0.08 0.105 0 0.1 0.105 0 0 0.11 0 0.02 0.11 0 0.04 0.11 0 0.06 0.11 0 0.08 0.11 0 0.1 0.11 0 0 0.115 0 0.02 0.115 0 0.04 0.115 0 0.06 0.115 0 0.08 0.115 0 0.1 0.115 0 0 0.12 0 0.02 0.12 0 0.04 0.12 0 0.06 0.12 0 0.08 0.12 0 0.1 0.12 0 0 0.125 0 0.02 0.125 0 0.04 0.125 0 0.06 0.125 0 0.08 0.125 0 0.1 0.125 0 0 0.13 0 0.02 0.13 0 0.04 0.13 0 0.06 0.13 0 0.08 0.13 0 0.1 0.13 0 0 0.135 0 0.02 0.135 0 0.04 0.135 0 0.06 0.135 0 0.08 0.135 0 0.1 0.135 0 0 0.14 0 0.02 0.14 0 0.04 0.14 0 0.06 0.14 0 0.08 0.14 0 0.1 0.14 0 0 0.145 0 0.02 0.145 0 0.04 0.145 0 0.06 0.145 0 0.08 0.145 0 0.1 0.145 0 0 0.15 0 0.02 0.15 0 0.04 0.15 0 0.06 0.15 0 0.08 0.15 0 0.1 0.15 0 0 0.155 0 0.02 0.155 0 0.04 0.155 0 0.06 0.155 0 0.08 0.155 0 0.1 0.155 0 0 0.16 0 0.02 0.16 0 0.04 0.16 0 0.06 0.16 0 0.08 0.16 0 0.1 0.16 0 0 0.165 0 0.02 0.165 0 0.04 0.165 0 0.06 0.165 0 0.08 0.165 0 0.1 0.165 0 0 0.17 0 0.02 0.17 0 0.04 0.17 0 0.06 0.17 0 0.08 0.17 0 0.1 0.17 0 0 0.175 0 0.02 0.175 0 0.04 0.175 0 0.06 0.175 0 0.08 0.175 0 0.1 0.175 0 0 0.18 0 0.02 0.18 0 0.04 0.18 0 0.06 0.18 0 0.08 0.18 0 0.1 0.18 0 0 0.185 0 0.02 0.185 0 0.04 0.185 0 0.06 0.185 0 0.08 0.185 0 0.1 0.185 0 0 0.19 0 0.02 0.19 0 0.04 0.19 0 0.06 0.19 0 0.08 0.19 0 0.1 0.19 0 0 0.195 0 0.02 0.195 0 0.04 0.195 0 0.06 0.195 0 0.08 0.195 0 0.1 0.195 0 0 0.2 0 0.02 0.2 0 0.04 0.2 0 0.06 0.2 0 0.08 0.2 0 0.1 0.2 0 0 0.205 0 0.02 0.205 0 0.04 0.205 0 0.06 0.205 0 0.08 0.205 0 0.1 0.205 0 0 0.21 0 0.02 0.21 0 0.04 0.21 0 0.06 0.21 0 0.08 0.21 0 0.1 0.21 0 0 0.215 0 0.02 0.215 0 0.04 0.215 0 0.06 0.215 0 0.08 0.215 0 0.1 0.215 0 0 0.22 0 0.02 0.22 0 0.04 0.22 0 0.06 0.22 0 0.08 0.22 0 0.1 0.22 0 0 0.225 0 0.02 0.225 0 0.04 0.225 0 0.06 0.225 0 0.08 0.225 0 0.1 0.225 0 0 0.23 0 0.02 0.23 0 0.04 0.23 0 0.06 0.23 0 0.08 0.23 0 0.1 0.23 0 0 0.235 0 0.02 0.235 0 0.04 0.235 0 0.06 0.235 0 0.08 0.235 0 0.1 0.235 0 0 0.24 0 0.02 0.24 0 0.04 0.24 0 0.06 0.24 0 0.08 0.24 0 0.1 0.24 0 0 0.245 0 0.02 0.245 0 0.04 0.245 0 0.06 0.245 0 0.08 0.245 0 0.1 0.245 0 0 0.25 0 0.02 0.25 0 0.04 0.25 0 0.06 0.25 0 0.08 0.25 0 0.1 0.25 0 0 0.255 0 0.02 0.255 0 0.04 0.255 0 0.06 0.255 0 0.08 0.255 0 0.1 0.255 0 0 0.26 0 0.02 0.26 0 0.04 0.26 0 0.06 0.26 0 0.08 0.26 0 0.1 0.26 0 0 0.265 0 0.02 0.265 0 0.04 0.265 0 0.06 0.265 0 0.08 0.265 0 0.1 0.265 0 0 0.27 0 0.02 0.27 0 0.04 0.27 0 0.06 0.27 0 0.08 0.27 0 0.1 0.27 0 0 0.275 0 0.02 0.275 0 0.04 0.275 0 0.06 0.275 0 0.08 0.275 0 0.1 0.275 0 0 0.28 0 0.02 0.28 0 0.04 0.28 0 0.06 0.28 0 0.08 0.28 0 0.1 0.28 0 0 0.285 0 0.02 0.285 0 0.04 0.285 0 0.06 0.285 0 0.08 0.285 0 0.1 0.285 0 0 0.29 0 0.02 0.29 0 0.04 0.29 0 0.06 0.29 0 0.08 0.29 0 0.1 0.29 0 0 0.295 0 0.02 0.295 0 0.04 0.295 0 0.06 0.295 0 0.08 0.295 0 0.1 0.295 0 0 0.3 0 0.02 0.3 0 0.04 0.3 0 0.06 0.3 0 0.08 0.3 0 0.1 0.3 0 0 0.305 0 0.02 0.305 0 0.04 0.305 0 0.06 0.305 0 0.08 0.305 0 0.1 0.305 0 0 0.31 0 0.02 0.31 0 0.04 0.31 0 0.06 0.31 0 0.08 0.31 0 0.1 0.31 0 0 0.315 0 0.02 0.315 0 0.04 0.315 0 0.06 0.315 0 0.08 0.315 0 0.1 0.315 0 0 0.32 0 0.02 0.32 0 0.04 0.32 0 0.06 0.32 0 0.08 0.32 0 0.1 0.32 0 0 0.325 0 0.02 0.325 0 0.04 0.325 0 0.06 0.325 0 0.08 0.325 0 0.1 0.325 0 0 0.33 0 0.02 0.33 0 0.04 0.33 0 0.06 0.33 0 0.08 0.33 0 0.1 0.33 0 0 0.335 0 0.02 0.335 0 0.04 0.335 0 0.06 0.335 0 0.08 0.335 0 0.1 0.335 0 0 0.34 0 0.02 0.34 0 0.04 0.34 0 0.06 0.34 0 0.08 0.34 0 0.1 0.34 0 0 0.345 0 0.02 0.345 0 0.04 0.345 0 0.06 0.345 0 0.08 0.345 0 0.1 0.345 0 0 0.35 0 0.02 0.35 0 0.04 0.35 0 0.06 0.35 0 0.08 0.35 0 0.1 0.35 0 0 0.355 0 0.02 0.355 0 0.04 0.355 0 0.06 0.355 0 0.08 0.355 0 0.1 0.355 0 0 0.36 0 0.02 0.36 0 0.04 0.36 0 0.06 0.36 0 0.08 0.36 0 0.1 0.36 0 0 0.365 0 0.02 0.365 0 0.04 0.365 0 0.06 0.365 0 0.08 0.365 0 0.1 0.365 0 0 0.37 0 0.02 0.37 0 0.04 0.37 0 0.06 0.37 0 0.08 0.37 0 0.1 0.37 0 0 0.375 0 0.02 0.375 0 0.04 0.375 0 0.06 0.375 0 0.08 0.375 0 0.1 0.375 0 0 0.380001 0 0.02 0.380001 0 0.04 0.380001 0 0.06 0.380001 0 0.08 0.380001 0 0.1 0.380001 0 0 0.385006 0 0.02 0.385006 0 0.04 0.385006 0 0.06 0.385006 0 0.08 0.385006 0 0.1 0.385006 0 0 0.39002 0 0.02 0.39002 0 0.04 0.39002 0 0.06 0.39002 0 0.08 0.39002 0 0.1 0.39002 0 0 0.39506 0 0.02 0.39506 0 0.04 0.39506 0 0.06 0.39506 0 0.08 0.39506 0 0.1 0.39506 0 0 0.400158 0 0.02 0.400158 0 0.04 0.400158 0 0.06 0.400158 0 0.08 0.400158 0 0.1 0.400158 0 0 0.405358 0 0.02 0.405358 0 0.04 0.405358 0 0.06 0.405358 0 0.08 0.405358 0 0.1 0.405358 0 0 0.410711 0 0.02 0.410711 0 0.04 0.410711 0 0.06 0.410711 0 0.08 0.410711 0 0.1 0.410711 0 0 0.416267 0 0.02 0.416267 0 0.04 0.416267 0 0.06 0.416267 0 0.08 0.416267 0 0.1 0.416267 0 0 0.422065 0 0.02 0.422065 0 0.04 0.422065 0 0.06 0.422065 0 0.08 0.422065 0 0.1 0.422065 0 0 0.428147 0 0.02 0.428147 0 0.04 0.428147 0 0.06 0.428147 0 0.08 0.428147 0 0.1 0.428147 0 0 0.434551 0 0.02 0.434551 0 0.04 0.434551 0 0.06 0.434551 0 0.08 0.434551 0 0.1 0.434551 0 0 0.441324 0 0.02 0.441324 0 0.04 0.441324 0 0.06 0.441324 0 0.08 0.441324 0 0.1 0.441324 0 0 0.448518 0 0.02 0.448518 0 0.04 0.448518 0 0.06 0.448518 0 0.08 0.448518 0 0.1 0.448518 0 0 0.456197 0 0.02 0.456197 0 0.04 0.456197 0 0.06 0.456197 0 0.08 0.456197 0 0.1 0.456197 0 0 0.464438 0 0.02 0.464438 0 0.04 0.464438 0 0.06 0.464438 0 0.08 0.464438 0 0.1 0.464438 0 0 0.473336 0 0.02 0.473336 0 0.04 0.473336 0 0.06 0.473336 0 0.08 0.473336 0 0.1 0.473336 0 0 0.483004 0 0.02 0.483004 0 0.04 0.483004 0 0.06 0.483004 0 0.08 0.483004 0 0.1 0.483004 0 0 0.49357 0 0.02 0.49357 0 0.04 0.49357 0 0.06 0.49357 0 0.08 0.49357 0 0.1 0.49357 0 0 0.505129 0 0.02 0.505129 0 0.04 0.505129 0 0.06 0.505129 0 0.08 0.505129 0 0.1 0.505129 0 0 0.517531 0 0.02 0.517531 0 0.04 0.517531 0 0.06 0.517531 0 0.08 0.517531 0 0.1 0.517531 0 0 0.530009 0 0.02 0.530009 0 0.04 0.530009 0 0.06 0.530009 0 0.08 0.530009 0 0.1 0.530009 0 0 0.542224 0 0.02 0.542224 0 0.04 0.542224 0 0.06 0.542224 0 0.08 0.542224 0 0.1 0.542224 0 0 0.554224 0 0.02 0.554224 0 0.04 0.554224 0 0.06 0.554224 0 0.08 0.554224 0 0.1 0.554224 0 0 0.566112 0 0.02 0.566112 0 0.04 0.566112 0 0.06 0.566112 0 0.08 0.566112 0 0.1 0.566112 0 0 0.577962 0 0.02 0.577962 0 0.04 0.577962 0 0.06 0.577962 0 0.08 0.577962 0 0.1 0.577962 0 0 0.580245 0 0.02 0.580245 0 0.04 0.580245 0 0.06 0.580245 0 0.08 0.580245 0 0.1 0.580245 0 0 0.582529 0 0.02 0.582529 0 0.04 0.582529 0 0.06 0.582529 0 0.08 0.582529 0 0.1 0.582529 0 0 0.584812 0 0.02 0.584812 0 0.04 0.584812 0 0.06 0.584812 0 0.08 0.584812 0 0.1 0.584812 0 0 0.587095 0 0.02 0.587095 0 0.04 0.587095 0 0.06 0.587095 0 0.08 0.587095 0 0.1 0.587095 0 0 0.589377 0 0.02 0.589377 0 0.04 0.589377 0 0.06 0.589377 0 0.08 0.589377 0 0.1 0.589377 0 0 0.59166 0 0.02 0.59166 0 0.04 0.59166 0 0.06 0.59166 0 0.08 0.59166 0 0.1 0.59166 0 0 0.593945 0 0.02 0.593945 0 0.04 0.593945 0 0.06 0.593945 0 0.08 0.593945 0 0.1 0.593945 0 0 0.59623 0 0.02 0.59623 0 0.04 0.59623 0 0.06 0.59623 0 0.08 0.59623 0 0.1 0.59623 0 0 0.598517 0 0.02 0.598517 0 0.04 0.598517 0 0.06 0.598517 0 0.08 0.598517 0 0.1 0.598517 0 0 0.6008 0 0.02 0.6008 0 0.04 0.6008 0 0.06 0.6008 0 0.08 0.6008 0 0.1 0.6008 0 0 0.603084 0 0.02 0.603084 0 0.04 0.603084 0 0.06 0.603084 0 0.08 0.603084 0 0.1 0.603084 0 0 0.605371 0 0.02 0.605371 0 0.04 0.605371 0 0.06 0.605371 0 0.08 0.605371 0 0.1 0.605371 0 0 0.607656 0 0.02 0.607656 0 0.04 0.607656 0 0.06 0.607656 0 0.08 0.607656 0 0.1 0.607656 0 0 0.60994 0 0.02 0.60994 0 0.04 0.60994 0 0.06 0.60994 0 0.08 0.60994 0 0.1 0.60994 0 0 0.612222 0 0.02 0.612222 0 0.04 0.612222 0 0.06 0.612222 0 0.08 0.612222 0 0.1 0.612222 0 0 0.614503 0 0.02 0.614503 0 0.04 0.614503 0 0.06 0.614503 0 0.08 0.614503 0 0.1 0.614503 0 0 0.616786 0 0.02 0.616786 0 0.04 0.616786 0 0.06 0.616786 0 0.08 0.616786 0 0.1 0.616786 0 0 0.619068 0 0.02 0.619068 0 0.04 0.619068 0 0.06 0.619068 0 0.08 0.619068 0 0.1 0.619068 0 0 0.62135 0 0.02 0.62135 0 0.04 0.62135 0 0.06 0.62135 0 0.08 0.62135 0 0.1 0.62135 0 0 0.623631 0 0.02 0.623631 0 0.04 0.623631 0 0.06 0.623631 0 0.08 0.623631 0 0.1 0.623631 0 0 0.62593 0 0.02 0.62593 0 0.04 0.62593 0 0.06 0.62593 0 0.08 0.62593 0 0.1 0.62593 0 0 0.628254 0 0.02 0.628254 0 0.04 0.628254 0 0.06 0.628254 0 0.08 0.628254 0 0.1 0.628254 0 0 0.630627 0 0.02 0.630627 0 0.04 0.630627 0 0.06 0.630627 0 0.08 0.630627 0 0.1 0.630627 0 0 0.633056 0 0.02 0.633056 0 0.04 0.633056 0 0.06 0.633056 0 0.08 0.633056 0 0.1 0.633056
[...]
			<PointData Scalars="VitesseX">
				<DataArray Name="VitesseX" type="Float32" format="ascii">
 0 -2.08874e-15 1.88707e-15 3.8087e-15 6.19989e-15 0 0 -1.80939e-15 1.28736e-15 4.21947e-15 6.09627e-15 0 0 -9.13923e-16 -7.71552e-17 4.64811e-15 6.07259e-15 0 0 -1.69656e-16 -8.45057e-16 4.41479e-15 6.54325e-15 0 0 -3.96715e-16 -3.03678e-16 4.3138e-15 6.11348e-15 0 0 -2.54972e-16 -3.97279e-16 4.47581e-15 4.99329e-15 0 0 4.57312e-17 -1.0348e-15 4.68231e-15 4.25616e-15 0 0 -1.70222e-15 -4.2527e-17 3.61981e-15 5.59407e-15 0 0 -2.94719e-15 1.89349e-15 -4.51524e-17 8.48722e-15 0 0 7.74008e-16 -1.37501e-15 -7.98655e-16 9.59739e-15 0 0 1.29206e-15 -1.30371e-16 -2.45765e-15 9.11486e-15 0 0 -2.05828e-15 4.01704e-15 -4.5445e-15 9.47592e-15 0 0 -3.31876e-15 4.6411e-15 -3.40778e-15 8.65294e-15 0 0 -2.1146e-15 3.678e-15 -3.84688e-15 8.69423e-15 0 0 6.96775e-16 4.89978e-16 -8.58298e-16 8.83628e-15 0 0 1.18145e-15 9.30576e-16 1.97853e-15 7.11772e-15 0 0 -1.92047e-15 5.49217e-15 -3.59631e-15 1.07443e-14 0 0 1.19937e-16 1.02986e-15 9.16897e-16 7.10216e-15 0 0 2.58289e-16 -1.1316e-15 4.33871e-15 3.85417e-15 0 0 -3.15031e-15 4.61309e-15 -3.75416e-15 9.68096e-15 0 0 2.46075e-15 1.93386e-16 -1.7215e-15 7.23348e-15 0 0 6.1346e-15 4.61713e-16 -1.77404e-15 2.46747e-15 0 0 1.61658e-15 7.14154e-15 -4.53261e-15 2.43487e-15 0 0 -2.21507e-15 9.43364e-15 -6.26652e-15 8.67592e-15 0 0 4.69285e-15 1.61126e-15 -1.53076e-15 9.06583e-15 0 0 2.07901e-15 5.17547e-15 -1.07838e-15 2.66409e-15 0 0 -7.20771e-15 1.38127e-14 -1.03631e-14 3.03236e-15 0 0 -3.48378e-15 2.63422e-15 -3.78007e-15 4.91415e-16 0 0 -3.20105e-15 3.37132e-17 1.52265e-15 4.3018e-15 0 0 -5.02468e-15 2.20376e-15 2.71832e-15 5.85157e-15 0 0 1.59996e-15 -1.81911e-15 6.30352e-15 3.51957e-15 0 0 6.72032e-15 -2.57581e-15 -7.54882e-16 9.59954e-15 0 0 3.19342e-15 -1.58913e-16 -3.20751e-15 8.07544e-15 0 0 3.37396e-15 4.3976e-15 -8.03523e-16 4.1435e-15 0 0 9.17826e-16 5.99557e-15 1.08876e-14 -3.71315e-15 0 0 -2.31694e-15 6.66008e-15 1.03621e-14 4.47463e-16 0 0 5.67632e-15 9.72589e-15 -8.01971e-15 1.64268e-14 0 0 8.73833e-15 7.60867e-15 -1.30195e-15 7.85185e-15 0 0 2.99946e-15 1.36586e-14 3.52229e-15 -4.58471e-15 0 0 2.76507e-15 1.46131e-14 1.02381e-14 -1.35988e-14 0 0 5.42702e-15 2.42271e-15 2.13866e-14 -1.76586e-14 0 0 5.69011e-15 3.7437e-15 1.33537e-14 -1.3527e-14 0 0 4.23428e-15 8.05198e-15 1.03437e-14 -7.95534e-15 0 0 8.48499e-16 7.98622e-15 9.55244e-15 -2.51304e-16 0 0 5.42486e-15 3.70249e-15 -5.0752e-16 3.22363e-15 0 0 1.15575e-14 1.27003e-15 -7.00669e-15 5.73542e-15 0 0 4.20982e-15 6.76418e-15 -1.41015e-14 2.46284e-14 0 0 2.85448e-15 -5.69504e-16 -1.16296e-14 3.60721e-14 0 0 1.15804e-14 -6.43539e-15 -1.41739e-14 3.679e-14 0 0 5.22249e-15 -4.91147e-16 -8.72098e-15 2.22077e-14 0 0 1.00857e-14 -1.65748e-14 1.30951e-14 1.45961e-15 0 0 6.24165e-15 -1.16248e-14 9.06515e-15 6.1235e-15 0 0 -1.06393e-14 -8.98966e-15 2.12523e-14 -1.1306e-15 0 0 -5.57044e-15 -2.26844e-14 4.60798e-14 -2.38152e-14 0 0 -7.87645e-15 1.83782e-15 2.23469e-14 -1.03485e-14 0 0 -9.63799e-15 9.78744e-15 8.67407e-15 8.33588e-15 0 0 -5.5173e-15 -3.9889e-15 2.20117e-14 -2.74137e-15 0 0 -1.21246e-14 6.95845e-16 1.65991e-14 7.32991e-16 0 0 5.9694e-16 1.2956e-15 8.27798e-15 1.0277e-14 0 0 9.92262e-15 -4.17419e-15 4.58614e-15 2.77035e-14 0 0 1.19961e-15 -3.24869e-15 1.91204e-14 1.9637e-14 0 0 1.2425e-14 -1.96306e-14 4.07153e-14 -1.61504e-14 0 0 1.22848e-14 -1.46706e-14 3.56499e-14 -2.70508e-14 0 0 1.23722e-16 1.10615e-14 2.4158e-14 -2.89545e-14 0 0 3.08851e-15 1.05009e-14 2.75816e-14 -2.48793e-14 0 0 1.15349e-14 2.32485e-16 5.00931e-14 -2.03612e-14 0 0 8.41838e-15 -3.21179e-15 5.66776e-14 1.55052e-14 0 0 -1.81306e-14 1.5118e-15 4.44418e-14 4.84912e-14 0 0 -1.77635e-14 -1.29996e-14 2.10769e-14 2.34489e-14 0 0 -3.45141e-15 -9.12282e-15 -1.93612e-14 -1.3118e-14 0 0 -1.27889e-15 2.1217e-14 -3.68139e-14 -2.2266e-14 0 0 -3.12739e-15 3.29905e-14 -4.61413e-14 -1.37678e-14 0 0 -2.28778e-14 1.67475e-14 -2.25845e-14 -4.27849e-15 0 0 -2.88034e-14 -2.122e-14 1.70631e-14 -1.14903e-14 0 0 -1.0778e-14 -2.55327e-14 1.52557e-14 -2.44098e-14 0 0 1.43566e-14 -4.21246e-15 -8.60407e-15 4.07838e-15 0 0 -6.25348e-15 1.58069e-14 -1.35932e-14 2.08419e-14 0 0 -1.75668e-14 3.72614e-15 1.21749e-14 -1.46345e-14 0 0 -9.61189e-15 -9.33719e-15 -6.66922e-16 -3.63009e-14 0 0 -1.84871e-14 -1.66983e-14 -5.19375e-15 -3.00434e-14 0 0 -1.99675e-14 -3.06495e-14 1.54195e-14 -1.60989e-14 0 0 1.20635e-15 -2.91973e-14 8.26581e-16 3.52422e-15 0 0 1.33684e-14 -3.26695e-14 -1.04499e-14 1.43122e-14 0 0 -9.39651e-15 -1.62684e-14 -1.34246e-14 8.14598e-15 0 0 -3.39439e-15 -7.44546e-15 -3.62251e-14 2.14979e-14 0 0 4.47067e-15 -3.44044e-14 -2.40927e-14 3.01467e-14 0 0 1.64356e-15 -2.84208e-15 -7.12867e-15 -5.4024e-15 0 0 -4.95079e-15 1.88068e-14 -1.44352e-14 -3.53848e-14 0 0 -5.90447e-15 -1.53551e-14 -1.43238e-14 -3.0864e-14 0 0 -1.29045e-14 -1.5215e-14 -2.43333e-14 -6.83228e-16 0 0 3.39413e-15 -1.89466e-14 -4.4494e-15 -1.35505e-15 0 0 2.18871e-14 -1.43941e-14 3.73513e-15 -1.50694e-14 0 0 3.9562e-15 4.5762e-17 -1.20716e-14 2.85736e-14 0 0 -1.93065e-14 1.7002e-14 1.30372e-14 2.81794e-14 0 0 1.05735e-14 3.33281e-14 1.90165e-14 8.16863e-16 0 0 2.3823e-14 4.40882e-14 2.38933e-14 1.36751e-14 0 0 -2.11317e-15 -1.18956e-15 2.55537e-14 -2.44236e-15 0 0 -7.69529e-14 -1.33469e-13 -1.23305e-13 -5.49946e-14 0 0 -2.13985e-13 -3.30229e-13 -3.51384e-13 -1.90862e-13 0 0 -2.94682e-13 -4.89525e-13 -4.84332e-13 -3.08246e-13 0 0 -3.31244e-13 -5.53252e-13 -5.46059e-13 -3.35093e-13 0 0 -4.62606e-13 -7.68288e-13 -6.66044e-13 -5.51736e-13 0 0 -4.51312e-13 -7.70114e-13 -6.75463e-13 -5.24211e-13 0 0 -4.74548e-13 -7.90067e-13 -6.7847e-13 -5.17347e-13 0 0 -5.11862e-13 -8.14045e-13 -7.35597e-13 -5.47243e-13 0 0 -5.20289e-13 -8.72383e-13 -7.89377e-13 -5.51206e-13 0 0 -4.7855e-13 -8.50806e-13 -8.11756e-13 -5.28986e-13 0 0 -3.47811e-13 -6.20031e-13 -6.22618e-13 -4.0987e-13 0 0 -1.23295e-13 -2.53823e-13 -2.65666e-13 -1.68951e-13 0 0 9.956e-14 1.01306e-13 7.14851e-14 5.60781e-14 0 0 2.15256e-13 2.58274e-13 2.96538e-13 1.7556e-13 0 0 1.9363e-13 2.56992e-13 2.92828e-13 1.79678e-13 0 0 1.10635e-13 1.60359e-13 1.61198e-13 1.07681e-13 0 0 4.92641e-14 -2.38429e-14 2.71389e-14 4.34929e-14 0 0 -1.05104e-14 -1.57533e-13 -8.78567e-14 -2.53356e-14 0 0 -6.61303e-14 -2.55775e-13 -2.17872e-13 -1.10199e-13 0 0 -1.65968e-13 -2.96711e-13 -3.71681e-13 -1.23011e-13 0 0 -2.29926e-13 -3.7097e-13 -4.24905e-13 -1.89447e-13 0 0 -2.53888e-13 -4.50973e-13 -4.58602e-13 -2.84709e-13 0 0 -2.89868e-13 -4.77925e-13 -5.16741e-13 -2.93614e-13 0 0 -3.08303e-13 -5.2088e-13 -5.49541e-13 -3.03102e-13 0 0 -3.13268e-13 -5.26509e-13 -5.65008e-13 -3.261e-13 0 0 -3.19776e-13 -5.08951e-13 -6.25211e-13 -3.69927e-13 0 0 -3.00296e-13 -5.22507e-13 -5.61507e-13 -3.86304e-13 0 0 -2.99891e-13 -4.82473e-13 -5.49329e-13 -4.07989e-13 0 0 -2.90039e-13 -4.2957e-13 -4.93126e-13 -3.32914e-13 0 0 -2.22709e-13 -4.03662e-13 -3.85281e-13 -2.42491e-13 0 0 -1.73716e-13 -3.20881e-13 -3.49831e-13 -2.1746e-13 0 0 -1.24018e-13 -2.22537e-13 -1.82218e-13 -1.3287e-13 0 0 -8.71817e-14 -1.48428e-13 -1.41726e-13 -7.36941e-14 0 0 -4.37615e-14 -4.69218e-14 -1.10345e-13 -2.68758e-14 0 0 -1.54899e-14 -9.94665e-15 -3.41835e-14 -1.24961e-14 0 0 -1.41172e-14 -8.18023e-16 2.87741e-14 -9.45965e-15 0 0 -2.07368e-14 7.32442e-15 4.99093e-14 -1.83536e-14 0 0 -1.47607e-14 2.03948e-14 4.19779e-14 -1.63469e-14 0 0 -6.60526e-15 2.46597e-14 7.77776e-15 1.52408e-14 0 0 4.06421e-15 5.15996e-15 -7.24044e-15 2.43947e-14 0 0 -1.21535e-16 -1.0515e-14 1.12939e-14 8.44553e-15 0 0 -5.95489e-15 -1.75983e-14 2.15728e-14 -7.5926e-15 0 0 -8.17144e-15 -1.41559e-14 1.62236e-14 1.00766e-14 0 0 -9.93196e-15 -1.62232e-14 1.63397e-14 2.14852e-14 0 0 -4.4468e-15 -3.24226e-14 2.9709e-14 -4.59567e-15 0 0 -3.67606e-15 -3.76e-14 3.05533e-14 -1.95663e-14 0 0 -8.33388e-15 -3.20794e-14 4.79057e-14 -2.48718e-14 0 0 -2.5241e-14 9.90743e-15 1.15811e-14 7.92399e-15 0 0 -3.26293e-14 2.47304e-14 -1.0796e-14 1.70227e-14 0 0 -1.87361e-14 1.91192e-14 2.71871e-14 -9.82817e-15 0 0 -2.32977e-14 2.63433e-14 3.9566e-14 2.80848e-14 0 0 -3.22001e-14 1.07315e-14 7.14852e-14 2.60812e-14 0 0 -1.11055e-14 -3.92795e-16 7.17738e-14 3.87033e-14 0 0 -8.52286e-15 1.32338e-14 5.09171e-14 5.87285e-14 0 0 -2.54178e-14 1.91256e-14 8.54195e-14 3.38287e-15 0 0 -1.40047e-14 1.44361e-14 1.01855e-13 -1.26818e-14 0 0 9.34682e-15 2.03404e-14 6.62223e-14 5.47258e-14 0 0 8.27447e-15 3.57489e-14 3.17385e-14 7.71684e-14 0 0 -4.66466e-15 3.14865e-14 3.84561e-14 4.40732e-14 0 0 -8.62934e-15 2.23301e-14 3.96828e-14 3.14481e-14 0 0 1.06229e-14 1.37273e-14 5.21995e-14 -1.9691e-14 0 0 2.44474e-14 -8.1107e-15 8.38385e-14 -3.54422e-14 0 0 6.1991e-15 1.20297e-14 8.12202e-14 -1.87972e-14 0 0 -1.53994e-14 3.57922e-14 8.219e-14 -1.05608e-16 0 0 -3.25064e-14 3.4103e-14 8.16196e-14 2.3757e-14 0 0 1.08279e-14 -7.33634e-17 6.81483e-14 4.84349e-14 0 0 6.90463e-14 -5.45174e-14 4.71391e-14 8.18723e-14 0 0 5.87475e-14 -6.80216e-14 7.35209e-14 5.85654e-14 0 0 1.37464e-14 -4.37351e-14 8.24055e-14 7.09843e-14 0 0 -4.46171e-14 -1.44459e-14 8.40457e-14 6.55773e-14 0 0 -2.937e-14 -6.05125e-14 1.15341e-13 4.11741e-14 0 0 1.17767e-14 -9.88547e-14 8.60836e-14 1.07419e-13 0 0 1.28005e-14 -6.21005e-14 5.23205e-14 9.54148e-14 0 0 -1.81878e-14 7.62226e-15 2.56441e-14 4.14959e-14 0 0 -1.95922e-14 1.28658e-14 6.62667e-14 2.63205e-14 0 0 1.50732e-14 -1.29162e-14 4.32673e-14 1.12292e-13 0 0 1.79898e-14 3.24815e-15 -4.25093e-14 1.43944e-13 0 0 1.28501e-14 -2.08423e-14 -3.38995e-15 9.32307e-14 0 0 -1.1791e-14 -1.34712e-14 3.69651e-14 8.37362e-14 0 0 -4.05831e-15 1.60904e-14 3.99058e-14 -9.60488e-16 0 0 7.09284e-15 2.08057e-14 8.07016e-14 -8.73081e-14 0 0 2.51117e-14 6.04096e-15 9.17542e-14 -8.81652e-14 0 0 3.21741e-14 5.11275e-14 -2.55197e-14 1.77699e-14 0 0 2.44576e-14 7.50405e-14 -4.68531e-14 8.8433e-14 0 0 3.01737e-14 4.10273e-14 2.59466e-15 9.20954e-14 0 0 -4.52806e-15 1.78634e-14 3.96555e-14 4.5603e-14 0 0 -4.61859e-15 -1.21738e-14 7.57942e-14 7.33513e-15 0 0 1.31756e-15 -4.73857e-16 3.29906e-14 3.77599e-14 0 0 -5.2231e-15 3.94924e-15 1.21463e-14 6.04093e-14 0 0 -1.47729e-15 2.19852e-14 1.85141e-14 4.55785e-14 0 0 6.39925e-15 2.92325e-14 1.41448e-14 3.49386e-14 0 0 3.79161e-14 -4.79389e-15 2.55447e-14 2.8147e-14 0 0 5.31472e-14 -2.94151e-14 7.18806e-14 -6.7145e-15 0 0 9.45523e-15 5.93117e-14 -2.77748e-14 4.54109e-14 0 0 1.41512e-14 6.93344e-14 -5.81187e-14 7.06098e-14 0 0 1.1704e-14 3.90816e-14 2.12018e-15 5.07672e-14 0 0 -2.23696e-14 6.10423e-14 -1.92196e-14 6.32643e-14 0 0 -1.83138e-14 3.71381e-14 -1.5002e-14 6.45806e-14 0 0 2.51863e-14 -2.17635e-15 2.30035e-14 3.45286e-14 0 0 2.92242e-14 1.56621e-14 1.48498e-14 3.48438e-14 0 0 -3.55571e-14 7.87041e-14 -8.64052e-15 3.38639e-14 0 0 -7.86171e-15 2.13049e-14 7.89614e-14 -6.44049e-14 0 0 2.79817e-14 -1.73998e-14 1.02315e-13 -8.84144e-14 0 0 2.17897e-14 -2.92313e-15 6.62042e-14 -5.61248e-14 0
				</DataArray>
				<DataArray Name="VitesseY" type="Float32" format="ascii">