<?xml version="1.0"?>
<VTKFile type="PolyData">
	<PolyData>
		<Piece NumberOfPoints="1206" NumberOfPolys="1000">
			<Points>
				<DataArray type="Float32" NumberOfComponents="3" format="ascii">
 0 0 0 0.02 0 0 0.04 0 0 0.06 0 0 0.08 0 0 0.1 0 0 0 0.005 0 0.02 0.005 0 0.04 0.005 0 0.06 0.005 0 0.08 0.005 0 0.1 0.005 0 0 0.01 0 0.02 0.01 0 0.04 0.01 0 0.06 0.01 0 0.08 0.01 0 0.1 0.01 0 0 0.015 0 0.02 0.015 0 0.04 0.015 0 0.06 0.015 0 0.08 0.015 0 0.1 0.015 0 0 0.02 0 0.02 0.02 0 0.04 0.02 0 0.06 0.02 0 0.08 0.02 0 0.1 0.02 0 0 0.025 0 0.02 0.025 0 0.04 0.025 0 0.06 0.025 0 0.08 0.025 0 0.1 0.025 0 0 0.03 0 0.02 0.03 0 0.04 0.03 0 0.06 0.03 0 0.08 0.03 0 0.1 0.03 0 0 0.035 0 0.02 0.035 0 0.04 0.035 0 0.06 0.035 0 0.08 0.035 0 0.1 0.035 0 0 0.04 0 0.02 0.04 0 0.04 0.04 0 0.06 0.04 0 0.08 0.04 0 0.1 0.04 0 0 0.045 0 0.02 0.045 0 0.04 0.045 0 0.06 0.045 0 0.08 0.045 0 0.1 0.045 0 0 0.05 0 0.02 0.05 0 0.04 0.05 0 0.06 0.05 0 0.08 0.05 0 0.1 0.05 0 0 0.055 0 0.02 0.055 0 0.04 0.055 0 0.06 0.055 0 0.08 0.055 0 0.1 0.055 0 0 0.06 0 0.02 0.06 0 0.04 0.06 0 0.06 0.06 0 0.08 0.06 0 0.1 0.06 0 0 0.065 0 0.02 0.065 0 0.04 0.065 0 0.06 0.065 0 0.08 0.065 0 0.1 0.065 0 0 0.07 0 0.02 0.07 0 0.04 0.07 0 0.06 0.07 0 0.08 0.07 0 0.1 0.07 0 0 0.075 0 0.02 0.075 0 0.04 0.075 0 0.06 0.075 0 0.08 0.075 0 0.1 0.075 0 0 0.08 0 0.02 0.08 0 0.04 0.08 0 0.06 0.08 0 0.08 0.08 0 0.1 0.08 0 0 0.085 0 0.02 0.085 0 0.04 0.085 0 0.06 0.085 0 0.08 0.085 0 0.1 0.085 0 0 0.09 0 0.02 0.09 0 0.04 0.09 0 0.06 0.09 0 0.08 0.09 0 0.1 0.09 0 0 0.095 0 0.02 0.095 0 0.04 0.095 0 0.06 0.095 0 0.08 0.095 0 0.1 0.095 0 0 0.1 0 0.02 0.1 0 0.04 0.1 0 0.06 0.1 0 0.08 0.1 0 0.1 0.1 0 0 0.105 0 0.02 0.105 0 0.04 0.105 0 0.06 0.105 0 0.08 0.105 0 0.1 0.105 0 0 0.11 0 0.02 0.11 0 0.04 0.11 0 0.06 0.11 0 0.08 0.11 0 0.1 0.11 0 0 0.115 0 0.02 0.115 0 0.04 0.115 0 0.06 0.115 0 0.08 0.115 0 0.1 0.115 0 0 0.12 0 0.02 0.12 0 0.04 0.12 0 0.06 0.12 0 0.08 0.12 0 0.1 0.12 0 0 0.125 0 0.02 0.125 0 0.04 0.125 0 0.06 0.125 0 0.08 0.125 0 0.1 0.125 0 0 0.13 0 0.02 0.13 0 0.04 0.13 0 0.06 0.13 0 0.08 0.13 0 0.1 0.13 0 0 0.135 0 0.02 0.135 0 0.04 0.135 0 0.06 0.135 0 0.08 0.135 0 0.1 0.135 0 0 0.14 0 0.02 0.14 0 0.04 0.14 0 0.06 0.14 0 0.08 0.14 0 0.1 0.14 0 0 0.145 0 0.02 0.145 0 0.04 0.145 0 0.06 0.145 0 0.08 0.145 0 0.1 0.145 0 0 0.15 0 0.02 0.15 0 0.04 0.15 0 0.06 0.15 0 0.08 0.15 0 0.1 0.15 0 0 0.155 0 0.02 0.155 0 0.04 0.155 0 0.06 0.155 0 0.08 0.155 0 0.1 0.155 0 0 0.16 0 0.02 0.16 0 0.04 0.16 0 0.06 0.16 0 0.08 0.16 0 0.1 0.16 0 0 0.165 0 0.02 0.165 0 0.04 0.165 0 0.06 0.165 0 0.08 0.165 0 0.1 0.165 0 0 0.17 0 0.02 0.17 0 0.04 0.17 0 0.06 0.17 0 0.08 0.17 0 0.1 0.17 0 0 0.175 0 0.02 0.175 0 0.04 0.175 0 0.06 0.175 0 0.08 0.175 0 0.1 0.175 0 0 0.18 0 0.02 0.18 0 0.04 0.18 0 0.06 0.18 0 0.08 0.18 0 0.1 0.18 0 0 0.185 0 0.02 0.185 0 0.04 0.185 0 0.06 0.185 0 0.08 0.185 0 0.1 0.185 0 0 0.19 0 0.02 0.19 0 0.04 0.19 0 0.06 0.19 0 0.08 0.19 0 0.1 0.19 0 0 0.195 0 0.02 0.195 0 0.04 0.195 0 0.06 0.195 0 0.08 0.195 0 0.1 0.195 0 0 0.2 0 0.02 0.2 0 0.04 0.2 0 0.06 0.2 0 0.08 0.2 0 0.1 0.2 0 0 0.205 0 0.02 0.205 0 0.04 0.205 0 0.06 0.205 0 0.08 0.205 0 0.1 0.205 0 0 0.21 0 0.02 0.21 0 0.04 0.21 0 0.06 0.21 0 0.08 0.21 0 0.1 0.21 0 0 0.215 0 0.02 0.215 0 0.04 0.215 0 0.06 0.215 0 0.08 0.215 0 0.1 0.215 0 0 0.22 0 0.02 0.22 0 0.04 0.22 0 0.06 0.22 0 0.08 0.22 0 0.1 0.22 0 0 0.225 0 0.02 0.225 0 0.04 0.225 0 0.06 0.225 0 0.08 0.225 0 0.1 0.225 0 0 0.23 0 0.02 0.23 0 0.04 0.23 0 0.06 0.23 0 0.08 0.23 0 0.1 0.23 0 0 0.235 0 0.02 0.235 0 0.04 0.235 0 0.06 0.235 0 0.08 0.235 0 0.1 0.235 0 0 0.24 0 0.02 0.24 0 0.04 0.24 0 0.06 0.24 0 0.08 0.24 0 0.1 0.24 0 0 0.245 0 0.02 0.245 0 0.04 0.245 0 0.06 0.245 0 0.08 0.245 0 0.1 0.245 0 0 0.25 0 0.02 0.25 0 0.04 0.25 0 0.06 0.25 0 0.08 0.25 0 0.1 0.25 0 0 0.255 0 0.02 0.255 0 0.04 0.255 0 0.06 0.255 0 0.08 0.255 0 0.1 0.255 0 0 0.26 0 0.02 0.26 0 0.04 0.26 0 0.06 0.26 0 0.08 0.26 0 0.1 0.26 0 0 0.265 0 0.02 0.265 0 0.04 0.265 0 0.06 0.265 0 0.08 0.265 0 0.1 0.265 0 0 0.27 0 0.02 0.27 0 0.04 0.27 0 0.06 0.27 0 0.08 0.27 0 0.1 0.27 0 0 0.275 0 0.02 0.275 0 0.04 0.275 0 0.06 0.275 0 0.08 0.275 0 0.1 0.275 0 0 0.28 0 0.02 0.28 0 0.04 0.28 0 0.06 0.28 0 0.08 0.28 0 0.1 0.28 0 0 0.285 0 0.02 0.285 0 0.04 0.285 0 0.06 0.285 0 0.08 0.285 0 0.1 0.285 0 0 0.29 0 0.02 0.29 0 0.04 0.29 0 0.06 0.29 0 0.08 0.29 0 0.1 0.29 0 0 0.295 0 0.02 0.295 0 0.04 0.295 0 0.06 0.295 0 0.08 0.295 0 0.1 0.295 0 0 0.3 0 0.02 0.3 0 0.04 0.3 0 0.06 0.3 0 0.08 0.3 0 0.1 0.3 0 0 0.305 0 0.02 0.305 0 0.04 0.305 0 0.06 0.305 0 0.08 0.305 0 0.1 0.305 0 0 0.31 0 0.02 0.31 0 0.04 0.31 0 0.06 0.31 0 0.08 0.31 0 0.1 0.31 0 0 0.315 0 0.02 0.315 0 0.04 0.315 0 0.06 0.315 0 0.08 0.315 0 0.1 0.315 0 0 0.32 0 0.02 0.32 0 0.04 0.32 0 0.06 0.32 0 0.08 0.32 0 0.1 0.32 0 0 0.325 0 0.02 0.325 0 0.04 0.325 0 0.06 0.325 0 0.08 0.325 0 0.1 0.325 0 0 0.33 0 0.02 0.33 0 0.04 0.33 0 0.06 0.33 0 0.08 0.33 0 0.1 0.33 0 0 0.335 0 0.02 0.335 0 0.04 0.335 0 0.06 0.335 0 0.08 0.335 0 0.1 0.335 0 0 0.34 0 0.02 0.34 0 0.04 0.34 0 0.06 0.34 0 0.08 0.34 0 0.1 0.34 0 0 0.345 0 0.02 0.345 0 0.04 0.345 0 0.06 0.345 0 0.08 0.345 0 0.1 0.345 0 0 0.35 0 0.02 0.35 0 0.04 0.35 0 0.06 0.35 0 0.08 0.35 0 0.1 0.35 0 0 0.355 0 0.02 0.355 0 0.04 0.355 0 0.06 0.355 0 0.08 0.355 0 0.1 0.355 0 0 0.36 0 0.02 0.36 0 0.04 0.36 0 0.06 0.36 0 0.08 0.36 0 0.1 0.36 0 0 0.365 0 0.02 0.365 0 0.04 0.365 0 0.06 0.365 0 0.08 0.365 0 0.1 0.365 0 0 0.37 0 0.02 0.37 0 0.04 0.37 0 0.06 0.37 0 0.08 0.37 0 0.1 0.37 0 0 0.375 0 0.02 0.375 0 0.04 0.375 0 0.06 0.375 0 0.08 0.375 0 0.1 0.375 0 0 0.38 0 0.02 0.38 0 0.04 0.38 0 0.06 0.38 0 0.08 0.38 0 0.1 0.38 0 0 0.385 0 0.02 0.385 0 0.04 0.385 0 0.06 0.385 0 0.08 0.385 0 0.1 0.385 0 0 0.39 0 0.02 0.39 0 0.04 0.39 0 0.06 0.39 0 0.08 0.39 0 0.1 0.39 0 0 0.395002 0 0.02 0.395002 0 0.04 0.395002 0 0.06 0.395002 0 0.08 0.395002 0 0.1 0.395002 0 0 0.400007 0 0.02 0.400007 0 0.04 0.400007 0 0.06 0.400007 0 0.08 0.400007 0 0.1 0.400007 0 0 0.405027 0 0.02 0.405027 0 0.04 0.405027 0 0.06 0.405027 0 0.08 0.405027 0 0.1 0.405027 0 0 0.410084 0 0.02 0.410084 0 0.04 0.410084 0 0.06 0.410084 0 0.08 0.410084 0 0.1 0.410084 0 0 0.41522 0 0.02 0.41522 0 0.04 0.41522 0 0.06 0.41522 0 0.08 0.41522 0 0.1 0.41522 0 0 0.420495 0 0.02 0.420495 0 0.04 0.420495 0 0.06 0.420495 0 0.08 0.420495 0 0.1 0.420495 0 0 0.425972 0 0.02 0.425972 0 0.04 0.425972 0 0.06 0.425972 0 0.08 0.425972 0 0.1 0.425972 0 0 0.431709 0 0.02 0.431709 0 0.04 0.431709 0 0.06 0.431709 0 0.08 0.431709 0 0.1 0.431709 0 0 0.43776 0 0.02 0.43776 0 0.04 0.43776 0 0.06 0.43776 0 0.08 0.43776 0 0.1 0.43776 0 0 0.444179 0 0.02 0.444179 0 0.04 0.444179 0 0.06 0.444179 0 0.08 0.444179 0 0.1 0.444179 0 0 0.451025 0 0.02 0.451025 0 0.04 0.451025 0 0.06 0.451025 0 0.08 0.451025 0 0.1 0.451025 0 0 0.458373 0 0.02 0.458373 0 0.04 0.458373 0 0.06 0.458373 0 0.08 0.458373 0 0.1 0.458373 0 0 0.46631 0 0.02 0.46631 0 0.04 0.46631 0 0.06 0.46631 0 0.08 0.46631 0 0.1 0.46631 0 0 0.474947 0 0.02 0.474947 0 0.04 0.474947 0 0.06 0.474947 0 0.08 0.474947 0 0.1 0.474947 0 0 0.48442 0 0.02 0.48442 0 0.04 0.48442 0 0.06 0.48442 0 0.08 0.48442 0 0.1 0.48442 0 0 0.494882 0 0.02 0.494882 0 0.04 0.494882 0 0.06 0.494882 0 0.08 0.494882 0 0.1 0.494882 0 0 0.506427 0 0.02 0.506427 0 0.04 0.506427 0 0.06 0.506427 0 0.08 0.506427 0 0.1 0.506427 0 0 0.518757 0 0.02 0.518757 0 0.04 0.518757 0 0.06 0.518757 0 0.08 0.518757 0 0.1 0.518757 0 0 0.53098 0 0.02 0.53098 0 0.04 0.53098 0 0.06 0.53098 0 0.08 0.53098 0 0.1 0.53098 0 0 0.542953 0 0.02 0.542953 0 0.04 0.542953 0 0.06 0.542953 0 0.08 0.542953 0 0.1 0.542953 0 0 0.554772 0 0.02 0.554772 0 0.04 0.554772 0 0.06 0.554772 0 0.08 0.554772 0 0.1 0.554772 0 0 0.566566 0 0.02 0.566566 0 0.04 0.566566 0 0.06 0.566566 0 0.08 0.566566 0 0.1 0.566566 0 0 0.569188 0 0.02 0.569188 0 0.04 0.569188 0 0.06 0.569188 0 0.08 0.569188 0 0.1 0.569188 0 0 0.571736 0 0.02 0.571736 0 0.04 0.571736 0 0.06 0.571736 0 0.08 0.571736 0 0.1 0.571736 0 0 0.574236 0 0.02 0.574236 0 0.04 0.574236 0 0.06 0.574236 0 0.08 0.574236 0 0.1 0.574236 0 0 0.576706 0 0.02 0.576706 0 0.04 0.576706 0 0.06 0.576706 0 0.08 0.576706 0 0.1 0.576706 0 0 0.579153 0 0.02 0.579153 0 0.04 0.579153 0 0.06 0.579153 0 0.08 0.579153 0 0.1 0.579153 0 0 0.581583 0 0.02 0.581583 0 0.04 0.581583 0 0.06 0.581583 0 0.08 0.581583 0 0.1 0.581583 0 0 0.584001 0 0.02 0.584001 0 0.04 0.584001 0 0.06 0.584001 0 0.08 0.584001 0 0.1 0.584001 0 0 0.58641 0 0.02 0.58641 0 0.04 0.58641 0 0.06 0.58641 0 0.08 0.58641 0 0.1 0.58641 0 0 0.588812 0 0.02 0.588812 0 0.04 0.588812 0 0.06 0.588812 0 0.08 0.588812 0 0.1 0.588812 0 0 0.591209 0 0.02 0.591209 0 0.04 0.591209 0 0.06 0.591209 0 0.08 0.591209 0 0.1 0.591209 0 0 0.593602 0 0.02 0.593602 0 0.04 0.593602 0 0.06 0.593602 0 0.08 0.593602 0 0.1 0.593602 0 0 0.595993 0 0.02 0.595993 0 0.04 0.595993 0 0.06 0.595993 0 0.08 0.595993 0 0.1 0.595993 0 0 0.59838 0 0.02 0.59838 0 0.04 0.59838 0 0.06 0.59838 0 0.08 0.59838 0 0.1 0.59838 0 0 0.600767 0 0.02 0.600767 0 0.04 0.600767 0 0.06 0.600767 0 0.08 0.600767 0 0.1 0.600767 0 0 0.603153 0 0.02 0.603153 0 0.04 0.603153 0 0.06 0.603153 0 0.08 0.603153 0 0.1 0.603153 0 0 0.605544 0 0.02 0.605544 0 0.04 0.605544 0 0.06 0.605544 0 0.08 0.605544 0 0.1 0.605544 0 0 0.607941 0 0.02 0.607941 0 0.04 0.607941 0 0.06 0.607941 0 0.08 0.607941 0 0.1 0.607941 0 0 0.610357 0 0.02 0.610357 0 0.04 0.610357 0 0.06 0.610357 0 0.08 0.610357 0 0.1 0.610357 0 0 0.612793 0 0.02 0.612793 0 0.04 0.612793 0 0.06 0.612793 0 0.08 0.612793 0 0.1 0.612793 0 0 0.61528 0 0.02 0.61528 0 0.04 0.61528 0 0.06 0.61528 0 0.08 0.61528 0 0.1 0.61528 0 0 0.617813 0 0.02 0.617813 0 0.04 0.617813 0 0.06 0.617813 0 0.08 0.617813 0 0.1 0.617813 0 0 0.620451 0 0.02 0.620451 0 0.04 0.620451 0 0.06 0.620451 0 0.08 0.620451 0 0.1 0.620451 0 0 0.623191 0 0.02 0.623191 0 0.04 0.623191 0 0.06 0.623191 0 0.08 0.623191 0 0.1 0.623191 0 0 0.626136 0 0.02 0.626136 0 0.04 0.626136 0 0.06 0.626136 0 0.08 0.626136 0 0.1 0.626136 0 0 0.629313 0 0.02 0.629313 0 0.04 0.629313 0 0.06 0
[...]
			<PointData Scalars="VitesseX">
				<DataArray Name="VitesseX" type="Float32" format="ascii">
 0 -2.6076e-15 -2.55485e-15 -5.48155e-15 -1.13981e-14 0 0 -2.68906e-15 -2.62407e-15 -6.04794e-15 -1.08767e-14 0 0 -2.71291e-15 -3.03044e-15 -6.70003e-15 -1.09913e-14 0 0 -1.98611e-15 -4.7581e-15 -5.7977e-15 -1.27905e-14 0 0 -2.0276e-15 -6.06636e-15 -6.50321e-15 -1.2515e-14 0 0 -2.45956e-15 -7.03269e-15 -6.84213e-15 -1.19797e-14 0 0 -3.68413e-15 -8.06693e-15 -5.25435e-15 -1.2544e-14 0 0 -5.39622e-15 -7.98561e-15 -5.59371e-15 -1.27376e-14 0 0 -6.53764e-15 -8.00015e-15 -6.26708e-15 -1.36623e-14 0 0 -7.20076e-15 -8.23238e-15 -7.05342e-15 -1.40974e-14 0 0 -8.48197e-15 -5.81959e-15 -1.06184e-14 -1.22491e-14 0 0 -9.69109e-15 -4.97347e-15 -1.13602e-14 -1.16386e-14 0 0 -9.46755e-15 -5.62125e-15 -9.34429e-15 -1.20515e-14 0 0 -9.18928e-15 -5.18754e-15 -8.06454e-15 -1.04266e-14 0 0 -6.69855e-15 -7.93825e-15 -3.56599e-15 -1.04401e-14 0 0 -3.51576e-15 -8.36328e-15 -4.18088e-15 -7.28885e-15 0 0 -3.28721e-15 -7.63738e-15 -5.87794e-15 -2.56626e-15 0 0 -4.89846e-15 -3.9544e-15 -4.94331e-15 -4.96712e-15 0 0 -5.54893e-15 -1.31655e-15 -6.64021e-15 -6.62155e-15 0 0 -3.31065e-15 -6.65304e-15 -4.82836e-15 -7.94343e-15 0 0 -2.97227e-15 -9.03138e-15 -3.50931e-15 -1.15993e-14 0 0 -5.26583e-15 -8.65983e-15 -9.23168e-15 -1.26598e-14 0 0 -9.07514e-15 -6.89626e-15 -2.10147e-14 -1.13497e-14 0 0 -1.08682e-14 -8.67223e-15 -2.08943e-14 -1.89494e-14 0 0 -9.27696e-15 -1.66228e-14 -1.6299e-14 -2.36723e-14 0 0 -1.04138e-14 -1.98498e-14 -1.86601e-14 -2.54885e-14 0 0 -1.20624e-14 -1.76854e-14 -1.78865e-14 -2.82387e-14 0 0 -1.27916e-14 -1.73307e-14 -1.85726e-14 -2.51115e-14 0 0 -1.18647e-14 -1.86303e-14 -2.28514e-14 -2.16002e-14 0 0 -1.2174e-14 -1.64111e-14 -2.80296e-14 -1.66445e-14 0 0 -1.41123e-14 -1.03231e-14 -2.77229e-14 -1.70187e-14 0 0 -1.17876e-14 -9.15735e-15 -2.23427e-14 -1.68009e-14 0 0 -9.41509e-15 -1.23499e-14 -1.70164e-14 -1.22826e-14 0 0 -9.73612e-15 -1.19556e-14 -1.42243e-14 -9.78979e-15 0 0 -7.09028e-15 -1.35851e-14 -8.37961e-15 -1.71833e-14 0 0 -9.99559e-15 -1.26881e-14 -4.06503e-15 -1.88265e-14 0 0 -8.77335e-15 -1.41953e-14 -3.8879e-15 -1.5001e-14 0 0 -1.10468e-14 -1.04644e-14 -1.18225e-14 -5.99887e-15 0 0 -1.6259e-14 -5.02338e-15 -1.15193e-14 -5.19709e-15 0 0 -1.17849e-14 -7.0888e-15 -6.86631e-16 -9.08576e-15 0 0 -8.74615e-15 -6.17619e-15 3.31748e-15 -3.43727e-15 0 0 -7.06223e-15 -6.41416e-15 3.02442e-15 1.35507e-15 0 0 -2.07701e-15 -1.38804e-14 1.05897e-14 -3.83303e-15 0 0 -5.38934e-15 -1.27235e-14 1.40396e-14 -1.30466e-14 0 0 -7.11974e-15 -1.21436e-14 4.25122e-15 -1.59716e-14 0 0 5.44376e-16 -1.60148e-14 -8.56769e-15 -1.96032e-14 0 0 -7.84719e-16 -1.02652e-14 -2.32826e-14 -1.09005e-14 0 0 -4.29447e-15 -4.43614e-15 -3.57934e-14 -6.64935e-15 0 0 -2.51795e-15 -1.33687e-16 -4.03449e-14 -2.08473e-14 0 0 -6.37678e-15 -1.21768e-15 -2.96062e-14 -3.28379e-14 0 0 -6.90753e-15 -1.56069e-14 -7.81913e-15 -4.66316e-14 0 0 -3.5516e-15 -1.46962e-14 -1.68573e-14 -4.25626e-14 0 0 -9.34261e-15 -1.04568e-14 -3.48385e-14 -3.05826e-14 0 0 -1.19142e-14 -2.1963e-14 -2.67933e-14 -2.66434e-14 0 0 -5.54223e-15 -2.68387e-14 -2.79705e-14 -2.00398e-14 0 0 -6.48923e-15 -1.81964e-14 -4.20933e-14 -1.62243e-14 0 0 -1.01049e-14 -1.57057e-14 -4.31362e-14 -2.29654e-14 0 0 -8.30469e-15 -1.74061e-14 -4.67508e-14 -3.39001e-14 0 0 -5.77871e-15 -1.99963e-14 -4.83922e-14 -3.54591e-14 0 0 2.08409e-15 -3.04589e-14 -4.25848e-14 -3.05748e-14 0 0 1.13465e-15 -2.50871e-14 -3.94098e-14 -2.80763e-14 0 0 -1.52314e-14 -7.81649e-15 -3.54059e-14 -2.85198e-14 0 0 -1.96952e-14 -3.34602e-15 -4.89596e-14 -1.33462e-14 0 0 -3.71956e-15 -2.64716e-14 -4.69116e-14 -1.45466e-14 0 0 -3.05107e-15 -2.53024e-14 -3.53327e-14 -3.62358e-14 0 0 -1.02314e-14 -1.26534e-14 -3.5257e-14 -4.44208e-14 0 0 -7.85741e-15 -2.79629e-14 -3.31e-14 -3.83938e-14 0 0 6.5744e-15 -4.64072e-14 -1.52664e-14 -5.1753e-14 0 0 1.46295e-14 -3.04784e-14 -1.11698e-14 -5.51027e-14 0 0 1.28588e-14 -1.20268e-15 -2.03514e-14 -2.98671e-14 0 0 1.47864e-14 1.43707e-14 -6.37793e-15 -2.09466e-14 0 0 2.69481e-14 1.69061e-14 9.50675e-15 -2.88978e-14 0 0 4.29517e-14 1.6678e-14 1.02694e-14 -3.7494e-14 0 0 5.16389e-14 2.25313e-14 -1.53053e-15 -2.68468e-14 0 0 3.77187e-14 4.00238e-14 -6.8867e-15 -4.03517e-15 0 0 3.10566e-14 4.13431e-14 7.63456e-15 -1.10884e-14 0 0 3.79801e-14 3.09668e-14 1.3238e-14 -9.57023e-15 0 0 2.7052e-14 1.70207e-14 2.5455e-14 4.58909e-17 0 0 1.64188e-14 1.58268e-14 1.4865e-14 4.37474e-15 0 0 1.26699e-14 1.72729e-14 1.93512e-14 -1.58801e-15 0 0 7.7485e-15 6.2204e-15 4.39317e-14 -1.35424e-14 0 0 1.47214e-15 -4.5747e-15 2.71443e-14 -5.21039e-15 0 0 4.30684e-16 4.16159e-16 1.98502e-14 -8.92278e-15 0 0 4.77071e-15 3.42011e-14 -4.58902e-15 -1.04809e-14 0 0 5.48212e-16 2.82646e-14 -1.62302e-14 1.98738e-15 0 0 1.28401e-14 2.76657e-15 4.41129e-15 2.81184e-15 0 0 2.07924e-14 -9.388e-15 1.38176e-14 5.77583e-15 0 0 -5.81127e-15 -2.65459e-15 2.2596e-14 9.14797e-16 0 0 -7.1282e-15 6.01177e-15 4.20011e-14 -2.35919e-14 0 0 -1.59636e-15 8.05356e-15 2.72805e-14 -1.5823e-14 0 0 6.57908e-15 -8.49093e-15 5.73538e-15 3.29797e-15 0 0 8.83829e-17 -5.95646e-15 6.81374e-15 -9.55233e-16 0 0 -1.17476e-15 -1.9124e-15 -6.77706e-15 1.76214e-14 0 0 1.41787e-14 -2.56653e-14 -9.68092e-15 3.29385e-14 0 0 5.81179e-15 -2.18317e-14 1.04259e-15 -3.77251e-15 0 0 -9.33611e-15 1.58504e-14 -2.76857e-14 -1.79227e-15 0 0 7.85401e-16 -7.20929e-15 -1.23131e-15 -1.16878e-14 0 0 1.5951e-15 -1.97834e-14 1.80863e-14 -2.99837e-14 0 0 -2.13777e-15 1.8861e-15 9.40602e-16 -1.13046e-15 0 0 8.64174e-15 5.85084e-15 8.52234e-15 2.23064e-14 0 0 1.03304e-14 1.98002e-14 2.83863e-14 1.92978e-14 0 0 -1.17457e-14 -4.75793e-15 1.00055e-13 -5.24144e-14 0 0 -2.88763e-14 6.38118e-15 1.03231e-13 -6.29241e-14 0 0 -1.85977e-14 5.23024e-14 5.88784e-14 -2.99772e-14 0 0 1.07395e-16 1.98209e-14 5.48329e-14 3.24612e-14 0 0 1.47803e-14 2.78604e-14 4.88583e-14 5.85568e-14 0 0 3.23445e-14 2.57249e-14 8.71071e-14 1.06689e-15 0 0 5.15231e-14 -9.27022e-15 1.2342e-13 9.70629e-15 0 0 6.89813e-14 -1.79732e-14 9.97927e-14 6.70796e-14 0 0 5.03408e-14 -5.42682e-15 4.85038e-14 7.19654e-14 0 0 1.58832e-14 2.42354e-14 -3.8653e-14 1.16361e-13 0 0 -3.20718e-14 6.63276e-14 -6.76768e-14 7.01371e-14 0 0 -3.70768e-14 5.2422e-14 -6.11844e-14 -2.12995e-14 0 0 -2.52945e-14 2.19691e-14 -8.56586e-14 -7.33999e-15 0 0 -6.35955e-14 6.85262e-14 -1.60415e-13 7.74301e-14 0 0 -4.4424e-14 1.56911e-15 -7.97596e-14 8.4046e-14 0 0 -8.99831e-15 -8.30952e-14 5.96409e-14 -3.37922e-15 0 0 -4.9097e-14 -1.67089e-14 2.61594e-14 -1.61061e-14 0 0 -8.02654e-14 7.83066e-14 -3.78929e-14 -1.35582e-14 0 0 -2.40974e-14 4.57942e-14 -2.86793e-14 -1.05839e-14 0 0 2.04186e-14 3.015e-14 -4.56176e-14 3.02898e-14 0 0 2.23258e-14 6.2728e-14 -8.86018e-14 -2.26681e-15 0 0 3.01657e-14 2.50962e-14 -9.46503e-14 -1.40466e-14 0 0 1.28529e-14 -1.52698e-14 -7.50208e-14 4.4929e-14 0 0 -2.24888e-14 1.69341e-15 -3.87546e-14 -1.87858e-14 0 0 -5.61785e-15 -1.15245e-14 7.69923e-15 -8.59748e-14 0 0 -1.29606e-14 -2.73919e-14 8.67256e-15 -2.94317e-14 0 0 -1.07715e-14 8.90922e-15 -4.52268e-14 -2.66224e-14 0 0 1.71758e-14 1.1667e-14 -5.74211e-14 -1.35385e-14 0 0 1.0961e-14 -1.71769e-14 -1.10113e-14 7.23929e-15 0 0 1.64905e-14 -2.79647e-14 1.34747e-14 -2.46375e-14 0 0 2.37712e-14 -1.81291e-15 -8.09457e-15 -7.18362e-15 0 0 2.69593e-14 1.53299e-14 -1.78832e-14 -2.53264e-15 0 0 2.31638e-14 2.56316e-14 -2.1733e-14 -1.77097e-14 0 0 2.8405e-14 2.84476e-14 -3.18976e-14 -1.08797e-14 0 0 4.09125e-14 1.77063e-14 -4.24406e-14 -1.72913e-14 0 0 3.74522e-14 2.80538e-14 -3.80223e-14 -3.09316e-14 0 0 2.69586e-14 4.14763e-14 -3.51304e-14 -2.36155e-14 0 0 2.55698e-14 3.2984e-14 -4.39305e-14 -1.88412e-14 0 0 3.07423e-14 1.92204e-14 -4.28814e-14 -2.36583e-14 0 0 4.21308e-14 6.41238e-15 -4.77413e-14 -4.23102e-15 0 0 4.04416e-14 1.97932e-14 -7.13038e-14 3.15208e-15 0 0 1.78389e-14 4.1851e-14 -9.63403e-14 -5.69243e-15 0 0 1.42053e-14 1.9704e-14 -8.45508e-14 6.47253e-15 0 0 2.05152e-14 -2.67442e-14 -5.75662e-14 -5.50669e-15 0 0 9.26895e-15 -4.61144e-14 -5.62585e-14 -4.37087e-14 0 0 -8.94154e-15 -4.15429e-14 -8.75269e-14 -5.57063e-14 0 0 -2.90942e-14 -1.86632e-14 -1.36321e-13 -4.0737e-14 0 0 -3.46418e-14 -3.34305e-14 -1.2259e-13 -6.11234e-14 0 0 -2.56088e-14 -8.01611e-14 -1.06093e-13 -7.18839e-14 0 0 -1.89453e-14 -1.13919e-13 -1.15014e-13 -5.89174e-14 0 0 -4.01762e-14 -8.31184e-14 -1.43091e-13 -7.58225e-14 0 0 -4.35383e-14 -5.26155e-14 -1.70823e-13 -1.03482e-13 0 0 -4.0408e-14 -4.92338e-14 -1.73227e-13 -1.19216e-13 0 0 -4.51982e-14 -7.68406e-14 -1.39389e-13 -8.77841e-14 0 0 -5.64604e-14 -1.02184e-13 -1.30866e-13 -3.15523e-14 0 0 -7.06398e-14 -7.82305e-14 -1.72459e-13 1.10985e-14 0 0 -4.46988e-14 -1.00549e-13 -1.83991e-13 3.43951e-14 0 0 -2.79851e-14 -1.32037e-13 -1.72725e-13 2.47231e-15 0 0 -1.8087e-14 -1.62727e-13 -1.22408e-13 -5.1143e-14 0 0 -5.31318e-14 -1.24255e-13 -1.07217e-13 -4.60911e-14 0 0 -1.03922e-13 -3.79383e-14 -1.42885e-13 -2.35425e-14 0 0 -5.26996e-14 -8.91848e-14 -1.13993e-13 -4.17519e-14 0 0 -4.18855e-14 -1.05735e-13 -9.07041e-14 -7.09763e-14 0 0 -8.17475e-14 -4.04293e-14 -1.06656e-13 -1.05787e-13 0 0 -6.41694e-14 -3.85163e-14 -9.01693e-14 -1.44108e-13 0 0 -5.15927e-14 -3.93956e-14 -8.50393e-14 -1.52194e-13 0 0 -3.49985e-14 -5.25596e-14 -8.51501e-14 -1.41025e-13 0 0 -1.84222e-14 -7.0512e-14 -1.29181e-13 -6.37383e-14 0 0 -2.12497e-14 -7.55919e-14 -1.89872e-13 -5.96004e-15 0 0 -3.82785e-14 -1.06204e-13 -1.49555e-13 -7.97744e-14 0 0 -6.7993e-14 -1.14851e-13 -9.76478e-14 -1.47855e-13 0 0 -5.28691e-14 -1.03158e-13 -1.04581e-13 -1.39527e-13 0 0 -1.36525e-14 -9.71883e-14 -1.17572e-13 -1.42113e-13 0 0 -2.61357e-14 -5.36478e-14 -1.62426e-13 -1.15951e-13 0 0 -3.02851e-14 -6.34367e-14 -1.46903e-13 -1.24491e-13 0 0 9.95717e-16 -1.13826e-13 -9.84537e-14 -1.64656e-13 0 0 -4.69376e-14 -6.68205e-14 -1.11396e-13 -1.3818e-13 0 0 -6.62658e-14 -4.81513e-14 -1.2711e-13 -1.09089e-13 0 0 -2.12185e-14 -9.0923e-14 -1.25351e-13 -1.25337e-13 0 0 -4.96776e-14 -6.72909e-14 -1.11412e-13 -1.31057e-13 0 0 -6.44242e-14 -5.51698e-14 -9.09758e-14 -1.47906e-13 0 0 -4.89276e-14 -5.35065e-14 -9.2987e-14 -1.90213e-13 0 0 -3.41999e-14 -5.31459e-14 -1.1755e-13 -1.50581e-13 0 0 -1.35324e-14 -9.25722e-14 -1.24458e-13 -8.89111e-14 0 0 7.7776e-15 -9.62937e-14 -1.39321e-13 -1.00638e-13 0 0 2.50797e-14 -7.35328e-14 -2.00869e-13 -7.91791e-14 0 0 1.34723e-14 -9.67777e-14 -1.69752e-13 -6.44213e-14 0 0 1.14601e-14 -1.50415e-13 -5.20696e-14 -9.40735e-14 0 0 2.51861e-15 -1.47998e-13 -4.04271e-14 -8.66181e-14 0 0 -2.70866e-14 -1.11909e-13 -7.85913e-14 -5.81288e-14 0 0 -2.81627e-14 -1.01853e-13 -1.22121e-13 4.60735e-15 0 0 -3.39761e-15 -1.26896e-13 -1.29883e-13 1.77375e-14 0 0 -1.92242e-14 -1.31424e-13 -1.03497e-13 -6.68124e-15 0 0 -5.52951e-14 -1.00608e-13 -1.25449e-13 4.41372e-16 0 0 -5.31991e-14 -8.5647e-14 -1.37451e-13 -3.34548e-14 0 0 -6.10519e-14 -8.65103e-14 -1.064e-13 -8.48671e-14 0 0 -4.76638e-14 -1.21586e-13 -8.27135e-14 -6.05587e-14 0 0 -7.09043e-15 -1.41908e-13 -9.45729e-14 -2.85093e-14 0 0 -1.73974e-14 -1.05799e-13 -1.02877e-13 -4.85741e-14 0 0 -4.12348e-14 -7.86519e-14 -9.76054e-14 -6.27675e-14 0
				</DataArray>
				<DataArray Name="VitesseY" type="Float32" format="ascii">