<?xml version="1.0"?>
<VTKFile type="PolyData">
	<PolyData>
		<Piece NumberOfPoints="1206" NumberOfPolys="1000">
			<Points>
				<DataArray type="Float32" NumberOfComponents="3" format="ascii">
 0 0 0 0.02 0 0 0.04 0 0 0.06 0 0 0.08 0 0 0.1 0 0 0 0.005 0 0.02 0.005 0 0.04 0.005 0 0.06 0.005 0 0.08 0.005 0 0.1 0.005 0 0 0.01 0 0.02 0.01 0 0.04 0.01 0 0.06 0.01 0 0.08 0.01 0 0.1 0.01 0 0 0.015 0 0.02 0.015 0 0.04 0.015 0 0.06 0.015 0 0.08 0.015 0 0.1 0.015 0 0 0.02 0 0.02 0.02 0 0.04 0.02 0 0.06 0.02 0 0.08 0.02 0 0.1 0.02 0 0 0.025 0 0.02 0.025 0 0.04 0.025 0 0.06 0.025 0 0.08 0.025 0 0.1 0.025 0 0 0.03 0 0.02 0.03 0 0.04 0.03 0 0.06 0.03 0 0.08 0.03 0 0.1 0.03 0 0 0.035 0 0.02 0.035 0 0.04 0.035 0 0.06 0.035 0 0.08 0.035 0 0.1 0.035 0 0 0.04 0 0.02 0.04 0 0.04 0.04 0 0.06 0.04 0 0.08 0.04 0 0.1 0.04 0 0 0.045 0 0.02 0.045 0 0.04 0.045 0 0.06 0.045 0 0.08 0.045 0 0.1 0.045 0 0 0.05 0 0.02 0.05 0 0.04 0.05 0 0.06 0.05 0 0.08 0.05 0 0.1 0.05 0 0 0.055 0 0.02 0.055 0 0.04 0.055 0 0.06 0.055 0 0.08 0.055 0 0.1 0.055 0 0 0.06 0 0.02 0.06 0 0.04 0.06 0 0.06 0.06 0 0.08 0.06 0 0.1 0.06 0 0 0.065 0 0.02 0.065 0 0.04 0.065 0 0.06 0.065 0 0.08 0.065 0 0.1 0.065 0 0 0.07 0 0.02 0.07 0 0.04 0.07 0 0.06 0.07 0 0.08 0.07 0 0.1 0.07 0 0 0.075 0 0.02 0.075 0 0.04 0.075 0 0.06 0.075 0 0.08 0.075 0 0.1 0.075 0 0 0.08 0 0.02 0.08 0 0.04 0.08 0 0.06 0.08 0 0.08 0.08 0 0.1 0.08 0 0 0.085 0 0.02 0.085 0 0.04 0.085 0 0.06 0.085 0 0.08 0.085 0 0.1 0.085 0 0 0.09 0 0.02 0.09 0 0.04 0.09 0 0.06 0.09 0 0.08 0.09 0 0.1 0.09 0 0 0.095 0 0.02 0.095 0 0.04 0.095 0 0.06 0.095 0 0.08 0.095 0 0.1 0.095 0 0 0.1 0 0.02 0.1 0 0.04 0.1 0 0.06 0.1 0 0.08 0.1 0 0.1 0.1 0 0 0.105 0 0.02 0.105 0 0.04 0.105 0 0.06 0.105 0 0.08 0.105 0 0.1 0.105 0 0 0.11 0 0.02 0.11 0 0.04 0.11 0 0.06 0.11 0 0.08 0.11 0 0.1 0.11 0 0 0.115 0 0.02 0.115 0 0.04 0.115 0 0.06 0.115 0 0.08 0.115 0 0.1 0.115 0 0 0.12 0 0.02 0.12 0 0.04 0.12 0 0.06 0.12 0 0.08 0.12 0 0.1 0.12 0 0 0.125 0 0.02 0.125 0 0.04 0.125 0 0.06 0.125 0 0.08 0.125 0 0.1 0.125 0 0 0.13 0 0.02 0.13 0 0.04 0.13 0 0.06 0.13 0 0.08 0.13 0 0.1 0.13 0 0 0.135 0 0.02 0.135 0 0.04 0.135 0 0.06 0.135 0 0.08 0.135 0 0.1 0.135 0 0 0.14 0 0.02 0.14 0 0.04 0.14 0 0.06 0.14 0 0.08 0.14 0 0.1 0.14 0 0 0.145 0 0.02 0.145 0 0.04 0.145 0 0.06 0.145 0 0.08 0.145 0 0.1 0.145 0 0 0.15 0 0.02 0.15 0 0.04 0.15 0 0.06 0.15 0 0.08 0.15 0 0.1 0.15 0 0 0.155 0 0.02 0.155 0 0.04 0.155 0 0.06 0.155 0 0.08 0.155 0 0.1 0.155 0 0 0.16 0 0.02 0.16 0 0.04 0.16 0 0.06 0.16 0 0.08 0.16 0 0.1 0.16 0 0 0.165 0 0.02 0.165 0 0.04 0.165 0 0.06 0.165 0 0.08 0.165 0 0.1 0.165 0 0 0.17 0 0.02 0.17 0 0.04 0.17 0 0.06 0.17 0 0.08 0.17 0 0.1 0.17 0 0 0.175 0 0.02 0.175 0 0.04 0.175 0 0.06 0.175 0 0.08 0.175 0 0.1 0.175 0 0 0.18 0 0.02 0.18 0 0.04 0.18 0 0.06 0.18 0 0.08 0.18 0 0.1 0.18 0 0 0.185 0 0.02 0.185 0 0.04 0.185 0 0.06 0.185 0 0.08 0.185 0 0.1 0.185 0 0 0.19 0 0.02 0.19 0 0.04 0.19 0 0.06 0.19 0 0.08 0.19 0 0.1 0.19 0 0 0.195 0 0.02 0.195 0 0.04 0.195 0 0.06 0.195 0 0.08 0.195 0 0.1 0.195 0 0 0.2 0 0.02 0.2 0 0.04 0.2 0 0.06 0.2 0 0.08 0.2 0 0.1 0.2 0 0 0.205 0 0.02 0.205 0 0.04 0.205 0 0.06 0.205 0 0.08 0.205 0 0.1 0.205 0 0 0.21 0 0.02 0.21 0 0.04 0.21 0 0.06 0.21 0 0.08 0.21 0 0.1 0.21 0 0 0.215 0 0.02 0.215 0 0.04 0.215 0 0.06 0.215 0 0.08 0.215 0 0.1 0.215 0 0 0.22 0 0.02 0.22 0 0.04 0.22 0 0.06 0.22 0 0.08 0.22 0 0.1 0.22 0 0 0.225 0 0.02 0.225 0 0.04 0.225 0 0.06 0.225 0 0.08 0.225 0 0.1 0.225 0 0 0.23 0 0.02 0.23 0 0.04 0.23 0 0.06 0.23 0 0.08 0.23 0 0.1 0.23 0 0 0.235 0 0.02 0.235 0 0.04 0.235 0 0.06 0.235 0 0.08 0.235 0 0.1 0.235 0 0 0.24 0 0.02 0.24 0 0.04 0.24 0 0.06 0.24 0 0.08 0.24 0 0.1 0.24 0 0 0.245 0 0.02 0.245 0 0.04 0.245 0 0.06 0.245 0 0.08 0.245 0 0.1 0.245 0 0 0.25 0 0.02 0.25 0 0.04 0.25 0 0.06 0.25 0 0.08 0.25 0 0.1 0.25 0 0 0.255 0 0.02 0.255 0 0.04 0.255 0 0.06 0.255 0 0.08 0.255 0 0.1 0.255 0 0 0.26 0 0.02 0.26 0 0.04 0.26 0 0.06 0.26 0 0.08 0.26 0 0.1 0.26 0 0 0.265 0 0.02 0.265 0 0.04 0.265 0 0.06 0.265 0 0.08 0.265 0 0.1 0.265 0 0 0.27 0 0.02 0.27 0 0.04 0.27 0 0.06 0.27 0 0.08 0.27 0 0.1 0.27 0 0 0.275001 0 0.02 0.275001 0 0.04 0.275001 0 0.06 0.275001 0 0.08 0.275001 0 0.1 0.275001 0 0 0.280003 0 0.02 0.280003 0 0.04 0.280003 0 0.06 0.280003 0 0.08 0.280003 0 0.1 0.280003 0 0 0.285009 0 0.02 0.285009 0 0.04 0.285009 0 0.06 0.285009 0 0.08 0.285009 0 0.1 0.285009 0 0 0.290022 0 0.02 0.290022 0 0.04 0.290022 0 0.06 0.290022 0 0.08 0.290022 0 0.1 0.290022 0 0 0.295053 0 0.02 0.295053 0 0.04 0.295053 0 0.06 0.295053 0 0.08 0.295053 0 0.1 0.295053 0 0 0.300113 0 0.02 0.300113 0 0.04 0.300113 0 0.06 0.300113 0 0.08 0.300113 0 0.1 0.300113 0 0 0.305221 0 0.02 0.305221 0 0.04 0.305221 0 0.06 0.305221 0 0.08 0.305221 0 0.1 0.305221 0 0 0.310394 0 0.02 0.310394 0 0.04 0.310394 0 0.06 0.310394 0 0.08 0.310394 0 0.1 0.310394 0 0 0.315652 0 0.02 0.315652 0 0.04 0.315652 0 0.06 0.315652 0 0.08 0.315652 0 0.1 0.315652 0 0 0.321008 0 0.02 0.321008 0 0.04 0.321008 0 0.06 0.321008 0 0.08 0.321008 0 0.1 0.321008 0 0 0.326474 0 0.02 0.326474 0 0.04 0.326474 0 0.06 0.326474 0 0.08 0.326474 0 0.1 0.326474 0 0 0.332062 0 0.02 0.332062 0 0.04 0.332062 0 0.06 0.332062 0 0.08 0.332062 0 0.1 0.332062 0 0 0.337779 0 0.02 0.337779 0 0.04 0.337779 0 0.06 0.337779 0 0.08 0.337779 0 0.1 0.337779 0 0 0.343635 0 0.02 0.343635 0 0.04 0.343635 0 0.06 0.343635 0 0.08 0.343635 0 0.1 0.343635 0 0 0.349638 0 0.02 0.349638 0 0.04 0.349638 0 0.06 0.349638 0 0.08 0.349638 0 0.1 0.349638 0 0 0.355799 0 0.02 0.355799 0 0.04 0.355799 0 0.06 0.355799 0 0.08 0.355799 0 0.1 0.355799 0 0 0.362128 0 0.02 0.362128 0 0.04 0.362128 0 0.06 0.362128 0 0.08 0.362128 0 0.1 0.362128 0 0 0.368634 0 0.02 0.368634 0 0.04 0.368634 0 0.06 0.368634 0 0.08 0.368634 0 0.1 0.368634 0 0 0.375332 0 0.02 0.375332 0 0.04 0.375332 0 0.06 0.375332 0 0.08 0.375332 0 0.1 0.375332 0 0 0.382232 0 0.02 0.382232 0 0.04 0.382232 0 0.06 0.382232 0 0.08 0.382232 0 0.1 0.382232 0 0 0.389351 0 0.02 0.389351 0 0.04 0.389351 0 0.06 0.389351 0 0.08 0.389351 0 0.1 0.389351 0 0 0.396704 0 0.02 0.396704 0 0.04 0.396704 0 0.06 0.396704 0 0.08 0.396704 0 0.1 0.396704 0 0 0.404307 0 0.02 0.404307 0 0.04 0.404307 0 0.06 0.404307 0 0.08 0.404307 0 0.1 0.404307 0 0 0.412183 0 0.02 0.412183 0 0.04 0.412183 0 0.06 0.412183 0 0.08 0.412183 0 0.1 0.412183 0 0 0.420351 0 0.02 0.420351 0 0.04 0.420351 0 0.06 0.420351 0 0.08 0.420351 0 0.1 0.420351 0 0 0.428836 0 0.02 0.428836 0 0.04 0.428836 0 0.06 0.428836 0 0.08 0.428836 0 0.1 0.428836 0 0 0.437667 0 0.02 0.437667 0 0.04 0.437667 0 0.06 0.437667 0 0.08 0.437667 0 0.1 0.437667 0 0 0.446874 0 0.02 0.446874 0 0.04 0.446874 0 0.06 0.446874 0 0.08 0.446874 0 0.1 0.446874 0 0 0.456491 0 0.02 0.456491 0 0.04 0.456491 0 0.06 0.456491 0 0.08 0.456491 0 0.1 0.456491 0 0 0.466556 0 0.02 0.466556 0 0.04 0.466556 0 0.06 0.466556 0 0.08 0.466556 0 0.1 0.466556 0 0 0.477108 0 0.02 0.477108 0 0.04 0.477108 0 0.06 0.477108 0 0.08 0.477108 0 0.1 0.477108 0 0 0.488183 0 0.02 0.488183 0 0.04 0.488183 0 0.06 0.488183 0 0.08 0.488183 0 0.1 0.488183 0 0 0.499797 0 0.02 0.499797 0 0.04 0.499797 0 0.06 0.499797 0 0.08 0.499797 0 0.1 0.499797 0 0 0.5119 0 0.02 0.5119 0 0.04 0.5119 0 0.06 0.5119 0 0.08 0.5119 0 0.1 0.5119 0 0 0.52424 0 0.02 0.52424 0 0.04 0.52424 0 0.06 0.52424 0 0.08 0.52424 0 0.1 0.52424 0 0 0.536495 0 0.02 0.536495 0 0.04 0.536495 0 0.06 0.536495 0 0.08 0.536495 0 0.1 0.536495 0 0 0.548629 0 0.02 0.548629 0 0.04 0.548629 0 0.06 0.548629 0 0.08 0.548629 0 0.1 0.548629 0 0 0.560641 0 0.02 0.560641 0 0.04 0.560641 0 0.06 0.560641 0 0.08 0.560641 0 0.1 0.560641 0 0 0.57256 0 0.02 0.57256 0 0.04 0.57256 0 0.06 0.57256 0 0.08 0.57256 0 0.1 0.57256 0 0 0.584421 0 0.02 0.584421 0 0.04 0.584421 0 0.06 0.584421 0 0.08 0.584421 0 0.1 0.584421 0 0 0.596253 0 0.02 0.596253 0 0.04 0.596253 0 0.06 0.596253 0 0.08 0.596253 0 0.1 0.596253 0 0 0.608072 0 0.02 0.608072 0 0.04 0.608072 0 0.06 0.608072 0 0.08 0.608072 0 0.1 0.608072 0 0 0.619886 0 0.02 0.619886 0 0.04 0.619886 0 0.06 0.619886 0 0.08 0.619886 0 0.1 0.619886 0 0 0.631698 0 0.02 0.631698 0 0.04 0.631698 0 0.06 0.631698 0 0.08 0.631698 0 0.1 0.631698 0 0 0.643508 0 0.02 0.643508 0 0.04 0.643508 0 0.06 0.643508 0 0.08 0.643508 0 0.1 0.643508 0 0 0.655316 0 0.02 0.655316 0 0.04 0.655316 0 0.06 0.655316 0 0.08 0.655316 0 0.1 0.655316 0 0 0.657596 0 0.02 0.657596 0 0.04 0.657596 0 0.06 0.657596 0 0.08 0.657596 0 0.1 0.657596 0 0 0.659876 0 0.02 0.659876 0 0.04 0.659876 0 0.06 0.659876 0 0.08 0.659876 0 0.1 0.659876 0 0 0.662157 0 0.02 0.662157 0 0.04 0.662157 0 0.06 0.662157 0 0.08 0.662157 0 0.1 0.662157 0 0 0.664439 0 0.02 0.664439 0 0.04 0.664439 0 0.06 0.664439 0 0.08 0.664439 0 0.1 0.664439 0 0 0.66672 0 0.02 0.66672 0 0.04 0.66672 0 0.06 0.66672 0 0.08 0.66672 0 0.1 0.66672 0 0 0.669 0 0.02 0.669 0 0.04 0.669 0 0.06 0.669 0 0.08 0.669 0 0.1 0.669 0 0 0.671278 0 0.02 0.671278 0 0.04 0.671278 0 0.06 0.671278 0 0.08 0.671278 0 0.1 0.671278 0 0 0.673556 0 0.02 0.673556 0 0.04 0.673556 0 0.06 0.673556 0 0.08 0.673556 0 0.1 0.673556 0 0 0.675836 0 0.02 0.675836 0 0.04 0.675836 0 0.06 0.675836 0 0.08 0.675836 0 0.1 0.675836 0 0 0.678113 0 0.02 0.678113 0 0.04 0.678113 0 0.06 0.678113 0 0.08 0.678113 0 0.1 0.678113 0 0 0.680391 0 0.02 0.680391 0 0.04 0.680391 0 0.06 0.680391 0 0.08 0.680391 0 0.1 0.680391 0 0 0.682671 0 0.02 0.682671 0 0.04 0.682671 0 0.06 0.682671 0 0.08 0.682671 0 0.1 0.682671 0 0 0.684952 0 0.02 0.684952 0 0.04 0.684952 0 0.06 0.684952 0 0.08 0.684952 0 0.1 0.684952 0 0 0.687231 0 0.02 0.687231 0 0.04 0.687231 0 0.06 0.687231 0 0.08 0.687231 0 0.1 0.687231 0 0 0.689508 0 0.02 0.689508 0 0.04 0.689508 0 0.06 0.689508 0 0.08 0.689508 0 0.1 0.689508 0 0 0.691786 0 0.02 0.691786 0 0.04 0.691786 0 0.06 0.691786 0 0.08 0.691786 0 0.1 0.691786 0 0 0.694066 0 0.02 0.694066 0 0.04 0.694066 0 0.06 0.694066 0 0.08 0.694066 0 0.1 0.694066 0 0 0.696345 0 0.02 0.696345 0 0.04 0.696345 0 0.06 0.696345 0 0.08 0.696345 0 0.1 0.696345 0 0 0.698622 0 0.02 0.698622 0 0.04 0.698622 0 0.06 0.698622 0 0.08 0.698622 0 0.1 0.698622 0 0
[...]
			<PointData Scalars="VitesseX">
				<DataArray Name="VitesseX" type="Float32" format="ascii">
 0 1.68863e-15 6.31531e-15 -3.28685e-16 1.10079e-14 0 0 1.67305e-15 6.05875e-15 7.62629e-16 9.63593e-15 0 0 2.40952e-15 5.3878e-15 2.53182e-15 7.64213e-15 0 0 3.28402e-15 5.5147e-15 1.24136e-15 7.62367e-15 0 0 3.00331e-15 6.0691e-15 -1.43561e-15 7.10922e-15 0 0 2.57481e-15 4.30505e-15 1.28235e-16 3.48976e-15 0 0 1.23233e-15 3.4335e-15 1.82051e-15 2.33953e-15 0 0 1.8028e-15 3.70245e-16 3.68918e-15 4.17712e-15 0 0 3.04917e-15 -2.94508e-15 5.8331e-15 5.33714e-15 0 0 1.69896e-15 -1.87749e-15 5.15762e-15 5.97644e-15 0 0 1.46443e-16 -8.96846e-16 4.21396e-15 6.6629e-15 0 0 7.36905e-16 8.68844e-16 8.60872e-16 8.60339e-15 0 0 6.05068e-16 3.63423e-15 -4.71813e-16 7.36493e-15 0 0 -1.35145e-15 5.69141e-15 1.76091e-15 1.96163e-15 0 0 4.03312e-16 3.81903e-15 1.70742e-15 6.03802e-17 0 0 3.24197e-15 1.3568e-15 1.30688e-15 -6.22864e-16 0 0 3.13534e-15 2.93411e-15 3.88934e-16 -1.23932e-15 0 0 5.10227e-16 3.39518e-15 2.83205e-15 -1.11449e-15 0 0 -1.20875e-15 1.41638e-15 4.39652e-15 9.76064e-16 0 0 6.93359e-17 2.91633e-16 4.59466e-15 -8.50982e-16 0 0 8.47929e-16 1.06038e-15 8.20762e-15 -5.79288e-15 0 0 1.1937e-15 1.90405e-15 6.16504e-15 -5.29206e-15 0 0 4.20875e-15 -6.43883e-16 1.75995e-15 -6.01754e-15 0 0 7.65093e-15 -3.74355e-16 -4.2649e-15 -9.21534e-15 0 0 5.6853e-15 4.41467e-15 -9.30354e-15 -1.08065e-14 0 0 2.79825e-15 -2.51735e-15 -3.70434e-15 -1.06818e-14 0 0 3.57461e-15 -1.21527e-14 -5.08483e-17 -5.70715e-15 0 0 -3.08656e-17 -1.21269e-14 -9.99602e-16 4.99102e-15 0 0 -8.0808e-16 -9.75153e-15 -4.38106e-15 8.53205e-15 0 0 2.30173e-15 -7.05646e-15 -1.2792e-14 1.25762e-14 0 0 -5.98375e-16 -5.04742e-15 -9.2345e-15 1.09863e-14 0 0 -1.13397e-15 -4.94156e-15 3.28717e-16 1.44171e-15 0 0 -5.60929e-16 -2.93254e-15 1.89809e-15 -2.15677e-15 0 0 -6.78293e-16 -1.82452e-15 -1.82589e-15 -1.97923e-15 0 0 -7.25548e-15 3.65093e-15 -6.61674e-15 1.18187e-14 0 0 -6.23036e-15 5.85635e-15 -5.26883e-15 1.6191e-14 0 0 8.12851e-15 -4.69224e-15 -3.61539e-16 9.78096e-15 0 0 5.85508e-15 -1.00656e-15 1.25992e-15 2.77684e-15 0 0 -4.30826e-15 1.87112e-15 7.06495e-15 -1.03529e-14 0 0 -2.91062e-15 1.96129e-15 8.41822e-15 -1.95723e-14 0 0 1.49064e-14 -4.92652e-15 5.80093e-15 -1.52216e-14 0 0 2.55373e-14 -9.17433e-15 6.31708e-15 -1.29538e-14 0 0 8.18015e-15 2.30741e-14 -2.58143e-14 1.17165e-14 0 0 1.18617e-15 2.64161e-14 -3.5225e-14 1.70228e-14 0 0 1.62412e-14 -1.0479e-14 -1.19044e-14 7.38872e-16 0 0 -1.15173e-14 -2.0661e-15 -2.13061e-14 -8.22552e-15 0 0 -3.18065e-14 9.439e-15 -2.07699e-14 -2.46694e-14 0 0 -1.41855e-14 -2.49476e-15 -1.44468e-14 -2.2446e-14 0 0 -3.9933e-14 1.15419e-14 -2.71054e-14 -1.24176e-14 0 0 -4.52342e-14 2.50816e-15 -3.50154e-14 -4.85564e-15 0 0 -1.05403e-14 -4.84751e-14 -2.07535e-14 -1.80019e-14 0 0 -6.71642e-15 -6.08367e-14 -3.00539e-14 -2.26458e-14 0 0 -1.38071e-14 -2.48076e-14 -4.91458e-14 -2.07754e-14 0 0 -2.64597e-15 5.64855e-16 -3.75653e-14 -3.36687e-14 0 0 5.25274e-15 2.29245e-14 -4.59607e-14 -4.61013e-14 0 0 1.63031e-15 1.54121e-14 -3.22203e-14 -5.38526e-14 0 0 -1.28788e-14 -1.95272e-14 3.3094e-15 -4.17985e-14 0 0 -3.44263e-14 -2.30201e-14 1.5239e-14 -3.33522e-15 0 0 -6.43435e-15 -3.25251e-14 3.74266e-14 -1.00347e-14 0 0 5.68569e-15 -2.30811e-14 8.42155e-15 -4.54327e-15 0 0 6.95396e-16 6.47167e-15 -3.97979e-14 2.31713e-14 0 0 5.86141e-15 8.35935e-15 -2.7987e-14 7.68725e-15 0 0 -2.25587e-14 5.80635e-15 -3.42089e-14 3.08542e-14 0 0 -2.57431e-14 5.40685e-15 -3.60919e-14 3.98541e-14 0 0 -1.33927e-14 2.11982e-14 -1.52131e-14 6.45629e-15 0 0 -1.09801e-14 4.15855e-14 -1.86629e-14 -4.42735e-15 0 0 -2.14736e-14 3.71917e-14 -2.77426e-14 2.15856e-15 0 0 -6.56336e-15 5.66277e-15 -3.11657e-14 1.88781e-14 0 0 1.30213e-15 -9.44793e-15 -3.00656e-15 -4.15164e-16 0 0 -3.27195e-15 -7.01773e-15 2.01005e-14 -8.6729e-15 0 0 1.24528e-14 -2.10877e-14 1.14554e-14 4.09433e-15 0 0 4.07027e-15 -1.91318e-14 3.61679e-14 -2.44058e-14 0 0 9.4507e-15 -1.38121e-14 3.90759e-14 -1.87287e-14 0 0 -1.16961e-14 3.31087e-14 -2.17985e-14 2.39516e-14 0 0 -4.77521e-15 3.70787e-14 3.58322e-16 1.24719e-14 0 0 7.87267e-15 -4.10595e-15 2.48597e-14 1.05387e-15 0 0 1.95026e-14 -1.49777e-14 7.90413e-16 1.98629e-14 0 0 3.81054e-14 -6.18492e-15 -3.08587e-14 2.62632e-14 0 0 9.14449e-15 5.16383e-15 -3.0295e-14 8.44577e-15 0 0 -1.18885e-14 -5.91163e-15 -1.42684e-15 -3.97978e-15 0 0 -1.75949e-14 5.28832e-15 -8.59283e-15 2.97536e-14 0 0 -3.37497e-14 2.77926e-14 1.26721e-14 3.35169e-14 0 0 3.43098e-15 1.32114e-14 1.58925e-14 -1.61855e-16 0 0 3.8617e-14 -4.93925e-16 2.26675e-14 -2.29145e-14 0 0 1.89429e-14 -2.12042e-15 2.09701e-14 -8.48575e-15 0 0 -1.09004e-14 -1.94497e-15 1.63375e-14 -1.67291e-14 0 0 -8.84233e-15 1.18835e-14 -7.77764e-16 1.70535e-14 0 0 1.50566e-14 1.1401e-14 1.39153e-15 3.83356e-14 0 0 1.30182e-14 1.88143e-14 -2.69023e-15 1.44732e-14 0 0 1.51058e-14 2.49348e-15 -3.66646e-14 -1.1455e-15 0 0 2.74761e-15 -5.29238e-14 -3.17221e-14 -4.89544e-14 0 0 -3.2328e-14 -7.00719e-14 -5.54729e-14 -5.89873e-14 0 0 -5.05119e-14 -6.35226e-14 -9.0977e-14 -4.30051e-14 0 0 -3.76419e-14 -5.78142e-14 -6.77169e-14 -2.81827e-14 0 0 -5.02497e-15 -2.45063e-14 -2.21163e-14 -3.66796e-15 0 0 2.53706e-14 2.69614e-14 3.76425e-14 2.33029e-14 0 0 5.06561e-14 8.22038e-14 9.13002e-14 5.17961e-14 0 0 7.75429e-14 1.11326e-13 1.2476e-13 7.2669e-14 0 0 8.21795e-14 1.3665e-13 1.30468e-13 7.30958e-14 0 0 7.27049e-14 1.21617e-13 1.22311e-13 4.64835e-14 0 0 6.02681e-14 1.04104e-13 1.0183e-13 4.55037e-14 0 0 3.05896e-14 1.45714e-13 1.11384e-13 4.00298e-14 0 0 4.56304e-14 1.1185e-13 1.21183e-13 1.5751e-14 0 0 3.75419e-14 3.42389e-14 9.84483e-14 2.13498e-14 0 0 2.68016e-14 -5.28995e-14 4.00935e-14 1.5901e-14 0 0 -1.44045e-15 -9.37912e-14 -9.99087e-15 -4.71739e-14 0 0 -1.67787e-14 -5.50686e-14 -3.48547e-14 -1.54616e-14 0 0 1.12575e-13 1.57776e-13 1.89218e-13 1.20846e-13 0 0 3.41256e-13 5.18365e-13 5.52965e-13 2.99955e-13 0 0 5.40875e-13 8.95091e-13 8.91431e-13 5.6527e-13 0 0 6.53916e-13 1.12267e-12 1.06349e-12 7.06323e-13 0 0 6.5552e-13 1.12992e-12 1.03372e-12 6.77658e-13 0 0 6.03183e-13 9.82612e-13 9.4651e-13 6.10539e-13 0 0 5.48307e-13 8.1028e-13 8.44987e-13 5.05684e-13 0 0 4.70222e-13 6.97118e-13 7.55177e-13 4.18386e-13 0 0 3.74131e-13 5.85916e-13 6.39813e-13 3.50722e-13 0 0 3.10821e-13 5.20124e-13 4.9928e-13 2.95694e-13 0 0 2.70791e-13 4.05425e-13 4.63979e-13 2.61399e-13 0 0 2.37176e-13 3.1585e-13 3.879e-13 2.62475e-13 0 0 1.9944e-13 3.00543e-13 2.81405e-13 2.18177e-13 0 0 1.5664e-13 2.39808e-13 2.76267e-13 1.09766e-13 0 0 1.36476e-13 1.9956e-13 2.09929e-13 1.13223e-13 0 0 1.10332e-13 1.88756e-13 1.32582e-13 1.13809e-13 0 0 8.70665e-14 1.68208e-13 1.32887e-13 9.5212e-14 0 0 7.54851e-14 1.45127e-13 1.07875e-13 5.85024e-14 0 0 8.58731e-14 1.13869e-13 9.48636e-14 2.21441e-14 0 0 8.97503e-14 7.61235e-14 1.15087e-13 2.69694e-14 0 0 7.58754e-14 6.17162e-14 9.86697e-14 3.01872e-14 0 0 6.33597e-14 3.24386e-14 7.51215e-14 2.66149e-14 0 0 5.39957e-14 8.98128e-15 1.14718e-13 -1.05469e-14 0 0 2.24337e-14 4.5071e-14 9.53334e-14 -2.94376e-14 0 0 1.7631e-14 6.09356e-14 5.95532e-14 2.39042e-15 0 0 3.51735e-14 7.60324e-14 5.24745e-14 4.52131e-14 0 0 3.36328e-14 8.50532e-14 5.51975e-14 1.64536e-14 0 0 1.44579e-14 1.03177e-13 6.27973e-14 2.22044e-14 0 0 9.22244e-15 1.22664e-13 5.8208e-14 7.61237e-14 0 0 1.86474e-14 9.62993e-14 9.13502e-14 7.63749e-14 0 0 -1.40989e-14 1.21441e-13 7.68386e-14 5.27004e-14 0 0 -2.05852e-14 1.15313e-13 1.23423e-13 4.65917e-14 0 0 1.8874e-14 7.37569e-14 1.22399e-13 4.87351e-14 0 0 3.97702e-14 4.7131e-14 8.95139e-14 8.11857e-15 0 0 5.30592e-14 2.09957e-14 1.09172e-13 2.06924e-16 0 0 3.59599e-14 4.06164e-14 1.10288e-13 -8.08208e-15 0 0 2.71921e-15 7.24079e-14 8.06196e-14 -7.18578e-15 0 0 -1.13712e-14 6.09135e-14 8.92283e-14 2.43229e-16 0 0 -8.18901e-16 2.16866e-14 1.84475e-13 -6.97962e-14 0 0 -1.33683e-14 3.47234e-14 1.4663e-13 -4.17849e-14 0 0 -4.81142e-14 6.3173e-14 4.4688e-14 2.99143e-14 0 0 -5.64333e-14 4.80243e-14 2.50569e-15 1.8489e-14 0 0 -8.2932e-14 5.82112e-14 -6.53862e-14 4.27148e-15 0 0 -6.05139e-14 -5.20969e-15 -9.99212e-14 -4.12138e-15 0 0 -1.32703e-14 -1.33325e-13 -9.24479e-14 3.72048e-14 0 0 -3.43033e-14 -1.78882e-13 -3.53815e-14 7.54519e-14 0 0 -6.81526e-14 -1.59149e-13 -6.25661e-14 -4.21531e-14 0 0 -1.19381e-13 -1.51763e-13 -1.89872e-13 -9.22283e-14 0 0 -1.13603e-13 -1.69523e-13 -2.09296e-13 -8.88617e-14 0 0 -8.60364e-14 -2.11256e-13 -1.75866e-13 -2.29454e-13 0 0 -1.12526e-13 -2.0483e-13 -1.50789e-13 -1.65365e-13 0 0 -7.38582e-14 -1.51975e-13 -9.41209e-14 -1.19361e-13 0 0 -5.19357e-14 -9.61145e-14 -9.81492e-14 -1.45234e-13 0 0 -4.54742e-14 -9.35423e-14 -8.87638e-14 -5.6289e-14 0 0 -4.73077e-14 -9.31961e-14 -8.06101e-14 -4.58513e-14 0 0 -6.24507e-14 -6.50181e-14 -8.65833e-14 -1.39298e-14 0 0 -6.13633e-14 -7.33876e-14 -6.03416e-14 -3.11142e-14 0 0 -5.93304e-14 -8.45334e-14 -4.54433e-14 -8.39551e-14 0 0 -4.9736e-14 -1.04217e-13 -5.17635e-14 -6.23744e-14 0 0 -4.98616e-14 -9.56688e-14 -6.53979e-14 -3.32032e-14 0 0 -5.6187e-14 -8.44395e-14 -8.11951e-14 -3.09714e-14 0 0 -6.70582e-14 -6.98771e-14 -1.12919e-13 -1.85671e-14 0 0 -8.30616e-14 -6.3522e-14 -1.30606e-13 -1.54776e-14 0 0 -7.04197e-14 -9.05901e-14 -9.64501e-14 -5.10578e-14 0 0 -4.98265e-14 -9.69093e-14 -6.51955e-14 -9.59942e-14 0 0 -5.26876e-14 -7.89124e-14 -6.91108e-14 -9.08985e-14 0 0 -5.26549e-14 -6.97306e-14 -7.28457e-14 -7.51609e-14 0 0 -4.47728e-14 -4.67914e-14 -8.78698e-14 -6.78291e-14 0 0 -3.8966e-14 -4.87078e-14 -6.37454e-14 -5.8581e-14 0 0 -3.23856e-14 -6.99054e-14 -2.43895e-14 -6.14617e-14 0 0 -2.26412e-14 -6.60188e-14 -1.41356e-14 -5.0153e-14 0 0 -2.01093e-14 -4.3685e-14 -5.79535e-14 1.06971e-14 0 0 -1.59373e-14 -5.11042e-14 -2.95836e-14 3.37081e-14 0 0 -9.65061e-15 -8.12874e-14 6.49443e-14 -3.70113e-14 0 0 -2.1327e-14 -4.29237e-14 1.93141e-14 -1.14169e-14 0 0 -2.25055e-14 4.50972e-15 -2.92182e-14 3.6226e-14 0 0 2.51494e-14 -1.70921e-14 2.71322e-15 1.74261e-14 0 0 1.57007e-14 1.81002e-14 -1.97844e-14 1.86392e-14 0 0 1.11223e-14 5.91945e-15 3.57896e-14 -3.94881e-14 0 0 2.44596e-14 -2.64976e-14 8.43013e-14 -7.65516e-14 0 0 7.58228e-15 -3.26439e-14 7.24437e-14 -9.28728e-14 0 0 7.9046e-15 -5.01599e-14 4.04106e-14 -7.40758e-14 0 0 2.09628e-14 -4.4211e-14 -4.8342e-14 -2.24396e-14 0 0 4.28983e-14 -7.35397e-14 -5.31288e-14 -9.78505e-15 0 0 1.84329e-14 -7.82913e-14 -4.10356e-14 1.94577e-14 0 0 4.00061e-14 -1.04056e-13 -2.49875e-14 5.53355e-15 0 0 1.84013e-14 -4.33335e-14 -1.79528e-14 -4.35744e-14 0 0 -2.96601e-14 4.32226e-14 -6.92887e-14 -2.8605e-14 0 0 -2.35136e-14 6.06782e-14 -9.41739e-14 -7.37365e-15 0 0 5.60861e-15 1.66689e-14 -3.90027e-14 -1.12993e-14 0 0 3.42928e-14 -5.47213e-14 3.42167e-14 -2.24739e-14 0 0 4.99384e-15 -1.94115e-14 3.73713e-15 4.45469e-15 0 0 -1.86896e-14 3.34034e-14 -1.9394e-14 3.50145e-14 0 0 -2.30346e-14 4.4753e-14 1.1149e-14 2.61841e-14 0
				</DataArray>
				<DataArray Name="VitesseY" type="Float32" format="ascii">