<?xml version="1.0"?>
<VTKFile type="PolyData">
	<PolyData>
		<Piece NumberOfPoints="1206" NumberOfPolys="1000">
			<Points>
				<DataArray type="Float32" NumberOfComponents="3" format="ascii">
 0 0 0 0.02 0 0 0.04 0 0 0.06 0 0 0.08 0 0 0.1 0 0 0 0.005 0 0.02 0.005 0 0.04 0.005 0 0.06 0.005 0 0.08 0.005 0 0.1 0.005 0 0 0.01 0 0.02 0.01 0 0.04 0.01 0 0.06 0.01 0 0.08 0.01 0 0.1 0.01 0 0 0.015 0 0.02 0.015 0 0.04 0.015 0 0.06 0.015 0 0.08 0.015 0 0.1 0.015 0 0 0.02 0 0.02 0.02 0 0.04 0.02 0 0.06 0.02 0 0.08 0.02 0 0.1 0.02 0 0 0.025 0 0.02 0.025 0 0.04 0.025 0 0.06 0.025 0 0.08 0.025 0 0.1 0.025 0 0 0.03 0 0.02 0.03 0 0.04 0.03 0 0.06 0.03 0 0.08 0.03 0 0.1 0.03 0 0 0.035 0 0.02 0.035 0 0.04 0.035 0 0.06 0.035 0 0.08 0.035 0 0.1 0.035 0 0 0.04 0 0.02 0.04 0 0.04 0.04 0 0.06 0.04 0 0.08 0.04 0 0.1 0.04 0 0 0.045 0 0.02 0.045 0 0.04 0.045 0 0.06 0.045 0 0.08 0.045 0 0.1 0.045 0 0 0.05 0 0.02 0.05 0 0.04 0.05 0 0.06 0.05 0 0.08 0.05 0 0.1 0.05 0 0 0.055 0 0.02 0.055 0 0.04 0.055 0 0.06 0.055 0 0.08 0.055 0 0.1 0.055 0 0 0.06 0 0.02 0.06 0 0.04 0.06 0 0.06 0.06 0 0.08 0.06 0 0.1 0.06 0 0 0.065 0 0.02 0.065 0 0.04 0.065 0 0.06 0.065 0 0.08 0.065 0 0.1 0.065 0 0 0.07 0 0.02 0.07 0 0.04 0.07 0 0.06 0.07 0 0.08 0.07 0 0.1 0.07 0 0 0.075 0 0.02 0.075 0 0.04 0.075 0 0.06 0.075 0 0.08 0.075 0 0.1 0.075 0 0 0.08 0 0.02 0.08 0 0.04 0.08 0 0.06 0.08 0 0.08 0.08 0 0.1 0.08 0 0 0.085 0 0.02 0.085 0 0.04 0.085 0 0.06 0.085 0 0.08 0.085 0 0.1 0.085 0 0 0.09 0 0.02 0.09 0 0.04 0.09 0 0.06 0.09 0 0.08 0.09 0 0.1 0.09 0 0 0.095 0 0.02 0.095 0 0.04 0.095 0 0.06 0.095 0 0.08 0.095 0 0.1 0.095 0 0 0.1 0 0.02 0.1 0 0.04 0.1 0 0.06 0.1 0 0.08 0.1 0 0.1 0.1 0 0 0.105 0 0.02 0.105 0 0.04 0.105 0 0.06 0.105 0 0.08 0.105 0 0.1 0.105 0 0 0.11 0 0.02 0.11 0 0.04 0.11 0 0.06 0.11 0 0.08 0.11 0 0.1 0.11 0 0 0.115 0 0.02 0.115 0 0.04 0.115 0 0.06 0.115 0 0.08 0.115 0 0.1 0.115 0 0 0.12 0 0.02 0.12 0 0.04 0.12 0 0.06 0.12 0 0.08 0.12 0 0.1 0.12 0 0 0.125 0 0.02 0.125 0 0.04 0.125 0 0.06 0.125 0 0.08 0.125 0 0.1 0.125 0 0 0.13 0 0.02 0.13 0 0.04 0.13 0 0.06 0.13 0 0.08 0.13 0 0.1 0.13 0 0 0.135 0 0.02 0.135 0 0.04 0.135 0 0.06 0.135 0 0.08 0.135 0 0.1 0.135 0 0 0.14 0 0.02 0.14 0 0.04 0.14 0 0.06 0.14 0 0.08 0.14 0 0.1 0.14 0 0 0.145 0 0.02 0.145 0 0.04 0.145 0 0.06 0.145 0 0.08 0.145 0 0.1 0.145 0 0 0.15 0 0.02 0.15 0 0.04 0.15 0 0.06 0.15 0 0.08 0.15 0 0.1 0.15 0 0 0.155 0 0.02 0.155 0 0.04 0.155 0 0.06 0.155 0 0.08 0.155 0 0.1 0.155 0 0 0.16 0 0.02 0.16 0 0.04 0.16 0 0.06 0.16 0 0.08 0.16 0 0.1 0.16 0 0 0.165 0 0.02 0.165 0 0.04 0.165 0 0.06 0.165 0 0.08 0.165 0 0.1 0.165 0 0 0.17 0 0.02 0.17 0 0.04 0.17 0 0.06 0.17 0 0.08 0.17 0 0.1 0.17 0 0 0.175 0 0.02 0.175 0 0.04 0.175 0 0.06 0.175 0 0.08 0.175 0 0.1 0.175 0 0 0.18 0 0.02 0.18 0 0.04 0.18 0 0.06 0.18 0 0.08 0.18 0 0.1 0.18 0 0 0.185 0 0.02 0.185 0 0.04 0.185 0 0.06 0.185 0 0.08 0.185 0 0.1 0.185 0 0 0.19 0 0.02 0.19 0 0.04 0.19 0 0.06 0.19 0 0.08 0.19 0 0.1 0.19 0 0 0.195 0 0.02 0.195 0 0.04 0.195 0 0.06 0.195 0 0.08 0.195 0 0.1 0.195 0 0 0.2 0 0.02 0.2 0 0.04 0.2 0 0.06 0.2 0 0.08 0.2 0 0.1 0.2 0 0 0.205 0 0.02 0.205 0 0.04 0.205 0 0.06 0.205 0 0.08 0.205 0 0.1 0.205 0 0 0.21 0 0.02 0.21 0 0.04 0.21 0 0.06 0.21 0 0.08 0.21 0 0.1 0.21 0 0 0.215 0 0.02 0.215 0 0.04 0.215 0 0.06 0.215 0 0.08 0.215 0 0.1 0.215 0 0 0.22 0 0.02 0.22 0 0.04 0.22 0 0.06 0.22 0 0.08 0.22 0 0.1 0.22 0 0 0.225 0 0.02 0.225 0 0.04 0.225 0 0.06 0.225 0 0.08 0.225 0 0.1 0.225 0 0 0.23 0 0.02 0.23 0 0.04 0.23 0 0.06 0.23 0 0.08 0.23 0 0.1 0.23 0 0 0.235 0 0.02 0.235 0 0.04 0.235 0 0.06 0.235 0 0.08 0.235 0 0.1 0.235 0 0 0.240001 0 0.02 0.240001 0 0.04 0.240001 0 0.06 0.240001 0 0.08 0.240001 0 0.1 0.240001 0 0 0.245004 0 0.02 0.245004 0 0.04 0.245004 0 0.06 0.245004 0 0.08 0.245004 0 0.1 0.245004 0 0 0.250011 0 0.02 0.250011 0 0.04 0.250011 0 0.06 0.250011 0 0.08 0.250011 0 0.1 0.250011 0 0 0.255026 0 0.02 0.255026 0 0.04 0.255026 0 0.06 0.255026 0 0.08 0.255026 0 0.1 0.255026 0 0 0.260057 0 0.02 0.260057 0 0.04 0.260057 0 0.06 0.260057 0 0.08 0.260057 0 0.1 0.260057 0 0 0.265117 0 0.02 0.265117 0 0.04 0.265117 0 0.06 0.265117 0 0.08 0.265117 0 0.1 0.265117 0 0 0.270218 0 0.02 0.270218 0 0.04 0.270218 0 0.06 0.270218 0 0.08 0.270218 0 0.1 0.270218 0 0 0.275375 0 0.02 0.275375 0 0.04 0.275375 0 0.06 0.275375 0 0.08 0.275375 0 0.1 0.275375 0 0 0.280603 0 0.02 0.280603 0 0.04 0.280603 0 0.06 0.280603 0 0.08 0.280603 0 0.1 0.280603 0 0 0.285914 0 0.02 0.285914 0 0.04 0.285914 0 0.06 0.285914 0 0.08 0.285914 0 0.1 0.285914 0 0 0.291315 0 0.02 0.291315 0 0.04 0.291315 0 0.06 0.291315 0 0.08 0.291315 0 0.1 0.291315 0 0 0.296815 0 0.02 0.296815 0 0.04 0.296815 0 0.06 0.296815 0 0.08 0.296815 0 0.1 0.296815 0 0 0.302421 0 0.02 0.302421 0 0.04 0.302421 0 0.06 0.302421 0 0.08 0.302421 0 0.1 0.302421 0 0 0.308138 0 0.02 0.308138 0 0.04 0.308138 0 0.06 0.308138 0 0.08 0.308138 0 0.1 0.308138 0 0 0.313974 0 0.02 0.313974 0 0.04 0.313974 0 0.06 0.313974 0 0.08 0.313974 0 0.1 0.313974 0 0 0.319934 0 0.02 0.319934 0 0.04 0.319934 0 0.06 0.319934 0 0.08 0.319934 0 0.1 0.319934 0 0 0.326025 0 0.02 0.326025 0 0.04 0.326025 0 0.06 0.326025 0 0.08 0.326025 0 0.1 0.326025 0 0 0.332254 0 0.02 0.332254 0 0.04 0.332254 0 0.06 0.332254 0 0.08 0.332254 0 0.1 0.332254 0 0 0.338629 0 0.02 0.338629 0 0.04 0.338629 0 0.06 0.338629 0 0.08 0.338629 0 0.1 0.338629 0 0 0.345158 0 0.02 0.345158 0 0.04 0.345158 0 0.06 0.345158 0 0.08 0.345158 0 0.1 0.345158 0 0 0.351849 0 0.02 0.351849 0 0.04 0.351849 0 0.06 0.351849 0 0.08 0.351849 0 0.1 0.351849 0 0 0.358712 0 0.02 0.358712 0 0.04 0.358712 0 0.06 0.358712 0 0.08 0.358712 0 0.1 0.358712 0 0 0.365757 0 0.02 0.365757 0 0.04 0.365757 0 0.06 0.365757 0 0.08 0.365757 0 0.1 0.365757 0 0 0.372995 0 0.02 0.372995 0 0.04 0.372995 0 0.06 0.372995 0 0.08 0.372995 0 0.1 0.372995 0 0 0.380439 0 0.02 0.380439 0 0.04 0.380439 0 0.06 0.380439 0 0.08 0.380439 0 0.1 0.380439 0 0 0.388101 0 0.02 0.388101 0 0.04 0.388101 0 0.06 0.388101 0 0.08 0.388101 0 0.1 0.388101 0 0 0.395996 0 0.02 0.395996 0 0.04 0.395996 0 0.06 0.395996 0 0.08 0.395996 0 0.1 0.395996 0 0 0.404141 0 0.02 0.404141 0 0.04 0.404141 0 0.06 0.404141 0 0.08 0.404141 0 0.1 0.404141 0 0 0.412551 0 0.02 0.412551 0 0.04 0.412551 0 0.06 0.412551 0 0.08 0.412551 0 0.1 0.412551 0 0 0.421248 0 0.02 0.421248 0 0.04 0.421248 0 0.06 0.421248 0 0.08 0.421248 0 0.1 0.421248 0 0 0.430252 0 0.02 0.430252 0 0.04 0.430252 0 0.06 0.430252 0 0.08 0.430252 0 0.1 0.430252 0 0 0.439587 0 0.02 0.439587 0 0.04 0.439587 0 0.06 0.439587 0 0.08 0.439587 0 0.1 0.439587 0 0 0.449277 0 0.02 0.449277 0 0.04 0.449277 0 0.06 0.449277 0 0.08 0.449277 0 0.1 0.449277 0 0 0.459352 0 0.02 0.459352 0 0.04 0.459352 0 0.06 0.459352 0 0.08 0.459352 0 0.1 0.459352 0 0 0.469837 0 0.02 0.469837 0 0.04 0.469837 0 0.06 0.469837 0 0.08 0.469837 0 0.1 0.469837 0 0 0.480759 0 0.02 0.480759 0 0.04 0.480759 0 0.06 0.480759 0 0.08 0.480759 0 0.1 0.480759 0 0 0.49213 0 0.02 0.49213 0 0.04 0.49213 0 0.06 0.49213 0 0.08 0.49213 0 0.1 0.49213 0 0 0.503925 0 0.02 0.503925 0 0.04 0.503925 0 0.06 0.503925 0 0.08 0.503925 0 0.1 0.503925 0 0 0.516014 0 0.02 0.516014 0 0.04 0.516014 0 0.06 0.516014 0 0.08 0.516014 0 0.1 0.516014 0 0 0.528116 0 0.02 0.528116 0 0.04 0.528116 0 0.06 0.528116 0 0.08 0.528116 0 0.1 0.528116 0 0 0.540136 0 0.02 0.540136 0 0.04 0.540136 0 0.06 0.540136 0 0.08 0.540136 0 0.1 0.540136 0 0 0.552069 0 0.02 0.552069 0 0.04 0.552069 0 0.06 0.552069 0 0.08 0.552069 0 0.1 0.552069 0 0 0.563925 0 0.02 0.563925 0 0.04 0.563925 0 0.06 0.563925 0 0.08 0.563925 0 0.1 0.563925 0 0 0.575727 0 0.02 0.575727 0 0.04 0.575727 0 0.06 0.575727 0 0.08 0.575727 0 0.1 0.575727 0 0 0.587496 0 0.02 0.587496 0 0.04 0.587496 0 0.06 0.587496 0 0.08 0.587496 0 0.1 0.587496 0 0 0.599247 0 0.02 0.599247 0 0.04 0.599247 0 0.06 0.599247 0 0.08 0.599247 0 0.1 0.599247 0 0 0.610989 0 0.02 0.610989 0 0.04 0.610989 0 0.06 0.610989 0 0.08 0.610989 0 0.1 0.610989 0 0 0.622726 0 0.02 0.622726 0 0.04 0.622726 0 0.06 0.622726 0 0.08 0.622726 0 0.1 0.622726 0 0 0.634462 0 0.02 0.634462 0 0.04 0.634462 0 0.06 0.634462 0 0.08 0.634462 0 0.1 0.634462 0 0 0.646197 0 0.02 0.646197 0 0.04 0.646197 0 0.06 0.646197 0 0.08 0.646197 0 0.1 0.646197 0 0 0.657932 0 0.02 0.657932 0 0.04 0.657932 0 0.06 0.657932 0 0.08 0.657932 0 0.1 0.657932 0 0 0.66967 0 0.02 0.66967 0 0.04 0.66967 0 0.06 0.66967 0 0.08 0.66967 0 0.1 0.66967 0 0 0.681421 0 0.02 0.681421 0 0.04 0.681421 0 0.06 0.681421 0 0.08 0.681421 0 0.1 0.681421 0 0 0.684033 0 0.02 0.684033 0 0.04 0.684033 0 0.06 0.684033 0 0.08 0.684033 0 0.1 0.684033 0 0 0.686571 0 0.02 0.686571 0 0.04 0.686571 0 0.06 0.686571 0 0.08 0.686571 0 0.1 0.686571 0 0 0.689062 0 0.02 0.689062 0 0.04 0.689062 0 0.06 0.689062 0 0.08 0.689062 0 0.1 0.689062 0 0 0.691522 0 0.02 0.691522 0 0.04 0.691522 0 0.06 0.691522 0 0.08 0.691522 0 0.1 0.691522 0 0 0.69396 0 0.02 0.69396 0 0.04 0.69396 0 0.06 0.69396 0 0.08 0.69396 0 0.1 0.69396 0 0 0.696381 0 0.02 0.696381 0 0.04 0.696381 0 0.06 0.696381 0 0.08 0.696381 0 0.1 0.696381 0 0 0.69879 0 0.02 0.69879 0 0.04 0.69879 0 0.06 0.69879 0 0.08 0.69879 0 0.1 0.69879 0 0 0.701191 0 0.02 0.701191 0 0.04 0.701191 0 0.06 0.701191 0 0.08 0.701191 0 0.1 0.701191 0 0 0.703585 0 0.02 0.703585 0 0.04 0.703585 0 0.06 0.703585 0 0.08 0.703585 0 0.1 0.703585 0 0 0.705974 0 0.02 0.705974 0 0.04 0.705974 0 0.06 0.705974 0 0.08 0.705974 0 0.1 0.705974 0 0 0.70836 0 0.02 0.70836 0 0.04 0.70836 0 0.06 0.70836 0 0.08 0.70836 0 0.1 0.70836 0 0 0.710741 0 0.02 0.710741 0 0.04 0.710741 0 0.06 0.710741 0 0.08 0.710741 0 0.1 0.710741 0 0 0.713119 0 0.02 0.713119 0 0.04 0.713119 0 0.06 0.713119 0 0.08 0.713119 0 0.1 0.713119 0 0 0.715493 0 0.02 0.715493 0 0.04 0.715493 0 0.06 0.715493 0 0.08 0.715493 0 0.1 0.715493 0 0 0.717864 0 0.02 0.717864 0 0.04 0.717864 0 0.06 0.717864 0 0.08 0.717864 0 0.1 0.717864 0 0 0.720233 0 0.02 0.720233 0 0.04 0.720233 0 0.06 0.720233 0 0.08 0.720233 0 0.1 0.720233 0 0 0.722599 0 0.02 0.722599 0 0.04 0.722599 0 0.06 0.722599 0 0.08 0.722599 0 0.1 0.722599 0 0 0.724963 0 0.02
[...]
			<PointData Scalars="VitesseX">
				<DataArray Name="VitesseX" type="Float32" format="ascii">
 0 8.42727e-15 7.92098e-15 1.57862e-14 1.38519e-14 0 0 9.08267e-15 7.24219e-15 1.6264e-14 1.27856e-14 0 0 1.00332e-14 6.30435e-15 1.57056e-14 1.15933e-14 0 0 9.88951e-15 6.48909e-15 1.29787e-14 1.13429e-14 0 0 8.91569e-15 6.78182e-15 9.44068e-15 1.21578e-14 0 0 7.53092e-15 7.11724e-15 5.70306e-15 1.27144e-14 0 0 5.48017e-15 6.70964e-15 2.4756e-15 1.12933e-14 0 0 3.55532e-15 3.9734e-15 1.17274e-15 9.22224e-15 0 0 2.85699e-15 -8.57167e-16 2.85082e-15 5.59564e-15 0 0 1.57911e-15 -2.8329e-15 1.67362e-15 2.40627e-15 0 0 -9.69387e-16 -2.91099e-16 -3.6379e-15 4.65178e-16 0 0 -1.81647e-15 -4.86886e-16 -6.60431e-15 -1.08099e-15 0 0 -2.04026e-15 -3.09985e-15 -3.51995e-15 -6.27463e-15 0 0 -1.71576e-15 -5.27893e-15 1.88531e-15 -1.00499e-14 0 0 -8.31258e-16 -9.20675e-15 3.42377e-15 -7.5141e-15 0 0 -1.19875e-15 -1.30631e-14 5.42749e-16 -8.65399e-16 0 0 -2.69854e-15 -1.23854e-14 -3.7065e-15 2.01137e-15 0 0 -6.13058e-15 -8.08768e-15 -3.44967e-15 -1.11801e-15 0 0 -7.07632e-15 -6.05099e-15 -2.52025e-15 -3.3402e-15 0 0 -3.9574e-15 -8.73027e-15 -1.27997e-15 -1.42517e-15 0 0 -1.59874e-15 -8.35855e-15 -3.95516e-15 3.70194e-15 0 0 -1.11147e-15 -7.88197e-15 -3.88826e-15 9.45039e-15 0 0 -6.83443e-16 -1.16525e-14 6.70186e-15 6.43048e-15 0 0 -9.60156e-16 -1.13142e-14 9.69523e-15 5.56138e-16 0 0 -1.7071e-15 -4.95634e-15 5.04162e-15 4.35146e-15 0 0 -1.04118e-15 1.41306e-15 5.53602e-15 2.86476e-15 0 0 -2.12848e-15 -3.5345e-16 1.29937e-14 1.2268e-16 0 0 -2.98599e-15 -1.40149e-15 1.27757e-14 7.35031e-15 0 0 2.42039e-15 -5.00035e-15 1.01105e-14 1.44941e-14 0 0 3.40233e-15 -8.18973e-15 1.5603e-14 1.05958e-14 0 0 -3.69421e-15 -2.19285e-15 1.23641e-14 1.30045e-14 0 0 -8.80262e-16 -1.61992e-15 1.15797e-14 1.4675e-14 0 0 -1.42643e-16 6.1079e-15 1.18325e-14 8.74436e-15 0 0 -1.23412e-15 1.73442e-14 1.21474e-14 6.51373e-15 0 0 4.19006e-15 2.82683e-14 1.62841e-14 7.58601e-15 0 0 4.21242e-15 4.29435e-14 2.37765e-14 1.2068e-14 0 0 1.97816e-14 4.49042e-14 3.98095e-14 1.08025e-14 0 0 2.76488e-14 4.45894e-14 5.91001e-14 4.51235e-15 0 0 1.63317e-14 5.47144e-14 5.85248e-14 1.05444e-14 0 0 2.33273e-14 6.41324e-14 4.37351e-14 1.82632e-14 0 0 3.37163e-14 6.64539e-14 4.20687e-14 1.25431e-14 0 0 3.35414e-14 7.14964e-14 4.31744e-14 8.19972e-15 0 0 3.87939e-14 7.56098e-14 4.11187e-14 1.13849e-14 0 0 3.10519e-14 6.94757e-14 3.57703e-14 3.03802e-14 0 0 9.04477e-15 6.10549e-14 3.32631e-14 3.37129e-14 0 0 -1.17035e-14 5.26642e-14 2.16192e-14 2.2404e-14 0 0 -2.14447e-14 2.6717e-14 -1.26646e-15 3.03787e-14 0 0 -1.40779e-14 3.081e-15 -1.14118e-14 2.30264e-14 0 0 -2.26982e-14 -2.20276e-15 -9.94562e-15 2.02339e-15 0 0 -2.63774e-14 -1.34886e-14 -1.61199e-14 3.42512e-15 0 0 -1.24035e-14 -1.37419e-14 -3.43744e-14 -6.29048e-15 0 0 -1.76854e-14 2.37849e-15 -5.72368e-14 -2.56444e-14 0 0 -3.1543e-14 -4.26938e-15 -5.6155e-14 -3.77188e-14 0 0 -5.78981e-14 4.40452e-15 -5.6688e-14 -3.89574e-14 0 0 -3.39709e-14 -7.77888e-15 -6.46902e-14 -4.0058e-14 0 0 -1.15546e-14 -2.6373e-14 -6.78963e-14 -3.33479e-14 0 0 -1.8398e-14 -3.11136e-14 -6.24473e-14 -2.53875e-14 0 0 -8.2808e-15 -4.64435e-14 -4.16578e-14 -3.77294e-14 0 0 -1.39203e-14 -4.58266e-14 -5.33089e-14 -2.76485e-14 0 0 -6.45066e-16 -4.72034e-14 -7.59739e-14 -1.0924e-14 0 0 -1.47251e-14 -3.0626e-14 -6.25498e-14 -1.05898e-14 0 0 -4.20447e-14 -2.23835e-14 -4.07646e-14 3.53796e-15 0 0 -5.17014e-14 -2.02832e-14 -4.49223e-14 9.60609e-15 0 0 -5.13203e-14 -1.61051e-14 -6.54543e-14 4.83547e-16 0 0 -3.03003e-14 -4.56078e-14 -4.87506e-14 -1.0397e-14 0 0 -1.40292e-14 -6.20824e-14 -1.68738e-14 -2.22605e-14 0 0 -2.14894e-14 -5.4127e-14 5.66042e-15 -3.06511e-14 0 0 -3.94083e-14 -6.45481e-14 1.40589e-14 -3.10067e-14 0 0 -3.35748e-14 -5.94691e-14 -3.41165e-15 -3.68761e-14 0 0 -2.63848e-14 -4.79859e-14 -1.66697e-14 -3.53926e-14 0 0 -2.66646e-14 -3.74935e-14 -4.16589e-14 -5.63659e-15 0 0 -3.00653e-14 -1.95973e-14 -3.0286e-14 -7.844e-15 0 0 -2.13079e-14 -4.61753e-14 -4.15772e-15 8.02752e-15 0 0 -3.59206e-15 -7.56996e-14 -1.90903e-14 2.79553e-14 0 0 -2.10402e-14 -3.87058e-14 -3.63659e-14 1.38117e-15 0 0 -3.7129e-14 -8.27394e-15 -3.38351e-14 -2.80432e-14 0 0 -3.11505e-14 -4.43026e-14 -6.40243e-15 -2.87862e-14 0 0 -2.46152e-14 -7.15488e-14 6.42122e-15 -2.37511e-14 0 0 -3.0127e-14 -3.47055e-14 -2.85976e-14 -1.86984e-15 0 0 -1.2691e-14 -4.3744e-14 -3.27993e-14 2.14766e-14 0 0 2.19451e-14 -6.78731e-14 -2.92759e-14 -3.23143e-15 0 0 1.51536e-14 -6.19125e-14 -2.23412e-14 -3.43819e-14 0 0 -1.39747e-14 -3.54153e-14 -2.28084e-14 -2.94005e-14 0 0 -2.84253e-14 -1.60028e-14 -2.52175e-14 -3.08062e-14 0 0 -9.54498e-15 -2.12455e-14 -2.94011e-14 -9.98306e-15 0 0 2.28571e-14 -3.46749e-14 -6.15644e-14 4.75957e-14 0 0 2.80622e-14 -4.07326e-14 -3.19621e-14 2.96281e-14 0 0 1.98014e-15 -1.10533e-14 4.37004e-15 -2.04557e-14 0 0 3.44119e-15 -1.27143e-14 3.82712e-15 -2.18e-14 0 0 1.2512e-14 -1.04405e-14 -2.49848e-15 -1.60581e-14 0 0 4.94695e-15 -1.42671e-15 -1.23378e-14 -3.18014e-15 0 0 9.91087e-15 -8.14471e-15 -5.83846e-16 -6.32763e-15 0 0 8.95299e-15 2.50696e-15 -1.13814e-14 -5.25085e-15 0 0 3.30122e-15 -1.44675e-15 -1.25415e-14 6.72299e-15 0 0 -1.02462e-15 -2.94731e-15 9.54598e-16 -6.32927e-16 0 0 -9.74343e-15 -1.83564e-15 -3.83196e-15 1.69687e-15 0 0 3.3639e-15 -2.02279e-14 5.82024e-15 -5.32266e-15 0 0 -5.32493e-15 -4.23594e-15 -7.9488e-15 -1.11598e-15 0 0 -9.50849e-15 -6.20043e-15 4.67582e-15 -1.08918e-14 0 0 1.18938e-15 -2.0473e-14 4.69648e-15 -2.24414e-14 0 0 -1.45184e-14 1.88782e-15 -1.34565e-14 -1.68846e-14 0 0 -5.09147e-14 1.20559e-14 -6.84227e-14 3.7741e-14 0 0 -3.89138e-14 4.52325e-15 -5.5513e-14 3.66442e-15 0 0 -3.72397e-14 -9.34451e-15 -4.12162e-14 -1.74087e-14 0 0 -8.9254e-15 -2.58208e-14 -1.52416e-14 -3.82593e-14 0 0 -1.86505e-14 -4.75125e-14 3.41159e-14 -4.59375e-14 0 0 -2.61545e-14 -3.21937e-14 -1.11311e-14 1.96999e-15 0 0 -2.81424e-14 2.49399e-14 -4.2401e-14 2.80317e-14 0 0 -3.80438e-14 -1.26157e-14 1.87707e-14 -2.09136e-14 0 0 -3.10606e-14 -3.24432e-14 8.16187e-15 -2.12075e-14 0 0 -5.07348e-14 -1.95533e-14 -1.98594e-14 2.90718e-14 0 0 -5.25251e-14 -2.87495e-14 -6.37382e-14 2.22258e-14 0 0 -5.83682e-14 -4.37753e-14 -5.92779e-14 -6.86996e-15 0 0 -6.31975e-14 -6.45302e-14 -3.04999e-14 -7.29395e-15 0 0 -5.01802e-14 -4.35006e-14 -3.53778e-14 2.68329e-14 0 0 -3.2456e-14 -6.68607e-14 -9.46722e-15 1.52368e-14 0 0 -2.7963e-14 -6.7304e-14 6.10709e-15 3.34331e-14 0 0 -5.03639e-14 -1.88396e-14 -3.55549e-14 4.57282e-14 0 0 -3.29179e-14 -2.06667e-14 -6.17473e-14 5.18638e-14 0 0 -1.84483e-14 -2.46437e-14 3.87657e-16 5.51052e-14 0 0 -2.65939e-14 -1.68079e-14 2.59121e-14 2.51725e-14 0 0 -1.82785e-14 -1.25871e-14 3.93649e-14 2.1559e-15 0 0 -7.62615e-15 4.94489e-15 2.67937e-15 -1.2978e-14 0 0 -1.11195e-14 2.01392e-14 -1.66758e-14 -2.52119e-14 0 0 -2.00712e-14 4.40495e-15 2.57219e-14 -6.30493e-16 0 0 -1.55509e-14 1.71881e-14 9.9085e-15 -4.56819e-15 0 0 -6.14518e-15 1.88205e-14 -3.71426e-15 -2.6699e-14 0 0 -4.85079e-15 1.60478e-14 -2.36544e-14 -1.74146e-14 0 0 4.57987e-15 -1.45155e-15 -3.49552e-15 -4.0602e-14 0 0 3.11391e-14 -3.66548e-14 3.04522e-14 -6.91117e-14 0 0 3.33355e-14 -2.84759e-14 1.39728e-14 -4.84063e-14 0 0 2.83978e-14 -3.87062e-15 -4.4375e-14 -4.30905e-14 0 0 3.17493e-14 1.3403e-15 -5.70908e-14 3.16883e-14 0 0 2.80001e-14 -1.01765e-14 -3.06555e-14 2.64534e-14 0 0 3.43748e-14 -3.03816e-14 4.97335e-15 -8.46975e-14 0 0 2.66959e-14 -2.04022e-14 -1.82962e-14 -2.26724e-14 0 0 1.70317e-14 1.82859e-14 -4.49938e-14 1.03978e-14 0 0 4.27831e-16 2.57213e-14 -5.42507e-14 -4.70388e-15 0 0 1.14793e-14 2.14789e-14 -7.1824e-14 6.41303e-14 0 0 1.82439e-14 2.42404e-14 -9.33274e-14 1.27989e-13 0 0 2.20945e-14 8.06849e-15 -1.16882e-13 1.16937e-13 0 0 6.95329e-14 -7.81842e-14 -8.8526e-15 7.31511e-14 0 0 6.37798e-14 -9.99306e-14 1.45032e-14 8.63012e-14 0 0 5.75201e-14 -7.08673e-14 -4.01102e-14 9.53516e-15 0 0 6.27046e-14 -8.46265e-14 -8.44178e-14 7.41999e-14 0 0 6.1601e-14 -1.1779e-13 -5.9141e-14 1.24682e-13 0 0 6.56041e-14 -1.2382e-13 -8.29735e-14 1.74607e-13 0 0 4.9377e-14 -9.85101e-14 -1.47576e-13 1.24018e-13 0 0 -2.52906e-14 -3.55182e-14 -1.79262e-13 7.78942e-14 0 0 -7.21102e-14 -3.74315e-15 -2.30369e-13 2.20484e-13 0 0 -7.77208e-14 -1.64184e-14 -1.99722e-13 1.70725e-13 0 0 -2.7789e-14 -5.84399e-14 -1.362e-13 8.55772e-14 0 0 6.08253e-14 -1.99058e-13 -3.10632e-14 5.61091e-14 0 0 3.67903e-14 -2.26106e-13 4.18737e-14 -5.41165e-14 0 0 -3.64522e-14 -9.63157e-14 -3.57225e-14 -9.72686e-14 0 0 -4.39513e-14 -4.91072e-14 -8.83749e-14 -6.41655e-14 0 0 -2.65791e-14 -7.01883e-14 -1.07041e-13 -3.38919e-14 0 0 -1.02815e-13 -1.06682e-14 -1.23364e-13 -9.82044e-14 0 0 -1.36948e-13 -3.13562e-14 -4.83505e-14 -2.36702e-13 0 0 -1.44769e-13 -7.29841e-14 4.98294e-14 -2.92854e-13 0 0 -1.77413e-13 -2.45288e-14 1.38419e-14 -1.92331e-13 0 0 -1.28424e-13 1.32693e-14 -9.40184e-14 -4.03424e-14 0 0 -6.3697e-14 -8.70617e-15 -8.91673e-14 7.11687e-15 0 0 3.71861e-14 -1.78839e-13 9.94814e-14 -5.07635e-14 0 0 8.82679e-14 -2.8068e-13 8.59006e-14 -6.13787e-15 0 0 3.57053e-14 -2.3097e-13 -1.76525e-14 1.27342e-14 0 0 -2.841e-14 -1.34945e-13 -2.87818e-14 4.01522e-14 0 0 -5.11434e-14 -8.56366e-14 -4.8587e-14 8.19122e-14 0 0 -6.09332e-14 -5.85701e-14 -6.02545e-14 1.4573e-13 0 0 -6.97551e-14 -1.82438e-14 -1.14606e-14 9.11927e-14 0 0 -4.65326e-14 -1.07637e-14 6.83571e-14 -4.79781e-14 0 0 6.50712e-15 -8.54451e-16 6.43761e-14 4.92723e-15 0 0 3.01081e-14 1.04356e-14 5.50322e-14 4.50995e-14 0 0 2.65988e-14 3.98205e-14 5.62703e-14 7.75164e-14 0 0 2.43057e-14 5.27526e-14 8.2705e-14 9.8903e-14 0 0 3.94854e-14 8.42199e-14 6.38833e-14 9.19512e-14 0 0 5.73997e-14 1.12045e-13 4.69313e-14 9.31579e-14 0 0 5.80483e-14 1.12718e-13 6.99717e-14 1.10691e-13 0 0 7.36933e-14 1.09096e-13 9.8709e-14 1.02081e-13 0 0 8.88215e-14 1.12219e-13 1.30988e-13 6.01607e-14 0 0 9.78876e-14 1.16274e-13 1.21762e-13 7.68726e-14 0 0 1.03004e-13 1.21034e-13 1.09467e-13 1.01372e-13 0 0 1.00277e-13 1.35136e-13 1.05354e-13 1.08579e-13 0 0 9.85948e-14 1.51121e-13 9.96058e-14 1.13738e-13 0 0 9.56854e-14 1.58744e-13 1.29245e-13 6.78847e-14 0 0 8.84836e-14 1.57054e-13 1.4828e-13 8.02234e-14 0 0 9.72648e-14 1.66841e-13 1.46472e-13 7.85074e-14 0 0 1.19364e-13 1.66527e-13 1.37407e-13 8.69779e-14 0 0 1.15902e-13 1.58106e-13 1.47177e-13 6.9736e-14 0 0 1.15171e-13 1.56745e-13 1.51421e-13 4.08884e-14 0 0 1.38864e-13 1.34364e-13 1.74772e-13 -2.14006e-15 0 0 1.32123e-13 1.419e-13 1.45486e-13 -2.64913e-14 0 0 1.00783e-13 1.50427e-13 1.17663e-13 -3.76966e-16 0 0 9.42298e-14 8.95153e-14 1.40242e-13 -8.65744e-15 0 0 7.47043e-14 7.98993e-14 1.0187e-13 1.45219e-14 0 0 4.4553e-14 8.8723e-14 1.03351e-13 -2.1557e-14 0 0 3.27214e-14 5.98138e-14 9.58509e-14 -5.8205e-14 0 0 1.04479e-14 5.47773e-14 7.62591e-14 -9.5092e-14 0 0 -1.56065e-14 8.33119e-14 4.04724e-14 -1.21596e-13 0 0 -5.61809e-15 7.917e-14 5.77832e-15 -1.04903e-13 0 0 1.6572e-14 4.73337e-14 1.97614e-14 -1.06024e-13 0
				</DataArray>
				<DataArray Name="VitesseY" type="Float32" format="ascii">