<?xml version="1.0"?>
<VTKFile type="PolyData">
	<PolyData>
		<Piece NumberOfPoints="1206" NumberOfPolys="1000">
			<Points>
				<DataArray type="Float32" NumberOfComponents="3" format="ascii">
 0 0 0 0.02 0 0 0.04 0 0 0.06 0 0 0.08 0 0 0.1 0 0 0 0.005 0 0.02 0.005 0 0.04 0.005 0 0.06 0.005 0 0.08 0.005 0 0.1 0.005 0 0 0.01 0 0.02 0.01 0 0.04 0.01 0 0.06 0.01 0 0.08 0.01 0 0.1 0.01 0 0 0.015 0 0.02 0.015 0 0.04 0.015 0 0.06 0.015 0 0.08 0.015 0 0.1 0.015 0 0 0.02 0 0.02 0.02 0 0.04 0.02 0 0.06 0.02 0 0.08 0.02 0 0.1 0.02 0 0 0.025 0 0.02 0.025 0 0.04 0.025 0 0.06 0.025 0 0.08 0.025 0 0.1 0.025 0 0 0.03 0 0.02 0.03 0 0.04 0.03 0 0.06 0.03 0 0.08 0.03 0 0.1 0.03 0 0 0.035 0 0.02 0.035 0 0.04 0.035 0 0.06 0.035 0 0.08 0.035 0 0.1 0.035 0 0 0.04 0 0.02 0.04 0 0.04 0.04 0 0.06 0.04 0 0.08 0.04 0 0.1 0.04 0 0 0.045 0 0.02 0.045 0 0.04 0.045 0 0.06 0.045 0 0.08 0.045 0 0.1 0.045 0 0 0.05 0 0.02 0.05 0 0.04 0.05 0 0.06 0.05 0 0.08 0.05 0 0.1 0.05 0 0 0.055 0 0.02 0.055 0 0.04 0.055 0 0.06 0.055 0 0.08 0.055 0 0.1 0.055 0 0 0.06 0 0.02 0.06 0 0.04 0.06 0 0.06 0.06 0 0.08 0.06 0 0.1 0.06 0 0 0.065 0 0.02 0.065 0 0.04 0.065 0 0.06 0.065 0 0.08 0.065 0 0.1 0.065 0 0 0.07 0 0.02 0.07 0 0.04 0.07 0 0.06 0.07 0 0.08 0.07 0 0.1 0.07 0 0 0.075 0 0.02 0.075 0 0.04 0.075 0 0.06 0.075 0 0.08 0.075 0 0.1 0.075 0 0 0.08 0 0.02 0.08 0 0.04 0.08 0 0.06 0.08 0 0.08 0.08 0 0.1 0.08 0 0 0.085 0 0.02 0.085 0 0.04 0.085 0 0.06 0.085 0 0.08 0.085 0 0.1 0.085 0 0 0.09 0 0.02 0.09 0 0.04 0.09 0 0.06 0.09 0 0.08 0.09 0 0.1 0.09 0 0 0.095 0 0.02 0.095 0 0.04 0.095 0 0.06 0.095 0 0.08 0.095 0 0.1 0.095 0 0 0.1 0 0.02 0.1 0 0.04 0.1 0 0.06 0.1 0 0.08 0.1 0 0.1 0.1 0 0 0.105 0 0.02 0.105 0 0.04 0.105 0 0.06 0.105 0 0.08 0.105 0 0.1 0.105 0 0 0.11 0 0.02 0.11 0 0.04 0.11 0 0.06 0.11 0 0.08 0.11 0 0.1 0.11 0 0 0.115 0 0.02 0.115 0 0.04 0.115 0 0.06 0.115 0 0.08 0.115 0 0.1 0.115 0 0 0.12 0 0.02 0.12 0 0.04 0.12 0 0.06 0.12 0 0.08 0.12 0 0.1 0.12 0 0 0.125 0 0.02 0.125 0 0.04 0.125 0 0.06 0.125 0 0.08 0.125 0 0.1 0.125 0 0 0.13 0 0.02 0.13 0 0.04 0.13 0 0.06 0.13 0 0.08 0.13 0 0.1 0.13 0 0 0.135 0 0.02 0.135 0 0.04 0.135 0 0.06 0.135 0 0.08 0.135 0 0.1 0.135 0 0 0.14 0 0.02 0.14 0 0.04 0.14 0 0.06 0.14 0 0.08 0.14 0 0.1 0.14 0 0 0.145 0 0.02 0.145 0 0.04 0.145 0 0.06 0.145 0 0.08 0.145 0 0.1 0.145 0 0 0.15 0 0.02 0.15 0 0.04 0.15 0 0.06 0.15 0 0.08 0.15 0 0.1 0.15 0 0 0.155 0 0.02 0.155 0 0.04 0.155 0 0.06 0.155 0 0.08 0.155 0 0.1 0.155 0 0 0.16 0 0.02 0.16 0 0.04 0.16 0 0.06 0.16 0 0.08 0.16 0 0.1 0.16 0 0 0.165 0 0.02 0.165 0 0.04 0.165 0 0.06 0.165 0 0.08 0.165 0 0.1 0.165 0 0 0.17 0 0.02 0.17 0 0.04 0.17 0 0.06 0.17 0 0.08 0.17 0 0.1 0.17 0 0 0.175 0 0.02 0.175 0 0.04 0.175 0 0.06 0.175 0 0.08 0.175 0 0.1 0.175 0 0 0.18 0 0.02 0.18 0 0.04 0.18 0 0.06 0.18 0 0.08 0.18 0 0.1 0.18 0 0 0.185 0 0.02 0.185 0 0.04 0.185 0 0.06 0.185 0 0.08 0.185 0 0.1 0.185 0 0 0.19 0 0.02 0.19 0 0.04 0.19 0 0.06 0.19 0 0.08 0.19 0 0.1 0.19 0 0 0.195 0 0.02 0.195 0 0.04 0.195 0 0.06 0.195 0 0.08 0.195 0 0.1 0.195 0 0 0.2 0 0.02 0.2 0 0.04 0.2 0 0.06 0.2 0 0.08 0.2 0 0.1 0.2 0 0 0.205 0 0.02 0.205 0 0.04 0.205 0 0.06 0.205 0 0.08 0.205 0 0.1 0.205 0 0 0.21 0 0.02 0.21 0 0.04 0.21 0 0.06 0.21 0 0.08 0.21 0 0.1 0.21 0 0 0.215 0 0.02 0.215 0 0.04 0.215 0 0.06 0.215 0 0.08 0.215 0 0.1 0.215 0 0 0.22 0 0.02 0.22 0 0.04 0.22 0 0.06 0.22 0 0.08 0.22 0 0.1 0.22 0 0 0.225 0 0.02 0.225 0 0.04 0.225 0 0.06 0.225 0 0.08 0.225 0 0.1 0.225 0 0 0.23 0 0.02 0.23 0 0.04 0.23 0 0.06 0.23 0 0.08 0.23 0 0.1 0.23 0 0 0.235 0 0.02 0.235 0 0.04 0.235 0 0.06 0.235 0 0.08 0.235 0 0.1 0.235 0 0 0.24 0 0.02 0.24 0 0.04 0.24 0 0.06 0.24 0 0.08 0.24 0 0.1 0.24 0 0 0.245 0 0.02 0.245 0 0.04 0.245 0 0.06 0.245 0 0.08 0.245 0 0.1 0.245 0 0 0.25 0 0.02 0.25 0 0.04 0.25 0 0.06 0.25 0 0.08 0.25 0 0.1 0.25 0 0 0.255 0 0.02 0.255 0 0.04 0.255 0 0.06 0.255 0 0.08 0.255 0 0.1 0.255 0 0 0.26 0 0.02 0.26 0 0.04 0.26 0 0.06 0.26 0 0.08 0.26 0 0.1 0.26 0 0 0.265 0 0.02 0.265 0 0.04 0.265 0 0.06 0.265 0 0.08 0.265 0 0.1 0.265 0 0 0.27 0 0.02 0.27 0 0.04 0.27 0 0.06 0.27 0 0.08 0.27 0 0.1 0.27 0 0 0.275 0 0.02 0.275 0 0.04 0.275 0 0.06 0.275 0 0.08 0.275 0 0.1 0.275 0 0 0.28 0 0.02 0.28 0 0.04 0.28 0 0.06 0.28 0 0.08 0.28 0 0.1 0.28 0 0 0.285 0 0.02 0.285 0 0.04 0.285 0 0.06 0.285 0 0.08 0.285 0 0.1 0.285 0 0 0.29 0 0.02 0.29 0 0.04 0.29 0 0.06 0.29 0 0.08 0.29 0 0.1 0.29 0 0 0.295 0 0.02 0.295 0 0.04 0.295 0 0.06 0.295 0 0.08 0.295 0 0.1 0.295 0 0 0.3 0 0.02 0.3 0 0.04 0.3 0 0.06 0.3 0 0.08 0.3 0 0.1 0.3 0 0 0.305 0 0.02 0.305 0 0.04 0.305 0 0.06 0.305 0 0.08 0.305 0 0.1 0.305 0 0 0.31 0 0.02 0.31 0 0.04 0.31 0 0.06 0.31 0 0.08 0.31 0 0.1 0.31 0 0 0.315 0 0.02 0.315 0 0.04 0.315 0 0.06 0.315 0 0.08 0.315 0 0.1 0.315 0 0 0.32 0 0.02 0.32 0 0.04 0.32 0 0.06 0.32 0 0.08 0.32 0 0.1 0.32 0 0 0.325 0 0.02 0.325 0 0.04 0.325 0 0.06 0.325 0 0.08 0.325 0 0.1 0.325 0 0 0.33 0 0.02 0.33 0 0.04 0.33 0 0.06 0.33 0 0.08 0.33 0 0.1 0.33 0 0 0.335 0 0.02 0.335 0 0.04 0.335 0 0.06 0.335 0 0.08 0.335 0 0.1 0.335 0 0 0.34 0 0.02 0.34 0 0.04 0.34 0 0.06 0.34 0 0.08 0.34 0 0.1 0.34 0 0 0.345 0 0.02 0.345 0 0.04 0.345 0 0.06 0.345 0 0.08 0.345 0 0.1 0.345 0 0 0.35 0 0.02 0.35 0 0.04 0.35 0 0.06 0.35 0 0.08 0.35 0 0.1 0.35 0 0 0.355002 0 0.02 0.355002 0 0.04 0.355002 0 0.06 0.355002 0 0.08 0.355002 0 0.1 0.355002 0 0 0.360007 0 0.02 0.360007 0 0.04 0.360007 0 0.06 0.360007 0 0.08 0.360007 0 0.1 0.360007 0 0 0.365021 0 0.02 0.365021 0 0.04 0.365021 0 0.06 0.365021 0 0.08 0.365021 0 0.1 0.365021 0 0 0.370059 0 0.02 0.370059 0 0.04 0.370059 0 0.06 0.370059 0 0.08 0.370059 0 0.1 0.370059 0 0 0.375144 0 0.02 0.375144 0 0.04 0.375144 0 0.06 0.375144 0 0.08 0.375144 0 0.1 0.375144 0 0 0.380309 0 0.02 0.380309 0 0.04 0.380309 0 0.06 0.380309 0 0.08 0.380309 0 0.1 0.380309 0 0 0.385592 0 0.02 0.385592 0 0.04 0.385592 0 0.06 0.385592 0 0.08 0.385592 0 0.1 0.385592 0 0 0.391026 0 0.02 0.391026 0 0.04 0.391026 0 0.06 0.391026 0 0.08 0.391026 0 0.1 0.391026 0 0 0.396641 0 0.02 0.396641 0 0.04 0.396641 0 0.06 0.396641 0 0.08 0.396641 0 0.1 0.396641 0 0 0.402462 0 0.02 0.402462 0 0.04 0.402462 0 0.06 0.402462 0 0.08 0.402462 0 0.1 0.402462 0 0 0.408513 0 0.02 0.408513 0 0.04 0.408513 0 0.06 0.408513 0 0.08 0.408513 0 0.1 0.408513 0 0 0.41482 0 0.02 0.41482 0 0.04 0.41482 0 0.06 0.41482 0 0.08 0.41482 0 0.1 0.41482 0 0 0.42141 0 0.02 0.42141 0 0.04 0.42141 0 0.06 0.42141 0 0.08 0.42141 0 0.1 0.42141 0 0 0.428315 0 0.02 0.428315 0 0.04 0.428315 0 0.06 0.428315 0 0.08 0.428315 0 0.1 0.428315 0 0 0.435572 0 0.02 0.435572 0 0.04 0.435572 0 0.06 0.435572 0 0.08 0.435572 0 0.1 0.435572 0 0 0.443222 0 0.02 0.443222 0 0.04 0.443222 0 0.06 0.443222 0 0.08 0.443222 0 0.1 0.443222 0 0 0.451315 0 0.02 0.451315 0 0.04 0.451315 0 0.06 0.451315 0 0.08 0.451315 0 0.1 0.451315 0 0 0.459911 0 0.02 0.459911 0 0.04 0.459911 0 0.06 0.459911 0 0.08 0.459911 0 0.1 0.459911 0 0 0.469078 0 0.02 0.469078 0 0.04 0.469078 0 0.06 0.469078 0 0.08 0.469078 0 0.1 0.469078 0 0 0.478898 0 0.02 0.478898 0 0.04 0.478898 0 0.06 0.478898 0 0.08 0.478898 0 0.1 0.478898 0 0 0.489458 0 0.02 0.489458 0 0.04 0.489458 0 0.06 0.489458 0 0.08 0.489458 0 0.1 0.489458 0 0 0.500829 0 0.02 0.500829 0 0.04 0.500829 0 0.06 0.500829 0 0.08 0.500829 0 0.1 0.500829 0 0 0.512971 0 0.02 0.512971 0 0.04 0.512971 0 0.06 0.512971 0 0.08 0.512971 0 0.1 0.512971 0 0 0.525446 0 0.02 0.525446 0 0.04 0.525446 0 0.06 0.525446 0 0.08 0.525446 0 0.1 0.525446 0 0 0.537743 0 0.02 0.537743 0 0.04 0.537743 0 0.06 0.537743 0 0.08 0.537743 0 0.1 0.537743 0 0 0.549843 0 0.02 0.549843 0 0.04 0.549843 0 0.06 0.549843 0 0.08 0.549843 0 0.1 0.549843 0 0 0.56179 0 0.02 0.56179 0 0.04 0.56179 0 0.06 0.56179 0 0.08 0.56179 0 0.1 0.56179 0 0 0.573657 0 0.02 0.573657 0 0.04 0.573657 0 0.06 0.573657 0 0.08 0.573657 0 0.1 0.573657 0 0 0.585494 0 0.02 0.585494 0 0.04 0.585494 0 0.06 0.585494 0 0.08 0.585494 0 0.1 0.585494 0 0 0.597322 0 0.02 0.597322 0 0.04 0.597322 0 0.06 0.597322 0 0.08 0.597322 0 0.1 0.597322 0 0 0.599605 0 0.02 0.599605 0 0.04 0.599605 0 0.06 0.599605 0 0.08 0.599605 0 0.1 0.599605 0 0 0.601887 0 0.02 0.601887 0 0.04 0.601887 0 0.06 0.601887 0 0.08 0.601887 0 0.1 0.601887 0 0 0.60417 0 0.02 0.60417 0 0.04 0.60417 0 0.06 0.60417 0 0.08 0.60417 0 0.1 0.60417 0 0 0.606451 0 0.02 0.606451 0 0.04 0.606451 0 0.06 0.606451 0 0.08 0.606451 0 0.1 0.606451 0 0 0.608732 0 0.02 0.608732 0 0.04 0.608732 0 0.06 0.608732 0 0.08 0.608732 0 0.1 0.608732 0 0 0.611012 0 0.02 0.611012 0 0.04 0.611012 0 0.06 0.611012 0 0.08 0.611012 0 0.1 0.611012 0 0 0.613289 0 0.02 0.613289 0 0.04 0.613289 0 0.06 0.613289 0 0.08 0.613289 0 0.1 0.613289 0 0 0.615566 0 0.02 0.615566 0 0.04 0.615566 0 0.06 0.615566 0 0.08 0.615566 0 0.1 0.615566 0 0 0.617845 0 0.02 0.617845 0 0.04 0.617845 0 0.06 0.617845 0 0.08 0.617845 0 0.1 0.617845 0 0 0.620124 0 0.02 0.620124 0 0.04 0.620124 0 0.06 0.620124 0 0.08 0.620124 0 0.1 0.620124 0 0 0.622406 0 0.02 0.622406 0 0.04 0.622406 0 0.06 0.622406 0 0.08 0.622406 0 0.1 0.622406 0 0 0.62469 0 0.02 0.62469 0 0.04 0.62469 0 0.06 0.62469 0 0.08 0.62469 0 0.1 0.62469 0 0 0.626975 0 0.02 0.626975 0 0.04 0.626975 0 0.06 0.626975 0 0.08 0.626975 0 0.1 0.626975 0 0 0.629259 0 0.02 0.629259 0 0.04 0.629259 0 0.06 0.629259 0 0.08 0.629259 0 0.1 0.629259 0 0 0.631541 0 0.02 0.631541 0 0.04 0.631541 0 0.06 0.631541 0 0.08 0.631541 0 0.1 0.631541 0 0 0.633824 0 0.02 0.633824 0 0.04 0.633824 0 0.06 0.633824 0 0.08 0.633824 0 0.1 0.633824 0 0 0.636107 0 0.02 0.636107 0 0.04 0.636107 0 0.06 0.636107 0 0.08 0.636107 0 0.1 0.636107 0 0 0.63839 0 0.02 0.63839 0 0.04 0.63839 0 0.06 0.63839 0 0.08 0.63839 0 0.1 0.63839 0 0 0.64067 0 0.02 0.64067 0 0.04 0.64067 0 0.06 0.64067 0 0.08 0.64067 0 0.1 0.64067 0 0 0.642947 0 0.02 0.642947 0 0.04 0.642947 0 0.06 0.642947 0 0.08 0.642947 0 0.1 0.642947 0 0 0.645226 0 0.02 0.645226 0 0.04 0.645226 0 0.06 0.645226 0 0.08 0.645226 0 0.1 0.645226 0 0 0.647506 0 0.02 0.647506 0 0.04 0.647506 0 0.06 0.647506 0 0.08 0.647506 0 0.1 0.647506 0 0 0.64979 0 0.02 0.64979 0 0.04 0.64979 0 0.06 0.64979 0 0.08
[...]
			<PointData Scalars="VitesseX">
				<DataArray Name="VitesseX" type="Float32" format="ascii">
 0 -1.95658e-15 1.54684e-15 3.59596e-15 1.11301e-14 0 0 -1.74311e-15 8.78091e-16 4.525e-15 1.02694e-14 0 0 -1.45783e-15 -3.80167e-16 5.99937e-15 9.37023e-15 0 0 -1.72645e-15 -4.14364e-16 6.15615e-15 9.75041e-15 0 0 -1.91056e-15 -3.17904e-16 6.15396e-15 9.04897e-15 0 0 -3.3514e-16 -1.65841e-15 5.34417e-15 8.77353e-15 0 0 1.73217e-15 -3.24469e-15 4.78964e-15 7.77367e-15 0 0 -2.30959e-16 5.03719e-16 1.71593e-15 6.39113e-15 0 0 -1.67678e-15 3.57107e-15 -3.42699e-17 5.45743e-15 0 0 -2.42184e-15 3.85603e-15 -4.89261e-16 6.25407e-15 0 0 -3.11326e-15 3.94141e-15 -1.54369e-15 7.4782e-15 0 0 -4.25952e-16 2.14286e-15 8.02076e-17 5.69548e-15 0 0 2.53646e-15 1.62313e-15 8.55857e-16 3.83979e-15 0 0 1.43729e-15 2.93764e-15 4.35075e-16 2.93642e-15 0 0 -8.45717e-16 5.36084e-15 -3.69079e-15 6.8872e-15 0 0 -2.08708e-15 6.58638e-15 -3.96338e-15 7.66441e-15 0 0 6.54835e-16 2.61689e-15 6.07834e-16 4.54583e-15 0 0 7.84853e-16 6.00188e-15 -5.42536e-15 8.97001e-15 0 0 2.18067e-15 4.28077e-15 -4.68757e-15 8.86905e-15 0 0 5.39509e-15 -2.10234e-15 2.10708e-15 4.22693e-15 0 0 1.47689e-17 2.96424e-15 3.99655e-16 6.58115e-15 0 0 1.23011e-15 -3.43411e-15 5.46673e-15 7.25892e-15 0 0 5.94395e-16 -7.83859e-15 9.54481e-15 3.16826e-15 0 0 -1.03409e-15 -7.52355e-15 1.03532e-14 -5.16689e-16 0 0 1.74229e-15 -4.52926e-15 1.4221e-15 2.89621e-15 0 0 3.60577e-15 2.92116e-16 -4.48781e-15 3.00432e-15 0 0 5.04288e-15 -4.75809e-15 9.16984e-15 -8.84079e-15 0 0 2.79791e-15 -2.37964e-15 1.6725e-14 -1.85293e-14 0 0 -3.94931e-16 7.74116e-15 2.30878e-15 -1.04587e-14 0 0 2.3688e-15 4.25748e-15 -6.0384e-15 1.12503e-15 0 0 2.84892e-15 -1.44723e-16 6.62765e-16 -2.88974e-16 0 0 -2.24258e-15 3.61566e-15 4.11686e-15 -5.12396e-16 0 0 1.5394e-15 2.68289e-15 2.65191e-15 4.47491e-15 0 0 5.56161e-15 2.20339e-15 3.66959e-15 3.64417e-15 0 0 3.21825e-15 -1.35135e-15 8.76097e-15 1.10144e-15 0 0 2.13591e-15 -4.33457e-15 9.73323e-15 8.23419e-16 0 0 3.65905e-16 6.69475e-16 1.03931e-14 2.24762e-16 0 0 6.47595e-16 -1.09982e-15 7.08337e-15 4.67374e-16 0 0 4.89668e-15 -6.07097e-15 1.908e-15 1.60146e-15 0 0 2.68805e-15 -5.05715e-15 4.76333e-15 3.34865e-15 0 0 -2.11005e-15 -8.90271e-15 9.20463e-15 7.81377e-15 0 0 -1.10332e-15 -9.11318e-15 5.30713e-15 1.67581e-14 0 0 -9.3321e-16 -2.90185e-15 -4.83076e-15 1.89703e-14 0 0 -6.07141e-15 -3.43284e-15 -1.61219e-15 6.96584e-15 0 0 -9.20272e-15 -4.03567e-15 1.28472e-14 -2.98096e-15 0 0 -1.06656e-14 -3.17664e-15 1.82142e-14 -5.35105e-15 0 0 -4.17083e-15 -9.59694e-15 2.10227e-14 -1.14104e-14 0 0 -3.96628e-15 -8.94333e-15 2.43878e-14 -2.40867e-14 0 0 -1.70248e-15 -8.36978e-15 2.32934e-14 -3.05372e-14 0 0 -1.78385e-15 1.24977e-15 1.45837e-14 -2.44956e-14 0 0 -1.92119e-14 2.24358e-14 5.74291e-16 -1.199e-14 0 0 -1.12305e-14 1.79446e-14 -1.41002e-15 -3.50264e-15 0 0 7.23566e-15 6.28114e-15 1.23702e-15 2.75927e-15 0 0 1.08593e-15 2.57175e-14 -1.4713e-14 9.61653e-15 0 0 -3.3458e-15 2.96379e-14 -1.02781e-14 -3.27199e-15 0 0 1.75352e-15 1.0872e-14 2.75827e-16 1.00384e-14 0 0 1.09918e-14 8.59296e-15 -6.87026e-15 3.92324e-14 0 0 2.05986e-14 -2.9166e-15 1.4727e-14 1.76e-14 0 0 7.68752e-15 1.11769e-14 -2.18477e-15 1.91656e-14 0 0 1.88155e-15 1.94616e-14 -9.90612e-15 1.87757e-14 0 0 2.19897e-15 1.36584e-14 2.8347e-14 -3.44649e-15 0 0 -1.73706e-14 4.49158e-14 5.66154e-15 2.64299e-14 0 0 -1.01668e-14 2.60753e-14 -1.06785e-14 5.37343e-14 0 0 -9.10604e-15 -2.16887e-14 -5.08929e-15 5.2822e-14 0 0 -2.44925e-14 -2.30897e-14 -3.4205e-14 4.83304e-14 0 0 -2.33656e-14 1.33229e-15 -5.70747e-14 1.04712e-14 0 0 -2.44816e-15 1.16556e-14 -4.91308e-14 -3.215e-14 0 0 2.98016e-15 6.05945e-15 -2.06653e-14 -4.69089e-14 0 0 -1.95454e-14 -3.37602e-15 -1.18461e-14 -2.91594e-14 0 0 -3.46522e-14 -1.89272e-14 -2.11421e-15 -1.07786e-14 0 0 -3.9328e-14 -2.5045e-14 1.12819e-14 -1.59862e-14 0 0 1.57916e-14 -2.62682e-14 -3.81609e-15 -9.75227e-15 0 0 2.97815e-14 -2.25569e-14 -1.14676e-14 -2.09376e-15 0 0 -8.58102e-15 1.27225e-15 -3.01584e-14 5.64959e-15 0 0 -7.4122e-15 6.72442e-15 -6.01559e-14 9.10813e-15 0 0 4.08171e-15 -1.73463e-14 -4.00149e-14 -5.47772e-15 0 0 8.4795e-15 -2.94091e-14 -4.47641e-15 -1.58453e-14 0 0 -1.33018e-14 -3.29755e-15 -3.32181e-14 1.5638e-14 0 0 1.06636e-14 -2.19272e-15 -4.83642e-14 2.53869e-14 0 0 1.57783e-14 -8.55343e-15 -2.38372e-14 1.78664e-14 0 0 -2.31415e-14 1.80997e-14 -1.68891e-14 6.43375e-15 0 0 -1.77082e-14 2.09784e-14 -2.21839e-14 -1.81955e-14 0 0 -2.45245e-14 -3.59471e-15 1.05324e-16 -3.09369e-14 0 0 -1.6344e-14 -2.84643e-14 1.98042e-14 -1.08125e-14 0 0 4.25667e-15 -3.26748e-14 2.40211e-14 -2.31596e-14 0 0 -3.19682e-14 -7.12906e-15 -6.02174e-15 -3.68057e-14 0 0 -3.78518e-14 -2.00397e-14 -2.48948e-14 1.29933e-14 0 0 -2.25141e-14 -3.4741e-14 -1.41889e-14 3.32655e-14 0 0 -1.18435e-14 -8.38529e-15 -1.79387e-14 2.12177e-14 0 0 1.17936e-14 3.46378e-15 -2.08626e-14 1.50873e-15 0 0 1.92147e-14 -1.36776e-14 -7.48579e-15 -1.52749e-14 0 0 -1.64149e-15 -2.62762e-14 8.96101e-15 -2.5466e-15 0 0 -2.29891e-14 1.57093e-14 -1.42677e-14 3.03262e-14 0 0 -1.63124e-14 4.77657e-14 6.22902e-16 2.72252e-14 0 0 -2.0036e-15 -1.15798e-14 1.51489e-14 1.26409e-15 0 0 -4.83501e-14 -8.06768e-14 -6.56996e-14 -4.76562e-14 0 0 -1.28013e-13 -1.83344e-13 -2.00386e-13 -1.20246e-13 0 0 -1.80301e-13 -3.17553e-13 -2.94795e-13 -1.90834e-13 0 0 -2.04298e-13 -3.30545e-13 -3.33688e-13 -2.13635e-13 0 0 -1.86581e-13 -2.96769e-13 -3.02505e-13 -1.98939e-13 0 0 -1.77716e-13 -3.00735e-13 -2.91925e-13 -1.94669e-13 0 0 -2.37185e-13 -4.09546e-13 -4.34875e-13 -2.33118e-13 0 0 -2.30585e-13 -3.91625e-13 -4.78936e-13 -1.88494e-13 0 0 -2.57618e-13 -4.16175e-13 -4.66792e-13 -2.58717e-13 0 0 -2.88496e-13 -4.73497e-13 -4.89774e-13 -2.75359e-13 0 0 -3.15643e-13 -5.08972e-13 -5.22722e-13 -2.87149e-13 0 0 -3.27948e-13 -4.90488e-13 -4.91333e-13 -2.78724e-13 0 0 -1.76655e-13 -3.10695e-13 -2.72191e-13 -1.36803e-13 0 0 6.08441e-14 5.50573e-14 1.11961e-13 4.09148e-14 0 0 2.55487e-13 4.45597e-13 4.89916e-13 2.65767e-13 0 0 3.8673e-13 6.3855e-13 6.93865e-13 4.04113e-13 0 0 3.86376e-13 6.36212e-13 6.59053e-13 3.93461e-13 0 0 2.83073e-13 5.27659e-13 5.26285e-13 3.02572e-13 0 0 2.01773e-13 3.84826e-13 3.92124e-13 2.36199e-13 0 0 1.56871e-13 2.556e-13 2.71902e-13 1.29573e-13 0 0 9.49106e-14 1.19519e-13 1.54663e-13 4.06696e-15 0 0 -1.37719e-15 3.31851e-14 2.50186e-14 -2.54221e-14 0 0 -6.70027e-14 -6.62021e-14 -3.99961e-14 -1.25411e-14 0 0 -1.01257e-13 -1.79096e-13 -1.0246e-13 -6.7275e-14 0 0 -1.44081e-13 -2.58921e-13 -1.75464e-13 -1.02594e-13 0 0 -1.8307e-13 -3.09115e-13 -2.74851e-13 -1.3357e-13 0 0 -2.39156e-13 -3.42301e-13 -3.55713e-13 -2.1143e-13 0 0 -2.84219e-13 -4.13305e-13 -3.60647e-13 -2.64002e-13 0 0 -3.09325e-13 -4.64558e-13 -3.7301e-13 -3.08188e-13 0 0 -3.04079e-13 -5.32768e-13 -3.88966e-13 -3.15315e-13 0 0 -3.00667e-13 -5.7775e-13 -4.79395e-13 -2.61027e-13 0 0 -3.20766e-13 -5.65689e-13 -5.63557e-13 -2.9802e-13 0 0 -3.29239e-13 -5.54509e-13 -6.2908e-13 -3.5639e-13 0 0 -3.55428e-13 -5.69131e-13 -6.75229e-13 -3.46491e-13 0 0 -3.79263e-13 -5.98186e-13 -6.8779e-13 -3.79437e-13 0 0 -3.62137e-13 -5.97181e-13 -6.41158e-13 -3.5234e-13 0 0 -3.32638e-13 -5.67411e-13 -5.82093e-13 -4.08728e-13 0 0 -3.42976e-13 -5.12118e-13 -4.86494e-13 -3.26315e-13 0 0 -3.10158e-13 -4.99005e-13 -4.39112e-13 -1.80253e-13 0 0 -2.29544e-13 -4.13493e-13 -3.6743e-13 -1.58504e-13 0 0 -1.94419e-13 -3.20194e-13 -2.95581e-13 -1.65202e-13 0 0 -1.37573e-13 -2.6214e-13 -2.61498e-13 -1.23666e-13 0 0 -8.6216e-14 -1.56273e-13 -1.93551e-13 -6.82523e-14 0 0 -5.1729e-14 -1.01108e-13 -1.05716e-13 -7.57265e-14 0 0 -2.93347e-14 -6.8586e-14 -4.79264e-14 -4.42823e-14 0 0 -2.57339e-14 -1.324e-14 -5.52528e-14 -2.30008e-14 0 0 -2.32456e-14 1.13481e-14 -5.89948e-14 -3.56634e-15 0 0 -2.47348e-14 1.70463e-14 -4.88691e-14 -1.79394e-14 0 0 -1.72339e-14 1.18771e-14 -5.17521e-14 -1.24397e-14 0 0 -9.08018e-15 3.35307e-15 -3.75443e-14 -5.05139e-16 0 0 -6.16247e-15 -1.63006e-14 -1.18806e-14 -1.92692e-14 0 0 -6.96649e-15 -1.05757e-14 -2.44136e-14 -8.32883e-15 0 0 -1.21489e-14 4.44291e-16 -3.91702e-14 1.94299e-14 0 0 -1.4214e-14 -5.78709e-15 -1.64923e-14 -9.4707e-15 0 0 -2.12325e-14 -1.24382e-14 -3.66511e-15 -2.64947e-14 0 0 -2.75219e-14 -1.35963e-14 -1.9958e-14 1.01284e-14 0 0 -2.19407e-14 -1.62932e-14 -2.37172e-14 9.07694e-15 0 0 -2.55331e-14 -6.94742e-15 -3.95664e-14 7.84739e-15 0 0 -3.15117e-14 1.19696e-14 -4.0709e-14 1.67033e-15 0 0 -2.46038e-14 1.39396e-14 -6.23842e-14 1.10776e-14 0 0 -2.45834e-14 3.18283e-15 -4.06121e-14 2.58236e-14 0 0 -2.52042e-14 8.07686e-15 -1.30128e-14 3.00172e-14 0 0 -2.2398e-14 1.58613e-14 -9.16515e-15 2.31849e-14 0 0 -2.54772e-14 1.37202e-14 2.6955e-14 1.54786e-14 0 0 -2.81836e-14 1.28183e-14 2.64527e-14 6.62167e-14 0 0 3.88255e-15 3.8991e-15 1.51197e-14 1.01757e-13 0 0 2.17798e-14 -2.28042e-14 7.57625e-14 1.00163e-13 0 0 -1.73806e-14 6.3989e-14 2.35356e-14 9.78098e-14 0 0 -3.91705e-14 1.15067e-13 7.19126e-15 6.39569e-14 0 0 -3.5613e-14 5.11125e-14 1.01396e-13 -1.30695e-14 0 0 -3.8163e-15 -1.70168e-14 1.49465e-13 -6.72733e-14 0 0 1.57647e-14 -7.43845e-15 9.7614e-14 -4.0916e-14 0 0 -1.18047e-14 4.88036e-14 2.22391e-14 3.85728e-14 0 0 -3.48535e-14 7.16249e-14 2.8926e-14 5.03454e-14 0 0 -5.28432e-14 1.30192e-13 -1.91217e-14 4.00111e-14 0 0 -1.20384e-14 6.71725e-14 -1.28525e-15 7.83968e-14 0 0 8.89998e-15 1.82126e-14 2.46319e-14 1.33187e-13 0 0 -2.36062e-14 4.31396e-14 2.82229e-14 9.41756e-14 0 0 -3.97253e-14 4.58312e-14 1.74189e-14 4.2765e-14 0 0 -1.85354e-14 2.58717e-14 1.78952e-14 2.53727e-14 0 0 5.03897e-14 -4.58766e-14 6.27902e-14 -1.10404e-14 0 0 8.04012e-14 -6.05424e-14 7.11492e-14 -2.27939e-15 0 0 3.29777e-14 -2.60637e-14 5.53411e-14 1.62762e-14 0 0 -2.89237e-14 -2.11311e-14 5.39882e-14 5.65013e-14 0 0 -2.56142e-14 -5.51721e-14 1.30927e-13 7.49041e-16 0 0 -3.92767e-14 8.48209e-15 7.44038e-14 -2.37282e-14 0 0 -1.79056e-14 3.31413e-14 -3.21063e-15 1.24364e-14 0 0 4.6029e-14 -2.35875e-14 3.24101e-14 1.75802e-15 0 0 3.2084e-14 2.63652e-14 -1.06036e-14 4.5533e-14 0 0 2.97415e-14 3.8916e-14 1.81773e-15 1.34773e-14 0 0 2.96277e-14 1.42983e-14 6.98935e-14 -7.26994e-14 0 0 3.29611e-14 6.91057e-15 4.4333e-14 -4.63552e-14 0 0 2.18121e-14 7.25565e-15 1.60688e-14 -1.10132e-14 0 0 6.51959e-15 3.12643e-14 -1.01665e-15 1.22399e-14 0 0 -1.7665e-14 6.32406e-14 -2.41568e-14 1.54928e-14 0 0 5.26027e-15 -1.45479e-14 5.37557e-14 -3.96829e-14 0 0 2.81431e-14 -3.87005e-14 2.93264e-14 6.7246e-15 0 0 1.45117e-14 9.09512e-15 -4.56632e-14 6.07003e-14 0 0 5.38308e-14 -1.6694e-14 -4.24979e-14 6.50282e-14 0 0 5.47829e-14 -5.58682e-15 -1.04306e-14 2.87835e-14 0 0 1.69622e-14 4.23656e-14 -6.57976e-15 2.67778e-14 0 0 -3.75923e-16 4.40819e-14 -2.03808e-14 6.54977e-14 0 0 2.48021e-14 -1.79232e-14 3.14659e-14 5.89139e-14 0 0 3.29824e-14 -2.85855e-14 4.31951e-14 5.52184e-14 0 0 -6.1728e-15 1.14056e-14 -2.34046e-15 8.24684e-14 0 0 -3.41335e-14 3.66687e-14 -3.92307e-14 1.19632e-13 0
				</DataArray>
				<DataArray Name="VitesseY" type="Float32" format="ascii">