<?xml version="1.0"?>
<VTKFile type="PolyData">
	<PolyData>
		<Piece NumberOfPoints="1206" NumberOfPolys="1000">
			<Points>
				<DataArray type="Float32" NumberOfComponents="3" format="ascii">
 0 0 0 0.02 0 0 0.04 0 0 0.06 0 0 0.08 0 0 0.1 0 0 0 0.005 0 0.02 0.005 0 0.04 0.005 0 0.06 0.005 0 0.08 0.005 0 0.1 0.005 0 0 0.01 0 0.02 0.01 0 0.04 0.01 0 0.06 0.01 0 0.08 0.01 0 0.1 0.01 0 0 0.015 0 0.02 0.015 0 0.04 0.015 0 0.06 0.015 0 0.08 0.015 0 0.1 0.015 0 0 0.02 0 0.02 0.02 0 0.04 0.02 0 0.06 0.02 0 0.08 0.02 0 0.1 0.02 0 0 0.025 0 0.02 0.025 0 0.04 0.025 0 0.06 0.025 0 0.08 0.025 0 0.1 0.025 0 0 0.03 0 0.02 0.03 0 0.04 0.03 0 0.06 0.03 0 0.08 0.03 0 0.1 0.03 0 0 0.035 0 0.02 0.035 0 0.04 0.035 0 0.06 0.035 0 0.08 0.035 0 0.1 0.035 0 0 0.04 0 0.02 0.04 0 0.04 0.04 0 0.06 0.04 0 0.08 0.04 0 0.1 0.04 0 0 0.045 0 0.02 0.045 0 0.04 0.045 0 0.06 0.045 0 0.08 0.045 0 0.1 0.045 0 0 0.05 0 0.02 0.05 0 0.04 0.05 0 0.06 0.05 0 0.08 0.05 0 0.1 0.05 0 0 0.055 0 0.02 0.055 0 0.04 0.055 0 0.06 0.055 0 0.08 0.055 0 0.1 0.055 0 0 0.06 0 0.02 0.06 0 0.04 0.06 0 0.06 0.06 0 0.08 0.06 0 0.1 0.06 0 0 0.065 0 0.02 0.065 0 0.04 0.065 0 0.06 0.065 0 0.08 0.065 0 0.1 0.065 0 0 0.07 0 0.02 0.07 0 0.04 0.07 0 0.06 0.07 0 0.08 0.07 0 0.1 0.07 0 0 0.075 0 0.02 0.075 0 0.04 0.075 0 0.06 0.075 0 0.08 0.075 0 0.1 0.075 0 0 0.08 0 0.02 0.08 0 0.04 0.08 0 0.06 0.08 0 0.08 0.08 0 0.1 0.08 0 0 0.085 0 0.02 0.085 0 0.04 0.085 0 0.06 0.085 0 0.08 0.085 0 0.1 0.085 0 0 0.09 0 0.02 0.09 0 0.04 0.09 0 0.06 0.09 0 0.08 0.09 0 0.1 0.09 0 0 0.095 0 0.02 0.095 0 0.04 0.095 0 0.06 0.095 0 0.08 0.095 0 0.1 0.095 0 0 0.1 0 0.02 0.1 0 0.04 0.1 0 0.06 0.1 0 0.08 0.1 0 0.1 0.1 0 0 0.105 0 0.02 0.105 0 0.04 0.105 0 0.06 0.105 0 0.08 0.105 0 0.1 0.105 0 0 0.11 0 0.02 0.11 0 0.04 0.11 0 0.06 0.11 0 0.08 0.11 0 0.1 0.11 0 0 0.115 0 0.02 0.115 0 0.04 0.115 0 0.06 0.115 0 0.08 0.115 0 0.1 0.115 0 0 0.12 0 0.02 0.12 0 0.04 0.12 0 0.06 0.12 0 0.08 0.12 0 0.1 0.12 0 0 0.125 0 0.02 0.125 0 0.04 0.125 0 0.06 0.125 0 0.08 0.125 0 0.1 0.125 0 0 0.13 0 0.02 0.13 0 0.04 0.13 0 0.06 0.13 0 0.08 0.13 0 0.1 0.13 0 0 0.135 0 0.02 0.135 0 0.04 0.135 0 0.06 0.135 0 0.08 0.135 0 0.1 0.135 0 0 0.14 0 0.02 0.14 0 0.04 0.14 0 0.06 0.14 0 0.08 0.14 0 0.1 0.14 0 0 0.145 0 0.02 0.145 0 0.04 0.145 0 0.06 0.145 0 0.08 0.145 0 0.1 0.145 0 0 0.15 0 0.02 0.15 0 0.04 0.15 0 0.06 0.15 0 0.08 0.15 0 0.1 0.15 0 0 0.155 0 0.02 0.155 0 0.04 0.155 0 0.06 0.155 0 0.08 0.155 0 0.1 0.155 0 0 0.16 0 0.02 0.16 0 0.04 0.16 0 0.06 0.16 0 0.08 0.16 0 0.1 0.16 0 0 0.165 0 0.02 0.165 0 0.04 0.165 0 0.06 0.165 0 0.08 0.165 0 0.1 0.165 0 0 0.17 0 0.02 0.17 0 0.04 0.17 0 0.06 0.17 0 0.08 0.17 0 0.1 0.17 0 0 0.175 0 0.02 0.175 0 0.04 0.175 0 0.06 0.175 0 0.08 0.175 0 0.1 0.175 0 0 0.18 0 0.02 0.18 0 0.04 0.18 0 0.06 0.18 0 0.08 0.18 0 0.1 0.18 0 0 0.185 0 0.02 0.185 0 0.04 0.185 0 0.06 0.185 0 0.08 0.185 0 0.1 0.185 0 0 0.19 0 0.02 0.19 0 0.04 0.19 0 0.06 0.19 0 0.08 0.19 0 0.1 0.19 0 0 0.195 0 0.02 0.195 0 0.04 0.195 0 0.06 0.195 0 0.08 0.195 0 0.1 0.195 0 0 0.2 0 0.02 0.2 0 0.04 0.2 0 0.06 0.2 0 0.08 0.2 0 0.1 0.2 0 0 0.205 0 0.02 0.205 0 0.04 0.205 0 0.06 0.205 0 0.08 0.205 0 0.1 0.205 0 0 0.21 0 0.02 0.21 0 0.04 0.21 0 0.06 0.21 0 0.08 0.21 0 0.1 0.21 0 0 0.215 0 0.02 0.215 0 0.04 0.215 0 0.06 0.215 0 0.08 0.215 0 0.1 0.215 0 0 0.22 0 0.02 0.22 0 0.04 0.22 0 0.06 0.22 0 0.08 0.22 0 0.1 0.22 0 0 0.225 0 0.02 0.225 0 0.04 0.225 0 0.06 0.225 0 0.08 0.225 0 0.1 0.225 0 0 0.23 0 0.02 0.23 0 0.04 0.23 0 0.06 0.23 0 0.08 0.23 0 0.1 0.23 0 0 0.235 0 0.02 0.235 0 0.04 0.235 0 0.06 0.235 0 0.08 0.235 0 0.1 0.235 0 0 0.24 0 0.02 0.24 0 0.04 0.24 0 0.06 0.24 0 0.08 0.24 0 0.1 0.24 0 0 0.245 0 0.02 0.245 0 0.04 0.245 0 0.06 0.245 0 0.08 0.245 0 0.1 0.245 0 0 0.250001 0 0.02 0.250001 0 0.04 0.250001 0 0.06 0.250001 0 0.08 0.250001 0 0.1 0.250001 0 0 0.255002 0 0.02 0.255002 0 0.04 0.255002 0 0.06 0.255002 0 0.08 0.255002 0 0.1 0.255002 0 0 0.260007 0 0.02 0.260007 0 0.04 0.260007 0 0.06 0.260007 0 0.08 0.260007 0 0.1 0.260007 0 0 0.265017 0 0.02 0.265017 0 0.04 0.265017 0 0.06 0.265017 0 0.08 0.265017 0 0.1 0.265017 0 0 0.27004 0 0.02 0.27004 0 0.04 0.27004 0 0.06 0.27004 0 0.08 0.27004 0 0.1 0.27004 0 0 0.275086 0 0.02 0.275086 0 0.04 0.275086 0 0.06 0.275086 0 0.08 0.275086 0 0.1 0.275086 0 0 0.280169 0 0.02 0.280169 0 0.04 0.280169 0 0.06 0.280169 0 0.08 0.280169 0 0.1 0.280169 0 0 0.285304 0 0.02 0.285304 0 0.04 0.285304 0 0.06 0.285304 0 0.08 0.285304 0 0.1 0.285304 0 0 0.290508 0 0.02 0.290508 0 0.04 0.290508 0 0.06 0.290508 0 0.08 0.290508 0 0.1 0.290508 0 0 0.295795 0 0.02 0.295795 0 0.04 0.295795 0 0.06 0.295795 0 0.08 0.295795 0 0.1 0.295795 0 0 0.301174 0 0.02 0.301174 0 0.04 0.301174 0 0.06 0.301174 0 0.08 0.301174 0 0.1 0.301174 0 0 0.306655 0 0.02 0.306655 0 0.04 0.306655 0 0.06 0.306655 0 0.08 0.306655 0 0.1 0.306655 0 0 0.312247 0 0.02 0.312247 0 0.04 0.312247 0 0.06 0.312247 0 0.08 0.312247 0 0.1 0.312247 0 0 0.317955 0 0.02 0.317955 0 0.04 0.317955 0 0.06 0.317955 0 0.08 0.317955 0 0.1 0.317955 0 0 0.323787 0 0.02 0.323787 0 0.04 0.323787 0 0.06 0.323787 0 0.08 0.323787 0 0.1 0.323787 0 0 0.32975 0 0.02 0.32975 0 0.04 0.32975 0 0.06 0.32975 0 0.08 0.32975 0 0.1 0.32975 0 0 0.335851 0 0.02 0.335851 0 0.04 0.335851 0 0.06 0.335851 0 0.08 0.335851 0 0.1 0.335851 0 0 0.342099 0 0.02 0.342099 0 0.04 0.342099 0 0.06 0.342099 0 0.08 0.342099 0 0.1 0.342099 0 0 0.348502 0 0.02 0.348502 0 0.04 0.348502 0 0.06 0.348502 0 0.08 0.348502 0 0.1 0.348502 0 0 0.355069 0 0.02 0.355069 0 0.04 0.355069 0 0.06 0.355069 0 0.08 0.355069 0 0.1 0.355069 0 0 0.36181 0 0.02 0.36181 0 0.04 0.36181 0 0.06 0.36181 0 0.08 0.36181 0 0.1 0.36181 0 0 0.368736 0 0.02 0.368736 0 0.04 0.368736 0 0.06 0.368736 0 0.08 0.368736 0 0.1 0.368736 0 0 0.375857 0 0.02 0.375857 0 0.04 0.375857 0 0.06 0.375857 0 0.08 0.375857 0 0.1 0.375857 0 0 0.383188 0 0.02 0.383188 0 0.04 0.383188 0 0.06 0.383188 0 0.08 0.383188 0 0.1 0.383188 0 0 0.390742 0 0.02 0.390742 0 0.04 0.390742 0 0.06 0.390742 0 0.08 0.390742 0 0.1 0.390742 0 0 0.398535 0 0.02 0.398535 0 0.04 0.398535 0 0.06 0.398535 0 0.08 0.398535 0 0.1 0.398535 0 0 0.406583 0 0.02 0.406583 0 0.04 0.406583 0 0.06 0.406583 0 0.08 0.406583 0 0.1 0.406583 0 0 0.414905 0 0.02 0.414905 0 0.04 0.414905 0 0.06 0.414905 0 0.08 0.414905 0 0.1 0.414905 0 0 0.423522 0 0.02 0.423522 0 0.04 0.423522 0 0.06 0.423522 0 0.08 0.423522 0 0.1 0.423522 0 0 0.432458 0 0.02 0.432458 0 0.04 0.432458 0 0.06 0.432458 0 0.08 0.432458 0 0.1 0.432458 0 0 0.441738 0 0.02 0.441738 0 0.04 0.441738 0 0.06 0.441738 0 0.08 0.441738 0 0.1 0.441738 0 0 0.451388 0 0.02 0.451388 0 0.04 0.451388 0 0.06 0.451388 0 0.08 0.451388 0 0.1 0.451388 0 0 0.461441 0 0.02 0.461441 0 0.04 0.461441 0 0.06 0.461441 0 0.08 0.461441 0 0.1 0.461441 0 0 0.471925 0 0.02 0.471925 0 0.04 0.471925 0 0.06 0.471925 0 0.08 0.471925 0 0.1 0.471925 0 0 0.482868 0 0.02 0.482868 0 0.04 0.482868 0 0.06 0.482868 0 0.08 0.482868 0 0.1 0.482868 0 0 0.494283 0 0.02 0.494283 0 0.04 0.494283 0 0.06 0.494283 0 0.08 0.494283 0 0.1 0.494283 0 0 0.506135 0 0.02 0.506135 0 0.04 0.506135 0 0.06 0.506135 0 0.08 0.506135 0 0.1 0.506135 0 0 0.518256 0 0.02 0.518256 0 0.04 0.518256 0 0.06 0.518256 0 0.08 0.518256 0 0.1 0.518256 0 0 0.530351 0 0.02 0.530351 0 0.04 0.530351 0 0.06 0.530351 0 0.08 0.530351 0 0.1 0.530351 0 0 0.542359 0 0.02 0.542359 0 0.04 0.542359 0 0.06 0.542359 0 0.08 0.542359 0 0.1 0.542359 0 0 0.554275 0 0.02 0.554275 0 0.04 0.554275 0 0.06 0.554275 0 0.08 0.554275 0 0.1 0.554275 0 0 0.566116 0 0.02 0.566116 0 0.04 0.566116 0 0.06 0.566116 0 0.08 0.566116 0 0.1 0.566116 0 0 0.577907 0 0.02 0.577907 0 0.04 0.577907 0 0.06 0.577907 0 0.08 0.577907 0 0.1 0.577907 0 0 0.58967 0 0.02 0.58967 0 0.04 0.58967 0 0.06 0.58967 0 0.08 0.58967 0 0.1 0.58967 0 0 0.601418 0 0.02 0.601418 0 0.04 0.601418 0 0.06 0.601418 0 0.08 0.601418 0 0.1 0.601418 0 0 0.613159 0 0.02 0.613159 0 0.04 0.613159 0 0.06 0.613159 0 0.08 0.613159 0 0.1 0.613159 0 0 0.624897 0 0.02 0.624897 0 0.04 0.624897 0 0.06 0.624897 0 0.08 0.624897 0 0.1 0.624897 0 0 0.636633 0 0.02 0.636633 0 0.04 0.636633 0 0.06 0.636633 0 0.08 0.636633 0 0.1 0.636633 0 0 0.648369 0 0.02 0.648369 0 0.04 0.648369 0 0.06 0.648369 0 0.08 0.648369 0 0.1 0.648369 0 0 0.660107 0 0.02 0.660107 0 0.04 0.660107 0 0.06 0.660107 0 0.08 0.660107 0 0.1 0.660107 0 0 0.671859 0 0.02 0.671859 0 0.04 0.671859 0 0.06 0.671859 0 0.08 0.671859 0 0.1 0.671859 0 0 0.674471 0 0.02 0.674471 0 0.04 0.674471 0 0.06 0.674471 0 0.08 0.674471 0 0.1 0.674471 0 0 0.677009 0 0.02 0.677009 0 0.04 0.677009 0 0.06 0.677009 0 0.08 0.677009 0 0.1 0.677009 0 0 0.6795 0 0.02 0.6795 0 0.04 0.6795 0 0.06 0.6795 0 0.08 0.6795 0 0.1 0.6795 0 0 0.68196 0 0.02 0.68196 0 0.04 0.68196 0 0.06 0.68196 0 0.08 0.68196 0 0.1 0.68196 0 0 0.684398 0 0.02 0.684398 0 0.04 0.684398 0 0.06 0.684398 0 0.08 0.684398 0 0.1 0.684398 0 0 0.686819 0 0.02 0.686819 0 0.04 0.686819 0 0.06 0.686819 0 0.08 0.686819 0 0.1 0.686819 0 0 0.689229 0 0.02 0.689229 0 0.04 0.689229 0 0.06 0.689229 0 0.08 0.689229 0 0.1 0.689229 0 0 0.69163 0 0.02 0.69163 0 0.04 0.69163 0 0.06 0.69163 0 0.08 0.69163 0 0.1 0.69163 0 0 0.694024 0 0.02 0.694024 0 0.04 0.694024 0 0.06 0.694024 0 0.08 0.694024 0 0.1 0.694024 0 0 0.696413 0 0.02 0.696413 0 0.04 0.696413 0 0.06 0.696413 0 0.08 0.696413 0 0.1 0.696413 0 0 0.698798 0 0.02 0.698798 0 0.04 0.698798 0 0.06 0.698798 0 0.08 0.698798 0 0.1 0.698798 0 0 0.70118 0 0.02 0.70118 0 0.04 0.70118 0 0.06 0.70118 0 0.08 0.70118 0 0.1 0.70118 0 0 0.703558 0 0.02 0.703558 0 0.04 0.703558 0 0.06 0.703558 0 0.08 0.703558 0 0.1 0.703558 0 0 0.705932 0 0.02 0.705932 0 0.04 0.705932 0 0.06 0.705932 0 0.08 0.705932 0 0.1 0.705932 0 0 0.708304 0 0.02 0.708304 0 0.04 0.708304 0 0.06 0.708304 0 0.08 0.708304 0 0.1 0.708304 0 0 0.710672 0 0.02 0.710672 0 0.04 0.710672 0 0.06 0.710672 0 0.08 0.710672 0 0.1 0.710672 0 0 0.713038 0 0.02 0.713038 0 0.04 0.713038 0 0.06 0.713038 0 0.08 0.713038 0 0.1 0.713038 0 0 0.715402 0 0.02 0.715402 0 0.04 0.715402 0 0.06 0.715402 0 0.08 0.715402 0 0.1 0.
[...]
			<PointData Scalars="VitesseX">
				<DataArray Name="VitesseX" type="Float32" format="ascii">
 0 1.12981e-15 8.12813e-15 1.00989e-14 1.59281e-14 0 0 1.2838e-15 8.21675e-15 9.75987e-15 1.57963e-14 0 0 2.62742e-15 7.40839e-15 9.71458e-15 1.48301e-14 0 0 4.71537e-15 6.58795e-15 8.87565e-15 1.34404e-14 0 0 6.11205e-15 6.84066e-15 7.26791e-15 1.28758e-14 0 0 7.40615e-15 6.90538e-15 6.80238e-15 1.33877e-14 0 0 8.18021e-15 6.85796e-15 6.58569e-15 1.38074e-14 0 0 8.39988e-15 6.68288e-15 6.20797e-15 1.2831e-14 0 0 7.67566e-15 6.64273e-15 6.06173e-15 1.12594e-14 0 0 6.69205e-15 5.92641e-15 5.62134e-15 8.9033e-15 0 0 6.44107e-15 3.72015e-15 4.63653e-15 9.23381e-15 0 0 5.98239e-15 2.05782e-15 3.48738e-15 9.1495e-15 0 0 3.55996e-15 2.09547e-15 3.12306e-15 4.89282e-15 0 0 1.03375e-15 2.89894e-15 4.00627e-15 -2.77129e-15 0 0 2.01477e-15 6.40113e-16 4.26652e-15 -9.0748e-15 0 0 3.36336e-15 -3.31508e-15 4.34452e-15 -1.02226e-14 0 0 2.73924e-15 -5.46463e-15 1.94152e-16 -5.91461e-15 0 0 2.18616e-15 -6.60225e-15 -7.04896e-15 1.17806e-16 0 0 -5.48608e-16 -4.45256e-15 -1.08418e-14 3.15921e-15 0 0 -3.24646e-15 -1.8589e-15 -9.28835e-15 5.9853e-15 0 0 -1.69524e-15 -5.5497e-16 -4.77903e-15 -3.29898e-15 0 0 -1.49046e-15 3.14664e-15 -5.69849e-15 -9.07345e-15 0 0 -1.63682e-15 4.04876e-15 -8.15198e-15 -2.91256e-15 0 0 1.33029e-15 -7.16414e-16 -7.70699e-16 -4.71211e-15 0 0 -1.06357e-16 9.85201e-16 4.10946e-15 -8.23308e-15 0 0 -2.25819e-15 4.79115e-15 3.43391e-15 -4.07723e-15 0 0 -3.28429e-15 5.275e-15 1.24724e-15 3.96914e-15 0 0 -2.94833e-15 1.0866e-15 6.55879e-15 2.25856e-15 0 0 -3.37995e-15 1.97459e-15 1.0786e-14 3.52675e-15 0 0 -3.27131e-15 8.75688e-15 5.99154e-15 1.12973e-14 0 0 -2.16876e-15 1.19524e-14 5.98939e-15 1.08247e-14 0 0 -3.54972e-15 1.14802e-14 8.58296e-15 1.10051e-14 0 0 -1.5221e-15 3.86217e-15 1.32731e-14 1.39044e-14 0 0 2.91134e-15 -4.8047e-15 1.95673e-14 1.19374e-14 0 0 6.57237e-15 -7.92936e-15 2.46785e-14 9.3892e-15 0 0 6.25099e-15 -7.94166e-16 2.03797e-14 6.66094e-15 0 0 8.85864e-16 1.17219e-14 2.33855e-14 1.69725e-15 0 0 1.03397e-14 2.05737e-14 3.40273e-14 6.80518e-15 0 0 2.05995e-14 3.31303e-14 4.08954e-14 1.07563e-14 0 0 1.69103e-14 4.87512e-14 5.36784e-14 1.1573e-14 0 0 2.45404e-14 5.02371e-14 6.94035e-14 1.07965e-14 0 0 3.67616e-14 5.56797e-14 6.67122e-14 1.33575e-14 0 0 4.45565e-14 6.0544e-14 6.97859e-14 1.40333e-14 0 0 4.10423e-14 7.41553e-14 6.42208e-14 6.3551e-15 0 0 3.597e-14 9.06989e-14 3.96425e-14 2.23147e-14 0 0 3.33878e-14 7.76991e-14 4.55267e-14 4.35785e-14 0 0 1.68081e-14 7.01109e-14 5.13672e-14 4.09434e-14 0 0 -7.68671e-15 5.92079e-14 4.52283e-14 4.22044e-14 0 0 -1.36916e-14 3.61866e-14 4.41475e-14 3.64839e-14 0 0 -6.5894e-15 1.76339e-14 4.69302e-14 -3.08127e-15 0 0 -7.15869e-15 -1.78585e-15 3.37015e-14 -1.02453e-14 0 0 -1.32175e-14 -5.34512e-15 1.36523e-14 6.19139e-15 0 0 -1.22401e-14 1.42028e-15 -7.45255e-15 -6.26523e-16 0 0 -1.48735e-14 7.27162e-15 -3.37645e-14 -9.23079e-15 0 0 -3.1139e-14 -1.4382e-14 -1.28711e-14 -2.96461e-14 0 0 -2.89319e-14 -3.11539e-14 3.673e-15 -4.77403e-14 0 0 -2.66535e-14 -1.02382e-14 -3.22357e-14 -2.78898e-14 0 0 -1.33914e-14 -2.30469e-14 -3.78537e-14 -2.51119e-14 0 0 7.87551e-15 -3.61304e-14 -1.99972e-14 -4.48586e-14 0 0 -7.38702e-15 -1.53182e-14 -3.14522e-14 -4.4118e-14 0 0 -9.96758e-15 -8.55227e-15 -6.45411e-14 -2.72563e-14 0 0 -8.15386e-15 -3.96816e-15 -8.74965e-14 -1.45315e-14 0 0 -9.4961e-15 -3.12713e-15 -8.38037e-14 1.56251e-14 0 0 1.51103e-15 -1.70561e-14 -6.15018e-14 2.71191e-14 0 0 -1.03988e-15 -2.38143e-14 -3.14014e-14 -2.34994e-14 0 0 -1.49332e-14 -3.06021e-14 -1.7161e-14 -5.38725e-14 0 0 -3.14727e-14 -4.23333e-14 -1.42618e-14 -3.90856e-14 0 0 -2.50369e-14 -3.88303e-14 -5.10772e-15 -3.44813e-14 0 0 -1.04513e-14 -5.05708e-14 5.90186e-16 -3.10169e-14 0 0 -3.29854e-14 -3.3172e-14 -2.35318e-14 -1.37285e-14 0 0 -3.01414e-14 -1.75243e-14 -3.94013e-14 -9.84794e-15 0 0 -1.85801e-14 -2.54282e-14 -3.91794e-14 -1.11137e-14 0 0 -8.83866e-15 -3.37531e-14 -1.89293e-14 -1.55268e-14 0 0 3.94072e-15 -5.33975e-14 -5.99724e-15 4.83755e-16 0 0 -2.74196e-14 -4.2917e-14 -3.06339e-14 1.63786e-14 0 0 -4.43864e-14 -1.99641e-14 -3.87784e-14 -6.97233e-15 0 0 -3.42554e-14 -2.03481e-14 -2.23486e-14 -3.11826e-14 0 0 -1.09454e-14 -4.25613e-14 -8.17139e-15 -3.02764e-14 0 0 -9.17859e-15 -4.43028e-14 -3.09375e-14 -3.20917e-16 0 0 -1.35973e-14 -5.14498e-14 -1.75641e-14 1.04232e-14 0 0 1.30974e-14 -5.34358e-14 -1.36405e-14 1.12928e-14 0 0 3.74237e-14 -3.55216e-14 -4.36721e-14 -4.83539e-15 0 0 8.67804e-15 -8.07334e-15 -5.44899e-14 -2.90463e-14 0 0 -1.70683e-14 -2.51458e-14 -2.93677e-14 -4.20948e-14 0 0 -2.07301e-14 -3.81862e-14 -1.09008e-14 -2.78489e-14 0 0 -5.97262e-15 -1.05721e-14 -3.77252e-14 2.32833e-14 0 0 7.61867e-15 -1.48983e-14 -2.41585e-14 2.95291e-14 0 0 -1.51619e-14 -5.91572e-15 -4.66711e-15 2.05237e-15 0 0 1.01182e-15 -3.07109e-15 -1.2677e-14 -1.41657e-14 0 0 1.66574e-14 -3.64047e-16 -2.03431e-14 -3.08757e-15 0 0 8.36386e-15 4.61134e-15 -5.37685e-15 3.51336e-15 0 0 8.77156e-15 -3.67004e-16 9.21714e-15 -7.3505e-15 0 0 8.61412e-15 4.69266e-15 -3.3637e-15 3.65912e-15 0 0 3.98162e-15 2.87753e-15 -3.53516e-15 1.19008e-14 0 0 4.76053e-16 -1.70075e-15 -2.07155e-15 3.3677e-15 0 0 -6.05936e-15 2.27621e-16 -1.24723e-14 6.49082e-15 0 0 -3.49808e-15 -2.30446e-15 2.75643e-15 -2.63069e-15 0 0 -4.21501e-15 2.36005e-15 -3.58412e-16 -1.84808e-16 0 0 3.0196e-15 2.54464e-15 4.20919e-17 1.20105e-14 0 0 4.99223e-15 -8.33099e-15 5.14396e-15 2.43683e-15 0 0 -6.52735e-15 -1.61909e-15 -3.76209e-15 -2.93661e-15 0 0 1.48797e-16 -2.20516e-14 -4.83686e-14 4.79939e-15 0 0 -7.33228e-15 -2.7802e-14 -5.98471e-14 1.52869e-14 0 0 -2.41374e-14 -9.85254e-15 -5.94838e-14 1.25326e-14 0 0 -2.79104e-14 -6.41996e-16 -5.03751e-14 -1.89285e-14 0 0 -2.27698e-14 -2.55573e-15 -7.07882e-14 -3.02793e-14 0 0 -1.57754e-14 -1.82227e-14 -3.68981e-14 -2.68714e-14 0 0 -1.67677e-14 -1.4713e-14 -7.22698e-14 2.28068e-14 0 0 -2.55206e-14 -1.93339e-14 -4.49527e-14 -8.24884e-15 0 0 -2.18798e-14 -6.64849e-14 -1.75037e-14 -3.32509e-14 0 0 -3.78512e-14 -8.15654e-14 -4.62456e-14 -4.11716e-14 0 0 -5.71295e-14 -5.79696e-14 -6.97205e-14 -5.51711e-14 0 0 -5.32998e-14 -6.00743e-14 -8.43537e-14 -4.56051e-14 0 0 -7.11494e-14 -7.76235e-14 -1.51349e-14 -5.12648e-14 0 0 -7.1343e-14 -7.47335e-14 -2.00084e-14 -8.69799e-14 0 0 -4.35856e-14 -6.05119e-14 -6.35041e-14 -3.01351e-14 0 0 -4.12535e-14 -6.76998e-14 -2.74352e-14 1.47026e-14 0 0 -3.62446e-14 -9.3747e-14 2.48354e-14 -3.38896e-14 0 0 -2.8643e-14 -7.21324e-14 1.53962e-15 5.18396e-15 0 0 -2.6127e-14 -4.29977e-14 -5.48147e-15 2.29286e-14 0 0 -1.52922e-14 -3.84155e-14 -2.06792e-14 6.36612e-14 0 0 -1.73488e-14 -2.59976e-14 7.25124e-15 2.49121e-14 0 0 -3.05333e-14 -1.39574e-14 3.59627e-14 1.56417e-14 0 0 -1.72399e-14 -2.05453e-14 8.99437e-15 6.25059e-14 0 0 -9.56505e-15 -6.43789e-15 -4.9747e-15 5.94913e-14 0 0 -4.90582e-15 -4.73498e-15 1.62423e-15 6.31432e-14 0 0 -9.54409e-15 -3.94312e-15 2.99742e-14 5.79658e-14 0 0 -1.35629e-14 -1.60967e-14 2.9678e-14 7.32347e-14 0 0 -7.40451e-15 -1.98106e-14 2.87728e-14 5.31215e-14 0 0 8.04183e-15 -1.86802e-14 7.32606e-14 3.26362e-14 0 0 7.97341e-15 -1.95829e-14 6.51683e-14 1.61436e-14 0 0 -4.41281e-15 1.08306e-14 6.16096e-14 -1.64924e-14 0 0 3.36455e-15 9.16047e-15 9.12174e-14 -3.59327e-14 0 0 -6.06267e-15 1.93783e-14 1.88538e-14 -2.16638e-14 0 0 -1.12581e-14 2.34597e-14 5.77157e-15 -5.91525e-15 0 0 7.64966e-15 -3.06028e-15 1.52891e-14 -3.00002e-14 0 0 1.89336e-14 -3.13625e-14 8.3435e-15 -8.41114e-14 0 0 4.10391e-14 -5.05746e-14 6.47032e-14 -1.21518e-13 0 0 2.92029e-14 -2.89188e-14 3.59583e-14 -6.46938e-14 0 0 -2.17202e-14 4.0318e-14 -4.12698e-14 -1.13104e-14 0 0 -2.22225e-14 7.75405e-14 -1.24846e-13 8.49506e-15 0 0 8.85842e-15 5.62065e-14 -1.4847e-13 2.49105e-14 0 0 1.13981e-14 2.10093e-14 -6.71359e-14 2.36365e-15 0 0 5.99971e-15 1.07422e-14 -9.05147e-14 1.45688e-14 0 0 4.56008e-15 3.42212e-14 -1.28803e-13 8.68872e-14 0 0 -6.08477e-15 2.02193e-14 -9.43819e-14 1.17732e-13 0 0 -1.04945e-14 6.64676e-14 -2.07748e-13 2.53877e-13 0 0 1.12473e-14 1.02697e-13 -3.11317e-13 3.68841e-13 0 0 8.0161e-14 7.39736e-15 -2.21189e-13 2.93467e-13 0 0 1.65249e-13 -1.21069e-13 -1.13831e-13 2.36706e-13 0 0 1.19662e-13 -1.42404e-13 -9.21299e-14 2.06191e-13 0 0 1.8454e-14 -5.56068e-14 -1.51524e-13 2.68321e-13 0 0 -9.13424e-14 1.01316e-13 -2.68458e-13 4.03141e-13 0 0 -1.08069e-13 6.13144e-14 -1.78907e-13 2.86859e-13 0 0 -2.63631e-14 -7.49792e-14 4.07101e-15 1.59695e-14 0 0 -7.80313e-14 -1.34119e-14 4.28824e-14 -2.26993e-13 0 0 -9.35181e-14 1.73958e-14 1.57977e-14 -2.11678e-13 0 0 -2.73026e-14 -7.77304e-14 4.44028e-14 -7.58907e-14 0 0 -4.29205e-14 -4.87099e-14 -5.04768e-14 7.96623e-14 0 0 -5.49263e-14 -5.37641e-14 -8.05125e-14 2.39144e-13 0 0 4.58067e-15 -1.83632e-13 1.221e-13 1.65718e-13 0 0 1.57183e-14 -1.81199e-13 1.4353e-13 3.22758e-14 0 0 -5.98201e-14 -1.11889e-13 4.96671e-14 6.83403e-14 0 0 -5.73596e-14 -1.03742e-13 1.78891e-14 6.46103e-14 0 0 -1.41131e-14 -7.36816e-14 8.55049e-14 2.30745e-14 0 0 -1.7056e-14 -1.57475e-14 7.17756e-14 3.39588e-14 0 0 4.54272e-15 5.11414e-15 2.85578e-14 8.79641e-14 0 0 -1.64995e-15 4.4828e-14 8.31163e-14 5.59329e-14 0 0 2.55863e-14 5.68666e-14 1.02246e-13 -4.65345e-14 0 0 5.94828e-14 6.01404e-14 1.12688e-13 -1.32528e-14 0 0 6.2298e-14 8.5059e-14 1.30349e-13 3.8676e-15 0 0 6.65416e-14 8.49565e-14 1.43133e-13 1.19555e-14 0 0 6.83281e-14 9.80236e-14 1.29415e-13 8.22722e-14 0 0 7.52517e-14 1.22915e-13 1.3235e-13 9.32254e-14 0 0 9.12495e-14 1.38099e-13 1.29355e-13 7.96237e-14 0 0 8.60221e-14 1.6783e-13 1.05283e-13 1.33069e-13 0 0 7.509e-14 1.72152e-13 1.30094e-13 1.27353e-13 0 0 1.00981e-13 1.58305e-13 1.57923e-13 9.99308e-14 0 0 1.14828e-13 1.88876e-13 1.14676e-13 1.27493e-13 0 0 1.13772e-13 1.98009e-13 1.23839e-13 1.40739e-13 0 0 1.3199e-13 1.71296e-13 1.73158e-13 9.34115e-14 0 0 1.49091e-13 1.74327e-13 1.4884e-13 1.12485e-13 0 0 1.75071e-13 1.53379e-13 1.43456e-13 1.71754e-13 0 0 1.69691e-13 1.65052e-13 1.55514e-13 1.05796e-13 0 0 1.49708e-13 2.19186e-13 1.06875e-13 8.14035e-14 0 0 1.57237e-13 1.84132e-13 1.22976e-13 8.31899e-14 0 0 1.45616e-13 1.49122e-13 1.70436e-13 3.46095e-14 0 0 1.40701e-13 1.38257e-13 1.9344e-13 -1.46326e-15 0 0 1.29018e-13 1.34451e-13 2.01409e-13 1.25117e-14 0 0 1.07014e-13 1.2208e-13 1.89883e-13 3.91773e-14 0 0 1.05734e-13 9.26347e-14 1.57917e-13 5.32907e-14 0 0 9.52398e-14 8.66256e-14 1.28908e-13 5.65658e-14 0 0 6.89161e-14 6.31282e-14 1.41241e-13 7.2804e-15 0 0 7.43873e-14 2.56555e-14 1.51874e-13 -5.08964e-14 0 0 6.70798e-14 2.27389e-14 1.0133e-13 -2.46868e-14 0 0 1.0721e-14 5.98699e-14 4.86675e-14 1.7296e-14 0 0 2.09865e-14 3.43812e-14 7.60564e-14 -2.8485e-15 0 0 3.38256e-14 2.79934e-14 6.97932e-14 -3.0503e-14 0 0 7.18042e-15 6.41902e-14 3.30318e-14 -3.32985e-14 0 0 7.35968e-15 6.90806e-14 1.74898e-14 -4.11319e-14 0 0 1.33705e-14 7.01818e-14 1.26854e-14 -6.11083e-14 0
				</DataArray>
				<DataArray Name="VitesseY" type="Float32" format="ascii">