<?xml version="1.0"?>
<VTKFile type="PolyData">
	<PolyData>
		<Piece NumberOfPoints="1206" NumberOfPolys="1000">
			<Points>
				<DataArray type="Float32" NumberOfComponents="3" format="ascii">
 0 0 0 0.02 0 0 0.04 0 0 0.06 0 0 0.08 0 0 0.1 0 0 0 0.005 0 0.02 0.005 0 0.04 0.005 0 0.06 0.005 0 0.08 0.005 0 0.1 0.005 0 0 0.01 0 0.02 0.01 0 0.04 0.01 0 0.06 0.01 0 0.08 0.01 0 0.1 0.01 0 0 0.015 0 0.02 0.015 0 0.04 0.015 0 0.06 0.015 0 0.08 0.015 0 0.1 0.015 0 0 0.02 0 0.02 0.02 0 0.04 0.02 0 0.06 0.02 0 0.08 0.02 0 0.1 0.02 0 0 0.025 0 0.02 0.025 0 0.04 0.025 0 0.06 0.025 0 0.08 0.025 0 0.1 0.025 0 0 0.03 0 0.02 0.03 0 0.04 0.03 0 0.06 0.03 0 0.08 0.03 0 0.1 0.03 0 0 0.035 0 0.02 0.035 0 0.04 0.035 0 0.06 0.035 0 0.08 0.035 0 0.1 0.035 0 0 0.04 0 0.02 0.04 0 0.04 0.04 0 0.06 0.04 0 0.08 0.04 0 0.1 0.04 0 0 0.045 0 0.02 0.045 0 0.04 0.045 0 0.06 0.045 0 0.08 0.045 0 0.1 0.045 0 0 0.05 0 0.02 0.05 0 0.04 0.05 0 0.06 0.05 0 0.08 0.05 0 0.1 0.05 0 0 0.055 0 0.02 0.055 0 0.04 0.055 0 0.06 0.055 0 0.08 0.055 0 0.1 0.055 0 0 0.06 0 0.02 0.06 0 0.04 0.06 0 0.06 0.06 0 0.08 0.06 0 0.1 0.06 0 0 0.065 0 0.02 0.065 0 0.04 0.065 0 0.06 0.065 0 0.08 0.065 0 0.1 0.065 0 0 0.07 0 0.02 0.07 0 0.04 0.07 0 0.06 0.07 0 0.08 0.07 0 0.1 0.07 0 0 0.075 0 0.02 0.075 0 0.04 0.075 0 0.06 0.075 0 0.08 0.075 0 0.1 0.075 0 0 0.08 0 0.02 0.08 0 0.04 0.08 0 0.06 0.08 0 0.08 0.08 0 0.1 0.08 0 0 0.085 0 0.02 0.085 0 0.04 0.085 0 0.06 0.085 0 0.08 0.085 0 0.1 0.085 0 0 0.09 0 0.02 0.09 0 0.04 0.09 0 0.06 0.09 0 0.08 0.09 0 0.1 0.09 0 0 0.095 0 0.02 0.095 0 0.04 0.095 0 0.06 0.095 0 0.08 0.095 0 0.1 0.095 0 0 0.1 0 0.02 0.1 0 0.04 0.1 0 0.06 0.1 0 0.08 0.1 0 0.1 0.1 0 0 0.105 0 0.02 0.105 0 0.04 0.105 0 0.06 0.105 0 0.08 0.105 0 0.1 0.105 0 0 0.11 0 0.02 0.11 0 0.04 0.11 0 0.06 0.11 0 0.08 0.11 0 0.1 0.11 0 0 0.115 0 0.02 0.115 0 0.04 0.115 0 0.06 0.115 0 0.08 0.115 0 0.1 0.115 0 0 0.12 0 0.02 0.12 0 0.04 0.12 0 0.06 0.12 0 0.08 0.12 0 0.1 0.12 0 0 0.125 0 0.02 0.125 0 0.04 0.125 0 0.06 0.125 0 0.08 0.125 0 0.1 0.125 0 0 0.13 0 0.02 0.13 0 0.04 0.13 0 0.06 0.13 0 0.08 0.13 0 0.1 0.13 0 0 0.135 0 0.02 0.135 0 0.04 0.135 0 0.06 0.135 0 0.08 0.135 0 0.1 0.135 0 0 0.14 0 0.02 0.14 0 0.04 0.14 0 0.06 0.14 0 0.08 0.14 0 0.1 0.14 0 0 0.145 0 0.02 0.145 0 0.04 0.145 0 0.06 0.145 0 0.08 0.145 0 0.1 0.145 0 0 0.15 0 0.02 0.15 0 0.04 0.15 0 0.06 0.15 0 0.08 0.15 0 0.1 0.15 0 0 0.155 0 0.02 0.155 0 0.04 0.155 0 0.06 0.155 0 0.08 0.155 0 0.1 0.155 0 0 0.16 0 0.02 0.16 0 0.04 0.16 0 0.06 0.16 0 0.08 0.16 0 0.1 0.16 0 0 0.165 0 0.02 0.165 0 0.04 0.165 0 0.06 0.165 0 0.08 0.165 0 0.1 0.165 0 0 0.17 0 0.02 0.17 0 0.04 0.17 0 0.06 0.17 0 0.08 0.17 0 0.1 0.17 0 0 0.175 0 0.02 0.175 0 0.04 0.175 0 0.06 0.175 0 0.08 0.175 0 0.1 0.175 0 0 0.18 0 0.02 0.18 0 0.04 0.18 0 0.06 0.18 0 0.08 0.18 0 0.1 0.18 0 0 0.185 0 0.02 0.185 0 0.04 0.185 0 0.06 0.185 0 0.08 0.185 0 0.1 0.185 0 0 0.19 0 0.02 0.19 0 0.04 0.19 0 0.06 0.19 0 0.08 0.19 0 0.1 0.19 0 0 0.195 0 0.02 0.195 0 0.04 0.195 0 0.06 0.195 0 0.08 0.195 0 0.1 0.195 0 0 0.2 0 0.02 0.2 0 0.04 0.2 0 0.06 0.2 0 0.08 0.2 0 0.1 0.2 0 0 0.205 0 0.02 0.205 0 0.04 0.205 0 0.06 0.205 0 0.08 0.205 0 0.1 0.205 0 0 0.21 0 0.02 0.21 0 0.04 0.21 0 0.06 0.21 0 0.08 0.21 0 0.1 0.21 0 0 0.215 0 0.02 0.215 0 0.04 0.215 0 0.06 0.215 0 0.08 0.215 0 0.1 0.215 0 0 0.22 0 0.02 0.22 0 0.04 0.22 0 0.06 0.22 0 0.08 0.22 0 0.1 0.22 0 0 0.225 0 0.02 0.225 0 0.04 0.225 0 0.06 0.225 0 0.08 0.225 0 0.1 0.225 0 0 0.23 0 0.02 0.23 0 0.04 0.23 0 0.06 0.23 0 0.08 0.23 0 0.1 0.23 0 0 0.235001 0 0.02 0.235001 0 0.04 0.235001 0 0.06 0.235001 0 0.08 0.235001 0 0.1 0.235001 0 0 0.240002 0 0.02 0.240002 0 0.04 0.240002 0 0.06 0.240002 0 0.08 0.240002 0 0.1 0.240002 0 0 0.245006 0 0.02 0.245006 0 0.04 0.245006 0 0.06 0.245006 0 0.08 0.245006 0 0.1 0.245006 0 0 0.250014 0 0.02 0.250014 0 0.04 0.250014 0 0.06 0.250014 0 0.08 0.250014 0 0.1 0.250014 0 0 0.255033 0 0.02 0.255033 0 0.04 0.255033 0 0.06 0.255033 0 0.08 0.255033 0 0.1 0.255033 0 0 0.260072 0 0.02 0.260072 0 0.04 0.260072 0 0.06 0.260072 0 0.08 0.260072 0 0.1 0.260072 0 0 0.265141 0 0.02 0.265141 0 0.04 0.265141 0 0.06 0.265141 0 0.08 0.265141 0 0.1 0.265141 0 0 0.270257 0 0.02 0.270257 0 0.04 0.270257 0 0.06 0.270257 0 0.08 0.270257 0 0.1 0.270257 0 0 0.275434 0 0.02 0.275434 0 0.04 0.275434 0 0.06 0.275434 0 0.08 0.275434 0 0.1 0.275434 0 0 0.280684 0 0.02 0.280684 0 0.04 0.280684 0 0.06 0.280684 0 0.08 0.280684 0 0.1 0.280684 0 0 0.286018 0 0.02 0.286018 0 0.04 0.286018 0 0.06 0.286018 0 0.08 0.286018 0 0.1 0.286018 0 0 0.291446 0 0.02 0.291446 0 0.04 0.291446 0 0.06 0.291446 0 0.08 0.291446 0 0.1 0.291446 0 0 0.296973 0 0.02 0.296973 0 0.04 0.296973 0 0.06 0.296973 0 0.08 0.296973 0 0.1 0.296973 0 0 0.302607 0 0.02 0.302607 0 0.04 0.302607 0 0.06 0.302607 0 0.08 0.302607 0 0.1 0.302607 0 0 0.308354 0 0.02 0.308354 0 0.04 0.308354 0 0.06 0.308354 0 0.08 0.308354 0 0.1 0.308354 0 0 0.314219 0 0.02 0.314219 0 0.04 0.314219 0 0.06 0.314219 0 0.08 0.314219 0 0.1 0.314219 0 0 0.32021 0 0.02 0.32021 0 0.04 0.32021 0 0.06 0.32021 0 0.08 0.32021 0 0.1 0.32021 0 0 0.326333 0 0.02 0.326333 0 0.04 0.326333 0 0.06 0.326333 0 0.08 0.326333 0 0.1 0.326333 0 0 0.332595 0 0.02 0.332595 0 0.04 0.332595 0 0.06 0.332595 0 0.08 0.332595 0 0.1 0.332595 0 0 0.339003 0 0.02 0.339003 0 0.04 0.339003 0 0.06 0.339003 0 0.08 0.339003 0 0.1 0.339003 0 0 0.345567 0 0.02 0.345567 0 0.04 0.345567 0 0.06 0.345567 0 0.08 0.345567 0 0.1 0.345567 0 0 0.352293 0 0.02 0.352293 0 0.04 0.352293 0 0.06 0.352293 0 0.08 0.352293 0 0.1 0.352293 0 0 0.359193 0 0.02 0.359193 0 0.04 0.359193 0 0.06 0.359193 0 0.08 0.359193 0 0.1 0.359193 0 0 0.366276 0 0.02 0.366276 0 0.04 0.366276 0 0.06 0.366276 0 0.08 0.366276 0 0.1 0.366276 0 0 0.373553 0 0.02 0.373553 0 0.04 0.373553 0 0.06 0.373553 0 0.08 0.373553 0 0.1 0.373553 0 0 0.381036 0 0.02 0.381036 0 0.04 0.381036 0 0.06 0.381036 0 0.08 0.381036 0 0.1 0.381036 0 0 0.388739 0 0.02 0.388739 0 0.04 0.388739 0 0.06 0.388739 0 0.08 0.388739 0 0.1 0.388739 0 0 0.396677 0 0.02 0.396677 0 0.04 0.396677 0 0.06 0.396677 0 0.08 0.396677 0 0.1 0.396677 0 0 0.404866 0 0.02 0.404866 0 0.04 0.404866 0 0.06 0.404866 0 0.08 0.404866 0 0.1 0.404866 0 0 0.413322 0 0.02 0.413322 0 0.04 0.413322 0 0.06 0.413322 0 0.08 0.413322 0 0.1 0.413322 0 0 0.422067 0 0.02 0.422067 0 0.04 0.422067 0 0.06 0.422067 0 0.08 0.422067 0 0.1 0.422067 0 0 0.431121 0 0.02 0.431121 0 0.04 0.431121 0 0.06 0.431121 0 0.08 0.431121 0 0.1 0.431121 0 0 0.440509 0 0.02 0.440509 0 0.04 0.440509 0 0.06 0.440509 0 0.08 0.440509 0 0.1 0.440509 0 0 0.450255 0 0.02 0.450255 0 0.04 0.450255 0 0.06 0.450255 0 0.08 0.450255 0 0.1 0.450255 0 0 0.46039 0 0.02 0.46039 0 0.04 0.46039 0 0.06 0.46039 0 0.08 0.46039 0 0.1 0.46039 0 0 0.47094 0 0.02 0.47094 0 0.04 0.47094 0 0.06 0.47094 0 0.08 0.47094 0 0.1 0.47094 0 0 0.481935 0 0.02 0.481935 0 0.04 0.481935 0 0.06 0.481935 0 0.08 0.481935 0 0.1 0.481935 0 0 0.493391 0 0.02 0.493391 0 0.04 0.493391 0 0.06 0.493391 0 0.08 0.493391 0 0.1 0.493391 0 0 0.505294 0 0.02 0.505294 0 0.04 0.505294 0 0.06 0.505294 0 0.08 0.505294 0 0.1 0.505294 0 0 0.51753 0 0.02 0.51753 0 0.04 0.51753 0 0.06 0.51753 0 0.08 0.51753 0 0.1 0.51753 0 0 0.529809 0 0.02 0.529809 0 0.04 0.529809 0 0.06 0.529809 0 0.08 0.529809 0 0.1 0.529809 0 0 0.541993 0 0.02 0.541993 0 0.04 0.541993 0 0.06 0.541993 0 0.08 0.541993 0 0.1 0.541993 0 0 0.554071 0 0.02 0.554071 0 0.04 0.554071 0 0.06 0.554071 0 0.08 0.554071 0 0.1 0.554071 0 0 0.56605 0 0.02 0.56605 0 0.04 0.56605 0 0.06 0.56605 0 0.08 0.56605 0 0.1 0.56605 0 0 0.577954 0 0.02 0.577954 0 0.04 0.577954 0 0.06 0.577954 0 0.08 0.577954 0 0.1 0.577954 0 0 0.58981 0 0.02 0.58981 0 0.04 0.58981 0 0.06 0.58981 0 0.08 0.58981 0 0.1 0.58981 0 0 0.601641 0 0.02 0.601641 0 0.04 0.601641 0 0.06 0.601641 0 0.08 0.601641 0 0.1 0.601641 0 0 0.613459 0 0.02 0.613459 0 0.04 0.613459 0 0.06 0.613459 0 0.08 0.613459 0 0.1 0.613459 0 0 0.625271 0 0.02 0.625271 0 0.04 0.625271 0 0.06 0.625271 0 0.08 0.625271 0 0.1 0.625271 0 0 0.637081 0 0.02 0.637081 0 0.04 0.637081 0 0.06 0.637081 0 0.08 0.637081 0 0.1 0.637081 0 0 0.64889 0 0.02 0.64889 0 0.04 0.64889 0 0.06 0.64889 0 0.08 0.64889 0 0.1 0.64889 0 0 0.660698 0 0.02 0.660698 0 0.04 0.660698 0 0.06 0.660698 0 0.08 0.660698 0 0.1 0.660698 0 0 0.67251 0 0.02 0.67251 0 0.04 0.67251 0 0.06 0.67251 0 0.08 0.67251 0 0.1 0.67251 0 0 0.68432 0 0.02 0.68432 0 0.04 0.68432 0 0.06 0.68432 0 0.08 0.68432 0 0.1 0.68432 0 0 0.686599 0 0.02 0.686599 0 0.04 0.686599 0 0.06 0.686599 0 0.08 0.686599 0 0.1 0.686599 0 0 0.688878 0 0.02 0.688878 0 0.04 0.688878 0 0.06 0.688878 0 0.08 0.688878 0 0.1 0.688878 0 0 0.691157 0 0.02 0.691157 0 0.04 0.691157 0 0.06 0.691157 0 0.08 0.691157 0 0.1 0.691157 0 0 0.693436 0 0.02 0.693436 0 0.04 0.693436 0 0.06 0.693436 0 0.08 0.693436 0 0.1 0.693436 0 0 0.695714 0 0.02 0.695714 0 0.04 0.695714 0 0.06 0.695714 0 0.08 0.695714 0 0.1 0.695714 0 0 0.697991 0 0.02 0.697991 0 0.04 0.697991 0 0.06 0.697991 0 0.08 0.697991 0 0.1 0.697991 0 0 0.700267 0 0.02 0.700267 0 0.04 0.700267 0 0.06 0.700267 0 0.08 0.700267 0 0.1 0.700267 0 0 0.702542 0 0.02 0.702542 0 0.04 0.702542 0 0.06 0.702542 0 0.08 0.702542 0 0.1 0.702542 0 0 0.704819 0 0.02 0.704819 0 0.04 0.704819 0 0.06 0.704819 0 0.08 0.704819 0 0.1 0.704819 0 0 0.707095 0 0.02 0.707095 0 0.04 0.707095 0 0.06 0.707095 0 0.08 0.707095 0 0.1 0.707095 0 0 0.709372 0 0.02 0.709372 0 0.04 0.709372 0 0.06 0.709372 0 0.08 0.709372 0 0.1 0.709372 0 0 0.711652 0 0.02 0.711652 0 0.04 0.711652 0 0.06 0.711652 0 0.08 0.711652 0 0.1 0.711652 0 0 0.713932 0 0.02 0.713932 0 0.04 0.713932 0 0.06 0.713932 0 0.08 0.713932 0 0.1 0.713932 0 0 0.716211 0 0.02 0.716211 0 0.04 0.716211 0 0.06 0.716211 0 0.08 0.716211 0 0.1 0.716211 0 0 0.718488 0 0.02 0.718488 0 0.04 0.718488 0 0.06 0.718488 0 0.08 0.718488 0 0.1 0.718488 0 0 0.720766 0 0.02 0.720766 0 0.04 0.720766 0 0.06 0.720766 0 0.08 0.720766 0 0.1 0.720766 0 0 0.723046 0 0.02 0.723046 0 0.04 0.723046 0 0.06 0.723046 0 0.08 0.723046 0 0.1 0.723046 0 0 0.725325 0 0.02 0.725
[...]
			<PointData Scalars="VitesseX">
				<DataArray Name="VitesseX" type="Float32" format="ascii">
 0 2.17695e-15 1.23082e-16 5.59914e-15 -3.55046e-15 0 0 1.38619e-15 1.51614e-15 5.02357e-15 -3.31682e-15 0 0 9.14561e-17 3.71774e-15 4.24888e-15 -2.59911e-15 0 0 1.26986e-15 2.18647e-15 5.8445e-15 -1.85775e-15 0 0 2.20722e-15 2.18058e-15 4.68263e-15 9.78017e-16 0 0 1.68364e-15 4.07386e-15 3.48723e-15 3.00319e-15 0 0 3.25902e-15 2.51344e-15 5.7646e-15 1.62339e-15 0 0 4.16782e-15 2.45236e-15 5.09646e-15 5.9813e-16 0 0 2.7514e-15 5.41962e-15 2.51033e-15 -4.59165e-16 0 0 1.40255e-15 5.46125e-15 4.84387e-15 -5.15265e-15 0 0 -6.75706e-16 6.18373e-15 5.76164e-15 -6.28624e-15 0 0 -3.99163e-16 7.63186e-15 3.99599e-15 -5.89653e-15 0 0 1.97688e-15 4.24099e-15 6.51002e-15 -8.58142e-15 0 0 1.49618e-15 3.75271e-15 4.32969e-15 -3.25337e-15 0 0 2.93159e-15 2.35808e-15 -1.42175e-15 4.86914e-15 0 0 3.04928e-15 2.85897e-15 -4.86848e-15 3.1428e-15 0 0 -9.43014e-16 4.11307e-15 -6.75866e-18 -7.35889e-15 0 0 -3.03737e-15 2.98939e-15 1.77178e-15 -1.03994e-14 0 0 -1.91102e-15 2.9274e-15 -5.24204e-15 -4.2417e-15 0 0 -1.55275e-15 3.91304e-16 -8.08286e-15 1.08546e-15 0 0 -6.16606e-15 3.54774e-15 -1.28775e-14 6.98732e-15 0 0 -5.6052e-15 -2.0135e-15 -5.89076e-15 7.56671e-15 0 0 1.02622e-16 -1.20616e-14 9.68553e-15 -1.88862e-16 0 0 2.75398e-15 -1.04681e-14 1.0533e-14 -5.13281e-15 0 0 1.78686e-15 -2.32583e-15 1.48206e-15 -3.78308e-15 0 0 -3.89902e-15 1.04042e-14 -2.73529e-15 -6.85219e-15 0 0 -5.43751e-16 8.93325e-15 1.35521e-15 -7.33096e-15 0 0 -3.36237e-15 1.02807e-14 6.3334e-15 -1.03302e-14 0 0 -4.87922e-15 1.72108e-14 3.74485e-15 -6.72078e-15 0 0 3.66093e-15 1.13642e-14 -6.42006e-17 7.66061e-15 0 0 1.21815e-14 -1.22272e-15 1.03477e-14 3.50325e-15 0 0 1.3446e-14 3.12434e-15 1.01836e-14 -4.00812e-15 0 0 7.13518e-15 2.15572e-14 7.51077e-16 -2.53187e-15 0 0 1.5079e-14 1.82889e-14 7.46269e-15 1.08624e-14 0 0 1.16117e-14 7.6567e-15 1.56087e-14 1.81208e-14 0 0 -5.39348e-15 1.13797e-14 6.94529e-15 7.17027e-15 0 0 -2.81011e-15 2.33379e-15 -4.37817e-16 8.66998e-15 0 0 1.19644e-14 -1.43768e-14 -7.57549e-15 6.24227e-15 0 0 -1.39277e-14 -6.64962e-15 -1.74923e-14 -2.79282e-15 0 0 -2.32853e-14 -1.83376e-14 -1.13179e-14 -1.49697e-14 0 0 -1.71598e-14 -3.31785e-14 -6.03249e-16 -9.07457e-15 0 0 -2.22415e-14 -1.33243e-14 -6.79213e-15 1.1931e-14 0 0 -2.26124e-14 -2.06961e-14 -1.80554e-15 -4.41164e-15 0 0 -3.01262e-14 -5.73684e-14 7.77121e-15 -4.47679e-15 0 0 -3.18174e-14 -5.97975e-14 2.47163e-15 -2.85823e-15 0 0 -3.21378e-14 -3.83028e-14 -7.77612e-15 -2.51656e-14 0 0 -5.16099e-16 -3.43506e-14 -1.87113e-14 -1.65739e-14 0 0 4.11206e-14 -2.90472e-14 -1.44635e-14 -1.90056e-14 0 0 4.75191e-14 -3.46883e-14 -2.64639e-15 -1.50873e-14 0 0 7.16044e-15 -2.3409e-14 6.25575e-16 -7.99045e-15 0 0 -3.06825e-14 -7.71029e-15 2.443e-15 -8.66586e-15 0 0 -2.95718e-14 -3.60964e-14 2.63868e-14 3.1175e-14 0 0 -2.54306e-14 -3.14835e-14 4.88203e-14 3.67846e-14 0 0 -2.3406e-15 -2.46044e-14 2.54378e-14 1.62535e-14 0 0 3.00425e-14 -2.24503e-14 -2.21349e-14 1.1899e-14 0 0 1.43687e-14 4.10593e-15 -3.34596e-14 2.43031e-14 0 0 4.44582e-15 4.75231e-15 -2.6532e-14 2.92436e-14 0 0 6.12122e-15 -1.45513e-14 -8.74939e-15 2.08545e-14 0 0 -1.78312e-14 2.20497e-14 -6.2818e-16 3.24993e-14 0 0 2.71879e-15 4.68551e-14 -2.82826e-15 1.70434e-14 0 0 2.19745e-14 3.24705e-15 1.98393e-14 -1.6773e-14 0 0 -9.21983e-15 -9.84981e-16 2.65521e-14 -2.63782e-14 0 0 -2.3414e-15 -3.84466e-15 4.3644e-14 -2.77834e-14 0 0 1.2018e-14 -1.95106e-14 5.12616e-14 -2.11264e-14 0 0 3.3857e-14 -1.42452e-14 2.11108e-14 2.47155e-15 0 0 5.6748e-14 -2.13104e-14 1.23078e-14 9.67663e-15 0 0 1.87871e-14 -1.79492e-14 3.527e-14 -2.42523e-15 0 0 -9.1532e-15 -6.32834e-15 4.64468e-14 -2.89334e-15 0 0 -1.24471e-14 1.35506e-14 2.82895e-14 -1.00309e-14 0 0 -3.88078e-15 2.35392e-14 9.20617e-15 5.62773e-15 0 0 2.5894e-14 3.39168e-14 -1.63084e-14 2.90516e-14 0 0 1.70966e-14 3.90615e-14 -4.6814e-14 2.03621e-14 0 0 -2.42847e-15 1.86729e-14 -4.50436e-14 1.98712e-14 0 0 1.75195e-14 -2.72785e-14 3.50854e-14 -1.18209e-14 0 0 2.13069e-14 -2.15861e-14 7.61761e-15 -2.04388e-14 0 0 -2.91197e-15 2.60389e-14 -2.95748e-14 -1.11462e-14 0 0 -1.28671e-14 3.28041e-14 2.8836e-15 3.85114e-15 0 0 -1.13516e-14 5.76401e-15 4.94822e-14 -8.7519e-15 0 0 -1.32231e-15 1.80283e-14 5.4099e-14 -5.33237e-15 0 0 2.26441e-14 2.365e-14 7.28978e-15 2.04984e-14 0 0 4.25036e-14 4.74739e-15 2.37041e-14 -2.22163e-14 0 0 4.70379e-14 5.45156e-15 1.71207e-14 -1.51341e-14 0 0 -6.05667e-15 1.33838e-14 3.80728e-15 1.81507e-14 0 0 -3.2873e-14 2.3611e-14 -1.98642e-15 2.61951e-14 0 0 -2.93662e-14 1.2094e-14 1.36595e-14 1.10135e-14 0 0 -8.83472e-15 1.13143e-14 1.44868e-14 2.40638e-14 0 0 5.48725e-15 6.0417e-15 -6.41991e-15 1.69805e-14 0 0 -1.99975e-14 -1.8598e-14 -6.34563e-15 -2.74824e-14 0 0 -1.99086e-14 -3.62597e-14 -2.25604e-14 -1.68782e-14 0 0 -1.90226e-14 -2.61985e-14 -3.38395e-14 -3.8388e-15 0 0 -6.40917e-15 -1.61654e-14 -1.74126e-14 3.55405e-16 0 0 1.5167e-14 1.2762e-14 1.31034e-14 9.93669e-15 0 0 3.37627e-14 6.35598e-14 4.6887e-14 2.30786e-14 0 0 4.74028e-14 9.643e-14 8.28608e-14 5.15811e-14 0 0 7.13134e-14 1.12112e-13 9.74213e-14 7.47556e-14 0 0 7.64003e-14 1.13281e-13 1.09785e-13 7.95932e-14 0 0 5.50841e-14 1.01428e-13 1.10185e-13 6.38439e-14 0 0 5.04949e-14 7.06203e-14 9.80392e-14 4.32678e-14 0 0 3.14504e-14 4.99593e-14 6.20002e-14 2.86865e-14 0 0 -1.0669e-14 -4.64342e-15 -8.12114e-15 -1.35941e-14 0 0 -4.45493e-14 -5.92632e-14 -7.58862e-14 -3.37925e-14 0 0 -1.04457e-13 -1.45678e-13 -1.50588e-13 -7.35954e-14 0 0 -1.03107e-13 -1.42051e-13 -1.93795e-13 -9.82793e-14 0 0 -1.31385e-13 -2.00724e-13 -1.96205e-13 -9.87335e-14 0 0 -1.46773e-13 -2.70075e-13 -2.04576e-13 -1.4842e-13 0 0 -1.50439e-13 -3.09574e-13 -2.21213e-13 -2.55578e-13 0 0 -1.34057e-13 -3.03909e-13 -2.1122e-13 -2.2061e-13 0 0 -9.06927e-15 -4.82037e-14 -3.52127e-14 -1.16982e-13 0 0 2.09886e-13 3.43148e-13 3.13269e-13 5.86059e-14 0 0 4.52961e-13 6.76368e-13 6.85799e-13 3.1634e-13 0 0 5.81538e-13 8.76131e-13 8.62092e-13 4.95149e-13 0 0 5.59934e-13 8.7247e-13 8.26775e-13 5.32358e-13 0 0 4.52234e-13 7.83812e-13 6.94699e-13 4.91868e-13 0 0 3.55112e-13 6.8468e-13 5.93276e-13 4.44616e-13 0 0 2.95914e-13 5.05871e-13 5.43337e-13 3.20426e-13 0 0 2.38497e-13 3.50191e-13 4.71146e-13 2.23273e-13 0 0 1.82049e-13 2.8056e-13 3.4663e-13 1.92206e-13 0 0 1.44384e-13 2.0998e-13 2.42321e-13 1.68048e-13 0 0 1.04713e-13 1.72854e-13 1.4669e-13 1.71443e-13 0 0 7.77592e-14 1.19176e-13 6.72925e-14 1.33445e-13 0 0 5.79468e-14 6.01765e-14 2.02932e-14 8.6152e-14 0 0 -1.79056e-16 1.54997e-14 5.87979e-15 3.83564e-14 0 0 -4.00582e-14 -4.44981e-14 1.70574e-14 -3.08225e-14 0 0 -5.34627e-14 -5.86852e-14 -5.43002e-14 -2.1806e-14 0 0 -7.10566e-14 -4.11027e-14 -1.4836e-13 1.51559e-14 0 0 -4.94442e-14 -7.0122e-14 -1.43553e-13 -4.62425e-14 0 0 -2.64128e-14 -1.38014e-13 -1.32135e-13 -6.42017e-14 0 0 -5.69277e-14 -1.5022e-13 -1.40974e-13 -5.59591e-14 0 0 -7.90318e-14 -8.82936e-14 -1.84427e-13 -4.50421e-14 0 0 -7.45795e-14 -9.71128e-14 -1.99394e-13 3.37558e-14 0 0 -8.47723e-14 -1.35665e-13 -1.55101e-13 3.13323e-14 0 0 -6.94474e-14 -1.25579e-13 -1.66833e-13 -5.77733e-14 0 0 -2.82168e-14 -1.42094e-13 -1.52666e-13 -7.68953e-14 0 0 -2.91485e-14 -1.26863e-13 -1.58647e-13 -7.10878e-14 0 0 -4.07461e-14 -1.12307e-13 -1.28211e-13 -7.96235e-14 0 0 -5.81447e-14 -1.06235e-13 -5.86683e-14 -3.21408e-14 0 0 -5.60848e-14 -7.78117e-14 -8.99627e-14 1.97884e-14 0 0 -4.78975e-14 -3.95843e-14 -1.12697e-13 8.71865e-16 0 0 -4.60857e-14 -2.00626e-14 -6.23705e-14 -3.7067e-15 0 0 -9.61036e-15 -2.85148e-14 -7.68534e-15 -1.98946e-14 0 0 2.86342e-14 -2.78291e-14 -8.53874e-15 -9.35102e-15 0 0 3.49545e-14 -7.8311e-15 -3.066e-14 4.22896e-14 0 0 4.24881e-14 3.57687e-15 -2.21772e-14 1.72768e-14 0 0 6.49232e-14 -1.46289e-14 -4.86515e-15 -3.55042e-14 0 0 4.37027e-14 3.47631e-14 3.23524e-14 5.32443e-15 0 0 2.45105e-14 1.03829e-13 1.11448e-14 2.3357e-14 0 0 2.83593e-14 1.07258e-13 2.33359e-14 5.48753e-14 0 0 5.0856e-14 8.08062e-14 5.99927e-14 1.25095e-13 0 0 7.34763e-14 1.01205e-13 7.18748e-14 9.55736e-14 0 0 9.51887e-14 1.22803e-13 1.45407e-13 3.02143e-14 0 0 1.28841e-13 7.18354e-14 2.18173e-13 -1.33014e-15 0 0 1.42708e-13 5.65342e-14 2.75993e-13 -3.09826e-14 0 0 1.48798e-13 8.85656e-14 3.23408e-13 -5.22165e-14 0 0 1.6248e-13 1.09499e-13 2.79126e-13 1.68497e-14 0 0 1.78321e-13 1.24308e-13 2.49245e-13 6.11109e-14 0 0 1.47252e-13 1.38083e-13 3.26191e-13 1.80739e-14 0 0 6.50649e-14 2.38331e-13 3.29197e-13 -2.57718e-14 0 0 2.23358e-14 3.05236e-13 3.04809e-13 -5.40321e-14 0 0 4.39841e-14 2.61713e-13 2.82899e-13 8.17776e-15 0 0 5.71196e-14 2.37273e-13 1.72389e-13 1.37563e-13 0 0 1.05366e-13 1.21689e-13 1.45552e-13 2.64838e-13 0 0 1.23597e-13 5.91672e-14 1.72142e-13 3.18345e-13 0 0 1.01431e-13 4.8397e-14 1.74853e-13 2.69019e-13 0 0 5.61847e-14 2.06996e-14 1.89791e-13 1.40106e-13 0 0 8.86097e-15 4.83622e-14 1.56192e-13 1.36599e-13 0 0 2.04176e-14 1.5764e-14 4.73921e-14 2.40291e-13 0 0 1.35079e-14 -3.92232e-15 2.0776e-14 1.59869e-13 0 0 9.12678e-15 -1.57007e-14 2.80563e-14 -2.57783e-15 0 0 -4.04997e-14 -1.20664e-14 -2.37461e-14 1.45362e-15 0 0 -7.9612e-14 8.66803e-15 -3.85568e-14 -5.39633e-14 0 0 -4.15481e-14 -4.33662e-14 -3.97794e-14 -6.76014e-14 0 0 -3.09523e-14 -8.10078e-14 -4.03111e-14 -1.28135e-14 0 0 -5.75536e-14 -6.60999e-14 -3.94295e-14 -3.87769e-14 0 0 -5.90803e-14 -5.44761e-14 -6.45494e-14 1.0473e-14 0 0 -5.07319e-14 -7.82114e-14 -5.51189e-14 -4.43035e-15 0 0 -4.72237e-14 -9.00893e-14 -4.13402e-14 -2.71735e-14 0 0 -5.66409e-14 -7.61901e-14 -5.17341e-14 -2.65096e-14 0 0 -6.35623e-14 -8.51717e-14 -4.26787e-14 -5.16978e-14 0 0 -4.50083e-14 -1.01839e-13 -3.01912e-14 -5.55514e-14 0 0 -5.4769e-14 -6.61153e-14 -7.14224e-14 -3.53896e-14 0 0 -6.59554e-14 -4.78058e-14 -1.16764e-13 -2.45941e-14 0 0 -6.43265e-14 -5.39471e-14 -1.0708e-13 -2.68713e-14 0 0 -6.2487e-14 -6.44519e-14 -9.24277e-14 -1.67793e-14 0 0 -4.93373e-14 -6.85289e-14 -9.07567e-14 -9.66667e-15 0 0 -5.06975e-14 -3.53883e-14 -1.12409e-13 1.17177e-14 0 0 -4.8035e-14 -4.48774e-14 -9.51101e-14 -1.01841e-14 0 0 -4.74927e-14 -6.85522e-14 -4.54252e-14 -3.4195e-14 0 0 -5.99876e-14 -3.1152e-14 -4.79505e-14 -5.93037e-14 0 0 -6.58805e-14 -1.02793e-14 -5.55932e-14 -4.75457e-14 0 0 -5.00049e-14 -2.80109e-14 -5.05373e-14 3.78479e-15 0 0 -3.92629e-14 -1.69402e-14 -2.68553e-14 -2.70149e-14 0 0 -4.52815e-14 1.53643e-15 -5.32316e-15 -5.00742e-14 0 0 -5.69766e-14 1.51608e-14 -1.2963e-14 2.27958e-14 0 0 -4.99478e-14 1.93581e-14 -9.54955e-15 7.71746e-14 0 0 -1.15606e-14 -8.10347e-15 1.63725e-14 7.16321e-14 0 0 2.6092e-14 -3.75793e-14 5.5151e-14 7.25974e-14 0 0 1.95045e-14 -2.6719e-14 8.17582e-14 5.92005e-14 0 0 -2.41273e-14 3.59855e-14 4.5725e-14 6.1586e-14 0 0 1.04986e-14 -1.317e-14 6.40162e-14 -1.76674e-15 0 0 3.81397e-14 -5.82931e-14 5.35673e-14 -5.42189e-14 0 0 1.03384e-14 -1.10996e-14 -2.13452e-14 -1.74596e-14 0
				</DataArray>
				<DataArray Name="VitesseY" type="Float32" format="ascii">