<?xml version="1.0"?>
<VTKFile type="PolyData">
	<PolyData>
		<Piece NumberOfPoints="1206" NumberOfPolys="1000">
			<Points>
				<DataArray type="Float32" NumberOfComponents="3" format="ascii">
 0 0 0 0.02 0 0 0.04 0 0 0.06 0 0 0.08 0 0 0.1 0 0 0 0.005 0 0.02 0.005 0 0.04 0.005 0 0.06 0.005 0 0.08 0.005 0 0.1 0.005 0 0 0.01 0 0.02 0.01 0 0.04 0.01 0 0.06 0.01 0 0.08 0.01 0 0.1 0.01 0 0 0.015 0 0.02 0.015 0 0.04 0.015 0 0.06 0.015 0 0.08 0.015 0 0.1 0.015 0 0 0.02 0 0.02 0.02 0 0.04 0.02 0 0.06 0.02 0 0.08 0.02 0 0.1 0.02 0 0 0.025 0 0.02 0.025 0 0.04 0.025 0 0.06 0.025 0 0.08 0.025 0 0.1 0.025 0 0 0.03 0 0.02 0.03 0 0.04 0.03 0 0.06 0.03 0 0.08 0.03 0 0.1 0.03 0 0 0.035 0 0.02 0.035 0 0.04 0.035 0 0.06 0.035 0 0.08 0.035 0 0.1 0.035 0 0 0.04 0 0.02 0.04 0 0.04 0.04 0 0.06 0.04 0 0.08 0.04 0 0.1 0.04 0 0 0.045 0 0.02 0.045 0 0.04 0.045 0 0.06 0.045 0 0.08 0.045 0 0.1 0.045 0 0 0.05 0 0.02 0.05 0 0.04 0.05 0 0.06 0.05 0 0.08 0.05 0 0.1 0.05 0 0 0.055 0 0.02 0.055 0 0.04 0.055 0 0.06 0.055 0 0.08 0.055 0 0.1 0.055 0 0 0.06 0 0.02 0.06 0 0.04 0.06 0 0.06 0.06 0 0.08 0.06 0 0.1 0.06 0 0 0.065 0 0.02 0.065 0 0.04 0.065 0 0.06 0.065 0 0.08 0.065 0 0.1 0.065 0 0 0.07 0 0.02 0.07 0 0.04 0.07 0 0.06 0.07 0 0.08 0.07 0 0.1 0.07 0 0 0.075 0 0.02 0.075 0 0.04 0.075 0 0.06 0.075 0 0.08 0.075 0 0.1 0.075 0 0 0.08 0 0.02 0.08 0 0.04 0.08 0 0.06 0.08 0 0.08 0.08 0 0.1 0.08 0 0 0.085 0 0.02 0.085 0 0.04 0.085 0 0.06 0.085 0 0.08 0.085 0 0.1 0.085 0 0 0.09 0 0.02 0.09 0 0.04 0.09 0 0.06 0.09 0 0.08 0.09 0 0.1 0.09 0 0 0.095 0 0.02 0.095 0 0.04 0.095 0 0.06 0.095 0 0.08 0.095 0 0.1 0.095 0 0 0.1 0 0.02 0.1 0 0.04 0.1 0 0.06 0.1 0 0.08 0.1 0 0.1 0.1 0 0 0.105 0 0.02 0.105 0 0.04 0.105 0 0.06 0.105 0 0.08 0.105 0 0.1 0.105 0 0 0.11 0 0.02 0.11 0 0.04 0.11 0 0.06 0.11 0 0.08 0.11 0 0.1 0.11 0 0 0.115 0 0.02 0.115 0 0.04 0.115 0 0.06 0.115 0 0.08 0.115 0 0.1 0.115 0 0 0.12 0 0.02 0.12 0 0.04 0.12 0 0.06 0.12 0 0.08 0.12 0 0.1 0.12 0 0 0.125 0 0.02 0.125 0 0.04 0.125 0 0.06 0.125 0 0.08 0.125 0 0.1 0.125 0 0 0.13 0 0.02 0.13 0 0.04 0.13 0 0.06 0.13 0 0.08 0.13 0 0.1 0.13 0 0 0.135 0 0.02 0.135 0 0.04 0.135 0 0.06 0.135 0 0.08 0.135 0 0.1 0.135 0 0 0.14 0 0.02 0.14 0 0.04 0.14 0 0.06 0.14 0 0.08 0.14 0 0.1 0.14 0 0 0.145 0 0.02 0.145 0 0.04 0.145 0 0.06 0.145 0 0.08 0.145 0 0.1 0.145 0 0 0.15 0 0.02 0.15 0 0.04 0.15 0 0.06 0.15 0 0.08 0.15 0 0.1 0.15 0 0 0.155 0 0.02 0.155 0 0.04 0.155 0 0.06 0.155 0 0.08 0.155 0 0.1 0.155 0 0 0.16 0 0.02 0.16 0 0.04 0.16 0 0.06 0.16 0 0.08 0.16 0 0.1 0.16 0 0 0.165 0 0.02 0.165 0 0.04 0.165 0 0.06 0.165 0 0.08 0.165 0 0.1 0.165 0 0 0.17 0 0.02 0.17 0 0.04 0.17 0 0.06 0.17 0 0.08 0.17 0 0.1 0.17 0 0 0.175 0 0.02 0.175 0 0.04 0.175 0 0.06 0.175 0 0.08 0.175 0 0.1 0.175 0 0 0.18 0 0.02 0.18 0 0.04 0.18 0 0.06 0.18 0 0.08 0.18 0 0.1 0.18 0 0 0.185 0 0.02 0.185 0 0.04 0.185 0 0.06 0.185 0 0.08 0.185 0 0.1 0.185 0 0 0.19 0 0.02 0.19 0 0.04 0.19 0 0.06 0.19 0 0.08 0.19 0 0.1 0.19 0 0 0.195 0 0.02 0.195 0 0.04 0.195 0 0.06 0.195 0 0.08 0.195 0 0.1 0.195 0 0 0.2 0 0.02 0.2 0 0.04 0.2 0 0.06 0.2 0 0.08 0.2 0 0.1 0.2 0 0 0.205 0 0.02 0.205 0 0.04 0.205 0 0.06 0.205 0 0.08 0.205 0 0.1 0.205 0 0 0.21 0 0.02 0.21 0 0.04 0.21 0 0.06 0.21 0 0.08 0.21 0 0.1 0.21 0 0 0.215 0 0.02 0.215 0 0.04 0.215 0 0.06 0.215 0 0.08 0.215 0 0.1 0.215 0 0 0.22 0 0.02 0.22 0 0.04 0.22 0 0.06 0.22 0 0.08 0.22 0 0.1 0.22 0 0 0.225 0 0.02 0.225 0 0.04 0.225 0 0.06 0.225 0 0.08 0.225 0 0.1 0.225 0 0 0.23 0 0.02 0.23 0 0.04 0.23 0 0.06 0.23 0 0.08 0.23 0 0.1 0.23 0 0 0.235 0 0.02 0.235 0 0.04 0.235 0 0.06 0.235 0 0.08 0.235 0 0.1 0.235 0 0 0.24 0 0.02 0.24 0 0.04 0.24 0 0.06 0.24 0 0.08 0.24 0 0.1 0.24 0 0 0.245 0 0.02 0.245 0 0.04 0.245 0 0.06 0.245 0 0.08 0.245 0 0.1 0.245 0 0 0.25 0 0.02 0.25 0 0.04 0.25 0 0.06 0.25 0 0.08 0.25 0 0.1 0.25 0 0 0.255 0 0.02 0.255 0 0.04 0.255 0 0.06 0.255 0 0.08 0.255 0 0.1 0.255 0 0 0.26 0 0.02 0.26 0 0.04 0.26 0 0.06 0.26 0 0.08 0.26 0 0.1 0.26 0 0 0.265 0 0.02 0.265 0 0.04 0.265 0 0.06 0.265 0 0.08 0.265 0 0.1 0.265 0 0 0.27 0 0.02 0.27 0 0.04 0.27 0 0.06 0.27 0 0.08 0.27 0 0.1 0.27 0 0 0.275 0 0.02 0.275 0 0.04 0.275 0 0.06 0.275 0 0.08 0.275 0 0.1 0.275 0 0 0.28 0 0.02 0.28 0 0.04 0.28 0 0.06 0.28 0 0.08 0.28 0 0.1 0.28 0 0 0.285 0 0.02 0.285 0 0.04 0.285 0 0.06 0.285 0 0.08 0.285 0 0.1 0.285 0 0 0.29 0 0.02 0.29 0 0.04 0.29 0 0.06 0.29 0 0.08 0.29 0 0.1 0.29 0 0 0.295 0 0.02 0.295 0 0.04 0.295 0 0.06 0.295 0 0.08 0.295 0 0.1 0.295 0 0 0.3 0 0.02 0.3 0 0.04 0.3 0 0.06 0.3 0 0.08 0.3 0 0.1 0.3 0 0 0.305 0 0.02 0.305 0 0.04 0.305 0 0.06 0.305 0 0.08 0.305 0 0.1 0.305 0 0 0.31 0 0.02 0.31 0 0.04 0.31 0 0.06 0.31 0 0.08 0.31 0 0.1 0.31 0 0 0.315 0 0.02 0.315 0 0.04 0.315 0 0.06 0.315 0 0.08 0.315 0 0.1 0.315 0 0 0.32 0 0.02 0.32 0 0.04 0.32 0 0.06 0.32 0 0.08 0.32 0 0.1 0.32 0 0 0.325 0 0.02 0.325 0 0.04 0.325 0 0.06 0.325 0 0.08 0.325 0 0.1 0.325 0 0 0.33 0 0.02 0.33 0 0.04 0.33 0 0.06 0.33 0 0.08 0.33 0 0.1 0.33 0 0 0.335 0 0.02 0.335 0 0.04 0.335 0 0.06 0.335 0 0.08 0.335 0 0.1 0.335 0 0 0.34 0 0.02 0.34 0 0.04 0.34 0 0.06 0.34 0 0.08 0.34 0 0.1 0.34 0 0 0.345 0 0.02 0.345 0 0.04 0.345 0 0.06 0.345 0 0.08 0.345 0 0.1 0.345 0 0 0.35 0 0.02 0.35 0 0.04 0.35 0 0.06 0.35 0 0.08 0.35 0 0.1 0.35 0 0 0.355 0 0.02 0.355 0 0.04 0.355 0 0.06 0.355 0 0.08 0.355 0 0.1 0.355 0 0 0.36 0 0.02 0.36 0 0.04 0.36 0 0.06 0.36 0 0.08 0.36 0 0.1 0.36 0 0 0.365 0 0.02 0.365 0 0.04 0.365 0 0.06 0.365 0 0.08 0.365 0 0.1 0.365 0 0 0.37 0 0.02 0.37 0 0.04 0.37 0 0.06 0.37 0 0.08 0.37 0 0.1 0.37 0 0 0.375 0 0.02 0.375 0 0.04 0.375 0 0.06 0.375 0 0.08 0.375 0 0.1 0.375 0 0 0.38 0 0.02 0.38 0 0.04 0.38 0 0.06 0.38 0 0.08 0.38 0 0.1 0.38 0 0 0.385 0 0.02 0.385 0 0.04 0.385 0 0.06 0.385 0 0.08 0.385 0 0.1 0.385 0 0 0.39 0 0.02 0.39 0 0.04 0.39 0 0.06 0.39 0 0.08 0.39 0 0.1 0.39 0 0 0.395 0 0.02 0.395 0 0.04 0.395 0 0.06 0.395 0 0.08 0.395 0 0.1 0.395 0 0 0.4 0 0.02 0.4 0 0.04 0.4 0 0.06 0.4 0 0.08 0.4 0 0.1 0.4 0 0 0.405 0 0.02 0.405 0 0.04 0.405 0 0.06 0.405 0 0.08 0.405 0 0.1 0.405 0 0 0.41 0 0.02 0.41 0 0.04 0.41 0 0.06 0.41 0 0.08 0.41 0 0.1 0.41 0 0 0.415 0 0.02 0.415 0 0.04 0.415 0 0.06 0.415 0 0.08 0.415 0 0.1 0.415 0 0 0.420001 0 0.02 0.420001 0 0.04 0.420001 0 0.06 0.420001 0 0.08 0.420001 0 0.1 0.420001 0 0 0.425005 0 0.02 0.425005 0 0.04 0.425005 0 0.06 0.425005 0 0.08 0.425005 0 0.1 0.425005 0 0 0.430024 0 0.02 0.430024 0 0.04 0.430024 0 0.06 0.430024 0 0.08 0.430024 0 0.1 0.430024 0 0 0.435086 0 0.02 0.435086 0 0.04 0.435086 0 0.06 0.435086 0 0.08 0.435086 0 0.1 0.435086 0 0 0.440257 0 0.02 0.440257 0 0.04 0.440257 0 0.06 0.440257 0 0.08 0.440257 0 0.1 0.440257 0 0 0.445631 0 0.02 0.445631 0 0.04 0.445631 0 0.06 0.445631 0 0.08 0.445631 0 0.1 0.445631 0 0 0.451317 0 0.02 0.451317 0 0.04 0.451317 0 0.06 0.451317 0 0.08 0.451317 0 0.1 0.451317 0 0 0.457421 0 0.02 0.457421 0 0.04 0.457421 0 0.06 0.457421 0 0.08 0.457421 0 0.1 0.457421 0 0 0.464051 0 0.02 0.464051 0 0.04 0.464051 0 0.06 0.464051 0 0.08 0.464051 0 0.1 0.464051 0 0 0.471338 0 0.02 0.471338 0 0.04 0.471338 0 0.06 0.471338 0 0.08 0.471338 0 0.1 0.471338 0 0 0.479447 0 0.02 0.479447 0 0.04 0.479447 0 0.06 0.479447 0 0.08 0.479447 0 0.1 0.479447 0 0 0.488598 0 0.02 0.488598 0 0.04 0.488598 0 0.06 0.488598 0 0.08 0.488598 0 0.1 0.488598 0 0 0.499055 0 0.02 0.499055 0 0.04 0.499055 0 0.06 0.499055 0 0.08 0.499055 0 0.1 0.499055 0 0 0.510948 0 0.02 0.510948 0 0.04 0.510948 0 0.06 0.510948 0 0.08 0.510948 0 0.1 0.510948 0 0 0.523427 0 0.02 0.523427 0 0.04 0.523427 0 0.06 0.523427 0 0.08 0.523427 0 0.1 0.523427 0 0 0.53551 0 0.02 0.53551 0 0.04 0.53551 0 0.06 0.53551 0 0.08 0.53551 0 0.1 0.53551 0 0 0.547376 0 0.02 0.547376 0 0.04 0.547376 0 0.06 0.547376 0 0.08 0.547376 0 0.1 0.547376 0 0 0.549996 0 0.02 0.549996 0 0.04 0.549996 0 0.06 0.549996 0 0.08 0.549996 0 0.1 0.549996 0 0 0.552541 0 0.02 0.552541 0 0.04 0.552541 0 0.06 0.552541 0 0.08 0.552541 0 0.1 0.552541 0 0 0.555041 0 0.02 0.555041 0 0.04 0.555041 0 0.06 0.555041 0 0.08 0.555041 0 0.1 0.555041 0 0 0.557511 0 0.02 0.557511 0 0.04 0.557511 0 0.06 0.557511 0 0.08 0.557511 0 0.1 0.557511 0 0 0.559961 0 0.02 0.559961 0 0.04 0.559961 0 0.06 0.559961 0 0.08 0.559961 0 0.1 0.559961 0 0 0.562398 0 0.02 0.562398 0 0.04 0.562398 0 0.06 0.562398 0 0.08 0.562398 0 0.1 0.562398 0 0 0.564826 0 0.02 0.564826 0 0.04 0.564826 0 0.06 0.564826 0 0.08 0.564826 0 0.1 0.564826 0 0 0.56725 0 0.02 0.56725 0 0.04 0.56725 0 0.06 0.56725 0 0.08 0.56725 0 0.1 0.56725 0 0 0.569673 0 0.02 0.569673 0 0.04 0.569673 0 0.06 0.569673 0 0.08 0.569673 0 0.1 0.569673 0 0 0.572102 0 0.02 0.572102 0 0.04 0.572102 0 0.06 0.572102 0 0.08 0.572102 0 0.1 0.572102 0 0 0.57454 0 0.02 0.57454 0 0.04 0.57454 0 0.06 0.57454 0 0.08 0.57454 0 0.1 0.57454 0 0 0.577009 0 0.02 0.577009 0 0.04 0.577009 0 0.06 0.577009 0 0.08 0.577009 0 0.1 0.577009 0 0 0.579508 0 0.02 0.579508 0 0.04 0.579508 0 0.06 0.579508 0 0.08 0.579508 0 0.1 0.579508 0 0 0.582086 0 0.02 0.582086 0 0.04 0.582086 0 0.06 0.582086 0 0.08 0.582086 0 0.1 0.582086 0 0 0.584731 0 0.02 0.584731 0 0.04 0.584731 0 0.06 0.584731 0 0.08 0.584731 0 0.1 0.584731 0 0 0.587535 0 0.02 0.587535 0 0.04 0.587535 0 0.06 0.587535 0 0.08 0.587535 0 0.1 0.587535 0 0 0.590506 0 0.02 0.590506 0 0.04 0.590506 0 0.06 0.590506 0 0.08 0.590506 0 0.1 0.590506 0 0 0.593766 0 0.02 0.593766 0 0.04 0.593766 0 0.06 0.593766 0 0.08 0.593766 0 0.1 0.593766 0 0 0.597351 0 0.02 0.597351 0 0.04 0.597351 0 0.06 0.597351 0 0.08 0.597351 0 0.1 0.597351 0 0 0.601314 0 0.02 0.601314 0 0.04 0.601314 0 0.06 0.601314 0 0.08 0.601314 0 0.1 0.601314 0 0 0.60564 0 0.02 0.60564 0 0.04 0.60564 0 0.06 0.60564 0 0.08 0.60564 0 0.1 0.60564 0 0 0.610267 0 0.02 0.610267 0 0.04 0.610267 0 0.06 0.610267 0 0.08 0.610267 0 0.1 0.610267 0 0 0.615097 0 0.02 0.615097 0 0.04 0.615097 0 0.06 0.615097 0 0.08 0.615097 0 0.1 0.615097 0 0 0.620032 0 0.02 0.620032 0 0.04 0.620032 0 0.06 0.620032 0 0.08 0.620032 0 0.1 0.620032 0 0 0.62501 0 0.02 0.62501 0 0.04 0.62501 0 0.06 0.62501 0 0.08 0.62501 0 0.1 0.62501 0 0 0.630003 0 0.02 0.630003 0 0.04 0.630003 0 0.06
[...]
			<PointData Scalars="VitesseX">
				<DataArray Name="VitesseX" type="Float32" format="ascii">
 0 6.88009e-17 -1.76675e-15 -4.64088e-15 -4.99282e-15 0 0 -1.18981e-16 -1.6941e-15 -4.27991e-15 -5.33053e-15 0 0 -8.03773e-16 -1.31885e-15 -3.66464e-15 -6.20052e-15 0 0 -1.79951e-15 -5.89398e-16 -3.32436e-15 -7.06453e-15 0 0 -1.3518e-15 -1.20437e-15 -2.87575e-15 -7.09578e-15 0 0 -7.79084e-16 -1.09442e-15 -3.42941e-15 -6.53062e-15 0 0 -9.13986e-16 -6.92897e-16 -3.53258e-15 -6.8666e-15 0 0 -1.16133e-15 -2.23104e-15 -1.75489e-15 -1.00982e-14 0 0 3.9543e-16 -5.15834e-15 -4.53834e-16 -1.21951e-14 0 0 1.3758e-15 -5.15572e-15 -3.686e-15 -1.08297e-14 0 0 -1.74803e-16 -2.63686e-15 -6.25733e-15 -1.13657e-14 0 0 -1.16743e-15 -2.75794e-15 -5.09704e-15 -1.23296e-14 0 0 -2.80092e-15 -3.75429e-15 -8.31449e-15 -9.37356e-15 0 0 -1.63834e-15 -8.18918e-15 -9.84916e-15 -7.87225e-15 0 0 -2.54596e-15 -9.55771e-15 -1.01894e-14 -6.2549e-15 0 0 -8.92756e-15 -2.56979e-15 -1.0661e-14 -6.77215e-15 0 0 -6.79345e-15 -5.39412e-15 -7.62242e-15 -8.15366e-15 0 0 -6.25102e-15 -1.12083e-14 -6.31541e-15 -6.68272e-15 0 0 -1.09613e-14 -9.77426e-15 -4.02268e-15 -1.26472e-14 0 0 -1.12331e-14 -7.91881e-15 -6.0424e-15 -1.20522e-14 0 0 -1.07084e-14 -6.75757e-15 -8.08201e-15 -2.88789e-15 0 0 -7.87575e-15 -1.06891e-14 -7.05074e-16 -1.97968e-15 0 0 -6.77988e-15 -1.30561e-14 4.80841e-15 -3.41335e-15 0 0 -6.38903e-15 -1.21484e-14 2.39184e-15 -3.42302e-15 0 0 -5.60587e-15 -8.90275e-15 -5.00518e-15 -3.62369e-15 0 0 -3.81785e-15 -1.14871e-14 -1.00396e-14 -1.70971e-15 0 0 -4.03813e-15 -1.30889e-14 -1.2917e-14 -1.13785e-15 0 0 -6.94214e-15 -1.0854e-14 -1.31975e-14 -3.60194e-15 0 0 -5.66727e-15 -1.31559e-14 -1.31325e-14 -2.92179e-15 0 0 -2.52333e-15 -1.76814e-14 -1.65297e-14 -1.33962e-15 0 0 1.00315e-17 -2.21366e-14 -1.7235e-14 -7.8853e-15 0 0 -2.78529e-15 -2.16595e-14 -1.75601e-14 -1.31072e-14 0 0 -3.96445e-15 -2.36938e-14 -1.90231e-14 -1.65949e-14 0 0 -3.13175e-15 -2.62658e-14 -1.48622e-14 -2.0925e-14 0 0 -1.06005e-14 -1.77685e-14 -2.30945e-14 -6.00301e-15 0 0 -1.16994e-14 -1.72699e-14 -2.56558e-14 5.53813e-15 0 0 -1.03299e-14 -2.3836e-14 -1.21942e-14 1.15031e-15 0 0 -1.00372e-14 -2.88834e-14 -5.58973e-15 5.47838e-16 0 0 -1.0333e-14 -2.20912e-14 -1.87071e-14 9.32147e-15 0 0 -1.09239e-14 -1.14179e-14 -2.74724e-14 1.09638e-14 0 0 -9.66166e-15 -1.66183e-14 -1.17208e-14 -7.98241e-15 0 0 -8.13065e-15 -1.91569e-14 -1.5301e-14 -2.23915e-14 0 0 -1.27266e-14 -1.22822e-14 -2.63203e-14 -1.46346e-14 0 0 -1.56407e-14 -1.25043e-14 -2.13766e-14 -1.57084e-16 0 0 -1.24439e-14 -1.52957e-14 -1.90906e-14 2.04102e-15 0 0 -2.0943e-14 -7.56387e-15 -1.81537e-14 -6.72562e-15 0 0 -2.1419e-14 -1.87403e-14 -2.57998e-15 -1.77755e-14 0 0 -1.70513e-14 -2.95854e-14 6.19509e-16 -1.13332e-14 0 0 -1.89642e-14 -2.38074e-14 -4.58663e-15 3.70856e-15 0 0 -1.6301e-14 -2.13019e-14 -5.67204e-15 8.86225e-15 0 0 -9.94646e-15 -2.57387e-14 -1.17406e-14 6.43416e-15 0 0 -7.92168e-15 -2.40886e-14 -1.97421e-14 -2.37926e-15 0 0 -8.1229e-15 -2.22981e-14 -1.11629e-14 -1.25965e-14 0 0 -2.13199e-16 -2.8878e-14 4.3658e-15 -2.18093e-14 0 0 -5.00349e-15 -2.00673e-14 5.74303e-15 -3.31512e-14 0 0 -1.17939e-14 -1.35548e-14 5.44792e-15 -2.10667e-14 0 0 -2.39899e-14 -4.93362e-16 -5.70053e-15 4.05326e-15 0 0 -1.46204e-14 -9.83645e-15 -3.64145e-16 -1.05105e-14 0 0 -7.49857e-15 -1.43674e-14 -8.14496e-15 -1.82015e-14 0 0 -2.197e-14 -5.63638e-15 -2.10764e-14 -6.67342e-15 0 0 -1.33831e-14 -2.00743e-14 -2.54006e-14 7.26462e-16 0 0 -8.62841e-15 -3.56034e-14 -2.88312e-14 3.75307e-15 0 0 -1.27069e-15 -6.17198e-14 -7.63821e-15 -7.01134e-15 0 0 -9.68797e-15 -5.04642e-14 -1.36673e-14 -1.76789e-14 0 0 -2.06004e-14 -2.72308e-14 -4.31011e-14 -1.12819e-14 0 0 -3.1222e-15 -4.05806e-14 -4.59135e-14 -3.1247e-15 0 0 -1.237e-14 -3.04403e-14 -5.58782e-14 6.64459e-15 0 0 -4.05153e-14 -3.60733e-15 -7.50382e-14 2.32206e-14 0 0 -3.31564e-14 -1.05196e-14 -5.987e-14 6.89498e-15 0 0 -1.64162e-14 -3.65965e-14 -2.46171e-14 -2.74705e-14 0 0 -1.39301e-14 -3.93863e-14 -3.09795e-14 -2.69302e-14 0 0 -1.88115e-14 -2.00296e-14 -6.093e-14 -2.0737e-14 0 0 -2.93244e-14 -9.23421e-15 -6.12333e-14 -2.3708e-14 0 0 -3.76196e-14 -1.50355e-14 -4.3626e-14 -2.46996e-14 0 0 -2.69505e-14 -3.57155e-14 -2.11578e-14 -3.66584e-14 0 0 -1.49154e-14 -2.72871e-14 -2.9662e-14 -1.84783e-14 0 0 -1.33789e-15 -1.88082e-14 -4.26149e-14 -4.60735e-16 0 0 -3.18369e-16 -6.53914e-15 -4.45715e-14 -7.02217e-15 0 0 1.27378e-14 -2.60623e-15 -2.7832e-14 -2.63373e-14 0 0 3.3015e-14 -6.26526e-15 -2.6848e-14 -2.33528e-14 0 0 2.6716e-14 -2.90687e-16 -4.23663e-14 2.2872e-15 0 0 1.13816e-14 -1.11367e-15 -3.98573e-14 2.24363e-14 0 0 3.80049e-15 -2.71099e-15 -3.53123e-14 2.80081e-14 0 0 1.80958e-14 -1.88571e-14 -1.0003e-14 1.37256e-14 0 0 8.89114e-15 -2.80896e-14 1.64139e-14 8.91556e-15 0 0 -6.55653e-15 -9.59948e-15 -8.99693e-15 1.67928e-14 0 0 -2.84627e-15 2.94431e-15 -3.14178e-14 9.26282e-15 0 0 -9.87745e-15 -8.72665e-15 -2.14653e-14 -2.51605e-15 0 0 8.04778e-16 -1.09955e-14 -3.68581e-14 1.85381e-14 0 0 6.82215e-15 -2.50661e-14 -4.74041e-15 1.02075e-14 0 0 -1.48992e-14 -6.25822e-15 8.75485e-15 5.83186e-15 0 0 -4.61882e-15 1.82353e-14 -2.45994e-14 1.95963e-14 0 0 1.76563e-15 -8.31774e-15 -2.97181e-15 6.9003e-15 0 0 3.48629e-15 -5.60552e-15 5.92229e-15 4.29988e-17 0 0 6.82957e-15 -9.04652e-15 1.43095e-15 1.02384e-14 0 0 -3.41214e-14 1.08606e-14 -1.72832e-14 1.05918e-14 0 0 -1.8018e-14 1.08078e-14 -7.62632e-15 -5.92318e-15 0 0 4.32831e-15 -7.05598e-15 1.70134e-14 -2.67877e-14 0 0 -9.0438e-15 -9.92503e-15 -4.30804e-16 -2.62672e-14 0 0 -8.40095e-15 -3.40039e-14 -3.03822e-14 -1.25178e-14 0 0 -1.21247e-14 -3.06485e-14 -3.61874e-14 -1.47329e-14 0 0 -1.78154e-16 -3.82491e-15 -8.05246e-14 9.78622e-15 0 0 1.93611e-15 -2.0712e-15 -6.49666e-14 2.46232e-14 0 0 3.61095e-16 -1.76902e-14 -3.48484e-14 4.40144e-14 0 0 5.47266e-15 -5.69106e-14 2.19267e-16 3.67259e-14 0 0 -1.81449e-14 9.72059e-15 -3.15643e-14 8.0208e-14 0 0 -4.74379e-14 5.21074e-14 -6.49702e-15 4.16756e-14 0 0 -5.22663e-14 4.38559e-14 1.05357e-13 -9.00027e-14 0 0 -9.50156e-14 6.60911e-14 1.11789e-13 -1.01131e-13 0 0 -8.50998e-14 1.82978e-14 6.57735e-14 -4.54988e-14 0 0 -1.6159e-14 -7.77621e-14 -6.59461e-15 4.82581e-14 0 0 -6.20852e-15 -9.65924e-14 -7.57334e-14 3.22486e-14 0 0 -3.50251e-14 -8.99396e-14 -9.38194e-14 -8.89083e-14 0 0 -3.20591e-14 -7.14439e-14 -1.42818e-13 -1.34506e-13 0 0 -8.74147e-15 -7.32295e-14 -2.09112e-13 -5.91767e-14 0 0 3.44374e-14 -1.59367e-13 -1.63091e-13 -7.41037e-14 0 0 1.4641e-14 -1.54889e-13 -1.50717e-13 -1.19949e-13 0 0 -4.33106e-14 -1.10305e-13 -1.00936e-13 -1.01146e-13 0 0 -5.35786e-14 -1.00733e-13 -1.15056e-13 -4.62715e-14 0 0 -4.26212e-14 -7.82545e-14 -1.19382e-13 3.25525e-16 0 0 -3.65919e-14 -7.05125e-14 -1.07193e-14 -2.83429e-14 0 0 -2.48275e-14 -3.20183e-14 -2.12137e-14 -1.47955e-14 0 0 1.6818e-15 -1.26251e-15 -6.13007e-14 4.38001e-15 0 0 1.45931e-14 1.1208e-15 -4.10906e-14 1.95191e-15 0 0 1.47489e-14 -1.54633e-14 -6.79442e-15 -1.75272e-14 0 0 -3.79602e-15 7.29949e-15 -1.56138e-14 -3.68953e-14 0 0 -1.65932e-14 3.72866e-14 -3.83219e-14 -2.65011e-14 0 0 2.50597e-15 2.27304e-14 -3.1592e-14 -1.93611e-14 0 0 4.3902e-15 1.44348e-14 -2.52173e-14 -4.05646e-14 0 0 5.45518e-15 1.15788e-14 -3.85974e-14 -6.01728e-14 0 0 1.01649e-14 1.2955e-15 -2.6017e-14 -7.94759e-14 0 0 -8.65299e-17 3.82913e-15 -3.89729e-14 -7.20273e-14 0 0 -1.86934e-15 -1.16926e-14 -5.05282e-14 -5.23287e-14 0 0 -1.95745e-15 -3.21806e-14 -5.4597e-14 -2.91553e-14 0 0 -1.4768e-14 -5.93625e-15 -9.0603e-14 -3.6945e-15 0 0 -3.11406e-14 -7.90766e-15 -8.12701e-14 8.42598e-16 0 0 -3.26105e-14 -3.53313e-14 -3.48174e-14 -5.27999e-14 0 0 -2.4252e-14 -3.74364e-14 -3.23451e-14 -9.21033e-14 0 0 -2.23332e-14 -3.72872e-14 -7.78367e-14 -6.8191e-14 0 0 -2.91237e-14 -4.14545e-14 -8.23864e-14 -9.73907e-14 0 0 -6.25145e-14 -2.62321e-14 -9.60019e-14 -1.1289e-13 0 0 -5.81022e-14 -7.60834e-14 -6.95481e-14 -9.78766e-14 0 0 -4.58176e-14 -1.40893e-13 -1.62079e-14 -1.09284e-13 0 0 -5.61189e-14 -1.02941e-13 -7.6536e-14 -9.15622e-14 0 0 -3.75789e-14 -6.69686e-14 -1.46548e-13 -6.41197e-14 0 0 -3.41302e-14 -6.65169e-14 -1.48401e-13 -8.97777e-14 0 0 -1.99316e-14 -9.9435e-14 -1.05093e-13 -1.19583e-13 0 0 -1.76939e-14 -1.30799e-13 -6.17863e-14 -9.55814e-14 0 0 -5.14475e-14 -1.06338e-13 -8.41816e-14 -6.96954e-14 0 0 -4.98516e-14 -1.00964e-13 -1.14514e-13 -6.7154e-14 0 0 -5.50149e-14 -8.81016e-14 -1.37154e-13 -6.09907e-14 0 0 -6.94498e-14 -8.42763e-14 -1.35074e-13 -8.75678e-14 0 0 -7.53533e-14 -9.57937e-14 -1.04613e-13 -1.46316e-13 0 0 -7.77543e-14 -1.12563e-13 -7.14001e-14 -1.60734e-13 0 0 -7.64589e-14 -1.00515e-13 -8.71069e-14 -1.57233e-13 0 0 -6.92153e-14 -9.22074e-14 -1.02223e-13 -1.73966e-13 0 0 -4.74395e-14 -1.34961e-13 -6.66008e-14 -1.51244e-13 0 0 -3.33856e-14 -1.43887e-13 -4.45324e-14 -1.85769e-13 0 0 -6.60631e-14 -1.05635e-13 -5.03469e-14 -2.16932e-13 0 0 -1.02386e-13 -5.1607e-14 -1.14181e-13 -1.47498e-13 0 0 -7.91037e-14 -7.23316e-14 -1.36349e-13 -1.287e-13 0 0 -3.54942e-14 -1.69472e-13 -4.21558e-14 -1.98583e-13 0 0 -3.10374e-14 -1.57545e-13 -6.88648e-14 -1.89182e-13 0 0 -3.30901e-14 -1.20768e-13 -1.38781e-13 -1.56678e-13 0 0 -1.70501e-14 -1.57093e-13 -1.09022e-13 -1.54799e-13 0 0 -4.94275e-14 -1.40967e-13 -1.28914e-13 -8.90179e-14 0 0 -6.1343e-14 -1.35131e-13 -1.37139e-13 -6.82624e-14 0 0 -6.53232e-14 -1.23637e-13 -9.59772e-14 -1.18585e-13 0 0 -7.85227e-14 -9.60316e-14 -6.75512e-14 -1.45231e-13 0 0 -6.54642e-14 -8.49147e-14 -6.6401e-14 -1.43112e-13 0 0 -5.29871e-14 -8.07485e-14 -8.50968e-14 -1.20073e-13 0 0 -3.16395e-14 -9.78092e-14 -9.73736e-14 -1.00802e-13 0 0 -5.27758e-14 -7.67978e-14 -1.01674e-13 -1.01072e-13 0 0 -1.04293e-13 -3.40843e-14 -1.01837e-13 -9.64015e-14 0 0 -9.82598e-14 -5.62278e-14 -8.79338e-14 -4.54349e-14 0 0 -5.84522e-14 -9.31056e-14 -9.07131e-14 -1.37282e-14 0 0 -5.59771e-14 -9.56647e-14 -1.10761e-13 -1.29815e-14 0 0 -3.67326e-14 -1.16195e-13 -1.19714e-13 -3.3534e-15 0 0 -2.20586e-14 -1.02773e-13 -1.50072e-13 -3.80784e-14 0 0 -6.78528e-14 -6.06493e-14 -1.74023e-13 -5.96003e-14 0 0 -7.70463e-14 -8.96666e-14 -1.13957e-13 -7.82973e-14 0 0 -6.51486e-14 -1.52697e-13 -3.28304e-14 -9.94799e-14 0 0 -6.9159e-14 -1.64628e-13 -1.79776e-14 -1.07567e-13 0 0 -6.59105e-14 -1.04543e-13 -1.28261e-13 -5.7511e-14 0 0 -7.24134e-14 -6.7987e-14 -1.7764e-13 -2.59306e-14 0 0 -8.63895e-14 -7.38828e-14 -1.46097e-13 -2.26522e-14 0 0 -8.77684e-14 -9.74038e-14 -9.84751e-14 -2.55779e-14 0 0 -7.63431e-14 -1.12783e-13 -3.34302e-14 -6.92569e-14 0 0 -1.07822e-13 -6.57875e-14 -6.48421e-14 -6.32625e-14 0 0 -1.06852e-13 -5.49696e-14 -1.19492e-13 -5.98135e-14 0 0 -6.52029e-14 -1.01268e-13 -9.43452e-14 -9.38502e-14 0 0 -5.7589e-14 -9.95922e-14 -7.35125e-14 -1.09542e-13 0 0 -6.46774e-14 -7.41124e-14 -9.79956e-14 -6.51275e-14 0 0 -6.22454e-14 -7.6283e-14 -8.56165e-14 -5.53934e-14 0 0 -3.82954e-14 -9.41447e-14 -6.77964e-14 -4.28571e-14 0 0 -4.32846e-14 -9.92336e-14 -6.71489e-14 1.32526e-14 0 0 -5.39696e-14 -8.55429e-14 -6.69879e-14 -7.62612e-15 0 0 -5.37249e-14 -7.82622e-14 -5.53495e-14 -3.2854e-14 0 0 -5.70607e-14 -8.58866e-14 -5.62014e-14 -5.5722e-15 0 0 -5.96341e-14 -7.74269e-14 -6.71695e-14 1.32343e-14 0 0 -6.19261e-14 -6.64376e-14 -6.36886e-14 1.24857e-14 0
				</DataArray>
				<DataArray Name="VitesseY" type="Float32" format="ascii">