<?xml version="1.0"?>
<VTKFile type="PolyData">
	<PolyData>
		<Piece NumberOfPoints="1206" NumberOfPolys="1000">
			<Points>
				<DataArray type="Float32" NumberOfComponents="3" format="ascii">
 0 0 0 0.02 0 0 0.04 0 0 0.06 0 0 0.08 0 0 0.1 0 0 0 0.005 0 0.02 0.005 0 0.04 0.005 0 0.06 0.005 0 0.08 0.005 0 0.1 0.005 0 0 0.01 0 0.02 0.01 0 0.04 0.01 0 0.06 0.01 0 0.08 0.01 0 0.1 0.01 0 0 0.015 0 0.02 0.015 0 0.04 0.015 0 0.06 0.015 0 0.08 0.015 0 0.1 0.015 0 0 0.02 0 0.02 0.02 0 0.04 0.02 0 0.06 0.02 0 0.08 0.02 0 0.1 0.02 0 0 0.025 0 0.02 0.025 0 0.04 0.025 0 0.06 0.025 0 0.08 0.025 0 0.1 0.025 0 0 0.03 0 0.02 0.03 0 0.04 0.03 0 0.06 0.03 0 0.08 0.03 0 0.1 0.03 0 0 0.035 0 0.02 0.035 0 0.04 0.035 0 0.06 0.035 0 0.08 0.035 0 0.1 0.035 0 0 0.04 0 0.02 0.04 0 0.04 0.04 0 0.06 0.04 0 0.08 0.04 0 0.1 0.04 0 0 0.045 0 0.02 0.045 0 0.04 0.045 0 0.06 0.045 0 0.08 0.045 0 0.1 0.045 0 0 0.05 0 0.02 0.05 0 0.04 0.05 0 0.06 0.05 0 0.08 0.05 0 0.1 0.05 0 0 0.055 0 0.02 0.055 0 0.04 0.055 0 0.06 0.055 0 0.08 0.055 0 0.1 0.055 0 0 0.06 0 0.02 0.06 0 0.04 0.06 0 0.06 0.06 0 0.08 0.06 0 0.1 0.06 0 0 0.065 0 0.02 0.065 0 0.04 0.065 0 0.06 0.065 0 0.08 0.065 0 0.1 0.065 0 0 0.07 0 0.02 0.07 0 0.04 0.07 0 0.06 0.07 0 0.08 0.07 0 0.1 0.07 0 0 0.075 0 0.02 0.075 0 0.04 0.075 0 0.06 0.075 0 0.08 0.075 0 0.1 0.075 0 0 0.08 0 0.02 0.08 0 0.04 0.08 0 0.06 0.08 0 0.08 0.08 0 0.1 0.08 0 0 0.085 0 0.02 0.085 0 0.04 0.085 0 0.06 0.085 0 0.08 0.085 0 0.1 0.085 0 0 0.09 0 0.02 0.09 0 0.04 0.09 0 0.06 0.09 0 0.08 0.09 0 0.1 0.09 0 0 0.095 0 0.02 0.095 0 0.04 0.095 0 0.06 0.095 0 0.08 0.095 0 0.1 0.095 0 0 0.1 0 0.02 0.1 0 0.04 0.1 0 0.06 0.1 0 0.08 0.1 0 0.1 0.1 0 0 0.105 0 0.02 0.105 0 0.04 0.105 0 0.06 0.105 0 0.08 0.105 0 0.1 0.105 0 0 0.11 0 0.02 0.11 0 0.04 0.11 0 0.06 0.11 0 0.08 0.11 0 0.1 0.11 0 0 0.115 0 0.02 0.115 0 0.04 0.115 0 0.06 0.115 0 0.08 0.115 0 0.1 0.115 0 0 0.12 0 0.02 0.12 0 0.04 0.12 0 0.06 0.12 0 0.08 0.12 0 0.1 0.12 0 0 0.125 0 0.02 0.125 0 0.04 0.125 0 0.06 0.125 0 0.08 0.125 0 0.1 0.125 0 0 0.13 0 0.02 0.13 0 0.04 0.13 0 0.06 0.13 0 0.08 0.13 0 0.1 0.13 0 0 0.135 0 0.02 0.135 0 0.04 0.135 0 0.06 0.135 0 0.08 0.135 0 0.1 0.135 0 0 0.14 0 0.02 0.14 0 0.04 0.14 0 0.06 0.14 0 0.08 0.14 0 0.1 0.14 0 0 0.145 0 0.02 0.145 0 0.04 0.145 0 0.06 0.145 0 0.08 0.145 0 0.1 0.145 0 0 0.15 0 0.02 0.15 0 0.04 0.15 0 0.06 0.15 0 0.08 0.15 0 0.1 0.15 0 0 0.155 0 0.02 0.155 0 0.04 0.155 0 0.06 0.155 0 0.08 0.155 0 0.1 0.155 0 0 0.16 0 0.02 0.16 0 0.04 0.16 0 0.06 0.16 0 0.08 0.16 0 0.1 0.16 0 0 0.165 0 0.02 0.165 0 0.04 0.165 0 0.06 0.165 0 0.08 0.165 0 0.1 0.165 0 0 0.17 0 0.02 0.17 0 0.04 0.17 0 0.06 0.17 0 0.08 0.17 0 0.1 0.17 0 0 0.175 0 0.02 0.175 0 0.04 0.175 0 0.06 0.175 0 0.08 0.175 0 0.1 0.175 0 0 0.18 0 0.02 0.18 0 0.04 0.18 0 0.06 0.18 0 0.08 0.18 0 0.1 0.18 0 0 0.185 0 0.02 0.185 0 0.04 0.185 0 0.06 0.185 0 0.08 0.185 0 0.1 0.185 0 0 0.19 0 0.02 0.19 0 0.04 0.19 0 0.06 0.19 0 0.08 0.19 0 0.1 0.19 0 0 0.195 0 0.02 0.195 0 0.04 0.195 0 0.06 0.195 0 0.08 0.195 0 0.1 0.195 0 0 0.2 0 0.02 0.2 0 0.04 0.2 0 0.06 0.2 0 0.08 0.2 0 0.1 0.2 0 0 0.205 0 0.02 0.205 0 0.04 0.205 0 0.06 0.205 0 0.08 0.205 0 0.1 0.205 0 0 0.21 0 0.02 0.21 0 0.04 0.21 0 0.06 0.21 0 0.08 0.21 0 0.1 0.21 0 0 0.215 0 0.02 0.215 0 0.04 0.215 0 0.06 0.215 0 0.08 0.215 0 0.1 0.215 0 0 0.22 0 0.02 0.22 0 0.04 0.22 0 0.06 0.22 0 0.08 0.22 0 0.1 0.22 0 0 0.225 0 0.02 0.225 0 0.04 0.225 0 0.06 0.225 0 0.08 0.225 0 0.1 0.225 0 0 0.23 0 0.02 0.23 0 0.04 0.23 0 0.06 0.23 0 0.08 0.23 0 0.1 0.23 0 0 0.235 0 0.02 0.235 0 0.04 0.235 0 0.06 0.235 0 0.08 0.235 0 0.1 0.235 0 0 0.24 0 0.02 0.24 0 0.04 0.24 0 0.06 0.24 0 0.08 0.24 0 0.1 0.24 0 0 0.245 0 0.02 0.245 0 0.04 0.245 0 0.06 0.245 0 0.08 0.245 0 0.1 0.245 0 0 0.25 0 0.02 0.25 0 0.04 0.25 0 0.06 0.25 0 0.08 0.25 0 0.1 0.25 0 0 0.255 0 0.02 0.255 0 0.04 0.255 0 0.06 0.255 0 0.08 0.255 0 0.1 0.255 0 0 0.26 0 0.02 0.26 0 0.04 0.26 0 0.06 0.26 0 0.08 0.26 0 0.1 0.26 0 0 0.265 0 0.02 0.265 0 0.04 0.265 0 0.06 0.265 0 0.08 0.265 0 0.1 0.265 0 0 0.27 0 0.02 0.27 0 0.04 0.27 0 0.06 0.27 0 0.08 0.27 0 0.1 0.27 0 0 0.275 0 0.02 0.275 0 0.04 0.275 0 0.06 0.275 0 0.08 0.275 0 0.1 0.275 0 0 0.28 0 0.02 0.28 0 0.04 0.28 0 0.06 0.28 0 0.08 0.28 0 0.1 0.28 0 0 0.285 0 0.02 0.285 0 0.04 0.285 0 0.06 0.285 0 0.08 0.285 0 0.1 0.285 0 0 0.29 0 0.02 0.29 0 0.04 0.29 0 0.06 0.29 0 0.08 0.29 0 0.1 0.29 0 0 0.295 0 0.02 0.295 0 0.04 0.295 0 0.06 0.295 0 0.08 0.295 0 0.1 0.295 0 0 0.3 0 0.02 0.3 0 0.04 0.3 0 0.06 0.3 0 0.08 0.3 0 0.1 0.3 0 0 0.305 0 0.02 0.305 0 0.04 0.305 0 0.06 0.305 0 0.08 0.305 0 0.1 0.305 0 0 0.31 0 0.02 0.31 0 0.04 0.31 0 0.06 0.31 0 0.08 0.31 0 0.1 0.31 0 0 0.315 0 0.02 0.315 0 0.04 0.315 0 0.06 0.315 0 0.08 0.315 0 0.1 0.315 0 0 0.32 0 0.02 0.32 0 0.04 0.32 0 0.06 0.32 0 0.08 0.32 0 0.1 0.32 0 0 0.325 0 0.02 0.325 0 0.04 0.325 0 0.06 0.325 0 0.08 0.325 0 0.1 0.325 0 0 0.33 0 0.02 0.33 0 0.04 0.33 0 0.06 0.33 0 0.08 0.33 0 0.1 0.33 0 0 0.335 0 0.02 0.335 0 0.04 0.335 0 0.06 0.335 0 0.08 0.335 0 0.1 0.335 0 0 0.34 0 0.02 0.34 0 0.04 0.34 0 0.06 0.34 0 0.08 0.34 0 0.1 0.34 0 0 0.345 0 0.02 0.345 0 0.04 0.345 0 0.06 0.345 0 0.08 0.345 0 0.1 0.345 0 0 0.35 0 0.02 0.35 0 0.04 0.35 0 0.06 0.35 0 0.08 0.35 0 0.1 0.35 0 0 0.355 0 0.02 0.355 0 0.04 0.355 0 0.06 0.355 0 0.08 0.355 0 0.1 0.355 0 0 0.36 0 0.02 0.36 0 0.04 0.36 0 0.06 0.36 0 0.08 0.36 0 0.1 0.36 0 0 0.365 0 0.02 0.365 0 0.04 0.365 0 0.06 0.365 0 0.08 0.365 0 0.1 0.365 0 0 0.37 0 0.02 0.37 0 0.04 0.37 0 0.06 0.37 0 0.08 0.37 0 0.1 0.37 0 0 0.375 0 0.02 0.375 0 0.04 0.375 0 0.06 0.375 0 0.08 0.375 0 0.1 0.375 0 0 0.38 0 0.02 0.38 0 0.04 0.38 0 0.06 0.38 0 0.08 0.38 0 0.1 0.38 0 0 0.385 0 0.02 0.385 0 0.04 0.385 0 0.06 0.385 0 0.08 0.385 0 0.1 0.385 0 0 0.39 0 0.02 0.39 0 0.04 0.39 0 0.06 0.39 0 0.08 0.39 0 0.1 0.39 0 0 0.395 0 0.02 0.395 0 0.04 0.395 0 0.06 0.395 0 0.08 0.395 0 0.1 0.395 0 0 0.4 0 0.02 0.4 0 0.04 0.4 0 0.06 0.4 0 0.08 0.4 0 0.1 0.4 0 0 0.405 0 0.02 0.405 0 0.04 0.405 0 0.06 0.405 0 0.08 0.405 0 0.1 0.405 0 0 0.41 0 0.02 0.41 0 0.04 0.41 0 0.06 0.41 0 0.08 0.41 0 0.1 0.41 0 0 0.415 0 0.02 0.415 0 0.04 0.415 0 0.06 0.415 0 0.08 0.415 0 0.1 0.415 0 0 0.42 0 0.02 0.42 0 0.04 0.42 0 0.06 0.42 0 0.08 0.42 0 0.1 0.42 0 0 0.425 0 0.02 0.425 0 0.04 0.425 0 0.06 0.425 0 0.08 0.425 0 0.1 0.425 0 0 0.43 0 0.02 0.43 0 0.04 0.43 0 0.06 0.43 0 0.08 0.43 0 0.1 0.43 0 0 0.435 0 0.02 0.435 0 0.04 0.435 0 0.06 0.435 0 0.08 0.435 0 0.1 0.435 0 0 0.44 0 0.02 0.44 0 0.04 0.44 0 0.06 0.44 0 0.08 0.44 0 0.1 0.44 0 0 0.445 0 0.02 0.445 0 0.04 0.445 0 0.06 0.445 0 0.08 0.445 0 0.1 0.445 0 0 0.450002 0 0.02 0.450002 0 0.04 0.450002 0 0.06 0.450002 0 0.08 0.450002 0 0.1 0.450002 0 0 0.455016 0 0.02 0.455016 0 0.04 0.455016 0 0.06 0.455016 0 0.08 0.455016 0 0.1 0.455016 0 0 0.460081 0 0.02 0.460081 0 0.04 0.460081 0 0.06 0.460081 0 0.08 0.460081 0 0.1 0.460081 0 0 0.465308 0 0.02 0.465308 0 0.04 0.465308 0 0.06 0.465308 0 0.08 0.465308 0 0.1 0.465308 0 0 0.470897 0 0.02 0.470897 0 0.04 0.470897 0 0.06 0.470897 0 0.08 0.470897 0 0.1 0.470897 0 0 0.477108 0 0.02 0.477108 0 0.04 0.477108 0 0.06 0.477108 0 0.08 0.477108 0 0.1 0.477108 0 0 0.484255 0 0.02 0.484255 0 0.04 0.484255 0 0.06 0.484255 0 0.08 0.484255 0 0.1 0.484255 0 0 0.492762 0 0.02 0.492762 0 0.04 0.492762 0 0.06 0.492762 0 0.08 0.492762 0 0.1 0.492762 0 0 0.503225 0 0.02 0.503225 0 0.04 0.503225 0 0.06 0.503225 0 0.08 0.503225 0 0.1 0.503225 0 0 0.515734 0 0.02 0.515734 0 0.04 0.515734 0 0.06 0.515734 0 0.08 0.515734 0 0.1 0.515734 0 0 0.52808 0 0.02 0.52808 0 0.04 0.52808 0 0.06 0.52808 0 0.08 0.52808 0 0.1 0.52808 0 0 0.530749 0 0.02 0.530749 0 0.04 0.530749 0 0.06 0.530749 0 0.08 0.530749 0 0.1 0.530749 0 0 0.533348 0 0.02 0.533348 0 0.04 0.533348 0 0.06 0.533348 0 0.08 0.533348 0 0.1 0.533348 0 0 0.535909 0 0.02 0.535909 0 0.04 0.535909 0 0.06 0.535909 0 0.08 0.535909 0 0.1 0.535909 0 0 0.538443 0 0.02 0.538443 0 0.04 0.538443 0 0.06 0.538443 0 0.08 0.538443 0 0.1 0.538443 0 0 0.540931 0 0.02 0.540931 0 0.04 0.540931 0 0.06 0.540931 0 0.08 0.540931 0 0.1 0.540931 0 0 0.543404 0 0.02 0.543404 0 0.04 0.543404 0 0.06 0.543404 0 0.08 0.543404 0 0.1 0.543404 0 0 0.545913 0 0.02 0.545913 0 0.04 0.545913 0 0.06 0.545913 0 0.08 0.545913 0 0.1 0.545913 0 0 0.548541 0 0.02 0.548541 0 0.04 0.548541 0 0.06 0.548541 0 0.08 0.548541 0 0.1 0.548541 0 0 0.551329 0 0.02 0.551329 0 0.04 0.551329 0 0.06 0.551329 0 0.08 0.551329 0 0.1 0.551329 0 0 0.554392 0 0.02 0.554392 0 0.04 0.554392 0 0.06 0.554392 0 0.08 0.554392 0 0.1 0.554392 0 0 0.557781 0 0.02 0.557781 0 0.04 0.557781 0 0.06 0.557781 0 0.08 0.557781 0 0.1 0.557781 0 0 0.561568 0 0.02 0.561568 0 0.04 0.561568 0 0.06 0.561568 0 0.08 0.561568 0 0.1 0.561568 0 0 0.565759 0 0.02 0.565759 0 0.04 0.565759 0 0.06 0.565759 0 0.08 0.565759 0 0.1 0.565759 0 0 0.570305 0 0.02 0.570305 0 0.04 0.570305 0 0.06 0.570305 0 0.08 0.570305 0 0.1 0.570305 0 0 0.575101 0 0.02 0.575101 0 0.04 0.575101 0 0.06 0.575101 0 0.08 0.575101 0 0.1 0.575101 0 0 0.580028 0 0.02 0.580028 0 0.04 0.580028 0 0.06 0.580028 0 0.08 0.580028 0 0.1 0.580028 0 0 0.585007 0 0.02 0.585007 0 0.04 0.585007 0 0.06 0.585007 0 0.08 0.585007 0 0.1 0.585007 0 0 0.590002 0 0.02 0.590002 0 0.04 0.590002 0 0.06 0.590002 0 0.08 0.590002 0 0.1 0.590002 0 0 0.595 0 0.02 0.595 0 0.04 0.595 0 0.06 0.595 0 0.08 0.595 0 0.1 0.595 0 0 0.6 0 0.02 0.6 0 0.04 0.6 0 0.06 0.6 0 0.08 0.6 0 0.1 0.6 0 0 0.605 0 0.02 0.605 0 0.04 0.605 0 0.06 0.605 0 0.08 0.605 0 0.1 0.605 0 0 0.61 0 0.02 0.61 0 0.04 0.61 0 0.06 0.61 0 0.08 0.61 0 0.1 0.61 0 0 0.615 0 0.02 0.615 0 0.04 0.615 0 0.06 0.615 0 0.08 0.615 0 0.1 0.615 0 0 0.62 0 0.02 0.62 0 0.04 0.62 0 0.06 0.62 0 0.08 0.62 0 0.1 0.62 0 0 0.625 0 0.02 0.625 0 0.04 0.625 0 0.06 0.625 0 0.08 0.625 0 0.1 0.625 0 0 0.63 0 0.02 0.63 0 0.04 0.63 0 0.06 0.63 0 0.08 0.63 0 0.1 0.63 0 0 0.635 0 0.02 0.635 0 0.04 0.635 0 0.06 0.635 0 0.08 0.635 0 0.1 0.635 0 0 0.64 0 0.02 0.64 0 0.04 0.64 0 0.06 0.64 0 0.08 0.64 0 0.1 0.64 0 0 0.645 0 0.02 0.645 0 0.04 0.645 0 0.06 0.645 0 0.08 0.645 0 0.1 0.645 0 0 0.65 0 0.02 0.6
[...]
			<PointData Scalars="VitesseX">
				<DataArray Name="VitesseX" type="Float32" format="ascii">
 0 5.18959e-16 -1.345e-15 -9.51623e-16 -1.82002e-15 0 0 4.95654e-16 -1.40048e-15 -1.19283e-15 -1.81729e-15 0 0 2.78052e-16 -1.40637e-15 -1.50858e-15 -1.94494e-15 0 0 -7.69976e-17 -6.12532e-16 -2.91369e-15 -1.80815e-15 0 0 -8.33877e-16 2.6686e-16 -3.69049e-15 -1.84606e-15 0 0 -1.89719e-15 5.79222e-16 -1.78286e-15 -3.90969e-15 0 0 -1.82835e-15 6.62705e-16 -1.00234e-15 -4.78887e-15 0 0 1.0299e-15 -2.23251e-15 1.05907e-16 -5.10688e-15 0 0 7.24058e-16 -2.54821e-15 1.07923e-15 -5.86524e-15 0 0 -2.28658e-15 3.91725e-16 5.22416e-16 -6.8281e-15 0 0 -2.19881e-15 1.4528e-15 -1.73234e-15 -6.56257e-15 0 0 9.45244e-16 -2.16029e-15 -8.11574e-16 -6.15698e-15 0 0 1.56575e-15 -4.18185e-15 1.15836e-15 -6.76438e-15 0 0 -3.08399e-15 -3.40091e-16 -5.31779e-16 -6.10361e-15 0 0 -2.74152e-15 -8.51686e-17 -3.30339e-15 -2.80555e-15 0 0 8.96521e-16 -5.17762e-15 -1.41873e-16 -4.03294e-15 0 0 -1.2479e-15 -3.44371e-15 1.50428e-15 -1.04674e-14 0 0 -1.46291e-15 7.93241e-16 -5.60227e-15 -9.48803e-15 0 0 -2.55835e-16 -1.44917e-15 -7.05662e-15 -8.14687e-15 0 0 3.8461e-16 -4.56883e-15 -6.13895e-15 -9.50374e-15 0 0 1.10094e-15 -2.70506e-15 -1.05681e-14 -1.22538e-14 0 0 -2.26693e-15 2.69788e-15 -1.34491e-14 -1.6151e-14 0 0 -4.15487e-15 1.03739e-15 -9.34048e-15 -1.31036e-14 0 0 -1.78352e-15 -5.0457e-15 -3.47206e-15 -7.46535e-15 0 0 -6.184e-17 -5.50504e-15 -3.05396e-15 1.69949e-15 0 0 -7.66781e-15 2.68891e-15 -7.91675e-15 9.98415e-15 0 0 -9.14258e-15 -1.3049e-15 -1.52784e-15 7.44179e-15 0 0 -4.67808e-15 -9.07366e-15 5.35451e-15 7.49175e-15 0 0 -9.53317e-15 -7.7017e-15 4.38785e-15 1.09753e-14 0 0 -1.11869e-14 -2.22199e-15 -2.53767e-15 1.25241e-14 0 0 -8.19948e-15 -3.4518e-15 -1.25654e-15 8.31194e-15 0 0 -9.92382e-15 -6.66643e-15 3.53269e-15 4.09095e-15 0 0 -1.31159e-14 -3.50785e-15 3.38795e-15 6.26724e-15 0 0 -1.3982e-14 -6.87016e-15 8.27442e-15 1.01453e-14 0 0 -9.45468e-15 -9.46247e-15 5.50945e-15 1.14369e-14 0 0 -9.7657e-15 -3.66662e-15 -5.1142e-15 3.88108e-15 0 0 -1.09323e-14 -4.3953e-15 -7.83652e-15 -6.87172e-15 0 0 -9.94681e-15 -1.05752e-14 -3.09102e-15 -1.58781e-14 0 0 -1.15655e-14 -1.58173e-14 -4.17421e-16 -1.8124e-14 0 0 -1.22454e-14 -1.97354e-14 -2.85862e-15 -1.1026e-14 0 0 -1.53644e-14 -1.05144e-14 -1.48492e-14 -3.62348e-15 0 0 -1.31157e-14 -4.03827e-15 -2.65531e-14 4.22597e-15 0 0 -7.85702e-15 -1.53195e-14 -2.02023e-14 -2.27923e-15 0 0 -9.19318e-15 -2.28173e-14 -8.08442e-15 -1.79727e-14 0 0 -1.15378e-14 -1.82572e-14 -1.06456e-14 -1.9341e-14 0 0 -4.83622e-15 -2.35872e-14 -9.26332e-15 -1.84463e-14 0 0 -8.33098e-15 -1.41306e-14 -1.74407e-14 -1.39813e-14 0 0 -9.93057e-15 -9.51396e-15 -1.85709e-14 -2.09143e-14 0 0 -8.38029e-15 -1.85154e-14 -4.73788e-15 -3.22818e-14 0 0 -1.24441e-14 -1.81764e-14 -4.71075e-15 -1.47977e-14 0 0 -2.19371e-14 -6.08638e-15 -1.5713e-14 5.66632e-15 0 0 -2.11695e-14 -6.9466e-15 -1.61501e-14 8.8013e-15 0 0 -1.10836e-14 -2.31663e-14 -4.11792e-15 4.19233e-15 0 0 -2.12514e-14 -1.01412e-14 -4.31738e-15 -3.24572e-15 0 0 -2.10462e-14 -1.14835e-14 -6.28168e-15 -3.34733e-15 0 0 -1.17364e-14 -2.94228e-14 -1.08428e-15 4.67237e-15 0 0 -1.36006e-14 -2.3618e-14 -4.87953e-16 7.92933e-15 0 0 -1.94714e-14 -2.11746e-14 2.7306e-15 3.0368e-15 0 0 -2.04938e-14 -1.35123e-14 -1.11197e-14 4.30155e-15 0 0 -2.56728e-14 -1.0193e-14 -2.95751e-14 2.66651e-14 0 0 -3.08947e-14 -2.3678e-14 -1.61094e-14 3.00058e-14 0 0 -3.1076e-14 -1.72217e-14 -3.1759e-15 5.03354e-15 0 0 -2.70053e-14 -1.13694e-14 -2.77122e-15 -1.13032e-14 0 0 -2.04543e-14 -1.58383e-14 -4.31803e-15 -1.36653e-14 0 0 -2.71256e-14 -1.5492e-14 -1.34049e-14 -2.30556e-15 0 0 -3.79759e-14 -1.34321e-14 -1.49197e-14 1.04109e-15 0 0 -3.08389e-14 -3.29327e-14 4.42705e-15 -6.02191e-15 0 0 -2.687e-14 -4.12972e-14 8.44723e-15 -5.47551e-15 0 0 -2.97776e-14 -2.37612e-14 -1.07447e-14 -1.17825e-14 0 0 -2.57713e-14 -1.59079e-14 -2.84593e-14 -1.72018e-14 0 0 -2.34652e-14 -3.58444e-14 -2.18426e-14 -9.97906e-15 0 0 -1.92274e-14 -4.70022e-14 -1.64139e-14 -4.32936e-15 0 0 -2.39809e-14 -4.41471e-14 -1.5667e-14 2.39615e-15 0 0 -3.04168e-14 -5.27365e-14 -1.10424e-14 6.38949e-15 0 0 -3.06878e-14 -4.56853e-14 -2.18102e-14 3.40088e-15 0 0 -2.9908e-14 -4.61883e-14 -1.38336e-14 -1.35931e-14 0 0 -3.20644e-14 -3.83506e-14 -2.02225e-14 -1.2634e-14 0 0 -2.42701e-14 -4.2956e-14 -2.21466e-14 -6.60626e-16 0 0 -4.19714e-14 -3.89803e-14 -1.05231e-14 2.00655e-15 0 0 -4.37973e-14 -3.60467e-14 -4.65734e-15 -2.12459e-15 0 0 -3.47659e-14 -4.08311e-14 1.02589e-14 -2.05981e-14 0 0 -3.97455e-14 -3.02281e-14 1.02298e-14 -4.59048e-14 0 0 -1.53133e-14 -2.80041e-14 -9.27219e-15 -5.84764e-14 0 0 -7.22768e-15 -1.8051e-14 -2.864e-14 -4.49868e-14 0 0 -1.97603e-14 -9.53252e-15 -2.64218e-14 -2.50488e-14 0 0 -1.54023e-14 -2.47646e-14 3.50055e-15 -2.09712e-14 0 0 -3.71372e-15 -2.58915e-14 8.66835e-15 -2.193e-14 0 0 -8.46685e-15 -8.24493e-15 -4.1751e-15 -5.0042e-15 0 0 2.92879e-15 -1.15807e-14 -1.22123e-14 -7.3218e-15 0 0 -5.90866e-15 5.16261e-15 -3.24364e-14 -5.77438e-15 0 0 -1.5474e-14 -1.04691e-14 -1.7104e-14 -2.10197e-16 0 0 1.64177e-15 -2.58766e-14 3.61832e-15 -1.51986e-14 0 0 -7.66637e-15 -4.05436e-15 -2.92119e-15 -1.40759e-14 0 0 -1.36117e-14 6.08236e-15 -1.00176e-14 -5.38589e-16 0 0 -1.31648e-14 2.07291e-15 -3.31036e-15 1.65133e-15 0 0 1.1522e-14 -1.37747e-14 1.74246e-14 -5.0086e-15 0 0 5.98279e-15 -7.42897e-15 1.16515e-14 -3.35073e-16 0 0 -7.43713e-15 -1.33667e-15 -3.10002e-15 -7.57156e-15 0 0 -5.58506e-15 -4.10406e-15 5.44842e-15 -2.3896e-14 0 0 -3.72315e-15 -8.24144e-15 3.75077e-15 -7.40934e-15 0 0 1.27219e-15 -6.86485e-15 8.79895e-15 7.27754e-15 0 0 -1.71331e-15 -1.87796e-14 -1.34328e-14 -3.11697e-15 0 0 -1.13529e-14 -1.05145e-14 -1.16322e-14 -4.4947e-14 0 0 -9.64116e-15 -4.16672e-14 -7.34695e-15 -2.02534e-14 0 0 2.70329e-15 -5.97967e-14 -2.4837e-14 -3.09269e-15 0 0 -1.69947e-14 -7.81714e-14 -6.94228e-14 -4.12565e-14 0 0 -2.52295e-14 -8.33177e-14 -4.49751e-14 -4.92302e-14 0 0 -7.48601e-14 -1.47937e-13 -1.14018e-13 -1.26205e-13 0 0 -6.05875e-14 -1.07416e-13 -1.35809e-13 -4.23246e-14 0 0 -5.428e-14 -7.16175e-14 -1.2207e-13 -1.35642e-14 0 0 -5.16728e-14 -9.89752e-14 -7.6626e-14 -8.23616e-14 0 0 -1.59415e-14 -7.79928e-15 -9.67474e-15 -2.06323e-14 0 0 -3.42016e-14 9.74753e-15 -5.2326e-14 -1.31303e-14 0 0 -7.93008e-15 -2.07296e-14 4.92078e-15 1.22309e-14 0 0 1.67133e-16 -3.15998e-14 6.22549e-16 2.99463e-14 0 0 2.79631e-15 -9.55279e-15 -1.56766e-14 1.38717e-14 0 0 4.949e-16 4.43674e-16 -1.33978e-14 1.50663e-15 0 0 -1.42297e-14 1.27654e-14 -1.73224e-14 2.35978e-15 0 0 -1.4552e-14 6.37929e-15 -1.51418e-15 -9.78358e-15 0 0 -9.42447e-15 -8.16155e-15 9.46462e-15 -1.63165e-14 0 0 -1.54697e-14 -1.24776e-14 -3.45955e-15 1.24329e-15 0 0 -1.24291e-14 -1.35311e-14 -1.79997e-14 2.79657e-15 0 0 -1.92117e-14 7.13795e-15 -3.35171e-14 -3.76916e-15 0 0 -1.55096e-14 6.82112e-15 -3.18866e-14 1.34896e-14 0 0 -2.02722e-14 -9.01914e-15 -2.47044e-14 2.24292e-14 0 0 -2.1837e-14 -1.43438e-14 -3.39104e-14 3.06929e-14 0 0 -1.03321e-14 -2.50366e-14 -1.98793e-14 9.42247e-15 0 0 -3.17697e-14 -6.63737e-15 -4.13246e-14 -6.04279e-16 0 0 -3.65431e-14 -2.10106e-14 -2.94388e-14 -2.28408e-15 0 0 -3.28775e-14 -4.25963e-14 -1.86845e-14 -2.99451e-15 0 0 -4.59271e-14 -4.6182e-14 -3.8907e-14 1.21111e-14 0 0 -5.7627e-14 -4.72401e-14 -2.60769e-14 9.26859e-15 0 0 -4.95478e-14 -4.32558e-14 -3.096e-14 -8.67012e-15 0 0 -4.28035e-14 -4.11972e-14 -3.56567e-14 -4.57031e-14 0 0 -4.72048e-14 -5.97023e-14 -3.35076e-14 -7.88692e-14 0 0 -4.13763e-14 -8.36027e-14 -5.3039e-14 -4.10758e-14 0 0 -5.04134e-14 -9.37538e-14 -5.13239e-14 1.05768e-14 0 0 -5.48088e-14 -8.65667e-14 -3.72126e-14 3.2142e-15 0 0 -6.17243e-14 -7.13917e-14 -4.14311e-14 1.54223e-14 0 0 -5.85667e-14 -9.38463e-14 -4.5404e-14 3.91523e-14 0 0 -4.98821e-14 -9.65035e-14 -2.82335e-14 -4.44069e-15 0 0 -5.08449e-14 -8.3538e-14 -2.90606e-15 -4.58578e-14 0 0 -4.42693e-14 -6.30495e-14 -4.66053e-14 -1.09483e-15 0 0 -4.80056e-14 -6.87715e-14 -4.07516e-14 -2.85416e-15 0 0 -6.02432e-14 -8.53145e-14 1.084e-14 -6.65526e-14 0 0 -5.14359e-14 -7.61736e-14 -1.9511e-14 -6.72592e-14 0 0 -5.04796e-14 -5.48995e-14 -8.65667e-14 -2.22148e-14 0 0 -6.21718e-14 -3.84032e-14 -1.05757e-13 -1.24826e-14 0 0 -5.86456e-14 -6.78656e-14 -3.87673e-14 -6.88492e-14 0 0 -8.22128e-14 -6.81541e-14 -1.07094e-14 -7.73055e-14 0 0 -7.13322e-14 -6.81739e-14 -4.67764e-14 -3.8925e-14 0 0 -5.29304e-14 -9.18368e-14 -4.54297e-14 -2.23066e-14 0 0 -4.73154e-14 -1.13092e-13 -3.81207e-14 -1.41429e-15 0 0 -5.3235e-14 -1.10481e-13 -6.16756e-14 2.2709e-14 0 0 -6.10233e-14 -1.03562e-13 -6.88476e-14 1.24658e-14 0 0 -5.26017e-14 -1.17008e-13 -3.53783e-14 -4.91354e-14 0 0 -6.274e-14 -9.1662e-14 -5.26455e-14 -6.83921e-14 0 0 -7.26904e-14 -4.96666e-14 -1.04763e-13 -3.05922e-14 0 0 -6.3282e-14 -4.84932e-14 -1.20334e-13 -3.97442e-15 0 0 -4.58641e-14 -8.56736e-14 -1.02324e-13 -3.14157e-14 0 0 -4.24039e-14 -1.00158e-13 -7.41042e-14 -4.30181e-14 0 0 -7.00941e-14 -5.92353e-14 -1.13201e-13 -1.61777e-14 0 0 -7.5652e-14 -5.3287e-14 -1.41465e-13 3.12111e-14 0 0 -5.22912e-14 -7.16256e-14 -9.90548e-14 3.77611e-14 0 0 -6.45335e-14 -7.13079e-14 -6.8406e-14 -1.14748e-14 0 0 -7.98472e-14 -7.92407e-14 -8.28927e-14 -1.67038e-14 0 0 -7.74866e-14 -7.95639e-14 -1.07026e-13 -1.51867e-14 0 0 -6.80134e-14 -9.60401e-14 -7.46071e-14 -4.06391e-14 0 0 -5.55694e-14 -1.17326e-13 -6.52673e-14 -1.92234e-14 0 0 -5.89277e-14 -1.15919e-13 -8.23036e-14 3.37154e-14 0 0 -6.80241e-14 -1.2744e-13 -2.97609e-14 -7.05834e-15 0 0 -6.44008e-14 -1.03143e-13 -4.16531e-14 -2.24283e-14 0 0 -6.30634e-14 -7.20903e-14 -1.03346e-13 2.23262e-14 0 0 -5.30946e-14 -1.10972e-13 -9.28719e-14 1.64535e-14 0 0 -6.81874e-14 -1.20345e-13 -6.30361e-14 -9.53821e-15 0 0 -9.29958e-14 -8.44311e-14 -6.57227e-14 -3.20521e-14 0 0 -7.88226e-14 -8.64619e-14 -8.80133e-14 -3.49718e-14 0 0 -6.14541e-14 -1.08316e-13 -6.93573e-14 -1.49705e-14 0 0 -8.71866e-14 -8.04009e-14 -5.74975e-14 4.36119e-16 0 0 -8.81318e-14 -7.32156e-14 -6.94992e-14 1.49558e-14 0 0 -9.07509e-14 -8.05257e-14 -7.64556e-14 9.20954e-15 0 0 -9.24632e-14 -9.16791e-14 -7.85655e-14 4.13829e-15 0 0 -7.54642e-14 -8.43986e-14 -1.09018e-13 3.2592e-14 0 0 -9.02623e-14 -8.83284e-14 -8.79307e-14 3.00554e-14 0 0 -1.01146e-13 -1.00124e-13 -6.14796e-14 1.39323e-14 0 0 -1.14922e-13 -9.34384e-14 -7.62313e-14 2.50718e-14 0 0 -1.01663e-13 -1.15529e-13 -4.09541e-14 -1.72057e-14 0 0 -7.84089e-14 -9.23963e-14 -6.00834e-14 -1.49178e-14 0 0 -7.68473e-14 -7.46832e-14 -7.30958e-14 -9.80822e-15 0 0 -6.41777e-14 -8.00025e-14 -6.27974e-14 -1.10566e-14 0 0 -6.71341e-14 -5.79366e-14 -6.17543e-14 1.50314e-14 0 0 -7.88774e-14 -8.25014e-14 -2.86052e-14 1.14593e-14 0 0 -7.18504e-14 -8.63135e-14 -5.47344e-14 3.97146e-14 0 0 -7.21781e-14 -4.73218e-14 -9.07998e-14 4.4098e-14 0 0 -6.09861e-14 -6.50154e-14 -3.60074e-14 -5.24114e-15 0 0 -5.84077e-14 -6.9021e-14 -1.49271e-14 -3.92905e-15 0 0 -6.47875e-14 -6.72169e-14 -1.43959e-14 6.63566e-15 0 0 -6.87769e-14 -4.68409e-14 -4.87646e-14 -1.12586e-14 0 0 -5.33219e-14 -3.62356e-14 -1.03288e-13 -1.17242e-14 0 0 -3.83332e-14 -7.70499e-14 -5.03956e-14 -7.82211e-14 0 0 -5.09762e-14 -9.05872e-14 -6.04095e-15 -1.28431e-13 0
				</DataArray>
				<DataArray Name="VitesseY" type="Float32" format="ascii">