<?xml version="1.0"?>
<VTKFile type="PolyData">
	<PolyData>
		<Piece NumberOfPoints="1206" NumberOfPolys="1000">
			<Points>
				<DataArray type="Float32" NumberOfComponents="3" format="ascii">
 0 0 0 0.02 0 0 0.04 0 0 0.06 0 0 0.08 0 0 0.1 0 0 0 0.005 0 0.02 0.005 0 0.04 0.005 0 0.06 0.005 0 0.08 0.005 0 0.1 0.005 0 0 0.01 0 0.02 0.01 0 0.04 0.01 0 0.06 0.01 0 0.08 0.01 0 0.1 0.01 0 0 0.015 0 0.02 0.015 0 0.04 0.015 0 0.06 0.015 0 0.08 0.015 0 0.1 0.015 0 0 0.02 0 0.02 0.02 0 0.04 0.02 0 0.06 0.02 0 0.08 0.02 0 0.1 0.02 0 0 0.025 0 0.02 0.025 0 0.04 0.025 0 0.06 0.025 0 0.08 0.025 0 0.1 0.025 0 0 0.03 0 0.02 0.03 0 0.04 0.03 0 0.06 0.03 0 0.08 0.03 0 0.1 0.03 0 0 0.035 0 0.02 0.035 0 0.04 0.035 0 0.06 0.035 0 0.08 0.035 0 0.1 0.035 0 0 0.04 0 0.02 0.04 0 0.04 0.04 0 0.06 0.04 0 0.08 0.04 0 0.1 0.04 0 0 0.045 0 0.02 0.045 0 0.04 0.045 0 0.06 0.045 0 0.08 0.045 0 0.1 0.045 0 0 0.05 0 0.02 0.05 0 0.04 0.05 0 0.06 0.05 0 0.08 0.05 0 0.1 0.05 0 0 0.055 0 0.02 0.055 0 0.04 0.055 0 0.06 0.055 0 0.08 0.055 0 0.1 0.055 0 0 0.06 0 0.02 0.06 0 0.04 0.06 0 0.06 0.06 0 0.08 0.06 0 0.1 0.06 0 0 0.065 0 0.02 0.065 0 0.04 0.065 0 0.06 0.065 0 0.08 0.065 0 0.1 0.065 0 0 0.07 0 0.02 0.07 0 0.04 0.07 0 0.06 0.07 0 0.08 0.07 0 0.1 0.07 0 0 0.075 0 0.02 0.075 0 0.04 0.075 0 0.06 0.075 0 0.08 0.075 0 0.1 0.075 0 0 0.08 0 0.02 0.08 0 0.04 0.08 0 0.06 0.08 0 0.08 0.08 0 0.1 0.08 0 0 0.085 0 0.02 0.085 0 0.04 0.085 0 0.06 0.085 0 0.08 0.085 0 0.1 0.085 0 0 0.09 0 0.02 0.09 0 0.04 0.09 0 0.06 0.09 0 0.08 0.09 0 0.1 0.09 0 0 0.095 0 0.02 0.095 0 0.04 0.095 0 0.06 0.095 0 0.08 0.095 0 0.1 0.095 0 0 0.1 0 0.02 0.1 0 0.04 0.1 0 0.06 0.1 0 0.08 0.1 0 0.1 0.1 0 0 0.105 0 0.02 0.105 0 0.04 0.105 0 0.06 0.105 0 0.08 0.105 0 0.1 0.105 0 0 0.11 0 0.02 0.11 0 0.04 0.11 0 0.06 0.11 0 0.08 0.11 0 0.1 0.11 0 0 0.115 0 0.02 0.115 0 0.04 0.115 0 0.06 0.115 0 0.08 0.115 0 0.1 0.115 0 0 0.12 0 0.02 0.12 0 0.04 0.12 0 0.06 0.12 0 0.08 0.12 0 0.1 0.12 0 0 0.125 0 0.02 0.125 0 0.04 0.125 0 0.06 0.125 0 0.08 0.125 0 0.1 0.125 0 0 0.13 0 0.02 0.13 0 0.04 0.13 0 0.06 0.13 0 0.08 0.13 0 0.1 0.13 0 0 0.135 0 0.02 0.135 0 0.04 0.135 0 0.06 0.135 0 0.08 0.135 0 0.1 0.135 0 0 0.14 0 0.02 0.14 0 0.04 0.14 0 0.06 0.14 0 0.08 0.14 0 0.1 0.14 0 0 0.145 0 0.02 0.145 0 0.04 0.145 0 0.06 0.145 0 0.08 0.145 0 0.1 0.145 0 0 0.15 0 0.02 0.15 0 0.04 0.15 0 0.06 0.15 0 0.08 0.15 0 0.1 0.15 0 0 0.155 0 0.02 0.155 0 0.04 0.155 0 0.06 0.155 0 0.08 0.155 0 0.1 0.155 0 0 0.16 0 0.02 0.16 0 0.04 0.16 0 0.06 0.16 0 0.08 0.16 0 0.1 0.16 0 0 0.165 0 0.02 0.165 0 0.04 0.165 0 0.06 0.165 0 0.08 0.165 0 0.1 0.165 0 0 0.17 0 0.02 0.17 0 0.04 0.17 0 0.06 0.17 0 0.08 0.17 0 0.1 0.17 0 0 0.175 0 0.02 0.175 0 0.04 0.175 0 0.06 0.175 0 0.08 0.175 0 0.1 0.175 0 0 0.18 0 0.02 0.18 0 0.04 0.18 0 0.06 0.18 0 0.08 0.18 0 0.1 0.18 0 0 0.185 0 0.02 0.185 0 0.04 0.185 0 0.06 0.185 0 0.08 0.185 0 0.1 0.185 0 0 0.19 0 0.02 0.19 0 0.04 0.19 0 0.06 0.19 0 0.08 0.19 0 0.1 0.19 0 0 0.195 0 0.02 0.195 0 0.04 0.195 0 0.06 0.195 0 0.08 0.195 0 0.1 0.195 0 0 0.2 0 0.02 0.2 0 0.04 0.2 0 0.06 0.2 0 0.08 0.2 0 0.1 0.2 0 0 0.205 0 0.02 0.205 0 0.04 0.205 0 0.06 0.205 0 0.08 0.205 0 0.1 0.205 0 0 0.21 0 0.02 0.21 0 0.04 0.21 0 0.06 0.21 0 0.08 0.21 0 0.1 0.21 0 0 0.215 0 0.02 0.215 0 0.04 0.215 0 0.06 0.215 0 0.08 0.215 0 0.1 0.215 0 0 0.22 0 0.02 0.22 0 0.04 0.22 0 0.06 0.22 0 0.08 0.22 0 0.1 0.22 0 0 0.225 0 0.02 0.225 0 0.04 0.225 0 0.06 0.225 0 0.08 0.225 0 0.1 0.225 0 0 0.23 0 0.02 0.23 0 0.04 0.23 0 0.06 0.23 0 0.08 0.23 0 0.1 0.23 0 0 0.235 0 0.02 0.235 0 0.04 0.235 0 0.06 0.235 0 0.08 0.235 0 0.1 0.235 0 0 0.24 0 0.02 0.24 0 0.04 0.24 0 0.06 0.24 0 0.08 0.24 0 0.1 0.24 0 0 0.245 0 0.02 0.245 0 0.04 0.245 0 0.06 0.245 0 0.08 0.245 0 0.1 0.245 0 0 0.25 0 0.02 0.25 0 0.04 0.25 0 0.06 0.25 0 0.08 0.25 0 0.1 0.25 0 0 0.255 0 0.02 0.255 0 0.04 0.255 0 0.06 0.255 0 0.08 0.255 0 0.1 0.255 0 0 0.26 0 0.02 0.26 0 0.04 0.26 0 0.06 0.26 0 0.08 0.26 0 0.1 0.26 0 0 0.265 0 0.02 0.265 0 0.04 0.265 0 0.06 0.265 0 0.08 0.265 0 0.1 0.265 0 0 0.27 0 0.02 0.27 0 0.04 0.27 0 0.06 0.27 0 0.08 0.27 0 0.1 0.27 0 0 0.275 0 0.02 0.275 0 0.04 0.275 0 0.06 0.275 0 0.08 0.275 0 0.1 0.275 0 0 0.28 0 0.02 0.28 0 0.04 0.28 0 0.06 0.28 0 0.08 0.28 0 0.1 0.28 0 0 0.285 0 0.02 0.285 0 0.04 0.285 0 0.06 0.285 0 0.08 0.285 0 0.1 0.285 0 0 0.29 0 0.02 0.29 0 0.04 0.29 0 0.06 0.29 0 0.08 0.29 0 0.1 0.29 0 0 0.295 0 0.02 0.295 0 0.04 0.295 0 0.06 0.295 0 0.08 0.295 0 0.1 0.295 0 0 0.3 0 0.02 0.3 0 0.04 0.3 0 0.06 0.3 0 0.08 0.3 0 0.1 0.3 0 0 0.305 0 0.02 0.305 0 0.04 0.305 0 0.06 0.305 0 0.08 0.305 0 0.1 0.305 0 0 0.31 0 0.02 0.31 0 0.04 0.31 0 0.06 0.31 0 0.08 0.31 0 0.1 0.31 0 0 0.315 0 0.02 0.315 0 0.04 0.315 0 0.06 0.315 0 0.08 0.315 0 0.1 0.315 0 0 0.32 0 0.02 0.32 0 0.04 0.32 0 0.06 0.32 0 0.08 0.32 0 0.1 0.32 0 0 0.325 0 0.02 0.325 0 0.04 0.325 0 0.06 0.325 0 0.08 0.325 0 0.1 0.325 0 0 0.33 0 0.02 0.33 0 0.04 0.33 0 0.06 0.33 0 0.08 0.33 0 0.1 0.33 0 0 0.335 0 0.02 0.335 0 0.04 0.335 0 0.06 0.335 0 0.08 0.335 0 0.1 0.335 0 0 0.34 0 0.02 0.34 0 0.04 0.34 0 0.06 0.34 0 0.08 0.34 0 0.1 0.34 0 0 0.345 0 0.02 0.345 0 0.04 0.345 0 0.06 0.345 0 0.08 0.345 0 0.1 0.345 0 0 0.35 0 0.02 0.35 0 0.04 0.35 0 0.06 0.35 0 0.08 0.35 0 0.1 0.35 0 0 0.355 0 0.02 0.355 0 0.04 0.355 0 0.06 0.355 0 0.08 0.355 0 0.1 0.355 0 0 0.36 0 0.02 0.36 0 0.04 0.36 0 0.06 0.36 0 0.08 0.36 0 0.1 0.36 0 0 0.365 0 0.02 0.365 0 0.04 0.365 0 0.06 0.365 0 0.08 0.365 0 0.1 0.365 0 0 0.37 0 0.02 0.37 0 0.04 0.37 0 0.06 0.37 0 0.08 0.37 0 0.1 0.37 0 0 0.375 0 0.02 0.375 0 0.04 0.375 0 0.06 0.375 0 0.08 0.375 0 0.1 0.375 0 0 0.38 0 0.02 0.38 0 0.04 0.38 0 0.06 0.38 0 0.08 0.38 0 0.1 0.38 0 0 0.385 0 0.02 0.385 0 0.04 0.385 0 0.06 0.385 0 0.08 0.385 0 0.1 0.385 0 0 0.39 0 0.02 0.39 0 0.04 0.39 0 0.06 0.39 0 0.08 0.39 0 0.1 0.39 0 0 0.395 0 0.02 0.395 0 0.04 0.395 0 0.06 0.395 0 0.08 0.395 0 0.1 0.395 0 0 0.4 0 0.02 0.4 0 0.04 0.4 0 0.06 0.4 0 0.08 0.4 0 0.1 0.4 0 0 0.405 0 0.02 0.405 0 0.04 0.405 0 0.06 0.405 0 0.08 0.405 0 0.1 0.405 0 0 0.41 0 0.02 0.41 0 0.04 0.41 0 0.06 0.41 0 0.08 0.41 0 0.1 0.41 0 0 0.415 0 0.02 0.415 0 0.04 0.415 0 0.06 0.415 0 0.08 0.415 0 0.1 0.415 0 0 0.42 0 0.02 0.42 0 0.04 0.42 0 0.06 0.42 0 0.08 0.42 0 0.1 0.42 0 0 0.425 0 0.02 0.425 0 0.04 0.425 0 0.06 0.425 0 0.08 0.425 0 0.1 0.425 0 0 0.43 0 0.02 0.43 0 0.04 0.43 0 0.06 0.43 0 0.08 0.43 0 0.1 0.43 0 0 0.435002 0 0.02 0.435002 0 0.04 0.435002 0 0.06 0.435002 0 0.08 0.435002 0 0.1 0.435002 0 0 0.440009 0 0.02 0.440009 0 0.04 0.440009 0 0.06 0.440009 0 0.08 0.440009 0 0.1 0.440009 0 0 0.445043 0 0.02 0.445043 0 0.04 0.445043 0 0.06 0.445043 0 0.08 0.445043 0 0.1 0.445043 0 0 0.45016 0 0.02 0.45016 0 0.04 0.45016 0 0.06 0.45016 0 0.08 0.45016 0 0.1 0.45016 0 0 0.455468 0 0.02 0.455468 0 0.04 0.455468 0 0.06 0.455468 0 0.08 0.455468 0 0.1 0.455468 0 0 0.461116 0 0.02 0.461116 0 0.04 0.461116 0 0.06 0.461116 0 0.08 0.461116 0 0.1 0.461116 0 0 0.467264 0 0.02 0.467264 0 0.04 0.467264 0 0.06 0.467264 0 0.08 0.467264 0 0.1 0.467264 0 0 0.474086 0 0.02 0.474086 0 0.04 0.474086 0 0.06 0.474086 0 0.08 0.474086 0 0.1 0.474086 0 0 0.481798 0 0.02 0.481798 0 0.04 0.481798 0 0.06 0.481798 0 0.08 0.481798 0 0.1 0.481798 0 0 0.490694 0 0.02 0.490694 0 0.04 0.490694 0 0.06 0.490694 0 0.08 0.490694 0 0.1 0.490694 0 0 0.501154 0 0.02 0.501154 0 0.04 0.501154 0 0.06 0.501154 0 0.08 0.501154 0 0.1 0.501154 0 0 0.513312 0 0.02 0.513312 0 0.04 0.513312 0 0.06 0.513312 0 0.08 0.513312 0 0.1 0.513312 0 0 0.525767 0 0.02 0.525767 0 0.04 0.525767 0 0.06 0.525767 0 0.08 0.525767 0 0.1 0.525767 0 0 0.537777 0 0.02 0.537777 0 0.04 0.537777 0 0.06 0.537777 0 0.08 0.537777 0 0.1 0.537777 0 0 0.540411 0 0.02 0.540411 0 0.04 0.540411 0 0.06 0.540411 0 0.08 0.540411 0 0.1 0.540411 0 0 0.54297 0 0.02 0.54297 0 0.04 0.54297 0 0.06 0.54297 0 0.08 0.54297 0 0.1 0.54297 0 0 0.545482 0 0.02 0.545482 0 0.04 0.545482 0 0.06 0.545482 0 0.08 0.545482 0 0.1 0.545482 0 0 0.547964 0 0.02 0.547964 0 0.04 0.547964 0 0.06 0.547964 0 0.08 0.547964 0 0.1 0.547964 0 0 0.550426 0 0.02 0.550426 0 0.04 0.550426 0 0.06 0.550426 0 0.08 0.550426 0 0.1 0.550426 0 0 0.552875 0 0.02 0.552875 0 0.04 0.552875 0 0.06 0.552875 0 0.08 0.552875 0 0.1 0.552875 0 0 0.555321 0 0.02 0.555321 0 0.04 0.555321 0 0.06 0.555321 0 0.08 0.555321 0 0.1 0.555321 0 0 0.557771 0 0.02 0.557771 0 0.04 0.557771 0 0.06 0.557771 0 0.08 0.557771 0 0.1 0.557771 0 0 0.56025 0 0.02 0.56025 0 0.04 0.56025 0 0.06 0.56025 0 0.08 0.56025 0 0.1 0.56025 0 0 0.56277 0 0.02 0.56277 0 0.04 0.56277 0 0.06 0.56277 0 0.08 0.56277 0 0.1 0.56277 0 0 0.565396 0 0.02 0.565396 0 0.04 0.565396 0 0.06 0.565396 0 0.08 0.565396 0 0.1 0.565396 0 0 0.568114 0 0.02 0.568114 0 0.04 0.568114 0 0.06 0.568114 0 0.08 0.568114 0 0.1 0.568114 0 0 0.571036 0 0.02 0.571036 0 0.04 0.571036 0 0.06 0.571036 0 0.08 0.571036 0 0.1 0.571036 0 0 0.574165 0 0.02 0.574165 0 0.04 0.574165 0 0.06 0.574165 0 0.08 0.574165 0 0.1 0.574165 0 0 0.577644 0 0.02 0.577644 0 0.04 0.577644 0 0.06 0.577644 0 0.08 0.577644 0 0.1 0.577644 0 0 0.58149 0 0.02 0.58149 0 0.04 0.58149 0 0.06 0.58149 0 0.08 0.58149 0 0.1 0.58149 0 0 0.585731 0 0.02 0.585731 0 0.04 0.585731 0 0.06 0.585731 0 0.08 0.585731 0 0.1 0.585731 0 0 0.590304 0 0.02 0.590304 0 0.04 0.590304 0 0.06 0.590304 0 0.08 0.590304 0 0.1 0.590304 0 0 0.595107 0 0.02 0.595107 0 0.04 0.595107 0 0.06 0.595107 0 0.08 0.595107 0 0.1 0.595107 0 0 0.600033 0 0.02 0.600033 0 0.04 0.600033 0 0.06 0.600033 0 0.08 0.600033 0 0.1 0.600033 0 0 0.605009 0 0.02 0.605009 0 0.04 0.605009 0 0.06 0.605009 0 0.08 0.605009 0 0.1 0.605009 0 0 0.610003 0 0.02 0.610003 0 0.04 0.610003 0 0.06 0.610003 0 0.08 0.610003 0 0.1 0.610003 0 0 0.615001 0 0.02 0.615001 0 0.04 0.615001 0 0.06 0.615001 0 0.08 0.615001 0 0.1 0.615001 0 0 0.62 0 0.02 0.62 0 0.04 0.62 0 0.06 0.62 0 0.08 0.62 0 0.1 0.62 0 0 0.625 0 0.02 0.625 0 0.04 0.625 0 0.06 0.625 0 0.08 0.625 0 0.1 0.625 0 0 0.63 0 0.02 0.63 0 0.04 0.63 0 0.06 0.63 0 0.08 0.63 0 0.1 0.63 0 0 0.635 0 0.02 0.635 0 0.04 0.635 0 0.06 0.635 0 0.08 0.635 0 0.1 0.635 0 0 0.64 0 0.02 0
[...]
			<PointData Scalars="VitesseX">
				<DataArray Name="VitesseX" type="Float32" format="ascii">
 0 1.82144e-16 -1.50233e-15 -3.44465e-15 -3.68398e-15 0 0 3.57769e-16 -1.83805e-15 -3.21856e-15 -3.55417e-15 0 0 4.78525e-16 -1.86656e-15 -2.84238e-15 -3.60745e-15 0 0 -5.2618e-16 -5.46955e-16 -3.20714e-15 -3.50151e-15 0 0 -2.07399e-15 1.03779e-15 -2.70752e-15 -4.66513e-15 0 0 -1.82787e-15 2.67399e-16 -1.49793e-15 -6.15421e-15 0 0 -8.08416e-16 -2.34729e-16 -2.87955e-15 -5.81589e-15 0 0 5.53648e-16 -1.69662e-15 -2.09173e-15 -6.42277e-15 0 0 4.81212e-17 -3.36142e-15 1.80698e-15 -8.59291e-15 0 0 -1.17914e-15 -1.16478e-15 9.22394e-16 -8.24337e-15 0 0 -6.03665e-16 8.62335e-16 -1.79291e-15 -6.49717e-15 0 0 2.35018e-15 -2.06734e-15 -1.73501e-15 -6.65555e-15 0 0 2.35376e-15 -2.39094e-15 -1.6186e-15 -9.66741e-15 0 0 1.8767e-16 -4.11481e-15 2.12036e-15 -1.30097e-14 0 0 -4.01443e-15 -1.3162e-15 -2.49016e-15 -1.03683e-14 0 0 -4.42734e-15 -1.64675e-15 -9.79675e-15 -6.27329e-15 0 0 -1.7208e-15 -1.20126e-14 -3.47406e-15 -9.95138e-15 0 0 -6.14785e-15 -9.06348e-15 -2.79102e-15 -1.32117e-14 0 0 -4.70976e-15 -9.96334e-15 -4.08404e-15 -1.12315e-14 0 0 -2.74778e-15 -1.33232e-14 -3.07195e-15 -1.02248e-14 0 0 -5.11175e-15 -1.05428e-14 -7.60953e-15 -9.07206e-15 0 0 -3.45282e-15 -1.18447e-14 -9.74597e-15 -1.07617e-14 0 0 -1.86414e-15 -1.16021e-14 -9.43516e-15 -1.47436e-14 0 0 -3.02004e-15 -8.29932e-15 -9.96591e-15 -1.18232e-14 0 0 -4.1977e-15 -5.22116e-15 -1.26637e-14 -9.52183e-15 0 0 -7.48796e-15 -2.98364e-15 -1.23332e-14 -9.74713e-15 0 0 -4.02925e-15 -4.50738e-15 -1.23496e-14 -2.47632e-15 0 0 -1.21741e-15 -2.32111e-15 -1.30576e-14 4.13764e-15 0 0 -5.79649e-15 2.03554e-15 -9.23546e-15 7.83843e-15 0 0 -8.36509e-15 -1.39513e-15 -5.69105e-15 1.32388e-14 0 0 -6.08894e-15 -7.63422e-15 -3.24524e-15 1.08088e-14 0 0 -1.00379e-14 -4.07205e-15 -5.13903e-15 3.51324e-15 0 0 -1.05224e-14 -2.46481e-15 -1.04259e-14 -5.21161e-16 0 0 -7.47466e-16 -1.12856e-14 -1.20829e-14 -9.64846e-15 0 0 -5.77409e-15 -8.68647e-15 -1.86115e-14 -1.54342e-14 0 0 -1.2955e-14 -7.14577e-15 -1.82732e-14 -2.32833e-14 0 0 -1.29067e-14 -1.15866e-14 -2.18419e-14 -1.2234e-14 0 0 -1.20151e-14 -1.97535e-14 -2.0384e-14 3.21074e-15 0 0 -1.28064e-14 -2.54117e-14 -7.93929e-15 -4.86553e-15 0 0 -1.88218e-14 -1.84404e-14 -5.46443e-15 -1.15984e-14 0 0 -2.38514e-14 -9.83516e-15 -8.40242e-15 -1.29993e-14 0 0 -2.09261e-14 -1.45125e-14 -7.51443e-15 -1.0469e-14 0 0 -1.3852e-14 -1.85101e-14 -1.47646e-14 -2.54159e-15 0 0 -1.04667e-14 -1.8785e-14 -1.81528e-14 -8.78284e-15 0 0 -1.66772e-14 -1.76263e-14 -1.32621e-14 -1.07291e-14 0 0 -2.23202e-14 -1.04058e-14 -1.72973e-14 -5.77995e-15 0 0 -2.17944e-14 -1.16516e-14 -1.50368e-14 -8.62849e-15 0 0 -1.95219e-14 -2.00816e-14 -9.18544e-15 3.26939e-16 0 0 -1.6714e-14 -1.94618e-14 -1.66864e-14 7.48855e-15 0 0 -8.44203e-15 -2.12135e-14 -2.5003e-14 2.36588e-15 0 0 -1.57963e-14 -8.67345e-15 -3.39112e-14 -1.41248e-15 0 0 -1.6822e-14 -6.64271e-15 -3.28981e-14 5.61791e-15 0 0 -6.67435e-15 -2.27186e-14 -9.54901e-15 4.10065e-15 0 0 -1.38969e-14 -1.3425e-14 -2.52406e-15 -2.29223e-15 0 0 -1.36494e-14 -1.34614e-14 -1.58032e-15 3.0588e-15 0 0 -9.99831e-15 -1.42313e-14 -8.541e-16 3.60127e-15 0 0 -1.57996e-14 -5.60211e-15 -1.28229e-14 1.13804e-14 0 0 -1.7351e-14 -1.76872e-14 -4.37998e-15 1.43537e-14 0 0 -1.76621e-14 -1.97748e-14 3.54979e-15 5.40132e-15 0 0 -2.54095e-14 -2.95206e-16 -1.09877e-14 7.10776e-15 0 0 -2.83286e-14 -4.46965e-15 -8.5015e-15 -5.41739e-15 0 0 -3.00414e-14 -2.62149e-14 -1.02956e-14 2.00182e-15 0 0 -1.96637e-14 -4.71519e-14 -1.8702e-14 1.01754e-14 0 0 -1.97124e-14 -4.03681e-14 -2.31412e-14 1.37996e-15 0 0 -2.94139e-14 -2.34367e-14 -3.27999e-14 1.15621e-16 0 0 -2.15734e-14 -2.93477e-14 -2.86811e-14 -1.06479e-14 0 0 -1.87077e-14 -3.1389e-14 -1.37216e-14 -3.35922e-14 0 0 -2.47264e-14 -2.55348e-14 -2.13296e-14 -3.43623e-14 0 0 -3.08929e-14 -2.10879e-14 -3.25935e-14 -2.63839e-14 0 0 -4.05644e-14 -1.46413e-14 -3.04451e-14 -2.08107e-14 0 0 -3.46042e-14 -3.21265e-14 -2.01533e-14 -2.73376e-15 0 0 -2.59395e-14 -4.27252e-14 -2.05059e-14 2.00426e-15 0 0 -2.49648e-14 -4.14588e-14 -3.15833e-14 -2.37477e-15 0 0 -2.7232e-14 -3.99343e-14 -4.56104e-14 6.16057e-15 0 0 -3.53834e-14 -3.75568e-14 -4.76064e-14 -8.64502e-16 0 0 -3.8428e-14 -4.48596e-14 -3.90705e-14 -4.76725e-15 0 0 -3.54489e-14 -5.00003e-14 -2.08066e-14 -1.21044e-14 0 0 -3.00659e-14 -3.74553e-14 -2.3437e-14 -2.69153e-14 0 0 -1.91485e-14 -2.3157e-14 -5.01766e-14 -1.86096e-14 0 0 -9.15416e-15 -1.83927e-14 -5.23421e-14 -1.17709e-14 0 0 2.18348e-15 -1.28745e-14 -4.99532e-14 8.40968e-15 0 0 9.91655e-15 -1.03599e-14 -4.76433e-14 2.12814e-14 0 0 -2.83035e-15 -1.0218e-14 -2.10318e-14 2.84655e-15 0 0 -1.69275e-14 -1.47012e-14 8.85381e-15 -2.26445e-14 0 0 -5.95356e-15 -1.5083e-14 -3.49036e-15 -3.45563e-14 0 0 6.34594e-15 -1.62008e-14 -1.56809e-14 -2.63765e-14 0 0 -1.86102e-15 -2.08824e-14 -1.94513e-14 2.56384e-15 0 0 -3.86165e-15 -1.71017e-14 -2.53584e-14 1.26957e-14 0 0 -2.02361e-14 -8.71557e-15 -4.94079e-15 4.3884e-15 0 0 -1.39342e-14 -5.63696e-15 -1.26345e-14 6.08393e-15 0 0 1.0398e-14 1.14991e-15 -3.22891e-14 5.91296e-15 0 0 6.12997e-17 -7.17206e-15 -1.19781e-14 -4.53641e-15 0 0 -8.11973e-15 -1.05739e-14 5.17449e-15 -1.56705e-14 0 0 -2.63288e-14 9.65389e-15 5.24575e-15 -1.63261e-14 0 0 -2.82808e-17 1.4176e-15 4.2758e-15 6.51323e-15 0 0 -2.35029e-15 -1.37155e-15 7.5446e-15 1.0929e-14 0 0 -1.74708e-14 -2.00112e-15 3.38182e-15 -5.79376e-15 0 0 -4.5527e-16 -6.33848e-15 3.16143e-15 -1.2472e-14 0 0 -5.92104e-15 -1.06315e-14 2.2357e-14 -3.27697e-14 0 0 -8.25929e-15 -1.96508e-14 4.86206e-15 -2.25811e-14 0 0 -1.74456e-14 -1.64305e-14 -2.22391e-14 -2.78557e-15 0 0 -6.87234e-14 -7.67488e-14 -9.35887e-14 -2.22185e-14 0 0 -5.33712e-14 -7.84873e-14 -9.88456e-14 -5.85662e-14 0 0 -3.97788e-14 -9.31432e-14 -8.10127e-14 -6.46707e-14 0 0 -3.2069e-14 -8.05409e-14 -1.29528e-13 -3.7535e-15 0 0 -1.37346e-14 -5.58864e-14 -1.27564e-13 -2.61122e-15 0 0 2.36439e-14 -4.35959e-14 -5.86282e-14 -8.43272e-14 0 0 1.57878e-14 3.93716e-14 -8.08774e-14 -1.15654e-13 0 0 2.3112e-14 3.47133e-14 -8.57683e-14 -4.31279e-14 0 0 3.28805e-14 -2.92657e-14 -1.1878e-13 8.28105e-14 0 0 -2.8079e-14 -8.60308e-14 -9.45577e-14 8.80344e-14 0 0 -1.01319e-13 -9.78078e-14 -3.12189e-14 -2.24667e-14 0 0 -1.21859e-13 -5.28341e-14 -1.45102e-14 -1.22276e-13 0 0 -1.06289e-13 -9.50032e-14 -2.51761e-14 -1.6309e-13 0 0 -1.04845e-13 -1.1685e-13 -1.03549e-13 -8.45365e-14 0 0 -9.23941e-14 -1.12699e-13 -7.99401e-14 -8.08289e-14 0 0 -5.77619e-14 -8.36522e-14 -7.71548e-14 -2.67173e-14 0 0 -4.5201e-14 -2.08371e-14 -8.11508e-14 4.64625e-15 0 0 -3.01655e-14 -1.66413e-14 1.26905e-14 -3.06771e-14 0 0 -6.25212e-15 -2.27376e-14 -5.10682e-16 -2.13996e-15 0 0 -4.30544e-15 -3.19168e-15 -1.40101e-14 -2.80126e-15 0 0 -9.44978e-15 2.72195e-15 -6.98448e-15 -1.20286e-14 0 0 -4.10704e-15 3.39901e-15 -2.00907e-14 -1.08816e-15 0 0 2.0227e-15 -4.65023e-15 -2.08187e-14 -1.17939e-14 0 0 -1.85544e-15 -8.72926e-15 -2.55339e-14 -1.3379e-14 0 0 8.31748e-15 -1.60443e-14 -1.33226e-14 -2.24358e-14 0 0 -4.56004e-15 1.80887e-15 -2.61605e-14 -1.12391e-14 0 0 -1.99946e-14 2.04283e-14 -4.18228e-14 -1.27712e-14 0 0 -2.24033e-14 1.00173e-14 -2.07683e-14 -1.92312e-14 0 0 -2.61755e-14 5.07196e-15 -2.01883e-14 -2.77679e-14 0 0 -1.85222e-14 -3.87133e-15 -2.37333e-14 -6.57622e-14 0 0 -2.12747e-14 -7.49888e-15 -5.62889e-14 -3.19991e-14 0 0 -3.3386e-14 -1.56423e-14 -9.32492e-14 -2.55621e-14 0 0 -4.72535e-14 -4.41973e-14 -5.28747e-14 -5.63671e-14 0 0 -3.87891e-14 -6.04109e-14 -5.18086e-14 -4.86891e-14 0 0 -3.92056e-14 -5.55568e-14 -1.06174e-13 -2.30778e-14 0 0 -4.72877e-14 -9.10986e-14 -6.87152e-14 -3.37873e-14 0 0 -5.08679e-14 -1.22925e-13 -2.42913e-14 -3.51649e-14 0 0 -6.18451e-14 -1.14873e-13 -4.89034e-14 1.25745e-14 0 0 -7.78873e-14 -8.41661e-14 -5.5545e-14 1.34712e-14 0 0 -8.06777e-14 -7.59778e-14 -5.0301e-14 -7.65455e-15 0 0 -5.20055e-14 -9.46872e-14 -3.58512e-14 -7.01025e-14 0 0 -4.8461e-14 -6.57787e-14 -3.7594e-14 -1.23155e-13 0 0 -4.9376e-14 -5.7681e-14 -6.72388e-14 -1.05629e-13 0 0 -4.7198e-14 -7.94813e-14 -7.65477e-14 -8.9694e-14 0 0 -5.11423e-14 -6.6641e-14 -9.7995e-14 -7.14688e-14 0 0 -3.53847e-14 -8.69738e-14 -8.48762e-14 -7.18081e-14 0 0 -5.35755e-14 -8.62745e-14 -5.19646e-14 -1.07516e-13 0 0 -7.08123e-14 -6.21529e-14 -6.16662e-14 -1.01375e-13 0 0 -6.61857e-14 -7.04848e-14 -6.40023e-14 -6.53511e-14 0 0 -7.49862e-14 -7.25485e-14 -6.11425e-14 -3.5528e-14 0 0 -6.28737e-14 -1.10954e-13 -4.57554e-14 -4.76326e-14 0 0 -5.37827e-14 -1.3346e-13 -3.72542e-14 -7.41953e-14 0 0 -6.47587e-14 -1.37512e-13 -4.97529e-14 -4.01169e-14 0 0 -7.55741e-14 -1.27403e-13 -6.47211e-14 -2.79291e-14 0 0 -6.76713e-14 -1.18271e-13 -6.53965e-14 -4.35406e-14 0 0 -6.28736e-14 -1.17896e-13 -4.84895e-14 -8.85594e-14 0 0 -7.27864e-14 -1.08195e-13 -3.36074e-14 -1.1008e-13 0 0 -7.06936e-14 -8.05218e-14 -9.15278e-14 -7.56815e-14 0 0 -6.28515e-14 -9.27334e-14 -1.00791e-13 -9.20087e-14 0 0 -5.26796e-14 -1.43849e-13 -3.84354e-14 -1.14199e-13 0 0 -5.44227e-14 -1.24182e-13 -9.11297e-14 -9.5953e-14 0 0 -6.74852e-14 -9.10821e-14 -1.52151e-13 -7.7726e-14 0 0 -5.17455e-14 -1.31823e-13 -1.11884e-13 -1.02364e-13 0 0 -3.51507e-14 -1.47652e-13 -1.09691e-13 -9.0542e-14 0 0 -3.72755e-14 -1.18041e-13 -1.49794e-13 -1.95508e-14 0 0 -5.70441e-14 -1.11035e-13 -1.35543e-13 1.92608e-15 0 0 -9.40899e-14 -9.72134e-14 -1.11548e-13 -2.24355e-14 0 0 -9.50855e-14 -1.05952e-13 -7.73688e-14 -5.34184e-14 0 0 -8.92822e-14 -8.87564e-14 -7.00237e-14 -5.76203e-14 0 0 -6.16334e-14 -9.07251e-14 -6.74905e-14 -3.69531e-14 0 0 -4.02517e-14 -1.16587e-13 -6.57299e-14 6.71449e-15 0 0 -5.05869e-14 -9.45825e-14 -9.40517e-14 1.64832e-14 0 0 -7.67894e-14 -7.83962e-14 -9.98533e-14 3.29044e-15 0 0 -9.25586e-14 -9.0467e-14 -8.55565e-14 -3.69878e-14 0 0 -8.26705e-14 -1.10098e-13 -8.21847e-14 -4.45444e-14 0 0 -8.71312e-14 -7.0112e-14 -1.03142e-13 -3.21443e-14 0 0 -6.74054e-14 -7.46751e-14 -9.46376e-14 -6.27665e-14 0 0 -6.01323e-14 -1.36149e-13 -7.72113e-14 -4.19032e-14 0 0 -8.82084e-14 -1.14445e-13 -8.84037e-14 -1.39213e-14 0 0 -7.58756e-14 -1.00889e-13 -1.0187e-13 4.96895e-15 0 0 -5.77627e-14 -1.38698e-13 -9.53407e-14 4.49232e-15 0 0 -9.58558e-14 -1.37205e-13 -9.29572e-14 1.20709e-14 0 0 -9.00901e-14 -1.52747e-13 -7.59538e-14 3.80508e-14 0 0 -8.23011e-14 -1.3215e-13 -6.45461e-14 1.85122e-14 0 0 -8.58852e-14 -8.53229e-14 -1.04616e-13 -4.80291e-15 0 0 -7.42813e-14 -8.61277e-14 -1.19283e-13 -1.18676e-14 0 0 -1.06024e-13 -8.22262e-14 -7.22654e-14 -4.99534e-14 0 0 -1.04471e-13 -8.93349e-14 -4.47238e-14 -5.53786e-14 0 0 -1.05513e-13 -6.55792e-14 -5.97034e-14 -3.80709e-14 0 0 -8.38122e-14 -8.91282e-14 -1.98229e-14 -7.52152e-14 0 0 -5.49335e-14 -1.14318e-13 2.35572e-15 -9.53089e-14 0 0 -8.33979e-14 -6.71235e-14 -5.34167e-14 -4.35263e-14 0 0 -8.85494e-14 -6.41245e-14 -6.16889e-14 -1.58988e-14 0 0 -7.52278e-14 -6.31901e-14 -5.32804e-14 -2.98286e-14 0 0 -4.87132e-14 -6.39744e-14 -6.10542e-14 -3.12676e-14 0 0 -3.46658e-14 -9.24312e-14 -5.08729e-14 -2.148e-14 0 0 -5.32065e-14 -9.09164e-14 -4.6522e-14 -3.68341e-14 0 0 -9.14874e-14 -4.8224e-14 -5.22798e-14 -5.32764e-14 0 0 -8.84261e-14 -4.17928e-14 -5.76103e-14 -5.73469e-14 0 0 -5.87046e-14 -6.61344e-14 -5.76481e-14 -6.80077e-14 0
				</DataArray>
				<DataArray Name="VitesseY" type="Float32" format="ascii">