<?xml version="1.0"?>
<VTKFile type="PolyData">
	<PolyData>
		<Piece NumberOfPoints="1206" NumberOfPolys="1000">
			<Points>
				<DataArray type="Float32" NumberOfComponents="3" format="ascii">
 0 0 0 0.02 0 0 0.04 0 0 0.06 0 0 0.08 0 0 0.1 0 0 0 0.005 0 0.02 0.005 0 0.04 0.005 0 0.06 0.005 0 0.08 0.005 0 0.1 0.005 0 0 0.01 0 0.02 0.01 0 0.04 0.01 0 0.06 0.01 0 0.08 0.01 0 0.1 0.01 0 0 0.015 0 0.02 0.015 0 0.04 0.015 0 0.06 0.015 0 0.08 0.015 0 0.1 0.015 0 0 0.02 0 0.02 0.02 0 0.04 0.02 0 0.06 0.02 0 0.08 0.02 0 0.1 0.02 0 0 0.025 0 0.02 0.025 0 0.04 0.025 0 0.06 0.025 0 0.08 0.025 0 0.1 0.025 0 0 0.03 0 0.02 0.03 0 0.04 0.03 0 0.06 0.03 0 0.08 0.03 0 0.1 0.03 0 0 0.035 0 0.02 0.035 0 0.04 0.035 0 0.06 0.035 0 0.08 0.035 0 0.1 0.035 0 0 0.04 0 0.02 0.04 0 0.04 0.04 0 0.06 0.04 0 0.08 0.04 0 0.1 0.04 0 0 0.045 0 0.02 0.045 0 0.04 0.045 0 0.06 0.045 0 0.08 0.045 0 0.1 0.045 0 0 0.05 0 0.02 0.05 0 0.04 0.05 0 0.06 0.05 0 0.08 0.05 0 0.1 0.05 0 0 0.055 0 0.02 0.055 0 0.04 0.055 0 0.06 0.055 0 0.08 0.055 0 0.1 0.055 0 0 0.06 0 0.02 0.06 0 0.04 0.06 0 0.06 0.06 0 0.08 0.06 0 0.1 0.06 0 0 0.065 0 0.02 0.065 0 0.04 0.065 0 0.06 0.065 0 0.08 0.065 0 0.1 0.065 0 0 0.07 0 0.02 0.07 0 0.04 0.07 0 0.06 0.07 0 0.08 0.07 0 0.1 0.07 0 0 0.075 0 0.02 0.075 0 0.04 0.075 0 0.06 0.075 0 0.08 0.075 0 0.1 0.075 0 0 0.08 0 0.02 0.08 0 0.04 0.08 0 0.06 0.08 0 0.08 0.08 0 0.1 0.08 0 0 0.085 0 0.02 0.085 0 0.04 0.085 0 0.06 0.085 0 0.08 0.085 0 0.1 0.085 0 0 0.09 0 0.02 0.09 0 0.04 0.09 0 0.06 0.09 0 0.08 0.09 0 0.1 0.09 0 0 0.095 0 0.02 0.095 0 0.04 0.095 0 0.06 0.095 0 0.08 0.095 0 0.1 0.095 0 0 0.1 0 0.02 0.1 0 0.04 0.1 0 0.06 0.1 0 0.08 0.1 0 0.1 0.1 0 0 0.105 0 0.02 0.105 0 0.04 0.105 0 0.06 0.105 0 0.08 0.105 0 0.1 0.105 0 0 0.11 0 0.02 0.11 0 0.04 0.11 0 0.06 0.11 0 0.08 0.11 0 0.1 0.11 0 0 0.115 0 0.02 0.115 0 0.04 0.115 0 0.06 0.115 0 0.08 0.115 0 0.1 0.115 0 0 0.12 0 0.02 0.12 0 0.04 0.12 0 0.06 0.12 0 0.08 0.12 0 0.1 0.12 0 0 0.125 0 0.02 0.125 0 0.04 0.125 0 0.06 0.125 0 0.08 0.125 0 0.1 0.125 0 0 0.13 0 0.02 0.13 0 0.04 0.13 0 0.06 0.13 0 0.08 0.13 0 0.1 0.13 0 0 0.135 0 0.02 0.135 0 0.04 0.135 0 0.06 0.135 0 0.08 0.135 0 0.1 0.135 0 0 0.14 0 0.02 0.14 0 0.04 0.14 0 0.06 0.14 0 0.08 0.14 0 0.1 0.14 0 0 0.145 0 0.02 0.145 0 0.04 0.145 0 0.06 0.145 0 0.08 0.145 0 0.1 0.145 0 0 0.15 0 0.02 0.15 0 0.04 0.15 0 0.06 0.15 0 0.08 0.15 0 0.1 0.15 0 0 0.155 0 0.02 0.155 0 0.04 0.155 0 0.06 0.155 0 0.08 0.155 0 0.1 0.155 0 0 0.16 0 0.02 0.16 0 0.04 0.16 0 0.06 0.16 0 0.08 0.16 0 0.1 0.16 0 0 0.165 0 0.02 0.165 0 0.04 0.165 0 0.06 0.165 0 0.08 0.165 0 0.1 0.165 0 0 0.17 0 0.02 0.17 0 0.04 0.17 0 0.06 0.17 0 0.08 0.17 0 0.1 0.17 0 0 0.175 0 0.02 0.175 0 0.04 0.175 0 0.06 0.175 0 0.08 0.175 0 0.1 0.175 0 0 0.18 0 0.02 0.18 0 0.04 0.18 0 0.06 0.18 0 0.08 0.18 0 0.1 0.18 0 0 0.185 0 0.02 0.185 0 0.04 0.185 0 0.06 0.185 0 0.08 0.185 0 0.1 0.185 0 0 0.19 0 0.02 0.19 0 0.04 0.19 0 0.06 0.19 0 0.08 0.19 0 0.1 0.19 0 0 0.195 0 0.02 0.195 0 0.04 0.195 0 0.06 0.195 0 0.08 0.195 0 0.1 0.195 0 0 0.2 0 0.02 0.2 0 0.04 0.2 0 0.06 0.2 0 0.08 0.2 0 0.1 0.2 0 0 0.205 0 0.02 0.205 0 0.04 0.205 0 0.06 0.205 0 0.08 0.205 0 0.1 0.205 0 0 0.21 0 0.02 0.21 0 0.04 0.21 0 0.06 0.21 0 0.08 0.21 0 0.1 0.21 0 0 0.215 0 0.02 0.215 0 0.04 0.215 0 0.06 0.215 0 0.08 0.215 0 0.1 0.215 0 0 0.22 0 0.02 0.22 0 0.04 0.22 0 0.06 0.22 0 0.08 0.22 0 0.1 0.22 0 0 0.225 0 0.02 0.225 0 0.04 0.225 0 0.06 0.225 0 0.08 0.225 0 0.1 0.225 0 0 0.23 0 0.02 0.23 0 0.04 0.23 0 0.06 0.23 0 0.08 0.23 0 0.1 0.23 0 0 0.235 0 0.02 0.235 0 0.04 0.235 0 0.06 0.235 0 0.08 0.235 0 0.1 0.235 0 0 0.24 0 0.02 0.24 0 0.04 0.24 0 0.06 0.24 0 0.08 0.24 0 0.1 0.24 0 0 0.245 0 0.02 0.245 0 0.04 0.245 0 0.06 0.245 0 0.08 0.245 0 0.1 0.245 0 0 0.25 0 0.02 0.25 0 0.04 0.25 0 0.06 0.25 0 0.08 0.25 0 0.1 0.25 0 0 0.255 0 0.02 0.255 0 0.04 0.255 0 0.06 0.255 0 0.08 0.255 0 0.1 0.255 0 0 0.26 0 0.02 0.26 0 0.04 0.26 0 0.06 0.26 0 0.08 0.26 0 0.1 0.26 0 0 0.265 0 0.02 0.265 0 0.04 0.265 0 0.06 0.265 0 0.08 0.265 0 0.1 0.265 0 0 0.27 0 0.02 0.27 0 0.04 0.27 0 0.06 0.27 0 0.08 0.27 0 0.1 0.27 0 0 0.275 0 0.02 0.275 0 0.04 0.275 0 0.06 0.275 0 0.08 0.275 0 0.1 0.275 0 0 0.28 0 0.02 0.28 0 0.04 0.28 0 0.06 0.28 0 0.08 0.28 0 0.1 0.28 0 0 0.285 0 0.02 0.285 0 0.04 0.285 0 0.06 0.285 0 0.08 0.285 0 0.1 0.285 0 0 0.29 0 0.02 0.29 0 0.04 0.29 0 0.06 0.29 0 0.08 0.29 0 0.1 0.29 0 0 0.295 0 0.02 0.295 0 0.04 0.295 0 0.06 0.295 0 0.08 0.295 0 0.1 0.295 0 0 0.300001 0 0.02 0.300001 0 0.04 0.300001 0 0.06 0.300001 0 0.08 0.300001 0 0.1 0.300001 0 0 0.305002 0 0.02 0.305002 0 0.04 0.305002 0 0.06 0.305002 0 0.08 0.305002 0 0.1 0.305002 0 0 0.310006 0 0.02 0.310006 0 0.04 0.310006 0 0.06 0.310006 0 0.08 0.310006 0 0.1 0.310006 0 0 0.315017 0 0.02 0.315017 0 0.04 0.315017 0 0.06 0.315017 0 0.08 0.315017 0 0.1 0.315017 0 0 0.320044 0 0.02 0.320044 0 0.04 0.320044 0 0.06 0.320044 0 0.08 0.320044 0 0.1 0.320044 0 0 0.325101 0 0.02 0.325101 0 0.04 0.325101 0 0.06 0.325101 0 0.08 0.325101 0 0.1 0.325101 0 0 0.330207 0 0.02 0.330207 0 0.04 0.330207 0 0.06 0.330207 0 0.08 0.330207 0 0.1 0.330207 0 0 0.335386 0 0.02 0.335386 0 0.04 0.335386 0 0.06 0.335386 0 0.08 0.335386 0 0.1 0.335386 0 0 0.34066 0 0.02 0.34066 0 0.04 0.34066 0 0.06 0.34066 0 0.08 0.34066 0 0.1 0.34066 0 0 0.346048 0 0.02 0.346048 0 0.04 0.346048 0 0.06 0.346048 0 0.08 0.346048 0 0.1 0.346048 0 0 0.351565 0 0.02 0.351565 0 0.04 0.351565 0 0.06 0.351565 0 0.08 0.351565 0 0.1 0.351565 0 0 0.357224 0 0.02 0.357224 0 0.04 0.357224 0 0.06 0.357224 0 0.08 0.357224 0 0.1 0.357224 0 0 0.363037 0 0.02 0.363037 0 0.04 0.363037 0 0.06 0.363037 0 0.08 0.363037 0 0.1 0.363037 0 0 0.369017 0 0.02 0.369017 0 0.04 0.369017 0 0.06 0.369017 0 0.08 0.369017 0 0.1 0.369017 0 0 0.375176 0 0.02 0.375176 0 0.04 0.375176 0 0.06 0.375176 0 0.08 0.375176 0 0.1 0.375176 0 0 0.381527 0 0.02 0.381527 0 0.04 0.381527 0 0.06 0.381527 0 0.08 0.381527 0 0.1 0.381527 0 0 0.388086 0 0.02 0.388086 0 0.04 0.388086 0 0.06 0.388086 0 0.08 0.388086 0 0.1 0.388086 0 0 0.394868 0 0.02 0.394868 0 0.04 0.394868 0 0.06 0.394868 0 0.08 0.394868 0 0.1 0.394868 0 0 0.401891 0 0.02 0.401891 0 0.04 0.401891 0 0.06 0.401891 0 0.08 0.401891 0 0.1 0.401891 0 0 0.409176 0 0.02 0.409176 0 0.04 0.409176 0 0.06 0.409176 0 0.08 0.409176 0 0.1 0.409176 0 0 0.416745 0 0.02 0.416745 0 0.04 0.416745 0 0.06 0.416745 0 0.08 0.416745 0 0.1 0.416745 0 0 0.424623 0 0.02 0.424623 0 0.04 0.424623 0 0.06 0.424623 0 0.08 0.424623 0 0.1 0.424623 0 0 0.432839 0 0.02 0.432839 0 0.04 0.432839 0 0.06 0.432839 0 0.08 0.432839 0 0.1 0.432839 0 0 0.441425 0 0.02 0.441425 0 0.04 0.441425 0 0.06 0.441425 0 0.08 0.441425 0 0.1 0.441425 0 0 0.450419 0 0.02 0.450419 0 0.04 0.450419 0 0.06 0.450419 0 0.08 0.450419 0 0.1 0.450419 0 0 0.459861 0 0.02 0.459861 0 0.04 0.459861 0 0.06 0.459861 0 0.08 0.459861 0 0.1 0.459861 0 0 0.469798 0 0.02 0.469798 0 0.04 0.469798 0 0.06 0.469798 0 0.08 0.469798 0 0.1 0.469798 0 0 0.480277 0 0.02 0.480277 0 0.04 0.480277 0 0.06 0.480277 0 0.08 0.480277 0 0.1 0.480277 0 0 0.491336 0 0.02 0.491336 0 0.04 0.491336 0 0.06 0.491336 0 0.08 0.491336 0 0.1 0.491336 0 0 0.502978 0 0.02 0.502978 0 0.04 0.502978 0 0.06 0.502978 0 0.08 0.502978 0 0.1 0.502978 0 0 0.515076 0 0.02 0.515076 0 0.04 0.515076 0 0.06 0.515076 0 0.08 0.515076 0 0.1 0.515076 0 0 0.527244 0 0.02 0.527244 0 0.04 0.527244 0 0.06 0.527244 0 0.08 0.527244 0 0.1 0.527244 0 0 0.539293 0 0.02 0.539293 0 0.04 0.539293 0 0.06 0.539293 0 0.08 0.539293 0 0.1 0.539293 0 0 0.551225 0 0.02 0.551225 0 0.04 0.551225 0 0.06 0.551225 0 0.08 0.551225 0 0.1 0.551225 0 0 0.563065 0 0.02 0.563065 0 0.04 0.563065 0 0.06 0.563065 0 0.08 0.563065 0 0.1 0.563065 0 0 0.574852 0 0.02 0.574852 0 0.04 0.574852 0 0.06 0.574852 0 0.08 0.574852 0 0.1 0.574852 0 0 0.586612 0 0.02 0.586612 0 0.04 0.586612 0 0.06 0.586612 0 0.08 0.586612 0 0.1 0.586612 0 0 0.598362 0 0.02 0.598362 0 0.04 0.598362 0 0.06 0.598362 0 0.08 0.598362 0 0.1 0.598362 0 0 0.610106 0 0.02 0.610106 0 0.04 0.610106 0 0.06 0.610106 0 0.08 0.610106 0 0.1 0.610106 0 0 0.62185 0 0.02 0.62185 0 0.04 0.62185 0 0.06 0.62185 0 0.08 0.62185 0 0.1 0.62185 0 0 0.633607 0 0.02 0.633607 0 0.04 0.633607 0 0.06 0.633607 0 0.08 0.633607 0 0.1 0.633607 0 0 0.636219 0 0.02 0.636219 0 0.04 0.636219 0 0.06 0.636219 0 0.08 0.636219 0 0.1 0.636219 0 0 0.638758 0 0.02 0.638758 0 0.04 0.638758 0 0.06 0.638758 0 0.08 0.638758 0 0.1 0.638758 0 0 0.64125 0 0.02 0.64125 0 0.04 0.64125 0 0.06 0.64125 0 0.08 0.64125 0 0.1 0.64125 0 0 0.64371 0 0.02 0.64371 0 0.04 0.64371 0 0.06 0.64371 0 0.08 0.64371 0 0.1 0.64371 0 0 0.646149 0 0.02 0.646149 0 0.04 0.646149 0 0.06 0.646149 0 0.08 0.646149 0 0.1 0.646149 0 0 0.648571 0 0.02 0.648571 0 0.04 0.648571 0 0.06 0.648571 0 0.08 0.648571 0 0.1 0.648571 0 0 0.650981 0 0.02 0.650981 0 0.04 0.650981 0 0.06 0.650981 0 0.08 0.650981 0 0.1 0.650981 0 0 0.653382 0 0.02 0.653382 0 0.04 0.653382 0 0.06 0.653382 0 0.08 0.653382 0 0.1 0.653382 0 0 0.655777 0 0.02 0.655777 0 0.04 0.655777 0 0.06 0.655777 0 0.08 0.655777 0 0.1 0.655777 0 0 0.658167 0 0.02 0.658167 0 0.04 0.658167 0 0.06 0.658167 0 0.08 0.658167 0 0.1 0.658167 0 0 0.660553 0 0.02 0.660553 0 0.04 0.660553 0 0.06 0.660553 0 0.08 0.660553 0 0.1 0.660553 0 0 0.662935 0 0.02 0.662935 0 0.04 0.662935 0 0.06 0.662935 0 0.08 0.662935 0 0.1 0.662935 0 0 0.665314 0 0.02 0.665314 0 0.04 0.665314 0 0.06 0.665314 0 0.08 0.665314 0 0.1 0.665314 0 0 0.667689 0 0.02 0.667689 0 0.04 0.667689 0 0.06 0.667689 0 0.08 0.667689 0 0.1 0.667689 0 0 0.670061 0 0.02 0.670061 0 0.04 0.670061 0 0.06 0.670061 0 0.08 0.670061 0 0.1 0.670061 0 0 0.67243 0 0.02 0.67243 0 0.04 0.67243 0 0.06 0.67243 0 0.08 0.67243 0 0.1 0.67243 0 0 0.674796 0 0.02 0.674796 0 0.04 0.674796 0 0.06 0.674796 0 0.08 0.674796 0 0.1 0.674796 0 0 0.677161 0 0.02 0.677161 0 0.04 0.677161 0 0.06 0.677161 0 0.08 0.677161 0 0.1 0.677161 0 0 0.679524 0 0.02 0.679524 0 0.04 0.679524 0 0.06 0.679524 0 0.08 0.679524 0 0.1 0.679524 0 0 0.681886 0 0.02 0.681886 0 0.04 0.681886 0 0.06 0.681886 0 0.08 0.681886 0 0.1 0.68
[...]
			<PointData Scalars="VitesseX">
				<DataArray Name="VitesseX" type="Float32" format="ascii">
 0 5.51168e-16 4.04154e-15 1.54877e-15 -8.8233e-15 0 0 6.6751e-16 3.7699e-15 1.52523e-15 -8.58556e-15 0 0 1.22257e-15 2.80827e-15 1.32226e-15 -8.33739e-15 0 0 1.33298e-15 1.72395e-15 -4.60944e-16 -6.71875e-15 0 0 8.8618e-16 1.91973e-16 -2.25501e-15 -5.12725e-15 0 0 1.74301e-16 -1.07833e-15 -2.80317e-15 -5.51986e-15 0 0 -7.7523e-16 -1.64138e-15 -2.28556e-15 -4.76843e-15 0 0 -8.21816e-16 -2.24744e-15 -1.48632e-15 -3.37157e-16 0 0 -2.96125e-16 -1.04697e-15 -2.70641e-15 4.84823e-15 0 0 -2.50951e-17 -4.3345e-16 8.06232e-16 4.65784e-15 0 0 4.81927e-16 -8.1339e-16 6.89651e-15 4.17141e-15 0 0 2.05963e-15 -1.38287e-16 1.01266e-14 5.27379e-15 0 0 3.33078e-15 3.42623e-15 1.21897e-14 3.49092e-15 0 0 6.21464e-15 4.43919e-15 1.17169e-14 7.4827e-15 0 0 6.99333e-15 9.37277e-15 6.3453e-15 1.55078e-14 0 0 6.68218e-15 1.912e-14 1.66491e-15 1.64839e-14 0 0 9.33778e-15 1.99863e-14 3.73905e-15 1.23522e-14 0 0 8.90707e-15 2.01861e-14 6.00654e-15 1.1184e-14 0 0 6.88986e-15 2.22919e-14 7.10297e-15 1.26869e-14 0 0 6.13652e-15 1.92777e-14 1.13787e-14 8.85988e-15 0 0 6.91598e-15 1.34055e-14 1.53595e-14 7.4589e-15 0 0 1.04642e-14 6.86406e-15 1.97656e-14 9.78276e-15 0 0 9.66346e-15 7.87943e-15 1.53034e-14 1.12239e-14 0 0 6.87953e-15 1.2119e-14 5.86825e-15 1.44035e-14 0 0 5.3249e-15 8.94491e-15 6.504e-15 1.32362e-14 0 0 -1.33378e-15 1.20074e-14 2.64499e-15 1.43954e-14 0 0 4.81653e-16 9.1457e-15 7.85128e-16 1.72444e-14 0 0 1.17188e-14 -2.65996e-15 9.03352e-15 6.75347e-15 0 0 1.27541e-14 -1.3073e-17 6.09924e-15 -4.30648e-15 0 0 8.94475e-15 5.87357e-15 3.57368e-15 -1.13917e-14 0 0 8.94295e-15 2.60225e-15 6.37105e-15 -1.05626e-14 0 0 5.43311e-15 2.91662e-15 4.87759e-15 -2.87164e-15 0 0 -2.49375e-15 1.57907e-14 -5.20358e-15 -8.92663e-16 0 0 3.42644e-15 1.52941e-14 -5.62327e-15 -3.21808e-15 0 0 8.90832e-15 8.6461e-15 3.43225e-15 -7.94245e-15 0 0 2.99702e-15 1.15093e-14 5.05379e-15 -6.7729e-15 0 0 3.0059e-15 9.75459e-15 3.19575e-15 8.01117e-15 0 0 4.7057e-15 5.01988e-15 6.3545e-15 1.05274e-14 0 0 2.06455e-15 6.87999e-15 1.20224e-14 2.60055e-15 0 0 -5.7556e-15 2.18374e-14 6.55238e-15 1.12317e-14 0 0 -2.42597e-15 2.47875e-14 8.21647e-15 1.62299e-14 0 0 8.77315e-15 1.22983e-14 1.43512e-14 2.1477e-14 0 0 1.45136e-14 9.23748e-15 9.92769e-15 2.93086e-14 0 0 1.23073e-14 1.73289e-14 -2.13312e-15 3.59425e-14 0 0 7.19312e-15 1.97479e-14 -8.12377e-15 3.8734e-14 0 0 6.01476e-15 1.56213e-14 8.70579e-16 3.62657e-14 0 0 4.78732e-15 1.61606e-14 5.8589e-15 4.47406e-14 0 0 9.51338e-15 2.18915e-14 1.27734e-14 4.38283e-14 0 0 1.39607e-14 3.46696e-14 2.91319e-14 3.92078e-14 0 0 2.60674e-14 4.48532e-14 3.22598e-14 4.81084e-14 0 0 3.81657e-14 6.44665e-14 2.60852e-14 4.09102e-14 0 0 3.59201e-14 9.01551e-14 2.73981e-14 3.80623e-14 0 0 6.05038e-14 9.3653e-14 3.79706e-14 3.7146e-14 0 0 6.39737e-14 1.09134e-13 4.13021e-14 4.55232e-14 0 0 5.03531e-14 1.06913e-13 6.25182e-14 5.98571e-14 0 0 4.97223e-14 9.57568e-14 8.4426e-14 4.91836e-14 0 0 5.26327e-14 9.49386e-14 7.05082e-14 6.21653e-14 0 0 5.76709e-14 5.92613e-14 7.05608e-14 8.32322e-14 0 0 4.83082e-14 2.84391e-14 8.19121e-14 7.46105e-14 0 0 2.60977e-14 4.70007e-14 6.58659e-14 5.7763e-14 0 0 1.34392e-14 6.16671e-14 5.42952e-14 5.00844e-14 0 0 1.96391e-14 4.78603e-14 4.48603e-14 4.95338e-14 0 0 1.10093e-14 4.66059e-14 3.26429e-14 4.68594e-14 0 0 -7.63583e-15 4.69232e-14 3.31828e-14 5.2208e-14 0 0 -1.59071e-15 2.99093e-14 3.78063e-14 3.1325e-14 0 0 5.63301e-15 1.43399e-14 5.44481e-14 3.58005e-15 0 0 8.63674e-15 9.51452e-15 5.99418e-14 -7.10849e-15 0 0 3.31142e-14 7.59571e-15 2.59453e-14 -1.49705e-14 0 0 2.74668e-14 1.26262e-14 -2.69157e-15 -2.37703e-15 0 0 2.34648e-14 -5.95618e-15 2.07548e-14 -1.76304e-15 0 0 1.41677e-14 2.23157e-14 2.15484e-14 -1.07546e-14 0 0 2.34204e-14 2.73157e-14 5.80142e-16 -8.94283e-15 0 0 3.51732e-14 1.24544e-14 -9.09042e-15 -2.71726e-15 0 0 2.78881e-14 2.51913e-14 -1.64435e-14 2.55577e-17 0 0 2.70844e-14 4.40816e-15 6.78263e-15 6.16462e-15 0 0 1.14674e-14 1.05181e-14 2.78551e-14 -6.00022e-15 0 0 1.52879e-14 1.54839e-14 2.36155e-14 -4.14246e-14 0 0 1.87596e-14 2.22955e-14 3.25264e-15 -2.9686e-14 0 0 1.31825e-14 2.24602e-14 9.77083e-15 -3.99911e-16 0 0 -3.85195e-15 2.22686e-14 8.69029e-15 -5.00008e-16 0 0 -8.54753e-15 1.78221e-14 9.41703e-15 -5.58204e-15 0 0 -1.87458e-15 1.23155e-14 3.38048e-14 -1.83831e-14 0 0 -7.47755e-15 -3.64275e-15 4.45297e-14 -1.12762e-14 0 0 -1.58119e-14 1.07293e-14 2.16912e-14 2.33963e-14 0 0 -1.33267e-15 2.31683e-14 -4.71956e-15 2.12137e-14 0 0 2.54588e-14 -1.26978e-14 1.46307e-14 -9.20177e-15 0 0 2.32845e-15 -6.87685e-15 1.2443e-14 -1.60218e-14 0 0 3.832e-15 -3.52328e-15 1.39692e-15 -3.74675e-15 0 0 -8.06008e-15 3.13717e-15 1.84593e-14 1.12192e-14 0 0 -3.25453e-14 -1.50077e-15 5.18984e-14 -3.68144e-15 0 0 2.15735e-15 2.25337e-16 2.46452e-14 -9.52764e-16 0 0 1.59369e-14 1.76351e-14 -1.39105e-14 1.67005e-14 0 0 6.81674e-15 5.72776e-15 1.06554e-14 8.79939e-15 0 0 8.65166e-15 -1.63503e-15 2.36142e-14 2.10476e-14 0 0 1.07218e-14 1.12054e-14 2.41299e-14 9.54243e-15 0 0 6.71224e-15 2.46639e-14 1.23691e-14 1.05819e-14 0 0 1.01539e-14 1.19569e-14 1.60982e-14 1.37569e-14 0 0 6.63808e-15 9.24164e-15 1.62413e-14 -1.73731e-16 0 0 4.03042e-15 1.48702e-14 7.98891e-16 1.42266e-14 0 0 3.34617e-15 1.00414e-14 -2.56648e-15 3.31438e-14 0 0 2.94484e-15 1.59581e-14 1.35831e-14 4.01433e-14 0 0 -4.26285e-15 5.03103e-14 -5.98821e-15 6.05702e-14 0 0 -4.78295e-15 5.24847e-14 -2.38874e-15 2.78278e-14 0 0 2.02886e-15 4.53489e-14 1.67536e-14 1.7918e-14 0 0 -1.74573e-14 3.97126e-14 1.90738e-14 5.21413e-14 0 0 -1.87054e-14 8.04613e-14 2.95661e-15 2.88955e-14 0 0 -2.10004e-16 5.74054e-14 1.03127e-14 3.06076e-14 0 0 9.38006e-15 2.96314e-14 2.23648e-14 2.77376e-14 0 0 1.27209e-14 2.35226e-14 4.8907e-14 1.90283e-15 0 0 2.12351e-14 -8.09162e-15 3.91693e-14 -3.10976e-14 0 0 1.45305e-14 -1.46203e-14 1.21974e-14 -4.17581e-14 0 0 -3.37362e-14 1.36652e-14 -3.70166e-14 -2.65064e-14 0 0 -3.90419e-14 3.92289e-14 -6.84944e-14 -3.66743e-14 0 0 -3.31671e-14 -5.51492e-15 -4.4792e-14 -2.76555e-14 0 0 -3.80849e-14 -4.58938e-14 2.9322e-14 -3.82705e-14 0 0 -1.78272e-14 -2.83397e-14 2.68196e-14 -9.17587e-14 0 0 -1.8848e-17 -3.39151e-14 -2.04077e-14 -7.14459e-14 0 0 7.58136e-15 -4.15307e-14 7.46045e-15 -5.76318e-14 0 0 3.03795e-16 -2.50175e-14 3.20045e-14 -6.93521e-14 0 0 1.35813e-14 -4.97392e-14 5.07136e-14 -2.68498e-14 0 0 2.55718e-14 -2.25739e-14 1.61418e-15 4.80769e-14 0 0 1.74325e-14 2.93755e-14 -2.7276e-14 1.8033e-14 0 0 1.43658e-14 4.00487e-14 -2.82399e-14 -5.06366e-14 0 0 2.02363e-14 1.62459e-14 -1.92575e-14 8.5218e-16 0 0 4.69489e-14 -4.60832e-15 -3.04041e-14 2.8274e-14 0 0 5.57878e-14 -2.02501e-14 -1.81582e-14 -7.69137e-15 0 0 2.30025e-14 -6.4327e-16 -3.11885e-14 -3.23014e-14 0 0 4.1234e-15 3.75521e-14 -6.44984e-14 -9.13411e-14 0 0 -6.96176e-15 2.0862e-14 -3.9872e-14 -1.02109e-13 0 0 2.72435e-14 -2.54059e-15 -1.45764e-14 -1.19217e-13 0 0 3.62674e-14 -6.96732e-15 -1.4428e-14 -1.63888e-13 0 0 1.2226e-14 -4.84301e-15 1.23237e-14 -1.76878e-13 0 0 2.88089e-14 2.11799e-14 1.65364e-14 -1.67731e-13 0 0 5.78226e-14 -3.58618e-14 2.44389e-14 -1.56747e-13 0 0 1.07656e-13 -7.99908e-14 2.46987e-14 -7.28698e-14 0 0 1.25676e-13 -3.38498e-14 1.91501e-14 -2.68761e-14 0 0 5.82307e-14 5.36231e-14 1.76555e-14 -7.89176e-14 0 0 2.40214e-15 1.19657e-13 4.88154e-14 -3.81326e-14 0 0 5.45288e-14 4.88131e-14 1.12797e-13 1.51838e-14 0 0 9.50093e-14 -9.78593e-15 8.82362e-14 7.56114e-14 0 0 8.46383e-14 4.68085e-14 1.97728e-15 1.31424e-13 0 0 7.38371e-14 1.38622e-13 -8.51756e-14 1.53465e-13 0 0 4.37796e-14 2.01322e-13 -1.49698e-13 2.57939e-13 0 0 5.31749e-14 1.55919e-13 -1.00493e-13 2.71037e-13 0 0 8.95191e-14 4.75587e-14 3.08563e-14 1.80464e-13 0 0 9.94913e-14 2.61791e-14 4.17988e-14 1.27838e-13 0 0 9.75165e-14 7.95154e-14 -1.00175e-13 2.01359e-13 0 0 1.02757e-13 9.41704e-14 -9.85085e-14 2.57451e-13 0 0 1.0434e-13 7.66125e-14 2.7042e-14 1.23335e-13 0 0 9.03354e-14 1.05983e-13 5.15912e-14 1.72731e-14 0 0 9.28358e-14 1.28624e-13 6.88669e-14 7.40156e-14 0 0 8.77762e-14 1.24118e-13 7.39104e-14 6.04553e-14 0 0 8.78495e-14 1.56049e-13 6.26936e-14 3.33612e-14 0 0 1.01177e-13 1.11231e-13 1.30507e-13 8.5152e-14 0 0 9.80386e-14 1.21368e-13 1.65783e-13 7.18481e-14 0 0 9.19237e-14 1.94543e-13 1.29747e-13 8.99777e-14 0 0 9.54878e-14 1.94493e-13 1.39353e-13 1.5496e-13 0 0 1.0227e-13 2.02858e-13 1.71008e-13 1.1421e-13 0 0 1.04731e-13 2.00542e-13 2.00057e-13 9.69008e-14 0 0 1.06368e-13 2.08998e-13 1.96983e-13 1.39522e-13 0 0 1.15293e-13 2.16359e-13 1.86068e-13 1.52988e-13 0 0 1.112e-13 2.27338e-13 1.93886e-13 1.70656e-13 0 0 8.50864e-14 2.69607e-13 1.79021e-13 1.77825e-13 0 0 1.03861e-13 2.38902e-13 2.09235e-13 1.46734e-13 0 0 1.41628e-13 2.20086e-13 2.32907e-13 1.13912e-13 0 0 1.5358e-13 2.19519e-13 2.26474e-13 1.1813e-13 0 0 1.54151e-13 2.15374e-13 2.24607e-13 1.23015e-13 0 0 1.60463e-13 2.32954e-13 1.92131e-13 1.41538e-13 0 0 1.68796e-13 2.21292e-13 1.84947e-13 1.33701e-13 0 0 1.61897e-13 2.28582e-13 1.94275e-13 1.29158e-13 0 0 1.60946e-13 2.33821e-13 1.70933e-13 1.48073e-13 0 0 1.50027e-13 2.57193e-13 1.30174e-13 1.68456e-13 0 0 1.60365e-13 2.24347e-13 1.8024e-13 1.4966e-13 0 0 1.87032e-13 1.44512e-13 2.41729e-13 1.34211e-13 0 0 1.80382e-13 1.17972e-13 2.36718e-13 1.36634e-13 0 0 1.38996e-13 1.31222e-13 2.23209e-13 1.04479e-13 0 0 9.21085e-14 1.65491e-13 2.06937e-13 6.81693e-14 0 0 7.31618e-14 1.85455e-13 1.81776e-13 3.3027e-14 0 0 9.65962e-14 1.21648e-13 1.63162e-13 2.40701e-14 0 0 1.25788e-13 3.60655e-14 1.85006e-13 -1.97581e-14 0 0 6.72425e-14 1.06826e-13 1.01646e-13 3.58229e-14 0 0 3.55528e-15 1.50301e-13 3.90737e-14 1.06572e-13 0 0 6.12647e-16 1.14863e-13 7.93402e-14 1.24761e-13 0 0 -9.02761e-15 1.01905e-13 8.37081e-14 1.58766e-13 0 0 -5.60912e-15 5.72991e-14 1.05598e-13 1.00296e-13 0 0 -1.55327e-14 6.52753e-14 9.83094e-14 7.19295e-14 0 0 -3.90561e-14 1.14337e-13 6.07868e-14 5.05464e-14 0 0 -2.24707e-15 9.29998e-14 7.5472e-14 -8.60419e-16 0 0 3.99383e-14 5.84718e-14 7.86229e-14 1.15703e-14 0 0 5.06077e-14 8.48904e-14 1.78357e-14 5.46898e-14 0 0 6.15481e-14 5.937e-14 4.05712e-14 5.62987e-14 0 0 7.92148e-14 -8.54945e-16 1.04427e-13 3.30213e-14 0 0 5.91946e-14 1.57289e-14 1.30865e-13 9.20515e-15 0 0 2.84026e-14 3.39615e-14 1.32078e-13 4.45328e-14 0 0 -5.69604e-17 5.49434e-14 1.06045e-13 7.31021e-14 0 0 -1.94231e-14 8.75526e-14 9.65944e-14 8.52612e-14 0 0 1.70454e-14 6.24977e-14 9.05468e-14 1.45337e-13 0 0 5.45685e-14 3.20852e-14 1.13961e-13 1.24157e-13 0 0 5.41551e-14 5.75998e-14 1.17368e-13 7.7434e-14 0 0 4.31605e-14 9.36967e-14 1.0021e-13 6.38619e-14 0 0 4.29119e-14 9.89581e-14 1.08831e-13 4.57197e-14 0
				</DataArray>
				<DataArray Name="VitesseY" type="Float32" format="ascii">