<?xml version="1.0"?>
<VTKFile type="PolyData">
	<PolyData>
		<Piece NumberOfPoints="1206" NumberOfPolys="1000">
			<Points>
				<DataArray type="Float32" NumberOfComponents="3" format="ascii">
 0 0 0 0.02 0 0 0.04 0 0 0.06 0 0 0.08 0 0 0.1 0 0 0 0.005 0 0.02 0.005 0 0.04 0.005 0 0.06 0.005 0 0.08 0.005 0 0.1 0.005 0 0 0.01 0 0.02 0.01 0 0.04 0.01 0 0.06 0.01 0 0.08 0.01 0 0.1 0.01 0 0 0.015 0 0.02 0.015 0 0.04 0.015 0 0.06 0.015 0 0.08 0.015 0 0.1 0.015 0 0 0.02 0 0.02 0.02 0 0.04 0.02 0 0.06 0.02 0 0.08 0.02 0 0.1 0.02 0 0 0.025 0 0.02 0.025 0 0.04 0.025 0 0.06 0.025 0 0.08 0.025 0 0.1 0.025 0 0 0.03 0 0.02 0.03 0 0.04 0.03 0 0.06 0.03 0 0.08 0.03 0 0.1 0.03 0 0 0.035 0 0.02 0.035 0 0.04 0.035 0 0.06 0.035 0 0.08 0.035 0 0.1 0.035 0 0 0.04 0 0.02 0.04 0 0.04 0.04 0 0.06 0.04 0 0.08 0.04 0 0.1 0.04 0 0 0.045 0 0.02 0.045 0 0.04 0.045 0 0.06 0.045 0 0.08 0.045 0 0.1 0.045 0 0 0.05 0 0.02 0.05 0 0.04 0.05 0 0.06 0.05 0 0.08 0.05 0 0.1 0.05 0 0 0.055 0 0.02 0.055 0 0.04 0.055 0 0.06 0.055 0 0.08 0.055 0 0.1 0.055 0 0 0.06 0 0.02 0.06 0 0.04 0.06 0 0.06 0.06 0 0.08 0.06 0 0.1 0.06 0 0 0.065 0 0.02 0.065 0 0.04 0.065 0 0.06 0.065 0 0.08 0.065 0 0.1 0.065 0 0 0.07 0 0.02 0.07 0 0.04 0.07 0 0.06 0.07 0 0.08 0.07 0 0.1 0.07 0 0 0.075 0 0.02 0.075 0 0.04 0.075 0 0.06 0.075 0 0.08 0.075 0 0.1 0.075 0 0 0.08 0 0.02 0.08 0 0.04 0.08 0 0.06 0.08 0 0.08 0.08 0 0.1 0.08 0 0 0.085 0 0.02 0.085 0 0.04 0.085 0 0.06 0.085 0 0.08 0.085 0 0.1 0.085 0 0 0.09 0 0.02 0.09 0 0.04 0.09 0 0.06 0.09 0 0.08 0.09 0 0.1 0.09 0 0 0.095 0 0.02 0.095 0 0.04 0.095 0 0.06 0.095 0 0.08 0.095 0 0.1 0.095 0 0 0.1 0 0.02 0.1 0 0.04 0.1 0 0.06 0.1 0 0.08 0.1 0 0.1 0.1 0 0 0.105 0 0.02 0.105 0 0.04 0.105 0 0.06 0.105 0 0.08 0.105 0 0.1 0.105 0 0 0.11 0 0.02 0.11 0 0.04 0.11 0 0.06 0.11 0 0.08 0.11 0 0.1 0.11 0 0 0.115 0 0.02 0.115 0 0.04 0.115 0 0.06 0.115 0 0.08 0.115 0 0.1 0.115 0 0 0.12 0 0.02 0.12 0 0.04 0.12 0 0.06 0.12 0 0.08 0.12 0 0.1 0.12 0 0 0.125 0 0.02 0.125 0 0.04 0.125 0 0.06 0.125 0 0.08 0.125 0 0.1 0.125 0 0 0.13 0 0.02 0.13 0 0.04 0.13 0 0.06 0.13 0 0.08 0.13 0 0.1 0.13 0 0 0.135 0 0.02 0.135 0 0.04 0.135 0 0.06 0.135 0 0.08 0.135 0 0.1 0.135 0 0 0.14 0 0.02 0.14 0 0.04 0.14 0 0.06 0.14 0 0.08 0.14 0 0.1 0.14 0 0 0.145 0 0.02 0.145 0 0.04 0.145 0 0.06 0.145 0 0.08 0.145 0 0.1 0.145 0 0 0.15 0 0.02 0.15 0 0.04 0.15 0 0.06 0.15 0 0.08 0.15 0 0.1 0.15 0 0 0.155 0 0.02 0.155 0 0.04 0.155 0 0.06 0.155 0 0.08 0.155 0 0.1 0.155 0 0 0.16 0 0.02 0.16 0 0.04 0.16 0 0.06 0.16 0 0.08 0.16 0 0.1 0.16 0 0 0.165 0 0.02 0.165 0 0.04 0.165 0 0.06 0.165 0 0.08 0.165 0 0.1 0.165 0 0 0.17 0 0.02 0.17 0 0.04 0.17 0 0.06 0.17 0 0.08 0.17 0 0.1 0.17 0 0 0.175 0 0.02 0.175 0 0.04 0.175 0 0.06 0.175 0 0.08 0.175 0 0.1 0.175 0 0 0.18 0 0.02 0.18 0 0.04 0.18 0 0.06 0.18 0 0.08 0.18 0 0.1 0.18 0 0 0.185 0 0.02 0.185 0 0.04 0.185 0 0.06 0.185 0 0.08 0.185 0 0.1 0.185 0 0 0.19 0 0.02 0.19 0 0.04 0.19 0 0.06 0.19 0 0.08 0.19 0 0.1 0.19 0 0 0.195 0 0.02 0.195 0 0.04 0.195 0 0.06 0.195 0 0.08 0.195 0 0.1 0.195 0 0 0.2 0 0.02 0.2 0 0.04 0.2 0 0.06 0.2 0 0.08 0.2 0 0.1 0.2 0 0 0.205 0 0.02 0.205 0 0.04 0.205 0 0.06 0.205 0 0.08 0.205 0 0.1 0.205 0 0 0.21 0 0.02 0.21 0 0.04 0.21 0 0.06 0.21 0 0.08 0.21 0 0.1 0.21 0 0 0.215 0 0.02 0.215 0 0.04 0.215 0 0.06 0.215 0 0.08 0.215 0 0.1 0.215 0 0 0.22 0 0.02 0.22 0 0.04 0.22 0 0.06 0.22 0 0.08 0.22 0 0.1 0.22 0 0 0.225 0 0.02 0.225 0 0.04 0.225 0 0.06 0.225 0 0.08 0.225 0 0.1 0.225 0 0 0.23 0 0.02 0.23 0 0.04 0.23 0 0.06 0.23 0 0.08 0.23 0 0.1 0.23 0 0 0.235 0 0.02 0.235 0 0.04 0.235 0 0.06 0.235 0 0.08 0.235 0 0.1 0.235 0 0 0.24 0 0.02 0.24 0 0.04 0.24 0 0.06 0.24 0 0.08 0.24 0 0.1 0.24 0 0 0.245 0 0.02 0.245 0 0.04 0.245 0 0.06 0.245 0 0.08 0.245 0 0.1 0.245 0 0 0.25 0 0.02 0.25 0 0.04 0.25 0 0.06 0.25 0 0.08 0.25 0 0.1 0.25 0 0 0.255 0 0.02 0.255 0 0.04 0.255 0 0.06 0.255 0 0.08 0.255 0 0.1 0.255 0 0 0.26 0 0.02 0.26 0 0.04 0.26 0 0.06 0.26 0 0.08 0.26 0 0.1 0.26 0 0 0.265 0 0.02 0.265 0 0.04 0.265 0 0.06 0.265 0 0.08 0.265 0 0.1 0.265 0 0 0.27 0 0.02 0.27 0 0.04 0.27 0 0.06 0.27 0 0.08 0.27 0 0.1 0.27 0 0 0.275 0 0.02 0.275 0 0.04 0.275 0 0.06 0.275 0 0.08 0.275 0 0.1 0.275 0 0 0.28 0 0.02 0.28 0 0.04 0.28 0 0.06 0.28 0 0.08 0.28 0 0.1 0.28 0 0 0.285 0 0.02 0.285 0 0.04 0.285 0 0.06 0.285 0 0.08 0.285 0 0.1 0.285 0 0 0.29 0 0.02 0.29 0 0.04 0.29 0 0.06 0.29 0 0.08 0.29 0 0.1 0.29 0 0 0.295 0 0.02 0.295 0 0.04 0.295 0 0.06 0.295 0 0.08 0.295 0 0.1 0.295 0 0 0.3 0 0.02 0.3 0 0.04 0.3 0 0.06 0.3 0 0.08 0.3 0 0.1 0.3 0 0 0.305 0 0.02 0.305 0 0.04 0.305 0 0.06 0.305 0 0.08 0.305 0 0.1 0.305 0 0 0.31 0 0.02 0.31 0 0.04 0.31 0 0.06 0.31 0 0.08 0.31 0 0.1 0.31 0 0 0.315 0 0.02 0.315 0 0.04 0.315 0 0.06 0.315 0 0.08 0.315 0 0.1 0.315 0 0 0.32 0 0.02 0.32 0 0.04 0.32 0 0.06 0.32 0 0.08 0.32 0 0.1 0.32 0 0 0.325001 0 0.02 0.325001 0 0.04 0.325001 0 0.06 0.325001 0 0.08 0.325001 0 0.1 0.325001 0 0 0.330002 0 0.02 0.330002 0 0.04 0.330002 0 0.06 0.330002 0 0.08 0.330002 0 0.1 0.330002 0 0 0.335008 0 0.02 0.335008 0 0.04 0.335008 0 0.06 0.335008 0 0.08 0.335008 0 0.1 0.335008 0 0 0.340022 0 0.02 0.340022 0 0.04 0.340022 0 0.06 0.340022 0 0.08 0.340022 0 0.1 0.340022 0 0 0.345057 0 0.02 0.345057 0 0.04 0.345057 0 0.06 0.345057 0 0.08 0.345057 0 0.1 0.345057 0 0 0.350132 0 0.02 0.350132 0 0.04 0.350132 0 0.06 0.350132 0 0.08 0.350132 0 0.1 0.350132 0 0 0.355273 0 0.02 0.355273 0 0.04 0.355273 0 0.06 0.355273 0 0.08 0.355273 0 0.1 0.355273 0 0 0.360508 0 0.02 0.360508 0 0.04 0.360508 0 0.06 0.360508 0 0.08 0.360508 0 0.1 0.360508 0 0 0.365863 0 0.02 0.365863 0 0.04 0.365863 0 0.06 0.365863 0 0.08 0.365863 0 0.1 0.365863 0 0 0.371361 0 0.02 0.371361 0 0.04 0.371361 0 0.06 0.371361 0 0.08 0.371361 0 0.1 0.371361 0 0 0.377019 0 0.02 0.377019 0 0.04 0.377019 0 0.06 0.377019 0 0.08 0.377019 0 0.1 0.377019 0 0 0.382855 0 0.02 0.382855 0 0.04 0.382855 0 0.06 0.382855 0 0.08 0.382855 0 0.1 0.382855 0 0 0.388886 0 0.02 0.388886 0 0.04 0.388886 0 0.06 0.388886 0 0.08 0.388886 0 0.1 0.388886 0 0 0.395128 0 0.02 0.395128 0 0.04 0.395128 0 0.06 0.395128 0 0.08 0.395128 0 0.1 0.395128 0 0 0.4016 0 0.02 0.4016 0 0.04 0.4016 0 0.06 0.4016 0 0.08 0.4016 0 0.1 0.4016 0 0 0.408324 0 0.02 0.408324 0 0.04 0.408324 0 0.06 0.408324 0 0.08 0.408324 0 0.1 0.408324 0 0 0.415322 0 0.02 0.415322 0 0.04 0.415322 0 0.06 0.415322 0 0.08 0.415322 0 0.1 0.415322 0 0 0.42262 0 0.02 0.42262 0 0.04 0.42262 0 0.06 0.42262 0 0.08 0.42262 0 0.1 0.42262 0 0 0.43025 0 0.02 0.43025 0 0.04 0.43025 0 0.06 0.43025 0 0.08 0.43025 0 0.1 0.43025 0 0 0.438246 0 0.02 0.438246 0 0.04 0.438246 0 0.06 0.438246 0 0.08 0.438246 0 0.1 0.438246 0 0 0.446648 0 0.02 0.446648 0 0.04 0.446648 0 0.06 0.446648 0 0.08 0.446648 0 0.1 0.446648 0 0 0.455503 0 0.02 0.455503 0 0.04 0.455503 0 0.06 0.455503 0 0.08 0.455503 0 0.1 0.455503 0 0 0.464863 0 0.02 0.464863 0 0.04 0.464863 0 0.06 0.464863 0 0.08 0.464863 0 0.1 0.464863 0 0 0.474789 0 0.02 0.474789 0 0.04 0.474789 0 0.06 0.474789 0 0.08 0.474789 0 0.1 0.474789 0 0 0.485345 0 0.02 0.485345 0 0.04 0.485345 0 0.06 0.485345 0 0.08 0.485345 0 0.1 0.485345 0 0 0.496587 0 0.02 0.496587 0 0.04 0.496587 0 0.06 0.496587 0 0.08 0.496587 0 0.1 0.496587 0 0 0.508512 0 0.02 0.508512 0 0.04 0.508512 0 0.06 0.508512 0 0.08 0.508512 0 0.1 0.508512 0 0 0.520898 0 0.02 0.520898 0 0.04 0.520898 0 0.06 0.520898 0 0.08 0.520898 0 0.1 0.520898 0 0 0.533241 0 0.02 0.533241 0 0.04 0.533241 0 0.06 0.533241 0 0.08 0.533241 0 0.1 0.533241 0 0 0.545418 0 0.02 0.545418 0 0.04 0.545418 0 0.06 0.545418 0 0.08 0.545418 0 0.1 0.545418 0 0 0.557436 0 0.02 0.557436 0 0.04 0.557436 0 0.06 0.557436 0 0.08 0.557436 0 0.1 0.557436 0 0 0.569345 0 0.02 0.569345 0 0.04 0.569345 0 0.06 0.569345 0 0.08 0.569345 0 0.1 0.569345 0 0 0.581197 0 0.02 0.581197 0 0.04 0.581197 0 0.06 0.581197 0 0.08 0.581197 0 0.1 0.581197 0 0 0.593026 0 0.02 0.593026 0 0.04 0.593026 0 0.06 0.593026 0 0.08 0.593026 0 0.1 0.593026 0 0 0.604845 0 0.02 0.604845 0 0.04 0.604845 0 0.06 0.604845 0 0.08 0.604845 0 0.1 0.604845 0 0 0.616658 0 0.02 0.616658 0 0.04 0.616658 0 0.06 0.616658 0 0.08 0.616658 0 0.1 0.616658 0 0 0.618943 0 0.02 0.618943 0 0.04 0.618943 0 0.06 0.618943 0 0.08 0.618943 0 0.1 0.618943 0 0 0.621227 0 0.02 0.621227 0 0.04 0.621227 0 0.06 0.621227 0 0.08 0.621227 0 0.1 0.621227 0 0 0.62351 0 0.02 0.62351 0 0.04 0.62351 0 0.06 0.62351 0 0.08 0.62351 0 0.1 0.62351 0 0 0.625792 0 0.02 0.625792 0 0.04 0.625792 0 0.06 0.625792 0 0.08 0.625792 0 0.1 0.625792 0 0 0.628073 0 0.02 0.628073 0 0.04 0.628073 0 0.06 0.628073 0 0.08 0.628073 0 0.1 0.628073 0 0 0.630353 0 0.02 0.630353 0 0.04 0.630353 0 0.06 0.630353 0 0.08 0.630353 0 0.1 0.630353 0 0 0.632631 0 0.02 0.632631 0 0.04 0.632631 0 0.06 0.632631 0 0.08 0.632631 0 0.1 0.632631 0 0 0.634908 0 0.02 0.634908 0 0.04 0.634908 0 0.06 0.634908 0 0.08 0.634908 0 0.1 0.634908 0 0 0.637187 0 0.02 0.637187 0 0.04 0.637187 0 0.06 0.637187 0 0.08 0.637187 0 0.1 0.637187 0 0 0.639463 0 0.02 0.639463 0 0.04 0.639463 0 0.06 0.639463 0 0.08 0.639463 0 0.1 0.639463 0 0 0.641739 0 0.02 0.641739 0 0.04 0.641739 0 0.06 0.641739 0 0.08 0.641739 0 0.1 0.641739 0 0 0.64402 0 0.02 0.64402 0 0.04 0.64402 0 0.06 0.64402 0 0.08 0.64402 0 0.1 0.64402 0 0 0.646301 0 0.02 0.646301 0 0.04 0.646301 0 0.06 0.646301 0 0.08 0.646301 0 0.1 0.646301 0 0 0.648583 0 0.02 0.648583 0 0.04 0.648583 0 0.06 0.648583 0 0.08 0.648583 0 0.1 0.648583 0 0 0.650863 0 0.02 0.650863 0 0.04 0.650863 0 0.06 0.650863 0 0.08 0.650863 0 0.1 0.650863 0 0 0.653143 0 0.02 0.653143 0 0.04 0.653143 0 0.06 0.653143 0 0.08 0.653143 0 0.1 0.653143 0 0 0.655425 0 0.02 0.655425 0 0.04 0.655425 0 0.06 0.655425 0 0.08 0.655425 0 0.1 0.655425 0 0 0.657706 0 0.02 0.657706 0 0.04 0.657706 0 0.06 0.657706 0 0.08 0.657706 0 0.1 0.657706 0 0 0.659985 0 0.02 0.659985 0 0.04 0.659985 0 0.06 0.659985 0 0.08 0.659985 0 0.1 0.659985 0 0 0.662261 0 0.02 0.662261 0 0.04 0.662261 0 0.06 0.662261 0 0.08 0.662261 0 0.1 0.662261 0 0 0.664539 0 0.02 0.664539 0 0.04 0.664539 0 0.06 0.664539 0 0.08 0.664539 0 0.1 0.664539 0 0 0.666819 0 0.02 0.6
[...]
			<PointData Scalars="VitesseX">
				<DataArray Name="VitesseX" type="Float32" format="ascii">
 0 -1.75309e-15 -9.68907e-16 5.41635e-15 1.17404e-14 0 0 -1.88029e-15 -2.30792e-16 4.41619e-15 1.17903e-14 0 0 -1.49345e-15 4.75783e-16 2.5737e-15 1.18485e-14 0 0 5.57382e-16 -7.68956e-16 2.47275e-15 1.06983e-14 0 0 1.91952e-15 -1.78873e-15 3.87517e-15 8.4837e-15 0 0 2.44988e-15 -1.30869e-15 3.44182e-15 8.7159e-15 0 0 6.92161e-16 1.46793e-15 9.1215e-16 1.05861e-14 0 0 -1.50728e-15 3.90647e-15 1.01327e-15 9.92679e-15 0 0 4.10663e-16 3.32239e-15 1.98087e-15 8.71784e-15 0 0 1.10078e-15 4.78008e-15 -1.97813e-16 9.81387e-15 0 0 7.529e-16 5.81603e-15 4.61022e-16 7.25944e-15 0 0 1.63179e-15 4.70459e-15 4.76378e-15 -1.48869e-15 0 0 2.7355e-15 3.59702e-15 9.04685e-15 -8.941e-15 0 0 4.63722e-16 6.98301e-15 9.551e-15 -1.16418e-14 0 0 -1.56202e-15 8.13588e-15 6.6419e-15 -7.83301e-15 0 0 1.87258e-15 1.10588e-15 6.21915e-15 -4.50223e-15 0 0 3.09287e-15 -3.48855e-15 4.72888e-15 -3.38027e-15 0 0 8.88614e-16 -1.43629e-15 1.00367e-15 -9.27957e-17 0 0 -1.95288e-15 1.19617e-15 -1.2901e-15 4.30888e-15 0 0 -1.23489e-15 -2.49366e-15 1.33982e-15 1.13087e-14 0 0 4.86462e-15 -9.19191e-15 5.63116e-15 8.89417e-15 0 0 5.0814e-16 -1.66613e-15 -2.93498e-15 1.18837e-14 0 0 -3.12941e-15 6.19783e-15 -8.01735e-15 1.65422e-14 0 0 -5.23611e-16 2.59154e-15 1.48164e-15 9.90003e-15 0 0 -2.52292e-15 3.00706e-15 5.07439e-15 5.64417e-15 0 0 -9.0068e-16 7.55759e-16 1.59529e-15 7.22045e-15 0 0 5.86905e-16 -2.81428e-15 6.14285e-16 1.32296e-14 0 0 4.88335e-15 -6.38073e-16 -3.80772e-15 1.80376e-14 0 0 8.21509e-15 7.58594e-16 1.68138e-15 5.54556e-15 0 0 5.93349e-15 2.10668e-15 7.13224e-15 -6.92462e-15 0 0 1.47212e-15 8.02694e-15 -1.48332e-15 -4.34892e-15 0 0 -1.61637e-15 9.25492e-15 -3.7702e-15 -3.23348e-15 0 0 -2.12645e-15 1.16628e-15 2.52472e-15 -8.74039e-15 0 0 -5.74956e-15 -1.01466e-15 -2.38288e-15 -9.14538e-15 0 0 -8.70544e-15 2.1126e-16 -5.07824e-15 -6.38558e-15 0 0 -6.67856e-15 -7.15292e-15 1.02723e-16 -8.0254e-15 0 0 -3.30244e-15 -8.91454e-15 -2.27938e-15 -6.72302e-15 0 0 -4.58981e-15 -1.13122e-14 4.49572e-15 -8.55546e-15 0 0 -1.52321e-14 -4.54452e-15 4.24997e-15 -9.82335e-15 0 0 -1.4633e-14 1.75557e-15 4.02052e-15 -1.08667e-14 0 0 -8.20381e-15 1.20819e-15 6.59293e-15 -4.64895e-15 0 0 -4.91877e-15 -1.26239e-16 3.21439e-15 -8.41518e-16 0 0 -3.20721e-15 1.13528e-15 -7.41838e-15 5.35997e-15 0 0 3.5179e-16 1.50927e-15 -1.17383e-14 1.9323e-15 0 0 -7.75873e-16 -1.54013e-15 9.49851e-16 -9.34828e-15 0 0 -5.22217e-15 3.27234e-15 -7.66562e-16 1.03729e-14 0 0 6.76614e-15 -2.20551e-15 -1.18647e-14 2.55321e-14 0 0 5.2923e-15 5.05046e-15 -2.46095e-14 2.09105e-14 0 0 -6.06247e-15 1.89551e-14 -2.09968e-14 1.50919e-14 0 0 1.45202e-15 1.27941e-14 -8.93908e-15 2.44057e-14 0 0 1.72367e-14 4.12309e-15 -9.91127e-15 3.44374e-14 0 0 2.2876e-14 6.17036e-15 -1.20773e-14 3.29315e-14 0 0 1.53054e-14 6.9787e-15 -1.04811e-15 2.07961e-14 0 0 1.76081e-14 1.82814e-15 5.33124e-15 7.5271e-16 0 0 1.54237e-14 7.25222e-15 -1.48874e-15 -1.11041e-14 0 0 -7.66625e-16 1.57382e-15 1.91613e-14 -2.46222e-14 0 0 3.52996e-15 -7.56976e-15 1.73467e-14 -1.19093e-14 0 0 -9.89595e-15 1.14593e-14 -1.09916e-14 1.74599e-14 0 0 -1.17778e-14 -2.35755e-14 1.0403e-14 6.86007e-15 0 0 -1.49349e-14 -5.21186e-14 4.29261e-15 -7.16154e-16 0 0 -3.30573e-14 -3.65115e-14 -3.03304e-14 1.61574e-14 0 0 1.21424e-14 -5.44951e-14 -2.24086e-14 -8.36805e-16 0 0 2.45154e-14 -1.89735e-14 -3.08731e-14 -2.53134e-14 0 0 -2.21366e-14 2.46367e-14 -3.02543e-14 -3.83994e-14 0 0 -1.33438e-14 -1.07743e-14 -1.49242e-14 -2.99112e-14 0 0 1.38983e-15 -3.43615e-14 -1.63302e-15 -4.62624e-15 0 0 -1.99731e-15 -2.32944e-14 -1.06403e-14 7.93197e-15 0 0 6.48341e-16 -8.60089e-15 -3.75533e-14 6.2246e-15 0 0 2.66691e-14 -1.63321e-14 -3.26625e-14 1.42419e-14 0 0 3.44003e-14 -4.01841e-14 -3.16577e-14 2.43522e-14 0 0 -8.35013e-15 -3.76102e-14 -1.5733e-14 -1.13457e-14 0 0 -7.52533e-15 -2.6826e-14 -9.64577e-15 -2.64692e-14 0 0 -1.10548e-14 -9.24521e-15 -1.80251e-15 -1.86066e-14 0 0 -2.2329e-14 -1.69481e-14 7.65437e-15 -1.16443e-14 0 0 8.74353e-15 -4.03224e-14 1.77813e-14 -1.38834e-14 0 0 -1.20212e-14 -8.38343e-15 8.16875e-15 -2.66865e-14 0 0 -1.16839e-14 9.58774e-15 -2.333e-14 -1.55148e-15 0 0 1.65549e-14 -4.22116e-14 9.54309e-15 -1.44983e-14 0 0 -7.72382e-15 -2.17112e-14 1.45162e-14 -4.05563e-14 0 0 -1.43871e-14 1.22526e-14 -8.29562e-15 -1.75545e-14 0 0 1.03775e-14 -2.99983e-14 1.89522e-15 8.35699e-16 0 0 9.13083e-15 -2.63007e-14 1.88295e-15 -3.0901e-15 0 0 1.08745e-15 8.03591e-15 -2.51275e-14 3.77627e-15 0 0 -6.31298e-15 2.3189e-14 -3.04457e-14 -1.64965e-14 0 0 -2.72456e-14 6.67442e-15 -7.27462e-15 -2.03473e-14 0 0 -1.52334e-14 -5.55999e-15 -4.01066e-15 -5.54629e-16 0 0 -3.30504e-15 -3.65544e-15 4.02489e-15 -1.3634e-14 0 0 1.43705e-14 -8.38281e-15 -2.64153e-15 -3.14869e-16 0 0 1.93187e-15 -1.11478e-14 -7.85231e-16 -3.94674e-15 0 0 -2.75176e-14 -2.26789e-14 2.54065e-14 -9.84396e-15 0 0 -3.90217e-14 2.77715e-15 2.43541e-15 2.03589e-14 0 0 -8.11166e-15 1.92561e-14 -4.20453e-15 1.79855e-14 0 0 9.52458e-15 -1.51628e-14 9.19762e-15 -2.40558e-14 0 0 -1.97926e-14 -7.2657e-14 -4.57467e-14 -4.76219e-14 0 0 -6.83275e-14 -1.38439e-13 -1.30674e-13 -6.93563e-14 0 0 -1.23147e-13 -1.85089e-13 -1.86802e-13 -1.16701e-13 0 0 -1.33831e-13 -2.11075e-13 -2.06452e-13 -1.35727e-13 0 0 -1.11183e-13 -1.83734e-13 -1.736e-13 -1.1832e-13 0 0 -7.70645e-14 -1.11102e-13 -1.18105e-13 -7.36822e-14 0 0 -5.20968e-14 -6.51511e-14 -7.55262e-14 -3.09511e-14 0 0 -3.95629e-14 -4.90837e-14 -8.27396e-14 -7.41385e-15 0 0 -6.16466e-14 -5.36412e-14 -1.00878e-13 -1.44822e-14 0 0 -7.65067e-14 -6.41277e-14 -1.0995e-13 -2.60876e-14 0 0 -8.43334e-14 -8.99369e-14 -1.17943e-13 -1.05411e-13 0 0 -1.06081e-13 -1.37179e-13 -1.50212e-13 -1.16013e-13 0 0 -1.30792e-13 -1.78887e-13 -1.83909e-13 -1.12165e-13 0 0 -1.15187e-13 -1.32536e-13 -1.98261e-13 -1.24178e-13 0 0 4.22005e-14 6.84689e-14 1.32877e-14 1.38748e-14 0 0 2.64473e-13 4.29388e-13 4.08882e-13 2.16729e-13 0 0 4.57206e-13 8.30101e-13 7.58621e-13 4.91509e-13 0 0 5.78056e-13 1.00049e-12 9.74582e-13 6.1847e-13 0 0 5.76244e-13 9.66505e-13 9.91671e-13 6.31123e-13 0 0 5.14525e-13 8.77414e-13 8.74264e-13 6.01159e-13 0 0 4.43016e-13 7.58367e-13 7.66386e-13 5.03854e-13 0 0 3.55102e-13 6.43334e-13 6.52513e-13 4.56922e-13 0 0 2.65036e-13 5.54013e-13 4.71723e-13 3.64728e-13 0 0 2.16437e-13 4.46605e-13 3.50769e-13 2.70821e-13 0 0 1.71007e-13 3.29556e-13 2.99092e-13 2.34233e-13 0 0 1.44768e-13 2.49746e-13 1.97092e-13 1.73249e-13 0 0 1.17175e-13 1.54464e-13 1.50144e-13 1.21597e-13 0 0 6.70614e-14 8.40086e-14 1.19813e-13 5.251e-14 0 0 3.56728e-14 3.75029e-14 4.10119e-14 -1.15443e-14 0 0 7.27766e-15 -2.29121e-14 -2.99698e-14 3.38813e-14 0 0 -3.36743e-14 -3.97451e-14 -8.26676e-14 3.77985e-14 0 0 -8.44985e-14 -4.73135e-14 -1.39445e-13 -2.21852e-14 0 0 -9.35233e-14 -1.14926e-13 -1.65781e-13 -8.82501e-14 0 0 -1.04275e-13 -2.04773e-13 -1.48516e-13 -1.34642e-13 0 0 -1.36565e-13 -2.606e-13 -1.61671e-13 -1.57543e-13 0 0 -1.53533e-13 -3.11681e-13 -1.87568e-13 -2.19589e-13 0 0 -1.86482e-13 -3.43698e-13 -2.14184e-13 -2.40557e-13 0 0 -2.27027e-13 -3.34538e-13 -2.91205e-13 -2.09314e-13 0 0 -2.19551e-13 -3.83485e-13 -3.49869e-13 -2.406e-13 0 0 -2.35449e-13 -3.92723e-13 -4.21283e-13 -2.37739e-13 0 0 -2.53685e-13 -3.87226e-13 -4.72025e-13 -2.5037e-13 0 0 -2.42298e-13 -4.41332e-13 -4.57023e-13 -3.23603e-13 0 0 -2.77228e-13 -4.44325e-13 -4.65072e-13 -3.28265e-13 0 0 -2.87206e-13 -4.16575e-13 -5.03536e-13 -2.86657e-13 0 0 -3.04052e-13 -4.20205e-13 -5.12072e-13 -2.76318e-13 0 0 -2.79846e-13 -3.83238e-13 -4.60923e-13 -2.01367e-13 0 0 -2.42777e-13 -3.97651e-13 -4.61759e-13 -2.12941e-13 0 0 -2.43825e-13 -3.63942e-13 -4.2366e-13 -1.96632e-13 0 0 -2.03675e-13 -3.12064e-13 -3.73027e-13 -1.65064e-13 0 0 -1.48768e-13 -2.83633e-13 -2.89984e-13 -2.02426e-13 0 0 -1.22354e-13 -2.13188e-13 -2.40301e-13 -1.66471e-13 0 0 -8.39559e-14 -1.50838e-13 -1.98698e-13 -1.07664e-13 0 0 -5.22541e-14 -1.06775e-13 -1.54679e-13 -1.90584e-14 0 0 -3.2846e-14 -6.00202e-14 -1.3206e-13 -2.08028e-15 0 0 -1.48109e-14 -4.45544e-14 -7.92342e-14 -6.04466e-14 0 0 -2.57534e-15 -4.36453e-14 -6.63703e-14 -4.83352e-14 0 0 -1.75815e-16 -4.42256e-14 -6.11294e-14 -3.33136e-14 0 0 -2.54263e-15 -6.07191e-14 -4.60115e-14 -3.68018e-14 0 0 -4.78781e-15 -3.42171e-14 -8.58098e-14 -3.20475e-14 0 0 -7.61634e-15 -1.18393e-14 -8.40646e-14 -4.37757e-14 0 0 -1.00834e-14 -2.88877e-14 -6.7145e-14 -3.64127e-14 0 0 -7.98941e-15 -5.65414e-14 -3.49846e-14 -4.62983e-14 0 0 -6.47889e-15 -7.70635e-14 -1.93869e-15 -2.96215e-14 0 0 -1.20137e-14 -6.31229e-14 -2.94422e-14 -2.91064e-15 0 0 -1.42459e-14 -4.48992e-14 -7.6452e-14 2.85858e-14 0 0 -3.29428e-15 -3.93741e-14 -8.03387e-14 4.26247e-14 0 0 -2.45523e-16 -4.75253e-14 -4.16622e-14 -2.20614e-14 0 0 -1.75289e-14 -3.02187e-14 -2.35466e-14 -8.14645e-14 0 0 -1.59816e-14 -1.07657e-14 -2.85649e-14 -6.61204e-14 0 0 7.58446e-15 -3.22622e-14 -2.23733e-14 -4.45825e-14 0 0 1.53803e-14 -3.21306e-14 -3.6317e-14 -2.0523e-14 0 0 1.11564e-14 1.15677e-14 -7.28087e-14 2.67443e-14 0 0 -1.46768e-14 8.86271e-14 -1.16063e-13 3.44685e-14 0 0 4.43307e-15 8.8677e-14 -9.68659e-14 4.00267e-14 0 0 3.83309e-14 4.11608e-14 -1.3722e-14 1.91148e-14 0 0 5.43354e-14 6.61181e-15 3.93425e-15 3.39251e-14 0 0 8.00727e-14 -1.82058e-14 -2.27569e-15 5.55273e-14 0 0 3.10291e-14 8.30648e-14 -3.04991e-14 3.83403e-14 0 0 3.52088e-14 7.06833e-14 1.91021e-14 -3.63863e-14 0 0 5.35152e-14 8.61526e-15 7.092e-14 -1.10975e-13 0 0 2.17489e-14 3.76213e-14 6.89921e-15 -1.13504e-14 0 0 -2.38912e-14 4.01793e-14 4.74881e-16 8.59468e-14 0 0 -6.53839e-14 2.44915e-14 3.64347e-14 4.98033e-14 0 0 -3.34777e-14 1.90793e-14 1.78756e-14 1.8598e-14 0 0 -1.12359e-14 6.39648e-14 -7.6608e-14 5.14547e-14 0 0 -1.37604e-14 4.76909e-14 -7.56248e-14 3.1668e-14 0 0 7.14789e-15 6.34586e-15 -5.96275e-14 3.14845e-14 0 0 5.97571e-14 -4.47797e-14 -4.57147e-14 4.34912e-14 0 0 4.41001e-14 -2.94364e-14 -1.20425e-14 -1.96875e-16 0 0 -3.50602e-14 4.96681e-14 -8.50505e-15 -4.56106e-14 0 0 -3.17586e-14 2.61307e-14 -1.06575e-14 -3.22295e-14 0 0 1.07462e-14 7.2563e-15 -4.86975e-14 3.64615e-14 0 0 -2.79471e-15 3.95023e-14 -5.63982e-14 9.64703e-14 0 0 -2.01685e-14 2.866e-14 8.10893e-15 4.32202e-14 0 0 -2.97689e-14 4.38244e-14 4.88088e-14 -3.3807e-14 0 0 -3.26128e-15 5.74485e-14 9.37162e-15 -2.14722e-14 0 0 3.58297e-14 1.03351e-14 1.38281e-14 1.8845e-14 0 0 -1.50102e-14 3.98699e-14 -6.01703e-15 4.12313e-14 0 0 -4.80993e-14 5.78447e-14 5.93955e-15 -1.62142e-14 0 0 -2.38962e-14 -9.47889e-15 5.25392e-14 -2.5184e-14 0 0 -1.48958e-14 -3.60431e-14 4.54998e-14 1.55513e-15 0 0 -2.33673e-14 -1.27415e-14 4.50829e-14 -1.71452e-14 0 0 -1.10775e-14 -2.91922e-14 5.36427e-14 1.81067e-15 0 0 3.31494e-14 -6.21503e-14 3.27248e-14 3.26251e-14 0 0 2.91908e-14 -3.10209e-14 -3.60809e-15 1.17138e-14 0 0 -1.7158e-14 4.26623e-14 -5.15015e-14 2.33541e-14 0 0 -1.30941e-14 3.43952e-14 -2.15044e-14 3.13488e-14 0 0 1.25564e-14 -1.68527e-14 4.23789e-14 1.20928e-14 0
				</DataArray>
				<DataArray Name="VitesseY" type="Float32" format="ascii">