<?xml version="1.0"?>
<VTKFile type="PolyData">
	<PolyData>
		<Piece NumberOfPoints="1206" NumberOfPolys="1000">
			<Points>
				<DataArray type="Float32" NumberOfComponents="3" format="ascii">
 0 0 0 0.02 0 0 0.04 0 0 0.06 0 0 0.08 0 0 0.1 0 0 0 0.005 0 0.02 0.005 0 0.04 0.005 0 0.06 0.005 0 0.08 0.005 0 0.1 0.005 0 0 0.01 0 0.02 0.01 0 0.04 0.01 0 0.06 0.01 0 0.08 0.01 0 0.1 0.01 0 0 0.015 0 0.02 0.015 0 0.04 0.015 0 0.06 0.015 0 0.08 0.015 0 0.1 0.015 0 0 0.02 0 0.02 0.02 0 0.04 0.02 0 0.06 0.02 0 0.08 0.02 0 0.1 0.02 0 0 0.025 0 0.02 0.025 0 0.04 0.025 0 0.06 0.025 0 0.08 0.025 0 0.1 0.025 0 0 0.03 0 0.02 0.03 0 0.04 0.03 0 0.06 0.03 0 0.08 0.03 0 0.1 0.03 0 0 0.035 0 0.02 0.035 0 0.04 0.035 0 0.06 0.035 0 0.08 0.035 0 0.1 0.035 0 0 0.04 0 0.02 0.04 0 0.04 0.04 0 0.06 0.04 0 0.08 0.04 0 0.1 0.04 0 0 0.045 0 0.02 0.045 0 0.04 0.045 0 0.06 0.045 0 0.08 0.045 0 0.1 0.045 0 0 0.05 0 0.02 0.05 0 0.04 0.05 0 0.06 0.05 0 0.08 0.05 0 0.1 0.05 0 0 0.055 0 0.02 0.055 0 0.04 0.055 0 0.06 0.055 0 0.08 0.055 0 0.1 0.055 0 0 0.06 0 0.02 0.06 0 0.04 0.06 0 0.06 0.06 0 0.08 0.06 0 0.1 0.06 0 0 0.065 0 0.02 0.065 0 0.04 0.065 0 0.06 0.065 0 0.08 0.065 0 0.1 0.065 0 0 0.07 0 0.02 0.07 0 0.04 0.07 0 0.06 0.07 0 0.08 0.07 0 0.1 0.07 0 0 0.075 0 0.02 0.075 0 0.04 0.075 0 0.06 0.075 0 0.08 0.075 0 0.1 0.075 0 0 0.08 0 0.02 0.08 0 0.04 0.08 0 0.06 0.08 0 0.08 0.08 0 0.1 0.08 0 0 0.085 0 0.02 0.085 0 0.04 0.085 0 0.06 0.085 0 0.08 0.085 0 0.1 0.085 0 0 0.09 0 0.02 0.09 0 0.04 0.09 0 0.06 0.09 0 0.08 0.09 0 0.1 0.09 0 0 0.095 0 0.02 0.095 0 0.04 0.095 0 0.06 0.095 0 0.08 0.095 0 0.1 0.095 0 0 0.1 0 0.02 0.1 0 0.04 0.1 0 0.06 0.1 0 0.08 0.1 0 0.1 0.1 0 0 0.105 0 0.02 0.105 0 0.04 0.105 0 0.06 0.105 0 0.08 0.105 0 0.1 0.105 0 0 0.11 0 0.02 0.11 0 0.04 0.11 0 0.06 0.11 0 0.08 0.11 0 0.1 0.11 0 0 0.115 0 0.02 0.115 0 0.04 0.115 0 0.06 0.115 0 0.08 0.115 0 0.1 0.115 0 0 0.12 0 0.02 0.12 0 0.04 0.12 0 0.06 0.12 0 0.08 0.12 0 0.1 0.12 0 0 0.125 0 0.02 0.125 0 0.04 0.125 0 0.06 0.125 0 0.08 0.125 0 0.1 0.125 0 0 0.13 0 0.02 0.13 0 0.04 0.13 0 0.06 0.13 0 0.08 0.13 0 0.1 0.13 0 0 0.135 0 0.02 0.135 0 0.04 0.135 0 0.06 0.135 0 0.08 0.135 0 0.1 0.135 0 0 0.14 0 0.02 0.14 0 0.04 0.14 0 0.06 0.14 0 0.08 0.14 0 0.1 0.14 0 0 0.145 0 0.02 0.145 0 0.04 0.145 0 0.06 0.145 0 0.08 0.145 0 0.1 0.145 0 0 0.15 0 0.02 0.15 0 0.04 0.15 0 0.06 0.15 0 0.08 0.15 0 0.1 0.15 0 0 0.155 0 0.02 0.155 0 0.04 0.155 0 0.06 0.155 0 0.08 0.155 0 0.1 0.155 0 0 0.16 0 0.02 0.16 0 0.04 0.16 0 0.06 0.16 0 0.08 0.16 0 0.1 0.16 0 0 0.165 0 0.02 0.165 0 0.04 0.165 0 0.06 0.165 0 0.08 0.165 0 0.1 0.165 0 0 0.17 0 0.02 0.17 0 0.04 0.17 0 0.06 0.17 0 0.08 0.17 0 0.1 0.17 0 0 0.175 0 0.02 0.175 0 0.04 0.175 0 0.06 0.175 0 0.08 0.175 0 0.1 0.175 0 0 0.18 0 0.02 0.18 0 0.04 0.18 0 0.06 0.18 0 0.08 0.18 0 0.1 0.18 0 0 0.185 0 0.02 0.185 0 0.04 0.185 0 0.06 0.185 0 0.08 0.185 0 0.1 0.185 0 0 0.19 0 0.02 0.19 0 0.04 0.19 0 0.06 0.19 0 0.08 0.19 0 0.1 0.19 0 0 0.195 0 0.02 0.195 0 0.04 0.195 0 0.06 0.195 0 0.08 0.195 0 0.1 0.195 0 0 0.2 0 0.02 0.2 0 0.04 0.2 0 0.06 0.2 0 0.08 0.2 0 0.1 0.2 0 0 0.205 0 0.02 0.205 0 0.04 0.205 0 0.06 0.205 0 0.08 0.205 0 0.1 0.205 0 0 0.21 0 0.02 0.21 0 0.04 0.21 0 0.06 0.21 0 0.08 0.21 0 0.1 0.21 0 0 0.215 0 0.02 0.215 0 0.04 0.215 0 0.06 0.215 0 0.08 0.215 0 0.1 0.215 0 0 0.22 0 0.02 0.22 0 0.04 0.22 0 0.06 0.22 0 0.08 0.22 0 0.1 0.22 0 0 0.225 0 0.02 0.225 0 0.04 0.225 0 0.06 0.225 0 0.08 0.225 0 0.1 0.225 0 0 0.23 0 0.02 0.23 0 0.04 0.23 0 0.06 0.23 0 0.08 0.23 0 0.1 0.23 0 0 0.235 0 0.02 0.235 0 0.04 0.235 0 0.06 0.235 0 0.08 0.235 0 0.1 0.235 0 0 0.24 0 0.02 0.24 0 0.04 0.24 0 0.06 0.24 0 0.08 0.24 0 0.1 0.24 0 0 0.245 0 0.02 0.245 0 0.04 0.245 0 0.06 0.245 0 0.08 0.245 0 0.1 0.245 0 0 0.25 0 0.02 0.25 0 0.04 0.25 0 0.06 0.25 0 0.08 0.25 0 0.1 0.25 0 0 0.255 0 0.02 0.255 0 0.04 0.255 0 0.06 0.255 0 0.08 0.255 0 0.1 0.255 0 0 0.26 0 0.02 0.26 0 0.04 0.26 0 0.06 0.26 0 0.08 0.26 0 0.1 0.26 0 0 0.265 0 0.02 0.265 0 0.04 0.265 0 0.06 0.265 0 0.08 0.265 0 0.1 0.265 0 0 0.27 0 0.02 0.27 0 0.04 0.27 0 0.06 0.27 0 0.08 0.27 0 0.1 0.27 0 0 0.275 0 0.02 0.275 0 0.04 0.275 0 0.06 0.275 0 0.08 0.275 0 0.1 0.275 0 0 0.28 0 0.02 0.28 0 0.04 0.28 0 0.06 0.28 0 0.08 0.28 0 0.1 0.28 0 0 0.285 0 0.02 0.285 0 0.04 0.285 0 0.06 0.285 0 0.08 0.285 0 0.1 0.285 0 0 0.29 0 0.02 0.29 0 0.04 0.29 0 0.06 0.29 0 0.08 0.29 0 0.1 0.29 0 0 0.295 0 0.02 0.295 0 0.04 0.295 0 0.06 0.295 0 0.08 0.295 0 0.1 0.295 0 0 0.3 0 0.02 0.3 0 0.04 0.3 0 0.06 0.3 0 0.08 0.3 0 0.1 0.3 0 0 0.305 0 0.02 0.305 0 0.04 0.305 0 0.06 0.305 0 0.08 0.305 0 0.1 0.305 0 0 0.31 0 0.02 0.31 0 0.04 0.31 0 0.06 0.31 0 0.08 0.31 0 0.1 0.31 0 0 0.315 0 0.02 0.315 0 0.04 0.315 0 0.06 0.315 0 0.08 0.315 0 0.1 0.315 0 0 0.32 0 0.02 0.32 0 0.04 0.32 0 0.06 0.32 0 0.08 0.32 0 0.1 0.32 0 0 0.325 0 0.02 0.325 0 0.04 0.325 0 0.06 0.325 0 0.08 0.325 0 0.1 0.325 0 0 0.33 0 0.02 0.33 0 0.04 0.33 0 0.06 0.33 0 0.08 0.33 0 0.1 0.33 0 0 0.335 0 0.02 0.335 0 0.04 0.335 0 0.06 0.335 0 0.08 0.335 0 0.1 0.335 0 0 0.34 0 0.02 0.34 0 0.04 0.34 0 0.06 0.34 0 0.08 0.34 0 0.1 0.34 0 0 0.345 0 0.02 0.345 0 0.04 0.345 0 0.06 0.345 0 0.08 0.345 0 0.1 0.345 0 0 0.35 0 0.02 0.35 0 0.04 0.35 0 0.06 0.35 0 0.08 0.35 0 0.1 0.35 0 0 0.355 0 0.02 0.355 0 0.04 0.355 0 0.06 0.355 0 0.08 0.355 0 0.1 0.355 0 0 0.36 0 0.02 0.36 0 0.04 0.36 0 0.06 0.36 0 0.08 0.36 0 0.1 0.36 0 0 0.365001 0 0.02 0.365001 0 0.04 0.365001 0 0.06 0.365001 0 0.08 0.365001 0 0.1 0.365001 0 0 0.370002 0 0.02 0.370002 0 0.04 0.370002 0 0.06 0.370002 0 0.08 0.370002 0 0.1 0.370002 0 0 0.375009 0 0.02 0.375009 0 0.04 0.375009 0 0.06 0.375009 0 0.08 0.375009 0 0.1 0.375009 0 0 0.380028 0 0.02 0.380028 0 0.04 0.380028 0 0.06 0.380028 0 0.08 0.380028 0 0.1 0.380028 0 0 0.385079 0 0.02 0.385079 0 0.04 0.385079 0 0.06 0.385079 0 0.08 0.385079 0 0.1 0.385079 0 0 0.390193 0 0.02 0.390193 0 0.04 0.390193 0 0.06 0.390193 0 0.08 0.390193 0 0.1 0.390193 0 0 0.39541 0 0.02 0.39541 0 0.04 0.39541 0 0.06 0.39541 0 0.08 0.39541 0 0.1 0.39541 0 0 0.400774 0 0.02 0.400774 0 0.04 0.400774 0 0.06 0.400774 0 0.08 0.400774 0 0.1 0.400774 0 0 0.406324 0 0.02 0.406324 0 0.04 0.406324 0 0.06 0.406324 0 0.08 0.406324 0 0.1 0.406324 0 0 0.412094 0 0.02 0.412094 0 0.04 0.412094 0 0.06 0.412094 0 0.08 0.412094 0 0.1 0.412094 0 0 0.418114 0 0.02 0.418114 0 0.04 0.418114 0 0.06 0.418114 0 0.08 0.418114 0 0.1 0.418114 0 0 0.424417 0 0.02 0.424417 0 0.04 0.424417 0 0.06 0.424417 0 0.08 0.424417 0 0.1 0.424417 0 0 0.431037 0 0.02 0.431037 0 0.04 0.431037 0 0.06 0.431037 0 0.08 0.431037 0 0.1 0.431037 0 0 0.438015 0 0.02 0.438015 0 0.04 0.438015 0 0.06 0.438015 0 0.08 0.438015 0 0.1 0.438015 0 0 0.445396 0 0.02 0.445396 0 0.04 0.445396 0 0.06 0.445396 0 0.08 0.445396 0 0.1 0.445396 0 0 0.453237 0 0.02 0.453237 0 0.04 0.453237 0 0.06 0.453237 0 0.08 0.453237 0 0.1 0.453237 0 0 0.461604 0 0.02 0.461604 0 0.04 0.461604 0 0.06 0.461604 0 0.08 0.461604 0 0.1 0.461604 0 0 0.470576 0 0.02 0.470576 0 0.04 0.470576 0 0.06 0.470576 0 0.08 0.470576 0 0.1 0.470576 0 0 0.480246 0 0.02 0.480246 0 0.04 0.480246 0 0.06 0.480246 0 0.08 0.480246 0 0.1 0.480246 0 0 0.490713 0 0.02 0.490713 0 0.04 0.490713 0 0.06 0.490713 0 0.08 0.490713 0 0.1 0.490713 0 0 0.50205 0 0.02 0.50205 0 0.04 0.50205 0 0.06 0.50205 0 0.08 0.50205 0 0.1 0.50205 0 0 0.514153 0 0.02 0.514153 0 0.04 0.514153 0 0.06 0.514153 0 0.08 0.514153 0 0.1 0.514153 0 0 0.526427 0 0.02 0.526427 0 0.04 0.526427 0 0.06 0.526427 0 0.08 0.526427 0 0.1 0.526427 0 0 0.538496 0 0.02 0.538496 0 0.04 0.538496 0 0.06 0.538496 0 0.08 0.538496 0 0.1 0.538496 0 0 0.550395 0 0.02 0.550395 0 0.04 0.550395 0 0.06 0.550395 0 0.08 0.550395 0 0.1 0.550395 0 0 0.562199 0 0.02 0.562199 0 0.04 0.562199 0 0.06 0.562199 0 0.08 0.562199 0 0.1 0.562199 0 0 0.573974 0 0.02 0.573974 0 0.04 0.573974 0 0.06 0.573974 0 0.08 0.573974 0 0.1 0.573974 0 0 0.585756 0 0.02 0.585756 0 0.04 0.585756 0 0.06 0.585756 0 0.08 0.585756 0 0.1 0.585756 0 0 0.588373 0 0.02 0.588373 0 0.04 0.588373 0 0.06 0.588373 0 0.08 0.588373 0 0.1 0.588373 0 0 0.590915 0 0.02 0.590915 0 0.04 0.590915 0 0.06 0.590915 0 0.08 0.590915 0 0.1 0.590915 0 0 0.59341 0 0.02 0.59341 0 0.04 0.59341 0 0.06 0.59341 0 0.08 0.59341 0 0.1 0.59341 0 0 0.595873 0 0.02 0.595873 0 0.04 0.595873 0 0.06 0.595873 0 0.08 0.595873 0 0.1 0.595873 0 0 0.598315 0 0.02 0.598315 0 0.04 0.598315 0 0.06 0.598315 0 0.08 0.598315 0 0.1 0.598315 0 0 0.60074 0 0.02 0.60074 0 0.04 0.60074 0 0.06 0.60074 0 0.08 0.60074 0 0.1 0.60074 0 0 0.603153 0 0.02 0.603153 0 0.04 0.603153 0 0.06 0.603153 0 0.08 0.603153 0 0.1 0.603153 0 0 0.605557 0 0.02 0.605557 0 0.04 0.605557 0 0.06 0.605557 0 0.08 0.605557 0 0.1 0.605557 0 0 0.607954 0 0.02 0.607954 0 0.04 0.607954 0 0.06 0.607954 0 0.08 0.607954 0 0.1 0.607954 0 0 0.610347 0 0.02 0.610347 0 0.04 0.610347 0 0.06 0.610347 0 0.08 0.610347 0 0.1 0.610347 0 0 0.612736 0 0.02 0.612736 0 0.04 0.612736 0 0.06 0.612736 0 0.08 0.612736 0 0.1 0.612736 0 0 0.615122 0 0.02 0.615122 0 0.04 0.615122 0 0.06 0.615122 0 0.08 0.615122 0 0.1 0.615122 0 0 0.617504 0 0.02 0.617504 0 0.04 0.617504 0 0.06 0.617504 0 0.08 0.617504 0 0.1 0.617504 0 0 0.619882 0 0.02 0.619882 0 0.04 0.619882 0 0.06 0.619882 0 0.08 0.619882 0 0.1 0.619882 0 0 0.622257 0 0.02 0.622257 0 0.04 0.622257 0 0.06 0.622257 0 0.08 0.622257 0 0.1 0.622257 0 0 0.62463 0 0.02 0.62463 0 0.04 0.62463 0 0.06 0.62463 0 0.08 0.62463 0 0.1 0.62463 0 0 0.627001 0 0.02 0.627001 0 0.04 0.627001 0 0.06 0.627001 0 0.08 0.627001 0 0.1 0.627001 0 0 0.629371 0 0.02 0.629371 0 0.04 0.629371 0 0.06 0.629371 0 0.08 0.629371 0 0.1 0.629371 0 0 0.631739 0 0.02 0.631739 0 0.04 0.631739 0 0.06 0.631739 0 0.08 0.631739 0 0.1 0.631739 0 0 0.634107 0 0.02 0.634107 0 0.04 0.634107 0 0.06 0.634107 0 0.08 0.634107 0 0.1 0.634107 0 0 0.636476 0 0.02 0.636476 0 0.04 0.636476 0 0.06 0.636476 0 0.08 0.636476 0 0.1 0.636476 0 0 0.638849 0 0.02 0.638849 0 0.04 0.638849 0 0.06 0.638849 0 0.08 0.638849 0 0.1 0.638849 0 0 0.641225 0 0.02 0.641225 0 0.04 0.641225 0 0.06 0.641225 0 0.08 0.641225 0 0.1 0.641225 0
[...]
			<PointData Scalars="VitesseX">
				<DataArray Name="VitesseX" type="Float32" format="ascii">
 0 -4.838e-15 -8.88425e-15 -6.33595e-15 -1.26626e-14 0 0 -4.98071e-15 -8.7509e-15 -6.42079e-15 -1.2559e-14 0 0 -5.73065e-15 -8.00239e-15 -6.63848e-15 -1.25132e-14 0 0 -7.07914e-15 -6.56804e-15 -6.98396e-15 -1.16261e-14 0 0 -7.91102e-15 -6.01536e-15 -6.7886e-15 -1.04555e-14 0 0 -7.70964e-15 -5.78097e-15 -5.77715e-15 -1.06461e-14 0 0 -6.93315e-15 -4.20494e-15 -5.33918e-15 -1.02806e-14 0 0 -5.68625e-15 -3.51555e-15 -4.22605e-15 -9.94817e-15 0 0 -3.52731e-15 -4.71027e-15 -1.23676e-15 -1.06755e-14 0 0 -2.3889e-15 -5.64192e-15 3.86681e-16 -9.6157e-15 0 0 -1.17418e-15 -6.58118e-15 -2.04699e-16 -8.53422e-15 0 0 1.82102e-15 -7.95555e-15 -1.45862e-15 -7.74409e-15 0 0 2.08296e-15 -6.71627e-15 -3.50338e-15 -7.96815e-15 0 0 3.36941e-16 -5.34575e-15 -6.1116e-15 -7.63313e-15 0 0 -1.82187e-15 -3.79342e-15 -9.39484e-15 -4.88115e-15 0 0 -2.77549e-15 -4.06755e-15 -1.2018e-14 -3.902e-15 0 0 -2.69773e-15 -6.5935e-15 -1.5283e-14 -3.01573e-15 0 0 -3.51242e-15 -7.85491e-15 -1.76665e-14 -4.61128e-15 0 0 -3.86054e-15 -1.2996e-14 -1.37012e-14 -7.99099e-15 0 0 -3.10035e-15 -1.89115e-14 -1.11026e-14 -1.17303e-14 0 0 -4.47569e-15 -1.70622e-14 -1.35609e-14 -1.51811e-14 0 0 -6.19615e-15 -1.67924e-14 -1.31905e-14 -1.48754e-14 0 0 -7.49856e-15 -1.84068e-14 -9.1079e-15 -1.32601e-14 0 0 -1.00287e-14 -1.60323e-14 -7.98723e-15 -1.1672e-14 0 0 -1.06826e-14 -1.37566e-14 -1.47453e-14 -2.67498e-15 0 0 -6.20836e-15 -1.73232e-14 -1.59069e-14 6.07292e-15 0 0 -2.511e-15 -2.03392e-14 -1.34634e-14 1.19011e-14 0 0 -5.50157e-15 -1.70702e-14 -1.02562e-14 7.80979e-15 0 0 -5.38488e-15 -1.75109e-14 -4.11699e-16 -1.10943e-14 0 0 -4.63383e-15 -1.52969e-14 -1.54401e-15 -1.605e-14 0 0 -6.73508e-15 -9.46038e-15 -4.81343e-15 -1.23456e-14 0 0 -5.43339e-15 -1.52867e-15 -1.60705e-14 9.30754e-17 0 0 -1.6129e-15 1.05627e-15 -2.83554e-14 1.58784e-14 0 0 6.57291e-16 -3.00661e-16 -2.37077e-14 1.62643e-14 0 0 4.89979e-15 -2.99641e-15 -1.50256e-14 9.74324e-15 0 0 8.72086e-15 -2.69428e-15 -1.50059e-14 6.66723e-15 0 0 2.63507e-15 5.01865e-15 -1.45158e-14 1.9536e-17 0 0 -3.26203e-15 1.43631e-14 -1.19663e-14 -1.01753e-14 0 0 3.87587e-15 4.42279e-15 -1.90037e-15 -1.89828e-14 0 0 1.48237e-14 -1.17597e-14 -2.73714e-15 -1.19794e-14 0 0 1.0485e-14 -3.19898e-15 -2.30216e-14 2.70235e-15 0 0 -3.16588e-15 8.96778e-15 -2.94149e-14 -2.1379e-15 0 0 -2.41596e-15 -3.20866e-15 -2.57322e-14 -4.77142e-17 0 0 6.47383e-15 -2.25318e-14 -1.71717e-14 7.92806e-15 0 0 4.81384e-15 -1.75667e-14 -2.66681e-14 6.66587e-15 0 0 -4.49532e-15 -6.46017e-15 -3.03341e-14 -1.83051e-16 0 0 -5.50304e-15 -9.41013e-15 -2.42045e-14 -6.31807e-15 0 0 -2.03393e-15 -1.6617e-14 -2.56033e-14 -3.25305e-15 0 0 -8.18272e-16 -2.32041e-14 -2.66355e-14 3.80105e-15 0 0 1.32189e-15 -2.67741e-14 -3.80854e-14 1.40398e-14 0 0 -6.71553e-15 -1.9778e-14 -4.6382e-14 8.82645e-15 0 0 -1.60484e-14 -1.94175e-14 -3.955e-14 -5.0451e-15 0 0 -1.74673e-14 -1.87608e-14 -3.69384e-14 1.92829e-15 0 0 -1.9811e-14 -1.78686e-14 -3.72645e-14 7.36452e-15 0 0 -2.08297e-14 -1.50213e-14 -3.96149e-14 1.87267e-16 0 0 -9.03727e-15 -1.92037e-14 -3.66874e-14 -7.21448e-15 0 0 -7.94719e-15 -1.46667e-14 -3.47971e-14 -1.59621e-14 0 0 -7.17133e-15 -1.92586e-14 -2.58688e-14 -2.78087e-14 0 0 -5.15959e-15 -3.47224e-14 -5.85723e-15 -2.69359e-14 0 0 -1.58351e-14 -1.78134e-14 -1.24145e-14 -1.6626e-14 0 0 -1.24686e-14 -1.2497e-14 -2.34281e-14 -8.19169e-15 0 0 1.69183e-15 -1.47834e-14 -2.15015e-14 -1.12946e-14 0 0 7.36813e-15 1.14891e-14 -1.97763e-14 -2.19409e-14 0 0 8.8819e-15 3.25702e-14 -4.08101e-15 -2.46056e-14 0 0 2.49142e-14 4.13199e-14 1.03523e-14 -2.30338e-14 0 0 4.17116e-14 4.38939e-14 2.13924e-14 -7.05939e-15 0 0 4.31678e-14 3.55691e-14 5.04667e-14 7.72982e-15 0 0 3.26631e-14 4.86892e-14 5.80484e-14 1.12809e-14 0 0 3.83701e-14 5.02846e-14 4.80191e-14 4.88149e-15 0 0 5.45695e-14 4.37143e-14 3.85772e-14 2.1023e-14 0 0 4.32586e-14 4.80356e-14 4.06721e-14 3.72793e-14 0 0 3.33036e-14 4.61722e-14 4.36373e-14 3.67272e-14 0 0 2.77259e-14 4.52639e-14 3.44612e-14 4.27595e-14 0 0 1.41742e-14 3.85192e-14 4.27891e-14 5.33009e-14 0 0 9.1908e-15 2.00645e-14 6.12554e-14 4.03591e-14 0 0 8.22562e-15 2.84933e-14 5.925e-14 1.48006e-14 0 0 1.45888e-14 3.36756e-14 5.23927e-14 1.37038e-14 0 0 -5.14382e-15 3.77202e-14 3.47392e-14 1.57494e-14 0 0 -1.93021e-15 2.61539e-14 3.18914e-14 1.60386e-14 0 0 1.19787e-14 3.56624e-14 2.6183e-14 2.30078e-14 0 0 3.41805e-15 5.51597e-14 1.85542e-14 1.50093e-14 0 0 7.67098e-15 3.7275e-14 2.47494e-14 1.60829e-14 0 0 7.63181e-15 2.85156e-14 3.56283e-14 1.55349e-14 0 0 1.32086e-14 2.09978e-14 4.9438e-14 -1.21966e-14 0 0 2.10301e-15 1.58972e-14 3.4713e-14 -6.26776e-15 0 0 -4.18003e-15 2.18137e-14 3.20802e-14 -1.06957e-14 0 0 3.76121e-15 4.25327e-14 2.92033e-14 -2.9232e-14 0 0 6.09616e-15 2.69397e-14 4.58516e-15 3.18632e-15 0 0 1.43672e-14 5.97498e-15 1.84122e-15 2.03637e-14 0 0 -1.10079e-15 3.27354e-14 -2.25326e-15 2.92475e-14 0 0 1.22041e-15 2.80372e-14 7.81483e-15 1.06478e-14 0 0 2.3911e-14 -7.14356e-15 2.13577e-14 -1.54204e-14 0 0 -9.5085e-15 -4.65863e-15 3.2911e-15 -1.59494e-14 0 0 -3.73377e-14 1.47229e-14 -3.02887e-15 -3.17954e-14 0 0 -2.12701e-15 6.54342e-16 1.10263e-14 -2.05275e-14 0 0 2.16241e-14 -1.54525e-14 1.12916e-14 5.04405e-15 0 0 1.69807e-14 -1.68667e-14 1.28442e-14 1.47243e-15 0 0 2.91953e-15 1.78977e-15 8.64923e-15 1.39926e-14 0 0 5.1672e-16 2.41055e-14 1.6553e-14 1.29578e-14 0 0 1.77713e-14 2.09175e-14 2.89124e-14 1.6176e-14 0 0 2.87504e-14 2.45167e-14 3.93989e-14 3.75349e-14 0 0 5.75257e-14 7.60985e-14 1.96785e-15 6.74494e-14 0 0 5.56e-14 8.4717e-14 -2.85955e-14 1.00022e-13 0 0 4.36728e-14 6.93188e-14 9.14218e-15 7.0251e-14 0 0 4.92616e-14 5.31283e-14 3.77024e-14 3.19084e-14 0 0 2.29742e-14 9.62938e-14 3.06981e-15 3.84474e-14 0 0 1.03544e-14 9.0621e-14 3.91569e-14 2.68962e-14 0 0 9.974e-15 8.27378e-14 2.35522e-14 3.34634e-14 0 0 1.10604e-14 1.01199e-13 -4.55879e-15 3.28582e-14 0 0 1.60865e-14 5.99858e-14 1.49644e-15 2.31293e-14 0 0 1.59718e-14 2.99511e-14 5.22508e-15 -4.8896e-14 0 0 2.58706e-14 5.28177e-15 -1.20588e-15 -4.78157e-14 0 0 2.38611e-14 -6.0824e-15 -2.16174e-14 -2.12579e-14 0 0 3.19248e-14 -3.24433e-15 -1.82272e-14 -9.03163e-14 0 0 2.8768e-14 -9.43339e-15 -2.81867e-14 -2.52388e-14 0 0 4.8454e-14 -2.85883e-14 -1.1456e-14 -1.24979e-14 0 0 4.72052e-14 -2.48066e-15 -1.50982e-14 -3.57188e-14 0 0 -2.90479e-14 7.38534e-14 -5.08509e-14 -1.54613e-14 0 0 -5.60468e-14 5.26821e-14 3.85713e-14 -8.77594e-14 0 0 3.13417e-14 -6.65172e-14 1.67023e-13 -9.69264e-14 0 0 7.8061e-14 -1.07128e-13 1.61568e-13 -5.29709e-14 0 0 1.18732e-14 -5.74246e-14 1.57041e-13 -9.61964e-14 0 0 -2.76098e-14 -3.73991e-14 2.0892e-13 -1.58593e-13 0 0 1.37825e-14 -9.23135e-14 2.26812e-13 -9.84022e-14 0 0 3.10172e-15 -3.46938e-14 1.26754e-13 2.98823e-14 0 0 -2.25483e-14 3.93016e-14 7.56477e-14 1.94129e-14 0 0 -6.36091e-15 2.13959e-14 7.77338e-14 4.19285e-14 0 0 -5.34624e-15 3.03211e-14 4.17559e-15 1.54907e-13 0 0 -7.40073e-15 2.47607e-14 3.35516e-14 1.74026e-13 0 0 2.10667e-14 -1.27047e-15 9.72416e-14 1.49826e-13 0 0 4.09765e-14 5.43656e-15 7.15418e-14 1.35563e-13 0 0 1.10159e-14 6.40204e-14 4.48794e-14 1.20854e-13 0 0 3.92493e-15 8.87476e-14 1.76583e-14 1.22619e-13 0 0 2.21198e-14 5.36718e-14 3.74976e-14 8.87942e-14 0 0 3.43771e-14 3.91931e-14 3.14687e-14 5.91655e-14 0 0 2.06326e-14 4.83259e-14 3.76157e-14 8.56706e-15 0 0 3.46814e-14 1.49427e-14 7.22215e-14 -1.31238e-14 0 0 4.79713e-14 1.39757e-14 3.71889e-14 4.90259e-14 0 0 3.53612e-14 4.14416e-14 2.00272e-14 5.69123e-14 0 0 3.76071e-14 2.70269e-14 4.14334e-14 2.63057e-14 0 0 3.66692e-14 2.91474e-14 6.95347e-14 1.95779e-14 0 0 3.40444e-14 4.30141e-14 5.82981e-14 2.0707e-14 0 0 4.13764e-14 3.6699e-14 5.68588e-14 9.20222e-15 0 0 3.82184e-14 4.90087e-14 4.93022e-14 9.76218e-15 0 0 2.82877e-14 5.30053e-14 4.6962e-14 4.28141e-16 0 0 1.66603e-14 5.08025e-14 3.81189e-14 3.8763e-14 0 0 1.80981e-14 5.85893e-14 2.14725e-14 6.48936e-14 0 0 3.67433e-14 3.80632e-14 5.2596e-14 2.30308e-14 0 0 2.90706e-14 3.8824e-14 4.54786e-14 4.18019e-14 0 0 1.03785e-14 5.36678e-14 1.63063e-15 7.48774e-14 0 0 1.05464e-14 5.4174e-14 -5.08045e-15 8.53161e-14 0 0 2.07429e-14 2.32961e-14 2.90615e-14 5.37689e-14 0 0 2.35235e-14 -2.23191e-15 2.13332e-14 7.31025e-14 0 0 2.91964e-14 -1.21679e-14 -1.30896e-14 1.27417e-13 0 0 2.98912e-14 -3.69786e-14 -1.82879e-15 9.34806e-14 0 0 1.98153e-14 -3.87376e-14 1.73475e-14 3.10269e-14 0 0 5.82198e-16 -2.12349e-14 2.43683e-14 1.57798e-15 0 0 -5.80282e-15 -6.33531e-15 -1.32278e-14 2.66041e-14 0 0 -2.55951e-14 2.21632e-14 -5.76549e-14 3.40259e-14 0 0 -3.72902e-14 2.44008e-14 -5.41792e-14 6.22515e-15 0 0 5.68321e-15 -2.79989e-14 -4.06159e-14 -1.82471e-14 0 0 5.74698e-15 -4.50807e-14 -6.06589e-14 7.76127e-15 0 0 -4.31436e-14 -1.98034e-15 -9.74448e-14 3.51589e-14 0 0 -4.94672e-14 4.27151e-15 -6.12167e-14 -1.81152e-14 0 0 -2.71624e-14 -2.76518e-14 -2.97283e-14 -5.89223e-14 0 0 -1.42166e-14 -6.84617e-14 -2.33916e-14 -4.98368e-14 0 0 -6.49579e-15 -8.65988e-14 -4.2258e-14 -3.04877e-14 0 0 -2.1546e-14 -5.03783e-14 -8.40988e-14 -2.64284e-14 0 0 -2.21866e-14 -5.54231e-14 -2.74438e-14 -8.97079e-14 0 0 -2.38872e-14 -5.60224e-14 -3.29763e-14 -9.19479e-14 0 0 -4.04217e-14 -2.4034e-14 -8.88879e-14 -1.26205e-14 0 0 -5.33495e-14 2.68479e-15 -1.26693e-13 4.17986e-14 0 0 -3.33262e-14 -4.15406e-14 -1.27457e-13 4.50746e-14 0 0 8.48769e-15 -1.38196e-13 -5.50823e-14 -4.10366e-15 0 0 -2.1057e-14 -1.43516e-13 -1.36429e-14 -3.84986e-14 0 0 -6.5852e-14 -9.77588e-14 -2.80734e-14 -5.96548e-14 0 0 -6.03092e-14 -9.52909e-14 -3.09089e-14 -8.08343e-14 0 0 -2.4107e-14 -1.09355e-13 -1.41907e-14 -9.37319e-14 0 0 -5.75819e-15 -1.03994e-13 -2.44881e-14 -1.05588e-13 0 0 -1.51404e-14 -6.73949e-14 -2.60457e-14 -1.28165e-13 0 0 1.43227e-16 -3.31473e-14 -4.60086e-14 -1.23251e-13 0 0 1.19148e-15 -2.34488e-14 -7.46658e-14 -4.63808e-14 0 0 -3.63535e-15 3.90742e-15 -1.38712e-13 2.09323e-14 0 0 2.35726e-14 -3.19073e-14 -1.13117e-13 -8.95043e-15 0 0 2.61086e-14 -6.93024e-14 -2.91717e-14 -6.69085e-14 0 0 -1.1821e-14 -1.5196e-14 -4.16559e-14 -5.84547e-14 0 0 -2.4895e-14 -1.75147e-14 -3.05705e-14 -2.11708e-14 0 0 -1.90596e-14 -1.44452e-14 -3.9105e-14 -3.78878e-14 0 0 -2.62743e-14 8.32283e-15 -5.76024e-14 -6.29472e-14 0 0 -3.47744e-14 -2.0941e-15 -6.54083e-14 -5.59484e-14 0 0 -3.76705e-14 -8.3517e-15 -5.69896e-14 -5.25364e-14 0 0 -3.81773e-15 -5.16496e-14 -2.58709e-14 -5.59448e-14 0 0 -8.10476e-15 -4.08399e-14 -3.63954e-14 -5.2029e-14 0 0 -3.29901e-14 -9.24764e-15 -2.94632e-14 -5.51323e-14 0 0 -4.92712e-14 -1.56084e-14 1.46479e-15 -6.14464e-14 0 0 -4.47689e-14 -4.73102e-14 1.04883e-14 -5.02481e-14 0 0 -3.0449e-14 -5.52111e-14 -3.48243e-14 -3.00178e-14 0 0 -4.46055e-14 -4.02063e-14 -6.43692e-14 -3.19213e-14 0 0 -6.06848e-14 -2.83453e-14 -7.03731e-14 -5.04927e-14 0 0 -5.08743e-14 -3.44258e-14 -7.48697e-14 -6.99248e-14 0 0 -2.65047e-14 -6.55285e-14 -5.1458e-14 -9.01675e-14 0
				</DataArray>
				<DataArray Name="VitesseY" type="Float32" format="ascii">