<?xml version="1.0"?>
<VTKFile type="PolyData">
	<PolyData>
		<Piece NumberOfPoints="1206" NumberOfPolys="1000">
			<Points>
				<DataArray type="Float32" NumberOfComponents="3" format="ascii">
 0 0 0 0.02 0 0 0.04 0 0 0.06 0 0 0.08 0 0 0.1 0 0 0 0.005 0 0.02 0.005 0 0.04 0.005 0 0.06 0.005 0 0.08 0.005 0 0.1 0.005 0 0 0.01 0 0.02 0.01 0 0.04 0.01 0 0.06 0.01 0 0.08 0.01 0 0.1 0.01 0 0 0.015 0 0.02 0.015 0 0.04 0.015 0 0.06 0.015 0 0.08 0.015 0 0.1 0.015 0 0 0.02 0 0.02 0.02 0 0.04 0.02 0 0.06 0.02 0 0.08 0.02 0 0.1 0.02 0 0 0.025 0 0.02 0.025 0 0.04 0.025 0 0.06 0.025 0 0.08 0.025 0 0.1 0.025 0 0 0.03 0 0.02 0.03 0 0.04 0.03 0 0.06 0.03 0 0.08 0.03 0 0.1 0.03 0 0 0.035 0 0.02 0.035 0 0.04 0.035 0 0.06 0.035 0 0.08 0.035 0 0.1 0.035 0 0 0.04 0 0.02 0.04 0 0.04 0.04 0 0.06 0.04 0 0.08 0.04 0 0.1 0.04 0 0 0.045 0 0.02 0.045 0 0.04 0.045 0 0.06 0.045 0 0.08 0.045 0 0.1 0.045 0 0 0.05 0 0.02 0.05 0 0.04 0.05 0 0.06 0.05 0 0.08 0.05 0 0.1 0.05 0 0 0.055 0 0.02 0.055 0 0.04 0.055 0 0.06 0.055 0 0.08 0.055 0 0.1 0.055 0 0 0.06 0 0.02 0.06 0 0.04 0.06 0 0.06 0.06 0 0.08 0.06 0 0.1 0.06 0 0 0.065 0 0.02 0.065 0 0.04 0.065 0 0.06 0.065 0 0.08 0.065 0 0.1 0.065 0 0 0.07 0 0.02 0.07 0 0.04 0.07 0 0.06 0.07 0 0.08 0.07 0 0.1 0.07 0 0 0.075 0 0.02 0.075 0 0.04 0.075 0 0.06 0.075 0 0.08 0.075 0 0.1 0.075 0 0 0.08 0 0.02 0.08 0 0.04 0.08 0 0.06 0.08 0 0.08 0.08 0 0.1 0.08 0 0 0.085 0 0.02 0.085 0 0.04 0.085 0 0.06 0.085 0 0.08 0.085 0 0.1 0.085 0 0 0.09 0 0.02 0.09 0 0.04 0.09 0 0.06 0.09 0 0.08 0.09 0 0.1 0.09 0 0 0.095 0 0.02 0.095 0 0.04 0.095 0 0.06 0.095 0 0.08 0.095 0 0.1 0.095 0 0 0.1 0 0.02 0.1 0 0.04 0.1 0 0.06 0.1 0 0.08 0.1 0 0.1 0.1 0 0 0.105 0 0.02 0.105 0 0.04 0.105 0 0.06 0.105 0 0.08 0.105 0 0.1 0.105 0 0 0.11 0 0.02 0.11 0 0.04 0.11 0 0.06 0.11 0 0.08 0.11 0 0.1 0.11 0 0 0.115 0 0.02 0.115 0 0.04 0.115 0 0.06 0.115 0 0.08 0.115 0 0.1 0.115 0 0 0.12 0 0.02 0.12 0 0.04 0.12 0 0.06 0.12 0 0.08 0.12 0 0.1 0.12 0 0 0.125 0 0.02 0.125 0 0.04 0.125 0 0.06 0.125 0 0.08 0.125 0 0.1 0.125 0 0 0.13 0 0.02 0.13 0 0.04 0.13 0 0.06 0.13 0 0.08 0.13 0 0.1 0.13 0 0 0.135 0 0.02 0.135 0 0.04 0.135 0 0.06 0.135 0 0.08 0.135 0 0.1 0.135 0 0 0.14 0 0.02 0.14 0 0.04 0.14 0 0.06 0.14 0 0.08 0.14 0 0.1 0.14 0 0 0.145 0 0.02 0.145 0 0.04 0.145 0 0.06 0.145 0 0.08 0.145 0 0.1 0.145 0 0 0.15 0 0.02 0.15 0 0.04 0.15 0 0.06 0.15 0 0.08 0.15 0 0.1 0.15 0 0 0.155 0 0.02 0.155 0 0.04 0.155 0 0.06 0.155 0 0.08 0.155 0 0.1 0.155 0 0 0.16 0 0.02 0.16 0 0.04 0.16 0 0.06 0.16 0 0.08 0.16 0 0.1 0.16 0 0 0.165 0 0.02 0.165 0 0.04 0.165 0 0.06 0.165 0 0.08 0.165 0 0.1 0.165 0 0 0.17 0 0.02 0.17 0 0.04 0.17 0 0.06 0.17 0 0.08 0.17 0 0.1 0.17 0 0 0.175 0 0.02 0.175 0 0.04 0.175 0 0.06 0.175 0 0.08 0.175 0 0.1 0.175 0 0 0.18 0 0.02 0.18 0 0.04 0.18 0 0.06 0.18 0 0.08 0.18 0 0.1 0.18 0 0 0.185 0 0.02 0.185 0 0.04 0.185 0 0.06 0.185 0 0.08 0.185 0 0.1 0.185 0 0 0.19 0 0.02 0.19 0 0.04 0.19 0 0.06 0.19 0 0.08 0.19 0 0.1 0.19 0 0 0.195 0 0.02 0.195 0 0.04 0.195 0 0.06 0.195 0 0.08 0.195 0 0.1 0.195 0 0 0.2 0 0.02 0.2 0 0.04 0.2 0 0.06 0.2 0 0.08 0.2 0 0.1 0.2 0 0 0.205 0 0.02 0.205 0 0.04 0.205 0 0.06 0.205 0 0.08 0.205 0 0.1 0.205 0 0 0.21 0 0.02 0.21 0 0.04 0.21 0 0.06 0.21 0 0.08 0.21 0 0.1 0.21 0 0 0.215 0 0.02 0.215 0 0.04 0.215 0 0.06 0.215 0 0.08 0.215 0 0.1 0.215 0 0 0.22 0 0.02 0.22 0 0.04 0.22 0 0.06 0.22 0 0.08 0.22 0 0.1 0.22 0 0 0.225 0 0.02 0.225 0 0.04 0.225 0 0.06 0.225 0 0.08 0.225 0 0.1 0.225 0 0 0.23 0 0.02 0.23 0 0.04 0.23 0 0.06 0.23 0 0.08 0.23 0 0.1 0.23 0 0 0.235 0 0.02 0.235 0 0.04 0.235 0 0.06 0.235 0 0.08 0.235 0 0.1 0.235 0 0 0.24 0 0.02 0.24 0 0.04 0.24 0 0.06 0.24 0 0.08 0.24 0 0.1 0.24 0 0 0.245 0 0.02 0.245 0 0.04 0.245 0 0.06 0.245 0 0.08 0.245 0 0.1 0.245 0 0 0.25 0 0.02 0.25 0 0.04 0.25 0 0.06 0.25 0 0.08 0.25 0 0.1 0.25 0 0 0.255 0 0.02 0.255 0 0.04 0.255 0 0.06 0.255 0 0.08 0.255 0 0.1 0.255 0 0 0.26 0 0.02 0.26 0 0.04 0.26 0 0.06 0.26 0 0.08 0.26 0 0.1 0.26 0 0 0.265 0 0.02 0.265 0 0.04 0.265 0 0.06 0.265 0 0.08 0.265 0 0.1 0.265 0 0 0.27 0 0.02 0.27 0 0.04 0.27 0 0.06 0.27 0 0.08 0.27 0 0.1 0.27 0 0 0.275 0 0.02 0.275 0 0.04 0.275 0 0.06 0.275 0 0.08 0.275 0 0.1 0.275 0 0 0.28 0 0.02 0.28 0 0.04 0.28 0 0.06 0.28 0 0.08 0.28 0 0.1 0.28 0 0 0.285 0 0.02 0.285 0 0.04 0.285 0 0.06 0.285 0 0.08 0.285 0 0.1 0.285 0 0 0.29 0 0.02 0.29 0 0.04 0.29 0 0.06 0.29 0 0.08 0.29 0 0.1 0.29 0 0 0.295 0 0.02 0.295 0 0.04 0.295 0 0.06 0.295 0 0.08 0.295 0 0.1 0.295 0 0 0.3 0 0.02 0.3 0 0.04 0.3 0 0.06 0.3 0 0.08 0.3 0 0.1 0.3 0 0 0.305 0 0.02 0.305 0 0.04 0.305 0 0.06 0.305 0 0.08 0.305 0 0.1 0.305 0 0 0.31 0 0.02 0.31 0 0.04 0.31 0 0.06 0.31 0 0.08 0.31 0 0.1 0.31 0 0 0.315 0 0.02 0.315 0 0.04 0.315 0 0.06 0.315 0 0.08 0.315 0 0.1 0.315 0 0 0.32 0 0.02 0.32 0 0.04 0.32 0 0.06 0.32 0 0.08 0.32 0 0.1 0.32 0 0 0.325 0 0.02 0.325 0 0.04 0.325 0 0.06 0.325 0 0.08 0.325 0 0.1 0.325 0 0 0.33 0 0.02 0.33 0 0.04 0.33 0 0.06 0.33 0 0.08 0.33 0 0.1 0.33 0 0 0.335 0 0.02 0.335 0 0.04 0.335 0 0.06 0.335 0 0.08 0.335 0 0.1 0.335 0 0 0.34 0 0.02 0.34 0 0.04 0.34 0 0.06 0.34 0 0.08 0.34 0 0.1 0.34 0 0 0.345 0 0.02 0.345 0 0.04 0.345 0 0.06 0.345 0 0.08 0.345 0 0.1 0.345 0 0 0.35 0 0.02 0.35 0 0.04 0.35 0 0.06 0.35 0 0.08 0.35 0 0.1 0.35 0 0 0.355 0 0.02 0.355 0 0.04 0.355 0 0.06 0.355 0 0.08 0.355 0 0.1 0.355 0 0 0.36 0 0.02 0.36 0 0.04 0.36 0 0.06 0.36 0 0.08 0.36 0 0.1 0.36 0 0 0.365 0 0.02 0.365 0 0.04 0.365 0 0.06 0.365 0 0.08 0.365 0 0.1 0.365 0 0 0.37 0 0.02 0.37 0 0.04 0.37 0 0.06 0.37 0 0.08 0.37 0 0.1 0.37 0 0 0.375 0 0.02 0.375 0 0.04 0.375 0 0.06 0.375 0 0.08 0.375 0 0.1 0.375 0 0 0.38 0 0.02 0.38 0 0.04 0.38 0 0.06 0.38 0 0.08 0.38 0 0.1 0.38 0 0 0.385 0 0.02 0.385 0 0.04 0.385 0 0.06 0.385 0 0.08 0.385 0 0.1 0.385 0 0 0.39 0 0.02 0.39 0 0.04 0.39 0 0.06 0.39 0 0.08 0.39 0 0.1 0.39 0 0 0.395 0 0.02 0.395 0 0.04 0.395 0 0.06 0.395 0 0.08 0.395 0 0.1 0.395 0 0 0.4 0 0.02 0.4 0 0.04 0.4 0 0.06 0.4 0 0.08 0.4 0 0.1 0.4 0 0 0.405001 0 0.02 0.405001 0 0.04 0.405001 0 0.06 0.405001 0 0.08 0.405001 0 0.1 0.405001 0 0 0.410003 0 0.02 0.410003 0 0.04 0.410003 0 0.06 0.410003 0 0.08 0.410003 0 0.1 0.410003 0 0 0.415013 0 0.02 0.415013 0 0.04 0.415013 0 0.06 0.415013 0 0.08 0.415013 0 0.1 0.415013 0 0 0.420048 0 0.02 0.420048 0 0.04 0.420048 0 0.06 0.420048 0 0.08 0.420048 0 0.1 0.420048 0 0 0.425145 0 0.02 0.425145 0 0.04 0.425145 0 0.06 0.425145 0 0.08 0.425145 0 0.1 0.425145 0 0 0.430369 0 0.02 0.430369 0 0.04 0.430369 0 0.06 0.430369 0 0.08 0.430369 0 0.1 0.430369 0 0 0.435799 0 0.02 0.435799 0 0.04 0.435799 0 0.06 0.435799 0 0.08 0.435799 0 0.1 0.435799 0 0 0.441514 0 0.02 0.441514 0 0.04 0.441514 0 0.06 0.441514 0 0.08 0.441514 0 0.1 0.441514 0 0 0.447586 0 0.02 0.447586 0 0.04 0.447586 0 0.06 0.447586 0 0.08 0.447586 0 0.1 0.447586 0 0 0.454092 0 0.02 0.454092 0 0.04 0.454092 0 0.06 0.454092 0 0.08 0.454092 0 0.1 0.454092 0 0 0.461116 0 0.02 0.461116 0 0.04 0.461116 0 0.06 0.461116 0 0.08 0.461116 0 0.1 0.461116 0 0 0.468764 0 0.02 0.468764 0 0.04 0.468764 0 0.06 0.468764 0 0.08 0.468764 0 0.1 0.468764 0 0 0.47717 0 0.02 0.47717 0 0.04 0.47717 0 0.06 0.47717 0 0.08 0.47717 0 0.1 0.47717 0 0 0.486504 0 0.02 0.486504 0 0.04 0.486504 0 0.06 0.486504 0 0.08 0.486504 0 0.1 0.486504 0 0 0.496962 0 0.02 0.496962 0 0.04 0.496962 0 0.06 0.496962 0 0.08 0.496962 0 0.1 0.496962 0 0 0.508656 0 0.02 0.508656 0 0.04 0.508656 0 0.06 0.508656 0 0.08 0.508656 0 0.1 0.508656 0 0 0.52108 0 0.02 0.52108 0 0.04 0.52108 0 0.06 0.52108 0 0.08 0.52108 0 0.1 0.52108 0 0 0.533246 0 0.02 0.533246 0 0.04 0.533246 0 0.06 0.533246 0 0.08 0.533246 0 0.1 0.533246 0 0 0.545155 0 0.02 0.545155 0 0.04 0.545155 0 0.06 0.545155 0 0.08 0.545155 0 0.1 0.545155 0 0 0.556958 0 0.02 0.556958 0 0.04 0.556958 0 0.06 0.556958 0 0.08 0.556958 0 0.1 0.556958 0 0 0.559582 0 0.02 0.559582 0 0.04 0.559582 0 0.06 0.559582 0 0.08 0.559582 0 0.1 0.559582 0 0 0.56213 0 0.02 0.56213 0 0.04 0.56213 0 0.06 0.56213 0 0.08 0.56213 0 0.1 0.56213 0 0 0.564632 0 0.02 0.564632 0 0.04 0.564632 0 0.06 0.564632 0 0.08 0.564632 0 0.1 0.564632 0 0 0.567103 0 0.02 0.567103 0 0.04 0.567103 0 0.06 0.567103 0 0.08 0.567103 0 0.1 0.567103 0 0 0.569552 0 0.02 0.569552 0 0.04 0.569552 0 0.06 0.569552 0 0.08 0.569552 0 0.1 0.569552 0 0 0.571985 0 0.02 0.571985 0 0.04 0.571985 0 0.06 0.571985 0 0.08 0.571985 0 0.1 0.571985 0 0 0.574407 0 0.02 0.574407 0 0.04 0.574407 0 0.06 0.574407 0 0.08 0.574407 0 0.1 0.574407 0 0 0.57682 0 0.02 0.57682 0 0.04 0.57682 0 0.06 0.57682 0 0.08 0.57682 0 0.1 0.57682 0 0 0.579228 0 0.02 0.579228 0 0.04 0.579228 0 0.06 0.579228 0 0.08 0.579228 0 0.1 0.579228 0 0 0.581632 0 0.02 0.581632 0 0.04 0.581632 0 0.06 0.581632 0 0.08 0.581632 0 0.1 0.581632 0 0 0.584035 0 0.02 0.584035 0 0.04 0.584035 0 0.06 0.584035 0 0.08 0.584035 0 0.1 0.584035 0 0 0.586438 0 0.02 0.586438 0 0.04 0.586438 0 0.06 0.586438 0 0.08 0.586438 0 0.1 0.586438 0 0 0.588847 0 0.02 0.588847 0 0.04 0.588847 0 0.06 0.588847 0 0.08 0.588847 0 0.1 0.588847 0 0 0.591262 0 0.02 0.591262 0 0.04 0.591262 0 0.06 0.591262 0 0.08 0.591262 0 0.1 0.591262 0 0 0.593701 0 0.02 0.593701 0 0.04 0.593701 0 0.06 0.593701 0 0.08 0.593701 0 0.1 0.593701 0 0 0.596165 0 0.02 0.596165 0 0.04 0.596165 0 0.06 0.596165 0 0.08 0.596165 0 0.1 0.596165 0 0 0.598692 0 0.02 0.598692 0 0.04 0.598692 0 0.06 0.598692 0 0.08 0.598692 0 0.1 0.598692 0 0 0.601273 0 0.02 0.601273 0 0.04 0.601273 0 0.06 0.601273 0 0.08 0.601273 0 0.1 0.601273 0 0 0.603984 0 0.02 0.603984 0 0.04 0.603984 0 0.06 0.603984 0 0.08 0.603984 0 0.1 0.603984 0 0 0.606828 0 0.02 0.606828 0 0.04 0.606828 0 0.06 0.606828 0 0.08 0.606828 0 0.1 0.606828 0 0 0.609917 0 0.02 0.609917 0 0.04 0.609917 0 0.06 0.609917 0 0.08 0.609917 0 0.1 0.609917 0 0 0.613284 0 0.02 0.613284 0 0.04 0.613284 0 0.06 0.613284 0 0.08 0.613284 0 0.1 0.613284 0 0 0.617006 0 0.02 0.617006 0 0.04 0.617006 0 0.06 0.617006 0 0.08 0.617006 0 0.1 0.617006 0 0 0.621093 0 0.02 0.621093 0 0.04 0.621093 0 0.06 0.621093 0 0.08 0.621093 0 0.1 0.621093 0 0 0.625521 0 0.02 0.625521 0 0.04 0.625521 0 0.06 0.625521 0 0.08 0.625521 
[...]
			<PointData Scalars="VitesseX">
				<DataArray Name="VitesseX" type="Float32" format="ascii">
 0 -1.09675e-15 -1.87045e-15 -4.27764e-15 -7.91848e-15 0 0 -1.29391e-15 -1.60207e-15 -4.44506e-15 -8.08159e-15 0 0 -1.65772e-15 -1.14677e-15 -4.97421e-15 -8.05475e-15 0 0 -1.40542e-15 -1.32564e-15 -6.1491e-15 -7.70838e-15 0 0 -6.06486e-16 -2.87722e-15 -5.94344e-15 -8.79233e-15 0 0 -1.06946e-15 -3.45844e-15 -4.94391e-15 -1.15099e-14 0 0 -1.67356e-15 -3.65154e-15 -5.41009e-15 -1.29783e-14 0 0 -1.01023e-15 -4.9209e-15 -6.31311e-15 -1.21763e-14 0 0 -1.51829e-15 -6.28647e-15 -7.08324e-15 -1.11043e-14 0 0 -3.23185e-15 -8.43814e-15 -5.83034e-15 -1.17728e-14 0 0 -5.13887e-15 -9.17204e-15 -5.75709e-15 -1.28212e-14 0 0 -7.32809e-15 -7.13597e-15 -7.19275e-15 -1.29603e-14 0 0 -6.74095e-15 -7.42668e-15 -6.78019e-15 -1.15275e-14 0 0 -7.08814e-15 -7.09167e-15 -6.67857e-15 -1.2141e-14 0 0 -7.71093e-15 -6.76629e-15 -6.87534e-15 -1.42744e-14 0 0 -6.47613e-15 -1.16839e-14 -4.86214e-15 -1.31213e-14 0 0 -9.09711e-15 -8.7073e-15 -7.58298e-15 -1.05394e-14 0 0 -1.01247e-14 -3.63396e-15 -1.22771e-14 -4.02061e-15 0 0 -9.25511e-15 -2.56097e-15 -1.09888e-14 -1.83708e-16 0 0 -9.29719e-15 -2.72433e-17 -5.83693e-15 -3.95612e-15 0 0 -9.16196e-15 -1.02036e-15 2.56448e-17 -9.57935e-15 0 0 -7.78522e-15 -2.98636e-15 1.31832e-15 -1.29449e-14 0 0 -8.37919e-15 -3.20047e-15 -2.83911e-15 -1.22169e-14 0 0 -1.05462e-14 -5.25698e-15 -6.91976e-15 -9.77156e-15 0 0 -8.36464e-15 -1.2558e-14 -9.71945e-15 -1.09961e-14 0 0 -6.21385e-15 -1.95957e-14 -1.5427e-14 -1.02584e-14 0 0 -7.60088e-15 -1.76149e-14 -2.43533e-14 -1.25582e-14 0 0 -9.30271e-15 -1.31234e-14 -3.24266e-14 -1.82608e-14 0 0 -8.1301e-15 -1.52495e-14 -3.44314e-14 -1.6201e-14 0 0 -6.45426e-15 -1.98901e-14 -2.98763e-14 -1.52963e-14 0 0 -8.32114e-15 -2.14456e-14 -2.69851e-14 -1.01949e-14 0 0 -9.52463e-15 -2.10884e-14 -2.70847e-14 -1.23206e-15 0 0 -8.55522e-15 -2.361e-14 -1.69825e-14 2.94694e-15 0 0 -5.9696e-15 -2.81961e-14 -5.17134e-15 -9.1417e-16 0 0 -8.37763e-15 -2.17603e-14 -9.55101e-15 -3.68302e-15 0 0 -1.23143e-14 -1.57894e-14 -1.14766e-14 -3.1657e-15 0 0 -6.87318e-15 -2.08756e-14 -5.21175e-15 -1.29662e-14 0 0 -3.62749e-15 -2.06506e-14 -5.66955e-15 -1.83258e-14 0 0 -1.13441e-14 -9.1785e-15 -1.32369e-14 -1.37081e-14 0 0 -7.9107e-15 -1.14341e-14 -1.44876e-14 -1.20008e-14 0 0 1.32264e-15 -3.02079e-14 -2.61165e-15 -1.52012e-14 0 0 -7.13589e-15 -2.98986e-14 5.16331e-15 -1.82621e-14 0 0 -1.80591e-14 -1.86002e-14 3.76892e-15 -1.40619e-14 0 0 -1.82571e-14 -1.09756e-14 -7.33937e-15 -2.74707e-15 0 0 -1.30093e-14 -1.29361e-14 -8.14451e-15 1.62407e-15 0 0 -1.02941e-14 -1.32805e-14 -5.64951e-15 -4.06128e-16 0 0 -5.29575e-15 -1.65902e-14 -5.53075e-15 2.82446e-15 0 0 -8.26401e-15 -1.98989e-14 2.91779e-15 -4.4493e-15 0 0 -1.27556e-14 -2.17316e-14 7.96124e-15 -1.32217e-14 0 0 -1.50682e-14 -1.75562e-14 -8.62167e-15 -7.74602e-15 0 0 -9.77411e-15 -1.87132e-14 -1.07162e-14 -2.36756e-14 0 0 -4.2084e-15 -2.38564e-14 -2.93007e-17 -4.82766e-14 0 0 -6.23627e-15 -2.17075e-14 -1.05966e-14 -3.69481e-14 0 0 -3.85237e-15 -2.31295e-14 -1.06021e-14 -3.11135e-14 0 0 -3.90033e-15 -1.4862e-14 -1.28689e-14 -3.37463e-14 0 0 -1.31061e-14 -2.72565e-15 -2.73064e-14 -2.13356e-14 0 0 -1.0274e-14 -9.73962e-15 -2.59552e-14 -1.37678e-14 0 0 -7.13076e-16 -1.8442e-14 -2.78502e-14 -2.55033e-16 0 0 -6.02252e-15 -1.67384e-14 -3.62645e-14 8.15061e-15 0 0 -9.4049e-15 -2.10504e-14 -3.49995e-14 7.0342e-15 0 0 1.02265e-15 -2.85437e-14 -2.76686e-14 -1.75924e-14 0 0 5.40247e-15 -3.42752e-14 -3.81815e-14 -3.145e-14 0 0 -2.24821e-15 -4.17872e-14 -2.18879e-14 -5.25265e-14 0 0 -5.43998e-15 -4.44082e-14 -3.57556e-15 -5.99757e-14 0 0 -1.30708e-14 -3.01631e-14 -2.52393e-14 -3.25652e-14 0 0 -7.77474e-15 -3.45562e-14 -3.98382e-14 -1.66661e-14 0 0 -9.01527e-15 -2.36735e-14 -7.05436e-14 3.51725e-15 0 0 -1.17478e-14 -1.38012e-14 -7.1414e-14 -1.26748e-14 0 0 -1.07299e-14 -9.408e-15 -6.43206e-14 -2.80741e-14 0 0 -4.73858e-15 -1.61391e-14 -5.80867e-14 -4.5535e-14 0 0 -8.42915e-15 -2.09751e-14 -5.15231e-14 -6.22799e-14 0 0 -1.64933e-14 -6.03138e-15 -3.87694e-14 -6.51187e-14 0 0 -8.03181e-15 9.42969e-16 -2.57677e-14 -4.54484e-14 0 0 2.66731e-15 1.00066e-14 -2.36411e-14 -1.95178e-14 0 0 2.23556e-14 9.74983e-15 -1.97051e-14 -1.94026e-14 0 0 3.07642e-14 1.26844e-14 -2.02611e-14 -2.07027e-14 0 0 2.16228e-14 2.89136e-14 -1.82923e-14 -1.72146e-14 0 0 3.31406e-14 1.84025e-14 -1.86288e-14 -9.41555e-15 0 0 3.67321e-14 -7.7541e-15 -3.16332e-15 2.03233e-15 0 0 1.20617e-14 -9.10084e-15 8.68559e-15 3.56012e-15 0 0 3.05513e-15 3.25826e-15 3.26639e-15 -1.17021e-14 0 0 1.55038e-14 1.10734e-14 -2.69273e-15 -1.83428e-14 0 0 2.37001e-14 7.78072e-15 -2.07942e-14 6.50161e-15 0 0 1.37799e-14 -9.6562e-15 -2.90825e-14 3.34189e-14 0 0 1.8044e-14 -2.11068e-14 -9.79867e-15 2.24904e-14 0 0 -4.05237e-15 -1.54001e-15 -4.36677e-16 1.43609e-14 0 0 -2.01784e-14 9.17452e-15 4.09749e-15 1.2927e-14 0 0 1.24153e-14 -4.36914e-16 7.89437e-17 1.43537e-14 0 0 5.03362e-15 1.27589e-15 -7.53792e-15 2.19589e-15 0 0 5.67533e-15 -1.47288e-14 3.63711e-15 -1.45744e-14 0 0 -1.87265e-15 -1.73956e-14 8.2212e-15 -9.25182e-15 0 0 -2.90114e-14 5.00542e-15 -3.28824e-15 2.12488e-14 0 0 1.04298e-14 4.41273e-15 -3.53999e-15 2.84122e-14 0 0 3.52204e-14 -1.71521e-14 -4.11158e-15 2.19086e-14 0 0 -5.04891e-16 -2.85095e-14 -1.95885e-15 5.77142e-15 0 0 -3.50262e-14 2.00921e-14 -2.94247e-14 2.56262e-15 0 0 -7.54301e-15 7.98261e-15 -7.57195e-15 -1.73251e-15 0 0 4.17193e-15 -7.04048e-15 1.25822e-15 6.38793e-16 0 0 -1.30748e-14 6.29457e-15 -2.58078e-14 -1.34834e-15 0 0 -3.12402e-15 -7.09725e-15 -2.32925e-14 2.62177e-15 0 0 1.59737e-15 4.9032e-15 -6.7321e-15 2.93548e-14 0 0 4.52817e-15 4.60818e-14 3.24918e-14 5.83753e-14 0 0 1.70049e-14 4.59025e-14 4.93557e-14 8.80335e-15 0 0 6.07587e-15 3.16241e-14 8.63861e-14 -2.72022e-14 0 0 -2.27625e-14 4.84478e-14 7.49872e-14 -2.92952e-14 0 0 -5.92002e-15 1.457e-14 9.59351e-14 -4.23862e-14 0 0 2.58376e-14 -6.30324e-14 1.41704e-13 -5.65832e-14 0 0 2.89695e-14 -7.59928e-14 1.29525e-13 -8.65409e-14 0 0 3.41886e-14 -6.66257e-14 7.05602e-14 -3.07229e-14 0 0 6.19616e-16 -6.67045e-14 7.27025e-14 -9.2758e-15 0 0 -5.91578e-16 -1.32565e-13 1.29409e-13 -9.20215e-14 0 0 -1.059e-14 -1.06339e-13 9.83214e-14 -1.25533e-13 0 0 -4.15432e-14 -5.26535e-14 7.16779e-14 -1.21458e-13 0 0 -5.22285e-14 -2.21112e-14 3.83478e-14 -6.1948e-14 0 0 -2.8823e-14 -3.89284e-14 6.64524e-14 -6.38137e-14 0 0 -1.06996e-15 -8.09966e-14 7.36419e-14 -6.18674e-14 0 0 -1.81323e-14 -3.03476e-14 -6.70017e-14 8.67586e-14 0 0 -1.8969e-14 -2.95678e-15 -1.47605e-13 1.16217e-13 0 0 9.77514e-15 -3.38565e-14 -7.69608e-14 -5.79134e-14 0 0 -8.56286e-15 4.3988e-15 -3.21983e-14 -8.24341e-14 0 0 -3.14265e-14 3.44724e-15 -6.67371e-14 -3.38692e-14 0 0 8.0716e-15 -6.31816e-14 -3.25633e-14 -3.82591e-14 0 0 -5.34603e-16 -4.46999e-14 -2.25952e-14 -1.1983e-15 0 0 -8.16992e-15 -3.71275e-14 -3.98573e-14 -3.11747e-14 0 0 5.69675e-15 -4.63178e-14 -1.53361e-15 -5.8476e-14 0 0 -8.00047e-15 -3.2064e-14 -4.18146e-15 -3.11254e-14 0 0 5.43858e-15 3.88828e-15 -4.05698e-14 -3.27041e-14 0 0 2.32146e-14 1.23456e-14 -4.08769e-14 -4.85896e-14 0 0 2.62564e-14 7.56638e-15 -3.56803e-14 -4.25838e-14 0 0 2.18555e-14 4.5694e-15 -3.13693e-14 -3.33684e-14 0 0 2.18475e-14 -6.40449e-15 -1.48145e-14 -4.30916e-14 0 0 2.33975e-14 -1.54989e-14 -1.28053e-14 -4.93448e-14 0 0 1.39986e-14 5.55552e-15 -3.84529e-14 -3.23568e-14 0 0 1.56512e-14 2.2893e-14 -7.63881e-14 -1.3458e-14 0 0 3.45028e-15 2.89241e-14 -7.43318e-14 -2.38505e-15 0 0 5.63083e-15 1.27725e-14 -3.43937e-14 -3.39809e-14 0 0 1.97201e-14 -3.20798e-15 -3.67475e-14 -5.07665e-14 0 0 -8.82748e-16 1.91055e-14 -6.03159e-14 -5.66826e-14 0 0 -7.11148e-15 2.343e-14 -7.62987e-14 -5.98817e-14 0 0 8.41906e-15 -3.53248e-15 -8.31758e-14 -4.87787e-14 0 0 4.26065e-15 -1.39872e-14 -7.84356e-14 -4.3571e-14 0 0 -1.71764e-14 -1.12624e-14 -8.41427e-14 -3.04191e-14 0 0 -1.97811e-15 -3.13949e-14 -1.12934e-13 -1.1354e-14 0 0 -1.41172e-15 -3.73021e-14 -1.25417e-13 -3.2115e-14 0 0 -2.9588e-14 -3.34209e-14 -1.11413e-13 -6.28838e-14 0 0 -2.28469e-14 -8.31548e-14 -9.572e-14 -6.91121e-14 0 0 -2.07642e-14 -1.1466e-13 -9.39608e-14 -8.61814e-14 0 0 -2.61094e-14 -1.08131e-13 -1.24494e-13 -7.73435e-14 0 0 -4.22278e-14 -8.05467e-14 -1.81223e-13 -8.75044e-14 0 0 -4.93656e-14 -9.18171e-14 -1.44603e-13 -1.5599e-13 0 0 -5.22858e-14 -1.01363e-13 -1.22975e-13 -1.74994e-13 0 0 -5.92474e-14 -6.44629e-14 -1.75911e-13 -1.42041e-13 0 0 -6.38807e-14 -4.37709e-14 -1.76674e-13 -1.4172e-13 0 0 -5.14486e-14 -6.92835e-14 -1.48433e-13 -1.53303e-13 0 0 -6.70701e-14 -7.31525e-14 -1.41527e-13 -1.42699e-13 0 0 -7.88289e-14 -7.74611e-14 -1.48947e-13 -1.24431e-13 0 0 -5.66943e-14 -1.09579e-13 -1.27237e-13 -1.06069e-13 0 0 -5.69504e-14 -1.04395e-13 -1.48886e-13 -7.01876e-14 0 0 -3.56537e-14 -1.32299e-13 -1.51875e-13 -6.50242e-14 0 0 -4.9115e-14 -1.29371e-13 -1.1225e-13 -1.03393e-13 0 0 -8.84668e-14 -8.33567e-14 -1.35692e-13 -7.51629e-14 0 0 -5.79058e-14 -9.96175e-14 -1.49257e-13 -5.39013e-14 0 0 -3.9394e-14 -1.47505e-13 -8.84651e-14 -1.03341e-13 0 0 -5.39095e-14 -1.26877e-13 -1.15853e-13 -6.17056e-14 0 0 -5.89538e-14 -9.43714e-14 -1.58299e-13 -1.47163e-14 0 0 -7.56961e-14 -7.3101e-14 -1.28218e-13 -6.79273e-14 0 0 -4.41434e-14 -8.56604e-14 -1.02836e-13 -1.25927e-13 0 0 -2.31054e-14 -1.14732e-13 -9.45239e-14 -1.27866e-13 0 0 -3.87201e-14 -1.10075e-13 -1.24121e-13 -1.21308e-13 0 0 -2.13243e-14 -1.40201e-13 -1.04624e-13 -1.59389e-13 0 0 -2.52868e-14 -1.35696e-13 -8.33474e-14 -1.75775e-13 0 0 -4.34574e-14 -1.00492e-13 -8.49115e-14 -1.83776e-13 0 0 -4.55254e-14 -9.24922e-14 -8.36499e-14 -1.77013e-13 0 0 -3.02057e-14 -8.68522e-14 -1.16485e-13 -1.26091e-13 0 0 -8.8554e-15 -9.20256e-14 -1.27203e-13 -1.11089e-13 0 0 -2.00631e-14 -9.21351e-14 -1.16494e-13 -1.26217e-13 0 0 -1.80333e-14 -1.14045e-13 -9.83868e-14 -1.25826e-13 0 0 -7.6647e-15 -1.11325e-13 -1.41266e-13 -8.04084e-14 0 0 -3.68583e-14 -8.01554e-14 -1.60794e-13 -6.78645e-14 0 0 -7.12928e-14 -7.72971e-14 -1.44812e-13 -8.13204e-14 0 0 -6.57116e-14 -1.02271e-13 -1.30939e-13 -1.22483e-13 0 0 -6.5671e-14 -9.82928e-14 -9.15648e-14 -1.8058e-13 0 0 -4.52112e-14 -9.34948e-14 -8.54854e-14 -1.88191e-13 0 0 -4.34867e-14 -8.51534e-14 -8.11065e-14 -2.23481e-13 0 0 -5.79939e-14 -4.731e-14 -9.93255e-14 -2.0981e-13 0 0 -1.96678e-14 -8.32304e-14 -9.3468e-14 -1.78618e-13 0 0 -2.86066e-14 -1.13966e-13 -9.25472e-14 -1.52159e-13 0 0 -2.75069e-14 -1.11889e-13 -1.55232e-13 -6.4904e-14 0 0 -1.388e-15 -1.13787e-13 -1.80742e-13 -1.78641e-14 0 0 -1.76334e-14 -9.63066e-14 -1.74799e-13 -2.40527e-15 0 0 -4.96414e-14 -7.39034e-14 -1.57974e-13 -1.82143e-14 0 0 -4.90276e-14 -7.70656e-14 -1.1805e-13 -9.69163e-14 0 0 -3.28549e-14 -8.93672e-14 -8.6985e-14 -1.35353e-13 0 0 -3.40487e-14 -1.04218e-13 -7.65483e-14 -8.30856e-14 0 0 -3.13816e-14 -1.31485e-13 -5.53965e-14 -7.41437e-14 0 0 -5.47695e-14 -9.43345e-14 -7.36704e-14 -1.12835e-13 0 0 -6.58983e-14 -6.8705e-14 -1.03053e-13 -1.14596e-13 0 0 -3.97846e-14 -9.28303e-14 -7.06501e-14 -1.23659e-13 0 0 -1.9194e-14 -1.12737e-13 -6.96673e-14 -8.90863e-14 0 0 -3.2168e-14 -9.82439e-14 -1.08361e-13 -2.37227e-14 0 0 -5.18417e-14 -6.63917e-14 -1.27023e-13 -4.72324e-15 0
				</DataArray>
				<DataArray Name="VitesseY" type="Float32" format="ascii">