<?xml version="1.0"?>
<VTKFile type="PolyData">
	<PolyData>
		<Piece NumberOfPoints="1206" NumberOfPolys="1000">
			<Points>
				<DataArray type="Float32" NumberOfComponents="3" format="ascii">
 0 0 0 0.02 0 0 0.04 0 0 0.06 0 0 0.08 0 0 0.1 0 0 0 0.005 0 0.02 0.005 0 0.04 0.005 0 0.06 0.005 0 0.08 0.005 0 0.1 0.005 0 0 0.01 0 0.02 0.01 0 0.04 0.01 0 0.06 0.01 0 0.08 0.01 0 0.1 0.01 0 0 0.015 0 0.02 0.015 0 0.04 0.015 0 0.06 0.015 0 0.08 0.015 0 0.1 0.015 0 0 0.02 0 0.02 0.02 0 0.04 0.02 0 0.06 0.02 0 0.08 0.02 0 0.1 0.02 0 0 0.025 0 0.02 0.025 0 0.04 0.025 0 0.06 0.025 0 0.08 0.025 0 0.1 0.025 0 0 0.03 0 0.02 0.03 0 0.04 0.03 0 0.06 0.03 0 0.08 0.03 0 0.1 0.03 0 0 0.035 0 0.02 0.035 0 0.04 0.035 0 0.06 0.035 0 0.08 0.035 0 0.1 0.035 0 0 0.04 0 0.02 0.04 0 0.04 0.04 0 0.06 0.04 0 0.08 0.04 0 0.1 0.04 0 0 0.045 0 0.02 0.045 0 0.04 0.045 0 0.06 0.045 0 0.08 0.045 0 0.1 0.045 0 0 0.05 0 0.02 0.05 0 0.04 0.05 0 0.06 0.05 0 0.08 0.05 0 0.1 0.05 0 0 0.055 0 0.02 0.055 0 0.04 0.055 0 0.06 0.055 0 0.08 0.055 0 0.1 0.055 0 0 0.06 0 0.02 0.06 0 0.04 0.06 0 0.06 0.06 0 0.08 0.06 0 0.1 0.06 0 0 0.065 0 0.02 0.065 0 0.04 0.065 0 0.06 0.065 0 0.08 0.065 0 0.1 0.065 0 0 0.07 0 0.02 0.07 0 0.04 0.07 0 0.06 0.07 0 0.08 0.07 0 0.1 0.07 0 0 0.075 0 0.02 0.075 0 0.04 0.075 0 0.06 0.075 0 0.08 0.075 0 0.1 0.075 0 0 0.08 0 0.02 0.08 0 0.04 0.08 0 0.06 0.08 0 0.08 0.08 0 0.1 0.08 0 0 0.085 0 0.02 0.085 0 0.04 0.085 0 0.06 0.085 0 0.08 0.085 0 0.1 0.085 0 0 0.09 0 0.02 0.09 0 0.04 0.09 0 0.06 0.09 0 0.08 0.09 0 0.1 0.09 0 0 0.095 0 0.02 0.095 0 0.04 0.095 0 0.06 0.095 0 0.08 0.095 0 0.1 0.095 0 0 0.1 0 0.02 0.1 0 0.04 0.1 0 0.06 0.1 0 0.08 0.1 0 0.1 0.1 0 0 0.105 0 0.02 0.105 0 0.04 0.105 0 0.06 0.105 0 0.08 0.105 0 0.1 0.105 0 0 0.11 0 0.02 0.11 0 0.04 0.11 0 0.06 0.11 0 0.08 0.11 0 0.1 0.11 0 0 0.115 0 0.02 0.115 0 0.04 0.115 0 0.06 0.115 0 0.08 0.115 0 0.1 0.115 0 0 0.12 0 0.02 0.12 0 0.04 0.12 0 0.06 0.12 0 0.08 0.12 0 0.1 0.12 0 0 0.125 0 0.02 0.125 0 0.04 0.125 0 0.06 0.125 0 0.08 0.125 0 0.1 0.125 0 0 0.13 0 0.02 0.13 0 0.04 0.13 0 0.06 0.13 0 0.08 0.13 0 0.1 0.13 0 0 0.135 0 0.02 0.135 0 0.04 0.135 0 0.06 0.135 0 0.08 0.135 0 0.1 0.135 0 0 0.14 0 0.02 0.14 0 0.04 0.14 0 0.06 0.14 0 0.08 0.14 0 0.1 0.14 0 0 0.145 0 0.02 0.145 0 0.04 0.145 0 0.06 0.145 0 0.08 0.145 0 0.1 0.145 0 0 0.15 0 0.02 0.15 0 0.04 0.15 0 0.06 0.15 0 0.08 0.15 0 0.1 0.15 0 0 0.155 0 0.02 0.155 0 0.04 0.155 0 0.06 0.155 0 0.08 0.155 0 0.1 0.155 0 0 0.16 0 0.02 0.16 0 0.04 0.16 0 0.06 0.16 0 0.08 0.16 0 0.1 0.16 0 0 0.165 0 0.02 0.165 0 0.04 0.165 0 0.06 0.165 0 0.08 0.165 0 0.1 0.165 0 0 0.17 0 0.02 0.17 0 0.04 0.17 0 0.06 0.17 0 0.08 0.17 0 0.1 0.17 0 0 0.175 0 0.02 0.175 0 0.04 0.175 0 0.06 0.175 0 0.08 0.175 0 0.1 0.175 0 0 0.18 0 0.02 0.18 0 0.04 0.18 0 0.06 0.18 0 0.08 0.18 0 0.1 0.18 0 0 0.185 0 0.02 0.185 0 0.04 0.185 0 0.06 0.185 0 0.08 0.185 0 0.1 0.185 0 0 0.19 0 0.02 0.19 0 0.04 0.19 0 0.06 0.19 0 0.08 0.19 0 0.1 0.19 0 0 0.195 0 0.02 0.195 0 0.04 0.195 0 0.06 0.195 0 0.08 0.195 0 0.1 0.195 0 0 0.2 0 0.02 0.2 0 0.04 0.2 0 0.06 0.2 0 0.08 0.2 0 0.1 0.2 0 0 0.205 0 0.02 0.205 0 0.04 0.205 0 0.06 0.205 0 0.08 0.205 0 0.1 0.205 0 0 0.21 0 0.02 0.21 0 0.04 0.21 0 0.06 0.21 0 0.08 0.21 0 0.1 0.21 0 0 0.215 0 0.02 0.215 0 0.04 0.215 0 0.06 0.215 0 0.08 0.215 0 0.1 0.215 0 0 0.22 0 0.02 0.22 0 0.04 0.22 0 0.06 0.22 0 0.08 0.22 0 0.1 0.22 0 0 0.225 0 0.02 0.225 0 0.04 0.225 0 0.06 0.225 0 0.08 0.225 0 0.1 0.225 0 0 0.23 0 0.02 0.23 0 0.04 0.23 0 0.06 0.23 0 0.08 0.23 0 0.1 0.23 0 0 0.235 0 0.02 0.235 0 0.04 0.235 0 0.06 0.235 0 0.08 0.235 0 0.1 0.235 0 0 0.24 0 0.02 0.24 0 0.04 0.24 0 0.06 0.24 0 0.08 0.24 0 0.1 0.24 0 0 0.245 0 0.02 0.245 0 0.04 0.245 0 0.06 0.245 0 0.08 0.245 0 0.1 0.245 0 0 0.25 0 0.02 0.25 0 0.04 0.25 0 0.06 0.25 0 0.08 0.25 0 0.1 0.25 0 0 0.255 0 0.02 0.255 0 0.04 0.255 0 0.06 0.255 0 0.08 0.255 0 0.1 0.255 0 0 0.26 0 0.02 0.26 0 0.04 0.26 0 0.06 0.26 0 0.08 0.26 0 0.1 0.26 0 0 0.265 0 0.02 0.265 0 0.04 0.265 0 0.06 0.265 0 0.08 0.265 0 0.1 0.265 0 0 0.27 0 0.02 0.27 0 0.04 0.27 0 0.06 0.27 0 0.08 0.27 0 0.1 0.27 0 0 0.275 0 0.02 0.275 0 0.04 0.275 0 0.06 0.275 0 0.08 0.275 0 0.1 0.275 0 0 0.28 0 0.02 0.28 0 0.04 0.28 0 0.06 0.28 0 0.08 0.28 0 0.1 0.28 0 0 0.285 0 0.02 0.285 0 0.04 0.285 0 0.06 0.285 0 0.08 0.285 0 0.1 0.285 0 0 0.29 0 0.02 0.29 0 0.04 0.29 0 0.06 0.29 0 0.08 0.29 0 0.1 0.29 0 0 0.295 0 0.02 0.295 0 0.04 0.295 0 0.06 0.295 0 0.08 0.295 0 0.1 0.295 0 0 0.3 0 0.02 0.3 0 0.04 0.3 0 0.06 0.3 0 0.08 0.3 0 0.1 0.3 0 0 0.305 0 0.02 0.305 0 0.04 0.305 0 0.06 0.305 0 0.08 0.305 0 0.1 0.305 0 0 0.31 0 0.02 0.31 0 0.04 0.31 0 0.06 0.31 0 0.08 0.31 0 0.1 0.31 0 0 0.315001 0 0.02 0.315001 0 0.04 0.315001 0 0.06 0.315001 0 0.08 0.315001 0 0.1 0.315001 0 0 0.320003 0 0.02 0.320003 0 0.04 0.320003 0 0.06 0.320003 0 0.08 0.320003 0 0.1 0.320003 0 0 0.32501 0 0.02 0.32501 0 0.04 0.32501 0 0.06 0.32501 0 0.08 0.32501 0 0.1 0.32501 0 0 0.330028 0 0.02 0.330028 0 0.04 0.330028 0 0.06 0.330028 0 0.08 0.330028 0 0.1 0.330028 0 0 0.33507 0 0.02 0.33507 0 0.04 0.33507 0 0.06 0.33507 0 0.08 0.33507 0 0.1 0.33507 0 0 0.340154 0 0.02 0.340154 0 0.04 0.340154 0 0.06 0.340154 0 0.08 0.340154 0 0.1 0.340154 0 0 0.345305 0 0.02 0.345305 0 0.04 0.345305 0 0.06 0.345305 0 0.08 0.345305 0 0.1 0.345305 0 0 0.350548 0 0.02 0.350548 0 0.04 0.350548 0 0.06 0.350548 0 0.08 0.350548 0 0.1 0.350548 0 0 0.355907 0 0.02 0.355907 0 0.04 0.355907 0 0.06 0.355907 0 0.08 0.355907 0 0.1 0.355907 0 0 0.3614 0 0.02 0.3614 0 0.04 0.3614 0 0.06 0.3614 0 0.08 0.3614 0 0.1 0.3614 0 0 0.367042 0 0.02 0.367042 0 0.04 0.367042 0 0.06 0.367042 0 0.08 0.367042 0 0.1 0.367042 0 0 0.372849 0 0.02 0.372849 0 0.04 0.372849 0 0.06 0.372849 0 0.08 0.372849 0 0.1 0.372849 0 0 0.378835 0 0.02 0.378835 0 0.04 0.378835 0 0.06 0.378835 0 0.08 0.378835 0 0.1 0.378835 0 0 0.385014 0 0.02 0.385014 0 0.04 0.385014 0 0.06 0.385014 0 0.08 0.385014 0 0.1 0.385014 0 0 0.391402 0 0.02 0.391402 0 0.04 0.391402 0 0.06 0.391402 0 0.08 0.391402 0 0.1 0.391402 0 0 0.398016 0 0.02 0.398016 0 0.04 0.398016 0 0.06 0.398016 0 0.08 0.398016 0 0.1 0.398016 0 0 0.404875 0 0.02 0.404875 0 0.04 0.404875 0 0.06 0.404875 0 0.08 0.404875 0 0.1 0.404875 0 0 0.412002 0 0.02 0.412002 0 0.04 0.412002 0 0.06 0.412002 0 0.08 0.412002 0 0.1 0.412002 0 0 0.41942 0 0.02 0.41942 0 0.04 0.41942 0 0.06 0.41942 0 0.08 0.41942 0 0.1 0.41942 0 0 0.427156 0 0.02 0.427156 0 0.04 0.427156 0 0.06 0.427156 0 0.08 0.427156 0 0.1 0.427156 0 0 0.435243 0 0.02 0.435243 0 0.04 0.435243 0 0.06 0.435243 0 0.08 0.435243 0 0.1 0.435243 0 0 0.443716 0 0.02 0.443716 0 0.04 0.443716 0 0.06 0.443716 0 0.08 0.443716 0 0.1 0.443716 0 0 0.452616 0 0.02 0.452616 0 0.04 0.452616 0 0.06 0.452616 0 0.08 0.452616 0 0.1 0.452616 0 0 0.46199 0 0.02 0.46199 0 0.04 0.46199 0 0.06 0.46199 0 0.08 0.46199 0 0.1 0.46199 0 0 0.471888 0 0.02 0.471888 0 0.04 0.471888 0 0.06 0.471888 0 0.08 0.471888 0 0.1 0.471888 0 0 0.482364 0 0.02 0.482364 0 0.04 0.482364 0 0.06 0.482364 0 0.08 0.482364 0 0.1 0.482364 0 0 0.493463 0 0.02 0.493463 0 0.04 0.493463 0 0.06 0.493463 0 0.08 0.493463 0 0.1 0.493463 0 0 0.505179 0 0.02 0.505179 0 0.04 0.505179 0 0.06 0.505179 0 0.08 0.505179 0 0.1 0.505179 0 0 0.517335 0 0.02 0.517335 0 0.04 0.517335 0 0.06 0.517335 0 0.08 0.517335 0 0.1 0.517335 0 0 0.529495 0 0.02 0.529495 0 0.04 0.529495 0 0.06 0.529495 0 0.08 0.529495 0 0.1 0.529495 0 0 0.541525 0 0.02 0.541525 0 0.04 0.541525 0 0.06 0.541525 0 0.08 0.541525 0 0.1 0.541525 0 0 0.553432 0 0.02 0.553432 0 0.04 0.553432 0 0.06 0.553432 0 0.08 0.553432 0 0.1 0.553432 0 0 0.565253 0 0.02 0.565253 0 0.04 0.565253 0 0.06 0.565253 0 0.08 0.565253 0 0.1 0.565253 0 0 0.577029 0 0.02 0.577029 0 0.04 0.577029 0 0.06 0.577029 0 0.08 0.577029 0 0.1 0.577029 0 0 0.588786 0 0.02 0.588786 0 0.04 0.588786 0 0.06 0.588786 0 0.08 0.588786 0 0.1 0.588786 0 0 0.600536 0 0.02 0.600536 0 0.04 0.600536 0 0.06 0.600536 0 0.08 0.600536 0 0.1 0.600536 0 0 0.612283 0 0.02 0.612283 0 0.04 0.612283 0 0.06 0.612283 0 0.08 0.612283 0 0.1 0.612283 0 0 0.624041 0 0.02 0.624041 0 0.04 0.624041 0 0.06 0.624041 0 0.08 0.624041 0 0.1 0.624041 0 0 0.626655 0 0.02 0.626655 0 0.04 0.626655 0 0.06 0.626655 0 0.08 0.626655 0 0.1 0.626655 0 0 0.629193 0 0.02 0.629193 0 0.04 0.629193 0 0.06 0.629193 0 0.08 0.629193 0 0.1 0.629193 0 0 0.631685 0 0.02 0.631685 0 0.04 0.631685 0 0.06 0.631685 0 0.08 0.631685 0 0.1 0.631685 0 0 0.634146 0 0.02 0.634146 0 0.04 0.634146 0 0.06 0.634146 0 0.08 0.634146 0 0.1 0.634146 0 0 0.636585 0 0.02 0.636585 0 0.04 0.636585 0 0.06 0.636585 0 0.08 0.636585 0 0.1 0.636585 0 0 0.639007 0 0.02 0.639007 0 0.04 0.639007 0 0.06 0.639007 0 0.08 0.639007 0 0.1 0.639007 0 0 0.641418 0 0.02 0.641418 0 0.04 0.641418 0 0.06 0.641418 0 0.08 0.641418 0 0.1 0.641418 0 0 0.643819 0 0.02 0.643819 0 0.04 0.643819 0 0.06 0.643819 0 0.08 0.643819 0 0.1 0.643819 0 0 0.646214 0 0.02 0.646214 0 0.04 0.646214 0 0.06 0.646214 0 0.08 0.646214 0 0.1 0.646214 0 0 0.648605 0 0.02 0.648605 0 0.04 0.648605 0 0.06 0.648605 0 0.08 0.648605 0 0.1 0.648605 0 0 0.650991 0 0.02 0.650991 0 0.04 0.650991 0 0.06 0.650991 0 0.08 0.650991 0 0.1 0.650991 0 0 0.653373 0 0.02 0.653373 0 0.04 0.653373 0 0.06 0.653373 0 0.08 0.653373 0 0.1 0.653373 0 0 0.655752 0 0.02 0.655752 0 0.04 0.655752 0 0.06 0.655752 0 0.08 0.655752 0 0.1 0.655752 0 0 0.658128 0 0.02 0.658128 0 0.04 0.658128 0 0.06 0.658128 0 0.08 0.658128 0 0.1 0.658128 0 0 0.6605 0 0.02 0.6605 0 0.04 0.6605 0 0.06 0.6605 0 0.08 0.6605 0 0.1 0.6605 0 0 0.662869 0 0.02 0.662869 0 0.04 0.662869 0 0.06 0.662869 0 0.08 0.662869 0 0.1 0.662869 0 0 0.665236 0 0.02 0.665236 0 0.04 0.665236 0 0.06 0.665236 0 0.08 0.665236 0 0.1 0.665236 0 0 0.667601 0 0.02 0.667601 0 0.04 0.667601 0 0.06 0.667601 0 0.08 0.667601 0 0.1 0.667601 0 0 0.669965 0 0.02 0.669965 0 0.04 0.669965 0 0.06 0.669965 0 0.08 0.669965 0 0.1 0.669965 0 0 0.672327 0 0.02 0.672327 0 0.04 0.672327 0 0.06 0.672327 0 0.08 0.672327 0 0.1 0.672327 0 0 0.674688 0 0.02 0.674688 0 0.04 0.674688 0 0.06 0.674688 0 0.08 0.674688 0 0.1 0.
[...]
			<PointData Scalars="VitesseX">
				<DataArray Name="VitesseX" type="Float32" format="ascii">
 0 4.78945e-15 2.85952e-15 9.36562e-16 -7.34932e-15 0 0 4.59969e-15 2.41598e-15 8.23554e-16 -7.81324e-15 0 0 3.93507e-15 1.07291e-15 9.73763e-16 -9.09556e-15 0 0 3.10128e-15 -2.20967e-16 6.3864e-16 -1.02907e-14 0 0 2.43785e-15 -1.71056e-15 1.01201e-17 -1.13646e-14 0 0 1.94967e-15 -3.2304e-15 -1.30559e-15 -1.11121e-14 0 0 1.19793e-15 -4.3326e-15 -3.75712e-15 -9.15281e-15 0 0 -7.27608e-16 -4.2158e-15 -5.49382e-15 -7.13719e-15 0 0 -3.51485e-15 -3.05067e-15 -5.94399e-15 -5.78742e-15 0 0 -4.04678e-15 -2.98812e-15 -4.93905e-15 -3.49376e-15 0 0 -2.11286e-15 -3.93083e-15 -1.55423e-15 -1.95756e-15 0 0 -1.06253e-15 -4.46365e-15 4.97932e-15 -5.11461e-15 0 0 -1.7527e-15 -3.33611e-15 9.30766e-15 -4.6536e-15 0 0 -1.5131e-15 -4.78839e-15 1.35064e-14 -2.84455e-15 0 0 -1.64335e-15 -2.18128e-15 1.1888e-14 -6.00024e-16 0 0 -4.1866e-15 7.43167e-15 6.84034e-15 4.19535e-15 0 0 -1.01997e-15 9.34572e-15 8.36809e-15 6.71085e-15 0 0 3.57388e-15 7.96577e-15 9.74319e-15 9.25798e-15 0 0 4.28788e-15 9.64077e-15 8.6854e-15 1.30069e-14 0 0 8.76658e-15 3.84568e-15 1.54711e-14 1.24362e-14 0 0 6.92546e-15 6.85025e-15 2.13519e-14 5.45245e-15 0 0 -3.48022e-16 1.90937e-14 1.62172e-14 7.71998e-15 0 0 1.36599e-15 1.72482e-14 1.55954e-14 1.29638e-14 0 0 4.57908e-15 1.2571e-14 1.60284e-14 1.03415e-14 0 0 6.24085e-15 1.43769e-14 6.64993e-15 1.61936e-14 0 0 9.116e-15 1.07524e-14 3.21463e-15 1.90342e-14 0 0 3.66284e-15 1.4314e-14 4.65123e-15 1.00136e-14 0 0 -1.14195e-15 1.88283e-14 3.53756e-15 -2.18358e-16 0 0 5.21838e-16 1.01448e-14 7.65323e-15 -3.51253e-17 0 0 8.42553e-17 7.74532e-15 7.06145e-15 1.54658e-15 0 0 5.67861e-17 9.56928e-15 3.01357e-15 -5.01054e-15 0 0 -3.34943e-15 1.55631e-14 1.94117e-16 -9.3441e-15 0 0 -7.08976e-15 2.57482e-14 -8.07615e-15 -6.09414e-15 0 0 -2.40583e-15 1.71307e-14 -3.81259e-15 -8.10421e-15 0 0 2.38832e-15 3.58609e-15 1.57681e-15 -5.82338e-15 0 0 -4.04556e-15 8.80602e-15 -1.68548e-16 -1.00375e-15 0 0 -1.03234e-14 1.45131e-14 4.15412e-15 -1.34008e-14 0 0 -9.42885e-15 1.37083e-14 3.13092e-15 -1.20314e-14 0 0 -5.82312e-15 1.14125e-14 2.88654e-15 -3.7211e-15 0 0 -5.38107e-15 1.35703e-14 -2.64453e-15 -2.60598e-15 0 0 -5.21181e-16 1.16064e-14 -2.93241e-15 -1.48699e-14 0 0 5.07871e-15 5.81132e-15 2.90768e-15 -1.85864e-14 0 0 2.41805e-15 4.64811e-15 6.02124e-15 -1.61852e-15 0 0 5.28816e-15 -1.89398e-15 1.53168e-14 1.06377e-14 0 0 3.36439e-15 4.96115e-15 1.5036e-14 1.52112e-14 0 0 4.08432e-16 1.68247e-14 9.01055e-15 1.69363e-14 0 0 1.04814e-15 2.18141e-14 2.8262e-15 2.27863e-14 0 0 -2.1277e-15 2.47382e-14 -1.29519e-15 2.89874e-14 0 0 -4.68152e-16 1.75422e-14 1.55065e-14 2.15577e-14 0 0 -1.82007e-15 2.06033e-14 2.93804e-14 7.1833e-15 0 0 5.91966e-15 2.0843e-14 3.10767e-14 1.36367e-14 0 0 1.94472e-14 3.38659e-14 2.71417e-14 2.43091e-14 0 0 1.22253e-14 6.92804e-14 2.16064e-14 2.80456e-14 0 0 2.99332e-14 7.67484e-14 2.50533e-14 3.09952e-14 0 0 6.09649e-14 8.31031e-14 3.25798e-14 2.86632e-14 0 0 7.26606e-14 8.1045e-14 5.64036e-14 3.171e-14 0 0 5.7443e-14 8.42014e-14 7.35879e-14 4.47154e-14 0 0 4.07224e-14 8.81566e-14 8.9301e-14 3.849e-14 0 0 4.89438e-14 6.76339e-14 1.11443e-13 3.56699e-14 0 0 4.86267e-14 6.47147e-14 9.32214e-14 6.97029e-14 0 0 3.35568e-14 7.28015e-14 5.37209e-14 9.59872e-14 0 0 1.95142e-14 8.18859e-14 3.65275e-14 9.82856e-14 0 0 1.56339e-14 7.93677e-14 2.95185e-14 1.02168e-13 0 0 2.15824e-14 5.90142e-14 3.17869e-14 8.29704e-14 0 0 1.0957e-14 3.92003e-14 5.55576e-14 4.87159e-14 0 0 -2.47374e-15 2.59835e-14 7.996e-14 2.10417e-14 0 0 -2.6036e-15 8.70242e-15 8.72311e-14 2.85163e-15 0 0 -5.87082e-15 2.36149e-15 8.65685e-14 9.03474e-15 0 0 1.51186e-14 4.15352e-16 7.21801e-14 6.61042e-15 0 0 1.64953e-14 2.47316e-14 3.1598e-14 6.09668e-15 0 0 1.53384e-14 2.77667e-14 2.31597e-15 2.74415e-14 0 0 3.19743e-14 2.22246e-14 4.87958e-15 3.07131e-14 0 0 4.48972e-14 2.40295e-14 1.5148e-14 2.18578e-14 0 0 3.75372e-14 1.15488e-14 2.74181e-14 1.75957e-14 0 0 3.14521e-14 2.42553e-14 2.01122e-14 1.31362e-14 0 0 2.24185e-14 3.50977e-14 1.31527e-14 8.90655e-15 0 0 5.99689e-15 2.25758e-14 4.80461e-14 -1.52716e-14 0 0 1.98638e-14 1.0864e-14 3.68293e-14 -1.528e-14 0 0 2.07877e-14 1.57777e-14 -3.82912e-15 1.51901e-14 0 0 7.38207e-15 9.90697e-15 1.73409e-14 3.29492e-14 0 0 1.12783e-14 -6.91932e-16 3.88753e-14 2.3935e-14 0 0 2.94908e-14 -6.42235e-15 3.71695e-14 9.75435e-15 0 0 2.41846e-14 7.04244e-15 4.21513e-14 -9.94563e-15 0 0 -1.99581e-14 3.00323e-14 1.63814e-14 8.1716e-15 0 0 -1.68988e-14 1.88829e-14 1.3623e-15 4.15575e-14 0 0 5.1903e-14 -1.0223e-14 5.51595e-15 4.12537e-14 0 0 5.11815e-14 -6.57889e-15 1.49407e-15 2.45503e-14 0 0 3.80024e-15 1.01291e-15 2.73034e-14 -1.32639e-14 0 0 -1.16685e-14 3.34791e-15 2.26657e-14 -4.35171e-15 0 0 -8.13033e-15 -1.28675e-14 4.35181e-14 -7.25565e-15 0 0 1.35135e-14 -1.18679e-14 2.41132e-14 -2.32096e-15 0 0 1.76696e-14 1.5496e-14 -2.05929e-14 1.40671e-14 0 0 1.10277e-14 8.58878e-15 1.32631e-15 6.98063e-15 0 0 2.13299e-14 -2.22248e-15 1.23676e-14 1.92391e-14 0 0 2.11727e-14 1.01046e-14 1.3413e-14 3.13858e-14 0 0 9.56734e-15 2.8025e-14 1.27768e-17 2.72669e-14 0 0 1.26461e-14 1.9222e-14 1.4716e-14 -1.89014e-17 0 0 7.08056e-15 1.34648e-14 1.57107e-14 -7.77417e-16 0 0 6.47579e-15 9.48063e-15 1.88527e-14 1.00156e-14 0 0 9.28801e-15 5.56889e-15 1.96162e-14 1.67703e-14 0 0 5.34552e-15 1.69358e-14 1.68852e-14 2.50723e-14 0 0 1.02941e-14 1.06449e-14 1.93498e-14 8.00172e-14 0 0 2.32407e-14 2.32882e-14 7.86127e-15 3.39791e-14 0 0 2.6748e-15 3.52438e-14 -1.6823e-14 4.44977e-14 0 0 -1.62544e-15 2.71269e-14 -6.1353e-15 1.0346e-13 0 0 1.29708e-14 2.25812e-14 1.79242e-14 5.37456e-14 0 0 -5.25125e-15 3.61977e-14 2.62079e-14 5.28712e-14 0 0 -1.50351e-14 5.37252e-14 2.99612e-14 7.3593e-14 0 0 -1.62649e-14 5.89522e-14 -2.75286e-15 2.54625e-14 0 0 -2.40943e-15 3.22514e-14 -3.68784e-14 2.43103e-14 0 0 -4.32655e-15 4.10379e-16 -7.32871e-15 3.37433e-14 0 0 -2.55407e-14 1.72569e-14 -8.87019e-15 -4.47825e-14 0 0 -2.13024e-14 1.1246e-14 -4.87204e-14 -1.33628e-14 0 0 -1.73624e-14 2.26232e-15 -1.55705e-14 -2.6991e-14 0 0 -1.22146e-14 -6.73828e-15 1.88646e-14 -7.89787e-14 0 0 -2.85029e-14 4.9688e-15 1.57583e-14 -3.5617e-14 0 0 -3.68376e-14 2.21725e-14 1.02047e-14 -4.5518e-14 0 0 -2.73791e-14 -4.76161e-15 3.88047e-14 -7.13839e-14 0 0 -2.38356e-14 -2.87478e-14 8.214e-14 -8.70992e-14 0 0 -4.18085e-15 -2.89834e-14 1.12621e-13 -7.32252e-14 0 0 1.55425e-14 -1.41105e-14 1.14577e-13 8.18522e-16 0 0 3.5794e-14 -2.62868e-14 5.96635e-14 1.06694e-14 0 0 4.14694e-14 -1.2936e-14 7.32762e-14 -3.96799e-14 0 0 3.51988e-14 -6.91003e-15 1.03754e-13 3.28205e-14 0 0 3.69745e-14 1.08579e-14 4.33889e-14 1.81135e-14 0 0 4.44125e-14 4.54807e-14 2.9501e-14 3.98786e-15 0 0 6.21513e-14 3.444e-14 2.81405e-14 5.42723e-14 0 0 8.1882e-14 2.99675e-14 5.6962e-15 3.00185e-14 0 0 6.75546e-14 4.85135e-14 1.66696e-14 1.22435e-14 0 0 3.5127e-14 1.04837e-13 -2.79538e-14 6.52509e-14 0 0 1.88598e-14 1.20259e-13 -5.3261e-14 1.23916e-13 0 0 2.52734e-14 9.59305e-14 -1.12985e-14 1.20904e-13 0 0 9.50052e-14 3.86379e-14 4.76053e-14 4.56546e-14 0 0 1.87685e-13 -5.31369e-14 1.29831e-13 -1.16608e-13 0 0 1.84255e-13 -4.29767e-14 7.95315e-14 -1.39692e-13 0 0 9.49952e-14 1.12361e-13 -1.56364e-13 1.36009e-14 0 0 1.18109e-13 7.88903e-14 -1.54038e-13 5.22385e-15 0 0 1.48227e-13 -5.32216e-14 2.70924e-14 -8.78473e-14 0 0 5.58466e-14 3.10917e-14 5.28959e-15 -4.35773e-14 0 0 6.60075e-14 5.13388e-15 3.85544e-14 -5.29663e-14 0 0 8.23313e-14 -2.39948e-14 2.43527e-14 5.60393e-16 0 0 3.30071e-14 6.10384e-14 -6.20623e-14 1.04985e-13 0 0 5.70946e-14 6.90328e-14 -3.57955e-14 1.0823e-13 0 0 8.23082e-14 7.75217e-14 -3.60015e-14 8.12912e-14 0 0 8.89565e-14 7.62912e-14 -3.31772e-14 3.11426e-14 0 0 9.17745e-14 9.64279e-14 -1.12016e-14 -5.56103e-14 0 0 7.48156e-14 1.21836e-13 -1.64646e-14 -2.29855e-14 0 0 8.20974e-14 9.84397e-14 4.57751e-14 3.1089e-14 0 0 9.58405e-14 1.00384e-13 1.00937e-13 4.84385e-14 0 0 9.09409e-14 9.67339e-14 1.46559e-13 8.22791e-14 0 0 8.4506e-14 1.31543e-13 1.53527e-13 7.47981e-14 0 0 8.46657e-14 1.60634e-13 1.67282e-13 9.36528e-14 0 0 1.00145e-13 1.50307e-13 1.92445e-13 6.55123e-14 0 0 1.13586e-13 1.67909e-13 1.65594e-13 9.51296e-14 0 0 1.14784e-13 1.71536e-13 1.84588e-13 1.17221e-13 0 0 1.09295e-13 1.95902e-13 1.79275e-13 9.90682e-14 0 0 1.06796e-13 2.14499e-13 1.85183e-13 1.02276e-13 0 0 1.07445e-13 2.00763e-13 2.13922e-13 8.72417e-14 0 0 1.053e-13 2.0515e-13 2.10024e-13 1.1239e-13 0 0 1.11194e-13 2.00412e-13 2.26204e-13 1.13262e-13 0 0 1.24172e-13 1.85019e-13 2.09767e-13 1.39561e-13 0 0 1.17496e-13 2.09239e-13 1.86583e-13 1.59715e-13 0 0 1.21954e-13 2.14145e-13 2.00675e-13 1.31477e-13 0 0 1.12686e-13 2.0792e-13 2.10273e-13 1.37701e-13 0 0 1.09919e-13 2.05975e-13 2.0792e-13 1.49867e-13 0 0 1.23866e-13 1.87206e-13 2.01248e-13 1.49242e-13 0 0 1.18896e-13 1.90619e-13 1.94565e-13 1.42657e-13 0 0 1.18389e-13 2.15511e-13 1.37854e-13 1.73239e-13 0 0 1.11005e-13 2.27009e-13 1.23558e-13 1.65927e-13 0 0 1.06458e-13 2.03538e-13 1.41167e-13 1.49905e-13 0 0 1.11031e-13 1.77409e-13 1.35449e-13 1.42584e-13 0 0 1.05108e-13 1.64885e-13 1.4926e-13 1.0325e-13 0 0 1.02528e-13 1.24352e-13 1.7695e-13 7.21076e-14 0 0 1.19565e-13 9.43477e-14 1.93782e-13 5.2329e-14 0 0 7.80436e-14 1.29211e-13 1.6281e-13 9.052e-14 0 0 2.48024e-14 1.5618e-13 1.41457e-13 1.07228e-13 0 0 4.65328e-14 1.47579e-13 1.05464e-13 1.13817e-13 0 0 8.14027e-14 1.20193e-13 6.47914e-14 1.70322e-13 0 0 5.93843e-14 8.86405e-14 9.87809e-14 1.43953e-13 0 0 2.33845e-14 5.1821e-14 1.64018e-13 8.29031e-14 0 0 2.26293e-14 3.04071e-14 1.47828e-13 9.40925e-14 0 0 2.66676e-14 4.25054e-14 8.9465e-14 1.03455e-13 0 0 2.17189e-14 3.42029e-14 9.77358e-14 9.33118e-14 0 0 -5.94805e-15 6.80521e-14 8.06169e-14 8.38345e-14 0 0 -8.80918e-15 8.50904e-14 3.06843e-14 8.96163e-14 0 0 1.19475e-14 2.86461e-14 5.54406e-14 5.09537e-14 0 0 -4.85771e-15 3.99219e-14 5.15133e-14 4.51133e-14 0 0 8.59837e-15 3.80301e-14 5.55567e-14 5.52423e-14 0 0 3.642e-14 2.58169e-14 1.03071e-13 3.65112e-14 0 0 4.65054e-14 2.99305e-14 1.19468e-13 4.87659e-14 0 0 6.48916e-14 9.04851e-15 1.24434e-13 5.01996e-14 0 0 4.99921e-14 3.19209e-14 9.90203e-14 6.58487e-14 0 0 4.59384e-14 3.12381e-14 9.41054e-14 7.29114e-14 0 0 5.30512e-14 1.14551e-14 1.15887e-13 4.56487e-14 0 0 3.12479e-14 4.63671e-14 7.41461e-14 3.84907e-14 0 0 1.18441e-14 1.02791e-13 3.33759e-14 2.43913e-14 0 0 2.46673e-14 8.00588e-14 8.83028e-14 -2.83249e-14 0 0 4.20647e-14 5.87143e-14 1.16161e-13 -6.46659e-14 0 0 5.23048e-14 7.21998e-14 9.98507e-14 -4.75844e-14 0 0 6.28738e-14 8.96993e-14 7.87482e-14 -1.80498e-14 0 0 6.3053e-14 1.18811e-13 5.62047e-14 -1.28795e-14 0
				</DataArray>
				<DataArray Name="VitesseY" type="Float32" format="ascii">