<?xml version="1.0"?>
<VTKFile type="PolyData">
	<PolyData>
		<Piece NumberOfPoints="1206" NumberOfPolys="1000">
			<Points>
				<DataArray type="Float32" NumberOfComponents="3" format="ascii">
 0 0 0 0.02 0 0 0.04 0 0 0.06 0 0 0.08 0 0 0.1 0 0 0 0.005 0 0.02 0.005 0 0.04 0.005 0 0.06 0.005 0 0.08 0.005 0 0.1 0.005 0 0 0.01 0 0.02 0.01 0 0.04 0.01 0 0.06 0.01 0 0.08 0.01 0 0.1 0.01 0 0 0.015 0 0.02 0.015 0 0.04 0.015 0 0.06 0.015 0 0.08 0.015 0 0.1 0.015 0 0 0.02 0 0.02 0.02 0 0.04 0.02 0 0.06 0.02 0 0.08 0.02 0 0.1 0.02 0 0 0.025 0 0.02 0.025 0 0.04 0.025 0 0.06 0.025 0 0.08 0.025 0 0.1 0.025 0 0 0.03 0 0.02 0.03 0 0.04 0.03 0 0.06 0.03 0 0.08 0.03 0 0.1 0.03 0 0 0.035 0 0.02 0.035 0 0.04 0.035 0 0.06 0.035 0 0.08 0.035 0 0.1 0.035 0 0 0.04 0 0.02 0.04 0 0.04 0.04 0 0.06 0.04 0 0.08 0.04 0 0.1 0.04 0 0 0.045 0 0.02 0.045 0 0.04 0.045 0 0.06 0.045 0 0.08 0.045 0 0.1 0.045 0 0 0.05 0 0.02 0.05 0 0.04 0.05 0 0.06 0.05 0 0.08 0.05 0 0.1 0.05 0 0 0.055 0 0.02 0.055 0 0.04 0.055 0 0.06 0.055 0 0.08 0.055 0 0.1 0.055 0 0 0.06 0 0.02 0.06 0 0.04 0.06 0 0.06 0.06 0 0.08 0.06 0 0.1 0.06 0 0 0.065 0 0.02 0.065 0 0.04 0.065 0 0.06 0.065 0 0.08 0.065 0 0.1 0.065 0 0 0.07 0 0.02 0.07 0 0.04 0.07 0 0.06 0.07 0 0.08 0.07 0 0.1 0.07 0 0 0.075 0 0.02 0.075 0 0.04 0.075 0 0.06 0.075 0 0.08 0.075 0 0.1 0.075 0 0 0.08 0 0.02 0.08 0 0.04 0.08 0 0.06 0.08 0 0.08 0.08 0 0.1 0.08 0 0 0.085 0 0.02 0.085 0 0.04 0.085 0 0.06 0.085 0 0.08 0.085 0 0.1 0.085 0 0 0.09 0 0.02 0.09 0 0.04 0.09 0 0.06 0.09 0 0.08 0.09 0 0.1 0.09 0 0 0.095 0 0.02 0.095 0 0.04 0.095 0 0.06 0.095 0 0.08 0.095 0 0.1 0.095 0 0 0.1 0 0.02 0.1 0 0.04 0.1 0 0.06 0.1 0 0.08 0.1 0 0.1 0.1 0 0 0.105 0 0.02 0.105 0 0.04 0.105 0 0.06 0.105 0 0.08 0.105 0 0.1 0.105 0 0 0.11 0 0.02 0.11 0 0.04 0.11 0 0.06 0.11 0 0.08 0.11 0 0.1 0.11 0 0 0.115 0 0.02 0.115 0 0.04 0.115 0 0.06 0.115 0 0.08 0.115 0 0.1 0.115 0 0 0.12 0 0.02 0.12 0 0.04 0.12 0 0.06 0.12 0 0.08 0.12 0 0.1 0.12 0 0 0.125 0 0.02 0.125 0 0.04 0.125 0 0.06 0.125 0 0.08 0.125 0 0.1 0.125 0 0 0.13 0 0.02 0.13 0 0.04 0.13 0 0.06 0.13 0 0.08 0.13 0 0.1 0.13 0 0 0.135 0 0.02 0.135 0 0.04 0.135 0 0.06 0.135 0 0.08 0.135 0 0.1 0.135 0 0 0.14 0 0.02 0.14 0 0.04 0.14 0 0.06 0.14 0 0.08 0.14 0 0.1 0.14 0 0 0.145 0 0.02 0.145 0 0.04 0.145 0 0.06 0.145 0 0.08 0.145 0 0.1 0.145 0 0 0.15 0 0.02 0.15 0 0.04 0.15 0 0.06 0.15 0 0.08 0.15 0 0.1 0.15 0 0 0.155 0 0.02 0.155 0 0.04 0.155 0 0.06 0.155 0 0.08 0.155 0 0.1 0.155 0 0 0.16 0 0.02 0.16 0 0.04 0.16 0 0.06 0.16 0 0.08 0.16 0 0.1 0.16 0 0 0.165 0 0.02 0.165 0 0.04 0.165 0 0.06 0.165 0 0.08 0.165 0 0.1 0.165 0 0 0.17 0 0.02 0.17 0 0.04 0.17 0 0.06 0.17 0 0.08 0.17 0 0.1 0.17 0 0 0.175 0 0.02 0.175 0 0.04 0.175 0 0.06 0.175 0 0.08 0.175 0 0.1 0.175 0 0 0.18 0 0.02 0.18 0 0.04 0.18 0 0.06 0.18 0 0.08 0.18 0 0.1 0.18 0 0 0.185 0 0.02 0.185 0 0.04 0.185 0 0.06 0.185 0 0.08 0.185 0 0.1 0.185 0 0 0.19 0 0.02 0.19 0 0.04 0.19 0 0.06 0.19 0 0.08 0.19 0 0.1 0.19 0 0 0.195 0 0.02 0.195 0 0.04 0.195 0 0.06 0.195 0 0.08 0.195 0 0.1 0.195 0 0 0.2 0 0.02 0.2 0 0.04 0.2 0 0.06 0.2 0 0.08 0.2 0 0.1 0.2 0 0 0.205 0 0.02 0.205 0 0.04 0.205 0 0.06 0.205 0 0.08 0.205 0 0.1 0.205 0 0 0.21 0 0.02 0.21 0 0.04 0.21 0 0.06 0.21 0 0.08 0.21 0 0.1 0.21 0 0 0.215 0 0.02 0.215 0 0.04 0.215 0 0.06 0.215 0 0.08 0.215 0 0.1 0.215 0 0 0.22 0 0.02 0.22 0 0.04 0.22 0 0.06 0.22 0 0.08 0.22 0 0.1 0.22 0 0 0.225 0 0.02 0.225 0 0.04 0.225 0 0.06 0.225 0 0.08 0.225 0 0.1 0.225 0 0 0.23 0 0.02 0.23 0 0.04 0.23 0 0.06 0.23 0 0.08 0.23 0 0.1 0.23 0 0 0.235 0 0.02 0.235 0 0.04 0.235 0 0.06 0.235 0 0.08 0.235 0 0.1 0.235 0 0 0.24 0 0.02 0.24 0 0.04 0.24 0 0.06 0.24 0 0.08 0.24 0 0.1 0.24 0 0 0.245 0 0.02 0.245 0 0.04 0.245 0 0.06 0.245 0 0.08 0.245 0 0.1 0.245 0 0 0.25 0 0.02 0.25 0 0.04 0.25 0 0.06 0.25 0 0.08 0.25 0 0.1 0.25 0 0 0.255 0 0.02 0.255 0 0.04 0.255 0 0.06 0.255 0 0.08 0.255 0 0.1 0.255 0 0 0.26 0 0.02 0.26 0 0.04 0.26 0 0.06 0.26 0 0.08 0.26 0 0.1 0.26 0 0 0.265 0 0.02 0.265 0 0.04 0.265 0 0.06 0.265 0 0.08 0.265 0 0.1 0.265 0 0 0.27 0 0.02 0.27 0 0.04 0.27 0 0.06 0.27 0 0.08 0.27 0 0.1 0.27 0 0 0.275 0 0.02 0.275 0 0.04 0.275 0 0.06 0.275 0 0.08 0.275 0 0.1 0.275 0 0 0.28 0 0.02 0.28 0 0.04 0.28 0 0.06 0.28 0 0.08 0.28 0 0.1 0.28 0 0 0.285 0 0.02 0.285 0 0.04 0.285 0 0.06 0.285 0 0.08 0.285 0 0.1 0.285 0 0 0.29 0 0.02 0.29 0 0.04 0.29 0 0.06 0.29 0 0.08 0.29 0 0.1 0.29 0 0 0.295 0 0.02 0.295 0 0.04 0.295 0 0.06 0.295 0 0.08 0.295 0 0.1 0.295 0 0 0.3 0 0.02 0.3 0 0.04 0.3 0 0.06 0.3 0 0.08 0.3 0 0.1 0.3 0 0 0.305 0 0.02 0.305 0 0.04 0.305 0 0.06 0.305 0 0.08 0.305 0 0.1 0.305 0 0 0.31 0 0.02 0.31 0 0.04 0.31 0 0.06 0.31 0 0.08 0.31 0 0.1 0.31 0 0 0.315 0 0.02 0.315 0 0.04 0.315 0 0.06 0.315 0 0.08 0.315 0 0.1 0.315 0 0 0.32 0 0.02 0.32 0 0.04 0.32 0 0.06 0.32 0 0.08 0.32 0 0.1 0.32 0 0 0.325 0 0.02 0.325 0 0.04 0.325 0 0.06 0.325 0 0.08 0.325 0 0.1 0.325 0 0 0.33 0 0.02 0.33 0 0.04 0.33 0 0.06 0.33 0 0.08 0.33 0 0.1 0.33 0 0 0.335 0 0.02 0.335 0 0.04 0.335 0 0.06 0.335 0 0.08 0.335 0 0.1 0.335 0 0 0.34 0 0.02 0.34 0 0.04 0.34 0 0.06 0.34 0 0.08 0.34 0 0.1 0.34 0 0 0.345 0 0.02 0.345 0 0.04 0.345 0 0.06 0.345 0 0.08 0.345 0 0.1 0.345 0 0 0.35 0 0.02 0.35 0 0.04 0.35 0 0.06 0.35 0 0.08 0.35 0 0.1 0.35 0 0 0.355 0 0.02 0.355 0 0.04 0.355 0 0.06 0.355 0 0.08 0.355 0 0.1 0.355 0 0 0.36 0 0.02 0.36 0 0.04 0.36 0 0.06 0.36 0 0.08 0.36 0 0.1 0.36 0 0 0.365 0 0.02 0.365 0 0.04 0.365 0 0.06 0.365 0 0.08 0.365 0 0.1 0.365 0 0 0.37 0 0.02 0.37 0 0.04 0.37 0 0.06 0.37 0 0.08 0.37 0 0.1 0.37 0 0 0.375 0 0.02 0.375 0 0.04 0.375 0 0.06 0.375 0 0.08 0.375 0 0.1 0.375 0 0 0.38 0 0.02 0.38 0 0.04 0.38 0 0.06 0.38 0 0.08 0.38 0 0.1 0.38 0 0 0.385 0 0.02 0.385 0 0.04 0.385 0 0.06 0.385 0 0.08 0.385 0 0.1 0.385 0 0 0.39 0 0.02 0.39 0 0.04 0.39 0 0.06 0.39 0 0.08 0.39 0 0.1 0.39 0 0 0.395 0 0.02 0.395 0 0.04 0.395 0 0.06 0.395 0 0.08 0.395 0 0.1 0.395 0 0 0.4 0 0.02 0.4 0 0.04 0.4 0 0.06 0.4 0 0.08 0.4 0 0.1 0.4 0 0 0.405 0 0.02 0.405 0 0.04 0.405 0 0.06 0.405 0 0.08 0.405 0 0.1 0.405 0 0 0.41 0 0.02 0.41 0 0.04 0.41 0 0.06 0.41 0 0.08 0.41 0 0.1 0.41 0 0 0.415 0 0.02 0.415 0 0.04 0.415 0 0.06 0.415 0 0.08 0.415 0 0.1 0.415 0 0 0.42 0 0.02 0.42 0 0.04 0.42 0 0.06 0.42 0 0.08 0.42 0 0.1 0.42 0 0 0.425 0 0.02 0.425 0 0.04 0.425 0 0.06 0.425 0 0.08 0.425 0 0.1 0.425 0 0 0.43 0 0.02 0.43 0 0.04 0.43 0 0.06 0.43 0 0.08 0.43 0 0.1 0.43 0 0 0.435002 0 0.02 0.435002 0 0.04 0.435002 0 0.06 0.435002 0 0.08 0.435002 0 0.1 0.435002 0 0 0.440012 0 0.02 0.440012 0 0.04 0.440012 0 0.06 0.440012 0 0.08 0.440012 0 0.1 0.440012 0 0 0.445054 0 0.02 0.445054 0 0.04 0.445054 0 0.06 0.445054 0 0.08 0.445054 0 0.1 0.445054 0 0 0.45019 0 0.02 0.45019 0 0.04 0.45019 0 0.06 0.45019 0 0.08 0.45019 0 0.1 0.45019 0 0 0.455534 0 0.02 0.455534 0 0.04 0.455534 0 0.06 0.455534 0 0.08 0.455534 0 0.1 0.455534 0 0 0.461235 0 0.02 0.461235 0 0.04 0.461235 0 0.06 0.461235 0 0.08 0.461235 0 0.1 0.461235 0 0 0.467449 0 0.02 0.467449 0 0.04 0.467449 0 0.06 0.467449 0 0.08 0.467449 0 0.1 0.467449 0 0 0.47435 0 0.02 0.47435 0 0.04 0.47435 0 0.06 0.47435 0 0.08 0.47435 0 0.1 0.47435 0 0 0.482153 0 0.02 0.482153 0 0.04 0.482153 0 0.06 0.482153 0 0.08 0.482153 0 0.1 0.482153 0 0 0.49116 0 0.02 0.49116 0 0.04 0.49116 0 0.06 0.49116 0 0.08 0.49116 0 0.1 0.49116 0 0 0.50176 0 0.02 0.50176 0 0.04 0.50176 0 0.06 0.50176 0 0.08 0.50176 0 0.1 0.50176 0 0 0.514126 0 0.02 0.514126 0 0.04 0.514126 0 0.06 0.514126 0 0.08 0.514126 0 0.1 0.514126 0 0 0.52684 0 0.02 0.52684 0 0.04 0.52684 0 0.06 0.52684 0 0.08 0.52684 0 0.1 0.52684 0 0 0.539027 0 0.02 0.539027 0 0.04 0.539027 0 0.06 0.539027 0 0.08 0.539027 0 0.1 0.539027 0 0 0.541337 0 0.02 0.541337 0 0.04 0.541337 0 0.06 0.541337 0 0.08 0.541337 0 0.1 0.541337 0 0 0.543646 0 0.02 0.543646 0 0.04 0.543646 0 0.06 0.543646 0 0.08 0.543646 0 0.1 0.543646 0 0 0.545956 0 0.02 0.545956 0 0.04 0.545956 0 0.06 0.545956 0 0.08 0.545956 0 0.1 0.545956 0 0 0.548269 0 0.02 0.548269 0 0.04 0.548269 0 0.06 0.548269 0 0.08 0.548269 0 0.1 0.548269 0 0 0.550587 0 0.02 0.550587 0 0.04 0.550587 0 0.06 0.550587 0 0.08 0.550587 0 0.1 0.550587 0 0 0.552906 0 0.02 0.552906 0 0.04 0.552906 0 0.06 0.552906 0 0.08 0.552906 0 0.1 0.552906 0 0 0.555223 0 0.02 0.555223 0 0.04 0.555223 0 0.06 0.555223 0 0.08 0.555223 0 0.1 0.555223 0 0 0.557534 0 0.02 0.557534 0 0.04 0.557534 0 0.06 0.557534 0 0.08 0.557534 0 0.1 0.557534 0 0 0.559868 0 0.02 0.559868 0 0.04 0.559868 0 0.06 0.559868 0 0.08 0.559868 0 0.1 0.559868 0 0 0.562301 0 0.02 0.562301 0 0.04 0.562301 0 0.06 0.562301 0 0.08 0.562301 0 0.1 0.562301 0 0 0.564826 0 0.02 0.564826 0 0.04 0.564826 0 0.06 0.564826 0 0.08 0.564826 0 0.1 0.564826 0 0 0.567564 0 0.02 0.567564 0 0.04 0.567564 0 0.06 0.567564 0 0.08 0.567564 0 0.1 0.567564 0 0 0.570512 0 0.02 0.570512 0 0.04 0.570512 0 0.06 0.570512 0 0.08 0.570512 0 0.1 0.570512 0 0 0.573738 0 0.02 0.573738 0 0.04 0.573738 0 0.06 0.573738 0 0.08 0.573738 0 0.1 0.573738 0 0 0.577324 0 0.02 0.577324 0 0.04 0.577324 0 0.06 0.577324 0 0.08 0.577324 0 0.1 0.577324 0 0 0.581294 0 0.02 0.581294 0 0.04 0.581294 0 0.06 0.581294 0 0.08 0.581294 0 0.1 0.581294 0 0 0.585628 0 0.02 0.585628 0 0.04 0.585628 0 0.06 0.585628 0 0.08 0.585628 0 0.1 0.585628 0 0 0.590262 0 0.02 0.590262 0 0.04 0.590262 0 0.06 0.590262 0 0.08 0.590262 0 0.1 0.590262 0 0 0.595094 0 0.02 0.595094 0 0.04 0.595094 0 0.06 0.595094 0 0.08 0.595094 0 0.1 0.595094 0 0 0.60003 0 0.02 0.60003 0 0.04 0.60003 0 0.06 0.60003 0 0.08 0.60003 0 0.1 0.60003 0 0 0.605009 0 0.02 0.605009 0 0.04 0.605009 0 0.06 0.605009 0 0.08 0.605009 0 0.1 0.605009 0 0 0.610003 0 0.02 0.610003 0 0.04 0.610003 0 0.06 0.610003 0 0.08 0.610003 0 0.1 0.610003 0 0 0.615001 0 0.02 0.615001 0 0.04 0.615001 0 0.06 0.615001 0 0.08 0.615001 0 0.1 0.615001 0 0 0.62 0 0.02 0.62 0 0.04 0.62 0 0.06 0.62 0 0.08 0.62 0 0.1 0.62 0 0 0.625 0 0.02 0.625 0 0.04 0.625 0 0.06 0.625 0 0.08 0.625 0 0.1 0.625 0 0 0.63 0 0.02 0.63 0 0.04 0.63 0 0.06 0.63 0 0.08 0.63 0 0.1 0.63 0 0 0.635 0 0.02 0.635 0 0.04 0.635 0 0.06 0.635 0 0.08 0.635 0 0.1 0.635 0 0 0.64 0 0.02 0.64 0 
[...]
			<PointData Scalars="VitesseX">
				<DataArray Name="VitesseX" type="Float32" format="ascii">
 0 3.63451e-16 -7.8916e-16 2.22467e-15 3.28148e-17 0 0 7.01359e-16 -1.07445e-15 2.34018e-15 -4.13906e-16 0 0 3.89609e-16 -6.66399e-16 2.11914e-15 -4.63325e-16 0 0 -1.17983e-15 1.11885e-15 6.11192e-16 7.05374e-16 0 0 -1.83358e-15 9.95539e-16 7.26026e-16 2.26372e-15 0 0 -2.41188e-15 1.50018e-15 6.74759e-16 3.18856e-15 0 0 -1.89729e-15 2.02629e-15 -3.89444e-16 3.88455e-15 0 0 1.47502e-15 -1.8126e-15 2.01892e-15 3.36814e-15 0 0 2.23302e-15 -4.25623e-15 4.86415e-15 2.86879e-15 0 0 8.31588e-16 -2.17124e-15 3.70433e-15 4.67325e-15 0 0 -5.14052e-18 1.54763e-16 2.40524e-15 4.87343e-15 0 0 1.38911e-15 -2.89919e-15 6.47306e-15 1.94875e-15 0 0 1.11583e-15 -1.11966e-15 4.40144e-15 2.15466e-15 0 0 7.46403e-16 -1.81621e-16 1.39183e-15 3.42318e-15 0 0 -4.61584e-16 -2.84503e-15 3.59913e-15 2.18706e-15 0 0 -5.56614e-16 -2.5229e-15 1.63749e-15 4.39698e-15 0 0 1.13856e-15 1.1696e-15 -3.98728e-15 7.59505e-15 0 0 -8.52615e-16 7.293e-15 -5.43585e-15 4.44737e-15 0 0 -1.69056e-15 6.0411e-15 -1.96456e-15 1.0518e-16 0 0 1.0344e-15 -6.39592e-16 1.08598e-15 8.80339e-16 0 0 -3.28191e-16 -2.58106e-15 3.4379e-15 5.73252e-16 0 0 -4.63328e-15 9.34588e-16 2.91055e-15 7.9344e-16 0 0 -1.86281e-15 -1.3193e-15 3.77483e-15 5.80565e-15 0 0 -1.4655e-15 -4.65392e-15 8.2831e-15 3.74684e-15 0 0 -2.86614e-15 -2.18214e-15 8.56988e-15 5.87104e-16 0 0 -1.78379e-16 2.23742e-15 -2.13992e-15 9.83451e-15 0 0 3.76107e-15 -3.34797e-17 -4.06145e-15 1.04565e-14 0 0 4.72335e-15 -2.26441e-15 1.03388e-15 5.714e-15 0 0 5.6115e-15 -2.31126e-15 -1.26757e-15 1.05973e-14 0 0 3.37133e-15 -3.9757e-16 4.77203e-15 4.25591e-16 0 0 -1.21044e-15 6.83466e-15 7.16967e-15 -9.6951e-15 0 0 -3.51839e-15 9.20943e-15 -1.72456e-15 -1.28792e-15 0 0 -1.2328e-15 1.98791e-15 -1.31188e-15 8.48942e-15 0 0 6.81143e-15 -5.78356e-15 -1.17353e-15 1.36473e-14 0 0 2.01522e-15 -3.66186e-15 3.44503e-15 2.56537e-16 0 0 -6.11896e-16 -4.2746e-15 6.63181e-15 9.96893e-16 0 0 1.7834e-15 -5.76882e-15 1.81185e-15 1.09631e-14 0 0 -2.26534e-15 2.08439e-15 2.19232e-15 3.56744e-15 0 0 -5.30763e-15 1.1097e-15 1.45281e-14 -2.84237e-15 0 0 -4.93278e-15 -2.63195e-15 1.75415e-14 -3.83025e-15 0 0 -8.80551e-16 9.77756e-16 7.08279e-15 4.50287e-15 0 0 1.78043e-16 1.06917e-15 9.93426e-15 9.83651e-15 0 0 3.43125e-15 -3.44187e-15 1.41356e-14 1.18518e-14 0 0 3.18489e-15 6.12689e-15 -1.41048e-15 2.45288e-14 0 0 -3.55355e-15 1.59476e-14 -1.0137e-14 2.88191e-14 0 0 -7.23035e-16 3.88857e-15 7.61859e-15 1.65178e-14 0 0 6.2079e-15 -1.12984e-14 2.56782e-14 2.67645e-15 0 0 3.71548e-15 -1.09753e-14 2.83004e-14 -2.53137e-15 0 0 1.03696e-15 -1.97632e-15 2.67217e-14 -1.46691e-14 0 0 -1.59995e-15 1.39995e-14 6.31543e-15 -2.74273e-15 0 0 -4.85256e-15 2.26684e-14 -1.27241e-14 1.37361e-14 0 0 2.25874e-15 1.57303e-14 -5.7587e-15 3.90819e-15 0 0 1.5751e-14 -3.65445e-15 1.50366e-14 -1.30982e-14 0 0 9.71068e-15 7.20344e-15 9.63638e-15 -1.81848e-14 0 0 3.28309e-15 2.70916e-14 -5.63229e-16 -1.80018e-14 0 0 4.53542e-15 2.24312e-14 -3.91862e-15 -1.46236e-14 0 0 -4.60768e-16 2.15539e-15 1.00344e-15 -1.10855e-14 0 0 6.51849e-15 -1.43258e-14 1.83576e-14 -2.53301e-14 0 0 3.40348e-15 2.54725e-15 6.36661e-15 -1.34927e-14 0 0 5.58813e-15 4.34395e-15 -1.42104e-15 8.53864e-15 0 0 9.2211e-15 -6.49869e-15 6.16389e-15 1.20936e-14 0 0 2.11899e-15 2.87188e-15 -1.8931e-15 2.81431e-15 0 0 1.19289e-14 6.11457e-15 -7.18141e-15 -6.04753e-15 0 0 7.20956e-15 1.11018e-14 1.43144e-15 -7.25602e-15 0 0 -1.72079e-16 1.97351e-14 -5.26113e-15 -2.07763e-15 0 0 2.64854e-15 4.50255e-15 -3.34777e-15 1.40215e-15 0 0 -5.1796e-15 1.88752e-15 6.91388e-15 -3.44111e-15 0 0 -5.56091e-15 4.67667e-15 3.4502e-15 7.93746e-15 0 0 2.25719e-15 7.78249e-16 4.63285e-15 1.87973e-14 0 0 -2.77462e-15 1.99006e-15 6.6732e-15 1.70611e-14 0 0 -4.15107e-15 1.34513e-15 4.08378e-15 2.44187e-14 0 0 1.74697e-15 1.14652e-14 -7.13746e-15 4.14186e-14 0 0 5.96503e-15 1.48514e-14 6.81884e-15 1.81877e-14 0 0 3.22028e-15 2.74653e-15 3.25006e-14 -9.44774e-15 0 0 1.3916e-14 -9.55897e-15 2.15365e-14 1.31289e-14 0 0 2.23055e-14 -7.40503e-17 1.95122e-15 2.94885e-14 0 0 5.32062e-15 2.1485e-14 -1.76335e-14 2.50572e-14 0 0 1.11598e-14 2.35711e-14 -2.14737e-14 -3.20642e-15 0 0 7.44854e-15 3.94497e-14 -1.38952e-14 -2.62172e-14 0 0 3.597e-15 3.32201e-14 -4.91513e-16 -2.10765e-14 0 0 9.96995e-15 2.18719e-14 -1.62259e-14 1.6481e-14 0 0 -1.23102e-14 2.91652e-14 -1.36415e-14 1.39557e-14 0 0 -2.27466e-15 4.30652e-15 1.5885e-14 -8.71682e-15 0 0 2.61719e-14 -1.74627e-14 1.40351e-14 3.73826e-15 0 0 2.39102e-15 2.74894e-15 1.19639e-14 3.3674e-15 0 0 -8.59153e-15 1.82527e-14 3.06791e-14 -1.23712e-16 0 0 -6.49006e-15 1.83678e-14 2.4138e-14 1.04059e-14 0 0 -1.05301e-14 1.92928e-14 3.28172e-15 1.1955e-14 0 0 -1.56041e-14 2.2337e-14 2.96202e-15 -2.82756e-15 0 0 1.0969e-14 8.71732e-15 -2.61585e-15 -5.78759e-15 0 0 2.80243e-14 -1.32153e-14 4.41078e-15 -8.20308e-15 0 0 -1.01298e-15 4.04972e-15 3.82807e-15 -5.41103e-15 0 0 6.93019e-15 1.38456e-14 -4.9398e-15 6.5991e-15 0 0 -2.05948e-14 9.51573e-15 3.01409e-16 -5.3463e-15 0 0 6.2056e-15 -5.18924e-15 -1.93608e-14 -1.90497e-15 0 0 1.69023e-14 -1.39051e-14 -1.0126e-14 3.86972e-15 0 0 5.27897e-15 1.2295e-14 -6.80832e-15 -1.28371e-14 0 0 1.60367e-14 1.14078e-14 -8.99166e-15 3.68763e-15 0 0 4.42699e-14 8.99147e-14 7.60336e-14 5.90326e-14 0 0 2.45381e-13 4.04789e-13 4.09636e-13 2.46897e-13 0 0 4.49686e-13 6.92452e-13 7.28649e-13 4.48528e-13 0 0 7.48834e-13 1.15077e-12 1.22011e-12 7.14276e-13 0 0 5.91005e-13 9.65487e-13 9.36232e-13 6.10405e-13 0 0 3.28259e-13 6.04868e-13 5.25083e-13 3.93019e-13 0 0 5.75176e-14 1.37437e-13 6.71469e-14 1.2096e-13 0 0 -1.42399e-13 -2.97927e-13 -2.45284e-13 -1.54872e-13 0 0 -2.48053e-13 -5.39992e-13 -4.53159e-13 -2.72241e-13 0 0 -2.50908e-13 -4.84989e-13 -4.10295e-13 -2.52926e-13 0 0 -7.94574e-14 -8.50015e-14 -3.37119e-14 -8.77794e-14 0 0 2.46635e-13 5.14282e-13 4.70662e-13 2.80559e-13 0 0 5.83156e-13 9.71612e-13 1.03367e-12 5.65195e-13 0 0 7.01278e-13 1.11436e-12 1.26384e-12 6.54733e-13 0 0 7.56824e-13 1.19877e-12 1.26377e-12 6.91327e-13 0 0 7.84875e-13 1.20857e-12 1.31281e-12 7.31548e-13 0 0 7.18364e-13 1.12117e-12 1.23882e-12 7.23228e-13 0 0 5.96037e-13 9.50243e-13 9.86059e-13 6.39833e-13 0 0 4.29302e-13 7.2845e-13 7.37311e-13 4.7168e-13 0 0 2.64547e-13 4.61131e-13 4.64589e-13 2.57098e-13 0 0 1.37591e-13 2.12494e-13 2.21579e-13 1.24503e-13 0 0 4.92839e-14 7.8302e-14 8.52363e-14 4.37974e-14 0 0 1.34713e-14 3.69324e-14 1.69548e-14 1.90671e-14 0 0 4.43641e-15 7.3285e-16 1.25804e-14 1.10792e-14 0 0 -4.75483e-15 -5.72339e-15 1.73028e-14 1.70764e-15 0 0 -7.66123e-15 4.5879e-15 7.44887e-15 1.43444e-14 0 0 1.29406e-14 -3.27594e-15 1.69689e-14 -3.55933e-15 0 0 2.29604e-14 -6.0442e-15 2.92714e-14 -1.81828e-14 0 0 3.62955e-15 1.97412e-15 2.41696e-14 -2.01204e-14 0 0 -8.21545e-15 1.35891e-14 6.18415e-15 -8.35422e-16 0 0 1.12523e-14 -1.17745e-14 1.64247e-14 2.03903e-14 0 0 1.02548e-14 -1.07292e-14 1.1512e-14 4.91048e-15 0 0 6.53684e-15 1.29095e-14 -5.94208e-15 8.28679e-15 0 0 7.21769e-15 1.15319e-14 1.50411e-14 8.09246e-15 0 0 4.16508e-15 5.87539e-15 1.58487e-14 1.66937e-14 0 0 1.5726e-14 -1.00182e-14 3.64995e-14 -1.36828e-14 0 0 1.84442e-14 -1.12961e-14 3.64377e-14 -6.34662e-15 0 0 2.60144e-14 7.1265e-15 -1.40397e-14 1.71127e-14 0 0 2.21566e-14 1.33357e-14 -2.96875e-14 -1.90327e-16 0 0 1.90117e-14 -1.77085e-15 -7.08003e-15 -5.77995e-15 0 0 1.9494e-14 1.00384e-14 2.50985e-14 -3.54857e-14 0 0 1.68759e-14 5.26123e-14 1.92795e-15 3.50387e-15 0 0 1.12063e-14 7.0812e-14 -6.4118e-15 1.98276e-14 0 0 2.70959e-14 3.36864e-14 8.19357e-15 7.29042e-15 0 0 1.78521e-14 5.87569e-14 -3.64984e-14 3.57585e-14 0 0 4.2142e-15 7.06505e-14 -9.31545e-15 -5.29859e-15 0 0 3.99562e-14 4.84333e-15 3.98843e-14 -1.01286e-14 0 0 2.57658e-14 3.56351e-15 3.19617e-14 -5.1858e-16 0 0 2.80336e-14 8.57111e-15 1.41476e-14 -9.60079e-15 0 0 2.99666e-14 3.72527e-14 -2.66468e-14 4.85676e-14 0 0 2.25019e-14 5.83056e-14 -2.64188e-14 5.65829e-14 0 0 2.86965e-14 4.71364e-14 -1.14519e-14 5.86145e-14 0 0 1.05246e-14 3.84386e-14 7.61525e-15 2.98706e-14 0 0 1.6692e-14 1.50768e-14 4.50847e-14 -2.75858e-14 0 0 8.74287e-15 5.57573e-14 -1.48607e-14 3.24485e-14 0 0 2.16082e-14 5.39056e-14 -1.9672e-15 1.1294e-14 0 0 1.49426e-14 3.13325e-14 4.4566e-14 -2.38537e-14 0 0 -1.72104e-15 5.00689e-14 2.18142e-14 1.69e-15 0 0 2.39594e-14 3.59462e-14 3.5566e-14 3.62845e-15 0 0 2.82269e-14 1.60706e-14 6.62189e-14 5.43849e-15 0 0 -1.06693e-15 5.13989e-14 5.21811e-14 -4.26801e-15 0 0 -1.56567e-15 5.40481e-14 3.92813e-14 -1.44683e-14 0 0 1.25477e-14 1.97633e-14 9.57468e-14 -2.9176e-14 0 0 -1.15045e-14 3.06391e-14 5.44143e-14 6.55422e-15 0 0 -5.59076e-15 3.41829e-14 -8.3256e-15 1.5059e-14 0 0 2.48126e-14 4.04985e-14 -8.58547e-15 -2.46582e-14 0 0 5.08688e-14 1.84744e-14 2.54481e-14 -4.34895e-14 0 0 3.90943e-14 -2.12882e-15 8.17907e-14 -4.99691e-14 0 0 4.87247e-15 1.00759e-14 7.5306e-14 -5.69279e-14 0 0 1.69731e-14 2.77615e-14 9.1291e-15 -2.14452e-14 0 0 5.08926e-14 4.43273e-14 -5.14023e-14 7.13317e-15 0 0 -2.67226e-15 1.07345e-13 -6.84482e-14 -1.52187e-14 0 0 -4.58204e-14 1.45207e-13 -5.42271e-14 -1.12606e-14 0 0 7.15662e-15 7.74764e-14 -1.04994e-15 -9.95427e-15 0 0 1.77412e-14 6.34223e-14 -2.87501e-14 6.12249e-14 0 0 4.08284e-14 4.42409e-14 -6.96959e-14 9.81408e-14 0 0 7.06396e-14 2.88669e-16 -2.10885e-14 3.02391e-14 0 0 2.89837e-14 1.59701e-14 2.48229e-14 -3.14971e-15 0 0 3.97855e-15 4.81514e-15 8.5885e-14 -4.45287e-14 0 0 -1.57676e-14 -6.3891e-15 1.05771e-13 -4.71257e-14 0 0 -4.46654e-14 1.81469e-14 5.9618e-14 2.31633e-14 0 0 -1.97007e-14 2.04641e-14 2.25841e-14 1.5206e-14 0 0 4.36602e-14 -1.02794e-14 -1.76049e-14 -1.09644e-14 0 0 3.50097e-14 -6.50764e-15 -2.20072e-14 -1.4172e-14 0 0 -2.43634e-14 3.48484e-14 -1.27792e-14 1.03372e-14 0 0 -5.12536e-15 2.08681e-14 -1.12231e-14 5.8786e-14 0 0 1.05616e-14 1.66136e-14 1.65873e-14 3.54217e-14 0 0 1.05018e-14 3.59974e-14 3.02648e-14 -5.09514e-15 0 0 2.90611e-14 2.2407e-14 2.88751e-14 -6.58169e-15 0 0 1.60737e-14 8.53293e-15 4.27273e-14 -8.68189e-15 0 0 5.81091e-15 4.4009e-15 2.83469e-14 4.32949e-15 0 0 1.37313e-14 2.80784e-14 -5.18101e-14 6.9085e-14 0 0 3.13332e-14 2.79459e-15 -4.22308e-14 6.87638e-14 0 0 5.03818e-14 -3.55946e-14 1.70422e-14 2.85621e-14 0 0 1.43762e-14 4.98253e-14 -3.72704e-14 3.95434e-14 0 0 -1.83462e-15 7.72212e-14 -5.05515e-14 3.87307e-14 0 0 3.40389e-14 -1.92527e-14 2.22603e-14 1.29753e-14 0 0 1.69466e-14 -2.76515e-15 -7.29321e-15 1.56676e-14 0 0 1.25954e-15 2.00888e-14 -3.46165e-15 -1.05694e-14 0 0 -1.3271e-15 1.49446e-14 4.8373e-14 -4.4953e-14 0 0 1.25566e-14 2.22394e-14 2.44684e-14 -2.23491e-14 0 0 2.82046e-14 3.72002e-15 2.1284e-14 -1.57911e-14 0 0 1.49934e-14 1.30684e-14 3.0517e-14 -2.92188e-14 0
				</DataArray>
				<DataArray Name="VitesseY" type="Float32" format="ascii">