<?xml version="1.0"?>
<VTKFile type="PolyData">
	<PolyData>
		<Piece NumberOfPoints="1206" NumberOfPolys="1000">
			<Points>
				<DataArray type="Float32" NumberOfComponents="3" format="ascii">
 0 0 0 0.02 0 0 0.04 0 0 0.06 0 0 0.08 0 0 0.1 0 0 0 0.005 0 0.02 0.005 0 0.04 0.005 0 0.06 0.005 0 0.08 0.005 0 0.1 0.005 0 0 0.01 0 0.02 0.01 0 0.04 0.01 0 0.06 0.01 0 0.08 0.01 0 0.1 0.01 0 0 0.015 0 0.02 0.015 0 0.04 0.015 0 0.06 0.015 0 0.08 0.015 0 0.1 0.015 0 0 0.02 0 0.02 0.02 0 0.04 0.02 0 0.06 0.02 0 0.08 0.02 0 0.1 0.02 0 0 0.025 0 0.02 0.025 0 0.04 0.025 0 0.06 0.025 0 0.08 0.025 0 0.1 0.025 0 0 0.03 0 0.02 0.03 0 0.04 0.03 0 0.06 0.03 0 0.08 0.03 0 0.1 0.03 0 0 0.035 0 0.02 0.035 0 0.04 0.035 0 0.06 0.035 0 0.08 0.035 0 0.1 0.035 0 0 0.04 0 0.02 0.04 0 0.04 0.04 0 0.06 0.04 0 0.08 0.04 0 0.1 0.04 0 0 0.045 0 0.02 0.045 0 0.04 0.045 0 0.06 0.045 0 0.08 0.045 0 0.1 0.045 0 0 0.05 0 0.02 0.05 0 0.04 0.05 0 0.06 0.05 0 0.08 0.05 0 0.1 0.05 0 0 0.055 0 0.02 0.055 0 0.04 0.055 0 0.06 0.055 0 0.08 0.055 0 0.1 0.055 0 0 0.06 0 0.02 0.06 0 0.04 0.06 0 0.06 0.06 0 0.08 0.06 0 0.1 0.06 0 0 0.065 0 0.02 0.065 0 0.04 0.065 0 0.06 0.065 0 0.08 0.065 0 0.1 0.065 0 0 0.07 0 0.02 0.07 0 0.04 0.07 0 0.06 0.07 0 0.08 0.07 0 0.1 0.07 0 0 0.075 0 0.02 0.075 0 0.04 0.075 0 0.06 0.075 0 0.08 0.075 0 0.1 0.075 0 0 0.08 0 0.02 0.08 0 0.04 0.08 0 0.06 0.08 0 0.08 0.08 0 0.1 0.08 0 0 0.085 0 0.02 0.085 0 0.04 0.085 0 0.06 0.085 0 0.08 0.085 0 0.1 0.085 0 0 0.09 0 0.02 0.09 0 0.04 0.09 0 0.06 0.09 0 0.08 0.09 0 0.1 0.09 0 0 0.095 0 0.02 0.095 0 0.04 0.095 0 0.06 0.095 0 0.08 0.095 0 0.1 0.095 0 0 0.1 0 0.02 0.1 0 0.04 0.1 0 0.06 0.1 0 0.08 0.1 0 0.1 0.1 0 0 0.105 0 0.02 0.105 0 0.04 0.105 0 0.06 0.105 0 0.08 0.105 0 0.1 0.105 0 0 0.11 0 0.02 0.11 0 0.04 0.11 0 0.06 0.11 0 0.08 0.11 0 0.1 0.11 0 0 0.115 0 0.02 0.115 0 0.04 0.115 0 0.06 0.115 0 0.08 0.115 0 0.1 0.115 0 0 0.12 0 0.02 0.12 0 0.04 0.12 0 0.06 0.12 0 0.08 0.12 0 0.1 0.12 0 0 0.125 0 0.02 0.125 0 0.04 0.125 0 0.06 0.125 0 0.08 0.125 0 0.1 0.125 0 0 0.13 0 0.02 0.13 0 0.04 0.13 0 0.06 0.13 0 0.08 0.13 0 0.1 0.13 0 0 0.135 0 0.02 0.135 0 0.04 0.135 0 0.06 0.135 0 0.08 0.135 0 0.1 0.135 0 0 0.14 0 0.02 0.14 0 0.04 0.14 0 0.06 0.14 0 0.08 0.14 0 0.1 0.14 0 0 0.145 0 0.02 0.145 0 0.04 0.145 0 0.06 0.145 0 0.08 0.145 0 0.1 0.145 0 0 0.15 0 0.02 0.15 0 0.04 0.15 0 0.06 0.15 0 0.08 0.15 0 0.1 0.15 0 0 0.155 0 0.02 0.155 0 0.04 0.155 0 0.06 0.155 0 0.08 0.155 0 0.1 0.155 0 0 0.16 0 0.02 0.16 0 0.04 0.16 0 0.06 0.16 0 0.08 0.16 0 0.1 0.16 0 0 0.165 0 0.02 0.165 0 0.04 0.165 0 0.06 0.165 0 0.08 0.165 0 0.1 0.165 0 0 0.17 0 0.02 0.17 0 0.04 0.17 0 0.06 0.17 0 0.08 0.17 0 0.1 0.17 0 0 0.175 0 0.02 0.175 0 0.04 0.175 0 0.06 0.175 0 0.08 0.175 0 0.1 0.175 0 0 0.18 0 0.02 0.18 0 0.04 0.18 0 0.06 0.18 0 0.08 0.18 0 0.1 0.18 0 0 0.185 0 0.02 0.185 0 0.04 0.185 0 0.06 0.185 0 0.08 0.185 0 0.1 0.185 0 0 0.19 0 0.02 0.19 0 0.04 0.19 0 0.06 0.19 0 0.08 0.19 0 0.1 0.19 0 0 0.195 0 0.02 0.195 0 0.04 0.195 0 0.06 0.195 0 0.08 0.195 0 0.1 0.195 0 0 0.2 0 0.02 0.2 0 0.04 0.2 0 0.06 0.2 0 0.08 0.2 0 0.1 0.2 0 0 0.205 0 0.02 0.205 0 0.04 0.205 0 0.06 0.205 0 0.08 0.205 0 0.1 0.205 0 0 0.21 0 0.02 0.21 0 0.04 0.21 0 0.06 0.21 0 0.08 0.21 0 0.1 0.21 0 0 0.215 0 0.02 0.215 0 0.04 0.215 0 0.06 0.215 0 0.08 0.215 0 0.1 0.215 0 0 0.22 0 0.02 0.22 0 0.04 0.22 0 0.06 0.22 0 0.08 0.22 0 0.1 0.22 0 0 0.225 0 0.02 0.225 0 0.04 0.225 0 0.06 0.225 0 0.08 0.225 0 0.1 0.225 0 0 0.23 0 0.02 0.23 0 0.04 0.23 0 0.06 0.23 0 0.08 0.23 0 0.1 0.23 0 0 0.235 0 0.02 0.235 0 0.04 0.235 0 0.06 0.235 0 0.08 0.235 0 0.1 0.235 0 0 0.24 0 0.02 0.24 0 0.04 0.24 0 0.06 0.24 0 0.08 0.24 0 0.1 0.24 0 0 0.245 0 0.02 0.245 0 0.04 0.245 0 0.06 0.245 0 0.08 0.245 0 0.1 0.245 0 0 0.25 0 0.02 0.25 0 0.04 0.25 0 0.06 0.25 0 0.08 0.25 0 0.1 0.25 0 0 0.255 0 0.02 0.255 0 0.04 0.255 0 0.06 0.255 0 0.08 0.255 0 0.1 0.255 0 0 0.26 0 0.02 0.26 0 0.04 0.26 0 0.06 0.26 0 0.08 0.26 0 0.1 0.26 0 0 0.265 0 0.02 0.265 0 0.04 0.265 0 0.06 0.265 0 0.08 0.265 0 0.1 0.265 0 0 0.27 0 0.02 0.27 0 0.04 0.27 0 0.06 0.27 0 0.08 0.27 0 0.1 0.27 0 0 0.275 0 0.02 0.275 0 0.04 0.275 0 0.06 0.275 0 0.08 0.275 0 0.1 0.275 0 0 0.28 0 0.02 0.28 0 0.04 0.28 0 0.06 0.28 0 0.08 0.28 0 0.1 0.28 0 0 0.285 0 0.02 0.285 0 0.04 0.285 0 0.06 0.285 0 0.08 0.285 0 0.1 0.285 0 0 0.29 0 0.02 0.29 0 0.04 0.29 0 0.06 0.29 0 0.08 0.29 0 0.1 0.29 0 0 0.295 0 0.02 0.295 0 0.04 0.295 0 0.06 0.295 0 0.08 0.295 0 0.1 0.295 0 0 0.300001 0 0.02 0.300001 0 0.04 0.300001 0 0.06 0.300001 0 0.08 0.300001 0 0.1 0.300001 0 0 0.305003 0 0.02 0.305003 0 0.04 0.305003 0 0.06 0.305003 0 0.08 0.305003 0 0.1 0.305003 0 0 0.310008 0 0.02 0.310008 0 0.04 0.310008 0 0.06 0.310008 0 0.08 0.310008 0 0.1 0.310008 0 0 0.315022 0 0.02 0.315022 0 0.04 0.315022 0 0.06 0.315022 0 0.08 0.315022 0 0.1 0.315022 0 0 0.320055 0 0.02 0.320055 0 0.04 0.320055 0 0.06 0.320055 0 0.08 0.320055 0 0.1 0.320055 0 0 0.325122 0 0.02 0.325122 0 0.04 0.325122 0 0.06 0.325122 0 0.08 0.325122 0 0.1 0.325122 0 0 0.330244 0 0.02 0.330244 0 0.04 0.330244 0 0.06 0.330244 0 0.08 0.330244 0 0.1 0.330244 0 0 0.335445 0 0.02 0.335445 0 0.04 0.335445 0 0.06 0.335445 0 0.08 0.335445 0 0.1 0.335445 0 0 0.340744 0 0.02 0.340744 0 0.04 0.340744 0 0.06 0.340744 0 0.08 0.340744 0 0.1 0.340744 0 0 0.34616 0 0.02 0.34616 0 0.04 0.34616 0 0.06 0.34616 0 0.08 0.34616 0 0.1 0.34616 0 0 0.351708 0 0.02 0.351708 0 0.04 0.351708 0 0.06 0.351708 0 0.08 0.351708 0 0.1 0.351708 0 0 0.357399 0 0.02 0.357399 0 0.04 0.357399 0 0.06 0.357399 0 0.08 0.357399 0 0.1 0.357399 0 0 0.363247 0 0.02 0.363247 0 0.04 0.363247 0 0.06 0.363247 0 0.08 0.363247 0 0.1 0.363247 0 0 0.369262 0 0.02 0.369262 0 0.04 0.369262 0 0.06 0.369262 0 0.08 0.369262 0 0.1 0.369262 0 0 0.375458 0 0.02 0.375458 0 0.04 0.375458 0 0.06 0.375458 0 0.08 0.375458 0 0.1 0.375458 0 0 0.381848 0 0.02 0.381848 0 0.04 0.381848 0 0.06 0.381848 0 0.08 0.381848 0 0.1 0.381848 0 0 0.388447 0 0.02 0.388447 0 0.04 0.388447 0 0.06 0.388447 0 0.08 0.388447 0 0.1 0.388447 0 0 0.39527 0 0.02 0.39527 0 0.04 0.39527 0 0.06 0.39527 0 0.08 0.39527 0 0.1 0.39527 0 0 0.402336 0 0.02 0.402336 0 0.04 0.402336 0 0.06 0.402336 0 0.08 0.402336 0 0.1 0.402336 0 0 0.409666 0 0.02 0.409666 0 0.04 0.409666 0 0.06 0.409666 0 0.08 0.409666 0 0.1 0.409666 0 0 0.417282 0 0.02 0.417282 0 0.04 0.417282 0 0.06 0.417282 0 0.08 0.417282 0 0.1 0.417282 0 0 0.425209 0 0.02 0.425209 0 0.04 0.425209 0 0.06 0.425209 0 0.08 0.425209 0 0.1 0.425209 0 0 0.433476 0 0.02 0.433476 0 0.04 0.433476 0 0.06 0.433476 0 0.08 0.433476 0 0.1 0.433476 0 0 0.442117 0 0.02 0.442117 0 0.04 0.442117 0 0.06 0.442117 0 0.08 0.442117 0 0.1 0.442117 0 0 0.451169 0 0.02 0.451169 0 0.04 0.451169 0 0.06 0.451169 0 0.08 0.451169 0 0.1 0.451169 0 0 0.460674 0 0.02 0.460674 0 0.04 0.460674 0 0.06 0.460674 0 0.08 0.460674 0 0.1 0.460674 0 0 0.470679 0 0.02 0.470679 0 0.04 0.470679 0 0.06 0.470679 0 0.08 0.470679 0 0.1 0.470679 0 0 0.481233 0 0.02 0.481233 0 0.04 0.481233 0 0.06 0.481233 0 0.08 0.481233 0 0.1 0.481233 0 0 0.49238 0 0.02 0.49238 0 0.04 0.49238 0 0.06 0.49238 0 0.08 0.49238 0 0.1 0.49238 0 0 0.504132 0 0.02 0.504132 0 0.04 0.504132 0 0.06 0.504132 0 0.08 0.504132 0 0.1 0.504132 0 0 0.516382 0 0.02 0.516382 0 0.04 0.516382 0 0.06 0.516382 0 0.08 0.516382 0 0.1 0.516382 0 0 0.528742 0 0.02 0.528742 0 0.04 0.528742 0 0.06 0.528742 0 0.08 0.528742 0 0.1 0.528742 0 0 0.540968 0 0.02 0.540968 0 0.04 0.540968 0 0.06 0.540968 0 0.08 0.540968 0 0.1 0.540968 0 0 0.55305 0 0.02 0.55305 0 0.04 0.55305 0 0.06 0.55305 0 0.08 0.55305 0 0.1 0.55305 0 0 0.565011 0 0.02 0.565011 0 0.04 0.565011 0 0.06 0.565011 0 0.08 0.565011 0 0.1 0.565011 0 0 0.576892 0 0.02 0.576892 0 0.04 0.576892 0 0.06 0.576892 0 0.08 0.576892 0 0.1 0.576892 0 0 0.588733 0 0.02 0.588733 0 0.04 0.588733 0 0.06 0.588733 0 0.08 0.588733 0 0.1 0.588733 0 0 0.600556 0 0.02 0.600556 0 0.04 0.600556 0 0.06 0.600556 0 0.08 0.600556 0 0.1 0.600556 0 0 0.612372 0 0.02 0.612372 0 0.04 0.612372 0 0.06 0.612372 0 0.08 0.612372 0 0.1 0.612372 0 0 0.624186 0 0.02 0.624186 0 0.04 0.624186 0 0.06 0.624186 0 0.08 0.624186 0 0.1 0.624186 0 0 0.636 0 0.02 0.636 0 0.04 0.636 0 0.06 0.636 0 0.08 0.636 0 0.1 0.636 0 0 0.638281 0 0.02 0.638281 0 0.04 0.638281 0 0.06 0.638281 0 0.08 0.638281 0 0.1 0.638281 0 0 0.640561 0 0.02 0.640561 0 0.04 0.640561 0 0.06 0.640561 0 0.08 0.640561 0 0.1 0.640561 0 0 0.642842 0 0.02 0.642842 0 0.04 0.642842 0 0.06 0.642842 0 0.08 0.642842 0 0.1 0.642842 0 0 0.645122 0 0.02 0.645122 0 0.04 0.645122 0 0.06 0.645122 0 0.08 0.645122 0 0.1 0.645122 0 0 0.647402 0 0.02 0.647402 0 0.04 0.647402 0 0.06 0.647402 0 0.08 0.647402 0 0.1 0.647402 0 0 0.649681 0 0.02 0.649681 0 0.04 0.649681 0 0.06 0.649681 0 0.08 0.649681 0 0.1 0.649681 0 0 0.651958 0 0.02 0.651958 0 0.04 0.651958 0 0.06 0.651958 0 0.08 0.651958 0 0.1 0.651958 0 0 0.654235 0 0.02 0.654235 0 0.04 0.654235 0 0.06 0.654235 0 0.08 0.654235 0 0.1 0.654235 0 0 0.656513 0 0.02 0.656513 0 0.04 0.656513 0 0.06 0.656513 0 0.08 0.656513 0 0.1 0.656513 0 0 0.658789 0 0.02 0.658789 0 0.04 0.658789 0 0.06 0.658789 0 0.08 0.658789 0 0.1 0.658789 0 0 0.661065 0 0.02 0.661065 0 0.04 0.661065 0 0.06 0.661065 0 0.08 0.661065 0 0.1 0.661065 0 0 0.663345 0 0.02 0.663345 0 0.04 0.663345 0 0.06 0.663345 0 0.08 0.663345 0 0.1 0.663345 0 0 0.665626 0 0.02 0.665626 0 0.04 0.665626 0 0.06 0.665626 0 0.08 0.665626 0 0.1 0.665626 0 0 0.667907 0 0.02 0.667907 0 0.04 0.667907 0 0.06 0.667907 0 0.08 0.667907 0 0.1 0.667907 0 0 0.670187 0 0.02 0.670187 0 0.04 0.670187 0 0.06 0.670187 0 0.08 0.670187 0 0.1 0.670187 0 0 0.672468 0 0.02 0.672468 0 0.04 0.672468 0 0.06 0.672468 0 0.08 0.672468 0 0.1 0.672468 0 0 0.67475 0 0.02 0.67475 0 0.04 0.67475 0 0.06 0.67475 0 0.08 0.67475 0 0.1 0.67475 0 0 0.677031 0 0.02 0.677031 0 0.04 0.677031 0 0.06 0.677031 0 0.08 0.677031 0 0.1 0.677031 0 0 0.679311 0 0.02 0.679311 0 0.04 0.679311 0 0.06 0.679311 0 0.08 0.679311 0 0.1 0.679311 0 0 0.681589 0 0.02 0.681589 0 0.04 0.681589 0 0.06 0.681589 0 0.08 0.681589 0 0.1 0.681589 0 0 0.683868 
[...]
			<PointData Scalars="VitesseX">
				<DataArray Name="VitesseX" type="Float32" format="ascii">
 0 2.36369e-15 1.1482e-15 -6.72466e-16 9.22058e-15 0 0 2.20589e-15 6.76609e-16 8.53989e-17 9.96538e-15 0 0 2.06163e-15 -2.82824e-16 1.40278e-15 1.13792e-14 0 0 1.74238e-15 -1.7089e-16 2.68635e-15 1.09296e-14 0 0 8.19192e-16 2.32333e-15 3.24986e-15 9.67489e-15 0 0 1.40009e-16 4.88393e-15 2.60519e-15 9.4483e-15 0 0 2.01831e-15 4.33021e-15 1.11618e-15 1.14157e-14 0 0 3.17928e-15 4.72239e-15 -6.74956e-16 1.19598e-14 0 0 1.719e-15 6.71555e-15 -8.43478e-16 7.19258e-15 0 0 2.08101e-15 4.91493e-15 1.87879e-15 3.2156e-15 0 0 3.16075e-15 2.22739e-15 2.51824e-15 3.71169e-15 0 0 1.16746e-15 5.33728e-15 -4.06425e-15 9.04043e-15 0 0 -1.08699e-15 6.3328e-15 -6.13461e-15 1.16503e-14 0 0 2.68994e-15 2.22082e-16 -2.89921e-16 9.1479e-15 0 0 4.64127e-15 -1.32796e-15 -3.16826e-16 1.08423e-14 0 0 2.38693e-15 -3.80503e-16 -1.80397e-16 9.39326e-15 0 0 -1.61996e-16 -4.93376e-16 4.32339e-15 2.30976e-15 0 0 -1.57741e-15 -3.57506e-16 6.44414e-15 -2.07102e-15 0 0 -3.72385e-16 9.49316e-16 4.08077e-15 -3.38e-15 0 0 -3.34011e-15 8.85616e-15 -1.75108e-16 -7.42064e-15 0 0 -5.11904e-15 1.29352e-14 -2.25094e-15 -7.98323e-15 0 0 6.77801e-16 6.34092e-15 -2.65295e-16 -4.98776e-15 0 0 1.57952e-15 3.30048e-15 4.17145e-15 -5.46615e-15 0 0 -1.17222e-15 5.4475e-15 1.06689e-15 9.25438e-17 0 0 1.51342e-15 2.91643e-15 2.82032e-16 2.34243e-15 0 0 -1.79173e-16 7.7794e-15 -2.78207e-15 2.77298e-16 0 0 -3.76921e-15 1.13074e-14 -2.84031e-15 -5.06989e-15 0 0 -4.92282e-15 5.84453e-15 7.34416e-17 -7.18643e-15 0 0 -3.68704e-15 -3.98636e-15 4.21309e-15 -3.64052e-15 0 0 -5.51404e-15 -4.09432e-15 2.82367e-15 -4.0112e-15 0 0 -2.98859e-15 -2.77544e-15 4.23003e-17 -7.80671e-15 0 0 -9.56647e-16 -1.06433e-14 6.61432e-15 -8.19385e-15 0 0 -7.44509e-15 -4.84273e-15 -5.63388e-15 -3.4901e-16 0 0 -9.24253e-17 -5.02252e-15 -1.07104e-14 -4.38682e-15 0 0 3.61067e-15 -1.27931e-14 4.44815e-15 -1.51437e-14 0 0 -6.83935e-15 -2.84199e-15 1.09037e-15 -1.31823e-14 0 0 -1.1144e-14 1.01203e-14 -1.79021e-14 -1.01457e-14 0 0 -6.17561e-15 5.76661e-15 -2.34555e-14 -7.79482e-15 0 0 4.38454e-15 -5.69765e-15 -1.56545e-14 -1.04176e-14 0 0 6.83252e-15 -6.18947e-15 -9.78149e-15 -1.5754e-14 0 0 3.43342e-15 -2.17218e-15 -1.02218e-14 -1.2116e-14 0 0 -2.25965e-15 7.45655e-15 -2.56377e-15 -1.98228e-14 0 0 3.71685e-15 2.06146e-15 2.7373e-14 -4.94666e-14 0 0 1.07987e-14 -6.94442e-15 2.72878e-14 -4.03583e-14 0 0 6.73257e-15 4.12221e-15 -3.87266e-15 -1.30544e-14 0 0 1.45865e-14 2.00355e-15 5.78706e-15 -9.63854e-15 0 0 2.80417e-14 -1.0428e-14 2.06534e-14 -5.56018e-15 0 0 2.90891e-14 5.20943e-15 2.3305e-14 -1.77669e-14 0 0 2.5804e-14 1.30575e-15 4.01546e-14 -2.34515e-14 0 0 1.5846e-14 -1.81391e-14 2.87333e-14 -1.95835e-14 0 0 -1.35048e-14 4.88176e-15 2.9484e-16 -2.9289e-14 0 0 -1.68191e-14 -3.19537e-16 4.90484e-15 -2.83262e-14 0 0 -1.79926e-14 -1.38548e-14 3.19832e-14 -2.42559e-14 0 0 -2.14215e-14 -1.88838e-14 2.92495e-14 3.16979e-15 0 0 -8.21983e-15 -4.39162e-14 -2.3992e-15 2.79127e-14 0 0 -2.59205e-14 -3.90127e-14 -3.58227e-14 1.76653e-14 0 0 -2.72722e-14 -2.08736e-14 -5.37594e-14 2.07549e-15 0 0 2.29814e-15 -2.38204e-14 -4.16107e-14 -2.43623e-14 0 0 7.37792e-15 2.03233e-14 -6.45537e-14 -2.31599e-14 0 0 1.65043e-15 2.67907e-14 -4.87597e-14 -3.28222e-14 0 0 -1.22026e-14 -2.44526e-14 9.02799e-16 -5.24212e-14 0 0 -3.14502e-14 -8.8606e-15 -1.12067e-14 -2.94644e-14 0 0 -1.58649e-14 -1.6921e-14 5.12042e-15 -2.55332e-14 0 0 7.89256e-15 -4.47957e-14 1.44348e-14 -3.74859e-14 0 0 1.84988e-14 -2.64329e-14 -1.01427e-14 -2.51608e-14 0 0 -3.93823e-15 -1.86153e-14 3.88289e-15 -2.13209e-14 0 0 -2.60842e-14 -4.01232e-14 2.30772e-14 -2.40459e-14 0 0 -1.47349e-14 -3.55462e-14 2.15449e-14 -2.7947e-14 0 0 -2.24648e-14 1.30021e-14 1.31117e-14 -3.83294e-14 0 0 -2.16071e-14 3.11758e-14 5.19989e-15 -1.53245e-14 0 0 -2.12667e-14 2.21212e-14 -1.47568e-14 1.42372e-14 0 0 -1.44263e-14 1.71411e-14 -3.14983e-14 2.61949e-14 0 0 1.35848e-15 1.13042e-14 -2.38874e-14 1.86627e-14 0 0 3.19807e-15 -2.18228e-14 5.85193e-15 -7.98033e-15 0 0 -1.74738e-14 8.07347e-15 -1.59736e-14 1.57424e-15 0 0 -1.53482e-14 5.13321e-15 -1.91981e-14 1.4174e-14 0 0 -1.579e-14 -8.09012e-15 1.92636e-14 -9.19033e-15 0 0 -4.54706e-14 3.01158e-14 -2.48534e-15 -9.74498e-15 0 0 -2.29239e-14 2.50074e-15 5.38873e-15 8.96831e-15 0 0 7.46686e-15 -1.28498e-14 1.1468e-14 -2.81232e-15 0 0 -5.92813e-15 2.49862e-15 -1.14632e-14 -2.88004e-14 0 0 5.17832e-15 -1.38595e-14 -1.37573e-14 -1.79473e-14 0 0 7.63172e-15 -2.7223e-14 2.00734e-15 5.27662e-15 0 0 3.60764e-15 -1.74726e-14 -8.19958e-15 3.0175e-14 0 0 2.41265e-14 8.54512e-15 -3.33013e-14 3.94216e-14 0 0 4.67074e-14 7.87574e-15 -8.94192e-15 2.2608e-14 0 0 3.4135e-14 1.02187e-14 1.28939e-15 -8.07229e-15 0 0 -1.59941e-14 2.65703e-14 6.23954e-15 -3.76868e-14 0 0 -1.65081e-14 7.14124e-15 1.11773e-14 -1.07077e-14 0 0 -2.14749e-15 -7.17296e-15 1.87522e-14 5.63811e-15 0 0 -1.361e-14 3.46653e-15 -1.16661e-14 1.66772e-14 0 0 -2.83665e-14 -1.89855e-14 -4.50707e-14 -9.40046e-15 0 0 -3.6746e-14 -8.47614e-14 -5.97144e-14 -5.7841e-14 0 0 -6.65728e-14 -1.14959e-13 -1.21429e-13 -6.15976e-14 0 0 -8.60525e-14 -1.18629e-13 -1.50987e-13 -7.78738e-14 0 0 -6.99259e-14 -1.08492e-13 -1.06783e-13 -8.5497e-14 0 0 -3.49784e-14 -7.01833e-14 -4.95499e-14 -3.9339e-14 0 0 5.59336e-15 1.76433e-15 1.24172e-14 7.46398e-15 0 0 3.55558e-14 7.24963e-14 6.57811e-14 2.89547e-14 0 0 6.1119e-14 8.84891e-14 8.81051e-14 2.9003e-14 0 0 7.96053e-14 8.78194e-14 8.76879e-14 2.72802e-14 0 0 1.36281e-13 1.20785e-13 1.70232e-13 4.20301e-14 0 0 9.66736e-14 1.5037e-13 1.28488e-13 8.2093e-14 0 0 4.72661e-14 1.52607e-13 4.51251e-14 7.13917e-14 0 0 3.31812e-14 9.35973e-14 -1.02097e-14 5.38031e-14 0 0 4.61751e-14 -7.97348e-15 4.00187e-14 -7.66264e-15 0 0 4.98889e-14 -1.06494e-16 6.32015e-14 1.30316e-14 0 0 1.69594e-13 2.23381e-13 2.52566e-13 1.36537e-13 0 0 3.9931e-13 5.96961e-13 6.06733e-13 3.48845e-13 0 0 6.12776e-13 9.55614e-13 9.39025e-13 6.14349e-13 0 0 7.49303e-13 1.1467e-12 1.12858e-12 7.27638e-13 0 0 7.56749e-13 1.136e-12 1.14397e-12 7.27395e-13 0 0 6.84435e-13 1.03801e-12 1.01382e-12 6.67414e-13 0 0 5.83573e-13 9.37629e-13 8.65048e-13 5.87941e-13 0 0 4.72021e-13 8.17168e-13 7.57931e-13 4.84854e-13 0 0 4.18417e-13 6.56648e-13 6.94176e-13 3.81277e-13 0 0 3.80854e-13 5.29713e-13 5.72301e-13 2.66233e-13 0 0 3.10706e-13 4.7827e-13 4.55263e-13 2.28144e-13 0 0 2.39616e-13 4.23376e-13 3.97282e-13 1.89648e-13 0 0 2.13468e-13 3.64257e-13 2.92087e-13 1.45633e-13 0 0 1.66222e-13 3.10665e-13 2.13751e-13 1.63303e-13 0 0 1.21793e-13 2.29452e-13 1.92829e-13 1.16342e-13 0 0 1.13917e-13 1.54787e-13 1.95385e-13 8.6103e-14 0 0 1.00571e-13 9.93015e-14 1.66546e-13 8.34805e-14 0 0 7.90152e-14 8.94592e-14 1.15157e-13 1.05463e-13 0 0 7.2161e-14 6.81426e-14 5.60992e-14 6.95972e-14 0 0 4.39874e-14 3.91529e-14 9.07892e-15 6.53979e-14 0 0 2.22493e-14 2.15912e-14 5.21814e-15 7.52301e-14 0 0 2.30063e-14 -1.57951e-14 -3.60746e-14 8.25183e-15 0 0 -6.28312e-15 -2.17506e-14 -3.34267e-14 -1.05381e-14 0 0 -2.48434e-14 -6.01363e-15 -5.73365e-14 1.65609e-14 0 0 -6.94127e-15 -5.75571e-14 -6.85234e-14 -3.18982e-14 0 0 -5.1088e-15 -7.52852e-14 -3.72433e-14 -8.86749e-14 0 0 -3.13457e-14 -7.51121e-14 -5.62072e-14 -6.31505e-14 0 0 -4.45267e-14 -9.08665e-14 -7.10828e-14 -3.88097e-14 0 0 -4.92626e-14 -1.01282e-13 -7.037e-14 -2.68039e-14 0 0 -4.71506e-14 -1.60279e-13 -1.68038e-14 -5.9302e-14 0 0 -5.49182e-14 -1.82364e-13 -4.24485e-14 -3.54962e-14 0 0 -9.28723e-14 -1.61371e-13 -9.34408e-14 1.42433e-14 0 0 -1.0534e-13 -1.92748e-13 -4.32096e-14 -4.60413e-14 0 0 -1.09395e-13 -2.02591e-13 -7.4461e-14 -9.87614e-14 0 0 -1.01783e-13 -2.11166e-13 -1.67772e-13 -1.5799e-14 0 0 -9.62606e-14 -2.57308e-13 -1.81181e-13 1.24592e-14 0 0 -1.45437e-13 -1.74856e-13 -2.53073e-13 -3.44958e-14 0 0 -1.31419e-13 -1.96267e-13 -2.27837e-13 -8.363e-14 0 0 -1.25197e-13 -2.72167e-13 -1.56767e-13 -1.33587e-13 0 0 -1.55362e-13 -2.41042e-13 -1.68931e-13 -1.06237e-13 0 0 -1.47345e-13 -2.36076e-13 -1.61248e-13 -1.96308e-13 0 0 -1.45057e-13 -1.81381e-13 -2.05495e-13 -1.87597e-13 0 0 -1.18701e-13 -1.89994e-13 -1.60497e-13 -4.36206e-14 0 0 -7.9575e-14 -1.89125e-13 -1.74639e-13 -9.49215e-14 0 0 -8.92589e-14 -1.23599e-13 -1.95811e-13 -5.91604e-14 0 0 -8.0924e-14 -1.0322e-13 -9.41945e-14 -2.61251e-14 0 0 -4.8873e-14 -8.89906e-14 -7.4317e-14 -7.74354e-14 0 0 -3.8219e-14 -5.90815e-14 -5.21105e-14 -9.85744e-14 0 0 -3.45959e-14 -4.12379e-14 -7.84929e-14 -7.40494e-14 0 0 -1.96042e-14 -5.44656e-14 -7.70249e-14 -5.05251e-14 0 0 -8.1705e-15 -6.87692e-14 -4.04868e-14 -1.06282e-13 0 0 -2.6928e-14 -4.68689e-14 -4.09268e-14 -1.10738e-13 0 0 -3.19184e-14 -4.41147e-14 -6.21138e-14 -6.40498e-14 0 0 -1.19316e-14 -4.72965e-14 -1.05507e-13 -3.07571e-14 0 0 -5.21313e-15 -4.71142e-14 -9.78391e-14 -5.38977e-14 0 0 -7.50317e-15 -6.61595e-14 -7.66435e-14 -5.10779e-14 0 0 -8.78292e-16 -8.40502e-14 -9.87173e-14 -3.08878e-14 0 0 2.90567e-15 -8.26296e-14 -8.33091e-14 -7.07937e-14 0 0 -3.01001e-15 -7.79227e-14 -6.26095e-14 -8.72593e-14 0 0 -1.66756e-14 -6.15139e-14 -6.16723e-14 -9.40533e-14 0 0 -6.57342e-15 -7.74451e-14 -1.44745e-14 -1.27739e-13 0 0 -4.63132e-15 -7.38627e-14 -2.37355e-14 -6.47668e-14 0 0 -1.12271e-14 -6.18599e-14 -3.39151e-14 -4.04496e-14 0 0 6.21349e-15 -9.23433e-14 -7.74104e-15 -1.99903e-14 0 0 7.09577e-15 -5.0006e-14 -5.2253e-14 2.57407e-14 0 0 -5.35682e-15 -2.16248e-15 -6.82755e-14 -8.56863e-16 0 0 1.18964e-14 -7.50677e-15 -2.14255e-14 -6.08215e-14 0 0 4.05351e-14 -1.71571e-14 5.15394e-15 -1.09971e-13 0 0 2.08068e-14 2.82498e-14 -5.06361e-14 -4.39972e-14 0 0 1.02927e-14 5.22495e-14 -6.68241e-14 -4.63622e-15 0 0 3.85094e-14 3.16267e-14 -2.01734e-14 -3.17397e-14 0 0 4.95819e-14 2.22613e-14 3.68187e-14 -4.78384e-14 0 0 4.73414e-14 3.55625e-15 2.51751e-14 -3.36774e-14 0 0 -1.12586e-14 7.6225e-14 -8.56798e-14 9.46181e-15 0 0 -1.1858e-14 7.37949e-14 -9.17506e-14 2.1492e-14 0 0 4.74139e-14 -2.86467e-14 2.16287e-15 -1.22927e-14 0 0 1.27472e-14 -1.38297e-14 1.8078e-14 -3.46243e-14 0 0 -1.27189e-14 4.15332e-15 -2.25624e-14 -1.33592e-14 0 0 -3.96199e-15 -1.56828e-14 -4.50098e-14 1.7564e-14 0 0 -9.41444e-15 -7.48898e-15 -4.03062e-14 5.55746e-14 0 0 1.55913e-14 1.93745e-15 -4.77987e-14 7.16497e-14 0 0 1.8413e-14 -1.74914e-14 -1.52997e-14 5.40074e-14 0 0 -4.79461e-14 2.49163e-14 3.02342e-14 -1.03457e-14 0 0 -2.85089e-14 3.10189e-14 4.01956e-14 -5.85156e-14 0 0 2.5371e-14 9.4979e-15 5.43375e-14 -8.78723e-14 0 0 -7.07608e-15 6.61417e-14 -6.49002e-16 -4.15418e-14 0 0 -5.40533e-15 3.01629e-14 -1.45427e-14 1.61229e-14 0 0 1.0437e-14 -2.07331e-14 3.09651e-14 8.15936e-15 0 0 -8.23633e-15 -7.84175e-15 2.80549e-14 3.18649e-14 0 0 -4.47827e-14 2.69829e-14 -1.57369e-14 2.35297e-14 0 0 -6.13558e-14 4.44643e-14 -2.43409e-14 -5.23721e-14 0 0 -2.84648e-15 -4.42443e-14 4.40026e-14 -1.18006e-13 0 0 3.34663e-14 -7.08247e-14 4.42908e-14 -1.2418e-13 0 0 2.68699e-14 -2.80615e-14 7.15779e-15 -1.1179e-13 0
				</DataArray>
				<DataArray Name="VitesseY" type="Float32" format="ascii">