<?xml version="1.0"?>
<VTKFile type="PolyData">
	<PolyData>
		<Piece NumberOfPoints="1206" NumberOfPolys="1000">
			<Points>
				<DataArray type="Float32" NumberOfComponents="3" format="ascii">
 0 0 0 0.02 0 0 0.04 0 0 0.06 0 0 0.08 0 0 0.1 0 0 0 0.005 0 0.02 0.005 0 0.04 0.005 0 0.06 0.005 0 0.08 0.005 0 0.1 0.005 0 0 0.01 0 0.02 0.01 0 0.04 0.01 0 0.06 0.01 0 0.08 0.01 0 0.1 0.01 0 0 0.015 0 0.02 0.015 0 0.04 0.015 0 0.06 0.015 0 0.08 0.015 0 0.1 0.015 0 0 0.02 0 0.02 0.02 0 0.04 0.02 0 0.06 0.02 0 0.08 0.02 0 0.1 0.02 0 0 0.025 0 0.02 0.025 0 0.04 0.025 0 0.06 0.025 0 0.08 0.025 0 0.1 0.025 0 0 0.03 0 0.02 0.03 0 0.04 0.03 0 0.06 0.03 0 0.08 0.03 0 0.1 0.03 0 0 0.035 0 0.02 0.035 0 0.04 0.035 0 0.06 0.035 0 0.08 0.035 0 0.1 0.035 0 0 0.04 0 0.02 0.04 0 0.04 0.04 0 0.06 0.04 0 0.08 0.04 0 0.1 0.04 0 0 0.045 0 0.02 0.045 0 0.04 0.045 0 0.06 0.045 0 0.08 0.045 0 0.1 0.045 0 0 0.05 0 0.02 0.05 0 0.04 0.05 0 0.06 0.05 0 0.08 0.05 0 0.1 0.05 0 0 0.055 0 0.02 0.055 0 0.04 0.055 0 0.06 0.055 0 0.08 0.055 0 0.1 0.055 0 0 0.06 0 0.02 0.06 0 0.04 0.06 0 0.06 0.06 0 0.08 0.06 0 0.1 0.06 0 0 0.065 0 0.02 0.065 0 0.04 0.065 0 0.06 0.065 0 0.08 0.065 0 0.1 0.065 0 0 0.07 0 0.02 0.07 0 0.04 0.07 0 0.06 0.07 0 0.08 0.07 0 0.1 0.07 0 0 0.075 0 0.02 0.075 0 0.04 0.075 0 0.06 0.075 0 0.08 0.075 0 0.1 0.075 0 0 0.08 0 0.02 0.08 0 0.04 0.08 0 0.06 0.08 0 0.08 0.08 0 0.1 0.08 0 0 0.085 0 0.02 0.085 0 0.04 0.085 0 0.06 0.085 0 0.08 0.085 0 0.1 0.085 0 0 0.09 0 0.02 0.09 0 0.04 0.09 0 0.06 0.09 0 0.08 0.09 0 0.1 0.09 0 0 0.095 0 0.02 0.095 0 0.04 0.095 0 0.06 0.095 0 0.08 0.095 0 0.1 0.095 0 0 0.1 0 0.02 0.1 0 0.04 0.1 0 0.06 0.1 0 0.08 0.1 0 0.1 0.1 0 0 0.105 0 0.02 0.105 0 0.04 0.105 0 0.06 0.105 0 0.08 0.105 0 0.1 0.105 0 0 0.11 0 0.02 0.11 0 0.04 0.11 0 0.06 0.11 0 0.08 0.11 0 0.1 0.11 0 0 0.115 0 0.02 0.115 0 0.04 0.115 0 0.06 0.115 0 0.08 0.115 0 0.1 0.115 0 0 0.12 0 0.02 0.12 0 0.04 0.12 0 0.06 0.12 0 0.08 0.12 0 0.1 0.12 0 0 0.125 0 0.02 0.125 0 0.04 0.125 0 0.06 0.125 0 0.08 0.125 0 0.1 0.125 0 0 0.13 0 0.02 0.13 0 0.04 0.13 0 0.06 0.13 0 0.08 0.13 0 0.1 0.13 0 0 0.135 0 0.02 0.135 0 0.04 0.135 0 0.06 0.135 0 0.08 0.135 0 0.1 0.135 0 0 0.14 0 0.02 0.14 0 0.04 0.14 0 0.06 0.14 0 0.08 0.14 0 0.1 0.14 0 0 0.145 0 0.02 0.145 0 0.04 0.145 0 0.06 0.145 0 0.08 0.145 0 0.1 0.145 0 0 0.15 0 0.02 0.15 0 0.04 0.15 0 0.06 0.15 0 0.08 0.15 0 0.1 0.15 0 0 0.155 0 0.02 0.155 0 0.04 0.155 0 0.06 0.155 0 0.08 0.155 0 0.1 0.155 0 0 0.16 0 0.02 0.16 0 0.04 0.16 0 0.06 0.16 0 0.08 0.16 0 0.1 0.16 0 0 0.165 0 0.02 0.165 0 0.04 0.165 0 0.06 0.165 0 0.08 0.165 0 0.1 0.165 0 0 0.17 0 0.02 0.17 0 0.04 0.17 0 0.06 0.17 0 0.08 0.17 0 0.1 0.17 0 0 0.175 0 0.02 0.175 0 0.04 0.175 0 0.06 0.175 0 0.08 0.175 0 0.1 0.175 0 0 0.18 0 0.02 0.18 0 0.04 0.18 0 0.06 0.18 0 0.08 0.18 0 0.1 0.18 0 0 0.185 0 0.02 0.185 0 0.04 0.185 0 0.06 0.185 0 0.08 0.185 0 0.1 0.185 0 0 0.19 0 0.02 0.19 0 0.04 0.19 0 0.06 0.19 0 0.08 0.19 0 0.1 0.19 0 0 0.195 0 0.02 0.195 0 0.04 0.195 0 0.06 0.195 0 0.08 0.195 0 0.1 0.195 0 0 0.2 0 0.02 0.2 0 0.04 0.2 0 0.06 0.2 0 0.08 0.2 0 0.1 0.2 0 0 0.205 0 0.02 0.205 0 0.04 0.205 0 0.06 0.205 0 0.08 0.205 0 0.1 0.205 0 0 0.21 0 0.02 0.21 0 0.04 0.21 0 0.06 0.21 0 0.08 0.21 0 0.1 0.21 0 0 0.215 0 0.02 0.215 0 0.04 0.215 0 0.06 0.215 0 0.08 0.215 0 0.1 0.215 0 0 0.22 0 0.02 0.22 0 0.04 0.22 0 0.06 0.22 0 0.08 0.22 0 0.1 0.22 0 0 0.225 0 0.02 0.225 0 0.04 0.225 0 0.06 0.225 0 0.08 0.225 0 0.1 0.225 0 0 0.23 0 0.02 0.23 0 0.04 0.23 0 0.06 0.23 0 0.08 0.23 0 0.1 0.23 0 0 0.235 0 0.02 0.235 0 0.04 0.235 0 0.06 0.235 0 0.08 0.235 0 0.1 0.235 0 0 0.24 0 0.02 0.24 0 0.04 0.24 0 0.06 0.24 0 0.08 0.24 0 0.1 0.24 0 0 0.245 0 0.02 0.245 0 0.04 0.245 0 0.06 0.245 0 0.08 0.245 0 0.1 0.245 0 0 0.25 0 0.02 0.25 0 0.04 0.25 0 0.06 0.25 0 0.08 0.25 0 0.1 0.25 0 0 0.255 0 0.02 0.255 0 0.04 0.255 0 0.06 0.255 0 0.08 0.255 0 0.1 0.255 0 0 0.26 0 0.02 0.26 0 0.04 0.26 0 0.06 0.26 0 0.08 0.26 0 0.1 0.26 0 0 0.265 0 0.02 0.265 0 0.04 0.265 0 0.06 0.265 0 0.08 0.265 0 0.1 0.265 0 0 0.27 0 0.02 0.27 0 0.04 0.27 0 0.06 0.27 0 0.08 0.27 0 0.1 0.27 0 0 0.275 0 0.02 0.275 0 0.04 0.275 0 0.06 0.275 0 0.08 0.275 0 0.1 0.275 0 0 0.28 0 0.02 0.28 0 0.04 0.28 0 0.06 0.28 0 0.08 0.28 0 0.1 0.28 0 0 0.285 0 0.02 0.285 0 0.04 0.285 0 0.06 0.285 0 0.08 0.285 0 0.1 0.285 0 0 0.29 0 0.02 0.29 0 0.04 0.29 0 0.06 0.29 0 0.08 0.29 0 0.1 0.29 0 0 0.295 0 0.02 0.295 0 0.04 0.295 0 0.06 0.295 0 0.08 0.295 0 0.1 0.295 0 0 0.3 0 0.02 0.3 0 0.04 0.3 0 0.06 0.3 0 0.08 0.3 0 0.1 0.3 0 0 0.305 0 0.02 0.305 0 0.04 0.305 0 0.06 0.305 0 0.08 0.305 0 0.1 0.305 0 0 0.31 0 0.02 0.31 0 0.04 0.31 0 0.06 0.31 0 0.08 0.31 0 0.1 0.31 0 0 0.315 0 0.02 0.315 0 0.04 0.315 0 0.06 0.315 0 0.08 0.315 0 0.1 0.315 0 0 0.32 0 0.02 0.32 0 0.04 0.32 0 0.06 0.32 0 0.08 0.32 0 0.1 0.32 0 0 0.325 0 0.02 0.325 0 0.04 0.325 0 0.06 0.325 0 0.08 0.325 0 0.1 0.325 0 0 0.330002 0 0.02 0.330002 0 0.04 0.330002 0 0.06 0.330002 0 0.08 0.330002 0 0.1 0.330002 0 0 0.335006 0 0.02 0.335006 0 0.04 0.335006 0 0.06 0.335006 0 0.08 0.335006 0 0.1 0.335006 0 0 0.340017 0 0.02 0.340017 0 0.04 0.340017 0 0.06 0.340017 0 0.08 0.340017 0 0.1 0.340017 0 0 0.345046 0 0.02 0.345046 0 0.04 0.345046 0 0.06 0.345046 0 0.08 0.345046 0 0.1 0.345046 0 0 0.35011 0 0.02 0.35011 0 0.04 0.35011 0 0.06 0.35011 0 0.08 0.35011 0 0.1 0.35011 0 0 0.355233 0 0.02 0.355233 0 0.04 0.355233 0 0.06 0.355233 0 0.08 0.355233 0 0.1 0.355233 0 0 0.360444 0 0.02 0.360444 0 0.04 0.360444 0 0.06 0.360444 0 0.08 0.360444 0 0.1 0.360444 0 0 0.365771 0 0.02 0.365771 0 0.04 0.365771 0 0.06 0.365771 0 0.08 0.365771 0 0.1 0.365771 0 0 0.371237 0 0.02 0.371237 0 0.04 0.371237 0 0.06 0.371237 0 0.08 0.371237 0 0.1 0.371237 0 0 0.376861 0 0.02 0.376861 0 0.04 0.376861 0 0.06 0.376861 0 0.08 0.376861 0 0.1 0.376861 0 0 0.382661 0 0.02 0.382661 0 0.04 0.382661 0 0.06 0.382661 0 0.08 0.382661 0 0.1 0.382661 0 0 0.388654 0 0.02 0.388654 0 0.04 0.388654 0 0.06 0.388654 0 0.08 0.388654 0 0.1 0.388654 0 0 0.394855 0 0.02 0.394855 0 0.04 0.394855 0 0.06 0.394855 0 0.08 0.394855 0 0.1 0.394855 0 0 0.401286 0 0.02 0.401286 0 0.04 0.401286 0 0.06 0.401286 0 0.08 0.401286 0 0.1 0.401286 0 0 0.407966 0 0.02 0.407966 0 0.04 0.407966 0 0.06 0.407966 0 0.08 0.407966 0 0.1 0.407966 0 0 0.414918 0 0.02 0.414918 0 0.04 0.414918 0 0.06 0.414918 0 0.08 0.414918 0 0.1 0.414918 0 0 0.422168 0 0.02 0.422168 0 0.04 0.422168 0 0.06 0.422168 0 0.08 0.422168 0 0.1 0.422168 0 0 0.429748 0 0.02 0.429748 0 0.04 0.429748 0 0.06 0.429748 0 0.08 0.429748 0 0.1 0.429748 0 0 0.43769 0 0.02 0.43769 0 0.04 0.43769 0 0.06 0.43769 0 0.08 0.43769 0 0.1 0.43769 0 0 0.446036 0 0.02 0.446036 0 0.04 0.446036 0 0.06 0.446036 0 0.08 0.446036 0 0.1 0.446036 0 0 0.454829 0 0.02 0.454829 0 0.04 0.454829 0 0.06 0.454829 0 0.08 0.454829 0 0.1 0.454829 0 0 0.464124 0 0.02 0.464124 0 0.04 0.464124 0 0.06 0.464124 0 0.08 0.464124 0 0.1 0.464124 0 0 0.473977 0 0.02 0.473977 0 0.04 0.473977 0 0.06 0.473977 0 0.08 0.473977 0 0.1 0.473977 0 0 0.484452 0 0.02 0.484452 0 0.04 0.484452 0 0.06 0.484452 0 0.08 0.484452 0 0.1 0.484452 0 0 0.495596 0 0.02 0.495596 0 0.04 0.495596 0 0.06 0.495596 0 0.08 0.495596 0 0.1 0.495596 0 0 0.507394 0 0.02 0.507394 0 0.04 0.507394 0 0.06 0.507394 0 0.08 0.507394 0 0.1 0.507394 0 0 0.519602 0 0.02 0.519602 0 0.04 0.519602 0 0.06 0.519602 0 0.08 0.519602 0 0.1 0.519602 0 0 0.531748 0 0.02 0.531748 0 0.04 0.531748 0 0.06 0.531748 0 0.08 0.531748 0 0.1 0.531748 0 0 0.543753 0 0.02 0.543753 0 0.04 0.543753 0 0.06 0.543753 0 0.08 0.543753 0 0.1 0.543753 0 0 0.555633 0 0.02 0.555633 0 0.04 0.555633 0 0.06 0.555633 0 0.08 0.555633 0 0.1 0.555633 0 0 0.567436 0 0.02 0.567436 0 0.04 0.567436 0 0.06 0.567436 0 0.08 0.567436 0 0.1 0.567436 0 0 0.579206 0 0.02 0.579206 0 0.04 0.579206 0 0.06 0.579206 0 0.08 0.579206 0 0.1 0.579206 0 0 0.590962 0 0.02 0.590962 0 0.04 0.590962 0 0.06 0.590962 0 0.08 0.590962 0 0.1 0.590962 0 0 0.602713 0 0.02 0.602713 0 0.04 0.602713 0 0.06 0.602713 0 0.08 0.602713 0 0.1 0.602713 0 0 0.614475 0 0.02 0.614475 0 0.04 0.614475 0 0.06 0.614475 0 0.08 0.614475 0 0.1 0.614475 0 0 0.617088 0 0.02 0.617088 0 0.04 0.617088 0 0.06 0.617088 0 0.08 0.617088 0 0.1 0.617088 0 0 0.619627 0 0.02 0.619627 0 0.04 0.619627 0 0.06 0.619627 0 0.08 0.619627 0 0.1 0.619627 0 0 0.62212 0 0.02 0.62212 0 0.04 0.62212 0 0.06 0.62212 0 0.08 0.62212 0 0.1 0.62212 0 0 0.624581 0 0.02 0.624581 0 0.04 0.624581 0 0.06 0.624581 0 0.08 0.624581 0 0.1 0.624581 0 0 0.62702 0 0.02 0.62702 0 0.04 0.62702 0 0.06 0.62702 0 0.08 0.62702 0 0.1 0.62702 0 0 0.629443 0 0.02 0.629443 0 0.04 0.629443 0 0.06 0.629443 0 0.08 0.629443 0 0.1 0.629443 0 0 0.631854 0 0.02 0.631854 0 0.04 0.631854 0 0.06 0.631854 0 0.08 0.631854 0 0.1 0.631854 0 0 0.634256 0 0.02 0.634256 0 0.04 0.634256 0 0.06 0.634256 0 0.08 0.634256 0 0.1 0.634256 0 0 0.636651 0 0.02 0.636651 0 0.04 0.636651 0 0.06 0.636651 0 0.08 0.636651 0 0.1 0.636651 0 0 0.639042 0 0.02 0.639042 0 0.04 0.639042 0 0.06 0.639042 0 0.08 0.639042 0 0.1 0.639042 0 0 0.641428 0 0.02 0.641428 0 0.04 0.641428 0 0.06 0.641428 0 0.08 0.641428 0 0.1 0.641428 0 0 0.643811 0 0.02 0.643811 0 0.04 0.643811 0 0.06 0.643811 0 0.08 0.643811 0 0.1 0.643811 0 0 0.64619 0 0.02 0.64619 0 0.04 0.64619 0 0.06 0.64619 0 0.08 0.64619 0 0.1 0.64619 0 0 0.648566 0 0.02 0.648566 0 0.04 0.648566 0 0.06 0.648566 0 0.08 0.648566 0 0.1 0.648566 0 0 0.650939 0 0.02 0.650939 0 0.04 0.650939 0 0.06 0.650939 0 0.08 0.650939 0 0.1 0.650939 0 0 0.653308 0 0.02 0.653308 0 0.04 0.653308 0 0.06 0.653308 0 0.08 0.653308 0 0.1 0.653308 0 0 0.655676 0 0.02 0.655676 0 0.04 0.655676 0 0.06 0.655676 0 0.08 0.655676 0 0.1 0.655676 0 0 0.658041 0 0.02 0.658041 0 0.04 0.658041 0 0.06 0.658041 0 0.08 0.658041 0 0.1 0.658041 0 0 0.660405 0 0.02 0.660405 0 0.04 0.660405 0 0.06 0.660405 0 0.08 0.660405 0 0.1 0.660405 0 0 0.662768 0 0.02 0.662768 0 0.04 0.662768 0 0.06 0.662768 0 0.08 0.662768 0 0.1 0.662768 0 0 0.66513 0 0.02 0.66513 0 0.04 0.66513 0 0.06 0.66513 0 0.08 0.66513 0 0.1 0.66513 0 0 0.66749 0 0.02 0.66749 0 0.04 0.66749
[...]
			<PointData Scalars="VitesseX">
				<DataArray Name="VitesseX" type="Float32" format="ascii">
 0 4.23832e-15 -2.58258e-16 -1.84215e-15 -8.2159e-15 0 0 4.21342e-15 -7.34766e-16 -1.41826e-15 -8.42551e-15 0 0 4.12576e-15 -1.7576e-15 -5.54507e-16 -9.06024e-15 0 0 3.78888e-15 -2.60169e-15 -1.43114e-16 -1.03331e-14 0 0 3.89314e-15 -4.68706e-15 3.02173e-16 -1.18214e-14 0 0 3.37432e-15 -5.50752e-15 -3.96587e-16 -1.36059e-14 0 0 2.74501e-15 -4.6034e-15 -3.05776e-15 -1.2546e-14 0 0 2.05813e-15 -4.90814e-15 -4.4577e-15 -1.06928e-14 0 0 1.37496e-16 -4.16921e-15 -5.45887e-15 -9.91057e-15 0 0 -2.90464e-15 -2.40169e-15 -6.38954e-15 -1.05841e-14 0 0 -4.8962e-15 -2.44715e-15 -7.03854e-15 -1.18337e-14 0 0 -3.4456e-15 -5.98949e-15 -6.71237e-15 -1.16375e-14 0 0 -2.58165e-15 -8.15182e-15 -3.30937e-15 -1.11505e-14 0 0 -2.66935e-15 -7.30576e-15 1.53914e-15 -1.08059e-14 0 0 -3.56717e-15 -4.93865e-15 4.03676e-15 -8.76165e-15 0 0 -5.86542e-15 -3.28961e-15 5.86756e-15 -4.00427e-15 0 0 -4.46969e-15 -7.962e-15 1.23357e-14 -9.7534e-16 0 0 -4.86816e-15 -7.05789e-15 1.23475e-14 5.05242e-15 0 0 -6.08747e-15 -4.28369e-16 9.17524e-15 9.04854e-15 0 0 -1.92676e-15 1.45561e-15 8.88942e-15 7.04847e-15 0 0 3.64269e-15 2.08414e-15 7.24422e-15 6.63683e-15 0 0 3.93773e-15 1.05222e-14 -1.14024e-15 1.19587e-14 0 0 3.36775e-15 1.51452e-14 -2.30613e-15 1.19303e-14 0 0 4.28483e-15 1.27381e-14 5.64588e-15 6.85636e-15 0 0 2.97707e-15 1.27686e-14 8.34306e-15 7.79616e-15 0 0 5.36468e-15 9.48322e-15 1.25537e-14 4.57319e-15 0 0 8.61468e-15 7.4994e-15 1.28695e-14 4.26061e-15 0 0 4.59417e-15 1.5753e-14 -1.19304e-16 1.77014e-14 0 0 -7.47305e-16 2.1064e-14 -1.58466e-15 1.62413e-14 0 0 -1.06946e-15 2.08265e-14 5.02173e-15 1.03343e-15 0 0 -5.14442e-17 1.99379e-14 4.32945e-15 -5.20584e-15 0 0 2.33279e-15 8.05327e-15 8.80368e-15 -4.31164e-15 0 0 5.94178e-15 -4.27345e-15 1.61176e-14 -1.30621e-14 0 0 -7.31244e-16 2.61319e-15 1.12066e-14 -1.12764e-14 0 0 -7.25199e-15 9.08699e-15 6.83255e-15 -6.55344e-15 0 0 -1.61285e-15 1.02356e-15 1.1756e-14 -8.78405e-15 0 0 -3.03023e-15 1.21532e-15 8.23291e-15 -8.92963e-15 0 0 -9.45921e-15 1.19209e-14 -6.25307e-15 -6.53545e-15 0 0 -3.02322e-15 7.07026e-15 -7.81619e-15 -1.23624e-15 0 0 6.27993e-15 -4.13092e-15 8.80686e-16 -1.05696e-14 0 0 2.99887e-17 -2.36719e-15 -2.29119e-16 -1.11963e-14 0 0 -7.68186e-15 -6.48585e-15 5.43507e-15 -6.14151e-15 0 0 -7.61568e-15 -6.98743e-15 -1.10793e-15 2.19365e-15 0 0 -6.74505e-15 -5.32707e-16 -4.95551e-15 -4.05572e-15 0 0 -2.05187e-15 1.89535e-15 -2.30271e-15 -1.40984e-14 0 0 -3.16715e-16 6.67722e-15 -1.32933e-15 -1.59836e-14 0 0 -3.87324e-15 1.31008e-14 1.00956e-14 -2.05137e-14 0 0 -2.2708e-16 1.23868e-14 1.46183e-14 -1.76678e-14 0 0 -3.02886e-16 1.25001e-14 1.58454e-14 -2.09085e-14 0 0 2.09978e-16 4.95058e-15 2.41173e-14 -2.05515e-14 0 0 1.48091e-15 -7.37705e-15 4.09149e-14 -1.85602e-14 0 0 -1.80473e-15 -7.27223e-15 4.55419e-14 -9.37174e-15 0 0 -1.4347e-15 9.14056e-15 2.71449e-14 1.17715e-14 0 0 1.18577e-14 1.30855e-14 3.04505e-14 6.87737e-15 0 0 2.22869e-14 1.11752e-14 4.00562e-14 6.79654e-15 0 0 2.83729e-14 3.10027e-14 3.69979e-14 1.49014e-14 0 0 3.91292e-14 5.66781e-14 4.60529e-14 8.01786e-15 0 0 3.7732e-14 8.26389e-14 6.06352e-14 1.21209e-14 0 0 3.9939e-14 9.12099e-14 6.8382e-14 2.64562e-14 0 0 5.08115e-14 7.47411e-14 7.81691e-14 4.1139e-14 0 0 5.00216e-14 7.15252e-14 7.27169e-14 6.97558e-14 0 0 3.88948e-14 7.86246e-14 5.73585e-14 9.41072e-14 0 0 3.25062e-14 7.35296e-14 5.81822e-14 7.64745e-14 0 0 3.05165e-14 5.46525e-14 7.23815e-14 5.6363e-14 0 0 3.25036e-14 4.4892e-14 7.27878e-14 5.85988e-14 0 0 2.48141e-14 4.18668e-14 6.19011e-14 5.75722e-14 0 0 8.70896e-15 3.56016e-14 6.54743e-14 5.08146e-14 0 0 -1.5777e-15 3.41945e-14 7.62256e-14 3.6452e-14 0 0 -8.84559e-15 2.23039e-14 9.24706e-14 2.35796e-14 0 0 -1.07289e-14 4.25147e-14 5.03751e-14 5.43469e-14 0 0 1.88863e-14 3.92203e-14 3.2576e-14 4.84064e-14 0 0 2.36571e-14 2.27786e-14 3.99363e-14 4.05114e-14 0 0 6.78002e-15 1.73868e-14 4.55908e-14 4.4219e-14 0 0 3.03899e-14 1.69884e-14 5.4877e-14 2.14385e-14 0 0 1.9918e-14 4.5001e-14 2.75935e-14 2.25062e-14 0 0 1.28108e-14 4.62335e-14 1.29365e-14 2.71824e-14 0 0 3.16738e-14 1.98653e-14 1.85237e-14 3.20887e-14 0 0 1.22389e-14 4.82151e-15 4.77904e-14 3.07568e-14 0 0 7.45753e-16 1.98519e-14 3.51858e-14 4.16958e-14 0 0 3.01342e-14 5.18814e-15 1.82383e-14 3.42537e-14 0 0 4.01012e-14 -3.54587e-15 2.73668e-14 2.78016e-14 0 0 3.51304e-14 6.82477e-16 3.12682e-14 3.58856e-14 0 0 2.40194e-14 1.13541e-14 2.46456e-14 1.76578e-14 0 0 9.50312e-15 3.26389e-14 8.86239e-15 1.17138e-14 0 0 9.78873e-15 2.15747e-14 1.17775e-14 3.15894e-14 0 0 2.95342e-14 3.3527e-15 3.18706e-15 6.26469e-14 0 0 5.2469e-14 4.86671e-15 1.86044e-15 5.63283e-14 0 0 1.13899e-14 1.11575e-14 3.62444e-14 -1.98537e-15 0 0 -7.87472e-15 1.33124e-14 1.4206e-14 -8.34648e-15 0 0 2.01404e-14 -7.76807e-15 1.15207e-14 -9.17365e-15 0 0 1.36065e-14 -1.29817e-14 1.2784e-14 -5.74875e-16 0 0 -3.93109e-15 2.21481e-14 -1.68147e-14 1.1715e-14 0 0 9.00148e-15 1.78079e-14 -2.70417e-15 1.28407e-14 0 0 2.61925e-14 -1.97872e-15 1.79913e-14 2.20019e-14 0 0 1.57059e-14 1.98688e-14 1.01737e-14 1.26653e-14 0 0 -2.75179e-15 3.51768e-14 1.05649e-15 5.39588e-15 0 0 6.88863e-15 1.34267e-14 2.38074e-14 -4.93538e-15 0 0 1.05196e-14 1.46586e-14 2.19079e-14 1.26492e-15 0 0 6.12822e-15 2.33495e-14 1.78096e-14 5.08125e-15 0 0 8.72876e-15 2.1988e-14 1.1341e-14 1.84169e-14 0 0 1.05262e-14 2.77177e-14 2.3166e-14 2.03469e-14 0 0 3.63144e-14 -1.7759e-14 7.25321e-14 3.71218e-15 0 0 3.85498e-14 -4.51052e-14 9.38926e-14 4.90164e-15 0 0 2.99884e-14 -9.17621e-15 5.26676e-14 -5.77816e-15 0 0 3.09371e-14 -5.75285e-15 3.17746e-14 1.09536e-14 0 0 2.16587e-14 -8.87762e-15 7.92072e-14 -1.24005e-14 0 0 2.63326e-14 -7.76295e-15 7.40611e-14 1.60604e-15 0 0 2.94788e-14 -1.92262e-14 7.50553e-14 3.9528e-14 0 0 6.71601e-15 8.89747e-15 6.14776e-14 1.21837e-14 0 0 -3.11035e-15 3.22141e-14 7.72391e-15 1.57745e-14 0 0 -2.55999e-14 5.7436e-15 1.87353e-14 1.3494e-14 0 0 -3.27546e-14 -1.28628e-14 1.45916e-14 3.10916e-14 0 0 -8.20211e-15 -1.95331e-14 -1.54145e-14 4.33697e-14 0 0 -1.16777e-14 -1.22913e-14 -1.75776e-14 3.43503e-14 0 0 -3.14425e-14 2.63802e-14 -2.34835e-14 5.91837e-14 0 0 -3.55239e-14 2.35443e-14 -1.8492e-14 7.31958e-14 0 0 -9.23421e-15 3.41482e-15 6.2108e-15 -1.31804e-14 0 0 7.32092e-16 2.54108e-14 -1.07203e-15 1.04983e-15 0 0 -2.07742e-14 3.47714e-14 -2.10008e-14 7.55994e-14 0 0 -1.01428e-14 4.30448e-14 4.27276e-14 9.77901e-15 0 0 3.08643e-15 4.78831e-14 5.41671e-14 -1.29246e-14 0 0 -3.78902e-15 1.7916e-14 7.30658e-14 -2.70751e-14 0 0 1.63146e-14 9.55379e-15 1.09143e-13 -4.93599e-14 0 0 4.84188e-14 3.82875e-15 7.72446e-14 -2.59758e-14 0 0 5.20078e-14 -1.28435e-14 1.4502e-13 -3.82041e-14 0 0 1.78431e-14 3.58601e-14 1.16039e-13 2.05439e-14 0 0 1.70572e-14 6.74852e-14 2.58183e-14 9.61762e-14 0 0 6.77285e-14 1.02417e-14 7.20593e-14 8.26496e-14 0 0 7.66614e-14 -1.35977e-15 8.77924e-14 1.48509e-13 0 0 8.88352e-14 5.43698e-15 5.97139e-14 1.94612e-13 0 0 1.13953e-13 1.2959e-14 6.6082e-14 1.31099e-13 0 0 1.1667e-13 5.79502e-14 3.5257e-14 6.5239e-14 0 0 6.12463e-14 1.04399e-13 1.72986e-14 6.46852e-14 0 0 -2.52518e-14 1.93545e-13 -4.57358e-14 8.71714e-14 0 0 -7.9888e-14 2.62249e-13 -6.0309e-14 1.00915e-13 0 0 -2.54781e-14 1.51491e-13 1.08945e-13 1.09756e-14 0 0 6.25635e-14 7.03407e-14 1.5651e-13 6.39349e-14 0 0 6.738e-14 1.45915e-13 3.8633e-14 1.29639e-13 0 0 8.61152e-14 1.09549e-13 4.58242e-14 4.12458e-14 0 0 8.35762e-14 7.13865e-14 4.13675e-14 6.14155e-14 0 0 5.31528e-14 1.2788e-13 1.78709e-14 5.82935e-14 0 0 5.56942e-14 8.29437e-14 7.94897e-14 2.65974e-14 0 0 2.93216e-14 5.61569e-14 1.49272e-13 1.12656e-13 0 0 2.72731e-14 8.50803e-14 1.41505e-13 1.33547e-13 0 0 4.42205e-14 7.64012e-14 1.40393e-13 1.07583e-13 0 0 5.30058e-14 7.97573e-14 1.54912e-13 1.23048e-13 0 0 7.67949e-14 8.93612e-14 1.4636e-13 5.84172e-14 0 0 7.42095e-14 9.17066e-14 1.69228e-13 6.42253e-14 0 0 6.1343e-14 1.1339e-13 1.684e-13 1.12364e-13 0 0 6.3102e-14 1.39439e-13 1.76214e-13 9.44606e-14 0 0 7.57336e-14 1.46184e-13 1.86975e-13 6.9393e-14 0 0 7.31383e-14 1.63334e-13 1.97912e-13 6.22179e-14 0 0 8.35981e-14 1.70799e-13 1.84151e-13 8.97166e-14 0 0 1.00364e-13 1.84941e-13 1.75686e-13 1.04328e-13 0 0 9.71352e-14 1.8195e-13 1.87093e-13 7.62296e-14 0 0 9.2974e-14 1.79752e-13 1.92315e-13 7.90808e-14 0 0 8.29716e-14 2.15933e-13 1.59975e-13 9.72564e-14 0 0 9.95627e-14 1.97045e-13 1.74003e-13 9.58048e-14 0 0 1.20132e-13 1.70914e-13 1.80504e-13 1.22196e-13 0 0 1.19188e-13 1.59229e-13 1.85206e-13 8.93664e-14 0 0 1.09313e-13 1.52762e-13 1.81628e-13 1.07373e-13 0 0 9.61147e-14 1.56721e-13 1.66133e-13 1.60325e-13 0 0 1.20768e-13 1.06332e-13 2.22056e-13 9.7151e-14 0 0 1.16615e-13 1.22319e-13 2.09755e-13 9.12067e-14 0 0 7.73262e-14 1.8118e-13 1.4982e-13 1.344e-13 0 0 7.02674e-14 1.64314e-13 1.35545e-13 1.3712e-13 0 0 8.03515e-14 1.23856e-13 1.66785e-13 1.19742e-13 0 0 8.42346e-14 8.96177e-14 1.72447e-13 1.32646e-13 0 0 4.90751e-14 1.25705e-13 1.02685e-13 1.49866e-13 0 0 3.99145e-14 1.1651e-13 9.51154e-14 1.17157e-13 0 0 5.06386e-14 5.9865e-14 1.433e-13 6.33352e-14 0 0 3.0613e-14 3.14976e-14 1.74805e-13 1.75875e-14 0 0 1.19918e-14 1.84772e-14 1.60643e-13 4.71951e-14 0 0 -1.12961e-14 8.31582e-14 1.04973e-13 9.50296e-14 0 0 -2.15546e-14 1.5592e-13 3.15105e-14 1.12538e-13 0 0 1.63952e-14 1.34952e-13 -2.09898e-15 1.37728e-13 0 0 4.17276e-14 7.37177e-14 2.32372e-14 1.57952e-13 0 0 1.31548e-14 6.02509e-14 5.54474e-14 1.43046e-13 0 0 6.22903e-15 5.56332e-14 7.2207e-14 1.5094e-13 0 0 -2.07393e-14 1.01662e-13 -1.64167e-15 2.09067e-13 0 0 -2.495e-14 9.72769e-14 1.61062e-14 1.26378e-13 0 0 4.63746e-15 4.72053e-14 7.24044e-14 5.46144e-14 0 0 2.60983e-14 1.77483e-14 4.95077e-14 9.18401e-14 0 0 2.80754e-14 -4.04097e-16 6.5094e-14 4.8202e-14 0 0 -2.77099e-14 5.83496e-14 3.96368e-14 5.55264e-14 0 0 -1.74525e-14 3.65305e-14 6.10873e-14 6.81676e-14 0 0 3.70423e-14 -2.4115e-14 1.06145e-13 4.25851e-14 0 0 2.91341e-14 6.56352e-15 9.23591e-14 4.52399e-14 0 0 6.35135e-15 4.83176e-14 8.01662e-14 3.58657e-14 0 0 2.90803e-14 3.31982e-14 9.83237e-14 -3.51522e-16 0 0 2.5304e-14 2.84517e-14 1.04056e-13 -2.02109e-15 0 0 -1.59826e-14 9.21728e-14 4.87425e-14 2.03269e-14 0 0 5.76821e-17 1.01937e-13 3.38854e-14 7.74692e-15 0 0 4.52757e-14 6.06244e-14 1.59164e-14 2.80895e-14 0 0 5.84479e-14 5.00225e-14 1.60515e-14 1.94556e-14 0 0 5.63516e-14 5.68235e-14 1.92874e-14 2.50428e-14 0 0 6.55138e-14 4.85528e-14 2.12894e-16 8.45885e-15 0 0 4.53357e-14 6.11885e-14 1.56083e-15 -3.49286e-14 0 0 3.09212e-14 6.66486e-14 3.41617e-15 -9.55481e-15 0 0 4.10783e-14 5.22282e-14 3.25843e-14 -2.10124e-14 0 0 3.81862e-14 6.0397e-14 4.24895e-14 -4.29565e-14 0
				</DataArray>
				<DataArray Name="VitesseY" type="Float32" format="ascii">