<?xml version="1.0"?>
<VTKFile type="PolyData">
	<PolyData>
		<Piece NumberOfPoints="1206" NumberOfPolys="1000">
			<Points>
				<DataArray type="Float32" NumberOfComponents="3" format="ascii">
 0 0 0 0.02 0 0 0.04 0 0 0.06 0 0 0.08 0 0 0.1 0 0 0 0.005 0 0.02 0.005 0 0.04 0.005 0 0.06 0.005 0 0.08 0.005 0 0.1 0.005 0 0 0.01 0 0.02 0.01 0 0.04 0.01 0 0.06 0.01 0 0.08 0.01 0 0.1 0.01 0 0 0.015 0 0.02 0.015 0 0.04 0.015 0 0.06 0.015 0 0.08 0.015 0 0.1 0.015 0 0 0.02 0 0.02 0.02 0 0.04 0.02 0 0.06 0.02 0 0.08 0.02 0 0.1 0.02 0 0 0.025 0 0.02 0.025 0 0.04 0.025 0 0.06 0.025 0 0.08 0.025 0 0.1 0.025 0 0 0.03 0 0.02 0.03 0 0.04 0.03 0 0.06 0.03 0 0.08 0.03 0 0.1 0.03 0 0 0.035 0 0.02 0.035 0 0.04 0.035 0 0.06 0.035 0 0.08 0.035 0 0.1 0.035 0 0 0.04 0 0.02 0.04 0 0.04 0.04 0 0.06 0.04 0 0.08 0.04 0 0.1 0.04 0 0 0.045 0 0.02 0.045 0 0.04 0.045 0 0.06 0.045 0 0.08 0.045 0 0.1 0.045 0 0 0.05 0 0.02 0.05 0 0.04 0.05 0 0.06 0.05 0 0.08 0.05 0 0.1 0.05 0 0 0.055 0 0.02 0.055 0 0.04 0.055 0 0.06 0.055 0 0.08 0.055 0 0.1 0.055 0 0 0.06 0 0.02 0.06 0 0.04 0.06 0 0.06 0.06 0 0.08 0.06 0 0.1 0.06 0 0 0.065 0 0.02 0.065 0 0.04 0.065 0 0.06 0.065 0 0.08 0.065 0 0.1 0.065 0 0 0.07 0 0.02 0.07 0 0.04 0.07 0 0.06 0.07 0 0.08 0.07 0 0.1 0.07 0 0 0.075 0 0.02 0.075 0 0.04 0.075 0 0.06 0.075 0 0.08 0.075 0 0.1 0.075 0 0 0.08 0 0.02 0.08 0 0.04 0.08 0 0.06 0.08 0 0.08 0.08 0 0.1 0.08 0 0 0.085 0 0.02 0.085 0 0.04 0.085 0 0.06 0.085 0 0.08 0.085 0 0.1 0.085 0 0 0.09 0 0.02 0.09 0 0.04 0.09 0 0.06 0.09 0 0.08 0.09 0 0.1 0.09 0 0 0.095 0 0.02 0.095 0 0.04 0.095 0 0.06 0.095 0 0.08 0.095 0 0.1 0.095 0 0 0.1 0 0.02 0.1 0 0.04 0.1 0 0.06 0.1 0 0.08 0.1 0 0.1 0.1 0 0 0.105 0 0.02 0.105 0 0.04 0.105 0 0.06 0.105 0 0.08 0.105 0 0.1 0.105 0 0 0.11 0 0.02 0.11 0 0.04 0.11 0 0.06 0.11 0 0.08 0.11 0 0.1 0.11 0 0 0.115 0 0.02 0.115 0 0.04 0.115 0 0.06 0.115 0 0.08 0.115 0 0.1 0.115 0 0 0.12 0 0.02 0.12 0 0.04 0.12 0 0.06 0.12 0 0.08 0.12 0 0.1 0.12 0 0 0.125 0 0.02 0.125 0 0.04 0.125 0 0.06 0.125 0 0.08 0.125 0 0.1 0.125 0 0 0.13 0 0.02 0.13 0 0.04 0.13 0 0.06 0.13 0 0.08 0.13 0 0.1 0.13 0 0 0.135 0 0.02 0.135 0 0.04 0.135 0 0.06 0.135 0 0.08 0.135 0 0.1 0.135 0 0 0.14 0 0.02 0.14 0 0.04 0.14 0 0.06 0.14 0 0.08 0.14 0 0.1 0.14 0 0 0.145 0 0.02 0.145 0 0.04 0.145 0 0.06 0.145 0 0.08 0.145 0 0.1 0.145 0 0 0.15 0 0.02 0.15 0 0.04 0.15 0 0.06 0.15 0 0.08 0.15 0 0.1 0.15 0 0 0.155 0 0.02 0.155 0 0.04 0.155 0 0.06 0.155 0 0.08 0.155 0 0.1 0.155 0 0 0.16 0 0.02 0.16 0 0.04 0.16 0 0.06 0.16 0 0.08 0.16 0 0.1 0.16 0 0 0.165 0 0.02 0.165 0 0.04 0.165 0 0.06 0.165 0 0.08 0.165 0 0.1 0.165 0 0 0.17 0 0.02 0.17 0 0.04 0.17 0 0.06 0.17 0 0.08 0.17 0 0.1 0.17 0 0 0.175 0 0.02 0.175 0 0.04 0.175 0 0.06 0.175 0 0.08 0.175 0 0.1 0.175 0 0 0.18 0 0.02 0.18 0 0.04 0.18 0 0.06 0.18 0 0.08 0.18 0 0.1 0.18 0 0 0.185 0 0.02 0.185 0 0.04 0.185 0 0.06 0.185 0 0.08 0.185 0 0.1 0.185 0 0 0.19 0 0.02 0.19 0 0.04 0.19 0 0.06 0.19 0 0.08 0.19 0 0.1 0.19 0 0 0.195 0 0.02 0.195 0 0.04 0.195 0 0.06 0.195 0 0.08 0.195 0 0.1 0.195 0 0 0.2 0 0.02 0.2 0 0.04 0.2 0 0.06 0.2 0 0.08 0.2 0 0.1 0.2 0 0 0.205 0 0.02 0.205 0 0.04 0.205 0 0.06 0.205 0 0.08 0.205 0 0.1 0.205 0 0 0.21 0 0.02 0.21 0 0.04 0.21 0 0.06 0.21 0 0.08 0.21 0 0.1 0.21 0 0 0.215 0 0.02 0.215 0 0.04 0.215 0 0.06 0.215 0 0.08 0.215 0 0.1 0.215 0 0 0.22 0 0.02 0.22 0 0.04 0.22 0 0.06 0.22 0 0.08 0.22 0 0.1 0.22 0 0 0.225 0 0.02 0.225 0 0.04 0.225 0 0.06 0.225 0 0.08 0.225 0 0.1 0.225 0 0 0.23 0 0.02 0.23 0 0.04 0.23 0 0.06 0.23 0 0.08 0.23 0 0.1 0.23 0 0 0.235 0 0.02 0.235 0 0.04 0.235 0 0.06 0.235 0 0.08 0.235 0 0.1 0.235 0 0 0.24 0 0.02 0.24 0 0.04 0.24 0 0.06 0.24 0 0.08 0.24 0 0.1 0.24 0 0 0.245 0 0.02 0.245 0 0.04 0.245 0 0.06 0.245 0 0.08 0.245 0 0.1 0.245 0 0 0.25 0 0.02 0.25 0 0.04 0.25 0 0.06 0.25 0 0.08 0.25 0 0.1 0.25 0 0 0.255 0 0.02 0.255 0 0.04 0.255 0 0.06 0.255 0 0.08 0.255 0 0.1 0.255 0 0 0.26 0 0.02 0.26 0 0.04 0.26 0 0.06 0.26 0 0.08 0.26 0 0.1 0.26 0 0 0.265 0 0.02 0.265 0 0.04 0.265 0 0.06 0.265 0 0.08 0.265 0 0.1 0.265 0 0 0.27 0 0.02 0.27 0 0.04 0.27 0 0.06 0.27 0 0.08 0.27 0 0.1 0.27 0 0 0.275 0 0.02 0.275 0 0.04 0.275 0 0.06 0.275 0 0.08 0.275 0 0.1 0.275 0 0 0.28 0 0.02 0.28 0 0.04 0.28 0 0.06 0.28 0 0.08 0.28 0 0.1 0.28 0 0 0.285 0 0.02 0.285 0 0.04 0.285 0 0.06 0.285 0 0.08 0.285 0 0.1 0.285 0 0 0.29 0 0.02 0.29 0 0.04 0.29 0 0.06 0.29 0 0.08 0.29 0 0.1 0.29 0 0 0.295 0 0.02 0.295 0 0.04 0.295 0 0.06 0.295 0 0.08 0.295 0 0.1 0.295 0 0 0.3 0 0.02 0.3 0 0.04 0.3 0 0.06 0.3 0 0.08 0.3 0 0.1 0.3 0 0 0.305 0 0.02 0.305 0 0.04 0.305 0 0.06 0.305 0 0.08 0.305 0 0.1 0.305 0 0 0.31 0 0.02 0.31 0 0.04 0.31 0 0.06 0.31 0 0.08 0.31 0 0.1 0.31 0 0 0.315 0 0.02 0.315 0 0.04 0.315 0 0.06 0.315 0 0.08 0.315 0 0.1 0.315 0 0 0.32 0 0.02 0.32 0 0.04 0.32 0 0.06 0.32 0 0.08 0.32 0 0.1 0.32 0 0 0.325 0 0.02 0.325 0 0.04 0.325 0 0.06 0.325 0 0.08 0.325 0 0.1 0.325 0 0 0.33 0 0.02 0.33 0 0.04 0.33 0 0.06 0.33 0 0.08 0.33 0 0.1 0.33 0 0 0.335 0 0.02 0.335 0 0.04 0.335 0 0.06 0.335 0 0.08 0.335 0 0.1 0.335 0 0 0.34 0 0.02 0.34 0 0.04 0.34 0 0.06 0.34 0 0.08 0.34 0 0.1 0.34 0 0 0.345 0 0.02 0.345 0 0.04 0.345 0 0.06 0.345 0 0.08 0.345 0 0.1 0.345 0 0 0.35 0 0.02 0.35 0 0.04 0.35 0 0.06 0.35 0 0.08 0.35 0 0.1 0.35 0 0 0.355 0 0.02 0.355 0 0.04 0.355 0 0.06 0.355 0 0.08 0.355 0 0.1 0.355 0 0 0.36 0 0.02 0.36 0 0.04 0.36 0 0.06 0.36 0 0.08 0.36 0 0.1 0.36 0 0 0.365 0 0.02 0.365 0 0.04 0.365 0 0.06 0.365 0 0.08 0.365 0 0.1 0.365 0 0 0.37 0 0.02 0.37 0 0.04 0.37 0 0.06 0.37 0 0.08 0.37 0 0.1 0.37 0 0 0.375 0 0.02 0.375 0 0.04 0.375 0 0.06 0.375 0 0.08 0.375 0 0.1 0.375 0 0 0.380001 0 0.02 0.380001 0 0.04 0.380001 0 0.06 0.380001 0 0.08 0.380001 0 0.1 0.380001 0 0 0.385004 0 0.02 0.385004 0 0.04 0.385004 0 0.06 0.385004 0 0.08 0.385004 0 0.1 0.385004 0 0 0.390015 0 0.02 0.390015 0 0.04 0.390015 0 0.06 0.390015 0 0.08 0.390015 0 0.1 0.390015 0 0 0.395049 0 0.02 0.395049 0 0.04 0.395049 0 0.06 0.395049 0 0.08 0.395049 0 0.1 0.395049 0 0 0.400132 0 0.02 0.400132 0 0.04 0.400132 0 0.06 0.400132 0 0.08 0.400132 0 0.1 0.400132 0 0 0.405309 0 0.02 0.405309 0 0.04 0.405309 0 0.06 0.405309 0 0.08 0.405309 0 0.1 0.405309 0 0 0.410631 0 0.02 0.410631 0 0.04 0.410631 0 0.06 0.410631 0 0.08 0.410631 0 0.1 0.410631 0 0 0.416147 0 0.02 0.416147 0 0.04 0.416147 0 0.06 0.416147 0 0.08 0.416147 0 0.1 0.416147 0 0 0.421902 0 0.02 0.421902 0 0.04 0.421902 0 0.06 0.421902 0 0.08 0.421902 0 0.1 0.421902 0 0 0.427936 0 0.02 0.427936 0 0.04 0.427936 0 0.06 0.427936 0 0.08 0.427936 0 0.1 0.427936 0 0 0.43429 0 0.02 0.43429 0 0.04 0.43429 0 0.06 0.43429 0 0.08 0.43429 0 0.1 0.43429 0 0 0.441008 0 0.02 0.441008 0 0.04 0.441008 0 0.06 0.441008 0 0.08 0.441008 0 0.1 0.441008 0 0 0.448143 0 0.02 0.448143 0 0.04 0.448143 0 0.06 0.448143 0 0.08 0.448143 0 0.1 0.448143 0 0 0.455758 0 0.02 0.455758 0 0.04 0.455758 0 0.06 0.455758 0 0.08 0.455758 0 0.1 0.455758 0 0 0.46393 0 0.02 0.46393 0 0.04 0.46393 0 0.06 0.46393 0 0.08 0.46393 0 0.1 0.46393 0 0 0.472752 0 0.02 0.472752 0 0.04 0.472752 0 0.06 0.472752 0 0.08 0.472752 0 0.1 0.472752 0 0 0.482334 0 0.02 0.482334 0 0.04 0.482334 0 0.06 0.482334 0 0.08 0.482334 0 0.1 0.482334 0 0 0.492799 0 0.02 0.492799 0 0.04 0.492799 0 0.06 0.492799 0 0.08 0.492799 0 0.1 0.492799 0 0 0.504228 0 0.02 0.504228 0 0.04 0.504228 0 0.06 0.504228 0 0.08 0.504228 0 0.1 0.504228 0 0 0.516446 0 0.02 0.516446 0 0.04 0.516446 0 0.06 0.516446 0 0.08 0.516446 0 0.1 0.516446 0 0 0.528705 0 0.02 0.528705 0 0.04 0.528705 0 0.06 0.528705 0 0.08 0.528705 0 0.1 0.528705 0 0 0.540732 0 0.02 0.540732 0 0.04 0.540732 0 0.06 0.540732 0 0.08 0.540732 0 0.1 0.540732 0 0 0.55259 0 0.02 0.55259 0 0.04 0.55259 0 0.06 0.55259 0 0.08 0.55259 0 0.1 0.55259 0 0 0.564378 0 0.02 0.564378 0 0.04 0.564378 0 0.06 0.564378 0 0.08 0.564378 0 0.1 0.564378 0 0 0.576168 0 0.02 0.576168 0 0.04 0.576168 0 0.06 0.576168 0 0.08 0.576168 0 0.1 0.576168 0 0 0.578787 0 0.02 0.578787 0 0.04 0.578787 0 0.06 0.578787 0 0.08 0.578787 0 0.1 0.578787 0 0 0.581331 0 0.02 0.581331 0 0.04 0.581331 0 0.06 0.581331 0 0.08 0.581331 0 0.1 0.581331 0 0 0.583829 0 0.02 0.583829 0 0.04 0.583829 0 0.06 0.583829 0 0.08 0.583829 0 0.1 0.583829 0 0 0.586294 0 0.02 0.586294 0 0.04 0.586294 0 0.06 0.586294 0 0.08 0.586294 0 0.1 0.586294 0 0 0.588738 0 0.02 0.588738 0 0.04 0.588738 0 0.06 0.588738 0 0.08 0.588738 0 0.1 0.588738 0 0 0.591165 0 0.02 0.591165 0 0.04 0.591165 0 0.06 0.591165 0 0.08 0.591165 0 0.1 0.591165 0 0 0.59358 0 0.02 0.59358 0 0.04 0.59358 0 0.06 0.59358 0 0.08 0.59358 0 0.1 0.59358 0 0 0.595986 0 0.02 0.595986 0 0.04 0.595986 0 0.06 0.595986 0 0.08 0.595986 0 0.1 0.595986 0 0 0.598386 0 0.02 0.598386 0 0.04 0.598386 0 0.06 0.598386 0 0.08 0.598386 0 0.1 0.598386 0 0 0.60078 0 0.02 0.60078 0 0.04 0.60078 0 0.06 0.60078 0 0.08 0.60078 0 0.1 0.60078 0 0 0.603171 0 0.02 0.603171 0 0.04 0.603171 0 0.06 0.603171 0 0.08 0.603171 0 0.1 0.603171 0 0 0.605558 0 0.02 0.605558 0 0.04 0.605558 0 0.06 0.605558 0 0.08 0.605558 0 0.1 0.605558 0 0 0.607942 0 0.02 0.607942 0 0.04 0.607942 0 0.06 0.607942 0 0.08 0.607942 0 0.1 0.607942 0 0 0.610322 0 0.02 0.610322 0 0.04 0.610322 0 0.06 0.610322 0 0.08 0.610322 0 0.1 0.610322 0 0 0.6127 0 0.02 0.6127 0 0.04 0.6127 0 0.06 0.6127 0 0.08 0.6127 0 0.1 0.6127 0 0 0.615076 0 0.02 0.615076 0 0.04 0.615076 0 0.06 0.615076 0 0.08 0.615076 0 0.1 0.615076 0 0 0.617451 0 0.02 0.617451 0 0.04 0.617451 0 0.06 0.617451 0 0.08 0.617451 0 0.1 0.617451 0 0 0.619826 0 0.02 0.619826 0 0.04 0.619826 0 0.06 0.619826 0 0.08 0.619826 0 0.1 0.619826 0 0 0.622206 0 0.02 0.622206 0 0.04 0.622206 0 0.06 0.622206 0 0.08 0.622206 0 0.1 0.622206 0 0 0.624591 0 0.02 0.624591 0 0.04 0.624591 0 0.06 0.624591 0 0.08 0.624591 0 0.1 0.624591 0 0 0.626991 0 0.02 0.626991 0 0.04 0.626991 0 0.06 0.626991 0 0.08 0.626991 0 0.1 0.626991 0 0 0.629406 0 0.02 0.629406 0 0.04 0.629406 0 0.06 0.629406 0 0.08 0.629406 0 0.1 0.629406 0 0 0.631862 0 0.02 0.631862 0 0.04 0.631862 0 0.06 0.631862 0 0.08 0.631862 0 0.1 0.631862 0 0 0.634355 0 0.02 0.634355 0 0.04 0.634355 0 0.06 0.634355 0 0.08 0.634
[...]
			<PointData Scalars="VitesseX">
				<DataArray Name="VitesseX" type="Float32" format="ascii">
 0 -3.44266e-15 -7.32361e-15 -6.53384e-15 -1.27947e-14 0 0 -3.36611e-15 -7.49435e-15 -6.35003e-15 -1.27924e-14 0 0 -3.63746e-15 -7.5379e-15 -6.36266e-15 -1.23482e-14 0 0 -4.76906e-15 -7.25872e-15 -6.708e-15 -1.20265e-14 0 0 -5.57966e-15 -7.06441e-15 -6.49601e-15 -1.34417e-14 0 0 -6.6344e-15 -6.62724e-15 -6.72674e-15 -1.36986e-14 0 0 -8.14422e-15 -5.88082e-15 -8.33244e-15 -1.16619e-14 0 0 -8.21034e-15 -6.28487e-15 -8.29695e-15 -1.15608e-14 0 0 -8.78566e-15 -4.69574e-15 -9.31498e-15 -1.08457e-14 0 0 -8.39919e-15 -4.11218e-15 -9.11994e-15 -8.25034e-15 0 0 -6.47755e-15 -6.20192e-15 -4.21267e-15 -9.86929e-15 0 0 -6.23802e-15 -5.37034e-15 -2.66106e-15 -8.84606e-15 0 0 -5.65851e-15 -4.11698e-15 -2.70616e-15 -6.50442e-15 0 0 -4.51249e-15 -1.24927e-15 -4.19313e-15 -7.76321e-15 0 0 -3.19602e-15 -6.9494e-16 -4.65235e-15 -7.412e-15 0 0 -2.89559e-15 -1.14294e-15 -3.7098e-15 -1.14627e-14 0 0 -3.33174e-15 -1.30862e-15 -3.36656e-15 -1.59508e-14 0 0 -1.695e-15 -5.84628e-15 -4.27659e-15 -1.34558e-14 0 0 -1.89757e-15 -9.17139e-15 -8.46021e-15 -1.26303e-14 0 0 -3.97054e-15 -1.4234e-14 -7.69009e-15 -1.80566e-14 0 0 -2.44623e-15 -2.34221e-14 -7.21292e-15 -1.74156e-14 0 0 -3.60514e-15 -2.14764e-14 -1.57905e-14 -1.1046e-14 0 0 -4.65733e-15 -1.91328e-14 -1.80036e-14 -1.06531e-14 0 0 -6.63642e-15 -1.96273e-14 -1.64647e-14 -1.44785e-14 0 0 -1.30895e-14 -1.60998e-14 -1.63966e-14 -1.73432e-14 0 0 -1.5043e-14 -1.75874e-14 -1.32118e-14 -1.44033e-14 0 0 -1.16235e-14 -2.3727e-14 -5.20392e-15 -1.52025e-14 0 0 -7.63779e-15 -2.90942e-14 -1.41559e-15 -1.58602e-14 0 0 -1.03769e-14 -2.01137e-14 -7.58899e-15 -1.0601e-14 0 0 -1.29315e-14 -9.24266e-15 -1.16752e-14 -1.46066e-14 0 0 -1.1732e-14 -7.7777e-15 -1.52427e-14 -1.75946e-14 0 0 -1.07451e-14 -5.31084e-15 -1.70527e-14 -1.94663e-14 0 0 -7.8026e-15 -4.10692e-15 -1.9036e-14 -2.34095e-14 0 0 -6.53703e-15 -4.9432e-16 -3.12315e-14 -1.41909e-14 0 0 -7.78059e-15 -4.10897e-15 -2.70218e-14 -3.68232e-15 0 0 -6.56979e-15 -9.69127e-15 -9.15224e-15 -1.60298e-15 0 0 -5.95109e-15 1.7506e-15 -8.37861e-15 -6.34562e-15 0 0 -7.59924e-15 1.09081e-14 -1.24986e-14 -6.80719e-15 0 0 -1.46851e-15 5.7496e-15 -3.3903e-15 -1.00138e-14 0 0 5.20223e-16 3.27128e-15 4.84545e-15 -1.65556e-14 0 0 -1.91368e-15 1.14773e-14 -5.90992e-15 -8.31133e-15 0 0 5.67215e-15 5.85635e-15 -1.93901e-14 7.04693e-15 0 0 1.18847e-14 -9.53811e-15 -1.71455e-14 -3.05453e-15 0 0 3.23868e-15 -1.0948e-14 -1.35567e-14 -1.6117e-14 0 0 -4.0185e-15 -1.2114e-14 -2.2167e-14 -8.14345e-15 0 0 -1.62309e-15 -1.66339e-14 -3.01063e-14 -5.23608e-15 0 0 -1.44923e-15 -9.54566e-15 -4.41292e-14 2.37993e-15 0 0 -3.71082e-15 -6.85691e-15 -4.23122e-14 -7.8874e-15 0 0 -4.64989e-15 -5.96978e-15 -4.00696e-14 -2.29477e-14 0 0 8.9603e-16 -1.27999e-14 -3.674e-14 -2.88479e-14 0 0 -3.41557e-15 -1.76175e-14 -3.4372e-14 -2.09959e-14 0 0 -7.63448e-15 -1.54279e-14 -4.2984e-14 -7.05376e-15 0 0 -1.41573e-14 -1.37109e-14 -4.62204e-14 -7.64939e-15 0 0 -1.52328e-14 -1.59723e-14 -5.42772e-14 -1.51618e-15 0 0 -1.29426e-14 -2.21787e-14 -6.12735e-14 -1.58808e-16 0 0 -1.15774e-14 -3.39887e-14 -4.36905e-14 -2.5885e-14 0 0 -2.38992e-15 -4.99141e-14 -2.12984e-14 -4.00067e-14 0 0 -2.11744e-15 -4.20097e-14 -2.56914e-14 -3.98252e-14 0 0 -1.83881e-15 -2.95045e-14 -2.81249e-14 -5.12537e-14 0 0 1.52506e-15 -2.83101e-14 -2.60226e-14 -4.71284e-14 0 0 -9.21247e-15 -6.68494e-15 -4.84741e-14 -1.64218e-14 0 0 -1.55137e-14 8.13806e-15 -5.64471e-14 -1.02822e-15 0 0 -1.74808e-14 1.10423e-14 -5.40215e-14 -3.96307e-15 0 0 -1.87296e-14 1.1913e-14 -5.11773e-14 -1.49513e-14 0 0 -7.08956e-15 -7.4731e-15 -2.24293e-14 -3.30695e-14 0 0 -1.4782e-15 -5.37798e-15 -3.94288e-15 -4.70366e-14 0 0 1.40943e-14 7.84991e-15 7.68949e-15 -6.59182e-14 0 0 3.34015e-14 4.68355e-15 2.69746e-14 -5.78927e-14 0 0 4.26559e-14 -4.39195e-15 5.68643e-14 -3.74933e-14 0 0 2.24463e-14 3.46343e-14 3.1658e-14 -3.13369e-15 0 0 3.87039e-14 4.1758e-14 6.77591e-15 2.27016e-14 0 0 6.1731e-14 2.25003e-14 1.61321e-14 2.9828e-14 0 0 5.43047e-14 3.23241e-14 2.5357e-14 2.45926e-14 0 0 4.96588e-14 3.66192e-14 3.57967e-14 -3.41022e-15 0 0 3.40167e-14 4.98306e-14 2.39879e-14 -7.24678e-15 0 0 2.04507e-14 3.72264e-14 3.00117e-14 9.64103e-15 0 0 1.21977e-14 1.13781e-14 4.9792e-14 4.29469e-15 0 0 1.41923e-14 2.53114e-14 4.57442e-14 -1.44713e-15 0 0 3.6563e-16 5.0149e-14 3.42055e-14 2.28686e-15 0 0 -5.60758e-16 3.24005e-14 2.70928e-14 5.48966e-15 0 0 1.4988e-14 7.92507e-15 2.33731e-14 1.5319e-14 0 0 8.98679e-15 1.88913e-14 3.76357e-14 2.39296e-15 0 0 -2.10333e-15 1.93027e-14 5.1031e-14 -2.39121e-14 0 0 -2.21261e-14 2.89737e-14 3.97579e-14 -2.08493e-14 0 0 -1.38422e-14 5.13109e-14 1.29079e-14 -1.40717e-14 0 0 2.79866e-14 7.93237e-15 1.2883e-14 -1.38872e-14 0 0 2.63074e-14 -7.62873e-15 1.63638e-14 -1.04338e-14 0 0 -7.56541e-15 2.78733e-14 2.02202e-14 -2.10168e-14 0 0 -3.01336e-15 -5.14133e-17 3.74153e-14 -5.29132e-15 0 0 -1.23623e-14 1.70109e-14 1.80527e-14 1.87574e-14 0 0 4.48072e-15 2.53129e-14 1.46706e-14 1.25024e-14 0 0 3.25902e-14 -6.8504e-15 1.28018e-14 -1.64446e-14 0 0 -1.24072e-14 -1.49532e-14 -7.60131e-15 -6.68654e-15 0 0 -2.46689e-14 -1.31814e-14 -3.89977e-15 4.93064e-15 0 0 1.07277e-14 -1.78615e-15 5.64964e-15 -1.29861e-14 0 0 1.30346e-14 8.77371e-16 -1.30245e-14 3.58559e-15 0 0 5.9951e-15 -1.70593e-14 -9.05635e-16 5.02881e-15 0 0 -4.50604e-15 2.22086e-17 -2.98657e-15 5.06549e-15 0 0 -5.80257e-16 1.84959e-14 3.2008e-15 6.28063e-15 0 0 9.67438e-15 2.05721e-14 1.80738e-14 1.03166e-14 0 0 6.2095e-15 3.69792e-14 2.53696e-14 2.35533e-14 0 0 3.05841e-14 2.87001e-14 8.45822e-14 7.44215e-15 0 0 2.51711e-14 2.68663e-14 4.92254e-14 4.41123e-14 0 0 2.95047e-14 2.74702e-14 3.43686e-14 7.93379e-14 0 0 3.9633e-14 3.29975e-14 3.63491e-14 4.97168e-14 0 0 2.37237e-14 4.9044e-14 4.92669e-14 6.03277e-14 0 0 1.03816e-14 7.97212e-14 5.35313e-14 2.66921e-14 0 0 1.76594e-14 1.26166e-13 -3.77094e-14 3.43978e-14 0 0 -8.12185e-15 1.64272e-13 -6.34928e-14 5.46862e-14 0 0 -1.41915e-14 1.19412e-13 -4.01756e-14 3.86005e-14 0 0 -2.22692e-15 6.33729e-14 -2.25143e-14 2.05389e-14 0 0 -7.74564e-15 3.32381e-14 1.2546e-14 -4.87112e-14 0 0 -4.27048e-14 5.97361e-14 -3.84423e-14 3.58469e-15 0 0 -4.60557e-14 6.14395e-14 -4.08755e-14 1.35032e-15 0 0 -2.16722e-14 7.35255e-15 4.0682e-14 -6.73769e-14 0 0 -1.45154e-14 2.76506e-16 1.57533e-14 3.03958e-14 0 0 -2.0334e-14 4.13685e-14 -5.89106e-14 1.03337e-13 0 0 1.28374e-14 -7.81849e-15 4.1599e-16 5.75233e-14 0 0 6.45201e-14 -4.76468e-14 2.77725e-14 3.63559e-14 0 0 2.01975e-14 4.61436e-14 -3.02201e-14 1.07246e-14 0 0 -4.66542e-15 2.80188e-14 2.54249e-14 -7.95322e-14 0 0 -2.3202e-15 -1.74036e-14 4.99909e-14 -1.03202e-13 0 0 1.62646e-15 1.50513e-15 -5.03281e-14 2.10913e-14 0 0 2.36964e-14 -2.05248e-15 -1.38352e-13 1.55096e-13 0 0 8.12181e-15 3.04192e-14 -1.662e-13 1.09466e-13 0 0 3.13576e-14 2.46729e-14 -1.16313e-13 4.75424e-14 0 0 4.25568e-14 1.66436e-14 -8.83505e-14 1.50731e-14 0 0 4.0963e-14 1.50879e-14 -1.21789e-13 5.01008e-14 0 0 3.84084e-14 -4.40193e-14 -5.82524e-14 7.30059e-14 0 0 2.05244e-14 -5.03873e-14 4.37493e-14 -6.682e-15 0 0 1.0465e-14 9.44296e-15 1.13691e-14 -6.44256e-15 0 0 -2.24781e-16 3.0669e-14 -3.09255e-15 -9.4483e-15 0 0 2.23822e-14 -8.8768e-16 1.18797e-14 7.96097e-15 0 0 4.4124e-14 -9.51286e-16 9.20793e-15 1.18145e-14 0 0 5.00353e-14 3.3321e-15 3.54138e-14 -3.73029e-14 0 0 4.26534e-14 2.09803e-14 2.00903e-14 -3.51726e-14 0 0 3.16378e-14 4.26621e-14 -2.41597e-15 -5.6217e-15 0 0 4.57273e-14 2.42207e-14 1.36934e-14 7.35181e-16 0 0 5.77776e-14 1.62966e-14 1.45816e-14 -9.73215e-16 0 0 5.41434e-14 3.01416e-14 -1.29853e-14 3.36102e-14 0 0 5.30199e-14 3.09507e-14 -1.66134e-14 2.99581e-14 0 0 3.69096e-14 3.92275e-14 -1.6707e-14 3.08495e-15 0 0 2.34456e-14 4.993e-14 -2.11605e-14 -2.76751e-15 0 0 2.75762e-14 3.04021e-14 -1.44427e-14 1.92347e-14 0 0 3.27878e-14 1.41265e-14 -2.1635e-14 2.55195e-14 0 0 2.72966e-14 2.56768e-14 -4.18438e-14 3.89216e-16 0 0 1.12102e-14 2.6134e-14 -6.00405e-14 1.59292e-14 0 0 -7.90731e-15 1.76728e-14 -4.43312e-14 1.58792e-14 0 0 -7.56143e-15 8.96065e-15 -2.41901e-14 -9.2869e-15 0 0 -3.06105e-15 5.20132e-15 -4.9681e-14 1.55779e-15 0 0 -5.97911e-16 -8.32168e-15 -6.44099e-14 -9.36576e-15 0 0 6.84984e-15 -4.29898e-14 -5.60298e-14 -2.59371e-14 0 0 2.48537e-15 -6.82205e-14 -6.88731e-14 -3.86853e-15 0 0 -1.7101e-14 -6.87878e-14 -9.9422e-14 1.29392e-14 0 0 -4.47119e-15 -1.10204e-13 -8.54016e-14 -4.64134e-15 0 0 -1.33656e-14 -1.18313e-13 -7.48706e-14 -2.67437e-14 0 0 -5.48735e-14 -6.77327e-14 -9.67276e-14 -6.59665e-15 0 0 -7.00651e-14 -6.34926e-14 -8.39556e-14 1.46544e-14 0 0 -6.23374e-14 -7.09895e-14 -7.5838e-14 2.58482e-14 0 0 -1.52453e-14 -1.20088e-13 -4.56393e-14 2.04169e-14 0 0 -8.02938e-15 -1.35987e-13 -3.28553e-14 1.04412e-14 0 0 -5.67717e-14 -4.76137e-14 -9.96858e-14 2.30386e-14 0 0 -6.44179e-14 -3.27562e-14 -8.5498e-14 -2.6823e-15 0 0 -5.99106e-14 -3.33024e-14 -5.54742e-14 -4.86907e-14 0 0 -5.32931e-14 -3.18257e-14 -5.64409e-14 -9.60102e-14 0 0 -4.09776e-14 -6.5863e-14 -3.37022e-14 -1.07808e-13 0 0 -4.58054e-14 -5.03909e-14 -7.1446e-14 -5.50615e-14 0 0 -1.03962e-14 -6.42801e-14 -1.24582e-13 -2.31454e-14 0 0 3.47572e-15 -7.84375e-14 -1.39424e-13 -4.03068e-14 0 0 -3.84926e-14 -4.10268e-14 -1.38409e-13 -7.32904e-14 0 0 -1.50768e-14 -6.91074e-14 -1.20131e-13 -8.03956e-14 0 0 3.95347e-15 -1.01603e-13 -1.48533e-13 -2.18284e-14 0 0 -2.16446e-14 -8.28813e-14 -1.74162e-13 1.067e-14 0 0 -2.04146e-15 -1.40303e-13 -7.49015e-14 -6.6162e-14 0 0 -2.09749e-14 -1.23377e-13 -8.16357e-14 -6.33569e-14 0 0 -4.84177e-14 -5.41279e-14 -1.42557e-13 -2.38306e-14 0 0 -4.24474e-14 -4.79045e-14 -1.36398e-13 -5.31276e-14 0 0 -5.80383e-14 -3.92243e-14 -1.41437e-13 -6.69546e-14 0 0 -5.60843e-14 -3.97209e-14 -1.04244e-13 -1.24712e-13 0 0 -1.63411e-14 -5.36818e-14 -8.25017e-14 -1.62448e-13 0 0 -1.32496e-14 -2.88955e-14 -1.38032e-13 -9.63705e-14 0 0 -1.77141e-14 -3.43781e-15 -1.88153e-13 -4.71176e-14 0 0 -1.07983e-14 -2.61384e-14 -1.51074e-13 -4.8708e-14 0 0 -5.52259e-15 -4.85447e-14 -1.39677e-13 -3.192e-14 0 0 -1.52634e-15 -5.42002e-14 -1.46088e-13 -2.25883e-14 0 0 -1.74647e-14 -6.83237e-14 -1.00011e-13 -7.18786e-14 0 0 -4.07742e-14 -3.80232e-14 -1.06772e-13 -1.08768e-13 0 0 -3.88271e-14 -4.92701e-14 -8.40008e-14 -1.42667e-13 0 0 -6.81064e-15 -9.04291e-14 -4.22605e-14 -1.62105e-13 0 0 -4.81765e-15 -9.14363e-14 -3.50375e-14 -1.2999e-13 0 0 -2.9191e-14 -6.98507e-14 -5.53058e-14 -7.55586e-14 0 0 -6.4499e-14 -3.88905e-14 -6.44701e-14 -4.16816e-14 0 0 -6.13152e-14 -5.16388e-14 -6.05351e-14 -2.89864e-14 0 0 -3.85021e-14 -4.94127e-14 -8.92188e-14 -2.41195e-14 0 0 -5.68424e-14 -2.77967e-14 -9.89097e-14 -4.66805e-14 0 0 -6.82291e-14 -5.33784e-14 -4.84745e-14 -7.44416e-14 0 0 -6.1523e-14 -9.18675e-14 -3.99187e-14 -2.85942e-14 0 0 -4.59565e-14 -1.15268e-13 -7.02084e-14 -8.47315e-15 0 0 -3.53172e-14 -1.10306e-13 -5.58061e-14 -8.19165e-14 0 0 -2.98075e-14 -8.06986e-14 -7.36961e-14 -1.00181e-13 0 0 -2.0266e-14 -7.81294e-14 -9.43626e-14 -8.63194e-14 0
				</DataArray>
				<DataArray Name="VitesseY" type="Float32" format="ascii">