<?xml version="1.0"?>
<VTKFile type="PolyData">
	<PolyData>
		<Piece NumberOfPoints="1206" NumberOfPolys="1000">
			<Points>
				<DataArray type="Float32" NumberOfComponents="3" format="ascii">
 0 0 0 0.02 0 0 0.04 0 0 0.06 0 0 0.08 0 0 0.1 0 0 0 0.005 0 0.02 0.005 0 0.04 0.005 0 0.06 0.005 0 0.08 0.005 0 0.1 0.005 0 0 0.01 0 0.02 0.01 0 0.04 0.01 0 0.06 0.01 0 0.08 0.01 0 0.1 0.01 0 0 0.015 0 0.02 0.015 0 0.04 0.015 0 0.06 0.015 0 0.08 0.015 0 0.1 0.015 0 0 0.02 0 0.02 0.02 0 0.04 0.02 0 0.06 0.02 0 0.08 0.02 0 0.1 0.02 0 0 0.025 0 0.02 0.025 0 0.04 0.025 0 0.06 0.025 0 0.08 0.025 0 0.1 0.025 0 0 0.03 0 0.02 0.03 0 0.04 0.03 0 0.06 0.03 0 0.08 0.03 0 0.1 0.03 0 0 0.035 0 0.02 0.035 0 0.04 0.035 0 0.06 0.035 0 0.08 0.035 0 0.1 0.035 0 0 0.04 0 0.02 0.04 0 0.04 0.04 0 0.06 0.04 0 0.08 0.04 0 0.1 0.04 0 0 0.045 0 0.02 0.045 0 0.04 0.045 0 0.06 0.045 0 0.08 0.045 0 0.1 0.045 0 0 0.05 0 0.02 0.05 0 0.04 0.05 0 0.06 0.05 0 0.08 0.05 0 0.1 0.05 0 0 0.055 0 0.02 0.055 0 0.04 0.055 0 0.06 0.055 0 0.08 0.055 0 0.1 0.055 0 0 0.06 0 0.02 0.06 0 0.04 0.06 0 0.06 0.06 0 0.08 0.06 0 0.1 0.06 0 0 0.065 0 0.02 0.065 0 0.04 0.065 0 0.06 0.065 0 0.08 0.065 0 0.1 0.065 0 0 0.07 0 0.02 0.07 0 0.04 0.07 0 0.06 0.07 0 0.08 0.07 0 0.1 0.07 0 0 0.075 0 0.02 0.075 0 0.04 0.075 0 0.06 0.075 0 0.08 0.075 0 0.1 0.075 0 0 0.08 0 0.02 0.08 0 0.04 0.08 0 0.06 0.08 0 0.08 0.08 0 0.1 0.08 0 0 0.085 0 0.02 0.085 0 0.04 0.085 0 0.06 0.085 0 0.08 0.085 0 0.1 0.085 0 0 0.09 0 0.02 0.09 0 0.04 0.09 0 0.06 0.09 0 0.08 0.09 0 0.1 0.09 0 0 0.095 0 0.02 0.095 0 0.04 0.095 0 0.06 0.095 0 0.08 0.095 0 0.1 0.095 0 0 0.1 0 0.02 0.1 0 0.04 0.1 0 0.06 0.1 0 0.08 0.1 0 0.1 0.1 0 0 0.105 0 0.02 0.105 0 0.04 0.105 0 0.06 0.105 0 0.08 0.105 0 0.1 0.105 0 0 0.11 0 0.02 0.11 0 0.04 0.11 0 0.06 0.11 0 0.08 0.11 0 0.1 0.11 0 0 0.115 0 0.02 0.115 0 0.04 0.115 0 0.06 0.115 0 0.08 0.115 0 0.1 0.115 0 0 0.12 0 0.02 0.12 0 0.04 0.12 0 0.06 0.12 0 0.08 0.12 0 0.1 0.12 0 0 0.125 0 0.02 0.125 0 0.04 0.125 0 0.06 0.125 0 0.08 0.125 0 0.1 0.125 0 0 0.13 0 0.02 0.13 0 0.04 0.13 0 0.06 0.13 0 0.08 0.13 0 0.1 0.13 0 0 0.135 0 0.02 0.135 0 0.04 0.135 0 0.06 0.135 0 0.08 0.135 0 0.1 0.135 0 0 0.14 0 0.02 0.14 0 0.04 0.14 0 0.06 0.14 0 0.08 0.14 0 0.1 0.14 0 0 0.145 0 0.02 0.145 0 0.04 0.145 0 0.06 0.145 0 0.08 0.145 0 0.1 0.145 0 0 0.15 0 0.02 0.15 0 0.04 0.15 0 0.06 0.15 0 0.08 0.15 0 0.1 0.15 0 0 0.155 0 0.02 0.155 0 0.04 0.155 0 0.06 0.155 0 0.08 0.155 0 0.1 0.155 0 0 0.16 0 0.02 0.16 0 0.04 0.16 0 0.06 0.16 0 0.08 0.16 0 0.1 0.16 0 0 0.165 0 0.02 0.165 0 0.04 0.165 0 0.06 0.165 0 0.08 0.165 0 0.1 0.165 0 0 0.17 0 0.02 0.17 0 0.04 0.17 0 0.06 0.17 0 0.08 0.17 0 0.1 0.17 0 0 0.175 0 0.02 0.175 0 0.04 0.175 0 0.06 0.175 0 0.08 0.175 0 0.1 0.175 0 0 0.18 0 0.02 0.18 0 0.04 0.18 0 0.06 0.18 0 0.08 0.18 0 0.1 0.18 0 0 0.185 0 0.02 0.185 0 0.04 0.185 0 0.06 0.185 0 0.08 0.185 0 0.1 0.185 0 0 0.19 0 0.02 0.19 0 0.04 0.19 0 0.06 0.19 0 0.08 0.19 0 0.1 0.19 0 0 0.195 0 0.02 0.195 0 0.04 0.195 0 0.06 0.195 0 0.08 0.195 0 0.1 0.195 0 0 0.2 0 0.02 0.2 0 0.04 0.2 0 0.06 0.2 0 0.08 0.2 0 0.1 0.2 0 0 0.205 0 0.02 0.205 0 0.04 0.205 0 0.06 0.205 0 0.08 0.205 0 0.1 0.205 0 0 0.21 0 0.02 0.21 0 0.04 0.21 0 0.06 0.21 0 0.08 0.21 0 0.1 0.21 0 0 0.215 0 0.02 0.215 0 0.04 0.215 0 0.06 0.215 0 0.08 0.215 0 0.1 0.215 0 0 0.22 0 0.02 0.22 0 0.04 0.22 0 0.06 0.22 0 0.08 0.22 0 0.1 0.22 0 0 0.225 0 0.02 0.225 0 0.04 0.225 0 0.06 0.225 0 0.08 0.225 0 0.1 0.225 0 0 0.23 0 0.02 0.23 0 0.04 0.23 0 0.06 0.23 0 0.08 0.23 0 0.1 0.23 0 0 0.235 0 0.02 0.235 0 0.04 0.235 0 0.06 0.235 0 0.08 0.235 0 0.1 0.235 0 0 0.24 0 0.02 0.24 0 0.04 0.24 0 0.06 0.24 0 0.08 0.24 0 0.1 0.24 0 0 0.245 0 0.02 0.245 0 0.04 0.245 0 0.06 0.245 0 0.08 0.245 0 0.1 0.245 0 0 0.25 0 0.02 0.25 0 0.04 0.25 0 0.06 0.25 0 0.08 0.25 0 0.1 0.25 0 0 0.255 0 0.02 0.255 0 0.04 0.255 0 0.06 0.255 0 0.08 0.255 0 0.1 0.255 0 0 0.26 0 0.02 0.26 0 0.04 0.26 0 0.06 0.26 0 0.08 0.26 0 0.1 0.26 0 0 0.265 0 0.02 0.265 0 0.04 0.265 0 0.06 0.265 0 0.08 0.265 0 0.1 0.265 0 0 0.27 0 0.02 0.27 0 0.04 0.27 0 0.06 0.27 0 0.08 0.27 0 0.1 0.27 0 0 0.275 0 0.02 0.275 0 0.04 0.275 0 0.06 0.275 0 0.08 0.275 0 0.1 0.275 0 0 0.28 0 0.02 0.28 0 0.04 0.28 0 0.06 0.28 0 0.08 0.28 0 0.1 0.28 0 0 0.285 0 0.02 0.285 0 0.04 0.285 0 0.06 0.285 0 0.08 0.285 0 0.1 0.285 0 0 0.29 0 0.02 0.29 0 0.04 0.29 0 0.06 0.29 0 0.08 0.29 0 0.1 0.29 0 0 0.295 0 0.02 0.295 0 0.04 0.295 0 0.06 0.295 0 0.08 0.295 0 0.1 0.295 0 0 0.3 0 0.02 0.3 0 0.04 0.3 0 0.06 0.3 0 0.08 0.3 0 0.1 0.3 0 0 0.305 0 0.02 0.305 0 0.04 0.305 0 0.06 0.305 0 0.08 0.305 0 0.1 0.305 0 0 0.31 0 0.02 0.31 0 0.04 0.31 0 0.06 0.31 0 0.08 0.31 0 0.1 0.31 0 0 0.315 0 0.02 0.315 0 0.04 0.315 0 0.06 0.315 0 0.08 0.315 0 0.1 0.315 0 0 0.32 0 0.02 0.32 0 0.04 0.32 0 0.06 0.32 0 0.08 0.32 0 0.1 0.32 0 0 0.325 0 0.02 0.325 0 0.04 0.325 0 0.06 0.325 0 0.08 0.325 0 0.1 0.325 0 0 0.33 0 0.02 0.33 0 0.04 0.33 0 0.06 0.33 0 0.08 0.33 0 0.1 0.33 0 0 0.335 0 0.02 0.335 0 0.04 0.335 0 0.06 0.335 0 0.08 0.335 0 0.1 0.335 0 0 0.34 0 0.02 0.34 0 0.04 0.34 0 0.06 0.34 0 0.08 0.34 0 0.1 0.34 0 0 0.345 0 0.02 0.345 0 0.04 0.345 0 0.06 0.345 0 0.08 0.345 0 0.1 0.345 0 0 0.35 0 0.02 0.35 0 0.04 0.35 0 0.06 0.35 0 0.08 0.35 0 0.1 0.35 0 0 0.355 0 0.02 0.355 0 0.04 0.355 0 0.06 0.355 0 0.08 0.355 0 0.1 0.355 0 0 0.36 0 0.02 0.36 0 0.04 0.36 0 0.06 0.36 0 0.08 0.36 0 0.1 0.36 0 0 0.365 0 0.02 0.365 0 0.04 0.365 0 0.06 0.365 0 0.08 0.365 0 0.1 0.365 0 0 0.37 0 0.02 0.37 0 0.04 0.37 0 0.06 0.37 0 0.08 0.37 0 0.1 0.37 0 0 0.375 0 0.02 0.375 0 0.04 0.375 0 0.06 0.375 0 0.08 0.375 0 0.1 0.375 0 0 0.38 0 0.02 0.38 0 0.04 0.38 0 0.06 0.38 0 0.08 0.38 0 0.1 0.38 0 0 0.385 0 0.02 0.385 0 0.04 0.385 0 0.06 0.385 0 0.08 0.385 0 0.1 0.385 0 0 0.39 0 0.02 0.39 0 0.04 0.39 0 0.06 0.39 0 0.08 0.39 0 0.1 0.39 0 0 0.395002 0 0.02 0.395002 0 0.04 0.395002 0 0.06 0.395002 0 0.08 0.395002 0 0.1 0.395002 0 0 0.40001 0 0.02 0.40001 0 0.04 0.40001 0 0.06 0.40001 0 0.08 0.40001 0 0.1 0.40001 0 0 0.405034 0 0.02 0.405034 0 0.04 0.405034 0 0.06 0.405034 0 0.08 0.405034 0 0.1 0.405034 0 0 0.410102 0 0.02 0.410102 0 0.04 0.410102 0 0.06 0.410102 0 0.08 0.410102 0 0.1 0.410102 0 0 0.415259 0 0.02 0.415259 0 0.04 0.415259 0 0.06 0.415259 0 0.08 0.415259 0 0.1 0.415259 0 0 0.420565 0 0.02 0.420565 0 0.04 0.420565 0 0.06 0.420565 0 0.08 0.420565 0 0.1 0.420565 0 0 0.426081 0 0.02 0.426081 0 0.04 0.426081 0 0.06 0.426081 0 0.08 0.426081 0 0.1 0.426081 0 0 0.431865 0 0.02 0.431865 0 0.04 0.431865 0 0.06 0.431865 0 0.08 0.431865 0 0.1 0.431865 0 0 0.437967 0 0.02 0.437967 0 0.04 0.437967 0 0.06 0.437967 0 0.08 0.437967 0 0.1 0.437967 0 0 0.444442 0 0.02 0.444442 0 0.04 0.444442 0 0.06 0.444442 0 0.08 0.444442 0 0.1 0.444442 0 0 0.451349 0 0.02 0.451349 0 0.04 0.451349 0 0.06 0.451349 0 0.08 0.451349 0 0.1 0.451349 0 0 0.458763 0 0.02 0.458763 0 0.04 0.458763 0 0.06 0.458763 0 0.08 0.458763 0 0.1 0.458763 0 0 0.466772 0 0.02 0.466772 0 0.04 0.466772 0 0.06 0.466772 0 0.08 0.466772 0 0.1 0.466772 0 0 0.47549 0 0.02 0.47549 0 0.04 0.47549 0 0.06 0.47549 0 0.08 0.47549 0 0.1 0.47549 0 0 0.485055 0 0.02 0.485055 0 0.04 0.485055 0 0.06 0.485055 0 0.08 0.485055 0 0.1 0.485055 0 0 0.495626 0 0.02 0.495626 0 0.04 0.495626 0 0.06 0.495626 0 0.08 0.495626 0 0.1 0.495626 0 0 0.507314 0 0.02 0.507314 0 0.04 0.507314 0 0.06 0.507314 0 0.08 0.507314 0 0.1 0.507314 0 0 0.519848 0 0.02 0.519848 0 0.04 0.519848 0 0.06 0.519848 0 0.08 0.519848 0 0.1 0.519848 0 0 0.532292 0 0.02 0.532292 0 0.04 0.532292 0 0.06 0.532292 0 0.08 0.532292 0 0.1 0.532292 0 0 0.544445 0 0.02 0.544445 0 0.04 0.544445 0 0.06 0.544445 0 0.08 0.544445 0 0.1 0.544445 0 0 0.556395 0 0.02 0.556395 0 0.04 0.556395 0 0.06 0.556395 0 0.08 0.556395 0 0.1 0.556395 0 0 0.568266 0 0.02 0.568266 0 0.04 0.568266 0 0.06 0.568266 0 0.08 0.568266 0 0.1 0.568266 0 0 0.570555 0 0.02 0.570555 0 0.04 0.570555 0 0.06 0.570555 0 0.08 0.570555 0 0.1 0.570555 0 0 0.572844 0 0.02 0.572844 0 0.04 0.572844 0 0.06 0.572844 0 0.08 0.572844 0 0.1 0.572844 0 0 0.575133 0 0.02 0.575133 0 0.04 0.575133 0 0.06 0.575133 0 0.08 0.575133 0 0.1 0.575133 0 0 0.57742 0 0.02 0.57742 0 0.04 0.57742 0 0.06 0.57742 0 0.08 0.57742 0 0.1 0.57742 0 0 0.579707 0 0.02 0.579707 0 0.04 0.579707 0 0.06 0.579707 0 0.08 0.579707 0 0.1 0.579707 0 0 0.581992 0 0.02 0.581992 0 0.04 0.581992 0 0.06 0.581992 0 0.08 0.581992 0 0.1 0.581992 0 0 0.584274 0 0.02 0.584274 0 0.04 0.584274 0 0.06 0.584274 0 0.08 0.584274 0 0.1 0.584274 0 0 0.586555 0 0.02 0.586555 0 0.04 0.586555 0 0.06 0.586555 0 0.08 0.586555 0 0.1 0.586555 0 0 0.588838 0 0.02 0.588838 0 0.04 0.588838 0 0.06 0.588838 0 0.08 0.588838 0 0.1 0.588838 0 0 0.591118 0 0.02 0.591118 0 0.04 0.591118 0 0.06 0.591118 0 0.08 0.591118 0 0.1 0.591118 0 0 0.5934 0 0.02 0.5934 0 0.04 0.5934 0 0.06 0.5934 0 0.08 0.5934 0 0.1 0.5934 0 0 0.595692 0 0.02 0.595692 0 0.04 0.595692 0 0.06 0.595692 0 0.08 0.595692 0 0.1 0.595692 0 0 0.597985 0 0.02 0.597985 0 0.04 0.597985 0 0.06 0.597985 0 0.08 0.597985 0 0.1 0.597985 0 0 0.600279 0 0.02 0.600279 0 0.04 0.600279 0 0.06 0.600279 0 0.08 0.600279 0 0.1 0.600279 0 0 0.602571 0 0.02 0.602571 0 0.04 0.602571 0 0.06 0.602571 0 0.08 0.602571 0 0.1 0.602571 0 0 0.604862 0 0.02 0.604862 0 0.04 0.604862 0 0.06 0.604862 0 0.08 0.604862 0 0.1 0.604862 0 0 0.607157 0 0.02 0.607157 0 0.04 0.607157 0 0.06 0.607157 0 0.08 0.607157 0 0.1 0.607157 0 0 0.609452 0 0.02 0.609452 0 0.04 0.609452 0 0.06 0.609452 0 0.08 0.609452 0 0.1 0.609452 0 0 0.611771 0 0.02 0.611771 0 0.04 0.611771 0 0.06 0.611771 0 0.08 0.611771 0 0.1 0.611771 0 0 0.614169 0 0.02 0.614169 0 0.04 0.614169 0 0.06 0.614169 0 0.08 0.614169 0 0.1 0.614169 0 0 0.616642 0 0.02 0.616642 0 0.04 0.616642 0 0.06 0.616642 0 0.08 0.616642 0 0.1 0.616642 0 0 0.61929 0 0.02 0.61929 0 0.04 0.61929 0 0.06 0.61929 0 0.08 0.61929 0 0.1 0.61929 0 0 0.622102 0 0.02 0.622102 0 0.04 0.622102 0 0.06 0.622102 0 0.08 0.622102 0 0.1 0.622102 0 0 0.625144 0 0.02 0.625144 0 0.04 0.625144 0 0.06 0.625144 0 0.08 0.625144 0 0.1 0.625144 0 0 0.628489 0 0.02 0.628489 0 0.04 0.628
[...]
			<PointData Scalars="VitesseX">
				<DataArray Name="VitesseX" type="Float32" format="ascii">
 0 -1.22707e-15 -1.91306e-16 4.02649e-15 3.70482e-15 0 0 -1.6625e-15 8.11483e-16 3.26319e-15 4.22856e-15 0 0 -1.06531e-15 7.53696e-16 3.32722e-15 4.22123e-15 0 0 1.2366e-16 -7.31378e-16 4.42188e-15 4.1498e-15 0 0 -6.73491e-16 7.61404e-16 3.24366e-15 4.85684e-15 0 0 -8.29843e-16 8.66585e-16 3.51944e-15 4.40417e-15 0 0 -4.30148e-16 -3.69885e-16 4.03409e-15 4.94023e-15 0 0 -1.56019e-15 6.13028e-16 1.81385e-15 6.9338e-15 0 0 -8.3787e-16 -8.5732e-16 1.55267e-15 8.58875e-15 0 0 1.02708e-15 -2.98236e-15 2.24324e-15 9.38672e-15 0 0 1.70597e-15 -3.0722e-15 9.82913e-16 1.02121e-14 0 0 -9.17155e-16 1.56929e-15 -2.33792e-15 9.91785e-15 0 0 -2.58241e-15 4.7964e-15 -2.12997e-15 6.93599e-15 0 0 1.48336e-15 5.5264e-16 2.62014e-15 2.79421e-15 0 0 1.81408e-15 2.2937e-15 3.445e-16 3.30421e-15 0 0 -1.94082e-16 2.95749e-15 -2.06677e-15 7.01557e-15 0 0 5.41656e-16 3.97579e-16 -9.49056e-16 6.10117e-15 0 0 -1.06746e-16 -1.63605e-15 4.18411e-15 2.30504e-15 0 0 -2.3692e-15 -3.50772e-15 8.4253e-15 2.68024e-15 0 0 -2.0565e-15 -1.90336e-15 4.53483e-15 8.09747e-15 0 0 -5.26645e-16 1.42254e-15 3.76105e-16 8.72191e-15 0 0 1.86522e-15 3.58155e-15 -5.15181e-15 9.07219e-15 0 0 7.49603e-15 2.00609e-15 -6.61095e-15 8.70607e-15 0 0 4.09437e-15 9.39458e-15 -5.49658e-15 2.26339e-15 0 0 -1.07624e-16 9.66674e-15 1.31059e-15 -3.96039e-15 0 0 1.07102e-15 3.3678e-15 4.46635e-15 -2.83937e-15 0 0 -1.34146e-15 3.36278e-15 3.25828e-15 1.51483e-16 0 0 -4.66762e-15 2.67539e-15 2.48112e-15 5.54322e-15 0 0 -2.10748e-15 -2.88512e-15 5.73356e-15 4.76864e-15 0 0 -1.84447e-15 -1.18024e-15 3.88334e-15 3.6945e-15 0 0 -1.02332e-15 -1.89985e-15 4.24347e-15 4.97303e-15 0 0 4.69741e-15 -3.30149e-15 7.48271e-15 1.33172e-15 0 0 9.9851e-16 7.33418e-15 3.46316e-16 4.68072e-15 0 0 2.68279e-15 4.4731e-17 5.76738e-15 1.48812e-15 0 0 6.15224e-15 -3.65994e-15 3.74366e-15 1.00057e-14 0 0 1.00105e-16 5.38708e-15 -6.2255e-16 1.31254e-14 0 0 3.53208e-15 -8.21137e-17 6.96372e-15 4.00078e-15 0 0 8.11408e-15 -7.18136e-16 5.57999e-15 2.66575e-16 0 0 6.46168e-15 1.13218e-15 9.01645e-15 -3.37617e-15 0 0 8.67833e-15 -6.43625e-15 1.31311e-14 1.66997e-15 0 0 9.09753e-15 3.60771e-15 6.2204e-15 2.2157e-15 0 0 5.8845e-15 9.95445e-15 1.417e-14 -6.4166e-15 0 0 4.09951e-15 6.12869e-15 1.78024e-14 -8.61341e-15 0 0 1.20184e-14 -6.30213e-16 1.50837e-14 -7.31551e-15 0 0 1.81978e-14 -1.20236e-15 7.83422e-15 -4.74639e-15 0 0 1.17776e-14 1.17859e-14 -1.38914e-14 6.50463e-15 0 0 3.8593e-15 2.43418e-14 -2.5923e-14 1.23699e-14 0 0 5.4525e-15 2.82322e-14 -2.57275e-14 7.63181e-15 0 0 1.00424e-14 1.16031e-14 -8.54189e-15 -8.68919e-15 0 0 1.07722e-14 4.89543e-16 1.20923e-15 -5.40111e-16 0 0 1.15051e-14 -1.59039e-14 9.62876e-15 1.41218e-14 0 0 5.6802e-15 -1.97725e-14 1.60542e-14 1.3243e-14 0 0 -5.44245e-15 9.12693e-16 2.76724e-15 3.1355e-14 0 0 -1.75962e-16 -1.87621e-14 1.68084e-14 3.29135e-14 0 0 5.08424e-15 -2.27347e-14 1.28159e-14 2.58004e-14 0 0 4.68197e-15 -6.51961e-15 1.53111e-15 1.71296e-14 0 0 -5.75987e-16 2.01968e-15 4.34711e-15 4.95168e-15 0 0 -9.58655e-15 1.53436e-14 -7.85404e-15 1.18992e-14 0 0 1.78237e-15 -6.12541e-15 7.08891e-15 1.22041e-14 0 0 6.28932e-15 -7.5063e-15 6.48798e-15 7.1011e-15 0 0 -6.09511e-15 2.73619e-15 -8.13607e-17 1.12435e-14 0 0 -7.82019e-15 -6.34899e-15 2.94652e-14 -1.04358e-14 0 0 -7.15281e-15 -3.4218e-15 4.33725e-14 -1.80115e-14 0 0 -4.72442e-16 3.64838e-16 3.37596e-14 -7.08358e-15 0 0 1.36987e-14 3.56142e-15 1.75665e-14 -4.57903e-15 0 0 1.49555e-14 1.33151e-14 -1.22241e-16 6.29697e-15 0 0 1.46211e-14 1.49041e-14 1.83543e-15 -4.46449e-15 0 0 2.35267e-14 1.09879e-14 8.51812e-15 -4.0596e-15 0 0 1.27758e-14 1.28321e-14 2.72043e-14 2.62372e-14 0 0 -1.81709e-15 3.69837e-15 4.2523e-14 5.4124e-14 0 0 -3.55978e-15 -6.86254e-15 1.59999e-14 4.19802e-14 0 0 8.5985e-15 -1.95075e-14 -8.57068e-15 1.3903e-14 0 0 9.55997e-15 -9.18465e-15 1.70171e-15 -2.19945e-14 0 0 -1.93264e-14 4.06267e-14 1.08089e-14 -3.82015e-14 0 0 -1.50445e-14 5.90942e-16 3.97122e-14 -3.10183e-14 0 0 -2.85766e-14 -8.79091e-15 2.52935e-14 -2.00644e-14 0 0 -2.28834e-14 1.24262e-14 -1.74433e-14 -1.27987e-14 0 0 1.18454e-14 -3.99146e-14 2.49802e-14 -2.69468e-14 0 0 -7.32007e-15 -2.19458e-14 3.0476e-14 -1.68628e-14 0 0 -1.5319e-14 -4.50295e-15 8.74327e-15 -9.10489e-15 0 0 3.00182e-15 -3.01313e-14 1.41112e-14 -1.9483e-14 0 0 2.05167e-15 -3.92997e-14 2.91112e-15 -5.77487e-15 0 0 -8.68056e-15 -1.43308e-14 -1.85373e-14 7.14916e-15 0 0 3.95985e-15 1.88899e-15 -3.59144e-14 1.61184e-14 0 0 3.11205e-15 9.50247e-15 -3.50098e-14 1.24876e-14 0 0 7.49166e-15 1.39426e-14 -8.73192e-15 -3.25085e-14 0 0 1.09255e-14 -1.36548e-14 -8.08733e-15 -1.77065e-14 0 0 1.29325e-14 -1.58865e-14 -7.98847e-15 -4.56789e-15 0 0 8.04897e-15 -3.84921e-15 1.39312e-14 -4.23103e-14 0 0 -1.738e-14 -2.70364e-15 -6.25824e-15 -2.51483e-14 0 0 -2.26716e-14 -7.81092e-15 -1.66996e-14 5.2631e-15 0 0 -7.57098e-16 -8.33002e-15 -3.64516e-15 1.49141e-14 0 0 2.473e-14 2.50585e-15 1.05689e-14 -2.0513e-16 0 0 1.63561e-14 -9.02906e-15 1.0099e-14 -6.94671e-15 0 0 -6.77099e-15 1.05482e-14 3.87692e-15 2.02177e-15 0 0 3.41102e-15 4.66195e-14 1.42717e-14 1.76055e-14 0 0 3.31227e-14 5.59094e-14 6.72104e-14 4.44165e-14 0 0 2.05582e-14 2.55914e-14 5.77403e-14 3.48019e-14 0 0 -1.02892e-13 -1.60107e-13 -1.50237e-13 -9.46203e-14 0 0 -2.78333e-13 -4.65096e-13 -4.76877e-13 -2.92161e-13 0 0 -3.79423e-13 -6.47845e-13 -6.90837e-13 -3.91631e-13 0 0 -5.82755e-13 -8.78469e-13 -8.99672e-13 -5.83255e-13 0 0 -5.67674e-13 -8.31847e-13 -9.28957e-13 -5.7908e-13 0 0 -5.56872e-13 -8.91715e-13 -9.25022e-13 -5.6816e-13 0 0 -5.96319e-13 -9.48492e-13 -9.36467e-13 -5.6527e-13 0 0 -6.05532e-13 -9.48732e-13 -9.70863e-13 -6.10732e-13 0 0 -5.78033e-13 -9.56216e-13 -9.39423e-13 -6.07702e-13 0 0 -4.28399e-13 -8.10219e-13 -6.92394e-13 -4.74847e-13 0 0 -2.04632e-13 -4.24295e-13 -3.43009e-13 -2.61999e-13 0 0 -8.31085e-15 -4.48602e-14 -1.34292e-14 -3.4708e-14 0 0 1.03207e-13 1.63232e-13 1.46852e-13 9.04036e-14 0 0 9.59763e-14 1.6803e-13 1.05476e-13 9.92654e-14 0 0 3.65621e-14 5.43433e-14 -5.59536e-16 4.46224e-14 0 0 -4.41626e-14 -2.50191e-14 -1.16501e-13 -4.48393e-14 0 0 -8.06941e-14 -1.58695e-13 -2.08833e-13 -1.06805e-13 0 0 -1.02697e-13 -2.70617e-13 -2.86401e-13 -1.3325e-13 0 0 -1.58586e-13 -3.08285e-13 -2.91448e-13 -2.436e-13 0 0 -1.80055e-13 -3.34047e-13 -3.07057e-13 -2.88976e-13 0 0 -1.89418e-13 -3.09743e-13 -3.72095e-13 -2.22844e-13 0 0 -1.7316e-13 -3.48915e-13 -3.56612e-13 -1.30584e-13 0 0 -1.80583e-13 -3.69029e-13 -3.493e-13 -1.06447e-13 0 0 -1.87221e-13 -3.00225e-13 -2.88656e-13 -1.66252e-13 0 0 -1.54424e-13 -2.44398e-13 -2.50656e-13 -1.89135e-13 0 0 -1.1726e-13 -2.12158e-13 -1.81577e-13 -1.7625e-13 0 0 -9.9759e-14 -1.44163e-13 -1.07407e-13 -1.17591e-13 0 0 -4.70642e-14 -6.11716e-14 -9.87182e-14 8.5706e-15 0 0 -2.5252e-15 -2.22502e-14 -5.49371e-14 6.37889e-14 0 0 -6.12866e-15 2.45023e-14 3.89269e-15 2.50935e-14 0 0 1.06176e-14 2.12465e-14 3.28981e-14 1.77127e-14 0 0 8.40696e-15 3.23116e-14 2.57409e-14 3.07144e-14 0 0 -1.21086e-14 3.95397e-14 4.67879e-15 4.74489e-14 0 0 -1.50995e-14 1.66198e-14 -7.63168e-17 2.05014e-14 0 0 -1.34906e-14 1.48041e-14 -6.57172e-15 2.3217e-14 0 0 -1.50377e-14 2.44923e-14 -1.7591e-14 4.78439e-14 0 0 -2.27774e-14 1.29639e-14 4.69778e-15 2.66129e-14 0 0 -1.88948e-14 4.95351e-15 3.03208e-14 2.33159e-14 0 0 -3.09172e-15 -5.13675e-15 3.91582e-14 2.03155e-14 0 0 -1.16805e-14 -9.58985e-15 4.19958e-14 1.02178e-14 0 0 -8.42203e-15 -1.04354e-14 3.86222e-14 3.63781e-14 0 0 5.24891e-15 -1.0427e-14 3.40932e-14 1.30106e-14 0 0 3.35064e-15 -1.12473e-14 4.51432e-14 -1.38908e-14 0 0 1.04815e-14 -3.79225e-14 5.8981e-14 1.28071e-14 0 0 1.95547e-14 -4.25003e-14 5.97461e-14 -6.09259e-15 0 0 4.34096e-15 -2.36068e-14 5.40222e-14 1.02934e-14 0 0 -2.12737e-14 4.63588e-15 4.12829e-14 4.04465e-14 0 0 -2.03699e-14 7.9525e-15 3.32627e-14 6.16676e-14 0 0 -2.67463e-14 1.94791e-14 4.38448e-14 5.7676e-14 0 0 -7.94055e-15 1.81026e-14 6.06662e-14 1.41923e-14 0 0 2.09728e-14 -1.22927e-14 9.17455e-14 4.73561e-15 0 0 4.68593e-15 6.10727e-15 9.77637e-14 1.40409e-14 0 0 8.80078e-15 3.20655e-14 7.40328e-14 -9.00575e-15 0 0 2.49373e-14 4.56826e-14 4.47937e-14 6.06147e-15 0 0 4.63592e-14 1.01436e-14 4.3846e-14 3.83425e-14 0 0 3.19692e-14 9.11989e-15 5.95598e-14 3.12739e-14 0 0 3.32153e-14 9.34281e-15 8.6699e-14 1.53406e-14 0 0 4.83472e-14 -2.24381e-14 1.03985e-13 9.36865e-15 0 0 7.28143e-15 7.0816e-16 5.75163e-14 6.74048e-14 0 0 6.90083e-16 1.60168e-14 1.4658e-14 1.34638e-13 0 0 3.59328e-14 2.00898e-14 -5.03549e-15 1.07443e-13 0 0 4.89112e-14 3.24803e-14 1.20269e-14 3.09003e-14 0 0 2.25712e-14 7.21935e-14 -3.71867e-15 3.20057e-14 0 0 3.19016e-15 5.48642e-14 1.18662e-14 4.80686e-14 0 0 -2.42497e-14 4.44628e-14 4.51025e-14 4.26572e-14 0 0 6.76642e-15 1.99276e-14 3.00759e-14 6.91885e-14 0 0 5.05686e-14 -1.49894e-15 -4.49553e-14 1.21688e-13 0 0 2.36161e-14 3.62226e-14 -1.02756e-13 1.5966e-13 0 0 3.50908e-17 1.51674e-14 -5.88209e-14 1.69685e-13 0 0 -1.09739e-14 -3.63925e-14 3.19488e-14 1.04153e-13 0 0 -2.14274e-15 -7.60558e-14 1.0859e-13 2.42095e-14 0 0 3.29768e-14 -1.04278e-13 1.04345e-13 1.30499e-14 0 0 2.65903e-14 -6.94328e-14 5.17503e-14 2.09219e-14 0 0 -2.06933e-15 -1.66833e-14 1.162e-14 2.01918e-14 0 0 -1.77634e-14 1.05022e-14 2.31436e-14 1.2868e-14 0 0 -1.93227e-14 1.09046e-14 3.10907e-14 4.8759e-14 0 0 -1.40179e-14 1.29119e-14 1.33821e-14 9.0868e-15 0 0 -1.4792e-14 6.11242e-14 -2.30395e-14 -3.51978e-14 0 0 -3.8342e-14 1.11418e-13 -2.96974e-14 -2.00947e-15 0 0 -1.57971e-14 1.08116e-13 -4.11506e-14 4.30476e-14 0 0 8.34165e-14 1.64628e-14 -2.05301e-14 6.73762e-14 0 0 6.96334e-14 4.93075e-14 -5.49524e-14 6.20593e-14 0 0 3.14491e-14 5.8094e-14 -5.75585e-14 2.37017e-14 0 0 1.25385e-14 7.85486e-15 1.44413e-14 2.19473e-14 0 0 6.51051e-15 3.16428e-14 -1.64143e-14 5.95706e-14 0 0 5.93094e-14 -4.99407e-15 1.34151e-14 2.50425e-14 0 0 3.32626e-14 1.81977e-14 3.89166e-14 2.39781e-14 0 0 -2.48678e-14 7.49795e-14 7.95991e-15 2.372e-14 0 0 -1.10642e-14 5.29027e-14 -1.05221e-14 2.34853e-14 0 0 2.44459e-14 1.78098e-14 -2.49639e-14 6.72515e-14 0 0 2.94469e-14 7.88679e-16 1.103e-14 6.14367e-14 0 0 2.44057e-14 -7.24331e-15 5.24959e-14 2.77422e-14 0 0 7.34464e-15 4.41743e-14 -1.60746e-14 3.24841e-14 0 0 -1.18794e-14 8.85343e-14 -6.36215e-14 5.09635e-14 0 0 6.88934e-15 2.66433e-14 4.78696e-14 1.62484e-15 0 0 -5.10266e-15 1.32949e-14 1.06149e-13 -4.77293e-14 0 0 -1.44669e-14 3.60991e-14 4.25131e-14 -1.17548e-14 0 0 1.45036e-14 -3.64144e-15 2.15719e-14 1.1349e-14 0 0 1.06391e-14 -2.35067e-15 2.02038e-14 9.89049e-15 0 0 1.06785e-14 3.53901e-14 -2.72629e-14 3.73339e-14 0 0 3.21929e-14 4.19817e-14 -2.57238e-14 3.15999e-14 0 0 2.86463e-14 2.22163e-14 5.01912e-14 -1.85888e-14 0 0 1.50698e-14 1.08757e-14 9.58789e-14 -3.90556e-14 0
				</DataArray>
				<DataArray Name="VitesseY" type="Float32" format="ascii">