<?xml version="1.0"?>
<VTKFile type="PolyData">
	<PolyData>
		<Piece NumberOfPoints="1206" NumberOfPolys="1000">
			<Points>
				<DataArray type="Float32" NumberOfComponents="3" format="ascii">
 0 0 0 0.02 0 0 0.04 0 0 0.06 0 0 0.08 0 0 0.1 0 0 0 0.005 0 0.02 0.005 0 0.04 0.005 0 0.06 0.005 0 0.08 0.005 0 0.1 0.005 0 0 0.01 0 0.02 0.01 0 0.04 0.01 0 0.06 0.01 0 0.08 0.01 0 0.1 0.01 0 0 0.015 0 0.02 0.015 0 0.04 0.015 0 0.06 0.015 0 0.08 0.015 0 0.1 0.015 0 0 0.02 0 0.02 0.02 0 0.04 0.02 0 0.06 0.02 0 0.08 0.02 0 0.1 0.02 0 0 0.025 0 0.02 0.025 0 0.04 0.025 0 0.06 0.025 0 0.08 0.025 0 0.1 0.025 0 0 0.03 0 0.02 0.03 0 0.04 0.03 0 0.06 0.03 0 0.08 0.03 0 0.1 0.03 0 0 0.035 0 0.02 0.035 0 0.04 0.035 0 0.06 0.035 0 0.08 0.035 0 0.1 0.035 0 0 0.04 0 0.02 0.04 0 0.04 0.04 0 0.06 0.04 0 0.08 0.04 0 0.1 0.04 0 0 0.045 0 0.02 0.045 0 0.04 0.045 0 0.06 0.045 0 0.08 0.045 0 0.1 0.045 0 0 0.05 0 0.02 0.05 0 0.04 0.05 0 0.06 0.05 0 0.08 0.05 0 0.1 0.05 0 0 0.055 0 0.02 0.055 0 0.04 0.055 0 0.06 0.055 0 0.08 0.055 0 0.1 0.055 0 0 0.06 0 0.02 0.06 0 0.04 0.06 0 0.06 0.06 0 0.08 0.06 0 0.1 0.06 0 0 0.065 0 0.02 0.065 0 0.04 0.065 0 0.06 0.065 0 0.08 0.065 0 0.1 0.065 0 0 0.07 0 0.02 0.07 0 0.04 0.07 0 0.06 0.07 0 0.08 0.07 0 0.1 0.07 0 0 0.075 0 0.02 0.075 0 0.04 0.075 0 0.06 0.075 0 0.08 0.075 0 0.1 0.075 0 0 0.08 0 0.02 0.08 0 0.04 0.08 0 0.06 0.08 0 0.08 0.08 0 0.1 0.08 0 0 0.085 0 0.02 0.085 0 0.04 0.085 0 0.06 0.085 0 0.08 0.085 0 0.1 0.085 0 0 0.09 0 0.02 0.09 0 0.04 0.09 0 0.06 0.09 0 0.08 0.09 0 0.1 0.09 0 0 0.095 0 0.02 0.095 0 0.04 0.095 0 0.06 0.095 0 0.08 0.095 0 0.1 0.095 0 0 0.1 0 0.02 0.1 0 0.04 0.1 0 0.06 0.1 0 0.08 0.1 0 0.1 0.1 0 0 0.105 0 0.02 0.105 0 0.04 0.105 0 0.06 0.105 0 0.08 0.105 0 0.1 0.105 0 0 0.11 0 0.02 0.11 0 0.04 0.11 0 0.06 0.11 0 0.08 0.11 0 0.1 0.11 0 0 0.115 0 0.02 0.115 0 0.04 0.115 0 0.06 0.115 0 0.08 0.115 0 0.1 0.115 0 0 0.12 0 0.02 0.12 0 0.04 0.12 0 0.06 0.12 0 0.08 0.12 0 0.1 0.12 0 0 0.125 0 0.02 0.125 0 0.04 0.125 0 0.06 0.125 0 0.08 0.125 0 0.1 0.125 0 0 0.13 0 0.02 0.13 0 0.04 0.13 0 0.06 0.13 0 0.08 0.13 0 0.1 0.13 0 0 0.135 0 0.02 0.135 0 0.04 0.135 0 0.06 0.135 0 0.08 0.135 0 0.1 0.135 0 0 0.14 0 0.02 0.14 0 0.04 0.14 0 0.06 0.14 0 0.08 0.14 0 0.1 0.14 0 0 0.145 0 0.02 0.145 0 0.04 0.145 0 0.06 0.145 0 0.08 0.145 0 0.1 0.145 0 0 0.15 0 0.02 0.15 0 0.04 0.15 0 0.06 0.15 0 0.08 0.15 0 0.1 0.15 0 0 0.155 0 0.02 0.155 0 0.04 0.155 0 0.06 0.155 0 0.08 0.155 0 0.1 0.155 0 0 0.16 0 0.02 0.16 0 0.04 0.16 0 0.06 0.16 0 0.08 0.16 0 0.1 0.16 0 0 0.165 0 0.02 0.165 0 0.04 0.165 0 0.06 0.165 0 0.08 0.165 0 0.1 0.165 0 0 0.17 0 0.02 0.17 0 0.04 0.17 0 0.06 0.17 0 0.08 0.17 0 0.1 0.17 0 0 0.175 0 0.02 0.175 0 0.04 0.175 0 0.06 0.175 0 0.08 0.175 0 0.1 0.175 0 0 0.18 0 0.02 0.18 0 0.04 0.18 0 0.06 0.18 0 0.08 0.18 0 0.1 0.18 0 0 0.185 0 0.02 0.185 0 0.04 0.185 0 0.06 0.185 0 0.08 0.185 0 0.1 0.185 0 0 0.19 0 0.02 0.19 0 0.04 0.19 0 0.06 0.19 0 0.08 0.19 0 0.1 0.19 0 0 0.195 0 0.02 0.195 0 0.04 0.195 0 0.06 0.195 0 0.08 0.195 0 0.1 0.195 0 0 0.2 0 0.02 0.2 0 0.04 0.2 0 0.06 0.2 0 0.08 0.2 0 0.1 0.2 0 0 0.205 0 0.02 0.205 0 0.04 0.205 0 0.06 0.205 0 0.08 0.205 0 0.1 0.205 0 0 0.21 0 0.02 0.21 0 0.04 0.21 0 0.06 0.21 0 0.08 0.21 0 0.1 0.21 0 0 0.215 0 0.02 0.215 0 0.04 0.215 0 0.06 0.215 0 0.08 0.215 0 0.1 0.215 0 0 0.22 0 0.02 0.22 0 0.04 0.22 0 0.06 0.22 0 0.08 0.22 0 0.1 0.22 0 0 0.225 0 0.02 0.225 0 0.04 0.225 0 0.06 0.225 0 0.08 0.225 0 0.1 0.225 0 0 0.23 0 0.02 0.23 0 0.04 0.23 0 0.06 0.23 0 0.08 0.23 0 0.1 0.23 0 0 0.235 0 0.02 0.235 0 0.04 0.235 0 0.06 0.235 0 0.08 0.235 0 0.1 0.235 0 0 0.24 0 0.02 0.24 0 0.04 0.24 0 0.06 0.24 0 0.08 0.24 0 0.1 0.24 0 0 0.245 0 0.02 0.245 0 0.04 0.245 0 0.06 0.245 0 0.08 0.245 0 0.1 0.245 0 0 0.25 0 0.02 0.25 0 0.04 0.25 0 0.06 0.25 0 0.08 0.25 0 0.1 0.25 0 0 0.255 0 0.02 0.255 0 0.04 0.255 0 0.06 0.255 0 0.08 0.255 0 0.1 0.255 0 0 0.26 0 0.02 0.26 0 0.04 0.26 0 0.06 0.26 0 0.08 0.26 0 0.1 0.26 0 0 0.265 0 0.02 0.265 0 0.04 0.265 0 0.06 0.265 0 0.08 0.265 0 0.1 0.265 0 0 0.27 0 0.02 0.27 0 0.04 0.27 0 0.06 0.27 0 0.08 0.27 0 0.1 0.27 0 0 0.275 0 0.02 0.275 0 0.04 0.275 0 0.06 0.275 0 0.08 0.275 0 0.1 0.275 0 0 0.28 0 0.02 0.28 0 0.04 0.28 0 0.06 0.28 0 0.08 0.28 0 0.1 0.28 0 0 0.285 0 0.02 0.285 0 0.04 0.285 0 0.06 0.285 0 0.08 0.285 0 0.1 0.285 0 0 0.29 0 0.02 0.29 0 0.04 0.29 0 0.06 0.29 0 0.08 0.29 0 0.1 0.29 0 0 0.295 0 0.02 0.295 0 0.04 0.295 0 0.06 0.295 0 0.08 0.295 0 0.1 0.295 0 0 0.3 0 0.02 0.3 0 0.04 0.3 0 0.06 0.3 0 0.08 0.3 0 0.1 0.3 0 0 0.305 0 0.02 0.305 0 0.04 0.305 0 0.06 0.305 0 0.08 0.305 0 0.1 0.305 0 0 0.31 0 0.02 0.31 0 0.04 0.31 0 0.06 0.31 0 0.08 0.31 0 0.1 0.31 0 0 0.315 0 0.02 0.315 0 0.04 0.315 0 0.06 0.315 0 0.08 0.315 0 0.1 0.315 0 0 0.32 0 0.02 0.32 0 0.04 0.32 0 0.06 0.32 0 0.08 0.32 0 0.1 0.32 0 0 0.325 0 0.02 0.325 0 0.04 0.325 0 0.06 0.325 0 0.08 0.325 0 0.1 0.325 0 0 0.33 0 0.02 0.33 0 0.04 0.33 0 0.06 0.33 0 0.08 0.33 0 0.1 0.33 0 0 0.335 0 0.02 0.335 0 0.04 0.335 0 0.06 0.335 0 0.08 0.335 0 0.1 0.335 0 0 0.340001 0 0.02 0.340001 0 0.04 0.340001 0 0.06 0.340001 0 0.08 0.340001 0 0.1 0.340001 0 0 0.345003 0 0.02 0.345003 0 0.04 0.345003 0 0.06 0.345003 0 0.08 0.345003 0 0.1 0.345003 0 0 0.35001 0 0.02 0.35001 0 0.04 0.35001 0 0.06 0.35001 0 0.08 0.35001 0 0.1 0.35001 0 0 0.355029 0 0.02 0.355029 0 0.04 0.355029 0 0.06 0.355029 0 0.08 0.355029 0 0.1 0.355029 0 0 0.360074 0 0.02 0.360074 0 0.04 0.360074 0 0.06 0.360074 0 0.08 0.360074 0 0.1 0.360074 0 0 0.365171 0 0.02 0.365171 0 0.04 0.365171 0 0.06 0.365171 0 0.08 0.365171 0 0.1 0.365171 0 0 0.37035 0 0.02 0.37035 0 0.04 0.37035 0 0.06 0.37035 0 0.08 0.37035 0 0.1 0.37035 0 0 0.375642 0 0.02 0.375642 0 0.04 0.375642 0 0.06 0.375642 0 0.08 0.375642 0 0.1 0.375642 0 0 0.381078 0 0.02 0.381078 0 0.04 0.381078 0 0.06 0.381078 0 0.08 0.381078 0 0.1 0.381078 0 0 0.386681 0 0.02 0.386681 0 0.04 0.386681 0 0.06 0.386681 0 0.08 0.386681 0 0.1 0.386681 0 0 0.392473 0 0.02 0.392473 0 0.04 0.392473 0 0.06 0.392473 0 0.08 0.392473 0 0.1 0.392473 0 0 0.398473 0 0.02 0.398473 0 0.04 0.398473 0 0.06 0.398473 0 0.08 0.398473 0 0.1 0.398473 0 0 0.404702 0 0.02 0.404702 0 0.04 0.404702 0 0.06 0.404702 0 0.08 0.404702 0 0.1 0.404702 0 0 0.411184 0 0.02 0.411184 0 0.04 0.411184 0 0.06 0.411184 0 0.08 0.411184 0 0.1 0.411184 0 0 0.417942 0 0.02 0.417942 0 0.04 0.417942 0 0.06 0.417942 0 0.08 0.417942 0 0.1 0.417942 0 0 0.425007 0 0.02 0.425007 0 0.04 0.425007 0 0.06 0.425007 0 0.08 0.425007 0 0.1 0.425007 0 0 0.43241 0 0.02 0.43241 0 0.04 0.43241 0 0.06 0.43241 0 0.08 0.43241 0 0.1 0.43241 0 0 0.440189 0 0.02 0.440189 0 0.04 0.440189 0 0.06 0.440189 0 0.08 0.440189 0 0.1 0.440189 0 0 0.448389 0 0.02 0.448389 0 0.04 0.448389 0 0.06 0.448389 0 0.08 0.448389 0 0.1 0.448389 0 0 0.457061 0 0.02 0.457061 0 0.04 0.457061 0 0.06 0.457061 0 0.08 0.457061 0 0.1 0.457061 0 0 0.466265 0 0.02 0.466265 0 0.04 0.466265 0 0.06 0.466265 0 0.08 0.466265 0 0.1 0.466265 0 0 0.476067 0 0.02 0.476067 0 0.04 0.476067 0 0.06 0.476067 0 0.08 0.476067 0 0.1 0.476067 0 0 0.486539 0 0.02 0.486539 0 0.04 0.486539 0 0.06 0.486539 0 0.08 0.486539 0 0.1 0.486539 0 0 0.497737 0 0.02 0.497737 0 0.04 0.497737 0 0.06 0.497737 0 0.08 0.497737 0 0.1 0.497737 0 0 0.509627 0 0.02 0.509627 0 0.04 0.509627 0 0.06 0.509627 0 0.08 0.509627 0 0.1 0.509627 0 0 0.521874 0 0.02 0.521874 0 0.04 0.521874 0 0.06 0.521874 0 0.08 0.521874 0 0.1 0.521874 0 0 0.534 0 0.02 0.534 0 0.04 0.534 0 0.06 0.534 0 0.08 0.534 0 0.1 0.534 0 0 0.545975 0 0.02 0.545975 0 0.04 0.545975 0 0.06 0.545975 0 0.08 0.545975 0 0.1 0.545975 0 0 0.557828 0 0.02 0.557828 0 0.04 0.557828 0 0.06 0.557828 0 0.08 0.557828 0 0.1 0.557828 0 0 0.569617 0 0.02 0.569617 0 0.04 0.569617 0 0.06 0.569617 0 0.08 0.569617 0 0.1 0.569617 0 0 0.581382 0 0.02 0.581382 0 0.04 0.581382 0 0.06 0.581382 0 0.08 0.581382 0 0.1 0.581382 0 0 0.59314 0 0.02 0.59314 0 0.04 0.59314 0 0.06 0.59314 0 0.08 0.59314 0 0.1 0.59314 0 0 0.604906 0 0.02 0.604906 0 0.04 0.604906 0 0.06 0.604906 0 0.08 0.604906 0 0.1 0.604906 0 0 0.60752 0 0.02 0.60752 0 0.04 0.60752 0 0.06 0.60752 0 0.08 0.60752 0 0.1 0.60752 0 0 0.61006 0 0.02 0.61006 0 0.04 0.61006 0 0.06 0.61006 0 0.08 0.61006 0 0.1 0.61006 0 0 0.612553 0 0.02 0.612553 0 0.04 0.612553 0 0.06 0.612553 0 0.08 0.612553 0 0.1 0.612553 0 0 0.615015 0 0.02 0.615015 0 0.04 0.615015 0 0.06 0.615015 0 0.08 0.615015 0 0.1 0.615015 0 0 0.617454 0 0.02 0.617454 0 0.04 0.617454 0 0.06 0.617454 0 0.08 0.617454 0 0.1 0.617454 0 0 0.619877 0 0.02 0.619877 0 0.04 0.619877 0 0.06 0.619877 0 0.08 0.619877 0 0.1 0.619877 0 0 0.622289 0 0.02 0.622289 0 0.04 0.622289 0 0.06 0.622289 0 0.08 0.622289 0 0.1 0.622289 0 0 0.624691 0 0.02 0.624691 0 0.04 0.624691 0 0.06 0.624691 0 0.08 0.624691 0 0.1 0.624691 0 0 0.627087 0 0.02 0.627087 0 0.04 0.627087 0 0.06 0.627087 0 0.08 0.627087 0 0.1 0.627087 0 0 0.629478 0 0.02 0.629478 0 0.04 0.629478 0 0.06 0.629478 0 0.08 0.629478 0 0.1 0.629478 0 0 0.631865 0 0.02 0.631865 0 0.04 0.631865 0 0.06 0.631865 0 0.08 0.631865 0 0.1 0.631865 0 0 0.634248 0 0.02 0.634248 0 0.04 0.634248 0 0.06 0.634248 0 0.08 0.634248 0 0.1 0.634248 0 0 0.636628 0 0.02 0.636628 0 0.04 0.636628 0 0.06 0.636628 0 0.08 0.636628 0 0.1 0.636628 0 0 0.639004 0 0.02 0.639004 0 0.04 0.639004 0 0.06 0.639004 0 0.08 0.639004 0 0.1 0.639004 0 0 0.641377 0 0.02 0.641377 0 0.04 0.641377 0 0.06 0.641377 0 0.08 0.641377 0 0.1 0.641377 0 0 0.643748 0 0.02 0.643748 0 0.04 0.643748 0 0.06 0.643748 0 0.08 0.643748 0 0.1 0.643748 0 0 0.646116 0 0.02 0.646116 0 0.04 0.646116 0 0.06 0.646116 0 0.08 0.646116 0 0.1 0.646116 0 0 0.648482 0 0.02 0.648482 0 0.04 0.648482 0 0.06 0.648482 0 0.08 0.648482 0 0.1 0.648482 0 0 0.650847 0 0.02 0.650847 0 0.04 0.650847 0 0.06 0.650847 0 0.08 0.650847 0 0.1 0.650847 0 0 0.65321 0 0.02 0.65321 0 0.04 0.65321 0 0.06 0.65321 0 0.08 0.65321 0 0.1 0.65321 0 0 0.655573 0 0.02 0.655573 0 0.04 0.655573 0 0.06 0.655573 0 0.08 0.655573 0 0.1 0.655573 0 0 0.657935 0 0.02 0.657935 0 0.04 0.657935 0 0.06 0.657935 0 0.08 0.657935 0 0.1 0.657935 0 0 0.660296 0 
[...]
			<PointData Scalars="VitesseX">
				<DataArray Name="VitesseX" type="Float32" format="ascii">
 0 -3.32156e-15 -3.35286e-15 -4.56464e-15 -1.11174e-14 0 0 -2.75299e-15 -3.11577e-15 -4.64946e-15 -1.10467e-14 0 0 -1.36874e-15 -3.34258e-15 -3.91993e-15 -1.06688e-14 0 0 8.82599e-16 -4.73774e-15 -1.66924e-15 -1.08629e-14 0 0 2.70373e-15 -5.87165e-15 -8.79354e-18 -1.14446e-14 0 0 3.01387e-15 -5.64878e-15 -1.0229e-16 -1.05984e-14 0 0 3.18773e-15 -5.79975e-15 -3.82428e-16 -9.94354e-15 0 0 3.72554e-15 -6.90292e-15 -2.70324e-16 -1.16017e-14 0 0 3.09076e-15 -7.23558e-15 -1.66476e-15 -1.24752e-14 0 0 1.91626e-15 -5.90852e-15 -4.16868e-15 -1.09654e-14 0 0 -6.07563e-16 -2.61913e-15 -5.51246e-15 -1.07995e-14 0 0 -3.3796e-15 -5.18711e-16 -6.58741e-15 -1.08461e-14 0 0 -3.46238e-15 -3.10249e-15 -6.50979e-15 -1.14449e-14 0 0 -4.8337e-15 -5.38612e-15 -8.56883e-15 -9.36913e-15 0 0 -3.52953e-15 -1.14574e-14 -8.71373e-15 -8.20085e-15 0 0 -3.0889e-15 -1.409e-14 -7.56604e-15 -9.66574e-15 0 0 -5.59556e-15 -1.04888e-14 -8.19154e-15 -6.33084e-15 0 0 -7.28196e-15 -1.07036e-14 -6.17808e-15 7.8534e-17 0 0 -8.06322e-15 -9.53568e-15 -4.35741e-15 5.2732e-15 0 0 -7.85436e-15 -4.55949e-15 -6.48737e-15 1.20293e-14 0 0 -7.02108e-15 -6.69065e-16 -8.84169e-15 1.56781e-14 0 0 -2.68968e-15 -2.13156e-15 -5.08743e-15 1.33386e-14 0 0 -1.13552e-15 -2.45204e-15 -1.57299e-15 1.19559e-14 0 0 1.14996e-15 8.77761e-16 -2.7449e-15 3.94769e-15 0 0 3.90027e-15 2.9147e-15 1.5816e-15 -8.93914e-15 0 0 3.66677e-15 3.24421e-15 6.4541e-15 -8.69997e-15 0 0 2.42087e-15 4.94868e-15 8.68458e-15 -4.0177e-15 0 0 2.33572e-15 5.49639e-15 7.63831e-15 2.21658e-15 0 0 3.83797e-15 6.91197e-15 6.5032e-16 1.04923e-14 0 0 5.99567e-15 5.73725e-15 1.28425e-15 1.56301e-14 0 0 7.65451e-15 4.10651e-15 8.06034e-15 1.43787e-14 0 0 7.76593e-15 1.04908e-15 2.52359e-14 -4.48205e-15 0 0 5.71075e-15 -2.09473e-15 3.21064e-14 -9.50122e-15 0 0 7.12532e-15 -2.60085e-15 1.95268e-14 1.77634e-16 0 0 8.27784e-15 -1.05192e-15 7.39047e-15 -4.98396e-15 0 0 3.2013e-15 2.55889e-15 2.98062e-15 -1.72574e-14 0 0 6.70825e-15 -4.27703e-15 4.09045e-15 -1.99282e-14 0 0 1.30627e-14 -1.45341e-14 -1.18004e-15 -5.61463e-15 0 0 2.54986e-16 -8.99865e-15 -1.14737e-14 1.66844e-15 0 0 -8.02973e-15 -5.27517e-15 -1.06499e-14 -9.82755e-15 0 0 2.57608e-15 -1.47407e-14 -5.76134e-15 -1.1495e-14 0 0 3.32125e-15 -1.25739e-14 -4.55026e-15 -2.20333e-14 0 0 -7.2174e-15 -2.07746e-15 3.60485e-15 -3.93029e-14 0 0 -1.72511e-14 6.41664e-15 3.94745e-15 -2.50183e-14 0 0 -1.68255e-14 3.54383e-15 4.03742e-15 -1.76071e-14 0 0 -1.10863e-14 -6.01925e-15 5.34215e-15 -2.69369e-14 0 0 -4.582e-15 -1.64912e-14 1.04298e-14 -3.54828e-14 0 0 -4.31303e-15 -1.81167e-14 1.0023e-14 -2.91178e-14 0 0 -6.00229e-15 -9.13642e-15 7.34902e-16 -1.06637e-14 0 0 -4.2437e-15 -3.66667e-15 9.78305e-16 -5.33518e-15 0 0 -4.3036e-15 -3.5263e-15 6.34882e-15 -1.62259e-14 0 0 9.50407e-16 -6.85987e-15 7.15095e-15 -2.19195e-14 0 0 5.16211e-15 -1.26416e-14 1.22066e-14 -1.41566e-14 0 0 7.74122e-15 -1.92237e-14 2.62781e-14 -6.75104e-15 0 0 4.8997e-15 -1.41249e-14 3.06497e-14 -7.13231e-15 0 0 -1.23037e-14 9.54344e-15 3.23819e-14 -1.12594e-14 0 0 -6.99533e-15 1.32639e-14 3.40281e-14 -7.09944e-15 0 0 1.75056e-14 1.45807e-14 1.84484e-14 1.3756e-14 0 0 2.24969e-14 4.62103e-14 9.0572e-15 2.24238e-14 0 0 3.13256e-14 6.05066e-14 3.3167e-14 7.50091e-15 0 0 4.29465e-14 5.80137e-14 6.46856e-14 -4.69776e-15 0 0 4.7648e-14 5.63306e-14 7.98003e-14 -4.08211e-15 0 0 5.38909e-14 4.39166e-14 9.09408e-14 1.83591e-14 0 0 4.76216e-14 4.49778e-14 8.89494e-14 3.89071e-14 0 0 3.67354e-14 5.32433e-14 7.11249e-14 5.11007e-14 0 0 3.71947e-14 5.55431e-14 5.26734e-14 6.8777e-14 0 0 3.03688e-14 7.50942e-14 3.70229e-14 8.11007e-14 0 0 2.31723e-14 7.02436e-14 3.21664e-14 8.35307e-14 0 0 2.10193e-14 6.31035e-14 3.01402e-14 7.70192e-14 0 0 6.18374e-15 5.38902e-14 5.69791e-14 5.78062e-14 0 0 -1.35708e-14 3.45623e-14 8.78757e-14 5.18161e-14 0 0 -1.04428e-14 3.46315e-14 7.99464e-14 4.18861e-14 0 0 1.01403e-14 4.20305e-14 5.91773e-14 2.84328e-14 0 0 -2.786e-15 3.7302e-14 5.04023e-14 2.80689e-14 0 0 -5.30732e-15 2.94523e-14 4.15381e-14 3.46822e-14 0 0 1.17839e-14 2.78844e-14 3.30325e-14 5.42802e-14 0 0 1.50556e-14 2.84947e-14 2.01378e-14 7.29185e-14 0 0 2.46857e-14 1.75605e-14 2.83635e-14 5.59441e-14 0 0 1.29623e-14 1.90887e-14 4.55921e-14 3.1121e-14 0 0 2.0883e-14 1.97544e-14 4.67069e-14 3.02875e-14 0 0 3.58709e-14 1.43203e-14 2.03681e-14 2.82205e-14 0 0 2.14729e-14 2.3991e-14 3.50615e-15 2.63071e-14 0 0 1.35841e-14 2.80967e-14 2.37342e-15 4.87075e-14 0 0 3.68692e-14 2.04299e-14 1.3667e-14 3.95627e-14 0 0 4.29694e-14 1.51214e-14 2.58566e-14 1.49411e-14 0 0 -1.04902e-15 3.2707e-14 1.43835e-14 3.78494e-14 0 0 -6.97784e-16 2.19082e-14 1.37656e-14 4.97405e-14 0 0 2.26167e-14 1.45439e-14 2.00387e-14 2.53717e-14 0 0 1.62052e-14 3.07838e-14 2.10651e-15 7.74858e-15 0 0 2.94746e-14 8.22792e-15 -1.89201e-14 -1.39207e-15 0 0 9.79586e-15 -5.16968e-15 -5.7589e-15 3.01321e-15 0 0 -1.70418e-14 8.72166e-15 4.66752e-15 1.50897e-14 0 0 9.56083e-15 2.82239e-14 4.69179e-15 1.5426e-15 0 0 2.17809e-14 2.86896e-14 1.0692e-14 -1.34566e-14 0 0 3.63331e-15 7.48086e-15 4.43707e-15 1.77589e-15 0 0 -5.89585e-15 7.06335e-15 3.94963e-15 3.09914e-16 0 0 8.29826e-15 8.73827e-15 2.86151e-14 -1.19153e-14 0 0 9.84692e-15 2.34133e-14 2.15156e-14 1.15237e-14 0 0 9.36793e-15 2.70962e-14 2.25679e-14 1.83735e-14 0 0 1.77238e-14 2.1251e-14 2.29996e-14 9.16361e-15 0 0 2.29445e-14 2.73112e-14 3.33522e-14 2.2498e-15 0 0 2.59258e-14 4.73159e-14 3.14294e-14 2.48362e-14 0 0 3.22255e-14 3.96362e-14 4.40332e-14 -1.78141e-14 0 0 3.25986e-14 1.55769e-14 5.65836e-14 -8.10259e-15 0 0 2.64591e-14 3.7176e-14 2.022e-14 1.26491e-14 0 0 4.47947e-14 1.05694e-14 5.51896e-14 1.57128e-14 0 0 6.97229e-14 -2.91334e-14 7.33511e-14 3.50573e-14 0 0 6.65452e-14 -1.27689e-14 3.23722e-14 5.97985e-14 0 0 4.3632e-14 8.82199e-15 4.50457e-14 2.60102e-14 0 0 3.70328e-14 -1.32505e-14 4.83855e-14 -7.24622e-15 0 0 2.76912e-14 -3.52664e-14 2.16686e-14 1.17466e-15 0 0 5.53796e-15 -3.54086e-14 8.55582e-15 -4.88001e-15 0 0 -1.42381e-14 -1.39766e-14 -4.60356e-14 7.13702e-14 0 0 -1.3031e-14 -2.51619e-14 -2.92811e-14 6.37242e-14 0 0 1.43722e-14 -4.86532e-14 6.86939e-15 4.54605e-14 0 0 1.23563e-14 -3.45329e-14 -4.00415e-15 7.97249e-14 0 0 -2.95063e-15 -1.25884e-14 -1.5338e-14 7.04362e-14 0 0 1.38478e-14 -2.99659e-14 1.82168e-14 6.88139e-14 0 0 1.40191e-14 -2.43232e-14 -2.82464e-15 1.34436e-13 0 0 1.67722e-14 1.16966e-14 -7.19026e-15 1.34057e-13 0 0 2.93964e-14 1.52111e-14 1.47043e-14 1.15401e-13 0 0 -3.05654e-15 7.36979e-14 -4.67206e-14 1.28547e-13 0 0 -3.07904e-14 1.24994e-13 -1.40055e-14 4.3163e-14 0 0 4.0478e-15 1.05618e-13 2.17355e-14 1.3007e-15 0 0 2.14929e-14 1.09875e-13 8.42022e-15 5.33892e-14 0 0 3.64716e-14 4.63583e-14 1.29441e-13 1.40813e-14 0 0 4.93039e-14 3.16467e-15 1.58812e-13 2.39704e-14 0 0 1.73973e-14 8.68426e-14 3.38243e-14 9.43201e-14 0 0 3.51578e-14 6.34589e-14 6.65204e-14 5.59792e-14 0 0 2.53524e-14 1.97257e-14 1.44644e-13 7.30524e-14 0 0 -1.51415e-14 6.83869e-14 1.3107e-13 1.12772e-13 0 0 2.02266e-15 7.90697e-14 1.52131e-13 8.38775e-14 0 0 1.15038e-14 1.01931e-13 1.21339e-13 1.3997e-13 0 0 -2.1752e-15 1.25339e-13 5.40587e-14 2.34723e-13 0 0 -5.57313e-15 9.29969e-14 1.04123e-13 1.29755e-13 0 0 -8.54768e-15 1.04276e-13 5.70823e-14 9.7409e-14 0 0 -1.86261e-14 1.19752e-13 9.19497e-14 1.26123e-13 0 0 -2.28041e-14 6.29973e-14 2.1776e-13 7.78887e-14 0 0 -1.24017e-14 3.41501e-14 2.35242e-13 7.85244e-14 0 0 1.27837e-15 9.63019e-14 1.5891e-13 8.34683e-14 0 0 1.21724e-14 1.12434e-13 1.08169e-13 1.2271e-13 0 0 2.31401e-14 8.49218e-14 1.22522e-13 4.30857e-14 0 0 2.56391e-14 8.99577e-14 1.11525e-13 6.16696e-15 0 0 2.89781e-14 7.46855e-14 1.13301e-13 1.28123e-13 0 0 3.09515e-14 7.9223e-14 1.10672e-13 1.25885e-13 0 0 4.47792e-14 8.12027e-14 1.3396e-13 5.42692e-14 0 0 5.8071e-14 7.46852e-14 1.45916e-13 7.93476e-14 0 0 4.99206e-14 1.05739e-13 1.36818e-13 8.16591e-14 0 0 4.75369e-14 1.09634e-13 1.68704e-13 6.74518e-14 0 0 5.43376e-14 9.79467e-14 1.75864e-13 8.16955e-14 0 0 6.06968e-14 1.05095e-13 1.60495e-13 8.72531e-14 0 0 6.27876e-14 1.19573e-13 1.66784e-13 1.02703e-13 0 0 5.35848e-14 1.44576e-13 1.62075e-13 9.27581e-14 0 0 5.38229e-14 1.5112e-13 1.66624e-13 8.45229e-14 0 0 6.47523e-14 1.5072e-13 1.74659e-13 9.31474e-14 0 0 7.21288e-14 1.64493e-13 1.53041e-13 7.22105e-14 0 0 8.14089e-14 1.47886e-13 1.39521e-13 7.03109e-14 0 0 9.02312e-14 1.27483e-13 1.54082e-13 4.01572e-14 0 0 8.45658e-14 1.26959e-13 1.5439e-13 2.32723e-14 0 0 8.18577e-14 1.08885e-13 1.63442e-13 3.03727e-14 0 0 5.72208e-14 1.40802e-13 1.51332e-13 9.34734e-15 0 0 4.97653e-14 1.33743e-13 1.3092e-13 2.42826e-14 0 0 8.54909e-14 5.53145e-14 1.77195e-13 9.70371e-15 0 0 7.95432e-14 4.39655e-14 1.52124e-13 4.59593e-14 0 0 7.06727e-14 6.38048e-14 5.03328e-14 1.58099e-13 0 0 4.68884e-14 7.84647e-14 4.13786e-14 1.11124e-13 0 0 5.24753e-15 7.26309e-14 7.38964e-14 4.84291e-14 0 0 -5.59856e-15 3.52167e-14 9.5983e-14 4.95498e-14 0 0 4.92235e-15 -1.86104e-14 1.00482e-13 8.47764e-14 0 0 -1.89872e-14 -3.62444e-14 1.26087e-13 8.7889e-14 0 0 -3.64749e-14 -1.0163e-14 1.28853e-13 3.28808e-14 0 0 5.07299e-15 -3.13739e-14 1.23038e-13 3.08476e-14 0 0 -2.51572e-14 1.77481e-14 1.01426e-13 2.55891e-14 0 0 -6.73285e-14 9.7127e-14 1.23958e-14 4.95588e-14 0 0 -1.8983e-14 6.79133e-14 -1.96164e-14 8.34141e-14 0 0 1.72384e-14 1.83585e-14 1.51503e-14 8.19164e-14 0 0 5.22316e-15 2.1303e-15 4.83182e-14 8.21536e-14 0 0 -1.68048e-14 2.31403e-14 4.82755e-14 8.40997e-14 0 0 -1.51859e-14 4.45879e-14 2.90218e-14 8.38762e-14 0 0 1.27007e-14 4.87161e-14 -3.35707e-14 1.28475e-13 0 0 1.33951e-14 3.47348e-14 -4.24075e-14 1.30909e-13 0 0 1.2485e-14 -1.28796e-14 3.35955e-14 3.37549e-14 0 0 9.80666e-15 -3.08472e-14 9.66876e-14 -3.34016e-14 0 0 -6.05458e-15 2.47372e-15 8.81262e-14 -7.4139e-15 0 0 -8.37789e-16 2.59649e-14 3.77025e-14 2.6074e-14 0 0 3.47884e-14 1.55359e-14 6.29902e-14 -1.4966e-14 0 0 6.00449e-14 8.28029e-15 7.67544e-14 -1.994e-14 0 0 2.88849e-14 5.44782e-14 3.37816e-14 5.11888e-14 0 0 1.15656e-15 7.43191e-14 1.49028e-14 7.6144e-14 0 0 -3.16438e-15 4.5178e-14 3.99288e-14 -9.63817e-15 0 0 -2.41485e-15 5.1784e-14 2.71938e-14 -5.07747e-14 0 0 -5.21354e-16 7.30513e-14 -1.9479e-14 -7.42867e-15 0 0 1.09825e-14 5.4162e-14 -2.91148e-14 -3.19262e-14 0 0 2.74034e-14 2.35655e-14 -2.77747e-14 -6.17493e-14 0 0 6.59468e-14 2.37518e-15 -4.64711e-14 -4.37234e-14 0 0 8.33102e-14 -5.35763e-15 -2.51976e-14 -6.52115e-14 0 0 5.9151e-14 6.13047e-15 7.11107e-15 -7.64008e-14 0 0 2.57694e-14 3.15307e-14 -3.69446e-14 -2.22936e-14 0 0 3.49961e-14 -2.3479e-15 -2.47746e-14 -1.60486e-14 0 0 3.45768e-14 -1.24274e-14 -8.51869e-15 4.30415e-15 0 0 -3.37624e-15 3.20514e-14 -3.75254e-14 4.30453e-14 0
				</DataArray>
				<DataArray Name="VitesseY" type="Float32" format="ascii">