<?xml version="1.0"?>
<VTKFile type="PolyData">
	<PolyData>
		<Piece NumberOfPoints="1206" NumberOfPolys="1000">
			<Points>
				<DataArray type="Float32" NumberOfComponents="3" format="ascii">
 0 0 0 0.02 0 0 0.04 0 0 0.06 0 0 0.08 0 0 0.1 0 0 0 0.005 0 0.02 0.005 0 0.04 0.005 0 0.06 0.005 0 0.08 0.005 0 0.1 0.005 0 0 0.01 0 0.02 0.01 0 0.04 0.01 0 0.06 0.01 0 0.08 0.01 0 0.1 0.01 0 0 0.015 0 0.02 0.015 0 0.04 0.015 0 0.06 0.015 0 0.08 0.015 0 0.1 0.015 0 0 0.02 0 0.02 0.02 0 0.04 0.02 0 0.06 0.02 0 0.08 0.02 0 0.1 0.02 0 0 0.025 0 0.02 0.025 0 0.04 0.025 0 0.06 0.025 0 0.08 0.025 0 0.1 0.025 0 0 0.03 0 0.02 0.03 0 0.04 0.03 0 0.06 0.03 0 0.08 0.03 0 0.1 0.03 0 0 0.035 0 0.02 0.035 0 0.04 0.035 0 0.06 0.035 0 0.08 0.035 0 0.1 0.035 0 0 0.04 0 0.02 0.04 0 0.04 0.04 0 0.06 0.04 0 0.08 0.04 0 0.1 0.04 0 0 0.045 0 0.02 0.045 0 0.04 0.045 0 0.06 0.045 0 0.08 0.045 0 0.1 0.045 0 0 0.05 0 0.02 0.05 0 0.04 0.05 0 0.06 0.05 0 0.08 0.05 0 0.1 0.05 0 0 0.055 0 0.02 0.055 0 0.04 0.055 0 0.06 0.055 0 0.08 0.055 0 0.1 0.055 0 0 0.06 0 0.02 0.06 0 0.04 0.06 0 0.06 0.06 0 0.08 0.06 0 0.1 0.06 0 0 0.065 0 0.02 0.065 0 0.04 0.065 0 0.06 0.065 0 0.08 0.065 0 0.1 0.065 0 0 0.07 0 0.02 0.07 0 0.04 0.07 0 0.06 0.07 0 0.08 0.07 0 0.1 0.07 0 0 0.075 0 0.02 0.075 0 0.04 0.075 0 0.06 0.075 0 0.08 0.075 0 0.1 0.075 0 0 0.08 0 0.02 0.08 0 0.04 0.08 0 0.06 0.08 0 0.08 0.08 0 0.1 0.08 0 0 0.085 0 0.02 0.085 0 0.04 0.085 0 0.06 0.085 0 0.08 0.085 0 0.1 0.085 0 0 0.09 0 0.02 0.09 0 0.04 0.09 0 0.06 0.09 0 0.08 0.09 0 0.1 0.09 0 0 0.095 0 0.02 0.095 0 0.04 0.095 0 0.06 0.095 0 0.08 0.095 0 0.1 0.095 0 0 0.1 0 0.02 0.1 0 0.04 0.1 0 0.06 0.1 0 0.08 0.1 0 0.1 0.1 0 0 0.105 0 0.02 0.105 0 0.04 0.105 0 0.06 0.105 0 0.08 0.105 0 0.1 0.105 0 0 0.11 0 0.02 0.11 0 0.04 0.11 0 0.06 0.11 0 0.08 0.11 0 0.1 0.11 0 0 0.115 0 0.02 0.115 0 0.04 0.115 0 0.06 0.115 0 0.08 0.115 0 0.1 0.115 0 0 0.12 0 0.02 0.12 0 0.04 0.12 0 0.06 0.12 0 0.08 0.12 0 0.1 0.12 0 0 0.125 0 0.02 0.125 0 0.04 0.125 0 0.06 0.125 0 0.08 0.125 0 0.1 0.125 0 0 0.13 0 0.02 0.13 0 0.04 0.13 0 0.06 0.13 0 0.08 0.13 0 0.1 0.13 0 0 0.135 0 0.02 0.135 0 0.04 0.135 0 0.06 0.135 0 0.08 0.135 0 0.1 0.135 0 0 0.14 0 0.02 0.14 0 0.04 0.14 0 0.06 0.14 0 0.08 0.14 0 0.1 0.14 0 0 0.145 0 0.02 0.145 0 0.04 0.145 0 0.06 0.145 0 0.08 0.145 0 0.1 0.145 0 0 0.15 0 0.02 0.15 0 0.04 0.15 0 0.06 0.15 0 0.08 0.15 0 0.1 0.15 0 0 0.155 0 0.02 0.155 0 0.04 0.155 0 0.06 0.155 0 0.08 0.155 0 0.1 0.155 0 0 0.16 0 0.02 0.16 0 0.04 0.16 0 0.06 0.16 0 0.08 0.16 0 0.1 0.16 0 0 0.165 0 0.02 0.165 0 0.04 0.165 0 0.06 0.165 0 0.08 0.165 0 0.1 0.165 0 0 0.17 0 0.02 0.17 0 0.04 0.17 0 0.06 0.17 0 0.08 0.17 0 0.1 0.17 0 0 0.175 0 0.02 0.175 0 0.04 0.175 0 0.06 0.175 0 0.08 0.175 0 0.1 0.175 0 0 0.18 0 0.02 0.18 0 0.04 0.18 0 0.06 0.18 0 0.08 0.18 0 0.1 0.18 0 0 0.185 0 0.02 0.185 0 0.04 0.185 0 0.06 0.185 0 0.08 0.185 0 0.1 0.185 0 0 0.19 0 0.02 0.19 0 0.04 0.19 0 0.06 0.19 0 0.08 0.19 0 0.1 0.19 0 0 0.195 0 0.02 0.195 0 0.04 0.195 0 0.06 0.195 0 0.08 0.195 0 0.1 0.195 0 0 0.2 0 0.02 0.2 0 0.04 0.2 0 0.06 0.2 0 0.08 0.2 0 0.1 0.2 0 0 0.205 0 0.02 0.205 0 0.04 0.205 0 0.06 0.205 0 0.08 0.205 0 0.1 0.205 0 0 0.21 0 0.02 0.21 0 0.04 0.21 0 0.06 0.21 0 0.08 0.21 0 0.1 0.21 0 0 0.215 0 0.02 0.215 0 0.04 0.215 0 0.06 0.215 0 0.08 0.215 0 0.1 0.215 0 0 0.22 0 0.02 0.22 0 0.04 0.22 0 0.06 0.22 0 0.08 0.22 0 0.1 0.22 0 0 0.225 0 0.02 0.225 0 0.04 0.225 0 0.06 0.225 0 0.08 0.225 0 0.1 0.225 0 0 0.23 0 0.02 0.23 0 0.04 0.23 0 0.06 0.23 0 0.08 0.23 0 0.1 0.23 0 0 0.235 0 0.02 0.235 0 0.04 0.235 0 0.06 0.235 0 0.08 0.235 0 0.1 0.235 0 0 0.24 0 0.02 0.24 0 0.04 0.24 0 0.06 0.24 0 0.08 0.24 0 0.1 0.24 0 0 0.245 0 0.02 0.245 0 0.04 0.245 0 0.06 0.245 0 0.08 0.245 0 0.1 0.245 0 0 0.250001 0 0.02 0.250001 0 0.04 0.250001 0 0.06 0.250001 0 0.08 0.250001 0 0.1 0.250001 0 0 0.255003 0 0.02 0.255003 0 0.04 0.255003 0 0.06 0.255003 0 0.08 0.255003 0 0.1 0.255003 0 0 0.260009 0 0.02 0.260009 0 0.04 0.260009 0 0.06 0.260009 0 0.08 0.260009 0 0.1 0.260009 0 0 0.265022 0 0.02 0.265022 0 0.04 0.265022 0 0.06 0.265022 0 0.08 0.265022 0 0.1 0.265022 0 0 0.27005 0 0.02 0.27005 0 0.04 0.27005 0 0.06 0.27005 0 0.08 0.27005 0 0.1 0.27005 0 0 0.275105 0 0.02 0.275105 0 0.04 0.275105 0 0.06 0.275105 0 0.08 0.275105 0 0.1 0.275105 0 0 0.280201 0 0.02 0.280201 0 0.04 0.280201 0 0.06 0.280201 0 0.08 0.280201 0 0.1 0.280201 0 0 0.285355 0 0.02 0.285355 0 0.04 0.285355 0 0.06 0.285355 0 0.08 0.285355 0 0.1 0.285355 0 0 0.29058 0 0.02 0.29058 0 0.04 0.29058 0 0.06 0.29058 0 0.08 0.29058 0 0.1 0.29058 0 0 0.29589 0 0.02 0.29589 0 0.04 0.29589 0 0.06 0.29589 0 0.08 0.29589 0 0.1 0.29589 0 0 0.301296 0 0.02 0.301296 0 0.04 0.301296 0 0.06 0.301296 0 0.08 0.301296 0 0.1 0.301296 0 0 0.306805 0 0.02 0.306805 0 0.04 0.306805 0 0.06 0.306805 0 0.08 0.306805 0 0.1 0.306805 0 0 0.312425 0 0.02 0.312425 0 0.04 0.312425 0 0.06 0.312425 0 0.08 0.312425 0 0.1 0.312425 0 0 0.318163 0 0.02 0.318163 0 0.04 0.318163 0 0.06 0.318163 0 0.08 0.318163 0 0.1 0.318163 0 0 0.324025 0 0.02 0.324025 0 0.04 0.324025 0 0.06 0.324025 0 0.08 0.324025 0 0.1 0.324025 0 0 0.33002 0 0.02 0.33002 0 0.04 0.33002 0 0.06 0.33002 0 0.08 0.33002 0 0.1 0.33002 0 0 0.336154 0 0.02 0.336154 0 0.04 0.336154 0 0.06 0.336154 0 0.08 0.336154 0 0.1 0.336154 0 0 0.342436 0 0.02 0.342436 0 0.04 0.342436 0 0.06 0.342436 0 0.08 0.342436 0 0.1 0.342436 0 0 0.348873 0 0.02 0.348873 0 0.04 0.348873 0 0.06 0.348873 0 0.08 0.348873 0 0.1 0.348873 0 0 0.355476 0 0.02 0.355476 0 0.04 0.355476 0 0.06 0.355476 0 0.08 0.355476 0 0.1 0.355476 0 0 0.362253 0 0.02 0.362253 0 0.04 0.362253 0 0.06 0.362253 0 0.08 0.362253 0 0.1 0.362253 0 0 0.369216 0 0.02 0.369216 0 0.04 0.369216 0 0.06 0.369216 0 0.08 0.369216 0 0.1 0.369216 0 0 0.376377 0 0.02 0.376377 0 0.04 0.376377 0 0.06 0.376377 0 0.08 0.376377 0 0.1 0.376377 0 0 0.383748 0 0.02 0.383748 0 0.04 0.383748 0 0.06 0.383748 0 0.08 0.383748 0 0.1 0.383748 0 0 0.391343 0 0.02 0.391343 0 0.04 0.391343 0 0.06 0.391343 0 0.08 0.391343 0 0.1 0.391343 0 0 0.399179 0 0.02 0.399179 0 0.04 0.399179 0 0.06 0.399179 0 0.08 0.399179 0 0.1 0.399179 0 0 0.407272 0 0.02 0.407272 0 0.04 0.407272 0 0.06 0.407272 0 0.08 0.407272 0 0.1 0.407272 0 0 0.41564 0 0.02 0.41564 0 0.04 0.41564 0 0.06 0.41564 0 0.08 0.41564 0 0.1 0.41564 0 0 0.424306 0 0.02 0.424306 0 0.04 0.424306 0 0.06 0.424306 0 0.08 0.424306 0 0.1 0.424306 0 0 0.433293 0 0.02 0.433293 0 0.04 0.433293 0 0.06 0.433293 0 0.08 0.433293 0 0.1 0.433293 0 0 0.442626 0 0.02 0.442626 0 0.04 0.442626 0 0.06 0.442626 0 0.08 0.442626 0 0.1 0.442626 0 0 0.452334 0 0.02 0.452334 0 0.04 0.452334 0 0.06 0.452334 0 0.08 0.452334 0 0.1 0.452334 0 0 0.462448 0 0.02 0.462448 0 0.04 0.462448 0 0.06 0.462448 0 0.08 0.462448 0 0.1 0.462448 0 0 0.472999 0 0.02 0.472999 0 0.04 0.472999 0 0.06 0.472999 0 0.08 0.472999 0 0.1 0.472999 0 0 0.484017 0 0.02 0.484017 0 0.04 0.484017 0 0.06 0.484017 0 0.08 0.484017 0 0.1 0.484017 0 0 0.495521 0 0.02 0.495521 0 0.04 0.495521 0 0.06 0.495521 0 0.08 0.495521 0 0.1 0.495521 0 0 0.507487 0 0.02 0.507487 0 0.04 0.507487 0 0.06 0.507487 0 0.08 0.507487 0 0.1 0.507487 0 0 0.519765 0 0.02 0.519765 0 0.04 0.519765 0 0.06 0.519765 0 0.08 0.519765 0 0.1 0.519765 0 0 0.532039 0 0.02 0.532039 0 0.04 0.532039 0 0.06 0.532039 0 0.08 0.532039 0 0.1 0.532039 0 0 0.54421 0 0.02 0.54421 0 0.04 0.54421 0 0.06 0.54421 0 0.08 0.54421 0 0.1 0.54421 0 0 0.556268 0 0.02 0.556268 0 0.04 0.556268 0 0.06 0.556268 0 0.08 0.556268 0 0.1 0.556268 0 0 0.568227 0 0.02 0.568227 0 0.04 0.568227 0 0.06 0.568227 0 0.08 0.568227 0 0.1 0.568227 0 0 0.580116 0 0.02 0.580116 0 0.04 0.580116 0 0.06 0.580116 0 0.08 0.580116 0 0.1 0.580116 0 0 0.591963 0 0.02 0.591963 0 0.04 0.591963 0 0.06 0.591963 0 0.08 0.591963 0 0.1 0.591963 0 0 0.603788 0 0.02 0.603788 0 0.04 0.603788 0 0.06 0.603788 0 0.08 0.603788 0 0.1 0.603788 0 0 0.615604 0 0.02 0.615604 0 0.04 0.615604 0 0.06 0.615604 0 0.08 0.615604 0 0.1 0.615604 0 0 0.627416 0 0.02 0.627416 0 0.04 0.627416 0 0.06 0.627416 0 0.08 0.627416 0 0.1 0.627416 0 0 0.639226 0 0.02 0.639226 0 0.04 0.639226 0 0.06 0.639226 0 0.08 0.639226 0 0.1 0.639226 0 0 0.651034 0 0.02 0.651034 0 0.04 0.651034 0 0.06 0.651034 0 0.08 0.651034 0 0.1 0.651034 0 0 0.662843 0 0.02 0.662843 0 0.04 0.662843 0 0.06 0.662843 0 0.08 0.662843 0 0.1 0.662843 0 0 0.674658 0 0.02 0.674658 0 0.04 0.674658 0 0.06 0.674658 0 0.08 0.674658 0 0.1 0.674658 0 0 0.676938 0 0.02 0.676938 0 0.04 0.676938 0 0.06 0.676938 0 0.08 0.676938 0 0.1 0.676938 0 0 0.679218 0 0.02 0.679218 0 0.04 0.679218 0 0.06 0.679218 0 0.08 0.679218 0 0.1 0.679218 0 0 0.681498 0 0.02 0.681498 0 0.04 0.681498 0 0.06 0.681498 0 0.08 0.681498 0 0.1 0.681498 0 0 0.683778 0 0.02 0.683778 0 0.04 0.683778 0 0.06 0.683778 0 0.08 0.683778 0 0.1 0.683778 0 0 0.686057 0 0.02 0.686057 0 0.04 0.686057 0 0.06 0.686057 0 0.08 0.686057 0 0.1 0.686057 0 0 0.688335 0 0.02 0.688335 0 0.04 0.688335 0 0.06 0.688335 0 0.08 0.688335 0 0.1 0.688335 0 0 0.690611 0 0.02 0.690611 0 0.04 0.690611 0 0.06 0.690611 0 0.08 0.690611 0 0.1 0.690611 0 0 0.692887 0 0.02 0.692887 0 0.04 0.692887 0 0.06 0.692887 0 0.08 0.692887 0 0.1 0.692887 0 0 0.695165 0 0.02 0.695165 0 0.04 0.695165 0 0.06 0.695165 0 0.08 0.695165 0 0.1 0.695165 0 0 0.697439 0 0.02 0.697439 0 0.04 0.697439 0 0.06 0.697439 0 0.08 0.697439 0 0.1 0.697439 0 0 0.699715 0 0.02 0.699715 0 0.04 0.699715 0 0.06 0.699715 0 0.08 0.699715 0 0.1 0.699715 0 0 0.701993 0 0.02 0.701993 0 0.04 0.701993 0 0.06 0.701993 0 0.08 0.701993 0 0.1 0.701993 0 0 0.704272 0 0.02 0.704272 0 0.04 0.704272 0 0.06 0.704272 0 0.08 0.704272 0 0.1 0.704272 0 0 0.706549 0 0.02 0.706549 0 0.04 0.706549 0 0.06 0.706549 0 0.08 0.706549 0 0.1 0.706549 0 0 0.708826 0 0.02 0.708826 0 0.04 0.708826 0 0.06 0.708826 0 0.08 0.708826 0 0.1 0.708826 0 0 0.711105 0 0.02 0.711105 0 0.04 0.711105 0 0.06 0.711105 0 0.08 0.711105 0 0.1 0.711105 0 0 0.713385 0 0.02 0.713385 0 0.04 0.713385 0 0.06 0.713385 0 0.08 0.713385 0 0.1 0.713385 0 0 0.715665 0 0.02 0.715665 0 0.04 0.715665 0 0.06 0.715665 0 0.08
[...]
			<PointData Scalars="VitesseX">
				<DataArray Name="VitesseX" type="Float32" format="ascii">
 0 4.63385e-15 1.97052e-15 5.7411e-15 -6.53922e-16 0 0 3.81242e-15 2.81542e-15 4.50884e-15 7.11106e-16 0 0 1.69355e-15 5.6381e-15 1.37123e-15 3.25764e-15 0 0 9.1788e-16 5.81031e-15 1.96017e-15 2.98586e-15 0 0 2.44318e-15 1.69397e-15 6.60556e-15 -1.32367e-16 0 0 2.32196e-15 1.1543e-15 6.87875e-15 -7.02679e-16 0 0 1.95322e-15 1.14572e-15 6.49852e-15 -1.23461e-15 0 0 1.8785e-15 5.99686e-16 5.90889e-15 -2.64008e-16 0 0 2.8012e-15 6.4963e-16 3.72903e-15 3.40381e-15 0 0 2.09147e-15 1.42439e-15 3.08405e-15 5.08214e-15 0 0 -2.98238e-16 4.04607e-15 2.42931e-15 2.51422e-15 0 0 2.0308e-17 3.99865e-15 6.4545e-15 -5.76832e-15 0 0 1.70884e-15 5.00491e-15 7.91729e-15 -6.7658e-15 0 0 1.73113e-15 7.76371e-15 5.30534e-15 -6.00538e-15 0 0 -5.65892e-16 6.35488e-15 8.49001e-15 -1.0437e-14 0 0 -9.51616e-16 3.44623e-15 1.1248e-14 -8.17116e-15 0 0 -1.2095e-15 5.40657e-15 3.53547e-15 -2.20406e-15 0 0 -1.94591e-15 6.77095e-15 -2.20019e-15 -2.29409e-15 0 0 1.05262e-16 4.76204e-15 -3.68232e-15 -4.95629e-15 0 0 5.72898e-15 -1.23026e-15 -4.03589e-15 -5.49679e-15 0 0 6.4482e-15 -7.37122e-15 8.25804e-16 -3.00057e-15 0 0 2.06531e-15 -7.76774e-15 -1.5372e-15 1.08718e-15 0 0 -4.30815e-15 -3.66663e-15 -6.3392e-15 5.06925e-15 0 0 -6.43484e-15 -3.19379e-15 -1.34455e-15 1.88961e-15 0 0 -1.21391e-15 -9.18318e-15 1.26776e-14 -1.07595e-14 0 0 6.80676e-16 -6.91356e-15 1.00115e-14 -1.19324e-14 0 0 -2.04351e-15 9.44897e-16 1.75433e-15 -1.1035e-14 0 0 -3.91792e-15 9.92521e-15 -2.70178e-15 -6.48199e-15 0 0 -9.38096e-15 1.83397e-14 -1.64646e-15 -9.02526e-15 0 0 -5.49819e-15 8.76912e-15 1.24148e-14 -2.20035e-14 0 0 -1.16534e-15 8.12523e-15 6.94729e-15 -1.39517e-14 0 0 1.94522e-15 1.68809e-14 -1.13321e-14 8.62465e-15 0 0 1.74203e-14 3.09244e-15 -1.12331e-14 1.28217e-14 0 0 1.75505e-14 -5.6621e-15 5.54017e-15 -6.57139e-15 0 0 8.2146e-15 6.24709e-15 7.87522e-15 -1.38193e-14 0 0 7.97918e-15 1.47444e-14 1.08399e-15 -3.19669e-15 0 0 4.91148e-15 1.93638e-14 3.94317e-15 2.32277e-15 0 0 6.60218e-16 1.46758e-14 9.55961e-15 5.11544e-15 0 0 1.50157e-14 -2.47111e-15 3.69025e-15 1.24446e-14 0 0 8.2281e-15 -8.13167e-15 1.0329e-14 3.05054e-15 0 0 -2.34063e-14 2.3627e-15 -3.00674e-15 -5.43424e-15 0 0 -4.61771e-14 3.22791e-15 -2.80028e-14 3.39144e-15 0 0 -1.85864e-14 -4.74793e-14 2.60278e-15 6.12303e-15 0 0 -6.68359e-15 -4.4224e-14 1.05238e-14 -5.34514e-16 0 0 -3.83911e-14 -7.56777e-15 -2.54852e-14 1.16928e-14 0 0 -2.59589e-14 -4.68791e-14 -2.4232e-14 1.26989e-14 0 0 -1.44813e-14 -6.23344e-14 -3.70839e-14 1.53387e-14 0 0 -7.20842e-15 -5.58239e-14 -7.16705e-14 3.43103e-14 0 0 1.41447e-14 -5.86311e-14 -4.67228e-14 1.99931e-15 0 0 2.90321e-14 -2.74221e-14 -2.63569e-14 -1.93596e-14 0 0 7.5089e-15 1.97175e-14 -4.66949e-14 1.87842e-15 0 0 -1.8537e-14 3.27597e-14 -4.48002e-14 -6.43822e-15 0 0 -9.2926e-15 -9.83877e-15 -2.49445e-14 3.48913e-15 0 0 -1.2602e-14 -3.21251e-14 -5.52409e-15 2.97683e-14 0 0 -1.27612e-14 -2.72911e-14 2.60785e-14 1.70318e-14 0 0 1.0556e-14 -2.7282e-14 1.17779e-14 -2.46213e-15 0 0 1.74783e-14 -9.47232e-15 -2.20877e-14 4.07344e-15 0 0 1.25574e-14 3.02731e-15 -1.35083e-14 1.31336e-14 0 0 -8.27897e-15 1.5635e-14 -2.9978e-14 1.66119e-14 0 0 -1.70535e-14 -8.4819e-15 -9.03071e-15 1.54084e-14 0 0 7.03904e-15 -1.51851e-14 2.35572e-14 7.64554e-15 0 0 1.89939e-14 1.0852e-14 2.56801e-14 -3.04447e-15 0 0 1.76838e-14 -1.18437e-14 3.81767e-14 -1.04536e-14 0 0 7.77701e-15 -9.05237e-15 2.35001e-14 4.64257e-15 0 0 -1.74943e-15 1.47176e-15 1.89757e-14 5.68865e-15 0 0 2.77963e-14 -2.50479e-14 1.8568e-14 1.93481e-14 0 0 3.61977e-14 -2.29913e-14 1.65686e-14 1.58273e-14 0 0 8.74576e-15 2.15808e-15 7.61487e-15 3.16732e-15 0 0 2.60082e-14 -3.98855e-15 -1.37544e-14 3.8615e-14 0 0 3.26274e-14 -3.84347e-15 -1.15297e-14 2.01741e-14 0 0 6.03669e-15 4.83178e-15 6.22062e-15 -2.56844e-14 0 0 6.77325e-15 1.49158e-14 1.60746e-15 6.33233e-15 0 0 -3.8915e-15 2.45866e-14 1.56086e-15 1.73942e-14 0 0 5.72599e-15 -1.50015e-14 2.68676e-14 -2.57193e-14 0 0 3.90856e-14 -3.27802e-14 3.98202e-14 -1.39503e-14 0 0 2.70698e-14 4.5656e-15 -1.21451e-14 3.64663e-15 0 0 4.68096e-15 2.15959e-14 -1.93257e-14 -1.19073e-14 0 0 9.33788e-15 -1.80328e-14 5.86363e-14 -2.4479e-14 0 0 1.6494e-14 -1.37497e-14 3.45503e-14 -2.32332e-16 0 0 1.31905e-14 2.1085e-14 8.51345e-15 2.86202e-14 0 0 2.1311e-14 7.8934e-15 2.80773e-14 3.9957e-15 0 0 3.6235e-14 6.32484e-15 -1.00915e-15 -2.30594e-15 0 0 -2.0031e-15 3.06166e-14 3.03607e-15 1.03484e-14 0 0 -3.04308e-14 2.44585e-14 1.99452e-14 5.77139e-15 0 0 -2.85396e-14 1.54143e-14 3.11644e-14 -2.30506e-14 0 0 -2.58224e-14 1.43602e-14 2.7641e-14 -1.50833e-15 0 0 -1.94314e-14 5.35553e-15 4.65674e-15 2.12161e-14 0 0 4.45291e-15 -1.64667e-14 -5.11318e-15 9.48786e-15 0 0 8.31431e-15 -2.77928e-14 -2.48035e-14 3.07055e-15 0 0 -2.21028e-14 -1.52818e-14 -3.52876e-14 -2.25804e-14 0 0 -1.1533e-14 -3.25164e-14 -2.50849e-14 -3.75024e-14 0 0 -1.58248e-15 -3.23684e-14 -1.39512e-14 -2.5772e-14 0 0 8.18807e-15 8.25052e-15 7.86936e-16 -3.64175e-15 0 0 2.32345e-14 5.41203e-14 4.28324e-14 2.74855e-14 0 0 5.85632e-14 8.39057e-14 8.08302e-14 6.47625e-14 0 0 7.40652e-14 1.15759e-13 1.11002e-13 6.39251e-14 0 0 6.91141e-14 1.26406e-13 1.27251e-13 6.33078e-14 0 0 7.50554e-14 1.13291e-13 1.11011e-13 8.04322e-14 0 0 5.19064e-14 1.12382e-13 9.5825e-14 6.89679e-14 0 0 2.48903e-14 5.29916e-14 5.41004e-14 2.54053e-14 0 0 5.87018e-15 6.38595e-16 -2.28574e-14 1.86213e-14 0 0 -4.49649e-14 -6.36728e-14 -9.97142e-14 -5.83555e-15 0 0 -3.94681e-14 -9.49857e-14 -8.99507e-14 -3.94543e-14 0 0 -7.21308e-14 -1.24797e-13 -1.23647e-13 -5.86776e-14 0 0 -1.15093e-13 -1.37179e-13 -2.34752e-13 -5.35237e-14 0 0 -1.54454e-13 -1.77717e-13 -2.82811e-13 -5.06695e-14 0 0 -1.46279e-13 -1.65825e-13 -2.49917e-13 -8.46723e-14 0 0 -4.49943e-15 2.62204e-14 -1.52133e-14 -8.55284e-16 0 0 2.33991e-13 3.51647e-13 3.97518e-13 2.04587e-13 0 0 4.5273e-13 7.06369e-13 7.54324e-13 3.93255e-13 0 0 5.62911e-13 9.39115e-13 9.09926e-13 5.65241e-13 0 0 5.61926e-13 9.45259e-13 8.78157e-13 5.67421e-13 0 0 5.02915e-13 8.21172e-13 7.93002e-13 4.35508e-13 0 0 4.33175e-13 7.04867e-13 7.04581e-13 3.37379e-13 0 0 3.43377e-13 6.15647e-13 5.61502e-13 2.80315e-13 0 0 2.86002e-13 5.23343e-13 4.67504e-13 2.45164e-13 0 0 2.19153e-13 4.22115e-13 3.91888e-13 2.24883e-13 0 0 1.46867e-13 3.1699e-13 3.3826e-13 1.67141e-13 0 0 1.27245e-13 2.4059e-13 2.40152e-13 1.7178e-13 0 0 1.07543e-13 1.64657e-13 1.75665e-13 1.63552e-13 0 0 6.3252e-14 1.39166e-13 1.53516e-13 7.70772e-14 0 0 4.34104e-14 9.90188e-14 7.93975e-14 5.92252e-14 0 0 4.61295e-14 1.1248e-14 5.04546e-14 5.34591e-14 0 0 1.8318e-14 1.37987e-14 6.47143e-14 6.07094e-14 0 0 -2.35865e-14 3.77721e-14 4.2275e-14 6.51716e-14 0 0 -4.12318e-14 3.5796e-14 -8.32243e-16 2.89252e-14 0 0 -6.09941e-14 2.02848e-14 -2.36071e-14 6.65113e-15 0 0 -5.51821e-14 -3.96946e-14 -1.41654e-14 -2.98098e-15 0 0 -4.9563e-14 -5.10298e-14 -5.76747e-14 -1.9732e-14 0 0 -6.78941e-14 -2.35689e-14 -1.13018e-13 -5.43117e-14 0 0 -6.86085e-14 -2.08896e-14 -1.13504e-13 -5.18969e-14 0 0 -6.19184e-14 -1.42263e-14 -8.02097e-14 -1.80818e-14 0 0 -1.92367e-14 -3.82777e-14 -7.22164e-14 -5.24178e-14 0 0 1.86395e-14 -5.32623e-14 -6.87517e-14 -8.02901e-14 0 0 1.53991e-14 -2.01999e-14 -3.32231e-14 -2.80115e-14 0 0 2.788e-14 5.67274e-15 -2.05598e-14 -2.95826e-14 0 0 5.15585e-14 5.66997e-15 1.88135e-14 -2.94005e-14 0 0 5.28027e-14 2.43605e-14 4.01073e-14 -6.69538e-14 0 0 3.59724e-14 5.27653e-14 2.48851e-14 -5.61523e-14 0 0 2.92749e-14 6.93403e-14 5.5314e-14 -2.36994e-14 0 0 3.20174e-14 7.44977e-14 8.14523e-14 -1.2783e-14 0 0 6.88682e-14 5.94539e-14 6.57141e-14 2.6305e-14 0 0 1.01165e-13 6.78493e-14 6.11218e-14 2.26618e-14 0 0 8.51174e-14 1.18749e-13 1.48508e-14 7.61941e-14 0 0 1.05667e-13 1.28411e-13 -5.13993e-15 1.12341e-13 0 0 1.36099e-13 1.08958e-13 6.3588e-14 7.46254e-14 0 0 1.24131e-13 1.00287e-13 1.31875e-13 2.94984e-14 0 0 1.23484e-13 1.1321e-13 1.33691e-13 7.56568e-14 0 0 1.62764e-13 1.04291e-13 1.63662e-13 5.28197e-14 0 0 1.62516e-13 8.82437e-14 1.91206e-13 -6.53288e-15 0 0 1.23156e-13 1.04754e-13 2.26414e-13 3.57975e-14 0 0 7.67243e-14 1.40884e-13 1.70557e-13 5.28005e-14 0 0 7.94102e-14 1.57788e-13 1.40723e-13 1.3476e-13 0 0 6.24974e-14 1.97785e-13 1.3602e-13 1.62915e-13 0 0 -7.76415e-15 2.80612e-13 2.78658e-14 1.32443e-13 0 0 4.79966e-14 2.17889e-13 1.36184e-14 1.89739e-13 0 0 1.28248e-13 5.63306e-14 8.52603e-14 2.65101e-13 0 0 1.1072e-13 -6.45272e-15 1.30548e-13 2.30571e-13 0 0 6.37603e-14 4.02997e-14 7.34087e-14 2.44372e-13 0 0 6.61259e-14 3.13413e-14 2.25884e-14 2.17031e-13 0 0 7.33618e-14 3.35175e-14 -2.56716e-15 -9.28987e-15 0 0 2.45239e-14 -4.56417e-14 -5.01287e-14 -1.05262e-13 0 0 -1.24097e-14 -1.09474e-13 -1.05843e-13 -3.29671e-14 0 0 -7.07888e-14 -6.83771e-14 -5.74217e-14 -9.72084e-14 0 0 -6.21477e-14 -1.19385e-13 -3.76724e-14 -1.5268e-13 0 0 -2.63676e-14 -1.33629e-13 -9.78041e-14 -1.42829e-13 0 0 -4.01173e-14 -1.14234e-13 -7.77589e-14 -7.2271e-14 0 0 -4.94139e-14 -1.24079e-13 -4.76574e-14 -4.48777e-14 0 0 -5.95151e-14 -9.54608e-14 -7.24839e-14 -6.73876e-14 0 0 -6.35699e-14 -4.81026e-14 -9.06334e-14 -4.75232e-14 0 0 -7.09685e-14 -5.5801e-14 -5.66955e-14 -5.15034e-14 0 0 -7.34958e-14 -7.57323e-14 -6.24713e-14 -3.81212e-14 0 0 -6.15169e-14 -8.40797e-14 -8.03125e-14 -1.64114e-15 0 0 -5.5321e-14 -9.06694e-14 -8.40191e-14 3.95397e-15 0 0 -6.23677e-14 -9.00371e-14 -7.03386e-14 -2.80932e-14 0 0 -4.98074e-14 -1.19327e-13 -2.21737e-14 -5.44509e-14 0 0 -6.67738e-14 -1.14219e-13 -2.33122e-14 -5.68572e-14 0 0 -8.66871e-14 -7.70714e-14 -5.74021e-14 -2.58461e-14 0 0 -6.80011e-14 -8.0881e-14 -5.44831e-14 -5.48552e-15 0 0 -6.02753e-14 -7.69975e-14 -5.56411e-14 -3.838e-15 0 0 -5.32987e-14 -7.50029e-14 -6.5781e-14 1.87849e-14 0 0 -5.81378e-14 -4.64821e-14 -1.06597e-13 3.50353e-14 0 0 -6.49434e-14 -1.9832e-14 -1.15851e-13 2.16124e-14 0 0 -5.43507e-14 -2.87778e-14 -9.08319e-14 -8.26589e-15 0 0 -2.75632e-14 -5.77895e-14 -6.25975e-14 -2.03875e-14 0 0 -2.78856e-14 -3.83705e-14 -7.89272e-14 -1.09165e-14 0 0 -3.34384e-14 -1.78342e-14 -8.69656e-14 -2.11412e-14 0 0 -4.69304e-14 1.67893e-14 -1.08927e-13 1.04006e-14 0 0 -5.45691e-14 3.2553e-14 -1.1522e-13 3.46805e-14 0 0 -2.41205e-14 -4.28978e-15 -6.39382e-14 5.13826e-15 0 0 -3.9453e-14 1.5074e-14 -4.58728e-14 -5.71446e-15 0 0 -4.38619e-14 3.03885e-14 -5.30021e-14 1.53058e-14 0 0 -4.39191e-14 5.0873e-14 -4.67329e-14 3.24456e-14 0 0 -7.1898e-15 1.59618e-14 -1.74506e-14 1.34108e-14 0 0 4.54873e-14 -5.39862e-14 3.45929e-15 -6.44766e-15 0 0 3.73303e-14 -6.90816e-14 2.51688e-14 3.82234e-14 0 0 2.78894e-14 -4.39533e-14 -2.52416e-14 1.18868e-13 0 0 1.52256e-14 -6.56874e-15 -4.38647e-14 9.84373e-14 0 0 2.03142e-15 -7.76405e-15 1.91269e-15 4.97639e-14 0 0 1.82482e-15 -2.11473e-14 -1.42526e-15 9.36897e-14 0 0 5.16022e-15 -1.89786e-14 -1.34344e-14 1.3353e-13 0
				</DataArray>
				<DataArray Name="VitesseY" type="Float32" format="ascii">