<?xml version="1.0"?>
<VTKFile type="PolyData">
	<PolyData>
		<Piece NumberOfPoints="1206" NumberOfPolys="1000">
			<Points>
				<DataArray type="Float32" NumberOfComponents="3" format="ascii">
 0 0 0 0.02 0 0 0.04 0 0 0.06 0 0 0.08 0 0 0.1 0 0 0 0.005 0 0.02 0.005 0 0.04 0.005 0 0.06 0.005 0 0.08 0.005 0 0.1 0.005 0 0 0.01 0 0.02 0.01 0 0.04 0.01 0 0.06 0.01 0 0.08 0.01 0 0.1 0.01 0 0 0.015 0 0.02 0.015 0 0.04 0.015 0 0.06 0.015 0 0.08 0.015 0 0.1 0.015 0 0 0.02 0 0.02 0.02 0 0.04 0.02 0 0.06 0.02 0 0.08 0.02 0 0.1 0.02 0 0 0.025 0 0.02 0.025 0 0.04 0.025 0 0.06 0.025 0 0.08 0.025 0 0.1 0.025 0 0 0.03 0 0.02 0.03 0 0.04 0.03 0 0.06 0.03 0 0.08 0.03 0 0.1 0.03 0 0 0.035 0 0.02 0.035 0 0.04 0.035 0 0.06 0.035 0 0.08 0.035 0 0.1 0.035 0 0 0.04 0 0.02 0.04 0 0.04 0.04 0 0.06 0.04 0 0.08 0.04 0 0.1 0.04 0 0 0.045 0 0.02 0.045 0 0.04 0.045 0 0.06 0.045 0 0.08 0.045 0 0.1 0.045 0 0 0.05 0 0.02 0.05 0 0.04 0.05 0 0.06 0.05 0 0.08 0.05 0 0.1 0.05 0 0 0.055 0 0.02 0.055 0 0.04 0.055 0 0.06 0.055 0 0.08 0.055 0 0.1 0.055 0 0 0.06 0 0.02 0.06 0 0.04 0.06 0 0.06 0.06 0 0.08 0.06 0 0.1 0.06 0 0 0.065 0 0.02 0.065 0 0.04 0.065 0 0.06 0.065 0 0.08 0.065 0 0.1 0.065 0 0 0.07 0 0.02 0.07 0 0.04 0.07 0 0.06 0.07 0 0.08 0.07 0 0.1 0.07 0 0 0.075 0 0.02 0.075 0 0.04 0.075 0 0.06 0.075 0 0.08 0.075 0 0.1 0.075 0 0 0.08 0 0.02 0.08 0 0.04 0.08 0 0.06 0.08 0 0.08 0.08 0 0.1 0.08 0 0 0.085 0 0.02 0.085 0 0.04 0.085 0 0.06 0.085 0 0.08 0.085 0 0.1 0.085 0 0 0.09 0 0.02 0.09 0 0.04 0.09 0 0.06 0.09 0 0.08 0.09 0 0.1 0.09 0 0 0.095 0 0.02 0.095 0 0.04 0.095 0 0.06 0.095 0 0.08 0.095 0 0.1 0.095 0 0 0.1 0 0.02 0.1 0 0.04 0.1 0 0.06 0.1 0 0.08 0.1 0 0.1 0.1 0 0 0.105 0 0.02 0.105 0 0.04 0.105 0 0.06 0.105 0 0.08 0.105 0 0.1 0.105 0 0 0.11 0 0.02 0.11 0 0.04 0.11 0 0.06 0.11 0 0.08 0.11 0 0.1 0.11 0 0 0.115 0 0.02 0.115 0 0.04 0.115 0 0.06 0.115 0 0.08 0.115 0 0.1 0.115 0 0 0.12 0 0.02 0.12 0 0.04 0.12 0 0.06 0.12 0 0.08 0.12 0 0.1 0.12 0 0 0.125 0 0.02 0.125 0 0.04 0.125 0 0.06 0.125 0 0.08 0.125 0 0.1 0.125 0 0 0.13 0 0.02 0.13 0 0.04 0.13 0 0.06 0.13 0 0.08 0.13 0 0.1 0.13 0 0 0.135 0 0.02 0.135 0 0.04 0.135 0 0.06 0.135 0 0.08 0.135 0 0.1 0.135 0 0 0.14 0 0.02 0.14 0 0.04 0.14 0 0.06 0.14 0 0.08 0.14 0 0.1 0.14 0 0 0.145 0 0.02 0.145 0 0.04 0.145 0 0.06 0.145 0 0.08 0.145 0 0.1 0.145 0 0 0.15 0 0.02 0.15 0 0.04 0.15 0 0.06 0.15 0 0.08 0.15 0 0.1 0.15 0 0 0.155 0 0.02 0.155 0 0.04 0.155 0 0.06 0.155 0 0.08 0.155 0 0.1 0.155 0 0 0.16 0 0.02 0.16 0 0.04 0.16 0 0.06 0.16 0 0.08 0.16 0 0.1 0.16 0 0 0.165 0 0.02 0.165 0 0.04 0.165 0 0.06 0.165 0 0.08 0.165 0 0.1 0.165 0 0 0.17 0 0.02 0.17 0 0.04 0.17 0 0.06 0.17 0 0.08 0.17 0 0.1 0.17 0 0 0.175 0 0.02 0.175 0 0.04 0.175 0 0.06 0.175 0 0.08 0.175 0 0.1 0.175 0 0 0.18 0 0.02 0.18 0 0.04 0.18 0 0.06 0.18 0 0.08 0.18 0 0.1 0.18 0 0 0.185 0 0.02 0.185 0 0.04 0.185 0 0.06 0.185 0 0.08 0.185 0 0.1 0.185 0 0 0.19 0 0.02 0.19 0 0.04 0.19 0 0.06 0.19 0 0.08 0.19 0 0.1 0.19 0 0 0.195 0 0.02 0.195 0 0.04 0.195 0 0.06 0.195 0 0.08 0.195 0 0.1 0.195 0 0 0.2 0 0.02 0.2 0 0.04 0.2 0 0.06 0.2 0 0.08 0.2 0 0.1 0.2 0 0 0.205 0 0.02 0.205 0 0.04 0.205 0 0.06 0.205 0 0.08 0.205 0 0.1 0.205 0 0 0.21 0 0.02 0.21 0 0.04 0.21 0 0.06 0.21 0 0.08 0.21 0 0.1 0.21 0 0 0.215 0 0.02 0.215 0 0.04 0.215 0 0.06 0.215 0 0.08 0.215 0 0.1 0.215 0 0 0.22 0 0.02 0.22 0 0.04 0.22 0 0.06 0.22 0 0.08 0.22 0 0.1 0.22 0 0 0.225 0 0.02 0.225 0 0.04 0.225 0 0.06 0.225 0 0.08 0.225 0 0.1 0.225 0 0 0.23 0 0.02 0.23 0 0.04 0.23 0 0.06 0.23 0 0.08 0.23 0 0.1 0.23 0 0 0.235 0 0.02 0.235 0 0.04 0.235 0 0.06 0.235 0 0.08 0.235 0 0.1 0.235 0 0 0.24 0 0.02 0.24 0 0.04 0.24 0 0.06 0.24 0 0.08 0.24 0 0.1 0.24 0 0 0.245 0 0.02 0.245 0 0.04 0.245 0 0.06 0.245 0 0.08 0.245 0 0.1 0.245 0 0 0.25 0 0.02 0.25 0 0.04 0.25 0 0.06 0.25 0 0.08 0.25 0 0.1 0.25 0 0 0.255 0 0.02 0.255 0 0.04 0.255 0 0.06 0.255 0 0.08 0.255 0 0.1 0.255 0 0 0.26 0 0.02 0.26 0 0.04 0.26 0 0.06 0.26 0 0.08 0.26 0 0.1 0.26 0 0 0.265 0 0.02 0.265 0 0.04 0.265 0 0.06 0.265 0 0.08 0.265 0 0.1 0.265 0 0 0.27 0 0.02 0.27 0 0.04 0.27 0 0.06 0.27 0 0.08 0.27 0 0.1 0.27 0 0 0.275 0 0.02 0.275 0 0.04 0.275 0 0.06 0.275 0 0.08 0.275 0 0.1 0.275 0 0 0.28 0 0.02 0.28 0 0.04 0.28 0 0.06 0.28 0 0.08 0.28 0 0.1 0.28 0 0 0.285 0 0.02 0.285 0 0.04 0.285 0 0.06 0.285 0 0.08 0.285 0 0.1 0.285 0 0 0.29 0 0.02 0.29 0 0.04 0.29 0 0.06 0.29 0 0.08 0.29 0 0.1 0.29 0 0 0.295 0 0.02 0.295 0 0.04 0.295 0 0.06 0.295 0 0.08 0.295 0 0.1 0.295 0 0 0.3 0 0.02 0.3 0 0.04 0.3 0 0.06 0.3 0 0.08 0.3 0 0.1 0.3 0 0 0.305 0 0.02 0.305 0 0.04 0.305 0 0.06 0.305 0 0.08 0.305 0 0.1 0.305 0 0 0.31 0 0.02 0.31 0 0.04 0.31 0 0.06 0.31 0 0.08 0.31 0 0.1 0.31 0 0 0.315 0 0.02 0.315 0 0.04 0.315 0 0.06 0.315 0 0.08 0.315 0 0.1 0.315 0 0 0.32 0 0.02 0.32 0 0.04 0.32 0 0.06 0.32 0 0.08 0.32 0 0.1 0.32 0 0 0.325 0 0.02 0.325 0 0.04 0.325 0 0.06 0.325 0 0.08 0.325 0 0.1 0.325 0 0 0.33 0 0.02 0.33 0 0.04 0.33 0 0.06 0.33 0 0.08 0.33 0 0.1 0.33 0 0 0.335 0 0.02 0.335 0 0.04 0.335 0 0.06 0.335 0 0.08 0.335 0 0.1 0.335 0 0 0.340001 0 0.02 0.340001 0 0.04 0.340001 0 0.06 0.340001 0 0.08 0.340001 0 0.1 0.340001 0 0 0.345004 0 0.02 0.345004 0 0.04 0.345004 0 0.06 0.345004 0 0.08 0.345004 0 0.1 0.345004 0 0 0.350013 0 0.02 0.350013 0 0.04 0.350013 0 0.06 0.350013 0 0.08 0.350013 0 0.1 0.350013 0 0 0.355036 0 0.02 0.355036 0 0.04 0.355036 0 0.06 0.355036 0 0.08 0.355036 0 0.1 0.355036 0 0 0.360091 0 0.02 0.360091 0 0.04 0.360091 0 0.06 0.360091 0 0.08 0.360091 0 0.1 0.360091 0 0 0.365203 0 0.02 0.365203 0 0.04 0.365203 0 0.06 0.365203 0 0.08 0.365203 0 0.1 0.365203 0 0 0.370403 0 0.02 0.370403 0 0.04 0.370403 0 0.06 0.370403 0 0.08 0.370403 0 0.1 0.370403 0 0 0.375724 0 0.02 0.375724 0 0.04 0.375724 0 0.06 0.375724 0 0.08 0.375724 0 0.1 0.375724 0 0 0.381191 0 0.02 0.381191 0 0.04 0.381191 0 0.06 0.381191 0 0.08 0.381191 0 0.1 0.381191 0 0 0.38683 0 0.02 0.38683 0 0.04 0.38683 0 0.06 0.38683 0 0.08 0.38683 0 0.1 0.38683 0 0 0.392659 0 0.02 0.392659 0 0.04 0.392659 0 0.06 0.392659 0 0.08 0.392659 0 0.1 0.392659 0 0 0.398699 0 0.02 0.398699 0 0.04 0.398699 0 0.06 0.398699 0 0.08 0.398699 0 0.1 0.398699 0 0 0.40497 0 0.02 0.40497 0 0.04 0.40497 0 0.06 0.40497 0 0.08 0.40497 0 0.1 0.40497 0 0 0.411496 0 0.02 0.411496 0 0.04 0.411496 0 0.06 0.411496 0 0.08 0.411496 0 0.1 0.411496 0 0 0.418301 0 0.02 0.418301 0 0.04 0.418301 0 0.06 0.418301 0 0.08 0.418301 0 0.1 0.418301 0 0 0.425414 0 0.02 0.425414 0 0.04 0.425414 0 0.06 0.425414 0 0.08 0.425414 0 0.1 0.425414 0 0 0.432869 0 0.02 0.432869 0 0.04 0.432869 0 0.06 0.432869 0 0.08 0.432869 0 0.1 0.432869 0 0 0.440703 0 0.02 0.440703 0 0.04 0.440703 0 0.06 0.440703 0 0.08 0.440703 0 0.1 0.440703 0 0 0.448961 0 0.02 0.448961 0 0.04 0.448961 0 0.06 0.448961 0 0.08 0.448961 0 0.1 0.448961 0 0 0.457695 0 0.02 0.457695 0 0.04 0.457695 0 0.06 0.457695 0 0.08 0.457695 0 0.1 0.457695 0 0 0.466966 0 0.02 0.466966 0 0.04 0.466966 0 0.06 0.466966 0 0.08 0.466966 0 0.1 0.466966 0 0 0.476844 0 0.02 0.476844 0 0.04 0.476844 0 0.06 0.476844 0 0.08 0.476844 0 0.1 0.476844 0 0 0.487401 0 0.02 0.487401 0 0.04 0.487401 0 0.06 0.487401 0 0.08 0.487401 0 0.1 0.487401 0 0 0.498702 0 0.02 0.498702 0 0.04 0.498702 0 0.06 0.498702 0 0.08 0.498702 0 0.1 0.498702 0 0 0.510729 0 0.02 0.510729 0 0.04 0.510729 0 0.06 0.510729 0 0.08 0.510729 0 0.1 0.510729 0 0 0.523169 0 0.02 0.523169 0 0.04 0.523169 0 0.06 0.523169 0 0.08 0.523169 0 0.1 0.523169 0 0 0.535493 0 0.02 0.535493 0 0.04 0.535493 0 0.06 0.535493 0 0.08 0.535493 0 0.1 0.535493 0 0 0.547634 0 0.02 0.547634 0 0.04 0.547634 0 0.06 0.547634 0 0.08 0.547634 0 0.1 0.547634 0 0 0.559617 0 0.02 0.559617 0 0.04 0.559617 0 0.06 0.559617 0 0.08 0.559617 0 0.1 0.559617 0 0 0.571503 0 0.02 0.571503 0 0.04 0.571503 0 0.06 0.571503 0 0.08 0.571503 0 0.1 0.571503 0 0 0.583346 0 0.02 0.583346 0 0.04 0.583346 0 0.06 0.583346 0 0.08 0.583346 0 0.1 0.583346 0 0 0.595173 0 0.02 0.595173 0 0.04 0.595173 0 0.06 0.595173 0 0.08 0.595173 0 0.1 0.595173 0 0 0.606993 0 0.02 0.606993 0 0.04 0.606993 0 0.06 0.606993 0 0.08 0.606993 0 0.1 0.606993 0 0 0.609273 0 0.02 0.609273 0 0.04 0.609273 0 0.06 0.609273 0 0.08 0.609273 0 0.1 0.609273 0 0 0.611552 0 0.02 0.611552 0 0.04 0.611552 0 0.06 0.611552 0 0.08 0.611552 0 0.1 0.611552 0 0 0.613832 0 0.02 0.613832 0 0.04 0.613832 0 0.06 0.613832 0 0.08 0.613832 0 0.1 0.613832 0 0 0.616113 0 0.02 0.616113 0 0.04 0.616113 0 0.06 0.616113 0 0.08 0.616113 0 0.1 0.616113 0 0 0.618395 0 0.02 0.618395 0 0.04 0.618395 0 0.06 0.618395 0 0.08 0.618395 0 0.1 0.618395 0 0 0.620678 0 0.02 0.620678 0 0.04 0.620678 0 0.06 0.620678 0 0.08 0.620678 0 0.1 0.620678 0 0 0.622958 0 0.02 0.622958 0 0.04 0.622958 0 0.06 0.622958 0 0.08 0.622958 0 0.1 0.622958 0 0 0.625239 0 0.02 0.625239 0 0.04 0.625239 0 0.06 0.625239 0 0.08 0.625239 0 0.1 0.625239 0 0 0.627521 0 0.02 0.627521 0 0.04 0.627521 0 0.06 0.627521 0 0.08 0.627521 0 0.1 0.627521 0 0 0.629801 0 0.02 0.629801 0 0.04 0.629801 0 0.06 0.629801 0 0.08 0.629801 0 0.1 0.629801 0 0 0.63208 0 0.02 0.63208 0 0.04 0.63208 0 0.06 0.63208 0 0.08 0.63208 0 0.1 0.63208 0 0 0.634362 0 0.02 0.634362 0 0.04 0.634362 0 0.06 0.634362 0 0.08 0.634362 0 0.1 0.634362 0 0 0.636643 0 0.02 0.636643 0 0.04 0.636643 0 0.06 0.636643 0 0.08 0.636643 0 0.1 0.636643 0 0 0.638923 0 0.02 0.638923 0 0.04 0.638923 0 0.06 0.638923 0 0.08 0.638923 0 0.1 0.638923 0 0 0.6412 0 0.02 0.6412 0 0.04 0.6412 0 0.06 0.6412 0 0.08 0.6412 0 0.1 0.6412 0 0 0.643479 0 0.02 0.643479 0 0.04 0.643479 0 0.06 0.643479 0 0.08 0.643479 0 0.1 0.643479 0 0 0.645759 0 0.02 0.645759 0 0.04 0.645759 0 0.06 0.645759 0 0.08 0.645759 0 0.1 0.645759 0 0 0.64804 0 0.02 0.64804 0 0.04 0.64804 0 0.06 0.64804 0 0.08 0.64804 0 0.1 0.64804 0 0 0.650323 0 0.02 0.650323 0 0.04 0.650323 0 0.06 0.650323 0 0.08 0.650323 0 0.1 0.650323 0 0 0.652603 0 0.02 0.652603 0 0.04 0.652603 0 0.06 0.652603 0 0.08 0.652603 0 0.1 0.652603 0 0 0.654885 0 0.02 0.654885 0 0.04 0.654885 0 0.06 0.654885 0 0.08 0.654885 0 0.1 0.654885 0 0 0.657169 0 0.02 0.657169 0 0.04 0.657169 0 0.06 0.657169 0 0.08 0.657169 0 0.1 
[...]
			<PointData Scalars="VitesseX">
				<DataArray Name="VitesseX" type="Float32" format="ascii">
 0 -1.76729e-15 2.32126e-16 4.76859e-15 1.22132e-14 0 0 -1.99852e-15 2.94033e-16 4.80405e-15 1.19226e-14 0 0 -1.91662e-15 1.87325e-16 4.69691e-15 1.16876e-14 0 0 -1.44503e-15 -1.92083e-16 4.56977e-15 1.10153e-14 0 0 4.23238e-17 -1.9258e-15 5.13998e-15 9.1243e-15 0 0 1.34576e-15 -2.66319e-15 5.20737e-15 7.56451e-15 0 0 1.64491e-15 -1.99185e-16 1.96385e-15 8.47556e-15 0 0 -4.15324e-17 2.83987e-15 -1.32725e-15 1.01816e-14 0 0 -1.88967e-15 2.26113e-15 1.87656e-15 7.9182e-15 0 0 -2.22578e-15 3.9812e-15 2.41463e-15 4.84444e-15 0 0 -1.04889e-15 6.71458e-15 -1.30731e-15 5.93996e-15 0 0 2.542e-15 3.84393e-15 3.0193e-16 5.63799e-15 0 0 3.16338e-15 1.12164e-15 5.81412e-15 -5.01597e-16 0 0 2.16825e-15 1.77958e-15 6.48776e-15 -3.89068e-15 0 0 -4.95844e-16 4.60165e-15 4.35225e-15 -4.89321e-15 0 0 -1.75419e-15 3.89087e-15 1.26877e-15 -2.05941e-15 0 0 2.5752e-15 -2.05856e-15 1.39558e-15 3.5207e-15 0 0 1.15581e-15 2.04141e-15 -2.61795e-15 8.38984e-15 0 0 -1.32388e-15 4.09685e-15 -1.45566e-15 6.56544e-15 0 0 1.95605e-15 -5.34974e-15 6.60008e-15 2.60495e-15 0 0 6.60214e-16 -6.30974e-15 5.77783e-15 4.54415e-15 0 0 -3.77541e-15 6.84917e-17 2.1363e-15 9.60491e-15 0 0 -2.45046e-15 9.1063e-16 1.39091e-15 1.05821e-14 0 0 1.2803e-15 -2.65001e-15 4.0832e-15 4.18274e-15 0 0 -1.05027e-15 4.01665e-16 8.09484e-16 3.64615e-15 0 0 1.30514e-15 -2.33204e-15 6.99821e-15 -4.42917e-15 0 0 8.93342e-15 -7.79509e-15 1.06401e-14 -9.19365e-15 0 0 8.48969e-15 -7.06678e-15 1.23007e-14 -1.06175e-14 0 0 4.69334e-15 6.97369e-17 5.67735e-15 -5.04e-16 0 0 3.51303e-15 6.0285e-15 -2.98018e-15 8.4698e-15 0 0 1.49063e-15 8.71793e-15 -4.45981e-15 5.7415e-15 0 0 3.47846e-16 8.08391e-15 -5.19775e-15 9.16877e-15 0 0 -3.0367e-15 4.68416e-15 7.1233e-16 9.44109e-16 0 0 -3.53692e-15 3.2131e-15 6.3001e-15 -1.19066e-14 0 0 -1.21529e-15 -6.87573e-16 8.62028e-15 -1.48664e-14 0 0 -5.53021e-15 -3.08003e-15 3.35253e-15 -8.24423e-15 0 0 -2.9191e-15 -1.25377e-14 1.23021e-15 -2.10988e-15 0 0 -2.3774e-15 -8.76897e-15 -4.59027e-15 5.71722e-16 0 0 -1.43962e-15 -3.46817e-15 -3.48019e-16 -4.90556e-15 0 0 1.16879e-15 -1.32981e-14 1.51792e-14 -1.22505e-14 0 0 -8.94271e-15 -5.43966e-15 7.76407e-15 -3.82287e-15 0 0 -1.54854e-14 2.74957e-15 5.88764e-15 4.79776e-15 0 0 -1.15779e-14 2.88913e-15 4.45704e-15 1.40914e-14 0 0 -2.15787e-15 -7.1936e-15 3.12135e-15 1.77634e-14 0 0 -3.25939e-15 -8.74084e-15 9.37624e-15 6.60992e-15 0 0 -1.39711e-14 9.43838e-15 -7.01673e-18 -8.30781e-15 0 0 -1.48168e-14 5.28174e-15 6.85257e-15 -2.54915e-14 0 0 -1.05925e-14 4.98776e-15 3.96661e-15 -1.57267e-14 0 0 -8.22958e-15 1.37803e-14 -1.48586e-14 1.14992e-14 0 0 -8.03907e-15 1.54133e-14 -2.02779e-14 2.56274e-14 0 0 -5.02337e-16 1.47945e-14 -1.68162e-14 2.25865e-14 0 0 2.00363e-14 6.76468e-15 -1.33589e-14 1.00723e-14 0 0 2.51072e-14 2.28547e-15 -1.76301e-14 1.38102e-14 0 0 1.28788e-14 3.17933e-15 -4.87759e-15 1.28719e-14 0 0 8.48747e-15 9.26965e-15 5.37419e-15 2.66705e-15 0 0 6.86022e-15 1.55981e-14 -9.42713e-16 -9.1806e-15 0 0 -3.29034e-15 2.03396e-14 1.277e-14 -3.44648e-14 0 0 3.40806e-15 -7.47128e-16 2.25385e-14 -2.41547e-14 0 0 1.62571e-14 -2.98393e-14 3.20307e-14 8.97197e-15 0 0 3.52202e-15 -1.48023e-14 2.72533e-14 4.37972e-14 0 0 -1.32482e-14 -1.4015e-14 9.92163e-15 5.4358e-14 0 0 -3.59075e-14 -1.87679e-14 4.50075e-15 3.46641e-14 0 0 -4.76239e-14 -4.84463e-15 -2.57535e-14 2.1824e-14 0 0 -5.08106e-15 7.94277e-16 -6.35936e-14 8.50959e-15 0 0 2.32583e-14 1.23578e-14 -6.36707e-14 -1.30102e-14 0 0 1.52798e-14 8.94478e-15 -5.80024e-14 -9.48587e-15 0 0 -1.39111e-14 2.98436e-15 -5.55468e-14 1.46783e-14 0 0 -2.53463e-14 -1.63426e-14 -2.83446e-14 2.04511e-14 0 0 -1.85604e-14 -2.94577e-14 -8.07008e-15 -6.12885e-15 0 0 -2.44986e-15 -1.8696e-14 -9.7504e-15 -2.51358e-14 0 0 3.88717e-14 -3.39469e-14 -1.38408e-14 -3.29689e-15 0 0 1.80428e-14 -5.46367e-14 5.07709e-15 -5.86398e-15 0 0 -2.49651e-15 -5.15982e-14 5.43561e-15 -2.52265e-14 0 0 -2.07584e-14 4.54773e-15 -3.49223e-14 -9.72534e-15 0 0 -2.88068e-14 1.94816e-15 -6.70614e-15 -2.36033e-14 0 0 7.16201e-15 -2.04446e-14 -4.12928e-15 -7.34754e-15 0 0 1.81548e-14 -1.46124e-14 -3.28703e-14 1.01167e-14 0 0 2.67396e-14 -2.38628e-14 -1.24575e-14 -1.12999e-14 0 0 6.18934e-15 -1.26522e-14 -2.29793e-14 1.01088e-14 0 0 -1.1249e-14 -7.59372e-15 -3.61602e-14 1.04465e-14 0 0 -1.12958e-14 -2.76086e-15 -1.24813e-14 -1.3287e-14 0 0 -1.78851e-14 3.23745e-15 3.63294e-15 5.53228e-16 0 0 -4.58502e-15 1.57132e-14 -8.90819e-15 6.80288e-15 0 0 -6.69436e-15 1.48019e-14 -8.20598e-15 -3.95814e-14 0 0 -1.12121e-14 -1.97592e-14 2.92376e-15 -5.42133e-14 0 0 -5.36685e-14 -1.04709e-14 1.03259e-14 -2.65113e-14 0 0 -3.22856e-14 -1.39106e-14 -4.32314e-16 1.84351e-15 0 0 1.52484e-14 -3.50979e-14 -1.54957e-14 3.27574e-14 0 0 -3.48268e-15 -1.12073e-14 -5.12514e-15 1.24648e-14 0 0 -8.28817e-15 -9.34287e-15 4.15369e-15 -1.23078e-14 0 0 -1.34726e-14 -7.56674e-15 -2.38764e-15 2.23021e-15 0 0 -1.10939e-14 -7.64998e-15 4.58072e-15 1.55228e-14 0 0 -2.95484e-15 2.13553e-14 9.17001e-15 6.20925e-15 0 0 -2.54493e-15 9.64138e-16 -1.36733e-14 -1.91311e-14 0 0 -3.56323e-14 -9.1976e-14 -5.95791e-14 -3.96185e-14 0 0 -9.77155e-14 -1.58543e-13 -1.43268e-13 -8.41255e-14 0 0 -1.49292e-13 -2.24171e-13 -2.43294e-13 -1.41503e-13 0 0 -1.63228e-13 -2.6112e-13 -2.79575e-13 -1.60357e-13 0 0 -1.42385e-13 -2.28387e-13 -2.39718e-13 -1.37716e-13 0 0 -1.10654e-13 -1.811e-13 -1.813e-13 -1.073e-13 0 0 -9.61601e-14 -1.70266e-13 -1.8931e-13 -8.57417e-14 0 0 -1.72598e-13 -1.93516e-13 -2.68134e-13 -1.26353e-13 0 0 -1.9318e-13 -2.11792e-13 -2.5468e-13 -1.09195e-13 0 0 -1.91061e-13 -2.64125e-13 -2.70782e-13 -1.25716e-13 0 0 -1.84796e-13 -3.08598e-13 -2.88239e-13 -1.7634e-13 0 0 -2.01896e-13 -3.43023e-13 -2.75527e-13 -2.10063e-13 0 0 -1.99123e-13 -3.43568e-13 -2.31431e-13 -1.61087e-13 0 0 -6.06466e-14 -1.56418e-13 -2.02032e-14 -7.15492e-14 0 0 1.77802e-13 2.15652e-13 3.13535e-13 1.48816e-13 0 0 3.90525e-13 5.95432e-13 6.2807e-13 4.55956e-13 0 0 4.75876e-13 8.20463e-13 7.94386e-13 5.43964e-13 0 0 4.5445e-13 8.40795e-13 7.61721e-13 5.33075e-13 0 0 3.83247e-13 7.39273e-13 6.45079e-13 4.75091e-13 0 0 3.10424e-13 5.85038e-13 5.74362e-13 3.58379e-13 0 0 2.42066e-13 4.36867e-13 5.15261e-13 2.40395e-13 0 0 1.82329e-13 3.1869e-13 3.64168e-13 2.00809e-13 0 0 1.21084e-13 2.45109e-13 2.33046e-13 1.42248e-13 0 0 7.16129e-14 1.66597e-13 1.6915e-13 7.15694e-14 0 0 1.64942e-14 1.24663e-13 5.5992e-14 6.97127e-14 0 0 -4.27853e-14 5.23554e-14 -2.41444e-14 7.47937e-14 0 0 -7.59437e-14 -5.37211e-14 -3.87348e-14 -1.22672e-14 0 0 -8.29063e-14 -1.49031e-13 -1.03884e-13 -1.14862e-13 0 0 -1.03075e-13 -2.03408e-13 -1.94335e-13 -8.72428e-14 0 0 -1.31918e-13 -2.50463e-13 -2.44178e-13 -1.01655e-13 0 0 -1.74443e-13 -2.88096e-13 -2.82527e-13 -1.82373e-13 0 0 -2.21854e-13 -3.08583e-13 -3.47417e-13 -1.89133e-13 0 0 -2.70215e-13 -3.12278e-13 -4.21031e-13 -2.13395e-13 0 0 -2.73936e-13 -3.69816e-13 -4.02949e-13 -3.22451e-13 0 0 -2.62329e-13 -4.5911e-13 -4.55068e-13 -2.9638e-13 0 0 -3.00445e-13 -4.77225e-13 -5.34159e-13 -2.9587e-13 0 0 -3.2395e-13 -4.94104e-13 -5.56562e-13 -3.39404e-13 0 0 -3.43992e-13 -5.51286e-13 -5.1018e-13 -4.15881e-13 0 0 -3.2508e-13 -5.91727e-13 -4.44475e-13 -5.05231e-13 0 0 -3.08998e-13 -5.86469e-13 -5.36779e-13 -4.15363e-13 0 0 -3.16013e-13 -5.18919e-13 -5.43255e-13 -3.23509e-13 0 0 -2.82178e-13 -4.42856e-13 -4.17995e-13 -2.93927e-13 0 0 -2.53207e-13 -4.46709e-13 -3.71266e-13 -2.34703e-13 0 0 -2.50531e-13 -3.82583e-13 -3.26575e-13 -2.46284e-13 0 0 -2.14319e-13 -2.88273e-13 -3.04667e-13 -2.00125e-13 0 0 -1.60936e-13 -2.40974e-13 -2.52527e-13 -5.60508e-14 0 0 -1.15382e-13 -1.62325e-13 -1.86936e-13 -1.07586e-13 0 0 -7.7192e-14 -9.58888e-14 -1.46773e-13 -1.46533e-13 0 0 -5.64468e-14 -6.27701e-14 -9.65705e-14 -3.46906e-14 0 0 -1.53667e-14 -4.42294e-14 -1.00898e-13 6.71883e-15 0 0 1.15287e-14 -4.57564e-14 -5.0635e-14 -3.525e-14 0 0 2.06708e-15 -4.01878e-14 -8.84502e-15 -5.15216e-14 0 0 -7.29544e-15 -2.04467e-14 -2.25509e-14 -3.35099e-14 0 0 -1.76356e-15 -2.08433e-14 -3.51968e-14 -2.11812e-14 0 0 -1.04437e-14 -8.65872e-15 -6.82419e-14 -2.153e-14 0 0 -1.2797e-14 -2.29631e-14 -5.98677e-14 -3.26277e-14 0 0 -1.27248e-14 -3.75803e-14 -3.97685e-14 -3.91638e-14 0 0 -1.59967e-14 -1.66547e-14 -6.72398e-14 -1.90397e-14 0 0 -5.05774e-15 -1.14798e-14 -8.62499e-14 1.78898e-15 0 0 -5.44426e-15 -2.59368e-14 -6.02841e-14 -1.27393e-14 0 0 -5.49117e-15 -5.55343e-14 -1.74973e-14 -2.13226e-14 0 0 -2.02975e-14 -4.81553e-14 6.17062e-15 -2.05419e-14 0 0 -2.41331e-14 -2.2592e-14 -1.5853e-14 -4.32951e-15 0 0 -1.69544e-14 -8.83527e-15 -4.70194e-14 3.03554e-14 0 0 -9.81694e-15 -1.93912e-14 -4.95844e-14 6.49343e-14 0 0 5.69957e-15 -4.69595e-14 -3.43878e-14 8.47003e-14 0 0 -1.61711e-14 -2.11377e-14 -9.50048e-15 1.85298e-14 0 0 -2.83496e-14 8.63711e-15 -1.39528e-14 -4.74344e-15 0 0 -2.20205e-14 7.48536e-15 4.84306e-15 2.2898e-14 0 0 -6.86512e-16 1.31445e-14 3.61897e-14 -2.04807e-14 0 0 -1.1046e-14 8.28865e-14 -1.17319e-14 1.95754e-14 0 0 -1.65656e-15 1.20308e-13 -4.94241e-14 6.4457e-14 0 0 2.62611e-14 9.00366e-14 1.65899e-16 7.78005e-14 0 0 -1.07736e-14 1.20553e-13 1.42263e-15 9.56716e-14 0 0 8.13575e-15 1.13746e-13 -2.23233e-14 5.33497e-14 0 0 2.63212e-14 8.11692e-14 -4.60833e-15 2.73281e-14 0 0 -1.44027e-15 8.59668e-14 -1.44029e-14 2.24983e-14 0 0 -1.29983e-14 6.94753e-14 -4.04134e-15 1.00578e-15 0 0 -7.64586e-15 1.53914e-14 2.98015e-14 -1.07067e-15 0 0 -2.33799e-14 -7.8754e-16 5.15383e-14 -1.4319e-14 0 0 -2.90991e-14 2.49448e-14 3.32875e-14 1.77638e-14 0 0 -1.20672e-14 3.60277e-14 -3.44723e-15 8.32621e-14 0 0 -2.05694e-15 2.57521e-15 -1.00632e-15 1.17814e-13 0 0 1.59008e-14 -1.5186e-14 -1.90553e-14 1.35213e-13 0 0 3.54958e-14 1.30785e-14 -7.57427e-14 1.01691e-13 0 0 1.79859e-14 2.54753e-15 -4.75357e-14 -4.04647e-15 0 0 -1.38366e-14 -2.11207e-14 5.39649e-14 -1.24744e-13 0 0 -2.60396e-14 -8.06565e-15 5.38756e-14 -1.16465e-13 0 0 -5.85528e-15 2.59654e-14 -3.81403e-14 -1.85871e-14 0 0 1.47432e-14 4.31275e-14 -2.4806e-14 -3.66511e-14 0 0 1.04547e-14 9.78184e-15 7.50173e-14 -7.11905e-14 0 0 3.77136e-14 -2.11597e-14 8.21407e-14 -3.15766e-14 0 0 2.0182e-14 3.33141e-14 4.13561e-14 -4.92892e-14 0 0 3.69212e-15 4.33295e-14 2.41271e-14 -5.69571e-15 0 0 7.35702e-15 7.72369e-16 2.22852e-14 2.54242e-14 0 0 -1.50026e-14 1.64133e-14 1.88582e-14 -3.56417e-14 0 0 2.46603e-14 -2.89236e-14 5.43828e-14 -4.63655e-14 0 0 2.79373e-14 -4.52926e-15 1.03407e-14 1.21153e-14 0 0 2.59761e-14 -3.27129e-15 4.51498e-14 -5.30921e-15 0 0 1.73702e-14 -2.47496e-14 9.4352e-14 -2.9501e-14 0 0 -2.50185e-14 2.16071e-14 1.85358e-14 3.98437e-14 0 0 -1.73606e-14 1.76546e-14 -1.73687e-14 6.20548e-14 0 0 4.79603e-14 -5.22992e-14 2.60993e-14 2.22837e-14 0 0 7.54367e-14 -8.96536e-14 6.28766e-14 2.91832e-14 0 0 1.30047e-14 4.51458e-15 -1.7759e-14 8.29071e-14 0 0 -2.01507e-14 4.02518e-14 -3.99844e-14 1.15416e-13 0 0 -2.58046e-14 3.24437e-14 -1.85372e-14 1.28133e-13 0
				</DataArray>
				<DataArray Name="VitesseY" type="Float32" format="ascii">