<?xml version="1.0"?>
<VTKFile type="PolyData">
	<PolyData>
		<Piece NumberOfPoints="1206" NumberOfPolys="1000">
			<Points>
				<DataArray type="Float32" NumberOfComponents="3" format="ascii">
 0 0 0 0.005 0 0 0.01 0 0 0.015 0 0 0.02 0 0 0.025 0 0 0.03 0 0 0.035 0 0 0.04 0 0 0.045 0 0 0.05 0 0 0.055 0 0 0.06 0 0 0.065 0 0 0.07 0 0 0.075 0 0 0.08 0 0 0.085 0 0 0.09 0 0 0.095 0 0 0.1 0 0 0.105 0 0 0.11 0 0 0.115 0 0 0.12 0 0 0.125 0 0 0.13 0 0 0.135 0 0 0.14 0 0 0.145 0 0 0.15 0 0 0.155 0 0 0.16 0 0 0.165 0 0 0.17 0 0 0.175 0 0 0.18 0 0 0.185 0 0 0.19 0 0 0.195 0 0 0.2 0 0 0.205 0 0 0.21 0 0 0.215 0 0 0.22 0 0 0.225 0 0 0.23 0 0 0.235 0 0 0.24 0 0 0.245 0 0 0.25 0 0 0.255 0 0 0.26 0 0 0.265 0 0 0.27 0 0 0.275 0 0 0.28 0 0 0.285 0 0 0.29 0 0 0.295 0 0 0.3 0 0 0.305 0 0 0.31 0 0 0.315 0 0 0.32 0 0 0.325 0 0 0.33 0 0 0.335 0 0 0.34 0 0 0.345 0 0 0.35 0 0 0.355 0 0 0.36 0 0 0.365 0 0 0.37 0 0 0.375 0 0 0.38 0 0 0.385 0 0 0.39 0 0 0.395 0 0 0.4 0 0 0.405 0 0 0.41 0 0 0.415 0 0 0.42 0 0 0.425 0 0 0.43 0 0 0.435 0 0 0.44 0 0 0.445 0 0 0.45 0 0 0.455 0 0 0.46 0 0 0.465 0 0 0.47 0 0 0.475 0 0 0.48 0 0 0.485 0 0 0.49 0 0 0.495 0 0 0.5 0 0 0.505 0 0 0.51 0 0 0.515 0 0 0.52 0 0 0.525 0 0 0.53 0 0 0.535 0 0 0.54 0 0 0.545 0 0 0.55 0 0 0.555 0 0 0.56 0 0 0.565 0 0 0.57 0 0 0.575 0 0 0.58 0 0 0.585 0 0 0.59 0 0 0.595 0 0 0.6 0 0 0.605 0 0 0.61 0 0 0.615 0 0 0.62 0 0 0.625 0 0 0.63 0 0 0.635 0 0 0.64 0 0 0.645 0 0 0.65 0 0 0.655 0 0 0.66 0 0 0.665 0 0 0.67 0 0 0.675 0 0 0.68 0 0 0.685 0 0 0.69 0 0 0.695 0 0 0.7 0 0 0.705 0 0 0.71 0 0 0.715 0 0 0.72 0 0 0.725 0 0 0.73 0 0 0.735 0 0 0.74 0 0 0.745 0 0 0.75 0 0 0.755 0 0 0.76 0 0 0.765 0 0 0.77 0 0 0.775 0 0 0.78 0 0 0.785 0 0 0.79 0 0 0.795 0 0 0.8 0 0 0.805 0 0 0.81 0 0 0.815 0 0 0.82 0 0 0.825 0 0 0.83 0 0 0.835 0 0 0.84 0 0 0.845 0 0 0.85 0 0 0.855 0 0 0.86 0 0 0.865 0 0 0.87 0 0 0.875 0 0 0.88 0 0 0.885 0 0 0.89 0 0 0.895 0 0 0.9 0 0 0.905 0 0 0.91 0 0 0.915 0 0 0.92 0 0 0.925 0 0 0.93 0 0 0.935 0 0 0.94 0 0 0.945 0 0 0.95 0 0 0.955 0 0 0.96 0 0 0.965 0 0 0.97 0 0 0.975 0 0 0.98 0 0 0.985 0 0 0.99 0 0 0.995 0 0 1 0 0 0 0.02 0 0.005 0.02 0 0.01 0.02 0 0.015 0.02 0 0.02 0.02 0 0.025 0.02 0 0.03 0.02 0 0.035 0.02 0 0.04 0.02 0 0.045 0.02 0 0.05 0.02 0 0.055 0.02 0 0.06 0.02 0 0.065 0.02 0 0.07 0.02 0 0.075 0.02 0 0.08 0.02 0 0.085 0.02 0 0.09 0.02 0 0.095 0.02 0 0.1 0.02 0 0.105 0.02 0 0.11 0.02 0 0.115 0.02 0 0.12 0.02 0 0.125 0.02 0 0.13 0.02 0 0.135 0.02 0 0.14 0.02 0 0.145 0.02 0 0.15 0.02 0 0.155 0.02 0 0.16 0.02 0 0.165 0.02 0 0.17 0.02 0 0.175 0.02 0 0.18 0.02 0 0.185 0.02 0 0.19 0.02 0 0.195 0.02 0 0.2 0.02 0 0.205 0.02 0 0.21 0.02 0 0.215 0.02 0 0.22 0.02 0 0.225 0.02 0 0.23 0.02 0 0.235 0.02 0 0.24 0.02 0 0.245 0.02 0 0.25 0.02 0 0.255 0.02 0 0.26 0.02 0 0.265 0.02 0 0.27 0.02 0 0.275 0.02 0 0.28 0.02 0 0.285 0.02 0 0.29 0.02 0 0.295 0.02 0 0.3 0.02 0 0.305 0.02 0 0.31 0.02 0 0.315 0.02 0 0.32 0.02 0 0.325 0.02 0 0.33 0.02 0 0.335 0.02 0 0.34 0.02 0 0.345 0.02 0 0.35 0.02 0 0.355 0.02 0 0.36 0.02 0 0.365 0.02 0 0.37 0.02 0 0.375 0.02 0 0.38 0.02 0 0.385 0.02 0 0.39 0.02 0 0.395 0.02 0 0.4 0.02 0 0.405 0.02 0 0.41 0.02 0 0.415 0.02 0 0.42 0.02 0 0.425 0.02 0 0.43 0.02 0 0.435 0.02 0 0.44 0.02 0 0.445 0.02 0 0.45 0.02 0 0.455 0.02 0 0.46 0.02 0 0.465 0.02 0 0.47 0.02 0 0.475 0.02 0 0.48 0.02 0 0.485 0.02 0 0.49 0.02 0 0.495 0.02 0 0.5 0.02 0 0.505 0.02 0 0.51 0.02 0 0.515 0.02 0 0.52 0.02 0 0.525 0.02 0 0.53 0.02 0 0.535 0.02 0 0.54 0.02 0 0.545 0.02 0 0.55 0.02 0 0.555 0.02 0 0.56 0.02 0 0.565 0.02 0 0.57 0.02 0 0.575 0.02 0 0.58 0.02 0 0.585 0.02 0 0.59 0.02 0 0.595 0.02 0 0.6 0.02 0 0.605 0.02 0 0.61 0.02 0 0.615 0.02 0 0.62 0.02 0 0.625 0.02 0 0.63 0.02 0 0.635 0.02 0 0.64 0.02 0 0.645 0.02 0 0.65 0.02 0 0.655 0.02 0 0.66 0.02 0 0.665 0.02 0 0.67 0.02 0 0.675 0.02 0 0.68 0.02 0 0.685 0.02 0 0.69 0.02 0 0.695 0.02 0 0.7 0.02 0 0.705 0.02 0 0.71 0.02 0 0.715 0.02 0 0.72 0.02 0 0.725 0.02 0 0.73 0.02 0 0.735 0.02 0 0.74 0.02 0 0.745 0.02 0 0.75 0.02 0 0.755 0.02 0 0.76 0.02 0 0.765 0.02 0 0.77 0.02 0 0.775 0.02 0 0.78 0.02 0 0.785 0.02 0 0.79 0.02 0 0.795 0.02 0 0.8 0.02 0 0.805 0.02 0 0.81 0.02 0 0.815 0.02 0 0.82 0.02 0 0.825 0.02 0 0.83 0.02 0 0.835 0.02 0 0.84 0.02 0 0.845 0.02 0 0.85 0.02 0 0.855 0.02 0 0.86 0.02 0 0.865 0.02 0 0.87 0.02 0 0.875 0.02 0 0.88 0.02 0 0.885 0.02 0 0.89 0.02 0 0.895 0.02 0 0.9 0.02 0 0.905 0.02 0 0.91 0.02 0 0.915 0.02 0 0.92 0.02 0 0.925 0.02 0 0.93 0.02 0 0.935 0.02 0 0.94 0.02 0 0.945 0.02 0 0.95 0.02 0 0.955 0.02 0 0.96 0.02 0 0.965 0.02 0 0.97 0.02 0 0.975 0.02 0 0.98 0.02 0 0.985 0.02 0 0.99 0.02 0 0.995 0.02 0 1 0.02 0 0 0.04 0 0.005 0.04 0 0.01 0.04 0 0.015 0.04 0 0.02 0.04 0 0.025 0.04 0 0.03 0.04 0 0.035 0.04 0 0.04 0.04 0 0.045 0.04 0 0.05 0.04 0 0.055 0.04 0 0.06 0.04 0 0.065 0.04 0 0.07 0.04 0 0.075 0.04 0 0.08 0.04 0 0.085 0.04 0 0.09 0.04 0 0.095 0.04 0 0.1 0.04 0 0.105 0.04 0 0.11 0.04 0 0.115 0.04 0 0.12 0.04 0 0.125 0.04 0 0.13 0.04 0 0.135 0.04 0 0.14 0.04 0 0.145 0.04 0 0.15 0.04 0 0.155 0.04 0 0.16 0.04 0 0.165 0.04 0 0.17 0.04 0 0.175 0.04 0 0.18 0.04 0 0.185 0.04 0 0.19 0.04 0 0.195 0.04 0 0.2 0.04 0 0.205 0.04 0 0.21 0.04 0 0.215 0.04 0 0.22 0.04 0 0.225 0.04 0 0.23 0.04 0 0.235 0.04 0 0.24 0.04 0 0.245 0.04 0 0.25 0.04 0 0.255 0.04 0 0.26 0.04 0 0.265 0.04 0 0.27 0.04 0 0.275 0.04 0 0.28 0.04 0 0.285 0.04 0 0.29 0.04 0 0.295 0.04 0 0.3 0.04 0 0.305 0.04 0 0.31 0.04 0 0.315 0.04 0 0.32 0.04 0 0.325 0.04 0 0.33 0.04 0 0.335 0.04 0 0.34 0.04 0 0.345 0.04 0 0.35 0.04 0 0.355 0.04 0 0.36 0.04 0 0.365 0.04 0 0.37 0.04 0 0.375 0.04 0 0.38 0.04 0 0.385 0.04 0 0.39 0.04 0 0.395 0.04 0 0.4 0.04 0 0.405 0.04 0 0.41 0.04 0 0.415 0.04 0 0.42 0.04 0 0.425 0.04 0 0.43 0.04 0 0.435 0.04 0 0.44 0.04 0 0.445 0.04 0 0.45 0.04 0 0.455 0.04 0 0.46 0.04 0 0.465 0.04 0 0.47 0.04 0 0.475 0.04 0 0.48 0.04 0 0.485 0.04 0 0.49 0.04 0 0.495 0.04 0 0.5 0.04 0 0.505 0.04 0 0.51 0.04 0 0.515 0.04 0 0.52 0.04 0 0.525 0.04 0 0.53 0.04 0 0.535 0.04 0 0.54 0.04 0 0.545 0.04 0 0.55 0.04 0 0.555 0.04 0 0.56 0.04 0 0.565 0.04 0 0.57 0.04 0 0.575 0.04 0 0.58 0.04 0 0.585 0.04 0 0.59 0.04 0 0.595 0.04 0 0.6 0.04 0 0.605 0.04 0 0.61 0.04 0 0.615 0.04 0 0.62 0.04 0 0.625 0.04 0 0.63 0.04 0 0.635 0.04 0 0.64 0.04 0 0.645 0.04 0 0.65 0.04 0 0.655 0.04 0 0.66 0.04 0 0.665 0.04 0 0.67 0.04 0 0.675 0.04 0 0.68 0.04 0 0.685 0.04 0 0.69 0.04 0 0.695 0.04 0 0.7 0.04 0 0.705 0.04 0 0.71 0.04 0 0.715 0.04 0 0.72 0.04 0 0.725 0.04 0 0.73 0.04 0 0.735 0.04 0 0.74 0.04 0 0.745 0.04 0 0.75 0.04 0 0.755 0.04 0 0.76 0.04 0 0.765 0.04 0 0.77 0.04 0 0.775 0.04 0 0.78 0.04 0 0.785 0.04 0 0.79 0.04 0 0.795 0.04 0 0.8 0.04 0 0.805 0.04 0 0.81 0.04 0 0.815 0.04 0 0.82 0.04 0 0.825 0.04 0 0.83 0.04 0 0.835 0.04 0 0.84 0.04 0 0.845 0.04 0 0.85 0.04 0 0.855 0.04 0 0.86 0.04 0 0.865 0.04 0 0.87 0.04 0 0.875 0.04 0 0.88 0.04 0 0.885 0.04 0 0.89 0.04 0 0.895 0.04 0 0.9 0.04 0 0.905 0.04 0 0.91 0.04 0 0.915 0.04 0 0.92 0.04 0 0.925 0.04 0 0.93 0.04 0 0.935 0.04 0 0.94 0.04 0 0.945 0.04 0 0.95 0.04 0 0.955 0.04 0 0.96 0.04 0 0.965 0.04 0 0.97 0.04 0 0.975 0.04 0 0.98 0.04 0 0.985 0.04 0 0.99 0.04 0 0.995 0.04 0 1 0.04 0 0 0.06 0 0.005 0.06 0 0.01 0.06 0 0.015 0.06 0 0.02 0.06 0 0.025 0.06 0 0.03 0.06 0 0.035 0.06 0 0.04 0.06 0 0.045 0.06 0 0.05 0.06 0 0.055 0.06 0 0.06 0.06 0 0.065 0.06 0 0.07 0.06 0 0.075 0.06 0 0.08 0.06 0 0.085 0.06 0 0.09 0.06 0 0.095 0.06 0 0.1 0.06 0 0.105 0.06 0 0.11 0.06 0 0.115 0.06 0 0.12 0.06 0 0.125 0.06 0 0.13 0.06 0 0.135 0.06 0 0.14 0.06 0 0.145 0.06 0 0.15 0.06 0 0.155 0.06 0 0.16 0.06 0 0.165 0.06 0 0.17 0.06 0 0.175 0.06 0 0.18 0.06 0 0.185 0.06 0 0.19 0.06 0 0.195 0.06 0 0.2 0.06 0 0.205 0.06 0 0.21 0.06 0 0.215 0.06 0 0.22 0.06 0 0.225 0.06 0 0.23 0.06 0 0.235 0.06 0 0.24 0.06 0 0.245 0.06 0 0.25 0.06 0 0.255 0.06 0 0.26 0.06 0 0.265 0.06 0 0.27 0.06 0 0.275 0.06 0 0.28 0.06 0 0.285 0.06 0 0.29 0.06 0 0.295 0.06 0 0.3 0.06 0 0.305 0.06 0 0.31 0.06 0 0.315 0.06 0 0.32 0.06 0 0.325 0.06 0 0.33 0.06 0 0.335 0.06 0 0.34 0.06 0 0.345 0.06 0 0.35 0.06 0 0.355 0.06 0 0.36 0.06 0 0.365 0.06 0 0.37 0.06 0 0.375 0.06 0 0.38 0.06 0 0.385 0.06 0 0.39 0.06 0 0.395 0.06 0 0.4 0.06 0 0.405 0.06 0 0.41 0.06 0 0.415 0.06 0 0.42 0.06 0 0.425 0.06 0 0.43 0.06 0 0.435 0.06 0 0.44 0.06 0 0.445 0.06 0 0.45 0.06 0 0.455 0.06 0 0.46 0.06 0 0.465 0.06 0 0.47 0.06 0 0.475 0.06 0 0.48 0.06 0 0.485 0.06 0 0.49 0.06 0 0.495 0.06 0 0.5 0.06 0 0.505 0.06 0 0.51 0.06 0 0.515 0.06 0 0.52 0.06 0 0.525 0.06 0 0.53 0.06 0 0.535 0.06 0 0.54 0.06 0 0.545 0.06 0 0.55 0.06 0 0.555 0.06 0 0.56 0.06 0 0.565 0.06 0 0.57 0.06 0 0.575 0.06 0 0.58 0.06 0 0.585 0.06 0 0.59 0.06 0 0.595 0.06 0 0.6 0.06 0 0.605 0.06 0 0.61 0.06 0 0.615 0.06 0 0.62 0.06 0 0.625 0.06 0 0.63 0.06 0 0.635 0.06 0 0.64 0.06 0 0.645 0.06 0 0.65 0.06 0 0.655 0.06 0 0.66 0.06 0 0.665 0.06 0 0.67 0.06 0 0.675 0.06 0 0.68 0.06 0 0.685 0.06 0 0.69 0.06 0 0.695 0.06 0 0.7 0.06 0 0.705 0.06 0 0.71 0.06 0 0.715 0.06 0 0.72 0.06 0 0.725 0.06 0 0.73 0.06 0 0.735 0.06 0 0.74 0.06 0 0.745 0.06 0 0.75 0.06 0 0.755 0.06 0 0.76 0.06 0 0.765 0.06 0 0.77 0.06 0 0.775 0.06 0 0.78 0.06 0 0.785 0.06 0 0.79 0.06 0 0.795 0.06 0 0.8 0.06 0 0.805 0.06 0 0.81 0.06 0 0.815 0.06 0 0.82 0.06 0 0.825 0.06 0 0.83 0.06 0 0.835 0.06 0 0.84 0.06 0 0.845 0.06 0 0.85 0.06 0 0.855 0.06 0 0.86 0.06 0 0.865 0.06 0 0.87 0.06 0 0.875 0.06 0 0.88 0.06 0 0.885 0.06 0 0.89 0.06 0 0.895 0.06 0 0.9 0.06 0 0.905 0.06 0 0.91 0.06 0 0.915 0.06 0 0.92 0.06 0 0.925 0.06 0 0.93 0.06 0 0.935 0.06 0 0.94 0.06 0 0.945 0.06 0 0.95 0.06 0 0.955 0.06 0 0.96 0.06 0 0.965 0.06 0 0.97 0.06 0 0.975 0.06 0 0.98 0.06 0 0.985 0.06 0 0.99 0.06 0 0.995 0.06 0 1 0.06 0 0 0.08 0 0.005 0.08 0 0.01 0.08 0 0.015 0.08 0 0.02 0.08 0 0.025 0.08 0 0.03 0.08 0 0.035 0.08 0 0.04 0.08 0 0.045 0.08 0 0.05 0.08 0 0.055 0.08 0 0.06 0.08 0 0.065 0.08 0 0.07 0.08 0 0.075 0.08 0 0.08 0.08 0 0.085 0.08 0 0.09 0.08 0 0.095 0.08 0 0.1 0.08 0 0.105 0.08 0 0.11 0.08 0 0.115 0.08 0 0.12 0.08 0 0.125 0.08 0 0.13 0.08 0 0.135 0.08 0 0.14 0.08 0 0.145 0.08 0 0.15 0.08 0 0.155 0.08 0 0.16 0.08 0 0.165 0.08 0
[...]
			<PointData Scalars="VitesseX">
				<DataArray Name="VitesseX" type="Float32" format="ascii">
 0 -6.22495e-15 -3.1871e-15 3.15957e-15 -1.49936e-14 -2.13175e-14 3.77604e-14 -4.59157e-14 -4.33488e-14 -1.81931e-14 -2.73389e-14 2.61704e-15 -1.89381e-14 4.42468e-14 -3.61437e-14 -4.79308e-14 2.85169e-14 -3.19639e-14 4.00102e-14 -5.39674e-14 -3.05472e-14 4.68912e-15 -1.78001e-13 -6.60511e-14 1.66462e-14 -4.0414e-14 -1.7561e-13 -3.85046e-14 -1.46238e-13 4.49127e-14 -4.53475e-14 -7.85947e-15 -5.63436e-14 -5.58845e-14 1.69382e-13 -2.6821e-13 -1.23135e-13 -9.21344e-14 -1.68084e-13 -1.62968e-13 -1.70955e-13 -2.26863e-13 -9.06728e-14 6.77428e-14 -7.17537e-14 2.20181e-15 -5.47887e-14 -8.68428e-14 -1.63294e-13 -1.34161e-13 8.46889e-14 1.05234e-15 1.069e-12 7.29377e-12 5.52187e-11 3.70944e-10 2.35592e-09 1.40502e-08 7.83959e-08 4.0788e-07 1.97112e-06 8.80781e-06 3.6198e-05 0.000135957 0.000463127 0.00141779 0.00386025 0.00925044 0.019361 0.0353756 0.0570137 0.082729 0.110792 0.140023 0.169805 0.199842 0.229994 0.260187 0.290378 0.320508 0.350522 0.380376 0.410037 0.439482 0.468698 0.497674 0.526399 0.554857 0.583028 0.610881 0.638379 0.665469 0.692086 0.718145 0.743541 0.768142 0.791788 0.814287 0.835414 0.85492 0.872543 0.888035 0.901195 0.911912 0.920198 0.926201 0.930191 0.932519 0.93357 0.933738 0.933631 0.933376 0.933008 0.932578 0.932137 0.931753 0.931493 0.931415 0.931634 0.932356 0.933777 0.936061 0.939443 0.94371 0.950668 0.955908 0.952099 0.945006 0.938407 0.933939 0.931254 0.929784 0.929024 0.928614 0.928301 0.927915 0.927271 0.926086 0.923902 0.919945 0.912944 0.900877 0.880733 0.848409 0.799029 0.727979 0.632806 0.515747 0.385843 0.259051 0.153199 0.0787491 0.0355034 0.0145416 0.00563912 0.00212917 0.000793445 0.000293427 0.000107885 3.94529e-05 1.43477e-05 5.18699e-06 1.86332e-06 6.64818e-07 2.35484e-07 8.277e-08 2.88576e-08 9.97582e-09 3.4178e-09 1.16001e-09 3.9021e-10 1.29812e-10 4.24586e-11 1.34517e-11 4.41104e-12 8.97722e-13 1.58992e-14 -1.74174e-13 -2.46626e-13 -1.14095e-13 -2.97262e-13 -1.121e-13 -2.12305e-13 3.34499e-13 -4.38452e-13 2.39782e-13 4.68379e-14 -1.49888e-13 -3.19245e-13 7.22439e-13 -4.49535e-13 3.75734e-13 4.57955e-13 4.81962e-14 7.22905e-13 -2.10388e-13 2.56662e-13 5.74098e-13 -1.29266e-14 8.74418e-14 0 0 1.64646e-14 3.07748e-15 4.22398e-15 5.96772e-16 6.92592e-15 -3.88597e-14 -7.67097e-15 -1.80996e-14 -2.04124e-14 -2.38778e-14 -2.08357e-14 5.9796e-14 -6.54674e-14 -1.13724e-14 2.86942e-14 -4.12772e-14 1.71183e-14 -8.65576e-14 5.25872e-15 -6.94258e-14 -6.7156e-14 3.01178e-14 -8.84867e-14 -9.00097e-14 -9.49839e-14 -5.23681e-14 -1.23505e-13 -5.43427e-14 -3.30633e-14 -4.52935e-14 -3.2329e-14 5.58485e-14 -1.30009e-14 -1.88987e-13 -1.1797e-13 -6.41088e-14 -1.33534e-13 -7.77515e-14 -6.45604e-14 -1.95296e-13 -5.65056e-14 -2.0558e-14 -1.06448e-13 5.40199e-14 -1.14701e-13 1.52651e-15 -1.37515e-13 -3.76863e-14 -7.69661e-14 -7.9913e-14 1.34163e-13 1.0022e-12 7.79235e-12 5.45909e-11 3.70831e-10 2.35629e-09 1.40503e-08 7.83958e-08 4.0788e-07 1.97112e-06 8.80781e-06 3.6198e-05 0.000135957 0.000463127 0.00141779 0.00386025 0.00925044 0.019361 0.0353756 0.0570137 0.082729 0.110792 0.140023 0.169805 0.199842 0.229994 0.260187 0.290378 0.320508 0.350522 0.380376 0.410037 0.439482 0.468698 0.497674 0.526399 0.554857 0.583028 0.610881 0.638379 0.665469 0.692086 0.718145 0.743541 0.768142 0.791788 0.814287 0.835414 0.85492 0.872543 0.888035 0.901195 0.911912 0.920198 0.926201 0.930191 0.932519 0.93357 0.933738 0.933631 0.933376 0.933008 0.932578 0.932137 0.931753 0.931493 0.931415 0.931634 0.932356 0.933777 0.936061 0.939443 0.94371 0.950668 0.955908 0.952099 0.945006 0.938407 0.933939 0.931254 0.929784 0.929024 0.928614 0.928301 0.927915 0.927271 0.926086 0.923902 0.919945 0.912944 0.900877 0.880733 0.848409 0.799029 0.727979 0.632806 0.515747 0.385843 0.259051 0.153199 0.0787491 0.0355034 0.0145416 0.00563912 0.00212917 0.000793445 0.000293427 0.000107885 3.94529e-05 1.43477e-05 5.18699e-06 1.86332e-06 6.64818e-07 2.35484e-07 8.27706e-08 2.88574e-08 9.97558e-09 3.41799e-09 1.16038e-09 3.89792e-10 1.29727e-10 4.26941e-11 1.3554e-11 3.8857e-12 1.16936e-12 1.02811e-13 -2.59348e-13 -2.66147e-13 -2.80883e-13 -7.79732e-14 -2.12029e-14 -1.33563e-13 -2.22216e-13 2.58749e-13 -3.89088e-13 -6.06593e-14 2.775e-13 2.11575e-13 -4.56814e-13 2.81136e-13 2.35188e-13 8.32008e-14 3.66121e-13 -2.45732e-14 2.83147e-13 3.73746e-13 -1.28782e-13 2.90931e-13 -6.30048e-14 0 0 1.49391e-14 2.94108e-14 1.47532e-14 7.70044e-15 -2.51791e-15 6.61337e-15 -2.49259e-14 2.82708e-14 -1.10572e-14 -9.89585e-15 1.17242e-14 -1.97338e-14 -1.89188e-14 -2.99893e-14 -7.46678e-14 2.17541e-14 -3.75055e-14 -6.28834e-15 -8.99163e-14 -4.08121e-14 -3.42948e-14 -9.85674e-14 -2.99367e-14 -2.29801e-14 -1.14385e-13 -1.4168e-13 -5.45086e-14 -1.35526e-13 -4.72962e-14 6.71039e-14 -1.02241e-14 -5.47096e-14 -6.19807e-14 -1.58633e-13 -2.85473e-14 -1.17577e-13 5.15407e-14 -8.46311e-14 -5.90136e-14 -6.46765e-14 -1.72069e-13 -7.79619e-14 5.9779e-14 -9.24318e-14 4.99232e-14 -6.92903e-14 -1.19747e-13 -7.01879e-14 -6.32761e-14 -4.60729e-14 8.46078e-14 1.08994e-12 7.78681e-12 5.50033e-11 3.7067e-10 2.35623e-09 1.40505e-08 7.83955e-08 4.0788e-07 1.97112e-06 8.80781e-06 3.6198e-05 0.000135957 0.000463127 0.00141779 0.00386025 0.00925044 0.019361 0.0353756 0.0570137 0.082729 0.110792 0.140023 0.169805 0.199842 0.229994 0.260187 0.290378 0.320508 0.350522 0.380376 0.410037 0.439482 0.468698 0.497674 0.526399 0.554857 0.583028 0.610881 0.638379 0.665469 0.692086 0.718145 0.743541 0.768142 0.791788 0.814287 0.835414 0.85492 0.872543 0.888035 0.901195 0.911912 0.920198 0.926201 0.930191 0.932519 0.93357 0.933738 0.933631 0.933376 0.933008 0.932578 0.932137 0.931753 0.931493 0.931415 0.931634 0.932356 0.933777 0.936061 0.939443 0.94371 0.950668 0.955908 0.952099 0.945006 0.938407 0.933939 0.931254 0.929784 0.929024 0.928614 0.928301 0.927915 0.927271 0.926086 0.923902 0.919945 0.912944 0.900877 0.880733 0.848409 0.799029 0.727979 0.632806 0.515747 0.385843 0.259051 0.153199 0.0787491 0.0355034 0.0145416 0.00563912 0.00212917 0.000793445 0.000293427 0.000107885 3.94529e-05 1.43477e-05 5.18699e-06 1.86332e-06 6.64818e-07 2.35484e-07 8.27702e-08 2.88575e-08 9.97584e-09 3.41807e-09 1.16036e-09 3.90013e-10 1.29809e-10 4.26514e-11 1.37437e-11 4.12627e-12 9.38198e-13 -4.79094e-14 -2.33278e-13 -3.62316e-13 -2.6213e-13 -9.34931e-14 -1.49804e-13 -2.10078e-14 -2.17082e-13 -2.51917e-13 -1.57505e-13 1.40743e-13 -8.5623e-14 -8.72469e-14 2.24422e-13 2.22746e-13 -1.86173e-13 1.75323e-13 -3.02063e-13 1.00583e-12 4.32607e-13 -2.68561e-13 1.87586e-13 2.9449e-13 2.86974e-13 0 0 -1.09148e-15 2.4509e-14 2.76713e-14 1.09836e-14 1.7872e-15 3.6686e-14 1.87212e-14 -2.10509e-14 4.20224e-14 -3.06439e-14 -1.2423e-14 -1.46796e-14 -1.55161e-14 -8.99621e-14 -4.74336e-14 -1.58045e-14 -4.11869e-14 -2.56064e-14 -3.05164e-14 -5.38582e-14 -8.41461e-14 -1.26301e-13 -7.93835e-14 -8.49311e-14 3.90826e-14 -1.5706e-13 -2.12807e-14 -1.7784e-13 3.64261e-14 -8.38744e-14 5.32741e-14 -1.05162e-13 -4.32834e-14 5.0337e-15 -8.29274e-15 6.05749e-14 -1.49874e-13 -9.07623e-14 -1.8353e-13 -1.5277e-13 -1.0029e-13 5.25423e-14 -1.06472e-13 -7.57849e-14 -4.81977e-14 4.20406e-14 -1.61808e-13 1.28435e-13 -1.97979e-13 7.446e-14 5.88479e-14 1.16455e-12 7.57368e-12 5.51333e-11 3.70938e-10 2.35629e-09 1.40503e-08 7.83955e-08 4.0788e-07 1.97112e-06 8.80781e-06 3.6198e-05 0.000135957 0.000463127 0.00141779 0.00386025 0.00925044 0.019361 0.0353756 0.0570137 0.082729 0.110792 0.140023 0.169805 0.199842 0.229994 0.260187 0.290378 0.320508 0.350522 0.380376 0.410037 0.439482 0.468698 0.497674 0.526399 0.554857 0.583028 0.610881 0.638379 0.665469 0.692086 0.718145 0.743541 0.768142 0.791788 0.814287 0.835414 0.85492 0.872543 0.888035 0.901195 0.911912 0.920198 0.926201 0.930191 0.932519 0.93357 0.933738 0.933631 0.933376 0.933008 0.932578 0.932137 0.931753 0.931493 0.931415 0.931634 0.932356 0.933777 0.936061 0.939443 0.94371 0.950668 0.955908 0.952099 0.945006 0.938407 0.933939 0.931254 0.929784 0.929024 0.928614 0.928301 0.927915 0.927271 0.926086 0.923902 0.919945 0.912944 0.900877 0.880733 0.848409 0.799029 0.727979 0.632806 0.515747 0.385843 0.259051 0.153199 0.0787491 0.0355034 0.0145416 0.00563912 0.00212917 0.000793445 0.000293427 0.000107885 3.94529e-05 1.43477e-05 5.18699e-06 1.86332e-06 6.64818e-07 2.35484e-07 8.27704e-08 2.88576e-08 9.97579e-09 3.418e-09 1.16034e-09 3.90756e-10 1.29894e-10 4.24139e-11 1.39673e-11 4.19559e-12 1.12632e-12 1.16665e-13 -4.12408e-13 -4.29488e-13 4.70153e-14 -4.62015e-13 -4.78637e-13 2.93472e-13 2.30276e-13 -3.33469e-13 -2.14387e-13 1.01943e-13 -5.11802e-13 -4.89185e-13 4.46139e-13 -3.6802e-13 1.42434e-13 2.26371e-13 7.82306e-13 -5.14266e-13 -1.59671e-13 7.12233e-13 6.23072e-13 -7.64577e-13 -2.42325e-13 0 0 8.88912e-15 7.90968e-15 2.49207e-14 2.15283e-14 2.21445e-14 2.27204e-15 3.61499e-14 -2.58597e-14 2.46003e-14 -3.75305e-14 -5.52721e-14 3.2923e-14 -8.57802e-14 -7.1172e-14 -6.59861e-15 -9.39791e-14 -1.11712e-14 -8.25461e-14 3.12221e-14 -7.92215e-14 -8.83649e-14 8.22575e-15 -1.34934e-13 -1.49476e-13 3.24507e-14 2.03663e-14 -8.38936e-14 -4.53634e-14 -5.23465e-14 -9.98204e-14 2.02237e-14 6.01187e-14 2.44758e-14 -7.81433e-14 -3.17015e-14 3.09642e-14 -2.06342e-13 -1.34129e-13 -1.70049e-13 -2.28668e-13 -4.60829e-14 -3.01403e-15 -2.01007e-13 7.09897e-14 -1.72515e-13 5.42568e-14 -1.59485e-13 8.70122e-14 -1.21017e-13 -3.71487e-14 2.15175e-13 1.0303e-12 7.82618e-12 5.47694e-11 3.71041e-10 2.35652e-09 1.40504e-08 7.83956e-08 4.0788e-07 1.97112e-06 8.80781e-06 3.6198e-05 0.000135957 0.000463127 0.00141779 0.00386025 0.00925044 0.019361 0.0353756 0.0570137 0.082729 0.110792 0.140023 0.169805 0.199842 0.229994 0.260187 0.290378 0.320508 0.350522 0.380376 0.410037 0.439482 0.468698 0.497674 0.526399 0.554857 0.583028 0.610881 0.638379 0.665469 0.692086 0.718145 0.743541 0.768142 0.791788 0.814287 0.835414 0.85492 0.872543 0.888035 0.901195 0.911912 0.920198 0.926201 0.930191 0.932519 0.93357 0.933738 0.933631 0.933376 0.933008 0.932578 0.932137 0.931753 0.931493 0.931415 0.931634 0.932356 0.933777 0.936061 0.939443 0.94371 0.950668 0.955908 0.952099 0.945006 0.938407 0.933939 0.931254 0.929784 0.929024 0.928614 0.928301 0.927915 0.927271 0.926086 0.923902 0.919945 0.912944 0.900877 0.880733 0.848409 0.799029 0.727979 0.632806 0.515747 0.385843 0.259051 0.153199 0.0787491 0.0355034 0.0145416 0.00563912 0.00212917 0.000793445 0.000293427 0.000107885 3.94529e-05 1.43477e-05 5.18699e-06 1.86332e-06 6.64818e-07 2.35484e-07 8.27709e-08 2.88577e-08 9.97564e-09 3.41819e-09 1.16073e-09 3.90176e-10 1.3004e-10 4.29896e-11 1.37145e-11 4.28256e-12 9.54579e-13 1.61106e-13 -1.77312e-13 -4.49678e-13 -2.8875e-13 -5.61575e-13 -2.37691e-13 -2.07189e-14 1.69226e-14 2.26585e-13 -1.80788e-13 -4.05252e-14 5.9865e-14 1.33436e-14 -2.65567e-13 -1.93181e-13 2.40025e-15 -3.57645e-13 1.66719e-13 -9.8838e-13 -5.79701e-14 1.28684e-12 -6.3548e-14 -3.14002e-13 -2.92954e-13 0 0 1.06852e-14 1.62809e-14 1.87168e-14 2.03031e-14 5.0949e-16 5.98786e-14 -4.5568e-14 3.97744e-14 -3.43268e-14 -1.31482e-14 -1.79614e-14 -8.27925e-14 -3.18406e-15 -3.57972e-14 -1.72985e-13 -1.76963e-15 -8.11801e-14 8.66693e-14 -1.2084e-13 -2.40464e-14 6.1974e-14 -1.66319e-13 -6.00514e-14 2.16146e-14 -9.24806e-14 6.19672e-16 -2.57379e-14 -4.3651e-14 -1.61098e-13 1.47555e-13 -2.97504e-14 5.31023e-14 -1.83258e-14 6.37373e-14 -1.36182e-13 -2.89292e-13 1.65078e-13 -2.68576e-13 -1.24911e-13 -6.15106e-14 -3.49575e-13 -3.16593e-13 2.11126e-13 -7.11079e-14 8.2815e-14 -1.7199e-13 -4.66621e-14 -3.11142e-13 4.71436e-14 -7.08486e-14 2.14595e-13 9.75953e-13 7.7877e-12 5.53158e-11 3.7083e-10 2.35627e-09 1.40507e-08 7.83955e-08 4.0788e-07 1.97112e-06 8.80781e-06 3.6198e-05 0.000135957 0.000463127 0.00141779 0.00386025 0.00925044 0.019361 0.0353756 0.0570137 0.082729 0.110792 0.140023 0.169805 0.199842 0.229994 0.260187 0.290378 0.320508 0.350522 0.380376 0.410037 0.439482 0.468698 0.497674 0.526399 0.554857 0.583028 0.610881 0.638379 0.665469 0.692086 0.718145 0.743541 0.768142 0.791788 0.814287 0.835414 0.85492 0.872543 0.888035 0.901195 0.911912 0.920198 0.926201 0.930191 0.932519 0.93357 0.933738 0.933631 0.933376 0.933008 0.932578 0.932137 0.931753 0.931493 0.931415 0.931634 0.932356 0.933777 0.936061 0.939443 0.94371 0.950668 0.955908 0.952099 0.945006 0.938407 0.933939 0.931254 0.929784 0.929024 0.928614 0.928301 0.927915 0.927271 0.926086 0.923902 0.919945 0.912944 0.900877 0.880733 0.848409 0.799029 0.727979 0.632806 0.515747 0.385843 0.259051 0.153199 0.0787491 0.0355034 0.0145416 0.00563912 0.00212917 0.000793445 0.000293427 0.000107885 3.94529e-05 1.43477e-05 5.18699e-06 1.86332e-06 6.64818e-07 2.35485e-07 8.27703e-08 2.88578e-08 9.97605e-09 3.41832e-09 1.16075e-09 3.89491e-10 1.30266e-10 4.35246e-11 1.33254e-11 5.06613e-12 9.19308e-14 -1.9666e-13 3.48159e-13 -4.79344e-13 -7.48121e-13 -5.27421e-13 1.1259e-13 -6.15576e-13 -8.19398e-14 -3.39676e-13 7.70146e-13 1.64706e-13 2.672e-13 8.81683e-14 6.61499e-13 -2.16636e-13 -7.47057e-13 -5.25833e-13 -2.51935e-12 1.83549e-12 2.91933e-13 1.21257e-13 -1.66406e-13 8.95341e-13 6.86142e-13 0
				</DataArray>
				<DataArray Name="VitesseY" type="Float32" format="ascii">