<?xml version="1.0"?>
<VTKFile type="PolyData">
	<PolyData>
		<Piece NumberOfPoints="1206" NumberOfPolys="1000">
			<Points>
				<DataArray type="Float32" NumberOfComponents="3" format="ascii">
 0 0 0 0.005 0 0 0.01 0 0 0.015 0 0 0.02 0 0 0.025 0 0 0.03 0 0 0.035 0 0 0.04 0 0 0.045 0 0 0.05 0 0 0.055 0 0 0.06 0 0 0.065 0 0 0.07 0 0 0.075 0 0 0.08 0 0 0.085 0 0 0.09 0 0 0.095 0 0 0.1 0 0 0.105 0 0 0.11 0 0 0.115 0 0 0.12 0 0 0.125 0 0 0.13 0 0 0.135 0 0 0.14 0 0 0.145 0 0 0.15 0 0 0.155 0 0 0.16 0 0 0.165 0 0 0.17 0 0 0.175 0 0 0.18 0 0 0.185 0 0 0.19 0 0 0.195 0 0 0.2 0 0 0.205 0 0 0.21 0 0 0.215 0 0 0.22 0 0 0.225 0 0 0.23 0 0 0.235 0 0 0.24 0 0 0.245 0 0 0.25 0 0 0.255 0 0 0.26 0 0 0.265 0 0 0.27 0 0 0.275 0 0 0.28 0 0 0.285 0 0 0.29 0 0 0.295 0 0 0.3 0 0 0.305 0 0 0.31 0 0 0.315 0 0 0.32 0 0 0.325 0 0 0.33 0 0 0.335 0 0 0.34 0 0 0.345 0 0 0.35 0 0 0.355 0 0 0.36 0 0 0.365 0 0 0.37 0 0 0.375 0 0 0.38 0 0 0.385 0 0 0.39 0 0 0.395 0 0 0.4 0 0 0.405 0 0 0.41 0 0 0.415 0 0 0.42 0 0 0.425 0 0 0.43 0 0 0.435 0 0 0.44 0 0 0.445 0 0 0.45 0 0 0.455 0 0 0.46 0 0 0.465 0 0 0.47 0 0 0.475 0 0 0.48 0 0 0.485 0 0 0.49 0 0 0.495 0 0 0.5 0 0 0.505 0 0 0.51 0 0 0.515 0 0 0.52 0 0 0.525 0 0 0.53 0 0 0.535 0 0 0.54 0 0 0.545 0 0 0.55 0 0 0.555 0 0 0.56 0 0 0.565 0 0 0.57 0 0 0.575 0 0 0.58 0 0 0.585 0 0 0.59 0 0 0.595 0 0 0.6 0 0 0.605 0 0 0.61 0 0 0.615 0 0 0.62 0 0 0.625 0 0 0.63 0 0 0.635 0 0 0.64 0 0 0.645 0 0 0.65 0 0 0.655 0 0 0.66 0 0 0.665 0 0 0.67 0 0 0.675 0 0 0.68 0 0 0.685 0 0 0.69 0 0 0.695 0 0 0.7 0 0 0.705 0 0 0.71 0 0 0.715 0 0 0.72 0 0 0.725 0 0 0.73 0 0 0.735 0 0 0.74 0 0 0.745 0 0 0.75 0 0 0.755 0 0 0.76 0 0 0.765 0 0 0.77 0 0 0.775 0 0 0.78 0 0 0.785 0 0 0.79 0 0 0.795 0 0 0.8 0 0 0.805 0 0 0.81 0 0 0.815 0 0 0.82 0 0 0.825 0 0 0.83 0 0 0.835 0 0 0.84 0 0 0.845 0 0 0.85 0 0 0.855 0 0 0.86 0 0 0.865 0 0 0.87 0 0 0.875 0 0 0.88 0 0 0.885 0 0 0.89 0 0 0.895 0 0 0.9 0 0 0.905 0 0 0.91 0 0 0.915 0 0 0.92 0 0 0.925 0 0 0.93 0 0 0.935 0 0 0.94 0 0 0.945 0 0 0.95 0 0 0.955 0 0 0.96 0 0 0.965 0 0 0.97 0 0 0.975 0 0 0.98 0 0 0.985 0 0 0.99 0 0 0.995 0 0 1 0 0 0 0.02 0 0.005 0.02 0 0.01 0.02 0 0.015 0.02 0 0.02 0.02 0 0.025 0.02 0 0.03 0.02 0 0.035 0.02 0 0.04 0.02 0 0.045 0.02 0 0.05 0.02 0 0.055 0.02 0 0.06 0.02 0 0.065 0.02 0 0.07 0.02 0 0.075 0.02 0 0.08 0.02 0 0.085 0.02 0 0.09 0.02 0 0.095 0.02 0 0.1 0.02 0 0.105 0.02 0 0.11 0.02 0 0.115 0.02 0 0.12 0.02 0 0.125 0.02 0 0.13 0.02 0 0.135 0.02 0 0.14 0.02 0 0.145 0.02 0 0.15 0.02 0 0.155 0.02 0 0.16 0.02 0 0.165 0.02 0 0.17 0.02 0 0.175 0.02 0 0.18 0.02 0 0.185 0.02 0 0.19 0.02 0 0.195 0.02 0 0.2 0.02 0 0.205 0.02 0 0.21 0.02 0 0.215 0.02 0 0.22 0.02 0 0.225 0.02 0 0.23 0.02 0 0.235 0.02 0 0.24 0.02 0 0.245 0.02 0 0.25 0.02 0 0.255 0.02 0 0.26 0.02 0 0.265 0.02 0 0.27 0.02 0 0.275 0.02 0 0.28 0.02 0 0.285 0.02 0 0.29 0.02 0 0.295 0.02 0 0.3 0.02 0 0.305 0.02 0 0.31 0.02 0 0.315 0.02 0 0.32 0.02 0 0.325 0.02 0 0.33 0.02 0 0.335 0.02 0 0.34 0.02 0 0.345 0.02 0 0.35 0.02 0 0.355 0.02 0 0.36 0.02 0 0.365 0.02 0 0.37 0.02 0 0.375 0.02 0 0.38 0.02 0 0.385 0.02 0 0.39 0.02 0 0.395 0.02 0 0.4 0.02 0 0.405 0.02 0 0.41 0.02 0 0.415 0.02 0 0.42 0.02 0 0.425 0.02 0 0.43 0.02 0 0.435 0.02 0 0.44 0.02 0 0.445 0.02 0 0.45 0.02 0 0.455 0.02 0 0.46 0.02 0 0.465 0.02 0 0.47 0.02 0 0.475 0.02 0 0.48 0.02 0 0.485 0.02 0 0.49 0.02 0 0.495 0.02 0 0.5 0.02 0 0.505 0.02 0 0.51 0.02 0 0.515 0.02 0 0.52 0.02 0 0.525 0.02 0 0.53 0.02 0 0.535 0.02 0 0.54 0.02 0 0.545 0.02 0 0.55 0.02 0 0.555 0.02 0 0.56 0.02 0 0.565 0.02 0 0.57 0.02 0 0.575 0.02 0 0.58 0.02 0 0.585 0.02 0 0.59 0.02 0 0.595 0.02 0 0.6 0.02 0 0.605 0.02 0 0.61 0.02 0 0.615 0.02 0 0.62 0.02 0 0.625 0.02 0 0.63 0.02 0 0.635 0.02 0 0.64 0.02 0 0.645 0.02 0 0.65 0.02 0 0.655 0.02 0 0.66 0.02 0 0.665 0.02 0 0.67 0.02 0 0.675 0.02 0 0.68 0.02 0 0.685 0.02 0 0.69 0.02 0 0.695 0.02 0 0.7 0.02 0 0.705 0.02 0 0.71 0.02 0 0.715 0.02 0 0.72 0.02 0 0.725 0.02 0 0.73 0.02 0 0.735 0.02 0 0.74 0.02 0 0.745 0.02 0 0.75 0.02 0 0.755 0.02 0 0.76 0.02 0 0.765 0.02 0 0.77 0.02 0 0.775 0.02 0 0.78 0.02 0 0.785 0.02 0 0.79 0.02 0 0.795 0.02 0 0.8 0.02 0 0.805 0.02 0 0.81 0.02 0 0.815 0.02 0 0.82 0.02 0 0.825 0.02 0 0.83 0.02 0 0.835 0.02 0 0.84 0.02 0 0.845 0.02 0 0.85 0.02 0 0.855 0.02 0 0.86 0.02 0 0.865 0.02 0 0.87 0.02 0 0.875 0.02 0 0.88 0.02 0 0.885 0.02 0 0.89 0.02 0 0.895 0.02 0 0.9 0.02 0 0.905 0.02 0 0.91 0.02 0 0.915 0.02 0 0.92 0.02 0 0.925 0.02 0 0.93 0.02 0 0.935 0.02 0 0.94 0.02 0 0.945 0.02 0 0.95 0.02 0 0.955 0.02 0 0.96 0.02 0 0.965 0.02 0 0.97 0.02 0 0.975 0.02 0 0.98 0.02 0 0.985 0.02 0 0.99 0.02 0 0.995 0.02 0 1 0.02 0 0 0.04 0 0.005 0.04 0 0.01 0.04 0 0.015 0.04 0 0.02 0.04 0 0.025 0.04 0 0.03 0.04 0 0.035 0.04 0 0.04 0.04 0 0.045 0.04 0 0.05 0.04 0 0.055 0.04 0 0.06 0.04 0 0.065 0.04 0 0.07 0.04 0 0.075 0.04 0 0.08 0.04 0 0.085 0.04 0 0.09 0.04 0 0.095 0.04 0 0.1 0.04 0 0.105 0.04 0 0.11 0.04 0 0.115 0.04 0 0.12 0.04 0 0.125 0.04 0 0.13 0.04 0 0.135 0.04 0 0.14 0.04 0 0.145 0.04 0 0.15 0.04 0 0.155 0.04 0 0.16 0.04 0 0.165 0.04 0 0.17 0.04 0 0.175 0.04 0 0.18 0.04 0 0.185 0.04 0 0.19 0.04 0 0.195 0.04 0 0.2 0.04 0 0.205 0.04 0 0.21 0.04 0 0.215 0.04 0 0.22 0.04 0 0.225 0.04 0 0.23 0.04 0 0.235 0.04 0 0.24 0.04 0 0.245 0.04 0 0.25 0.04 0 0.255 0.04 0 0.26 0.04 0 0.265 0.04 0 0.27 0.04 0 0.275 0.04 0 0.28 0.04 0 0.285 0.04 0 0.29 0.04 0 0.295 0.04 0 0.3 0.04 0 0.305 0.04 0 0.31 0.04 0 0.315 0.04 0 0.32 0.04 0 0.325 0.04 0 0.33 0.04 0 0.335 0.04 0 0.34 0.04 0 0.345 0.04 0 0.35 0.04 0 0.355 0.04 0 0.36 0.04 0 0.365 0.04 0 0.37 0.04 0 0.375 0.04 0 0.38 0.04 0 0.385 0.04 0 0.39 0.04 0 0.395 0.04 0 0.4 0.04 0 0.405 0.04 0 0.41 0.04 0 0.415 0.04 0 0.42 0.04 0 0.425 0.04 0 0.43 0.04 0 0.435 0.04 0 0.44 0.04 0 0.445 0.04 0 0.45 0.04 0 0.455 0.04 0 0.46 0.04 0 0.465 0.04 0 0.47 0.04 0 0.475 0.04 0 0.48 0.04 0 0.485 0.04 0 0.49 0.04 0 0.495 0.04 0 0.5 0.04 0 0.505 0.04 0 0.51 0.04 0 0.515 0.04 0 0.52 0.04 0 0.525 0.04 0 0.53 0.04 0 0.535 0.04 0 0.54 0.04 0 0.545 0.04 0 0.55 0.04 0 0.555 0.04 0 0.56 0.04 0 0.565 0.04 0 0.57 0.04 0 0.575 0.04 0 0.58 0.04 0 0.585 0.04 0 0.59 0.04 0 0.595 0.04 0 0.6 0.04 0 0.605 0.04 0 0.61 0.04 0 0.615 0.04 0 0.62 0.04 0 0.625 0.04 0 0.63 0.04 0 0.635 0.04 0 0.64 0.04 0 0.645 0.04 0 0.65 0.04 0 0.655 0.04 0 0.66 0.04 0 0.665 0.04 0 0.67 0.04 0 0.675 0.04 0 0.68 0.04 0 0.685 0.04 0 0.69 0.04 0 0.695 0.04 0 0.7 0.04 0 0.705 0.04 0 0.71 0.04 0 0.715 0.04 0 0.72 0.04 0 0.725 0.04 0 0.73 0.04 0 0.735 0.04 0 0.74 0.04 0 0.745 0.04 0 0.75 0.04 0 0.755 0.04 0 0.76 0.04 0 0.765 0.04 0 0.77 0.04 0 0.775 0.04 0 0.78 0.04 0 0.785 0.04 0 0.79 0.04 0 0.795 0.04 0 0.8 0.04 0 0.805 0.04 0 0.81 0.04 0 0.815 0.04 0 0.82 0.04 0 0.825 0.04 0 0.83 0.04 0 0.835 0.04 0 0.84 0.04 0 0.845 0.04 0 0.85 0.04 0 0.855 0.04 0 0.86 0.04 0 0.865 0.04 0 0.87 0.04 0 0.875 0.04 0 0.88 0.04 0 0.885 0.04 0 0.89 0.04 0 0.895 0.04 0 0.9 0.04 0 0.905 0.04 0 0.91 0.04 0 0.915 0.04 0 0.92 0.04 0 0.925 0.04 0 0.93 0.04 0 0.935 0.04 0 0.94 0.04 0 0.945 0.04 0 0.95 0.04 0 0.955 0.04 0 0.96 0.04 0 0.965 0.04 0 0.97 0.04 0 0.975 0.04 0 0.98 0.04 0 0.985 0.04 0 0.99 0.04 0 0.995 0.04 0 1 0.04 0 0 0.06 0 0.005 0.06 0 0.01 0.06 0 0.015 0.06 0 0.02 0.06 0 0.025 0.06 0 0.03 0.06 0 0.035 0.06 0 0.04 0.06 0 0.045 0.06 0 0.05 0.06 0 0.055 0.06 0 0.06 0.06 0 0.065 0.06 0 0.07 0.06 0 0.075 0.06 0 0.08 0.06 0 0.085 0.06 0 0.09 0.06 0 0.095 0.06 0 0.1 0.06 0 0.105 0.06 0 0.11 0.06 0 0.115 0.06 0 0.12 0.06 0 0.125 0.06 0 0.13 0.06 0 0.135 0.06 0 0.14 0.06 0 0.145 0.06 0 0.15 0.06 0 0.155 0.06 0 0.16 0.06 0 0.165 0.06 0 0.17 0.06 0 0.175 0.06 0 0.18 0.06 0 0.185 0.06 0 0.19 0.06 0 0.195 0.06 0 0.2 0.06 0 0.205 0.06 0 0.21 0.06 0 0.215 0.06 0 0.22 0.06 0 0.225 0.06 0 0.23 0.06 0 0.235 0.06 0 0.24 0.06 0 0.245 0.06 0 0.25 0.06 0 0.255 0.06 0 0.26 0.06 0 0.265 0.06 0 0.27 0.06 0 0.275 0.06 0 0.28 0.06 0 0.285 0.06 0 0.29 0.06 0 0.295 0.06 0 0.3 0.06 0 0.305 0.06 0 0.31 0.06 0 0.315 0.06 0 0.32 0.06 0 0.325 0.06 0 0.33 0.06 0 0.335 0.06 0 0.34 0.06 0 0.345 0.06 0 0.35 0.06 0 0.355 0.06 0 0.36 0.06 0 0.365 0.06 0 0.37 0.06 0 0.375 0.06 0 0.38 0.06 0 0.385 0.06 0 0.39 0.06 0 0.395 0.06 0 0.4 0.06 0 0.405 0.06 0 0.41 0.06 0 0.415 0.06 0 0.42 0.06 0 0.425 0.06 0 0.43 0.06 0 0.435 0.06 0 0.44 0.06 0 0.445 0.06 0 0.45 0.06 0 0.455 0.06 0 0.46 0.06 0 0.465 0.06 0 0.47 0.06 0 0.475 0.06 0 0.48 0.06 0 0.485 0.06 0 0.49 0.06 0 0.495 0.06 0 0.5 0.06 0 0.505 0.06 0 0.51 0.06 0 0.515 0.06 0 0.52 0.06 0 0.525 0.06 0 0.53 0.06 0 0.535 0.06 0 0.54 0.06 0 0.545 0.06 0 0.55 0.06 0 0.555 0.06 0 0.56 0.06 0 0.565 0.06 0 0.57 0.06 0 0.575 0.06 0 0.58 0.06 0 0.585 0.06 0 0.59 0.06 0 0.595 0.06 0 0.6 0.06 0 0.605 0.06 0 0.61 0.06 0 0.615 0.06 0 0.62 0.06 0 0.625 0.06 0 0.63 0.06 0 0.635 0.06 0 0.64 0.06 0 0.645 0.06 0 0.65 0.06 0 0.655 0.06 0 0.66 0.06 0 0.665 0.06 0 0.67 0.06 0 0.675 0.06 0 0.68 0.06 0 0.685 0.06 0 0.69 0.06 0 0.695 0.06 0 0.7 0.06 0 0.705 0.06 0 0.71 0.06 0 0.715 0.06 0 0.72 0.06 0 0.725 0.06 0 0.73 0.06 0 0.735 0.06 0 0.74 0.06 0 0.745 0.06 0 0.75 0.06 0 0.755 0.06 0 0.76 0.06 0 0.765 0.06 0 0.77 0.06 0 0.775 0.06 0 0.78 0.06 0 0.785 0.06 0 0.79 0.06 0 0.795 0.06 0 0.8 0.06 0 0.805 0.06 0 0.81 0.06 0 0.815 0.06 0 0.82 0.06 0 0.825 0.06 0 0.83 0.06 0 0.835 0.06 0 0.84 0.06 0 0.845 0.06 0 0.85 0.06 0 0.855 0.06 0 0.86 0.06 0 0.865 0.06 0 0.87 0.06 0 0.875 0.06 0 0.88 0.06 0 0.885 0.06 0 0.89 0.06 0 0.895 0.06 0 0.9 0.06 0 0.905 0.06 0 0.91 0.06 0 0.915 0.06 0 0.92 0.06 0 0.925 0.06 0 0.93 0.06 0 0.935 0.06 0 0.94 0.06 0 0.945 0.06 0 0.95 0.06 0 0.955 0.06 0 0.96 0.06 0 0.965 0.06 0 0.97 0.06 0 0.975 0.06 0 0.98 0.06 0 0.985 0.06 0 0.99 0.06 0 0.995 0.06 0 1 0.06 0 0 0.08 0 0.005 0.08 0 0.01 0.08 0 0.015 0.08 0 0.02 0.08 0 0.025 0.08 0 0.03 0.08 0 0.035 0.08 0 0.04 0.08 0 0.045 0.08 0 0.05 0.08 0 0.055 0.08 0 0.06 0.08 0 0.065 0.08 0 0.07 0.08 0 0.075 0.08 0 0.08 0.08 0 0.085 0.08 0 0.09 0.08 0 0.095 0.08 0 0.1 0.08 0 0.105 0.08 0 0.11 0.08 0 0.115 0.08 0 0.12 0.08 0 0.125 0.08 0 0.13 0.08 0 0.135 0.08 0 0.14 0.08 0 0.145 0.08 0 0.15 0.08 0 0.155 0.08 0 0.16 0.08 0 0.165 0.08 0
[...]
			<PointData Scalars="VitesseX">
				<DataArray Name="VitesseX" type="Float32" format="ascii">
 0 -6.80703e-15 -7.78777e-15 7.37311e-14 -1.48242e-13 -5.31538e-14 4.70736e-14 -2.43338e-14 -1.29473e-13 -1.58573e-14 6.93562e-14 -1.86083e-13 1.61987e-13 -3.86014e-13 1.85566e-13 -8.82582e-14 -2.63939e-13 2.96549e-13 -2.5368e-13 1.39723e-13 -2.42932e-14 -1.47107e-13 -3.32124e-13 2.06269e-13 3.95251e-13 1.27461e-13 -4.0126e-13 -1.65583e-14 4.80948e-14 1.98184e-14 -2.74198e-13 3.69131e-13 -4.31248e-13 -3.9175e-13 4.9413e-13 -3.27861e-13 2.18703e-13 -6.11126e-13 6.89087e-13 -4.3235e-13 4.0596e-14 -3.1263e-13 -1.07519e-13 6.32729e-13 7.97906e-14 -4.97558e-13 3.30097e-13 -6.58483e-13 1.68713e-13 -1.75226e-13 7.65591e-14 -3.64416e-13 -1.17035e-12 1.59404e-12 -2.16472e-13 -4.87905e-14 5.36773e-13 -7.70637e-13 1.12619e-12 -5.9698e-13 -5.06885e-13 -4.06914e-13 9.56684e-14 -4.93717e-14 -4.15029e-13 1.65448e-14 2.4862e-13 3.59565e-13 9.09573e-13 -8.3999e-13 -4.13988e-13 8.25861e-13 -4.79453e-13 2.8587e-13 -1.91108e-12 5.73756e-13 3.02317e-13 -5.41417e-13 6.72291e-13 -1.23323e-12 2.09209e-12 -7.90878e-13 -1.24903e-13 2.17002e-11 4.10617e-10 7.59002e-09 1.21303e-07 1.65022e-06 1.88036e-05 0.000175682 0.0013083 0.00747344 0.0312094 0.0913911 0.189161 0.302597 0.417623 0.522287 0.614678 0.700098 0.774243 0.833156 0.884003 0.918557 0.950809 1.00077 0.997471 0.958193 0.898951 0.823595 0.722103 0.589151 0.433325 0.276946 0.148589 0.0646542 0.0229096 0.00699054 0.00194935 0.000512364 0.000128348 3.07479e-05 7.05282e-06 1.54991e-06 3.26504e-07 6.59707e-08 1.27951e-08 2.3828e-09 4.25096e-10 7.47264e-11 1.02794e-11 3.34327e-12 4.68979e-15 -1.9694e-12 1.20044e-12 -2.1207e-12 1.9058e-12 4.37741e-13 -1.82899e-12 1.51295e-12 -7.74761e-13 -6.9034e-13 2.89044e-12 -2.18942e-12 -1.50361e-12 1.77906e-12 -1.84672e-12 3.37022e-12 -1.26362e-12 -5.41564e-13 1.56318e-12 -1.82259e-12 2.97053e-12 -2.03464e-12 1.06273e-12 -1.83669e-12 1.69118e-12 1.81032e-13 -1.06744e-12 -3.00862e-13 -1.2782e-12 1.55964e-12 -6.49358e-13 -7.76302e-13 5.80345e-13 -5.67754e-14 7.44685e-13 -7.5521e-13 -1.4997e-12 2.52073e-12 -1.31092e-12 8.20303e-14 1.89099e-12 -2.14894e-12 2.2927e-12 -1.57995e-12 5.90358e-13 1.16667e-12 -1.95739e-12 1.61161e-12 -1.20135e-12 -4.43933e-13 1.67445e-12 -3.12261e-12 1.64071e-12 -1.98182e-12 1.61102e-13 1.16915e-12 -1.68836e-12 3.07087e-12 -1.99669e-12 -1.56881e-12 4.44704e-12 -2.86121e-12 -1.35554e-12 5.03204e-14 -1.31679e-12 4.01026e-12 -3.2099e-12 1.1914e-12 0 0 9.79225e-15 9.2004e-15 -8.50674e-14 6.41703e-14 -4.09837e-14 -9.80027e-14 -7.21452e-14 1.41733e-14 -4.55844e-14 -1.31347e-13 6.40077e-14 -2.38976e-13 1.91514e-13 -2.46764e-13 2.65643e-14 1.3736e-13 -2.22388e-13 1.82576e-13 -2.52571e-13 -1.50497e-13 -2.97461e-14 9.51734e-14 -3.09055e-14 -7.45139e-14 6.54393e-14 2.441e-13 -1.94755e-13 -1.80593e-13 -1.83306e-13 2.87529e-13 -2.83095e-13 1.41241e-13 -4.85853e-14 -5.8769e-13 2.28868e-13 -1.25145e-13 4.47765e-13 -5.0122e-13 1.64758e-13 -4.17433e-13 1.48772e-13 1.40548e-13 -1.96667e-13 1.14619e-14 3.24454e-13 -5.08286e-13 1.44693e-13 -4.2625e-13 -2.53189e-13 -3.6389e-13 -6.69051e-14 8.39617e-13 -9.38757e-13 5.32637e-13 1.54882e-13 -2.29006e-13 6.80005e-13 -8.88869e-13 3.83567e-13 1.24029e-13 -2.36071e-13 -4.16022e-13 -4.76284e-13 2.76897e-13 2.60447e-13 1.1325e-13 1.64098e-13 -5.94246e-13 7.41712e-13 1.12212e-13 -7.44941e-13 9.66665e-14 -8.23295e-13 6.35935e-13 -8.09528e-13 -6.13517e-13 5.95361e-13 -2.69091e-13 1.09618e-12 -1.19691e-12 1.08792e-12 1.87127e-12 1.79498e-11 4.10442e-10 7.59468e-09 1.21301e-07 1.65022e-06 1.88036e-05 0.000175682 0.0013083 0.00747344 0.0312094 0.0913911 0.189161 0.302597 0.417623 0.522287 0.614678 0.700098 0.774243 0.833156 0.884003 0.918557 0.950809 1.00077 0.997471 0.958193 0.898951 0.823595 0.722103 0.589151 0.433325 0.276946 0.148589 0.0646542 0.0229096 0.00699054 0.00194935 0.000512364 0.000128348 3.07479e-05 7.05282e-06 1.54991e-06 3.26502e-07 6.5973e-08 1.27926e-08 2.38248e-09 4.27498e-10 7.24023e-11 1.30752e-11 5.59589e-13 -2.7833e-13 7.34887e-13 -1.53691e-12 8.88432e-13 -7.01632e-13 -1.89745e-13 1.37355e-12 -1.05705e-12 5.92207e-13 3.75794e-13 -2.31499e-12 1.7348e-12 -3.57545e-14 -1.31291e-12 1.48645e-12 -1.55442e-12 1.92821e-12 5.2337e-13 -1.21718e-12 1.60204e-12 -2.03178e-12 1.72479e-12 -9.76856e-13 1.29097e-12 -1.02e-12 -2.1204e-13 2.59252e-13 -1.56953e-14 -1.19492e-13 -1.38449e-12 9.60549e-14 9.47351e-13 -8.02734e-14 -2.62926e-13 -9.11715e-13 1.41904e-13 1.12205e-12 -1.57513e-12 1.29355e-12 2.56776e-13 -1.17206e-12 1.67142e-12 -1.14917e-12 1.49786e-12 -2.07324e-13 -1.02294e-12 1.18694e-12 -1.19398e-12 1.06199e-12 1.44761e-13 -1.9159e-12 9.70188e-13 -2.06023e-12 8.01282e-13 -1.03875e-13 -1.47181e-12 1.26995e-12 -1.70893e-12 1.93536e-12 7.18416e-13 -3.71187e-12 2.21064e-12 2.87614e-13 -5.35152e-13 5.67773e-13 -3.32329e-12 3.15808e-12 2.0858e-13 0 0 -1.25272e-14 -4.63135e-14 -8.07309e-15 -3.322e-14 -8.43221e-15 -1.57943e-14 -4.97006e-14 -1.03558e-13 -1.14822e-13 -4.45481e-14 -7.27642e-14 6.3403e-14 -1.00203e-13 2.53969e-14 3.6803e-14 -4.14141e-14 -4.02403e-14 -1.4448e-13 -7.13536e-15 -1.22081e-13 -7.95851e-14 -1.76064e-13 2.17682e-14 1.19591e-13 9.30606e-15 -5.41632e-15 -1.55306e-14 -1.4442e-13 -1.72104e-13 -4.07836e-14 -5.55112e-14 1.35322e-14 -6.68077e-14 -5.14599e-14 -1.8531e-13 5.60998e-14 -7.9981e-14 1.52219e-14 -1.61064e-13 5.66216e-15 -1.21936e-13 4.14084e-14 1.35413e-13 -2.39148e-13 -3.96857e-13 -7.12909e-15 -2.17068e-13 2.31072e-13 -6.19054e-14 -3.09577e-13 -1.2665e-13 -3.31231e-13 5.76184e-13 1.35495e-13 -1.63519e-14 1.02666e-14 -6.19579e-13 2.10472e-13 1.28308e-13 1.20513e-13 -8.61103e-15 -3.89268e-13 -3.77629e-14 -2.10853e-13 9.63977e-15 3.17492e-13 -3.30697e-15 -5.58797e-15 -9.94304e-16 -1.12373e-13 1.45585e-13 -2.88078e-13 1.51407e-14 -4.61016e-13 -2.71813e-13 -4.17523e-13 -1.67069e-13 2.99508e-13 -9.29196e-14 4.59896e-14 3.35919e-13 1.11214e-12 1.954e-11 4.1023e-10 7.59344e-09 1.21301e-07 1.65022e-06 1.88036e-05 0.000175682 0.0013083 0.00747344 0.0312094 0.0913911 0.189161 0.302597 0.417623 0.522287 0.614678 0.700098 0.774243 0.833156 0.884003 0.918557 0.950809 1.00077 0.997471 0.958193 0.898951 0.823595 0.722103 0.589151 0.433325 0.276946 0.148589 0.0646542 0.0229096 0.00699054 0.00194935 0.000512364 0.000128348 3.07479e-05 7.05282e-06 1.54991e-06 3.26504e-07 6.59723e-08 1.27936e-08 2.38243e-09 4.25918e-10 7.37137e-11 1.20181e-11 1.60186e-12 -2.69011e-13 -7.57655e-13 2.99174e-13 -3.07085e-13 -2.56198e-13 -4.45809e-14 -7.87669e-14 2.01572e-13 -2.68436e-13 -5.83982e-13 9.82816e-14 6.77296e-14 4.95517e-13 -1.23186e-13 -2.09188e-13 2.60287e-13 1.39968e-13 6.45623e-13 2.17299e-14 9.22905e-14 -1.54821e-13 -5.62564e-13 3.92786e-13 4.30173e-13 2.33228e-13 -7.53535e-13 -1.17298e-12 9.63514e-14 5.54848e-13 6.35471e-13 -5.82734e-13 -9.15849e-13 1.08806e-13 1.65485e-13 1.1871e-15 -5.61502e-14 -2.53088e-13 2.64471e-13 2.12414e-13 -6.76806e-13 3.13046e-13 7.12384e-13 4.05161e-13 3.66626e-14 -1.04577e-12 1.96099e-13 6.38237e-13 6.88912e-13 -6.78399e-13 -8.47425e-13 -1.90519e-13 3.4304e-14 -4.94519e-13 -9.17251e-13 -9.02447e-13 7.77715e-13 4.35517e-13 -7.11567e-13 -4.81003e-13 -7.27475e-13 1.21647e-12 2.13427e-13 3.14527e-13 -1.05828e-12 -1.91124e-13 1.1282e-12 -6.28253e-13 -2.63401e-13 0 0 -3.18889e-14 -2.2416e-14 1.84723e-14 -9.66591e-14 -7.82202e-14 -5.15277e-14 -2.71342e-14 -5.35939e-14 9.38838e-15 1.1349e-14 -7.89837e-14 -9.96742e-15 -1.0308e-13 8.40815e-14 -9.28525e-14 -1.47702e-13 2.41305e-14 -2.47292e-13 -6.58744e-14 3.22355e-14 -5.7566e-14 -1.53335e-13 2.57651e-15 1.24877e-13 3.80938e-14 -1.9326e-13 1.99323e-14 -5.67082e-14 -2.36845e-13 -1.92536e-13 2.86291e-13 -5.27543e-14 -9.45874e-14 1.43449e-13 -1.59696e-13 1.43612e-13 -1.81017e-13 2.28147e-13 -3.44087e-13 -1.79866e-13 -2.77916e-13 -1.72496e-13 2.93598e-13 4.7245e-14 -3.9799e-13 2.14631e-13 -2.5692e-13 -5.59552e-14 -1.43253e-13 1.99411e-14 -2.10155e-13 -3.6895e-13 7.86955e-13 9.9832e-14 -3.13037e-14 5.75809e-15 -5.4637e-13 2.08801e-13 -1.65232e-13 -1.4715e-13 -2.88355e-13 -4.0303e-13 -1.70045e-13 -1.15858e-13 2.20117e-13 2.82824e-13 1.67274e-13 6.53656e-13 -1.91019e-13 2.1742e-14 2.5834e-13 -2.90615e-13 1.85304e-13 -9.09919e-13 8.20552e-14 -3.83792e-13 -7.42401e-13 -1.0722e-13 -1.84816e-14 1.01339e-12 -2.47906e-13 2.21286e-13 2.04244e-11 4.0976e-10 7.59194e-09 1.21302e-07 1.65022e-06 1.88036e-05 0.000175682 0.0013083 0.00747344 0.0312094 0.0913911 0.189161 0.302597 0.417623 0.522287 0.614678 0.700098 0.774243 0.833156 0.884003 0.918557 0.950809 1.00077 0.997471 0.958193 0.898951 0.823595 0.722103 0.589151 0.433325 0.276946 0.148589 0.0646542 0.0229096 0.00699054 0.00194935 0.000512364 0.000128348 3.07479e-05 7.05282e-06 1.54991e-06 3.26504e-07 6.59716e-08 1.2794e-08 2.38253e-09 4.25809e-10 7.38806e-11 1.14444e-11 1.81538e-12 -4.16835e-13 -7.69511e-13 8.93122e-13 -8.63903e-13 -2.12336e-13 -1.58419e-13 -7.58499e-13 1.02709e-12 -4.36214e-13 -6.99887e-13 1.22785e-12 -2.79606e-13 2.26474e-13 1.03335e-12 -1.6372e-12 8.45597e-13 9.99737e-14 9.05412e-13 7.39713e-13 -1.60677e-12 2.75525e-13 -5.67711e-13 7.2051e-13 -1.16191e-12 2.54732e-13 -6.89805e-14 -5.8427e-13 -1.45275e-13 -4.94193e-13 -1.63548e-13 -3.08255e-13 -1.84991e-13 8.17064e-13 1.62517e-14 -1.029e-12 -1.15716e-12 -4.10061e-13 2.08718e-12 1.9916e-13 5.73442e-14 3.58943e-13 -8.3365e-13 7.01856e-13 1.15121e-13 2.12162e-13 -2.09165e-13 -9.61806e-13 9.06266e-13 -4.41144e-13 4.64322e-13 4.53011e-13 -2.36977e-12 1.76115e-13 -5.82762e-13 -5.40624e-13 9.74401e-13 -3.2058e-13 1.25316e-12 -1.71811e-12 -1.07219e-12 2.16527e-12 1.50762e-13 1.44426e-13 -6.94113e-13 -1.65259e-12 1.06868e-12 2.00707e-13 1.18792e-12 0 0 -1.1989e-14 1.4156e-14 -8.99266e-14 2.24126e-14 -7.75995e-14 -1.11691e-13 -3.07164e-14 7.81701e-14 1.61956e-14 -8.16453e-14 5.87384e-14 -2.50452e-13 2.40539e-13 -2.21499e-13 -1.11534e-13 -5.32189e-14 -2.73343e-13 6.33373e-14 -3.10801e-13 -3.61351e-14 3.55284e-14 1.53234e-13 -7.15851e-14 -1.85309e-13 -1.81186e-14 2.97351e-14 -2.93891e-13 -1.48101e-13 -1.35543e-13 2.14302e-13 -7.49127e-15 3.83728e-13 1.87529e-13 -4.58263e-13 1.71788e-13 -1.23966e-13 2.63291e-13 -4.83095e-13 8.89056e-14 -3.90574e-13 -6.00782e-14 -4.80656e-14 -4.19736e-13 -6.84292e-15 2.54803e-13 -4.22067e-13 2.75045e-13 -4.9677e-13 -2.48049e-13 -4.51411e-13 -2.33143e-13 8.90247e-13 -8.87256e-13 5.22174e-13 2.74972e-13 -2.02196e-13 5.98289e-13 -8.58627e-13 1.06195e-13 -1.44416e-13 -4.37204e-13 -4.16785e-13 -3.96511e-13 3.69759e-13 4.15708e-13 2.67479e-13 3.38485e-13 7.36114e-14 6.84634e-13 3.86033e-13 -6.76172e-13 -1.13251e-13 -9.87252e-13 5.43238e-13 -8.21097e-13 -2.77544e-13 2.92346e-13 -4.622e-13 1.08601e-12 -1.09393e-12 6.00221e-13 1.39981e-12 1.80295e-11 4.09909e-10 7.59413e-09 1.21301e-07 1.65022e-06 1.88036e-05 0.000175682 0.0013083 0.00747344 0.0312094 0.0913911 0.189161 0.302597 0.417623 0.522287 0.614678 0.700098 0.774243 0.833156 0.884003 0.918557 0.950809 1.00077 0.997471 0.958193 0.898951 0.823595 0.722103 0.589151 0.433325 0.276946 0.148589 0.0646542 0.0229096 0.00699054 0.00194935 0.000512364 0.000128348 3.07479e-05 7.05282e-06 1.54991e-06 3.26502e-07 6.59726e-08 1.27927e-08 2.38266e-09 4.27502e-10 7.2252e-11 1.27358e-11 4.56481e-13 -3.40698e-14 8.8651e-13 -1.50902e-12 2.04515e-13 -1.13578e-12 -2.05545e-14 1.14192e-12 -7.26406e-13 3.79522e-14 3.01773e-13 -1.27724e-12 1.89178e-12 6.38125e-13 -7.45845e-13 1.06699e-12 -1.195e-12 1.86216e-12 7.37067e-13 -7.33451e-13 1.20782e-12 -2.01787e-12 9.75539e-13 -1.74267e-12 -2.73925e-13 -1.83294e-12 2.73486e-13 6.95543e-13 -6.98611e-13 -7.55463e-13 -1.55883e-12 -8.16459e-14 1.35564e-12 -1.99611e-13 -5.62019e-13 -9.40243e-13 2.31281e-14 1.21449e-12 -1.21533e-12 8.90029e-13 7.30281e-13 -1.1772e-12 6.28435e-13 -1.19833e-12 1.89694e-12 8.69818e-13 -7.43595e-13 -1.58386e-14 -1.80197e-12 1.34806e-12 1.62723e-12 -1.55718e-12 -3.43846e-13 -2.79431e-12 8.47127e-13 4.46823e-13 -9.81684e-13 1.12975e-12 -8.1662e-13 1.05307e-12 7.07674e-13 -3.36282e-12 2.29289e-12 3.40928e-13 -3.18655e-13 -5.6984e-13 -3.10928e-12 4.10731e-12 1.17418e-12 0 0 -1.16459e-14 -4.56716e-14 1.09219e-14 -1.04879e-13 1.31905e-14 9.11643e-14 1.33907e-14 -1.01409e-13 -1.40719e-13 5.69645e-14 -1.84182e-13 2.85775e-13 -2.82211e-13 1.18727e-13 -1.05144e-13 -4.32523e-13 6.58967e-14 -2.86534e-13 1.4074e-13 -1.04202e-13 -6.05966e-14 -2.61459e-13 1.63293e-13 1.63088e-13 -9.723e-14 -4.54302e-13 -2.85757e-13 -6.23458e-14 2.44826e-13 -1.17146e-13 2.36734e-13 1.86299e-13 1.36038e-13 3.63167e-13 -4.93248e-13 4.60377e-14 -7.78003e-13 2.99488e-13 -2.1801e-13 4.65371e-13 -4.18371e-13 -5.69375e-14 -1.29781e-13 -5.29605e-13 -6.34594e-13 5.90142e-14 -3.18072e-13 6.01726e-13 -2.24962e-15 -7.57518e-13 -5.29883e-13 -9.93652e-13 1.2755e-12 -1.66071e-13 2.21292e-13 5.99411e-13 -1.08049e-12 1.19001e-12 -5.64644e-13 -5.08449e-13 -2.49693e-13 1.21667e-13 3.74737e-13 -4.19294e-13 -9.38882e-14 6.26414e-13 3.67178e-13 9.26799e-13 -5.74096e-13 -1.34577e-13 7.3789e-13 -8.94215e-13 -3.8237e-13 -1.19867e-12 -1.5712e-13 9.06799e-13 3.21779e-15 1.09953e-12 -1.40246e-12 3.63264e-13 -5.98633e-13 7.13883e-13 2.00908e-11 4.10489e-10 7.59192e-09 1.21303e-07 1.65022e-06 1.88036e-05 0.000175682 0.0013083 0.00747344 0.0312094 0.0913911 0.189161 0.302597 0.417623 0.522287 0.614678 0.700098 0.774243 0.833156 0.884003 0.918557 0.950809 1.00077 0.997471 0.958193 0.898951 0.823595 0.722103 0.589151 0.433325 0.276946 0.148589 0.0646542 0.0229096 0.00699054 0.00194935 0.000512364 0.000128348 3.07479e-05 7.05282e-06 1.54991e-06 3.26504e-07 6.59711e-08 1.27945e-08 2.38295e-09 4.25322e-10 7.40921e-11 1.07481e-11 2.71001e-12 7.88857e-13 -1.64244e-12 6.83167e-14 -2.37489e-12 9.49785e-13 1.0038e-12 -9.32787e-13 5.23208e-13 -1.54772e-12 -6.0657e-13 2.70681e-12 -1.18079e-12 3.82232e-13 6.00126e-13 1.70378e-13 2.91846e-12 -1.31573e-12 -6.33747e-13 1.09467e-12 7.87088e-13 2.13764e-12 -3.52284e-12 -1.12433e-12 -1.78231e-12 2.22728e-14 -2.17025e-13 -1.37228e-12 -1.18344e-12 -4.52059e-13 2.80899e-12 -1.55372e-12 -1.42144e-12 -1.07485e-12 -3.56494e-13 2.748e-12 1.20925e-12 -1.00088e-12 -4.05099e-13 -2.09146e-12 -4.39261e-13 1.78892e-12 -1.14285e-12 1.601e-12 -9.38701e-13 2.28778e-13 2.53588e-12 -1.16286e-12 -3.9085e-14 -1.10372e-12 -1.0249e-13 1.10483e-12 -9.42529e-13 -1.16872e-12 -2.55911e-12 5.38852e-13 1.75603e-12 -4.56564e-13 9.26048e-13 -1.28706e-12 -9.00855e-13 3.24753e-12 -2.57138e-12 -9.08706e-13 -2.45017e-13 -6.69091e-13 4.55732e-12 -2.96937e-12 2.19949e-13 0
				</DataArray>
				<DataArray Name="VitesseY" type="Float32" format="ascii">