<?xml version="1.0"?>
<VTKFile type="PolyData">
	<PolyData>
		<Piece NumberOfPoints="1206" NumberOfPolys="1000">
			<Points>
				<DataArray type="Float32" NumberOfComponents="3" format="ascii">
 0 0 0 0.005 0 0 0.01 0 0 0.015 0 0 0.02 0 0 0.025 0 0 0.03 0 0 0.035 0 0 0.04 0 0 0.045 0 0 0.05 0 0 0.055 0 0 0.06 0 0 0.065 0 0 0.07 0 0 0.075 0 0 0.08 0 0 0.085 0 0 0.09 0 0 0.095 0 0 0.1 0 0 0.105 0 0 0.11 0 0 0.115 0 0 0.12 0 0 0.125 0 0 0.13 0 0 0.135 0 0 0.14 0 0 0.145 0 0 0.15 0 0 0.155 0 0 0.16 0 0 0.165 0 0 0.17 0 0 0.175 0 0 0.18 0 0 0.185 0 0 0.19 0 0 0.195 0 0 0.2 0 0 0.205 0 0 0.21 0 0 0.215 0 0 0.22 0 0 0.225 0 0 0.23 0 0 0.235 0 0 0.24 0 0 0.245 0 0 0.25 0 0 0.255 0 0 0.26 0 0 0.265 0 0 0.27 0 0 0.275 0 0 0.28 0 0 0.285 0 0 0.29 0 0 0.295 0 0 0.3 0 0 0.305 0 0 0.31 0 0 0.315 0 0 0.32 0 0 0.325 0 0 0.33 0 0 0.335 0 0 0.34 0 0 0.345 0 0 0.35 0 0 0.355 0 0 0.36 0 0 0.365 0 0 0.37 0 0 0.375 0 0 0.38 0 0 0.385 0 0 0.39 0 0 0.395 0 0 0.4 0 0 0.405 0 0 0.41 0 0 0.415 0 0 0.42 0 0 0.425 0 0 0.43 0 0 0.435 0 0 0.44 0 0 0.445 0 0 0.45 0 0 0.455 0 0 0.46 0 0 0.465 0 0 0.47 0 0 0.475 0 0 0.48 0 0 0.485 0 0 0.49 0 0 0.495 0 0 0.5 0 0 0.505 0 0 0.51 0 0 0.515 0 0 0.52 0 0 0.525 0 0 0.53 0 0 0.535 0 0 0.54 0 0 0.545 0 0 0.55 0 0 0.555 0 0 0.56 0 0 0.565 0 0 0.57 0 0 0.575 0 0 0.58 0 0 0.585 0 0 0.59 0 0 0.595 0 0 0.6 0 0 0.605 0 0 0.61 0 0 0.615 0 0 0.62 0 0 0.625 0 0 0.63 0 0 0.635 0 0 0.64 0 0 0.645 0 0 0.65 0 0 0.655 0 0 0.66 0 0 0.665 0 0 0.67 0 0 0.675 0 0 0.68 0 0 0.685 0 0 0.69 0 0 0.695 0 0 0.7 0 0 0.705 0 0 0.71 0 0 0.715 0 0 0.72 0 0 0.725 0 0 0.73 0 0 0.735 0 0 0.74 0 0 0.745 0 0 0.75 0 0 0.755 0 0 0.76 0 0 0.765 0 0 0.77 0 0 0.775 0 0 0.78 0 0 0.785 0 0 0.79 0 0 0.795 0 0 0.8 0 0 0.805 0 0 0.81 0 0 0.815 0 0 0.82 0 0 0.825 0 0 0.83 0 0 0.835 0 0 0.84 0 0 0.845 0 0 0.85 0 0 0.855 0 0 0.86 0 0 0.865 0 0 0.87 0 0 0.875 0 0 0.88 0 0 0.885 0 0 0.89 0 0 0.895 0 0 0.9 0 0 0.905 0 0 0.91 0 0 0.915 0 0 0.92 0 0 0.925 0 0 0.93 0 0 0.935 0 0 0.94 0 0 0.945 0 0 0.95 0 0 0.955 0 0 0.96 0 0 0.965 0 0 0.97 0 0 0.975 0 0 0.98 0 0 0.985 0 0 0.99 0 0 0.995 0 0 1 0 0 0 0.02 0 0.005 0.02 0 0.01 0.02 0 0.015 0.02 0 0.02 0.02 0 0.025 0.02 0 0.03 0.02 0 0.035 0.02 0 0.04 0.02 0 0.045 0.02 0 0.05 0.02 0 0.055 0.02 0 0.06 0.02 0 0.065 0.02 0 0.07 0.02 0 0.075 0.02 0 0.08 0.02 0 0.085 0.02 0 0.09 0.02 0 0.095 0.02 0 0.1 0.02 0 0.105 0.02 0 0.11 0.02 0 0.115 0.02 0 0.12 0.02 0 0.125 0.02 0 0.13 0.02 0 0.135 0.02 0 0.14 0.02 0 0.145 0.02 0 0.15 0.02 0 0.155 0.02 0 0.16 0.02 0 0.165 0.02 0 0.17 0.02 0 0.175 0.02 0 0.18 0.02 0 0.185 0.02 0 0.19 0.02 0 0.195 0.02 0 0.2 0.02 0 0.205 0.02 0 0.21 0.02 0 0.215 0.02 0 0.22 0.02 0 0.225 0.02 0 0.23 0.02 0 0.235 0.02 0 0.24 0.02 0 0.245 0.02 0 0.25 0.02 0 0.255 0.02 0 0.26 0.02 0 0.265 0.02 0 0.27 0.02 0 0.275 0.02 0 0.28 0.02 0 0.285 0.02 0 0.29 0.02 0 0.295 0.02 0 0.3 0.02 0 0.305 0.02 0 0.31 0.02 0 0.315 0.02 0 0.32 0.02 0 0.325 0.02 0 0.33 0.02 0 0.335 0.02 0 0.34 0.02 0 0.345 0.02 0 0.35 0.02 0 0.355 0.02 0 0.36 0.02 0 0.365 0.02 0 0.37 0.02 0 0.375 0.02 0 0.38 0.02 0 0.385 0.02 0 0.39 0.02 0 0.395 0.02 0 0.4 0.02 0 0.405 0.02 0 0.41 0.02 0 0.415 0.02 0 0.42 0.02 0 0.425 0.02 0 0.43 0.02 0 0.435 0.02 0 0.44 0.02 0 0.445 0.02 0 0.45 0.02 0 0.455 0.02 0 0.46 0.02 0 0.465 0.02 0 0.47 0.02 0 0.475 0.02 0 0.48 0.02 0 0.485 0.02 0 0.49 0.02 0 0.495 0.02 0 0.5 0.02 0 0.505 0.02 0 0.51 0.02 0 0.515 0.02 0 0.52 0.02 0 0.525 0.02 0 0.53 0.02 0 0.535 0.02 0 0.54 0.02 0 0.545 0.02 0 0.55 0.02 0 0.555 0.02 0 0.56 0.02 0 0.565 0.02 0 0.57 0.02 0 0.575 0.02 0 0.58 0.02 0 0.585 0.02 0 0.59 0.02 0 0.595 0.02 0 0.6 0.02 0 0.605 0.02 0 0.61 0.02 0 0.615 0.02 0 0.62 0.02 0 0.625 0.02 0 0.63 0.02 0 0.635 0.02 0 0.64 0.02 0 0.645 0.02 0 0.65 0.02 0 0.655 0.02 0 0.66 0.02 0 0.665 0.02 0 0.67 0.02 0 0.675 0.02 0 0.68 0.02 0 0.685 0.02 0 0.69 0.02 0 0.695 0.02 0 0.7 0.02 0 0.705 0.02 0 0.71 0.02 0 0.715 0.02 0 0.72 0.02 0 0.725 0.02 0 0.73 0.02 0 0.735 0.02 0 0.74 0.02 0 0.745 0.02 0 0.75 0.02 0 0.755 0.02 0 0.76 0.02 0 0.765 0.02 0 0.77 0.02 0 0.775 0.02 0 0.78 0.02 0 0.785 0.02 0 0.79 0.02 0 0.795 0.02 0 0.8 0.02 0 0.805 0.02 0 0.81 0.02 0 0.815 0.02 0 0.82 0.02 0 0.825 0.02 0 0.83 0.02 0 0.835 0.02 0 0.84 0.02 0 0.845 0.02 0 0.85 0.02 0 0.855 0.02 0 0.86 0.02 0 0.865 0.02 0 0.87 0.02 0 0.875 0.02 0 0.88 0.02 0 0.885 0.02 0 0.89 0.02 0 0.895 0.02 0 0.9 0.02 0 0.905 0.02 0 0.91 0.02 0 0.915 0.02 0 0.92 0.02 0 0.925 0.02 0 0.93 0.02 0 0.935 0.02 0 0.94 0.02 0 0.945 0.02 0 0.95 0.02 0 0.955 0.02 0 0.96 0.02 0 0.965 0.02 0 0.97 0.02 0 0.975 0.02 0 0.98 0.02 0 0.985 0.02 0 0.99 0.02 0 0.995 0.02 0 1 0.02 0 0 0.04 0 0.005 0.04 0 0.01 0.04 0 0.015 0.04 0 0.02 0.04 0 0.025 0.04 0 0.03 0.04 0 0.035 0.04 0 0.04 0.04 0 0.045 0.04 0 0.05 0.04 0 0.055 0.04 0 0.06 0.04 0 0.065 0.04 0 0.07 0.04 0 0.075 0.04 0 0.08 0.04 0 0.085 0.04 0 0.09 0.04 0 0.095 0.04 0 0.1 0.04 0 0.105 0.04 0 0.11 0.04 0 0.115 0.04 0 0.12 0.04 0 0.125 0.04 0 0.13 0.04 0 0.135 0.04 0 0.14 0.04 0 0.145 0.04 0 0.15 0.04 0 0.155 0.04 0 0.16 0.04 0 0.165 0.04 0 0.17 0.04 0 0.175 0.04 0 0.18 0.04 0 0.185 0.04 0 0.19 0.04 0 0.195 0.04 0 0.2 0.04 0 0.205 0.04 0 0.21 0.04 0 0.215 0.04 0 0.22 0.04 0 0.225 0.04 0 0.23 0.04 0 0.235 0.04 0 0.24 0.04 0 0.245 0.04 0 0.25 0.04 0 0.255 0.04 0 0.26 0.04 0 0.265 0.04 0 0.27 0.04 0 0.275 0.04 0 0.28 0.04 0 0.285 0.04 0 0.29 0.04 0 0.295 0.04 0 0.3 0.04 0 0.305 0.04 0 0.31 0.04 0 0.315 0.04 0 0.32 0.04 0 0.325 0.04 0 0.33 0.04 0 0.335 0.04 0 0.34 0.04 0 0.345 0.04 0 0.35 0.04 0 0.355 0.04 0 0.36 0.04 0 0.365 0.04 0 0.37 0.04 0 0.375 0.04 0 0.38 0.04 0 0.385 0.04 0 0.39 0.04 0 0.395 0.04 0 0.4 0.04 0 0.405 0.04 0 0.41 0.04 0 0.415 0.04 0 0.42 0.04 0 0.425 0.04 0 0.43 0.04 0 0.435 0.04 0 0.44 0.04 0 0.445 0.04 0 0.45 0.04 0 0.455 0.04 0 0.46 0.04 0 0.465 0.04 0 0.47 0.04 0 0.475 0.04 0 0.48 0.04 0 0.485 0.04 0 0.49 0.04 0 0.495 0.04 0 0.5 0.04 0 0.505 0.04 0 0.51 0.04 0 0.515 0.04 0 0.52 0.04 0 0.525 0.04 0 0.53 0.04 0 0.535 0.04 0 0.54 0.04 0 0.545 0.04 0 0.55 0.04 0 0.555 0.04 0 0.56 0.04 0 0.565 0.04 0 0.57 0.04 0 0.575 0.04 0 0.58 0.04 0 0.585 0.04 0 0.59 0.04 0 0.595 0.04 0 0.6 0.04 0 0.605 0.04 0 0.61 0.04 0 0.615 0.04 0 0.62 0.04 0 0.625 0.04 0 0.63 0.04 0 0.635 0.04 0 0.64 0.04 0 0.645 0.04 0 0.65 0.04 0 0.655 0.04 0 0.66 0.04 0 0.665 0.04 0 0.67 0.04 0 0.675 0.04 0 0.68 0.04 0 0.685 0.04 0 0.69 0.04 0 0.695 0.04 0 0.7 0.04 0 0.705 0.04 0 0.71 0.04 0 0.715 0.04 0 0.72 0.04 0 0.725 0.04 0 0.73 0.04 0 0.735 0.04 0 0.74 0.04 0 0.745 0.04 0 0.75 0.04 0 0.755 0.04 0 0.76 0.04 0 0.765 0.04 0 0.77 0.04 0 0.775 0.04 0 0.78 0.04 0 0.785 0.04 0 0.79 0.04 0 0.795 0.04 0 0.8 0.04 0 0.805 0.04 0 0.81 0.04 0 0.815 0.04 0 0.82 0.04 0 0.825 0.04 0 0.83 0.04 0 0.835 0.04 0 0.84 0.04 0 0.845 0.04 0 0.85 0.04 0 0.855 0.04 0 0.86 0.04 0 0.865 0.04 0 0.87 0.04 0 0.875 0.04 0 0.88 0.04 0 0.885 0.04 0 0.89 0.04 0 0.895 0.04 0 0.9 0.04 0 0.905 0.04 0 0.91 0.04 0 0.915 0.04 0 0.92 0.04 0 0.925 0.04 0 0.93 0.04 0 0.935 0.04 0 0.94 0.04 0 0.945 0.04 0 0.95 0.04 0 0.955 0.04 0 0.96 0.04 0 0.965 0.04 0 0.97 0.04 0 0.975 0.04 0 0.98 0.04 0 0.985 0.04 0 0.99 0.04 0 0.995 0.04 0 1 0.04 0 0 0.06 0 0.005 0.06 0 0.01 0.06 0 0.015 0.06 0 0.02 0.06 0 0.025 0.06 0 0.03 0.06 0 0.035 0.06 0 0.04 0.06 0 0.045 0.06 0 0.05 0.06 0 0.055 0.06 0 0.06 0.06 0 0.065 0.06 0 0.07 0.06 0 0.075 0.06 0 0.08 0.06 0 0.085 0.06 0 0.09 0.06 0 0.095 0.06 0 0.1 0.06 0 0.105 0.06 0 0.11 0.06 0 0.115 0.06 0 0.12 0.06 0 0.125 0.06 0 0.13 0.06 0 0.135 0.06 0 0.14 0.06 0 0.145 0.06 0 0.15 0.06 0 0.155 0.06 0 0.16 0.06 0 0.165 0.06 0 0.17 0.06 0 0.175 0.06 0 0.18 0.06 0 0.185 0.06 0 0.19 0.06 0 0.195 0.06 0 0.2 0.06 0 0.205 0.06 0 0.21 0.06 0 0.215 0.06 0 0.22 0.06 0 0.225 0.06 0 0.23 0.06 0 0.235 0.06 0 0.24 0.06 0 0.245 0.06 0 0.25 0.06 0 0.255 0.06 0 0.26 0.06 0 0.265 0.06 0 0.27 0.06 0 0.275 0.06 0 0.28 0.06 0 0.285 0.06 0 0.29 0.06 0 0.295 0.06 0 0.3 0.06 0 0.305 0.06 0 0.31 0.06 0 0.315 0.06 0 0.32 0.06 0 0.325 0.06 0 0.33 0.06 0 0.335 0.06 0 0.34 0.06 0 0.345 0.06 0 0.35 0.06 0 0.355 0.06 0 0.36 0.06 0 0.365 0.06 0 0.37 0.06 0 0.375 0.06 0 0.38 0.06 0 0.385 0.06 0 0.39 0.06 0 0.395 0.06 0 0.4 0.06 0 0.405 0.06 0 0.41 0.06 0 0.415 0.06 0 0.42 0.06 0 0.425 0.06 0 0.43 0.06 0 0.435 0.06 0 0.44 0.06 0 0.445 0.06 0 0.45 0.06 0 0.455 0.06 0 0.46 0.06 0 0.465 0.06 0 0.47 0.06 0 0.475 0.06 0 0.48 0.06 0 0.485 0.06 0 0.49 0.06 0 0.495 0.06 0 0.5 0.06 0 0.505 0.06 0 0.51 0.06 0 0.515 0.06 0 0.52 0.06 0 0.525 0.06 0 0.53 0.06 0 0.535 0.06 0 0.54 0.06 0 0.545 0.06 0 0.55 0.06 0 0.555 0.06 0 0.56 0.06 0 0.565 0.06 0 0.57 0.06 0 0.575 0.06 0 0.58 0.06 0 0.585 0.06 0 0.59 0.06 0 0.595 0.06 0 0.6 0.06 0 0.605 0.06 0 0.61 0.06 0 0.615 0.06 0 0.62 0.06 0 0.625 0.06 0 0.63 0.06 0 0.635 0.06 0 0.64 0.06 0 0.645 0.06 0 0.65 0.06 0 0.655 0.06 0 0.66 0.06 0 0.665 0.06 0 0.67 0.06 0 0.675 0.06 0 0.68 0.06 0 0.685 0.06 0 0.69 0.06 0 0.695 0.06 0 0.7 0.06 0 0.705 0.06 0 0.71 0.06 0 0.715 0.06 0 0.72 0.06 0 0.725 0.06 0 0.73 0.06 0 0.735 0.06 0 0.74 0.06 0 0.745 0.06 0 0.75 0.06 0 0.755 0.06 0 0.76 0.06 0 0.765 0.06 0 0.77 0.06 0 0.775 0.06 0 0.78 0.06 0 0.785 0.06 0 0.79 0.06 0 0.795 0.06 0 0.8 0.06 0 0.805 0.06 0 0.81 0.06 0 0.815 0.06 0 0.82 0.06 0 0.825 0.06 0 0.83 0.06 0 0.835 0.06 0 0.84 0.06 0 0.845 0.06 0 0.85 0.06 0 0.855 0.06 0 0.86 0.06 0 0.865 0.06 0 0.87 0.06 0 0.875 0.06 0 0.88 0.06 0 0.885 0.06 0 0.89 0.06 0 0.895 0.06 0 0.9 0.06 0 0.905 0.06 0 0.91 0.06 0 0.915 0.06 0 0.92 0.06 0 0.925 0.06 0 0.93 0.06 0 0.935 0.06 0 0.94 0.06 0 0.945 0.06 0 0.95 0.06 0 0.955 0.06 0 0.96 0.06 0 0.965 0.06 0 0.97 0.06 0 0.975 0.06 0 0.98 0.06 0 0.985 0.06 0 0.99 0.06 0 0.995 0.06 0 1 0.06 0 0 0.08 0 0.005 0.08 0 0.01 0.08 0 0.015 0.08 0 0.02 0.08 0 0.025 0.08 0 0.03 0.08 0 0.035 0.08 0 0.04 0.08 0 0.045 0.08 0 0.05 0.08 0 0.055 0.08 0 0.06 0.08 0 0.065 0.08 0 0.07 0.08 0 0.075 0.08 0 0.08 0.08 0 0.085 0.08 0 0.09 0.08 0 0.095 0.08 0 0.1 0.08 0 0.105 0.08 0 0.11 0.08 0 0.115 0.08 0 0.12 0.08 0 0.125 0.08 0 0.13 0.08 0 0.135 0.08 0 0.14 0.08 0 0.145 0.08 0 0.15 0.08 0 0.155 0.08 0 0.16 0.08 0 0.165 0.08 0
[...]
			<PointData Scalars="VitesseX">
				<DataArray Name="VitesseX" type="Float32" format="ascii">
 0 1.17898e-16 -8.16716e-15 -2.0217e-15 4.99827e-14 -4.75215e-14 -9.62637e-14 2.62166e-14 -3.6499e-15 8.54467e-14 -8.81805e-14 -3.44385e-14 -1.25417e-13 8.28692e-15 -8.38347e-14 -1.3884e-13 7.85671e-14 -2.49102e-14 -1.67755e-14 -1.77903e-13 -1.19581e-13 -1.81073e-14 6.30521e-14 -1.52726e-13 -1.69826e-13 -1.35899e-13 1.75764e-13 -9.45937e-14 -1.80977e-13 -9.64303e-14 9.89415e-14 -4.46372e-14 8.46965e-14 -5.69575e-14 -1.87258e-13 5.80376e-14 -1.54899e-13 7.0281e-14 -2.35899e-13 -1.85183e-13 -2.68207e-13 -4.28683e-14 -2.3148e-13 -4.23877e-13 -2.32613e-13 1.51442e-13 1.24884e-13 -2.36231e-14 -1.85997e-13 -1.98275e-13 9.34368e-14 7.15896e-13 6.32683e-14 -5.62502e-13 -5.22468e-13 -1.99781e-14 -8.61169e-14 -1.2654e-13 -3.59001e-14 2.9496e-14 1.62248e-14 3.32496e-13 -1.20793e-13 -2.49672e-14 2.19291e-13 -1.72612e-13 -2.01724e-13 -5.76481e-13 -1.22835e-13 8.67981e-15 -2.29242e-13 -1.96415e-13 4.69852e-13 5.87659e-12 6.92555e-11 7.81522e-10 8.07142e-09 7.52966e-08 6.29955e-07 4.68809e-06 3.07258e-05 0.000175175 0.000855287 0.00350614 0.011788 0.0317971 0.0682732 0.119223 0.177973 0.239598 0.301977 0.364186 0.425022 0.483733 0.540504 0.595396 0.648153 0.698461 0.745728 0.789206 0.828033 0.861186 0.887986 0.908128 0.921904 0.930602 0.935856 0.939529 0.943571 0.949399 0.958051 0.976084 0.974572 0.961051 0.945143 0.932713 0.920285 0.90336 0.875801 0.830963 0.762664 0.667123 0.545778 0.407972 0.271285 0.156786 0.0771849 0.0325375 0.0122079 0.00427135 0.00143581 0.000469771 0.000150262 4.70372e-05 1.44091e-05 4.31796e-06 1.26531e-06 3.62455e-07 1.01471e-07 2.77575e-08 7.41936e-09 1.9377e-09 4.93332e-10 1.23878e-10 3.04348e-11 6.9101e-12 1.79915e-12 -4.69705e-13 3.05632e-13 7.14446e-13 -1.32106e-12 4.13827e-13 -8.41148e-13 1.11093e-12 -4.14009e-13 4.35847e-13 -9.34979e-13 -8.36644e-14 9.53019e-13 -5.88512e-15 -2.15348e-13 -1.35121e-12 3.08119e-13 9.32557e-13 -3.55545e-13 -3.46741e-13 -4.22138e-13 5.48216e-13 6.82747e-13 -1.29892e-12 7.93784e-13 3.85509e-13 -7.17044e-13 7.08737e-13 -1.23093e-12 8.23592e-13 -1.52716e-13 -7.51057e-13 6.36954e-14 -9.17217e-13 8.24926e-13 -1.47984e-13 -6.99527e-13 1.71741e-13 -3.72131e-13 1.06592e-12 -3.5318e-13 -9.72855e-13 -4.3381e-13 -6.92433e-13 1.06648e-12 -2.65975e-13 -2.33277e-12 2.87175e-13 1.1729e-12 2.61525e-13 -7.87941e-13 -2.77656e-12 1.8115e-12 9.85669e-13 0 0 -1.18197e-14 -8.58498e-16 1.81097e-16 -5.06508e-14 2.01106e-14 5.95611e-14 -2.22101e-14 5.47786e-15 -7.55485e-14 1.59304e-14 -2.40799e-14 -4.74958e-15 -1.12529e-13 -8.02075e-14 -7.26326e-15 -1.24825e-13 -2.87512e-14 -5.83114e-14 3.48551e-14 -3.27394e-14 -1.11461e-13 -1.79481e-13 -2.70674e-14 7.0744e-14 -7.18452e-14 -2.72498e-13 -1.12712e-14 -2.95954e-14 3.0311e-14 -7.07477e-14 2.27353e-14 -1.17369e-13 -4.34015e-15 1.41813e-13 -1.55737e-13 -6.38049e-14 -1.9178e-13 -6.03199e-14 -1.72953e-13 -6.75271e-14 -3.647e-13 -3.44318e-14 5.31205e-14 -2.05689e-13 -2.93252e-13 -8.46802e-15 6.13276e-14 1.625e-13 3.03363e-13 1.39647e-13 -3.76158e-13 -2.00953e-13 8.90502e-14 1.61041e-14 -4.04543e-13 -1.19335e-13 -1.07186e-13 -8.41586e-14 1.54631e-14 4.68662e-14 -8.6742e-14 1.46008e-13 5.90958e-14 -3.57916e-13 -2.66302e-14 -1.14188e-13 -9.32228e-14 -9.25917e-14 -3.8616e-13 -1.78628e-13 2.15672e-13 8.27507e-13 5.83315e-12 6.87269e-11 7.81782e-10 8.07212e-09 7.52963e-08 6.29955e-07 4.68809e-06 3.07258e-05 0.000175175 0.000855287 0.00350614 0.011788 0.0317971 0.0682732 0.119223 0.177973 0.239598 0.301977 0.364186 0.425022 0.483733 0.540504 0.595396 0.648153 0.698461 0.745728 0.789206 0.828033 0.861186 0.887986 0.908128 0.921904 0.930602 0.935856 0.939529 0.943571 0.949399 0.958051 0.976084 0.974572 0.961051 0.945143 0.932713 0.920285 0.90336 0.875801 0.830963 0.762664 0.667123 0.545778 0.407972 0.271285 0.156786 0.0771849 0.0325375 0.0122079 0.00427135 0.00143581 0.000469771 0.000150262 4.70372e-05 1.44091e-05 4.31796e-06 1.26531e-06 3.62455e-07 1.0147e-07 2.77585e-08 7.4189e-09 1.93745e-09 4.95224e-10 1.22667e-10 2.9875e-11 7.34077e-12 1.48247e-12 1.01958e-12 -6.8471e-13 -5.92998e-13 6.9128e-13 -4.38554e-13 3.27147e-13 -9.39201e-13 5.18945e-13 -4.97253e-13 5.18202e-13 9.87671e-14 -7.35657e-13 -3.64128e-13 -1.04537e-13 7.25886e-13 -2.28221e-13 -9.69714e-13 -1.26865e-14 1.69492e-13 3.34395e-13 -1.30256e-13 -4.34745e-13 1.10924e-12 -4.87233e-13 -6.62597e-14 5.1362e-13 -7.8242e-13 7.0194e-13 -7.49353e-13 -3.35643e-13 5.12326e-14 -3.84688e-13 1.63812e-13 -8.8167e-13 -2.15736e-13 7.22232e-13 1.344e-13 4.20871e-13 -8.93038e-13 -9.17097e-14 2.05323e-13 -1.21915e-13 1.63074e-13 -1.47856e-12 -4.80168e-13 1.25067e-12 -7.46794e-13 -7.60546e-13 -4.38034e-13 1.73793e-14 1.29266e-12 -1.73643e-12 -5.72462e-13 0 0 1.09098e-14 7.9152e-15 8.6045e-15 -4.84103e-15 1.70114e-14 1.54439e-14 3.5935e-14 1.50001e-15 1.11337e-14 -1.94811e-14 -3.66742e-14 -5.36649e-14 -4.26864e-14 -8.06637e-14 -6.30327e-14 -2.30594e-14 -1.42164e-13 7.29298e-14 -7.34314e-14 -8.61295e-14 -7.35843e-14 -2.42e-14 -7.26536e-14 -1.2659e-13 -1.03954e-13 2.80183e-14 -1.74732e-13 -3.38625e-14 -5.9217e-14 1.1321e-13 -2.34043e-14 3.12778e-14 1.79647e-14 -2.47933e-13 3.70183e-14 -3.05657e-14 2.63773e-14 -1.80285e-13 -2.31907e-13 -1.74587e-13 -7.07603e-14 4.14229e-14 -1.08471e-13 -3.5893e-14 -2.3774e-14 -4.14436e-14 -2.7099e-14 4.04816e-14 -6.49373e-14 -1.22068e-13 1.15146e-13 5.27761e-14 -1.38062e-13 -2.0386e-13 -4.87508e-14 -1.20611e-13 -2.8561e-13 -1.25078e-13 1.01946e-13 9.3099e-14 -4.18236e-14 -2.25814e-13 -6.91858e-14 -9.23685e-14 -6.58833e-14 -9.56208e-14 -1.19288e-13 -1.38461e-13 -1.20449e-13 -2.21556e-14 1.31113e-13 6.99735e-13 6.1079e-12 6.91466e-11 7.81958e-10 8.07162e-09 7.52961e-08 6.29956e-07 4.68809e-06 3.07258e-05 0.000175175 0.000855287 0.00350614 0.011788 0.0317971 0.0682732 0.119223 0.177973 0.239598 0.301977 0.364186 0.425022 0.483733 0.540504 0.595396 0.648153 0.698461 0.745728 0.789206 0.828033 0.861186 0.887986 0.908128 0.921904 0.930602 0.935856 0.939529 0.943571 0.949399 0.958051 0.976084 0.974572 0.961051 0.945143 0.932713 0.920285 0.90336 0.875801 0.830963 0.762664 0.667123 0.545778 0.407972 0.271285 0.156786 0.0771849 0.0325375 0.0122079 0.00427135 0.00143581 0.000469771 0.000150262 4.70372e-05 1.44091e-05 4.31796e-06 1.26531e-06 3.62454e-07 1.01471e-07 2.7758e-08 7.41937e-09 1.9376e-09 4.94339e-10 1.23576e-10 2.99493e-11 7.01939e-12 1.72956e-12 -4.51365e-14 2.27492e-13 2.96833e-13 -2.37598e-13 1.52809e-13 -6.60961e-13 -1.18458e-13 -3.13479e-13 3.16443e-13 -4.41014e-13 -2.7109e-13 -1.10151e-13 -1.74549e-13 -1.93032e-13 -7.1431e-13 -1.66548e-13 1.14958e-13 4.34292e-14 -2.27247e-13 -5.85709e-13 -2.96611e-14 6.24299e-13 1.10885e-13 4.54504e-13 4.23173e-14 -4.57864e-13 1.0658e-13 -2.13044e-13 -3.13382e-13 -3.71652e-13 -2.85911e-13 -1.07089e-13 -3.90152e-14 -3.50226e-13 2.73672e-13 -2.68816e-13 6.9141e-13 -2.37895e-13 -1.37681e-14 -3.65919e-14 -1.25067e-13 1.67706e-13 -3.26897e-13 -4.57464e-13 -2.24647e-13 -4.19394e-13 3.02483e-13 -1.32194e-13 -4.65563e-13 -5.58407e-13 -6.75054e-13 1.17738e-12 2.5333e-13 0 0 9.33991e-16 4.5363e-14 5.41092e-14 7.37836e-14 2.28128e-14 -2.07464e-14 2.92326e-14 -1.70081e-14 1.80308e-14 -1.05829e-13 4.55639e-15 -4.59126e-14 -3.95577e-14 -7.8145e-14 -6.57135e-14 -2.64156e-14 2.39227e-14 -9.23013e-14 -1.17823e-13 -9.12975e-14 -5.99593e-14 -1.95974e-14 -1.17031e-13 -4.47944e-14 -3.07904e-14 3.55178e-14 -6.15344e-14 -1.53552e-13 1.87534e-14 1.13677e-13 -3.83774e-14 -2.59191e-14 -1.71909e-13 -1.85202e-13 -5.33555e-14 -1.82762e-14 2.1416e-14 -1.6384e-13 -5.53612e-14 -9.14987e-14 8.55238e-14 -2.9551e-13 -1.99021e-13 -9.18486e-14 -3.68759e-14 7.80827e-14 3.87488e-14 -2.90071e-13 -5.82688e-14 -5.53475e-14 3.65402e-13 -1.25227e-14 -3.85398e-13 -3.91152e-13 -3.67432e-14 -6.25647e-14 -1.23183e-13 -9.56424e-14 5.22682e-14 -6.13706e-14 2.70207e-13 5.94605e-14 -7.44928e-14 3.34302e-14 -1.62004e-13 -2.37247e-13 -3.64621e-13 -1.21645e-13 -1.01668e-13 1.0726e-13 -7.06128e-14 5.81185e-13 6.37751e-12 6.9386e-11 7.81755e-10 8.07194e-09 7.52963e-08 6.29955e-07 4.68809e-06 3.07258e-05 0.000175175 0.000855287 0.00350614 0.011788 0.0317971 0.0682732 0.119223 0.177973 0.239598 0.301977 0.364186 0.425022 0.483733 0.540504 0.595396 0.648153 0.698461 0.745728 0.789206 0.828033 0.861186 0.887986 0.908128 0.921904 0.930602 0.935856 0.939529 0.943571 0.949399 0.958051 0.976084 0.974572 0.961051 0.945143 0.932713 0.920285 0.90336 0.875801 0.830963 0.762664 0.667123 0.545778 0.407972 0.271285 0.156786 0.0771849 0.0325375 0.0122079 0.00427135 0.00143581 0.000469771 0.000150262 4.70372e-05 1.44091e-05 4.31796e-06 1.26531e-06 3.62455e-07 1.01471e-07 2.77581e-08 7.41927e-09 1.93759e-09 4.94181e-10 1.23458e-10 3.02042e-11 7.09495e-12 1.54399e-12 2.0913e-13 1.91043e-13 3.92992e-13 -2.49518e-13 -4.89374e-13 -2.81603e-13 5.22749e-13 -2.06779e-13 -3.50708e-13 -6.13364e-13 -7.37009e-13 5.57882e-13 -2.8504e-14 -2.96689e-13 -1.85231e-12 2.69572e-13 2.46885e-13 -1.98286e-13 -5.84201e-14 -2.87692e-13 4.89762e-13 2.37344e-13 -1.40226e-13 -2.27714e-13 -1.10029e-13 -5.83792e-13 5.07228e-13 -9.28582e-13 2.102e-13 2.46889e-13 -6.32562e-13 -6.26656e-13 -1.57164e-13 4.52371e-13 3.52504e-13 -1.32171e-13 -7.56593e-15 -1.48255e-14 3.04996e-13 -1.33058e-13 2.0344e-13 -3.88744e-13 -1.8755e-13 -1.18884e-13 -8.21984e-13 -4.37878e-13 1.50929e-13 4.12096e-13 1.78962e-13 -1.04008e-12 -1.37787e-12 1.33505e-12 1.25794e-12 0 0 9.10445e-15 5.93171e-14 5.89056e-14 3.22369e-14 5.96268e-14 6.51042e-14 -2.83877e-14 -3.26411e-15 -9.61069e-14 -6.13614e-14 -1.07941e-14 2.7733e-14 -1.08233e-13 -4.74854e-14 -1.94227e-14 -1.24871e-13 6.59421e-14 -1.1486e-13 1.35083e-14 -7.8566e-14 -1.08824e-13 -1.88754e-13 -4.91901e-15 1.47499e-13 8.90998e-14 -1.7347e-13 7.19374e-14 -4.24693e-14 3.61331e-14 -2.27454e-13 -1.00503e-13 -1.6605e-13 -1.67902e-13 1.88906e-13 -1.95654e-13 -1.697e-13 -1.46277e-13 -3.63281e-14 -3.14866e-14 8.3416e-14 -2.41419e-13 -2.17982e-13 8.14856e-14 -1.78965e-13 -2.13161e-13 2.79141e-14 5.88199e-14 5.41296e-14 2.56462e-13 9.06725e-14 -4.38033e-13 -1.71242e-13 6.53643e-14 -9.61653e-14 -3.83134e-13 -2.14725e-13 -1.71061e-13 -1.30468e-13 -1.28255e-13 5.87368e-14 2.14261e-13 3.93607e-13 2.12672e-14 -2.93882e-13 -1.03886e-13 -2.37e-13 -1.35284e-13 -2.54178e-13 -2.40284e-13 1.49377e-13 4.73211e-13 9.89747e-13 6.15943e-12 6.8935e-11 7.81752e-10 8.07233e-09 7.52963e-08 6.29955e-07 4.68809e-06 3.07258e-05 0.000175175 0.000855287 0.00350614 0.011788 0.0317971 0.0682732 0.119223 0.177973 0.239598 0.301977 0.364186 0.425022 0.483733 0.540504 0.595396 0.648153 0.698461 0.745728 0.789206 0.828033 0.861186 0.887986 0.908128 0.921904 0.930602 0.935856 0.939529 0.943571 0.949399 0.958051 0.976084 0.974572 0.961051 0.945143 0.932713 0.920285 0.90336 0.875801 0.830963 0.762664 0.667123 0.545778 0.407972 0.271285 0.156786 0.0771849 0.0325375 0.0122079 0.00427135 0.00143581 0.000469771 0.000150262 4.70372e-05 1.44091e-05 4.31796e-06 1.26531e-06 3.62455e-07 1.01471e-07 2.77588e-08 7.41914e-09 1.93734e-09 4.95168e-10 1.22632e-10 3.02909e-11 7.28041e-12 1.10593e-12 1.03602e-12 -4.8601e-13 -7.28866e-13 7.42687e-13 -8.70149e-13 6.10486e-13 -3.4163e-13 4.74564e-13 -9.97287e-13 2.3712e-13 -3.52477e-13 -5.28582e-13 -2.95892e-13 -1.83439e-15 9.72824e-14 -2.14615e-13 -1.24971e-12 -2.9649e-13 2.20824e-13 1.13237e-12 7.59565e-14 -1.00719e-12 7.92945e-13 -9.19017e-13 -4.96879e-13 5.90033e-13 -5.97281e-13 4.26556e-13 -7.62031e-13 -2.35541e-13 -3.07784e-13 -1.02562e-12 1.42064e-13 -5.78464e-13 5.03793e-13 8.59466e-13 2.64877e-13 5.48245e-13 -9.41017e-13 -4.91876e-14 3.85234e-13 -7.02595e-13 7.25791e-14 -9.79601e-13 -2.13586e-13 1.33254e-12 -7.64532e-13 -9.18707e-13 -2.64293e-13 -6.45475e-14 1.37761e-12 -1.44235e-12 1.7991e-15 0 0 6.19179e-14 3.72885e-14 2.44179e-14 5.85089e-14 1.9908e-14 -1.2797e-14 2.72662e-14 1.58823e-14 3.05355e-14 -7.00684e-14 -9.03281e-14 -7.59563e-14 1.06215e-14 -2.34279e-14 -1.57798e-13 8.51874e-14 -1.67696e-13 2.00589e-13 -1.31814e-13 -2.00898e-13 -4.00826e-14 3.53015e-14 -1.96749e-14 -1.79908e-13 3.96629e-14 3.5882e-13 -1.54571e-13 3.26541e-14 -2.40727e-13 -2.15404e-13 -2.61168e-13 1.01728e-13 -4.3342e-15 -2.18534e-13 1.58951e-13 -3.91268e-13 1.71211e-13 -2.20806e-13 -2.55341e-13 -1.32497e-13 -1.08874e-13 7.52865e-14 -1.86046e-13 -6.72535e-14 3.37828e-13 -4.1404e-14 -1.60334e-13 2.58367e-13 -3.05415e-13 -1.37952e-13 9.16355e-14 2.53289e-13 -1.152e-13 -3.72421e-13 -1.17613e-15 -3.92991e-13 -5.79142e-13 -1.8739e-13 -1.58583e-13 3.48905e-13 3.1044e-13 -1.96143e-13 -9.00106e-14 9.57593e-14 -1.34882e-13 -1.64097e-13 -1.69937e-13 -4.79639e-13 2.62872e-13 1.67936e-13 7.22115e-13 1.03143e-12 5.98992e-12 6.9193e-11 7.81867e-10 8.07119e-09 7.52965e-08 6.29956e-07 4.68809e-06 3.07258e-05 0.000175175 0.000855287 0.00350614 0.011788 0.0317971 0.0682732 0.119223 0.177973 0.239598 0.301977 0.364186 0.425022 0.483733 0.540504 0.595396 0.648153 0.698461 0.745728 0.789206 0.828033 0.861186 0.887986 0.908128 0.921904 0.930602 0.935856 0.939529 0.943571 0.949399 0.958051 0.976084 0.974572 0.961051 0.945143 0.932713 0.920285 0.90336 0.875801 0.830963 0.762664 0.667123 0.545778 0.407972 0.271285 0.156786 0.0771849 0.0325375 0.0122079 0.00427135 0.00143581 0.000469771 0.000150262 4.70372e-05 1.44091e-05 4.31796e-06 1.26531e-06 3.62455e-07 1.01472e-07 2.77579e-08 7.42003e-09 1.93749e-09 4.93536e-10 1.24043e-10 3.07569e-11 6.63825e-12 1.4172e-12 -9.45366e-13 7.7593e-13 2.50393e-13 -1.19441e-12 8.35004e-13 -1.03318e-12 1.02365e-12 -7.1617e-13 7.70081e-13 -1.15244e-12 -5.43155e-14 3.11022e-14 -1.61502e-13 1.97371e-13 -3.32428e-13 -5.3691e-13 1.08715e-13 -4.39722e-13 -5.8173e-13 5.77784e-13 -7.8207e-14 3.11772e-13 -1.42928e-12 1.29465e-12 -1.71035e-13 -3.12362e-13 2.77719e-13 -3.50627e-13 -2.48929e-13 -1.1896e-12 -7.75789e-13 -1.79029e-13 -7.24416e-13 -1.73855e-13 1.13341e-12 -6.98347e-13 1.83065e-12 -5.63523e-13 3.32439e-13 -7.52031e-14 -1.27005e-12 -4.82269e-13 -1.15212e-12 1.38724e-12 1.46186e-12 -2.13206e-12 5.54807e-13 -2.32001e-13 -6.80043e-13 1.1554e-14 -1.20103e-12 2.08431e-12 1.24981e-13 0
				</DataArray>
				<DataArray Name="VitesseY" type="Float32" format="ascii">