<?xml version="1.0"?>
<VTKFile type="PolyData">
	<PolyData>
		<Piece NumberOfPoints="1206" NumberOfPolys="1000">
			<Points>
				<DataArray type="Float32" NumberOfComponents="3" format="ascii">
 0 0 0 0.005 0 0 0.01 0 0 0.015 0 0 0.02 0 0 0.025 0 0 0.03 0 0 0.035 0 0 0.04 0 0 0.045 0 0 0.05 0 0 0.055 0 0 0.06 0 0 0.065 0 0 0.07 0 0 0.075 0 0 0.08 0 0 0.085 0 0 0.09 0 0 0.095 0 0 0.1 0 0 0.105 0 0 0.11 0 0 0.115 0 0 0.12 0 0 0.125 0 0 0.13 0 0 0.135 0 0 0.14 0 0 0.145 0 0 0.15 0 0 0.155 0 0 0.16 0 0 0.165 0 0 0.17 0 0 0.175 0 0 0.18 0 0 0.185 0 0 0.19 0 0 0.195 0 0 0.2 0 0 0.205 0 0 0.21 0 0 0.215 0 0 0.22 0 0 0.225 0 0 0.23 0 0 0.235 0 0 0.24 0 0 0.245 0 0 0.25 0 0 0.255 0 0 0.26 0 0 0.265 0 0 0.27 0 0 0.275 0 0 0.28 0 0 0.285 0 0 0.29 0 0 0.295 0 0 0.3 0 0 0.305 0 0 0.31 0 0 0.315 0 0 0.32 0 0 0.325 0 0 0.33 0 0 0.335 0 0 0.34 0 0 0.345 0 0 0.35 0 0 0.355 0 0 0.36 0 0 0.365 0 0 0.37 0 0 0.375 0 0 0.38 0 0 0.385 0 0 0.39 0 0 0.395 0 0 0.4 0 0 0.405 0 0 0.41 0 0 0.415 0 0 0.42 0 0 0.425 0 0 0.43 0 0 0.435 0 0 0.44 0 0 0.445 0 0 0.45 0 0 0.455 0 0 0.46 0 0 0.465 0 0 0.47 0 0 0.475 0 0 0.48 0 0 0.485 0 0 0.49 0 0 0.495 0 0 0.5 0 0 0.505 0 0 0.51 0 0 0.515 0 0 0.52 0 0 0.525 0 0 0.53 0 0 0.535 0 0 0.54 0 0 0.545 0 0 0.55 0 0 0.555 0 0 0.56 0 0 0.565 0 0 0.57 0 0 0.575 0 0 0.58 0 0 0.585 0 0 0.59 0 0 0.595 0 0 0.6 0 0 0.605 0 0 0.61 0 0 0.615 0 0 0.62 0 0 0.625 0 0 0.63 0 0 0.635 0 0 0.64 0 0 0.645 0 0 0.65 0 0 0.655 0 0 0.66 0 0 0.665 0 0 0.67 0 0 0.675 0 0 0.68 0 0 0.685 0 0 0.69 0 0 0.695 0 0 0.7 0 0 0.705 0 0 0.71 0 0 0.715 0 0 0.72 0 0 0.725 0 0 0.73 0 0 0.735 0 0 0.74 0 0 0.745 0 0 0.75 0 0 0.755 0 0 0.76 0 0 0.765 0 0 0.77 0 0 0.775 0 0 0.78 0 0 0.785 0 0 0.79 0 0 0.795 0 0 0.8 0 0 0.805 0 0 0.81 0 0 0.815 0 0 0.82 0 0 0.825 0 0 0.83 0 0 0.835 0 0 0.84 0 0 0.845 0 0 0.85 0 0 0.855 0 0 0.86 0 0 0.865 0 0 0.87 0 0 0.875 0 0 0.88 0 0 0.885 0 0 0.89 0 0 0.895 0 0 0.9 0 0 0.905 0 0 0.91 0 0 0.915 0 0 0.92 0 0 0.925 0 0 0.93 0 0 0.935 0 0 0.94 0 0 0.945 0 0 0.95 0 0 0.955 0 0 0.96 0 0 0.965 0 0 0.97 0 0 0.975 0 0 0.98 0 0 0.985 0 0 0.99 0 0 0.995 0 0 1 0 0 0 0.02 0 0.005 0.02 0 0.01 0.02 0 0.015 0.02 0 0.02 0.02 0 0.025 0.02 0 0.03 0.02 0 0.035 0.02 0 0.04 0.02 0 0.045 0.02 0 0.05 0.02 0 0.055 0.02 0 0.06 0.02 0 0.065 0.02 0 0.07 0.02 0 0.075 0.02 0 0.08 0.02 0 0.085 0.02 0 0.09 0.02 0 0.095 0.02 0 0.1 0.02 0 0.105 0.02 0 0.11 0.02 0 0.115 0.02 0 0.12 0.02 0 0.125 0.02 0 0.13 0.02 0 0.135 0.02 0 0.14 0.02 0 0.145 0.02 0 0.15 0.02 0 0.155 0.02 0 0.16 0.02 0 0.165 0.02 0 0.17 0.02 0 0.175 0.02 0 0.18 0.02 0 0.185 0.02 0 0.19 0.02 0 0.195 0.02 0 0.2 0.02 0 0.205 0.02 0 0.21 0.02 0 0.215 0.02 0 0.22 0.02 0 0.225 0.02 0 0.23 0.02 0 0.235 0.02 0 0.24 0.02 0 0.245 0.02 0 0.25 0.02 0 0.255 0.02 0 0.26 0.02 0 0.265 0.02 0 0.27 0.02 0 0.275 0.02 0 0.28 0.02 0 0.285 0.02 0 0.29 0.02 0 0.295 0.02 0 0.3 0.02 0 0.305 0.02 0 0.31 0.02 0 0.315 0.02 0 0.32 0.02 0 0.325 0.02 0 0.33 0.02 0 0.335 0.02 0 0.34 0.02 0 0.345 0.02 0 0.35 0.02 0 0.355 0.02 0 0.36 0.02 0 0.365 0.02 0 0.37 0.02 0 0.375 0.02 0 0.38 0.02 0 0.385 0.02 0 0.39 0.02 0 0.395 0.02 0 0.4 0.02 0 0.405 0.02 0 0.41 0.02 0 0.415 0.02 0 0.42 0.02 0 0.425 0.02 0 0.43 0.02 0 0.435 0.02 0 0.44 0.02 0 0.445 0.02 0 0.45 0.02 0 0.455 0.02 0 0.46 0.02 0 0.465 0.02 0 0.47 0.02 0 0.475 0.02 0 0.48 0.02 0 0.485 0.02 0 0.49 0.02 0 0.495 0.02 0 0.5 0.02 0 0.505 0.02 0 0.51 0.02 0 0.515 0.02 0 0.52 0.02 0 0.525 0.02 0 0.53 0.02 0 0.535 0.02 0 0.54 0.02 0 0.545 0.02 0 0.55 0.02 0 0.555 0.02 0 0.56 0.02 0 0.565 0.02 0 0.57 0.02 0 0.575 0.02 0 0.58 0.02 0 0.585 0.02 0 0.59 0.02 0 0.595 0.02 0 0.6 0.02 0 0.605 0.02 0 0.61 0.02 0 0.615 0.02 0 0.62 0.02 0 0.625 0.02 0 0.63 0.02 0 0.635 0.02 0 0.64 0.02 0 0.645 0.02 0 0.65 0.02 0 0.655 0.02 0 0.66 0.02 0 0.665 0.02 0 0.67 0.02 0 0.675 0.02 0 0.68 0.02 0 0.685 0.02 0 0.69 0.02 0 0.695 0.02 0 0.7 0.02 0 0.705 0.02 0 0.71 0.02 0 0.715 0.02 0 0.72 0.02 0 0.725 0.02 0 0.73 0.02 0 0.735 0.02 0 0.74 0.02 0 0.745 0.02 0 0.75 0.02 0 0.755 0.02 0 0.76 0.02 0 0.765 0.02 0 0.77 0.02 0 0.775 0.02 0 0.78 0.02 0 0.785 0.02 0 0.79 0.02 0 0.795 0.02 0 0.8 0.02 0 0.805 0.02 0 0.81 0.02 0 0.815 0.02 0 0.82 0.02 0 0.825 0.02 0 0.83 0.02 0 0.835 0.02 0 0.84 0.02 0 0.845 0.02 0 0.85 0.02 0 0.855 0.02 0 0.86 0.02 0 0.865 0.02 0 0.87 0.02 0 0.875 0.02 0 0.88 0.02 0 0.885 0.02 0 0.89 0.02 0 0.895 0.02 0 0.9 0.02 0 0.905 0.02 0 0.91 0.02 0 0.915 0.02 0 0.92 0.02 0 0.925 0.02 0 0.93 0.02 0 0.935 0.02 0 0.94 0.02 0 0.945 0.02 0 0.95 0.02 0 0.955 0.02 0 0.96 0.02 0 0.965 0.02 0 0.97 0.02 0 0.975 0.02 0 0.98 0.02 0 0.985 0.02 0 0.99 0.02 0 0.995 0.02 0 1 0.02 0 0 0.04 0 0.005 0.04 0 0.01 0.04 0 0.015 0.04 0 0.02 0.04 0 0.025 0.04 0 0.03 0.04 0 0.035 0.04 0 0.04 0.04 0 0.045 0.04 0 0.05 0.04 0 0.055 0.04 0 0.06 0.04 0 0.065 0.04 0 0.07 0.04 0 0.075 0.04 0 0.08 0.04 0 0.085 0.04 0 0.09 0.04 0 0.095 0.04 0 0.1 0.04 0 0.105 0.04 0 0.11 0.04 0 0.115 0.04 0 0.12 0.04 0 0.125 0.04 0 0.13 0.04 0 0.135 0.04 0 0.14 0.04 0 0.145 0.04 0 0.15 0.04 0 0.155 0.04 0 0.16 0.04 0 0.165 0.04 0 0.17 0.04 0 0.175 0.04 0 0.18 0.04 0 0.185 0.04 0 0.19 0.04 0 0.195 0.04 0 0.2 0.04 0 0.205 0.04 0 0.21 0.04 0 0.215 0.04 0 0.22 0.04 0 0.225 0.04 0 0.23 0.04 0 0.235 0.04 0 0.24 0.04 0 0.245 0.04 0 0.25 0.04 0 0.255 0.04 0 0.26 0.04 0 0.265 0.04 0 0.27 0.04 0 0.275 0.04 0 0.28 0.04 0 0.285 0.04 0 0.29 0.04 0 0.295 0.04 0 0.3 0.04 0 0.305 0.04 0 0.31 0.04 0 0.315 0.04 0 0.32 0.04 0 0.325 0.04 0 0.33 0.04 0 0.335 0.04 0 0.34 0.04 0 0.345 0.04 0 0.35 0.04 0 0.355 0.04 0 0.36 0.04 0 0.365 0.04 0 0.37 0.04 0 0.375 0.04 0 0.38 0.04 0 0.385 0.04 0 0.39 0.04 0 0.395 0.04 0 0.4 0.04 0 0.405 0.04 0 0.41 0.04 0 0.415 0.04 0 0.42 0.04 0 0.425 0.04 0 0.43 0.04 0 0.435 0.04 0 0.44 0.04 0 0.445 0.04 0 0.45 0.04 0 0.455 0.04 0 0.46 0.04 0 0.465 0.04 0 0.47 0.04 0 0.475 0.04 0 0.48 0.04 0 0.485 0.04 0 0.49 0.04 0 0.495 0.04 0 0.5 0.04 0 0.505 0.04 0 0.51 0.04 0 0.515 0.04 0 0.52 0.04 0 0.525 0.04 0 0.53 0.04 0 0.535 0.04 0 0.54 0.04 0 0.545 0.04 0 0.55 0.04 0 0.555 0.04 0 0.56 0.04 0 0.565 0.04 0 0.57 0.04 0 0.575 0.04 0 0.58 0.04 0 0.585 0.04 0 0.59 0.04 0 0.595 0.04 0 0.6 0.04 0 0.605 0.04 0 0.61 0.04 0 0.615 0.04 0 0.62 0.04 0 0.625 0.04 0 0.63 0.04 0 0.635 0.04 0 0.64 0.04 0 0.645 0.04 0 0.65 0.04 0 0.655 0.04 0 0.66 0.04 0 0.665 0.04 0 0.67 0.04 0 0.675 0.04 0 0.68 0.04 0 0.685 0.04 0 0.69 0.04 0 0.695 0.04 0 0.7 0.04 0 0.705 0.04 0 0.71 0.04 0 0.715 0.04 0 0.72 0.04 0 0.725 0.04 0 0.73 0.04 0 0.735 0.04 0 0.74 0.04 0 0.745 0.04 0 0.75 0.04 0 0.755 0.04 0 0.76 0.04 0 0.765 0.04 0 0.77 0.04 0 0.775 0.04 0 0.78 0.04 0 0.785 0.04 0 0.79 0.04 0 0.795 0.04 0 0.8 0.04 0 0.805 0.04 0 0.81 0.04 0 0.815 0.04 0 0.82 0.04 0 0.825 0.04 0 0.83 0.04 0 0.835 0.04 0 0.84 0.04 0 0.845 0.04 0 0.85 0.04 0 0.855 0.04 0 0.86 0.04 0 0.865 0.04 0 0.87 0.04 0 0.875 0.04 0 0.88 0.04 0 0.885 0.04 0 0.89 0.04 0 0.895 0.04 0 0.9 0.04 0 0.905 0.04 0 0.91 0.04 0 0.915 0.04 0 0.92 0.04 0 0.925 0.04 0 0.93 0.04 0 0.935 0.04 0 0.94 0.04 0 0.945 0.04 0 0.95 0.04 0 0.955 0.04 0 0.96 0.04 0 0.965 0.04 0 0.97 0.04 0 0.975 0.04 0 0.98 0.04 0 0.985 0.04 0 0.99 0.04 0 0.995 0.04 0 1 0.04 0 0 0.06 0 0.005 0.06 0 0.01 0.06 0 0.015 0.06 0 0.02 0.06 0 0.025 0.06 0 0.03 0.06 0 0.035 0.06 0 0.04 0.06 0 0.045 0.06 0 0.05 0.06 0 0.055 0.06 0 0.06 0.06 0 0.065 0.06 0 0.07 0.06 0 0.075 0.06 0 0.08 0.06 0 0.085 0.06 0 0.09 0.06 0 0.095 0.06 0 0.1 0.06 0 0.105 0.06 0 0.11 0.06 0 0.115 0.06 0 0.12 0.06 0 0.125 0.06 0 0.13 0.06 0 0.135 0.06 0 0.14 0.06 0 0.145 0.06 0 0.15 0.06 0 0.155 0.06 0 0.16 0.06 0 0.165 0.06 0 0.17 0.06 0 0.175 0.06 0 0.18 0.06 0 0.185 0.06 0 0.19 0.06 0 0.195 0.06 0 0.2 0.06 0 0.205 0.06 0 0.21 0.06 0 0.215 0.06 0 0.22 0.06 0 0.225 0.06 0 0.23 0.06 0 0.235 0.06 0 0.24 0.06 0 0.245 0.06 0 0.25 0.06 0 0.255 0.06 0 0.26 0.06 0 0.265 0.06 0 0.27 0.06 0 0.275 0.06 0 0.28 0.06 0 0.285 0.06 0 0.29 0.06 0 0.295 0.06 0 0.3 0.06 0 0.305 0.06 0 0.31 0.06 0 0.315 0.06 0 0.32 0.06 0 0.325 0.06 0 0.33 0.06 0 0.335 0.06 0 0.34 0.06 0 0.345 0.06 0 0.35 0.06 0 0.355 0.06 0 0.36 0.06 0 0.365 0.06 0 0.37 0.06 0 0.375 0.06 0 0.38 0.06 0 0.385 0.06 0 0.39 0.06 0 0.395 0.06 0 0.4 0.06 0 0.405 0.06 0 0.41 0.06 0 0.415 0.06 0 0.42 0.06 0 0.425 0.06 0 0.43 0.06 0 0.435 0.06 0 0.44 0.06 0 0.445 0.06 0 0.45 0.06 0 0.455 0.06 0 0.46 0.06 0 0.465 0.06 0 0.47 0.06 0 0.475 0.06 0 0.48 0.06 0 0.485 0.06 0 0.49 0.06 0 0.495 0.06 0 0.5 0.06 0 0.505 0.06 0 0.51 0.06 0 0.515 0.06 0 0.52 0.06 0 0.525 0.06 0 0.53 0.06 0 0.535 0.06 0 0.54 0.06 0 0.545 0.06 0 0.55 0.06 0 0.555 0.06 0 0.56 0.06 0 0.565 0.06 0 0.57 0.06 0 0.575 0.06 0 0.58 0.06 0 0.585 0.06 0 0.59 0.06 0 0.595 0.06 0 0.6 0.06 0 0.605 0.06 0 0.61 0.06 0 0.615 0.06 0 0.62 0.06 0 0.625 0.06 0 0.63 0.06 0 0.635 0.06 0 0.64 0.06 0 0.645 0.06 0 0.65 0.06 0 0.655 0.06 0 0.66 0.06 0 0.665 0.06 0 0.67 0.06 0 0.675 0.06 0 0.68 0.06 0 0.685 0.06 0 0.69 0.06 0 0.695 0.06 0 0.7 0.06 0 0.705 0.06 0 0.71 0.06 0 0.715 0.06 0 0.72 0.06 0 0.725 0.06 0 0.73 0.06 0 0.735 0.06 0 0.74 0.06 0 0.745 0.06 0 0.75 0.06 0 0.755 0.06 0 0.76 0.06 0 0.765 0.06 0 0.77 0.06 0 0.775 0.06 0 0.78 0.06 0 0.785 0.06 0 0.79 0.06 0 0.795 0.06 0 0.8 0.06 0 0.805 0.06 0 0.81 0.06 0 0.815 0.06 0 0.82 0.06 0 0.825 0.06 0 0.83 0.06 0 0.835 0.06 0 0.84 0.06 0 0.845 0.06 0 0.85 0.06 0 0.855 0.06 0 0.86 0.06 0 0.865 0.06 0 0.87 0.06 0 0.875 0.06 0 0.88 0.06 0 0.885 0.06 0 0.89 0.06 0 0.895 0.06 0 0.9 0.06 0 0.905 0.06 0 0.91 0.06 0 0.915 0.06 0 0.92 0.06 0 0.925 0.06 0 0.93 0.06 0 0.935 0.06 0 0.94 0.06 0 0.945 0.06 0 0.95 0.06 0 0.955 0.06 0 0.96 0.06 0 0.965 0.06 0 0.97 0.06 0 0.975 0.06 0 0.98 0.06 0 0.985 0.06 0 0.99 0.06 0 0.995 0.06 0 1 0.06 0 0 0.08 0 0.005 0.08 0 0.01 0.08 0 0.015 0.08 0 0.02 0.08 0 0.025 0.08 0 0.03 0.08 0 0.035 0.08 0 0.04 0.08 0 0.045 0.08 0 0.05 0.08 0 0.055 0.08 0 0.06 0.08 0 0.065 0.08 0 0.07 0.08 0 0.075 0.08 0 0.08 0.08 0 0.085 0.08 0 0.09 0.08 0 0.095 0.08 0 0.1 0.08 0 0.105 0.08 0 0.11 0.08 0 0.115 0.08 0 0.12 0.08 0 0.125 0.08 0 0.13 0.08 0 0.135 0.08 0 0.14 0.08 0 0.145 0.08 0 0.15 0.08 0 0.155 0.08 0 0.16 0.08 0 0.165 0.08 0
[...]
			<PointData Scalars="VitesseX">
				<DataArray Name="VitesseX" type="Float32" format="ascii">
 0 -9.74144e-15 -1.67488e-14 -1.98013e-14 -2.28487e-14 -2.08416e-14 -3.7466e-14 -4.89212e-14 -5.65617e-14 -5.37304e-14 -7.12032e-14 -5.79755e-14 -9.67091e-14 -2.78521e-14 -1.53391e-14 -6.57464e-14 7.60626e-15 1.69764e-14 -2.68343e-14 1.49785e-15 -9.49863e-14 9.33059e-14 -4.54207e-14 -3.29651e-14 -8.22588e-14 -2.74504e-14 -1.06896e-13 5.64027e-14 -2.33876e-13 1.37511e-13 -4.54031e-14 -8.27834e-14 6.53487e-14 -4.0983e-15 1.4071e-13 5.02057e-13 2.49319e-12 1.4331e-11 7.92867e-11 4.25178e-10 2.168e-09 1.05139e-08 4.83742e-08 2.10669e-07 8.66153e-07 3.3521e-06 1.21703e-05 4.12892e-05 0.000130294 0.00038037 0.00102079 0.00250067 0.00555238 0.0111101 0.0199918 0.0324712 0.048103 0.0659978 0.085276 0.10532 0.125773 0.146449 0.167251 0.188124 0.20904 0.229978 0.250927 0.271876 0.292813 0.313722 0.334594 0.355419 0.376189 0.396896 0.417534 0.438098 0.458584 0.47899 0.49931 0.519541 0.539679 0.559716 0.579646 0.59946 0.619145 0.638688 0.658073 0.677278 0.696279 0.715045 0.733541 0.751723 0.769537 0.786922 0.803802 0.82009 0.835685 0.850472 0.864324 0.877107 0.888688 0.898943 0.907775 0.915126 0.920992 0.925436 0.928588 0.930638 0.931811 0.93233 0.932396 0.932333 0.932186 0.93197 0.931707 0.931417 0.931116 0.930821 0.930541 0.930283 0.930048 0.929837 0.929653 0.929496 0.929373 0.929296 0.929279 0.929355 0.929594 0.930072 0.930875 0.932107 0.933867 0.936229 0.939311 0.942805 0.94867 0.94864 0.944655 0.939385 0.935114 0.932187 0.930345 0.929269 0.928679 0.928373 0.928221 0.928147 0.928111 0.928089 0.92807 0.928046 0.928007 0.927938 0.927814 0.927589 0.927182 0.926453 0.925158 0.922883 0.918929 0.912149 0.900724 0.88192 0.85194 0.806126 0.739796 0.649931 0.537598 0.410313 0.282427 0.1722 0.0916284 0.0427339 0.0180109 0.0071498 0.00275738 0.00105001 0.000397572 0.000150089 5.65461e-05 2.12658e-05 7.98315e-06 2.991e-06 1.11821e-06 4.17055e-07 1.5514e-07 5.75439e-08 2.12769e-08 7.83974e-09 2.87843e-09 1.05189e-09 3.83085e-10 1.38573e-10 4.97314e-11 1.80032e-11 6.25949e-12 2.17637e-12 7.43102e-13 2.35629e-13 0 0 -6.07748e-15 -1.39455e-14 -1.9026e-14 -3.02156e-14 -3.79439e-14 -3.57034e-14 -4.15186e-14 -4.41553e-14 -4.50961e-14 -8.54206e-14 -7.38346e-14 -2.08733e-14 -4.81219e-14 -7.85376e-14 3.10171e-14 -2.10396e-14 -3.03044e-14 2.62624e-14 1.59059e-15 3.34748e-14 -1.11028e-13 2.59804e-14 -1.1597e-13 -5.80985e-14 -5.30433e-14 -2.69964e-14 -7.55037e-14 5.61877e-14 -1.55394e-13 -2.7538e-14 5.85085e-14 -2.81436e-14 7.71664e-14 1.44003e-13 4.60856e-13 2.53538e-12 1.42125e-11 7.94596e-11 4.25086e-10 2.16807e-09 1.05138e-08 4.83743e-08 2.10669e-07 8.66153e-07 3.3521e-06 1.21703e-05 4.12892e-05 0.000130294 0.00038037 0.00102079 0.00250067 0.00555238 0.0111101 0.0199918 0.0324712 0.048103 0.0659978 0.085276 0.10532 0.125773 0.146449 0.167251 0.188124 0.20904 0.229978 0.250927 0.271876 0.292813 0.313722 0.334594 0.355419 0.376189 0.396896 0.417534 0.438098 0.458584 0.47899 0.49931 0.519541 0.539679 0.559716 0.579646 0.59946 0.619145 0.638688 0.658073 0.677278 0.696279 0.715045 0.733541 0.751723 0.769537 0.786922 0.803802 0.82009 0.835685 0.850472 0.864324 0.877107 0.888688 0.898943 0.907775 0.915126 0.920992 0.925436 0.928588 0.930638 0.931811 0.93233 0.932396 0.932333 0.932186 0.93197 0.931707 0.931417 0.931116 0.930821 0.930541 0.930283 0.930048 0.929837 0.929653 0.929496 0.929373 0.929296 0.929279 0.929355 0.929594 0.930072 0.930875 0.932107 0.933867 0.936229 0.939311 0.942805 0.94867 0.94864 0.944655 0.939385 0.935114 0.932187 0.930345 0.929269 0.928679 0.928373 0.928221 0.928147 0.928111 0.928089 0.92807 0.928046 0.928007 0.927938 0.927814 0.927589 0.927182 0.926453 0.925158 0.922883 0.918929 0.912149 0.900724 0.88192 0.85194 0.806126 0.739796 0.649931 0.537598 0.410313 0.282427 0.1722 0.0916284 0.0427339 0.0180109 0.0071498 0.00275738 0.00105001 0.000397572 0.000150089 5.65461e-05 2.12658e-05 7.98315e-06 2.991e-06 1.11821e-06 4.17055e-07 1.55139e-07 5.7544e-08 2.12768e-08 7.84014e-09 2.87772e-09 1.05234e-09 3.82884e-10 1.3852e-10 4.99373e-11 1.76088e-11 6.14447e-12 2.36335e-12 4.14139e-13 2.51727e-13 0 0 -9.53995e-15 -1.65756e-14 -2.73789e-14 -2.63111e-14 -3.71548e-14 -5.3289e-14 -2.57966e-14 -5.33953e-14 -3.55874e-14 -4.41751e-14 -4.1073e-14 -6.01245e-14 -1.26106e-14 -7.38573e-14 8.51553e-15 2.35975e-14 -1.22534e-15 -2.83324e-14 -2.32009e-14 -6.59702e-14 8.06203e-16 -6.52916e-14 1.58407e-14 -8.8927e-14 -9.24032e-14 -1.32396e-13 -6.08684e-14 7.15002e-15 -3.42988e-14 1.10773e-14 5.49514e-14 -3.86996e-14 5.5609e-14 1.03428e-13 5.48282e-13 2.45205e-12 1.41611e-11 7.96152e-11 4.25002e-10 2.16804e-09 1.05138e-08 4.83742e-08 2.10669e-07 8.66153e-07 3.3521e-06 1.21703e-05 4.12892e-05 0.000130294 0.00038037 0.00102079 0.00250067 0.00555238 0.0111101 0.0199918 0.0324712 0.048103 0.0659978 0.085276 0.10532 0.125773 0.146449 0.167251 0.188124 0.20904 0.229978 0.250927 0.271876 0.292813 0.313722 0.334594 0.355419 0.376189 0.396896 0.417534 0.438098 0.458584 0.47899 0.49931 0.519541 0.539679 0.559716 0.579646 0.59946 0.619145 0.638688 0.658073 0.677278 0.696279 0.715045 0.733541 0.751723 0.769537 0.786922 0.803802 0.82009 0.835685 0.850472 0.864324 0.877107 0.888688 0.898943 0.907775 0.915126 0.920992 0.925436 0.928588 0.930638 0.931811 0.93233 0.932396 0.932333 0.932186 0.93197 0.931707 0.931417 0.931116 0.930821 0.930541 0.930283 0.930048 0.929837 0.929653 0.929496 0.929373 0.929296 0.929279 0.929355 0.929594 0.930072 0.930875 0.932107 0.933867 0.936229 0.939311 0.942805 0.94867 0.94864 0.944655 0.939385 0.935114 0.932187 0.930345 0.929269 0.928679 0.928373 0.928221 0.928147 0.928111 0.928089 0.92807 0.928046 0.928007 0.927938 0.927814 0.927589 0.927182 0.926453 0.925158 0.922883 0.918929 0.912149 0.900724 0.88192 0.85194 0.806126 0.739796 0.649931 0.537598 0.410313 0.282427 0.1722 0.0916284 0.0427339 0.0180109 0.0071498 0.00275738 0.00105001 0.000397572 0.000150089 5.65461e-05 2.12658e-05 7.98315e-06 2.991e-06 1.11821e-06 4.17055e-07 1.5514e-07 5.7544e-08 2.12767e-08 7.83992e-09 2.87785e-09 1.05201e-09 3.82875e-10 1.38662e-10 4.96861e-11 1.79363e-11 6.04337e-12 1.93847e-12 7.19845e-13 3.18787e-13 0 0 -7.87301e-15 -1.82837e-14 -1.84665e-14 -3.55768e-14 -3.90971e-14 -4.62209e-14 -5.93773e-14 -4.58879e-14 -2.99647e-14 -3.25751e-14 -6.23904e-16 -6.81077e-15 -2.79226e-14 -2.19196e-14 -6.18913e-14 -3.89727e-14 8.6264e-15 -2.00639e-14 -7.12573e-14 -2.53802e-14 5.57952e-15 -2.93646e-14 -1.3911e-13 -2.80053e-14 -3.87106e-14 -1.7873e-13 2.9195e-14 -1.82964e-13 5.12515e-14 -1.74573e-14 5.89224e-15 9.40794e-14 1.08057e-13 1.3725e-13 4.86532e-13 2.51083e-12 1.41479e-11 7.94414e-11 4.25157e-10 2.16804e-09 1.05139e-08 4.83743e-08 2.10669e-07 8.66153e-07 3.3521e-06 1.21703e-05 4.12892e-05 0.000130294 0.00038037 0.00102079 0.00250067 0.00555238 0.0111101 0.0199918 0.0324712 0.048103 0.0659978 0.085276 0.10532 0.125773 0.146449 0.167251 0.188124 0.20904 0.229978 0.250927 0.271876 0.292813 0.313722 0.334594 0.355419 0.376189 0.396896 0.417534 0.438098 0.458584 0.47899 0.49931 0.519541 0.539679 0.559716 0.579646 0.59946 0.619145 0.638688 0.658073 0.677278 0.696279 0.715045 0.733541 0.751723 0.769537 0.786922 0.803802 0.82009 0.835685 0.850472 0.864324 0.877107 0.888688 0.898943 0.907775 0.915126 0.920992 0.925436 0.928588 0.930638 0.931811 0.93233 0.932396 0.932333 0.932186 0.93197 0.931707 0.931417 0.931116 0.930821 0.930541 0.930283 0.930048 0.929837 0.929653 0.929496 0.929373 0.929296 0.929279 0.929355 0.929594 0.930072 0.930875 0.932107 0.933867 0.936229 0.939311 0.942805 0.94867 0.94864 0.944655 0.939385 0.935114 0.932187 0.930345 0.929269 0.928679 0.928373 0.928221 0.928147 0.928111 0.928089 0.92807 0.928046 0.928007 0.927938 0.927814 0.927589 0.927182 0.926453 0.925158 0.922883 0.918929 0.912149 0.900724 0.88192 0.85194 0.806126 0.739796 0.649931 0.537598 0.410313 0.282427 0.1722 0.0916284 0.0427339 0.0180109 0.0071498 0.00275738 0.00105001 0.000397572 0.000150089 5.65461e-05 2.12658e-05 7.98315e-06 2.991e-06 1.11821e-06 4.17055e-07 1.5514e-07 5.75442e-08 2.1277e-08 7.83973e-09 2.87821e-09 1.05187e-09 3.82726e-10 1.38486e-10 4.95212e-11 1.7964e-11 6.27091e-12 2.23116e-12 2.81819e-13 -1.79291e-13 0 0 -5.56713e-15 -2.39076e-14 -1.65633e-14 -3.2645e-14 -5.34263e-14 -2.13238e-14 -6.38794e-14 -3.64849e-14 -1.9386e-14 -4.51246e-14 -2.33975e-14 1.47706e-14 -3.82447e-14 -2.68576e-14 1.18319e-14 -6.58202e-14 -3.34155e-14 3.24663e-14 -6.43237e-14 4.809e-14 -1.37116e-13 -5.72808e-14 -2.27981e-13 -7.19524e-15 -2.90821e-14 -1.68358e-14 -5.78189e-14 1.19915e-14 -1.07614e-13 -1.44568e-14 4.38959e-17 6.81985e-14 1.81649e-13 1.87464e-13 4.33003e-13 2.62956e-12 1.42341e-11 7.93616e-11 4.25238e-10 2.16795e-09 1.05139e-08 4.83743e-08 2.10669e-07 8.66153e-07 3.3521e-06 1.21703e-05 4.12892e-05 0.000130294 0.00038037 0.00102079 0.00250067 0.00555238 0.0111101 0.0199918 0.0324712 0.048103 0.0659978 0.085276 0.10532 0.125773 0.146449 0.167251 0.188124 0.20904 0.229978 0.250927 0.271876 0.292813 0.313722 0.334594 0.355419 0.376189 0.396896 0.417534 0.438098 0.458584 0.47899 0.49931 0.519541 0.539679 0.559716 0.579646 0.59946 0.619145 0.638688 0.658073 0.677278 0.696279 0.715045 0.733541 0.751723 0.769537 0.786922 0.803802 0.82009 0.835685 0.850472 0.864324 0.877107 0.888688 0.898943 0.907775 0.915126 0.920992 0.925436 0.928588 0.930638 0.931811 0.93233 0.932396 0.932333 0.932186 0.93197 0.931707 0.931417 0.931116 0.930821 0.930541 0.930283 0.930048 0.929837 0.929653 0.929496 0.929373 0.929296 0.929279 0.929355 0.929594 0.930072 0.930875 0.932107 0.933867 0.936229 0.939311 0.942805 0.94867 0.94864 0.944655 0.939385 0.935114 0.932187 0.930345 0.929269 0.928679 0.928373 0.928221 0.928147 0.928111 0.928089 0.92807 0.928046 0.928007 0.927938 0.927814 0.927589 0.927182 0.926453 0.925158 0.922883 0.918929 0.912149 0.900724 0.88192 0.85194 0.806126 0.739796 0.649931 0.537598 0.410313 0.282427 0.1722 0.0916284 0.0427339 0.0180109 0.0071498 0.00275738 0.00105001 0.000397572 0.000150089 5.65461e-05 2.12658e-05 7.98315e-06 2.991e-06 1.11821e-06 4.17055e-07 1.5514e-07 5.75444e-08 2.12768e-08 7.84021e-09 2.87797e-09 1.05215e-09 3.82811e-10 1.38305e-10 4.9691e-11 1.74532e-11 5.97198e-12 2.27766e-12 -3.53989e-14 -1.64179e-13 0 0 -1.20546e-14 -3.32571e-14 -3.27009e-14 -9.17615e-15 -4.79216e-14 -2.28429e-14 -2.64815e-14 -5.62356e-14 -1.35555e-14 -1.38112e-14 -3.79995e-14 -1.32049e-13 2.25263e-14 -1.58546e-14 3.66968e-14 4.31856e-14 -8.94922e-15 -3.09638e-14 -3.42179e-14 -1.46936e-13 3.15839e-14 -2.83797e-13 5.29147e-14 -1.02296e-13 -8.69131e-14 6.09303e-15 -8.83546e-14 5.79606e-14 6.19697e-14 3.78286e-14 -1.01594e-13 -7.52504e-15 9.99708e-14 1.59987e-13 5.69851e-13 2.56398e-12 1.44008e-11 7.94382e-11 4.25173e-10 2.16777e-09 1.0514e-08 4.83741e-08 2.10669e-07 8.66153e-07 3.3521e-06 1.21703e-05 4.12892e-05 0.000130294 0.00038037 0.00102079 0.00250067 0.00555238 0.0111101 0.0199918 0.0324712 0.048103 0.0659978 0.085276 0.10532 0.125773 0.146449 0.167251 0.188124 0.20904 0.229978 0.250927 0.271876 0.292813 0.313722 0.334594 0.355419 0.376189 0.396896 0.417534 0.438098 0.458584 0.47899 0.49931 0.519541 0.539679 0.559716 0.579646 0.59946 0.619145 0.638688 0.658073 0.677278 0.696279 0.715045 0.733541 0.751723 0.769537 0.786922 0.803802 0.82009 0.835685 0.850472 0.864324 0.877107 0.888688 0.898943 0.907775 0.915126 0.920992 0.925436 0.928588 0.930638 0.931811 0.93233 0.932396 0.932333 0.932186 0.93197 0.931707 0.931417 0.931116 0.930821 0.930541 0.930283 0.930048 0.929837 0.929653 0.929496 0.929373 0.929296 0.929279 0.929355 0.929594 0.930072 0.930875 0.932107 0.933867 0.936229 0.939311 0.942805 0.94867 0.94864 0.944655 0.939385 0.935114 0.932187 0.930345 0.929269 0.928679 0.928373 0.928221 0.928147 0.928111 0.928089 0.92807 0.928046 0.928007 0.927938 0.927814 0.927589 0.927182 0.926453 0.925158 0.922883 0.918929 0.912149 0.900724 0.88192 0.85194 0.806126 0.739796 0.649931 0.537598 0.410313 0.282427 0.1722 0.0916284 0.0427339 0.0180109 0.0071498 0.00275738 0.00105001 0.000397572 0.000150089 5.65461e-05 2.12658e-05 7.98315e-06 2.991e-06 1.11821e-06 4.17055e-07 1.5514e-07 5.75443e-08 2.12764e-08 7.84028e-09 2.87822e-09 1.05178e-09 3.83237e-10 1.38495e-10 4.95684e-11 1.76363e-11 5.45943e-12 1.41963e-12 7.20079e-13 3.99971e-13 0
				</DataArray>
				<DataArray Name="VitesseY" type="Float32" format="ascii">