<?xml version="1.0"?>
<VTKFile type="PolyData">
	<PolyData>
		<Piece NumberOfPoints="1206" NumberOfPolys="1000">
			<Points>
				<DataArray type="Float32" NumberOfComponents="3" format="ascii">
 0 0 0 0.005 0 0 0.01 0 0 0.015 0 0 0.02 0 0 0.025 0 0 0.03 0 0 0.035 0 0 0.04 0 0 0.045 0 0 0.05 0 0 0.055 0 0 0.06 0 0 0.065 0 0 0.07 0 0 0.075 0 0 0.08 0 0 0.085 0 0 0.09 0 0 0.095 0 0 0.1 0 0 0.105 0 0 0.11 0 0 0.115 0 0 0.12 0 0 0.125 0 0 0.13 0 0 0.135 0 0 0.14 0 0 0.145 0 0 0.15 0 0 0.155 0 0 0.16 0 0 0.165 0 0 0.17 0 0 0.175 0 0 0.18 0 0 0.185 0 0 0.19 0 0 0.195 0 0 0.2 0 0 0.205 0 0 0.21 0 0 0.215 0 0 0.22 0 0 0.225 0 0 0.23 0 0 0.235 0 0 0.24 0 0 0.245 0 0 0.25 0 0 0.255 0 0 0.26 0 0 0.265 0 0 0.27 0 0 0.275 0 0 0.28 0 0 0.285 0 0 0.29 0 0 0.295 0 0 0.3 0 0 0.305 0 0 0.31 0 0 0.315 0 0 0.32 0 0 0.325 0 0 0.33 0 0 0.335 0 0 0.34 0 0 0.345 0 0 0.35 0 0 0.355 0 0 0.36 0 0 0.365 0 0 0.37 0 0 0.375 0 0 0.38 0 0 0.385 0 0 0.39 0 0 0.395 0 0 0.4 0 0 0.405 0 0 0.41 0 0 0.415 0 0 0.42 0 0 0.425 0 0 0.43 0 0 0.435 0 0 0.44 0 0 0.445 0 0 0.45 0 0 0.455 0 0 0.46 0 0 0.465 0 0 0.47 0 0 0.475 0 0 0.48 0 0 0.485 0 0 0.49 0 0 0.495 0 0 0.5 0 0 0.505 0 0 0.51 0 0 0.515 0 0 0.52 0 0 0.525 0 0 0.53 0 0 0.535 0 0 0.54 0 0 0.545 0 0 0.55 0 0 0.555 0 0 0.56 0 0 0.565 0 0 0.57 0 0 0.575 0 0 0.58 0 0 0.585 0 0 0.59 0 0 0.595 0 0 0.6 0 0 0.605 0 0 0.61 0 0 0.615 0 0 0.62 0 0 0.625 0 0 0.63 0 0 0.635 0 0 0.64 0 0 0.645 0 0 0.65 0 0 0.655 0 0 0.66 0 0 0.665 0 0 0.67 0 0 0.675 0 0 0.68 0 0 0.685 0 0 0.69 0 0 0.695 0 0 0.7 0 0 0.705 0 0 0.71 0 0 0.715 0 0 0.72 0 0 0.725 0 0 0.73 0 0 0.735 0 0 0.74 0 0 0.745 0 0 0.75 0 0 0.755 0 0 0.76 0 0 0.765 0 0 0.77 0 0 0.775 0 0 0.78 0 0 0.785 0 0 0.79 0 0 0.795 0 0 0.8 0 0 0.805 0 0 0.81 0 0 0.815 0 0 0.82 0 0 0.825 0 0 0.83 0 0 0.835 0 0 0.84 0 0 0.845 0 0 0.85 0 0 0.855 0 0 0.86 0 0 0.865 0 0 0.87 0 0 0.875 0 0 0.88 0 0 0.885 0 0 0.89 0 0 0.895 0 0 0.9 0 0 0.905 0 0 0.91 0 0 0.915 0 0 0.92 0 0 0.925 0 0 0.93 0 0 0.935 0 0 0.94 0 0 0.945 0 0 0.95 0 0 0.955 0 0 0.96 0 0 0.965 0 0 0.97 0 0 0.975 0 0 0.98 0 0 0.985 0 0 0.99 0 0 0.995 0 0 1 0 0 0 0.02 0 0.005 0.02 0 0.01 0.02 0 0.015 0.02 0 0.02 0.02 0 0.025 0.02 0 0.03 0.02 0 0.035 0.02 0 0.04 0.02 0 0.045 0.02 0 0.05 0.02 0 0.055 0.02 0 0.06 0.02 0 0.065 0.02 0 0.07 0.02 0 0.075 0.02 0 0.08 0.02 0 0.085 0.02 0 0.09 0.02 0 0.095 0.02 0 0.1 0.02 0 0.105 0.02 0 0.11 0.02 0 0.115 0.02 0 0.12 0.02 0 0.125 0.02 0 0.13 0.02 0 0.135 0.02 0 0.14 0.02 0 0.145 0.02 0 0.15 0.02 0 0.155 0.02 0 0.16 0.02 0 0.165 0.02 0 0.17 0.02 0 0.175 0.02 0 0.18 0.02 0 0.185 0.02 0 0.19 0.02 0 0.195 0.02 0 0.2 0.02 0 0.205 0.02 0 0.21 0.02 0 0.215 0.02 0 0.22 0.02 0 0.225 0.02 0 0.23 0.02 0 0.235 0.02 0 0.24 0.02 0 0.245 0.02 0 0.25 0.02 0 0.255 0.02 0 0.26 0.02 0 0.265 0.02 0 0.27 0.02 0 0.275 0.02 0 0.28 0.02 0 0.285 0.02 0 0.29 0.02 0 0.295 0.02 0 0.3 0.02 0 0.305 0.02 0 0.31 0.02 0 0.315 0.02 0 0.32 0.02 0 0.325 0.02 0 0.33 0.02 0 0.335 0.02 0 0.34 0.02 0 0.345 0.02 0 0.35 0.02 0 0.355 0.02 0 0.36 0.02 0 0.365 0.02 0 0.37 0.02 0 0.375 0.02 0 0.38 0.02 0 0.385 0.02 0 0.39 0.02 0 0.395 0.02 0 0.4 0.02 0 0.405 0.02 0 0.41 0.02 0 0.415 0.02 0 0.42 0.02 0 0.425 0.02 0 0.43 0.02 0 0.435 0.02 0 0.44 0.02 0 0.445 0.02 0 0.45 0.02 0 0.455 0.02 0 0.46 0.02 0 0.465 0.02 0 0.47 0.02 0 0.475 0.02 0 0.48 0.02 0 0.485 0.02 0 0.49 0.02 0 0.495 0.02 0 0.5 0.02 0 0.505 0.02 0 0.51 0.02 0 0.515 0.02 0 0.52 0.02 0 0.525 0.02 0 0.53 0.02 0 0.535 0.02 0 0.54 0.02 0 0.545 0.02 0 0.55 0.02 0 0.555 0.02 0 0.56 0.02 0 0.565 0.02 0 0.57 0.02 0 0.575 0.02 0 0.58 0.02 0 0.585 0.02 0 0.59 0.02 0 0.595 0.02 0 0.6 0.02 0 0.605 0.02 0 0.61 0.02 0 0.615 0.02 0 0.62 0.02 0 0.625 0.02 0 0.63 0.02 0 0.635 0.02 0 0.64 0.02 0 0.645 0.02 0 0.65 0.02 0 0.655 0.02 0 0.66 0.02 0 0.665 0.02 0 0.67 0.02 0 0.675 0.02 0 0.68 0.02 0 0.685 0.02 0 0.69 0.02 0 0.695 0.02 0 0.7 0.02 0 0.705 0.02 0 0.71 0.02 0 0.715 0.02 0 0.72 0.02 0 0.725 0.02 0 0.73 0.02 0 0.735 0.02 0 0.74 0.02 0 0.745 0.02 0 0.75 0.02 0 0.755 0.02 0 0.76 0.02 0 0.765 0.02 0 0.77 0.02 0 0.775 0.02 0 0.78 0.02 0 0.785 0.02 0 0.79 0.02 0 0.795 0.02 0 0.8 0.02 0 0.805 0.02 0 0.81 0.02 0 0.815 0.02 0 0.82 0.02 0 0.825 0.02 0 0.83 0.02 0 0.835 0.02 0 0.84 0.02 0 0.845 0.02 0 0.85 0.02 0 0.855 0.02 0 0.86 0.02 0 0.865 0.02 0 0.87 0.02 0 0.875 0.02 0 0.88 0.02 0 0.885 0.02 0 0.89 0.02 0 0.895 0.02 0 0.9 0.02 0 0.905 0.02 0 0.91 0.02 0 0.915 0.02 0 0.92 0.02 0 0.925 0.02 0 0.93 0.02 0 0.935 0.02 0 0.94 0.02 0 0.945 0.02 0 0.95 0.02 0 0.955 0.02 0 0.96 0.02 0 0.965 0.02 0 0.97 0.02 0 0.975 0.02 0 0.98 0.02 0 0.985 0.02 0 0.99 0.02 0 0.995 0.02 0 1 0.02 0 0 0.04 0 0.005 0.04 0 0.01 0.04 0 0.015 0.04 0 0.02 0.04 0 0.025 0.04 0 0.03 0.04 0 0.035 0.04 0 0.04 0.04 0 0.045 0.04 0 0.05 0.04 0 0.055 0.04 0 0.06 0.04 0 0.065 0.04 0 0.07 0.04 0 0.075 0.04 0 0.08 0.04 0 0.085 0.04 0 0.09 0.04 0 0.095 0.04 0 0.1 0.04 0 0.105 0.04 0 0.11 0.04 0 0.115 0.04 0 0.12 0.04 0 0.125 0.04 0 0.13 0.04 0 0.135 0.04 0 0.14 0.04 0 0.145 0.04 0 0.15 0.04 0 0.155 0.04 0 0.16 0.04 0 0.165 0.04 0 0.17 0.04 0 0.175 0.04 0 0.18 0.04 0 0.185 0.04 0 0.19 0.04 0 0.195 0.04 0 0.2 0.04 0 0.205 0.04 0 0.21 0.04 0 0.215 0.04 0 0.22 0.04 0 0.225 0.04 0 0.23 0.04 0 0.235 0.04 0 0.24 0.04 0 0.245 0.04 0 0.25 0.04 0 0.255 0.04 0 0.26 0.04 0 0.265 0.04 0 0.27 0.04 0 0.275 0.04 0 0.28 0.04 0 0.285 0.04 0 0.29 0.04 0 0.295 0.04 0 0.3 0.04 0 0.305 0.04 0 0.31 0.04 0 0.315 0.04 0 0.32 0.04 0 0.325 0.04 0 0.33 0.04 0 0.335 0.04 0 0.34 0.04 0 0.345 0.04 0 0.35 0.04 0 0.355 0.04 0 0.36 0.04 0 0.365 0.04 0 0.37 0.04 0 0.375 0.04 0 0.38 0.04 0 0.385 0.04 0 0.39 0.04 0 0.395 0.04 0 0.4 0.04 0 0.405 0.04 0 0.41 0.04 0 0.415 0.04 0 0.42 0.04 0 0.425 0.04 0 0.43 0.04 0 0.435 0.04 0 0.44 0.04 0 0.445 0.04 0 0.45 0.04 0 0.455 0.04 0 0.46 0.04 0 0.465 0.04 0 0.47 0.04 0 0.475 0.04 0 0.48 0.04 0 0.485 0.04 0 0.49 0.04 0 0.495 0.04 0 0.5 0.04 0 0.505 0.04 0 0.51 0.04 0 0.515 0.04 0 0.52 0.04 0 0.525 0.04 0 0.53 0.04 0 0.535 0.04 0 0.54 0.04 0 0.545 0.04 0 0.55 0.04 0 0.555 0.04 0 0.56 0.04 0 0.565 0.04 0 0.57 0.04 0 0.575 0.04 0 0.58 0.04 0 0.585 0.04 0 0.59 0.04 0 0.595 0.04 0 0.6 0.04 0 0.605 0.04 0 0.61 0.04 0 0.615 0.04 0 0.62 0.04 0 0.625 0.04 0 0.63 0.04 0 0.635 0.04 0 0.64 0.04 0 0.645 0.04 0 0.65 0.04 0 0.655 0.04 0 0.66 0.04 0 0.665 0.04 0 0.67 0.04 0 0.675 0.04 0 0.68 0.04 0 0.685 0.04 0 0.69 0.04 0 0.695 0.04 0 0.7 0.04 0 0.705 0.04 0 0.71 0.04 0 0.715 0.04 0 0.72 0.04 0 0.725 0.04 0 0.73 0.04 0 0.735 0.04 0 0.74 0.04 0 0.745 0.04 0 0.75 0.04 0 0.755 0.04 0 0.76 0.04 0 0.765 0.04 0 0.77 0.04 0 0.775 0.04 0 0.78 0.04 0 0.785 0.04 0 0.79 0.04 0 0.795 0.04 0 0.8 0.04 0 0.805 0.04 0 0.81 0.04 0 0.815 0.04 0 0.82 0.04 0 0.825 0.04 0 0.83 0.04 0 0.835 0.04 0 0.84 0.04 0 0.845 0.04 0 0.85 0.04 0 0.855 0.04 0 0.86 0.04 0 0.865 0.04 0 0.87 0.04 0 0.875 0.04 0 0.88 0.04 0 0.885 0.04 0 0.89 0.04 0 0.895 0.04 0 0.9 0.04 0 0.905 0.04 0 0.91 0.04 0 0.915 0.04 0 0.92 0.04 0 0.925 0.04 0 0.93 0.04 0 0.935 0.04 0 0.94 0.04 0 0.945 0.04 0 0.95 0.04 0 0.955 0.04 0 0.96 0.04 0 0.965 0.04 0 0.97 0.04 0 0.975 0.04 0 0.98 0.04 0 0.985 0.04 0 0.99 0.04 0 0.995 0.04 0 1 0.04 0 0 0.06 0 0.005 0.06 0 0.01 0.06 0 0.015 0.06 0 0.02 0.06 0 0.025 0.06 0 0.03 0.06 0 0.035 0.06 0 0.04 0.06 0 0.045 0.06 0 0.05 0.06 0 0.055 0.06 0 0.06 0.06 0 0.065 0.06 0 0.07 0.06 0 0.075 0.06 0 0.08 0.06 0 0.085 0.06 0 0.09 0.06 0 0.095 0.06 0 0.1 0.06 0 0.105 0.06 0 0.11 0.06 0 0.115 0.06 0 0.12 0.06 0 0.125 0.06 0 0.13 0.06 0 0.135 0.06 0 0.14 0.06 0 0.145 0.06 0 0.15 0.06 0 0.155 0.06 0 0.16 0.06 0 0.165 0.06 0 0.17 0.06 0 0.175 0.06 0 0.18 0.06 0 0.185 0.06 0 0.19 0.06 0 0.195 0.06 0 0.2 0.06 0 0.205 0.06 0 0.21 0.06 0 0.215 0.06 0 0.22 0.06 0 0.225 0.06 0 0.23 0.06 0 0.235 0.06 0 0.24 0.06 0 0.245 0.06 0 0.25 0.06 0 0.255 0.06 0 0.26 0.06 0 0.265 0.06 0 0.27 0.06 0 0.275 0.06 0 0.28 0.06 0 0.285 0.06 0 0.29 0.06 0 0.295 0.06 0 0.3 0.06 0 0.305 0.06 0 0.31 0.06 0 0.315 0.06 0 0.32 0.06 0 0.325 0.06 0 0.33 0.06 0 0.335 0.06 0 0.34 0.06 0 0.345 0.06 0 0.35 0.06 0 0.355 0.06 0 0.36 0.06 0 0.365 0.06 0 0.37 0.06 0 0.375 0.06 0 0.38 0.06 0 0.385 0.06 0 0.39 0.06 0 0.395 0.06 0 0.4 0.06 0 0.405 0.06 0 0.41 0.06 0 0.415 0.06 0 0.42 0.06 0 0.425 0.06 0 0.43 0.06 0 0.435 0.06 0 0.44 0.06 0 0.445 0.06 0 0.45 0.06 0 0.455 0.06 0 0.46 0.06 0 0.465 0.06 0 0.47 0.06 0 0.475 0.06 0 0.48 0.06 0 0.485 0.06 0 0.49 0.06 0 0.495 0.06 0 0.5 0.06 0 0.505 0.06 0 0.51 0.06 0 0.515 0.06 0 0.52 0.06 0 0.525 0.06 0 0.53 0.06 0 0.535 0.06 0 0.54 0.06 0 0.545 0.06 0 0.55 0.06 0 0.555 0.06 0 0.56 0.06 0 0.565 0.06 0 0.57 0.06 0 0.575 0.06 0 0.58 0.06 0 0.585 0.06 0 0.59 0.06 0 0.595 0.06 0 0.6 0.06 0 0.605 0.06 0 0.61 0.06 0 0.615 0.06 0 0.62 0.06 0 0.625 0.06 0 0.63 0.06 0 0.635 0.06 0 0.64 0.06 0 0.645 0.06 0 0.65 0.06 0 0.655 0.06 0 0.66 0.06 0 0.665 0.06 0 0.67 0.06 0 0.675 0.06 0 0.68 0.06 0 0.685 0.06 0 0.69 0.06 0 0.695 0.06 0 0.7 0.06 0 0.705 0.06 0 0.71 0.06 0 0.715 0.06 0 0.72 0.06 0 0.725 0.06 0 0.73 0.06 0 0.735 0.06 0 0.74 0.06 0 0.745 0.06 0 0.75 0.06 0 0.755 0.06 0 0.76 0.06 0 0.765 0.06 0 0.77 0.06 0 0.775 0.06 0 0.78 0.06 0 0.785 0.06 0 0.79 0.06 0 0.795 0.06 0 0.8 0.06 0 0.805 0.06 0 0.81 0.06 0 0.815 0.06 0 0.82 0.06 0 0.825 0.06 0 0.83 0.06 0 0.835 0.06 0 0.84 0.06 0 0.845 0.06 0 0.85 0.06 0 0.855 0.06 0 0.86 0.06 0 0.865 0.06 0 0.87 0.06 0 0.875 0.06 0 0.88 0.06 0 0.885 0.06 0 0.89 0.06 0 0.895 0.06 0 0.9 0.06 0 0.905 0.06 0 0.91 0.06 0 0.915 0.06 0 0.92 0.06 0 0.925 0.06 0 0.93 0.06 0 0.935 0.06 0 0.94 0.06 0 0.945 0.06 0 0.95 0.06 0 0.955 0.06 0 0.96 0.06 0 0.965 0.06 0 0.97 0.06 0 0.975 0.06 0 0.98 0.06 0 0.985 0.06 0 0.99 0.06 0 0.995 0.06 0 1 0.06 0 0 0.08 0 0.005 0.08 0 0.01 0.08 0 0.015 0.08 0 0.02 0.08 0 0.025 0.08 0 0.03 0.08 0 0.035 0.08 0 0.04 0.08 0 0.045 0.08 0 0.05 0.08 0 0.055 0.08 0 0.06 0.08 0 0.065 0.08 0 0.07 0.08 0 0.075 0.08 0 0.08 0.08 0 0.085 0.08 0 0.09 0.08 0 0.095 0.08 0 0.1 0.08 0 0.105 0.08 0 0.11 0.08 0 0.115 0.08 0 0.12 0.08 0 0.125 0.08 0 0.13 0.08 0 0.135 0.08 0 0.14 0.08 0 0.145 0.08 0 0.15 0.08 0 0.155 0.08 0 0.16 0.08 0 0.165 0.08 0
[...]
			<PointData Scalars="VitesseX">
				<DataArray Name="VitesseX" type="Float32" format="ascii">
 0 -1.03979e-14 -4.97802e-15 -8.99947e-14 4.41958e-14 -9.67409e-16 -3.95057e-14 -6.38031e-14 1.62463e-14 -8.50835e-14 -5.39121e-14 7.57462e-14 -1.85785e-13 1.52748e-13 -1.9298e-13 -6.15037e-14 3.96391e-14 -2.93475e-13 2.9246e-14 -7.97837e-14 -3.9536e-14 7.66184e-14 7.11452e-14 -4.40072e-14 -3.63048e-13 -1.05615e-14 1.91771e-13 -1.15934e-13 -9.90677e-15 -1.34015e-13 6.62235e-14 -1.63271e-13 7.93585e-14 6.0043e-14 -3.08969e-13 2.4637e-14 -1.73315e-13 1.50534e-13 -4.52044e-13 2.0871e-13 -1.03066e-13 -6.81367e-14 1.46963e-13 -5.00407e-13 -3.47827e-13 2.77957e-14 -5.55894e-13 3.97202e-13 -1.7223e-13 8.54964e-14 -2.35551e-13 1.48265e-13 8.15042e-13 -9.4152e-13 1.5042e-13 2.71978e-14 -5.23898e-13 3.62384e-13 -5.69199e-13 6.02162e-14 2.49238e-13 1.4395e-13 7.18725e-14 -3.47014e-13 2.7197e-13 -1.09897e-13 -1.14659e-13 -1.54417e-13 -6.22327e-13 1.81063e-13 1.503e-13 -5.54632e-13 1.59828e-13 -4.0699e-13 9.97606e-13 -1.84614e-13 3.58204e-12 6.27416e-11 8.17259e-10 9.66205e-09 1.0199e-07 9.53361e-07 7.81199e-06 5.54243e-05 0.000335187 0.00169344 0.00696669 0.0226731 0.0571333 0.112199 0.180089 0.252699 0.326396 0.399432 0.469375 0.535804 0.599547 0.659922 0.716725 0.768711 0.814994 0.854265 0.885264 0.908244 0.923786 0.933647 0.941597 0.950089 0.960681 0.983082 0.981743 0.964703 0.943335 0.922682 0.897905 0.86065 0.802401 0.716915 0.60277 0.466262 0.322692 0.19467 0.0997664 0.0430748 0.0161342 0.00551589 0.00178821 0.000559707 0.000170217 5.03852e-05 1.45198e-05 4.07286e-06 1.11179e-06 2.95305e-07 7.63137e-08 1.91888e-08 4.69397e-09 1.11745e-09 2.59409e-10 5.79187e-11 1.25582e-11 3.30355e-12 -4.47526e-13 8.94937e-13 3.40348e-13 -5.90127e-13 7.31337e-13 -1.61097e-12 1.0074e-12 -4.63877e-13 -2.50979e-13 1.6975e-12 -1.28889e-12 8.47238e-13 -5.15904e-13 9.92077e-13 -7.50037e-13 -5.76645e-13 1.26243e-14 -2.85077e-13 6.1663e-13 3.58204e-14 -6.97191e-13 1.62489e-13 -9.67163e-13 5.91124e-13 -2.00614e-13 3.52373e-13 7.70621e-13 -7.6713e-13 4.5807e-14 3.32958e-13 -7.26316e-13 1.2143e-12 -3.23752e-13 4.34795e-13 -6.44119e-13 -5.37477e-13 1.15524e-12 -8.17569e-13 -4.63557e-13 -6.40819e-13 -1.20368e-12 1.64644e-12 -8.04735e-13 2.0754e-13 -5.58868e-14 -7.6066e-13 1.20161e-12 -1.62311e-12 3.03848e-13 6.46627e-13 -1.78962e-12 1.147e-12 -7.18536e-13 -2.67305e-13 4.45701e-13 -2.20935e-12 9.38129e-13 -1.52073e-12 0 0 -8.31898e-15 -2.68956e-14 3.13385e-14 -7.01294e-14 -2.57187e-14 6.7501e-15 -2.85316e-15 -6.14501e-14 7.71254e-15 2.36483e-14 -8.65385e-14 1.31739e-13 -2.15693e-13 5.31568e-14 -8.5365e-14 -2.57054e-13 3.44376e-14 -1.78037e-13 3.02183e-14 6.09318e-14 -3.91426e-14 -1.27384e-13 -1.23873e-13 1.22055e-13 -7.40889e-14 -1.88787e-13 5.70045e-14 -5.04057e-14 6.64353e-14 -1.47385e-13 6.04074e-14 -8.30154e-14 -6.68729e-14 6.97763e-14 -1.2495e-13 -1.33316e-14 -3.74825e-13 2.78372e-13 -3.04093e-13 -2.67612e-14 -1.4277e-13 -2.83471e-13 7.81864e-14 -7.03164e-14 -4.48274e-13 9.04989e-14 -3.6819e-13 2.48629e-13 6.6642e-14 2.23325e-13 -6.61457e-14 -4.89938e-13 8.40897e-13 -1.88155e-13 -3.93502e-13 4.95576e-14 -6.27458e-13 3.63366e-13 -1.09981e-13 -1.05915e-13 -8.66922e-14 -5.06453e-15 2.5718e-13 -2.96985e-13 -3.16833e-14 -1.78759e-13 -9.92452e-14 1.00405e-13 -2.95261e-13 -2.0651e-13 4.36717e-13 -1.92129e-13 3.06881e-13 -6.34226e-13 7.32659e-13 4.71406e-12 6.16729e-11 8.17562e-10 9.66091e-09 1.01992e-07 9.53359e-07 7.81198e-06 5.54243e-05 0.000335187 0.00169344 0.00696669 0.0226731 0.0571333 0.112199 0.180089 0.252699 0.326396 0.399432 0.469375 0.535804 0.599547 0.659922 0.716725 0.768711 0.814994 0.854265 0.885264 0.908244 0.923786 0.933647 0.941597 0.950089 0.960681 0.983082 0.981743 0.964703 0.943335 0.922682 0.897905 0.86065 0.802401 0.716915 0.60277 0.466262 0.322692 0.19467 0.0997664 0.0430748 0.0161342 0.00551589 0.00178821 0.000559707 0.000170217 5.03852e-05 1.45198e-05 4.07287e-06 1.11179e-06 2.95304e-07 7.63145e-08 1.91877e-08 4.69468e-09 1.11754e-09 2.58272e-10 5.85493e-11 1.26145e-11 2.50522e-12 1.32375e-12 -2.49588e-13 1.1001e-13 3.81866e-13 -1.00944e-12 7.64546e-13 -6.1237e-13 2.43486e-13 5.08704e-13 -7.9678e-13 1.27117e-12 -7.06507e-13 7.15431e-13 -9.16862e-13 2.20067e-13 -2.7253e-13 -2.85067e-13 2.26193e-13 -5.85855e-13 -1.49866e-13 3.4704e-14 -4.44776e-13 5.93741e-13 -4.9872e-13 6.5155e-14 -3.12927e-14 -1.38245e-13 8.27189e-13 6.6877e-14 -3.26407e-13 6.60382e-13 -8.97036e-13 6.128e-13 -1.49784e-13 3.99283e-13 -1.2968e-13 -1.25182e-12 2.12924e-13 -4.84821e-13 -2.43617e-13 4.94537e-13 -1.11885e-12 7.05691e-13 -2.6302e-13 -2.02305e-13 4.15893e-13 -1.17765e-12 8.77385e-13 -7.42253e-13 -1.11485e-12 1.56797e-12 -9.04751e-13 1.17065e-13 -1.39055e-13 -1.1905e-12 6.97228e-13 -1.97293e-12 3.75248e-13 0 0 -8.67845e-16 1.52331e-14 -1.85182e-14 2.59693e-14 -2.87082e-14 -3.76468e-14 -1.21016e-14 1.23732e-15 5.58559e-14 -2.36341e-15 1.99858e-14 -1.059e-13 5.31758e-14 -1.48791e-13 -1.59946e-13 -2.98316e-14 -1.05924e-13 -4.29298e-14 -1.13794e-14 -7.50942e-14 -5.1192e-14 -4.27967e-14 -7.29027e-14 -1.00765e-13 -6.43554e-14 -3.13125e-14 -7.6179e-14 -6.88378e-14 6.25519e-14 6.96787e-14 -5.62206e-15 2.49677e-14 -3.22467e-14 -1.20884e-13 -2.24237e-14 -1.80169e-13 4.73568e-14 -1.90035e-13 6.26978e-14 -3.53458e-13 -6.95419e-14 -9.07804e-14 2.56842e-14 -1.8133e-13 3.78776e-14 -2.65699e-13 1.959e-14 -5.45669e-14 1.68899e-13 6.17481e-14 8.56962e-14 1.68998e-13 -3.79662e-13 1.50357e-13 1.07924e-13 -3.97166e-13 1.11636e-13 -2.54841e-13 -9.74357e-14 -2.93206e-13 -2.07371e-13 8.68789e-14 -1.20446e-13 1.97006e-13 -1.21574e-13 -9.46482e-14 -6.97388e-14 -3.66036e-14 8.8097e-14 1.42539e-14 -8.03703e-14 1.05928e-13 -2.53691e-13 2.74307e-13 4.26285e-13 4.7251e-12 6.25981e-11 8.16589e-10 9.66225e-09 1.0199e-07 9.5336e-07 7.81198e-06 5.54243e-05 0.000335187 0.00169344 0.00696669 0.0226731 0.0571333 0.112199 0.180089 0.252699 0.326396 0.399432 0.469375 0.535804 0.599547 0.659922 0.716725 0.768711 0.814994 0.854265 0.885264 0.908244 0.923786 0.933647 0.941597 0.950089 0.960681 0.983082 0.981743 0.964703 0.943335 0.922682 0.897905 0.86065 0.802401 0.716915 0.60277 0.466262 0.322692 0.19467 0.0997664 0.0430748 0.0161342 0.00551589 0.00178821 0.000559707 0.000170217 5.03852e-05 1.45198e-05 4.07286e-06 1.11179e-06 2.95304e-07 7.6314e-08 1.91883e-08 4.69419e-09 1.11735e-09 2.59039e-10 5.79284e-11 1.27991e-11 2.96541e-12 3.00332e-13 3.17369e-13 -6.59884e-14 2.68866e-14 1.7837e-13 6.66391e-14 2.7678e-13 1.00051e-13 -6.51881e-13 7.1673e-13 -2.73266e-14 7.14696e-13 -9.69916e-13 -4.85727e-13 -4.3021e-13 1.55442e-13 -2.18535e-13 -4.13457e-13 -3.61086e-13 -1.88319e-13 -1.64602e-13 -5.16658e-14 -2.52736e-13 2.38641e-13 -2.57574e-13 2.02387e-13 1.61724e-13 2.10352e-14 5.51446e-13 -7.07311e-15 -2.0987e-13 2.60405e-13 -4.9731e-13 4.65315e-13 1.35084e-13 -1.52176e-13 -6.74397e-13 -7.36972e-13 9.2529e-15 -4.7101e-14 -4.16106e-13 7.33956e-14 -3.45269e-13 2.49606e-13 -2.48153e-13 -1.62573e-13 2.50745e-13 -4.52928e-13 2.80909e-13 1.49757e-15 -6.24597e-13 1.44125e-13 -7.19901e-13 -1.12727e-13 1.05308e-13 -9.55521e-13 4.63666e-14 -1.92306e-13 0 0 -4.3712e-15 -1.11909e-14 -1.19685e-14 6.07666e-14 4.22879e-14 1.82134e-14 -1.61594e-14 3.25295e-14 -4.36352e-14 -1.64108e-14 -4.80487e-14 -7.96034e-14 3.25535e-14 -1.93749e-13 -6.10749e-14 -4.03459e-14 -8.08687e-14 3.00637e-14 -7.05112e-14 -5.67821e-14 -8.80392e-14 -9.29193e-14 -5.95255e-14 -2.05315e-13 4.03488e-14 2.63287e-14 -1.07835e-13 -4.17855e-15 -2.59399e-14 9.06423e-14 2.14507e-14 -1.18093e-14 5.59742e-14 -1.84282e-13 -1.47337e-13 -1.17233e-13 -6.71371e-14 -8.34034e-14 -2.13964e-14 5.40543e-14 -1.16687e-13 4.67228e-14 -2.91138e-13 -2.37618e-13 -1.10484e-13 -2.25469e-13 4.24279e-14 1.22778e-13 1.27119e-14 8.7218e-15 1.05395e-13 5.26026e-14 -2.74268e-13 1.66886e-13 -1.09245e-13 -3.76969e-13 -4.02031e-14 -1.95766e-13 -2.77816e-13 1.77995e-13 -9.9143e-14 4.46889e-14 -9.21088e-14 9.24746e-14 9.57345e-14 6.79899e-14 -3.25245e-13 -2.32682e-13 1.40384e-13 8.41433e-14 -1.35624e-13 1.14581e-13 -2.41017e-13 4.26654e-13 6.74131e-13 4.27936e-12 6.29393e-11 8.17549e-10 9.66139e-09 1.0199e-07 9.5336e-07 7.81198e-06 5.54243e-05 0.000335187 0.00169344 0.00696669 0.0226731 0.0571333 0.112199 0.180089 0.252699 0.326396 0.399432 0.469375 0.535804 0.599547 0.659922 0.716725 0.768711 0.814994 0.854265 0.885264 0.908244 0.923786 0.933647 0.941597 0.950089 0.960681 0.983082 0.981743 0.964703 0.943335 0.922682 0.897905 0.86065 0.802401 0.716915 0.60277 0.466262 0.322692 0.19467 0.0997664 0.0430748 0.0161342 0.00551589 0.00178821 0.000559707 0.000170217 5.03852e-05 1.45198e-05 4.07286e-06 1.11179e-06 2.95304e-07 7.63138e-08 1.91883e-08 4.69437e-09 1.11764e-09 2.59053e-10 5.82663e-11 1.28436e-11 3.03766e-12 1.00962e-13 2.43433e-13 4.05048e-13 -7.76941e-14 7.40215e-13 -1.67553e-13 6.40552e-13 -1.8966e-13 -8.59871e-13 8.10769e-13 -2.66291e-13 -4.40387e-13 -1.51728e-13 -2.05689e-13 -3.80306e-13 -1.48512e-13 -1.00735e-12 -4.25859e-13 -1.53321e-13 1.02714e-13 -2.02127e-13 -4.5442e-13 -6.88596e-13 2.83072e-13 2.79115e-13 1.89213e-13 2.52893e-13 -1.02218e-12 -1.85197e-13 6.78256e-13 1.64183e-14 5.8424e-13 8.90312e-14 -1.28259e-13 -6.8323e-13 3.51827e-13 3.33811e-13 -9.84265e-13 -1.51651e-13 -8.73044e-13 1.86698e-13 2.3911e-13 -1.15596e-15 1.12596e-13 -2.89764e-15 -6.28854e-13 5.4865e-14 -1.60215e-13 9.59278e-13 2.46973e-13 -1.38482e-12 5.42511e-13 -2.85327e-13 -5.74542e-13 7.18986e-13 -2.82909e-13 -1.90377e-13 -1.45535e-12 0 0 7.53987e-15 -8.17035e-15 7.75342e-14 -7.97529e-15 5.68165e-14 6.6884e-14 1.93187e-14 -8.02986e-15 -2.59756e-14 5.79943e-15 -1.64362e-13 8.1791e-14 -2.80242e-13 3.03067e-14 1.12091e-14 -2.06763e-13 3.55864e-14 -1.0689e-13 -2.85633e-14 1.84556e-14 -9.39033e-14 -2.16966e-13 -1.31019e-13 1.35393e-13 5.81127e-14 -7.05519e-14 7.67569e-14 2.40114e-14 4.01432e-14 -1.33813e-13 -5.10222e-14 -2.11343e-13 -1.04019e-13 -1.88405e-14 -1.00982e-13 -3.89093e-15 -3.7582e-13 3.8305e-13 -4.15737e-13 2.02246e-13 -1.98706e-13 -2.25877e-13 -2.65904e-14 -1.63448e-15 -5.39771e-13 1.35442e-13 -3.75157e-13 2.39601e-13 6.97766e-14 2.41671e-13 3.56138e-14 -6.05295e-13 8.37388e-13 -3.95633e-13 -5.97218e-13 2.85021e-14 -7.25627e-13 2.30933e-13 -1.69817e-13 -2.20273e-14 3.48406e-14 1.72744e-14 3.02604e-13 -3.34251e-13 3.63202e-13 9.78721e-14 -2.71636e-13 8.11915e-14 -3.84252e-13 -2.03043e-13 4.35162e-13 3.30852e-14 4.89837e-13 -4.60024e-13 1.13508e-12 4.79074e-12 6.19704e-11 8.17988e-10 9.66071e-09 1.01992e-07 9.5336e-07 7.81198e-06 5.54243e-05 0.000335187 0.00169344 0.00696669 0.0226731 0.0571333 0.112199 0.180089 0.252699 0.326396 0.399432 0.469375 0.535804 0.599547 0.659922 0.716725 0.768711 0.814994 0.854265 0.885264 0.908244 0.923786 0.933647 0.941597 0.950089 0.960681 0.983082 0.981743 0.964703 0.943335 0.922682 0.897905 0.86065 0.802401 0.716915 0.60277 0.466262 0.322692 0.19467 0.0997664 0.0430748 0.0161342 0.00551589 0.00178821 0.000559707 0.000170217 5.03852e-05 1.45198e-05 4.07287e-06 1.11179e-06 2.95304e-07 7.63145e-08 1.91875e-08 4.69494e-09 1.11755e-09 2.58376e-10 5.91758e-11 1.32094e-11 2.39248e-12 1.67504e-12 -4.0853e-13 -4.07352e-15 6.73485e-13 -3.99323e-13 1.09482e-12 -3.61141e-13 -3.55593e-13 1.73743e-13 -1.18557e-12 1.00303e-12 -1.17373e-12 1.2687e-12 -8.48074e-13 -2.00915e-13 -6.40491e-13 -1.14066e-12 -1.40273e-13 -8.26412e-13 4.05366e-13 -8.36078e-14 -5.87304e-13 4.99348e-13 -4.04933e-13 5.35708e-13 -9.87384e-14 -3.35164e-13 -2.85458e-13 -5.76361e-13 8.42324e-14 8.79586e-13 -9.67732e-13 5.56239e-13 -5.15805e-13 -5.39826e-15 3.06732e-13 -7.77267e-13 -2.00508e-14 -7.13755e-13 -8.29652e-13 9.72924e-13 -6.78256e-13 1.07134e-12 -2.20075e-13 7.77649e-14 9.61107e-15 -1.01547e-12 1.22282e-12 -4.18077e-13 -1.10673e-12 1.2979e-12 -7.29951e-13 5.92955e-13 -4.4769e-13 -7.23798e-13 6.01654e-13 -2.20315e-12 -2.7072e-13 0 0 2.83265e-14 8.53205e-14 -1.07029e-14 9.89096e-14 2.21108e-14 -3.09583e-14 -1.13437e-14 6.05024e-14 4.65225e-14 -6.1515e-14 5.61687e-14 -3.38272e-13 6.48944e-14 -1.48765e-13 -6.60976e-14 1.6125e-13 -3.41288e-13 2.5553e-14 -7.90831e-14 -1.61113e-13 4.07915e-14 -7.77315e-15 -8.50523e-14 -1.27269e-13 4.44334e-14 3.12958e-13 -1.31178e-14 9.60902e-15 -9.61618e-15 5.14395e-14 -4.40275e-13 -1.03743e-13 -1.90692e-13 -3.59406e-13 3.224e-13 -2.80305e-13 3.77533e-13 -4.55951e-13 1.53611e-13 -4.60077e-13 -8.57189e-14 -1.28548e-14 -7.63167e-14 -9.78857e-14 1.41525e-13 -5.46468e-13 3.37593e-13 -5.44977e-13 4.04139e-13 -9.28055e-14 3.12387e-13 8.17121e-13 -1.15933e-12 -2.97594e-13 5.41023e-14 -6.06403e-13 4.69725e-13 -9.52214e-13 3.01306e-13 -5.2539e-13 1.70561e-13 2.0093e-13 -3.1284e-13 4.06501e-13 2.45257e-13 1.13327e-13 1.18142e-14 -2.68597e-13 -1.01493e-13 1.74554e-14 -4.47234e-13 5.9295e-13 -6.64271e-14 1.04132e-12 1.24536e-13 4.6269e-12 6.26541e-11 8.16192e-10 9.66338e-09 1.0199e-07 9.53361e-07 7.81199e-06 5.54243e-05 0.000335187 0.00169344 0.00696669 0.0226731 0.0571333 0.112199 0.180089 0.252699 0.326396 0.399432 0.469375 0.535804 0.599547 0.659922 0.716725 0.768711 0.814994 0.854265 0.885264 0.908244 0.923786 0.933647 0.941597 0.950089 0.960681 0.983082 0.981743 0.964703 0.943335 0.922682 0.897905 0.86065 0.802401 0.716915 0.60277 0.466262 0.322692 0.19467 0.0997664 0.0430748 0.0161342 0.00551589 0.00178821 0.000559707 0.000170217 5.03852e-05 1.45198e-05 4.07286e-06 1.11179e-06 2.95305e-07 7.63139e-08 1.91885e-08 4.69412e-09 1.11689e-09 2.59588e-10 5.8496e-11 1.36592e-11 2.93357e-12 6.53791e-13 7.24923e-13 -8.29892e-13 2.02273e-13 8.27883e-13 -4.82028e-13 7.82318e-13 -1.08261e-12 -5.0492e-13 7.31849e-13 -1.34725e-12 2.22296e-12 -1.04574e-12 5.69577e-13 -1.69181e-12 -7.0466e-13 -1.20932e-13 -9.93204e-13 -2.80014e-13 5.64216e-13 -8.58764e-13 6.82942e-13 -2.84229e-13 6.89835e-13 -3.32886e-13 2.4383e-13 1.94446e-13 -9.06001e-13 2.32616e-13 -2.1642e-13 -7.40486e-13 4.25241e-13 -1.60956e-12 8.89901e-13 1.83145e-13 -6.72657e-13 8.79396e-14 -7.88931e-13 -5.99616e-13 -1.61005e-13 -1.45252e-12 2.1962e-12 -7.61659e-13 5.6745e-13 1.37429e-14 -6.40661e-13 1.91772e-12 -1.51766e-12 -4.04539e-13 1.71917e-13 -8.09315e-13 6.9983e-13 -6.35904e-13 3.90559e-14 1.51738e-13 -3.74572e-12 9.51184e-13 -2.86574e-13 0
				</DataArray>
				<DataArray Name="VitesseY" type="Float32" format="ascii">