<?xml version="1.0"?>
<VTKFile type="PolyData">
	<PolyData>
		<Piece NumberOfPoints="1206" NumberOfPolys="1000">
			<Points>
				<DataArray type="Float32" NumberOfComponents="3" format="ascii">
 0 0 0 0.005 0 0 0.01 0 0 0.015 0 0 0.02 0 0 0.025 0 0 0.03 0 0 0.035 0 0 0.04 0 0 0.045 0 0 0.05 0 0 0.055 0 0 0.06 0 0 0.065 0 0 0.07 0 0 0.075 0 0 0.08 0 0 0.085 0 0 0.09 0 0 0.095 0 0 0.1 0 0 0.105 0 0 0.11 0 0 0.115 0 0 0.12 0 0 0.125 0 0 0.13 0 0 0.135 0 0 0.14 0 0 0.145 0 0 0.15 0 0 0.155 0 0 0.16 0 0 0.165 0 0 0.17 0 0 0.175 0 0 0.18 0 0 0.185 0 0 0.19 0 0 0.195 0 0 0.2 0 0 0.205 0 0 0.21 0 0 0.215 0 0 0.22 0 0 0.225 0 0 0.23 0 0 0.235 0 0 0.24 0 0 0.245 0 0 0.25 0 0 0.255 0 0 0.26 0 0 0.265 0 0 0.27 0 0 0.275 0 0 0.28 0 0 0.285 0 0 0.29 0 0 0.295 0 0 0.3 0 0 0.305 0 0 0.31 0 0 0.315 0 0 0.32 0 0 0.325 0 0 0.33 0 0 0.335 0 0 0.34 0 0 0.345 0 0 0.35 0 0 0.355 0 0 0.36 0 0 0.365 0 0 0.37 0 0 0.375 0 0 0.38 0 0 0.385 0 0 0.39 0 0 0.395 0 0 0.4 0 0 0.405 0 0 0.41 0 0 0.415 0 0 0.42 0 0 0.425 0 0 0.43 0 0 0.435 0 0 0.44 0 0 0.445 0 0 0.45 0 0 0.455 0 0 0.46 0 0 0.465 0 0 0.47 0 0 0.475 0 0 0.48 0 0 0.485 0 0 0.49 0 0 0.495 0 0 0.5 0 0 0.505 0 0 0.51 0 0 0.515 0 0 0.52 0 0 0.525 0 0 0.53 0 0 0.535 0 0 0.54 0 0 0.545 0 0 0.55 0 0 0.555 0 0 0.56 0 0 0.565 0 0 0.57 0 0 0.575 0 0 0.58 0 0 0.585 0 0 0.59 0 0 0.595 0 0 0.6 0 0 0.605 0 0 0.61 0 0 0.615 0 0 0.62 0 0 0.625 0 0 0.63 0 0 0.635 0 0 0.64 0 0 0.645 0 0 0.65 0 0 0.655 0 0 0.66 0 0 0.665 0 0 0.67 0 0 0.675 0 0 0.68 0 0 0.685 0 0 0.69 0 0 0.695 0 0 0.7 0 0 0.705 0 0 0.71 0 0 0.715 0 0 0.72 0 0 0.725 0 0 0.73 0 0 0.735 0 0 0.74 0 0 0.745 0 0 0.75 0 0 0.755 0 0 0.76 0 0 0.765 0 0 0.77 0 0 0.775 0 0 0.78 0 0 0.785 0 0 0.79 0 0 0.795 0 0 0.8 0 0 0.805 0 0 0.81 0 0 0.815 0 0 0.82 0 0 0.825 0 0 0.83 0 0 0.835 0 0 0.84 0 0 0.845 0 0 0.85 0 0 0.855 0 0 0.86 0 0 0.865 0 0 0.87 0 0 0.875 0 0 0.88 0 0 0.885 0 0 0.89 0 0 0.895 0 0 0.9 0 0 0.905 0 0 0.91 0 0 0.915 0 0 0.92 0 0 0.925 0 0 0.93 0 0 0.935 0 0 0.94 0 0 0.945 0 0 0.95 0 0 0.955 0 0 0.96 0 0 0.965 0 0 0.97 0 0 0.975 0 0 0.98 0 0 0.985 0 0 0.99 0 0 0.995 0 0 1 0 0 0 0.02 0 0.005 0.02 0 0.01 0.02 0 0.015 0.02 0 0.02 0.02 0 0.025 0.02 0 0.03 0.02 0 0.035 0.02 0 0.04 0.02 0 0.045 0.02 0 0.05 0.02 0 0.055 0.02 0 0.06 0.02 0 0.065 0.02 0 0.07 0.02 0 0.075 0.02 0 0.08 0.02 0 0.085 0.02 0 0.09 0.02 0 0.095 0.02 0 0.1 0.02 0 0.105 0.02 0 0.11 0.02 0 0.115 0.02 0 0.12 0.02 0 0.125 0.02 0 0.13 0.02 0 0.135 0.02 0 0.14 0.02 0 0.145 0.02 0 0.15 0.02 0 0.155 0.02 0 0.16 0.02 0 0.165 0.02 0 0.17 0.02 0 0.175 0.02 0 0.18 0.02 0 0.185 0.02 0 0.19 0.02 0 0.195 0.02 0 0.2 0.02 0 0.205 0.02 0 0.21 0.02 0 0.215 0.02 0 0.22 0.02 0 0.225 0.02 0 0.23 0.02 0 0.235 0.02 0 0.24 0.02 0 0.245 0.02 0 0.25 0.02 0 0.255 0.02 0 0.26 0.02 0 0.265 0.02 0 0.27 0.02 0 0.275 0.02 0 0.28 0.02 0 0.285 0.02 0 0.29 0.02 0 0.295 0.02 0 0.3 0.02 0 0.305 0.02 0 0.31 0.02 0 0.315 0.02 0 0.32 0.02 0 0.325 0.02 0 0.33 0.02 0 0.335 0.02 0 0.34 0.02 0 0.345 0.02 0 0.35 0.02 0 0.355 0.02 0 0.36 0.02 0 0.365 0.02 0 0.37 0.02 0 0.375 0.02 0 0.38 0.02 0 0.385 0.02 0 0.39 0.02 0 0.395 0.02 0 0.4 0.02 0 0.405 0.02 0 0.41 0.02 0 0.415 0.02 0 0.42 0.02 0 0.425 0.02 0 0.43 0.02 0 0.435 0.02 0 0.44 0.02 0 0.445 0.02 0 0.45 0.02 0 0.455 0.02 0 0.46 0.02 0 0.465 0.02 0 0.47 0.02 0 0.475 0.02 0 0.48 0.02 0 0.485 0.02 0 0.49 0.02 0 0.495 0.02 0 0.5 0.02 0 0.505 0.02 0 0.51 0.02 0 0.515 0.02 0 0.52 0.02 0 0.525 0.02 0 0.53 0.02 0 0.535 0.02 0 0.54 0.02 0 0.545 0.02 0 0.55 0.02 0 0.555 0.02 0 0.56 0.02 0 0.565 0.02 0 0.57 0.02 0 0.575 0.02 0 0.58 0.02 0 0.585 0.02 0 0.59 0.02 0 0.595 0.02 0 0.6 0.02 0 0.605 0.02 0 0.61 0.02 0 0.615 0.02 0 0.62 0.02 0 0.625 0.02 0 0.63 0.02 0 0.635 0.02 0 0.64 0.02 0 0.645 0.02 0 0.65 0.02 0 0.655 0.02 0 0.66 0.02 0 0.665 0.02 0 0.67 0.02 0 0.675 0.02 0 0.68 0.02 0 0.685 0.02 0 0.69 0.02 0 0.695 0.02 0 0.7 0.02 0 0.705 0.02 0 0.71 0.02 0 0.715 0.02 0 0.72 0.02 0 0.725 0.02 0 0.73 0.02 0 0.735 0.02 0 0.74 0.02 0 0.745 0.02 0 0.75 0.02 0 0.755 0.02 0 0.76 0.02 0 0.765 0.02 0 0.77 0.02 0 0.775 0.02 0 0.78 0.02 0 0.785 0.02 0 0.79 0.02 0 0.795 0.02 0 0.8 0.02 0 0.805 0.02 0 0.81 0.02 0 0.815 0.02 0 0.82 0.02 0 0.825 0.02 0 0.83 0.02 0 0.835 0.02 0 0.84 0.02 0 0.845 0.02 0 0.85 0.02 0 0.855 0.02 0 0.86 0.02 0 0.865 0.02 0 0.87 0.02 0 0.875 0.02 0 0.88 0.02 0 0.885 0.02 0 0.89 0.02 0 0.895 0.02 0 0.9 0.02 0 0.905 0.02 0 0.91 0.02 0 0.915 0.02 0 0.92 0.02 0 0.925 0.02 0 0.93 0.02 0 0.935 0.02 0 0.94 0.02 0 0.945 0.02 0 0.95 0.02 0 0.955 0.02 0 0.96 0.02 0 0.965 0.02 0 0.97 0.02 0 0.975 0.02 0 0.98 0.02 0 0.985 0.02 0 0.99 0.02 0 0.995 0.02 0 1 0.02 0 0 0.04 0 0.005 0.04 0 0.01 0.04 0 0.015 0.04 0 0.02 0.04 0 0.025 0.04 0 0.03 0.04 0 0.035 0.04 0 0.04 0.04 0 0.045 0.04 0 0.05 0.04 0 0.055 0.04 0 0.06 0.04 0 0.065 0.04 0 0.07 0.04 0 0.075 0.04 0 0.08 0.04 0 0.085 0.04 0 0.09 0.04 0 0.095 0.04 0 0.1 0.04 0 0.105 0.04 0 0.11 0.04 0 0.115 0.04 0 0.12 0.04 0 0.125 0.04 0 0.13 0.04 0 0.135 0.04 0 0.14 0.04 0 0.145 0.04 0 0.15 0.04 0 0.155 0.04 0 0.16 0.04 0 0.165 0.04 0 0.17 0.04 0 0.175 0.04 0 0.18 0.04 0 0.185 0.04 0 0.19 0.04 0 0.195 0.04 0 0.2 0.04 0 0.205 0.04 0 0.21 0.04 0 0.215 0.04 0 0.22 0.04 0 0.225 0.04 0 0.23 0.04 0 0.235 0.04 0 0.24 0.04 0 0.245 0.04 0 0.25 0.04 0 0.255 0.04 0 0.26 0.04 0 0.265 0.04 0 0.27 0.04 0 0.275 0.04 0 0.28 0.04 0 0.285 0.04 0 0.29 0.04 0 0.295 0.04 0 0.3 0.04 0 0.305 0.04 0 0.31 0.04 0 0.315 0.04 0 0.32 0.04 0 0.325 0.04 0 0.33 0.04 0 0.335 0.04 0 0.34 0.04 0 0.345 0.04 0 0.35 0.04 0 0.355 0.04 0 0.36 0.04 0 0.365 0.04 0 0.37 0.04 0 0.375 0.04 0 0.38 0.04 0 0.385 0.04 0 0.39 0.04 0 0.395 0.04 0 0.4 0.04 0 0.405 0.04 0 0.41 0.04 0 0.415 0.04 0 0.42 0.04 0 0.425 0.04 0 0.43 0.04 0 0.435 0.04 0 0.44 0.04 0 0.445 0.04 0 0.45 0.04 0 0.455 0.04 0 0.46 0.04 0 0.465 0.04 0 0.47 0.04 0 0.475 0.04 0 0.48 0.04 0 0.485 0.04 0 0.49 0.04 0 0.495 0.04 0 0.5 0.04 0 0.505 0.04 0 0.51 0.04 0 0.515 0.04 0 0.52 0.04 0 0.525 0.04 0 0.53 0.04 0 0.535 0.04 0 0.54 0.04 0 0.545 0.04 0 0.55 0.04 0 0.555 0.04 0 0.56 0.04 0 0.565 0.04 0 0.57 0.04 0 0.575 0.04 0 0.58 0.04 0 0.585 0.04 0 0.59 0.04 0 0.595 0.04 0 0.6 0.04 0 0.605 0.04 0 0.61 0.04 0 0.615 0.04 0 0.62 0.04 0 0.625 0.04 0 0.63 0.04 0 0.635 0.04 0 0.64 0.04 0 0.645 0.04 0 0.65 0.04 0 0.655 0.04 0 0.66 0.04 0 0.665 0.04 0 0.67 0.04 0 0.675 0.04 0 0.68 0.04 0 0.685 0.04 0 0.69 0.04 0 0.695 0.04 0 0.7 0.04 0 0.705 0.04 0 0.71 0.04 0 0.715 0.04 0 0.72 0.04 0 0.725 0.04 0 0.73 0.04 0 0.735 0.04 0 0.74 0.04 0 0.745 0.04 0 0.75 0.04 0 0.755 0.04 0 0.76 0.04 0 0.765 0.04 0 0.77 0.04 0 0.775 0.04 0 0.78 0.04 0 0.785 0.04 0 0.79 0.04 0 0.795 0.04 0 0.8 0.04 0 0.805 0.04 0 0.81 0.04 0 0.815 0.04 0 0.82 0.04 0 0.825 0.04 0 0.83 0.04 0 0.835 0.04 0 0.84 0.04 0 0.845 0.04 0 0.85 0.04 0 0.855 0.04 0 0.86 0.04 0 0.865 0.04 0 0.87 0.04 0 0.875 0.04 0 0.88 0.04 0 0.885 0.04 0 0.89 0.04 0 0.895 0.04 0 0.9 0.04 0 0.905 0.04 0 0.91 0.04 0 0.915 0.04 0 0.92 0.04 0 0.925 0.04 0 0.93 0.04 0 0.935 0.04 0 0.94 0.04 0 0.945 0.04 0 0.95 0.04 0 0.955 0.04 0 0.96 0.04 0 0.965 0.04 0 0.97 0.04 0 0.975 0.04 0 0.98 0.04 0 0.985 0.04 0 0.99 0.04 0 0.995 0.04 0 1 0.04 0 0 0.06 0 0.005 0.06 0 0.01 0.06 0 0.015 0.06 0 0.02 0.06 0 0.025 0.06 0 0.03 0.06 0 0.035 0.06 0 0.04 0.06 0 0.045 0.06 0 0.05 0.06 0 0.055 0.06 0 0.06 0.06 0 0.065 0.06 0 0.07 0.06 0 0.075 0.06 0 0.08 0.06 0 0.085 0.06 0 0.09 0.06 0 0.095 0.06 0 0.1 0.06 0 0.105 0.06 0 0.11 0.06 0 0.115 0.06 0 0.12 0.06 0 0.125 0.06 0 0.13 0.06 0 0.135 0.06 0 0.14 0.06 0 0.145 0.06 0 0.15 0.06 0 0.155 0.06 0 0.16 0.06 0 0.165 0.06 0 0.17 0.06 0 0.175 0.06 0 0.18 0.06 0 0.185 0.06 0 0.19 0.06 0 0.195 0.06 0 0.2 0.06 0 0.205 0.06 0 0.21 0.06 0 0.215 0.06 0 0.22 0.06 0 0.225 0.06 0 0.23 0.06 0 0.235 0.06 0 0.24 0.06 0 0.245 0.06 0 0.25 0.06 0 0.255 0.06 0 0.26 0.06 0 0.265 0.06 0 0.27 0.06 0 0.275 0.06 0 0.28 0.06 0 0.285 0.06 0 0.29 0.06 0 0.295 0.06 0 0.3 0.06 0 0.305 0.06 0 0.31 0.06 0 0.315 0.06 0 0.32 0.06 0 0.325 0.06 0 0.33 0.06 0 0.335 0.06 0 0.34 0.06 0 0.345 0.06 0 0.35 0.06 0 0.355 0.06 0 0.36 0.06 0 0.365 0.06 0 0.37 0.06 0 0.375 0.06 0 0.38 0.06 0 0.385 0.06 0 0.39 0.06 0 0.395 0.06 0 0.4 0.06 0 0.405 0.06 0 0.41 0.06 0 0.415 0.06 0 0.42 0.06 0 0.425 0.06 0 0.43 0.06 0 0.435 0.06 0 0.44 0.06 0 0.445 0.06 0 0.45 0.06 0 0.455 0.06 0 0.46 0.06 0 0.465 0.06 0 0.47 0.06 0 0.475 0.06 0 0.48 0.06 0 0.485 0.06 0 0.49 0.06 0 0.495 0.06 0 0.5 0.06 0 0.505 0.06 0 0.51 0.06 0 0.515 0.06 0 0.52 0.06 0 0.525 0.06 0 0.53 0.06 0 0.535 0.06 0 0.54 0.06 0 0.545 0.06 0 0.55 0.06 0 0.555 0.06 0 0.56 0.06 0 0.565 0.06 0 0.57 0.06 0 0.575 0.06 0 0.58 0.06 0 0.585 0.06 0 0.59 0.06 0 0.595 0.06 0 0.6 0.06 0 0.605 0.06 0 0.61 0.06 0 0.615 0.06 0 0.62 0.06 0 0.625 0.06 0 0.63 0.06 0 0.635 0.06 0 0.64 0.06 0 0.645 0.06 0 0.65 0.06 0 0.655 0.06 0 0.66 0.06 0 0.665 0.06 0 0.67 0.06 0 0.675 0.06 0 0.68 0.06 0 0.685 0.06 0 0.69 0.06 0 0.695 0.06 0 0.7 0.06 0 0.705 0.06 0 0.71 0.06 0 0.715 0.06 0 0.72 0.06 0 0.725 0.06 0 0.73 0.06 0 0.735 0.06 0 0.74 0.06 0 0.745 0.06 0 0.75 0.06 0 0.755 0.06 0 0.76 0.06 0 0.765 0.06 0 0.77 0.06 0 0.775 0.06 0 0.78 0.06 0 0.785 0.06 0 0.79 0.06 0 0.795 0.06 0 0.8 0.06 0 0.805 0.06 0 0.81 0.06 0 0.815 0.06 0 0.82 0.06 0 0.825 0.06 0 0.83 0.06 0 0.835 0.06 0 0.84 0.06 0 0.845 0.06 0 0.85 0.06 0 0.855 0.06 0 0.86 0.06 0 0.865 0.06 0 0.87 0.06 0 0.875 0.06 0 0.88 0.06 0 0.885 0.06 0 0.89 0.06 0 0.895 0.06 0 0.9 0.06 0 0.905 0.06 0 0.91 0.06 0 0.915 0.06 0 0.92 0.06 0 0.925 0.06 0 0.93 0.06 0 0.935 0.06 0 0.94 0.06 0 0.945 0.06 0 0.95 0.06 0 0.955 0.06 0 0.96 0.06 0 0.965 0.06 0 0.97 0.06 0 0.975 0.06 0 0.98 0.06 0 0.985 0.06 0 0.99 0.06 0 0.995 0.06 0 1 0.06 0 0 0.08 0 0.005 0.08 0 0.01 0.08 0 0.015 0.08 0 0.02 0.08 0 0.025 0.08 0 0.03 0.08 0 0.035 0.08 0 0.04 0.08 0 0.045 0.08 0 0.05 0.08 0 0.055 0.08 0 0.06 0.08 0 0.065 0.08 0 0.07 0.08 0 0.075 0.08 0 0.08 0.08 0 0.085 0.08 0 0.09 0.08 0 0.095 0.08 0 0.1 0.08 0 0.105 0.08 0 0.11 0.08 0 0.115 0.08 0 0.12 0.08 0 0.125 0.08 0 0.13 0.08 0 0.135 0.08 0 0.14 0.08 0 0.145 0.08 0 0.15 0.08 0 0.155 0.08 0 0.16 0.08 0 0.165 0.08 0
[...]
			<PointData Scalars="VitesseX">
				<DataArray Name="VitesseX" type="Float32" format="ascii">
 0 2.68065e-15 -1.04329e-14 -5.13492e-14 -2.01271e-15 2.45454e-15 -3.35522e-14 2.87666e-15 1.50164e-14 3.75226e-14 -9.25354e-15 1.60751e-14 -1.1322e-13 1.08555e-13 -5.06691e-14 -2.5376e-14 -6.19897e-14 -2.99857e-14 4.25555e-14 -8.81592e-14 -1.1174e-13 2.98818e-14 5.45888e-15 -7.99043e-14 -1.47775e-13 -2.21523e-15 -5.69116e-14 -1.56544e-13 -1.67565e-13 -1.99993e-13 -2.86269e-15 -2.74314e-13 1.92352e-14 -2.15388e-13 -2.90227e-13 7.61379e-14 -2.14192e-13 7.60254e-14 -8.22964e-14 1.76484e-13 1.13757e-13 1.04104e-13 1.18623e-14 -7.42857e-14 -1.70621e-13 -2.9242e-13 -2.92024e-14 -3.64456e-14 -5.21706e-14 -1.55553e-13 -1.81269e-13 1.67878e-13 2.00733e-13 -7.13009e-13 5.1016e-14 -3.44549e-14 -3.52812e-13 -6.52672e-14 2.363e-14 -4.73036e-14 4.00239e-13 2.85446e-12 2.77175e-11 2.24002e-10 1.70617e-09 1.20636e-08 7.89969e-08 4.76802e-07 2.63923e-06 1.33185e-05 6.08408e-05 0.000249439 0.000908213 0.00289981 0.00800612 0.0188775 0.0378233 0.0649845 0.0981292 0.134527 0.172395 0.21087 0.249571 0.288321 0.326994 0.365414 0.40346 0.441054 0.478164 0.514778 0.550875 0.586415 0.621338 0.655556 0.688948 0.721352 0.752557 0.7823 0.810258 0.836057 0.85929 0.879557 0.896536 0.910059 0.920179 0.92719 0.931589 0.93398 0.934876 0.93485 0.934627 0.934299 0.934053 0.93413 0.934859 0.936672 0.939941 0.944763 0.951915 0.961521 0.958379 0.949714 0.94098 0.935183 0.931778 0.929843 0.928412 0.926714 0.923949 0.918939 0.909911 0.894178 0.867921 0.826301 0.76421 0.677894 0.567402 0.439188 0.306923 0.189778 0.101928 0.0474688 0.0196939 0.00760024 0.00282376 0.00102844 0.000369902 0.00013171 4.64504e-05 1.62216e-05 5.60693e-06 1.91712e-06 6.48093e-07 2.16508e-07 7.14432e-08 2.32769e-08 7.48539e-09 2.37474e-09 7.43268e-10 2.29115e-10 6.95672e-11 2.07665e-11 6.33179e-12 1.1222e-12 -3.91661e-13 2.72644e-13 -2.97459e-13 -2.64641e-13 2.27138e-13 -8.8713e-13 -3.60107e-13 -2.15379e-13 -1.88613e-13 3.5565e-13 -5.97516e-13 -8.87933e-14 7.3249e-13 -7.64009e-13 6.01012e-13 -3.54053e-13 2.28505e-15 -4.07248e-13 -2.84327e-13 4.39813e-14 -2.24616e-13 1.75873e-13 -3.92358e-13 3.4871e-13 2.31745e-13 -4.99623e-13 -6.12561e-14 -2.36691e-13 3.23533e-13 6.28099e-13 -1.82143e-13 1.09722e-13 5.3732e-13 -7.02466e-13 -2.6097e-13 -5.69932e-13 0 0 -1.87814e-14 -2.12768e-14 -9.00263e-16 -5.40789e-14 -4.47131e-14 3.09137e-14 -1.35474e-14 1.27852e-14 6.20201e-15 2.26188e-14 -3.03355e-14 7.52421e-14 -1.14816e-13 -2.08921e-16 -1.34452e-14 1.25238e-14 -4.12943e-14 -7.05227e-14 -3.3891e-14 2.07412e-14 -9.06772e-14 -7.71556e-14 -7.42962e-14 5.1265e-14 -7.98794e-14 -1.16366e-13 -6.71407e-14 -1.88728e-13 -6.26409e-14 -2.69088e-13 -6.05369e-14 -2.3014e-13 -9.40266e-14 -2.69326e-14 -2.83136e-13 6.92613e-14 -4.44512e-14 3.00181e-14 -2.6653e-14 -1.11059e-13 -7.85142e-14 6.22021e-14 -6.56601e-14 -5.36843e-14 -3.78735e-14 -1.99597e-13 -1.13153e-13 -1.39558e-13 -3.48216e-14 6.20055e-14 -1.33778e-13 -3.62103e-13 2.8502e-13 -1.13098e-13 -3.34484e-13 -1.59001e-14 -1.22076e-13 -1.26683e-13 5.89727e-14 2.91789e-13 3.17283e-12 2.73819e-11 2.2426e-10 1.70572e-09 1.2064e-08 7.89968e-08 4.76802e-07 2.63923e-06 1.33185e-05 6.08408e-05 0.000249439 0.000908213 0.00289981 0.00800612 0.0188775 0.0378233 0.0649845 0.0981292 0.134527 0.172395 0.21087 0.249571 0.288321 0.326994 0.365414 0.40346 0.441054 0.478164 0.514778 0.550875 0.586415 0.621338 0.655556 0.688948 0.721352 0.752557 0.7823 0.810258 0.836057 0.85929 0.879557 0.896536 0.910059 0.920179 0.92719 0.931589 0.93398 0.934876 0.93485 0.934627 0.934299 0.934053 0.93413 0.934859 0.936672 0.939941 0.944763 0.951915 0.961521 0.958379 0.949714 0.94098 0.935183 0.931778 0.929843 0.928412 0.926714 0.923949 0.918939 0.909911 0.894178 0.867921 0.826301 0.76421 0.677894 0.567402 0.439188 0.306923 0.189778 0.101928 0.0474688 0.0196939 0.00760024 0.00282376 0.00102844 0.000369902 0.00013171 4.64504e-05 1.62216e-05 5.60693e-06 1.91712e-06 6.48093e-07 2.16507e-07 7.14436e-08 2.3277e-08 7.4853e-09 2.37511e-09 7.42985e-10 2.29527e-10 6.96324e-11 2.06177e-11 5.78183e-12 1.64541e-12 5.68679e-13 -6.07712e-13 -2.59323e-13 -5.05468e-14 -6.79209e-13 -8.9796e-14 -4.1579e-13 -2.23026e-13 -2.39813e-13 -4.27159e-13 2.35583e-13 6.53363e-14 -2.82637e-13 2.70863e-13 -2.1032e-13 6.74425e-14 -2.06692e-13 1.87669e-13 -2.54936e-13 -4.53605e-13 -1.77698e-13 -1.49721e-13 2.8485e-13 -5.39239e-13 -2.7896e-13 7.8232e-15 1.24789e-13 9.96225e-14 3.17524e-13 -3.57055e-14 7.26629e-13 -5.44797e-14 -5.06731e-13 -1.92483e-13 1.87131e-13 4.30891e-13 0 0 -1.20447e-14 -2.01389e-14 -4.21628e-14 -7.07323e-15 -3.26116e-14 -4.97777e-14 -4.74077e-15 -1.01128e-14 1.24519e-14 -1.97796e-14 1.82822e-14 1.86078e-15 3.62289e-14 -3.15089e-14 -2.00533e-15 -1.9894e-14 -2.64465e-14 -7.22782e-15 1.44776e-14 -9.49473e-14 -1.083e-14 -9.26325e-14 -4.57082e-14 -4.13648e-14 -7.19646e-14 -6.04228e-14 -8.75757e-14 -9.95287e-14 -2.12007e-13 -7.07425e-14 -1.57995e-13 -6.61571e-14 -1.47259e-13 -1.76768e-13 -5.01736e-14 -8.1478e-14 -1.13907e-15 -1.53491e-13 -3.90394e-14 -8.20388e-14 -6.13804e-14 -5.36365e-14 -7.09374e-14 1.95273e-15 -7.64852e-14 -1.85711e-13 -4.11221e-14 -6.1559e-14 -8.94841e-14 -7.97719e-14 -1.17916e-13 -9.89663e-14 1.24674e-13 -2.1007e-13 -9.87956e-14 -1.36291e-13 -1.24454e-13 3.15347e-14 -1.44107e-13 4.78995e-13 3.29561e-12 2.74724e-11 2.24113e-10 1.70564e-09 1.20641e-08 7.8997e-08 4.76803e-07 2.63923e-06 1.33185e-05 6.08408e-05 0.000249439 0.000908213 0.00289981 0.00800612 0.0188775 0.0378233 0.0649845 0.0981292 0.134527 0.172395 0.21087 0.249571 0.288321 0.326994 0.365414 0.40346 0.441054 0.478164 0.514778 0.550875 0.586415 0.621338 0.655556 0.688948 0.721352 0.752557 0.7823 0.810258 0.836057 0.85929 0.879557 0.896536 0.910059 0.920179 0.92719 0.931589 0.93398 0.934876 0.93485 0.934627 0.934299 0.934053 0.93413 0.934859 0.936672 0.939941 0.944763 0.951915 0.961521 0.958379 0.949714 0.94098 0.935183 0.931778 0.929843 0.928412 0.926714 0.923949 0.918939 0.909911 0.894178 0.867921 0.826301 0.76421 0.677894 0.567402 0.439188 0.306923 0.189778 0.101928 0.0474688 0.0196939 0.00760024 0.00282376 0.00102844 0.000369902 0.00013171 4.64504e-05 1.62216e-05 5.60693e-06 1.91712e-06 6.48093e-07 2.16508e-07 7.14434e-08 2.32772e-08 7.48556e-09 2.37523e-09 7.43343e-10 2.29233e-10 6.98208e-11 2.06391e-11 6.08921e-12 1.62461e-12 3.14309e-13 2.60032e-13 -6.00495e-13 -6.00693e-13 -5.80306e-13 1.61456e-13 -3.42864e-13 -6.98913e-13 -3.65198e-13 2.21318e-15 -5.80472e-15 2.80295e-13 -3.62234e-13 3.55703e-13 -3.39033e-13 1.6828e-15 -2.55717e-13 -3.92499e-13 -4.79899e-14 -1.02023e-14 -1.52375e-13 -3.35586e-13 -4.40954e-13 1.82658e-13 1.56569e-13 -5.37469e-13 8.83055e-14 2.28715e-13 5.22626e-13 4.58224e-14 -6.03448e-13 1.89761e-13 2.9927e-13 -2.43047e-13 8.47564e-14 -7.24574e-13 0 0 -1.08816e-14 -2.34624e-14 -2.89902e-14 -2.48825e-14 -2.82756e-14 -4.56215e-14 -3.41853e-14 -5.79481e-15 2.97592e-14 1.20508e-14 4.33794e-14 -4.11765e-14 3.29121e-14 -9.88651e-15 2.67979e-14 -4.46887e-14 -2.74752e-14 2.935e-14 -1.5335e-14 -2.17122e-14 -1.24725e-14 1.94983e-15 -1.08984e-13 -8.68351e-14 -1.10525e-13 -7.20702e-14 -1.69018e-13 -1.60711e-13 -6.53823e-14 -1.05865e-14 -1.54712e-13 -4.78576e-14 -1.70703e-13 -1.4294e-13 7.95975e-15 -1.75249e-13 -1.27317e-13 -3.26743e-14 1.52217e-13 6.05552e-14 6.61764e-14 -1.59194e-13 -3.42766e-14 -1.62502e-13 -1.96599e-13 -2.69807e-14 -2.02268e-13 -1.46377e-13 -6.32509e-14 5.03937e-14 -4.90506e-14 -2.83189e-14 -3.24844e-13 2.55828e-13 2.13353e-14 -2.73769e-13 -6.72201e-14 -9.83038e-14 1.05439e-13 3.57187e-13 3.07845e-12 2.7664e-11 2.24272e-10 1.70583e-09 1.20639e-08 7.89972e-08 4.76803e-07 2.63923e-06 1.33185e-05 6.08408e-05 0.000249439 0.000908213 0.00289981 0.00800612 0.0188775 0.0378233 0.0649845 0.0981292 0.134527 0.172395 0.21087 0.249571 0.288321 0.326994 0.365414 0.40346 0.441054 0.478164 0.514778 0.550875 0.586415 0.621338 0.655556 0.688948 0.721352 0.752557 0.7823 0.810258 0.836057 0.85929 0.879557 0.896536 0.910059 0.920179 0.92719 0.931589 0.93398 0.934876 0.93485 0.934627 0.934299 0.934053 0.93413 0.934859 0.936672 0.939941 0.944763 0.951915 0.961521 0.958379 0.949714 0.94098 0.935183 0.931778 0.929843 0.928412 0.926714 0.923949 0.918939 0.909911 0.894178 0.867921 0.826301 0.76421 0.677894 0.567402 0.439188 0.306923 0.189778 0.101928 0.0474688 0.0196939 0.00760024 0.00282376 0.00102844 0.000369902 0.00013171 4.64504e-05 1.62216e-05 5.60693e-06 1.91712e-06 6.48093e-07 2.16508e-07 7.14436e-08 2.32773e-08 7.48561e-09 2.3751e-09 7.43585e-10 2.29315e-10 6.95401e-11 2.10561e-11 6.30272e-12 1.63161e-12 8.8522e-14 -1.21143e-13 -2.45907e-13 -2.24883e-13 -2.95964e-13 -8.98827e-13 -3.93361e-13 -4.77846e-13 -1.97821e-13 2.51722e-13 4.9615e-14 -2.23893e-13 9.01964e-13 -7.09083e-13 1.87677e-13 -4.80394e-13 -2.5522e-13 -3.04562e-13 -6.02582e-13 3.3736e-13 -2.4294e-13 -2.56975e-13 -3.63977e-13 4.51852e-14 1.96219e-13 2.4217e-13 2.7586e-13 -5.40146e-13 3.7484e-13 3.1595e-13 -1.89178e-13 3.32723e-13 2.05628e-13 -3.17222e-14 -7.65943e-13 2.42635e-13 0 0 -1.7994e-14 -1.80497e-14 4.88745e-15 -5.683e-14 -5.02139e-14 1.44555e-14 -4.41015e-14 1.46162e-14 7.31233e-15 3.0434e-14 -4.03865e-15 6.73389e-14 -8.63933e-14 3.53924e-14 3.95161e-14 3.90975e-14 -1.53227e-14 -3.96627e-14 -6.81462e-14 5.67191e-14 -1.36192e-13 -6.37103e-14 -1.20853e-13 3.82336e-14 -2.19723e-13 -1.04635e-13 -5.69313e-14 -1.42411e-13 6.97324e-14 -2.97913e-13 -6.56603e-14 -2.35431e-13 2.97358e-14 1.28039e-13 -1.67152e-13 1.15257e-13 -1.10858e-13 7.15162e-14 -4.45115e-14 -2.43752e-14 3.52136e-15 -5.22858e-14 -1.37859e-14 -1.80554e-13 -1.76674e-13 -7.36231e-14 -2.68077e-13 -1.8462e-13 -1.23952e-14 1.92821e-13 -6.6268e-15 -2.93491e-13 1.74602e-13 9.62722e-14 -2.0426e-13 -2.20631e-14 -1.76525e-13 -1.50675e-13 2.07294e-13 3.48882e-13 3.35843e-12 2.76455e-11 2.24391e-10 1.7057e-09 1.20641e-08 7.89969e-08 4.76802e-07 2.63923e-06 1.33185e-05 6.08408e-05 0.000249439 0.000908213 0.00289981 0.00800612 0.0188775 0.0378233 0.0649845 0.0981292 0.134527 0.172395 0.21087 0.249571 0.288321 0.326994 0.365414 0.40346 0.441054 0.478164 0.514778 0.550875 0.586415 0.621338 0.655556 0.688948 0.721352 0.752557 0.7823 0.810258 0.836057 0.85929 0.879557 0.896536 0.910059 0.920179 0.92719 0.931589 0.93398 0.934876 0.93485 0.934627 0.934299 0.934053 0.93413 0.934859 0.936672 0.939941 0.944763 0.951915 0.961521 0.958379 0.949714 0.94098 0.935183 0.931778 0.929843 0.928412 0.926714 0.923949 0.918939 0.909911 0.894178 0.867921 0.826301 0.76421 0.677894 0.567402 0.439188 0.306923 0.189778 0.101928 0.0474688 0.0196939 0.00760024 0.00282376 0.00102844 0.000369902 0.00013171 4.64504e-05 1.62216e-05 5.60693e-06 1.91712e-06 6.48094e-07 2.16508e-07 7.14438e-08 2.32771e-08 7.48528e-09 2.37534e-09 7.43395e-10 2.29745e-10 6.96426e-11 2.08048e-11 5.58981e-12 1.92328e-12 2.86125e-13 -5.05625e-13 1.53572e-13 -1.81301e-13 -5.87308e-13 -5.58266e-13 -4.87119e-13 -2.70514e-13 -1.0917e-13 -4.83563e-13 2.43656e-13 5.59799e-13 2.80936e-13 -2.96258e-13 1.51875e-13 -9.9234e-14 -3.40171e-13 1.85025e-13 -6.012e-13 -2.08205e-13 -2.62599e-13 -3.92249e-13 2.83293e-13 -7.73091e-13 -2.11519e-13 4.36548e-13 1.35463e-13 2.66013e-13 -5.76484e-14 -1.84497e-13 1.00571e-12 1.41772e-14 -6.43804e-13 2.56302e-13 -1.69874e-13 8.19242e-13 0 0 1.9292e-15 2.66832e-15 -6.6119e-14 2.81036e-14 -1.72191e-14 -7.47812e-14 6.57369e-16 1.00425e-14 5.12873e-15 -5.72839e-14 1.84747e-14 -4.29521e-14 1.72035e-13 -2.27113e-14 2.29401e-14 4.07472e-14 2.40149e-14 3.11198e-14 -9.70444e-14 -1.86255e-13 -5.78633e-14 -1.56815e-13 -4.64661e-14 -8.28971e-14 -2.04783e-13 -1.01548e-14 2.67589e-14 4.74331e-14 -2.28495e-13 -1.80824e-13 -2.91128e-13 -2.79458e-14 7.90246e-14 -4.79387e-14 1.9184e-13 6.53416e-14 1.95569e-13 -2.40933e-13 -2.41747e-13 1.93693e-15 1.30621e-14 -5.99821e-15 -4.38588e-14 -9.54525e-14 -3.29793e-13 -9.47166e-14 -2.40024e-14 2.73422e-14 -1.63166e-13 -1.79968e-13 2.8445e-13 1.9666e-13 -3.48083e-14 -4.6204e-13 -1.42695e-14 -9.01816e-14 -2.88634e-13 2.35323e-13 -2.49754e-13 7.58041e-13 3.65998e-12 2.78613e-11 2.23945e-10 1.70574e-09 1.20642e-08 7.89968e-08 4.76802e-07 2.63923e-06 1.33185e-05 6.08408e-05 0.000249439 0.000908213 0.00289981 0.00800612 0.0188775 0.0378233 0.0649845 0.0981292 0.134527 0.172395 0.21087 0.249571 0.288321 0.326994 0.365414 0.40346 0.441054 0.478164 0.514778 0.550875 0.586415 0.621338 0.655556 0.688948 0.721352 0.752557 0.7823 0.810258 0.836057 0.85929 0.879557 0.896536 0.910059 0.920179 0.92719 0.931589 0.93398 0.934876 0.93485 0.934627 0.934299 0.934053 0.93413 0.934859 0.936672 0.939941 0.944763 0.951915 0.961521 0.958379 0.949714 0.94098 0.935183 0.931778 0.929843 0.928412 0.926714 0.923949 0.918939 0.909911 0.894178 0.867921 0.826301 0.76421 0.677894 0.567402 0.439188 0.306923 0.189778 0.101928 0.0474688 0.0196939 0.00760024 0.00282376 0.00102844 0.000369902 0.00013171 4.64504e-05 1.62216e-05 5.60694e-06 1.91712e-06 6.48093e-07 2.16508e-07 7.1443e-08 2.32771e-08 7.48525e-09 2.37544e-09 7.43603e-10 2.29387e-10 7.01488e-11 2.03066e-11 5.52073e-12 1.66393e-12 -5.05193e-13 1.23917e-12 -1.80845e-13 -1.27777e-12 -1.57746e-13 2.96496e-13 -4.0177e-13 -7.52491e-13 -2.6208e-13 -2.56175e-13 -6.92209e-13 1.90851e-12 -6.6876e-13 2.31321e-13 2.71981e-13 2.76749e-13 -2.65669e-13 -5.8841e-13 1.32331e-13 -1.60344e-13 -2.13289e-13 -4.66405e-13 -5.49424e-13 1.55952e-13 2.87326e-13 -1.20145e-12 -4.15017e-13 1.63381e-12 -1.31239e-13 -2.09739e-13 -4.52512e-13 -3.88892e-14 4.50456e-13 -2.27547e-13 7.2642e-13 -1.72765e-12 0
				</DataArray>
				<DataArray Name="VitesseY" type="Float32" format="ascii">