<?xml version="1.0"?>
<VTKFile type="PolyData">
	<PolyData>
		<Piece NumberOfPoints="1206" NumberOfPolys="1000">
			<Points>
				<DataArray type="Float32" NumberOfComponents="3" format="ascii">
 0 0 0 0.005 0 0 0.01 0 0 0.015 0 0 0.02 0 0 0.025 0 0 0.03 0 0 0.035 0 0 0.04 0 0 0.045 0 0 0.05 0 0 0.055 0 0 0.06 0 0 0.065 0 0 0.07 0 0 0.075 0 0 0.08 0 0 0.085 0 0 0.09 0 0 0.095 0 0 0.1 0 0 0.105 0 0 0.11 0 0 0.115 0 0 0.12 0 0 0.125 0 0 0.13 0 0 0.135 0 0 0.14 0 0 0.145 0 0 0.15 0 0 0.155 0 0 0.16 0 0 0.165 0 0 0.17 0 0 0.175 0 0 0.18 0 0 0.185 0 0 0.19 0 0 0.195 0 0 0.2 0 0 0.205 0 0 0.21 0 0 0.215 0 0 0.22 0 0 0.225 0 0 0.23 0 0 0.235 0 0 0.24 0 0 0.245 0 0 0.25 0 0 0.255 0 0 0.26 0 0 0.265 0 0 0.27 0 0 0.275 0 0 0.28 0 0 0.285 0 0 0.29 0 0 0.295 0 0 0.3 0 0 0.305 0 0 0.31 0 0 0.315 0 0 0.32 0 0 0.325 0 0 0.33 0 0 0.335 0 0 0.34 0 0 0.345 0 0 0.35 0 0 0.355 0 0 0.36 0 0 0.365 0 0 0.37 0 0 0.375 0 0 0.38 0 0 0.385 0 0 0.39 0 0 0.395 0 0 0.4 0 0 0.405 0 0 0.41 0 0 0.415 0 0 0.42 0 0 0.425 0 0 0.43 0 0 0.435 0 0 0.44 0 0 0.445 0 0 0.45 0 0 0.455 0 0 0.46 0 0 0.465 0 0 0.47 0 0 0.475 0 0 0.48 0 0 0.485 0 0 0.49 0 0 0.495 0 0 0.5 0 0 0.505 0 0 0.51 0 0 0.515 0 0 0.52 0 0 0.525 0 0 0.53 0 0 0.535 0 0 0.54 0 0 0.545 0 0 0.55 0 0 0.555 0 0 0.56 0 0 0.565 0 0 0.57 0 0 0.575 0 0 0.58 0 0 0.585 0 0 0.59 0 0 0.595 0 0 0.6 0 0 0.605 0 0 0.61 0 0 0.615 0 0 0.62 0 0 0.625 0 0 0.63 0 0 0.635 0 0 0.64 0 0 0.645 0 0 0.65 0 0 0.655 0 0 0.66 0 0 0.665 0 0 0.67 0 0 0.675 0 0 0.68 0 0 0.685 0 0 0.69 0 0 0.695 0 0 0.7 0 0 0.705 0 0 0.71 0 0 0.715 0 0 0.72 0 0 0.725 0 0 0.73 0 0 0.735 0 0 0.74 0 0 0.745 0 0 0.75 0 0 0.755 0 0 0.76 0 0 0.765 0 0 0.77 0 0 0.775 0 0 0.78 0 0 0.785 0 0 0.79 0 0 0.795 0 0 0.8 0 0 0.805 0 0 0.81 0 0 0.815 0 0 0.82 0 0 0.825 0 0 0.83 0 0 0.835 0 0 0.84 0 0 0.845 0 0 0.85 0 0 0.855 0 0 0.86 0 0 0.865 0 0 0.87 0 0 0.875 0 0 0.88 0 0 0.885 0 0 0.89 0 0 0.895 0 0 0.9 0 0 0.905 0 0 0.91 0 0 0.915 0 0 0.92 0 0 0.925 0 0 0.93 0 0 0.935 0 0 0.94 0 0 0.945 0 0 0.95 0 0 0.955 0 0 0.96 0 0 0.965 0 0 0.97 0 0 0.975 0 0 0.98 0 0 0.985 0 0 0.99 0 0 0.995 0 0 1 0 0 0 0.02 0 0.005 0.02 0 0.01 0.02 0 0.015 0.02 0 0.02 0.02 0 0.025 0.02 0 0.03 0.02 0 0.035 0.02 0 0.04 0.02 0 0.045 0.02 0 0.05 0.02 0 0.055 0.02 0 0.06 0.02 0 0.065 0.02 0 0.07 0.02 0 0.075 0.02 0 0.08 0.02 0 0.085 0.02 0 0.09 0.02 0 0.095 0.02 0 0.1 0.02 0 0.105 0.02 0 0.11 0.02 0 0.115 0.02 0 0.12 0.02 0 0.125 0.02 0 0.13 0.02 0 0.135 0.02 0 0.14 0.02 0 0.145 0.02 0 0.15 0.02 0 0.155 0.02 0 0.16 0.02 0 0.165 0.02 0 0.17 0.02 0 0.175 0.02 0 0.18 0.02 0 0.185 0.02 0 0.19 0.02 0 0.195 0.02 0 0.2 0.02 0 0.205 0.02 0 0.21 0.02 0 0.215 0.02 0 0.22 0.02 0 0.225 0.02 0 0.23 0.02 0 0.235 0.02 0 0.24 0.02 0 0.245 0.02 0 0.25 0.02 0 0.255 0.02 0 0.26 0.02 0 0.265 0.02 0 0.27 0.02 0 0.275 0.02 0 0.28 0.02 0 0.285 0.02 0 0.29 0.02 0 0.295 0.02 0 0.3 0.02 0 0.305 0.02 0 0.31 0.02 0 0.315 0.02 0 0.32 0.02 0 0.325 0.02 0 0.33 0.02 0 0.335 0.02 0 0.34 0.02 0 0.345 0.02 0 0.35 0.02 0 0.355 0.02 0 0.36 0.02 0 0.365 0.02 0 0.37 0.02 0 0.375 0.02 0 0.38 0.02 0 0.385 0.02 0 0.39 0.02 0 0.395 0.02 0 0.4 0.02 0 0.405 0.02 0 0.41 0.02 0 0.415 0.02 0 0.42 0.02 0 0.425 0.02 0 0.43 0.02 0 0.435 0.02 0 0.44 0.02 0 0.445 0.02 0 0.45 0.02 0 0.455 0.02 0 0.46 0.02 0 0.465 0.02 0 0.47 0.02 0 0.475 0.02 0 0.48 0.02 0 0.485 0.02 0 0.49 0.02 0 0.495 0.02 0 0.5 0.02 0 0.505 0.02 0 0.51 0.02 0 0.515 0.02 0 0.52 0.02 0 0.525 0.02 0 0.53 0.02 0 0.535 0.02 0 0.54 0.02 0 0.545 0.02 0 0.55 0.02 0 0.555 0.02 0 0.56 0.02 0 0.565 0.02 0 0.57 0.02 0 0.575 0.02 0 0.58 0.02 0 0.585 0.02 0 0.59 0.02 0 0.595 0.02 0 0.6 0.02 0 0.605 0.02 0 0.61 0.02 0 0.615 0.02 0 0.62 0.02 0 0.625 0.02 0 0.63 0.02 0 0.635 0.02 0 0.64 0.02 0 0.645 0.02 0 0.65 0.02 0 0.655 0.02 0 0.66 0.02 0 0.665 0.02 0 0.67 0.02 0 0.675 0.02 0 0.68 0.02 0 0.685 0.02 0 0.69 0.02 0 0.695 0.02 0 0.7 0.02 0 0.705 0.02 0 0.71 0.02 0 0.715 0.02 0 0.72 0.02 0 0.725 0.02 0 0.73 0.02 0 0.735 0.02 0 0.74 0.02 0 0.745 0.02 0 0.75 0.02 0 0.755 0.02 0 0.76 0.02 0 0.765 0.02 0 0.77 0.02 0 0.775 0.02 0 0.78 0.02 0 0.785 0.02 0 0.79 0.02 0 0.795 0.02 0 0.8 0.02 0 0.805 0.02 0 0.81 0.02 0 0.815 0.02 0 0.82 0.02 0 0.825 0.02 0 0.83 0.02 0 0.835 0.02 0 0.84 0.02 0 0.845 0.02 0 0.85 0.02 0 0.855 0.02 0 0.86 0.02 0 0.865 0.02 0 0.87 0.02 0 0.875 0.02 0 0.88 0.02 0 0.885 0.02 0 0.89 0.02 0 0.895 0.02 0 0.9 0.02 0 0.905 0.02 0 0.91 0.02 0 0.915 0.02 0 0.92 0.02 0 0.925 0.02 0 0.93 0.02 0 0.935 0.02 0 0.94 0.02 0 0.945 0.02 0 0.95 0.02 0 0.955 0.02 0 0.96 0.02 0 0.965 0.02 0 0.97 0.02 0 0.975 0.02 0 0.98 0.02 0 0.985 0.02 0 0.99 0.02 0 0.995 0.02 0 1 0.02 0 0 0.04 0 0.005 0.04 0 0.01 0.04 0 0.015 0.04 0 0.02 0.04 0 0.025 0.04 0 0.03 0.04 0 0.035 0.04 0 0.04 0.04 0 0.045 0.04 0 0.05 0.04 0 0.055 0.04 0 0.06 0.04 0 0.065 0.04 0 0.07 0.04 0 0.075 0.04 0 0.08 0.04 0 0.085 0.04 0 0.09 0.04 0 0.095 0.04 0 0.1 0.04 0 0.105 0.04 0 0.11 0.04 0 0.115 0.04 0 0.12 0.04 0 0.125 0.04 0 0.13 0.04 0 0.135 0.04 0 0.14 0.04 0 0.145 0.04 0 0.15 0.04 0 0.155 0.04 0 0.16 0.04 0 0.165 0.04 0 0.17 0.04 0 0.175 0.04 0 0.18 0.04 0 0.185 0.04 0 0.19 0.04 0 0.195 0.04 0 0.2 0.04 0 0.205 0.04 0 0.21 0.04 0 0.215 0.04 0 0.22 0.04 0 0.225 0.04 0 0.23 0.04 0 0.235 0.04 0 0.24 0.04 0 0.245 0.04 0 0.25 0.04 0 0.255 0.04 0 0.26 0.04 0 0.265 0.04 0 0.27 0.04 0 0.275 0.04 0 0.28 0.04 0 0.285 0.04 0 0.29 0.04 0 0.295 0.04 0 0.3 0.04 0 0.305 0.04 0 0.31 0.04 0 0.315 0.04 0 0.32 0.04 0 0.325 0.04 0 0.33 0.04 0 0.335 0.04 0 0.34 0.04 0 0.345 0.04 0 0.35 0.04 0 0.355 0.04 0 0.36 0.04 0 0.365 0.04 0 0.37 0.04 0 0.375 0.04 0 0.38 0.04 0 0.385 0.04 0 0.39 0.04 0 0.395 0.04 0 0.4 0.04 0 0.405 0.04 0 0.41 0.04 0 0.415 0.04 0 0.42 0.04 0 0.425 0.04 0 0.43 0.04 0 0.435 0.04 0 0.44 0.04 0 0.445 0.04 0 0.45 0.04 0 0.455 0.04 0 0.46 0.04 0 0.465 0.04 0 0.47 0.04 0 0.475 0.04 0 0.48 0.04 0 0.485 0.04 0 0.49 0.04 0 0.495 0.04 0 0.5 0.04 0 0.505 0.04 0 0.51 0.04 0 0.515 0.04 0 0.52 0.04 0 0.525 0.04 0 0.53 0.04 0 0.535 0.04 0 0.54 0.04 0 0.545 0.04 0 0.55 0.04 0 0.555 0.04 0 0.56 0.04 0 0.565 0.04 0 0.57 0.04 0 0.575 0.04 0 0.58 0.04 0 0.585 0.04 0 0.59 0.04 0 0.595 0.04 0 0.6 0.04 0 0.605 0.04 0 0.61 0.04 0 0.615 0.04 0 0.62 0.04 0 0.625 0.04 0 0.63 0.04 0 0.635 0.04 0 0.64 0.04 0 0.645 0.04 0 0.65 0.04 0 0.655 0.04 0 0.66 0.04 0 0.665 0.04 0 0.67 0.04 0 0.675 0.04 0 0.68 0.04 0 0.685 0.04 0 0.69 0.04 0 0.695 0.04 0 0.7 0.04 0 0.705 0.04 0 0.71 0.04 0 0.715 0.04 0 0.72 0.04 0 0.725 0.04 0 0.73 0.04 0 0.735 0.04 0 0.74 0.04 0 0.745 0.04 0 0.75 0.04 0 0.755 0.04 0 0.76 0.04 0 0.765 0.04 0 0.77 0.04 0 0.775 0.04 0 0.78 0.04 0 0.785 0.04 0 0.79 0.04 0 0.795 0.04 0 0.8 0.04 0 0.805 0.04 0 0.81 0.04 0 0.815 0.04 0 0.82 0.04 0 0.825 0.04 0 0.83 0.04 0 0.835 0.04 0 0.84 0.04 0 0.845 0.04 0 0.85 0.04 0 0.855 0.04 0 0.86 0.04 0 0.865 0.04 0 0.87 0.04 0 0.875 0.04 0 0.88 0.04 0 0.885 0.04 0 0.89 0.04 0 0.895 0.04 0 0.9 0.04 0 0.905 0.04 0 0.91 0.04 0 0.915 0.04 0 0.92 0.04 0 0.925 0.04 0 0.93 0.04 0 0.935 0.04 0 0.94 0.04 0 0.945 0.04 0 0.95 0.04 0 0.955 0.04 0 0.96 0.04 0 0.965 0.04 0 0.97 0.04 0 0.975 0.04 0 0.98 0.04 0 0.985 0.04 0 0.99 0.04 0 0.995 0.04 0 1 0.04 0 0 0.06 0 0.005 0.06 0 0.01 0.06 0 0.015 0.06 0 0.02 0.06 0 0.025 0.06 0 0.03 0.06 0 0.035 0.06 0 0.04 0.06 0 0.045 0.06 0 0.05 0.06 0 0.055 0.06 0 0.06 0.06 0 0.065 0.06 0 0.07 0.06 0 0.075 0.06 0 0.08 0.06 0 0.085 0.06 0 0.09 0.06 0 0.095 0.06 0 0.1 0.06 0 0.105 0.06 0 0.11 0.06 0 0.115 0.06 0 0.12 0.06 0 0.125 0.06 0 0.13 0.06 0 0.135 0.06 0 0.14 0.06 0 0.145 0.06 0 0.15 0.06 0 0.155 0.06 0 0.16 0.06 0 0.165 0.06 0 0.17 0.06 0 0.175 0.06 0 0.18 0.06 0 0.185 0.06 0 0.19 0.06 0 0.195 0.06 0 0.2 0.06 0 0.205 0.06 0 0.21 0.06 0 0.215 0.06 0 0.22 0.06 0 0.225 0.06 0 0.23 0.06 0 0.235 0.06 0 0.24 0.06 0 0.245 0.06 0 0.25 0.06 0 0.255 0.06 0 0.26 0.06 0 0.265 0.06 0 0.27 0.06 0 0.275 0.06 0 0.28 0.06 0 0.285 0.06 0 0.29 0.06 0 0.295 0.06 0 0.3 0.06 0 0.305 0.06 0 0.31 0.06 0 0.315 0.06 0 0.32 0.06 0 0.325 0.06 0 0.33 0.06 0 0.335 0.06 0 0.34 0.06 0 0.345 0.06 0 0.35 0.06 0 0.355 0.06 0 0.36 0.06 0 0.365 0.06 0 0.37 0.06 0 0.375 0.06 0 0.38 0.06 0 0.385 0.06 0 0.39 0.06 0 0.395 0.06 0 0.4 0.06 0 0.405 0.06 0 0.41 0.06 0 0.415 0.06 0 0.42 0.06 0 0.425 0.06 0 0.43 0.06 0 0.435 0.06 0 0.44 0.06 0 0.445 0.06 0 0.45 0.06 0 0.455 0.06 0 0.46 0.06 0 0.465 0.06 0 0.47 0.06 0 0.475 0.06 0 0.48 0.06 0 0.485 0.06 0 0.49 0.06 0 0.495 0.06 0 0.5 0.06 0 0.505 0.06 0 0.51 0.06 0 0.515 0.06 0 0.52 0.06 0 0.525 0.06 0 0.53 0.06 0 0.535 0.06 0 0.54 0.06 0 0.545 0.06 0 0.55 0.06 0 0.555 0.06 0 0.56 0.06 0 0.565 0.06 0 0.57 0.06 0 0.575 0.06 0 0.58 0.06 0 0.585 0.06 0 0.59 0.06 0 0.595 0.06 0 0.6 0.06 0 0.605 0.06 0 0.61 0.06 0 0.615 0.06 0 0.62 0.06 0 0.625 0.06 0 0.63 0.06 0 0.635 0.06 0 0.64 0.06 0 0.645 0.06 0 0.65 0.06 0 0.655 0.06 0 0.66 0.06 0 0.665 0.06 0 0.67 0.06 0 0.675 0.06 0 0.68 0.06 0 0.685 0.06 0 0.69 0.06 0 0.695 0.06 0 0.7 0.06 0 0.705 0.06 0 0.71 0.06 0 0.715 0.06 0 0.72 0.06 0 0.725 0.06 0 0.73 0.06 0 0.735 0.06 0 0.74 0.06 0 0.745 0.06 0 0.75 0.06 0 0.755 0.06 0 0.76 0.06 0 0.765 0.06 0 0.77 0.06 0 0.775 0.06 0 0.78 0.06 0 0.785 0.06 0 0.79 0.06 0 0.795 0.06 0 0.8 0.06 0 0.805 0.06 0 0.81 0.06 0 0.815 0.06 0 0.82 0.06 0 0.825 0.06 0 0.83 0.06 0 0.835 0.06 0 0.84 0.06 0 0.845 0.06 0 0.85 0.06 0 0.855 0.06 0 0.86 0.06 0 0.865 0.06 0 0.87 0.06 0 0.875 0.06 0 0.88 0.06 0 0.885 0.06 0 0.89 0.06 0 0.895 0.06 0 0.9 0.06 0 0.905 0.06 0 0.91 0.06 0 0.915 0.06 0 0.92 0.06 0 0.925 0.06 0 0.93 0.06 0 0.935 0.06 0 0.94 0.06 0 0.945 0.06 0 0.95 0.06 0 0.955 0.06 0 0.96 0.06 0 0.965 0.06 0 0.97 0.06 0 0.975 0.06 0 0.98 0.06 0 0.985 0.06 0 0.99 0.06 0 0.995 0.06 0 1 0.06 0 0 0.08 0 0.005 0.08 0 0.01 0.08 0 0.015 0.08 0 0.02 0.08 0 0.025 0.08 0 0.03 0.08 0 0.035 0.08 0 0.04 0.08 0 0.045 0.08 0 0.05 0.08 0 0.055 0.08 0 0.06 0.08 0 0.065 0.08 0 0.07 0.08 0 0.075 0.08 0 0.08 0.08 0 0.085 0.08 0 0.09 0.08 0 0.095 0.08 0 0.1 0.08 0 0.105 0.08 0 0.11 0.08 0 0.115 0.08 0 0.12 0.08 0 0.125 0.08 0 0.13 0.08 0 0.135 0.08 0 0.14 0.08 0 0.145 0.08 0 0.15 0.08 0 0.155 0.08 0 0.16 0.08 0 0.165 0.08 0
[...]
			<PointData Scalars="VitesseX">
				<DataArray Name="VitesseX" type="Float32" format="ascii">
 0 4.81004e-15 1.76384e-14 1.52825e-14 -2.12e-14 2.15193e-14 7.19318e-14 -4.6653e-14 -1.5393e-14 -7.42475e-14 3.4443e-14 -4.10202e-14 8.16961e-14 -9.93202e-14 2.53675e-14 -3.19468e-14 -7.28579e-14 -3.02974e-14 -1.27562e-13 -7.8558e-15 -4.38564e-14 -6.91556e-14 -2.67665e-13 -1.17919e-14 3.25659e-14 -1.0007e-13 -1.93543e-13 3.4797e-14 -1.85831e-13 6.38795e-14 -1.25546e-13 -2.19034e-14 -1.19519e-13 -1.87973e-13 1.59909e-13 -4.10504e-13 2.67527e-14 -1.92097e-13 -7.85953e-14 -1.38624e-13 -1.77951e-13 -1.69796e-13 8.85698e-14 1.93008e-13 -3.89517e-14 1.60423e-14 -1.37314e-13 -6.43255e-14 5.619e-14 1.53832e-15 -1.6477e-13 -3.06791e-13 -3.58347e-13 3.12026e-13 2.1861e-13 -2.11756e-13 -1.11095e-13 -1.06328e-13 -1.2599e-13 4.21134e-14 -1.28704e-13 -2.13954e-13 -2.95456e-13 -5.19378e-14 -3.11273e-13 -3.29576e-14 6.86577e-13 5.34699e-12 5.19867e-11 4.82176e-10 4.1395e-09 3.26537e-08 2.35346e-07 1.5409e-06 9.10219e-06 4.81091e-05 0.000225222 0.000922184 0.00325174 0.00970196 0.0241083 0.0496071 0.0857053 0.12864 0.174765 0.222124 0.269874 0.317655 0.365122 0.411888 0.457772 0.502745 0.546812 0.589914 0.63195 0.672749 0.71207 0.749578 0.784852 0.81737 0.84655 0.871807 0.892662 0.908884 0.920618 0.928368 0.932936 0.935241 0.936158 0.936526 0.937075 0.938432 0.941356 0.946409 0.953982 0.966989 0.964641 0.954345 0.943251 0.935871 0.931141 0.927027 0.921705 0.912807 0.89714 0.870462 0.827555 0.763053 0.673244 0.558693 0.42691 0.292933 0.176764 0.0920177 0.0413514 0.0165513 0.0061706 0.00221406 0.000776916 0.000268239 9.12861e-05 3.06261e-05 1.01255e-05 3.29722e-06 1.05697e-06 3.33391e-07 1.03429e-07 3.15495e-08 9.45882e-09 2.78677e-09 8.07227e-10 2.28673e-10 6.42423e-11 1.64025e-11 5.00021e-12 6.03542e-13 3.25386e-13 2.35669e-13 -4.41495e-13 1.83572e-13 -2.43495e-13 2.18227e-13 -4.91441e-13 -3.82297e-14 5.79192e-13 -2.12924e-13 -2.22145e-13 -2.62807e-13 -6.78767e-13 1.08889e-12 -6.83807e-13 5.31259e-14 -1.84451e-13 -9.21658e-13 1.39651e-13 -3.2899e-13 -3.71762e-13 7.35265e-14 -2.08077e-13 2.73391e-13 -1.62704e-13 1.3724e-13 3.98787e-13 -1.65469e-13 -2.34852e-14 -5.75242e-13 -1.9329e-13 -4.31698e-14 -4.60595e-13 2.36291e-13 -1.09653e-12 -2.07461e-13 5.62758e-13 -7.21336e-13 -3.93456e-13 -2.46456e-13 2.17282e-13 7.50223e-13 -4.60956e-13 5.82264e-13 0 0 1.93088e-14 1.29665e-14 1.60527e-14 3.4899e-14 1.75863e-14 -4.53923e-14 1.14815e-14 -3.32536e-14 -2.52171e-16 -5.49213e-14 1.26692e-14 -5.09018e-14 2.93181e-14 -2.63811e-14 -3.03492e-14 2.80988e-14 -1.22396e-13 -2.06626e-14 -9.17426e-14 -8.55428e-14 -6.72824e-14 4.62425e-14 -1.94761e-13 -1.62925e-13 -3.95888e-14 4.15844e-14 -1.941e-13 -5.77815e-14 -6.26826e-14 3.30931e-14 -1.52716e-13 -6.35195e-14 -7.41689e-14 -3.24017e-13 8.01123e-14 -1.65455e-13 -4.1032e-14 -1.58786e-13 -5.8152e-14 -1.14229e-13 7.96951e-14 -4.36146e-14 -1.08491e-13 -2.94681e-14 1.36966e-14 6.32493e-15 4.92807e-14 -1.81651e-13 -2.64505e-13 -1.86226e-13 -2.11605e-14 1.75191e-13 -4.40929e-13 -1.23355e-13 1.57147e-13 3.28698e-14 -1.39535e-13 -1.00733e-13 -1.41452e-13 3.48094e-14 -9.68972e-14 -1.33373e-13 -1.93049e-13 -4.27565e-14 1.08146e-13 4.13702e-13 5.15015e-12 5.18152e-11 4.82509e-10 4.13973e-09 3.26532e-08 2.35345e-07 1.5409e-06 9.10219e-06 4.81091e-05 0.000225222 0.000922184 0.00325174 0.00970196 0.0241083 0.0496071 0.0857053 0.12864 0.174765 0.222124 0.269874 0.317655 0.365122 0.411888 0.457772 0.502745 0.546812 0.589914 0.63195 0.672749 0.71207 0.749578 0.784852 0.81737 0.84655 0.871807 0.892662 0.908884 0.920618 0.928368 0.932936 0.935241 0.936158 0.936526 0.937075 0.938432 0.941356 0.946409 0.953982 0.966989 0.964641 0.954345 0.943251 0.935871 0.931141 0.927027 0.921705 0.912807 0.89714 0.870462 0.827555 0.763053 0.673244 0.558693 0.42691 0.292933 0.176764 0.0920177 0.0413514 0.0165513 0.0061706 0.00221406 0.000776916 0.000268239 9.12861e-05 3.06261e-05 1.01255e-05 3.29722e-06 1.05697e-06 3.3339e-07 1.0343e-07 3.15485e-08 9.45947e-09 2.78702e-09 8.06199e-10 2.29604e-10 6.3289e-11 1.78339e-11 4.05842e-12 1.14645e-12 -2.32247e-13 -2.95875e-13 5.0818e-13 -2.08146e-13 2.45701e-13 -6.63668e-13 1.57578e-13 -1.06595e-13 -4.22598e-13 1.61859e-13 -2.52874e-13 -1.1592e-13 4.52977e-13 -6.84741e-13 2.15923e-13 -5.19177e-13 -2.32886e-13 2.49382e-13 -7.9248e-13 -1.27353e-14 -7.8092e-14 -3.58706e-13 4.22611e-13 -4.6489e-13 4.41913e-13 -1.34437e-13 -2.15777e-13 5.47126e-13 -2.14781e-13 -2.19341e-13 -2.10494e-13 -3.48728e-13 4.98128e-13 -5.243e-13 -1.00821e-13 -7.0736e-13 -6.56599e-13 2.14195e-13 2.55326e-13 -2.25988e-13 7.5411e-14 -5.26141e-13 8.96021e-13 4.31918e-13 0 0 -6.12753e-15 7.96258e-16 3.04713e-14 1.32654e-14 3.27429e-15 -6.10982e-15 -1.55006e-14 4.88271e-15 -2.57649e-14 -1.34574e-14 -4.36677e-14 -1.66309e-14 -3.90781e-15 -1.50695e-14 -5.48895e-15 -5.31267e-14 -2.26836e-14 -1.13556e-14 -8.37132e-14 -6.45478e-14 -1.44172e-14 -9.37306e-14 -3.40384e-14 -6.15897e-14 -7.20357e-14 -6.5344e-14 4.0489e-14 -1.77531e-13 -1.01614e-13 -1.02598e-13 -6.01252e-14 -6.81722e-14 -1.14852e-13 -6.92695e-14 -2.34532e-13 -2.72816e-14 -1.7078e-13 3.30257e-14 -1.70455e-13 3.79476e-14 -5.57073e-14 -9.99036e-14 5.57806e-14 -1.50214e-13 -1.78262e-13 1.29911e-13 -1.11545e-14 -1.54526e-13 -1.48617e-13 -1.5473e-13 -3.5077e-14 -3.22336e-13 9.33115e-14 -1.06392e-13 -1.27096e-13 5.5774e-14 -1.07422e-13 5.49645e-14 2.732e-14 -7.95133e-14 -1.37658e-13 -1.44234e-13 -2.76217e-16 -1.14907e-13 1.52244e-13 3.29021e-13 5.22791e-12 5.19458e-11 4.82139e-10 4.14005e-09 3.26535e-08 2.35345e-07 1.5409e-06 9.10219e-06 4.81091e-05 0.000225222 0.000922184 0.00325174 0.00970196 0.0241083 0.0496071 0.0857053 0.12864 0.174765 0.222124 0.269874 0.317655 0.365122 0.411888 0.457772 0.502745 0.546812 0.589914 0.63195 0.672749 0.71207 0.749578 0.784852 0.81737 0.84655 0.871807 0.892662 0.908884 0.920618 0.928368 0.932936 0.935241 0.936158 0.936526 0.937075 0.938432 0.941356 0.946409 0.953982 0.966989 0.964641 0.954345 0.943251 0.935871 0.931141 0.927027 0.921705 0.912807 0.89714 0.870462 0.827555 0.763053 0.673244 0.558693 0.42691 0.292933 0.176764 0.0920177 0.0413514 0.0165513 0.0061706 0.00221406 0.000776916 0.000268239 9.12861e-05 3.06261e-05 1.01255e-05 3.29722e-06 1.05697e-06 3.3339e-07 1.03429e-07 3.1549e-08 9.45892e-09 2.78699e-09 8.06673e-10 2.28825e-10 6.41191e-11 1.72701e-11 4.45616e-12 9.0936e-13 -1.47511e-13 -7.14652e-14 -2.25715e-13 2.496e-14 -4.514e-14 -2.45341e-13 1.80025e-13 -3.59166e-13 -2.65199e-13 -6.08298e-13 1.85304e-14 1.63318e-13 -2.77009e-13 -5.26539e-13 1.80789e-13 -1.1396e-13 -1.06653e-13 -2.1949e-13 -2.08476e-13 -5.95849e-13 1.9787e-13 1.26195e-13 -2.4648e-13 1.92935e-13 -3.34024e-13 7.10009e-13 1.32647e-13 -3.78211e-13 2.05403e-13 2.00711e-13 -2.49976e-13 -2.6573e-13 -2.6619e-13 1.83438e-13 -4.14092e-13 -4.06011e-13 -2.83483e-13 -3.64605e-13 5.98345e-13 2.10114e-13 -3.85424e-13 4.83331e-14 1.58237e-14 3.94584e-13 0 0 -1.25602e-14 -8.69969e-15 -1.64191e-14 -2.11534e-14 -9.20454e-15 4.70814e-15 -1.50875e-14 -1.59578e-14 6.63647e-15 -1.72054e-14 -1.19784e-15 1.95592e-14 -8.32523e-15 -2.21042e-15 -3.12139e-14 -8.37067e-14 -3.36159e-14 -7.84605e-14 2.0563e-14 -2.71674e-14 -3.58155e-14 -3.5177e-14 6.06488e-15 -4.28867e-14 -3.92723e-14 -7.23969e-14 -3.49465e-14 -1.30794e-13 -7.43964e-14 -1.42352e-13 -4.72923e-14 -1.42364e-13 -8.77789e-14 -9.46515e-14 -8.44834e-14 -6.7307e-14 -1.40432e-13 -3.24661e-14 -1.80096e-13 -6.55285e-14 -1.72371e-13 1.32879e-14 -2.03355e-14 8.50934e-14 1.16716e-13 -2.60727e-13 -4.26153e-14 1.78134e-13 -8.83664e-14 -9.74685e-14 -3.42446e-13 -1.37118e-13 -9.57483e-14 -7.41013e-14 -1.38219e-13 -3.03912e-16 -1.51555e-14 6.11681e-14 -8.9194e-14 -5.69477e-14 -3.59282e-14 -2.89938e-13 -1.38774e-13 -1.1878e-13 2.86879e-14 8.1666e-13 5.12687e-12 5.19869e-11 4.8224e-10 4.14022e-09 3.26536e-08 2.35345e-07 1.5409e-06 9.10219e-06 4.81091e-05 0.000225222 0.000922184 0.00325174 0.00970196 0.0241083 0.0496071 0.0857053 0.12864 0.174765 0.222124 0.269874 0.317655 0.365122 0.411888 0.457772 0.502745 0.546812 0.589914 0.63195 0.672749 0.71207 0.749578 0.784852 0.81737 0.84655 0.871807 0.892662 0.908884 0.920618 0.928368 0.932936 0.935241 0.936158 0.936526 0.937075 0.938432 0.941356 0.946409 0.953982 0.966989 0.964641 0.954345 0.943251 0.935871 0.931141 0.927027 0.921705 0.912807 0.89714 0.870462 0.827555 0.763053 0.673244 0.558693 0.42691 0.292933 0.176764 0.0920177 0.0413514 0.0165513 0.0061706 0.00221406 0.000776916 0.000268239 9.12861e-05 3.06261e-05 1.01255e-05 3.29722e-06 1.05697e-06 3.3339e-07 1.03429e-07 3.1549e-08 9.45903e-09 2.78669e-09 8.0678e-10 2.2933e-10 6.39764e-11 1.72007e-11 4.75544e-12 7.45708e-13 3.26226e-13 -4.2609e-14 -2.21019e-13 -7.99166e-14 -7.04768e-14 4.34845e-13 -3.60817e-13 -2.91683e-13 -2.27053e-13 -3.22861e-13 1.78211e-13 -5.17202e-13 -4.29313e-13 1.42783e-13 -2.07926e-13 -2.08887e-13 -2.48732e-13 -4.80938e-13 -1.6073e-13 -4.2816e-13 -5.21986e-13 6.71866e-13 -2.47858e-13 4.18364e-13 1.64367e-13 -2.0074e-13 3.90328e-13 -4.08098e-13 3.63647e-14 -1.17524e-13 2.37023e-13 -9.75124e-14 -7.02169e-13 -6.9911e-13 -2.13881e-13 -6.02391e-13 5.15026e-13 -2.13927e-13 -9.13789e-14 -2.35713e-13 -1.29481e-13 5.13129e-13 -1.12749e-14 -3.60956e-13 0 0 -3.37115e-15 -2.39104e-14 -4.43496e-14 -2.06701e-14 -3.23222e-14 -6.43e-14 2.86959e-14 -2.248e-14 2.55447e-14 -4.63812e-14 4.18113e-14 -4.93167e-14 4.24153e-14 8.29431e-16 3.24955e-15 2.65388e-14 -1.0343e-13 9.26306e-15 -1.30684e-14 -5.82154e-14 2.64447e-14 1.35826e-13 -1.80391e-13 -1.56877e-13 -1.06012e-14 -5.18604e-14 -2.61264e-13 -1.80552e-14 -1.0947e-13 -3.20899e-14 -9.44842e-14 -6.97011e-14 -6.01322e-14 -3.08298e-13 1.40992e-13 -1.24168e-13 -2.05055e-15 -1.53411e-13 -7.58287e-14 -1.59009e-13 -6.24704e-14 -9.34779e-15 -3.06651e-14 1.43621e-13 2.31375e-13 -1.47685e-13 -1.36198e-14 1.71512e-14 -1.90935e-13 -1.31426e-13 -1.72798e-13 3.22419e-13 -6.02823e-13 -2.42297e-13 1.02465e-13 5.4195e-14 4.18318e-14 4.42229e-14 -1.67434e-13 -1.14469e-13 -1.87035e-13 -1.3565e-13 -3.60562e-13 9.08194e-14 2.20023e-13 8.38312e-13 5.20814e-12 5.19461e-11 4.82488e-10 4.13999e-09 3.26533e-08 2.35345e-07 1.5409e-06 9.10219e-06 4.81091e-05 0.000225222 0.000922184 0.00325174 0.00970196 0.0241083 0.0496071 0.0857053 0.12864 0.174765 0.222124 0.269874 0.317655 0.365122 0.411888 0.457772 0.502745 0.546812 0.589914 0.63195 0.672749 0.71207 0.749578 0.784852 0.81737 0.84655 0.871807 0.892662 0.908884 0.920618 0.928368 0.932936 0.935241 0.936158 0.936526 0.937075 0.938432 0.941356 0.946409 0.953982 0.966989 0.964641 0.954345 0.943251 0.935871 0.931141 0.927027 0.921705 0.912807 0.89714 0.870462 0.827555 0.763053 0.673244 0.558693 0.42691 0.292933 0.176764 0.0920177 0.0413514 0.0165513 0.0061706 0.00221406 0.000776916 0.000268239 9.12861e-05 3.06261e-05 1.01255e-05 3.29722e-06 1.05697e-06 3.3339e-07 1.0343e-07 3.15485e-08 9.45955e-09 2.78687e-09 8.06253e-10 2.29693e-10 6.31126e-11 1.78688e-11 4.3723e-12 1.36114e-12 1.02316e-13 9.28904e-14 7.29893e-13 -5.5774e-13 6.91313e-13 -1.24872e-13 -1.24784e-13 -5.24471e-14 -6.97292e-13 -1.9654e-14 -2.03932e-13 -6.39849e-13 3.07233e-13 -3.28818e-13 6.25113e-14 -3.85126e-13 -3.08624e-13 5.0776e-14 -1.06113e-12 -5.67143e-14 -8.38405e-13 -1.13816e-13 4.05512e-13 -8.06384e-14 8.21065e-13 -6.57818e-13 -1.57187e-13 4.34276e-13 -2.54391e-13 -2.35941e-13 1.44703e-13 -7.44805e-14 1.41681e-13 -1.40761e-12 4.91956e-14 -1.05153e-12 2.64376e-14 8.1235e-13 1.50251e-13 -1.88269e-13 2.06807e-13 -1.75327e-13 7.1391e-13 -2.9075e-13 0 0 -2.76846e-14 -3.71234e-14 -1.17413e-14 -6.35005e-14 -5.334e-14 1.24806e-14 -1.30506e-14 4.78352e-14 -8.74564e-14 5.90192e-14 -6.76759e-14 1.2486e-14 -6.42909e-14 5.40705e-14 8.67008e-14 -1.48178e-14 2.94994e-14 6.64991e-14 -5.90597e-14 -6.39624e-14 1.61095e-13 -2.05604e-13 -6.3258e-14 7.25589e-15 -1.07621e-13 -3.66327e-13 5.1341e-14 -1.99852e-13 -8.41304e-14 -1.76404e-13 6.88942e-14 1.65023e-14 -2.14045e-13 2.42112e-13 -5.88841e-13 1.89377e-13 -1.74828e-13 6.31373e-14 -1.54696e-13 -6.05579e-14 -2.20799e-13 -6.92796e-14 5.00892e-13 -1.6339e-13 -1.38556e-13 3.35943e-13 -1.27205e-13 -2.11527e-13 2.81792e-14 -1.69692e-13 4.67105e-15 -4.34327e-13 3.66359e-13 -8.38543e-14 -2.98874e-13 4.3711e-14 7.18716e-14 1.51513e-13 2.23177e-13 -4.72391e-13 -5.97689e-13 -8.6005e-15 -1.09969e-13 -3.63761e-14 4.37908e-13 5.60521e-13 5.66505e-12 5.21662e-11 4.81933e-10 4.13969e-09 3.26537e-08 2.35345e-07 1.5409e-06 9.10219e-06 4.81091e-05 0.000225222 0.000922184 0.00325174 0.00970196 0.0241083 0.0496071 0.0857053 0.12864 0.174765 0.222124 0.269874 0.317655 0.365122 0.411888 0.457772 0.502745 0.546812 0.589914 0.63195 0.672749 0.71207 0.749578 0.784852 0.81737 0.84655 0.871807 0.892662 0.908884 0.920618 0.928368 0.932936 0.935241 0.936158 0.936526 0.937075 0.938432 0.941356 0.946409 0.953982 0.966989 0.964641 0.954345 0.943251 0.935871 0.931141 0.927027 0.921705 0.912807 0.89714 0.870462 0.827555 0.763053 0.673244 0.558693 0.42691 0.292933 0.176764 0.0920177 0.0413514 0.0165513 0.0061706 0.00221406 0.000776916 0.000268239 9.12861e-05 3.06261e-05 1.01255e-05 3.29722e-06 1.05697e-06 3.3339e-07 1.03429e-07 3.15497e-08 9.45875e-09 2.78708e-09 8.07122e-10 2.2784e-10 6.41748e-11 1.66112e-11 5.0294e-12 1.36022e-12 4.70351e-14 9.55487e-13 -7.4602e-15 -3.05863e-13 6.98402e-13 -6.45537e-14 2.55205e-14 -6.49001e-14 -4.64892e-14 -1.14682e-12 -4.43623e-13 5.03746e-14 -6.65649e-13 4.62098e-13 -2.132e-13 5.11082e-13 -5.17666e-14 -7.95974e-13 -4.93147e-13 -7.52327e-13 -4.52675e-13 -5.28035e-13 -2.39522e-13 5.91035e-13 -4.0118e-13 9.11978e-13 6.07056e-16 -3.31392e-13 2.35372e-13 2.80307e-14 -4.56893e-13 1.68889e-13 -3.01533e-13 2.34765e-13 -1.19692e-12 -5.03047e-13 3.31812e-13 1.7362e-13 7.75844e-13 7.20635e-13 -3.18121e-14 5.22258e-13 -7.7098e-13 6.48008e-13 0
				</DataArray>
				<DataArray Name="VitesseY" type="Float32" format="ascii">