<?xml version="1.0"?>
<VTKFile type="PolyData">
	<PolyData>
		<Piece NumberOfPoints="1206" NumberOfPolys="1000">
			<Points>
				<DataArray type="Float32" NumberOfComponents="3" format="ascii">
 0 0 0 0.005 0 0 0.01 0 0 0.015 0 0 0.02 0 0 0.025 0 0 0.03 0 0 0.035 0 0 0.04 0 0 0.045 0 0 0.05 0 0 0.055 0 0 0.06 0 0 0.065 0 0 0.07 0 0 0.075 0 0 0.08 0 0 0.085 0 0 0.09 0 0 0.095 0 0 0.1 0 0 0.105 0 0 0.11 0 0 0.115 0 0 0.12 0 0 0.125 0 0 0.13 0 0 0.135 0 0 0.14 0 0 0.145 0 0 0.15 0 0 0.155 0 0 0.16 0 0 0.165 0 0 0.17 0 0 0.175 0 0 0.18 0 0 0.185 0 0 0.19 0 0 0.195 0 0 0.2 0 0 0.205 0 0 0.21 0 0 0.215 0 0 0.22 0 0 0.225 0 0 0.23 0 0 0.235 0 0 0.24 0 0 0.245 0 0 0.25 0 0 0.255 0 0 0.26 0 0 0.265 0 0 0.27 0 0 0.275 0 0 0.28 0 0 0.285 0 0 0.29 0 0 0.295 0 0 0.3 0 0 0.305 0 0 0.31 0 0 0.315 0 0 0.32 0 0 0.325 0 0 0.33 0 0 0.335 0 0 0.34 0 0 0.345 0 0 0.35 0 0 0.355 0 0 0.36 0 0 0.365 0 0 0.37 0 0 0.375 0 0 0.38 0 0 0.385 0 0 0.39 0 0 0.395 0 0 0.4 0 0 0.405 0 0 0.41 0 0 0.415 0 0 0.42 0 0 0.425 0 0 0.43 0 0 0.435 0 0 0.44 0 0 0.445 0 0 0.45 0 0 0.455 0 0 0.46 0 0 0.465 0 0 0.47 0 0 0.475 0 0 0.48 0 0 0.485 0 0 0.49 0 0 0.495 0 0 0.5 0 0 0.505 0 0 0.51 0 0 0.515 0 0 0.52 0 0 0.525 0 0 0.53 0 0 0.535 0 0 0.54 0 0 0.545 0 0 0.55 0 0 0.555 0 0 0.56 0 0 0.565 0 0 0.57 0 0 0.575 0 0 0.58 0 0 0.585 0 0 0.59 0 0 0.595 0 0 0.6 0 0 0.605 0 0 0.61 0 0 0.615 0 0 0.62 0 0 0.625 0 0 0.63 0 0 0.635 0 0 0.64 0 0 0.645 0 0 0.65 0 0 0.655 0 0 0.66 0 0 0.665 0 0 0.67 0 0 0.675 0 0 0.68 0 0 0.685 0 0 0.69 0 0 0.695 0 0 0.7 0 0 0.705 0 0 0.71 0 0 0.715 0 0 0.72 0 0 0.725 0 0 0.73 0 0 0.735 0 0 0.74 0 0 0.745 0 0 0.75 0 0 0.755 0 0 0.76 0 0 0.765 0 0 0.77 0 0 0.775 0 0 0.78 0 0 0.785 0 0 0.79 0 0 0.795 0 0 0.8 0 0 0.805 0 0 0.81 0 0 0.815 0 0 0.82 0 0 0.825 0 0 0.83 0 0 0.835 0 0 0.84 0 0 0.845 0 0 0.85 0 0 0.855 0 0 0.86 0 0 0.865 0 0 0.87 0 0 0.875 0 0 0.88 0 0 0.885 0 0 0.89 0 0 0.895 0 0 0.9 0 0 0.905 0 0 0.91 0 0 0.915 0 0 0.92 0 0 0.925 0 0 0.93 0 0 0.935 0 0 0.94 0 0 0.945 0 0 0.95 0 0 0.955 0 0 0.96 0 0 0.965 0 0 0.97 0 0 0.975 0 0 0.98 0 0 0.985 0 0 0.99 0 0 0.995 0 0 1 0 0 0 0.02 0 0.005 0.02 0 0.01 0.02 0 0.015 0.02 0 0.02 0.02 0 0.025 0.02 0 0.03 0.02 0 0.035 0.02 0 0.04 0.02 0 0.045 0.02 0 0.05 0.02 0 0.055 0.02 0 0.06 0.02 0 0.065 0.02 0 0.07 0.02 0 0.075 0.02 0 0.08 0.02 0 0.085 0.02 0 0.09 0.02 0 0.095 0.02 0 0.1 0.02 0 0.105 0.02 0 0.11 0.02 0 0.115 0.02 0 0.12 0.02 0 0.125 0.02 0 0.13 0.02 0 0.135 0.02 0 0.14 0.02 0 0.145 0.02 0 0.15 0.02 0 0.155 0.02 0 0.16 0.02 0 0.165 0.02 0 0.17 0.02 0 0.175 0.02 0 0.18 0.02 0 0.185 0.02 0 0.19 0.02 0 0.195 0.02 0 0.2 0.02 0 0.205 0.02 0 0.21 0.02 0 0.215 0.02 0 0.22 0.02 0 0.225 0.02 0 0.23 0.02 0 0.235 0.02 0 0.24 0.02 0 0.245 0.02 0 0.25 0.02 0 0.255 0.02 0 0.26 0.02 0 0.265 0.02 0 0.27 0.02 0 0.275 0.02 0 0.28 0.02 0 0.285 0.02 0 0.29 0.02 0 0.295 0.02 0 0.3 0.02 0 0.305 0.02 0 0.31 0.02 0 0.315 0.02 0 0.32 0.02 0 0.325 0.02 0 0.33 0.02 0 0.335 0.02 0 0.34 0.02 0 0.345 0.02 0 0.35 0.02 0 0.355 0.02 0 0.36 0.02 0 0.365 0.02 0 0.37 0.02 0 0.375 0.02 0 0.38 0.02 0 0.385 0.02 0 0.39 0.02 0 0.395 0.02 0 0.4 0.02 0 0.405 0.02 0 0.41 0.02 0 0.415 0.02 0 0.42 0.02 0 0.425 0.02 0 0.43 0.02 0 0.435 0.02 0 0.44 0.02 0 0.445 0.02 0 0.45 0.02 0 0.455 0.02 0 0.46 0.02 0 0.465 0.02 0 0.47 0.02 0 0.475 0.02 0 0.48 0.02 0 0.485 0.02 0 0.49 0.02 0 0.495 0.02 0 0.5 0.02 0 0.505 0.02 0 0.51 0.02 0 0.515 0.02 0 0.52 0.02 0 0.525 0.02 0 0.53 0.02 0 0.535 0.02 0 0.54 0.02 0 0.545 0.02 0 0.55 0.02 0 0.555 0.02 0 0.56 0.02 0 0.565 0.02 0 0.57 0.02 0 0.575 0.02 0 0.58 0.02 0 0.585 0.02 0 0.59 0.02 0 0.595 0.02 0 0.6 0.02 0 0.605 0.02 0 0.61 0.02 0 0.615 0.02 0 0.62 0.02 0 0.625 0.02 0 0.63 0.02 0 0.635 0.02 0 0.64 0.02 0 0.645 0.02 0 0.65 0.02 0 0.655 0.02 0 0.66 0.02 0 0.665 0.02 0 0.67 0.02 0 0.675 0.02 0 0.68 0.02 0 0.685 0.02 0 0.69 0.02 0 0.695 0.02 0 0.7 0.02 0 0.705 0.02 0 0.71 0.02 0 0.715 0.02 0 0.72 0.02 0 0.725 0.02 0 0.73 0.02 0 0.735 0.02 0 0.74 0.02 0 0.745 0.02 0 0.75 0.02 0 0.755 0.02 0 0.76 0.02 0 0.765 0.02 0 0.77 0.02 0 0.775 0.02 0 0.78 0.02 0 0.785 0.02 0 0.79 0.02 0 0.795 0.02 0 0.8 0.02 0 0.805 0.02 0 0.81 0.02 0 0.815 0.02 0 0.82 0.02 0 0.825 0.02 0 0.83 0.02 0 0.835 0.02 0 0.84 0.02 0 0.845 0.02 0 0.85 0.02 0 0.855 0.02 0 0.86 0.02 0 0.865 0.02 0 0.87 0.02 0 0.875 0.02 0 0.88 0.02 0 0.885 0.02 0 0.89 0.02 0 0.895 0.02 0 0.9 0.02 0 0.905 0.02 0 0.91 0.02 0 0.915 0.02 0 0.92 0.02 0 0.925 0.02 0 0.93 0.02 0 0.935 0.02 0 0.94 0.02 0 0.945 0.02 0 0.95 0.02 0 0.955 0.02 0 0.96 0.02 0 0.965 0.02 0 0.97 0.02 0 0.975 0.02 0 0.98 0.02 0 0.985 0.02 0 0.99 0.02 0 0.995 0.02 0 1 0.02 0 0 0.04 0 0.005 0.04 0 0.01 0.04 0 0.015 0.04 0 0.02 0.04 0 0.025 0.04 0 0.03 0.04 0 0.035 0.04 0 0.04 0.04 0 0.045 0.04 0 0.05 0.04 0 0.055 0.04 0 0.06 0.04 0 0.065 0.04 0 0.07 0.04 0 0.075 0.04 0 0.08 0.04 0 0.085 0.04 0 0.09 0.04 0 0.095 0.04 0 0.1 0.04 0 0.105 0.04 0 0.11 0.04 0 0.115 0.04 0 0.12 0.04 0 0.125 0.04 0 0.13 0.04 0 0.135 0.04 0 0.14 0.04 0 0.145 0.04 0 0.15 0.04 0 0.155 0.04 0 0.16 0.04 0 0.165 0.04 0 0.17 0.04 0 0.175 0.04 0 0.18 0.04 0 0.185 0.04 0 0.19 0.04 0 0.195 0.04 0 0.2 0.04 0 0.205 0.04 0 0.21 0.04 0 0.215 0.04 0 0.22 0.04 0 0.225 0.04 0 0.23 0.04 0 0.235 0.04 0 0.24 0.04 0 0.245 0.04 0 0.25 0.04 0 0.255 0.04 0 0.26 0.04 0 0.265 0.04 0 0.27 0.04 0 0.275 0.04 0 0.28 0.04 0 0.285 0.04 0 0.29 0.04 0 0.295 0.04 0 0.3 0.04 0 0.305 0.04 0 0.31 0.04 0 0.315 0.04 0 0.32 0.04 0 0.325 0.04 0 0.33 0.04 0 0.335 0.04 0 0.34 0.04 0 0.345 0.04 0 0.35 0.04 0 0.355 0.04 0 0.36 0.04 0 0.365 0.04 0 0.37 0.04 0 0.375 0.04 0 0.38 0.04 0 0.385 0.04 0 0.39 0.04 0 0.395 0.04 0 0.4 0.04 0 0.405 0.04 0 0.41 0.04 0 0.415 0.04 0 0.42 0.04 0 0.425 0.04 0 0.43 0.04 0 0.435 0.04 0 0.44 0.04 0 0.445 0.04 0 0.45 0.04 0 0.455 0.04 0 0.46 0.04 0 0.465 0.04 0 0.47 0.04 0 0.475 0.04 0 0.48 0.04 0 0.485 0.04 0 0.49 0.04 0 0.495 0.04 0 0.5 0.04 0 0.505 0.04 0 0.51 0.04 0 0.515 0.04 0 0.52 0.04 0 0.525 0.04 0 0.53 0.04 0 0.535 0.04 0 0.54 0.04 0 0.545 0.04 0 0.55 0.04 0 0.555 0.04 0 0.56 0.04 0 0.565 0.04 0 0.57 0.04 0 0.575 0.04 0 0.58 0.04 0 0.585 0.04 0 0.59 0.04 0 0.595 0.04 0 0.6 0.04 0 0.605 0.04 0 0.61 0.04 0 0.615 0.04 0 0.62 0.04 0 0.625 0.04 0 0.63 0.04 0 0.635 0.04 0 0.64 0.04 0 0.645 0.04 0 0.65 0.04 0 0.655 0.04 0 0.66 0.04 0 0.665 0.04 0 0.67 0.04 0 0.675 0.04 0 0.68 0.04 0 0.685 0.04 0 0.69 0.04 0 0.695 0.04 0 0.7 0.04 0 0.705 0.04 0 0.71 0.04 0 0.715 0.04 0 0.72 0.04 0 0.725 0.04 0 0.73 0.04 0 0.735 0.04 0 0.74 0.04 0 0.745 0.04 0 0.75 0.04 0 0.755 0.04 0 0.76 0.04 0 0.765 0.04 0 0.77 0.04 0 0.775 0.04 0 0.78 0.04 0 0.785 0.04 0 0.79 0.04 0 0.795 0.04 0 0.8 0.04 0 0.805 0.04 0 0.81 0.04 0 0.815 0.04 0 0.82 0.04 0 0.825 0.04 0 0.83 0.04 0 0.835 0.04 0 0.84 0.04 0 0.845 0.04 0 0.85 0.04 0 0.855 0.04 0 0.86 0.04 0 0.865 0.04 0 0.87 0.04 0 0.875 0.04 0 0.88 0.04 0 0.885 0.04 0 0.89 0.04 0 0.895 0.04 0 0.9 0.04 0 0.905 0.04 0 0.91 0.04 0 0.915 0.04 0 0.92 0.04 0 0.925 0.04 0 0.93 0.04 0 0.935 0.04 0 0.94 0.04 0 0.945 0.04 0 0.95 0.04 0 0.955 0.04 0 0.96 0.04 0 0.965 0.04 0 0.97 0.04 0 0.975 0.04 0 0.98 0.04 0 0.985 0.04 0 0.99 0.04 0 0.995 0.04 0 1 0.04 0 0 0.06 0 0.005 0.06 0 0.01 0.06 0 0.015 0.06 0 0.02 0.06 0 0.025 0.06 0 0.03 0.06 0 0.035 0.06 0 0.04 0.06 0 0.045 0.06 0 0.05 0.06 0 0.055 0.06 0 0.06 0.06 0 0.065 0.06 0 0.07 0.06 0 0.075 0.06 0 0.08 0.06 0 0.085 0.06 0 0.09 0.06 0 0.095 0.06 0 0.1 0.06 0 0.105 0.06 0 0.11 0.06 0 0.115 0.06 0 0.12 0.06 0 0.125 0.06 0 0.13 0.06 0 0.135 0.06 0 0.14 0.06 0 0.145 0.06 0 0.15 0.06 0 0.155 0.06 0 0.16 0.06 0 0.165 0.06 0 0.17 0.06 0 0.175 0.06 0 0.18 0.06 0 0.185 0.06 0 0.19 0.06 0 0.195 0.06 0 0.2 0.06 0 0.205 0.06 0 0.21 0.06 0 0.215 0.06 0 0.22 0.06 0 0.225 0.06 0 0.23 0.06 0 0.235 0.06 0 0.24 0.06 0 0.245 0.06 0 0.25 0.06 0 0.255 0.06 0 0.26 0.06 0 0.265 0.06 0 0.27 0.06 0 0.275 0.06 0 0.28 0.06 0 0.285 0.06 0 0.29 0.06 0 0.295 0.06 0 0.3 0.06 0 0.305 0.06 0 0.31 0.06 0 0.315 0.06 0 0.32 0.06 0 0.325 0.06 0 0.33 0.06 0 0.335 0.06 0 0.34 0.06 0 0.345 0.06 0 0.35 0.06 0 0.355 0.06 0 0.36 0.06 0 0.365 0.06 0 0.37 0.06 0 0.375 0.06 0 0.38 0.06 0 0.385 0.06 0 0.39 0.06 0 0.395 0.06 0 0.4 0.06 0 0.405 0.06 0 0.41 0.06 0 0.415 0.06 0 0.42 0.06 0 0.425 0.06 0 0.43 0.06 0 0.435 0.06 0 0.44 0.06 0 0.445 0.06 0 0.45 0.06 0 0.455 0.06 0 0.46 0.06 0 0.465 0.06 0 0.47 0.06 0 0.475 0.06 0 0.48 0.06 0 0.485 0.06 0 0.49 0.06 0 0.495 0.06 0 0.5 0.06 0 0.505 0.06 0 0.51 0.06 0 0.515 0.06 0 0.52 0.06 0 0.525 0.06 0 0.53 0.06 0 0.535 0.06 0 0.54 0.06 0 0.545 0.06 0 0.55 0.06 0 0.555 0.06 0 0.56 0.06 0 0.565 0.06 0 0.57 0.06 0 0.575 0.06 0 0.58 0.06 0 0.585 0.06 0 0.59 0.06 0 0.595 0.06 0 0.6 0.06 0 0.605 0.06 0 0.61 0.06 0 0.615 0.06 0 0.62 0.06 0 0.625 0.06 0 0.63 0.06 0 0.635 0.06 0 0.64 0.06 0 0.645 0.06 0 0.65 0.06 0 0.655 0.06 0 0.66 0.06 0 0.665 0.06 0 0.67 0.06 0 0.675 0.06 0 0.68 0.06 0 0.685 0.06 0 0.69 0.06 0 0.695 0.06 0 0.7 0.06 0 0.705 0.06 0 0.71 0.06 0 0.715 0.06 0 0.72 0.06 0 0.725 0.06 0 0.73 0.06 0 0.735 0.06 0 0.74 0.06 0 0.745 0.06 0 0.75 0.06 0 0.755 0.06 0 0.76 0.06 0 0.765 0.06 0 0.77 0.06 0 0.775 0.06 0 0.78 0.06 0 0.785 0.06 0 0.79 0.06 0 0.795 0.06 0 0.8 0.06 0 0.805 0.06 0 0.81 0.06 0 0.815 0.06 0 0.82 0.06 0 0.825 0.06 0 0.83 0.06 0 0.835 0.06 0 0.84 0.06 0 0.845 0.06 0 0.85 0.06 0 0.855 0.06 0 0.86 0.06 0 0.865 0.06 0 0.87 0.06 0 0.875 0.06 0 0.88 0.06 0 0.885 0.06 0 0.89 0.06 0 0.895 0.06 0 0.9 0.06 0 0.905 0.06 0 0.91 0.06 0 0.915 0.06 0 0.92 0.06 0 0.925 0.06 0 0.93 0.06 0 0.935 0.06 0 0.94 0.06 0 0.945 0.06 0 0.95 0.06 0 0.955 0.06 0 0.96 0.06 0 0.965 0.06 0 0.97 0.06 0 0.975 0.06 0 0.98 0.06 0 0.985 0.06 0 0.99 0.06 0 0.995 0.06 0 1 0.06 0 0 0.08 0 0.005 0.08 0 0.01 0.08 0 0.015 0.08 0 0.02 0.08 0 0.025 0.08 0 0.03 0.08 0 0.035 0.08 0 0.04 0.08 0 0.045 0.08 0 0.05 0.08 0 0.055 0.08 0 0.06 0.08 0 0.065 0.08 0 0.07 0.08 0 0.075 0.08 0 0.08 0.08 0 0.085 0.08 0 0.09 0.08 0 0.095 0.08 0 0.1 0.08 0 0.105 0.08 0 0.11 0.08 0 0.115 0.08 0 0.12 0.08 0 0.125 0.08 0 0.13 0.08 0 0.135 0.08 0 0.14 0.08 0 0.145 0.08 0 0.15 0.08 0 0.155 0.08 0 0.16 0.08 0 0.165 0.08 0
[...]
			<PointData Scalars="VitesseX">
				<DataArray Name="VitesseX" type="Float32" format="ascii">
 0 -5.50896e-15 2.74952e-15 -1.19307e-14 -1.53331e-14 7.45113e-15 -2.06072e-14 -4.2531e-14 -1.58243e-14 5.09472e-15 4.50272e-15 -3.83052e-14 -4.49756e-14 -3.67219e-14 -9.08265e-14 -2.12742e-14 -9.11641e-14 -1.33725e-13 -4.39764e-14 -5.7705e-14 -9.31878e-14 -1.04201e-13 -2.68549e-14 -2.42785e-14 1.13861e-14 -1.79468e-14 1.09031e-13 -1.6227e-13 1.24747e-13 -1.60283e-13 -6.03272e-14 6.77454e-14 -2.7067e-13 4.16377e-14 -1.42691e-13 -1.44989e-13 -3.14187e-14 -9.4258e-14 1.26688e-14 -1.40227e-13 1.1675e-13 -1.92021e-13 1.74411e-13 2.06833e-13 2.0495e-12 1.23873e-11 7.78183e-11 4.58119e-10 2.56199e-09 1.35407e-08 6.74926e-08 3.16343e-07 1.38989e-06 5.70364e-06 2.17698e-05 7.69033e-05 0.000249964 0.000742394 0.00199861 0.00483526 0.0104313 0.0199813 0.0340628 0.052238 0.0733513 0.0962112 0.119995 0.144248 0.168741 0.19336 0.218043 0.242757 0.26748 0.292191 0.31686 0.341467 0.365992 0.39042 0.414737 0.438934 0.463005 0.486942 0.510741 0.534393 0.557889 0.581217 0.60436 0.6273 0.650009 0.672458 0.694606 0.716405 0.737795 0.758705 0.779044 0.798708 0.81757 0.835485 0.852288 0.867799 0.881839 0.894237 0.904859 0.913625 0.920535 0.925673 0.929214 0.931405 0.932546 0.932949 0.932928 0.932796 0.932563 0.932258 0.931911 0.931548 0.931192 0.93086 0.930565 0.930317 0.930134 0.930044 0.930085 0.93034 0.930935 0.931988 0.933635 0.935988 0.939232 0.942994 0.949617 0.951778 0.947923 0.941927 0.936653 0.933049 0.930821 0.929551 0.928873 0.928527 0.928352 0.928254 0.928176 0.928082 0.927929 0.927654 0.927148 0.926224 0.924556 0.921588 0.916395 0.907473 0.892498 0.868111 0.82993 0.773079 0.693505 0.59016 0.467555 0.337192 0.216889 0.122269 0.0600453 0.0261981 0.0105704 0.00409377 0.00155582 0.000586112 0.000219747 8.21071e-05 3.05845e-05 1.13567e-05 4.20273e-06 1.54955e-06 5.69023e-07 2.08042e-07 7.57035e-08 2.74076e-08 9.86824e-09 3.53295e-09 1.25697e-09 4.44092e-10 1.55749e-10 5.42745e-11 1.85853e-11 6.12968e-12 1.47074e-12 9.26124e-13 -2.18545e-13 4.92398e-13 -1.12687e-13 7.70113e-14 -3.25293e-13 3.18174e-13 1.84597e-13 4.10421e-13 -2.17045e-13 -5.76508e-13 5.14731e-14 -2.15103e-13 0 0 -4.61034e-15 -1.64365e-14 -3.88994e-15 -1.42534e-14 -2.4892e-14 -1.3681e-15 -1.46899e-14 -1.87656e-14 -1.57625e-14 -4.32241e-14 -3.47549e-14 -2.12324e-14 -3.68609e-14 -3.35266e-14 -1.0408e-13 -1.09179e-13 -9.34644e-14 -9.75088e-14 -9.25379e-14 -8.26749e-14 3.13451e-14 -4.03564e-14 -1.94153e-14 2.50905e-14 7.77784e-14 -1.21371e-13 5.65333e-14 -1.59036e-13 8.86031e-14 1.43239e-14 -1.91438e-13 -5.38108e-14 -1.76761e-13 -6.03622e-14 -4.03892e-14 -6.81297e-14 -3.56681e-14 -1.07755e-13 -8.2059e-15 -2.0919e-13 9.54963e-14 -6.0337e-14 3.76017e-13 1.90004e-12 1.26081e-11 7.76699e-11 4.58239e-10 2.56157e-09 1.35409e-08 6.74926e-08 3.16343e-07 1.38989e-06 5.70364e-06 2.17698e-05 7.69033e-05 0.000249964 0.000742394 0.00199861 0.00483526 0.0104313 0.0199813 0.0340628 0.052238 0.0733513 0.0962112 0.119995 0.144248 0.168741 0.19336 0.218043 0.242757 0.26748 0.292191 0.31686 0.341467 0.365992 0.39042 0.414737 0.438934 0.463005 0.486942 0.510741 0.534393 0.557889 0.581217 0.60436 0.6273 0.650009 0.672458 0.694606 0.716405 0.737795 0.758705 0.779044 0.798708 0.81757 0.835485 0.852288 0.867799 0.881839 0.894237 0.904859 0.913625 0.920535 0.925673 0.929214 0.931405 0.932546 0.932949 0.932928 0.932796 0.932563 0.932258 0.931911 0.931548 0.931192 0.93086 0.930565 0.930317 0.930134 0.930044 0.930085 0.93034 0.930935 0.931988 0.933635 0.935988 0.939232 0.942994 0.949617 0.951778 0.947923 0.941927 0.936653 0.933049 0.930821 0.929551 0.928873 0.928527 0.928352 0.928254 0.928176 0.928082 0.927929 0.927654 0.927148 0.926224 0.924556 0.921588 0.916395 0.907473 0.892498 0.868111 0.82993 0.773079 0.693505 0.59016 0.467555 0.337192 0.216889 0.122269 0.0600453 0.0261981 0.0105704 0.00409377 0.00155582 0.000586112 0.000219747 8.21071e-05 3.05845e-05 1.13567e-05 4.20273e-06 1.54955e-06 5.69023e-07 2.08042e-07 7.57034e-08 2.74074e-08 9.86869e-09 3.53268e-09 1.25677e-09 4.44325e-10 1.55757e-10 5.40047e-11 1.85506e-11 5.90447e-12 2.20965e-12 4.27994e-13 3.70434e-13 -1.75026e-13 3.84803e-13 -3.17556e-13 3.50313e-13 -1.6138e-13 -8.20832e-14 -2.52935e-13 1.7035e-13 5.08613e-13 -5.81256e-13 2.18107e-13 0 0 -1.88712e-15 3.9039e-16 -1.89154e-14 -2.77585e-15 -2.28504e-14 -4.64647e-14 -1.852e-14 -2.38316e-14 -3.38948e-14 -5.41096e-14 -5.5577e-14 -3.0336e-14 -4.61897e-14 -6.69665e-14 -9.30888e-14 -4.33146e-14 -1.13409e-13 -3.34536e-14 -3.43729e-14 -3.75116e-14 -4.68305e-14 -2.89598e-14 1.49036e-14 -5.78478e-14 -2.9728e-14 3.17982e-14 -2.21133e-14 5.86133e-14 -1.74481e-13 -5.92862e-14 4.81259e-15 -7.59033e-14 -6.01813e-14 -6.3545e-14 -9.94443e-14 -6.05949e-14 -8.8927e-14 -4.37409e-15 -1.55414e-13 -8.55546e-15 -1.46236e-13 1.29187e-13 3.28828e-13 1.83914e-12 1.25321e-11 7.76826e-11 4.58111e-10 2.56172e-09 1.35408e-08 6.74928e-08 3.16343e-07 1.38989e-06 5.70364e-06 2.17698e-05 7.69033e-05 0.000249964 0.000742394 0.00199861 0.00483526 0.0104313 0.0199813 0.0340628 0.052238 0.0733513 0.0962112 0.119995 0.144248 0.168741 0.19336 0.218043 0.242757 0.26748 0.292191 0.31686 0.341467 0.365992 0.39042 0.414737 0.438934 0.463005 0.486942 0.510741 0.534393 0.557889 0.581217 0.60436 0.6273 0.650009 0.672458 0.694606 0.716405 0.737795 0.758705 0.779044 0.798708 0.81757 0.835485 0.852288 0.867799 0.881839 0.894237 0.904859 0.913625 0.920535 0.925673 0.929214 0.931405 0.932546 0.932949 0.932928 0.932796 0.932563 0.932258 0.931911 0.931548 0.931192 0.93086 0.930565 0.930317 0.930134 0.930044 0.930085 0.93034 0.930935 0.931988 0.933635 0.935988 0.939232 0.942994 0.949617 0.951778 0.947923 0.941927 0.936653 0.933049 0.930821 0.929551 0.928873 0.928527 0.928352 0.928254 0.928176 0.928082 0.927929 0.927654 0.927148 0.926224 0.924556 0.921588 0.916395 0.907473 0.892498 0.868111 0.82993 0.773079 0.693505 0.59016 0.467555 0.337192 0.216889 0.122269 0.0600453 0.0261981 0.0105704 0.00409377 0.00155582 0.000586112 0.000219747 8.21071e-05 3.05845e-05 1.13567e-05 4.20273e-06 1.54955e-06 5.69023e-07 2.08042e-07 7.57035e-08 2.74075e-08 9.86879e-09 3.53294e-09 1.25686e-09 4.4402e-10 1.55693e-10 5.38661e-11 1.82021e-11 6.36265e-12 1.83169e-12 4.41424e-13 2.34348e-14 2.59985e-13 -2.69721e-13 5.47464e-13 2.55352e-13 -2.81216e-13 -1.84012e-13 -6.22585e-14 2.89081e-13 -7.5402e-13 1.31448e-13 -4.80103e-14 0 0 -5.36543e-15 -4.27512e-15 -5.15494e-15 -2.1236e-14 -1.91209e-14 -2.43981e-14 -4.46862e-14 -6.4567e-14 -4.71769e-14 -2.27536e-14 -7.33561e-14 -7.53218e-14 -4.80096e-14 -9.06953e-14 5.61172e-15 -8.38734e-14 1.41598e-14 -4.24294e-14 -4.32348e-14 -1.8744e-14 -1.46329e-13 5.79266e-14 -2.93483e-14 -1.15734e-14 -2.9673e-14 2.53582e-15 -1.53684e-13 2.62866e-14 -1.84498e-14 -6.23214e-14 -5.40815e-14 -2.04022e-14 -8.25688e-14 -1.72635e-13 -1.62704e-13 -9.84056e-14 1.58488e-15 1.01184e-14 -4.63769e-14 6.0345e-14 -1.34214e-13 1.08829e-13 1.64635e-13 1.99255e-12 1.25772e-11 7.76295e-11 4.58271e-10 2.56186e-09 1.35407e-08 6.74928e-08 3.16343e-07 1.38989e-06 5.70364e-06 2.17698e-05 7.69033e-05 0.000249964 0.000742394 0.00199861 0.00483526 0.0104313 0.0199813 0.0340628 0.052238 0.0733513 0.0962112 0.119995 0.144248 0.168741 0.19336 0.218043 0.242757 0.26748 0.292191 0.31686 0.341467 0.365992 0.39042 0.414737 0.438934 0.463005 0.486942 0.510741 0.534393 0.557889 0.581217 0.60436 0.6273 0.650009 0.672458 0.694606 0.716405 0.737795 0.758705 0.779044 0.798708 0.81757 0.835485 0.852288 0.867799 0.881839 0.894237 0.904859 0.913625 0.920535 0.925673 0.929214 0.931405 0.932546 0.932949 0.932928 0.932796 0.932563 0.932258 0.931911 0.931548 0.931192 0.93086 0.930565 0.930317 0.930134 0.930044 0.930085 0.93034 0.930935 0.931988 0.933635 0.935988 0.939232 0.942994 0.949617 0.951778 0.947923 0.941927 0.936653 0.933049 0.930821 0.929551 0.928873 0.928527 0.928352 0.928254 0.928176 0.928082 0.927929 0.927654 0.927148 0.926224 0.924556 0.921588 0.916395 0.907473 0.892498 0.868111 0.82993 0.773079 0.693505 0.59016 0.467555 0.337192 0.216889 0.122269 0.0600453 0.0261981 0.0105704 0.00409377 0.00155582 0.000586112 0.000219747 8.21071e-05 3.05845e-05 1.13567e-05 4.20273e-06 1.54955e-06 5.69023e-07 2.08042e-07 7.57036e-08 2.74076e-08 9.86862e-09 3.53281e-09 1.25708e-09 4.44104e-10 1.55823e-10 5.40791e-11 1.81582e-11 6.05601e-12 1.51123e-12 -6.37939e-14 -1.26393e-13 -1.08695e-13 -3.03408e-14 1.60308e-13 -2.09678e-13 7.05928e-13 -1.48299e-13 8.62537e-14 -1.06356e-14 -3.0497e-13 -1.01419e-13 -5.6861e-13 0 0 -6.49715e-15 -2.62954e-14 -1.41615e-15 -2.55577e-14 -3.70359e-14 -1.73228e-16 -3.18648e-14 -4.62255e-14 -5.78538e-14 -6.28444e-14 -5.41981e-14 -4.71143e-14 -5.43763e-14 -2.79727e-14 -3.85096e-14 -8.41878e-14 1.8389e-14 -3.77303e-14 -9.1876e-14 -7.19211e-14 -2.63712e-14 3.15061e-14 -9.58306e-14 2.26273e-14 6.41797e-14 -1.81324e-13 -5.22202e-14 -2.14682e-13 1.56193e-13 -1.90314e-14 -2.24336e-13 -2.04568e-14 -1.90514e-13 -6.99256e-14 -3.77051e-14 -5.49123e-14 2.42362e-14 -1.2654e-13 7.00816e-14 -1.10143e-13 5.64801e-14 -1.26653e-13 3.88854e-13 2.01041e-12 1.26647e-11 7.7701e-11 4.5831e-10 2.56174e-09 1.3541e-08 6.74927e-08 3.16343e-07 1.38989e-06 5.70364e-06 2.17698e-05 7.69033e-05 0.000249964 0.000742394 0.00199861 0.00483526 0.0104313 0.0199813 0.0340628 0.052238 0.0733513 0.0962112 0.119995 0.144248 0.168741 0.19336 0.218043 0.242757 0.26748 0.292191 0.31686 0.341467 0.365992 0.39042 0.414737 0.438934 0.463005 0.486942 0.510741 0.534393 0.557889 0.581217 0.60436 0.6273 0.650009 0.672458 0.694606 0.716405 0.737795 0.758705 0.779044 0.798708 0.81757 0.835485 0.852288 0.867799 0.881839 0.894237 0.904859 0.913625 0.920535 0.925673 0.929214 0.931405 0.932546 0.932949 0.932928 0.932796 0.932563 0.932258 0.931911 0.931548 0.931192 0.93086 0.930565 0.930317 0.930134 0.930044 0.930085 0.93034 0.930935 0.931988 0.933635 0.935988 0.939232 0.942994 0.949617 0.951778 0.947923 0.941927 0.936653 0.933049 0.930821 0.929551 0.928873 0.928527 0.928352 0.928254 0.928176 0.928082 0.927929 0.927654 0.927148 0.926224 0.924556 0.921588 0.916395 0.907473 0.892498 0.868111 0.82993 0.773079 0.693505 0.59016 0.467555 0.337192 0.216889 0.122269 0.0600453 0.0261981 0.0105704 0.00409377 0.00155582 0.000586112 0.000219747 8.21071e-05 3.05845e-05 1.13567e-05 4.20273e-06 1.54955e-06 5.69023e-07 2.08042e-07 7.57033e-08 2.74077e-08 9.86867e-09 3.5328e-09 1.25678e-09 4.4422e-10 1.55807e-10 5.4188e-11 1.86292e-11 5.86359e-12 9.96462e-13 2.92281e-14 2.07192e-13 -6.75803e-13 2.85311e-13 -2.04928e-13 -4.44766e-14 -7.28027e-15 7.68902e-14 -1.57193e-13 -1.508e-13 8.74033e-13 -4.13668e-13 -7.3069e-14 0 0 -2.32593e-15 -7.63724e-15 -3.45041e-14 -1.02128e-15 -2.42956e-14 -6.23505e-14 -2.45485e-14 1.07266e-14 -5.25239e-14 -9.74498e-14 -4.16334e-14 -6.76782e-15 -6.81128e-14 -3.2261e-14 -8.75347e-14 3.99354e-14 -1.65156e-13 9.35323e-14 -3.86574e-14 -1.09215e-13 -2.06369e-14 -5.69027e-14 -8.86053e-14 -8.6089e-14 -4.52543e-14 4.76487e-14 -1.16635e-13 7.81088e-14 -3.37167e-13 -1.20967e-13 1.19738e-13 -3.14964e-13 5.89052e-14 5.63627e-14 -1.31022e-14 7.06374e-14 -1.55473e-13 -5.3887e-14 -2.01727e-13 1.77044e-13 -2.94097e-13 8.24951e-14 5.60891e-13 1.96343e-12 1.24103e-11 7.79868e-11 4.5794e-10 2.56205e-09 1.35408e-08 6.74928e-08 3.16343e-07 1.38989e-06 5.70364e-06 2.17698e-05 7.69033e-05 0.000249964 0.000742394 0.00199861 0.00483526 0.0104313 0.0199813 0.0340628 0.052238 0.0733513 0.0962112 0.119995 0.144248 0.168741 0.19336 0.218043 0.242757 0.26748 0.292191 0.31686 0.341467 0.365992 0.39042 0.414737 0.438934 0.463005 0.486942 0.510741 0.534393 0.557889 0.581217 0.60436 0.6273 0.650009 0.672458 0.694606 0.716405 0.737795 0.758705 0.779044 0.798708 0.81757 0.835485 0.852288 0.867799 0.881839 0.894237 0.904859 0.913625 0.920535 0.925673 0.929214 0.931405 0.932546 0.932949 0.932928 0.932796 0.932563 0.932258 0.931911 0.931548 0.931192 0.93086 0.930565 0.930317 0.930134 0.930044 0.930085 0.93034 0.930935 0.931988 0.933635 0.935988 0.939232 0.942994 0.949617 0.951778 0.947923 0.941927 0.936653 0.933049 0.930821 0.929551 0.928873 0.928527 0.928352 0.928254 0.928176 0.928082 0.927929 0.927654 0.927148 0.926224 0.924556 0.921588 0.916395 0.907473 0.892498 0.868111 0.82993 0.773079 0.693505 0.59016 0.467555 0.337192 0.216889 0.122269 0.0600453 0.0261981 0.0105704 0.00409377 0.00155582 0.000586112 0.000219747 8.21071e-05 3.05845e-05 1.13567e-05 4.20273e-06 1.54955e-06 5.69022e-07 2.08042e-07 7.57031e-08 2.74081e-08 9.86854e-09 3.53347e-09 1.25656e-09 4.43716e-10 1.5559e-10 5.42151e-11 1.88302e-11 6.6612e-12 -3.14723e-13 1.13903e-12 -2.45374e-13 2.28202e-13 -7.90432e-13 1.07658e-12 -1.84814e-13 -1.34791e-12 4.31118e-13 3.04882e-13 -2.59914e-13 -7.43769e-13 8.52384e-13 2.43744e-13 0
				</DataArray>
				<DataArray Name="VitesseY" type="Float32" format="ascii">