<?xml version="1.0"?>
<VTKFile type="PolyData">
	<PolyData>
		<Piece NumberOfPoints="1206" NumberOfPolys="1000">
			<Points>
				<DataArray type="Float32" NumberOfComponents="3" format="ascii">
 0 0 0 0.005 0 0 0.01 0 0 0.015 0 0 0.02 0 0 0.025 0 0 0.03 0 0 0.035 0 0 0.04 0 0 0.045 0 0 0.05 0 0 0.055 0 0 0.06 0 0 0.065 0 0 0.07 0 0 0.075 0 0 0.08 0 0 0.085 0 0 0.09 0 0 0.095 0 0 0.1 0 0 0.105 0 0 0.11 0 0 0.115 0 0 0.12 0 0 0.125 0 0 0.13 0 0 0.135 0 0 0.14 0 0 0.145 0 0 0.15 0 0 0.155 0 0 0.16 0 0 0.165 0 0 0.17 0 0 0.175 0 0 0.18 0 0 0.185 0 0 0.19 0 0 0.195 0 0 0.2 0 0 0.205 0 0 0.21 0 0 0.215 0 0 0.22 0 0 0.225 0 0 0.23 0 0 0.235 0 0 0.24 0 0 0.245 0 0 0.25 0 0 0.255 0 0 0.26 0 0 0.265 0 0 0.27 0 0 0.275 0 0 0.28 0 0 0.285 0 0 0.29 0 0 0.295 0 0 0.3 0 0 0.305 0 0 0.31 0 0 0.315 0 0 0.32 0 0 0.325 0 0 0.33 0 0 0.335 0 0 0.34 0 0 0.345 0 0 0.35 0 0 0.355 0 0 0.36 0 0 0.365 0 0 0.37 0 0 0.375 0 0 0.38 0 0 0.385 0 0 0.39 0 0 0.395 0 0 0.4 0 0 0.405 0 0 0.41 0 0 0.415 0 0 0.42 0 0 0.425 0 0 0.43 0 0 0.435 0 0 0.44 0 0 0.445 0 0 0.45 0 0 0.455 0 0 0.46 0 0 0.465 0 0 0.47 0 0 0.475 0 0 0.48 0 0 0.485 0 0 0.49 0 0 0.495 0 0 0.5 0 0 0.505 0 0 0.51 0 0 0.515 0 0 0.52 0 0 0.525 0 0 0.53 0 0 0.535 0 0 0.54 0 0 0.545 0 0 0.55 0 0 0.555 0 0 0.56 0 0 0.565 0 0 0.57 0 0 0.575 0 0 0.58 0 0 0.585 0 0 0.59 0 0 0.595 0 0 0.6 0 0 0.605 0 0 0.61 0 0 0.615 0 0 0.62 0 0 0.625 0 0 0.63 0 0 0.635 0 0 0.64 0 0 0.645 0 0 0.65 0 0 0.655 0 0 0.66 0 0 0.665 0 0 0.67 0 0 0.675 0 0 0.68 0 0 0.685 0 0 0.69 0 0 0.695 0 0 0.7 0 0 0.705 0 0 0.71 0 0 0.715 0 0 0.72 0 0 0.725 0 0 0.73 0 0 0.735 0 0 0.74 0 0 0.745 0 0 0.75 0 0 0.755 0 0 0.76 0 0 0.765 0 0 0.77 0 0 0.775 0 0 0.78 0 0 0.785 0 0 0.79 0 0 0.795 0 0 0.8 0 0 0.805 0 0 0.81 0 0 0.815 0 0 0.82 0 0 0.825 0 0 0.83 0 0 0.835 0 0 0.84 0 0 0.845 0 0 0.85 0 0 0.855 0 0 0.86 0 0 0.865 0 0 0.87 0 0 0.875 0 0 0.88 0 0 0.885 0 0 0.89 0 0 0.895 0 0 0.9 0 0 0.905 0 0 0.91 0 0 0.915 0 0 0.92 0 0 0.925 0 0 0.93 0 0 0.935 0 0 0.94 0 0 0.945 0 0 0.95 0 0 0.955 0 0 0.96 0 0 0.965 0 0 0.97 0 0 0.975 0 0 0.98 0 0 0.985 0 0 0.99 0 0 0.995 0 0 1 0 0 0 0.02 0 0.005 0.02 0 0.01 0.02 0 0.015 0.02 0 0.02 0.02 0 0.025 0.02 0 0.03 0.02 0 0.035 0.02 0 0.04 0.02 0 0.045 0.02 0 0.05 0.02 0 0.055 0.02 0 0.06 0.02 0 0.065 0.02 0 0.07 0.02 0 0.075 0.02 0 0.08 0.02 0 0.085 0.02 0 0.09 0.02 0 0.095 0.02 0 0.1 0.02 0 0.105 0.02 0 0.11 0.02 0 0.115 0.02 0 0.12 0.02 0 0.125 0.02 0 0.13 0.02 0 0.135 0.02 0 0.14 0.02 0 0.145 0.02 0 0.15 0.02 0 0.155 0.02 0 0.16 0.02 0 0.165 0.02 0 0.17 0.02 0 0.175 0.02 0 0.18 0.02 0 0.185 0.02 0 0.19 0.02 0 0.195 0.02 0 0.2 0.02 0 0.205 0.02 0 0.21 0.02 0 0.215 0.02 0 0.22 0.02 0 0.225 0.02 0 0.23 0.02 0 0.235 0.02 0 0.24 0.02 0 0.245 0.02 0 0.25 0.02 0 0.255 0.02 0 0.26 0.02 0 0.265 0.02 0 0.27 0.02 0 0.275 0.02 0 0.28 0.02 0 0.285 0.02 0 0.29 0.02 0 0.295 0.02 0 0.3 0.02 0 0.305 0.02 0 0.31 0.02 0 0.315 0.02 0 0.32 0.02 0 0.325 0.02 0 0.33 0.02 0 0.335 0.02 0 0.34 0.02 0 0.345 0.02 0 0.35 0.02 0 0.355 0.02 0 0.36 0.02 0 0.365 0.02 0 0.37 0.02 0 0.375 0.02 0 0.38 0.02 0 0.385 0.02 0 0.39 0.02 0 0.395 0.02 0 0.4 0.02 0 0.405 0.02 0 0.41 0.02 0 0.415 0.02 0 0.42 0.02 0 0.425 0.02 0 0.43 0.02 0 0.435 0.02 0 0.44 0.02 0 0.445 0.02 0 0.45 0.02 0 0.455 0.02 0 0.46 0.02 0 0.465 0.02 0 0.47 0.02 0 0.475 0.02 0 0.48 0.02 0 0.485 0.02 0 0.49 0.02 0 0.495 0.02 0 0.5 0.02 0 0.505 0.02 0 0.51 0.02 0 0.515 0.02 0 0.52 0.02 0 0.525 0.02 0 0.53 0.02 0 0.535 0.02 0 0.54 0.02 0 0.545 0.02 0 0.55 0.02 0 0.555 0.02 0 0.56 0.02 0 0.565 0.02 0 0.57 0.02 0 0.575 0.02 0 0.58 0.02 0 0.585 0.02 0 0.59 0.02 0 0.595 0.02 0 0.6 0.02 0 0.605 0.02 0 0.61 0.02 0 0.615 0.02 0 0.62 0.02 0 0.625 0.02 0 0.63 0.02 0 0.635 0.02 0 0.64 0.02 0 0.645 0.02 0 0.65 0.02 0 0.655 0.02 0 0.66 0.02 0 0.665 0.02 0 0.67 0.02 0 0.675 0.02 0 0.68 0.02 0 0.685 0.02 0 0.69 0.02 0 0.695 0.02 0 0.7 0.02 0 0.705 0.02 0 0.71 0.02 0 0.715 0.02 0 0.72 0.02 0 0.725 0.02 0 0.73 0.02 0 0.735 0.02 0 0.74 0.02 0 0.745 0.02 0 0.75 0.02 0 0.755 0.02 0 0.76 0.02 0 0.765 0.02 0 0.77 0.02 0 0.775 0.02 0 0.78 0.02 0 0.785 0.02 0 0.79 0.02 0 0.795 0.02 0 0.8 0.02 0 0.805 0.02 0 0.81 0.02 0 0.815 0.02 0 0.82 0.02 0 0.825 0.02 0 0.83 0.02 0 0.835 0.02 0 0.84 0.02 0 0.845 0.02 0 0.85 0.02 0 0.855 0.02 0 0.86 0.02 0 0.865 0.02 0 0.87 0.02 0 0.875 0.02 0 0.88 0.02 0 0.885 0.02 0 0.89 0.02 0 0.895 0.02 0 0.9 0.02 0 0.905 0.02 0 0.91 0.02 0 0.915 0.02 0 0.92 0.02 0 0.925 0.02 0 0.93 0.02 0 0.935 0.02 0 0.94 0.02 0 0.945 0.02 0 0.95 0.02 0 0.955 0.02 0 0.96 0.02 0 0.965 0.02 0 0.97 0.02 0 0.975 0.02 0 0.98 0.02 0 0.985 0.02 0 0.99 0.02 0 0.995 0.02 0 1 0.02 0 0 0.04 0 0.005 0.04 0 0.01 0.04 0 0.015 0.04 0 0.02 0.04 0 0.025 0.04 0 0.03 0.04 0 0.035 0.04 0 0.04 0.04 0 0.045 0.04 0 0.05 0.04 0 0.055 0.04 0 0.06 0.04 0 0.065 0.04 0 0.07 0.04 0 0.075 0.04 0 0.08 0.04 0 0.085 0.04 0 0.09 0.04 0 0.095 0.04 0 0.1 0.04 0 0.105 0.04 0 0.11 0.04 0 0.115 0.04 0 0.12 0.04 0 0.125 0.04 0 0.13 0.04 0 0.135 0.04 0 0.14 0.04 0 0.145 0.04 0 0.15 0.04 0 0.155 0.04 0 0.16 0.04 0 0.165 0.04 0 0.17 0.04 0 0.175 0.04 0 0.18 0.04 0 0.185 0.04 0 0.19 0.04 0 0.195 0.04 0 0.2 0.04 0 0.205 0.04 0 0.21 0.04 0 0.215 0.04 0 0.22 0.04 0 0.225 0.04 0 0.23 0.04 0 0.235 0.04 0 0.24 0.04 0 0.245 0.04 0 0.25 0.04 0 0.255 0.04 0 0.26 0.04 0 0.265 0.04 0 0.27 0.04 0 0.275 0.04 0 0.28 0.04 0 0.285 0.04 0 0.29 0.04 0 0.295 0.04 0 0.3 0.04 0 0.305 0.04 0 0.31 0.04 0 0.315 0.04 0 0.32 0.04 0 0.325 0.04 0 0.33 0.04 0 0.335 0.04 0 0.34 0.04 0 0.345 0.04 0 0.35 0.04 0 0.355 0.04 0 0.36 0.04 0 0.365 0.04 0 0.37 0.04 0 0.375 0.04 0 0.38 0.04 0 0.385 0.04 0 0.39 0.04 0 0.395 0.04 0 0.4 0.04 0 0.405 0.04 0 0.41 0.04 0 0.415 0.04 0 0.42 0.04 0 0.425 0.04 0 0.43 0.04 0 0.435 0.04 0 0.44 0.04 0 0.445 0.04 0 0.45 0.04 0 0.455 0.04 0 0.46 0.04 0 0.465 0.04 0 0.47 0.04 0 0.475 0.04 0 0.48 0.04 0 0.485 0.04 0 0.49 0.04 0 0.495 0.04 0 0.5 0.04 0 0.505 0.04 0 0.51 0.04 0 0.515 0.04 0 0.52 0.04 0 0.525 0.04 0 0.53 0.04 0 0.535 0.04 0 0.54 0.04 0 0.545 0.04 0 0.55 0.04 0 0.555 0.04 0 0.56 0.04 0 0.565 0.04 0 0.57 0.04 0 0.575 0.04 0 0.58 0.04 0 0.585 0.04 0 0.59 0.04 0 0.595 0.04 0 0.6 0.04 0 0.605 0.04 0 0.61 0.04 0 0.615 0.04 0 0.62 0.04 0 0.625 0.04 0 0.63 0.04 0 0.635 0.04 0 0.64 0.04 0 0.645 0.04 0 0.65 0.04 0 0.655 0.04 0 0.66 0.04 0 0.665 0.04 0 0.67 0.04 0 0.675 0.04 0 0.68 0.04 0 0.685 0.04 0 0.69 0.04 0 0.695 0.04 0 0.7 0.04 0 0.705 0.04 0 0.71 0.04 0 0.715 0.04 0 0.72 0.04 0 0.725 0.04 0 0.73 0.04 0 0.735 0.04 0 0.74 0.04 0 0.745 0.04 0 0.75 0.04 0 0.755 0.04 0 0.76 0.04 0 0.765 0.04 0 0.77 0.04 0 0.775 0.04 0 0.78 0.04 0 0.785 0.04 0 0.79 0.04 0 0.795 0.04 0 0.8 0.04 0 0.805 0.04 0 0.81 0.04 0 0.815 0.04 0 0.82 0.04 0 0.825 0.04 0 0.83 0.04 0 0.835 0.04 0 0.84 0.04 0 0.845 0.04 0 0.85 0.04 0 0.855 0.04 0 0.86 0.04 0 0.865 0.04 0 0.87 0.04 0 0.875 0.04 0 0.88 0.04 0 0.885 0.04 0 0.89 0.04 0 0.895 0.04 0 0.9 0.04 0 0.905 0.04 0 0.91 0.04 0 0.915 0.04 0 0.92 0.04 0 0.925 0.04 0 0.93 0.04 0 0.935 0.04 0 0.94 0.04 0 0.945 0.04 0 0.95 0.04 0 0.955 0.04 0 0.96 0.04 0 0.965 0.04 0 0.97 0.04 0 0.975 0.04 0 0.98 0.04 0 0.985 0.04 0 0.99 0.04 0 0.995 0.04 0 1 0.04 0 0 0.06 0 0.005 0.06 0 0.01 0.06 0 0.015 0.06 0 0.02 0.06 0 0.025 0.06 0 0.03 0.06 0 0.035 0.06 0 0.04 0.06 0 0.045 0.06 0 0.05 0.06 0 0.055 0.06 0 0.06 0.06 0 0.065 0.06 0 0.07 0.06 0 0.075 0.06 0 0.08 0.06 0 0.085 0.06 0 0.09 0.06 0 0.095 0.06 0 0.1 0.06 0 0.105 0.06 0 0.11 0.06 0 0.115 0.06 0 0.12 0.06 0 0.125 0.06 0 0.13 0.06 0 0.135 0.06 0 0.14 0.06 0 0.145 0.06 0 0.15 0.06 0 0.155 0.06 0 0.16 0.06 0 0.165 0.06 0 0.17 0.06 0 0.175 0.06 0 0.18 0.06 0 0.185 0.06 0 0.19 0.06 0 0.195 0.06 0 0.2 0.06 0 0.205 0.06 0 0.21 0.06 0 0.215 0.06 0 0.22 0.06 0 0.225 0.06 0 0.23 0.06 0 0.235 0.06 0 0.24 0.06 0 0.245 0.06 0 0.25 0.06 0 0.255 0.06 0 0.26 0.06 0 0.265 0.06 0 0.27 0.06 0 0.275 0.06 0 0.28 0.06 0 0.285 0.06 0 0.29 0.06 0 0.295 0.06 0 0.3 0.06 0 0.305 0.06 0 0.31 0.06 0 0.315 0.06 0 0.32 0.06 0 0.325 0.06 0 0.33 0.06 0 0.335 0.06 0 0.34 0.06 0 0.345 0.06 0 0.35 0.06 0 0.355 0.06 0 0.36 0.06 0 0.365 0.06 0 0.37 0.06 0 0.375 0.06 0 0.38 0.06 0 0.385 0.06 0 0.39 0.06 0 0.395 0.06 0 0.4 0.06 0 0.405 0.06 0 0.41 0.06 0 0.415 0.06 0 0.42 0.06 0 0.425 0.06 0 0.43 0.06 0 0.435 0.06 0 0.44 0.06 0 0.445 0.06 0 0.45 0.06 0 0.455 0.06 0 0.46 0.06 0 0.465 0.06 0 0.47 0.06 0 0.475 0.06 0 0.48 0.06 0 0.485 0.06 0 0.49 0.06 0 0.495 0.06 0 0.5 0.06 0 0.505 0.06 0 0.51 0.06 0 0.515 0.06 0 0.52 0.06 0 0.525 0.06 0 0.53 0.06 0 0.535 0.06 0 0.54 0.06 0 0.545 0.06 0 0.55 0.06 0 0.555 0.06 0 0.56 0.06 0 0.565 0.06 0 0.57 0.06 0 0.575 0.06 0 0.58 0.06 0 0.585 0.06 0 0.59 0.06 0 0.595 0.06 0 0.6 0.06 0 0.605 0.06 0 0.61 0.06 0 0.615 0.06 0 0.62 0.06 0 0.625 0.06 0 0.63 0.06 0 0.635 0.06 0 0.64 0.06 0 0.645 0.06 0 0.65 0.06 0 0.655 0.06 0 0.66 0.06 0 0.665 0.06 0 0.67 0.06 0 0.675 0.06 0 0.68 0.06 0 0.685 0.06 0 0.69 0.06 0 0.695 0.06 0 0.7 0.06 0 0.705 0.06 0 0.71 0.06 0 0.715 0.06 0 0.72 0.06 0 0.725 0.06 0 0.73 0.06 0 0.735 0.06 0 0.74 0.06 0 0.745 0.06 0 0.75 0.06 0 0.755 0.06 0 0.76 0.06 0 0.765 0.06 0 0.77 0.06 0 0.775 0.06 0 0.78 0.06 0 0.785 0.06 0 0.79 0.06 0 0.795 0.06 0 0.8 0.06 0 0.805 0.06 0 0.81 0.06 0 0.815 0.06 0 0.82 0.06 0 0.825 0.06 0 0.83 0.06 0 0.835 0.06 0 0.84 0.06 0 0.845 0.06 0 0.85 0.06 0 0.855 0.06 0 0.86 0.06 0 0.865 0.06 0 0.87 0.06 0 0.875 0.06 0 0.88 0.06 0 0.885 0.06 0 0.89 0.06 0 0.895 0.06 0 0.9 0.06 0 0.905 0.06 0 0.91 0.06 0 0.915 0.06 0 0.92 0.06 0 0.925 0.06 0 0.93 0.06 0 0.935 0.06 0 0.94 0.06 0 0.945 0.06 0 0.95 0.06 0 0.955 0.06 0 0.96 0.06 0 0.965 0.06 0 0.97 0.06 0 0.975 0.06 0 0.98 0.06 0 0.985 0.06 0 0.99 0.06 0 0.995 0.06 0 1 0.06 0 0 0.08 0 0.005 0.08 0 0.01 0.08 0 0.015 0.08 0 0.02 0.08 0 0.025 0.08 0 0.03 0.08 0 0.035 0.08 0 0.04 0.08 0 0.045 0.08 0 0.05 0.08 0 0.055 0.08 0 0.06 0.08 0 0.065 0.08 0 0.07 0.08 0 0.075 0.08 0 0.08 0.08 0 0.085 0.08 0 0.09 0.08 0 0.095 0.08 0 0.1 0.08 0 0.105 0.08 0 0.11 0.08 0 0.115 0.08 0 0.12 0.08 0 0.125 0.08 0 0.13 0.08 0 0.135 0.08 0 0.14 0.08 0 0.145 0.08 0 0.15 0.08 0 0.155 0.08 0 0.16 0.08 0 0.165 0.08 0
[...]
			<PointData Scalars="VitesseX">
				<DataArray Name="VitesseX" type="Float32" format="ascii">
 0 -5.45129e-15 6.1504e-14 -1.87713e-13 9.74875e-14 1.96419e-14 -7.91398e-14 -9.44971e-14 7.63481e-14 -6.76142e-14 -1.45931e-13 3.26786e-13 -5.99928e-13 5.98021e-13 -4.01603e-13 -2.76357e-14 2.88896e-13 -4.13657e-13 3.77696e-13 -3.20322e-13 2.26815e-14 1.07886e-13 1.93803e-13 1.94452e-14 -4.18255e-13 -1.9581e-13 2.77217e-13 -3.21535e-13 1.02088e-13 -3.09664e-13 5.62855e-13 -3.98479e-13 3.90024e-13 1.10762e-15 -5.89548e-13 4.39363e-13 -6.03575e-13 8.58924e-13 -8.70985e-13 5.81406e-13 -4.54211e-13 4.43953e-13 -3.90176e-15 -6.03818e-13 -1.59724e-13 8.8125e-13 -1.23707e-12 1.36757e-12 -7.4478e-13 1.50823e-13 2.04775e-14 -4.97477e-14 1.57718e-12 -2.41011e-12 6.94677e-13 -2.97839e-13 -1.25302e-12 1.98383e-12 -2.29404e-12 1.09771e-12 7.94525e-13 6.01924e-13 4.483e-14 -8.76232e-13 7.78103e-13 5.92677e-14 -1.83598e-13 -3.84117e-13 -1.86672e-12 1.09385e-12 1.09362e-12 -2.28847e-12 1.52245e-12 -9.01094e-13 2.59942e-12 -1.01707e-12 -5.66472e-13 9.19936e-13 -1.33947e-12 1.83629e-12 -2.39501e-12 4.6084e-13 1.13939e-12 -2.17615e-12 4.36038e-13 1.93771e-12 -8.56879e-13 -3.15348e-13 7.94579e-13 -1.42923e-12 3.09217e-12 6.74529e-11 4.27123e-09 2.06808e-07 7.54084e-06 0.000197354 0.00345119 0.0360299 0.192022 0.4831 0.643953 0.914294 0.898706 0.732885 0.501395 0.279094 0.115033 0.0317549 0.00618318 0.000986844 0.000139571 1.78897e-05 2.09493e-06 2.2525e-07 2.2328e-08 2.04715e-09 1.72997e-10 1.30739e-11 3.66027e-12 -1.60684e-12 2.77644e-12 -1.62982e-12 -5.34551e-13 2.27252e-12 -2.64378e-12 2.40351e-12 -1.43456e-12 -7.3596e-13 2.22215e-12 -2.42046e-12 2.34193e-12 -1.23552e-12 -6.49401e-13 2.04342e-12 -2.38926e-12 2.15284e-12 -1.55971e-12 -1.06526e-12 7.07789e-13 -2.28616e-12 1.87571e-12 9.49457e-15 -2.67764e-12 3.42654e-12 1.01873e-12 -1.8013e-12 2.68008e-12 -3.5635e-12 2.79749e-12 2.63562e-13 -1.99672e-12 2.47617e-12 -3.40052e-12 3.23335e-12 -2.46112e-12 2.384e-12 -2.12744e-12 -2.00836e-13 1.17764e-12 -4.29133e-13 1.19428e-12 -1.67676e-12 2.00891e-13 6.05809e-13 -1.09913e-12 -1.31371e-13 -6.33417e-13 3.32473e-13 2.05483e-12 -2.10036e-12 1.87677e-12 1.53995e-13 -2.00001e-12 2.82076e-12 -2.50983e-12 1.814e-12 -3.0576e-13 -1.63723e-12 2.48146e-12 -2.44816e-12 1.59496e-12 4.07192e-13 -2.24899e-12 2.88731e-12 -2.74936e-12 1.94314e-12 -8.98563e-14 -2.64386e-12 1.71969e-12 -4.08546e-12 1.25522e-12 3.53774e-12 -7.37779e-12 5.04784e-12 3.74949e-13 1.05769e-12 1.97347e-12 -4.75997e-12 4.29701e-12 -1.25946e-12 0 0 -2.2681e-15 -4.45575e-14 4.96116e-14 -1.36604e-13 -2.31514e-15 3.14608e-14 2.32284e-14 -1.23364e-13 -1.33505e-13 1.44375e-13 -1.39108e-13 1.93496e-13 -4.31541e-13 3.20316e-13 -1.42688e-13 -3.06791e-13 4.0328e-13 -3.65717e-13 2.52247e-13 9.98715e-14 -7.82058e-14 -1.36002e-13 8.59266e-14 2.09194e-13 -8.21662e-14 -5.84982e-13 -5.0528e-14 2.53474e-13 7.4666e-14 -2.3625e-13 4.20158e-13 -3.64571e-13 -1.54286e-13 3.88308e-13 -1.39043e-13 2.82773e-14 -7.75717e-13 7.93196e-13 -3.78355e-13 3.49725e-13 -8.56396e-14 -4.02936e-13 2.04245e-13 1.73441e-13 -6.04789e-13 5.50231e-13 -5.61535e-13 6.0332e-13 2.47886e-14 1.24738e-13 8.31355e-14 -8.59457e-13 8.84461e-13 -1.1895e-12 -5.11832e-13 8.20535e-13 -4.72091e-13 4.48151e-13 -6.89049e-13 4.55266e-13 6.48582e-13 1.75988e-13 2.9098e-13 -5.19296e-13 8.94309e-15 8.06675e-14 -7.1196e-13 -2.13529e-14 -4.67569e-13 -1.93801e-13 7.04249e-13 -7.0662e-13 1.29388e-12 -7.10353e-13 8.41567e-13 9.00134e-14 -6.3286e-13 6.64678e-13 -1.42036e-12 1.09502e-12 -9.98503e-13 -9.18728e-13 1.51925e-12 -1.44026e-13 -1.25424e-12 1.04248e-12 6.93632e-13 -3.31648e-13 6.80973e-13 -5.17798e-13 6.98016e-11 4.2713e-09 2.06808e-07 7.54084e-06 0.000197354 0.00345119 0.0360299 0.192022 0.4831 0.643953 0.914294 0.898706 0.732885 0.501395 0.279094 0.115033 0.0317549 0.00618318 0.000986844 0.000139571 1.78897e-05 2.09493e-06 2.2525e-07 2.23258e-08 2.04763e-09 1.74358e-10 1.44271e-11 8.8055e-14 1.85513e-12 -1.44617e-12 1.63745e-12 2.00304e-13 -1.45938e-12 1.2337e-12 -1.54713e-12 1.4225e-12 6.09088e-13 -1.85536e-12 1.36938e-12 -1.40267e-12 1.45849e-12 3.37119e-13 -1.5356e-12 1.34081e-12 -1.57417e-12 1.19785e-12 -2.35449e-13 -2.37027e-12 3.86559e-13 2.70944e-14 -9.44034e-13 2.71007e-12 -1.04577e-12 -2.8557e-13 1.58386e-12 -1.25089e-12 2.67884e-12 -1.8809e-12 -5.87554e-13 1.2871e-12 -1.14032e-12 2.45716e-12 -2.51181e-12 1.08024e-12 -1.37885e-12 1.2896e-12 5.10887e-14 -1.18596e-12 1.7933e-13 -1.58783e-13 2.20579e-12 -7.21312e-13 -1.8711e-12 -7.56201e-13 1.40045e-14 1.86152e-12 -3.08419e-13 -9.3398e-13 2.18974e-12 -1.72716e-12 -3.70304e-13 1.94421e-12 -1.52946e-12 1.89733e-12 -1.82433e-12 -6.64754e-14 1.53067e-12 -1.31053e-12 1.51597e-12 -1.50438e-12 -5.69449e-13 2.07168e-12 -1.8154e-12 2.01536e-12 -2.0088e-12 -3.21856e-13 1.3264e-12 -2.52516e-12 9.87603e-13 -2.47031e-12 3.24926e-13 3.43274e-12 -3.15003e-12 3.36252e-13 8.28745e-13 4.01964e-13 4.28966e-12 -3.84945e-12 -3.21776e-13 0 0 3.67139e-15 -1.67772e-14 -6.95814e-15 -2.95536e-14 -1.21051e-13 -1.05964e-13 9.14979e-14 -6.89276e-14 -7.76339e-15 -6.92808e-14 -1.39114e-14 -6.486e-14 -1.30457e-13 -1.36561e-14 -1.59842e-13 2.20563e-14 1.99258e-13 -6.53422e-14 -9.63165e-14 7.49829e-14 -5.47665e-14 2.14839e-13 -8.52608e-14 -1.82981e-13 -5.4658e-14 -2.5589e-14 1.93324e-14 -1.43646e-14 -2.27424e-13 -1.56548e-14 1.61514e-13 6.63881e-14 -1.03366e-13 -2.82986e-13 -7.09197e-15 1.08196e-13 9.94737e-14 -7.68819e-14 -1.73683e-13 2.93163e-14 1.01236e-13 -1.44302e-13 -2.93466e-13 1.66459e-13 1.60903e-13 2.0123e-13 -2.50634e-13 -2.42661e-13 -2.69528e-13 -1.07917e-13 4.45922e-13 2.43096e-13 -2.67165e-13 -1.33534e-12 -3.57416e-13 8.79455e-13 1.20692e-13 -4.32166e-14 -5.13201e-13 5.04918e-13 5.42965e-13 -5.40569e-14 2.4467e-13 -1.64181e-13 1.87892e-13 6.2994e-14 -7.36963e-13 -2.89216e-13 -1.46634e-13 -4.61966e-14 -1.78684e-13 -7.98332e-13 1.00076e-12 6.74068e-13 -2.98408e-13 -4.04631e-13 -3.09658e-13 7.49098e-13 -3.09628e-13 -7.84013e-13 4.18929e-13 -2.15806e-13 1.75661e-13 -1.08376e-12 1.14209e-12 6.13654e-13 -4.52754e-13 3.58205e-13 2.17856e-13 1.89344e-12 6.87084e-11 4.26966e-09 2.06809e-07 7.54084e-06 0.000197354 0.00345119 0.0360299 0.192022 0.4831 0.643953 0.914294 0.898706 0.732885 0.501395 0.279094 0.115033 0.0317549 0.00618318 0.000986844 0.000139571 1.78897e-05 2.09493e-06 2.2525e-07 2.23275e-08 2.04655e-09 1.73268e-10 1.4521e-11 1.47171e-12 -5.15826e-14 4.12142e-13 -9.40594e-13 1.43206e-12 2.72638e-14 -6.30649e-13 8.50907e-14 -1.12077e-12 1.40945e-12 -8.75861e-14 -4.0521e-13 1.90554e-13 -1.06277e-12 1.48092e-12 1.19944e-13 -3.72841e-13 1.06555e-13 -1.17286e-12 8.41196e-13 -7.72585e-13 -1.21771e-12 5.59208e-13 1.16826e-13 -2.57363e-14 4.4951e-13 6.21826e-13 -7.52312e-13 4.84558e-13 5.83203e-13 -3.56825e-13 7.55155e-13 -1.36282e-12 6.19841e-13 7.67251e-13 -6.89411e-13 -2.21574e-13 5.56332e-13 -1.1038e-12 1.36507e-12 1.01309e-14 6.85279e-13 -6.05953e-13 -2.09647e-12 8.07491e-13 5.49761e-13 3.70185e-14 -6.08333e-13 -1.19619e-12 5.45756e-13 2.75078e-13 1.11684e-13 6.09635e-13 1.93903e-13 1.21939e-13 -4.91782e-13 -4.96355e-13 1.30421e-12 -2.78448e-13 3.5007e-13 -9.69065e-13 -2.03806e-13 7.52278e-13 3.15087e-13 -1.30713e-13 -8.77384e-13 -7.37508e-14 9.04213e-13 -3.44224e-13 -1.57525e-13 -1.96437e-12 -8.71875e-13 1.02379e-12 3.60258e-13 -1.36531e-12 -7.61453e-13 1.90237e-12 5.8036e-13 -1.36072e-14 -1.63733e-13 -7.80702e-14 8.63522e-13 0 0 -2.05873e-14 4.06211e-14 -9.0799e-14 -1.4344e-14 -5.99817e-14 -4.11897e-14 2.80875e-14 -1.52796e-13 -1.02421e-13 -1.78147e-13 1.67591e-13 -2.21069e-13 1.81747e-13 -3.34066e-13 -8.05899e-14 3.14224e-13 -2.43087e-13 1.55495e-13 -1.15765e-13 1.01037e-13 -1.74285e-13 6.25007e-14 3.22983e-14 -1.57787e-13 -1.72925e-13 -7.93636e-15 -7.8194e-14 9.84502e-14 -1.67918e-13 1.14227e-13 -5.46554e-14 1.41679e-13 -9.27883e-14 -3.02126e-13 -1.08669e-14 -3.68248e-13 6.29155e-13 -6.6183e-13 3.02578e-13 -8.63077e-15 3.44453e-13 -1.77602e-13 -2.63557e-13 -2.48319e-13 2.57408e-13 -8.33686e-13 8.32025e-13 -5.0467e-13 -5.04063e-14 -2.80222e-13 -3.06627e-13 1.19297e-12 -8.90501e-13 -8.09115e-13 -3.91863e-13 5.97577e-13 7.71493e-13 -6.99697e-13 -2.6048e-13 4.31294e-13 5.96783e-13 3.51074e-13 6.68151e-13 -4.67171e-13 -1.78591e-13 -2.34954e-13 -3.14694e-13 -4.49358e-13 -9.52765e-13 8.16222e-13 -7.58002e-13 -2.24629e-13 4.16629e-13 9.15106e-13 -1.18154e-12 5.76737e-13 -6.85729e-14 2.59194e-13 4.76662e-13 -2.60697e-12 -3.16075e-13 1.55311e-12 -6.4988e-13 -1.66329e-13 1.4215e-12 -4.83312e-13 -1.30056e-14 1.05369e-12 -9.04136e-13 3.17124e-12 6.72326e-11 4.27092e-09 2.06809e-07 7.54084e-06 0.000197354 0.00345119 0.0360299 0.192022 0.4831 0.643953 0.914294 0.898706 0.732885 0.501395 0.279094 0.115033 0.0317549 0.00618318 0.000986844 0.000139571 1.78897e-05 2.09493e-06 2.25249e-07 2.23276e-08 2.04666e-09 1.73238e-10 1.42526e-11 1.55984e-12 -1.14702e-12 1.81296e-12 -1.68312e-12 1.17962e-12 3.00821e-13 -1.34781e-12 1.71582e-12 -1.96081e-12 1.04306e-12 3.95114e-13 -1.29464e-12 1.77411e-12 -1.65845e-12 1.41521e-12 4.015e-13 -1.82105e-12 1.74227e-12 -1.99632e-12 6.56278e-13 -3.20872e-13 -1.44622e-12 1.30395e-13 3.75429e-13 -1.08014e-13 2.43391e-13 -8.27335e-15 -1.25272e-12 2.34535e-12 -1.38676e-13 -6.74391e-13 -5.09432e-13 -9.28431e-13 2.49606e-12 -2.71972e-13 2.58425e-13 -1.75598e-12 2.6102e-12 -1.62374e-12 9.32594e-13 -7.38156e-13 -7.56502e-13 1.73344e-12 -1.15886e-12 7.24299e-13 -1.68606e-12 -5.34262e-13 8.32921e-13 -1.45488e-12 1.32678e-12 7.55811e-13 -5.3495e-13 6.16646e-13 -1.09429e-12 -7.43037e-13 2.47528e-12 -1.34021e-12 8.08517e-13 -1.25295e-12 -1.61542e-13 1.90471e-12 -9.9401e-13 2.24812e-13 -1.13508e-12 -7.16641e-13 2.42628e-12 -1.60204e-12 8.1167e-13 -1.30705e-12 -5.8677e-13 5.62557e-13 -2.61241e-12 -8.84407e-13 2.16982e-12 -7.79544e-13 2.27545e-13 -9.457e-13 -2.10382e-13 2.19105e-12 4.87418e-13 -2.21178e-13 -2.31892e-12 0 0 -2.11652e-14 -6.23206e-15 2.52031e-14 -1.66366e-13 -2.91084e-14 8.83347e-15 -7.3561e-14 -1.55208e-13 -1.8732e-13 5.30728e-14 -2.47695e-13 2.09911e-13 -2.98087e-13 1.20037e-13 -9.93419e-14 5.62372e-14 3.57551e-13 -2.64648e-13 6.19875e-14 -2.91985e-14 -2.50373e-13 -4.36173e-13 1.4864e-13 1.47204e-13 -1.80573e-13 -4.83012e-13 1.10011e-13 1.69955e-13 1.92856e-13 -2.36714e-13 2.61938e-13 -2.8262e-13 -1.35506e-13 2.8085e-13 -5.34404e-14 2.75834e-13 -2.53352e-13 3.40718e-13 -5.38162e-13 1.47905e-13 -1.29265e-13 -3.21699e-13 5.88643e-14 -5.72424e-14 -4.57539e-13 1.03985e-13 -2.7156e-13 1.926e-13 3.28252e-14 2.75342e-14 8.24525e-14 -1.87638e-13 4.57532e-13 -1.16962e-12 -5.54007e-13 6.47282e-13 -7.77667e-14 3.54541e-13 -4.21246e-13 5.48186e-13 5.0586e-13 4.41798e-13 4.40031e-13 -6.42578e-13 -3.08433e-13 -7.06865e-14 -4.61599e-13 -1.46431e-13 -9.54534e-13 9.66001e-14 5.11657e-13 -2.74732e-13 1.93688e-12 -5.74495e-13 -5.30375e-14 -4.96275e-13 -9.57811e-13 1.33247e-13 -7.39693e-13 1.2749e-13 -2.93253e-12 4.28423e-13 1.47814e-12 2.99462e-13 -1.84471e-12 3.56617e-13 1.41107e-12 -5.2462e-13 1.46212e-12 -2.72188e-14 6.85897e-11 4.27286e-09 2.06807e-07 7.54084e-06 0.000197354 0.00345119 0.0360299 0.192022 0.4831 0.643953 0.914294 0.898706 0.732885 0.501395 0.279094 0.115033 0.0317549 0.00618318 0.000986844 0.000139571 1.78897e-05 2.09493e-06 2.2525e-07 2.23257e-08 2.04786e-09 1.74411e-10 1.38191e-11 3.58826e-13 1.77564e-12 -1.49123e-12 1.83926e-12 -9.52415e-13 -1.06887e-12 1.87621e-12 -1.54011e-12 1.43241e-12 -3.46148e-13 -1.22604e-12 1.5098e-12 -1.25575e-12 1.5285e-12 -4.20026e-13 -1.00891e-12 1.31688e-12 -1.47222e-12 1.22972e-12 -1.03941e-12 -2.24e-12 1.19548e-12 -1.13264e-12 -1.36254e-12 3.33042e-12 -1.58807e-12 -1.18044e-12 2.00302e-12 -1.29549e-12 3.87092e-12 -2.09243e-12 -7.07642e-13 1.76323e-12 -2.46098e-12 1.85302e-12 -2.48155e-12 1.51966e-12 -8.98757e-13 2.95435e-12 -8.57103e-13 -1.43657e-12 -1.30475e-12 5.29916e-13 3.8296e-12 -3.16284e-12 -2.97352e-12 -5.47886e-14 3.93773e-13 1.80028e-12 -3.4299e-12 3.18189e-13 4.53748e-12 -2.16033e-12 -1.48814e-12 1.07405e-12 7.95014e-13 3.24218e-12 -4.12658e-12 -4.07478e-13 1.03839e-12 1.04963e-13 3.27732e-12 -3.25652e-12 -2.10499e-12 1.40761e-12 7.46317e-13 3.03127e-12 -3.92664e-12 -6.70229e-13 9.6956e-13 -9.17931e-13 5.54272e-13 -6.333e-12 1.37933e-12 6.80124e-12 -3.47346e-12 -1.88371e-12 5.47059e-13 1.6821e-12 6.4448e-12 -5.47294e-12 -2.43327e-12 0 0 5.27188e-15 2.33584e-14 -6.88485e-14 7.54484e-15 -1.56084e-13 -2.53943e-13 -1.61255e-13 1.80397e-13 1.40708e-14 -1.10804e-13 -2.53394e-13 -2.5468e-13 2.40523e-13 -1.61342e-13 -9.94481e-14 4.30617e-13 3.79574e-13 1.38159e-13 -6.61944e-13 -2.87566e-13 2.58787e-15 -1.01861e-13 -9.02458e-14 -5.92623e-13 -1.5609e-13 4.45853e-13 1.94595e-13 -2.9058e-13 -1.92297e-13 3.02164e-13 -2.82582e-13 4.03345e-13 1.75141e-14 -7.66184e-13 6.18119e-13 8.44427e-13 8.44291e-13 -6.06045e-13 -6.9073e-13 -7.81957e-13 -1.29734e-13 2.25173e-13 -9.54397e-13 2.08466e-13 9.8274e-13 -5.97362e-14 -2.17796e-13 -1.0422e-12 -2.71348e-13 1.7068e-13 1.45398e-12 1.02107e-12 -2.01729e-12 -3.18007e-13 -3.13296e-13 -1.03577e-12 1.47088e-12 -1.1683e-12 1.12787e-12 1.12761e-12 2.08844e-13 -2.33812e-13 -1.42509e-12 1.13752e-12 1.57482e-13 1.0959e-13 -7.27936e-13 -1.79659e-12 1.73218e-12 -5.04157e-14 -1.51502e-12 1.23883e-12 1.55316e-12 2.38906e-12 -1.04002e-12 -3.70179e-12 -2.12137e-13 -1.42252e-12 1.62503e-12 -6.84161e-13 -1.93721e-12 2.95849e-13 -6.07299e-13 -5.11851e-13 1.97941e-13 -3.46679e-14 2.40025e-13 -9.82341e-13 2.37705e-12 1.51774e-12 6.79805e-11 4.27183e-09 2.06806e-07 7.54084e-06 0.000197354 0.00345119 0.0360299 0.192022 0.4831 0.643953 0.914294 0.898706 0.732885 0.501395 0.279094 0.115033 0.0317549 0.00618318 0.000986844 0.000139571 1.78897e-05 2.09492e-06 2.25251e-07 2.23278e-08 2.04739e-09 1.73161e-10 1.23948e-11 4.02556e-12 4.25079e-13 -1.15318e-13 2.58849e-13 -2.33512e-12 2.50642e-12 7.55693e-14 -8.43899e-13 2.65328e-13 -1.91365e-12 2.51539e-12 -3.60763e-13 -5.31348e-13 9.58866e-14 -2.03229e-12 2.53369e-12 4.59293e-13 -9.14683e-13 1.50948e-13 -2.30334e-12 6.49129e-14 -2.113e-13 4.13863e-13 -1.34473e-12 -1.27236e-12 2.75418e-12 4.89196e-13 3.78357e-14 -1.1307e-12 2.64425e-13 3.00955e-12 2.55256e-12 -1.91324e-12 -3.91758e-12 -2.53037e-12 1.39821e-12 1.48654e-12 -7.63539e-13 2.24192e-12 -1.15227e-12 2.173e-12 -5.13729e-13 -2.10712e-12 -3.04359e-13 -4.51578e-12 2.87262e-12 1.44626e-12 -2.25434e-12 -2.38501e-13 -7.47254e-12 3.5977e-12 3.88838e-12 9.9642e-13 4.94717e-13 -2.01039e-12 1.53559e-12 1.86757e-12 -1.79912e-12 9.6124e-13 -1.59857e-12 -4.35099e-13 2.65494e-12 -8.5439e-13 2.36446e-13 -2.40528e-12 1.40341e-12 2.33904e-12 -1.70747e-12 1.13904e-12 -2.49905e-12 -1.19696e-13 -1.47105e-12 -2.65378e-12 2.02742e-12 -1.81232e-12 2.42299e-12 1.63116e-12 2.07581e-12 1.24424e-13 -1.75197e-12 1.33627e-12 8.82438e-13 0
				</DataArray>
				<DataArray Name="VitesseY" type="Float32" format="ascii">