<?xml version="1.0"?>
<VTKFile type="PolyData">
	<PolyData>
		<Piece NumberOfPoints="1206" NumberOfPolys="1000">
			<Points>
				<DataArray type="Float32" NumberOfComponents="3" format="ascii">
 0 0 0 0.005 0 0 0.01 0 0 0.015 0 0 0.02 0 0 0.025 0 0 0.03 0 0 0.035 0 0 0.04 0 0 0.045 0 0 0.05 0 0 0.055 0 0 0.06 0 0 0.065 0 0 0.07 0 0 0.075 0 0 0.08 0 0 0.085 0 0 0.09 0 0 0.095 0 0 0.1 0 0 0.105 0 0 0.11 0 0 0.115 0 0 0.12 0 0 0.125 0 0 0.13 0 0 0.135 0 0 0.14 0 0 0.145 0 0 0.15 0 0 0.155 0 0 0.16 0 0 0.165 0 0 0.17 0 0 0.175 0 0 0.18 0 0 0.185 0 0 0.19 0 0 0.195 0 0 0.2 0 0 0.205 0 0 0.21 0 0 0.215 0 0 0.22 0 0 0.225 0 0 0.23 0 0 0.235 0 0 0.24 0 0 0.245 0 0 0.25 0 0 0.255 0 0 0.26 0 0 0.265 0 0 0.27 0 0 0.275 0 0 0.28 0 0 0.285 0 0 0.29 0 0 0.295 0 0 0.3 0 0 0.305 0 0 0.31 0 0 0.315 0 0 0.32 0 0 0.325 0 0 0.33 0 0 0.335 0 0 0.34 0 0 0.345 0 0 0.35 0 0 0.355 0 0 0.36 0 0 0.365 0 0 0.37 0 0 0.375 0 0 0.38 0 0 0.385 0 0 0.39 0 0 0.395 0 0 0.4 0 0 0.405 0 0 0.41 0 0 0.415 0 0 0.42 0 0 0.425 0 0 0.43 0 0 0.435 0 0 0.44 0 0 0.445 0 0 0.45 0 0 0.455 0 0 0.46 0 0 0.465 0 0 0.47 0 0 0.475 0 0 0.48 0 0 0.485 0 0 0.49 0 0 0.495 0 0 0.5 0 0 0.505 0 0 0.51 0 0 0.515 0 0 0.52 0 0 0.525 0 0 0.53 0 0 0.535 0 0 0.54 0 0 0.545 0 0 0.55 0 0 0.555 0 0 0.56 0 0 0.565 0 0 0.57 0 0 0.575 0 0 0.58 0 0 0.585 0 0 0.59 0 0 0.595 0 0 0.6 0 0 0.605 0 0 0.61 0 0 0.615 0 0 0.62 0 0 0.625 0 0 0.63 0 0 0.635 0 0 0.64 0 0 0.645 0 0 0.65 0 0 0.655 0 0 0.66 0 0 0.665 0 0 0.67 0 0 0.675 0 0 0.68 0 0 0.685 0 0 0.69 0 0 0.695 0 0 0.7 0 0 0.705 0 0 0.71 0 0 0.715 0 0 0.72 0 0 0.725 0 0 0.73 0 0 0.735 0 0 0.74 0 0 0.745 0 0 0.75 0 0 0.755 0 0 0.76 0 0 0.765 0 0 0.77 0 0 0.775 0 0 0.78 0 0 0.785 0 0 0.79 0 0 0.795 0 0 0.8 0 0 0.805 0 0 0.81 0 0 0.815 0 0 0.82 0 0 0.825 0 0 0.83 0 0 0.835 0 0 0.84 0 0 0.845 0 0 0.85 0 0 0.855 0 0 0.86 0 0 0.865 0 0 0.87 0 0 0.875 0 0 0.88 0 0 0.885 0 0 0.89 0 0 0.895 0 0 0.9 0 0 0.905 0 0 0.91 0 0 0.915 0 0 0.92 0 0 0.925 0 0 0.93 0 0 0.935 0 0 0.94 0 0 0.945 0 0 0.95 0 0 0.955 0 0 0.96 0 0 0.965 0 0 0.97 0 0 0.975 0 0 0.98 0 0 0.985 0 0 0.99 0 0 0.995 0 0 1 0 0 0 0.02 0 0.005 0.02 0 0.01 0.02 0 0.015 0.02 0 0.02 0.02 0 0.025 0.02 0 0.03 0.02 0 0.035 0.02 0 0.04 0.02 0 0.045 0.02 0 0.05 0.02 0 0.055 0.02 0 0.06 0.02 0 0.065 0.02 0 0.07 0.02 0 0.075 0.02 0 0.08 0.02 0 0.085 0.02 0 0.09 0.02 0 0.095 0.02 0 0.1 0.02 0 0.105 0.02 0 0.11 0.02 0 0.115 0.02 0 0.12 0.02 0 0.125 0.02 0 0.13 0.02 0 0.135 0.02 0 0.14 0.02 0 0.145 0.02 0 0.15 0.02 0 0.155 0.02 0 0.16 0.02 0 0.165 0.02 0 0.17 0.02 0 0.175 0.02 0 0.18 0.02 0 0.185 0.02 0 0.19 0.02 0 0.195 0.02 0 0.2 0.02 0 0.205 0.02 0 0.21 0.02 0 0.215 0.02 0 0.22 0.02 0 0.225 0.02 0 0.23 0.02 0 0.235 0.02 0 0.24 0.02 0 0.245 0.02 0 0.25 0.02 0 0.255 0.02 0 0.26 0.02 0 0.265 0.02 0 0.27 0.02 0 0.275 0.02 0 0.28 0.02 0 0.285 0.02 0 0.29 0.02 0 0.295 0.02 0 0.3 0.02 0 0.305 0.02 0 0.31 0.02 0 0.315 0.02 0 0.32 0.02 0 0.325 0.02 0 0.33 0.02 0 0.335 0.02 0 0.34 0.02 0 0.345 0.02 0 0.35 0.02 0 0.355 0.02 0 0.36 0.02 0 0.365 0.02 0 0.37 0.02 0 0.375 0.02 0 0.38 0.02 0 0.385 0.02 0 0.39 0.02 0 0.395 0.02 0 0.4 0.02 0 0.405 0.02 0 0.41 0.02 0 0.415 0.02 0 0.42 0.02 0 0.425 0.02 0 0.43 0.02 0 0.435 0.02 0 0.44 0.02 0 0.445 0.02 0 0.45 0.02 0 0.455 0.02 0 0.46 0.02 0 0.465 0.02 0 0.47 0.02 0 0.475 0.02 0 0.48 0.02 0 0.485 0.02 0 0.49 0.02 0 0.495 0.02 0 0.5 0.02 0 0.505 0.02 0 0.51 0.02 0 0.515 0.02 0 0.52 0.02 0 0.525 0.02 0 0.53 0.02 0 0.535 0.02 0 0.54 0.02 0 0.545 0.02 0 0.55 0.02 0 0.555 0.02 0 0.56 0.02 0 0.565 0.02 0 0.57 0.02 0 0.575 0.02 0 0.58 0.02 0 0.585 0.02 0 0.59 0.02 0 0.595 0.02 0 0.6 0.02 0 0.605 0.02 0 0.61 0.02 0 0.615 0.02 0 0.62 0.02 0 0.625 0.02 0 0.63 0.02 0 0.635 0.02 0 0.64 0.02 0 0.645 0.02 0 0.65 0.02 0 0.655 0.02 0 0.66 0.02 0 0.665 0.02 0 0.67 0.02 0 0.675 0.02 0 0.68 0.02 0 0.685 0.02 0 0.69 0.02 0 0.695 0.02 0 0.7 0.02 0 0.705 0.02 0 0.71 0.02 0 0.715 0.02 0 0.72 0.02 0 0.725 0.02 0 0.73 0.02 0 0.735 0.02 0 0.74 0.02 0 0.745 0.02 0 0.75 0.02 0 0.755 0.02 0 0.76 0.02 0 0.765 0.02 0 0.77 0.02 0 0.775 0.02 0 0.78 0.02 0 0.785 0.02 0 0.79 0.02 0 0.795 0.02 0 0.8 0.02 0 0.805 0.02 0 0.81 0.02 0 0.815 0.02 0 0.82 0.02 0 0.825 0.02 0 0.83 0.02 0 0.835 0.02 0 0.84 0.02 0 0.845 0.02 0 0.85 0.02 0 0.855 0.02 0 0.86 0.02 0 0.865 0.02 0 0.87 0.02 0 0.875 0.02 0 0.88 0.02 0 0.885 0.02 0 0.89 0.02 0 0.895 0.02 0 0.9 0.02 0 0.905 0.02 0 0.91 0.02 0 0.915 0.02 0 0.92 0.02 0 0.925 0.02 0 0.93 0.02 0 0.935 0.02 0 0.94 0.02 0 0.945 0.02 0 0.95 0.02 0 0.955 0.02 0 0.96 0.02 0 0.965 0.02 0 0.97 0.02 0 0.975 0.02 0 0.98 0.02 0 0.985 0.02 0 0.99 0.02 0 0.995 0.02 0 1 0.02 0 0 0.04 0 0.005 0.04 0 0.01 0.04 0 0.015 0.04 0 0.02 0.04 0 0.025 0.04 0 0.03 0.04 0 0.035 0.04 0 0.04 0.04 0 0.045 0.04 0 0.05 0.04 0 0.055 0.04 0 0.06 0.04 0 0.065 0.04 0 0.07 0.04 0 0.075 0.04 0 0.08 0.04 0 0.085 0.04 0 0.09 0.04 0 0.095 0.04 0 0.1 0.04 0 0.105 0.04 0 0.11 0.04 0 0.115 0.04 0 0.12 0.04 0 0.125 0.04 0 0.13 0.04 0 0.135 0.04 0 0.14 0.04 0 0.145 0.04 0 0.15 0.04 0 0.155 0.04 0 0.16 0.04 0 0.165 0.04 0 0.17 0.04 0 0.175 0.04 0 0.18 0.04 0 0.185 0.04 0 0.19 0.04 0 0.195 0.04 0 0.2 0.04 0 0.205 0.04 0 0.21 0.04 0 0.215 0.04 0 0.22 0.04 0 0.225 0.04 0 0.23 0.04 0 0.235 0.04 0 0.24 0.04 0 0.245 0.04 0 0.25 0.04 0 0.255 0.04 0 0.26 0.04 0 0.265 0.04 0 0.27 0.04 0 0.275 0.04 0 0.28 0.04 0 0.285 0.04 0 0.29 0.04 0 0.295 0.04 0 0.3 0.04 0 0.305 0.04 0 0.31 0.04 0 0.315 0.04 0 0.32 0.04 0 0.325 0.04 0 0.33 0.04 0 0.335 0.04 0 0.34 0.04 0 0.345 0.04 0 0.35 0.04 0 0.355 0.04 0 0.36 0.04 0 0.365 0.04 0 0.37 0.04 0 0.375 0.04 0 0.38 0.04 0 0.385 0.04 0 0.39 0.04 0 0.395 0.04 0 0.4 0.04 0 0.405 0.04 0 0.41 0.04 0 0.415 0.04 0 0.42 0.04 0 0.425 0.04 0 0.43 0.04 0 0.435 0.04 0 0.44 0.04 0 0.445 0.04 0 0.45 0.04 0 0.455 0.04 0 0.46 0.04 0 0.465 0.04 0 0.47 0.04 0 0.475 0.04 0 0.48 0.04 0 0.485 0.04 0 0.49 0.04 0 0.495 0.04 0 0.5 0.04 0 0.505 0.04 0 0.51 0.04 0 0.515 0.04 0 0.52 0.04 0 0.525 0.04 0 0.53 0.04 0 0.535 0.04 0 0.54 0.04 0 0.545 0.04 0 0.55 0.04 0 0.555 0.04 0 0.56 0.04 0 0.565 0.04 0 0.57 0.04 0 0.575 0.04 0 0.58 0.04 0 0.585 0.04 0 0.59 0.04 0 0.595 0.04 0 0.6 0.04 0 0.605 0.04 0 0.61 0.04 0 0.615 0.04 0 0.62 0.04 0 0.625 0.04 0 0.63 0.04 0 0.635 0.04 0 0.64 0.04 0 0.645 0.04 0 0.65 0.04 0 0.655 0.04 0 0.66 0.04 0 0.665 0.04 0 0.67 0.04 0 0.675 0.04 0 0.68 0.04 0 0.685 0.04 0 0.69 0.04 0 0.695 0.04 0 0.7 0.04 0 0.705 0.04 0 0.71 0.04 0 0.715 0.04 0 0.72 0.04 0 0.725 0.04 0 0.73 0.04 0 0.735 0.04 0 0.74 0.04 0 0.745 0.04 0 0.75 0.04 0 0.755 0.04 0 0.76 0.04 0 0.765 0.04 0 0.77 0.04 0 0.775 0.04 0 0.78 0.04 0 0.785 0.04 0 0.79 0.04 0 0.795 0.04 0 0.8 0.04 0 0.805 0.04 0 0.81 0.04 0 0.815 0.04 0 0.82 0.04 0 0.825 0.04 0 0.83 0.04 0 0.835 0.04 0 0.84 0.04 0 0.845 0.04 0 0.85 0.04 0 0.855 0.04 0 0.86 0.04 0 0.865 0.04 0 0.87 0.04 0 0.875 0.04 0 0.88 0.04 0 0.885 0.04 0 0.89 0.04 0 0.895 0.04 0 0.9 0.04 0 0.905 0.04 0 0.91 0.04 0 0.915 0.04 0 0.92 0.04 0 0.925 0.04 0 0.93 0.04 0 0.935 0.04 0 0.94 0.04 0 0.945 0.04 0 0.95 0.04 0 0.955 0.04 0 0.96 0.04 0 0.965 0.04 0 0.97 0.04 0 0.975 0.04 0 0.98 0.04 0 0.985 0.04 0 0.99 0.04 0 0.995 0.04 0 1 0.04 0 0 0.06 0 0.005 0.06 0 0.01 0.06 0 0.015 0.06 0 0.02 0.06 0 0.025 0.06 0 0.03 0.06 0 0.035 0.06 0 0.04 0.06 0 0.045 0.06 0 0.05 0.06 0 0.055 0.06 0 0.06 0.06 0 0.065 0.06 0 0.07 0.06 0 0.075 0.06 0 0.08 0.06 0 0.085 0.06 0 0.09 0.06 0 0.095 0.06 0 0.1 0.06 0 0.105 0.06 0 0.11 0.06 0 0.115 0.06 0 0.12 0.06 0 0.125 0.06 0 0.13 0.06 0 0.135 0.06 0 0.14 0.06 0 0.145 0.06 0 0.15 0.06 0 0.155 0.06 0 0.16 0.06 0 0.165 0.06 0 0.17 0.06 0 0.175 0.06 0 0.18 0.06 0 0.185 0.06 0 0.19 0.06 0 0.195 0.06 0 0.2 0.06 0 0.205 0.06 0 0.21 0.06 0 0.215 0.06 0 0.22 0.06 0 0.225 0.06 0 0.23 0.06 0 0.235 0.06 0 0.24 0.06 0 0.245 0.06 0 0.25 0.06 0 0.255 0.06 0 0.26 0.06 0 0.265 0.06 0 0.27 0.06 0 0.275 0.06 0 0.28 0.06 0 0.285 0.06 0 0.29 0.06 0 0.295 0.06 0 0.3 0.06 0 0.305 0.06 0 0.31 0.06 0 0.315 0.06 0 0.32 0.06 0 0.325 0.06 0 0.33 0.06 0 0.335 0.06 0 0.34 0.06 0 0.345 0.06 0 0.35 0.06 0 0.355 0.06 0 0.36 0.06 0 0.365 0.06 0 0.37 0.06 0 0.375 0.06 0 0.38 0.06 0 0.385 0.06 0 0.39 0.06 0 0.395 0.06 0 0.4 0.06 0 0.405 0.06 0 0.41 0.06 0 0.415 0.06 0 0.42 0.06 0 0.425 0.06 0 0.43 0.06 0 0.435 0.06 0 0.44 0.06 0 0.445 0.06 0 0.45 0.06 0 0.455 0.06 0 0.46 0.06 0 0.465 0.06 0 0.47 0.06 0 0.475 0.06 0 0.48 0.06 0 0.485 0.06 0 0.49 0.06 0 0.495 0.06 0 0.5 0.06 0 0.505 0.06 0 0.51 0.06 0 0.515 0.06 0 0.52 0.06 0 0.525 0.06 0 0.53 0.06 0 0.535 0.06 0 0.54 0.06 0 0.545 0.06 0 0.55 0.06 0 0.555 0.06 0 0.56 0.06 0 0.565 0.06 0 0.57 0.06 0 0.575 0.06 0 0.58 0.06 0 0.585 0.06 0 0.59 0.06 0 0.595 0.06 0 0.6 0.06 0 0.605 0.06 0 0.61 0.06 0 0.615 0.06 0 0.62 0.06 0 0.625 0.06 0 0.63 0.06 0 0.635 0.06 0 0.64 0.06 0 0.645 0.06 0 0.65 0.06 0 0.655 0.06 0 0.66 0.06 0 0.665 0.06 0 0.67 0.06 0 0.675 0.06 0 0.68 0.06 0 0.685 0.06 0 0.69 0.06 0 0.695 0.06 0 0.7 0.06 0 0.705 0.06 0 0.71 0.06 0 0.715 0.06 0 0.72 0.06 0 0.725 0.06 0 0.73 0.06 0 0.735 0.06 0 0.74 0.06 0 0.745 0.06 0 0.75 0.06 0 0.755 0.06 0 0.76 0.06 0 0.765 0.06 0 0.77 0.06 0 0.775 0.06 0 0.78 0.06 0 0.785 0.06 0 0.79 0.06 0 0.795 0.06 0 0.8 0.06 0 0.805 0.06 0 0.81 0.06 0 0.815 0.06 0 0.82 0.06 0 0.825 0.06 0 0.83 0.06 0 0.835 0.06 0 0.84 0.06 0 0.845 0.06 0 0.85 0.06 0 0.855 0.06 0 0.86 0.06 0 0.865 0.06 0 0.87 0.06 0 0.875 0.06 0 0.88 0.06 0 0.885 0.06 0 0.89 0.06 0 0.895 0.06 0 0.9 0.06 0 0.905 0.06 0 0.91 0.06 0 0.915 0.06 0 0.92 0.06 0 0.925 0.06 0 0.93 0.06 0 0.935 0.06 0 0.94 0.06 0 0.945 0.06 0 0.95 0.06 0 0.955 0.06 0 0.96 0.06 0 0.965 0.06 0 0.97 0.06 0 0.975 0.06 0 0.98 0.06 0 0.985 0.06 0 0.99 0.06 0 0.995 0.06 0 1 0.06 0 0 0.08 0 0.005 0.08 0 0.01 0.08 0 0.015 0.08 0 0.02 0.08 0 0.025 0.08 0 0.03 0.08 0 0.035 0.08 0 0.04 0.08 0 0.045 0.08 0 0.05 0.08 0 0.055 0.08 0 0.06 0.08 0 0.065 0.08 0 0.07 0.08 0 0.075 0.08 0 0.08 0.08 0 0.085 0.08 0 0.09 0.08 0 0.095 0.08 0 0.1 0.08 0 0.105 0.08 0 0.11 0.08 0 0.115 0.08 0 0.12 0.08 0 0.125 0.08 0 0.13 0.08 0 0.135 0.08 0 0.14 0.08 0 0.145 0.08 0 0.15 0.08 0 0.155 0.08 0 0.16 0.08 0 0.165 0.08 0
[...]
			<PointData Scalars="VitesseX">
				<DataArray Name="VitesseX" type="Float32" format="ascii">
 0 -5.69874e-15 -5.65818e-15 -3.3175e-14 1.52124e-14 -2.23906e-14 -1.87882e-14 -3.6662e-14 1.88264e-14 -7.86952e-14 -3.40328e-14 1.76305e-14 -6.92017e-14 2.91226e-14 -2.56454e-14 -7.61731e-14 3.3075e-14 -4.64159e-14 -8.3687e-14 -9.20466e-14 -1.14235e-14 -4.34968e-14 -1.75616e-13 -5.99011e-14 -7.2309e-14 -9.07258e-14 -7.99709e-14 1.92664e-14 -7.41649e-14 1.67515e-14 -5.35017e-14 -7.86968e-14 1.01915e-13 -1.18163e-13 -6.98635e-14 -1.70132e-13 -6.22833e-14 -1.76537e-13 -2.09136e-13 -7.96279e-14 -1.42501e-13 -1.76953e-13 -7.38638e-14 -4.86092e-15 -2.91597e-13 4.83497e-14 -1.6538e-13 8.9379e-14 -4.33428e-14 8.72207e-13 5.26244e-12 3.58737e-11 2.34574e-10 1.44682e-09 8.40262e-09 4.5832e-08 2.34079e-07 1.11551e-06 4.94037e-06 2.02396e-05 7.62798e-05 0.000262736 0.000820562 0.00230248 0.00574748 0.0126516 0.0244524 0.0416627 0.0634701 0.0883298 0.114867 0.142237 0.170009 0.197975 0.226033 0.254127 0.282225 0.310285 0.338262 0.366124 0.393842 0.421396 0.448771 0.475958 0.502948 0.529731 0.556295 0.582621 0.608686 0.634458 0.659899 0.684956 0.709566 0.733647 0.757102 0.779807 0.801615 0.822351 0.841815 0.859785 0.876031 0.890336 0.902527 0.912506 0.92028 0.925969 0.929802 0.932084 0.933171 0.933433 0.93336 0.933154 0.932839 0.932454 0.93204 0.931633 0.931274 0.930999 0.930855 0.930903 0.931264 0.932119 0.933627 0.935933 0.939254 0.943329 0.950087 0.954422 0.950663 0.94401 0.937879 0.933694 0.931143 0.929724 0.928984 0.928607 0.928391 0.928194 0.927925 0.927455 0.926587 0.924988 0.922091 0.916945 0.908007 0.892887 0.868138 0.829286 0.771401 0.690471 0.585645 0.461809 0.330916 0.21114 0.117859 0.0572579 0.0247293 0.00989076 0.00380038 0.00143291 0.000535207 0.000198751 7.34652e-05 2.70342e-05 9.90188e-06 3.60863e-06 1.30801e-06 4.71352e-07 1.68795e-07 6.00451e-08 2.12087e-08 7.43574e-09 2.58619e-09 8.92221e-10 3.04854e-10 1.03075e-10 3.4243e-11 1.10774e-11 3.66347e-12 1.14638e-12 -2.54061e-13 4.31934e-14 6.25533e-15 -3.13911e-13 1.70003e-13 8.90038e-14 1.67154e-13 -3.43401e-13 3.63206e-13 1.10418e-13 -2.79962e-13 -3.64814e-13 2.41258e-13 -4.54282e-13 5.7959e-13 2.2892e-13 -1.2086e-13 6.58196e-13 -2.2526e-13 1.15884e-13 0 0 -7.59216e-15 -9.07704e-15 1.04614e-14 -2.50931e-14 -1.04932e-14 -1.64065e-15 -1.3962e-14 -6.08703e-14 2.20749e-14 -1.47226e-14 -7.49894e-14 -6.9121e-15 -6.00513e-14 -4.98083e-14 2.73685e-14 -7.94004e-14 3.62709e-15 -4.59814e-14 -6.2906e-14 -8.3584e-14 -7.19369e-14 -1.30519e-14 -1.52573e-13 -1.03893e-13 -4.71099e-14 -2.04507e-14 -1.37129e-13 -5.18491e-15 -5.22851e-14 1.37223e-14 7.61759e-14 -1.59985e-13 1.47098e-14 -1.77518e-13 -6.08708e-14 -1.26745e-13 -1.80653e-13 -9.93095e-14 -1.98479e-13 -1.11878e-13 -1.80361e-13 -3.86913e-15 -1.3846e-13 5.18408e-14 -1.24596e-13 -2.2069e-14 -1.84605e-13 2.60943e-13 6.74873e-13 5.28816e-12 3.60015e-11 2.34714e-10 1.44676e-09 8.40226e-09 4.58319e-08 2.3408e-07 1.11551e-06 4.94037e-06 2.02396e-05 7.62798e-05 0.000262736 0.000820562 0.00230248 0.00574748 0.0126516 0.0244524 0.0416627 0.0634701 0.0883298 0.114867 0.142237 0.170009 0.197975 0.226033 0.254127 0.282225 0.310285 0.338262 0.366124 0.393842 0.421396 0.448771 0.475958 0.502948 0.529731 0.556295 0.582621 0.608686 0.634458 0.659899 0.684956 0.709566 0.733647 0.757102 0.779807 0.801615 0.822351 0.841815 0.859785 0.876031 0.890336 0.902527 0.912506 0.92028 0.925969 0.929802 0.932084 0.933171 0.933433 0.93336 0.933154 0.932839 0.932454 0.93204 0.931633 0.931274 0.930999 0.930855 0.930903 0.931264 0.932119 0.933627 0.935933 0.939254 0.943329 0.950087 0.954422 0.950663 0.94401 0.937879 0.933694 0.931143 0.929724 0.928984 0.928607 0.928391 0.928194 0.927925 0.927455 0.926587 0.924988 0.922091 0.916945 0.908007 0.892887 0.868138 0.829286 0.771401 0.690471 0.585645 0.461809 0.330916 0.21114 0.117859 0.0572579 0.0247293 0.00989076 0.00380038 0.00143291 0.000535207 0.000198751 7.34652e-05 2.70342e-05 9.90188e-06 3.60863e-06 1.30801e-06 4.71352e-07 1.68795e-07 6.00447e-08 2.1209e-08 7.43551e-09 2.58635e-09 8.92196e-10 3.05013e-10 1.02881e-10 3.44096e-11 1.12223e-11 3.01541e-12 9.04436e-13 2.26849e-13 -3.13449e-13 2.80172e-14 -7.20859e-14 7.29183e-14 8.66078e-14 -1.63163e-13 4.36154e-13 -3.15953e-14 -1.15274e-13 -1.24133e-13 -1.49456e-13 1.42894e-13 6.41914e-13 -2.91232e-13 2.61827e-13 2.31092e-13 -3.22159e-13 5.80371e-13 8.1196e-14 0 0 -2.31812e-15 4.13546e-15 -1.09784e-14 2.32101e-14 8.12652e-15 3.14832e-16 -2.40488e-14 -2.3221e-15 1.1951e-14 -5.06878e-14 -1.05493e-14 -7.13708e-14 -4.67235e-14 -6.13038e-14 -9.24633e-14 -3.44837e-14 -1.24865e-13 2.5999e-15 -3.2547e-14 -5.43749e-14 -8.7673e-14 -8.33919e-14 -2.76672e-14 -8.75713e-14 -2.66755e-14 -7.89736e-14 -5.28086e-14 -1.03389e-13 5.30762e-14 4.72595e-15 -6.77653e-14 3.93976e-14 -1.4808e-13 -7.478e-14 -1.91604e-13 -9.65704e-14 -1.11303e-13 -1.46485e-13 -6.35922e-14 -1.41907e-13 -4.12297e-14 -7.68834e-14 -7.68379e-14 -8.62036e-14 -1.87013e-13 2.22619e-14 1.27829e-13 1.01542e-13 8.08752e-13 5.31983e-12 3.58283e-11 2.34737e-10 1.4467e-09 8.40261e-09 4.58322e-08 2.34079e-07 1.11551e-06 4.94037e-06 2.02396e-05 7.62798e-05 0.000262736 0.000820562 0.00230248 0.00574748 0.0126516 0.0244524 0.0416627 0.0634701 0.0883298 0.114867 0.142237 0.170009 0.197975 0.226033 0.254127 0.282225 0.310285 0.338262 0.366124 0.393842 0.421396 0.448771 0.475958 0.502948 0.529731 0.556295 0.582621 0.608686 0.634458 0.659899 0.684956 0.709566 0.733647 0.757102 0.779807 0.801615 0.822351 0.841815 0.859785 0.876031 0.890336 0.902527 0.912506 0.92028 0.925969 0.929802 0.932084 0.933171 0.933433 0.93336 0.933154 0.932839 0.932454 0.93204 0.931633 0.931274 0.930999 0.930855 0.930903 0.931264 0.932119 0.933627 0.935933 0.939254 0.943329 0.950087 0.954422 0.950663 0.94401 0.937879 0.933694 0.931143 0.929724 0.928984 0.928607 0.928391 0.928194 0.927925 0.927455 0.926587 0.924988 0.922091 0.916945 0.908007 0.892887 0.868138 0.829286 0.771401 0.690471 0.585645 0.461809 0.330916 0.21114 0.117859 0.0572579 0.0247293 0.00989076 0.00380038 0.00143291 0.000535207 0.000198751 7.34652e-05 2.70342e-05 9.90188e-06 3.60863e-06 1.30801e-06 4.71353e-07 1.68795e-07 6.0045e-08 2.1209e-08 7.43558e-09 2.58654e-09 8.92023e-10 3.05104e-10 1.03035e-10 3.45858e-11 1.09797e-11 2.92733e-12 5.90019e-13 -1.91165e-14 1.52872e-13 -2.67436e-13 4.51528e-13 -2.23479e-13 -1.80649e-13 2.7271e-13 1.85225e-13 1.48749e-13 -3.39667e-14 -4.09386e-14 2.07914e-14 -2.14142e-13 4.44188e-14 5.42112e-13 1.08792e-13 -2.88528e-13 3.99031e-13 3.64638e-13 2.40778e-13 0 0 -7.54038e-15 -1.22516e-14 -9.50101e-15 9.3451e-15 4.33391e-15 1.20439e-15 2.90355e-14 -1.52584e-15 -2.93761e-14 -1.84434e-14 -4.59342e-14 -2.40144e-14 -2.73475e-14 -9.10197e-14 -9.34482e-14 -9.34626e-14 -9.20432e-14 -1.43157e-13 -5.30351e-14 3.62083e-14 -9.71499e-14 -5.73722e-14 -8.46357e-15 4.11252e-14 -4.56652e-14 -1.7987e-13 7.063e-14 -6.64495e-15 -6.92055e-14 -2.6635e-14 -2.89823e-14 -1.0431e-13 -1.36625e-13 3.43869e-14 -1.47921e-13 -1.11275e-13 -6.27065e-14 -1.48097e-13 -1.41105e-13 -7.50717e-15 -2.52155e-13 -6.23579e-14 -7.20169e-15 -8.0894e-14 -2.89009e-14 -1.02214e-13 3.98397e-14 -2.9904e-14 9.04216e-13 5.2642e-12 3.61155e-11 2.34681e-10 1.44687e-09 8.40248e-09 4.58321e-08 2.3408e-07 1.11551e-06 4.94037e-06 2.02396e-05 7.62798e-05 0.000262736 0.000820562 0.00230248 0.00574748 0.0126516 0.0244524 0.0416627 0.0634701 0.0883298 0.114867 0.142237 0.170009 0.197975 0.226033 0.254127 0.282225 0.310285 0.338262 0.366124 0.393842 0.421396 0.448771 0.475958 0.502948 0.529731 0.556295 0.582621 0.608686 0.634458 0.659899 0.684956 0.709566 0.733647 0.757102 0.779807 0.801615 0.822351 0.841815 0.859785 0.876031 0.890336 0.902527 0.912506 0.92028 0.925969 0.929802 0.932084 0.933171 0.933433 0.93336 0.933154 0.932839 0.932454 0.93204 0.931633 0.931274 0.930999 0.930855 0.930903 0.931264 0.932119 0.933627 0.935933 0.939254 0.943329 0.950087 0.954422 0.950663 0.94401 0.937879 0.933694 0.931143 0.929724 0.928984 0.928607 0.928391 0.928194 0.927925 0.927455 0.926587 0.924988 0.922091 0.916945 0.908007 0.892887 0.868138 0.829286 0.771401 0.690471 0.585645 0.461809 0.330916 0.21114 0.117859 0.0572579 0.0247293 0.00989076 0.00380038 0.00143291 0.000535207 0.000198751 7.34652e-05 2.70342e-05 9.90188e-06 3.60863e-06 1.30801e-06 4.71353e-07 1.68795e-07 6.0045e-08 2.1209e-08 7.43558e-09 2.58668e-09 8.9233e-10 3.04755e-10 1.03414e-10 3.3997e-11 1.12016e-11 3.48647e-12 5.49018e-13 -2.2221e-13 -5.74342e-14 4.62798e-13 -4.83293e-13 1.68937e-13 -1.01999e-13 -1.55141e-13 -3.79767e-13 1.60867e-13 -2.13931e-14 2.36217e-13 2.09643e-13 -4.6449e-14 -1.20375e-13 1.16637e-13 1.43917e-13 -1.3025e-13 7.208e-13 -7.68634e-13 -8.97998e-14 0 0 -6.90446e-15 -1.36128e-14 1.60079e-14 -2.85199e-14 -7.62167e-15 2.35407e-15 2.15504e-14 -4.74671e-14 -1.54755e-14 1.31476e-14 -1.07906e-13 1.40055e-14 -7.12867e-14 -8.2638e-14 -2.00575e-14 -1.10723e-13 -4.53712e-14 -8.45501e-14 -7.3032e-14 -7.75041e-14 -5.90417e-14 5.87461e-14 -1.21125e-13 1.77359e-14 -3.7254e-14 -5.04902e-14 -4.68309e-14 6.39889e-14 -1.26534e-13 -5.85576e-14 6.98872e-14 -2.51608e-13 -7.26466e-14 -6.6577e-14 4.33452e-14 -2.05901e-14 -1.47866e-13 -1.2022e-13 -3.19017e-13 5.21669e-15 -3.34392e-13 -1.65656e-14 -9.32226e-14 1.50619e-13 -8.3382e-14 -6.27426e-14 -2.39979e-13 1.20868e-13 8.42817e-13 5.25963e-12 3.62326e-11 2.34754e-10 1.44699e-09 8.40227e-09 4.5832e-08 2.3408e-07 1.11551e-06 4.94037e-06 2.02396e-05 7.62798e-05 0.000262736 0.000820562 0.00230248 0.00574748 0.0126516 0.0244524 0.0416627 0.0634701 0.0883298 0.114867 0.142237 0.170009 0.197975 0.226033 0.254127 0.282225 0.310285 0.338262 0.366124 0.393842 0.421396 0.448771 0.475958 0.502948 0.529731 0.556295 0.582621 0.608686 0.634458 0.659899 0.684956 0.709566 0.733647 0.757102 0.779807 0.801615 0.822351 0.841815 0.859785 0.876031 0.890336 0.902527 0.912506 0.92028 0.925969 0.929802 0.932084 0.933171 0.933433 0.93336 0.933154 0.932839 0.932454 0.93204 0.931633 0.931274 0.930999 0.930855 0.930903 0.931264 0.932119 0.933627 0.935933 0.939254 0.943329 0.950087 0.954422 0.950663 0.94401 0.937879 0.933694 0.931143 0.929724 0.928984 0.928607 0.928391 0.928194 0.927925 0.927455 0.926587 0.924988 0.922091 0.916945 0.908007 0.892887 0.868138 0.829286 0.771401 0.690471 0.585645 0.461809 0.330916 0.21114 0.117859 0.0572579 0.0247293 0.00989076 0.00380038 0.00143291 0.000535207 0.000198751 7.34652e-05 2.70342e-05 9.90188e-06 3.60863e-06 1.30801e-06 4.71352e-07 1.68795e-07 6.00449e-08 2.1209e-08 7.43563e-09 2.58648e-09 8.92582e-10 3.04874e-10 1.03088e-10 3.39896e-11 1.12448e-11 3.26763e-12 6.50611e-13 2.86912e-13 -5.62817e-13 4.68404e-13 -3.07197e-13 -2.41238e-13 -2.41087e-13 -2.6095e-13 1.89596e-13 -3.76915e-13 -4.95898e-13 1.75726e-14 2.64165e-13 9.31443e-14 5.24934e-13 -2.57335e-13 2.29188e-13 2.99836e-13 -2.56546e-13 -2.25654e-13 -2.07285e-13 0 0 6.1212e-15 1.80443e-14 -2.50368e-14 3.60889e-14 -9.06239e-15 -1.25779e-14 -7.18058e-14 4.40403e-14 -7.11417e-14 -4.27813e-14 2.25663e-14 -1.22079e-13 -3.21001e-14 -3.18733e-14 -1.69055e-13 8.83867e-14 -2.10056e-13 1.3069e-13 -7.13225e-14 -1.8043e-13 1.2474e-15 -8.4059e-14 -3.54121e-14 -8.64449e-14 -3.30345e-14 6.1743e-14 -4.70151e-14 -1.29305e-13 1.12817e-13 -1.35339e-13 -1.6884e-13 2.06084e-13 -3.15786e-13 -6.63163e-14 -4.90665e-14 1.79435e-13 -2.08156e-13 -2.47735e-13 -1.65677e-13 -1.77111e-13 -6.31646e-14 -1.28308e-13 -5.36577e-14 -1.04659e-13 -1.85446e-13 2.22354e-15 1.54611e-13 -6.06011e-14 1.01717e-12 5.31663e-12 3.57615e-11 2.34764e-10 1.44696e-09 8.4029e-09 4.58323e-08 2.34079e-07 1.11551e-06 4.94037e-06 2.02396e-05 7.62798e-05 0.000262736 0.000820562 0.00230248 0.00574748 0.0126516 0.0244524 0.0416627 0.0634701 0.0883298 0.114867 0.142237 0.170009 0.197975 0.226033 0.254127 0.282225 0.310285 0.338262 0.366124 0.393842 0.421396 0.448771 0.475958 0.502948 0.529731 0.556295 0.582621 0.608686 0.634458 0.659899 0.684956 0.709566 0.733647 0.757102 0.779807 0.801615 0.822351 0.841815 0.859785 0.876031 0.890336 0.902527 0.912506 0.92028 0.925969 0.929802 0.932084 0.933171 0.933433 0.93336 0.933154 0.932839 0.932454 0.93204 0.931633 0.931274 0.930999 0.930855 0.930903 0.931264 0.932119 0.933627 0.935933 0.939254 0.943329 0.950087 0.954422 0.950663 0.94401 0.937879 0.933694 0.931143 0.929724 0.928984 0.928607 0.928391 0.928194 0.927925 0.927455 0.926587 0.924988 0.922091 0.916945 0.908007 0.892887 0.868138 0.829286 0.771401 0.690471 0.585645 0.461809 0.330916 0.21114 0.117859 0.0572579 0.0247293 0.00989076 0.00380038 0.00143291 0.000535207 0.000198751 7.34652e-05 2.70342e-05 9.90188e-06 3.60863e-06 1.30801e-06 4.71352e-07 1.68795e-07 6.00457e-08 2.12088e-08 7.43597e-09 2.58616e-09 8.92379e-10 3.05272e-10 1.02732e-10 3.45807e-11 1.06785e-11 3.04961e-12 7.20736e-13 2.72252e-13 -3.49302e-14 -5.73439e-13 1.08551e-12 -1.24314e-12 -7.23686e-13 8.27283e-13 2.9347e-13 -3.5167e-13 -6.75978e-13 -5.50863e-13 8.47242e-14 -1.93628e-13 -3.58653e-13 1.49834e-12 9.33928e-14 -2.99926e-13 1.45884e-13 4.29233e-13 2.00078e-13 0
				</DataArray>
				<DataArray Name="VitesseY" type="Float32" format="ascii">