<?xml version="1.0"?>
<VTKFile type="PolyData">
	<PolyData>
		<Piece NumberOfPoints="1206" NumberOfPolys="1000">
			<Points>
				<DataArray type="Float32" NumberOfComponents="3" format="ascii">
 0 0 0 0.005 0 0 0.01 0 0 0.015 0 0 0.02 0 0 0.025 0 0 0.03 0 0 0.035 0 0 0.04 0 0 0.045 0 0 0.05 0 0 0.055 0 0 0.06 0 0 0.065 0 0 0.07 0 0 0.075 0 0 0.08 0 0 0.085 0 0 0.09 0 0 0.095 0 0 0.1 0 0 0.105 0 0 0.11 0 0 0.115 0 0 0.12 0 0 0.125 0 0 0.13 0 0 0.135 0 0 0.14 0 0 0.145 0 0 0.15 0 0 0.155 0 0 0.16 0 0 0.165 0 0 0.17 0 0 0.175 0 0 0.18 0 0 0.185 0 0 0.19 0 0 0.195 0 0 0.2 0 0 0.205 0 0 0.21 0 0 0.215 0 0 0.22 0 0 0.225 0 0 0.23 0 0 0.235 0 0 0.24 0 0 0.245 0 0 0.25 0 0 0.255 0 0 0.26 0 0 0.265 0 0 0.27 0 0 0.275 0 0 0.28 0 0 0.285 0 0 0.29 0 0 0.295 0 0 0.3 0 0 0.305 0 0 0.31 0 0 0.315 0 0 0.32 0 0 0.325 0 0 0.33 0 0 0.335 0 0 0.34 0 0 0.345 0 0 0.35 0 0 0.355 0 0 0.36 0 0 0.365 0 0 0.37 0 0 0.375 0 0 0.38 0 0 0.385 0 0 0.39 0 0 0.395 0 0 0.4 0 0 0.405 0 0 0.41 0 0 0.415 0 0 0.42 0 0 0.425 0 0 0.43 0 0 0.435 0 0 0.44 0 0 0.445 0 0 0.45 0 0 0.455 0 0 0.46 0 0 0.465 0 0 0.47 0 0 0.475 0 0 0.48 0 0 0.485 0 0 0.49 0 0 0.495 0 0 0.5 0 0 0.505 0 0 0.51 0 0 0.515 0 0 0.52 0 0 0.525 0 0 0.53 0 0 0.535 0 0 0.54 0 0 0.545 0 0 0.55 0 0 0.555 0 0 0.56 0 0 0.565 0 0 0.57 0 0 0.575 0 0 0.58 0 0 0.585 0 0 0.59 0 0 0.595 0 0 0.6 0 0 0.605 0 0 0.61 0 0 0.615 0 0 0.62 0 0 0.625 0 0 0.63 0 0 0.635 0 0 0.64 0 0 0.645 0 0 0.65 0 0 0.655 0 0 0.66 0 0 0.665 0 0 0.67 0 0 0.675 0 0 0.68 0 0 0.685 0 0 0.69 0 0 0.695 0 0 0.7 0 0 0.705 0 0 0.71 0 0 0.715 0 0 0.72 0 0 0.725 0 0 0.73 0 0 0.735 0 0 0.74 0 0 0.745 0 0 0.75 0 0 0.755 0 0 0.76 0 0 0.765 0 0 0.77 0 0 0.775 0 0 0.78 0 0 0.785 0 0 0.79 0 0 0.795 0 0 0.8 0 0 0.805 0 0 0.81 0 0 0.815 0 0 0.82 0 0 0.825 0 0 0.83 0 0 0.835 0 0 0.84 0 0 0.845 0 0 0.85 0 0 0.855 0 0 0.86 0 0 0.865 0 0 0.87 0 0 0.875 0 0 0.88 0 0 0.885 0 0 0.89 0 0 0.895 0 0 0.9 0 0 0.905 0 0 0.91 0 0 0.915 0 0 0.92 0 0 0.925 0 0 0.93 0 0 0.935 0 0 0.94 0 0 0.945 0 0 0.95 0 0 0.955 0 0 0.96 0 0 0.965 0 0 0.97 0 0 0.975 0 0 0.98 0 0 0.985 0 0 0.99 0 0 0.995 0 0 1 0 0 0 0.02 0 0.005 0.02 0 0.01 0.02 0 0.015 0.02 0 0.02 0.02 0 0.025 0.02 0 0.03 0.02 0 0.035 0.02 0 0.04 0.02 0 0.045 0.02 0 0.05 0.02 0 0.055 0.02 0 0.06 0.02 0 0.065 0.02 0 0.07 0.02 0 0.075 0.02 0 0.08 0.02 0 0.085 0.02 0 0.09 0.02 0 0.095 0.02 0 0.1 0.02 0 0.105 0.02 0 0.11 0.02 0 0.115 0.02 0 0.12 0.02 0 0.125 0.02 0 0.13 0.02 0 0.135 0.02 0 0.14 0.02 0 0.145 0.02 0 0.15 0.02 0 0.155 0.02 0 0.16 0.02 0 0.165 0.02 0 0.17 0.02 0 0.175 0.02 0 0.18 0.02 0 0.185 0.02 0 0.19 0.02 0 0.195 0.02 0 0.2 0.02 0 0.205 0.02 0 0.21 0.02 0 0.215 0.02 0 0.22 0.02 0 0.225 0.02 0 0.23 0.02 0 0.235 0.02 0 0.24 0.02 0 0.245 0.02 0 0.25 0.02 0 0.255 0.02 0 0.26 0.02 0 0.265 0.02 0 0.27 0.02 0 0.275 0.02 0 0.28 0.02 0 0.285 0.02 0 0.29 0.02 0 0.295 0.02 0 0.3 0.02 0 0.305 0.02 0 0.31 0.02 0 0.315 0.02 0 0.32 0.02 0 0.325 0.02 0 0.33 0.02 0 0.335 0.02 0 0.34 0.02 0 0.345 0.02 0 0.35 0.02 0 0.355 0.02 0 0.36 0.02 0 0.365 0.02 0 0.37 0.02 0 0.375 0.02 0 0.38 0.02 0 0.385 0.02 0 0.39 0.02 0 0.395 0.02 0 0.4 0.02 0 0.405 0.02 0 0.41 0.02 0 0.415 0.02 0 0.42 0.02 0 0.425 0.02 0 0.43 0.02 0 0.435 0.02 0 0.44 0.02 0 0.445 0.02 0 0.45 0.02 0 0.455 0.02 0 0.46 0.02 0 0.465 0.02 0 0.47 0.02 0 0.475 0.02 0 0.48 0.02 0 0.485 0.02 0 0.49 0.02 0 0.495 0.02 0 0.5 0.02 0 0.505 0.02 0 0.51 0.02 0 0.515 0.02 0 0.52 0.02 0 0.525 0.02 0 0.53 0.02 0 0.535 0.02 0 0.54 0.02 0 0.545 0.02 0 0.55 0.02 0 0.555 0.02 0 0.56 0.02 0 0.565 0.02 0 0.57 0.02 0 0.575 0.02 0 0.58 0.02 0 0.585 0.02 0 0.59 0.02 0 0.595 0.02 0 0.6 0.02 0 0.605 0.02 0 0.61 0.02 0 0.615 0.02 0 0.62 0.02 0 0.625 0.02 0 0.63 0.02 0 0.635 0.02 0 0.64 0.02 0 0.645 0.02 0 0.65 0.02 0 0.655 0.02 0 0.66 0.02 0 0.665 0.02 0 0.67 0.02 0 0.675 0.02 0 0.68 0.02 0 0.685 0.02 0 0.69 0.02 0 0.695 0.02 0 0.7 0.02 0 0.705 0.02 0 0.71 0.02 0 0.715 0.02 0 0.72 0.02 0 0.725 0.02 0 0.73 0.02 0 0.735 0.02 0 0.74 0.02 0 0.745 0.02 0 0.75 0.02 0 0.755 0.02 0 0.76 0.02 0 0.765 0.02 0 0.77 0.02 0 0.775 0.02 0 0.78 0.02 0 0.785 0.02 0 0.79 0.02 0 0.795 0.02 0 0.8 0.02 0 0.805 0.02 0 0.81 0.02 0 0.815 0.02 0 0.82 0.02 0 0.825 0.02 0 0.83 0.02 0 0.835 0.02 0 0.84 0.02 0 0.845 0.02 0 0.85 0.02 0 0.855 0.02 0 0.86 0.02 0 0.865 0.02 0 0.87 0.02 0 0.875 0.02 0 0.88 0.02 0 0.885 0.02 0 0.89 0.02 0 0.895 0.02 0 0.9 0.02 0 0.905 0.02 0 0.91 0.02 0 0.915 0.02 0 0.92 0.02 0 0.925 0.02 0 0.93 0.02 0 0.935 0.02 0 0.94 0.02 0 0.945 0.02 0 0.95 0.02 0 0.955 0.02 0 0.96 0.02 0 0.965 0.02 0 0.97 0.02 0 0.975 0.02 0 0.98 0.02 0 0.985 0.02 0 0.99 0.02 0 0.995 0.02 0 1 0.02 0 0 0.04 0 0.005 0.04 0 0.01 0.04 0 0.015 0.04 0 0.02 0.04 0 0.025 0.04 0 0.03 0.04 0 0.035 0.04 0 0.04 0.04 0 0.045 0.04 0 0.05 0.04 0 0.055 0.04 0 0.06 0.04 0 0.065 0.04 0 0.07 0.04 0 0.075 0.04 0 0.08 0.04 0 0.085 0.04 0 0.09 0.04 0 0.095 0.04 0 0.1 0.04 0 0.105 0.04 0 0.11 0.04 0 0.115 0.04 0 0.12 0.04 0 0.125 0.04 0 0.13 0.04 0 0.135 0.04 0 0.14 0.04 0 0.145 0.04 0 0.15 0.04 0 0.155 0.04 0 0.16 0.04 0 0.165 0.04 0 0.17 0.04 0 0.175 0.04 0 0.18 0.04 0 0.185 0.04 0 0.19 0.04 0 0.195 0.04 0 0.2 0.04 0 0.205 0.04 0 0.21 0.04 0 0.215 0.04 0 0.22 0.04 0 0.225 0.04 0 0.23 0.04 0 0.235 0.04 0 0.24 0.04 0 0.245 0.04 0 0.25 0.04 0 0.255 0.04 0 0.26 0.04 0 0.265 0.04 0 0.27 0.04 0 0.275 0.04 0 0.28 0.04 0 0.285 0.04 0 0.29 0.04 0 0.295 0.04 0 0.3 0.04 0 0.305 0.04 0 0.31 0.04 0 0.315 0.04 0 0.32 0.04 0 0.325 0.04 0 0.33 0.04 0 0.335 0.04 0 0.34 0.04 0 0.345 0.04 0 0.35 0.04 0 0.355 0.04 0 0.36 0.04 0 0.365 0.04 0 0.37 0.04 0 0.375 0.04 0 0.38 0.04 0 0.385 0.04 0 0.39 0.04 0 0.395 0.04 0 0.4 0.04 0 0.405 0.04 0 0.41 0.04 0 0.415 0.04 0 0.42 0.04 0 0.425 0.04 0 0.43 0.04 0 0.435 0.04 0 0.44 0.04 0 0.445 0.04 0 0.45 0.04 0 0.455 0.04 0 0.46 0.04 0 0.465 0.04 0 0.47 0.04 0 0.475 0.04 0 0.48 0.04 0 0.485 0.04 0 0.49 0.04 0 0.495 0.04 0 0.5 0.04 0 0.505 0.04 0 0.51 0.04 0 0.515 0.04 0 0.52 0.04 0 0.525 0.04 0 0.53 0.04 0 0.535 0.04 0 0.54 0.04 0 0.545 0.04 0 0.55 0.04 0 0.555 0.04 0 0.56 0.04 0 0.565 0.04 0 0.57 0.04 0 0.575 0.04 0 0.58 0.04 0 0.585 0.04 0 0.59 0.04 0 0.595 0.04 0 0.6 0.04 0 0.605 0.04 0 0.61 0.04 0 0.615 0.04 0 0.62 0.04 0 0.625 0.04 0 0.63 0.04 0 0.635 0.04 0 0.64 0.04 0 0.645 0.04 0 0.65 0.04 0 0.655 0.04 0 0.66 0.04 0 0.665 0.04 0 0.67 0.04 0 0.675 0.04 0 0.68 0.04 0 0.685 0.04 0 0.69 0.04 0 0.695 0.04 0 0.7 0.04 0 0.705 0.04 0 0.71 0.04 0 0.715 0.04 0 0.72 0.04 0 0.725 0.04 0 0.73 0.04 0 0.735 0.04 0 0.74 0.04 0 0.745 0.04 0 0.75 0.04 0 0.755 0.04 0 0.76 0.04 0 0.765 0.04 0 0.77 0.04 0 0.775 0.04 0 0.78 0.04 0 0.785 0.04 0 0.79 0.04 0 0.795 0.04 0 0.8 0.04 0 0.805 0.04 0 0.81 0.04 0 0.815 0.04 0 0.82 0.04 0 0.825 0.04 0 0.83 0.04 0 0.835 0.04 0 0.84 0.04 0 0.845 0.04 0 0.85 0.04 0 0.855 0.04 0 0.86 0.04 0 0.865 0.04 0 0.87 0.04 0 0.875 0.04 0 0.88 0.04 0 0.885 0.04 0 0.89 0.04 0 0.895 0.04 0 0.9 0.04 0 0.905 0.04 0 0.91 0.04 0 0.915 0.04 0 0.92 0.04 0 0.925 0.04 0 0.93 0.04 0 0.935 0.04 0 0.94 0.04 0 0.945 0.04 0 0.95 0.04 0 0.955 0.04 0 0.96 0.04 0 0.965 0.04 0 0.97 0.04 0 0.975 0.04 0 0.98 0.04 0 0.985 0.04 0 0.99 0.04 0 0.995 0.04 0 1 0.04 0 0 0.06 0 0.005 0.06 0 0.01 0.06 0 0.015 0.06 0 0.02 0.06 0 0.025 0.06 0 0.03 0.06 0 0.035 0.06 0 0.04 0.06 0 0.045 0.06 0 0.05 0.06 0 0.055 0.06 0 0.06 0.06 0 0.065 0.06 0 0.07 0.06 0 0.075 0.06 0 0.08 0.06 0 0.085 0.06 0 0.09 0.06 0 0.095 0.06 0 0.1 0.06 0 0.105 0.06 0 0.11 0.06 0 0.115 0.06 0 0.12 0.06 0 0.125 0.06 0 0.13 0.06 0 0.135 0.06 0 0.14 0.06 0 0.145 0.06 0 0.15 0.06 0 0.155 0.06 0 0.16 0.06 0 0.165 0.06 0 0.17 0.06 0 0.175 0.06 0 0.18 0.06 0 0.185 0.06 0 0.19 0.06 0 0.195 0.06 0 0.2 0.06 0 0.205 0.06 0 0.21 0.06 0 0.215 0.06 0 0.22 0.06 0 0.225 0.06 0 0.23 0.06 0 0.235 0.06 0 0.24 0.06 0 0.245 0.06 0 0.25 0.06 0 0.255 0.06 0 0.26 0.06 0 0.265 0.06 0 0.27 0.06 0 0.275 0.06 0 0.28 0.06 0 0.285 0.06 0 0.29 0.06 0 0.295 0.06 0 0.3 0.06 0 0.305 0.06 0 0.31 0.06 0 0.315 0.06 0 0.32 0.06 0 0.325 0.06 0 0.33 0.06 0 0.335 0.06 0 0.34 0.06 0 0.345 0.06 0 0.35 0.06 0 0.355 0.06 0 0.36 0.06 0 0.365 0.06 0 0.37 0.06 0 0.375 0.06 0 0.38 0.06 0 0.385 0.06 0 0.39 0.06 0 0.395 0.06 0 0.4 0.06 0 0.405 0.06 0 0.41 0.06 0 0.415 0.06 0 0.42 0.06 0 0.425 0.06 0 0.43 0.06 0 0.435 0.06 0 0.44 0.06 0 0.445 0.06 0 0.45 0.06 0 0.455 0.06 0 0.46 0.06 0 0.465 0.06 0 0.47 0.06 0 0.475 0.06 0 0.48 0.06 0 0.485 0.06 0 0.49 0.06 0 0.495 0.06 0 0.5 0.06 0 0.505 0.06 0 0.51 0.06 0 0.515 0.06 0 0.52 0.06 0 0.525 0.06 0 0.53 0.06 0 0.535 0.06 0 0.54 0.06 0 0.545 0.06 0 0.55 0.06 0 0.555 0.06 0 0.56 0.06 0 0.565 0.06 0 0.57 0.06 0 0.575 0.06 0 0.58 0.06 0 0.585 0.06 0 0.59 0.06 0 0.595 0.06 0 0.6 0.06 0 0.605 0.06 0 0.61 0.06 0 0.615 0.06 0 0.62 0.06 0 0.625 0.06 0 0.63 0.06 0 0.635 0.06 0 0.64 0.06 0 0.645 0.06 0 0.65 0.06 0 0.655 0.06 0 0.66 0.06 0 0.665 0.06 0 0.67 0.06 0 0.675 0.06 0 0.68 0.06 0 0.685 0.06 0 0.69 0.06 0 0.695 0.06 0 0.7 0.06 0 0.705 0.06 0 0.71 0.06 0 0.715 0.06 0 0.72 0.06 0 0.725 0.06 0 0.73 0.06 0 0.735 0.06 0 0.74 0.06 0 0.745 0.06 0 0.75 0.06 0 0.755 0.06 0 0.76 0.06 0 0.765 0.06 0 0.77 0.06 0 0.775 0.06 0 0.78 0.06 0 0.785 0.06 0 0.79 0.06 0 0.795 0.06 0 0.8 0.06 0 0.805 0.06 0 0.81 0.06 0 0.815 0.06 0 0.82 0.06 0 0.825 0.06 0 0.83 0.06 0 0.835 0.06 0 0.84 0.06 0 0.845 0.06 0 0.85 0.06 0 0.855 0.06 0 0.86 0.06 0 0.865 0.06 0 0.87 0.06 0 0.875 0.06 0 0.88 0.06 0 0.885 0.06 0 0.89 0.06 0 0.895 0.06 0 0.9 0.06 0 0.905 0.06 0 0.91 0.06 0 0.915 0.06 0 0.92 0.06 0 0.925 0.06 0 0.93 0.06 0 0.935 0.06 0 0.94 0.06 0 0.945 0.06 0 0.95 0.06 0 0.955 0.06 0 0.96 0.06 0 0.965 0.06 0 0.97 0.06 0 0.975 0.06 0 0.98 0.06 0 0.985 0.06 0 0.99 0.06 0 0.995 0.06 0 1 0.06 0 0 0.08 0 0.005 0.08 0 0.01 0.08 0 0.015 0.08 0 0.02 0.08 0 0.025 0.08 0 0.03 0.08 0 0.035 0.08 0 0.04 0.08 0 0.045 0.08 0 0.05 0.08 0 0.055 0.08 0 0.06 0.08 0 0.065 0.08 0 0.07 0.08 0 0.075 0.08 0 0.08 0.08 0 0.085 0.08 0 0.09 0.08 0 0.095 0.08 0 0.1 0.08 0 0.105 0.08 0 0.11 0.08 0 0.115 0.08 0 0.12 0.08 0 0.125 0.08 0 0.13 0.08 0 0.135 0.08 0 0.14 0.08 0 0.145 0.08 0 0.15 0.08 0 0.155 0.08 0 0.16 0.08 0 0.165 0.08 0
[...]
			<PointData Scalars="VitesseX">
				<DataArray Name="VitesseX" type="Float32" format="ascii">
 0 2.64905e-15 3.26672e-15 -2.77179e-14 1.29497e-14 2.29501e-14 -3.62615e-14 5.09058e-15 3.15828e-14 -1.02243e-15 -5.44276e-14 1.07084e-14 -3.82134e-14 -3.49315e-14 -1.89336e-14 -5.57535e-14 -6.71756e-14 -6.72471e-14 -6.95712e-14 -2.00529e-14 -4.60421e-14 -6.97597e-14 -5.24266e-14 6.08122e-14 -1.31279e-13 -6.15387e-14 1.6431e-13 -5.25828e-14 -1.43986e-14 -6.0233e-14 7.00089e-14 -5.78062e-14 4.84849e-14 -5.64852e-14 -1.89245e-13 -1.81952e-13 -6.16258e-14 -5.67492e-14 -8.53947e-15 -5.53639e-14 -1.82138e-13 2.71094e-14 -4.8485e-14 -8.96812e-14 9.72716e-14 -3.02593e-13 4.11626e-13 2.99439e-12 1.97e-11 1.25261e-10 7.5636e-10 4.31906e-09 2.32435e-08 1.17567e-07 5.572e-07 2.46577e-06 1.01472e-05 3.86473e-05 0.000135465 0.000434048 0.00126124 0.00329381 0.00766145 0.0157635 0.0286525 0.0463481 0.067808 0.0916323 0.116729 0.142462 0.168512 0.194721 0.221009 0.247331 0.27366 0.299969 0.32622 0.352386 0.378445 0.404377 0.430169 0.45581 0.481294 0.506612 0.531757 0.556717 0.581478 0.606021 0.63032 0.654345 0.678054 0.7014 0.724318 0.746734 0.768553 0.789662 0.809925 0.829181 0.847251 0.863934 0.879028 0.892341 0.90372 0.913077 0.920413 0.925828 0.929518 0.931757 0.932873 0.933207 0.933161 0.932993 0.932719 0.932374 0.93199 0.931598 0.931227 0.930898 0.930631 0.930462 0.93042 0.93058 0.931083 0.932066 0.933675 0.936037 0.939359 0.943285 0.950141 0.953007 0.949071 0.942741 0.937107 0.933275 0.930929 0.92961 0.928915 0.928563 0.928378 0.928253 0.928118 0.92791 0.927538 0.92685 0.925589 0.923311 0.919263 0.91221 0.900195 0.880296 0.848522 0.800087 0.730393 0.636855 0.521382 0.392537 0.265723 0.158795 0.0826282 0.0377199 0.0156243 0.00612029 0.00233366 0.000878771 0.000328761 0.000122458 4.54426e-05 1.67999e-05 6.18609e-06 2.26801e-06 8.27623e-07 3.00478e-07 1.08496e-07 3.8947e-08 1.38937e-08 4.92361e-09 1.73296e-09 6.05103e-10 2.09668e-10 7.16802e-11 2.46603e-11 8.11098e-12 2.80883e-12 1.09255e-13 7.53149e-13 2.60677e-13 -3.60077e-13 -1.17501e-13 6.97235e-14 -2.36065e-13 2.20037e-13 -2.71851e-13 1.36927e-14 5.54351e-14 4.21634e-13 8.77977e-13 -5.04632e-13 -4.25202e-13 9.04477e-13 -2.65068e-13 0 0 -5.77605e-15 -8.43047e-15 1.39761e-14 -1.8765e-14 -1.58763e-14 3.81047e-14 -1.43447e-15 -1.48451e-14 -4.75215e-15 1.00052e-14 -1.82417e-14 -3.2223e-14 -5.86025e-14 -9.22675e-14 -2.39733e-14 -8.06651e-14 1.95784e-14 -7.31677e-14 -9.23407e-14 -8.0072e-14 -8.11392e-14 4.56742e-15 -1.06239e-13 4.95358e-14 6.10211e-14 -8.1169e-14 5.2893e-14 -1.89722e-14 6.88749e-14 -6.33148e-14 4.55808e-14 -9.57706e-14 -9.7372e-14 -2.14908e-14 -8.03544e-14 -1.13995e-13 -3.99023e-14 -9.70101e-14 -9.05192e-14 -3.38093e-14 -1.75875e-13 -3.44699e-14 -1.70906e-14 -2.26341e-13 1.92884e-13 3.31464e-13 2.8964e-12 1.96105e-11 1.25174e-10 7.56398e-10 4.31926e-09 2.32435e-08 1.17567e-07 5.572e-07 2.46577e-06 1.01472e-05 3.86473e-05 0.000135465 0.000434048 0.00126124 0.00329381 0.00766145 0.0157635 0.0286525 0.0463481 0.067808 0.0916323 0.116729 0.142462 0.168512 0.194721 0.221009 0.247331 0.27366 0.299969 0.32622 0.352386 0.378445 0.404377 0.430169 0.45581 0.481294 0.506612 0.531757 0.556717 0.581478 0.606021 0.63032 0.654345 0.678054 0.7014 0.724318 0.746734 0.768553 0.789662 0.809925 0.829181 0.847251 0.863934 0.879028 0.892341 0.90372 0.913077 0.920413 0.925828 0.929518 0.931757 0.932873 0.933207 0.933161 0.932993 0.932719 0.932374 0.93199 0.931598 0.931227 0.930898 0.930631 0.930462 0.93042 0.93058 0.931083 0.932066 0.933675 0.936037 0.939359 0.943285 0.950141 0.953007 0.949071 0.942741 0.937107 0.933275 0.930929 0.92961 0.928915 0.928563 0.928378 0.928253 0.928118 0.92791 0.927538 0.92685 0.925589 0.923311 0.919263 0.91221 0.900195 0.880296 0.848522 0.800087 0.730393 0.636855 0.521382 0.392537 0.265723 0.158795 0.0826282 0.0377199 0.0156243 0.00612029 0.00233366 0.000878771 0.000328761 0.000122458 4.54426e-05 1.67999e-05 6.18609e-06 2.26801e-06 8.27623e-07 3.00478e-07 1.08496e-07 3.8947e-08 1.38941e-08 4.92383e-09 1.73277e-09 6.05102e-10 2.09577e-10 7.20356e-11 2.41345e-11 8.14812e-12 2.493e-12 1.08535e-12 -1.91195e-13 -1.13122e-14 2.314e-13 7.20899e-14 -2.55089e-13 1.25626e-13 -8.91095e-14 -2.07394e-14 1.77111e-13 7.30287e-15 2.2486e-13 -2.56011e-13 6.18388e-13 6.73968e-13 -3.81289e-13 4.30703e-13 0 0 -1.30787e-17 -1.46664e-15 -4.58089e-15 2.18183e-14 9.29063e-15 -4.62567e-15 -2.57526e-14 7.86969e-15 -1.28609e-14 7.19991e-15 -4.84688e-14 -6.51163e-14 -3.82017e-14 -5.82644e-14 -7.69736e-14 -5.30158e-14 -1.0796e-13 -2.71455e-14 -1.70807e-14 -8.96629e-14 -9.13989e-14 -5.33584e-14 -2.69591e-14 -7.22543e-14 3.43431e-14 9.03054e-14 6.32396e-14 3.66637e-14 -8.68094e-14 3.19711e-14 -6.72448e-14 4.00382e-14 -6.39941e-14 -8.29928e-14 -5.97298e-14 -1.0921e-13 -7.06427e-14 -6.17259e-14 -7.96683e-14 -1.80598e-13 -6.53698e-14 4.22891e-14 -5.38038e-14 -1.57442e-13 -7.97556e-14 5.31953e-13 2.94381e-12 1.97543e-11 1.25175e-10 7.56479e-10 4.31929e-09 2.32432e-08 1.17567e-07 5.572e-07 2.46577e-06 1.01472e-05 3.86473e-05 0.000135465 0.000434048 0.00126124 0.00329381 0.00766145 0.0157635 0.0286525 0.0463481 0.067808 0.0916323 0.116729 0.142462 0.168512 0.194721 0.221009 0.247331 0.27366 0.299969 0.32622 0.352386 0.378445 0.404377 0.430169 0.45581 0.481294 0.506612 0.531757 0.556717 0.581478 0.606021 0.63032 0.654345 0.678054 0.7014 0.724318 0.746734 0.768553 0.789662 0.809925 0.829181 0.847251 0.863934 0.879028 0.892341 0.90372 0.913077 0.920413 0.925828 0.929518 0.931757 0.932873 0.933207 0.933161 0.932993 0.932719 0.932374 0.93199 0.931598 0.931227 0.930898 0.930631 0.930462 0.93042 0.93058 0.931083 0.932066 0.933675 0.936037 0.939359 0.943285 0.950141 0.953007 0.949071 0.942741 0.937107 0.933275 0.930929 0.92961 0.928915 0.928563 0.928378 0.928253 0.928118 0.92791 0.927538 0.92685 0.925589 0.923311 0.919263 0.91221 0.900195 0.880296 0.848522 0.800087 0.730393 0.636855 0.521382 0.392537 0.265723 0.158795 0.0826282 0.0377199 0.0156243 0.00612029 0.00233366 0.000878771 0.000328761 0.000122458 4.54426e-05 1.67999e-05 6.18609e-06 2.26801e-06 8.27623e-07 3.00478e-07 1.08496e-07 3.89472e-08 1.38938e-08 4.92392e-09 1.73273e-09 6.05252e-10 2.09835e-10 7.21034e-11 2.44808e-11 7.68156e-12 2.6265e-12 7.21094e-13 2.19984e-13 -8.42683e-14 -2.04968e-13 3.02327e-13 1.82305e-13 -3.03138e-13 -1.75784e-13 -1.9308e-14 2.16306e-14 4.53242e-13 -2.03906e-13 1.2132e-13 -1.82958e-13 3.55841e-13 2.09862e-13 1.34197e-13 0 0 -5.43742e-15 -8.91517e-15 -3.93003e-15 3.52936e-15 8.71964e-15 -5.65218e-15 -2.90581e-14 6.85705e-15 -7.41811e-15 -5.20543e-14 -2.78102e-14 -3.23169e-14 -3.39366e-14 -5.13493e-14 -5.35086e-14 -1.18169e-13 -8.10693e-14 -1.41851e-13 -1.08347e-14 -2.3124e-16 -8.71466e-14 5.34724e-14 -1.80835e-14 -5.0534e-14 -6.02366e-15 5.19829e-14 3.09916e-14 -1.76891e-13 7.69297e-14 -4.19639e-15 4.70496e-14 1.54371e-14 -6.94913e-14 -2.04022e-13 -1.00426e-13 5.1157e-15 -1.49579e-13 -8.09148e-14 9.7808e-14 -1.01033e-13 -5.11983e-14 -2.6696e-13 7.77161e-14 1.19138e-13 -1.29527e-13 3.87427e-13 2.95245e-12 1.96395e-11 1.25304e-10 7.56597e-10 4.31913e-09 2.32434e-08 1.17567e-07 5.572e-07 2.46577e-06 1.01472e-05 3.86473e-05 0.000135465 0.000434048 0.00126124 0.00329381 0.00766145 0.0157635 0.0286525 0.0463481 0.067808 0.0916323 0.116729 0.142462 0.168512 0.194721 0.221009 0.247331 0.27366 0.299969 0.32622 0.352386 0.378445 0.404377 0.430169 0.45581 0.481294 0.506612 0.531757 0.556717 0.581478 0.606021 0.63032 0.654345 0.678054 0.7014 0.724318 0.746734 0.768553 0.789662 0.809925 0.829181 0.847251 0.863934 0.879028 0.892341 0.90372 0.913077 0.920413 0.925828 0.929518 0.931757 0.932873 0.933207 0.933161 0.932993 0.932719 0.932374 0.93199 0.931598 0.931227 0.930898 0.930631 0.930462 0.93042 0.93058 0.931083 0.932066 0.933675 0.936037 0.939359 0.943285 0.950141 0.953007 0.949071 0.942741 0.937107 0.933275 0.930929 0.92961 0.928915 0.928563 0.928378 0.928253 0.928118 0.92791 0.927538 0.92685 0.925589 0.923311 0.919263 0.91221 0.900195 0.880296 0.848522 0.800087 0.730393 0.636855 0.521382 0.392537 0.265723 0.158795 0.0826282 0.0377199 0.0156243 0.00612029 0.00233366 0.000878771 0.000328761 0.000122458 4.54426e-05 1.67999e-05 6.18609e-06 2.26801e-06 8.27624e-07 3.00478e-07 1.08496e-07 3.89468e-08 1.38939e-08 4.9237e-09 1.73254e-09 6.05533e-10 2.09874e-10 7.21276e-11 2.45956e-11 8.27479e-12 2.56284e-12 7.94353e-13 -1.76121e-14 1.02297e-13 -5.4496e-13 -1.7025e-13 1.90421e-13 -7.58751e-13 -1.30759e-13 2.94646e-13 -2.33353e-13 5.74172e-13 -7.11572e-13 8.75967e-13 -5.377e-13 -1.35128e-13 3.19668e-13 -3.69074e-13 0 0 -7.51061e-15 -1.15193e-14 1.57341e-14 -2.57212e-14 -3.1124e-14 2.37178e-14 -1.69719e-14 -2.67695e-14 -2.18225e-14 -3.45727e-14 -1.4702e-14 -2.98055e-15 -4.15165e-14 -9.29498e-14 -4.64097e-14 -9.24765e-14 -1.83805e-14 -1.04241e-13 -1.06801e-13 -6.13748e-14 -3.97161e-14 9.62887e-14 -1.15841e-13 9.44665e-14 4.39538e-14 -2.16846e-13 5.37754e-15 -1.00802e-13 1.64539e-13 -5.6755e-14 6.14826e-14 -1.49396e-13 -5.4663e-14 -5.11014e-14 -6.57543e-14 -8.76707e-14 -1.55389e-13 -1.78652e-13 2.79964e-14 1.11263e-14 -1.4269e-13 -1.93299e-13 -5.13082e-15 -1.28676e-14 2.51089e-13 2.53655e-13 2.88628e-12 1.96423e-11 1.25247e-10 7.56656e-10 4.31923e-09 2.32435e-08 1.17566e-07 5.572e-07 2.46577e-06 1.01472e-05 3.86473e-05 0.000135465 0.000434048 0.00126124 0.00329381 0.00766145 0.0157635 0.0286525 0.0463481 0.067808 0.0916323 0.116729 0.142462 0.168512 0.194721 0.221009 0.247331 0.27366 0.299969 0.32622 0.352386 0.378445 0.404377 0.430169 0.45581 0.481294 0.506612 0.531757 0.556717 0.581478 0.606021 0.63032 0.654345 0.678054 0.7014 0.724318 0.746734 0.768553 0.789662 0.809925 0.829181 0.847251 0.863934 0.879028 0.892341 0.90372 0.913077 0.920413 0.925828 0.929518 0.931757 0.932873 0.933207 0.933161 0.932993 0.932719 0.932374 0.93199 0.931598 0.931227 0.930898 0.930631 0.930462 0.93042 0.93058 0.931083 0.932066 0.933675 0.936037 0.939359 0.943285 0.950141 0.953007 0.949071 0.942741 0.937107 0.933275 0.930929 0.92961 0.928915 0.928563 0.928378 0.928253 0.928118 0.92791 0.927538 0.92685 0.925589 0.923311 0.919263 0.91221 0.900195 0.880296 0.848522 0.800087 0.730393 0.636855 0.521382 0.392537 0.265723 0.158795 0.0826282 0.0377199 0.0156243 0.00612029 0.00233366 0.000878771 0.000328761 0.000122458 4.54426e-05 1.67999e-05 6.18609e-06 2.26801e-06 8.27623e-07 3.00478e-07 1.08496e-07 3.89467e-08 1.38941e-08 4.92386e-09 1.73254e-09 6.05447e-10 2.09688e-10 7.2124e-11 2.42275e-11 8.40573e-12 2.34815e-12 1.13872e-12 -3.58664e-13 -3.96436e-14 1.30883e-13 -9.22244e-14 -1.82962e-13 -1.49581e-13 -2.90138e-13 4.03707e-14 -6.7929e-14 5.42624e-15 -9.85129e-14 1.36991e-13 -1.7117e-14 2.61159e-13 -3.96204e-13 1.96376e-13 0 0 1.00286e-14 1.19862e-14 -2.55035e-14 3.56152e-14 -6.40322e-15 -6.29823e-14 -1.93733e-14 9.75936e-15 -4.60488e-14 -2.50751e-14 -2.35293e-14 -4.53273e-14 -9.28967e-15 -3.41284e-14 -1.47556e-13 3.95082e-14 -1.96947e-13 9.7694e-14 -6.14666e-14 -1.87511e-13 4.58183e-15 -8.26455e-14 2.38564e-14 -8.48587e-14 -1.49398e-14 -3.03982e-14 -8.31176e-14 2.49051e-13 -1.96383e-13 1.55464e-13 -2.54591e-13 -9.56355e-15 3.99272e-14 -6.40886e-15 -7.13583e-14 -2.37629e-13 -1.2985e-13 -1.33445e-13 -1.73285e-13 -2.51397e-13 6.51364e-14 2.52354e-13 -3.28802e-13 -2.89423e-14 -8.66412e-14 5.45059e-13 2.95686e-12 1.99932e-11 1.2515e-10 7.56642e-10 4.31933e-09 2.32433e-08 1.17567e-07 5.572e-07 2.46577e-06 1.01472e-05 3.86473e-05 0.000135465 0.000434048 0.00126124 0.00329381 0.00766145 0.0157635 0.0286525 0.0463481 0.067808 0.0916323 0.116729 0.142462 0.168512 0.194721 0.221009 0.247331 0.27366 0.299969 0.32622 0.352386 0.378445 0.404377 0.430169 0.45581 0.481294 0.506612 0.531757 0.556717 0.581478 0.606021 0.63032 0.654345 0.678054 0.7014 0.724318 0.746734 0.768553 0.789662 0.809925 0.829181 0.847251 0.863934 0.879028 0.892341 0.90372 0.913077 0.920413 0.925828 0.929518 0.931757 0.932873 0.933207 0.933161 0.932993 0.932719 0.932374 0.93199 0.931598 0.931227 0.930898 0.930631 0.930462 0.93042 0.93058 0.931083 0.932066 0.933675 0.936037 0.939359 0.943285 0.950141 0.953007 0.949071 0.942741 0.937107 0.933275 0.930929 0.92961 0.928915 0.928563 0.928378 0.928253 0.928118 0.92791 0.927538 0.92685 0.925589 0.923311 0.919263 0.91221 0.900195 0.880296 0.848522 0.800087 0.730393 0.636855 0.521382 0.392537 0.265723 0.158795 0.0826282 0.0377199 0.0156243 0.00612029 0.00233366 0.000878771 0.000328761 0.000122458 4.54426e-05 1.67999e-05 6.18609e-06 2.26801e-06 8.27623e-07 3.00478e-07 1.08496e-07 3.89471e-08 1.38938e-08 4.92412e-09 1.73288e-09 6.05232e-10 2.09814e-10 7.18083e-11 2.46167e-11 7.43973e-12 2.64644e-12 6.94822e-14 8.93404e-13 -1.69116e-13 1.18874e-13 4.99025e-13 1.97745e-13 1.24746e-13 -2.72069e-13 -7.77539e-13 3.35805e-14 -1.90179e-13 7.9022e-13 1.54688e-13 -1.06616e-12 -2.68881e-13 6.55034e-13 2.7282e-13 0
				</DataArray>
				<DataArray Name="VitesseY" type="Float32" format="ascii">