<?xml version="1.0"?>
<VTKFile type="PolyData">
	<PolyData>
		<Piece NumberOfPoints="1206" NumberOfPolys="1000">
			<Points>
				<DataArray type="Float32" NumberOfComponents="3" format="ascii">
 0 0 0 0.005 0 0 0.01 0 0 0.015 0 0 0.02 0 0 0.025 0 0 0.03 0 0 0.035 0 0 0.04 0 0 0.045 0 0 0.05 0 0 0.055 0 0 0.06 0 0 0.065 0 0 0.07 0 0 0.075 0 0 0.08 0 0 0.085 0 0 0.09 0 0 0.095 0 0 0.1 0 0 0.105 0 0 0.11 0 0 0.115 0 0 0.12 0 0 0.125 0 0 0.13 0 0 0.135 0 0 0.14 0 0 0.145 0 0 0.15 0 0 0.155 0 0 0.16 0 0 0.165 0 0 0.17 0 0 0.175 0 0 0.18 0 0 0.185 0 0 0.19 0 0 0.195 0 0 0.2 0 0 0.205 0 0 0.21 0 0 0.215 0 0 0.22 0 0 0.225 0 0 0.23 0 0 0.235 0 0 0.24 0 0 0.245 0 0 0.25 0 0 0.255 0 0 0.26 0 0 0.265 0 0 0.27 0 0 0.275 0 0 0.28 0 0 0.285 0 0 0.29 0 0 0.295 0 0 0.3 0 0 0.305 0 0 0.31 0 0 0.315 0 0 0.32 0 0 0.325 0 0 0.33 0 0 0.335 0 0 0.34 0 0 0.345 0 0 0.35 0 0 0.355 0 0 0.36 0 0 0.365 0 0 0.37 0 0 0.375 0 0 0.38 0 0 0.385 0 0 0.39 0 0 0.395 0 0 0.4 0 0 0.405 0 0 0.41 0 0 0.415 0 0 0.42 0 0 0.425 0 0 0.43 0 0 0.435 0 0 0.44 0 0 0.445 0 0 0.45 0 0 0.455 0 0 0.46 0 0 0.465 0 0 0.47 0 0 0.475 0 0 0.48 0 0 0.485 0 0 0.49 0 0 0.495 0 0 0.5 0 0 0.505 0 0 0.51 0 0 0.515 0 0 0.52 0 0 0.525 0 0 0.53 0 0 0.535 0 0 0.54 0 0 0.545 0 0 0.55 0 0 0.555 0 0 0.56 0 0 0.565 0 0 0.57 0 0 0.575 0 0 0.58 0 0 0.585 0 0 0.59 0 0 0.595 0 0 0.6 0 0 0.605 0 0 0.61 0 0 0.615 0 0 0.62 0 0 0.625 0 0 0.63 0 0 0.635 0 0 0.64 0 0 0.645 0 0 0.65 0 0 0.655 0 0 0.66 0 0 0.665 0 0 0.67 0 0 0.675 0 0 0.68 0 0 0.685 0 0 0.69 0 0 0.695 0 0 0.7 0 0 0.705 0 0 0.71 0 0 0.715 0 0 0.72 0 0 0.725 0 0 0.73 0 0 0.735 0 0 0.74 0 0 0.745 0 0 0.75 0 0 0.755 0 0 0.76 0 0 0.765 0 0 0.77 0 0 0.775 0 0 0.78 0 0 0.785 0 0 0.79 0 0 0.795 0 0 0.8 0 0 0.805 0 0 0.81 0 0 0.815 0 0 0.82 0 0 0.825 0 0 0.83 0 0 0.835 0 0 0.84 0 0 0.845 0 0 0.85 0 0 0.855 0 0 0.86 0 0 0.865 0 0 0.87 0 0 0.875 0 0 0.88 0 0 0.885 0 0 0.89 0 0 0.895 0 0 0.9 0 0 0.905 0 0 0.91 0 0 0.915 0 0 0.92 0 0 0.925 0 0 0.93 0 0 0.935 0 0 0.94 0 0 0.945 0 0 0.95 0 0 0.955 0 0 0.96 0 0 0.965 0 0 0.97 0 0 0.975 0 0 0.98 0 0 0.985 0 0 0.99 0 0 0.995 0 0 1 0 0 0 0.02 0 0.005 0.02 0 0.01 0.02 0 0.015 0.02 0 0.02 0.02 0 0.025 0.02 0 0.03 0.02 0 0.035 0.02 0 0.04 0.02 0 0.045 0.02 0 0.05 0.02 0 0.055 0.02 0 0.06 0.02 0 0.065 0.02 0 0.07 0.02 0 0.075 0.02 0 0.08 0.02 0 0.085 0.02 0 0.09 0.02 0 0.095 0.02 0 0.1 0.02 0 0.105 0.02 0 0.11 0.02 0 0.115 0.02 0 0.12 0.02 0 0.125 0.02 0 0.13 0.02 0 0.135 0.02 0 0.14 0.02 0 0.145 0.02 0 0.15 0.02 0 0.155 0.02 0 0.16 0.02 0 0.165 0.02 0 0.17 0.02 0 0.175 0.02 0 0.18 0.02 0 0.185 0.02 0 0.19 0.02 0 0.195 0.02 0 0.2 0.02 0 0.205 0.02 0 0.21 0.02 0 0.215 0.02 0 0.22 0.02 0 0.225 0.02 0 0.23 0.02 0 0.235 0.02 0 0.24 0.02 0 0.245 0.02 0 0.25 0.02 0 0.255 0.02 0 0.26 0.02 0 0.265 0.02 0 0.27 0.02 0 0.275 0.02 0 0.28 0.02 0 0.285 0.02 0 0.29 0.02 0 0.295 0.02 0 0.3 0.02 0 0.305 0.02 0 0.31 0.02 0 0.315 0.02 0 0.32 0.02 0 0.325 0.02 0 0.33 0.02 0 0.335 0.02 0 0.34 0.02 0 0.345 0.02 0 0.35 0.02 0 0.355 0.02 0 0.36 0.02 0 0.365 0.02 0 0.37 0.02 0 0.375 0.02 0 0.38 0.02 0 0.385 0.02 0 0.39 0.02 0 0.395 0.02 0 0.4 0.02 0 0.405 0.02 0 0.41 0.02 0 0.415 0.02 0 0.42 0.02 0 0.425 0.02 0 0.43 0.02 0 0.435 0.02 0 0.44 0.02 0 0.445 0.02 0 0.45 0.02 0 0.455 0.02 0 0.46 0.02 0 0.465 0.02 0 0.47 0.02 0 0.475 0.02 0 0.48 0.02 0 0.485 0.02 0 0.49 0.02 0 0.495 0.02 0 0.5 0.02 0 0.505 0.02 0 0.51 0.02 0 0.515 0.02 0 0.52 0.02 0 0.525 0.02 0 0.53 0.02 0 0.535 0.02 0 0.54 0.02 0 0.545 0.02 0 0.55 0.02 0 0.555 0.02 0 0.56 0.02 0 0.565 0.02 0 0.57 0.02 0 0.575 0.02 0 0.58 0.02 0 0.585 0.02 0 0.59 0.02 0 0.595 0.02 0 0.6 0.02 0 0.605 0.02 0 0.61 0.02 0 0.615 0.02 0 0.62 0.02 0 0.625 0.02 0 0.63 0.02 0 0.635 0.02 0 0.64 0.02 0 0.645 0.02 0 0.65 0.02 0 0.655 0.02 0 0.66 0.02 0 0.665 0.02 0 0.67 0.02 0 0.675 0.02 0 0.68 0.02 0 0.685 0.02 0 0.69 0.02 0 0.695 0.02 0 0.7 0.02 0 0.705 0.02 0 0.71 0.02 0 0.715 0.02 0 0.72 0.02 0 0.725 0.02 0 0.73 0.02 0 0.735 0.02 0 0.74 0.02 0 0.745 0.02 0 0.75 0.02 0 0.755 0.02 0 0.76 0.02 0 0.765 0.02 0 0.77 0.02 0 0.775 0.02 0 0.78 0.02 0 0.785 0.02 0 0.79 0.02 0 0.795 0.02 0 0.8 0.02 0 0.805 0.02 0 0.81 0.02 0 0.815 0.02 0 0.82 0.02 0 0.825 0.02 0 0.83 0.02 0 0.835 0.02 0 0.84 0.02 0 0.845 0.02 0 0.85 0.02 0 0.855 0.02 0 0.86 0.02 0 0.865 0.02 0 0.87 0.02 0 0.875 0.02 0 0.88 0.02 0 0.885 0.02 0 0.89 0.02 0 0.895 0.02 0 0.9 0.02 0 0.905 0.02 0 0.91 0.02 0 0.915 0.02 0 0.92 0.02 0 0.925 0.02 0 0.93 0.02 0 0.935 0.02 0 0.94 0.02 0 0.945 0.02 0 0.95 0.02 0 0.955 0.02 0 0.96 0.02 0 0.965 0.02 0 0.97 0.02 0 0.975 0.02 0 0.98 0.02 0 0.985 0.02 0 0.99 0.02 0 0.995 0.02 0 1 0.02 0 0 0.04 0 0.005 0.04 0 0.01 0.04 0 0.015 0.04 0 0.02 0.04 0 0.025 0.04 0 0.03 0.04 0 0.035 0.04 0 0.04 0.04 0 0.045 0.04 0 0.05 0.04 0 0.055 0.04 0 0.06 0.04 0 0.065 0.04 0 0.07 0.04 0 0.075 0.04 0 0.08 0.04 0 0.085 0.04 0 0.09 0.04 0 0.095 0.04 0 0.1 0.04 0 0.105 0.04 0 0.11 0.04 0 0.115 0.04 0 0.12 0.04 0 0.125 0.04 0 0.13 0.04 0 0.135 0.04 0 0.14 0.04 0 0.145 0.04 0 0.15 0.04 0 0.155 0.04 0 0.16 0.04 0 0.165 0.04 0 0.17 0.04 0 0.175 0.04 0 0.18 0.04 0 0.185 0.04 0 0.19 0.04 0 0.195 0.04 0 0.2 0.04 0 0.205 0.04 0 0.21 0.04 0 0.215 0.04 0 0.22 0.04 0 0.225 0.04 0 0.23 0.04 0 0.235 0.04 0 0.24 0.04 0 0.245 0.04 0 0.25 0.04 0 0.255 0.04 0 0.26 0.04 0 0.265 0.04 0 0.27 0.04 0 0.275 0.04 0 0.28 0.04 0 0.285 0.04 0 0.29 0.04 0 0.295 0.04 0 0.3 0.04 0 0.305 0.04 0 0.31 0.04 0 0.315 0.04 0 0.32 0.04 0 0.325 0.04 0 0.33 0.04 0 0.335 0.04 0 0.34 0.04 0 0.345 0.04 0 0.35 0.04 0 0.355 0.04 0 0.36 0.04 0 0.365 0.04 0 0.37 0.04 0 0.375 0.04 0 0.38 0.04 0 0.385 0.04 0 0.39 0.04 0 0.395 0.04 0 0.4 0.04 0 0.405 0.04 0 0.41 0.04 0 0.415 0.04 0 0.42 0.04 0 0.425 0.04 0 0.43 0.04 0 0.435 0.04 0 0.44 0.04 0 0.445 0.04 0 0.45 0.04 0 0.455 0.04 0 0.46 0.04 0 0.465 0.04 0 0.47 0.04 0 0.475 0.04 0 0.48 0.04 0 0.485 0.04 0 0.49 0.04 0 0.495 0.04 0 0.5 0.04 0 0.505 0.04 0 0.51 0.04 0 0.515 0.04 0 0.52 0.04 0 0.525 0.04 0 0.53 0.04 0 0.535 0.04 0 0.54 0.04 0 0.545 0.04 0 0.55 0.04 0 0.555 0.04 0 0.56 0.04 0 0.565 0.04 0 0.57 0.04 0 0.575 0.04 0 0.58 0.04 0 0.585 0.04 0 0.59 0.04 0 0.595 0.04 0 0.6 0.04 0 0.605 0.04 0 0.61 0.04 0 0.615 0.04 0 0.62 0.04 0 0.625 0.04 0 0.63 0.04 0 0.635 0.04 0 0.64 0.04 0 0.645 0.04 0 0.65 0.04 0 0.655 0.04 0 0.66 0.04 0 0.665 0.04 0 0.67 0.04 0 0.675 0.04 0 0.68 0.04 0 0.685 0.04 0 0.69 0.04 0 0.695 0.04 0 0.7 0.04 0 0.705 0.04 0 0.71 0.04 0 0.715 0.04 0 0.72 0.04 0 0.725 0.04 0 0.73 0.04 0 0.735 0.04 0 0.74 0.04 0 0.745 0.04 0 0.75 0.04 0 0.755 0.04 0 0.76 0.04 0 0.765 0.04 0 0.77 0.04 0 0.775 0.04 0 0.78 0.04 0 0.785 0.04 0 0.79 0.04 0 0.795 0.04 0 0.8 0.04 0 0.805 0.04 0 0.81 0.04 0 0.815 0.04 0 0.82 0.04 0 0.825 0.04 0 0.83 0.04 0 0.835 0.04 0 0.84 0.04 0 0.845 0.04 0 0.85 0.04 0 0.855 0.04 0 0.86 0.04 0 0.865 0.04 0 0.87 0.04 0 0.875 0.04 0 0.88 0.04 0 0.885 0.04 0 0.89 0.04 0 0.895 0.04 0 0.9 0.04 0 0.905 0.04 0 0.91 0.04 0 0.915 0.04 0 0.92 0.04 0 0.925 0.04 0 0.93 0.04 0 0.935 0.04 0 0.94 0.04 0 0.945 0.04 0 0.95 0.04 0 0.955 0.04 0 0.96 0.04 0 0.965 0.04 0 0.97 0.04 0 0.975 0.04 0 0.98 0.04 0 0.985 0.04 0 0.99 0.04 0 0.995 0.04 0 1 0.04 0 0 0.06 0 0.005 0.06 0 0.01 0.06 0 0.015 0.06 0 0.02 0.06 0 0.025 0.06 0 0.03 0.06 0 0.035 0.06 0 0.04 0.06 0 0.045 0.06 0 0.05 0.06 0 0.055 0.06 0 0.06 0.06 0 0.065 0.06 0 0.07 0.06 0 0.075 0.06 0 0.08 0.06 0 0.085 0.06 0 0.09 0.06 0 0.095 0.06 0 0.1 0.06 0 0.105 0.06 0 0.11 0.06 0 0.115 0.06 0 0.12 0.06 0 0.125 0.06 0 0.13 0.06 0 0.135 0.06 0 0.14 0.06 0 0.145 0.06 0 0.15 0.06 0 0.155 0.06 0 0.16 0.06 0 0.165 0.06 0 0.17 0.06 0 0.175 0.06 0 0.18 0.06 0 0.185 0.06 0 0.19 0.06 0 0.195 0.06 0 0.2 0.06 0 0.205 0.06 0 0.21 0.06 0 0.215 0.06 0 0.22 0.06 0 0.225 0.06 0 0.23 0.06 0 0.235 0.06 0 0.24 0.06 0 0.245 0.06 0 0.25 0.06 0 0.255 0.06 0 0.26 0.06 0 0.265 0.06 0 0.27 0.06 0 0.275 0.06 0 0.28 0.06 0 0.285 0.06 0 0.29 0.06 0 0.295 0.06 0 0.3 0.06 0 0.305 0.06 0 0.31 0.06 0 0.315 0.06 0 0.32 0.06 0 0.325 0.06 0 0.33 0.06 0 0.335 0.06 0 0.34 0.06 0 0.345 0.06 0 0.35 0.06 0 0.355 0.06 0 0.36 0.06 0 0.365 0.06 0 0.37 0.06 0 0.375 0.06 0 0.38 0.06 0 0.385 0.06 0 0.39 0.06 0 0.395 0.06 0 0.4 0.06 0 0.405 0.06 0 0.41 0.06 0 0.415 0.06 0 0.42 0.06 0 0.425 0.06 0 0.43 0.06 0 0.435 0.06 0 0.44 0.06 0 0.445 0.06 0 0.45 0.06 0 0.455 0.06 0 0.46 0.06 0 0.465 0.06 0 0.47 0.06 0 0.475 0.06 0 0.48 0.06 0 0.485 0.06 0 0.49 0.06 0 0.495 0.06 0 0.5 0.06 0 0.505 0.06 0 0.51 0.06 0 0.515 0.06 0 0.52 0.06 0 0.525 0.06 0 0.53 0.06 0 0.535 0.06 0 0.54 0.06 0 0.545 0.06 0 0.55 0.06 0 0.555 0.06 0 0.56 0.06 0 0.565 0.06 0 0.57 0.06 0 0.575 0.06 0 0.58 0.06 0 0.585 0.06 0 0.59 0.06 0 0.595 0.06 0 0.6 0.06 0 0.605 0.06 0 0.61 0.06 0 0.615 0.06 0 0.62 0.06 0 0.625 0.06 0 0.63 0.06 0 0.635 0.06 0 0.64 0.06 0 0.645 0.06 0 0.65 0.06 0 0.655 0.06 0 0.66 0.06 0 0.665 0.06 0 0.67 0.06 0 0.675 0.06 0 0.68 0.06 0 0.685 0.06 0 0.69 0.06 0 0.695 0.06 0 0.7 0.06 0 0.705 0.06 0 0.71 0.06 0 0.715 0.06 0 0.72 0.06 0 0.725 0.06 0 0.73 0.06 0 0.735 0.06 0 0.74 0.06 0 0.745 0.06 0 0.75 0.06 0 0.755 0.06 0 0.76 0.06 0 0.765 0.06 0 0.77 0.06 0 0.775 0.06 0 0.78 0.06 0 0.785 0.06 0 0.79 0.06 0 0.795 0.06 0 0.8 0.06 0 0.805 0.06 0 0.81 0.06 0 0.815 0.06 0 0.82 0.06 0 0.825 0.06 0 0.83 0.06 0 0.835 0.06 0 0.84 0.06 0 0.845 0.06 0 0.85 0.06 0 0.855 0.06 0 0.86 0.06 0 0.865 0.06 0 0.87 0.06 0 0.875 0.06 0 0.88 0.06 0 0.885 0.06 0 0.89 0.06 0 0.895 0.06 0 0.9 0.06 0 0.905 0.06 0 0.91 0.06 0 0.915 0.06 0 0.92 0.06 0 0.925 0.06 0 0.93 0.06 0 0.935 0.06 0 0.94 0.06 0 0.945 0.06 0 0.95 0.06 0 0.955 0.06 0 0.96 0.06 0 0.965 0.06 0 0.97 0.06 0 0.975 0.06 0 0.98 0.06 0 0.985 0.06 0 0.99 0.06 0 0.995 0.06 0 1 0.06 0 0 0.08 0 0.005 0.08 0 0.01 0.08 0 0.015 0.08 0 0.02 0.08 0 0.025 0.08 0 0.03 0.08 0 0.035 0.08 0 0.04 0.08 0 0.045 0.08 0 0.05 0.08 0 0.055 0.08 0 0.06 0.08 0 0.065 0.08 0 0.07 0.08 0 0.075 0.08 0 0.08 0.08 0 0.085 0.08 0 0.09 0.08 0 0.095 0.08 0 0.1 0.08 0 0.105 0.08 0 0.11 0.08 0 0.115 0.08 0 0.12 0.08 0 0.125 0.08 0 0.13 0.08 0 0.135 0.08 0 0.14 0.08 0 0.145 0.08 0 0.15 0.08 0 0.155 0.08 0 0.16 0.08 0 0.165 0.08 0
[...]
			<PointData Scalars="VitesseX">
				<DataArray Name="VitesseX" type="Float32" format="ascii">
 0 2.41435e-14 1.92998e-15 7.22767e-14 -3.74443e-14 -2.56326e-14 1.18525e-14 2.89692e-15 -1.53294e-15 1.76139e-14 -1.25521e-14 -1.30845e-13 6.21453e-14 -1.82929e-13 3.73827e-14 1.95078e-14 -1.04379e-13 5.26832e-14 -7.70973e-14 -7.4119e-14 -1.48731e-13 -8.44697e-14 -1.63773e-13 -2.37365e-14 -5.37523e-14 -9.35756e-14 -6.59362e-14 -1.31856e-13 -4.43375e-15 -4.2031e-14 -6.17278e-14 8.25046e-14 -1.12194e-13 -8.12704e-14 -5.93208e-14 -1.31374e-13 8.90905e-14 -2.83355e-13 6.61615e-14 -3.8183e-13 -2.0285e-13 -2.49558e-13 -3.26947e-13 -1.44771e-13 2.81856e-13 5.27184e-14 1.21584e-13 -2.39667e-13 1.11529e-13 -1.23903e-13 9.33799e-14 -8.27501e-14 -3.90819e-13 2.96313e-13 -3.07207e-13 -2.2665e-13 2.06211e-13 -4.37359e-13 1.99332e-13 1.11698e-13 -1.24966e-13 -1.91388e-13 -1.93138e-13 2.16345e-13 -1.24066e-13 -1.29545e-13 -2.5071e-13 -1.25139e-13 1.7821e-13 1.94451e-13 5.78611e-12 6.38158e-11 6.44253e-10 6.00587e-09 5.09983e-08 3.9243e-07 2.71735e-06 1.67939e-05 9.17131e-05 0.000437095 0.00178973 0.00617737 0.0176141 0.0409115 0.0777315 0.12453 0.176235 0.229786 0.283873 0.337942 0.391367 0.443579 0.494446 0.544044 0.592311 0.63911 0.684194 0.727207 0.767645 0.804905 0.83825 0.866956 0.890438 0.908406 0.921094 0.92925 0.933929 0.936383 0.937911 0.939674 0.942632 0.9478 0.955697 0.970845 0.968946 0.957404 0.94447 0.93549 0.928513 0.920615 0.908506 0.887797 0.85319 0.798881 0.719905 0.614514 0.487046 0.349747 0.222165 0.122133 0.0574652 0.023584 0.00882307 0.00313284 0.00107959 0.000364353 0.000120776 3.93425e-05 1.25908e-05 3.95688e-06 1.22053e-06 3.69369e-07 1.09632e-07 3.19052e-08 9.10219e-09 2.54524e-09 6.97099e-10 1.87578e-10 4.91287e-11 1.28934e-11 2.51222e-12 -2.6951e-13 5.53626e-13 -2.27993e-13 2.54858e-14 -4.96586e-13 8.99639e-15 1.05465e-13 5.67946e-13 2.54417e-13 -8.60449e-13 -4.71004e-13 -1.75747e-13 4.55708e-13 8.37691e-13 -6.80494e-13 -2.4111e-13 -1.2747e-13 1.9214e-13 -8.14414e-14 4.2441e-14 2.39607e-14 2.07696e-13 -8.02533e-13 2.37568e-14 -5.73459e-13 2.9573e-13 -4.67457e-13 -9.90782e-13 3.59392e-13 3.52268e-13 6.94984e-13 -1.516e-13 -9.70845e-13 2.10546e-13 5.15919e-13 -7.88388e-14 -6.78812e-13 -1.16458e-12 1.81412e-13 -5.0321e-14 -6.06914e-13 -5.95198e-13 -3.32674e-13 2.28148e-13 2.6713e-13 -1.21092e-12 3.1183e-13 2.39043e-13 1.24794e-12 0 0 -5.80327e-15 2.21734e-14 -2.76344e-14 4.90384e-14 3.16093e-14 1.80296e-14 -1.52996e-14 -2.05665e-14 -2.03558e-14 -6.29257e-14 1.60239e-14 -1.33967e-13 6.15142e-14 -9.89239e-14 -7.65256e-15 7.72732e-15 -8.51229e-14 -1.45944e-14 -6.5804e-14 -5.80397e-14 -1.36896e-13 -5.4136e-14 -1.02063e-13 -7.90079e-14 -3.13612e-14 -1.45265e-13 -5.99835e-14 -6.99552e-14 6.17036e-15 -3.77399e-14 -7.8007e-14 -3.30182e-14 -5.75027e-14 -5.65382e-14 4.90353e-14 -2.35167e-13 -3.04508e-14 -3.09367e-13 5.39666e-14 -1.79156e-13 -1.68379e-13 -6.26277e-14 -8.36907e-14 -2.45473e-14 -6.11791e-14 -9.65141e-14 1.61453e-13 4.43786e-14 1.86644e-13 -1.24449e-13 -3.53018e-13 8.70166e-14 -4.50742e-13 5.74057e-14 -8.79252e-14 -3.5341e-13 2.41628e-13 -1.12207e-13 -2.90255e-14 -5.74661e-14 -7.39075e-14 1.16891e-13 -2.84243e-13 1.84509e-14 -1.51183e-13 -1.2459e-13 3.42835e-14 -2.11986e-13 4.06676e-13 6.11325e-12 6.33246e-11 6.44785e-10 6.00521e-09 5.09998e-08 3.92429e-07 2.71735e-06 1.67939e-05 9.17131e-05 0.000437095 0.00178973 0.00617737 0.0176141 0.0409115 0.0777315 0.12453 0.176235 0.229786 0.283873 0.337942 0.391367 0.443579 0.494446 0.544044 0.592311 0.63911 0.684194 0.727207 0.767645 0.804905 0.83825 0.866956 0.890438 0.908406 0.921094 0.92925 0.933929 0.936383 0.937911 0.939674 0.942632 0.9478 0.955697 0.970845 0.968946 0.957404 0.94447 0.93549 0.928513 0.920615 0.908506 0.887797 0.85319 0.798881 0.719905 0.614514 0.487046 0.349747 0.222165 0.122133 0.0574652 0.023584 0.00882307 0.00313284 0.00107959 0.000364353 0.000120776 3.93425e-05 1.25908e-05 3.95688e-06 1.22053e-06 3.6937e-07 1.09632e-07 3.19051e-08 9.10198e-09 2.54513e-09 6.97935e-10 1.87128e-10 4.91084e-11 1.21255e-11 3.10106e-12 8.74665e-13 -5.42852e-13 -9.66304e-14 -6.72011e-13 1.5292e-13 3.34868e-13 -2.0151e-13 -2.22291e-13 -5.64043e-13 2.69946e-13 1.94472e-13 -2.03901e-13 -4.15201e-13 -5.35019e-13 3.45111e-13 2.06278e-13 1.58304e-13 -8.47647e-14 -8.13865e-16 -1.48667e-13 -1.6246e-13 2.23729e-14 2.71311e-13 -4.70314e-13 -3.97593e-13 -6.18649e-13 -2.09028e-13 2.71224e-13 -2.91106e-14 -2.09373e-13 -1.25648e-13 9.35159e-14 6.49457e-13 -2.32336e-13 -2.0022e-13 -2.18637e-13 1.33204e-13 2.33771e-13 -7.20618e-13 -6.6866e-13 -2.55239e-13 -1.41794e-13 -3.8963e-14 -1.15024e-12 -3.84917e-13 8.99206e-13 7.68516e-13 -3.56763e-13 -1.2853e-12 0 0 -6.2053e-16 -4.20539e-15 2.0127e-14 3.63581e-14 2.38037e-14 3.58671e-14 -1.33221e-14 1.84379e-14 -2.92227e-14 -1.42214e-14 -6.80305e-14 -4.46745e-14 -6.24664e-14 -2.7566e-15 -4.58779e-14 3.22456e-14 -6.77949e-15 -1.3721e-13 -8.25631e-14 -3.24931e-14 -2.20657e-14 -7.4827e-14 -6.38672e-14 -7.15442e-14 -8.59037e-14 -3.29751e-14 -2.25894e-14 -1.2981e-13 -5.85807e-14 -1.20502e-13 2.55513e-14 -4.68916e-14 -4.95555e-14 6.0661e-14 -2.49796e-13 5.16081e-14 -1.98364e-13 -6.6672e-14 -1.11587e-13 -7.35013e-14 -7.70162e-14 -1.0844e-13 -4.09282e-14 -2.20055e-14 7.81025e-14 -4.45206e-14 -1.77429e-13 5.49487e-14 -1.82181e-13 -5.90304e-14 3.64132e-15 -2.15942e-13 1.17758e-13 -1.74399e-13 -2.63756e-13 -9.17338e-14 -9.32282e-14 1.86846e-14 9.17945e-14 3.98776e-14 4.91426e-15 -2.21978e-13 -1.37759e-13 -1.27214e-13 -7.65621e-14 -5.71676e-14 -1.92129e-13 8.15061e-15 5.55352e-13 5.8301e-12 6.3861e-11 6.44728e-10 6.00578e-09 5.09992e-08 3.92429e-07 2.71735e-06 1.67939e-05 9.17131e-05 0.000437095 0.00178973 0.00617737 0.0176141 0.0409115 0.0777315 0.12453 0.176235 0.229786 0.283873 0.337942 0.391367 0.443579 0.494446 0.544044 0.592311 0.63911 0.684194 0.727207 0.767645 0.804905 0.83825 0.866956 0.890438 0.908406 0.921094 0.92925 0.933929 0.936383 0.937911 0.939674 0.942632 0.9478 0.955697 0.970845 0.968946 0.957404 0.94447 0.93549 0.928513 0.920615 0.908506 0.887797 0.85319 0.798881 0.719905 0.614514 0.487046 0.349747 0.222165 0.122133 0.0574652 0.023584 0.00882307 0.00313284 0.00107959 0.000364353 0.000120776 3.93425e-05 1.25908e-05 3.95688e-06 1.22053e-06 3.6937e-07 1.09632e-07 3.19052e-08 9.10233e-09 2.54521e-09 6.97188e-10 1.87296e-10 4.90796e-11 1.26887e-11 3.03171e-12 3.36344e-13 -1.67e-13 -5.1952e-13 -1.49688e-13 1.87388e-14 -1.25711e-13 -2.67832e-13 -4.98213e-13 -1.83588e-13 2.48214e-15 1.01477e-14 -4.80417e-13 7.00889e-14 -3.48891e-13 -6.98982e-13 1.54219e-13 2.79687e-13 -4.04638e-15 4.3476e-14 2.36132e-13 -5.74157e-15 -3.30068e-13 -3.15379e-15 -3.93285e-13 -1.08509e-13 -8.38053e-13 -3.10842e-13 3.98125e-13 -2.98009e-14 1.83959e-13 7.47836e-14 1.34431e-13 1.32871e-13 8.88942e-14 3.90107e-13 -9.37471e-14 -1.40401e-13 -6.16206e-13 -1.99749e-13 1.92771e-13 -4.39028e-13 -2.34747e-13 -7.31825e-13 -1.91799e-13 -5.71793e-15 3.45744e-13 6.6396e-13 -1.80026e-13 -1.0652e-13 0 0 4.27452e-14 3.62332e-14 5.41895e-14 -2.35388e-16 4.39719e-15 3.28637e-14 -2.77077e-14 -1.94149e-14 -3.49983e-14 5.10942e-14 -6.76485e-14 6.60646e-15 -9.17459e-14 9.29348e-15 1.02315e-14 -8.9003e-14 -2.70649e-14 -1.23958e-13 -8.57973e-14 -3.61401e-14 -4.68485e-14 -4.67372e-14 -3.04987e-14 7.56271e-14 -8.65679e-14 -2.8871e-14 -8.9553e-14 -5.15698e-14 -1.79321e-14 -7.20295e-14 -1.05946e-13 -1.12901e-13 -1.21425e-13 -9.96964e-14 -8.00682e-15 4.45131e-15 -1.10416e-13 -2.98306e-14 -2.15725e-13 -1.17725e-13 -3.51924e-13 -1.84806e-14 6.83162e-14 1.50316e-13 -1.29425e-13 5.08154e-14 -1.74186e-13 3.06699e-14 -7.2257e-14 1.93483e-15 -8.53351e-14 -2.51829e-13 -7.03249e-14 -3.68628e-13 -1.00479e-13 -3.30928e-14 -1.03176e-13 1.28663e-13 1.33056e-13 1.06767e-13 -1.5171e-13 8.45505e-14 -5.44443e-14 -2.32732e-13 -2.20328e-13 -3.51952e-13 1.04459e-13 9.85252e-14 5.09822e-13 5.65628e-12 6.39692e-11 6.44956e-10 6.00564e-09 5.0999e-08 3.9243e-07 2.71735e-06 1.67939e-05 9.17131e-05 0.000437095 0.00178973 0.00617737 0.0176141 0.0409115 0.0777315 0.12453 0.176235 0.229786 0.283873 0.337942 0.391367 0.443579 0.494446 0.544044 0.592311 0.63911 0.684194 0.727207 0.767645 0.804905 0.83825 0.866956 0.890438 0.908406 0.921094 0.92925 0.933929 0.936383 0.937911 0.939674 0.942632 0.9478 0.955697 0.970845 0.968946 0.957404 0.94447 0.93549 0.928513 0.920615 0.908506 0.887797 0.85319 0.798881 0.719905 0.614514 0.487046 0.349747 0.222165 0.122133 0.0574652 0.023584 0.00882307 0.00313284 0.00107959 0.000364353 0.000120776 3.93425e-05 1.25908e-05 3.95688e-06 1.22053e-06 3.6937e-07 1.09632e-07 3.19052e-08 9.10202e-09 2.54505e-09 6.97255e-10 1.87236e-10 4.90888e-11 1.26611e-11 3.05633e-12 1.25122e-13 2.87814e-13 -4.53587e-14 -1.35742e-13 -4.91674e-13 -3.46945e-13 1.38113e-13 2.49246e-13 -4.5165e-14 -8.61094e-13 -9.14903e-14 -3.35412e-13 -3.78391e-13 8.53545e-14 8.04539e-14 -5.35616e-13 -3.95943e-13 5.97653e-13 1.13236e-13 -2.80175e-14 -4.4815e-13 -1.3585e-14 -9.78691e-13 9.33428e-14 -4.34524e-13 3.92013e-14 -6.40293e-13 -2.06381e-13 3.73775e-13 4.16724e-13 2.61525e-13 -7.3259e-14 -2.47286e-14 1.00424e-13 2.51383e-13 2.47731e-13 -4.574e-13 -5.15486e-13 -4.7352e-13 -6.69679e-13 1.7956e-13 -3.35435e-13 -7.80905e-13 1.592e-13 -1.20115e-13 1.14314e-13 4.86738e-14 1.98737e-13 7.6159e-13 0 0 1.32563e-14 3.69276e-14 -5.26413e-15 4.09795e-14 9.71517e-15 -1.11512e-15 -4.01582e-14 -4.55363e-14 -2.01359e-14 -2.519e-14 5.72683e-14 -9.03327e-14 8.78494e-14 -9.06178e-14 -1.53928e-14 -4.62603e-14 -1.10215e-13 5.52957e-14 -4.3853e-14 -3.55328e-14 -8.92584e-14 3.32429e-14 -5.97812e-14 4.546e-14 -2.7351e-14 -1.61715e-13 -8.38356e-14 -5.29469e-14 -1.73748e-14 -5.84849e-14 -1.78352e-13 -5.40505e-14 -7.18937e-14 -1.50644e-13 3.37767e-14 -1.88771e-13 3.95447e-14 -3.55862e-13 -5.74223e-15 -1.8683e-13 -2.37626e-13 1.67025e-13 2.72779e-14 9.41092e-15 -1.27382e-13 4.1412e-14 2.38618e-13 9.40924e-15 1.93905e-13 -1.77451e-13 -3.63476e-13 4.20865e-15 -6.10341e-13 -8.18612e-14 4.24916e-14 -3.58306e-13 3.77725e-13 -1.25885e-13 -1.16558e-14 3.06837e-14 -1.21865e-13 1.3739e-13 -1.63696e-13 -8.03042e-14 -3.57258e-13 -2.35441e-13 1.73013e-13 5.51536e-14 7.45376e-13 6.08539e-12 6.35076e-11 6.45123e-10 6.00518e-09 5.1e-08 3.92429e-07 2.71735e-06 1.67939e-05 9.17131e-05 0.000437095 0.00178973 0.00617737 0.0176141 0.0409115 0.0777315 0.12453 0.176235 0.229786 0.283873 0.337942 0.391367 0.443579 0.494446 0.544044 0.592311 0.63911 0.684194 0.727207 0.767645 0.804905 0.83825 0.866956 0.890438 0.908406 0.921094 0.92925 0.933929 0.936383 0.937911 0.939674 0.942632 0.9478 0.955697 0.970845 0.968946 0.957404 0.94447 0.93549 0.928513 0.920615 0.908506 0.887797 0.85319 0.798881 0.719905 0.614514 0.487046 0.349747 0.222165 0.122133 0.0574652 0.023584 0.00882307 0.00313284 0.00107959 0.000364353 0.000120776 3.93425e-05 1.25908e-05 3.95688e-06 1.22053e-06 3.6937e-07 1.09632e-07 3.19053e-08 9.10153e-09 2.54492e-09 6.97812e-10 1.86929e-10 4.91369e-11 1.23231e-11 3.04423e-12 1.20752e-12 -4.85364e-13 -2.05198e-13 -8.25465e-13 3.21992e-13 6.09121e-13 2.14628e-13 -1.18088e-13 -4.67576e-13 -3.60695e-14 1.6754e-13 -1.75553e-13 -5.94582e-13 -6.3815e-13 5.57009e-13 -7.26455e-13 -1.25497e-13 3.36638e-13 -4.45463e-14 3.28792e-13 -7.31251e-13 4.48659e-14 -2.84264e-13 -5.04354e-13 -5.24506e-13 -4.72612e-13 -6.02362e-13 -1.92207e-14 -9.85454e-14 -4.25402e-14 5.494e-13 2.6551e-13 5.79787e-13 -2.12614e-13 -7.23711e-13 -1.01291e-14 -2.77311e-13 7.58115e-13 -9.3069e-13 -7.32241e-13 9.89423e-14 -3.26261e-13 -3.21237e-13 -6.793e-13 -3.05705e-13 1.18687e-12 2.24776e-13 6.96591e-13 -8.00909e-13 0 0 -2.44687e-14 -4.94388e-14 4.88922e-14 1.96248e-14 -3.06078e-14 -2.04301e-14 -1.80492e-14 2.42331e-14 2.96049e-14 -6.77119e-14 -4.91204e-14 4.6852e-14 -7.16997e-14 2.98947e-14 -1.08191e-13 3.01428e-14 4.30698e-14 3.61796e-14 -2.37485e-14 -9.64234e-14 6.03706e-14 -4.51949e-14 -5.90985e-15 -9.9159e-14 -8.42269e-14 -1.07045e-13 -4.56325e-14 -1.26899e-13 -1.70419e-13 -2.00163e-13 1.44809e-13 -2.22394e-14 3.36871e-14 7.31817e-14 -6.4547e-13 2.76195e-13 -3.19261e-13 -1.00512e-13 -2.92972e-13 -1.29751e-13 1.61763e-13 -4.75605e-14 -1.41322e-13 5.12933e-15 3.35369e-13 2.06764e-13 -9.18211e-14 9.01481e-14 -3.29229e-13 -1.34555e-13 7.42868e-14 -4.84661e-13 3.53282e-13 -1.97281e-13 -2.9237e-13 7.91369e-14 -1.45269e-13 -4.79817e-14 6.39145e-14 -8.24447e-14 2.59467e-14 -7.65196e-13 2.90809e-13 -1.10542e-13 -2.54163e-13 1.17155e-13 -4.40856e-13 5.31741e-13 9.62909e-13 6.07803e-12 6.39653e-11 6.44474e-10 6.00608e-09 5.09989e-08 3.9243e-07 2.71735e-06 1.67939e-05 9.17131e-05 0.000437095 0.00178973 0.00617737 0.0176141 0.0409115 0.0777315 0.12453 0.176235 0.229786 0.283873 0.337942 0.391367 0.443579 0.494446 0.544044 0.592311 0.63911 0.684194 0.727207 0.767645 0.804905 0.83825 0.866956 0.890438 0.908406 0.921094 0.92925 0.933929 0.936383 0.937911 0.939674 0.942632 0.9478 0.955697 0.970845 0.968946 0.957404 0.94447 0.93549 0.928513 0.920615 0.908506 0.887797 0.85319 0.798881 0.719905 0.614514 0.487046 0.349747 0.222165 0.122133 0.0574652 0.023584 0.00882307 0.00313284 0.00107959 0.000364353 0.000120776 3.93425e-05 1.25908e-05 3.95688e-06 1.22053e-06 3.6937e-07 1.09632e-07 3.19056e-08 9.10194e-09 2.54514e-09 6.96718e-10 1.87299e-10 4.91672e-11 1.33438e-11 2.3493e-12 8.18645e-13 -2.41025e-13 -1.39345e-12 -3.09313e-13 8.62382e-13 9.9997e-13 1.25851e-13 -7.18566e-13 1.70504e-13 2.54671e-13 -3.21592e-13 -4.09061e-13 9.93907e-13 -2.37062e-13 -1.81557e-12 -7.26908e-13 6.56186e-13 -1.68452e-13 -3.08426e-13 1.52566e-12 -2.28804e-13 -3.80285e-13 3.73914e-14 -1.01758e-12 -1.75256e-13 -1.16671e-12 -5.95223e-13 -3.62661e-13 -5.8663e-13 2.20403e-13 1.6716e-12 6.07768e-13 -7.94986e-13 2.26931e-13 -2.53617e-13 -3.44779e-13 -8.65844e-13 -3.17334e-13 3.08809e-13 1.54742e-12 -1.13573e-12 -7.62755e-13 -7.99061e-13 4.68028e-13 6.54348e-13 -1.72733e-13 4.54923e-13 1.58823e-12 4.80513e-13 0
				</DataArray>
				<DataArray Name="VitesseY" type="Float32" format="ascii">