<?xml version="1.0"?>
<VTKFile type="PolyData">
	<PolyData>
		<Piece NumberOfPoints="1206" NumberOfPolys="1000">
			<Points>
				<DataArray type="Float32" NumberOfComponents="3" format="ascii">
 0 0 0 0.005 0 0 0.01 0 0 0.015 0 0 0.02 0 0 0.025 0 0 0.03 0 0 0.035 0 0 0.04 0 0 0.045 0 0 0.05 0 0 0.055 0 0 0.06 0 0 0.065 0 0 0.07 0 0 0.075 0 0 0.08 0 0 0.085 0 0 0.09 0 0 0.095 0 0 0.1 0 0 0.105 0 0 0.11 0 0 0.115 0 0 0.12 0 0 0.125 0 0 0.13 0 0 0.135 0 0 0.14 0 0 0.145 0 0 0.15 0 0 0.155 0 0 0.16 0 0 0.165 0 0 0.17 0 0 0.175 0 0 0.18 0 0 0.185 0 0 0.19 0 0 0.195 0 0 0.2 0 0 0.205 0 0 0.21 0 0 0.215 0 0 0.22 0 0 0.225 0 0 0.23 0 0 0.235 0 0 0.24 0 0 0.245 0 0 0.25 0 0 0.255 0 0 0.26 0 0 0.265 0 0 0.27 0 0 0.275 0 0 0.28 0 0 0.285 0 0 0.29 0 0 0.295 0 0 0.3 0 0 0.305 0 0 0.31 0 0 0.315 0 0 0.32 0 0 0.325 0 0 0.33 0 0 0.335 0 0 0.34 0 0 0.345 0 0 0.35 0 0 0.355 0 0 0.36 0 0 0.365 0 0 0.37 0 0 0.375 0 0 0.38 0 0 0.385 0 0 0.39 0 0 0.395 0 0 0.4 0 0 0.405 0 0 0.41 0 0 0.415 0 0 0.42 0 0 0.425 0 0 0.43 0 0 0.435 0 0 0.44 0 0 0.445 0 0 0.45 0 0 0.455 0 0 0.46 0 0 0.465 0 0 0.47 0 0 0.475 0 0 0.48 0 0 0.485 0 0 0.49 0 0 0.495 0 0 0.5 0 0 0.505 0 0 0.51 0 0 0.515 0 0 0.52 0 0 0.525 0 0 0.53 0 0 0.535 0 0 0.54 0 0 0.545 0 0 0.55 0 0 0.555 0 0 0.56 0 0 0.565 0 0 0.57 0 0 0.575 0 0 0.58 0 0 0.585 0 0 0.59 0 0 0.595 0 0 0.6 0 0 0.605 0 0 0.61 0 0 0.615 0 0 0.62 0 0 0.625 0 0 0.63 0 0 0.635 0 0 0.64 0 0 0.645 0 0 0.65 0 0 0.655 0 0 0.66 0 0 0.665 0 0 0.67 0 0 0.675 0 0 0.68 0 0 0.685 0 0 0.69 0 0 0.695 0 0 0.7 0 0 0.705 0 0 0.71 0 0 0.715 0 0 0.72 0 0 0.725 0 0 0.73 0 0 0.735 0 0 0.74 0 0 0.745 0 0 0.75 0 0 0.755 0 0 0.76 0 0 0.765 0 0 0.77 0 0 0.775 0 0 0.78 0 0 0.785 0 0 0.79 0 0 0.795 0 0 0.8 0 0 0.805 0 0 0.81 0 0 0.815 0 0 0.82 0 0 0.825 0 0 0.83 0 0 0.835 0 0 0.84 0 0 0.845 0 0 0.85 0 0 0.855 0 0 0.86 0 0 0.865 0 0 0.87 0 0 0.875 0 0 0.88 0 0 0.885 0 0 0.89 0 0 0.895 0 0 0.9 0 0 0.905 0 0 0.91 0 0 0.915 0 0 0.92 0 0 0.925 0 0 0.93 0 0 0.935 0 0 0.94 0 0 0.945 0 0 0.95 0 0 0.955 0 0 0.96 0 0 0.965 0 0 0.97 0 0 0.975 0 0 0.98 0 0 0.985 0 0 0.99 0 0 0.995 0 0 1 0 0 0 0.02 0 0.005 0.02 0 0.01 0.02 0 0.015 0.02 0 0.02 0.02 0 0.025 0.02 0 0.03 0.02 0 0.035 0.02 0 0.04 0.02 0 0.045 0.02 0 0.05 0.02 0 0.055 0.02 0 0.06 0.02 0 0.065 0.02 0 0.07 0.02 0 0.075 0.02 0 0.08 0.02 0 0.085 0.02 0 0.09 0.02 0 0.095 0.02 0 0.1 0.02 0 0.105 0.02 0 0.11 0.02 0 0.115 0.02 0 0.12 0.02 0 0.125 0.02 0 0.13 0.02 0 0.135 0.02 0 0.14 0.02 0 0.145 0.02 0 0.15 0.02 0 0.155 0.02 0 0.16 0.02 0 0.165 0.02 0 0.17 0.02 0 0.175 0.02 0 0.18 0.02 0 0.185 0.02 0 0.19 0.02 0 0.195 0.02 0 0.2 0.02 0 0.205 0.02 0 0.21 0.02 0 0.215 0.02 0 0.22 0.02 0 0.225 0.02 0 0.23 0.02 0 0.235 0.02 0 0.24 0.02 0 0.245 0.02 0 0.25 0.02 0 0.255 0.02 0 0.26 0.02 0 0.265 0.02 0 0.27 0.02 0 0.275 0.02 0 0.28 0.02 0 0.285 0.02 0 0.29 0.02 0 0.295 0.02 0 0.3 0.02 0 0.305 0.02 0 0.31 0.02 0 0.315 0.02 0 0.32 0.02 0 0.325 0.02 0 0.33 0.02 0 0.335 0.02 0 0.34 0.02 0 0.345 0.02 0 0.35 0.02 0 0.355 0.02 0 0.36 0.02 0 0.365 0.02 0 0.37 0.02 0 0.375 0.02 0 0.38 0.02 0 0.385 0.02 0 0.39 0.02 0 0.395 0.02 0 0.4 0.02 0 0.405 0.02 0 0.41 0.02 0 0.415 0.02 0 0.42 0.02 0 0.425 0.02 0 0.43 0.02 0 0.435 0.02 0 0.44 0.02 0 0.445 0.02 0 0.45 0.02 0 0.455 0.02 0 0.46 0.02 0 0.465 0.02 0 0.47 0.02 0 0.475 0.02 0 0.48 0.02 0 0.485 0.02 0 0.49 0.02 0 0.495 0.02 0 0.5 0.02 0 0.505 0.02 0 0.51 0.02 0 0.515 0.02 0 0.52 0.02 0 0.525 0.02 0 0.53 0.02 0 0.535 0.02 0 0.54 0.02 0 0.545 0.02 0 0.55 0.02 0 0.555 0.02 0 0.56 0.02 0 0.565 0.02 0 0.57 0.02 0 0.575 0.02 0 0.58 0.02 0 0.585 0.02 0 0.59 0.02 0 0.595 0.02 0 0.6 0.02 0 0.605 0.02 0 0.61 0.02 0 0.615 0.02 0 0.62 0.02 0 0.625 0.02 0 0.63 0.02 0 0.635 0.02 0 0.64 0.02 0 0.645 0.02 0 0.65 0.02 0 0.655 0.02 0 0.66 0.02 0 0.665 0.02 0 0.67 0.02 0 0.675 0.02 0 0.68 0.02 0 0.685 0.02 0 0.69 0.02 0 0.695 0.02 0 0.7 0.02 0 0.705 0.02 0 0.71 0.02 0 0.715 0.02 0 0.72 0.02 0 0.725 0.02 0 0.73 0.02 0 0.735 0.02 0 0.74 0.02 0 0.745 0.02 0 0.75 0.02 0 0.755 0.02 0 0.76 0.02 0 0.765 0.02 0 0.77 0.02 0 0.775 0.02 0 0.78 0.02 0 0.785 0.02 0 0.79 0.02 0 0.795 0.02 0 0.8 0.02 0 0.805 0.02 0 0.81 0.02 0 0.815 0.02 0 0.82 0.02 0 0.825 0.02 0 0.83 0.02 0 0.835 0.02 0 0.84 0.02 0 0.845 0.02 0 0.85 0.02 0 0.855 0.02 0 0.86 0.02 0 0.865 0.02 0 0.87 0.02 0 0.875 0.02 0 0.88 0.02 0 0.885 0.02 0 0.89 0.02 0 0.895 0.02 0 0.9 0.02 0 0.905 0.02 0 0.91 0.02 0 0.915 0.02 0 0.92 0.02 0 0.925 0.02 0 0.93 0.02 0 0.935 0.02 0 0.94 0.02 0 0.945 0.02 0 0.95 0.02 0 0.955 0.02 0 0.96 0.02 0 0.965 0.02 0 0.97 0.02 0 0.975 0.02 0 0.98 0.02 0 0.985 0.02 0 0.99 0.02 0 0.995 0.02 0 1 0.02 0 0 0.04 0 0.005 0.04 0 0.01 0.04 0 0.015 0.04 0 0.02 0.04 0 0.025 0.04 0 0.03 0.04 0 0.035 0.04 0 0.04 0.04 0 0.045 0.04 0 0.05 0.04 0 0.055 0.04 0 0.06 0.04 0 0.065 0.04 0 0.07 0.04 0 0.075 0.04 0 0.08 0.04 0 0.085 0.04 0 0.09 0.04 0 0.095 0.04 0 0.1 0.04 0 0.105 0.04 0 0.11 0.04 0 0.115 0.04 0 0.12 0.04 0 0.125 0.04 0 0.13 0.04 0 0.135 0.04 0 0.14 0.04 0 0.145 0.04 0 0.15 0.04 0 0.155 0.04 0 0.16 0.04 0 0.165 0.04 0 0.17 0.04 0 0.175 0.04 0 0.18 0.04 0 0.185 0.04 0 0.19 0.04 0 0.195 0.04 0 0.2 0.04 0 0.205 0.04 0 0.21 0.04 0 0.215 0.04 0 0.22 0.04 0 0.225 0.04 0 0.23 0.04 0 0.235 0.04 0 0.24 0.04 0 0.245 0.04 0 0.25 0.04 0 0.255 0.04 0 0.26 0.04 0 0.265 0.04 0 0.27 0.04 0 0.275 0.04 0 0.28 0.04 0 0.285 0.04 0 0.29 0.04 0 0.295 0.04 0 0.3 0.04 0 0.305 0.04 0 0.31 0.04 0 0.315 0.04 0 0.32 0.04 0 0.325 0.04 0 0.33 0.04 0 0.335 0.04 0 0.34 0.04 0 0.345 0.04 0 0.35 0.04 0 0.355 0.04 0 0.36 0.04 0 0.365 0.04 0 0.37 0.04 0 0.375 0.04 0 0.38 0.04 0 0.385 0.04 0 0.39 0.04 0 0.395 0.04 0 0.4 0.04 0 0.405 0.04 0 0.41 0.04 0 0.415 0.04 0 0.42 0.04 0 0.425 0.04 0 0.43 0.04 0 0.435 0.04 0 0.44 0.04 0 0.445 0.04 0 0.45 0.04 0 0.455 0.04 0 0.46 0.04 0 0.465 0.04 0 0.47 0.04 0 0.475 0.04 0 0.48 0.04 0 0.485 0.04 0 0.49 0.04 0 0.495 0.04 0 0.5 0.04 0 0.505 0.04 0 0.51 0.04 0 0.515 0.04 0 0.52 0.04 0 0.525 0.04 0 0.53 0.04 0 0.535 0.04 0 0.54 0.04 0 0.545 0.04 0 0.55 0.04 0 0.555 0.04 0 0.56 0.04 0 0.565 0.04 0 0.57 0.04 0 0.575 0.04 0 0.58 0.04 0 0.585 0.04 0 0.59 0.04 0 0.595 0.04 0 0.6 0.04 0 0.605 0.04 0 0.61 0.04 0 0.615 0.04 0 0.62 0.04 0 0.625 0.04 0 0.63 0.04 0 0.635 0.04 0 0.64 0.04 0 0.645 0.04 0 0.65 0.04 0 0.655 0.04 0 0.66 0.04 0 0.665 0.04 0 0.67 0.04 0 0.675 0.04 0 0.68 0.04 0 0.685 0.04 0 0.69 0.04 0 0.695 0.04 0 0.7 0.04 0 0.705 0.04 0 0.71 0.04 0 0.715 0.04 0 0.72 0.04 0 0.725 0.04 0 0.73 0.04 0 0.735 0.04 0 0.74 0.04 0 0.745 0.04 0 0.75 0.04 0 0.755 0.04 0 0.76 0.04 0 0.765 0.04 0 0.77 0.04 0 0.775 0.04 0 0.78 0.04 0 0.785 0.04 0 0.79 0.04 0 0.795 0.04 0 0.8 0.04 0 0.805 0.04 0 0.81 0.04 0 0.815 0.04 0 0.82 0.04 0 0.825 0.04 0 0.83 0.04 0 0.835 0.04 0 0.84 0.04 0 0.845 0.04 0 0.85 0.04 0 0.855 0.04 0 0.86 0.04 0 0.865 0.04 0 0.87 0.04 0 0.875 0.04 0 0.88 0.04 0 0.885 0.04 0 0.89 0.04 0 0.895 0.04 0 0.9 0.04 0 0.905 0.04 0 0.91 0.04 0 0.915 0.04 0 0.92 0.04 0 0.925 0.04 0 0.93 0.04 0 0.935 0.04 0 0.94 0.04 0 0.945 0.04 0 0.95 0.04 0 0.955 0.04 0 0.96 0.04 0 0.965 0.04 0 0.97 0.04 0 0.975 0.04 0 0.98 0.04 0 0.985 0.04 0 0.99 0.04 0 0.995 0.04 0 1 0.04 0 0 0.06 0 0.005 0.06 0 0.01 0.06 0 0.015 0.06 0 0.02 0.06 0 0.025 0.06 0 0.03 0.06 0 0.035 0.06 0 0.04 0.06 0 0.045 0.06 0 0.05 0.06 0 0.055 0.06 0 0.06 0.06 0 0.065 0.06 0 0.07 0.06 0 0.075 0.06 0 0.08 0.06 0 0.085 0.06 0 0.09 0.06 0 0.095 0.06 0 0.1 0.06 0 0.105 0.06 0 0.11 0.06 0 0.115 0.06 0 0.12 0.06 0 0.125 0.06 0 0.13 0.06 0 0.135 0.06 0 0.14 0.06 0 0.145 0.06 0 0.15 0.06 0 0.155 0.06 0 0.16 0.06 0 0.165 0.06 0 0.17 0.06 0 0.175 0.06 0 0.18 0.06 0 0.185 0.06 0 0.19 0.06 0 0.195 0.06 0 0.2 0.06 0 0.205 0.06 0 0.21 0.06 0 0.215 0.06 0 0.22 0.06 0 0.225 0.06 0 0.23 0.06 0 0.235 0.06 0 0.24 0.06 0 0.245 0.06 0 0.25 0.06 0 0.255 0.06 0 0.26 0.06 0 0.265 0.06 0 0.27 0.06 0 0.275 0.06 0 0.28 0.06 0 0.285 0.06 0 0.29 0.06 0 0.295 0.06 0 0.3 0.06 0 0.305 0.06 0 0.31 0.06 0 0.315 0.06 0 0.32 0.06 0 0.325 0.06 0 0.33 0.06 0 0.335 0.06 0 0.34 0.06 0 0.345 0.06 0 0.35 0.06 0 0.355 0.06 0 0.36 0.06 0 0.365 0.06 0 0.37 0.06 0 0.375 0.06 0 0.38 0.06 0 0.385 0.06 0 0.39 0.06 0 0.395 0.06 0 0.4 0.06 0 0.405 0.06 0 0.41 0.06 0 0.415 0.06 0 0.42 0.06 0 0.425 0.06 0 0.43 0.06 0 0.435 0.06 0 0.44 0.06 0 0.445 0.06 0 0.45 0.06 0 0.455 0.06 0 0.46 0.06 0 0.465 0.06 0 0.47 0.06 0 0.475 0.06 0 0.48 0.06 0 0.485 0.06 0 0.49 0.06 0 0.495 0.06 0 0.5 0.06 0 0.505 0.06 0 0.51 0.06 0 0.515 0.06 0 0.52 0.06 0 0.525 0.06 0 0.53 0.06 0 0.535 0.06 0 0.54 0.06 0 0.545 0.06 0 0.55 0.06 0 0.555 0.06 0 0.56 0.06 0 0.565 0.06 0 0.57 0.06 0 0.575 0.06 0 0.58 0.06 0 0.585 0.06 0 0.59 0.06 0 0.595 0.06 0 0.6 0.06 0 0.605 0.06 0 0.61 0.06 0 0.615 0.06 0 0.62 0.06 0 0.625 0.06 0 0.63 0.06 0 0.635 0.06 0 0.64 0.06 0 0.645 0.06 0 0.65 0.06 0 0.655 0.06 0 0.66 0.06 0 0.665 0.06 0 0.67 0.06 0 0.675 0.06 0 0.68 0.06 0 0.685 0.06 0 0.69 0.06 0 0.695 0.06 0 0.7 0.06 0 0.705 0.06 0 0.71 0.06 0 0.715 0.06 0 0.72 0.06 0 0.725 0.06 0 0.73 0.06 0 0.735 0.06 0 0.74 0.06 0 0.745 0.06 0 0.75 0.06 0 0.755 0.06 0 0.76 0.06 0 0.765 0.06 0 0.77 0.06 0 0.775 0.06 0 0.78 0.06 0 0.785 0.06 0 0.79 0.06 0 0.795 0.06 0 0.8 0.06 0 0.805 0.06 0 0.81 0.06 0 0.815 0.06 0 0.82 0.06 0 0.825 0.06 0 0.83 0.06 0 0.835 0.06 0 0.84 0.06 0 0.845 0.06 0 0.85 0.06 0 0.855 0.06 0 0.86 0.06 0 0.865 0.06 0 0.87 0.06 0 0.875 0.06 0 0.88 0.06 0 0.885 0.06 0 0.89 0.06 0 0.895 0.06 0 0.9 0.06 0 0.905 0.06 0 0.91 0.06 0 0.915 0.06 0 0.92 0.06 0 0.925 0.06 0 0.93 0.06 0 0.935 0.06 0 0.94 0.06 0 0.945 0.06 0 0.95 0.06 0 0.955 0.06 0 0.96 0.06 0 0.965 0.06 0 0.97 0.06 0 0.975 0.06 0 0.98 0.06 0 0.985 0.06 0 0.99 0.06 0 0.995 0.06 0 1 0.06 0 0 0.08 0 0.005 0.08 0 0.01 0.08 0 0.015 0.08 0 0.02 0.08 0 0.025 0.08 0 0.03 0.08 0 0.035 0.08 0 0.04 0.08 0 0.045 0.08 0 0.05 0.08 0 0.055 0.08 0 0.06 0.08 0 0.065 0.08 0 0.07 0.08 0 0.075 0.08 0 0.08 0.08 0 0.085 0.08 0 0.09 0.08 0 0.095 0.08 0 0.1 0.08 0 0.105 0.08 0 0.11 0.08 0 0.115 0.08 0 0.12 0.08 0 0.125 0.08 0 0.13 0.08 0 0.135 0.08 0 0.14 0.08 0 0.145 0.08 0 0.15 0.08 0 0.155 0.08 0 0.16 0.08 0 0.165 0.08 0
[...]
			<PointData Scalars="VitesseX">
				<DataArray Name="VitesseX" type="Float32" format="ascii">
 0 -3.16784e-15 -8.18909e-15 -2.08287e-14 1.64807e-15 -1.75027e-14 -2.52025e-14 -2.67678e-14 1.43815e-14 -6.97457e-15 -7.64418e-14 4.30901e-14 -4.46832e-14 -2.81243e-14 -3.08892e-14 -7.42511e-14 -8.79644e-15 -1.76838e-13 1.4545e-14 -4.83795e-14 -1.3699e-13 -3.04622e-14 -2.45881e-13 -1.13706e-14 1.88607e-14 2.78485e-14 -5.66619e-14 3.97508e-14 -4.03688e-14 -3.2721e-14 -5.5724e-14 -6.57728e-14 1.38768e-14 -1.27844e-13 -1.3063e-13 -1.11564e-13 -1.70655e-13 -7.39551e-14 1.64441e-15 -1.30184e-13 -1.39243e-13 -1.23977e-13 -5.01357e-14 7.06799e-14 -5.90196e-14 -1.156e-13 5.2493e-13 3.34062e-12 2.12658e-11 1.35469e-10 8.1634e-10 4.64569e-09 2.49215e-08 1.25645e-07 5.93494e-07 2.61731e-06 1.07321e-05 4.07217e-05 0.000142172 0.000453632 0.00131226 0.00341075 0.00789374 0.0161586 0.0292266 0.0470712 0.0686226 0.092486 0.117589 0.143311 0.169342 0.195528 0.22179 0.248085 0.274388 0.300668 0.32689 0.353028 0.379057 0.404961 0.430724 0.456338 0.481794 0.507086 0.532204 0.557139 0.581874 0.606392 0.630666 0.654666 0.678351 0.701672 0.724567 0.746958 0.768753 0.789838 0.810076 0.829309 0.847354 0.864015 0.879086 0.892378 0.903737 0.913077 0.920399 0.925804 0.929488 0.931726 0.932843 0.933181 0.933136 0.93297 0.932699 0.932356 0.931975 0.931586 0.931217 0.930889 0.930622 0.930452 0.930408 0.930562 0.931055 0.932022 0.933609 0.935945 0.939231 0.94314 0.949855 0.95305 0.949224 0.942922 0.937246 0.933365 0.930982 0.929638 0.928929 0.928569 0.928382 0.928258 0.928125 0.927924 0.927566 0.926904 0.925688 0.92349 0.919581 0.91276 0.901122 0.881807 0.850874 0.803547 0.735138 0.642831 0.52818 0.399404 0.271683 0.163233 0.0854103 0.0391758 0.0162783 0.00638697 0.00243729 0.000918183 0.000343603 0.000128019 4.7518e-05 1.75719e-05 6.47228e-06 2.37371e-06 8.66504e-07 3.14717e-07 1.13685e-07 4.08281e-08 1.45721e-08 5.16672e-09 1.81913e-09 6.35846e-10 2.20553e-10 7.52401e-11 2.58631e-11 8.78567e-12 2.20087e-12 1.3174e-12 -5.53189e-13 5.33517e-13 -1.62235e-13 -1.80116e-13 -2.20537e-13 5.32254e-13 -2.62981e-13 -1.55363e-13 1.80752e-13 -4.43484e-13 3.906e-13 6.52884e-13 -2.55275e-13 5.63559e-13 -5.90623e-13 -6.47537e-13 0 0 -7.49328e-15 -1.75003e-14 3.08606e-15 -1.95527e-14 -2.25627e-14 1.10496e-14 -6.71717e-15 -1.69623e-14 -3.04937e-14 -3.22257e-15 -6.4213e-14 1.5277e-14 -7.08947e-14 -7.41488e-14 -1.1541e-14 -9.26799e-14 -2.23368e-15 -1.35593e-13 -9.07543e-14 -9.19758e-14 -9.19706e-14 2.59601e-14 -1.18785e-13 2.70838e-14 -3.45265e-14 4.06372e-15 -2.12745e-14 -6.7826e-14 -2.13445e-14 -1.93694e-14 -7.9507e-15 -1.1871e-13 -9.79563e-14 -1.09673e-13 -6.66839e-14 -8.9987e-14 -8.32704e-14 -1.82004e-13 -7.04444e-14 -1.74223e-13 -8.24645e-14 -3.9765e-14 -1.30349e-13 8.61469e-14 2.23919e-13 3.79856e-13 3.02557e-12 2.14271e-11 1.35507e-10 8.16185e-10 4.64583e-09 2.49214e-08 1.25644e-07 5.93494e-07 2.61731e-06 1.07321e-05 4.07217e-05 0.000142172 0.000453632 0.00131226 0.00341075 0.00789374 0.0161586 0.0292266 0.0470712 0.0686226 0.092486 0.117589 0.143311 0.169342 0.195528 0.22179 0.248085 0.274388 0.300668 0.32689 0.353028 0.379057 0.404961 0.430724 0.456338 0.481794 0.507086 0.532204 0.557139 0.581874 0.606392 0.630666 0.654666 0.678351 0.701672 0.724567 0.746958 0.768753 0.789838 0.810076 0.829309 0.847354 0.864015 0.879086 0.892378 0.903737 0.913077 0.920399 0.925804 0.929488 0.931726 0.932843 0.933181 0.933136 0.93297 0.932699 0.932356 0.931975 0.931586 0.931217 0.930889 0.930622 0.930452 0.930408 0.930562 0.931055 0.932022 0.933609 0.935945 0.939231 0.94314 0.949855 0.95305 0.949224 0.942922 0.937246 0.933365 0.930982 0.929638 0.928929 0.928569 0.928382 0.928258 0.928125 0.927924 0.927566 0.926904 0.925688 0.92349 0.919581 0.91276 0.901122 0.881807 0.850874 0.803547 0.735138 0.642831 0.52818 0.399404 0.271683 0.163233 0.0854103 0.0391758 0.0162783 0.00638697 0.00243729 0.000918183 0.000343603 0.000128019 4.7518e-05 1.75719e-05 6.47228e-06 2.37371e-06 8.66504e-07 3.14716e-07 1.13685e-07 4.08285e-08 1.45719e-08 5.16689e-09 1.8191e-09 6.35623e-10 2.20394e-10 7.57511e-11 2.55106e-11 8.23842e-12 2.96682e-12 1.94938e-13 3.03685e-13 1.344e-13 2.6983e-13 -1.82709e-14 2.57997e-14 -3.70334e-13 2.50182e-13 -2.21319e-13 4.27725e-13 3.22178e-13 1.13421e-14 -4.69001e-13 4.3733e-13 -3.34944e-14 -6.57671e-15 5.35499e-13 0 0 -2.89365e-16 1.45822e-15 -1.2762e-14 7.88206e-15 1.14325e-14 -2.4876e-14 -4.08123e-14 1.44139e-14 -3.28945e-14 -1.54048e-14 -1.60976e-14 -1.06575e-13 -5.10103e-14 -9.07933e-14 -4.41224e-14 -3.36452e-14 -9.79344e-14 -4.81256e-14 -1.01852e-13 -8.53074e-14 2.78567e-14 -9.2428e-14 2.45967e-14 -9.30841e-14 -4.76509e-14 4.63952e-14 -2.66487e-14 -1.50188e-14 -9.43324e-14 -7.59556e-14 2.97473e-14 -6.25284e-14 -1.59285e-14 -1.08316e-13 -1.94088e-13 -7.05452e-14 -8.76846e-14 -1.36441e-13 -1.36609e-13 1.60315e-14 -8.72299e-14 -9.88822e-14 -9.22767e-14 -1.92634e-14 -4.78544e-14 4.73161e-13 3.22447e-12 2.15132e-11 1.35558e-10 8.16202e-10 4.64583e-09 2.49212e-08 1.25645e-07 5.93494e-07 2.61731e-06 1.07321e-05 4.07217e-05 0.000142172 0.000453632 0.00131226 0.00341075 0.00789374 0.0161586 0.0292266 0.0470712 0.0686226 0.092486 0.117589 0.143311 0.169342 0.195528 0.22179 0.248085 0.274388 0.300668 0.32689 0.353028 0.379057 0.404961 0.430724 0.456338 0.481794 0.507086 0.532204 0.557139 0.581874 0.606392 0.630666 0.654666 0.678351 0.701672 0.724567 0.746958 0.768753 0.789838 0.810076 0.829309 0.847354 0.864015 0.879086 0.892378 0.903737 0.913077 0.920399 0.925804 0.929488 0.931726 0.932843 0.933181 0.933136 0.93297 0.932699 0.932356 0.931975 0.931586 0.931217 0.930889 0.930622 0.930452 0.930408 0.930562 0.931055 0.932022 0.933609 0.935945 0.939231 0.94314 0.949855 0.95305 0.949224 0.942922 0.937246 0.933365 0.930982 0.929638 0.928929 0.928569 0.928382 0.928258 0.928125 0.927924 0.927566 0.926904 0.925688 0.92349 0.919581 0.91276 0.901122 0.881807 0.850874 0.803547 0.735138 0.642831 0.52818 0.399404 0.271683 0.163233 0.0854103 0.0391758 0.0162783 0.00638697 0.00243729 0.000918183 0.000343603 0.000128019 4.7518e-05 1.75719e-05 6.47228e-06 2.37371e-06 8.66504e-07 3.14716e-07 1.13686e-07 4.08283e-08 1.45722e-08 5.16661e-09 1.81938e-09 6.35771e-10 2.20259e-10 7.57293e-11 2.55624e-11 8.32205e-12 2.17807e-12 1.03561e-12 -1.26081e-13 1.41113e-13 6.78236e-14 4.09122e-13 -9.09457e-14 -1.45128e-13 -2.59498e-13 3.45387e-13 2.17541e-13 2.278e-13 5.01078e-14 4.14054e-14 -7.50919e-13 -3.87413e-14 5.3566e-13 2.13408e-13 0 0 -3.17052e-15 -5.87281e-15 -4.96507e-15 -1.30538e-14 -5.48535e-15 -1.41749e-15 -5.32678e-14 -4.97015e-15 -1.98667e-15 -5.46321e-14 -2.19218e-14 -5.12895e-14 -8.71292e-14 -9.15061e-14 -3.50663e-14 -7.86682e-14 -9.21857e-14 -4.38727e-14 -8.40708e-14 -5.5531e-14 5.36357e-14 -5.53711e-14 -3.22511e-14 -3.14379e-14 -2.957e-14 -8.68291e-15 -6.98416e-14 -5.48203e-14 7.24208e-14 -5.8608e-14 -8.68024e-14 -3.76237e-14 -7.29599e-14 -2.03118e-13 -1.81322e-13 -8.20306e-14 -5.96849e-14 -1.68994e-14 -6.33778e-14 -1.09859e-13 1.09223e-13 -2.87216e-13 3.01019e-14 -7.9921e-14 -5.86384e-14 6.13283e-13 3.18865e-12 2.14351e-11 1.35582e-10 8.16323e-10 4.64571e-09 2.49214e-08 1.25645e-07 5.93494e-07 2.61731e-06 1.07321e-05 4.07217e-05 0.000142172 0.000453632 0.00131226 0.00341075 0.00789374 0.0161586 0.0292266 0.0470712 0.0686226 0.092486 0.117589 0.143311 0.169342 0.195528 0.22179 0.248085 0.274388 0.300668 0.32689 0.353028 0.379057 0.404961 0.430724 0.456338 0.481794 0.507086 0.532204 0.557139 0.581874 0.606392 0.630666 0.654666 0.678351 0.701672 0.724567 0.746958 0.768753 0.789838 0.810076 0.829309 0.847354 0.864015 0.879086 0.892378 0.903737 0.913077 0.920399 0.925804 0.929488 0.931726 0.932843 0.933181 0.933136 0.93297 0.932699 0.932356 0.931975 0.931586 0.931217 0.930889 0.930622 0.930452 0.930408 0.930562 0.931055 0.932022 0.933609 0.935945 0.939231 0.94314 0.949855 0.95305 0.949224 0.942922 0.937246 0.933365 0.930982 0.929638 0.928929 0.928569 0.928382 0.928258 0.928125 0.927924 0.927566 0.926904 0.925688 0.92349 0.919581 0.91276 0.901122 0.881807 0.850874 0.803547 0.735138 0.642831 0.52818 0.399404 0.271683 0.163233 0.0854103 0.0391758 0.0162783 0.00638697 0.00243729 0.000918183 0.000343603 0.000128019 4.7518e-05 1.75719e-05 6.47228e-06 2.37371e-06 8.66504e-07 3.14717e-07 1.13686e-07 4.08284e-08 1.45719e-08 5.16686e-09 1.81916e-09 6.35654e-10 2.20455e-10 7.56527e-11 2.56765e-11 8.38633e-12 2.28924e-12 1.24118e-12 -2.47842e-14 -2.26136e-13 -4.66605e-13 3.99301e-14 -2.2389e-13 -3.16815e-14 5.29749e-14 -6.74856e-13 3.05851e-13 1.23357e-13 4.20133e-13 3.90246e-13 -1.23001e-13 -4.40935e-13 -1.75428e-13 -7.91147e-13 0 0 -6.22821e-15 -1.73935e-14 3.86332e-15 -3.5037e-14 -3.83132e-14 1.28099e-14 -1.49387e-14 -3.62162e-14 -1.92324e-14 -4.16356e-14 -9.54888e-14 2.53074e-14 -8.0216e-14 -7.20159e-14 -3.01061e-14 -1.2462e-13 1.76413e-14 -8.99518e-14 -7.90669e-14 -3.13699e-14 -8.80679e-14 4.95316e-14 -9.43839e-14 3.6362e-14 -6.37536e-14 4.0002e-15 -6.99333e-14 -1.14092e-13 1.39185e-13 -5.76323e-14 -1.30675e-13 -1.76608e-13 -1.42148e-13 -1.15333e-13 -3.48774e-14 7.29745e-15 -1.06933e-13 -1.13774e-13 -1.74229e-14 -2.39335e-13 2.07228e-14 -1.63484e-13 -2.78724e-14 4.58895e-14 2.57438e-13 5.13315e-13 3.08147e-12 2.14333e-11 1.35464e-10 8.16254e-10 4.64581e-09 2.49216e-08 1.25644e-07 5.93494e-07 2.61731e-06 1.07321e-05 4.07217e-05 0.000142172 0.000453632 0.00131226 0.00341075 0.00789374 0.0161586 0.0292266 0.0470712 0.0686226 0.092486 0.117589 0.143311 0.169342 0.195528 0.22179 0.248085 0.274388 0.300668 0.32689 0.353028 0.379057 0.404961 0.430724 0.456338 0.481794 0.507086 0.532204 0.557139 0.581874 0.606392 0.630666 0.654666 0.678351 0.701672 0.724567 0.746958 0.768753 0.789838 0.810076 0.829309 0.847354 0.864015 0.879086 0.892378 0.903737 0.913077 0.920399 0.925804 0.929488 0.931726 0.932843 0.933181 0.933136 0.93297 0.932699 0.932356 0.931975 0.931586 0.931217 0.930889 0.930622 0.930452 0.930408 0.930562 0.931055 0.932022 0.933609 0.935945 0.939231 0.94314 0.949855 0.95305 0.949224 0.942922 0.937246 0.933365 0.930982 0.929638 0.928929 0.928569 0.928382 0.928258 0.928125 0.927924 0.927566 0.926904 0.925688 0.92349 0.919581 0.91276 0.901122 0.881807 0.850874 0.803547 0.735138 0.642831 0.52818 0.399404 0.271683 0.163233 0.0854103 0.0391758 0.0162783 0.00638697 0.00243729 0.000918183 0.000343603 0.000128019 4.7518e-05 1.75719e-05 6.47228e-06 2.37371e-06 8.66505e-07 3.14716e-07 1.13686e-07 4.08288e-08 1.45719e-08 5.167e-09 1.81887e-09 6.35646e-10 2.20435e-10 7.58309e-11 2.53803e-11 8.40014e-12 3.00465e-12 -1.93094e-13 3.57367e-13 -2.53182e-13 -1.17575e-13 -2.43863e-13 -1.1051e-13 -5.30608e-13 1.47481e-13 -5.706e-13 1.58632e-13 1.15542e-13 1.97737e-13 -3.25501e-13 9.18167e-13 -6.40936e-14 -2.42745e-13 -4.60555e-14 0 0 5.12463e-15 6.68664e-15 -3.48679e-14 1.25511e-14 -1.51681e-14 -6.8599e-14 -1.82999e-14 1.46418e-14 -4.62676e-14 -7.48134e-14 -7.81297e-15 -1.35192e-13 2.54709e-14 -2.51979e-14 -1.29494e-13 1.73698e-14 -1.48586e-13 9.73207e-14 -6.05661e-14 -7.53316e-14 -7.42149e-14 -2.72852e-13 1.51126e-13 -8.58754e-14 -6.67675e-14 5.33673e-14 2.88189e-14 -5.32974e-14 -4.51693e-14 -1.66945e-13 -7.81218e-14 -1.51728e-13 -1.02165e-13 4.76544e-14 -7.34819e-14 4.68849e-14 -1.77279e-13 -1.00979e-13 -1.70604e-13 -1.76857e-14 -3.10509e-13 7.90942e-14 3.08767e-14 -1.82192e-14 -2.69931e-14 5.11603e-13 3.52406e-12 2.14343e-11 1.35337e-10 8.16237e-10 4.6459e-09 2.49214e-08 1.25644e-07 5.93494e-07 2.61731e-06 1.07321e-05 4.07217e-05 0.000142172 0.000453632 0.00131226 0.00341075 0.00789374 0.0161586 0.0292266 0.0470712 0.0686226 0.092486 0.117589 0.143311 0.169342 0.195528 0.22179 0.248085 0.274388 0.300668 0.32689 0.353028 0.379057 0.404961 0.430724 0.456338 0.481794 0.507086 0.532204 0.557139 0.581874 0.606392 0.630666 0.654666 0.678351 0.701672 0.724567 0.746958 0.768753 0.789838 0.810076 0.829309 0.847354 0.864015 0.879086 0.892378 0.903737 0.913077 0.920399 0.925804 0.929488 0.931726 0.932843 0.933181 0.933136 0.93297 0.932699 0.932356 0.931975 0.931586 0.931217 0.930889 0.930622 0.930452 0.930408 0.930562 0.931055 0.932022 0.933609 0.935945 0.939231 0.94314 0.949855 0.95305 0.949224 0.942922 0.937246 0.933365 0.930982 0.929638 0.928929 0.928569 0.928382 0.928258 0.928125 0.927924 0.927566 0.926904 0.925688 0.92349 0.919581 0.91276 0.901122 0.881807 0.850874 0.803547 0.735138 0.642831 0.52818 0.399404 0.271683 0.163233 0.0854103 0.0391758 0.0162783 0.00638697 0.00243729 0.000918183 0.000343603 0.000128019 4.7518e-05 1.75719e-05 6.47228e-06 2.37371e-06 8.66504e-07 3.14717e-07 1.13685e-07 4.08282e-08 1.45727e-08 5.16647e-09 1.8191e-09 6.36126e-10 2.20242e-10 7.55527e-11 2.53741e-11 8.98055e-12 2.05419e-12 1.30204e-13 -6.48418e-13 4.92852e-13 1.31812e-13 1.07083e-13 -2.27269e-13 -1.51865e-14 -1.09333e-12 1.18656e-12 -5.34056e-13 -6.47871e-13 2.33391e-14 2.42204e-13 -5.49436e-13 1.30675e-12 3.59217e-13 1.98463e-13 0
				</DataArray>
				<DataArray Name="VitesseY" type="Float32" format="ascii">