<?xml version="1.0"?>
<VTKFile type="PolyData">
	<PolyData>
		<Piece NumberOfPoints="1206" NumberOfPolys="1000">
			<Points>
				<DataArray type="Float32" NumberOfComponents="3" format="ascii">
 0 0 0 0.005 0 0 0.01 0 0 0.015 0 0 0.02 0 0 0.025 0 0 0.03 0 0 0.035 0 0 0.04 0 0 0.045 0 0 0.05 0 0 0.055 0 0 0.06 0 0 0.065 0 0 0.07 0 0 0.075 0 0 0.08 0 0 0.085 0 0 0.09 0 0 0.095 0 0 0.1 0 0 0.105 0 0 0.11 0 0 0.115 0 0 0.12 0 0 0.125 0 0 0.13 0 0 0.135 0 0 0.14 0 0 0.145 0 0 0.15 0 0 0.155 0 0 0.16 0 0 0.165 0 0 0.17 0 0 0.175 0 0 0.18 0 0 0.185 0 0 0.19 0 0 0.195 0 0 0.2 0 0 0.205 0 0 0.21 0 0 0.215 0 0 0.22 0 0 0.225 0 0 0.23 0 0 0.235 0 0 0.24 0 0 0.245 0 0 0.25 0 0 0.255 0 0 0.26 0 0 0.265 0 0 0.27 0 0 0.275 0 0 0.28 0 0 0.285 0 0 0.29 0 0 0.295 0 0 0.3 0 0 0.305 0 0 0.31 0 0 0.315 0 0 0.32 0 0 0.325 0 0 0.33 0 0 0.335 0 0 0.34 0 0 0.345 0 0 0.35 0 0 0.355 0 0 0.36 0 0 0.365 0 0 0.37 0 0 0.375 0 0 0.38 0 0 0.385 0 0 0.39 0 0 0.395 0 0 0.4 0 0 0.405 0 0 0.41 0 0 0.415 0 0 0.42 0 0 0.425 0 0 0.43 0 0 0.435 0 0 0.44 0 0 0.445 0 0 0.45 0 0 0.455 0 0 0.46 0 0 0.465 0 0 0.47 0 0 0.475 0 0 0.48 0 0 0.485 0 0 0.49 0 0 0.495 0 0 0.5 0 0 0.505 0 0 0.51 0 0 0.515 0 0 0.52 0 0 0.525 0 0 0.53 0 0 0.535 0 0 0.54 0 0 0.545 0 0 0.55 0 0 0.555 0 0 0.56 0 0 0.565 0 0 0.57 0 0 0.575 0 0 0.58 0 0 0.585 0 0 0.59 0 0 0.595 0 0 0.6 0 0 0.605 0 0 0.61 0 0 0.615 0 0 0.62 0 0 0.625 0 0 0.63 0 0 0.635 0 0 0.64 0 0 0.645 0 0 0.65 0 0 0.655 0 0 0.66 0 0 0.665 0 0 0.67 0 0 0.675 0 0 0.68 0 0 0.685 0 0 0.69 0 0 0.695 0 0 0.7 0 0 0.705 0 0 0.71 0 0 0.715 0 0 0.72 0 0 0.725 0 0 0.73 0 0 0.735 0 0 0.74 0 0 0.745 0 0 0.75 0 0 0.755 0 0 0.76 0 0 0.765 0 0 0.77 0 0 0.775 0 0 0.78 0 0 0.785 0 0 0.79 0 0 0.795 0 0 0.8 0 0 0.805 0 0 0.81 0 0 0.815 0 0 0.82 0 0 0.825 0 0 0.83 0 0 0.835 0 0 0.84 0 0 0.845 0 0 0.85 0 0 0.855 0 0 0.86 0 0 0.865 0 0 0.87 0 0 0.875 0 0 0.88 0 0 0.885 0 0 0.89 0 0 0.895 0 0 0.9 0 0 0.905 0 0 0.91 0 0 0.915 0 0 0.92 0 0 0.925 0 0 0.93 0 0 0.935 0 0 0.94 0 0 0.945 0 0 0.95 0 0 0.955 0 0 0.96 0 0 0.965 0 0 0.97 0 0 0.975 0 0 0.98 0 0 0.985 0 0 0.99 0 0 0.995 0 0 1 0 0 0 0.02 0 0.005 0.02 0 0.01 0.02 0 0.015 0.02 0 0.02 0.02 0 0.025 0.02 0 0.03 0.02 0 0.035 0.02 0 0.04 0.02 0 0.045 0.02 0 0.05 0.02 0 0.055 0.02 0 0.06 0.02 0 0.065 0.02 0 0.07 0.02 0 0.075 0.02 0 0.08 0.02 0 0.085 0.02 0 0.09 0.02 0 0.095 0.02 0 0.1 0.02 0 0.105 0.02 0 0.11 0.02 0 0.115 0.02 0 0.12 0.02 0 0.125 0.02 0 0.13 0.02 0 0.135 0.02 0 0.14 0.02 0 0.145 0.02 0 0.15 0.02 0 0.155 0.02 0 0.16 0.02 0 0.165 0.02 0 0.17 0.02 0 0.175 0.02 0 0.18 0.02 0 0.185 0.02 0 0.19 0.02 0 0.195 0.02 0 0.2 0.02 0 0.205 0.02 0 0.21 0.02 0 0.215 0.02 0 0.22 0.02 0 0.225 0.02 0 0.23 0.02 0 0.235 0.02 0 0.24 0.02 0 0.245 0.02 0 0.25 0.02 0 0.255 0.02 0 0.26 0.02 0 0.265 0.02 0 0.27 0.02 0 0.275 0.02 0 0.28 0.02 0 0.285 0.02 0 0.29 0.02 0 0.295 0.02 0 0.3 0.02 0 0.305 0.02 0 0.31 0.02 0 0.315 0.02 0 0.32 0.02 0 0.325 0.02 0 0.33 0.02 0 0.335 0.02 0 0.34 0.02 0 0.345 0.02 0 0.35 0.02 0 0.355 0.02 0 0.36 0.02 0 0.365 0.02 0 0.37 0.02 0 0.375 0.02 0 0.38 0.02 0 0.385 0.02 0 0.39 0.02 0 0.395 0.02 0 0.4 0.02 0 0.405 0.02 0 0.41 0.02 0 0.415 0.02 0 0.42 0.02 0 0.425 0.02 0 0.43 0.02 0 0.435 0.02 0 0.44 0.02 0 0.445 0.02 0 0.45 0.02 0 0.455 0.02 0 0.46 0.02 0 0.465 0.02 0 0.47 0.02 0 0.475 0.02 0 0.48 0.02 0 0.485 0.02 0 0.49 0.02 0 0.495 0.02 0 0.5 0.02 0 0.505 0.02 0 0.51 0.02 0 0.515 0.02 0 0.52 0.02 0 0.525 0.02 0 0.53 0.02 0 0.535 0.02 0 0.54 0.02 0 0.545 0.02 0 0.55 0.02 0 0.555 0.02 0 0.56 0.02 0 0.565 0.02 0 0.57 0.02 0 0.575 0.02 0 0.58 0.02 0 0.585 0.02 0 0.59 0.02 0 0.595 0.02 0 0.6 0.02 0 0.605 0.02 0 0.61 0.02 0 0.615 0.02 0 0.62 0.02 0 0.625 0.02 0 0.63 0.02 0 0.635 0.02 0 0.64 0.02 0 0.645 0.02 0 0.65 0.02 0 0.655 0.02 0 0.66 0.02 0 0.665 0.02 0 0.67 0.02 0 0.675 0.02 0 0.68 0.02 0 0.685 0.02 0 0.69 0.02 0 0.695 0.02 0 0.7 0.02 0 0.705 0.02 0 0.71 0.02 0 0.715 0.02 0 0.72 0.02 0 0.725 0.02 0 0.73 0.02 0 0.735 0.02 0 0.74 0.02 0 0.745 0.02 0 0.75 0.02 0 0.755 0.02 0 0.76 0.02 0 0.765 0.02 0 0.77 0.02 0 0.775 0.02 0 0.78 0.02 0 0.785 0.02 0 0.79 0.02 0 0.795 0.02 0 0.8 0.02 0 0.805 0.02 0 0.81 0.02 0 0.815 0.02 0 0.82 0.02 0 0.825 0.02 0 0.83 0.02 0 0.835 0.02 0 0.84 0.02 0 0.845 0.02 0 0.85 0.02 0 0.855 0.02 0 0.86 0.02 0 0.865 0.02 0 0.87 0.02 0 0.875 0.02 0 0.88 0.02 0 0.885 0.02 0 0.89 0.02 0 0.895 0.02 0 0.9 0.02 0 0.905 0.02 0 0.91 0.02 0 0.915 0.02 0 0.92 0.02 0 0.925 0.02 0 0.93 0.02 0 0.935 0.02 0 0.94 0.02 0 0.945 0.02 0 0.95 0.02 0 0.955 0.02 0 0.96 0.02 0 0.965 0.02 0 0.97 0.02 0 0.975 0.02 0 0.98 0.02 0 0.985 0.02 0 0.99 0.02 0 0.995 0.02 0 1 0.02 0 0 0.04 0 0.005 0.04 0 0.01 0.04 0 0.015 0.04 0 0.02 0.04 0 0.025 0.04 0 0.03 0.04 0 0.035 0.04 0 0.04 0.04 0 0.045 0.04 0 0.05 0.04 0 0.055 0.04 0 0.06 0.04 0 0.065 0.04 0 0.07 0.04 0 0.075 0.04 0 0.08 0.04 0 0.085 0.04 0 0.09 0.04 0 0.095 0.04 0 0.1 0.04 0 0.105 0.04 0 0.11 0.04 0 0.115 0.04 0 0.12 0.04 0 0.125 0.04 0 0.13 0.04 0 0.135 0.04 0 0.14 0.04 0 0.145 0.04 0 0.15 0.04 0 0.155 0.04 0 0.16 0.04 0 0.165 0.04 0 0.17 0.04 0 0.175 0.04 0 0.18 0.04 0 0.185 0.04 0 0.19 0.04 0 0.195 0.04 0 0.2 0.04 0 0.205 0.04 0 0.21 0.04 0 0.215 0.04 0 0.22 0.04 0 0.225 0.04 0 0.23 0.04 0 0.235 0.04 0 0.24 0.04 0 0.245 0.04 0 0.25 0.04 0 0.255 0.04 0 0.26 0.04 0 0.265 0.04 0 0.27 0.04 0 0.275 0.04 0 0.28 0.04 0 0.285 0.04 0 0.29 0.04 0 0.295 0.04 0 0.3 0.04 0 0.305 0.04 0 0.31 0.04 0 0.315 0.04 0 0.32 0.04 0 0.325 0.04 0 0.33 0.04 0 0.335 0.04 0 0.34 0.04 0 0.345 0.04 0 0.35 0.04 0 0.355 0.04 0 0.36 0.04 0 0.365 0.04 0 0.37 0.04 0 0.375 0.04 0 0.38 0.04 0 0.385 0.04 0 0.39 0.04 0 0.395 0.04 0 0.4 0.04 0 0.405 0.04 0 0.41 0.04 0 0.415 0.04 0 0.42 0.04 0 0.425 0.04 0 0.43 0.04 0 0.435 0.04 0 0.44 0.04 0 0.445 0.04 0 0.45 0.04 0 0.455 0.04 0 0.46 0.04 0 0.465 0.04 0 0.47 0.04 0 0.475 0.04 0 0.48 0.04 0 0.485 0.04 0 0.49 0.04 0 0.495 0.04 0 0.5 0.04 0 0.505 0.04 0 0.51 0.04 0 0.515 0.04 0 0.52 0.04 0 0.525 0.04 0 0.53 0.04 0 0.535 0.04 0 0.54 0.04 0 0.545 0.04 0 0.55 0.04 0 0.555 0.04 0 0.56 0.04 0 0.565 0.04 0 0.57 0.04 0 0.575 0.04 0 0.58 0.04 0 0.585 0.04 0 0.59 0.04 0 0.595 0.04 0 0.6 0.04 0 0.605 0.04 0 0.61 0.04 0 0.615 0.04 0 0.62 0.04 0 0.625 0.04 0 0.63 0.04 0 0.635 0.04 0 0.64 0.04 0 0.645 0.04 0 0.65 0.04 0 0.655 0.04 0 0.66 0.04 0 0.665 0.04 0 0.67 0.04 0 0.675 0.04 0 0.68 0.04 0 0.685 0.04 0 0.69 0.04 0 0.695 0.04 0 0.7 0.04 0 0.705 0.04 0 0.71 0.04 0 0.715 0.04 0 0.72 0.04 0 0.725 0.04 0 0.73 0.04 0 0.735 0.04 0 0.74 0.04 0 0.745 0.04 0 0.75 0.04 0 0.755 0.04 0 0.76 0.04 0 0.765 0.04 0 0.77 0.04 0 0.775 0.04 0 0.78 0.04 0 0.785 0.04 0 0.79 0.04 0 0.795 0.04 0 0.8 0.04 0 0.805 0.04 0 0.81 0.04 0 0.815 0.04 0 0.82 0.04 0 0.825 0.04 0 0.83 0.04 0 0.835 0.04 0 0.84 0.04 0 0.845 0.04 0 0.85 0.04 0 0.855 0.04 0 0.86 0.04 0 0.865 0.04 0 0.87 0.04 0 0.875 0.04 0 0.88 0.04 0 0.885 0.04 0 0.89 0.04 0 0.895 0.04 0 0.9 0.04 0 0.905 0.04 0 0.91 0.04 0 0.915 0.04 0 0.92 0.04 0 0.925 0.04 0 0.93 0.04 0 0.935 0.04 0 0.94 0.04 0 0.945 0.04 0 0.95 0.04 0 0.955 0.04 0 0.96 0.04 0 0.965 0.04 0 0.97 0.04 0 0.975 0.04 0 0.98 0.04 0 0.985 0.04 0 0.99 0.04 0 0.995 0.04 0 1 0.04 0 0 0.06 0 0.005 0.06 0 0.01 0.06 0 0.015 0.06 0 0.02 0.06 0 0.025 0.06 0 0.03 0.06 0 0.035 0.06 0 0.04 0.06 0 0.045 0.06 0 0.05 0.06 0 0.055 0.06 0 0.06 0.06 0 0.065 0.06 0 0.07 0.06 0 0.075 0.06 0 0.08 0.06 0 0.085 0.06 0 0.09 0.06 0 0.095 0.06 0 0.1 0.06 0 0.105 0.06 0 0.11 0.06 0 0.115 0.06 0 0.12 0.06 0 0.125 0.06 0 0.13 0.06 0 0.135 0.06 0 0.14 0.06 0 0.145 0.06 0 0.15 0.06 0 0.155 0.06 0 0.16 0.06 0 0.165 0.06 0 0.17 0.06 0 0.175 0.06 0 0.18 0.06 0 0.185 0.06 0 0.19 0.06 0 0.195 0.06 0 0.2 0.06 0 0.205 0.06 0 0.21 0.06 0 0.215 0.06 0 0.22 0.06 0 0.225 0.06 0 0.23 0.06 0 0.235 0.06 0 0.24 0.06 0 0.245 0.06 0 0.25 0.06 0 0.255 0.06 0 0.26 0.06 0 0.265 0.06 0 0.27 0.06 0 0.275 0.06 0 0.28 0.06 0 0.285 0.06 0 0.29 0.06 0 0.295 0.06 0 0.3 0.06 0 0.305 0.06 0 0.31 0.06 0 0.315 0.06 0 0.32 0.06 0 0.325 0.06 0 0.33 0.06 0 0.335 0.06 0 0.34 0.06 0 0.345 0.06 0 0.35 0.06 0 0.355 0.06 0 0.36 0.06 0 0.365 0.06 0 0.37 0.06 0 0.375 0.06 0 0.38 0.06 0 0.385 0.06 0 0.39 0.06 0 0.395 0.06 0 0.4 0.06 0 0.405 0.06 0 0.41 0.06 0 0.415 0.06 0 0.42 0.06 0 0.425 0.06 0 0.43 0.06 0 0.435 0.06 0 0.44 0.06 0 0.445 0.06 0 0.45 0.06 0 0.455 0.06 0 0.46 0.06 0 0.465 0.06 0 0.47 0.06 0 0.475 0.06 0 0.48 0.06 0 0.485 0.06 0 0.49 0.06 0 0.495 0.06 0 0.5 0.06 0 0.505 0.06 0 0.51 0.06 0 0.515 0.06 0 0.52 0.06 0 0.525 0.06 0 0.53 0.06 0 0.535 0.06 0 0.54 0.06 0 0.545 0.06 0 0.55 0.06 0 0.555 0.06 0 0.56 0.06 0 0.565 0.06 0 0.57 0.06 0 0.575 0.06 0 0.58 0.06 0 0.585 0.06 0 0.59 0.06 0 0.595 0.06 0 0.6 0.06 0 0.605 0.06 0 0.61 0.06 0 0.615 0.06 0 0.62 0.06 0 0.625 0.06 0 0.63 0.06 0 0.635 0.06 0 0.64 0.06 0 0.645 0.06 0 0.65 0.06 0 0.655 0.06 0 0.66 0.06 0 0.665 0.06 0 0.67 0.06 0 0.675 0.06 0 0.68 0.06 0 0.685 0.06 0 0.69 0.06 0 0.695 0.06 0 0.7 0.06 0 0.705 0.06 0 0.71 0.06 0 0.715 0.06 0 0.72 0.06 0 0.725 0.06 0 0.73 0.06 0 0.735 0.06 0 0.74 0.06 0 0.745 0.06 0 0.75 0.06 0 0.755 0.06 0 0.76 0.06 0 0.765 0.06 0 0.77 0.06 0 0.775 0.06 0 0.78 0.06 0 0.785 0.06 0 0.79 0.06 0 0.795 0.06 0 0.8 0.06 0 0.805 0.06 0 0.81 0.06 0 0.815 0.06 0 0.82 0.06 0 0.825 0.06 0 0.83 0.06 0 0.835 0.06 0 0.84 0.06 0 0.845 0.06 0 0.85 0.06 0 0.855 0.06 0 0.86 0.06 0 0.865 0.06 0 0.87 0.06 0 0.875 0.06 0 0.88 0.06 0 0.885 0.06 0 0.89 0.06 0 0.895 0.06 0 0.9 0.06 0 0.905 0.06 0 0.91 0.06 0 0.915 0.06 0 0.92 0.06 0 0.925 0.06 0 0.93 0.06 0 0.935 0.06 0 0.94 0.06 0 0.945 0.06 0 0.95 0.06 0 0.955 0.06 0 0.96 0.06 0 0.965 0.06 0 0.97 0.06 0 0.975 0.06 0 0.98 0.06 0 0.985 0.06 0 0.99 0.06 0 0.995 0.06 0 1 0.06 0 0 0.08 0 0.005 0.08 0 0.01 0.08 0 0.015 0.08 0 0.02 0.08 0 0.025 0.08 0 0.03 0.08 0 0.035 0.08 0 0.04 0.08 0 0.045 0.08 0 0.05 0.08 0 0.055 0.08 0 0.06 0.08 0 0.065 0.08 0 0.07 0.08 0 0.075 0.08 0 0.08 0.08 0 0.085 0.08 0 0.09 0.08 0 0.095 0.08 0 0.1 0.08 0 0.105 0.08 0 0.11 0.08 0 0.115 0.08 0 0.12 0.08 0 0.125 0.08 0 0.13 0.08 0 0.135 0.08 0 0.14 0.08 0 0.145 0.08 0 0.15 0.08 0 0.155 0.08 0 0.16 0.08 0 0.165 0.08 0
[...]
			<PointData Scalars="VitesseX">
				<DataArray Name="VitesseX" type="Float32" format="ascii">
 0 -3.19702e-14 -4.00095e-15 -2.35101e-14 3.18467e-14 4.1441e-15 5.79214e-15 -2.92054e-14 -1.88635e-14 -1.30484e-14 -5.04532e-15 6.21098e-14 -7.51794e-14 5.54304e-14 -9.03376e-14 -1.68571e-14 -1.00711e-13 -9.1677e-14 -2.25054e-14 -1.37715e-13 -6.36138e-14 -2.95166e-14 -1.85625e-13 7.23078e-15 -2.27244e-14 -1.04152e-13 -1.61226e-13 -3.96786e-14 -1.28884e-13 -3.79808e-14 -1.19665e-13 -1.42257e-13 -1.44271e-13 -1.99381e-13 -6.40112e-14 -2.33786e-13 -1.36116e-13 -1.83437e-13 -1.97806e-13 1.73536e-13 -5.60897e-14 2.12138e-13 5.56742e-14 -6.33971e-14 -6.68339e-14 -1.74493e-13 -1.9566e-13 1.71184e-13 -2.74229e-13 -1.76578e-14 -2.00278e-13 -1.37978e-13 -2.41197e-13 -3.80085e-14 1.70158e-13 -1.95504e-13 -3.67882e-13 -1.00027e-13 -1.2092e-13 8.69346e-14 -3.66566e-13 5.5105e-14 -5.02205e-14 3.94548e-13 4.54467e-12 4.31962e-11 3.70576e-10 2.96638e-09 2.19329e-08 1.49246e-07 9.29723e-07 5.27102e-06 2.70077e-05 0.000124009 0.000504976 0.00180044 0.00553664 0.0144617 0.0317562 0.0587911 0.0937383 0.133252 0.174831 0.217231 0.259913 0.302635 0.345195 0.387336 0.428907 0.469835 0.510111 0.549715 0.588599 0.626686 0.663852 0.699929 0.734688 0.767833 0.798996 0.827739 0.853581 0.876042 0.894734 0.909464 0.920315 0.927674 0.932158 0.934497 0.935407 0.935407 0.93529 0.935246 0.935706 0.937221 0.940295 0.945227 0.952361 0.963768 0.961371 0.952139 0.942291 0.935755 0.931849 0.929326 0.926808 0.923164 0.916753 0.905271 0.8854 0.852664 0.801802 0.727946 0.628743 0.507093 0.373297 0.245011 0.140545 0.0695702 0.0301001 0.0118376 0.00441053 0.00159734 0.000568813 0.000199989 6.94981e-05 2.38697e-05 8.09905e-06 2.71331e-06 8.97038e-07 2.92518e-07 9.40443e-08 2.97975e-08 9.30148e-09 2.85932e-09 8.65455e-10 2.57807e-10 7.55477e-11 2.12966e-11 5.80786e-12 6.81745e-13 5.96522e-13 1.14367e-12 -4.77662e-13 -7.29126e-13 -1.12714e-13 -2.00547e-13 2.41612e-13 -5.90026e-13 -2.38836e-13 -3.52359e-13 -4.91106e-13 -1.56927e-13 -3.26447e-13 4.60847e-13 -4.79493e-13 -4.77129e-13 -5.16345e-14 4.87292e-13 2.13028e-13 1.39639e-13 -2.4658e-13 -1.81288e-13 -1.64769e-13 3.00122e-13 -3.21826e-13 -6.09538e-13 2.4281e-13 -4.02226e-13 1.67844e-13 -1.92301e-13 -6.39537e-13 -1.58055e-13 7.83343e-13 7.99369e-14 -1.4688e-14 -5.34595e-13 1.03181e-12 7.26495e-13 -8.68646e-13 -7.25185e-13 0 0 1.28538e-14 -7.61398e-15 2.83102e-14 -2.64452e-14 -2.3442e-14 -3.3774e-14 -1.41787e-14 -9.55683e-15 9.25099e-15 1.68613e-14 -5.04257e-14 7.21904e-14 -8.85488e-14 -1.88461e-14 -4.70688e-14 -2.7081e-14 -7.92784e-14 -1.16578e-13 -3.12057e-14 -5.62104e-14 -9.53562e-14 7.22248e-16 -1.03425e-13 -1.0514e-13 -9.16102e-14 -3.78343e-14 -1.74134e-13 -8.72117e-14 -8.28177e-14 -6.30459e-14 -1.01525e-13 -2.27915e-13 -9.47003e-14 -3.10037e-13 -7.30419e-14 -1.42066e-13 -5.68165e-14 2.68005e-14 -2.89841e-13 1.15256e-13 -4.75684e-14 -1.02571e-14 -2.60114e-14 4.70885e-14 1.45545e-14 -7.28461e-14 -5.16756e-13 -6.36766e-14 -3.0453e-13 8.25901e-14 -1.125e-13 -8.87851e-14 5.19356e-15 -3.79563e-13 2.05758e-14 1.42762e-13 -2.91737e-13 -7.45952e-14 -2.13007e-13 1.51729e-13 -1.25589e-13 -7.14452e-14 4.74138e-13 4.70923e-12 4.31379e-11 3.70904e-10 2.96553e-09 2.19331e-08 1.49246e-07 9.29722e-07 5.27102e-06 2.70077e-05 0.000124009 0.000504976 0.00180044 0.00553664 0.0144617 0.0317562 0.0587911 0.0937383 0.133252 0.174831 0.217231 0.259913 0.302635 0.345195 0.387336 0.428907 0.469835 0.510111 0.549715 0.588599 0.626686 0.663852 0.699929 0.734688 0.767833 0.798996 0.827739 0.853581 0.876042 0.894734 0.909464 0.920315 0.927674 0.932158 0.934497 0.935407 0.935407 0.93529 0.935246 0.935706 0.937221 0.940295 0.945227 0.952361 0.963768 0.961371 0.952139 0.942291 0.935755 0.931849 0.929326 0.926808 0.923164 0.916753 0.905271 0.8854 0.852664 0.801802 0.727946 0.628743 0.507093 0.373297 0.245011 0.140545 0.0695702 0.0301001 0.0118376 0.00441053 0.00159734 0.000568813 0.000199989 6.94981e-05 2.38697e-05 8.09905e-06 2.71331e-06 8.97039e-07 2.92518e-07 9.40438e-08 2.97975e-08 9.3013e-09 2.85964e-09 8.65602e-10 2.57694e-10 7.51712e-11 2.16953e-11 5.86614e-12 1.93894e-12 -8.25766e-14 -7.03942e-13 4.15003e-13 2.4908e-13 -2.2329e-13 -4.16649e-13 -5.98183e-13 1.56098e-13 -2.62426e-13 -4.43955e-13 -3.34239e-13 -3.86767e-13 -2.52952e-13 -4.7046e-13 1.04704e-15 2.66524e-13 1.09925e-13 7.94221e-14 4.78688e-14 -1.31094e-13 2.17495e-13 -1.19229e-13 -2.74208e-14 -5.28096e-13 -2.1037e-13 1.90862e-13 -3.16835e-13 -2.88695e-13 -2.89453e-13 -2.46635e-13 2.64956e-13 1.8918e-13 -4.6365e-13 1.36115e-13 2.6048e-13 7.38281e-13 -4.51881e-13 -5.19231e-13 8.51867e-13 6.66251e-13 0 0 1.08022e-14 1.06906e-14 -2.28824e-14 -2.01063e-14 -3.82731e-14 -2.01425e-14 -4.72228e-14 -1.50812e-14 4.11273e-15 -2.47258e-14 1.51607e-14 -2.88146e-14 1.78183e-14 -3.77076e-14 -3.35583e-14 -6.94552e-14 -2.67874e-14 5.4764e-15 -2.74163e-14 -6.73327e-14 -1.66855e-14 -1.03573e-13 -9.49426e-14 -2.95159e-14 -2.57123e-14 -1.68455e-13 -1.06708e-13 -1.6114e-13 -6.45796e-14 -1.59033e-13 -8.90144e-14 -7.36148e-14 -1.86099e-13 -6.21089e-14 -2.48087e-13 -1.22701e-13 -9.47706e-14 -9.38054e-14 1.0046e-13 -9.68733e-14 -1.79013e-13 5.89424e-14 6.76682e-14 -1.15533e-13 -2.53586e-13 -1.7108e-13 -9.50789e-14 -1.95765e-13 -2.64099e-14 -5.92865e-14 -1.23593e-13 -9.80526e-14 -3.87426e-13 -9.86705e-15 1.3338e-13 -2.74017e-13 1.65613e-13 -1.09839e-13 8.16373e-14 -2.39563e-13 -1.08918e-13 1.67921e-13 5.80385e-13 4.90145e-12 4.27896e-11 3.70815e-10 2.96596e-09 2.1933e-08 1.49246e-07 9.29722e-07 5.27101e-06 2.70077e-05 0.000124009 0.000504976 0.00180044 0.00553664 0.0144617 0.0317562 0.0587911 0.0937383 0.133252 0.174831 0.217231 0.259913 0.302635 0.345195 0.387336 0.428907 0.469835 0.510111 0.549715 0.588599 0.626686 0.663852 0.699929 0.734688 0.767833 0.798996 0.827739 0.853581 0.876042 0.894734 0.909464 0.920315 0.927674 0.932158 0.934497 0.935407 0.935407 0.93529 0.935246 0.935706 0.937221 0.940295 0.945227 0.952361 0.963768 0.961371 0.952139 0.942291 0.935755 0.931849 0.929326 0.926808 0.923164 0.916753 0.905271 0.8854 0.852664 0.801802 0.727946 0.628743 0.507093 0.373297 0.245011 0.140545 0.0695702 0.0301001 0.0118376 0.00441053 0.00159734 0.000568813 0.000199989 6.94981e-05 2.38697e-05 8.09905e-06 2.71331e-06 8.97038e-07 2.92518e-07 9.4044e-08 2.97975e-08 9.30154e-09 2.8597e-09 8.6547e-10 2.578e-10 7.55798e-11 2.16184e-11 5.82582e-12 1.7652e-12 -1.29723e-13 -2.94314e-14 1.47479e-13 -1.48442e-13 -2.49815e-13 5.07047e-14 -7.81211e-13 -2.25734e-13 -3.76167e-13 -1.23676e-13 -1.90665e-13 -7.50759e-13 -2.07301e-14 -2.77926e-13 2.07083e-13 -9.04755e-14 1.51591e-13 -4.2012e-13 5.38609e-14 5.83704e-14 -9.789e-14 9.43237e-14 9.74399e-14 -2.46617e-13 1.96428e-13 -7.09132e-14 -4.88967e-13 -2.45112e-13 -1.01107e-13 -4.89644e-14 -7.58974e-13 3.51839e-13 3.21954e-14 1.45934e-13 1.32125e-13 -4.45359e-14 1.11103e-13 2.58221e-13 -2.693e-13 -3.45777e-13 0 0 -3.57028e-14 -3.87156e-14 -4.81454e-14 -3.55574e-14 -3.85403e-14 -1.27419e-14 -3.04226e-14 -1.03379e-14 7.83557e-15 1.52357e-14 -5.92599e-15 -2.43782e-14 3.94479e-14 -8.9578e-14 -1.22248e-14 -2.63857e-14 -1.40561e-14 4.96428e-14 -5.39244e-14 -1.35036e-14 -1.26853e-15 -6.8549e-14 -2.23797e-14 -7.72571e-14 -1.51721e-13 -1.58812e-13 -1.58902e-13 -1.80058e-13 -1.31587e-13 -8.55904e-14 -7.83081e-14 9.01532e-15 -1.33019e-13 -1.94227e-13 -1.0699e-13 5.95864e-15 -1.26103e-13 -6.74725e-14 5.09395e-14 -1.08899e-13 6.69821e-15 -2.83881e-14 8.5204e-14 -1.58666e-13 -1.79718e-13 -2.7049e-13 1.90623e-14 -2.06116e-14 -1.39123e-13 -1.91142e-13 4.88798e-14 -3.08624e-13 2.48488e-14 1.69527e-13 -1.6381e-13 -2.66056e-13 -6.08468e-15 -9.79553e-14 1.32489e-13 -3.104e-13 4.11611e-14 1.03291e-13 5.64783e-13 4.57929e-12 4.32245e-11 3.70859e-10 2.96613e-09 2.1933e-08 1.49246e-07 9.29723e-07 5.27102e-06 2.70077e-05 0.000124009 0.000504976 0.00180044 0.00553664 0.0144617 0.0317562 0.0587911 0.0937383 0.133252 0.174831 0.217231 0.259913 0.302635 0.345195 0.387336 0.428907 0.469835 0.510111 0.549715 0.588599 0.626686 0.663852 0.699929 0.734688 0.767833 0.798996 0.827739 0.853581 0.876042 0.894734 0.909464 0.920315 0.927674 0.932158 0.934497 0.935407 0.935407 0.93529 0.935246 0.935706 0.937221 0.940295 0.945227 0.952361 0.963768 0.961371 0.952139 0.942291 0.935755 0.931849 0.929326 0.926808 0.923164 0.916753 0.905271 0.8854 0.852664 0.801802 0.727946 0.628743 0.507093 0.373297 0.245011 0.140545 0.0695702 0.0301001 0.0118376 0.00441053 0.00159734 0.000568813 0.000199989 6.94981e-05 2.38697e-05 8.09905e-06 2.71331e-06 8.97038e-07 2.92518e-07 9.40441e-08 2.97976e-08 9.30135e-09 2.85982e-09 8.65592e-10 2.58144e-10 7.55942e-11 2.16664e-11 6.01652e-12 7.83793e-13 7.15381e-13 4.58361e-13 -1.78535e-13 -2.31919e-13 -5.55055e-14 -3.75988e-13 -2.31221e-13 -9.76122e-13 -2.33744e-13 -3.35977e-13 -7.26378e-14 -2.99682e-13 -2.48871e-13 1.05576e-13 -6.88775e-14 -7.68276e-13 2.17585e-13 -2.68088e-13 2.73194e-13 3.17194e-13 -4.51648e-13 -2.87673e-13 2.7704e-13 7.26221e-13 -5.25497e-14 -7.00696e-13 -3.61469e-13 -2.57699e-13 1.78467e-13 -4.17972e-13 -4.98898e-13 -4.15891e-13 3.28847e-13 9.01617e-14 3.63247e-13 -3.57128e-13 9.02307e-13 -2.44136e-13 -5.29533e-13 -3.80941e-13 0 0 -2.21107e-14 -5.39634e-14 -1.80136e-14 -7.14907e-14 -4.93768e-14 -3.96153e-14 -2.59626e-15 -3.09133e-15 5.23961e-15 2.12604e-14 -5.33748e-14 8.09207e-14 -7.92616e-14 -7.71923e-15 4.20173e-15 7.53706e-14 -7.17771e-15 -3.1147e-14 -2.61549e-15 -5.31811e-14 -9.32762e-14 2.79051e-14 -1.0493e-13 -1.58414e-13 -2.13657e-13 -6.8487e-14 -2.15171e-13 -1.61655e-13 -1.03083e-13 -1.77547e-14 -9.68378e-14 -5.3928e-14 4.29678e-14 -2.91577e-13 1.75731e-13 -1.10181e-13 6.68277e-14 3.91241e-14 -3.38825e-13 4.47508e-14 -6.2867e-14 -1.64138e-13 -7.30909e-14 3.15784e-14 3.26579e-14 -7.74301e-14 -3.68346e-13 2.0199e-14 -3.15448e-13 -3.483e-14 1.03627e-13 -7.08067e-14 3.28842e-13 -1.16044e-13 -2.0656e-13 2.00753e-13 -3.37433e-13 -1.229e-13 -3.8292e-13 1.90569e-13 -1.1482e-13 8.92299e-14 5.93222e-13 4.59843e-12 4.34943e-11 3.71119e-10 2.96583e-09 2.19331e-08 1.49246e-07 9.29723e-07 5.27102e-06 2.70077e-05 0.000124009 0.000504976 0.00180044 0.00553664 0.0144617 0.0317562 0.0587911 0.0937383 0.133252 0.174831 0.217231 0.259913 0.302635 0.345195 0.387336 0.428907 0.469835 0.510111 0.549715 0.588599 0.626686 0.663852 0.699929 0.734688 0.767833 0.798996 0.827739 0.853581 0.876042 0.894734 0.909464 0.920315 0.927674 0.932158 0.934497 0.935407 0.935407 0.93529 0.935246 0.935706 0.937221 0.940295 0.945227 0.952361 0.963768 0.961371 0.952139 0.942291 0.935755 0.931849 0.929326 0.926808 0.923164 0.916753 0.905271 0.8854 0.852664 0.801802 0.727946 0.628743 0.507093 0.373297 0.245011 0.140545 0.0695702 0.0301001 0.0118376 0.00441053 0.00159734 0.000568813 0.000199989 6.94981e-05 2.38697e-05 8.09905e-06 2.71331e-06 8.97039e-07 2.92518e-07 9.4044e-08 2.97977e-08 9.3013e-09 2.85968e-09 8.65771e-10 2.57843e-10 7.53289e-11 2.19131e-11 6.24653e-12 1.38634e-12 3.00462e-13 2.19667e-13 -1.68206e-13 2.70502e-13 -2.8326e-13 -8.14602e-13 -5.51417e-13 -1.75203e-13 -1.18749e-13 -5.20736e-13 -2.69613e-13 -2.68968e-13 -2.69081e-13 -1.6174e-13 -1.80146e-13 -1.69206e-13 3.81277e-14 -1.08606e-13 4.92355e-14 -4.92937e-14 2.30765e-14 -3.3693e-13 3.19728e-15 -1.07119e-13 -2.41627e-13 4.49492e-14 -2.36901e-13 -2.05404e-13 -2.29444e-13 -2.30308e-13 5.13421e-13 1.44569e-15 -2.31981e-13 -3.80477e-14 4.10671e-13 5.85537e-13 -3.6736e-13 -1.05849e-12 9.24699e-13 7.90467e-13 0 0 -8.8893e-15 2.11271e-15 -6.56319e-14 -2.73421e-14 -4.71912e-14 -2.06917e-14 -3.96409e-14 -1.54191e-14 -2.85168e-14 -7.617e-14 9.83851e-14 -6.65916e-14 3.07457e-14 3.5657e-14 4.3017e-14 1.80532e-14 2.7062e-14 6.00241e-14 -2.75179e-14 -1.65213e-13 -5.61904e-14 -2.01308e-13 -1.40905e-13 -3.37886e-14 -9.62271e-14 -2.41819e-13 -1.73658e-14 -2.39933e-13 5.55047e-14 -1.75968e-13 -1.54296e-13 3.8443e-14 -3.02066e-14 2.37145e-13 -1.84349e-14 -3.29665e-13 1.26516e-13 -2.25824e-13 1.74606e-13 -1.7305e-13 -1.89882e-13 -7.74275e-14 -1.92628e-13 -1.15883e-14 -2.86022e-13 -6.00843e-15 2.39721e-13 -4.56785e-13 1.85933e-13 -1.71408e-13 -5.067e-14 2.15903e-13 -2.15261e-13 3.38409e-13 -5.53949e-14 -2.6782e-13 1.51977e-13 -2.41298e-13 -3.54593e-13 -1.47212e-13 -2.23514e-13 4.00389e-13 6.63919e-13 4.96741e-12 4.30391e-11 3.70916e-10 2.96664e-09 2.19329e-08 1.49245e-07 9.29723e-07 5.27102e-06 2.70077e-05 0.000124009 0.000504976 0.00180044 0.00553664 0.0144617 0.0317562 0.0587911 0.0937383 0.133252 0.174831 0.217231 0.259913 0.302635 0.345195 0.387336 0.428907 0.469835 0.510111 0.549715 0.588599 0.626686 0.663852 0.699929 0.734688 0.767833 0.798996 0.827739 0.853581 0.876042 0.894734 0.909464 0.920315 0.927674 0.932158 0.934497 0.935407 0.935407 0.93529 0.935246 0.935706 0.937221 0.940295 0.945227 0.952361 0.963768 0.961371 0.952139 0.942291 0.935755 0.931849 0.929326 0.926808 0.923164 0.916753 0.905271 0.8854 0.852664 0.801802 0.727946 0.628743 0.507093 0.373297 0.245011 0.140545 0.0695702 0.0301001 0.0118376 0.00441053 0.00159734 0.000568813 0.000199989 6.94981e-05 2.38697e-05 8.09905e-06 2.71331e-06 8.97038e-07 2.92517e-07 9.40443e-08 2.97977e-08 9.30186e-09 2.85916e-09 8.65548e-10 2.57417e-10 7.58342e-11 2.16362e-11 6.18724e-12 1.53935e-12 -3.27608e-13 2.0153e-12 -9.92051e-13 -5.19328e-13 -6.21273e-13 -1.43067e-13 -7.64837e-13 2.48147e-13 -2.36328e-13 -8.13188e-14 -5.97906e-13 -8.23484e-13 9.75777e-14 3.11282e-13 -2.89959e-13 7.01363e-15 -3.27217e-13 -1.92827e-13 -2.22905e-13 -2.14408e-13 7.20974e-14 1.47303e-13 -4.62734e-13 -8.036e-13 1.13616e-13 3.58203e-13 1.47683e-13 -2.1047e-13 -2.71286e-13 5.7837e-13 -6.62759e-13 1.00194e-12 6.53375e-13 -1.56845e-13 -1.76552e-13 -2.14901e-13 -3.81551e-13 6.52697e-13 -2.02516e-13 -4.06425e-13 0
				</DataArray>
				<DataArray Name="VitesseY" type="Float32" format="ascii">