<?xml version="1.0"?>
<VTKFile type="PolyData">
	<PolyData>
		<Piece NumberOfPoints="1206" NumberOfPolys="1000">
			<Points>
				<DataArray type="Float32" NumberOfComponents="3" format="ascii">
 0 0 0 0.005 0 0 0.01 0 0 0.015 0 0 0.02 0 0 0.025 0 0 0.03 0 0 0.035 0 0 0.04 0 0 0.045 0 0 0.05 0 0 0.055 0 0 0.06 0 0 0.065 0 0 0.07 0 0 0.075 0 0 0.08 0 0 0.085 0 0 0.09 0 0 0.095 0 0 0.1 0 0 0.105 0 0 0.11 0 0 0.115 0 0 0.12 0 0 0.125 0 0 0.13 0 0 0.135 0 0 0.14 0 0 0.145 0 0 0.15 0 0 0.155 0 0 0.16 0 0 0.165 0 0 0.17 0 0 0.175 0 0 0.18 0 0 0.185 0 0 0.19 0 0 0.195 0 0 0.2 0 0 0.205 0 0 0.21 0 0 0.215 0 0 0.22 0 0 0.225 0 0 0.23 0 0 0.235 0 0 0.24 0 0 0.245 0 0 0.25 0 0 0.255 0 0 0.26 0 0 0.265 0 0 0.27 0 0 0.275 0 0 0.28 0 0 0.285 0 0 0.29 0 0 0.295 0 0 0.3 0 0 0.305 0 0 0.31 0 0 0.315 0 0 0.32 0 0 0.325 0 0 0.33 0 0 0.335 0 0 0.34 0 0 0.345 0 0 0.35 0 0 0.355 0 0 0.36 0 0 0.365 0 0 0.37 0 0 0.375 0 0 0.38 0 0 0.385 0 0 0.39 0 0 0.395 0 0 0.4 0 0 0.405 0 0 0.41 0 0 0.415 0 0 0.42 0 0 0.425 0 0 0.43 0 0 0.435 0 0 0.44 0 0 0.445 0 0 0.45 0 0 0.455 0 0 0.46 0 0 0.465 0 0 0.47 0 0 0.475 0 0 0.48 0 0 0.485 0 0 0.49 0 0 0.495 0 0 0.5 0 0 0.505 0 0 0.51 0 0 0.515 0 0 0.52 0 0 0.525 0 0 0.53 0 0 0.535 0 0 0.54 0 0 0.545 0 0 0.55 0 0 0.555 0 0 0.56 0 0 0.565 0 0 0.57 0 0 0.575 0 0 0.58 0 0 0.585 0 0 0.59 0 0 0.595 0 0 0.6 0 0 0.605 0 0 0.61 0 0 0.615 0 0 0.62 0 0 0.625 0 0 0.63 0 0 0.635 0 0 0.64 0 0 0.645 0 0 0.65 0 0 0.655 0 0 0.66 0 0 0.665 0 0 0.67 0 0 0.675 0 0 0.68 0 0 0.685 0 0 0.69 0 0 0.695 0 0 0.7 0 0 0.705 0 0 0.71 0 0 0.715 0 0 0.72 0 0 0.725 0 0 0.73 0 0 0.735 0 0 0.74 0 0 0.745 0 0 0.75 0 0 0.755 0 0 0.76 0 0 0.765 0 0 0.77 0 0 0.775 0 0 0.78 0 0 0.785 0 0 0.79 0 0 0.795 0 0 0.8 0 0 0.805 0 0 0.81 0 0 0.815 0 0 0.82 0 0 0.825 0 0 0.83 0 0 0.835 0 0 0.84 0 0 0.845 0 0 0.85 0 0 0.855 0 0 0.86 0 0 0.865 0 0 0.87 0 0 0.875 0 0 0.88 0 0 0.885 0 0 0.89 0 0 0.895 0 0 0.9 0 0 0.905 0 0 0.91 0 0 0.915 0 0 0.92 0 0 0.925 0 0 0.93 0 0 0.935 0 0 0.94 0 0 0.945 0 0 0.95 0 0 0.955 0 0 0.96 0 0 0.965 0 0 0.97 0 0 0.975 0 0 0.98 0 0 0.985 0 0 0.99 0 0 0.995 0 0 1 0 0 0 0.02 0 0.005 0.02 0 0.01 0.02 0 0.015 0.02 0 0.02 0.02 0 0.025 0.02 0 0.03 0.02 0 0.035 0.02 0 0.04 0.02 0 0.045 0.02 0 0.05 0.02 0 0.055 0.02 0 0.06 0.02 0 0.065 0.02 0 0.07 0.02 0 0.075 0.02 0 0.08 0.02 0 0.085 0.02 0 0.09 0.02 0 0.095 0.02 0 0.1 0.02 0 0.105 0.02 0 0.11 0.02 0 0.115 0.02 0 0.12 0.02 0 0.125 0.02 0 0.13 0.02 0 0.135 0.02 0 0.14 0.02 0 0.145 0.02 0 0.15 0.02 0 0.155 0.02 0 0.16 0.02 0 0.165 0.02 0 0.17 0.02 0 0.175 0.02 0 0.18 0.02 0 0.185 0.02 0 0.19 0.02 0 0.195 0.02 0 0.2 0.02 0 0.205 0.02 0 0.21 0.02 0 0.215 0.02 0 0.22 0.02 0 0.225 0.02 0 0.23 0.02 0 0.235 0.02 0 0.24 0.02 0 0.245 0.02 0 0.25 0.02 0 0.255 0.02 0 0.26 0.02 0 0.265 0.02 0 0.27 0.02 0 0.275 0.02 0 0.28 0.02 0 0.285 0.02 0 0.29 0.02 0 0.295 0.02 0 0.3 0.02 0 0.305 0.02 0 0.31 0.02 0 0.315 0.02 0 0.32 0.02 0 0.325 0.02 0 0.33 0.02 0 0.335 0.02 0 0.34 0.02 0 0.345 0.02 0 0.35 0.02 0 0.355 0.02 0 0.36 0.02 0 0.365 0.02 0 0.37 0.02 0 0.375 0.02 0 0.38 0.02 0 0.385 0.02 0 0.39 0.02 0 0.395 0.02 0 0.4 0.02 0 0.405 0.02 0 0.41 0.02 0 0.415 0.02 0 0.42 0.02 0 0.425 0.02 0 0.43 0.02 0 0.435 0.02 0 0.44 0.02 0 0.445 0.02 0 0.45 0.02 0 0.455 0.02 0 0.46 0.02 0 0.465 0.02 0 0.47 0.02 0 0.475 0.02 0 0.48 0.02 0 0.485 0.02 0 0.49 0.02 0 0.495 0.02 0 0.5 0.02 0 0.505 0.02 0 0.51 0.02 0 0.515 0.02 0 0.52 0.02 0 0.525 0.02 0 0.53 0.02 0 0.535 0.02 0 0.54 0.02 0 0.545 0.02 0 0.55 0.02 0 0.555 0.02 0 0.56 0.02 0 0.565 0.02 0 0.57 0.02 0 0.575 0.02 0 0.58 0.02 0 0.585 0.02 0 0.59 0.02 0 0.595 0.02 0 0.6 0.02 0 0.605 0.02 0 0.61 0.02 0 0.615 0.02 0 0.62 0.02 0 0.625 0.02 0 0.63 0.02 0 0.635 0.02 0 0.64 0.02 0 0.645 0.02 0 0.65 0.02 0 0.655 0.02 0 0.66 0.02 0 0.665 0.02 0 0.67 0.02 0 0.675 0.02 0 0.68 0.02 0 0.685 0.02 0 0.69 0.02 0 0.695 0.02 0 0.7 0.02 0 0.705 0.02 0 0.71 0.02 0 0.715 0.02 0 0.72 0.02 0 0.725 0.02 0 0.73 0.02 0 0.735 0.02 0 0.74 0.02 0 0.745 0.02 0 0.75 0.02 0 0.755 0.02 0 0.76 0.02 0 0.765 0.02 0 0.77 0.02 0 0.775 0.02 0 0.78 0.02 0 0.785 0.02 0 0.79 0.02 0 0.795 0.02 0 0.8 0.02 0 0.805 0.02 0 0.81 0.02 0 0.815 0.02 0 0.82 0.02 0 0.825 0.02 0 0.83 0.02 0 0.835 0.02 0 0.84 0.02 0 0.845 0.02 0 0.85 0.02 0 0.855 0.02 0 0.86 0.02 0 0.865 0.02 0 0.87 0.02 0 0.875 0.02 0 0.88 0.02 0 0.885 0.02 0 0.89 0.02 0 0.895 0.02 0 0.9 0.02 0 0.905 0.02 0 0.91 0.02 0 0.915 0.02 0 0.92 0.02 0 0.925 0.02 0 0.93 0.02 0 0.935 0.02 0 0.94 0.02 0 0.945 0.02 0 0.95 0.02 0 0.955 0.02 0 0.96 0.02 0 0.965 0.02 0 0.97 0.02 0 0.975 0.02 0 0.98 0.02 0 0.985 0.02 0 0.99 0.02 0 0.995 0.02 0 1 0.02 0 0 0.04 0 0.005 0.04 0 0.01 0.04 0 0.015 0.04 0 0.02 0.04 0 0.025 0.04 0 0.03 0.04 0 0.035 0.04 0 0.04 0.04 0 0.045 0.04 0 0.05 0.04 0 0.055 0.04 0 0.06 0.04 0 0.065 0.04 0 0.07 0.04 0 0.075 0.04 0 0.08 0.04 0 0.085 0.04 0 0.09 0.04 0 0.095 0.04 0 0.1 0.04 0 0.105 0.04 0 0.11 0.04 0 0.115 0.04 0 0.12 0.04 0 0.125 0.04 0 0.13 0.04 0 0.135 0.04 0 0.14 0.04 0 0.145 0.04 0 0.15 0.04 0 0.155 0.04 0 0.16 0.04 0 0.165 0.04 0 0.17 0.04 0 0.175 0.04 0 0.18 0.04 0 0.185 0.04 0 0.19 0.04 0 0.195 0.04 0 0.2 0.04 0 0.205 0.04 0 0.21 0.04 0 0.215 0.04 0 0.22 0.04 0 0.225 0.04 0 0.23 0.04 0 0.235 0.04 0 0.24 0.04 0 0.245 0.04 0 0.25 0.04 0 0.255 0.04 0 0.26 0.04 0 0.265 0.04 0 0.27 0.04 0 0.275 0.04 0 0.28 0.04 0 0.285 0.04 0 0.29 0.04 0 0.295 0.04 0 0.3 0.04 0 0.305 0.04 0 0.31 0.04 0 0.315 0.04 0 0.32 0.04 0 0.325 0.04 0 0.33 0.04 0 0.335 0.04 0 0.34 0.04 0 0.345 0.04 0 0.35 0.04 0 0.355 0.04 0 0.36 0.04 0 0.365 0.04 0 0.37 0.04 0 0.375 0.04 0 0.38 0.04 0 0.385 0.04 0 0.39 0.04 0 0.395 0.04 0 0.4 0.04 0 0.405 0.04 0 0.41 0.04 0 0.415 0.04 0 0.42 0.04 0 0.425 0.04 0 0.43 0.04 0 0.435 0.04 0 0.44 0.04 0 0.445 0.04 0 0.45 0.04 0 0.455 0.04 0 0.46 0.04 0 0.465 0.04 0 0.47 0.04 0 0.475 0.04 0 0.48 0.04 0 0.485 0.04 0 0.49 0.04 0 0.495 0.04 0 0.5 0.04 0 0.505 0.04 0 0.51 0.04 0 0.515 0.04 0 0.52 0.04 0 0.525 0.04 0 0.53 0.04 0 0.535 0.04 0 0.54 0.04 0 0.545 0.04 0 0.55 0.04 0 0.555 0.04 0 0.56 0.04 0 0.565 0.04 0 0.57 0.04 0 0.575 0.04 0 0.58 0.04 0 0.585 0.04 0 0.59 0.04 0 0.595 0.04 0 0.6 0.04 0 0.605 0.04 0 0.61 0.04 0 0.615 0.04 0 0.62 0.04 0 0.625 0.04 0 0.63 0.04 0 0.635 0.04 0 0.64 0.04 0 0.645 0.04 0 0.65 0.04 0 0.655 0.04 0 0.66 0.04 0 0.665 0.04 0 0.67 0.04 0 0.675 0.04 0 0.68 0.04 0 0.685 0.04 0 0.69 0.04 0 0.695 0.04 0 0.7 0.04 0 0.705 0.04 0 0.71 0.04 0 0.715 0.04 0 0.72 0.04 0 0.725 0.04 0 0.73 0.04 0 0.735 0.04 0 0.74 0.04 0 0.745 0.04 0 0.75 0.04 0 0.755 0.04 0 0.76 0.04 0 0.765 0.04 0 0.77 0.04 0 0.775 0.04 0 0.78 0.04 0 0.785 0.04 0 0.79 0.04 0 0.795 0.04 0 0.8 0.04 0 0.805 0.04 0 0.81 0.04 0 0.815 0.04 0 0.82 0.04 0 0.825 0.04 0 0.83 0.04 0 0.835 0.04 0 0.84 0.04 0 0.845 0.04 0 0.85 0.04 0 0.855 0.04 0 0.86 0.04 0 0.865 0.04 0 0.87 0.04 0 0.875 0.04 0 0.88 0.04 0 0.885 0.04 0 0.89 0.04 0 0.895 0.04 0 0.9 0.04 0 0.905 0.04 0 0.91 0.04 0 0.915 0.04 0 0.92 0.04 0 0.925 0.04 0 0.93 0.04 0 0.935 0.04 0 0.94 0.04 0 0.945 0.04 0 0.95 0.04 0 0.955 0.04 0 0.96 0.04 0 0.965 0.04 0 0.97 0.04 0 0.975 0.04 0 0.98 0.04 0 0.985 0.04 0 0.99 0.04 0 0.995 0.04 0 1 0.04 0 0 0.06 0 0.005 0.06 0 0.01 0.06 0 0.015 0.06 0 0.02 0.06 0 0.025 0.06 0 0.03 0.06 0 0.035 0.06 0 0.04 0.06 0 0.045 0.06 0 0.05 0.06 0 0.055 0.06 0 0.06 0.06 0 0.065 0.06 0 0.07 0.06 0 0.075 0.06 0 0.08 0.06 0 0.085 0.06 0 0.09 0.06 0 0.095 0.06 0 0.1 0.06 0 0.105 0.06 0 0.11 0.06 0 0.115 0.06 0 0.12 0.06 0 0.125 0.06 0 0.13 0.06 0 0.135 0.06 0 0.14 0.06 0 0.145 0.06 0 0.15 0.06 0 0.155 0.06 0 0.16 0.06 0 0.165 0.06 0 0.17 0.06 0 0.175 0.06 0 0.18 0.06 0 0.185 0.06 0 0.19 0.06 0 0.195 0.06 0 0.2 0.06 0 0.205 0.06 0 0.21 0.06 0 0.215 0.06 0 0.22 0.06 0 0.225 0.06 0 0.23 0.06 0 0.235 0.06 0 0.24 0.06 0 0.245 0.06 0 0.25 0.06 0 0.255 0.06 0 0.26 0.06 0 0.265 0.06 0 0.27 0.06 0 0.275 0.06 0 0.28 0.06 0 0.285 0.06 0 0.29 0.06 0 0.295 0.06 0 0.3 0.06 0 0.305 0.06 0 0.31 0.06 0 0.315 0.06 0 0.32 0.06 0 0.325 0.06 0 0.33 0.06 0 0.335 0.06 0 0.34 0.06 0 0.345 0.06 0 0.35 0.06 0 0.355 0.06 0 0.36 0.06 0 0.365 0.06 0 0.37 0.06 0 0.375 0.06 0 0.38 0.06 0 0.385 0.06 0 0.39 0.06 0 0.395 0.06 0 0.4 0.06 0 0.405 0.06 0 0.41 0.06 0 0.415 0.06 0 0.42 0.06 0 0.425 0.06 0 0.43 0.06 0 0.435 0.06 0 0.44 0.06 0 0.445 0.06 0 0.45 0.06 0 0.455 0.06 0 0.46 0.06 0 0.465 0.06 0 0.47 0.06 0 0.475 0.06 0 0.48 0.06 0 0.485 0.06 0 0.49 0.06 0 0.495 0.06 0 0.5 0.06 0 0.505 0.06 0 0.51 0.06 0 0.515 0.06 0 0.52 0.06 0 0.525 0.06 0 0.53 0.06 0 0.535 0.06 0 0.54 0.06 0 0.545 0.06 0 0.55 0.06 0 0.555 0.06 0 0.56 0.06 0 0.565 0.06 0 0.57 0.06 0 0.575 0.06 0 0.58 0.06 0 0.585 0.06 0 0.59 0.06 0 0.595 0.06 0 0.6 0.06 0 0.605 0.06 0 0.61 0.06 0 0.615 0.06 0 0.62 0.06 0 0.625 0.06 0 0.63 0.06 0 0.635 0.06 0 0.64 0.06 0 0.645 0.06 0 0.65 0.06 0 0.655 0.06 0 0.66 0.06 0 0.665 0.06 0 0.67 0.06 0 0.675 0.06 0 0.68 0.06 0 0.685 0.06 0 0.69 0.06 0 0.695 0.06 0 0.7 0.06 0 0.705 0.06 0 0.71 0.06 0 0.715 0.06 0 0.72 0.06 0 0.725 0.06 0 0.73 0.06 0 0.735 0.06 0 0.74 0.06 0 0.745 0.06 0 0.75 0.06 0 0.755 0.06 0 0.76 0.06 0 0.765 0.06 0 0.77 0.06 0 0.775 0.06 0 0.78 0.06 0 0.785 0.06 0 0.79 0.06 0 0.795 0.06 0 0.8 0.06 0 0.805 0.06 0 0.81 0.06 0 0.815 0.06 0 0.82 0.06 0 0.825 0.06 0 0.83 0.06 0 0.835 0.06 0 0.84 0.06 0 0.845 0.06 0 0.85 0.06 0 0.855 0.06 0 0.86 0.06 0 0.865 0.06 0 0.87 0.06 0 0.875 0.06 0 0.88 0.06 0 0.885 0.06 0 0.89 0.06 0 0.895 0.06 0 0.9 0.06 0 0.905 0.06 0 0.91 0.06 0 0.915 0.06 0 0.92 0.06 0 0.925 0.06 0 0.93 0.06 0 0.935 0.06 0 0.94 0.06 0 0.945 0.06 0 0.95 0.06 0 0.955 0.06 0 0.96 0.06 0 0.965 0.06 0 0.97 0.06 0 0.975 0.06 0 0.98 0.06 0 0.985 0.06 0 0.99 0.06 0 0.995 0.06 0 1 0.06 0 0 0.08 0 0.005 0.08 0 0.01 0.08 0 0.015 0.08 0 0.02 0.08 0 0.025 0.08 0 0.03 0.08 0 0.035 0.08 0 0.04 0.08 0 0.045 0.08 0 0.05 0.08 0 0.055 0.08 0 0.06 0.08 0 0.065 0.08 0 0.07 0.08 0 0.075 0.08 0 0.08 0.08 0 0.085 0.08 0 0.09 0.08 0 0.095 0.08 0 0.1 0.08 0 0.105 0.08 0 0.11 0.08 0 0.115 0.08 0 0.12 0.08 0 0.125 0.08 0 0.13 0.08 0 0.135 0.08 0 0.14 0.08 0 0.145 0.08 0 0.15 0.08 0 0.155 0.08 0 0.16 0.08 0 0.165 0.08 0
[...]
			<PointData Scalars="VitesseX">
				<DataArray Name="VitesseX" type="Float32" format="ascii">
 0 -3.51539e-16 -2.79499e-15 1.1133e-14 -2.58925e-14 -2.15522e-14 -1.6788e-14 -2.95819e-14 -6.00525e-14 -1.55793e-14 -1.15388e-14 -7.55812e-14 6.00691e-14 -9.09471e-14 -2.03409e-14 -2.78635e-14 -2.64445e-14 4.27957e-14 -2.89061e-14 -3.94831e-14 2.66473e-14 -9.24027e-14 -5.38956e-14 4.16833e-14 -1.50825e-13 -5.08656e-14 -8.86747e-14 -2.7836e-13 -1.86816e-13 1.25105e-14 -1.76742e-13 -2.98647e-14 -1.56451e-13 -2.36424e-14 -1.89262e-13 1.60099e-15 1.31554e-13 -1.67091e-13 -7.46745e-14 -3.13804e-13 -1.07774e-13 -2.2963e-15 -4.07128e-13 -1.1308e-13 -6.4742e-14 3.53327e-14 -1.9821e-13 -2.60057e-13 1.16684e-13 -1.60223e-13 -2.08656e-13 -5.68659e-15 -2.53874e-13 2.74482e-13 -1.08808e-13 1.43022e-12 1.37334e-11 9.79712e-11 6.82142e-10 4.45242e-09 2.71619e-08 1.54352e-07 8.13912e-07 3.9647e-06 1.77476e-05 7.25544e-05 0.000268862 0.000894956 0.00264752 0.00688025 0.015548 0.0304192 0.0518538 0.0784691 0.108218 0.139541 0.171589 0.20396 0.236467 0.269017 0.301552 0.333987 0.366251 0.398293 0.430074 0.461573 0.492776 0.523672 0.554243 0.584462 0.614293 0.643685 0.672571 0.700863 0.728449 0.755188 0.780906 0.805389 0.828386 0.849615 0.868776 0.885582 0.899801 0.911306 0.920121 0.926433 0.930564 0.932921 0.933942 0.934017 0.933872 0.933565 0.933152 0.932704 0.932318 0.932098 0.932148 0.932654 0.93389 0.936056 0.939396 0.943826 0.950591 0.957528 0.954064 0.946579 0.939332 0.934431 0.931504 0.929913 0.929072 0.928541 0.927989 0.927155 0.925652 0.922879 0.917851 0.908969 0.893753 0.868635 0.829012 0.769867 0.687226 0.580479 0.454995 0.323323 0.204104 0.112428 0.0538161 0.0229113 0.00904552 0.00343321 0.00127816 0.000470834 0.000172157 6.25359e-05 2.25672e-05 8.0876e-06 2.8771e-06 1.01547e-06 3.5543e-07 1.23313e-07 4.23876e-08 1.44303e-08 4.86316e-09 1.62133e-09 5.34839e-10 1.74396e-10 5.62951e-11 1.77039e-11 5.5386e-12 1.39108e-12 2.52977e-13 -1.97659e-13 1.98096e-13 -6.38313e-14 2.32162e-14 -4.56587e-13 -6.09785e-13 -3.38454e-13 3.47524e-14 -2.46822e-13 4.24205e-14 -1.06671e-13 -2.57256e-13 3.11633e-13 -1.54383e-13 6.89324e-13 -9.40438e-13 4.82429e-13 3.26374e-13 -2.45843e-13 3.69277e-13 3.82245e-13 -1.97302e-13 1.50678e-13 1.06977e-13 -8.84952e-13 1.22595e-12 4.72611e-13 0 0 5.94527e-17 -2.05787e-15 -1.38445e-14 7.74268e-15 -1.58718e-14 -1.33097e-14 -4.42551e-14 -1.65185e-14 -4.49686e-14 -4.56555e-14 1.51849e-14 -6.37914e-14 2.77845e-14 -8.92045e-14 1.14866e-14 -1.62971e-16 -5.26383e-14 2.9931e-14 -2.93474e-14 -4.03231e-14 -4.86327e-14 -8.95823e-14 -1.56164e-13 2.6712e-14 -8.21832e-14 -1.79827e-13 -5.68101e-14 -1.68563e-13 -1.42941e-13 -1.16134e-13 -1.07258e-13 7.68303e-15 -1.65942e-13 7.51461e-15 -5.56919e-14 -1.22996e-13 -2.61886e-14 -1.63124e-13 -2.18407e-14 -8.33078e-14 -2.88658e-13 -2.67178e-15 -1.08542e-13 -1.9682e-13 -1.52113e-13 -5.19427e-14 -2.54032e-14 -9.66068e-14 -2.28642e-14 -6.93454e-14 -1.8824e-13 -1.20252e-13 -6.9605e-14 3.38496e-13 1.76352e-12 1.29373e-11 9.81001e-11 6.82374e-10 4.45249e-09 2.71615e-08 1.54352e-07 8.13912e-07 3.9647e-06 1.77476e-05 7.25544e-05 0.000268862 0.000894956 0.00264752 0.00688025 0.015548 0.0304192 0.0518538 0.0784691 0.108218 0.139541 0.171589 0.20396 0.236467 0.269017 0.301552 0.333987 0.366251 0.398293 0.430074 0.461573 0.492776 0.523672 0.554243 0.584462 0.614293 0.643685 0.672571 0.700863 0.728449 0.755188 0.780906 0.805389 0.828386 0.849615 0.868776 0.885582 0.899801 0.911306 0.920121 0.926433 0.930564 0.932921 0.933942 0.934017 0.933872 0.933565 0.933152 0.932704 0.932318 0.932098 0.932148 0.932654 0.93389 0.936056 0.939396 0.943826 0.950591 0.957528 0.954064 0.946579 0.939332 0.934431 0.931504 0.929913 0.929072 0.928541 0.927989 0.927155 0.925652 0.922879 0.917851 0.908969 0.893753 0.868635 0.829012 0.769867 0.687226 0.580479 0.454995 0.323323 0.204104 0.112428 0.0538161 0.0229113 0.00904552 0.00343321 0.00127816 0.000470834 0.000172157 6.25359e-05 2.25672e-05 8.0876e-06 2.87709e-06 1.01548e-06 3.55431e-07 1.23313e-07 4.23877e-08 1.44297e-08 4.86297e-09 1.62205e-09 5.34941e-10 1.7433e-10 5.58407e-11 1.79885e-11 5.27615e-12 1.60466e-12 1.65406e-13 1.21685e-13 -1.63011e-13 -1.43013e-13 -1.29829e-13 -2.31528e-13 -2.26156e-13 -2.87697e-13 -4.23143e-13 -1.72087e-13 2.62318e-14 -1.91166e-13 3.15709e-13 -3.09901e-13 1.74264e-13 -4.64927e-13 6.77832e-13 -4.02249e-13 -2.3175e-13 2.61478e-13 1.57199e-13 2.26634e-13 2.44806e-13 -3.09309e-14 1.00043e-13 7.24465e-13 -7.9377e-13 -3.82318e-13 0 0 -3.97195e-15 -2.47521e-16 1.35641e-14 2.80015e-15 -2.3135e-14 -2.30654e-14 -1.404e-14 -1.60464e-14 1.30414e-14 -1.99889e-14 -5.82909e-14 -2.0775e-14 -4.73845e-14 1.29665e-14 -9.74053e-15 -2.42292e-14 -3.57353e-14 -7.64823e-14 -2.30712e-14 -8.51701e-14 -1.66542e-14 -5.21897e-14 -9.0848e-14 -1.88507e-13 -9.40469e-14 -6.21667e-14 -1.19771e-13 -5.90784e-14 -1.27616e-13 -8.01812e-14 -6.98465e-14 -1.04704e-13 -6.14551e-14 -6.24279e-14 -6.35523e-14 -5.69908e-14 -1.30923e-13 -6.02768e-14 -1.40403e-13 -6.20999e-14 -1.31084e-13 -1.70551e-13 -6.83351e-14 -5.19441e-14 1.42154e-13 -4.17446e-14 -1.65545e-13 -1.85563e-13 -8.70303e-14 -6.92413e-15 2.38745e-14 -8.23066e-14 -1.14697e-13 1.83796e-13 1.80257e-12 1.32053e-11 9.7919e-11 6.82362e-10 4.45259e-09 2.71616e-08 1.54352e-07 8.13911e-07 3.9647e-06 1.77476e-05 7.25544e-05 0.000268862 0.000894956 0.00264752 0.00688025 0.015548 0.0304192 0.0518538 0.0784691 0.108218 0.139541 0.171589 0.20396 0.236467 0.269017 0.301552 0.333987 0.366251 0.398293 0.430074 0.461573 0.492776 0.523672 0.554243 0.584462 0.614293 0.643685 0.672571 0.700863 0.728449 0.755188 0.780906 0.805389 0.828386 0.849615 0.868776 0.885582 0.899801 0.911306 0.920121 0.926433 0.930564 0.932921 0.933942 0.934017 0.933872 0.933565 0.933152 0.932704 0.932318 0.932098 0.932148 0.932654 0.93389 0.936056 0.939396 0.943826 0.950591 0.957528 0.954064 0.946579 0.939332 0.934431 0.931504 0.929913 0.929072 0.928541 0.927989 0.927155 0.925652 0.922879 0.917851 0.908969 0.893753 0.868635 0.829012 0.769867 0.687226 0.580479 0.454995 0.323323 0.204104 0.112428 0.0538161 0.0229113 0.00904552 0.00343321 0.00127816 0.000470834 0.000172157 6.25359e-05 2.25672e-05 8.0876e-06 2.8771e-06 1.01548e-06 3.55431e-07 1.23313e-07 4.23877e-08 1.44301e-08 4.86311e-09 1.62187e-09 5.34917e-10 1.74465e-10 5.62341e-11 1.75513e-11 5.43217e-12 1.46729e-12 3.89737e-13 5.06203e-14 1.68197e-14 -4.88012e-13 -5.281e-13 1.2975e-13 -2.61748e-13 2.77799e-14 -3.5888e-13 -5.5196e-13 -1.22529e-13 -1.17655e-13 8.58155e-14 -9.39893e-15 -2.17844e-13 2.0618e-14 3.87707e-14 -1.57844e-13 -8.62674e-14 -1.36952e-13 1.45009e-14 2.36871e-13 2.87494e-13 2.73277e-13 2.44772e-14 -5.84228e-15 2.35124e-13 1.70861e-13 0 0 8.67793e-15 1.03803e-14 2.70562e-14 1.00136e-14 7.89296e-15 2.72159e-15 -3.1016e-14 -2.70789e-15 -1.4805e-14 -1.76853e-14 1.94933e-15 -9.16451e-15 -8.26087e-14 1.86501e-15 -4.91776e-15 -2.86298e-14 -5.42227e-14 -4.28579e-14 -1.12711e-13 -1.3475e-13 -1.25552e-13 -3.29477e-14 -6.04593e-14 -1.06791e-13 -1.1782e-14 -1.66048e-14 -1.36365e-13 -1.41013e-13 -3.21738e-15 -1.11574e-13 -7.44367e-16 -1.48103e-13 1.40724e-14 -2.9288e-14 -9.87147e-14 -8.52795e-15 -1.80932e-13 -6.46184e-14 -1.66481e-13 -3.10615e-13 -4.55341e-14 -1.67272e-13 1.63533e-14 7.28072e-15 -1.41815e-13 -9.12215e-14 -4.68771e-14 1.08633e-13 -5.36592e-14 -3.494e-14 -1.30018e-13 -2.75054e-13 2.47484e-13 2.23567e-13 1.80407e-12 1.33177e-11 9.81434e-11 6.82248e-10 4.45254e-09 2.71618e-08 1.54352e-07 8.13912e-07 3.9647e-06 1.77476e-05 7.25544e-05 0.000268862 0.000894956 0.00264752 0.00688025 0.015548 0.0304192 0.0518538 0.0784691 0.108218 0.139541 0.171589 0.20396 0.236467 0.269017 0.301552 0.333987 0.366251 0.398293 0.430074 0.461573 0.492776 0.523672 0.554243 0.584462 0.614293 0.643685 0.672571 0.700863 0.728449 0.755188 0.780906 0.805389 0.828386 0.849615 0.868776 0.885582 0.899801 0.911306 0.920121 0.926433 0.930564 0.932921 0.933942 0.934017 0.933872 0.933565 0.933152 0.932704 0.932318 0.932098 0.932148 0.932654 0.93389 0.936056 0.939396 0.943826 0.950591 0.957528 0.954064 0.946579 0.939332 0.934431 0.931504 0.929913 0.929072 0.928541 0.927989 0.927155 0.925652 0.922879 0.917851 0.908969 0.893753 0.868635 0.829012 0.769867 0.687226 0.580479 0.454995 0.323323 0.204104 0.112428 0.0538161 0.0229113 0.00904552 0.00343321 0.00127816 0.000470834 0.000172157 6.25359e-05 2.25672e-05 8.0876e-06 2.8771e-06 1.01547e-06 3.55431e-07 1.23313e-07 4.23875e-08 1.44302e-08 4.86306e-09 1.62165e-09 5.34888e-10 1.74759e-10 5.63546e-11 1.75877e-11 5.5575e-12 1.47244e-12 3.79579e-13 -5.63368e-13 1.73665e-13 -3.74062e-13 7.59344e-14 -2.52787e-13 -4.38718e-13 5.69873e-14 1.95327e-13 -8.55406e-13 -8.40529e-13 2.35492e-13 -6.95161e-13 2.47351e-13 -2.69586e-14 4.69549e-13 -4.87165e-13 7.03196e-13 -4.64551e-15 1.42391e-13 5.03861e-13 -2.39644e-13 1.00512e-13 2.22678e-14 -2.46482e-14 -1.30179e-13 7.14399e-13 2.58346e-13 0 0 1.36203e-14 1.61542e-14 -1.16359e-15 2.82812e-14 1.95701e-14 1.23085e-14 -2.26672e-14 1.3997e-14 -4.31453e-14 -4.57409e-14 4.44402e-14 -7.48276e-14 -4.32327e-15 -7.8686e-14 -3.32662e-14 -2.23895e-15 -7.65482e-14 -2.94773e-14 -9.12112e-14 -1.07708e-13 -1.37783e-13 -7.1316e-14 -1.09256e-13 5.91074e-14 -1.48761e-14 -1.20042e-13 -1.84551e-14 -8.93065e-14 -1.08355e-13 -3.66629e-14 -8.44475e-14 1.3097e-14 -5.88828e-14 1.03718e-13 -4.14105e-14 -1.03409e-13 -1.04458e-13 -2.01325e-13 -3.03762e-14 -3.15965e-13 -2.63853e-13 1.22849e-13 -6.2122e-14 -1.64245e-13 -3.95773e-13 -6.27173e-14 1.93671e-13 4.63341e-14 5.10967e-14 -7.41139e-14 -3.54461e-13 -1.29397e-13 9.46492e-14 6.12828e-13 1.85753e-12 1.30428e-11 9.83927e-11 6.82506e-10 4.45264e-09 2.71618e-08 1.54352e-07 8.13912e-07 3.9647e-06 1.77476e-05 7.25544e-05 0.000268862 0.000894956 0.00264752 0.00688025 0.015548 0.0304192 0.0518538 0.0784691 0.108218 0.139541 0.171589 0.20396 0.236467 0.269017 0.301552 0.333987 0.366251 0.398293 0.430074 0.461573 0.492776 0.523672 0.554243 0.584462 0.614293 0.643685 0.672571 0.700863 0.728449 0.755188 0.780906 0.805389 0.828386 0.849615 0.868776 0.885582 0.899801 0.911306 0.920121 0.926433 0.930564 0.932921 0.933942 0.934017 0.933872 0.933565 0.933152 0.932704 0.932318 0.932098 0.932148 0.932654 0.93389 0.936056 0.939396 0.943826 0.950591 0.957528 0.954064 0.946579 0.939332 0.934431 0.931504 0.929913 0.929072 0.928541 0.927989 0.927155 0.925652 0.922879 0.917851 0.908969 0.893753 0.868635 0.829012 0.769867 0.687226 0.580479 0.454995 0.323323 0.204104 0.112428 0.0538161 0.0229113 0.00904552 0.00343321 0.00127816 0.000470834 0.000172157 6.25359e-05 2.25672e-05 8.0876e-06 2.87709e-06 1.01547e-06 3.55431e-07 1.23313e-07 4.23878e-08 1.44298e-08 4.86324e-09 1.62198e-09 5.3499e-10 1.74381e-10 5.59865e-11 1.8009e-11 5.37275e-12 1.23534e-12 8.77401e-14 -8.94093e-14 -1.95522e-13 -1.11843e-13 2.18007e-13 -2.76732e-13 -2.1263e-13 -2.12205e-13 -2.19968e-13 -2.21099e-13 -5.57344e-13 -1.78688e-13 -2.01183e-13 -2.51932e-13 1.87181e-13 -2.62814e-13 4.21098e-13 -1.57501e-13 -2.29944e-13 4.66443e-13 5.23009e-13 -1.94338e-13 2.08762e-13 -7.53425e-15 2.38969e-13 7.36016e-13 -5.40354e-13 -6.24421e-13 0 0 1.47045e-15 1.23735e-14 9.51076e-15 7.57698e-16 -1.27243e-14 -1.71255e-14 4.7546e-14 -2.56984e-14 4.37603e-14 -1.63169e-14 -1.37551e-13 1.47757e-14 -8.47144e-14 2.2899e-14 -1.27015e-13 -2.17952e-14 3.19507e-14 -2.14972e-13 1.60696e-14 -8.96258e-15 -5.29068e-14 -5.58471e-14 7.47219e-14 -2.49468e-13 -8.07812e-14 -6.02282e-14 -1.68461e-13 1.35567e-13 -1.67114e-13 4.49846e-14 -1.22448e-13 -5.88259e-14 3.94217e-14 -6.31342e-14 1.00489e-13 7.38024e-14 -2.23613e-13 -1.42394e-13 -2.7872e-13 -7.60568e-14 -1.23787e-13 -1.62645e-13 -1.89617e-13 -1.18042e-13 1.15951e-13 -1.20805e-13 -5.92455e-14 -1.85827e-13 -7.90438e-14 -1.62162e-13 -3.03447e-14 1.13331e-13 -1.21371e-13 3.60315e-13 1.61523e-12 1.37195e-11 9.81077e-11 6.82634e-10 4.45282e-09 2.71621e-08 1.54352e-07 8.13911e-07 3.9647e-06 1.77476e-05 7.25544e-05 0.000268862 0.000894956 0.00264752 0.00688025 0.015548 0.0304192 0.0518538 0.0784691 0.108218 0.139541 0.171589 0.20396 0.236467 0.269017 0.301552 0.333987 0.366251 0.398293 0.430074 0.461573 0.492776 0.523672 0.554243 0.584462 0.614293 0.643685 0.672571 0.700863 0.728449 0.755188 0.780906 0.805389 0.828386 0.849615 0.868776 0.885582 0.899801 0.911306 0.920121 0.926433 0.930564 0.932921 0.933942 0.934017 0.933872 0.933565 0.933152 0.932704 0.932318 0.932098 0.932148 0.932654 0.93389 0.936056 0.939396 0.943826 0.950591 0.957528 0.954064 0.946579 0.939332 0.934431 0.931504 0.929913 0.929072 0.928541 0.927989 0.927155 0.925652 0.922879 0.917851 0.908969 0.893753 0.868635 0.829012 0.769867 0.687226 0.580479 0.454995 0.323323 0.204104 0.112428 0.0538161 0.0229113 0.00904552 0.00343321 0.00127816 0.000470834 0.000172157 6.25359e-05 2.25672e-05 8.0876e-06 2.87709e-06 1.01548e-06 3.5543e-07 1.23313e-07 4.2388e-08 1.443e-08 4.86378e-09 1.62164e-09 5.34996e-10 1.7391e-10 5.63456e-11 1.76723e-11 5.48113e-12 6.42126e-13 1.17963e-13 6.0813e-13 -1.80618e-13 -2.29392e-13 -4.89181e-13 2.18078e-13 -2.28794e-13 -2.45885e-13 -6.67311e-13 2.62044e-13 3.11268e-13 -7.88008e-13 2.70914e-13 -8.59292e-14 -5.1032e-13 1.95687e-13 -4.02034e-13 -7.50156e-13 1.66741e-13 -3.94599e-13 1.22178e-13 4.9333e-13 1.04573e-13 6.99489e-13 4.83078e-13 -6.13177e-13 7.74231e-13 -1.86565e-13 0
				</DataArray>
				<DataArray Name="VitesseY" type="Float32" format="ascii">