<?xml version="1.0"?>
<VTKFile type="PolyData">
	<PolyData>
		<Piece NumberOfPoints="1206" NumberOfPolys="1000">
			<Points>
				<DataArray type="Float32" NumberOfComponents="3" format="ascii">
 0 0 0 0.005 0 0 0.01 0 0 0.015 0 0 0.02 0 0 0.025 0 0 0.03 0 0 0.035 0 0 0.04 0 0 0.045 0 0 0.05 0 0 0.055 0 0 0.06 0 0 0.065 0 0 0.07 0 0 0.075 0 0 0.08 0 0 0.085 0 0 0.09 0 0 0.095 0 0 0.1 0 0 0.105 0 0 0.11 0 0 0.115 0 0 0.12 0 0 0.125 0 0 0.13 0 0 0.135 0 0 0.14 0 0 0.145 0 0 0.15 0 0 0.155 0 0 0.16 0 0 0.165 0 0 0.17 0 0 0.175 0 0 0.18 0 0 0.185 0 0 0.19 0 0 0.195 0 0 0.2 0 0 0.205 0 0 0.21 0 0 0.215 0 0 0.22 0 0 0.225 0 0 0.23 0 0 0.235 0 0 0.24 0 0 0.245 0 0 0.25 0 0 0.255 0 0 0.26 0 0 0.265 0 0 0.27 0 0 0.275 0 0 0.28 0 0 0.285 0 0 0.29 0 0 0.295 0 0 0.3 0 0 0.305 0 0 0.31 0 0 0.315 0 0 0.32 0 0 0.325 0 0 0.33 0 0 0.335 0 0 0.34 0 0 0.345 0 0 0.35 0 0 0.355 0 0 0.36 0 0 0.365 0 0 0.37 0 0 0.375 0 0 0.38 0 0 0.385 0 0 0.39 0 0 0.395 0 0 0.4 0 0 0.405 0 0 0.41 0 0 0.415 0 0 0.42 0 0 0.425 0 0 0.43 0 0 0.435 0 0 0.44 0 0 0.445 0 0 0.45 0 0 0.455 0 0 0.46 0 0 0.465 0 0 0.47 0 0 0.475 0 0 0.48 0 0 0.485 0 0 0.49 0 0 0.495 0 0 0.5 0 0 0.505 0 0 0.51 0 0 0.515 0 0 0.52 0 0 0.525 0 0 0.53 0 0 0.535 0 0 0.54 0 0 0.545 0 0 0.55 0 0 0.555 0 0 0.56 0 0 0.565 0 0 0.57 0 0 0.575 0 0 0.58 0 0 0.585 0 0 0.59 0 0 0.595 0 0 0.6 0 0 0.605 0 0 0.61 0 0 0.615 0 0 0.62 0 0 0.625 0 0 0.63 0 0 0.635 0 0 0.64 0 0 0.645 0 0 0.65 0 0 0.655 0 0 0.66 0 0 0.665 0 0 0.67 0 0 0.675 0 0 0.68 0 0 0.685 0 0 0.69 0 0 0.695 0 0 0.7 0 0 0.705 0 0 0.71 0 0 0.715 0 0 0.72 0 0 0.725 0 0 0.73 0 0 0.735 0 0 0.74 0 0 0.745 0 0 0.75 0 0 0.755 0 0 0.76 0 0 0.765 0 0 0.77 0 0 0.775 0 0 0.78 0 0 0.785 0 0 0.79 0 0 0.795 0 0 0.8 0 0 0.805 0 0 0.81 0 0 0.815 0 0 0.82 0 0 0.825 0 0 0.83 0 0 0.835 0 0 0.84 0 0 0.845 0 0 0.85 0 0 0.855 0 0 0.86 0 0 0.865 0 0 0.87 0 0 0.875 0 0 0.88 0 0 0.885 0 0 0.89 0 0 0.895 0 0 0.9 0 0 0.905 0 0 0.91 0 0 0.915 0 0 0.92 0 0 0.925 0 0 0.93 0 0 0.935 0 0 0.94 0 0 0.945 0 0 0.95 0 0 0.955 0 0 0.96 0 0 0.965 0 0 0.97 0 0 0.975 0 0 0.98 0 0 0.985 0 0 0.99 0 0 0.995 0 0 1 0 0 0 0.02 0 0.005 0.02 0 0.01 0.02 0 0.015 0.02 0 0.02 0.02 0 0.025 0.02 0 0.03 0.02 0 0.035 0.02 0 0.04 0.02 0 0.045 0.02 0 0.05 0.02 0 0.055 0.02 0 0.06 0.02 0 0.065 0.02 0 0.07 0.02 0 0.075 0.02 0 0.08 0.02 0 0.085 0.02 0 0.09 0.02 0 0.095 0.02 0 0.1 0.02 0 0.105 0.02 0 0.11 0.02 0 0.115 0.02 0 0.12 0.02 0 0.125 0.02 0 0.13 0.02 0 0.135 0.02 0 0.14 0.02 0 0.145 0.02 0 0.15 0.02 0 0.155 0.02 0 0.16 0.02 0 0.165 0.02 0 0.17 0.02 0 0.175 0.02 0 0.18 0.02 0 0.185 0.02 0 0.19 0.02 0 0.195 0.02 0 0.2 0.02 0 0.205 0.02 0 0.21 0.02 0 0.215 0.02 0 0.22 0.02 0 0.225 0.02 0 0.23 0.02 0 0.235 0.02 0 0.24 0.02 0 0.245 0.02 0 0.25 0.02 0 0.255 0.02 0 0.26 0.02 0 0.265 0.02 0 0.27 0.02 0 0.275 0.02 0 0.28 0.02 0 0.285 0.02 0 0.29 0.02 0 0.295 0.02 0 0.3 0.02 0 0.305 0.02 0 0.31 0.02 0 0.315 0.02 0 0.32 0.02 0 0.325 0.02 0 0.33 0.02 0 0.335 0.02 0 0.34 0.02 0 0.345 0.02 0 0.35 0.02 0 0.355 0.02 0 0.36 0.02 0 0.365 0.02 0 0.37 0.02 0 0.375 0.02 0 0.38 0.02 0 0.385 0.02 0 0.39 0.02 0 0.395 0.02 0 0.4 0.02 0 0.405 0.02 0 0.41 0.02 0 0.415 0.02 0 0.42 0.02 0 0.425 0.02 0 0.43 0.02 0 0.435 0.02 0 0.44 0.02 0 0.445 0.02 0 0.45 0.02 0 0.455 0.02 0 0.46 0.02 0 0.465 0.02 0 0.47 0.02 0 0.475 0.02 0 0.48 0.02 0 0.485 0.02 0 0.49 0.02 0 0.495 0.02 0 0.5 0.02 0 0.505 0.02 0 0.51 0.02 0 0.515 0.02 0 0.52 0.02 0 0.525 0.02 0 0.53 0.02 0 0.535 0.02 0 0.54 0.02 0 0.545 0.02 0 0.55 0.02 0 0.555 0.02 0 0.56 0.02 0 0.565 0.02 0 0.57 0.02 0 0.575 0.02 0 0.58 0.02 0 0.585 0.02 0 0.59 0.02 0 0.595 0.02 0 0.6 0.02 0 0.605 0.02 0 0.61 0.02 0 0.615 0.02 0 0.62 0.02 0 0.625 0.02 0 0.63 0.02 0 0.635 0.02 0 0.64 0.02 0 0.645 0.02 0 0.65 0.02 0 0.655 0.02 0 0.66 0.02 0 0.665 0.02 0 0.67 0.02 0 0.675 0.02 0 0.68 0.02 0 0.685 0.02 0 0.69 0.02 0 0.695 0.02 0 0.7 0.02 0 0.705 0.02 0 0.71 0.02 0 0.715 0.02 0 0.72 0.02 0 0.725 0.02 0 0.73 0.02 0 0.735 0.02 0 0.74 0.02 0 0.745 0.02 0 0.75 0.02 0 0.755 0.02 0 0.76 0.02 0 0.765 0.02 0 0.77 0.02 0 0.775 0.02 0 0.78 0.02 0 0.785 0.02 0 0.79 0.02 0 0.795 0.02 0 0.8 0.02 0 0.805 0.02 0 0.81 0.02 0 0.815 0.02 0 0.82 0.02 0 0.825 0.02 0 0.83 0.02 0 0.835 0.02 0 0.84 0.02 0 0.845 0.02 0 0.85 0.02 0 0.855 0.02 0 0.86 0.02 0 0.865 0.02 0 0.87 0.02 0 0.875 0.02 0 0.88 0.02 0 0.885 0.02 0 0.89 0.02 0 0.895 0.02 0 0.9 0.02 0 0.905 0.02 0 0.91 0.02 0 0.915 0.02 0 0.92 0.02 0 0.925 0.02 0 0.93 0.02 0 0.935 0.02 0 0.94 0.02 0 0.945 0.02 0 0.95 0.02 0 0.955 0.02 0 0.96 0.02 0 0.965 0.02 0 0.97 0.02 0 0.975 0.02 0 0.98 0.02 0 0.985 0.02 0 0.99 0.02 0 0.995 0.02 0 1 0.02 0 0 0.04 0 0.005 0.04 0 0.01 0.04 0 0.015 0.04 0 0.02 0.04 0 0.025 0.04 0 0.03 0.04 0 0.035 0.04 0 0.04 0.04 0 0.045 0.04 0 0.05 0.04 0 0.055 0.04 0 0.06 0.04 0 0.065 0.04 0 0.07 0.04 0 0.075 0.04 0 0.08 0.04 0 0.085 0.04 0 0.09 0.04 0 0.095 0.04 0 0.1 0.04 0 0.105 0.04 0 0.11 0.04 0 0.115 0.04 0 0.12 0.04 0 0.125 0.04 0 0.13 0.04 0 0.135 0.04 0 0.14 0.04 0 0.145 0.04 0 0.15 0.04 0 0.155 0.04 0 0.16 0.04 0 0.165 0.04 0 0.17 0.04 0 0.175 0.04 0 0.18 0.04 0 0.185 0.04 0 0.19 0.04 0 0.195 0.04 0 0.2 0.04 0 0.205 0.04 0 0.21 0.04 0 0.215 0.04 0 0.22 0.04 0 0.225 0.04 0 0.23 0.04 0 0.235 0.04 0 0.24 0.04 0 0.245 0.04 0 0.25 0.04 0 0.255 0.04 0 0.26 0.04 0 0.265 0.04 0 0.27 0.04 0 0.275 0.04 0 0.28 0.04 0 0.285 0.04 0 0.29 0.04 0 0.295 0.04 0 0.3 0.04 0 0.305 0.04 0 0.31 0.04 0 0.315 0.04 0 0.32 0.04 0 0.325 0.04 0 0.33 0.04 0 0.335 0.04 0 0.34 0.04 0 0.345 0.04 0 0.35 0.04 0 0.355 0.04 0 0.36 0.04 0 0.365 0.04 0 0.37 0.04 0 0.375 0.04 0 0.38 0.04 0 0.385 0.04 0 0.39 0.04 0 0.395 0.04 0 0.4 0.04 0 0.405 0.04 0 0.41 0.04 0 0.415 0.04 0 0.42 0.04 0 0.425 0.04 0 0.43 0.04 0 0.435 0.04 0 0.44 0.04 0 0.445 0.04 0 0.45 0.04 0 0.455 0.04 0 0.46 0.04 0 0.465 0.04 0 0.47 0.04 0 0.475 0.04 0 0.48 0.04 0 0.485 0.04 0 0.49 0.04 0 0.495 0.04 0 0.5 0.04 0 0.505 0.04 0 0.51 0.04 0 0.515 0.04 0 0.52 0.04 0 0.525 0.04 0 0.53 0.04 0 0.535 0.04 0 0.54 0.04 0 0.545 0.04 0 0.55 0.04 0 0.555 0.04 0 0.56 0.04 0 0.565 0.04 0 0.57 0.04 0 0.575 0.04 0 0.58 0.04 0 0.585 0.04 0 0.59 0.04 0 0.595 0.04 0 0.6 0.04 0 0.605 0.04 0 0.61 0.04 0 0.615 0.04 0 0.62 0.04 0 0.625 0.04 0 0.63 0.04 0 0.635 0.04 0 0.64 0.04 0 0.645 0.04 0 0.65 0.04 0 0.655 0.04 0 0.66 0.04 0 0.665 0.04 0 0.67 0.04 0 0.675 0.04 0 0.68 0.04 0 0.685 0.04 0 0.69 0.04 0 0.695 0.04 0 0.7 0.04 0 0.705 0.04 0 0.71 0.04 0 0.715 0.04 0 0.72 0.04 0 0.725 0.04 0 0.73 0.04 0 0.735 0.04 0 0.74 0.04 0 0.745 0.04 0 0.75 0.04 0 0.755 0.04 0 0.76 0.04 0 0.765 0.04 0 0.77 0.04 0 0.775 0.04 0 0.78 0.04 0 0.785 0.04 0 0.79 0.04 0 0.795 0.04 0 0.8 0.04 0 0.805 0.04 0 0.81 0.04 0 0.815 0.04 0 0.82 0.04 0 0.825 0.04 0 0.83 0.04 0 0.835 0.04 0 0.84 0.04 0 0.845 0.04 0 0.85 0.04 0 0.855 0.04 0 0.86 0.04 0 0.865 0.04 0 0.87 0.04 0 0.875 0.04 0 0.88 0.04 0 0.885 0.04 0 0.89 0.04 0 0.895 0.04 0 0.9 0.04 0 0.905 0.04 0 0.91 0.04 0 0.915 0.04 0 0.92 0.04 0 0.925 0.04 0 0.93 0.04 0 0.935 0.04 0 0.94 0.04 0 0.945 0.04 0 0.95 0.04 0 0.955 0.04 0 0.96 0.04 0 0.965 0.04 0 0.97 0.04 0 0.975 0.04 0 0.98 0.04 0 0.985 0.04 0 0.99 0.04 0 0.995 0.04 0 1 0.04 0 0 0.06 0 0.005 0.06 0 0.01 0.06 0 0.015 0.06 0 0.02 0.06 0 0.025 0.06 0 0.03 0.06 0 0.035 0.06 0 0.04 0.06 0 0.045 0.06 0 0.05 0.06 0 0.055 0.06 0 0.06 0.06 0 0.065 0.06 0 0.07 0.06 0 0.075 0.06 0 0.08 0.06 0 0.085 0.06 0 0.09 0.06 0 0.095 0.06 0 0.1 0.06 0 0.105 0.06 0 0.11 0.06 0 0.115 0.06 0 0.12 0.06 0 0.125 0.06 0 0.13 0.06 0 0.135 0.06 0 0.14 0.06 0 0.145 0.06 0 0.15 0.06 0 0.155 0.06 0 0.16 0.06 0 0.165 0.06 0 0.17 0.06 0 0.175 0.06 0 0.18 0.06 0 0.185 0.06 0 0.19 0.06 0 0.195 0.06 0 0.2 0.06 0 0.205 0.06 0 0.21 0.06 0 0.215 0.06 0 0.22 0.06 0 0.225 0.06 0 0.23 0.06 0 0.235 0.06 0 0.24 0.06 0 0.245 0.06 0 0.25 0.06 0 0.255 0.06 0 0.26 0.06 0 0.265 0.06 0 0.27 0.06 0 0.275 0.06 0 0.28 0.06 0 0.285 0.06 0 0.29 0.06 0 0.295 0.06 0 0.3 0.06 0 0.305 0.06 0 0.31 0.06 0 0.315 0.06 0 0.32 0.06 0 0.325 0.06 0 0.33 0.06 0 0.335 0.06 0 0.34 0.06 0 0.345 0.06 0 0.35 0.06 0 0.355 0.06 0 0.36 0.06 0 0.365 0.06 0 0.37 0.06 0 0.375 0.06 0 0.38 0.06 0 0.385 0.06 0 0.39 0.06 0 0.395 0.06 0 0.4 0.06 0 0.405 0.06 0 0.41 0.06 0 0.415 0.06 0 0.42 0.06 0 0.425 0.06 0 0.43 0.06 0 0.435 0.06 0 0.44 0.06 0 0.445 0.06 0 0.45 0.06 0 0.455 0.06 0 0.46 0.06 0 0.465 0.06 0 0.47 0.06 0 0.475 0.06 0 0.48 0.06 0 0.485 0.06 0 0.49 0.06 0 0.495 0.06 0 0.5 0.06 0 0.505 0.06 0 0.51 0.06 0 0.515 0.06 0 0.52 0.06 0 0.525 0.06 0 0.53 0.06 0 0.535 0.06 0 0.54 0.06 0 0.545 0.06 0 0.55 0.06 0 0.555 0.06 0 0.56 0.06 0 0.565 0.06 0 0.57 0.06 0 0.575 0.06 0 0.58 0.06 0 0.585 0.06 0 0.59 0.06 0 0.595 0.06 0 0.6 0.06 0 0.605 0.06 0 0.61 0.06 0 0.615 0.06 0 0.62 0.06 0 0.625 0.06 0 0.63 0.06 0 0.635 0.06 0 0.64 0.06 0 0.645 0.06 0 0.65 0.06 0 0.655 0.06 0 0.66 0.06 0 0.665 0.06 0 0.67 0.06 0 0.675 0.06 0 0.68 0.06 0 0.685 0.06 0 0.69 0.06 0 0.695 0.06 0 0.7 0.06 0 0.705 0.06 0 0.71 0.06 0 0.715 0.06 0 0.72 0.06 0 0.725 0.06 0 0.73 0.06 0 0.735 0.06 0 0.74 0.06 0 0.745 0.06 0 0.75 0.06 0 0.755 0.06 0 0.76 0.06 0 0.765 0.06 0 0.77 0.06 0 0.775 0.06 0 0.78 0.06 0 0.785 0.06 0 0.79 0.06 0 0.795 0.06 0 0.8 0.06 0 0.805 0.06 0 0.81 0.06 0 0.815 0.06 0 0.82 0.06 0 0.825 0.06 0 0.83 0.06 0 0.835 0.06 0 0.84 0.06 0 0.845 0.06 0 0.85 0.06 0 0.855 0.06 0 0.86 0.06 0 0.865 0.06 0 0.87 0.06 0 0.875 0.06 0 0.88 0.06 0 0.885 0.06 0 0.89 0.06 0 0.895 0.06 0 0.9 0.06 0 0.905 0.06 0 0.91 0.06 0 0.915 0.06 0 0.92 0.06 0 0.925 0.06 0 0.93 0.06 0 0.935 0.06 0 0.94 0.06 0 0.945 0.06 0 0.95 0.06 0 0.955 0.06 0 0.96 0.06 0 0.965 0.06 0 0.97 0.06 0 0.975 0.06 0 0.98 0.06 0 0.985 0.06 0 0.99 0.06 0 0.995 0.06 0 1 0.06 0 0 0.08 0 0.005 0.08 0 0.01 0.08 0 0.015 0.08 0 0.02 0.08 0 0.025 0.08 0 0.03 0.08 0 0.035 0.08 0 0.04 0.08 0 0.045 0.08 0 0.05 0.08 0 0.055 0.08 0 0.06 0.08 0 0.065 0.08 0 0.07 0.08 0 0.075 0.08 0 0.08 0.08 0 0.085 0.08 0 0.09 0.08 0 0.095 0.08 0 0.1 0.08 0 0.105 0.08 0 0.11 0.08 0 0.115 0.08 0 0.12 0.08 0 0.125 0.08 0 0.13 0.08 0 0.135 0.08 0 0.14 0.08 0 0.145 0.08 0 0.15 0.08 0 0.155 0.08 0 0.16 0.08 0 0.165 0.08 0
[...]
			<PointData Scalars="VitesseX">
				<DataArray Name="VitesseX" type="Float32" format="ascii">
 0 -1.24994e-15 2.6105e-15 1.8124e-14 -7.64509e-15 -3.59029e-14 -1.54553e-14 -2.43619e-14 -3.96388e-14 8.69955e-15 -2.29784e-15 -4.70625e-14 3.79554e-14 -6.38688e-14 1.19537e-14 2.07627e-14 -3.27825e-15 -1.90951e-14 -1.5902e-14 -3.01444e-14 -4.1456e-15 -7.11471e-14 -4.77467e-14 -3.19432e-15 -1.43973e-13 -7.33099e-14 -6.108e-14 -1.24568e-13 -1.70827e-13 2.93533e-14 -1.87171e-13 -6.53927e-14 -1.71985e-13 4.49973e-14 -1.1618e-13 -1.11898e-13 1.69057e-13 -6.07101e-14 -1.44076e-14 -1.81501e-13 -1.8444e-13 -1.84365e-13 -1.7235e-13 -2.31274e-13 5.31154e-14 2.04596e-13 -2.19543e-13 4.24068e-14 -1.86785e-13 -4.11854e-15 -2.91605e-13 -9.96251e-14 -1.16508e-13 2.1354e-13 -3.50195e-14 1.17691e-12 1.22541e-11 8.99731e-11 6.2717e-10 4.1108e-09 2.51708e-08 1.43594e-07 7.60217e-07 3.7185e-06 1.67173e-05 6.86516e-05 0.000255616 0.000855199 0.00254371 0.00664885 0.0151154 0.0297467 0.0509746 0.0774666 0.107171 0.138495 0.170567 0.202972 0.235518 0.268109 0.300687 0.333166 0.365476 0.397563 0.429389 0.460931 0.492177 0.523114 0.553725 0.583983 0.613852 0.643282 0.672204 0.700533 0.728156 0.754932 0.780685 0.805203 0.828235 0.849498 0.868691 0.885526 0.899772 0.911302 0.920135 0.926461 0.930599 0.932957 0.933978 0.934048 0.933901 0.933591 0.933175 0.932725 0.932338 0.932119 0.932176 0.932696 0.933955 0.936153 0.939539 0.943988 0.950973 0.957557 0.953889 0.946345 0.939158 0.934318 0.93144 0.929879 0.929053 0.928521 0.927956 0.927093 0.925532 0.922655 0.917445 0.908256 0.892549 0.866695 0.826054 0.765653 0.681692 0.573878 0.447976 0.316803 0.198943 0.108961 0.0518767 0.0219979 0.00866488 0.00328478 0.00122206 0.000449947 0.000164445 5.97073e-05 2.15358e-05 7.71383e-06 2.74254e-06 9.67374e-07 3.38366e-07 1.17308e-07 4.02928e-08 1.3706e-08 4.61519e-09 1.53739e-09 5.06786e-10 1.64955e-10 5.27275e-11 1.71794e-11 5.20642e-12 1.35876e-12 3.0012e-13 -1.10162e-13 1.3261e-14 2.72053e-14 -7.11101e-13 3.98355e-13 -5.00109e-13 -2.82255e-13 -2.39041e-13 -3.23662e-13 2.0363e-13 -3.26632e-13 2.0491e-13 -4.613e-13 3.61867e-13 -4.24498e-13 5.798e-13 -4.96996e-14 2.99502e-13 5.84433e-13 -3.51592e-13 1.56472e-13 4.33324e-13 -1.43002e-13 2.35932e-13 -1.16002e-13 9.97835e-13 7.85198e-14 0 0 -8.3365e-16 -2.42774e-15 -8.00033e-15 8.58116e-15 1.01746e-15 -1.03611e-14 -3.48363e-14 -1.58297e-14 -4.52557e-14 -1.3817e-14 1.29809e-14 -3.67822e-14 3.76088e-14 -1.20006e-14 1.78732e-14 -1.57453e-14 -3.02797e-14 -1.65544e-14 -1.9447e-14 -3.59179e-14 2.37496e-14 -6.632e-14 -1.22114e-13 -3.61209e-14 -9.92155e-14 -6.43352e-14 -6.79333e-14 -1.08851e-13 -2.27141e-13 -2.77233e-14 -1.09764e-13 -7.41265e-14 -6.55241e-14 -1.01012e-13 5.56654e-14 -1.83971e-13 3.75647e-14 -1.06713e-13 -6.53418e-14 -1.27689e-13 -1.62742e-13 2.82019e-14 3.434e-15 -4.88643e-14 -2.95823e-13 6.22876e-14 -5.81478e-14 1.22404e-13 -8.58521e-14 -1.02814e-13 -2.13547e-13 -1.49849e-13 -1.21017e-13 2.05716e-13 1.52047e-12 1.18285e-11 8.98148e-11 6.27656e-10 4.1106e-09 2.51708e-08 1.43594e-07 7.60218e-07 3.7185e-06 1.67173e-05 6.86516e-05 0.000255616 0.000855199 0.00254371 0.00664885 0.0151154 0.0297467 0.0509746 0.0774666 0.107171 0.138495 0.170567 0.202972 0.235518 0.268109 0.300687 0.333166 0.365476 0.397563 0.429389 0.460931 0.492177 0.523114 0.553725 0.583983 0.613852 0.643282 0.672204 0.700533 0.728156 0.754932 0.780685 0.805203 0.828235 0.849498 0.868691 0.885526 0.899772 0.911302 0.920135 0.926461 0.930599 0.932957 0.933978 0.934048 0.933901 0.933591 0.933175 0.932725 0.932338 0.932119 0.932176 0.932696 0.933955 0.936153 0.939539 0.943988 0.950973 0.957557 0.953889 0.946345 0.939158 0.934318 0.93144 0.929879 0.929053 0.928521 0.927956 0.927093 0.925532 0.922655 0.917445 0.908256 0.892549 0.866695 0.826054 0.765653 0.681692 0.573878 0.447976 0.316803 0.198943 0.108961 0.0518767 0.0219979 0.00866488 0.00328478 0.00122206 0.000449947 0.000164445 5.97073e-05 2.15358e-05 7.71383e-06 2.74253e-06 9.67374e-07 3.38367e-07 1.17308e-07 4.0293e-08 1.37056e-08 4.61525e-09 1.5379e-09 5.0655e-10 1.64953e-10 5.32577e-11 1.66133e-11 5.0951e-12 1.58564e-12 4.49351e-14 -5.97734e-14 -2.10105e-13 -1.61901e-13 1.11855e-13 -6.60868e-13 1.89842e-13 -5.90389e-13 4.46362e-14 6.32491e-14 -3.15155e-13 -1.20887e-13 -5.66993e-13 3.24815e-13 -3.36414e-13 2.46922e-13 4.72709e-14 2.57935e-13 2.14843e-13 -3.09226e-13 4.84042e-13 2.33095e-13 -3.37617e-13 4.05193e-13 4.69268e-13 3.16083e-13 -5.84196e-13 1.89235e-13 0 0 -2.49737e-15 -2.02182e-15 6.94204e-15 9.87147e-15 -1.02649e-14 6.19818e-15 -1.3936e-14 -3.10543e-14 2.23804e-14 -1.75998e-14 -4.64387e-14 -1.01393e-14 1.28735e-14 1.62231e-14 -2.63403e-14 5.40315e-15 3.42853e-14 3.62169e-14 -9.65523e-14 -7.91379e-14 4.82753e-15 -2.74496e-14 -1.16262e-13 -9.63806e-14 -9.14874e-14 -8.14669e-14 -1.7409e-13 -9.45652e-14 -2.08089e-14 -8.82641e-14 -8.42072e-14 -1.02364e-13 -1.08225e-13 5.90568e-14 -7.12701e-14 -4.38269e-14 -1.48992e-13 -4.85721e-14 -1.03675e-13 1.22133e-14 -1.55956e-14 -9.03734e-14 -6.96673e-14 -6.48603e-14 6.42823e-14 -1.37154e-13 -1.72219e-13 -4.76938e-14 -1.04448e-13 -2.08065e-14 8.58726e-14 -1.15345e-13 -1.37253e-13 6.59974e-14 1.59735e-12 1.20979e-11 8.96845e-11 6.276e-10 4.11065e-09 2.51708e-08 1.43594e-07 7.60218e-07 3.7185e-06 1.67173e-05 6.86516e-05 0.000255616 0.000855199 0.00254371 0.00664885 0.0151154 0.0297467 0.0509746 0.0774666 0.107171 0.138495 0.170567 0.202972 0.235518 0.268109 0.300687 0.333166 0.365476 0.397563 0.429389 0.460931 0.492177 0.523114 0.553725 0.583983 0.613852 0.643282 0.672204 0.700533 0.728156 0.754932 0.780685 0.805203 0.828235 0.849498 0.868691 0.885526 0.899772 0.911302 0.920135 0.926461 0.930599 0.932957 0.933978 0.934048 0.933901 0.933591 0.933175 0.932725 0.932338 0.932119 0.932176 0.932696 0.933955 0.936153 0.939539 0.943988 0.950973 0.957557 0.953889 0.946345 0.939158 0.934318 0.93144 0.929879 0.929053 0.928521 0.927956 0.927093 0.925532 0.922655 0.917445 0.908256 0.892549 0.866695 0.826054 0.765653 0.681692 0.573878 0.447976 0.316803 0.198943 0.108961 0.0518767 0.0219979 0.00866488 0.00328478 0.00122206 0.000449947 0.000164445 5.97073e-05 2.15358e-05 7.71383e-06 2.74254e-06 9.67375e-07 3.38367e-07 1.17308e-07 4.0293e-08 1.37059e-08 4.61511e-09 1.53767e-09 5.06968e-10 1.65338e-10 5.31563e-11 1.63017e-11 5.44134e-12 1.49859e-12 7.62749e-14 -8.99174e-14 3.22593e-15 -2.61472e-13 -4.03082e-13 -4.12205e-13 -1.59847e-13 6.07155e-14 -2.23421e-13 -3.4333e-13 -1.60277e-13 5.8734e-15 -6.8222e-13 -1.97122e-13 2.20466e-13 -1.63809e-13 -9.7964e-16 -1.39116e-13 1.05406e-13 2.20954e-13 2.14786e-13 1.78706e-13 2.08955e-13 1.51704e-13 2.85883e-13 4.76932e-14 3.22154e-13 2.94827e-13 0 0 7.28487e-15 1.00425e-14 1.77877e-14 2.95478e-14 5.86829e-15 2.63754e-14 -1.06227e-14 9.34878e-15 -3.04044e-14 -7.27188e-15 -2.91756e-14 -1.9397e-14 -2.90002e-15 -5.81257e-14 3.60192e-14 1.08631e-14 2.1297e-14 -3.36083e-14 1.89774e-14 -5.3738e-14 -1.35871e-13 -1.49316e-13 -1.12322e-13 -7.60728e-14 -1.2599e-13 -6.12752e-14 -4.34588e-14 -4.4466e-14 -5.95949e-14 -1.37441e-13 -1.37028e-13 -4.30987e-14 4.03948e-14 -1.13516e-14 -8.21313e-14 1.31745e-13 -5.39021e-15 -1.82166e-13 -5.29181e-14 -1.83461e-13 -4.41592e-14 -1.8323e-13 -6.4879e-14 -5.77067e-14 -5.72163e-14 -1.61338e-13 8.32077e-15 -2.71174e-14 3.53573e-14 -4.95828e-14 -4.61396e-14 -1.36028e-13 1.00644e-13 2.17706e-13 1.54491e-12 1.20738e-11 8.98817e-11 6.27512e-10 4.11065e-09 2.51708e-08 1.43594e-07 7.60218e-07 3.7185e-06 1.67173e-05 6.86516e-05 0.000255616 0.000855199 0.00254371 0.00664885 0.0151154 0.0297467 0.0509746 0.0774666 0.107171 0.138495 0.170567 0.202972 0.235518 0.268109 0.300687 0.333166 0.365476 0.397563 0.429389 0.460931 0.492177 0.523114 0.553725 0.583983 0.613852 0.643282 0.672204 0.700533 0.728156 0.754932 0.780685 0.805203 0.828235 0.849498 0.868691 0.885526 0.899772 0.911302 0.920135 0.926461 0.930599 0.932957 0.933978 0.934048 0.933901 0.933591 0.933175 0.932725 0.932338 0.932119 0.932176 0.932696 0.933955 0.936153 0.939539 0.943988 0.950973 0.957557 0.953889 0.946345 0.939158 0.934318 0.93144 0.929879 0.929053 0.928521 0.927956 0.927093 0.925532 0.922655 0.917445 0.908256 0.892549 0.866695 0.826054 0.765653 0.681692 0.573878 0.447976 0.316803 0.198943 0.108961 0.0518767 0.0219979 0.00866488 0.00328478 0.00122206 0.000449947 0.000164445 5.97073e-05 2.15358e-05 7.71383e-06 2.74254e-06 9.67375e-07 3.38367e-07 1.17309e-07 4.02928e-08 1.37061e-08 4.61501e-09 1.53774e-09 5.06953e-10 1.6503e-10 5.3089e-11 1.72861e-11 5.10014e-12 1.43098e-12 7.19715e-13 6.06494e-15 -7.57164e-14 -2.02215e-13 -4.48201e-13 -2.599e-13 -2.67612e-13 -1.88596e-13 -1.68473e-13 -7.92731e-14 -7.33524e-13 -1.20805e-13 2.57241e-13 -4.54865e-13 -2.27208e-13 -1.28497e-13 -1.35367e-13 -2.76184e-13 3.18897e-14 5.87028e-13 1.99428e-13 4.84141e-13 4.00976e-13 -1.53292e-13 -3.9867e-13 1.6341e-13 7.80062e-13 1.97089e-13 0 0 1.16335e-14 1.80378e-14 8.50443e-15 3.9993e-14 3.33994e-14 8.63919e-15 1.6802e-15 3.6095e-14 -4.8681e-14 -3.07832e-14 1.67985e-14 -6.8472e-14 2.57043e-14 -9.17566e-14 -2.89045e-14 6.46224e-15 -2.38289e-14 -3.39193e-14 4.11531e-14 -1.10245e-13 -9.89439e-14 -8.82574e-14 -9.86332e-14 1.4955e-14 -1.19046e-13 -1.36657e-13 3.47353e-14 -6.62622e-14 -1.83717e-13 3.9309e-14 -5.42591e-14 -2.39865e-14 2.88347e-14 -8.06432e-14 9.6723e-14 -1.68759e-13 1.75485e-13 -1.58062e-13 -3.61851e-14 -2.60819e-13 -1.99025e-13 -1.29257e-13 3.4582e-14 -1.61353e-13 -3.72284e-13 5.88988e-14 7.59879e-14 1.55902e-13 4.31163e-14 -4.22762e-14 -3.04202e-13 -1.12432e-13 -7.76583e-14 4.71031e-13 1.65119e-12 1.1968e-11 9.00157e-11 6.2781e-10 4.11059e-09 2.51707e-08 1.43594e-07 7.60218e-07 3.7185e-06 1.67173e-05 6.86516e-05 0.000255616 0.000855199 0.00254371 0.00664885 0.0151154 0.0297467 0.0509746 0.0774666 0.107171 0.138495 0.170567 0.202972 0.235518 0.268109 0.300687 0.333166 0.365476 0.397563 0.429389 0.460931 0.492177 0.523114 0.553725 0.583983 0.613852 0.643282 0.672204 0.700533 0.728156 0.754932 0.780685 0.805203 0.828235 0.849498 0.868691 0.885526 0.899772 0.911302 0.920135 0.926461 0.930599 0.932957 0.933978 0.934048 0.933901 0.933591 0.933175 0.932725 0.932338 0.932119 0.932176 0.932696 0.933955 0.936153 0.939539 0.943988 0.950973 0.957557 0.953889 0.946345 0.939158 0.934318 0.93144 0.929879 0.929053 0.928521 0.927956 0.927093 0.925532 0.922655 0.917445 0.908256 0.892549 0.866695 0.826054 0.765653 0.681692 0.573878 0.447976 0.316803 0.198943 0.108961 0.0518767 0.0219979 0.00866488 0.00328478 0.00122206 0.000449947 0.000164445 5.97073e-05 2.15358e-05 7.71383e-06 2.74253e-06 9.67375e-07 3.38366e-07 1.17308e-07 4.02932e-08 1.37056e-08 4.61531e-09 1.53801e-09 5.06509e-10 1.65052e-10 5.3432e-11 1.75509e-11 5.00568e-12 1.50357e-12 4.24553e-13 6.77876e-13 -1.93566e-13 -5.3042e-13 8.81909e-14 -5.78401e-13 1.49349e-13 -5.9796e-13 8.05301e-14 1.57924e-13 -8.63274e-13 -2.35927e-13 -3.39441e-13 3.71848e-13 -4.82112e-13 2.11049e-13 -1.76258e-13 2.03312e-13 -1.83006e-13 -3.72905e-13 5.14749e-13 5.84818e-13 -3.4809e-13 1.91849e-13 -2.39257e-13 1.18857e-13 -4.49282e-13 -2.65984e-13 0 0 4.11993e-15 1.9413e-14 2.94422e-14 1.5826e-14 -3.40541e-15 -1.78091e-14 4.20446e-14 -1.65956e-14 1.07419e-13 -5.68861e-14 -7.39535e-14 -6.9087e-15 -5.61308e-14 1.13902e-15 -1.97512e-13 3.0217e-14 1.97829e-14 8.90186e-14 -1.40004e-13 -2.036e-13 -3.51363e-14 1.52111e-13 3.58871e-14 -8.24362e-14 -4.39645e-14 -2.46107e-13 -1.80493e-13 -1.85849e-13 1.93772e-13 4.52474e-14 1.51259e-13 -1.90236e-13 -6.3525e-14 6.53745e-14 -8.06047e-15 -1.51662e-13 -7.20744e-14 1.50082e-13 -2.24702e-13 -5.93507e-14 -1.99803e-13 -3.01556e-13 -1.78554e-13 -1.86168e-13 2.94671e-13 -1.77952e-13 -5.04016e-14 -1.60942e-13 -2.57925e-14 -1.12977e-13 -1.6911e-14 -3.08661e-16 -1.75536e-13 1.92193e-13 1.54323e-12 1.2581e-11 8.99807e-11 6.27654e-10 4.1108e-09 2.51706e-08 1.43594e-07 7.60217e-07 3.7185e-06 1.67173e-05 6.86516e-05 0.000255616 0.000855199 0.00254371 0.00664885 0.0151154 0.0297467 0.0509746 0.0774666 0.107171 0.138495 0.170567 0.202972 0.235518 0.268109 0.300687 0.333166 0.365476 0.397563 0.429389 0.460931 0.492177 0.523114 0.553725 0.583983 0.613852 0.643282 0.672204 0.700533 0.728156 0.754932 0.780685 0.805203 0.828235 0.849498 0.868691 0.885526 0.899772 0.911302 0.920135 0.926461 0.930599 0.932957 0.933978 0.934048 0.933901 0.933591 0.933175 0.932725 0.932338 0.932119 0.932176 0.932696 0.933955 0.936153 0.939539 0.943988 0.950973 0.957557 0.953889 0.946345 0.939158 0.934318 0.93144 0.929879 0.929053 0.928521 0.927956 0.927093 0.925532 0.922655 0.917445 0.908256 0.892549 0.866695 0.826054 0.765653 0.681692 0.573878 0.447976 0.316803 0.198943 0.108961 0.0518767 0.0219979 0.00866488 0.00328478 0.00122206 0.000449947 0.000164445 5.97073e-05 2.15358e-05 7.71383e-06 2.74253e-06 9.67375e-07 3.38366e-07 1.17308e-07 4.02936e-08 1.37054e-08 4.61552e-09 1.5375e-09 5.06734e-10 1.65772e-10 5.32108e-11 1.70857e-11 5.70999e-12 1.32985e-12 -2.27525e-13 1.17317e-12 2.04225e-13 -8.28348e-13 -6.6819e-13 2.5868e-13 -3.65565e-13 2.01225e-13 -2.77149e-13 -6.62426e-13 2.53886e-13 -3.03354e-13 -1.21891e-12 1.48251e-13 9.6582e-13 -5.66868e-13 4.01518e-13 1.15189e-13 -3.49164e-13 -2.75071e-13 -2.59461e-13 2.49047e-13 2.83366e-14 4.03041e-14 1.87987e-13 -7.41887e-13 3.51846e-13 -6.36443e-13 0
				</DataArray>
				<DataArray Name="VitesseY" type="Float32" format="ascii">