<?xml version="1.0"?>
<VTKFile type="PolyData">
	<PolyData>
		<Piece NumberOfPoints="1206" NumberOfPolys="1000">
			<Points>
				<DataArray type="Float32" NumberOfComponents="3" format="ascii">
 0 0 0 0.005 0 0 0.01 0 0 0.015 0 0 0.02 0 0 0.025 0 0 0.03 0 0 0.035 0 0 0.04 0 0 0.045 0 0 0.05 0 0 0.055 0 0 0.06 0 0 0.065 0 0 0.07 0 0 0.075 0 0 0.08 0 0 0.085 0 0 0.09 0 0 0.095 0 0 0.1 0 0 0.105 0 0 0.11 0 0 0.115 0 0 0.12 0 0 0.125 0 0 0.13 0 0 0.135 0 0 0.14 0 0 0.145 0 0 0.15 0 0 0.155 0 0 0.16 0 0 0.165 0 0 0.17 0 0 0.175 0 0 0.18 0 0 0.185 0 0 0.19 0 0 0.195 0 0 0.2 0 0 0.205 0 0 0.21 0 0 0.215 0 0 0.22 0 0 0.225 0 0 0.23 0 0 0.235 0 0 0.24 0 0 0.245 0 0 0.25 0 0 0.255 0 0 0.26 0 0 0.265 0 0 0.27 0 0 0.275 0 0 0.28 0 0 0.285 0 0 0.29 0 0 0.295 0 0 0.3 0 0 0.305 0 0 0.31 0 0 0.315 0 0 0.32 0 0 0.325 0 0 0.33 0 0 0.335 0 0 0.34 0 0 0.345 0 0 0.35 0 0 0.355 0 0 0.36 0 0 0.365 0 0 0.37 0 0 0.375 0 0 0.38 0 0 0.385 0 0 0.39 0 0 0.395 0 0 0.4 0 0 0.405 0 0 0.41 0 0 0.415 0 0 0.42 0 0 0.425 0 0 0.43 0 0 0.435 0 0 0.44 0 0 0.445 0 0 0.45 0 0 0.455 0 0 0.46 0 0 0.465 0 0 0.47 0 0 0.475 0 0 0.48 0 0 0.485 0 0 0.49 0 0 0.495 0 0 0.5 0 0 0.505 0 0 0.51 0 0 0.515 0 0 0.52 0 0 0.525 0 0 0.53 0 0 0.535 0 0 0.54 0 0 0.545 0 0 0.55 0 0 0.555 0 0 0.56 0 0 0.565 0 0 0.57 0 0 0.575 0 0 0.58 0 0 0.585 0 0 0.59 0 0 0.595 0 0 0.6 0 0 0.605 0 0 0.61 0 0 0.615 0 0 0.62 0 0 0.625 0 0 0.63 0 0 0.635 0 0 0.64 0 0 0.645 0 0 0.65 0 0 0.655 0 0 0.66 0 0 0.665 0 0 0.67 0 0 0.675 0 0 0.68 0 0 0.685 0 0 0.69 0 0 0.695 0 0 0.7 0 0 0.705 0 0 0.71 0 0 0.715 0 0 0.72 0 0 0.725 0 0 0.73 0 0 0.735 0 0 0.74 0 0 0.745 0 0 0.75 0 0 0.755 0 0 0.76 0 0 0.765 0 0 0.77 0 0 0.775 0 0 0.78 0 0 0.785 0 0 0.79 0 0 0.795 0 0 0.8 0 0 0.805 0 0 0.81 0 0 0.815 0 0 0.82 0 0 0.825 0 0 0.83 0 0 0.835 0 0 0.84 0 0 0.845 0 0 0.85 0 0 0.855 0 0 0.86 0 0 0.865 0 0 0.87 0 0 0.875 0 0 0.88 0 0 0.885 0 0 0.89 0 0 0.895 0 0 0.9 0 0 0.905 0 0 0.91 0 0 0.915 0 0 0.92 0 0 0.925 0 0 0.93 0 0 0.935 0 0 0.94 0 0 0.945 0 0 0.95 0 0 0.955 0 0 0.96 0 0 0.965 0 0 0.97 0 0 0.975 0 0 0.98 0 0 0.985 0 0 0.99 0 0 0.995 0 0 1 0 0 0 0.02 0 0.005 0.02 0 0.01 0.02 0 0.015 0.02 0 0.02 0.02 0 0.025 0.02 0 0.03 0.02 0 0.035 0.02 0 0.04 0.02 0 0.045 0.02 0 0.05 0.02 0 0.055 0.02 0 0.06 0.02 0 0.065 0.02 0 0.07 0.02 0 0.075 0.02 0 0.08 0.02 0 0.085 0.02 0 0.09 0.02 0 0.095 0.02 0 0.1 0.02 0 0.105 0.02 0 0.11 0.02 0 0.115 0.02 0 0.12 0.02 0 0.125 0.02 0 0.13 0.02 0 0.135 0.02 0 0.14 0.02 0 0.145 0.02 0 0.15 0.02 0 0.155 0.02 0 0.16 0.02 0 0.165 0.02 0 0.17 0.02 0 0.175 0.02 0 0.18 0.02 0 0.185 0.02 0 0.19 0.02 0 0.195 0.02 0 0.2 0.02 0 0.205 0.02 0 0.21 0.02 0 0.215 0.02 0 0.22 0.02 0 0.225 0.02 0 0.23 0.02 0 0.235 0.02 0 0.24 0.02 0 0.245 0.02 0 0.25 0.02 0 0.255 0.02 0 0.26 0.02 0 0.265 0.02 0 0.27 0.02 0 0.275 0.02 0 0.28 0.02 0 0.285 0.02 0 0.29 0.02 0 0.295 0.02 0 0.3 0.02 0 0.305 0.02 0 0.31 0.02 0 0.315 0.02 0 0.32 0.02 0 0.325 0.02 0 0.33 0.02 0 0.335 0.02 0 0.34 0.02 0 0.345 0.02 0 0.35 0.02 0 0.355 0.02 0 0.36 0.02 0 0.365 0.02 0 0.37 0.02 0 0.375 0.02 0 0.38 0.02 0 0.385 0.02 0 0.39 0.02 0 0.395 0.02 0 0.4 0.02 0 0.405 0.02 0 0.41 0.02 0 0.415 0.02 0 0.42 0.02 0 0.425 0.02 0 0.43 0.02 0 0.435 0.02 0 0.44 0.02 0 0.445 0.02 0 0.45 0.02 0 0.455 0.02 0 0.46 0.02 0 0.465 0.02 0 0.47 0.02 0 0.475 0.02 0 0.48 0.02 0 0.485 0.02 0 0.49 0.02 0 0.495 0.02 0 0.5 0.02 0 0.505 0.02 0 0.51 0.02 0 0.515 0.02 0 0.52 0.02 0 0.525 0.02 0 0.53 0.02 0 0.535 0.02 0 0.54 0.02 0 0.545 0.02 0 0.55 0.02 0 0.555 0.02 0 0.56 0.02 0 0.565 0.02 0 0.57 0.02 0 0.575 0.02 0 0.58 0.02 0 0.585 0.02 0 0.59 0.02 0 0.595 0.02 0 0.6 0.02 0 0.605 0.02 0 0.61 0.02 0 0.615 0.02 0 0.62 0.02 0 0.625 0.02 0 0.63 0.02 0 0.635 0.02 0 0.64 0.02 0 0.645 0.02 0 0.65 0.02 0 0.655 0.02 0 0.66 0.02 0 0.665 0.02 0 0.67 0.02 0 0.675 0.02 0 0.68 0.02 0 0.685 0.02 0 0.69 0.02 0 0.695 0.02 0 0.7 0.02 0 0.705 0.02 0 0.71 0.02 0 0.715 0.02 0 0.72 0.02 0 0.725 0.02 0 0.73 0.02 0 0.735 0.02 0 0.74 0.02 0 0.745 0.02 0 0.75 0.02 0 0.755 0.02 0 0.76 0.02 0 0.765 0.02 0 0.77 0.02 0 0.775 0.02 0 0.78 0.02 0 0.785 0.02 0 0.79 0.02 0 0.795 0.02 0 0.8 0.02 0 0.805 0.02 0 0.81 0.02 0 0.815 0.02 0 0.82 0.02 0 0.825 0.02 0 0.83 0.02 0 0.835 0.02 0 0.84 0.02 0 0.845 0.02 0 0.85 0.02 0 0.855 0.02 0 0.86 0.02 0 0.865 0.02 0 0.87 0.02 0 0.875 0.02 0 0.88 0.02 0 0.885 0.02 0 0.89 0.02 0 0.895 0.02 0 0.9 0.02 0 0.905 0.02 0 0.91 0.02 0 0.915 0.02 0 0.92 0.02 0 0.925 0.02 0 0.93 0.02 0 0.935 0.02 0 0.94 0.02 0 0.945 0.02 0 0.95 0.02 0 0.955 0.02 0 0.96 0.02 0 0.965 0.02 0 0.97 0.02 0 0.975 0.02 0 0.98 0.02 0 0.985 0.02 0 0.99 0.02 0 0.995 0.02 0 1 0.02 0 0 0.04 0 0.005 0.04 0 0.01 0.04 0 0.015 0.04 0 0.02 0.04 0 0.025 0.04 0 0.03 0.04 0 0.035 0.04 0 0.04 0.04 0 0.045 0.04 0 0.05 0.04 0 0.055 0.04 0 0.06 0.04 0 0.065 0.04 0 0.07 0.04 0 0.075 0.04 0 0.08 0.04 0 0.085 0.04 0 0.09 0.04 0 0.095 0.04 0 0.1 0.04 0 0.105 0.04 0 0.11 0.04 0 0.115 0.04 0 0.12 0.04 0 0.125 0.04 0 0.13 0.04 0 0.135 0.04 0 0.14 0.04 0 0.145 0.04 0 0.15 0.04 0 0.155 0.04 0 0.16 0.04 0 0.165 0.04 0 0.17 0.04 0 0.175 0.04 0 0.18 0.04 0 0.185 0.04 0 0.19 0.04 0 0.195 0.04 0 0.2 0.04 0 0.205 0.04 0 0.21 0.04 0 0.215 0.04 0 0.22 0.04 0 0.225 0.04 0 0.23 0.04 0 0.235 0.04 0 0.24 0.04 0 0.245 0.04 0 0.25 0.04 0 0.255 0.04 0 0.26 0.04 0 0.265 0.04 0 0.27 0.04 0 0.275 0.04 0 0.28 0.04 0 0.285 0.04 0 0.29 0.04 0 0.295 0.04 0 0.3 0.04 0 0.305 0.04 0 0.31 0.04 0 0.315 0.04 0 0.32 0.04 0 0.325 0.04 0 0.33 0.04 0 0.335 0.04 0 0.34 0.04 0 0.345 0.04 0 0.35 0.04 0 0.355 0.04 0 0.36 0.04 0 0.365 0.04 0 0.37 0.04 0 0.375 0.04 0 0.38 0.04 0 0.385 0.04 0 0.39 0.04 0 0.395 0.04 0 0.4 0.04 0 0.405 0.04 0 0.41 0.04 0 0.415 0.04 0 0.42 0.04 0 0.425 0.04 0 0.43 0.04 0 0.435 0.04 0 0.44 0.04 0 0.445 0.04 0 0.45 0.04 0 0.455 0.04 0 0.46 0.04 0 0.465 0.04 0 0.47 0.04 0 0.475 0.04 0 0.48 0.04 0 0.485 0.04 0 0.49 0.04 0 0.495 0.04 0 0.5 0.04 0 0.505 0.04 0 0.51 0.04 0 0.515 0.04 0 0.52 0.04 0 0.525 0.04 0 0.53 0.04 0 0.535 0.04 0 0.54 0.04 0 0.545 0.04 0 0.55 0.04 0 0.555 0.04 0 0.56 0.04 0 0.565 0.04 0 0.57 0.04 0 0.575 0.04 0 0.58 0.04 0 0.585 0.04 0 0.59 0.04 0 0.595 0.04 0 0.6 0.04 0 0.605 0.04 0 0.61 0.04 0 0.615 0.04 0 0.62 0.04 0 0.625 0.04 0 0.63 0.04 0 0.635 0.04 0 0.64 0.04 0 0.645 0.04 0 0.65 0.04 0 0.655 0.04 0 0.66 0.04 0 0.665 0.04 0 0.67 0.04 0 0.675 0.04 0 0.68 0.04 0 0.685 0.04 0 0.69 0.04 0 0.695 0.04 0 0.7 0.04 0 0.705 0.04 0 0.71 0.04 0 0.715 0.04 0 0.72 0.04 0 0.725 0.04 0 0.73 0.04 0 0.735 0.04 0 0.74 0.04 0 0.745 0.04 0 0.75 0.04 0 0.755 0.04 0 0.76 0.04 0 0.765 0.04 0 0.77 0.04 0 0.775 0.04 0 0.78 0.04 0 0.785 0.04 0 0.79 0.04 0 0.795 0.04 0 0.8 0.04 0 0.805 0.04 0 0.81 0.04 0 0.815 0.04 0 0.82 0.04 0 0.825 0.04 0 0.83 0.04 0 0.835 0.04 0 0.84 0.04 0 0.845 0.04 0 0.85 0.04 0 0.855 0.04 0 0.86 0.04 0 0.865 0.04 0 0.87 0.04 0 0.875 0.04 0 0.88 0.04 0 0.885 0.04 0 0.89 0.04 0 0.895 0.04 0 0.9 0.04 0 0.905 0.04 0 0.91 0.04 0 0.915 0.04 0 0.92 0.04 0 0.925 0.04 0 0.93 0.04 0 0.935 0.04 0 0.94 0.04 0 0.945 0.04 0 0.95 0.04 0 0.955 0.04 0 0.96 0.04 0 0.965 0.04 0 0.97 0.04 0 0.975 0.04 0 0.98 0.04 0 0.985 0.04 0 0.99 0.04 0 0.995 0.04 0 1 0.04 0 0 0.06 0 0.005 0.06 0 0.01 0.06 0 0.015 0.06 0 0.02 0.06 0 0.025 0.06 0 0.03 0.06 0 0.035 0.06 0 0.04 0.06 0 0.045 0.06 0 0.05 0.06 0 0.055 0.06 0 0.06 0.06 0 0.065 0.06 0 0.07 0.06 0 0.075 0.06 0 0.08 0.06 0 0.085 0.06 0 0.09 0.06 0 0.095 0.06 0 0.1 0.06 0 0.105 0.06 0 0.11 0.06 0 0.115 0.06 0 0.12 0.06 0 0.125 0.06 0 0.13 0.06 0 0.135 0.06 0 0.14 0.06 0 0.145 0.06 0 0.15 0.06 0 0.155 0.06 0 0.16 0.06 0 0.165 0.06 0 0.17 0.06 0 0.175 0.06 0 0.18 0.06 0 0.185 0.06 0 0.19 0.06 0 0.195 0.06 0 0.2 0.06 0 0.205 0.06 0 0.21 0.06 0 0.215 0.06 0 0.22 0.06 0 0.225 0.06 0 0.23 0.06 0 0.235 0.06 0 0.24 0.06 0 0.245 0.06 0 0.25 0.06 0 0.255 0.06 0 0.26 0.06 0 0.265 0.06 0 0.27 0.06 0 0.275 0.06 0 0.28 0.06 0 0.285 0.06 0 0.29 0.06 0 0.295 0.06 0 0.3 0.06 0 0.305 0.06 0 0.31 0.06 0 0.315 0.06 0 0.32 0.06 0 0.325 0.06 0 0.33 0.06 0 0.335 0.06 0 0.34 0.06 0 0.345 0.06 0 0.35 0.06 0 0.355 0.06 0 0.36 0.06 0 0.365 0.06 0 0.37 0.06 0 0.375 0.06 0 0.38 0.06 0 0.385 0.06 0 0.39 0.06 0 0.395 0.06 0 0.4 0.06 0 0.405 0.06 0 0.41 0.06 0 0.415 0.06 0 0.42 0.06 0 0.425 0.06 0 0.43 0.06 0 0.435 0.06 0 0.44 0.06 0 0.445 0.06 0 0.45 0.06 0 0.455 0.06 0 0.46 0.06 0 0.465 0.06 0 0.47 0.06 0 0.475 0.06 0 0.48 0.06 0 0.485 0.06 0 0.49 0.06 0 0.495 0.06 0 0.5 0.06 0 0.505 0.06 0 0.51 0.06 0 0.515 0.06 0 0.52 0.06 0 0.525 0.06 0 0.53 0.06 0 0.535 0.06 0 0.54 0.06 0 0.545 0.06 0 0.55 0.06 0 0.555 0.06 0 0.56 0.06 0 0.565 0.06 0 0.57 0.06 0 0.575 0.06 0 0.58 0.06 0 0.585 0.06 0 0.59 0.06 0 0.595 0.06 0 0.6 0.06 0 0.605 0.06 0 0.61 0.06 0 0.615 0.06 0 0.62 0.06 0 0.625 0.06 0 0.63 0.06 0 0.635 0.06 0 0.64 0.06 0 0.645 0.06 0 0.65 0.06 0 0.655 0.06 0 0.66 0.06 0 0.665 0.06 0 0.67 0.06 0 0.675 0.06 0 0.68 0.06 0 0.685 0.06 0 0.69 0.06 0 0.695 0.06 0 0.7 0.06 0 0.705 0.06 0 0.71 0.06 0 0.715 0.06 0 0.72 0.06 0 0.725 0.06 0 0.73 0.06 0 0.735 0.06 0 0.74 0.06 0 0.745 0.06 0 0.75 0.06 0 0.755 0.06 0 0.76 0.06 0 0.765 0.06 0 0.77 0.06 0 0.775 0.06 0 0.78 0.06 0 0.785 0.06 0 0.79 0.06 0 0.795 0.06 0 0.8 0.06 0 0.805 0.06 0 0.81 0.06 0 0.815 0.06 0 0.82 0.06 0 0.825 0.06 0 0.83 0.06 0 0.835 0.06 0 0.84 0.06 0 0.845 0.06 0 0.85 0.06 0 0.855 0.06 0 0.86 0.06 0 0.865 0.06 0 0.87 0.06 0 0.875 0.06 0 0.88 0.06 0 0.885 0.06 0 0.89 0.06 0 0.895 0.06 0 0.9 0.06 0 0.905 0.06 0 0.91 0.06 0 0.915 0.06 0 0.92 0.06 0 0.925 0.06 0 0.93 0.06 0 0.935 0.06 0 0.94 0.06 0 0.945 0.06 0 0.95 0.06 0 0.955 0.06 0 0.96 0.06 0 0.965 0.06 0 0.97 0.06 0 0.975 0.06 0 0.98 0.06 0 0.985 0.06 0 0.99 0.06 0 0.995 0.06 0 1 0.06 0 0 0.08 0 0.005 0.08 0 0.01 0.08 0 0.015 0.08 0 0.02 0.08 0 0.025 0.08 0 0.03 0.08 0 0.035 0.08 0 0.04 0.08 0 0.045 0.08 0 0.05 0.08 0 0.055 0.08 0 0.06 0.08 0 0.065 0.08 0 0.07 0.08 0 0.075 0.08 0 0.08 0.08 0 0.085 0.08 0 0.09 0.08 0 0.095 0.08 0 0.1 0.08 0 0.105 0.08 0 0.11 0.08 0 0.115 0.08 0 0.12 0.08 0 0.125 0.08 0 0.13 0.08 0 0.135 0.08 0 0.14 0.08 0 0.145 0.08 0 0.15 0.08 0 0.155 0.08 0 0.16 0.08 0 0.165 0.08 0
[...]
			<PointData Scalars="VitesseX">
				<DataArray Name="VitesseX" type="Float32" format="ascii">
 0 -3.0731e-15 -8.55377e-15 -9.76308e-15 -1.63071e-14 -2.32463e-14 9.97234e-15 -7.27395e-14 -2.11079e-14 -4.92136e-14 -5.123e-14 -7.63986e-14 -6.08913e-14 -2.97745e-14 -7.89452e-14 -1.3209e-13 -2.96292e-15 -2.6854e-14 -4.18239e-14 -8.2295e-14 6.44124e-14 1.3508e-14 -2.04167e-14 8.5326e-15 -5.75712e-14 -6.65752e-14 -5.13657e-14 -4.62799e-14 -1.91962e-13 7.96973e-14 -3.87115e-14 -1.07892e-13 9.36694e-14 -1.6645e-13 7.50073e-14 -5.88996e-14 9.49122e-14 1.62203e-13 8.14932e-13 4.2281e-12 2.49382e-11 1.43083e-10 7.74383e-10 3.99316e-09 1.95239e-08 9.03262e-08 3.944e-07 1.62065e-06 6.24648e-06 2.2497e-05 7.53738e-05 0.000233687 0.000666311 0.00173483 0.00409322 0.00869102 0.0165358 0.0282226 0.0435648 0.0617117 0.0816462 0.102583 0.124051 0.1458 0.167702 0.189691 0.211727 0.233789 0.25586 0.27793 0.29998 0.321995 0.343962 0.365869 0.387707 0.409467 0.431143 0.45273 0.474223 0.495619 0.516912 0.538097 0.559167 0.580113 0.600925 0.621588 0.642086 0.662398 0.682499 0.702358 0.721938 0.741193 0.760069 0.7785 0.796407 0.813697 0.830262 0.845976 0.860703 0.874296 0.886608 0.897502 0.906871 0.914649 0.920834 0.925493 0.928767 0.930865 0.932034 0.932533 0.932556 0.932476 0.932306 0.932064 0.931776 0.931464 0.931144 0.930836 0.930547 0.930283 0.930047 0.929842 0.929673 0.92955 0.929491 0.92952 0.929698 0.930114 0.93086 0.932041 0.933772 0.936136 0.939278 0.942825 0.949039 0.949563 0.945669 0.940164 0.935587 0.932457 0.930499 0.929364 0.928747 0.928429 0.92827 0.928191 0.928148 0.928116 0.928081 0.928028 0.927938 0.927775 0.92748 0.926945 0.925984 0.924277 0.921278 0.91608 0.907217 0.892416 0.868387 0.830815 0.774859 0.696428 0.594301 0.472676 0.342689 0.22187 0.126064 0.062433 0.02745 0.0111454 0.00433957 0.00165772 0.000627907 0.000236841 8.9099e-05 3.3446e-05 1.25281e-05 4.682e-06 1.74539e-06 6.48874e-07 2.40499e-07 8.88444e-08 3.27025e-08 1.19902e-08 4.37797e-09 1.59072e-09 5.75567e-10 2.06474e-10 7.41837e-11 2.59118e-11 9.27698e-12 2.70908e-12 1.14503e-12 2.51126e-13 2.08956e-13 -8.43534e-14 5.71756e-14 5.20472e-13 0 0 -5.67403e-15 -9.23874e-15 -1.22352e-14 -2.25188e-14 -2.3061e-14 -5.23307e-14 -5.39109e-16 -5.85166e-14 -4.14258e-14 -5.46222e-14 -6.35514e-14 -5.50217e-14 -6.56753e-14 -9.21077e-14 -6.21994e-15 -5.82064e-14 -3.00513e-14 -1.97232e-14 2.77892e-14 -4.69368e-14 -3.07833e-14 -1.73479e-14 -4.45513e-14 2.48124e-14 -1.16691e-14 -1.42189e-13 -1.04813e-13 8.66004e-14 -1.53778e-13 -5.91233e-14 7.49816e-14 -1.35791e-13 8.44719e-14 -1.25457e-13 4.38246e-14 5.31582e-14 1.87754e-13 8.06288e-13 4.22425e-12 2.52003e-11 1.4276e-10 7.74618e-10 3.99308e-09 1.95238e-08 9.03258e-08 3.94401e-07 1.62065e-06 6.24648e-06 2.2497e-05 7.53738e-05 0.000233687 0.000666311 0.00173483 0.00409322 0.00869102 0.0165358 0.0282226 0.0435648 0.0617117 0.0816462 0.102583 0.124051 0.1458 0.167702 0.189691 0.211727 0.233789 0.25586 0.27793 0.29998 0.321995 0.343962 0.365869 0.387707 0.409467 0.431143 0.45273 0.474223 0.495619 0.516912 0.538097 0.559167 0.580113 0.600925 0.621588 0.642086 0.662398 0.682499 0.702358 0.721938 0.741193 0.760069 0.7785 0.796407 0.813697 0.830262 0.845976 0.860703 0.874296 0.886608 0.897502 0.906871 0.914649 0.920834 0.925493 0.928767 0.930865 0.932034 0.932533 0.932556 0.932476 0.932306 0.932064 0.931776 0.931464 0.931144 0.930836 0.930547 0.930283 0.930047 0.929842 0.929673 0.92955 0.929491 0.92952 0.929698 0.930114 0.93086 0.932041 0.933772 0.936136 0.939278 0.942825 0.949039 0.949563 0.945669 0.940164 0.935587 0.932457 0.930499 0.929364 0.928747 0.928429 0.92827 0.928191 0.928148 0.928116 0.928081 0.928028 0.927938 0.927775 0.92748 0.926945 0.925984 0.924277 0.921278 0.91608 0.907217 0.892416 0.868387 0.830815 0.774859 0.696428 0.594301 0.472676 0.342689 0.22187 0.126064 0.062433 0.02745 0.0111454 0.00433957 0.00165772 0.000627907 0.000236841 8.9099e-05 3.3446e-05 1.25281e-05 4.682e-06 1.74539e-06 6.48874e-07 2.405e-07 8.88442e-08 3.27024e-08 1.19904e-08 4.37752e-09 1.59102e-09 5.75075e-10 2.07014e-10 7.35444e-11 2.60178e-11 8.95687e-12 3.43508e-12 8.54907e-13 -2.31718e-13 3.12305e-13 2.43231e-14 -6.87373e-15 -3.00407e-13 0 0 -8.0291e-15 -1.9811e-14 -2.38589e-14 -2.74935e-14 -3.74359e-14 -3.4059e-14 -6.54311e-14 -4.85263e-14 -2.66769e-14 -4.42815e-14 -5.0799e-14 -7.51065e-14 -4.63329e-14 -5.78303e-14 -3.03169e-14 3.69194e-14 1.36817e-14 -2.43935e-14 -7.53249e-14 -9.0168e-14 2.98095e-14 3.21429e-14 -2.18315e-14 -7.27429e-14 -6.8463e-14 -6.69778e-14 -7.18138e-14 -1.71008e-13 9.96103e-14 -1.30877e-14 -7.0926e-14 -1.53052e-14 -1.14162e-13 1.53939e-14 -5.17885e-14 1.47706e-13 2.9781e-13 6.26984e-13 4.31743e-12 2.51137e-11 1.42858e-10 7.74529e-10 3.99299e-09 1.95238e-08 9.03261e-08 3.944e-07 1.62065e-06 6.24648e-06 2.2497e-05 7.53738e-05 0.000233687 0.000666311 0.00173483 0.00409322 0.00869102 0.0165358 0.0282226 0.0435648 0.0617117 0.0816462 0.102583 0.124051 0.1458 0.167702 0.189691 0.211727 0.233789 0.25586 0.27793 0.29998 0.321995 0.343962 0.365869 0.387707 0.409467 0.431143 0.45273 0.474223 0.495619 0.516912 0.538097 0.559167 0.580113 0.600925 0.621588 0.642086 0.662398 0.682499 0.702358 0.721938 0.741193 0.760069 0.7785 0.796407 0.813697 0.830262 0.845976 0.860703 0.874296 0.886608 0.897502 0.906871 0.914649 0.920834 0.925493 0.928767 0.930865 0.932034 0.932533 0.932556 0.932476 0.932306 0.932064 0.931776 0.931464 0.931144 0.930836 0.930547 0.930283 0.930047 0.929842 0.929673 0.92955 0.929491 0.92952 0.929698 0.930114 0.93086 0.932041 0.933772 0.936136 0.939278 0.942825 0.949039 0.949563 0.945669 0.940164 0.935587 0.932457 0.930499 0.929364 0.928747 0.928429 0.92827 0.928191 0.928148 0.928116 0.928081 0.928028 0.927938 0.927775 0.92748 0.926945 0.925984 0.924277 0.921278 0.91608 0.907217 0.892416 0.868387 0.830815 0.774859 0.696428 0.594301 0.472676 0.342689 0.22187 0.126064 0.062433 0.02745 0.0111454 0.00433957 0.00165772 0.000627907 0.000236841 8.9099e-05 3.3446e-05 1.25281e-05 4.682e-06 1.74539e-06 6.48874e-07 2.405e-07 8.88443e-08 3.27025e-08 1.19901e-08 4.37769e-09 1.59083e-09 5.75276e-10 2.06461e-10 7.39292e-11 2.56635e-11 9.02149e-12 3.06941e-12 8.44933e-13 5.45585e-13 -2.61197e-13 -2.1617e-13 3.62606e-13 1.11067e-13 0 0 -7.02288e-15 -1.89007e-14 -1.9554e-14 -3.66209e-14 -3.63877e-14 -3.29319e-14 -9.05244e-14 -4.04537e-14 -7.9554e-14 -4.93048e-14 -1.46732e-14 -3.85068e-14 -3.0229e-14 -3.17594e-14 -2.94045e-14 -2.82938e-14 -2.61146e-14 -2.9126e-14 -3.71481e-14 5.01206e-14 -1.15787e-14 -5.87538e-14 -8.44156e-14 -3.09441e-14 -8.81301e-14 -5.96767e-14 -6.86909e-14 -1.32949e-13 -5.47012e-14 -1.82178e-15 -3.1821e-14 7.27496e-14 -1.08342e-13 5.85381e-14 -3.45629e-14 5.95873e-14 2.21776e-13 7.54399e-13 4.17973e-12 2.51656e-11 1.42804e-10 7.74587e-10 3.99311e-09 1.95239e-08 9.03261e-08 3.944e-07 1.62065e-06 6.24648e-06 2.2497e-05 7.53738e-05 0.000233687 0.000666311 0.00173483 0.00409322 0.00869102 0.0165358 0.0282226 0.0435648 0.0617117 0.0816462 0.102583 0.124051 0.1458 0.167702 0.189691 0.211727 0.233789 0.25586 0.27793 0.29998 0.321995 0.343962 0.365869 0.387707 0.409467 0.431143 0.45273 0.474223 0.495619 0.516912 0.538097 0.559167 0.580113 0.600925 0.621588 0.642086 0.662398 0.682499 0.702358 0.721938 0.741193 0.760069 0.7785 0.796407 0.813697 0.830262 0.845976 0.860703 0.874296 0.886608 0.897502 0.906871 0.914649 0.920834 0.925493 0.928767 0.930865 0.932034 0.932533 0.932556 0.932476 0.932306 0.932064 0.931776 0.931464 0.931144 0.930836 0.930547 0.930283 0.930047 0.929842 0.929673 0.92955 0.929491 0.92952 0.929698 0.930114 0.93086 0.932041 0.933772 0.936136 0.939278 0.942825 0.949039 0.949563 0.945669 0.940164 0.935587 0.932457 0.930499 0.929364 0.928747 0.928429 0.92827 0.928191 0.928148 0.928116 0.928081 0.928028 0.927938 0.927775 0.92748 0.926945 0.925984 0.924277 0.921278 0.91608 0.907217 0.892416 0.868387 0.830815 0.774859 0.696428 0.594301 0.472676 0.342689 0.22187 0.126064 0.062433 0.02745 0.0111454 0.00433957 0.00165772 0.000627907 0.000236841 8.9099e-05 3.3446e-05 1.25281e-05 4.682e-06 1.74539e-06 6.48874e-07 2.40499e-07 8.88446e-08 3.27024e-08 1.19904e-08 4.37758e-09 1.5912e-09 5.75371e-10 2.06538e-10 7.35572e-11 2.57165e-11 8.6568e-12 2.76574e-12 6.88959e-13 5.3976e-13 -1.83565e-13 5.89013e-13 -1.92865e-14 3.8429e-13 0 0 -1.09502e-14 -1.37388e-14 -2.37301e-14 -2.71117e-14 -3.73841e-14 -6.62742e-14 -4.32265e-15 -9.35582e-14 -4.22185e-14 -7.4349e-14 -3.00744e-14 -1.08344e-14 -2.5889e-14 -4.13815e-14 1.41186e-14 -8.48132e-14 -4.11199e-14 1.40635e-14 3.25207e-14 3.82123e-15 -1.3686e-13 -5.49656e-14 -1.22289e-13 3.58879e-14 -4.15209e-14 -1.40845e-13 -1.0674e-13 4.88464e-14 -2.17774e-13 -3.13482e-14 6.00076e-14 -6.47106e-14 1.34456e-13 -8.32155e-14 6.18565e-14 2.25489e-14 1.82024e-13 9.51785e-13 4.13082e-12 2.52943e-11 1.42566e-10 7.74766e-10 3.99318e-09 1.95239e-08 9.03258e-08 3.94401e-07 1.62065e-06 6.24648e-06 2.2497e-05 7.53738e-05 0.000233687 0.000666311 0.00173483 0.00409322 0.00869102 0.0165358 0.0282226 0.0435648 0.0617117 0.0816462 0.102583 0.124051 0.1458 0.167702 0.189691 0.211727 0.233789 0.25586 0.27793 0.29998 0.321995 0.343962 0.365869 0.387707 0.409467 0.431143 0.45273 0.474223 0.495619 0.516912 0.538097 0.559167 0.580113 0.600925 0.621588 0.642086 0.662398 0.682499 0.702358 0.721938 0.741193 0.760069 0.7785 0.796407 0.813697 0.830262 0.845976 0.860703 0.874296 0.886608 0.897502 0.906871 0.914649 0.920834 0.925493 0.928767 0.930865 0.932034 0.932533 0.932556 0.932476 0.932306 0.932064 0.931776 0.931464 0.931144 0.930836 0.930547 0.930283 0.930047 0.929842 0.929673 0.92955 0.929491 0.92952 0.929698 0.930114 0.93086 0.932041 0.933772 0.936136 0.939278 0.942825 0.949039 0.949563 0.945669 0.940164 0.935587 0.932457 0.930499 0.929364 0.928747 0.928429 0.92827 0.928191 0.928148 0.928116 0.928081 0.928028 0.927938 0.927775 0.92748 0.926945 0.925984 0.924277 0.921278 0.91608 0.907217 0.892416 0.868387 0.830815 0.774859 0.696428 0.594301 0.472676 0.342689 0.22187 0.126064 0.062433 0.02745 0.0111454 0.00433957 0.00165772 0.000627907 0.000236841 8.9099e-05 3.3446e-05 1.25281e-05 4.682e-06 1.74539e-06 6.48874e-07 2.405e-07 8.88443e-08 3.27021e-08 1.19907e-08 4.37751e-09 1.59123e-09 5.74941e-10 2.07102e-10 7.33427e-11 2.57925e-11 9.02342e-12 2.61085e-12 5.7237e-13 -1.90741e-13 2.13879e-13 2.4802e-13 -2.19916e-13 -2.99402e-13 0 0 -1.56379e-14 -1.93745e-14 -4.13627e-14 -7.23832e-15 -5.39888e-14 -2.01689e-14 -3.01199e-14 -1.07336e-13 5.49552e-14 -8.0637e-14 -8.16962e-14 -4.57162e-14 1.75903e-14 -2.96345e-14 -9.32375e-14 7.42498e-14 3.06015e-14 3.52145e-14 -1.49186e-13 -1.14649e-13 -1.15868e-13 8.61412e-14 -2.17744e-14 -1.19018e-13 -8.69448e-14 -6.32804e-14 -5.63806e-14 -3.43587e-13 2.60327e-13 -5.69309e-15 -2.16051e-13 5.97207e-14 -7.81225e-14 7.32028e-14 -5.72869e-14 2.09931e-13 3.02812e-13 8.51096e-13 4.31666e-12 2.50226e-11 1.42802e-10 7.74562e-10 3.99313e-09 1.95239e-08 9.03262e-08 3.944e-07 1.62065e-06 6.24648e-06 2.2497e-05 7.53738e-05 0.000233687 0.000666311 0.00173483 0.00409322 0.00869102 0.0165358 0.0282226 0.0435648 0.0617117 0.0816462 0.102583 0.124051 0.1458 0.167702 0.189691 0.211727 0.233789 0.25586 0.27793 0.29998 0.321995 0.343962 0.365869 0.387707 0.409467 0.431143 0.45273 0.474223 0.495619 0.516912 0.538097 0.559167 0.580113 0.600925 0.621588 0.642086 0.662398 0.682499 0.702358 0.721938 0.741193 0.760069 0.7785 0.796407 0.813697 0.830262 0.845976 0.860703 0.874296 0.886608 0.897502 0.906871 0.914649 0.920834 0.925493 0.928767 0.930865 0.932034 0.932533 0.932556 0.932476 0.932306 0.932064 0.931776 0.931464 0.931144 0.930836 0.930547 0.930283 0.930047 0.929842 0.929673 0.92955 0.929491 0.92952 0.929698 0.930114 0.93086 0.932041 0.933772 0.936136 0.939278 0.942825 0.949039 0.949563 0.945669 0.940164 0.935587 0.932457 0.930499 0.929364 0.928747 0.928429 0.92827 0.928191 0.928148 0.928116 0.928081 0.928028 0.927938 0.927775 0.92748 0.926945 0.925984 0.924277 0.921278 0.91608 0.907217 0.892416 0.868387 0.830815 0.774859 0.696428 0.594301 0.472676 0.342689 0.22187 0.126064 0.062433 0.02745 0.0111454 0.00433957 0.00165772 0.000627907 0.000236841 8.9099e-05 3.3446e-05 1.25281e-05 4.682e-06 1.74539e-06 6.48874e-07 2.40501e-07 8.88439e-08 3.27022e-08 1.19901e-08 4.37818e-09 1.5904e-09 5.7511e-10 2.06496e-10 7.45243e-11 2.53554e-11 1.01395e-11 1.66797e-12 8.91904e-13 3.44728e-13 -1.43159e-13 -1.24733e-12 3.94877e-13 -2.39634e-14 0
				</DataArray>
				<DataArray Name="VitesseY" type="Float32" format="ascii">