<?xml version="1.0"?>
<VTKFile type="PolyData">
	<PolyData>
		<Piece NumberOfPoints="1206" NumberOfPolys="1000">
			<Points>
				<DataArray type="Float32" NumberOfComponents="3" format="ascii">
 0 0 0 0.005 0 0 0.01 0 0 0.015 0 0 0.02 0 0 0.025 0 0 0.03 0 0 0.035 0 0 0.04 0 0 0.045 0 0 0.05 0 0 0.055 0 0 0.06 0 0 0.065 0 0 0.07 0 0 0.075 0 0 0.08 0 0 0.085 0 0 0.09 0 0 0.095 0 0 0.1 0 0 0.105 0 0 0.11 0 0 0.115 0 0 0.12 0 0 0.125 0 0 0.13 0 0 0.135 0 0 0.14 0 0 0.145 0 0 0.15 0 0 0.155 0 0 0.16 0 0 0.165 0 0 0.17 0 0 0.175 0 0 0.18 0 0 0.185 0 0 0.19 0 0 0.195 0 0 0.2 0 0 0.205 0 0 0.21 0 0 0.215 0 0 0.22 0 0 0.225 0 0 0.23 0 0 0.235 0 0 0.24 0 0 0.245 0 0 0.25 0 0 0.255 0 0 0.26 0 0 0.265 0 0 0.27 0 0 0.275 0 0 0.28 0 0 0.285 0 0 0.29 0 0 0.295 0 0 0.3 0 0 0.305 0 0 0.31 0 0 0.315 0 0 0.32 0 0 0.325 0 0 0.33 0 0 0.335 0 0 0.34 0 0 0.345 0 0 0.35 0 0 0.355 0 0 0.36 0 0 0.365 0 0 0.37 0 0 0.375 0 0 0.38 0 0 0.385 0 0 0.39 0 0 0.395 0 0 0.4 0 0 0.405 0 0 0.41 0 0 0.415 0 0 0.42 0 0 0.425 0 0 0.43 0 0 0.435 0 0 0.44 0 0 0.445 0 0 0.45 0 0 0.455 0 0 0.46 0 0 0.465 0 0 0.47 0 0 0.475 0 0 0.48 0 0 0.485 0 0 0.49 0 0 0.495 0 0 0.5 0 0 0.505 0 0 0.51 0 0 0.515 0 0 0.52 0 0 0.525 0 0 0.53 0 0 0.535 0 0 0.54 0 0 0.545 0 0 0.55 0 0 0.555 0 0 0.56 0 0 0.565 0 0 0.57 0 0 0.575 0 0 0.58 0 0 0.585 0 0 0.59 0 0 0.595 0 0 0.6 0 0 0.605 0 0 0.61 0 0 0.615 0 0 0.62 0 0 0.625 0 0 0.63 0 0 0.635 0 0 0.64 0 0 0.645 0 0 0.65 0 0 0.655 0 0 0.66 0 0 0.665 0 0 0.67 0 0 0.675 0 0 0.68 0 0 0.685 0 0 0.69 0 0 0.695 0 0 0.7 0 0 0.705 0 0 0.71 0 0 0.715 0 0 0.72 0 0 0.725 0 0 0.73 0 0 0.735 0 0 0.74 0 0 0.745 0 0 0.75 0 0 0.755 0 0 0.76 0 0 0.765 0 0 0.77 0 0 0.775 0 0 0.78 0 0 0.785 0 0 0.79 0 0 0.795 0 0 0.8 0 0 0.805 0 0 0.81 0 0 0.815 0 0 0.82 0 0 0.825 0 0 0.83 0 0 0.835 0 0 0.84 0 0 0.845 0 0 0.85 0 0 0.855 0 0 0.86 0 0 0.865 0 0 0.87 0 0 0.875 0 0 0.88 0 0 0.885 0 0 0.89 0 0 0.895 0 0 0.9 0 0 0.905 0 0 0.91 0 0 0.915 0 0 0.92 0 0 0.925 0 0 0.93 0 0 0.935 0 0 0.94 0 0 0.945 0 0 0.95 0 0 0.955 0 0 0.96 0 0 0.965 0 0 0.97 0 0 0.975 0 0 0.98 0 0 0.985 0 0 0.99 0 0 0.995 0 0 1 0 0 0 0.02 0 0.005 0.02 0 0.01 0.02 0 0.015 0.02 0 0.02 0.02 0 0.025 0.02 0 0.03 0.02 0 0.035 0.02 0 0.04 0.02 0 0.045 0.02 0 0.05 0.02 0 0.055 0.02 0 0.06 0.02 0 0.065 0.02 0 0.07 0.02 0 0.075 0.02 0 0.08 0.02 0 0.085 0.02 0 0.09 0.02 0 0.095 0.02 0 0.1 0.02 0 0.105 0.02 0 0.11 0.02 0 0.115 0.02 0 0.12 0.02 0 0.125 0.02 0 0.13 0.02 0 0.135 0.02 0 0.14 0.02 0 0.145 0.02 0 0.15 0.02 0 0.155 0.02 0 0.16 0.02 0 0.165 0.02 0 0.17 0.02 0 0.175 0.02 0 0.18 0.02 0 0.185 0.02 0 0.19 0.02 0 0.195 0.02 0 0.2 0.02 0 0.205 0.02 0 0.21 0.02 0 0.215 0.02 0 0.22 0.02 0 0.225 0.02 0 0.23 0.02 0 0.235 0.02 0 0.24 0.02 0 0.245 0.02 0 0.25 0.02 0 0.255 0.02 0 0.26 0.02 0 0.265 0.02 0 0.27 0.02 0 0.275 0.02 0 0.28 0.02 0 0.285 0.02 0 0.29 0.02 0 0.295 0.02 0 0.3 0.02 0 0.305 0.02 0 0.31 0.02 0 0.315 0.02 0 0.32 0.02 0 0.325 0.02 0 0.33 0.02 0 0.335 0.02 0 0.34 0.02 0 0.345 0.02 0 0.35 0.02 0 0.355 0.02 0 0.36 0.02 0 0.365 0.02 0 0.37 0.02 0 0.375 0.02 0 0.38 0.02 0 0.385 0.02 0 0.39 0.02 0 0.395 0.02 0 0.4 0.02 0 0.405 0.02 0 0.41 0.02 0 0.415 0.02 0 0.42 0.02 0 0.425 0.02 0 0.43 0.02 0 0.435 0.02 0 0.44 0.02 0 0.445 0.02 0 0.45 0.02 0 0.455 0.02 0 0.46 0.02 0 0.465 0.02 0 0.47 0.02 0 0.475 0.02 0 0.48 0.02 0 0.485 0.02 0 0.49 0.02 0 0.495 0.02 0 0.5 0.02 0 0.505 0.02 0 0.51 0.02 0 0.515 0.02 0 0.52 0.02 0 0.525 0.02 0 0.53 0.02 0 0.535 0.02 0 0.54 0.02 0 0.545 0.02 0 0.55 0.02 0 0.555 0.02 0 0.56 0.02 0 0.565 0.02 0 0.57 0.02 0 0.575 0.02 0 0.58 0.02 0 0.585 0.02 0 0.59 0.02 0 0.595 0.02 0 0.6 0.02 0 0.605 0.02 0 0.61 0.02 0 0.615 0.02 0 0.62 0.02 0 0.625 0.02 0 0.63 0.02 0 0.635 0.02 0 0.64 0.02 0 0.645 0.02 0 0.65 0.02 0 0.655 0.02 0 0.66 0.02 0 0.665 0.02 0 0.67 0.02 0 0.675 0.02 0 0.68 0.02 0 0.685 0.02 0 0.69 0.02 0 0.695 0.02 0 0.7 0.02 0 0.705 0.02 0 0.71 0.02 0 0.715 0.02 0 0.72 0.02 0 0.725 0.02 0 0.73 0.02 0 0.735 0.02 0 0.74 0.02 0 0.745 0.02 0 0.75 0.02 0 0.755 0.02 0 0.76 0.02 0 0.765 0.02 0 0.77 0.02 0 0.775 0.02 0 0.78 0.02 0 0.785 0.02 0 0.79 0.02 0 0.795 0.02 0 0.8 0.02 0 0.805 0.02 0 0.81 0.02 0 0.815 0.02 0 0.82 0.02 0 0.825 0.02 0 0.83 0.02 0 0.835 0.02 0 0.84 0.02 0 0.845 0.02 0 0.85 0.02 0 0.855 0.02 0 0.86 0.02 0 0.865 0.02 0 0.87 0.02 0 0.875 0.02 0 0.88 0.02 0 0.885 0.02 0 0.89 0.02 0 0.895 0.02 0 0.9 0.02 0 0.905 0.02 0 0.91 0.02 0 0.915 0.02 0 0.92 0.02 0 0.925 0.02 0 0.93 0.02 0 0.935 0.02 0 0.94 0.02 0 0.945 0.02 0 0.95 0.02 0 0.955 0.02 0 0.96 0.02 0 0.965 0.02 0 0.97 0.02 0 0.975 0.02 0 0.98 0.02 0 0.985 0.02 0 0.99 0.02 0 0.995 0.02 0 1 0.02 0 0 0.04 0 0.005 0.04 0 0.01 0.04 0 0.015 0.04 0 0.02 0.04 0 0.025 0.04 0 0.03 0.04 0 0.035 0.04 0 0.04 0.04 0 0.045 0.04 0 0.05 0.04 0 0.055 0.04 0 0.06 0.04 0 0.065 0.04 0 0.07 0.04 0 0.075 0.04 0 0.08 0.04 0 0.085 0.04 0 0.09 0.04 0 0.095 0.04 0 0.1 0.04 0 0.105 0.04 0 0.11 0.04 0 0.115 0.04 0 0.12 0.04 0 0.125 0.04 0 0.13 0.04 0 0.135 0.04 0 0.14 0.04 0 0.145 0.04 0 0.15 0.04 0 0.155 0.04 0 0.16 0.04 0 0.165 0.04 0 0.17 0.04 0 0.175 0.04 0 0.18 0.04 0 0.185 0.04 0 0.19 0.04 0 0.195 0.04 0 0.2 0.04 0 0.205 0.04 0 0.21 0.04 0 0.215 0.04 0 0.22 0.04 0 0.225 0.04 0 0.23 0.04 0 0.235 0.04 0 0.24 0.04 0 0.245 0.04 0 0.25 0.04 0 0.255 0.04 0 0.26 0.04 0 0.265 0.04 0 0.27 0.04 0 0.275 0.04 0 0.28 0.04 0 0.285 0.04 0 0.29 0.04 0 0.295 0.04 0 0.3 0.04 0 0.305 0.04 0 0.31 0.04 0 0.315 0.04 0 0.32 0.04 0 0.325 0.04 0 0.33 0.04 0 0.335 0.04 0 0.34 0.04 0 0.345 0.04 0 0.35 0.04 0 0.355 0.04 0 0.36 0.04 0 0.365 0.04 0 0.37 0.04 0 0.375 0.04 0 0.38 0.04 0 0.385 0.04 0 0.39 0.04 0 0.395 0.04 0 0.4 0.04 0 0.405 0.04 0 0.41 0.04 0 0.415 0.04 0 0.42 0.04 0 0.425 0.04 0 0.43 0.04 0 0.435 0.04 0 0.44 0.04 0 0.445 0.04 0 0.45 0.04 0 0.455 0.04 0 0.46 0.04 0 0.465 0.04 0 0.47 0.04 0 0.475 0.04 0 0.48 0.04 0 0.485 0.04 0 0.49 0.04 0 0.495 0.04 0 0.5 0.04 0 0.505 0.04 0 0.51 0.04 0 0.515 0.04 0 0.52 0.04 0 0.525 0.04 0 0.53 0.04 0 0.535 0.04 0 0.54 0.04 0 0.545 0.04 0 0.55 0.04 0 0.555 0.04 0 0.56 0.04 0 0.565 0.04 0 0.57 0.04 0 0.575 0.04 0 0.58 0.04 0 0.585 0.04 0 0.59 0.04 0 0.595 0.04 0 0.6 0.04 0 0.605 0.04 0 0.61 0.04 0 0.615 0.04 0 0.62 0.04 0 0.625 0.04 0 0.63 0.04 0 0.635 0.04 0 0.64 0.04 0 0.645 0.04 0 0.65 0.04 0 0.655 0.04 0 0.66 0.04 0 0.665 0.04 0 0.67 0.04 0 0.675 0.04 0 0.68 0.04 0 0.685 0.04 0 0.69 0.04 0 0.695 0.04 0 0.7 0.04 0 0.705 0.04 0 0.71 0.04 0 0.715 0.04 0 0.72 0.04 0 0.725 0.04 0 0.73 0.04 0 0.735 0.04 0 0.74 0.04 0 0.745 0.04 0 0.75 0.04 0 0.755 0.04 0 0.76 0.04 0 0.765 0.04 0 0.77 0.04 0 0.775 0.04 0 0.78 0.04 0 0.785 0.04 0 0.79 0.04 0 0.795 0.04 0 0.8 0.04 0 0.805 0.04 0 0.81 0.04 0 0.815 0.04 0 0.82 0.04 0 0.825 0.04 0 0.83 0.04 0 0.835 0.04 0 0.84 0.04 0 0.845 0.04 0 0.85 0.04 0 0.855 0.04 0 0.86 0.04 0 0.865 0.04 0 0.87 0.04 0 0.875 0.04 0 0.88 0.04 0 0.885 0.04 0 0.89 0.04 0 0.895 0.04 0 0.9 0.04 0 0.905 0.04 0 0.91 0.04 0 0.915 0.04 0 0.92 0.04 0 0.925 0.04 0 0.93 0.04 0 0.935 0.04 0 0.94 0.04 0 0.945 0.04 0 0.95 0.04 0 0.955 0.04 0 0.96 0.04 0 0.965 0.04 0 0.97 0.04 0 0.975 0.04 0 0.98 0.04 0 0.985 0.04 0 0.99 0.04 0 0.995 0.04 0 1 0.04 0 0 0.06 0 0.005 0.06 0 0.01 0.06 0 0.015 0.06 0 0.02 0.06 0 0.025 0.06 0 0.03 0.06 0 0.035 0.06 0 0.04 0.06 0 0.045 0.06 0 0.05 0.06 0 0.055 0.06 0 0.06 0.06 0 0.065 0.06 0 0.07 0.06 0 0.075 0.06 0 0.08 0.06 0 0.085 0.06 0 0.09 0.06 0 0.095 0.06 0 0.1 0.06 0 0.105 0.06 0 0.11 0.06 0 0.115 0.06 0 0.12 0.06 0 0.125 0.06 0 0.13 0.06 0 0.135 0.06 0 0.14 0.06 0 0.145 0.06 0 0.15 0.06 0 0.155 0.06 0 0.16 0.06 0 0.165 0.06 0 0.17 0.06 0 0.175 0.06 0 0.18 0.06 0 0.185 0.06 0 0.19 0.06 0 0.195 0.06 0 0.2 0.06 0 0.205 0.06 0 0.21 0.06 0 0.215 0.06 0 0.22 0.06 0 0.225 0.06 0 0.23 0.06 0 0.235 0.06 0 0.24 0.06 0 0.245 0.06 0 0.25 0.06 0 0.255 0.06 0 0.26 0.06 0 0.265 0.06 0 0.27 0.06 0 0.275 0.06 0 0.28 0.06 0 0.285 0.06 0 0.29 0.06 0 0.295 0.06 0 0.3 0.06 0 0.305 0.06 0 0.31 0.06 0 0.315 0.06 0 0.32 0.06 0 0.325 0.06 0 0.33 0.06 0 0.335 0.06 0 0.34 0.06 0 0.345 0.06 0 0.35 0.06 0 0.355 0.06 0 0.36 0.06 0 0.365 0.06 0 0.37 0.06 0 0.375 0.06 0 0.38 0.06 0 0.385 0.06 0 0.39 0.06 0 0.395 0.06 0 0.4 0.06 0 0.405 0.06 0 0.41 0.06 0 0.415 0.06 0 0.42 0.06 0 0.425 0.06 0 0.43 0.06 0 0.435 0.06 0 0.44 0.06 0 0.445 0.06 0 0.45 0.06 0 0.455 0.06 0 0.46 0.06 0 0.465 0.06 0 0.47 0.06 0 0.475 0.06 0 0.48 0.06 0 0.485 0.06 0 0.49 0.06 0 0.495 0.06 0 0.5 0.06 0 0.505 0.06 0 0.51 0.06 0 0.515 0.06 0 0.52 0.06 0 0.525 0.06 0 0.53 0.06 0 0.535 0.06 0 0.54 0.06 0 0.545 0.06 0 0.55 0.06 0 0.555 0.06 0 0.56 0.06 0 0.565 0.06 0 0.57 0.06 0 0.575 0.06 0 0.58 0.06 0 0.585 0.06 0 0.59 0.06 0 0.595 0.06 0 0.6 0.06 0 0.605 0.06 0 0.61 0.06 0 0.615 0.06 0 0.62 0.06 0 0.625 0.06 0 0.63 0.06 0 0.635 0.06 0 0.64 0.06 0 0.645 0.06 0 0.65 0.06 0 0.655 0.06 0 0.66 0.06 0 0.665 0.06 0 0.67 0.06 0 0.675 0.06 0 0.68 0.06 0 0.685 0.06 0 0.69 0.06 0 0.695 0.06 0 0.7 0.06 0 0.705 0.06 0 0.71 0.06 0 0.715 0.06 0 0.72 0.06 0 0.725 0.06 0 0.73 0.06 0 0.735 0.06 0 0.74 0.06 0 0.745 0.06 0 0.75 0.06 0 0.755 0.06 0 0.76 0.06 0 0.765 0.06 0 0.77 0.06 0 0.775 0.06 0 0.78 0.06 0 0.785 0.06 0 0.79 0.06 0 0.795 0.06 0 0.8 0.06 0 0.805 0.06 0 0.81 0.06 0 0.815 0.06 0 0.82 0.06 0 0.825 0.06 0 0.83 0.06 0 0.835 0.06 0 0.84 0.06 0 0.845 0.06 0 0.85 0.06 0 0.855 0.06 0 0.86 0.06 0 0.865 0.06 0 0.87 0.06 0 0.875 0.06 0 0.88 0.06 0 0.885 0.06 0 0.89 0.06 0 0.895 0.06 0 0.9 0.06 0 0.905 0.06 0 0.91 0.06 0 0.915 0.06 0 0.92 0.06 0 0.925 0.06 0 0.93 0.06 0 0.935 0.06 0 0.94 0.06 0 0.945 0.06 0 0.95 0.06 0 0.955 0.06 0 0.96 0.06 0 0.965 0.06 0 0.97 0.06 0 0.975 0.06 0 0.98 0.06 0 0.985 0.06 0 0.99 0.06 0 0.995 0.06 0 1 0.06 0 0 0.08 0 0.005 0.08 0 0.01 0.08 0 0.015 0.08 0 0.02 0.08 0 0.025 0.08 0 0.03 0.08 0 0.035 0.08 0 0.04 0.08 0 0.045 0.08 0 0.05 0.08 0 0.055 0.08 0 0.06 0.08 0 0.065 0.08 0 0.07 0.08 0 0.075 0.08 0 0.08 0.08 0 0.085 0.08 0 0.09 0.08 0 0.095 0.08 0 0.1 0.08 0 0.105 0.08 0 0.11 0.08 0 0.115 0.08 0 0.12 0.08 0 0.125 0.08 0 0.13 0.08 0 0.135 0.08 0 0.14 0.08 0 0.145 0.08 0 0.15 0.08 0 0.155 0.08 0 0.16 0.08 0 0.165 0.08 0
[...]
			<PointData Scalars="VitesseX">
				<DataArray Name="VitesseX" type="Float32" format="ascii">
 0 -1.5087e-14 -3.6967e-15 -2.33683e-15 -9.91518e-15 -2.27228e-14 -8.75144e-15 -4.48478e-14 -4.56499e-14 -3.29639e-14 -1.68618e-14 -3.45866e-14 -7.9602e-15 -8.02227e-14 3.01385e-14 -3.04817e-14 3.31225e-14 -4.15204e-14 -7.1617e-14 -2.9991e-14 -4.70301e-14 -9.8202e-15 -1.8831e-14 -9.46462e-14 -8.94879e-14 -1.95182e-13 -2.3792e-14 -1.75467e-13 -1.896e-13 5.83376e-14 -3.70419e-14 -3.78858e-14 -5.92049e-14 -3.59696e-14 1.50028e-15 -1.48428e-13 -5.18272e-14 -1.90631e-13 -1.83859e-13 -1.78833e-13 -1.77611e-13 -1.6614e-13 -1.0002e-13 -1.85903e-13 -5.06418e-14 -1.2518e-13 -7.23509e-14 -1.08131e-13 -5.51905e-14 -3.84252e-14 -3.37855e-14 2.15095e-14 1.22169e-12 8.12605e-12 6.0189e-11 4.02565e-10 2.54815e-09 1.51427e-08 8.41866e-08 4.36386e-07 2.10081e-06 9.34999e-06 3.82666e-05 0.000143099 0.000485196 0.001478 0.0040029 0.0095389 0.0198521 0.0360791 0.0578791 0.0836803 0.111769 0.140994 0.170754 0.200761 0.230879 0.261037 0.291192 0.321285 0.35126 0.381075 0.410698 0.440106 0.469284 0.498224 0.526914 0.555338 0.583475 0.611296 0.638762 0.66582 0.692405 0.718432 0.743796 0.768366 0.791981 0.814449 0.835546 0.855023 0.872618 0.888083 0.901219 0.911915 0.920184 0.926175 0.930158 0.932484 0.933536 0.933709 0.933604 0.933351 0.932986 0.93256 0.932121 0.931739 0.931477 0.931396 0.931607 0.932312 0.93371 0.935965 0.939307 0.943558 0.950327 0.955904 0.952263 0.945215 0.938566 0.934044 0.931314 0.929816 0.92904 0.928625 0.928315 0.927939 0.927318 0.926177 0.924072 0.920255 0.91349 0.901808 0.882262 0.850801 0.802554 0.732809 0.638871 0.522613 0.392731 0.264976 0.157565 0.08145 0.0368967 0.0151593 0.00588839 0.00222516 0.000829636 0.00030693 0.000112891 4.12994e-05 1.50254e-05 5.43445e-06 1.95318e-06 6.97249e-07 2.47113e-07 8.69111e-08 3.03209e-08 1.0489e-08 3.59631e-09 1.22178e-09 4.10982e-10 1.36902e-10 4.45051e-11 1.47049e-11 4.5764e-12 8.11083e-13 1.1761e-13 -2.69025e-13 -3.51178e-13 6.34028e-14 -3.73933e-13 -1.5031e-13 -2.21376e-13 2.07807e-13 -1.0153e-13 -2.9486e-13 2.77969e-13 2.47808e-13 -4.57848e-14 9.9689e-14 6.89277e-14 -3.15199e-13 1.78119e-13 6.39255e-14 1.42246e-13 -2.81643e-13 6.71983e-13 -3.13429e-13 5.47551e-13 6.51654e-13 0 0 1.05279e-14 8.56938e-16 9.07727e-15 -1.12954e-14 -1.20671e-14 -3.23166e-14 -1.798e-14 -4.4253e-14 -8.80677e-15 -4.60549e-14 -2.95311e-14 -3.89408e-14 1.38788e-15 -5.74801e-14 3.38721e-15 -4.83169e-14 -1.10089e-14 3.14656e-14 -2.47758e-14 -7.03672e-14 -4.5967e-14 -6.2299e-14 -1.32096e-13 -7.64673e-14 -9.83299e-14 -2.08259e-13 -5.93612e-14 -5.96121e-14 -1.17371e-13 3.40094e-14 -5.90877e-14 2.31812e-14 -6.68028e-14 -7.67663e-14 -1.17524e-13 -1.93506e-13 -6.56967e-14 -1.1155e-13 -1.43869e-13 -1.85089e-13 -1.84407e-13 1.40846e-14 -1.30243e-13 -9.52455e-14 -2.36125e-13 6.32911e-14 -5.08208e-14 -7.02632e-14 -5.29735e-14 -3.77586e-14 2.22505e-13 1.14518e-12 8.49738e-12 5.95452e-11 4.02611e-10 2.54832e-09 1.51429e-08 8.41865e-08 4.36386e-07 2.10081e-06 9.34999e-06 3.82666e-05 0.000143099 0.000485196 0.001478 0.0040029 0.0095389 0.0198521 0.0360791 0.0578791 0.0836803 0.111769 0.140994 0.170754 0.200761 0.230879 0.261037 0.291192 0.321285 0.35126 0.381075 0.410698 0.440106 0.469284 0.498224 0.526914 0.555338 0.583475 0.611296 0.638762 0.66582 0.692405 0.718432 0.743796 0.768366 0.791981 0.814449 0.835546 0.855023 0.872618 0.888083 0.901219 0.911915 0.920184 0.926175 0.930158 0.932484 0.933536 0.933709 0.933604 0.933351 0.932986 0.93256 0.932121 0.931739 0.931477 0.931396 0.931607 0.932312 0.93371 0.935965 0.939307 0.943558 0.950327 0.955904 0.952263 0.945215 0.938566 0.934044 0.931314 0.929816 0.92904 0.928625 0.928315 0.927939 0.927318 0.926177 0.924072 0.920255 0.91349 0.901808 0.882262 0.850801 0.802554 0.732809 0.638871 0.522613 0.392731 0.264976 0.157565 0.08145 0.0368967 0.0151593 0.00588839 0.00222516 0.000829636 0.00030693 0.000112891 4.12994e-05 1.50254e-05 5.43445e-06 1.95318e-06 6.97249e-07 2.47113e-07 8.69113e-08 3.03212e-08 1.04889e-08 3.59627e-09 1.22162e-09 4.11071e-10 1.36718e-10 4.52214e-11 1.41059e-11 4.40322e-12 1.10091e-12 -1.01858e-13 -2.16636e-13 -2.24366e-13 -5.82745e-13 9.07262e-14 -6.62104e-14 -2.57462e-13 2.52061e-13 -1.35493e-13 2.50897e-13 -2.35644e-13 -6.89508e-14 2.34163e-13 -1.42182e-13 -1.66126e-13 2.30222e-13 4.95807e-14 1.16604e-13 1.83844e-13 3.99219e-13 3.27198e-15 5.63339e-13 -4.79516e-13 -4.2761e-13 0 0 1.40104e-14 2.29436e-14 4.80837e-15 7.6527e-15 -1.38889e-14 -6.42388e-15 -5.5411e-15 1.69088e-14 -4.301e-14 -1.05286e-14 -3.32685e-14 -1.83515e-14 -2.98137e-14 -6.18255e-14 -9.28351e-14 -3.2459e-14 -5.77907e-14 -2.99032e-14 -5.16163e-14 1.87694e-14 -6.87455e-14 -1.35835e-13 -2.35581e-14 -9.11264e-14 -1.38911e-13 -8.01641e-14 -8.7147e-14 -1.66551e-13 6.88195e-14 -7.92507e-14 3.43202e-14 1.13173e-15 -6.90868e-14 -2.14786e-13 -1.68773e-13 -9.90055e-15 -8.89991e-14 -1.29738e-13 -1.67116e-13 -1.45528e-13 -1.43425e-13 -2.44377e-14 -5.70741e-14 1.77494e-14 7.72973e-14 -1.46913e-13 -4.19384e-14 -1.35472e-13 4.55739e-15 -8.01931e-14 2.00192e-13 1.19845e-12 8.5614e-12 5.97543e-11 4.02348e-10 2.54857e-09 1.5143e-08 8.41864e-08 4.36386e-07 2.10081e-06 9.34999e-06 3.82666e-05 0.000143099 0.000485196 0.001478 0.0040029 0.0095389 0.0198521 0.0360791 0.0578791 0.0836803 0.111769 0.140994 0.170754 0.200761 0.230879 0.261037 0.291192 0.321285 0.35126 0.381075 0.410698 0.440106 0.469284 0.498224 0.526914 0.555338 0.583475 0.611296 0.638762 0.66582 0.692405 0.718432 0.743796 0.768366 0.791981 0.814449 0.835546 0.855023 0.872618 0.888083 0.901219 0.911915 0.920184 0.926175 0.930158 0.932484 0.933536 0.933709 0.933604 0.933351 0.932986 0.93256 0.932121 0.931739 0.931477 0.931396 0.931607 0.932312 0.93371 0.935965 0.939307 0.943558 0.950327 0.955904 0.952263 0.945215 0.938566 0.934044 0.931314 0.929816 0.92904 0.928625 0.928315 0.927939 0.927318 0.926177 0.924072 0.920255 0.91349 0.901808 0.882262 0.850801 0.802554 0.732809 0.638871 0.522613 0.392731 0.264976 0.157565 0.08145 0.0368967 0.0151593 0.00588839 0.00222516 0.000829636 0.00030693 0.000112891 4.12994e-05 1.50254e-05 5.43445e-06 1.95318e-06 6.97249e-07 2.47114e-07 8.69112e-08 3.03212e-08 1.04889e-08 3.59636e-09 1.22185e-09 4.11037e-10 1.36793e-10 4.49839e-11 1.43487e-11 4.24484e-12 1.32466e-12 -1.98051e-13 -5.093e-13 -2.52768e-13 -2.61492e-13 -4.49465e-13 -5.07348e-14 1.97529e-13 -2.22061e-13 2.12248e-13 1.89245e-13 -1.38079e-13 -2.40486e-13 -2.03186e-13 2.52947e-13 7.59374e-14 1.82777e-13 -1.56872e-13 -3.81291e-14 2.42582e-13 3.50961e-13 2.97097e-13 1.41238e-13 2.43959e-13 -3.67313e-14 0 0 -3.38807e-15 1.62731e-14 3.22098e-15 7.24533e-15 8.03529e-15 3.1125e-14 -4.49954e-15 -2.02474e-14 2.21171e-14 -6.49673e-15 -1.72866e-14 -1.83001e-14 -8.19927e-14 -7.56123e-14 -3.99576e-14 -5.61631e-14 -9.0236e-14 -1.14861e-13 -1.19457e-13 -1.16899e-13 3.3428e-14 -9.1655e-14 -3.72334e-14 1.12993e-14 -2.11737e-14 -4.54293e-14 -9.88218e-14 -1.66043e-13 -6.1324e-14 1.38646e-14 -3.26897e-15 -8.61341e-15 -5.74658e-14 -1.2727e-13 -2.81905e-14 -7.56436e-14 -1.0359e-13 -1.8272e-13 -1.788e-13 -2.7098e-13 -1.42505e-13 -5.94599e-14 -6.20986e-15 -1.52306e-14 1.01803e-13 -6.37269e-14 -2.43271e-13 1.36389e-13 -1.88812e-13 1.60863e-14 1.50643e-13 1.28923e-12 8.35976e-12 6.00697e-11 4.02638e-10 2.54847e-09 1.51428e-08 8.41866e-08 4.36386e-07 2.10081e-06 9.34999e-06 3.82666e-05 0.000143099 0.000485196 0.001478 0.0040029 0.0095389 0.0198521 0.0360791 0.0578791 0.0836803 0.111769 0.140994 0.170754 0.200761 0.230879 0.261037 0.291192 0.321285 0.35126 0.381075 0.410698 0.440106 0.469284 0.498224 0.526914 0.555338 0.583475 0.611296 0.638762 0.66582 0.692405 0.718432 0.743796 0.768366 0.791981 0.814449 0.835546 0.855023 0.872618 0.888083 0.901219 0.911915 0.920184 0.926175 0.930158 0.932484 0.933536 0.933709 0.933604 0.933351 0.932986 0.93256 0.932121 0.931739 0.931477 0.931396 0.931607 0.932312 0.93371 0.935965 0.939307 0.943558 0.950327 0.955904 0.952263 0.945215 0.938566 0.934044 0.931314 0.929816 0.92904 0.928625 0.928315 0.927939 0.927318 0.926177 0.924072 0.920255 0.91349 0.901808 0.882262 0.850801 0.802554 0.732809 0.638871 0.522613 0.392731 0.264976 0.157565 0.08145 0.0368967 0.0151593 0.00588839 0.00222516 0.000829636 0.00030693 0.000112891 4.12994e-05 1.50254e-05 5.43445e-06 1.95318e-06 6.97249e-07 2.47113e-07 8.69117e-08 3.03209e-08 1.04891e-08 3.59657e-09 1.22187e-09 4.10799e-10 1.3681e-10 4.47451e-11 1.44675e-11 4.57342e-12 1.1514e-12 2.80335e-13 -7.05141e-13 -4.58867e-13 2.19614e-13 -3.82304e-13 -4.55833e-13 -1.70409e-13 -4.75425e-13 1.52162e-13 -5.69465e-14 2.40775e-13 -3.02513e-13 -2.37781e-13 1.08883e-13 4.55635e-13 2.15489e-13 7.45388e-13 1.40254e-13 -7.14127e-13 -2.4091e-13 7.42838e-13 -1.20839e-13 2.20369e-13 3.4444e-13 0 0 3.09677e-15 -6.13994e-16 1.35284e-14 1.00536e-15 1.24599e-14 1.49188e-15 1.66703e-14 -3.41556e-14 1.9665e-14 -4.19048e-14 -4.75861e-17 -5.57348e-14 -4.205e-14 -9.13895e-14 -3.32223e-14 -9.5882e-14 -2.89322e-14 -5.86589e-14 -9.01672e-14 -1.68278e-13 2.50455e-14 -1.42997e-14 -1.43781e-13 3.52352e-14 5.81751e-14 -1.47414e-13 -5.97466e-14 -9.28253e-15 -2.02799e-13 4.76679e-14 -5.59059e-14 9.74644e-15 -2.0748e-14 -5.9276e-14 6.15204e-14 -2.44907e-13 -7.32234e-14 -1.63986e-13 -1.36134e-13 -2.43858e-13 -1.3858e-13 -6.26909e-14 -1.04648e-13 -1.82989e-13 -1.26455e-13 9.49402e-14 -1.94058e-13 1.14963e-13 -1.9326e-13 6.22777e-14 3.20285e-13 1.20123e-12 8.5395e-12 5.9718e-11 4.02937e-10 2.5485e-09 1.51429e-08 8.41866e-08 4.36386e-07 2.10081e-06 9.34999e-06 3.82666e-05 0.000143099 0.000485196 0.001478 0.0040029 0.0095389 0.0198521 0.0360791 0.0578791 0.0836803 0.111769 0.140994 0.170754 0.200761 0.230879 0.261037 0.291192 0.321285 0.35126 0.381075 0.410698 0.440106 0.469284 0.498224 0.526914 0.555338 0.583475 0.611296 0.638762 0.66582 0.692405 0.718432 0.743796 0.768366 0.791981 0.814449 0.835546 0.855023 0.872618 0.888083 0.901219 0.911915 0.920184 0.926175 0.930158 0.932484 0.933536 0.933709 0.933604 0.933351 0.932986 0.93256 0.932121 0.931739 0.931477 0.931396 0.931607 0.932312 0.93371 0.935965 0.939307 0.943558 0.950327 0.955904 0.952263 0.945215 0.938566 0.934044 0.931314 0.929816 0.92904 0.928625 0.928315 0.927939 0.927318 0.926177 0.924072 0.920255 0.91349 0.901808 0.882262 0.850801 0.802554 0.732809 0.638871 0.522613 0.392731 0.264976 0.157565 0.08145 0.0368967 0.0151593 0.00588839 0.00222516 0.000829636 0.00030693 0.000112891 4.12994e-05 1.50254e-05 5.43445e-06 1.95318e-06 6.97249e-07 2.47113e-07 8.69114e-08 3.03212e-08 1.0489e-08 3.59633e-09 1.22179e-09 4.10847e-10 1.36812e-10 4.52398e-11 1.40796e-11 4.02649e-12 1.44984e-12 9.91776e-14 -1.97867e-13 -1.6922e-13 -4.39611e-13 -3.71018e-14 -2.47533e-13 -4.17546e-13 -2.79605e-13 -2.81635e-13 4.61129e-14 -1.95119e-13 -1.47774e-13 1.6115e-13 -2.18336e-13 -1.15871e-13 -1.17882e-13 7.04455e-13 4.96673e-13 -5.18288e-15 2.18324e-13 -9.55996e-14 1.67359e-13 -3.81374e-13 -3.71262e-13 0 0 4.84783e-15 6.70244e-15 9.74012e-15 1.55012e-14 -1.75173e-14 -1.62322e-14 2.23697e-14 4.8857e-14 -1.06275e-13 -1.66255e-14 -7.58319e-15 -4.16511e-14 -6.27403e-14 -1.01067e-14 -2.09456e-13 -1.45995e-14 -1.24764e-14 -8.19495e-14 -2.50934e-14 2.84848e-14 -7.21422e-14 -1.11914e-14 -9.06655e-14 -7.09345e-14 -1.17648e-13 2.84286e-14 -1.52888e-13 -8.99568e-14 1.47769e-13 -1.95956e-13 4.36562e-14 -6.65841e-14 3.28982e-14 -1.38551e-13 -7.1505e-14 -2.31431e-14 -1.76503e-13 -1.82768e-13 -1.39995e-13 -4.42451e-14 -7.63258e-14 -1.83527e-13 -2.3644e-13 -1.60168e-13 4.51482e-14 -1.75424e-13 8.06117e-15 -2.28461e-13 6.77403e-14 -2.62719e-14 3.16167e-13 1.15221e-12 8.61357e-12 5.99038e-11 4.02634e-10 2.5487e-09 1.51433e-08 8.41863e-08 4.36386e-07 2.1008e-06 9.34999e-06 3.82666e-05 0.000143099 0.000485196 0.001478 0.0040029 0.0095389 0.0198521 0.0360791 0.0578791 0.0836803 0.111769 0.140994 0.170754 0.200761 0.230879 0.261037 0.291192 0.321285 0.35126 0.381075 0.410698 0.440106 0.469284 0.498224 0.526914 0.555338 0.583475 0.611296 0.638762 0.66582 0.692405 0.718432 0.743796 0.768366 0.791981 0.814449 0.835546 0.855023 0.872618 0.888083 0.901219 0.911915 0.920184 0.926175 0.930158 0.932484 0.933536 0.933709 0.933604 0.933351 0.932986 0.93256 0.932121 0.931739 0.931477 0.931396 0.931607 0.932312 0.93371 0.935965 0.939307 0.943558 0.950327 0.955904 0.952263 0.945215 0.938566 0.934044 0.931314 0.929816 0.92904 0.928625 0.928315 0.927939 0.927318 0.926177 0.924072 0.920255 0.91349 0.901808 0.882262 0.850801 0.802554 0.732809 0.638871 0.522613 0.392731 0.264976 0.157565 0.08145 0.0368967 0.0151593 0.00588839 0.00222516 0.000829636 0.00030693 0.000112891 4.12994e-05 1.50254e-05 5.43445e-06 1.95318e-06 6.97249e-07 2.47114e-07 8.69104e-08 3.03215e-08 1.0489e-08 3.59601e-09 1.22208e-09 4.1101e-10 1.37057e-10 4.50196e-11 1.44146e-11 3.16579e-12 1.85546e-12 -4.37093e-13 1.60195e-13 1.71312e-13 -6.1254e-13 -7.6391e-13 2.97241e-13 1.94333e-13 -3.48796e-13 -2.73642e-13 -2.12046e-13 -3.98688e-13 2.14215e-13 -1.2262e-13 2.3551e-13 -5.89959e-13 -1.07683e-12 -3.16652e-13 4.67297e-13 1.67761e-12 5.40309e-13 -4.17242e-13 -5.81233e-13 7.91017e-13 2.00757e-15 0
				</DataArray>
				<DataArray Name="VitesseY" type="Float32" format="ascii">