<?xml version="1.0"?>
<VTKFile type="PolyData">
	<PolyData>
		<Piece NumberOfPoints="1206" NumberOfPolys="1000">
			<Points>
				<DataArray type="Float32" NumberOfComponents="3" format="ascii">
 0 0 0 0.005 0 0 0.01 0 0 0.015 0 0 0.02 0 0 0.025 0 0 0.03 0 0 0.035 0 0 0.04 0 0 0.045 0 0 0.05 0 0 0.055 0 0 0.06 0 0 0.065 0 0 0.07 0 0 0.075 0 0 0.08 0 0 0.085 0 0 0.09 0 0 0.095 0 0 0.1 0 0 0.105 0 0 0.11 0 0 0.115 0 0 0.12 0 0 0.125 0 0 0.13 0 0 0.135 0 0 0.14 0 0 0.145 0 0 0.15 0 0 0.155 0 0 0.16 0 0 0.165 0 0 0.17 0 0 0.175 0 0 0.18 0 0 0.185 0 0 0.19 0 0 0.195 0 0 0.2 0 0 0.205 0 0 0.21 0 0 0.215 0 0 0.22 0 0 0.225 0 0 0.23 0 0 0.235 0 0 0.24 0 0 0.245 0 0 0.25 0 0 0.255 0 0 0.26 0 0 0.265 0 0 0.27 0 0 0.275 0 0 0.28 0 0 0.285 0 0 0.29 0 0 0.295 0 0 0.3 0 0 0.305 0 0 0.31 0 0 0.315 0 0 0.32 0 0 0.325 0 0 0.33 0 0 0.335 0 0 0.34 0 0 0.345 0 0 0.35 0 0 0.355 0 0 0.36 0 0 0.365 0 0 0.37 0 0 0.375 0 0 0.38 0 0 0.385 0 0 0.39 0 0 0.395 0 0 0.4 0 0 0.405 0 0 0.41 0 0 0.415 0 0 0.42 0 0 0.425 0 0 0.43 0 0 0.435 0 0 0.44 0 0 0.445 0 0 0.45 0 0 0.455 0 0 0.46 0 0 0.465 0 0 0.47 0 0 0.475 0 0 0.48 0 0 0.485 0 0 0.49 0 0 0.495 0 0 0.5 0 0 0.505 0 0 0.51 0 0 0.515 0 0 0.52 0 0 0.525 0 0 0.53 0 0 0.535 0 0 0.54 0 0 0.545 0 0 0.55 0 0 0.555 0 0 0.56 0 0 0.565 0 0 0.57 0 0 0.575 0 0 0.58 0 0 0.585 0 0 0.59 0 0 0.595 0 0 0.6 0 0 0.605 0 0 0.61 0 0 0.615 0 0 0.62 0 0 0.625 0 0 0.63 0 0 0.635 0 0 0.64 0 0 0.645 0 0 0.65 0 0 0.655 0 0 0.66 0 0 0.665 0 0 0.67 0 0 0.675 0 0 0.68 0 0 0.685 0 0 0.69 0 0 0.695 0 0 0.7 0 0 0.705 0 0 0.71 0 0 0.715 0 0 0.72 0 0 0.725 0 0 0.73 0 0 0.735 0 0 0.74 0 0 0.745 0 0 0.75 0 0 0.755 0 0 0.76 0 0 0.765 0 0 0.77 0 0 0.775 0 0 0.78 0 0 0.785 0 0 0.79 0 0 0.795 0 0 0.8 0 0 0.805 0 0 0.81 0 0 0.815 0 0 0.82 0 0 0.825 0 0 0.83 0 0 0.835 0 0 0.84 0 0 0.845 0 0 0.85 0 0 0.855 0 0 0.86 0 0 0.865 0 0 0.87 0 0 0.875 0 0 0.88 0 0 0.885 0 0 0.89 0 0 0.895 0 0 0.9 0 0 0.905 0 0 0.91 0 0 0.915 0 0 0.92 0 0 0.925 0 0 0.93 0 0 0.935 0 0 0.94 0 0 0.945 0 0 0.95 0 0 0.955 0 0 0.96 0 0 0.965 0 0 0.97 0 0 0.975 0 0 0.98 0 0 0.985 0 0 0.99 0 0 0.995 0 0 1 0 0 0 0.02 0 0.005 0.02 0 0.01 0.02 0 0.015 0.02 0 0.02 0.02 0 0.025 0.02 0 0.03 0.02 0 0.035 0.02 0 0.04 0.02 0 0.045 0.02 0 0.05 0.02 0 0.055 0.02 0 0.06 0.02 0 0.065 0.02 0 0.07 0.02 0 0.075 0.02 0 0.08 0.02 0 0.085 0.02 0 0.09 0.02 0 0.095 0.02 0 0.1 0.02 0 0.105 0.02 0 0.11 0.02 0 0.115 0.02 0 0.12 0.02 0 0.125 0.02 0 0.13 0.02 0 0.135 0.02 0 0.14 0.02 0 0.145 0.02 0 0.15 0.02 0 0.155 0.02 0 0.16 0.02 0 0.165 0.02 0 0.17 0.02 0 0.175 0.02 0 0.18 0.02 0 0.185 0.02 0 0.19 0.02 0 0.195 0.02 0 0.2 0.02 0 0.205 0.02 0 0.21 0.02 0 0.215 0.02 0 0.22 0.02 0 0.225 0.02 0 0.23 0.02 0 0.235 0.02 0 0.24 0.02 0 0.245 0.02 0 0.25 0.02 0 0.255 0.02 0 0.26 0.02 0 0.265 0.02 0 0.27 0.02 0 0.275 0.02 0 0.28 0.02 0 0.285 0.02 0 0.29 0.02 0 0.295 0.02 0 0.3 0.02 0 0.305 0.02 0 0.31 0.02 0 0.315 0.02 0 0.32 0.02 0 0.325 0.02 0 0.33 0.02 0 0.335 0.02 0 0.34 0.02 0 0.345 0.02 0 0.35 0.02 0 0.355 0.02 0 0.36 0.02 0 0.365 0.02 0 0.37 0.02 0 0.375 0.02 0 0.38 0.02 0 0.385 0.02 0 0.39 0.02 0 0.395 0.02 0 0.4 0.02 0 0.405 0.02 0 0.41 0.02 0 0.415 0.02 0 0.42 0.02 0 0.425 0.02 0 0.43 0.02 0 0.435 0.02 0 0.44 0.02 0 0.445 0.02 0 0.45 0.02 0 0.455 0.02 0 0.46 0.02 0 0.465 0.02 0 0.47 0.02 0 0.475 0.02 0 0.48 0.02 0 0.485 0.02 0 0.49 0.02 0 0.495 0.02 0 0.5 0.02 0 0.505 0.02 0 0.51 0.02 0 0.515 0.02 0 0.52 0.02 0 0.525 0.02 0 0.53 0.02 0 0.535 0.02 0 0.54 0.02 0 0.545 0.02 0 0.55 0.02 0 0.555 0.02 0 0.56 0.02 0 0.565 0.02 0 0.57 0.02 0 0.575 0.02 0 0.58 0.02 0 0.585 0.02 0 0.59 0.02 0 0.595 0.02 0 0.6 0.02 0 0.605 0.02 0 0.61 0.02 0 0.615 0.02 0 0.62 0.02 0 0.625 0.02 0 0.63 0.02 0 0.635 0.02 0 0.64 0.02 0 0.645 0.02 0 0.65 0.02 0 0.655 0.02 0 0.66 0.02 0 0.665 0.02 0 0.67 0.02 0 0.675 0.02 0 0.68 0.02 0 0.685 0.02 0 0.69 0.02 0 0.695 0.02 0 0.7 0.02 0 0.705 0.02 0 0.71 0.02 0 0.715 0.02 0 0.72 0.02 0 0.725 0.02 0 0.73 0.02 0 0.735 0.02 0 0.74 0.02 0 0.745 0.02 0 0.75 0.02 0 0.755 0.02 0 0.76 0.02 0 0.765 0.02 0 0.77 0.02 0 0.775 0.02 0 0.78 0.02 0 0.785 0.02 0 0.79 0.02 0 0.795 0.02 0 0.8 0.02 0 0.805 0.02 0 0.81 0.02 0 0.815 0.02 0 0.82 0.02 0 0.825 0.02 0 0.83 0.02 0 0.835 0.02 0 0.84 0.02 0 0.845 0.02 0 0.85 0.02 0 0.855 0.02 0 0.86 0.02 0 0.865 0.02 0 0.87 0.02 0 0.875 0.02 0 0.88 0.02 0 0.885 0.02 0 0.89 0.02 0 0.895 0.02 0 0.9 0.02 0 0.905 0.02 0 0.91 0.02 0 0.915 0.02 0 0.92 0.02 0 0.925 0.02 0 0.93 0.02 0 0.935 0.02 0 0.94 0.02 0 0.945 0.02 0 0.95 0.02 0 0.955 0.02 0 0.96 0.02 0 0.965 0.02 0 0.97 0.02 0 0.975 0.02 0 0.98 0.02 0 0.985 0.02 0 0.99 0.02 0 0.995 0.02 0 1 0.02 0 0 0.04 0 0.005 0.04 0 0.01 0.04 0 0.015 0.04 0 0.02 0.04 0 0.025 0.04 0 0.03 0.04 0 0.035 0.04 0 0.04 0.04 0 0.045 0.04 0 0.05 0.04 0 0.055 0.04 0 0.06 0.04 0 0.065 0.04 0 0.07 0.04 0 0.075 0.04 0 0.08 0.04 0 0.085 0.04 0 0.09 0.04 0 0.095 0.04 0 0.1 0.04 0 0.105 0.04 0 0.11 0.04 0 0.115 0.04 0 0.12 0.04 0 0.125 0.04 0 0.13 0.04 0 0.135 0.04 0 0.14 0.04 0 0.145 0.04 0 0.15 0.04 0 0.155 0.04 0 0.16 0.04 0 0.165 0.04 0 0.17 0.04 0 0.175 0.04 0 0.18 0.04 0 0.185 0.04 0 0.19 0.04 0 0.195 0.04 0 0.2 0.04 0 0.205 0.04 0 0.21 0.04 0 0.215 0.04 0 0.22 0.04 0 0.225 0.04 0 0.23 0.04 0 0.235 0.04 0 0.24 0.04 0 0.245 0.04 0 0.25 0.04 0 0.255 0.04 0 0.26 0.04 0 0.265 0.04 0 0.27 0.04 0 0.275 0.04 0 0.28 0.04 0 0.285 0.04 0 0.29 0.04 0 0.295 0.04 0 0.3 0.04 0 0.305 0.04 0 0.31 0.04 0 0.315 0.04 0 0.32 0.04 0 0.325 0.04 0 0.33 0.04 0 0.335 0.04 0 0.34 0.04 0 0.345 0.04 0 0.35 0.04 0 0.355 0.04 0 0.36 0.04 0 0.365 0.04 0 0.37 0.04 0 0.375 0.04 0 0.38 0.04 0 0.385 0.04 0 0.39 0.04 0 0.395 0.04 0 0.4 0.04 0 0.405 0.04 0 0.41 0.04 0 0.415 0.04 0 0.42 0.04 0 0.425 0.04 0 0.43 0.04 0 0.435 0.04 0 0.44 0.04 0 0.445 0.04 0 0.45 0.04 0 0.455 0.04 0 0.46 0.04 0 0.465 0.04 0 0.47 0.04 0 0.475 0.04 0 0.48 0.04 0 0.485 0.04 0 0.49 0.04 0 0.495 0.04 0 0.5 0.04 0 0.505 0.04 0 0.51 0.04 0 0.515 0.04 0 0.52 0.04 0 0.525 0.04 0 0.53 0.04 0 0.535 0.04 0 0.54 0.04 0 0.545 0.04 0 0.55 0.04 0 0.555 0.04 0 0.56 0.04 0 0.565 0.04 0 0.57 0.04 0 0.575 0.04 0 0.58 0.04 0 0.585 0.04 0 0.59 0.04 0 0.595 0.04 0 0.6 0.04 0 0.605 0.04 0 0.61 0.04 0 0.615 0.04 0 0.62 0.04 0 0.625 0.04 0 0.63 0.04 0 0.635 0.04 0 0.64 0.04 0 0.645 0.04 0 0.65 0.04 0 0.655 0.04 0 0.66 0.04 0 0.665 0.04 0 0.67 0.04 0 0.675 0.04 0 0.68 0.04 0 0.685 0.04 0 0.69 0.04 0 0.695 0.04 0 0.7 0.04 0 0.705 0.04 0 0.71 0.04 0 0.715 0.04 0 0.72 0.04 0 0.725 0.04 0 0.73 0.04 0 0.735 0.04 0 0.74 0.04 0 0.745 0.04 0 0.75 0.04 0 0.755 0.04 0 0.76 0.04 0 0.765 0.04 0 0.77 0.04 0 0.775 0.04 0 0.78 0.04 0 0.785 0.04 0 0.79 0.04 0 0.795 0.04 0 0.8 0.04 0 0.805 0.04 0 0.81 0.04 0 0.815 0.04 0 0.82 0.04 0 0.825 0.04 0 0.83 0.04 0 0.835 0.04 0 0.84 0.04 0 0.845 0.04 0 0.85 0.04 0 0.855 0.04 0 0.86 0.04 0 0.865 0.04 0 0.87 0.04 0 0.875 0.04 0 0.88 0.04 0 0.885 0.04 0 0.89 0.04 0 0.895 0.04 0 0.9 0.04 0 0.905 0.04 0 0.91 0.04 0 0.915 0.04 0 0.92 0.04 0 0.925 0.04 0 0.93 0.04 0 0.935 0.04 0 0.94 0.04 0 0.945 0.04 0 0.95 0.04 0 0.955 0.04 0 0.96 0.04 0 0.965 0.04 0 0.97 0.04 0 0.975 0.04 0 0.98 0.04 0 0.985 0.04 0 0.99 0.04 0 0.995 0.04 0 1 0.04 0 0 0.06 0 0.005 0.06 0 0.01 0.06 0 0.015 0.06 0 0.02 0.06 0 0.025 0.06 0 0.03 0.06 0 0.035 0.06 0 0.04 0.06 0 0.045 0.06 0 0.05 0.06 0 0.055 0.06 0 0.06 0.06 0 0.065 0.06 0 0.07 0.06 0 0.075 0.06 0 0.08 0.06 0 0.085 0.06 0 0.09 0.06 0 0.095 0.06 0 0.1 0.06 0 0.105 0.06 0 0.11 0.06 0 0.115 0.06 0 0.12 0.06 0 0.125 0.06 0 0.13 0.06 0 0.135 0.06 0 0.14 0.06 0 0.145 0.06 0 0.15 0.06 0 0.155 0.06 0 0.16 0.06 0 0.165 0.06 0 0.17 0.06 0 0.175 0.06 0 0.18 0.06 0 0.185 0.06 0 0.19 0.06 0 0.195 0.06 0 0.2 0.06 0 0.205 0.06 0 0.21 0.06 0 0.215 0.06 0 0.22 0.06 0 0.225 0.06 0 0.23 0.06 0 0.235 0.06 0 0.24 0.06 0 0.245 0.06 0 0.25 0.06 0 0.255 0.06 0 0.26 0.06 0 0.265 0.06 0 0.27 0.06 0 0.275 0.06 0 0.28 0.06 0 0.285 0.06 0 0.29 0.06 0 0.295 0.06 0 0.3 0.06 0 0.305 0.06 0 0.31 0.06 0 0.315 0.06 0 0.32 0.06 0 0.325 0.06 0 0.33 0.06 0 0.335 0.06 0 0.34 0.06 0 0.345 0.06 0 0.35 0.06 0 0.355 0.06 0 0.36 0.06 0 0.365 0.06 0 0.37 0.06 0 0.375 0.06 0 0.38 0.06 0 0.385 0.06 0 0.39 0.06 0 0.395 0.06 0 0.4 0.06 0 0.405 0.06 0 0.41 0.06 0 0.415 0.06 0 0.42 0.06 0 0.425 0.06 0 0.43 0.06 0 0.435 0.06 0 0.44 0.06 0 0.445 0.06 0 0.45 0.06 0 0.455 0.06 0 0.46 0.06 0 0.465 0.06 0 0.47 0.06 0 0.475 0.06 0 0.48 0.06 0 0.485 0.06 0 0.49 0.06 0 0.495 0.06 0 0.5 0.06 0 0.505 0.06 0 0.51 0.06 0 0.515 0.06 0 0.52 0.06 0 0.525 0.06 0 0.53 0.06 0 0.535 0.06 0 0.54 0.06 0 0.545 0.06 0 0.55 0.06 0 0.555 0.06 0 0.56 0.06 0 0.565 0.06 0 0.57 0.06 0 0.575 0.06 0 0.58 0.06 0 0.585 0.06 0 0.59 0.06 0 0.595 0.06 0 0.6 0.06 0 0.605 0.06 0 0.61 0.06 0 0.615 0.06 0 0.62 0.06 0 0.625 0.06 0 0.63 0.06 0 0.635 0.06 0 0.64 0.06 0 0.645 0.06 0 0.65 0.06 0 0.655 0.06 0 0.66 0.06 0 0.665 0.06 0 0.67 0.06 0 0.675 0.06 0 0.68 0.06 0 0.685 0.06 0 0.69 0.06 0 0.695 0.06 0 0.7 0.06 0 0.705 0.06 0 0.71 0.06 0 0.715 0.06 0 0.72 0.06 0 0.725 0.06 0 0.73 0.06 0 0.735 0.06 0 0.74 0.06 0 0.745 0.06 0 0.75 0.06 0 0.755 0.06 0 0.76 0.06 0 0.765 0.06 0 0.77 0.06 0 0.775 0.06 0 0.78 0.06 0 0.785 0.06 0 0.79 0.06 0 0.795 0.06 0 0.8 0.06 0 0.805 0.06 0 0.81 0.06 0 0.815 0.06 0 0.82 0.06 0 0.825 0.06 0 0.83 0.06 0 0.835 0.06 0 0.84 0.06 0 0.845 0.06 0 0.85 0.06 0 0.855 0.06 0 0.86 0.06 0 0.865 0.06 0 0.87 0.06 0 0.875 0.06 0 0.88 0.06 0 0.885 0.06 0 0.89 0.06 0 0.895 0.06 0 0.9 0.06 0 0.905 0.06 0 0.91 0.06 0 0.915 0.06 0 0.92 0.06 0 0.925 0.06 0 0.93 0.06 0 0.935 0.06 0 0.94 0.06 0 0.945 0.06 0 0.95 0.06 0 0.955 0.06 0 0.96 0.06 0 0.965 0.06 0 0.97 0.06 0 0.975 0.06 0 0.98 0.06 0 0.985 0.06 0 0.99 0.06 0 0.995 0.06 0 1 0.06 0 0 0.08 0 0.005 0.08 0 0.01 0.08 0 0.015 0.08 0 0.02 0.08 0 0.025 0.08 0 0.03 0.08 0 0.035 0.08 0 0.04 0.08 0 0.045 0.08 0 0.05 0.08 0 0.055 0.08 0 0.06 0.08 0 0.065 0.08 0 0.07 0.08 0 0.075 0.08 0 0.08 0.08 0 0.085 0.08 0 0.09 0.08 0 0.095 0.08 0 0.1 0.08 0 0.105 0.08 0 0.11 0.08 0 0.115 0.08 0 0.12 0.08 0 0.125 0.08 0 0.13 0.08 0 0.135 0.08 0 0.14 0.08 0 0.145 0.08 0 0.15 0.08 0 0.155 0.08 0 0.16 0.08 0 0.165 0.08 0
[...]
			<PointData Scalars="VitesseX">
				<DataArray Name="VitesseX" type="Float32" format="ascii">
 0 -3.82979e-15 5.85978e-14 -1.89586e-13 1.01851e-13 2.16201e-14 -8.1122e-14 -9.79689e-14 7.26098e-14 -6.51793e-14 -1.45199e-13 3.16678e-13 -5.98856e-13 6.03573e-13 -4.06163e-13 -2.9002e-14 2.96916e-13 -4.31556e-13 3.98341e-13 -3.27332e-13 1.93959e-14 1.14193e-13 1.95915e-13 1.08437e-14 -4.313e-13 -2.02543e-13 2.9143e-13 -2.95449e-13 6.29318e-14 -2.90214e-13 5.38883e-13 -4.16245e-13 4.08874e-13 -1.73166e-14 -5.5831e-13 4.31433e-13 -6.02862e-13 8.75719e-13 -9.23594e-13 6.03449e-13 -4.35474e-13 4.32884e-13 -3.00921e-16 -6.11201e-13 -1.76309e-13 9.26389e-13 -1.23617e-12 1.33703e-12 -7.38615e-13 1.29222e-13 3.31007e-14 -3.65158e-14 1.59108e-12 -2.46982e-12 7.12424e-13 -3.23148e-13 -1.19188e-12 1.94935e-12 -2.29223e-12 1.06921e-12 8.17787e-13 6.56345e-13 -1.00041e-13 -8.06738e-13 7.88116e-13 8.21171e-14 -1.91595e-13 -4.38894e-13 -1.91182e-12 1.17655e-12 1.12389e-12 -2.30562e-12 1.46921e-12 -8.58249e-13 2.60835e-12 -1.01488e-12 -5.7512e-13 9.26289e-13 -1.34034e-12 1.88487e-12 -2.48776e-12 4.54222e-13 1.15176e-12 -2.18219e-12 4.65744e-13 1.96451e-12 -9.60867e-13 -2.16211e-13 7.78891e-13 -1.40625e-12 3.48628e-12 9.39686e-11 5.69998e-09 2.65709e-07 9.32361e-06 0.000234614 0.00393815 0.0393604 0.20069 0.488954 0.643857 0.913486 0.905325 0.746302 0.517298 0.2931 0.124178 0.0355442 0.00714386 0.00116855 0.00016902 2.215e-05 2.65195e-06 2.91532e-07 2.95453e-08 2.76952e-09 2.39746e-10 1.8723e-11 4.04492e-12 -1.49338e-12 2.79515e-12 -1.70872e-12 -3.39762e-13 2.14137e-12 -2.5885e-12 2.35027e-12 -1.42727e-12 -7.01095e-13 2.28033e-12 -2.5908e-12 2.39699e-12 -1.29274e-12 -6.42982e-13 2.11571e-12 -2.42964e-12 2.07676e-12 -1.55712e-12 -1.05054e-12 7.56107e-13 -2.26696e-12 1.88426e-12 1.4415e-13 -2.85268e-12 3.48095e-12 1.16569e-12 -1.92473e-12 2.67865e-12 -3.60434e-12 2.81105e-12 2.69604e-13 -1.90485e-12 2.55412e-12 -3.53857e-12 3.30834e-12 -2.46597e-12 2.2397e-12 -2.09294e-12 -3.08707e-13 1.21292e-12 -3.351e-13 1.0743e-12 -1.72137e-12 2.54902e-13 6.99121e-13 -1.13703e-12 -5.77244e-14 -7.42642e-13 3.0418e-13 2.13012e-12 -2.23923e-12 2.10284e-12 -3.09284e-14 -2.08739e-12 2.95735e-12 -2.82278e-12 2.13352e-12 -2.71961e-13 -1.7206e-12 2.42207e-12 -2.12352e-12 1.41991e-12 4.34124e-13 -2.4124e-12 2.92469e-12 -2.74637e-12 1.93776e-12 -3.17971e-14 -2.7334e-12 1.83787e-12 -4.2193e-12 1.47968e-12 3.4706e-12 -7.46094e-12 5.07001e-12 4.38663e-13 1.00976e-12 1.98549e-12 -4.80937e-12 4.39298e-12 -1.22217e-12 0 0 -2.08395e-15 -4.62652e-14 5.05004e-14 -1.34492e-13 -6.44109e-15 3.68713e-14 1.3979e-14 -1.23819e-13 -1.34974e-13 1.46397e-13 -1.45367e-13 1.91598e-13 -4.2546e-13 3.19998e-13 -1.44598e-13 -3.06335e-13 3.9792e-13 -3.66872e-13 2.53009e-13 1.01197e-13 -6.6757e-14 -1.48803e-13 8.60693e-14 1.99894e-13 -9.09441e-14 -5.73816e-13 -3.57766e-14 2.51126e-13 8.06786e-14 -2.6321e-13 4.04859e-13 -3.64405e-13 -1.10836e-13 3.87778e-13 -1.71354e-13 3.69801e-14 -7.84317e-13 7.88205e-13 -3.86267e-13 3.53204e-13 -9.31653e-14 -3.97531e-13 1.95361e-13 1.90932e-13 -5.97305e-13 5.51258e-13 -5.59332e-13 6.08278e-13 -7.40503e-16 1.08607e-13 1.03045e-13 -8.67649e-13 8.38849e-13 -1.14565e-12 -5.27682e-13 8.05518e-13 -4.2784e-13 4.1116e-13 -7.16853e-13 4.77148e-13 6.28125e-13 2.21374e-13 2.39394e-13 -4.89477e-13 -1.50382e-14 8.32369e-14 -6.88533e-13 -6.25331e-14 -3.83821e-13 -2.02249e-13 6.38342e-13 -6.77279e-13 1.28261e-12 -7.53123e-13 8.63986e-13 9.6058e-14 -6.20061e-13 6.24335e-13 -1.41821e-12 1.11686e-12 -1.04733e-12 -8.53199e-13 1.43738e-12 -5.26968e-14 -1.21771e-12 1.007e-12 6.61287e-13 -3.31115e-13 7.28855e-13 -1.25097e-13 9.63436e-11 5.70008e-09 2.65709e-07 9.32362e-06 0.000234614 0.00393815 0.0393604 0.20069 0.488954 0.643857 0.913486 0.905325 0.746302 0.517298 0.2931 0.124178 0.0355442 0.00714386 0.00116855 0.00016902 2.215e-05 2.65195e-06 2.91532e-07 2.95429e-08 2.77e-09 2.41217e-10 2.00257e-11 5.38206e-13 1.90851e-12 -1.44488e-12 1.68768e-12 1.66183e-13 -1.42963e-12 1.19248e-12 -1.51344e-12 1.46156e-12 6.02007e-13 -1.87536e-12 1.37965e-12 -1.53572e-12 1.57032e-12 2.38803e-13 -1.50204e-12 1.24757e-12 -1.4394e-12 1.18137e-12 -2.66652e-13 -2.38949e-12 4.56677e-13 4.92649e-14 -9.37402e-13 2.65608e-12 -1.05283e-12 -2.28059e-13 1.6255e-12 -1.34313e-12 2.68262e-12 -1.88026e-12 -5.90872e-13 1.3103e-12 -1.14276e-12 2.48478e-12 -2.54412e-12 1.14727e-12 -1.53022e-12 1.32287e-12 7.91422e-14 -1.22429e-12 -1.39751e-14 6.26311e-14 2.17391e-12 -8.52713e-13 -1.88952e-12 -7.2053e-13 4.59784e-14 1.96297e-12 -3.36816e-13 -1.16226e-12 2.46176e-12 -1.97752e-12 -1.41636e-13 1.85453e-12 -1.65075e-12 2.34274e-12 -2.25247e-12 8.94711e-14 1.51013e-12 -1.2966e-12 1.53504e-12 -1.40861e-12 -6.81465e-13 2.00553e-12 -1.72905e-12 1.90973e-12 -1.99967e-12 -2.38816e-13 1.33207e-12 -2.55952e-12 1.08761e-12 -2.50829e-12 3.57717e-13 3.39524e-12 -3.16536e-12 3.55016e-13 8.06961e-13 4.32289e-13 4.31489e-12 -3.82404e-12 -3.67583e-13 0 0 3.86548e-15 -1.92952e-14 -3.66865e-15 -3.48285e-14 -1.23161e-13 -1.04305e-13 8.81371e-14 -7.11397e-14 -1.42431e-14 -6.38636e-14 -2.22744e-14 -5.55391e-14 -1.3454e-13 -1.97694e-14 -1.44506e-13 1.53213e-14 1.85966e-13 -6.66846e-14 -8.97184e-14 7.08911e-14 -4.77417e-14 2.05702e-13 -9.64307e-14 -1.67972e-13 -7.07708e-14 -3.04106e-14 -7.75521e-16 4.2538e-14 -2.36367e-13 -7.19694e-14 1.811e-13 6.10297e-14 -9.26739e-14 -2.44544e-13 9.49586e-16 1.07499e-13 2.64558e-14 -6.54822e-14 -1.86526e-13 8.61694e-14 2.26037e-13 -3.59481e-13 -2.51871e-13 1.84153e-13 1.31326e-13 2.40956e-13 -3.25292e-13 -1.66993e-13 -2.83541e-13 -1.29085e-13 4.51009e-13 2.22877e-13 -2.68989e-13 -1.3971e-12 -3.72381e-13 9.09306e-13 1.56646e-13 -3.36786e-14 -5.91762e-13 6.00086e-13 6.19875e-13 -1.26812e-13 2.86919e-13 -2.42171e-13 1.83187e-13 3.26319e-14 -7.92639e-13 -2.3219e-13 -7.55066e-14 -1.29292e-13 -2.15043e-13 -7.51233e-13 9.66952e-13 6.58991e-13 -2.59387e-13 -3.96319e-13 -2.61311e-13 6.87438e-13 -3.87031e-13 -7.32267e-13 3.39818e-13 -1.3517e-13 1.78344e-13 -1.03787e-12 1.09383e-12 6.39206e-13 -4.43383e-13 3.28407e-13 2.91023e-13 2.24367e-12 9.53067e-11 5.69841e-09 2.65709e-07 9.32361e-06 0.000234614 0.00393815 0.0393604 0.20069 0.488954 0.643857 0.913486 0.905325 0.746302 0.517298 0.2931 0.124178 0.0355442 0.00714386 0.00116855 0.00016902 2.215e-05 2.65195e-06 2.91532e-07 2.95447e-08 2.76896e-09 2.39954e-10 2.02475e-11 2.03839e-12 -5.15506e-14 3.39955e-13 -8.73672e-13 1.3786e-12 6.78014e-14 -6.55617e-13 3.85994e-14 -9.427e-13 1.34115e-12 -2.89191e-13 -2.9821e-13 3.57827e-14 -8.62333e-13 1.42831e-12 1.03502e-13 -5.55601e-13 2.03791e-13 -9.98328e-13 9.14764e-13 -1.03978e-12 -1.10439e-12 5.36195e-13 1.19143e-13 8.08809e-14 3.78926e-13 5.17984e-13 -6.96266e-13 5.04112e-13 5.97571e-13 -2.97585e-13 4.48785e-13 -1.27764e-12 7.28333e-13 8.89849e-13 -8.03972e-13 -1.73487e-13 3.32156e-13 -9.04723e-13 1.16452e-12 1.80876e-13 4.09135e-13 -5.80069e-13 -1.81349e-12 6.9538e-13 3.11236e-13 1.00509e-13 -6.44738e-13 -8.44028e-13 3.92778e-13 2.62789e-13 3.31829e-13 4.79285e-13 1.81265e-13 2.15531e-13 -6.91298e-13 -2.49954e-13 1.06767e-12 -1.2785e-13 3.85527e-13 -9.13786e-13 -3.7938e-13 8.2364e-13 3.12503e-13 -6.5796e-14 -9.92494e-13 -1.00459e-13 9.01886e-13 -1.90636e-13 -2.35731e-13 -1.76355e-12 -1.08003e-12 1.04224e-12 2.88381e-13 -1.21324e-12 -8.64842e-13 1.85852e-12 6.40221e-13 1.0411e-13 -7.06281e-14 -1.78775e-13 7.39979e-13 0 0 -1.77804e-14 4.17662e-14 -9.36498e-14 -1.67482e-14 -6.31874e-14 -4.54244e-14 2.41497e-14 -1.53909e-13 -1.10444e-13 -1.65609e-13 1.7215e-13 -2.24863e-13 1.97709e-13 -3.57996e-13 -8.14874e-14 3.13427e-13 -2.40879e-13 1.59249e-13 -1.30177e-13 1.11518e-13 -1.87811e-13 5.58717e-14 3.25888e-14 -1.56849e-13 -1.80302e-13 -7.35893e-15 -9.36954e-14 1.27513e-13 -2.15675e-13 1.2862e-13 -8.45679e-14 1.71186e-13 -1.15739e-13 -3.3151e-13 3.00411e-14 -3.4621e-13 6.28628e-13 -6.91432e-13 2.99263e-13 4.37381e-14 2.45721e-13 -1.00806e-13 -3.0477e-13 -2.68057e-13 2.90438e-13 -8.03068e-13 7.80053e-13 -5.12431e-13 -2.93724e-14 -2.72262e-13 -2.87826e-13 1.24214e-12 -9.53742e-13 -9.69292e-13 -4.24168e-13 6.91019e-13 8.93197e-13 -6.7128e-13 -3.95919e-13 5.04855e-13 5.25985e-13 5.03262e-13 5.54128e-13 -5.62608e-13 -1.82536e-13 -2.00995e-13 -2.84399e-13 -5.78582e-13 -8.51543e-13 8.80881e-13 -8.79935e-13 -1.51448e-13 3.29535e-13 1.00047e-12 -1.12366e-12 4.37281e-13 -3.23019e-14 3.26994e-13 4.48806e-13 -2.67152e-12 -2.75253e-13 1.48499e-12 -5.26794e-13 -2.983e-13 1.43999e-12 -5.43269e-13 -1.0583e-14 1.20199e-12 -8.34265e-13 3.57545e-12 9.36949e-11 5.69957e-09 2.6571e-07 9.32361e-06 0.000234614 0.00393815 0.0393604 0.20069 0.488954 0.643857 0.913486 0.905325 0.746302 0.517298 0.2931 0.124178 0.0355442 0.00714386 0.00116855 0.00016902 2.215e-05 2.65195e-06 2.91531e-07 2.9545e-08 2.7689e-09 2.39918e-10 2.021e-11 1.90423e-12 -1.12534e-12 1.92352e-12 -1.77078e-12 1.2455e-12 2.93493e-13 -1.42805e-12 1.6132e-12 -1.83783e-12 1.0298e-12 4.07394e-13 -1.30217e-12 1.60493e-12 -1.73291e-12 1.56058e-12 4.52742e-13 -1.83705e-12 1.62849e-12 -1.91492e-12 8.02141e-13 -5.04502e-13 -1.37049e-12 6.50131e-14 4.9999e-13 -2.50807e-13 2.02057e-13 -2.71499e-14 -1.33862e-12 2.6414e-12 -3.32155e-13 -5.96688e-13 -8.06915e-13 -8.75353e-13 2.88112e-12 -3.10994e-13 2.94428e-13 -1.93119e-12 2.47201e-12 -1.7252e-12 8.32325e-13 -8.18939e-13 -6.50232e-13 1.63856e-12 -8.90752e-13 5.07191e-13 -1.75065e-12 -4.68106e-13 7.64177e-13 -1.09949e-12 1.07696e-12 9.92808e-13 -7.19497e-13 8.73122e-13 -1.26268e-12 -4.88392e-13 2.37689e-12 -1.63297e-12 1.23679e-12 -1.5074e-12 -5.92049e-14 1.96879e-12 -9.54375e-13 3.43949e-14 -1.09172e-12 -6.58628e-13 2.37645e-12 -1.45326e-12 6.94974e-13 -1.21231e-12 -7.54295e-13 7.83856e-13 -2.99406e-12 -5.59864e-13 2.20975e-12 -9.59074e-13 1.79423e-13 -9.93954e-13 -8.0291e-14 2.52758e-12 3.63419e-13 -1.56815e-13 -2.55346e-12 0 0 -1.81874e-14 -6.83109e-15 2.28873e-14 -1.74054e-13 -3.55557e-14 1.61511e-14 -7.78712e-14 -1.59795e-13 -1.9454e-13 7.17123e-14 -2.51021e-13 1.9295e-13 -2.76039e-13 1.11131e-13 -1.12545e-13 5.17658e-14 3.74715e-13 -2.88336e-13 5.20813e-14 -1.98654e-14 -2.58416e-13 -4.27809e-13 1.54915e-13 1.23067e-13 -1.6543e-13 -4.83802e-13 9.29591e-14 1.6567e-13 1.57464e-13 -1.94321e-13 2.29967e-13 -2.64902e-13 -1.27021e-13 2.09447e-13 -4.12181e-14 2.71143e-13 -1.61959e-13 3.57278e-13 -6.17897e-13 1.21594e-13 -3.15846e-13 -1.97282e-13 1.12203e-13 -5.91419e-14 -4.39081e-13 1.18469e-13 -2.51368e-13 1.17812e-13 2.79554e-14 3.56026e-14 1.29347e-13 -1.69426e-13 4.10058e-13 -1.2204e-12 -5.99041e-13 6.9765e-13 1.72222e-14 3.79946e-13 -5.18316e-13 4.93131e-13 3.66699e-13 7.20387e-13 3.22017e-13 -6.08353e-13 -2.6607e-13 -1.37374e-13 -4.6702e-13 -3.15814e-13 -8.37896e-13 1.80612e-13 4.32163e-13 -2.10293e-13 1.84874e-12 -5.46509e-13 4.60254e-14 -6.45409e-13 -9.11886e-13 2.21875e-13 -8.025e-13 9.81093e-14 -2.92351e-12 2.47732e-13 1.68439e-12 3.55123e-13 -1.91337e-12 2.23408e-13 1.32306e-12 -3.1539e-13 1.21086e-12 3.66886e-13 9.53296e-11 5.70155e-09 2.65708e-07 9.32361e-06 0.000234614 0.00393815 0.0393604 0.20069 0.488954 0.643857 0.913486 0.905325 0.746302 0.517298 0.2931 0.124178 0.0355442 0.00714386 0.00116855 0.00016902 2.215e-05 2.65195e-06 2.91532e-07 2.9543e-08 2.77009e-09 2.4127e-10 1.95259e-11 7.42393e-13 1.84103e-12 -1.36016e-12 1.76099e-12 -9.7324e-13 -1.05987e-12 1.77708e-12 -1.46688e-12 1.39032e-12 -4.13416e-13 -1.00586e-12 1.51644e-12 -1.49564e-12 1.5446e-12 -4.85792e-13 -9.8609e-13 1.39927e-12 -1.3832e-12 1.10133e-12 -1.0931e-12 -2.05786e-12 1.04553e-12 -1.1112e-12 -1.29334e-12 3.07954e-12 -1.58883e-12 -1.20602e-12 2.08494e-12 -1.1047e-12 3.83025e-12 -2.17708e-12 -6.76647e-13 1.59234e-12 -2.17946e-12 1.82814e-12 -2.41156e-12 1.41109e-12 -8.72565e-13 2.38541e-12 -6.91326e-13 -1.62902e-12 -1.19832e-12 6.97835e-13 3.59791e-12 -3.14675e-12 -2.73161e-12 -3.75861e-13 6.53426e-13 1.70605e-12 -3.34485e-12 2.38209e-13 4.61262e-12 -2.07413e-12 -1.59417e-12 1.25625e-12 8.0643e-13 3.32989e-12 -4.09643e-12 -7.55844e-13 8.95905e-13 5.03538e-13 3.22027e-12 -3.18571e-12 -2.43011e-12 1.44878e-12 9.93289e-13 3.15084e-12 -4.08463e-12 -7.10994e-13 8.15544e-13 -9.73658e-13 7.34757e-13 -6.1175e-12 1.34377e-12 6.51813e-12 -3.52527e-12 -1.76148e-12 4.68238e-13 1.91158e-12 6.40528e-12 -5.2125e-12 -2.86371e-12 0 0 7.25506e-15 1.5343e-14 -6.48493e-14 -1.34333e-14 -1.56557e-13 -2.40323e-13 -1.53695e-13 1.66197e-13 8.09132e-15 -9.10769e-14 -2.8348e-13 -2.57503e-13 2.37916e-13 -1.47444e-13 -9.09325e-14 4.16908e-13 3.75725e-13 1.03546e-13 -6.4827e-13 -3.03983e-13 1.10138e-14 -6.24369e-14 -1.09504e-13 -6.072e-13 -1.32453e-13 4.25355e-13 1.47862e-13 -2.7793e-13 -1.78028e-13 2.75481e-13 -2.34693e-13 3.87567e-13 -3.55645e-15 -7.41041e-13 6.33523e-13 7.72882e-13 9.1609e-13 -5.33547e-13 -8.31388e-13 -8.13831e-13 -5.18447e-14 -1.17151e-13 -6.71718e-13 2.27963e-13 9.24611e-13 -1.37048e-14 -2.57736e-13 -1.02867e-12 -3.21724e-13 1.73447e-13 1.49376e-12 9.4899e-13 -1.95789e-12 -2.92683e-13 -3.62292e-13 -9.71045e-13 1.36637e-12 -1.07945e-12 1.07459e-12 1.04021e-12 3.21273e-13 -3.62161e-13 -1.17591e-12 1.19124e-12 3.11501e-13 -1.65562e-13 -1.01235e-12 -1.7256e-12 1.82047e-12 -1.30736e-13 -1.3882e-12 1.20361e-12 1.54885e-12 2.33862e-12 -9.22257e-13 -3.72525e-12 -1.1538e-13 -1.42437e-12 1.44461e-12 -6.46753e-13 -2.06801e-12 1.13301e-13 -2.77894e-13 -1.97755e-13 -1.19142e-13 -1.63099e-13 2.41736e-13 -9.36823e-13 1.80835e-12 1.80669e-12 9.51642e-11 5.7006e-09 2.65707e-07 9.32362e-06 0.000234614 0.00393815 0.0393604 0.20069 0.488954 0.643857 0.913486 0.905325 0.746302 0.517298 0.2931 0.124178 0.0355442 0.00714386 0.00116855 0.00016902 2.215e-05 2.65195e-06 2.91534e-07 2.95448e-08 2.76981e-09 2.39924e-10 1.77985e-11 4.7216e-12 5.19236e-13 -2.0255e-13 2.32105e-13 -2.3524e-12 2.42951e-12 1.25556e-13 -7.05815e-13 2.2052e-13 -2.10925e-12 2.62616e-12 -3.09311e-13 -6.61149e-13 3.96968e-13 -2.35672e-12 2.44913e-12 4.36666e-13 -6.60228e-13 1.16005e-13 -2.47819e-12 3.48818e-13 -5.57046e-13 5.05699e-13 -1.32942e-12 -1.34239e-12 2.76268e-12 3.00047e-13 2.78858e-13 -1.11908e-12 5.50372e-13 2.8156e-12 2.60945e-12 -2.14534e-12 -3.82485e-12 -2.45017e-12 1.37667e-12 1.57706e-12 -7.24688e-13 1.67309e-12 -1.18526e-12 2.40308e-12 -5.85058e-13 -2.09256e-12 -7.18853e-13 -3.95679e-12 3.13872e-12 6.89543e-13 -1.66066e-12 -7.45548e-13 -7.08025e-12 3.47102e-12 4.16515e-12 1.12195e-12 -4.80904e-14 -1.8761e-12 1.73533e-12 1.91754e-12 -1.89265e-12 7.96512e-13 -2.05958e-12 2.57206e-13 2.39693e-12 -5.55813e-13 -2.54727e-13 -2.34023e-12 1.63148e-12 2.44143e-12 -1.81834e-12 1.06718e-12 -2.72932e-12 -8.5222e-14 -1.09694e-12 -2.53454e-12 1.59997e-12 -1.72349e-12 2.26166e-12 1.91061e-12 1.77334e-12 9.71348e-14 -1.49667e-12 1.57214e-12 3.72465e-13 0
				</DataArray>
				<DataArray Name="VitesseY" type="Float32" format="ascii">