<?xml version="1.0"?>
<VTKFile type="PolyData">
	<PolyData>
		<Piece NumberOfPoints="1206" NumberOfPolys="1000">
			<Points>
				<DataArray type="Float32" NumberOfComponents="3" format="ascii">
 0 0 0 0.005 0 0 0.01 0 0 0.015 0 0 0.02 0 0 0.025 0 0 0.03 0 0 0.035 0 0 0.04 0 0 0.045 0 0 0.05 0 0 0.055 0 0 0.06 0 0 0.065 0 0 0.07 0 0 0.075 0 0 0.08 0 0 0.085 0 0 0.09 0 0 0.095 0 0 0.1 0 0 0.105 0 0 0.11 0 0 0.115 0 0 0.12 0 0 0.125 0 0 0.13 0 0 0.135 0 0 0.14 0 0 0.145 0 0 0.15 0 0 0.155 0 0 0.16 0 0 0.165 0 0 0.17 0 0 0.175 0 0 0.18 0 0 0.185 0 0 0.19 0 0 0.195 0 0 0.2 0 0 0.205 0 0 0.21 0 0 0.215 0 0 0.22 0 0 0.225 0 0 0.23 0 0 0.235 0 0 0.24 0 0 0.245 0 0 0.25 0 0 0.255 0 0 0.26 0 0 0.265 0 0 0.27 0 0 0.275 0 0 0.28 0 0 0.285 0 0 0.29 0 0 0.295 0 0 0.3 0 0 0.305 0 0 0.31 0 0 0.315 0 0 0.32 0 0 0.325 0 0 0.33 0 0 0.335 0 0 0.34 0 0 0.345 0 0 0.35 0 0 0.355 0 0 0.36 0 0 0.365 0 0 0.37 0 0 0.375 0 0 0.38 0 0 0.385 0 0 0.39 0 0 0.395 0 0 0.4 0 0 0.405 0 0 0.41 0 0 0.415 0 0 0.42 0 0 0.425 0 0 0.43 0 0 0.435 0 0 0.44 0 0 0.445 0 0 0.45 0 0 0.455 0 0 0.46 0 0 0.465 0 0 0.47 0 0 0.475 0 0 0.48 0 0 0.485 0 0 0.49 0 0 0.495 0 0 0.5 0 0 0.505 0 0 0.51 0 0 0.515 0 0 0.52 0 0 0.525 0 0 0.53 0 0 0.535 0 0 0.54 0 0 0.545 0 0 0.55 0 0 0.555 0 0 0.56 0 0 0.565 0 0 0.57 0 0 0.575 0 0 0.58 0 0 0.585 0 0 0.59 0 0 0.595 0 0 0.6 0 0 0.605 0 0 0.61 0 0 0.615 0 0 0.62 0 0 0.625 0 0 0.63 0 0 0.635 0 0 0.64 0 0 0.645 0 0 0.65 0 0 0.655 0 0 0.66 0 0 0.665 0 0 0.67 0 0 0.675 0 0 0.68 0 0 0.685 0 0 0.69 0 0 0.695 0 0 0.7 0 0 0.705 0 0 0.71 0 0 0.715 0 0 0.72 0 0 0.725 0 0 0.73 0 0 0.735 0 0 0.74 0 0 0.745 0 0 0.75 0 0 0.755 0 0 0.76 0 0 0.765 0 0 0.77 0 0 0.775 0 0 0.78 0 0 0.785 0 0 0.79 0 0 0.795 0 0 0.8 0 0 0.805 0 0 0.81 0 0 0.815 0 0 0.82 0 0 0.825 0 0 0.83 0 0 0.835 0 0 0.84 0 0 0.845 0 0 0.85 0 0 0.855 0 0 0.86 0 0 0.865 0 0 0.87 0 0 0.875 0 0 0.88 0 0 0.885 0 0 0.89 0 0 0.895 0 0 0.9 0 0 0.905 0 0 0.91 0 0 0.915 0 0 0.92 0 0 0.925 0 0 0.93 0 0 0.935 0 0 0.94 0 0 0.945 0 0 0.95 0 0 0.955 0 0 0.96 0 0 0.965 0 0 0.97 0 0 0.975 0 0 0.98 0 0 0.985 0 0 0.99 0 0 0.995 0 0 1 0 0 0 0.02 0 0.005 0.02 0 0.01 0.02 0 0.015 0.02 0 0.02 0.02 0 0.025 0.02 0 0.03 0.02 0 0.035 0.02 0 0.04 0.02 0 0.045 0.02 0 0.05 0.02 0 0.055 0.02 0 0.06 0.02 0 0.065 0.02 0 0.07 0.02 0 0.075 0.02 0 0.08 0.02 0 0.085 0.02 0 0.09 0.02 0 0.095 0.02 0 0.1 0.02 0 0.105 0.02 0 0.11 0.02 0 0.115 0.02 0 0.12 0.02 0 0.125 0.02 0 0.13 0.02 0 0.135 0.02 0 0.14 0.02 0 0.145 0.02 0 0.15 0.02 0 0.155 0.02 0 0.16 0.02 0 0.165 0.02 0 0.17 0.02 0 0.175 0.02 0 0.18 0.02 0 0.185 0.02 0 0.19 0.02 0 0.195 0.02 0 0.2 0.02 0 0.205 0.02 0 0.21 0.02 0 0.215 0.02 0 0.22 0.02 0 0.225 0.02 0 0.23 0.02 0 0.235 0.02 0 0.24 0.02 0 0.245 0.02 0 0.25 0.02 0 0.255 0.02 0 0.26 0.02 0 0.265 0.02 0 0.27 0.02 0 0.275 0.02 0 0.28 0.02 0 0.285 0.02 0 0.29 0.02 0 0.295 0.02 0 0.3 0.02 0 0.305 0.02 0 0.31 0.02 0 0.315 0.02 0 0.32 0.02 0 0.325 0.02 0 0.33 0.02 0 0.335 0.02 0 0.34 0.02 0 0.345 0.02 0 0.35 0.02 0 0.355 0.02 0 0.36 0.02 0 0.365 0.02 0 0.37 0.02 0 0.375 0.02 0 0.38 0.02 0 0.385 0.02 0 0.39 0.02 0 0.395 0.02 0 0.4 0.02 0 0.405 0.02 0 0.41 0.02 0 0.415 0.02 0 0.42 0.02 0 0.425 0.02 0 0.43 0.02 0 0.435 0.02 0 0.44 0.02 0 0.445 0.02 0 0.45 0.02 0 0.455 0.02 0 0.46 0.02 0 0.465 0.02 0 0.47 0.02 0 0.475 0.02 0 0.48 0.02 0 0.485 0.02 0 0.49 0.02 0 0.495 0.02 0 0.5 0.02 0 0.505 0.02 0 0.51 0.02 0 0.515 0.02 0 0.52 0.02 0 0.525 0.02 0 0.53 0.02 0 0.535 0.02 0 0.54 0.02 0 0.545 0.02 0 0.55 0.02 0 0.555 0.02 0 0.56 0.02 0 0.565 0.02 0 0.57 0.02 0 0.575 0.02 0 0.58 0.02 0 0.585 0.02 0 0.59 0.02 0 0.595 0.02 0 0.6 0.02 0 0.605 0.02 0 0.61 0.02 0 0.615 0.02 0 0.62 0.02 0 0.625 0.02 0 0.63 0.02 0 0.635 0.02 0 0.64 0.02 0 0.645 0.02 0 0.65 0.02 0 0.655 0.02 0 0.66 0.02 0 0.665 0.02 0 0.67 0.02 0 0.675 0.02 0 0.68 0.02 0 0.685 0.02 0 0.69 0.02 0 0.695 0.02 0 0.7 0.02 0 0.705 0.02 0 0.71 0.02 0 0.715 0.02 0 0.72 0.02 0 0.725 0.02 0 0.73 0.02 0 0.735 0.02 0 0.74 0.02 0 0.745 0.02 0 0.75 0.02 0 0.755 0.02 0 0.76 0.02 0 0.765 0.02 0 0.77 0.02 0 0.775 0.02 0 0.78 0.02 0 0.785 0.02 0 0.79 0.02 0 0.795 0.02 0 0.8 0.02 0 0.805 0.02 0 0.81 0.02 0 0.815 0.02 0 0.82 0.02 0 0.825 0.02 0 0.83 0.02 0 0.835 0.02 0 0.84 0.02 0 0.845 0.02 0 0.85 0.02 0 0.855 0.02 0 0.86 0.02 0 0.865 0.02 0 0.87 0.02 0 0.875 0.02 0 0.88 0.02 0 0.885 0.02 0 0.89 0.02 0 0.895 0.02 0 0.9 0.02 0 0.905 0.02 0 0.91 0.02 0 0.915 0.02 0 0.92 0.02 0 0.925 0.02 0 0.93 0.02 0 0.935 0.02 0 0.94 0.02 0 0.945 0.02 0 0.95 0.02 0 0.955 0.02 0 0.96 0.02 0 0.965 0.02 0 0.97 0.02 0 0.975 0.02 0 0.98 0.02 0 0.985 0.02 0 0.99 0.02 0 0.995 0.02 0 1 0.02 0 0 0.04 0 0.005 0.04 0 0.01 0.04 0 0.015 0.04 0 0.02 0.04 0 0.025 0.04 0 0.03 0.04 0 0.035 0.04 0 0.04 0.04 0 0.045 0.04 0 0.05 0.04 0 0.055 0.04 0 0.06 0.04 0 0.065 0.04 0 0.07 0.04 0 0.075 0.04 0 0.08 0.04 0 0.085 0.04 0 0.09 0.04 0 0.095 0.04 0 0.1 0.04 0 0.105 0.04 0 0.11 0.04 0 0.115 0.04 0 0.12 0.04 0 0.125 0.04 0 0.13 0.04 0 0.135 0.04 0 0.14 0.04 0 0.145 0.04 0 0.15 0.04 0 0.155 0.04 0 0.16 0.04 0 0.165 0.04 0 0.17 0.04 0 0.175 0.04 0 0.18 0.04 0 0.185 0.04 0 0.19 0.04 0 0.195 0.04 0 0.2 0.04 0 0.205 0.04 0 0.21 0.04 0 0.215 0.04 0 0.22 0.04 0 0.225 0.04 0 0.23 0.04 0 0.235 0.04 0 0.24 0.04 0 0.245 0.04 0 0.25 0.04 0 0.255 0.04 0 0.26 0.04 0 0.265 0.04 0 0.27 0.04 0 0.275 0.04 0 0.28 0.04 0 0.285 0.04 0 0.29 0.04 0 0.295 0.04 0 0.3 0.04 0 0.305 0.04 0 0.31 0.04 0 0.315 0.04 0 0.32 0.04 0 0.325 0.04 0 0.33 0.04 0 0.335 0.04 0 0.34 0.04 0 0.345 0.04 0 0.35 0.04 0 0.355 0.04 0 0.36 0.04 0 0.365 0.04 0 0.37 0.04 0 0.375 0.04 0 0.38 0.04 0 0.385 0.04 0 0.39 0.04 0 0.395 0.04 0 0.4 0.04 0 0.405 0.04 0 0.41 0.04 0 0.415 0.04 0 0.42 0.04 0 0.425 0.04 0 0.43 0.04 0 0.435 0.04 0 0.44 0.04 0 0.445 0.04 0 0.45 0.04 0 0.455 0.04 0 0.46 0.04 0 0.465 0.04 0 0.47 0.04 0 0.475 0.04 0 0.48 0.04 0 0.485 0.04 0 0.49 0.04 0 0.495 0.04 0 0.5 0.04 0 0.505 0.04 0 0.51 0.04 0 0.515 0.04 0 0.52 0.04 0 0.525 0.04 0 0.53 0.04 0 0.535 0.04 0 0.54 0.04 0 0.545 0.04 0 0.55 0.04 0 0.555 0.04 0 0.56 0.04 0 0.565 0.04 0 0.57 0.04 0 0.575 0.04 0 0.58 0.04 0 0.585 0.04 0 0.59 0.04 0 0.595 0.04 0 0.6 0.04 0 0.605 0.04 0 0.61 0.04 0 0.615 0.04 0 0.62 0.04 0 0.625 0.04 0 0.63 0.04 0 0.635 0.04 0 0.64 0.04 0 0.645 0.04 0 0.65 0.04 0 0.655 0.04 0 0.66 0.04 0 0.665 0.04 0 0.67 0.04 0 0.675 0.04 0 0.68 0.04 0 0.685 0.04 0 0.69 0.04 0 0.695 0.04 0 0.7 0.04 0 0.705 0.04 0 0.71 0.04 0 0.715 0.04 0 0.72 0.04 0 0.725 0.04 0 0.73 0.04 0 0.735 0.04 0 0.74 0.04 0 0.745 0.04 0 0.75 0.04 0 0.755 0.04 0 0.76 0.04 0 0.765 0.04 0 0.77 0.04 0 0.775 0.04 0 0.78 0.04 0 0.785 0.04 0 0.79 0.04 0 0.795 0.04 0 0.8 0.04 0 0.805 0.04 0 0.81 0.04 0 0.815 0.04 0 0.82 0.04 0 0.825 0.04 0 0.83 0.04 0 0.835 0.04 0 0.84 0.04 0 0.845 0.04 0 0.85 0.04 0 0.855 0.04 0 0.86 0.04 0 0.865 0.04 0 0.87 0.04 0 0.875 0.04 0 0.88 0.04 0 0.885 0.04 0 0.89 0.04 0 0.895 0.04 0 0.9 0.04 0 0.905 0.04 0 0.91 0.04 0 0.915 0.04 0 0.92 0.04 0 0.925 0.04 0 0.93 0.04 0 0.935 0.04 0 0.94 0.04 0 0.945 0.04 0 0.95 0.04 0 0.955 0.04 0 0.96 0.04 0 0.965 0.04 0 0.97 0.04 0 0.975 0.04 0 0.98 0.04 0 0.985 0.04 0 0.99 0.04 0 0.995 0.04 0 1 0.04 0 0 0.06 0 0.005 0.06 0 0.01 0.06 0 0.015 0.06 0 0.02 0.06 0 0.025 0.06 0 0.03 0.06 0 0.035 0.06 0 0.04 0.06 0 0.045 0.06 0 0.05 0.06 0 0.055 0.06 0 0.06 0.06 0 0.065 0.06 0 0.07 0.06 0 0.075 0.06 0 0.08 0.06 0 0.085 0.06 0 0.09 0.06 0 0.095 0.06 0 0.1 0.06 0 0.105 0.06 0 0.11 0.06 0 0.115 0.06 0 0.12 0.06 0 0.125 0.06 0 0.13 0.06 0 0.135 0.06 0 0.14 0.06 0 0.145 0.06 0 0.15 0.06 0 0.155 0.06 0 0.16 0.06 0 0.165 0.06 0 0.17 0.06 0 0.175 0.06 0 0.18 0.06 0 0.185 0.06 0 0.19 0.06 0 0.195 0.06 0 0.2 0.06 0 0.205 0.06 0 0.21 0.06 0 0.215 0.06 0 0.22 0.06 0 0.225 0.06 0 0.23 0.06 0 0.235 0.06 0 0.24 0.06 0 0.245 0.06 0 0.25 0.06 0 0.255 0.06 0 0.26 0.06 0 0.265 0.06 0 0.27 0.06 0 0.275 0.06 0 0.28 0.06 0 0.285 0.06 0 0.29 0.06 0 0.295 0.06 0 0.3 0.06 0 0.305 0.06 0 0.31 0.06 0 0.315 0.06 0 0.32 0.06 0 0.325 0.06 0 0.33 0.06 0 0.335 0.06 0 0.34 0.06 0 0.345 0.06 0 0.35 0.06 0 0.355 0.06 0 0.36 0.06 0 0.365 0.06 0 0.37 0.06 0 0.375 0.06 0 0.38 0.06 0 0.385 0.06 0 0.39 0.06 0 0.395 0.06 0 0.4 0.06 0 0.405 0.06 0 0.41 0.06 0 0.415 0.06 0 0.42 0.06 0 0.425 0.06 0 0.43 0.06 0 0.435 0.06 0 0.44 0.06 0 0.445 0.06 0 0.45 0.06 0 0.455 0.06 0 0.46 0.06 0 0.465 0.06 0 0.47 0.06 0 0.475 0.06 0 0.48 0.06 0 0.485 0.06 0 0.49 0.06 0 0.495 0.06 0 0.5 0.06 0 0.505 0.06 0 0.51 0.06 0 0.515 0.06 0 0.52 0.06 0 0.525 0.06 0 0.53 0.06 0 0.535 0.06 0 0.54 0.06 0 0.545 0.06 0 0.55 0.06 0 0.555 0.06 0 0.56 0.06 0 0.565 0.06 0 0.57 0.06 0 0.575 0.06 0 0.58 0.06 0 0.585 0.06 0 0.59 0.06 0 0.595 0.06 0 0.6 0.06 0 0.605 0.06 0 0.61 0.06 0 0.615 0.06 0 0.62 0.06 0 0.625 0.06 0 0.63 0.06 0 0.635 0.06 0 0.64 0.06 0 0.645 0.06 0 0.65 0.06 0 0.655 0.06 0 0.66 0.06 0 0.665 0.06 0 0.67 0.06 0 0.675 0.06 0 0.68 0.06 0 0.685 0.06 0 0.69 0.06 0 0.695 0.06 0 0.7 0.06 0 0.705 0.06 0 0.71 0.06 0 0.715 0.06 0 0.72 0.06 0 0.725 0.06 0 0.73 0.06 0 0.735 0.06 0 0.74 0.06 0 0.745 0.06 0 0.75 0.06 0 0.755 0.06 0 0.76 0.06 0 0.765 0.06 0 0.77 0.06 0 0.775 0.06 0 0.78 0.06 0 0.785 0.06 0 0.79 0.06 0 0.795 0.06 0 0.8 0.06 0 0.805 0.06 0 0.81 0.06 0 0.815 0.06 0 0.82 0.06 0 0.825 0.06 0 0.83 0.06 0 0.835 0.06 0 0.84 0.06 0 0.845 0.06 0 0.85 0.06 0 0.855 0.06 0 0.86 0.06 0 0.865 0.06 0 0.87 0.06 0 0.875 0.06 0 0.88 0.06 0 0.885 0.06 0 0.89 0.06 0 0.895 0.06 0 0.9 0.06 0 0.905 0.06 0 0.91 0.06 0 0.915 0.06 0 0.92 0.06 0 0.925 0.06 0 0.93 0.06 0 0.935 0.06 0 0.94 0.06 0 0.945 0.06 0 0.95 0.06 0 0.955 0.06 0 0.96 0.06 0 0.965 0.06 0 0.97 0.06 0 0.975 0.06 0 0.98 0.06 0 0.985 0.06 0 0.99 0.06 0 0.995 0.06 0 1 0.06 0 0 0.08 0 0.005 0.08 0 0.01 0.08 0 0.015 0.08 0 0.02 0.08 0 0.025 0.08 0 0.03 0.08 0 0.035 0.08 0 0.04 0.08 0 0.045 0.08 0 0.05 0.08 0 0.055 0.08 0 0.06 0.08 0 0.065 0.08 0 0.07 0.08 0 0.075 0.08 0 0.08 0.08 0 0.085 0.08 0 0.09 0.08 0 0.095 0.08 0 0.1 0.08 0 0.105 0.08 0 0.11 0.08 0 0.115 0.08 0 0.12 0.08 0 0.125 0.08 0 0.13 0.08 0 0.135 0.08 0 0.14 0.08 0 0.145 0.08 0 0.15 0.08 0 0.155 0.08 0 0.16 0.08 0 0.165 0.08 0
[...]
			<PointData Scalars="VitesseX">
				<DataArray Name="VitesseX" type="Float32" format="ascii">
 0 -6.29009e-15 -9.28881e-15 7.52974e-14 -1.44767e-13 -5.11885e-14 4.41676e-14 -1.81745e-14 -1.20152e-13 -1.82269e-14 6.52888e-14 -1.88504e-13 1.79288e-13 -3.9239e-13 1.82744e-13 -8.49781e-14 -2.48262e-13 3.00248e-13 -2.45959e-13 1.26118e-13 -2.65811e-14 -1.33649e-13 -3.20736e-13 1.49361e-13 4.36309e-13 9.58311e-14 -3.79549e-13 1.74241e-14 1.6726e-14 5.56022e-14 -3.22692e-13 4.06437e-13 -4.30859e-13 -3.70262e-13 3.94281e-13 -1.85451e-13 2.1622e-13 -6.62249e-13 7.46265e-13 -5.11752e-13 9.29875e-14 -3.08886e-13 -6.02828e-14 5.64563e-13 1.8516e-13 -5.57025e-13 2.44129e-13 -6.28855e-13 1.72178e-13 -1.72071e-13 9.6255e-14 -3.329e-13 -1.17012e-12 1.59718e-12 -2.90111e-13 -7.40561e-14 6.21312e-13 -7.68197e-13 1.08554e-12 -6.353e-13 -5.05109e-13 -2.57886e-13 -3.66609e-14 2.30028e-13 -6.14525e-13 8.59934e-14 2.55698e-13 3.64616e-13 8.447e-13 -8.37818e-13 -4.88877e-13 9.89428e-13 -5.40205e-13 3.09088e-13 -1.95788e-12 5.01057e-13 4.61128e-13 -6.23684e-13 6.62415e-13 -1.09644e-12 2.06919e-12 -8.27853e-13 -2.52831e-13 1.86557e-11 3.50063e-10 6.55136e-09 1.06018e-07 1.46075e-06 1.68643e-05 0.000159731 0.00120686 0.00700232 0.0297347 0.0885302 0.185719 0.299479 0.4151 0.520585 0.613302 0.699277 0.773592 0.832878 0.884116 0.918663 0.95196 1.00187 0.99688 0.956096 0.89566 0.81873 0.715295 0.580723 0.4244 0.269187 0.143064 0.0615686 0.0215941 0.00653878 0.00181265 0.000473904 0.000118084 2.8134e-05 6.41655e-06 1.40177e-06 2.93501e-07 5.89307e-08 1.13564e-08 2.10115e-09 3.7212e-10 6.50632e-11 8.72047e-12 2.80664e-12 1.37239e-15 -1.64697e-12 1.16121e-12 -2.23366e-12 1.94405e-12 2.7357e-13 -1.75874e-12 1.55496e-12 -7.14692e-13 -5.79888e-13 2.66954e-12 -2.05809e-12 -1.51839e-12 1.76271e-12 -1.60833e-12 3.13804e-12 -1.18323e-12 -4.68215e-13 1.5099e-12 -1.67893e-12 2.6937e-12 -1.98074e-12 1.32517e-12 -2.23619e-12 2.11317e-12 -1.06133e-13 -8.78197e-13 -3.38839e-13 -1.13909e-12 1.46933e-12 -4.73359e-13 -8.39236e-13 5.77068e-13 -2.3795e-13 8.47829e-13 -5.50407e-13 -1.66294e-12 2.43311e-12 -1.23141e-12 1.85242e-13 1.74202e-12 -1.99075e-12 1.89232e-12 -1.50071e-12 7.84011e-13 8.85714e-13 -1.89429e-12 1.6626e-12 -9.33278e-13 -4.94534e-13 1.5815e-12 -3.07317e-12 1.49575e-12 -2.02054e-12 -7.7058e-14 1.33152e-12 -1.72175e-12 3.34003e-12 -1.99178e-12 -1.62051e-12 4.43623e-12 -3.20074e-12 -1.19633e-12 -1.17065e-13 -9.90623e-13 3.7312e-12 -3.09082e-12 1.32709e-12 0 0 9.43695e-15 1.21067e-14 -8.72689e-14 6.24194e-14 -3.80926e-14 -9.0649e-14 -7.52522e-14 1.55233e-14 -4.43636e-14 -1.29807e-13 6.8732e-14 -2.38782e-13 1.98528e-13 -2.43893e-13 2.53444e-14 1.43673e-13 -2.03138e-13 1.74256e-13 -2.44503e-13 -1.49951e-13 -3.05856e-14 8.93102e-14 -2.83471e-14 -1.12121e-13 8.53447e-14 2.94764e-13 -1.91125e-13 -1.83282e-13 -1.75116e-13 2.74314e-13 -3.13122e-13 1.51463e-13 -5.81371e-14 -4.88366e-13 1.7299e-13 -1.59531e-13 4.92017e-13 -4.89191e-13 1.73596e-13 -3.84893e-13 8.60513e-14 1.66969e-13 -1.78947e-13 -6.77e-14 2.35657e-13 -4.21043e-13 1.83881e-13 -4.54981e-13 -2.0163e-13 -3.72857e-13 -4.67288e-14 8.32847e-13 -9.2896e-13 5.54071e-13 1.49666e-13 -3.39164e-13 6.67668e-13 -7.95781e-13 4.48479e-13 1.39181e-14 -1.1296e-13 -4.37223e-13 -4.41956e-13 3.53934e-13 3.43527e-14 2.63039e-13 1.8458e-13 -5.83819e-13 6.74081e-13 1.08827e-13 -7.61841e-13 1.35121e-13 -8.22042e-13 6.42783e-13 -7.49997e-13 -7.14575e-13 5.89773e-13 -1.87965e-13 1.00075e-12 -1.14071e-12 1.16068e-12 1.70042e-12 1.49543e-11 3.49985e-10 6.55588e-09 1.06016e-07 1.46075e-06 1.68643e-05 0.000159731 0.00120686 0.00700232 0.0297347 0.0885302 0.185719 0.299479 0.4151 0.520585 0.613302 0.699277 0.773592 0.832878 0.884116 0.918663 0.95196 1.00187 0.99688 0.956096 0.89566 0.81873 0.715295 0.580723 0.4244 0.269187 0.143064 0.0615686 0.0215941 0.00653878 0.00181265 0.000473904 0.000118084 2.8134e-05 6.41655e-06 1.40178e-06 2.93499e-07 5.89332e-08 1.13542e-08 2.10052e-09 3.74546e-10 6.29392e-11 1.11793e-11 4.92813e-13 -3.21784e-13 6.96756e-13 -1.56849e-12 1.01153e-12 -8.34804e-13 -3.63835e-14 1.30027e-12 -1.11467e-12 5.98992e-13 3.50771e-13 -2.06933e-12 1.51012e-12 -1.10123e-14 -1.23721e-12 1.51732e-12 -1.52452e-12 1.97089e-12 4.06551e-13 -1.16667e-12 1.55792e-12 -1.73332e-12 1.72078e-12 -1.11672e-12 1.34532e-12 -1.07838e-12 -2.20803e-13 3.74883e-13 -1.71134e-13 7.14757e-14 -1.3556e-12 -6.06459e-14 1.20346e-12 -1.9029e-13 -3.0194e-13 -1.00252e-12 2.94998e-13 1.22202e-12 -1.6914e-12 1.25342e-12 3.75568e-13 -1.17131e-12 1.59523e-12 -1.02724e-12 1.33068e-12 -2.69725e-13 -1.10971e-12 1.42352e-12 -1.10684e-12 8.93015e-13 -5.31277e-14 -1.73431e-12 7.82611e-13 -1.90935e-12 6.80687e-13 -2.18443e-13 -1.43846e-12 1.49224e-12 -1.75652e-12 2.01705e-12 6.77293e-13 -3.81414e-12 2.23016e-12 1.22969e-13 -6.70265e-13 1.77221e-13 -2.71148e-12 3.11684e-12 1.62799e-13 0 0 -1.19723e-14 -4.13109e-14 -1.10227e-14 -3.41937e-14 -7.06481e-15 -1.19776e-14 -5.17434e-14 -1.04635e-13 -1.08438e-13 -4.23149e-14 -7.4861e-14 6.82015e-14 -8.96255e-14 1.18009e-14 5.95965e-14 -3.82918e-14 -4.47132e-14 -1.4663e-13 -1.07659e-14 -1.32646e-13 -5.96559e-14 -1.56641e-13 2.75807e-14 9.10145e-14 5.97958e-14 -2.80464e-14 1.77758e-14 -1.05077e-13 -1.03102e-13 -1.46162e-13 2.03918e-14 -9.41884e-14 -1.09262e-13 -2.75206e-15 -1.41549e-13 1.53141e-13 -1.32585e-13 9.27705e-15 -1.46093e-13 -8.38116e-15 -9.889e-14 1.55712e-14 5.19422e-14 -3.53979e-13 -2.85211e-13 3.07947e-14 -2.07504e-13 2.92885e-13 -3.93688e-14 -3.19517e-13 -1.34358e-13 -3.54433e-13 5.54082e-13 2.46468e-13 -1.59633e-13 -1.30571e-14 -5.01643e-13 2.40327e-13 1.14737e-13 1.12531e-13 -5.20065e-16 -3.47499e-13 -2.12899e-13 -1.81276e-13 2.81122e-13 2.46723e-13 -1.82776e-14 -5.04649e-14 -2.81671e-14 -1.2079e-13 1.5245e-13 -3.54908e-13 1.1512e-13 -4.517e-13 -2.41004e-13 -4.05671e-13 -3.35961e-13 3.93291e-13 -9.60833e-14 -1.10543e-14 4.26914e-13 9.33444e-13 1.6488e-11 3.499e-10 6.55465e-09 1.06017e-07 1.46075e-06 1.68643e-05 0.000159731 0.00120686 0.00700232 0.0297347 0.0885302 0.185719 0.299479 0.4151 0.520585 0.613302 0.699277 0.773592 0.832878 0.884116 0.918663 0.95196 1.00187 0.99688 0.956096 0.89566 0.81873 0.715295 0.580723 0.4244 0.269187 0.143064 0.0615686 0.0215941 0.00653878 0.00181265 0.000473904 0.000118084 2.8134e-05 6.41655e-06 1.40177e-06 2.935e-07 5.89323e-08 1.1355e-08 2.10074e-09 3.72927e-10 6.40732e-11 1.03802e-11 1.41828e-12 -3.01035e-13 -5.93499e-13 -1.65535e-13 5.3107e-14 -3.40143e-13 -6.50214e-15 8.10128e-14 1.54762e-13 -2.10801e-13 -4.96743e-13 1.87529e-13 1.49358e-13 2.86333e-13 -2.44614e-13 -3.56355e-14 1.48537e-13 2.12878e-13 2.76161e-13 3.63685e-13 -1.04389e-13 1.26326e-13 -5.5322e-13 6.87162e-13 3.29331e-13 -1.95301e-13 -6.08427e-13 -7.79747e-13 1.97962e-14 4.6673e-13 5.55896e-13 -4.1016e-13 -1.10474e-12 7.75827e-14 4.70454e-13 -1.81353e-13 1.1934e-13 -4.24705e-13 4.92471e-13 3.60583e-14 -6.90355e-13 2.43106e-13 6.06379e-13 1.21831e-12 -6.83315e-13 -8.37161e-13 1.19987e-13 6.62972e-13 4.71511e-13 -6.41609e-13 -8.95785e-13 -4.75046e-13 2.3962e-13 -3.76816e-13 -9.3615e-13 -1.0185e-12 6.44684e-13 5.97972e-13 -7.05282e-13 -2.84607e-13 -9.51055e-13 1.21972e-12 1.24359e-13 2.30066e-13 -1.06202e-12 -5.97415e-13 1.60578e-12 -7.36977e-13 -2.31182e-13 0 0 -3.14789e-14 -2.65622e-14 3.03851e-14 -9.48227e-14 -7.91311e-14 -6.18839e-14 -2.5896e-14 -4.14106e-14 1.27852e-14 1.12961e-14 -8.383e-14 7.58952e-15 -8.94358e-14 8.83565e-14 -9.68792e-14 -1.35802e-13 2.72999e-14 -2.71532e-13 -6.68111e-14 2.75988e-14 -7.55307e-14 -1.01316e-13 -2.32989e-15 1.8813e-13 -1.06043e-14 -1.97452e-13 7.65075e-14 -2.23258e-14 -1.88913e-13 -1.70079e-13 2.70586e-13 -1.88418e-13 -1.27353e-13 2.43514e-13 -5.64054e-14 1.349e-13 -2.20965e-13 1.88397e-13 -4.07328e-13 -1.90682e-13 -2.41275e-13 -6.63003e-14 1.77697e-13 8.02394e-14 -2.4422e-13 1.18484e-13 -2.82884e-13 9.79484e-14 -2.03694e-13 3.19473e-14 -2.17083e-13 -4.43699e-13 7.62364e-13 1.41313e-13 -1.05301e-13 -1.10252e-13 -5.57789e-13 4.99817e-13 -1.67258e-13 -1.36467e-13 -1.68946e-13 -6.02509e-13 -2.70006e-13 -1.16734e-13 3.63782e-13 2.52365e-13 1.80395e-13 7.09377e-13 -4.29909e-13 1.35618e-13 3.25485e-13 -1.76785e-13 1.46094e-13 -9.51865e-13 3.58178e-14 -3.33343e-13 -7.45023e-13 2.64146e-14 -3.99205e-13 1.38388e-12 -3.11631e-13 -9.2034e-15 1.73241e-11 3.49558e-10 6.55305e-09 1.06018e-07 1.46075e-06 1.68643e-05 0.000159731 0.00120686 0.00700232 0.0297347 0.0885302 0.185719 0.299479 0.4151 0.520585 0.613302 0.699277 0.773592 0.832878 0.884116 0.918663 0.95196 1.00187 0.99688 0.956096 0.89566 0.81873 0.715295 0.580723 0.4244 0.269187 0.143064 0.0615686 0.0215941 0.00653878 0.00181265 0.000473904 0.000118084 2.8134e-05 6.41655e-06 1.40177e-06 2.935e-07 5.89316e-08 1.13554e-08 2.10071e-09 3.73052e-10 6.43907e-11 9.76745e-12 1.38927e-12 -3.96535e-13 -2.97055e-13 6.45851e-13 -1.43866e-12 3.20676e-13 -2.23059e-13 -6.83635e-13 1.13924e-12 -6.1603e-13 -9.07948e-13 1.44739e-12 -8.35973e-14 5.30303e-13 8.05438e-13 -1.57509e-12 4.59906e-13 3.66473e-13 8.45799e-13 7.55385e-13 -1.77689e-12 6.49228e-13 -8.22391e-13 1.2413e-12 -1.64881e-12 -1.27399e-13 3.28223e-13 -2.32156e-13 -3.06512e-14 -8.34262e-13 -8.61555e-14 -6.49268e-14 -4.03532e-13 7.95485e-13 -1.97478e-13 -7.21486e-13 -1.12488e-12 -6.67735e-13 1.98564e-12 2.90117e-13 -1.1744e-13 6.63587e-13 -5.95141e-13 7.21608e-13 3.70657e-14 3.40833e-13 2.16879e-13 -1.2278e-12 4.56579e-13 -3.20453e-13 -1.05222e-16 4.29576e-13 -1.87201e-12 -1.78933e-13 -4.19703e-13 -7.67271e-13 9.38469e-13 -1.82986e-13 1.08709e-12 -1.26441e-12 -1.44406e-12 1.9296e-12 3.47277e-13 -9.01293e-14 -7.16754e-13 -1.25467e-12 8.32648e-13 1.65593e-13 1.24522e-12 0 0 -1.18327e-14 7.13402e-15 -8.13303e-14 2.20597e-14 -7.02408e-14 -1.17512e-13 -3.03652e-14 8.5796e-14 1.57178e-14 -8.24769e-14 7.13859e-14 -2.44199e-13 2.59026e-13 -2.33311e-13 -9.59689e-14 -5.3129e-14 -2.71223e-13 9.14518e-14 -3.21296e-13 2.61238e-14 1.47832e-14 1.40468e-13 -7.67576e-14 -1.41799e-13 -6.95027e-14 1.02205e-13 -2.96157e-13 -1.39949e-13 -1.31934e-13 3.06908e-13 -1.2463e-13 3.69317e-13 1.71381e-13 -3.0109e-13 8.63633e-14 -1.8687e-13 3.51957e-13 -5.29486e-13 5.06951e-14 -4.27977e-13 -6.17984e-14 9.46992e-14 -3.28142e-13 -3.42122e-15 2.48266e-13 -4.20435e-13 2.86591e-13 -5.27671e-13 -2.62715e-13 -4.4957e-13 -2.45102e-13 8.61004e-13 -9.00088e-13 4.78982e-13 2.99383e-13 -2.25192e-13 6.73405e-13 -8.93112e-13 2.33102e-14 1.62187e-14 -9.66544e-14 -4.78113e-13 -4.54222e-13 3.09559e-13 8.14738e-14 3.89163e-13 3.48043e-13 2.72957e-14 7.36154e-13 3.2245e-13 -6.18959e-13 8.19257e-14 -9.33233e-13 4.39974e-13 -7.71588e-13 -4.72869e-13 4.32021e-13 -2.66994e-13 6.57844e-13 -8.56766e-13 5.96358e-13 1.34975e-12 1.48484e-11 3.49543e-10 6.55534e-09 1.06017e-07 1.46075e-06 1.68643e-05 0.000159731 0.00120686 0.00700232 0.0297347 0.0885302 0.185719 0.299479 0.4151 0.520585 0.613302 0.699277 0.773592 0.832878 0.884116 0.918663 0.95196 1.00187 0.99688 0.956096 0.89566 0.81873 0.715295 0.580723 0.4244 0.269187 0.143064 0.0615686 0.0215941 0.00653878 0.00181265 0.000473904 0.000118084 2.8134e-05 6.41655e-06 1.40177e-06 2.93499e-07 5.89327e-08 1.13543e-08 2.10087e-09 3.74582e-10 6.29507e-11 1.0708e-11 5.29264e-13 -1.85295e-13 4.37093e-13 -1.16524e-12 9.83439e-14 -7.31107e-13 -5.60501e-14 8.43836e-13 -5.87845e-13 -1.46125e-13 3.94053e-13 -1.33022e-12 1.92946e-12 1.14066e-12 -8.08936e-13 8.73124e-13 -1.18851e-12 1.77355e-12 8.40625e-13 -6.64214e-13 1.12302e-12 -1.88876e-12 1.16039e-12 -1.84035e-12 -3.12697e-13 -1.85207e-12 4.30111e-13 7.02185e-13 -6.95243e-13 -9.55391e-13 -1.3661e-12 2.83e-13 1.12314e-12 -1.95928e-13 -9.40475e-13 -9.03976e-13 4.74359e-13 1.11338e-12 -1.54055e-12 7.83655e-13 6.89288e-13 -6.18473e-13 4.77658e-13 -1.69295e-12 2.25182e-12 8.09855e-13 -7.07611e-13 1.55439e-13 -1.43432e-12 1.23936e-12 7.10684e-13 -1.1357e-12 -2.99839e-13 -3.01911e-12 1.09731e-12 4.67755e-14 -7.03062e-13 1.15376e-12 -1.10526e-12 1.30384e-12 7.46922e-13 -3.74731e-12 2.58228e-12 6.96082e-14 -3.93312e-13 -4.57299e-13 -3.04835e-12 4.21262e-12 1.15728e-12 0 0 -9.81627e-15 -4.87315e-14 4.359e-15 -1.04229e-13 2.86477e-14 9.02543e-14 1.99046e-14 -1.06057e-13 -1.4051e-13 5.27273e-14 -1.65258e-13 2.8968e-13 -2.71773e-13 5.07961e-14 -1.46533e-14 -4.46845e-13 2.00529e-14 -1.61764e-13 8.46221e-14 5.07965e-15 -1.11618e-14 -3.2907e-13 1.12361e-13 1.82721e-13 -7.30633e-14 -4.25854e-13 -3.10103e-13 -6.21094e-14 3.13588e-13 -2.0967e-13 2.83032e-13 1.9331e-13 1.24958e-13 2.76301e-13 -5.28992e-13 1.98024e-13 -7.6561e-13 3.07434e-13 -2.35086e-13 3.71422e-13 -3.19815e-13 -4.10792e-14 1.46651e-14 -5.54719e-13 -6.13791e-13 6.99647e-14 -2.72677e-13 4.1667e-13 3.44089e-14 -7.60101e-13 -5.64197e-13 -9.35278e-13 1.23837e-12 -2.2998e-13 1.16716e-13 1.04365e-12 -6.44432e-13 3.719e-13 -9.21647e-13 -2.51227e-15 1.11578e-13 3.91581e-13 3.19711e-13 -8.32358e-13 1.49149e-14 4.96662e-13 2.94196e-13 5.47245e-13 8.98133e-14 -5.74447e-13 9.29121e-13 -1.00284e-12 2.47588e-14 -1.36317e-12 -9.57691e-14 7.99885e-13 -1.21065e-13 1.23811e-12 -1.17602e-12 -1.52787e-13 -4.794e-13 9.31121e-13 1.67716e-11 3.49864e-10 6.55349e-09 1.06018e-07 1.46075e-06 1.68643e-05 0.000159731 0.00120686 0.00700232 0.0297347 0.0885302 0.185719 0.299479 0.4151 0.520585 0.613302 0.699277 0.773592 0.832878 0.884116 0.918663 0.95196 1.00187 0.99688 0.956096 0.89566 0.81873 0.715295 0.580723 0.4244 0.269187 0.143064 0.0615686 0.0215941 0.00653878 0.00181265 0.000473904 0.000118084 2.8134e-05 6.41656e-06 1.40177e-06 2.93501e-07 5.89311e-08 1.13559e-08 2.10194e-09 3.7194e-10 6.4451e-11 9.00337e-12 2.93755e-12 4.65352e-13 -2.75918e-12 3.44934e-13 -1.0765e-12 8.29801e-13 6.67351e-13 -1.14231e-12 6.39656e-13 -1.39447e-12 3.29086e-13 1.62804e-12 -7.53509e-13 2.97009e-13 5.1915e-13 1.82172e-13 3.18732e-12 -1.88512e-12 -7.39341e-13 1.73142e-12 7.96286e-13 1.33701e-12 -2.56318e-12 -1.23037e-12 -1.59593e-12 4.29985e-13 -6.77605e-13 -1.31878e-12 -1.28616e-12 -5.90844e-13 2.73242e-12 -4.76535e-13 -2.40229e-12 -8.70012e-13 -1.79156e-13 2.12519e-12 2.29675e-12 -1.39415e-12 -2.51529e-13 -2.67906e-12 -3.33149e-13 2.00674e-12 -1.82285e-12 1.55432e-12 -1.09919e-12 5.87181e-13 1.49614e-12 -6.48906e-13 1.03749e-12 -8.82892e-13 -7.58271e-13 9.69471e-13 -1.01481e-12 -1.11955e-12 -2.22019e-12 -4.90781e-14 2.21476e-12 -8.36792e-13 1.05781e-12 -1.45861e-12 -4.95241e-13 3.15014e-12 -2.94234e-12 -6.62666e-13 -2.53681e-13 -9.45156e-13 4.60373e-12 -2.7044e-12 3.63237e-13 0
				</DataArray>
				<DataArray Name="VitesseY" type="Float32" format="ascii">