<?xml version="1.0"?>
<VTKFile type="PolyData">
	<PolyData>
		<Piece NumberOfPoints="1206" NumberOfPolys="1000">
			<Points>
				<DataArray type="Float32" NumberOfComponents="3" format="ascii">
 0 0 0 0.005 0 0 0.01 0 0 0.015 0 0 0.02 0 0 0.025 0 0 0.03 0 0 0.035 0 0 0.04 0 0 0.045 0 0 0.05 0 0 0.055 0 0 0.06 0 0 0.065 0 0 0.07 0 0 0.075 0 0 0.08 0 0 0.085 0 0 0.09 0 0 0.095 0 0 0.1 0 0 0.105 0 0 0.11 0 0 0.115 0 0 0.12 0 0 0.125 0 0 0.13 0 0 0.135 0 0 0.14 0 0 0.145 0 0 0.15 0 0 0.155 0 0 0.16 0 0 0.165 0 0 0.17 0 0 0.175 0 0 0.18 0 0 0.185 0 0 0.19 0 0 0.195 0 0 0.2 0 0 0.205 0 0 0.21 0 0 0.215 0 0 0.22 0 0 0.225 0 0 0.23 0 0 0.235 0 0 0.24 0 0 0.245 0 0 0.25 0 0 0.255 0 0 0.26 0 0 0.265 0 0 0.27 0 0 0.275 0 0 0.28 0 0 0.285 0 0 0.29 0 0 0.295 0 0 0.3 0 0 0.305 0 0 0.31 0 0 0.315 0 0 0.32 0 0 0.325 0 0 0.33 0 0 0.335 0 0 0.34 0 0 0.345 0 0 0.35 0 0 0.355 0 0 0.36 0 0 0.365 0 0 0.37 0 0 0.375 0 0 0.38 0 0 0.385 0 0 0.39 0 0 0.395 0 0 0.4 0 0 0.405 0 0 0.41 0 0 0.415 0 0 0.42 0 0 0.425 0 0 0.43 0 0 0.435 0 0 0.44 0 0 0.445 0 0 0.45 0 0 0.455 0 0 0.46 0 0 0.465 0 0 0.47 0 0 0.475 0 0 0.48 0 0 0.485 0 0 0.49 0 0 0.495 0 0 0.5 0 0 0.505 0 0 0.51 0 0 0.515 0 0 0.52 0 0 0.525 0 0 0.53 0 0 0.535 0 0 0.54 0 0 0.545 0 0 0.55 0 0 0.555 0 0 0.56 0 0 0.565 0 0 0.57 0 0 0.575 0 0 0.58 0 0 0.585 0 0 0.59 0 0 0.595 0 0 0.6 0 0 0.605 0 0 0.61 0 0 0.615 0 0 0.62 0 0 0.625 0 0 0.63 0 0 0.635 0 0 0.64 0 0 0.645 0 0 0.65 0 0 0.655 0 0 0.66 0 0 0.665 0 0 0.67 0 0 0.675 0 0 0.68 0 0 0.685 0 0 0.69 0 0 0.695 0 0 0.7 0 0 0.705 0 0 0.71 0 0 0.715 0 0 0.72 0 0 0.725 0 0 0.73 0 0 0.735 0 0 0.74 0 0 0.745 0 0 0.75 0 0 0.755 0 0 0.76 0 0 0.765 0 0 0.77 0 0 0.775 0 0 0.78 0 0 0.785 0 0 0.79 0 0 0.795 0 0 0.8 0 0 0.805 0 0 0.81 0 0 0.815 0 0 0.82 0 0 0.825 0 0 0.83 0 0 0.835 0 0 0.84 0 0 0.845 0 0 0.85 0 0 0.855 0 0 0.86 0 0 0.865 0 0 0.87 0 0 0.875 0 0 0.88 0 0 0.885 0 0 0.89 0 0 0.895 0 0 0.9 0 0 0.905 0 0 0.91 0 0 0.915 0 0 0.92 0 0 0.925 0 0 0.93 0 0 0.935 0 0 0.94 0 0 0.945 0 0 0.95 0 0 0.955 0 0 0.96 0 0 0.965 0 0 0.97 0 0 0.975 0 0 0.98 0 0 0.985 0 0 0.99 0 0 0.995 0 0 1 0 0 0 0.02 0 0.005 0.02 0 0.01 0.02 0 0.015 0.02 0 0.02 0.02 0 0.025 0.02 0 0.03 0.02 0 0.035 0.02 0 0.04 0.02 0 0.045 0.02 0 0.05 0.02 0 0.055 0.02 0 0.06 0.02 0 0.065 0.02 0 0.07 0.02 0 0.075 0.02 0 0.08 0.02 0 0.085 0.02 0 0.09 0.02 0 0.095 0.02 0 0.1 0.02 0 0.105 0.02 0 0.11 0.02 0 0.115 0.02 0 0.12 0.02 0 0.125 0.02 0 0.13 0.02 0 0.135 0.02 0 0.14 0.02 0 0.145 0.02 0 0.15 0.02 0 0.155 0.02 0 0.16 0.02 0 0.165 0.02 0 0.17 0.02 0 0.175 0.02 0 0.18 0.02 0 0.185 0.02 0 0.19 0.02 0 0.195 0.02 0 0.2 0.02 0 0.205 0.02 0 0.21 0.02 0 0.215 0.02 0 0.22 0.02 0 0.225 0.02 0 0.23 0.02 0 0.235 0.02 0 0.24 0.02 0 0.245 0.02 0 0.25 0.02 0 0.255 0.02 0 0.26 0.02 0 0.265 0.02 0 0.27 0.02 0 0.275 0.02 0 0.28 0.02 0 0.285 0.02 0 0.29 0.02 0 0.295 0.02 0 0.3 0.02 0 0.305 0.02 0 0.31 0.02 0 0.315 0.02 0 0.32 0.02 0 0.325 0.02 0 0.33 0.02 0 0.335 0.02 0 0.34 0.02 0 0.345 0.02 0 0.35 0.02 0 0.355 0.02 0 0.36 0.02 0 0.365 0.02 0 0.37 0.02 0 0.375 0.02 0 0.38 0.02 0 0.385 0.02 0 0.39 0.02 0 0.395 0.02 0 0.4 0.02 0 0.405 0.02 0 0.41 0.02 0 0.415 0.02 0 0.42 0.02 0 0.425 0.02 0 0.43 0.02 0 0.435 0.02 0 0.44 0.02 0 0.445 0.02 0 0.45 0.02 0 0.455 0.02 0 0.46 0.02 0 0.465 0.02 0 0.47 0.02 0 0.475 0.02 0 0.48 0.02 0 0.485 0.02 0 0.49 0.02 0 0.495 0.02 0 0.5 0.02 0 0.505 0.02 0 0.51 0.02 0 0.515 0.02 0 0.52 0.02 0 0.525 0.02 0 0.53 0.02 0 0.535 0.02 0 0.54 0.02 0 0.545 0.02 0 0.55 0.02 0 0.555 0.02 0 0.56 0.02 0 0.565 0.02 0 0.57 0.02 0 0.575 0.02 0 0.58 0.02 0 0.585 0.02 0 0.59 0.02 0 0.595 0.02 0 0.6 0.02 0 0.605 0.02 0 0.61 0.02 0 0.615 0.02 0 0.62 0.02 0 0.625 0.02 0 0.63 0.02 0 0.635 0.02 0 0.64 0.02 0 0.645 0.02 0 0.65 0.02 0 0.655 0.02 0 0.66 0.02 0 0.665 0.02 0 0.67 0.02 0 0.675 0.02 0 0.68 0.02 0 0.685 0.02 0 0.69 0.02 0 0.695 0.02 0 0.7 0.02 0 0.705 0.02 0 0.71 0.02 0 0.715 0.02 0 0.72 0.02 0 0.725 0.02 0 0.73 0.02 0 0.735 0.02 0 0.74 0.02 0 0.745 0.02 0 0.75 0.02 0 0.755 0.02 0 0.76 0.02 0 0.765 0.02 0 0.77 0.02 0 0.775 0.02 0 0.78 0.02 0 0.785 0.02 0 0.79 0.02 0 0.795 0.02 0 0.8 0.02 0 0.805 0.02 0 0.81 0.02 0 0.815 0.02 0 0.82 0.02 0 0.825 0.02 0 0.83 0.02 0 0.835 0.02 0 0.84 0.02 0 0.845 0.02 0 0.85 0.02 0 0.855 0.02 0 0.86 0.02 0 0.865 0.02 0 0.87 0.02 0 0.875 0.02 0 0.88 0.02 0 0.885 0.02 0 0.89 0.02 0 0.895 0.02 0 0.9 0.02 0 0.905 0.02 0 0.91 0.02 0 0.915 0.02 0 0.92 0.02 0 0.925 0.02 0 0.93 0.02 0 0.935 0.02 0 0.94 0.02 0 0.945 0.02 0 0.95 0.02 0 0.955 0.02 0 0.96 0.02 0 0.965 0.02 0 0.97 0.02 0 0.975 0.02 0 0.98 0.02 0 0.985 0.02 0 0.99 0.02 0 0.995 0.02 0 1 0.02 0 0 0.04 0 0.005 0.04 0 0.01 0.04 0 0.015 0.04 0 0.02 0.04 0 0.025 0.04 0 0.03 0.04 0 0.035 0.04 0 0.04 0.04 0 0.045 0.04 0 0.05 0.04 0 0.055 0.04 0 0.06 0.04 0 0.065 0.04 0 0.07 0.04 0 0.075 0.04 0 0.08 0.04 0 0.085 0.04 0 0.09 0.04 0 0.095 0.04 0 0.1 0.04 0 0.105 0.04 0 0.11 0.04 0 0.115 0.04 0 0.12 0.04 0 0.125 0.04 0 0.13 0.04 0 0.135 0.04 0 0.14 0.04 0 0.145 0.04 0 0.15 0.04 0 0.155 0.04 0 0.16 0.04 0 0.165 0.04 0 0.17 0.04 0 0.175 0.04 0 0.18 0.04 0 0.185 0.04 0 0.19 0.04 0 0.195 0.04 0 0.2 0.04 0 0.205 0.04 0 0.21 0.04 0 0.215 0.04 0 0.22 0.04 0 0.225 0.04 0 0.23 0.04 0 0.235 0.04 0 0.24 0.04 0 0.245 0.04 0 0.25 0.04 0 0.255 0.04 0 0.26 0.04 0 0.265 0.04 0 0.27 0.04 0 0.275 0.04 0 0.28 0.04 0 0.285 0.04 0 0.29 0.04 0 0.295 0.04 0 0.3 0.04 0 0.305 0.04 0 0.31 0.04 0 0.315 0.04 0 0.32 0.04 0 0.325 0.04 0 0.33 0.04 0 0.335 0.04 0 0.34 0.04 0 0.345 0.04 0 0.35 0.04 0 0.355 0.04 0 0.36 0.04 0 0.365 0.04 0 0.37 0.04 0 0.375 0.04 0 0.38 0.04 0 0.385 0.04 0 0.39 0.04 0 0.395 0.04 0 0.4 0.04 0 0.405 0.04 0 0.41 0.04 0 0.415 0.04 0 0.42 0.04 0 0.425 0.04 0 0.43 0.04 0 0.435 0.04 0 0.44 0.04 0 0.445 0.04 0 0.45 0.04 0 0.455 0.04 0 0.46 0.04 0 0.465 0.04 0 0.47 0.04 0 0.475 0.04 0 0.48 0.04 0 0.485 0.04 0 0.49 0.04 0 0.495 0.04 0 0.5 0.04 0 0.505 0.04 0 0.51 0.04 0 0.515 0.04 0 0.52 0.04 0 0.525 0.04 0 0.53 0.04 0 0.535 0.04 0 0.54 0.04 0 0.545 0.04 0 0.55 0.04 0 0.555 0.04 0 0.56 0.04 0 0.565 0.04 0 0.57 0.04 0 0.575 0.04 0 0.58 0.04 0 0.585 0.04 0 0.59 0.04 0 0.595 0.04 0 0.6 0.04 0 0.605 0.04 0 0.61 0.04 0 0.615 0.04 0 0.62 0.04 0 0.625 0.04 0 0.63 0.04 0 0.635 0.04 0 0.64 0.04 0 0.645 0.04 0 0.65 0.04 0 0.655 0.04 0 0.66 0.04 0 0.665 0.04 0 0.67 0.04 0 0.675 0.04 0 0.68 0.04 0 0.685 0.04 0 0.69 0.04 0 0.695 0.04 0 0.7 0.04 0 0.705 0.04 0 0.71 0.04 0 0.715 0.04 0 0.72 0.04 0 0.725 0.04 0 0.73 0.04 0 0.735 0.04 0 0.74 0.04 0 0.745 0.04 0 0.75 0.04 0 0.755 0.04 0 0.76 0.04 0 0.765 0.04 0 0.77 0.04 0 0.775 0.04 0 0.78 0.04 0 0.785 0.04 0 0.79 0.04 0 0.795 0.04 0 0.8 0.04 0 0.805 0.04 0 0.81 0.04 0 0.815 0.04 0 0.82 0.04 0 0.825 0.04 0 0.83 0.04 0 0.835 0.04 0 0.84 0.04 0 0.845 0.04 0 0.85 0.04 0 0.855 0.04 0 0.86 0.04 0 0.865 0.04 0 0.87 0.04 0 0.875 0.04 0 0.88 0.04 0 0.885 0.04 0 0.89 0.04 0 0.895 0.04 0 0.9 0.04 0 0.905 0.04 0 0.91 0.04 0 0.915 0.04 0 0.92 0.04 0 0.925 0.04 0 0.93 0.04 0 0.935 0.04 0 0.94 0.04 0 0.945 0.04 0 0.95 0.04 0 0.955 0.04 0 0.96 0.04 0 0.965 0.04 0 0.97 0.04 0 0.975 0.04 0 0.98 0.04 0 0.985 0.04 0 0.99 0.04 0 0.995 0.04 0 1 0.04 0 0 0.06 0 0.005 0.06 0 0.01 0.06 0 0.015 0.06 0 0.02 0.06 0 0.025 0.06 0 0.03 0.06 0 0.035 0.06 0 0.04 0.06 0 0.045 0.06 0 0.05 0.06 0 0.055 0.06 0 0.06 0.06 0 0.065 0.06 0 0.07 0.06 0 0.075 0.06 0 0.08 0.06 0 0.085 0.06 0 0.09 0.06 0 0.095 0.06 0 0.1 0.06 0 0.105 0.06 0 0.11 0.06 0 0.115 0.06 0 0.12 0.06 0 0.125 0.06 0 0.13 0.06 0 0.135 0.06 0 0.14 0.06 0 0.145 0.06 0 0.15 0.06 0 0.155 0.06 0 0.16 0.06 0 0.165 0.06 0 0.17 0.06 0 0.175 0.06 0 0.18 0.06 0 0.185 0.06 0 0.19 0.06 0 0.195 0.06 0 0.2 0.06 0 0.205 0.06 0 0.21 0.06 0 0.215 0.06 0 0.22 0.06 0 0.225 0.06 0 0.23 0.06 0 0.235 0.06 0 0.24 0.06 0 0.245 0.06 0 0.25 0.06 0 0.255 0.06 0 0.26 0.06 0 0.265 0.06 0 0.27 0.06 0 0.275 0.06 0 0.28 0.06 0 0.285 0.06 0 0.29 0.06 0 0.295 0.06 0 0.3 0.06 0 0.305 0.06 0 0.31 0.06 0 0.315 0.06 0 0.32 0.06 0 0.325 0.06 0 0.33 0.06 0 0.335 0.06 0 0.34 0.06 0 0.345 0.06 0 0.35 0.06 0 0.355 0.06 0 0.36 0.06 0 0.365 0.06 0 0.37 0.06 0 0.375 0.06 0 0.38 0.06 0 0.385 0.06 0 0.39 0.06 0 0.395 0.06 0 0.4 0.06 0 0.405 0.06 0 0.41 0.06 0 0.415 0.06 0 0.42 0.06 0 0.425 0.06 0 0.43 0.06 0 0.435 0.06 0 0.44 0.06 0 0.445 0.06 0 0.45 0.06 0 0.455 0.06 0 0.46 0.06 0 0.465 0.06 0 0.47 0.06 0 0.475 0.06 0 0.48 0.06 0 0.485 0.06 0 0.49 0.06 0 0.495 0.06 0 0.5 0.06 0 0.505 0.06 0 0.51 0.06 0 0.515 0.06 0 0.52 0.06 0 0.525 0.06 0 0.53 0.06 0 0.535 0.06 0 0.54 0.06 0 0.545 0.06 0 0.55 0.06 0 0.555 0.06 0 0.56 0.06 0 0.565 0.06 0 0.57 0.06 0 0.575 0.06 0 0.58 0.06 0 0.585 0.06 0 0.59 0.06 0 0.595 0.06 0 0.6 0.06 0 0.605 0.06 0 0.61 0.06 0 0.615 0.06 0 0.62 0.06 0 0.625 0.06 0 0.63 0.06 0 0.635 0.06 0 0.64 0.06 0 0.645 0.06 0 0.65 0.06 0 0.655 0.06 0 0.66 0.06 0 0.665 0.06 0 0.67 0.06 0 0.675 0.06 0 0.68 0.06 0 0.685 0.06 0 0.69 0.06 0 0.695 0.06 0 0.7 0.06 0 0.705 0.06 0 0.71 0.06 0 0.715 0.06 0 0.72 0.06 0 0.725 0.06 0 0.73 0.06 0 0.735 0.06 0 0.74 0.06 0 0.745 0.06 0 0.75 0.06 0 0.755 0.06 0 0.76 0.06 0 0.765 0.06 0 0.77 0.06 0 0.775 0.06 0 0.78 0.06 0 0.785 0.06 0 0.79 0.06 0 0.795 0.06 0 0.8 0.06 0 0.805 0.06 0 0.81 0.06 0 0.815 0.06 0 0.82 0.06 0 0.825 0.06 0 0.83 0.06 0 0.835 0.06 0 0.84 0.06 0 0.845 0.06 0 0.85 0.06 0 0.855 0.06 0 0.86 0.06 0 0.865 0.06 0 0.87 0.06 0 0.875 0.06 0 0.88 0.06 0 0.885 0.06 0 0.89 0.06 0 0.895 0.06 0 0.9 0.06 0 0.905 0.06 0 0.91 0.06 0 0.915 0.06 0 0.92 0.06 0 0.925 0.06 0 0.93 0.06 0 0.935 0.06 0 0.94 0.06 0 0.945 0.06 0 0.95 0.06 0 0.955 0.06 0 0.96 0.06 0 0.965 0.06 0 0.97 0.06 0 0.975 0.06 0 0.98 0.06 0 0.985 0.06 0 0.99 0.06 0 0.995 0.06 0 1 0.06 0 0 0.08 0 0.005 0.08 0 0.01 0.08 0 0.015 0.08 0 0.02 0.08 0 0.025 0.08 0 0.03 0.08 0 0.035 0.08 0 0.04 0.08 0 0.045 0.08 0 0.05 0.08 0 0.055 0.08 0 0.06 0.08 0 0.065 0.08 0 0.07 0.08 0 0.075 0.08 0 0.08 0.08 0 0.085 0.08 0 0.09 0.08 0 0.095 0.08 0 0.1 0.08 0 0.105 0.08 0 0.11 0.08 0 0.115 0.08 0 0.12 0.08 0 0.125 0.08 0 0.13 0.08 0 0.135 0.08 0 0.14 0.08 0 0.145 0.08 0 0.15 0.08 0 0.155 0.08 0 0.16 0.08 0 0.165 0.08 0
[...]
			<PointData Scalars="VitesseX">
				<DataArray Name="VitesseX" type="Float32" format="ascii">
 0 -6.33234e-16 1.00848e-14 3.85611e-15 7.43672e-15 -2.03709e-14 1.75942e-14 -4.65423e-14 -3.5276e-14 -1.53782e-14 -7.46253e-15 -6.77768e-14 -2.42622e-14 -3.89238e-14 -1.15223e-13 -2.33407e-14 -7.21673e-14 -8.6416e-14 -4.25382e-14 -9.47657e-14 -1.27725e-14 3.53176e-14 1.60124e-14 1.41937e-14 -3.09651e-14 2.4102e-14 -1.3839e-14 4.97266e-15 -8.99595e-14 3.69113e-14 -6.89836e-14 -6.02645e-14 1.9575e-14 -5.33187e-14 1.09766e-13 -8.37816e-14 1.08994e-13 -1.12216e-13 3.04613e-14 6.82548e-14 1.18701e-13 1.02705e-12 6.7221e-12 4.09403e-11 2.37644e-10 1.31293e-09 6.86686e-09 3.3981e-08 1.5865e-07 6.96891e-07 2.87091e-06 1.1051e-05 3.95778e-05 0.000131209 0.000400253 0.0011156 0.0028187 0.00640469 0.0130054 0.0235565 0.0382554 0.0564197 0.0769301 0.0987933 0.121371 0.144318 0.16746 0.190708 0.214012 0.237345 0.260688 0.284026 0.307336 0.330599 0.3538 0.376924 0.399962 0.422903 0.44574 0.468469 0.491084 0.51358 0.53595 0.558187 0.580279 0.602214 0.623976 0.645544 0.666892 0.68799 0.708799 0.729272 0.749352 0.76897 0.788042 0.806469 0.824135 0.840905 0.856628 0.871144 0.884289 0.895911 0.905889 0.914152 0.920695 0.925593 0.929002 0.931148 0.932305 0.93276 0.932758 0.932653 0.932452 0.932178 0.93186 0.93152 0.93118 0.930857 0.930559 0.930293 0.930066 0.929886 0.929776 0.929752 0.929867 0.930218 0.930908 0.932047 0.93376 0.936145 0.939369 0.943033 0.949561 0.950553 0.946607 0.940847 0.935978 0.932666 0.930612 0.929434 0.9288 0.928475 0.928312 0.928227 0.928173 0.92812 0.928048 0.927926 0.927706 0.927305 0.926576 0.925264 0.922932 0.918846 0.911799 0.899883 0.880247 0.848978 0.801357 0.732786 0.640567 0.526338 0.398283 0.271369 0.163488 0.0858657 0.039563 0.0165199 0.00651523 0.00250005 0.00094763 0.00035709 0.000134094 5.02196e-05 1.87595e-05 6.98877e-06 2.59602e-06 9.6122e-07 3.54659e-07 1.30358e-07 4.77153e-08 1.73874e-08 6.30533e-09 2.27499e-09 8.15824e-10 2.90946e-10 1.03248e-10 3.6139e-11 1.26039e-11 3.97679e-12 7.41107e-13 9.47985e-13 -2.74297e-13 1.16863e-13 4.06724e-13 -7.19427e-13 1.73776e-13 6.48734e-13 -3.5942e-13 2.15464e-13 0 0 -2.05868e-15 -5.64249e-16 4.55588e-15 -6.76268e-15 -7.70993e-15 -4.04214e-14 5.55373e-15 -3.50264e-14 -3.40845e-14 -6.20964e-14 -5.18851e-14 -4.90341e-14 -4.73525e-14 -1.11835e-14 -6.69945e-14 -8.51731e-14 -9.08622e-14 -7.77624e-14 -7.08694e-16 1.81497e-15 1.02744e-14 5.32024e-15 -2.72485e-15 8.96061e-14 -3.41749e-14 -2.45889e-14 9.1666e-15 -5.90456e-14 -7.2219e-14 -3.52318e-14 5.11095e-14 -3.83957e-14 5.41968e-14 -9.13755e-14 6.01999e-14 -9.13107e-14 6.17283e-14 -5.81298e-14 9.37958e-15 2.2859e-13 9.09283e-13 6.79031e-12 4.08938e-11 2.37891e-10 1.31241e-09 6.86713e-09 3.39809e-08 1.5865e-07 6.96891e-07 2.87091e-06 1.1051e-05 3.95778e-05 0.000131209 0.000400253 0.0011156 0.0028187 0.00640469 0.0130054 0.0235565 0.0382554 0.0564197 0.0769301 0.0987933 0.121371 0.144318 0.16746 0.190708 0.214012 0.237345 0.260688 0.284026 0.307336 0.330599 0.3538 0.376924 0.399962 0.422903 0.44574 0.468469 0.491084 0.51358 0.53595 0.558187 0.580279 0.602214 0.623976 0.645544 0.666892 0.68799 0.708799 0.729272 0.749352 0.76897 0.788042 0.806469 0.824135 0.840905 0.856628 0.871144 0.884289 0.895911 0.905889 0.914152 0.920695 0.925593 0.929002 0.931148 0.932305 0.93276 0.932758 0.932653 0.932452 0.932178 0.93186 0.93152 0.93118 0.930857 0.930559 0.930293 0.930066 0.929886 0.929776 0.929752 0.929867 0.930218 0.930908 0.932047 0.93376 0.936145 0.939369 0.943033 0.949561 0.950553 0.946607 0.940847 0.935978 0.932666 0.930612 0.929434 0.9288 0.928475 0.928312 0.928227 0.928173 0.92812 0.928048 0.927926 0.927706 0.927305 0.926576 0.925264 0.922932 0.918846 0.911799 0.899883 0.880247 0.848978 0.801357 0.732786 0.640567 0.526338 0.398283 0.271369 0.163488 0.0858657 0.039563 0.0165199 0.00651523 0.00250005 0.00094763 0.00035709 0.000134094 5.02196e-05 1.87595e-05 6.98877e-06 2.59602e-06 9.6122e-07 3.5466e-07 1.30358e-07 4.77156e-08 1.73873e-08 6.30543e-09 2.27472e-09 8.16369e-10 2.91047e-10 1.02692e-10 3.61701e-11 1.23654e-11 4.31544e-12 1.41872e-12 -3.04842e-13 6.40431e-13 -1.97612e-14 -3.68555e-13 6.80608e-13 -2.53158e-13 -3.78931e-13 2.29802e-13 -2.3171e-13 0 0 -2.97534e-15 -1.50555e-14 -1.36842e-14 -2.03391e-14 -2.94022e-14 -1.90796e-14 -7.02639e-14 -3.6586e-14 -1.71195e-14 -6.51118e-14 -3.93368e-14 -6.53267e-14 -3.19838e-14 -6.32433e-14 -8.93377e-14 -5.05988e-15 -8.59997e-14 -2.63423e-14 -1.10984e-14 -7.29393e-14 7.01546e-14 3.82029e-14 3.55009e-14 -2.32718e-14 3.4236e-16 2.83528e-14 -6.85931e-14 -7.44902e-14 4.75343e-14 -4.49417e-14 6.18224e-14 -6.53937e-14 -1.22402e-15 1.88102e-14 -9.29653e-14 3.05239e-14 -9.6793e-14 -5.02094e-14 2.76671e-15 2.62932e-13 9.56796e-13 6.64929e-12 4.10232e-11 2.37837e-10 1.31259e-09 6.86699e-09 3.39807e-08 1.5865e-07 6.96891e-07 2.87091e-06 1.1051e-05 3.95778e-05 0.000131209 0.000400253 0.0011156 0.0028187 0.00640469 0.0130054 0.0235565 0.0382554 0.0564197 0.0769301 0.0987933 0.121371 0.144318 0.16746 0.190708 0.214012 0.237345 0.260688 0.284026 0.307336 0.330599 0.3538 0.376924 0.399962 0.422903 0.44574 0.468469 0.491084 0.51358 0.53595 0.558187 0.580279 0.602214 0.623976 0.645544 0.666892 0.68799 0.708799 0.729272 0.749352 0.76897 0.788042 0.806469 0.824135 0.840905 0.856628 0.871144 0.884289 0.895911 0.905889 0.914152 0.920695 0.925593 0.929002 0.931148 0.932305 0.93276 0.932758 0.932653 0.932452 0.932178 0.93186 0.93152 0.93118 0.930857 0.930559 0.930293 0.930066 0.929886 0.929776 0.929752 0.929867 0.930218 0.930908 0.932047 0.93376 0.936145 0.939369 0.943033 0.949561 0.950553 0.946607 0.940847 0.935978 0.932666 0.930612 0.929434 0.9288 0.928475 0.928312 0.928227 0.928173 0.92812 0.928048 0.927926 0.927706 0.927305 0.926576 0.925264 0.922932 0.918846 0.911799 0.899883 0.880247 0.848978 0.801357 0.732786 0.640567 0.526338 0.398283 0.271369 0.163488 0.0858657 0.039563 0.0165199 0.00651523 0.00250005 0.00094763 0.00035709 0.000134094 5.02196e-05 1.87595e-05 6.98877e-06 2.59602e-06 9.6122e-07 3.54659e-07 1.30358e-07 4.77155e-08 1.73872e-08 6.30554e-09 2.27498e-09 8.16385e-10 2.9095e-10 1.02993e-10 3.59312e-11 1.28892e-11 4.01919e-12 1.08313e-12 5.28486e-13 -9.76381e-14 -2.63305e-13 -3.56723e-14 1.86848e-13 -4.84197e-13 -1.13159e-13 2.90855e-13 2.42016e-13 0 0 -8.73587e-15 -1.24905e-14 -1.61301e-14 -3.72638e-14 -3.96899e-14 -1.9362e-14 -7.10426e-14 -6.64156e-14 -4.97011e-14 -2.12e-14 -7.49267e-14 -4.45927e-14 -3.05975e-14 -9.58732e-14 -2.90487e-14 -6.27454e-14 3.5151e-14 -2.29694e-14 -4.81338e-14 2.11302e-14 -9.00613e-14 1.06949e-14 -3.51563e-14 6.87271e-15 -1.49755e-14 -1.36649e-14 5.31699e-14 8.76851e-14 4.61109e-14 -1.00571e-13 -8.08346e-14 -3.82124e-14 -1.08307e-13 7.15691e-14 -1.40613e-13 2.39994e-14 4.89397e-14 7.91607e-15 -5.57508e-14 8.68015e-14 1.20434e-12 6.60347e-12 4.09861e-11 2.37807e-10 1.31264e-09 6.86703e-09 3.39809e-08 1.5865e-07 6.96891e-07 2.87091e-06 1.1051e-05 3.95778e-05 0.000131209 0.000400253 0.0011156 0.0028187 0.00640469 0.0130054 0.0235565 0.0382554 0.0564197 0.0769301 0.0987933 0.121371 0.144318 0.16746 0.190708 0.214012 0.237345 0.260688 0.284026 0.307336 0.330599 0.3538 0.376924 0.399962 0.422903 0.44574 0.468469 0.491084 0.51358 0.53595 0.558187 0.580279 0.602214 0.623976 0.645544 0.666892 0.68799 0.708799 0.729272 0.749352 0.76897 0.788042 0.806469 0.824135 0.840905 0.856628 0.871144 0.884289 0.895911 0.905889 0.914152 0.920695 0.925593 0.929002 0.931148 0.932305 0.93276 0.932758 0.932653 0.932452 0.932178 0.93186 0.93152 0.93118 0.930857 0.930559 0.930293 0.930066 0.929886 0.929776 0.929752 0.929867 0.930218 0.930908 0.932047 0.93376 0.936145 0.939369 0.943033 0.949561 0.950553 0.946607 0.940847 0.935978 0.932666 0.930612 0.929434 0.9288 0.928475 0.928312 0.928227 0.928173 0.92812 0.928048 0.927926 0.927706 0.927305 0.926576 0.925264 0.922932 0.918846 0.911799 0.899883 0.880247 0.848978 0.801357 0.732786 0.640567 0.526338 0.398283 0.271369 0.163488 0.0858657 0.039563 0.0165199 0.00651523 0.00250005 0.00094763 0.00035709 0.000134094 5.02196e-05 1.87595e-05 6.98877e-06 2.59602e-06 9.6122e-07 3.54659e-07 1.30358e-07 4.77152e-08 1.73875e-08 6.30539e-09 2.27481e-09 8.16058e-10 2.9105e-10 1.03198e-10 3.62444e-11 1.2557e-11 4.24299e-12 1.19575e-12 2.04416e-13 -2.4653e-13 -8.41165e-14 6.93656e-13 1.21149e-13 -3.00713e-13 4.85635e-14 -6.36568e-13 3.39766e-13 0 0 -1.60136e-14 -1.98556e-14 -2.00126e-14 -3.20567e-14 -3.55094e-14 -6.68414e-14 -7.53497e-15 -5.41512e-14 -7.81433e-14 -6.29875e-14 -7.1738e-14 -2.40773e-14 -3.65137e-14 -2.48775e-14 1.20426e-14 -7.57615e-14 5.68461e-14 -1.88982e-14 -3.24483e-14 3.72543e-14 -1.38313e-13 -9.23706e-14 -6.57588e-14 8.03747e-14 -6.59372e-14 -3.22489e-14 2.3731e-14 2.63925e-14 -7.40097e-14 -9.55495e-14 -1.33798e-13 -5.31504e-14 -4.83213e-16 -3.67893e-14 6.8812e-14 -7.04227e-14 1.84306e-13 -8.77987e-14 -3.96259e-14 2.25192e-13 1.01682e-12 6.64549e-12 4.09333e-11 2.38066e-10 1.31249e-09 6.86715e-09 3.3981e-08 1.5865e-07 6.96891e-07 2.87091e-06 1.1051e-05 3.95778e-05 0.000131209 0.000400253 0.0011156 0.0028187 0.00640469 0.0130054 0.0235565 0.0382554 0.0564197 0.0769301 0.0987933 0.121371 0.144318 0.16746 0.190708 0.214012 0.237345 0.260688 0.284026 0.307336 0.330599 0.3538 0.376924 0.399962 0.422903 0.44574 0.468469 0.491084 0.51358 0.53595 0.558187 0.580279 0.602214 0.623976 0.645544 0.666892 0.68799 0.708799 0.729272 0.749352 0.76897 0.788042 0.806469 0.824135 0.840905 0.856628 0.871144 0.884289 0.895911 0.905889 0.914152 0.920695 0.925593 0.929002 0.931148 0.932305 0.93276 0.932758 0.932653 0.932452 0.932178 0.93186 0.93152 0.93118 0.930857 0.930559 0.930293 0.930066 0.929886 0.929776 0.929752 0.929867 0.930218 0.930908 0.932047 0.93376 0.936145 0.939369 0.943033 0.949561 0.950553 0.946607 0.940847 0.935978 0.932666 0.930612 0.929434 0.9288 0.928475 0.928312 0.928227 0.928173 0.92812 0.928048 0.927926 0.927706 0.927305 0.926576 0.925264 0.922932 0.918846 0.911799 0.899883 0.880247 0.848978 0.801357 0.732786 0.640567 0.526338 0.398283 0.271369 0.163488 0.0858657 0.039563 0.0165199 0.00651523 0.00250005 0.00094763 0.00035709 0.000134094 5.02196e-05 1.87595e-05 6.98877e-06 2.59602e-06 9.6122e-07 3.5466e-07 1.30358e-07 4.77157e-08 1.73876e-08 6.30547e-09 2.27471e-09 8.16117e-10 2.91149e-10 1.02765e-10 3.66033e-11 1.19436e-11 4.31099e-12 1.31302e-12 1.05243e-13 3.74665e-13 1.82734e-13 1.0308e-14 6.2745e-13 -2.81883e-13 -6.54001e-13 -2.81106e-13 -1.80567e-13 0 0 -1.7022e-14 -3.3628e-14 -4.0389e-14 -9.30185e-15 -5.53945e-14 -3.46811e-14 -7.11623e-14 -1.38665e-14 -3.83323e-14 -9.70684e-14 -3.63028e-14 -1.58167e-14 -2.00187e-14 -7.73514e-14 1.41553e-14 6.2027e-14 -3.33009e-14 6.84446e-14 -8.41742e-14 -1.30033e-13 5.85748e-14 -1.24353e-13 2.94403e-14 -1.09717e-13 -8.78667e-15 5.48765e-14 -2.09424e-13 -2.43434e-13 3.61766e-14 -7.83597e-14 -1.44765e-13 -6.42969e-14 5.14877e-14 1.1342e-13 2.87376e-14 1.63819e-13 -1.58526e-13 -1.45128e-13 8.72787e-14 4.64166e-13 7.47026e-13 6.5241e-12 4.10934e-11 2.38051e-10 1.31297e-09 6.86681e-09 3.39808e-08 1.5865e-07 6.96891e-07 2.87091e-06 1.1051e-05 3.95778e-05 0.000131209 0.000400253 0.0011156 0.0028187 0.00640469 0.0130054 0.0235565 0.0382554 0.0564197 0.0769301 0.0987933 0.121371 0.144318 0.16746 0.190708 0.214012 0.237345 0.260688 0.284026 0.307336 0.330599 0.3538 0.376924 0.399962 0.422903 0.44574 0.468469 0.491084 0.51358 0.53595 0.558187 0.580279 0.602214 0.623976 0.645544 0.666892 0.68799 0.708799 0.729272 0.749352 0.76897 0.788042 0.806469 0.824135 0.840905 0.856628 0.871144 0.884289 0.895911 0.905889 0.914152 0.920695 0.925593 0.929002 0.931148 0.932305 0.93276 0.932758 0.932653 0.932452 0.932178 0.93186 0.93152 0.93118 0.930857 0.930559 0.930293 0.930066 0.929886 0.929776 0.929752 0.929867 0.930218 0.930908 0.932047 0.93376 0.936145 0.939369 0.943033 0.949561 0.950553 0.946607 0.940847 0.935978 0.932666 0.930612 0.929434 0.9288 0.928475 0.928312 0.928227 0.928173 0.92812 0.928048 0.927926 0.927706 0.927305 0.926576 0.925264 0.922932 0.918846 0.911799 0.899883 0.880247 0.848978 0.801357 0.732786 0.640567 0.526338 0.398283 0.271369 0.163488 0.0858657 0.039563 0.0165199 0.00651523 0.00250005 0.00094763 0.00035709 0.000134094 5.02196e-05 1.87595e-05 6.98877e-06 2.59602e-06 9.6122e-07 3.54659e-07 1.30358e-07 4.7716e-08 1.73874e-08 6.30569e-09 2.27531e-09 8.15973e-10 2.90948e-10 1.02984e-10 3.63791e-11 1.24245e-11 3.52028e-12 3.04464e-13 2.41629e-12 -5.08046e-13 1.63476e-13 -2.94206e-13 -6.94343e-13 -2.50641e-13 -2.2485e-13 4.73612e-13 1.22252e-13 0
				</DataArray>
				<DataArray Name="VitesseY" type="Float32" format="ascii">