<?xml version="1.0"?>
<VTKFile type="PolyData">
	<PolyData>
		<Piece NumberOfPoints="1206" NumberOfPolys="1000">
			<Points>
				<DataArray type="Float32" NumberOfComponents="3" format="ascii">
 0 0 0 0.005 0 0 0.01 0 0 0.015 0 0 0.02 0 0 0.025 0 0 0.03 0 0 0.035 0 0 0.04 0 0 0.045 0 0 0.05 0 0 0.055 0 0 0.06 0 0 0.065 0 0 0.07 0 0 0.075 0 0 0.08 0 0 0.085 0 0 0.09 0 0 0.095 0 0 0.1 0 0 0.105 0 0 0.11 0 0 0.115 0 0 0.12 0 0 0.125 0 0 0.13 0 0 0.135 0 0 0.14 0 0 0.145 0 0 0.15 0 0 0.155 0 0 0.16 0 0 0.165 0 0 0.17 0 0 0.175 0 0 0.18 0 0 0.185 0 0 0.19 0 0 0.195 0 0 0.2 0 0 0.205 0 0 0.21 0 0 0.215 0 0 0.22 0 0 0.225 0 0 0.23 0 0 0.235 0 0 0.24 0 0 0.245 0 0 0.25 0 0 0.255 0 0 0.26 0 0 0.265 0 0 0.27 0 0 0.275 0 0 0.28 0 0 0.285 0 0 0.29 0 0 0.295 0 0 0.3 0 0 0.305 0 0 0.31 0 0 0.315 0 0 0.32 0 0 0.325 0 0 0.33 0 0 0.335 0 0 0.34 0 0 0.345 0 0 0.35 0 0 0.355 0 0 0.36 0 0 0.365 0 0 0.37 0 0 0.375 0 0 0.38 0 0 0.385 0 0 0.39 0 0 0.395 0 0 0.4 0 0 0.405 0 0 0.41 0 0 0.415 0 0 0.42 0 0 0.425 0 0 0.43 0 0 0.435 0 0 0.44 0 0 0.445 0 0 0.45 0 0 0.455 0 0 0.46 0 0 0.465 0 0 0.47 0 0 0.475 0 0 0.48 0 0 0.485 0 0 0.49 0 0 0.495 0 0 0.5 0 0 0.505 0 0 0.51 0 0 0.515 0 0 0.52 0 0 0.525 0 0 0.53 0 0 0.535 0 0 0.54 0 0 0.545 0 0 0.55 0 0 0.555 0 0 0.56 0 0 0.565 0 0 0.57 0 0 0.575 0 0 0.58 0 0 0.585 0 0 0.59 0 0 0.595 0 0 0.6 0 0 0.605 0 0 0.61 0 0 0.615 0 0 0.62 0 0 0.625 0 0 0.63 0 0 0.635 0 0 0.64 0 0 0.645 0 0 0.65 0 0 0.655 0 0 0.66 0 0 0.665 0 0 0.67 0 0 0.675 0 0 0.68 0 0 0.685 0 0 0.69 0 0 0.695 0 0 0.7 0 0 0.705 0 0 0.71 0 0 0.715 0 0 0.72 0 0 0.725 0 0 0.73 0 0 0.735 0 0 0.74 0 0 0.745 0 0 0.75 0 0 0.755 0 0 0.76 0 0 0.765 0 0 0.77 0 0 0.775 0 0 0.78 0 0 0.785 0 0 0.79 0 0 0.795 0 0 0.8 0 0 0.805 0 0 0.81 0 0 0.815 0 0 0.82 0 0 0.825 0 0 0.83 0 0 0.835 0 0 0.84 0 0 0.845 0 0 0.85 0 0 0.855 0 0 0.86 0 0 0.865 0 0 0.87 0 0 0.875 0 0 0.88 0 0 0.885 0 0 0.89 0 0 0.895 0 0 0.9 0 0 0.905 0 0 0.91 0 0 0.915 0 0 0.92 0 0 0.925 0 0 0.93 0 0 0.935 0 0 0.94 0 0 0.945 0 0 0.95 0 0 0.955 0 0 0.96 0 0 0.965 0 0 0.97 0 0 0.975 0 0 0.98 0 0 0.985 0 0 0.99 0 0 0.995 0 0 1 0 0 0 0.02 0 0.005 0.02 0 0.01 0.02 0 0.015 0.02 0 0.02 0.02 0 0.025 0.02 0 0.03 0.02 0 0.035 0.02 0 0.04 0.02 0 0.045 0.02 0 0.05 0.02 0 0.055 0.02 0 0.06 0.02 0 0.065 0.02 0 0.07 0.02 0 0.075 0.02 0 0.08 0.02 0 0.085 0.02 0 0.09 0.02 0 0.095 0.02 0 0.1 0.02 0 0.105 0.02 0 0.11 0.02 0 0.115 0.02 0 0.12 0.02 0 0.125 0.02 0 0.13 0.02 0 0.135 0.02 0 0.14 0.02 0 0.145 0.02 0 0.15 0.02 0 0.155 0.02 0 0.16 0.02 0 0.165 0.02 0 0.17 0.02 0 0.175 0.02 0 0.18 0.02 0 0.185 0.02 0 0.19 0.02 0 0.195 0.02 0 0.2 0.02 0 0.205 0.02 0 0.21 0.02 0 0.215 0.02 0 0.22 0.02 0 0.225 0.02 0 0.23 0.02 0 0.235 0.02 0 0.24 0.02 0 0.245 0.02 0 0.25 0.02 0 0.255 0.02 0 0.26 0.02 0 0.265 0.02 0 0.27 0.02 0 0.275 0.02 0 0.28 0.02 0 0.285 0.02 0 0.29 0.02 0 0.295 0.02 0 0.3 0.02 0 0.305 0.02 0 0.31 0.02 0 0.315 0.02 0 0.32 0.02 0 0.325 0.02 0 0.33 0.02 0 0.335 0.02 0 0.34 0.02 0 0.345 0.02 0 0.35 0.02 0 0.355 0.02 0 0.36 0.02 0 0.365 0.02 0 0.37 0.02 0 0.375 0.02 0 0.38 0.02 0 0.385 0.02 0 0.39 0.02 0 0.395 0.02 0 0.4 0.02 0 0.405 0.02 0 0.41 0.02 0 0.415 0.02 0 0.42 0.02 0 0.425 0.02 0 0.43 0.02 0 0.435 0.02 0 0.44 0.02 0 0.445 0.02 0 0.45 0.02 0 0.455 0.02 0 0.46 0.02 0 0.465 0.02 0 0.47 0.02 0 0.475 0.02 0 0.48 0.02 0 0.485 0.02 0 0.49 0.02 0 0.495 0.02 0 0.5 0.02 0 0.505 0.02 0 0.51 0.02 0 0.515 0.02 0 0.52 0.02 0 0.525 0.02 0 0.53 0.02 0 0.535 0.02 0 0.54 0.02 0 0.545 0.02 0 0.55 0.02 0 0.555 0.02 0 0.56 0.02 0 0.565 0.02 0 0.57 0.02 0 0.575 0.02 0 0.58 0.02 0 0.585 0.02 0 0.59 0.02 0 0.595 0.02 0 0.6 0.02 0 0.605 0.02 0 0.61 0.02 0 0.615 0.02 0 0.62 0.02 0 0.625 0.02 0 0.63 0.02 0 0.635 0.02 0 0.64 0.02 0 0.645 0.02 0 0.65 0.02 0 0.655 0.02 0 0.66 0.02 0 0.665 0.02 0 0.67 0.02 0 0.675 0.02 0 0.68 0.02 0 0.685 0.02 0 0.69 0.02 0 0.695 0.02 0 0.7 0.02 0 0.705 0.02 0 0.71 0.02 0 0.715 0.02 0 0.72 0.02 0 0.725 0.02 0 0.73 0.02 0 0.735 0.02 0 0.74 0.02 0 0.745 0.02 0 0.75 0.02 0 0.755 0.02 0 0.76 0.02 0 0.765 0.02 0 0.77 0.02 0 0.775 0.02 0 0.78 0.02 0 0.785 0.02 0 0.79 0.02 0 0.795 0.02 0 0.8 0.02 0 0.805 0.02 0 0.81 0.02 0 0.815 0.02 0 0.82 0.02 0 0.825 0.02 0 0.83 0.02 0 0.835 0.02 0 0.84 0.02 0 0.845 0.02 0 0.85 0.02 0 0.855 0.02 0 0.86 0.02 0 0.865 0.02 0 0.87 0.02 0 0.875 0.02 0 0.88 0.02 0 0.885 0.02 0 0.89 0.02 0 0.895 0.02 0 0.9 0.02 0 0.905 0.02 0 0.91 0.02 0 0.915 0.02 0 0.92 0.02 0 0.925 0.02 0 0.93 0.02 0 0.935 0.02 0 0.94 0.02 0 0.945 0.02 0 0.95 0.02 0 0.955 0.02 0 0.96 0.02 0 0.965 0.02 0 0.97 0.02 0 0.975 0.02 0 0.98 0.02 0 0.985 0.02 0 0.99 0.02 0 0.995 0.02 0 1 0.02 0 0 0.04 0 0.005 0.04 0 0.01 0.04 0 0.015 0.04 0 0.02 0.04 0 0.025 0.04 0 0.03 0.04 0 0.035 0.04 0 0.04 0.04 0 0.045 0.04 0 0.05 0.04 0 0.055 0.04 0 0.06 0.04 0 0.065 0.04 0 0.07 0.04 0 0.075 0.04 0 0.08 0.04 0 0.085 0.04 0 0.09 0.04 0 0.095 0.04 0 0.1 0.04 0 0.105 0.04 0 0.11 0.04 0 0.115 0.04 0 0.12 0.04 0 0.125 0.04 0 0.13 0.04 0 0.135 0.04 0 0.14 0.04 0 0.145 0.04 0 0.15 0.04 0 0.155 0.04 0 0.16 0.04 0 0.165 0.04 0 0.17 0.04 0 0.175 0.04 0 0.18 0.04 0 0.185 0.04 0 0.19 0.04 0 0.195 0.04 0 0.2 0.04 0 0.205 0.04 0 0.21 0.04 0 0.215 0.04 0 0.22 0.04 0 0.225 0.04 0 0.23 0.04 0 0.235 0.04 0 0.24 0.04 0 0.245 0.04 0 0.25 0.04 0 0.255 0.04 0 0.26 0.04 0 0.265 0.04 0 0.27 0.04 0 0.275 0.04 0 0.28 0.04 0 0.285 0.04 0 0.29 0.04 0 0.295 0.04 0 0.3 0.04 0 0.305 0.04 0 0.31 0.04 0 0.315 0.04 0 0.32 0.04 0 0.325 0.04 0 0.33 0.04 0 0.335 0.04 0 0.34 0.04 0 0.345 0.04 0 0.35 0.04 0 0.355 0.04 0 0.36 0.04 0 0.365 0.04 0 0.37 0.04 0 0.375 0.04 0 0.38 0.04 0 0.385 0.04 0 0.39 0.04 0 0.395 0.04 0 0.4 0.04 0 0.405 0.04 0 0.41 0.04 0 0.415 0.04 0 0.42 0.04 0 0.425 0.04 0 0.43 0.04 0 0.435 0.04 0 0.44 0.04 0 0.445 0.04 0 0.45 0.04 0 0.455 0.04 0 0.46 0.04 0 0.465 0.04 0 0.47 0.04 0 0.475 0.04 0 0.48 0.04 0 0.485 0.04 0 0.49 0.04 0 0.495 0.04 0 0.5 0.04 0 0.505 0.04 0 0.51 0.04 0 0.515 0.04 0 0.52 0.04 0 0.525 0.04 0 0.53 0.04 0 0.535 0.04 0 0.54 0.04 0 0.545 0.04 0 0.55 0.04 0 0.555 0.04 0 0.56 0.04 0 0.565 0.04 0 0.57 0.04 0 0.575 0.04 0 0.58 0.04 0 0.585 0.04 0 0.59 0.04 0 0.595 0.04 0 0.6 0.04 0 0.605 0.04 0 0.61 0.04 0 0.615 0.04 0 0.62 0.04 0 0.625 0.04 0 0.63 0.04 0 0.635 0.04 0 0.64 0.04 0 0.645 0.04 0 0.65 0.04 0 0.655 0.04 0 0.66 0.04 0 0.665 0.04 0 0.67 0.04 0 0.675 0.04 0 0.68 0.04 0 0.685 0.04 0 0.69 0.04 0 0.695 0.04 0 0.7 0.04 0 0.705 0.04 0 0.71 0.04 0 0.715 0.04 0 0.72 0.04 0 0.725 0.04 0 0.73 0.04 0 0.735 0.04 0 0.74 0.04 0 0.745 0.04 0 0.75 0.04 0 0.755 0.04 0 0.76 0.04 0 0.765 0.04 0 0.77 0.04 0 0.775 0.04 0 0.78 0.04 0 0.785 0.04 0 0.79 0.04 0 0.795 0.04 0 0.8 0.04 0 0.805 0.04 0 0.81 0.04 0 0.815 0.04 0 0.82 0.04 0 0.825 0.04 0 0.83 0.04 0 0.835 0.04 0 0.84 0.04 0 0.845 0.04 0 0.85 0.04 0 0.855 0.04 0 0.86 0.04 0 0.865 0.04 0 0.87 0.04 0 0.875 0.04 0 0.88 0.04 0 0.885 0.04 0 0.89 0.04 0 0.895 0.04 0 0.9 0.04 0 0.905 0.04 0 0.91 0.04 0 0.915 0.04 0 0.92 0.04 0 0.925 0.04 0 0.93 0.04 0 0.935 0.04 0 0.94 0.04 0 0.945 0.04 0 0.95 0.04 0 0.955 0.04 0 0.96 0.04 0 0.965 0.04 0 0.97 0.04 0 0.975 0.04 0 0.98 0.04 0 0.985 0.04 0 0.99 0.04 0 0.995 0.04 0 1 0.04 0 0 0.06 0 0.005 0.06 0 0.01 0.06 0 0.015 0.06 0 0.02 0.06 0 0.025 0.06 0 0.03 0.06 0 0.035 0.06 0 0.04 0.06 0 0.045 0.06 0 0.05 0.06 0 0.055 0.06 0 0.06 0.06 0 0.065 0.06 0 0.07 0.06 0 0.075 0.06 0 0.08 0.06 0 0.085 0.06 0 0.09 0.06 0 0.095 0.06 0 0.1 0.06 0 0.105 0.06 0 0.11 0.06 0 0.115 0.06 0 0.12 0.06 0 0.125 0.06 0 0.13 0.06 0 0.135 0.06 0 0.14 0.06 0 0.145 0.06 0 0.15 0.06 0 0.155 0.06 0 0.16 0.06 0 0.165 0.06 0 0.17 0.06 0 0.175 0.06 0 0.18 0.06 0 0.185 0.06 0 0.19 0.06 0 0.195 0.06 0 0.2 0.06 0 0.205 0.06 0 0.21 0.06 0 0.215 0.06 0 0.22 0.06 0 0.225 0.06 0 0.23 0.06 0 0.235 0.06 0 0.24 0.06 0 0.245 0.06 0 0.25 0.06 0 0.255 0.06 0 0.26 0.06 0 0.265 0.06 0 0.27 0.06 0 0.275 0.06 0 0.28 0.06 0 0.285 0.06 0 0.29 0.06 0 0.295 0.06 0 0.3 0.06 0 0.305 0.06 0 0.31 0.06 0 0.315 0.06 0 0.32 0.06 0 0.325 0.06 0 0.33 0.06 0 0.335 0.06 0 0.34 0.06 0 0.345 0.06 0 0.35 0.06 0 0.355 0.06 0 0.36 0.06 0 0.365 0.06 0 0.37 0.06 0 0.375 0.06 0 0.38 0.06 0 0.385 0.06 0 0.39 0.06 0 0.395 0.06 0 0.4 0.06 0 0.405 0.06 0 0.41 0.06 0 0.415 0.06 0 0.42 0.06 0 0.425 0.06 0 0.43 0.06 0 0.435 0.06 0 0.44 0.06 0 0.445 0.06 0 0.45 0.06 0 0.455 0.06 0 0.46 0.06 0 0.465 0.06 0 0.47 0.06 0 0.475 0.06 0 0.48 0.06 0 0.485 0.06 0 0.49 0.06 0 0.495 0.06 0 0.5 0.06 0 0.505 0.06 0 0.51 0.06 0 0.515 0.06 0 0.52 0.06 0 0.525 0.06 0 0.53 0.06 0 0.535 0.06 0 0.54 0.06 0 0.545 0.06 0 0.55 0.06 0 0.555 0.06 0 0.56 0.06 0 0.565 0.06 0 0.57 0.06 0 0.575 0.06 0 0.58 0.06 0 0.585 0.06 0 0.59 0.06 0 0.595 0.06 0 0.6 0.06 0 0.605 0.06 0 0.61 0.06 0 0.615 0.06 0 0.62 0.06 0 0.625 0.06 0 0.63 0.06 0 0.635 0.06 0 0.64 0.06 0 0.645 0.06 0 0.65 0.06 0 0.655 0.06 0 0.66 0.06 0 0.665 0.06 0 0.67 0.06 0 0.675 0.06 0 0.68 0.06 0 0.685 0.06 0 0.69 0.06 0 0.695 0.06 0 0.7 0.06 0 0.705 0.06 0 0.71 0.06 0 0.715 0.06 0 0.72 0.06 0 0.725 0.06 0 0.73 0.06 0 0.735 0.06 0 0.74 0.06 0 0.745 0.06 0 0.75 0.06 0 0.755 0.06 0 0.76 0.06 0 0.765 0.06 0 0.77 0.06 0 0.775 0.06 0 0.78 0.06 0 0.785 0.06 0 0.79 0.06 0 0.795 0.06 0 0.8 0.06 0 0.805 0.06 0 0.81 0.06 0 0.815 0.06 0 0.82 0.06 0 0.825 0.06 0 0.83 0.06 0 0.835 0.06 0 0.84 0.06 0 0.845 0.06 0 0.85 0.06 0 0.855 0.06 0 0.86 0.06 0 0.865 0.06 0 0.87 0.06 0 0.875 0.06 0 0.88 0.06 0 0.885 0.06 0 0.89 0.06 0 0.895 0.06 0 0.9 0.06 0 0.905 0.06 0 0.91 0.06 0 0.915 0.06 0 0.92 0.06 0 0.925 0.06 0 0.93 0.06 0 0.935 0.06 0 0.94 0.06 0 0.945 0.06 0 0.95 0.06 0 0.955 0.06 0 0.96 0.06 0 0.965 0.06 0 0.97 0.06 0 0.975 0.06 0 0.98 0.06 0 0.985 0.06 0 0.99 0.06 0 0.995 0.06 0 1 0.06 0 0 0.08 0 0.005 0.08 0 0.01 0.08 0 0.015 0.08 0 0.02 0.08 0 0.025 0.08 0 0.03 0.08 0 0.035 0.08 0 0.04 0.08 0 0.045 0.08 0 0.05 0.08 0 0.055 0.08 0 0.06 0.08 0 0.065 0.08 0 0.07 0.08 0 0.075 0.08 0 0.08 0.08 0 0.085 0.08 0 0.09 0.08 0 0.095 0.08 0 0.1 0.08 0 0.105 0.08 0 0.11 0.08 0 0.115 0.08 0 0.12 0.08 0 0.125 0.08 0 0.13 0.08 0 0.135 0.08 0 0.14 0.08 0 0.145 0.08 0 0.15 0.08 0 0.155 0.08 0 0.16 0.08 0 0.165 0.08 0
[...]
			<PointData Scalars="VitesseX">
				<DataArray Name="VitesseX" type="Float32" format="ascii">
 0 3.30513e-14 -4.16209e-15 6.23459e-14 -3.87288e-14 -2.66104e-14 3.60491e-15 -3.83791e-15 1.96696e-14 -2.46726e-14 1.6504e-15 -1.26006e-13 5.14775e-14 -1.83533e-13 3.62309e-14 -2.63539e-14 -6.46703e-14 -1.89641e-14 -3.64351e-14 -8.70748e-14 -1.74474e-13 -6.85685e-14 -1.39331e-13 -1.00439e-13 -8.64887e-14 -1.33813e-13 -1.30413e-13 -6.01162e-14 -9.68704e-14 -6.98673e-14 -6.44071e-14 1.98954e-14 1.57531e-14 -6.70439e-14 -1.46614e-13 -3.60627e-14 4.4832e-15 -1.83192e-13 7.97948e-14 -4.7879e-13 -1.82424e-13 -2.30292e-13 -3.38772e-13 4.08577e-14 1.57821e-13 5.47642e-14 2.42298e-13 -4.1797e-13 1.23736e-13 -1.47992e-13 7.88504e-14 -9.38449e-14 -4.68064e-13 2.53984e-13 -3.17874e-13 -1.62937e-13 5.05874e-14 -4.48474e-13 2.2432e-13 -1.17959e-13 7.51069e-14 -1.3638e-13 -2.24503e-13 1.34138e-13 -2.45576e-13 3.37059e-14 -2.14384e-13 -1.34969e-13 2.41963e-14 4.2752e-13 6.42169e-12 7.13323e-11 7.15726e-10 6.63372e-09 5.59984e-08 4.28298e-07 2.94721e-06 1.80964e-05 9.81551e-05 0.000464431 0.001887 0.0064591 0.0182559 0.0420322 0.0792429 0.126204 0.177904 0.231374 0.285352 0.339299 0.392587 0.444664 0.495407 0.544891 0.59305 0.639748 0.684734 0.727652 0.768 0.805172 0.838439 0.867076 0.890501 0.908423 0.921076 0.929209 0.933873 0.936315 0.937821 0.939554 0.942452 0.947554 0.955228 0.970459 0.969062 0.957779 0.9448 0.935743 0.928822 0.92111 0.909395 0.889357 0.855751 0.802756 0.725256 0.621178 0.494417 0.356859 0.227972 0.126131 0.0597306 0.0246416 0.00924981 0.00329128 0.00113596 0.000383912 0.000127438 4.15741e-05 1.33258e-05 4.19478e-06 1.29616e-06 3.92972e-07 1.16859e-07 3.40752e-08 9.74142e-09 2.72976e-09 7.48963e-10 2.02201e-10 5.30227e-11 1.37641e-11 2.84334e-12 -1.18094e-13 3.60381e-13 -2.39498e-13 -2.93172e-14 -3.773e-13 -3.17755e-13 3.62108e-13 3.65223e-13 6.78555e-13 -1.21138e-12 -8.22922e-13 -7.70781e-15 7.23595e-13 5.42648e-13 -5.23688e-13 -6.54704e-13 -9.82923e-14 -9.88062e-14 4.98407e-13 -8.50143e-14 2.08426e-14 -1.71958e-13 -1.24431e-12 5.49509e-13 -2.62266e-13 2.98877e-13 -6.49077e-13 -7.40257e-13 1.66236e-13 7.25165e-13 3.6702e-13 3.0095e-13 -1.08394e-12 2.50147e-13 5.17613e-13 -2.12175e-13 -4.1109e-13 -1.26391e-12 1.34093e-13 1.70015e-13 -8.26449e-13 -2.88128e-13 -3.53052e-13 3.71975e-13 2.96204e-13 -8.35072e-13 2.43728e-13 -1.79817e-13 1.05971e-12 0 0 -6.05257e-15 1.98699e-14 -2.96729e-14 4.92535e-14 1.82119e-14 1.64696e-14 -1.61673e-14 -3.18145e-14 -5.86369e-15 -8.27633e-14 1.44063e-14 -1.40087e-13 3.55218e-14 -9.67216e-14 -8.10946e-15 1.37312e-14 -9.31087e-14 -7.10168e-14 -4.7603e-14 -5.45616e-14 -1.42799e-13 -8.45379e-14 -1.23585e-13 -1.01251e-13 -5.81261e-14 -1.27654e-13 -7.74178e-14 -6.12762e-14 -2.80415e-15 -1.36503e-14 -1.1971e-13 -4.77513e-14 -1.96891e-14 -6.07868e-14 -7.72947e-14 -1.55418e-13 -4.70483e-14 -3.26063e-13 4.27477e-14 -2.91493e-13 -1.21271e-13 -3.467e-14 -1.8087e-13 2.6989e-14 -6.60527e-14 -1.13579e-13 3.21409e-13 -9.41491e-14 1.784e-13 -1.69802e-13 -3.57435e-13 1.37754e-13 -4.56729e-13 -5.66066e-15 -1.19661e-13 -3.32497e-13 1.20007e-13 -2.39359e-13 9.02657e-14 -1.09227e-13 -2.91908e-14 1.18702e-13 -2.9544e-13 -1.04625e-13 -1.39267e-13 -1.30846e-13 1.31117e-13 -8.92537e-14 6.09317e-13 6.71111e-12 7.07047e-11 7.16532e-10 6.6329e-09 5.59997e-08 4.28296e-07 2.94721e-06 1.80964e-05 9.81551e-05 0.000464431 0.001887 0.0064591 0.0182559 0.0420322 0.0792429 0.126204 0.177904 0.231374 0.285352 0.339299 0.392587 0.444664 0.495407 0.544891 0.59305 0.639748 0.684734 0.727652 0.768 0.805172 0.838439 0.867076 0.890501 0.908423 0.921076 0.929209 0.933873 0.936315 0.937821 0.939554 0.942452 0.947554 0.955228 0.970459 0.969062 0.957779 0.9448 0.935743 0.928822 0.92111 0.909395 0.889357 0.855751 0.802756 0.725256 0.621178 0.494417 0.356859 0.227972 0.126131 0.0597306 0.0246416 0.00924981 0.00329128 0.00113596 0.000383912 0.000127438 4.15741e-05 1.33258e-05 4.19478e-06 1.29616e-06 3.92973e-07 1.16859e-07 3.40755e-08 9.7408e-09 2.72942e-09 7.50229e-10 2.01428e-10 5.30946e-11 1.31537e-11 3.26059e-12 8.60178e-13 -6.20206e-13 -6.0868e-14 -6.71085e-13 2.40297e-13 1.63245e-13 -2.47962e-13 -2.0824e-13 -7.09059e-13 6.6823e-13 2.47268e-13 -2.30527e-13 -7.3676e-13 -5.84411e-13 2.50577e-13 2.56399e-13 -4.80959e-14 2.8869e-13 -4.38789e-13 7.19262e-15 -2.15117e-13 -1.30458e-13 5.0355e-13 -4.88396e-13 -6.68175e-13 -5.37115e-13 -6.54151e-14 2.62456e-13 -1.633e-13 -1.27016e-14 -8.42803e-15 -4.22757e-15 1.07534e-12 -2.55255e-13 -5.22726e-13 3.4007e-14 -6.25032e-14 3.03712e-13 -5.90165e-13 -7.06579e-13 9.57883e-15 -3.49512e-13 2.56931e-13 -1.10673e-12 -3.52903e-13 8.23998e-13 3.17014e-13 1.55306e-13 -1.16352e-12 0 0 -4.04644e-15 -5.55959e-15 2.435e-14 3.77989e-14 2.37815e-14 6.76758e-15 -9.024e-15 1.48689e-14 -4.51102e-14 -1.59407e-14 -8.00799e-14 -4.24114e-14 -5.77463e-14 -3.19172e-14 -2.75898e-14 -5.45359e-14 1.57362e-14 -1.26241e-13 -6.37648e-14 -8.25575e-14 -3.23149e-14 -7.5756e-14 -7.23127e-14 -7.67483e-14 -9.0031e-14 -5.88453e-14 -7.08149e-15 -1.12641e-13 -5.0143e-14 -8.76293e-14 1.77219e-14 -1.69514e-13 -5.61955e-14 -7.67891e-14 -6.90827e-14 -1.48093e-14 -2.1198e-13 -1.42651e-13 -1.55895e-13 -1.21448e-13 -8.18489e-14 -6.76661e-14 -9.82092e-14 -4.9805e-14 1.58233e-13 5.54179e-14 -1.66942e-13 -3.49473e-14 -2.8971e-13 -2.93495e-14 -2.17717e-14 -1.36072e-13 2.36142e-14 -2.16302e-13 -1.41133e-13 -1.56189e-13 -2.17692e-13 1.16947e-13 -3.85182e-14 2.21755e-14 1.11584e-14 -1.09077e-13 -1.3842e-13 -1.19477e-13 -9.08813e-14 1.27504e-13 -3.18565e-13 1.33158e-13 7.3578e-13 6.54792e-12 7.10904e-11 7.1623e-10 6.63377e-09 5.59989e-08 4.28297e-07 2.94721e-06 1.80964e-05 9.81551e-05 0.000464431 0.001887 0.0064591 0.0182559 0.0420322 0.0792429 0.126204 0.177904 0.231374 0.285352 0.339299 0.392587 0.444664 0.495407 0.544891 0.59305 0.639748 0.684734 0.727652 0.768 0.805172 0.838439 0.867076 0.890501 0.908423 0.921076 0.929209 0.933873 0.936315 0.937821 0.939554 0.942452 0.947554 0.955228 0.970459 0.969062 0.957779 0.9448 0.935743 0.928822 0.92111 0.909395 0.889357 0.855751 0.802756 0.725256 0.621178 0.494417 0.356859 0.227972 0.126131 0.0597306 0.0246416 0.00924981 0.00329128 0.00113596 0.000383912 0.000127438 4.15741e-05 1.33258e-05 4.19478e-06 1.29616e-06 3.92973e-07 1.16859e-07 3.40754e-08 9.7412e-09 2.72954e-09 7.49297e-10 2.01719e-10 5.28633e-11 1.37725e-11 2.97342e-12 3.05349e-13 1.98951e-14 -5.06919e-13 -1.56371e-13 -1.06758e-13 -1.95515e-13 -8.99393e-14 -3.3931e-13 7.65413e-14 -2.34884e-13 -2.39047e-13 -3.77364e-13 -4.78861e-14 -1.78934e-13 -4.86972e-13 -2.03505e-13 3.11078e-13 4.70226e-14 -6.81371e-14 -1.29777e-13 1.30474e-13 3.76188e-14 -2.47644e-13 -3.29449e-13 -8.11814e-13 1.05565e-14 -2.21497e-13 1.08754e-13 -7.93673e-15 1.00965e-13 3.01804e-13 -3.16013e-13 1.51532e-13 1.13488e-13 -2.28499e-13 6.87235e-13 -3.12013e-13 -2.57736e-13 2.2266e-13 -4.2686e-13 -1.94249e-13 -5.82111e-14 -7.2471e-13 -2.28884e-13 5.15148e-14 2.28519e-13 1.8361e-13 4.46544e-13 1.9623e-14 0 0 4.42901e-14 3.39098e-14 5.11453e-14 -1.84019e-14 7.05257e-15 1.72732e-14 -2.68133e-14 -1.87728e-16 -5.92584e-14 -1.12104e-14 -1.70369e-14 1.70045e-15 -6.5724e-14 -2.02189e-14 -9.07613e-15 -7.17704e-14 -9.13796e-14 -1.04086e-13 -5.43785e-14 -9.01667e-14 -2.07055e-14 -9.2662e-14 -6.17824e-14 5.30731e-14 -6.46309e-14 -5.05243e-14 -9.98378e-14 -5.50224e-14 -8.86755e-14 5.78607e-16 -1.11851e-13 -1.75916e-13 -2.28534e-13 -6.64292e-15 2.10396e-14 -6.84687e-15 -2.0875e-13 -1.07374e-13 -1.96681e-13 -7.38927e-14 -1.85406e-13 -8.18248e-14 5.27776e-14 5.4615e-14 -1.81204e-14 9.9533e-14 -2.47637e-13 -9.79642e-14 -5.09676e-14 -1.10258e-13 -5.10649e-14 -3.50471e-13 -4.80436e-14 -2.61706e-13 -1.76198e-13 6.57089e-14 -7.66877e-14 2.30744e-13 -5.14932e-14 -9.11838e-14 -3.24261e-14 1.10476e-13 8.69932e-14 -2.52612e-14 -2.58186e-13 -3.56566e-13 6.9621e-14 2.33512e-14 6.00819e-13 6.50932e-12 7.11637e-11 7.16157e-10 6.63366e-09 5.5999e-08 4.28297e-07 2.94721e-06 1.80964e-05 9.81551e-05 0.000464431 0.001887 0.0064591 0.0182559 0.0420322 0.0792429 0.126204 0.177904 0.231374 0.285352 0.339299 0.392587 0.444664 0.495407 0.544891 0.59305 0.639748 0.684734 0.727652 0.768 0.805172 0.838439 0.867076 0.890501 0.908423 0.921076 0.929209 0.933873 0.936315 0.937821 0.939554 0.942452 0.947554 0.955228 0.970459 0.969062 0.957779 0.9448 0.935743 0.928822 0.92111 0.909395 0.889357 0.855751 0.802756 0.725256 0.621178 0.494417 0.356859 0.227972 0.126131 0.0597306 0.0246416 0.00924981 0.00329128 0.00113596 0.000383912 0.000127438 4.15741e-05 1.33258e-05 4.19478e-06 1.29616e-06 3.92972e-07 1.16859e-07 3.40754e-08 9.74102e-09 2.72937e-09 7.49247e-10 2.0166e-10 5.29093e-11 1.33151e-11 3.32114e-12 1.49974e-13 3.81814e-13 -2.04066e-13 -2.01609e-13 -4.22129e-13 -9.3991e-14 2.91687e-14 1.27401e-13 2.48158e-13 -5.15552e-13 -1.82118e-13 -5.4586e-13 2.57049e-13 -5.04883e-13 -2.48182e-13 -3.53287e-13 -9.3379e-14 -1.56546e-13 1.20685e-13 2.24929e-14 -2.80449e-13 2.7764e-14 -1.22606e-12 2.61184e-13 -4.13162e-13 2.35881e-13 -4.56033e-13 -2.58664e-13 7.15335e-13 4.06011e-13 -2.40614e-13 3.45958e-14 -9.37569e-13 2.79817e-13 5.44591e-13 -3.59102e-13 -2.56296e-13 1.39924e-13 -2.60609e-13 2.09011e-13 -7.44626e-13 1.98534e-13 -8.66553e-13 5.38436e-14 -3.59785e-13 9.63766e-14 1.34362e-13 -1.44833e-13 1.16893e-12 0 0 1.51205e-14 4.07028e-14 -2.56095e-15 7.4548e-15 2.43664e-15 8.2753e-15 -3.8859e-14 -5.53028e-14 -1.35797e-14 -7.6764e-14 6.99792e-14 -9.08166e-14 9.51184e-14 -8.18622e-14 -2.75272e-14 1.8154e-14 -1.41224e-13 -1.25731e-14 -3.2831e-14 -1.42821e-15 -1.14385e-13 -3.97682e-14 -8.37563e-14 2.862e-14 -3.59975e-15 -1.35164e-13 -1.64168e-13 -2.74701e-14 -9.85699e-14 -7.22565e-14 -1.77686e-13 -4.17771e-14 -1.34626e-13 -1.6605e-13 2.94374e-15 -1.53006e-13 8.05595e-16 -3.32297e-13 5.33276e-14 -1.86617e-13 -4.69088e-14 5.5846e-14 -6.35785e-14 5.9727e-14 -1.37011e-13 -5.29761e-14 2.98823e-13 -8.75108e-14 2.66077e-13 -3.13088e-13 -3.5069e-13 -5.10132e-14 -5.16096e-13 -1.24897e-13 -1.38978e-13 -1.44683e-13 4.1801e-13 -1.06532e-13 7.27653e-14 -1.74517e-13 -8.72782e-14 2.17197e-14 -1.87064e-13 3.1861e-14 -2.76672e-13 -3.77227e-13 2.55762e-13 7.22139e-15 7.47361e-13 6.89792e-12 7.10212e-11 7.16602e-10 6.633e-09 5.59998e-08 4.28297e-07 2.94721e-06 1.80964e-05 9.81551e-05 0.000464431 0.001887 0.0064591 0.0182559 0.0420322 0.0792429 0.126204 0.177904 0.231374 0.285352 0.339299 0.392587 0.444664 0.495407 0.544891 0.59305 0.639748 0.684734 0.727652 0.768 0.805172 0.838439 0.867076 0.890501 0.908423 0.921076 0.929209 0.933873 0.936315 0.937821 0.939554 0.942452 0.947554 0.955228 0.970459 0.969062 0.957779 0.9448 0.935743 0.928822 0.92111 0.909395 0.889357 0.855751 0.802756 0.725256 0.621178 0.494417 0.356859 0.227972 0.126131 0.0597306 0.0246416 0.00924981 0.00329128 0.00113596 0.000383912 0.000127438 4.15741e-05 1.33258e-05 4.19478e-06 1.29616e-06 3.92973e-07 1.16859e-07 3.40754e-08 9.74042e-09 2.72928e-09 7.5001e-10 2.01246e-10 5.26863e-11 1.30334e-11 3.38413e-12 1.2314e-12 -5.55509e-13 -3.61834e-13 -2.3095e-13 1.24636e-14 2.15899e-13 9.50993e-14 4.79951e-13 -9.0296e-13 4.32624e-13 3.61651e-13 -5.04385e-13 -9.13128e-13 -4.73825e-13 2.14173e-13 5.56146e-13 -2.7101e-13 1.69767e-13 -4.48477e-13 2.09988e-13 -5.71734e-13 -4.18732e-13 -2.27427e-13 -7.36129e-13 -2.86621e-13 -7.53282e-13 -2.77452e-13 -7.73039e-14 9.58173e-14 2.88548e-14 2.02114e-13 3.45376e-13 5.97782e-13 -1.42155e-13 -7.5242e-14 -8.01522e-13 -2.64754e-13 7.42544e-13 -5.30491e-13 -4.209e-13 -2.49576e-13 -2.38519e-13 2.26909e-13 -6.81467e-13 -5.90474e-13 9.92131e-13 4.30413e-13 -2.67747e-13 -1.57718e-13 0 0 -2.12755e-14 -4.1435e-14 6.29791e-14 -9.92471e-15 -2.47031e-14 -3.37948e-14 -1.36428e-14 2.80609e-15 -1.18082e-14 4.18842e-15 -1.40946e-13 6.17949e-14 -4.8384e-14 4.25529e-14 -1.02217e-13 -2.13556e-14 9.90369e-14 3.61431e-14 -7.63034e-14 -5.29882e-14 -3.49603e-14 -1.59797e-14 -4.18419e-14 -8.63904e-14 -7.55604e-14 -1.62074e-13 -4.81034e-14 -1.44496e-13 -1.84334e-13 -3.58035e-13 1.63088e-13 4.05064e-14 4.77602e-14 -4.97432e-13 -5.58304e-14 -6.61727e-15 -9.3942e-14 -3.22641e-15 -3.76057e-13 -6.77814e-14 1.25545e-13 -1.29422e-13 -2.65333e-14 1.44571e-14 2.65555e-13 2.75273e-13 -3.0175e-13 2.63046e-13 -4.50123e-13 -4.59043e-14 -2.17671e-14 -4.16799e-13 2.78566e-13 -4.65538e-13 -1.31442e-13 -1.75822e-14 -1.34477e-13 2.6238e-13 -1.2701e-13 1.71246e-13 -1.65386e-13 -8.57574e-13 -9.99356e-14 -1.61035e-13 9.35062e-14 2.60995e-13 -6.62052e-13 4.3676e-13 9.73529e-13 6.8725e-12 7.18187e-11 7.16011e-10 6.63415e-09 5.59986e-08 4.28297e-07 2.94721e-06 1.80964e-05 9.81551e-05 0.000464431 0.001887 0.0064591 0.0182559 0.0420322 0.0792429 0.126204 0.177904 0.231374 0.285352 0.339299 0.392587 0.444664 0.495407 0.544891 0.59305 0.639748 0.684734 0.727652 0.768 0.805172 0.838439 0.867076 0.890501 0.908423 0.921076 0.929209 0.933873 0.936315 0.937821 0.939554 0.942452 0.947554 0.955228 0.970459 0.969062 0.957779 0.9448 0.935743 0.928822 0.92111 0.909395 0.889357 0.855751 0.802756 0.725256 0.621178 0.494417 0.356859 0.227972 0.126131 0.0597306 0.0246416 0.00924981 0.00329128 0.00113596 0.000383912 0.000127438 4.15741e-05 1.33258e-05 4.19478e-06 1.29616e-06 3.92973e-07 1.16859e-07 3.4075e-08 9.74102e-09 2.72981e-09 7.48626e-10 2.01953e-10 5.21142e-11 1.44382e-11 2.39498e-12 9.35098e-13 -2.34063e-13 -1.44714e-12 9.41428e-13 -2.02225e-13 -4.15495e-13 8.10014e-13 8.08183e-13 -5.24796e-14 -1.12126e-12 -7.08015e-13 -2.1843e-13 -2.39011e-13 1.41572e-12 -1.07408e-12 2.44354e-13 2.64793e-13 7.04832e-14 1.01389e-13 1.60377e-14 1.29455e-13 -7.28797e-13 -7.49435e-13 -1.12722e-12 -2.96463e-13 -5.84107e-13 -6.04077e-13 -6.8494e-13 -7.62072e-13 1.98186e-13 1.87294e-12 2.98938e-13 1.39152e-13 1.43688e-13 -1.336e-13 2.09442e-13 -9.27026e-13 -1.18157e-12 1.21998e-12 -5.30368e-13 -2.44006e-13 -5.79631e-13 -1.29409e-13 6.57056e-13 6.4366e-13 -2.34522e-13 5.69022e-13 1.56832e-13 7.72701e-13 0
				</DataArray>
				<DataArray Name="VitesseY" type="Float32" format="ascii">