<?xml version="1.0"?>
<VTKFile type="PolyData">
	<PolyData>
		<Piece NumberOfPoints="1206" NumberOfPolys="1000">
			<Points>
				<DataArray type="Float32" NumberOfComponents="3" format="ascii">
 0 0 0 0.005 0 0 0.01 0 0 0.015 0 0 0.02 0 0 0.025 0 0 0.03 0 0 0.035 0 0 0.04 0 0 0.045 0 0 0.05 0 0 0.055 0 0 0.06 0 0 0.065 0 0 0.07 0 0 0.075 0 0 0.08 0 0 0.085 0 0 0.09 0 0 0.095 0 0 0.1 0 0 0.105 0 0 0.11 0 0 0.115 0 0 0.12 0 0 0.125 0 0 0.13 0 0 0.135 0 0 0.14 0 0 0.145 0 0 0.15 0 0 0.155 0 0 0.16 0 0 0.165 0 0 0.17 0 0 0.175 0 0 0.18 0 0 0.185 0 0 0.19 0 0 0.195 0 0 0.2 0 0 0.205 0 0 0.21 0 0 0.215 0 0 0.22 0 0 0.225 0 0 0.23 0 0 0.235 0 0 0.24 0 0 0.245 0 0 0.25 0 0 0.255 0 0 0.26 0 0 0.265 0 0 0.27 0 0 0.275 0 0 0.28 0 0 0.285 0 0 0.29 0 0 0.295 0 0 0.3 0 0 0.305 0 0 0.31 0 0 0.315 0 0 0.32 0 0 0.325 0 0 0.33 0 0 0.335 0 0 0.34 0 0 0.345 0 0 0.35 0 0 0.355 0 0 0.36 0 0 0.365 0 0 0.37 0 0 0.375 0 0 0.38 0 0 0.385 0 0 0.39 0 0 0.395 0 0 0.4 0 0 0.405 0 0 0.41 0 0 0.415 0 0 0.42 0 0 0.425 0 0 0.43 0 0 0.435 0 0 0.44 0 0 0.445 0 0 0.45 0 0 0.455 0 0 0.46 0 0 0.465 0 0 0.47 0 0 0.475 0 0 0.48 0 0 0.485 0 0 0.49 0 0 0.495 0 0 0.5 0 0 0.505 0 0 0.51 0 0 0.515 0 0 0.52 0 0 0.525 0 0 0.53 0 0 0.535 0 0 0.54 0 0 0.545 0 0 0.55 0 0 0.555 0 0 0.56 0 0 0.565 0 0 0.57 0 0 0.575 0 0 0.58 0 0 0.585 0 0 0.59 0 0 0.595 0 0 0.6 0 0 0.605 0 0 0.61 0 0 0.615 0 0 0.62 0 0 0.625 0 0 0.63 0 0 0.635 0 0 0.64 0 0 0.645 0 0 0.65 0 0 0.655 0 0 0.66 0 0 0.665 0 0 0.67 0 0 0.675 0 0 0.68 0 0 0.685 0 0 0.69 0 0 0.695 0 0 0.7 0 0 0.705 0 0 0.71 0 0 0.715 0 0 0.72 0 0 0.725 0 0 0.73 0 0 0.735 0 0 0.74 0 0 0.745 0 0 0.75 0 0 0.755 0 0 0.76 0 0 0.765 0 0 0.77 0 0 0.775 0 0 0.78 0 0 0.785 0 0 0.79 0 0 0.795 0 0 0.8 0 0 0.805 0 0 0.81 0 0 0.815 0 0 0.82 0 0 0.825 0 0 0.83 0 0 0.835 0 0 0.84 0 0 0.845 0 0 0.85 0 0 0.855 0 0 0.86 0 0 0.865 0 0 0.87 0 0 0.875 0 0 0.88 0 0 0.885 0 0 0.89 0 0 0.895 0 0 0.9 0 0 0.905 0 0 0.91 0 0 0.915 0 0 0.92 0 0 0.925 0 0 0.93 0 0 0.935 0 0 0.94 0 0 0.945 0 0 0.95 0 0 0.955 0 0 0.96 0 0 0.965 0 0 0.97 0 0 0.975 0 0 0.98 0 0 0.985 0 0 0.99 0 0 0.995 0 0 1 0 0 0 0.02 0 0.005 0.02 0 0.01 0.02 0 0.015 0.02 0 0.02 0.02 0 0.025 0.02 0 0.03 0.02 0 0.035 0.02 0 0.04 0.02 0 0.045 0.02 0 0.05 0.02 0 0.055 0.02 0 0.06 0.02 0 0.065 0.02 0 0.07 0.02 0 0.075 0.02 0 0.08 0.02 0 0.085 0.02 0 0.09 0.02 0 0.095 0.02 0 0.1 0.02 0 0.105 0.02 0 0.11 0.02 0 0.115 0.02 0 0.12 0.02 0 0.125 0.02 0 0.13 0.02 0 0.135 0.02 0 0.14 0.02 0 0.145 0.02 0 0.15 0.02 0 0.155 0.02 0 0.16 0.02 0 0.165 0.02 0 0.17 0.02 0 0.175 0.02 0 0.18 0.02 0 0.185 0.02 0 0.19 0.02 0 0.195 0.02 0 0.2 0.02 0 0.205 0.02 0 0.21 0.02 0 0.215 0.02 0 0.22 0.02 0 0.225 0.02 0 0.23 0.02 0 0.235 0.02 0 0.24 0.02 0 0.245 0.02 0 0.25 0.02 0 0.255 0.02 0 0.26 0.02 0 0.265 0.02 0 0.27 0.02 0 0.275 0.02 0 0.28 0.02 0 0.285 0.02 0 0.29 0.02 0 0.295 0.02 0 0.3 0.02 0 0.305 0.02 0 0.31 0.02 0 0.315 0.02 0 0.32 0.02 0 0.325 0.02 0 0.33 0.02 0 0.335 0.02 0 0.34 0.02 0 0.345 0.02 0 0.35 0.02 0 0.355 0.02 0 0.36 0.02 0 0.365 0.02 0 0.37 0.02 0 0.375 0.02 0 0.38 0.02 0 0.385 0.02 0 0.39 0.02 0 0.395 0.02 0 0.4 0.02 0 0.405 0.02 0 0.41 0.02 0 0.415 0.02 0 0.42 0.02 0 0.425 0.02 0 0.43 0.02 0 0.435 0.02 0 0.44 0.02 0 0.445 0.02 0 0.45 0.02 0 0.455 0.02 0 0.46 0.02 0 0.465 0.02 0 0.47 0.02 0 0.475 0.02 0 0.48 0.02 0 0.485 0.02 0 0.49 0.02 0 0.495 0.02 0 0.5 0.02 0 0.505 0.02 0 0.51 0.02 0 0.515 0.02 0 0.52 0.02 0 0.525 0.02 0 0.53 0.02 0 0.535 0.02 0 0.54 0.02 0 0.545 0.02 0 0.55 0.02 0 0.555 0.02 0 0.56 0.02 0 0.565 0.02 0 0.57 0.02 0 0.575 0.02 0 0.58 0.02 0 0.585 0.02 0 0.59 0.02 0 0.595 0.02 0 0.6 0.02 0 0.605 0.02 0 0.61 0.02 0 0.615 0.02 0 0.62 0.02 0 0.625 0.02 0 0.63 0.02 0 0.635 0.02 0 0.64 0.02 0 0.645 0.02 0 0.65 0.02 0 0.655 0.02 0 0.66 0.02 0 0.665 0.02 0 0.67 0.02 0 0.675 0.02 0 0.68 0.02 0 0.685 0.02 0 0.69 0.02 0 0.695 0.02 0 0.7 0.02 0 0.705 0.02 0 0.71 0.02 0 0.715 0.02 0 0.72 0.02 0 0.725 0.02 0 0.73 0.02 0 0.735 0.02 0 0.74 0.02 0 0.745 0.02 0 0.75 0.02 0 0.755 0.02 0 0.76 0.02 0 0.765 0.02 0 0.77 0.02 0 0.775 0.02 0 0.78 0.02 0 0.785 0.02 0 0.79 0.02 0 0.795 0.02 0 0.8 0.02 0 0.805 0.02 0 0.81 0.02 0 0.815 0.02 0 0.82 0.02 0 0.825 0.02 0 0.83 0.02 0 0.835 0.02 0 0.84 0.02 0 0.845 0.02 0 0.85 0.02 0 0.855 0.02 0 0.86 0.02 0 0.865 0.02 0 0.87 0.02 0 0.875 0.02 0 0.88 0.02 0 0.885 0.02 0 0.89 0.02 0 0.895 0.02 0 0.9 0.02 0 0.905 0.02 0 0.91 0.02 0 0.915 0.02 0 0.92 0.02 0 0.925 0.02 0 0.93 0.02 0 0.935 0.02 0 0.94 0.02 0 0.945 0.02 0 0.95 0.02 0 0.955 0.02 0 0.96 0.02 0 0.965 0.02 0 0.97 0.02 0 0.975 0.02 0 0.98 0.02 0 0.985 0.02 0 0.99 0.02 0 0.995 0.02 0 1 0.02 0 0 0.04 0 0.005 0.04 0 0.01 0.04 0 0.015 0.04 0 0.02 0.04 0 0.025 0.04 0 0.03 0.04 0 0.035 0.04 0 0.04 0.04 0 0.045 0.04 0 0.05 0.04 0 0.055 0.04 0 0.06 0.04 0 0.065 0.04 0 0.07 0.04 0 0.075 0.04 0 0.08 0.04 0 0.085 0.04 0 0.09 0.04 0 0.095 0.04 0 0.1 0.04 0 0.105 0.04 0 0.11 0.04 0 0.115 0.04 0 0.12 0.04 0 0.125 0.04 0 0.13 0.04 0 0.135 0.04 0 0.14 0.04 0 0.145 0.04 0 0.15 0.04 0 0.155 0.04 0 0.16 0.04 0 0.165 0.04 0 0.17 0.04 0 0.175 0.04 0 0.18 0.04 0 0.185 0.04 0 0.19 0.04 0 0.195 0.04 0 0.2 0.04 0 0.205 0.04 0 0.21 0.04 0 0.215 0.04 0 0.22 0.04 0 0.225 0.04 0 0.23 0.04 0 0.235 0.04 0 0.24 0.04 0 0.245 0.04 0 0.25 0.04 0 0.255 0.04 0 0.26 0.04 0 0.265 0.04 0 0.27 0.04 0 0.275 0.04 0 0.28 0.04 0 0.285 0.04 0 0.29 0.04 0 0.295 0.04 0 0.3 0.04 0 0.305 0.04 0 0.31 0.04 0 0.315 0.04 0 0.32 0.04 0 0.325 0.04 0 0.33 0.04 0 0.335 0.04 0 0.34 0.04 0 0.345 0.04 0 0.35 0.04 0 0.355 0.04 0 0.36 0.04 0 0.365 0.04 0 0.37 0.04 0 0.375 0.04 0 0.38 0.04 0 0.385 0.04 0 0.39 0.04 0 0.395 0.04 0 0.4 0.04 0 0.405 0.04 0 0.41 0.04 0 0.415 0.04 0 0.42 0.04 0 0.425 0.04 0 0.43 0.04 0 0.435 0.04 0 0.44 0.04 0 0.445 0.04 0 0.45 0.04 0 0.455 0.04 0 0.46 0.04 0 0.465 0.04 0 0.47 0.04 0 0.475 0.04 0 0.48 0.04 0 0.485 0.04 0 0.49 0.04 0 0.495 0.04 0 0.5 0.04 0 0.505 0.04 0 0.51 0.04 0 0.515 0.04 0 0.52 0.04 0 0.525 0.04 0 0.53 0.04 0 0.535 0.04 0 0.54 0.04 0 0.545 0.04 0 0.55 0.04 0 0.555 0.04 0 0.56 0.04 0 0.565 0.04 0 0.57 0.04 0 0.575 0.04 0 0.58 0.04 0 0.585 0.04 0 0.59 0.04 0 0.595 0.04 0 0.6 0.04 0 0.605 0.04 0 0.61 0.04 0 0.615 0.04 0 0.62 0.04 0 0.625 0.04 0 0.63 0.04 0 0.635 0.04 0 0.64 0.04 0 0.645 0.04 0 0.65 0.04 0 0.655 0.04 0 0.66 0.04 0 0.665 0.04 0 0.67 0.04 0 0.675 0.04 0 0.68 0.04 0 0.685 0.04 0 0.69 0.04 0 0.695 0.04 0 0.7 0.04 0 0.705 0.04 0 0.71 0.04 0 0.715 0.04 0 0.72 0.04 0 0.725 0.04 0 0.73 0.04 0 0.735 0.04 0 0.74 0.04 0 0.745 0.04 0 0.75 0.04 0 0.755 0.04 0 0.76 0.04 0 0.765 0.04 0 0.77 0.04 0 0.775 0.04 0 0.78 0.04 0 0.785 0.04 0 0.79 0.04 0 0.795 0.04 0 0.8 0.04 0 0.805 0.04 0 0.81 0.04 0 0.815 0.04 0 0.82 0.04 0 0.825 0.04 0 0.83 0.04 0 0.835 0.04 0 0.84 0.04 0 0.845 0.04 0 0.85 0.04 0 0.855 0.04 0 0.86 0.04 0 0.865 0.04 0 0.87 0.04 0 0.875 0.04 0 0.88 0.04 0 0.885 0.04 0 0.89 0.04 0 0.895 0.04 0 0.9 0.04 0 0.905 0.04 0 0.91 0.04 0 0.915 0.04 0 0.92 0.04 0 0.925 0.04 0 0.93 0.04 0 0.935 0.04 0 0.94 0.04 0 0.945 0.04 0 0.95 0.04 0 0.955 0.04 0 0.96 0.04 0 0.965 0.04 0 0.97 0.04 0 0.975 0.04 0 0.98 0.04 0 0.985 0.04 0 0.99 0.04 0 0.995 0.04 0 1 0.04 0 0 0.06 0 0.005 0.06 0 0.01 0.06 0 0.015 0.06 0 0.02 0.06 0 0.025 0.06 0 0.03 0.06 0 0.035 0.06 0 0.04 0.06 0 0.045 0.06 0 0.05 0.06 0 0.055 0.06 0 0.06 0.06 0 0.065 0.06 0 0.07 0.06 0 0.075 0.06 0 0.08 0.06 0 0.085 0.06 0 0.09 0.06 0 0.095 0.06 0 0.1 0.06 0 0.105 0.06 0 0.11 0.06 0 0.115 0.06 0 0.12 0.06 0 0.125 0.06 0 0.13 0.06 0 0.135 0.06 0 0.14 0.06 0 0.145 0.06 0 0.15 0.06 0 0.155 0.06 0 0.16 0.06 0 0.165 0.06 0 0.17 0.06 0 0.175 0.06 0 0.18 0.06 0 0.185 0.06 0 0.19 0.06 0 0.195 0.06 0 0.2 0.06 0 0.205 0.06 0 0.21 0.06 0 0.215 0.06 0 0.22 0.06 0 0.225 0.06 0 0.23 0.06 0 0.235 0.06 0 0.24 0.06 0 0.245 0.06 0 0.25 0.06 0 0.255 0.06 0 0.26 0.06 0 0.265 0.06 0 0.27 0.06 0 0.275 0.06 0 0.28 0.06 0 0.285 0.06 0 0.29 0.06 0 0.295 0.06 0 0.3 0.06 0 0.305 0.06 0 0.31 0.06 0 0.315 0.06 0 0.32 0.06 0 0.325 0.06 0 0.33 0.06 0 0.335 0.06 0 0.34 0.06 0 0.345 0.06 0 0.35 0.06 0 0.355 0.06 0 0.36 0.06 0 0.365 0.06 0 0.37 0.06 0 0.375 0.06 0 0.38 0.06 0 0.385 0.06 0 0.39 0.06 0 0.395 0.06 0 0.4 0.06 0 0.405 0.06 0 0.41 0.06 0 0.415 0.06 0 0.42 0.06 0 0.425 0.06 0 0.43 0.06 0 0.435 0.06 0 0.44 0.06 0 0.445 0.06 0 0.45 0.06 0 0.455 0.06 0 0.46 0.06 0 0.465 0.06 0 0.47 0.06 0 0.475 0.06 0 0.48 0.06 0 0.485 0.06 0 0.49 0.06 0 0.495 0.06 0 0.5 0.06 0 0.505 0.06 0 0.51 0.06 0 0.515 0.06 0 0.52 0.06 0 0.525 0.06 0 0.53 0.06 0 0.535 0.06 0 0.54 0.06 0 0.545 0.06 0 0.55 0.06 0 0.555 0.06 0 0.56 0.06 0 0.565 0.06 0 0.57 0.06 0 0.575 0.06 0 0.58 0.06 0 0.585 0.06 0 0.59 0.06 0 0.595 0.06 0 0.6 0.06 0 0.605 0.06 0 0.61 0.06 0 0.615 0.06 0 0.62 0.06 0 0.625 0.06 0 0.63 0.06 0 0.635 0.06 0 0.64 0.06 0 0.645 0.06 0 0.65 0.06 0 0.655 0.06 0 0.66 0.06 0 0.665 0.06 0 0.67 0.06 0 0.675 0.06 0 0.68 0.06 0 0.685 0.06 0 0.69 0.06 0 0.695 0.06 0 0.7 0.06 0 0.705 0.06 0 0.71 0.06 0 0.715 0.06 0 0.72 0.06 0 0.725 0.06 0 0.73 0.06 0 0.735 0.06 0 0.74 0.06 0 0.745 0.06 0 0.75 0.06 0 0.755 0.06 0 0.76 0.06 0 0.765 0.06 0 0.77 0.06 0 0.775 0.06 0 0.78 0.06 0 0.785 0.06 0 0.79 0.06 0 0.795 0.06 0 0.8 0.06 0 0.805 0.06 0 0.81 0.06 0 0.815 0.06 0 0.82 0.06 0 0.825 0.06 0 0.83 0.06 0 0.835 0.06 0 0.84 0.06 0 0.845 0.06 0 0.85 0.06 0 0.855 0.06 0 0.86 0.06 0 0.865 0.06 0 0.87 0.06 0 0.875 0.06 0 0.88 0.06 0 0.885 0.06 0 0.89 0.06 0 0.895 0.06 0 0.9 0.06 0 0.905 0.06 0 0.91 0.06 0 0.915 0.06 0 0.92 0.06 0 0.925 0.06 0 0.93 0.06 0 0.935 0.06 0 0.94 0.06 0 0.945 0.06 0 0.95 0.06 0 0.955 0.06 0 0.96 0.06 0 0.965 0.06 0 0.97 0.06 0 0.975 0.06 0 0.98 0.06 0 0.985 0.06 0 0.99 0.06 0 0.995 0.06 0 1 0.06 0 0 0.08 0 0.005 0.08 0 0.01 0.08 0 0.015 0.08 0 0.02 0.08 0 0.025 0.08 0 0.03 0.08 0 0.035 0.08 0 0.04 0.08 0 0.045 0.08 0 0.05 0.08 0 0.055 0.08 0 0.06 0.08 0 0.065 0.08 0 0.07 0.08 0 0.075 0.08 0 0.08 0.08 0 0.085 0.08 0 0.09 0.08 0 0.095 0.08 0 0.1 0.08 0 0.105 0.08 0 0.11 0.08 0 0.115 0.08 0 0.12 0.08 0 0.125 0.08 0 0.13 0.08 0 0.135 0.08 0 0.14 0.08 0 0.145 0.08 0 0.15 0.08 0 0.155 0.08 0 0.16 0.08 0 0.165 0.08 0
[...]
			<PointData Scalars="VitesseX">
				<DataArray Name="VitesseX" type="Float32" format="ascii">
 0 1.3906e-14 -5.32338e-14 6.82881e-14 -2.70403e-14 -5.13719e-14 -1.05341e-13 1.82887e-14 -4.11709e-14 2.53901e-14 -4.69298e-14 -1.52413e-13 1.77051e-13 -2.76358e-13 4.75338e-14 -4.26044e-14 -1.00739e-13 1.53596e-13 -1.15413e-13 -2.68492e-14 -3.76821e-15 6.39401e-14 5.95363e-14 -2.04192e-13 -2.51106e-13 2.38964e-14 2.87024e-13 2.09295e-13 -1.57848e-13 -1.57904e-15 -4.88484e-13 -2.49719e-14 -1.3742e-14 1.89877e-13 2.02328e-14 -1.77769e-13 2.70937e-13 -3.04812e-13 -1.52612e-14 -4.24141e-13 3.97169e-13 -4.16365e-14 -1.37855e-13 -1.99708e-13 1.60203e-13 2.29107e-14 7.89395e-13 -6.95255e-13 5.47352e-15 -5.33041e-13 -6.34941e-14 5.93425e-13 -4.7471e-13 2.51522e-13 -1.0621e-12 3.39305e-13 9.0593e-13 -7.67101e-13 7.26538e-13 -6.03522e-13 -5.31836e-15 1.82768e-13 -3.48399e-13 4.73164e-13 -2.5338e-13 -7.90988e-14 1.04463e-13 -7.745e-13 7.75963e-13 -2.13053e-14 -3.08473e-13 5.50888e-13 -1.39164e-12 9.76787e-13 -1.19145e-13 1.192e-13 -2.80516e-13 -3.85273e-13 9.61961e-13 -5.56679e-13 1.93403e-13 1.62406e-13 -6.73545e-13 2.06168e-13 -7.49506e-13 9.87529e-13 3.00472e-12 7.88372e-11 2.33159e-09 5.73183e-08 1.16147e-06 1.89635e-05 0.000242064 0.00231683 0.0156693 0.0694859 0.192039 0.352782 0.509781 0.624995 0.740318 0.82117 0.897199 0.998391 0.988321 0.911814 0.794406 0.647757 0.475604 0.299024 0.153391 0.0608916 0.0186707 0.0047659 0.00109151 0.000231989 4.62561e-05 8.68404e-06 1.53794e-06 2.57313e-07 4.07267e-08 6.10618e-09 8.68887e-10 1.17369e-10 1.55496e-11 1.59798e-12 -8.30336e-13 6.49974e-13 5.93304e-14 5.73575e-13 -2.51397e-13 -1.04505e-12 6.39435e-13 -7.97649e-15 1.75545e-13 -8.37534e-13 -1.528e-12 4.20353e-13 5.32236e-13 1.51127e-13 -1.17908e-13 -3.44426e-13 -5.88783e-13 -3.0595e-13 1.30398e-12 2.63476e-13 -2.48218e-13 5.86451e-13 -4.18931e-14 1.21421e-12 -7.92002e-13 -3.18095e-13 2.97938e-13 -5.58898e-13 1.0553e-12 8.55035e-14 -1.27017e-12 1.41356e-13 4.94738e-13 8.2055e-13 -8.55266e-13 -1.92697e-12 3.38279e-13 9.99148e-13 7.68638e-13 -9.14085e-13 -1.35565e-12 9.1573e-13 -4.14338e-14 -2.28209e-13 7.90477e-13 4.30788e-13 2.8461e-13 -1.07253e-12 1.09404e-13 9.10411e-13 2.02412e-13 1.01715e-14 -9.77075e-13 -1.02579e-13 7.62975e-13 1.81514e-13 -6.65527e-14 -1.32415e-12 1.72576e-13 2.24185e-13 -5.76049e-13 -6.95986e-13 -1.593e-12 4.06268e-13 1.91698e-12 -9.71641e-13 -4.29976e-14 -1.87515e-12 2.23375e-12 2.86736e-13 -1.22704e-12 4.73012e-13 6.40657e-13 1.92629e-12 0 0 -2.52467e-14 1.38284e-14 -5.87484e-14 -1.02264e-14 -5.40357e-15 -1.10387e-14 -8.69226e-14 -3.20155e-14 -8.3767e-14 -9.30995e-14 6.80336e-14 -1.61734e-13 9.57716e-14 -1.94156e-13 9.80288e-15 7.68186e-14 -2.47664e-13 9.45579e-14 4.3906e-14 6.3754e-14 -2.97462e-14 -9.67025e-14 -8.85815e-14 -8.42142e-14 -2.2241e-14 1.63252e-13 2.67234e-14 6.5581e-14 -1.81931e-13 -4.15206e-14 -3.99376e-13 -2.32514e-14 1.71297e-13 8.04157e-14 7.93463e-14 -3.19049e-13 3.32255e-14 -3.0095e-13 2.40544e-13 -1.4275e-13 7.93889e-14 4.52747e-15 -9.95638e-15 -1.53602e-13 2.62353e-13 -3.75127e-13 3.33548e-13 -4.30923e-13 9.8824e-14 -1.22341e-13 -4.56108e-13 2.4261e-13 -6.58696e-13 4.758e-13 1.19707e-13 -4.49292e-13 7.02676e-13 -6.01218e-13 3.97073e-13 -2.0312e-13 -1.68708e-13 4.16421e-13 -1.31238e-13 1.07873e-13 -1.19082e-13 -3.50266e-13 2.77424e-13 -1.34076e-13 -1.95771e-13 2.97003e-13 -6.08009e-13 4.64092e-13 -6.33153e-13 7.32974e-14 -1.70656e-13 3.20805e-13 2.17553e-13 -6.01579e-13 6.10492e-13 -5.34431e-13 2.78634e-14 4.38351e-13 -7.0748e-13 1.29907e-13 4.27064e-13 2.01968e-12 8.03813e-11 2.3323e-09 5.73166e-08 1.16147e-06 1.89635e-05 0.000242064 0.00231683 0.0156693 0.0694859 0.192039 0.352782 0.509781 0.624995 0.740318 0.82117 0.897199 0.998391 0.988321 0.911814 0.794406 0.647757 0.475604 0.299024 0.153391 0.0608916 0.0186707 0.0047659 0.00109151 0.000231989 4.62561e-05 8.68404e-06 1.53794e-06 2.57312e-07 4.07277e-08 6.10641e-09 8.68246e-10 1.17421e-10 1.47599e-11 2.06084e-12 -1.00166e-13 1.22806e-13 3.04239e-13 -3.80522e-13 1.29126e-13 -1.04592e-13 -7.08189e-14 2.82554e-13 -7.6294e-13 -2.2966e-13 -4.67524e-13 -4.61791e-13 5.05373e-13 4.21749e-13 -2.02236e-13 -1.52135e-13 -5.32905e-13 -2.08681e-13 2.71225e-14 5.44469e-13 1.05689e-12 -4.00109e-13 3.79201e-13 -3.64451e-13 5.58929e-13 1.5151e-13 -6.75775e-13 5.55453e-13 -3.8893e-13 1.54728e-13 1.62404e-13 8.17922e-14 -2.11731e-13 -7.00333e-13 3.80297e-13 1.2403e-13 -1.89879e-13 -5.89611e-13 -5.99461e-13 4.26588e-13 1.33704e-13 -1.79622e-13 3.96586e-13 -1.74155e-13 6.46019e-14 1.26295e-13 7.56464e-14 9.16453e-13 -4.67693e-13 -1.08221e-13 6.28071e-14 6.10473e-15 7.37985e-13 -2.87033e-13 -3.81562e-13 -2.98547e-13 -2.88145e-13 1.16248e-12 -1.02344e-12 -6.40387e-13 -7.46241e-13 -8.42847e-13 4.41146e-13 1.42051e-13 -7.24072e-13 9.357e-13 -6.43005e-13 1.27979e-13 -1.3185e-12 2.69691e-13 1.68944e-12 2.67075e-14 1.14746e-12 -9.58993e-13 0 0 -2.67476e-14 -1.84158e-14 -2.10665e-14 -8.56646e-14 -1.07642e-14 2.52952e-15 -6.07949e-14 -1.32835e-13 -4.12713e-14 -3.85953e-14 -1.19475e-13 9.01362e-15 2.38482e-14 1.24574e-14 -8.37472e-14 -7.74398e-14 7.97575e-15 -3.52476e-14 2.86584e-14 2.23013e-14 -7.68329e-14 -2.7117e-13 2.43127e-14 9.90882e-14 -1.36e-14 -7.56975e-15 -2.38008e-14 3.52569e-14 -5.56488e-14 -2.36037e-13 -1.76167e-13 -2.34977e-13 8.01388e-14 3.24779e-13 -6.72768e-14 -8.05545e-14 -2.09991e-13 2.36838e-15 -3.75193e-14 2.16543e-14 -2.54e-13 7.23556e-14 6.81249e-14 6.13199e-14 -1.18092e-13 -2.24057e-13 -1.88847e-13 -6.62549e-14 -6.53837e-14 -2.22283e-14 -3.21829e-13 -3.50869e-13 2.41894e-13 4.35906e-13 -5.31741e-14 -5.35884e-13 -4.08764e-13 5.83343e-13 2.8243e-13 -1.13105e-13 -1.94952e-13 3.45231e-13 2.4811e-13 -1.15498e-13 -2.48867e-13 -2.05439e-13 1.65076e-13 3.12553e-14 -4.44977e-13 -3.82169e-13 2.689e-13 3.26722e-13 -3.18391e-13 -7.90289e-13 2.32869e-13 5.10956e-13 -2.94029e-13 -4.85977e-13 -5.60074e-13 7.206e-13 -4.22306e-13 2.46313e-13 7.5824e-13 1.51801e-15 -1.14522e-12 2.33135e-12 8.06816e-11 2.33225e-09 5.73175e-08 1.16147e-06 1.89635e-05 0.000242064 0.00231683 0.0156693 0.0694859 0.192039 0.352782 0.509781 0.624995 0.740318 0.82117 0.897199 0.998391 0.988321 0.911814 0.794406 0.647757 0.475604 0.299024 0.153391 0.0608916 0.0186707 0.0047659 0.00109151 0.000231989 4.62561e-05 8.68404e-06 1.53794e-06 2.57313e-07 4.0727e-08 6.10711e-09 8.68431e-10 1.16616e-10 1.47985e-11 1.43663e-12 1.41407e-12 -4.36562e-14 -6.15939e-13 -2.35582e-13 -6.76793e-13 1.35014e-12 -8.61945e-14 -5.22063e-13 -3.27361e-13 -7.44543e-13 7.08692e-13 -4.1275e-13 -7.38051e-13 2.97135e-13 -3.11439e-13 2.54052e-13 1.00082e-12 -1.05261e-12 -8.3636e-13 1.05799e-12 2.93488e-16 1.08689e-12 -4.8356e-13 -4.35142e-13 5.62771e-13 -3.85413e-13 1.03889e-12 -3.18261e-13 -4.46097e-13 -9.88111e-13 1.14484e-12 4.80137e-13 -2.91632e-13 -7.33357e-13 -1.72227e-13 8.08908e-13 -4.26134e-13 -7.32292e-13 -5.76534e-13 2.49493e-13 8.74934e-13 -6.78855e-13 -6.35669e-13 6.79255e-13 -1.66677e-13 5.82543e-13 8.3567e-13 -5.78089e-13 1.09519e-13 -9.84506e-13 7.41998e-13 9.05574e-13 -4.28025e-13 2.96917e-13 -9.99784e-13 3.91659e-13 7.60278e-13 -7.83366e-13 -2.03634e-13 -1.43901e-12 -1.97141e-13 1.60213e-13 -9.65413e-13 8.21565e-13 -1.27763e-12 -1.51757e-13 1.80042e-12 -5.99734e-13 -1.87914e-12 5.20951e-13 1.36608e-12 1.49809e-12 -1.464e-12 -2.05632e-14 0 0 3.36622e-14 -2.14452e-14 -7.41904e-15 -2.43884e-14 -6.68825e-14 -1.36003e-13 -9.80719e-14 -6.65527e-14 -6.36424e-14 1.74207e-14 -5.63448e-14 1.14539e-13 -1.0242e-13 -4.75879e-14 -3.9559e-14 -1.58076e-13 2.34254e-14 -1.25488e-14 -1.05522e-13 -1.83392e-13 1.04161e-14 1.12412e-13 -1.13154e-13 -6.79895e-14 -7.22875e-15 1.42894e-13 -7.67931e-14 -2.0056e-13 5.91691e-14 -1.39781e-13 -2.23275e-13 -3.62034e-14 5.57226e-14 3.43762e-14 8.02035e-14 2.44265e-13 -1.18796e-13 -1.34754e-13 -3.5098e-13 -9.37439e-14 -1.8119e-13 -5.99235e-15 -1.78567e-13 3.03665e-13 2.41551e-13 1.77155e-13 -7.02532e-13 -2.86247e-13 -5.0436e-13 1.38537e-13 4.7247e-13 -8.76109e-14 -3.23961e-13 -2.59818e-13 2.53356e-13 8.67817e-14 -1.51272e-14 8.78732e-14 -3.50878e-13 -1.61762e-13 2.34382e-13 1.47499e-13 2.65626e-13 -1.11576e-13 -2.68182e-13 -3.46119e-13 -1.3687e-13 1.93821e-13 5.26817e-13 -1.05216e-13 -7.77787e-14 -5.07556e-13 4.9236e-14 -4.20052e-15 2.84071e-14 -4.80173e-13 -2.10947e-13 -2.00624e-13 -5.65903e-13 -1.03521e-13 3.44079e-13 1.83199e-13 -3.24896e-13 8.33647e-14 2.11892e-13 2.10351e-12 7.92176e-11 2.33168e-09 5.73192e-08 1.16147e-06 1.89635e-05 0.000242064 0.00231683 0.0156693 0.0694859 0.192039 0.352782 0.509781 0.624995 0.740318 0.82117 0.897199 0.998391 0.988321 0.911814 0.794406 0.647757 0.475604 0.299024 0.153391 0.0608916 0.0186707 0.0047659 0.00109151 0.000231989 4.62561e-05 8.68404e-06 1.53794e-06 2.57313e-07 4.07268e-08 6.1066e-09 8.68429e-10 1.17303e-10 1.49095e-11 1.42546e-12 4.05519e-13 6.21734e-14 5.49774e-14 -8.46415e-14 -1.28195e-13 2.18282e-14 -4.15697e-14 7.31666e-14 -1.0701e-13 -7.89701e-13 -2.80728e-13 -5.03383e-13 -1.64905e-13 -1.01139e-12 5.90357e-13 1.07081e-12 -4.26284e-13 4.70729e-14 -2.67848e-13 7.50008e-14 3.38079e-13 2.52402e-13 1.06854e-13 -2.57939e-13 -5.33196e-13 7.52844e-13 9.67022e-13 -2.25099e-13 -3.56365e-13 -1.00467e-12 -6.20514e-13 -2.93382e-14 1.13834e-12 8.81636e-13 -9.48001e-13 -1.11423e-12 -5.77199e-13 9.63055e-13 -6.93063e-13 -1.0181e-12 4.24625e-13 8.20444e-13 -9.14178e-15 -1.08667e-12 5.17426e-13 1.66632e-12 -1.44114e-13 -9.63499e-13 -5.73117e-13 4.38671e-13 1.32386e-12 1.34585e-13 -1.0059e-12 -1.35149e-12 9.4234e-13 1.57134e-12 -2.13066e-13 -1.18798e-12 -9.8985e-13 3.67952e-14 1.236e-13 -1.13607e-12 -1.44468e-12 -1.28749e-13 3.14603e-12 3.79599e-13 -2.21079e-12 -1.63156e-12 4.42229e-13 8.12044e-13 1.93212e-13 -1.87222e-13 3.05957e-13 9.8166e-13 0 0 1.30966e-14 2.46775e-14 -5.30248e-14 1.95401e-14 -7.89492e-14 -1.14603e-13 -1.72775e-13 -3.94788e-14 -8.29427e-14 -3.35663e-14 1.41707e-13 -1.45526e-13 5.94793e-15 -1.76369e-13 3.03307e-14 2.58913e-14 -2.87332e-13 5.62332e-14 -5.17473e-14 -1.4611e-13 -2.10481e-15 9.74024e-14 -2.39279e-13 -1.38422e-13 -7.46844e-14 5.57349e-14 -1.55971e-13 -5.29675e-14 -1.2682e-13 1.77756e-13 -2.26512e-13 1.45909e-13 1.69543e-13 3.84667e-14 3.40265e-13 -3.69079e-14 1.55013e-14 -3.02498e-13 -1.42422e-13 -4.93812e-13 -3.09089e-14 -1.59879e-13 -8.73024e-14 -4.47736e-14 2.93561e-13 -2.53391e-13 -4.8315e-14 -5.38183e-13 -5.02514e-14 -3.64824e-14 -1.31791e-13 1.56559e-13 -7.87877e-13 3.14185e-13 3.09891e-13 -3.33227e-13 8.08614e-13 -7.85019e-13 1.46872e-13 -1.84165e-13 1.17359e-13 3.28277e-13 -1.30555e-13 1.72253e-13 -1.79185e-13 -5.82614e-13 1.97913e-13 -1.11115e-13 4.70796e-13 6.7173e-13 -4.15499e-13 3.99991e-13 -6.20281e-13 2.88815e-13 -4.41242e-13 -6.04864e-13 -4.87812e-14 -9.66996e-13 2.62306e-13 -9.07107e-13 4.31787e-13 5.75303e-14 -1.48077e-12 2.7942e-13 9.46647e-13 1.76906e-12 7.9803e-11 2.33212e-09 5.73173e-08 1.16147e-06 1.89635e-05 0.000242064 0.00231683 0.0156693 0.0694859 0.192039 0.352782 0.509781 0.624995 0.740318 0.82117 0.897199 0.998391 0.988321 0.911814 0.794406 0.647757 0.475604 0.299024 0.153391 0.0608916 0.0186707 0.0047659 0.00109151 0.000231989 4.62561e-05 8.68404e-06 1.53794e-06 2.57312e-07 4.07277e-08 6.10587e-09 8.68166e-10 1.17697e-10 1.49542e-11 2.21399e-12 -3.82109e-13 -6.19198e-13 3.08186e-13 1.74884e-14 8.59885e-13 -7.2746e-13 -1.42151e-13 4.92329e-14 -2.98675e-13 2.2054e-13 -1.15537e-12 -1.32528e-12 2.15973e-13 -2.3977e-13 6.19538e-13 5.06419e-13 -1.51e-12 2.10481e-13 6.93216e-13 4.18253e-13 1.90949e-12 -1.16729e-12 9.75882e-13 -4.7009e-13 3.84411e-13 4.1904e-13 -1.04545e-12 3.51803e-13 -7.1285e-13 -7.23366e-14 -1.52451e-12 -1.042e-12 3.59211e-13 1.33509e-12 6.51832e-13 -9.69835e-13 -1.59719e-12 -1.32699e-12 -1.44605e-12 3.45156e-13 4.7254e-13 1.85176e-12 3.13223e-13 -1.31548e-12 -3.30014e-13 3.09996e-13 1.92174e-13 1.51112e-12 -4.68e-13 2.20803e-13 -7.50527e-13 -1.91451e-13 1.22673e-12 -3.17805e-13 -2.29077e-15 -2.82083e-13 -6.62782e-13 1.4187e-12 -1.01255e-12 -3.42247e-13 -1.62552e-12 -1.85385e-12 3.49127e-13 9.10343e-13 2.41083e-12 6.48701e-13 -3.53002e-12 -6.6826e-13 -6.73345e-13 1.13816e-12 1.85022e-12 -5.46339e-13 1.96654e-12 -8.52215e-13 0 0 -3.0227e-14 -2.54769e-14 5.24404e-14 -9.00597e-14 -8.62266e-14 -3.54041e-14 -7.88619e-14 -1.88661e-13 7.17809e-14 -3.98953e-14 -1.31329e-13 -1.58307e-15 -2.03469e-13 2.03199e-13 -8.99253e-14 -4.13217e-14 4.33597e-14 -2.3746e-13 5.02046e-14 -1.21088e-14 -5.52752e-14 -3.19417e-13 -2.30655e-13 -2.53669e-14 -9.3733e-14 -2.28939e-13 -5.0109e-14 7.66882e-14 -1.20993e-13 -2.42442e-13 4.14971e-13 -7.29696e-14 2.35201e-13 5.1714e-13 4.91082e-14 1.85581e-13 -5.22649e-13 2.55889e-13 -5.63151e-13 -7.41584e-14 -4.07853e-13 -3.09972e-13 1.38983e-13 -1.0683e-13 -6.33959e-13 2.30443e-13 -4.3161e-13 2.30938e-13 4.67599e-14 -2.13308e-13 -3.46538e-13 -1.17333e-12 1.12487e-12 6.11217e-15 1.06613e-13 -1.07273e-13 -1.3425e-12 1.34988e-12 1.62692e-13 1.29908e-13 -1.03767e-13 -1.29223e-13 4.39498e-13 -1.32465e-13 -1.60675e-13 -7.88738e-14 -3.29629e-13 4.96754e-13 -6.3176e-13 -1.12925e-13 1.62927e-12 1.48712e-13 2.67275e-13 -1.26029e-12 -1.30494e-14 -1.49597e-13 -1.08411e-12 -3.39579e-13 -1.24139e-12 1.09629e-12 -5.62516e-13 -1.30896e-12 8.25849e-13 -6.14174e-13 -6.87531e-13 2.95918e-12 8.06085e-11 2.33236e-09 5.73163e-08 1.16147e-06 1.89635e-05 0.000242064 0.00231683 0.0156693 0.0694859 0.192039 0.352782 0.509781 0.624995 0.740318 0.82117 0.897199 0.998391 0.988321 0.911814 0.794406 0.647757 0.475604 0.299024 0.153391 0.0608916 0.0186707 0.0047659 0.00109151 0.000231989 4.62561e-05 8.68404e-06 1.53794e-06 2.57314e-07 4.07272e-08 6.10611e-09 8.68732e-10 1.16549e-10 1.57162e-11 1.92664e-12 6.22882e-13 -1.04569e-12 -1.27461e-12 1.06771e-12 1.12925e-13 3.65831e-13 4.07522e-13 -1.66508e-12 6.63374e-13 1.53183e-13 -9.24857e-13 -1.12537e-12 -1.19286e-12 1.44514e-12 -2.77952e-13 -6.6084e-13 3.1125e-13 -1.667e-12 1.49914e-12 1.97702e-12 7.81406e-13 7.21071e-13 -2.93608e-14 6.4853e-13 1.0509e-12 -2.05955e-12 -2.9769e-13 -1.15252e-12 2.27997e-13 -3.35512e-13 -1.11328e-12 -1.08727e-12 -1.22333e-12 1.66141e-12 1.23935e-12 -2.68419e-13 -2.17421e-12 -3.86631e-12 -6.91481e-13 1.45824e-12 2.22642e-13 1.9799e-12 -1.46122e-12 1.02099e-12 -1.36696e-12 -1.36936e-12 2.47723e-12 8.87622e-13 1.47406e-12 -1.2779e-12 -2.58797e-12 1.15704e-12 1.15617e-12 3.13269e-12 -2.36273e-12 -2.14493e-12 1.13086e-12 -2.49847e-15 1.76678e-12 -2.13114e-12 -2.97609e-12 -1.25426e-13 -8.18505e-13 3.84348e-12 -6.60535e-13 -2.60835e-12 2.2054e-12 -1.40398e-12 -1.11867e-12 1.44148e-12 1.44028e-12 2.69754e-12 -1.26111e-12 1.354e-13 0
				</DataArray>
				<DataArray Name="VitesseY" type="Float32" format="ascii">