<?xml version="1.0"?>
<VTKFile type="PolyData">
	<PolyData>
		<Piece NumberOfPoints="1206" NumberOfPolys="1000">
			<Points>
				<DataArray type="Float32" NumberOfComponents="3" format="ascii">
 0 0 0 0.005 0 0 0.01 0 0 0.015 0 0 0.02 0 0 0.025 0 0 0.03 0 0 0.035 0 0 0.04 0 0 0.045 0 0 0.05 0 0 0.055 0 0 0.06 0 0 0.065 0 0 0.07 0 0 0.075 0 0 0.08 0 0 0.085 0 0 0.09 0 0 0.095 0 0 0.1 0 0 0.105 0 0 0.11 0 0 0.115 0 0 0.12 0 0 0.125 0 0 0.13 0 0 0.135 0 0 0.14 0 0 0.145 0 0 0.15 0 0 0.155 0 0 0.16 0 0 0.165 0 0 0.17 0 0 0.175 0 0 0.18 0 0 0.185 0 0 0.19 0 0 0.195 0 0 0.2 0 0 0.205 0 0 0.21 0 0 0.215 0 0 0.22 0 0 0.225 0 0 0.23 0 0 0.235 0 0 0.24 0 0 0.245 0 0 0.25 0 0 0.255 0 0 0.26 0 0 0.265 0 0 0.27 0 0 0.275 0 0 0.28 0 0 0.285 0 0 0.29 0 0 0.295 0 0 0.3 0 0 0.305 0 0 0.31 0 0 0.315 0 0 0.32 0 0 0.325 0 0 0.33 0 0 0.335 0 0 0.34 0 0 0.345 0 0 0.35 0 0 0.355 0 0 0.36 0 0 0.365001 0 0 0.370003 0 0 0.375011 0 0 0.380036 0 0 0.385096 0 0 0.390227 0 0 0.39547 0 0 0.400866 0 0 0.406453 0 0 0.412264 0 0 0.418329 0 0 0.424679 0 0 0.43135 0 0 0.438381 0 0 0.44582 0 0 0.453722 0 0 0.462156 0 0 0.471201 0 0 0.480952 0 0 0.491515 0 0 0.50297 0 0 0.515239 0 0 0.527727 0 0 0.539989 0 0 0.55204 0 0 0.563955 0 0 0.575809 0 0 0.587641 0 0 0.589925 0 0 0.592211 0 0 0.594496 0 0 0.596781 0 0 0.599065 0 0 0.601348 0 0 0.603628 0 0 0.605908 0 0 0.608188 0 0 0.610466 0 0 0.612743 0 0 0.615024 0 0 0.617304 0 0 0.619584 0 0 0.621865 0 0 0.624149 0 0 0.626436 0 0 0.628723 0 0 0.631009 0 0 0.633295 0 0 0.635583 0 0 0.637872 0 0 0.640158 0 0 0.642446 0 0 0.644742 0 0 0.647055 0 0 0.649445 0 0 0.651946 0 0 0.654549 0 0 0.657341 0 0 0.660359 0 0 0.663676 0 0 0.66733 0 0 0.671346 0 0 0.675697 0 0 0.680323 0 0 0.685136 0 0 0.690053 0 0 0.69502 0 0 0.700007 0 0 0.705003 0 0 0.710001 0 0 0.715 0 0 0.72 0 0 0.725 0 0 0.73 0 0 0.735 0 0 0.74 0 0 0.745 0 0 0.75 0 0 0.755 0 0 0.76 0 0 0.765 0 0 0.77 0 0 0.775 0 0 0.78 0 0 0.785 0 0 0.79 0 0 0.795 0 0 0.8 0 0 0.805 0 0 0.81 0 0 0.815 0 0 0.82 0 0 0.825 0 0 0.83 0 0 0.835 0 0 0.84 0 0 0.845 0 0 0.85 0 0 0.855 0 0 0.86 0 0 0.865 0 0 0.87 0 0 0.875 0 0 0.88 0 0 0.885 0 0 0.89 0 0 0.895 0 0 0.9 0 0 0.905 0 0 0.91 0 0 0.915 0 0 0.92 0 0 0.925 0 0 0.93 0 0 0.935 0 0 0.94 0 0 0.945 0 0 0.95 0 0 0.955 0 0 0.96 0 0 0.965 0 0 0.97 0 0 0.975 0 0 0.98 0 0 0.985 0 0 0.99 0 0 0.995 0 0 1 0 0 0 0.02 0 0.005 0.02 0 0.01 0.02 0 0.015 0.02 0 0.02 0.02 0 0.025 0.02 0 0.03 0.02 0 0.035 0.02 0 0.04 0.02 0 0.045 0.02 0 0.05 0.02 0 0.055 0.02 0 0.06 0.02 0 0.065 0.02 0 0.07 0.02 0 0.075 0.02 0 0.08 0.02 0 0.085 0.02 0 0.09 0.02 0 0.095 0.02 0 0.1 0.02 0 0.105 0.02 0 0.11 0.02 0 0.115 0.02 0 0.12 0.02 0 0.125 0.02 0 0.13 0.02 0 0.135 0.02 0 0.14 0.02 0 0.145 0.02 0 0.15 0.02 0 0.155 0.02 0 0.16 0.02 0 0.165 0.02 0 0.17 0.02 0 0.175 0.02 0 0.18 0.02 0 0.185 0.02 0 0.19 0.02 0 0.195 0.02 0 0.2 0.02 0 0.205 0.02 0 0.21 0.02 0 0.215 0.02 0 0.22 0.02 0 0.225 0.02 0 0.23 0.02 0 0.235 0.02 0 0.24 0.02 0 0.245 0.02 0 0.25 0.02 0 0.255 0.02 0 0.26 0.02 0 0.265 0.02 0 0.27 0.02 0 0.275 0.02 0 0.28 0.02 0 0.285 0.02 0 0.29 0.02 0 0.295 0.02 0 0.3 0.02 0 0.305 0.02 0 0.31 0.02 0 0.315 0.02 0 0.32 0.02 0 0.325 0.02 0 0.33 0.02 0 0.335 0.02 0 0.34 0.02 0 0.345 0.02 0 0.35 0.02 0 0.355 0.02 0 0.36 0.02 0 0.365001 0.02 0 0.370003 0.02 0 0.375011 0.02 0 0.380036 0.02 0 0.385096 0.02 0 0.390227 0.02 0 0.39547 0.02 0 0.400866 0.02 0 0.406453 0.02 0 0.412264 0.02 0 0.418329 0.02 0 0.424679 0.02 0 0.43135 0.02 0 0.438381 0.02 0 0.44582 0.02 0 0.453722 0.02 0 0.462156 0.02 0 0.471201 0.02 0 0.480952 0.02 0 0.491515 0.02 0 0.50297 0.02 0 0.515239 0.02 0 0.527727 0.02 0 0.539989 0.02 0 0.55204 0.02 0 0.563955 0.02 0 0.575809 0.02 0 0.587641 0.02 0 0.589925 0.02 0 0.592211 0.02 0 0.594496 0.02 0 0.596781 0.02 0 0.599065 0.02 0 0.601348 0.02 0 0.603628 0.02 0 0.605908 0.02 0 0.608188 0.02 0 0.610466 0.02 0 0.612743 0.02 0 0.615024 0.02 0 0.617304 0.02 0 0.619584 0.02 0 0.621865 0.02 0 0.624149 0.02 0 0.626436 0.02 0 0.628723 0.02 0 0.631009 0.02 0 0.633295 0.02 0 0.635583 0.02 0 0.637872 0.02 0 0.640158 0.02 0 0.642446 0.02 0 0.644742 0.02 0 0.647055 0.02 0 0.649445 0.02 0 0.651946 0.02 0 0.654549 0.02 0 0.657341 0.02 0 0.660359 0.02 0 0.663676 0.02 0 0.66733 0.02 0 0.671346 0.02 0 0.675697 0.02 0 0.680323 0.02 0 0.685136 0.02 0 0.690053 0.02 0 0.69502 0.02 0 0.700007 0.02 0 0.705003 0.02 0 0.710001 0.02 0 0.715 0.02 0 0.72 0.02 0 0.725 0.02 0 0.73 0.02 0 0.735 0.02 0 0.74 0.02 0 0.745 0.02 0 0.75 0.02 0 0.755 0.02 0 0.76 0.02 0 0.765 0.02 0 0.77 0.02 0 0.775 0.02 0 0.78 0.02 0 0.785 0.02 0 0.79 0.02 0 0.795 0.02 0 0.8 0.02 0 0.805 0.02 0 0.81 0.02 0 0.815 0.02 0 0.82 0.02 0 0.825 0.02 0 0.83 0.02 0 0.835 0.02 0 0.84 0.02 0 0.845 0.02 0 0.85 0.02 0 0.855 0.02 0 0.86 0.02 0 0.865 0.02 0 0.87 0.02 0 0.875 0.02 0 0.88 0.02 0 0.885 0.02 0 0.89 0.02 0 0.895 0.02 0 0.9 0.02 0 0.905 0.02 0 0.91 0.02 0 0.915 0.02 0 0.92 0.02 0 0.925 0.02 0 0.93 0.02 0 0.935 0.02 0 0.94 0.02 0 0.945 0.02 0 0.95 0.02 0 0.955 0.02 0 0.96 0.02 0 0.965 0.02 0 0.97 0.02 0 0.975 0.02 0 0.98 0.02 0 0.985 0.02 0 0.99 0.02 0 0.995 0.02 0 1 0.02 0 0 0.04 0 0.005 0.04 0 0.01 0.04 0 0.015 0.04 0 0.02 0.04 0 0.025 0.04 0 0.03 0.04 0 0.035 0.04 0 0.04 0.04 0 0.045 0.04 0 0.05 0.04 0 0.055 0.04 0 0.06 0.04 0 0.065 0.04 0 0.07 0.04 0 0.075 0.04 0 0.08 0.04 0 0.085 0.04 0 0.09 0.04 0 0.095 0.04 0 0.1 0.04 0 0.105 0.04 0 0.11 0.04 0 0.115 0.04 0 0.12 0.04 0 0.125 0.04 0 0.13 0.04 0 0.135 0.04 0 0.14 0.04 0 0.145 0.04 0 0.15 0.04 0 0.155 0.04 0 0.16 0.04 0 0.165 0.04 0 0.17 0.04 0 0.175 0.04 0 0.18 0.04 0 0.185 0.04 0 0.19 0.04 0 0.195 0.04 0 0.2 0.04 0 0.205 0.04 0 0.21 0.04 0 0.215 0.04 0 0.22 0.04 0 0.225 0.04 0 0.23 0.04 0 0.235 0.04 0 0.24 0.04 0 0.245 0.04 0 0.25 0.04 0 0.255 0.04 0 0.26 0.04 0 0.265 0.04 0 0.27 0.04 0 0.275 0.04 0 0.28 0.04 0 0.285 0.04 0 0.29 0.04 0 0.295 0.04 0 0.3 0.04 0 0.305 0.04 0 0.31 0.04 0 0.315 0.04 0 0.32 0.04 0 0.325 0.04 0 0.33 0.04 0 0.335 0.04 0 0.34 0.04 0 0.345 0.04 0 0.35 0.04 0 0.355 0.04 0 0.36 0.04 0 0.365001 0.04 0 0.370003 0.04 0 0.375011 0.04 0 0.380036 0.04 0 0.385096 0.04 0 0.390227 0.04 0 0.39547 0.04 0 0.400866 0.04 0 0.406453 0.04 0 0.412264 0.04 0 0.418329 0.04 0 0.424679 0.04 0 0.43135 0.04 0 0.438381 0.04 0 0.44582 0.04 0 0.453722 0.04 0 0.462156 0.04 0 0.471201 0.04 0 0.480952 0.04 0 0.491515 0.04 0 0.50297 0.04 0 0.515239 0.04 0 0.527727 0.04 0 0.539989 0.04 0 0.55204 0.04 0 0.563955 0.04 0 0.575809 0.04 0 0.587641 0.04 0 0.589925 0.04 0 0.592211 0.04 0 0.594496 0.04 0 0.596781 0.04 0 0.599065 0.04 0 0.601348 0.04 0 0.603628 0.04 0 0.605908 0.04 0 0.608188 0.04 0 0.610466 0.04 0 0.612743 0.04 0 0.615024 0.04 0 0.617304 0.04 0 0.619584 0.04 0 0.621865 0.04 0 0.624149 0.04 0 0.626436 0.04 0 0.628723 0.04 0 0.631009 0.04 0 0.633295 0.04 0 0.635583 0.04 0 0.637872 0.04 0 0.640158 0.04 0 0.642446 0.04 0 0.644742 0.04 0 0.647055 0.04 0 0.649445 0.04 0 0.651946 0.04 0 0.654549 0.04 0 0.657341 0.04 0 0.660359 0.04 0 0.663676 0.04 0 0.66733 0.04 0 0.671346 0.04 0 0.675697 0.04 0 0.680323 0.04 0 0.685136 0.04 0 0.690053 0.04 0 0.69502 0.04 0 0.700007 0.04 0 0.705003 0.04 0 0.710001 0.04 0 0.715 0.04 0 0.72 0.04 0 0.725 0.04 0 0.73 0.04 0 0.735 0.04 0 0.74 0.04 0 0.745 0.04 0 0.75 0.04 0 0.755 0.04 0 0.76 0.04 0 0.765 0.04 0 0.77 0.04 0 0.775 0.04 0 0.78 0.04 0 0.785 0.04 0 0.79 0.04 0 0.795 0.04 0 0.8 0.04 0 0.805 0.04 0 0.81 0.04 0 0.815 0.04 0 0.82 0.04 0 0.825 0.04 0 0.83 0.04 0 0.835 0.04 0 0.84 0.04 0 0.845 0.04 0 0.85 0.04 0 0.855 0.04 0 0.86 0.04 0 0.865 0.04 0 0.87 0.04 0 0.875 0.04 0 0.88 0.04 0 0.885 0.04 0 0.89 0.04 0 0.895 0.04 0 0.9 0.04 0 0.905 0.04 0 0.91 0.04 0 0.915 0.04 0 0.92 0.04 0 0.925 0.04 0 0.93 0.04 0 0.935 0.04 0 0.94 0.04 0 0.945 0.04 0 0.95 0.04 0 0.955 0.04 0 0.96 0.04 0 0.965 0.04 0 0.97 0.04 0 0.975 0.04 0 0.98 0.04 0 0.985 0.04 0 0.99 0.04 0 0.995 0.04 0 1 0.04 0 0 0.06 0 0.005 0.06 0 0.01 0.06 0 0.015 0.06 0 0.02 0.06 0 0.025 0.06 0 0.03 0.06 0 0.035 0.06 0 0.04 0.06 0 0.045 0.06 0 0.05 0.06 0 0.055 0.06 0 0.06 0.06 0 0.065 0.06 0 0.07 0.06 0 0.075 0.06 0 0.08 0.06 0 0.085 0.06 0 0.09 0.06 0 0.095 0.06 0 0.1 0.06 0 0.105 0.06 0 0.11 0.06 0 0.115 0.06 0 0.12 0.06 0 0.125 0.06 0 0.13 0.06 0 0.135 0.06 0 0.14 0.06 0 0.145 0.06 0 0.15 0.06 0 0.155 0.06 0 0.16 0.06 0 0.165 0.06 0 0.17 0.06 0 0.175 0.06 0 0.18 0.06 0 0.185 0.06 0 0.19 0.06 0 0.195 0.06 0 0.2 0.06 0 0.205 0.06 0 0.21 0.06 0 0.215 0.06 0 0.22 0.06 0 0.225 0.06 0 0.23 0.06 0 0.235 0.06 0 0.24 0.06 0 0.245 0.06 0 0.25 0.06 0 0.255 0.06 0 0.26 0.06 0 0.265 0.06 0 0.27 0.06 0 0.275 0.06 0 0.28 0.06 0 0.285 0.06 0 0.29 0.06 0 0.295 0.06 0 0.3 0.06 0 0.305 0.06 0 0.31 0.06 0 0.315 0.06 0 0.32 0.06 0 0.325 0.06 0 0.33 0.06 0 0.335 0.06 0 0.34 0.06 0 0.345 0.06 0 0.35 0.06 0 0.355 0.06 0 0.36 0.06 0 0.365001 0.06 0 0.370003 0.06 0 0.375011 0.06 0 0.380036 0.06 0 0.385096 0.06 0 0.390227 0.06 0 0.39547 0.06 0 0.400866 0.06 0 0.406453 0.06 0 0.412264 0.06 0 0.418329 0.06 0 0.424679 0.06 0 0.43135 0.06 0 0.438381 0.06 0 0.44582 0.06 0 0.453722 0.06 0 0.462156 0.06 0 0.471201 0.06 0 0.480952 0.06 0 0.491515 0.06 0 0.50297 0.06 0 0.515239 0.06 0 0.527727 0.06 0 0.539989 0.06 0 0.55204 0.06 0 0.563955 0.06 0 0.575809 0.06 0 0.587641 0.06 0 0.589925 0.06 0 0.592211 0.06 0 0.594496 0.06 0 0.596781 0.06 0 0.599065 0.06 0 0.601348 0.06 0 0.603628 0.06 0 0.605908 0.06 0 0.608188 0.06 0 0.610466 0.06 0 0.612743 0.06 0 0.615024 0.06 0 0.617304 0.06 0 0.619584 0.06 0 0.621865 0.06 0 0.624149 0.06 0 0.626436 0.06 0 0.628723 0.06 0 0.631009 0.06 0 0.633295 0.06 0 0.635583 0.06 0 0.637872 0.06 0 0.640158 0.06 0 0.642446 0.06 0 0.644742 0.06 0 0.647055 0.06 0 0.649445 0.06 0 0.651946 0.06 0 0.654549 0.06 0 0.657341 0.06 0 0.660359 0.06 0 0.663676 0.06 0 0.66733 0.06 0 0.671346 0.06 0 0.675697 0.06 0 0.680323 0.06 0 0.685136 0.06 0 0.690053 0.06 0 0.69502 0.06 0 0.700007 0.06 0 0.705003 0.06 0 0.710001 0.06 0 0.715 0.06 0 0.72 0.06 0 0.725 0.06 0 0.73 0.06 0 0.735 0.06 0 0.74 0.06 0 0.745 0.06 0 0.75 0.06 0 0.755 0.06 0 0.76 0.06 0 0.765 0.06 0 0.77 0.06 0 0.775 0.06 0 0.78 0.06
[...]
			<PointData Scalars="VitesseX">
				<DataArray Name="VitesseX" type="Float32" format="ascii">
 0 3.98264e-16 8.14856e-16 1.07699e-15 -3.06549e-15 2.69583e-15 -2.73064e-15 -6.571e-16 5.2849e-15 2.23934e-15 3.87205e-16 -3.578e-15 2.84731e-15 -9.99167e-15 9.75519e-15 -4.10512e-15 4.06436e-15 -1.14074e-14 1.01987e-14 7.4267e-15 -2.60133e-15 2.48209e-15 7.99165e-15 7.85064e-15 -7.34849e-15 1.1624e-14 6.3165e-15 2.07702e-14 -1.21552e-14 1.19752e-14 1.69503e-14 5.57695e-15 -4.45026e-15 -8.62707e-16 -1.29927e-14 1.22623e-14 2.4218e-15 1.47448e-14 -2.23697e-14 1.58613e-14 2.13907e-14 -1.59437e-14 -1.06066e-14 4.05154e-14 2.3219e-14 -6.93714e-15 -3.10409e-14 1.81971e-14 2.51019e-14 -1.40468e-14 2.73497e-14 3.94777e-14 -6.1449e-14 2.70506e-14 3.6372e-14 8.19744e-15 -1.98384e-15 4.87881e-14 4.05757e-14 -5.4509e-14 1.9502e-14 3.53693e-14 2.31317e-13 2.03971e-12 1.88054e-11 1.65392e-10 1.34822e-09 1.01533e-08 7.03851e-08 4.47037e-07 2.5872e-06 1.35565e-05 6.38177e-05 0.000267389 0.000985922 0.00315803 0.00867635 0.020278 0.0403955 0.0696554 0.106708 0.149522 0.19656 0.247039 0.300693 0.357537 0.417731 0.481525 0.549221 0.621131 0.697458 0.777977 0.86099 0.939638 0.988674 0.973891 0.956587 0.943472 0.93734 0.934828 0.933609 0.934598 0.935284 0.934794 0.934585 0.934237 0.933699 0.93314 0.932533 0.931989 0.931504 0.931157 0.930938 0.930872 0.931195 0.932627 0.933197 0.933209 0.933292 0.933443 0.933796 0.932474 0.932631 0.929512 0.923107 0.928122 0.898439 0.863698 0.858286 0.775757 0.720087 0.616556 0.513441 0.387275 0.267728 0.162628 0.0857658 0.0393437 0.0162447 0.00629599 0.00235678 0.000863685 0.000311414 0.000110607 3.86872e-05 1.33152e-05 4.50544e-06 1.49748e-06 4.88528e-07 1.56332e-07 4.90461e-08 1.50792e-08 4.54164e-09 1.33965e-09 3.87045e-10 1.09416e-10 3.03529e-11 8.21984e-12 2.27799e-12 5.0967e-13 1.72423e-13 4.91415e-15 3.76561e-14 1.84335e-14 1.00001e-13 -6.96373e-14 -3.47773e-14 1.08799e-13 -7.12378e-14 7.65793e-15 6.67989e-14 -7.9332e-16 3.3575e-14 9.71795e-14 -7.53687e-15 -1.31585e-13 -3.47273e-14 5.35531e-16 1.53251e-13 -1.14183e-13 -2.9181e-15 -9.03177e-14 2.2515e-14 -1.1931e-13 5.88821e-14 -3.87176e-14 -1.14219e-13 -1.89436e-13 2.99149e-14 4.87887e-14 -1.41832e-13 1.13192e-13 -9.1482e-14 -1.15805e-13 -4.73768e-14 -1.18394e-14 -2.7374e-14 -8.61067e-14 -8.26272e-14 6.97279e-14 0 0 4.27601e-16 5.5796e-16 -5.0613e-16 1.92064e-15 -3.08234e-15 3.86194e-15 3.04536e-15 2.72954e-15 -4.75385e-15 -2.79012e-15 1.60854e-16 -4.23321e-15 1.78553e-15 1.01068e-14 -7.6158e-15 -2.78993e-15 1.06309e-14 -6.51757e-15 1.31982e-14 -5.92878e-15 5.76704e-15 1.2778e-14 -5.36944e-15 -4.06581e-15 1.5557e-14 1.45912e-14 7.51173e-15 -1.06001e-14 1.35074e-14 2.37697e-14 5.23379e-15 -5.36913e-15 1.19185e-14 2.84538e-14 -2.42853e-14 -6.59094e-15 -1.03873e-14 7.8901e-15 8.41011e-15 6.35877e-15 -1.98485e-15 3.25797e-15 3.34664e-14 4.68487e-15 -2.17189e-14 1.65473e-14 1.27793e-14 -2.27917e-14 1.38799e-15 1.88448e-14 -7.22664e-15 2.00551e-14 -2.05691e-14 5.704e-15 1.35506e-14 2.39082e-14 5.88951e-14 -1.17801e-14 4.89532e-14 3.48518e-15 4.84877e-14 1.91618e-13 1.99114e-12 1.88483e-11 1.65414e-10 1.34819e-09 1.01533e-08 7.03851e-08 4.47037e-07 2.5872e-06 1.35565e-05 6.38177e-05 0.000267389 0.000985922 0.00315803 0.00867635 0.020278 0.0403955 0.0696554 0.106708 0.149522 0.19656 0.247039 0.300693 0.357537 0.417731 0.481525 0.549221 0.621131 0.697458 0.777977 0.86099 0.939638 0.988674 0.973891 0.956587 0.943472 0.93734 0.934828 0.933609 0.934598 0.935284 0.934794 0.934585 0.934237 0.933699 0.93314 0.932533 0.931989 0.931504 0.931157 0.930938 0.930872 0.931195 0.932627 0.933197 0.933209 0.933292 0.933443 0.933796 0.932474 0.932631 0.929512 0.923107 0.928122 0.898439 0.863698 0.858286 0.775757 0.720087 0.616556 0.513441 0.387275 0.267728 0.162628 0.0857658 0.0393437 0.0162447 0.00629599 0.00235678 0.000863685 0.000311414 0.000110607 3.86872e-05 1.33152e-05 4.50544e-06 1.49748e-06 4.88528e-07 1.56332e-07 4.90461e-08 1.50792e-08 4.54172e-09 1.33979e-09 3.87017e-10 1.09413e-10 3.02722e-11 8.25683e-12 2.20684e-12 6.7582e-13 1.60645e-13 3.44992e-14 -1.00264e-13 5.17802e-14 3.63129e-14 -1.41475e-14 -6.18596e-14 1.23649e-14 7.44548e-14 9.66414e-14 -8.99703e-14 1.87122e-14 2.88201e-15 -1.03502e-13 1.44152e-13 -5.99262e-14 -2.54047e-14 -2.42565e-14 -5.99461e-14 9.32801e-14 2.6704e-14 5.69355e-14 -1.03673e-13 -2.68074e-14 -6.48057e-14 -1.38134e-14 -6.09499e-14 -9.53715e-14 -6.06125e-14 2.25021e-14 -2.64596e-14 -1.49323e-13 -2.71268e-15 1.70089e-14 -3.18456e-14 -4.40606e-14 -9.25966e-14 -7.68152e-14 -4.11267e-14 -4.9303e-14 0 0 3.99061e-16 -5.72614e-16 -2.20847e-15 4.23806e-15 1.00232e-15 -1.76786e-15 6.6636e-15 3.35828e-16 -3.96648e-16 -6.75414e-15 -1.71622e-15 1.81997e-15 -7.38926e-16 6.83681e-15 -2.75909e-15 2.55471e-15 9.28658e-15 1.47038e-15 4.19254e-15 4.91693e-15 -1.3173e-14 9.06787e-15 4.23705e-16 1.33706e-14 2.83227e-14 -1.27897e-15 3.18358e-15 2.9892e-14 -2.63639e-14 -9.11501e-15 3.12665e-14 8.53371e-15 5.20063e-16 2.02293e-14 -1.00226e-14 1.92845e-14 -1.32034e-14 1.33228e-14 -3.88251e-15 -7.88897e-15 8.70981e-15 3.76288e-14 5.14974e-15 -1.38034e-14 -3.93272e-14 5.66934e-14 -1.75432e-14 -2.08026e-14 -3.30257e-14 4.81845e-14 -3.61017e-14 4.82461e-14 -1.0939e-14 -4.5932e-14 4.03711e-14 4.38365e-14 7.51363e-14 -6.8061e-14 5.68757e-14 5.31009e-14 9.22875e-14 2.04573e-13 1.93361e-12 1.87491e-11 1.65482e-10 1.34817e-09 1.01533e-08 7.03851e-08 4.47037e-07 2.5872e-06 1.35565e-05 6.38177e-05 0.000267389 0.000985922 0.00315803 0.00867635 0.020278 0.0403955 0.0696554 0.106708 0.149522 0.19656 0.247039 0.300693 0.357537 0.417731 0.481525 0.549221 0.621131 0.697458 0.777977 0.86099 0.939638 0.988674 0.973891 0.956587 0.943472 0.93734 0.934828 0.933609 0.934598 0.935284 0.934794 0.934585 0.934237 0.933699 0.93314 0.932533 0.931989 0.931504 0.931157 0.930938 0.930872 0.931195 0.932627 0.933197 0.933209 0.933292 0.933443 0.933796 0.932474 0.932631 0.929512 0.923107 0.928122 0.898439 0.863698 0.858286 0.775757 0.720087 0.616556 0.513441 0.387275 0.267728 0.162628 0.0857658 0.0393437 0.0162447 0.00629599 0.00235678 0.000863685 0.000311414 0.000110607 3.86872e-05 1.33152e-05 4.50544e-06 1.49748e-06 4.88528e-07 1.56332e-07 4.90461e-08 1.50792e-08 4.54167e-09 1.33977e-09 3.87056e-10 1.09437e-10 3.03659e-11 8.24016e-12 2.34231e-12 4.62162e-13 1.54799e-13 1.63055e-14 -1.56125e-13 1.35897e-14 6.99209e-14 8.47362e-14 -2.49708e-14 4.115e-14 -9.22561e-14 2.43345e-13 -8.21526e-14 -2.29589e-14 2.02481e-14 -1.88185e-13 5.13987e-14 8.24435e-14 -7.03253e-14 -1.85848e-14 -1.46514e-13 1.53721e-13 3.86056e-14 5.82362e-14 -3.05149e-14 2.95936e-14 -2.78526e-14 -1.41908e-13 -5.48438e-14 -1.323e-13 -7.86315e-14 4.72305e-14 -9.136e-14 -2.07168e-14 -3.12031e-14 1.18868e-13 -8.21985e-14 -8.39345e-14 -7.42792e-14 -8.19631e-14 -5.41191e-14 3.40391e-14 0 0 5.99939e-16 2.07621e-15 1.14522e-15 -3.3065e-15 1.98098e-15 -2.08154e-15 2.74449e-16 -2.39208e-16 2.23761e-15 1.59154e-15 -2.67199e-15 -2.33475e-15 3.99182e-16 9.48038e-15 6.27532e-15 1.01309e-14 -1.059e-14 2.53394e-15 -7.26917e-15 1.19218e-14 -5.06175e-15 1.01314e-14 1.0024e-14 1.64986e-14 2.47439e-14 -1.07045e-14 3.07904e-14 2.82264e-14 -2.93373e-14 -2.86348e-14 1.39387e-14 -6.90386e-15 -3.18761e-14 8.39745e-15 1.77791e-14 6.27062e-14 2.32389e-14 8.85781e-15 -4.68518e-14 2.62204e-14 -7.2883e-15 2.83358e-14 -2.2726e-14 3.43094e-14 -1.21927e-14 4.13384e-14 -4.79953e-14 -1.40566e-14 -4.06904e-14 3.91643e-14 -4.34661e-15 3.13008e-14 5.2961e-14 -1.73236e-14 6.60642e-14 1.48789e-14 -2.34235e-14 -1.95627e-14 -1.30803e-14 3.15968e-14 1.87274e-13 2.3083e-13 1.91888e-12 1.86552e-11 1.65545e-10 1.34814e-09 1.01532e-08 7.03851e-08 4.47037e-07 2.5872e-06 1.35565e-05 6.38177e-05 0.000267389 0.000985922 0.00315803 0.00867635 0.020278 0.0403955 0.0696554 0.106708 0.149522 0.19656 0.247039 0.300693 0.357537 0.417731 0.481525 0.549221 0.621131 0.697458 0.777977 0.86099 0.939638 0.988674 0.973891 0.956587 0.943472 0.93734 0.934828 0.933609 0.934598 0.935284 0.934794 0.934585 0.934237 0.933699 0.93314 0.932533 0.931989 0.931504 0.931157 0.930938 0.930872 0.931195 0.932627 0.933197 0.933209 0.933292 0.933443 0.933796 0.932474 0.932631 0.929512 0.923107 0.928122 0.898439 0.863698 0.858286 0.775757 0.720087 0.616556 0.513441 0.387275 0.267728 0.162628 0.0857658 0.0393437 0.0162447 0.00629599 0.00235678 0.000863685 0.000311414 0.000110607 3.86872e-05 1.33152e-05 4.50544e-06 1.49748e-06 4.88528e-07 1.56332e-07 4.90461e-08 1.50792e-08 4.54161e-09 1.33968e-09 3.87009e-10 1.09499e-10 3.05146e-11 8.23647e-12 2.46073e-12 3.76701e-13 1.07792e-13 -2.37702e-13 7.70596e-14 -1.60774e-14 1.41253e-13 7.06151e-14 6.08614e-14 3.90747e-15 -2.33009e-13 2.97391e-14 1.19518e-13 1.068e-13 2.85293e-14 -1.95534e-14 -2.28149e-13 -5.73797e-14 9.26685e-14 8.61406e-14 8.9761e-14 -1.80459e-13 -3.7819e-15 8.24396e-14 7.75201e-14 -2.40432e-14 -8.31056e-14 -2.02086e-13 -1.63322e-13 -1.16318e-13 -3.31965e-14 6.74435e-16 -6.93212e-15 7.45793e-14 5.27443e-14 -6.47919e-14 -6.97208e-14 1.09865e-13 -1.01674e-13 -1.4773e-14 -8.04505e-14 6.61708e-14 0 0 9.20798e-16 3.24479e-15 1.22815e-15 -2.78672e-15 -7.53176e-15 6.02255e-16 -1.13422e-15 -4.99912e-15 -3.73266e-15 7.91151e-16 3.26898e-15 -1.00647e-14 1.11997e-14 4.93565e-15 -4.76389e-15 5.228e-15 2.38754e-15 -1.24252e-14 2.46172e-15 9.4984e-15 4.41295e-16 2.98441e-14 -7.50554e-15 2.39099e-14 5.82145e-15 2.7883e-14 2.29942e-14 3.24158e-15 9.56032e-15 -2.30434e-14 -1.699e-14 -1.8655e-14 -2.72432e-14 -7.32451e-15 7.74769e-15 4.4921e-14 3.85855e-14 1.36055e-14 -2.00649e-14 1.38913e-14 2.18854e-15 1.71745e-14 -4.71907e-14 3.84477e-14 -3.68942e-15 -2.2364e-15 -7.25971e-15 -2.99399e-14 2.14453e-14 4.36425e-15 2.31484e-14 7.1255e-14 2.97474e-14 -2.22072e-14 2.75536e-14 3.52739e-14 4.41184e-14 -1.62145e-14 4.78475e-14 -1.3751e-14 1.52203e-13 2.06544e-13 1.93347e-12 1.86547e-11 1.65547e-10 1.3481e-09 1.01533e-08 7.0385e-08 4.47037e-07 2.5872e-06 1.35565e-05 6.38177e-05 0.000267389 0.000985922 0.00315803 0.00867635 0.020278 0.0403955 0.0696554 0.106708 0.149522 0.19656 0.247039 0.300693 0.357537 0.417731 0.481525 0.549221 0.621131 0.697458 0.777977 0.86099 0.939638 0.988674 0.973891 0.956587 0.943472 0.93734 0.934828 0.933609 0.934598 0.935284 0.934794 0.934585 0.934237 0.933699 0.93314 0.932533 0.931989 0.931504 0.931157 0.930938 0.930872 0.931195 0.932627 0.933197 0.933209 0.933292 0.933443 0.933796 0.932474 0.932631 0.929512 0.923107 0.928122 0.898439 0.863698 0.858286 0.775757 0.720087 0.616556 0.513441 0.387275 0.267728 0.162628 0.0857658 0.0393437 0.0162447 0.00629599 0.00235678 0.000863685 0.000311414 0.000110607 3.86872e-05 1.33152e-05 4.50544e-06 1.49748e-06 4.88528e-07 1.56332e-07 4.90461e-08 1.50792e-08 4.54166e-09 1.33972e-09 3.86919e-10 1.09546e-10 3.03321e-11 8.27439e-12 2.40044e-12 6.19783e-13 5.03398e-14 -1.0471e-13 1.21193e-13 -5.47759e-14 1.20112e-13 3.75109e-15 -1.2464e-13 -1.13482e-13 1.05586e-13 -7.50204e-16 2.69838e-14 7.92175e-14 -2.05701e-14 -2.22289e-14 -7.4643e-14 -2.89726e-13 9.21026e-14 1.37629e-13 6.3361e-14 -1.73814e-13 -1.54097e-14 2.61021e-13 1.8648e-13 5.5844e-14 -2.21228e-13 -1.65534e-13 -3.86011e-13 -9.58065e-14 -5.16027e-14 -2.69595e-14 2.11915e-13 -3.03738e-14 -2.40728e-14 -8.3762e-14 7.10099e-14 -1.82154e-16 4.246e-15 2.19439e-14 3.87304e-14 7.84571e-14 0 0 9.82902e-16 8.90865e-16 -2.16183e-15 2.6089e-15 -8.16035e-15 -8.62265e-15 3.76205e-15 -9.02236e-15 -9.868e-16 -9.14161e-15 4.54981e-15 -5.0621e-16 6.56046e-15 -5.87419e-15 -1.64701e-14 4.94793e-15 1.18592e-14 -3.74365e-15 8.87716e-15 1.42433e-14 -2.43918e-14 3.99968e-14 -1.56221e-14 4.2347e-14 -6.89477e-16 5.1751e-14 -3.47841e-15 1.88594e-14 1.00278e-14 -3.76363e-14 -4.21509e-15 -1.46794e-16 -1.43938e-14 -6.08856e-14 2.07247e-14 1.86022e-14 3.98055e-14 -2.0091e-15 4.48499e-14 -3.17631e-14 2.43993e-14 3.58126e-14 -6.50474e-14 -5.48097e-15 -2.51471e-14 -3.78982e-14 3.90233e-14 -2.68625e-15 4.13972e-14 1.6429e-14 3.67177e-14 7.48413e-14 -1.16301e-16 -7.66672e-14 -1.51827e-14 7.86627e-14 2.16354e-13 -6.52896e-14 8.31917e-14 2.80379e-14 5.28261e-14 2.08655e-13 1.95382e-12 1.86061e-11 1.65533e-10 1.34811e-09 1.01533e-08 7.0385e-08 4.47037e-07 2.5872e-06 1.35565e-05 6.38177e-05 0.000267389 0.000985922 0.00315803 0.00867635 0.020278 0.0403955 0.0696554 0.106708 0.149522 0.19656 0.247039 0.300693 0.357537 0.417731 0.481525 0.549221 0.621131 0.697458 0.777977 0.86099 0.939638 0.988674 0.973891 0.956587 0.943472 0.93734 0.934828 0.933609 0.934598 0.935284 0.934794 0.934585 0.934237 0.933699 0.93314 0.932533 0.931989 0.931504 0.931157 0.930938 0.930872 0.931195 0.932627 0.933197 0.933209 0.933292 0.933443 0.933796 0.932474 0.932631 0.929512 0.923107 0.928122 0.898439 0.863698 0.858286 0.775757 0.720087 0.616556 0.513441 0.387275 0.267728 0.162628 0.0857658 0.0393437 0.0162447 0.00629599 0.00235678 0.000863685 0.000311414 0.000110607 3.86872e-05 1.33152e-05 4.50544e-06 1.49748e-06 4.88528e-07 1.56332e-07 4.90461e-08 1.50793e-08 4.54165e-09 1.33966e-09 3.86941e-10 1.09556e-10 3.01752e-11 8.26256e-12 2.4282e-12 5.68322e-13 4.57283e-14 2.34067e-13 1.42124e-14 -1.34906e-13 1.24742e-13 -5.66954e-15 -3.31389e-13 -6.81628e-14 2.72559e-13 2.39817e-13 -1.0281e-13 -1.39183e-13 -3.00154e-14 -7.78182e-14 1.13772e-13 -3.11405e-13 -1.25681e-13 1.14636e-13 -7.27616e-14 1.99698e-14 -2.39955e-15 2.69312e-13 3.86843e-13 1.53577e-13 -1.43158e-13 -2.21564e-13 -5.47092e-13 -2.21941e-13 -4.28275e-14 4.2867e-14 1.65915e-13 1.60707e-13 -3.02348e-13 4.93264e-14 1.33265e-13 -3.11437e-13 2.21314e-13 -2.29843e-14 1.29565e-13 2.6082e-13 0
				</DataArray>
				<DataArray Name="VitesseY" type="Float32" format="ascii">