<?xml version="1.0"?>
<VTKFile type="PolyData">
	<PolyData>
		<Piece NumberOfPoints="1206" NumberOfPolys="1000">
			<Points>
				<DataArray type="Float32" NumberOfComponents="3" format="ascii">
 0 0 0 0.005 0 0 0.01 0 0 0.015 0 0 0.02 0 0 0.025 0 0 0.03 0 0 0.035 0 0 0.04 0 0 0.045 0 0 0.05 0 0 0.055 0 0 0.06 0 0 0.065 0 0 0.07 0 0 0.075 0 0 0.08 0 0 0.085 0 0 0.09 0 0 0.095 0 0 0.1 0 0 0.105 0 0 0.11 0 0 0.115 0 0 0.12 0 0 0.125 0 0 0.13 0 0 0.135 0 0 0.14 0 0 0.145 0 0 0.15 0 0 0.155 0 0 0.16 0 0 0.165 0 0 0.17 0 0 0.175 0 0 0.18 0 0 0.185 0 0 0.19 0 0 0.195 0 0 0.2 0 0 0.205 0 0 0.21 0 0 0.215 0 0 0.22 0 0 0.225 0 0 0.23 0 0 0.235 0 0 0.24 0 0 0.245 0 0 0.25 0 0 0.255 0 0 0.26 0 0 0.265 0 0 0.27 0 0 0.275 0 0 0.28 0 0 0.285 0 0 0.29 0 0 0.295 0 0 0.3 0 0 0.305 0 0 0.31 0 0 0.315 0 0 0.32 0 0 0.325 0 0 0.33 0 0 0.335 0 0 0.34 0 0 0.345 0 0 0.35 0 0 0.355002 0 0 0.360007 0 0 0.365021 0 0 0.370059 0 0 0.375144 0 0 0.380309 0 0 0.385592 0 0 0.391026 0 0 0.396641 0 0 0.402462 0 0 0.408513 0 0 0.41482 0 0 0.42141 0 0 0.428315 0 0 0.435572 0 0 0.443222 0 0 0.451315 0 0 0.459911 0 0 0.469078 0 0 0.478898 0 0 0.489458 0 0 0.500829 0 0 0.512971 0 0 0.525446 0 0 0.537743 0 0 0.549843 0 0 0.56179 0 0 0.573657 0 0 0.585494 0 0 0.597322 0 0 0.599605 0 0 0.601887 0 0 0.60417 0 0 0.606451 0 0 0.608732 0 0 0.611012 0 0 0.613289 0 0 0.615566 0 0 0.617845 0 0 0.620124 0 0 0.622406 0 0 0.62469 0 0 0.626975 0 0 0.629259 0 0 0.631541 0 0 0.633824 0 0 0.636107 0 0 0.63839 0 0 0.64067 0 0 0.642947 0 0 0.645226 0 0 0.647506 0 0 0.64979 0 0 0.652077 0 0 0.654364 0 0 0.656651 0 0 0.658936 0 0 0.661225 0 0 0.663532 0 0 0.665866 0 0 0.668301 0 0 0.670851 0 0 0.673545 0 0 0.676427 0 0 0.679578 0 0 0.683037 0 0 0.686854 0 0 0.691023 0 0 0.695506 0 0 0.700225 0 0 0.705092 0 0 0.710036 0 0 0.715013 0 0 0.720005 0 0 0.725002 0 0 0.730001 0 0 0.735 0 0 0.74 0 0 0.745 0 0 0.75 0 0 0.755 0 0 0.76 0 0 0.765 0 0 0.77 0 0 0.775 0 0 0.78 0 0 0.785 0 0 0.79 0 0 0.795 0 0 0.8 0 0 0.805 0 0 0.81 0 0 0.815 0 0 0.82 0 0 0.825 0 0 0.83 0 0 0.835 0 0 0.84 0 0 0.845 0 0 0.85 0 0 0.855 0 0 0.86 0 0 0.865 0 0 0.87 0 0 0.875 0 0 0.88 0 0 0.885 0 0 0.89 0 0 0.895 0 0 0.9 0 0 0.905 0 0 0.91 0 0 0.915 0 0 0.92 0 0 0.925 0 0 0.93 0 0 0.935 0 0 0.94 0 0 0.945 0 0 0.95 0 0 0.955 0 0 0.96 0 0 0.965 0 0 0.97 0 0 0.975 0 0 0.98 0 0 0.985 0 0 0.99 0 0 0.995 0 0 1 0 0 0 0.02 0 0.005 0.02 0 0.01 0.02 0 0.015 0.02 0 0.02 0.02 0 0.025 0.02 0 0.03 0.02 0 0.035 0.02 0 0.04 0.02 0 0.045 0.02 0 0.05 0.02 0 0.055 0.02 0 0.06 0.02 0 0.065 0.02 0 0.07 0.02 0 0.075 0.02 0 0.08 0.02 0 0.085 0.02 0 0.09 0.02 0 0.095 0.02 0 0.1 0.02 0 0.105 0.02 0 0.11 0.02 0 0.115 0.02 0 0.12 0.02 0 0.125 0.02 0 0.13 0.02 0 0.135 0.02 0 0.14 0.02 0 0.145 0.02 0 0.15 0.02 0 0.155 0.02 0 0.16 0.02 0 0.165 0.02 0 0.17 0.02 0 0.175 0.02 0 0.18 0.02 0 0.185 0.02 0 0.19 0.02 0 0.195 0.02 0 0.2 0.02 0 0.205 0.02 0 0.21 0.02 0 0.215 0.02 0 0.22 0.02 0 0.225 0.02 0 0.23 0.02 0 0.235 0.02 0 0.24 0.02 0 0.245 0.02 0 0.25 0.02 0 0.255 0.02 0 0.26 0.02 0 0.265 0.02 0 0.27 0.02 0 0.275 0.02 0 0.28 0.02 0 0.285 0.02 0 0.29 0.02 0 0.295 0.02 0 0.3 0.02 0 0.305 0.02 0 0.31 0.02 0 0.315 0.02 0 0.32 0.02 0 0.325 0.02 0 0.33 0.02 0 0.335 0.02 0 0.34 0.02 0 0.345 0.02 0 0.35 0.02 0 0.355002 0.02 0 0.360007 0.02 0 0.365021 0.02 0 0.370059 0.02 0 0.375144 0.02 0 0.380309 0.02 0 0.385592 0.02 0 0.391026 0.02 0 0.396641 0.02 0 0.402462 0.02 0 0.408513 0.02 0 0.41482 0.02 0 0.42141 0.02 0 0.428315 0.02 0 0.435572 0.02 0 0.443222 0.02 0 0.451315 0.02 0 0.459911 0.02 0 0.469078 0.02 0 0.478898 0.02 0 0.489458 0.02 0 0.500829 0.02 0 0.512971 0.02 0 0.525446 0.02 0 0.537743 0.02 0 0.549843 0.02 0 0.56179 0.02 0 0.573657 0.02 0 0.585494 0.02 0 0.597322 0.02 0 0.599605 0.02 0 0.601887 0.02 0 0.60417 0.02 0 0.606451 0.02 0 0.608732 0.02 0 0.611012 0.02 0 0.613289 0.02 0 0.615566 0.02 0 0.617845 0.02 0 0.620124 0.02 0 0.622406 0.02 0 0.62469 0.02 0 0.626975 0.02 0 0.629259 0.02 0 0.631541 0.02 0 0.633824 0.02 0 0.636107 0.02 0 0.63839 0.02 0 0.64067 0.02 0 0.642947 0.02 0 0.645226 0.02 0 0.647506 0.02 0 0.64979 0.02 0 0.652077 0.02 0 0.654364 0.02 0 0.656651 0.02 0 0.658936 0.02 0 0.661225 0.02 0 0.663532 0.02 0 0.665866 0.02 0 0.668301 0.02 0 0.670851 0.02 0 0.673545 0.02 0 0.676427 0.02 0 0.679578 0.02 0 0.683037 0.02 0 0.686854 0.02 0 0.691023 0.02 0 0.695506 0.02 0 0.700225 0.02 0 0.705092 0.02 0 0.710036 0.02 0 0.715013 0.02 0 0.720005 0.02 0 0.725002 0.02 0 0.730001 0.02 0 0.735 0.02 0 0.74 0.02 0 0.745 0.02 0 0.75 0.02 0 0.755 0.02 0 0.76 0.02 0 0.765 0.02 0 0.77 0.02 0 0.775 0.02 0 0.78 0.02 0 0.785 0.02 0 0.79 0.02 0 0.795 0.02 0 0.8 0.02 0 0.805 0.02 0 0.81 0.02 0 0.815 0.02 0 0.82 0.02 0 0.825 0.02 0 0.83 0.02 0 0.835 0.02 0 0.84 0.02 0 0.845 0.02 0 0.85 0.02 0 0.855 0.02 0 0.86 0.02 0 0.865 0.02 0 0.87 0.02 0 0.875 0.02 0 0.88 0.02 0 0.885 0.02 0 0.89 0.02 0 0.895 0.02 0 0.9 0.02 0 0.905 0.02 0 0.91 0.02 0 0.915 0.02 0 0.92 0.02 0 0.925 0.02 0 0.93 0.02 0 0.935 0.02 0 0.94 0.02 0 0.945 0.02 0 0.95 0.02 0 0.955 0.02 0 0.96 0.02 0 0.965 0.02 0 0.97 0.02 0 0.975 0.02 0 0.98 0.02 0 0.985 0.02 0 0.99 0.02 0 0.995 0.02 0 1 0.02 0 0 0.04 0 0.005 0.04 0 0.01 0.04 0 0.015 0.04 0 0.02 0.04 0 0.025 0.04 0 0.03 0.04 0 0.035 0.04 0 0.04 0.04 0 0.045 0.04 0 0.05 0.04 0 0.055 0.04 0 0.06 0.04 0 0.065 0.04 0 0.07 0.04 0 0.075 0.04 0 0.08 0.04 0 0.085 0.04 0 0.09 0.04 0 0.095 0.04 0 0.1 0.04 0 0.105 0.04 0 0.11 0.04 0 0.115 0.04 0 0.12 0.04 0 0.125 0.04 0 0.13 0.04 0 0.135 0.04 0 0.14 0.04 0 0.145 0.04 0 0.15 0.04 0 0.155 0.04 0 0.16 0.04 0 0.165 0.04 0 0.17 0.04 0 0.175 0.04 0 0.18 0.04 0 0.185 0.04 0 0.19 0.04 0 0.195 0.04 0 0.2 0.04 0 0.205 0.04 0 0.21 0.04 0 0.215 0.04 0 0.22 0.04 0 0.225 0.04 0 0.23 0.04 0 0.235 0.04 0 0.24 0.04 0 0.245 0.04 0 0.25 0.04 0 0.255 0.04 0 0.26 0.04 0 0.265 0.04 0 0.27 0.04 0 0.275 0.04 0 0.28 0.04 0 0.285 0.04 0 0.29 0.04 0 0.295 0.04 0 0.3 0.04 0 0.305 0.04 0 0.31 0.04 0 0.315 0.04 0 0.32 0.04 0 0.325 0.04 0 0.33 0.04 0 0.335 0.04 0 0.34 0.04 0 0.345 0.04 0 0.35 0.04 0 0.355002 0.04 0 0.360007 0.04 0 0.365021 0.04 0 0.370059 0.04 0 0.375144 0.04 0 0.380309 0.04 0 0.385592 0.04 0 0.391026 0.04 0 0.396641 0.04 0 0.402462 0.04 0 0.408513 0.04 0 0.41482 0.04 0 0.42141 0.04 0 0.428315 0.04 0 0.435572 0.04 0 0.443222 0.04 0 0.451315 0.04 0 0.459911 0.04 0 0.469078 0.04 0 0.478898 0.04 0 0.489458 0.04 0 0.500829 0.04 0 0.512971 0.04 0 0.525446 0.04 0 0.537743 0.04 0 0.549843 0.04 0 0.56179 0.04 0 0.573657 0.04 0 0.585494 0.04 0 0.597322 0.04 0 0.599605 0.04 0 0.601887 0.04 0 0.60417 0.04 0 0.606451 0.04 0 0.608732 0.04 0 0.611012 0.04 0 0.613289 0.04 0 0.615566 0.04 0 0.617845 0.04 0 0.620124 0.04 0 0.622406 0.04 0 0.62469 0.04 0 0.626975 0.04 0 0.629259 0.04 0 0.631541 0.04 0 0.633824 0.04 0 0.636107 0.04 0 0.63839 0.04 0 0.64067 0.04 0 0.642947 0.04 0 0.645226 0.04 0 0.647506 0.04 0 0.64979 0.04 0 0.652077 0.04 0 0.654364 0.04 0 0.656651 0.04 0 0.658936 0.04 0 0.661225 0.04 0 0.663532 0.04 0 0.665866 0.04 0 0.668301 0.04 0 0.670851 0.04 0 0.673545 0.04 0 0.676427 0.04 0 0.679578 0.04 0 0.683037 0.04 0 0.686854 0.04 0 0.691023 0.04 0 0.695506 0.04 0 0.700225 0.04 0 0.705092 0.04 0 0.710036 0.04 0 0.715013 0.04 0 0.720005 0.04 0 0.725002 0.04 0 0.730001 0.04 0 0.735 0.04 0 0.74 0.04 0 0.745 0.04 0 0.75 0.04 0 0.755 0.04 0 0.76 0.04 0 0.765 0.04 0 0.77 0.04 0 0.775 0.04 0 0.78 0.04 0 0.785 0.04 0 0.79 0.04 0 0.795 0.04 0 0.8 0.04 0 0.805 0.04 0 0.81 0.04 0 0.815 0.04 0 0.82 0.04 0 0.825 0.04 0 0.83 0.04 0 0.835 0.04 0 0.84 0.04 0 0.845 0.04 0 0.85 0.04 0 0.855 0.04 0 0.86 0.04 0 0.865 0.04 0 0.87 0.04 0 0.875 0.04 0 0.88 0.04 0 0.885 0.04 0 0.89 0.04 0 0.895 0.04 0 0.9 0.04 0 0.905 0.04 0 0.91 0.04 0 0.915 0.04 0 0.92 0.04 0 0.925 0.04 0 0.93 0.04 0 0.935 0.04 0 0.94 0.04 0 0.945 0.04 0 0.95 0.04 0 0.955 0.04 0 0.96 0.04 0 0.965 0.04 0 0.97 0.04 0 0.975 0.04 0 0.98 0.04 0 0.985 0.04 0 0.99 0.04 0 0.995 0.04 0 1 0.04 0 0 0.06 0 0.005 0.06 0 0.01 0.06 0 0.015 0.06 0 0.02 0.06 0 0.025 0.06 0 0.03 0.06 0 0.035 0.06 0 0.04 0.06 0 0.045 0.06 0 0.05 0.06 0 0.055 0.06 0 0.06 0.06 0 0.065 0.06 0 0.07 0.06 0 0.075 0.06 0 0.08 0.06 0 0.085 0.06 0 0.09 0.06 0 0.095 0.06 0 0.1 0.06 0 0.105 0.06 0 0.11 0.06 0 0.115 0.06 0 0.12 0.06 0 0.125 0.06 0 0.13 0.06 0 0.135 0.06 0 0.14 0.06 0 0.145 0.06 0 0.15 0.06 0 0.155 0.06 0 0.16 0.06 0 0.165 0.06 0 0.17 0.06 0 0.175 0.06 0 0.18 0.06 0 0.185 0.06 0 0.19 0.06 0 0.195 0.06 0 0.2 0.06 0 0.205 0.06 0 0.21 0.06 0 0.215 0.06 0 0.22 0.06 0 0.225 0.06 0 0.23 0.06 0 0.235 0.06 0 0.24 0.06 0 0.245 0.06 0 0.25 0.06 0 0.255 0.06 0 0.26 0.06 0 0.265 0.06 0 0.27 0.06 0 0.275 0.06 0 0.28 0.06 0 0.285 0.06 0 0.29 0.06 0 0.295 0.06 0 0.3 0.06 0 0.305 0.06 0 0.31 0.06 0 0.315 0.06 0 0.32 0.06 0 0.325 0.06 0 0.33 0.06 0 0.335 0.06 0 0.34 0.06 0 0.345 0.06 0 0.35 0.06 0 0.355002 0.06 0 0.360007 0.06 0 0.365021 0.06 0 0.370059 0.06 0 0.375144 0.06 0 0.380309 0.06 0 0.385592 0.06 0 0.391026 0.06 0 0.396641 0.06 0 0.402462 0.06 0 0.408513 0.06 0 0.41482 0.06 0 0.42141 0.06 0 0.428315 0.06 0 0.435572 0.06 0 0.443222 0.06 0 0.451315 0.06 0 0.459911 0.06 0 0.469078 0.06 0 0.478898 0.06 0 0.489458 0.06 0 0.500829 0.06 0 0.512971 0.06 0 0.525446 0.06 0 0.537743 0.06 0 0.549843 0.06 0 0.56179 0.06 0 0.573657 0.06 0 0.585494 0.06 0 0.597322 0.06 0 0.599605 0.06 0 0.601887 0.06 0 0.60417 0.06 0 0.606451 0.06 0 0.608732 0.06 0 0.611012 0.06 0 0.613289 0.06 0 0.615566 0.06 0 0.617845 0.06 0 0.620124 0.06 0 0.622406 0.06 0 0.62469 0.06 0 0.626975 0.06 0 0.629259 0.06 0 0.631541 0.06 0 0.633824 0.06 0 0.636107 0.06 0 0.63839 0.06 0 0.64067 0.06 0 0.642947 0.06 0 0.645226 0.06 0 0.647506 0.06 0 0.64979 0.06 0 0.652077 0.06 0 0.654364 0.06 0 0.656651 0.06 0 0.658936 0.06 0 0.661225 0.06 0 0.663532 0.06 0 0.665866 0.06 0 0.668301 0.06 0 0.670851 0.06 0 0.673545 0.06 0 0.676427 0.06 0 0.679578 0.06 0 0.683037 0.06 0 0.686854 0.06 0 0.691023 0.06 0 0.695506 0.06 0 0.700225 0.06 0 0.705092 0.06 0 0.710036 0.06 0 0.715013 0.06 0 0.720005 0.06 0 0.725002 0.06 0 0.730001 0.06 0 0.735 0.06 0 0.74 0.06 0 0.745 0.06 0 0.75
[...]
			<PointData Scalars="VitesseX">
				<DataArray Name="VitesseX" type="Float32" format="ascii">
 0 -3.20752e-16 4.17406e-16 -3.12332e-15 3.21619e-15 2.01479e-15 -4.18788e-15 -1.18668e-15 5.73891e-15 4.20726e-15 -1.06943e-15 4.14088e-16 -8.60829e-16 -4.52387e-15 -4.49244e-15 1.07481e-14 -2.0283e-15 6.06627e-16 8.78128e-15 -2.56561e-15 1.82691e-14 -1.76863e-14 9.42925e-15 1.39242e-14 5.02576e-15 4.24441e-15 1.91458e-14 -2.48868e-14 3.193e-14 8.38006e-15 -1.55359e-14 2.76395e-14 1.23527e-14 2.08733e-15 -2.11114e-14 4.20296e-15 1.61585e-14 1.83968e-14 6.75542e-16 9.69161e-15 8.52624e-15 -4.32643e-15 -3.73357e-15 2.1325e-14 2.11563e-14 -2.26028e-14 2.66298e-14 3.20151e-17 -2.31105e-15 -1.0946e-14 2.98851e-14 8.02778e-15 -2.84856e-14 3.20273e-14 -4.61176e-15 4.79509e-14 3.50341e-15 5.68826e-14 -2.5699e-14 2.72939e-13 1.82241e-12 1.60187e-11 1.31752e-10 1.00887e-09 7.17852e-09 4.72854e-08 2.87161e-07 1.60018e-06 8.1365e-06 3.75024e-05 0.000155444 0.00057387 0.00186596 0.00528061 0.01288 0.0269939 0.048996 0.0785113 0.113954 0.153679 0.196613 0.242246 0.29041 0.341122 0.394496 0.45071 0.509985 0.572567 0.638693 0.708502 0.781781 0.857213 0.929817 0.982274 0.977473 0.960742 0.946745 0.938997 0.935677 0.934541 0.934255 0.933693 0.933161 0.93266 0.932292 0.932038 0.931927 0.931896 0.932014 0.932633 0.933966 0.934752 0.934401 0.934288 0.934056 0.9336 0.93301 0.932243 0.93149 0.930736 0.930197 0.929868 0.929976 0.932136 0.933005 0.932988 0.934106 0.931611 0.921674 0.929333 0.881852 0.854577 0.816076 0.764517 0.661645 0.581587 0.454478 0.33374 0.218099 0.124805 0.0618204 0.0270385 0.010878 0.00418 0.00156773 0.00057922 0.000211427 7.6271e-05 2.71749e-05 9.55416e-06 3.31155e-06 1.13059e-06 3.79908e-07 1.2556e-07 4.0791e-08 1.30198e-08 4.08125e-09 1.256e-09 3.79354e-10 1.12366e-10 3.27566e-11 9.42373e-12 2.52513e-12 7.44853e-13 1.82037e-13 5.65481e-14 6.53106e-14 7.68365e-14 -9.81227e-14 6.52127e-14 1.4615e-14 6.61237e-14 9.27267e-14 -1.06987e-13 -3.36288e-14 8.55853e-14 -2.85291e-14 1.1469e-13 -1.07197e-13 -4.21552e-14 1.06482e-13 -1.36723e-13 1.17967e-13 -6.28838e-14 5.26187e-15 -1.27214e-13 -1.13172e-13 -1.19084e-13 7.59e-14 -1.46244e-13 -1.00267e-13 7.89124e-14 -1.31752e-13 -4.43615e-14 -1.16376e-13 -4.31517e-15 -8.95424e-14 -6.05751e-14 1.05432e-13 -3.61661e-14 0 0 -6.50922e-16 -1.08823e-15 2.48348e-15 -2.87598e-15 3.22791e-15 2.7267e-15 -7.2e-16 1.45262e-15 -5.62468e-15 1.4108e-15 3.03669e-15 -5.72781e-15 -1.5354e-15 1.21599e-14 -4.18173e-15 2.95269e-15 7.34756e-15 6.45036e-16 9.40357e-15 -6.46851e-15 1.07074e-14 -3.11662e-15 1.98244e-14 4.47779e-15 1.98945e-15 2.48663e-14 -6.6247e-16 -2.03575e-14 2.30553e-14 1.19644e-14 -3.67867e-15 1.6438e-14 4.8712e-15 2.2757e-14 -2.2005e-14 1.28133e-14 -3.90031e-15 2.36726e-14 -4.04776e-15 9.47668e-15 2.44689e-15 -9.47532e-15 1.16273e-14 2.23755e-14 -7.31398e-15 9.19137e-15 -6.70881e-16 5.87293e-15 -1.76758e-14 9.06331e-15 4.18719e-14 -2.9025e-14 -3.29807e-15 1.99457e-14 8.27141e-15 6.60383e-14 2.65809e-14 5.62561e-14 2.25209e-13 1.80809e-12 1.60256e-11 1.31691e-10 1.0089e-09 7.1785e-09 4.72854e-08 2.87161e-07 1.60018e-06 8.1365e-06 3.75024e-05 0.000155444 0.00057387 0.00186596 0.00528061 0.01288 0.0269939 0.048996 0.0785113 0.113954 0.153679 0.196613 0.242246 0.29041 0.341122 0.394496 0.45071 0.509985 0.572567 0.638693 0.708502 0.781781 0.857213 0.929817 0.982274 0.977473 0.960742 0.946745 0.938997 0.935677 0.934541 0.934255 0.933693 0.933161 0.93266 0.932292 0.932038 0.931927 0.931896 0.932014 0.932633 0.933966 0.934752 0.934401 0.934288 0.934056 0.9336 0.93301 0.932243 0.93149 0.930736 0.930197 0.929868 0.929976 0.932136 0.933005 0.932988 0.934106 0.931611 0.921674 0.929333 0.881852 0.854577 0.816076 0.764517 0.661645 0.581587 0.454478 0.33374 0.218099 0.124805 0.0618204 0.0270385 0.010878 0.00418 0.00156773 0.00057922 0.000211427 7.6271e-05 2.71749e-05 9.55416e-06 3.31155e-06 1.13059e-06 3.79908e-07 1.2556e-07 4.0791e-08 1.30198e-08 4.08121e-09 1.25598e-09 3.79319e-10 1.12563e-10 3.26977e-11 9.30512e-12 2.76877e-12 7.01871e-13 2.53247e-13 -4.32226e-14 -6.71269e-14 1.58922e-14 2.43559e-14 -9.25535e-14 3.97205e-14 6.8515e-14 -5.56005e-14 1.15038e-13 -8.33497e-14 5.97909e-14 -1.53526e-14 2.42152e-14 4.99495e-14 -1.60682e-14 -1.32053e-13 1.10309e-13 -8.03528e-14 7.24061e-14 -9.44179e-14 -5.31312e-14 3.67567e-14 -1.24633e-13 -5.25612e-14 -9.61591e-14 8.44348e-16 -1.16547e-13 -2.14963e-15 -7.68657e-14 -5.31263e-14 -5.31417e-15 -3.06461e-14 -4.09471e-14 -7.96829e-14 -3.07347e-14 0 0 -8.59157e-16 -3.64498e-16 1.22562e-15 1.13365e-16 1.87262e-15 2.3003e-15 5.29182e-15 -3.37257e-15 -3.58521e-15 -3.36719e-15 -2.52044e-15 -1.32096e-15 5.78901e-15 1.00536e-14 2.13254e-15 -2.07105e-15 1.2521e-14 1.44507e-14 -5.09338e-16 -1.34087e-14 1.29861e-14 9.09635e-15 1.28254e-14 -8.36626e-16 1.49715e-14 2.21474e-14 -7.03464e-15 -7.41574e-15 -7.47529e-15 2.65501e-14 -5.84885e-16 6.9595e-15 -5.29617e-15 4.13705e-14 -2.33768e-14 -7.64686e-16 1.71784e-16 2.38444e-14 -1.46454e-14 4.03735e-14 -1.42633e-14 3.92151e-14 -2.57976e-14 1.24108e-14 -5.76434e-15 2.37566e-16 -8.8071e-15 6.82601e-15 1.0931e-14 8.33949e-15 1.71288e-14 1.38869e-14 5.88283e-16 1.26171e-14 -5.0851e-14 5.35246e-14 6.77515e-14 1.4171e-13 1.71882e-13 1.8282e-12 1.59451e-11 1.31595e-10 1.00895e-09 7.17853e-09 4.72854e-08 2.87161e-07 1.60018e-06 8.1365e-06 3.75024e-05 0.000155444 0.00057387 0.00186596 0.00528061 0.01288 0.0269939 0.048996 0.0785113 0.113954 0.153679 0.196613 0.242246 0.29041 0.341122 0.394496 0.45071 0.509985 0.572567 0.638693 0.708502 0.781781 0.857213 0.929817 0.982274 0.977473 0.960742 0.946745 0.938997 0.935677 0.934541 0.934255 0.933693 0.933161 0.93266 0.932292 0.932038 0.931927 0.931896 0.932014 0.932633 0.933966 0.934752 0.934401 0.934288 0.934056 0.9336 0.93301 0.932243 0.93149 0.930736 0.930197 0.929868 0.929976 0.932136 0.933005 0.932988 0.934106 0.931611 0.921674 0.929333 0.881852 0.854577 0.816076 0.764517 0.661645 0.581587 0.454478 0.33374 0.218099 0.124805 0.0618204 0.0270385 0.010878 0.00418 0.00156773 0.00057922 0.000211427 7.6271e-05 2.71749e-05 9.55416e-06 3.31155e-06 1.13059e-06 3.79908e-07 1.2556e-07 4.0791e-08 1.30198e-08 4.08119e-09 1.25605e-09 3.79365e-10 1.12499e-10 3.28215e-11 9.23265e-12 2.83373e-12 7.47404e-13 9.81476e-14 -8.65716e-14 8.05715e-14 -7.04546e-15 8.76698e-14 -7.52801e-14 5.62824e-14 -8.84375e-14 -4.83674e-14 7.22237e-14 -3.03812e-14 -3.32256e-14 -8.02768e-14 -8.19424e-15 5.83687e-14 -7.19401e-15 8.48448e-14 -1.05227e-13 7.83063e-14 -1.25247e-13 -1.27188e-13 9.02398e-14 -7.73422e-14 -1.6757e-14 -1.60314e-15 -1.65229e-13 -1.03921e-13 1.03985e-13 -8.3418e-14 1.42732e-14 3.48764e-14 4.25489e-15 -9.49631e-14 -1.39145e-14 -2.60822e-14 -8.12022e-14 0 0 -5.26391e-17 1.18668e-15 1.07898e-15 2.47391e-15 -2.41819e-15 1.52297e-15 2.4507e-15 -1.1288e-15 6.02215e-15 2.75496e-15 -8.7078e-15 -4.70865e-15 4.87341e-15 1.0171e-14 6.8528e-15 1.52319e-15 1.0836e-14 1.11547e-15 -4.65018e-15 1.64255e-14 7.61748e-15 2.50669e-14 -8.16682e-15 2.79027e-15 1.07139e-14 1.64005e-14 -1.24931e-14 2.36533e-14 -2.10064e-14 -1.81889e-14 1.18277e-14 3.34679e-15 -7.57002e-15 4.2151e-14 -1.61135e-14 -4.66587e-15 1.64476e-14 -2.05733e-14 2.07686e-14 6.38041e-15 -2.6757e-15 5.04707e-14 -1.55151e-14 -1.59765e-14 -4.45987e-15 1.846e-14 -3.5131e-15 1.48127e-14 3.54393e-14 2.77492e-14 1.35457e-14 -2.09114e-14 2.67458e-14 3.33402e-14 -1.40559e-14 2.19105e-14 1.08366e-13 8.25622e-14 2.33394e-13 1.80916e-12 1.59111e-11 1.31538e-10 1.00893e-09 7.17849e-09 4.72853e-08 2.87161e-07 1.60018e-06 8.1365e-06 3.75024e-05 0.000155444 0.00057387 0.00186596 0.00528061 0.01288 0.0269939 0.048996 0.0785113 0.113954 0.153679 0.196613 0.242246 0.29041 0.341122 0.394496 0.45071 0.509985 0.572567 0.638693 0.708502 0.781781 0.857213 0.929817 0.982274 0.977473 0.960742 0.946745 0.938997 0.935677 0.934541 0.934255 0.933693 0.933161 0.93266 0.932292 0.932038 0.931927 0.931896 0.932014 0.932633 0.933966 0.934752 0.934401 0.934288 0.934056 0.9336 0.93301 0.932243 0.93149 0.930736 0.930197 0.929868 0.929976 0.932136 0.933005 0.932988 0.934106 0.931611 0.921674 0.929333 0.881852 0.854577 0.816076 0.764517 0.661645 0.581587 0.454478 0.33374 0.218099 0.124805 0.0618204 0.0270385 0.010878 0.00418 0.00156773 0.00057922 0.000211427 7.6271e-05 2.71749e-05 9.55416e-06 3.31155e-06 1.13059e-06 3.79908e-07 1.2556e-07 4.0791e-08 1.30198e-08 4.08127e-09 1.25603e-09 3.79374e-10 1.12504e-10 3.27967e-11 9.35942e-12 2.754e-12 6.86594e-13 -1.10655e-13 9.19875e-14 1.01588e-13 8.83463e-14 -1.11521e-13 5.60837e-14 3.42987e-14 7.97801e-14 1.28053e-13 -2.23186e-13 -8.4018e-14 -6.96525e-14 6.81353e-14 -9.63121e-14 -3.50376e-14 5.39297e-14 1.16676e-13 -1.10501e-13 8.85962e-14 -1.81977e-13 -1.05501e-13 1.44177e-13 -1.83371e-13 -6.38281e-14 -1.44197e-13 -1.16896e-13 1.72577e-14 2.07986e-13 -1.86488e-14 -1.2254e-15 -6.99166e-14 8.87573e-14 -8.50897e-14 1.08244e-14 1.51851e-13 -1.70817e-13 0 0 -8.4795e-16 -1.97798e-15 6.51043e-16 -1.5759e-15 3.10833e-16 -3.14333e-16 -2.88431e-15 -1.21619e-15 3.37162e-16 2.692e-15 2.68133e-15 -8.30321e-15 5.74937e-15 1.12934e-14 -1.40921e-14 1.0205e-14 2.1766e-15 -9.79295e-15 4.44811e-15 1.04598e-14 2.43679e-15 4.24827e-14 1.22286e-15 2.71639e-14 1.90021e-15 2.39432e-14 7.70672e-15 -1.91668e-14 1.37067e-14 -3.38999e-14 2.72175e-15 -4.003e-14 9.78351e-15 4.19797e-14 3.27556e-15 -8.18262e-15 -1.33808e-15 -1.20776e-14 4.34745e-15 -2.90071e-15 -8.4533e-15 -1.6963e-14 2.11183e-14 -3.19101e-15 -4.86078e-15 1.76036e-14 3.2083e-14 1.36999e-14 2.60879e-14 2.53582e-14 6.44068e-14 -6.49419e-14 2.44052e-14 5.25184e-14 7.18324e-14 6.13261e-14 5.38869e-14 1.06082e-13 2.31922e-13 1.76107e-12 1.6007e-11 1.31412e-10 1.00895e-09 7.17844e-09 4.72853e-08 2.87161e-07 1.60018e-06 8.1365e-06 3.75024e-05 0.000155444 0.00057387 0.00186596 0.00528061 0.01288 0.0269939 0.048996 0.0785113 0.113954 0.153679 0.196613 0.242246 0.29041 0.341122 0.394496 0.45071 0.509985 0.572567 0.638693 0.708502 0.781781 0.857213 0.929817 0.982274 0.977473 0.960742 0.946745 0.938997 0.935677 0.934541 0.934255 0.933693 0.933161 0.93266 0.932292 0.932038 0.931927 0.931896 0.932014 0.932633 0.933966 0.934752 0.934401 0.934288 0.934056 0.9336 0.93301 0.932243 0.93149 0.930736 0.930197 0.929868 0.929976 0.932136 0.933005 0.932988 0.934106 0.931611 0.921674 0.929333 0.881852 0.854577 0.816076 0.764517 0.661645 0.581587 0.454478 0.33374 0.218099 0.124805 0.0618204 0.0270385 0.010878 0.00418 0.00156773 0.00057922 0.000211427 7.6271e-05 2.71749e-05 9.55416e-06 3.31155e-06 1.13059e-06 3.79908e-07 1.2556e-07 4.0791e-08 1.30198e-08 4.08117e-09 1.25606e-09 3.79346e-10 1.12609e-10 3.2779e-11 9.44466e-12 3.06332e-12 5.90691e-13 2.75851e-14 -2.05094e-14 -1.97477e-14 6.68341e-14 -3.82053e-13 -6.16537e-14 1.31194e-13 2.53919e-13 1.89679e-13 -2.18116e-13 -7.00309e-14 -1.46785e-13 1.80204e-13 -2.62956e-13 5.01214e-14 8.33816e-14 1.85686e-13 -1.41205e-13 -1.37707e-13 -1.90049e-14 -9.31633e-14 1.20016e-13 5.98447e-14 -1.301e-13 -1.43065e-13 -1.69035e-13 2.45425e-14 -8.60947e-14 1.71469e-13 -8.64686e-14 7.43178e-14 1.05156e-13 -4.0622e-14 2.53963e-14 3.95364e-14 -2.03476e-13 0 0 -2.32784e-15 -4.46445e-15 -6.4949e-15 1.09525e-15 4.76226e-15 -8.71528e-15 1.66952e-16 -4.08624e-15 -3.08377e-15 -1.07513e-14 1.20781e-14 7.63735e-16 1.18769e-14 -6.46048e-15 -1.85131e-14 5.28781e-15 -6.36529e-15 1.45757e-14 -4.19485e-15 -7.54244e-15 -2.34904e-14 6.8687e-14 1.87055e-14 4.31442e-14 1.25812e-14 2.87933e-14 2.76855e-15 -2.78267e-14 1.67453e-14 -1.77865e-14 1.56152e-14 -9.33581e-14 1.64597e-14 1.57729e-14 4.02376e-14 -1.8031e-14 -9.03034e-15 1.80103e-14 -4.4346e-14 5.17576e-14 -4.93019e-14 -4.12201e-14 1.97419e-14 2.6798e-14 -2.03053e-14 7.00953e-15 5.49518e-14 -2.63057e-15 2.7565e-14 2.36554e-14 6.02637e-14 -3.0723e-14 3.51188e-14 1.90876e-14 1.01483e-13 5.73072e-14 3.02649e-14 1.9225e-13 1.63342e-13 1.76644e-12 1.60495e-11 1.31306e-10 1.00899e-09 7.17849e-09 4.72852e-08 2.87161e-07 1.60018e-06 8.1365e-06 3.75024e-05 0.000155444 0.00057387 0.00186596 0.00528061 0.01288 0.0269939 0.048996 0.0785113 0.113954 0.153679 0.196613 0.242246 0.29041 0.341122 0.394496 0.45071 0.509985 0.572567 0.638693 0.708502 0.781781 0.857213 0.929817 0.982274 0.977473 0.960742 0.946745 0.938997 0.935677 0.934541 0.934255 0.933693 0.933161 0.93266 0.932292 0.932038 0.931927 0.931896 0.932014 0.932633 0.933966 0.934752 0.934401 0.934288 0.934056 0.9336 0.93301 0.932243 0.93149 0.930736 0.930197 0.929868 0.929976 0.932136 0.933005 0.932988 0.934106 0.931611 0.921674 0.929333 0.881852 0.854577 0.816076 0.764517 0.661645 0.581587 0.454478 0.33374 0.218099 0.124805 0.0618204 0.0270385 0.010878 0.00418 0.00156773 0.00057922 0.000211427 7.6271e-05 2.71749e-05 9.55416e-06 3.31155e-06 1.13059e-06 3.79908e-07 1.2556e-07 4.07909e-08 1.30197e-08 4.081e-09 1.25617e-09 3.79389e-10 1.12447e-10 3.29688e-11 9.44871e-12 3.27375e-12 6.44667e-13 1.482e-13 -2.55234e-13 1.18385e-13 -1.20814e-14 -5.12549e-13 -1.35853e-13 2.41506e-13 1.00746e-13 2.30434e-13 -1.82719e-13 1.00068e-13 -2.54525e-13 6.58543e-14 -2.83542e-13 7.99579e-14 3.44216e-14 6.78229e-13 -6.29317e-13 -1.72114e-14 -1.3186e-13 -3.52657e-14 1.11483e-13 1.45411e-13 -3.55654e-14 1.80018e-13 -3.88925e-13 -2.95319e-13 -6.7958e-14 8.55262e-14 -3.33678e-14 3.47909e-13 4.78075e-14 -1.29143e-13 2.24857e-14 -1.21059e-14 -2.0245e-13 0
				</DataArray>
				<DataArray Name="VitesseY" type="Float32" format="ascii">