<?xml version="1.0"?>
<VTKFile type="PolyData">
	<PolyData>
		<Piece NumberOfPoints="1206" NumberOfPolys="1000">
			<Points>
				<DataArray type="Float32" NumberOfComponents="3" format="ascii">
 0 0 0 0.005 0 0 0.01 0 0 0.015 0 0 0.02 0 0 0.025 0 0 0.03 0 0 0.035 0 0 0.04 0 0 0.045 0 0 0.05 0 0 0.055 0 0 0.06 0 0 0.065 0 0 0.07 0 0 0.075 0 0 0.08 0 0 0.085 0 0 0.09 0 0 0.095 0 0 0.1 0 0 0.105 0 0 0.11 0 0 0.115 0 0 0.12 0 0 0.125 0 0 0.13 0 0 0.135 0 0 0.14 0 0 0.145 0 0 0.15 0 0 0.155 0 0 0.16 0 0 0.165 0 0 0.17 0 0 0.175 0 0 0.18 0 0 0.185 0 0 0.19 0 0 0.195 0 0 0.2 0 0 0.205 0 0 0.21 0 0 0.215 0 0 0.22 0 0 0.225 0 0 0.23 0 0 0.235 0 0 0.24 0 0 0.245 0 0 0.25 0 0 0.255 0 0 0.26 0 0 0.265 0 0 0.27 0 0 0.275 0 0 0.28 0 0 0.285 0 0 0.29 0 0 0.295 0 0 0.3 0 0 0.305 0 0 0.31 0 0 0.315 0 0 0.32 0 0 0.325 0 0 0.33 0 0 0.335 0 0 0.34 0 0 0.345 0 0 0.35 0 0 0.355 0 0 0.36 0 0 0.365 0 0 0.37 0 0 0.375 0 0 0.38 0 0 0.385 0 0 0.39 0 0 0.395 0 0 0.4 0 0 0.405 0 0 0.41 0 0 0.415 0 0 0.420001 0 0 0.425007 0 0 0.43003 0 0 0.435105 0 0 0.440301 0 0 0.445715 0 0 0.451452 0 0 0.457617 0 0 0.464318 0 0 0.471683 0 0 0.479882 0 0 0.489138 0 0 0.499724 0 0 0.511797 0 0 0.52452 0 0 0.53681 0 0 0.548815 0 0 0.551115 0 0 0.553416 0 0 0.555715 0 0 0.558014 0 0 0.560312 0 0 0.562608 0 0 0.564902 0 0 0.567195 0 0 0.569489 0 0 0.571782 0 0 0.574092 0 0 0.576429 0 0 0.578831 0 0 0.58134 0 0 0.583943 0 0 0.586767 0 0 0.58982 0 0 0.593205 0 0 0.596945 0 0 0.601058 0 0 0.605506 0 0 0.610211 0 0 0.615078 0 0 0.620026 0 0 0.625008 0 0 0.630003 0 0 0.635001 0 0 0.64 0 0 0.645 0 0 0.65 0 0 0.655 0 0 0.66 0 0 0.665 0 0 0.67 0 0 0.675 0 0 0.68 0 0 0.685 0 0 0.69 0 0 0.695 0 0 0.7 0 0 0.705 0 0 0.71 0 0 0.715 0 0 0.72 0 0 0.725 0 0 0.73 0 0 0.735 0 0 0.74 0 0 0.745 0 0 0.75 0 0 0.755 0 0 0.76 0 0 0.765 0 0 0.77 0 0 0.775 0 0 0.78 0 0 0.785 0 0 0.79 0 0 0.795 0 0 0.8 0 0 0.805 0 0 0.81 0 0 0.815 0 0 0.82 0 0 0.825 0 0 0.83 0 0 0.835 0 0 0.84 0 0 0.845 0 0 0.85 0 0 0.855 0 0 0.86 0 0 0.865 0 0 0.87 0 0 0.875 0 0 0.88 0 0 0.885 0 0 0.89 0 0 0.895 0 0 0.9 0 0 0.905 0 0 0.91 0 0 0.915 0 0 0.92 0 0 0.925 0 0 0.93 0 0 0.935 0 0 0.94 0 0 0.945 0 0 0.95 0 0 0.955 0 0 0.96 0 0 0.965 0 0 0.97 0 0 0.975 0 0 0.98 0 0 0.985 0 0 0.99 0 0 0.995 0 0 1 0 0 0 0.02 0 0.005 0.02 0 0.01 0.02 0 0.015 0.02 0 0.02 0.02 0 0.025 0.02 0 0.03 0.02 0 0.035 0.02 0 0.04 0.02 0 0.045 0.02 0 0.05 0.02 0 0.055 0.02 0 0.06 0.02 0 0.065 0.02 0 0.07 0.02 0 0.075 0.02 0 0.08 0.02 0 0.085 0.02 0 0.09 0.02 0 0.095 0.02 0 0.1 0.02 0 0.105 0.02 0 0.11 0.02 0 0.115 0.02 0 0.12 0.02 0 0.125 0.02 0 0.13 0.02 0 0.135 0.02 0 0.14 0.02 0 0.145 0.02 0 0.15 0.02 0 0.155 0.02 0 0.16 0.02 0 0.165 0.02 0 0.17 0.02 0 0.175 0.02 0 0.18 0.02 0 0.185 0.02 0 0.19 0.02 0 0.195 0.02 0 0.2 0.02 0 0.205 0.02 0 0.21 0.02 0 0.215 0.02 0 0.22 0.02 0 0.225 0.02 0 0.23 0.02 0 0.235 0.02 0 0.24 0.02 0 0.245 0.02 0 0.25 0.02 0 0.255 0.02 0 0.26 0.02 0 0.265 0.02 0 0.27 0.02 0 0.275 0.02 0 0.28 0.02 0 0.285 0.02 0 0.29 0.02 0 0.295 0.02 0 0.3 0.02 0 0.305 0.02 0 0.31 0.02 0 0.315 0.02 0 0.32 0.02 0 0.325 0.02 0 0.33 0.02 0 0.335 0.02 0 0.34 0.02 0 0.345 0.02 0 0.35 0.02 0 0.355 0.02 0 0.36 0.02 0 0.365 0.02 0 0.37 0.02 0 0.375 0.02 0 0.38 0.02 0 0.385 0.02 0 0.39 0.02 0 0.395 0.02 0 0.4 0.02 0 0.405 0.02 0 0.41 0.02 0 0.415 0.02 0 0.420001 0.02 0 0.425007 0.02 0 0.43003 0.02 0 0.435105 0.02 0 0.440301 0.02 0 0.445715 0.02 0 0.451452 0.02 0 0.457617 0.02 0 0.464318 0.02 0 0.471683 0.02 0 0.479882 0.02 0 0.489138 0.02 0 0.499724 0.02 0 0.511797 0.02 0 0.52452 0.02 0 0.53681 0.02 0 0.548815 0.02 0 0.551115 0.02 0 0.553416 0.02 0 0.555715 0.02 0 0.558014 0.02 0 0.560312 0.02 0 0.562608 0.02 0 0.564902 0.02 0 0.567195 0.02 0 0.569489 0.02 0 0.571782 0.02 0 0.574092 0.02 0 0.576429 0.02 0 0.578831 0.02 0 0.58134 0.02 0 0.583943 0.02 0 0.586767 0.02 0 0.58982 0.02 0 0.593205 0.02 0 0.596945 0.02 0 0.601058 0.02 0 0.605506 0.02 0 0.610211 0.02 0 0.615078 0.02 0 0.620026 0.02 0 0.625008 0.02 0 0.630003 0.02 0 0.635001 0.02 0 0.64 0.02 0 0.645 0.02 0 0.65 0.02 0 0.655 0.02 0 0.66 0.02 0 0.665 0.02 0 0.67 0.02 0 0.675 0.02 0 0.68 0.02 0 0.685 0.02 0 0.69 0.02 0 0.695 0.02 0 0.7 0.02 0 0.705 0.02 0 0.71 0.02 0 0.715 0.02 0 0.72 0.02 0 0.725 0.02 0 0.73 0.02 0 0.735 0.02 0 0.74 0.02 0 0.745 0.02 0 0.75 0.02 0 0.755 0.02 0 0.76 0.02 0 0.765 0.02 0 0.77 0.02 0 0.775 0.02 0 0.78 0.02 0 0.785 0.02 0 0.79 0.02 0 0.795 0.02 0 0.8 0.02 0 0.805 0.02 0 0.81 0.02 0 0.815 0.02 0 0.82 0.02 0 0.825 0.02 0 0.83 0.02 0 0.835 0.02 0 0.84 0.02 0 0.845 0.02 0 0.85 0.02 0 0.855 0.02 0 0.86 0.02 0 0.865 0.02 0 0.87 0.02 0 0.875 0.02 0 0.88 0.02 0 0.885 0.02 0 0.89 0.02 0 0.895 0.02 0 0.9 0.02 0 0.905 0.02 0 0.91 0.02 0 0.915 0.02 0 0.92 0.02 0 0.925 0.02 0 0.93 0.02 0 0.935 0.02 0 0.94 0.02 0 0.945 0.02 0 0.95 0.02 0 0.955 0.02 0 0.96 0.02 0 0.965 0.02 0 0.97 0.02 0 0.975 0.02 0 0.98 0.02 0 0.985 0.02 0 0.99 0.02 0 0.995 0.02 0 1 0.02 0 0 0.04 0 0.005 0.04 0 0.01 0.04 0 0.015 0.04 0 0.02 0.04 0 0.025 0.04 0 0.03 0.04 0 0.035 0.04 0 0.04 0.04 0 0.045 0.04 0 0.05 0.04 0 0.055 0.04 0 0.06 0.04 0 0.065 0.04 0 0.07 0.04 0 0.075 0.04 0 0.08 0.04 0 0.085 0.04 0 0.09 0.04 0 0.095 0.04 0 0.1 0.04 0 0.105 0.04 0 0.11 0.04 0 0.115 0.04 0 0.12 0.04 0 0.125 0.04 0 0.13 0.04 0 0.135 0.04 0 0.14 0.04 0 0.145 0.04 0 0.15 0.04 0 0.155 0.04 0 0.16 0.04 0 0.165 0.04 0 0.17 0.04 0 0.175 0.04 0 0.18 0.04 0 0.185 0.04 0 0.19 0.04 0 0.195 0.04 0 0.2 0.04 0 0.205 0.04 0 0.21 0.04 0 0.215 0.04 0 0.22 0.04 0 0.225 0.04 0 0.23 0.04 0 0.235 0.04 0 0.24 0.04 0 0.245 0.04 0 0.25 0.04 0 0.255 0.04 0 0.26 0.04 0 0.265 0.04 0 0.27 0.04 0 0.275 0.04 0 0.28 0.04 0 0.285 0.04 0 0.29 0.04 0 0.295 0.04 0 0.3 0.04 0 0.305 0.04 0 0.31 0.04 0 0.315 0.04 0 0.32 0.04 0 0.325 0.04 0 0.33 0.04 0 0.335 0.04 0 0.34 0.04 0 0.345 0.04 0 0.35 0.04 0 0.355 0.04 0 0.36 0.04 0 0.365 0.04 0 0.37 0.04 0 0.375 0.04 0 0.38 0.04 0 0.385 0.04 0 0.39 0.04 0 0.395 0.04 0 0.4 0.04 0 0.405 0.04 0 0.41 0.04 0 0.415 0.04 0 0.420001 0.04 0 0.425007 0.04 0 0.43003 0.04 0 0.435105 0.04 0 0.440301 0.04 0 0.445715 0.04 0 0.451452 0.04 0 0.457617 0.04 0 0.464318 0.04 0 0.471683 0.04 0 0.479882 0.04 0 0.489138 0.04 0 0.499724 0.04 0 0.511797 0.04 0 0.52452 0.04 0 0.53681 0.04 0 0.548815 0.04 0 0.551115 0.04 0 0.553416 0.04 0 0.555715 0.04 0 0.558014 0.04 0 0.560312 0.04 0 0.562608 0.04 0 0.564902 0.04 0 0.567195 0.04 0 0.569489 0.04 0 0.571782 0.04 0 0.574092 0.04 0 0.576429 0.04 0 0.578831 0.04 0 0.58134 0.04 0 0.583943 0.04 0 0.586767 0.04 0 0.58982 0.04 0 0.593205 0.04 0 0.596945 0.04 0 0.601058 0.04 0 0.605506 0.04 0 0.610211 0.04 0 0.615078 0.04 0 0.620026 0.04 0 0.625008 0.04 0 0.630003 0.04 0 0.635001 0.04 0 0.64 0.04 0 0.645 0.04 0 0.65 0.04 0 0.655 0.04 0 0.66 0.04 0 0.665 0.04 0 0.67 0.04 0 0.675 0.04 0 0.68 0.04 0 0.685 0.04 0 0.69 0.04 0 0.695 0.04 0 0.7 0.04 0 0.705 0.04 0 0.71 0.04 0 0.715 0.04 0 0.72 0.04 0 0.725 0.04 0 0.73 0.04 0 0.735 0.04 0 0.74 0.04 0 0.745 0.04 0 0.75 0.04 0 0.755 0.04 0 0.76 0.04 0 0.765 0.04 0 0.77 0.04 0 0.775 0.04 0 0.78 0.04 0 0.785 0.04 0 0.79 0.04 0 0.795 0.04 0 0.8 0.04 0 0.805 0.04 0 0.81 0.04 0 0.815 0.04 0 0.82 0.04 0 0.825 0.04 0 0.83 0.04 0 0.835 0.04 0 0.84 0.04 0 0.845 0.04 0 0.85 0.04 0 0.855 0.04 0 0.86 0.04 0 0.865 0.04 0 0.87 0.04 0 0.875 0.04 0 0.88 0.04 0 0.885 0.04 0 0.89 0.04 0 0.895 0.04 0 0.9 0.04 0 0.905 0.04 0 0.91 0.04 0 0.915 0.04 0 0.92 0.04 0 0.925 0.04 0 0.93 0.04 0 0.935 0.04 0 0.94 0.04 0 0.945 0.04 0 0.95 0.04 0 0.955 0.04 0 0.96 0.04 0 0.965 0.04 0 0.97 0.04 0 0.975 0.04 0 0.98 0.04 0 0.985 0.04 0 0.99 0.04 0 0.995 0.04 0 1 0.04 0 0 0.06 0 0.005 0.06 0 0.01 0.06 0 0.015 0.06 0 0.02 0.06 0 0.025 0.06 0 0.03 0.06 0 0.035 0.06 0 0.04 0.06 0 0.045 0.06 0 0.05 0.06 0 0.055 0.06 0 0.06 0.06 0 0.065 0.06 0 0.07 0.06 0 0.075 0.06 0 0.08 0.06 0 0.085 0.06 0 0.09 0.06 0 0.095 0.06 0 0.1 0.06 0 0.105 0.06 0 0.11 0.06 0 0.115 0.06 0 0.12 0.06 0 0.125 0.06 0 0.13 0.06 0 0.135 0.06 0 0.14 0.06 0 0.145 0.06 0 0.15 0.06 0 0.155 0.06 0 0.16 0.06 0 0.165 0.06 0 0.17 0.06 0 0.175 0.06 0 0.18 0.06 0 0.185 0.06 0 0.19 0.06 0 0.195 0.06 0 0.2 0.06 0 0.205 0.06 0 0.21 0.06 0 0.215 0.06 0 0.22 0.06 0 0.225 0.06 0 0.23 0.06 0 0.235 0.06 0 0.24 0.06 0 0.245 0.06 0 0.25 0.06 0 0.255 0.06 0 0.26 0.06 0 0.265 0.06 0 0.27 0.06 0 0.275 0.06 0 0.28 0.06 0 0.285 0.06 0 0.29 0.06 0 0.295 0.06 0 0.3 0.06 0 0.305 0.06 0 0.31 0.06 0 0.315 0.06 0 0.32 0.06 0 0.325 0.06 0 0.33 0.06 0 0.335 0.06 0 0.34 0.06 0 0.345 0.06 0 0.35 0.06 0 0.355 0.06 0 0.36 0.06 0 0.365 0.06 0 0.37 0.06 0 0.375 0.06 0 0.38 0.06 0 0.385 0.06 0 0.39 0.06 0 0.395 0.06 0 0.4 0.06 0 0.405 0.06 0 0.41 0.06 0 0.415 0.06 0 0.420001 0.06 0 0.425007 0.06 0 0.43003 0.06 0 0.435105 0.06 0 0.440301 0.06 0 0.445715 0.06 0 0.451452 0.06 0 0.457617 0.06 0 0.464318 0.06 0 0.471683 0.06 0 0.479882 0.06 0 0.489138 0.06 0 0.499724 0.06 0 0.511797 0.06 0 0.52452 0.06 0 0.53681 0.06 0 0.548815 0.06 0 0.551115 0.06 0 0.553416 0.06 0 0.555715 0.06 0 0.558014 0.06 0 0.560312 0.06 0 0.562608 0.06 0 0.564902 0.06 0 0.567195 0.06 0 0.569489 0.06 0 0.571782 0.06 0 0.574092 0.06 0 0.576429 0.06 0 0.578831 0.06 0 0.58134 0.06 0 0.583943 0.06 0 0.586767 0.06 0 0.58982 0.06 0 0.593205 0.06 0 0.596945 0.06 0 0.601058 0.06 0 0.605506 0.06 0 0.610211 0.06 0 0.615078 0.06 0 0.620026 0.06 0 0.625008 0.06 0 0.630003 0.06 0 0.635001 0.06 0 0.64 0.06 0 0.645 0.06 0 0.65 0.06 0 0.655 0.06 0 0.66 0.06 0 0.665 0.06 0 0.67 0.06 0 0.675 0.06 0 0.68 0.06 0 0.685 0.06 0 0.69 0.06 0 0.695 0.06 0 0.7 0.06 0 0.705 0.06 0 0.71 0.06 0 0.715 0.06 0 0.72 0.06 0 0.725 0.06 0 0.73 0.06 0 0.735 0.06 0 0.74 0.06 0 0.745 0.06 0 0.75 0.06 0 0.755 0.06 0 0.76 0.06 0 0.765 0.06 0 0.77 0.06 0 0.775 0.06 0 0.78 0.06 0 0.785 0.06 0 0.79 0.06 0 0.795 0.06 0 0.8 0.06 0 0.805 0.06 0 0.81 0.06 0 0.815 0.06 0 0.82 0.06 0 0.825 0.06 0 0.83 0.06 0 0.835 0.06 0 0.84 0.06 0 0.845 0.06 0 0.85 0.06 0 0.855 0.06 0 0.86 0.06 0 0.865 0.06 0 0.87 0.06 0 0.875 0.06 0 0.88 0.06 0 0.885 0.06 0 0.89 0.06 0 0.895 0.06 0 0.9 0.06 0 0.905 0.06 0 0.91 0.06 0 0.915 0.06 0 0.92 0.06 0 0.925 0.06 0 
[...]
			<PointData Scalars="VitesseX">
				<DataArray Name="VitesseX" type="Float32" format="ascii">
 0 2.88471e-16 1.42469e-15 -3.79643e-16 1.36765e-15 -2.89275e-15 -1.26662e-15 3.68719e-15 -6.08387e-15 5.60464e-15 -5.86988e-15 3.26612e-15 2.14279e-15 -1.16164e-14 1.23007e-14 1.77305e-15 -1.07953e-14 4.41536e-15 5.71967e-15 -7.63563e-15 3.7788e-15 1.32593e-15 -6.16811e-15 -1.37067e-14 1.28409e-14 1.15095e-14 -2.45518e-15 1.72787e-14 1.10267e-15 -2.47995e-14 8.43786e-15 1.61901e-14 1.44355e-14 2.5487e-14 -4.17551e-14 2.41964e-14 -2.42971e-14 6.67662e-16 -2.70809e-14 1.75114e-14 7.51313e-15 -1.65093e-14 1.03096e-14 -4.63756e-15 -4.98823e-16 -1.80034e-14 2.16541e-14 -3.33408e-15 -1.13657e-14 8.73008e-15 3.34728e-14 8.36178e-15 -1.12353e-14 4.40677e-15 -3.08871e-15 2.21382e-14 -2.80145e-14 6.82802e-15 3.34088e-14 2.21316e-14 -3.04583e-15 -2.77537e-14 1.50461e-14 8.61675e-15 3.42679e-14 -2.84867e-15 5.0704e-14 -4.6236e-14 -4.22156e-15 1.15146e-14 2.58481e-14 2.55743e-14 2.78314e-14 -9.35254e-14 8.69633e-14 6.51958e-13 1.13952e-11 1.57484e-10 1.98001e-09 2.22545e-08 2.22048e-07 1.94965e-06 1.49051e-05 9.79166e-05 0.000543595 0.00249774 0.00927776 0.027329 0.0637493 0.120907 0.195525 0.283372 0.382424 0.492652 0.614884 0.74921 0.889516 0.997825 0.977723 0.950331 0.937972 0.936647 0.935382 0.934097 0.93303 0.931684 0.930217 0.928628 0.927322 0.928463 0.925352 0.930323 0.900089 0.852103 0.87765 0.761159 0.734218 0.600408 0.495446 0.36122 0.23885 0.136052 0.0655894 0.0268813 0.00975728 0.00327806 0.00104629 0.000320757 9.47937e-05 2.70305e-05 7.43731e-06 1.97418e-06 5.05462e-07 1.24816e-07 2.9724e-08 6.82665e-09 1.51223e-09 3.23121e-10 6.65964e-11 1.32799e-11 2.57579e-12 4.73906e-13 9.9727e-15 1.58623e-14 -5.23505e-14 1.15052e-13 -6.79996e-14 1.04475e-14 5.56126e-14 1.57658e-14 -7.61162e-14 -4.86269e-17 4.51237e-14 4.91271e-14 6.76513e-14 -1.10601e-13 7.12863e-14 6.04841e-14 4.47895e-14 -5.9922e-14 2.09058e-14 5.93727e-14 8.03374e-14 -1.15299e-13 -8.99101e-14 8.77475e-14 6.44228e-14 4.57585e-14 -5.76704e-14 5.86865e-14 -4.34471e-14 -1.00023e-13 6.72321e-14 -6.254e-14 -1.1491e-13 8.9027e-14 -1.27338e-13 8.59698e-14 -1.07547e-13 6.35755e-14 -6.11851e-14 -4.83583e-14 7.77376e-14 -6.13223e-14 1.26194e-13 -1.50433e-13 3.43193e-14 -6.81576e-14 -4.90027e-14 5.93953e-14 -1.37827e-13 6.27044e-14 -1.76783e-14 2.45117e-14 -7.28814e-14 8.13503e-15 -7.78215e-14 4.22987e-14 6.44755e-14 3.64024e-14 0 0 -5.23283e-16 -7.04896e-16 8.99872e-16 2.28392e-16 -6.40089e-16 -3.61639e-16 -8.45403e-16 4.19586e-15 -7.65089e-17 -1.43246e-15 2.67823e-16 -3.21528e-15 6.31461e-15 -9.00961e-15 8.53973e-15 -3.36724e-16 -1.23986e-14 8.12188e-15 -1.095e-15 4.91924e-16 6.11162e-15 -4.7717e-15 -5.62357e-15 -3.8058e-15 1.61226e-14 1.5176e-14 -1.23456e-15 2.85374e-15 -1.95667e-14 1.45737e-14 3.33758e-15 8.66992e-15 1.54144e-14 2.21043e-14 -2.80699e-14 -1.00555e-14 -1.48335e-14 1.36915e-14 -7.71528e-15 -8.16234e-15 3.17758e-15 -8.96381e-15 1.64496e-14 -2.85011e-14 1.71745e-14 -3.99196e-15 1.03926e-14 -1.06677e-14 -1.03202e-14 3.71002e-14 9.31249e-15 2.16161e-14 -2.14979e-14 3.64291e-14 -2.3599e-14 8.12959e-17 2.96383e-14 -1.84985e-14 3.67898e-14 1.05017e-14 -1.06812e-14 -2.83948e-14 2.86482e-14 2.01932e-14 -3.11791e-14 5.6966e-14 -3.04932e-14 2.48253e-14 -2.91754e-15 6.04656e-15 3.35863e-14 -3.75392e-14 3.26438e-14 2.47206e-14 7.42525e-13 1.12873e-11 1.57524e-10 1.98005e-09 2.22544e-08 2.22048e-07 1.94965e-06 1.49051e-05 9.79166e-05 0.000543595 0.00249774 0.00927776 0.027329 0.0637493 0.120907 0.195525 0.283372 0.382424 0.492652 0.614884 0.74921 0.889516 0.997825 0.977723 0.950331 0.937972 0.936647 0.935382 0.934097 0.93303 0.931684 0.930217 0.928628 0.927322 0.928463 0.925352 0.930323 0.900089 0.852103 0.87765 0.761159 0.734218 0.600408 0.495446 0.36122 0.23885 0.136052 0.0655894 0.0268813 0.00975728 0.00327806 0.00104629 0.000320757 9.47937e-05 2.70305e-05 7.43731e-06 1.97418e-06 5.05462e-07 1.24816e-07 2.9724e-08 6.82669e-09 1.5122e-09 3.23156e-10 6.66248e-11 1.3227e-11 2.59542e-12 4.57991e-13 8.3279e-14 -2.25507e-15 -9.91794e-14 7.0043e-14 7.21306e-14 -4.5867e-14 8.61213e-14 -3.32918e-14 -6.53104e-14 6.76748e-14 3.10255e-14 -3.11773e-14 6.91893e-14 -5.02014e-14 2.40499e-14 5.63041e-14 -5.93666e-14 1.21663e-13 -1.83632e-14 -8.30778e-14 1.09949e-13 6.32739e-14 -2.98017e-14 -4.92681e-14 1.02292e-13 -8.51843e-14 -1.35295e-14 4.99158e-14 -5.53181e-14 -6.92288e-14 4.72185e-14 4.7433e-14 -7.22376e-14 -6.94581e-14 1.91471e-14 -2.74349e-15 -6.06321e-14 4.64453e-14 -1.32512e-13 1.50707e-13 -1.52367e-13 7.88532e-14 -5.929e-14 -1.50107e-14 -1.52085e-14 -5.39078e-14 -4.53782e-14 5.06828e-14 -3.88961e-14 -9.24258e-14 7.63963e-14 1.16905e-14 -8.06958e-14 -8.44686e-14 1.77221e-14 8.57415e-14 -6.90068e-14 8.44088e-14 0 0 -2.05301e-15 -1.09087e-15 6.76512e-16 2.69127e-15 7.72417e-17 -2.16219e-15 1.6272e-15 6.31895e-15 -3.24799e-15 -3.14625e-15 2.73019e-15 -4.13244e-15 4.13172e-15 2.87027e-15 3.77683e-15 -1.00464e-14 -4.48316e-15 1.12793e-14 7.63124e-15 -1.64335e-15 -5.88909e-15 1.02318e-14 -1.4529e-14 -4.93068e-15 6.35917e-15 1.57606e-14 3.74287e-16 1.55039e-14 -1.47204e-14 2.85958e-14 -8.14953e-15 2.57679e-15 -1.09373e-14 2.20919e-14 -8.81133e-15 8.12511e-15 -1.67711e-14 1.38487e-14 -1.79533e-14 -6.41932e-16 1.30542e-14 -2.13516e-14 3.68724e-15 -1.77357e-14 2.38069e-14 -1.82641e-14 2.67633e-14 -2.34603e-14 2.72488e-14 4.10389e-14 -3.70147e-14 4.86254e-14 -2.77537e-14 -2.35674e-15 2.27244e-14 -2.47325e-16 3.70318e-14 -2.58472e-14 5.86813e-14 -2.23974e-14 1.91835e-14 -7.49553e-14 3.1087e-14 -3.08368e-15 -1.16065e-14 6.02493e-14 5.24995e-15 1.9105e-14 1.86662e-15 -9.77017e-15 -3.67338e-14 5.31883e-14 3.45474e-14 7.30641e-14 7.4851e-13 1.12222e-11 1.57514e-10 1.98e-09 2.22545e-08 2.22048e-07 1.94965e-06 1.49051e-05 9.79166e-05 0.000543595 0.00249774 0.00927776 0.027329 0.0637493 0.120907 0.195525 0.283372 0.382424 0.492652 0.614884 0.74921 0.889516 0.997825 0.977723 0.950331 0.937972 0.936647 0.935382 0.934097 0.93303 0.931684 0.930217 0.928628 0.927322 0.928463 0.925352 0.930323 0.900089 0.852103 0.87765 0.761159 0.734218 0.600408 0.495446 0.36122 0.23885 0.136052 0.0655894 0.0268813 0.00975728 0.00327806 0.00104629 0.000320757 9.47937e-05 2.70305e-05 7.43731e-06 1.97418e-06 5.05462e-07 1.24816e-07 2.97241e-08 6.82672e-09 1.51224e-09 3.23153e-10 6.66348e-11 1.32563e-11 2.63906e-12 4.88951e-13 9.53258e-14 -4.12858e-14 -8.35161e-14 1.36627e-14 3.05107e-14 1.71869e-14 7.99669e-15 2.43658e-14 -1.55911e-14 1.01576e-13 -2.61711e-14 -4.86017e-14 1.38175e-13 5.14509e-14 2.94221e-15 -9.8456e-14 3.24912e-15 -1.99207e-14 1.34787e-13 1.14261e-14 -4.78226e-14 5.50588e-14 -2.98833e-14 7.01834e-14 3.54073e-14 -1.39035e-14 -1.17258e-13 1.635e-13 -1.17939e-13 2.14867e-14 4.44415e-14 -5.58875e-14 -7.39301e-15 -1.2315e-13 2.35499e-14 2.49596e-14 9.139e-14 -1.45365e-13 1.79409e-14 -5.57082e-14 9.46393e-14 -4.24632e-14 -1.69376e-13 4.2291e-14 -1.25453e-13 -4.03898e-14 2.34992e-14 -1.17763e-14 -4.8705e-14 9.8782e-14 -3.87151e-14 -1.07016e-15 -1.91878e-13 4.48983e-14 1.10748e-14 2.54506e-14 -4.93182e-14 4.09167e-15 0 0 7.47466e-16 -3.28754e-16 -3.62936e-16 2.45022e-15 1.15131e-15 -7.3526e-16 -1.47932e-15 -3.77564e-15 -4.11684e-15 5.56334e-16 -7.89371e-15 5.45883e-15 -3.56175e-15 1.18492e-14 -3.35222e-15 -3.01123e-15 1.25989e-14 4.54195e-16 7.85621e-15 -5.0433e-15 -1.01255e-14 4.29892e-15 -5.41844e-15 3.94034e-15 -2.47348e-14 3.2965e-15 2.33606e-14 2.30932e-14 -4.53747e-15 2.68019e-14 -8.17863e-15 -2.16413e-14 -9.90648e-15 -2.29475e-15 3.66681e-14 3.14212e-14 -1.81525e-14 -2.66036e-14 3.40933e-14 8.4626e-15 -4.04642e-14 2.65358e-15 1.02598e-14 3.24346e-14 -6.11921e-15 1.06939e-14 6.58493e-15 -2.46339e-14 4.19512e-14 -2.00672e-14 -1.1834e-14 2.00953e-14 -4.01888e-14 8.93049e-15 2.10953e-14 4.80972e-15 2.81057e-14 3.85674e-14 7.24955e-16 -1.5574e-14 5.4732e-15 -5.41376e-15 -1.92928e-14 -5.43153e-14 5.82271e-14 4.7444e-14 1.76329e-14 -1.57726e-14 2.94364e-14 1.14602e-14 1.31327e-14 2.15106e-15 1.75509e-14 7.10485e-14 7.76585e-13 1.12346e-11 1.57507e-10 1.97989e-09 2.22546e-08 2.22048e-07 1.94965e-06 1.49051e-05 9.79166e-05 0.000543595 0.00249774 0.00927776 0.027329 0.0637493 0.120907 0.195525 0.283372 0.382424 0.492652 0.614884 0.74921 0.889516 0.997825 0.977723 0.950331 0.937972 0.936647 0.935382 0.934097 0.93303 0.931684 0.930217 0.928628 0.927322 0.928463 0.925352 0.930323 0.900089 0.852103 0.87765 0.761159 0.734218 0.600408 0.495446 0.36122 0.23885 0.136052 0.0655894 0.0268813 0.00975728 0.00327806 0.00104629 0.000320757 9.47937e-05 2.70305e-05 7.43731e-06 1.97418e-06 5.05462e-07 1.24816e-07 2.97241e-08 6.82669e-09 1.51231e-09 3.23105e-10 6.67674e-11 1.32271e-11 2.62313e-12 5.73763e-13 1.10638e-14 -1.02006e-13 -6.038e-14 2.98716e-14 -1.31411e-14 4.42581e-14 -4.07807e-14 3.78174e-14 8.52545e-15 1.95939e-13 -5.00443e-14 -3.35937e-15 1.1636e-13 6.68294e-14 1.59768e-13 4.83681e-14 -1.24541e-13 -1.07112e-13 1.13057e-13 -3.68678e-15 -1.46702e-13 -1.93827e-15 -5.6953e-14 2.39888e-13 -5.92577e-14 2.84471e-14 -3.5651e-14 -5.09139e-14 1.48646e-13 1.31157e-14 6.76699e-14 -1.04395e-13 5.00107e-14 -2.67485e-15 -9.75303e-14 -1.52331e-13 1.69768e-13 -1.03168e-13 -1.66041e-13 4.16185e-14 2.28572e-13 -1.90531e-13 -7.59875e-14 -7.72634e-14 -5.18972e-14 -8.5493e-14 5.61795e-14 -6.56663e-14 2.61084e-13 8.08673e-15 -5.85074e-14 -1.59957e-13 -1.20191e-13 -1.52328e-13 1.17486e-13 -1.06996e-13 1.26067e-13 -7.31806e-14 0 0 1.8881e-15 -3.67423e-16 7.43983e-16 2.3744e-16 2.24276e-15 5.08543e-15 -3.91668e-15 -3.54808e-15 -1.32843e-14 8.73472e-15 -5.68783e-15 4.82741e-15 2.0548e-15 -3.39926e-15 6.13746e-15 7.49086e-15 4.9067e-15 -8.25883e-15 1.50807e-15 -1.07337e-14 1.67319e-15 -5.44736e-15 7.1109e-15 2.20778e-15 -1.65649e-14 -3.48166e-15 1.22065e-14 3.72559e-15 1.46745e-14 9.34267e-15 5.08311e-16 -2.25912e-14 1.38537e-14 1.8419e-14 9.49112e-15 2.13004e-14 3.25535e-15 -1.0912e-14 6.05809e-14 -4.90255e-14 2.01201e-14 -3.24606e-14 1.55009e-14 2.44719e-14 -5.72368e-14 3.43245e-14 2.3698e-14 8.87473e-15 -3.03847e-14 -8.96381e-15 1.84132e-14 1.21428e-14 -3.53643e-14 3.67234e-14 -4.5088e-14 -7.01272e-15 2.9846e-14 7.3775e-14 1.63332e-14 -2.88765e-14 4.1197e-15 2.90484e-14 -4.94798e-14 -2.22731e-14 3.3889e-14 2.95804e-14 4.17955e-14 2.36791e-14 3.83575e-14 -1.06955e-14 7.83867e-14 -1.48787e-13 6.66871e-14 6.47512e-14 7.67032e-13 1.11948e-11 1.57622e-10 1.9798e-09 2.22546e-08 2.22048e-07 1.94965e-06 1.49051e-05 9.79166e-05 0.000543595 0.00249774 0.00927776 0.027329 0.0637493 0.120907 0.195525 0.283372 0.382424 0.492652 0.614884 0.74921 0.889516 0.997825 0.977723 0.950331 0.937972 0.936647 0.935382 0.934097 0.93303 0.931684 0.930217 0.928628 0.927322 0.928463 0.925352 0.930323 0.900089 0.852103 0.87765 0.761159 0.734218 0.600408 0.495446 0.36122 0.23885 0.136052 0.0655894 0.0268813 0.00975728 0.00327806 0.00104629 0.000320757 9.47937e-05 2.70305e-05 7.43731e-06 1.97418e-06 5.05462e-07 1.24816e-07 2.9724e-08 6.82674e-09 1.51228e-09 3.23101e-10 6.68022e-11 1.31556e-11 2.62897e-12 5.04578e-13 -4.00586e-14 -6.06629e-14 -4.56151e-14 -1.34714e-14 7.63473e-14 1.77374e-14 -6.89583e-14 -3.0115e-14 4.58896e-14 1.86399e-13 1.42722e-13 1.22502e-14 -8.8084e-15 3.45807e-14 1.53046e-13 5.31395e-14 -3.87984e-14 1.59507e-13 -5.6986e-14 -9.82535e-14 -1.8985e-13 3.97214e-14 8.63714e-14 5.02928e-14 -2.1451e-14 -8.20488e-14 -1.48165e-14 -9.91253e-16 8.73787e-14 -2.05454e-13 7.29258e-14 1.60845e-13 1.23584e-13 1.80316e-13 -2.09186e-14 -4.34583e-13 2.20343e-14 -3.57641e-14 -1.10051e-13 1.66414e-13 1.09748e-13 -2.92525e-13 1.34951e-13 5.01626e-14 -5.87774e-14 -1.28146e-13 3.75154e-14 -5.71899e-14 1.43909e-13 -1.15721e-13 8.06114e-14 -3.39777e-13 -2.18239e-14 -3.23448e-13 2.52834e-13 -1.24448e-13 7.6312e-14 4.62275e-14 0 0 -4.89709e-16 5.75418e-16 1.38747e-15 1.86784e-15 7.24807e-16 6.77366e-15 3.75767e-15 -1.38255e-15 -1.90732e-14 7.05932e-15 1.26026e-14 -9.54364e-16 -4.7491e-15 5.56357e-15 1.12266e-14 -9.21058e-15 4.86187e-15 -5.39151e-15 -2.87942e-15 -1.18726e-14 9.2197e-16 4.34637e-15 -6.45893e-15 7.12597e-15 8.32254e-15 -1.48424e-14 -1.81172e-15 -1.23323e-14 2.3317e-14 1.56364e-15 1.05898e-14 3.49332e-16 2.0304e-14 -3.52512e-16 8.35962e-15 -8.17768e-15 3.96081e-14 4.6166e-15 5.00106e-14 -9.24224e-14 1.24413e-13 -8.46944e-14 -1.96801e-14 5.10667e-15 -1.06974e-13 4.0371e-14 6.36334e-14 3.00663e-14 -6.08037e-14 6.35571e-14 -2.37982e-14 2.68783e-14 1.54446e-15 -2.50746e-14 -1.75817e-14 -5.23166e-14 2.50958e-14 8.91267e-14 9.71311e-14 -9.54491e-14 2.92685e-14 -9.15031e-15 -4.68795e-14 5.17983e-14 -1.23796e-14 2.15435e-14 7.35755e-14 6.32414e-14 3.89251e-14 -5.00968e-14 1.54419e-14 -9.25887e-14 8.55435e-15 1.71056e-13 6.44822e-13 1.11855e-11 1.57694e-10 1.97976e-09 2.22547e-08 2.22048e-07 1.94965e-06 1.49051e-05 9.79166e-05 0.000543595 0.00249774 0.00927776 0.027329 0.0637493 0.120907 0.195525 0.283372 0.382424 0.492652 0.614884 0.74921 0.889516 0.997825 0.977723 0.950331 0.937972 0.936647 0.935382 0.934097 0.93303 0.931684 0.930217 0.928628 0.927322 0.928463 0.925352 0.930323 0.900089 0.852103 0.87765 0.761159 0.734218 0.600408 0.495446 0.36122 0.23885 0.136052 0.0655894 0.0268813 0.00975728 0.00327806 0.00104629 0.000320757 9.47937e-05 2.70305e-05 7.43731e-06 1.97418e-06 5.05462e-07 1.24816e-07 2.9724e-08 6.8268e-09 1.51226e-09 3.23108e-10 6.66857e-11 1.31957e-11 2.67504e-12 3.98028e-13 -6.8052e-14 2.029e-14 8.59571e-15 -8.42873e-14 2.79123e-14 8.36889e-14 -1.56877e-13 -4.69862e-15 9.81878e-14 4.87478e-14 3.16399e-13 4.55308e-14 -4.51302e-14 2.78458e-14 1.54309e-14 -2.39403e-13 3.41281e-13 1.89764e-13 -1.31108e-14 5.88983e-14 -3.21602e-13 -4.80473e-14 1.96686e-13 -5.26298e-14 6.63439e-15 -3.24822e-14 -2.23467e-13 3.85524e-13 -2.91152e-13 -3.55367e-13 7.20282e-14 2.60943e-13 1.619e-13 3.47757e-13 3.45204e-14 -4.23557e-13 -9.92179e-14 -1.85257e-13 3.51653e-13 -2.11657e-13 3.34004e-13 -5.0824e-13 3.28048e-13 2.19336e-13 -1.99655e-13 -1.26021e-13 5.1418e-14 -4.89277e-14 -3.91753e-13 1.97808e-13 3.02188e-14 -3.60802e-13 -9.851e-14 -7.52027e-14 1.79851e-13 -1.13127e-13 4.13908e-15 1.14382e-13 0
				</DataArray>
				<DataArray Name="VitesseY" type="Float32" format="ascii">