<?xml version="1.0"?>
<VTKFile type="PolyData">
	<PolyData>
		<Piece NumberOfPoints="1206" NumberOfPolys="1000">
			<Points>
				<DataArray type="Float32" NumberOfComponents="3" format="ascii">
 0 0 0 0.005 0 0 0.01 0 0 0.015 0 0 0.02 0 0 0.025 0 0 0.03 0 0 0.035 0 0 0.04 0 0 0.045 0 0 0.05 0 0 0.055 0 0 0.06 0 0 0.065 0 0 0.07 0 0 0.075 0 0 0.08 0 0 0.085 0 0 0.09 0 0 0.095 0 0 0.1 0 0 0.105 0 0 0.11 0 0 0.115 0 0 0.12 0 0 0.125 0 0 0.13 0 0 0.135 0 0 0.14 0 0 0.145 0 0 0.15 0 0 0.155 0 0 0.16 0 0 0.165 0 0 0.17 0 0 0.175 0 0 0.18 0 0 0.185 0 0 0.19 0 0 0.195 0 0 0.2 0 0 0.205 0 0 0.21 0 0 0.215 0 0 0.22 0 0 0.225 0 0 0.23 0 0 0.235 0 0 0.24 0 0 0.245 0 0 0.25 0 0 0.255 0 0 0.26 0 0 0.265 0 0 0.27 0 0 0.275001 0 0 0.280003 0 0 0.285009 0 0 0.290022 0 0 0.295053 0 0 0.300113 0 0 0.305221 0 0 0.310394 0 0 0.315652 0 0 0.321008 0 0 0.326474 0 0 0.332062 0 0 0.337779 0 0 0.343635 0 0 0.349638 0 0 0.355799 0 0 0.362128 0 0 0.368634 0 0 0.375332 0 0 0.382232 0 0 0.389351 0 0 0.396704 0 0 0.404307 0 0 0.412183 0 0 0.420351 0 0 0.428836 0 0 0.437667 0 0 0.446874 0 0 0.456491 0 0 0.466556 0 0 0.477108 0 0 0.488183 0 0 0.499797 0 0 0.5119 0 0 0.52424 0 0 0.536495 0 0 0.548629 0 0 0.560641 0 0 0.57256 0 0 0.584421 0 0 0.596253 0 0 0.608072 0 0 0.619886 0 0 0.631698 0 0 0.643508 0 0 0.655316 0 0 0.657596 0 0 0.659876 0 0 0.662157 0 0 0.664439 0 0 0.66672 0 0 0.669 0 0 0.671278 0 0 0.673556 0 0 0.675836 0 0 0.678113 0 0 0.680391 0 0 0.682671 0 0 0.684952 0 0 0.687231 0 0 0.689508 0 0 0.691786 0 0 0.694066 0 0 0.696345 0 0 0.698622 0 0 0.700897 0 0 0.703174 0 0 0.705453 0 0 0.707731 0 0 0.71001 0 0 0.712288 0 0 0.714566 0 0 0.716848 0 0 0.719131 0 0 0.721413 0 0 0.723693 0 0 0.725972 0 0 0.728252 0 0 0.730531 0 0 0.732809 0 0 0.735086 0 0 0.737366 0 0 0.739651 0 0 0.741938 0 0 0.744224 0 0 0.746508 0 0 0.748792 0 0 0.751073 0 0 0.753352 0 0 0.755627 0 0 0.757902 0 0 0.76018 0 0 0.762465 0 0 0.764747 0 0 0.767031 0 0 0.769335 0 0 0.771654 0 0 0.774052 0 0 0.776567 0 0 0.779198 0 0 0.78203 0 0 0.785093 0 0 0.78846 0 0 0.792169 0 0 0.796238 0 0 0.800635 0 0 0.805293 0 0 0.810124 0 0 0.815049 0 0 0.820019 0 0 0.825007 0 0 0.830003 0 0 0.835001 0 0 0.84 0 0 0.845 0 0 0.85 0 0 0.855 0 0 0.86 0 0 0.865 0 0 0.87 0 0 0.875 0 0 0.88 0 0 0.885 0 0 0.89 0 0 0.895 0 0 0.9 0 0 0.905 0 0 0.91 0 0 0.915 0 0 0.92 0 0 0.925 0 0 0.93 0 0 0.935 0 0 0.94 0 0 0.945 0 0 0.95 0 0 0.955 0 0 0.96 0 0 0.965 0 0 0.97 0 0 0.975 0 0 0.98 0 0 0.985 0 0 0.99 0 0 0.995 0 0 1 0 0 0 0.02 0 0.005 0.02 0 0.01 0.02 0 0.015 0.02 0 0.02 0.02 0 0.025 0.02 0 0.03 0.02 0 0.035 0.02 0 0.04 0.02 0 0.045 0.02 0 0.05 0.02 0 0.055 0.02 0 0.06 0.02 0 0.065 0.02 0 0.07 0.02 0 0.075 0.02 0 0.08 0.02 0 0.085 0.02 0 0.09 0.02 0 0.095 0.02 0 0.1 0.02 0 0.105 0.02 0 0.11 0.02 0 0.115 0.02 0 0.12 0.02 0 0.125 0.02 0 0.13 0.02 0 0.135 0.02 0 0.14 0.02 0 0.145 0.02 0 0.15 0.02 0 0.155 0.02 0 0.16 0.02 0 0.165 0.02 0 0.17 0.02 0 0.175 0.02 0 0.18 0.02 0 0.185 0.02 0 0.19 0.02 0 0.195 0.02 0 0.2 0.02 0 0.205 0.02 0 0.21 0.02 0 0.215 0.02 0 0.22 0.02 0 0.225 0.02 0 0.23 0.02 0 0.235 0.02 0 0.24 0.02 0 0.245 0.02 0 0.25 0.02 0 0.255 0.02 0 0.26 0.02 0 0.265 0.02 0 0.27 0.02 0 0.275001 0.02 0 0.280003 0.02 0 0.285009 0.02 0 0.290022 0.02 0 0.295053 0.02 0 0.300113 0.02 0 0.305221 0.02 0 0.310394 0.02 0 0.315652 0.02 0 0.321008 0.02 0 0.326474 0.02 0 0.332062 0.02 0 0.337779 0.02 0 0.343635 0.02 0 0.349638 0.02 0 0.355799 0.02 0 0.362128 0.02 0 0.368634 0.02 0 0.375332 0.02 0 0.382232 0.02 0 0.389351 0.02 0 0.396704 0.02 0 0.404307 0.02 0 0.412183 0.02 0 0.420351 0.02 0 0.428836 0.02 0 0.437667 0.02 0 0.446874 0.02 0 0.456491 0.02 0 0.466556 0.02 0 0.477108 0.02 0 0.488183 0.02 0 0.499797 0.02 0 0.5119 0.02 0 0.52424 0.02 0 0.536495 0.02 0 0.548629 0.02 0 0.560641 0.02 0 0.57256 0.02 0 0.584421 0.02 0 0.596253 0.02 0 0.608072 0.02 0 0.619886 0.02 0 0.631698 0.02 0 0.643508 0.02 0 0.655316 0.02 0 0.657596 0.02 0 0.659876 0.02 0 0.662157 0.02 0 0.664439 0.02 0 0.66672 0.02 0 0.669 0.02 0 0.671278 0.02 0 0.673556 0.02 0 0.675836 0.02 0 0.678113 0.02 0 0.680391 0.02 0 0.682671 0.02 0 0.684952 0.02 0 0.687231 0.02 0 0.689508 0.02 0 0.691786 0.02 0 0.694066 0.02 0 0.696345 0.02 0 0.698622 0.02 0 0.700897 0.02 0 0.703174 0.02 0 0.705453 0.02 0 0.707731 0.02 0 0.71001 0.02 0 0.712288 0.02 0 0.714566 0.02 0 0.716848 0.02 0 0.719131 0.02 0 0.721413 0.02 0 0.723693 0.02 0 0.725972 0.02 0 0.728252 0.02 0 0.730531 0.02 0 0.732809 0.02 0 0.735086 0.02 0 0.737366 0.02 0 0.739651 0.02 0 0.741938 0.02 0 0.744224 0.02 0 0.746508 0.02 0 0.748792 0.02 0 0.751073 0.02 0 0.753352 0.02 0 0.755627 0.02 0 0.757902 0.02 0 0.76018 0.02 0 0.762465 0.02 0 0.764747 0.02 0 0.767031 0.02 0 0.769335 0.02 0 0.771654 0.02 0 0.774052 0.02 0 0.776567 0.02 0 0.779198 0.02 0 0.78203 0.02 0 0.785093 0.02 0 0.78846 0.02 0 0.792169 0.02 0 0.796238 0.02 0 0.800635 0.02 0 0.805293 0.02 0 0.810124 0.02 0 0.815049 0.02 0 0.820019 0.02 0 0.825007 0.02 0 0.830003 0.02 0 0.835001 0.02 0 0.84 0.02 0 0.845 0.02 0 0.85 0.02 0 0.855 0.02 0 0.86 0.02 0 0.865 0.02 0 0.87 0.02 0 0.875 0.02 0 0.88 0.02 0 0.885 0.02 0 0.89 0.02 0 0.895 0.02 0 0.9 0.02 0 0.905 0.02 0 0.91 0.02 0 0.915 0.02 0 0.92 0.02 0 0.925 0.02 0 0.93 0.02 0 0.935 0.02 0 0.94 0.02 0 0.945 0.02 0 0.95 0.02 0 0.955 0.02 0 0.96 0.02 0 0.965 0.02 0 0.97 0.02 0 0.975 0.02 0 0.98 0.02 0 0.985 0.02 0 0.99 0.02 0 0.995 0.02 0 1 0.02 0 0 0.04 0 0.005 0.04 0 0.01 0.04 0 0.015 0.04 0 0.02 0.04 0 0.025 0.04 0 0.03 0.04 0 0.035 0.04 0 0.04 0.04 0 0.045 0.04 0 0.05 0.04 0 0.055 0.04 0 0.06 0.04 0 0.065 0.04 0 0.07 0.04 0 0.075 0.04 0 0.08 0.04 0 0.085 0.04 0 0.09 0.04 0 0.095 0.04 0 0.1 0.04 0 0.105 0.04 0 0.11 0.04 0 0.115 0.04 0 0.12 0.04 0 0.125 0.04 0 0.13 0.04 0 0.135 0.04 0 0.14 0.04 0 0.145 0.04 0 0.15 0.04 0 0.155 0.04 0 0.16 0.04 0 0.165 0.04 0 0.17 0.04 0 0.175 0.04 0 0.18 0.04 0 0.185 0.04 0 0.19 0.04 0 0.195 0.04 0 0.2 0.04 0 0.205 0.04 0 0.21 0.04 0 0.215 0.04 0 0.22 0.04 0 0.225 0.04 0 0.23 0.04 0 0.235 0.04 0 0.24 0.04 0 0.245 0.04 0 0.25 0.04 0 0.255 0.04 0 0.26 0.04 0 0.265 0.04 0 0.27 0.04 0 0.275001 0.04 0 0.280003 0.04 0 0.285009 0.04 0 0.290022 0.04 0 0.295053 0.04 0 0.300113 0.04 0 0.305221 0.04 0 0.310394 0.04 0 0.315652 0.04 0 0.321008 0.04 0 0.326474 0.04 0 0.332062 0.04 0 0.337779 0.04 0 0.343635 0.04 0 0.349638 0.04 0 0.355799 0.04 0 0.362128 0.04 0 0.368634 0.04 0 0.375332 0.04 0 0.382232 0.04 0 0.389351 0.04 0 0.396704 0.04 0 0.404307 0.04 0 0.412183 0.04 0 0.420351 0.04 0 0.428836 0.04 0 0.437667 0.04 0 0.446874 0.04 0 0.456491 0.04 0 0.466556 0.04 0 0.477108 0.04 0 0.488183 0.04 0 0.499797 0.04 0 0.5119 0.04 0 0.52424 0.04 0 0.536495 0.04 0 0.548629 0.04 0 0.560641 0.04 0 0.57256 0.04 0 0.584421 0.04 0 0.596253 0.04 0 0.608072 0.04 0 0.619886 0.04 0 0.631698 0.04 0 0.643508 0.04 0 0.655316 0.04 0 0.657596 0.04 0 0.659876 0.04 0 0.662157 0.04 0 0.664439 0.04 0 0.66672 0.04 0 0.669 0.04 0 0.671278 0.04 0 0.673556 0.04 0 0.675836 0.04 0 0.678113 0.04 0 0.680391 0.04 0 0.682671 0.04 0 0.684952 0.04 0 0.687231 0.04 0 0.689508 0.04 0 0.691786 0.04 0 0.694066 0.04 0 0.696345 0.04 0 0.698622 0.04 0 0.700897 0.04 0 0.703174 0.04 0 0.705453 0.04 0 0.707731 0.04 0 0.71001 0.04 0 0.712288 0.04 0 0.714566 0.04 0 0.716848 0.04 0 0.719131 0.04 0 0.721413 0.04 0 0.723693 0.04 0 0.725972 0.04 0 0.728252 0.04 0 0.730531 0.04 0 0.732809 0.04 0 0.735086 0.04 0 0.737366 0.04 0 0.739651 0.04 0 0.741938 0.04 0 0.744224 0.04 0 0.746508 0.04 0 0.748792 0.04 0 0.751073 0.04 0 0.753352 0.04 0 0.755627 0.04 0 0.757902 0.04 0 0.76018 0.04 0 0.762465 0.04 0 0.764747 0.04 0 0.767031 0.04 0 0.769335 0.04 0 0.771654 0.04 0 0.774052 0.04 0 0.776567 0.04 0 0.779198 0.04 0 0.78203 0.04 0 0.785093 0.04 0 0.78846 0.04 0 0.792169 0.04 0 0.796238 0.04 0 0.800635 0.04 0 0.805293 0.04 0 0.810124 0.04 0 0.815049 0.04 0 0.820019 0.04 0 0.825007 0.04 0 0.830003 0.04 0 0.835001 0.04 0 0.84 0.04 0 0.845 0.04 0 0.85 0.04 0 0.855 0.04 0 0.86 0.04 0 0.865 0.04 0 0.87 0.04 0 0.875 0.04 0 0.88 0.04 0 0.885 0.04 0 0.89 0.04 0 0.895 0.04 0 0.9 0.04 0 0.905 0.04 0 0.91 0.04 0 0.915 0.04 0 0.92 0.04 0 0.925 0.04 0 0.93 0.04 0 0.935 0.04 0 0.94 0.04 0 0.945 0.04 0 0.95 0.04 0 0.955 0.04 0 0.96 0.04 0 0.965 0.04 0 0.97 0.04 0 0.975 0.04 0 0.98 0.04 0 0.985 0.04 0 0.99 0.04 0 0.995 0.04 0 1 0.04 0 0 0.06 0 0.005 0.06 0 0.01 0.06 0 0.015 0.06 0 0.02 0.06 0 0.025 0.06 0 0.03 0.06 0 0.035 0.06 0 0.04 0.06 0 0.045 0.06 0 0.05 0.06 0 0.055 0.06 0 0.06 0.06 0 0.065 0.06 0 0.07 0.06 0 0.075 0.06 0 0.08 0.06 0 0.085 0.06 0 0.09 0.06 0 0.095 0.06 0 0.1 0.06 0 0.105 0.06 0 0.11 0.06 0 0.115 0.06 0 0.12 0.06 0 0.125 0.06 0 0.13 0.06 0 0.135 0.06 0 0.14 0.06 0 0.145 0.06 0 0.15 0.06 0 0.155 0.06 0 0.16 0.06 0 0.165 0.06 0 0.17 0.06 0 0.175 0.06 0 0.18 0.06 0 0.185 0.06 0 0.19 0.06 0 0.195 0.06 0 0.2 0.06 0 0.205 0.06 0 0.21 0.06 0 0.215 0.06 0 0.22 0.06 0 0.225 0.06 0 0.23 0.06 0 0.235 0.06 0 0.24 0.06 0 0.245 0.06 0 0.25 0.06 0 0.255 0.06 0 0.26 0.06 0 0.265 0.06 0 0.27 0.06 0 0.275001 0.06 0 0.280003 0.06 0 0.285009 0.06 0 0.290022 0.06 0 0.295053 0.06 0 0.300113 0.06 0 0.305221 0.06 0 0.310394 0.06 0 0.315652 0.06 0 0.321008 0.06 0 0.326474 0.06 0 0.332062 0.06 0 0.337779 0.06 0 0.343635 0.06 0 0.349638 0.06 0 0.355799 0.06 0 0.362128 0.06 0 0.368634 0.06 0 0.375332 0.06 0 0.382232 0.06 0 0.389351 0.06 0 0.396704 0.06 0 0.404307 0.06 0 0.412183 0.06 0 0.420351 0.06 0 0.428836 0.06 0 0.437667 0.06 0 0.446874 0.06 0 0.456491 0.06 0 0.466556 0.06 0 0.477108 0.06 0 0.488183 0.06 0 0.499797 0.06 0 0.5119 0.06 0 0.52424 0.06 0 0.536495 0.06 0 0.548629 0.06 0 0.560641 0.06 0 0.57256 0.06 0 0.584421 0.06 0 0.596253 0.06 0 0.608072 0.06 0 0.619886 0.06 0 0.631698 0.06 0 0.643508 0.06 0 0.655316 0.06 0 0.657596 0.06 0 0.659876 0.06 0 0.662157 0.06 0 0.664439 0.06 0 0.66672 0.06 0 0.669 0.06 0 0.671278 0.06 0 0.673556 0.06 0 0.675836 0.06 0 0.678113 0.06 0 0.680391 0.06 0 0.682671 0.06 0 0.684952 0.06 0 0.687231 0.06 0 0.689508 0.06 0 0.691786 0.06 0 0.694066 0.06 0 0.696345 0.06 0 0.698622 0.06 0 0.700897 0.06 0 0.703174 0.06 0 0.70
[...]
			<PointData Scalars="VitesseX">
				<DataArray Name="VitesseX" type="Float32" format="ascii">
 0 -1.29906e-16 2.60555e-15 4.30673e-15 7.99482e-15 7.67683e-15 6.63405e-15 1.24514e-14 5.30243e-15 -2.78147e-15 7.50654e-15 8.02706e-15 9.77913e-15 1.19881e-14 1.76249e-15 1.38457e-14 4.97752e-15 1.55933e-14 1.04357e-14 7.55051e-15 -1.10949e-14 1.22239e-14 1.34249e-14 -1.99907e-14 2.0643e-14 1.96274e-14 2.25129e-15 1.06684e-14 -8.62206e-15 2.09161e-14 -1.17292e-14 6.48381e-15 2.65043e-14 1.06764e-14 2.37748e-14 -1.55522e-14 2.89607e-14 2.47704e-14 -2.89315e-14 6.85736e-14 7.81093e-14 9.26427e-14 4.32633e-13 2.59088e-12 1.68579e-11 1.02455e-10 5.92959e-10 3.24651e-09 1.67915e-08 8.18276e-08 3.74673e-07 1.60686e-06 6.43137e-06 2.39222e-05 8.22865e-05 0.000260234 0.000751603 0.00196786 0.00463706 0.00978137 0.0184473 0.0312572 0.0481181 0.0683523 0.0911031 0.115665 0.141584 0.168613 0.196632 0.22559 0.255477 0.286304 0.318095 0.350889 0.384733 0.419679 0.455792 0.493138 0.531794 0.571838 0.613352 0.656411 0.701074 0.747349 0.795131 0.844032 0.892928 0.938637 0.971997 0.973399 0.962973 0.952596 0.944307 0.938925 0.936056 0.934737 0.934181 0.933937 0.933749 0.933522 0.933317 0.933419 0.933759 0.934263 0.934259 0.934198 0.934123 0.93399 0.933896 0.933798 0.93371 0.933629 0.933547 0.933463 0.933364 0.933246 0.933106 0.932941 0.932759 0.932568 0.932383 0.932218 0.932091 0.932018 0.931995 0.932263 0.933496 0.934598 0.933832 0.933483 0.933074 0.93248 0.932036 0.93166 0.931487 0.931523 0.933044 0.936104 0.935089 0.934578 0.933344 0.932216 0.930818 0.929846 0.929307 0.93062 0.932504 0.933984 0.936306 0.93017 0.934167 0.896885 0.842233 0.866577 0.761054 0.70131 0.601755 0.496354 0.367832 0.250586 0.148815 0.0772336 0.0351752 0.0146017 0.00575981 0.0022193 0.00084646 0.000321304 0.000121604 4.5908e-05 1.72847e-05 6.48772e-06 2.42638e-06 9.03686e-07 3.34972e-07 1.235e-07 4.5261e-08 1.64785e-08 5.95641e-09 2.13632e-09 7.59985e-10 2.67963e-10 9.36137e-11 3.23723e-11 1.11284e-11 3.81625e-12 1.22286e-12 5.2114e-13 1.49071e-13 3.22338e-14 1.68434e-13 -2.47717e-14 1.21114e-14 1.54739e-13 7.0226e-14 -1.86697e-14 5.33743e-14 7.94436e-14 2.03628e-14 9.11862e-14 0 0 2.06096e-15 6.04285e-15 4.49126e-15 9.19201e-15 5.46072e-15 7.31334e-15 6.1677e-15 4.83435e-15 6.05645e-15 -4.1859e-16 4.68091e-15 6.37844e-15 1.34675e-14 1.14917e-14 1.0959e-14 7.54301e-15 3.15099e-15 1.39222e-14 1.36226e-16 9.71096e-15 3.51647e-15 -1.86698e-15 1.31873e-14 7.03455e-15 -2.95603e-15 7.69102e-15 2.18301e-14 1.80339e-14 -1.41719e-14 1.65123e-14 -3.70158e-15 1.56554e-14 2.42763e-14 -2.08156e-15 2.12781e-14 3.22808e-14 -2.45304e-14 2.26285e-14 3.95747e-14 9.99048e-14 8.67956e-14 4.267e-13 2.61465e-12 1.68208e-11 1.02418e-10 5.92931e-10 3.24658e-09 1.67915e-08 8.18276e-08 3.74673e-07 1.60686e-06 6.43137e-06 2.39222e-05 8.22865e-05 0.000260234 0.000751603 0.00196786 0.00463706 0.00978137 0.0184473 0.0312572 0.0481181 0.0683523 0.0911031 0.115665 0.141584 0.168613 0.196632 0.22559 0.255477 0.286304 0.318095 0.350889 0.384733 0.419679 0.455792 0.493138 0.531794 0.571838 0.613352 0.656411 0.701074 0.747349 0.795131 0.844032 0.892928 0.938637 0.971997 0.973399 0.962973 0.952596 0.944307 0.938925 0.936056 0.934737 0.934181 0.933937 0.933749 0.933522 0.933317 0.933419 0.933759 0.934263 0.934259 0.934198 0.934123 0.93399 0.933896 0.933798 0.93371 0.933629 0.933547 0.933463 0.933364 0.933246 0.933106 0.932941 0.932759 0.932568 0.932383 0.932218 0.932091 0.932018 0.931995 0.932263 0.933496 0.934598 0.933832 0.933483 0.933074 0.93248 0.932036 0.93166 0.931487 0.931523 0.933044 0.936104 0.935089 0.934578 0.933344 0.932216 0.930818 0.929846 0.929307 0.93062 0.932504 0.933984 0.936306 0.93017 0.934167 0.896885 0.842233 0.866577 0.761054 0.70131 0.601755 0.496354 0.367832 0.250586 0.148815 0.0772336 0.0351752 0.0146017 0.00575981 0.0022193 0.00084646 0.000321304 0.000121604 4.5908e-05 1.72847e-05 6.48772e-06 2.42638e-06 9.03686e-07 3.34972e-07 1.235e-07 4.52609e-08 1.64785e-08 5.95646e-09 2.13635e-09 7.60016e-10 2.6793e-10 9.36974e-11 3.24313e-11 1.12152e-11 3.78384e-12 1.36203e-12 3.97564e-13 1.42237e-13 1.19437e-13 7.49182e-14 2.84673e-14 9.51232e-14 -1.07739e-13 4.61982e-14 4.61014e-14 -2.21754e-14 3.34922e-14 -2.92769e-14 8.84699e-14 0 0 1.61407e-15 2.95092e-15 4.08896e-15 7.44654e-15 9.72668e-15 4.71093e-15 6.94989e-15 5.97808e-15 2.91335e-15 1.22132e-15 5.55048e-15 -7.57544e-15 9.22175e-15 1.37033e-14 3.93856e-15 8.6677e-15 5.50006e-15 1.35525e-14 6.36984e-15 6.52426e-15 5.56107e-15 -1.33038e-15 2.78065e-16 2.63856e-15 2.6648e-15 5.32232e-15 2.1299e-14 1.22819e-14 -4.10324e-15 4.50082e-14 7.13968e-15 6.03544e-16 4.38142e-15 -2.61794e-15 3.00298e-14 2.62413e-14 -1.24869e-14 3.77706e-14 5.32193e-14 6.2704e-14 1.18943e-13 4.27216e-13 2.65143e-12 1.67432e-11 1.02448e-10 5.92815e-10 3.24667e-09 1.67914e-08 8.18275e-08 3.74673e-07 1.60686e-06 6.43137e-06 2.39222e-05 8.22865e-05 0.000260234 0.000751603 0.00196786 0.00463706 0.00978137 0.0184473 0.0312572 0.0481181 0.0683523 0.0911031 0.115665 0.141584 0.168613 0.196632 0.22559 0.255477 0.286304 0.318095 0.350889 0.384733 0.419679 0.455792 0.493138 0.531794 0.571838 0.613352 0.656411 0.701074 0.747349 0.795131 0.844032 0.892928 0.938637 0.971997 0.973399 0.962973 0.952596 0.944307 0.938925 0.936056 0.934737 0.934181 0.933937 0.933749 0.933522 0.933317 0.933419 0.933759 0.934263 0.934259 0.934198 0.934123 0.93399 0.933896 0.933798 0.93371 0.933629 0.933547 0.933463 0.933364 0.933246 0.933106 0.932941 0.932759 0.932568 0.932383 0.932218 0.932091 0.932018 0.931995 0.932263 0.933496 0.934598 0.933832 0.933483 0.933074 0.93248 0.932036 0.93166 0.931487 0.931523 0.933044 0.936104 0.935089 0.934578 0.933344 0.932216 0.930818 0.929846 0.929307 0.93062 0.932504 0.933984 0.936306 0.93017 0.934167 0.896885 0.842233 0.866577 0.761054 0.70131 0.601755 0.496354 0.367832 0.250586 0.148815 0.0772336 0.0351752 0.0146017 0.00575981 0.0022193 0.00084646 0.000321304 0.000121604 4.5908e-05 1.72847e-05 6.48772e-06 2.42638e-06 9.03686e-07 3.34972e-07 1.235e-07 4.52609e-08 1.64786e-08 5.95641e-09 2.1366e-09 7.60023e-10 2.68019e-10 9.36878e-11 3.24071e-11 1.11368e-11 3.88911e-12 1.48137e-12 4.26578e-13 1.13513e-13 1.53791e-13 -3.51145e-14 8.58112e-17 -7.51738e-14 -9.65903e-14 -2.19593e-14 5.88158e-15 -3.66985e-14 -2.85619e-15 -5.06681e-15 2.5557e-14 0 0 -4.43607e-17 1.43051e-15 1.64204e-15 7.22585e-15 1.48608e-14 1.88414e-15 7.05755e-15 5.6377e-15 5.31644e-15 8.04179e-15 2.70734e-15 -2.16976e-15 -1.08651e-14 1.62464e-15 2.23951e-16 6.76546e-15 1.17076e-14 8.22602e-15 9.77202e-15 2.02373e-15 1.95139e-14 3.80488e-15 -9.40268e-15 6.2129e-15 -5.78636e-15 4.78216e-15 9.05586e-15 -8.86336e-15 5.47901e-14 5.47284e-15 2.80449e-14 8.31456e-15 -1.19164e-14 -1.30859e-14 2.40203e-14 6.7407e-16 4.9205e-14 6.01695e-14 7.124e-14 7.48409e-14 8.58188e-14 4.66157e-13 2.61341e-12 1.67242e-11 1.02469e-10 5.92791e-10 3.24662e-09 1.67914e-08 8.18275e-08 3.74673e-07 1.60686e-06 6.43137e-06 2.39222e-05 8.22865e-05 0.000260234 0.000751603 0.00196786 0.00463706 0.00978137 0.0184473 0.0312572 0.0481181 0.0683523 0.0911031 0.115665 0.141584 0.168613 0.196632 0.22559 0.255477 0.286304 0.318095 0.350889 0.384733 0.419679 0.455792 0.493138 0.531794 0.571838 0.613352 0.656411 0.701074 0.747349 0.795131 0.844032 0.892928 0.938637 0.971997 0.973399 0.962973 0.952596 0.944307 0.938925 0.936056 0.934737 0.934181 0.933937 0.933749 0.933522 0.933317 0.933419 0.933759 0.934263 0.934259 0.934198 0.934123 0.93399 0.933896 0.933798 0.93371 0.933629 0.933547 0.933463 0.933364 0.933246 0.933106 0.932941 0.932759 0.932568 0.932383 0.932218 0.932091 0.932018 0.931995 0.932263 0.933496 0.934598 0.933832 0.933483 0.933074 0.93248 0.932036 0.93166 0.931487 0.931523 0.933044 0.936104 0.935089 0.934578 0.933344 0.932216 0.930818 0.929846 0.929307 0.93062 0.932504 0.933984 0.936306 0.93017 0.934167 0.896885 0.842233 0.866577 0.761054 0.70131 0.601755 0.496354 0.367832 0.250586 0.148815 0.0772336 0.0351752 0.0146017 0.00575981 0.0022193 0.00084646 0.000321304 0.000121604 4.5908e-05 1.72847e-05 6.48772e-06 2.42638e-06 9.03686e-07 3.34972e-07 1.235e-07 4.52609e-08 1.64786e-08 5.95645e-09 2.13655e-09 7.60008e-10 2.68137e-10 9.37306e-11 3.23847e-11 1.11704e-11 3.8516e-12 1.48752e-12 4.41348e-13 1.1186e-13 -8.43175e-14 -6.60031e-14 -7.38844e-16 6.13186e-14 1.14347e-14 -1.09762e-13 -1.73441e-13 -3.91968e-14 1.37765e-13 8.06413e-14 1.086e-13 0 0 -1.02752e-15 -5.3156e-16 -2.73263e-15 2.1307e-15 1.38634e-14 1.09137e-14 1.79477e-15 1.44092e-14 1.3144e-14 3.91541e-15 4.55695e-15 3.31188e-15 -1.53079e-14 -5.32747e-15 6.92074e-16 2.99779e-15 -3.26213e-15 1.60545e-14 1.59927e-14 -1.54381e-14 1.0369e-14 -4.36224e-16 -9.39849e-16 1.37287e-15 -1.33627e-14 2.94215e-15 -1.24904e-15 -6.37608e-15 3.92923e-14 1.56921e-14 1.64987e-14 1.63117e-14 2.6801e-14 7.35118e-15 5.80759e-14 1.37547e-15 4.58509e-14 1.01037e-13 5.3204e-14 1.17545e-13 1.1781e-13 4.32666e-13 2.48298e-12 1.67747e-11 1.02382e-10 5.92797e-10 3.24655e-09 1.67914e-08 8.18275e-08 3.74673e-07 1.60686e-06 6.43137e-06 2.39222e-05 8.22865e-05 0.000260234 0.000751603 0.00196786 0.00463706 0.00978137 0.0184473 0.0312572 0.0481181 0.0683523 0.0911031 0.115665 0.141584 0.168613 0.196632 0.22559 0.255477 0.286304 0.318095 0.350889 0.384733 0.419679 0.455792 0.493138 0.531794 0.571838 0.613352 0.656411 0.701074 0.747349 0.795131 0.844032 0.892928 0.938637 0.971997 0.973399 0.962973 0.952596 0.944307 0.938925 0.936056 0.934737 0.934181 0.933937 0.933749 0.933522 0.933317 0.933419 0.933759 0.934263 0.934259 0.934198 0.934123 0.93399 0.933896 0.933798 0.93371 0.933629 0.933547 0.933463 0.933364 0.933246 0.933106 0.932941 0.932759 0.932568 0.932383 0.932218 0.932091 0.932018 0.931995 0.932263 0.933496 0.934598 0.933832 0.933483 0.933074 0.93248 0.932036 0.93166 0.931487 0.931523 0.933044 0.936104 0.935089 0.934578 0.933344 0.932216 0.930818 0.929846 0.929307 0.93062 0.932504 0.933984 0.936306 0.93017 0.934167 0.896885 0.842233 0.866577 0.761054 0.70131 0.601755 0.496354 0.367832 0.250586 0.148815 0.0772336 0.0351752 0.0146017 0.00575981 0.0022193 0.00084646 0.000321304 0.000121604 4.5908e-05 1.72847e-05 6.48772e-06 2.42638e-06 9.03686e-07 3.34972e-07 1.235e-07 4.5261e-08 1.64785e-08 5.95663e-09 2.13635e-09 7.60153e-10 2.67938e-10 9.39611e-11 3.24066e-11 1.14087e-11 3.8854e-12 1.2932e-12 1.56711e-13 5.44015e-14 -2.06228e-13 5.36078e-14 2.04556e-13 7.0027e-14 -1.01805e-13 -6.36724e-14 -1.81891e-13 7.47267e-14 9.18425e-14 6.99012e-14 9.77667e-14 0 0 -2.99e-15 -7.50245e-15 -5.2472e-15 -5.68642e-15 1.42139e-14 1.94884e-14 3.49025e-15 2.51329e-14 6.58742e-15 2.53359e-15 1.34654e-14 -7.16535e-15 -5.38898e-15 -7.71848e-15 7.4108e-16 -3.08448e-16 -9.64809e-15 2.53533e-14 3.2459e-14 -5.23919e-14 -1.97663e-15 6.01592e-15 -2.88835e-14 2.17097e-15 1.57163e-14 -6.16614e-15 -1.10036e-14 -1.51515e-14 1.00578e-14 6.5701e-14 5.07392e-15 1.23949e-14 4.83215e-14 6.35763e-14 7.00624e-14 1.82847e-14 4.21492e-14 8.30873e-14 5.97908e-14 8.9115e-14 2.2092e-13 3.66682e-13 2.40359e-12 1.68039e-11 1.0234e-10 5.92738e-10 3.24656e-09 1.67914e-08 8.18274e-08 3.74673e-07 1.60686e-06 6.43137e-06 2.39222e-05 8.22865e-05 0.000260234 0.000751603 0.00196786 0.00463706 0.00978137 0.0184473 0.0312572 0.0481181 0.0683523 0.0911031 0.115665 0.141584 0.168613 0.196632 0.22559 0.255477 0.286304 0.318095 0.350889 0.384733 0.419679 0.455792 0.493138 0.531794 0.571838 0.613352 0.656411 0.701074 0.747349 0.795131 0.844032 0.892928 0.938637 0.971997 0.973399 0.962973 0.952596 0.944307 0.938925 0.936056 0.934737 0.934181 0.933937 0.933749 0.933522 0.933317 0.933419 0.933759 0.934263 0.934259 0.934198 0.934123 0.93399 0.933896 0.933798 0.93371 0.933629 0.933547 0.933463 0.933364 0.933246 0.933106 0.932941 0.932759 0.932568 0.932383 0.932218 0.932091 0.932018 0.931995 0.932263 0.933496 0.934598 0.933832 0.933483 0.933074 0.93248 0.932036 0.93166 0.931487 0.931523 0.933044 0.936104 0.935089 0.934578 0.933344 0.932216 0.930818 0.929846 0.929307 0.93062 0.932504 0.933984 0.936306 0.93017 0.934167 0.896885 0.842233 0.866577 0.761054 0.70131 0.601755 0.496354 0.367832 0.250586 0.148815 0.0772336 0.0351752 0.0146017 0.00575981 0.0022193 0.00084646 0.000321304 0.000121604 4.5908e-05 1.72847e-05 6.48772e-06 2.42638e-06 9.03686e-07 3.34972e-07 1.235e-07 4.5261e-08 1.64785e-08 5.95669e-09 2.13642e-09 7.60289e-10 2.67742e-10 9.40556e-11 3.23677e-11 1.14482e-11 4.09471e-12 1.07355e-12 1.07154e-14 -2.32046e-14 -1.432e-13 1.87405e-13 3.29264e-13 -3.11317e-13 -5.04856e-14 2.55407e-14 -1.16295e-13 2.5216e-13 -8.54927e-14 4.6551e-14 -5.65452e-14 0
				</DataArray>
				<DataArray Name="VitesseY" type="Float32" format="ascii">