<?xml version="1.0"?>
<VTKFile type="PolyData">
	<PolyData>
		<Piece NumberOfPoints="1206" NumberOfPolys="1000">
			<Points>
				<DataArray type="Float32" NumberOfComponents="3" format="ascii">
 0 0 0 0.005 0 0 0.01 0 0 0.015 0 0 0.02 0 0 0.025 0 0 0.03 0 0 0.035 0 0 0.04 0 0 0.045 0 0 0.05 0 0 0.055 0 0 0.06 0 0 0.065 0 0 0.07 0 0 0.075 0 0 0.08 0 0 0.085 0 0 0.09 0 0 0.095 0 0 0.1 0 0 0.105 0 0 0.11 0 0 0.115 0 0 0.12 0 0 0.125 0 0 0.13 0 0 0.135 0 0 0.14 0 0 0.145 0 0 0.15 0 0 0.155 0 0 0.16 0 0 0.165 0 0 0.17 0 0 0.175 0 0 0.18 0 0 0.185 0 0 0.19 0 0 0.195 0 0 0.2 0 0 0.205 0 0 0.21 0 0 0.215 0 0 0.22 0 0 0.225 0 0 0.23 0 0 0.235 0 0 0.24 0 0 0.245 0 0 0.25 0 0 0.255 0 0 0.26 0 0 0.265 0 0 0.27 0 0 0.275 0 0 0.28 0 0 0.285 0 0 0.29 0 0 0.295 0 0 0.3 0 0 0.305 0 0 0.31 0 0 0.315 0 0 0.32 0 0 0.325 0 0 0.330002 0 0 0.335006 0 0 0.340017 0 0 0.345046 0 0 0.35011 0 0 0.355233 0 0 0.360444 0 0 0.365771 0 0 0.371237 0 0 0.376861 0 0 0.382661 0 0 0.388654 0 0 0.394855 0 0 0.401286 0 0 0.407966 0 0 0.414918 0 0 0.422168 0 0 0.429748 0 0 0.43769 0 0 0.446036 0 0 0.454829 0 0 0.464124 0 0 0.473977 0 0 0.484452 0 0 0.495596 0 0 0.507394 0 0 0.519602 0 0 0.531748 0 0 0.543753 0 0 0.555633 0 0 0.567436 0 0 0.579206 0 0 0.590962 0 0 0.602713 0 0 0.614475 0 0 0.617088 0 0 0.619627 0 0 0.62212 0 0 0.624581 0 0 0.62702 0 0 0.629443 0 0 0.631854 0 0 0.634256 0 0 0.636651 0 0 0.639042 0 0 0.641428 0 0 0.643811 0 0 0.64619 0 0 0.648566 0 0 0.650939 0 0 0.653308 0 0 0.655676 0 0 0.658041 0 0 0.660405 0 0 0.662768 0 0 0.66513 0 0 0.66749 0 0 0.669851 0 0 0.67221 0 0 0.67457 0 0 0.676929 0 0 0.679288 0 0 0.681647 0 0 0.684006 0 0 0.686366 0 0 0.688727 0 0 0.69109 0 0 0.693458 0 0 0.695832 0 0 0.698218 0 0 0.700619 0 0 0.703054 0 0 0.705521 0 0 0.708063 0 0 0.71067 0 0 0.713425 0 0 0.716338 0 0 0.719513 0 0 0.722983 0 0 0.726806 0 0 0.730982 0 0 0.735474 0 0 0.740204 0 0 0.74508 0 0 0.75003 0 0 0.755011 0 0 0.760004 0 0 0.765001 0 0 0.77 0 0 0.775 0 0 0.78 0 0 0.785 0 0 0.79 0 0 0.795 0 0 0.8 0 0 0.805 0 0 0.81 0 0 0.815 0 0 0.82 0 0 0.825 0 0 0.83 0 0 0.835 0 0 0.84 0 0 0.845 0 0 0.85 0 0 0.855 0 0 0.86 0 0 0.865 0 0 0.87 0 0 0.875 0 0 0.88 0 0 0.885 0 0 0.89 0 0 0.895 0 0 0.9 0 0 0.905 0 0 0.91 0 0 0.915 0 0 0.92 0 0 0.925 0 0 0.93 0 0 0.935 0 0 0.94 0 0 0.945 0 0 0.95 0 0 0.955 0 0 0.96 0 0 0.965 0 0 0.97 0 0 0.975 0 0 0.98 0 0 0.985 0 0 0.99 0 0 0.995 0 0 1 0 0 0 0.02 0 0.005 0.02 0 0.01 0.02 0 0.015 0.02 0 0.02 0.02 0 0.025 0.02 0 0.03 0.02 0 0.035 0.02 0 0.04 0.02 0 0.045 0.02 0 0.05 0.02 0 0.055 0.02 0 0.06 0.02 0 0.065 0.02 0 0.07 0.02 0 0.075 0.02 0 0.08 0.02 0 0.085 0.02 0 0.09 0.02 0 0.095 0.02 0 0.1 0.02 0 0.105 0.02 0 0.11 0.02 0 0.115 0.02 0 0.12 0.02 0 0.125 0.02 0 0.13 0.02 0 0.135 0.02 0 0.14 0.02 0 0.145 0.02 0 0.15 0.02 0 0.155 0.02 0 0.16 0.02 0 0.165 0.02 0 0.17 0.02 0 0.175 0.02 0 0.18 0.02 0 0.185 0.02 0 0.19 0.02 0 0.195 0.02 0 0.2 0.02 0 0.205 0.02 0 0.21 0.02 0 0.215 0.02 0 0.22 0.02 0 0.225 0.02 0 0.23 0.02 0 0.235 0.02 0 0.24 0.02 0 0.245 0.02 0 0.25 0.02 0 0.255 0.02 0 0.26 0.02 0 0.265 0.02 0 0.27 0.02 0 0.275 0.02 0 0.28 0.02 0 0.285 0.02 0 0.29 0.02 0 0.295 0.02 0 0.3 0.02 0 0.305 0.02 0 0.31 0.02 0 0.315 0.02 0 0.32 0.02 0 0.325 0.02 0 0.330002 0.02 0 0.335006 0.02 0 0.340017 0.02 0 0.345046 0.02 0 0.35011 0.02 0 0.355233 0.02 0 0.360444 0.02 0 0.365771 0.02 0 0.371237 0.02 0 0.376861 0.02 0 0.382661 0.02 0 0.388654 0.02 0 0.394855 0.02 0 0.401286 0.02 0 0.407966 0.02 0 0.414918 0.02 0 0.422168 0.02 0 0.429748 0.02 0 0.43769 0.02 0 0.446036 0.02 0 0.454829 0.02 0 0.464124 0.02 0 0.473977 0.02 0 0.484452 0.02 0 0.495596 0.02 0 0.507394 0.02 0 0.519602 0.02 0 0.531748 0.02 0 0.543753 0.02 0 0.555633 0.02 0 0.567436 0.02 0 0.579206 0.02 0 0.590962 0.02 0 0.602713 0.02 0 0.614475 0.02 0 0.617088 0.02 0 0.619627 0.02 0 0.62212 0.02 0 0.624581 0.02 0 0.62702 0.02 0 0.629443 0.02 0 0.631854 0.02 0 0.634256 0.02 0 0.636651 0.02 0 0.639042 0.02 0 0.641428 0.02 0 0.643811 0.02 0 0.64619 0.02 0 0.648566 0.02 0 0.650939 0.02 0 0.653308 0.02 0 0.655676 0.02 0 0.658041 0.02 0 0.660405 0.02 0 0.662768 0.02 0 0.66513 0.02 0 0.66749 0.02 0 0.669851 0.02 0 0.67221 0.02 0 0.67457 0.02 0 0.676929 0.02 0 0.679288 0.02 0 0.681647 0.02 0 0.684006 0.02 0 0.686366 0.02 0 0.688727 0.02 0 0.69109 0.02 0 0.693458 0.02 0 0.695832 0.02 0 0.698218 0.02 0 0.700619 0.02 0 0.703054 0.02 0 0.705521 0.02 0 0.708063 0.02 0 0.71067 0.02 0 0.713425 0.02 0 0.716338 0.02 0 0.719513 0.02 0 0.722983 0.02 0 0.726806 0.02 0 0.730982 0.02 0 0.735474 0.02 0 0.740204 0.02 0 0.74508 0.02 0 0.75003 0.02 0 0.755011 0.02 0 0.760004 0.02 0 0.765001 0.02 0 0.77 0.02 0 0.775 0.02 0 0.78 0.02 0 0.785 0.02 0 0.79 0.02 0 0.795 0.02 0 0.8 0.02 0 0.805 0.02 0 0.81 0.02 0 0.815 0.02 0 0.82 0.02 0 0.825 0.02 0 0.83 0.02 0 0.835 0.02 0 0.84 0.02 0 0.845 0.02 0 0.85 0.02 0 0.855 0.02 0 0.86 0.02 0 0.865 0.02 0 0.87 0.02 0 0.875 0.02 0 0.88 0.02 0 0.885 0.02 0 0.89 0.02 0 0.895 0.02 0 0.9 0.02 0 0.905 0.02 0 0.91 0.02 0 0.915 0.02 0 0.92 0.02 0 0.925 0.02 0 0.93 0.02 0 0.935 0.02 0 0.94 0.02 0 0.945 0.02 0 0.95 0.02 0 0.955 0.02 0 0.96 0.02 0 0.965 0.02 0 0.97 0.02 0 0.975 0.02 0 0.98 0.02 0 0.985 0.02 0 0.99 0.02 0 0.995 0.02 0 1 0.02 0 0 0.04 0 0.005 0.04 0 0.01 0.04 0 0.015 0.04 0 0.02 0.04 0 0.025 0.04 0 0.03 0.04 0 0.035 0.04 0 0.04 0.04 0 0.045 0.04 0 0.05 0.04 0 0.055 0.04 0 0.06 0.04 0 0.065 0.04 0 0.07 0.04 0 0.075 0.04 0 0.08 0.04 0 0.085 0.04 0 0.09 0.04 0 0.095 0.04 0 0.1 0.04 0 0.105 0.04 0 0.11 0.04 0 0.115 0.04 0 0.12 0.04 0 0.125 0.04 0 0.13 0.04 0 0.135 0.04 0 0.14 0.04 0 0.145 0.04 0 0.15 0.04 0 0.155 0.04 0 0.16 0.04 0 0.165 0.04 0 0.17 0.04 0 0.175 0.04 0 0.18 0.04 0 0.185 0.04 0 0.19 0.04 0 0.195 0.04 0 0.2 0.04 0 0.205 0.04 0 0.21 0.04 0 0.215 0.04 0 0.22 0.04 0 0.225 0.04 0 0.23 0.04 0 0.235 0.04 0 0.24 0.04 0 0.245 0.04 0 0.25 0.04 0 0.255 0.04 0 0.26 0.04 0 0.265 0.04 0 0.27 0.04 0 0.275 0.04 0 0.28 0.04 0 0.285 0.04 0 0.29 0.04 0 0.295 0.04 0 0.3 0.04 0 0.305 0.04 0 0.31 0.04 0 0.315 0.04 0 0.32 0.04 0 0.325 0.04 0 0.330002 0.04 0 0.335006 0.04 0 0.340017 0.04 0 0.345046 0.04 0 0.35011 0.04 0 0.355233 0.04 0 0.360444 0.04 0 0.365771 0.04 0 0.371237 0.04 0 0.376861 0.04 0 0.382661 0.04 0 0.388654 0.04 0 0.394855 0.04 0 0.401286 0.04 0 0.407966 0.04 0 0.414918 0.04 0 0.422168 0.04 0 0.429748 0.04 0 0.43769 0.04 0 0.446036 0.04 0 0.454829 0.04 0 0.464124 0.04 0 0.473977 0.04 0 0.484452 0.04 0 0.495596 0.04 0 0.507394 0.04 0 0.519602 0.04 0 0.531748 0.04 0 0.543753 0.04 0 0.555633 0.04 0 0.567436 0.04 0 0.579206 0.04 0 0.590962 0.04 0 0.602713 0.04 0 0.614475 0.04 0 0.617088 0.04 0 0.619627 0.04 0 0.62212 0.04 0 0.624581 0.04 0 0.62702 0.04 0 0.629443 0.04 0 0.631854 0.04 0 0.634256 0.04 0 0.636651 0.04 0 0.639042 0.04 0 0.641428 0.04 0 0.643811 0.04 0 0.64619 0.04 0 0.648566 0.04 0 0.650939 0.04 0 0.653308 0.04 0 0.655676 0.04 0 0.658041 0.04 0 0.660405 0.04 0 0.662768 0.04 0 0.66513 0.04 0 0.66749 0.04 0 0.669851 0.04 0 0.67221 0.04 0 0.67457 0.04 0 0.676929 0.04 0 0.679288 0.04 0 0.681647 0.04 0 0.684006 0.04 0 0.686366 0.04 0 0.688727 0.04 0 0.69109 0.04 0 0.693458 0.04 0 0.695832 0.04 0 0.698218 0.04 0 0.700619 0.04 0 0.703054 0.04 0 0.705521 0.04 0 0.708063 0.04 0 0.71067 0.04 0 0.713425 0.04 0 0.716338 0.04 0 0.719513 0.04 0 0.722983 0.04 0 0.726806 0.04 0 0.730982 0.04 0 0.735474 0.04 0 0.740204 0.04 0 0.74508 0.04 0 0.75003 0.04 0 0.755011 0.04 0 0.760004 0.04 0 0.765001 0.04 0 0.77 0.04 0 0.775 0.04 0 0.78 0.04 0 0.785 0.04 0 0.79 0.04 0 0.795 0.04 0 0.8 0.04 0 0.805 0.04 0 0.81 0.04 0 0.815 0.04 0 0.82 0.04 0 0.825 0.04 0 0.83 0.04 0 0.835 0.04 0 0.84 0.04 0 0.845 0.04 0 0.85 0.04 0 0.855 0.04 0 0.86 0.04 0 0.865 0.04 0 0.87 0.04 0 0.875 0.04 0 0.88 0.04 0 0.885 0.04 0 0.89 0.04 0 0.895 0.04 0 0.9 0.04 0 0.905 0.04 0 0.91 0.04 0 0.915 0.04 0 0.92 0.04 0 0.925 0.04 0 0.93 0.04 0 0.935 0.04 0 0.94 0.04 0 0.945 0.04 0 0.95 0.04 0 0.955 0.04 0 0.96 0.04 0 0.965 0.04 0 0.97 0.04 0 0.975 0.04 0 0.98 0.04 0 0.985 0.04 0 0.99 0.04 0 0.995 0.04 0 1 0.04 0 0 0.06 0 0.005 0.06 0 0.01 0.06 0 0.015 0.06 0 0.02 0.06 0 0.025 0.06 0 0.03 0.06 0 0.035 0.06 0 0.04 0.06 0 0.045 0.06 0 0.05 0.06 0 0.055 0.06 0 0.06 0.06 0 0.065 0.06 0 0.07 0.06 0 0.075 0.06 0 0.08 0.06 0 0.085 0.06 0 0.09 0.06 0 0.095 0.06 0 0.1 0.06 0 0.105 0.06 0 0.11 0.06 0 0.115 0.06 0 0.12 0.06 0 0.125 0.06 0 0.13 0.06 0 0.135 0.06 0 0.14 0.06 0 0.145 0.06 0 0.15 0.06 0 0.155 0.06 0 0.16 0.06 0 0.165 0.06 0 0.17 0.06 0 0.175 0.06 0 0.18 0.06 0 0.185 0.06 0 0.19 0.06 0 0.195 0.06 0 0.2 0.06 0 0.205 0.06 0 0.21 0.06 0 0.215 0.06 0 0.22 0.06 0 0.225 0.06 0 0.23 0.06 0 0.235 0.06 0 0.24 0.06 0 0.245 0.06 0 0.25 0.06 0 0.255 0.06 0 0.26 0.06 0 0.265 0.06 0 0.27 0.06 0 0.275 0.06 0 0.28 0.06 0 0.285 0.06 0 0.29 0.06 0 0.295 0.06 0 0.3 0.06 0 0.305 0.06 0 0.31 0.06 0 0.315 0.06 0 0.32 0.06 0 0.325 0.06 0 0.330002 0.06 0 0.335006 0.06 0 0.340017 0.06 0 0.345046 0.06 0 0.35011 0.06 0 0.355233 0.06 0 0.360444 0.06 0 0.365771 0.06 0 0.371237 0.06 0 0.376861 0.06 0 0.382661 0.06 0 0.388654 0.06 0 0.394855 0.06 0 0.401286 0.06 0 0.407966 0.06 0 0.414918 0.06 0 0.422168 0.06 0 0.429748 0.06 0 0.43769 0.06 0 0.446036 0.06 0 0.454829 0.06 0 0.464124 0.06 0 0.473977 0.06 0 0.484452 0.06 0 0.495596 0.06 0 0.507394 0.06 0 0.519602 0.06 0 0.531748 0.06 0 0.543753 0.06 0 0.555633 0.06 0 0.567436 0.06 0 0.579206 0.06 0 0.590962 0.06 0 0.602713 0.06 0 0.614475 0.06 0 0.617088 0.06 0 0.619627 0.06 0 0.62212 0.06 0 0.624581 0.06 0 0.62702 0.06 0 0.629443 0.06 0 0.631854 0.06 0 0.634256 0.06 0 0.636651 0.06 0 0.639042 0.06 0 0.641428 0.06 0 0.643811 0.06 0 0.64619 0.06 0 0.648566 0.06 0 0.650939 0.06 0 0.653308 0.06 0 0.655676 0.06 0 0.658041 0.06 0 0.660405 0.06 0 0.662768 0.06 0 0.66513 0.06 0 0.66749 0.06 0 0.669851 0.06 0 0.67221 0.06 0 0.67457 0.06 0 0.676929 0.06 0 0.679288 0.06 0 0.681647 0.06 0 0.684006 0.06 0 0.686366 0.06 0 0.688727 0.06 0 0.69109 0.06 0 0.693458 0.06 0 0.695832 0.06 0 0.698218 0.06 0 0.700619 0.06 0 0.703054 0.06 0 0.705521 0.06 0 0.708063 0.06 0 0.71067 0.06 0 0.713425 0.0
[...]
			<PointData Scalars="VitesseX">
				<DataArray Name="VitesseX" type="Float32" format="ascii">
 0 -5.60141e-16 -2.12884e-15 -5.86808e-15 -3.49596e-15 -8.59968e-15 -9.25525e-15 -1.33622e-14 -1.34052e-14 -1.69392e-14 -1.8172e-14 -2.15533e-14 -1.55454e-14 -2.10844e-14 -1.25866e-14 -1.83648e-14 -1.87501e-14 -2.34471e-14 -1.74836e-14 -1.52027e-14 -3.08473e-14 -1.22417e-14 -1.08306e-14 -1.20916e-14 -1.68557e-14 -7.5768e-15 -2.90316e-14 -9.01213e-15 -2.05388e-14 -2.61535e-14 -2.25062e-14 -2.16056e-14 -3.22108e-14 -1.7146e-14 -3.83322e-14 -3.75404e-14 -3.57604e-14 -2.67039e-14 -5.2228e-14 -3.47431e-14 -2.11507e-14 -4.94926e-14 -3.52015e-14 -2.38992e-14 -1.15254e-14 -4.66917e-14 -2.56681e-14 -3.19469e-14 -2.6475e-14 -1.68264e-14 -1.43012e-14 -4.59755e-14 -3.44029e-14 5.10036e-14 7.45234e-13 5.70543e-12 4.30425e-11 3.05495e-10 2.03305e-09 1.26522e-08 7.33732e-08 3.9509e-07 1.96712e-06 9.01241e-06 3.77781e-05 0.000143901 0.000494065 0.00151462 0.00410465 0.00974908 0.0202162 0.0367627 0.0594412 0.0872278 0.11878 0.153054 0.189445 0.227676 0.267652 0.309375 0.352901 0.398322 0.445756 0.495341 0.547229 0.601572 0.658495 0.718027 0.779929 0.84321 0.904667 0.954263 0.965575 0.95219 0.94133 0.934032 0.930448 0.928993 0.928228 0.927689 0.927348 0.927299 0.927253 0.927208 0.927165 0.927123 0.927082 0.927042 0.927002 0.926962 0.926923 0.926884 0.926844 0.926804 0.926761 0.926719 0.926671 0.926625 0.926568 0.926517 0.926445 0.926391 0.926294 0.926243 0.926105 0.926067 0.925844 0.925832 0.925409 0.925423 0.924478 0.924548 0.922072 0.922308 0.915501 0.916238 0.898528 0.900753 0.860408 0.8663 0.788348 0.777557 0.664811 0.589305 0.460358 0.338856 0.219086 0.123246 0.0592785 0.0249559 0.00964498 0.00356968 0.00129467 0.000464539 0.000165413 5.84845e-05 2.05238e-05 7.14323e-06 2.4637e-06 8.4135e-07 2.84261e-07 9.49504e-08 3.13353e-08 1.02112e-08 3.28394e-09 1.04183e-09 3.25891e-10 1.00407e-10 3.04585e-11 9.0831e-12 2.4958e-12 7.31631e-13 1.03336e-13 -8.52718e-14 -1.59017e-14 -2.02343e-14 6.98217e-14 5.05563e-14 6.13629e-14 3.54542e-14 2.25476e-14 2.65646e-14 1.56444e-13 -8.69513e-14 1.19836e-13 1.18314e-13 7.04844e-14 1.4477e-13 -5.02189e-14 -8.93533e-14 4.58948e-14 9.94869e-14 -8.75655e-14 -8.85981e-15 -6.48005e-14 5.98273e-14 1.11223e-13 -3.25737e-15 -8.19229e-14 4.61581e-14 0 0 -2.42616e-15 -3.8776e-15 -3.56494e-15 -6.28844e-15 -8.9348e-15 -9.36277e-15 -1.45046e-14 -1.62336e-14 -1.72722e-14 -1.96238e-14 -1.72983e-14 -1.75622e-14 -1.87189e-14 -1.35203e-14 -2.05892e-14 -1.39306e-14 -2.07742e-14 -1.88331e-14 -2.15024e-14 -7.76361e-15 -2.79298e-14 -2.46805e-14 -5.85033e-15 -7.71272e-16 -2.6206e-14 -2.3074e-14 -2.94383e-14 -1.58678e-14 -2.58852e-14 -2.701e-14 -1.15148e-14 -3.97164e-14 -1.1661e-14 -3.61891e-14 -3.61399e-14 -4.81341e-14 -3.65058e-14 -2.98523e-14 -3.55455e-14 -3.72661e-14 -3.96109e-14 -2.59462e-14 -3.1438e-14 -2.02295e-14 -2.26676e-14 -2.28828e-14 -3.11365e-14 -2.30878e-14 -2.36502e-14 -1.28327e-14 -4.24377e-14 -1.07829e-14 8.83797e-14 7.25209e-13 5.74423e-12 4.30321e-11 3.05505e-10 2.0331e-09 1.26522e-08 7.33732e-08 3.9509e-07 1.96712e-06 9.01241e-06 3.77781e-05 0.000143901 0.000494065 0.00151462 0.00410465 0.00974908 0.0202162 0.0367627 0.0594412 0.0872278 0.11878 0.153054 0.189445 0.227676 0.267652 0.309375 0.352901 0.398322 0.445756 0.495341 0.547229 0.601572 0.658495 0.718027 0.779929 0.84321 0.904667 0.954263 0.965575 0.95219 0.94133 0.934032 0.930448 0.928993 0.928228 0.927689 0.927348 0.927299 0.927253 0.927208 0.927165 0.927123 0.927082 0.927042 0.927002 0.926962 0.926923 0.926884 0.926844 0.926804 0.926761 0.926719 0.926671 0.926625 0.926568 0.926517 0.926445 0.926391 0.926294 0.926243 0.926105 0.926067 0.925844 0.925832 0.925409 0.925423 0.924478 0.924548 0.922072 0.922308 0.915501 0.916238 0.898528 0.900753 0.860408 0.8663 0.788348 0.777557 0.664811 0.589305 0.460358 0.338856 0.219086 0.123246 0.0592785 0.0249559 0.00964498 0.00356968 0.00129467 0.000464539 0.000165413 5.84845e-05 2.05238e-05 7.14323e-06 2.4637e-06 8.4135e-07 2.84261e-07 9.49505e-08 3.13352e-08 1.02112e-08 3.28397e-09 1.04179e-09 3.2587e-10 1.00449e-10 3.04332e-11 9.05651e-12 2.50862e-12 6.55166e-13 1.96137e-13 -9.03342e-14 -1.98677e-14 -1.41048e-14 2.15142e-14 9.14518e-15 4.05953e-14 7.22233e-14 2.63315e-14 8.21648e-14 9.85174e-14 6.4797e-14 2.63415e-14 8.8091e-14 3.2698e-14 7.19202e-14 1.34844e-13 5.40259e-14 -1.02888e-13 1.77081e-14 -5.47976e-15 -4.33667e-15 6.82982e-15 -1.18099e-14 5.53387e-14 -4.76976e-16 -3.55721e-14 8.82565e-14 0 0 -1.78571e-15 -3.50376e-15 -4.19518e-15 -6.84883e-15 -1.23787e-14 -5.73272e-15 -1.55968e-14 -1.82307e-14 -2.07869e-14 -1.85012e-14 -1.54582e-14 -2.53098e-14 -1.44313e-14 -7.3621e-15 -2.5364e-14 -5.45845e-15 -1.83912e-14 -5.40066e-15 -1.72803e-14 -1.28933e-14 -1.7006e-14 -1.96624e-14 -1.95532e-14 -5.96366e-15 -9.35386e-15 -2.95096e-14 -3.31798e-14 -1.15666e-14 -3.30295e-14 -3.27906e-14 -2.58644e-14 -3.3413e-14 -2.35761e-14 -4.19747e-14 -7.02867e-14 -2.703e-14 -4.21742e-14 -3.00489e-14 -2.98565e-14 -2.9831e-14 -4.04057e-14 -2.78979e-14 -2.13269e-14 -1.84698e-14 4.60115e-15 -1.43241e-14 -1.07202e-14 -2.55643e-14 -1.55226e-14 -1.90615e-14 -3.65972e-14 -1.27543e-14 1.534e-13 7.48915e-13 5.78616e-12 4.30507e-11 3.0551e-10 2.03318e-09 1.26523e-08 7.33731e-08 3.9509e-07 1.96712e-06 9.01241e-06 3.77781e-05 0.000143901 0.000494065 0.00151462 0.00410465 0.00974908 0.0202162 0.0367627 0.0594412 0.0872278 0.11878 0.153054 0.189445 0.227676 0.267652 0.309375 0.352901 0.398322 0.445756 0.495341 0.547229 0.601572 0.658495 0.718027 0.779929 0.84321 0.904667 0.954263 0.965575 0.95219 0.94133 0.934032 0.930448 0.928993 0.928228 0.927689 0.927348 0.927299 0.927253 0.927208 0.927165 0.927123 0.927082 0.927042 0.927002 0.926962 0.926923 0.926884 0.926844 0.926804 0.926761 0.926719 0.926671 0.926625 0.926568 0.926517 0.926445 0.926391 0.926294 0.926243 0.926105 0.926067 0.925844 0.925832 0.925409 0.925423 0.924478 0.924548 0.922072 0.922308 0.915501 0.916238 0.898528 0.900753 0.860408 0.8663 0.788348 0.777557 0.664811 0.589305 0.460358 0.338856 0.219086 0.123246 0.0592785 0.0249559 0.00964498 0.00356968 0.00129467 0.000464539 0.000165413 5.84845e-05 2.05238e-05 7.14323e-06 2.4637e-06 8.4135e-07 2.84261e-07 9.49504e-08 3.13352e-08 1.02111e-08 3.28395e-09 1.04186e-09 3.25859e-10 1.00455e-10 3.04115e-11 8.95592e-12 2.58862e-12 5.79989e-13 2.07873e-13 -1.70708e-13 3.6532e-14 2.09358e-14 2.69123e-14 8.1398e-14 -7.66677e-14 8.7248e-14 -6.94769e-14 1.1477e-13 3.17011e-14 1.08994e-13 3.27531e-15 1.49962e-14 1.74602e-13 8.78768e-14 5.41287e-14 9.2966e-14 2.11651e-14 -4.97942e-14 6.89229e-15 3.31786e-15 1.89433e-14 -6.44309e-14 7.95738e-14 4.13477e-14 8.15556e-15 2.46268e-14 0 0 -6.25677e-16 -3.66465e-15 -7.00309e-15 -5.43993e-15 -1.55011e-14 -6.21413e-15 -1.41629e-14 -1.376e-14 -1.61352e-14 -2.96086e-14 -1.74595e-14 -2.56455e-14 -6.3623e-15 -1.543e-14 -1.69226e-15 -9.61783e-15 -7.03451e-15 -4.95998e-15 -1.34874e-14 -2.45701e-14 -6.42283e-15 -1.97386e-14 -2.21877e-14 -8.01625e-15 -2.975e-15 -2.55525e-14 -5.68504e-15 -3.96209e-14 -2.21069e-14 -3.57133e-14 -3.00536e-14 -4.54578e-14 -3.81984e-14 -6.13475e-14 -5.74173e-14 -2.66478e-14 -5.20754e-14 -5.6325e-14 1.70424e-14 -4.33829e-14 -4.17261e-14 -2.41662e-14 1.80081e-14 -6.07826e-15 4.62657e-15 -6.92212e-15 -2.44184e-14 -2.38794e-14 -1.26548e-14 -2.49825e-14 2.0564e-14 -2.49319e-14 1.7536e-13 8.13119e-13 5.78973e-12 4.30894e-11 3.05533e-10 2.03322e-09 1.26523e-08 7.33731e-08 3.9509e-07 1.96712e-06 9.01241e-06 3.77781e-05 0.000143901 0.000494065 0.00151462 0.00410465 0.00974908 0.0202162 0.0367627 0.0594412 0.0872278 0.11878 0.153054 0.189445 0.227676 0.267652 0.309375 0.352901 0.398322 0.445756 0.495341 0.547229 0.601572 0.658495 0.718027 0.779929 0.84321 0.904667 0.954263 0.965575 0.95219 0.94133 0.934032 0.930448 0.928993 0.928228 0.927689 0.927348 0.927299 0.927253 0.927208 0.927165 0.927123 0.927082 0.927042 0.927002 0.926962 0.926923 0.926884 0.926844 0.926804 0.926761 0.926719 0.926671 0.926625 0.926568 0.926517 0.926445 0.926391 0.926294 0.926243 0.926105 0.926067 0.925844 0.925832 0.925409 0.925423 0.924478 0.924548 0.922072 0.922308 0.915501 0.916238 0.898528 0.900753 0.860408 0.8663 0.788348 0.777557 0.664811 0.589305 0.460358 0.338856 0.219086 0.123246 0.0592785 0.0249559 0.00964498 0.00356968 0.00129467 0.000464539 0.000165413 5.84845e-05 2.05238e-05 7.14323e-06 2.4637e-06 8.4135e-07 2.84261e-07 9.49504e-08 3.13352e-08 1.0211e-08 3.28392e-09 1.04189e-09 3.25824e-10 1.00374e-10 3.04161e-11 8.83026e-12 2.5751e-12 5.41614e-13 6.09416e-14 6.98576e-14 -1.02091e-13 9.04396e-14 1.21646e-13 1.82586e-13 -1.55945e-13 1.64092e-14 -1.25729e-13 3.37179e-15 1.90169e-13 1.10765e-13 -5.00493e-14 -5.00286e-16 7.36632e-14 1.61316e-13 4.99263e-14 -4.00148e-15 7.60531e-14 -1.06511e-13 6.91562e-15 2.10047e-14 -9.74595e-14 8.77752e-14 1.10931e-13 1.18448e-13 6.09189e-14 -1.48122e-13 0 0 -3.56186e-15 -1.94417e-15 -3.32112e-15 -6.56391e-15 -1.06951e-14 -1.76864e-14 -1.98519e-14 -7.42265e-15 -4.16312e-15 -3.09718e-14 -8.15702e-15 -1.49282e-14 -1.20731e-14 -2.17072e-14 3.54091e-15 -7.55377e-15 -3.16773e-15 -3.85511e-14 -7.26136e-15 -3.01057e-14 1.83242e-15 -2.50557e-15 -5.61972e-15 -5.5832e-15 -2.84782e-14 -3.29898e-14 -1.14077e-14 -4.79675e-14 -3.77268e-15 -4.12721e-14 -4.25586e-14 -4.93696e-14 -1.14361e-14 -3.51578e-14 -4.18794e-14 -8.21291e-14 -5.3827e-14 -7.79646e-14 1.77489e-14 1.94812e-16 -6.38754e-15 -3.9672e-14 1.91647e-14 1.55925e-14 6.86834e-15 -4.80261e-15 -5.05369e-14 -3.9933e-14 -2.88238e-14 -2.45854e-14 2.2211e-14 5.26835e-14 1.49273e-13 8.4418e-13 5.79764e-12 4.31474e-11 3.05574e-10 2.0332e-09 1.26523e-08 7.33732e-08 3.9509e-07 1.96712e-06 9.01241e-06 3.77781e-05 0.000143901 0.000494065 0.00151462 0.00410465 0.00974908 0.0202162 0.0367627 0.0594412 0.0872278 0.11878 0.153054 0.189445 0.227676 0.267652 0.309375 0.352901 0.398322 0.445756 0.495341 0.547229 0.601572 0.658495 0.718027 0.779929 0.84321 0.904667 0.954263 0.965575 0.95219 0.94133 0.934032 0.930448 0.928993 0.928228 0.927689 0.927348 0.927299 0.927253 0.927208 0.927165 0.927123 0.927082 0.927042 0.927002 0.926962 0.926923 0.926884 0.926844 0.926804 0.926761 0.926719 0.926671 0.926625 0.926568 0.926517 0.926445 0.926391 0.926294 0.926243 0.926105 0.926067 0.925844 0.925832 0.925409 0.925423 0.924478 0.924548 0.922072 0.922308 0.915501 0.916238 0.898528 0.900753 0.860408 0.8663 0.788348 0.777557 0.664811 0.589305 0.460358 0.338856 0.219086 0.123246 0.0592785 0.0249559 0.00964498 0.00356968 0.00129467 0.000464539 0.000165413 5.84845e-05 2.05238e-05 7.14323e-06 2.4637e-06 8.4135e-07 2.84261e-07 9.49504e-08 3.13351e-08 1.02111e-08 3.28393e-09 1.04181e-09 3.25692e-10 1.00342e-10 3.03757e-11 8.8182e-12 2.51048e-12 4.19824e-13 7.92757e-14 1.67945e-13 -1.25085e-13 1.04436e-13 8.16452e-14 9.8408e-14 -1.13408e-15 -9.9816e-14 4.61557e-14 -1.46718e-13 2.17819e-13 2.04432e-13 4.54783e-14 4.86664e-14 -1.29255e-13 -5.16715e-14 -1.88984e-14 1.22062e-15 2.26261e-14 -1.35193e-13 9.48148e-14 -4.84995e-14 -7.21174e-14 2.02599e-13 9.26943e-14 1.75122e-13 9.20084e-15 -8.33604e-14 0 0 -5.15161e-15 2.0598e-15 2.35366e-16 -6.86471e-15 -5.87545e-15 -2.49396e-14 -2.69246e-14 -4.72489e-15 -2.45241e-17 -1.86532e-14 7.31858e-16 -9.60608e-15 -2.39308e-14 -1.28243e-14 -1.7448e-14 2.3222e-15 -1.09475e-14 -5.78008e-14 5.6937e-15 -5.21781e-14 2.61163e-14 3.36715e-14 -6.36137e-15 -2.23743e-14 -2.4879e-14 -5.67774e-14 -2.79405e-14 -2.86295e-14 -3.77354e-15 -4.51851e-14 -7.53149e-14 -2.74275e-14 1.25482e-14 2.4758e-15 -7.47582e-14 -1.04515e-13 -4.15438e-14 -9.59004e-14 -2.19519e-14 8.08749e-14 1.95949e-14 -7.01165e-14 -1.36385e-15 3.53355e-14 1.23294e-14 -4.31165e-15 -4.33512e-14 -6.35351e-14 -3.2909e-14 -2.59648e-14 -3.10004e-14 1.16885e-13 1.28871e-13 8.54768e-13 5.80513e-12 4.31957e-11 3.05587e-10 2.03318e-09 1.26523e-08 7.33732e-08 3.9509e-07 1.96712e-06 9.01241e-06 3.77781e-05 0.000143901 0.000494065 0.00151462 0.00410465 0.00974908 0.0202162 0.0367627 0.0594412 0.0872278 0.11878 0.153054 0.189445 0.227676 0.267652 0.309375 0.352901 0.398322 0.445756 0.495341 0.547229 0.601572 0.658495 0.718027 0.779929 0.84321 0.904667 0.954263 0.965575 0.95219 0.94133 0.934032 0.930448 0.928993 0.928228 0.927689 0.927348 0.927299 0.927253 0.927208 0.927165 0.927123 0.927082 0.927042 0.927002 0.926962 0.926923 0.926884 0.926844 0.926804 0.926761 0.926719 0.926671 0.926625 0.926568 0.926517 0.926445 0.926391 0.926294 0.926243 0.926105 0.926067 0.925844 0.925832 0.925409 0.925423 0.924478 0.924548 0.922072 0.922308 0.915501 0.916238 0.898528 0.900753 0.860408 0.8663 0.788348 0.777557 0.664811 0.589305 0.460358 0.338856 0.219086 0.123246 0.0592785 0.0249559 0.00964498 0.00356968 0.00129467 0.000464539 0.000165413 5.84845e-05 2.05238e-05 7.14323e-06 2.4637e-06 8.4135e-07 2.84261e-07 9.49504e-08 3.13351e-08 1.02112e-08 3.2839e-09 1.04179e-09 3.25606e-10 1.00357e-10 3.03347e-11 8.85808e-12 2.52626e-12 3.37186e-13 1.6301e-13 -5.01283e-14 5.06963e-14 7.74872e-14 3.21691e-16 2.67017e-14 1.36537e-13 -1.66674e-13 1.74744e-13 -2.08671e-13 7.77735e-14 1.88378e-13 2.64976e-13 7.06181e-14 -5.16026e-14 -2.49139e-13 -3.49501e-13 -1.08665e-15 1.86877e-13 -9.29621e-14 1.13337e-13 -1.32461e-13 1.02642e-14 1.84391e-13 1.23549e-13 1.93367e-13 -9.86285e-14 4.81337e-14 0
				</DataArray>
				<DataArray Name="VitesseY" type="Float32" format="ascii">