<?xml version="1.0"?>
<VTKFile type="PolyData">
	<PolyData>
		<Piece NumberOfPoints="1206" NumberOfPolys="1000">
			<Points>
				<DataArray type="Float32" NumberOfComponents="3" format="ascii">
 0 0 0 0.005 0 0 0.01 0 0 0.015 0 0 0.02 0 0 0.025 0 0 0.03 0 0 0.035 0 0 0.04 0 0 0.045 0 0 0.05 0 0 0.055 0 0 0.06 0 0 0.065 0 0 0.07 0 0 0.075 0 0 0.08 0 0 0.085 0 0 0.09 0 0 0.095 0 0 0.1 0 0 0.105 0 0 0.11 0 0 0.115 0 0 0.12 0 0 0.125 0 0 0.13 0 0 0.135 0 0 0.14 0 0 0.145 0 0 0.15 0 0 0.155 0 0 0.16 0 0 0.165 0 0 0.17 0 0 0.175 0 0 0.18 0 0 0.185 0 0 0.19 0 0 0.195 0 0 0.2 0 0 0.205 0 0 0.21 0 0 0.215 0 0 0.22 0 0 0.225 0 0 0.23 0 0 0.235 0 0 0.24 0 0 0.245 0 0 0.25 0 0 0.255 0 0 0.26 0 0 0.265 0 0 0.27 0 0 0.275 0 0 0.28 0 0 0.285 0 0 0.290002 0 0 0.295005 0 0 0.300014 0 0 0.305035 0 0 0.310081 0 0 0.315167 0 0 0.320315 0 0 0.325544 0 0 0.330873 0 0 0.336316 0 0 0.341884 0 0 0.347589 0 0 0.353441 0 0 0.359451 0 0 0.365628 0 0 0.371985 0 0 0.378534 0 0 0.38529 0 0 0.392267 0 0 0.399483 0 0 0.406956 0 0 0.414708 0 0 0.422761 0 0 0.431143 0 0 0.439884 0 0 0.449018 0 0 0.458583 0 0 0.468619 0 0 0.479172 0 0 0.490281 0 0 0.501961 0 0 0.514137 0 0 0.526492 0 0 0.538735 0 0 0.550844 0 0 0.562831 0 0 0.57473 0 0 0.58658 0 0 0.598407 0 0 0.610224 0 0 0.622038 0 0 0.63385 0 0 0.645661 0 0 0.647941 0 0 0.650221 0 0 0.652501 0 0 0.654781 0 0 0.657061 0 0 0.659339 0 0 0.661616 0 0 0.663894 0 0 0.666174 0 0 0.668452 0 0 0.67073 0 0 0.673012 0 0 0.675293 0 0 0.677573 0 0 0.679852 0 0 0.682131 0 0 0.684412 0 0 0.686692 0 0 0.688972 0 0 0.691249 0 0 0.693527 0 0 0.695808 0 0 0.698088 0 0 0.700368 0 0 0.702647 0 0 0.704924 0 0 0.707202 0 0 0.709481 0 0 0.711759 0 0 0.714035 0 0 0.716313 0 0 0.718597 0 0 0.720882 0 0 0.723166 0 0 0.725449 0 0 0.727732 0 0 0.730012 0 0 0.732292 0 0 0.734569 0 0 0.736846 0 0 0.739124 0 0 0.741411 0 0 0.7437 0 0 0.745985 0 0 0.748264 0 0 0.750579 0 0 0.752866 0 0 0.75522 0 0 0.757673 0 0 0.760247 0 0 0.76298 0 0 0.765933 0 0 0.769153 0 0 0.772707 0 0 0.776616 0 0 0.780871 0 0 0.785421 0 0 0.790185 0 0 0.795075 0 0 0.800029 0 0 0.805011 0 0 0.810004 0 0 0.815002 0 0 0.820001 0 0 0.825 0 0 0.83 0 0 0.835 0 0 0.84 0 0 0.845 0 0 0.85 0 0 0.855 0 0 0.86 0 0 0.865 0 0 0.87 0 0 0.875 0 0 0.88 0 0 0.885 0 0 0.89 0 0 0.895 0 0 0.9 0 0 0.905 0 0 0.91 0 0 0.915 0 0 0.92 0 0 0.925 0 0 0.93 0 0 0.935 0 0 0.94 0 0 0.945 0 0 0.95 0 0 0.955 0 0 0.96 0 0 0.965 0 0 0.97 0 0 0.975 0 0 0.98 0 0 0.985 0 0 0.99 0 0 0.995 0 0 1 0 0 0 0.02 0 0.005 0.02 0 0.01 0.02 0 0.015 0.02 0 0.02 0.02 0 0.025 0.02 0 0.03 0.02 0 0.035 0.02 0 0.04 0.02 0 0.045 0.02 0 0.05 0.02 0 0.055 0.02 0 0.06 0.02 0 0.065 0.02 0 0.07 0.02 0 0.075 0.02 0 0.08 0.02 0 0.085 0.02 0 0.09 0.02 0 0.095 0.02 0 0.1 0.02 0 0.105 0.02 0 0.11 0.02 0 0.115 0.02 0 0.12 0.02 0 0.125 0.02 0 0.13 0.02 0 0.135 0.02 0 0.14 0.02 0 0.145 0.02 0 0.15 0.02 0 0.155 0.02 0 0.16 0.02 0 0.165 0.02 0 0.17 0.02 0 0.175 0.02 0 0.18 0.02 0 0.185 0.02 0 0.19 0.02 0 0.195 0.02 0 0.2 0.02 0 0.205 0.02 0 0.21 0.02 0 0.215 0.02 0 0.22 0.02 0 0.225 0.02 0 0.23 0.02 0 0.235 0.02 0 0.24 0.02 0 0.245 0.02 0 0.25 0.02 0 0.255 0.02 0 0.26 0.02 0 0.265 0.02 0 0.27 0.02 0 0.275 0.02 0 0.28 0.02 0 0.285 0.02 0 0.290002 0.02 0 0.295005 0.02 0 0.300014 0.02 0 0.305035 0.02 0 0.310081 0.02 0 0.315167 0.02 0 0.320315 0.02 0 0.325544 0.02 0 0.330873 0.02 0 0.336316 0.02 0 0.341884 0.02 0 0.347589 0.02 0 0.353441 0.02 0 0.359451 0.02 0 0.365628 0.02 0 0.371985 0.02 0 0.378534 0.02 0 0.38529 0.02 0 0.392267 0.02 0 0.399483 0.02 0 0.406956 0.02 0 0.414708 0.02 0 0.422761 0.02 0 0.431143 0.02 0 0.439884 0.02 0 0.449018 0.02 0 0.458583 0.02 0 0.468619 0.02 0 0.479172 0.02 0 0.490281 0.02 0 0.501961 0.02 0 0.514137 0.02 0 0.526492 0.02 0 0.538735 0.02 0 0.550844 0.02 0 0.562831 0.02 0 0.57473 0.02 0 0.58658 0.02 0 0.598407 0.02 0 0.610224 0.02 0 0.622038 0.02 0 0.63385 0.02 0 0.645661 0.02 0 0.647941 0.02 0 0.650221 0.02 0 0.652501 0.02 0 0.654781 0.02 0 0.657061 0.02 0 0.659339 0.02 0 0.661616 0.02 0 0.663894 0.02 0 0.666174 0.02 0 0.668452 0.02 0 0.67073 0.02 0 0.673012 0.02 0 0.675293 0.02 0 0.677573 0.02 0 0.679852 0.02 0 0.682131 0.02 0 0.684412 0.02 0 0.686692 0.02 0 0.688972 0.02 0 0.691249 0.02 0 0.693527 0.02 0 0.695808 0.02 0 0.698088 0.02 0 0.700368 0.02 0 0.702647 0.02 0 0.704924 0.02 0 0.707202 0.02 0 0.709481 0.02 0 0.711759 0.02 0 0.714035 0.02 0 0.716313 0.02 0 0.718597 0.02 0 0.720882 0.02 0 0.723166 0.02 0 0.725449 0.02 0 0.727732 0.02 0 0.730012 0.02 0 0.732292 0.02 0 0.734569 0.02 0 0.736846 0.02 0 0.739124 0.02 0 0.741411 0.02 0 0.7437 0.02 0 0.745985 0.02 0 0.748264 0.02 0 0.750579 0.02 0 0.752866 0.02 0 0.75522 0.02 0 0.757673 0.02 0 0.760247 0.02 0 0.76298 0.02 0 0.765933 0.02 0 0.769153 0.02 0 0.772707 0.02 0 0.776616 0.02 0 0.780871 0.02 0 0.785421 0.02 0 0.790185 0.02 0 0.795075 0.02 0 0.800029 0.02 0 0.805011 0.02 0 0.810004 0.02 0 0.815002 0.02 0 0.820001 0.02 0 0.825 0.02 0 0.83 0.02 0 0.835 0.02 0 0.84 0.02 0 0.845 0.02 0 0.85 0.02 0 0.855 0.02 0 0.86 0.02 0 0.865 0.02 0 0.87 0.02 0 0.875 0.02 0 0.88 0.02 0 0.885 0.02 0 0.89 0.02 0 0.895 0.02 0 0.9 0.02 0 0.905 0.02 0 0.91 0.02 0 0.915 0.02 0 0.92 0.02 0 0.925 0.02 0 0.93 0.02 0 0.935 0.02 0 0.94 0.02 0 0.945 0.02 0 0.95 0.02 0 0.955 0.02 0 0.96 0.02 0 0.965 0.02 0 0.97 0.02 0 0.975 0.02 0 0.98 0.02 0 0.985 0.02 0 0.99 0.02 0 0.995 0.02 0 1 0.02 0 0 0.04 0 0.005 0.04 0 0.01 0.04 0 0.015 0.04 0 0.02 0.04 0 0.025 0.04 0 0.03 0.04 0 0.035 0.04 0 0.04 0.04 0 0.045 0.04 0 0.05 0.04 0 0.055 0.04 0 0.06 0.04 0 0.065 0.04 0 0.07 0.04 0 0.075 0.04 0 0.08 0.04 0 0.085 0.04 0 0.09 0.04 0 0.095 0.04 0 0.1 0.04 0 0.105 0.04 0 0.11 0.04 0 0.115 0.04 0 0.12 0.04 0 0.125 0.04 0 0.13 0.04 0 0.135 0.04 0 0.14 0.04 0 0.145 0.04 0 0.15 0.04 0 0.155 0.04 0 0.16 0.04 0 0.165 0.04 0 0.17 0.04 0 0.175 0.04 0 0.18 0.04 0 0.185 0.04 0 0.19 0.04 0 0.195 0.04 0 0.2 0.04 0 0.205 0.04 0 0.21 0.04 0 0.215 0.04 0 0.22 0.04 0 0.225 0.04 0 0.23 0.04 0 0.235 0.04 0 0.24 0.04 0 0.245 0.04 0 0.25 0.04 0 0.255 0.04 0 0.26 0.04 0 0.265 0.04 0 0.27 0.04 0 0.275 0.04 0 0.28 0.04 0 0.285 0.04 0 0.290002 0.04 0 0.295005 0.04 0 0.300014 0.04 0 0.305035 0.04 0 0.310081 0.04 0 0.315167 0.04 0 0.320315 0.04 0 0.325544 0.04 0 0.330873 0.04 0 0.336316 0.04 0 0.341884 0.04 0 0.347589 0.04 0 0.353441 0.04 0 0.359451 0.04 0 0.365628 0.04 0 0.371985 0.04 0 0.378534 0.04 0 0.38529 0.04 0 0.392267 0.04 0 0.399483 0.04 0 0.406956 0.04 0 0.414708 0.04 0 0.422761 0.04 0 0.431143 0.04 0 0.439884 0.04 0 0.449018 0.04 0 0.458583 0.04 0 0.468619 0.04 0 0.479172 0.04 0 0.490281 0.04 0 0.501961 0.04 0 0.514137 0.04 0 0.526492 0.04 0 0.538735 0.04 0 0.550844 0.04 0 0.562831 0.04 0 0.57473 0.04 0 0.58658 0.04 0 0.598407 0.04 0 0.610224 0.04 0 0.622038 0.04 0 0.63385 0.04 0 0.645661 0.04 0 0.647941 0.04 0 0.650221 0.04 0 0.652501 0.04 0 0.654781 0.04 0 0.657061 0.04 0 0.659339 0.04 0 0.661616 0.04 0 0.663894 0.04 0 0.666174 0.04 0 0.668452 0.04 0 0.67073 0.04 0 0.673012 0.04 0 0.675293 0.04 0 0.677573 0.04 0 0.679852 0.04 0 0.682131 0.04 0 0.684412 0.04 0 0.686692 0.04 0 0.688972 0.04 0 0.691249 0.04 0 0.693527 0.04 0 0.695808 0.04 0 0.698088 0.04 0 0.700368 0.04 0 0.702647 0.04 0 0.704924 0.04 0 0.707202 0.04 0 0.709481 0.04 0 0.711759 0.04 0 0.714035 0.04 0 0.716313 0.04 0 0.718597 0.04 0 0.720882 0.04 0 0.723166 0.04 0 0.725449 0.04 0 0.727732 0.04 0 0.730012 0.04 0 0.732292 0.04 0 0.734569 0.04 0 0.736846 0.04 0 0.739124 0.04 0 0.741411 0.04 0 0.7437 0.04 0 0.745985 0.04 0 0.748264 0.04 0 0.750579 0.04 0 0.752866 0.04 0 0.75522 0.04 0 0.757673 0.04 0 0.760247 0.04 0 0.76298 0.04 0 0.765933 0.04 0 0.769153 0.04 0 0.772707 0.04 0 0.776616 0.04 0 0.780871 0.04 0 0.785421 0.04 0 0.790185 0.04 0 0.795075 0.04 0 0.800029 0.04 0 0.805011 0.04 0 0.810004 0.04 0 0.815002 0.04 0 0.820001 0.04 0 0.825 0.04 0 0.83 0.04 0 0.835 0.04 0 0.84 0.04 0 0.845 0.04 0 0.85 0.04 0 0.855 0.04 0 0.86 0.04 0 0.865 0.04 0 0.87 0.04 0 0.875 0.04 0 0.88 0.04 0 0.885 0.04 0 0.89 0.04 0 0.895 0.04 0 0.9 0.04 0 0.905 0.04 0 0.91 0.04 0 0.915 0.04 0 0.92 0.04 0 0.925 0.04 0 0.93 0.04 0 0.935 0.04 0 0.94 0.04 0 0.945 0.04 0 0.95 0.04 0 0.955 0.04 0 0.96 0.04 0 0.965 0.04 0 0.97 0.04 0 0.975 0.04 0 0.98 0.04 0 0.985 0.04 0 0.99 0.04 0 0.995 0.04 0 1 0.04 0 0 0.06 0 0.005 0.06 0 0.01 0.06 0 0.015 0.06 0 0.02 0.06 0 0.025 0.06 0 0.03 0.06 0 0.035 0.06 0 0.04 0.06 0 0.045 0.06 0 0.05 0.06 0 0.055 0.06 0 0.06 0.06 0 0.065 0.06 0 0.07 0.06 0 0.075 0.06 0 0.08 0.06 0 0.085 0.06 0 0.09 0.06 0 0.095 0.06 0 0.1 0.06 0 0.105 0.06 0 0.11 0.06 0 0.115 0.06 0 0.12 0.06 0 0.125 0.06 0 0.13 0.06 0 0.135 0.06 0 0.14 0.06 0 0.145 0.06 0 0.15 0.06 0 0.155 0.06 0 0.16 0.06 0 0.165 0.06 0 0.17 0.06 0 0.175 0.06 0 0.18 0.06 0 0.185 0.06 0 0.19 0.06 0 0.195 0.06 0 0.2 0.06 0 0.205 0.06 0 0.21 0.06 0 0.215 0.06 0 0.22 0.06 0 0.225 0.06 0 0.23 0.06 0 0.235 0.06 0 0.24 0.06 0 0.245 0.06 0 0.25 0.06 0 0.255 0.06 0 0.26 0.06 0 0.265 0.06 0 0.27 0.06 0 0.275 0.06 0 0.28 0.06 0 0.285 0.06 0 0.290002 0.06 0 0.295005 0.06 0 0.300014 0.06 0 0.305035 0.06 0 0.310081 0.06 0 0.315167 0.06 0 0.320315 0.06 0 0.325544 0.06 0 0.330873 0.06 0 0.336316 0.06 0 0.341884 0.06 0 0.347589 0.06 0 0.353441 0.06 0 0.359451 0.06 0 0.365628 0.06 0 0.371985 0.06 0 0.378534 0.06 0 0.38529 0.06 0 0.392267 0.06 0 0.399483 0.06 0 0.406956 0.06 0 0.414708 0.06 0 0.422761 0.06 0 0.431143 0.06 0 0.439884 0.06 0 0.449018 0.06 0 0.458583 0.06 0 0.468619 0.06 0 0.479172 0.06 0 0.490281 0.06 0 0.501961 0.06 0 0.514137 0.06 0 0.526492 0.06 0 0.538735 0.06 0 0.550844 0.06 0 0.562831 0.06 0 0.57473 0.06 0 0.58658 0.06 0 0.598407 0.06 0 0.610224 0.06 0 0.622038 0.06 0 0.63385 0.06 0 0.645661 0.06 0 0.647941 0.06 0 0.650221 0.06 0 0.652501 0.06 0 0.654781 0.06 0 0.657061 0.06 0 0.659339 0.06 0 0.661616 0.06 0 0.663894 0.06 0 0.666174 0.06 0 0.668452 0.06 0 0.67073 0.06 0 0.673012 0.06 0 0.675293 0.06 0 0.677573 0.06 0 0.679852 0.06 0 0.682131 0.06 0 0.684412 0.06 0 0.686692 0.06 0 0.688972 0.06 0 0.691249 0.06 0 0.693527 0.06 0 0.695808 0.06 0 0.698088 0.06 0 0.700368 0.06 0 0.702647 0.06 
[...]
			<PointData Scalars="VitesseX">
				<DataArray Name="VitesseX" type="Float32" format="ascii">
 0 -1.45127e-15 2.26738e-16 -3.01653e-16 3.95209e-15 6.48691e-15 2.51014e-15 1.01956e-14 5.14364e-15 1.13725e-14 7.73716e-16 6.70731e-15 2.29742e-15 1.57708e-14 3.97333e-15 3.58619e-15 1.13706e-14 1.35583e-14 1.44129e-14 -7.75066e-16 1.74938e-14 -1.10042e-14 1.7068e-14 2.2716e-14 -1.79857e-14 2.16141e-14 1.15281e-14 1.17271e-14 -1.73489e-15 2.14934e-14 -1.85973e-14 2.50346e-14 2.48328e-15 1.3774e-14 5.02743e-16 2.48045e-14 -9.85776e-15 1.61954e-14 1.21599e-14 -2.05908e-15 2.18637e-14 1.59102e-14 5.3628e-14 6.3781e-14 1.48004e-13 5.14882e-13 3.78859e-12 2.50377e-11 1.5658e-10 9.28161e-10 5.19257e-09 2.73579e-08 1.35374e-07 6.27207e-07 2.71134e-06 1.08916e-05 4.04645e-05 0.000138261 0.000431627 0.0012219 0.00311185 0.00707932 0.0143301 0.0258558 0.0419511 0.0621198 0.0854453 0.111051 0.138326 0.166925 0.196678 0.227514 0.259415 0.292392 0.326478 0.361718 0.39817 0.435903 0.474993 0.515525 0.557592 0.601289 0.646705 0.693913 0.742929 0.793633 0.845562 0.897328 0.944876 0.976349 0.971866 0.961143 0.950402 0.942496 0.937785 0.935464 0.934452 0.934049 0.933876 0.933669 0.933407 0.93329 0.933184 0.933098 0.933046 0.933028 0.933098 0.933391 0.934019 0.934322 0.934255 0.93412 0.934016 0.933894 0.933738 0.933607 0.933481 0.93338 0.933292 0.93321 0.933125 0.93302 0.932882 0.932702 0.932478 0.932222 0.931954 0.931711 0.931528 0.931428 0.93146 0.932509 0.93502 0.93462 0.934023 0.93318 0.93196 0.930967 0.930175 0.929634 0.929572 0.931327 0.935323 0.937236 0.937075 0.934831 0.92636 0.912338 0.866425 0.873973 0.80234 0.72284 0.659742 0.541466 0.423948 0.301859 0.191416 0.105876 0.0509798 0.0219457 0.00881854 0.00342442 0.00130955 0.000497214 0.000187994 7.08395e-05 2.6602e-05 9.95143e-06 3.70639e-06 1.37353e-06 5.06124e-07 1.85317e-07 6.73779e-08 2.43094e-08 8.69789e-09 3.08438e-09 1.08336e-09 3.76834e-10 1.29664e-10 4.41293e-11 1.48715e-11 4.90198e-12 1.58538e-12 5.97811e-13 5.59946e-14 3.65695e-15 1.41148e-13 -7.70634e-14 -8.76972e-15 8.88953e-14 -1.0449e-13 4.50797e-14 5.40301e-14 1.75552e-13 5.00504e-14 4.47015e-14 -7.35645e-14 9.53584e-14 1.08225e-13 -8.10915e-14 0 0 4.17723e-16 -4.44718e-16 3.17866e-15 3.81222e-16 3.00623e-15 9.7159e-15 7.27711e-15 5.41833e-15 6.91829e-15 1.5556e-14 -1.06005e-14 8.9261e-15 9.92179e-15 1.0323e-14 5.74147e-15 4.19736e-15 1.24151e-14 1.87138e-15 6.41976e-15 1.09801e-14 1.6253e-14 3.55157e-15 -5.76151e-16 1.4872e-14 -6.48181e-15 9.17546e-15 8.72856e-15 2.57967e-14 -3.85906e-15 1.16226e-14 -4.35803e-15 9.8645e-15 1.97131e-14 -6.25756e-16 1.80274e-14 -3.83264e-15 1.90139e-14 -2.22811e-15 2.42397e-14 -4.90448e-15 2.85456e-14 7.0934e-14 5.53896e-14 1.11411e-13 5.86729e-13 3.76297e-12 2.49598e-11 1.56675e-10 9.28076e-10 5.19255e-09 2.73579e-08 1.35374e-07 6.27208e-07 2.71134e-06 1.08916e-05 4.04645e-05 0.000138261 0.000431627 0.0012219 0.00311185 0.00707932 0.0143301 0.0258558 0.0419511 0.0621198 0.0854453 0.111051 0.138326 0.166925 0.196678 0.227514 0.259415 0.292392 0.326478 0.361718 0.39817 0.435903 0.474993 0.515525 0.557592 0.601289 0.646705 0.693913 0.742929 0.793633 0.845562 0.897328 0.944876 0.976349 0.971866 0.961143 0.950402 0.942496 0.937785 0.935464 0.934452 0.934049 0.933876 0.933669 0.933407 0.93329 0.933184 0.933098 0.933046 0.933028 0.933098 0.933391 0.934019 0.934322 0.934255 0.93412 0.934016 0.933894 0.933738 0.933607 0.933481 0.93338 0.933292 0.93321 0.933125 0.93302 0.932882 0.932702 0.932478 0.932222 0.931954 0.931711 0.931528 0.931428 0.93146 0.932509 0.93502 0.93462 0.934023 0.93318 0.93196 0.930967 0.930175 0.929634 0.929572 0.931327 0.935323 0.937236 0.937075 0.934831 0.92636 0.912338 0.866425 0.873973 0.80234 0.72284 0.659742 0.541466 0.423948 0.301859 0.191416 0.105876 0.0509798 0.0219457 0.00881854 0.00342442 0.00130955 0.000497214 0.000187994 7.08395e-05 2.6602e-05 9.95143e-06 3.70639e-06 1.37353e-06 5.06124e-07 1.85317e-07 6.73778e-08 2.43094e-08 8.69778e-09 3.08447e-09 1.08334e-09 3.76844e-10 1.29635e-10 4.4222e-11 1.48875e-11 4.9583e-12 1.61422e-12 5.01365e-13 1.44427e-13 2.00548e-14 1.06478e-13 1.38405e-14 2.32574e-14 -3.56007e-14 6.27043e-14 -2.6251e-14 9.63137e-14 4.58624e-14 -5.41054e-15 8.96489e-14 7.96374e-14 -1.14638e-13 -8.25255e-14 5.37143e-14 0 0 -8.50866e-16 -1.51576e-15 -2.36195e-15 3.61241e-15 4.09392e-15 4.65737e-15 1.06105e-14 9.32451e-15 4.961e-15 1.22167e-14 2.70659e-15 6.45678e-15 1.09333e-14 3.09117e-15 -5.81981e-15 8.74414e-15 9.23272e-15 -2.61851e-16 8.48227e-17 5.29907e-15 1.85122e-14 8.81403e-15 -1.11281e-14 2.35043e-15 1.88878e-14 -3.74377e-15 1.94278e-14 2.97272e-14 -8.12395e-15 3.68165e-15 3.53531e-14 -4.10488e-15 1.6003e-15 1.07452e-14 -2.5121e-14 1.87629e-14 1.37367e-14 5.4928e-15 2.10584e-14 1.22518e-14 2.33372e-14 8.22374e-14 5.06732e-14 1.53959e-13 5.33281e-13 3.80792e-12 2.48771e-11 1.56669e-10 9.28113e-10 5.19247e-09 2.73579e-08 1.35374e-07 6.27208e-07 2.71134e-06 1.08916e-05 4.04645e-05 0.000138261 0.000431627 0.0012219 0.00311185 0.00707932 0.0143301 0.0258558 0.0419511 0.0621198 0.0854453 0.111051 0.138326 0.166925 0.196678 0.227514 0.259415 0.292392 0.326478 0.361718 0.39817 0.435903 0.474993 0.515525 0.557592 0.601289 0.646705 0.693913 0.742929 0.793633 0.845562 0.897328 0.944876 0.976349 0.971866 0.961143 0.950402 0.942496 0.937785 0.935464 0.934452 0.934049 0.933876 0.933669 0.933407 0.93329 0.933184 0.933098 0.933046 0.933028 0.933098 0.933391 0.934019 0.934322 0.934255 0.93412 0.934016 0.933894 0.933738 0.933607 0.933481 0.93338 0.933292 0.93321 0.933125 0.93302 0.932882 0.932702 0.932478 0.932222 0.931954 0.931711 0.931528 0.931428 0.93146 0.932509 0.93502 0.93462 0.934023 0.93318 0.93196 0.930967 0.930175 0.929634 0.929572 0.931327 0.935323 0.937236 0.937075 0.934831 0.92636 0.912338 0.866425 0.873973 0.80234 0.72284 0.659742 0.541466 0.423948 0.301859 0.191416 0.105876 0.0509798 0.0219457 0.00881854 0.00342442 0.00130955 0.000497214 0.000187994 7.08395e-05 2.6602e-05 9.95143e-06 3.70639e-06 1.37353e-06 5.06124e-07 1.85317e-07 6.73778e-08 2.43094e-08 8.69779e-09 3.08441e-09 1.08342e-09 3.76829e-10 1.29735e-10 4.42149e-11 1.49647e-11 5.02544e-12 1.63882e-12 4.87343e-13 1.25771e-13 1.69344e-13 -5.49653e-14 -1.9273e-16 1.08949e-13 1.64975e-15 -9.44552e-14 1.58549e-13 -2.15485e-15 -7.69053e-15 -2.87317e-14 -3.12246e-14 1.55948e-13 -1.91633e-13 -4.64396e-14 -1.19119e-13 0 0 -4.12124e-16 7.14432e-17 3.28295e-15 2.2673e-15 2.02198e-15 -2.15778e-15 8.83542e-15 1.40906e-14 4.49664e-15 1.18459e-14 1.73308e-14 -2.48774e-15 1.18349e-14 2.95462e-16 -1.59111e-14 2.55547e-14 6.87459e-16 4.52967e-16 -1.51139e-14 1.93542e-15 2.6148e-15 1.83467e-14 1.64074e-14 -1.78464e-14 2.67677e-14 2.01962e-15 1.98439e-14 1.03085e-14 -2.71237e-14 6.62482e-15 2.5453e-14 -8.69341e-15 1.63557e-14 2.7541e-14 -1.34779e-14 1.60368e-15 -9.32655e-16 2.92303e-14 2.08864e-14 6.34246e-14 8.16349e-14 1.04612e-14 7.70288e-14 1.6579e-13 5.10122e-13 3.79645e-12 2.49148e-11 1.56561e-10 9.2814e-10 5.1924e-09 2.73578e-08 1.35374e-07 6.27208e-07 2.71134e-06 1.08916e-05 4.04645e-05 0.000138261 0.000431627 0.0012219 0.00311185 0.00707932 0.0143301 0.0258558 0.0419511 0.0621198 0.0854453 0.111051 0.138326 0.166925 0.196678 0.227514 0.259415 0.292392 0.326478 0.361718 0.39817 0.435903 0.474993 0.515525 0.557592 0.601289 0.646705 0.693913 0.742929 0.793633 0.845562 0.897328 0.944876 0.976349 0.971866 0.961143 0.950402 0.942496 0.937785 0.935464 0.934452 0.934049 0.933876 0.933669 0.933407 0.93329 0.933184 0.933098 0.933046 0.933028 0.933098 0.933391 0.934019 0.934322 0.934255 0.93412 0.934016 0.933894 0.933738 0.933607 0.933481 0.93338 0.933292 0.93321 0.933125 0.93302 0.932882 0.932702 0.932478 0.932222 0.931954 0.931711 0.931528 0.931428 0.93146 0.932509 0.93502 0.93462 0.934023 0.93318 0.93196 0.930967 0.930175 0.929634 0.929572 0.931327 0.935323 0.937236 0.937075 0.934831 0.92636 0.912338 0.866425 0.873973 0.80234 0.72284 0.659742 0.541466 0.423948 0.301859 0.191416 0.105876 0.0509798 0.0219457 0.00881854 0.00342442 0.00130955 0.000497214 0.000187994 7.08395e-05 2.6602e-05 9.95143e-06 3.70639e-06 1.37353e-06 5.06124e-07 1.85317e-07 6.73777e-08 2.43094e-08 8.69801e-09 3.08441e-09 1.08349e-09 3.76832e-10 1.29878e-10 4.4128e-11 1.49234e-11 5.01858e-12 1.7545e-12 6.12611e-13 7.17607e-14 1.43624e-13 -4.0229e-14 -1.23812e-13 5.42134e-14 -3.60597e-14 1.01842e-13 -1.42338e-13 -1.2542e-14 8.96534e-14 2.24164e-14 -5.89208e-14 3.64587e-14 -3.37051e-14 4.83978e-15 -1.23638e-13 0 0 1.82443e-15 2.23403e-15 9.64043e-15 -3.96041e-15 -3.07637e-15 2.49729e-16 7.36517e-15 1.59211e-14 1.14528e-14 2.6756e-14 -5.3222e-15 -1.56224e-15 1.29842e-14 -4.78732e-15 -5.86282e-15 2.28799e-14 -1.87179e-14 -4.73144e-15 -7.89225e-15 1.21189e-15 2.69584e-15 2.62057e-15 8.59415e-15 -4.7205e-15 1.83893e-14 6.88591e-16 8.28858e-15 5.2464e-15 -2.35059e-14 2.67132e-15 -2.1851e-14 1.58953e-14 2.88188e-14 1.96716e-14 2.45709e-14 1.87148e-14 1.88228e-14 1.91721e-14 9.51388e-14 5.2579e-14 8.08797e-14 5.09441e-14 8.89108e-14 1.10528e-13 5.29476e-13 3.70175e-12 2.49216e-11 1.5652e-10 9.28087e-10 5.19239e-09 2.73578e-08 1.35374e-07 6.27208e-07 2.71134e-06 1.08916e-05 4.04645e-05 0.000138261 0.000431627 0.0012219 0.00311185 0.00707932 0.0143301 0.0258558 0.0419511 0.0621198 0.0854453 0.111051 0.138326 0.166925 0.196678 0.227514 0.259415 0.292392 0.326478 0.361718 0.39817 0.435903 0.474993 0.515525 0.557592 0.601289 0.646705 0.693913 0.742929 0.793633 0.845562 0.897328 0.944876 0.976349 0.971866 0.961143 0.950402 0.942496 0.937785 0.935464 0.934452 0.934049 0.933876 0.933669 0.933407 0.93329 0.933184 0.933098 0.933046 0.933028 0.933098 0.933391 0.934019 0.934322 0.934255 0.93412 0.934016 0.933894 0.933738 0.933607 0.933481 0.93338 0.933292 0.93321 0.933125 0.93302 0.932882 0.932702 0.932478 0.932222 0.931954 0.931711 0.931528 0.931428 0.93146 0.932509 0.93502 0.93462 0.934023 0.93318 0.93196 0.930967 0.930175 0.929634 0.929572 0.931327 0.935323 0.937236 0.937075 0.934831 0.92636 0.912338 0.866425 0.873973 0.80234 0.72284 0.659742 0.541466 0.423948 0.301859 0.191416 0.105876 0.0509798 0.0219457 0.00881854 0.00342442 0.00130955 0.000497214 0.000187994 7.08395e-05 2.6602e-05 9.95143e-06 3.70639e-06 1.37353e-06 5.06124e-07 1.85317e-07 6.73778e-08 2.43093e-08 8.69814e-09 3.08425e-09 1.08358e-09 3.7689e-10 1.29746e-10 4.42175e-11 1.49909e-11 4.99003e-12 1.96761e-12 5.32119e-13 2.10582e-13 -1.21086e-13 -4.49456e-14 1.23498e-14 -1.71542e-13 -5.09904e-14 1.99513e-13 -3.72769e-13 8.91843e-14 1.92022e-13 3.34904e-14 9.74443e-14 -7.87838e-14 6.17223e-14 -6.57937e-14 9.6437e-14 0 0 4.84654e-16 2.40983e-15 1.33207e-15 -2.04096e-15 -1.5344e-15 -2.7919e-15 1.39218e-14 1.6617e-14 2.13702e-14 2.39155e-14 -1.19846e-14 -7.90227e-16 2.00925e-14 -2.06558e-14 5.60153e-16 1.51144e-14 -3.16171e-14 -2.22394e-16 9.9829e-16 4.68466e-15 -6.32372e-15 -3.85939e-15 -1.40144e-14 -1.67769e-14 5.55967e-14 -1.69724e-14 1.0015e-14 -3.99792e-15 2.01992e-14 -4.23861e-14 9.84889e-15 2.37219e-14 2.47465e-15 7.5059e-15 1.46054e-14 6.95555e-14 4.5152e-14 7.48524e-15 1.40083e-13 3.44852e-14 3.98324e-15 1.572e-13 7.81124e-14 1.22577e-13 4.46694e-13 3.68909e-12 2.48859e-11 1.56486e-10 9.28129e-10 5.1924e-09 2.73578e-08 1.35374e-07 6.27208e-07 2.71134e-06 1.08916e-05 4.04645e-05 0.000138261 0.000431627 0.0012219 0.00311185 0.00707932 0.0143301 0.0258558 0.0419511 0.0621198 0.0854453 0.111051 0.138326 0.166925 0.196678 0.227514 0.259415 0.292392 0.326478 0.361718 0.39817 0.435903 0.474993 0.515525 0.557592 0.601289 0.646705 0.693913 0.742929 0.793633 0.845562 0.897328 0.944876 0.976349 0.971866 0.961143 0.950402 0.942496 0.937785 0.935464 0.934452 0.934049 0.933876 0.933669 0.933407 0.93329 0.933184 0.933098 0.933046 0.933028 0.933098 0.933391 0.934019 0.934322 0.934255 0.93412 0.934016 0.933894 0.933738 0.933607 0.933481 0.93338 0.933292 0.93321 0.933125 0.93302 0.932882 0.932702 0.932478 0.932222 0.931954 0.931711 0.931528 0.931428 0.93146 0.932509 0.93502 0.93462 0.934023 0.93318 0.93196 0.930967 0.930175 0.929634 0.929572 0.931327 0.935323 0.937236 0.937075 0.934831 0.92636 0.912338 0.866425 0.873973 0.80234 0.72284 0.659742 0.541466 0.423948 0.301859 0.191416 0.105876 0.0509798 0.0219457 0.00881854 0.00342442 0.00130955 0.000497214 0.000187994 7.08395e-05 2.6602e-05 9.95143e-06 3.70639e-06 1.37353e-06 5.06124e-07 1.85317e-07 6.73779e-08 2.43092e-08 8.69816e-09 3.08395e-09 1.0837e-09 3.7692e-10 1.29598e-10 4.42943e-11 1.51606e-11 4.97894e-12 2.06076e-12 4.08775e-13 2.96361e-13 -2.26946e-13 -1.90521e-13 1.67941e-13 -2.88788e-13 1.33329e-13 -2.23633e-13 -4.59725e-14 6.01243e-14 2.72084e-13 2.51585e-14 1.15474e-13 -1.51575e-13 1.31848e-13 3.86424e-14 1.33608e-14 0
				</DataArray>
				<DataArray Name="VitesseY" type="Float32" format="ascii">