<?xml version="1.0"?>
<VTKFile type="PolyData">
	<PolyData>
		<Piece NumberOfPoints="1206" NumberOfPolys="1000">
			<Points>
				<DataArray type="Float32" NumberOfComponents="3" format="ascii">
 0 0 0 0.005 0 0 0.01 0 0 0.015 0 0 0.02 0 0 0.025 0 0 0.03 0 0 0.035 0 0 0.04 0 0 0.045 0 0 0.05 0 0 0.055 0 0 0.06 0 0 0.065 0 0 0.07 0 0 0.075 0 0 0.08 0 0 0.085 0 0 0.09 0 0 0.095 0 0 0.1 0 0 0.105 0 0 0.11 0 0 0.115 0 0 0.12 0 0 0.125 0 0 0.13 0 0 0.135 0 0 0.14 0 0 0.145 0 0 0.15 0 0 0.155 0 0 0.16 0 0 0.165 0 0 0.17 0 0 0.175 0 0 0.18 0 0 0.185 0 0 0.19 0 0 0.195 0 0 0.2 0 0 0.205 0 0 0.21 0 0 0.215 0 0 0.22 0 0 0.225 0 0 0.23 0 0 0.235 0 0 0.24 0 0 0.245 0 0 0.25 0 0 0.255 0 0 0.26 0 0 0.265 0 0 0.27 0 0 0.275 0 0 0.28 0 0 0.285 0 0 0.29 0 0 0.295 0 0 0.3 0 0 0.305 0 0 0.31 0 0 0.315 0 0 0.32 0 0 0.325 0 0 0.33 0 0 0.335 0 0 0.34 0 0 0.345 0 0 0.35 0 0 0.355 0 0 0.36 0 0 0.365 0 0 0.37 0 0 0.375 0 0 0.38 0 0 0.385 0 0 0.39 0 0 0.395 0 0 0.4 0 0 0.405001 0 0 0.410003 0 0 0.415013 0 0 0.420048 0 0 0.425145 0 0 0.430369 0 0 0.435799 0 0 0.441514 0 0 0.447586 0 0 0.454092 0 0 0.461116 0 0 0.468764 0 0 0.47717 0 0 0.486504 0 0 0.496962 0 0 0.508656 0 0 0.52108 0 0 0.533246 0 0 0.545155 0 0 0.556958 0 0 0.559582 0 0 0.56213 0 0 0.564632 0 0 0.567103 0 0 0.569552 0 0 0.571985 0 0 0.574407 0 0 0.57682 0 0 0.579228 0 0 0.581632 0 0 0.584035 0 0 0.586438 0 0 0.588847 0 0 0.591262 0 0 0.593701 0 0 0.596165 0 0 0.598692 0 0 0.601273 0 0 0.603984 0 0 0.606828 0 0 0.609917 0 0 0.613284 0 0 0.617006 0 0 0.621093 0 0 0.625521 0 0 0.630216 0 0 0.635079 0 0 0.640027 0 0 0.645009 0 0 0.650003 0 0 0.655001 0 0 0.66 0 0 0.665 0 0 0.67 0 0 0.675 0 0 0.68 0 0 0.685 0 0 0.69 0 0 0.695 0 0 0.7 0 0 0.705 0 0 0.71 0 0 0.715 0 0 0.72 0 0 0.725 0 0 0.73 0 0 0.735 0 0 0.74 0 0 0.745 0 0 0.75 0 0 0.755 0 0 0.76 0 0 0.765 0 0 0.77 0 0 0.775 0 0 0.78 0 0 0.785 0 0 0.79 0 0 0.795 0 0 0.8 0 0 0.805 0 0 0.81 0 0 0.815 0 0 0.82 0 0 0.825 0 0 0.83 0 0 0.835 0 0 0.84 0 0 0.845 0 0 0.85 0 0 0.855 0 0 0.86 0 0 0.865 0 0 0.87 0 0 0.875 0 0 0.88 0 0 0.885 0 0 0.89 0 0 0.895 0 0 0.9 0 0 0.905 0 0 0.91 0 0 0.915 0 0 0.92 0 0 0.925 0 0 0.93 0 0 0.935 0 0 0.94 0 0 0.945 0 0 0.95 0 0 0.955 0 0 0.96 0 0 0.965 0 0 0.97 0 0 0.975 0 0 0.98 0 0 0.985 0 0 0.99 0 0 0.995 0 0 1 0 0 0 0.02 0 0.005 0.02 0 0.01 0.02 0 0.015 0.02 0 0.02 0.02 0 0.025 0.02 0 0.03 0.02 0 0.035 0.02 0 0.04 0.02 0 0.045 0.02 0 0.05 0.02 0 0.055 0.02 0 0.06 0.02 0 0.065 0.02 0 0.07 0.02 0 0.075 0.02 0 0.08 0.02 0 0.085 0.02 0 0.09 0.02 0 0.095 0.02 0 0.1 0.02 0 0.105 0.02 0 0.11 0.02 0 0.115 0.02 0 0.12 0.02 0 0.125 0.02 0 0.13 0.02 0 0.135 0.02 0 0.14 0.02 0 0.145 0.02 0 0.15 0.02 0 0.155 0.02 0 0.16 0.02 0 0.165 0.02 0 0.17 0.02 0 0.175 0.02 0 0.18 0.02 0 0.185 0.02 0 0.19 0.02 0 0.195 0.02 0 0.2 0.02 0 0.205 0.02 0 0.21 0.02 0 0.215 0.02 0 0.22 0.02 0 0.225 0.02 0 0.23 0.02 0 0.235 0.02 0 0.24 0.02 0 0.245 0.02 0 0.25 0.02 0 0.255 0.02 0 0.26 0.02 0 0.265 0.02 0 0.27 0.02 0 0.275 0.02 0 0.28 0.02 0 0.285 0.02 0 0.29 0.02 0 0.295 0.02 0 0.3 0.02 0 0.305 0.02 0 0.31 0.02 0 0.315 0.02 0 0.32 0.02 0 0.325 0.02 0 0.33 0.02 0 0.335 0.02 0 0.34 0.02 0 0.345 0.02 0 0.35 0.02 0 0.355 0.02 0 0.36 0.02 0 0.365 0.02 0 0.37 0.02 0 0.375 0.02 0 0.38 0.02 0 0.385 0.02 0 0.39 0.02 0 0.395 0.02 0 0.4 0.02 0 0.405001 0.02 0 0.410003 0.02 0 0.415013 0.02 0 0.420048 0.02 0 0.425145 0.02 0 0.430369 0.02 0 0.435799 0.02 0 0.441514 0.02 0 0.447586 0.02 0 0.454092 0.02 0 0.461116 0.02 0 0.468764 0.02 0 0.47717 0.02 0 0.486504 0.02 0 0.496962 0.02 0 0.508656 0.02 0 0.52108 0.02 0 0.533246 0.02 0 0.545155 0.02 0 0.556958 0.02 0 0.559582 0.02 0 0.56213 0.02 0 0.564632 0.02 0 0.567103 0.02 0 0.569552 0.02 0 0.571985 0.02 0 0.574407 0.02 0 0.57682 0.02 0 0.579228 0.02 0 0.581632 0.02 0 0.584035 0.02 0 0.586438 0.02 0 0.588847 0.02 0 0.591262 0.02 0 0.593701 0.02 0 0.596165 0.02 0 0.598692 0.02 0 0.601273 0.02 0 0.603984 0.02 0 0.606828 0.02 0 0.609917 0.02 0 0.613284 0.02 0 0.617006 0.02 0 0.621093 0.02 0 0.625521 0.02 0 0.630216 0.02 0 0.635079 0.02 0 0.640027 0.02 0 0.645009 0.02 0 0.650003 0.02 0 0.655001 0.02 0 0.66 0.02 0 0.665 0.02 0 0.67 0.02 0 0.675 0.02 0 0.68 0.02 0 0.685 0.02 0 0.69 0.02 0 0.695 0.02 0 0.7 0.02 0 0.705 0.02 0 0.71 0.02 0 0.715 0.02 0 0.72 0.02 0 0.725 0.02 0 0.73 0.02 0 0.735 0.02 0 0.74 0.02 0 0.745 0.02 0 0.75 0.02 0 0.755 0.02 0 0.76 0.02 0 0.765 0.02 0 0.77 0.02 0 0.775 0.02 0 0.78 0.02 0 0.785 0.02 0 0.79 0.02 0 0.795 0.02 0 0.8 0.02 0 0.805 0.02 0 0.81 0.02 0 0.815 0.02 0 0.82 0.02 0 0.825 0.02 0 0.83 0.02 0 0.835 0.02 0 0.84 0.02 0 0.845 0.02 0 0.85 0.02 0 0.855 0.02 0 0.86 0.02 0 0.865 0.02 0 0.87 0.02 0 0.875 0.02 0 0.88 0.02 0 0.885 0.02 0 0.89 0.02 0 0.895 0.02 0 0.9 0.02 0 0.905 0.02 0 0.91 0.02 0 0.915 0.02 0 0.92 0.02 0 0.925 0.02 0 0.93 0.02 0 0.935 0.02 0 0.94 0.02 0 0.945 0.02 0 0.95 0.02 0 0.955 0.02 0 0.96 0.02 0 0.965 0.02 0 0.97 0.02 0 0.975 0.02 0 0.98 0.02 0 0.985 0.02 0 0.99 0.02 0 0.995 0.02 0 1 0.02 0 0 0.04 0 0.005 0.04 0 0.01 0.04 0 0.015 0.04 0 0.02 0.04 0 0.025 0.04 0 0.03 0.04 0 0.035 0.04 0 0.04 0.04 0 0.045 0.04 0 0.05 0.04 0 0.055 0.04 0 0.06 0.04 0 0.065 0.04 0 0.07 0.04 0 0.075 0.04 0 0.08 0.04 0 0.085 0.04 0 0.09 0.04 0 0.095 0.04 0 0.1 0.04 0 0.105 0.04 0 0.11 0.04 0 0.115 0.04 0 0.12 0.04 0 0.125 0.04 0 0.13 0.04 0 0.135 0.04 0 0.14 0.04 0 0.145 0.04 0 0.15 0.04 0 0.155 0.04 0 0.16 0.04 0 0.165 0.04 0 0.17 0.04 0 0.175 0.04 0 0.18 0.04 0 0.185 0.04 0 0.19 0.04 0 0.195 0.04 0 0.2 0.04 0 0.205 0.04 0 0.21 0.04 0 0.215 0.04 0 0.22 0.04 0 0.225 0.04 0 0.23 0.04 0 0.235 0.04 0 0.24 0.04 0 0.245 0.04 0 0.25 0.04 0 0.255 0.04 0 0.26 0.04 0 0.265 0.04 0 0.27 0.04 0 0.275 0.04 0 0.28 0.04 0 0.285 0.04 0 0.29 0.04 0 0.295 0.04 0 0.3 0.04 0 0.305 0.04 0 0.31 0.04 0 0.315 0.04 0 0.32 0.04 0 0.325 0.04 0 0.33 0.04 0 0.335 0.04 0 0.34 0.04 0 0.345 0.04 0 0.35 0.04 0 0.355 0.04 0 0.36 0.04 0 0.365 0.04 0 0.37 0.04 0 0.375 0.04 0 0.38 0.04 0 0.385 0.04 0 0.39 0.04 0 0.395 0.04 0 0.4 0.04 0 0.405001 0.04 0 0.410003 0.04 0 0.415013 0.04 0 0.420048 0.04 0 0.425145 0.04 0 0.430369 0.04 0 0.435799 0.04 0 0.441514 0.04 0 0.447586 0.04 0 0.454092 0.04 0 0.461116 0.04 0 0.468764 0.04 0 0.47717 0.04 0 0.486504 0.04 0 0.496962 0.04 0 0.508656 0.04 0 0.52108 0.04 0 0.533246 0.04 0 0.545155 0.04 0 0.556958 0.04 0 0.559582 0.04 0 0.56213 0.04 0 0.564632 0.04 0 0.567103 0.04 0 0.569552 0.04 0 0.571985 0.04 0 0.574407 0.04 0 0.57682 0.04 0 0.579228 0.04 0 0.581632 0.04 0 0.584035 0.04 0 0.586438 0.04 0 0.588847 0.04 0 0.591262 0.04 0 0.593701 0.04 0 0.596165 0.04 0 0.598692 0.04 0 0.601273 0.04 0 0.603984 0.04 0 0.606828 0.04 0 0.609917 0.04 0 0.613284 0.04 0 0.617006 0.04 0 0.621093 0.04 0 0.625521 0.04 0 0.630216 0.04 0 0.635079 0.04 0 0.640027 0.04 0 0.645009 0.04 0 0.650003 0.04 0 0.655001 0.04 0 0.66 0.04 0 0.665 0.04 0 0.67 0.04 0 0.675 0.04 0 0.68 0.04 0 0.685 0.04 0 0.69 0.04 0 0.695 0.04 0 0.7 0.04 0 0.705 0.04 0 0.71 0.04 0 0.715 0.04 0 0.72 0.04 0 0.725 0.04 0 0.73 0.04 0 0.735 0.04 0 0.74 0.04 0 0.745 0.04 0 0.75 0.04 0 0.755 0.04 0 0.76 0.04 0 0.765 0.04 0 0.77 0.04 0 0.775 0.04 0 0.78 0.04 0 0.785 0.04 0 0.79 0.04 0 0.795 0.04 0 0.8 0.04 0 0.805 0.04 0 0.81 0.04 0 0.815 0.04 0 0.82 0.04 0 0.825 0.04 0 0.83 0.04 0 0.835 0.04 0 0.84 0.04 0 0.845 0.04 0 0.85 0.04 0 0.855 0.04 0 0.86 0.04 0 0.865 0.04 0 0.87 0.04 0 0.875 0.04 0 0.88 0.04 0 0.885 0.04 0 0.89 0.04 0 0.895 0.04 0 0.9 0.04 0 0.905 0.04 0 0.91 0.04 0 0.915 0.04 0 0.92 0.04 0 0.925 0.04 0 0.93 0.04 0 0.935 0.04 0 0.94 0.04 0 0.945 0.04 0 0.95 0.04 0 0.955 0.04 0 0.96 0.04 0 0.965 0.04 0 0.97 0.04 0 0.975 0.04 0 0.98 0.04 0 0.985 0.04 0 0.99 0.04 0 0.995 0.04 0 1 0.04 0 0 0.06 0 0.005 0.06 0 0.01 0.06 0 0.015 0.06 0 0.02 0.06 0 0.025 0.06 0 0.03 0.06 0 0.035 0.06 0 0.04 0.06 0 0.045 0.06 0 0.05 0.06 0 0.055 0.06 0 0.06 0.06 0 0.065 0.06 0 0.07 0.06 0 0.075 0.06 0 0.08 0.06 0 0.085 0.06 0 0.09 0.06 0 0.095 0.06 0 0.1 0.06 0 0.105 0.06 0 0.11 0.06 0 0.115 0.06 0 0.12 0.06 0 0.125 0.06 0 0.13 0.06 0 0.135 0.06 0 0.14 0.06 0 0.145 0.06 0 0.15 0.06 0 0.155 0.06 0 0.16 0.06 0 0.165 0.06 0 0.17 0.06 0 0.175 0.06 0 0.18 0.06 0 0.185 0.06 0 0.19 0.06 0 0.195 0.06 0 0.2 0.06 0 0.205 0.06 0 0.21 0.06 0 0.215 0.06 0 0.22 0.06 0 0.225 0.06 0 0.23 0.06 0 0.235 0.06 0 0.24 0.06 0 0.245 0.06 0 0.25 0.06 0 0.255 0.06 0 0.26 0.06 0 0.265 0.06 0 0.27 0.06 0 0.275 0.06 0 0.28 0.06 0 0.285 0.06 0 0.29 0.06 0 0.295 0.06 0 0.3 0.06 0 0.305 0.06 0 0.31 0.06 0 0.315 0.06 0 0.32 0.06 0 0.325 0.06 0 0.33 0.06 0 0.335 0.06 0 0.34 0.06 0 0.345 0.06 0 0.35 0.06 0 0.355 0.06 0 0.36 0.06 0 0.365 0.06 0 0.37 0.06 0 0.375 0.06 0 0.38 0.06 0 0.385 0.06 0 0.39 0.06 0 0.395 0.06 0 0.4 0.06 0 0.405001 0.06 0 0.410003 0.06 0 0.415013 0.06 0 0.420048 0.06 0 0.425145 0.06 0 0.430369 0.06 0 0.435799 0.06 0 0.441514 0.06 0 0.447586 0.06 0 0.454092 0.06 0 0.461116 0.06 0 0.468764 0.06 0 0.47717 0.06 0 0.486504 0.06 0 0.496962 0.06 0 0.508656 0.06 0 0.52108 0.06 0 0.533246 0.06 0 0.545155 0.06 0 0.556958 0.06 0 0.559582 0.06 0 0.56213 0.06 0 0.564632 0.06 0 0.567103 0.06 0 0.569552 0.06 0 0.571985 0.06 0 0.574407 0.06 0 0.57682 0.06 0 0.579228 0.06 0 0.581632 0.06 0 0.584035 0.06 0 0.586438 0.06 0 0.588847 0.06 0 0.591262 0.06 0 0.593701 0.06 0 0.596165 0.06 0 0.598692 0.06 0 0.601273 0.06 0 0.603984 0.06 0 0.606828 0.06 0 0.609917 0.06 0 0.613284 0.06 0 0.617006 0.06 0 0.621093 0.06 0 0.625521 0.06 0 0.630216 0.06 0 0.635079 0.06 0 0.640027 0.06 0 0.645009 0.06 0 0.650003 0.06 0 0.655001 0.06 0 0.66 0.06 0 0.665 0.06 0 0.67 0.06 0 0.675 0.06 0 0.68 0.06 0 0.685 0.06 0 0.69 0.06 0 0.695 0.06 0 0.7 0.06 0 0.705 0.06 0 0.71 0.06 0 0.715 0.06 0 0.72 0.06 0 0.725 0.06 0 0.73 0.06 0 0.735 0.06 0 0.74 0.06 0 0.745 0.06 0 0.75 0.06 0 0.755 0.06 0 0.76 0.06 0 0.765 0.06 0 0.77 0.06 0 0.775 0.06 0 0.78 0.06 0 0.785 0.06 0 0.79 0.06 0 0.795 0.06 0 0.8 0.06 0 0.805 0.06 0 0.81 0.06 0 0.815 0.06 0 0.82 0.06 0 0.825 0.06 0 0.83 0.06 0 0.835 0.06 0 0.84 0.06 0 0.845 0.06 0 0.85 0.06 0 0.855 0.06 0 0.86 0.06 0 0.865 0.06 0 0.87 0.06 0 0.875 0.06 0 0.88 0.06 0 0.885 0.06 0
[...]
			<PointData Scalars="VitesseX">
				<DataArray Name="VitesseX" type="Float32" format="ascii">
 0 8.42003e-17 1.1587e-15 7.95885e-16 -2.94531e-15 8.95675e-16 -3.8011e-15 -6.47503e-16 -8.09435e-15 -6.49054e-15 1.72311e-15 -5.07299e-15 -6.8483e-15 -8.39331e-15 -6.84267e-15 -3.09791e-15 -6.88632e-15 -1.1143e-14 4.7778e-15 -1.63771e-14 -1.43127e-14 -4.04425e-15 -9.70876e-15 5.47058e-16 -8.59615e-15 -1.17937e-14 -9.99058e-15 -1.44943e-14 -1.7873e-14 -2.05782e-14 1.14337e-15 -8.34578e-15 -2.31884e-14 -1.55916e-14 -1.49279e-14 -1.74395e-14 -2.51212e-15 -1.84482e-14 -2.35542e-14 -3.32801e-15 -2.00081e-15 4.96689e-15 -1.44379e-14 1.75731e-14 -9.9588e-15 1.68619e-14 -2.24704e-14 1.16463e-15 2.37052e-14 -1.3554e-14 3.02185e-14 -3.90454e-14 -1.97449e-14 -4.2532e-14 4.23265e-14 -4.26105e-14 -2.4817e-14 -2.30807e-14 -3.50538e-14 -4.7627e-14 -3.94772e-14 -3.9305e-15 -4.0133e-14 4.1498e-14 -1.43485e-14 1.36763e-14 -1.66031e-14 -3.02297e-14 -1.36881e-14 -1.61925e-14 -5.06282e-15 7.83594e-14 7.25501e-13 9.62814e-12 1.17447e-10 1.30762e-09 1.31664e-08 1.19205e-07 9.63478e-07 6.89283e-06 4.31967e-05 0.000234097 0.00107954 0.0041557 0.0130982 0.0334171 0.0695051 0.121393 0.185779 0.259497 0.341068 0.430327 0.527749 0.633917 0.748539 0.8669 0.965094 0.969957 0.943794 0.930578 0.927926 0.92843 0.928837 0.928905 0.928829 0.928733 0.92825 0.928003 0.926881 0.926685 0.924371 0.924399 0.919133 0.919609 0.905798 0.907495 0.87338 0.878223 0.808447 0.807755 0.694461 0.635331 0.500891 0.379768 0.250313 0.143184 0.0684969 0.0277063 0.00992173 0.00330665 0.00105547 0.000326506 9.82686e-05 2.88e-05 8.21727e-06 2.28125e-06 6.15813e-07 1.61546e-07 4.11626e-08 1.01836e-08 2.44558e-09 5.70019e-10 1.28849e-10 2.82179e-11 6.02103e-12 1.23472e-12 2.83799e-13 -1.90207e-14 -2.51581e-15 -1.05785e-13 7.56623e-14 -5.98935e-14 -6.48145e-15 -9.42265e-14 -9.0774e-14 -3.49245e-14 -8.92619e-14 -8.24203e-14 4.91084e-14 -9.9261e-14 9.01578e-14 -5.62782e-14 -4.93773e-14 4.41947e-15 -8.41109e-14 5.25227e-15 5.92707e-14 -1.14543e-13 1.26095e-13 -1.48614e-13 2.02609e-14 1.08516e-13 -3.81615e-14 4.48991e-14 5.91959e-14 -1.73346e-14 -4.33882e-14 -4.11254e-14 -2.51006e-14 -5.1156e-15 2.98444e-14 -8.20558e-14 9.99565e-14 7.26569e-14 -7.48407e-14 -1.39683e-14 4.06728e-14 -4.46243e-14 1.13915e-13 -7.43451e-15 8.41258e-14 1.14489e-13 -6.03125e-14 7.08135e-14 9.38325e-14 6.85466e-14 7.14785e-14 -1.04074e-13 6.08245e-15 8.30964e-14 0 0 4.52065e-16 -9.13552e-16 1.30189e-15 -2.87295e-15 8.63714e-16 -5.29563e-15 -4.98535e-15 -5.98714e-15 -6.51712e-15 -6.62008e-15 6.57199e-16 -6.92335e-15 -1.08645e-14 -7.4498e-15 -5.82057e-15 -8.10466e-15 -7.90212e-15 -7.87258e-15 -6.22771e-15 -1.00027e-14 -5.91113e-15 -5.48262e-15 -9.40985e-15 -7.9371e-15 -2.29721e-15 -2.10067e-14 -1.17229e-14 -1.15983e-14 -2.03107e-14 -1.48995e-14 -1.30477e-14 -9.12116e-16 -2.32215e-14 -7.96175e-15 -2.17781e-14 -1.71048e-14 -2.01096e-15 -6.12433e-15 -2.36561e-14 1.52995e-14 -1.72073e-14 1.03134e-15 -1.7165e-15 -1.41874e-14 1.77692e-14 2.21165e-17 1.12609e-15 1.97022e-14 3.45358e-15 -3.52885e-15 2.53206e-15 -2.73985e-14 -2.44288e-14 -1.10787e-14 -3.10872e-14 -1.45685e-14 -5.82317e-14 -8.32035e-15 -4.38475e-14 -2.65216e-14 -5.26067e-14 3.00465e-14 1.04445e-14 -3.37503e-14 2.36733e-14 -2.63413e-14 -1.44204e-14 -2.82899e-14 -3.0648e-14 8.21736e-15 8.47236e-14 7.16389e-13 9.66236e-12 1.17502e-10 1.30758e-09 1.31664e-08 1.19206e-07 9.63478e-07 6.89283e-06 4.31967e-05 0.000234097 0.00107954 0.0041557 0.0130982 0.0334171 0.0695051 0.121393 0.185779 0.259497 0.341068 0.430327 0.527749 0.633917 0.748539 0.8669 0.965094 0.969957 0.943794 0.930578 0.927926 0.92843 0.928837 0.928905 0.928829 0.928733 0.92825 0.928003 0.926881 0.926685 0.924371 0.924399 0.919133 0.919609 0.905798 0.907495 0.87338 0.878223 0.808447 0.807755 0.694461 0.635331 0.500891 0.379768 0.250313 0.143184 0.0684969 0.0277063 0.00992173 0.00330665 0.00105547 0.000326506 9.82686e-05 2.88e-05 8.21727e-06 2.28125e-06 6.15813e-07 1.61546e-07 4.11626e-08 1.01836e-08 2.44559e-09 5.69937e-10 1.28911e-10 2.82477e-11 5.92243e-12 1.2866e-12 1.7975e-13 -1.13212e-14 -5.49577e-14 -9.68241e-15 -3.23756e-14 -5.17801e-14 -2.16064e-15 -5.45819e-14 -2.3472e-14 -1.0434e-13 5.80246e-14 -9.41318e-14 -8.24542e-14 -9.11221e-14 1.03521e-13 3.46399e-14 -1.00984e-13 -1.6124e-14 -5.9495e-14 -4.5201e-14 2.62528e-14 -4.39221e-14 -7.5205e-14 7.22784e-14 -1.46309e-15 6.60064e-14 6.46857e-15 -1.79875e-14 5.42458e-14 5.50469e-14 -1.32097e-13 -6.77007e-14 7.36548e-14 -6.7179e-14 9.53922e-15 5.207e-15 9.72024e-14 3.7034e-14 -5.07716e-14 9.06664e-15 -6.51131e-14 1.17535e-13 2.71366e-14 -3.06907e-14 2.31955e-14 1.06973e-13 2.40364e-14 8.10816e-14 6.53218e-14 7.86762e-14 4.15917e-14 -2.33356e-15 -8.24456e-14 9.52575e-14 0 0 3.20682e-16 3.30889e-16 -5.27447e-16 -3.25268e-15 -2.12298e-15 -8.32277e-15 -5.66155e-15 -1.04073e-14 -6.14013e-15 -1.37254e-14 -7.75109e-16 -4.41588e-15 -1.04602e-14 -7.71128e-15 -7.33494e-15 -3.98986e-15 -9.88678e-15 -1.11731e-14 -1.91842e-14 -4.96719e-15 6.48685e-15 -3.60777e-15 -1.56714e-14 -1.03322e-14 -1.16441e-14 -2.87785e-14 -1.42975e-14 -1.86546e-14 -6.95433e-15 -3.14563e-14 -2.64779e-14 1.3004e-14 -2.78567e-14 -3.06109e-14 -8.42126e-15 -2.39659e-14 1.37879e-14 -3.53796e-15 6.28223e-15 9.55273e-15 -2.72416e-14 -1.37775e-15 2.74662e-15 -1.39102e-14 1.87371e-14 1.84068e-14 -1.09984e-14 1.96337e-14 -7.05524e-15 -1.43837e-14 1.32759e-14 -8.25287e-15 -3.57197e-14 -3.74038e-14 -4.38767e-14 -1.72676e-14 -4.51265e-14 -4.86943e-14 -4.73673e-14 1.68091e-14 -3.40826e-14 -6.53827e-15 -1.2881e-14 -1.7028e-14 1.6136e-14 -3.50737e-14 -1.0323e-14 -2.11162e-14 -2.69771e-14 -2.523e-15 1.17305e-13 7.82519e-13 9.67007e-12 1.1758e-10 1.30763e-09 1.31664e-08 1.19206e-07 9.63478e-07 6.89283e-06 4.31967e-05 0.000234097 0.00107954 0.0041557 0.0130982 0.0334171 0.0695051 0.121393 0.185779 0.259497 0.341068 0.430327 0.527749 0.633917 0.748539 0.8669 0.965094 0.969957 0.943794 0.930578 0.927926 0.92843 0.928837 0.928905 0.928829 0.928733 0.92825 0.928003 0.926881 0.926685 0.924371 0.924399 0.919133 0.919609 0.905798 0.907495 0.87338 0.878223 0.808447 0.807755 0.694461 0.635331 0.500891 0.379768 0.250313 0.143184 0.0684969 0.0277063 0.00992173 0.00330665 0.00105547 0.000326506 9.82686e-05 2.88e-05 8.21727e-06 2.28125e-06 6.15813e-07 1.61546e-07 4.11626e-08 1.01836e-08 2.44554e-09 5.69846e-10 1.28884e-10 2.83375e-11 5.84784e-12 1.16815e-12 6.81206e-14 1.23482e-13 -1.23278e-13 -2.37617e-15 -8.64188e-14 3.11754e-14 -1.91913e-14 -1.33639e-14 -5.87727e-15 -1.16386e-13 -2.92869e-14 -1.00458e-13 2.94817e-14 -3.94481e-14 8.33975e-14 -1.53192e-14 -5.10501e-14 -8.52815e-14 3.95193e-14 -3.14073e-14 -4.87242e-14 -8.48398e-14 -9.36402e-14 9.86996e-14 -1.3602e-14 1.47429e-14 -8.82085e-14 7.58174e-14 -3.35066e-14 8.44786e-14 -2.98375e-14 -1.49346e-13 1.41046e-13 -2.75971e-15 5.81368e-14 -4.68435e-14 -2.33831e-14 -6.06497e-14 1.47061e-14 1.0302e-13 -1.57746e-14 1.42141e-13 -1.36443e-13 -2.18466e-14 -4.6249e-14 1.44536e-13 6.36893e-14 1.33388e-13 1.06981e-14 9.99341e-14 5.18548e-14 -1.74064e-14 -3.33727e-14 7.82275e-14 0 0 1.24787e-15 2.71054e-15 1.05864e-15 -5.03957e-15 -7.31264e-15 -3.75079e-15 -1.63673e-14 -8.98427e-15 -1.00351e-14 -1.0556e-14 -1.25281e-14 -9.61695e-15 2.56827e-15 3.02911e-15 -9.88853e-15 -6.33794e-15 -1.15539e-14 -1.09385e-14 -1.65282e-14 -1.57738e-14 -1.08555e-14 5.04971e-15 -3.38213e-15 -1.88958e-14 -1.81427e-14 -2.37246e-14 -3.40656e-14 -3.2651e-14 -9.50702e-15 -2.08884e-14 -3.43288e-14 -6.05617e-15 -9.91448e-15 -5.75315e-14 1.46881e-14 -9.85768e-15 4.24634e-15 -2.40857e-14 2.56446e-14 3.83017e-15 1.23521e-14 -2.58105e-14 4.30242e-15 7.19316e-15 3.61216e-14 -2.21078e-14 -1.15802e-14 1.74247e-14 1.59765e-16 -1.25783e-14 -2.06829e-14 -1.56911e-14 -4.81786e-14 -3.37895e-14 -4.35066e-14 -6.95968e-14 -1.82646e-14 -5.91353e-14 -7.10238e-14 1.88031e-15 -1.29036e-14 4.78815e-16 4.83034e-15 -2.83259e-14 3.1279e-14 -3.23357e-14 -6.01254e-14 1.25104e-14 -2.66381e-14 1.31722e-14 1.1558e-13 8.91018e-13 9.70536e-12 1.17562e-10 1.30769e-09 1.31663e-08 1.19205e-07 9.63478e-07 6.89283e-06 4.31967e-05 0.000234097 0.00107954 0.0041557 0.0130982 0.0334171 0.0695051 0.121393 0.185779 0.259497 0.341068 0.430327 0.527749 0.633917 0.748539 0.8669 0.965094 0.969957 0.943794 0.930578 0.927926 0.92843 0.928837 0.928905 0.928829 0.928733 0.92825 0.928003 0.926881 0.926685 0.924371 0.924399 0.919133 0.919609 0.905798 0.907495 0.87338 0.878223 0.808447 0.807755 0.694461 0.635331 0.500891 0.379768 0.250313 0.143184 0.0684969 0.0277063 0.00992173 0.00330665 0.00105547 0.000326506 9.82686e-05 2.88e-05 8.21727e-06 2.28125e-06 6.15813e-07 1.61546e-07 4.11626e-08 1.01836e-08 2.44551e-09 5.69828e-10 1.28825e-10 2.81874e-11 5.93301e-12 1.11195e-12 7.80746e-14 -2.8502e-15 -1.08032e-13 -2.83967e-14 -2.49457e-14 1.57884e-13 -4.88242e-14 -9.25721e-14 -6.30295e-14 -3.82436e-14 -9.50039e-14 -9.29546e-14 8.32246e-14 -5.23581e-14 8.24664e-14 8.94356e-15 -8.34396e-14 -1.63029e-13 1.58663e-13 -1.10424e-14 3.71418e-14 -1.10618e-13 -6.02554e-14 -6.25721e-14 -4.36526e-14 8.94302e-14 -1.10845e-13 -6.24246e-14 8.09878e-14 -7.45838e-14 -3.39716e-14 8.47928e-14 3.74381e-14 1.37396e-13 8.69024e-14 -1.2213e-13 -1.28182e-13 -5.82581e-14 1.3814e-13 1.82242e-14 7.9279e-14 4.58168e-14 -5.33387e-14 8.58401e-14 -1.2316e-13 1.34877e-13 1.28177e-14 9.39108e-14 9.43291e-14 2.57385e-14 -4.72223e-15 1.32823e-14 1.69957e-13 9.63128e-14 0 0 1.8639e-15 2.82066e-15 2.30335e-15 -3.95891e-15 -1.54855e-14 1.5229e-17 -2.07084e-14 -7.51854e-15 -1.89452e-14 -2.40159e-15 -5.80723e-15 -2.71473e-15 5.70133e-15 -8.4776e-15 -1.39589e-14 -1.76799e-14 -1.13099e-14 -3.00837e-16 -1.00922e-14 1.76744e-15 -1.84943e-14 -2.14552e-15 -7.17939e-15 -2.03276e-14 -3.93349e-14 -1.31133e-14 -2.72246e-14 -2.66468e-14 -2.48995e-14 -7.72812e-15 -2.34641e-14 -3.22849e-14 1.00599e-14 -3.25471e-14 1.67303e-14 -1.69468e-14 1.01069e-14 -1.60769e-14 -2.85113e-14 2.45263e-14 1.1061e-14 -1.25393e-14 -1.60372e-14 -5.72459e-15 -1.67453e-15 -5.06044e-15 3.43363e-16 3.32212e-14 1.32905e-14 -1.45318e-14 -5.28832e-14 -7.36472e-14 -5.06688e-14 -6.25242e-14 8.27397e-15 -9.83563e-14 -1.09458e-14 -9.75568e-15 -6.49526e-14 -7.41812e-14 1.79371e-14 5.84131e-14 2.02404e-14 -3.21656e-14 2.6314e-14 -1.17808e-14 -6.35559e-14 -5.1187e-14 -3.21042e-14 -1.30958e-14 1.08255e-13 8.48735e-13 9.78208e-12 1.17579e-10 1.3077e-09 1.31664e-08 1.19205e-07 9.63478e-07 6.89283e-06 4.31967e-05 0.000234097 0.00107954 0.0041557 0.0130982 0.0334171 0.0695051 0.121393 0.185779 0.259497 0.341068 0.430327 0.527749 0.633917 0.748539 0.8669 0.965094 0.969957 0.943794 0.930578 0.927926 0.92843 0.928837 0.928905 0.928829 0.928733 0.92825 0.928003 0.926881 0.926685 0.924371 0.924399 0.919133 0.919609 0.905798 0.907495 0.87338 0.878223 0.808447 0.807755 0.694461 0.635331 0.500891 0.379768 0.250313 0.143184 0.0684969 0.0277063 0.00992173 0.00330665 0.00105547 0.000326506 9.82686e-05 2.88e-05 8.21727e-06 2.28125e-06 6.15812e-07 1.61546e-07 4.11626e-08 1.01835e-08 2.44547e-09 5.69941e-10 1.28819e-10 2.8032e-11 5.9137e-12 1.04024e-12 1.96527e-14 -1.87631e-13 -1.17901e-14 8.97304e-14 6.91834e-14 -1.05881e-14 -1.24136e-14 -7.67398e-14 -8.9024e-14 3.82187e-14 1.2181e-14 -1.09122e-13 -2.85839e-14 -1.99176e-13 -4.82919e-14 4.5523e-14 4.94944e-14 -1.53423e-13 2.69556e-14 2.68906e-14 1.43519e-13 7.28886e-15 -2.05274e-13 5.0179e-14 -4.9668e-14 -1.00549e-14 2.39106e-14 -1.00321e-13 9.34706e-14 -1.15217e-13 -9.2628e-14 2.01066e-13 -2.46453e-14 1.68561e-13 2.28987e-14 -5.89485e-14 -1.36902e-14 -9.79533e-15 1.03493e-13 -3.08196e-14 5.70632e-14 8.41907e-14 -2.92804e-14 5.61417e-14 2.71081e-14 1.29088e-13 -2.75296e-14 9.89425e-14 1.06475e-13 -4.47974e-14 7.89269e-14 6.37084e-14 1.95248e-13 1.0724e-13 0 0 1.0535e-15 3.86782e-15 -3.73362e-16 -1.54344e-15 -2.14234e-14 -2.32336e-15 -1.06821e-14 -1.40033e-14 -2.35567e-14 3.82134e-15 5.50416e-15 1.19711e-14 -1.31875e-15 -3.0379e-14 -1.42674e-14 -2.13407e-14 -1.46243e-14 1.94519e-14 -2.94181e-14 3.08408e-14 5.47401e-15 -2.03495e-14 -1.95705e-14 -1.62501e-14 -7.2872e-14 -4.31158e-15 -5.96134e-15 -1.99772e-14 -2.46504e-14 -5.64969e-15 -1.3477e-14 -4.78135e-14 1.50867e-14 -1.02575e-14 1.33587e-14 -3.04126e-14 2.48708e-14 -2.36398e-15 -5.17631e-14 2.78981e-14 -1.7684e-14 7.28635e-15 -1.41799e-14 -3.524e-14 -5.67947e-14 4.83936e-14 7.62837e-16 5.51611e-14 -8.31028e-15 4.60179e-15 -8.19581e-14 -9.73659e-14 -7.00943e-14 -6.7793e-14 3.53717e-14 -8.77342e-14 1.77673e-14 -1.70424e-14 -4.25244e-14 -1.04939e-13 9.47993e-14 2.56602e-15 2.56671e-14 1.14167e-14 -1.13283e-14 7.04184e-15 -2.8896e-14 -1.26735e-13 -1.97828e-14 -7.90796e-14 1.28873e-13 7.73194e-13 9.797e-12 1.17636e-10 1.30773e-09 1.31664e-08 1.19205e-07 9.63478e-07 6.89283e-06 4.31967e-05 0.000234097 0.00107954 0.0041557 0.0130982 0.0334171 0.0695051 0.121393 0.185779 0.259497 0.341068 0.430327 0.527749 0.633917 0.748539 0.8669 0.965094 0.969957 0.943794 0.930578 0.927926 0.92843 0.928837 0.928905 0.928829 0.928733 0.92825 0.928003 0.926881 0.926685 0.924371 0.924399 0.919133 0.919609 0.905798 0.907495 0.87338 0.878223 0.808447 0.807755 0.694461 0.635331 0.500891 0.379768 0.250313 0.143184 0.0684969 0.0277063 0.00992173 0.00330665 0.00105547 0.000326506 9.82686e-05 2.88e-05 8.21727e-06 2.28125e-06 6.15813e-07 1.61546e-07 4.11625e-08 1.01836e-08 2.44541e-09 5.70064e-10 1.28784e-10 2.80866e-11 5.83343e-12 8.54363e-13 -5.62405e-14 -1.1904e-13 5.30738e-14 1.44737e-13 1.55701e-13 -2.30889e-13 3.21757e-14 1.99252e-14 -1.07419e-13 9.41905e-14 -4.91436e-14 -1.27339e-13 4.90256e-14 -2.90003e-13 -2.11901e-13 -8.3131e-14 3.16483e-13 -1.14862e-13 -1.49758e-13 1.08802e-13 1.21983e-13 3.91805e-14 -2.00868e-13 1.29537e-13 -1.65609e-14 -1.934e-13 4.1887e-14 1.5662e-13 -9.1425e-14 -3.96941e-14 4.39383e-14 2.82965e-14 -1.43124e-14 1.86137e-13 -1.01784e-15 -5.98898e-14 8.74873e-14 -2.59396e-14 -1.29052e-14 7.6181e-14 9.53494e-14 8.16589e-14 -1.65256e-13 -4.94083e-14 2.45371e-13 1.78108e-13 -6.14162e-14 1.85361e-13 8.89842e-15 -2.99081e-14 2.59312e-13 -3.3647e-14 1.54519e-13 7.0641e-14 0
				</DataArray>
				<DataArray Name="VitesseY" type="Float32" format="ascii">