<?xml version="1.0"?>
<VTKFile type="PolyData">
	<PolyData>
		<Piece NumberOfPoints="1206" NumberOfPolys="1000">
			<Points>
				<DataArray type="Float32" NumberOfComponents="3" format="ascii">
 0 0 0 0.005 0 0 0.01 0 0 0.015 0 0 0.02 0 0 0.025 0 0 0.03 0 0 0.035 0 0 0.04 0 0 0.045 0 0 0.05 0 0 0.055 0 0 0.06 0 0 0.065 0 0 0.07 0 0 0.075 0 0 0.08 0 0 0.085 0 0 0.09 0 0 0.095 0 0 0.1 0 0 0.105 0 0 0.11 0 0 0.115 0 0 0.12 0 0 0.125 0 0 0.13 0 0 0.135 0 0 0.14 0 0 0.145 0 0 0.15 0 0 0.155 0 0 0.16 0 0 0.165 0 0 0.17 0 0 0.175 0 0 0.18 0 0 0.185 0 0 0.19 0 0 0.195 0 0 0.2 0 0 0.205 0 0 0.21 0 0 0.215 0 0 0.22 0 0 0.225 0 0 0.23 0 0 0.235 0 0 0.24 0 0 0.245 0 0 0.25 0 0 0.255 0 0 0.26 0 0 0.265 0 0 0.27 0 0 0.275 0 0 0.28 0 0 0.285 0 0 0.29 0 0 0.295 0 0 0.3 0 0 0.305 0 0 0.31 0 0 0.315 0 0 0.32 0 0 0.325 0 0 0.33 0 0 0.335 0 0 0.340001 0 0 0.345003 0 0 0.35001 0 0 0.355029 0 0 0.360074 0 0 0.365171 0 0 0.37035 0 0 0.375642 0 0 0.381078 0 0 0.386681 0 0 0.392473 0 0 0.398473 0 0 0.404702 0 0 0.411184 0 0 0.417942 0 0 0.425007 0 0 0.43241 0 0 0.440189 0 0 0.448389 0 0 0.457061 0 0 0.466265 0 0 0.476067 0 0 0.486539 0 0 0.497737 0 0 0.509627 0 0 0.521874 0 0 0.534 0 0 0.545975 0 0 0.557828 0 0 0.569617 0 0 0.581382 0 0 0.59314 0 0 0.604906 0 0 0.60752 0 0 0.61006 0 0 0.612553 0 0 0.615015 0 0 0.617454 0 0 0.619877 0 0 0.622289 0 0 0.624691 0 0 0.627087 0 0 0.629478 0 0 0.631865 0 0 0.634248 0 0 0.636628 0 0 0.639004 0 0 0.641377 0 0 0.643748 0 0 0.646116 0 0 0.648482 0 0 0.650847 0 0 0.65321 0 0 0.655573 0 0 0.657935 0 0 0.660296 0 0 0.662657 0 0 0.665018 0 0 0.667379 0 0 0.669741 0 0 0.672105 0 0 0.674471 0 0 0.676844 0 0 0.679224 0 0 0.681622 0 0 0.684037 0 0 0.686498 0 0 0.688998 0 0 0.69159 0 0 0.694267 0 0 0.697124 0 0 0.700181 0 0 0.703534 0 0 0.707216 0 0 0.711257 0 0 0.715635 0 0 0.720284 0 0 0.725115 0 0 0.730043 0 0 0.735016 0 0 0.740006 0 0 0.745002 0 0 0.750001 0 0 0.755 0 0 0.76 0 0 0.765 0 0 0.77 0 0 0.775 0 0 0.78 0 0 0.785 0 0 0.79 0 0 0.795 0 0 0.8 0 0 0.805 0 0 0.81 0 0 0.815 0 0 0.82 0 0 0.825 0 0 0.83 0 0 0.835 0 0 0.84 0 0 0.845 0 0 0.85 0 0 0.855 0 0 0.86 0 0 0.865 0 0 0.87 0 0 0.875 0 0 0.88 0 0 0.885 0 0 0.89 0 0 0.895 0 0 0.9 0 0 0.905 0 0 0.91 0 0 0.915 0 0 0.92 0 0 0.925 0 0 0.93 0 0 0.935 0 0 0.94 0 0 0.945 0 0 0.95 0 0 0.955 0 0 0.96 0 0 0.965 0 0 0.97 0 0 0.975 0 0 0.98 0 0 0.985 0 0 0.99 0 0 0.995 0 0 1 0 0 0 0.02 0 0.005 0.02 0 0.01 0.02 0 0.015 0.02 0 0.02 0.02 0 0.025 0.02 0 0.03 0.02 0 0.035 0.02 0 0.04 0.02 0 0.045 0.02 0 0.05 0.02 0 0.055 0.02 0 0.06 0.02 0 0.065 0.02 0 0.07 0.02 0 0.075 0.02 0 0.08 0.02 0 0.085 0.02 0 0.09 0.02 0 0.095 0.02 0 0.1 0.02 0 0.105 0.02 0 0.11 0.02 0 0.115 0.02 0 0.12 0.02 0 0.125 0.02 0 0.13 0.02 0 0.135 0.02 0 0.14 0.02 0 0.145 0.02 0 0.15 0.02 0 0.155 0.02 0 0.16 0.02 0 0.165 0.02 0 0.17 0.02 0 0.175 0.02 0 0.18 0.02 0 0.185 0.02 0 0.19 0.02 0 0.195 0.02 0 0.2 0.02 0 0.205 0.02 0 0.21 0.02 0 0.215 0.02 0 0.22 0.02 0 0.225 0.02 0 0.23 0.02 0 0.235 0.02 0 0.24 0.02 0 0.245 0.02 0 0.25 0.02 0 0.255 0.02 0 0.26 0.02 0 0.265 0.02 0 0.27 0.02 0 0.275 0.02 0 0.28 0.02 0 0.285 0.02 0 0.29 0.02 0 0.295 0.02 0 0.3 0.02 0 0.305 0.02 0 0.31 0.02 0 0.315 0.02 0 0.32 0.02 0 0.325 0.02 0 0.33 0.02 0 0.335 0.02 0 0.340001 0.02 0 0.345003 0.02 0 0.35001 0.02 0 0.355029 0.02 0 0.360074 0.02 0 0.365171 0.02 0 0.37035 0.02 0 0.375642 0.02 0 0.381078 0.02 0 0.386681 0.02 0 0.392473 0.02 0 0.398473 0.02 0 0.404702 0.02 0 0.411184 0.02 0 0.417942 0.02 0 0.425007 0.02 0 0.43241 0.02 0 0.440189 0.02 0 0.448389 0.02 0 0.457061 0.02 0 0.466265 0.02 0 0.476067 0.02 0 0.486539 0.02 0 0.497737 0.02 0 0.509627 0.02 0 0.521874 0.02 0 0.534 0.02 0 0.545975 0.02 0 0.557828 0.02 0 0.569617 0.02 0 0.581382 0.02 0 0.59314 0.02 0 0.604906 0.02 0 0.60752 0.02 0 0.61006 0.02 0 0.612553 0.02 0 0.615015 0.02 0 0.617454 0.02 0 0.619877 0.02 0 0.622289 0.02 0 0.624691 0.02 0 0.627087 0.02 0 0.629478 0.02 0 0.631865 0.02 0 0.634248 0.02 0 0.636628 0.02 0 0.639004 0.02 0 0.641377 0.02 0 0.643748 0.02 0 0.646116 0.02 0 0.648482 0.02 0 0.650847 0.02 0 0.65321 0.02 0 0.655573 0.02 0 0.657935 0.02 0 0.660296 0.02 0 0.662657 0.02 0 0.665018 0.02 0 0.667379 0.02 0 0.669741 0.02 0 0.672105 0.02 0 0.674471 0.02 0 0.676844 0.02 0 0.679224 0.02 0 0.681622 0.02 0 0.684037 0.02 0 0.686498 0.02 0 0.688998 0.02 0 0.69159 0.02 0 0.694267 0.02 0 0.697124 0.02 0 0.700181 0.02 0 0.703534 0.02 0 0.707216 0.02 0 0.711257 0.02 0 0.715635 0.02 0 0.720284 0.02 0 0.725115 0.02 0 0.730043 0.02 0 0.735016 0.02 0 0.740006 0.02 0 0.745002 0.02 0 0.750001 0.02 0 0.755 0.02 0 0.76 0.02 0 0.765 0.02 0 0.77 0.02 0 0.775 0.02 0 0.78 0.02 0 0.785 0.02 0 0.79 0.02 0 0.795 0.02 0 0.8 0.02 0 0.805 0.02 0 0.81 0.02 0 0.815 0.02 0 0.82 0.02 0 0.825 0.02 0 0.83 0.02 0 0.835 0.02 0 0.84 0.02 0 0.845 0.02 0 0.85 0.02 0 0.855 0.02 0 0.86 0.02 0 0.865 0.02 0 0.87 0.02 0 0.875 0.02 0 0.88 0.02 0 0.885 0.02 0 0.89 0.02 0 0.895 0.02 0 0.9 0.02 0 0.905 0.02 0 0.91 0.02 0 0.915 0.02 0 0.92 0.02 0 0.925 0.02 0 0.93 0.02 0 0.935 0.02 0 0.94 0.02 0 0.945 0.02 0 0.95 0.02 0 0.955 0.02 0 0.96 0.02 0 0.965 0.02 0 0.97 0.02 0 0.975 0.02 0 0.98 0.02 0 0.985 0.02 0 0.99 0.02 0 0.995 0.02 0 1 0.02 0 0 0.04 0 0.005 0.04 0 0.01 0.04 0 0.015 0.04 0 0.02 0.04 0 0.025 0.04 0 0.03 0.04 0 0.035 0.04 0 0.04 0.04 0 0.045 0.04 0 0.05 0.04 0 0.055 0.04 0 0.06 0.04 0 0.065 0.04 0 0.07 0.04 0 0.075 0.04 0 0.08 0.04 0 0.085 0.04 0 0.09 0.04 0 0.095 0.04 0 0.1 0.04 0 0.105 0.04 0 0.11 0.04 0 0.115 0.04 0 0.12 0.04 0 0.125 0.04 0 0.13 0.04 0 0.135 0.04 0 0.14 0.04 0 0.145 0.04 0 0.15 0.04 0 0.155 0.04 0 0.16 0.04 0 0.165 0.04 0 0.17 0.04 0 0.175 0.04 0 0.18 0.04 0 0.185 0.04 0 0.19 0.04 0 0.195 0.04 0 0.2 0.04 0 0.205 0.04 0 0.21 0.04 0 0.215 0.04 0 0.22 0.04 0 0.225 0.04 0 0.23 0.04 0 0.235 0.04 0 0.24 0.04 0 0.245 0.04 0 0.25 0.04 0 0.255 0.04 0 0.26 0.04 0 0.265 0.04 0 0.27 0.04 0 0.275 0.04 0 0.28 0.04 0 0.285 0.04 0 0.29 0.04 0 0.295 0.04 0 0.3 0.04 0 0.305 0.04 0 0.31 0.04 0 0.315 0.04 0 0.32 0.04 0 0.325 0.04 0 0.33 0.04 0 0.335 0.04 0 0.340001 0.04 0 0.345003 0.04 0 0.35001 0.04 0 0.355029 0.04 0 0.360074 0.04 0 0.365171 0.04 0 0.37035 0.04 0 0.375642 0.04 0 0.381078 0.04 0 0.386681 0.04 0 0.392473 0.04 0 0.398473 0.04 0 0.404702 0.04 0 0.411184 0.04 0 0.417942 0.04 0 0.425007 0.04 0 0.43241 0.04 0 0.440189 0.04 0 0.448389 0.04 0 0.457061 0.04 0 0.466265 0.04 0 0.476067 0.04 0 0.486539 0.04 0 0.497737 0.04 0 0.509627 0.04 0 0.521874 0.04 0 0.534 0.04 0 0.545975 0.04 0 0.557828 0.04 0 0.569617 0.04 0 0.581382 0.04 0 0.59314 0.04 0 0.604906 0.04 0 0.60752 0.04 0 0.61006 0.04 0 0.612553 0.04 0 0.615015 0.04 0 0.617454 0.04 0 0.619877 0.04 0 0.622289 0.04 0 0.624691 0.04 0 0.627087 0.04 0 0.629478 0.04 0 0.631865 0.04 0 0.634248 0.04 0 0.636628 0.04 0 0.639004 0.04 0 0.641377 0.04 0 0.643748 0.04 0 0.646116 0.04 0 0.648482 0.04 0 0.650847 0.04 0 0.65321 0.04 0 0.655573 0.04 0 0.657935 0.04 0 0.660296 0.04 0 0.662657 0.04 0 0.665018 0.04 0 0.667379 0.04 0 0.669741 0.04 0 0.672105 0.04 0 0.674471 0.04 0 0.676844 0.04 0 0.679224 0.04 0 0.681622 0.04 0 0.684037 0.04 0 0.686498 0.04 0 0.688998 0.04 0 0.69159 0.04 0 0.694267 0.04 0 0.697124 0.04 0 0.700181 0.04 0 0.703534 0.04 0 0.707216 0.04 0 0.711257 0.04 0 0.715635 0.04 0 0.720284 0.04 0 0.725115 0.04 0 0.730043 0.04 0 0.735016 0.04 0 0.740006 0.04 0 0.745002 0.04 0 0.750001 0.04 0 0.755 0.04 0 0.76 0.04 0 0.765 0.04 0 0.77 0.04 0 0.775 0.04 0 0.78 0.04 0 0.785 0.04 0 0.79 0.04 0 0.795 0.04 0 0.8 0.04 0 0.805 0.04 0 0.81 0.04 0 0.815 0.04 0 0.82 0.04 0 0.825 0.04 0 0.83 0.04 0 0.835 0.04 0 0.84 0.04 0 0.845 0.04 0 0.85 0.04 0 0.855 0.04 0 0.86 0.04 0 0.865 0.04 0 0.87 0.04 0 0.875 0.04 0 0.88 0.04 0 0.885 0.04 0 0.89 0.04 0 0.895 0.04 0 0.9 0.04 0 0.905 0.04 0 0.91 0.04 0 0.915 0.04 0 0.92 0.04 0 0.925 0.04 0 0.93 0.04 0 0.935 0.04 0 0.94 0.04 0 0.945 0.04 0 0.95 0.04 0 0.955 0.04 0 0.96 0.04 0 0.965 0.04 0 0.97 0.04 0 0.975 0.04 0 0.98 0.04 0 0.985 0.04 0 0.99 0.04 0 0.995 0.04 0 1 0.04 0 0 0.06 0 0.005 0.06 0 0.01 0.06 0 0.015 0.06 0 0.02 0.06 0 0.025 0.06 0 0.03 0.06 0 0.035 0.06 0 0.04 0.06 0 0.045 0.06 0 0.05 0.06 0 0.055 0.06 0 0.06 0.06 0 0.065 0.06 0 0.07 0.06 0 0.075 0.06 0 0.08 0.06 0 0.085 0.06 0 0.09 0.06 0 0.095 0.06 0 0.1 0.06 0 0.105 0.06 0 0.11 0.06 0 0.115 0.06 0 0.12 0.06 0 0.125 0.06 0 0.13 0.06 0 0.135 0.06 0 0.14 0.06 0 0.145 0.06 0 0.15 0.06 0 0.155 0.06 0 0.16 0.06 0 0.165 0.06 0 0.17 0.06 0 0.175 0.06 0 0.18 0.06 0 0.185 0.06 0 0.19 0.06 0 0.195 0.06 0 0.2 0.06 0 0.205 0.06 0 0.21 0.06 0 0.215 0.06 0 0.22 0.06 0 0.225 0.06 0 0.23 0.06 0 0.235 0.06 0 0.24 0.06 0 0.245 0.06 0 0.25 0.06 0 0.255 0.06 0 0.26 0.06 0 0.265 0.06 0 0.27 0.06 0 0.275 0.06 0 0.28 0.06 0 0.285 0.06 0 0.29 0.06 0 0.295 0.06 0 0.3 0.06 0 0.305 0.06 0 0.31 0.06 0 0.315 0.06 0 0.32 0.06 0 0.325 0.06 0 0.33 0.06 0 0.335 0.06 0 0.340001 0.06 0 0.345003 0.06 0 0.35001 0.06 0 0.355029 0.06 0 0.360074 0.06 0 0.365171 0.06 0 0.37035 0.06 0 0.375642 0.06 0 0.381078 0.06 0 0.386681 0.06 0 0.392473 0.06 0 0.398473 0.06 0 0.404702 0.06 0 0.411184 0.06 0 0.417942 0.06 0 0.425007 0.06 0 0.43241 0.06 0 0.440189 0.06 0 0.448389 0.06 0 0.457061 0.06 0 0.466265 0.06 0 0.476067 0.06 0 0.486539 0.06 0 0.497737 0.06 0 0.509627 0.06 0 0.521874 0.06 0 0.534 0.06 0 0.545975 0.06 0 0.557828 0.06 0 0.569617 0.06 0 0.581382 0.06 0 0.59314 0.06 0 0.604906 0.06 0 0.60752 0.06 0 0.61006 0.06 0 0.612553 0.06 0 0.615015 0.06 0 0.617454 0.06 0 0.619877 0.06 0 0.622289 0.06 0 0.624691 0.06 0 0.627087 0.06 0 0.629478 0.06 0 0.631865 0.06 0 0.634248 0.06 0 0.636628 0.06 0 0.639004 0.06 0 0.641377 0.06 0 0.643748 0.06 0 0.646116 0.06 0 0.648482 0.06 0 0.650847 0.06 0 0.65321 0.06 0 0.655573 0.06 0 0.657935 0.06 0 0.660296 0.06 0 0.662657 0.06 0 0.665018 0.06 0 0.667379 0.06 0 0.669741 0.06 0 0.672105 0.06 0 0.674471 0.06 0 0.676844 0.06 0 0.679224 0.06 0 0.681622 0.06 0 0.684037 0.06 0 0.686498 0.06 0 0.688998 0.06 0 0.69159 0.06 0 0.694267 0.06 0 0.697124 0.06 0 0.700181 0.06 0 0.703534 0.06 0 0.707216 0.06 0 0.711257 0.06 0 0.715635 0.06 0 0.720284 0.06 0 
[...]
			<PointData Scalars="VitesseX">
				<DataArray Name="VitesseX" type="Float32" format="ascii">
 0 -2.33119e-15 -4.2767e-15 -3.70138e-15 -5.96419e-15 -6.45182e-15 -1.07625e-14 -7.89851e-15 -1.56472e-14 -2.03682e-14 -1.22556e-14 -2.57552e-14 -1.91437e-14 -1.43962e-14 -1.02123e-14 -1.42956e-14 -1.68661e-14 -3.04174e-14 -1.62215e-14 -2.77512e-14 -2.0748e-14 -6.40068e-15 -2.74114e-14 -1.84969e-14 -6.60651e-15 -2.88854e-14 -3.76667e-15 -3.05851e-14 -2.09529e-14 -7.25684e-15 -1.9699e-14 -2.21328e-14 -1.45199e-14 -2.67169e-14 -2.31644e-14 -1.16333e-14 -2.80561e-14 -3.04346e-14 3.97566e-15 -5.79373e-14 -2.74426e-14 -2.43407e-14 -2.65722e-14 -3.64287e-14 -3.53027e-14 -5.8468e-14 -5.29971e-15 -2.37892e-14 -1.27205e-14 -4.14708e-14 -2.59818e-14 -9.46192e-15 -5.19435e-14 -5.15812e-14 -2.56261e-15 -2.25531e-14 1.11242e-13 8.60952e-13 7.4986e-12 5.90438e-11 4.38435e-10 3.04318e-09 1.96609e-08 1.1782e-07 6.52224e-07 3.31957e-06 1.5448e-05 6.52978e-05 0.000248727 0.000845764 0.00253998 0.00666589 0.015173 0.0299505 0.0517942 0.0800238 0.113153 0.149807 0.189124 0.230691 0.274364 0.32014 0.368093 0.418345 0.471054 0.526399 0.58457 0.64573 0.709934 0.776913 0.845442 0.911354 0.961185 0.963884 0.949891 0.938724 0.932398 0.929776 0.928725 0.927994 0.927458 0.927389 0.927326 0.927266 0.92721 0.927156 0.927103 0.927051 0.927 0.926947 0.926893 0.926837 0.92678 0.926715 0.926653 0.926577 0.926508 0.926415 0.926344 0.926224 0.926159 0.925989 0.925944 0.925666 0.925654 0.925114 0.925137 0.923884 0.923984 0.920632 0.920965 0.911819 0.912857 0.889674 0.892741 0.842765 0.848131 0.757566 0.731051 0.611316 0.515847 0.385335 0.263717 0.156731 0.0799575 0.0351824 0.0139224 0.00519536 0.00188424 0.000673193 0.00023806 8.34149e-05 2.89527e-05 9.94708e-06 3.37979e-06 1.13475e-06 3.7618e-07 1.23046e-07 3.9688e-08 1.26164e-08 3.95087e-09 1.21843e-09 3.69776e-10 1.10471e-10 3.24431e-11 9.28018e-12 2.52281e-12 6.25081e-13 1.1159e-13 -5.21533e-14 9.10759e-15 5.09304e-15 -9.60318e-14 -8.92694e-14 -3.78074e-14 4.67761e-14 3.31245e-14 4.29606e-14 7.19789e-15 8.56452e-14 1.05667e-14 2.61545e-15 3.33761e-14 3.74341e-14 9.84313e-14 7.26655e-14 1.03626e-13 -5.75958e-14 6.18419e-14 1.12577e-14 9.71416e-14 -6.05299e-14 -6.07754e-15 6.61268e-14 -4.93693e-14 4.83689e-14 -2.13797e-15 -2.77905e-14 1.04527e-13 -9.95048e-15 0 0 -2.18124e-15 -4.6595e-15 -4.8461e-15 -4.0935e-15 -8.28472e-15 -9.10851e-15 -7.93896e-15 -1.33787e-14 -1.74323e-14 -1.89738e-14 -1.89844e-14 -2.09629e-14 -1.74005e-14 -1.42736e-14 -1.99585e-14 -1.52116e-14 -1.96433e-14 -2.86871e-14 -1.91286e-14 -1.75513e-14 -1.6135e-14 -1.85671e-14 -1.5054e-14 -1.9159e-14 -1.1897e-14 -2.9047e-14 -2.07623e-14 -1.09307e-14 -2.05453e-14 -6.84992e-15 -1.8165e-14 -2.60018e-14 -1.75758e-14 -5.93037e-15 -2.0031e-14 -2.52138e-14 -2.82823e-14 -2.57163e-14 -3.52913e-14 -3.21701e-14 -5.33088e-14 -1.99719e-14 -5.60646e-14 -1.95593e-14 -3.60927e-14 -2.00182e-14 -2.5277e-14 -3.33382e-14 -1.22788e-14 -2.46643e-14 -3.72937e-14 -3.96467e-14 -1.02769e-14 -2.43207e-14 -1.55529e-14 1.49246e-13 9.00738e-13 7.4909e-12 5.90272e-11 4.38468e-10 3.04316e-09 1.96609e-08 1.1782e-07 6.52224e-07 3.31957e-06 1.5448e-05 6.52978e-05 0.000248727 0.000845764 0.00253998 0.00666589 0.015173 0.0299505 0.0517942 0.0800238 0.113153 0.149807 0.189124 0.230691 0.274364 0.32014 0.368093 0.418345 0.471054 0.526399 0.58457 0.64573 0.709934 0.776913 0.845442 0.911354 0.961185 0.963884 0.949891 0.938724 0.932398 0.929776 0.928725 0.927994 0.927458 0.927389 0.927326 0.927266 0.92721 0.927156 0.927103 0.927051 0.927 0.926947 0.926893 0.926837 0.92678 0.926715 0.926653 0.926577 0.926508 0.926415 0.926344 0.926224 0.926159 0.925989 0.925944 0.925666 0.925654 0.925114 0.925137 0.923884 0.923984 0.920632 0.920965 0.911819 0.912857 0.889674 0.892741 0.842765 0.848131 0.757566 0.731051 0.611316 0.515847 0.385335 0.263717 0.156731 0.0799575 0.0351824 0.0139224 0.00519536 0.00188424 0.000673193 0.00023806 8.34149e-05 2.89527e-05 9.94708e-06 3.37979e-06 1.13475e-06 3.7618e-07 1.23046e-07 3.96878e-08 1.26164e-08 3.95091e-09 1.21847e-09 3.69743e-10 1.10402e-10 3.24337e-11 9.25197e-12 2.5293e-12 6.57901e-13 1.1296e-13 -3.88828e-14 2.12071e-14 -9.10191e-14 -4.84456e-14 2.67395e-14 2.86692e-14 -7.70446e-14 -4.42487e-14 4.89763e-14 6.97801e-14 1.28573e-15 7.28307e-14 6.39337e-14 -4.86129e-14 8.03074e-14 3.90881e-14 1.15674e-13 7.84598e-14 7.7422e-14 4.74232e-14 4.40127e-14 9.75963e-15 -5.06178e-14 2.18992e-14 5.20505e-14 2.30792e-14 -5.5641e-14 2.24426e-14 4.74644e-14 -9.63963e-15 5.6662e-14 0 0 -1.41834e-15 -2.4958e-15 -3.64867e-15 -5.50182e-15 -3.02432e-15 -9.25568e-15 -1.07081e-14 -8.55564e-15 -1.70377e-14 -2.43138e-14 -1.42516e-14 -2.35858e-14 -2.437e-14 -2.04282e-14 -1.74419e-14 -1.40965e-14 -1.34834e-14 -3.52164e-14 -1.29377e-14 -1.62939e-14 -1.25975e-14 -3.51573e-15 -1.75093e-14 -2.0856e-14 -1.41582e-14 -2.85118e-14 -5.77029e-16 -1.21488e-14 -2.98001e-14 1.41593e-15 -2.52146e-14 -3.5713e-14 -1.00562e-14 -2.24931e-14 -2.60022e-14 -2.3722e-14 -3.46198e-14 -5.29593e-14 -2.62001e-14 -4.34158e-14 -4.70761e-14 -2.57489e-14 -3.23872e-14 -1.38537e-14 -3.26363e-14 -3.2809e-14 -2.44076e-14 -3.43548e-14 -1.68688e-14 -1.47833e-14 -4.92673e-14 -3.78866e-14 -2.94827e-14 3.22228e-14 1.91087e-14 1.79664e-13 9.63895e-13 7.49067e-12 5.90597e-11 4.38544e-10 3.04313e-09 1.96609e-08 1.1782e-07 6.52224e-07 3.31957e-06 1.5448e-05 6.52978e-05 0.000248727 0.000845764 0.00253998 0.00666589 0.015173 0.0299505 0.0517942 0.0800238 0.113153 0.149807 0.189124 0.230691 0.274364 0.32014 0.368093 0.418345 0.471054 0.526399 0.58457 0.64573 0.709934 0.776913 0.845442 0.911354 0.961185 0.963884 0.949891 0.938724 0.932398 0.929776 0.928725 0.927994 0.927458 0.927389 0.927326 0.927266 0.92721 0.927156 0.927103 0.927051 0.927 0.926947 0.926893 0.926837 0.92678 0.926715 0.926653 0.926577 0.926508 0.926415 0.926344 0.926224 0.926159 0.925989 0.925944 0.925666 0.925654 0.925114 0.925137 0.923884 0.923984 0.920632 0.920965 0.911819 0.912857 0.889674 0.892741 0.842765 0.848131 0.757566 0.731051 0.611316 0.515847 0.385335 0.263717 0.156731 0.0799575 0.0351824 0.0139224 0.00519536 0.00188424 0.000673193 0.00023806 8.34149e-05 2.89527e-05 9.94708e-06 3.37979e-06 1.13475e-06 3.7618e-07 1.23046e-07 3.96879e-08 1.26163e-08 3.95095e-09 1.21834e-09 3.69798e-10 1.10344e-10 3.22809e-11 9.2982e-12 2.51132e-12 5.37345e-13 1.75923e-13 1.00051e-13 1.88142e-14 -1.20844e-13 -4.72231e-14 2.58117e-14 3.36146e-14 -2.82753e-14 -7.91601e-14 -2.33078e-14 6.41801e-14 1.36572e-13 4.86944e-14 5.12992e-14 -5.55311e-14 1.16158e-13 5.54687e-14 1.10413e-13 3.19174e-14 1.46419e-13 5.31407e-14 2.03595e-14 5.52984e-14 -9.47299e-14 4.30808e-14 6.13131e-14 4.25135e-14 -1.79163e-14 3.83017e-14 -3.3908e-14 -5.54235e-14 3.58589e-14 0 0 -3.32935e-15 -1.70517e-15 -1.55798e-15 -6.0995e-15 -2.88763e-15 -7.39129e-15 -8.29393e-15 -1.47587e-14 -1.94608e-14 -1.86814e-14 -1.62332e-14 -2.93387e-14 -2.50988e-14 -2.14977e-14 -1.68313e-14 4.76827e-15 -2.9182e-14 -2.82009e-14 -1.91118e-14 -2.97861e-15 6.84242e-15 -1.20236e-14 -1.3993e-14 -1.24343e-14 -6.75047e-15 -1.01998e-14 -1.32303e-14 -9.45685e-15 -2.28506e-14 -2.52009e-14 -2.29025e-14 -3.93442e-14 -2.68085e-14 -3.83237e-14 -2.23549e-14 -4.20406e-14 -3.62502e-14 -3.6853e-14 -5.40587e-14 -6.52191e-14 -3.69251e-14 -4.74078e-14 2e-14 -2.78147e-14 1.9335e-14 -5.10789e-14 -7.09336e-15 -6.11373e-15 -3.17512e-14 -1.54007e-14 -3.7765e-14 -2.18031e-14 -3.02072e-14 1.12958e-14 4.83669e-14 2.36263e-13 1.007e-12 7.52762e-12 5.90771e-11 4.38577e-10 3.04312e-09 1.9661e-08 1.1782e-07 6.52224e-07 3.31957e-06 1.5448e-05 6.52978e-05 0.000248727 0.000845764 0.00253998 0.00666589 0.015173 0.0299505 0.0517942 0.0800238 0.113153 0.149807 0.189124 0.230691 0.274364 0.32014 0.368093 0.418345 0.471054 0.526399 0.58457 0.64573 0.709934 0.776913 0.845442 0.911354 0.961185 0.963884 0.949891 0.938724 0.932398 0.929776 0.928725 0.927994 0.927458 0.927389 0.927326 0.927266 0.92721 0.927156 0.927103 0.927051 0.927 0.926947 0.926893 0.926837 0.92678 0.926715 0.926653 0.926577 0.926508 0.926415 0.926344 0.926224 0.926159 0.925989 0.925944 0.925666 0.925654 0.925114 0.925137 0.923884 0.923984 0.920632 0.920965 0.911819 0.912857 0.889674 0.892741 0.842765 0.848131 0.757566 0.731051 0.611316 0.515847 0.385335 0.263717 0.156731 0.0799575 0.0351824 0.0139224 0.00519536 0.00188424 0.000673193 0.00023806 8.34149e-05 2.89527e-05 9.94708e-06 3.37979e-06 1.13475e-06 3.7618e-07 1.23046e-07 3.96879e-08 1.26163e-08 3.95091e-09 1.21823e-09 3.6969e-10 1.10468e-10 3.2145e-11 9.17064e-12 2.4444e-12 4.31208e-13 2.4843e-13 1.29693e-13 2.04016e-14 7.87917e-14 2.10874e-14 -9.83975e-14 2.11257e-14 5.91103e-14 -4.4796e-14 -1.18995e-13 3.56325e-14 1.98505e-13 -8.32359e-14 1.14454e-13 4.86912e-14 1.21156e-13 -3.54162e-15 1.06242e-13 -1.9236e-14 5.13248e-14 8.13955e-14 -3.70934e-14 1.24752e-14 -1.99253e-14 -3.7412e-15 9.19253e-14 1.89416e-14 1.13401e-13 1.86089e-14 -2.21327e-13 2.51465e-14 5.08377e-14 0 0 -2.59159e-15 -4.09172e-15 -6.14725e-15 -3.82267e-15 -7.53955e-15 -3.22627e-15 -4.00639e-15 -1.9697e-14 -2.00645e-14 -1.81329e-14 -1.96865e-14 -3.05855e-14 -1.65952e-14 -1.68467e-14 -1.27271e-14 -5.43774e-16 -2.29414e-14 -2.2596e-14 -1.27336e-14 7.08953e-16 -1.8806e-14 -2.36164e-14 -1.71805e-14 -3.31357e-15 4.86037e-15 1.34431e-14 -6.45e-15 -3.09182e-14 -7.79223e-15 -5.60939e-14 -1.35618e-14 -3.85742e-14 -6.54996e-14 -1.42435e-14 -4.12875e-14 -2.43823e-14 -2.48213e-14 -2.72067e-14 -5.56956e-14 -8.28462e-14 -7.6698e-14 -3.19209e-14 -8.81037e-15 -3.12371e-14 4.82628e-14 -1.72673e-14 3.80895e-14 1.51925e-14 -5.79031e-15 -4.33135e-14 -2.88528e-14 -3.41808e-14 -1.62822e-15 -1.99287e-14 1.934e-14 2.58523e-13 1.00925e-12 7.5911e-12 5.91056e-11 4.3859e-10 3.0432e-09 1.9661e-08 1.1782e-07 6.52224e-07 3.31957e-06 1.5448e-05 6.52978e-05 0.000248727 0.000845764 0.00253998 0.00666589 0.015173 0.0299505 0.0517942 0.0800238 0.113153 0.149807 0.189124 0.230691 0.274364 0.32014 0.368093 0.418345 0.471054 0.526399 0.58457 0.64573 0.709934 0.776913 0.845442 0.911354 0.961185 0.963884 0.949891 0.938724 0.932398 0.929776 0.928725 0.927994 0.927458 0.927389 0.927326 0.927266 0.92721 0.927156 0.927103 0.927051 0.927 0.926947 0.926893 0.926837 0.92678 0.926715 0.926653 0.926577 0.926508 0.926415 0.926344 0.926224 0.926159 0.925989 0.925944 0.925666 0.925654 0.925114 0.925137 0.923884 0.923984 0.920632 0.920965 0.911819 0.912857 0.889674 0.892741 0.842765 0.848131 0.757566 0.731051 0.611316 0.515847 0.385335 0.263717 0.156731 0.0799575 0.0351824 0.0139224 0.00519536 0.00188424 0.000673193 0.00023806 8.34149e-05 2.89527e-05 9.94708e-06 3.37979e-06 1.13475e-06 3.7618e-07 1.23046e-07 3.96878e-08 1.26164e-08 3.95079e-09 1.21826e-09 3.69566e-10 1.10503e-10 3.21956e-11 9.09791e-12 2.5079e-12 3.72922e-13 2.25329e-13 3.59138e-14 -8.40412e-14 1.10086e-13 4.63009e-14 -9.37359e-14 3.62239e-14 8.9737e-14 -6.10253e-14 -7.5564e-14 8.57827e-14 8.91055e-14 -2.4868e-13 2.93138e-13 -4.74528e-14 1.98521e-14 -6.52903e-14 9.29777e-14 9.8832e-14 6.33743e-14 3.99651e-14 -1.17274e-13 -1.34811e-13 -4.85495e-15 1.42143e-13 3.25288e-14 1.22195e-13 9.79056e-14 -1.58485e-14 -1.92124e-13 -2.70785e-14 8.21134e-14 0 0 6.70137e-16 -4.72238e-15 -1.04851e-14 -4.22717e-15 -5.23487e-15 -2.72685e-15 -4.86164e-15 -1.58776e-14 -2.07864e-14 -2.18387e-14 -2.3196e-14 -2.68832e-14 -1.1328e-14 -1.32197e-14 -1.05398e-15 -2.52599e-14 -5.61629e-15 -1.80703e-14 -2.61296e-15 -1.08579e-14 -5.06227e-14 -2.04942e-14 -2.97825e-14 8.24104e-15 -1.0186e-14 4.45897e-14 2.33461e-14 -6.63119e-14 4.35033e-15 -6.49532e-14 -1.75506e-14 -3.24023e-14 -8.90599e-14 -8.12945e-15 -6.14408e-14 1.02441e-14 -2.02518e-14 -3.12177e-14 -4.3029e-14 -8.51883e-14 -9.14212e-14 -7.15236e-15 -4.66945e-14 -3.07361e-14 6.30034e-15 3.67419e-14 6.83153e-14 2.78588e-14 1.271e-15 -6.20452e-14 -1.55848e-14 -7.31787e-14 -3.28351e-14 4.80754e-14 -1.12836e-14 2.16598e-13 9.91776e-13 7.6251e-12 5.91658e-11 4.38612e-10 3.04328e-09 1.96609e-08 1.1782e-07 6.52224e-07 3.31957e-06 1.5448e-05 6.52978e-05 0.000248727 0.000845764 0.00253998 0.00666589 0.015173 0.0299505 0.0517942 0.0800238 0.113153 0.149807 0.189124 0.230691 0.274364 0.32014 0.368093 0.418345 0.471054 0.526399 0.58457 0.64573 0.709934 0.776913 0.845442 0.911354 0.961185 0.963884 0.949891 0.938724 0.932398 0.929776 0.928725 0.927994 0.927458 0.927389 0.927326 0.927266 0.92721 0.927156 0.927103 0.927051 0.927 0.926947 0.926893 0.926837 0.92678 0.926715 0.926653 0.926577 0.926508 0.926415 0.926344 0.926224 0.926159 0.925989 0.925944 0.925666 0.925654 0.925114 0.925137 0.923884 0.923984 0.920632 0.920965 0.911819 0.912857 0.889674 0.892741 0.842765 0.848131 0.757566 0.731051 0.611316 0.515847 0.385335 0.263717 0.156731 0.0799575 0.0351824 0.0139224 0.00519536 0.00188424 0.000673193 0.00023806 8.34149e-05 2.89527e-05 9.94708e-06 3.37979e-06 1.13475e-06 3.7618e-07 1.23046e-07 3.96879e-08 1.26164e-08 3.95072e-09 1.21824e-09 3.69637e-10 1.10426e-10 3.22387e-11 9.22699e-12 2.61347e-12 2.67219e-13 1.91581e-13 3.83771e-14 -2.04851e-13 7.51846e-15 -4.37013e-14 -8.21419e-14 2.16064e-15 2.05309e-13 -6.93571e-14 -1.45425e-14 9.65085e-14 1.37729e-13 -3.68625e-13 3.34393e-13 -1.7303e-13 -9.37959e-14 7.8744e-15 3.56981e-14 2.46712e-13 1.04744e-13 -9.67367e-15 -1.96467e-13 -1.06681e-13 -1.18713e-13 3.28377e-13 -3.40992e-14 1.96084e-13 9.29088e-14 -3.90241e-14 -1.32484e-13 -9.21023e-14 1.07628e-14 0
				</DataArray>
				<DataArray Name="VitesseY" type="Float32" format="ascii">