<?xml version="1.0"?>
<VTKFile type="PolyData">
	<PolyData>
		<Piece NumberOfPoints="1206" NumberOfPolys="1000">
			<Points>
				<DataArray type="Float32" NumberOfComponents="3" format="ascii">
 0 0 0 0.005 0 0 0.01 0 0 0.015 0 0 0.02 0 0 0.025 0 0 0.03 0 0 0.035 0 0 0.04 0 0 0.045 0 0 0.05 0 0 0.055 0 0 0.06 0 0 0.065 0 0 0.07 0 0 0.075 0 0 0.08 0 0 0.085 0 0 0.09 0 0 0.095 0 0 0.1 0 0 0.105 0 0 0.11 0 0 0.115 0 0 0.12 0 0 0.125 0 0 0.13 0 0 0.135 0 0 0.14 0 0 0.145 0 0 0.15 0 0 0.155 0 0 0.16 0 0 0.165 0 0 0.17 0 0 0.175 0 0 0.18 0 0 0.185 0 0 0.19 0 0 0.195 0 0 0.2 0 0 0.205 0 0 0.21 0 0 0.215 0 0 0.22 0 0 0.225 0 0 0.23 0 0 0.235 0 0 0.24 0 0 0.245 0 0 0.25 0 0 0.255 0 0 0.26 0 0 0.265 0 0 0.27 0 0 0.275 0 0 0.28 0 0 0.285 0 0 0.29 0 0 0.295 0 0 0.3 0 0 0.305 0 0 0.31 0 0 0.315 0 0 0.32 0 0 0.325 0 0 0.33 0 0 0.335 0 0 0.34 0 0 0.345 0 0 0.35 0 0 0.355 0 0 0.36 0 0 0.365 0 0 0.37 0 0 0.375 0 0 0.38 0 0 0.385 0 0 0.39 0 0 0.395002 0 0 0.400007 0 0 0.405027 0 0 0.410084 0 0 0.41522 0 0 0.420495 0 0 0.425972 0 0 0.431709 0 0 0.43776 0 0 0.444179 0 0 0.451025 0 0 0.458373 0 0 0.46631 0 0 0.474947 0 0 0.48442 0 0 0.494882 0 0 0.506427 0 0 0.518757 0 0 0.53098 0 0 0.542953 0 0 0.554772 0 0 0.566566 0 0 0.569188 0 0 0.571736 0 0 0.574236 0 0 0.576706 0 0 0.579153 0 0 0.581583 0 0 0.584001 0 0 0.58641 0 0 0.588812 0 0 0.591209 0 0 0.593602 0 0 0.595993 0 0 0.59838 0 0 0.600767 0 0 0.603153 0 0 0.605544 0 0 0.607941 0 0 0.610357 0 0 0.612793 0 0 0.61528 0 0 0.617813 0 0 0.620451 0 0 0.623191 0 0 0.626136 0 0 0.629313 0 0 0.632815 0 0 0.636667 0 0 0.64088 0 0 0.645407 0 0 0.650166 0 0 0.655061 0 0 0.660021 0 0 0.665007 0 0 0.670002 0 0 0.675001 0 0 0.68 0 0 0.685 0 0 0.69 0 0 0.695 0 0 0.7 0 0 0.705 0 0 0.71 0 0 0.715 0 0 0.72 0 0 0.725 0 0 0.73 0 0 0.735 0 0 0.74 0 0 0.745 0 0 0.75 0 0 0.755 0 0 0.76 0 0 0.765 0 0 0.77 0 0 0.775 0 0 0.78 0 0 0.785 0 0 0.79 0 0 0.795 0 0 0.8 0 0 0.805 0 0 0.81 0 0 0.815 0 0 0.82 0 0 0.825 0 0 0.83 0 0 0.835 0 0 0.84 0 0 0.845 0 0 0.85 0 0 0.855 0 0 0.86 0 0 0.865 0 0 0.87 0 0 0.875 0 0 0.88 0 0 0.885 0 0 0.89 0 0 0.895 0 0 0.9 0 0 0.905 0 0 0.91 0 0 0.915 0 0 0.92 0 0 0.925 0 0 0.93 0 0 0.935 0 0 0.94 0 0 0.945 0 0 0.95 0 0 0.955 0 0 0.96 0 0 0.965 0 0 0.97 0 0 0.975 0 0 0.98 0 0 0.985 0 0 0.99 0 0 0.995 0 0 1 0 0 0 0.02 0 0.005 0.02 0 0.01 0.02 0 0.015 0.02 0 0.02 0.02 0 0.025 0.02 0 0.03 0.02 0 0.035 0.02 0 0.04 0.02 0 0.045 0.02 0 0.05 0.02 0 0.055 0.02 0 0.06 0.02 0 0.065 0.02 0 0.07 0.02 0 0.075 0.02 0 0.08 0.02 0 0.085 0.02 0 0.09 0.02 0 0.095 0.02 0 0.1 0.02 0 0.105 0.02 0 0.11 0.02 0 0.115 0.02 0 0.12 0.02 0 0.125 0.02 0 0.13 0.02 0 0.135 0.02 0 0.14 0.02 0 0.145 0.02 0 0.15 0.02 0 0.155 0.02 0 0.16 0.02 0 0.165 0.02 0 0.17 0.02 0 0.175 0.02 0 0.18 0.02 0 0.185 0.02 0 0.19 0.02 0 0.195 0.02 0 0.2 0.02 0 0.205 0.02 0 0.21 0.02 0 0.215 0.02 0 0.22 0.02 0 0.225 0.02 0 0.23 0.02 0 0.235 0.02 0 0.24 0.02 0 0.245 0.02 0 0.25 0.02 0 0.255 0.02 0 0.26 0.02 0 0.265 0.02 0 0.27 0.02 0 0.275 0.02 0 0.28 0.02 0 0.285 0.02 0 0.29 0.02 0 0.295 0.02 0 0.3 0.02 0 0.305 0.02 0 0.31 0.02 0 0.315 0.02 0 0.32 0.02 0 0.325 0.02 0 0.33 0.02 0 0.335 0.02 0 0.34 0.02 0 0.345 0.02 0 0.35 0.02 0 0.355 0.02 0 0.36 0.02 0 0.365 0.02 0 0.37 0.02 0 0.375 0.02 0 0.38 0.02 0 0.385 0.02 0 0.39 0.02 0 0.395002 0.02 0 0.400007 0.02 0 0.405027 0.02 0 0.410084 0.02 0 0.41522 0.02 0 0.420495 0.02 0 0.425972 0.02 0 0.431709 0.02 0 0.43776 0.02 0 0.444179 0.02 0 0.451025 0.02 0 0.458373 0.02 0 0.46631 0.02 0 0.474947 0.02 0 0.48442 0.02 0 0.494882 0.02 0 0.506427 0.02 0 0.518757 0.02 0 0.53098 0.02 0 0.542953 0.02 0 0.554772 0.02 0 0.566566 0.02 0 0.569188 0.02 0 0.571736 0.02 0 0.574236 0.02 0 0.576706 0.02 0 0.579153 0.02 0 0.581583 0.02 0 0.584001 0.02 0 0.58641 0.02 0 0.588812 0.02 0 0.591209 0.02 0 0.593602 0.02 0 0.595993 0.02 0 0.59838 0.02 0 0.600767 0.02 0 0.603153 0.02 0 0.605544 0.02 0 0.607941 0.02 0 0.610357 0.02 0 0.612793 0.02 0 0.61528 0.02 0 0.617813 0.02 0 0.620451 0.02 0 0.623191 0.02 0 0.626136 0.02 0 0.629313 0.02 0 0.632815 0.02 0 0.636667 0.02 0 0.64088 0.02 0 0.645407 0.02 0 0.650166 0.02 0 0.655061 0.02 0 0.660021 0.02 0 0.665007 0.02 0 0.670002 0.02 0 0.675001 0.02 0 0.68 0.02 0 0.685 0.02 0 0.69 0.02 0 0.695 0.02 0 0.7 0.02 0 0.705 0.02 0 0.71 0.02 0 0.715 0.02 0 0.72 0.02 0 0.725 0.02 0 0.73 0.02 0 0.735 0.02 0 0.74 0.02 0 0.745 0.02 0 0.75 0.02 0 0.755 0.02 0 0.76 0.02 0 0.765 0.02 0 0.77 0.02 0 0.775 0.02 0 0.78 0.02 0 0.785 0.02 0 0.79 0.02 0 0.795 0.02 0 0.8 0.02 0 0.805 0.02 0 0.81 0.02 0 0.815 0.02 0 0.82 0.02 0 0.825 0.02 0 0.83 0.02 0 0.835 0.02 0 0.84 0.02 0 0.845 0.02 0 0.85 0.02 0 0.855 0.02 0 0.86 0.02 0 0.865 0.02 0 0.87 0.02 0 0.875 0.02 0 0.88 0.02 0 0.885 0.02 0 0.89 0.02 0 0.895 0.02 0 0.9 0.02 0 0.905 0.02 0 0.91 0.02 0 0.915 0.02 0 0.92 0.02 0 0.925 0.02 0 0.93 0.02 0 0.935 0.02 0 0.94 0.02 0 0.945 0.02 0 0.95 0.02 0 0.955 0.02 0 0.96 0.02 0 0.965 0.02 0 0.97 0.02 0 0.975 0.02 0 0.98 0.02 0 0.985 0.02 0 0.99 0.02 0 0.995 0.02 0 1 0.02 0 0 0.04 0 0.005 0.04 0 0.01 0.04 0 0.015 0.04 0 0.02 0.04 0 0.025 0.04 0 0.03 0.04 0 0.035 0.04 0 0.04 0.04 0 0.045 0.04 0 0.05 0.04 0 0.055 0.04 0 0.06 0.04 0 0.065 0.04 0 0.07 0.04 0 0.075 0.04 0 0.08 0.04 0 0.085 0.04 0 0.09 0.04 0 0.095 0.04 0 0.1 0.04 0 0.105 0.04 0 0.11 0.04 0 0.115 0.04 0 0.12 0.04 0 0.125 0.04 0 0.13 0.04 0 0.135 0.04 0 0.14 0.04 0 0.145 0.04 0 0.15 0.04 0 0.155 0.04 0 0.16 0.04 0 0.165 0.04 0 0.17 0.04 0 0.175 0.04 0 0.18 0.04 0 0.185 0.04 0 0.19 0.04 0 0.195 0.04 0 0.2 0.04 0 0.205 0.04 0 0.21 0.04 0 0.215 0.04 0 0.22 0.04 0 0.225 0.04 0 0.23 0.04 0 0.235 0.04 0 0.24 0.04 0 0.245 0.04 0 0.25 0.04 0 0.255 0.04 0 0.26 0.04 0 0.265 0.04 0 0.27 0.04 0 0.275 0.04 0 0.28 0.04 0 0.285 0.04 0 0.29 0.04 0 0.295 0.04 0 0.3 0.04 0 0.305 0.04 0 0.31 0.04 0 0.315 0.04 0 0.32 0.04 0 0.325 0.04 0 0.33 0.04 0 0.335 0.04 0 0.34 0.04 0 0.345 0.04 0 0.35 0.04 0 0.355 0.04 0 0.36 0.04 0 0.365 0.04 0 0.37 0.04 0 0.375 0.04 0 0.38 0.04 0 0.385 0.04 0 0.39 0.04 0 0.395002 0.04 0 0.400007 0.04 0 0.405027 0.04 0 0.410084 0.04 0 0.41522 0.04 0 0.420495 0.04 0 0.425972 0.04 0 0.431709 0.04 0 0.43776 0.04 0 0.444179 0.04 0 0.451025 0.04 0 0.458373 0.04 0 0.46631 0.04 0 0.474947 0.04 0 0.48442 0.04 0 0.494882 0.04 0 0.506427 0.04 0 0.518757 0.04 0 0.53098 0.04 0 0.542953 0.04 0 0.554772 0.04 0 0.566566 0.04 0 0.569188 0.04 0 0.571736 0.04 0 0.574236 0.04 0 0.576706 0.04 0 0.579153 0.04 0 0.581583 0.04 0 0.584001 0.04 0 0.58641 0.04 0 0.588812 0.04 0 0.591209 0.04 0 0.593602 0.04 0 0.595993 0.04 0 0.59838 0.04 0 0.600767 0.04 0 0.603153 0.04 0 0.605544 0.04 0 0.607941 0.04 0 0.610357 0.04 0 0.612793 0.04 0 0.61528 0.04 0 0.617813 0.04 0 0.620451 0.04 0 0.623191 0.04 0 0.626136 0.04 0 0.629313 0.04 0 0.632815 0.04 0 0.636667 0.04 0 0.64088 0.04 0 0.645407 0.04 0 0.650166 0.04 0 0.655061 0.04 0 0.660021 0.04 0 0.665007 0.04 0 0.670002 0.04 0 0.675001 0.04 0 0.68 0.04 0 0.685 0.04 0 0.69 0.04 0 0.695 0.04 0 0.7 0.04 0 0.705 0.04 0 0.71 0.04 0 0.715 0.04 0 0.72 0.04 0 0.725 0.04 0 0.73 0.04 0 0.735 0.04 0 0.74 0.04 0 0.745 0.04 0 0.75 0.04 0 0.755 0.04 0 0.76 0.04 0 0.765 0.04 0 0.77 0.04 0 0.775 0.04 0 0.78 0.04 0 0.785 0.04 0 0.79 0.04 0 0.795 0.04 0 0.8 0.04 0 0.805 0.04 0 0.81 0.04 0 0.815 0.04 0 0.82 0.04 0 0.825 0.04 0 0.83 0.04 0 0.835 0.04 0 0.84 0.04 0 0.845 0.04 0 0.85 0.04 0 0.855 0.04 0 0.86 0.04 0 0.865 0.04 0 0.87 0.04 0 0.875 0.04 0 0.88 0.04 0 0.885 0.04 0 0.89 0.04 0 0.895 0.04 0 0.9 0.04 0 0.905 0.04 0 0.91 0.04 0 0.915 0.04 0 0.92 0.04 0 0.925 0.04 0 0.93 0.04 0 0.935 0.04 0 0.94 0.04 0 0.945 0.04 0 0.95 0.04 0 0.955 0.04 0 0.96 0.04 0 0.965 0.04 0 0.97 0.04 0 0.975 0.04 0 0.98 0.04 0 0.985 0.04 0 0.99 0.04 0 0.995 0.04 0 1 0.04 0 0 0.06 0 0.005 0.06 0 0.01 0.06 0 0.015 0.06 0 0.02 0.06 0 0.025 0.06 0 0.03 0.06 0 0.035 0.06 0 0.04 0.06 0 0.045 0.06 0 0.05 0.06 0 0.055 0.06 0 0.06 0.06 0 0.065 0.06 0 0.07 0.06 0 0.075 0.06 0 0.08 0.06 0 0.085 0.06 0 0.09 0.06 0 0.095 0.06 0 0.1 0.06 0 0.105 0.06 0 0.11 0.06 0 0.115 0.06 0 0.12 0.06 0 0.125 0.06 0 0.13 0.06 0 0.135 0.06 0 0.14 0.06 0 0.145 0.06 0 0.15 0.06 0 0.155 0.06 0 0.16 0.06 0 0.165 0.06 0 0.17 0.06 0 0.175 0.06 0 0.18 0.06 0 0.185 0.06 0 0.19 0.06 0 0.195 0.06 0 0.2 0.06 0 0.205 0.06 0 0.21 0.06 0 0.215 0.06 0 0.22 0.06 0 0.225 0.06 0 0.23 0.06 0 0.235 0.06 0 0.24 0.06 0 0.245 0.06 0 0.25 0.06 0 0.255 0.06 0 0.26 0.06 0 0.265 0.06 0 0.27 0.06 0 0.275 0.06 0 0.28 0.06 0 0.285 0.06 0 0.29 0.06 0 0.295 0.06 0 0.3 0.06 0 0.305 0.06 0 0.31 0.06 0 0.315 0.06 0 0.32 0.06 0 0.325 0.06 0 0.33 0.06 0 0.335 0.06 0 0.34 0.06 0 0.345 0.06 0 0.35 0.06 0 0.355 0.06 0 0.36 0.06 0 0.365 0.06 0 0.37 0.06 0 0.375 0.06 0 0.38 0.06 0 0.385 0.06 0 0.39 0.06 0 0.395002 0.06 0 0.400007 0.06 0 0.405027 0.06 0 0.410084 0.06 0 0.41522 0.06 0 0.420495 0.06 0 0.425972 0.06 0 0.431709 0.06 0 0.43776 0.06 0 0.444179 0.06 0 0.451025 0.06 0 0.458373 0.06 0 0.46631 0.06 0 0.474947 0.06 0 0.48442 0.06 0 0.494882 0.06 0 0.506427 0.06 0 0.518757 0.06 0 0.53098 0.06 0 0.542953 0.06 0 0.554772 0.06 0 0.566566 0.06 0 0.569188 0.06 0 0.571736 0.06 0 0.574236 0.06 0 0.576706 0.06 0 0.579153 0.06 0 0.581583 0.06 0 0.584001 0.06 0 0.58641 0.06 0 0.588812 0.06 0 0.591209 0.06 0 0.593602 0.06 0 0.595993 0.06 0 0.59838 0.06 0 0.600767 0.06 0 0.603153 0.06 0 0.605544 0.06 0 0.607941 0.06 0 0.610357 0.06 0 0.612793 0.06 0 0.61528 0.06 0 0.617813 0.06 0 0.620451 0.06 0 0.623191 0.06 0 0.626136 0.06 0 0.629313 0.06 0 0.632815 0.06 0 0.636667 0.06 0 0.64088 0.06 0 0.645407 0.06 0 0.650166 0.06 0 0.655061 0.06 0 0.660021 0.06 0 0.665007 0.06 0 0.670002 0.06 0 0.675001 0.06 0 0.68 0.06 0 0.685 0.06 0 0.69 0.06 0 0.695 0.06 0 0.7 0.06 0 0.705 0.06 0 0.71 0.06 0 0.715 0.06 0 0.72 0.06 0 0.725 0.06 0 0.73 0.06 0 0.735 0.06 0 0.74 0.06 0 0.745 0.06 0 0.75 0.06 0 0.755 0.06 0 0.76 0.06 0 0.765 0.06 0 0.77 0.06 0 0.775 0.06 0 0.78 0.06 0 0.785 0.06 0 0.79 0.06 0 0.795 0.06 0 0.8 0.06 0 0.805 0.06 0 0.81 0.06 0 0.815 0.06 0 0.82 0.06 0 0.825 0.06 0 0.83 0.06 0 0.835 0.06 0 0.84 0.06 0 0.845 0.06 0 0.85 0.06 0 0.855 0.06 0 0.86 0
[...]
			<PointData Scalars="VitesseX">
				<DataArray Name="VitesseX" type="Float32" format="ascii">
 0 -9.547e-16 -2.76095e-16 -5.41709e-15 -2.00156e-15 -4.92143e-15 -5.50071e-15 -6.44531e-15 -1.67336e-15 -5.73508e-15 -1.5651e-14 -3.61879e-15 -6.86541e-15 -5.88503e-15 -1.60013e-14 -1.51835e-14 -4.6782e-15 -6.74356e-15 -9.44436e-15 -1.99802e-14 -5.09431e-15 -2.65023e-15 -1.00878e-14 -1.30863e-14 1.03451e-15 -1.46616e-14 -2.33245e-14 -2.11452e-14 -2.07623e-14 5.30077e-15 -3.38528e-14 -1.77353e-14 -5.53412e-15 -2.66906e-14 -2.68451e-14 -2.23532e-14 8.8775e-15 -1.85284e-14 -1.90783e-14 2.09826e-14 -3.59761e-16 -1.58622e-14 1.38235e-15 -1.79831e-14 7.39762e-15 -2.2011e-14 1.65941e-14 -8.39319e-15 1.64526e-14 -2.83426e-14 2.80739e-14 -2.63799e-14 -9.98175e-15 -3.67983e-14 2.72815e-14 -6.16023e-14 -4.49903e-14 -4.55424e-14 -4.8537e-14 -2.31154e-14 -1.50412e-14 -3.43479e-14 -3.58321e-14 -1.22098e-14 4.42584e-14 -4.47853e-15 -2.69522e-14 -3.79201e-14 1.04048e-13 9.96679e-13 1.15378e-11 1.24571e-10 1.23198e-09 1.11207e-08 9.11291e-08 6.73784e-07 4.46281e-06 2.62526e-05 0.000135714 0.000608539 0.00232981 0.0074868 0.0199198 0.0437953 0.0808725 0.129542 0.186864 0.250705 0.320168 0.395159 0.475987 0.563128 0.656974 0.757178 0.860321 0.950814 0.974792 0.949471 0.934672 0.929598 0.929454 0.929152 0.928804 0.928435 0.928109 0.927779 0.927534 0.927209 0.927033 0.926578 0.92646 0.925648 0.925621 0.923951 0.924035 0.920035 0.920409 0.90974 0.911006 0.883965 0.887728 0.829878 0.834792 0.733593 0.696091 0.568466 0.460839 0.328017 0.20916 0.11368 0.0522659 0.0207789 0.00751098 0.00257177 0.000851664 0.00027495 8.67444e-05 2.67561e-05 8.06693e-06 2.37643e-06 6.83723e-07 1.92033e-07 5.26293e-08 1.4069e-08 3.66709e-09 9.31654e-10 2.3064e-10 5.55681e-11 1.30875e-11 2.96216e-12 6.37771e-13 5.23531e-14 -9.29954e-14 -7.3531e-14 -8.38143e-14 -1.70816e-15 -9.33778e-14 6.93984e-14 -4.02007e-14 -6.28076e-14 -5.2143e-14 6.97818e-14 -1.75299e-14 -1.03008e-13 -6.84504e-14 -9.23562e-14 -4.52539e-14 4.83758e-14 2.8674e-14 -2.55935e-14 3.98385e-14 -4.20811e-14 4.62027e-14 3.78853e-14 5.02791e-14 -7.29144e-14 5.68961e-14 -2.24588e-14 -6.23513e-14 1.99735e-14 -1.35214e-14 -4.38664e-14 -4.19734e-14 9.11301e-14 -1.94296e-14 4.81571e-14 6.01094e-14 -2.19038e-14 -6.57888e-14 5.29338e-14 1.37054e-13 4.91754e-14 9.28822e-14 9.3696e-14 6.98762e-14 6.74419e-14 3.23513e-14 -1.78288e-14 -7.81264e-14 -2.70938e-15 0 0 -1.08713e-15 -2.76414e-15 -4.27825e-15 -5.35643e-15 -4.28402e-15 -9.67529e-15 -4.19367e-15 -5.47794e-15 -8.81015e-15 -3.26766e-15 -9.35166e-15 -6.31069e-15 -1.3008e-14 -9.80135e-15 -1.30435e-14 -7.69296e-15 -1.48006e-14 -2.84368e-15 -1.05859e-14 -1.08911e-14 -1.72329e-14 -1.25344e-14 -6.11801e-15 -6.90049e-15 -3.74833e-15 -2.4036e-14 -1.88448e-14 -1.96545e-14 -2.60564e-14 -2.09468e-15 -2.22949e-14 -3.01965e-14 -2.18156e-14 -9.10519e-15 -4.21105e-15 -2.26977e-14 -1.82281e-14 1.04461e-14 2.14506e-14 -3.86255e-15 -7.46819e-15 -1.15447e-14 -1.56487e-14 -6.92602e-15 1.24651e-14 -1.03278e-14 8.58635e-15 -5.95872e-15 8.43507e-15 -2.53467e-14 -1.44949e-14 -2.79676e-15 -2.76152e-14 -3.84072e-14 -4.27806e-14 -1.6153e-14 -4.91585e-14 -2.67514e-14 -4.92278e-14 -1.26371e-14 -5.93525e-14 1.06326e-14 4.20636e-15 -3.0842e-15 7.57665e-15 -5.08545e-14 2.34322e-14 7.76173e-14 1.03353e-12 1.15503e-11 1.24558e-10 1.23202e-09 1.11207e-08 9.1129e-08 6.73784e-07 4.46281e-06 2.62526e-05 0.000135714 0.000608539 0.00232981 0.0074868 0.0199198 0.0437953 0.0808725 0.129542 0.186864 0.250705 0.320168 0.395159 0.475987 0.563128 0.656974 0.757178 0.860321 0.950814 0.974792 0.949471 0.934672 0.929598 0.929454 0.929152 0.928804 0.928435 0.928109 0.927779 0.927534 0.927209 0.927033 0.926578 0.92646 0.925648 0.925621 0.923951 0.924035 0.920035 0.920409 0.90974 0.911006 0.883965 0.887728 0.829878 0.834792 0.733593 0.696091 0.568466 0.460839 0.328017 0.20916 0.11368 0.0522659 0.0207789 0.00751098 0.00257177 0.000851664 0.00027495 8.67444e-05 2.67561e-05 8.06693e-06 2.37643e-06 6.83723e-07 1.92033e-07 5.26293e-08 1.40689e-08 3.66704e-09 9.31678e-10 2.30644e-10 5.55636e-11 1.30201e-11 2.95873e-12 6.33352e-13 -2.05753e-14 2.62373e-14 -9.74001e-14 -7.27864e-14 -4.106e-14 6.48396e-14 -3.5812e-14 -6.53683e-14 -6.39974e-14 3.0997e-14 4.37314e-14 -6.72195e-14 -7.35695e-14 -6.48357e-14 -1.16922e-13 7.30252e-15 2.77569e-14 6.8669e-14 -9.77732e-14 2.30532e-14 -5.66478e-14 9.63249e-14 -3.59255e-14 2.65781e-14 2.42137e-14 -2.31008e-14 -7.25018e-14 3.23469e-14 5.93408e-14 -7.77022e-14 -6.55084e-14 1.92726e-14 8.01438e-14 5.23515e-14 3.02987e-14 -1.02994e-13 -4.85414e-15 1.09836e-13 3.90336e-14 1.99147e-14 6.82876e-14 6.18734e-14 1.33853e-13 5.21136e-14 8.73041e-14 -3.13452e-14 1.93115e-15 -4.21617e-14 -2.01244e-14 0 0 -1.94583e-15 -3.69158e-15 -6.94812e-15 -9.18131e-15 -7.98967e-15 -1.05512e-14 -7.02275e-15 -1.18043e-14 -4.42179e-15 1.60075e-15 -7.20448e-15 -1.22698e-14 -8.86458e-15 -1.14337e-14 -1.4364e-14 -7.66482e-15 -6.90866e-15 -1.104e-14 -6.59684e-15 -2.02435e-14 -1.56827e-14 -1.31663e-14 -1.8035e-14 -2.13348e-14 8.2502e-16 -2.22033e-14 -2.00946e-14 -1.84322e-14 -3.07011e-14 -1.03179e-14 -1.62179e-14 -2.9482e-14 -5.90078e-15 2.04677e-14 -2.76148e-14 -1.08266e-14 -1.74991e-14 1.3638e-14 -1.83744e-14 5.74456e-15 1.10664e-14 -9.79333e-15 -4.43549e-15 -1.36772e-14 1.30488e-15 -6.17421e-15 6.52641e-15 -2.63614e-14 1.3326e-14 -2.66375e-14 -4.58948e-14 -3.87029e-14 -1.92071e-14 -4.31042e-14 -4.75145e-14 -9.41091e-15 -7.59787e-15 -2.28786e-14 -6.5819e-14 -2.93249e-14 -4.72332e-14 4.32787e-14 5.73954e-15 7.80015e-15 -4.49079e-14 -6.98463e-15 -3.03259e-14 1.38669e-13 1.0881e-12 1.15737e-11 1.24651e-10 1.23196e-09 1.11208e-08 9.1129e-08 6.73784e-07 4.46281e-06 2.62526e-05 0.000135714 0.000608539 0.00232981 0.0074868 0.0199198 0.0437953 0.0808725 0.129542 0.186864 0.250705 0.320168 0.395159 0.475987 0.563128 0.656974 0.757178 0.860321 0.950814 0.974792 0.949471 0.934672 0.929598 0.929454 0.929152 0.928804 0.928435 0.928109 0.927779 0.927534 0.927209 0.927033 0.926578 0.92646 0.925648 0.925621 0.923951 0.924035 0.920035 0.920409 0.90974 0.911006 0.883965 0.887728 0.829878 0.834792 0.733593 0.696091 0.568466 0.460839 0.328017 0.20916 0.11368 0.0522659 0.0207789 0.00751098 0.00257177 0.000851664 0.00027495 8.67444e-05 2.67561e-05 8.06693e-06 2.37643e-06 6.83723e-07 1.92033e-07 5.26293e-08 1.40689e-08 3.66695e-09 9.31707e-10 2.30546e-10 5.56003e-11 1.29987e-11 2.90301e-12 5.4273e-13 4.76822e-14 6.11894e-14 -7.04862e-14 -8.5408e-14 -2.48011e-14 -3.24963e-15 3.17983e-14 -9.43885e-14 -1.04703e-13 -4.52504e-15 1.03781e-14 -1.24442e-13 1.2661e-13 -7.99335e-14 -8.48831e-14 3.42941e-14 2.50084e-14 -3.90539e-14 -7.60602e-14 -2.14109e-14 -1.06998e-13 1.23327e-13 -7.83284e-14 4.46044e-14 -9.81664e-15 1.66968e-14 5.85423e-14 1.15178e-14 8.28358e-15 -3.55087e-14 -3.12128e-14 -4.97567e-14 1.38864e-13 -3.25948e-14 7.00193e-14 -9.77704e-14 -4.3862e-14 1.23325e-13 6.4769e-14 -2.50304e-14 4.49188e-14 6.91415e-15 8.67752e-14 8.73384e-14 6.14061e-14 4.6198e-14 -3.71627e-14 -5.31255e-14 7.24325e-14 0 0 -2.00069e-15 -3.3994e-15 -8.78057e-15 -1.18845e-14 -1.0667e-14 -1.17991e-14 -1.2523e-14 -1.3327e-14 3.20194e-15 5.80685e-17 -4.03737e-15 -1.13738e-14 -1.44526e-14 -2.00799e-14 -8.65733e-15 -2.96516e-17 -1.42536e-14 -1.33251e-14 -1.1438e-14 -1.23983e-14 -1.32033e-14 -3.46713e-14 -1.69299e-14 -2.28025e-14 -2.32381e-14 -2.24415e-14 -9.76454e-15 -2.90502e-14 -4.60487e-15 -1.23606e-14 2.80498e-18 -7.46934e-15 -1.20499e-15 -2.44027e-15 -9.0993e-15 9.82484e-15 -2.25131e-14 -2.88132e-14 -3.09123e-14 -2.41853e-15 2.0593e-14 1.30198e-15 -2.52904e-14 -3.86596e-15 -3.15894e-14 1.84607e-14 -2.66341e-14 -1.23546e-14 -3.51131e-14 -5.6592e-15 -6.06539e-14 -5.45932e-14 -4.48787e-14 -1.85117e-15 -3.75524e-14 -4.21714e-14 9.07188e-15 -4.7265e-14 -6.1353e-14 -1.93995e-14 1.61916e-14 1.70595e-14 1.1386e-14 6.55636e-14 -7.00472e-14 -4.48348e-14 -1.60133e-14 1.58472e-13 1.12714e-12 1.16162e-11 1.24717e-10 1.23195e-09 1.11208e-08 9.1129e-08 6.73784e-07 4.46281e-06 2.62526e-05 0.000135714 0.000608539 0.00232981 0.0074868 0.0199198 0.0437953 0.0808725 0.129542 0.186864 0.250705 0.320168 0.395159 0.475987 0.563128 0.656974 0.757178 0.860321 0.950814 0.974792 0.949471 0.934672 0.929598 0.929454 0.929152 0.928804 0.928435 0.928109 0.927779 0.927534 0.927209 0.927033 0.926578 0.92646 0.925648 0.925621 0.923951 0.924035 0.920035 0.920409 0.90974 0.911006 0.883965 0.887728 0.829878 0.834792 0.733593 0.696091 0.568466 0.460839 0.328017 0.20916 0.11368 0.0522659 0.0207789 0.00751098 0.00257177 0.000851664 0.00027495 8.67444e-05 2.67561e-05 8.06693e-06 2.37643e-06 6.83723e-07 1.92033e-07 5.26292e-08 1.4069e-08 3.6669e-09 9.31659e-10 2.30471e-10 5.5544e-11 1.30441e-11 2.96092e-12 4.42287e-13 9.98242e-14 -8.35551e-14 -4.5258e-14 4.31939e-14 -5.25307e-14 -1.67826e-13 2.96927e-14 -4.96532e-14 -1.25144e-14 -1.99479e-13 -2.89075e-14 5.94362e-14 1.21408e-13 9.11595e-14 2.09884e-15 -1.47325e-13 4.69508e-14 -1.00407e-13 -6.47794e-15 1.12535e-14 -1.39674e-13 -7.13652e-14 4.90288e-14 3.74567e-15 -1.5515e-14 1.12977e-13 6.08579e-14 1.17141e-14 -1.04003e-13 2.87407e-14 3.31952e-14 2.2769e-14 1.50493e-13 -1.68683e-13 4.83784e-14 -5.80401e-14 -2.90397e-14 9.75504e-14 7.79349e-14 7.22189e-14 -8.56324e-14 2.47218e-14 1.10311e-13 -1.50654e-14 1.1586e-13 1.0814e-13 -7.12001e-14 -4.60532e-14 7.03349e-14 0 0 -3.39419e-15 -3.78049e-15 -7.56498e-15 -9.26699e-15 -1.01965e-14 -1.26327e-14 -9.40247e-15 -2.62566e-15 3.97992e-15 -1.788e-15 -7.19338e-15 -9.94536e-15 -2.15156e-14 -1.13131e-14 -2.58274e-15 1.38368e-15 -1.67735e-14 -1.70899e-14 -9.57543e-15 -2.92957e-15 -3.28139e-14 -4.45089e-14 -3.27467e-14 -1.39915e-14 -3.85031e-14 -1.94204e-14 -2.01452e-14 -1.20469e-14 -3.39879e-15 5.78051e-15 1.39027e-14 -1.48567e-15 4.69602e-15 -1.25862e-14 1.41915e-14 -1.91063e-14 -4.2688e-15 -3.007e-14 1.11792e-14 -1.2881e-14 -3.74188e-14 -3.3981e-14 -1.62362e-14 6.13438e-15 -2.68401e-14 7.04974e-15 -4.58754e-14 -4.14107e-14 -2.43449e-14 -8.4218e-14 -2.70043e-14 -5.37798e-14 -3.00734e-14 2.02444e-15 -1.27696e-14 -1.80791e-14 -7.84932e-14 -6.75599e-14 1.06998e-16 2.87879e-14 5.81317e-14 -2.13516e-15 -1.25008e-14 1.09257e-14 -1.32806e-14 -7.4819e-14 7.74268e-14 1.28168e-13 1.11219e-12 1.16208e-11 1.24715e-10 1.23203e-09 1.11207e-08 9.1129e-08 6.73784e-07 4.46281e-06 2.62526e-05 0.000135714 0.000608539 0.00232981 0.0074868 0.0199198 0.0437953 0.0808725 0.129542 0.186864 0.250705 0.320168 0.395159 0.475987 0.563128 0.656974 0.757178 0.860321 0.950814 0.974792 0.949471 0.934672 0.929598 0.929454 0.929152 0.928804 0.928435 0.928109 0.927779 0.927534 0.927209 0.927033 0.926578 0.92646 0.925648 0.925621 0.923951 0.924035 0.920035 0.920409 0.90974 0.911006 0.883965 0.887728 0.829878 0.834792 0.733593 0.696091 0.568466 0.460839 0.328017 0.20916 0.11368 0.0522659 0.0207789 0.00751098 0.00257177 0.000851664 0.00027495 8.67444e-05 2.67561e-05 8.06693e-06 2.37643e-06 6.83723e-07 1.92033e-07 5.26292e-08 1.40689e-08 3.66687e-09 9.31517e-10 2.30512e-10 5.54468e-11 1.30056e-11 2.92395e-12 4.66292e-13 9.93921e-14 -4.30413e-14 -1.32908e-13 3.88128e-14 -5.12258e-14 2.58475e-14 -1.73872e-13 -1.38256e-15 -1.00577e-13 -5.18978e-14 -2.52286e-13 3.76586e-14 -4.03935e-15 2.64694e-13 1.18334e-13 -2.18613e-13 -1.11763e-13 1.25068e-14 -1.11101e-14 3.93136e-14 -5.20579e-14 -8.24379e-14 5.64135e-14 -5.92829e-14 6.88195e-14 4.49395e-15 2.8519e-14 -2.13705e-14 1.75252e-14 -1.02047e-13 1.70294e-13 6.35791e-14 2.90502e-14 8.34486e-14 1.09019e-14 -6.84226e-14 1.33653e-13 1.04515e-13 -7.73842e-14 3.73935e-14 7.57312e-14 9.7061e-14 1.53571e-13 -9.49917e-14 5.79778e-14 6.6328e-14 8.74221e-14 -5.38117e-14 -3.8873e-14 0 0 -5.4591e-15 -2.89316e-15 -8.32565e-15 -4.41635e-15 -1.13917e-14 -8.91968e-15 -5.86248e-15 7.07661e-15 4.59758e-15 -9.60632e-15 -5.63645e-15 -1.59266e-14 -1.17243e-14 -1.7323e-15 -5.67524e-15 -1.79524e-15 4.00068e-15 -3.33667e-14 -8.27685e-15 -4.86169e-15 -3.8771e-14 -3.1027e-14 -6.85539e-14 -1.02119e-14 -3.60449e-14 -1.36171e-14 -4.44061e-14 1.5689e-14 -1.57646e-15 -1.4017e-14 2.22186e-14 7.86221e-15 1.69409e-14 1.20088e-14 -2.25791e-14 -2.52427e-14 1.94182e-14 -1.5208e-14 2.55155e-14 -2.07057e-15 -9.48164e-14 -6.5681e-14 2.25519e-14 1.3896e-14 -3.48329e-14 2.07932e-15 -5.09957e-14 -8.2465e-14 2.97575e-15 -1.31625e-13 -2.18804e-14 -8.01673e-14 9.62852e-15 2.56387e-14 -2.15047e-14 1.66785e-14 -1.37551e-13 -8.13811e-14 6.66221e-14 4.79579e-14 7.37708e-14 -8.92944e-15 -5.69171e-14 -4.32486e-14 4.0855e-15 8.1905e-16 4.14439e-14 1.65542e-13 1.07591e-12 1.15939e-11 1.24751e-10 1.23204e-09 1.11208e-08 9.1129e-08 6.73784e-07 4.46281e-06 2.62526e-05 0.000135714 0.000608539 0.00232981 0.0074868 0.0199198 0.0437953 0.0808725 0.129542 0.186864 0.250705 0.320168 0.395159 0.475987 0.563128 0.656974 0.757178 0.860321 0.950814 0.974792 0.949471 0.934672 0.929598 0.929454 0.929152 0.928804 0.928435 0.928109 0.927779 0.927534 0.927209 0.927033 0.926578 0.92646 0.925648 0.925621 0.923951 0.924035 0.920035 0.920409 0.90974 0.911006 0.883965 0.887728 0.829878 0.834792 0.733593 0.696091 0.568466 0.460839 0.328017 0.20916 0.11368 0.0522659 0.0207789 0.00751098 0.00257177 0.000851664 0.00027495 8.67444e-05 2.67561e-05 8.06693e-06 2.37643e-06 6.83723e-07 1.92033e-07 5.26293e-08 1.40688e-08 3.66687e-09 9.31427e-10 2.30525e-10 5.5447e-11 1.29673e-11 2.77644e-12 5.04421e-13 1.87986e-13 5.78336e-14 -1.94953e-13 -1.17684e-13 3.37592e-14 1.58257e-13 -2.02367e-13 -2.0376e-15 -3.20798e-13 1.71775e-13 -4.43719e-13 -1.75461e-13 4.61826e-14 2.48218e-13 2.04345e-13 -1.34047e-13 -2.74821e-13 3.90952e-14 8.41251e-15 6.47949e-15 3.20323e-14 7.8029e-14 -3.2114e-14 -3.97128e-14 2.76421e-14 -8.04672e-14 1.75231e-13 -1.69912e-13 1.6117e-13 -1.90665e-13 2.9875e-13 -9.86365e-14 -3.4433e-14 3.15214e-13 5.29374e-14 5.02029e-14 2.2579e-13 -2.50483e-14 -2.06461e-13 -2.2871e-14 3.2516e-13 1.27946e-13 8.61028e-14 -1.94108e-14 -1.00112e-13 1.03672e-13 2.20722e-13 -1.16145e-13 -3.63188e-14 0
				</DataArray>
				<DataArray Name="VitesseY" type="Float32" format="ascii">