<?xml version="1.0"?>
<VTKFile type="PolyData">
	<PolyData>
		<Piece NumberOfPoints="1206" NumberOfPolys="1000">
			<Points>
				<DataArray type="Float32" NumberOfComponents="3" format="ascii">
 0 0 0 0.005 0 0 0.01 0 0 0.015 0 0 0.02 0 0 0.025 0 0 0.03 0 0 0.035 0 0 0.04 0 0 0.045 0 0 0.05 0 0 0.055 0 0 0.06 0 0 0.065 0 0 0.07 0 0 0.075 0 0 0.08 0 0 0.085 0 0 0.09 0 0 0.095 0 0 0.1 0 0 0.105 0 0 0.11 0 0 0.115 0 0 0.12 0 0 0.125 0 0 0.13 0 0 0.135 0 0 0.14 0 0 0.145 0 0 0.15 0 0 0.155 0 0 0.16 0 0 0.165 0 0 0.17 0 0 0.175 0 0 0.18 0 0 0.185 0 0 0.19 0 0 0.195 0 0 0.2 0 0 0.205 0 0 0.21 0 0 0.215 0 0 0.22 0 0 0.225 0 0 0.23 0 0 0.235 0 0 0.24 0 0 0.245 0 0 0.25 0 0 0.255 0 0 0.26 0 0 0.265 0 0 0.27 0 0 0.275001 0 0 0.280002 0 0 0.285006 0 0 0.290017 0 0 0.295042 0 0 0.300093 0 0 0.305186 0 0 0.310341 0 0 0.315576 0 0 0.320906 0 0 0.326344 0 0 0.331902 0 0 0.337588 0 0 0.343412 0 0 0.349383 0 0 0.355509 0 0 0.361802 0 0 0.368273 0 0 0.374932 0 0 0.381794 0 0 0.388872 0 0 0.396183 0 0 0.403743 0 0 0.411573 0 0 0.419694 0 0 0.42813 0 0 0.436908 0 0 0.44606 0 0 0.455618 0 0 0.465619 0 0 0.476101 0 0 0.487095 0 0 0.498612 0 0 0.510584 0 0 0.522747 0 0 0.534823 0 0 0.546798 0 0 0.558678 0 0 0.57049 0 0 0.582262 0 0 0.594016 0 0 0.605761 0 0 0.617501 0 0 0.62924 0 0 0.64098 0 0 0.652734 0 0 0.655347 0 0 0.657884 0 0 0.660376 0 0 0.662836 0 0 0.665274 0 0 0.667696 0 0 0.670106 0 0 0.672506 0 0 0.674901 0 0 0.67729 0 0 0.679676 0 0 0.682058 0 0 0.684436 0 0 0.686811 0 0 0.689182 0 0 0.691551 0 0 0.693917 0 0 0.696281 0 0 0.698644 0 0 0.701006 0 0 0.703366 0 0 0.705725 0 0 0.708084 0 0 0.710442 0 0 0.7128 0 0 0.715157 0 0 0.717514 0 0 0.71987 0 0 0.722226 0 0 0.724582 0 0 0.726938 0 0 0.729294 0 0 0.731649 0 0 0.734005 0 0 0.73636 0 0 0.738716 0 0 0.741071 0 0 0.743426 0 0 0.745782 0 0 0.748137 0 0 0.750493 0 0 0.752849 0 0 0.755206 0 0 0.757563 0 0 0.759921 0 0 0.762281 0 0 0.764645 0 0 0.767013 0 0 0.769392 0 0 0.771783 0 0 0.774202 0 0 0.776649 0 0 0.779159 0 0 0.781726 0 0 0.784419 0 0 0.787243 0 0 0.790302 0 0 0.793627 0 0 0.797292 0 0 0.801311 0 0 0.80567 0 0 0.810304 0 0 0.815125 0 0 0.820048 0 0 0.825018 0 0 0.830006 0 0 0.835002 0 0 0.840001 0 0 0.845 0 0 0.85 0 0 0.855 0 0 0.86 0 0 0.865 0 0 0.87 0 0 0.875 0 0 0.88 0 0 0.885 0 0 0.89 0 0 0.895 0 0 0.9 0 0 0.905 0 0 0.91 0 0 0.915 0 0 0.92 0 0 0.925 0 0 0.93 0 0 0.935 0 0 0.94 0 0 0.945 0 0 0.95 0 0 0.955 0 0 0.96 0 0 0.965 0 0 0.97 0 0 0.975 0 0 0.98 0 0 0.985 0 0 0.99 0 0 0.995 0 0 1 0 0 0 0.02 0 0.005 0.02 0 0.01 0.02 0 0.015 0.02 0 0.02 0.02 0 0.025 0.02 0 0.03 0.02 0 0.035 0.02 0 0.04 0.02 0 0.045 0.02 0 0.05 0.02 0 0.055 0.02 0 0.06 0.02 0 0.065 0.02 0 0.07 0.02 0 0.075 0.02 0 0.08 0.02 0 0.085 0.02 0 0.09 0.02 0 0.095 0.02 0 0.1 0.02 0 0.105 0.02 0 0.11 0.02 0 0.115 0.02 0 0.12 0.02 0 0.125 0.02 0 0.13 0.02 0 0.135 0.02 0 0.14 0.02 0 0.145 0.02 0 0.15 0.02 0 0.155 0.02 0 0.16 0.02 0 0.165 0.02 0 0.17 0.02 0 0.175 0.02 0 0.18 0.02 0 0.185 0.02 0 0.19 0.02 0 0.195 0.02 0 0.2 0.02 0 0.205 0.02 0 0.21 0.02 0 0.215 0.02 0 0.22 0.02 0 0.225 0.02 0 0.23 0.02 0 0.235 0.02 0 0.24 0.02 0 0.245 0.02 0 0.25 0.02 0 0.255 0.02 0 0.26 0.02 0 0.265 0.02 0 0.27 0.02 0 0.275001 0.02 0 0.280002 0.02 0 0.285006 0.02 0 0.290017 0.02 0 0.295042 0.02 0 0.300093 0.02 0 0.305186 0.02 0 0.310341 0.02 0 0.315576 0.02 0 0.320906 0.02 0 0.326344 0.02 0 0.331902 0.02 0 0.337588 0.02 0 0.343412 0.02 0 0.349383 0.02 0 0.355509 0.02 0 0.361802 0.02 0 0.368273 0.02 0 0.374932 0.02 0 0.381794 0.02 0 0.388872 0.02 0 0.396183 0.02 0 0.403743 0.02 0 0.411573 0.02 0 0.419694 0.02 0 0.42813 0.02 0 0.436908 0.02 0 0.44606 0.02 0 0.455618 0.02 0 0.465619 0.02 0 0.476101 0.02 0 0.487095 0.02 0 0.498612 0.02 0 0.510584 0.02 0 0.522747 0.02 0 0.534823 0.02 0 0.546798 0.02 0 0.558678 0.02 0 0.57049 0.02 0 0.582262 0.02 0 0.594016 0.02 0 0.605761 0.02 0 0.617501 0.02 0 0.62924 0.02 0 0.64098 0.02 0 0.652734 0.02 0 0.655347 0.02 0 0.657884 0.02 0 0.660376 0.02 0 0.662836 0.02 0 0.665274 0.02 0 0.667696 0.02 0 0.670106 0.02 0 0.672506 0.02 0 0.674901 0.02 0 0.67729 0.02 0 0.679676 0.02 0 0.682058 0.02 0 0.684436 0.02 0 0.686811 0.02 0 0.689182 0.02 0 0.691551 0.02 0 0.693917 0.02 0 0.696281 0.02 0 0.698644 0.02 0 0.701006 0.02 0 0.703366 0.02 0 0.705725 0.02 0 0.708084 0.02 0 0.710442 0.02 0 0.7128 0.02 0 0.715157 0.02 0 0.717514 0.02 0 0.71987 0.02 0 0.722226 0.02 0 0.724582 0.02 0 0.726938 0.02 0 0.729294 0.02 0 0.731649 0.02 0 0.734005 0.02 0 0.73636 0.02 0 0.738716 0.02 0 0.741071 0.02 0 0.743426 0.02 0 0.745782 0.02 0 0.748137 0.02 0 0.750493 0.02 0 0.752849 0.02 0 0.755206 0.02 0 0.757563 0.02 0 0.759921 0.02 0 0.762281 0.02 0 0.764645 0.02 0 0.767013 0.02 0 0.769392 0.02 0 0.771783 0.02 0 0.774202 0.02 0 0.776649 0.02 0 0.779159 0.02 0 0.781726 0.02 0 0.784419 0.02 0 0.787243 0.02 0 0.790302 0.02 0 0.793627 0.02 0 0.797292 0.02 0 0.801311 0.02 0 0.80567 0.02 0 0.810304 0.02 0 0.815125 0.02 0 0.820048 0.02 0 0.825018 0.02 0 0.830006 0.02 0 0.835002 0.02 0 0.840001 0.02 0 0.845 0.02 0 0.85 0.02 0 0.855 0.02 0 0.86 0.02 0 0.865 0.02 0 0.87 0.02 0 0.875 0.02 0 0.88 0.02 0 0.885 0.02 0 0.89 0.02 0 0.895 0.02 0 0.9 0.02 0 0.905 0.02 0 0.91 0.02 0 0.915 0.02 0 0.92 0.02 0 0.925 0.02 0 0.93 0.02 0 0.935 0.02 0 0.94 0.02 0 0.945 0.02 0 0.95 0.02 0 0.955 0.02 0 0.96 0.02 0 0.965 0.02 0 0.97 0.02 0 0.975 0.02 0 0.98 0.02 0 0.985 0.02 0 0.99 0.02 0 0.995 0.02 0 1 0.02 0 0 0.04 0 0.005 0.04 0 0.01 0.04 0 0.015 0.04 0 0.02 0.04 0 0.025 0.04 0 0.03 0.04 0 0.035 0.04 0 0.04 0.04 0 0.045 0.04 0 0.05 0.04 0 0.055 0.04 0 0.06 0.04 0 0.065 0.04 0 0.07 0.04 0 0.075 0.04 0 0.08 0.04 0 0.085 0.04 0 0.09 0.04 0 0.095 0.04 0 0.1 0.04 0 0.105 0.04 0 0.11 0.04 0 0.115 0.04 0 0.12 0.04 0 0.125 0.04 0 0.13 0.04 0 0.135 0.04 0 0.14 0.04 0 0.145 0.04 0 0.15 0.04 0 0.155 0.04 0 0.16 0.04 0 0.165 0.04 0 0.17 0.04 0 0.175 0.04 0 0.18 0.04 0 0.185 0.04 0 0.19 0.04 0 0.195 0.04 0 0.2 0.04 0 0.205 0.04 0 0.21 0.04 0 0.215 0.04 0 0.22 0.04 0 0.225 0.04 0 0.23 0.04 0 0.235 0.04 0 0.24 0.04 0 0.245 0.04 0 0.25 0.04 0 0.255 0.04 0 0.26 0.04 0 0.265 0.04 0 0.27 0.04 0 0.275001 0.04 0 0.280002 0.04 0 0.285006 0.04 0 0.290017 0.04 0 0.295042 0.04 0 0.300093 0.04 0 0.305186 0.04 0 0.310341 0.04 0 0.315576 0.04 0 0.320906 0.04 0 0.326344 0.04 0 0.331902 0.04 0 0.337588 0.04 0 0.343412 0.04 0 0.349383 0.04 0 0.355509 0.04 0 0.361802 0.04 0 0.368273 0.04 0 0.374932 0.04 0 0.381794 0.04 0 0.388872 0.04 0 0.396183 0.04 0 0.403743 0.04 0 0.411573 0.04 0 0.419694 0.04 0 0.42813 0.04 0 0.436908 0.04 0 0.44606 0.04 0 0.455618 0.04 0 0.465619 0.04 0 0.476101 0.04 0 0.487095 0.04 0 0.498612 0.04 0 0.510584 0.04 0 0.522747 0.04 0 0.534823 0.04 0 0.546798 0.04 0 0.558678 0.04 0 0.57049 0.04 0 0.582262 0.04 0 0.594016 0.04 0 0.605761 0.04 0 0.617501 0.04 0 0.62924 0.04 0 0.64098 0.04 0 0.652734 0.04 0 0.655347 0.04 0 0.657884 0.04 0 0.660376 0.04 0 0.662836 0.04 0 0.665274 0.04 0 0.667696 0.04 0 0.670106 0.04 0 0.672506 0.04 0 0.674901 0.04 0 0.67729 0.04 0 0.679676 0.04 0 0.682058 0.04 0 0.684436 0.04 0 0.686811 0.04 0 0.689182 0.04 0 0.691551 0.04 0 0.693917 0.04 0 0.696281 0.04 0 0.698644 0.04 0 0.701006 0.04 0 0.703366 0.04 0 0.705725 0.04 0 0.708084 0.04 0 0.710442 0.04 0 0.7128 0.04 0 0.715157 0.04 0 0.717514 0.04 0 0.71987 0.04 0 0.722226 0.04 0 0.724582 0.04 0 0.726938 0.04 0 0.729294 0.04 0 0.731649 0.04 0 0.734005 0.04 0 0.73636 0.04 0 0.738716 0.04 0 0.741071 0.04 0 0.743426 0.04 0 0.745782 0.04 0 0.748137 0.04 0 0.750493 0.04 0 0.752849 0.04 0 0.755206 0.04 0 0.757563 0.04 0 0.759921 0.04 0 0.762281 0.04 0 0.764645 0.04 0 0.767013 0.04 0 0.769392 0.04 0 0.771783 0.04 0 0.774202 0.04 0 0.776649 0.04 0 0.779159 0.04 0 0.781726 0.04 0 0.784419 0.04 0 0.787243 0.04 0 0.790302 0.04 0 0.793627 0.04 0 0.797292 0.04 0 0.801311 0.04 0 0.80567 0.04 0 0.810304 0.04 0 0.815125 0.04 0 0.820048 0.04 0 0.825018 0.04 0 0.830006 0.04 0 0.835002 0.04 0 0.840001 0.04 0 0.845 0.04 0 0.85 0.04 0 0.855 0.04 0 0.86 0.04 0 0.865 0.04 0 0.87 0.04 0 0.875 0.04 0 0.88 0.04 0 0.885 0.04 0 0.89 0.04 0 0.895 0.04 0 0.9 0.04 0 0.905 0.04 0 0.91 0.04 0 0.915 0.04 0 0.92 0.04 0 0.925 0.04 0 0.93 0.04 0 0.935 0.04 0 0.94 0.04 0 0.945 0.04 0 0.95 0.04 0 0.955 0.04 0 0.96 0.04 0 0.965 0.04 0 0.97 0.04 0 0.975 0.04 0 0.98 0.04 0 0.985 0.04 0 0.99 0.04 0 0.995 0.04 0 1 0.04 0 0 0.06 0 0.005 0.06 0 0.01 0.06 0 0.015 0.06 0 0.02 0.06 0 0.025 0.06 0 0.03 0.06 0 0.035 0.06 0 0.04 0.06 0 0.045 0.06 0 0.05 0.06 0 0.055 0.06 0 0.06 0.06 0 0.065 0.06 0 0.07 0.06 0 0.075 0.06 0 0.08 0.06 0 0.085 0.06 0 0.09 0.06 0 0.095 0.06 0 0.1 0.06 0 0.105 0.06 0 0.11 0.06 0 0.115 0.06 0 0.12 0.06 0 0.125 0.06 0 0.13 0.06 0 0.135 0.06 0 0.14 0.06 0 0.145 0.06 0 0.15 0.06 0 0.155 0.06 0 0.16 0.06 0 0.165 0.06 0 0.17 0.06 0 0.175 0.06 0 0.18 0.06 0 0.185 0.06 0 0.19 0.06 0 0.195 0.06 0 0.2 0.06 0 0.205 0.06 0 0.21 0.06 0 0.215 0.06 0 0.22 0.06 0 0.225 0.06 0 0.23 0.06 0 0.235 0.06 0 0.24 0.06 0 0.245 0.06 0 0.25 0.06 0 0.255 0.06 0 0.26 0.06 0 0.265 0.06 0 0.27 0.06 0 0.275001 0.06 0 0.280002 0.06 0 0.285006 0.06 0 0.290017 0.06 0 0.295042 0.06 0 0.300093 0.06 0 0.305186 0.06 0 0.310341 0.06 0 0.315576 0.06 0 0.320906 0.06 0 0.326344 0.06 0 0.331902 0.06 0 0.337588 0.06 0 0.343412 0.06 0 0.349383 0.06 0 0.355509 0.06 0 0.361802 0.06 0 0.368273 0.06 0 0.374932 0.06 0 0.381794 0.06 0 0.388872 0.06 0 0.396183 0.06 0 0.403743 0.06 0 0.411573 0.06 0 0.419694 0.06 0 0.42813 0.06 0 0.436908 0.06 0 0.44606 0.06 0 0.455618 0.06 0 0.465619 0.06 0 0.476101 0.06 0 0.487095 0.06 0 0.498612 0.06 0 0.510584 0.06 0 0.522747 0.06 0 0.534823 0.06 0 0.546798 0.06 0 0.558678 0.06 0 0.57049 0.06 0 0.582262 0.06 0 0.594016 0.06 0 0.605761 0.06 0 0.617501 0.06 0 0.62924 0.06 0 0.64098 0.06 0 0.652734 0.06 0 0.655347 0.06 0 0.657884 0.06 0 0.660376 0.06 0 0.662836 0.06 0 0.665274 0.06 0 0.667696 0.06 0 0.670106 0.06 0 0.672506 0.06 0 0.674901 0.06 0 0.67729 0.06 0 0.679676 0.06 0 0.682058 0.06 0 0.684436 0.06 0 0.686811 0.06 0 0.689182 0.06 0 0.691551 0.06 0 0.693917 0.06 0 0.696281 0.06 0 0.698644 0.06 0 0.701006 0.06 0 0.7
[...]
			<PointData Scalars="VitesseX">
				<DataArray Name="VitesseX" type="Float32" format="ascii">
 0 -5.6046e-16 -1.18742e-15 -2.04469e-15 -5.47461e-15 -5.88786e-15 -4.26466e-15 -1.10095e-15 -5.74001e-15 7.28296e-16 -6.56954e-15 -6.55941e-15 -6.88135e-15 -1.19475e-14 -1.14945e-14 -9.55029e-15 -1.32302e-14 -2.22387e-14 -1.43751e-14 -2.49395e-14 -3.3028e-14 -3.07378e-14 -3.21728e-14 -2.97611e-14 -4.37733e-14 -3.65871e-14 -3.18001e-14 -3.35404e-14 -3.58155e-14 -3.11665e-14 -6.01771e-14 -3.11193e-14 -5.97649e-14 -3.71941e-14 -2.59961e-14 -5.20977e-14 -2.94165e-14 -2.74592e-14 -2.64027e-14 -4.85273e-15 -1.35814e-14 5.31773e-14 2.46896e-13 1.47849e-12 9.5529e-12 5.96792e-11 3.51985e-10 1.96685e-09 1.03867e-08 5.17086e-08 2.42026e-07 1.06181e-06 4.35102e-06 1.6586e-05 5.85381e-05 0.00019022 0.000565414 0.00152616 0.00371296 0.00809203 0.0157569 0.0274982 0.043425 0.0629768 0.0852952 0.109607 0.135389 0.162343 0.190323 0.219263 0.249144 0.279972 0.311772 0.344578 0.378436 0.413397 0.449524 0.486884 0.525548 0.565594 0.607097 0.650128 0.694731 0.740895 0.788472 0.836989 0.885135 0.929299 0.959607 0.958321 0.949608 0.941209 0.935005 0.931241 0.929321 0.928395 0.927899 0.9276 0.927411 0.927282 0.927183 0.927166 0.927149 0.927133 0.927118 0.927102 0.927088 0.927073 0.927059 0.927045 0.92703 0.927016 0.927002 0.926987 0.926972 0.926957 0.926942 0.926926 0.926909 0.926893 0.926876 0.926859 0.926841 0.926824 0.926806 0.926788 0.926769 0.92675 0.926729 0.926709 0.926685 0.926663 0.926634 0.926611 0.926573 0.92655 0.926496 0.926476 0.926391 0.92638 0.926229 0.926228 0.925921 0.925936 0.9252 0.925258 0.923277 0.923465 0.917976 0.918562 0.903976 0.905758 0.871484 0.876249 0.808465 0.805345 0.698551 0.639078 0.512457 0.39566 0.269979 0.162649 0.0839524 0.0374433 0.0150136 0.00568165 0.00209522 0.000764363 0.000277498 0.000100457 3.62802e-05 1.30698e-05 4.69474e-06 1.68067e-06 5.99297e-07 2.12734e-07 7.51281e-08 2.63804e-08 9.20476e-09 3.18961e-09 1.09704e-09 3.74265e-10 1.26655e-10 4.2335e-11 1.40671e-11 4.60355e-12 1.37099e-12 4.45147e-13 1.42814e-13 5.45204e-14 8.0608e-14 -2.91772e-14 -2.1245e-14 1.13735e-13 6.3849e-14 6.10452e-14 -9.42274e-14 9.93332e-14 -7.01676e-14 -6.2463e-14 0 0 -1.04168e-15 -5.06305e-16 -1.65892e-16 -2.67285e-15 -1.26914e-15 -1.91404e-15 -6.04746e-15 -5.34663e-15 3.47403e-15 -6.75817e-15 -3.99102e-15 -6.44905e-15 -1.49977e-14 -1.48104e-14 -7.38471e-15 -1.75374e-14 -1.2024e-14 -3.24486e-14 -2.0408e-14 -2.62137e-14 -2.83416e-14 -4.62816e-14 -3.51901e-14 -3.52923e-14 -4.10216e-14 -3.59574e-14 -2.90803e-14 -3.20512e-14 -6.11337e-14 -3.88496e-14 -3.00448e-14 -4.03192e-14 -4.23801e-14 -2.13215e-14 -2.04046e-14 -3.2603e-14 -2.54216e-14 -3.25742e-14 -1.80939e-14 -6.26252e-15 4.93753e-14 2.50085e-13 1.46477e-12 9.60136e-12 5.97028e-11 3.51996e-10 1.96686e-09 1.03866e-08 5.17087e-08 2.42026e-07 1.06181e-06 4.35102e-06 1.6586e-05 5.85381e-05 0.00019022 0.000565414 0.00152616 0.00371296 0.00809203 0.0157569 0.0274982 0.043425 0.0629768 0.0852952 0.109607 0.135389 0.162343 0.190323 0.219263 0.249144 0.279972 0.311772 0.344578 0.378436 0.413397 0.449524 0.486884 0.525548 0.565594 0.607097 0.650128 0.694731 0.740895 0.788472 0.836989 0.885135 0.929299 0.959607 0.958321 0.949608 0.941209 0.935005 0.931241 0.929321 0.928395 0.927899 0.9276 0.927411 0.927282 0.927183 0.927166 0.927149 0.927133 0.927118 0.927102 0.927088 0.927073 0.927059 0.927045 0.92703 0.927016 0.927002 0.926987 0.926972 0.926957 0.926942 0.926926 0.926909 0.926893 0.926876 0.926859 0.926841 0.926824 0.926806 0.926788 0.926769 0.92675 0.926729 0.926709 0.926685 0.926663 0.926634 0.926611 0.926573 0.92655 0.926496 0.926476 0.926391 0.92638 0.926229 0.926228 0.925921 0.925936 0.9252 0.925258 0.923277 0.923465 0.917976 0.918562 0.903976 0.905758 0.871484 0.876249 0.808465 0.805345 0.698551 0.639078 0.512457 0.39566 0.269979 0.162649 0.0839524 0.0374433 0.0150136 0.00568165 0.00209522 0.000764363 0.000277498 0.000100457 3.62802e-05 1.30698e-05 4.69474e-06 1.68067e-06 5.99297e-07 2.12734e-07 7.51281e-08 2.63804e-08 9.20481e-09 3.18961e-09 1.09699e-09 3.74302e-10 1.26528e-10 4.23299e-11 1.40489e-11 4.54529e-12 1.45465e-12 3.69127e-13 -5.99759e-15 6.68059e-14 5.31128e-14 5.45534e-14 1.1019e-13 4.4814e-14 -7.24662e-16 8.72727e-15 4.28241e-15 -3.81027e-14 6.77249e-14 -2.65385e-14 0 0 -6.27557e-16 -1.46045e-15 -3.34867e-16 1.53182e-15 3.2732e-15 2.58104e-15 -4.82276e-15 -9.0757e-15 2.73905e-15 -6.08794e-15 -8.2531e-15 -1.25359e-14 -1.73688e-14 -2.0425e-14 -8.60728e-15 -1.41904e-14 -2.59422e-14 -2.82205e-14 -1.81649e-14 -3.12856e-14 -2.81475e-14 -5.19163e-14 -4.52348e-14 -2.85906e-14 -3.70369e-14 -2.68639e-14 -5.15422e-14 -1.96432e-14 -5.17784e-14 -3.38926e-14 -3.72915e-14 -3.62779e-14 -2.09275e-14 -4.16827e-14 -2.83255e-14 1.38657e-14 -3.31209e-16 -3.27128e-14 -9.87312e-15 9.56363e-15 6.27936e-14 2.42985e-13 1.50189e-12 9.63905e-12 5.97199e-11 3.52009e-10 1.96691e-09 1.03866e-08 5.17087e-08 2.42026e-07 1.06181e-06 4.35102e-06 1.6586e-05 5.85381e-05 0.00019022 0.000565414 0.00152616 0.00371296 0.00809203 0.0157569 0.0274982 0.043425 0.0629768 0.0852952 0.109607 0.135389 0.162343 0.190323 0.219263 0.249144 0.279972 0.311772 0.344578 0.378436 0.413397 0.449524 0.486884 0.525548 0.565594 0.607097 0.650128 0.694731 0.740895 0.788472 0.836989 0.885135 0.929299 0.959607 0.958321 0.949608 0.941209 0.935005 0.931241 0.929321 0.928395 0.927899 0.9276 0.927411 0.927282 0.927183 0.927166 0.927149 0.927133 0.927118 0.927102 0.927088 0.927073 0.927059 0.927045 0.92703 0.927016 0.927002 0.926987 0.926972 0.926957 0.926942 0.926926 0.926909 0.926893 0.926876 0.926859 0.926841 0.926824 0.926806 0.926788 0.926769 0.92675 0.926729 0.926709 0.926685 0.926663 0.926634 0.926611 0.926573 0.92655 0.926496 0.926476 0.926391 0.92638 0.926229 0.926228 0.925921 0.925936 0.9252 0.925258 0.923277 0.923465 0.917976 0.918562 0.903976 0.905758 0.871484 0.876249 0.808465 0.805345 0.698551 0.639078 0.512457 0.39566 0.269979 0.162649 0.0839524 0.0374433 0.0150136 0.00568165 0.00209522 0.000764363 0.000277498 0.000100457 3.62802e-05 1.30698e-05 4.69474e-06 1.68067e-06 5.99297e-07 2.12733e-07 7.51281e-08 2.63804e-08 9.20478e-09 3.18961e-09 1.09702e-09 3.74265e-10 1.26536e-10 4.22692e-11 1.39627e-11 4.4902e-12 1.31098e-12 2.57925e-13 9.36877e-14 1.03167e-13 -7.19619e-14 -5.84089e-15 1.35027e-13 2.55647e-14 -1.70646e-14 -6.53328e-14 1.09302e-13 -3.90708e-14 8.47603e-14 -5.84094e-14 0 0 2.20832e-15 1.29782e-15 2.80929e-15 3.44867e-15 4.24617e-16 3.27684e-15 3.75846e-15 -8.20346e-15 -2.10221e-15 -1.03355e-14 -5.09212e-15 -2.07151e-14 -1.35197e-14 -2.66818e-14 -7.18533e-15 -1.76233e-14 -3.07671e-14 -2.72619e-14 -3.10982e-14 -3.37508e-14 -2.39813e-14 -3.48733e-14 -4.5261e-14 -3.76109e-14 -3.47181e-14 -5.09624e-14 -3.14199e-14 -2.14065e-14 -2.64994e-14 -5.09295e-14 -4.52175e-14 -3.51905e-14 -4.31763e-15 -3.83348e-14 -1.19285e-14 1.13762e-14 -3.73981e-15 9.17944e-15 -7.96059e-15 -4.20614e-15 7.24163e-14 2.90412e-13 1.55389e-12 9.68075e-12 5.97327e-11 3.52038e-10 1.9669e-09 1.03866e-08 5.17087e-08 2.42026e-07 1.06181e-06 4.35102e-06 1.6586e-05 5.85381e-05 0.00019022 0.000565414 0.00152616 0.00371296 0.00809203 0.0157569 0.0274982 0.043425 0.0629768 0.0852952 0.109607 0.135389 0.162343 0.190323 0.219263 0.249144 0.279972 0.311772 0.344578 0.378436 0.413397 0.449524 0.486884 0.525548 0.565594 0.607097 0.650128 0.694731 0.740895 0.788472 0.836989 0.885135 0.929299 0.959607 0.958321 0.949608 0.941209 0.935005 0.931241 0.929321 0.928395 0.927899 0.9276 0.927411 0.927282 0.927183 0.927166 0.927149 0.927133 0.927118 0.927102 0.927088 0.927073 0.927059 0.927045 0.92703 0.927016 0.927002 0.926987 0.926972 0.926957 0.926942 0.926926 0.926909 0.926893 0.926876 0.926859 0.926841 0.926824 0.926806 0.926788 0.926769 0.92675 0.926729 0.926709 0.926685 0.926663 0.926634 0.926611 0.926573 0.92655 0.926496 0.926476 0.926391 0.92638 0.926229 0.926228 0.925921 0.925936 0.9252 0.925258 0.923277 0.923465 0.917976 0.918562 0.903976 0.905758 0.871484 0.876249 0.808465 0.805345 0.698551 0.639078 0.512457 0.39566 0.269979 0.162649 0.0839524 0.0374433 0.0150136 0.00568165 0.00209522 0.000764363 0.000277498 0.000100457 3.62802e-05 1.30698e-05 4.69474e-06 1.68067e-06 5.99297e-07 2.12733e-07 7.51282e-08 2.63803e-08 9.20462e-09 3.18963e-09 1.097e-09 3.74127e-10 1.2672e-10 4.23213e-11 1.38616e-11 4.374e-12 1.21474e-12 1.5112e-13 1.88687e-13 6.15575e-15 7.86006e-15 -9.17268e-14 -4.58144e-14 7.86085e-14 -5.56065e-14 1.53036e-14 4.53509e-14 -7.42341e-14 -1.17605e-15 1.93086e-14 0 0 5.25308e-15 8.12219e-15 9.30664e-15 7.29782e-15 5.46569e-15 5.85708e-16 7.68721e-15 -3.41105e-15 -2.02669e-15 -7.20533e-15 3.62442e-15 -1.84856e-14 -1.45206e-14 -2.12895e-14 -1.6267e-14 -1.83386e-14 -1.62047e-14 -4.24611e-14 -2.9799e-14 -3.56767e-14 -3.98065e-14 -8.45424e-15 -5.53207e-14 -4.93605e-14 -4.47442e-14 -4.69838e-14 -3.58787e-14 -8.66711e-15 -3.64771e-14 -1.99123e-14 -1.57836e-14 -2.57095e-14 -7.06325e-15 -2.74442e-14 -7.47776e-15 -3.93699e-14 -1.04724e-14 -1.05487e-14 -9.83166e-15 5.44736e-15 5.51328e-14 3.29644e-13 1.57937e-12 9.76585e-12 5.97481e-11 3.52064e-10 1.9669e-09 1.03867e-08 5.17087e-08 2.42026e-07 1.06181e-06 4.35102e-06 1.6586e-05 5.85381e-05 0.00019022 0.000565414 0.00152616 0.00371296 0.00809203 0.0157569 0.0274982 0.043425 0.0629768 0.0852952 0.109607 0.135389 0.162343 0.190323 0.219263 0.249144 0.279972 0.311772 0.344578 0.378436 0.413397 0.449524 0.486884 0.525548 0.565594 0.607097 0.650128 0.694731 0.740895 0.788472 0.836989 0.885135 0.929299 0.959607 0.958321 0.949608 0.941209 0.935005 0.931241 0.929321 0.928395 0.927899 0.9276 0.927411 0.927282 0.927183 0.927166 0.927149 0.927133 0.927118 0.927102 0.927088 0.927073 0.927059 0.927045 0.92703 0.927016 0.927002 0.926987 0.926972 0.926957 0.926942 0.926926 0.926909 0.926893 0.926876 0.926859 0.926841 0.926824 0.926806 0.926788 0.926769 0.92675 0.926729 0.926709 0.926685 0.926663 0.926634 0.926611 0.926573 0.92655 0.926496 0.926476 0.926391 0.92638 0.926229 0.926228 0.925921 0.925936 0.9252 0.925258 0.923277 0.923465 0.917976 0.918562 0.903976 0.905758 0.871484 0.876249 0.808465 0.805345 0.698551 0.639078 0.512457 0.39566 0.269979 0.162649 0.0839524 0.0374433 0.0150136 0.00568165 0.00209522 0.000764363 0.000277498 0.000100457 3.62802e-05 1.30698e-05 4.69474e-06 1.68067e-06 5.99297e-07 2.12733e-07 7.5128e-08 2.63805e-08 9.20449e-09 3.18965e-09 1.09688e-09 3.74037e-10 1.26675e-10 4.23108e-11 1.39403e-11 4.235e-12 1.29443e-12 2.25758e-13 -3.14523e-14 -1.78668e-14 7.22979e-14 -2.24685e-14 -4.60915e-14 2.09944e-14 -8.44156e-14 2.67451e-15 -2.25977e-14 -1.06569e-13 8.80576e-14 4.8554e-14 0 0 6.3573e-15 1.0553e-14 1.06121e-14 1.0633e-14 1.3279e-14 -6.56758e-16 9.20595e-15 -3.61334e-15 -5.90623e-16 1.0312e-15 2.34952e-15 -1.4596e-14 -1.86915e-14 -1.19391e-14 -3.01588e-14 -7.96652e-15 -2.09502e-14 -3.63172e-14 -1.78549e-14 -4.70236e-14 -6.20002e-14 9.3959e-15 -6.99699e-14 -5.3869e-14 -4.86701e-14 -5.65615e-15 -8.7382e-14 1.4479e-14 -3.24116e-14 1.17713e-14 1.32552e-14 -3.27204e-14 2.19805e-16 -4.49373e-14 -5.90379e-14 -3.79713e-14 9.25652e-15 -6.61363e-14 7.84675e-15 3.73779e-14 4.54467e-14 3.1116e-13 1.60369e-12 9.7985e-12 5.97444e-11 3.52063e-10 1.96695e-09 1.03867e-08 5.17088e-08 2.42026e-07 1.06181e-06 4.35102e-06 1.6586e-05 5.85381e-05 0.00019022 0.000565414 0.00152616 0.00371296 0.00809203 0.0157569 0.0274982 0.043425 0.0629768 0.0852952 0.109607 0.135389 0.162343 0.190323 0.219263 0.249144 0.279972 0.311772 0.344578 0.378436 0.413397 0.449524 0.486884 0.525548 0.565594 0.607097 0.650128 0.694731 0.740895 0.788472 0.836989 0.885135 0.929299 0.959607 0.958321 0.949608 0.941209 0.935005 0.931241 0.929321 0.928395 0.927899 0.9276 0.927411 0.927282 0.927183 0.927166 0.927149 0.927133 0.927118 0.927102 0.927088 0.927073 0.927059 0.927045 0.92703 0.927016 0.927002 0.926987 0.926972 0.926957 0.926942 0.926926 0.926909 0.926893 0.926876 0.926859 0.926841 0.926824 0.926806 0.926788 0.926769 0.92675 0.926729 0.926709 0.926685 0.926663 0.926634 0.926611 0.926573 0.92655 0.926496 0.926476 0.926391 0.92638 0.926229 0.926228 0.925921 0.925936 0.9252 0.925258 0.923277 0.923465 0.917976 0.918562 0.903976 0.905758 0.871484 0.876249 0.808465 0.805345 0.698551 0.639078 0.512457 0.39566 0.269979 0.162649 0.0839524 0.0374433 0.0150136 0.00568165 0.00209522 0.000764363 0.000277498 0.000100457 3.62802e-05 1.30698e-05 4.69474e-06 1.68067e-06 5.99297e-07 2.12733e-07 7.51277e-08 2.63807e-08 9.20444e-09 3.18966e-09 1.09686e-09 3.74011e-10 1.26582e-10 4.21919e-11 1.40519e-11 4.21532e-12 1.24311e-12 3.72305e-13 -9.83538e-14 7.90261e-14 -4.10496e-14 -1.19821e-14 2.78776e-14 -3.98563e-14 -2.6145e-14 -1.12175e-13 -1.99433e-14 3.22208e-14 1.41401e-13 -6.82281e-14 0
				</DataArray>
				<DataArray Name="VitesseY" type="Float32" format="ascii">