<?xml version="1.0"?>
<VTKFile type="PolyData">
	<PolyData>
		<Piece NumberOfPoints="1206" NumberOfPolys="1000">
			<Points>
				<DataArray type="Float32" NumberOfComponents="3" format="ascii">
 0 0 0 0.005 0 0 0.01 0 0 0.015 0 0 0.02 0 0 0.025 0 0 0.03 0 0 0.035 0 0 0.04 0 0 0.045 0 0 0.05 0 0 0.055 0 0 0.06 0 0 0.065 0 0 0.07 0 0 0.075 0 0 0.08 0 0 0.085 0 0 0.09 0 0 0.095 0 0 0.1 0 0 0.105 0 0 0.11 0 0 0.115 0 0 0.12 0 0 0.125 0 0 0.13 0 0 0.135 0 0 0.14 0 0 0.145 0 0 0.15 0 0 0.155 0 0 0.16 0 0 0.165 0 0 0.17 0 0 0.175 0 0 0.18 0 0 0.185 0 0 0.19 0 0 0.195 0 0 0.2 0 0 0.205 0 0 0.21 0 0 0.215 0 0 0.22 0 0 0.225 0 0 0.23 0 0 0.235 0 0 0.24 0 0 0.245 0 0 0.25 0 0 0.255 0 0 0.260001 0 0 0.265002 0 0 0.270005 0 0 0.275014 0 0 0.280034 0 0 0.285076 0 0 0.290153 0 0 0.295283 0 0 0.300483 0 0 0.305768 0 0 0.311149 0 0 0.316638 0 0 0.322242 0 0 0.327971 0 0 0.33383 0 0 0.339829 0 0 0.345976 0 0 0.352279 0 0 0.358749 0 0 0.365396 0 0 0.372231 0 0 0.379266 0 0 0.386516 0 0 0.393995 0 0 0.401719 0 0 0.409708 0 0 0.417981 0 0 0.426561 0 0 0.435473 0 0 0.444746 0 0 0.454411 0 0 0.464502 0 0 0.475053 0 0 0.486098 0 0 0.497655 0 0 0.509687 0 0 0.522 0 0 0.534266 0 0 0.546421 0 0 0.558456 0 0 0.570395 0 0 0.58227 0 0 0.594108 0 0 0.60593 0 0 0.617745 0 0 0.629556 0 0 0.641366 0 0 0.653174 0 0 0.664985 0 0 0.667266 0 0 0.669548 0 0 0.67183 0 0 0.674111 0 0 0.676391 0 0 0.678671 0 0 0.680948 0 0 0.683225 0 0 0.685504 0 0 0.687779 0 0 0.690056 0 0 0.692335 0 0 0.694614 0 0 0.696892 0 0 0.699168 0 0 0.701444 0 0 0.703723 0 0 0.706001 0 0 0.708277 0 0 0.710552 0 0 0.712831 0 0 0.715112 0 0 0.717394 0 0 0.719675 0 0 0.721955 0 0 0.724233 0 0 0.726512 0 0 0.728792 0 0 0.73107 0 0 0.733347 0 0 0.735627 0 0 0.737911 0 0 0.740195 0 0 0.742477 0 0 0.744759 0 0 0.747039 0 0 0.749319 0 0 0.751598 0 0 0.753876 0 0 0.756153 0 0 0.758434 0 0 0.760718 0 0 0.763002 0 0 0.765284 0 0 0.767566 0 0 0.769849 0 0 0.77213 0 0 0.774409 0 0 0.77669 0 0 0.778975 0 0 0.781258 0 0 0.783534 0 0 0.785814 0 0 0.788125 0 0 0.790467 0 0 0.792918 0 0 0.795482 0 0 0.798199 0 0 0.801119 0 0 0.804319 0 0 0.807834 0 0 0.811708 0 0 0.81593 0 0 0.820455 0 0 0.825201 0 0 0.830082 0 0 0.835032 0 0 0.840012 0 0 0.845005 0 0 0.850002 0 0 0.855001 0 0 0.86 0 0 0.865 0 0 0.87 0 0 0.875 0 0 0.88 0 0 0.885 0 0 0.89 0 0 0.895 0 0 0.9 0 0 0.905 0 0 0.91 0 0 0.915 0 0 0.92 0 0 0.925 0 0 0.93 0 0 0.935 0 0 0.94 0 0 0.945 0 0 0.95 0 0 0.955 0 0 0.96 0 0 0.965 0 0 0.97 0 0 0.975 0 0 0.98 0 0 0.985 0 0 0.99 0 0 0.995 0 0 1 0 0 0 0.02 0 0.005 0.02 0 0.01 0.02 0 0.015 0.02 0 0.02 0.02 0 0.025 0.02 0 0.03 0.02 0 0.035 0.02 0 0.04 0.02 0 0.045 0.02 0 0.05 0.02 0 0.055 0.02 0 0.06 0.02 0 0.065 0.02 0 0.07 0.02 0 0.075 0.02 0 0.08 0.02 0 0.085 0.02 0 0.09 0.02 0 0.095 0.02 0 0.1 0.02 0 0.105 0.02 0 0.11 0.02 0 0.115 0.02 0 0.12 0.02 0 0.125 0.02 0 0.13 0.02 0 0.135 0.02 0 0.14 0.02 0 0.145 0.02 0 0.15 0.02 0 0.155 0.02 0 0.16 0.02 0 0.165 0.02 0 0.17 0.02 0 0.175 0.02 0 0.18 0.02 0 0.185 0.02 0 0.19 0.02 0 0.195 0.02 0 0.2 0.02 0 0.205 0.02 0 0.21 0.02 0 0.215 0.02 0 0.22 0.02 0 0.225 0.02 0 0.23 0.02 0 0.235 0.02 0 0.24 0.02 0 0.245 0.02 0 0.25 0.02 0 0.255 0.02 0 0.260001 0.02 0 0.265002 0.02 0 0.270005 0.02 0 0.275014 0.02 0 0.280034 0.02 0 0.285076 0.02 0 0.290153 0.02 0 0.295283 0.02 0 0.300483 0.02 0 0.305768 0.02 0 0.311149 0.02 0 0.316638 0.02 0 0.322242 0.02 0 0.327971 0.02 0 0.33383 0.02 0 0.339829 0.02 0 0.345976 0.02 0 0.352279 0.02 0 0.358749 0.02 0 0.365396 0.02 0 0.372231 0.02 0 0.379266 0.02 0 0.386516 0.02 0 0.393995 0.02 0 0.401719 0.02 0 0.409708 0.02 0 0.417981 0.02 0 0.426561 0.02 0 0.435473 0.02 0 0.444746 0.02 0 0.454411 0.02 0 0.464502 0.02 0 0.475053 0.02 0 0.486098 0.02 0 0.497655 0.02 0 0.509687 0.02 0 0.522 0.02 0 0.534266 0.02 0 0.546421 0.02 0 0.558456 0.02 0 0.570395 0.02 0 0.58227 0.02 0 0.594108 0.02 0 0.60593 0.02 0 0.617745 0.02 0 0.629556 0.02 0 0.641366 0.02 0 0.653174 0.02 0 0.664985 0.02 0 0.667266 0.02 0 0.669548 0.02 0 0.67183 0.02 0 0.674111 0.02 0 0.676391 0.02 0 0.678671 0.02 0 0.680948 0.02 0 0.683225 0.02 0 0.685504 0.02 0 0.687779 0.02 0 0.690056 0.02 0 0.692335 0.02 0 0.694614 0.02 0 0.696892 0.02 0 0.699168 0.02 0 0.701444 0.02 0 0.703723 0.02 0 0.706001 0.02 0 0.708277 0.02 0 0.710552 0.02 0 0.712831 0.02 0 0.715112 0.02 0 0.717394 0.02 0 0.719675 0.02 0 0.721955 0.02 0 0.724233 0.02 0 0.726512 0.02 0 0.728792 0.02 0 0.73107 0.02 0 0.733347 0.02 0 0.735627 0.02 0 0.737911 0.02 0 0.740195 0.02 0 0.742477 0.02 0 0.744759 0.02 0 0.747039 0.02 0 0.749319 0.02 0 0.751598 0.02 0 0.753876 0.02 0 0.756153 0.02 0 0.758434 0.02 0 0.760718 0.02 0 0.763002 0.02 0 0.765284 0.02 0 0.767566 0.02 0 0.769849 0.02 0 0.77213 0.02 0 0.774409 0.02 0 0.77669 0.02 0 0.778975 0.02 0 0.781258 0.02 0 0.783534 0.02 0 0.785814 0.02 0 0.788125 0.02 0 0.790467 0.02 0 0.792918 0.02 0 0.795482 0.02 0 0.798199 0.02 0 0.801119 0.02 0 0.804319 0.02 0 0.807834 0.02 0 0.811708 0.02 0 0.81593 0.02 0 0.820455 0.02 0 0.825201 0.02 0 0.830082 0.02 0 0.835032 0.02 0 0.840012 0.02 0 0.845005 0.02 0 0.850002 0.02 0 0.855001 0.02 0 0.86 0.02 0 0.865 0.02 0 0.87 0.02 0 0.875 0.02 0 0.88 0.02 0 0.885 0.02 0 0.89 0.02 0 0.895 0.02 0 0.9 0.02 0 0.905 0.02 0 0.91 0.02 0 0.915 0.02 0 0.92 0.02 0 0.925 0.02 0 0.93 0.02 0 0.935 0.02 0 0.94 0.02 0 0.945 0.02 0 0.95 0.02 0 0.955 0.02 0 0.96 0.02 0 0.965 0.02 0 0.97 0.02 0 0.975 0.02 0 0.98 0.02 0 0.985 0.02 0 0.99 0.02 0 0.995 0.02 0 1 0.02 0 0 0.04 0 0.005 0.04 0 0.01 0.04 0 0.015 0.04 0 0.02 0.04 0 0.025 0.04 0 0.03 0.04 0 0.035 0.04 0 0.04 0.04 0 0.045 0.04 0 0.05 0.04 0 0.055 0.04 0 0.06 0.04 0 0.065 0.04 0 0.07 0.04 0 0.075 0.04 0 0.08 0.04 0 0.085 0.04 0 0.09 0.04 0 0.095 0.04 0 0.1 0.04 0 0.105 0.04 0 0.11 0.04 0 0.115 0.04 0 0.12 0.04 0 0.125 0.04 0 0.13 0.04 0 0.135 0.04 0 0.14 0.04 0 0.145 0.04 0 0.15 0.04 0 0.155 0.04 0 0.16 0.04 0 0.165 0.04 0 0.17 0.04 0 0.175 0.04 0 0.18 0.04 0 0.185 0.04 0 0.19 0.04 0 0.195 0.04 0 0.2 0.04 0 0.205 0.04 0 0.21 0.04 0 0.215 0.04 0 0.22 0.04 0 0.225 0.04 0 0.23 0.04 0 0.235 0.04 0 0.24 0.04 0 0.245 0.04 0 0.25 0.04 0 0.255 0.04 0 0.260001 0.04 0 0.265002 0.04 0 0.270005 0.04 0 0.275014 0.04 0 0.280034 0.04 0 0.285076 0.04 0 0.290153 0.04 0 0.295283 0.04 0 0.300483 0.04 0 0.305768 0.04 0 0.311149 0.04 0 0.316638 0.04 0 0.322242 0.04 0 0.327971 0.04 0 0.33383 0.04 0 0.339829 0.04 0 0.345976 0.04 0 0.352279 0.04 0 0.358749 0.04 0 0.365396 0.04 0 0.372231 0.04 0 0.379266 0.04 0 0.386516 0.04 0 0.393995 0.04 0 0.401719 0.04 0 0.409708 0.04 0 0.417981 0.04 0 0.426561 0.04 0 0.435473 0.04 0 0.444746 0.04 0 0.454411 0.04 0 0.464502 0.04 0 0.475053 0.04 0 0.486098 0.04 0 0.497655 0.04 0 0.509687 0.04 0 0.522 0.04 0 0.534266 0.04 0 0.546421 0.04 0 0.558456 0.04 0 0.570395 0.04 0 0.58227 0.04 0 0.594108 0.04 0 0.60593 0.04 0 0.617745 0.04 0 0.629556 0.04 0 0.641366 0.04 0 0.653174 0.04 0 0.664985 0.04 0 0.667266 0.04 0 0.669548 0.04 0 0.67183 0.04 0 0.674111 0.04 0 0.676391 0.04 0 0.678671 0.04 0 0.680948 0.04 0 0.683225 0.04 0 0.685504 0.04 0 0.687779 0.04 0 0.690056 0.04 0 0.692335 0.04 0 0.694614 0.04 0 0.696892 0.04 0 0.699168 0.04 0 0.701444 0.04 0 0.703723 0.04 0 0.706001 0.04 0 0.708277 0.04 0 0.710552 0.04 0 0.712831 0.04 0 0.715112 0.04 0 0.717394 0.04 0 0.719675 0.04 0 0.721955 0.04 0 0.724233 0.04 0 0.726512 0.04 0 0.728792 0.04 0 0.73107 0.04 0 0.733347 0.04 0 0.735627 0.04 0 0.737911 0.04 0 0.740195 0.04 0 0.742477 0.04 0 0.744759 0.04 0 0.747039 0.04 0 0.749319 0.04 0 0.751598 0.04 0 0.753876 0.04 0 0.756153 0.04 0 0.758434 0.04 0 0.760718 0.04 0 0.763002 0.04 0 0.765284 0.04 0 0.767566 0.04 0 0.769849 0.04 0 0.77213 0.04 0 0.774409 0.04 0 0.77669 0.04 0 0.778975 0.04 0 0.781258 0.04 0 0.783534 0.04 0 0.785814 0.04 0 0.788125 0.04 0 0.790467 0.04 0 0.792918 0.04 0 0.795482 0.04 0 0.798199 0.04 0 0.801119 0.04 0 0.804319 0.04 0 0.807834 0.04 0 0.811708 0.04 0 0.81593 0.04 0 0.820455 0.04 0 0.825201 0.04 0 0.830082 0.04 0 0.835032 0.04 0 0.840012 0.04 0 0.845005 0.04 0 0.850002 0.04 0 0.855001 0.04 0 0.86 0.04 0 0.865 0.04 0 0.87 0.04 0 0.875 0.04 0 0.88 0.04 0 0.885 0.04 0 0.89 0.04 0 0.895 0.04 0 0.9 0.04 0 0.905 0.04 0 0.91 0.04 0 0.915 0.04 0 0.92 0.04 0 0.925 0.04 0 0.93 0.04 0 0.935 0.04 0 0.94 0.04 0 0.945 0.04 0 0.95 0.04 0 0.955 0.04 0 0.96 0.04 0 0.965 0.04 0 0.97 0.04 0 0.975 0.04 0 0.98 0.04 0 0.985 0.04 0 0.99 0.04 0 0.995 0.04 0 1 0.04 0 0 0.06 0 0.005 0.06 0 0.01 0.06 0 0.015 0.06 0 0.02 0.06 0 0.025 0.06 0 0.03 0.06 0 0.035 0.06 0 0.04 0.06 0 0.045 0.06 0 0.05 0.06 0 0.055 0.06 0 0.06 0.06 0 0.065 0.06 0 0.07 0.06 0 0.075 0.06 0 0.08 0.06 0 0.085 0.06 0 0.09 0.06 0 0.095 0.06 0 0.1 0.06 0 0.105 0.06 0 0.11 0.06 0 0.115 0.06 0 0.12 0.06 0 0.125 0.06 0 0.13 0.06 0 0.135 0.06 0 0.14 0.06 0 0.145 0.06 0 0.15 0.06 0 0.155 0.06 0 0.16 0.06 0 0.165 0.06 0 0.17 0.06 0 0.175 0.06 0 0.18 0.06 0 0.185 0.06 0 0.19 0.06 0 0.195 0.06 0 0.2 0.06 0 0.205 0.06 0 0.21 0.06 0 0.215 0.06 0 0.22 0.06 0 0.225 0.06 0 0.23 0.06 0 0.235 0.06 0 0.24 0.06 0 0.245 0.06 0 0.25 0.06 0 0.255 0.06 0 0.260001 0.06 0 0.265002 0.06 0 0.270005 0.06 0 0.275014 0.06 0 0.280034 0.06 0 0.285076 0.06 0 0.290153 0.06 0 0.295283 0.06 0 0.300483 0.06 0 0.305768 0.06 0 0.311149 0.06 0 0.316638 0.06 0 0.322242 0.06 0 0.327971 0.06 0 0.33383 0.06 0 0.339829 0.06 0 0.345976 0.06 0 0.352279 0.06 0 0.358749 0.06 0 0.365396 0.06 0 0.372231 0.06 0 0.379266 0.06 0 0.386516 0.06 0 0.393995 0.06 0 0.401719 0.06 0 0.409708 0.06 0 0.417981 0.06 0 0.426561 0.06 0 0.435473 0.06 0 0.444746 0.06 0 0.454411 0.06 0 0.464502 0.06 0 0.475053 0.06 0 0.486098 0.06 0 0.497655 0.06 0 0.509687 0.06 0 0.522 0.06 0 0.534266 0.06 0 0.546421 0.06 0 0.558456 0.06 0 0.570395 0.06 0 0.58227 0.06 0 0.594108 0.06 0 0.60593 0.06 0 0.617745 0.06 0 0.629556 0.06 0 0.641366 0.06 0 0.653174 0.06 0 0.664985 0.06 0 0.667266 0.06 0 0.669548 0.06 0 0.67183 0.06 0 0.674111 0.06 0 0.676391 0.06 0 0.678671 0.06 0 0.680948 0.06 0 0.683225 0.06 0 0.685504 0.06 0 0.687779 0.06 0 0.690056 0.06 0 0.692335 0.06 0 0.694614 0.06 0 0.696892 0.06 0 0.699168 0.06 0 0.701444 0
[...]
			<PointData Scalars="VitesseX">
				<DataArray Name="VitesseX" type="Float32" format="ascii">
 0 5.33408e-15 2.01904e-15 1.09051e-14 7.25741e-15 3.10129e-15 9.67833e-15 4.96439e-15 5.71767e-15 5.31202e-15 1.33496e-14 -5.45658e-15 6.11039e-15 6.77278e-15 1.19142e-14 1.56618e-14 1.46009e-14 5.23059e-15 1.01739e-14 -2.2229e-16 4.99583e-15 5.7565e-15 -4.64889e-15 9.08984e-15 5.11961e-15 5.51641e-15 3.99575e-15 -2.24741e-15 1.69818e-14 5.14481e-15 1.03185e-14 4.19655e-15 1.3646e-14 1.61956e-14 3.46877e-14 1.58097e-15 2.43552e-14 4.99533e-14 1.34273e-13 2.80541e-13 1.78842e-12 1.12698e-11 6.67535e-11 3.78044e-10 2.02996e-09 1.03257e-08 4.96282e-08 2.24828e-07 9.57286e-07 3.81847e-06 1.42155e-05 4.91769e-05 0.000157273 0.000462212 0.00123993 0.00301489 0.00660404 0.0129889 0.0229738 0.0368189 0.0541538 0.0742413 0.0963349 0.119884 0.144555 0.17017 0.196644 0.223941 0.252054 0.280994 0.310781 0.341448 0.37303 0.405574 0.439128 0.47375 0.509499 0.546443 0.58465 0.624189 0.665125 0.707504 0.751331 0.796513 0.84272 0.889035 0.932924 0.967215 0.97434 0.964407 0.954634 0.946134 0.940182 0.936762 0.935085 0.934345 0.934015 0.933814 0.933632 0.933546 0.934227 0.934009 0.933854 0.933679 0.933696 0.933677 0.933633 0.933562 0.933465 0.933351 0.93322 0.933081 0.932936 0.932797 0.932669 0.932562 0.932482 0.932434 0.932424 0.932473 0.932979 0.933909 0.933903 0.933717 0.933439 0.933104 0.932818 0.932604 0.932424 0.932395 0.932546 0.934023 0.934965 0.934549 0.933779 0.933218 0.932533 0.93195 0.931529 0.931312 0.931393 0.933045 0.934533 0.934045 0.933193 0.932775 0.932081 0.931762 0.931662 0.93353 0.934218 0.93352 0.933339 0.924995 0.933185 0.877896 0.846348 0.810961 0.753106 0.646504 0.563301 0.434046 0.313941 0.20131 0.113051 0.0551257 0.0239299 0.00965708 0.00375903 0.00144059 0.000548467 0.000208159 7.88411e-05 2.98055e-05 1.12444e-05 4.2316e-06 1.58783e-06 5.93761e-07 2.21154e-07 8.20001e-08 3.025e-08 1.10966e-08 4.04527e-09 1.46486e-09 5.26642e-10 1.87881e-10 6.65209e-11 2.34734e-11 8.11403e-12 2.84821e-12 1.04426e-12 3.20962e-13 1.54906e-13 8.61173e-14 6.33956e-14 8.94869e-14 6.6009e-14 1.00084e-14 -6.31464e-15 1.0352e-13 0 0 4.93486e-15 6.75122e-15 6.95853e-15 7.5272e-15 7.0967e-15 -5.89942e-16 6.02579e-15 8.57853e-15 5.47953e-15 -1.22995e-15 7.16622e-15 6.15947e-15 1.29483e-14 9.15735e-15 1.14029e-14 1.24765e-14 1.40425e-14 -1.06864e-15 1.14315e-16 4.465e-15 2.52685e-15 1.24245e-14 1.47843e-16 1.42167e-15 1.99849e-14 -1.31296e-15 4.5944e-15 1.72559e-14 1.88796e-14 -1.99866e-14 1.82765e-14 1.45572e-14 3.32976e-14 1.45873e-14 5.3119e-15 3.7516e-14 7.38869e-14 9.06242e-14 2.95711e-13 1.80705e-12 1.12299e-11 6.67715e-11 3.77989e-10 2.03002e-09 1.03256e-08 4.96283e-08 2.24828e-07 9.57286e-07 3.81847e-06 1.42155e-05 4.91769e-05 0.000157273 0.000462212 0.00123993 0.00301489 0.00660404 0.0129889 0.0229738 0.0368189 0.0541538 0.0742413 0.0963349 0.119884 0.144555 0.17017 0.196644 0.223941 0.252054 0.280994 0.310781 0.341448 0.37303 0.405574 0.439128 0.47375 0.509499 0.546443 0.58465 0.624189 0.665125 0.707504 0.751331 0.796513 0.84272 0.889035 0.932924 0.967215 0.97434 0.964407 0.954634 0.946134 0.940182 0.936762 0.935085 0.934345 0.934015 0.933814 0.933632 0.933546 0.934227 0.934009 0.933854 0.933679 0.933696 0.933677 0.933633 0.933562 0.933465 0.933351 0.93322 0.933081 0.932936 0.932797 0.932669 0.932562 0.932482 0.932434 0.932424 0.932473 0.932979 0.933909 0.933903 0.933717 0.933439 0.933104 0.932818 0.932604 0.932424 0.932395 0.932546 0.934023 0.934965 0.934549 0.933779 0.933218 0.932533 0.93195 0.931529 0.931312 0.931393 0.933045 0.934533 0.934045 0.933193 0.932775 0.932081 0.931762 0.931662 0.93353 0.934218 0.93352 0.933339 0.924995 0.933185 0.877896 0.846348 0.810961 0.753106 0.646504 0.563301 0.434046 0.313941 0.20131 0.113051 0.0551257 0.0239299 0.00965708 0.00375903 0.00144059 0.000548467 0.000208159 7.88411e-05 2.98055e-05 1.12444e-05 4.2316e-06 1.58783e-06 5.93761e-07 2.21154e-07 8.20001e-08 3.025e-08 1.10965e-08 4.04533e-09 1.46497e-09 5.26646e-10 1.87914e-10 6.65289e-11 2.33821e-11 8.08423e-12 2.97623e-12 8.85782e-13 4.59206e-13 1.33813e-13 8.45399e-14 2.24143e-14 3.83974e-15 -4.47888e-14 5.32662e-14 1.14383e-13 9.46639e-15 0 0 5.7834e-15 7.59258e-15 9.31614e-15 1.55588e-15 5.36908e-15 4.42707e-15 5.43796e-15 6.84771e-15 -1.39729e-15 -1.82268e-15 -9.06577e-16 9.2905e-15 9.6011e-15 2.0549e-15 1.4631e-14 1.24116e-14 8.64783e-15 -1.20802e-15 1.75823e-14 -5.83005e-15 1.24231e-14 -9.95487e-15 8.15656e-15 1.09776e-14 2.41343e-14 -1.91129e-14 1.76221e-14 1.24382e-14 2.51189e-14 -1.44276e-14 -1.31759e-15 4.37492e-14 1.65129e-14 2.07997e-14 4.01905e-14 3.47173e-14 1.09371e-13 9.90784e-14 2.81819e-13 1.78548e-12 1.12297e-11 6.67493e-11 3.77921e-10 2.03006e-09 1.03256e-08 4.96283e-08 2.24828e-07 9.57286e-07 3.81847e-06 1.42155e-05 4.91769e-05 0.000157273 0.000462212 0.00123993 0.00301489 0.00660404 0.0129889 0.0229738 0.0368189 0.0541538 0.0742413 0.0963349 0.119884 0.144555 0.17017 0.196644 0.223941 0.252054 0.280994 0.310781 0.341448 0.37303 0.405574 0.439128 0.47375 0.509499 0.546443 0.58465 0.624189 0.665125 0.707504 0.751331 0.796513 0.84272 0.889035 0.932924 0.967215 0.97434 0.964407 0.954634 0.946134 0.940182 0.936762 0.935085 0.934345 0.934015 0.933814 0.933632 0.933546 0.934227 0.934009 0.933854 0.933679 0.933696 0.933677 0.933633 0.933562 0.933465 0.933351 0.93322 0.933081 0.932936 0.932797 0.932669 0.932562 0.932482 0.932434 0.932424 0.932473 0.932979 0.933909 0.933903 0.933717 0.933439 0.933104 0.932818 0.932604 0.932424 0.932395 0.932546 0.934023 0.934965 0.934549 0.933779 0.933218 0.932533 0.93195 0.931529 0.931312 0.931393 0.933045 0.934533 0.934045 0.933193 0.932775 0.932081 0.931762 0.931662 0.93353 0.934218 0.93352 0.933339 0.924995 0.933185 0.877896 0.846348 0.810961 0.753106 0.646504 0.563301 0.434046 0.313941 0.20131 0.113051 0.0551257 0.0239299 0.00965708 0.00375903 0.00144059 0.000548467 0.000208159 7.88411e-05 2.98055e-05 1.12444e-05 4.2316e-06 1.58783e-06 5.93761e-07 2.21154e-07 8.20002e-08 3.025e-08 1.10966e-08 4.04538e-09 1.46492e-09 5.26717e-10 1.87878e-10 6.65802e-11 2.35319e-11 8.0499e-12 2.93972e-12 1.04286e-12 2.40959e-13 -3.05609e-14 4.17787e-14 7.2814e-14 -8.1546e-15 -3.17942e-14 -7.76038e-14 1.21588e-13 1.04083e-13 0 0 4.70147e-15 9.12726e-15 7.6537e-15 3.87758e-15 7.14789e-15 7.68652e-15 9.76339e-15 3.62378e-15 -2.85057e-15 -8.92152e-15 -8.39342e-15 1.23576e-14 1.52021e-14 -1.81773e-14 5.7959e-15 8.02226e-15 7.49966e-15 -7.34163e-16 2.30491e-14 7.222e-15 2.08089e-14 -1.35975e-14 1.82651e-16 1.03343e-14 -1.69098e-14 1.69233e-14 2.04606e-14 1.94088e-14 -1.34513e-14 2.56246e-14 -8.33074e-17 6.07441e-14 1.68498e-14 1.11069e-14 4.5778e-14 7.72744e-14 8.34564e-14 1.56525e-13 3.06037e-13 1.66547e-12 1.12449e-11 6.67235e-11 3.77919e-10 2.03e-09 1.03256e-08 4.96282e-08 2.24828e-07 9.57286e-07 3.81847e-06 1.42155e-05 4.91769e-05 0.000157273 0.000462212 0.00123993 0.00301489 0.00660404 0.0129889 0.0229738 0.0368189 0.0541538 0.0742413 0.0963349 0.119884 0.144555 0.17017 0.196644 0.223941 0.252054 0.280994 0.310781 0.341448 0.37303 0.405574 0.439128 0.47375 0.509499 0.546443 0.58465 0.624189 0.665125 0.707504 0.751331 0.796513 0.84272 0.889035 0.932924 0.967215 0.97434 0.964407 0.954634 0.946134 0.940182 0.936762 0.935085 0.934345 0.934015 0.933814 0.933632 0.933546 0.934227 0.934009 0.933854 0.933679 0.933696 0.933677 0.933633 0.933562 0.933465 0.933351 0.93322 0.933081 0.932936 0.932797 0.932669 0.932562 0.932482 0.932434 0.932424 0.932473 0.932979 0.933909 0.933903 0.933717 0.933439 0.933104 0.932818 0.932604 0.932424 0.932395 0.932546 0.934023 0.934965 0.934549 0.933779 0.933218 0.932533 0.93195 0.931529 0.931312 0.931393 0.933045 0.934533 0.934045 0.933193 0.932775 0.932081 0.931762 0.931662 0.93353 0.934218 0.93352 0.933339 0.924995 0.933185 0.877896 0.846348 0.810961 0.753106 0.646504 0.563301 0.434046 0.313941 0.20131 0.113051 0.0551257 0.0239299 0.00965708 0.00375903 0.00144059 0.000548467 0.000208159 7.88411e-05 2.98055e-05 1.12444e-05 4.2316e-06 1.58783e-06 5.93761e-07 2.21154e-07 8.20002e-08 3.025e-08 1.10966e-08 4.04532e-09 1.46489e-09 5.26691e-10 1.87914e-10 6.66645e-11 2.33836e-11 8.25302e-12 2.79231e-12 1.24935e-12 1.12551e-13 -2.03401e-13 1.60306e-14 4.06802e-14 9.22527e-14 6.44157e-14 -1.04931e-13 5.40815e-14 1.85631e-13 0 0 3.05323e-16 1.00498e-14 2.77815e-15 1.25288e-14 8.77678e-15 4.91913e-15 5.24447e-15 4.28786e-15 -7.81125e-15 -7.10813e-15 5.09667e-15 7.41157e-15 1.39784e-14 -1.48954e-14 -4.01233e-15 4.6979e-15 9.74263e-15 -7.80315e-15 2.51604e-14 1.31707e-14 5.998e-15 -1.24927e-14 -1.64897e-14 7.86178e-15 -3.35673e-14 3.00225e-14 1.18787e-14 4.38089e-14 -1.47126e-14 1.2602e-14 3.41329e-14 4.53287e-14 5.43524e-14 2.7991e-14 5.06959e-14 6.80893e-14 1.12865e-13 1.13737e-13 2.91447e-13 1.7294e-12 1.11196e-11 6.66951e-11 3.7792e-10 2.02995e-09 1.03256e-08 4.96283e-08 2.24828e-07 9.57286e-07 3.81847e-06 1.42155e-05 4.91769e-05 0.000157273 0.000462212 0.00123993 0.00301489 0.00660404 0.0129889 0.0229738 0.0368189 0.0541538 0.0742413 0.0963349 0.119884 0.144555 0.17017 0.196644 0.223941 0.252054 0.280994 0.310781 0.341448 0.37303 0.405574 0.439128 0.47375 0.509499 0.546443 0.58465 0.624189 0.665125 0.707504 0.751331 0.796513 0.84272 0.889035 0.932924 0.967215 0.97434 0.964407 0.954634 0.946134 0.940182 0.936762 0.935085 0.934345 0.934015 0.933814 0.933632 0.933546 0.934227 0.934009 0.933854 0.933679 0.933696 0.933677 0.933633 0.933562 0.933465 0.933351 0.93322 0.933081 0.932936 0.932797 0.932669 0.932562 0.932482 0.932434 0.932424 0.932473 0.932979 0.933909 0.933903 0.933717 0.933439 0.933104 0.932818 0.932604 0.932424 0.932395 0.932546 0.934023 0.934965 0.934549 0.933779 0.933218 0.932533 0.93195 0.931529 0.931312 0.931393 0.933045 0.934533 0.934045 0.933193 0.932775 0.932081 0.931762 0.931662 0.93353 0.934218 0.93352 0.933339 0.924995 0.933185 0.877896 0.846348 0.810961 0.753106 0.646504 0.563301 0.434046 0.313941 0.20131 0.113051 0.0551257 0.0239299 0.00965708 0.00375903 0.00144059 0.000548467 0.000208159 7.88411e-05 2.98055e-05 1.12444e-05 4.2316e-06 1.58783e-06 5.93761e-07 2.21154e-07 8.20002e-08 3.02501e-08 1.10965e-08 4.04533e-09 1.465e-09 5.2662e-10 1.8795e-10 6.6847e-11 2.31583e-11 8.33756e-12 2.83071e-12 1.03764e-12 1.93833e-13 -1.18116e-13 6.43955e-14 -1.34005e-13 5.05957e-14 1.87725e-14 -7.2145e-15 -9.7375e-15 4.50557e-14 0 0 -1.76115e-15 5.54687e-15 5.86926e-15 1.26173e-14 2.90382e-15 1.41776e-14 -5.24911e-15 3.58417e-15 -1.8363e-14 1.5791e-14 5.378e-15 2.48048e-15 -2.369e-15 4.27302e-15 2.50148e-15 7.8224e-15 -1.07273e-15 -4.24278e-15 3.89364e-14 -3.69679e-15 -4.07279e-15 -4.71981e-14 -8.23752e-15 1.92865e-14 -1.94998e-14 -5.40568e-15 6.64423e-15 5.61466e-14 1.51007e-14 -4.60881e-15 3.34407e-14 4.11992e-14 5.76314e-14 8.0881e-14 8.11741e-14 3.87775e-16 1.79739e-13 6.56042e-14 2.23579e-13 1.87315e-12 1.10188e-11 6.66523e-11 3.77909e-10 2.02992e-09 1.03257e-08 4.96282e-08 2.24828e-07 9.57286e-07 3.81847e-06 1.42155e-05 4.91769e-05 0.000157273 0.000462212 0.00123993 0.00301489 0.00660404 0.0129889 0.0229738 0.0368189 0.0541538 0.0742413 0.0963349 0.119884 0.144555 0.17017 0.196644 0.223941 0.252054 0.280994 0.310781 0.341448 0.37303 0.405574 0.439128 0.47375 0.509499 0.546443 0.58465 0.624189 0.665125 0.707504 0.751331 0.796513 0.84272 0.889035 0.932924 0.967215 0.97434 0.964407 0.954634 0.946134 0.940182 0.936762 0.935085 0.934345 0.934015 0.933814 0.933632 0.933546 0.934227 0.934009 0.933854 0.933679 0.933696 0.933677 0.933633 0.933562 0.933465 0.933351 0.93322 0.933081 0.932936 0.932797 0.932669 0.932562 0.932482 0.932434 0.932424 0.932473 0.932979 0.933909 0.933903 0.933717 0.933439 0.933104 0.932818 0.932604 0.932424 0.932395 0.932546 0.934023 0.934965 0.934549 0.933779 0.933218 0.932533 0.93195 0.931529 0.931312 0.931393 0.933045 0.934533 0.934045 0.933193 0.932775 0.932081 0.931762 0.931662 0.93353 0.934218 0.93352 0.933339 0.924995 0.933185 0.877896 0.846348 0.810961 0.753106 0.646504 0.563301 0.434046 0.313941 0.20131 0.113051 0.0551257 0.0239299 0.00965708 0.00375903 0.00144059 0.000548467 0.000208159 7.88411e-05 2.98055e-05 1.12444e-05 4.2316e-06 1.58783e-06 5.93761e-07 2.21154e-07 8.20003e-08 3.025e-08 1.10965e-08 4.04539e-09 1.46499e-09 5.26644e-10 1.8788e-10 6.69889e-11 2.33229e-11 8.21451e-12 2.85148e-12 9.34775e-13 4.72986e-14 -3.54081e-15 9.61865e-14 -1.85857e-13 -1.81772e-14 7.53505e-16 -5.66165e-14 -1.20407e-13 1.11917e-14 0
				</DataArray>
				<DataArray Name="VitesseY" type="Float32" format="ascii">