<?xml version="1.0"?>
<VTKFile type="PolyData">
	<PolyData>
		<Piece NumberOfPoints="1206" NumberOfPolys="1000">
			<Points>
				<DataArray type="Float32" NumberOfComponents="3" format="ascii">
 0 0 0 0.005 0 0 0.01 0 0 0.015 0 0 0.02 0 0 0.025 0 0 0.03 0 0 0.035 0 0 0.04 0 0 0.045 0 0 0.05 0 0 0.055 0 0 0.06 0 0 0.065 0 0 0.07 0 0 0.075 0 0 0.08 0 0 0.085 0 0 0.09 0 0 0.095 0 0 0.1 0 0 0.105 0 0 0.11 0 0 0.115 0 0 0.12 0 0 0.125 0 0 0.13 0 0 0.135 0 0 0.14 0 0 0.145 0 0 0.15 0 0 0.155 0 0 0.16 0 0 0.165 0 0 0.17 0 0 0.175 0 0 0.18 0 0 0.185 0 0 0.19 0 0 0.195 0 0 0.2 0 0 0.205 0 0 0.21 0 0 0.215 0 0 0.22 0 0 0.225 0 0 0.23 0 0 0.235 0 0 0.240001 0 0 0.245004 0 0 0.250011 0 0 0.255026 0 0 0.260057 0 0 0.265117 0 0 0.270218 0 0 0.275375 0 0 0.280603 0 0 0.285914 0 0 0.291315 0 0 0.296815 0 0 0.302421 0 0 0.308138 0 0 0.313974 0 0 0.319934 0 0 0.326025 0 0 0.332254 0 0 0.338629 0 0 0.345158 0 0 0.351849 0 0 0.358712 0 0 0.365757 0 0 0.372995 0 0 0.380439 0 0 0.388101 0 0 0.395996 0 0 0.404141 0 0 0.412551 0 0 0.421248 0 0 0.430252 0 0 0.439587 0 0 0.449277 0 0 0.459352 0 0 0.469837 0 0 0.480759 0 0 0.49213 0 0 0.503925 0 0 0.516014 0 0 0.528116 0 0 0.540136 0 0 0.552069 0 0 0.563925 0 0 0.575727 0 0 0.587496 0 0 0.599247 0 0 0.610989 0 0 0.622726 0 0 0.634462 0 0 0.646197 0 0 0.657932 0 0 0.66967 0 0 0.681421 0 0 0.684033 0 0 0.686571 0 0 0.689062 0 0 0.691522 0 0 0.69396 0 0 0.696381 0 0 0.69879 0 0 0.701191 0 0 0.703585 0 0 0.705974 0 0 0.70836 0 0 0.710741 0 0 0.713119 0 0 0.715493 0 0 0.717864 0 0 0.720233 0 0 0.722599 0 0 0.724963 0 0 0.727325 0 0 0.729686 0 0 0.732046 0 0 0.734405 0 0 0.736763 0 0 0.739121 0 0 0.741478 0 0 0.743835 0 0 0.746191 0 0 0.748547 0 0 0.750903 0 0 0.753258 0 0 0.755614 0 0 0.757969 0 0 0.760324 0 0 0.762679 0 0 0.765034 0 0 0.767388 0 0 0.769743 0 0 0.772098 0 0 0.774452 0 0 0.776807 0 0 0.779161 0 0 0.781516 0 0 0.78387 0 0 0.786225 0 0 0.78858 0 0 0.790934 0 0 0.793289 0 0 0.795644 0 0 0.797998 0 0 0.800353 0 0 0.802708 0 0 0.805063 0 0 0.807419 0 0 0.809775 0 0 0.812131 0 0 0.81449 0 0 0.816849 0 0 0.819213 0 0 0.821582 0 0 0.823963 0 0 0.826356 0 0 0.82878 0 0 0.831233 0 0 0.833754 0 0 0.836335 0 0 0.83905 0 0 0.841905 0 0 0.845005 0 0 0.848383 0 0 0.852106 0 0 0.856183 0 0 0.860592 0 0 0.865264 0 0 0.870107 0 0 0.875041 0 0 0.880015 0 0 0.885006 0 0 0.890002 0 0 0.895001 0 0 0.9 0 0 0.905 0 0 0.91 0 0 0.915 0 0 0.92 0 0 0.925 0 0 0.93 0 0 0.935 0 0 0.94 0 0 0.945 0 0 0.95 0 0 0.955 0 0 0.96 0 0 0.965 0 0 0.97 0 0 0.975 0 0 0.98 0 0 0.985 0 0 0.99 0 0 0.995 0 0 1 0 0 0 0.02 0 0.005 0.02 0 0.01 0.02 0 0.015 0.02 0 0.02 0.02 0 0.025 0.02 0 0.03 0.02 0 0.035 0.02 0 0.04 0.02 0 0.045 0.02 0 0.05 0.02 0 0.055 0.02 0 0.06 0.02 0 0.065 0.02 0 0.07 0.02 0 0.075 0.02 0 0.08 0.02 0 0.085 0.02 0 0.09 0.02 0 0.095 0.02 0 0.1 0.02 0 0.105 0.02 0 0.11 0.02 0 0.115 0.02 0 0.12 0.02 0 0.125 0.02 0 0.13 0.02 0 0.135 0.02 0 0.14 0.02 0 0.145 0.02 0 0.15 0.02 0 0.155 0.02 0 0.16 0.02 0 0.165 0.02 0 0.17 0.02 0 0.175 0.02 0 0.18 0.02 0 0.185 0.02 0 0.19 0.02 0 0.195 0.02 0 0.2 0.02 0 0.205 0.02 0 0.21 0.02 0 0.215 0.02 0 0.22 0.02 0 0.225 0.02 0 0.23 0.02 0 0.235 0.02 0 0.240001 0.02 0 0.245004 0.02 0 0.250011 0.02 0 0.255026 0.02 0 0.260057 0.02 0 0.265117 0.02 0 0.270218 0.02 0 0.275375 0.02 0 0.280603 0.02 0 0.285914 0.02 0 0.291315 0.02 0 0.296815 0.02 0 0.302421 0.02 0 0.308138 0.02 0 0.313974 0.02 0 0.319934 0.02 0 0.326025 0.02 0 0.332254 0.02 0 0.338629 0.02 0 0.345158 0.02 0 0.351849 0.02 0 0.358712 0.02 0 0.365757 0.02 0 0.372995 0.02 0 0.380439 0.02 0 0.388101 0.02 0 0.395996 0.02 0 0.404141 0.02 0 0.412551 0.02 0 0.421248 0.02 0 0.430252 0.02 0 0.439587 0.02 0 0.449277 0.02 0 0.459352 0.02 0 0.469837 0.02 0 0.480759 0.02 0 0.49213 0.02 0 0.503925 0.02 0 0.516014 0.02 0 0.528116 0.02 0 0.540136 0.02 0 0.552069 0.02 0 0.563925 0.02 0 0.575727 0.02 0 0.587496 0.02 0 0.599247 0.02 0 0.610989 0.02 0 0.622726 0.02 0 0.634462 0.02 0 0.646197 0.02 0 0.657932 0.02 0 0.66967 0.02 0 0.681421 0.02 0 0.684033 0.02 0 0.686571 0.02 0 0.689062 0.02 0 0.691522 0.02 0 0.69396 0.02 0 0.696381 0.02 0 0.69879 0.02 0 0.701191 0.02 0 0.703585 0.02 0 0.705974 0.02 0 0.70836 0.02 0 0.710741 0.02 0 0.713119 0.02 0 0.715493 0.02 0 0.717864 0.02 0 0.720233 0.02 0 0.722599 0.02 0 0.724963 0.02 0 0.727325 0.02 0 0.729686 0.02 0 0.732046 0.02 0 0.734405 0.02 0 0.736763 0.02 0 0.739121 0.02 0 0.741478 0.02 0 0.743835 0.02 0 0.746191 0.02 0 0.748547 0.02 0 0.750903 0.02 0 0.753258 0.02 0 0.755614 0.02 0 0.757969 0.02 0 0.760324 0.02 0 0.762679 0.02 0 0.765034 0.02 0 0.767388 0.02 0 0.769743 0.02 0 0.772098 0.02 0 0.774452 0.02 0 0.776807 0.02 0 0.779161 0.02 0 0.781516 0.02 0 0.78387 0.02 0 0.786225 0.02 0 0.78858 0.02 0 0.790934 0.02 0 0.793289 0.02 0 0.795644 0.02 0 0.797998 0.02 0 0.800353 0.02 0 0.802708 0.02 0 0.805063 0.02 0 0.807419 0.02 0 0.809775 0.02 0 0.812131 0.02 0 0.81449 0.02 0 0.816849 0.02 0 0.819213 0.02 0 0.821582 0.02 0 0.823963 0.02 0 0.826356 0.02 0 0.82878 0.02 0 0.831233 0.02 0 0.833754 0.02 0 0.836335 0.02 0 0.83905 0.02 0 0.841905 0.02 0 0.845005 0.02 0 0.848383 0.02 0 0.852106 0.02 0 0.856183 0.02 0 0.860592 0.02 0 0.865264 0.02 0 0.870107 0.02 0 0.875041 0.02 0 0.880015 0.02 0 0.885006 0.02 0 0.890002 0.02 0 0.895001 0.02 0 0.9 0.02 0 0.905 0.02 0 0.91 0.02 0 0.915 0.02 0 0.92 0.02 0 0.925 0.02 0 0.93 0.02 0 0.935 0.02 0 0.94 0.02 0 0.945 0.02 0 0.95 0.02 0 0.955 0.02 0 0.96 0.02 0 0.965 0.02 0 0.97 0.02 0 0.975 0.02 0 0.98 0.02 0 0.985 0.02 0 0.99 0.02 0 0.995 0.02 0 1 0.02 0 0 0.04 0 0.005 0.04 0 0.01 0.04 0 0.015 0.04 0 0.02 0.04 0 0.025 0.04 0 0.03 0.04 0 0.035 0.04 0 0.04 0.04 0 0.045 0.04 0 0.05 0.04 0 0.055 0.04 0 0.06 0.04 0 0.065 0.04 0 0.07 0.04 0 0.075 0.04 0 0.08 0.04 0 0.085 0.04 0 0.09 0.04 0 0.095 0.04 0 0.1 0.04 0 0.105 0.04 0 0.11 0.04 0 0.115 0.04 0 0.12 0.04 0 0.125 0.04 0 0.13 0.04 0 0.135 0.04 0 0.14 0.04 0 0.145 0.04 0 0.15 0.04 0 0.155 0.04 0 0.16 0.04 0 0.165 0.04 0 0.17 0.04 0 0.175 0.04 0 0.18 0.04 0 0.185 0.04 0 0.19 0.04 0 0.195 0.04 0 0.2 0.04 0 0.205 0.04 0 0.21 0.04 0 0.215 0.04 0 0.22 0.04 0 0.225 0.04 0 0.23 0.04 0 0.235 0.04 0 0.240001 0.04 0 0.245004 0.04 0 0.250011 0.04 0 0.255026 0.04 0 0.260057 0.04 0 0.265117 0.04 0 0.270218 0.04 0 0.275375 0.04 0 0.280603 0.04 0 0.285914 0.04 0 0.291315 0.04 0 0.296815 0.04 0 0.302421 0.04 0 0.308138 0.04 0 0.313974 0.04 0 0.319934 0.04 0 0.326025 0.04 0 0.332254 0.04 0 0.338629 0.04 0 0.345158 0.04 0 0.351849 0.04 0 0.358712 0.04 0 0.365757 0.04 0 0.372995 0.04 0 0.380439 0.04 0 0.388101 0.04 0 0.395996 0.04 0 0.404141 0.04 0 0.412551 0.04 0 0.421248 0.04 0 0.430252 0.04 0 0.439587 0.04 0 0.449277 0.04 0 0.459352 0.04 0 0.469837 0.04 0 0.480759 0.04 0 0.49213 0.04 0 0.503925 0.04 0 0.516014 0.04 0 0.528116 0.04 0 0.540136 0.04 0 0.552069 0.04 0 0.563925 0.04 0 0.575727 0.04 0 0.587496 0.04 0 0.599247 0.04 0 0.610989 0.04 0 0.622726 0.04 0 0.634462 0.04 0 0.646197 0.04 0 0.657932 0.04 0 0.66967 0.04 0 0.681421 0.04 0 0.684033 0.04 0 0.686571 0.04 0 0.689062 0.04 0 0.691522 0.04 0 0.69396 0.04 0 0.696381 0.04 0 0.69879 0.04 0 0.701191 0.04 0 0.703585 0.04 0 0.705974 0.04 0 0.70836 0.04 0 0.710741 0.04 0 0.713119 0.04 0 0.715493 0.04 0 0.717864 0.04 0 0.720233 0.04 0 0.722599 0.04 0 0.724963 0.04 0 0.727325 0.04 0 0.729686 0.04 0 0.732046 0.04 0 0.734405 0.04 0 0.736763 0.04 0 0.739121 0.04 0 0.741478 0.04 0 0.743835 0.04 0 0.746191 0.04 0 0.748547 0.04 0 0.750903 0.04 0 0.753258 0.04 0 0.755614 0.04 0 0.757969 0.04 0 0.760324 0.04 0 0.762679 0.04 0 0.765034 0.04 0 0.767388 0.04 0 0.769743 0.04 0 0.772098 0.04 0 0.774452 0.04 0 0.776807 0.04 0 0.779161 0.04 0 0.781516 0.04 0 0.78387 0.04 0 0.786225 0.04 0 0.78858 0.04 0 0.790934 0.04 0 0.793289 0.04 0 0.795644 0.04 0 0.797998 0.04 0 0.800353 0.04 0 0.802708 0.04 0 0.805063 0.04 0 0.807419 0.04 0 0.809775 0.04 0 0.812131 0.04 0 0.81449 0.04 0 0.816849 0.04 0 0.819213 0.04 0 0.821582 0.04 0 0.823963 0.04 0 0.826356 0.04 0 0.82878 0.04 0 0.831233 0.04 0 0.833754 0.04 0 0.836335 0.04 0 0.83905 0.04 0 0.841905 0.04 0 0.845005 0.04 0 0.848383 0.04 0 0.852106 0.04 0 0.856183 0.04 0 0.860592 0.04 0 0.865264 0.04 0 0.870107 0.04 0 0.875041 0.04 0 0.880015 0.04 0 0.885006 0.04 0 0.890002 0.04 0 0.895001 0.04 0 0.9 0.04 0 0.905 0.04 0 0.91 0.04 0 0.915 0.04 0 0.92 0.04 0 0.925 0.04 0 0.93 0.04 0 0.935 0.04 0 0.94 0.04 0 0.945 0.04 0 0.95 0.04 0 0.955 0.04 0 0.96 0.04 0 0.965 0.04 0 0.97 0.04 0 0.975 0.04 0 0.98 0.04 0 0.985 0.04 0 0.99 0.04 0 0.995 0.04 0 1 0.04 0 0 0.06 0 0.005 0.06 0 0.01 0.06 0 0.015 0.06 0 0.02 0.06 0 0.025 0.06 0 0.03 0.06 0 0.035 0.06 0 0.04 0.06 0 0.045 0.06 0 0.05 0.06 0 0.055 0.06 0 0.06 0.06 0 0.065 0.06 0 0.07 0.06 0 0.075 0.06 0 0.08 0.06 0 0.085 0.06 0 0.09 0.06 0 0.095 0.06 0 0.1 0.06 0 0.105 0.06 0 0.11 0.06 0 0.115 0.06 0 0.12 0.06 0 0.125 0.06 0 0.13 0.06 0 0.135 0.06 0 0.14 0.06 0 0.145 0.06 0 0.15 0.06 0 0.155 0.06 0 0.16 0.06 0 0.165 0.06 0 0.17 0.06 0 0.175 0.06 0 0.18 0.06 0 0.185 0.06 0 0.19 0.06 0 0.195 0.06 0 0.2 0.06 0 0.205 0.06 0 0.21 0.06 0 0.215 0.06 0 0.22 0.06 0 0.225 0.06 0 0.23 0.06 0 0.235 0.06 0 0.240001 0.06 0 0.245004 0.06 0 0.250011 0.06 0 0.255026 0.06 0 0.260057 0.06 0 0.265117 0.06 0 0.270218 0.06 0 0.275375 0.06 0 0.280603 0.06 0 0.285914 0.06 0 0.291315 0.06 0 0.296815 0.06 0 0.302421 0.06 0 0.308138 0.06 0 0.313974 0.06 0 0.319934 0.06 0 0.326025 0.06 0 0.332254 0.06 0 0.338629 0.06 0 0.345158 0.06 0 0.351849 0.06 0 0.358712 0.06 0 0.365757 0.06 0 0.372995 0.06 0 0.380439 0.06 0 0.388101 0.06 0 0.395996 0.06 0 0.404141 0.06 0 0.412551 0.06 0 0.421248 0.06 0 0.430252 0.06 0 0.439587 0.06 0 0.449277 0.06 0 0.459352 0.06 0 0.469837 0.06 0 0.480759 0.06 0 0.49213 0.06 0 0.503925 0.06 0 0.516014 0.06 0 0.528116 0.06 0 0.540136 0.06 0 0.552069 0.06 0 0.563925 0.06 0 0.575727 0.06 0 0.587496 0.06 0 0.599247 0.06 0 0.610989 0.06 0 0.622726 0.06 0 0.634462 0.06 0 0.646197 0.06 0 0.657932 0.06 0 0.66967 0.06 0 0.681421 0.06 0 0.684033 0.06 0 0.686571 0.06 0 0.689062 0.06 0 0.691522 0.06 0 0.69396 0.06 0 0.696381 0.06 0 0.69879
[...]
			<PointData Scalars="VitesseX">
				<DataArray Name="VitesseX" type="Float32" format="ascii">
 0 5.33407e-15 4.44352e-15 2.0422e-15 1.77638e-15 4.43286e-15 -3.09289e-16 -6.56185e-15 -1.23896e-15 7.84291e-16 -8.13237e-15 -1.58812e-14 -1.04031e-14 -9.63109e-15 -2.55056e-14 -1.47296e-14 -3.37009e-14 -3.92825e-14 -3.47335e-14 -3.95539e-14 -4.55514e-14 -4.01733e-14 -1.96505e-14 -4.02514e-14 -3.0835e-14 -2.33484e-14 1.70177e-15 -2.57439e-14 -1.89413e-14 -1.35203e-14 -1.46765e-14 2.38347e-15 9.59622e-15 9.47636e-14 4.68289e-13 2.75425e-12 1.55961e-11 8.67771e-11 4.59408e-10 2.3162e-09 1.10959e-08 5.04007e-08 2.16574e-07 8.78112e-07 3.34961e-06 1.19806e-05 4.0023e-05 0.000124312 0.000357102 0.000943092 0.00227534 0.00498582 0.00988438 0.0177275 0.0289069 0.0432866 0.0603245 0.0793587 0.0998342 0.121379 0.143777 0.166915 0.190735 0.215213 0.240344 0.266134 0.292597 0.319752 0.347626 0.376248 0.405651 0.435874 0.466956 0.498943 0.531882 0.565823 0.600816 0.636909 0.674142 0.712538 0.752081 0.792665 0.833996 0.875318 0.914713 0.947156 0.960055 0.952826 0.945809 0.939117 0.934106 0.930956 0.929227 0.928343 0.927881 0.927618 0.927456 0.92735 0.927275 0.927219 0.927174 0.927165 0.927157 0.927149 0.927142 0.927134 0.927127 0.927119 0.927112 0.927105 0.927098 0.927091 0.927083 0.927076 0.927069 0.927061 0.927053 0.927045 0.927036 0.927027 0.927018 0.927009 0.927 0.926991 0.926981 0.926971 0.926961 0.926951 0.926941 0.926931 0.926921 0.92691 0.926898 0.926886 0.926874 0.926861 0.926847 0.926832 0.926816 0.926799 0.926783 0.926763 0.926746 0.926722 0.926706 0.926676 0.926662 0.92662 0.926611 0.926543 0.926541 0.926409 0.926413 0.926117 0.926136 0.925367 0.925434 0.923296 0.923505 0.917533 0.918182 0.902425 0.904387 0.867738 0.872945 0.801519 0.796051 0.686539 0.621163 0.493504 0.374539 0.250736 0.147388 0.0741556 0.0323895 0.0128295 0.0048302 0.00177914 0.000649657 0.000236398 8.58808e-05 3.11664e-05 1.12991e-05 4.09174e-06 1.4797e-06 5.34203e-07 1.92468e-07 6.91776e-08 2.47941e-08 8.85753e-09 3.15271e-09 1.11732e-09 3.94144e-10 1.38288e-10 4.8244e-11 1.66741e-11 5.65031e-12 2.02039e-12 5.98373e-13 1.87158e-13 0 0 5.12159e-16 -3.93051e-16 2.11308e-15 1.31063e-15 1.17001e-15 -1.69697e-15 -2.75126e-15 -7.38966e-15 -4.11601e-15 -8.01047e-15 -9.15128e-15 -1.86807e-14 -1.50163e-14 -1.98855e-14 -1.05492e-14 -3.50701e-14 -3.44634e-14 -3.83526e-14 -3.75274e-14 -3.774e-14 -3.93687e-14 -3.37576e-14 -3.50491e-14 -1.4116e-14 -1.12949e-14 -2.59477e-14 -1.55785e-14 -2.7371e-14 -1.71019e-14 -1.62026e-14 2.45496e-14 6.70305e-16 1.03363e-13 4.75769e-13 2.7376e-12 1.5643e-11 8.67496e-11 4.59418e-10 2.31623e-09 1.10959e-08 5.04008e-08 2.16574e-07 8.78112e-07 3.34961e-06 1.19806e-05 4.0023e-05 0.000124312 0.000357102 0.000943092 0.00227534 0.00498582 0.00988438 0.0177275 0.0289069 0.0432866 0.0603245 0.0793587 0.0998342 0.121379 0.143777 0.166915 0.190735 0.215213 0.240344 0.266134 0.292597 0.319752 0.347626 0.376248 0.405651 0.435874 0.466956 0.498943 0.531882 0.565823 0.600816 0.636909 0.674142 0.712538 0.752081 0.792665 0.833996 0.875318 0.914713 0.947156 0.960055 0.952826 0.945809 0.939117 0.934106 0.930956 0.929227 0.928343 0.927881 0.927618 0.927456 0.92735 0.927275 0.927219 0.927174 0.927165 0.927157 0.927149 0.927142 0.927134 0.927127 0.927119 0.927112 0.927105 0.927098 0.927091 0.927083 0.927076 0.927069 0.927061 0.927053 0.927045 0.927036 0.927027 0.927018 0.927009 0.927 0.926991 0.926981 0.926971 0.926961 0.926951 0.926941 0.926931 0.926921 0.92691 0.926898 0.926886 0.926874 0.926861 0.926847 0.926832 0.926816 0.926799 0.926783 0.926763 0.926746 0.926722 0.926706 0.926676 0.926662 0.92662 0.926611 0.926543 0.926541 0.926409 0.926413 0.926117 0.926136 0.925367 0.925434 0.923296 0.923505 0.917533 0.918182 0.902425 0.904387 0.867738 0.872945 0.801519 0.796051 0.686539 0.621163 0.493504 0.374539 0.250736 0.147388 0.0741556 0.0323895 0.0128295 0.0048302 0.00177914 0.000649657 0.000236398 8.58808e-05 3.11664e-05 1.12991e-05 4.09174e-06 1.4797e-06 5.34203e-07 1.92468e-07 6.91776e-08 2.47942e-08 8.85755e-09 3.15257e-09 1.11736e-09 3.94086e-10 1.3831e-10 4.81402e-11 1.668e-11 5.62329e-12 2.01007e-12 5.55008e-13 1.27834e-13 0 0 -3.73464e-15 -3.23967e-15 -2.3872e-15 2.90677e-15 -2.12215e-15 -3.87837e-15 -7.00689e-15 -5.72313e-15 -6.301e-15 -1.19071e-14 -9.47726e-15 -1.47393e-14 -1.65587e-14 -1.85884e-14 -2.32314e-14 -3.22604e-14 -2.95486e-14 -3.94168e-14 -3.52753e-14 -3.37625e-14 -3.85905e-14 -3.44481e-14 -1.9632e-14 -8.31882e-15 -4.10918e-15 -2.05277e-14 -3.50997e-14 -1.88063e-14 -1.49127e-14 -3.28272e-14 3.55617e-14 3.26491e-14 1.28967e-13 4.94751e-13 2.75534e-12 1.56705e-11 8.67666e-11 4.59407e-10 2.31623e-09 1.10959e-08 5.04007e-08 2.16574e-07 8.78112e-07 3.34961e-06 1.19806e-05 4.0023e-05 0.000124312 0.000357102 0.000943092 0.00227534 0.00498582 0.00988438 0.0177275 0.0289069 0.0432866 0.0603245 0.0793587 0.0998342 0.121379 0.143777 0.166915 0.190735 0.215213 0.240344 0.266134 0.292597 0.319752 0.347626 0.376248 0.405651 0.435874 0.466956 0.498943 0.531882 0.565823 0.600816 0.636909 0.674142 0.712538 0.752081 0.792665 0.833996 0.875318 0.914713 0.947156 0.960055 0.952826 0.945809 0.939117 0.934106 0.930956 0.929227 0.928343 0.927881 0.927618 0.927456 0.92735 0.927275 0.927219 0.927174 0.927165 0.927157 0.927149 0.927142 0.927134 0.927127 0.927119 0.927112 0.927105 0.927098 0.927091 0.927083 0.927076 0.927069 0.927061 0.927053 0.927045 0.927036 0.927027 0.927018 0.927009 0.927 0.926991 0.926981 0.926971 0.926961 0.926951 0.926941 0.926931 0.926921 0.92691 0.926898 0.926886 0.926874 0.926861 0.926847 0.926832 0.926816 0.926799 0.926783 0.926763 0.926746 0.926722 0.926706 0.926676 0.926662 0.92662 0.926611 0.926543 0.926541 0.926409 0.926413 0.926117 0.926136 0.925367 0.925434 0.923296 0.923505 0.917533 0.918182 0.902425 0.904387 0.867738 0.872945 0.801519 0.796051 0.686539 0.621163 0.493504 0.374539 0.250736 0.147388 0.0741556 0.0323895 0.0128295 0.0048302 0.00177914 0.000649657 0.000236398 8.58808e-05 3.11664e-05 1.12991e-05 4.09174e-06 1.4797e-06 5.34203e-07 1.92468e-07 6.91776e-08 2.47941e-08 8.85753e-09 3.15255e-09 1.11735e-09 3.94065e-10 1.38246e-10 4.80567e-11 1.65907e-11 5.55688e-12 1.90879e-12 4.99426e-13 1.68769e-13 0 0 -8.33153e-16 -2.27081e-15 -6.62557e-15 -2.24811e-15 -4.3962e-15 -9.69872e-15 -1.09403e-14 -5.65136e-15 -6.81058e-15 -3.23562e-15 -1.57328e-14 -1.71835e-14 -2.0676e-14 -1.09278e-14 -4.09052e-14 -2.32174e-14 -3.68877e-14 -1.31758e-14 -4.24258e-14 -3.16322e-14 -3.43867e-14 -3.04667e-14 -9.79013e-15 -1.66508e-14 -5.82002e-15 -1.61592e-14 -3.35755e-14 -8.98713e-15 -3.26021e-15 -3.13508e-14 3.40116e-14 4.7672e-14 1.36131e-13 5.18879e-13 2.7889e-12 1.56835e-11 8.68174e-11 4.59411e-10 2.31624e-09 1.10959e-08 5.04007e-08 2.16574e-07 8.78112e-07 3.34961e-06 1.19806e-05 4.0023e-05 0.000124312 0.000357102 0.000943092 0.00227534 0.00498582 0.00988438 0.0177275 0.0289069 0.0432866 0.0603245 0.0793587 0.0998342 0.121379 0.143777 0.166915 0.190735 0.215213 0.240344 0.266134 0.292597 0.319752 0.347626 0.376248 0.405651 0.435874 0.466956 0.498943 0.531882 0.565823 0.600816 0.636909 0.674142 0.712538 0.752081 0.792665 0.833996 0.875318 0.914713 0.947156 0.960055 0.952826 0.945809 0.939117 0.934106 0.930956 0.929227 0.928343 0.927881 0.927618 0.927456 0.92735 0.927275 0.927219 0.927174 0.927165 0.927157 0.927149 0.927142 0.927134 0.927127 0.927119 0.927112 0.927105 0.927098 0.927091 0.927083 0.927076 0.927069 0.927061 0.927053 0.927045 0.927036 0.927027 0.927018 0.927009 0.927 0.926991 0.926981 0.926971 0.926961 0.926951 0.926941 0.926931 0.926921 0.92691 0.926898 0.926886 0.926874 0.926861 0.926847 0.926832 0.926816 0.926799 0.926783 0.926763 0.926746 0.926722 0.926706 0.926676 0.926662 0.92662 0.926611 0.926543 0.926541 0.926409 0.926413 0.926117 0.926136 0.925367 0.925434 0.923296 0.923505 0.917533 0.918182 0.902425 0.904387 0.867738 0.872945 0.801519 0.796051 0.686539 0.621163 0.493504 0.374539 0.250736 0.147388 0.0741556 0.0323895 0.0128295 0.0048302 0.00177914 0.000649657 0.000236398 8.58808e-05 3.11664e-05 1.12991e-05 4.09174e-06 1.4797e-06 5.34203e-07 1.92468e-07 6.91776e-08 2.4794e-08 8.85762e-09 3.15256e-09 1.11719e-09 3.94043e-10 1.38225e-10 4.80648e-11 1.65472e-11 5.43752e-12 1.7589e-12 4.63063e-13 2.21609e-13 0 0 1.24148e-15 -5.75753e-15 -5.33586e-15 -1.35308e-14 -1.11633e-14 -7.54981e-15 -1.47237e-14 -1.98138e-14 -1.59912e-14 -1.14806e-14 -2.27184e-15 -3.11592e-14 -2.48314e-14 -2.46036e-14 -2.64083e-14 -2.85087e-14 -4.17138e-14 -1.73385e-14 -7.99185e-15 -2.14111e-14 -1.05129e-14 -2.27875e-14 -3.69572e-14 -2.37662e-14 7.80819e-15 -1.97694e-14 -1.41364e-14 -2.08433e-14 -5.54407e-15 -1.07316e-14 1.3199e-14 3.42522e-14 1.196e-13 5.63064e-13 2.80519e-12 1.57269e-11 8.68477e-11 4.59444e-10 2.31628e-09 1.10958e-08 5.04008e-08 2.16574e-07 8.78112e-07 3.34961e-06 1.19806e-05 4.0023e-05 0.000124312 0.000357102 0.000943092 0.00227534 0.00498582 0.00988438 0.0177275 0.0289069 0.0432866 0.0603245 0.0793587 0.0998342 0.121379 0.143777 0.166915 0.190735 0.215213 0.240344 0.266134 0.292597 0.319752 0.347626 0.376248 0.405651 0.435874 0.466956 0.498943 0.531882 0.565823 0.600816 0.636909 0.674142 0.712538 0.752081 0.792665 0.833996 0.875318 0.914713 0.947156 0.960055 0.952826 0.945809 0.939117 0.934106 0.930956 0.929227 0.928343 0.927881 0.927618 0.927456 0.92735 0.927275 0.927219 0.927174 0.927165 0.927157 0.927149 0.927142 0.927134 0.927127 0.927119 0.927112 0.927105 0.927098 0.927091 0.927083 0.927076 0.927069 0.927061 0.927053 0.927045 0.927036 0.927027 0.927018 0.927009 0.927 0.926991 0.926981 0.926971 0.926961 0.926951 0.926941 0.926931 0.926921 0.92691 0.926898 0.926886 0.926874 0.926861 0.926847 0.926832 0.926816 0.926799 0.926783 0.926763 0.926746 0.926722 0.926706 0.926676 0.926662 0.92662 0.926611 0.926543 0.926541 0.926409 0.926413 0.926117 0.926136 0.925367 0.925434 0.923296 0.923505 0.917533 0.918182 0.902425 0.904387 0.867738 0.872945 0.801519 0.796051 0.686539 0.621163 0.493504 0.374539 0.250736 0.147388 0.0741556 0.0323895 0.0128295 0.0048302 0.00177914 0.000649657 0.000236398 8.58808e-05 3.11664e-05 1.12991e-05 4.09174e-06 1.4797e-06 5.34203e-07 1.92468e-07 6.91776e-08 2.47939e-08 8.85762e-09 3.1525e-09 1.1171e-09 3.94071e-10 1.38083e-10 4.81024e-11 1.65464e-11 5.4074e-12 1.72192e-12 5.28668e-13 5.3139e-14 0 0 9.89745e-16 -8.22318e-15 -4.37894e-15 -1.75967e-14 -1.56857e-14 -3.74257e-16 -2.26399e-14 -2.62307e-14 -2.19468e-14 -3.24157e-14 1.03888e-14 -3.04717e-14 -2.10267e-14 -5.02629e-14 -1.11001e-14 -3.8664e-14 -3.9105e-14 -4.51871e-14 3.38181e-14 -1.71541e-14 9.13057e-15 -5.67307e-15 -6.37515e-14 -3.34715e-14 1.82795e-14 5.32116e-15 -2.59082e-14 -2.55243e-14 -1.37098e-14 -6.6872e-15 -1.72174e-14 4.67143e-14 1.12909e-13 5.9462e-13 2.82231e-12 1.57379e-11 8.68716e-11 4.59452e-10 2.31628e-09 1.10959e-08 5.04007e-08 2.16574e-07 8.78112e-07 3.34961e-06 1.19806e-05 4.0023e-05 0.000124312 0.000357102 0.000943092 0.00227534 0.00498582 0.00988438 0.0177275 0.0289069 0.0432866 0.0603245 0.0793587 0.0998342 0.121379 0.143777 0.166915 0.190735 0.215213 0.240344 0.266134 0.292597 0.319752 0.347626 0.376248 0.405651 0.435874 0.466956 0.498943 0.531882 0.565823 0.600816 0.636909 0.674142 0.712538 0.752081 0.792665 0.833996 0.875318 0.914713 0.947156 0.960055 0.952826 0.945809 0.939117 0.934106 0.930956 0.929227 0.928343 0.927881 0.927618 0.927456 0.92735 0.927275 0.927219 0.927174 0.927165 0.927157 0.927149 0.927142 0.927134 0.927127 0.927119 0.927112 0.927105 0.927098 0.927091 0.927083 0.927076 0.927069 0.927061 0.927053 0.927045 0.927036 0.927027 0.927018 0.927009 0.927 0.926991 0.926981 0.926971 0.926961 0.926951 0.926941 0.926931 0.926921 0.92691 0.926898 0.926886 0.926874 0.926861 0.926847 0.926832 0.926816 0.926799 0.926783 0.926763 0.926746 0.926722 0.926706 0.926676 0.926662 0.92662 0.926611 0.926543 0.926541 0.926409 0.926413 0.926117 0.926136 0.925367 0.925434 0.923296 0.923505 0.917533 0.918182 0.902425 0.904387 0.867738 0.872945 0.801519 0.796051 0.686539 0.621163 0.493504 0.374539 0.250736 0.147388 0.0741556 0.0323895 0.0128295 0.0048302 0.00177914 0.000649657 0.000236398 8.58808e-05 3.11664e-05 1.12991e-05 4.09174e-06 1.4797e-06 5.34203e-07 1.92468e-07 6.91777e-08 2.47939e-08 8.85749e-09 3.15256e-09 1.11712e-09 3.94158e-10 1.37876e-10 4.81522e-11 1.6494e-11 5.4576e-12 1.74345e-12 6.1709e-13 -6.8746e-14 0
				</DataArray>
				<DataArray Name="VitesseY" type="Float32" format="ascii">