<?xml version="1.0"?>
<VTKFile type="PolyData">
	<PolyData>
		<Piece NumberOfPoints="1206" NumberOfPolys="1000">
			<Points>
				<DataArray type="Float32" NumberOfComponents="3" format="ascii">
 0 0 0 0.005 0 0 0.01 0 0 0.015 0 0 0.02 0 0 0.025 0 0 0.03 0 0 0.035 0 0 0.04 0 0 0.045 0 0 0.05 0 0 0.055 0 0 0.06 0 0 0.065 0 0 0.07 0 0 0.075 0 0 0.08 0 0 0.085 0 0 0.09 0 0 0.095 0 0 0.1 0 0 0.105 0 0 0.11 0 0 0.115 0 0 0.12 0 0 0.125 0 0 0.13 0 0 0.135 0 0 0.14 0 0 0.145 0 0 0.15 0 0 0.155 0 0 0.16 0 0 0.165 0 0 0.17 0 0 0.175 0 0 0.18 0 0 0.185 0 0 0.19 0 0 0.195 0 0 0.2 0 0 0.205 0 0 0.21 0 0 0.215 0 0 0.22 0 0 0.225 0 0 0.23 0 0 0.235 0 0 0.24 0 0 0.245 0 0 0.25 0 0 0.255 0 0 0.26 0 0 0.265 0 0 0.27 0 0 0.275 0 0 0.28 0 0 0.285 0 0 0.29 0 0 0.295 0 0 0.3 0 0 0.305 0 0 0.31 0 0 0.315 0 0 0.32 0 0 0.325 0 0 0.33 0 0 0.335 0 0 0.34 0 0 0.345 0 0 0.35 0 0 0.355 0 0 0.36 0 0 0.365 0 0 0.37 0 0 0.375 0 0 0.38 0 0 0.385 0 0 0.39 0 0 0.395002 0 0 0.40001 0 0 0.405034 0 0 0.410102 0 0 0.415259 0 0 0.420565 0 0 0.426081 0 0 0.431865 0 0 0.437967 0 0 0.444442 0 0 0.451349 0 0 0.458763 0 0 0.466772 0 0 0.47549 0 0 0.485055 0 0 0.495626 0 0 0.507314 0 0 0.519848 0 0 0.532292 0 0 0.544445 0 0 0.556395 0 0 0.568266 0 0 0.570555 0 0 0.572844 0 0 0.575133 0 0 0.57742 0 0 0.579707 0 0 0.581992 0 0 0.584274 0 0 0.586555 0 0 0.588838 0 0 0.591118 0 0 0.5934 0 0 0.595692 0 0 0.597985 0 0 0.600279 0 0 0.602571 0 0 0.604862 0 0 0.607157 0 0 0.609452 0 0 0.611771 0 0 0.614169 0 0 0.616642 0 0 0.61929 0 0 0.622102 0 0 0.625144 0 0 0.628489 0 0 0.632182 0 0 0.636235 0 0 0.640623 0 0 0.645279 0 0 0.650113 0 0 0.655042 0 0 0.660015 0 0 0.665005 0 0 0.670002 0 0 0.675001 0 0 0.68 0 0 0.685 0 0 0.69 0 0 0.695 0 0 0.7 0 0 0.705 0 0 0.71 0 0 0.715 0 0 0.72 0 0 0.725 0 0 0.73 0 0 0.735 0 0 0.74 0 0 0.745 0 0 0.75 0 0 0.755 0 0 0.76 0 0 0.765 0 0 0.77 0 0 0.775 0 0 0.78 0 0 0.785 0 0 0.79 0 0 0.795 0 0 0.8 0 0 0.805 0 0 0.81 0 0 0.815 0 0 0.82 0 0 0.825 0 0 0.83 0 0 0.835 0 0 0.84 0 0 0.845 0 0 0.85 0 0 0.855 0 0 0.86 0 0 0.865 0 0 0.87 0 0 0.875 0 0 0.88 0 0 0.885 0 0 0.89 0 0 0.895 0 0 0.9 0 0 0.905 0 0 0.91 0 0 0.915 0 0 0.92 0 0 0.925 0 0 0.93 0 0 0.935 0 0 0.94 0 0 0.945 0 0 0.95 0 0 0.955 0 0 0.96 0 0 0.965 0 0 0.97 0 0 0.975 0 0 0.98 0 0 0.985 0 0 0.99 0 0 0.995 0 0 1 0 0 0 0.02 0 0.005 0.02 0 0.01 0.02 0 0.015 0.02 0 0.02 0.02 0 0.025 0.02 0 0.03 0.02 0 0.035 0.02 0 0.04 0.02 0 0.045 0.02 0 0.05 0.02 0 0.055 0.02 0 0.06 0.02 0 0.065 0.02 0 0.07 0.02 0 0.075 0.02 0 0.08 0.02 0 0.085 0.02 0 0.09 0.02 0 0.095 0.02 0 0.1 0.02 0 0.105 0.02 0 0.11 0.02 0 0.115 0.02 0 0.12 0.02 0 0.125 0.02 0 0.13 0.02 0 0.135 0.02 0 0.14 0.02 0 0.145 0.02 0 0.15 0.02 0 0.155 0.02 0 0.16 0.02 0 0.165 0.02 0 0.17 0.02 0 0.175 0.02 0 0.18 0.02 0 0.185 0.02 0 0.19 0.02 0 0.195 0.02 0 0.2 0.02 0 0.205 0.02 0 0.21 0.02 0 0.215 0.02 0 0.22 0.02 0 0.225 0.02 0 0.23 0.02 0 0.235 0.02 0 0.24 0.02 0 0.245 0.02 0 0.25 0.02 0 0.255 0.02 0 0.26 0.02 0 0.265 0.02 0 0.27 0.02 0 0.275 0.02 0 0.28 0.02 0 0.285 0.02 0 0.29 0.02 0 0.295 0.02 0 0.3 0.02 0 0.305 0.02 0 0.31 0.02 0 0.315 0.02 0 0.32 0.02 0 0.325 0.02 0 0.33 0.02 0 0.335 0.02 0 0.34 0.02 0 0.345 0.02 0 0.35 0.02 0 0.355 0.02 0 0.36 0.02 0 0.365 0.02 0 0.37 0.02 0 0.375 0.02 0 0.38 0.02 0 0.385 0.02 0 0.39 0.02 0 0.395002 0.02 0 0.40001 0.02 0 0.405034 0.02 0 0.410102 0.02 0 0.415259 0.02 0 0.420565 0.02 0 0.426081 0.02 0 0.431865 0.02 0 0.437967 0.02 0 0.444442 0.02 0 0.451349 0.02 0 0.458763 0.02 0 0.466772 0.02 0 0.47549 0.02 0 0.485055 0.02 0 0.495626 0.02 0 0.507314 0.02 0 0.519848 0.02 0 0.532292 0.02 0 0.544445 0.02 0 0.556395 0.02 0 0.568266 0.02 0 0.570555 0.02 0 0.572844 0.02 0 0.575133 0.02 0 0.57742 0.02 0 0.579707 0.02 0 0.581992 0.02 0 0.584274 0.02 0 0.586555 0.02 0 0.588838 0.02 0 0.591118 0.02 0 0.5934 0.02 0 0.595692 0.02 0 0.597985 0.02 0 0.600279 0.02 0 0.602571 0.02 0 0.604862 0.02 0 0.607157 0.02 0 0.609452 0.02 0 0.611771 0.02 0 0.614169 0.02 0 0.616642 0.02 0 0.61929 0.02 0 0.622102 0.02 0 0.625144 0.02 0 0.628489 0.02 0 0.632182 0.02 0 0.636235 0.02 0 0.640623 0.02 0 0.645279 0.02 0 0.650113 0.02 0 0.655042 0.02 0 0.660015 0.02 0 0.665005 0.02 0 0.670002 0.02 0 0.675001 0.02 0 0.68 0.02 0 0.685 0.02 0 0.69 0.02 0 0.695 0.02 0 0.7 0.02 0 0.705 0.02 0 0.71 0.02 0 0.715 0.02 0 0.72 0.02 0 0.725 0.02 0 0.73 0.02 0 0.735 0.02 0 0.74 0.02 0 0.745 0.02 0 0.75 0.02 0 0.755 0.02 0 0.76 0.02 0 0.765 0.02 0 0.77 0.02 0 0.775 0.02 0 0.78 0.02 0 0.785 0.02 0 0.79 0.02 0 0.795 0.02 0 0.8 0.02 0 0.805 0.02 0 0.81 0.02 0 0.815 0.02 0 0.82 0.02 0 0.825 0.02 0 0.83 0.02 0 0.835 0.02 0 0.84 0.02 0 0.845 0.02 0 0.85 0.02 0 0.855 0.02 0 0.86 0.02 0 0.865 0.02 0 0.87 0.02 0 0.875 0.02 0 0.88 0.02 0 0.885 0.02 0 0.89 0.02 0 0.895 0.02 0 0.9 0.02 0 0.905 0.02 0 0.91 0.02 0 0.915 0.02 0 0.92 0.02 0 0.925 0.02 0 0.93 0.02 0 0.935 0.02 0 0.94 0.02 0 0.945 0.02 0 0.95 0.02 0 0.955 0.02 0 0.96 0.02 0 0.965 0.02 0 0.97 0.02 0 0.975 0.02 0 0.98 0.02 0 0.985 0.02 0 0.99 0.02 0 0.995 0.02 0 1 0.02 0 0 0.04 0 0.005 0.04 0 0.01 0.04 0 0.015 0.04 0 0.02 0.04 0 0.025 0.04 0 0.03 0.04 0 0.035 0.04 0 0.04 0.04 0 0.045 0.04 0 0.05 0.04 0 0.055 0.04 0 0.06 0.04 0 0.065 0.04 0 0.07 0.04 0 0.075 0.04 0 0.08 0.04 0 0.085 0.04 0 0.09 0.04 0 0.095 0.04 0 0.1 0.04 0 0.105 0.04 0 0.11 0.04 0 0.115 0.04 0 0.12 0.04 0 0.125 0.04 0 0.13 0.04 0 0.135 0.04 0 0.14 0.04 0 0.145 0.04 0 0.15 0.04 0 0.155 0.04 0 0.16 0.04 0 0.165 0.04 0 0.17 0.04 0 0.175 0.04 0 0.18 0.04 0 0.185 0.04 0 0.19 0.04 0 0.195 0.04 0 0.2 0.04 0 0.205 0.04 0 0.21 0.04 0 0.215 0.04 0 0.22 0.04 0 0.225 0.04 0 0.23 0.04 0 0.235 0.04 0 0.24 0.04 0 0.245 0.04 0 0.25 0.04 0 0.255 0.04 0 0.26 0.04 0 0.265 0.04 0 0.27 0.04 0 0.275 0.04 0 0.28 0.04 0 0.285 0.04 0 0.29 0.04 0 0.295 0.04 0 0.3 0.04 0 0.305 0.04 0 0.31 0.04 0 0.315 0.04 0 0.32 0.04 0 0.325 0.04 0 0.33 0.04 0 0.335 0.04 0 0.34 0.04 0 0.345 0.04 0 0.35 0.04 0 0.355 0.04 0 0.36 0.04 0 0.365 0.04 0 0.37 0.04 0 0.375 0.04 0 0.38 0.04 0 0.385 0.04 0 0.39 0.04 0 0.395002 0.04 0 0.40001 0.04 0 0.405034 0.04 0 0.410102 0.04 0 0.415259 0.04 0 0.420565 0.04 0 0.426081 0.04 0 0.431865 0.04 0 0.437967 0.04 0 0.444442 0.04 0 0.451349 0.04 0 0.458763 0.04 0 0.466772 0.04 0 0.47549 0.04 0 0.485055 0.04 0 0.495626 0.04 0 0.507314 0.04 0 0.519848 0.04 0 0.532292 0.04 0 0.544445 0.04 0 0.556395 0.04 0 0.568266 0.04 0 0.570555 0.04 0 0.572844 0.04 0 0.575133 0.04 0 0.57742 0.04 0 0.579707 0.04 0 0.581992 0.04 0 0.584274 0.04 0 0.586555 0.04 0 0.588838 0.04 0 0.591118 0.04 0 0.5934 0.04 0 0.595692 0.04 0 0.597985 0.04 0 0.600279 0.04 0 0.602571 0.04 0 0.604862 0.04 0 0.607157 0.04 0 0.609452 0.04 0 0.611771 0.04 0 0.614169 0.04 0 0.616642 0.04 0 0.61929 0.04 0 0.622102 0.04 0 0.625144 0.04 0 0.628489 0.04 0 0.632182 0.04 0 0.636235 0.04 0 0.640623 0.04 0 0.645279 0.04 0 0.650113 0.04 0 0.655042 0.04 0 0.660015 0.04 0 0.665005 0.04 0 0.670002 0.04 0 0.675001 0.04 0 0.68 0.04 0 0.685 0.04 0 0.69 0.04 0 0.695 0.04 0 0.7 0.04 0 0.705 0.04 0 0.71 0.04 0 0.715 0.04 0 0.72 0.04 0 0.725 0.04 0 0.73 0.04 0 0.735 0.04 0 0.74 0.04 0 0.745 0.04 0 0.75 0.04 0 0.755 0.04 0 0.76 0.04 0 0.765 0.04 0 0.77 0.04 0 0.775 0.04 0 0.78 0.04 0 0.785 0.04 0 0.79 0.04 0 0.795 0.04 0 0.8 0.04 0 0.805 0.04 0 0.81 0.04 0 0.815 0.04 0 0.82 0.04 0 0.825 0.04 0 0.83 0.04 0 0.835 0.04 0 0.84 0.04 0 0.845 0.04 0 0.85 0.04 0 0.855 0.04 0 0.86 0.04 0 0.865 0.04 0 0.87 0.04 0 0.875 0.04 0 0.88 0.04 0 0.885 0.04 0 0.89 0.04 0 0.895 0.04 0 0.9 0.04 0 0.905 0.04 0 0.91 0.04 0 0.915 0.04 0 0.92 0.04 0 0.925 0.04 0 0.93 0.04 0 0.935 0.04 0 0.94 0.04 0 0.945 0.04 0 0.95 0.04 0 0.955 0.04 0 0.96 0.04 0 0.965 0.04 0 0.97 0.04 0 0.975 0.04 0 0.98 0.04 0 0.985 0.04 0 0.99 0.04 0 0.995 0.04 0 1 0.04 0 0 0.06 0 0.005 0.06 0 0.01 0.06 0 0.015 0.06 0 0.02 0.06 0 0.025 0.06 0 0.03 0.06 0 0.035 0.06 0 0.04 0.06 0 0.045 0.06 0 0.05 0.06 0 0.055 0.06 0 0.06 0.06 0 0.065 0.06 0 0.07 0.06 0 0.075 0.06 0 0.08 0.06 0 0.085 0.06 0 0.09 0.06 0 0.095 0.06 0 0.1 0.06 0 0.105 0.06 0 0.11 0.06 0 0.115 0.06 0 0.12 0.06 0 0.125 0.06 0 0.13 0.06 0 0.135 0.06 0 0.14 0.06 0 0.145 0.06 0 0.15 0.06 0 0.155 0.06 0 0.16 0.06 0 0.165 0.06 0 0.17 0.06 0 0.175 0.06 0 0.18 0.06 0 0.185 0.06 0 0.19 0.06 0 0.195 0.06 0 0.2 0.06 0 0.205 0.06 0 0.21 0.06 0 0.215 0.06 0 0.22 0.06 0 0.225 0.06 0 0.23 0.06 0 0.235 0.06 0 0.24 0.06 0 0.245 0.06 0 0.25 0.06 0 0.255 0.06 0 0.26 0.06 0 0.265 0.06 0 0.27 0.06 0 0.275 0.06 0 0.28 0.06 0 0.285 0.06 0 0.29 0.06 0 0.295 0.06 0 0.3 0.06 0 0.305 0.06 0 0.31 0.06 0 0.315 0.06 0 0.32 0.06 0 0.325 0.06 0 0.33 0.06 0 0.335 0.06 0 0.34 0.06 0 0.345 0.06 0 0.35 0.06 0 0.355 0.06 0 0.36 0.06 0 0.365 0.06 0 0.37 0.06 0 0.375 0.06 0 0.38 0.06 0 0.385 0.06 0 0.39 0.06 0 0.395002 0.06 0 0.40001 0.06 0 0.405034 0.06 0 0.410102 0.06 0 0.415259 0.06 0 0.420565 0.06 0 0.426081 0.06 0 0.431865 0.06 0 0.437967 0.06 0 0.444442 0.06 0 0.451349 0.06 0 0.458763 0.06 0 0.466772 0.06 0 0.47549 0.06 0 0.485055 0.06 0 0.495626 0.06 0 0.507314 0.06 0 0.519848 0.06 0 0.532292 0.06 0 0.544445 0.06 0 0.556395 0.06 0 0.568266 0.06 0 0.570555 0.06 0 0.572844 0.06 0 0.575133 0.06 0 0.57742 0.06 0 0.579707 0.06 0 0.581992 0.06 0 0.584274 0.06 0 0.586555 0.06 0 0.588838 0.06 0 0.591118 0.06 0 0.5934 0.06 0 0.595692 0.06 0 0.597985 0.06 0 0.600279 0.06 0 0.602571 0.06 0 0.604862 0.06 0 0.607157 0.06 0 0.609452 0.06 0 0.611771 0.06 0 0.614169 0.06 0 0.616642 0.06 0 0.61929 0.06 0 0.622102 0.06 0 0.625144 0.06 0 0.628489 0.06 0 0.632182 0.06 0 0.636235 0.06 0 0.640623 0.06 0 0.645279 0.06 0 0.650113 0.06 0 0.655042 0.06 0 0.660015 0.06 0 0.665005 0.06 0 0.670002 0.06 0 0.675001 0.06 0 0.68 0.06 0 0.685 0.06 0 0.69 0.06 0 0.695 0.06 0 0.7 0.06 0 0.705 0.06 0 0.71 0.06 0 0.715 0.06 0 0.72 0.06 0 0.725 0.06 0 0.73 0.06 0 0.735 0.06 0 0.74 0.06 0 0.745 0.06 0 0.75 0.06 0 0.755 0.06 0 0.76 0.06 0 0.765 0.06 0 0.77 0.06 0 0.775 0.06 0 0.78 0.06 0 0.785 0.06 0 0.79 0.06 0 0.795 0.06 0 0.8 0.06 0 0.805 0.06 0 0.81 0.06 0 0.815 0.06 0 0.82 0.06 0 0.825 0.06 0 0.83 0.06 0 0.835 0.06 0 0.84 0.06 0 0.845 0.06 0 0.85 0.06 0 0.855 0
[...]
			<PointData Scalars="VitesseX">
				<DataArray Name="VitesseX" type="Float32" format="ascii">
 0 -1.87483e-15 -1.85518e-15 3.00842e-16 2.0852e-15 -2.30299e-15 2.74174e-15 -3.16707e-16 -3.75193e-16 -6.07213e-15 2.76975e-15 5.17231e-15 2.14698e-15 -5.97677e-15 -4.24157e-15 -3.83558e-15 1.10108e-14 9.26734e-15 -9.56138e-15 -4.21986e-15 -1.32641e-14 1.43895e-14 2.33499e-15 1.18462e-15 5.92528e-15 6.61403e-15 2.54844e-14 -4.74893e-15 -6.87129e-16 1.80736e-14 7.49965e-15 -1.75522e-14 -1.21078e-14 1.75363e-14 2.5116e-14 -3.07306e-14 -5.02131e-15 1.00884e-14 1.0832e-14 -1.9139e-14 1.71631e-14 2.38848e-15 -5.34237e-15 -1.99199e-14 1.41044e-14 -1.84441e-14 2.2591e-14 6.36315e-16 -7.19302e-15 -6.08821e-15 3.45369e-14 7.97675e-15 -3.4629e-15 4.66238e-14 -1.72737e-14 4.35147e-14 -4.52697e-15 6.93342e-15 -2.68441e-14 2.98361e-14 4.70943e-14 2.05832e-14 -5.07002e-14 1.86677e-14 1.07314e-14 -7.19901e-15 2.27325e-14 2.39462e-14 1.72152e-13 1.76004e-12 2.00255e-11 2.11219e-10 2.03138e-09 1.78263e-08 1.41897e-07 1.01827e-06 6.539e-06 3.72443e-05 0.000186106 0.000804916 0.00296524 0.00914983 0.0233687 0.0494619 0.0884844 0.138395 0.196335 0.260435 0.329988 0.404996 0.485817 0.572967 0.666904 0.767427 0.87152 0.964639 0.992731 0.96475 0.946475 0.937978 0.935278 0.935065 0.934773 0.934425 0.933918 0.933226 0.932489 0.931659 0.93103 0.930535 0.930522 0.931031 0.933708 0.932725 0.932736 0.932594 0.930007 0.931081 0.920275 0.885926 0.91129 0.817306 0.768287 0.714849 0.61396 0.497626 0.378049 0.255628 0.152276 0.0779942 0.0345488 0.0137255 0.00509788 0.0018182 0.000630227 0.00021317 7.04154e-05 2.27073e-05 7.14404e-06 2.1915e-06 6.55153e-07 1.90805e-07 5.41203e-08 1.49477e-08 4.01939e-09 1.05218e-09 2.68163e-10 6.65807e-11 1.60159e-11 3.80487e-12 8.71976e-13 2.77828e-13 5.40933e-14 -4.11197e-14 7.10796e-14 6.25643e-14 -8.89866e-14 8.06956e-14 -1.13505e-13 1.79693e-13 2.49002e-14 -1.15993e-14 8.78336e-14 -6.55595e-14 5.63127e-14 -8.65091e-14 -1.91324e-14 -1.079e-13 1.72282e-13 -2.58331e-14 4.6035e-14 8.56246e-15 -1.35464e-13 3.84374e-15 3.86647e-14 -9.07215e-14 1.12422e-13 -1.08333e-13 -1.29532e-13 7.11916e-14 -7.97103e-14 8.77878e-14 -1.43375e-13 -3.24486e-14 -2.19885e-14 4.25039e-14 4.94935e-14 -1.29937e-13 -9.62639e-14 9.32683e-14 4.53065e-15 -1.81539e-13 8.1077e-14 -4.3818e-14 -4.93929e-15 -3.82326e-15 -1.58768e-14 -5.32457e-14 -1.24118e-13 6.68451e-14 0 0 -9.16663e-16 -2.09083e-16 -1.10232e-15 2.79115e-15 6.19402e-16 -2.95314e-15 3.04492e-15 -4.81537e-15 5.76245e-15 -7.23932e-15 5.48181e-15 3.80643e-15 1.32879e-15 -1.29271e-14 4.42513e-16 1.18851e-14 5.68727e-15 -7.88066e-15 -1.13547e-14 3.96498e-15 -2.41178e-15 1.13331e-14 7.23953e-15 2.385e-15 -6.41075e-15 1.41057e-14 1.71066e-14 -3.25879e-15 6.62332e-15 -6.04144e-16 1.02841e-14 4.08091e-16 -1.22998e-15 -3.51664e-14 3.01217e-14 -6.57385e-15 2.43366e-14 -1.30686e-14 -1.42346e-15 1.52137e-14 -2.12867e-14 8.97009e-15 -2.81667e-15 1.26753e-14 -2.06638e-14 1.53071e-16 9.6387e-15 1.65756e-14 1.67371e-14 2.42631e-17 2.46172e-14 -4.31502e-14 4.59024e-14 1.15908e-14 4.02652e-14 -3.24214e-14 1.75125e-14 5.33789e-15 -5.22058e-15 2.12653e-14 1.87963e-14 -1.13139e-14 1.31423e-14 9.15186e-16 2.28452e-14 3.79193e-14 -1.16005e-14 1.68192e-13 1.74241e-12 2.00956e-11 2.11162e-10 2.03144e-09 1.78261e-08 1.41897e-07 1.01827e-06 6.539e-06 3.72443e-05 0.000186106 0.000804916 0.00296524 0.00914983 0.0233687 0.0494619 0.0884844 0.138395 0.196335 0.260435 0.329988 0.404996 0.485817 0.572967 0.666904 0.767427 0.87152 0.964639 0.992731 0.96475 0.946475 0.937978 0.935278 0.935065 0.934773 0.934425 0.933918 0.933226 0.932489 0.931659 0.93103 0.930535 0.930522 0.931031 0.933708 0.932725 0.932736 0.932594 0.930007 0.931081 0.920275 0.885926 0.91129 0.817306 0.768287 0.714849 0.61396 0.497626 0.378049 0.255628 0.152276 0.0779942 0.0345488 0.0137255 0.00509788 0.0018182 0.000630227 0.00021317 7.04154e-05 2.27073e-05 7.14404e-06 2.1915e-06 6.55153e-07 1.90805e-07 5.41203e-08 1.49477e-08 4.01943e-09 1.0522e-09 2.68092e-10 6.65774e-11 1.606e-11 3.83054e-12 9.48944e-13 2.38641e-13 9.66496e-14 -1.0077e-13 1.34663e-14 2.95845e-14 4.37246e-14 -2.80433e-14 1.39022e-13 -7.05258e-14 4.42859e-14 3.63228e-14 -4.23277e-14 -5.17363e-14 5.72073e-14 7.61289e-14 -9.28415e-14 6.76424e-14 1.80047e-14 2.42514e-14 8.76158e-14 -7.94205e-14 8.21411e-15 -4.81097e-14 -7.08793e-16 -4.4866e-14 1.98527e-16 4.12455e-14 -6.09056e-15 -1.01807e-13 7.30721e-15 -1.06953e-13 1.12245e-13 -2.07089e-13 2.87007e-14 8.1566e-14 -4.71514e-14 -1.1053e-13 -4.90092e-14 2.54702e-14 -1.41425e-13 1.55186e-13 -1.29186e-13 -1.01345e-13 -4.6662e-14 1.10032e-13 -9.32721e-14 -1.21078e-14 -1.14964e-13 7.76053e-14 0 0 1.63201e-16 -6.19636e-16 8.78038e-16 -7.7049e-16 -1.06545e-16 -7.44481e-16 9.49455e-16 -1.19304e-15 3.07825e-15 5.85535e-15 2.85307e-15 1.68261e-15 -9.63829e-15 5.22843e-15 -1.14564e-15 1.11772e-14 -2.05005e-15 -1.33163e-14 1.37626e-16 8.54073e-15 -1.56562e-14 1.57943e-14 1.45251e-14 -3.30988e-15 -2.25575e-14 1.96233e-14 2.76356e-14 -8.03204e-15 -1.6794e-14 1.98473e-14 2.55684e-14 9.26338e-15 -7.86343e-15 -3.22968e-14 1.96784e-14 -5.07583e-15 1.40921e-14 2.0339e-14 -2.10113e-14 9.05132e-15 -2.21885e-14 9.68838e-15 1.83309e-14 -3.45682e-15 6.74922e-15 -9.01003e-15 -3.94483e-15 3.74368e-14 -1.30411e-15 -1.94672e-14 1.13363e-14 -2.00942e-14 -1.29532e-14 5.78154e-14 2.53664e-14 -3.48709e-14 2.29348e-14 6.04818e-15 5.81006e-15 4.75833e-15 3.47947e-14 1.31672e-14 2.6363e-14 1.54915e-14 3.643e-14 6.70117e-15 -2.75644e-14 1.52072e-13 1.75405e-12 2.01104e-11 2.11108e-10 2.03144e-09 1.7826e-08 1.41897e-07 1.01827e-06 6.539e-06 3.72443e-05 0.000186106 0.000804916 0.00296524 0.00914983 0.0233687 0.0494619 0.0884844 0.138395 0.196335 0.260435 0.329988 0.404996 0.485817 0.572967 0.666904 0.767427 0.87152 0.964639 0.992731 0.96475 0.946475 0.937978 0.935278 0.935065 0.934773 0.934425 0.933918 0.933226 0.932489 0.931659 0.93103 0.930535 0.930522 0.931031 0.933708 0.932725 0.932736 0.932594 0.930007 0.931081 0.920275 0.885926 0.91129 0.817306 0.768287 0.714849 0.61396 0.497626 0.378049 0.255628 0.152276 0.0779942 0.0345488 0.0137255 0.00509788 0.0018182 0.000630227 0.00021317 7.04154e-05 2.27073e-05 7.14404e-06 2.1915e-06 6.55153e-07 1.90805e-07 5.41203e-08 1.49477e-08 4.01936e-09 1.05227e-09 2.68131e-10 6.65149e-11 1.61508e-11 3.8823e-12 9.1778e-13 1.62247e-13 7.97635e-14 1.28415e-13 -1.33583e-13 5.04108e-15 5.69515e-14 1.53393e-14 1.59962e-13 6.02004e-14 -7.94908e-14 -5.6326e-14 -7.14997e-14 3.65629e-14 3.66569e-14 1.00028e-13 -8.43111e-14 1.04166e-14 2.08247e-14 -3.6216e-14 1.04678e-14 3.24743e-14 1.08687e-13 -8.31986e-14 8.63021e-14 8.26621e-15 -1.10844e-13 1.03739e-13 7.94365e-14 -8.84223e-14 3.10314e-14 -6.59473e-14 -8.43515e-14 7.21428e-15 -5.6051e-14 9.68224e-14 -3.06982e-14 -5.45567e-14 -8.05536e-14 -1.29582e-13 4.01216e-14 -7.29443e-14 -1.41946e-13 -7.9996e-14 -9.25019e-14 1.16339e-13 -8.32316e-14 -3.40616e-14 -9.85948e-14 3.609e-14 0 0 3.82865e-16 -1.74778e-15 1.11996e-15 -3.36705e-15 -1.21278e-16 2.47306e-15 -1.47322e-15 -2.04284e-15 -5.2212e-15 5.48333e-15 -3.07118e-16 -2.23299e-16 9.9423e-17 1.58348e-15 1.77358e-15 -2.9242e-15 3.54719e-15 7.41485e-15 -4.34981e-15 2.42874e-15 -6.16411e-15 5.67732e-15 1.26537e-14 -1.4067e-15 -2.45507e-15 3.02427e-14 -1.47015e-14 1.21773e-14 -1.44006e-14 1.76595e-14 4.93949e-14 2.39526e-14 3.50915e-15 -1.29055e-14 -2.57046e-14 3.54708e-15 -1.82647e-14 3.22797e-14 -3.51092e-14 -5.74706e-16 1.24433e-14 1.73659e-14 1.97769e-14 -1.89187e-14 9.31757e-15 -2.84243e-14 -6.50932e-16 2.83695e-14 -1.26898e-14 -1.16563e-14 -2.41474e-14 2.29747e-14 -3.45433e-14 3.47808e-14 2.24785e-14 1.60491e-14 7.63584e-15 1.21875e-14 3.95517e-16 4.26722e-14 8.1203e-15 5.41885e-15 5.86743e-14 3.88083e-14 2.6305e-14 2.70433e-14 2.21969e-15 1.49176e-13 1.70744e-12 2.00657e-11 2.11058e-10 2.03147e-09 1.7826e-08 1.41897e-07 1.01827e-06 6.539e-06 3.72443e-05 0.000186106 0.000804916 0.00296524 0.00914983 0.0233687 0.0494619 0.0884844 0.138395 0.196335 0.260435 0.329988 0.404996 0.485817 0.572967 0.666904 0.767427 0.87152 0.964639 0.992731 0.96475 0.946475 0.937978 0.935278 0.935065 0.934773 0.934425 0.933918 0.933226 0.932489 0.931659 0.93103 0.930535 0.930522 0.931031 0.933708 0.932725 0.932736 0.932594 0.930007 0.931081 0.920275 0.885926 0.91129 0.817306 0.768287 0.714849 0.61396 0.497626 0.378049 0.255628 0.152276 0.0779942 0.0345488 0.0137255 0.00509788 0.0018182 0.000630227 0.00021317 7.04154e-05 2.27073e-05 7.14404e-06 2.1915e-06 6.55153e-07 1.90805e-07 5.41204e-08 1.49477e-08 4.01941e-09 1.05228e-09 2.68156e-10 6.65272e-11 1.61807e-11 3.84056e-12 8.97282e-13 2.51884e-13 8.75652e-14 1.93219e-13 -4.47329e-14 -2.42009e-14 -1.7353e-13 4.54155e-15 1.06778e-13 1.25313e-13 -2.80216e-14 -3.27174e-14 1.17409e-13 -2.88209e-14 -7.4661e-14 -1.04806e-14 3.16102e-14 -1.04497e-13 4.51451e-14 1.06059e-13 -1.89558e-13 1.47888e-13 -8.08392e-14 1.57415e-14 5.95658e-14 -1.10885e-15 6.70283e-14 -1.91868e-14 1.05914e-13 3.99213e-14 1.48691e-13 -9.87296e-14 -2.26065e-13 -3.41291e-14 5.26906e-14 1.61146e-14 1.13653e-13 -4.68114e-14 -1.26114e-13 -1.01844e-13 -1.33257e-13 -3.02298e-13 -3.72897e-14 8.82824e-14 -8.87679e-14 -3.89465e-14 -5.01126e-14 -6.99894e-15 3.03515e-14 -3.38158e-14 0 0 6.10017e-17 -1.17599e-15 -1.77066e-15 -2.26745e-15 -3.34053e-15 -5.99652e-16 2.78938e-15 -7.45516e-15 2.9951e-16 -6.20764e-15 -3.40145e-15 4.46082e-15 1.33442e-14 -1.53479e-14 6.07303e-15 -7.76179e-16 1.21008e-14 1.39858e-14 -1.16504e-14 1.05487e-14 6.50777e-15 -3.91032e-15 -9.18853e-15 -3.43183e-16 3.31816e-15 1.99297e-14 -1.65748e-14 -2.53335e-15 1.48031e-14 1.11011e-14 5.06284e-14 3.46124e-14 2.15556e-14 -4.37553e-14 -1.03247e-14 1.83676e-14 -7.2654e-15 -2.90119e-14 -3.42814e-14 5.92898e-15 3.2259e-14 3.19244e-14 7.46287e-14 -2.20136e-14 6.60612e-16 -4.88899e-14 9.68518e-15 -1.99536e-14 1.14868e-15 -1.84684e-14 6.80098e-15 -2.36444e-14 1.96751e-14 7.50672e-15 3.66499e-14 3.01631e-14 1.21512e-14 -1.87201e-14 6.38142e-15 4.62583e-14 -5.35797e-14 7.23975e-14 5.68371e-14 1.91681e-15 2.80966e-14 1.00614e-15 8.82685e-14 1.78187e-13 1.67969e-12 2.0039e-11 2.1109e-10 2.03147e-09 1.78259e-08 1.41897e-07 1.01827e-06 6.539e-06 3.72443e-05 0.000186106 0.000804916 0.00296524 0.00914983 0.0233687 0.0494619 0.0884844 0.138395 0.196335 0.260435 0.329988 0.404996 0.485817 0.572967 0.666904 0.767427 0.87152 0.964639 0.992731 0.96475 0.946475 0.937978 0.935278 0.935065 0.934773 0.934425 0.933918 0.933226 0.932489 0.931659 0.93103 0.930535 0.930522 0.931031 0.933708 0.932725 0.932736 0.932594 0.930007 0.931081 0.920275 0.885926 0.91129 0.817306 0.768287 0.714849 0.61396 0.497626 0.378049 0.255628 0.152276 0.0779942 0.0345488 0.0137255 0.00509788 0.0018182 0.000630227 0.00021317 7.04154e-05 2.27073e-05 7.14404e-06 2.1915e-06 6.55153e-07 1.90805e-07 5.41204e-08 1.49477e-08 4.01951e-09 1.05217e-09 2.68171e-10 6.66244e-11 1.60598e-11 3.83521e-12 1.01037e-12 2.93478e-13 1.75288e-13 -4.7234e-14 1.4438e-13 1.34203e-13 -8.79166e-14 -2.63736e-13 7.50686e-14 5.90171e-14 2.87291e-14 -9.74105e-14 4.40444e-14 -5.33367e-14 -2.04545e-14 -6.52048e-14 8.11962e-14 1.08505e-13 -5.48621e-14 6.14569e-14 -1.59159e-13 1.4281e-13 -7.21362e-14 5.99876e-14 -1.5587e-13 -1.12476e-13 3.54627e-13 2.91147e-14 1.82864e-13 2.72065e-14 -1.14878e-13 -1.73261e-13 4.51125e-14 -3.05173e-13 -3.65094e-14 5.67148e-15 6.02991e-14 5.46197e-14 -8.06375e-14 -7.20222e-16 -3.1794e-13 -1.03936e-13 -1.16304e-14 1.23751e-13 -6.36999e-14 2.6668e-14 -1.19826e-13 -6.65187e-14 1.08784e-13 1.16664e-14 0 0 -3.58833e-16 -1.53272e-15 -1.51967e-15 -2.83889e-15 -1.01934e-14 1.01363e-15 4.01757e-15 -3.95517e-15 -3.99116e-16 5.57714e-15 -6.27384e-15 7.26759e-15 -1.42143e-15 -1.79328e-15 1.58702e-15 1.38909e-14 1.08998e-14 -7.29067e-15 4.16352e-15 1.21273e-14 1.32444e-14 -7.91788e-15 -2.79288e-14 -3.33745e-15 -1.4133e-14 1.58937e-14 1.25622e-14 -3.9655e-14 2.96465e-14 3.52855e-14 1.54834e-14 2.69224e-14 4.03624e-14 -3.08445e-14 -2.08574e-14 2.76157e-14 1.15979e-14 -4.49362e-14 -5.6659e-14 1.78458e-14 4.02164e-14 2.52112e-14 1.32079e-13 -2.43497e-14 1.90679e-14 -3.66664e-14 -5.85851e-15 -6.2117e-14 -1.44938e-14 -1.80701e-14 4.33118e-14 -5.05891e-14 3.73494e-14 2.06274e-14 4.206e-14 1.8802e-14 2.68086e-14 -8.72388e-14 6.38692e-14 2.12526e-14 -7.08201e-14 1.32219e-13 4.14346e-14 -3.3899e-14 2.35537e-14 -9.17781e-14 1.64116e-13 1.97936e-13 1.72782e-12 2.00016e-11 2.11175e-10 2.03139e-09 1.78259e-08 1.41897e-07 1.01827e-06 6.539e-06 3.72443e-05 0.000186106 0.000804916 0.00296524 0.00914983 0.0233687 0.0494619 0.0884844 0.138395 0.196335 0.260435 0.329988 0.404996 0.485817 0.572967 0.666904 0.767427 0.87152 0.964639 0.992731 0.96475 0.946475 0.937978 0.935278 0.935065 0.934773 0.934425 0.933918 0.933226 0.932489 0.931659 0.93103 0.930535 0.930522 0.931031 0.933708 0.932725 0.932736 0.932594 0.930007 0.931081 0.920275 0.885926 0.91129 0.817306 0.768287 0.714849 0.61396 0.497626 0.378049 0.255628 0.152276 0.0779942 0.0345488 0.0137255 0.00509788 0.0018182 0.000630227 0.00021317 7.04154e-05 2.27073e-05 7.14404e-06 2.1915e-06 6.55153e-07 1.90805e-07 5.41203e-08 1.49478e-08 4.01945e-09 1.0521e-09 2.6827e-10 6.66503e-11 1.59556e-11 3.89751e-12 1.03582e-12 2.08131e-13 1.95808e-13 -6.35072e-14 1.54788e-13 3.29906e-13 1.08402e-13 -3.68985e-13 -1.35211e-13 3.08339e-13 -1.09251e-13 -3.26727e-13 -1.17245e-13 6.25596e-14 1.23773e-13 -1.48137e-13 9.76575e-14 2.03899e-13 -2.20637e-14 -2.36204e-13 -4.76186e-14 2.22408e-13 8.27447e-14 2.18213e-14 -2.1819e-13 -2.0687e-13 4.65591e-13 1.13018e-13 1.95365e-13 7.25507e-14 -5.59372e-13 2.07736e-14 5.70915e-15 -1.45903e-13 -3.69498e-13 5.24637e-14 -2.40529e-14 1.85144e-13 -6.83106e-14 -1.47758e-14 -1.90823e-15 -2.40903e-13 1.06549e-13 6.91704e-14 -4.66914e-14 1.40263e-13 -1.34934e-13 -2.16095e-13 6.53575e-14 7.4463e-14 0
				</DataArray>
				<DataArray Name="VitesseY" type="Float32" format="ascii">