<?xml version="1.0"?>
<VTKFile type="PolyData">
	<PolyData>
		<Piece NumberOfPoints="1206" NumberOfPolys="1000">
			<Points>
				<DataArray type="Float32" NumberOfComponents="3" format="ascii">
 0 0 0 0.005 0 0 0.01 0 0 0.015 0 0 0.02 0 0 0.025 0 0 0.03 0 0 0.035 0 0 0.04 0 0 0.045 0 0 0.05 0 0 0.055 0 0 0.06 0 0 0.065 0 0 0.07 0 0 0.075 0 0 0.08 0 0 0.085 0 0 0.09 0 0 0.095 0 0 0.1 0 0 0.105 0 0 0.11 0 0 0.115 0 0 0.12 0 0 0.125 0 0 0.13 0 0 0.135 0 0 0.14 0 0 0.145 0 0 0.15 0 0 0.155 0 0 0.16 0 0 0.165 0 0 0.17 0 0 0.175 0 0 0.18 0 0 0.185 0 0 0.19 0 0 0.195 0 0 0.2 0 0 0.205 0 0 0.21 0 0 0.215 0 0 0.22 0 0 0.225 0 0 0.23 0 0 0.235 0 0 0.24 0 0 0.245 0 0 0.25 0 0 0.255 0 0 0.26 0 0 0.265 0 0 0.27 0 0 0.275 0 0 0.28 0 0 0.285 0 0 0.29 0 0 0.295 0 0 0.3 0 0 0.305 0 0 0.31 0 0 0.315 0 0 0.32 0 0 0.325 0 0 0.33 0 0 0.335 0 0 0.34 0 0 0.345 0 0 0.35 0 0 0.355 0 0 0.36 0 0 0.365 0 0 0.37 0 0 0.375 0 0 0.38 0 0 0.385 0 0 0.39 0 0 0.395 0 0 0.4 0 0 0.405 0 0 0.41 0 0 0.415 0 0 0.42 0 0 0.425 0 0 0.43 0 0 0.435002 0 0 0.440009 0 0 0.445043 0 0 0.45016 0 0 0.455468 0 0 0.461116 0 0 0.467264 0 0 0.474086 0 0 0.481798 0 0 0.490694 0 0 0.501154 0 0 0.513312 0 0 0.525767 0 0 0.537777 0 0 0.540411 0 0 0.54297 0 0 0.545482 0 0 0.547964 0 0 0.550426 0 0 0.552875 0 0 0.555321 0 0 0.557771 0 0 0.56025 0 0 0.56277 0 0 0.565396 0 0 0.568114 0 0 0.571036 0 0 0.574165 0 0 0.577644 0 0 0.58149 0 0 0.585731 0 0 0.590304 0 0 0.595107 0 0 0.600033 0 0 0.605009 0 0 0.610003 0 0 0.615001 0 0 0.62 0 0 0.625 0 0 0.63 0 0 0.635 0 0 0.64 0 0 0.645 0 0 0.65 0 0 0.655 0 0 0.66 0 0 0.665 0 0 0.67 0 0 0.675 0 0 0.68 0 0 0.685 0 0 0.69 0 0 0.695 0 0 0.7 0 0 0.705 0 0 0.71 0 0 0.715 0 0 0.72 0 0 0.725 0 0 0.73 0 0 0.735 0 0 0.74 0 0 0.745 0 0 0.75 0 0 0.755 0 0 0.76 0 0 0.765 0 0 0.77 0 0 0.775 0 0 0.78 0 0 0.785 0 0 0.79 0 0 0.795 0 0 0.8 0 0 0.805 0 0 0.81 0 0 0.815 0 0 0.82 0 0 0.825 0 0 0.83 0 0 0.835 0 0 0.84 0 0 0.845 0 0 0.85 0 0 0.855 0 0 0.86 0 0 0.865 0 0 0.87 0 0 0.875 0 0 0.88 0 0 0.885 0 0 0.89 0 0 0.895 0 0 0.9 0 0 0.905 0 0 0.91 0 0 0.915 0 0 0.92 0 0 0.925 0 0 0.93 0 0 0.935 0 0 0.94 0 0 0.945 0 0 0.95 0 0 0.955 0 0 0.96 0 0 0.965 0 0 0.97 0 0 0.975 0 0 0.98 0 0 0.985 0 0 0.99 0 0 0.995 0 0 1 0 0 0 0.02 0 0.005 0.02 0 0.01 0.02 0 0.015 0.02 0 0.02 0.02 0 0.025 0.02 0 0.03 0.02 0 0.035 0.02 0 0.04 0.02 0 0.045 0.02 0 0.05 0.02 0 0.055 0.02 0 0.06 0.02 0 0.065 0.02 0 0.07 0.02 0 0.075 0.02 0 0.08 0.02 0 0.085 0.02 0 0.09 0.02 0 0.095 0.02 0 0.1 0.02 0 0.105 0.02 0 0.11 0.02 0 0.115 0.02 0 0.12 0.02 0 0.125 0.02 0 0.13 0.02 0 0.135 0.02 0 0.14 0.02 0 0.145 0.02 0 0.15 0.02 0 0.155 0.02 0 0.16 0.02 0 0.165 0.02 0 0.17 0.02 0 0.175 0.02 0 0.18 0.02 0 0.185 0.02 0 0.19 0.02 0 0.195 0.02 0 0.2 0.02 0 0.205 0.02 0 0.21 0.02 0 0.215 0.02 0 0.22 0.02 0 0.225 0.02 0 0.23 0.02 0 0.235 0.02 0 0.24 0.02 0 0.245 0.02 0 0.25 0.02 0 0.255 0.02 0 0.26 0.02 0 0.265 0.02 0 0.27 0.02 0 0.275 0.02 0 0.28 0.02 0 0.285 0.02 0 0.29 0.02 0 0.295 0.02 0 0.3 0.02 0 0.305 0.02 0 0.31 0.02 0 0.315 0.02 0 0.32 0.02 0 0.325 0.02 0 0.33 0.02 0 0.335 0.02 0 0.34 0.02 0 0.345 0.02 0 0.35 0.02 0 0.355 0.02 0 0.36 0.02 0 0.365 0.02 0 0.37 0.02 0 0.375 0.02 0 0.38 0.02 0 0.385 0.02 0 0.39 0.02 0 0.395 0.02 0 0.4 0.02 0 0.405 0.02 0 0.41 0.02 0 0.415 0.02 0 0.42 0.02 0 0.425 0.02 0 0.43 0.02 0 0.435002 0.02 0 0.440009 0.02 0 0.445043 0.02 0 0.45016 0.02 0 0.455468 0.02 0 0.461116 0.02 0 0.467264 0.02 0 0.474086 0.02 0 0.481798 0.02 0 0.490694 0.02 0 0.501154 0.02 0 0.513312 0.02 0 0.525767 0.02 0 0.537777 0.02 0 0.540411 0.02 0 0.54297 0.02 0 0.545482 0.02 0 0.547964 0.02 0 0.550426 0.02 0 0.552875 0.02 0 0.555321 0.02 0 0.557771 0.02 0 0.56025 0.02 0 0.56277 0.02 0 0.565396 0.02 0 0.568114 0.02 0 0.571036 0.02 0 0.574165 0.02 0 0.577644 0.02 0 0.58149 0.02 0 0.585731 0.02 0 0.590304 0.02 0 0.595107 0.02 0 0.600033 0.02 0 0.605009 0.02 0 0.610003 0.02 0 0.615001 0.02 0 0.62 0.02 0 0.625 0.02 0 0.63 0.02 0 0.635 0.02 0 0.64 0.02 0 0.645 0.02 0 0.65 0.02 0 0.655 0.02 0 0.66 0.02 0 0.665 0.02 0 0.67 0.02 0 0.675 0.02 0 0.68 0.02 0 0.685 0.02 0 0.69 0.02 0 0.695 0.02 0 0.7 0.02 0 0.705 0.02 0 0.71 0.02 0 0.715 0.02 0 0.72 0.02 0 0.725 0.02 0 0.73 0.02 0 0.735 0.02 0 0.74 0.02 0 0.745 0.02 0 0.75 0.02 0 0.755 0.02 0 0.76 0.02 0 0.765 0.02 0 0.77 0.02 0 0.775 0.02 0 0.78 0.02 0 0.785 0.02 0 0.79 0.02 0 0.795 0.02 0 0.8 0.02 0 0.805 0.02 0 0.81 0.02 0 0.815 0.02 0 0.82 0.02 0 0.825 0.02 0 0.83 0.02 0 0.835 0.02 0 0.84 0.02 0 0.845 0.02 0 0.85 0.02 0 0.855 0.02 0 0.86 0.02 0 0.865 0.02 0 0.87 0.02 0 0.875 0.02 0 0.88 0.02 0 0.885 0.02 0 0.89 0.02 0 0.895 0.02 0 0.9 0.02 0 0.905 0.02 0 0.91 0.02 0 0.915 0.02 0 0.92 0.02 0 0.925 0.02 0 0.93 0.02 0 0.935 0.02 0 0.94 0.02 0 0.945 0.02 0 0.95 0.02 0 0.955 0.02 0 0.96 0.02 0 0.965 0.02 0 0.97 0.02 0 0.975 0.02 0 0.98 0.02 0 0.985 0.02 0 0.99 0.02 0 0.995 0.02 0 1 0.02 0 0 0.04 0 0.005 0.04 0 0.01 0.04 0 0.015 0.04 0 0.02 0.04 0 0.025 0.04 0 0.03 0.04 0 0.035 0.04 0 0.04 0.04 0 0.045 0.04 0 0.05 0.04 0 0.055 0.04 0 0.06 0.04 0 0.065 0.04 0 0.07 0.04 0 0.075 0.04 0 0.08 0.04 0 0.085 0.04 0 0.09 0.04 0 0.095 0.04 0 0.1 0.04 0 0.105 0.04 0 0.11 0.04 0 0.115 0.04 0 0.12 0.04 0 0.125 0.04 0 0.13 0.04 0 0.135 0.04 0 0.14 0.04 0 0.145 0.04 0 0.15 0.04 0 0.155 0.04 0 0.16 0.04 0 0.165 0.04 0 0.17 0.04 0 0.175 0.04 0 0.18 0.04 0 0.185 0.04 0 0.19 0.04 0 0.195 0.04 0 0.2 0.04 0 0.205 0.04 0 0.21 0.04 0 0.215 0.04 0 0.22 0.04 0 0.225 0.04 0 0.23 0.04 0 0.235 0.04 0 0.24 0.04 0 0.245 0.04 0 0.25 0.04 0 0.255 0.04 0 0.26 0.04 0 0.265 0.04 0 0.27 0.04 0 0.275 0.04 0 0.28 0.04 0 0.285 0.04 0 0.29 0.04 0 0.295 0.04 0 0.3 0.04 0 0.305 0.04 0 0.31 0.04 0 0.315 0.04 0 0.32 0.04 0 0.325 0.04 0 0.33 0.04 0 0.335 0.04 0 0.34 0.04 0 0.345 0.04 0 0.35 0.04 0 0.355 0.04 0 0.36 0.04 0 0.365 0.04 0 0.37 0.04 0 0.375 0.04 0 0.38 0.04 0 0.385 0.04 0 0.39 0.04 0 0.395 0.04 0 0.4 0.04 0 0.405 0.04 0 0.41 0.04 0 0.415 0.04 0 0.42 0.04 0 0.425 0.04 0 0.43 0.04 0 0.435002 0.04 0 0.440009 0.04 0 0.445043 0.04 0 0.45016 0.04 0 0.455468 0.04 0 0.461116 0.04 0 0.467264 0.04 0 0.474086 0.04 0 0.481798 0.04 0 0.490694 0.04 0 0.501154 0.04 0 0.513312 0.04 0 0.525767 0.04 0 0.537777 0.04 0 0.540411 0.04 0 0.54297 0.04 0 0.545482 0.04 0 0.547964 0.04 0 0.550426 0.04 0 0.552875 0.04 0 0.555321 0.04 0 0.557771 0.04 0 0.56025 0.04 0 0.56277 0.04 0 0.565396 0.04 0 0.568114 0.04 0 0.571036 0.04 0 0.574165 0.04 0 0.577644 0.04 0 0.58149 0.04 0 0.585731 0.04 0 0.590304 0.04 0 0.595107 0.04 0 0.600033 0.04 0 0.605009 0.04 0 0.610003 0.04 0 0.615001 0.04 0 0.62 0.04 0 0.625 0.04 0 0.63 0.04 0 0.635 0.04 0 0.64 0.04 0 0.645 0.04 0 0.65 0.04 0 0.655 0.04 0 0.66 0.04 0 0.665 0.04 0 0.67 0.04 0 0.675 0.04 0 0.68 0.04 0 0.685 0.04 0 0.69 0.04 0 0.695 0.04 0 0.7 0.04 0 0.705 0.04 0 0.71 0.04 0 0.715 0.04 0 0.72 0.04 0 0.725 0.04 0 0.73 0.04 0 0.735 0.04 0 0.74 0.04 0 0.745 0.04 0 0.75 0.04 0 0.755 0.04 0 0.76 0.04 0 0.765 0.04 0 0.77 0.04 0 0.775 0.04 0 0.78 0.04 0 0.785 0.04 0 0.79 0.04 0 0.795 0.04 0 0.8 0.04 0 0.805 0.04 0 0.81 0.04 0 0.815 0.04 0 0.82 0.04 0 0.825 0.04 0 0.83 0.04 0 0.835 0.04 0 0.84 0.04 0 0.845 0.04 0 0.85 0.04 0 0.855 0.04 0 0.86 0.04 0 0.865 0.04 0 0.87 0.04 0 0.875 0.04 0 0.88 0.04 0 0.885 0.04 0 0.89 0.04 0 0.895 0.04 0 0.9 0.04 0 0.905 0.04 0 0.91 0.04 0 0.915 0.04 0 0.92 0.04 0 0.925 0.04 0 0.93 0.04 0 0.935 0.04 0 0.94 0.04 0 0.945 0.04 0 0.95 0.04 0 0.955 0.04 0 0.96 0.04 0 0.965 0.04 0 0.97 0.04 0 0.975 0.04 0 0.98 0.04 0 0.985 0.04 0 0.99 0.04 0 0.995 0.04 0 1 0.04 0 0 0.06 0 0.005 0.06 0 0.01 0.06 0 0.015 0.06 0 0.02 0.06 0 0.025 0.06 0 0.03 0.06 0 0.035 0.06 0 0.04 0.06 0 0.045 0.06 0 0.05 0.06 0 0.055 0.06 0 0.06 0.06 0 0.065 0.06 0 0.07 0.06 0 0.075 0.06 0 0.08 0.06 0 0.085 0.06 0 0.09 0.06 0 0.095 0.06 0 0.1 0.06 0 0.105 0.06 0 0.11 0.06 0 0.115 0.06 0 0.12 0.06 0 0.125 0.06 0 0.13 0.06 0 0.135 0.06 0 0.14 0.06 0 0.145 0.06 0 0.15 0.06 0 0.155 0.06 0 0.16 0.06 0 0.165 0.06 0 0.17 0.06 0 0.175 0.06 0 0.18 0.06 0 0.185 0.06 0 0.19 0.06 0 0.195 0.06 0 0.2 0.06 0 0.205 0.06 0 0.21 0.06 0 0.215 0.06 0 0.22 0.06 0 0.225 0.06 0 0.23 0.06 0 0.235 0.06 0 0.24 0.06 0 0.245 0.06 0 0.25 0.06 0 0.255 0.06 0 0.26 0.06 0 0.265 0.06 0 0.27 0.06 0 0.275 0.06 0 0.28 0.06 0 0.285 0.06 0 0.29 0.06 0 0.295 0.06 0 0.3 0.06 0 0.305 0.06 0 0.31 0.06 0 0.315 0.06 0 0.32 0.06 0 0.325 0.06 0 0.33 0.06 0 0.335 0.06 0 0.34 0.06 0 0.345 0.06 0 0.35 0.06 0 0.355 0.06 0 0.36 0.06 0 0.365 0.06 0 0.37 0.06 0 0.375 0.06 0 0.38 0.06 0 0.385 0.06 0 0.39 0.06 0 0.395 0.06 0 0.4 0.06 0 0.405 0.06 0 0.41 0.06 0 0.415 0.06 0 0.42 0.06 0 0.425 0.06 0 0.43 0.06 0 0.435002 0.06 0 0.440009 0.06 0 0.445043 0.06 0 0.45016 0.06 0 0.455468 0.06 0 0.461116 0.06 0 0.467264 0.06 0 0.474086 0.06 0 0.481798 0.06 0 0.490694 0.06 0 0.501154 0.06 0 0.513312 0.06 0 0.525767 0.06 0 0.537777 0.06 0 0.540411 0.06 0 0.54297 0.06 0 0.545482 0.06 0 0.547964 0.06 0 0.550426 0.06 0 0.552875 0.06 0 0.555321 0.06 0 0.557771 0.06 0 0.56025 0.06 0 0.56277 0.06 0 0.565396 0.06 0 0.568114 0.06 0 0.571036 0.06 0 0.574165 0.06 0 0.577644 0.06 0 0.58149 0.06 0 0.585731 0.06 0 0.590304 0.06 0 0.595107 0.06 0 0.600033 0.06 0 0.605009 0.06 0 0.610003 0.06 0 0.615001 0.06 0 0.62 0.06 0 0.625 0.06 0 0.63 0.06 0 0.635 0.06 0 0.64 0.06 0 0.645 0.06 0 0.65 0.06 0 0.655 0.06 0 0.66 0.06 0 0.665 0.06 0 0.67 0.06 0 0.675 0.06 0 0.68 0.06 0 0.685 0.06 0 0.69 0.06 0 0.695 0.06 0 0.7 0.06 0 0.705 0.06 0 0.71 0.06 0 0.715 0.06 0 0.72 0.06 0 0.725 0.06 0 0.73 0.06 0 0.735 0.06 0 0.74 0.06 0 0.745 0.06 0 0.75 0.06 0 0.755 0.06 0 0.76 0.06 0 0.765 0.06 0 0.77 0.06 0 0.775 0.06 0 0.78 0.06 0 0.785 0.06 0 0.79 0.06 0 0.795 0.06 0 0.8 0.06 0 0.805 0.06 0 0.81 0.06 0 0.815 0.06 0 0.82 0.06 0 0.825 0.06 0 0.83 0.06 0 0.835 0.06 0 0.84 0.06 0 0.845 0.06 0 0.85 0.06 0 0.855 0.06 0 0.86 0.06 0 0.865 0.06 0 0.87 0.06 0 0.875 0.06 0 0.88 0.06 0 0.885 0.06 0 0.89 0.06 0 0.895 0.06 0 0.9 0.06 0 0.905 0.06 0 0.91 0.06 0 0.915 0.06 0 0.92 0.06 0 0.925 0.06 0 0.93 0.06 0 0.935 0.06 0 0.94 0.06 0 0.945 0.06 0 0.95 0.06 0 0.955 0.06 0 0.96 0.06 0 0.965 0.06 0 
[...]
			<PointData Scalars="VitesseX">
				<DataArray Name="VitesseX" type="Float32" format="ascii">
 0 -8.60004e-16 -1.80799e-15 2.23259e-15 1.43809e-15 9.78871e-17 -2.95072e-15 -2.29342e-15 -4.7436e-16 -1.71474e-15 -6.32648e-15 -1.2099e-15 5.15495e-15 8.04985e-15 -9.05995e-15 -9.64962e-16 8.90112e-15 -2.0933e-15 -1.10738e-14 -2.74385e-15 -9.09768e-15 5.01499e-15 1.84501e-15 -8.16792e-15 -9.49051e-15 -6.88513e-15 1.987e-15 -1.98466e-14 -1.67389e-14 2.06402e-14 -1.46761e-14 -2.61388e-14 5.37364e-15 -5.27675e-15 -1.68216e-15 -8.05582e-15 -5.63074e-15 3.45657e-15 -1.32489e-14 -5.24445e-15 3.47523e-15 -9.88846e-15 1.28927e-15 -1.51842e-14 2.50257e-14 5.80562e-15 -5.02594e-15 2.31552e-14 2.16672e-14 -7.56233e-15 -1.35348e-14 -3.18606e-14 -4.45056e-14 1.23252e-15 -1.69601e-14 -4.8499e-14 2.73156e-14 1.92966e-14 -3.06288e-14 -2.49598e-14 3.4055e-14 7.00485e-15 2.13599e-14 -5.42547e-14 -9.45979e-15 -2.01237e-16 -3.14181e-14 9.73707e-15 -1.39911e-14 3.09977e-17 -2.17065e-14 2.0806e-14 -3.15317e-14 1.08087e-14 -1.04581e-14 -2.99634e-14 1.70006e-14 -8.44446e-15 1.73511e-13 2.93638e-12 5.24458e-11 8.39581e-10 1.18713e-08 1.46852e-07 1.57268e-06 1.43942e-05 0.000110785 0.000702179 0.00356916 0.0141227 0.0425831 0.0985158 0.182755 0.289723 0.415315 0.558962 0.720591 0.889767 0.991804 0.946953 0.930078 0.927972 0.925068 0.922329 0.918011 0.915921 0.91087 0.911333 0.89942 0.903088 0.856893 0.866493 0.75864 0.754466 0.591788 0.496863 0.336364 0.20618 0.102176 0.0412499 0.0139532 0.0042259 0.00119632 0.000322279 8.30726e-05 2.05165e-05 4.85568e-06 1.10126e-06 2.39357e-07 4.98625e-08 9.95811e-09 1.90705e-09 3.50371e-10 6.17357e-11 1.04571e-11 1.62035e-12 2.64884e-13 8.53017e-15 -1.73576e-14 -7.26338e-15 -1.21023e-14 -1.08247e-13 4.25967e-14 -4.82457e-15 5.91346e-14 -5.06735e-14 -7.72985e-15 8.43687e-14 -3.20057e-14 6.27949e-14 -6.62806e-14 7.41935e-14 -2.86956e-14 -1.06081e-13 -4.00128e-14 -9.80479e-14 4.23493e-14 -7.87771e-14 -4.76762e-14 -3.79075e-14 -5.87746e-14 8.47021e-14 -3.3563e-14 -9.83853e-14 8.08134e-14 8.29133e-14 -6.14523e-14 7.68694e-14 -3.45524e-14 4.61125e-14 -7.84184e-14 4.52959e-14 -4.10002e-14 1.97299e-14 -2.49453e-14 -3.42397e-14 4.19751e-14 2.84843e-14 4.22143e-14 -1.18128e-14 2.0245e-14 2.92595e-14 3.57178e-14 -9.94045e-14 -6.12044e-14 2.53175e-14 8.33112e-14 1.22992e-15 -9.11621e-14 8.36656e-14 -4.3007e-14 5.31973e-14 7.91748e-14 -1.2754e-14 3.07974e-14 -2.25017e-14 7.57854e-14 1.13807e-13 1.08004e-13 3.99069e-14 0 0 -7.55252e-17 -4.50049e-16 -1.68096e-15 5.61303e-16 -3.30092e-15 2.50262e-15 7.64403e-16 -4.21045e-15 -5.16043e-15 -1.08263e-15 3.73307e-15 -2.44686e-15 8.83754e-15 -1.10151e-14 3.18355e-15 -1.03193e-16 -7.44596e-15 4.56017e-15 -1.2145e-14 -2.18994e-15 8.72446e-15 -7.87834e-15 -1.27666e-14 3.13889e-15 -1.27048e-14 -9.66141e-15 -2.34194e-14 -1.54934e-14 1.62138e-14 -1.77112e-14 -1.55781e-14 8.4632e-15 -7.86977e-15 -7.00434e-15 -3.19984e-15 -9.13141e-15 1.22791e-15 -2.06472e-14 -2.01599e-14 -2.19408e-16 7.19634e-15 -5.2082e-15 9.21361e-15 -4.70157e-15 1.63122e-14 -3.07187e-15 2.83108e-14 2.60864e-14 -1.19876e-14 -1.6312e-14 -2.36948e-14 -3.02324e-14 -4.37974e-14 2.34493e-14 -5.03927e-14 -3.47012e-15 2.02619e-14 -3.73083e-14 1.45789e-14 -1.4618e-14 3.32204e-14 -1.56382e-14 -9.44991e-15 -3.68487e-14 -6.31105e-15 1.01562e-14 -2.43071e-14 -7.29273e-15 3.85129e-15 -3.52173e-14 3.78049e-14 -4.55785e-14 -2.1655e-14 2.23816e-14 -2.74988e-14 -1.45561e-14 -4.06964e-15 2.05472e-13 2.97094e-12 5.24454e-11 8.39565e-10 1.18713e-08 1.46852e-07 1.57268e-06 1.43942e-05 0.000110785 0.000702179 0.00356916 0.0141227 0.0425831 0.0985158 0.182755 0.289723 0.415315 0.558962 0.720591 0.889767 0.991804 0.946953 0.930078 0.927972 0.925068 0.922329 0.918011 0.915921 0.91087 0.911333 0.89942 0.903088 0.856893 0.866493 0.75864 0.754466 0.591788 0.496863 0.336364 0.20618 0.102176 0.0412499 0.0139532 0.0042259 0.00119632 0.000322279 8.30726e-05 2.05165e-05 4.85568e-06 1.10126e-06 2.39357e-07 4.98625e-08 9.9581e-09 1.90703e-09 3.50372e-10 6.1749e-11 1.04265e-11 1.62006e-12 2.44443e-13 -4.82212e-14 -1.8485e-14 1.8567e-14 -4.16742e-15 1.91055e-14 -6.32753e-14 -1.98204e-14 6.49782e-14 -3.7153e-14 5.4565e-14 1.09178e-14 1.38019e-14 -9.78311e-15 4.80833e-15 -1.45272e-14 -9.58193e-14 -3.26867e-14 -6.95341e-14 -2.6392e-14 -3.05639e-14 -6.9241e-14 2.28145e-14 2.06448e-14 -5.47792e-14 -3.25555e-14 -6.85742e-14 4.65633e-14 1.41843e-14 3.29011e-14 -7.13706e-14 3.57682e-14 6.69854e-14 -8.0758e-14 -9.40661e-15 -1.69892e-14 -2.52757e-14 7.08633e-14 7.46111e-14 -1.0907e-13 5.36817e-14 -3.42616e-14 7.75941e-14 -6.60852e-14 8.85513e-14 -2.47182e-15 -2.30367e-14 -5.57856e-14 -3.39088e-15 7.66624e-14 -4.58584e-14 2.14473e-14 -5.96573e-14 7.19464e-14 7.36994e-14 -1.93451e-14 1.54241e-14 4.87567e-14 4.16467e-14 -2.08338e-14 9.23847e-14 6.40379e-14 8.29792e-14 8.42022e-14 0 0 -1.29574e-16 -4.15137e-17 -1.75546e-15 -3.45214e-15 -2.79049e-15 3.07819e-15 -1.69366e-15 -4.49142e-15 -5.39226e-15 5.25542e-15 6.52746e-15 -3.57017e-15 -7.76795e-15 -7.57352e-16 -3.44862e-15 -1.6023e-14 2.74456e-15 -6.24115e-15 2.67757e-15 -9.70505e-15 3.91396e-15 -1.09656e-14 -4.89613e-15 9.20992e-15 -1.53725e-14 -2.77378e-14 -8.49439e-15 -5.34281e-15 -2.54377e-14 -7.37074e-15 1.47951e-14 6.64932e-15 -2.72196e-14 -4.90058e-16 -4.41619e-15 -4.02884e-14 -3.78395e-15 -1.24577e-14 -2.95903e-14 1.72998e-15 5.6302e-15 -4.58251e-16 6.69365e-15 -5.7268e-15 2.24103e-14 -1.32467e-14 2.58167e-14 2.57397e-14 1.56411e-15 -1.21861e-14 2.99148e-14 -4.45427e-14 -4.10929e-14 -2.28926e-14 1.17491e-14 -7.33405e-14 2.59241e-14 -6.20259e-15 1.30982e-14 -5.2436e-14 1.39331e-14 -2.94085e-14 -2.64061e-14 -3.20982e-14 8.93866e-15 -1.5064e-14 1.04597e-14 -2.12605e-14 2.42122e-14 -4.85155e-14 4.88151e-14 -6.28633e-14 -4.00503e-14 2.39977e-14 -5.76371e-14 -3.1912e-14 6.2308e-14 2.41461e-13 2.97468e-12 5.2439e-11 8.39589e-10 1.18713e-08 1.46852e-07 1.57268e-06 1.43942e-05 0.000110785 0.000702179 0.00356916 0.0141227 0.0425831 0.0985158 0.182755 0.289723 0.415315 0.558962 0.720591 0.889767 0.991804 0.946953 0.930078 0.927972 0.925068 0.922329 0.918011 0.915921 0.91087 0.911333 0.89942 0.903088 0.856893 0.866493 0.75864 0.754466 0.591788 0.496863 0.336364 0.20618 0.102176 0.0412499 0.0139532 0.0042259 0.00119632 0.000322279 8.30726e-05 2.05165e-05 4.85568e-06 1.10126e-06 2.39357e-07 4.98625e-08 9.95805e-09 1.90702e-09 3.50363e-10 6.17087e-11 1.0404e-11 1.61804e-12 1.08055e-13 -5.76744e-14 -2.19525e-14 9.86978e-15 1.01264e-13 2.72384e-14 2.86635e-15 -8.20471e-14 -4.66822e-14 9.01446e-14 4.79933e-15 -3.25749e-14 5.66239e-14 -5.09645e-14 3.91838e-15 -8.85042e-14 -8.93817e-14 -1.07866e-13 1.57502e-15 -5.8157e-14 4.17661e-14 -5.63949e-15 8.8736e-14 -3.74692e-14 -7.19464e-14 -4.10908e-14 -7.88955e-14 2.66325e-15 -1.52802e-14 -3.19286e-14 -2.5993e-14 -2.23938e-15 -8.27065e-15 -4.52384e-14 3.18326e-14 6.16305e-14 -2.03594e-14 1.24774e-13 2.8781e-14 -7.91539e-14 -3.82002e-14 -5.84284e-14 7.79555e-14 -3.99576e-14 5.18114e-14 -5.39611e-14 -3.18958e-14 1.36325e-14 2.13373e-13 -8.27863e-14 -1.69567e-13 2.97126e-15 1.37324e-13 3.99492e-14 4.4637e-14 -1.62977e-15 4.95792e-14 6.76339e-14 8.97407e-14 8.34076e-15 5.7942e-14 2.99936e-14 5.3987e-14 7.49766e-14 0 0 -4.20015e-16 6.39434e-16 4.88264e-16 -3.0559e-15 -4.62305e-15 -2.52177e-15 4.85154e-15 -4.32729e-15 -3.61075e-15 4.41679e-15 -7.93008e-16 8.85565e-16 -4.87702e-15 -1.32379e-14 -1.93387e-14 -9.16101e-15 1.13675e-15 -6.19146e-15 -1.32417e-15 -9.7597e-15 -5.39842e-15 2.93124e-15 2.13069e-15 4.12317e-15 -1.86323e-14 -3.44733e-14 1.75268e-14 -1.5754e-14 -2.26418e-14 3.68249e-15 -7.76841e-15 1.04575e-14 -2.48587e-14 -2.16816e-14 -2.64086e-14 -1.71969e-14 -2.43374e-14 -5.26601e-15 1.56671e-14 -2.55168e-14 -6.04992e-15 -3.57231e-14 2.16041e-14 3.90205e-14 -2.39317e-14 4.6118e-14 -6.46786e-15 1.46294e-14 -1.71915e-14 1.37454e-14 4.47984e-14 -5.50188e-14 8.32161e-15 -5.40835e-14 -1.94539e-14 -5.16114e-14 6.88803e-14 -1.62335e-14 -4.49467e-14 -2.18901e-14 -4.70651e-14 -5.06007e-14 -5.20335e-14 1.56692e-14 -3.7053e-14 -7.52164e-14 2.68292e-14 5.05959e-15 3.35187e-14 -8.52144e-15 -1.723e-14 -5.40502e-14 -3.38631e-14 -1.20763e-14 -1.8158e-14 -2.87616e-14 6.9723e-14 2.23013e-13 3.0469e-12 5.24252e-11 8.39669e-10 1.18713e-08 1.46852e-07 1.57268e-06 1.43942e-05 0.000110785 0.000702179 0.00356916 0.0141227 0.0425831 0.0985158 0.182755 0.289723 0.415315 0.558962 0.720591 0.889767 0.991804 0.946953 0.930078 0.927972 0.925068 0.922329 0.918011 0.915921 0.91087 0.911333 0.89942 0.903088 0.856893 0.866493 0.75864 0.754466 0.591788 0.496863 0.336364 0.20618 0.102176 0.0412499 0.0139532 0.0042259 0.00119632 0.000322279 8.30726e-05 2.05165e-05 4.85568e-06 1.10126e-06 2.39357e-07 4.98624e-08 9.958e-09 1.90709e-09 3.50198e-10 6.171e-11 1.03828e-11 1.61476e-12 1.24347e-13 -1.96429e-14 -3.97649e-14 -7.78501e-14 1.26794e-13 4.1459e-14 3.60016e-14 4.5333e-14 -1.01094e-13 -2.64897e-14 3.10209e-14 -1.81797e-14 3.65243e-14 -1.46622e-14 -9.1644e-14 -3.2834e-14 -1.26967e-13 -1.4042e-13 -8.7445e-16 -5.12973e-14 8.7064e-14 7.57632e-15 1.741e-13 -1.12366e-13 -2.08711e-13 4.224e-14 2.84088e-14 -1.42386e-13 -3.00468e-14 7.35425e-15 -8.96262e-14 -1.02031e-13 1.38808e-13 -3.68927e-14 6.68448e-14 5.0777e-14 -4.72321e-14 2.17147e-13 -5.6381e-14 -8.8972e-14 -8.95415e-14 -1.95452e-14 -2.71478e-15 9.45571e-14 -5.56227e-15 -4.62242e-14 -4.84163e-14 7.67893e-14 3.50955e-14 -1.45492e-13 7.92844e-14 -5.98291e-14 1.25233e-13 1.27292e-13 3.60184e-14 3.54037e-14 1.41605e-14 1.16126e-13 1.14238e-13 5.55862e-14 4.55062e-14 7.21333e-14 -1.10287e-14 -2.19207e-14 0 0 9.99304e-16 1.67868e-15 -6.8363e-16 -5.94397e-15 -7.176e-15 -6.3284e-15 3.33687e-15 -2.29917e-15 1.47605e-15 3.59435e-15 -8.86959e-15 -1.6312e-15 9.65664e-16 -1.95357e-14 -1.60561e-14 -1.9582e-14 -1.56637e-14 1.90267e-14 -4.79943e-15 -2.56321e-15 -1.97763e-16 -3.97525e-15 -2.05133e-14 5.33226e-15 -5.15376e-15 -1.26149e-14 1.12665e-14 -9.08893e-15 4.6428e-15 2.25361e-15 -3.08985e-14 -3.79776e-14 -1.79624e-14 -1.65358e-14 -5.64675e-14 1.41362e-14 -6.26251e-14 -9.21316e-15 4.40036e-14 -3.01435e-14 4.04439e-15 -3.43204e-14 3.65212e-14 4.24444e-14 -8.47219e-15 5.68781e-14 -1.6141e-14 -1.43986e-15 -2.6516e-14 2.214e-14 2.03144e-14 -2.76284e-14 -1.42236e-14 1.86497e-14 -4.42061e-14 -1.36106e-14 2.12236e-14 -3.26557e-14 -4.8392e-14 -6.30041e-14 -6.1241e-14 -2.69849e-14 -2.43547e-14 -5.94366e-14 -8.56779e-14 -4.66996e-14 5.26436e-16 1.3756e-14 6.54227e-14 1.32742e-14 -7.26441e-14 -9.20549e-15 -2.64966e-14 -4.52609e-14 4.989e-15 -5.45322e-14 -1.45528e-15 2.54116e-13 3.13989e-12 5.24575e-11 8.3963e-10 1.18713e-08 1.46852e-07 1.57268e-06 1.43942e-05 0.000110785 0.000702179 0.00356916 0.0141227 0.0425831 0.0985158 0.182755 0.289723 0.415315 0.558962 0.720591 0.889767 0.991804 0.946953 0.930078 0.927972 0.925068 0.922329 0.918011 0.915921 0.91087 0.911333 0.89942 0.903088 0.856893 0.866493 0.75864 0.754466 0.591788 0.496863 0.336364 0.20618 0.102176 0.0412499 0.0139532 0.0042259 0.00119632 0.000322279 8.30726e-05 2.05165e-05 4.85568e-06 1.10126e-06 2.39356e-07 4.98626e-08 9.95797e-09 1.907e-09 3.50231e-10 6.15855e-11 1.04262e-11 1.68131e-12 2.18468e-13 5.87702e-14 -6.20758e-14 -9.7622e-14 -1.22154e-14 8.22536e-14 -1.70555e-13 6.82803e-14 -5.97084e-15 -7.41203e-15 4.4099e-14 8.74477e-14 -4.53341e-15 -1.7872e-13 -3.21303e-14 4.845e-15 -2.02162e-13 -1.77786e-14 1.44418e-14 -1.30771e-13 1.44852e-14 7.56677e-15 2.15799e-13 -4.55693e-14 -1.56476e-13 -8.25978e-15 8.29909e-14 -1.32733e-13 -3.7068e-14 3.54416e-14 -9.80624e-14 -1.23861e-13 1.49333e-13 1.65838e-14 7.32213e-14 3.92645e-14 -8.68811e-14 1.16556e-13 -8.30588e-14 -2.69621e-14 -3.59146e-14 -1.93537e-14 -4.96122e-14 1.1415e-14 8.16074e-14 2.13267e-14 -5.89965e-14 -2.48721e-14 -2.64974e-14 -1.40691e-13 1.28401e-13 -8.70182e-14 1.64359e-13 1.29282e-13 -1.5613e-14 4.89287e-14 9.67942e-14 2.136e-13 7.61161e-14 2.71706e-14 3.84094e-15 6.87532e-14 1.06605e-14 -1.26164e-13 0 0 1.87054e-15 1.08757e-15 -2.60208e-16 -1.23649e-14 -3.98716e-15 -9.41284e-15 -1.02389e-14 3.01996e-15 7.99522e-15 4.70474e-15 -1.17743e-14 -2.1252e-15 -1.34758e-14 -1.14012e-15 -7.66406e-15 -4.37804e-14 -1.53132e-14 1.776e-14 1.99508e-14 -9.73493e-15 5.79531e-15 -1.81424e-14 -3.7715e-14 5.06971e-15 1.47366e-14 9.55114e-15 -2.51713e-15 1.68923e-14 -8.09366e-15 3.14706e-15 -1.16526e-14 -9.51244e-14 -3.01838e-14 2.16379e-14 -7.06064e-14 -5.27843e-15 -8.31426e-14 -4.76419e-15 3.25678e-14 -1.87936e-15 7.16788e-15 1.35945e-14 9.61011e-15 2.98228e-14 4.89208e-14 -3.85537e-15 -1.17917e-15 -1.11647e-14 8.91957e-16 1.15061e-14 2.63906e-14 -1.83452e-14 -3.84488e-14 3.58224e-14 2.62803e-14 -3.64236e-14 -6.46924e-14 -1.26173e-15 -3.48119e-14 -1.23809e-13 -5.99213e-14 4.10509e-14 -3.28094e-14 -1.5017e-13 -6.69518e-14 -2.48251e-14 2.66653e-14 -2.45338e-14 1.04561e-13 -4.71162e-15 -6.8002e-14 2.35881e-14 -1.12487e-14 -7.35951e-14 -4.3946e-14 -6.92525e-14 -1.80458e-14 3.07694e-13 3.12987e-12 5.24976e-11 8.3955e-10 1.18714e-08 1.46852e-07 1.57268e-06 1.43942e-05 0.000110785 0.000702179 0.00356916 0.0141227 0.0425831 0.0985158 0.182755 0.289723 0.415315 0.558962 0.720591 0.889767 0.991804 0.946953 0.930078 0.927972 0.925068 0.922329 0.918011 0.915921 0.91087 0.911333 0.89942 0.903088 0.856893 0.866493 0.75864 0.754466 0.591788 0.496863 0.336364 0.20618 0.102176 0.0412499 0.0139532 0.0042259 0.00119632 0.000322279 8.30726e-05 2.05165e-05 4.85568e-06 1.10126e-06 2.39356e-07 4.98627e-08 9.95793e-09 1.90685e-09 3.50419e-10 6.14059e-11 1.0499e-11 1.74946e-12 1.80409e-13 1.46544e-13 -6.88076e-14 -6.42616e-14 -7.945e-14 -1.02474e-14 -2.38341e-13 -8.34744e-14 2.62768e-14 2.41953e-13 -8.12865e-14 2.08536e-13 -2.8636e-14 -3.48009e-13 5.07961e-14 1.7111e-15 -1.66295e-13 -1.12943e-14 1.32822e-13 -3.20413e-13 4.21102e-14 4.84933e-14 1.67397e-13 -2.07312e-14 1.12171e-14 -3.3424e-14 5.49701e-14 -1.67132e-13 7.73218e-15 9.69448e-15 1.24175e-14 -4.3155e-14 -1.64165e-13 2.23949e-13 1.63755e-14 1.79129e-13 -1.10517e-13 -7.36886e-14 -1.70024e-13 1.49692e-13 -3.44899e-14 -1.93763e-14 -5.06473e-14 -1.2572e-13 1.21149e-13 6.13619e-14 -3.30988e-15 -1.64103e-13 2.49166e-13 -2.83761e-13 -6.56876e-14 -8.99286e-14 3.81e-13 2.33867e-14 -2.0493e-13 1.15673e-13 3.12962e-13 2.19726e-13 5.07436e-14 -2.07695e-14 -7.64405e-14 3.86793e-14 9.32396e-14 -1.87357e-13 0
				</DataArray>
				<DataArray Name="VitesseY" type="Float32" format="ascii">