<?xml version="1.0"?>
<VTKFile type="PolyData">
	<PolyData>
		<Piece NumberOfPoints="1206" NumberOfPolys="1000">
			<Points>
				<DataArray type="Float32" NumberOfComponents="3" format="ascii">
 0 0 0 0.005 0 0 0.01 0 0 0.015 0 0 0.02 0 0 0.025 0 0 0.03 0 0 0.035 0 0 0.04 0 0 0.045 0 0 0.05 0 0 0.055 0 0 0.06 0 0 0.065 0 0 0.07 0 0 0.075 0 0 0.08 0 0 0.085 0 0 0.09 0 0 0.095 0 0 0.1 0 0 0.105 0 0 0.11 0 0 0.115 0 0 0.12 0 0 0.125 0 0 0.13 0 0 0.135 0 0 0.14 0 0 0.145 0 0 0.15 0 0 0.155 0 0 0.16 0 0 0.165 0 0 0.17 0 0 0.175 0 0 0.18 0 0 0.185 0 0 0.19 0 0 0.195 0 0 0.2 0 0 0.205 0 0 0.21 0 0 0.215 0 0 0.22 0 0 0.225 0 0 0.23 0 0 0.235 0 0 0.24 0 0 0.245 0 0 0.25 0 0 0.255 0 0 0.26 0 0 0.265 0 0 0.27 0 0 0.275 0 0 0.28 0 0 0.285 0 0 0.29 0 0 0.295 0 0 0.3 0 0 0.305 0 0 0.31 0 0 0.315 0 0 0.32 0 0 0.325 0 0 0.33 0 0 0.335 0 0 0.34 0 0 0.345 0 0 0.35 0 0 0.355 0 0 0.36 0 0 0.365 0 0 0.37 0 0 0.375 0 0 0.38 0 0 0.385 0 0 0.39 0 0 0.395 0 0 0.4 0 0 0.405 0 0 0.41 0 0 0.415 0 0 0.42 0 0 0.425 0 0 0.43 0 0 0.435 0 0 0.44 0 0 0.445 0 0 0.45 0 0 0.455 0 0 0.46 0 0 0.465005 0 0 0.470036 0 0 0.475197 0 0 0.480761 0 0 0.487199 0 0 0.495214 0 0 0.505934 0 0 0.519352 0 0 0.521686 0 0 0.523977 0 0 0.526314 0 0 0.528768 0 0 0.531429 0 0 0.534384 0 0 0.537718 0 0 0.541484 0 0 0.545684 0 0 0.550254 0 0 0.555074 0 0 0.560018 0 0 0.565004 0 0 0.570001 0 0 0.575 0 0 0.58 0 0 0.585 0 0 0.59 0 0 0.595 0 0 0.6 0 0 0.605 0 0 0.61 0 0 0.615 0 0 0.62 0 0 0.625 0 0 0.63 0 0 0.635 0 0 0.64 0 0 0.645 0 0 0.65 0 0 0.655 0 0 0.66 0 0 0.665 0 0 0.67 0 0 0.675 0 0 0.68 0 0 0.685 0 0 0.69 0 0 0.695 0 0 0.7 0 0 0.705 0 0 0.71 0 0 0.715 0 0 0.72 0 0 0.725 0 0 0.73 0 0 0.735 0 0 0.74 0 0 0.745 0 0 0.75 0 0 0.755 0 0 0.76 0 0 0.765 0 0 0.77 0 0 0.775 0 0 0.78 0 0 0.785 0 0 0.79 0 0 0.795 0 0 0.8 0 0 0.805 0 0 0.81 0 0 0.815 0 0 0.82 0 0 0.825 0 0 0.83 0 0 0.835 0 0 0.84 0 0 0.845 0 0 0.85 0 0 0.855 0 0 0.86 0 0 0.865 0 0 0.87 0 0 0.875 0 0 0.88 0 0 0.885 0 0 0.89 0 0 0.895 0 0 0.9 0 0 0.905 0 0 0.91 0 0 0.915 0 0 0.92 0 0 0.925 0 0 0.93 0 0 0.935 0 0 0.94 0 0 0.945 0 0 0.95 0 0 0.955 0 0 0.96 0 0 0.965 0 0 0.97 0 0 0.975 0 0 0.98 0 0 0.985 0 0 0.99 0 0 0.995 0 0 1 0 0 0 0.02 0 0.005 0.02 0 0.01 0.02 0 0.015 0.02 0 0.02 0.02 0 0.025 0.02 0 0.03 0.02 0 0.035 0.02 0 0.04 0.02 0 0.045 0.02 0 0.05 0.02 0 0.055 0.02 0 0.06 0.02 0 0.065 0.02 0 0.07 0.02 0 0.075 0.02 0 0.08 0.02 0 0.085 0.02 0 0.09 0.02 0 0.095 0.02 0 0.1 0.02 0 0.105 0.02 0 0.11 0.02 0 0.115 0.02 0 0.12 0.02 0 0.125 0.02 0 0.13 0.02 0 0.135 0.02 0 0.14 0.02 0 0.145 0.02 0 0.15 0.02 0 0.155 0.02 0 0.16 0.02 0 0.165 0.02 0 0.17 0.02 0 0.175 0.02 0 0.18 0.02 0 0.185 0.02 0 0.19 0.02 0 0.195 0.02 0 0.2 0.02 0 0.205 0.02 0 0.21 0.02 0 0.215 0.02 0 0.22 0.02 0 0.225 0.02 0 0.23 0.02 0 0.235 0.02 0 0.24 0.02 0 0.245 0.02 0 0.25 0.02 0 0.255 0.02 0 0.26 0.02 0 0.265 0.02 0 0.27 0.02 0 0.275 0.02 0 0.28 0.02 0 0.285 0.02 0 0.29 0.02 0 0.295 0.02 0 0.3 0.02 0 0.305 0.02 0 0.31 0.02 0 0.315 0.02 0 0.32 0.02 0 0.325 0.02 0 0.33 0.02 0 0.335 0.02 0 0.34 0.02 0 0.345 0.02 0 0.35 0.02 0 0.355 0.02 0 0.36 0.02 0 0.365 0.02 0 0.37 0.02 0 0.375 0.02 0 0.38 0.02 0 0.385 0.02 0 0.39 0.02 0 0.395 0.02 0 0.4 0.02 0 0.405 0.02 0 0.41 0.02 0 0.415 0.02 0 0.42 0.02 0 0.425 0.02 0 0.43 0.02 0 0.435 0.02 0 0.44 0.02 0 0.445 0.02 0 0.45 0.02 0 0.455 0.02 0 0.46 0.02 0 0.465005 0.02 0 0.470036 0.02 0 0.475197 0.02 0 0.480761 0.02 0 0.487199 0.02 0 0.495214 0.02 0 0.505934 0.02 0 0.519352 0.02 0 0.521686 0.02 0 0.523977 0.02 0 0.526314 0.02 0 0.528768 0.02 0 0.531429 0.02 0 0.534384 0.02 0 0.537718 0.02 0 0.541484 0.02 0 0.545684 0.02 0 0.550254 0.02 0 0.555074 0.02 0 0.560018 0.02 0 0.565004 0.02 0 0.570001 0.02 0 0.575 0.02 0 0.58 0.02 0 0.585 0.02 0 0.59 0.02 0 0.595 0.02 0 0.6 0.02 0 0.605 0.02 0 0.61 0.02 0 0.615 0.02 0 0.62 0.02 0 0.625 0.02 0 0.63 0.02 0 0.635 0.02 0 0.64 0.02 0 0.645 0.02 0 0.65 0.02 0 0.655 0.02 0 0.66 0.02 0 0.665 0.02 0 0.67 0.02 0 0.675 0.02 0 0.68 0.02 0 0.685 0.02 0 0.69 0.02 0 0.695 0.02 0 0.7 0.02 0 0.705 0.02 0 0.71 0.02 0 0.715 0.02 0 0.72 0.02 0 0.725 0.02 0 0.73 0.02 0 0.735 0.02 0 0.74 0.02 0 0.745 0.02 0 0.75 0.02 0 0.755 0.02 0 0.76 0.02 0 0.765 0.02 0 0.77 0.02 0 0.775 0.02 0 0.78 0.02 0 0.785 0.02 0 0.79 0.02 0 0.795 0.02 0 0.8 0.02 0 0.805 0.02 0 0.81 0.02 0 0.815 0.02 0 0.82 0.02 0 0.825 0.02 0 0.83 0.02 0 0.835 0.02 0 0.84 0.02 0 0.845 0.02 0 0.85 0.02 0 0.855 0.02 0 0.86 0.02 0 0.865 0.02 0 0.87 0.02 0 0.875 0.02 0 0.88 0.02 0 0.885 0.02 0 0.89 0.02 0 0.895 0.02 0 0.9 0.02 0 0.905 0.02 0 0.91 0.02 0 0.915 0.02 0 0.92 0.02 0 0.925 0.02 0 0.93 0.02 0 0.935 0.02 0 0.94 0.02 0 0.945 0.02 0 0.95 0.02 0 0.955 0.02 0 0.96 0.02 0 0.965 0.02 0 0.97 0.02 0 0.975 0.02 0 0.98 0.02 0 0.985 0.02 0 0.99 0.02 0 0.995 0.02 0 1 0.02 0 0 0.04 0 0.005 0.04 0 0.01 0.04 0 0.015 0.04 0 0.02 0.04 0 0.025 0.04 0 0.03 0.04 0 0.035 0.04 0 0.04 0.04 0 0.045 0.04 0 0.05 0.04 0 0.055 0.04 0 0.06 0.04 0 0.065 0.04 0 0.07 0.04 0 0.075 0.04 0 0.08 0.04 0 0.085 0.04 0 0.09 0.04 0 0.095 0.04 0 0.1 0.04 0 0.105 0.04 0 0.11 0.04 0 0.115 0.04 0 0.12 0.04 0 0.125 0.04 0 0.13 0.04 0 0.135 0.04 0 0.14 0.04 0 0.145 0.04 0 0.15 0.04 0 0.155 0.04 0 0.16 0.04 0 0.165 0.04 0 0.17 0.04 0 0.175 0.04 0 0.18 0.04 0 0.185 0.04 0 0.19 0.04 0 0.195 0.04 0 0.2 0.04 0 0.205 0.04 0 0.21 0.04 0 0.215 0.04 0 0.22 0.04 0 0.225 0.04 0 0.23 0.04 0 0.235 0.04 0 0.24 0.04 0 0.245 0.04 0 0.25 0.04 0 0.255 0.04 0 0.26 0.04 0 0.265 0.04 0 0.27 0.04 0 0.275 0.04 0 0.28 0.04 0 0.285 0.04 0 0.29 0.04 0 0.295 0.04 0 0.3 0.04 0 0.305 0.04 0 0.31 0.04 0 0.315 0.04 0 0.32 0.04 0 0.325 0.04 0 0.33 0.04 0 0.335 0.04 0 0.34 0.04 0 0.345 0.04 0 0.35 0.04 0 0.355 0.04 0 0.36 0.04 0 0.365 0.04 0 0.37 0.04 0 0.375 0.04 0 0.38 0.04 0 0.385 0.04 0 0.39 0.04 0 0.395 0.04 0 0.4 0.04 0 0.405 0.04 0 0.41 0.04 0 0.415 0.04 0 0.42 0.04 0 0.425 0.04 0 0.43 0.04 0 0.435 0.04 0 0.44 0.04 0 0.445 0.04 0 0.45 0.04 0 0.455 0.04 0 0.46 0.04 0 0.465005 0.04 0 0.470036 0.04 0 0.475197 0.04 0 0.480761 0.04 0 0.487199 0.04 0 0.495214 0.04 0 0.505934 0.04 0 0.519352 0.04 0 0.521686 0.04 0 0.523977 0.04 0 0.526314 0.04 0 0.528768 0.04 0 0.531429 0.04 0 0.534384 0.04 0 0.537718 0.04 0 0.541484 0.04 0 0.545684 0.04 0 0.550254 0.04 0 0.555074 0.04 0 0.560018 0.04 0 0.565004 0.04 0 0.570001 0.04 0 0.575 0.04 0 0.58 0.04 0 0.585 0.04 0 0.59 0.04 0 0.595 0.04 0 0.6 0.04 0 0.605 0.04 0 0.61 0.04 0 0.615 0.04 0 0.62 0.04 0 0.625 0.04 0 0.63 0.04 0 0.635 0.04 0 0.64 0.04 0 0.645 0.04 0 0.65 0.04 0 0.655 0.04 0 0.66 0.04 0 0.665 0.04 0 0.67 0.04 0 0.675 0.04 0 0.68 0.04 0 0.685 0.04 0 0.69 0.04 0 0.695 0.04 0 0.7 0.04 0 0.705 0.04 0 0.71 0.04 0 0.715 0.04 0 0.72 0.04 0 0.725 0.04 0 0.73 0.04 0 0.735 0.04 0 0.74 0.04 0 0.745 0.04 0 0.75 0.04 0 0.755 0.04 0 0.76 0.04 0 0.765 0.04 0 0.77 0.04 0 0.775 0.04 0 0.78 0.04 0 0.785 0.04 0 0.79 0.04 0 0.795 0.04 0 0.8 0.04 0 0.805 0.04 0 0.81 0.04 0 0.815 0.04 0 0.82 0.04 0 0.825 0.04 0 0.83 0.04 0 0.835 0.04 0 0.84 0.04 0 0.845 0.04 0 0.85 0.04 0 0.855 0.04 0 0.86 0.04 0 0.865 0.04 0 0.87 0.04 0 0.875 0.04 0 0.88 0.04 0 0.885 0.04 0 0.89 0.04 0 0.895 0.04 0 0.9 0.04 0 0.905 0.04 0 0.91 0.04 0 0.915 0.04 0 0.92 0.04 0 0.925 0.04 0 0.93 0.04 0 0.935 0.04 0 0.94 0.04 0 0.945 0.04 0 0.95 0.04 0 0.955 0.04 0 0.96 0.04 0 0.965 0.04 0 0.97 0.04 0 0.975 0.04 0 0.98 0.04 0 0.985 0.04 0 0.99 0.04 0 0.995 0.04 0 1 0.04 0 0 0.06 0 0.005 0.06 0 0.01 0.06 0 0.015 0.06 0 0.02 0.06 0 0.025 0.06 0 0.03 0.06 0 0.035 0.06 0 0.04 0.06 0 0.045 0.06 0 0.05 0.06 0 0.055 0.06 0 0.06 0.06 0 0.065 0.06 0 0.07 0.06 0 0.075 0.06 0 0.08 0.06 0 0.085 0.06 0 0.09 0.06 0 0.095 0.06 0 0.1 0.06 0 0.105 0.06 0 0.11 0.06 0 0.115 0.06 0 0.12 0.06 0 0.125 0.06 0 0.13 0.06 0 0.135 0.06 0 0.14 0.06 0 0.145 0.06 0 0.15 0.06 0 0.155 0.06 0 0.16 0.06 0 0.165 0.06 0 0.17 0.06 0 0.175 0.06 0 0.18 0.06 0 0.185 0.06 0 0.19 0.06 0 0.195 0.06 0 0.2 0.06 0 0.205 0.06 0 0.21 0.06 0 0.215 0.06 0 0.22 0.06 0 0.225 0.06 0 0.23 0.06 0 0.235 0.06 0 0.24 0.06 0 0.245 0.06 0 0.25 0.06 0 0.255 0.06 0 0.26 0.06 0 0.265 0.06 0 0.27 0.06 0 0.275 0.06 0 0.28 0.06 0 0.285 0.06 0 0.29 0.06 0 0.295 0.06 0 0.3 0.06 0 0.305 0.06 0 0.31 0.06 0 0.315 0.06 0 0.32 0.06 0 0.325 0.06 0 0.33 0.06 0 0.335 0.06 0 0.34 0.06 0 0.345 0.06 0 0.35 0.06 0 0.355 0.06 0 0.36 0.06 0 0.365 0.06 0 0.37 0.06 0 0.375 0.06 0 0.38 0.06 0 0.385 0.06 0 0.39 0.06 0 0.395 0.06 0 0.4 0.06 0 0.405 0.06 0 0.41 0.06 0 0.415 0.06 0 0.42 0.06 0 0.425 0.06 0 0.43 0.06 0 0.435 0.06 0 0.44 0.06 0 0.445 0.06 0 0.45 0.06 0 0.455 0.06 0 0.46 0.06 0 0.465005 0.06 0 0.470036 0.06 0 0.475197 0.06 0 0.480761 0.06 0 0.487199 0.06 0 0.495214 0.06 0 0.505934 0.06 0 0.519352 0.06 0 0.521686 0.06 0 0.523977 0.06 0 0.526314 0.06 0 0.528768 0.06 0 0.531429 0.06 0 0.534384 0.06 0 0.537718 0.06 0 0.541484 0.06 0 0.545684 0.06 0 0.550254 0.06 0 0.555074 0.06 0 0.560018 0.06 0 0.565004 0.06 0 0.570001 0.06 0 0.575 0.06 0 0.58 0.06 0 0.585 0.06 0 0.59 0.06 0 0.595 0.06 0 0.6 0.06 0 0.605 0.06 0 0.61 0.06 0 0.615 0.06 0 0.62 0.06 0 0.625 0.06 0 0.63 0.06 0 0.635 0.06 0 0.64 0.06 0 0.645 0.06 0 0.65 0.06 0 0.655 0.06 0 0.66 0.06 0 0.665 0.06 0 0.67 0.06 0 0.675 0.06 0 0.68 0.06 0 0.685 0.06 0 0.69 0.06 0 0.695 0.06 0 0.7 0.06 0 0.705 0.06 0 0.71 0.06 0 0.715 0.06 0 0.72 0.06 0 0.725 0.06 0 0.73 0.06 0 0.735 0.06 0 0.74 0.06 0 0.745 0.06 0 0.75 0.06 0 0.755 0.06 0 0.76 0.06 0 0.765 0.06 0 0.77 0.06 0 0.775 0.06 0 0.78 0.06 0 0.785 0.06 0 0.79 0.06 0 0.795 0.06 0 0.8 0.06 0 0.805 0.06 0 0.81 0.06 0 0.815 0.06 0 0.82 0.06 0 0.825 0.06 0 0.83 0.06 0 0.835 0.06 0 0.84 0.06 0 0.845 0.06 0 0.85 0.06 0 0.855 0.06 0 0.86 0.06 0 0.865 0.06 0 0.87 0.06 0 0.875 0.06 0 0.88 0.06 0 0.885 0.06 0 0.89 0.06 0 0.895 0.06 0 0.9 0.06 0 0.905 0.06 0 0.91 0.06 0 0.915 0.06 0 0.92 0.06 0 0.925 0.06 0 0.93 0.06 0 0.935 0.06 0 0.94 0.06 0 0.945 0.06 0 0.95 0.06 0 0.955 0.06 0 0.96 0.06 0 0.965 0.06 0 0.97 0.06 0 0.975 0.06 0 0.98 0.06 0 0.985 0.06 0 0.99 0.06 0 0.995 0.06 0 1 0.06 0 0 0.08 0 0.005 0.08 0 0.01 0.08 0 0.015 0.08 0 0.02 0.08 0 0.025 0.08 0 0.03 0.08 0 0.035 0.08 0 0.04 0.08 0
[...]
			<PointData Scalars="VitesseX">
				<DataArray Name="VitesseX" type="Float32" format="ascii">
 0 -7.08846e-16 8.7329e-17 -1.37265e-15 1.3233e-15 2.51069e-15 -2.94375e-15 -3.85799e-15 2.77127e-15 3.09399e-15 -9.18406e-18 -9.08755e-16 -7.10247e-15 1.40925e-14 -1.31259e-14 7.2903e-15 9.86674e-16 -1.27592e-14 1.27592e-14 0 -6.45135e-15 1.77795e-15 3.48985e-16 3.4768e-15 -1.06819e-14 1.48196e-14 -1.4549e-14 3.75275e-15 -2.79633e-16 1.81164e-15 2.28359e-15 4.52813e-15 9.89616e-15 -2.14492e-14 -5.04545e-15 1.33508e-14 -1.95197e-14 1.08769e-14 2.00244e-14 -2.17308e-14 1.81877e-14 -4.13208e-15 -1.63655e-14 1.66093e-14 -1.66687e-14 1.33408e-14 -2.00949e-14 9.48499e-15 -1.13779e-14 1.97363e-14 1.53806e-14 0 -3.84066e-14 3.12587e-14 9.88345e-15 -1.52315e-14 -4.33692e-14 4.5636e-14 -3.77849e-14 2.41572e-14 2.45289e-14 -4.55937e-14 4.95355e-14 -7.79442e-15 -7.3294e-16 9.88764e-15 -3.04083e-14 2.59474e-14 1.44371e-14 -4.66486e-14 4.50121e-14 -5.24995e-14 4.55732e-14 -4.46476e-14 5.7346e-14 -1.76281e-14 1.70725e-14 -2.64617e-14 1.43855e-14 1.79145e-14 -9.13912e-14 5.2327e-14 2.4331e-14 -2.51124e-14 -1.45423e-14 1.20957e-13 2.7718e-12 9.72973e-11 2.86435e-09 6.9964e-08 1.39365e-06 2.21238e-05 0.000271409 0.00246616 0.0157026 0.0665896 0.188831 0.391132 0.665459 0.977199 0.955877 0.982624 0.981772 0.96107 0.906682 0.821713 0.697804 0.546633 0.380491 0.224518 0.104975 0.0367899 0.00998036 0.00229826 0.000477082 9.1313e-05 1.62397e-05 2.69286e-06 4.17204e-07 6.04864e-08 8.21649e-09 1.04695e-09 1.25188e-10 1.41284e-11 1.4784e-12 1.33246e-13 2.2999e-14 -4.46813e-14 -2.92702e-15 4.0051e-14 -5.68698e-14 6.14593e-14 -3.09288e-16 -4.83814e-14 6.68043e-14 -5.66817e-14 3.49411e-14 -5.36601e-15 -1.43638e-14 4.93853e-15 -2.92334e-14 3.1979e-15 5.78301e-14 -3.82438e-14 2.64734e-14 1.26604e-14 -8.27363e-15 2.07267e-14 -5.50346e-15 -1.88414e-14 -1.18313e-14 2.42564e-14 -6.32042e-15 -5.0835e-14 5.10589e-14 4.57643e-14 -3.95713e-14 1.94956e-14 5.47987e-15 -1.53401e-14 1.13912e-14 1.7917e-14 4.44571e-14 -7.79567e-14 1.10631e-14 -1.98544e-14 -6.19371e-14 2.7006e-15 4.71246e-14 -4.31786e-14 2.13316e-14 -6.48758e-15 -1.87133e-14 -9.89566e-15 4.30724e-14 2.31437e-14 -3.6295e-14 8.90526e-15 3.18357e-14 3.10163e-14 -8.3772e-14 3.81468e-14 -1.7157e-14 -2.87565e-14 8.75656e-14 -5.04185e-14 3.21461e-14 -8.54928e-14 2.07567e-14 8.62915e-14 -4.97821e-14 -6.01253e-14 -4.47729e-14 8.26975e-14 -4.34085e-14 0 1.35629e-14 6.055e-14 -7.40901e-14 0 0 0 -8.71993e-17 6.21695e-16 4.35221e-16 -1.8748e-15 3.73636e-16 -2.55788e-15 5.05835e-15 -4.5825e-15 5.16811e-15 -2.89805e-18 -5.65553e-15 3.85827e-15 -9.23772e-15 1.29392e-14 -1.85999e-15 -1.02268e-14 1.25008e-14 -1.15117e-14 9.73103e-15 5.25684e-15 -1.37659e-14 -3.27821e-17 4.48515e-15 -2.57281e-15 1.39962e-14 -2.34115e-14 -2.21428e-15 1.20218e-14 1.09227e-14 -9.14261e-15 1.89701e-14 -1.81303e-14 -9.32355e-15 1.59061e-14 -8.9984e-15 -8.51411e-15 7.23108e-15 1.02952e-14 -1.57382e-14 1.82227e-14 -6.28143e-15 -1.65489e-14 1.35949e-14 -1.65329e-15 2.48697e-15 -1.51196e-14 9.31686e-15 -1.09665e-14 2.33587e-14 7.69032e-15 -7.1877e-15 -1.52685e-14 3.1415e-14 -3.23086e-14 3.10375e-14 -3.76065e-14 9.8154e-15 -7.39276e-15 -8.00255e-16 2.89748e-14 -4.75943e-14 4.95649e-14 1.93165e-14 -1.76277e-14 1.08187e-14 -1.02109e-14 8.42978e-15 2.42846e-14 -5.34273e-14 4.70026e-14 -4.71422e-14 2.66553e-14 -1.45431e-14 2.60808e-14 -1.77466e-14 2.57963e-14 -3.07942e-14 2.29401e-14 -1.17016e-14 -3.52262e-14 -5.66425e-15 4.86752e-14 -3.52197e-14 2.89674e-14 1.13327e-13 2.77603e-12 9.72866e-11 2.86434e-09 6.9964e-08 1.39365e-06 2.21238e-05 0.000271409 0.00246616 0.0157026 0.0665896 0.188831 0.391132 0.665459 0.977199 0.955877 0.982624 0.981772 0.96107 0.906682 0.821713 0.697804 0.546633 0.380491 0.224518 0.104975 0.0367899 0.00998036 0.00229826 0.000477082 9.1313e-05 1.62397e-05 2.69286e-06 4.17204e-07 6.04864e-08 8.21652e-09 1.04694e-09 1.25226e-10 1.40897e-11 1.48619e-12 1.36315e-13 1.86188e-14 -2.05619e-14 -6.1692e-14 9.7497e-14 -6.83487e-14 6.01332e-14 -1.7859e-14 8.43215e-15 1.00902e-15 -1.64269e-14 2.0767e-14 1.04885e-14 -4.13281e-14 2.55324e-14 -2.90242e-14 -3.90442e-15 5.29699e-14 -4.27869e-14 2.76551e-14 5.81787e-14 -9.83535e-14 1.0963e-13 -9.60193e-14 3.67389e-14 1.35708e-14 -6.45196e-14 5.55031e-14 -4.24259e-14 5.23834e-14 1.94549e-14 -6.60078e-15 2.70786e-14 -1.55953e-14 1.30126e-14 -5.34237e-15 4.77758e-14 -1.85578e-15 -7.83986e-14 -5.47753e-14 9.45778e-14 -2.33447e-14 2.80348e-14 -2.96561e-14 -3.7848e-14 -2.30346e-14 8.44153e-14 -8.28359e-14 -2.19169e-14 3.23567e-14 4.42783e-14 -3.51017e-14 6.3708e-14 -9.59449e-15 -4.32834e-14 -3.95265e-14 -2.67462e-14 9.21321e-14 -9.21304e-14 6.89942e-14 -4.36464e-14 -6.6549e-15 -8.91833e-15 1.29231e-14 1.02647e-14 -9.13664e-14 3.60446e-15 1.755e-14 3.13612e-14 -2.26695e-14 4.44625e-14 -6.13657e-14 5.82587e-14 -3.71947e-14 -1.06636e-14 0 0 6.67343e-16 -2.28969e-16 1.85782e-15 1.55282e-16 -2.42407e-15 -2.85363e-15 3.27318e-15 6.2957e-16 2.64262e-15 -3.81202e-17 -6.47412e-15 -1.02595e-15 -3.39125e-15 1.06278e-14 -5.17635e-15 1.81877e-15 1.35931e-14 -1.28741e-14 -2.53777e-15 5.34517e-15 -7.51866e-15 4.37861e-15 6.2124e-15 -5.6218e-15 6.40744e-15 -5.65546e-15 -1.40918e-14 2.53632e-14 -1.19337e-14 -6.29478e-15 1.82996e-14 9.86468e-16 -7.55083e-15 1.36316e-14 -1.4503e-14 -1.64379e-15 -1.60847e-14 1.53555e-14 -7.21337e-16 -4.77948e-15 2.24043e-15 -1.28147e-14 9.07884e-16 6.05566e-15 1.72326e-14 -1.42319e-14 1.8253e-14 -2.03024e-14 8.27029e-15 0 1.8998e-14 -8.01457e-16 1.19704e-14 -3.77463e-14 3.05418e-14 -7.03847e-15 1.07372e-14 -2.66844e-14 7.49245e-15 8.71651e-16 -2.88009e-14 3.29024e-14 2.79729e-14 -5.38707e-15 3.58878e-14 -1.98465e-14 1.46205e-14 4.51202e-15 -5.2788e-14 4.43415e-14 -3.65302e-14 3.82831e-14 -2.26098e-14 -8.55879e-15 -9.50678e-15 1.04647e-14 6.60583e-15 2.45759e-14 -4.83171e-14 -7.26457e-16 2.90535e-14 9.43572e-15 -2.23111e-14 2.02386e-14 1.53124e-13 2.70541e-12 9.73412e-11 2.86426e-09 6.9964e-08 1.39365e-06 2.21238e-05 0.000271409 0.00246616 0.0157026 0.0665896 0.188831 0.391132 0.665459 0.977199 0.955877 0.982624 0.981772 0.96107 0.906682 0.821713 0.697804 0.546633 0.380491 0.224518 0.104975 0.0367899 0.00998036 0.00229826 0.000477082 9.1313e-05 1.62397e-05 2.69286e-06 4.17204e-07 6.04864e-08 8.21654e-09 1.04692e-09 1.25251e-10 1.40594e-11 1.50623e-12 1.17085e-13 -1.07552e-14 8.1076e-14 -7.56117e-14 -2.00122e-14 3.53207e-14 1.14095e-13 -3.47122e-14 -3.60328e-14 2.16826e-14 9.45891e-15 2.07345e-14 -1.10027e-14 -5.9352e-14 -9.09377e-15 -1.76429e-14 -2.97707e-14 9.81456e-14 1.68567e-14 -5.27765e-14 -1.296e-14 -4.68283e-15 6.03989e-14 -1.84304e-14 4.1926e-14 2.24132e-15 -6.98485e-14 -3.65868e-14 4.44983e-14 2.63142e-14 7.23133e-15 -1.2566e-14 9.29231e-14 -9.72672e-14 5.62825e-14 4.09336e-14 1.47221e-14 4.97937e-14 -9.38109e-14 -4.26542e-14 1.05871e-13 8.84508e-14 -1.29114e-13 -3.33563e-15 -1.05784e-13 7.32227e-14 1.5743e-14 -8.31308e-14 2.19873e-14 -4.59666e-14 -1.24671e-14 8.08289e-14 3.14169e-14 -9.47404e-14 -3.98113e-15 -3.88997e-14 -4.45786e-14 1.20178e-13 -5.38156e-14 -3.44921e-14 6.13361e-14 -7.81071e-14 3.86192e-14 -2.16238e-14 -1.56157e-14 -3.94439e-14 -2.94406e-14 4.17568e-14 -1.90166e-14 5.68745e-14 -1.02345e-14 -9.75205e-15 4.05178e-15 -5.08001e-14 6.03934e-14 0 0 -8.78926e-17 1.04497e-15 -2.04986e-15 2.65667e-15 2.23374e-16 -3.57758e-15 2.28487e-15 1.34795e-15 -1.93055e-15 -3.05916e-15 2.03117e-15 -4.14051e-15 6.74451e-15 2.58818e-16 -4.4456e-15 1.07076e-14 -1.41749e-14 5.93076e-15 1.23681e-15 -1.2069e-14 3.63275e-15 2.01976e-14 -7.27055e-15 4.32564e-15 2.96647e-15 2.98148e-15 -1.28618e-14 3.70372e-15 -1.90065e-14 1.05293e-14 6.8509e-15 3.05045e-14 -1.39769e-14 -2.44281e-14 5.50103e-15 -9.01459e-15 4.90542e-15 -1.18445e-14 2.43254e-14 -1.72841e-14 2.34546e-14 2.79829e-15 -5.73151e-15 -1.4982e-17 -4.37689e-15 -1.52838e-14 1.70173e-14 -6.29414e-15 -9.37002e-15 1.89663e-14 2.05571e-14 9.69604e-15 -3.74019e-14 1.92777e-14 2.11914e-14 -2.92944e-14 4.35577e-14 -5.17405e-14 2.49392e-14 -4.23535e-14 1.15768e-14 7.24211e-15 3.66404e-14 1.12944e-14 3.89658e-14 -5.61483e-14 2.60066e-14 8.44805e-15 3.1743e-16 -3.18928e-14 -7.25637e-15 3.33552e-14 -6.5169e-14 5.18921e-14 -1.77541e-15 5.22321e-15 3.41534e-14 2.09403e-14 -1.14891e-14 -9.03445e-14 1.20937e-13 -3.08474e-14 -4.49189e-14 -1.82726e-14 1.54735e-13 2.71089e-12 9.73596e-11 2.86427e-09 6.9964e-08 1.39365e-06 2.21238e-05 0.000271409 0.00246616 0.0157026 0.0665896 0.188831 0.391132 0.665459 0.977199 0.955877 0.982624 0.981772 0.96107 0.906682 0.821713 0.697804 0.546633 0.380491 0.224518 0.104975 0.0367899 0.00998036 0.00229826 0.000477082 9.1313e-05 1.62397e-05 2.69286e-06 4.17204e-07 6.04864e-08 8.21655e-09 1.04685e-09 1.2528e-10 1.41052e-11 1.52317e-12 6.09958e-14 -1.47481e-14 5.76408e-14 -1.66951e-15 -5.19243e-14 4.60922e-14 8.69367e-14 -2.6754e-14 -8.40371e-14 5.48734e-14 2.22569e-14 2.11315e-14 4.73952e-14 -1.21792e-13 4.45077e-14 -4.82332e-14 -3.46409e-14 1.69574e-14 1.23328e-13 -2.96032e-14 -8.16079e-14 1.54052e-13 -1.13466e-13 3.66825e-14 2.18546e-14 1.15677e-14 -7.85426e-14 -6.97355e-14 1.15254e-13 -3.58953e-15 1.91483e-14 -2.74437e-14 6.37954e-15 2.0894e-15 -1.15795e-13 1.90622e-13 6.6624e-14 2.221e-13 -1.84973e-13 5.50481e-15 -6.52073e-14 1.70331e-13 -6.19176e-14 1.50601e-14 -1.76983e-13 1.05786e-13 -1.16862e-13 -5.03014e-14 1.51231e-14 -8.52837e-14 -4.30189e-14 1.47221e-13 -1.02795e-13 -1.40108e-14 2.03567e-14 -4.54107e-14 -3.82852e-15 5.72466e-14 7.56842e-14 -4.27561e-15 -2.94369e-14 -1.01558e-13 1.60666e-14 -7.4774e-14 1.42554e-13 5.33854e-14 -9.10171e-14 -1.38513e-13 3.33761e-15 5.78387e-14 3.39654e-14 -4.37195e-14 2.53118e-14 -4.61723e-14 2.39989e-14 0 0 -3.95383e-16 1.16267e-15 -1.97437e-15 -8.68822e-16 2.50866e-15 1.11294e-15 8.36005e-15 -1.41575e-15 -1.97921e-15 -5.701e-15 2.89179e-15 3.81019e-15 9.20239e-16 2.86173e-15 -6.36267e-15 -9.09534e-15 -9.6488e-15 5.24148e-15 1.23465e-14 -1.96406e-15 6.70567e-15 1.34208e-15 -1.22548e-14 2.27797e-14 1.0086e-15 -1.63624e-14 -4.61382e-15 2.08286e-16 -1.70217e-14 2.85125e-14 3.44568e-15 2.2258e-15 -3.83252e-15 -1.12612e-14 -1.37327e-14 6.87445e-15 5.11085e-15 -1.36286e-14 2.12378e-14 -9.61056e-15 2.8335e-14 8.15997e-15 -1.61723e-14 -7.29732e-15 -2.61387e-14 1.99121e-14 1.26964e-14 2.22724e-14 -3.23393e-15 3.2351e-15 -3.27433e-14 4.64704e-15 -1.49889e-14 4.08009e-14 5.26903e-15 -3.41416e-14 1.27209e-14 1.18011e-14 -8.15926e-15 -4.70484e-14 2.31999e-14 -4.99399e-15 3.92194e-14 1.36819e-14 8.01374e-15 -4.09081e-14 2.96957e-14 2.88734e-14 -1.67216e-15 -1.8833e-14 3.86636e-16 -3.92408e-14 3.51045e-14 5.7292e-14 -3.01541e-14 7.13284e-14 3.07694e-14 -2.78304e-14 1.24282e-14 -1.3511e-13 1.05192e-13 1.78637e-14 -7.19894e-14 2.22399e-14 2.73347e-14 2.85123e-12 9.72968e-11 2.86434e-09 6.9964e-08 1.39365e-06 2.21238e-05 0.000271409 0.00246616 0.0157026 0.0665896 0.188831 0.391132 0.665459 0.977199 0.955877 0.982624 0.981772 0.96107 0.906682 0.821713 0.697804 0.546633 0.380491 0.224518 0.104975 0.0367899 0.00998036 0.00229826 0.000477082 9.1313e-05 1.62397e-05 2.69286e-06 4.17204e-07 6.04864e-08 8.21657e-09 1.04684e-09 1.25363e-10 1.39836e-11 1.61692e-12 2.24973e-14 -4.76497e-14 -2.4363e-14 6.73096e-14 6.0381e-14 -2.45945e-14 -3.5443e-14 3.33137e-14 -6.39134e-14 3.33507e-14 2.99662e-14 -1.39648e-14 2.56078e-14 1.21444e-14 6.37586e-14 -5.59442e-14 -1.95657e-14 -1.0147e-13 9.64966e-14 9.23907e-14 1.12353e-14 3.4773e-14 -1.42535e-14 -1.33229e-13 3.44097e-14 4.1596e-14 -8.95858e-14 6.88428e-14 -1.3818e-14 4.57232e-14 -7.25081e-15 -2.24647e-14 2.20216e-15 -8.24433e-14 1.03666e-13 -1.11097e-13 2.68117e-13 5.50733e-14 6.41823e-14 3.0809e-14 -7.23067e-14 1.27824e-13 5.22888e-14 -1.0724e-13 -7.60385e-14 -1.09608e-13 -5.90652e-14 -7.64937e-14 1.15569e-14 1.53362e-14 -6.89935e-14 -3.07771e-15 -5.12381e-14 1.91049e-14 5.43056e-14 3.98473e-14 -7.26688e-14 -1.22526e-14 1.64314e-13 -1.2668e-13 -1.05501e-14 -6.6803e-14 -5.21409e-14 3.86932e-14 2.55486e-13 -1.40707e-13 -6.17587e-14 -3.41022e-14 -3.72482e-14 7.47231e-14 3.82034e-15 3.09091e-14 -2.60304e-14 -2.70879e-14 -7.71753e-14 0 0 1.85258e-16 -1.3786e-15 1.62354e-15 -1.66753e-15 1.48585e-15 5.84579e-15 4.72202e-15 7.66799e-15 -2.05431e-15 -5.36331e-15 -8.24694e-16 -9.69506e-16 1.41369e-14 -1.2543e-14 -3.17656e-15 -1.4528e-14 -1.5224e-15 8.65584e-15 -2.3183e-15 1.39352e-14 2.04182e-14 -2.85392e-14 -3.03728e-15 2.01284e-14 -4.2737e-15 -1.77248e-14 -3.50639e-15 1.94124e-14 -3.99316e-14 4.39456e-14 -3.62335e-15 -8.42776e-15 2.38509e-15 1.67395e-14 -3.61258e-14 2.5999e-14 -3.53437e-14 2.65768e-14 2.12765e-15 -1.24696e-14 2.26726e-14 1.82623e-15 -2.96463e-14 -1.58154e-14 -6.91543e-16 5.20723e-14 1.87156e-14 2.70835e-14 1.83163e-15 -3.14625e-14 -5.42292e-14 -1.95706e-14 3.71954e-14 4.20545e-14 -4.80674e-14 8.07261e-15 -1.4194e-14 5.07149e-14 -2.54543e-14 -4.10673e-14 1.52395e-14 -8.26182e-15 1.46764e-14 2.85233e-14 -1.87855e-15 -1.91992e-14 4.57068e-14 1.57427e-14 -4.93492e-14 6.58095e-14 -1.59894e-14 -7.63631e-14 1.39766e-13 -1.13339e-15 -5.79058e-14 1.1862e-13 4.15704e-14 -7.98843e-14 -7.48198e-15 -1.11923e-13 9.02734e-14 4.32743e-14 -5.34362e-14 4.90251e-14 -5.42516e-14 2.91124e-12 9.72808e-11 2.86435e-09 6.9964e-08 1.39365e-06 2.21238e-05 0.000271409 0.00246616 0.0157026 0.0665896 0.188831 0.391132 0.665459 0.977199 0.955877 0.982624 0.981772 0.96107 0.906682 0.821713 0.697804 0.546633 0.380491 0.224518 0.104975 0.0367899 0.00998036 0.00229826 0.000477082 9.1313e-05 1.62397e-05 2.69286e-06 4.17204e-07 6.04863e-08 8.21659e-09 1.0469e-09 1.25404e-10 1.38247e-11 1.70594e-12 1.75554e-14 -1.0165e-13 -5.23719e-15 1.0727e-13 2.96347e-14 9.02028e-15 -7.56685e-14 8.60064e-14 -9.69369e-14 6.51462e-14 1.05067e-14 -3.5292e-14 -9.19052e-14 2.17365e-13 -2.58793e-14 -2.20079e-14 -1.84988e-14 -8.87574e-14 2.72424e-14 1.09611e-13 5.6139e-14 -5.95264e-14 1.20578e-13 -1.90186e-13 1.68049e-14 2.57617e-14 -8.54561e-15 8.6526e-14 -1.35192e-13 9.75676e-14 -3.14027e-14 -4.15113e-14 1.43053e-13 -3.26888e-13 5.09946e-13 -4.99651e-13 3.54638e-13 -1.86301e-13 3.89434e-13 8.56423e-14 -1.15189e-14 7.67208e-14 -8.31469e-14 -1.44844e-13 2.27598e-14 -2.16699e-13 -2.80483e-14 -7.18117e-14 7.06723e-14 8.75638e-14 -1.42318e-13 -1.05012e-13 4.7332e-14 -7.23388e-14 1.77481e-13 8.78154e-14 -1.35316e-13 -1.00143e-13 2.2499e-13 -3.64049e-13 1.97444e-13 -4.1127e-14 -1.26636e-13 1.7842e-13 2.60132e-13 -3.3425e-13 -6.78146e-14 2.12345e-13 -9.93825e-14 1.49449e-13 -1.69612e-13 2.6603e-13 -1.50565e-13 -6.33945e-14 -6.03794e-14 0
				</DataArray>
				<DataArray Name="VitesseY" type="Float32" format="ascii">