<?xml version="1.0"?>
<VTKFile type="PolyData">
	<PolyData>
		<Piece NumberOfPoints="1206" NumberOfPolys="1000">
			<Points>
				<DataArray type="Float32" NumberOfComponents="3" format="ascii">
 0 0 0 0.005 0 0 0.01 0 0 0.015 0 0 0.02 0 0 0.025 0 0 0.03 0 0 0.035 0 0 0.04 0 0 0.045 0 0 0.05 0 0 0.055 0 0 0.06 0 0 0.065 0 0 0.07 0 0 0.075 0 0 0.08 0 0 0.085 0 0 0.09 0 0 0.095 0 0 0.1 0 0 0.105 0 0 0.11 0 0 0.115 0 0 0.12 0 0 0.125 0 0 0.13 0 0 0.135 0 0 0.14 0 0 0.145 0 0 0.15 0 0 0.155 0 0 0.16 0 0 0.165 0 0 0.17 0 0 0.175 0 0 0.18 0 0 0.185 0 0 0.19 0 0 0.195 0 0 0.2 0 0 0.205 0 0 0.21 0 0 0.215 0 0 0.22 0 0 0.225 0 0 0.23 0 0 0.235 0 0 0.24 0 0 0.245 0 0 0.25 0 0 0.255 0 0 0.26 0 0 0.265001 0 0 0.270004 0 0 0.275011 0 0 0.280027 0 0 0.285061 0 0 0.290127 0 0 0.295241 0 0 0.300421 0 0 0.305682 0 0 0.311037 0 0 0.316498 0 0 0.322074 0 0 0.327771 0 0 0.3336 0 0 0.339566 0 0 0.345679 0 0 0.351949 0 0 0.358383 0 0 0.364993 0 0 0.371791 0 0 0.378787 0 0 0.385996 0 0 0.393434 0 0 0.401115 0 0 0.409058 0 0 0.417284 0 0 0.425815 0 0 0.434676 0 0 0.443895 0 0 0.453502 0 0 0.46353 0 0 0.474013 0 0 0.48498 0 0 0.496444 0 0 0.508354 0 0 0.5205 0 0 0.532587 0 0 0.54458 0 0 0.556478 0 0 0.568305 0 0 0.580086 0 0 0.591843 0 0 0.603589 0 0 0.61533 0 0 0.627068 0 0 0.638805 0 0 0.650544 0 0 0.662297 0 0 0.664909 0 0 0.667447 0 0 0.669938 0 0 0.672398 0 0 0.674836 0 0 0.677258 0 0 0.679667 0 0 0.682068 0 0 0.684462 0 0 0.686852 0 0 0.689237 0 0 0.691619 0 0 0.693997 0 0 0.696371 0 0 0.698743 0 0 0.701111 0 0 0.703477 0 0 0.705842 0 0 0.708204 0 0 0.710566 0 0 0.712926 0 0 0.715285 0 0 0.717644 0 0 0.720001 0 0 0.722359 0 0 0.724716 0 0 0.727072 0 0 0.729429 0 0 0.731785 0 0 0.73414 0 0 0.736496 0 0 0.738852 0 0 0.741207 0 0 0.743562 0 0 0.745917 0 0 0.748272 0 0 0.750627 0 0 0.752982 0 0 0.755337 0 0 0.757693 0 0 0.760048 0 0 0.762403 0 0 0.764758 0 0 0.767113 0 0 0.769469 0 0 0.771825 0 0 0.774181 0 0 0.776538 0 0 0.778897 0 0 0.781258 0 0 0.783623 0 0 0.785995 0 0 0.788376 0 0 0.790779 0 0 0.793203 0 0 0.795678 0 0 0.798199 0 0 0.800822 0 0 0.803545 0 0 0.806466 0 0 0.809611 0 0 0.813069 0 0 0.816869 0 0 0.821025 0 0 0.825499 0 0 0.830217 0 0 0.835087 0 0 0.840033 0 0 0.845012 0 0 0.850004 0 0 0.855002 0 0 0.860001 0 0 0.865 0 0 0.87 0 0 0.875 0 0 0.88 0 0 0.885 0 0 0.89 0 0 0.895 0 0 0.9 0 0 0.905 0 0 0.91 0 0 0.915 0 0 0.92 0 0 0.925 0 0 0.93 0 0 0.935 0 0 0.94 0 0 0.945 0 0 0.95 0 0 0.955 0 0 0.96 0 0 0.965 0 0 0.97 0 0 0.975 0 0 0.98 0 0 0.985 0 0 0.99 0 0 0.995 0 0 1 0 0 0 0.02 0 0.005 0.02 0 0.01 0.02 0 0.015 0.02 0 0.02 0.02 0 0.025 0.02 0 0.03 0.02 0 0.035 0.02 0 0.04 0.02 0 0.045 0.02 0 0.05 0.02 0 0.055 0.02 0 0.06 0.02 0 0.065 0.02 0 0.07 0.02 0 0.075 0.02 0 0.08 0.02 0 0.085 0.02 0 0.09 0.02 0 0.095 0.02 0 0.1 0.02 0 0.105 0.02 0 0.11 0.02 0 0.115 0.02 0 0.12 0.02 0 0.125 0.02 0 0.13 0.02 0 0.135 0.02 0 0.14 0.02 0 0.145 0.02 0 0.15 0.02 0 0.155 0.02 0 0.16 0.02 0 0.165 0.02 0 0.17 0.02 0 0.175 0.02 0 0.18 0.02 0 0.185 0.02 0 0.19 0.02 0 0.195 0.02 0 0.2 0.02 0 0.205 0.02 0 0.21 0.02 0 0.215 0.02 0 0.22 0.02 0 0.225 0.02 0 0.23 0.02 0 0.235 0.02 0 0.24 0.02 0 0.245 0.02 0 0.25 0.02 0 0.255 0.02 0 0.26 0.02 0 0.265001 0.02 0 0.270004 0.02 0 0.275011 0.02 0 0.280027 0.02 0 0.285061 0.02 0 0.290127 0.02 0 0.295241 0.02 0 0.300421 0.02 0 0.305682 0.02 0 0.311037 0.02 0 0.316498 0.02 0 0.322074 0.02 0 0.327771 0.02 0 0.3336 0.02 0 0.339566 0.02 0 0.345679 0.02 0 0.351949 0.02 0 0.358383 0.02 0 0.364993 0.02 0 0.371791 0.02 0 0.378787 0.02 0 0.385996 0.02 0 0.393434 0.02 0 0.401115 0.02 0 0.409058 0.02 0 0.417284 0.02 0 0.425815 0.02 0 0.434676 0.02 0 0.443895 0.02 0 0.453502 0.02 0 0.46353 0.02 0 0.474013 0.02 0 0.48498 0.02 0 0.496444 0.02 0 0.508354 0.02 0 0.5205 0.02 0 0.532587 0.02 0 0.54458 0.02 0 0.556478 0.02 0 0.568305 0.02 0 0.580086 0.02 0 0.591843 0.02 0 0.603589 0.02 0 0.61533 0.02 0 0.627068 0.02 0 0.638805 0.02 0 0.650544 0.02 0 0.662297 0.02 0 0.664909 0.02 0 0.667447 0.02 0 0.669938 0.02 0 0.672398 0.02 0 0.674836 0.02 0 0.677258 0.02 0 0.679667 0.02 0 0.682068 0.02 0 0.684462 0.02 0 0.686852 0.02 0 0.689237 0.02 0 0.691619 0.02 0 0.693997 0.02 0 0.696371 0.02 0 0.698743 0.02 0 0.701111 0.02 0 0.703477 0.02 0 0.705842 0.02 0 0.708204 0.02 0 0.710566 0.02 0 0.712926 0.02 0 0.715285 0.02 0 0.717644 0.02 0 0.720001 0.02 0 0.722359 0.02 0 0.724716 0.02 0 0.727072 0.02 0 0.729429 0.02 0 0.731785 0.02 0 0.73414 0.02 0 0.736496 0.02 0 0.738852 0.02 0 0.741207 0.02 0 0.743562 0.02 0 0.745917 0.02 0 0.748272 0.02 0 0.750627 0.02 0 0.752982 0.02 0 0.755337 0.02 0 0.757693 0.02 0 0.760048 0.02 0 0.762403 0.02 0 0.764758 0.02 0 0.767113 0.02 0 0.769469 0.02 0 0.771825 0.02 0 0.774181 0.02 0 0.776538 0.02 0 0.778897 0.02 0 0.781258 0.02 0 0.783623 0.02 0 0.785995 0.02 0 0.788376 0.02 0 0.790779 0.02 0 0.793203 0.02 0 0.795678 0.02 0 0.798199 0.02 0 0.800822 0.02 0 0.803545 0.02 0 0.806466 0.02 0 0.809611 0.02 0 0.813069 0.02 0 0.816869 0.02 0 0.821025 0.02 0 0.825499 0.02 0 0.830217 0.02 0 0.835087 0.02 0 0.840033 0.02 0 0.845012 0.02 0 0.850004 0.02 0 0.855002 0.02 0 0.860001 0.02 0 0.865 0.02 0 0.87 0.02 0 0.875 0.02 0 0.88 0.02 0 0.885 0.02 0 0.89 0.02 0 0.895 0.02 0 0.9 0.02 0 0.905 0.02 0 0.91 0.02 0 0.915 0.02 0 0.92 0.02 0 0.925 0.02 0 0.93 0.02 0 0.935 0.02 0 0.94 0.02 0 0.945 0.02 0 0.95 0.02 0 0.955 0.02 0 0.96 0.02 0 0.965 0.02 0 0.97 0.02 0 0.975 0.02 0 0.98 0.02 0 0.985 0.02 0 0.99 0.02 0 0.995 0.02 0 1 0.02 0 0 0.04 0 0.005 0.04 0 0.01 0.04 0 0.015 0.04 0 0.02 0.04 0 0.025 0.04 0 0.03 0.04 0 0.035 0.04 0 0.04 0.04 0 0.045 0.04 0 0.05 0.04 0 0.055 0.04 0 0.06 0.04 0 0.065 0.04 0 0.07 0.04 0 0.075 0.04 0 0.08 0.04 0 0.085 0.04 0 0.09 0.04 0 0.095 0.04 0 0.1 0.04 0 0.105 0.04 0 0.11 0.04 0 0.115 0.04 0 0.12 0.04 0 0.125 0.04 0 0.13 0.04 0 0.135 0.04 0 0.14 0.04 0 0.145 0.04 0 0.15 0.04 0 0.155 0.04 0 0.16 0.04 0 0.165 0.04 0 0.17 0.04 0 0.175 0.04 0 0.18 0.04 0 0.185 0.04 0 0.19 0.04 0 0.195 0.04 0 0.2 0.04 0 0.205 0.04 0 0.21 0.04 0 0.215 0.04 0 0.22 0.04 0 0.225 0.04 0 0.23 0.04 0 0.235 0.04 0 0.24 0.04 0 0.245 0.04 0 0.25 0.04 0 0.255 0.04 0 0.26 0.04 0 0.265001 0.04 0 0.270004 0.04 0 0.275011 0.04 0 0.280027 0.04 0 0.285061 0.04 0 0.290127 0.04 0 0.295241 0.04 0 0.300421 0.04 0 0.305682 0.04 0 0.311037 0.04 0 0.316498 0.04 0 0.322074 0.04 0 0.327771 0.04 0 0.3336 0.04 0 0.339566 0.04 0 0.345679 0.04 0 0.351949 0.04 0 0.358383 0.04 0 0.364993 0.04 0 0.371791 0.04 0 0.378787 0.04 0 0.385996 0.04 0 0.393434 0.04 0 0.401115 0.04 0 0.409058 0.04 0 0.417284 0.04 0 0.425815 0.04 0 0.434676 0.04 0 0.443895 0.04 0 0.453502 0.04 0 0.46353 0.04 0 0.474013 0.04 0 0.48498 0.04 0 0.496444 0.04 0 0.508354 0.04 0 0.5205 0.04 0 0.532587 0.04 0 0.54458 0.04 0 0.556478 0.04 0 0.568305 0.04 0 0.580086 0.04 0 0.591843 0.04 0 0.603589 0.04 0 0.61533 0.04 0 0.627068 0.04 0 0.638805 0.04 0 0.650544 0.04 0 0.662297 0.04 0 0.664909 0.04 0 0.667447 0.04 0 0.669938 0.04 0 0.672398 0.04 0 0.674836 0.04 0 0.677258 0.04 0 0.679667 0.04 0 0.682068 0.04 0 0.684462 0.04 0 0.686852 0.04 0 0.689237 0.04 0 0.691619 0.04 0 0.693997 0.04 0 0.696371 0.04 0 0.698743 0.04 0 0.701111 0.04 0 0.703477 0.04 0 0.705842 0.04 0 0.708204 0.04 0 0.710566 0.04 0 0.712926 0.04 0 0.715285 0.04 0 0.717644 0.04 0 0.720001 0.04 0 0.722359 0.04 0 0.724716 0.04 0 0.727072 0.04 0 0.729429 0.04 0 0.731785 0.04 0 0.73414 0.04 0 0.736496 0.04 0 0.738852 0.04 0 0.741207 0.04 0 0.743562 0.04 0 0.745917 0.04 0 0.748272 0.04 0 0.750627 0.04 0 0.752982 0.04 0 0.755337 0.04 0 0.757693 0.04 0 0.760048 0.04 0 0.762403 0.04 0 0.764758 0.04 0 0.767113 0.04 0 0.769469 0.04 0 0.771825 0.04 0 0.774181 0.04 0 0.776538 0.04 0 0.778897 0.04 0 0.781258 0.04 0 0.783623 0.04 0 0.785995 0.04 0 0.788376 0.04 0 0.790779 0.04 0 0.793203 0.04 0 0.795678 0.04 0 0.798199 0.04 0 0.800822 0.04 0 0.803545 0.04 0 0.806466 0.04 0 0.809611 0.04 0 0.813069 0.04 0 0.816869 0.04 0 0.821025 0.04 0 0.825499 0.04 0 0.830217 0.04 0 0.835087 0.04 0 0.840033 0.04 0 0.845012 0.04 0 0.850004 0.04 0 0.855002 0.04 0 0.860001 0.04 0 0.865 0.04 0 0.87 0.04 0 0.875 0.04 0 0.88 0.04 0 0.885 0.04 0 0.89 0.04 0 0.895 0.04 0 0.9 0.04 0 0.905 0.04 0 0.91 0.04 0 0.915 0.04 0 0.92 0.04 0 0.925 0.04 0 0.93 0.04 0 0.935 0.04 0 0.94 0.04 0 0.945 0.04 0 0.95 0.04 0 0.955 0.04 0 0.96 0.04 0 0.965 0.04 0 0.97 0.04 0 0.975 0.04 0 0.98 0.04 0 0.985 0.04 0 0.99 0.04 0 0.995 0.04 0 1 0.04 0 0 0.06 0 0.005 0.06 0 0.01 0.06 0 0.015 0.06 0 0.02 0.06 0 0.025 0.06 0 0.03 0.06 0 0.035 0.06 0 0.04 0.06 0 0.045 0.06 0 0.05 0.06 0 0.055 0.06 0 0.06 0.06 0 0.065 0.06 0 0.07 0.06 0 0.075 0.06 0 0.08 0.06 0 0.085 0.06 0 0.09 0.06 0 0.095 0.06 0 0.1 0.06 0 0.105 0.06 0 0.11 0.06 0 0.115 0.06 0 0.12 0.06 0 0.125 0.06 0 0.13 0.06 0 0.135 0.06 0 0.14 0.06 0 0.145 0.06 0 0.15 0.06 0 0.155 0.06 0 0.16 0.06 0 0.165 0.06 0 0.17 0.06 0 0.175 0.06 0 0.18 0.06 0 0.185 0.06 0 0.19 0.06 0 0.195 0.06 0 0.2 0.06 0 0.205 0.06 0 0.21 0.06 0 0.215 0.06 0 0.22 0.06 0 0.225 0.06 0 0.23 0.06 0 0.235 0.06 0 0.24 0.06 0 0.245 0.06 0 0.25 0.06 0 0.255 0.06 0 0.26 0.06 0 0.265001 0.06 0 0.270004 0.06 0 0.275011 0.06 0 0.280027 0.06 0 0.285061 0.06 0 0.290127 0.06 0 0.295241 0.06 0 0.300421 0.06 0 0.305682 0.06 0 0.311037 0.06 0 0.316498 0.06 0 0.322074 0.06 0 0.327771 0.06 0 0.3336 0.06 0 0.339566 0.06 0 0.345679 0.06 0 0.351949 0.06 0 0.358383 0.06 0 0.364993 0.06 0 0.371791 0.06 0 0.378787 0.06 0 0.385996 0.06 0 0.393434 0.06 0 0.401115 0.06 0 0.409058 0.06 0 0.417284 0.06 0 0.425815 0.06 0 0.434676 0.06 0 0.443895 0.06 0 0.453502 0.06 0 0.46353 0.06 0 0.474013 0.06 0 0.48498 0.06 0 0.496444 0.06 0 0.508354 0.06 0 0.5205 0.06 0 0.532587 0.06 0 0.54458 0.06 0 0.556478 0.06 0 0.568305 0.06 0 0.580086 0.06 0 0.591843 0.06 0 0.603589 0.06 0 0.61533 0.06 0 0.627068 0.06 0 0.638805 0.06 0 0.650544 0.06 0 0.662297 0.06 0 0.664909 0.06 0 0.667447 0.06 0 0.669938 0.06 0 0.672398 0.06 0 0.674836 0.06 0 0.677258 0.06 0 0.679667 0.06 0 0.682068 0.06 0 0.684462 0.06 0 0.686852 0.06 0 0.689237 0.06 0 0.691619 0.06 0 0.693997 0.06 0 0.696371 0.06 0 0.698743 0.06 0 0.701111 
[...]
			<PointData Scalars="VitesseX">
				<DataArray Name="VitesseX" type="Float32" format="ascii">
 0 7.01402e-16 -1.03676e-15 -1.17836e-15 3.8479e-15 4.69654e-15 9.71064e-16 6.43242e-15 -4.04495e-15 -2.4547e-15 -7.64293e-15 -3.32012e-15 -1.25501e-14 -9.48933e-16 -1.69184e-14 -9.26791e-15 -1.74111e-14 -3.3972e-14 -1.35088e-14 -3.46951e-14 -3.73597e-14 -3.63879e-14 -4.4226e-14 -4.415e-14 -3.93472e-14 -3.96758e-14 -2.63196e-14 -4.73644e-14 -3.72277e-14 -3.11852e-14 -3.65793e-14 -1.99893e-14 -2.53185e-14 -3.66287e-14 -2.33406e-14 -2.28311e-14 -1.6026e-14 -2.37678e-14 4.12653e-14 1.82387e-13 1.00025e-12 6.36908e-12 3.84062e-11 2.21969e-10 1.21591e-09 6.31219e-09 3.09804e-08 1.43403e-07 6.24297e-07 2.54811e-06 9.71559e-06 3.44603e-05 0.000113142 0.000341887 0.000944564 0.00236918 0.00535951 0.0108871 0.019859 0.0327196 0.0492597 0.0687993 0.0905571 0.113914 0.138478 0.164034 0.190477 0.217759 0.245868 0.274811 0.304606 0.335284 0.36688 0.399438 0.433007 0.467642 0.503403 0.540353 0.57856 0.618087 0.658993 0.701313 0.745033 0.790022 0.835877 0.881519 0.924053 0.955626 0.959518 0.950918 0.94286 0.936382 0.932116 0.929777 0.928617 0.928027 0.927691 0.927483 0.927347 0.92725 0.927174 0.927161 0.927148 0.927136 0.927124 0.927113 0.927101 0.92709 0.927078 0.927066 0.927055 0.927043 0.927031 0.927019 0.927007 0.926994 0.926982 0.92697 0.926958 0.926945 0.926933 0.92692 0.926907 0.926893 0.926879 0.926865 0.92685 0.926834 0.926817 0.926799 0.926781 0.926762 0.926742 0.92672 0.9267 0.926674 0.926653 0.926622 0.926603 0.926561 0.926546 0.926482 0.926473 0.92636 0.926359 0.926129 0.926139 0.925594 0.925635 0.924186 0.92432 0.920287 0.920701 0.909773 0.911052 0.884214 0.887848 0.831544 0.83575 0.738363 0.700905 0.578537 0.473932 0.344185 0.225898 0.12811 0.0623355 0.0265168 0.0103465 0.00386775 0.00141981 0.000517337 0.000187866 6.8082e-05 2.46288e-05 8.89227e-06 3.2033e-06 1.15084e-06 4.12148e-07 1.47059e-07 5.22515e-08 1.84772e-08 6.4992e-09 2.27266e-09 7.89544e-10 2.7251e-10 9.32283e-11 3.16084e-11 1.05266e-11 3.60256e-12 1.07426e-12 3.51105e-13 1.23978e-13 7.2299e-15 1.03776e-13 4.87108e-14 1.08476e-13 4.51869e-14 -1.03352e-13 -6.42909e-14 0 0 1.19009e-15 2.67653e-15 3.58196e-15 4.51211e-15 4.9082e-15 4.16922e-15 -4.25744e-16 -5.44091e-17 -4.75621e-15 -5.96715e-15 -6.85366e-15 -5.94057e-15 -1.49506e-14 -1.35202e-14 -1.19331e-14 -1.90629e-14 -2.34463e-14 -2.91246e-14 -3.4759e-14 -3.85684e-14 -3.95759e-14 -3.96333e-14 -3.50582e-14 -3.96994e-14 -4.58429e-14 -3.29253e-14 -4.56816e-14 -3.29835e-14 -3.11039e-14 -2.68999e-14 -2.78792e-14 -2.38021e-14 -2.09756e-14 -2.13216e-14 -1.47077e-14 -2.07662e-14 7.87093e-17 3.6318e-14 1.77677e-13 1.01795e-12 6.341e-12 3.84517e-11 2.21994e-10 1.21591e-09 6.31215e-09 3.09804e-08 1.43403e-07 6.24297e-07 2.54811e-06 9.71559e-06 3.44603e-05 0.000113142 0.000341887 0.000944564 0.00236918 0.00535951 0.0108871 0.019859 0.0327196 0.0492597 0.0687993 0.0905571 0.113914 0.138478 0.164034 0.190477 0.217759 0.245868 0.274811 0.304606 0.335284 0.36688 0.399438 0.433007 0.467642 0.503403 0.540353 0.57856 0.618087 0.658993 0.701313 0.745033 0.790022 0.835877 0.881519 0.924053 0.955626 0.959518 0.950918 0.94286 0.936382 0.932116 0.929777 0.928617 0.928027 0.927691 0.927483 0.927347 0.92725 0.927174 0.927161 0.927148 0.927136 0.927124 0.927113 0.927101 0.92709 0.927078 0.927066 0.927055 0.927043 0.927031 0.927019 0.927007 0.926994 0.926982 0.92697 0.926958 0.926945 0.926933 0.92692 0.926907 0.926893 0.926879 0.926865 0.92685 0.926834 0.926817 0.926799 0.926781 0.926762 0.926742 0.92672 0.9267 0.926674 0.926653 0.926622 0.926603 0.926561 0.926546 0.926482 0.926473 0.92636 0.926359 0.926129 0.926139 0.925594 0.925635 0.924186 0.92432 0.920287 0.920701 0.909773 0.911052 0.884214 0.887848 0.831544 0.83575 0.738363 0.700905 0.578537 0.473932 0.344185 0.225898 0.12811 0.0623355 0.0265168 0.0103465 0.00386775 0.00141981 0.000517337 0.000187866 6.8082e-05 2.46288e-05 8.89227e-06 3.2033e-06 1.15084e-06 4.12148e-07 1.47059e-07 5.22515e-08 1.84772e-08 6.49917e-09 2.27274e-09 7.89558e-10 2.72421e-10 9.31836e-11 3.15722e-11 1.05996e-11 3.48002e-12 1.1061e-12 2.78527e-13 7.64475e-14 8.58144e-14 8.22079e-14 -2.73372e-14 1.24203e-13 2.57231e-14 -6.81018e-14 6.44363e-14 0 0 6.81339e-16 5.38547e-15 7.12316e-15 5.02547e-15 4.1113e-15 8.56543e-17 4.31129e-15 -4.51791e-15 -5.55706e-15 -5.66419e-15 -6.24734e-15 -7.64882e-15 -2.00241e-14 -1.71855e-14 -2.11316e-14 -1.67518e-14 -2.59043e-14 -3.10646e-14 -4.07272e-14 -3.51371e-14 -4.04082e-14 -3.92787e-14 -3.62606e-14 -3.30545e-14 -4.34592e-14 -5.46994e-14 -3.36784e-14 -3.30627e-14 -1.76432e-14 -1.69329e-14 -2.22902e-14 -2.92904e-14 -8.85592e-15 -1.57586e-14 -3.1188e-14 7.88589e-15 2.9081e-15 4.71404e-14 2.19939e-13 1.03416e-12 6.36683e-12 3.85028e-11 2.21978e-10 1.21594e-09 6.31214e-09 3.09804e-08 1.43403e-07 6.24297e-07 2.54811e-06 9.71559e-06 3.44603e-05 0.000113142 0.000341887 0.000944564 0.00236918 0.00535951 0.0108871 0.019859 0.0327196 0.0492597 0.0687993 0.0905571 0.113914 0.138478 0.164034 0.190477 0.217759 0.245868 0.274811 0.304606 0.335284 0.36688 0.399438 0.433007 0.467642 0.503403 0.540353 0.57856 0.618087 0.658993 0.701313 0.745033 0.790022 0.835877 0.881519 0.924053 0.955626 0.959518 0.950918 0.94286 0.936382 0.932116 0.929777 0.928617 0.928027 0.927691 0.927483 0.927347 0.92725 0.927174 0.927161 0.927148 0.927136 0.927124 0.927113 0.927101 0.92709 0.927078 0.927066 0.927055 0.927043 0.927031 0.927019 0.927007 0.926994 0.926982 0.92697 0.926958 0.926945 0.926933 0.92692 0.926907 0.926893 0.926879 0.926865 0.92685 0.926834 0.926817 0.926799 0.926781 0.926762 0.926742 0.92672 0.9267 0.926674 0.926653 0.926622 0.926603 0.926561 0.926546 0.926482 0.926473 0.92636 0.926359 0.926129 0.926139 0.925594 0.925635 0.924186 0.92432 0.920287 0.920701 0.909773 0.911052 0.884214 0.887848 0.831544 0.83575 0.738363 0.700905 0.578537 0.473932 0.344185 0.225898 0.12811 0.0623355 0.0265168 0.0103465 0.00386775 0.00141981 0.000517337 0.000187866 6.8082e-05 2.46288e-05 8.89227e-06 3.2033e-06 1.15084e-06 4.12148e-07 1.47059e-07 5.22516e-08 1.84772e-08 6.49915e-09 2.27269e-09 7.8955e-10 2.72375e-10 9.32267e-11 3.1575e-11 1.04317e-11 3.41587e-12 1.00586e-12 2.23765e-13 5.13316e-14 8.73464e-14 4.22689e-14 8.29061e-14 -4.47645e-14 3.02439e-14 7.67562e-15 -6.22782e-14 0 0 2.11992e-16 3.23765e-15 4.19354e-15 1.34018e-16 5.82045e-15 -3.78806e-17 4.90717e-15 -2.36491e-15 -4.32459e-15 -1.30191e-14 -1.9142e-14 -9.4998e-15 -6.16539e-15 -2.04476e-14 -1.72991e-14 -2.90927e-14 -3.39782e-14 -1.80619e-14 -3.65975e-14 -4.34595e-14 -3.998e-14 -4.85366e-14 -2.51662e-14 -3.30347e-14 -3.02077e-14 -5.31273e-14 -2.93673e-14 -2.2141e-14 -1.41731e-14 -2.48267e-14 -2.36715e-14 -9.75601e-15 -2.81329e-14 -9.12993e-16 -4.25042e-14 1.63102e-14 1.03195e-14 5.09892e-14 2.64858e-13 1.10146e-12 6.39699e-12 3.85492e-11 2.21967e-10 1.21598e-09 6.3121e-09 3.09804e-08 1.43403e-07 6.24297e-07 2.54811e-06 9.71559e-06 3.44603e-05 0.000113142 0.000341887 0.000944564 0.00236918 0.00535951 0.0108871 0.019859 0.0327196 0.0492597 0.0687993 0.0905571 0.113914 0.138478 0.164034 0.190477 0.217759 0.245868 0.274811 0.304606 0.335284 0.36688 0.399438 0.433007 0.467642 0.503403 0.540353 0.57856 0.618087 0.658993 0.701313 0.745033 0.790022 0.835877 0.881519 0.924053 0.955626 0.959518 0.950918 0.94286 0.936382 0.932116 0.929777 0.928617 0.928027 0.927691 0.927483 0.927347 0.92725 0.927174 0.927161 0.927148 0.927136 0.927124 0.927113 0.927101 0.92709 0.927078 0.927066 0.927055 0.927043 0.927031 0.927019 0.927007 0.926994 0.926982 0.92697 0.926958 0.926945 0.926933 0.92692 0.926907 0.926893 0.926879 0.926865 0.92685 0.926834 0.926817 0.926799 0.926781 0.926762 0.926742 0.92672 0.9267 0.926674 0.926653 0.926622 0.926603 0.926561 0.926546 0.926482 0.926473 0.92636 0.926359 0.926129 0.926139 0.925594 0.925635 0.924186 0.92432 0.920287 0.920701 0.909773 0.911052 0.884214 0.887848 0.831544 0.83575 0.738363 0.700905 0.578537 0.473932 0.344185 0.225898 0.12811 0.0623355 0.0265168 0.0103465 0.00386775 0.00141981 0.000517337 0.000187866 6.8082e-05 2.46288e-05 8.89227e-06 3.2033e-06 1.15084e-06 4.12148e-07 1.47059e-07 5.22516e-08 1.8477e-08 6.49938e-09 2.27254e-09 7.89552e-10 2.72357e-10 9.32263e-11 3.14797e-11 1.03509e-11 3.38328e-12 8.97686e-13 1.50555e-13 9.17352e-14 6.33123e-14 -6.5624e-14 -1.42049e-15 -5.27255e-14 3.95096e-14 5.87713e-14 -1.98224e-13 0 0 1.17569e-15 1.86012e-15 3.92029e-15 2.2599e-15 8.97807e-15 3.74038e-15 4.17484e-16 1.48577e-15 -6.76324e-15 -9.80439e-15 -3.26393e-14 -7.90124e-15 -8.77656e-15 -2.02818e-14 -9.40244e-15 -2.93561e-14 -4.372e-14 -2.45883e-14 -2.02695e-14 -4.00174e-14 -5.81591e-14 -6.63012e-14 8.13747e-15 -3.33429e-14 -2.3839e-14 -3.40824e-14 -2.07082e-14 -2.48546e-14 -2.28697e-14 -2.70316e-14 -4.28093e-14 -4.82357e-15 -2.38158e-14 -1.83078e-16 -3.8449e-14 5.34053e-15 1.64212e-14 7.63669e-14 2.3034e-13 1.16858e-12 6.43925e-12 3.85938e-11 2.21998e-10 1.21595e-09 6.3121e-09 3.09805e-08 1.43403e-07 6.24297e-07 2.54811e-06 9.71559e-06 3.44603e-05 0.000113142 0.000341887 0.000944564 0.00236918 0.00535951 0.0108871 0.019859 0.0327196 0.0492597 0.0687993 0.0905571 0.113914 0.138478 0.164034 0.190477 0.217759 0.245868 0.274811 0.304606 0.335284 0.36688 0.399438 0.433007 0.467642 0.503403 0.540353 0.57856 0.618087 0.658993 0.701313 0.745033 0.790022 0.835877 0.881519 0.924053 0.955626 0.959518 0.950918 0.94286 0.936382 0.932116 0.929777 0.928617 0.928027 0.927691 0.927483 0.927347 0.92725 0.927174 0.927161 0.927148 0.927136 0.927124 0.927113 0.927101 0.92709 0.927078 0.927066 0.927055 0.927043 0.927031 0.927019 0.927007 0.926994 0.926982 0.92697 0.926958 0.926945 0.926933 0.92692 0.926907 0.926893 0.926879 0.926865 0.92685 0.926834 0.926817 0.926799 0.926781 0.926762 0.926742 0.92672 0.9267 0.926674 0.926653 0.926622 0.926603 0.926561 0.926546 0.926482 0.926473 0.92636 0.926359 0.926129 0.926139 0.925594 0.925635 0.924186 0.92432 0.920287 0.920701 0.909773 0.911052 0.884214 0.887848 0.831544 0.83575 0.738363 0.700905 0.578537 0.473932 0.344185 0.225898 0.12811 0.0623355 0.0265168 0.0103465 0.00386775 0.00141981 0.000517337 0.000187866 6.8082e-05 2.46288e-05 8.89227e-06 3.2033e-06 1.15084e-06 4.12148e-07 1.47059e-07 5.22517e-08 1.8477e-08 6.49928e-09 2.27263e-09 7.89601e-10 2.72232e-10 9.30669e-11 3.14955e-11 1.03839e-11 3.41145e-12 8.28608e-13 1.1296e-13 -3.40854e-14 1.67986e-13 -6.1192e-14 -2.55972e-13 6.94857e-14 9.21026e-14 4.90445e-14 -5.27389e-14 0 0 1.61131e-15 1.62605e-15 5.35753e-15 9.12638e-15 9.41797e-15 3.60455e-16 6.92712e-15 -5.27059e-15 -8.9337e-15 -6.07541e-16 -2.9102e-14 -1.27695e-14 -1.63183e-14 -2.39173e-14 -1.18715e-14 -1.33158e-14 -5.83716e-14 -3.04415e-14 -1.39757e-14 -2.3613e-14 -7.44107e-14 -7.9046e-14 2.00525e-14 -2.66738e-14 -2.21712e-14 -3.17779e-14 -6.03975e-15 -4.2813e-14 -2.1657e-14 -2.10551e-14 -4.70868e-14 -2.64302e-14 -3.75521e-15 -1.07546e-14 -4.76812e-14 1.93389e-14 -5.90567e-15 1.13666e-13 1.97875e-13 1.16692e-12 6.50526e-12 3.85976e-11 2.21999e-10 1.2159e-09 6.31216e-09 3.09805e-08 1.43403e-07 6.24297e-07 2.54811e-06 9.71559e-06 3.44603e-05 0.000113142 0.000341887 0.000944564 0.00236918 0.00535951 0.0108871 0.019859 0.0327196 0.0492597 0.0687993 0.0905571 0.113914 0.138478 0.164034 0.190477 0.217759 0.245868 0.274811 0.304606 0.335284 0.36688 0.399438 0.433007 0.467642 0.503403 0.540353 0.57856 0.618087 0.658993 0.701313 0.745033 0.790022 0.835877 0.881519 0.924053 0.955626 0.959518 0.950918 0.94286 0.936382 0.932116 0.929777 0.928617 0.928027 0.927691 0.927483 0.927347 0.92725 0.927174 0.927161 0.927148 0.927136 0.927124 0.927113 0.927101 0.92709 0.927078 0.927066 0.927055 0.927043 0.927031 0.927019 0.927007 0.926994 0.926982 0.92697 0.926958 0.926945 0.926933 0.92692 0.926907 0.926893 0.926879 0.926865 0.92685 0.926834 0.926817 0.926799 0.926781 0.926762 0.926742 0.92672 0.9267 0.926674 0.926653 0.926622 0.926603 0.926561 0.926546 0.926482 0.926473 0.92636 0.926359 0.926129 0.926139 0.925594 0.925635 0.924186 0.92432 0.920287 0.920701 0.909773 0.911052 0.884214 0.887848 0.831544 0.83575 0.738363 0.700905 0.578537 0.473932 0.344185 0.225898 0.12811 0.0623355 0.0265168 0.0103465 0.00386775 0.00141981 0.000517337 0.000187866 6.8082e-05 2.46288e-05 8.89227e-06 3.2033e-06 1.15084e-06 4.12148e-07 1.47059e-07 5.22517e-08 1.84772e-08 6.49896e-09 2.27275e-09 7.89624e-10 2.7217e-10 9.29957e-11 3.16455e-11 1.02567e-11 3.53048e-12 7.35312e-13 1.65894e-13 -1.77818e-13 2.19814e-13 3.29343e-14 -2.39974e-13 1.5047e-14 1.59078e-13 2.78172e-14 -2.73762e-14 0
				</DataArray>
				<DataArray Name="VitesseY" type="Float32" format="ascii">