<?xml version="1.0"?>
<VTKFile type="PolyData">
	<PolyData>
		<Piece NumberOfPoints="1206" NumberOfPolys="1000">
			<Points>
				<DataArray type="Float32" NumberOfComponents="3" format="ascii">
 0 0 0 0.005 0 0 0.01 0 0 0.015 0 0 0.02 0 0 0.025 0 0 0.03 0 0 0.035 0 0 0.04 0 0 0.045 0 0 0.05 0 0 0.055 0 0 0.06 0 0 0.065 0 0 0.07 0 0 0.075 0 0 0.08 0 0 0.085 0 0 0.09 0 0 0.095 0 0 0.1 0 0 0.105 0 0 0.11 0 0 0.115 0 0 0.12 0 0 0.125 0 0 0.13 0 0 0.135 0 0 0.14 0 0 0.145 0 0 0.15 0 0 0.155 0 0 0.16 0 0 0.165 0 0 0.17 0 0 0.175 0 0 0.18 0 0 0.185 0 0 0.19 0 0 0.195 0 0 0.2 0 0 0.205 0 0 0.21 0 0 0.215 0 0 0.22 0 0 0.225 0 0 0.23 0 0 0.235 0 0 0.24 0 0 0.245 0 0 0.25 0 0 0.255 0 0 0.26 0 0 0.265 0 0 0.27 0 0 0.275 0 0 0.28 0 0 0.285 0 0 0.29 0 0 0.295 0 0 0.3 0 0 0.305 0 0 0.31 0 0 0.315 0 0 0.32 0 0 0.325 0 0 0.33 0 0 0.335 0 0 0.34 0 0 0.345 0 0 0.35 0 0 0.355 0 0 0.36 0 0 0.365 0 0 0.37 0 0 0.375 0 0 0.38 0 0 0.385 0 0 0.39 0 0 0.395 0 0 0.4 0 0 0.405 0 0 0.41 0 0 0.415 0 0 0.42 0 0 0.425 0 0 0.43 0 0 0.435 0 0 0.44 0 0 0.445 0 0 0.45 0 0 0.455 0 0 0.46 0 0 0.465 0 0 0.47 0 0 0.475 0 0 0.480005 0 0 0.485059 0 0 0.490463 0 0 0.497282 0 0 0.508358 0 0 0.511049 0 0 0.513998 0 0 0.517338 0 0 0.52115 0 0 0.525441 0 0 0.530121 0 0 0.535023 0 0 0.540004 0 0 0.545 0 0 0.55 0 0 0.555 0 0 0.56 0 0 0.565 0 0 0.57 0 0 0.575 0 0 0.58 0 0 0.585 0 0 0.59 0 0 0.595 0 0 0.6 0 0 0.605 0 0 0.61 0 0 0.615 0 0 0.62 0 0 0.625 0 0 0.63 0 0 0.635 0 0 0.64 0 0 0.645 0 0 0.65 0 0 0.655 0 0 0.66 0 0 0.665 0 0 0.67 0 0 0.675 0 0 0.68 0 0 0.685 0 0 0.69 0 0 0.695 0 0 0.7 0 0 0.705 0 0 0.71 0 0 0.715 0 0 0.72 0 0 0.725 0 0 0.73 0 0 0.735 0 0 0.74 0 0 0.745 0 0 0.75 0 0 0.755 0 0 0.76 0 0 0.765 0 0 0.77 0 0 0.775 0 0 0.78 0 0 0.785 0 0 0.79 0 0 0.795 0 0 0.8 0 0 0.805 0 0 0.81 0 0 0.815 0 0 0.82 0 0 0.825 0 0 0.83 0 0 0.835 0 0 0.84 0 0 0.845 0 0 0.85 0 0 0.855 0 0 0.86 0 0 0.865 0 0 0.87 0 0 0.875 0 0 0.88 0 0 0.885 0 0 0.89 0 0 0.895 0 0 0.9 0 0 0.905 0 0 0.91 0 0 0.915 0 0 0.92 0 0 0.925 0 0 0.93 0 0 0.935 0 0 0.94 0 0 0.945 0 0 0.95 0 0 0.955 0 0 0.96 0 0 0.965 0 0 0.97 0 0 0.975 0 0 0.98 0 0 0.985 0 0 0.99 0 0 0.995 0 0 1 0 0 0 0.02 0 0.005 0.02 0 0.01 0.02 0 0.015 0.02 0 0.02 0.02 0 0.025 0.02 0 0.03 0.02 0 0.035 0.02 0 0.04 0.02 0 0.045 0.02 0 0.05 0.02 0 0.055 0.02 0 0.06 0.02 0 0.065 0.02 0 0.07 0.02 0 0.075 0.02 0 0.08 0.02 0 0.085 0.02 0 0.09 0.02 0 0.095 0.02 0 0.1 0.02 0 0.105 0.02 0 0.11 0.02 0 0.115 0.02 0 0.12 0.02 0 0.125 0.02 0 0.13 0.02 0 0.135 0.02 0 0.14 0.02 0 0.145 0.02 0 0.15 0.02 0 0.155 0.02 0 0.16 0.02 0 0.165 0.02 0 0.17 0.02 0 0.175 0.02 0 0.18 0.02 0 0.185 0.02 0 0.19 0.02 0 0.195 0.02 0 0.2 0.02 0 0.205 0.02 0 0.21 0.02 0 0.215 0.02 0 0.22 0.02 0 0.225 0.02 0 0.23 0.02 0 0.235 0.02 0 0.24 0.02 0 0.245 0.02 0 0.25 0.02 0 0.255 0.02 0 0.26 0.02 0 0.265 0.02 0 0.27 0.02 0 0.275 0.02 0 0.28 0.02 0 0.285 0.02 0 0.29 0.02 0 0.295 0.02 0 0.3 0.02 0 0.305 0.02 0 0.31 0.02 0 0.315 0.02 0 0.32 0.02 0 0.325 0.02 0 0.33 0.02 0 0.335 0.02 0 0.34 0.02 0 0.345 0.02 0 0.35 0.02 0 0.355 0.02 0 0.36 0.02 0 0.365 0.02 0 0.37 0.02 0 0.375 0.02 0 0.38 0.02 0 0.385 0.02 0 0.39 0.02 0 0.395 0.02 0 0.4 0.02 0 0.405 0.02 0 0.41 0.02 0 0.415 0.02 0 0.42 0.02 0 0.425 0.02 0 0.43 0.02 0 0.435 0.02 0 0.44 0.02 0 0.445 0.02 0 0.45 0.02 0 0.455 0.02 0 0.46 0.02 0 0.465 0.02 0 0.47 0.02 0 0.475 0.02 0 0.480005 0.02 0 0.485059 0.02 0 0.490463 0.02 0 0.497282 0.02 0 0.508358 0.02 0 0.511049 0.02 0 0.513998 0.02 0 0.517338 0.02 0 0.52115 0.02 0 0.525441 0.02 0 0.530121 0.02 0 0.535023 0.02 0 0.540004 0.02 0 0.545 0.02 0 0.55 0.02 0 0.555 0.02 0 0.56 0.02 0 0.565 0.02 0 0.57 0.02 0 0.575 0.02 0 0.58 0.02 0 0.585 0.02 0 0.59 0.02 0 0.595 0.02 0 0.6 0.02 0 0.605 0.02 0 0.61 0.02 0 0.615 0.02 0 0.62 0.02 0 0.625 0.02 0 0.63 0.02 0 0.635 0.02 0 0.64 0.02 0 0.645 0.02 0 0.65 0.02 0 0.655 0.02 0 0.66 0.02 0 0.665 0.02 0 0.67 0.02 0 0.675 0.02 0 0.68 0.02 0 0.685 0.02 0 0.69 0.02 0 0.695 0.02 0 0.7 0.02 0 0.705 0.02 0 0.71 0.02 0 0.715 0.02 0 0.72 0.02 0 0.725 0.02 0 0.73 0.02 0 0.735 0.02 0 0.74 0.02 0 0.745 0.02 0 0.75 0.02 0 0.755 0.02 0 0.76 0.02 0 0.765 0.02 0 0.77 0.02 0 0.775 0.02 0 0.78 0.02 0 0.785 0.02 0 0.79 0.02 0 0.795 0.02 0 0.8 0.02 0 0.805 0.02 0 0.81 0.02 0 0.815 0.02 0 0.82 0.02 0 0.825 0.02 0 0.83 0.02 0 0.835 0.02 0 0.84 0.02 0 0.845 0.02 0 0.85 0.02 0 0.855 0.02 0 0.86 0.02 0 0.865 0.02 0 0.87 0.02 0 0.875 0.02 0 0.88 0.02 0 0.885 0.02 0 0.89 0.02 0 0.895 0.02 0 0.9 0.02 0 0.905 0.02 0 0.91 0.02 0 0.915 0.02 0 0.92 0.02 0 0.925 0.02 0 0.93 0.02 0 0.935 0.02 0 0.94 0.02 0 0.945 0.02 0 0.95 0.02 0 0.955 0.02 0 0.96 0.02 0 0.965 0.02 0 0.97 0.02 0 0.975 0.02 0 0.98 0.02 0 0.985 0.02 0 0.99 0.02 0 0.995 0.02 0 1 0.02 0 0 0.04 0 0.005 0.04 0 0.01 0.04 0 0.015 0.04 0 0.02 0.04 0 0.025 0.04 0 0.03 0.04 0 0.035 0.04 0 0.04 0.04 0 0.045 0.04 0 0.05 0.04 0 0.055 0.04 0 0.06 0.04 0 0.065 0.04 0 0.07 0.04 0 0.075 0.04 0 0.08 0.04 0 0.085 0.04 0 0.09 0.04 0 0.095 0.04 0 0.1 0.04 0 0.105 0.04 0 0.11 0.04 0 0.115 0.04 0 0.12 0.04 0 0.125 0.04 0 0.13 0.04 0 0.135 0.04 0 0.14 0.04 0 0.145 0.04 0 0.15 0.04 0 0.155 0.04 0 0.16 0.04 0 0.165 0.04 0 0.17 0.04 0 0.175 0.04 0 0.18 0.04 0 0.185 0.04 0 0.19 0.04 0 0.195 0.04 0 0.2 0.04 0 0.205 0.04 0 0.21 0.04 0 0.215 0.04 0 0.22 0.04 0 0.225 0.04 0 0.23 0.04 0 0.235 0.04 0 0.24 0.04 0 0.245 0.04 0 0.25 0.04 0 0.255 0.04 0 0.26 0.04 0 0.265 0.04 0 0.27 0.04 0 0.275 0.04 0 0.28 0.04 0 0.285 0.04 0 0.29 0.04 0 0.295 0.04 0 0.3 0.04 0 0.305 0.04 0 0.31 0.04 0 0.315 0.04 0 0.32 0.04 0 0.325 0.04 0 0.33 0.04 0 0.335 0.04 0 0.34 0.04 0 0.345 0.04 0 0.35 0.04 0 0.355 0.04 0 0.36 0.04 0 0.365 0.04 0 0.37 0.04 0 0.375 0.04 0 0.38 0.04 0 0.385 0.04 0 0.39 0.04 0 0.395 0.04 0 0.4 0.04 0 0.405 0.04 0 0.41 0.04 0 0.415 0.04 0 0.42 0.04 0 0.425 0.04 0 0.43 0.04 0 0.435 0.04 0 0.44 0.04 0 0.445 0.04 0 0.45 0.04 0 0.455 0.04 0 0.46 0.04 0 0.465 0.04 0 0.47 0.04 0 0.475 0.04 0 0.480005 0.04 0 0.485059 0.04 0 0.490463 0.04 0 0.497282 0.04 0 0.508358 0.04 0 0.511049 0.04 0 0.513998 0.04 0 0.517338 0.04 0 0.52115 0.04 0 0.525441 0.04 0 0.530121 0.04 0 0.535023 0.04 0 0.540004 0.04 0 0.545 0.04 0 0.55 0.04 0 0.555 0.04 0 0.56 0.04 0 0.565 0.04 0 0.57 0.04 0 0.575 0.04 0 0.58 0.04 0 0.585 0.04 0 0.59 0.04 0 0.595 0.04 0 0.6 0.04 0 0.605 0.04 0 0.61 0.04 0 0.615 0.04 0 0.62 0.04 0 0.625 0.04 0 0.63 0.04 0 0.635 0.04 0 0.64 0.04 0 0.645 0.04 0 0.65 0.04 0 0.655 0.04 0 0.66 0.04 0 0.665 0.04 0 0.67 0.04 0 0.675 0.04 0 0.68 0.04 0 0.685 0.04 0 0.69 0.04 0 0.695 0.04 0 0.7 0.04 0 0.705 0.04 0 0.71 0.04 0 0.715 0.04 0 0.72 0.04 0 0.725 0.04 0 0.73 0.04 0 0.735 0.04 0 0.74 0.04 0 0.745 0.04 0 0.75 0.04 0 0.755 0.04 0 0.76 0.04 0 0.765 0.04 0 0.77 0.04 0 0.775 0.04 0 0.78 0.04 0 0.785 0.04 0 0.79 0.04 0 0.795 0.04 0 0.8 0.04 0 0.805 0.04 0 0.81 0.04 0 0.815 0.04 0 0.82 0.04 0 0.825 0.04 0 0.83 0.04 0 0.835 0.04 0 0.84 0.04 0 0.845 0.04 0 0.85 0.04 0 0.855 0.04 0 0.86 0.04 0 0.865 0.04 0 0.87 0.04 0 0.875 0.04 0 0.88 0.04 0 0.885 0.04 0 0.89 0.04 0 0.895 0.04 0 0.9 0.04 0 0.905 0.04 0 0.91 0.04 0 0.915 0.04 0 0.92 0.04 0 0.925 0.04 0 0.93 0.04 0 0.935 0.04 0 0.94 0.04 0 0.945 0.04 0 0.95 0.04 0 0.955 0.04 0 0.96 0.04 0 0.965 0.04 0 0.97 0.04 0 0.975 0.04 0 0.98 0.04 0 0.985 0.04 0 0.99 0.04 0 0.995 0.04 0 1 0.04 0 0 0.06 0 0.005 0.06 0 0.01 0.06 0 0.015 0.06 0 0.02 0.06 0 0.025 0.06 0 0.03 0.06 0 0.035 0.06 0 0.04 0.06 0 0.045 0.06 0 0.05 0.06 0 0.055 0.06 0 0.06 0.06 0 0.065 0.06 0 0.07 0.06 0 0.075 0.06 0 0.08 0.06 0 0.085 0.06 0 0.09 0.06 0 0.095 0.06 0 0.1 0.06 0 0.105 0.06 0 0.11 0.06 0 0.115 0.06 0 0.12 0.06 0 0.125 0.06 0 0.13 0.06 0 0.135 0.06 0 0.14 0.06 0 0.145 0.06 0 0.15 0.06 0 0.155 0.06 0 0.16 0.06 0 0.165 0.06 0 0.17 0.06 0 0.175 0.06 0 0.18 0.06 0 0.185 0.06 0 0.19 0.06 0 0.195 0.06 0 0.2 0.06 0 0.205 0.06 0 0.21 0.06 0 0.215 0.06 0 0.22 0.06 0 0.225 0.06 0 0.23 0.06 0 0.235 0.06 0 0.24 0.06 0 0.245 0.06 0 0.25 0.06 0 0.255 0.06 0 0.26 0.06 0 0.265 0.06 0 0.27 0.06 0 0.275 0.06 0 0.28 0.06 0 0.285 0.06 0 0.29 0.06 0 0.295 0.06 0 0.3 0.06 0 0.305 0.06 0 0.31 0.06 0 0.315 0.06 0 0.32 0.06 0 0.325 0.06 0 0.33 0.06 0 0.335 0.06 0 0.34 0.06 0 0.345 0.06 0 0.35 0.06 0 0.355 0.06 0 0.36 0.06 0 0.365 0.06 0 0.37 0.06 0 0.375 0.06 0 0.38 0.06 0 0.385 0.06 0 0.39 0.06 0 0.395 0.06 0 0.4 0.06 0 0.405 0.06 0 0.41 0.06 0 0.415 0.06 0 0.42 0.06 0 0.425 0.06 0 0.43 0.06 0 0.435 0.06 0 0.44 0.06 0 0.445 0.06 0 0.45 0.06 0 0.455 0.06 0 0.46 0.06 0 0.465 0.06 0 0.47 0.06 0 0.475 0.06 0 0.480005 0.06 0 0.485059 0.06 0 0.490463 0.06 0 0.497282 0.06 0 0.508358 0.06 0 0.511049 0.06 0 0.513998 0.06 0 0.517338 0.06 0 0.52115 0.06 0 0.525441 0.06 0 0.530121 0.06 0 0.535023 0.06 0 0.540004 0.06 0 0.545 0.06 0 0.55 0.06 0 0.555 0.06 0 0.56 0.06 0 0.565 0.06 0 0.57 0.06 0 0.575 0.06 0 0.58 0.06 0 0.585 0.06 0 0.59 0.06 0 0.595 0.06 0 0.6 0.06 0 0.605 0.06 0 0.61 0.06 0 0.615 0.06 0 0.62 0.06 0 0.625 0.06 0 0.63 0.06 0 0.635 0.06 0 0.64 0.06 0 0.645 0.06 0 0.65 0.06 0 0.655 0.06 0 0.66 0.06 0 0.665 0.06 0 0.67 0.06 0 0.675 0.06 0 0.68 0.06 0 0.685 0.06 0 0.69 0.06 0 0.695 0.06 0 0.7 0.06 0 0.705 0.06 0 0.71 0.06 0 0.715 0.06 0 0.72 0.06 0 0.725 0.06 0 0.73 0.06 0 0.735 0.06 0 0.74 0.06 0 0.745 0.06 0 0.75 0.06 0 0.755 0.06 0 0.76 0.06 0 0.765 0.06 0 0.77 0.06 0 0.775 0.06 0 0.78 0.06 0 0.785 0.06 0 0.79 0.06 0 0.795 0.06 0 0.8 0.06 0 0.805 0.06 0 0.81 0.06 0 0.815 0.06 0 0.82 0.06 0 0.825 0.06 0 0.83 0.06 0 0.835 0.06 0 0.84 0.06 0 0.845 0.06 0 0.85 0.06 0 0.855 0.06 0 0.86 0.06 0 0.865 0.06 0 0.87 0.06 0 0.875 0.06 0 0.88 0.06 0 0.885 0.06 0 0.89 0.06 0 0.895 0.06 0 0.9 0.06 0 0.905 0.06 0 0.91 0.06 0 0.915 0.06 0 0.92 0.06 0 0.925 0.06 0 0.93 0.06 0 0.935 0.06 0 0.94 0.06 0 0.945 0.06 0 0.95 0.06 0 0.955 0.06 0 0.96 0.06 0 0.965 0.06 0 0.97 0.06 0 0.975 0.06 0 0.98 0.06 0 0.985 0.06 0 0.99 0.06 0 0.995 0.06 0 1 0.06 0 0 0.08 0 0.005 0.08 0 0.01 0.08 0 0.015 0.08 0 0.02 0.08 0 0.025 0.08 0 0.03 0.08 0 0.035 0.08 0 0.04 0.08 0 0.045 0.08 0 0.05 0.08 0 0.055 0.08 0 0.06 0.08 0 0.065 0.08 0 0.07 0.08 0 0.075 0.08 0 0.08 0.08 0 0.085 0.08 0 0.09 0.08 0 0.
[...]
			<PointData Scalars="VitesseX">
				<DataArray Name="VitesseX" type="Float32" format="ascii">
 0 -3.43845e-16 -1.07009e-15 8.34726e-16 2.35361e-16 -1.42954e-15 1.71892e-15 -3.16033e-15 0 5.62171e-15 -1.37538e-15 -5.73414e-15 4.11591e-15 1.61823e-15 -8.34356e-15 8.34356e-15 0 -8.34356e-15 8.34356e-15 0 -8.34356e-15 1.38451e-14 -1.38451e-14 0 1.38451e-14 0 -1.38451e-14 1.38451e-14 -3.09962e-14 3.09962e-14 -1.38451e-14 1.38451e-14 0 -1.38451e-14 1.38451e-14 -3.09962e-14 3.09962e-14 -1.38451e-14 1.38451e-14 -1.38451e-14 1.38451e-14 -3.09962e-14 3.09962e-14 5.89449e-16 -5.89449e-16 -3.09962e-14 3.09962e-14 -3.09962e-14 3.09962e-14 0 0 0 -3.09962e-14 3.09962e-14 0 0 -2.3578e-14 -3.94266e-14 5.40809e-14 8.9236e-15 0 -3.09962e-14 3.21471e-14 -1.27761e-14 5.69957e-15 5.92568e-15 -3.04232e-14 1.42014e-14 9.79191e-16 -7.53201e-15 -3.94175e-14 3.86141e-14 8.87658e-15 -7.45074e-15 -1.51685e-14 2.63458e-14 -7.49926e-15 1.26184e-14 -1.11235e-15 -2.28985e-14 3.09962e-14 -3.2126e-14 -1.46306e-14 -2.33249e-14 4.47526e-14 -6.79704e-15 -5.11973e-15 3.29746e-14 -2.78548e-14 5.76851e-14 7.81431e-13 6.5381e-11 4.12072e-09 2.00813e-07 7.30437e-06 0.000188776 0.00322188 0.0326646 0.178976 0.559061 1.07975 0.991111 0.843229 0.645652 0.423064 0.217948 0.0773112 0.0176583 0.00300193 0.000439156 5.79968e-05 6.99332e-06 7.73009e-07 7.85338e-08 7.35005e-09 6.35034e-10 5.07097e-11 3.77472e-12 2.50079e-13 5.92817e-14 -4.48816e-14 7.84197e-15 -4.43015e-14 1.82401e-14 3.92792e-14 -1.80302e-14 -4.46093e-14 8.44421e-15 1.39702e-14 1.92178e-14 -1.73953e-14 3.45266e-14 -7.0822e-14 3.37649e-14 9.93336e-15 -2.61965e-14 1.5577e-14 -2.20902e-14 2.7369e-14 9.20242e-15 -8.56629e-14 8.20884e-16 4.67022e-14 -9.03846e-15 1.16335e-14 2.78841e-14 -3.3645e-14 -3.11649e-14 -2.35433e-15 2.96486e-14 5.86946e-15 -3.19833e-16 -2.90009e-14 2.77797e-14 5.84424e-14 -3.42753e-14 1.37173e-14 -2.8545e-14 5.81162e-15 -3.9847e-14 -2.46435e-14 5.41855e-14 -4.49416e-14 3.31267e-14 -1.82483e-14 -1.7997e-14 -2.86603e-14 6.90304e-14 -4.10991e-14 6.62711e-14 7.63604e-15 -7.43698e-14 2.16291e-15 3.54581e-15 6.12947e-14 -4.79534e-14 2.13942e-15 3.41545e-14 -3.19826e-14 7.04212e-14 -2.45713e-14 2.60185e-14 -5.57537e-14 3.61201e-15 6.64396e-14 -1.61239e-14 -3.54839e-15 -2.08927e-14 -5.69689e-15 5.19165e-14 -6.24475e-14 -7.60931e-14 9.41604e-14 1.9115e-14 0 0 -1.40687e-14 1.17948e-14 2.3319e-15 0 0 0 2.41855e-16 -1.26348e-15 1.82412e-15 -1.17754e-15 -1.24901e-15 1.415e-15 -1.61444e-15 -6.32921e-16 4.93402e-15 -6.87689e-16 -7.4489e-15 8.48477e-15 -5.99796e-15 -1.86518e-15 6.82726e-15 -3.49142e-15 -2.88813e-15 1.68032e-15 4.69924e-15 -8.2723e-15 8.33184e-15 -8.40311e-15 0 1.38451e-14 0 -1.38451e-14 1.38451e-14 -3.09962e-14 3.09962e-14 -1.38451e-14 1.38451e-14 0 -1.38451e-14 1.38451e-14 -3.09962e-14 3.09962e-14 -1.38451e-14 1.38451e-14 -1.38451e-14 1.38451e-14 -3.11748e-14 2.08535e-14 1.28583e-15 9.03549e-15 -3.09962e-14 3.09962e-14 -3.09962e-14 3.09962e-14 0 0 0 -3.09962e-14 3.21311e-14 -8.94959e-15 7.81475e-15 -1.76016e-14 -4.69912e-14 4.94439e-14 1.04011e-14 4.74783e-15 -3.09962e-14 1.50566e-14 -1.13764e-15 5.4162e-15 1.16611e-14 -3.36897e-14 -2.89183e-16 -8.15435e-15 4.31379e-15 -3.40413e-14 6.00717e-14 -7.28087e-15 -6.20155e-15 -2.08624e-14 3.20101e-15 1.21476e-15 2.05455e-14 2.23651e-15 -1.74635e-14 2.08739e-14 -1.21933e-14 -3.57837e-14 -3.61327e-14 5.77941e-14 1.0845e-14 -7.25187e-15 2.24739e-14 -1.5222e-14 5.24495e-14 7.86656e-13 6.53785e-11 4.12073e-09 2.00813e-07 7.30437e-06 0.000188776 0.00322188 0.0326646 0.178976 0.559061 1.07975 0.991111 0.843229 0.645652 0.423064 0.217948 0.0773112 0.0176583 0.00300193 0.000439156 5.79968e-05 6.99332e-06 7.73009e-07 7.85338e-08 7.35004e-09 6.35014e-10 5.07183e-11 3.77275e-12 2.5376e-13 5.75963e-14 -4.02502e-14 -1.41465e-15 -7.4376e-14 3.52457e-14 3.6638e-14 -1.33602e-14 -4.5274e-14 1.14891e-14 8.75114e-15 2.63778e-14 -3.02118e-15 9.42768e-15 -4.59799e-14 -1.03738e-14 4.49773e-14 -1.74483e-14 -1.52501e-14 -5.68676e-15 3.59195e-14 7.45928e-15 -8.36648e-14 -3.60791e-14 1.46797e-14 1.6878e-14 6.22492e-14 3.60134e-14 -1.2405e-13 2.2036e-14 -2.06827e-14 4.46619e-14 5.92263e-14 -7.27151e-14 8.46703e-15 9.57466e-16 1.19645e-13 -4.77494e-14 -1.95681e-14 -3.7447e-14 2.6456e-14 -8.59897e-14 -8.47948e-14 6.43075e-14 1.23222e-14 4.04744e-14 -3.55509e-14 3.85395e-15 -1.72704e-14 1.03429e-14 2.80948e-14 3.49039e-14 2.68159e-14 -7.7517e-14 -3.00477e-15 1.76265e-14 5.00867e-14 -1.2827e-14 -4.59629e-14 1.71611e-14 -8.02352e-16 6.14742e-14 9.27674e-15 -3.12596e-14 2.63105e-14 -4.43094e-14 4.93925e-14 2.95374e-14 1.31022e-14 -4.61121e-14 -1.86354e-14 4.17555e-14 -2.51146e-14 -9.60819e-14 8.36171e-14 1.92022e-14 3.59851e-14 -7.79694e-18 -2.03345e-14 -3.08726e-14 1.81571e-14 3.30367e-14 0 0 7.35929e-16 9.35778e-17 -1.58214e-15 3.00393e-15 -1.16462e-15 -1.36869e-15 -6.17038e-15 7.42742e-15 4.87392e-15 -6.92254e-15 -8.75307e-16 -5.30997e-15 1.04449e-14 -1.42002e-14 9.94067e-15 2.93156e-15 -1.19825e-14 1.18282e-14 -2.77724e-15 -1.56467e-14 1.75963e-14 8.01205e-16 0 -8.01615e-15 0 1.38774e-15 8.77648e-15 -2.51549e-14 1.44313e-14 8.57558e-15 -8.57558e-15 1.50303e-14 -1.01074e-14 -4.92286e-15 -1.54981e-14 8.3146e-15 2.38345e-14 -1.55481e-14 7.47271e-15 -8.57558e-15 -2.16257e-14 3.42829e-14 -2.5639e-14 8.24691e-15 2.01635e-14 -1.97687e-14 8.14092e-16 3.52604e-15 0 0 5.64889e-16 -1.22238e-14 -4.17138e-14 4.66847e-14 3.43926e-14 -5.97693e-14 1.21143e-14 -2.39216e-14 1.71576e-14 5.4419e-14 -4.32027e-14 -9.38453e-15 -3.79076e-14 5.5952e-14 2.18105e-14 -3.34503e-14 -1.83129e-14 -5.35007e-14 1.1868e-14 1.29653e-14 3.78152e-14 1.64129e-14 -5.55184e-14 1.65826e-15 -1.12894e-14 1.02547e-14 6.1097e-14 -5.41052e-14 5.49563e-14 -3.0971e-14 -1.65647e-14 -3.15478e-14 -4.89198e-14 4.55741e-14 6.48443e-14 -2.92787e-14 2.94627e-14 1.46336e-14 -1.50329e-14 8.57805e-13 6.53658e-11 4.12072e-09 2.00813e-07 7.30437e-06 0.000188776 0.00322188 0.0326646 0.178976 0.559061 1.07975 0.991111 0.843229 0.645652 0.423064 0.217948 0.0773112 0.0176583 0.00300193 0.000439156 5.79968e-05 6.99332e-06 7.73009e-07 7.85338e-08 7.35005e-09 6.3499e-10 5.07081e-11 3.74935e-12 3.1238e-13 -2.9589e-15 2.32174e-14 -7.7968e-14 -1.50347e-13 1.55667e-13 -2.03124e-14 9.83036e-14 -1.57567e-13 1.08652e-15 6.72579e-14 4.60968e-15 -1.3992e-14 -2.53263e-16 -7.66558e-14 9.14251e-14 -4.44051e-14 8.60547e-14 -1.25198e-13 -5.44958e-15 8.66346e-14 -4.36768e-14 -1.93519e-14 -5.05184e-14 -9.75665e-14 9.93353e-14 4.08269e-14 6.06987e-14 -1.30199e-13 -5.31228e-14 3.80997e-14 9.87916e-14 1.3944e-14 5.05713e-15 -6.64777e-14 1.06978e-13 6.71157e-14 1.99075e-14 -1.04281e-13 -1.65872e-13 1.32028e-13 -1.05116e-13 -1.15448e-13 7.88195e-15 1.67144e-14 9.50938e-14 3.0313e-14 -2.83916e-14 -1.90178e-15 1.37272e-17 1.04209e-13 -7.82007e-14 6.98824e-14 -1.02786e-13 2.2613e-14 7.1171e-14 -4.61511e-14 1.5435e-14 -3.70085e-14 -1.26971e-14 6.18514e-14 6.239e-15 6.7477e-14 -8.33081e-14 4.38667e-14 2.87859e-14 -4.88769e-14 6.56344e-14 1.74005e-14 -8.0708e-14 4.2071e-14 -1.46595e-14 6.59639e-14 -9.8878e-14 -5.08332e-15 1.12241e-13 2.28173e-14 -2.34958e-14 -2.74855e-14 -9.91048e-14 8.76913e-14 1.22392e-13 0 0 -6.53514e-16 4.44312e-16 -1.54939e-15 8.17405e-16 1.19991e-16 -5.91827e-16 -1.29635e-15 1.1378e-15 2.75076e-15 -3.56723e-15 -5.17315e-16 -6.48526e-15 4.29335e-15 -1.00873e-15 7.28519e-15 -9.07514e-15 2.23193e-15 -1.17844e-15 8.02165e-15 -1.12515e-14 7.09146e-15 -3.85066e-15 2.00307e-15 -9.55131e-16 7.90372e-15 -2.55472e-14 8.65708e-15 -7.05769e-15 2.66378e-14 -1.22065e-14 1.22065e-14 -1.5787e-14 -1.24586e-14 2.82456e-14 -2.77046e-14 -1.26051e-14 1.48313e-14 -1.70996e-16 1.45458e-14 4.71362e-15 -2.66988e-14 2.23945e-14 1.26256e-15 -1.685e-14 7.3618e-16 -1.53793e-14 5.40936e-15 9.93073e-15 2.55848e-14 0 -3.49901e-14 -5.64324e-14 -8.19965e-15 7.05376e-14 2.90845e-14 -6.44529e-14 -3.07265e-15 1.504e-14 4.40618e-15 4.80793e-14 -2.77046e-14 -2.47556e-14 -3.06001e-14 4.19226e-14 3.0643e-14 -1.72099e-14 -2.03269e-14 -4.11841e-14 -4.89791e-14 9.39336e-15 6.3708e-14 2.33494e-14 -8.43629e-14 -4.41513e-14 4.11336e-14 5.40089e-14 4.47097e-14 -6.36037e-14 2.03508e-14 -1.87059e-14 -1.84273e-14 -4.50542e-14 2.27436e-14 2.27941e-14 1.08102e-14 -1.04818e-14 6.19999e-14 9.51428e-15 -2.26351e-14 8.39208e-13 6.53836e-11 4.12074e-09 2.00813e-07 7.30437e-06 0.000188776 0.00322188 0.0326646 0.178976 0.559061 1.07975 0.991111 0.843229 0.645652 0.423064 0.217948 0.0773112 0.0176583 0.00300193 0.000439156 5.79968e-05 6.99332e-06 7.73009e-07 7.85337e-08 7.35004e-09 6.35007e-10 5.07101e-11 3.80818e-12 2.02882e-13 1.14704e-13 -7.3452e-14 -4.89747e-14 -1.32791e-13 3.73289e-14 9.93985e-14 6.39659e-14 -8.91839e-14 -6.99001e-14 2.14509e-14 1.30564e-13 -1.57522e-13 1.1404e-13 -1.81886e-13 1.2106e-13 3.49121e-14 2.54103e-14 -7.93075e-14 -5.34523e-14 7.10029e-14 -2.44334e-14 -1.07956e-13 -2.39968e-14 7.55021e-15 -3.41992e-14 6.77361e-15 1.40288e-13 -4.59516e-14 4.3726e-15 -6.94404e-14 3.03179e-14 6.66654e-14 5.36495e-14 -4.81614e-14 6.88333e-14 3.98851e-14 -7.4166e-15 -6.95916e-14 -1.77541e-13 2.3548e-14 -5.80802e-14 -7.00686e-14 4.97382e-14 3.50976e-14 4.75759e-14 1.4651e-14 7.93343e-14 -6.5969e-14 -3.51742e-14 3.84027e-14 2.75314e-14 -1.01555e-13 5.78127e-15 1.16688e-13 -3.51745e-14 -7.30307e-14 -4.70203e-14 5.00073e-14 9.59974e-14 -2.48315e-14 6.15561e-15 1.11437e-13 -9.87978e-14 6.54345e-14 -1.38577e-14 -1.2615e-13 7.20128e-14 2.80854e-14 -3.56138e-14 -6.22176e-14 9.23497e-14 3.78922e-14 -2.08889e-14 -2.38086e-14 1.51146e-13 -6.62621e-14 5.33931e-14 -1.03364e-13 3.82181e-14 6.25087e-14 7.2349e-14 0 0 -1.34324e-15 -5.18663e-16 1.07721e-15 -2.18951e-15 -3.45469e-16 -5.37559e-16 4.83976e-15 -6.92254e-15 -1.27831e-15 -2.39894e-15 -1.56683e-15 4.44205e-15 -8.64535e-15 1.20102e-14 1.81889e-15 -1.02124e-14 1.16704e-14 -1.4548e-14 1.46171e-14 -3.05126e-15 -7.15489e-15 -7.5743e-15 3.44494e-15 7.82704e-15 1.13358e-14 -2.52515e-14 -3.61965e-15 1.54876e-15 2.82662e-14 -1.85917e-14 1.74652e-14 -2.38536e-14 -1.3783e-14 3.47185e-14 -2.47865e-14 -5.97545e-15 -2.67485e-14 2.44695e-14 5.7778e-15 3.07549e-14 -2.77134e-14 -6.53306e-15 2.78927e-14 -1.29714e-14 -3.30378e-14 6.71469e-15 -2.41306e-15 2.19028e-14 2.55848e-14 0 -2.94466e-14 -6.13454e-14 5.50397e-14 5.541e-15 2.50666e-15 -1.04962e-14 -3.46866e-14 3.50618e-14 1.17129e-14 1.05813e-14 6.25425e-15 -3.48154e-14 1.25579e-14 -1.14629e-14 2.97039e-14 -2.93863e-14 1.77447e-14 -2.02977e-14 -4.81412e-14 -3.11876e-14 4.4375e-14 2.86529e-15 -1.09729e-14 -4.68481e-14 2.19552e-15 7.47234e-14 -3.50703e-14 -7.68823e-14 1.52487e-14 3.57116e-14 1.41566e-15 -3.16105e-14 3.87769e-14 9.09941e-15 -1.77222e-14 1.59646e-14 4.77765e-14 -1.9149e-14 -5.57728e-15 8.13755e-13 6.53768e-11 4.12079e-09 2.00813e-07 7.30437e-06 0.000188776 0.00322188 0.0326646 0.178976 0.559061 1.07975 0.991111 0.843229 0.645652 0.423064 0.217948 0.0773112 0.0176583 0.00300193 0.000439156 5.79968e-05 6.99332e-06 7.73009e-07 7.85337e-08 7.35003e-09 6.35071e-10 5.0644e-11 3.90643e-12 1.46946e-13 1.1595e-13 -9.04732e-14 -2.90802e-14 -3.03105e-14 -4.23641e-14 8.2399e-14 -5.34903e-15 2.98991e-14 -3.19581e-14 -4.81821e-14 1.18803e-13 -9.83622e-14 3.16618e-14 -6.62251e-14 -3.91796e-14 1.25296e-13 -3.16346e-14 4.75102e-15 -1.60177e-14 -6.74278e-14 -3.83986e-14 -1.15446e-13 2.90968e-14 6.15541e-14 -1.07871e-13 6.70997e-14 5.69863e-14 9.46177e-15 7.99741e-14 -9.23914e-14 -3.9503e-14 1.84703e-14 2.89531e-14 3.178e-14 -3.99934e-14 5.24417e-14 -2.28168e-14 -6.50604e-14 -2.18367e-14 -9.96815e-14 -2.31806e-15 -9.51201e-14 1.55674e-13 3.16817e-14 1.87963e-14 -8.83954e-14 1.74536e-13 -1.35906e-13 -1.08987e-13 3.19686e-14 4.11554e-14 -1.08115e-13 4.21704e-14 1.16157e-13 -7.12413e-14 -5.86545e-14 -1.05753e-14 9.44853e-15 2.22287e-13 -2.50281e-13 7.17604e-14 1.63007e-13 -2.48239e-14 4.29392e-14 -5.00492e-14 -1.37634e-13 1.9206e-14 6.10881e-14 1.9324e-14 -7.12714e-14 4.85148e-14 -7.41081e-15 1.68313e-14 5.54675e-14 2.65452e-14 -8.59581e-14 2.33214e-13 -1.20235e-13 6.48127e-14 -1.53283e-14 8.58657e-14 0 0 -7.35157e-16 -2.81929e-16 -7.24611e-16 2.58445e-15 -2.19168e-15 -3.73993e-15 0 0 -2.55661e-15 -1.15085e-14 5.31402e-15 -1.61894e-15 8.62645e-15 -6.97583e-15 3.63779e-15 1.05715e-14 -7.65554e-15 1.90016e-15 -1.76196e-15 -6.69198e-15 3.88127e-15 -2.88374e-15 2.88374e-15 -1.2313e-14 6.86418e-15 1.72119e-14 -2.08456e-14 -2.10072e-15 1.12318e-15 1.82258e-14 -2.04788e-14 1.39273e-14 -9.01846e-15 -1.07451e-14 5.83626e-15 -1.1078e-15 -2.16455e-14 4.33973e-15 1.12545e-14 2.10864e-14 -1.39273e-14 0 0 5.59066e-15 3.77545e-15 -2.63457e-14 1.69796e-14 0 0 0 1.22168e-14 -3.27735e-15 9.78516e-15 -1.87246e-14 0 0 1.55564e-14 -5.26064e-14 3.705e-14 2.43463e-14 1.25085e-14 -3.68548e-14 0 0 2.43463e-14 -5.42971e-14 5.42971e-14 -4.79406e-14 9.25237e-15 -2.65662e-14 -4.4565e-14 1.52959e-14 4.06955e-14 2.44791e-14 -8.0511e-14 5.20096e-14 -6.58386e-14 -1.40353e-13 1.11737e-13 3.61414e-14 -1.18291e-15 2.07286e-14 -1.68325e-14 -7.07682e-15 4.41368e-14 3.71949e-15 1.85054e-14 -2.54701e-14 -4.31639e-14 8.72823e-13 6.53419e-11 4.1208e-09 2.00813e-07 7.30437e-06 0.000188776 0.00322188 0.0326646 0.178976 0.559061 1.07975 0.991111 0.843229 0.645652 0.423064 0.217948 0.0773112 0.0176583 0.00300193 0.000439156 5.79968e-05 6.99332e-06 7.73009e-07 7.85337e-08 7.35003e-09 6.35115e-10 5.05573e-11 3.9245e-12 2.55368e-13 -5.95525e-14 4.79087e-14 -1.0546e-13 8.76903e-15 9.97118e-14 -1.08592e-13 6.67054e-14 -3.11132e-14 6.34364e-14 -8.35772e-15 -4.79641e-14 7.88993e-14 -1.49569e-13 9.9189e-14 -8.31578e-14 1.19171e-14 6.67054e-14 -3.61977e-14 5.33266e-14 -1.48104e-13 -1.20986e-13 2.80483e-14 7.80662e-14 -6.98745e-14 8.47582e-15 8.94862e-14 -8.92467e-14 6.49647e-14 -3.03271e-14 6.92423e-14 -1.86884e-15 -1.81196e-13 1.05962e-13 -1.89399e-14 2.2092e-14 -2.15315e-14 7.02626e-14 -1.46591e-13 2.60051e-14 -2.96161e-14 3.33464e-14 -1.36069e-13 1.53282e-13 -4.28976e-14 8.47268e-14 -9.27016e-14 1.07937e-13 -1.37961e-13 -9.94181e-14 9.82246e-14 -1.32786e-13 8.06635e-14 -5.20704e-14 5.24037e-14 3.85636e-14 -1.02447e-13 8.14537e-14 -6.10412e-14 2.26973e-13 -3.57567e-13 9.12289e-14 1.95104e-13 6.99787e-14 -6.56105e-14 7.75073e-14 -1.53025e-13 -4.95341e-14 7.11258e-14 1.98651e-14 9.75943e-14 -1.4862e-13 2.90951e-14 -6.11757e-15 7.54681e-14 -4.39685e-14 -6.5787e-14 3.12652e-13 -6.21051e-14 -7.16305e-14 -1.44136e-14 2.0566e-13 0
				</DataArray>
				<DataArray Name="VitesseY" type="Float32" format="ascii">