<?xml version="1.0"?>
<VTKFile type="PolyData">
	<PolyData>
		<Piece NumberOfPoints="1206" NumberOfPolys="1000">
			<Points>
				<DataArray type="Float32" NumberOfComponents="3" format="ascii">
 0 0 0 0.005 0 0 0.01 0 0 0.015 0 0 0.02 0 0 0.025 0 0 0.03 0 0 0.035 0 0 0.04 0 0 0.045 0 0 0.05 0 0 0.055 0 0 0.06 0 0 0.065 0 0 0.07 0 0 0.075 0 0 0.08 0 0 0.085 0 0 0.09 0 0 0.095 0 0 0.1 0 0 0.105 0 0 0.11 0 0 0.115 0 0 0.12 0 0 0.125 0 0 0.13 0 0 0.135 0 0 0.14 0 0 0.145 0 0 0.15 0 0 0.155 0 0 0.16 0 0 0.165 0 0 0.17 0 0 0.175 0 0 0.18 0 0 0.185 0 0 0.19 0 0 0.195 0 0 0.2 0 0 0.205 0 0 0.21 0 0 0.215 0 0 0.22 0 0 0.225 0 0 0.23 0 0 0.235 0 0 0.24 0 0 0.245 0 0 0.25 0 0 0.255 0 0 0.26 0 0 0.265 0 0 0.27 0 0 0.275 0 0 0.28 0 0 0.285 0 0 0.29 0 0 0.295 0 0 0.3 0 0 0.305 0 0 0.31 0 0 0.315 0 0 0.32 0 0 0.325 0 0 0.33 0 0 0.335 0 0 0.34 0 0 0.345 0 0 0.35 0 0 0.355 0 0 0.36 0 0 0.365 0 0 0.37 0 0 0.375 0 0 0.380001 0 0 0.385006 0 0 0.39002 0 0 0.39506 0 0 0.400158 0 0 0.405358 0 0 0.410711 0 0 0.416267 0 0 0.422065 0 0 0.428147 0 0 0.434551 0 0 0.441324 0 0 0.448518 0 0 0.456197 0 0 0.464438 0 0 0.473336 0 0 0.483004 0 0 0.49357 0 0 0.505129 0 0 0.517531 0 0 0.530009 0 0 0.542224 0 0 0.554224 0 0 0.566112 0 0 0.577962 0 0 0.580245 0 0 0.582529 0 0 0.584812 0 0 0.587095 0 0 0.589377 0 0 0.59166 0 0 0.593945 0 0 0.59623 0 0 0.598517 0 0 0.6008 0 0 0.603084 0 0 0.605371 0 0 0.607656 0 0 0.60994 0 0 0.612222 0 0 0.614503 0 0 0.616786 0 0 0.619068 0 0 0.62135 0 0 0.623631 0 0 0.62593 0 0 0.628254 0 0 0.630627 0 0 0.633056 0 0 0.635604 0 0 0.638291 0 0 0.641199 0 0 0.644372 0 0 0.647874 0 0 0.65173 0 0 0.655939 0 0 0.660455 0 0 0.665197 0 0 0.670078 0 0 0.675029 0 0 0.680011 0 0 0.685004 0 0 0.690001 0 0 0.695 0 0 0.7 0 0 0.705 0 0 0.71 0 0 0.715 0 0 0.72 0 0 0.725 0 0 0.73 0 0 0.735 0 0 0.74 0 0 0.745 0 0 0.75 0 0 0.755 0 0 0.76 0 0 0.765 0 0 0.77 0 0 0.775 0 0 0.78 0 0 0.785 0 0 0.79 0 0 0.795 0 0 0.8 0 0 0.805 0 0 0.81 0 0 0.815 0 0 0.82 0 0 0.825 0 0 0.83 0 0 0.835 0 0 0.84 0 0 0.845 0 0 0.85 0 0 0.855 0 0 0.86 0 0 0.865 0 0 0.87 0 0 0.875 0 0 0.88 0 0 0.885 0 0 0.89 0 0 0.895 0 0 0.9 0 0 0.905 0 0 0.91 0 0 0.915 0 0 0.92 0 0 0.925 0 0 0.93 0 0 0.935 0 0 0.94 0 0 0.945 0 0 0.95 0 0 0.955 0 0 0.96 0 0 0.965 0 0 0.97 0 0 0.975 0 0 0.98 0 0 0.985 0 0 0.99 0 0 0.995 0 0 1 0 0 0 0.02 0 0.005 0.02 0 0.01 0.02 0 0.015 0.02 0 0.02 0.02 0 0.025 0.02 0 0.03 0.02 0 0.035 0.02 0 0.04 0.02 0 0.045 0.02 0 0.05 0.02 0 0.055 0.02 0 0.06 0.02 0 0.065 0.02 0 0.07 0.02 0 0.075 0.02 0 0.08 0.02 0 0.085 0.02 0 0.09 0.02 0 0.095 0.02 0 0.1 0.02 0 0.105 0.02 0 0.11 0.02 0 0.115 0.02 0 0.12 0.02 0 0.125 0.02 0 0.13 0.02 0 0.135 0.02 0 0.14 0.02 0 0.145 0.02 0 0.15 0.02 0 0.155 0.02 0 0.16 0.02 0 0.165 0.02 0 0.17 0.02 0 0.175 0.02 0 0.18 0.02 0 0.185 0.02 0 0.19 0.02 0 0.195 0.02 0 0.2 0.02 0 0.205 0.02 0 0.21 0.02 0 0.215 0.02 0 0.22 0.02 0 0.225 0.02 0 0.23 0.02 0 0.235 0.02 0 0.24 0.02 0 0.245 0.02 0 0.25 0.02 0 0.255 0.02 0 0.26 0.02 0 0.265 0.02 0 0.27 0.02 0 0.275 0.02 0 0.28 0.02 0 0.285 0.02 0 0.29 0.02 0 0.295 0.02 0 0.3 0.02 0 0.305 0.02 0 0.31 0.02 0 0.315 0.02 0 0.32 0.02 0 0.325 0.02 0 0.33 0.02 0 0.335 0.02 0 0.34 0.02 0 0.345 0.02 0 0.35 0.02 0 0.355 0.02 0 0.36 0.02 0 0.365 0.02 0 0.37 0.02 0 0.375 0.02 0 0.380001 0.02 0 0.385006 0.02 0 0.39002 0.02 0 0.39506 0.02 0 0.400158 0.02 0 0.405358 0.02 0 0.410711 0.02 0 0.416267 0.02 0 0.422065 0.02 0 0.428147 0.02 0 0.434551 0.02 0 0.441324 0.02 0 0.448518 0.02 0 0.456197 0.02 0 0.464438 0.02 0 0.473336 0.02 0 0.483004 0.02 0 0.49357 0.02 0 0.505129 0.02 0 0.517531 0.02 0 0.530009 0.02 0 0.542224 0.02 0 0.554224 0.02 0 0.566112 0.02 0 0.577962 0.02 0 0.580245 0.02 0 0.582529 0.02 0 0.584812 0.02 0 0.587095 0.02 0 0.589377 0.02 0 0.59166 0.02 0 0.593945 0.02 0 0.59623 0.02 0 0.598517 0.02 0 0.6008 0.02 0 0.603084 0.02 0 0.605371 0.02 0 0.607656 0.02 0 0.60994 0.02 0 0.612222 0.02 0 0.614503 0.02 0 0.616786 0.02 0 0.619068 0.02 0 0.62135 0.02 0 0.623631 0.02 0 0.62593 0.02 0 0.628254 0.02 0 0.630627 0.02 0 0.633056 0.02 0 0.635604 0.02 0 0.638291 0.02 0 0.641199 0.02 0 0.644372 0.02 0 0.647874 0.02 0 0.65173 0.02 0 0.655939 0.02 0 0.660455 0.02 0 0.665197 0.02 0 0.670078 0.02 0 0.675029 0.02 0 0.680011 0.02 0 0.685004 0.02 0 0.690001 0.02 0 0.695 0.02 0 0.7 0.02 0 0.705 0.02 0 0.71 0.02 0 0.715 0.02 0 0.72 0.02 0 0.725 0.02 0 0.73 0.02 0 0.735 0.02 0 0.74 0.02 0 0.745 0.02 0 0.75 0.02 0 0.755 0.02 0 0.76 0.02 0 0.765 0.02 0 0.77 0.02 0 0.775 0.02 0 0.78 0.02 0 0.785 0.02 0 0.79 0.02 0 0.795 0.02 0 0.8 0.02 0 0.805 0.02 0 0.81 0.02 0 0.815 0.02 0 0.82 0.02 0 0.825 0.02 0 0.83 0.02 0 0.835 0.02 0 0.84 0.02 0 0.845 0.02 0 0.85 0.02 0 0.855 0.02 0 0.86 0.02 0 0.865 0.02 0 0.87 0.02 0 0.875 0.02 0 0.88 0.02 0 0.885 0.02 0 0.89 0.02 0 0.895 0.02 0 0.9 0.02 0 0.905 0.02 0 0.91 0.02 0 0.915 0.02 0 0.92 0.02 0 0.925 0.02 0 0.93 0.02 0 0.935 0.02 0 0.94 0.02 0 0.945 0.02 0 0.95 0.02 0 0.955 0.02 0 0.96 0.02 0 0.965 0.02 0 0.97 0.02 0 0.975 0.02 0 0.98 0.02 0 0.985 0.02 0 0.99 0.02 0 0.995 0.02 0 1 0.02 0 0 0.04 0 0.005 0.04 0 0.01 0.04 0 0.015 0.04 0 0.02 0.04 0 0.025 0.04 0 0.03 0.04 0 0.035 0.04 0 0.04 0.04 0 0.045 0.04 0 0.05 0.04 0 0.055 0.04 0 0.06 0.04 0 0.065 0.04 0 0.07 0.04 0 0.075 0.04 0 0.08 0.04 0 0.085 0.04 0 0.09 0.04 0 0.095 0.04 0 0.1 0.04 0 0.105 0.04 0 0.11 0.04 0 0.115 0.04 0 0.12 0.04 0 0.125 0.04 0 0.13 0.04 0 0.135 0.04 0 0.14 0.04 0 0.145 0.04 0 0.15 0.04 0 0.155 0.04 0 0.16 0.04 0 0.165 0.04 0 0.17 0.04 0 0.175 0.04 0 0.18 0.04 0 0.185 0.04 0 0.19 0.04 0 0.195 0.04 0 0.2 0.04 0 0.205 0.04 0 0.21 0.04 0 0.215 0.04 0 0.22 0.04 0 0.225 0.04 0 0.23 0.04 0 0.235 0.04 0 0.24 0.04 0 0.245 0.04 0 0.25 0.04 0 0.255 0.04 0 0.26 0.04 0 0.265 0.04 0 0.27 0.04 0 0.275 0.04 0 0.28 0.04 0 0.285 0.04 0 0.29 0.04 0 0.295 0.04 0 0.3 0.04 0 0.305 0.04 0 0.31 0.04 0 0.315 0.04 0 0.32 0.04 0 0.325 0.04 0 0.33 0.04 0 0.335 0.04 0 0.34 0.04 0 0.345 0.04 0 0.35 0.04 0 0.355 0.04 0 0.36 0.04 0 0.365 0.04 0 0.37 0.04 0 0.375 0.04 0 0.380001 0.04 0 0.385006 0.04 0 0.39002 0.04 0 0.39506 0.04 0 0.400158 0.04 0 0.405358 0.04 0 0.410711 0.04 0 0.416267 0.04 0 0.422065 0.04 0 0.428147 0.04 0 0.434551 0.04 0 0.441324 0.04 0 0.448518 0.04 0 0.456197 0.04 0 0.464438 0.04 0 0.473336 0.04 0 0.483004 0.04 0 0.49357 0.04 0 0.505129 0.04 0 0.517531 0.04 0 0.530009 0.04 0 0.542224 0.04 0 0.554224 0.04 0 0.566112 0.04 0 0.577962 0.04 0 0.580245 0.04 0 0.582529 0.04 0 0.584812 0.04 0 0.587095 0.04 0 0.589377 0.04 0 0.59166 0.04 0 0.593945 0.04 0 0.59623 0.04 0 0.598517 0.04 0 0.6008 0.04 0 0.603084 0.04 0 0.605371 0.04 0 0.607656 0.04 0 0.60994 0.04 0 0.612222 0.04 0 0.614503 0.04 0 0.616786 0.04 0 0.619068 0.04 0 0.62135 0.04 0 0.623631 0.04 0 0.62593 0.04 0 0.628254 0.04 0 0.630627 0.04 0 0.633056 0.04 0 0.635604 0.04 0 0.638291 0.04 0 0.641199 0.04 0 0.644372 0.04 0 0.647874 0.04 0 0.65173 0.04 0 0.655939 0.04 0 0.660455 0.04 0 0.665197 0.04 0 0.670078 0.04 0 0.675029 0.04 0 0.680011 0.04 0 0.685004 0.04 0 0.690001 0.04 0 0.695 0.04 0 0.7 0.04 0 0.705 0.04 0 0.71 0.04 0 0.715 0.04 0 0.72 0.04 0 0.725 0.04 0 0.73 0.04 0 0.735 0.04 0 0.74 0.04 0 0.745 0.04 0 0.75 0.04 0 0.755 0.04 0 0.76 0.04 0 0.765 0.04 0 0.77 0.04 0 0.775 0.04 0 0.78 0.04 0 0.785 0.04 0 0.79 0.04 0 0.795 0.04 0 0.8 0.04 0 0.805 0.04 0 0.81 0.04 0 0.815 0.04 0 0.82 0.04 0 0.825 0.04 0 0.83 0.04 0 0.835 0.04 0 0.84 0.04 0 0.845 0.04 0 0.85 0.04 0 0.855 0.04 0 0.86 0.04 0 0.865 0.04 0 0.87 0.04 0 0.875 0.04 0 0.88 0.04 0 0.885 0.04 0 0.89 0.04 0 0.895 0.04 0 0.9 0.04 0 0.905 0.04 0 0.91 0.04 0 0.915 0.04 0 0.92 0.04 0 0.925 0.04 0 0.93 0.04 0 0.935 0.04 0 0.94 0.04 0 0.945 0.04 0 0.95 0.04 0 0.955 0.04 0 0.96 0.04 0 0.965 0.04 0 0.97 0.04 0 0.975 0.04 0 0.98 0.04 0 0.985 0.04 0 0.99 0.04 0 0.995 0.04 0 1 0.04 0 0 0.06 0 0.005 0.06 0 0.01 0.06 0 0.015 0.06 0 0.02 0.06 0 0.025 0.06 0 0.03 0.06 0 0.035 0.06 0 0.04 0.06 0 0.045 0.06 0 0.05 0.06 0 0.055 0.06 0 0.06 0.06 0 0.065 0.06 0 0.07 0.06 0 0.075 0.06 0 0.08 0.06 0 0.085 0.06 0 0.09 0.06 0 0.095 0.06 0 0.1 0.06 0 0.105 0.06 0 0.11 0.06 0 0.115 0.06 0 0.12 0.06 0 0.125 0.06 0 0.13 0.06 0 0.135 0.06 0 0.14 0.06 0 0.145 0.06 0 0.15 0.06 0 0.155 0.06 0 0.16 0.06 0 0.165 0.06 0 0.17 0.06 0 0.175 0.06 0 0.18 0.06 0 0.185 0.06 0 0.19 0.06 0 0.195 0.06 0 0.2 0.06 0 0.205 0.06 0 0.21 0.06 0 0.215 0.06 0 0.22 0.06 0 0.225 0.06 0 0.23 0.06 0 0.235 0.06 0 0.24 0.06 0 0.245 0.06 0 0.25 0.06 0 0.255 0.06 0 0.26 0.06 0 0.265 0.06 0 0.27 0.06 0 0.275 0.06 0 0.28 0.06 0 0.285 0.06 0 0.29 0.06 0 0.295 0.06 0 0.3 0.06 0 0.305 0.06 0 0.31 0.06 0 0.315 0.06 0 0.32 0.06 0 0.325 0.06 0 0.33 0.06 0 0.335 0.06 0 0.34 0.06 0 0.345 0.06 0 0.35 0.06 0 0.355 0.06 0 0.36 0.06 0 0.365 0.06 0 0.37 0.06 0 0.375 0.06 0 0.380001 0.06 0 0.385006 0.06 0 0.39002 0.06 0 0.39506 0.06 0 0.400158 0.06 0 0.405358 0.06 0 0.410711 0.06 0 0.416267 0.06 0 0.422065 0.06 0 0.428147 0.06 0 0.434551 0.06 0 0.441324 0.06 0 0.448518 0.06 0 0.456197 0.06 0 0.464438 0.06 0 0.473336 0.06 0 0.483004 0.06 0 0.49357 0.06 0 0.505129 0.06 0 0.517531 0.06 0 0.530009 0.06 0 0.542224 0.06 0 0.554224 0.06 0 0.566112 0.06 0 0.577962 0.06 0 0.580245 0.06 0 0.582529 0.06 0 0.584812 0.06 0 0.587095 0.06 0 0.589377 0.06 0 0.59166 0.06 0 0.593945 0.06 0 0.59623 0.06 0 0.598517 0.06 0 0.6008 0.06 0 0.603084 0.06 0 0.605371 0.06 0 0.607656 0.06 0 0.60994 0.06 0 0.612222 0.06 0 0.614503 0.06 0 0.616786 0.06 0 0.619068 0.06 0 0.62135 0.06 0 0.623631 0.06 0 0.62593 0.06 0 0.628254 0.06 0 0.630627 0.06 0 0.633056 0.06 0 0.635604 0.06 0 0.638291 0.06 0 0.641199 0.06 0 0.644372 0.06 0 0.647874 0.06 0 0.65173 0.06 0 0.655939 0.06 0 0.660455 0.06 0 0.665197 0.06 0 0.670078 0.06 0 0.675029 0.06 0 0.680011 0.06 0 0.685004 0.06 0 0.690001 0.06 0 0.695 0.06 0 0.7 0.06 0 0.705 0.06 0 0.71 0.06 0 0.715 0.06 0 0.72 0.06 0 0.725 0.06 0 0.73 0.06 0 0.735 0.06 0 0.74 0.06 0 0.745 0.06 0 0.75 0.06 0 0.755 0.06 0 0.76 0.06 0 0.765 0.06 0 0.77 0.06 0 0.775 0.06 0 0.78 0.06 0 0.785 0.06 0 0.79 0.06 0 0.795 0.06 0 0.8 0.06 0 0.805 0.06 0 0.81 0.06 0 0.815 0.06 0 0.82 0.06 0 0.825 0.06 0 0
[...]
			<PointData Scalars="VitesseX">
				<DataArray Name="VitesseX" type="Float32" format="ascii">
 0 1.11755e-15 5.87067e-16 2.25354e-16 -1.6265e-15 2.91515e-16 -4.9656e-16 4.31038e-17 1.32855e-15 -1.35734e-15 6.23647e-15 -6.28483e-15 6.45446e-17 -6.96079e-16 4.52854e-15 -1.08237e-14 1.06704e-14 -1.14803e-15 -7.8779e-15 2.86209e-15 -9.70517e-16 1.45964e-14 -8.0044e-15 1.37193e-14 -7.57601e-15 2.09186e-14 1.09931e-14 -5.73531e-15 2.28858e-14 -1.1225e-15 1.32945e-14 -9.37752e-15 -1.69593e-14 1.4273e-15 1.29791e-14 2.01718e-14 1.08048e-15 -2.68672e-14 1.78815e-14 7.1118e-16 -1.36091e-14 1.67913e-14 -2.83297e-15 4.6356e-15 -3.79382e-14 3.49497e-14 2.32245e-14 7.97226e-15 -9.56178e-15 -1.16801e-14 1.36842e-14 4.7622e-14 2.88014e-15 1.18786e-15 8.70857e-15 -7.09021e-15 4.57321e-14 3.72639e-15 1.49028e-15 3.63581e-14 -4.24122e-14 5.43669e-14 2.47931e-14 -3.39318e-14 5.67237e-14 2.17217e-13 1.96094e-12 2.04846e-11 1.95086e-10 1.71288e-09 1.3815e-08 1.01878e-07 6.8328e-07 4.14164e-06 2.25184e-05 0.000108826 0.000462287 0.00170311 0.00536149 0.0142369 0.0317333 0.0599354 0.0982836 0.14451 0.196467 0.252945 0.313515 0.378186 0.447193 0.520896 0.5997 0.68391 0.7733 0.865636 0.951144 0.992448 0.969804 0.951683 0.940497 0.936182 0.934157 0.933722 0.933322 0.93302 0.932829 0.932809 0.933631 0.935085 0.934541 0.934292 0.933717 0.933083 0.932313 0.931472 0.930687 0.929532 0.928835 0.927881 0.927737 0.929531 0.927335 0.927335 0.9058 0.90287 0.850605 0.829207 0.743288 0.673308 0.560016 0.444056 0.319458 0.205957 0.115679 0.056103 0.0239529 0.00938482 0.0034999 0.00126754 0.00044941 0.000156349 5.33734e-05 1.78661e-05 5.85921e-06 1.88112e-06 5.90849e-07 1.81463e-07 5.44716e-08 1.59767e-08 4.57748e-09 1.28095e-09 3.50089e-10 9.33518e-11 2.44315e-11 6.24351e-12 1.54643e-12 3.921e-13 1.26988e-13 5.57174e-14 -1.09595e-13 6.70838e-14 -5.81477e-14 8.30007e-14 7.36262e-14 6.05232e-14 -2.35861e-14 8.37565e-14 -9.15633e-14 -4.64559e-14 -1.76778e-15 -5.76583e-15 1.21391e-13 -8.4092e-14 9.68832e-14 -2.93379e-14 -8.52494e-14 8.1032e-14 -1.24142e-13 2.95439e-14 -1.02595e-13 3.8472e-14 -7.92395e-14 4.32369e-14 -1.6967e-14 6.49446e-14 -1.89797e-13 -1.39786e-13 -7.98747e-14 1.80987e-13 -9.56351e-14 -5.21959e-14 1.21415e-14 -1.14596e-13 2.28634e-14 9.21368e-14 -1.61897e-13 -8.62511e-14 -1.98174e-15 -4.9804e-14 4.47251e-14 -1.15766e-13 0 0 1.4342e-16 7.75455e-16 -1.20633e-15 2.92382e-15 -2.2492e-15 -3.49823e-16 3.30066e-15 -4.12833e-16 2.33542e-15 -4.90084e-15 4.25946e-16 -5.98426e-15 1.28413e-14 -4.48936e-15 -3.27979e-15 -2.41151e-15 1.00911e-14 -3.30863e-15 -8.18416e-15 1.03403e-14 7.34936e-15 -2.70762e-15 2.91891e-16 -1.08632e-16 6.76261e-15 1.70068e-14 -8.18199e-15 3.10902e-14 6.95934e-15 1.88405e-15 8.13358e-15 -2.94272e-15 -1.46819e-14 1.32043e-14 -5.0315e-15 1.17349e-14 -9.48524e-15 8.93293e-17 -1.19706e-14 1.9659e-14 8.23779e-15 3.66626e-15 -4.9637e-15 -1.28409e-14 3.89419e-14 -2.59856e-14 4.46253e-15 1.13209e-14 1.87148e-14 -7.49493e-15 1.27237e-14 -1.85799e-14 4.89207e-14 -3.37221e-14 3.49234e-14 1.6321e-14 -8.65557e-15 5.19539e-14 -1.20738e-14 1.13109e-14 1.88695e-14 9.11858e-15 2.3501e-14 7.00942e-14 1.9008e-13 1.9595e-12 2.04791e-11 1.95078e-10 1.71291e-09 1.38149e-08 1.01878e-07 6.8328e-07 4.14164e-06 2.25184e-05 0.000108826 0.000462287 0.00170311 0.00536149 0.0142369 0.0317333 0.0599354 0.0982836 0.14451 0.196467 0.252945 0.313515 0.378186 0.447193 0.520896 0.5997 0.68391 0.7733 0.865636 0.951144 0.992448 0.969804 0.951683 0.940497 0.936182 0.934157 0.933722 0.933322 0.93302 0.932829 0.932809 0.933631 0.935085 0.934541 0.934292 0.933717 0.933083 0.932313 0.931472 0.930687 0.929532 0.928835 0.927881 0.927737 0.929531 0.927335 0.927335 0.9058 0.90287 0.850605 0.829207 0.743288 0.673308 0.560016 0.444056 0.319458 0.205957 0.115679 0.056103 0.0239529 0.00938482 0.0034999 0.00126754 0.00044941 0.000156349 5.33734e-05 1.78661e-05 5.85921e-06 1.88112e-06 5.90849e-07 1.81463e-07 5.44716e-08 1.59767e-08 4.57749e-09 1.28099e-09 3.50058e-10 9.34136e-11 2.43657e-11 6.26018e-12 1.65631e-12 3.8421e-13 1.94702e-13 -8.00623e-14 3.06323e-14 -1.26128e-13 5.80815e-15 1.07308e-13 6.51159e-14 3.59853e-14 -1.34616e-13 4.25881e-14 7.39916e-14 1.83447e-14 -3.67109e-14 1.15461e-13 -2.74373e-14 6.37743e-15 9.01101e-14 -4.59466e-14 -1.10733e-13 -4.58499e-14 5.24766e-14 -2.16201e-14 -1.88686e-14 -1.10471e-13 1.259e-13 -1.81422e-14 3.72172e-14 -6.39859e-14 -1.57844e-13 -5.08032e-14 -1.06792e-13 6.56672e-14 4.29812e-14 -1.39915e-13 -7.33687e-14 5.1548e-14 -9.62072e-14 4.53911e-14 -1.0201e-13 -6.3511e-14 -8.30511e-14 3.39294e-14 -4.46865e-14 -6.00443e-14 0 0 -1.03049e-15 -1.31071e-15 -7.13401e-16 2.55401e-15 1.93889e-15 -2.41184e-15 -1.64576e-15 6.3362e-15 1.29771e-15 -2.40046e-15 4.12413e-15 -3.16904e-15 -1.67472e-15 2.80452e-15 7.64245e-15 -1.09208e-14 -4.24861e-15 1.02604e-14 -4.42883e-15 3.66419e-15 1.36894e-14 5.05297e-16 4.17923e-15 -2.4257e-15 2.96029e-15 1.11982e-14 3.99008e-15 8.17971e-15 3.42896e-14 1.94284e-15 -3.59026e-15 1.21186e-14 -1.55734e-14 1.33319e-14 -6.10358e-15 2.57305e-14 -1.56292e-14 -1.22796e-14 1.28136e-15 2.39714e-14 1.19883e-14 -3.69808e-14 1.63152e-14 2.2011e-14 2.28267e-14 -3.79066e-14 -2.97369e-14 2.6328e-14 6.45088e-15 -8.22274e-15 7.46668e-15 -4.80762e-14 4.73582e-14 1.58651e-14 3.97839e-15 1.2911e-14 3.13617e-15 8.15673e-14 -7.7915e-14 5.50979e-14 -6.21009e-15 7.45232e-14 5.82024e-14 4.92022e-14 1.77736e-13 1.92785e-12 2.04701e-11 1.95109e-10 1.71289e-09 1.38149e-08 1.01878e-07 6.8328e-07 4.14164e-06 2.25184e-05 0.000108826 0.000462287 0.00170311 0.00536149 0.0142369 0.0317333 0.0599354 0.0982836 0.14451 0.196467 0.252945 0.313515 0.378186 0.447193 0.520896 0.5997 0.68391 0.7733 0.865636 0.951144 0.992448 0.969804 0.951683 0.940497 0.936182 0.934157 0.933722 0.933322 0.93302 0.932829 0.932809 0.933631 0.935085 0.934541 0.934292 0.933717 0.933083 0.932313 0.931472 0.930687 0.929532 0.928835 0.927881 0.927737 0.929531 0.927335 0.927335 0.9058 0.90287 0.850605 0.829207 0.743288 0.673308 0.560016 0.444056 0.319458 0.205957 0.115679 0.056103 0.0239529 0.00938482 0.0034999 0.00126754 0.00044941 0.000156349 5.33734e-05 1.78661e-05 5.85921e-06 1.88112e-06 5.90849e-07 1.81463e-07 5.44716e-08 1.59767e-08 4.57755e-09 1.28098e-09 3.50095e-10 9.34571e-11 2.43666e-11 6.12722e-12 1.75195e-12 5.40502e-13 7.9222e-14 4.09845e-14 -9.37463e-14 -6.44518e-14 -9.36436e-14 8.30408e-14 1.77173e-13 -1.00039e-13 -1.25536e-13 1.34306e-13 -1.20279e-13 1.57534e-13 -5.84537e-14 -2.4127e-14 7.87275e-14 6.16154e-14 -1.12945e-15 1.79692e-13 -1.32563e-13 -1.5625e-13 1.70015e-13 -1.35695e-13 1.02789e-13 -1.1483e-13 -5.61038e-15 1.26433e-13 3.17543e-14 -5.67842e-14 1.52538e-15 -1.04785e-13 -9.05391e-14 8.25595e-14 -1.48973e-13 -8.44728e-14 -7.29248e-15 -2.59025e-14 -1.3621e-13 -7.98874e-15 -4.74154e-14 -1.20653e-13 -7.49438e-14 7.46142e-14 -8.36832e-14 -5.67676e-14 0 0 -1.45383e-15 -2.87395e-15 -1.09847e-15 2.18312e-15 1.11989e-15 -1.90204e-15 -4.78815e-15 5.35356e-15 1.56654e-15 -6.11455e-15 4.61823e-15 4.8184e-15 -1.01997e-14 8.06007e-15 9.04718e-15 -7.28917e-15 -1.05731e-14 7.78572e-15 1.33258e-14 -9.27145e-15 1.05075e-14 6.19229e-15 -1.13537e-14 9.02235e-15 3.21891e-14 6.38648e-15 3.49029e-15 -1.32113e-14 4.38805e-14 1.78913e-14 -2.16735e-14 -1.93638e-14 1.97639e-14 8.42998e-15 1.47478e-14 -2.40358e-14 -1.60709e-14 2.29286e-14 5.14094e-14 1.06205e-14 -3.7622e-14 -2.0186e-14 2.19773e-14 3.73954e-14 -2.86469e-15 -9.79092e-15 -2.32083e-14 -1.52685e-14 -2.62544e-14 2.95642e-15 4.8056e-15 3.89289e-15 8.38191e-15 7.29403e-14 -4.85397e-14 -3.06701e-15 7.66779e-14 -2.93947e-14 3.35452e-14 1.11251e-16 -2.44001e-15 1.00319e-13 5.92009e-14 8.93919e-14 2.03433e-13 1.89176e-12 2.04421e-11 1.95082e-10 1.7129e-09 1.38148e-08 1.01878e-07 6.8328e-07 4.14164e-06 2.25184e-05 0.000108826 0.000462287 0.00170311 0.00536149 0.0142369 0.0317333 0.0599354 0.0982836 0.14451 0.196467 0.252945 0.313515 0.378186 0.447193 0.520896 0.5997 0.68391 0.7733 0.865636 0.951144 0.992448 0.969804 0.951683 0.940497 0.936182 0.934157 0.933722 0.933322 0.93302 0.932829 0.932809 0.933631 0.935085 0.934541 0.934292 0.933717 0.933083 0.932313 0.931472 0.930687 0.929532 0.928835 0.927881 0.927737 0.929531 0.927335 0.927335 0.9058 0.90287 0.850605 0.829207 0.743288 0.673308 0.560016 0.444056 0.319458 0.205957 0.115679 0.056103 0.0239529 0.00938482 0.0034999 0.00126754 0.00044941 0.000156349 5.33734e-05 1.78661e-05 5.85921e-06 1.88112e-06 5.90849e-07 1.81463e-07 5.44716e-08 1.59767e-08 4.57762e-09 1.28102e-09 3.50136e-10 9.34177e-11 2.44625e-11 6.16762e-12 1.48014e-12 5.22901e-13 -1.65918e-14 4.95243e-14 8.40421e-15 7.12596e-14 -7.24782e-14 1.93423e-13 5.05243e-14 -9.35855e-14 -6.8957e-14 7.38922e-14 -1.70128e-13 1.39522e-13 1.92497e-14 -7.12561e-14 7.5091e-14 -1.5423e-13 -5.55838e-14 8.22624e-14 1.02645e-13 6.54119e-14 -4.10285e-14 9.82741e-14 -1.06029e-13 4.21063e-14 1.60724e-14 -8.11521e-14 -1.43704e-14 1.24271e-13 -4.69479e-14 1.54277e-14 -7.67509e-14 -4.31469e-14 -1.90518e-13 -1.07e-13 4.363e-14 -1.38548e-13 -9.73846e-14 -4.71731e-14 3.72094e-14 2.9565e-14 -1.43586e-13 8.7078e-14 -1.2436e-13 -9.8756e-14 0 0 -8.7675e-16 -3.46615e-15 -1.47846e-15 -2.95909e-15 -3.79326e-15 3.47306e-15 -5.68794e-15 4.70087e-16 6.24605e-15 -1.53583e-14 4.29368e-15 -1.47206e-16 -1.58907e-16 4.12637e-16 8.19316e-15 -9.47749e-15 6.29446e-15 -1.82531e-15 1.55128e-14 -1.24405e-15 6.21463e-15 8.93548e-15 -2.17109e-14 2.10945e-14 1.64829e-14 -2.41492e-15 1.048e-14 7.86488e-15 1.9861e-14 1.93714e-14 -1.29357e-15 -3.64666e-15 -1.27218e-14 5.94681e-15 -3.44444e-15 -3.58221e-14 -2.78004e-14 5.21319e-14 8.78584e-14 4.21046e-14 -6.65408e-14 1.51137e-14 -3.30317e-14 3.50792e-14 -1.03543e-15 -3.69631e-15 -6.39894e-15 3.33694e-15 -8.19872e-15 -7.71459e-15 -4.08857e-14 9.00527e-15 2.36506e-14 2.90283e-14 3.56111e-14 -2.15527e-14 6.99558e-14 -4.06131e-14 9.49596e-14 -5.97094e-14 9.44769e-14 1.07262e-14 3.04422e-14 1.43655e-13 2.34693e-13 1.83497e-12 2.03926e-11 1.95042e-10 1.71289e-09 1.38149e-08 1.01877e-07 6.8328e-07 4.14164e-06 2.25184e-05 0.000108826 0.000462287 0.00170311 0.00536149 0.0142369 0.0317333 0.0599354 0.0982836 0.14451 0.196467 0.252945 0.313515 0.378186 0.447193 0.520896 0.5997 0.68391 0.7733 0.865636 0.951144 0.992448 0.969804 0.951683 0.940497 0.936182 0.934157 0.933722 0.933322 0.93302 0.932829 0.932809 0.933631 0.935085 0.934541 0.934292 0.933717 0.933083 0.932313 0.931472 0.930687 0.929532 0.928835 0.927881 0.927737 0.929531 0.927335 0.927335 0.9058 0.90287 0.850605 0.829207 0.743288 0.673308 0.560016 0.444056 0.319458 0.205957 0.115679 0.056103 0.0239529 0.00938482 0.0034999 0.00126754 0.00044941 0.000156349 5.33734e-05 1.78661e-05 5.85921e-06 1.88112e-06 5.90849e-07 1.81463e-07 5.44717e-08 1.59767e-08 4.57771e-09 1.281e-09 3.50154e-10 9.34555e-11 2.44026e-11 6.21566e-12 1.4063e-12 5.3714e-13 -1.07153e-14 -5.08083e-14 2.14964e-13 -1.43904e-13 6.22461e-14 2.62335e-13 -1.56118e-13 -9.80302e-14 -1.0866e-13 -1.0591e-13 1.22771e-13 1.80318e-13 6.37547e-14 1.38934e-13 -1.9097e-13 -1.50945e-13 -1.75004e-13 -2.04061e-14 -2.63219e-14 4.19155e-13 -6.72438e-14 7.86748e-15 -5.19673e-14 3.28126e-14 2.4125e-13 -2.59713e-13 -1.54613e-13 3.83155e-14 -4.1749e-14 1.17327e-13 -2.00882e-13 -1.2325e-13 -5.13739e-14 -1.03777e-13 9.64633e-15 -1.10017e-14 6.1055e-14 -1.22144e-13 -1.46702e-13 9.38283e-14 2.50988e-14 4.94007e-14 -1.68455e-13 5.96502e-14 0 0 -7.61107e-17 -4.76967e-15 4.51243e-16 -1.26505e-14 -1.15862e-15 6.12959e-15 -1.16493e-14 5.05966e-15 5.92627e-15 -7.25032e-15 4.62434e-16 -4.23625e-15 -9.64656e-15 3.82143e-15 9.31272e-15 -1.07248e-14 3.90781e-15 3.81415e-17 1.47468e-14 1.73196e-15 1.86908e-14 3.90781e-15 7.79512e-16 1.19342e-14 -1.80985e-14 -1.8227e-14 3.25882e-14 1.92172e-14 5.49906e-15 1.63722e-14 7.93473e-15 4.45975e-14 -6.53271e-14 8.26796e-15 -1.83568e-14 5.49924e-15 -6.26142e-14 5.15502e-14 1.00113e-13 5.7984e-14 -3.35453e-14 -1.35278e-14 -6.28246e-14 2.71333e-14 6.37786e-15 1.15717e-14 -2.68079e-14 5.76634e-14 -9.67008e-17 -9.11342e-15 -5.42748e-14 -4.58878e-14 2.86002e-14 2.00591e-14 9.93214e-14 1.94084e-15 1.38655e-14 3.82801e-14 2.75044e-14 -7.44795e-14 1.98042e-13 -2.35827e-14 -2.20462e-14 1.23466e-13 2.55049e-13 1.78404e-12 2.03678e-11 1.95068e-10 1.71283e-09 1.3815e-08 1.01878e-07 6.8328e-07 4.14164e-06 2.25184e-05 0.000108826 0.000462287 0.00170311 0.00536149 0.0142369 0.0317333 0.0599354 0.0982836 0.14451 0.196467 0.252945 0.313515 0.378186 0.447193 0.520896 0.5997 0.68391 0.7733 0.865636 0.951144 0.992448 0.969804 0.951683 0.940497 0.936182 0.934157 0.933722 0.933322 0.93302 0.932829 0.932809 0.933631 0.935085 0.934541 0.934292 0.933717 0.933083 0.932313 0.931472 0.930687 0.929532 0.928835 0.927881 0.927737 0.929531 0.927335 0.927335 0.9058 0.90287 0.850605 0.829207 0.743288 0.673308 0.560016 0.444056 0.319458 0.205957 0.115679 0.056103 0.0239529 0.00938482 0.0034999 0.00126754 0.00044941 0.000156349 5.33734e-05 1.78661e-05 5.85921e-06 1.88112e-06 5.90849e-07 1.81463e-07 5.44717e-08 1.59767e-08 4.57778e-09 1.28088e-09 3.502e-10 9.35145e-11 2.43135e-11 6.07385e-12 1.58965e-12 7.3284e-13 -9.24142e-14 9.7387e-14 5.46946e-14 -2.40048e-13 1.22792e-14 1.71695e-13 -1.15605e-13 -2.19939e-13 -8.49502e-14 -9.24849e-14 1.06308e-13 3.1378e-13 4.37095e-14 1.35073e-13 -1.98691e-13 3.31094e-14 -3.24503e-13 2.16266e-13 -3.8698e-13 5.67831e-13 5.84489e-14 -3.79601e-13 2.48879e-13 1.12422e-14 1.08066e-13 -2.47555e-14 -3.08324e-13 -9.2367e-14 1.39733e-13 -4.37124e-14 -2.95357e-13 5.49137e-14 -2.01147e-13 6.49677e-14 7.61607e-14 -1.42519e-14 2.59392e-13 -1.65211e-13 -4.20607e-13 -7.15563e-14 3.52005e-13 -4.36531e-14 -1.21491e-13 2.07397e-13 0
				</DataArray>
				<DataArray Name="VitesseY" type="Float32" format="ascii">