<?xml version="1.0"?>
<VTKFile type="PolyData">
	<PolyData>
		<Piece NumberOfPoints="1206" NumberOfPolys="1000">
			<Points>
				<DataArray type="Float32" NumberOfComponents="3" format="ascii">
 0 0 0 0.005 0 0 0.01 0 0 0.015 0 0 0.02 0 0 0.025 0 0 0.03 0 0 0.035 0 0 0.04 0 0 0.045 0 0 0.05 0 0 0.055 0 0 0.06 0 0 0.065 0 0 0.07 0 0 0.075 0 0 0.08 0 0 0.085 0 0 0.09 0 0 0.095 0 0 0.1 0 0 0.105 0 0 0.11 0 0 0.115 0 0 0.12 0 0 0.125 0 0 0.13 0 0 0.135 0 0 0.14 0 0 0.145 0 0 0.15 0 0 0.155 0 0 0.16 0 0 0.165 0 0 0.17 0 0 0.175 0 0 0.18 0 0 0.185 0 0 0.19 0 0 0.195 0 0 0.2 0 0 0.205 0 0 0.21 0 0 0.215 0 0 0.22 0 0 0.225 0 0 0.23 0 0 0.235 0 0 0.24 0 0 0.245 0 0 0.25 0 0 0.255 0 0 0.26 0 0 0.265 0 0 0.27 0 0 0.275 0 0 0.28 0 0 0.285 0 0 0.290001 0 0 0.295004 0 0 0.300011 0 0 0.305028 0 0 0.310065 0 0 0.315139 0 0 0.32027 0 0 0.325477 0 0 0.33078 0 0 0.336194 0 0 0.341732 0 0 0.347406 0 0 0.353225 0 0 0.3592 0 0 0.365341 0 0 0.371662 0 0 0.378173 0 0 0.384889 0 0 0.391825 0 0 0.398998 0 0 0.406427 0 0 0.414132 0 0 0.422138 0 0 0.430469 0 0 0.439157 0 0 0.448234 0 0 0.457738 0 0 0.467709 0 0 0.478189 0 0 0.489213 0 0 0.500789 0 0 0.512825 0 0 0.524995 0 0 0.537059 0 0 0.549014 0 0 0.560874 0 0 0.572672 0 0 0.584438 0 0 0.596189 0 0 0.607933 0 0 0.619674 0 0 0.631416 0 0 0.643171 0 0 0.645783 0 0 0.648321 0 0 0.650813 0 0 0.653273 0 0 0.655712 0 0 0.658134 0 0 0.660543 0 0 0.662944 0 0 0.665339 0 0 0.667729 0 0 0.670115 0 0 0.672497 0 0 0.674875 0 0 0.67725 0 0 0.679621 0 0 0.68199 0 0 0.684357 0 0 0.686721 0 0 0.689084 0 0 0.691446 0 0 0.693806 0 0 0.696166 0 0 0.698525 0 0 0.700883 0 0 0.703241 0 0 0.705598 0 0 0.707955 0 0 0.710312 0 0 0.712668 0 0 0.715025 0 0 0.717381 0 0 0.719737 0 0 0.722093 0 0 0.724449 0 0 0.726805 0 0 0.729161 0 0 0.731517 0 0 0.733873 0 0 0.736229 0 0 0.738587 0 0 0.740944 0 0 0.743304 0 0 0.745666 0 0 0.748034 0 0 0.750407 0 0 0.752795 0 0 0.755198 0 0 0.757638 0 0 0.760113 0 0 0.762667 0 0 0.765291 0 0 0.768072 0 0 0.771022 0 0 0.774242 0 0 0.777768 0 0 0.78165 0 0 0.785882 0 0 0.790418 0 0 0.795178 0 0 0.80007 0 0 0.805026 0 0 0.81001 0 0 0.815003 0 0 0.820001 0 0 0.825 0 0 0.83 0 0 0.835 0 0 0.84 0 0 0.845 0 0 0.85 0 0 0.855 0 0 0.86 0 0 0.865 0 0 0.87 0 0 0.875 0 0 0.88 0 0 0.885 0 0 0.89 0 0 0.895 0 0 0.9 0 0 0.905 0 0 0.91 0 0 0.915 0 0 0.92 0 0 0.925 0 0 0.93 0 0 0.935 0 0 0.94 0 0 0.945 0 0 0.95 0 0 0.955 0 0 0.96 0 0 0.965 0 0 0.97 0 0 0.975 0 0 0.98 0 0 0.985 0 0 0.99 0 0 0.995 0 0 1 0 0 0 0.02 0 0.005 0.02 0 0.01 0.02 0 0.015 0.02 0 0.02 0.02 0 0.025 0.02 0 0.03 0.02 0 0.035 0.02 0 0.04 0.02 0 0.045 0.02 0 0.05 0.02 0 0.055 0.02 0 0.06 0.02 0 0.065 0.02 0 0.07 0.02 0 0.075 0.02 0 0.08 0.02 0 0.085 0.02 0 0.09 0.02 0 0.095 0.02 0 0.1 0.02 0 0.105 0.02 0 0.11 0.02 0 0.115 0.02 0 0.12 0.02 0 0.125 0.02 0 0.13 0.02 0 0.135 0.02 0 0.14 0.02 0 0.145 0.02 0 0.15 0.02 0 0.155 0.02 0 0.16 0.02 0 0.165 0.02 0 0.17 0.02 0 0.175 0.02 0 0.18 0.02 0 0.185 0.02 0 0.19 0.02 0 0.195 0.02 0 0.2 0.02 0 0.205 0.02 0 0.21 0.02 0 0.215 0.02 0 0.22 0.02 0 0.225 0.02 0 0.23 0.02 0 0.235 0.02 0 0.24 0.02 0 0.245 0.02 0 0.25 0.02 0 0.255 0.02 0 0.26 0.02 0 0.265 0.02 0 0.27 0.02 0 0.275 0.02 0 0.28 0.02 0 0.285 0.02 0 0.290001 0.02 0 0.295004 0.02 0 0.300011 0.02 0 0.305028 0.02 0 0.310065 0.02 0 0.315139 0.02 0 0.32027 0.02 0 0.325477 0.02 0 0.33078 0.02 0 0.336194 0.02 0 0.341732 0.02 0 0.347406 0.02 0 0.353225 0.02 0 0.3592 0.02 0 0.365341 0.02 0 0.371662 0.02 0 0.378173 0.02 0 0.384889 0.02 0 0.391825 0.02 0 0.398998 0.02 0 0.406427 0.02 0 0.414132 0.02 0 0.422138 0.02 0 0.430469 0.02 0 0.439157 0.02 0 0.448234 0.02 0 0.457738 0.02 0 0.467709 0.02 0 0.478189 0.02 0 0.489213 0.02 0 0.500789 0.02 0 0.512825 0.02 0 0.524995 0.02 0 0.537059 0.02 0 0.549014 0.02 0 0.560874 0.02 0 0.572672 0.02 0 0.584438 0.02 0 0.596189 0.02 0 0.607933 0.02 0 0.619674 0.02 0 0.631416 0.02 0 0.643171 0.02 0 0.645783 0.02 0 0.648321 0.02 0 0.650813 0.02 0 0.653273 0.02 0 0.655712 0.02 0 0.658134 0.02 0 0.660543 0.02 0 0.662944 0.02 0 0.665339 0.02 0 0.667729 0.02 0 0.670115 0.02 0 0.672497 0.02 0 0.674875 0.02 0 0.67725 0.02 0 0.679621 0.02 0 0.68199 0.02 0 0.684357 0.02 0 0.686721 0.02 0 0.689084 0.02 0 0.691446 0.02 0 0.693806 0.02 0 0.696166 0.02 0 0.698525 0.02 0 0.700883 0.02 0 0.703241 0.02 0 0.705598 0.02 0 0.707955 0.02 0 0.710312 0.02 0 0.712668 0.02 0 0.715025 0.02 0 0.717381 0.02 0 0.719737 0.02 0 0.722093 0.02 0 0.724449 0.02 0 0.726805 0.02 0 0.729161 0.02 0 0.731517 0.02 0 0.733873 0.02 0 0.736229 0.02 0 0.738587 0.02 0 0.740944 0.02 0 0.743304 0.02 0 0.745666 0.02 0 0.748034 0.02 0 0.750407 0.02 0 0.752795 0.02 0 0.755198 0.02 0 0.757638 0.02 0 0.760113 0.02 0 0.762667 0.02 0 0.765291 0.02 0 0.768072 0.02 0 0.771022 0.02 0 0.774242 0.02 0 0.777768 0.02 0 0.78165 0.02 0 0.785882 0.02 0 0.790418 0.02 0 0.795178 0.02 0 0.80007 0.02 0 0.805026 0.02 0 0.81001 0.02 0 0.815003 0.02 0 0.820001 0.02 0 0.825 0.02 0 0.83 0.02 0 0.835 0.02 0 0.84 0.02 0 0.845 0.02 0 0.85 0.02 0 0.855 0.02 0 0.86 0.02 0 0.865 0.02 0 0.87 0.02 0 0.875 0.02 0 0.88 0.02 0 0.885 0.02 0 0.89 0.02 0 0.895 0.02 0 0.9 0.02 0 0.905 0.02 0 0.91 0.02 0 0.915 0.02 0 0.92 0.02 0 0.925 0.02 0 0.93 0.02 0 0.935 0.02 0 0.94 0.02 0 0.945 0.02 0 0.95 0.02 0 0.955 0.02 0 0.96 0.02 0 0.965 0.02 0 0.97 0.02 0 0.975 0.02 0 0.98 0.02 0 0.985 0.02 0 0.99 0.02 0 0.995 0.02 0 1 0.02 0 0 0.04 0 0.005 0.04 0 0.01 0.04 0 0.015 0.04 0 0.02 0.04 0 0.025 0.04 0 0.03 0.04 0 0.035 0.04 0 0.04 0.04 0 0.045 0.04 0 0.05 0.04 0 0.055 0.04 0 0.06 0.04 0 0.065 0.04 0 0.07 0.04 0 0.075 0.04 0 0.08 0.04 0 0.085 0.04 0 0.09 0.04 0 0.095 0.04 0 0.1 0.04 0 0.105 0.04 0 0.11 0.04 0 0.115 0.04 0 0.12 0.04 0 0.125 0.04 0 0.13 0.04 0 0.135 0.04 0 0.14 0.04 0 0.145 0.04 0 0.15 0.04 0 0.155 0.04 0 0.16 0.04 0 0.165 0.04 0 0.17 0.04 0 0.175 0.04 0 0.18 0.04 0 0.185 0.04 0 0.19 0.04 0 0.195 0.04 0 0.2 0.04 0 0.205 0.04 0 0.21 0.04 0 0.215 0.04 0 0.22 0.04 0 0.225 0.04 0 0.23 0.04 0 0.235 0.04 0 0.24 0.04 0 0.245 0.04 0 0.25 0.04 0 0.255 0.04 0 0.26 0.04 0 0.265 0.04 0 0.27 0.04 0 0.275 0.04 0 0.28 0.04 0 0.285 0.04 0 0.290001 0.04 0 0.295004 0.04 0 0.300011 0.04 0 0.305028 0.04 0 0.310065 0.04 0 0.315139 0.04 0 0.32027 0.04 0 0.325477 0.04 0 0.33078 0.04 0 0.336194 0.04 0 0.341732 0.04 0 0.347406 0.04 0 0.353225 0.04 0 0.3592 0.04 0 0.365341 0.04 0 0.371662 0.04 0 0.378173 0.04 0 0.384889 0.04 0 0.391825 0.04 0 0.398998 0.04 0 0.406427 0.04 0 0.414132 0.04 0 0.422138 0.04 0 0.430469 0.04 0 0.439157 0.04 0 0.448234 0.04 0 0.457738 0.04 0 0.467709 0.04 0 0.478189 0.04 0 0.489213 0.04 0 0.500789 0.04 0 0.512825 0.04 0 0.524995 0.04 0 0.537059 0.04 0 0.549014 0.04 0 0.560874 0.04 0 0.572672 0.04 0 0.584438 0.04 0 0.596189 0.04 0 0.607933 0.04 0 0.619674 0.04 0 0.631416 0.04 0 0.643171 0.04 0 0.645783 0.04 0 0.648321 0.04 0 0.650813 0.04 0 0.653273 0.04 0 0.655712 0.04 0 0.658134 0.04 0 0.660543 0.04 0 0.662944 0.04 0 0.665339 0.04 0 0.667729 0.04 0 0.670115 0.04 0 0.672497 0.04 0 0.674875 0.04 0 0.67725 0.04 0 0.679621 0.04 0 0.68199 0.04 0 0.684357 0.04 0 0.686721 0.04 0 0.689084 0.04 0 0.691446 0.04 0 0.693806 0.04 0 0.696166 0.04 0 0.698525 0.04 0 0.700883 0.04 0 0.703241 0.04 0 0.705598 0.04 0 0.707955 0.04 0 0.710312 0.04 0 0.712668 0.04 0 0.715025 0.04 0 0.717381 0.04 0 0.719737 0.04 0 0.722093 0.04 0 0.724449 0.04 0 0.726805 0.04 0 0.729161 0.04 0 0.731517 0.04 0 0.733873 0.04 0 0.736229 0.04 0 0.738587 0.04 0 0.740944 0.04 0 0.743304 0.04 0 0.745666 0.04 0 0.748034 0.04 0 0.750407 0.04 0 0.752795 0.04 0 0.755198 0.04 0 0.757638 0.04 0 0.760113 0.04 0 0.762667 0.04 0 0.765291 0.04 0 0.768072 0.04 0 0.771022 0.04 0 0.774242 0.04 0 0.777768 0.04 0 0.78165 0.04 0 0.785882 0.04 0 0.790418 0.04 0 0.795178 0.04 0 0.80007 0.04 0 0.805026 0.04 0 0.81001 0.04 0 0.815003 0.04 0 0.820001 0.04 0 0.825 0.04 0 0.83 0.04 0 0.835 0.04 0 0.84 0.04 0 0.845 0.04 0 0.85 0.04 0 0.855 0.04 0 0.86 0.04 0 0.865 0.04 0 0.87 0.04 0 0.875 0.04 0 0.88 0.04 0 0.885 0.04 0 0.89 0.04 0 0.895 0.04 0 0.9 0.04 0 0.905 0.04 0 0.91 0.04 0 0.915 0.04 0 0.92 0.04 0 0.925 0.04 0 0.93 0.04 0 0.935 0.04 0 0.94 0.04 0 0.945 0.04 0 0.95 0.04 0 0.955 0.04 0 0.96 0.04 0 0.965 0.04 0 0.97 0.04 0 0.975 0.04 0 0.98 0.04 0 0.985 0.04 0 0.99 0.04 0 0.995 0.04 0 1 0.04 0 0 0.06 0 0.005 0.06 0 0.01 0.06 0 0.015 0.06 0 0.02 0.06 0 0.025 0.06 0 0.03 0.06 0 0.035 0.06 0 0.04 0.06 0 0.045 0.06 0 0.05 0.06 0 0.055 0.06 0 0.06 0.06 0 0.065 0.06 0 0.07 0.06 0 0.075 0.06 0 0.08 0.06 0 0.085 0.06 0 0.09 0.06 0 0.095 0.06 0 0.1 0.06 0 0.105 0.06 0 0.11 0.06 0 0.115 0.06 0 0.12 0.06 0 0.125 0.06 0 0.13 0.06 0 0.135 0.06 0 0.14 0.06 0 0.145 0.06 0 0.15 0.06 0 0.155 0.06 0 0.16 0.06 0 0.165 0.06 0 0.17 0.06 0 0.175 0.06 0 0.18 0.06 0 0.185 0.06 0 0.19 0.06 0 0.195 0.06 0 0.2 0.06 0 0.205 0.06 0 0.21 0.06 0 0.215 0.06 0 0.22 0.06 0 0.225 0.06 0 0.23 0.06 0 0.235 0.06 0 0.24 0.06 0 0.245 0.06 0 0.25 0.06 0 0.255 0.06 0 0.26 0.06 0 0.265 0.06 0 0.27 0.06 0 0.275 0.06 0 0.28 0.06 0 0.285 0.06 0 0.290001 0.06 0 0.295004 0.06 0 0.300011 0.06 0 0.305028 0.06 0 0.310065 0.06 0 0.315139 0.06 0 0.32027 0.06 0 0.325477 0.06 0 0.33078 0.06 0 0.336194 0.06 0 0.341732 0.06 0 0.347406 0.06 0 0.353225 0.06 0 0.3592 0.06 0 0.365341 0.06 0 0.371662 0.06 0 0.378173 0.06 0 0.384889 0.06 0 0.391825 0.06 0 0.398998 0.06 0 0.406427 0.06 0 0.414132 0.06 0 0.422138 0.06 0 0.430469 0.06 0 0.439157 0.06 0 0.448234 0.06 0 0.457738 0.06 0 0.467709 0.06 0 0.478189 0.06 0 0.489213 0.06 0 0.500789 0.06 0 0.512825 0.06 0 0.524995 0.06 0 0.537059 0.06 0 0.549014 0.06 0 0.560874 0.06 0 0.572672 0.06 0 0.584438 0.06 0 0.596189 0.06 0 0.607933 0.06 0 0.619674 0.06 0 0.631416 0.06 0 0.643171 0.06 0 0.645783 0.06 0 0.648321 0.06 0 0.650813 0.06 0 0.653273 0.06 0 0.655712 0.06 0 0.658134 0.06 0 0.660543 0.06 0 0.662944 0.06 0 0.665339 0.06 0 0.667729 0.06 0 0.670115 0.06 0 0.672497 0.06 0 0.674875 0.06 0 0.67725 0.06 0 0.679621 0.06 0 0.68199 0.06 0 0.684357 0.06 0 0.686721 0.06 0 0.689084 0.06 0 0.691446 0.06 0 0.693806 0.06 0 0.696166 0.06 0 0.698525 0.06 0 0.700883 0.06 0 0.703241 0.06 0
[...]
			<PointData Scalars="VitesseX">
				<DataArray Name="VitesseX" type="Float32" format="ascii">
 0 -1.76586e-15 -4.08791e-15 -4.45546e-15 -9.31689e-15 -8.7883e-15 -8.97308e-15 -1.57916e-14 -5.90957e-15 -5.65643e-15 -1.56103e-14 -6.05089e-15 -4.65893e-15 -1.20982e-14 -1.43573e-14 -7.74201e-15 -1.83907e-14 -1.35752e-14 -4.67521e-15 -1.36203e-14 -3.1182e-14 -1.84767e-14 -2.42438e-14 -3.90651e-14 -4.04585e-14 -3.35172e-14 -2.85607e-14 -3.87764e-14 -3.25191e-14 -4.81365e-14 -3.69165e-14 -3.87095e-14 -3.71638e-14 -6.0755e-14 -7.32142e-14 -1.98536e-14 -2.04889e-14 -2.91545e-14 -2.51971e-14 -4.13152e-14 -1.68025e-14 -3.3535e-14 -1.6234e-14 3.50392e-15 7.5225e-14 2.50384e-13 2.15213e-12 1.43237e-11 9.16544e-11 5.54178e-10 3.16603e-09 1.70424e-08 8.62103e-08 4.08597e-07 1.80828e-06 7.44332e-06 2.83673e-05 9.95597e-05 0.000319746 0.00093282 0.0024524 0.0057664 0.0120653 0.0224648 0.0374824 0.0568062 0.0795717 0.104848 0.131942 0.160445 0.190148 0.22096 0.252852 0.285831 0.319925 0.355178 0.391646 0.429394 0.468499 0.509042 0.551114 0.594803 0.640193 0.687343 0.736244 0.786732 0.838243 0.889173 0.934961 0.962846 0.956939 0.947971 0.939464 0.933675 0.930478 0.928956 0.92821 0.927777 0.927506 0.92733 0.927202 0.92718 0.927158 0.927138 0.927117 0.927098 0.927078 0.927059 0.92704 0.927021 0.927003 0.926984 0.926966 0.926948 0.92693 0.926911 0.926892 0.926873 0.926853 0.926833 0.926812 0.926791 0.926768 0.926745 0.926721 0.926695 0.92667 0.92664 0.926614 0.926578 0.926552 0.926507 0.926482 0.926417 0.926397 0.926293 0.926283 0.92609 0.926092 0.925684 0.925706 0.924702 0.924784 0.92207 0.922335 0.914859 0.91568 0.896473 0.898931 0.855981 0.862244 0.780088 0.765725 0.650985 0.56969 0.440219 0.318086 0.201433 0.110577 0.0520209 0.0215991 0.00831333 0.00308592 0.00112784 0.000409336 0.000147976 5.33244e-05 1.91534e-05 6.85435e-06 2.44255e-06 8.66161e-07 3.05456e-07 1.07054e-07 3.72633e-08 1.28738e-08 4.4118e-09 1.49893e-09 5.04524e-10 1.68135e-10 5.5455e-11 1.80726e-11 5.82219e-12 1.87683e-12 5.52874e-13 1.81957e-13 -7.64315e-14 7.8061e-14 8.06368e-14 6.88903e-14 9.39038e-14 -2.50908e-14 -3.69733e-14 1.07431e-13 5.45382e-14 3.9287e-14 -5.82122e-14 -2.60649e-14 -1.14944e-13 5.90903e-14 1.11492e-13 0 0 -1.54079e-15 -4.28258e-15 -5.26993e-15 -8.73753e-15 -5.64803e-15 -7.02748e-15 -7.61072e-15 -7.05112e-15 -5.90538e-15 -1.28419e-14 -8.36062e-15 -2.28658e-15 -1.0939e-14 -1.65809e-14 -9.3432e-15 -1.36671e-14 -1.32951e-14 -1.00924e-14 -2.18866e-14 -1.19844e-14 -2.41507e-14 -3.84846e-14 -3.0519e-14 -3.44446e-14 -4.11535e-14 -2.79153e-14 -3.86669e-14 -3.61756e-14 -4.01339e-14 -4.06195e-14 -3.96031e-14 -4.96708e-14 -4.10894e-14 -5.13246e-14 -4.13484e-14 -3.05879e-14 -2.3764e-14 -1.91265e-14 -2.09941e-14 -3.11237e-14 -2.24678e-14 -1.7442e-14 -2.02002e-14 7.93315e-14 3.03998e-13 2.1316e-12 1.43738e-11 9.16691e-11 5.54181e-10 3.16603e-09 1.70424e-08 8.62103e-08 4.08597e-07 1.80828e-06 7.44332e-06 2.83673e-05 9.95597e-05 0.000319746 0.00093282 0.0024524 0.0057664 0.0120653 0.0224648 0.0374824 0.0568062 0.0795717 0.104848 0.131942 0.160445 0.190148 0.22096 0.252852 0.285831 0.319925 0.355178 0.391646 0.429394 0.468499 0.509042 0.551114 0.594803 0.640193 0.687343 0.736244 0.786732 0.838243 0.889173 0.934961 0.962846 0.956939 0.947971 0.939464 0.933675 0.930478 0.928956 0.92821 0.927777 0.927506 0.92733 0.927202 0.92718 0.927158 0.927138 0.927117 0.927098 0.927078 0.927059 0.92704 0.927021 0.927003 0.926984 0.926966 0.926948 0.92693 0.926911 0.926892 0.926873 0.926853 0.926833 0.926812 0.926791 0.926768 0.926745 0.926721 0.926695 0.92667 0.92664 0.926614 0.926578 0.926552 0.926507 0.926482 0.926417 0.926397 0.926293 0.926283 0.92609 0.926092 0.925684 0.925706 0.924702 0.924784 0.92207 0.922335 0.914859 0.91568 0.896473 0.898931 0.855981 0.862244 0.780088 0.765725 0.650985 0.56969 0.440219 0.318086 0.201433 0.110577 0.0520209 0.0215991 0.00831333 0.00308592 0.00112784 0.000409336 0.000147976 5.33244e-05 1.91534e-05 6.85435e-06 2.44255e-06 8.66161e-07 3.05456e-07 1.07054e-07 3.72632e-08 1.28738e-08 4.41177e-09 1.49891e-09 5.04519e-10 1.68132e-10 5.5454e-11 1.80458e-11 5.84697e-12 1.72105e-12 4.94577e-13 8.71573e-14 3.9283e-14 1.06823e-13 5.8697e-14 -5.50213e-14 7.84744e-14 2.53703e-14 9.03952e-14 3.0935e-14 6.81676e-14 8.38918e-16 -1.0135e-14 -5.74286e-14 -3.60486e-14 1.35948e-14 2.34101e-14 0 0 -1.1926e-15 -3.57929e-15 -6.07925e-15 -6.19966e-15 -6.45465e-15 -5.55535e-15 -5.75516e-15 -2.28609e-15 -6.90393e-15 -6.03141e-15 -1.13231e-14 -8.09091e-15 -1.1389e-14 -1.6536e-14 -1.3231e-14 -1.26929e-14 -1.17221e-14 -1.86153e-14 -1.89183e-14 -1.35532e-14 -3.20836e-14 -4.42418e-14 -2.64663e-14 -3.38076e-14 -4.21692e-14 -3.47177e-14 -3.33014e-14 -4.3318e-14 -4.02236e-14 -4.20289e-14 -3.66315e-14 -6.31081e-14 -1.4335e-14 -2.89511e-14 -3.05199e-14 -3.32479e-14 -3.72371e-14 -5.74213e-15 -2.34152e-14 1.24865e-15 -2.88058e-14 -6.44231e-15 4.59017e-15 5.95275e-14 3.47782e-13 2.16449e-12 1.44005e-11 9.17189e-11 5.54172e-10 3.16602e-09 1.70424e-08 8.62103e-08 4.08597e-07 1.80828e-06 7.44332e-06 2.83673e-05 9.95597e-05 0.000319746 0.00093282 0.0024524 0.0057664 0.0120653 0.0224648 0.0374824 0.0568062 0.0795717 0.104848 0.131942 0.160445 0.190148 0.22096 0.252852 0.285831 0.319925 0.355178 0.391646 0.429394 0.468499 0.509042 0.551114 0.594803 0.640193 0.687343 0.736244 0.786732 0.838243 0.889173 0.934961 0.962846 0.956939 0.947971 0.939464 0.933675 0.930478 0.928956 0.92821 0.927777 0.927506 0.92733 0.927202 0.92718 0.927158 0.927138 0.927117 0.927098 0.927078 0.927059 0.92704 0.927021 0.927003 0.926984 0.926966 0.926948 0.92693 0.926911 0.926892 0.926873 0.926853 0.926833 0.926812 0.926791 0.926768 0.926745 0.926721 0.926695 0.92667 0.92664 0.926614 0.926578 0.926552 0.926507 0.926482 0.926417 0.926397 0.926293 0.926283 0.92609 0.926092 0.925684 0.925706 0.924702 0.924784 0.92207 0.922335 0.914859 0.91568 0.896473 0.898931 0.855981 0.862244 0.780088 0.765725 0.650985 0.56969 0.440219 0.318086 0.201433 0.110577 0.0520209 0.0215991 0.00831333 0.00308592 0.00112784 0.000409336 0.000147976 5.33244e-05 1.91534e-05 6.85435e-06 2.44255e-06 8.66161e-07 3.05456e-07 1.07054e-07 3.72632e-08 1.28738e-08 4.41178e-09 1.49889e-09 5.04391e-10 1.681e-10 5.54251e-11 1.80359e-11 5.74756e-12 1.79426e-12 4.3103e-13 -2.84445e-15 -5.51147e-14 5.53822e-14 -5.78256e-14 9.0431e-14 1.92516e-14 -1.78223e-14 8.61815e-14 -6.27593e-14 1.01202e-13 7.22956e-14 -8.20493e-14 9.75377e-15 1.26678e-14 3.61974e-14 -2.13453e-14 0 0 -1.05942e-15 -5.38545e-16 -3.36835e-15 -4.00972e-15 -4.89609e-15 -5.12323e-15 -6.8263e-15 -7.6857e-15 -4.17391e-15 7.85858e-15 -1.40104e-14 -7.02272e-15 -7.17238e-15 -1.69257e-14 -1.85328e-14 -1.86024e-14 -2.34975e-14 -1.61404e-14 -1.02484e-14 -3.16322e-14 -4.02352e-14 -2.18772e-14 -3.2049e-14 -5.29331e-14 -3.37383e-14 -2.36803e-14 -6.36836e-14 -3.50139e-14 -7.15513e-14 -2.58424e-14 -6.29524e-15 -4.75373e-14 -1.56081e-14 -2.60843e-14 -1.29642e-14 -1.03862e-14 -2.98447e-14 -2.08235e-14 -6.91815e-14 2.38289e-14 1.15897e-15 -1.09805e-14 2.70508e-14 5.07184e-14 4.36257e-13 2.1959e-12 1.44507e-11 9.16964e-11 5.54208e-10 3.16601e-09 1.70425e-08 8.62103e-08 4.08597e-07 1.80828e-06 7.44332e-06 2.83673e-05 9.95597e-05 0.000319746 0.00093282 0.0024524 0.0057664 0.0120653 0.0224648 0.0374824 0.0568062 0.0795717 0.104848 0.131942 0.160445 0.190148 0.22096 0.252852 0.285831 0.319925 0.355178 0.391646 0.429394 0.468499 0.509042 0.551114 0.594803 0.640193 0.687343 0.736244 0.786732 0.838243 0.889173 0.934961 0.962846 0.956939 0.947971 0.939464 0.933675 0.930478 0.928956 0.92821 0.927777 0.927506 0.92733 0.927202 0.92718 0.927158 0.927138 0.927117 0.927098 0.927078 0.927059 0.92704 0.927021 0.927003 0.926984 0.926966 0.926948 0.92693 0.926911 0.926892 0.926873 0.926853 0.926833 0.926812 0.926791 0.926768 0.926745 0.926721 0.926695 0.92667 0.92664 0.926614 0.926578 0.926552 0.926507 0.926482 0.926417 0.926397 0.926293 0.926283 0.92609 0.926092 0.925684 0.925706 0.924702 0.924784 0.92207 0.922335 0.914859 0.91568 0.896473 0.898931 0.855981 0.862244 0.780088 0.765725 0.650985 0.56969 0.440219 0.318086 0.201433 0.110577 0.0520209 0.0215991 0.00831333 0.00308592 0.00112784 0.000409336 0.000147976 5.33244e-05 1.91534e-05 6.85435e-06 2.44255e-06 8.66161e-07 3.05456e-07 1.07054e-07 3.72632e-08 1.28736e-08 4.41184e-09 1.49881e-09 5.04308e-10 1.68087e-10 5.54833e-11 1.78534e-11 5.71799e-12 1.65821e-12 4.53476e-13 4.89646e-14 -9.92641e-14 -4.73644e-14 -1.89389e-14 -6.86348e-14 -6.58838e-14 1.17296e-13 2.6268e-14 -2.12153e-14 2.68812e-14 4.43911e-14 -1.99245e-14 1.58924e-16 4.95422e-16 9.64182e-14 5.56856e-15 0 0 1.04364e-15 7.01404e-16 2.8464e-15 2.85287e-15 7.02906e-15 -9.30585e-16 2.5746e-16 -6.57521e-15 -7.2345e-15 -9.24209e-16 -4.82282e-15 -6.64877e-15 -1.14811e-15 -6.88125e-15 -5.71917e-15 -2.25383e-14 -4.38538e-14 -1.69505e-14 -7.59279e-15 -3.91426e-14 -3.04839e-14 -2.76265e-14 -4.06591e-14 -4.10924e-14 -3.80576e-14 -2.97969e-14 -5.09937e-14 -5.25505e-14 -6.50685e-14 -2.17202e-14 -4.59584e-15 -1.59537e-14 1.2903e-15 -2.56562e-14 -7.6373e-15 -2.00086e-14 -7.35428e-15 -5.48097e-14 -5.26886e-14 -4.48682e-15 -8.85556e-15 -2.39942e-14 3.6487e-14 4.83496e-14 5.10885e-13 2.24982e-12 1.45126e-11 9.16897e-11 5.5424e-10 3.16603e-09 1.70425e-08 8.62102e-08 4.08597e-07 1.80828e-06 7.44332e-06 2.83673e-05 9.95597e-05 0.000319746 0.00093282 0.0024524 0.0057664 0.0120653 0.0224648 0.0374824 0.0568062 0.0795717 0.104848 0.131942 0.160445 0.190148 0.22096 0.252852 0.285831 0.319925 0.355178 0.391646 0.429394 0.468499 0.509042 0.551114 0.594803 0.640193 0.687343 0.736244 0.786732 0.838243 0.889173 0.934961 0.962846 0.956939 0.947971 0.939464 0.933675 0.930478 0.928956 0.92821 0.927777 0.927506 0.92733 0.927202 0.92718 0.927158 0.927138 0.927117 0.927098 0.927078 0.927059 0.92704 0.927021 0.927003 0.926984 0.926966 0.926948 0.92693 0.926911 0.926892 0.926873 0.926853 0.926833 0.926812 0.926791 0.926768 0.926745 0.926721 0.926695 0.92667 0.92664 0.926614 0.926578 0.926552 0.926507 0.926482 0.926417 0.926397 0.926293 0.926283 0.92609 0.926092 0.925684 0.925706 0.924702 0.924784 0.92207 0.922335 0.914859 0.91568 0.896473 0.898931 0.855981 0.862244 0.780088 0.765725 0.650985 0.56969 0.440219 0.318086 0.201433 0.110577 0.0520209 0.0215991 0.00831333 0.00308592 0.00112784 0.000409336 0.000147976 5.33244e-05 1.91534e-05 6.85435e-06 2.44255e-06 8.66161e-07 3.05456e-07 1.07054e-07 3.72632e-08 1.28736e-08 4.41184e-09 1.49872e-09 5.04484e-10 1.67959e-10 5.54975e-11 1.77076e-11 5.68059e-12 1.46642e-12 3.68037e-13 1.05213e-13 3.57004e-14 -2.28259e-14 -1.19331e-14 -9.5827e-14 -9.00953e-14 1.6986e-13 1.488e-13 2.33748e-15 -7.54083e-14 -4.12771e-14 1.78178e-14 -4.65346e-14 7.20446e-15 -4.45687e-14 -5.786e-14 0 0 3.13666e-15 -2.0144e-16 6.3554e-15 9.48403e-15 1.34488e-14 2.35646e-15 2.08708e-15 5.84148e-15 -1.37747e-14 -1.9555e-14 6.39918e-15 -1.55197e-14 -9.49628e-16 5.82143e-15 1.01096e-14 -2.43141e-14 -5.11418e-14 -2.33412e-14 -2.3724e-15 -4.93405e-14 -1.484e-14 -4.72568e-14 -4.81799e-14 -1.5503e-14 -4.4187e-14 -5.43985e-14 -2.66559e-15 -8.18772e-14 -3.53503e-14 -3.14909e-14 -2.93675e-14 -8.71315e-16 2.65507e-14 -2.76108e-14 1.24572e-14 -4.50536e-14 -1.11198e-14 -6.64008e-14 -1.31718e-14 -8.68944e-15 -6.624e-14 -2.0262e-14 7.19569e-14 3.08793e-14 4.87209e-13 2.32576e-12 1.45007e-11 9.17407e-11 5.54224e-10 3.16605e-09 1.70425e-08 8.62102e-08 4.08597e-07 1.80828e-06 7.44332e-06 2.83673e-05 9.95597e-05 0.000319746 0.00093282 0.0024524 0.0057664 0.0120653 0.0224648 0.0374824 0.0568062 0.0795717 0.104848 0.131942 0.160445 0.190148 0.22096 0.252852 0.285831 0.319925 0.355178 0.391646 0.429394 0.468499 0.509042 0.551114 0.594803 0.640193 0.687343 0.736244 0.786732 0.838243 0.889173 0.934961 0.962846 0.956939 0.947971 0.939464 0.933675 0.930478 0.928956 0.92821 0.927777 0.927506 0.92733 0.927202 0.92718 0.927158 0.927138 0.927117 0.927098 0.927078 0.927059 0.92704 0.927021 0.927003 0.926984 0.926966 0.926948 0.92693 0.926911 0.926892 0.926873 0.926853 0.926833 0.926812 0.926791 0.926768 0.926745 0.926721 0.926695 0.92667 0.92664 0.926614 0.926578 0.926552 0.926507 0.926482 0.926417 0.926397 0.926293 0.926283 0.92609 0.926092 0.925684 0.925706 0.924702 0.924784 0.92207 0.922335 0.914859 0.91568 0.896473 0.898931 0.855981 0.862244 0.780088 0.765725 0.650985 0.56969 0.440219 0.318086 0.201433 0.110577 0.0520209 0.0215991 0.00831333 0.00308592 0.00112784 0.000409336 0.000147976 5.33244e-05 1.91534e-05 6.85435e-06 2.44255e-06 8.66161e-07 3.05456e-07 1.07054e-07 3.72631e-08 1.28736e-08 4.41184e-09 1.4987e-09 5.04619e-10 1.67816e-10 5.5426e-11 1.77615e-11 5.54887e-12 1.63955e-12 2.54372e-13 1.14403e-13 4.76799e-15 2.42913e-14 -1.38168e-13 3.05189e-13 -7.31354e-14 -6.75022e-15 1.99111e-13 -3.30003e-14 -8.40066e-14 1.09984e-14 -1.26399e-13 1.51669e-14 -4.57967e-15 -1.78591e-13 -1.05353e-13 0
				</DataArray>
				<DataArray Name="VitesseY" type="Float32" format="ascii">