<?xml version="1.0"?>
<VTKFile type="PolyData">
	<PolyData>
		<Piece NumberOfPoints="1206" NumberOfPolys="1000">
			<Points>
				<DataArray type="Float32" NumberOfComponents="3" format="ascii">
 0 0 0 0.005 0 0 0.01 0 0 0.015 0 0 0.02 0 0 0.025 0 0 0.03 0 0 0.035 0 0 0.04 0 0 0.045 0 0 0.05 0 0 0.055 0 0 0.06 0 0 0.065 0 0 0.07 0 0 0.075 0 0 0.08 0 0 0.085 0 0 0.09 0 0 0.095 0 0 0.1 0 0 0.105 0 0 0.11 0 0 0.115 0 0 0.12 0 0 0.125 0 0 0.13 0 0 0.135 0 0 0.14 0 0 0.145 0 0 0.15 0 0 0.155 0 0 0.16 0 0 0.165 0 0 0.17 0 0 0.175 0 0 0.18 0 0 0.185 0 0 0.19 0 0 0.195 0 0 0.2 0 0 0.205 0 0 0.21 0 0 0.215 0 0 0.22 0 0 0.225 0 0 0.23 0 0 0.235 0 0 0.24 0 0 0.245 0 0 0.250001 0 0 0.255002 0 0 0.260007 0 0 0.265017 0 0 0.27004 0 0 0.275086 0 0 0.280169 0 0 0.285304 0 0 0.290508 0 0 0.295795 0 0 0.301174 0 0 0.306655 0 0 0.312247 0 0 0.317955 0 0 0.323787 0 0 0.32975 0 0 0.335851 0 0 0.342099 0 0 0.348502 0 0 0.355069 0 0 0.36181 0 0 0.368736 0 0 0.375857 0 0 0.383188 0 0 0.390742 0 0 0.398535 0 0 0.406583 0 0 0.414905 0 0 0.423522 0 0 0.432458 0 0 0.441738 0 0 0.451388 0 0 0.461441 0 0 0.471925 0 0 0.482868 0 0 0.494283 0 0 0.506135 0 0 0.518256 0 0 0.530351 0 0 0.542359 0 0 0.554275 0 0 0.566116 0 0 0.577907 0 0 0.58967 0 0 0.601418 0 0 0.613159 0 0 0.624897 0 0 0.636633 0 0 0.648369 0 0 0.660107 0 0 0.671859 0 0 0.674471 0 0 0.677009 0 0 0.6795 0 0 0.68196 0 0 0.684398 0 0 0.686819 0 0 0.689229 0 0 0.69163 0 0 0.694024 0 0 0.696413 0 0 0.698798 0 0 0.70118 0 0 0.703558 0 0 0.705932 0 0 0.708304 0 0 0.710672 0 0 0.713038 0 0 0.715402 0 0 0.717765 0 0 0.720126 0 0 0.722486 0 0 0.724845 0 0 0.727203 0 0 0.729561 0 0 0.731918 0 0 0.734275 0 0 0.736632 0 0 0.738988 0 0 0.741344 0 0 0.743699 0 0 0.746055 0 0 0.74841 0 0 0.750765 0 0 0.75312 0 0 0.755475 0 0 0.75783 0 0 0.760185 0 0 0.76254 0 0 0.764894 0 0 0.767249 0 0 0.769604 0 0 0.771959 0 0 0.774314 0 0 0.776668 0 0 0.779023 0 0 0.781378 0 0 0.783733 0 0 0.786088 0 0 0.788444 0 0 0.7908 0 0 0.793156 0 0 0.795514 0 0 0.797873 0 0 0.800235 0 0 0.802603 0 0 0.804977 0 0 0.807367 0 0 0.809773 0 0 0.81222 0 0 0.814703 0 0 0.81727 0 0 0.819913 0 0 0.822721 0 0 0.825708 0 0 0.828976 0 0 0.832559 0 0 0.8365 0 0 0.840786 0 0 0.845366 0 0 0.850153 0 0 0.85506 0 0 0.860022 0 0 0.865008 0 0 0.870003 0 0 0.875001 0 0 0.88 0 0 0.885 0 0 0.89 0 0 0.895 0 0 0.9 0 0 0.905 0 0 0.91 0 0 0.915 0 0 0.92 0 0 0.925 0 0 0.93 0 0 0.935 0 0 0.94 0 0 0.945 0 0 0.95 0 0 0.955 0 0 0.96 0 0 0.965 0 0 0.97 0 0 0.975 0 0 0.98 0 0 0.985 0 0 0.99 0 0 0.995 0 0 1 0 0 0 0.02 0 0.005 0.02 0 0.01 0.02 0 0.015 0.02 0 0.02 0.02 0 0.025 0.02 0 0.03 0.02 0 0.035 0.02 0 0.04 0.02 0 0.045 0.02 0 0.05 0.02 0 0.055 0.02 0 0.06 0.02 0 0.065 0.02 0 0.07 0.02 0 0.075 0.02 0 0.08 0.02 0 0.085 0.02 0 0.09 0.02 0 0.095 0.02 0 0.1 0.02 0 0.105 0.02 0 0.11 0.02 0 0.115 0.02 0 0.12 0.02 0 0.125 0.02 0 0.13 0.02 0 0.135 0.02 0 0.14 0.02 0 0.145 0.02 0 0.15 0.02 0 0.155 0.02 0 0.16 0.02 0 0.165 0.02 0 0.17 0.02 0 0.175 0.02 0 0.18 0.02 0 0.185 0.02 0 0.19 0.02 0 0.195 0.02 0 0.2 0.02 0 0.205 0.02 0 0.21 0.02 0 0.215 0.02 0 0.22 0.02 0 0.225 0.02 0 0.23 0.02 0 0.235 0.02 0 0.24 0.02 0 0.245 0.02 0 0.250001 0.02 0 0.255002 0.02 0 0.260007 0.02 0 0.265017 0.02 0 0.27004 0.02 0 0.275086 0.02 0 0.280169 0.02 0 0.285304 0.02 0 0.290508 0.02 0 0.295795 0.02 0 0.301174 0.02 0 0.306655 0.02 0 0.312247 0.02 0 0.317955 0.02 0 0.323787 0.02 0 0.32975 0.02 0 0.335851 0.02 0 0.342099 0.02 0 0.348502 0.02 0 0.355069 0.02 0 0.36181 0.02 0 0.368736 0.02 0 0.375857 0.02 0 0.383188 0.02 0 0.390742 0.02 0 0.398535 0.02 0 0.406583 0.02 0 0.414905 0.02 0 0.423522 0.02 0 0.432458 0.02 0 0.441738 0.02 0 0.451388 0.02 0 0.461441 0.02 0 0.471925 0.02 0 0.482868 0.02 0 0.494283 0.02 0 0.506135 0.02 0 0.518256 0.02 0 0.530351 0.02 0 0.542359 0.02 0 0.554275 0.02 0 0.566116 0.02 0 0.577907 0.02 0 0.58967 0.02 0 0.601418 0.02 0 0.613159 0.02 0 0.624897 0.02 0 0.636633 0.02 0 0.648369 0.02 0 0.660107 0.02 0 0.671859 0.02 0 0.674471 0.02 0 0.677009 0.02 0 0.6795 0.02 0 0.68196 0.02 0 0.684398 0.02 0 0.686819 0.02 0 0.689229 0.02 0 0.69163 0.02 0 0.694024 0.02 0 0.696413 0.02 0 0.698798 0.02 0 0.70118 0.02 0 0.703558 0.02 0 0.705932 0.02 0 0.708304 0.02 0 0.710672 0.02 0 0.713038 0.02 0 0.715402 0.02 0 0.717765 0.02 0 0.720126 0.02 0 0.722486 0.02 0 0.724845 0.02 0 0.727203 0.02 0 0.729561 0.02 0 0.731918 0.02 0 0.734275 0.02 0 0.736632 0.02 0 0.738988 0.02 0 0.741344 0.02 0 0.743699 0.02 0 0.746055 0.02 0 0.74841 0.02 0 0.750765 0.02 0 0.75312 0.02 0 0.755475 0.02 0 0.75783 0.02 0 0.760185 0.02 0 0.76254 0.02 0 0.764894 0.02 0 0.767249 0.02 0 0.769604 0.02 0 0.771959 0.02 0 0.774314 0.02 0 0.776668 0.02 0 0.779023 0.02 0 0.781378 0.02 0 0.783733 0.02 0 0.786088 0.02 0 0.788444 0.02 0 0.7908 0.02 0 0.793156 0.02 0 0.795514 0.02 0 0.797873 0.02 0 0.800235 0.02 0 0.802603 0.02 0 0.804977 0.02 0 0.807367 0.02 0 0.809773 0.02 0 0.81222 0.02 0 0.814703 0.02 0 0.81727 0.02 0 0.819913 0.02 0 0.822721 0.02 0 0.825708 0.02 0 0.828976 0.02 0 0.832559 0.02 0 0.8365 0.02 0 0.840786 0.02 0 0.845366 0.02 0 0.850153 0.02 0 0.85506 0.02 0 0.860022 0.02 0 0.865008 0.02 0 0.870003 0.02 0 0.875001 0.02 0 0.88 0.02 0 0.885 0.02 0 0.89 0.02 0 0.895 0.02 0 0.9 0.02 0 0.905 0.02 0 0.91 0.02 0 0.915 0.02 0 0.92 0.02 0 0.925 0.02 0 0.93 0.02 0 0.935 0.02 0 0.94 0.02 0 0.945 0.02 0 0.95 0.02 0 0.955 0.02 0 0.96 0.02 0 0.965 0.02 0 0.97 0.02 0 0.975 0.02 0 0.98 0.02 0 0.985 0.02 0 0.99 0.02 0 0.995 0.02 0 1 0.02 0 0 0.04 0 0.005 0.04 0 0.01 0.04 0 0.015 0.04 0 0.02 0.04 0 0.025 0.04 0 0.03 0.04 0 0.035 0.04 0 0.04 0.04 0 0.045 0.04 0 0.05 0.04 0 0.055 0.04 0 0.06 0.04 0 0.065 0.04 0 0.07 0.04 0 0.075 0.04 0 0.08 0.04 0 0.085 0.04 0 0.09 0.04 0 0.095 0.04 0 0.1 0.04 0 0.105 0.04 0 0.11 0.04 0 0.115 0.04 0 0.12 0.04 0 0.125 0.04 0 0.13 0.04 0 0.135 0.04 0 0.14 0.04 0 0.145 0.04 0 0.15 0.04 0 0.155 0.04 0 0.16 0.04 0 0.165 0.04 0 0.17 0.04 0 0.175 0.04 0 0.18 0.04 0 0.185 0.04 0 0.19 0.04 0 0.195 0.04 0 0.2 0.04 0 0.205 0.04 0 0.21 0.04 0 0.215 0.04 0 0.22 0.04 0 0.225 0.04 0 0.23 0.04 0 0.235 0.04 0 0.24 0.04 0 0.245 0.04 0 0.250001 0.04 0 0.255002 0.04 0 0.260007 0.04 0 0.265017 0.04 0 0.27004 0.04 0 0.275086 0.04 0 0.280169 0.04 0 0.285304 0.04 0 0.290508 0.04 0 0.295795 0.04 0 0.301174 0.04 0 0.306655 0.04 0 0.312247 0.04 0 0.317955 0.04 0 0.323787 0.04 0 0.32975 0.04 0 0.335851 0.04 0 0.342099 0.04 0 0.348502 0.04 0 0.355069 0.04 0 0.36181 0.04 0 0.368736 0.04 0 0.375857 0.04 0 0.383188 0.04 0 0.390742 0.04 0 0.398535 0.04 0 0.406583 0.04 0 0.414905 0.04 0 0.423522 0.04 0 0.432458 0.04 0 0.441738 0.04 0 0.451388 0.04 0 0.461441 0.04 0 0.471925 0.04 0 0.482868 0.04 0 0.494283 0.04 0 0.506135 0.04 0 0.518256 0.04 0 0.530351 0.04 0 0.542359 0.04 0 0.554275 0.04 0 0.566116 0.04 0 0.577907 0.04 0 0.58967 0.04 0 0.601418 0.04 0 0.613159 0.04 0 0.624897 0.04 0 0.636633 0.04 0 0.648369 0.04 0 0.660107 0.04 0 0.671859 0.04 0 0.674471 0.04 0 0.677009 0.04 0 0.6795 0.04 0 0.68196 0.04 0 0.684398 0.04 0 0.686819 0.04 0 0.689229 0.04 0 0.69163 0.04 0 0.694024 0.04 0 0.696413 0.04 0 0.698798 0.04 0 0.70118 0.04 0 0.703558 0.04 0 0.705932 0.04 0 0.708304 0.04 0 0.710672 0.04 0 0.713038 0.04 0 0.715402 0.04 0 0.717765 0.04 0 0.720126 0.04 0 0.722486 0.04 0 0.724845 0.04 0 0.727203 0.04 0 0.729561 0.04 0 0.731918 0.04 0 0.734275 0.04 0 0.736632 0.04 0 0.738988 0.04 0 0.741344 0.04 0 0.743699 0.04 0 0.746055 0.04 0 0.74841 0.04 0 0.750765 0.04 0 0.75312 0.04 0 0.755475 0.04 0 0.75783 0.04 0 0.760185 0.04 0 0.76254 0.04 0 0.764894 0.04 0 0.767249 0.04 0 0.769604 0.04 0 0.771959 0.04 0 0.774314 0.04 0 0.776668 0.04 0 0.779023 0.04 0 0.781378 0.04 0 0.783733 0.04 0 0.786088 0.04 0 0.788444 0.04 0 0.7908 0.04 0 0.793156 0.04 0 0.795514 0.04 0 0.797873 0.04 0 0.800235 0.04 0 0.802603 0.04 0 0.804977 0.04 0 0.807367 0.04 0 0.809773 0.04 0 0.81222 0.04 0 0.814703 0.04 0 0.81727 0.04 0 0.819913 0.04 0 0.822721 0.04 0 0.825708 0.04 0 0.828976 0.04 0 0.832559 0.04 0 0.8365 0.04 0 0.840786 0.04 0 0.845366 0.04 0 0.850153 0.04 0 0.85506 0.04 0 0.860022 0.04 0 0.865008 0.04 0 0.870003 0.04 0 0.875001 0.04 0 0.88 0.04 0 0.885 0.04 0 0.89 0.04 0 0.895 0.04 0 0.9 0.04 0 0.905 0.04 0 0.91 0.04 0 0.915 0.04 0 0.92 0.04 0 0.925 0.04 0 0.93 0.04 0 0.935 0.04 0 0.94 0.04 0 0.945 0.04 0 0.95 0.04 0 0.955 0.04 0 0.96 0.04 0 0.965 0.04 0 0.97 0.04 0 0.975 0.04 0 0.98 0.04 0 0.985 0.04 0 0.99 0.04 0 0.995 0.04 0 1 0.04 0 0 0.06 0 0.005 0.06 0 0.01 0.06 0 0.015 0.06 0 0.02 0.06 0 0.025 0.06 0 0.03 0.06 0 0.035 0.06 0 0.04 0.06 0 0.045 0.06 0 0.05 0.06 0 0.055 0.06 0 0.06 0.06 0 0.065 0.06 0 0.07 0.06 0 0.075 0.06 0 0.08 0.06 0 0.085 0.06 0 0.09 0.06 0 0.095 0.06 0 0.1 0.06 0 0.105 0.06 0 0.11 0.06 0 0.115 0.06 0 0.12 0.06 0 0.125 0.06 0 0.13 0.06 0 0.135 0.06 0 0.14 0.06 0 0.145 0.06 0 0.15 0.06 0 0.155 0.06 0 0.16 0.06 0 0.165 0.06 0 0.17 0.06 0 0.175 0.06 0 0.18 0.06 0 0.185 0.06 0 0.19 0.06 0 0.195 0.06 0 0.2 0.06 0 0.205 0.06 0 0.21 0.06 0 0.215 0.06 0 0.22 0.06 0 0.225 0.06 0 0.23 0.06 0 0.235 0.06 0 0.24 0.06 0 0.245 0.06 0 0.250001 0.06 0 0.255002 0.06 0 0.260007 0.06 0 0.265017 0.06 0 0.27004 0.06 0 0.275086 0.06 0 0.280169 0.06 0 0.285304 0.06 0 0.290508 0.06 0 0.295795 0.06 0 0.301174 0.06 0 0.306655 0.06 0 0.312247 0.06 0 0.317955 0.06 0 0.323787 0.06 0 0.32975 0.06 0 0.335851 0.06 0 0.342099 0.06 0 0.348502 0.06 0 0.355069 0.06 0 0.36181 0.06 0 0.368736 0.06 0 0.375857 0.06 0 0.383188 0.06 0 0.390742 0.06 0 0.398535 0.06 0 0.406583 0.06 0 0.414905 0.06 0 0.423522 0.06 0 0.432458 0.06 0 0.441738 0.06 0 0.451388 0.06 0 0.461441 0.06 0 0.471925 0.06 0 0.482868 0.06 0 0.494283 0.06 0 0.506135 0.06 0 0.518256 0.06 0 0.530351 0.06 0 0.542359 0.06 0 0.554275 0.06 0 0.566116 0.06 0 0.577907 0.06 0 0.58967 0.06 0 0.601418 0.06 0 0.613159 0.06 0 0.624897 0.06 0 0.636633 0.06 0 0.648369 0.06 0 0.660107 0.06 0 0.671859 0.06 0 0.674471 0.06 0 0.677009 0.06 0 0.6795 0.06 0 0.68196 0.06 0 0.684398 0.06 0 0.686819 0.06 0 0.689229 0.06 0 0.69163 0.06 0 0.694024 0.06 0 0.696413 0.06 0 0.698798 0.06 0 0.70118 0.06 0 0.703558 0.06 0 0
[...]
			<PointData Scalars="VitesseX">
				<DataArray Name="VitesseX" type="Float32" format="ascii">
 0 -1.40785e-15 3.95388e-15 7.05153e-15 2.45431e-15 4.26341e-15 8.40998e-15 2.74171e-16 -2.16169e-15 -6.88038e-15 -2.70877e-15 -4.01696e-15 -5.92097e-15 -2.00829e-14 -1.08919e-14 -1.51438e-14 -1.79762e-14 -2.98286e-14 -4.20593e-14 -3.93468e-14 -3.46853e-14 -2.8874e-14 -5.92544e-14 -4.32459e-14 -2.71626e-14 -4.12201e-14 -5.05384e-14 -2.34468e-14 -1.47229e-14 -2.1298e-14 -9.17733e-15 -1.36993e-14 -2.47346e-14 -6.42096e-15 -1.39997e-14 3.68875e-14 1.2132e-13 6.86539e-13 4.15064e-12 2.45962e-11 1.39094e-10 7.48651e-10 3.82725e-09 1.85462e-08 8.49987e-08 3.67501e-07 1.49473e-06 5.70048e-06 2.03085e-05 6.7292e-05 0.000206322 0.00058191 0.00149987 0.00350972 0.00741617 0.014118 0.0242758 0.0380144 0.0549097 0.0742593 0.0953913 0.117822 0.14126 0.165549 0.190613 0.216417 0.242954 0.270229 0.298259 0.327068 0.356686 0.387149 0.418498 0.450777 0.484036 0.518329 0.553711 0.590239 0.627971 0.666953 0.707215 0.74874 0.791412 0.834886 0.878264 0.9192 0.951434 0.960112 0.951963 0.944398 0.937763 0.933079 0.930324 0.928892 0.928172 0.927782 0.927551 0.927404 0.927304 0.92723 0.927172 0.927162 0.927152 0.927142 0.927132 0.927123 0.927113 0.927104 0.927095 0.927085 0.927076 0.927067 0.927058 0.927048 0.927039 0.92703 0.927021 0.927011 0.927001 0.926991 0.926981 0.92697 0.926959 0.926947 0.926935 0.926923 0.92691 0.926897 0.926883 0.926869 0.926855 0.92684 0.926825 0.926811 0.926795 0.926779 0.926762 0.926746 0.926725 0.926708 0.926682 0.926664 0.926629 0.926613 0.92656 0.926549 0.926457 0.926454 0.926274 0.926281 0.925876 0.925905 0.92485 0.924944 0.922013 0.92231 0.9142 0.915111 0.894379 0.897079 0.851453 0.857494 0.772124 0.753482 0.636761 0.549979 0.420006 0.297677 0.184365 0.09863 0.0453337 0.0185368 0.00708522 0.00262569 0.000960847 0.000349822 0.000127063 4.60842e-05 1.66918e-05 6.03685e-06 2.17945e-06 7.85161e-07 2.82141e-07 1.01083e-07 3.609e-08 1.28346e-08 4.54407e-09 1.60078e-09 5.60812e-10 1.95217e-10 6.75607e-11 2.31481e-11 7.8905e-12 2.63249e-12 8.24175e-13 2.88111e-13 8.14321e-14 1.50838e-13 3.27704e-14 1.71981e-14 0 0 1.05829e-15 4.79519e-15 3.51609e-15 3.47632e-15 5.75566e-15 2.88863e-15 4.85689e-15 -4.2541e-15 -5.5378e-15 -9.01804e-15 -1.01212e-14 -8.58661e-15 -1.23892e-14 -1.45749e-14 -1.74417e-14 -1.79234e-14 -3.13843e-14 -4.03395e-14 -2.97873e-14 -5.23539e-14 -3.8154e-14 -3.32207e-14 -4.33635e-14 -3.8739e-14 -4.01647e-14 -2.1927e-14 -3.87798e-14 -1.55445e-14 -2.46065e-14 3.1327e-16 -2.54308e-14 -2.18622e-14 -1.39417e-14 2.04026e-15 2.60934e-14 1.38783e-13 7.079e-13 4.15928e-12 2.46105e-11 1.39113e-10 7.48651e-10 3.82724e-09 1.85462e-08 8.49987e-08 3.67501e-07 1.49473e-06 5.70048e-06 2.03085e-05 6.7292e-05 0.000206322 0.00058191 0.00149987 0.00350972 0.00741617 0.014118 0.0242758 0.0380144 0.0549097 0.0742593 0.0953913 0.117822 0.14126 0.165549 0.190613 0.216417 0.242954 0.270229 0.298259 0.327068 0.356686 0.387149 0.418498 0.450777 0.484036 0.518329 0.553711 0.590239 0.627971 0.666953 0.707215 0.74874 0.791412 0.834886 0.878264 0.9192 0.951434 0.960112 0.951963 0.944398 0.937763 0.933079 0.930324 0.928892 0.928172 0.927782 0.927551 0.927404 0.927304 0.92723 0.927172 0.927162 0.927152 0.927142 0.927132 0.927123 0.927113 0.927104 0.927095 0.927085 0.927076 0.927067 0.927058 0.927048 0.927039 0.92703 0.927021 0.927011 0.927001 0.926991 0.926981 0.92697 0.926959 0.926947 0.926935 0.926923 0.92691 0.926897 0.926883 0.926869 0.926855 0.92684 0.926825 0.926811 0.926795 0.926779 0.926762 0.926746 0.926725 0.926708 0.926682 0.926664 0.926629 0.926613 0.92656 0.926549 0.926457 0.926454 0.926274 0.926281 0.925876 0.925905 0.92485 0.924944 0.922013 0.92231 0.9142 0.915111 0.894379 0.897079 0.851453 0.857494 0.772124 0.753482 0.636761 0.549979 0.420006 0.297677 0.184365 0.09863 0.0453337 0.0185368 0.00708522 0.00262569 0.000960847 0.000349822 0.000127063 4.60842e-05 1.66918e-05 6.03685e-06 2.17945e-06 7.85161e-07 2.82141e-07 1.01083e-07 3.60899e-08 1.28346e-08 4.54399e-09 1.60077e-09 5.60867e-10 1.95271e-10 6.7481e-11 2.30786e-11 7.78702e-12 2.5995e-12 8.03513e-13 2.45999e-13 1.12084e-13 1.10395e-13 7.81528e-14 5.79391e-14 0 0 5.11649e-15 3.78472e-15 1.79355e-15 2.69961e-15 5.34478e-15 3.0048e-15 -4.25061e-16 -5.62904e-15 -5.43471e-15 -6.84123e-15 -1.72738e-14 -8.56234e-15 -1.55418e-14 -8.56958e-15 -3.31467e-14 -1.82395e-14 -4.19968e-14 -3.35977e-14 -3.38817e-14 -4.11729e-14 -3.36659e-14 -3.19527e-14 -3.33323e-14 -3.8695e-14 -4.8657e-14 -2.41059e-14 -7.93433e-15 -3.59059e-14 -1.9517e-14 -5.77493e-15 -1.88721e-14 -9.76075e-15 -1.04377e-14 9.06286e-15 5.09697e-14 1.39666e-13 7.31351e-13 4.20834e-12 2.46028e-11 1.39128e-10 7.48678e-10 3.82724e-09 1.85462e-08 8.49987e-08 3.67501e-07 1.49473e-06 5.70048e-06 2.03085e-05 6.7292e-05 0.000206322 0.00058191 0.00149987 0.00350972 0.00741617 0.014118 0.0242758 0.0380144 0.0549097 0.0742593 0.0953913 0.117822 0.14126 0.165549 0.190613 0.216417 0.242954 0.270229 0.298259 0.327068 0.356686 0.387149 0.418498 0.450777 0.484036 0.518329 0.553711 0.590239 0.627971 0.666953 0.707215 0.74874 0.791412 0.834886 0.878264 0.9192 0.951434 0.960112 0.951963 0.944398 0.937763 0.933079 0.930324 0.928892 0.928172 0.927782 0.927551 0.927404 0.927304 0.92723 0.927172 0.927162 0.927152 0.927142 0.927132 0.927123 0.927113 0.927104 0.927095 0.927085 0.927076 0.927067 0.927058 0.927048 0.927039 0.92703 0.927021 0.927011 0.927001 0.926991 0.926981 0.92697 0.926959 0.926947 0.926935 0.926923 0.92691 0.926897 0.926883 0.926869 0.926855 0.92684 0.926825 0.926811 0.926795 0.926779 0.926762 0.926746 0.926725 0.926708 0.926682 0.926664 0.926629 0.926613 0.92656 0.926549 0.926457 0.926454 0.926274 0.926281 0.925876 0.925905 0.92485 0.924944 0.922013 0.92231 0.9142 0.915111 0.894379 0.897079 0.851453 0.857494 0.772124 0.753482 0.636761 0.549979 0.420006 0.297677 0.184365 0.09863 0.0453337 0.0185368 0.00708522 0.00262569 0.000960847 0.000349822 0.000127063 4.60842e-05 1.66918e-05 6.03685e-06 2.17945e-06 7.85161e-07 2.82141e-07 1.01083e-07 3.60899e-08 1.28347e-08 4.54398e-09 1.60075e-09 5.60824e-10 1.95187e-10 6.74489e-11 2.31167e-11 7.61779e-12 2.53204e-12 7.58066e-13 2.21768e-13 4.76458e-14 -9.98414e-16 7.69962e-14 7.6078e-14 0 0 8.90008e-16 1.02483e-15 2.31025e-15 5.03997e-15 6.22584e-16 1.89252e-15 -8.42628e-15 -1.01711e-14 -7.13073e-15 -2.83067e-15 -1.03092e-14 -1.14679e-14 -1.94331e-14 -9.97653e-15 -2.77605e-14 -2.86504e-14 -4.59368e-14 -3.61227e-14 -3.84994e-14 -1.3619e-14 -3.27579e-14 -3.97886e-14 -4.47615e-14 -1.35526e-14 -3.62906e-14 -1.52362e-14 -1.64666e-14 -4.78381e-14 -1.69605e-14 1.13512e-14 3.82382e-15 -1.15453e-14 -2.35086e-14 1.7194e-14 4.64426e-14 1.67545e-13 7.26257e-13 4.26484e-12 2.46398e-11 1.3917e-10 7.48712e-10 3.82721e-09 1.85462e-08 8.49986e-08 3.67501e-07 1.49473e-06 5.70048e-06 2.03085e-05 6.7292e-05 0.000206322 0.00058191 0.00149987 0.00350972 0.00741617 0.014118 0.0242758 0.0380144 0.0549097 0.0742593 0.0953913 0.117822 0.14126 0.165549 0.190613 0.216417 0.242954 0.270229 0.298259 0.327068 0.356686 0.387149 0.418498 0.450777 0.484036 0.518329 0.553711 0.590239 0.627971 0.666953 0.707215 0.74874 0.791412 0.834886 0.878264 0.9192 0.951434 0.960112 0.951963 0.944398 0.937763 0.933079 0.930324 0.928892 0.928172 0.927782 0.927551 0.927404 0.927304 0.92723 0.927172 0.927162 0.927152 0.927142 0.927132 0.927123 0.927113 0.927104 0.927095 0.927085 0.927076 0.927067 0.927058 0.927048 0.927039 0.92703 0.927021 0.927011 0.927001 0.926991 0.926981 0.92697 0.926959 0.926947 0.926935 0.926923 0.92691 0.926897 0.926883 0.926869 0.926855 0.92684 0.926825 0.926811 0.926795 0.926779 0.926762 0.926746 0.926725 0.926708 0.926682 0.926664 0.926629 0.926613 0.92656 0.926549 0.926457 0.926454 0.926274 0.926281 0.925876 0.925905 0.92485 0.924944 0.922013 0.92231 0.9142 0.915111 0.894379 0.897079 0.851453 0.857494 0.772124 0.753482 0.636761 0.549979 0.420006 0.297677 0.184365 0.09863 0.0453337 0.0185368 0.00708522 0.00262569 0.000960847 0.000349822 0.000127063 4.60842e-05 1.66918e-05 6.03685e-06 2.17945e-06 7.85161e-07 2.82141e-07 1.01083e-07 3.609e-08 1.28346e-08 4.54407e-09 1.6007e-09 5.60719e-10 1.95257e-10 6.72866e-11 2.30439e-11 7.71386e-12 2.37016e-12 7.7392e-13 -3.19749e-14 7.29914e-14 -7.83707e-16 7.02574e-15 7.22994e-14 0 0 -2.33661e-15 -1.3132e-15 -4.11273e-16 4.59516e-15 -4.00689e-16 -7.08831e-15 -5.41126e-15 -1.47103e-14 -1.1735e-14 -1.68762e-14 -1.41454e-14 -1.47942e-14 -1.8579e-14 -2.13174e-14 -1.7689e-14 -3.35371e-14 -2.6535e-14 -2.6886e-14 -5.88106e-14 -2.79742e-14 -2.39589e-14 -5.20759e-15 -4.58748e-14 -1.69772e-14 -6.82382e-15 -2.1728e-14 -3.78273e-14 -2.48641e-14 -3.32559e-14 2.33834e-14 -2.81757e-14 -9.60746e-15 -2.47951e-14 2.58335e-14 1.64111e-14 2.14269e-13 7.56155e-13 4.30128e-12 2.471e-11 1.3919e-10 7.48719e-10 3.82718e-09 1.85463e-08 8.49986e-08 3.67501e-07 1.49473e-06 5.70048e-06 2.03085e-05 6.7292e-05 0.000206322 0.00058191 0.00149987 0.00350972 0.00741617 0.014118 0.0242758 0.0380144 0.0549097 0.0742593 0.0953913 0.117822 0.14126 0.165549 0.190613 0.216417 0.242954 0.270229 0.298259 0.327068 0.356686 0.387149 0.418498 0.450777 0.484036 0.518329 0.553711 0.590239 0.627971 0.666953 0.707215 0.74874 0.791412 0.834886 0.878264 0.9192 0.951434 0.960112 0.951963 0.944398 0.937763 0.933079 0.930324 0.928892 0.928172 0.927782 0.927551 0.927404 0.927304 0.92723 0.927172 0.927162 0.927152 0.927142 0.927132 0.927123 0.927113 0.927104 0.927095 0.927085 0.927076 0.927067 0.927058 0.927048 0.927039 0.92703 0.927021 0.927011 0.927001 0.926991 0.926981 0.92697 0.926959 0.926947 0.926935 0.926923 0.92691 0.926897 0.926883 0.926869 0.926855 0.92684 0.926825 0.926811 0.926795 0.926779 0.926762 0.926746 0.926725 0.926708 0.926682 0.926664 0.926629 0.926613 0.92656 0.926549 0.926457 0.926454 0.926274 0.926281 0.925876 0.925905 0.92485 0.924944 0.922013 0.92231 0.9142 0.915111 0.894379 0.897079 0.851453 0.857494 0.772124 0.753482 0.636761 0.549979 0.420006 0.297677 0.184365 0.09863 0.0453337 0.0185368 0.00708522 0.00262569 0.000960847 0.000349822 0.000127063 4.60842e-05 1.66918e-05 6.03685e-06 2.17945e-06 7.85161e-07 2.82141e-07 1.01083e-07 3.609e-08 1.28346e-08 4.54398e-09 1.60074e-09 5.607e-10 1.9517e-10 6.73631e-11 2.2765e-11 7.65134e-12 2.34379e-12 7.52336e-13 2.65876e-14 1.55117e-13 7.59414e-14 9.02498e-15 5.49087e-14 0 0 2.55319e-16 -2.74313e-15 -1.83658e-15 1.12844e-17 1.3951e-15 -9.31936e-15 -4.25969e-15 -1.399e-14 -1.58828e-14 -2.64462e-14 -2.59945e-14 -1.25249e-14 -2.46799e-14 -2.15629e-14 -2.64106e-14 -2.83818e-14 -1.22501e-14 -1.01022e-14 -8.8158e-14 -4.10338e-14 -2.29999e-15 1.24436e-14 -2.54101e-14 -3.39237e-14 7.2903e-16 -6.78799e-14 -4.47717e-15 -9.49775e-15 -4.371e-14 2.7107e-15 -6.45809e-14 3.34408e-15 -1.9859e-15 1.73246e-14 2.65771e-14 2.16534e-13 7.93237e-13 4.32163e-12 2.47214e-11 1.39164e-10 7.4872e-10 3.8272e-09 1.85463e-08 8.49987e-08 3.67501e-07 1.49473e-06 5.70048e-06 2.03085e-05 6.7292e-05 0.000206322 0.00058191 0.00149987 0.00350972 0.00741617 0.014118 0.0242758 0.0380144 0.0549097 0.0742593 0.0953913 0.117822 0.14126 0.165549 0.190613 0.216417 0.242954 0.270229 0.298259 0.327068 0.356686 0.387149 0.418498 0.450777 0.484036 0.518329 0.553711 0.590239 0.627971 0.666953 0.707215 0.74874 0.791412 0.834886 0.878264 0.9192 0.951434 0.960112 0.951963 0.944398 0.937763 0.933079 0.930324 0.928892 0.928172 0.927782 0.927551 0.927404 0.927304 0.92723 0.927172 0.927162 0.927152 0.927142 0.927132 0.927123 0.927113 0.927104 0.927095 0.927085 0.927076 0.927067 0.927058 0.927048 0.927039 0.92703 0.927021 0.927011 0.927001 0.926991 0.926981 0.92697 0.926959 0.926947 0.926935 0.926923 0.92691 0.926897 0.926883 0.926869 0.926855 0.92684 0.926825 0.926811 0.926795 0.926779 0.926762 0.926746 0.926725 0.926708 0.926682 0.926664 0.926629 0.926613 0.92656 0.926549 0.926457 0.926454 0.926274 0.926281 0.925876 0.925905 0.92485 0.924944 0.922013 0.92231 0.9142 0.915111 0.894379 0.897079 0.851453 0.857494 0.772124 0.753482 0.636761 0.549979 0.420006 0.297677 0.184365 0.09863 0.0453337 0.0185368 0.00708522 0.00262569 0.000960847 0.000349822 0.000127063 4.60842e-05 1.66918e-05 6.03685e-06 2.17945e-06 7.85161e-07 2.82141e-07 1.01083e-07 3.60901e-08 1.28346e-08 4.54388e-09 1.60082e-09 5.60688e-10 1.94875e-10 6.76493e-11 2.26661e-11 7.42714e-12 2.44504e-12 6.90323e-13 3.56724e-13 1.171e-13 8.12785e-14 3.33354e-14 1.80105e-14 0
				</DataArray>
				<DataArray Name="VitesseY" type="Float32" format="ascii">