<?xml version="1.0"?>
<VTKFile type="PolyData">
	<PolyData>
		<Piece NumberOfPoints="1206" NumberOfPolys="1000">
			<Points>
				<DataArray type="Float32" NumberOfComponents="3" format="ascii">
 0 0 0 0.005 0 0 0.01 0 0 0.015 0 0 0.02 0 0 0.025 0 0 0.03 0 0 0.035 0 0 0.04 0 0 0.045 0 0 0.05 0 0 0.055 0 0 0.06 0 0 0.065 0 0 0.07 0 0 0.075 0 0 0.08 0 0 0.085 0 0 0.09 0 0 0.095 0 0 0.1 0 0 0.105 0 0 0.11 0 0 0.115 0 0 0.12 0 0 0.125 0 0 0.13 0 0 0.135 0 0 0.14 0 0 0.145 0 0 0.15 0 0 0.155 0 0 0.16 0 0 0.165 0 0 0.17 0 0 0.175 0 0 0.18 0 0 0.185 0 0 0.19 0 0 0.195 0 0 0.2 0 0 0.205 0 0 0.21 0 0 0.215 0 0 0.22 0 0 0.225 0 0 0.23 0 0 0.235 0 0 0.24 0 0 0.245 0 0 0.25 0 0 0.255 0 0 0.26 0 0 0.265 0 0 0.27 0 0 0.275 0 0 0.28 0 0 0.285 0 0 0.29 0 0 0.295 0 0 0.3 0 0 0.305 0 0 0.31 0 0 0.315 0 0 0.32 0 0 0.325 0 0 0.33 0 0 0.335 0 0 0.340001 0 0 0.345004 0 0 0.350013 0 0 0.355036 0 0 0.360091 0 0 0.365203 0 0 0.370403 0 0 0.375724 0 0 0.381191 0 0 0.38683 0 0 0.392659 0 0 0.398699 0 0 0.40497 0 0 0.411496 0 0 0.418301 0 0 0.425414 0 0 0.432869 0 0 0.440703 0 0 0.448961 0 0 0.457695 0 0 0.466966 0 0 0.476844 0 0 0.487401 0 0 0.498702 0 0 0.510729 0 0 0.523169 0 0 0.535493 0 0 0.547634 0 0 0.559617 0 0 0.571503 0 0 0.583346 0 0 0.595173 0 0 0.606993 0 0 0.609273 0 0 0.611552 0 0 0.613832 0 0 0.616113 0 0 0.618395 0 0 0.620678 0 0 0.622958 0 0 0.625239 0 0 0.627521 0 0 0.629801 0 0 0.63208 0 0 0.634362 0 0 0.636643 0 0 0.638923 0 0 0.6412 0 0 0.643479 0 0 0.645759 0 0 0.64804 0 0 0.650323 0 0 0.652603 0 0 0.654885 0 0 0.657169 0 0 0.659452 0 0 0.661735 0 0 0.664016 0 0 0.666296 0 0 0.668575 0 0 0.670855 0 0 0.673137 0 0 0.675422 0 0 0.677716 0 0 0.680025 0 0 0.68234 0 0 0.684697 0 0 0.687177 0 0 0.689799 0 0 0.69256 0 0 0.695564 0 0 0.698847 0 0 0.702466 0 0 0.706443 0 0 0.71076 0 0 0.715358 0 0 0.720153 0 0 0.725061 0 0 0.730024 0 0 0.735009 0 0 0.740003 0 0 0.745001 0 0 0.75 0 0 0.755 0 0 0.76 0 0 0.765 0 0 0.77 0 0 0.775 0 0 0.78 0 0 0.785 0 0 0.79 0 0 0.795 0 0 0.8 0 0 0.805 0 0 0.81 0 0 0.815 0 0 0.82 0 0 0.825 0 0 0.83 0 0 0.835 0 0 0.84 0 0 0.845 0 0 0.85 0 0 0.855 0 0 0.86 0 0 0.865 0 0 0.87 0 0 0.875 0 0 0.88 0 0 0.885 0 0 0.89 0 0 0.895 0 0 0.9 0 0 0.905 0 0 0.91 0 0 0.915 0 0 0.92 0 0 0.925 0 0 0.93 0 0 0.935 0 0 0.94 0 0 0.945 0 0 0.95 0 0 0.955 0 0 0.96 0 0 0.965 0 0 0.97 0 0 0.975 0 0 0.98 0 0 0.985 0 0 0.99 0 0 0.995 0 0 1 0 0 0 0.02 0 0.005 0.02 0 0.01 0.02 0 0.015 0.02 0 0.02 0.02 0 0.025 0.02 0 0.03 0.02 0 0.035 0.02 0 0.04 0.02 0 0.045 0.02 0 0.05 0.02 0 0.055 0.02 0 0.06 0.02 0 0.065 0.02 0 0.07 0.02 0 0.075 0.02 0 0.08 0.02 0 0.085 0.02 0 0.09 0.02 0 0.095 0.02 0 0.1 0.02 0 0.105 0.02 0 0.11 0.02 0 0.115 0.02 0 0.12 0.02 0 0.125 0.02 0 0.13 0.02 0 0.135 0.02 0 0.14 0.02 0 0.145 0.02 0 0.15 0.02 0 0.155 0.02 0 0.16 0.02 0 0.165 0.02 0 0.17 0.02 0 0.175 0.02 0 0.18 0.02 0 0.185 0.02 0 0.19 0.02 0 0.195 0.02 0 0.2 0.02 0 0.205 0.02 0 0.21 0.02 0 0.215 0.02 0 0.22 0.02 0 0.225 0.02 0 0.23 0.02 0 0.235 0.02 0 0.24 0.02 0 0.245 0.02 0 0.25 0.02 0 0.255 0.02 0 0.26 0.02 0 0.265 0.02 0 0.27 0.02 0 0.275 0.02 0 0.28 0.02 0 0.285 0.02 0 0.29 0.02 0 0.295 0.02 0 0.3 0.02 0 0.305 0.02 0 0.31 0.02 0 0.315 0.02 0 0.32 0.02 0 0.325 0.02 0 0.33 0.02 0 0.335 0.02 0 0.340001 0.02 0 0.345004 0.02 0 0.350013 0.02 0 0.355036 0.02 0 0.360091 0.02 0 0.365203 0.02 0 0.370403 0.02 0 0.375724 0.02 0 0.381191 0.02 0 0.38683 0.02 0 0.392659 0.02 0 0.398699 0.02 0 0.40497 0.02 0 0.411496 0.02 0 0.418301 0.02 0 0.425414 0.02 0 0.432869 0.02 0 0.440703 0.02 0 0.448961 0.02 0 0.457695 0.02 0 0.466966 0.02 0 0.476844 0.02 0 0.487401 0.02 0 0.498702 0.02 0 0.510729 0.02 0 0.523169 0.02 0 0.535493 0.02 0 0.547634 0.02 0 0.559617 0.02 0 0.571503 0.02 0 0.583346 0.02 0 0.595173 0.02 0 0.606993 0.02 0 0.609273 0.02 0 0.611552 0.02 0 0.613832 0.02 0 0.616113 0.02 0 0.618395 0.02 0 0.620678 0.02 0 0.622958 0.02 0 0.625239 0.02 0 0.627521 0.02 0 0.629801 0.02 0 0.63208 0.02 0 0.634362 0.02 0 0.636643 0.02 0 0.638923 0.02 0 0.6412 0.02 0 0.643479 0.02 0 0.645759 0.02 0 0.64804 0.02 0 0.650323 0.02 0 0.652603 0.02 0 0.654885 0.02 0 0.657169 0.02 0 0.659452 0.02 0 0.661735 0.02 0 0.664016 0.02 0 0.666296 0.02 0 0.668575 0.02 0 0.670855 0.02 0 0.673137 0.02 0 0.675422 0.02 0 0.677716 0.02 0 0.680025 0.02 0 0.68234 0.02 0 0.684697 0.02 0 0.687177 0.02 0 0.689799 0.02 0 0.69256 0.02 0 0.695564 0.02 0 0.698847 0.02 0 0.702466 0.02 0 0.706443 0.02 0 0.71076 0.02 0 0.715358 0.02 0 0.720153 0.02 0 0.725061 0.02 0 0.730024 0.02 0 0.735009 0.02 0 0.740003 0.02 0 0.745001 0.02 0 0.75 0.02 0 0.755 0.02 0 0.76 0.02 0 0.765 0.02 0 0.77 0.02 0 0.775 0.02 0 0.78 0.02 0 0.785 0.02 0 0.79 0.02 0 0.795 0.02 0 0.8 0.02 0 0.805 0.02 0 0.81 0.02 0 0.815 0.02 0 0.82 0.02 0 0.825 0.02 0 0.83 0.02 0 0.835 0.02 0 0.84 0.02 0 0.845 0.02 0 0.85 0.02 0 0.855 0.02 0 0.86 0.02 0 0.865 0.02 0 0.87 0.02 0 0.875 0.02 0 0.88 0.02 0 0.885 0.02 0 0.89 0.02 0 0.895 0.02 0 0.9 0.02 0 0.905 0.02 0 0.91 0.02 0 0.915 0.02 0 0.92 0.02 0 0.925 0.02 0 0.93 0.02 0 0.935 0.02 0 0.94 0.02 0 0.945 0.02 0 0.95 0.02 0 0.955 0.02 0 0.96 0.02 0 0.965 0.02 0 0.97 0.02 0 0.975 0.02 0 0.98 0.02 0 0.985 0.02 0 0.99 0.02 0 0.995 0.02 0 1 0.02 0 0 0.04 0 0.005 0.04 0 0.01 0.04 0 0.015 0.04 0 0.02 0.04 0 0.025 0.04 0 0.03 0.04 0 0.035 0.04 0 0.04 0.04 0 0.045 0.04 0 0.05 0.04 0 0.055 0.04 0 0.06 0.04 0 0.065 0.04 0 0.07 0.04 0 0.075 0.04 0 0.08 0.04 0 0.085 0.04 0 0.09 0.04 0 0.095 0.04 0 0.1 0.04 0 0.105 0.04 0 0.11 0.04 0 0.115 0.04 0 0.12 0.04 0 0.125 0.04 0 0.13 0.04 0 0.135 0.04 0 0.14 0.04 0 0.145 0.04 0 0.15 0.04 0 0.155 0.04 0 0.16 0.04 0 0.165 0.04 0 0.17 0.04 0 0.175 0.04 0 0.18 0.04 0 0.185 0.04 0 0.19 0.04 0 0.195 0.04 0 0.2 0.04 0 0.205 0.04 0 0.21 0.04 0 0.215 0.04 0 0.22 0.04 0 0.225 0.04 0 0.23 0.04 0 0.235 0.04 0 0.24 0.04 0 0.245 0.04 0 0.25 0.04 0 0.255 0.04 0 0.26 0.04 0 0.265 0.04 0 0.27 0.04 0 0.275 0.04 0 0.28 0.04 0 0.285 0.04 0 0.29 0.04 0 0.295 0.04 0 0.3 0.04 0 0.305 0.04 0 0.31 0.04 0 0.315 0.04 0 0.32 0.04 0 0.325 0.04 0 0.33 0.04 0 0.335 0.04 0 0.340001 0.04 0 0.345004 0.04 0 0.350013 0.04 0 0.355036 0.04 0 0.360091 0.04 0 0.365203 0.04 0 0.370403 0.04 0 0.375724 0.04 0 0.381191 0.04 0 0.38683 0.04 0 0.392659 0.04 0 0.398699 0.04 0 0.40497 0.04 0 0.411496 0.04 0 0.418301 0.04 0 0.425414 0.04 0 0.432869 0.04 0 0.440703 0.04 0 0.448961 0.04 0 0.457695 0.04 0 0.466966 0.04 0 0.476844 0.04 0 0.487401 0.04 0 0.498702 0.04 0 0.510729 0.04 0 0.523169 0.04 0 0.535493 0.04 0 0.547634 0.04 0 0.559617 0.04 0 0.571503 0.04 0 0.583346 0.04 0 0.595173 0.04 0 0.606993 0.04 0 0.609273 0.04 0 0.611552 0.04 0 0.613832 0.04 0 0.616113 0.04 0 0.618395 0.04 0 0.620678 0.04 0 0.622958 0.04 0 0.625239 0.04 0 0.627521 0.04 0 0.629801 0.04 0 0.63208 0.04 0 0.634362 0.04 0 0.636643 0.04 0 0.638923 0.04 0 0.6412 0.04 0 0.643479 0.04 0 0.645759 0.04 0 0.64804 0.04 0 0.650323 0.04 0 0.652603 0.04 0 0.654885 0.04 0 0.657169 0.04 0 0.659452 0.04 0 0.661735 0.04 0 0.664016 0.04 0 0.666296 0.04 0 0.668575 0.04 0 0.670855 0.04 0 0.673137 0.04 0 0.675422 0.04 0 0.677716 0.04 0 0.680025 0.04 0 0.68234 0.04 0 0.684697 0.04 0 0.687177 0.04 0 0.689799 0.04 0 0.69256 0.04 0 0.695564 0.04 0 0.698847 0.04 0 0.702466 0.04 0 0.706443 0.04 0 0.71076 0.04 0 0.715358 0.04 0 0.720153 0.04 0 0.725061 0.04 0 0.730024 0.04 0 0.735009 0.04 0 0.740003 0.04 0 0.745001 0.04 0 0.75 0.04 0 0.755 0.04 0 0.76 0.04 0 0.765 0.04 0 0.77 0.04 0 0.775 0.04 0 0.78 0.04 0 0.785 0.04 0 0.79 0.04 0 0.795 0.04 0 0.8 0.04 0 0.805 0.04 0 0.81 0.04 0 0.815 0.04 0 0.82 0.04 0 0.825 0.04 0 0.83 0.04 0 0.835 0.04 0 0.84 0.04 0 0.845 0.04 0 0.85 0.04 0 0.855 0.04 0 0.86 0.04 0 0.865 0.04 0 0.87 0.04 0 0.875 0.04 0 0.88 0.04 0 0.885 0.04 0 0.89 0.04 0 0.895 0.04 0 0.9 0.04 0 0.905 0.04 0 0.91 0.04 0 0.915 0.04 0 0.92 0.04 0 0.925 0.04 0 0.93 0.04 0 0.935 0.04 0 0.94 0.04 0 0.945 0.04 0 0.95 0.04 0 0.955 0.04 0 0.96 0.04 0 0.965 0.04 0 0.97 0.04 0 0.975 0.04 0 0.98 0.04 0 0.985 0.04 0 0.99 0.04 0 0.995 0.04 0 1 0.04 0 0 0.06 0 0.005 0.06 0 0.01 0.06 0 0.015 0.06 0 0.02 0.06 0 0.025 0.06 0 0.03 0.06 0 0.035 0.06 0 0.04 0.06 0 0.045 0.06 0 0.05 0.06 0 0.055 0.06 0 0.06 0.06 0 0.065 0.06 0 0.07 0.06 0 0.075 0.06 0 0.08 0.06 0 0.085 0.06 0 0.09 0.06 0 0.095 0.06 0 0.1 0.06 0 0.105 0.06 0 0.11 0.06 0 0.115 0.06 0 0.12 0.06 0 0.125 0.06 0 0.13 0.06 0 0.135 0.06 0 0.14 0.06 0 0.145 0.06 0 0.15 0.06 0 0.155 0.06 0 0.16 0.06 0 0.165 0.06 0 0.17 0.06 0 0.175 0.06 0 0.18 0.06 0 0.185 0.06 0 0.19 0.06 0 0.195 0.06 0 0.2 0.06 0 0.205 0.06 0 0.21 0.06 0 0.215 0.06 0 0.22 0.06 0 0.225 0.06 0 0.23 0.06 0 0.235 0.06 0 0.24 0.06 0 0.245 0.06 0 0.25 0.06 0 0.255 0.06 0 0.26 0.06 0 0.265 0.06 0 0.27 0.06 0 0.275 0.06 0 0.28 0.06 0 0.285 0.06 0 0.29 0.06 0 0.295 0.06 0 0.3 0.06 0 0.305 0.06 0 0.31 0.06 0 0.315 0.06 0 0.32 0.06 0 0.325 0.06 0 0.33 0.06 0 0.335 0.06 0 0.340001 0.06 0 0.345004 0.06 0 0.350013 0.06 0 0.355036 0.06 0 0.360091 0.06 0 0.365203 0.06 0 0.370403 0.06 0 0.375724 0.06 0 0.381191 0.06 0 0.38683 0.06 0 0.392659 0.06 0 0.398699 0.06 0 0.40497 0.06 0 0.411496 0.06 0 0.418301 0.06 0 0.425414 0.06 0 0.432869 0.06 0 0.440703 0.06 0 0.448961 0.06 0 0.457695 0.06 0 0.466966 0.06 0 0.476844 0.06 0 0.487401 0.06 0 0.498702 0.06 0 0.510729 0.06 0 0.523169 0.06 0 0.535493 0.06 0 0.547634 0.06 0 0.559617 0.06 0 0.571503 0.06 0 0.583346 0.06 0 0.595173 0.06 0 0.606993 0.06 0 0.609273 0.06 0 0.611552 0.06 0 0.613832 0.06 0 0.616113 0.06 0 0.618395 0.06 0 0.620678 0.06 0 0.622958 0.06 0 0.625239 0.06 0 0.627521 0.06 0 0.629801 0.06 0 0.63208 0.06 0 0.634362 0.06 0 0.636643 0.06 0 0.638923 0.06 0 0.6412 0.06 0 0.643479 0.06 0 0.645759 0.06 0 0.64804 0.06 0 0.650323 0.06 0 0.652603 0.06 0 0.654885 0.06 0 0.657169 0.06 0 0.659452 0.06 0 0.661735 0.06 0 0.664016 0.06 0 0.666296 0.06 0 0.668575 0.06 0 0.670855 0.06 0 0.673137 0.06 0 0.675422 0.06 0 0.677716 0.06 0 0.680025 0.06 0 0.68234 0.06 0 0.684697 0.06 0 0.687177 0.06 0 0.689799 0.06 0 0.69256 0.06 0 0.695564 0.06 0 0.698847 0.06 0 0.702466 0.06 0 0.706443 0.06 0 0.71076 0.06 0 0.715358 0.06 0 0.720153 0.06 0 0.72
[...]
			<PointData Scalars="VitesseX">
				<DataArray Name="VitesseX" type="Float32" format="ascii">
 0 -7.55856e-16 -1.00056e-15 9.22924e-16 -2.00298e-15 -2.88643e-15 2.03736e-15 1.5588e-16 5.87133e-15 2.01325e-15 5.19963e-16 3.62877e-15 -6.79981e-15 5.99375e-15 -1.08292e-14 1.15206e-14 -5.96188e-15 1.4645e-14 2.0182e-14 -4.08343e-15 -7.05227e-15 1.40492e-15 6.13198e-15 1.10817e-14 -6.77082e-15 2.46981e-14 2.24319e-14 2.09031e-15 -4.14623e-15 1.9673e-14 8.94042e-15 -2.24486e-14 6.77364e-15 1.34607e-14 3.01855e-14 -1.52742e-14 2.20715e-14 -1.01128e-15 2.37044e-14 -1.43343e-14 1.82041e-15 2.28602e-14 2.84132e-14 2.49933e-15 -2.57008e-14 2.6455e-14 7.69892e-15 8.2259e-15 -3.52092e-14 1.64816e-14 2.92566e-14 -4.81664e-14 4.09718e-14 2.1853e-14 2.35424e-14 4.26149e-14 2.25595e-13 1.48009e-12 1.29882e-11 1.00049e-10 7.2757e-10 4.93454e-09 3.11365e-08 1.82119e-07 9.83278e-07 4.87661e-06 2.20898e-05 9.07667e-05 0.000335548 0.00110525 0.00320896 0.00812956 0.0178611 0.0341023 0.0572961 0.0865053 0.12022 0.15718 0.196647 0.238282 0.281982 0.327761 0.375704 0.425941 0.478634 0.533971 0.592153 0.653361 0.717689 0.784945 0.854086 0.9214 0.974361 0.980368 0.96402 0.95008 0.94104 0.936633 0.934909 0.934096 0.933015 0.932993 0.932999 0.93308 0.933613 0.934763 0.934638 0.934419 0.934146 0.933675 0.93333 0.932914 0.932563 0.932233 0.931999 0.931857 0.931813 0.932041 0.933352 0.933831 0.933594 0.932866 0.932398 0.931882 0.931223 0.930619 0.929748 0.929279 0.929117 0.933188 0.936177 0.939196 0.912383 0.92749 0.868324 0.819113 0.816831 0.71011 0.631926 0.519496 0.402415 0.279271 0.172948 0.0928131 0.043456 0.0182799 0.00721354 0.00275551 0.00103506 0.000384666 0.000141666 5.16962e-05 1.86778e-05 6.67502e-06 2.35737e-06 8.21982e-07 2.82751e-07 9.58834e-08 3.20337e-08 1.05379e-08 3.41186e-09 1.08673e-09 3.40457e-10 1.04844e-10 3.17763e-11 9.48103e-12 2.84299e-12 7.73122e-13 3.28277e-13 1.56556e-14 4.3633e-14 4.01309e-14 -1.18026e-13 -1.95419e-14 5.60608e-14 1.29723e-13 7.53968e-15 -1.81687e-14 -9.14403e-14 1.14596e-13 5.25933e-14 -2.64754e-14 -3.15286e-14 -3.90084e-14 -9.53489e-14 2.35189e-14 -4.94466e-14 -5.73071e-14 -6.78803e-14 -1.19778e-13 -8.58278e-14 -1.37583e-13 1.3781e-14 5.50543e-14 -2.56693e-14 -1.6951e-13 -1.25527e-13 3.97584e-14 5.24117e-14 -9.56332e-14 0 0 1.24403e-16 5.67266e-16 1.34769e-15 -3.19732e-15 1.45942e-15 1.27058e-15 -1.66608e-15 -3.29543e-15 6.71942e-15 5.47911e-16 -6.75075e-15 6.22615e-15 -3.30295e-15 1.16206e-14 -8.18891e-16 1.10245e-14 8.05387e-15 1.10073e-14 -3.67979e-15 1.13077e-14 -3.05009e-15 5.0648e-16 1.31816e-14 1.14033e-14 -2.21554e-15 1.57145e-14 2.10483e-14 -5.56732e-15 1.05938e-14 1.55253e-15 -1.55865e-14 1.15435e-14 2.64308e-14 -2.10281e-14 2.77257e-14 1.63167e-14 -3.04597e-15 1.79417e-14 1.84323e-14 -3.0092e-14 3.10902e-14 4.89765e-15 6.1769e-15 -1.69983e-14 1.06329e-14 2.54993e-14 -1.31822e-14 1.61855e-14 -1.19598e-14 2.15843e-14 1.03428e-14 -3.65256e-14 4.77765e-14 6.30718e-14 8.38298e-14 1.83743e-13 1.53677e-12 1.28852e-11 1.00034e-10 7.27554e-10 4.93454e-09 3.11365e-08 1.82119e-07 9.83278e-07 4.87661e-06 2.20898e-05 9.07667e-05 0.000335548 0.00110525 0.00320896 0.00812956 0.0178611 0.0341023 0.0572961 0.0865053 0.12022 0.15718 0.196647 0.238282 0.281982 0.327761 0.375704 0.425941 0.478634 0.533971 0.592153 0.653361 0.717689 0.784945 0.854086 0.9214 0.974361 0.980368 0.96402 0.95008 0.94104 0.936633 0.934909 0.934096 0.933015 0.932993 0.932999 0.93308 0.933613 0.934763 0.934638 0.934419 0.934146 0.933675 0.93333 0.932914 0.932563 0.932233 0.931999 0.931857 0.931813 0.932041 0.933352 0.933831 0.933594 0.932866 0.932398 0.931882 0.931223 0.930619 0.929748 0.929279 0.929117 0.933188 0.936177 0.939196 0.912383 0.92749 0.868324 0.819113 0.816831 0.71011 0.631926 0.519496 0.402415 0.279271 0.172948 0.0928131 0.043456 0.0182799 0.00721354 0.00275551 0.00103506 0.000384666 0.000141666 5.16962e-05 1.86778e-05 6.67502e-06 2.35737e-06 8.21982e-07 2.82751e-07 9.58834e-08 3.20337e-08 1.05379e-08 3.41182e-09 1.08677e-09 3.40523e-10 1.0486e-10 3.1815e-11 9.59943e-12 2.68641e-12 8.1745e-13 1.41009e-13 -4.84267e-14 2.1225e-14 7.96596e-14 1.03871e-13 2.40756e-14 -7.38017e-14 6.44737e-14 3.9189e-15 3.85945e-14 6.42805e-14 -6.4044e-14 -5.47903e-14 -5.59814e-14 -4.58538e-14 1.55787e-14 3.36947e-14 -7.02616e-14 -6.49068e-14 -1.13304e-13 5.69073e-15 -1.36027e-13 -2.80455e-14 -1.09734e-14 -6.20799e-14 -4.23129e-14 -4.75913e-14 -9.02179e-14 3.33967e-14 -3.02038e-14 -2.34774e-14 8.91308e-15 0 0 1.21145e-15 1.33895e-15 2.18956e-15 2.084e-16 -1.75896e-15 1.7891e-15 5.92552e-15 -5.3472e-15 -3.57707e-15 -1.92446e-15 3.83003e-15 -3.12965e-15 7.93818e-15 6.89409e-15 1.17676e-14 1.15928e-14 8.2503e-15 6.39118e-15 4.97077e-15 1.41632e-14 -2.2472e-15 2.71605e-15 5.94304e-15 1.66573e-14 -1.32189e-14 1.30043e-14 1.75365e-14 -1.61347e-14 1.93485e-14 4.96657e-15 -7.69196e-15 3.63908e-15 2.18054e-14 -2.75062e-14 2.78789e-14 -7.34198e-15 -2.33806e-15 1.5477e-14 2.76062e-14 1.26335e-14 -2.6045e-14 1.79604e-14 -1.46986e-14 3.44715e-14 -6.95573e-15 9.40467e-15 2.72155e-14 1.47746e-14 1.65061e-14 -6.62991e-15 2.62039e-14 -3.23829e-14 7.19316e-14 7.23161e-14 1.11973e-13 1.5858e-13 1.49398e-12 1.28626e-11 1.00072e-10 7.27458e-10 4.9345e-09 3.11366e-08 1.82119e-07 9.83278e-07 4.87661e-06 2.20898e-05 9.07667e-05 0.000335548 0.00110525 0.00320896 0.00812956 0.0178611 0.0341023 0.0572961 0.0865053 0.12022 0.15718 0.196647 0.238282 0.281982 0.327761 0.375704 0.425941 0.478634 0.533971 0.592153 0.653361 0.717689 0.784945 0.854086 0.9214 0.974361 0.980368 0.96402 0.95008 0.94104 0.936633 0.934909 0.934096 0.933015 0.932993 0.932999 0.93308 0.933613 0.934763 0.934638 0.934419 0.934146 0.933675 0.93333 0.932914 0.932563 0.932233 0.931999 0.931857 0.931813 0.932041 0.933352 0.933831 0.933594 0.932866 0.932398 0.931882 0.931223 0.930619 0.929748 0.929279 0.929117 0.933188 0.936177 0.939196 0.912383 0.92749 0.868324 0.819113 0.816831 0.71011 0.631926 0.519496 0.402415 0.279271 0.172948 0.0928131 0.043456 0.0182799 0.00721354 0.00275551 0.00103506 0.000384666 0.000141666 5.16962e-05 1.86778e-05 6.67502e-06 2.35737e-06 8.21982e-07 2.82751e-07 9.58835e-08 3.20336e-08 1.0538e-08 3.41184e-09 1.08684e-09 3.40508e-10 1.04928e-10 3.17721e-11 9.4957e-12 2.7705e-12 8.25099e-13 2.17015e-13 -4.7891e-14 -1.45021e-13 1.19498e-13 1.25978e-13 -6.18029e-14 2.24675e-15 -1.31293e-13 1.11352e-13 4.30506e-14 1.01211e-13 -9.38218e-14 -1.14736e-13 -1.62177e-13 -7.61411e-14 -1.64575e-14 1.19658e-13 -8.02767e-14 -1.05248e-13 -1.51764e-14 -3.87294e-14 9.84841e-14 -7.85537e-14 -7.45658e-14 -9.51467e-14 2.12265e-15 5.83102e-14 -8.81626e-15 5.85066e-14 4.18149e-14 -7.86277e-14 4.40579e-14 0 0 4.38396e-16 3.26944e-16 1.74091e-15 3.60867e-15 1.69378e-15 -1.03696e-15 5.68461e-15 4.33983e-15 -6.39756e-15 -5.0003e-15 7.86068e-15 -4.11336e-15 1.02451e-14 -4.17207e-15 1.45299e-14 1.37241e-14 4.28368e-15 1.31739e-14 1.39602e-14 9.58169e-15 -1.18204e-14 8.36533e-15 7.32037e-15 9.4913e-15 -7.51133e-15 3.85537e-15 -8.11495e-15 1.45561e-14 -6.82764e-15 1.28946e-14 2.02166e-15 2.08032e-14 3.00377e-14 -2.52643e-14 -1.27679e-14 -1.94047e-14 -2.04321e-14 2.81843e-14 4.07304e-15 2.53086e-14 -9.09804e-15 -7.29652e-15 6.23631e-15 3.10846e-14 1.44933e-14 3.37417e-16 4.05867e-14 1.54581e-14 2.98947e-14 1.89679e-15 1.08003e-14 2.29047e-14 4.35189e-14 4.41877e-14 7.13274e-14 2.35672e-13 1.48483e-12 1.29287e-11 1.00002e-10 7.27482e-10 4.93441e-09 3.11365e-08 1.82119e-07 9.83278e-07 4.87661e-06 2.20898e-05 9.07667e-05 0.000335548 0.00110525 0.00320896 0.00812956 0.0178611 0.0341023 0.0572961 0.0865053 0.12022 0.15718 0.196647 0.238282 0.281982 0.327761 0.375704 0.425941 0.478634 0.533971 0.592153 0.653361 0.717689 0.784945 0.854086 0.9214 0.974361 0.980368 0.96402 0.95008 0.94104 0.936633 0.934909 0.934096 0.933015 0.932993 0.932999 0.93308 0.933613 0.934763 0.934638 0.934419 0.934146 0.933675 0.93333 0.932914 0.932563 0.932233 0.931999 0.931857 0.931813 0.932041 0.933352 0.933831 0.933594 0.932866 0.932398 0.931882 0.931223 0.930619 0.929748 0.929279 0.929117 0.933188 0.936177 0.939196 0.912383 0.92749 0.868324 0.819113 0.816831 0.71011 0.631926 0.519496 0.402415 0.279271 0.172948 0.0928131 0.043456 0.0182799 0.00721354 0.00275551 0.00103506 0.000384666 0.000141666 5.16962e-05 1.86778e-05 6.67502e-06 2.35737e-06 8.21982e-07 2.82751e-07 9.58836e-08 3.20335e-08 1.0538e-08 3.41193e-09 1.0868e-09 3.4056e-10 1.04878e-10 3.18649e-11 9.28144e-12 3.11917e-12 8.04188e-13 3.01862e-13 -6.6761e-14 -5.67773e-15 -1.22757e-13 -4.85108e-14 -1.04831e-14 1.44812e-13 -5.12967e-14 -8.31671e-14 -1.93336e-13 1.13859e-13 2.55976e-14 -1.54335e-13 -1.05038e-13 -1.07458e-13 9.34535e-14 9.3887e-14 -1.04747e-13 -1.0074e-13 4.1225e-14 1.16273e-13 7.65455e-14 -9.41051e-14 -8.9109e-14 -1.00352e-13 9.52884e-14 1.18713e-13 -1.17755e-13 7.87079e-14 7.11366e-14 9.61042e-14 -3.48276e-14 0 0 -1.68077e-15 3.57938e-16 -1.10894e-15 1.07995e-15 6.38973e-15 -1.52635e-15 -4.62649e-15 -1.03673e-15 6.58675e-16 1.23747e-15 -5.5919e-15 4.41374e-15 -2.90894e-15 1.06434e-14 -4.85302e-15 1.6523e-14 1.21462e-15 9.46969e-15 1.33969e-14 1.46112e-14 -4.59362e-15 1.59547e-14 1.21691e-14 1.61068e-14 -1.46752e-14 -1.13083e-14 1.08371e-14 2.22047e-14 -2.74275e-14 7.28209e-16 3.50846e-14 1.57425e-14 3.35866e-14 -2.99465e-14 -8.06049e-16 -4.20287e-14 -2.30246e-14 1.72848e-14 7.09666e-15 -5.75041e-14 4.03534e-14 -3.89912e-14 1.32193e-14 5.04986e-14 2.60053e-14 4.49697e-16 -1.05463e-14 6.39629e-14 2.59372e-14 5.06397e-14 2.02148e-14 5.53367e-14 2.46874e-14 8.05704e-14 6.84423e-14 1.84948e-13 1.56218e-12 1.28273e-11 9.99167e-11 7.27553e-10 4.93434e-09 3.11367e-08 1.82119e-07 9.83278e-07 4.87661e-06 2.20898e-05 9.07667e-05 0.000335548 0.00110525 0.00320896 0.00812956 0.0178611 0.0341023 0.0572961 0.0865053 0.12022 0.15718 0.196647 0.238282 0.281982 0.327761 0.375704 0.425941 0.478634 0.533971 0.592153 0.653361 0.717689 0.784945 0.854086 0.9214 0.974361 0.980368 0.96402 0.95008 0.94104 0.936633 0.934909 0.934096 0.933015 0.932993 0.932999 0.93308 0.933613 0.934763 0.934638 0.934419 0.934146 0.933675 0.93333 0.932914 0.932563 0.932233 0.931999 0.931857 0.931813 0.932041 0.933352 0.933831 0.933594 0.932866 0.932398 0.931882 0.931223 0.930619 0.929748 0.929279 0.929117 0.933188 0.936177 0.939196 0.912383 0.92749 0.868324 0.819113 0.816831 0.71011 0.631926 0.519496 0.402415 0.279271 0.172948 0.0928131 0.043456 0.0182799 0.00721354 0.00275551 0.00103506 0.000384666 0.000141666 5.16962e-05 1.86778e-05 6.67502e-06 2.35737e-06 8.21982e-07 2.82751e-07 9.58836e-08 3.20335e-08 1.0538e-08 3.41188e-09 1.08685e-09 3.40528e-10 1.04958e-10 3.1858e-11 9.46663e-12 3.05673e-12 8.42846e-13 -2.48615e-15 9.17451e-14 -1.89159e-14 -2.93548e-13 1.75645e-14 3.08674e-13 2.23959e-13 -1.23128e-13 -1.18777e-13 -2.54352e-13 9.38068e-14 -5.39897e-14 -1.77339e-13 -2.88322e-14 -6.89854e-14 8.19161e-14 -6.78516e-14 3.99247e-15 2.41441e-14 2.17501e-14 2.2925e-13 -1.43993e-13 -2.27762e-14 -1.76816e-14 -1.55439e-13 1.74984e-13 -1.52013e-13 -4.26704e-14 1.31126e-13 7.82521e-14 -7.31718e-14 5.05303e-15 0 0 -2.8201e-15 6.04807e-16 -3.09305e-15 -2.48979e-16 6.87142e-17 2.09562e-15 -5.2831e-15 -8.98532e-15 -4.46727e-15 8.05075e-15 -2.11484e-15 -8.45723e-15 2.16784e-15 9.34886e-15 -2.07216e-15 7.72492e-16 8.89979e-15 3.54137e-15 1.2091e-14 8.71778e-15 1.74644e-14 2.573e-14 6.30216e-15 1.69682e-14 -1.16362e-14 -1.33158e-14 3.29708e-14 -9.98382e-15 -4.01734e-15 -8.56435e-15 5.94666e-14 -1.91564e-14 1.13075e-14 7.86471e-15 8.95576e-15 -7.04938e-14 -4.78045e-15 -3.02409e-15 1.00608e-14 -7.8354e-14 7.49262e-15 -8.8506e-15 -2.52859e-14 1.16067e-13 1.43017e-14 -2.42658e-14 -1.32446e-14 5.89787e-14 6.54982e-14 7.03138e-14 2.38468e-15 1.14121e-13 3.25003e-14 1.14796e-13 9.3131e-14 7.38184e-14 1.54922e-12 1.27402e-11 9.99538e-11 7.27521e-10 4.93432e-09 3.11368e-08 1.82119e-07 9.83278e-07 4.87661e-06 2.20898e-05 9.07667e-05 0.000335548 0.00110525 0.00320896 0.00812956 0.0178611 0.0341023 0.0572961 0.0865053 0.12022 0.15718 0.196647 0.238282 0.281982 0.327761 0.375704 0.425941 0.478634 0.533971 0.592153 0.653361 0.717689 0.784945 0.854086 0.9214 0.974361 0.980368 0.96402 0.95008 0.94104 0.936633 0.934909 0.934096 0.933015 0.932993 0.932999 0.93308 0.933613 0.934763 0.934638 0.934419 0.934146 0.933675 0.93333 0.932914 0.932563 0.932233 0.931999 0.931857 0.931813 0.932041 0.933352 0.933831 0.933594 0.932866 0.932398 0.931882 0.931223 0.930619 0.929748 0.929279 0.929117 0.933188 0.936177 0.939196 0.912383 0.92749 0.868324 0.819113 0.816831 0.71011 0.631926 0.519496 0.402415 0.279271 0.172948 0.0928131 0.043456 0.0182799 0.00721354 0.00275551 0.00103506 0.000384666 0.000141666 5.16962e-05 1.86778e-05 6.67502e-06 2.35737e-06 8.21982e-07 2.82751e-07 9.58836e-08 3.20336e-08 1.05382e-08 3.4118e-09 1.08697e-09 3.40362e-10 1.05141e-10 3.16767e-11 9.64392e-12 2.88664e-12 8.65699e-13 -1.28377e-13 3.33696e-13 -3.1536e-13 -2.21527e-13 5.84994e-14 4.46868e-13 3.66293e-13 -4.05228e-13 1.51395e-13 -1.31337e-13 -5.75899e-14 -1.03926e-13 -1.13317e-13 -8.66463e-14 -1.50286e-14 -1.25826e-13 -2.46696e-13 2.21149e-13 1.20065e-13 1.00574e-13 6.93798e-14 -9.19613e-14 -4.42197e-14 -1.21628e-13 -1.62835e-13 3.02387e-13 -3.55622e-13 1.43478e-13 2.94758e-14 1.97954e-13 -3.96475e-13 5.44424e-14 0
				</DataArray>
				<DataArray Name="VitesseY" type="Float32" format="ascii">