<?xml version="1.0"?>
<VTKFile type="PolyData">
	<PolyData>
		<Piece NumberOfPoints="1206" NumberOfPolys="1000">
			<Points>
				<DataArray type="Float32" NumberOfComponents="3" format="ascii">
 0 0 0 0.005 0 0 0.01 0 0 0.015 0 0 0.02 0 0 0.025 0 0 0.03 0 0 0.035 0 0 0.04 0 0 0.045 0 0 0.05 0 0 0.055 0 0 0.06 0 0 0.065 0 0 0.07 0 0 0.075 0 0 0.08 0 0 0.085 0 0 0.09 0 0 0.095 0 0 0.1 0 0 0.105 0 0 0.11 0 0 0.115 0 0 0.12 0 0 0.125 0 0 0.13 0 0 0.135 0 0 0.14 0 0 0.145 0 0 0.15 0 0 0.155 0 0 0.16 0 0 0.165 0 0 0.17 0 0 0.175 0 0 0.18 0 0 0.185 0 0 0.19 0 0 0.195 0 0 0.2 0 0 0.205 0 0 0.21 0 0 0.215 0 0 0.22 0 0 0.225 0 0 0.23 0 0 0.235 0 0 0.24 0 0 0.245 0 0 0.25 0 0 0.255 0 0 0.26 0 0 0.265 0 0 0.27 0 0 0.275 0 0 0.28 0 0 0.285 0 0 0.29 0 0 0.295 0 0 0.3 0 0 0.305 0 0 0.31 0 0 0.315 0 0 0.32 0 0 0.325 0 0 0.33 0 0 0.335 0 0 0.34 0 0 0.345 0 0 0.35 0 0 0.355 0 0 0.36 0 0 0.365 0 0 0.37 0 0 0.375 0 0 0.38 0 0 0.385 0 0 0.39 0 0 0.395 0 0 0.4 0 0 0.405 0 0 0.41 0 0 0.415 0 0 0.42 0 0 0.425 0 0 0.43 0 0 0.435 0 0 0.44 0 0 0.445 0 0 0.450002 0 0 0.455016 0 0 0.460081 0 0 0.465308 0 0 0.470897 0 0 0.477108 0 0 0.484255 0 0 0.492762 0 0 0.503225 0 0 0.515734 0 0 0.52808 0 0 0.530749 0 0 0.533348 0 0 0.535909 0 0 0.538443 0 0 0.540931 0 0 0.543404 0 0 0.545913 0 0 0.548541 0 0 0.551329 0 0 0.554392 0 0 0.557781 0 0 0.561568 0 0 0.565759 0 0 0.570305 0 0 0.575101 0 0 0.580028 0 0 0.585007 0 0 0.590002 0 0 0.595 0 0 0.6 0 0 0.605 0 0 0.61 0 0 0.615 0 0 0.62 0 0 0.625 0 0 0.63 0 0 0.635 0 0 0.64 0 0 0.645 0 0 0.65 0 0 0.655 0 0 0.66 0 0 0.665 0 0 0.67 0 0 0.675 0 0 0.68 0 0 0.685 0 0 0.69 0 0 0.695 0 0 0.7 0 0 0.705 0 0 0.71 0 0 0.715 0 0 0.72 0 0 0.725 0 0 0.73 0 0 0.735 0 0 0.74 0 0 0.745 0 0 0.75 0 0 0.755 0 0 0.76 0 0 0.765 0 0 0.77 0 0 0.775 0 0 0.78 0 0 0.785 0 0 0.79 0 0 0.795 0 0 0.8 0 0 0.805 0 0 0.81 0 0 0.815 0 0 0.82 0 0 0.825 0 0 0.83 0 0 0.835 0 0 0.84 0 0 0.845 0 0 0.85 0 0 0.855 0 0 0.86 0 0 0.865 0 0 0.87 0 0 0.875 0 0 0.88 0 0 0.885 0 0 0.89 0 0 0.895 0 0 0.9 0 0 0.905 0 0 0.91 0 0 0.915 0 0 0.92 0 0 0.925 0 0 0.93 0 0 0.935 0 0 0.94 0 0 0.945 0 0 0.95 0 0 0.955 0 0 0.96 0 0 0.965 0 0 0.97 0 0 0.975 0 0 0.98 0 0 0.985 0 0 0.99 0 0 0.995 0 0 1 0 0 0 0.02 0 0.005 0.02 0 0.01 0.02 0 0.015 0.02 0 0.02 0.02 0 0.025 0.02 0 0.03 0.02 0 0.035 0.02 0 0.04 0.02 0 0.045 0.02 0 0.05 0.02 0 0.055 0.02 0 0.06 0.02 0 0.065 0.02 0 0.07 0.02 0 0.075 0.02 0 0.08 0.02 0 0.085 0.02 0 0.09 0.02 0 0.095 0.02 0 0.1 0.02 0 0.105 0.02 0 0.11 0.02 0 0.115 0.02 0 0.12 0.02 0 0.125 0.02 0 0.13 0.02 0 0.135 0.02 0 0.14 0.02 0 0.145 0.02 0 0.15 0.02 0 0.155 0.02 0 0.16 0.02 0 0.165 0.02 0 0.17 0.02 0 0.175 0.02 0 0.18 0.02 0 0.185 0.02 0 0.19 0.02 0 0.195 0.02 0 0.2 0.02 0 0.205 0.02 0 0.21 0.02 0 0.215 0.02 0 0.22 0.02 0 0.225 0.02 0 0.23 0.02 0 0.235 0.02 0 0.24 0.02 0 0.245 0.02 0 0.25 0.02 0 0.255 0.02 0 0.26 0.02 0 0.265 0.02 0 0.27 0.02 0 0.275 0.02 0 0.28 0.02 0 0.285 0.02 0 0.29 0.02 0 0.295 0.02 0 0.3 0.02 0 0.305 0.02 0 0.31 0.02 0 0.315 0.02 0 0.32 0.02 0 0.325 0.02 0 0.33 0.02 0 0.335 0.02 0 0.34 0.02 0 0.345 0.02 0 0.35 0.02 0 0.355 0.02 0 0.36 0.02 0 0.365 0.02 0 0.37 0.02 0 0.375 0.02 0 0.38 0.02 0 0.385 0.02 0 0.39 0.02 0 0.395 0.02 0 0.4 0.02 0 0.405 0.02 0 0.41 0.02 0 0.415 0.02 0 0.42 0.02 0 0.425 0.02 0 0.43 0.02 0 0.435 0.02 0 0.44 0.02 0 0.445 0.02 0 0.450002 0.02 0 0.455016 0.02 0 0.460081 0.02 0 0.465308 0.02 0 0.470897 0.02 0 0.477108 0.02 0 0.484255 0.02 0 0.492762 0.02 0 0.503225 0.02 0 0.515734 0.02 0 0.52808 0.02 0 0.530749 0.02 0 0.533348 0.02 0 0.535909 0.02 0 0.538443 0.02 0 0.540931 0.02 0 0.543404 0.02 0 0.545913 0.02 0 0.548541 0.02 0 0.551329 0.02 0 0.554392 0.02 0 0.557781 0.02 0 0.561568 0.02 0 0.565759 0.02 0 0.570305 0.02 0 0.575101 0.02 0 0.580028 0.02 0 0.585007 0.02 0 0.590002 0.02 0 0.595 0.02 0 0.6 0.02 0 0.605 0.02 0 0.61 0.02 0 0.615 0.02 0 0.62 0.02 0 0.625 0.02 0 0.63 0.02 0 0.635 0.02 0 0.64 0.02 0 0.645 0.02 0 0.65 0.02 0 0.655 0.02 0 0.66 0.02 0 0.665 0.02 0 0.67 0.02 0 0.675 0.02 0 0.68 0.02 0 0.685 0.02 0 0.69 0.02 0 0.695 0.02 0 0.7 0.02 0 0.705 0.02 0 0.71 0.02 0 0.715 0.02 0 0.72 0.02 0 0.725 0.02 0 0.73 0.02 0 0.735 0.02 0 0.74 0.02 0 0.745 0.02 0 0.75 0.02 0 0.755 0.02 0 0.76 0.02 0 0.765 0.02 0 0.77 0.02 0 0.775 0.02 0 0.78 0.02 0 0.785 0.02 0 0.79 0.02 0 0.795 0.02 0 0.8 0.02 0 0.805 0.02 0 0.81 0.02 0 0.815 0.02 0 0.82 0.02 0 0.825 0.02 0 0.83 0.02 0 0.835 0.02 0 0.84 0.02 0 0.845 0.02 0 0.85 0.02 0 0.855 0.02 0 0.86 0.02 0 0.865 0.02 0 0.87 0.02 0 0.875 0.02 0 0.88 0.02 0 0.885 0.02 0 0.89 0.02 0 0.895 0.02 0 0.9 0.02 0 0.905 0.02 0 0.91 0.02 0 0.915 0.02 0 0.92 0.02 0 0.925 0.02 0 0.93 0.02 0 0.935 0.02 0 0.94 0.02 0 0.945 0.02 0 0.95 0.02 0 0.955 0.02 0 0.96 0.02 0 0.965 0.02 0 0.97 0.02 0 0.975 0.02 0 0.98 0.02 0 0.985 0.02 0 0.99 0.02 0 0.995 0.02 0 1 0.02 0 0 0.04 0 0.005 0.04 0 0.01 0.04 0 0.015 0.04 0 0.02 0.04 0 0.025 0.04 0 0.03 0.04 0 0.035 0.04 0 0.04 0.04 0 0.045 0.04 0 0.05 0.04 0 0.055 0.04 0 0.06 0.04 0 0.065 0.04 0 0.07 0.04 0 0.075 0.04 0 0.08 0.04 0 0.085 0.04 0 0.09 0.04 0 0.095 0.04 0 0.1 0.04 0 0.105 0.04 0 0.11 0.04 0 0.115 0.04 0 0.12 0.04 0 0.125 0.04 0 0.13 0.04 0 0.135 0.04 0 0.14 0.04 0 0.145 0.04 0 0.15 0.04 0 0.155 0.04 0 0.16 0.04 0 0.165 0.04 0 0.17 0.04 0 0.175 0.04 0 0.18 0.04 0 0.185 0.04 0 0.19 0.04 0 0.195 0.04 0 0.2 0.04 0 0.205 0.04 0 0.21 0.04 0 0.215 0.04 0 0.22 0.04 0 0.225 0.04 0 0.23 0.04 0 0.235 0.04 0 0.24 0.04 0 0.245 0.04 0 0.25 0.04 0 0.255 0.04 0 0.26 0.04 0 0.265 0.04 0 0.27 0.04 0 0.275 0.04 0 0.28 0.04 0 0.285 0.04 0 0.29 0.04 0 0.295 0.04 0 0.3 0.04 0 0.305 0.04 0 0.31 0.04 0 0.315 0.04 0 0.32 0.04 0 0.325 0.04 0 0.33 0.04 0 0.335 0.04 0 0.34 0.04 0 0.345 0.04 0 0.35 0.04 0 0.355 0.04 0 0.36 0.04 0 0.365 0.04 0 0.37 0.04 0 0.375 0.04 0 0.38 0.04 0 0.385 0.04 0 0.39 0.04 0 0.395 0.04 0 0.4 0.04 0 0.405 0.04 0 0.41 0.04 0 0.415 0.04 0 0.42 0.04 0 0.425 0.04 0 0.43 0.04 0 0.435 0.04 0 0.44 0.04 0 0.445 0.04 0 0.450002 0.04 0 0.455016 0.04 0 0.460081 0.04 0 0.465308 0.04 0 0.470897 0.04 0 0.477108 0.04 0 0.484255 0.04 0 0.492762 0.04 0 0.503225 0.04 0 0.515734 0.04 0 0.52808 0.04 0 0.530749 0.04 0 0.533348 0.04 0 0.535909 0.04 0 0.538443 0.04 0 0.540931 0.04 0 0.543404 0.04 0 0.545913 0.04 0 0.548541 0.04 0 0.551329 0.04 0 0.554392 0.04 0 0.557781 0.04 0 0.561568 0.04 0 0.565759 0.04 0 0.570305 0.04 0 0.575101 0.04 0 0.580028 0.04 0 0.585007 0.04 0 0.590002 0.04 0 0.595 0.04 0 0.6 0.04 0 0.605 0.04 0 0.61 0.04 0 0.615 0.04 0 0.62 0.04 0 0.625 0.04 0 0.63 0.04 0 0.635 0.04 0 0.64 0.04 0 0.645 0.04 0 0.65 0.04 0 0.655 0.04 0 0.66 0.04 0 0.665 0.04 0 0.67 0.04 0 0.675 0.04 0 0.68 0.04 0 0.685 0.04 0 0.69 0.04 0 0.695 0.04 0 0.7 0.04 0 0.705 0.04 0 0.71 0.04 0 0.715 0.04 0 0.72 0.04 0 0.725 0.04 0 0.73 0.04 0 0.735 0.04 0 0.74 0.04 0 0.745 0.04 0 0.75 0.04 0 0.755 0.04 0 0.76 0.04 0 0.765 0.04 0 0.77 0.04 0 0.775 0.04 0 0.78 0.04 0 0.785 0.04 0 0.79 0.04 0 0.795 0.04 0 0.8 0.04 0 0.805 0.04 0 0.81 0.04 0 0.815 0.04 0 0.82 0.04 0 0.825 0.04 0 0.83 0.04 0 0.835 0.04 0 0.84 0.04 0 0.845 0.04 0 0.85 0.04 0 0.855 0.04 0 0.86 0.04 0 0.865 0.04 0 0.87 0.04 0 0.875 0.04 0 0.88 0.04 0 0.885 0.04 0 0.89 0.04 0 0.895 0.04 0 0.9 0.04 0 0.905 0.04 0 0.91 0.04 0 0.915 0.04 0 0.92 0.04 0 0.925 0.04 0 0.93 0.04 0 0.935 0.04 0 0.94 0.04 0 0.945 0.04 0 0.95 0.04 0 0.955 0.04 0 0.96 0.04 0 0.965 0.04 0 0.97 0.04 0 0.975 0.04 0 0.98 0.04 0 0.985 0.04 0 0.99 0.04 0 0.995 0.04 0 1 0.04 0 0 0.06 0 0.005 0.06 0 0.01 0.06 0 0.015 0.06 0 0.02 0.06 0 0.025 0.06 0 0.03 0.06 0 0.035 0.06 0 0.04 0.06 0 0.045 0.06 0 0.05 0.06 0 0.055 0.06 0 0.06 0.06 0 0.065 0.06 0 0.07 0.06 0 0.075 0.06 0 0.08 0.06 0 0.085 0.06 0 0.09 0.06 0 0.095 0.06 0 0.1 0.06 0 0.105 0.06 0 0.11 0.06 0 0.115 0.06 0 0.12 0.06 0 0.125 0.06 0 0.13 0.06 0 0.135 0.06 0 0.14 0.06 0 0.145 0.06 0 0.15 0.06 0 0.155 0.06 0 0.16 0.06 0 0.165 0.06 0 0.17 0.06 0 0.175 0.06 0 0.18 0.06 0 0.185 0.06 0 0.19 0.06 0 0.195 0.06 0 0.2 0.06 0 0.205 0.06 0 0.21 0.06 0 0.215 0.06 0 0.22 0.06 0 0.225 0.06 0 0.23 0.06 0 0.235 0.06 0 0.24 0.06 0 0.245 0.06 0 0.25 0.06 0 0.255 0.06 0 0.26 0.06 0 0.265 0.06 0 0.27 0.06 0 0.275 0.06 0 0.28 0.06 0 0.285 0.06 0 0.29 0.06 0 0.295 0.06 0 0.3 0.06 0 0.305 0.06 0 0.31 0.06 0 0.315 0.06 0 0.32 0.06 0 0.325 0.06 0 0.33 0.06 0 0.335 0.06 0 0.34 0.06 0 0.345 0.06 0 0.35 0.06 0 0.355 0.06 0 0.36 0.06 0 0.365 0.06 0 0.37 0.06 0 0.375 0.06 0 0.38 0.06 0 0.385 0.06 0 0.39 0.06 0 0.395 0.06 0 0.4 0.06 0 0.405 0.06 0 0.41 0.06 0 0.415 0.06 0 0.42 0.06 0 0.425 0.06 0 0.43 0.06 0 0.435 0.06 0 0.44 0.06 0 0.445 0.06 0 0.450002 0.06 0 0.455016 0.06 0 0.460081 0.06 0 0.465308 0.06 0 0.470897 0.06 0 0.477108 0.06 0 0.484255 0.06 0 0.492762 0.06 0 0.503225 0.06 0 0.515734 0.06 0 0.52808 0.06 0 0.530749 0.06 0 0.533348 0.06 0 0.535909 0.06 0 0.538443 0.06 0 0.540931 0.06 0 0.543404 0.06 0 0.545913 0.06 0 0.548541 0.06 0 0.551329 0.06 0 0.554392 0.06 0 0.557781 0.06 0 0.561568 0.06 0 0.565759 0.06 0 0.570305 0.06 0 0.575101 0.06 0 0.580028 0.06 0 0.585007 0.06 0 0.590002 0.06 0 0.595 0.06 0 0.6 0.06 0 0.605 0.06 0 0.61 0.06 0 0.615 0.06 0 0.62 0.06 0 0.625 0.06 0 0.63 0.06 0 0.635 0.06 0 0.64 0.06 0 0.645 0.06 0 0.65 0.06 0 0.655 0.06 0 0.66 0.06 0 0.665 0.06 0 0.67 0.06 0 0.675 0.06 0 0.68 0.06 0 0.685 0.06 0 0.69 0.06 0 0.695 0.06 0 0.7 0.06 0 0.705 0.06 0 0.71 0.06 0 0.715 0.06 0 0.72 0.06 0 0.725 0.06 0 0.73 0.06 0 0.735 0.06 0 0.74 0.06 0 0.745 0.06 0 0.75 0.06 0 0.755 0.06 0 0.76 0.06 0 0.765 0.06 0 0.77 0.06 0 0.775 0.06 0 0.78 0.06 0 0.785 0.06 0 0.79 0.06 0 0.795 0.06 0 0.8 0.06 0 0.805 0.06 0 0.81 0.06 0 0.815 0.06 0 0.82 0.06 0 0.825 0.06 0 0.83 0.06 0 0.835 0.06 0 0.84 0.06 0 0.845 0.06 0 0.85 0.06 0 0.855 0.06 0 0.86 0.06 0 0.865 0.06 0 0.87 0.06 0 0.875 0.06 0 0.88 0.06 0 0.885 0.06 0 0.89 0.06 0 0.895 0.06 0 0.9 0.06 0 0.905 0.06 0 0.91 0.06 0 0.915 0.06 0 0.92 0.06 0 0.925 0.06 0 0.93 0.06 0 0.935 0.06 0 0.94 0.06 0 0.945 0.06 0 0.95 0.06 0 0.955 0.06 0 0.96 0.06 0 0.965 0.06 0 0.97 0.06 0 0.975 0.06 0 0.98 0.06 0 0.985 0.06 0 0.99 0.06 0 0.995 0.06 0 1 0.06 0 0 0.08 0 0.0
[...]
			<PointData Scalars="VitesseX">
				<DataArray Name="VitesseX" type="Float32" format="ascii">
 0 5.08311e-16 -1.08579e-15 1.03269e-16 1.00373e-15 2.57429e-15 -3.17987e-15 -6.34766e-15 6.2894e-15 2.10046e-16 -6.4421e-15 -4.16138e-15 4.15267e-15 4.41544e-15 -1.11289e-14 7.34713e-15 6.70498e-15 -4.21854e-15 6.14636e-16 -1.01598e-14 -5.79624e-15 2.96804e-15 3.90197e-15 4.62983e-15 -2.16644e-16 2.17746e-15 -1.69416e-14 -1.87051e-14 1.20414e-14 -3.29429e-15 -3.79779e-15 -4.36815e-15 6.28455e-16 -4.32445e-15 -1.77489e-14 1.70991e-14 -1.69565e-14 3.90386e-15 1.65645e-14 -2.99316e-14 -1.28592e-14 5.71407e-15 2.22054e-15 1.70467e-14 -2.25943e-16 6.97162e-15 -6.90626e-16 3.60612e-15 1.20152e-14 1.22776e-14 1.73474e-14 -3.83045e-14 -3.06961e-14 7.9095e-15 -4.06089e-14 -5.24362e-15 -1.36616e-14 1.10148e-14 -1.74218e-14 2.10939e-14 8.47178e-15 -6.12276e-15 -1.22508e-14 2.42498e-14 3.09561e-15 -4.30299e-14 -6.53337e-15 -3.40244e-16 7.18499e-16 -1.0086e-14 1.01036e-14 -5.15462e-14 1.22079e-14 4.40051e-14 -2.50807e-14 2.65413e-14 -4.86848e-14 -2.84084e-14 3.56158e-14 -5.14883e-14 -1.29536e-14 4.62159e-14 6.51863e-13 1.59741e-11 3.49141e-10 6.63212e-09 1.07958e-07 1.48586e-06 1.7007e-05 0.000158465 0.0011685 0.00657488 0.0271566 0.080836 0.178843 0.317343 0.489689 0.693604 0.911088 0.989413 0.927339 0.921496 0.917003 0.914422 0.907372 0.921122 0.924606 0.881143 0.861294 0.754509 0.66637 0.517662 0.37036 0.22451 0.111155 0.0430103 0.0134093 0.00363637 0.000905826 0.000211816 4.6808e-05 9.79558e-06 1.94316e-06 3.65671e-07 6.53281e-08 1.10882e-08 1.7892e-09 2.74717e-10 4.00908e-11 5.64387e-12 7.02268e-13 7.58608e-14 -4.77508e-14 5.19879e-14 -1.87371e-14 -5.93745e-15 -5.38115e-15 -1.42093e-14 6.60872e-15 -6.18922e-14 -2.98357e-14 -4.55952e-14 7.17392e-14 -2.5835e-14 3.42917e-14 -5.44025e-14 5.36967e-14 5.20419e-16 1.6566e-14 5.98009e-15 -4.45236e-14 8.03396e-14 1.14696e-14 -5.33304e-14 -2.32511e-14 -4.06029e-14 -8.60069e-14 -1.11419e-14 -1.28544e-14 -1.78185e-14 -2.20995e-14 -2.35846e-14 3.83613e-14 -5.65411e-14 1.93955e-14 6.92623e-15 -5.12852e-14 3.22998e-14 6.1582e-14 2.04763e-14 2.47468e-14 -5.02087e-14 1.30115e-14 -6.92002e-14 8.99016e-14 -4.70604e-14 2.57247e-14 7.82646e-14 3.00925e-14 -5.62553e-14 2.06938e-14 -6.20021e-16 -7.1776e-14 6.86922e-14 -5.54211e-14 9.86345e-14 -8.27434e-14 -3.73579e-14 7.5193e-14 -7.41279e-14 3.06827e-14 9.6613e-14 -5.88215e-14 1.94292e-14 1.63955e-14 7.16614e-14 8.41829e-14 8.28349e-14 -5.14121e-14 1.0172e-13 0 0 -1.14159e-16 2.02392e-16 -5.46313e-16 -8.34772e-16 -1.22631e-15 -3.40096e-16 4.42039e-15 -5.47498e-15 -2.2827e-15 -2.24758e-15 5.16588e-15 -6.85846e-15 -1.18083e-15 4.73755e-15 3.4631e-15 -4.51084e-15 5.79452e-15 -3.06389e-15 -3.38252e-15 -5.99921e-15 -9.00107e-15 2.71772e-15 7.86339e-15 1.56628e-15 -5.21268e-15 -2.80375e-14 3.78945e-15 6.99014e-15 -2.55447e-14 -3.93576e-16 5.35174e-15 -8.35289e-15 -1.43068e-14 1.16797e-14 -5.91522e-15 -1.76265e-14 7.66513e-15 4.90014e-15 -1.52026e-14 -9.77998e-15 1.50024e-14 -7.8487e-15 2.37548e-14 -1.61337e-14 1.92702e-14 -5.85086e-15 1.95486e-14 -2.2865e-15 -4.60044e-15 1.41074e-14 -4.95557e-14 -7.40007e-15 -1.82264e-14 -4.72571e-15 -2.29251e-14 -1.88129e-14 2.29799e-14 -2.41582e-14 6.87332e-16 6.28659e-15 2.84233e-15 -1.01974e-14 3.43663e-14 -2.47363e-14 -3.76224e-14 -6.23937e-15 -1.2135e-15 -6.53857e-15 2.71919e-14 -1.14652e-14 -4.03593e-14 -2.13299e-16 1.16091e-14 1.46802e-14 5.24195e-15 -3.65417e-14 -3.20527e-15 -3.04729e-14 -2.69264e-14 -3.60238e-14 7.31809e-14 7.16219e-13 1.59507e-11 3.49107e-10 6.6322e-09 1.07958e-07 1.48586e-06 1.7007e-05 0.000158465 0.0011685 0.00657488 0.0271566 0.080836 0.178843 0.317343 0.489689 0.693604 0.911088 0.989413 0.927339 0.921496 0.917003 0.914422 0.907372 0.921122 0.924606 0.881143 0.861294 0.754509 0.66637 0.517662 0.37036 0.22451 0.111155 0.0430103 0.0134093 0.00363637 0.000905826 0.000211816 4.6808e-05 9.79558e-06 1.94316e-06 3.65671e-07 6.5328e-08 1.10882e-08 1.78923e-09 2.74631e-10 4.01214e-11 5.5903e-12 7.24636e-13 3.9696e-14 2.23954e-14 2.79147e-14 -1.17072e-14 -6.36496e-14 5.21005e-14 -6.70831e-14 -4.55788e-15 -4.88499e-14 1.74829e-14 -6.97467e-14 5.78072e-14 3.13149e-15 -1.93236e-14 -3.65102e-14 6.96451e-14 3.67033e-14 1.93346e-14 -8.53897e-14 7.87328e-14 -2.46438e-14 4.61992e-14 -4.06785e-14 -9.48969e-14 -9.97139e-15 -1.09381e-13 -2.8411e-14 -3.24562e-14 2.67015e-14 4.82248e-14 -1.09459e-13 8.7235e-14 -6.45419e-14 6.34154e-14 -3.85037e-14 -3.16114e-14 3.15016e-14 1.00545e-13 -5.7844e-14 1.24033e-14 -4.50123e-15 -2.67336e-14 -4.52523e-14 1.07053e-14 7.68864e-15 3.37871e-14 2.11673e-14 6.60458e-14 -2.43114e-14 -9.8316e-15 2.38576e-15 -8.96958e-14 7.21227e-14 -4.24607e-14 5.21413e-14 4.60395e-14 -1.32318e-13 8.08441e-14 -1.5222e-14 -1.59666e-14 8.20097e-14 -1.32634e-14 -7.13686e-15 8.70335e-14 5.9637e-14 8.03385e-14 1.24525e-14 7.82529e-14 6.48379e-14 0 0 -7.37857e-16 4.49034e-16 1.29606e-15 -2.28397e-15 -2.45826e-15 7.70676e-16 2.29435e-15 -5.94101e-15 -4.17935e-15 -1.90493e-16 3.38768e-15 -1.15861e-15 -7.68767e-15 1.09055e-14 -8.18964e-15 4.03033e-15 7.66742e-15 -8.85113e-15 -1.01458e-15 3.35925e-15 -1.10352e-14 -9.55193e-15 5.12613e-15 -9.06238e-15 -3.06504e-15 -2.0537e-14 8.82494e-15 -7.69677e-15 -4.03129e-14 -2.21634e-14 1.60547e-14 8.12355e-16 5.04187e-16 1.98326e-14 -1.88023e-14 -1.89765e-14 -1.0417e-14 -3.77857e-15 -1.904e-14 8.67153e-15 3.05948e-15 -6.56175e-15 1.30579e-14 3.8425e-15 -2.9908e-15 3.47826e-14 7.68457e-15 -1.03818e-14 1.60196e-14 -1.6297e-14 -4.17274e-14 -3.43867e-14 4.59753e-15 -4.01925e-14 -3.59453e-14 2.37183e-14 4.42213e-14 -3.01775e-14 -3.97058e-14 -4.44372e-15 2.31302e-15 1.33601e-14 -4.04894e-15 -2.98869e-14 -3.82496e-14 1.65747e-14 -1.29813e-14 3.75616e-15 1.59946e-14 -2.18367e-14 -3.8134e-14 -2.11533e-14 2.34433e-14 5.88461e-15 -2.04872e-14 3.12768e-14 -3.10846e-14 -6.1245e-14 -3.52496e-14 3.49774e-14 7.97704e-14 7.21786e-13 1.59785e-11 3.49102e-10 6.63223e-09 1.07958e-07 1.48586e-06 1.7007e-05 0.000158465 0.0011685 0.00657488 0.0271566 0.080836 0.178843 0.317343 0.489689 0.693604 0.911088 0.989413 0.927339 0.921496 0.917003 0.914422 0.907372 0.921122 0.924606 0.881143 0.861294 0.754509 0.66637 0.517662 0.37036 0.22451 0.111155 0.0430103 0.0134093 0.00363637 0.000905826 0.000211816 4.6808e-05 9.79558e-06 1.94316e-06 3.65671e-07 6.53281e-08 1.10881e-08 1.78922e-09 2.74628e-10 4.0108e-11 5.57191e-12 6.36383e-13 1.16197e-13 6.91935e-15 6.09555e-14 -9.22542e-14 -1.55682e-13 1.17086e-13 -1.99383e-14 -9.06646e-14 -5.40356e-15 -1.26179e-14 -2.42068e-14 1.02417e-13 -2.0754e-14 -5.19863e-14 1.08034e-14 1.05793e-15 9.16984e-14 -1.92405e-14 -4.89942e-14 -9.30007e-15 -4.63095e-14 3.942e-14 -7.36901e-14 -9.57508e-14 -2.25436e-14 5.46123e-14 -6.21741e-14 -1.06175e-13 -2.48129e-14 4.69349e-14 6.67421e-14 -2.16104e-14 -1.24819e-13 9.40756e-14 -1.46281e-13 1.03025e-13 1.56678e-14 1.15983e-14 3.49362e-14 -7.87002e-14 1.02207e-13 -4.99831e-15 -1.38143e-13 -3.8208e-14 5.25776e-14 2.56087e-15 6.88372e-14 -5.20145e-14 4.78929e-14 -3.41857e-15 -8.88502e-14 7.48604e-14 5.08553e-14 -8.1939e-14 3.00535e-15 1.0527e-13 -1.33323e-14 1.37614e-14 1.69424e-14 2.87316e-14 -5.83857e-14 1.24305e-13 2.39124e-14 7.04034e-14 7.16047e-14 8.16527e-14 8.61156e-14 7.71358e-14 -6.26806e-14 0 0 -7.81801e-16 -3.36722e-16 -1.46072e-15 2.8288e-15 7.39058e-16 -1.12998e-15 -4.15098e-15 -3.8397e-16 -4.9491e-15 -5.1615e-15 -3.03561e-16 4.26766e-15 -5.54888e-15 1.87184e-15 1.0549e-15 7.90653e-15 -1.13664e-14 -9.60181e-15 -2.16966e-15 -1.45021e-15 3.43258e-15 -6.00613e-15 -7.11044e-15 -4.84489e-15 -4.9008e-15 1.41308e-14 -1.78152e-14 -2.21052e-14 -3.48598e-14 -1.41768e-14 -1.16647e-15 2.33349e-14 2.14501e-14 -1.77114e-14 3.42483e-15 -2.76115e-14 -1.24906e-14 -2.62385e-14 -1.65091e-14 -2.059e-14 -2.19521e-14 3.01217e-14 -3.95668e-14 2.86208e-14 2.04731e-14 1.24343e-14 1.32979e-14 8.29138e-15 2.31686e-14 -2.68264e-15 -2.85389e-14 -2.34887e-14 -2.61374e-14 -3.25197e-14 -2.60646e-14 2.39196e-14 5.038e-14 -3.03632e-14 -3.45999e-14 -3.85718e-14 1.36491e-14 9.15734e-15 -4.41123e-14 -2.03124e-14 -1.5156e-14 1.62182e-14 -1.18482e-14 -2.39504e-14 -5.10058e-14 -1.76691e-14 1.71359e-15 -3.1775e-14 3.84573e-14 -6.71007e-14 1.8293e-14 -9.15493e-15 -4.60946e-14 -2.62423e-14 2.10924e-14 9.39228e-14 1.95255e-14 7.24788e-13 1.60039e-11 3.49136e-10 6.6322e-09 1.07958e-07 1.48586e-06 1.7007e-05 0.000158465 0.0011685 0.00657488 0.0271566 0.080836 0.178843 0.317343 0.489689 0.693604 0.911088 0.989413 0.927339 0.921496 0.917003 0.914422 0.907372 0.921122 0.924606 0.881143 0.861294 0.754509 0.66637 0.517662 0.37036 0.22451 0.111155 0.0430103 0.0134093 0.00363637 0.000905826 0.000211816 4.6808e-05 9.79558e-06 1.94316e-06 3.65671e-07 6.53281e-08 1.10881e-08 1.78914e-09 2.747e-10 4.01167e-11 5.52296e-12 5.71363e-13 1.1723e-13 6.51708e-16 3.59535e-14 -1.29322e-13 -2.22938e-13 1.05696e-13 4.22066e-14 -7.69862e-14 3.53284e-14 3.97462e-14 2.65668e-14 4.03987e-14 4.89707e-14 -9.2456e-14 3.33735e-14 -1.11601e-13 1.69992e-14 9.27463e-14 2.63708e-14 -1.43401e-13 -2.92717e-14 -2.56861e-14 -1.1182e-13 5.89343e-15 -4.86767e-14 5.14474e-14 -2.98414e-14 -3.93501e-14 1.52456e-14 -1.11648e-13 8.96403e-14 -8.72101e-14 -5.77199e-14 -6.72731e-14 -9.27955e-14 2.03098e-13 -1.62602e-15 -5.03069e-14 -6.67829e-14 4.07343e-15 1.67734e-13 -4.57287e-16 -1.41165e-13 2.06159e-14 -4.18102e-14 3.60258e-14 3.54824e-14 -6.22137e-14 -1.94524e-14 -1.56097e-14 -2.69011e-15 1.28996e-13 -1.2587e-13 5.58914e-15 3.17714e-14 1.79707e-13 -1.28523e-14 -4.33384e-15 -5.95011e-14 1.94264e-13 -1.2386e-13 9.04955e-14 1.58075e-13 2.739e-15 9.44325e-14 1.19145e-13 7.1677e-15 -4.967e-14 6.43597e-14 0 0 -4.71253e-16 -2.32694e-15 -4.25162e-15 3.36343e-15 6.05876e-16 -3.0394e-15 -1.3873e-15 -3.52359e-15 -7.70256e-15 -5.42182e-15 6.41933e-15 -4.84909e-15 -1.51976e-15 -6.09872e-17 1.19637e-14 -1.33796e-14 -1.38161e-14 -7.98921e-15 -1.18646e-14 -9.7373e-15 -1.38835e-14 3.0975e-14 -9.00741e-15 1.45608e-14 5.82215e-16 2.23338e-14 -1.79598e-14 -1.975e-14 -2.74445e-14 -5.59551e-15 -4.28708e-15 2.79173e-14 1.68186e-14 -2.77227e-14 -2.16558e-14 -4.93192e-14 9.08542e-15 -2.4467e-14 -8.50015e-15 -3.96498e-14 4.77692e-15 2.27949e-14 -3.85184e-14 -2.18844e-14 1.09388e-14 5.68319e-16 3.91481e-14 2.1686e-14 2.32501e-14 3.24117e-14 -3.28309e-14 -1.35739e-14 -2.62993e-14 1.11136e-15 -4.96977e-15 -3.96163e-15 1.35461e-15 -2.00494e-16 -2.49487e-14 -2.53889e-14 1.56612e-14 -5.00773e-14 -6.05601e-14 -2.66335e-14 3.14067e-14 -2.62052e-14 -2.62178e-14 -7.56547e-14 -9.99862e-14 3.79379e-14 5.61456e-14 -5.77076e-18 -2.30099e-15 -4.4192e-14 -1.42655e-14 -3.1061e-14 -2.04987e-14 -5.9731e-15 -4.06615e-14 3.07694e-14 1.20354e-13 7.40171e-13 1.59594e-11 3.49123e-10 6.63227e-09 1.07958e-07 1.48586e-06 1.7007e-05 0.000158465 0.0011685 0.00657488 0.0271566 0.080836 0.178843 0.317343 0.489689 0.693604 0.911088 0.989413 0.927339 0.921496 0.917003 0.914422 0.907372 0.921122 0.924606 0.881143 0.861294 0.754509 0.66637 0.517662 0.37036 0.22451 0.111155 0.0430103 0.0134093 0.00363637 0.000905826 0.000211816 4.6808e-05 9.79558e-06 1.94316e-06 3.65671e-07 6.5328e-08 1.10882e-08 1.78914e-09 2.74613e-10 4.01071e-11 5.48417e-12 5.6908e-13 7.14984e-14 5.86372e-14 -5.24431e-14 -5.04458e-14 -1.63386e-13 1.62963e-14 3.1564e-14 3.91543e-14 -5.08163e-15 7.85152e-14 -1.85483e-14 4.42549e-14 9.71775e-14 -8.53886e-14 -1.86504e-14 -1.01662e-13 -3.66241e-14 1.03583e-15 1.00671e-13 -6.15653e-14 6.07709e-15 -1.12504e-13 -1.55769e-14 -9.76645e-14 -3.67674e-14 -1.48861e-14 -5.54301e-15 9.39421e-14 1.5942e-14 -1.06778e-13 -8.03625e-14 -1.31737e-14 7.34344e-14 -1.71914e-13 -1.05512e-14 2.93007e-14 5.77056e-16 1.18006e-13 -1.83806e-13 -6.04985e-14 2.03348e-13 -9.71653e-14 8.16737e-14 -5.1085e-15 1.55025e-14 -9.6062e-14 1.02353e-13 -1.37501e-14 -8.37885e-14 -2.7838e-14 9.99701e-14 -8.98542e-14 -1.47165e-13 7.85231e-14 1.09549e-14 2.3693e-13 -4.62794e-14 -6.97039e-14 1.08132e-13 1.39439e-13 6.14653e-15 -1.6894e-14 1.46675e-13 2.25643e-14 -2.58724e-14 1.76227e-13 -5.35837e-14 -1.40261e-13 9.1002e-14 0 0 -1.17991e-16 -4.57295e-15 -1.79377e-15 -8.25385e-16 -1.55966e-16 -4.77717e-15 -5.07237e-15 -9.21902e-16 -9.09018e-15 -2.84854e-15 5.72801e-15 -2.68115e-15 -5.4e-16 -2.65863e-15 5.85918e-15 -1.8785e-14 -5.37223e-15 -7.73462e-15 -2.48139e-14 -3.6535e-15 -3.57323e-14 5.33249e-14 -4.63862e-15 1.73374e-14 1.74388e-14 1.44656e-14 -8.92333e-15 -1.26219e-14 -1.80002e-14 -3.0175e-14 1.07966e-14 2.81237e-14 1.60345e-14 -2.14656e-14 -5.88363e-14 -6.30719e-14 1.08915e-14 2.74989e-15 -2.15885e-14 -1.40759e-14 3.52864e-14 -9.85899e-15 -2.25035e-15 -6.12839e-14 -5.66188e-14 5.68443e-14 3.15785e-14 2.2614e-14 5.36807e-14 2.67274e-14 -3.12318e-14 -6.48399e-14 5.32337e-14 -4.42804e-14 1.09056e-14 1.56385e-14 -4.45532e-14 3.08649e-14 -4.03901e-14 1.3377e-14 -3.15713e-15 -8.36054e-14 -8.54763e-14 -1.98477e-14 4.88409e-14 -4.57521e-14 -5.26152e-14 -8.21007e-14 -1.30441e-13 1.00575e-13 6.17685e-14 3.38664e-14 -1.38431e-14 3.14542e-15 -9.00338e-14 4.314e-14 -3.29752e-14 1.461e-14 -1.91642e-13 2.74191e-15 2.61051e-13 6.93761e-13 1.59407e-11 3.49104e-10 6.63232e-09 1.07958e-07 1.48586e-06 1.7007e-05 0.000158465 0.0011685 0.00657488 0.0271566 0.080836 0.178843 0.317343 0.489689 0.693604 0.911088 0.989413 0.927339 0.921496 0.917003 0.914422 0.907372 0.921122 0.924606 0.881143 0.861294 0.754509 0.66637 0.517662 0.37036 0.22451 0.111155 0.0430103 0.0134093 0.00363637 0.000905826 0.000211816 4.6808e-05 9.79558e-06 1.94316e-06 3.65671e-07 6.53279e-08 1.10884e-08 1.78916e-09 2.74537e-10 4.00448e-11 5.52952e-12 5.21298e-13 1.37386e-13 3.70833e-14 -5.88639e-14 -2.21189e-14 -7.09698e-14 -5.43016e-14 5.8813e-14 6.68206e-14 -5.59368e-14 -1.27295e-14 -4.46967e-14 1.68488e-13 2.26786e-14 -1.66255e-14 -6.37376e-14 -6.37041e-14 3.04765e-15 -2.44221e-13 2.27179e-13 -5.69746e-14 1.07744e-13 -1.75847e-13 7.30522e-14 -2.31957e-13 -4.17203e-14 1.09456e-13 -3.00418e-14 1.06144e-13 -1.19664e-13 -1.51043e-14 -1.12432e-14 -3.11694e-14 8.51877e-14 -1.28713e-13 -4.40836e-14 -1.2962e-13 4.74739e-15 2.20147e-13 -2.81834e-14 -2.86813e-13 2.3438e-13 -1.36776e-13 1.90733e-13 -5.94173e-14 1.57462e-13 -3.00801e-13 3.0734e-13 -1.08909e-13 -4.03784e-14 8.9745e-15 2.22649e-14 -1.80304e-13 -1.66259e-14 1.13093e-14 -4.11489e-14 1.5031e-13 1.33799e-13 -1.89746e-13 3.25353e-13 1.01229e-14 7.5907e-14 1.70694e-15 5.85433e-14 2.27691e-14 -1.44856e-13 2.00927e-13 1.08227e-13 -2.35196e-13 -1.00283e-13 0
				</DataArray>
				<DataArray Name="VitesseY" type="Float32" format="ascii">