<?xml version="1.0"?>
<VTKFile type="PolyData">
	<PolyData>
		<Piece NumberOfPoints="1206" NumberOfPolys="1000">
			<Points>
				<DataArray type="Float32" NumberOfComponents="3" format="ascii">
 0 0 0 0.005 0 0 0.01 0 0 0.015 0 0 0.02 0 0 0.025 0 0 0.03 0 0 0.035 0 0 0.04 0 0 0.045 0 0 0.05 0 0 0.055 0 0 0.06 0 0 0.065 0 0 0.07 0 0 0.075 0 0 0.08 0 0 0.085 0 0 0.09 0 0 0.095 0 0 0.1 0 0 0.105 0 0 0.11 0 0 0.115 0 0 0.12 0 0 0.125 0 0 0.13 0 0 0.135 0 0 0.14 0 0 0.145 0 0 0.15 0 0 0.155 0 0 0.16 0 0 0.165 0 0 0.17 0 0 0.175 0 0 0.18 0 0 0.185 0 0 0.19 0 0 0.195 0 0 0.2 0 0 0.205 0 0 0.21 0 0 0.215 0 0 0.22 0 0 0.225 0 0 0.23 0 0 0.235 0 0 0.24 0 0 0.245 0 0 0.25 0 0 0.255 0 0 0.26 0 0 0.265 0 0 0.27 0 0 0.275 0 0 0.28 0 0 0.285 0 0 0.29 0 0 0.295 0 0 0.3 0 0 0.305 0 0 0.31 0 0 0.315 0 0 0.32 0 0 0.325 0 0 0.33 0 0 0.335 0 0 0.34 0 0 0.345 0 0 0.35 0 0 0.355 0 0 0.36 0 0 0.365001 0 0 0.370002 0 0 0.375009 0 0 0.380028 0 0 0.385079 0 0 0.390193 0 0 0.39541 0 0 0.400774 0 0 0.406324 0 0 0.412094 0 0 0.418114 0 0 0.424417 0 0 0.431037 0 0 0.438015 0 0 0.445396 0 0 0.453237 0 0 0.461604 0 0 0.470576 0 0 0.480246 0 0 0.490713 0 0 0.50205 0 0 0.514153 0 0 0.526427 0 0 0.538496 0 0 0.550395 0 0 0.562199 0 0 0.573974 0 0 0.585756 0 0 0.588373 0 0 0.590915 0 0 0.59341 0 0 0.595873 0 0 0.598315 0 0 0.60074 0 0 0.603153 0 0 0.605557 0 0 0.607954 0 0 0.610347 0 0 0.612736 0 0 0.615122 0 0 0.617504 0 0 0.619882 0 0 0.622257 0 0 0.62463 0 0 0.627001 0 0 0.629371 0 0 0.631739 0 0 0.634107 0 0 0.636476 0 0 0.638849 0 0 0.641225 0 0 0.643613 0 0 0.646013 0 0 0.648444 0 0 0.650906 0 0 0.653437 0 0 0.656029 0 0 0.658761 0 0 0.661638 0 0 0.664768 0 0 0.668184 0 0 0.671951 0 0 0.676073 0 0 0.680523 0 0 0.685226 0 0 0.690088 0 0 0.695032 0 0 0.700011 0 0 0.705004 0 0 0.710001 0 0 0.715 0 0 0.72 0 0 0.725 0 0 0.73 0 0 0.735 0 0 0.74 0 0 0.745 0 0 0.75 0 0 0.755 0 0 0.76 0 0 0.765 0 0 0.77 0 0 0.775 0 0 0.78 0 0 0.785 0 0 0.79 0 0 0.795 0 0 0.8 0 0 0.805 0 0 0.81 0 0 0.815 0 0 0.82 0 0 0.825 0 0 0.83 0 0 0.835 0 0 0.84 0 0 0.845 0 0 0.85 0 0 0.855 0 0 0.86 0 0 0.865 0 0 0.87 0 0 0.875 0 0 0.88 0 0 0.885 0 0 0.89 0 0 0.895 0 0 0.9 0 0 0.905 0 0 0.91 0 0 0.915 0 0 0.92 0 0 0.925 0 0 0.93 0 0 0.935 0 0 0.94 0 0 0.945 0 0 0.95 0 0 0.955 0 0 0.96 0 0 0.965 0 0 0.97 0 0 0.975 0 0 0.98 0 0 0.985 0 0 0.99 0 0 0.995 0 0 1 0 0 0 0.02 0 0.005 0.02 0 0.01 0.02 0 0.015 0.02 0 0.02 0.02 0 0.025 0.02 0 0.03 0.02 0 0.035 0.02 0 0.04 0.02 0 0.045 0.02 0 0.05 0.02 0 0.055 0.02 0 0.06 0.02 0 0.065 0.02 0 0.07 0.02 0 0.075 0.02 0 0.08 0.02 0 0.085 0.02 0 0.09 0.02 0 0.095 0.02 0 0.1 0.02 0 0.105 0.02 0 0.11 0.02 0 0.115 0.02 0 0.12 0.02 0 0.125 0.02 0 0.13 0.02 0 0.135 0.02 0 0.14 0.02 0 0.145 0.02 0 0.15 0.02 0 0.155 0.02 0 0.16 0.02 0 0.165 0.02 0 0.17 0.02 0 0.175 0.02 0 0.18 0.02 0 0.185 0.02 0 0.19 0.02 0 0.195 0.02 0 0.2 0.02 0 0.205 0.02 0 0.21 0.02 0 0.215 0.02 0 0.22 0.02 0 0.225 0.02 0 0.23 0.02 0 0.235 0.02 0 0.24 0.02 0 0.245 0.02 0 0.25 0.02 0 0.255 0.02 0 0.26 0.02 0 0.265 0.02 0 0.27 0.02 0 0.275 0.02 0 0.28 0.02 0 0.285 0.02 0 0.29 0.02 0 0.295 0.02 0 0.3 0.02 0 0.305 0.02 0 0.31 0.02 0 0.315 0.02 0 0.32 0.02 0 0.325 0.02 0 0.33 0.02 0 0.335 0.02 0 0.34 0.02 0 0.345 0.02 0 0.35 0.02 0 0.355 0.02 0 0.36 0.02 0 0.365001 0.02 0 0.370002 0.02 0 0.375009 0.02 0 0.380028 0.02 0 0.385079 0.02 0 0.390193 0.02 0 0.39541 0.02 0 0.400774 0.02 0 0.406324 0.02 0 0.412094 0.02 0 0.418114 0.02 0 0.424417 0.02 0 0.431037 0.02 0 0.438015 0.02 0 0.445396 0.02 0 0.453237 0.02 0 0.461604 0.02 0 0.470576 0.02 0 0.480246 0.02 0 0.490713 0.02 0 0.50205 0.02 0 0.514153 0.02 0 0.526427 0.02 0 0.538496 0.02 0 0.550395 0.02 0 0.562199 0.02 0 0.573974 0.02 0 0.585756 0.02 0 0.588373 0.02 0 0.590915 0.02 0 0.59341 0.02 0 0.595873 0.02 0 0.598315 0.02 0 0.60074 0.02 0 0.603153 0.02 0 0.605557 0.02 0 0.607954 0.02 0 0.610347 0.02 0 0.612736 0.02 0 0.615122 0.02 0 0.617504 0.02 0 0.619882 0.02 0 0.622257 0.02 0 0.62463 0.02 0 0.627001 0.02 0 0.629371 0.02 0 0.631739 0.02 0 0.634107 0.02 0 0.636476 0.02 0 0.638849 0.02 0 0.641225 0.02 0 0.643613 0.02 0 0.646013 0.02 0 0.648444 0.02 0 0.650906 0.02 0 0.653437 0.02 0 0.656029 0.02 0 0.658761 0.02 0 0.661638 0.02 0 0.664768 0.02 0 0.668184 0.02 0 0.671951 0.02 0 0.676073 0.02 0 0.680523 0.02 0 0.685226 0.02 0 0.690088 0.02 0 0.695032 0.02 0 0.700011 0.02 0 0.705004 0.02 0 0.710001 0.02 0 0.715 0.02 0 0.72 0.02 0 0.725 0.02 0 0.73 0.02 0 0.735 0.02 0 0.74 0.02 0 0.745 0.02 0 0.75 0.02 0 0.755 0.02 0 0.76 0.02 0 0.765 0.02 0 0.77 0.02 0 0.775 0.02 0 0.78 0.02 0 0.785 0.02 0 0.79 0.02 0 0.795 0.02 0 0.8 0.02 0 0.805 0.02 0 0.81 0.02 0 0.815 0.02 0 0.82 0.02 0 0.825 0.02 0 0.83 0.02 0 0.835 0.02 0 0.84 0.02 0 0.845 0.02 0 0.85 0.02 0 0.855 0.02 0 0.86 0.02 0 0.865 0.02 0 0.87 0.02 0 0.875 0.02 0 0.88 0.02 0 0.885 0.02 0 0.89 0.02 0 0.895 0.02 0 0.9 0.02 0 0.905 0.02 0 0.91 0.02 0 0.915 0.02 0 0.92 0.02 0 0.925 0.02 0 0.93 0.02 0 0.935 0.02 0 0.94 0.02 0 0.945 0.02 0 0.95 0.02 0 0.955 0.02 0 0.96 0.02 0 0.965 0.02 0 0.97 0.02 0 0.975 0.02 0 0.98 0.02 0 0.985 0.02 0 0.99 0.02 0 0.995 0.02 0 1 0.02 0 0 0.04 0 0.005 0.04 0 0.01 0.04 0 0.015 0.04 0 0.02 0.04 0 0.025 0.04 0 0.03 0.04 0 0.035 0.04 0 0.04 0.04 0 0.045 0.04 0 0.05 0.04 0 0.055 0.04 0 0.06 0.04 0 0.065 0.04 0 0.07 0.04 0 0.075 0.04 0 0.08 0.04 0 0.085 0.04 0 0.09 0.04 0 0.095 0.04 0 0.1 0.04 0 0.105 0.04 0 0.11 0.04 0 0.115 0.04 0 0.12 0.04 0 0.125 0.04 0 0.13 0.04 0 0.135 0.04 0 0.14 0.04 0 0.145 0.04 0 0.15 0.04 0 0.155 0.04 0 0.16 0.04 0 0.165 0.04 0 0.17 0.04 0 0.175 0.04 0 0.18 0.04 0 0.185 0.04 0 0.19 0.04 0 0.195 0.04 0 0.2 0.04 0 0.205 0.04 0 0.21 0.04 0 0.215 0.04 0 0.22 0.04 0 0.225 0.04 0 0.23 0.04 0 0.235 0.04 0 0.24 0.04 0 0.245 0.04 0 0.25 0.04 0 0.255 0.04 0 0.26 0.04 0 0.265 0.04 0 0.27 0.04 0 0.275 0.04 0 0.28 0.04 0 0.285 0.04 0 0.29 0.04 0 0.295 0.04 0 0.3 0.04 0 0.305 0.04 0 0.31 0.04 0 0.315 0.04 0 0.32 0.04 0 0.325 0.04 0 0.33 0.04 0 0.335 0.04 0 0.34 0.04 0 0.345 0.04 0 0.35 0.04 0 0.355 0.04 0 0.36 0.04 0 0.365001 0.04 0 0.370002 0.04 0 0.375009 0.04 0 0.380028 0.04 0 0.385079 0.04 0 0.390193 0.04 0 0.39541 0.04 0 0.400774 0.04 0 0.406324 0.04 0 0.412094 0.04 0 0.418114 0.04 0 0.424417 0.04 0 0.431037 0.04 0 0.438015 0.04 0 0.445396 0.04 0 0.453237 0.04 0 0.461604 0.04 0 0.470576 0.04 0 0.480246 0.04 0 0.490713 0.04 0 0.50205 0.04 0 0.514153 0.04 0 0.526427 0.04 0 0.538496 0.04 0 0.550395 0.04 0 0.562199 0.04 0 0.573974 0.04 0 0.585756 0.04 0 0.588373 0.04 0 0.590915 0.04 0 0.59341 0.04 0 0.595873 0.04 0 0.598315 0.04 0 0.60074 0.04 0 0.603153 0.04 0 0.605557 0.04 0 0.607954 0.04 0 0.610347 0.04 0 0.612736 0.04 0 0.615122 0.04 0 0.617504 0.04 0 0.619882 0.04 0 0.622257 0.04 0 0.62463 0.04 0 0.627001 0.04 0 0.629371 0.04 0 0.631739 0.04 0 0.634107 0.04 0 0.636476 0.04 0 0.638849 0.04 0 0.641225 0.04 0 0.643613 0.04 0 0.646013 0.04 0 0.648444 0.04 0 0.650906 0.04 0 0.653437 0.04 0 0.656029 0.04 0 0.658761 0.04 0 0.661638 0.04 0 0.664768 0.04 0 0.668184 0.04 0 0.671951 0.04 0 0.676073 0.04 0 0.680523 0.04 0 0.685226 0.04 0 0.690088 0.04 0 0.695032 0.04 0 0.700011 0.04 0 0.705004 0.04 0 0.710001 0.04 0 0.715 0.04 0 0.72 0.04 0 0.725 0.04 0 0.73 0.04 0 0.735 0.04 0 0.74 0.04 0 0.745 0.04 0 0.75 0.04 0 0.755 0.04 0 0.76 0.04 0 0.765 0.04 0 0.77 0.04 0 0.775 0.04 0 0.78 0.04 0 0.785 0.04 0 0.79 0.04 0 0.795 0.04 0 0.8 0.04 0 0.805 0.04 0 0.81 0.04 0 0.815 0.04 0 0.82 0.04 0 0.825 0.04 0 0.83 0.04 0 0.835 0.04 0 0.84 0.04 0 0.845 0.04 0 0.85 0.04 0 0.855 0.04 0 0.86 0.04 0 0.865 0.04 0 0.87 0.04 0 0.875 0.04 0 0.88 0.04 0 0.885 0.04 0 0.89 0.04 0 0.895 0.04 0 0.9 0.04 0 0.905 0.04 0 0.91 0.04 0 0.915 0.04 0 0.92 0.04 0 0.925 0.04 0 0.93 0.04 0 0.935 0.04 0 0.94 0.04 0 0.945 0.04 0 0.95 0.04 0 0.955 0.04 0 0.96 0.04 0 0.965 0.04 0 0.97 0.04 0 0.975 0.04 0 0.98 0.04 0 0.985 0.04 0 0.99 0.04 0 0.995 0.04 0 1 0.04 0 0 0.06 0 0.005 0.06 0 0.01 0.06 0 0.015 0.06 0 0.02 0.06 0 0.025 0.06 0 0.03 0.06 0 0.035 0.06 0 0.04 0.06 0 0.045 0.06 0 0.05 0.06 0 0.055 0.06 0 0.06 0.06 0 0.065 0.06 0 0.07 0.06 0 0.075 0.06 0 0.08 0.06 0 0.085 0.06 0 0.09 0.06 0 0.095 0.06 0 0.1 0.06 0 0.105 0.06 0 0.11 0.06 0 0.115 0.06 0 0.12 0.06 0 0.125 0.06 0 0.13 0.06 0 0.135 0.06 0 0.14 0.06 0 0.145 0.06 0 0.15 0.06 0 0.155 0.06 0 0.16 0.06 0 0.165 0.06 0 0.17 0.06 0 0.175 0.06 0 0.18 0.06 0 0.185 0.06 0 0.19 0.06 0 0.195 0.06 0 0.2 0.06 0 0.205 0.06 0 0.21 0.06 0 0.215 0.06 0 0.22 0.06 0 0.225 0.06 0 0.23 0.06 0 0.235 0.06 0 0.24 0.06 0 0.245 0.06 0 0.25 0.06 0 0.255 0.06 0 0.26 0.06 0 0.265 0.06 0 0.27 0.06 0 0.275 0.06 0 0.28 0.06 0 0.285 0.06 0 0.29 0.06 0 0.295 0.06 0 0.3 0.06 0 0.305 0.06 0 0.31 0.06 0 0.315 0.06 0 0.32 0.06 0 0.325 0.06 0 0.33 0.06 0 0.335 0.06 0 0.34 0.06 0 0.345 0.06 0 0.35 0.06 0 0.355 0.06 0 0.36 0.06 0 0.365001 0.06 0 0.370002 0.06 0 0.375009 0.06 0 0.380028 0.06 0 0.385079 0.06 0 0.390193 0.06 0 0.39541 0.06 0 0.400774 0.06 0 0.406324 0.06 0 0.412094 0.06 0 0.418114 0.06 0 0.424417 0.06 0 0.431037 0.06 0 0.438015 0.06 0 0.445396 0.06 0 0.453237 0.06 0 0.461604 0.06 0 0.470576 0.06 0 0.480246 0.06 0 0.490713 0.06 0 0.50205 0.06 0 0.514153 0.06 0 0.526427 0.06 0 0.538496 0.06 0 0.550395 0.06 0 0.562199 0.06 0 0.573974 0.06 0 0.585756 0.06 0 0.588373 0.06 0 0.590915 0.06 0 0.59341 0.06 0 0.595873 0.06 0 0.598315 0.06 0 0.60074 0.06 0 0.603153 0.06 0 0.605557 0.06 0 0.607954 0.06 0 0.610347 0.06 0 0.612736 0.06 0 0.615122 0.06 0 0.617504 0.06 0 0.619882 0.06 0 0.622257 0.06 0 0.62463 0.06 0 0.627001 0.06 0 0.629371 0.06 0 0.631739 0.06 0 0.634107 0.06 0 0.636476 0.06 0 0.638849 0.06 0 0.641225 0.06 0 0.643613 0.06 0 0.646013 0.06 0 0.648444 0.06 0 0.650906 0.06 0 0.653437 0.06 0 0.656029 0.06 0 0.658761 0.06 0 0.661638 0.06 0 0.664768 0.06 0 0.668184 0.06 0 0.671951 0.06 0 0.676073 0.06 0 0.680523 0.06 0 0.685226 0.06 0 0.690088 0.06 0 0.695032 0.06 0 0.700011 0.06 0 0.705004 0.06 0 0.710001 0.06 0 0.715 0.06 0 0.72 0.06 0 0.725 0.06 0 0.73 0.06 0 0.735 0.06 0 0.74 0.06 0 0.745 0.06 0 0.75 0.06 0 0.755 0.06 0 0.76 0.06 0 0.765 0.06 0 0.77 0.06 0 0.775 0.06 0 0
[...]
			<PointData Scalars="VitesseX">
				<DataArray Name="VitesseX" type="Float32" format="ascii">
 0 -8.61175e-16 -1.50599e-15 -5.6422e-15 -5.90645e-15 -1.16913e-14 -9.59453e-15 -8.46412e-15 -9.61714e-15 -1.46209e-14 -1.37228e-14 -1.42219e-14 -1.66187e-14 -1.85435e-14 -1.21138e-14 -1.80276e-14 -1.08902e-14 -1.21954e-14 -1.21303e-14 -2.15334e-14 -1.05329e-14 -2.63346e-14 -2.48327e-14 -1.75949e-14 -2.98147e-15 -1.16243e-14 -3.3524e-14 -2.24089e-14 -2.72881e-14 -2.01266e-14 -1.87732e-14 -1.98712e-14 -2.73725e-14 -1.06226e-14 1.38927e-14 -1.57902e-14 -3.19246e-14 1.17228e-14 1.32204e-14 -1.59616e-14 -4.12616e-15 -1.52893e-15 -2.04838e-14 -1.88449e-14 -1.32864e-14 -1.8955e-14 -2.98553e-14 -3.30038e-14 -1.90848e-14 -6.67761e-15 -4.53827e-14 -4.8824e-14 -6.7858e-15 -4.94444e-14 -2.06121e-14 3.83423e-15 -5.24867e-14 1.4417e-15 -2.38837e-14 -5.49811e-14 -3.19844e-14 -1.77147e-15 1.6496e-13 1.10048e-12 1.08802e-11 9.82075e-11 8.19705e-10 6.33034e-09 4.50254e-08 2.93631e-07 1.74642e-06 9.41437e-06 4.56552e-05 0.000197387 0.000752504 0.00249754 0.00712208 0.0172802 0.0356492 0.063333 0.0993027 0.141517 0.188266 0.238619 0.292225 0.349061 0.409265 0.473073 0.540772 0.612647 0.688857 0.769069 0.851322 0.928072 0.972755 0.957762 0.943289 0.933535 0.930044 0.929096 0.928141 0.927953 0.92778 0.92762 0.92747 0.927324 0.927182 0.927038 0.926897 0.926744 0.926604 0.926438 0.92631 0.926123 0.926025 0.925783 0.925735 0.925332 0.925332 0.92448 0.924536 0.922346 0.922549 0.916473 0.917131 0.900967 0.902984 0.865164 0.87057 0.796923 0.790277 0.678498 0.609769 0.480417 0.359726 0.236567 0.135697 0.0662532 0.0280063 0.010725 0.00389043 0.00137093 0.000474178 0.000161494 5.41806e-05 1.78974e-05 5.81682e-06 1.85875e-06 5.83619e-07 1.79963e-07 5.44737e-08 1.61801e-08 4.71444e-09 1.34703e-09 3.77405e-10 1.03567e-10 2.78708e-11 7.31114e-12 1.77952e-12 3.56066e-13 1.12478e-13 -7.15276e-14 -8.56684e-14 -1.08366e-13 -1.08846e-13 -4.38168e-14 2.03116e-14 -1.94872e-14 -7.54468e-14 4.64389e-14 6.80188e-15 -1.75912e-15 -4.50289e-15 -4.38811e-14 8.6887e-14 -4.41696e-14 -7.65314e-14 5.33642e-14 2.04633e-14 -5.61608e-14 1.48858e-14 1.31886e-13 -3.16179e-14 2.87118e-14 4.58925e-14 -3.40393e-14 -5.11006e-14 1.25188e-13 9.5452e-14 1.10922e-13 3.39288e-14 4.10708e-14 3.79546e-14 -4.04937e-14 6.03943e-14 -4.04582e-14 2.78915e-14 8.37015e-14 -4.0542e-14 5.77492e-14 0 0 -1.24866e-15 -1.88942e-15 -3.3286e-15 -6.34528e-15 -7.8415e-15 -1.13988e-14 -7.02491e-15 -1.10341e-14 -7.62188e-15 -1.83899e-14 -1.32632e-14 -1.89556e-14 -1.65148e-14 -1.19733e-14 -1.56434e-14 -1.4052e-14 -1.01903e-14 -2.37046e-14 -1.42471e-14 -1.70494e-14 -2.15366e-14 -1.66639e-14 -1.88297e-14 -9.67906e-15 -1.64975e-14 -2.22072e-14 -1.87473e-14 -2.50013e-14 -8.64e-15 -2.96533e-14 -1.70641e-14 -8.83358e-15 -2.20326e-14 -4.63069e-15 -1.90891e-14 5.33782e-15 -1.62876e-14 1.83589e-14 -2.14118e-14 2.91834e-15 -1.84578e-14 -1.25023e-14 -1.25102e-14 -3.75592e-14 -2.03075e-14 -2.98423e-14 -3.49832e-14 -2.68362e-14 -3.07691e-14 -1.34752e-14 -5.10201e-14 -3.6639e-14 -4.90348e-14 1.88245e-14 -2.23892e-14 -2.53913e-14 -3.53875e-14 -3.42404e-14 2.4311e-14 -3.84056e-14 2.37719e-14 1.10175e-13 1.13829e-12 1.08958e-11 9.8233e-11 8.19787e-10 6.33021e-09 4.50255e-08 2.9363e-07 1.74642e-06 9.41437e-06 4.56552e-05 0.000197387 0.000752504 0.00249754 0.00712208 0.0172802 0.0356492 0.063333 0.0993027 0.141517 0.188266 0.238619 0.292225 0.349061 0.409265 0.473073 0.540772 0.612647 0.688857 0.769069 0.851322 0.928072 0.972755 0.957762 0.943289 0.933535 0.930044 0.929096 0.928141 0.927953 0.92778 0.92762 0.92747 0.927324 0.927182 0.927038 0.926897 0.926744 0.926604 0.926438 0.92631 0.926123 0.926025 0.925783 0.925735 0.925332 0.925332 0.92448 0.924536 0.922346 0.922549 0.916473 0.917131 0.900967 0.902984 0.865164 0.87057 0.796923 0.790277 0.678498 0.609769 0.480417 0.359726 0.236567 0.135697 0.0662532 0.0280063 0.010725 0.00389043 0.00137093 0.000474178 0.000161494 5.41806e-05 1.78974e-05 5.81682e-06 1.85875e-06 5.83619e-07 1.79963e-07 5.44737e-08 1.61801e-08 4.7144e-09 1.34705e-09 3.77371e-10 1.03565e-10 2.77547e-11 7.25976e-12 1.94929e-12 3.39549e-13 3.10967e-14 -8.75213e-14 -1.00663e-13 -7.4777e-14 1.40082e-14 -4.25028e-14 -7.74186e-14 -2.99612e-14 -4.45136e-14 -4.70062e-14 7.54908e-14 1.30376e-14 -6.93304e-14 -4.97554e-14 4.01939e-14 2.12944e-14 -1.88935e-15 1.02216e-13 -8.51619e-14 6.26243e-14 -1.27518e-15 3.5418e-14 -2.27435e-14 1.68951e-14 2.3977e-14 -1.1862e-14 1.12443e-13 -2.51454e-14 9.14058e-14 1.17841e-13 7.93708e-14 -1.27843e-14 5.75775e-14 -3.43157e-14 -7.29027e-14 8.53059e-14 -1.30478e-15 2.75815e-14 6.42004e-14 -2.06671e-14 0 0 -1.20237e-15 -1.41314e-15 -7.84321e-16 -3.38202e-15 -5.97285e-15 -9.86879e-15 -7.1562e-15 -1.38712e-14 -6.77383e-15 -2.02748e-14 -1.34488e-14 -1.17963e-14 -1.72111e-14 -1.30275e-14 -1.66415e-14 -2.0653e-14 -1.79563e-14 -2.47618e-14 -2.4868e-14 -7.10263e-15 -3.18425e-14 -1.35926e-14 -9.68734e-15 -1.19058e-14 -2.7733e-14 -1.05919e-14 -2.22375e-14 -8.01763e-15 1.3606e-14 -2.20968e-14 -2.45012e-14 -2.2133e-15 -1.07353e-14 -1.20953e-14 -1.68026e-14 1.63826e-14 -1.5191e-14 -4.24597e-15 -2.22931e-15 -1.99975e-14 -3.2859e-14 -2.91027e-14 -2.33933e-14 -4.60671e-14 -3.14339e-14 -3.79692e-14 -5.18373e-14 -3.88158e-14 -2.61292e-14 6.68046e-15 -5.67159e-14 -4.69643e-14 -9.08574e-15 -2.76295e-14 -3.09379e-15 2.89259e-14 -5.00924e-14 -2.01724e-14 3.36092e-14 -8.4183e-15 1.92857e-14 1.26173e-13 1.21384e-12 1.09547e-11 9.82592e-11 8.19802e-10 6.33023e-09 4.50255e-08 2.9363e-07 1.74642e-06 9.41437e-06 4.56552e-05 0.000197387 0.000752504 0.00249754 0.00712208 0.0172802 0.0356492 0.063333 0.0993027 0.141517 0.188266 0.238619 0.292225 0.349061 0.409265 0.473073 0.540772 0.612647 0.688857 0.769069 0.851322 0.928072 0.972755 0.957762 0.943289 0.933535 0.930044 0.929096 0.928141 0.927953 0.92778 0.92762 0.92747 0.927324 0.927182 0.927038 0.926897 0.926744 0.926604 0.926438 0.92631 0.926123 0.926025 0.925783 0.925735 0.925332 0.925332 0.92448 0.924536 0.922346 0.922549 0.916473 0.917131 0.900967 0.902984 0.865164 0.87057 0.796923 0.790277 0.678498 0.609769 0.480417 0.359726 0.236567 0.135697 0.0662532 0.0280063 0.010725 0.00389043 0.00137093 0.000474178 0.000161494 5.41806e-05 1.78974e-05 5.81682e-06 1.85875e-06 5.83619e-07 1.79963e-07 5.44738e-08 1.61801e-08 4.71435e-09 1.347e-09 3.77389e-10 1.03527e-10 2.77495e-11 7.15612e-12 1.8382e-12 3.94319e-13 1.6713e-14 -7.31311e-14 -4.88843e-14 -1.09885e-13 8.70481e-14 -9.83408e-14 -1.96347e-14 -5.31296e-14 -1.1128e-13 -1.78223e-14 1.04768e-13 -3.8651e-14 -1.44587e-13 4.38824e-14 5.59466e-14 -9.73171e-14 1.58625e-13 4.70569e-14 -5.90685e-14 -5.53436e-14 6.46279e-14 5.43427e-14 7.42465e-15 8.53939e-14 -6.88099e-14 5.16568e-14 1.22628e-13 7.86239e-14 6.17254e-14 9.00266e-14 1.06305e-13 -7.48565e-14 6.69105e-14 -3.0417e-15 -1.31767e-13 8.49515e-14 -1.40812e-13 1.06659e-13 7.4606e-14 -9.7758e-14 0 0 3.3514e-16 3.39123e-16 -3.80481e-16 -1.36025e-15 -5.10194e-15 -8.87132e-15 -1.05473e-14 -6.92724e-15 -1.13755e-14 -1.09252e-14 -1.68184e-14 -1.53377e-14 -1.35376e-14 -1.78211e-14 -2.69039e-14 -3.02246e-14 -2.02203e-14 -1.78342e-14 -4.11968e-14 -1.52019e-15 -2.55135e-14 -2.17597e-14 -8.99929e-15 -1.39148e-14 -2.39891e-14 -2.1114e-14 -6.26258e-15 -7.21678e-15 1.57789e-14 -1.88822e-14 -1.85591e-14 -8.46876e-15 5.68885e-15 -8.07509e-15 1.11803e-15 -2.17634e-15 5.14618e-15 -1.9909e-14 1.86602e-14 -4.68064e-14 -2.171e-15 -9.81595e-14 -4.30537e-14 -6.49398e-14 -6.5758e-14 -2.65431e-14 -7.18462e-14 -1.6258e-14 -2.8773e-14 -2.14046e-14 -2.21553e-14 -3.82093e-14 -7.02136e-15 5.04499e-15 1.81126e-14 4.09592e-14 -4.66191e-14 -2.54787e-14 -5.64334e-15 5.45644e-14 -5.72001e-15 1.82797e-13 1.26882e-12 1.10447e-11 9.82809e-11 8.19803e-10 6.33032e-09 4.50255e-08 2.9363e-07 1.74642e-06 9.41437e-06 4.56552e-05 0.000197387 0.000752504 0.00249754 0.00712208 0.0172802 0.0356492 0.063333 0.0993027 0.141517 0.188266 0.238619 0.292225 0.349061 0.409265 0.473073 0.540772 0.612647 0.688857 0.769069 0.851322 0.928072 0.972755 0.957762 0.943289 0.933535 0.930044 0.929096 0.928141 0.927953 0.92778 0.92762 0.92747 0.927324 0.927182 0.927038 0.926897 0.926744 0.926604 0.926438 0.92631 0.926123 0.926025 0.925783 0.925735 0.925332 0.925332 0.92448 0.924536 0.922346 0.922549 0.916473 0.917131 0.900967 0.902984 0.865164 0.87057 0.796923 0.790277 0.678498 0.609769 0.480417 0.359726 0.236567 0.135697 0.0662532 0.0280063 0.010725 0.00389043 0.00137093 0.000474178 0.000161494 5.41806e-05 1.78974e-05 5.81682e-06 1.85875e-06 5.83619e-07 1.79962e-07 5.44738e-08 1.61801e-08 4.71433e-09 1.34697e-09 3.77233e-10 1.03522e-10 2.77861e-11 7.24966e-12 1.55605e-12 3.58e-13 4.32269e-14 1.36632e-14 2.31576e-14 -1.23381e-13 -6.53154e-14 -5.54197e-14 9.08407e-14 -7.51725e-14 -7.7776e-14 4.80319e-14 -4.67862e-14 -7.39926e-14 -1.35763e-13 1.68421e-13 5.65704e-14 -1.04882e-13 6.69125e-14 -3.72291e-14 1.32935e-14 -1.59109e-14 -1.08121e-15 9.54133e-14 7.8804e-15 8.77402e-14 6.24336e-14 7.44139e-14 1.19687e-13 7.0281e-14 -1.32331e-14 1.03059e-13 4.24622e-14 1.84852e-13 8.73715e-14 -8.80723e-14 -3.45324e-14 -1.37953e-13 -5.88102e-14 3.20282e-14 -2.72617e-14 -4.91554e-15 0 0 8.84789e-16 1.16559e-15 3.14374e-15 1.26119e-16 -5.85334e-15 -1.22073e-14 -1.09895e-14 -3.52746e-15 -5.16578e-15 -1.14218e-14 -1.42126e-14 -1.56513e-14 -1.48577e-14 -1.71846e-14 -2.74254e-14 -3.55396e-14 -2.57894e-14 -2.94755e-14 -3.23012e-14 -2.84497e-15 -5.68057e-15 -2.24061e-14 -1.96025e-14 -1.01603e-14 -1.68041e-14 -1.55092e-14 -6.29741e-15 -2.31423e-14 -6.46118e-15 -2.2239e-14 -1.22315e-14 -3.25033e-15 5.9808e-17 8.99249e-15 1.32825e-14 -6.08503e-15 -3.79263e-14 -6.70733e-15 1.5621e-14 -5.35518e-14 7.57949e-15 -5.10262e-14 -7.57424e-14 -8.63465e-14 -6.89512e-14 -5.46426e-14 -7.31128e-14 1.83354e-15 -3.16363e-14 -4.24597e-14 1.93318e-14 -2.42862e-14 -3.22579e-14 4.99553e-14 1.06881e-14 1.64622e-14 -3.62672e-14 -5.39584e-14 -2.0391e-14 3.70555e-14 2.37423e-14 1.75113e-13 1.30466e-12 1.10428e-11 9.83154e-11 8.19876e-10 6.33032e-09 4.50255e-08 2.9363e-07 1.74642e-06 9.41437e-06 4.56552e-05 0.000197387 0.000752504 0.00249754 0.00712208 0.0172802 0.0356492 0.063333 0.0993027 0.141517 0.188266 0.238619 0.292225 0.349061 0.409265 0.473073 0.540772 0.612647 0.688857 0.769069 0.851322 0.928072 0.972755 0.957762 0.943289 0.933535 0.930044 0.929096 0.928141 0.927953 0.92778 0.92762 0.92747 0.927324 0.927182 0.927038 0.926897 0.926744 0.926604 0.926438 0.92631 0.926123 0.926025 0.925783 0.925735 0.925332 0.925332 0.92448 0.924536 0.922346 0.922549 0.916473 0.917131 0.900967 0.902984 0.865164 0.87057 0.796923 0.790277 0.678498 0.609769 0.480417 0.359726 0.236567 0.135697 0.0662532 0.0280063 0.010725 0.00389043 0.00137093 0.000474178 0.000161494 5.41806e-05 1.78974e-05 5.81682e-06 1.85875e-06 5.83619e-07 1.79962e-07 5.44738e-08 1.618e-08 4.71439e-09 1.34689e-09 3.77159e-10 1.03373e-10 2.77483e-11 7.21116e-12 1.69784e-12 4.24935e-13 -7.60765e-14 1.43984e-13 -4.1049e-14 -8.68189e-14 -1.63094e-13 -3.73473e-15 -1.08404e-13 -2.64059e-14 -1.40477e-14 3.41212e-14 -1.24013e-13 1.65616e-14 -3.41347e-14 1.35904e-13 2.46631e-14 5.06361e-14 -6.59375e-14 -8.50764e-14 -4.49115e-14 -6.20395e-15 7.56607e-15 4.84283e-14 1.42015e-13 1.32332e-14 1.19575e-13 4.49482e-14 1.43486e-13 -1.16383e-13 1.55871e-13 1.95124e-13 1.1648e-13 1.34257e-13 6.97472e-14 -1.78112e-13 -9.00069e-14 -2.48956e-14 -2.80741e-14 -2.09439e-14 3.43863e-14 -8.83689e-14 0 0 3.30717e-16 1.09952e-15 6.49481e-15 2.99279e-15 -9.45674e-15 -1.32064e-14 -9.61111e-15 -8.49171e-15 -5.05423e-16 -1.84856e-14 -9.38157e-15 -2.92722e-15 -2.25764e-14 -1.29491e-14 -2.10667e-14 -3.47222e-14 -3.88657e-14 -3.75275e-14 -2.4984e-14 6.71098e-15 -7.2804e-15 -1.99829e-14 -2.05166e-14 7.41525e-17 -1.97253e-14 9.16133e-16 -2.9459e-14 -2.51717e-14 -2.01147e-14 -1.03739e-14 -2.20902e-14 -3.69505e-15 7.1393e-16 3.30987e-14 1.31117e-14 -1.76525e-14 -7.22289e-14 -5.58595e-15 1.63249e-14 -6.34485e-14 -1.08304e-14 4.05823e-14 -1.05988e-13 -7.31157e-14 -4.75943e-14 -1.02308e-13 -6.92451e-14 -6.86103e-15 -3.12438e-15 -4.71817e-14 2.27586e-14 4.09752e-16 -2.00195e-14 -2.36995e-14 2.75762e-14 7.15376e-15 -7.26438e-15 -5.27073e-14 -6.588e-14 -7.02753e-15 4.81807e-14 1.81588e-13 1.32326e-12 1.09941e-11 9.83289e-11 8.1988e-10 6.33038e-09 4.50255e-08 2.93631e-07 1.74642e-06 9.41437e-06 4.56552e-05 0.000197387 0.000752504 0.00249754 0.00712208 0.0172802 0.0356492 0.063333 0.0993027 0.141517 0.188266 0.238619 0.292225 0.349061 0.409265 0.473073 0.540772 0.612647 0.688857 0.769069 0.851322 0.928072 0.972755 0.957762 0.943289 0.933535 0.930044 0.929096 0.928141 0.927953 0.92778 0.92762 0.92747 0.927324 0.927182 0.927038 0.926897 0.926744 0.926604 0.926438 0.92631 0.926123 0.926025 0.925783 0.925735 0.925332 0.925332 0.92448 0.924536 0.922346 0.922549 0.916473 0.917131 0.900967 0.902984 0.865164 0.87057 0.796923 0.790277 0.678498 0.609769 0.480417 0.359726 0.236567 0.135697 0.0662532 0.0280063 0.010725 0.00389043 0.00137093 0.000474178 0.000161494 5.41806e-05 1.78974e-05 5.81682e-06 1.85875e-06 5.83619e-07 1.79962e-07 5.44739e-08 1.61798e-08 4.71446e-09 1.34677e-09 3.77296e-10 1.03194e-10 2.77852e-11 7.02707e-12 1.84066e-12 5.99136e-13 -1.55078e-13 2.17857e-13 -1.1055e-13 -1.05843e-13 -1.58508e-13 -5.22156e-14 -2.63096e-13 3.13609e-14 -8.13316e-14 7.69428e-14 -8.95923e-14 7.54969e-14 4.78309e-14 7.81155e-14 5.44774e-14 2.94028e-14 -2.13472e-14 -1.52445e-13 -4.35118e-14 -2.72259e-13 1.64125e-13 7.56497e-14 2.96875e-13 1.64649e-14 -2.52009e-14 3.42269e-14 1.69776e-14 -4.02407e-14 3.74399e-13 2.39481e-13 2.35506e-13 -1.84231e-13 2.16947e-14 -1.5806e-13 -1.68073e-13 1.84859e-13 -1.89698e-13 1.35368e-13 1.02708e-13 -2.63684e-13 0
				</DataArray>
				<DataArray Name="VitesseY" type="Float32" format="ascii">