<?xml version="1.0"?>
<VTKFile type="PolyData">
	<PolyData>
		<Piece NumberOfPoints="1206" NumberOfPolys="1000">
			<Points>
				<DataArray type="Float32" NumberOfComponents="3" format="ascii">
 0 0 0 0.005 0 0 0.01 0 0 0.015 0 0 0.02 0 0 0.025 0 0 0.03 0 0 0.035 0 0 0.04 0 0 0.045 0 0 0.05 0 0 0.055 0 0 0.06 0 0 0.065 0 0 0.07 0 0 0.075 0 0 0.08 0 0 0.085 0 0 0.09 0 0 0.095 0 0 0.1 0 0 0.105 0 0 0.11 0 0 0.115 0 0 0.12 0 0 0.125 0 0 0.13 0 0 0.135 0 0 0.14 0 0 0.145 0 0 0.15 0 0 0.155 0 0 0.16 0 0 0.165 0 0 0.17 0 0 0.175 0 0 0.18 0 0 0.185 0 0 0.19 0 0 0.195 0 0 0.2 0 0 0.205 0 0 0.21 0 0 0.215 0 0 0.22 0 0 0.225 0 0 0.23 0 0 0.235001 0 0 0.240002 0 0 0.245006 0 0 0.250014 0 0 0.255033 0 0 0.260072 0 0 0.265141 0 0 0.270257 0 0 0.275434 0 0 0.280684 0 0 0.286018 0 0 0.291446 0 0 0.296973 0 0 0.302607 0 0 0.308354 0 0 0.314219 0 0 0.32021 0 0 0.326333 0 0 0.332595 0 0 0.339003 0 0 0.345567 0 0 0.352293 0 0 0.359193 0 0 0.366276 0 0 0.373553 0 0 0.381036 0 0 0.388739 0 0 0.396677 0 0 0.404866 0 0 0.413322 0 0 0.422067 0 0 0.431121 0 0 0.440509 0 0 0.450255 0 0 0.46039 0 0 0.47094 0 0 0.481935 0 0 0.493391 0 0 0.505294 0 0 0.51753 0 0 0.529809 0 0 0.541993 0 0 0.554071 0 0 0.56605 0 0 0.577954 0 0 0.58981 0 0 0.601641 0 0 0.613459 0 0 0.625271 0 0 0.637081 0 0 0.64889 0 0 0.660698 0 0 0.67251 0 0 0.68432 0 0 0.686599 0 0 0.688878 0 0 0.691157 0 0 0.693436 0 0 0.695714 0 0 0.697991 0 0 0.700267 0 0 0.702542 0 0 0.704819 0 0 0.707095 0 0 0.709372 0 0 0.711652 0 0 0.713932 0 0 0.716211 0 0 0.718488 0 0 0.720766 0 0 0.723046 0 0 0.725325 0 0 0.727602 0 0 0.729879 0 0 0.732157 0 0 0.734439 0 0 0.73672 0 0 0.739001 0 0 0.741281 0 0 0.74356 0 0 0.745838 0 0 0.748118 0 0 0.750397 0 0 0.752675 0 0 0.754954 0 0 0.757236 0 0 0.759517 0 0 0.761797 0 0 0.764078 0 0 0.766358 0 0 0.768639 0 0 0.77092 0 0 0.7732 0 0 0.77548 0 0 0.777761 0 0 0.780042 0 0 0.782322 0 0 0.7846 0 0 0.786879 0 0 0.78916 0 0 0.79144 0 0 0.793718 0 0 0.795999 0 0 0.798282 0 0 0.800564 0 0 0.802845 0 0 0.805125 0 0 0.807404 0 0 0.809682 0 0 0.811959 0 0 0.814236 0 0 0.816519 0 0 0.818802 0 0 0.821091 0 0 0.823405 0 0 0.825743 0 0 0.828166 0 0 0.830728 0 0 0.83341 0 0 0.836319 0 0 0.83948 0 0 0.842966 0 0 0.846803 0 0 0.850993 0 0 0.855491 0 0 0.860219 0 0 0.86509 0 0 0.870036 0 0 0.875014 0 0 0.880005 0 0 0.885002 0 0 0.890001 0 0 0.895 0 0 0.9 0 0 0.905 0 0 0.91 0 0 0.915 0 0 0.92 0 0 0.925 0 0 0.93 0 0 0.935 0 0 0.94 0 0 0.945 0 0 0.95 0 0 0.955 0 0 0.96 0 0 0.965 0 0 0.97 0 0 0.975 0 0 0.98 0 0 0.985 0 0 0.99 0 0 0.995 0 0 1 0 0 0 0.02 0 0.005 0.02 0 0.01 0.02 0 0.015 0.02 0 0.02 0.02 0 0.025 0.02 0 0.03 0.02 0 0.035 0.02 0 0.04 0.02 0 0.045 0.02 0 0.05 0.02 0 0.055 0.02 0 0.06 0.02 0 0.065 0.02 0 0.07 0.02 0 0.075 0.02 0 0.08 0.02 0 0.085 0.02 0 0.09 0.02 0 0.095 0.02 0 0.1 0.02 0 0.105 0.02 0 0.11 0.02 0 0.115 0.02 0 0.12 0.02 0 0.125 0.02 0 0.13 0.02 0 0.135 0.02 0 0.14 0.02 0 0.145 0.02 0 0.15 0.02 0 0.155 0.02 0 0.16 0.02 0 0.165 0.02 0 0.17 0.02 0 0.175 0.02 0 0.18 0.02 0 0.185 0.02 0 0.19 0.02 0 0.195 0.02 0 0.2 0.02 0 0.205 0.02 0 0.21 0.02 0 0.215 0.02 0 0.22 0.02 0 0.225 0.02 0 0.23 0.02 0 0.235001 0.02 0 0.240002 0.02 0 0.245006 0.02 0 0.250014 0.02 0 0.255033 0.02 0 0.260072 0.02 0 0.265141 0.02 0 0.270257 0.02 0 0.275434 0.02 0 0.280684 0.02 0 0.286018 0.02 0 0.291446 0.02 0 0.296973 0.02 0 0.302607 0.02 0 0.308354 0.02 0 0.314219 0.02 0 0.32021 0.02 0 0.326333 0.02 0 0.332595 0.02 0 0.339003 0.02 0 0.345567 0.02 0 0.352293 0.02 0 0.359193 0.02 0 0.366276 0.02 0 0.373553 0.02 0 0.381036 0.02 0 0.388739 0.02 0 0.396677 0.02 0 0.404866 0.02 0 0.413322 0.02 0 0.422067 0.02 0 0.431121 0.02 0 0.440509 0.02 0 0.450255 0.02 0 0.46039 0.02 0 0.47094 0.02 0 0.481935 0.02 0 0.493391 0.02 0 0.505294 0.02 0 0.51753 0.02 0 0.529809 0.02 0 0.541993 0.02 0 0.554071 0.02 0 0.56605 0.02 0 0.577954 0.02 0 0.58981 0.02 0 0.601641 0.02 0 0.613459 0.02 0 0.625271 0.02 0 0.637081 0.02 0 0.64889 0.02 0 0.660698 0.02 0 0.67251 0.02 0 0.68432 0.02 0 0.686599 0.02 0 0.688878 0.02 0 0.691157 0.02 0 0.693436 0.02 0 0.695714 0.02 0 0.697991 0.02 0 0.700267 0.02 0 0.702542 0.02 0 0.704819 0.02 0 0.707095 0.02 0 0.709372 0.02 0 0.711652 0.02 0 0.713932 0.02 0 0.716211 0.02 0 0.718488 0.02 0 0.720766 0.02 0 0.723046 0.02 0 0.725325 0.02 0 0.727602 0.02 0 0.729879 0.02 0 0.732157 0.02 0 0.734439 0.02 0 0.73672 0.02 0 0.739001 0.02 0 0.741281 0.02 0 0.74356 0.02 0 0.745838 0.02 0 0.748118 0.02 0 0.750397 0.02 0 0.752675 0.02 0 0.754954 0.02 0 0.757236 0.02 0 0.759517 0.02 0 0.761797 0.02 0 0.764078 0.02 0 0.766358 0.02 0 0.768639 0.02 0 0.77092 0.02 0 0.7732 0.02 0 0.77548 0.02 0 0.777761 0.02 0 0.780042 0.02 0 0.782322 0.02 0 0.7846 0.02 0 0.786879 0.02 0 0.78916 0.02 0 0.79144 0.02 0 0.793718 0.02 0 0.795999 0.02 0 0.798282 0.02 0 0.800564 0.02 0 0.802845 0.02 0 0.805125 0.02 0 0.807404 0.02 0 0.809682 0.02 0 0.811959 0.02 0 0.814236 0.02 0 0.816519 0.02 0 0.818802 0.02 0 0.821091 0.02 0 0.823405 0.02 0 0.825743 0.02 0 0.828166 0.02 0 0.830728 0.02 0 0.83341 0.02 0 0.836319 0.02 0 0.83948 0.02 0 0.842966 0.02 0 0.846803 0.02 0 0.850993 0.02 0 0.855491 0.02 0 0.860219 0.02 0 0.86509 0.02 0 0.870036 0.02 0 0.875014 0.02 0 0.880005 0.02 0 0.885002 0.02 0 0.890001 0.02 0 0.895 0.02 0 0.9 0.02 0 0.905 0.02 0 0.91 0.02 0 0.915 0.02 0 0.92 0.02 0 0.925 0.02 0 0.93 0.02 0 0.935 0.02 0 0.94 0.02 0 0.945 0.02 0 0.95 0.02 0 0.955 0.02 0 0.96 0.02 0 0.965 0.02 0 0.97 0.02 0 0.975 0.02 0 0.98 0.02 0 0.985 0.02 0 0.99 0.02 0 0.995 0.02 0 1 0.02 0 0 0.04 0 0.005 0.04 0 0.01 0.04 0 0.015 0.04 0 0.02 0.04 0 0.025 0.04 0 0.03 0.04 0 0.035 0.04 0 0.04 0.04 0 0.045 0.04 0 0.05 0.04 0 0.055 0.04 0 0.06 0.04 0 0.065 0.04 0 0.07 0.04 0 0.075 0.04 0 0.08 0.04 0 0.085 0.04 0 0.09 0.04 0 0.095 0.04 0 0.1 0.04 0 0.105 0.04 0 0.11 0.04 0 0.115 0.04 0 0.12 0.04 0 0.125 0.04 0 0.13 0.04 0 0.135 0.04 0 0.14 0.04 0 0.145 0.04 0 0.15 0.04 0 0.155 0.04 0 0.16 0.04 0 0.165 0.04 0 0.17 0.04 0 0.175 0.04 0 0.18 0.04 0 0.185 0.04 0 0.19 0.04 0 0.195 0.04 0 0.2 0.04 0 0.205 0.04 0 0.21 0.04 0 0.215 0.04 0 0.22 0.04 0 0.225 0.04 0 0.23 0.04 0 0.235001 0.04 0 0.240002 0.04 0 0.245006 0.04 0 0.250014 0.04 0 0.255033 0.04 0 0.260072 0.04 0 0.265141 0.04 0 0.270257 0.04 0 0.275434 0.04 0 0.280684 0.04 0 0.286018 0.04 0 0.291446 0.04 0 0.296973 0.04 0 0.302607 0.04 0 0.308354 0.04 0 0.314219 0.04 0 0.32021 0.04 0 0.326333 0.04 0 0.332595 0.04 0 0.339003 0.04 0 0.345567 0.04 0 0.352293 0.04 0 0.359193 0.04 0 0.366276 0.04 0 0.373553 0.04 0 0.381036 0.04 0 0.388739 0.04 0 0.396677 0.04 0 0.404866 0.04 0 0.413322 0.04 0 0.422067 0.04 0 0.431121 0.04 0 0.440509 0.04 0 0.450255 0.04 0 0.46039 0.04 0 0.47094 0.04 0 0.481935 0.04 0 0.493391 0.04 0 0.505294 0.04 0 0.51753 0.04 0 0.529809 0.04 0 0.541993 0.04 0 0.554071 0.04 0 0.56605 0.04 0 0.577954 0.04 0 0.58981 0.04 0 0.601641 0.04 0 0.613459 0.04 0 0.625271 0.04 0 0.637081 0.04 0 0.64889 0.04 0 0.660698 0.04 0 0.67251 0.04 0 0.68432 0.04 0 0.686599 0.04 0 0.688878 0.04 0 0.691157 0.04 0 0.693436 0.04 0 0.695714 0.04 0 0.697991 0.04 0 0.700267 0.04 0 0.702542 0.04 0 0.704819 0.04 0 0.707095 0.04 0 0.709372 0.04 0 0.711652 0.04 0 0.713932 0.04 0 0.716211 0.04 0 0.718488 0.04 0 0.720766 0.04 0 0.723046 0.04 0 0.725325 0.04 0 0.727602 0.04 0 0.729879 0.04 0 0.732157 0.04 0 0.734439 0.04 0 0.73672 0.04 0 0.739001 0.04 0 0.741281 0.04 0 0.74356 0.04 0 0.745838 0.04 0 0.748118 0.04 0 0.750397 0.04 0 0.752675 0.04 0 0.754954 0.04 0 0.757236 0.04 0 0.759517 0.04 0 0.761797 0.04 0 0.764078 0.04 0 0.766358 0.04 0 0.768639 0.04 0 0.77092 0.04 0 0.7732 0.04 0 0.77548 0.04 0 0.777761 0.04 0 0.780042 0.04 0 0.782322 0.04 0 0.7846 0.04 0 0.786879 0.04 0 0.78916 0.04 0 0.79144 0.04 0 0.793718 0.04 0 0.795999 0.04 0 0.798282 0.04 0 0.800564 0.04 0 0.802845 0.04 0 0.805125 0.04 0 0.807404 0.04 0 0.809682 0.04 0 0.811959 0.04 0 0.814236 0.04 0 0.816519 0.04 0 0.818802 0.04 0 0.821091 0.04 0 0.823405 0.04 0 0.825743 0.04 0 0.828166 0.04 0 0.830728 0.04 0 0.83341 0.04 0 0.836319 0.04 0 0.83948 0.04 0 0.842966 0.04 0 0.846803 0.04 0 0.850993 0.04 0 0.855491 0.04 0 0.860219 0.04 0 0.86509 0.04 0 0.870036 0.04 0 0.875014 0.04 0 0.880005 0.04 0 0.885002 0.04 0 0.890001 0.04 0 0.895 0.04 0 0.9 0.04 0 0.905 0.04 0 0.91 0.04 0 0.915 0.04 0 0.92 0.04 0 0.925 0.04 0 0.93 0.04 0 0.935 0.04 0 0.94 0.04 0 0.945 0.04 0 0.95 0.04 0 0.955 0.04 0 0.96 0.04 0 0.965 0.04 0 0.97 0.04 0 0.975 0.04 0 0.98 0.04 0 0.985 0.04 0 0.99 0.04 0 0.995 0.04 0 1 0.04 0 0 0.06 0 0.005 0.06 0 0.01 0.06 0 0.015 0.06 0 0.02 0.06 0 0.025 0.06 0 0.03 0.06 0 0.035 0.06 0 0.04 0.06 0 0.045 0.06 0 0.05 0.06 0 0.055 0.06 0 0.06 0.06 0 0.065 0.06 0 0.07 0.06 0 0.075 0.06 0 0.08 0.06 0 0.085 0.06 0 0.09 0.06 0 0.095 0.06 0 0.1 0.06 0 0.105 0.06 0 0.11 0.06 0 0.115 0.06 0 0.12 0.06 0 0.125 0.06 0 0.13 0.06 0 0.135 0.06 0 0.14 0.06 0 0.145 0.06 0 0.15 0.06 0 0.155 0.06 0 0.16 0.06 0 0.165 0.06 0 0.17 0.06 0 0.175 0.06 0 0.18 0.06 0 0.185 0.06 0 0.19 0.06 0 0.195 0.06 0 0.2 0.06 0 0.205 0.06 0 0.21 0.06 0 0.215 0.06 0 0.22 0.06 0 0.225 0.06 0 0.23 0.06 0 0.235001 0.06 0 0.240002 0.06 0 0.245006 0.06 0 0.250014 0.06 0 0.255033 0.06 0 0.260072 0.06 0 0.265141 0.06 0 0.270257 0.06 0 0.275434 0.06 0 0.280684 0.06 0 0.286018 0.06 0 0.291446 0.06 0 0.296973 0.06 0 0.302607 0.06 0 0.308354 0.06 0 0.314219 0.06 0 0.32021 0.06 0 0.326333 0.06 0 0.332595 0.06 0 0.339003 0.06 0 0.345567 0.06 0 0.352293 0.06 0 0.359193 0.06 0 0.366276 0.06 0 0.373553 0.06 0 0.381036 0.06 0 0.388739 0.06 0 0.396677 0.06 0 0.404866 0.06 0 0.413322 0.06 0 0.422067 0.06 0 0.431121 0.06 0 0.440509 0.06 0 0.450255 0.06 0 0.46039 0.06 0 0.47094 0.06 0 0.481935 0.06 0 0.493391 0.06 0 0.505294 0.06 0 0.51753 0.06 0 0.529809 0.06 0 0.541993 0.06 0 0.554071 0.06 0 0.56605 0.06 0 0.577954 0.06 0 0.58981 0.06 0 0.601641 0.06 0 0.613459 0.06 0 0.625271 0.06 0 0.637081 0.06 0 0.64889 0.06 0 0.660698 0.06 0 0.67251 0.06 0 0.68432 0.06 0 0.686599 0.06 0 0.688878 0.06 0 0.691157 0.06 0 0.693436 0.06 0 0.695714 0.06 0 0.697991 0.06 0 0.700267 0.06 0 0.702542 0.06 0 0.704819 0.06 
[...]
			<PointData Scalars="VitesseX">
				<DataArray Name="VitesseX" type="Float32" format="ascii">
 0 4.93898e-16 1.54543e-15 -7.08825e-15 4.07739e-15 -5.04752e-16 4.58714e-15 3.44122e-15 1.03834e-14 7.3167e-15 7.95959e-15 3.54325e-15 6.13181e-15 3.75357e-15 1.44903e-14 7.53798e-17 6.67614e-15 8.99743e-15 -1.05303e-14 9.78302e-15 1.60187e-14 -6.19363e-15 6.92745e-15 -1.21935e-15 1.66501e-14 -2.09535e-14 3.99811e-14 2.30117e-14 3.39831e-14 8.40324e-15 4.27311e-14 2.94949e-14 6.08075e-14 1.48052e-13 8.87478e-13 4.832e-12 2.7741e-11 1.50912e-10 7.84177e-10 3.87675e-09 1.82006e-08 8.09783e-08 3.40633e-07 1.35109e-06 5.03781e-06 1.75969e-05 5.73462e-05 0.000173534 0.00048495 0.00124391 0.00291035 0.00617771 0.0118628 0.0206356 0.0327307 0.0478687 0.0654471 0.0848247 0.105503 0.127165 0.14963 0.172805 0.196646 0.221133 0.246266 0.272052 0.298507 0.325652 0.353514 0.382122 0.411511 0.44172 0.47279 0.504766 0.537697 0.571634 0.606631 0.642738 0.680003 0.718457 0.758099 0.798854 0.840485 0.882356 0.922813 0.957373 0.973895 0.966484 0.958188 0.949667 0.942937 0.9385 0.936011 0.93479 0.934231 0.93396 0.933805 0.933734 0.933832 0.933884 0.933305 0.9332 0.933106 0.933029 0.932971 0.932933 0.932914 0.932915 0.932939 0.933177 0.933669 0.933722 0.933633 0.933535 0.933404 0.933324 0.933243 0.933203 0.93319 0.933237 0.933666 0.934214 0.933929 0.933847 0.933633 0.933432 0.933221 0.933075 0.932984 0.932947 0.933083 0.933849 0.934118 0.93404 0.933817 0.933713 0.933622 0.933517 0.933449 0.93337 0.933293 0.933174 0.933042 0.93287 0.932723 0.932583 0.932505 0.932479 0.932567 0.933328 0.933473 0.933008 0.932334 0.931573 0.930812 0.930285 0.929964 0.931252 0.936526 0.939389 0.925776 0.933692 0.879853 0.837593 0.845554 0.736088 0.677474 0.560515 0.451853 0.324832 0.211785 0.120293 0.0595084 0.0261084 0.0106006 0.00413798 0.00158784 0.000605051 0.000229886 8.72197e-05 3.30589e-05 1.2518e-05 4.73439e-06 1.78791e-06 6.73937e-07 2.5346e-07 9.50662e-08 3.55446e-08 1.32418e-08 4.91299e-09 1.81453e-09 6.66784e-10 2.43756e-10 8.85316e-11 3.19568e-11 1.14931e-11 4.13232e-12 1.48959e-12 5.33819e-13 1.70577e-13 0 0 -1.5774e-15 -2.44059e-15 -4.78056e-16 -4.53221e-15 2.01169e-15 4.08703e-15 6.81088e-15 4.41986e-15 6.36084e-15 7.14084e-15 6.28886e-15 5.75892e-15 1.15941e-14 3.37737e-15 1.1198e-14 -8.95018e-15 1.06864e-14 1.07733e-14 1.05118e-14 -6.56766e-15 1.37991e-14 -4.66726e-15 1.04153e-14 1.92049e-16 2.38312e-14 1.26006e-14 5.1846e-15 2.41243e-14 3.41869e-14 4.49265e-14 4.42216e-14 6.78628e-14 1.47341e-13 8.58214e-13 4.84052e-12 2.77026e-11 1.50966e-10 7.84189e-10 3.87666e-09 1.82006e-08 8.09783e-08 3.40633e-07 1.35109e-06 5.03781e-06 1.75969e-05 5.73462e-05 0.000173534 0.00048495 0.00124391 0.00291035 0.00617771 0.0118628 0.0206356 0.0327307 0.0478687 0.0654471 0.0848247 0.105503 0.127165 0.14963 0.172805 0.196646 0.221133 0.246266 0.272052 0.298507 0.325652 0.353514 0.382122 0.411511 0.44172 0.47279 0.504766 0.537697 0.571634 0.606631 0.642738 0.680003 0.718457 0.758099 0.798854 0.840485 0.882356 0.922813 0.957373 0.973895 0.966484 0.958188 0.949667 0.942937 0.9385 0.936011 0.93479 0.934231 0.93396 0.933805 0.933734 0.933832 0.933884 0.933305 0.9332 0.933106 0.933029 0.932971 0.932933 0.932914 0.932915 0.932939 0.933177 0.933669 0.933722 0.933633 0.933535 0.933404 0.933324 0.933243 0.933203 0.93319 0.933237 0.933666 0.934214 0.933929 0.933847 0.933633 0.933432 0.933221 0.933075 0.932984 0.932947 0.933083 0.933849 0.934118 0.93404 0.933817 0.933713 0.933622 0.933517 0.933449 0.93337 0.933293 0.933174 0.933042 0.93287 0.932723 0.932583 0.932505 0.932479 0.932567 0.933328 0.933473 0.933008 0.932334 0.931573 0.930812 0.930285 0.929964 0.931252 0.936526 0.939389 0.925776 0.933692 0.879853 0.837593 0.845554 0.736088 0.677474 0.560515 0.451853 0.324832 0.211785 0.120293 0.0595084 0.0261084 0.0106006 0.00413798 0.00158784 0.000605051 0.000229886 8.72197e-05 3.30589e-05 1.2518e-05 4.73439e-06 1.78791e-06 6.73937e-07 2.5346e-07 9.50662e-08 3.55446e-08 1.32417e-08 4.91302e-09 1.81453e-09 6.66837e-10 2.43628e-10 8.86079e-11 3.2007e-11 1.15694e-11 4.16233e-12 1.51244e-12 5.51667e-13 1.33711e-13 0 0 -2.90525e-15 -3.57499e-15 -1.91172e-15 -4.06105e-15 2.19224e-15 -3.60595e-15 7.25424e-15 6.3086e-15 4.13339e-15 3.14355e-15 5.41766e-15 1.0556e-14 1.54485e-14 8.3524e-16 1.14191e-14 -1.11207e-14 1.34317e-14 6.62975e-15 1.27543e-14 -1.52209e-14 1.29691e-14 2.62839e-14 1.97863e-16 7.01436e-15 1.62959e-14 2.83499e-14 1.18805e-14 2.75001e-14 4.11123e-14 2.24208e-14 6.1637e-14 8.09788e-14 1.921e-13 7.97052e-13 4.8345e-12 2.76738e-11 1.50973e-10 7.84192e-10 3.8766e-09 1.82006e-08 8.09782e-08 3.40634e-07 1.35109e-06 5.03781e-06 1.75969e-05 5.73462e-05 0.000173534 0.00048495 0.00124391 0.00291035 0.00617771 0.0118628 0.0206356 0.0327307 0.0478687 0.0654471 0.0848247 0.105503 0.127165 0.14963 0.172805 0.196646 0.221133 0.246266 0.272052 0.298507 0.325652 0.353514 0.382122 0.411511 0.44172 0.47279 0.504766 0.537697 0.571634 0.606631 0.642738 0.680003 0.718457 0.758099 0.798854 0.840485 0.882356 0.922813 0.957373 0.973895 0.966484 0.958188 0.949667 0.942937 0.9385 0.936011 0.93479 0.934231 0.93396 0.933805 0.933734 0.933832 0.933884 0.933305 0.9332 0.933106 0.933029 0.932971 0.932933 0.932914 0.932915 0.932939 0.933177 0.933669 0.933722 0.933633 0.933535 0.933404 0.933324 0.933243 0.933203 0.93319 0.933237 0.933666 0.934214 0.933929 0.933847 0.933633 0.933432 0.933221 0.933075 0.932984 0.932947 0.933083 0.933849 0.934118 0.93404 0.933817 0.933713 0.933622 0.933517 0.933449 0.93337 0.933293 0.933174 0.933042 0.93287 0.932723 0.932583 0.932505 0.932479 0.932567 0.933328 0.933473 0.933008 0.932334 0.931573 0.930812 0.930285 0.929964 0.931252 0.936526 0.939389 0.925776 0.933692 0.879853 0.837593 0.845554 0.736088 0.677474 0.560515 0.451853 0.324832 0.211785 0.120293 0.0595084 0.0261084 0.0106006 0.00413798 0.00158784 0.000605051 0.000229886 8.72197e-05 3.30589e-05 1.2518e-05 4.73439e-06 1.78791e-06 6.73937e-07 2.5346e-07 9.50662e-08 3.55445e-08 1.32418e-08 4.91299e-09 1.81444e-09 6.66952e-10 2.43758e-10 8.86925e-11 3.20479e-11 1.15597e-11 4.17785e-12 1.5545e-12 5.00354e-13 5.99512e-14 0 0 -4.53535e-15 -4.32503e-15 -6.90944e-15 -8.47087e-16 -5.01413e-15 1.30653e-15 1.9423e-15 4.91844e-16 4.44532e-15 8.14904e-15 5.89615e-15 -6.02503e-15 9.08326e-15 5.88038e-16 1.3867e-14 7.74697e-15 7.71822e-15 -5.00831e-15 6.07603e-15 -1.54622e-14 1.88221e-14 1.80747e-14 2.07518e-14 1.4432e-14 1.19446e-14 3.40282e-14 2.74365e-14 4.62999e-14 3.60563e-14 4.2895e-14 6.53324e-14 1.144e-13 1.91154e-13 7.99693e-13 4.81189e-12 2.76176e-11 1.50919e-10 7.84136e-10 3.87666e-09 1.82005e-08 8.09783e-08 3.40633e-07 1.35109e-06 5.03781e-06 1.75969e-05 5.73462e-05 0.000173534 0.00048495 0.00124391 0.00291035 0.00617771 0.0118628 0.0206356 0.0327307 0.0478687 0.0654471 0.0848247 0.105503 0.127165 0.14963 0.172805 0.196646 0.221133 0.246266 0.272052 0.298507 0.325652 0.353514 0.382122 0.411511 0.44172 0.47279 0.504766 0.537697 0.571634 0.606631 0.642738 0.680003 0.718457 0.758099 0.798854 0.840485 0.882356 0.922813 0.957373 0.973895 0.966484 0.958188 0.949667 0.942937 0.9385 0.936011 0.93479 0.934231 0.93396 0.933805 0.933734 0.933832 0.933884 0.933305 0.9332 0.933106 0.933029 0.932971 0.932933 0.932914 0.932915 0.932939 0.933177 0.933669 0.933722 0.933633 0.933535 0.933404 0.933324 0.933243 0.933203 0.93319 0.933237 0.933666 0.934214 0.933929 0.933847 0.933633 0.933432 0.933221 0.933075 0.932984 0.932947 0.933083 0.933849 0.934118 0.93404 0.933817 0.933713 0.933622 0.933517 0.933449 0.93337 0.933293 0.933174 0.933042 0.93287 0.932723 0.932583 0.932505 0.932479 0.932567 0.933328 0.933473 0.933008 0.932334 0.931573 0.930812 0.930285 0.929964 0.931252 0.936526 0.939389 0.925776 0.933692 0.879853 0.837593 0.845554 0.736088 0.677474 0.560515 0.451853 0.324832 0.211785 0.120293 0.0595084 0.0261084 0.0106006 0.00413798 0.00158784 0.000605051 0.000229886 8.72197e-05 3.30589e-05 1.2518e-05 4.73439e-06 1.78791e-06 6.73937e-07 2.5346e-07 9.50663e-08 3.55445e-08 1.32419e-08 4.91297e-09 1.81441e-09 6.66865e-10 2.43839e-10 8.88094e-11 3.2147e-11 1.1492e-11 4.11398e-12 1.49664e-12 4.13322e-13 -7.40227e-14 0 0 -4.49164e-15 -5.63087e-15 -3.85271e-15 -3.32978e-15 -5.45352e-15 2.66577e-16 -8.5073e-16 -7.91469e-15 -1.80967e-15 6.21927e-15 1.34176e-14 -8.59009e-15 -1.20884e-15 -4.35809e-15 9.75229e-15 1.08447e-14 -9.26538e-15 8.15373e-16 7.96836e-16 -1.71096e-15 4.24936e-14 -1.25374e-14 1.7816e-14 4.47024e-14 5.11624e-14 7.77029e-15 2.39904e-14 3.7098e-14 5.12031e-14 7.24264e-14 1.32123e-13 1.27424e-13 1.1959e-13 8.16309e-13 4.74428e-12 2.75552e-11 1.50884e-10 7.84079e-10 3.87664e-09 1.82006e-08 8.09783e-08 3.40633e-07 1.35109e-06 5.03781e-06 1.75969e-05 5.73462e-05 0.000173534 0.00048495 0.00124391 0.00291035 0.00617771 0.0118628 0.0206356 0.0327307 0.0478687 0.0654471 0.0848247 0.105503 0.127165 0.14963 0.172805 0.196646 0.221133 0.246266 0.272052 0.298507 0.325652 0.353514 0.382122 0.411511 0.44172 0.47279 0.504766 0.537697 0.571634 0.606631 0.642738 0.680003 0.718457 0.758099 0.798854 0.840485 0.882356 0.922813 0.957373 0.973895 0.966484 0.958188 0.949667 0.942937 0.9385 0.936011 0.93479 0.934231 0.93396 0.933805 0.933734 0.933832 0.933884 0.933305 0.9332 0.933106 0.933029 0.932971 0.932933 0.932914 0.932915 0.932939 0.933177 0.933669 0.933722 0.933633 0.933535 0.933404 0.933324 0.933243 0.933203 0.93319 0.933237 0.933666 0.934214 0.933929 0.933847 0.933633 0.933432 0.933221 0.933075 0.932984 0.932947 0.933083 0.933849 0.934118 0.93404 0.933817 0.933713 0.933622 0.933517 0.933449 0.93337 0.933293 0.933174 0.933042 0.93287 0.932723 0.932583 0.932505 0.932479 0.932567 0.933328 0.933473 0.933008 0.932334 0.931573 0.930812 0.930285 0.929964 0.931252 0.936526 0.939389 0.925776 0.933692 0.879853 0.837593 0.845554 0.736088 0.677474 0.560515 0.451853 0.324832 0.211785 0.120293 0.0595084 0.0261084 0.0106006 0.00413798 0.00158784 0.000605051 0.000229886 8.72197e-05 3.30589e-05 1.2518e-05 4.73439e-06 1.78791e-06 6.73937e-07 2.5346e-07 9.50662e-08 3.55446e-08 1.32419e-08 4.91296e-09 1.81454e-09 6.66849e-10 2.43696e-10 8.8773e-11 3.20989e-11 1.15526e-11 4.12049e-12 1.41326e-12 3.94166e-13 -7.54295e-14 0 0 -2.07437e-15 -3.33504e-15 -3.84212e-15 5.43238e-17 -1.02244e-15 -1.28787e-14 -1.25813e-15 -2.65219e-15 -9.64819e-15 -3.89454e-15 1.68438e-14 1.05958e-14 -9.12181e-15 -4.86192e-16 -7.71199e-15 8.53049e-15 -1.94791e-14 -7.17006e-15 3.70959e-15 2.62147e-14 3.94892e-14 7.60556e-15 -2.75258e-14 9.08356e-14 4.24115e-14 1.89639e-14 2.95113e-14 2.23309e-14 5.25476e-14 5.67825e-14 1.97907e-13 1.13089e-13 9.44407e-14 7.98387e-13 4.68474e-12 2.75587e-11 1.50856e-10 7.8407e-10 3.87659e-09 1.82006e-08 8.09782e-08 3.40633e-07 1.35109e-06 5.03781e-06 1.75969e-05 5.73462e-05 0.000173534 0.00048495 0.00124391 0.00291035 0.00617771 0.0118628 0.0206356 0.0327307 0.0478687 0.0654471 0.0848247 0.105503 0.127165 0.14963 0.172805 0.196646 0.221133 0.246266 0.272052 0.298507 0.325652 0.353514 0.382122 0.411511 0.44172 0.47279 0.504766 0.537697 0.571634 0.606631 0.642738 0.680003 0.718457 0.758099 0.798854 0.840485 0.882356 0.922813 0.957373 0.973895 0.966484 0.958188 0.949667 0.942937 0.9385 0.936011 0.93479 0.934231 0.93396 0.933805 0.933734 0.933832 0.933884 0.933305 0.9332 0.933106 0.933029 0.932971 0.932933 0.932914 0.932915 0.932939 0.933177 0.933669 0.933722 0.933633 0.933535 0.933404 0.933324 0.933243 0.933203 0.93319 0.933237 0.933666 0.934214 0.933929 0.933847 0.933633 0.933432 0.933221 0.933075 0.932984 0.932947 0.933083 0.933849 0.934118 0.93404 0.933817 0.933713 0.933622 0.933517 0.933449 0.93337 0.933293 0.933174 0.933042 0.93287 0.932723 0.932583 0.932505 0.932479 0.932567 0.933328 0.933473 0.933008 0.932334 0.931573 0.930812 0.930285 0.929964 0.931252 0.936526 0.939389 0.925776 0.933692 0.879853 0.837593 0.845554 0.736088 0.677474 0.560515 0.451853 0.324832 0.211785 0.120293 0.0595084 0.0261084 0.0106006 0.00413798 0.00158784 0.000605051 0.000229886 8.72197e-05 3.30589e-05 1.2518e-05 4.73439e-06 1.78791e-06 6.73937e-07 2.5346e-07 9.50661e-08 3.55446e-08 1.32419e-08 4.91291e-09 1.81462e-09 6.66981e-10 2.4373e-10 8.86272e-11 3.19417e-11 1.15945e-11 4.1765e-12 1.40674e-12 3.92074e-13 1.96624e-14 0
				</DataArray>
				<DataArray Name="VitesseY" type="Float32" format="ascii">