<?xml version="1.0"?>
<VTKFile type="PolyData">
	<PolyData>
		<Piece NumberOfPoints="1206" NumberOfPolys="1000">
			<Points>
				<DataArray type="Float32" NumberOfComponents="3" format="ascii">
 0 0 0 0.005 0 0 0.01 0 0 0.015 0 0 0.02 0 0 0.025 0 0 0.03 0 0 0.035 0 0 0.04 0 0 0.045 0 0 0.05 0 0 0.055 0 0 0.06 0 0 0.065 0 0 0.07 0 0 0.075 0 0 0.08 0 0 0.085 0 0 0.09 0 0 0.095 0 0 0.1 0 0 0.105 0 0 0.11 0 0 0.115 0 0 0.12 0 0 0.125 0 0 0.13 0 0 0.135 0 0 0.14 0 0 0.145 0 0 0.15 0 0 0.155 0 0 0.16 0 0 0.165 0 0 0.17 0 0 0.175 0 0 0.18 0 0 0.185 0 0 0.19 0 0 0.195 0 0 0.2 0 0 0.205 0 0 0.21 0 0 0.215 0 0 0.22 0 0 0.225 0 0 0.23 0 0 0.235 0 0 0.24 0 0 0.245 0 0 0.250001 0 0 0.255003 0 0 0.260009 0 0 0.265022 0 0 0.27005 0 0 0.275105 0 0 0.280201 0 0 0.285355 0 0 0.29058 0 0 0.29589 0 0 0.301296 0 0 0.306805 0 0 0.312425 0 0 0.318163 0 0 0.324025 0 0 0.33002 0 0 0.336154 0 0 0.342436 0 0 0.348873 0 0 0.355476 0 0 0.362253 0 0 0.369216 0 0 0.376377 0 0 0.383748 0 0 0.391343 0 0 0.399179 0 0 0.407272 0 0 0.41564 0 0 0.424306 0 0 0.433293 0 0 0.442626 0 0 0.452334 0 0 0.462448 0 0 0.472999 0 0 0.484017 0 0 0.495521 0 0 0.507487 0 0 0.519765 0 0 0.532039 0 0 0.54421 0 0 0.556268 0 0 0.568227 0 0 0.580116 0 0 0.591963 0 0 0.603788 0 0 0.615604 0 0 0.627416 0 0 0.639226 0 0 0.651034 0 0 0.662843 0 0 0.674658 0 0 0.676938 0 0 0.679218 0 0 0.681498 0 0 0.683778 0 0 0.686057 0 0 0.688335 0 0 0.690611 0 0 0.692887 0 0 0.695165 0 0 0.697439 0 0 0.699715 0 0 0.701993 0 0 0.704272 0 0 0.706549 0 0 0.708826 0 0 0.711105 0 0 0.713385 0 0 0.715665 0 0 0.717944 0 0 0.72022 0 0 0.722497 0 0 0.724777 0 0 0.727057 0 0 0.729336 0 0 0.731615 0 0 0.733895 0 0 0.736176 0 0 0.738458 0 0 0.740739 0 0 0.743019 0 0 0.745298 0 0 0.747578 0 0 0.749857 0 0 0.752135 0 0 0.754413 0 0 0.756693 0 0 0.758975 0 0 0.761258 0 0 0.763539 0 0 0.76582 0 0 0.768102 0 0 0.770384 0 0 0.772664 0 0 0.774944 0 0 0.777225 0 0 0.779507 0 0 0.781789 0 0 0.784069 0 0 0.78635 0 0 0.788631 0 0 0.790912 0 0 0.79319 0 0 0.795469 0 0 0.797751 0 0 0.800033 0 0 0.802314 0 0 0.804604 0 0 0.806931 0 0 0.8093 0 0 0.811798 0 0 0.81444 0 0 0.817232 0 0 0.820275 0 0 0.823609 0 0 0.827284 0 0 0.831317 0 0 0.835684 0 0 0.840319 0 0 0.845136 0 0 0.850054 0 0 0.855021 0 0 0.860008 0 0 0.865003 0 0 0.870001 0 0 0.875 0 0 0.88 0 0 0.885 0 0 0.89 0 0 0.895 0 0 0.9 0 0 0.905 0 0 0.91 0 0 0.915 0 0 0.92 0 0 0.925 0 0 0.93 0 0 0.935 0 0 0.94 0 0 0.945 0 0 0.95 0 0 0.955 0 0 0.96 0 0 0.965 0 0 0.97 0 0 0.975 0 0 0.98 0 0 0.985 0 0 0.99 0 0 0.995 0 0 1 0 0 0 0.02 0 0.005 0.02 0 0.01 0.02 0 0.015 0.02 0 0.02 0.02 0 0.025 0.02 0 0.03 0.02 0 0.035 0.02 0 0.04 0.02 0 0.045 0.02 0 0.05 0.02 0 0.055 0.02 0 0.06 0.02 0 0.065 0.02 0 0.07 0.02 0 0.075 0.02 0 0.08 0.02 0 0.085 0.02 0 0.09 0.02 0 0.095 0.02 0 0.1 0.02 0 0.105 0.02 0 0.11 0.02 0 0.115 0.02 0 0.12 0.02 0 0.125 0.02 0 0.13 0.02 0 0.135 0.02 0 0.14 0.02 0 0.145 0.02 0 0.15 0.02 0 0.155 0.02 0 0.16 0.02 0 0.165 0.02 0 0.17 0.02 0 0.175 0.02 0 0.18 0.02 0 0.185 0.02 0 0.19 0.02 0 0.195 0.02 0 0.2 0.02 0 0.205 0.02 0 0.21 0.02 0 0.215 0.02 0 0.22 0.02 0 0.225 0.02 0 0.23 0.02 0 0.235 0.02 0 0.24 0.02 0 0.245 0.02 0 0.250001 0.02 0 0.255003 0.02 0 0.260009 0.02 0 0.265022 0.02 0 0.27005 0.02 0 0.275105 0.02 0 0.280201 0.02 0 0.285355 0.02 0 0.29058 0.02 0 0.29589 0.02 0 0.301296 0.02 0 0.306805 0.02 0 0.312425 0.02 0 0.318163 0.02 0 0.324025 0.02 0 0.33002 0.02 0 0.336154 0.02 0 0.342436 0.02 0 0.348873 0.02 0 0.355476 0.02 0 0.362253 0.02 0 0.369216 0.02 0 0.376377 0.02 0 0.383748 0.02 0 0.391343 0.02 0 0.399179 0.02 0 0.407272 0.02 0 0.41564 0.02 0 0.424306 0.02 0 0.433293 0.02 0 0.442626 0.02 0 0.452334 0.02 0 0.462448 0.02 0 0.472999 0.02 0 0.484017 0.02 0 0.495521 0.02 0 0.507487 0.02 0 0.519765 0.02 0 0.532039 0.02 0 0.54421 0.02 0 0.556268 0.02 0 0.568227 0.02 0 0.580116 0.02 0 0.591963 0.02 0 0.603788 0.02 0 0.615604 0.02 0 0.627416 0.02 0 0.639226 0.02 0 0.651034 0.02 0 0.662843 0.02 0 0.674658 0.02 0 0.676938 0.02 0 0.679218 0.02 0 0.681498 0.02 0 0.683778 0.02 0 0.686057 0.02 0 0.688335 0.02 0 0.690611 0.02 0 0.692887 0.02 0 0.695165 0.02 0 0.697439 0.02 0 0.699715 0.02 0 0.701993 0.02 0 0.704272 0.02 0 0.706549 0.02 0 0.708826 0.02 0 0.711105 0.02 0 0.713385 0.02 0 0.715665 0.02 0 0.717944 0.02 0 0.72022 0.02 0 0.722497 0.02 0 0.724777 0.02 0 0.727057 0.02 0 0.729336 0.02 0 0.731615 0.02 0 0.733895 0.02 0 0.736176 0.02 0 0.738458 0.02 0 0.740739 0.02 0 0.743019 0.02 0 0.745298 0.02 0 0.747578 0.02 0 0.749857 0.02 0 0.752135 0.02 0 0.754413 0.02 0 0.756693 0.02 0 0.758975 0.02 0 0.761258 0.02 0 0.763539 0.02 0 0.76582 0.02 0 0.768102 0.02 0 0.770384 0.02 0 0.772664 0.02 0 0.774944 0.02 0 0.777225 0.02 0 0.779507 0.02 0 0.781789 0.02 0 0.784069 0.02 0 0.78635 0.02 0 0.788631 0.02 0 0.790912 0.02 0 0.79319 0.02 0 0.795469 0.02 0 0.797751 0.02 0 0.800033 0.02 0 0.802314 0.02 0 0.804604 0.02 0 0.806931 0.02 0 0.8093 0.02 0 0.811798 0.02 0 0.81444 0.02 0 0.817232 0.02 0 0.820275 0.02 0 0.823609 0.02 0 0.827284 0.02 0 0.831317 0.02 0 0.835684 0.02 0 0.840319 0.02 0 0.845136 0.02 0 0.850054 0.02 0 0.855021 0.02 0 0.860008 0.02 0 0.865003 0.02 0 0.870001 0.02 0 0.875 0.02 0 0.88 0.02 0 0.885 0.02 0 0.89 0.02 0 0.895 0.02 0 0.9 0.02 0 0.905 0.02 0 0.91 0.02 0 0.915 0.02 0 0.92 0.02 0 0.925 0.02 0 0.93 0.02 0 0.935 0.02 0 0.94 0.02 0 0.945 0.02 0 0.95 0.02 0 0.955 0.02 0 0.96 0.02 0 0.965 0.02 0 0.97 0.02 0 0.975 0.02 0 0.98 0.02 0 0.985 0.02 0 0.99 0.02 0 0.995 0.02 0 1 0.02 0 0 0.04 0 0.005 0.04 0 0.01 0.04 0 0.015 0.04 0 0.02 0.04 0 0.025 0.04 0 0.03 0.04 0 0.035 0.04 0 0.04 0.04 0 0.045 0.04 0 0.05 0.04 0 0.055 0.04 0 0.06 0.04 0 0.065 0.04 0 0.07 0.04 0 0.075 0.04 0 0.08 0.04 0 0.085 0.04 0 0.09 0.04 0 0.095 0.04 0 0.1 0.04 0 0.105 0.04 0 0.11 0.04 0 0.115 0.04 0 0.12 0.04 0 0.125 0.04 0 0.13 0.04 0 0.135 0.04 0 0.14 0.04 0 0.145 0.04 0 0.15 0.04 0 0.155 0.04 0 0.16 0.04 0 0.165 0.04 0 0.17 0.04 0 0.175 0.04 0 0.18 0.04 0 0.185 0.04 0 0.19 0.04 0 0.195 0.04 0 0.2 0.04 0 0.205 0.04 0 0.21 0.04 0 0.215 0.04 0 0.22 0.04 0 0.225 0.04 0 0.23 0.04 0 0.235 0.04 0 0.24 0.04 0 0.245 0.04 0 0.250001 0.04 0 0.255003 0.04 0 0.260009 0.04 0 0.265022 0.04 0 0.27005 0.04 0 0.275105 0.04 0 0.280201 0.04 0 0.285355 0.04 0 0.29058 0.04 0 0.29589 0.04 0 0.301296 0.04 0 0.306805 0.04 0 0.312425 0.04 0 0.318163 0.04 0 0.324025 0.04 0 0.33002 0.04 0 0.336154 0.04 0 0.342436 0.04 0 0.348873 0.04 0 0.355476 0.04 0 0.362253 0.04 0 0.369216 0.04 0 0.376377 0.04 0 0.383748 0.04 0 0.391343 0.04 0 0.399179 0.04 0 0.407272 0.04 0 0.41564 0.04 0 0.424306 0.04 0 0.433293 0.04 0 0.442626 0.04 0 0.452334 0.04 0 0.462448 0.04 0 0.472999 0.04 0 0.484017 0.04 0 0.495521 0.04 0 0.507487 0.04 0 0.519765 0.04 0 0.532039 0.04 0 0.54421 0.04 0 0.556268 0.04 0 0.568227 0.04 0 0.580116 0.04 0 0.591963 0.04 0 0.603788 0.04 0 0.615604 0.04 0 0.627416 0.04 0 0.639226 0.04 0 0.651034 0.04 0 0.662843 0.04 0 0.674658 0.04 0 0.676938 0.04 0 0.679218 0.04 0 0.681498 0.04 0 0.683778 0.04 0 0.686057 0.04 0 0.688335 0.04 0 0.690611 0.04 0 0.692887 0.04 0 0.695165 0.04 0 0.697439 0.04 0 0.699715 0.04 0 0.701993 0.04 0 0.704272 0.04 0 0.706549 0.04 0 0.708826 0.04 0 0.711105 0.04 0 0.713385 0.04 0 0.715665 0.04 0 0.717944 0.04 0 0.72022 0.04 0 0.722497 0.04 0 0.724777 0.04 0 0.727057 0.04 0 0.729336 0.04 0 0.731615 0.04 0 0.733895 0.04 0 0.736176 0.04 0 0.738458 0.04 0 0.740739 0.04 0 0.743019 0.04 0 0.745298 0.04 0 0.747578 0.04 0 0.749857 0.04 0 0.752135 0.04 0 0.754413 0.04 0 0.756693 0.04 0 0.758975 0.04 0 0.761258 0.04 0 0.763539 0.04 0 0.76582 0.04 0 0.768102 0.04 0 0.770384 0.04 0 0.772664 0.04 0 0.774944 0.04 0 0.777225 0.04 0 0.779507 0.04 0 0.781789 0.04 0 0.784069 0.04 0 0.78635 0.04 0 0.788631 0.04 0 0.790912 0.04 0 0.79319 0.04 0 0.795469 0.04 0 0.797751 0.04 0 0.800033 0.04 0 0.802314 0.04 0 0.804604 0.04 0 0.806931 0.04 0 0.8093 0.04 0 0.811798 0.04 0 0.81444 0.04 0 0.817232 0.04 0 0.820275 0.04 0 0.823609 0.04 0 0.827284 0.04 0 0.831317 0.04 0 0.835684 0.04 0 0.840319 0.04 0 0.845136 0.04 0 0.850054 0.04 0 0.855021 0.04 0 0.860008 0.04 0 0.865003 0.04 0 0.870001 0.04 0 0.875 0.04 0 0.88 0.04 0 0.885 0.04 0 0.89 0.04 0 0.895 0.04 0 0.9 0.04 0 0.905 0.04 0 0.91 0.04 0 0.915 0.04 0 0.92 0.04 0 0.925 0.04 0 0.93 0.04 0 0.935 0.04 0 0.94 0.04 0 0.945 0.04 0 0.95 0.04 0 0.955 0.04 0 0.96 0.04 0 0.965 0.04 0 0.97 0.04 0 0.975 0.04 0 0.98 0.04 0 0.985 0.04 0 0.99 0.04 0 0.995 0.04 0 1 0.04 0 0 0.06 0 0.005 0.06 0 0.01 0.06 0 0.015 0.06 0 0.02 0.06 0 0.025 0.06 0 0.03 0.06 0 0.035 0.06 0 0.04 0.06 0 0.045 0.06 0 0.05 0.06 0 0.055 0.06 0 0.06 0.06 0 0.065 0.06 0 0.07 0.06 0 0.075 0.06 0 0.08 0.06 0 0.085 0.06 0 0.09 0.06 0 0.095 0.06 0 0.1 0.06 0 0.105 0.06 0 0.11 0.06 0 0.115 0.06 0 0.12 0.06 0 0.125 0.06 0 0.13 0.06 0 0.135 0.06 0 0.14 0.06 0 0.145 0.06 0 0.15 0.06 0 0.155 0.06 0 0.16 0.06 0 0.165 0.06 0 0.17 0.06 0 0.175 0.06 0 0.18 0.06 0 0.185 0.06 0 0.19 0.06 0 0.195 0.06 0 0.2 0.06 0 0.205 0.06 0 0.21 0.06 0 0.215 0.06 0 0.22 0.06 0 0.225 0.06 0 0.23 0.06 0 0.235 0.06 0 0.24 0.06 0 0.245 0.06 0 0.250001 0.06 0 0.255003 0.06 0 0.260009 0.06 0 0.265022 0.06 0 0.27005 0.06 0 0.275105 0.06 0 0.280201 0.06 0 0.285355 0.06 0 0.29058 0.06 0 0.29589 0.06 0 0.301296 0.06 0 0.306805 0.06 0 0.312425 0.06 0 0.318163 0.06 0 0.324025 0.06 0 0.33002 0.06 0 0.336154 0.06 0 0.342436 0.06 0 0.348873 0.06 0 0.355476 0.06 0 0.362253 0.06 0 0.369216 0.06 0 0.376377 0.06 0 0.383748 0.06 0 0.391343 0.06 0 0.399179 0.06 0 0.407272 0.06 0 0.41564 0.06 0 0.424306 0.06 0 0.433293 0.06 0 0.442626 0.06 0 0.452334 0.06 0 0.462448 0.06 0 0.472999 0.06 0 0.484017 0.06 0 0.495521 0.06 0 0.507487 0.06 0 0.519765 0.06 0 0.532039 0.06 0 0.54421 0.06 0 0.556268 0.06 0 0.568227 0.06 0 0.580116 0.06 0 0.591963 0.06 0 0.603788 0.06 0 0.615604 0.06 0 0.627416 0.06 0 0.639226 0.06 0 0.651034 0.06 0 0.662843 0.06 0 0.674658 0.06 0 0.676938 0.06 0 0.679218 0.06 0 0.681498 0.06 0 0.683778 0.06 0 0.686057 0.06 0 0.688335 0.06 0 0.690611 0.06 0 0.692887 0.06 0 0.695165 0.06 0 0.697439 0.06 0 0.699715 0.06 0 0.701993 0.06 0 0.
[...]
			<PointData Scalars="VitesseX">
				<DataArray Name="VitesseX" type="Float32" format="ascii">
 0 -7.39355e-17 4.11804e-15 2.73642e-15 3.98637e-15 3.19584e-15 7.12501e-15 6.89332e-15 6.20993e-15 5.31169e-15 2.98832e-15 1.06908e-14 2.51688e-15 1.28448e-14 7.75088e-16 1.14098e-14 1.1932e-14 -8.57343e-16 1.01543e-14 7.48959e-15 2.11862e-14 -7.57653e-15 -1.06236e-14 1.94521e-14 5.64849e-15 -2.27883e-14 2.12959e-14 1.05912e-14 1.50539e-14 -5.64319e-16 1.71718e-14 2.1219e-14 3.39058e-14 2.32417e-14 3.1983e-14 1.0923e-13 2.24608e-13 1.25898e-12 7.37687e-12 4.32111e-11 2.39698e-10 1.26498e-09 6.33844e-09 3.00896e-08 1.35018e-07 5.71196e-07 2.27153e-06 8.46308e-06 2.94252e-05 9.50413e-05 0.000283657 0.000777525 0.0019445 0.00440871 0.00902008 0.0166365 0.0277774 0.0423937 0.0599512 0.0797365 0.10113 0.12371 0.147232 0.171568 0.196657 0.222473 0.249012 0.276284 0.304306 0.333104 0.36271 0.393159 0.424493 0.456758 0.490005 0.524288 0.559665 0.596196 0.633941 0.672954 0.713274 0.754902 0.797755 0.841553 0.885537 0.927668 0.962303 0.974519 0.965543 0.956496 0.947931 0.94153 0.93758 0.935506 0.934544 0.934113 0.933885 0.933727 0.933656 0.93392 0.933856 0.933786 0.93369 0.933564 0.933417 0.933254 0.933093 0.93294 0.932812 0.932711 0.932644 0.932605 0.932593 0.932606 0.932799 0.933381 0.933883 0.933653 0.933547 0.933421 0.933243 0.933117 0.932997 0.932948 0.932943 0.933304 0.934318 0.934292 0.934052 0.933712 0.933291 0.932932 0.932648 0.932421 0.932343 0.932433 0.933535 0.934157 0.933955 0.933525 0.933312 0.933124 0.933003 0.932957 0.933171 0.933277 0.933049 0.932754 0.932441 0.932226 0.93198 0.931804 0.931529 0.931484 0.932855 0.936483 0.935791 0.915603 0.928867 0.861875 0.813267 0.806756 0.700916 0.613883 0.502623 0.382085 0.26096 0.158222 0.0831794 0.0383359 0.0160252 0.00634275 0.00244786 0.000934787 0.00035542 0.000134857 5.10992e-05 1.93363e-05 7.30554e-06 2.75481e-06 1.03636e-06 3.88787e-07 1.45373e-07 5.41511e-08 2.00847e-08 7.41351e-09 2.72204e-09 9.93563e-10 3.60452e-10 1.29855e-10 4.65453e-11 1.65091e-11 5.91957e-12 2.056e-12 7.6749e-13 3.57675e-13 8.28984e-14 2.72386e-14 -7.013e-14 4.74583e-14 0 0 2.16953e-16 1.07881e-15 2.46732e-15 6.21321e-15 4.20452e-15 2.55721e-15 4.8161e-15 6.52704e-15 2.16061e-15 7.89531e-15 8.9044e-15 3.86111e-15 1.33088e-14 1.32971e-15 9.66376e-15 9.94203e-15 1.19427e-14 9.74746e-15 -2.2798e-15 8.76007e-15 1.67457e-15 9.09613e-15 -1.01101e-14 6.357e-15 1.9277e-14 5.29233e-16 9.19818e-15 -1.19194e-14 2.10034e-14 2.55166e-14 1.78352e-14 4.11373e-14 2.27966e-14 5.21224e-14 7.95485e-14 2.44251e-13 1.2273e-12 7.40742e-12 4.32567e-11 2.39609e-10 1.265e-09 6.33841e-09 3.00897e-08 1.35018e-07 5.71196e-07 2.27153e-06 8.46308e-06 2.94252e-05 9.50413e-05 0.000283657 0.000777525 0.0019445 0.00440871 0.00902008 0.0166365 0.0277774 0.0423937 0.0599512 0.0797365 0.10113 0.12371 0.147232 0.171568 0.196657 0.222473 0.249012 0.276284 0.304306 0.333104 0.36271 0.393159 0.424493 0.456758 0.490005 0.524288 0.559665 0.596196 0.633941 0.672954 0.713274 0.754902 0.797755 0.841553 0.885537 0.927668 0.962303 0.974519 0.965543 0.956496 0.947931 0.94153 0.93758 0.935506 0.934544 0.934113 0.933885 0.933727 0.933656 0.93392 0.933856 0.933786 0.93369 0.933564 0.933417 0.933254 0.933093 0.93294 0.932812 0.932711 0.932644 0.932605 0.932593 0.932606 0.932799 0.933381 0.933883 0.933653 0.933547 0.933421 0.933243 0.933117 0.932997 0.932948 0.932943 0.933304 0.934318 0.934292 0.934052 0.933712 0.933291 0.932932 0.932648 0.932421 0.932343 0.932433 0.933535 0.934157 0.933955 0.933525 0.933312 0.933124 0.933003 0.932957 0.933171 0.933277 0.933049 0.932754 0.932441 0.932226 0.93198 0.931804 0.931529 0.931484 0.932855 0.936483 0.935791 0.915603 0.928867 0.861875 0.813267 0.806756 0.700916 0.613883 0.502623 0.382085 0.26096 0.158222 0.0831794 0.0383359 0.0160252 0.00634275 0.00244786 0.000934787 0.00035542 0.000134857 5.10992e-05 1.93363e-05 7.30554e-06 2.75481e-06 1.03636e-06 3.88787e-07 1.45373e-07 5.41512e-08 2.00847e-08 7.41355e-09 2.72197e-09 9.93581e-10 3.60411e-10 1.29867e-10 4.64881e-11 1.65583e-11 5.9553e-12 2.12167e-12 8.14056e-13 1.98237e-13 5.50624e-14 8.49835e-14 2.20606e-14 -6.94981e-14 0 0 1.3775e-15 7.76401e-16 1.30864e-15 8.75003e-15 7.73318e-15 -2.68305e-15 -4.79752e-16 3.25407e-15 3.68869e-15 8.42794e-15 7.52551e-15 -4.04131e-15 4.44967e-15 1.04716e-14 1.36565e-14 1.36771e-14 6.07488e-15 1.48826e-15 -4.54219e-15 2.12007e-14 -2.83285e-16 -1.37126e-15 5.59378e-15 7.2161e-15 2.53159e-14 1.44217e-14 -7.52922e-15 5.84194e-15 1.43397e-15 2.6643e-14 3.96608e-15 4.20117e-14 4.75084e-14 1.15163e-13 6.93448e-14 2.6682e-13 1.15264e-12 7.4339e-12 4.32477e-11 2.39598e-10 1.26496e-09 6.33838e-09 3.00897e-08 1.35018e-07 5.71196e-07 2.27153e-06 8.46308e-06 2.94252e-05 9.50413e-05 0.000283657 0.000777525 0.0019445 0.00440871 0.00902008 0.0166365 0.0277774 0.0423937 0.0599512 0.0797365 0.10113 0.12371 0.147232 0.171568 0.196657 0.222473 0.249012 0.276284 0.304306 0.333104 0.36271 0.393159 0.424493 0.456758 0.490005 0.524288 0.559665 0.596196 0.633941 0.672954 0.713274 0.754902 0.797755 0.841553 0.885537 0.927668 0.962303 0.974519 0.965543 0.956496 0.947931 0.94153 0.93758 0.935506 0.934544 0.934113 0.933885 0.933727 0.933656 0.93392 0.933856 0.933786 0.93369 0.933564 0.933417 0.933254 0.933093 0.93294 0.932812 0.932711 0.932644 0.932605 0.932593 0.932606 0.932799 0.933381 0.933883 0.933653 0.933547 0.933421 0.933243 0.933117 0.932997 0.932948 0.932943 0.933304 0.934318 0.934292 0.934052 0.933712 0.933291 0.932932 0.932648 0.932421 0.932343 0.932433 0.933535 0.934157 0.933955 0.933525 0.933312 0.933124 0.933003 0.932957 0.933171 0.933277 0.933049 0.932754 0.932441 0.932226 0.93198 0.931804 0.931529 0.931484 0.932855 0.936483 0.935791 0.915603 0.928867 0.861875 0.813267 0.806756 0.700916 0.613883 0.502623 0.382085 0.26096 0.158222 0.0831794 0.0383359 0.0160252 0.00634275 0.00244786 0.000934787 0.00035542 0.000134857 5.10992e-05 1.93363e-05 7.30554e-06 2.75481e-06 1.03636e-06 3.88787e-07 1.45373e-07 5.41513e-08 2.00846e-08 7.41357e-09 2.72196e-09 9.93549e-10 3.60368e-10 1.29876e-10 4.64762e-11 1.66253e-11 6.01111e-12 2.20784e-12 7.06443e-13 2.36342e-13 1.94914e-14 9.11499e-14 -1.11408e-13 -4.84683e-14 0 0 4.2101e-15 1.79059e-15 2.76737e-15 2.08076e-15 9.80281e-15 -1.41782e-15 4.42584e-16 1.05298e-15 2.80042e-15 3.71948e-15 1.91473e-15 -8.04597e-15 9.06618e-16 1.05174e-14 9.5017e-15 1.28311e-14 -2.86062e-15 6.78429e-15 1.69912e-15 6.13707e-15 1.02338e-14 1.12374e-15 4.36909e-15 3.51176e-15 2.58363e-14 2.52776e-14 -2.11908e-14 2.73667e-14 2.34213e-14 1.62637e-14 2.57489e-14 3.38849e-14 6.63321e-14 1.51702e-13 1.31106e-13 2.81621e-13 1.10326e-12 7.35506e-12 4.31436e-11 2.39685e-10 1.2649e-09 6.33836e-09 3.00897e-08 1.35018e-07 5.71196e-07 2.27153e-06 8.46308e-06 2.94252e-05 9.50413e-05 0.000283657 0.000777525 0.0019445 0.00440871 0.00902008 0.0166365 0.0277774 0.0423937 0.0599512 0.0797365 0.10113 0.12371 0.147232 0.171568 0.196657 0.222473 0.249012 0.276284 0.304306 0.333104 0.36271 0.393159 0.424493 0.456758 0.490005 0.524288 0.559665 0.596196 0.633941 0.672954 0.713274 0.754902 0.797755 0.841553 0.885537 0.927668 0.962303 0.974519 0.965543 0.956496 0.947931 0.94153 0.93758 0.935506 0.934544 0.934113 0.933885 0.933727 0.933656 0.93392 0.933856 0.933786 0.93369 0.933564 0.933417 0.933254 0.933093 0.93294 0.932812 0.932711 0.932644 0.932605 0.932593 0.932606 0.932799 0.933381 0.933883 0.933653 0.933547 0.933421 0.933243 0.933117 0.932997 0.932948 0.932943 0.933304 0.934318 0.934292 0.934052 0.933712 0.933291 0.932932 0.932648 0.932421 0.932343 0.932433 0.933535 0.934157 0.933955 0.933525 0.933312 0.933124 0.933003 0.932957 0.933171 0.933277 0.933049 0.932754 0.932441 0.932226 0.93198 0.931804 0.931529 0.931484 0.932855 0.936483 0.935791 0.915603 0.928867 0.861875 0.813267 0.806756 0.700916 0.613883 0.502623 0.382085 0.26096 0.158222 0.0831794 0.0383359 0.0160252 0.00634275 0.00244786 0.000934787 0.00035542 0.000134857 5.10992e-05 1.93363e-05 7.30554e-06 2.75481e-06 1.03636e-06 3.88787e-07 1.45373e-07 5.41511e-08 2.00847e-08 7.41355e-09 2.72207e-09 9.93452e-10 3.60512e-10 1.30001e-10 4.63586e-11 1.66605e-11 5.93007e-12 2.30046e-12 4.55058e-13 2.50943e-13 7.00237e-14 2.74431e-14 -8.62794e-14 -8.608e-14 0 0 7.8501e-15 7.07165e-15 3.35642e-15 -1.05724e-15 2.31878e-15 2.75801e-16 -2.09007e-17 -7.82863e-17 -4.0966e-15 5.30286e-15 -1.13978e-15 -2.85511e-15 1.91292e-14 -2.65292e-15 1.67661e-16 6.44433e-15 -1.54412e-15 6.33394e-15 -1.23471e-14 -1.07948e-14 1.16022e-14 2.82494e-14 -1.03686e-14 -4.12923e-15 2.04171e-14 9.87688e-15 1.49705e-14 1.84899e-14 7.21343e-14 4.13923e-14 4.06165e-14 3.04974e-14 7.7417e-14 9.61242e-14 1.59505e-13 2.43301e-13 1.10845e-12 7.3282e-12 4.30981e-11 2.39553e-10 1.26492e-09 6.33838e-09 3.00897e-08 1.35018e-07 5.71196e-07 2.27153e-06 8.46308e-06 2.94252e-05 9.50413e-05 0.000283657 0.000777525 0.0019445 0.00440871 0.00902008 0.0166365 0.0277774 0.0423937 0.0599512 0.0797365 0.10113 0.12371 0.147232 0.171568 0.196657 0.222473 0.249012 0.276284 0.304306 0.333104 0.36271 0.393159 0.424493 0.456758 0.490005 0.524288 0.559665 0.596196 0.633941 0.672954 0.713274 0.754902 0.797755 0.841553 0.885537 0.927668 0.962303 0.974519 0.965543 0.956496 0.947931 0.94153 0.93758 0.935506 0.934544 0.934113 0.933885 0.933727 0.933656 0.93392 0.933856 0.933786 0.93369 0.933564 0.933417 0.933254 0.933093 0.93294 0.932812 0.932711 0.932644 0.932605 0.932593 0.932606 0.932799 0.933381 0.933883 0.933653 0.933547 0.933421 0.933243 0.933117 0.932997 0.932948 0.932943 0.933304 0.934318 0.934292 0.934052 0.933712 0.933291 0.932932 0.932648 0.932421 0.932343 0.932433 0.933535 0.934157 0.933955 0.933525 0.933312 0.933124 0.933003 0.932957 0.933171 0.933277 0.933049 0.932754 0.932441 0.932226 0.93198 0.931804 0.931529 0.931484 0.932855 0.936483 0.935791 0.915603 0.928867 0.861875 0.813267 0.806756 0.700916 0.613883 0.502623 0.382085 0.26096 0.158222 0.0831794 0.0383359 0.0160252 0.00634275 0.00244786 0.000934787 0.00035542 0.000134857 5.10992e-05 1.93363e-05 7.30554e-06 2.75481e-06 1.03636e-06 3.88787e-07 1.45373e-07 5.4151e-08 2.00847e-08 7.41359e-09 2.72208e-09 9.93506e-10 3.60642e-10 1.3019e-10 4.62783e-11 1.65244e-11 5.79386e-12 2.26111e-12 4.16923e-13 6.88191e-14 1.02559e-13 9.82803e-14 2.46878e-15 -8.26537e-14 0 0 9.52716e-15 1.40753e-14 1.59718e-15 2.78402e-15 -4.71491e-15 3.17156e-17 -4.62536e-15 -2.59853e-15 -5.42621e-15 7.22031e-15 1.82402e-15 -2.90624e-15 3.15717e-14 -7.28174e-15 7.27149e-16 6.62843e-15 -9.95999e-15 -7.26476e-15 -2.51276e-14 1.22038e-14 -8.75533e-15 2.26929e-14 2.13843e-14 -7.91531e-15 -2.15488e-14 1.82795e-14 4.94589e-14 3.28229e-14 5.77229e-14 6.9682e-14 2.3216e-14 2.88797e-14 9.48353e-14 4.69078e-14 1.4562e-13 1.93106e-13 1.12004e-12 7.3761e-12 4.31021e-11 2.39411e-10 1.26496e-09 6.33842e-09 3.00897e-08 1.35018e-07 5.71196e-07 2.27153e-06 8.46308e-06 2.94252e-05 9.50413e-05 0.000283657 0.000777525 0.0019445 0.00440871 0.00902008 0.0166365 0.0277774 0.0423937 0.0599512 0.0797365 0.10113 0.12371 0.147232 0.171568 0.196657 0.222473 0.249012 0.276284 0.304306 0.333104 0.36271 0.393159 0.424493 0.456758 0.490005 0.524288 0.559665 0.596196 0.633941 0.672954 0.713274 0.754902 0.797755 0.841553 0.885537 0.927668 0.962303 0.974519 0.965543 0.956496 0.947931 0.94153 0.93758 0.935506 0.934544 0.934113 0.933885 0.933727 0.933656 0.93392 0.933856 0.933786 0.93369 0.933564 0.933417 0.933254 0.933093 0.93294 0.932812 0.932711 0.932644 0.932605 0.932593 0.932606 0.932799 0.933381 0.933883 0.933653 0.933547 0.933421 0.933243 0.933117 0.932997 0.932948 0.932943 0.933304 0.934318 0.934292 0.934052 0.933712 0.933291 0.932932 0.932648 0.932421 0.932343 0.932433 0.933535 0.934157 0.933955 0.933525 0.933312 0.933124 0.933003 0.932957 0.933171 0.933277 0.933049 0.932754 0.932441 0.932226 0.93198 0.931804 0.931529 0.931484 0.932855 0.936483 0.935791 0.915603 0.928867 0.861875 0.813267 0.806756 0.700916 0.613883 0.502623 0.382085 0.26096 0.158222 0.0831794 0.0383359 0.0160252 0.00634275 0.00244786 0.000934787 0.00035542 0.000134857 5.10992e-05 1.93363e-05 7.30554e-06 2.75481e-06 1.03636e-06 3.88787e-07 1.45373e-07 5.41511e-08 2.00846e-08 7.41364e-09 2.72205e-09 9.93607e-10 3.60626e-10 1.30249e-10 4.63611e-11 1.6371e-11 5.75829e-12 2.14855e-12 4.75349e-13 6.92191e-14 7.69639e-14 1.81117e-13 -1.60512e-13 9.58661e-14 0
				</DataArray>
				<DataArray Name="VitesseY" type="Float32" format="ascii">