<?xml version="1.0"?>
<VTKFile type="PolyData">
	<PolyData>
		<Piece NumberOfPoints="1206" NumberOfPolys="1000">
			<Points>
				<DataArray type="Float32" NumberOfComponents="3" format="ascii">
 0 0 0 0.005 0 0 0.01 0 0 0.015 0 0 0.02 0 0 0.025 0 0 0.03 0 0 0.035 0 0 0.04 0 0 0.045 0 0 0.05 0 0 0.055 0 0 0.06 0 0 0.065 0 0 0.07 0 0 0.075 0 0 0.08 0 0 0.085 0 0 0.09 0 0 0.095 0 0 0.1 0 0 0.105 0 0 0.11 0 0 0.115 0 0 0.12 0 0 0.125 0 0 0.13 0 0 0.135 0 0 0.14 0 0 0.145 0 0 0.15 0 0 0.155 0 0 0.16 0 0 0.165 0 0 0.17 0 0 0.175 0 0 0.18 0 0 0.185 0 0 0.19 0 0 0.195 0 0 0.2 0 0 0.205 0 0 0.21 0 0 0.215 0 0 0.22 0 0 0.225 0 0 0.23 0 0 0.235 0 0 0.24 0 0 0.245 0 0 0.25 0 0 0.255 0 0 0.26 0 0 0.265 0 0 0.27 0 0 0.275 0 0 0.28 0 0 0.285 0 0 0.29 0 0 0.295 0 0 0.300001 0 0 0.305003 0 0 0.310008 0 0 0.315022 0 0 0.320055 0 0 0.325122 0 0 0.330244 0 0 0.335445 0 0 0.340744 0 0 0.34616 0 0 0.351708 0 0 0.357399 0 0 0.363247 0 0 0.369262 0 0 0.375458 0 0 0.381848 0 0 0.388447 0 0 0.39527 0 0 0.402336 0 0 0.409666 0 0 0.417282 0 0 0.425209 0 0 0.433476 0 0 0.442117 0 0 0.451169 0 0 0.460674 0 0 0.470679 0 0 0.481233 0 0 0.49238 0 0 0.504132 0 0 0.516382 0 0 0.528742 0 0 0.540968 0 0 0.55305 0 0 0.565011 0 0 0.576892 0 0 0.588733 0 0 0.600556 0 0 0.612372 0 0 0.624186 0 0 0.636 0 0 0.638281 0 0 0.640561 0 0 0.642842 0 0 0.645122 0 0 0.647402 0 0 0.649681 0 0 0.651958 0 0 0.654235 0 0 0.656513 0 0 0.658789 0 0 0.661065 0 0 0.663345 0 0 0.665626 0 0 0.667907 0 0 0.670187 0 0 0.672468 0 0 0.67475 0 0 0.677031 0 0 0.679311 0 0 0.681589 0 0 0.683868 0 0 0.686149 0 0 0.688431 0 0 0.690712 0 0 0.692993 0 0 0.695273 0 0 0.697553 0 0 0.699835 0 0 0.702115 0 0 0.704395 0 0 0.706674 0 0 0.708955 0 0 0.711234 0 0 0.713511 0 0 0.715788 0 0 0.718066 0 0 0.720349 0 0 0.722639 0 0 0.724927 0 0 0.727214 0 0 0.729501 0 0 0.731782 0 0 0.734067 0 0 0.736395 0 0 0.738809 0 0 0.741323 0 0 0.743983 0 0 0.746825 0 0 0.749919 0 0 0.753317 0 0 0.757065 0 0 0.761167 0 0 0.765593 0 0 0.770271 0 0 0.775114 0 0 0.780045 0 0 0.785017 0 0 0.790007 0 0 0.795002 0 0 0.800001 0 0 0.805 0 0 0.81 0 0 0.815 0 0 0.82 0 0 0.825 0 0 0.83 0 0 0.835 0 0 0.84 0 0 0.845 0 0 0.85 0 0 0.855 0 0 0.86 0 0 0.865 0 0 0.87 0 0 0.875 0 0 0.88 0 0 0.885 0 0 0.89 0 0 0.895 0 0 0.9 0 0 0.905 0 0 0.91 0 0 0.915 0 0 0.92 0 0 0.925 0 0 0.93 0 0 0.935 0 0 0.94 0 0 0.945 0 0 0.95 0 0 0.955 0 0 0.96 0 0 0.965 0 0 0.97 0 0 0.975 0 0 0.98 0 0 0.985 0 0 0.99 0 0 0.995 0 0 1 0 0 0 0.02 0 0.005 0.02 0 0.01 0.02 0 0.015 0.02 0 0.02 0.02 0 0.025 0.02 0 0.03 0.02 0 0.035 0.02 0 0.04 0.02 0 0.045 0.02 0 0.05 0.02 0 0.055 0.02 0 0.06 0.02 0 0.065 0.02 0 0.07 0.02 0 0.075 0.02 0 0.08 0.02 0 0.085 0.02 0 0.09 0.02 0 0.095 0.02 0 0.1 0.02 0 0.105 0.02 0 0.11 0.02 0 0.115 0.02 0 0.12 0.02 0 0.125 0.02 0 0.13 0.02 0 0.135 0.02 0 0.14 0.02 0 0.145 0.02 0 0.15 0.02 0 0.155 0.02 0 0.16 0.02 0 0.165 0.02 0 0.17 0.02 0 0.175 0.02 0 0.18 0.02 0 0.185 0.02 0 0.19 0.02 0 0.195 0.02 0 0.2 0.02 0 0.205 0.02 0 0.21 0.02 0 0.215 0.02 0 0.22 0.02 0 0.225 0.02 0 0.23 0.02 0 0.235 0.02 0 0.24 0.02 0 0.245 0.02 0 0.25 0.02 0 0.255 0.02 0 0.26 0.02 0 0.265 0.02 0 0.27 0.02 0 0.275 0.02 0 0.28 0.02 0 0.285 0.02 0 0.29 0.02 0 0.295 0.02 0 0.300001 0.02 0 0.305003 0.02 0 0.310008 0.02 0 0.315022 0.02 0 0.320055 0.02 0 0.325122 0.02 0 0.330244 0.02 0 0.335445 0.02 0 0.340744 0.02 0 0.34616 0.02 0 0.351708 0.02 0 0.357399 0.02 0 0.363247 0.02 0 0.369262 0.02 0 0.375458 0.02 0 0.381848 0.02 0 0.388447 0.02 0 0.39527 0.02 0 0.402336 0.02 0 0.409666 0.02 0 0.417282 0.02 0 0.425209 0.02 0 0.433476 0.02 0 0.442117 0.02 0 0.451169 0.02 0 0.460674 0.02 0 0.470679 0.02 0 0.481233 0.02 0 0.49238 0.02 0 0.504132 0.02 0 0.516382 0.02 0 0.528742 0.02 0 0.540968 0.02 0 0.55305 0.02 0 0.565011 0.02 0 0.576892 0.02 0 0.588733 0.02 0 0.600556 0.02 0 0.612372 0.02 0 0.624186 0.02 0 0.636 0.02 0 0.638281 0.02 0 0.640561 0.02 0 0.642842 0.02 0 0.645122 0.02 0 0.647402 0.02 0 0.649681 0.02 0 0.651958 0.02 0 0.654235 0.02 0 0.656513 0.02 0 0.658789 0.02 0 0.661065 0.02 0 0.663345 0.02 0 0.665626 0.02 0 0.667907 0.02 0 0.670187 0.02 0 0.672468 0.02 0 0.67475 0.02 0 0.677031 0.02 0 0.679311 0.02 0 0.681589 0.02 0 0.683868 0.02 0 0.686149 0.02 0 0.688431 0.02 0 0.690712 0.02 0 0.692993 0.02 0 0.695273 0.02 0 0.697553 0.02 0 0.699835 0.02 0 0.702115 0.02 0 0.704395 0.02 0 0.706674 0.02 0 0.708955 0.02 0 0.711234 0.02 0 0.713511 0.02 0 0.715788 0.02 0 0.718066 0.02 0 0.720349 0.02 0 0.722639 0.02 0 0.724927 0.02 0 0.727214 0.02 0 0.729501 0.02 0 0.731782 0.02 0 0.734067 0.02 0 0.736395 0.02 0 0.738809 0.02 0 0.741323 0.02 0 0.743983 0.02 0 0.746825 0.02 0 0.749919 0.02 0 0.753317 0.02 0 0.757065 0.02 0 0.761167 0.02 0 0.765593 0.02 0 0.770271 0.02 0 0.775114 0.02 0 0.780045 0.02 0 0.785017 0.02 0 0.790007 0.02 0 0.795002 0.02 0 0.800001 0.02 0 0.805 0.02 0 0.81 0.02 0 0.815 0.02 0 0.82 0.02 0 0.825 0.02 0 0.83 0.02 0 0.835 0.02 0 0.84 0.02 0 0.845 0.02 0 0.85 0.02 0 0.855 0.02 0 0.86 0.02 0 0.865 0.02 0 0.87 0.02 0 0.875 0.02 0 0.88 0.02 0 0.885 0.02 0 0.89 0.02 0 0.895 0.02 0 0.9 0.02 0 0.905 0.02 0 0.91 0.02 0 0.915 0.02 0 0.92 0.02 0 0.925 0.02 0 0.93 0.02 0 0.935 0.02 0 0.94 0.02 0 0.945 0.02 0 0.95 0.02 0 0.955 0.02 0 0.96 0.02 0 0.965 0.02 0 0.97 0.02 0 0.975 0.02 0 0.98 0.02 0 0.985 0.02 0 0.99 0.02 0 0.995 0.02 0 1 0.02 0 0 0.04 0 0.005 0.04 0 0.01 0.04 0 0.015 0.04 0 0.02 0.04 0 0.025 0.04 0 0.03 0.04 0 0.035 0.04 0 0.04 0.04 0 0.045 0.04 0 0.05 0.04 0 0.055 0.04 0 0.06 0.04 0 0.065 0.04 0 0.07 0.04 0 0.075 0.04 0 0.08 0.04 0 0.085 0.04 0 0.09 0.04 0 0.095 0.04 0 0.1 0.04 0 0.105 0.04 0 0.11 0.04 0 0.115 0.04 0 0.12 0.04 0 0.125 0.04 0 0.13 0.04 0 0.135 0.04 0 0.14 0.04 0 0.145 0.04 0 0.15 0.04 0 0.155 0.04 0 0.16 0.04 0 0.165 0.04 0 0.17 0.04 0 0.175 0.04 0 0.18 0.04 0 0.185 0.04 0 0.19 0.04 0 0.195 0.04 0 0.2 0.04 0 0.205 0.04 0 0.21 0.04 0 0.215 0.04 0 0.22 0.04 0 0.225 0.04 0 0.23 0.04 0 0.235 0.04 0 0.24 0.04 0 0.245 0.04 0 0.25 0.04 0 0.255 0.04 0 0.26 0.04 0 0.265 0.04 0 0.27 0.04 0 0.275 0.04 0 0.28 0.04 0 0.285 0.04 0 0.29 0.04 0 0.295 0.04 0 0.300001 0.04 0 0.305003 0.04 0 0.310008 0.04 0 0.315022 0.04 0 0.320055 0.04 0 0.325122 0.04 0 0.330244 0.04 0 0.335445 0.04 0 0.340744 0.04 0 0.34616 0.04 0 0.351708 0.04 0 0.357399 0.04 0 0.363247 0.04 0 0.369262 0.04 0 0.375458 0.04 0 0.381848 0.04 0 0.388447 0.04 0 0.39527 0.04 0 0.402336 0.04 0 0.409666 0.04 0 0.417282 0.04 0 0.425209 0.04 0 0.433476 0.04 0 0.442117 0.04 0 0.451169 0.04 0 0.460674 0.04 0 0.470679 0.04 0 0.481233 0.04 0 0.49238 0.04 0 0.504132 0.04 0 0.516382 0.04 0 0.528742 0.04 0 0.540968 0.04 0 0.55305 0.04 0 0.565011 0.04 0 0.576892 0.04 0 0.588733 0.04 0 0.600556 0.04 0 0.612372 0.04 0 0.624186 0.04 0 0.636 0.04 0 0.638281 0.04 0 0.640561 0.04 0 0.642842 0.04 0 0.645122 0.04 0 0.647402 0.04 0 0.649681 0.04 0 0.651958 0.04 0 0.654235 0.04 0 0.656513 0.04 0 0.658789 0.04 0 0.661065 0.04 0 0.663345 0.04 0 0.665626 0.04 0 0.667907 0.04 0 0.670187 0.04 0 0.672468 0.04 0 0.67475 0.04 0 0.677031 0.04 0 0.679311 0.04 0 0.681589 0.04 0 0.683868 0.04 0 0.686149 0.04 0 0.688431 0.04 0 0.690712 0.04 0 0.692993 0.04 0 0.695273 0.04 0 0.697553 0.04 0 0.699835 0.04 0 0.702115 0.04 0 0.704395 0.04 0 0.706674 0.04 0 0.708955 0.04 0 0.711234 0.04 0 0.713511 0.04 0 0.715788 0.04 0 0.718066 0.04 0 0.720349 0.04 0 0.722639 0.04 0 0.724927 0.04 0 0.727214 0.04 0 0.729501 0.04 0 0.731782 0.04 0 0.734067 0.04 0 0.736395 0.04 0 0.738809 0.04 0 0.741323 0.04 0 0.743983 0.04 0 0.746825 0.04 0 0.749919 0.04 0 0.753317 0.04 0 0.757065 0.04 0 0.761167 0.04 0 0.765593 0.04 0 0.770271 0.04 0 0.775114 0.04 0 0.780045 0.04 0 0.785017 0.04 0 0.790007 0.04 0 0.795002 0.04 0 0.800001 0.04 0 0.805 0.04 0 0.81 0.04 0 0.815 0.04 0 0.82 0.04 0 0.825 0.04 0 0.83 0.04 0 0.835 0.04 0 0.84 0.04 0 0.845 0.04 0 0.85 0.04 0 0.855 0.04 0 0.86 0.04 0 0.865 0.04 0 0.87 0.04 0 0.875 0.04 0 0.88 0.04 0 0.885 0.04 0 0.89 0.04 0 0.895 0.04 0 0.9 0.04 0 0.905 0.04 0 0.91 0.04 0 0.915 0.04 0 0.92 0.04 0 0.925 0.04 0 0.93 0.04 0 0.935 0.04 0 0.94 0.04 0 0.945 0.04 0 0.95 0.04 0 0.955 0.04 0 0.96 0.04 0 0.965 0.04 0 0.97 0.04 0 0.975 0.04 0 0.98 0.04 0 0.985 0.04 0 0.99 0.04 0 0.995 0.04 0 1 0.04 0 0 0.06 0 0.005 0.06 0 0.01 0.06 0 0.015 0.06 0 0.02 0.06 0 0.025 0.06 0 0.03 0.06 0 0.035 0.06 0 0.04 0.06 0 0.045 0.06 0 0.05 0.06 0 0.055 0.06 0 0.06 0.06 0 0.065 0.06 0 0.07 0.06 0 0.075 0.06 0 0.08 0.06 0 0.085 0.06 0 0.09 0.06 0 0.095 0.06 0 0.1 0.06 0 0.105 0.06 0 0.11 0.06 0 0.115 0.06 0 0.12 0.06 0 0.125 0.06 0 0.13 0.06 0 0.135 0.06 0 0.14 0.06 0 0.145 0.06 0 0.15 0.06 0 0.155 0.06 0 0.16 0.06 0 0.165 0.06 0 0.17 0.06 0 0.175 0.06 0 0.18 0.06 0 0.185 0.06 0 0.19 0.06 0 0.195 0.06 0 0.2 0.06 0 0.205 0.06 0 0.21 0.06 0 0.215 0.06 0 0.22 0.06 0 0.225 0.06 0 0.23 0.06 0 0.235 0.06 0 0.24 0.06 0 0.245 0.06 0 0.25 0.06 0 0.255 0.06 0 0.26 0.06 0 0.265 0.06 0 0.27 0.06 0 0.275 0.06 0 0.28 0.06 0 0.285 0.06 0 0.29 0.06 0 0.295 0.06 0 0.300001 0.06 0 0.305003 0.06 0 0.310008 0.06 0 0.315022 0.06 0 0.320055 0.06 0 0.325122 0.06 0 0.330244 0.06 0 0.335445 0.06 0 0.340744 0.06 0 0.34616 0.06 0 0.351708 0.06 0 0.357399 0.06 0 0.363247 0.06 0 0.369262 0.06 0 0.375458 0.06 0 0.381848 0.06 0 0.388447 0.06 0 0.39527 0.06 0 0.402336 0.06 0 0.409666 0.06 0 0.417282 0.06 0 0.425209 0.06 0 0.433476 0.06 0 0.442117 0.06 0 0.451169 0.06 0 0.460674 0.06 0 0.470679 0.06 0 0.481233 0.06 0 0.49238 0.06 0 0.504132 0.06 0 0.516382 0.06 0 0.528742 0.06 0 0.540968 0.06 0 0.55305 0.06 0 0.565011 0.06 0 0.576892 0.06 0 0.588733 0.06 0 0.600556 0.06 0 0.612372 0.06 0 0.624186 0.06 0 0.636 0.06 0 0.638281 0.06 0 0.640561 0.06 0 0.642842 0.06 0 0.645122 0.06 0 0.647402 0.06 0 0.649681 0.06 0 0.651958 0.06 0 0.654235 0.06 0 0.656513 0.06 0 0.658789 0.06 0 0.661065 0.06 0 0.663345 0.06 0 0.665626 0.06 0 0.667907 0.06 0 0.670187 0.06 0 0.672468 0.06 0 0.67475 0.06 0 0.677031 0.06 0 0.679311 0.06 0 0.681589 0.06 0 0.683868 0.06 0 0.686149 0.06 0 0.688431 0.06 0 0.690712 0.06 0 0.692993 0.06 0 0.695273 0.06 0 0.697553 0.06 0 0.699835 0.06 0 0.702115 0.06 0 0.70
[...]
			<PointData Scalars="VitesseX">
				<DataArray Name="VitesseX" type="Float32" format="ascii">
 0 8.91802e-16 4.27105e-15 -2.24759e-15 1.07853e-15 4.0303e-15 2.42705e-16 -5.6606e-15 6.42891e-15 1.11189e-14 -1.75025e-15 1.07503e-14 5.79471e-15 6.28181e-15 9.51167e-15 1.6003e-14 -1.13848e-15 1.14949e-14 1.14061e-14 7.18427e-15 8.87998e-15 1.24308e-14 6.49755e-15 1.23239e-14 6.48077e-15 -6.16208e-15 1.39454e-14 1.47639e-14 2.68177e-15 9.33547e-15 1.61023e-14 1.38206e-14 1.71975e-15 1.48966e-14 -1.91661e-14 6.13771e-15 3.83873e-14 -1.47114e-15 2.29117e-14 -4.42609e-15 1.62067e-14 -3.86068e-14 4.58387e-14 1.24258e-14 -7.36006e-15 6.97267e-14 9.68844e-14 1.05606e-13 7.98041e-13 5.3107e-12 3.65536e-11 2.36077e-10 1.43767e-09 8.24114e-09 4.43406e-08 2.23264e-07 1.04847e-06 4.57408e-06 1.84536e-05 6.84774e-05 0.000232236 0.000714469 0.0019773 0.00488178 0.0106841 0.0206961 0.0356854 0.0554941 0.0792452 0.105895 0.134637 0.164986 0.196699 0.229673 0.263879 0.299332 0.33607 0.374151 0.413649 0.454649 0.497248 0.541552 0.587675 0.635724 0.685789 0.737897 0.791912 0.847275 0.902252 0.951607 0.979515 0.970287 0.958898 0.94808 0.94076 0.936801 0.934987 0.934209 0.93394 0.93385 0.933277 0.933381 0.933531 0.933588 0.933572 0.933476 0.933362 0.933191 0.933024 0.932857 0.932745 0.932685 0.9328 0.933496 0.934196 0.93398 0.933948 0.933826 0.933703 0.933562 0.933441 0.933334 0.933227 0.933136 0.933054 0.932984 0.932922 0.932837 0.932713 0.932482 0.932135 0.931628 0.931043 0.930436 0.929983 0.929845 0.930385 0.934746 0.935519 0.934909 0.93521 0.928742 0.932473 0.919785 0.882295 0.894458 0.8174 0.7701 0.686741 0.597872 0.47651 0.357159 0.238676 0.140871 0.072131 0.0324901 0.0133921 0.00526051 0.00201989 0.000767272 0.000289704 0.000108893 4.07532e-05 1.51803e-05 5.62462e-06 2.07151e-06 7.57766e-07 2.7511e-07 9.9055e-08 3.53458e-08 1.24913e-08 4.36919e-09 1.51194e-09 5.17179e-10 1.74863e-10 5.84912e-11 1.92159e-11 6.08592e-12 2.17363e-12 5.69961e-13 3.25687e-13 -8.93276e-14 -8.70904e-14 5.70055e-14 7.45569e-14 -3.79692e-14 -1.06218e-13 -8.21283e-14 3.9614e-14 4.82177e-14 9.0787e-15 1.3908e-13 -5.17042e-14 -1.03452e-13 8.54054e-14 -2.97771e-14 5.65915e-16 1.25404e-14 1.06374e-14 -2.08267e-14 0 0 3.04158e-16 -5.01281e-16 2.36639e-15 -1.73571e-15 6.52652e-16 2.10949e-15 2.21286e-15 8.02823e-15 5.61526e-16 9.77507e-15 1.44744e-14 -5.64464e-16 1.01657e-14 1.17818e-15 5.17287e-15 1.01338e-14 1.19491e-14 5.69879e-15 1.21296e-14 -7.66326e-15 1.43532e-14 1.18331e-14 1.87057e-16 7.78658e-15 1.93644e-14 8.53319e-16 7.32746e-15 -7.66611e-15 2.02427e-14 2.56128e-14 1.18003e-14 -1.73951e-14 -2.35984e-15 2.2036e-14 -3.77601e-15 2.16149e-15 2.20416e-14 7.70206e-15 2.62852e-14 -7.80714e-15 1.35018e-14 -9.0052e-15 1.27296e-14 2.66003e-14 9.43849e-14 7.40284e-14 1.45275e-13 7.53103e-13 5.33785e-12 3.65557e-11 2.3601e-10 1.4377e-09 8.24108e-09 4.43406e-08 2.23264e-07 1.04847e-06 4.57408e-06 1.84536e-05 6.84774e-05 0.000232236 0.000714469 0.0019773 0.00488178 0.0106841 0.0206961 0.0356854 0.0554941 0.0792452 0.105895 0.134637 0.164986 0.196699 0.229673 0.263879 0.299332 0.33607 0.374151 0.413649 0.454649 0.497248 0.541552 0.587675 0.635724 0.685789 0.737897 0.791912 0.847275 0.902252 0.951607 0.979515 0.970287 0.958898 0.94808 0.94076 0.936801 0.934987 0.934209 0.93394 0.93385 0.933277 0.933381 0.933531 0.933588 0.933572 0.933476 0.933362 0.933191 0.933024 0.932857 0.932745 0.932685 0.9328 0.933496 0.934196 0.93398 0.933948 0.933826 0.933703 0.933562 0.933441 0.933334 0.933227 0.933136 0.933054 0.932984 0.932922 0.932837 0.932713 0.932482 0.932135 0.931628 0.931043 0.930436 0.929983 0.929845 0.930385 0.934746 0.935519 0.934909 0.93521 0.928742 0.932473 0.919785 0.882295 0.894458 0.8174 0.7701 0.686741 0.597872 0.47651 0.357159 0.238676 0.140871 0.072131 0.0324901 0.0133921 0.00526051 0.00201989 0.000767272 0.000289704 0.000108893 4.07532e-05 1.51803e-05 5.62462e-06 2.07151e-06 7.57766e-07 2.7511e-07 9.90551e-08 3.53458e-08 1.24912e-08 4.36931e-09 1.51178e-09 5.17184e-10 1.74923e-10 5.83844e-11 1.92687e-11 6.44091e-12 1.93095e-12 7.79308e-13 4.09137e-14 5.03305e-14 -1.44337e-13 1.00777e-13 -4.8587e-14 -8.94131e-14 -5.85823e-14 6.71826e-14 1.46351e-14 -2.94496e-14 1.40755e-13 -1.14892e-13 3.20983e-14 2.65383e-14 3.19399e-14 -1.9373e-14 4.67506e-14 -2.00951e-14 -7.38493e-14 9.45467e-14 0 0 -7.65647e-16 -1.50619e-15 -1.8236e-15 -3.10424e-15 -9.83402e-16 5.89686e-15 6.81159e-15 4.92523e-15 1.5932e-15 1.06989e-14 1.29868e-14 1.55539e-14 1.00996e-14 -2.05304e-15 -1.36257e-14 1.98766e-14 -1.18197e-16 1.03889e-14 7.67232e-16 7.02294e-15 9.42985e-17 -9.19324e-15 2.14116e-14 -3.3688e-15 2.31898e-14 9.07786e-15 1.66335e-14 -2.78988e-14 3.07151e-14 1.95931e-14 -1.06927e-14 -2.99414e-14 2.34986e-14 9.33424e-15 2.82461e-14 -1.98158e-14 9.74556e-15 3.07357e-15 1.82092e-14 4.31744e-14 3.15284e-15 -1.54453e-14 1.7761e-14 3.55799e-14 8.56752e-14 9.73366e-14 1.66415e-13 7.16557e-13 5.34215e-12 3.65512e-11 2.35985e-10 1.43765e-09 8.24105e-09 4.43407e-08 2.23264e-07 1.04847e-06 4.57408e-06 1.84536e-05 6.84774e-05 0.000232236 0.000714469 0.0019773 0.00488178 0.0106841 0.0206961 0.0356854 0.0554941 0.0792452 0.105895 0.134637 0.164986 0.196699 0.229673 0.263879 0.299332 0.33607 0.374151 0.413649 0.454649 0.497248 0.541552 0.587675 0.635724 0.685789 0.737897 0.791912 0.847275 0.902252 0.951607 0.979515 0.970287 0.958898 0.94808 0.94076 0.936801 0.934987 0.934209 0.93394 0.93385 0.933277 0.933381 0.933531 0.933588 0.933572 0.933476 0.933362 0.933191 0.933024 0.932857 0.932745 0.932685 0.9328 0.933496 0.934196 0.93398 0.933948 0.933826 0.933703 0.933562 0.933441 0.933334 0.933227 0.933136 0.933054 0.932984 0.932922 0.932837 0.932713 0.932482 0.932135 0.931628 0.931043 0.930436 0.929983 0.929845 0.930385 0.934746 0.935519 0.934909 0.93521 0.928742 0.932473 0.919785 0.882295 0.894458 0.8174 0.7701 0.686741 0.597872 0.47651 0.357159 0.238676 0.140871 0.072131 0.0324901 0.0133921 0.00526051 0.00201989 0.000767272 0.000289704 0.000108893 4.07532e-05 1.51803e-05 5.62462e-06 2.07151e-06 7.57766e-07 2.7511e-07 9.90551e-08 3.53459e-08 1.24912e-08 4.36926e-09 1.51173e-09 5.17365e-10 1.74856e-10 5.84091e-11 1.93074e-11 6.42173e-12 2.06934e-12 6.1793e-13 1.32813e-14 -8.11787e-14 3.7004e-14 1.53031e-13 1.10505e-14 -1.25028e-13 9.66117e-14 -9.85141e-14 -8.67787e-14 6.48512e-14 1.3088e-14 2.71246e-14 -1.76514e-14 1.05169e-13 9.59682e-14 -1.16612e-13 -2.82322e-14 -6.16385e-14 -8.14195e-14 1.18099e-13 0 0 2.46082e-15 4.6076e-15 -2.30462e-15 -3.17212e-16 -3.92521e-15 7.0365e-15 7.49476e-15 -1.44157e-15 5.33699e-15 5.75834e-15 1.04488e-14 2.114e-14 1.02267e-14 1.61252e-14 3.48215e-15 -1.58423e-15 -1.16487e-14 9.1855e-16 -2.70909e-15 1.09121e-14 1.16851e-15 -1.58071e-14 1.86745e-14 4.64489e-15 8.00787e-15 2.70216e-14 1.38093e-15 2.13205e-14 -1.0086e-14 -1.4362e-14 -2.80187e-14 -7.62522e-15 4.34487e-14 9.87688e-15 3.36814e-14 4.92043e-15 2.25225e-14 2.41555e-15 -1.10307e-14 4.08297e-14 -1.9402e-14 6.63628e-14 -1.23442e-14 5.0165e-14 7.46985e-14 1.04824e-13 1.26526e-13 7.70609e-13 5.24932e-12 3.65118e-11 2.36075e-10 1.43757e-09 8.24108e-09 4.43406e-08 2.23264e-07 1.04847e-06 4.57408e-06 1.84536e-05 6.84774e-05 0.000232236 0.000714469 0.0019773 0.00488178 0.0106841 0.0206961 0.0356854 0.0554941 0.0792452 0.105895 0.134637 0.164986 0.196699 0.229673 0.263879 0.299332 0.33607 0.374151 0.413649 0.454649 0.497248 0.541552 0.587675 0.635724 0.685789 0.737897 0.791912 0.847275 0.902252 0.951607 0.979515 0.970287 0.958898 0.94808 0.94076 0.936801 0.934987 0.934209 0.93394 0.93385 0.933277 0.933381 0.933531 0.933588 0.933572 0.933476 0.933362 0.933191 0.933024 0.932857 0.932745 0.932685 0.9328 0.933496 0.934196 0.93398 0.933948 0.933826 0.933703 0.933562 0.933441 0.933334 0.933227 0.933136 0.933054 0.932984 0.932922 0.932837 0.932713 0.932482 0.932135 0.931628 0.931043 0.930436 0.929983 0.929845 0.930385 0.934746 0.935519 0.934909 0.93521 0.928742 0.932473 0.919785 0.882295 0.894458 0.8174 0.7701 0.686741 0.597872 0.47651 0.357159 0.238676 0.140871 0.072131 0.0324901 0.0133921 0.00526051 0.00201989 0.000767272 0.000289704 0.000108893 4.07532e-05 1.51803e-05 5.62462e-06 2.07151e-06 7.57766e-07 2.7511e-07 9.9055e-08 3.53459e-08 1.24912e-08 4.36932e-09 1.51182e-09 5.1742e-10 1.749e-10 5.83983e-11 1.93727e-11 6.20492e-12 2.28558e-12 5.64952e-13 1.46019e-13 -1.6053e-13 1.28429e-13 -1.54656e-14 9.70322e-14 6.80987e-14 2.95167e-15 -7.81103e-14 -2.00228e-13 -4.61813e-14 1.40164e-13 4.87698e-15 7.99207e-14 -5.59572e-15 1.2404e-13 -1.11546e-13 -1.77812e-13 -4.3798e-14 -7.61039e-14 1.18482e-14 0 0 4.64011e-15 5.48707e-15 3.37072e-15 9.06312e-16 4.18494e-15 7.54108e-15 3.69979e-15 -2.89952e-15 -1.702e-15 2.32134e-15 1.05296e-14 1.85645e-14 8.66513e-15 1.71132e-14 1.01818e-14 -4.71405e-15 -1.37976e-14 -4.45116e-15 -1.35094e-15 -2.29636e-15 1.69653e-14 -1.07116e-14 3.21515e-15 -1.06686e-15 1.86161e-14 1.11211e-14 -2.02683e-14 2.77282e-14 -2.41595e-14 -1.73546e-14 -2.07568e-14 1.30776e-14 2.67239e-14 1.2269e-14 9.79688e-15 7.24509e-15 6.40991e-14 3.02102e-14 1.25633e-15 8.01044e-15 4.89023e-15 3.29552e-14 3.94337e-15 8.93202e-14 1.07105e-13 9.12061e-14 1.27196e-13 7.45907e-13 5.24503e-12 3.64517e-11 2.36069e-10 1.43755e-09 8.24097e-09 4.43406e-08 2.23264e-07 1.04847e-06 4.57408e-06 1.84536e-05 6.84774e-05 0.000232236 0.000714469 0.0019773 0.00488178 0.0106841 0.0206961 0.0356854 0.0554941 0.0792452 0.105895 0.134637 0.164986 0.196699 0.229673 0.263879 0.299332 0.33607 0.374151 0.413649 0.454649 0.497248 0.541552 0.587675 0.635724 0.685789 0.737897 0.791912 0.847275 0.902252 0.951607 0.979515 0.970287 0.958898 0.94808 0.94076 0.936801 0.934987 0.934209 0.93394 0.93385 0.933277 0.933381 0.933531 0.933588 0.933572 0.933476 0.933362 0.933191 0.933024 0.932857 0.932745 0.932685 0.9328 0.933496 0.934196 0.93398 0.933948 0.933826 0.933703 0.933562 0.933441 0.933334 0.933227 0.933136 0.933054 0.932984 0.932922 0.932837 0.932713 0.932482 0.932135 0.931628 0.931043 0.930436 0.929983 0.929845 0.930385 0.934746 0.935519 0.934909 0.93521 0.928742 0.932473 0.919785 0.882295 0.894458 0.8174 0.7701 0.686741 0.597872 0.47651 0.357159 0.238676 0.140871 0.072131 0.0324901 0.0133921 0.00526051 0.00201989 0.000767272 0.000289704 0.000108893 4.07532e-05 1.51803e-05 5.62462e-06 2.07151e-06 7.57766e-07 2.7511e-07 9.90551e-08 3.53459e-08 1.24912e-08 4.36949e-09 1.51187e-09 5.17186e-10 1.74923e-10 5.8244e-11 1.93241e-11 6.3014e-12 2.15681e-12 6.19367e-13 3.15935e-13 1.43143e-13 -4.91065e-14 -2.80365e-13 1.15907e-14 2.91489e-13 -9.86337e-14 1.42747e-13 2.96286e-14 -3.46461e-13 1.14984e-13 -1.78918e-13 2.40362e-13 3.51397e-14 8.74365e-15 1.61004e-14 1.04661e-14 -2.73319e-14 -5.23591e-14 -6.12004e-14 0 0 3.11077e-15 4.02018e-15 7.23113e-16 7.88524e-16 1.69785e-14 8.82662e-15 -4.0531e-15 -2.69301e-15 -8.95702e-16 -6.77651e-15 7.93659e-15 3.28802e-14 3.02651e-15 5.02524e-15 -8.19492e-15 1.20875e-14 -1.69375e-14 1.00468e-14 -1.28242e-14 1.18354e-14 1.55065e-14 -2.5364e-14 2.38541e-14 -2.72535e-14 2.2705e-14 -1.4066e-15 -9.92244e-15 -2.49682e-14 2.13328e-15 -1.92233e-15 -1.66417e-14 1.80328e-14 3.31638e-14 -3.97854e-14 2.24129e-14 -9.18052e-16 5.709e-14 6.9244e-14 3.9959e-15 5.25311e-14 -1.07202e-14 -3.38567e-14 5.50638e-14 8.89096e-14 1.17121e-13 1.16264e-13 1.49226e-13 6.75545e-13 5.3107e-12 3.64245e-11 2.36014e-10 1.43754e-09 8.24086e-09 4.43407e-08 2.23264e-07 1.04847e-06 4.57408e-06 1.84536e-05 6.84774e-05 0.000232236 0.000714469 0.0019773 0.00488178 0.0106841 0.0206961 0.0356854 0.0554941 0.0792452 0.105895 0.134637 0.164986 0.196699 0.229673 0.263879 0.299332 0.33607 0.374151 0.413649 0.454649 0.497248 0.541552 0.587675 0.635724 0.685789 0.737897 0.791912 0.847275 0.902252 0.951607 0.979515 0.970287 0.958898 0.94808 0.94076 0.936801 0.934987 0.934209 0.93394 0.93385 0.933277 0.933381 0.933531 0.933588 0.933572 0.933476 0.933362 0.933191 0.933024 0.932857 0.932745 0.932685 0.9328 0.933496 0.934196 0.93398 0.933948 0.933826 0.933703 0.933562 0.933441 0.933334 0.933227 0.933136 0.933054 0.932984 0.932922 0.932837 0.932713 0.932482 0.932135 0.931628 0.931043 0.930436 0.929983 0.929845 0.930385 0.934746 0.935519 0.934909 0.93521 0.928742 0.932473 0.919785 0.882295 0.894458 0.8174 0.7701 0.686741 0.597872 0.47651 0.357159 0.238676 0.140871 0.072131 0.0324901 0.0133921 0.00526051 0.00201989 0.000767272 0.000289704 0.000108893 4.07532e-05 1.51803e-05 5.62462e-06 2.07151e-06 7.57766e-07 2.7511e-07 9.90553e-08 3.53458e-08 1.24914e-08 4.36942e-09 1.51194e-09 5.17074e-10 1.74774e-10 5.82321e-11 1.91964e-11 6.24058e-12 2.19299e-12 3.56111e-13 6.10054e-13 2.54771e-13 -7.95959e-14 -3.68335e-13 2.30022e-14 3.37725e-13 1.63331e-15 2.88631e-14 2.96475e-13 -3.64021e-13 -2.96782e-13 5.57896e-14 1.69372e-13 1.34294e-13 -1.74327e-14 3.09238e-14 2.26952e-13 -3.80458e-14 4.26124e-14 -1.19775e-13 0
				</DataArray>
				<DataArray Name="VitesseY" type="Float32" format="ascii">