<?xml version="1.0"?>
<VTKFile type="PolyData">
	<PolyData>
		<Piece NumberOfPoints="1206" NumberOfPolys="1000">
			<Points>
				<DataArray type="Float32" NumberOfComponents="3" format="ascii">
 0 0 0 0.005 0 0 0.01 0 0 0.015 0 0 0.02 0 0 0.025 0 0 0.03 0 0 0.035 0 0 0.04 0 0 0.045 0 0 0.05 0 0 0.055 0 0 0.06 0 0 0.065 0 0 0.07 0 0 0.075 0 0 0.08 0 0 0.085 0 0 0.09 0 0 0.095 0 0 0.1 0 0 0.105 0 0 0.11 0 0 0.115 0 0 0.12 0 0 0.125 0 0 0.13 0 0 0.135 0 0 0.14 0 0 0.145 0 0 0.15 0 0 0.155 0 0 0.16 0 0 0.165 0 0 0.17 0 0 0.175 0 0 0.18 0 0 0.185 0 0 0.19 0 0 0.195 0 0 0.2 0 0 0.205 0 0 0.21 0 0 0.215 0 0 0.22 0 0 0.225 0 0 0.23 0 0 0.235 0 0 0.24 0 0 0.245 0 0 0.25 0 0 0.255 0 0 0.26 0 0 0.265 0 0 0.27 0 0 0.275 0 0 0.28 0 0 0.285 0 0 0.29 0 0 0.295 0 0 0.3 0 0 0.305 0 0 0.31 0 0 0.315 0 0 0.32 0 0 0.325 0 0 0.33 0 0 0.335 0 0 0.34 0 0 0.345 0 0 0.35 0 0 0.355 0 0 0.36 0 0 0.365 0 0 0.37 0 0 0.375 0 0 0.380001 0 0 0.385004 0 0 0.390015 0 0 0.395049 0 0 0.400132 0 0 0.405309 0 0 0.410631 0 0 0.416147 0 0 0.421902 0 0 0.427936 0 0 0.43429 0 0 0.441008 0 0 0.448143 0 0 0.455758 0 0 0.46393 0 0 0.472752 0 0 0.482334 0 0 0.492799 0 0 0.504228 0 0 0.516446 0 0 0.528705 0 0 0.540732 0 0 0.55259 0 0 0.564378 0 0 0.576168 0 0 0.578787 0 0 0.581331 0 0 0.583829 0 0 0.586294 0 0 0.588738 0 0 0.591165 0 0 0.59358 0 0 0.595986 0 0 0.598386 0 0 0.60078 0 0 0.603171 0 0 0.605558 0 0 0.607942 0 0 0.610322 0 0 0.6127 0 0 0.615076 0 0 0.617451 0 0 0.619826 0 0 0.622206 0 0 0.624591 0 0 0.626991 0 0 0.629406 0 0 0.631862 0 0 0.634355 0 0 0.636934 0 0 0.639592 0 0 0.642419 0 0 0.645433 0 0 0.648737 0 0 0.652364 0 0 0.656353 0 0 0.660687 0 0 0.665307 0 0 0.670123 0 0 0.675045 0 0 0.680016 0 0 0.685005 0 0 0.690002 0 0 0.695001 0 0 0.7 0 0 0.705 0 0 0.71 0 0 0.715 0 0 0.72 0 0 0.725 0 0 0.73 0 0 0.735 0 0 0.74 0 0 0.745 0 0 0.75 0 0 0.755 0 0 0.76 0 0 0.765 0 0 0.77 0 0 0.775 0 0 0.78 0 0 0.785 0 0 0.79 0 0 0.795 0 0 0.8 0 0 0.805 0 0 0.81 0 0 0.815 0 0 0.82 0 0 0.825 0 0 0.83 0 0 0.835 0 0 0.84 0 0 0.845 0 0 0.85 0 0 0.855 0 0 0.86 0 0 0.865 0 0 0.87 0 0 0.875 0 0 0.88 0 0 0.885 0 0 0.89 0 0 0.895 0 0 0.9 0 0 0.905 0 0 0.91 0 0 0.915 0 0 0.92 0 0 0.925 0 0 0.93 0 0 0.935 0 0 0.94 0 0 0.945 0 0 0.95 0 0 0.955 0 0 0.96 0 0 0.965 0 0 0.97 0 0 0.975 0 0 0.98 0 0 0.985 0 0 0.99 0 0 0.995 0 0 1 0 0 0 0.02 0 0.005 0.02 0 0.01 0.02 0 0.015 0.02 0 0.02 0.02 0 0.025 0.02 0 0.03 0.02 0 0.035 0.02 0 0.04 0.02 0 0.045 0.02 0 0.05 0.02 0 0.055 0.02 0 0.06 0.02 0 0.065 0.02 0 0.07 0.02 0 0.075 0.02 0 0.08 0.02 0 0.085 0.02 0 0.09 0.02 0 0.095 0.02 0 0.1 0.02 0 0.105 0.02 0 0.11 0.02 0 0.115 0.02 0 0.12 0.02 0 0.125 0.02 0 0.13 0.02 0 0.135 0.02 0 0.14 0.02 0 0.145 0.02 0 0.15 0.02 0 0.155 0.02 0 0.16 0.02 0 0.165 0.02 0 0.17 0.02 0 0.175 0.02 0 0.18 0.02 0 0.185 0.02 0 0.19 0.02 0 0.195 0.02 0 0.2 0.02 0 0.205 0.02 0 0.21 0.02 0 0.215 0.02 0 0.22 0.02 0 0.225 0.02 0 0.23 0.02 0 0.235 0.02 0 0.24 0.02 0 0.245 0.02 0 0.25 0.02 0 0.255 0.02 0 0.26 0.02 0 0.265 0.02 0 0.27 0.02 0 0.275 0.02 0 0.28 0.02 0 0.285 0.02 0 0.29 0.02 0 0.295 0.02 0 0.3 0.02 0 0.305 0.02 0 0.31 0.02 0 0.315 0.02 0 0.32 0.02 0 0.325 0.02 0 0.33 0.02 0 0.335 0.02 0 0.34 0.02 0 0.345 0.02 0 0.35 0.02 0 0.355 0.02 0 0.36 0.02 0 0.365 0.02 0 0.37 0.02 0 0.375 0.02 0 0.380001 0.02 0 0.385004 0.02 0 0.390015 0.02 0 0.395049 0.02 0 0.400132 0.02 0 0.405309 0.02 0 0.410631 0.02 0 0.416147 0.02 0 0.421902 0.02 0 0.427936 0.02 0 0.43429 0.02 0 0.441008 0.02 0 0.448143 0.02 0 0.455758 0.02 0 0.46393 0.02 0 0.472752 0.02 0 0.482334 0.02 0 0.492799 0.02 0 0.504228 0.02 0 0.516446 0.02 0 0.528705 0.02 0 0.540732 0.02 0 0.55259 0.02 0 0.564378 0.02 0 0.576168 0.02 0 0.578787 0.02 0 0.581331 0.02 0 0.583829 0.02 0 0.586294 0.02 0 0.588738 0.02 0 0.591165 0.02 0 0.59358 0.02 0 0.595986 0.02 0 0.598386 0.02 0 0.60078 0.02 0 0.603171 0.02 0 0.605558 0.02 0 0.607942 0.02 0 0.610322 0.02 0 0.6127 0.02 0 0.615076 0.02 0 0.617451 0.02 0 0.619826 0.02 0 0.622206 0.02 0 0.624591 0.02 0 0.626991 0.02 0 0.629406 0.02 0 0.631862 0.02 0 0.634355 0.02 0 0.636934 0.02 0 0.639592 0.02 0 0.642419 0.02 0 0.645433 0.02 0 0.648737 0.02 0 0.652364 0.02 0 0.656353 0.02 0 0.660687 0.02 0 0.665307 0.02 0 0.670123 0.02 0 0.675045 0.02 0 0.680016 0.02 0 0.685005 0.02 0 0.690002 0.02 0 0.695001 0.02 0 0.7 0.02 0 0.705 0.02 0 0.71 0.02 0 0.715 0.02 0 0.72 0.02 0 0.725 0.02 0 0.73 0.02 0 0.735 0.02 0 0.74 0.02 0 0.745 0.02 0 0.75 0.02 0 0.755 0.02 0 0.76 0.02 0 0.765 0.02 0 0.77 0.02 0 0.775 0.02 0 0.78 0.02 0 0.785 0.02 0 0.79 0.02 0 0.795 0.02 0 0.8 0.02 0 0.805 0.02 0 0.81 0.02 0 0.815 0.02 0 0.82 0.02 0 0.825 0.02 0 0.83 0.02 0 0.835 0.02 0 0.84 0.02 0 0.845 0.02 0 0.85 0.02 0 0.855 0.02 0 0.86 0.02 0 0.865 0.02 0 0.87 0.02 0 0.875 0.02 0 0.88 0.02 0 0.885 0.02 0 0.89 0.02 0 0.895 0.02 0 0.9 0.02 0 0.905 0.02 0 0.91 0.02 0 0.915 0.02 0 0.92 0.02 0 0.925 0.02 0 0.93 0.02 0 0.935 0.02 0 0.94 0.02 0 0.945 0.02 0 0.95 0.02 0 0.955 0.02 0 0.96 0.02 0 0.965 0.02 0 0.97 0.02 0 0.975 0.02 0 0.98 0.02 0 0.985 0.02 0 0.99 0.02 0 0.995 0.02 0 1 0.02 0 0 0.04 0 0.005 0.04 0 0.01 0.04 0 0.015 0.04 0 0.02 0.04 0 0.025 0.04 0 0.03 0.04 0 0.035 0.04 0 0.04 0.04 0 0.045 0.04 0 0.05 0.04 0 0.055 0.04 0 0.06 0.04 0 0.065 0.04 0 0.07 0.04 0 0.075 0.04 0 0.08 0.04 0 0.085 0.04 0 0.09 0.04 0 0.095 0.04 0 0.1 0.04 0 0.105 0.04 0 0.11 0.04 0 0.115 0.04 0 0.12 0.04 0 0.125 0.04 0 0.13 0.04 0 0.135 0.04 0 0.14 0.04 0 0.145 0.04 0 0.15 0.04 0 0.155 0.04 0 0.16 0.04 0 0.165 0.04 0 0.17 0.04 0 0.175 0.04 0 0.18 0.04 0 0.185 0.04 0 0.19 0.04 0 0.195 0.04 0 0.2 0.04 0 0.205 0.04 0 0.21 0.04 0 0.215 0.04 0 0.22 0.04 0 0.225 0.04 0 0.23 0.04 0 0.235 0.04 0 0.24 0.04 0 0.245 0.04 0 0.25 0.04 0 0.255 0.04 0 0.26 0.04 0 0.265 0.04 0 0.27 0.04 0 0.275 0.04 0 0.28 0.04 0 0.285 0.04 0 0.29 0.04 0 0.295 0.04 0 0.3 0.04 0 0.305 0.04 0 0.31 0.04 0 0.315 0.04 0 0.32 0.04 0 0.325 0.04 0 0.33 0.04 0 0.335 0.04 0 0.34 0.04 0 0.345 0.04 0 0.35 0.04 0 0.355 0.04 0 0.36 0.04 0 0.365 0.04 0 0.37 0.04 0 0.375 0.04 0 0.380001 0.04 0 0.385004 0.04 0 0.390015 0.04 0 0.395049 0.04 0 0.400132 0.04 0 0.405309 0.04 0 0.410631 0.04 0 0.416147 0.04 0 0.421902 0.04 0 0.427936 0.04 0 0.43429 0.04 0 0.441008 0.04 0 0.448143 0.04 0 0.455758 0.04 0 0.46393 0.04 0 0.472752 0.04 0 0.482334 0.04 0 0.492799 0.04 0 0.504228 0.04 0 0.516446 0.04 0 0.528705 0.04 0 0.540732 0.04 0 0.55259 0.04 0 0.564378 0.04 0 0.576168 0.04 0 0.578787 0.04 0 0.581331 0.04 0 0.583829 0.04 0 0.586294 0.04 0 0.588738 0.04 0 0.591165 0.04 0 0.59358 0.04 0 0.595986 0.04 0 0.598386 0.04 0 0.60078 0.04 0 0.603171 0.04 0 0.605558 0.04 0 0.607942 0.04 0 0.610322 0.04 0 0.6127 0.04 0 0.615076 0.04 0 0.617451 0.04 0 0.619826 0.04 0 0.622206 0.04 0 0.624591 0.04 0 0.626991 0.04 0 0.629406 0.04 0 0.631862 0.04 0 0.634355 0.04 0 0.636934 0.04 0 0.639592 0.04 0 0.642419 0.04 0 0.645433 0.04 0 0.648737 0.04 0 0.652364 0.04 0 0.656353 0.04 0 0.660687 0.04 0 0.665307 0.04 0 0.670123 0.04 0 0.675045 0.04 0 0.680016 0.04 0 0.685005 0.04 0 0.690002 0.04 0 0.695001 0.04 0 0.7 0.04 0 0.705 0.04 0 0.71 0.04 0 0.715 0.04 0 0.72 0.04 0 0.725 0.04 0 0.73 0.04 0 0.735 0.04 0 0.74 0.04 0 0.745 0.04 0 0.75 0.04 0 0.755 0.04 0 0.76 0.04 0 0.765 0.04 0 0.77 0.04 0 0.775 0.04 0 0.78 0.04 0 0.785 0.04 0 0.79 0.04 0 0.795 0.04 0 0.8 0.04 0 0.805 0.04 0 0.81 0.04 0 0.815 0.04 0 0.82 0.04 0 0.825 0.04 0 0.83 0.04 0 0.835 0.04 0 0.84 0.04 0 0.845 0.04 0 0.85 0.04 0 0.855 0.04 0 0.86 0.04 0 0.865 0.04 0 0.87 0.04 0 0.875 0.04 0 0.88 0.04 0 0.885 0.04 0 0.89 0.04 0 0.895 0.04 0 0.9 0.04 0 0.905 0.04 0 0.91 0.04 0 0.915 0.04 0 0.92 0.04 0 0.925 0.04 0 0.93 0.04 0 0.935 0.04 0 0.94 0.04 0 0.945 0.04 0 0.95 0.04 0 0.955 0.04 0 0.96 0.04 0 0.965 0.04 0 0.97 0.04 0 0.975 0.04 0 0.98 0.04 0 0.985 0.04 0 0.99 0.04 0 0.995 0.04 0 1 0.04 0 0 0.06 0 0.005 0.06 0 0.01 0.06 0 0.015 0.06 0 0.02 0.06 0 0.025 0.06 0 0.03 0.06 0 0.035 0.06 0 0.04 0.06 0 0.045 0.06 0 0.05 0.06 0 0.055 0.06 0 0.06 0.06 0 0.065 0.06 0 0.07 0.06 0 0.075 0.06 0 0.08 0.06 0 0.085 0.06 0 0.09 0.06 0 0.095 0.06 0 0.1 0.06 0 0.105 0.06 0 0.11 0.06 0 0.115 0.06 0 0.12 0.06 0 0.125 0.06 0 0.13 0.06 0 0.135 0.06 0 0.14 0.06 0 0.145 0.06 0 0.15 0.06 0 0.155 0.06 0 0.16 0.06 0 0.165 0.06 0 0.17 0.06 0 0.175 0.06 0 0.18 0.06 0 0.185 0.06 0 0.19 0.06 0 0.195 0.06 0 0.2 0.06 0 0.205 0.06 0 0.21 0.06 0 0.215 0.06 0 0.22 0.06 0 0.225 0.06 0 0.23 0.06 0 0.235 0.06 0 0.24 0.06 0 0.245 0.06 0 0.25 0.06 0 0.255 0.06 0 0.26 0.06 0 0.265 0.06 0 0.27 0.06 0 0.275 0.06 0 0.28 0.06 0 0.285 0.06 0 0.29 0.06 0 0.295 0.06 0 0.3 0.06 0 0.305 0.06 0 0.31 0.06 0 0.315 0.06 0 0.32 0.06 0 0.325 0.06 0 0.33 0.06 0 0.335 0.06 0 0.34 0.06 0 0.345 0.06 0 0.35 0.06 0 0.355 0.06 0 0.36 0.06 0 0.365 0.06 0 0.37 0.06 0 0.375 0.06 0 0.380001 0.06 0 0.385004 0.06 0 0.390015 0.06 0 0.395049 0.06 0 0.400132 0.06 0 0.405309 0.06 0 0.410631 0.06 0 0.416147 0.06 0 0.421902 0.06 0 0.427936 0.06 0 0.43429 0.06 0 0.441008 0.06 0 0.448143 0.06 0 0.455758 0.06 0 0.46393 0.06 0 0.472752 0.06 0 0.482334 0.06 0 0.492799 0.06 0 0.504228 0.06 0 0.516446 0.06 0 0.528705 0.06 0 0.540732 0.06 0 0.55259 0.06 0 0.564378 0.06 0 0.576168 0.06 0 0.578787 0.06 0 0.581331 0.06 0 0.583829 0.06 0 0.586294 0.06 0 0.588738 0.06 0 0.591165 0.06 0 0.59358 0.06 0 0.595986 0.06 0 0.598386 0.06 0 0.60078 0.06 0 0.603171 0.06 0 0.605558 0.06 0 0.607942 0.06 0 0.610322 0.06 0 0.6127 0.06 0 0.615076 0.06 0 0.617451 0.06 0 0.619826 0.06 0 0.622206 0.06 0 0.624591 0.06 0 0.626991 0.06 0 0.629406 0.06 0 0.631862 0.06 0 0.634355 0.06 0 0.636934 0.06 0 0.639592 0.06 0 0.642419 0.06 0 0.645433 0.06 0 0.648737 0.06 0 0.652364 0.06 0 0.656353 0.06 0 0.660687 0.06 0 0.665307 0.06 0 0.670123 0.06 0 0.675045 0.06 0 0.680016 0.06 0 0.685005 0.06 0 0.690002 0.06 0 0.695001 0.06 0 0.7 0.06 0 0.705 0.06 0 0.71 0.06 0 0.715 0.06 0 0.72 0.06 0 0.725 0.06 0 0.73 0.06 0 0.735 0.06 0 0.74 0.06 0 0.745 0.06 0 0.75 0.06 0 0.755 0.06 0 0.76 0.06 0 0.765 0.06 0 0.77 0.06 0 0.775 0.06 0 0.78 0.06 0 0.785 0.06 0 0.79 0.06 0 0.795 0.06 0 0.8 0.06 0 0.805 0.06 0 0.81 0.06 0 0.815 0.06 
[...]
			<PointData Scalars="VitesseX">
				<DataArray Name="VitesseX" type="Float32" format="ascii">
 0 -2.55824e-15 -4.61692e-15 -4.98276e-15 -4.66234e-15 -3.35623e-15 -1.10645e-14 -9.144e-15 -5.41154e-15 -1.11492e-14 -1.24626e-14 -1.09787e-14 -9.88469e-15 -1.6357e-14 -9.96193e-15 -1.32598e-14 -1.43215e-14 -9.89243e-15 -1.99202e-14 -2.9411e-15 -1.59631e-14 -9.23271e-15 -8.59522e-15 -1.95945e-14 -2.04994e-14 -5.77588e-15 -2.60212e-14 -2.35976e-14 -2.12525e-14 -2.78164e-14 -2.69627e-14 -1.64562e-14 -1.3662e-14 -2.28413e-14 1.96806e-14 -2.0995e-14 -1.90097e-14 -1.43914e-14 1.31054e-14 -1.63158e-14 4.48897e-15 9.29032e-15 -1.82418e-14 2.39955e-16 -5.70912e-15 -9.46685e-15 -2.07846e-14 -1.03933e-14 -2.71196e-14 2.62126e-14 -2.29241e-14 -1.23604e-14 -5.00432e-14 -8.25359e-15 -4.77969e-14 -4.32394e-14 -3.67483e-15 -4.14678e-14 -4.52164e-14 -2.67908e-14 -1.06082e-14 -4.95717e-14 -2.60799e-14 -3.20786e-14 3.24311e-14 1.01475e-13 1.17415e-12 1.18322e-11 1.15741e-10 1.04279e-09 8.63543e-09 6.54324e-08 4.51267e-07 2.81543e-06 1.57747e-05 7.8679e-05 0.000345581 0.00131932 0.00431335 0.0119097 0.0275731 0.0538641 0.0907513 0.13612 0.187662 0.243962 0.304468 0.369126 0.438143 0.511854 0.590635 0.674738 0.76381 0.855295 0.938564 0.975341 0.954031 0.939091 0.931309 0.929513 0.928922 0.928644 0.928358 0.928068 0.927773 0.927486 0.927197 0.926943 0.926679 0.926486 0.926241 0.926127 0.925837 0.925798 0.925296 0.925306 0.924183 0.92426 0.921318 0.921601 0.913477 0.914394 0.893279 0.896063 0.849081 0.855352 0.767328 0.747747 0.62774 0.538024 0.405705 0.282299 0.170309 0.0879306 0.0387119 0.0150926 0.00547155 0.00190611 0.000647584 0.000215662 7.04856e-05 2.26061e-05 7.11107e-06 2.19281e-06 6.62536e-07 1.96054e-07 5.6798e-08 1.61039e-08 4.46712e-09 1.21201e-09 3.21495e-10 8.33432e-11 2.10411e-11 5.22484e-12 1.15056e-12 2.11097e-13 3.67362e-14 -9.67643e-15 -1.99784e-14 -8.41841e-15 -9.98126e-14 2.13824e-14 -9.38846e-14 -8.79989e-14 -3.12912e-14 -4.99342e-14 -1.04545e-13 6.08198e-14 -1.00556e-13 6.40426e-14 5.44672e-14 -7.89948e-14 8.55383e-14 7.82777e-14 -4.55021e-14 -9.14449e-14 1.44761e-16 8.84626e-14 -6.04747e-14 -5.97469e-14 2.67281e-14 9.38882e-14 -1.32726e-13 7.96192e-14 -1.63853e-14 5.26745e-14 4.41755e-14 6.71513e-14 1.74017e-14 8.09287e-15 8.72863e-14 8.50511e-14 1.1895e-14 1.34459e-13 5.66212e-14 -1.01945e-14 1.58251e-14 9.00941e-14 -1.22283e-13 -2.46388e-14 0 0 -2.63455e-15 -4.89659e-15 -7.85438e-15 -3.31925e-15 -8.00143e-15 -9.21191e-15 -8.57083e-15 -7.90314e-15 -7.80017e-15 -1.96745e-14 -4.39954e-15 -5.33947e-15 -2.05442e-14 -9.93519e-15 -9.19339e-15 -1.42222e-14 -1.63945e-14 -1.10339e-14 -1.11343e-14 -1.07413e-14 -1.8616e-14 -1.0299e-14 -1.06465e-14 -1.55415e-14 -1.72977e-14 -2.42622e-14 -2.52425e-14 -2.45146e-14 -2.07821e-14 -1.74057e-14 -2.11912e-14 -2.39397e-14 -5.32569e-15 -2.21673e-14 2.82741e-14 -2.88182e-14 -2.39979e-14 -1.70632e-14 2.03263e-14 3.70734e-15 4.1223e-15 7.47485e-16 4.45844e-15 -2.42957e-14 -9.64889e-15 -1.62361e-14 -2.55413e-14 -1.67348e-14 -1.62699e-14 -6.11612e-15 -4.80342e-14 -3.14953e-14 -4.78471e-14 5.39322e-15 -3.35281e-14 -3.96182e-14 -2.23358e-14 -4.54308e-14 -1.51189e-14 -4.29941e-15 -3.38998e-14 -5.84609e-14 -5.02617e-15 4.91875e-14 9.16597e-14 1.1481e-12 1.19343e-11 1.15727e-10 1.0428e-09 8.63543e-09 6.54324e-08 4.51267e-07 2.81543e-06 1.57747e-05 7.8679e-05 0.000345581 0.00131932 0.00431335 0.0119097 0.0275731 0.0538641 0.0907513 0.13612 0.187662 0.243962 0.304468 0.369126 0.438143 0.511854 0.590635 0.674738 0.76381 0.855295 0.938564 0.975341 0.954031 0.939091 0.931309 0.929513 0.928922 0.928644 0.928358 0.928068 0.927773 0.927486 0.927197 0.926943 0.926679 0.926486 0.926241 0.926127 0.925837 0.925798 0.925296 0.925306 0.924183 0.92426 0.921318 0.921601 0.913477 0.914394 0.893279 0.896063 0.849081 0.855352 0.767328 0.747747 0.62774 0.538024 0.405705 0.282299 0.170309 0.0879306 0.0387119 0.0150926 0.00547155 0.00190611 0.000647584 0.000215662 7.04856e-05 2.26061e-05 7.11107e-06 2.19281e-06 6.62536e-07 1.96054e-07 5.6798e-08 1.61039e-08 4.46712e-09 1.212e-09 3.21499e-10 8.3358e-11 2.10332e-11 5.16315e-12 1.16145e-12 2.17628e-13 3.39594e-14 -9.46635e-14 1.11144e-13 1.69122e-14 -1.37429e-13 -9.53557e-14 1.46124e-14 -1.09147e-13 -6.22193e-14 -4.4965e-15 -1.42205e-14 -1.39268e-13 6.9665e-14 -6.1024e-14 2.11143e-15 4.0225e-14 2.41919e-14 4.81099e-14 -7.65239e-14 -2.09129e-14 7.59281e-14 5.32675e-14 -6.98496e-14 4.31282e-14 -3.02628e-14 -6.11285e-14 -1.94355e-14 5.30868e-14 2.30413e-14 6.45314e-14 2.2374e-14 -4.42669e-16 1.0845e-14 4.26369e-14 1.18808e-13 5.61309e-14 6.90705e-14 8.39888e-14 -3.70396e-14 2.65367e-14 -8.83097e-15 2.87634e-14 4.66139e-14 -1.00778e-13 0 0 -3.17277e-15 -6.72081e-15 -1.07499e-14 -6.36165e-15 -1.01412e-14 -6.56036e-15 -5.01458e-15 -1.01098e-14 -5.64058e-15 -2.10032e-14 -5.1584e-15 -6.01727e-15 -1.77129e-14 -9.77433e-15 -5.38188e-15 -2.27399e-14 -1.6465e-14 -1.70414e-14 -1.44768e-14 -2.41941e-14 -1.31291e-14 -1.28117e-14 -1.43629e-14 -8.7067e-15 -1.61193e-14 -2.87016e-14 -1.26377e-14 -2.59619e-14 -1.73599e-15 7.03032e-16 -1.26121e-14 -1.77711e-14 -1.62304e-14 4.19408e-15 2.37336e-14 -2.65441e-14 -2.19059e-14 -4.7495e-14 1.17744e-14 1.22557e-14 -1.86604e-14 1.51852e-14 -2.61634e-14 -3.97396e-14 -2.55799e-14 3.38502e-15 -5.04045e-14 -6.57667e-15 -1.55572e-14 -3.84196e-14 -4.5907e-14 -3.65837e-14 -3.65786e-14 -1.13631e-14 -4.03559e-14 -3.71903e-14 3.88296e-14 -3.89776e-14 -1.83441e-14 -5.98057e-15 -4.01507e-14 -1.58948e-14 -2.48977e-14 3.9352e-14 1.54276e-13 1.15519e-12 1.20108e-11 1.1576e-10 1.04282e-09 8.63545e-09 6.54323e-08 4.51267e-07 2.81543e-06 1.57747e-05 7.8679e-05 0.000345581 0.00131932 0.00431335 0.0119097 0.0275731 0.0538641 0.0907513 0.13612 0.187662 0.243962 0.304468 0.369126 0.438143 0.511854 0.590635 0.674738 0.76381 0.855295 0.938564 0.975341 0.954031 0.939091 0.931309 0.929513 0.928922 0.928644 0.928358 0.928068 0.927773 0.927486 0.927197 0.926943 0.926679 0.926486 0.926241 0.926127 0.925837 0.925798 0.925296 0.925306 0.924183 0.92426 0.921318 0.921601 0.913477 0.914394 0.893279 0.896063 0.849081 0.855352 0.767328 0.747747 0.62774 0.538024 0.405705 0.282299 0.170309 0.0879306 0.0387119 0.0150926 0.00547155 0.00190611 0.000647584 0.000215662 7.04856e-05 2.26061e-05 7.11107e-06 2.19281e-06 6.62536e-07 1.96054e-07 5.67981e-08 1.61039e-08 4.46709e-09 1.21198e-09 3.2148e-10 8.34324e-11 2.09198e-11 5.16248e-12 1.06781e-12 2.28583e-13 7.72837e-14 -5.5297e-14 2.1897e-14 -5.40068e-14 -1.34884e-13 -4.29699e-14 2.46879e-14 -1.01137e-13 4.83451e-14 -1.48751e-14 -2.67231e-14 -9.12523e-14 -2.27052e-14 -9.75476e-14 -3.00131e-14 1.05231e-13 -2.52746e-14 -1.52457e-14 -1.32616e-14 -1.94351e-14 7.58319e-14 6.89742e-14 2.13943e-14 -1.75991e-14 -8.89305e-14 2.36195e-14 1.68705e-14 4.93252e-14 6.98498e-14 -6.43833e-14 3.02818e-14 7.45174e-14 -3.34037e-14 5.47079e-14 6.21336e-14 7.84109e-14 4.61599e-14 -1.2783e-14 -9.68756e-15 -4.92156e-14 4.41232e-14 1.60187e-14 1.02899e-13 -7.29391e-14 0 0 -4.91637e-15 -7.6087e-15 -9.96899e-15 -9.31857e-15 -4.9712e-15 -3.66621e-15 -4.88929e-15 -9.78488e-15 -1.09506e-14 -1.21889e-14 -1.15102e-14 -9.17068e-15 -1.15949e-14 -2.50352e-14 -8.89556e-15 -2.0975e-14 -1.78734e-14 -9.84781e-15 -2.42476e-14 -3.57516e-14 -3.49554e-15 -1.38953e-14 -3.16486e-14 -1.88355e-14 -1.99948e-14 -6.02606e-15 -1.56335e-14 -1.89341e-14 2.43581e-14 6.1662e-15 -1.28862e-14 5.87142e-15 -1.36397e-14 2.08536e-14 -2.94138e-14 -5.37187e-16 -1.59453e-14 5.18061e-15 -1.46936e-14 -2.57318e-14 -3.772e-14 -1.09403e-15 -2.83259e-14 -7.47194e-14 -3.35708e-14 -2.73319e-14 -5.3227e-14 -2.32613e-14 -1.67645e-14 -2.32834e-14 -4.22459e-14 -3.6978e-14 -4.3998e-14 -3.15873e-14 -1.78268e-14 -2.22453e-14 4.28334e-14 8.22792e-15 9.91763e-16 -3.0436e-14 -2.68556e-14 4.73529e-14 -6.0694e-14 -1.03313e-14 2.51818e-13 1.23867e-12 1.19628e-11 1.15856e-10 1.04284e-09 8.63545e-09 6.54323e-08 4.51267e-07 2.81543e-06 1.57747e-05 7.8679e-05 0.000345581 0.00131932 0.00431335 0.0119097 0.0275731 0.0538641 0.0907513 0.13612 0.187662 0.243962 0.304468 0.369126 0.438143 0.511854 0.590635 0.674738 0.76381 0.855295 0.938564 0.975341 0.954031 0.939091 0.931309 0.929513 0.928922 0.928644 0.928358 0.928068 0.927773 0.927486 0.927197 0.926943 0.926679 0.926486 0.926241 0.926127 0.925837 0.925798 0.925296 0.925306 0.924183 0.92426 0.921318 0.921601 0.913477 0.914394 0.893279 0.896063 0.849081 0.855352 0.767328 0.747747 0.62774 0.538024 0.405705 0.282299 0.170309 0.0879306 0.0387119 0.0150926 0.00547155 0.00190611 0.000647584 0.000215662 7.04856e-05 2.26061e-05 7.11107e-06 2.19281e-06 6.62536e-07 1.96054e-07 5.6798e-08 1.61039e-08 4.46708e-09 1.21197e-09 3.21356e-10 8.33051e-11 2.09072e-11 5.18929e-12 1.10497e-12 1.28149e-13 -2.02084e-14 -6.42881e-14 -2.3244e-14 -1.01644e-13 8.66592e-15 9.23501e-15 -4.71651e-14 -8.80538e-14 2.07416e-13 -9.02331e-14 -2.03813e-14 4.92397e-14 -7.98146e-14 -1.0775e-13 4.81661e-14 6.85894e-15 -8.18856e-14 3.20801e-14 -7.83314e-14 3.13497e-14 3.15999e-14 5.43887e-14 -2.01836e-14 -9.61588e-14 1.15212e-13 1.04156e-13 -1.04446e-13 1.65743e-14 8.26021e-14 -6.14424e-14 1.1622e-13 1.5581e-13 -2.12139e-14 -3.97541e-14 3.87559e-14 4.47671e-14 -2.45322e-14 6.12565e-14 -1.25103e-14 1.32201e-14 9.95353e-14 -1.0608e-14 -3.60277e-14 -4.6583e-14 0 0 -4.46078e-15 -8.60248e-15 -8.61273e-15 -6.296e-15 6.31733e-16 2.20918e-15 -4.2934e-15 -6.91904e-15 -2.51215e-14 -4.40608e-15 -4.57703e-15 -6.20033e-15 -8.1343e-15 -2.5174e-14 -1.61799e-14 -1.84856e-15 -2.19612e-14 -1.14515e-14 -4.89218e-14 -1.27813e-14 -4.30366e-14 -1.9156e-14 -2.6454e-14 -9.8291e-15 -2.68215e-14 1.54063e-14 -3.42749e-14 -2.75564e-14 6.10458e-15 6.08277e-15 7.45089e-15 -6.87736e-15 -7.13505e-15 -1.09702e-14 -7.47554e-15 1.11349e-14 -8.79184e-15 4.14062e-14 -2.55812e-14 -3.55073e-14 -1.93844e-14 -2.50103e-14 -1.90501e-14 -6.98263e-14 -1.04023e-14 -8.7498e-14 -8.86539e-14 -4.89216e-14 -7.85157e-14 1.27747e-14 -4.33449e-14 1.09153e-14 -6.41493e-14 -1.73644e-14 -2.78879e-15 -2.0897e-14 2.35307e-14 6.388e-15 1.38117e-14 -4.94496e-14 -1.65553e-14 2.28659e-14 -3.33066e-14 2.83247e-14 2.51971e-13 1.26299e-12 1.19702e-11 1.15897e-10 1.04288e-09 8.63551e-09 6.54323e-08 4.51267e-07 2.81543e-06 1.57747e-05 7.8679e-05 0.000345581 0.00131932 0.00431335 0.0119097 0.0275731 0.0538641 0.0907513 0.13612 0.187662 0.243962 0.304468 0.369126 0.438143 0.511854 0.590635 0.674738 0.76381 0.855295 0.938564 0.975341 0.954031 0.939091 0.931309 0.929513 0.928922 0.928644 0.928358 0.928068 0.927773 0.927486 0.927197 0.926943 0.926679 0.926486 0.926241 0.926127 0.925837 0.925798 0.925296 0.925306 0.924183 0.92426 0.921318 0.921601 0.913477 0.914394 0.893279 0.896063 0.849081 0.855352 0.767328 0.747747 0.62774 0.538024 0.405705 0.282299 0.170309 0.0879306 0.0387119 0.0150926 0.00547155 0.00190611 0.000647584 0.000215662 7.04856e-05 2.26061e-05 7.11107e-06 2.19281e-06 6.62536e-07 1.96054e-07 5.6798e-08 1.61039e-08 4.46704e-09 1.21183e-09 3.21452e-10 8.31391e-11 2.09159e-11 5.17632e-12 1.14679e-12 4.24881e-15 -8.35517e-14 -2.61604e-13 8.5152e-15 2.60343e-14 2.51109e-14 -3.00046e-15 -1.92951e-14 5.05505e-14 5.4635e-14 -2.22187e-13 1.68397e-13 -8.94432e-15 -3.89573e-14 -3.33213e-14 6.9918e-15 6.49832e-14 -7.55435e-14 1.65411e-14 -4.26473e-14 1.71191e-14 -4.94921e-14 -3.51622e-14 1.69933e-14 -7.56502e-14 1.52182e-13 -1.56162e-13 6.0007e-14 -5.82842e-15 6.36201e-14 2.30977e-13 1.28066e-13 1.82682e-13 3.72971e-14 -1.37544e-14 -4.98724e-14 2.40637e-14 -2.96014e-14 5.05696e-14 9.69216e-14 4.67556e-14 5.84244e-14 -1.48043e-13 2.96036e-14 -2.76878e-14 0 0 -2.72351e-15 -1.02529e-14 -8.06131e-15 -4.70199e-15 3.57017e-15 5.98941e-15 -8.39707e-16 -4.09323e-15 -3.51718e-14 4.45636e-16 1.36993e-15 -5.29959e-15 -3.77326e-15 -9.91798e-15 -2.02054e-14 6.89602e-15 -1.82091e-14 -3.51427e-14 -5.89746e-14 3.0718e-15 -7.73409e-14 -2.41421e-14 -1.66382e-14 1.11829e-14 -1.70725e-14 7.96471e-15 -3.56707e-14 -4.13917e-14 -2.62312e-14 9.08794e-15 4.13762e-14 -2.68223e-14 -3.16415e-14 8.75557e-15 1.38006e-14 8.88251e-15 4.09959e-15 2.4693e-14 -5.51946e-14 2.03476e-15 3.96188e-16 -3.71989e-14 -4.24522e-14 -2.68107e-14 5.00823e-15 -1.01875e-13 -1.30974e-13 -5.81239e-14 -9.58644e-14 -1.5415e-14 -1.03038e-14 3.55666e-14 -2.60193e-14 -5.28637e-14 -2.68188e-14 3.8778e-15 4.22575e-14 -3.59898e-14 -7.60134e-15 -5.19977e-14 -4.1473e-14 1.00784e-14 -1.70468e-14 9.0072e-14 2.27014e-13 1.23697e-12 1.2e-11 1.15889e-10 1.0429e-09 8.63559e-09 6.54324e-08 4.51267e-07 2.81543e-06 1.57747e-05 7.8679e-05 0.000345581 0.00131932 0.00431335 0.0119097 0.0275731 0.0538641 0.0907513 0.13612 0.187662 0.243962 0.304468 0.369126 0.438143 0.511854 0.590635 0.674738 0.76381 0.855295 0.938564 0.975341 0.954031 0.939091 0.931309 0.929513 0.928922 0.928644 0.928358 0.928068 0.927773 0.927486 0.927197 0.926943 0.926679 0.926486 0.926241 0.926127 0.925837 0.925798 0.925296 0.925306 0.924183 0.92426 0.921318 0.921601 0.913477 0.914394 0.893279 0.896063 0.849081 0.855352 0.767328 0.747747 0.62774 0.538024 0.405705 0.282299 0.170309 0.0879306 0.0387119 0.0150926 0.00547155 0.00190611 0.000647584 0.000215662 7.04856e-05 2.26061e-05 7.11107e-06 2.19281e-06 6.62536e-07 1.96054e-07 5.6798e-08 1.61039e-08 4.46698e-09 1.21169e-09 3.21651e-10 8.31598e-11 2.08318e-11 5.19767e-12 1.04707e-12 -1.43775e-14 -2.7979e-15 -3.25414e-13 -1.35178e-13 1.04798e-13 -6.20726e-14 1.01571e-13 -1.79443e-14 2.04937e-13 -1.16005e-13 -3.34653e-13 2.47579e-13 4.00397e-14 -2.03523e-13 1.39791e-13 -9.26436e-14 1.66754e-13 -9.88151e-16 -7.96064e-14 1.52403e-13 -1.17021e-13 -1.62205e-13 -5.90032e-14 1.96521e-13 -1.39836e-13 -1.64548e-14 -2.57312e-13 2.68605e-13 2.70793e-14 3.94847e-14 3.79845e-13 8.3851e-14 2.71061e-13 4.58553e-14 8.41387e-14 -2.03627e-13 8.82934e-14 -4.37044e-14 -8.05103e-14 3.3023e-13 -9.464e-14 3.94077e-14 -2.1081e-13 1.2092e-13 6.85031e-14 0
				</DataArray>
				<DataArray Name="VitesseY" type="Float32" format="ascii">