<?xml version="1.0"?>
<VTKFile type="PolyData">
	<PolyData>
		<Piece NumberOfPoints="1206" NumberOfPolys="1000">
			<Points>
				<DataArray type="Float32" NumberOfComponents="3" format="ascii">
 0 0 0 0.005 0 0 0.01 0 0 0.015 0 0 0.02 0 0 0.025 0 0 0.03 0 0 0.035 0 0 0.04 0 0 0.045 0 0 0.05 0 0 0.055 0 0 0.06 0 0 0.065 0 0 0.07 0 0 0.075 0 0 0.08 0 0 0.085 0 0 0.09 0 0 0.095 0 0 0.1 0 0 0.105 0 0 0.11 0 0 0.115 0 0 0.12 0 0 0.125 0 0 0.13 0 0 0.135 0 0 0.14 0 0 0.145 0 0 0.15 0 0 0.155 0 0 0.16 0 0 0.165 0 0 0.17 0 0 0.175 0 0 0.18 0 0 0.185 0 0 0.19 0 0 0.195 0 0 0.2 0 0 0.205 0 0 0.21 0 0 0.215 0 0 0.22 0 0 0.225 0 0 0.23 0 0 0.235 0 0 0.24 0 0 0.245 0 0 0.25 0 0 0.255 0 0 0.26 0 0 0.265 0 0 0.27 0 0 0.275 0 0 0.28 0 0 0.285 0 0 0.29 0 0 0.295 0 0 0.3 0 0 0.305 0 0 0.31 0 0 0.315 0 0 0.32 0 0 0.325 0 0 0.33 0 0 0.335 0 0 0.34 0 0 0.345 0 0 0.35 0 0 0.355 0 0 0.36 0 0 0.365 0 0 0.37 0 0 0.375 0 0 0.38 0 0 0.385 0 0 0.39 0 0 0.395 0 0 0.4 0 0 0.405 0 0 0.41 0 0 0.415 0 0 0.420001 0 0 0.425005 0 0 0.430024 0 0 0.435086 0 0 0.440257 0 0 0.445631 0 0 0.451317 0 0 0.457421 0 0 0.464051 0 0 0.471338 0 0 0.479447 0 0 0.488598 0 0 0.499055 0 0 0.510948 0 0 0.523427 0 0 0.53551 0 0 0.547376 0 0 0.549996 0 0 0.552541 0 0 0.555041 0 0 0.557511 0 0 0.559961 0 0 0.562398 0 0 0.564826 0 0 0.56725 0 0 0.569673 0 0 0.572102 0 0 0.57454 0 0 0.577009 0 0 0.579508 0 0 0.582086 0 0 0.584731 0 0 0.587535 0 0 0.590506 0 0 0.593766 0 0 0.597351 0 0 0.601314 0 0 0.60564 0 0 0.610267 0 0 0.615097 0 0 0.620032 0 0 0.62501 0 0 0.630003 0 0 0.635001 0 0 0.64 0 0 0.645 0 0 0.65 0 0 0.655 0 0 0.66 0 0 0.665 0 0 0.67 0 0 0.675 0 0 0.68 0 0 0.685 0 0 0.69 0 0 0.695 0 0 0.7 0 0 0.705 0 0 0.71 0 0 0.715 0 0 0.72 0 0 0.725 0 0 0.73 0 0 0.735 0 0 0.74 0 0 0.745 0 0 0.75 0 0 0.755 0 0 0.76 0 0 0.765 0 0 0.77 0 0 0.775 0 0 0.78 0 0 0.785 0 0 0.79 0 0 0.795 0 0 0.8 0 0 0.805 0 0 0.81 0 0 0.815 0 0 0.82 0 0 0.825 0 0 0.83 0 0 0.835 0 0 0.84 0 0 0.845 0 0 0.85 0 0 0.855 0 0 0.86 0 0 0.865 0 0 0.87 0 0 0.875 0 0 0.88 0 0 0.885 0 0 0.89 0 0 0.895 0 0 0.9 0 0 0.905 0 0 0.91 0 0 0.915 0 0 0.92 0 0 0.925 0 0 0.93 0 0 0.935 0 0 0.94 0 0 0.945 0 0 0.95 0 0 0.955 0 0 0.96 0 0 0.965 0 0 0.97 0 0 0.975 0 0 0.98 0 0 0.985 0 0 0.99 0 0 0.995 0 0 1 0 0 0 0.02 0 0.005 0.02 0 0.01 0.02 0 0.015 0.02 0 0.02 0.02 0 0.025 0.02 0 0.03 0.02 0 0.035 0.02 0 0.04 0.02 0 0.045 0.02 0 0.05 0.02 0 0.055 0.02 0 0.06 0.02 0 0.065 0.02 0 0.07 0.02 0 0.075 0.02 0 0.08 0.02 0 0.085 0.02 0 0.09 0.02 0 0.095 0.02 0 0.1 0.02 0 0.105 0.02 0 0.11 0.02 0 0.115 0.02 0 0.12 0.02 0 0.125 0.02 0 0.13 0.02 0 0.135 0.02 0 0.14 0.02 0 0.145 0.02 0 0.15 0.02 0 0.155 0.02 0 0.16 0.02 0 0.165 0.02 0 0.17 0.02 0 0.175 0.02 0 0.18 0.02 0 0.185 0.02 0 0.19 0.02 0 0.195 0.02 0 0.2 0.02 0 0.205 0.02 0 0.21 0.02 0 0.215 0.02 0 0.22 0.02 0 0.225 0.02 0 0.23 0.02 0 0.235 0.02 0 0.24 0.02 0 0.245 0.02 0 0.25 0.02 0 0.255 0.02 0 0.26 0.02 0 0.265 0.02 0 0.27 0.02 0 0.275 0.02 0 0.28 0.02 0 0.285 0.02 0 0.29 0.02 0 0.295 0.02 0 0.3 0.02 0 0.305 0.02 0 0.31 0.02 0 0.315 0.02 0 0.32 0.02 0 0.325 0.02 0 0.33 0.02 0 0.335 0.02 0 0.34 0.02 0 0.345 0.02 0 0.35 0.02 0 0.355 0.02 0 0.36 0.02 0 0.365 0.02 0 0.37 0.02 0 0.375 0.02 0 0.38 0.02 0 0.385 0.02 0 0.39 0.02 0 0.395 0.02 0 0.4 0.02 0 0.405 0.02 0 0.41 0.02 0 0.415 0.02 0 0.420001 0.02 0 0.425005 0.02 0 0.430024 0.02 0 0.435086 0.02 0 0.440257 0.02 0 0.445631 0.02 0 0.451317 0.02 0 0.457421 0.02 0 0.464051 0.02 0 0.471338 0.02 0 0.479447 0.02 0 0.488598 0.02 0 0.499055 0.02 0 0.510948 0.02 0 0.523427 0.02 0 0.53551 0.02 0 0.547376 0.02 0 0.549996 0.02 0 0.552541 0.02 0 0.555041 0.02 0 0.557511 0.02 0 0.559961 0.02 0 0.562398 0.02 0 0.564826 0.02 0 0.56725 0.02 0 0.569673 0.02 0 0.572102 0.02 0 0.57454 0.02 0 0.577009 0.02 0 0.579508 0.02 0 0.582086 0.02 0 0.584731 0.02 0 0.587535 0.02 0 0.590506 0.02 0 0.593766 0.02 0 0.597351 0.02 0 0.601314 0.02 0 0.60564 0.02 0 0.610267 0.02 0 0.615097 0.02 0 0.620032 0.02 0 0.62501 0.02 0 0.630003 0.02 0 0.635001 0.02 0 0.64 0.02 0 0.645 0.02 0 0.65 0.02 0 0.655 0.02 0 0.66 0.02 0 0.665 0.02 0 0.67 0.02 0 0.675 0.02 0 0.68 0.02 0 0.685 0.02 0 0.69 0.02 0 0.695 0.02 0 0.7 0.02 0 0.705 0.02 0 0.71 0.02 0 0.715 0.02 0 0.72 0.02 0 0.725 0.02 0 0.73 0.02 0 0.735 0.02 0 0.74 0.02 0 0.745 0.02 0 0.75 0.02 0 0.755 0.02 0 0.76 0.02 0 0.765 0.02 0 0.77 0.02 0 0.775 0.02 0 0.78 0.02 0 0.785 0.02 0 0.79 0.02 0 0.795 0.02 0 0.8 0.02 0 0.805 0.02 0 0.81 0.02 0 0.815 0.02 0 0.82 0.02 0 0.825 0.02 0 0.83 0.02 0 0.835 0.02 0 0.84 0.02 0 0.845 0.02 0 0.85 0.02 0 0.855 0.02 0 0.86 0.02 0 0.865 0.02 0 0.87 0.02 0 0.875 0.02 0 0.88 0.02 0 0.885 0.02 0 0.89 0.02 0 0.895 0.02 0 0.9 0.02 0 0.905 0.02 0 0.91 0.02 0 0.915 0.02 0 0.92 0.02 0 0.925 0.02 0 0.93 0.02 0 0.935 0.02 0 0.94 0.02 0 0.945 0.02 0 0.95 0.02 0 0.955 0.02 0 0.96 0.02 0 0.965 0.02 0 0.97 0.02 0 0.975 0.02 0 0.98 0.02 0 0.985 0.02 0 0.99 0.02 0 0.995 0.02 0 1 0.02 0 0 0.04 0 0.005 0.04 0 0.01 0.04 0 0.015 0.04 0 0.02 0.04 0 0.025 0.04 0 0.03 0.04 0 0.035 0.04 0 0.04 0.04 0 0.045 0.04 0 0.05 0.04 0 0.055 0.04 0 0.06 0.04 0 0.065 0.04 0 0.07 0.04 0 0.075 0.04 0 0.08 0.04 0 0.085 0.04 0 0.09 0.04 0 0.095 0.04 0 0.1 0.04 0 0.105 0.04 0 0.11 0.04 0 0.115 0.04 0 0.12 0.04 0 0.125 0.04 0 0.13 0.04 0 0.135 0.04 0 0.14 0.04 0 0.145 0.04 0 0.15 0.04 0 0.155 0.04 0 0.16 0.04 0 0.165 0.04 0 0.17 0.04 0 0.175 0.04 0 0.18 0.04 0 0.185 0.04 0 0.19 0.04 0 0.195 0.04 0 0.2 0.04 0 0.205 0.04 0 0.21 0.04 0 0.215 0.04 0 0.22 0.04 0 0.225 0.04 0 0.23 0.04 0 0.235 0.04 0 0.24 0.04 0 0.245 0.04 0 0.25 0.04 0 0.255 0.04 0 0.26 0.04 0 0.265 0.04 0 0.27 0.04 0 0.275 0.04 0 0.28 0.04 0 0.285 0.04 0 0.29 0.04 0 0.295 0.04 0 0.3 0.04 0 0.305 0.04 0 0.31 0.04 0 0.315 0.04 0 0.32 0.04 0 0.325 0.04 0 0.33 0.04 0 0.335 0.04 0 0.34 0.04 0 0.345 0.04 0 0.35 0.04 0 0.355 0.04 0 0.36 0.04 0 0.365 0.04 0 0.37 0.04 0 0.375 0.04 0 0.38 0.04 0 0.385 0.04 0 0.39 0.04 0 0.395 0.04 0 0.4 0.04 0 0.405 0.04 0 0.41 0.04 0 0.415 0.04 0 0.420001 0.04 0 0.425005 0.04 0 0.430024 0.04 0 0.435086 0.04 0 0.440257 0.04 0 0.445631 0.04 0 0.451317 0.04 0 0.457421 0.04 0 0.464051 0.04 0 0.471338 0.04 0 0.479447 0.04 0 0.488598 0.04 0 0.499055 0.04 0 0.510948 0.04 0 0.523427 0.04 0 0.53551 0.04 0 0.547376 0.04 0 0.549996 0.04 0 0.552541 0.04 0 0.555041 0.04 0 0.557511 0.04 0 0.559961 0.04 0 0.562398 0.04 0 0.564826 0.04 0 0.56725 0.04 0 0.569673 0.04 0 0.572102 0.04 0 0.57454 0.04 0 0.577009 0.04 0 0.579508 0.04 0 0.582086 0.04 0 0.584731 0.04 0 0.587535 0.04 0 0.590506 0.04 0 0.593766 0.04 0 0.597351 0.04 0 0.601314 0.04 0 0.60564 0.04 0 0.610267 0.04 0 0.615097 0.04 0 0.620032 0.04 0 0.62501 0.04 0 0.630003 0.04 0 0.635001 0.04 0 0.64 0.04 0 0.645 0.04 0 0.65 0.04 0 0.655 0.04 0 0.66 0.04 0 0.665 0.04 0 0.67 0.04 0 0.675 0.04 0 0.68 0.04 0 0.685 0.04 0 0.69 0.04 0 0.695 0.04 0 0.7 0.04 0 0.705 0.04 0 0.71 0.04 0 0.715 0.04 0 0.72 0.04 0 0.725 0.04 0 0.73 0.04 0 0.735 0.04 0 0.74 0.04 0 0.745 0.04 0 0.75 0.04 0 0.755 0.04 0 0.76 0.04 0 0.765 0.04 0 0.77 0.04 0 0.775 0.04 0 0.78 0.04 0 0.785 0.04 0 0.79 0.04 0 0.795 0.04 0 0.8 0.04 0 0.805 0.04 0 0.81 0.04 0 0.815 0.04 0 0.82 0.04 0 0.825 0.04 0 0.83 0.04 0 0.835 0.04 0 0.84 0.04 0 0.845 0.04 0 0.85 0.04 0 0.855 0.04 0 0.86 0.04 0 0.865 0.04 0 0.87 0.04 0 0.875 0.04 0 0.88 0.04 0 0.885 0.04 0 0.89 0.04 0 0.895 0.04 0 0.9 0.04 0 0.905 0.04 0 0.91 0.04 0 0.915 0.04 0 0.92 0.04 0 0.925 0.04 0 0.93 0.04 0 0.935 0.04 0 0.94 0.04 0 0.945 0.04 0 0.95 0.04 0 0.955 0.04 0 0.96 0.04 0 0.965 0.04 0 0.97 0.04 0 0.975 0.04 0 0.98 0.04 0 0.985 0.04 0 0.99 0.04 0 0.995 0.04 0 1 0.04 0 0 0.06 0 0.005 0.06 0 0.01 0.06 0 0.015 0.06 0 0.02 0.06 0 0.025 0.06 0 0.03 0.06 0 0.035 0.06 0 0.04 0.06 0 0.045 0.06 0 0.05 0.06 0 0.055 0.06 0 0.06 0.06 0 0.065 0.06 0 0.07 0.06 0 0.075 0.06 0 0.08 0.06 0 0.085 0.06 0 0.09 0.06 0 0.095 0.06 0 0.1 0.06 0 0.105 0.06 0 0.11 0.06 0 0.115 0.06 0 0.12 0.06 0 0.125 0.06 0 0.13 0.06 0 0.135 0.06 0 0.14 0.06 0 0.145 0.06 0 0.15 0.06 0 0.155 0.06 0 0.16 0.06 0 0.165 0.06 0 0.17 0.06 0 0.175 0.06 0 0.18 0.06 0 0.185 0.06 0 0.19 0.06 0 0.195 0.06 0 0.2 0.06 0 0.205 0.06 0 0.21 0.06 0 0.215 0.06 0 0.22 0.06 0 0.225 0.06 0 0.23 0.06 0 0.235 0.06 0 0.24 0.06 0 0.245 0.06 0 0.25 0.06 0 0.255 0.06 0 0.26 0.06 0 0.265 0.06 0 0.27 0.06 0 0.275 0.06 0 0.28 0.06 0 0.285 0.06 0 0.29 0.06 0 0.295 0.06 0 0.3 0.06 0 0.305 0.06 0 0.31 0.06 0 0.315 0.06 0 0.32 0.06 0 0.325 0.06 0 0.33 0.06 0 0.335 0.06 0 0.34 0.06 0 0.345 0.06 0 0.35 0.06 0 0.355 0.06 0 0.36 0.06 0 0.365 0.06 0 0.37 0.06 0 0.375 0.06 0 0.38 0.06 0 0.385 0.06 0 0.39 0.06 0 0.395 0.06 0 0.4 0.06 0 0.405 0.06 0 0.41 0.06 0 0.415 0.06 0 0.420001 0.06 0 0.425005 0.06 0 0.430024 0.06 0 0.435086 0.06 0 0.440257 0.06 0 0.445631 0.06 0 0.451317 0.06 0 0.457421 0.06 0 0.464051 0.06 0 0.471338 0.06 0 0.479447 0.06 0 0.488598 0.06 0 0.499055 0.06 0 0.510948 0.06 0 0.523427 0.06 0 0.53551 0.06 0 0.547376 0.06 0 0.549996 0.06 0 0.552541 0.06 0 0.555041 0.06 0 0.557511 0.06 0 0.559961 0.06 0 0.562398 0.06 0 0.564826 0.06 0 0.56725 0.06 0 0.569673 0.06 0 0.572102 0.06 0 0.57454 0.06 0 0.577009 0.06 0 0.579508 0.06 0 0.582086 0.06 0 0.584731 0.06 0 0.587535 0.06 0 0.590506 0.06 0 0.593766 0.06 0 0.597351 0.06 0 0.601314 0.06 0 0.60564 0.06 0 0.610267 0.06 0 0.615097 0.06 0 0.620032 0.06 0 0.62501 0.06 0 0.630003 0.06 0 0.635001 0.06 0 0.64 0.06 0 0.645 0.06 0 0.65 0.06 0 0.655 0.06 0 0.66 0.06 0 0.665 0.06 0 0.67 0.06 0 0.675 0.06 0 0.68 0.06 0 0.685 0.06 0 0.69 0.06 0 0.695 0.06 0 0.7 0.06 0 0.705 0.06 0 0.71 0.06 0 0.715 0.06 0 0.72 0.06 0 0.725 0.06 0 0.73 0.06 0 0.735 0.06 0 0.74 0.06 0 0.745 0.06 0 0.75 0.06 0 0.755 0.06 0 0.76 0.06 0 0.765 0.06 0 0.77 0.06 0 0.775 0.06 0 0.78 0.06 0 0.785 0.06 0 0.79 0.06 0 0.795 0.06 0 0.8 0.06 0 0.805 0.06 0 0.81 0.06 0 0.815 0.06 0 0.82 0.06 0 0.825 0.06 0 0.83 0.06 0 0.835 0.06 0 0.84 0.06 0 0.845 0.06 0 0.85 0.06 0 0.855 0.06 0 0.86 0.06 0 0.865 0.06 0 0.87 0.06 0 0.875 0.06 0 0.88 0.06 0 0.885 0.06 0 0.89 0.06 0 0.895 0.06 0 0.9 0.06 0 0.905 0.06 0 0.91 0.06 0 0.915 0.06 0 0.92 0.06 0 0.925 0.06 0 
[...]
			<PointData Scalars="VitesseX">
				<DataArray Name="VitesseX" type="Float32" format="ascii">
 0 6.50459e-16 -1.48371e-15 1.77733e-15 -1.20893e-15 2.70766e-15 -3.8318e-16 -4.25416e-15 -6.14834e-15 -2.99828e-16 -2.37363e-15 1.0435e-15 4.22966e-15 -1.32826e-14 1.35595e-14 -1.67818e-14 -1.3054e-14 9.72981e-15 -9.77486e-15 2.36818e-15 -1.09713e-14 -6.59802e-15 -9.95623e-15 -6.96145e-15 -3.8569e-15 -8.07565e-15 -1.5031e-14 1.96319e-15 -1.10207e-14 -2.39947e-14 -1.38411e-14 -1.22538e-14 5.09265e-15 -1.22393e-14 3.41393e-15 -1.56712e-14 -1.15845e-14 -1.92916e-14 -4.81588e-15 6.82794e-15 -1.7912e-14 -1.01905e-14 2.12445e-14 -9.73765e-15 1.82948e-15 2.58773e-14 -2.94459e-14 2.60185e-14 1.1719e-14 6.5473e-15 -9.54652e-15 -3.95734e-14 -2.46993e-14 -6.49283e-15 -4.85032e-14 -1.59091e-15 1.77801e-14 -4.83491e-14 -8.88828e-15 -2.25566e-14 -2.34481e-14 7.07973e-15 1.99626e-14 -8.39648e-15 -3.97481e-14 2.31311e-14 -2.8115e-14 1.14351e-14 -3.22276e-14 4.09447e-15 -4.69442e-14 4.34159e-14 -2.06046e-14 -4.97288e-14 1.56888e-14 4.36208e-13 6.40749e-12 9.21495e-11 1.19451e-09 1.38734e-08 1.43154e-07 1.30118e-06 1.03108e-05 7.03252e-05 0.000406232 0.00194739 0.00756591 0.0233261 0.0567515 0.111369 0.18454 0.271787 0.370651 0.480842 0.603029 0.737065 0.876153 0.980576 0.960067 0.937203 0.926451 0.926068 0.925939 0.92588 0.925972 0.925687 0.925719 0.924016 0.924046 0.918823 0.919393 0.903514 0.905723 0.863138 0.869387 0.784424 0.777376 0.648862 0.569406 0.425942 0.296835 0.17531 0.0866658 0.0352925 0.0123687 0.003958 0.00120137 0.000351239 9.9345e-05 2.71953e-05 7.20065e-06 1.84273e-06 4.55543e-07 1.08747e-07 2.5064e-08 5.57697e-09 1.19798e-09 2.48466e-10 4.97153e-11 9.5867e-12 1.78204e-12 2.23025e-13 6.20668e-14 1.09034e-14 3.72888e-14 -4.37845e-14 4.40785e-14 2.80936e-14 -1.19173e-14 7.6027e-15 6.90623e-15 -1.01371e-13 6.0218e-14 -9.44837e-14 -7.36442e-14 -5.3953e-14 -1.00264e-13 -2.89099e-14 -3.12112e-14 -7.41277e-14 7.08363e-14 -9.11484e-14 -2.648e-14 4.03906e-15 5.92861e-14 -2.56964e-14 9.96062e-14 -8.52198e-14 -8.41661e-14 6.27227e-14 -1.88445e-14 5.98209e-14 -1.39464e-14 8.93066e-14 -8.93795e-14 7.27917e-14 -8.56461e-14 -5.32825e-14 8.19722e-14 -5.29151e-14 2.4331e-14 5.0273e-14 2.29447e-14 -4.32433e-14 8.78042e-14 -7.59531e-14 -5.54829e-14 7.60466e-14 6.47257e-14 8.08412e-15 -4.56087e-14 1.00958e-13 2.34745e-14 -4.22847e-14 1.2195e-13 5.6146e-14 4.85336e-14 -5.38691e-14 9.90884e-14 8.51889e-14 0 0 9.36408e-17 -7.91039e-16 -1.13292e-15 2.33738e-15 -2.21374e-15 1.88798e-15 -4.15629e-15 -3.08821e-15 -1.97839e-15 -3.16576e-15 -5.46064e-15 6.57939e-16 -1.0978e-15 -8.71667e-15 -8.02179e-15 -4.57039e-15 -1.37975e-15 -6.02628e-15 -1.16774e-14 2.16838e-15 -2.54478e-15 -9.61918e-15 -2.2814e-15 -1.32638e-14 -2.05763e-15 -1.52658e-14 -8.49499e-16 -2.32927e-14 7.79792e-15 -3.04555e-14 -1.52442e-14 1.1243e-14 -9.07729e-15 -1.84139e-14 -2.40986e-14 1.93954e-14 -2.68443e-14 -1.64971e-14 -1.48769e-14 -1.49124e-14 1.69381e-14 1.29524e-14 -7.64336e-15 -4.21247e-15 2.13899e-15 -7.0878e-15 1.2641e-14 1.23284e-14 2.51241e-14 1.26747e-15 -2.70868e-14 -2.48006e-14 -8.69903e-16 -5.19635e-14 -3.01312e-14 4.05211e-14 -3.94494e-14 -3.62358e-14 -2.76634e-14 5.83386e-15 2.84632e-15 -1.04448e-14 -4.08125e-14 1.52249e-14 8.77067e-15 -3.29794e-14 -8.52998e-15 -1.32934e-14 -2.12046e-14 -1.84195e-14 1.62102e-14 -1.62869e-14 -4.53098e-14 2.8357e-14 4.59585e-13 6.43156e-12 9.21087e-11 1.19454e-09 1.38734e-08 1.43154e-07 1.30118e-06 1.03108e-05 7.03252e-05 0.000406232 0.00194739 0.00756591 0.0233261 0.0567515 0.111369 0.18454 0.271787 0.370651 0.480842 0.603029 0.737065 0.876153 0.980576 0.960067 0.937203 0.926451 0.926068 0.925939 0.92588 0.925972 0.925687 0.925719 0.924016 0.924046 0.918823 0.919393 0.903514 0.905723 0.863138 0.869387 0.784424 0.777376 0.648862 0.569406 0.425942 0.296835 0.17531 0.0866658 0.0352925 0.0123687 0.003958 0.00120137 0.000351239 9.9345e-05 2.71953e-05 7.20065e-06 1.84273e-06 4.55543e-07 1.08747e-07 2.5064e-08 5.57692e-09 1.19802e-09 2.48472e-10 4.97034e-11 9.5547e-12 1.7796e-12 3.01031e-13 -2.08536e-14 -2.65721e-15 8.5102e-14 -9.89019e-14 9.47972e-14 -6.99926e-14 -2.86253e-16 3.20265e-14 -8.61485e-14 -1.17788e-14 -8.34263e-14 3.37496e-14 -7.4505e-14 -6.38671e-14 -3.34146e-14 -7.88032e-14 4.62427e-14 -1.12545e-13 1.00059e-14 -4.75348e-15 -5.23153e-14 -5.1508e-14 6.53982e-14 2.09098e-14 -2.6108e-14 -1.41833e-14 -1.00926e-13 4.77405e-14 7.21019e-14 -5.55769e-14 4.33318e-14 7.00267e-14 5.37354e-14 -7.73149e-14 -1.07768e-13 6.42326e-14 -5.31088e-14 -1.26807e-14 4.22073e-14 9.42024e-14 6.31327e-14 -6.36607e-14 -8.28375e-14 -4.81262e-14 9.00776e-14 4.93704e-14 -5.53625e-14 9.53914e-14 -3.586e-14 8.72523e-14 2.25194e-14 1.59775e-14 9.76262e-14 1.62358e-15 1.05627e-13 5.43675e-15 2.1066e-14 4.79555e-14 0 0 -1.04705e-15 -8.59004e-16 -1.51844e-15 7.03974e-16 -1.25648e-15 2.55798e-15 -5.24572e-15 -3.40472e-15 -2.1879e-15 -5.34304e-15 -1.1397e-14 -4.36548e-15 -1.25912e-14 -1.00037e-14 4.82463e-15 -1.13219e-14 -1.21774e-14 4.06398e-15 -1.38618e-14 6.06968e-15 -1.23969e-14 2.50017e-15 -6.2057e-15 -1.44155e-14 6.84706e-16 -2.49705e-14 -1.94974e-15 -2.19633e-14 9.62478e-15 -1.81709e-14 -2.41105e-14 -2.6979e-14 -1.20193e-14 -3.62878e-14 -5.65261e-15 2.62897e-14 -3.5379e-14 -7.91777e-15 -9.69016e-15 -1.0251e-14 3.85681e-14 -1.1024e-14 -7.02162e-15 -3.18564e-15 1.02505e-14 -2.65612e-14 1.75772e-14 2.15586e-14 6.47554e-15 2.40804e-14 -2.9693e-14 3.41222e-14 -2.87781e-14 -1.561e-14 -4.77903e-14 1.31219e-14 -5.53367e-14 -4.27915e-14 -4.11572e-14 3.26727e-15 -1.43149e-14 -7.73966e-14 -1.83823e-14 2.20704e-14 -3.35155e-14 2.02457e-14 -3.94921e-15 -1.39992e-14 -2.82105e-14 1.32953e-14 -4.24121e-14 3.553e-14 -4.71164e-14 4.11972e-14 4.63748e-13 6.47171e-12 9.21161e-11 1.19456e-09 1.38735e-08 1.43154e-07 1.30118e-06 1.03108e-05 7.03252e-05 0.000406232 0.00194739 0.00756591 0.0233261 0.0567515 0.111369 0.18454 0.271787 0.370651 0.480842 0.603029 0.737065 0.876153 0.980576 0.960067 0.937203 0.926451 0.926068 0.925939 0.92588 0.925972 0.925687 0.925719 0.924016 0.924046 0.918823 0.919393 0.903514 0.905723 0.863138 0.869387 0.784424 0.777376 0.648862 0.569406 0.425942 0.296835 0.17531 0.0866658 0.0352925 0.0123687 0.003958 0.00120137 0.000351239 9.9345e-05 2.71953e-05 7.20065e-06 1.84273e-06 4.55543e-07 1.08747e-07 2.5064e-08 5.57688e-09 1.19796e-09 2.48467e-10 4.97135e-11 9.50377e-12 1.80269e-12 3.01634e-13 -6.30831e-14 -6.45269e-14 4.96324e-14 2.61296e-16 1.06487e-13 -9.71928e-14 -3.17875e-15 -7.9706e-14 -5.39163e-14 -7.01351e-14 -7.10602e-14 4.69336e-14 -7.77504e-14 -3.7549e-14 2.78311e-14 -9.09033e-14 1.28552e-13 -7.29526e-14 -2.805e-15 -7.32208e-14 -8.73881e-15 -5.84988e-14 -4.7654e-14 3.17775e-14 -1.18018e-13 3.13653e-14 -2.3632e-15 -7.0261e-14 5.87366e-14 4.71262e-14 3.5551e-14 6.31527e-14 6.44762e-14 -1.18719e-13 -6.06677e-14 6.8135e-15 -9.6179e-14 -3.25648e-14 8.13418e-14 1.12714e-13 6.2941e-14 -7.66556e-14 -1.30292e-13 4.66444e-14 1.39095e-13 -8.16861e-14 -3.76314e-14 1.97907e-14 1.23862e-13 2.24759e-14 9.75386e-15 1.07365e-13 3.82006e-14 4.48451e-14 9.11313e-14 -5.2722e-15 6.27046e-14 -6.43952e-15 0 0 -9.12529e-16 -1.08353e-15 -1.38571e-15 -4.59517e-16 3.12731e-15 7.8335e-16 3.10642e-16 -8.06154e-15 -7.33832e-15 -8.26025e-15 -1.39071e-14 -7.45142e-15 -2.88053e-14 3.79849e-15 3.78778e-15 -2.67753e-16 -1.19491e-14 -4.84566e-16 -1.25388e-14 -8.89349e-15 -2.89856e-15 -8.72025e-15 -1.47271e-14 1.73053e-15 -7.49408e-15 -2.40286e-14 -9.73674e-15 -1.20055e-14 -2.38191e-14 -1.39419e-14 -1.59302e-14 -4.94088e-14 -2.7099e-14 -7.06062e-15 -1.44914e-14 -2.10646e-14 -3.90829e-14 3.3163e-14 -1.48662e-14 1.30719e-14 2.2442e-14 -5.94061e-15 2.04753e-14 3.63716e-15 2.32955e-14 -1.52053e-14 1.92024e-14 -1.9656e-14 -7.94253e-15 1.94323e-14 -1.84264e-14 5.05281e-14 -6.65158e-14 1.95734e-14 -3.94564e-14 -6.82374e-14 -6.65315e-14 -4.93535e-14 -1.74801e-14 -2.06371e-14 -5.7253e-14 -4.81062e-14 -4.77019e-14 -1.07198e-14 -7.92367e-14 8.70751e-14 1.13364e-14 2.15988e-14 -3.48384e-14 -2.74773e-14 -4.23239e-15 5.99973e-14 -5.23536e-14 8.92501e-14 4.55975e-13 6.48257e-12 9.21645e-11 1.19457e-09 1.38734e-08 1.43154e-07 1.30118e-06 1.03108e-05 7.03252e-05 0.000406232 0.00194739 0.00756591 0.0233261 0.0567515 0.111369 0.18454 0.271787 0.370651 0.480842 0.603029 0.737065 0.876153 0.980576 0.960067 0.937203 0.926451 0.926068 0.925939 0.92588 0.925972 0.925687 0.925719 0.924016 0.924046 0.918823 0.919393 0.903514 0.905723 0.863138 0.869387 0.784424 0.777376 0.648862 0.569406 0.425942 0.296835 0.17531 0.0866658 0.0352925 0.0123687 0.003958 0.00120137 0.000351239 9.9345e-05 2.71953e-05 7.20065e-06 1.84273e-06 4.55543e-07 1.08747e-07 2.5064e-08 5.57691e-09 1.19794e-09 2.48437e-10 4.96537e-11 9.5363e-12 1.72778e-12 1.70106e-13 3.81758e-14 -1.11082e-13 -5.66322e-14 1.25369e-13 7.47346e-15 -4.96979e-15 -7.32015e-14 -1.69635e-13 6.82179e-14 -1.21803e-13 4.72277e-14 -1.0305e-14 -7.35768e-14 -5.39942e-14 1.34258e-13 -1.8158e-14 -5.94992e-14 -5.84949e-14 6.84561e-14 -1.25664e-13 -2.69591e-14 4.22918e-14 -1.95159e-13 -6.885e-14 -3.91555e-14 6.85644e-14 -3.09046e-14 9.79684e-14 -1.08072e-13 7.22836e-14 1.75097e-14 7.4483e-14 -1.09864e-13 1.02865e-13 -7.77145e-14 -1.28793e-14 4.24813e-14 -2.35564e-13 -1.09102e-15 1.23688e-13 3.52099e-14 4.64958e-14 -4.7507e-14 5.27262e-14 3.88177e-14 5.80299e-14 -2.94958e-14 -1.25256e-13 1.29803e-13 9.19307e-14 1.09291e-13 6.40217e-14 4.78936e-14 1.51408e-15 1.66047e-13 5.57433e-14 9.59116e-14 -2.46731e-14 0 0 -3.40169e-15 -3.78522e-15 -5.0197e-15 9.23612e-16 2.04505e-15 6.50726e-16 4.90293e-15 -1.04585e-14 -1.23276e-14 -1.09134e-14 -2.07563e-14 -5.8533e-15 -2.17635e-14 -1.66658e-15 1.83282e-15 1.83449e-14 -6.95118e-15 -6.17032e-15 -1.71031e-14 -3.19771e-14 1.43146e-14 7.10636e-15 -1.82363e-14 -1.24417e-14 -5.80504e-15 -2.12554e-15 -6.43999e-15 -1.9482e-14 -3.53245e-14 -2.1761e-14 -2.01435e-14 -3.11592e-14 -4.14198e-14 1.20744e-14 -2.79582e-14 -3.47444e-14 -1.91653e-14 -3.26032e-14 -2.41125e-14 2.77041e-14 2.10678e-14 4.0313e-15 3.48082e-14 1.72456e-14 2.80032e-14 4.71087e-15 -8.31161e-15 -7.85331e-15 7.46341e-16 5.12434e-15 1.44068e-14 2.13612e-14 -4.28858e-14 -2.89729e-14 -5.60466e-14 -9.35392e-14 -5.54614e-14 -5.45183e-14 1.14637e-14 -3.26965e-14 -4.56974e-14 -1.865e-14 -1.00093e-13 -3.51199e-15 -4.84658e-14 2.23154e-14 1.3301e-14 2.95469e-14 -6.70698e-15 -5.24166e-14 -3.78077e-14 2.75676e-14 -8.15167e-14 1.07105e-13 5.16634e-13 6.49735e-12 9.22282e-11 1.19456e-09 1.38734e-08 1.43154e-07 1.30118e-06 1.03108e-05 7.03252e-05 0.000406232 0.00194739 0.00756591 0.0233261 0.0567515 0.111369 0.18454 0.271787 0.370651 0.480842 0.603029 0.737065 0.876153 0.980576 0.960067 0.937203 0.926451 0.926068 0.925939 0.92588 0.925972 0.925687 0.925719 0.924016 0.924046 0.918823 0.919393 0.903514 0.905723 0.863138 0.869387 0.784424 0.777376 0.648862 0.569406 0.425942 0.296835 0.17531 0.0866658 0.0352925 0.0123687 0.003958 0.00120137 0.000351239 9.9345e-05 2.71953e-05 7.20065e-06 1.84273e-06 4.55543e-07 1.08747e-07 2.50641e-08 5.57692e-09 1.198e-09 2.48482e-10 4.95927e-11 9.56832e-12 1.53643e-12 1.71055e-13 -3.55327e-14 -3.38548e-14 -8.58825e-14 1.41445e-14 4.93326e-14 -4.70764e-14 -4.97652e-14 -4.28509e-14 -5.95304e-14 -7.29981e-14 -1.35261e-14 7.14356e-14 1.32391e-14 -2.71061e-14 5.66013e-15 1.91138e-14 -3.45604e-13 1.25246e-13 1.33515e-14 2.53569e-14 -9.19813e-14 1.57186e-14 -1.93652e-13 -6.08054e-14 1.18574e-14 9.08981e-14 1.67766e-14 8.1261e-14 -7.4485e-14 -5.65138e-14 2.76797e-14 1.2425e-14 -3.34556e-14 8.54749e-14 -3.46343e-14 1.03609e-13 -6.3695e-15 -1.17396e-13 -1.03697e-13 -6.93944e-16 1.44287e-15 1.82578e-13 -4.06418e-14 1.87662e-14 4.65291e-14 4.25726e-14 -7.54251e-14 1.35688e-14 1.19041e-13 8.77456e-14 1.06049e-13 7.26152e-14 7.74044e-14 9.01632e-14 1.57689e-13 8.47519e-14 9.38385e-14 -6.04905e-15 0 0 -6.60923e-15 -7.02304e-15 -6.2617e-15 -1.70948e-15 2.45767e-15 6.91563e-16 2.75155e-15 -1.15752e-14 -1.06974e-14 -1.20345e-14 -2.45276e-14 -2.62095e-15 -2.21858e-14 5.51624e-17 5.00117e-15 1.06682e-14 -1.86966e-15 -9.65857e-16 -1.11294e-14 -4.9336e-14 8.12408e-15 4.59357e-14 -2.18286e-14 -3.45046e-14 7.87099e-16 9.3658e-15 6.35619e-15 -2.3315e-14 -4.33519e-14 -4.90999e-15 -3.84128e-14 -3.48522e-14 -4.6765e-14 5.936e-15 -5.71282e-15 -2.51554e-14 3.47403e-15 -1.1919e-13 -1.29125e-15 2.06751e-14 3.03212e-14 -6.76455e-15 2.01717e-14 3.11001e-14 5.15157e-14 -2.85605e-14 -1.9137e-14 5.37847e-14 -1.33721e-14 7.46341e-15 2.08806e-14 3.48127e-14 -1.50491e-14 -7.28888e-14 -7.00895e-14 -8.76221e-14 -5.79834e-14 -3.23291e-14 8.34325e-15 -5.27002e-14 -4.13163e-15 -5.50286e-14 -6.8319e-14 -1.16415e-14 1.00573e-16 -5.11842e-14 2.4526e-14 -1.77431e-14 4.63455e-14 -3.3393e-14 -1.40979e-13 1.81698e-14 -1.11668e-13 7.70792e-14 5.65853e-13 6.51736e-12 9.22917e-11 1.19453e-09 1.38735e-08 1.43154e-07 1.30118e-06 1.03108e-05 7.03252e-05 0.000406232 0.00194739 0.00756591 0.0233261 0.0567515 0.111369 0.18454 0.271787 0.370651 0.480842 0.603029 0.737065 0.876153 0.980576 0.960067 0.937203 0.926451 0.926068 0.925939 0.92588 0.925972 0.925687 0.925719 0.924016 0.924046 0.918823 0.919393 0.903514 0.905723 0.863138 0.869387 0.784424 0.777376 0.648862 0.569406 0.425942 0.296835 0.17531 0.0866658 0.0352925 0.0123687 0.003958 0.00120137 0.000351239 9.9345e-05 2.71953e-05 7.20065e-06 1.84273e-06 4.55543e-07 1.08747e-07 2.5064e-08 5.5769e-09 1.19799e-09 2.48547e-10 4.96136e-11 9.5489e-12 1.44552e-12 2.2633e-13 -1.6986e-13 4.15846e-14 -9.19538e-14 -6.80112e-14 1.50975e-13 -1.10604e-13 2.92382e-14 3.7436e-14 -1.84429e-13 -1.20399e-13 -3.67357e-14 9.51522e-14 9.34248e-14 5.24594e-14 -2.3471e-13 2.15765e-14 -4.38932e-13 3.72425e-13 -6.51008e-14 7.38463e-14 -6.93979e-14 -6.32861e-14 -1.63971e-13 1.23942e-14 1.79312e-14 5.02346e-14 2.08115e-13 -2.06945e-13 2.10485e-14 7.19475e-15 -9.27585e-15 -4.86336e-14 8.49321e-14 -4.47348e-14 9.47218e-14 6.50405e-14 -1.01659e-13 1.43699e-13 -1.02662e-13 -1.6162e-13 -4.52733e-14 2.02644e-13 6.78701e-15 4.60545e-14 5.83496e-14 -2.16752e-13 8.23948e-15 1.34249e-13 2.51833e-13 -3.68759e-14 -8.27375e-15 1.57493e-13 6.21607e-14 3.20158e-13 2.89215e-15 -1.75867e-14 1.77948e-13 1.33398e-14 0
				</DataArray>
				<DataArray Name="VitesseY" type="Float32" format="ascii">