<?xml version="1.0"?>
<VTKFile type="PolyData">
	<PolyData>
		<Piece NumberOfPoints="1206" NumberOfPolys="1000">
			<Points>
				<DataArray type="Float32" NumberOfComponents="3" format="ascii">
 0 0 0 0.005 0 0 0.01 0 0 0.015 0 0 0.02 0 0 0.025 0 0 0.03 0 0 0.035 0 0 0.04 0 0 0.045 0 0 0.05 0 0 0.055 0 0 0.06 0 0 0.065 0 0 0.07 0 0 0.075 0 0 0.08 0 0 0.085 0 0 0.09 0 0 0.095 0 0 0.1 0 0 0.105 0 0 0.11 0 0 0.115 0 0 0.12 0 0 0.125 0 0 0.13 0 0 0.135 0 0 0.14 0 0 0.145 0 0 0.15 0 0 0.155 0 0 0.16 0 0 0.165 0 0 0.17 0 0 0.175 0 0 0.18 0 0 0.185 0 0 0.19 0 0 0.195 0 0 0.2 0 0 0.205 0 0 0.21 0 0 0.215 0 0 0.22 0 0 0.225 0 0 0.23 0 0 0.235 0 0 0.24 0 0 0.245 0 0 0.25 0 0 0.255 0 0 0.26 0 0 0.265 0 0 0.27 0 0 0.275 0 0 0.28 0 0 0.285 0 0 0.29 0 0 0.295 0 0 0.3 0 0 0.305 0 0 0.31 0 0 0.315 0 0 0.32 0 0 0.325 0 0 0.33 0 0 0.335 0 0 0.34 0 0 0.345 0 0 0.35 0 0 0.355 0 0 0.36 0 0 0.365 0 0 0.37 0 0 0.375 0 0 0.38 0 0 0.385 0 0 0.39 0 0 0.395 0 0 0.4 0 0 0.405 0 0 0.41 0 0 0.415 0 0 0.42 0 0 0.425 0 0 0.43 0 0 0.435002 0 0 0.440012 0 0 0.445054 0 0 0.45019 0 0 0.455534 0 0 0.461235 0 0 0.467449 0 0 0.47435 0 0 0.482153 0 0 0.49116 0 0 0.50176 0 0 0.514126 0 0 0.52684 0 0 0.539027 0 0 0.541337 0 0 0.543646 0 0 0.545956 0 0 0.548269 0 0 0.550587 0 0 0.552906 0 0 0.555223 0 0 0.557534 0 0 0.559868 0 0 0.562301 0 0 0.564826 0 0 0.567564 0 0 0.570512 0 0 0.573738 0 0 0.577324 0 0 0.581294 0 0 0.585628 0 0 0.590262 0 0 0.595094 0 0 0.60003 0 0 0.605009 0 0 0.610003 0 0 0.615001 0 0 0.62 0 0 0.625 0 0 0.63 0 0 0.635 0 0 0.64 0 0 0.645 0 0 0.65 0 0 0.655 0 0 0.66 0 0 0.665 0 0 0.67 0 0 0.675 0 0 0.68 0 0 0.685 0 0 0.69 0 0 0.695 0 0 0.7 0 0 0.705 0 0 0.71 0 0 0.715 0 0 0.72 0 0 0.725 0 0 0.73 0 0 0.735 0 0 0.74 0 0 0.745 0 0 0.75 0 0 0.755 0 0 0.76 0 0 0.765 0 0 0.77 0 0 0.775 0 0 0.78 0 0 0.785 0 0 0.79 0 0 0.795 0 0 0.8 0 0 0.805 0 0 0.81 0 0 0.815 0 0 0.82 0 0 0.825 0 0 0.83 0 0 0.835 0 0 0.84 0 0 0.845 0 0 0.85 0 0 0.855 0 0 0.86 0 0 0.865 0 0 0.87 0 0 0.875 0 0 0.88 0 0 0.885 0 0 0.89 0 0 0.895 0 0 0.9 0 0 0.905 0 0 0.91 0 0 0.915 0 0 0.92 0 0 0.925 0 0 0.93 0 0 0.935 0 0 0.94 0 0 0.945 0 0 0.95 0 0 0.955 0 0 0.96 0 0 0.965 0 0 0.97 0 0 0.975 0 0 0.98 0 0 0.985 0 0 0.99 0 0 0.995 0 0 1 0 0 0 0.02 0 0.005 0.02 0 0.01 0.02 0 0.015 0.02 0 0.02 0.02 0 0.025 0.02 0 0.03 0.02 0 0.035 0.02 0 0.04 0.02 0 0.045 0.02 0 0.05 0.02 0 0.055 0.02 0 0.06 0.02 0 0.065 0.02 0 0.07 0.02 0 0.075 0.02 0 0.08 0.02 0 0.085 0.02 0 0.09 0.02 0 0.095 0.02 0 0.1 0.02 0 0.105 0.02 0 0.11 0.02 0 0.115 0.02 0 0.12 0.02 0 0.125 0.02 0 0.13 0.02 0 0.135 0.02 0 0.14 0.02 0 0.145 0.02 0 0.15 0.02 0 0.155 0.02 0 0.16 0.02 0 0.165 0.02 0 0.17 0.02 0 0.175 0.02 0 0.18 0.02 0 0.185 0.02 0 0.19 0.02 0 0.195 0.02 0 0.2 0.02 0 0.205 0.02 0 0.21 0.02 0 0.215 0.02 0 0.22 0.02 0 0.225 0.02 0 0.23 0.02 0 0.235 0.02 0 0.24 0.02 0 0.245 0.02 0 0.25 0.02 0 0.255 0.02 0 0.26 0.02 0 0.265 0.02 0 0.27 0.02 0 0.275 0.02 0 0.28 0.02 0 0.285 0.02 0 0.29 0.02 0 0.295 0.02 0 0.3 0.02 0 0.305 0.02 0 0.31 0.02 0 0.315 0.02 0 0.32 0.02 0 0.325 0.02 0 0.33 0.02 0 0.335 0.02 0 0.34 0.02 0 0.345 0.02 0 0.35 0.02 0 0.355 0.02 0 0.36 0.02 0 0.365 0.02 0 0.37 0.02 0 0.375 0.02 0 0.38 0.02 0 0.385 0.02 0 0.39 0.02 0 0.395 0.02 0 0.4 0.02 0 0.405 0.02 0 0.41 0.02 0 0.415 0.02 0 0.42 0.02 0 0.425 0.02 0 0.43 0.02 0 0.435002 0.02 0 0.440012 0.02 0 0.445054 0.02 0 0.45019 0.02 0 0.455534 0.02 0 0.461235 0.02 0 0.467449 0.02 0 0.47435 0.02 0 0.482153 0.02 0 0.49116 0.02 0 0.50176 0.02 0 0.514126 0.02 0 0.52684 0.02 0 0.539027 0.02 0 0.541337 0.02 0 0.543646 0.02 0 0.545956 0.02 0 0.548269 0.02 0 0.550587 0.02 0 0.552906 0.02 0 0.555223 0.02 0 0.557534 0.02 0 0.559868 0.02 0 0.562301 0.02 0 0.564826 0.02 0 0.567564 0.02 0 0.570512 0.02 0 0.573738 0.02 0 0.577324 0.02 0 0.581294 0.02 0 0.585628 0.02 0 0.590262 0.02 0 0.595094 0.02 0 0.60003 0.02 0 0.605009 0.02 0 0.610003 0.02 0 0.615001 0.02 0 0.62 0.02 0 0.625 0.02 0 0.63 0.02 0 0.635 0.02 0 0.64 0.02 0 0.645 0.02 0 0.65 0.02 0 0.655 0.02 0 0.66 0.02 0 0.665 0.02 0 0.67 0.02 0 0.675 0.02 0 0.68 0.02 0 0.685 0.02 0 0.69 0.02 0 0.695 0.02 0 0.7 0.02 0 0.705 0.02 0 0.71 0.02 0 0.715 0.02 0 0.72 0.02 0 0.725 0.02 0 0.73 0.02 0 0.735 0.02 0 0.74 0.02 0 0.745 0.02 0 0.75 0.02 0 0.755 0.02 0 0.76 0.02 0 0.765 0.02 0 0.77 0.02 0 0.775 0.02 0 0.78 0.02 0 0.785 0.02 0 0.79 0.02 0 0.795 0.02 0 0.8 0.02 0 0.805 0.02 0 0.81 0.02 0 0.815 0.02 0 0.82 0.02 0 0.825 0.02 0 0.83 0.02 0 0.835 0.02 0 0.84 0.02 0 0.845 0.02 0 0.85 0.02 0 0.855 0.02 0 0.86 0.02 0 0.865 0.02 0 0.87 0.02 0 0.875 0.02 0 0.88 0.02 0 0.885 0.02 0 0.89 0.02 0 0.895 0.02 0 0.9 0.02 0 0.905 0.02 0 0.91 0.02 0 0.915 0.02 0 0.92 0.02 0 0.925 0.02 0 0.93 0.02 0 0.935 0.02 0 0.94 0.02 0 0.945 0.02 0 0.95 0.02 0 0.955 0.02 0 0.96 0.02 0 0.965 0.02 0 0.97 0.02 0 0.975 0.02 0 0.98 0.02 0 0.985 0.02 0 0.99 0.02 0 0.995 0.02 0 1 0.02 0 0 0.04 0 0.005 0.04 0 0.01 0.04 0 0.015 0.04 0 0.02 0.04 0 0.025 0.04 0 0.03 0.04 0 0.035 0.04 0 0.04 0.04 0 0.045 0.04 0 0.05 0.04 0 0.055 0.04 0 0.06 0.04 0 0.065 0.04 0 0.07 0.04 0 0.075 0.04 0 0.08 0.04 0 0.085 0.04 0 0.09 0.04 0 0.095 0.04 0 0.1 0.04 0 0.105 0.04 0 0.11 0.04 0 0.115 0.04 0 0.12 0.04 0 0.125 0.04 0 0.13 0.04 0 0.135 0.04 0 0.14 0.04 0 0.145 0.04 0 0.15 0.04 0 0.155 0.04 0 0.16 0.04 0 0.165 0.04 0 0.17 0.04 0 0.175 0.04 0 0.18 0.04 0 0.185 0.04 0 0.19 0.04 0 0.195 0.04 0 0.2 0.04 0 0.205 0.04 0 0.21 0.04 0 0.215 0.04 0 0.22 0.04 0 0.225 0.04 0 0.23 0.04 0 0.235 0.04 0 0.24 0.04 0 0.245 0.04 0 0.25 0.04 0 0.255 0.04 0 0.26 0.04 0 0.265 0.04 0 0.27 0.04 0 0.275 0.04 0 0.28 0.04 0 0.285 0.04 0 0.29 0.04 0 0.295 0.04 0 0.3 0.04 0 0.305 0.04 0 0.31 0.04 0 0.315 0.04 0 0.32 0.04 0 0.325 0.04 0 0.33 0.04 0 0.335 0.04 0 0.34 0.04 0 0.345 0.04 0 0.35 0.04 0 0.355 0.04 0 0.36 0.04 0 0.365 0.04 0 0.37 0.04 0 0.375 0.04 0 0.38 0.04 0 0.385 0.04 0 0.39 0.04 0 0.395 0.04 0 0.4 0.04 0 0.405 0.04 0 0.41 0.04 0 0.415 0.04 0 0.42 0.04 0 0.425 0.04 0 0.43 0.04 0 0.435002 0.04 0 0.440012 0.04 0 0.445054 0.04 0 0.45019 0.04 0 0.455534 0.04 0 0.461235 0.04 0 0.467449 0.04 0 0.47435 0.04 0 0.482153 0.04 0 0.49116 0.04 0 0.50176 0.04 0 0.514126 0.04 0 0.52684 0.04 0 0.539027 0.04 0 0.541337 0.04 0 0.543646 0.04 0 0.545956 0.04 0 0.548269 0.04 0 0.550587 0.04 0 0.552906 0.04 0 0.555223 0.04 0 0.557534 0.04 0 0.559868 0.04 0 0.562301 0.04 0 0.564826 0.04 0 0.567564 0.04 0 0.570512 0.04 0 0.573738 0.04 0 0.577324 0.04 0 0.581294 0.04 0 0.585628 0.04 0 0.590262 0.04 0 0.595094 0.04 0 0.60003 0.04 0 0.605009 0.04 0 0.610003 0.04 0 0.615001 0.04 0 0.62 0.04 0 0.625 0.04 0 0.63 0.04 0 0.635 0.04 0 0.64 0.04 0 0.645 0.04 0 0.65 0.04 0 0.655 0.04 0 0.66 0.04 0 0.665 0.04 0 0.67 0.04 0 0.675 0.04 0 0.68 0.04 0 0.685 0.04 0 0.69 0.04 0 0.695 0.04 0 0.7 0.04 0 0.705 0.04 0 0.71 0.04 0 0.715 0.04 0 0.72 0.04 0 0.725 0.04 0 0.73 0.04 0 0.735 0.04 0 0.74 0.04 0 0.745 0.04 0 0.75 0.04 0 0.755 0.04 0 0.76 0.04 0 0.765 0.04 0 0.77 0.04 0 0.775 0.04 0 0.78 0.04 0 0.785 0.04 0 0.79 0.04 0 0.795 0.04 0 0.8 0.04 0 0.805 0.04 0 0.81 0.04 0 0.815 0.04 0 0.82 0.04 0 0.825 0.04 0 0.83 0.04 0 0.835 0.04 0 0.84 0.04 0 0.845 0.04 0 0.85 0.04 0 0.855 0.04 0 0.86 0.04 0 0.865 0.04 0 0.87 0.04 0 0.875 0.04 0 0.88 0.04 0 0.885 0.04 0 0.89 0.04 0 0.895 0.04 0 0.9 0.04 0 0.905 0.04 0 0.91 0.04 0 0.915 0.04 0 0.92 0.04 0 0.925 0.04 0 0.93 0.04 0 0.935 0.04 0 0.94 0.04 0 0.945 0.04 0 0.95 0.04 0 0.955 0.04 0 0.96 0.04 0 0.965 0.04 0 0.97 0.04 0 0.975 0.04 0 0.98 0.04 0 0.985 0.04 0 0.99 0.04 0 0.995 0.04 0 1 0.04 0 0 0.06 0 0.005 0.06 0 0.01 0.06 0 0.015 0.06 0 0.02 0.06 0 0.025 0.06 0 0.03 0.06 0 0.035 0.06 0 0.04 0.06 0 0.045 0.06 0 0.05 0.06 0 0.055 0.06 0 0.06 0.06 0 0.065 0.06 0 0.07 0.06 0 0.075 0.06 0 0.08 0.06 0 0.085 0.06 0 0.09 0.06 0 0.095 0.06 0 0.1 0.06 0 0.105 0.06 0 0.11 0.06 0 0.115 0.06 0 0.12 0.06 0 0.125 0.06 0 0.13 0.06 0 0.135 0.06 0 0.14 0.06 0 0.145 0.06 0 0.15 0.06 0 0.155 0.06 0 0.16 0.06 0 0.165 0.06 0 0.17 0.06 0 0.175 0.06 0 0.18 0.06 0 0.185 0.06 0 0.19 0.06 0 0.195 0.06 0 0.2 0.06 0 0.205 0.06 0 0.21 0.06 0 0.215 0.06 0 0.22 0.06 0 0.225 0.06 0 0.23 0.06 0 0.235 0.06 0 0.24 0.06 0 0.245 0.06 0 0.25 0.06 0 0.255 0.06 0 0.26 0.06 0 0.265 0.06 0 0.27 0.06 0 0.275 0.06 0 0.28 0.06 0 0.285 0.06 0 0.29 0.06 0 0.295 0.06 0 0.3 0.06 0 0.305 0.06 0 0.31 0.06 0 0.315 0.06 0 0.32 0.06 0 0.325 0.06 0 0.33 0.06 0 0.335 0.06 0 0.34 0.06 0 0.345 0.06 0 0.35 0.06 0 0.355 0.06 0 0.36 0.06 0 0.365 0.06 0 0.37 0.06 0 0.375 0.06 0 0.38 0.06 0 0.385 0.06 0 0.39 0.06 0 0.395 0.06 0 0.4 0.06 0 0.405 0.06 0 0.41 0.06 0 0.415 0.06 0 0.42 0.06 0 0.425 0.06 0 0.43 0.06 0 0.435002 0.06 0 0.440012 0.06 0 0.445054 0.06 0 0.45019 0.06 0 0.455534 0.06 0 0.461235 0.06 0 0.467449 0.06 0 0.47435 0.06 0 0.482153 0.06 0 0.49116 0.06 0 0.50176 0.06 0 0.514126 0.06 0 0.52684 0.06 0 0.539027 0.06 0 0.541337 0.06 0 0.543646 0.06 0 0.545956 0.06 0 0.548269 0.06 0 0.550587 0.06 0 0.552906 0.06 0 0.555223 0.06 0 0.557534 0.06 0 0.559868 0.06 0 0.562301 0.06 0 0.564826 0.06 0 0.567564 0.06 0 0.570512 0.06 0 0.573738 0.06 0 0.577324 0.06 0 0.581294 0.06 0 0.585628 0.06 0 0.590262 0.06 0 0.595094 0.06 0 0.60003 0.06 0 0.605009 0.06 0 0.610003 0.06 0 0.615001 0.06 0 0.62 0.06 0 0.625 0.06 0 0.63 0.06 0 0.635 0.06 0 0.64 0.06 0 0.645 0.06 0 0.65 0.06 0 0.655 0.06 0 0.66 0.06 0 0.665 0.06 0 0.67 0.06 0 0.675 0.06 0 0.68 0.06 0 0.685 0.06 0 0.69 0.06 0 0.695 0.06 0 0.7 0.06 0 0.705 0.06 0 0.71 0.06 0 0.715 0.06 0 0.72 0.06 0 0.725 0.06 0 0.73 0.06 0 0.735 0.06 0 0.74 0.06 0 0.745 0.06 0 0.75 0.06 0 0.755 0.06 0 0.76 0.06 0 0.765 0.06 0 0.77 0.06 0 0.775 0.06 0 0.78 0.06 0 0.785 0.06 0 0.79 0.06 0 0.795 0.06 0 0.8 0.06 0 0.805 0.06 0 0.81 0.06 0 0.815 0.06 0 0.82 0.06 0 0.825 0.06 0 0.83 0.06 0 0.835 0.06 0 0.84 0.06 0 0.845 0.06 0 0.85 0.06 0 0.855 0.06 0 0.86 0.06 0 0.865 0.06 0 0.87 0.06 0 0.875 0.06 0 0.88 0.06 0 0.885 0.06 0 0.89 0.06 0 0.895 0.06 0 0.9 0.06 0 0.905 0.06 0 0.91 0.06 0 0.915 0.06 0 0.92 0.06 0 0.925 0.06 0 0.93 0.06 0 0.935 0.06 0 0.94 0.06 0 0.945 0.06 0 0.95 0.06 0 0.955 0.06 0 0.96 0.06 0 0.965 0.06 0 0.97
[...]
			<PointData Scalars="VitesseX">
				<DataArray Name="VitesseX" type="Float32" format="ascii">
 0 2.2983e-16 1.11911e-15 -9.26041e-17 1.78301e-15 -1.82351e-15 -2.99661e-15 7.8625e-16 2.13204e-15 1.49647e-16 1.9368e-16 -6.35464e-15 4.66899e-15 -2.59809e-17 9.87384e-15 -1.29932e-14 7.38436e-16 -3.31711e-15 9.12764e-15 -9.44535e-15 6.14497e-15 8.58675e-15 -3.4149e-15 -1.47273e-14 7.16006e-15 -9.1339e-15 8.66734e-15 1.16949e-14 -9.86176e-16 -8.66679e-15 6.75392e-15 3.53958e-15 9.04708e-15 1.41787e-15 1.00939e-14 -2.13423e-14 1.57674e-14 -1.77629e-14 1.59133e-14 -5.39253e-15 -1.75994e-14 -1.27085e-14 6.47086e-15 2.33121e-15 -3.80603e-15 -8.91118e-15 3.52647e-14 3.98586e-16 -2.94402e-14 -7.68793e-15 4.83672e-14 -6.50955e-15 -1.61692e-14 2.75925e-14 -4.18265e-14 2.78456e-14 3.22586e-14 -2.15784e-14 -2.27425e-15 -2.40994e-14 4.62199e-14 -3.78131e-14 3.07253e-14 1.47552e-14 1.55604e-14 4.85658e-14 -3.72946e-14 9.96052e-15 -4.13819e-14 4.36447e-15 4.88557e-15 -5.90644e-15 3.58906e-14 5.44143e-14 -6.0446e-14 3.18539e-15 -4.11721e-14 1.5869e-14 2.95421e-13 5.19555e-12 8.90623e-11 1.38079e-09 1.88525e-08 2.2501e-07 2.32257e-06 2.04616e-05 0.000151313 0.000919276 0.00446602 0.016853 0.0485154 0.107868 0.194342 0.302262 0.428135 0.571859 0.733752 0.904385 1.0112 0.963199 0.939525 0.938423 0.937077 0.935649 0.934082 0.932069 0.92992 0.928959 0.919929 0.879843 0.913815 0.800059 0.736472 0.680103 0.55149 0.419627 0.29012 0.171075 0.0846168 0.0345531 0.0120837 0.00381843 0.00112935 0.000317497 8.52819e-05 2.19159e-05 5.38922e-06 1.26808e-06 2.85527e-07 6.1534e-08 1.26963e-08 2.50892e-09 4.7513e-10 8.62079e-11 1.50611e-11 2.47595e-12 4.40417e-13 3.24141e-14 -4.98704e-14 -2.60068e-14 3.37095e-14 4.51285e-14 -7.39019e-15 -1.59315e-15 -3.26491e-14 1.30273e-14 -6.7975e-14 1.2265e-13 2.66526e-14 -1.04097e-14 -6.58879e-14 -8.17905e-15 5.78443e-14 -5.97169e-14 7.79504e-14 -7.40205e-14 8.08404e-14 6.58147e-14 3.67223e-14 -9.2995e-14 -1.84265e-14 9.63059e-14 -1.40558e-14 7.44189e-15 2.85175e-14 7.32929e-14 -1.17692e-13 1.80874e-14 -6.47727e-14 9.65445e-14 2.333e-14 -9.63245e-14 7.21602e-14 -5.08558e-14 -2.81679e-15 4.50687e-14 -1.48407e-13 -1.09841e-14 1.1972e-13 -1.12051e-13 -3.02332e-14 6.95231e-14 -7.42017e-14 -9.29198e-14 -3.93432e-16 1.25925e-14 3.66812e-14 1.5748e-14 1.49461e-14 -7.87314e-14 -8.25009e-14 -1.25024e-14 8.29989e-14 -7.69763e-14 4.19856e-14 -4.86274e-15 -4.79506e-14 1.23593e-13 -1.1357e-13 7.26673e-14 0 0 -3.23733e-16 -2.08976e-16 -1.4231e-15 -5.64806e-16 -2.00912e-16 1.73572e-15 -5.52595e-16 5.86374e-15 -6.00142e-15 2.94797e-17 3.15806e-15 -6.27885e-15 9.03771e-15 -2.91329e-15 -5.86199e-16 -3.19921e-15 -4.40595e-15 1.16751e-16 5.87853e-15 2.02564e-15 8.00428e-15 -8.38567e-16 -1.14598e-14 -1.1191e-14 -7.89037e-15 2.24542e-14 2.41359e-14 -2.18763e-14 1.50314e-14 -2.09736e-14 1.10927e-14 1.88812e-14 1.55222e-14 -1.92656e-14 3.60208e-16 -5.53149e-15 -9.56596e-15 7.75566e-15 -6.65499e-15 -8.83985e-15 -1.15408e-16 1.3036e-15 -6.42744e-15 9.13724e-15 1.1174e-14 -8.08774e-15 4.82181e-15 -1.82037e-14 -8.29772e-15 3.39434e-14 2.1003e-14 1.02873e-14 -2.30252e-14 -2.13777e-14 1.99595e-14 2.64669e-14 -1.54804e-14 -3.9843e-15 8.3406e-15 4.48214e-14 -4.35251e-14 1.50003e-14 -1.08727e-14 3.80218e-14 4.70708e-14 -2.62961e-14 -9.95775e-15 -2.33574e-14 6.99392e-15 5.12811e-16 -2.39391e-14 4.17691e-14 1.55558e-14 2.81366e-14 -2.40848e-14 -8.28048e-15 -3.61777e-15 2.85197e-13 5.17666e-12 8.90894e-11 1.38076e-09 1.88525e-08 2.2501e-07 2.32257e-06 2.04616e-05 0.000151313 0.000919276 0.00446602 0.016853 0.0485154 0.107868 0.194342 0.302262 0.428135 0.571859 0.733752 0.904385 1.0112 0.963199 0.939525 0.938423 0.937077 0.935649 0.934082 0.932069 0.92992 0.928959 0.919929 0.879843 0.913815 0.800059 0.736472 0.680103 0.55149 0.419627 0.29012 0.171075 0.0846168 0.0345531 0.0120837 0.00381843 0.00112935 0.000317497 8.52819e-05 2.19159e-05 5.38922e-06 1.26808e-06 2.85527e-07 6.1534e-08 1.26963e-08 2.50894e-09 4.75122e-10 8.62121e-11 1.50279e-11 2.50724e-12 4.46035e-13 2.16764e-14 -2.93761e-14 -4.85548e-14 6.69704e-14 3.37599e-14 -5.958e-14 -7.60261e-15 5.77308e-14 -1.06646e-13 6.71776e-14 4.57936e-14 6.83214e-14 -6.84847e-14 -4.19321e-14 2.12246e-14 -3.96135e-14 7.97138e-14 -8.94643e-14 1.21234e-13 -1.97787e-14 8.23892e-14 -8.6436e-14 3.33694e-14 3.28889e-14 -1.96361e-14 2.74456e-14 7.87887e-14 7.19502e-14 -8.34646e-15 -8.4698e-14 -4.86031e-14 -8.10803e-15 6.15459e-15 2.92437e-14 8.31522e-16 -7.03611e-14 2.26045e-14 -6.12973e-14 2.6789e-14 3.46082e-14 -8.57386e-14 -8.09066e-14 1.56829e-14 1.38705e-13 -8.75467e-14 -6.64503e-14 -5.87369e-14 -3.93712e-14 9.34399e-14 -1.42774e-14 1.67539e-14 -1.03624e-14 -1.32232e-13 4.61301e-14 4.26249e-15 -4.40217e-14 -2.44505e-14 3.91316e-14 3.42634e-14 -2.76032e-14 -2.20819e-14 -1.6733e-14 3.24875e-14 0 0 -9.11151e-16 -1.58422e-15 -1.36989e-15 -1.93744e-15 2.89263e-15 2.8003e-15 5.28057e-15 -2.75312e-15 -3.96634e-15 -3.06839e-15 1.07924e-15 3.20313e-15 3.48952e-15 -5.23018e-15 7.61129e-15 -9.04047e-15 7.5734e-15 -5.62373e-15 1.06636e-14 7.66519e-15 -7.7589e-15 4.37436e-16 -7.52771e-15 -5.09484e-15 -4.72877e-15 1.59434e-14 2.2843e-14 -1.41106e-14 1.14679e-14 -2.11111e-14 3.12898e-15 2.07829e-14 1.01154e-14 -3.07984e-14 1.05153e-14 -1.23912e-14 2.07955e-14 -6.13316e-15 -1.29341e-14 -4.55023e-15 1.56805e-14 -4.35246e-15 9.02765e-16 1.76617e-14 -2.45225e-14 1.82522e-15 -1.49591e-14 1.14738e-14 2.1552e-14 1.35562e-14 4.23903e-14 -3.26931e-14 3.92255e-14 -4.85041e-14 2.97824e-14 -2.03836e-14 -2.16614e-15 3.25964e-14 3.07929e-14 -7.21928e-15 -5.0862e-14 4.75053e-14 -3.32112e-14 5.74731e-14 1.76193e-14 -6.33934e-14 2.65413e-14 -8.3763e-16 6.56722e-14 -4.4513e-14 9.51948e-15 2.89808e-14 -1.27053e-14 4.73186e-14 -5.87553e-14 5.82889e-14 -3.52919e-14 2.7829e-13 5.09644e-12 8.92344e-11 1.38063e-09 1.88525e-08 2.2501e-07 2.32257e-06 2.04616e-05 0.000151313 0.000919276 0.00446602 0.016853 0.0485154 0.107868 0.194342 0.302262 0.428135 0.571859 0.733752 0.904385 1.0112 0.963199 0.939525 0.938423 0.937077 0.935649 0.934082 0.932069 0.92992 0.928959 0.919929 0.879843 0.913815 0.800059 0.736472 0.680103 0.55149 0.419627 0.29012 0.171075 0.0846168 0.0345531 0.0120837 0.00381843 0.00112935 0.000317497 8.52819e-05 2.19159e-05 5.38922e-06 1.26808e-06 2.85527e-07 6.1534e-08 1.26963e-08 2.50897e-09 4.75084e-10 8.62519e-11 1.50485e-11 2.45883e-12 4.46687e-13 -6.18011e-14 5.82831e-14 5.23512e-14 3.54372e-14 -1.64709e-16 -1.29679e-13 1.28096e-14 1.2622e-13 -3.90513e-14 8.28297e-17 1.12931e-13 -4.60008e-14 5.75873e-14 -1.09279e-13 -3.76409e-14 3.57889e-14 5.37548e-14 -6.52871e-14 9.67419e-14 -5.53289e-14 1.74376e-13 -1.09641e-13 -1.0996e-13 4.87552e-14 1.71199e-14 1.30859e-13 -4.24771e-15 6.0174e-14 -1.67359e-14 -4.23786e-14 1.16348e-13 4.44161e-15 -6.82163e-14 9.14923e-14 -7.56529e-14 -1.08872e-13 6.50759e-14 -1.37979e-13 9.47133e-14 -2.26432e-15 -1.23423e-13 -7.50679e-14 7.28355e-14 9.17334e-14 -5.23759e-14 -1.54273e-13 -7.43098e-14 2.49828e-14 1.9652e-14 3.70601e-14 -5.38984e-14 -1.26676e-14 -8.42411e-14 -2.07162e-15 5.76711e-14 -1.55048e-14 -4.59796e-14 1.80431e-14 5.97677e-14 -6.21562e-14 -9.5133e-14 1.0088e-13 -7.12377e-14 0 0 2.59923e-16 1.42547e-16 3.19046e-16 2.06849e-15 -1.68965e-15 -2.94243e-15 7.67841e-15 -5.04902e-15 -4.27558e-15 -3.89385e-15 1.0806e-15 7.11535e-15 4.85676e-15 -8.50452e-15 3.96725e-15 -4.06208e-15 9.36233e-15 8.86306e-16 -1.55457e-15 1.18134e-14 -1.30158e-14 -3.58834e-15 -5.39114e-15 -3.185e-15 7.34007e-15 9.88655e-15 8.86806e-15 -1.32098e-15 1.89236e-15 1.33231e-14 -2.49319e-14 6.01064e-15 -1.79395e-14 2.1024e-14 -1.92742e-14 1.16951e-14 2.86583e-14 2.93156e-14 -3.89762e-14 -2.34699e-14 3.5542e-14 -2.45578e-15 -1.02147e-14 -8.29821e-15 8.45518e-16 -2.31956e-14 2.25188e-14 1.23098e-14 3.38558e-15 3.96225e-14 2.98301e-14 -2.66946e-14 5.6385e-14 -3.65817e-14 -5.32606e-14 3.20044e-14 -1.87528e-14 3.9795e-14 3.50202e-14 -5.55873e-14 -5.40682e-16 3.17857e-14 1.83681e-14 4.87183e-14 -7.0977e-14 -3.74031e-14 4.89192e-14 1.89467e-14 8.48479e-14 -5.52892e-14 3.21767e-14 5.2191e-14 1.05887e-14 -4.77991e-14 -3.52875e-14 1.4153e-14 6.82236e-14 2.92859e-13 5.00476e-12 8.92462e-11 1.38061e-09 1.88525e-08 2.2501e-07 2.32257e-06 2.04616e-05 0.000151313 0.000919276 0.00446602 0.016853 0.0485154 0.107868 0.194342 0.302262 0.428135 0.571859 0.733752 0.904385 1.0112 0.963199 0.939525 0.938423 0.937077 0.935649 0.934082 0.932069 0.92992 0.928959 0.919929 0.879843 0.913815 0.800059 0.736472 0.680103 0.55149 0.419627 0.29012 0.171075 0.0846168 0.0345531 0.0120837 0.00381843 0.00112935 0.000317497 8.52819e-05 2.19159e-05 5.38922e-06 1.26808e-06 2.85527e-07 6.1534e-08 1.26962e-08 2.50908e-09 4.75128e-10 8.6278e-11 1.49682e-11 2.54731e-12 2.62373e-13 -5.32197e-14 1.15487e-13 1.62852e-13 -4.3545e-14 -3.62591e-14 -6.16145e-14 8.17387e-14 -9.33246e-16 -4.14531e-14 5.61282e-14 1.39874e-13 -8.80292e-14 4.95835e-14 -3.02631e-14 -1.09392e-13 1.39332e-13 -6.61114e-15 3.83524e-14 -1.25687e-13 9.42094e-14 8.36154e-14 1.50413e-13 5.9867e-14 -1.01177e-13 -2.08226e-13 1.48391e-13 -4.96996e-15 6.30515e-14 1.22087e-14 2.80828e-14 6.19566e-14 -7.51236e-14 3.76478e-14 7.01977e-14 -1.495e-13 -1.4092e-15 8.62984e-14 -5.51841e-15 -1.87608e-13 7.76191e-14 -1.79789e-13 2.00435e-14 1.22333e-13 -6.11142e-14 -1.6259e-14 -2.87097e-13 -4.27003e-14 1.64923e-13 -1.13114e-14 -9.00294e-14 -5.4365e-14 -1.03547e-14 1.58762e-13 -2.18847e-13 -7.10236e-14 2.34831e-13 1.63645e-14 -1.85024e-14 5.52621e-14 -1.12053e-13 -4.24843e-14 1.29518e-13 -1.87741e-13 0 0 1.25622e-15 3.19829e-15 3.9289e-15 4.61428e-15 -3.25343e-15 -3.72618e-15 -1.43129e-15 1.10492e-14 -7.8898e-15 -6.55103e-15 5.05439e-15 -2.98765e-15 2.27482e-14 8.32507e-16 -7.89123e-15 -4.4033e-15 1.21102e-14 -1.52092e-14 -3.06848e-15 -3.26057e-15 1.13371e-15 -7.69925e-15 -5.2629e-15 1.3421e-15 4.85975e-15 1.1523e-14 -5.28433e-16 1.11258e-15 -1.37811e-15 8.78279e-15 -1.58827e-14 2.03687e-14 -2.65144e-14 2.0645e-14 1.98567e-15 3.47985e-15 -2.83037e-15 3.92736e-14 2.95524e-14 -3.57984e-14 2.79567e-14 -1.91815e-14 -1.9669e-14 -3.73251e-16 -4.42421e-15 -7.69721e-15 1.26597e-15 -1.05878e-14 4.51623e-14 2.24859e-14 1.43642e-14 -1.95164e-14 -3.03107e-14 4.03388e-14 -1.01908e-13 5.12319e-14 -3.33761e-15 2.95522e-14 4.58733e-14 -5.46586e-14 5.44903e-14 -2.02802e-15 2.12112e-14 -9.12108e-15 -3.43898e-14 2.41856e-14 3.30159e-14 2.67183e-14 5.46498e-15 4.59051e-16 1.47087e-14 5.96564e-14 1.48195e-15 -5.49836e-14 6.01702e-15 -1.05888e-14 9.5674e-14 3.39422e-13 4.99148e-12 8.91599e-11 1.38069e-09 1.88525e-08 2.2501e-07 2.32257e-06 2.04616e-05 0.000151313 0.000919276 0.00446602 0.016853 0.0485154 0.107868 0.194342 0.302262 0.428135 0.571859 0.733752 0.904385 1.0112 0.963199 0.939525 0.938423 0.937077 0.935649 0.934082 0.932069 0.92992 0.928959 0.919929 0.879843 0.913815 0.800059 0.736472 0.680103 0.55149 0.419627 0.29012 0.171075 0.0846168 0.0345531 0.0120837 0.00381843 0.00112935 0.000317497 8.52819e-05 2.19159e-05 5.38922e-06 1.26808e-06 2.85527e-07 6.15339e-08 1.26963e-08 2.5091e-09 4.75119e-10 8.62558e-11 1.50233e-11 2.63276e-12 1.05005e-13 8.10969e-14 3.66465e-14 1.49832e-13 -1.36312e-13 1.84322e-14 8.87267e-14 -4.79174e-14 3.54912e-14 -1.0633e-13 7.07899e-15 -8.37687e-15 3.9702e-14 9.61392e-14 4.0184e-14 -4.80006e-15 -4.20675e-14 2.85278e-14 -3.10602e-14 1.90262e-14 6.40917e-14 1.08946e-13 7.14642e-14 1.71365e-13 -2.88187e-14 -1.48652e-13 1.04961e-13 -2.48505e-14 -6.93164e-14 2.6209e-14 1.55763e-15 1.65494e-13 -1.73373e-13 -6.33406e-14 1.351e-13 -4.42858e-16 1.18798e-13 -2.25107e-14 3.95214e-14 -4.26933e-13 1.47733e-13 7.0312e-14 -5.8938e-15 7.0856e-14 -1.37206e-13 -1.02181e-13 -1.67294e-13 1.25059e-13 9.01331e-15 -2.41948e-14 -1.29998e-13 7.37256e-15 5.06235e-14 7.54292e-14 -1.39175e-13 -1.34733e-13 1.51082e-13 -2.27425e-14 2.29624e-14 -8.57569e-14 -1.43485e-13 3.87816e-14 8.66541e-14 -1.81865e-13 0 0 1.04759e-15 4.48012e-15 7.23352e-15 4.12933e-15 1.23601e-15 -2.43494e-15 -5.76683e-15 1.70947e-14 -3.00865e-15 -1.13164e-14 -2.56471e-15 3.42693e-15 2.46606e-14 2.39141e-14 -2.03152e-14 -1.16265e-14 2.61374e-14 -3.45443e-14 -2.90313e-15 -1.27239e-14 5.35936e-15 -9.08471e-15 -6.60664e-15 2.84066e-14 -7.77133e-15 -1.08136e-15 -9.68395e-15 1.94124e-14 -2.23348e-14 -2.60186e-15 5.71057e-15 4.15667e-14 -2.65455e-14 -1.37299e-14 4.14878e-14 -1.43824e-14 -2.00174e-14 8.0515e-15 1.19106e-13 -3.36773e-14 3.71259e-15 -3.82927e-14 -1.917e-15 2.90928e-14 -9.08437e-14 8.60874e-14 -8.1669e-14 -1.58805e-14 1.35565e-13 -2.66805e-14 5.33315e-15 -8.77734e-14 -2.12974e-14 5.77617e-14 -4.98045e-14 -2.29874e-14 3.58805e-14 5.04016e-14 4.25113e-14 -5.6004e-14 5.7575e-14 2.81079e-14 -2.42356e-14 -6.12157e-14 6.28373e-14 1.1688e-14 5.11521e-14 1.92009e-14 -3.70448e-14 2.63305e-14 2.60747e-14 2.52448e-14 -2.03213e-14 -3.64511e-14 1.64534e-14 4.2483e-14 7.42168e-15 3.74733e-13 5.00854e-12 8.91798e-11 1.3807e-09 1.88524e-08 2.2501e-07 2.32257e-06 2.04616e-05 0.000151313 0.000919276 0.00446602 0.016853 0.0485154 0.107868 0.194342 0.302262 0.428135 0.571859 0.733752 0.904385 1.0112 0.963199 0.939525 0.938423 0.937077 0.935649 0.934082 0.932069 0.92992 0.928959 0.919929 0.879843 0.913815 0.800059 0.736472 0.680103 0.55149 0.419627 0.29012 0.171075 0.0846168 0.0345531 0.0120837 0.00381843 0.00112935 0.000317497 8.52819e-05 2.19159e-05 5.38922e-06 1.26808e-06 2.85527e-07 6.15339e-08 1.26964e-08 2.50902e-09 4.75035e-10 8.62432e-11 1.5212e-11 2.54999e-12 1.26952e-13 1.3369e-13 -3.2366e-14 1.49871e-13 -2.14757e-13 8.7025e-14 1.53124e-13 -2.20354e-13 1.77077e-13 1.84378e-14 -3.00374e-13 -3.96684e-14 5.36041e-14 3.35007e-13 -5.95689e-14 8.32735e-14 -1.54109e-13 -4.14377e-14 -1.28811e-14 1.66232e-13 -5.05201e-14 3.00729e-13 -1.67677e-13 -1.56985e-13 1.5781e-13 2.88674e-13 1.05868e-13 -1.98182e-13 -2.59851e-13 8.44433e-14 -8.56788e-14 5.5533e-13 -2.36144e-13 -2.54235e-13 2.77779e-13 4.90518e-14 2.35373e-13 -1.83811e-13 -6.61063e-14 -2.976e-13 -8.20185e-14 4.13535e-13 7.93704e-14 -1.00603e-13 -2.76331e-13 -3.19814e-14 -1.03961e-14 2.11118e-13 -1.83395e-13 -1.60569e-13 5.96743e-14 -1.73255e-15 1.3221e-13 -1.49755e-13 -1.96319e-14 -3.30098e-14 -2.76207e-14 -1.98306e-13 8.27768e-14 -2.35819e-13 -1.7969e-13 1.40159e-13 3.5686e-14 -1.23232e-13 0
				</DataArray>
				<DataArray Name="VitesseY" type="Float32" format="ascii">