<?xml version="1.0"?>
<VTKFile type="PolyData">
	<PolyData>
		<Piece NumberOfPoints="1206" NumberOfPolys="1000">
			<Points>
				<DataArray type="Float32" NumberOfComponents="3" format="ascii">
 0 0 0 0.005 0 0 0.01 0 0 0.015 0 0 0.02 0 0 0.025 0 0 0.03 0 0 0.035 0 0 0.04 0 0 0.045 0 0 0.05 0 0 0.055 0 0 0.06 0 0 0.065 0 0 0.07 0 0 0.075 0 0 0.08 0 0 0.085 0 0 0.09 0 0 0.095 0 0 0.1 0 0 0.105 0 0 0.11 0 0 0.115 0 0 0.12 0 0 0.125 0 0 0.13 0 0 0.135 0 0 0.14 0 0 0.145 0 0 0.15 0 0 0.155 0 0 0.16 0 0 0.165 0 0 0.17 0 0 0.175 0 0 0.18 0 0 0.185 0 0 0.19 0 0 0.195 0 0 0.2 0 0 0.205 0 0 0.21 0 0 0.215 0 0 0.22 0 0 0.225 0 0 0.23 0 0 0.235 0 0 0.24 0 0 0.245 0 0 0.25 0 0 0.255 0 0 0.26 0 0 0.265 0 0 0.27 0 0 0.275 0 0 0.28 0 0 0.285 0 0 0.29 0 0 0.295 0 0 0.3 0 0 0.305 0 0 0.31 0 0 0.315001 0 0 0.320005 0 0 0.325013 0 0 0.330036 0 0 0.335086 0 0 0.340183 0 0 0.345354 0 0 0.350622 0 0 0.356009 0 0 0.361533 0 0 0.36721 0 0 0.373052 0 0 0.379075 0 0 0.385292 0 0 0.39172 0 0 0.398376 0 0 0.405279 0 0 0.412451 0 0 0.419917 0 0 0.427703 0 0 0.435843 0 0 0.444372 0 0 0.453332 0 0 0.462769 0 0 0.472737 0 0 0.483293 0 0 0.494484 0 0 0.506318 0 0 0.51864 0 0 0.530995 0 0 0.543199 0 0 0.555251 0 0 0.567185 0 0 0.579051 0 0 0.590884 0 0 0.602705 0 0 0.614519 0 0 0.626338 0 0 0.628618 0 0 0.630899 0 0 0.63318 0 0 0.63546 0 0 0.63774 0 0 0.64002 0 0 0.642297 0 0 0.644576 0 0 0.646856 0 0 0.649133 0 0 0.651411 0 0 0.653691 0 0 0.655971 0 0 0.65825 0 0 0.660527 0 0 0.662805 0 0 0.665084 0 0 0.667364 0 0 0.669645 0 0 0.671925 0 0 0.674206 0 0 0.676489 0 0 0.678772 0 0 0.681055 0 0 0.683336 0 0 0.685617 0 0 0.687898 0 0 0.690181 0 0 0.692463 0 0 0.694743 0 0 0.697024 0 0 0.699307 0 0 0.70159 0 0 0.703872 0 0 0.706155 0 0 0.708438 0 0 0.710721 0 0 0.713001 0 0 0.715281 0 0 0.717591 0 0 0.719964 0 0 0.722435 0 0 0.725017 0 0 0.727775 0 0 0.73074 0 0 0.733999 0 0 0.737585 0 0 0.74153 0 0 0.745816 0 0 0.750391 0 0 0.75517 0 0 0.760069 0 0 0.765027 0 0 0.77001 0 0 0.775004 0 0 0.780001 0 0 0.785001 0 0 0.79 0 0 0.795 0 0 0.8 0 0 0.805 0 0 0.81 0 0 0.815 0 0 0.82 0 0 0.825 0 0 0.83 0 0 0.835 0 0 0.84 0 0 0.845 0 0 0.85 0 0 0.855 0 0 0.86 0 0 0.865 0 0 0.87 0 0 0.875 0 0 0.88 0 0 0.885 0 0 0.89 0 0 0.895 0 0 0.9 0 0 0.905 0 0 0.91 0 0 0.915 0 0 0.92 0 0 0.925 0 0 0.93 0 0 0.935 0 0 0.94 0 0 0.945 0 0 0.95 0 0 0.955 0 0 0.96 0 0 0.965 0 0 0.97 0 0 0.975 0 0 0.98 0 0 0.985 0 0 0.99 0 0 0.995 0 0 1 0 0 0 0.02 0 0.005 0.02 0 0.01 0.02 0 0.015 0.02 0 0.02 0.02 0 0.025 0.02 0 0.03 0.02 0 0.035 0.02 0 0.04 0.02 0 0.045 0.02 0 0.05 0.02 0 0.055 0.02 0 0.06 0.02 0 0.065 0.02 0 0.07 0.02 0 0.075 0.02 0 0.08 0.02 0 0.085 0.02 0 0.09 0.02 0 0.095 0.02 0 0.1 0.02 0 0.105 0.02 0 0.11 0.02 0 0.115 0.02 0 0.12 0.02 0 0.125 0.02 0 0.13 0.02 0 0.135 0.02 0 0.14 0.02 0 0.145 0.02 0 0.15 0.02 0 0.155 0.02 0 0.16 0.02 0 0.165 0.02 0 0.17 0.02 0 0.175 0.02 0 0.18 0.02 0 0.185 0.02 0 0.19 0.02 0 0.195 0.02 0 0.2 0.02 0 0.205 0.02 0 0.21 0.02 0 0.215 0.02 0 0.22 0.02 0 0.225 0.02 0 0.23 0.02 0 0.235 0.02 0 0.24 0.02 0 0.245 0.02 0 0.25 0.02 0 0.255 0.02 0 0.26 0.02 0 0.265 0.02 0 0.27 0.02 0 0.275 0.02 0 0.28 0.02 0 0.285 0.02 0 0.29 0.02 0 0.295 0.02 0 0.3 0.02 0 0.305 0.02 0 0.31 0.02 0 0.315001 0.02 0 0.320005 0.02 0 0.325013 0.02 0 0.330036 0.02 0 0.335086 0.02 0 0.340183 0.02 0 0.345354 0.02 0 0.350622 0.02 0 0.356009 0.02 0 0.361533 0.02 0 0.36721 0.02 0 0.373052 0.02 0 0.379075 0.02 0 0.385292 0.02 0 0.39172 0.02 0 0.398376 0.02 0 0.405279 0.02 0 0.412451 0.02 0 0.419917 0.02 0 0.427703 0.02 0 0.435843 0.02 0 0.444372 0.02 0 0.453332 0.02 0 0.462769 0.02 0 0.472737 0.02 0 0.483293 0.02 0 0.494484 0.02 0 0.506318 0.02 0 0.51864 0.02 0 0.530995 0.02 0 0.543199 0.02 0 0.555251 0.02 0 0.567185 0.02 0 0.579051 0.02 0 0.590884 0.02 0 0.602705 0.02 0 0.614519 0.02 0 0.626338 0.02 0 0.628618 0.02 0 0.630899 0.02 0 0.63318 0.02 0 0.63546 0.02 0 0.63774 0.02 0 0.64002 0.02 0 0.642297 0.02 0 0.644576 0.02 0 0.646856 0.02 0 0.649133 0.02 0 0.651411 0.02 0 0.653691 0.02 0 0.655971 0.02 0 0.65825 0.02 0 0.660527 0.02 0 0.662805 0.02 0 0.665084 0.02 0 0.667364 0.02 0 0.669645 0.02 0 0.671925 0.02 0 0.674206 0.02 0 0.676489 0.02 0 0.678772 0.02 0 0.681055 0.02 0 0.683336 0.02 0 0.685617 0.02 0 0.687898 0.02 0 0.690181 0.02 0 0.692463 0.02 0 0.694743 0.02 0 0.697024 0.02 0 0.699307 0.02 0 0.70159 0.02 0 0.703872 0.02 0 0.706155 0.02 0 0.708438 0.02 0 0.710721 0.02 0 0.713001 0.02 0 0.715281 0.02 0 0.717591 0.02 0 0.719964 0.02 0 0.722435 0.02 0 0.725017 0.02 0 0.727775 0.02 0 0.73074 0.02 0 0.733999 0.02 0 0.737585 0.02 0 0.74153 0.02 0 0.745816 0.02 0 0.750391 0.02 0 0.75517 0.02 0 0.760069 0.02 0 0.765027 0.02 0 0.77001 0.02 0 0.775004 0.02 0 0.780001 0.02 0 0.785001 0.02 0 0.79 0.02 0 0.795 0.02 0 0.8 0.02 0 0.805 0.02 0 0.81 0.02 0 0.815 0.02 0 0.82 0.02 0 0.825 0.02 0 0.83 0.02 0 0.835 0.02 0 0.84 0.02 0 0.845 0.02 0 0.85 0.02 0 0.855 0.02 0 0.86 0.02 0 0.865 0.02 0 0.87 0.02 0 0.875 0.02 0 0.88 0.02 0 0.885 0.02 0 0.89 0.02 0 0.895 0.02 0 0.9 0.02 0 0.905 0.02 0 0.91 0.02 0 0.915 0.02 0 0.92 0.02 0 0.925 0.02 0 0.93 0.02 0 0.935 0.02 0 0.94 0.02 0 0.945 0.02 0 0.95 0.02 0 0.955 0.02 0 0.96 0.02 0 0.965 0.02 0 0.97 0.02 0 0.975 0.02 0 0.98 0.02 0 0.985 0.02 0 0.99 0.02 0 0.995 0.02 0 1 0.02 0 0 0.04 0 0.005 0.04 0 0.01 0.04 0 0.015 0.04 0 0.02 0.04 0 0.025 0.04 0 0.03 0.04 0 0.035 0.04 0 0.04 0.04 0 0.045 0.04 0 0.05 0.04 0 0.055 0.04 0 0.06 0.04 0 0.065 0.04 0 0.07 0.04 0 0.075 0.04 0 0.08 0.04 0 0.085 0.04 0 0.09 0.04 0 0.095 0.04 0 0.1 0.04 0 0.105 0.04 0 0.11 0.04 0 0.115 0.04 0 0.12 0.04 0 0.125 0.04 0 0.13 0.04 0 0.135 0.04 0 0.14 0.04 0 0.145 0.04 0 0.15 0.04 0 0.155 0.04 0 0.16 0.04 0 0.165 0.04 0 0.17 0.04 0 0.175 0.04 0 0.18 0.04 0 0.185 0.04 0 0.19 0.04 0 0.195 0.04 0 0.2 0.04 0 0.205 0.04 0 0.21 0.04 0 0.215 0.04 0 0.22 0.04 0 0.225 0.04 0 0.23 0.04 0 0.235 0.04 0 0.24 0.04 0 0.245 0.04 0 0.25 0.04 0 0.255 0.04 0 0.26 0.04 0 0.265 0.04 0 0.27 0.04 0 0.275 0.04 0 0.28 0.04 0 0.285 0.04 0 0.29 0.04 0 0.295 0.04 0 0.3 0.04 0 0.305 0.04 0 0.31 0.04 0 0.315001 0.04 0 0.320005 0.04 0 0.325013 0.04 0 0.330036 0.04 0 0.335086 0.04 0 0.340183 0.04 0 0.345354 0.04 0 0.350622 0.04 0 0.356009 0.04 0 0.361533 0.04 0 0.36721 0.04 0 0.373052 0.04 0 0.379075 0.04 0 0.385292 0.04 0 0.39172 0.04 0 0.398376 0.04 0 0.405279 0.04 0 0.412451 0.04 0 0.419917 0.04 0 0.427703 0.04 0 0.435843 0.04 0 0.444372 0.04 0 0.453332 0.04 0 0.462769 0.04 0 0.472737 0.04 0 0.483293 0.04 0 0.494484 0.04 0 0.506318 0.04 0 0.51864 0.04 0 0.530995 0.04 0 0.543199 0.04 0 0.555251 0.04 0 0.567185 0.04 0 0.579051 0.04 0 0.590884 0.04 0 0.602705 0.04 0 0.614519 0.04 0 0.626338 0.04 0 0.628618 0.04 0 0.630899 0.04 0 0.63318 0.04 0 0.63546 0.04 0 0.63774 0.04 0 0.64002 0.04 0 0.642297 0.04 0 0.644576 0.04 0 0.646856 0.04 0 0.649133 0.04 0 0.651411 0.04 0 0.653691 0.04 0 0.655971 0.04 0 0.65825 0.04 0 0.660527 0.04 0 0.662805 0.04 0 0.665084 0.04 0 0.667364 0.04 0 0.669645 0.04 0 0.671925 0.04 0 0.674206 0.04 0 0.676489 0.04 0 0.678772 0.04 0 0.681055 0.04 0 0.683336 0.04 0 0.685617 0.04 0 0.687898 0.04 0 0.690181 0.04 0 0.692463 0.04 0 0.694743 0.04 0 0.697024 0.04 0 0.699307 0.04 0 0.70159 0.04 0 0.703872 0.04 0 0.706155 0.04 0 0.708438 0.04 0 0.710721 0.04 0 0.713001 0.04 0 0.715281 0.04 0 0.717591 0.04 0 0.719964 0.04 0 0.722435 0.04 0 0.725017 0.04 0 0.727775 0.04 0 0.73074 0.04 0 0.733999 0.04 0 0.737585 0.04 0 0.74153 0.04 0 0.745816 0.04 0 0.750391 0.04 0 0.75517 0.04 0 0.760069 0.04 0 0.765027 0.04 0 0.77001 0.04 0 0.775004 0.04 0 0.780001 0.04 0 0.785001 0.04 0 0.79 0.04 0 0.795 0.04 0 0.8 0.04 0 0.805 0.04 0 0.81 0.04 0 0.815 0.04 0 0.82 0.04 0 0.825 0.04 0 0.83 0.04 0 0.835 0.04 0 0.84 0.04 0 0.845 0.04 0 0.85 0.04 0 0.855 0.04 0 0.86 0.04 0 0.865 0.04 0 0.87 0.04 0 0.875 0.04 0 0.88 0.04 0 0.885 0.04 0 0.89 0.04 0 0.895 0.04 0 0.9 0.04 0 0.905 0.04 0 0.91 0.04 0 0.915 0.04 0 0.92 0.04 0 0.925 0.04 0 0.93 0.04 0 0.935 0.04 0 0.94 0.04 0 0.945 0.04 0 0.95 0.04 0 0.955 0.04 0 0.96 0.04 0 0.965 0.04 0 0.97 0.04 0 0.975 0.04 0 0.98 0.04 0 0.985 0.04 0 0.99 0.04 0 0.995 0.04 0 1 0.04 0 0 0.06 0 0.005 0.06 0 0.01 0.06 0 0.015 0.06 0 0.02 0.06 0 0.025 0.06 0 0.03 0.06 0 0.035 0.06 0 0.04 0.06 0 0.045 0.06 0 0.05 0.06 0 0.055 0.06 0 0.06 0.06 0 0.065 0.06 0 0.07 0.06 0 0.075 0.06 0 0.08 0.06 0 0.085 0.06 0 0.09 0.06 0 0.095 0.06 0 0.1 0.06 0 0.105 0.06 0 0.11 0.06 0 0.115 0.06 0 0.12 0.06 0 0.125 0.06 0 0.13 0.06 0 0.135 0.06 0 0.14 0.06 0 0.145 0.06 0 0.15 0.06 0 0.155 0.06 0 0.16 0.06 0 0.165 0.06 0 0.17 0.06 0 0.175 0.06 0 0.18 0.06 0 0.185 0.06 0 0.19 0.06 0 0.195 0.06 0 0.2 0.06 0 0.205 0.06 0 0.21 0.06 0 0.215 0.06 0 0.22 0.06 0 0.225 0.06 0 0.23 0.06 0 0.235 0.06 0 0.24 0.06 0 0.245 0.06 0 0.25 0.06 0 0.255 0.06 0 0.26 0.06 0 0.265 0.06 0 0.27 0.06 0 0.275 0.06 0 0.28 0.06 0 0.285 0.06 0 0.29 0.06 0 0.295 0.06 0 0.3 0.06 0 0.305 0.06 0 0.31 0.06 0 0.315001 0.06 0 0.320005 0.06 0 0.325013 0.06 0 0.330036 0.06 0 0.335086 0.06 0 0.340183 0.06 0 0.345354 0.06 0 0.350622 0.06 0 0.356009 0.06 0 0.361533 0.06 0 0.36721 0.06 0 0.373052 0.06 0 0.379075 0.06 0 0.385292 0.06 0 0.39172 0.06 0 0.398376 0.06 0 0.405279 0.06 0 0.412451 0.06 0 0.419917 0.06 0 0.427703 0.06 0 0.435843 0.06 0 0.444372 0.06 0 0.453332 0.06 0 0.462769 0.06 0 0.472737 0.06 0 0.483293 0.06 0 0.494484 0.06 0 0.506318 0.06 0 0.51864 0.06 0 0.530995 0.06 0 0.543199 0.06 0 0.555251 0.06 0 0.567185 0.06 0 0.579051 0.06 0 0.590884 0.06 0 0.602705 0.06 0 0.614519 0.06 0 0.626338 0.06 0 0.628618 0.06 0 0.630899 0.06 0 0.63318 0.06 0 0.63546 0.06 0 0.63774 0.06 0 0.64002 0.06 0 0.642297 0.06 0 0.644576 0.06 0 0.646856 0.06 0 0.649133 0.06 0 0.651411 0.06 0 0.653691 0.06 0 0.655971 0.06 0 0.65825 0.06 0 0.660527 0.06 0 0.662805 0.06 0 0.665084 0.06 0 0.667364 0.06 0 0.669645 0.06 0 0.671925 0.06 0 0.674206 0.06 0 0.676489 0.06 0 0.678772 0.06 0 0.681055 0.06 0 0.683336 0.06 0 0.685617 0.06 0 0.687898 0.06 0 0.690181 0.06 0 0.692463 0.06 0 0.694743 0.06 0 0.697024 0.06 0 0.699307 0.06 0 0.70159 0.06 0 0.703872 0.06 0 0.706155 0.06 0 0.708438
[...]
			<PointData Scalars="VitesseX">
				<DataArray Name="VitesseX" type="Float32" format="ascii">
 0 1.7607e-15 -9.81542e-16 5.10401e-15 -2.77809e-15 -2.13081e-15 3.43856e-15 4.14537e-15 -5.60998e-15 -5.42049e-15 6.40012e-15 -5.14721e-15 1.98176e-14 1.1915e-14 1.10196e-14 -6.26058e-16 7.77061e-15 1.1808e-14 4.52127e-15 9.6493e-15 1.11112e-14 1.62521e-14 -6.63807e-15 7.4004e-15 4.08057e-15 -8.43535e-16 2.73176e-14 2.48278e-14 -2.19488e-14 2.46144e-14 6.87493e-15 -1.24409e-15 2.53373e-14 -2.25035e-15 -4.32848e-15 1.96836e-14 -7.08101e-16 1.52158e-14 5.30017e-15 4.94862e-14 -1.92218e-14 1.5838e-14 -1.62513e-14 -8.91131e-15 4.0687e-15 1.99586e-14 5.43685e-15 4.86541e-14 1.84877e-14 9.52291e-14 1.6368e-13 9.38679e-13 7.40361e-12 5.24721e-11 3.50939e-10 2.20421e-09 1.29883e-08 7.15719e-08 3.67612e-07 1.75321e-06 7.72964e-06 3.13407e-05 0.000116148 0.000390562 0.00118157 0.00318664 0.00759776 0.0159382 0.0294741 0.0485531 0.0725001 0.100153 0.13047 0.162775 0.196719 0.232149 0.269024 0.307356 0.347196 0.388618 0.431715 0.476598 0.52339 0.572224 0.623233 0.676528 0.73215 0.789947 0.849238 0.907826 0.958831 0.981314 0.968584 0.956243 0.945689 0.939172 0.935998 0.934605 0.933947 0.933815 0.933977 0.933753 0.93349 0.933235 0.933005 0.932858 0.932819 0.933071 0.933456 0.933357 0.933314 0.933171 0.932999 0.9328 0.932629 0.932496 0.932419 0.932425 0.932988 0.934281 0.933989 0.933784 0.9334 0.933106 0.932851 0.932782 0.932803 0.932846 0.93263 0.932378 0.932105 0.931974 0.931991 0.93258 0.93219 0.931814 0.931545 0.932202 0.933472 0.925743 0.897869 0.894727 0.853228 0.780037 0.744497 0.633085 0.534073 0.410409 0.29031 0.181741 0.0993594 0.0472756 0.0201631 0.00804777 0.00310756 0.00118125 0.00044525 0.000166839 6.2177e-05 2.30384e-05 8.48133e-06 3.09962e-06 1.12361e-06 4.03663e-07 1.43607e-07 5.05547e-08 1.75989e-08 6.05452e-09 2.05745e-09 6.902e-10 2.28555e-10 7.47585e-11 2.41303e-11 7.67698e-12 2.36194e-12 7.43791e-13 1.95467e-13 1.18224e-13 -1.07407e-13 3.17564e-14 -8.26109e-14 9.2246e-14 -5.96524e-14 1.25006e-14 -7.77977e-14 -4.20337e-14 -3.76624e-14 -5.12048e-14 1.0917e-13 -8.44171e-14 1.06577e-13 -1.37923e-13 5.75783e-14 -1.21106e-13 -1.00849e-13 6.80212e-14 2.8044e-14 -8.70558e-14 -1.06564e-13 1.1041e-13 0 0 -5.52201e-17 3.68647e-16 -7.70138e-16 3.51794e-15 -1.45472e-15 -3.25907e-15 4.86863e-15 -3.64379e-15 1.16756e-15 3.17838e-15 7.29289e-15 6.39728e-15 1.3108e-14 9.32495e-15 2.2962e-15 3.57219e-15 1.27284e-14 1.32485e-14 9.24034e-15 1.0901e-15 2.0385e-15 5.96462e-15 7.2268e-15 -8.08307e-15 2.16265e-14 2.42308e-14 -2.20793e-15 -5.18462e-15 2.27811e-14 -9.6172e-15 2.37729e-14 -1.65887e-15 -7.24069e-15 1.08414e-14 -5.78734e-15 1.53612e-14 2.3521e-14 1.84834e-14 6.48773e-15 3.13777e-14 -2.25311e-14 2.99559e-14 -2.54825e-14 3.61584e-14 -1.77082e-14 2.5335e-14 3.32747e-14 5.58538e-14 8.58358e-14 1.74523e-13 9.7631e-13 7.4106e-12 5.24578e-11 3.50865e-10 2.20421e-09 1.29882e-08 7.15719e-08 3.67612e-07 1.75321e-06 7.72964e-06 3.13407e-05 0.000116148 0.000390562 0.00118157 0.00318664 0.00759776 0.0159382 0.0294741 0.0485531 0.0725001 0.100153 0.13047 0.162775 0.196719 0.232149 0.269024 0.307356 0.347196 0.388618 0.431715 0.476598 0.52339 0.572224 0.623233 0.676528 0.73215 0.789947 0.849238 0.907826 0.958831 0.981314 0.968584 0.956243 0.945689 0.939172 0.935998 0.934605 0.933947 0.933815 0.933977 0.933753 0.93349 0.933235 0.933005 0.932858 0.932819 0.933071 0.933456 0.933357 0.933314 0.933171 0.932999 0.9328 0.932629 0.932496 0.932419 0.932425 0.932988 0.934281 0.933989 0.933784 0.9334 0.933106 0.932851 0.932782 0.932803 0.932846 0.93263 0.932378 0.932105 0.931974 0.931991 0.93258 0.93219 0.931814 0.931545 0.932202 0.933472 0.925743 0.897869 0.894727 0.853228 0.780037 0.744497 0.633085 0.534073 0.410409 0.29031 0.181741 0.0993594 0.0472756 0.0201631 0.00804777 0.00310756 0.00118125 0.00044525 0.000166839 6.2177e-05 2.30384e-05 8.48133e-06 3.09962e-06 1.12361e-06 4.03663e-07 1.43607e-07 5.05546e-08 1.7599e-08 6.05456e-09 2.05752e-09 6.90273e-10 2.28582e-10 7.4662e-11 2.41209e-11 7.62715e-12 2.45263e-12 6.54237e-13 3.26181e-13 -7.17344e-14 1.43463e-14 -6.06138e-14 1.00725e-13 -1.46649e-13 9.61542e-14 -1.21486e-13 -4.47054e-14 -8.37978e-14 -9.6377e-14 5.83284e-15 1.16443e-13 5.18452e-14 -1.34033e-13 1.19118e-14 -9.37394e-14 3.6945e-14 4.49583e-15 -1.79052e-14 -8.98412e-14 7.52935e-14 3.69589e-14 6.97164e-15 0 0 -1.07775e-15 -2.49973e-16 -1.57571e-15 2.53617e-15 -7.09488e-16 -3.21436e-15 -3.78975e-15 6.0512e-15 1.28928e-14 4.45069e-15 -2.0086e-15 8.55488e-15 6.30795e-15 1.80099e-14 2.04341e-15 4.98934e-15 4.87313e-15 6.02134e-15 1.616e-14 -3.0099e-15 1.40738e-14 -3.66056e-15 3.14966e-15 6.8393e-15 -4.40211e-15 1.8996e-14 -5.06628e-16 7.02263e-15 -2.76109e-16 -2.77235e-15 -4.42645e-16 -2.0585e-15 2.51682e-14 -1.50434e-14 -5.45212e-15 2.78619e-14 4.13203e-14 7.73958e-15 1.61049e-14 -3.83686e-15 -3.2298e-14 4.75797e-14 8.5683e-15 6.05176e-15 2.73552e-14 1.05244e-14 4.60985e-14 1.00078e-13 3.29782e-14 1.98563e-13 1.01301e-12 7.37826e-12 5.24599e-11 3.50793e-10 2.20418e-09 1.29882e-08 7.1572e-08 3.67612e-07 1.75321e-06 7.72964e-06 3.13407e-05 0.000116148 0.000390562 0.00118157 0.00318664 0.00759776 0.0159382 0.0294741 0.0485531 0.0725001 0.100153 0.13047 0.162775 0.196719 0.232149 0.269024 0.307356 0.347196 0.388618 0.431715 0.476598 0.52339 0.572224 0.623233 0.676528 0.73215 0.789947 0.849238 0.907826 0.958831 0.981314 0.968584 0.956243 0.945689 0.939172 0.935998 0.934605 0.933947 0.933815 0.933977 0.933753 0.93349 0.933235 0.933005 0.932858 0.932819 0.933071 0.933456 0.933357 0.933314 0.933171 0.932999 0.9328 0.932629 0.932496 0.932419 0.932425 0.932988 0.934281 0.933989 0.933784 0.9334 0.933106 0.932851 0.932782 0.932803 0.932846 0.93263 0.932378 0.932105 0.931974 0.931991 0.93258 0.93219 0.931814 0.931545 0.932202 0.933472 0.925743 0.897869 0.894727 0.853228 0.780037 0.744497 0.633085 0.534073 0.410409 0.29031 0.181741 0.0993594 0.0472756 0.0201631 0.00804777 0.00310756 0.00118125 0.00044525 0.000166839 6.2177e-05 2.30384e-05 8.48133e-06 3.09962e-06 1.12361e-06 4.03663e-07 1.43607e-07 5.05547e-08 1.75989e-08 6.05464e-09 2.05743e-09 6.90297e-10 2.28559e-10 7.47186e-11 2.40331e-11 7.79573e-12 2.46635e-12 7.83399e-13 1.15343e-13 -1.26093e-13 6.4955e-14 -1.37415e-13 -5.44181e-14 3.50006e-14 1.68986e-14 -8.49304e-14 5.41492e-14 -1.25527e-13 -5.24434e-15 -5.52849e-14 5.20777e-14 3.46384e-14 -9.53913e-14 7.27614e-14 2.08947e-14 -3.30946e-14 9.54061e-14 -1.04851e-13 -7.33749e-14 1.57306e-13 6.73088e-14 -5.8e-14 0 0 -2.51847e-16 -9.003e-17 1.08034e-15 -1.57003e-16 4.8635e-15 8.63741e-16 -2.7547e-15 6.44048e-15 7.75198e-15 6.92792e-15 9.72692e-15 -5.81401e-15 1.53394e-14 9.77784e-15 1.01137e-14 8.69845e-15 -5.24467e-15 -3.5506e-15 2.24272e-14 2.90942e-15 2.11089e-15 -1.0652e-14 -5.18193e-15 -1.78764e-15 2.14949e-14 5.89776e-15 1.26667e-14 1.23907e-14 -1.42521e-14 1.01274e-14 4.39969e-15 1.6592e-15 8.41605e-15 -2.37589e-14 1.20483e-14 2.68385e-14 4.23012e-14 -1.19451e-14 2.33662e-14 -3.72161e-14 -2.98628e-15 1.8561e-14 3.14375e-14 2.35034e-16 5.03573e-14 -2.75107e-14 9.84702e-14 5.28608e-14 1.04982e-13 2.36601e-13 9.0504e-13 7.40384e-12 5.24461e-11 3.50801e-10 2.20413e-09 1.29882e-08 7.15718e-08 3.67612e-07 1.75321e-06 7.72964e-06 3.13407e-05 0.000116148 0.000390562 0.00118157 0.00318664 0.00759776 0.0159382 0.0294741 0.0485531 0.0725001 0.100153 0.13047 0.162775 0.196719 0.232149 0.269024 0.307356 0.347196 0.388618 0.431715 0.476598 0.52339 0.572224 0.623233 0.676528 0.73215 0.789947 0.849238 0.907826 0.958831 0.981314 0.968584 0.956243 0.945689 0.939172 0.935998 0.934605 0.933947 0.933815 0.933977 0.933753 0.93349 0.933235 0.933005 0.932858 0.932819 0.933071 0.933456 0.933357 0.933314 0.933171 0.932999 0.9328 0.932629 0.932496 0.932419 0.932425 0.932988 0.934281 0.933989 0.933784 0.9334 0.933106 0.932851 0.932782 0.932803 0.932846 0.93263 0.932378 0.932105 0.931974 0.931991 0.93258 0.93219 0.931814 0.931545 0.932202 0.933472 0.925743 0.897869 0.894727 0.853228 0.780037 0.744497 0.633085 0.534073 0.410409 0.29031 0.181741 0.0993594 0.0472756 0.0201631 0.00804777 0.00310756 0.00118125 0.00044525 0.000166839 6.2177e-05 2.30384e-05 8.48133e-06 3.09962e-06 1.12361e-06 4.03663e-07 1.43607e-07 5.05547e-08 1.75989e-08 6.05461e-09 2.05741e-09 6.90219e-10 2.28484e-10 7.4921e-11 2.40584e-11 7.87769e-12 2.38437e-12 6.81315e-13 -1.15763e-13 1.66972e-13 -9.97501e-14 -1.88316e-13 -2.17585e-14 1.96758e-13 -1.13878e-13 -8.50657e-15 7.30284e-14 -9.84513e-14 1.89706e-13 -7.69204e-14 1.14317e-13 -1.02722e-13 9.62151e-15 5.08784e-14 1.39771e-13 -1.124e-13 1.84584e-14 -7.30652e-14 5.09915e-14 -1.838e-14 -1.0044e-13 -1.5355e-14 0 0 -2.23023e-15 -1.35782e-16 -4.54967e-16 4.33181e-15 1.12556e-14 6.43023e-15 2.68739e-16 -3.28823e-15 2.12648e-15 2.01238e-15 1.62826e-14 -1.34836e-14 1.44311e-14 1.15764e-14 1.74519e-14 1.48647e-14 4.1186e-15 2.07677e-15 5.58192e-15 -1.47966e-14 -1.81733e-14 -4.16924e-15 8.17041e-15 -1.85204e-15 7.79179e-15 1.46205e-15 2.54572e-14 -5.60616e-16 -3.10007e-15 1.60942e-15 2.59658e-14 -1.89167e-14 -4.09196e-15 -1.04664e-14 2.87298e-14 9.08921e-15 1.29047e-14 -1.99834e-14 1.28314e-14 1.53662e-14 -6.14369e-15 5.93115e-14 1.64702e-14 4.48465e-14 -4.4264e-14 2.43558e-14 1.065e-13 7.44698e-14 1.33149e-13 2.50909e-13 8.19213e-13 7.3129e-12 5.25149e-11 3.50774e-10 2.20411e-09 1.29882e-08 7.15718e-08 3.67612e-07 1.75321e-06 7.72964e-06 3.13407e-05 0.000116148 0.000390562 0.00118157 0.00318664 0.00759776 0.0159382 0.0294741 0.0485531 0.0725001 0.100153 0.13047 0.162775 0.196719 0.232149 0.269024 0.307356 0.347196 0.388618 0.431715 0.476598 0.52339 0.572224 0.623233 0.676528 0.73215 0.789947 0.849238 0.907826 0.958831 0.981314 0.968584 0.956243 0.945689 0.939172 0.935998 0.934605 0.933947 0.933815 0.933977 0.933753 0.93349 0.933235 0.933005 0.932858 0.932819 0.933071 0.933456 0.933357 0.933314 0.933171 0.932999 0.9328 0.932629 0.932496 0.932419 0.932425 0.932988 0.934281 0.933989 0.933784 0.9334 0.933106 0.932851 0.932782 0.932803 0.932846 0.93263 0.932378 0.932105 0.931974 0.931991 0.93258 0.93219 0.931814 0.931545 0.932202 0.933472 0.925743 0.897869 0.894727 0.853228 0.780037 0.744497 0.633085 0.534073 0.410409 0.29031 0.181741 0.0993594 0.0472756 0.0201631 0.00804777 0.00310756 0.00118125 0.00044525 0.000166839 6.2177e-05 2.30384e-05 8.48133e-06 3.09962e-06 1.12361e-06 4.03663e-07 1.43607e-07 5.05547e-08 1.7599e-08 6.05459e-09 2.05766e-09 6.9012e-10 2.28784e-10 7.47057e-11 2.42142e-11 7.63926e-12 2.4253e-12 6.06511e-13 -1.33314e-13 1.8138e-13 -2.93571e-13 1.39028e-13 7.43583e-15 -1.03905e-13 1.36061e-13 -1.1424e-13 3.69174e-14 -1.23402e-13 5.84178e-14 1.21135e-13 1.41421e-13 1.76731e-13 6.18439e-14 -3.61153e-14 -6.86625e-14 5.79891e-14 -2.07745e-14 -9.06141e-14 -3.39346e-14 -7.62167e-14 -6.56502e-14 -4.00717e-14 0 0 -4.24112e-15 -2.31029e-15 4.22244e-16 4.23601e-15 1.21439e-14 1.4661e-14 -7.1245e-15 -5.67742e-15 6.77894e-15 -8.86343e-16 -1.06389e-14 8.79352e-15 -3.50152e-15 3.19865e-14 1.35446e-14 2.29373e-14 1.48241e-14 1.32162e-15 -1.02019e-14 -3.25009e-14 -2.45825e-16 -1.2923e-14 2.59508e-14 3.37965e-14 -8.03071e-14 7.97677e-15 5.38114e-14 -2.34371e-14 8.04091e-16 3.52863e-15 -6.54304e-15 -1.66137e-14 3.75514e-14 -2.9513e-14 5.3717e-14 -1.12054e-14 -7.97859e-15 -3.22642e-14 4.76508e-14 1.55137e-14 -1.00106e-14 1.00497e-13 2.92556e-14 3.30784e-14 -7.91571e-14 7.95487e-14 9.03609e-14 1.50154e-13 4.58478e-14 2.40374e-13 8.40427e-13 7.15706e-12 5.2614e-11 3.50743e-10 2.20411e-09 1.29881e-08 7.15719e-08 3.67612e-07 1.75321e-06 7.72964e-06 3.13407e-05 0.000116148 0.000390562 0.00118157 0.00318664 0.00759776 0.0159382 0.0294741 0.0485531 0.0725001 0.100153 0.13047 0.162775 0.196719 0.232149 0.269024 0.307356 0.347196 0.388618 0.431715 0.476598 0.52339 0.572224 0.623233 0.676528 0.73215 0.789947 0.849238 0.907826 0.958831 0.981314 0.968584 0.956243 0.945689 0.939172 0.935998 0.934605 0.933947 0.933815 0.933977 0.933753 0.93349 0.933235 0.933005 0.932858 0.932819 0.933071 0.933456 0.933357 0.933314 0.933171 0.932999 0.9328 0.932629 0.932496 0.932419 0.932425 0.932988 0.934281 0.933989 0.933784 0.9334 0.933106 0.932851 0.932782 0.932803 0.932846 0.93263 0.932378 0.932105 0.931974 0.931991 0.93258 0.93219 0.931814 0.931545 0.932202 0.933472 0.925743 0.897869 0.894727 0.853228 0.780037 0.744497 0.633085 0.534073 0.410409 0.29031 0.181741 0.0993594 0.0472756 0.0201631 0.00804777 0.00310756 0.00118125 0.00044525 0.000166839 6.2177e-05 2.30384e-05 8.48133e-06 3.09962e-06 1.12361e-06 4.03663e-07 1.43607e-07 5.0555e-08 1.75988e-08 6.05466e-09 2.05776e-09 6.90052e-10 2.29108e-10 7.44415e-11 2.42667e-11 7.53749e-12 2.47129e-12 8.52847e-13 -2.60989e-13 3.835e-14 -3.93567e-13 5.33052e-13 -3.3467e-13 -1.45952e-13 2.81712e-13 -1.25828e-13 4.77804e-14 -1.75193e-13 -1.17491e-13 2.23229e-13 3.47553e-14 4.39908e-13 2.88216e-13 -1.89813e-13 -1.30271e-13 7.85105e-14 2.08934e-15 -1.41103e-13 -1.09023e-13 -3.89857e-14 2.34549e-14 -6.89422e-14 0
				</DataArray>
				<DataArray Name="VitesseY" type="Float32" format="ascii">